cancer0
299783
    1DOPC   NC3    1   5.044   7.412  14.073 -0.5625 -0.0769  0.1062
    1DOPC   PO4    2   4.934   7.026  13.995  0.1955 -0.1586 -0.1195
    1DOPC   GL1    3   5.035   7.104  13.623 -0.0790 -0.3053 -0.3432
    1DOPC   GL2    4   5.020   6.800  13.526 -0.0237 -0.1858 -0.1603
    1DOPC   C1A    5   5.141   7.303  13.208 -0.0294 -0.1537  0.3048
    1DOPC   D2A    6   5.113   7.489  12.834  0.2715 -0.1331  0.0780
    1DOPC   C3A    7   4.968   7.660  12.455  0.0969 -0.0141 -0.0137
    1DOPC   C4A    8   5.111   7.994  12.126 -0.1610 -0.0750 -0.2960
    1DOPC   C1B    9   4.819   6.896  13.170  0.1537 -0.2625 -0.1172
    1DOPC   D2B   10   4.782   7.092  12.744  0.0841  0.1989 -0.0171
    1DOPC   C3B   11   5.107   7.171  12.388 -0.0905  0.2706 -0.0780
    1DOPC   C4B   12   5.512   7.235  12.107 -0.1321 -0.2747  0.0909
    2DOPC   NC3   13  10.336   1.034  14.047  0.2305  0.0467 -0.1345
    2DOPC   PO4   14  10.059   1.298  13.989 -0.0179 -0.1000 -0.0366
    2DOPC   GL1   15   9.860   1.322  13.708  0.1507 -0.0590 -0.1352
    2DOPC   GL2   16   9.648   1.490  13.819  0.1219 -0.1065 -0.0262
    2DOPC   C1A   17   9.639   1.414  13.277 -0.1768 -0.1625 -0.2866
    2DOPC   D2A   18   9.585   1.350  12.764  0.2242 -0.1028  0.2458
    2DOPC   C3A   19   9.570   0.916  12.619  0.0139 -0.1203 -0.1884
    2DOPC   C4A   20   9.682   0.736  12.178  0.2512 -0.1180  0.3631
    2DOPC   C1B   21   9.726   1.881  13.553  0.0007 -0.2431 -0.1179
    2DOPC   D2B   22   9.633   2.142  13.178  0.1599  0.0977 -0.1197
    2DOPC   C3B   23   9.740   2.145  12.737 -0.2761  0.0702 -0.0578
    2DOPC   C4B   24   9.654   2.173  12.246  0.0546 -0.3244  0.0341
    3DOPE   NH3   25  13.591  10.351  14.780  0.0891 -0.1445  0.0794
    3DOPE   PO4   26  13.584  10.044  14.673  0.1215  0.1039  0.0647
    3DOPE   GL1   27  13.325  10.209  14.339 -0.3012 -0.0766 -0.0146
    3DOPE   GL2   28  13.076  10.060  14.359  0.1525  0.3563 -0.4374
    3DOPE   C1A   29  13.240  10.280  13.898 -0.0227  0.1214  0.0523
    3DOPE   D2A   30  12.862  10.273  13.593 -0.4794 -0.0689 -0.0153
    3DOPE   C3A   31  12.673  10.611  13.376 -0.1872  0.0601 -0.0808
    3DOPE   C4A   32  12.629  10.706  12.960  0.0269 -0.0218  0.0524
    3DOPE   C1B   33  13.142   9.749  13.994 -0.0971  0.1450 -0.0467
    3DOPE   D2B   34  12.938   9.464  13.724 -0.1342  0.0550  0.2937
    3DOPE   C3B   35  12.576   9.438  13.454  0.0176 -0.2045  0.0431
    3DOPE   C4B   36  12.140   9.294  13.341 -0.1666 -0.1643  0.5779
    4DOPE   NH3   37   1.525   6.283  13.883 -0.0943  0.0038  0.1077
    4DOPE   PO4   38   1.812   6.481  13.917  0.0399 -0.0434  0.0415
    4DOPE   GL1   39   1.972   6.499  13.608 -0.2508  0.0124  0.1113
    4DOPE   GL2   40   1.654   6.389  13.447 -0.0676  0.1242  0.0923
    4DOPE   C1A   41   2.066   6.255  13.190  0.1587  0.1625  0.0585
    4DOPE   D2A   42   2.279   6.357  12.820  0.0614 -0.1852 -0.3171
    4DOPE   C3A   43   2.355   6.388  12.337  0.1731 -0.0441 -0.1271
    4DOPE   C4A   44   2.370   6.678  11.961 -0.0632  0.0939 -0.1908
    4DOPE   C1B   45   1.678   6.628  13.004  0.1730  0.2593 -0.1667
    4DOPE   D2B   46   1.663   6.722  12.536  0.0440  0.1091 -0.2275
    4DOPE   C3B   47   2.065   6.818  12.345  0.1333 -0.1900  0.1974
    4DOPE   C4B   48   2.443   6.771  12.624 -0.2383  0.2362 -0.1831
    5DOPC   NC3   49  12.662  10.694  15.162  0.0407 -0.1741 -0.1871
    5DOPC   PO4   50  12.295  10.671  15.208  0.0288  0.1723  0.0558
    5DOPC   GL1   51  12.298  10.690  14.805  0.1872 -0.1990  0.0578
    5DOPC   GL2   52  11.990  10.666  14.743 -0.0185  0.1202  0.0603
    5DOPC   C1A   53  12.488  10.604  14.362 -0.1116 -0.2587 -0.2152
    5DOPC   D2A   54  12.604  10.574  13.909 -0.1977  0.0639  0.1641
    5DOPC   C3A   55  12.267  10.278  13.651 -0.3399 -0.1561 -0.0957
    5DOPC   C4A   56  11.853  10.048  13.817  0.1607 -0.0737 -0.2966
    5DOPC   C1B   57  11.708  10.635  14.374  0.2051  0.0099 -0.1050
    5DOPC   D2B   58  11.301  10.536  14.192  0.0305 -0.2332 -0.1578
    5DOPC   C3B   59  11.369  10.333  13.734  0.0799 -0.1542 -0.1250
    5DOPC   C4B   60  11.379  10.188  13.298  0.3634  0.1167  0.2047
    6DOPC   NC3   61   7.423  10.771  14.111 -0.0198 -0.2437 -0.3236
    6DOPC   PO4   62   7.696  11.058  14.142  0.1475 -0.2588 -0.0988
    6DOPC   GL1   63   7.758  10.983  13.783 -0.1842  0.1546 -0.1865
    6DOPC   GL2   64   8.011  11.015  13.649  0.2477 -0.0384 -0.1007
    6DOPC   C1A   65   7.614  11.137  13.348 -0.1405 -0.0299 -0.1760
    6DOPC   D2A   66   7.255  11.141  13.043  0.1050  0.4018 -0.3528
    6DOPC   C3A   67   7.026  10.819  12.768 -0.0095  0.1377 -0.2781
    6DOPC   C4A   68   7.059  10.408  12.517 -0.2461  0.0752  0.0890
    6DOPC   C1B   69   8.225  10.655  13.388 -0.2861  0.0398  0.2644
    6DOPC   D2B   70   8.268  10.541  12.961  0.1307  0.1363  0.4475
    6DOPC   C3B   71   7.996  10.349  12.616 -0.0883 -0.1885 -0.1302
    6DOPC   C4B   72   7.651  10.000  12.521 -0.1962 -0.1677 -0.0343
    7POSM   NC3   73   3.124  33.853  13.731 -0.3194 -0.3861  0.2421
    7POSM   PO4   74   3.349  34.201  13.707  0.1334  0.0496  0.0163
    7POSM   AM1   75   3.490  34.099  13.399 -0.1535 -0.1479 -0.2491
    7POSM   AM2   76   3.422  33.862  13.292  0.0496 -0.1273 -0.0752
    7POSM   T1A   77   3.762  34.127  12.960 -0.0795  0.1057 -0.1268
    7POSM   C2A   78   4.159  34.292  12.799  0.1084 -0.1330  0.2117
    7POSM   C3A   79   4.338  34.550  12.395 -0.0574  0.1317 -0.1539
    7POSM   C1B   80   3.371  33.836  12.933 -0.0046  0.2814 -0.2356
    7POSM   D2B   81   3.358  33.755  12.513 -0.2723  0.2000 -0.2465
    7POSM   C3B   82   3.101  33.401  12.450  0.1371 -0.2592  0.0022
    7POSM   C4B   83   2.830  33.064  12.407  0.0271 -0.0603 -0.2023
    8DOPS   CNO   84   6.238  11.078  13.966 -0.2828 -0.0543 -0.0332
    8DOPS   PO4   85   6.465  10.824  14.088  0.0470 -0.0661 -0.1230
    8DOPS   GL1   86   6.089  10.645  13.904  0.2241 -0.0703  0.0568
    8DOPS   GL2   87   6.053  10.443  14.088 -0.1208 -0.0931  0.0163
    8DOPS   C1A   88   6.053  10.530  13.456  0.1645  0.0223 -0.2569
    8DOPS   D2A   89   6.047  10.511  13.008  0.1792  0.1622 -0.2710
    8DOPS   C3A   90   5.984  10.601  12.554  0.0277 -0.0015 -0.0500
    8DOPS   C4A   91   6.185  10.702  12.122  0.0728  0.1532 -0.1756
    8DOPS   C1B   92   5.680  10.289  13.789 -0.2973  0.1485 -0.1513
    8DOPS   D2B   93   5.422   9.941  13.643  0.0887 -0.0192 -0.2078
    8DOPS   C3B   94   5.245   9.877  13.229 -0.0293  0.2931  0.3982
    8DOPS   C4B   95   5.202  10.075  12.798 -0.0762 -0.1683  0.0371
    9DOPC   NC3   96   7.334  34.350  14.332 -0.6719  0.1086 -0.2807
    9DOPC   PO4   97   7.237  34.654  14.565  0.4957 -0.1909  0.1199
    9DOPC   GL1   98   7.367  34.841  14.214 -0.3872  0.1070 -0.0595
    9DOPC   GL2   99   7.106  34.833  14.078  0.1931  0.1521  0.0943
    9DOPC   C1A  100   7.477  35.033  13.854  0.0788 -0.0817  0.0991
    9DOPC   D2A  101   7.864  35.009  13.535  0.0757  0.0197  0.1472
    9DOPC   C3A  102   7.761  35.214  13.094  0.0055  0.1606  0.1363
    9DOPC   C4A  103   7.934  35.565  12.802  0.0312 -0.0438  0.2206
    9DOPC   C1B  104   6.700  34.978  13.909  0.0523  0.0673 -0.1668
    9DOPC   D2B  105   6.294  35.072  13.640 -0.0848 -0.1350  0.0150
    9DOPC   C3B  106   6.199  34.870  13.209 -0.1084  0.0230  0.1446
    9DOPC   C4B  107   6.432  34.749  12.875  0.0129  0.1420  0.0106
   10DOPE   NH3  108   3.086   4.173  13.889 -0.0173  0.2253 -0.3525
   10DOPE   PO4  109   3.371   3.976  13.915 -0.0687 -0.1414  0.1463
   10DOPE   GL1  110   3.402   4.333  13.610 -0.0398 -0.2882 -0.2227
   10DOPE   GL2  111   3.339   4.101  13.416  0.3935 -0.2101 -0.2561
   10DOPE   C1A  112   3.622   4.573  13.250  0.1619  0.1727 -0.6694
   10DOPE   D2A  113   3.888   4.635  12.873 -0.0543  0.1134  0.3714
   10DOPE   C3A  114   3.959   4.829  12.428  0.1040 -0.3527  0.0969
   10DOPE   C4A  115   4.173   5.103  12.080 -0.1216 -0.0798  0.1244
   10DOPE   C1B  116   3.648   4.023  13.132  0.3412  0.2142 -0.2825
   10DOPE   D2B  117   3.773   4.169  12.766 -0.1044  0.0568  0.0391
   10DOPE   C3B  118   4.071   3.821  12.505 -0.2019 -0.0283  0.3222
   10DOPE   C4B  119   4.462   3.559  12.355 -0.3761  0.3938 -0.0862
   11POSM   NC3  120   9.522   8.125  15.003  0.1538  0.0739  0.0042
   11POSM   PO4  121   9.516   8.308  14.672 -0.2171 -0.0447 -0.1600
   11POSM   AM1  122   9.489   8.280  14.328  0.3831 -0.5839  0.4294
   11POSM   AM2  123   9.671   8.425  14.118 -0.0757 -0.0382 -0.1695
   11POSM   T1A  124   9.279   8.247  13.904 -0.1912  0.2087 -0.1757
   11POSM   C2A  125   9.359   8.251  13.428 -0.3422 -0.2534 -0.0586
   11POSM   C3A  126   9.416   8.033  12.978  0.0926  0.1050 -0.0174
   11POSM   C1B  127   9.695   8.441  13.816  0.2121 -0.0486 -0.1660
   11POSM   D2B  128   9.592   8.720  13.419 -0.2163  0.1041  0.1921
   11POSM   C3B  129   9.625   8.529  12.985 -0.2012  0.2599  0.0545
   11POSM   C4B  130   9.377   8.448  12.587  0.0190  0.0748 -0.3136
   12DOPS   CNO  131   5.526  12.911  14.568  0.0549  0.0473  0.0154
   12DOPS   PO4  132   5.453  12.961  14.185 -0.0948  0.0399 -0.2354
   12DOPS   GL1  133   5.353  12.738  13.858  0.3195  0.1594  0.4415
   12DOPS   GL2  134   5.683  12.684  13.799  0.2774  0.3553  0.0452
   12DOPS   C1A  135   5.262  12.746  13.396 -0.0153 -0.2921  0.3283
   12DOPS   D2A  136   5.389  12.792  12.907 -0.1414  0.1302  0.0171
   12DOPS   C3A  137   5.072  12.630  12.627 -0.1819  0.3156 -0.1025
   12DOPS   C4A  138   5.065  12.710  12.203 -0.0757  0.2111  0.1289
   12DOPS   C1B  139   5.681  12.510  13.406  0.2832 -0.2429 -0.2437
   12DOPS   D2B  140   5.988  12.366  13.083  0.1767  0.0906  0.1223
   12DOPS   C3B  141   6.022  11.885  13.153 -0.2360 -0.3683  0.0427
   12DOPS   C4B  142   5.928  11.493  12.873  0.3308  0.1164 -0.3089
   13DOPC   NC3  143  10.395   4.029  14.537 -0.5022  0.0882  0.0025
   13DOPC   PO4  144  10.262   4.359  14.289  0.1383  0.0014  0.2933
   13DOPC   GL1  145  10.421   4.473  13.881  0.1782 -0.2054  0.1482
   13DOPC   GL2  146  10.138   4.353  13.727 -0.0109  0.2617  0.0887
   13DOPC   C1A  147  10.596   4.296  13.480 -0.1936 -0.0340  0.2624
   13DOPC   D2A  148  10.585   4.167  13.047  0.0346 -0.1708  0.1147
   13DOPC   C3A  149  10.573   4.419  12.623  0.0423 -0.1676  0.1633
   13DOPC   C4A  150  10.300   4.657  12.249  0.1549  0.2324  0.1003
   13DOPC   C1B  151   9.796   4.151  13.470 -0.0398 -0.3059 -0.1660
   13DOPC   D2B  152   9.415   3.999  13.272  0.1524 -0.1939 -0.1578
   13DOPC   C3B  153   9.122   4.116  12.940  0.1441  0.2428  0.0919
   13DOPC   C4B  154   8.934   4.342  12.636 -0.2208  0.3425  0.0008
   14DOPE   NH3  155   5.779   1.903  13.904  0.0131 -0.0506 -0.3969
   14DOPE   PO4  156   5.661   2.158  13.923  0.0854 -0.0079 -0.3167
   14DOPE   GL1  157   5.849   2.233  13.581  0.2952  0.0585 -0.4302
   14DOPE   GL2  158   5.843   2.060  13.289  0.1721 -0.0505  0.1531
   14DOPE   C1A  159   5.920   2.571  13.269 -0.1063  0.0941  0.3933
   14DOPE   D2A  160   5.779   2.499  12.804  0.0231 -0.1643  0.1275
   14DOPE   C3A  161   5.980   2.138  12.619  0.0429 -0.1620 -0.1044
   14DOPE   C4A  162   6.288   1.944  12.799 -0.0402  0.1639 -0.1479
   14DOPE   C1B  163   5.824   1.648  13.020  0.0832  0.4661 -0.1189
   14DOPE   D2B  164   5.948   1.544  12.563  0.1482 -0.2806  0.1173
   14DOPE   C3B  165   6.373   1.626  12.409  0.1277  0.0787  0.0029
   14DOPE   C4B  166   6.833   1.630  12.317  0.3061  0.0327  0.1133
   15DOPE   NH3  167   5.135   0.115  13.833  0.0261 -0.1359  0.1690
   15DOPE   PO4  168   5.383   0.092  13.657 -0.1725 -0.0068 -0.0840
   15DOPE   GL1  169   5.425   0.057  13.233  0.0084 -0.1534  0.0125
   15DOPE   GL2  170   5.638  -0.101  13.155 -0.1168  0.3505  0.1759
   15DOPE   C1A  171   5.260   0.333  12.970  0.0654  0.2647 -0.0304
   15DOPE   D2A  172   5.118   0.571  12.607  0.1884 -0.3023 -0.0557
   15DOPE   C3A  173   5.217   0.287  12.231 -0.0279 -0.2426 -0.1607
   15DOPE   C4A  174   5.216   0.085  11.847 -0.0498  0.2217 -0.0482
   15DOPE   C1B  175   5.804   0.201  12.811 -0.1517  0.0756 -0.0750
   15DOPE   D2B  176   5.952  -0.076  12.488 -0.3319 -0.3062  0.3190
   15DOPE   C3B  177   6.341   0.026  12.319  0.1919 -0.1832 -0.3640
   15DOPE   C4B  178   6.655   0.338  12.302 -0.0545 -0.3197  0.2344
   16DOPC   NC3  179   9.734  11.763  14.595  0.2064  0.2763  0.0068
   16DOPC   PO4  180  10.066  11.783  14.831  0.0800  0.0032 -0.1231
   16DOPC   GL1  181  10.067  11.402  14.560 -0.0481 -0.0276 -0.1345
   16DOPC   GL2  182  10.170  11.149  14.670 -0.0968  0.2355  0.2479
   16DOPC   C1A  183  10.104  11.582  14.163 -0.3532 -0.0416  0.1044
   16DOPC   D2A  184   9.924  11.921  13.898  0.0733  0.1732 -0.1387
   16DOPC   C3A  185   9.999  11.893  13.446 -0.0296 -0.2445  0.0794
   16DOPC   C4A  186  10.082  11.835  12.975  0.0477  0.0068  0.1125
   16DOPC   C1B  187  10.385  11.050  14.229  0.0218 -0.2532 -0.0526
   16DOPC   D2B  188  10.564  11.249  13.895  0.1994 -0.0294 -0.4098
   16DOPC   C3B  189  10.889  11.098  13.577  0.1717 -0.0627 -0.1732
   16DOPC   C4B  190  11.148  11.259  13.207  0.0507  0.2160  0.1366
   17POSM   NC3  191   9.991   5.389  14.510 -0.1029  0.0163  0.2694
   17POSM   PO4  192   9.774   5.064  14.565 -0.3725 -0.0937 -0.1417
   17POSM   AM1  193   9.785   5.003  14.251 -0.3241 -0.2901  0.0702
   17POSM   AM2  194   9.775   4.727  14.145  0.1483 -0.4450  0.3307
   17POSM   T1A  195   9.658   5.107  13.790 -0.1753 -0.1574 -0.0725
   17POSM   C2A  196   9.872   5.016  13.370 -0.2096  0.0403  0.1430
   17POSM   C3A  197   9.734   5.021  12.914  0.0217  0.0954 -0.1447
   17POSM   C1B  198   9.702   4.632  13.788  0.3295 -0.0251 -0.3173
   17POSM   D2B  199   9.535   4.586  13.375 -0.0814  0.1685 -0.3805
   17POSM   C3B  200   9.692   4.505  12.970 -0.0755  0.0427 -0.0047
   17POSM   C4B  201   9.434   4.401  12.635 -0.0832  0.0974  0.0319
   18DOPE   NH3  202   4.556   6.857  14.344 -0.2826  0.0124 -0.1811
   18DOPE   PO4  203   4.398   6.867  14.077 -0.2757  0.2703 -0.4602
   18DOPE   GL1  204   4.588   6.916  13.699 -0.2477 -0.4715 -0.3115
   18DOPE   GL2  205   4.440   7.108  13.548 -0.1954  0.1032  0.3380
   18DOPE   C1A  206   4.421   6.654  13.357 -0.1315 -0.2550 -0.0542
   18DOPE   D2A  207   4.128   6.749  13.022 -0.0098 -0.0596 -0.1031
   18DOPE   C3A  208   4.253   6.816  12.642  0.0303 -0.1594 -0.0624
   18DOPE   C4A  209   4.277   6.935  12.198 -0.2848  0.3263 -0.1115
   18DOPE   C1B  210   4.197   7.478  13.452  0.2558 -0.2928 -0.0173
   18DOPE   D2B  211   3.790   7.696  13.405  0.0935 -0.0094  0.0852
   18DOPE   C3B  212   3.634   7.800  13.011  0.0918 -0.1898  0.0124
   18DOPE   C4B  213   3.734   7.691  12.529 -0.1491  0.0447  0.1954
   19DOPS   CNO  214   6.710   0.796  14.579 -0.2397  0.0776 -0.0498
   19DOPS   PO4  215   6.580   1.127  14.448  0.2100 -0.3317 -0.1590
   19DOPS   GL1  216   6.727   1.189  14.116 -0.1030 -0.4049 -0.1345
   19DOPS   GL2  217   6.535   1.221  13.891 -0.2125 -0.0700 -0.1959
   19DOPS   C1A  218   7.034   1.136  13.777 -0.1724 -0.0348  0.0955
   19DOPS   D2A  219   7.039   1.190  13.284 -0.1198 -0.2242 -0.1719
   19DOPS   C3A  220   7.075   0.939  12.904  0.3325 -0.0684  0.0510
   19DOPS   C4A  221   7.075   0.700  12.498 -0.1052  0.2569  0.1546
   19DOPS   C1B  222   6.553   0.833  13.666 -0.0573  0.0466 -0.1419
   19DOPS   D2B  223   6.837   0.707  13.289 -0.2056  0.0006 -0.1572
   19DOPS   C3B  224   6.726   0.267  13.336  0.1826  0.0699  0.0319
   19DOPS   C4B  225   6.570  -0.159  13.429  0.1858 -0.0837  0.0497
   20POSM   NC3  226  10.210   7.041  14.388  0.1057  0.0874  0.0536
   20POSM   PO4  227  10.567   7.274  14.375 -0.0202  0.0386  0.1191
   20POSM   AM1  228  10.604   7.176  14.054  0.0250 -0.4097 -0.1503
   20POSM   AM2  229  10.540   7.342  13.810  0.0205  0.0168 -0.0309
   20POSM   T1A  230  10.642   6.893  13.626 -0.2276  0.1153 -0.1135
   20POSM   C2A  231  10.815   6.881  13.152  0.1326 -0.1170  0.4163
   20POSM   C3A  232  10.800   6.551  12.761 -0.1039  0.1088  0.0248
   20POSM   C1B  233  10.500   7.390  13.497 -0.2287  0.1710 -0.0281
   20POSM   D2B  234  10.538   7.330  13.051  0.1630  0.1065 -0.0368
   20POSM   C3B  235  10.478   7.512  12.621 -0.1754  0.0433 -0.3819
   20POSM   C4B  236  10.300   7.360  12.265 -0.2846  0.1918  0.2037
   21POSM   NC3  237   7.550   9.323  14.448 -0.0127 -0.1496 -0.2803
   21POSM   PO4  238   7.680   9.337  14.078 -0.0230  0.1453  0.0947
   21POSM   AM1  239   7.700   9.253  13.761  0.3219  0.0334 -0.0393
   21POSM   AM2  240   7.799   9.269  13.501  0.0549  0.0171  0.1297
   21POSM   T1A  241   7.391   9.090  13.380 -0.0020 -0.1198  0.4469
   21POSM   C2A  242   7.318   8.767  13.053 -0.0326 -0.1344  0.0519
   21POSM   C3A  243   7.217   8.363  12.849 -0.0598 -0.0193 -0.2110
   21POSM   C1B  244   7.948   9.441  13.293 -0.1840 -0.3988 -0.1544
   21POSM   D2B  245   8.322   9.743  13.177  0.2637 -0.0580  0.0078
   21POSM   C3B  246   8.308   9.958  12.736 -0.1452 -0.0221 -0.1635
   21POSM   C4B  247   8.499  10.367  12.551 -0.2430  0.0870 -0.1042
   22DOPC   NC3  248   4.154  32.564  13.513  0.1657  0.0518  0.2139
   22DOPC   PO4  249   4.186  32.919  13.418  0.2766  0.0033 -0.2624
   22DOPC   GL1  250   4.364  32.961  13.025  0.0189 -0.0459 -0.1008
   22DOPC   GL2  251   4.336  33.259  12.961  0.2189 -0.3099  0.0453
   22DOPC   C1A  252   4.385  32.742  12.611 -0.0973  0.0245  0.0882
   22DOPC   D2A  253   4.214  33.073  12.345 -0.0614 -0.1026  0.1339
   22DOPC   C3A  254   4.361  32.982  11.908  0.1414 -0.0815 -0.1201
   22DOPC   C4A  255   4.474  33.143  11.464 -0.0865  0.0349  0.0076
   22DOPC   C1B  256   4.442  33.501  12.552 -0.0358  0.1351 -0.2818
   22DOPC   D2B  257   4.440  33.492  12.093  0.0599  0.0567  0.3396
   22DOPC   C3B  258   4.262  33.842  11.866 -0.1354 -0.1165 -0.3014
   22DOPC   C4B  259   4.475  34.173  11.733  0.2266 -0.0230  0.0071
   23DOPS   CNO  260   8.180   5.048  14.770 -0.1389 -0.0486 -0.1395
   23DOPS   PO4  261   8.353   4.797  14.536 -0.0763 -0.2258  0.0829
   23DOPS   GL1  262   8.449   4.482  14.152 -0.1814 -0.0714  0.4198
   23DOPS   GL2  263   8.152   4.609  14.096 -0.0221 -0.0204  0.2360
   23DOPS   C1A  264   8.461   4.508  13.663  0.2007 -0.1804  0.4094
   23DOPS   D2A  265   8.440   4.628  13.205  0.2903 -0.1931  0.2139
   23DOPS   C3A  266   8.054   4.708  12.996  0.1736  0.1566 -0.1663
   23DOPS   C4A  267   7.827   5.125  12.858 -0.1807 -0.0367  0.0088
   23DOPS   C1B  268   7.854   4.376  13.855  0.3034  0.0579  0.1054
   23DOPS   D2B  269   7.479   4.460  13.669 -0.1081 -0.2341 -0.0396
   23DOPS   C3B  270   7.545   4.531  13.242  0.0404  0.0446  0.3283
   23DOPS   C4B  271   7.607   4.389  12.797  0.0085 -0.0182 -0.2494
   24DOPE   NH3  272   9.280   9.599  14.409  0.2339  0.1109  0.0809
   24DOPE   PO4  273   9.120   9.930  14.412  0.1058 -0.1473  0.2408
   24DOPE   GL1  274   9.244  10.215  14.139 -0.3536  0.0871 -0.1758
   24DOPE   GL2  275   9.562  10.347  14.150 -0.2760  0.2313  0.1413
   24DOPE   C1A  276   9.326  10.001  13.770 -0.0225  0.0268  0.1445
   24DOPE   D2A  277   9.256   9.703  13.509  0.0245 -0.0118 -0.0688
   24DOPE   C3A  278   8.891   9.556  13.238  0.1406  0.1195  0.1861
   24DOPE   C4A  279   8.717   9.666  12.822  0.2939 -0.4841 -0.2605
   24DOPE   C1B  280   9.882  10.513  13.888 -0.3223 -0.0720  0.0440
   24DOPE   D2B  281   9.971  10.514  13.466  0.1105 -0.0814 -0.2232
   24DOPE   C3B  282  10.088  10.280  13.085  0.0278  0.6370 -0.0873
   24DOPE   C4B  283  10.158  10.466  12.636 -0.0445  0.0433 -0.1283
   25POSM   NC3  284  11.123   4.956  14.438  0.2156 -0.4332  0.1340
   25POSM   PO4  285  10.852   4.764  14.300  0.1600  0.0885 -0.0342
   25POSM   AM1  286  10.865   4.902  13.986 -0.6074 -0.1666 -0.1856
   25POSM   AM2  287  10.696   4.951  13.796 -0.1556 -0.2052 -0.3008
   25POSM   T1A  288  11.140   4.893  13.561 -0.0147  0.2793 -0.1905
   25POSM   C2A  289  11.117   5.074  13.107  0.1581 -0.3305 -0.0574
   25POSM   C3A  290  10.908   5.350  12.757  0.1733 -0.1262  0.1452
   25POSM   C1B  291  10.685   4.808  13.496  0.0307  0.1526  0.1291
   25POSM   D2B  292  10.734   4.735  13.055 -0.2343 -0.0209  0.0780
   25POSM   C3B  293  11.009   4.373  12.904 -0.0336 -0.0195  0.2107
   25POSM   C4B  294  10.937   3.975  12.708 -0.1134  0.1105 -0.0002
   26POSM   NC3  295  11.572  32.018  14.402 -0.1286 -0.2313 -0.1979
   26POSM   PO4  296  11.301  31.906  14.166  0.3506 -0.0779 -0.0125
   26POSM   AM1  297  11.490  32.050  13.951 -0.0339  0.1547 -0.1224
   26POSM   AM2  298  11.769  32.002  13.967 -0.0538 -0.0365  0.3059
   26POSM   T1A  299  11.527  32.407  13.606 -0.1926 -0.3547  0.2558
   26POSM   C2A  300  11.541  32.782  13.277  0.2766  0.1335 -0.2075
   26POSM   C3A  301  11.822  33.083  13.075  0.0040 -0.2312  0.1262
   26POSM   C1B  302  11.885  31.823  13.714  0.0401 -0.2156 -0.1558
   26POSM   D2B  303  11.926  31.525  13.343  0.1003  0.4255  0.1626
   26POSM   C3B  304  11.989  31.590  12.902  0.3279 -0.1643  0.0207
   26POSM   C4B  305  11.661  31.683  12.548  0.0457 -0.0690  0.0667
   27DOPC   NC3  306   3.108   7.040  14.060  0.1184  0.0864  0.0518
   27DOPC   PO4  307   3.408   6.887  14.311  0.0794  0.0982 -0.1206
   27DOPC   GL1  308   3.533   6.831  13.978  0.0357 -0.2233 -0.3007
   27DOPC   GL2  309   3.521   7.051  13.751  0.1208  0.2311  0.2689
   27DOPC   C1A  310   3.481   6.442  13.701 -0.1382  0.1932  0.1340
   27DOPC   D2A  311   3.135   6.156  13.626  0.2971 -0.0406 -0.1303
   27DOPC   C3A  312   3.102   5.890  13.270  0.1107 -0.0401  0.1792
   27DOPC   C4A  313   3.500   5.648  13.133  0.0533 -0.0235 -0.0391
   27DOPC   C1B  314   3.161   6.846  13.580  0.0969 -0.0218 -0.1483
   27DOPC   D2B  315   3.169   6.514  13.255 -0.2205  0.0161 -0.1128
   27DOPC   C3B  316   3.260   6.645  12.776 -0.0113  0.1093 -0.1726
   27DOPC   C4B  317   3.315   6.758  12.327 -0.0773  0.1156  0.0287
   28DOPC   NC3  318   1.079  34.502  13.221 -0.0195  0.2464  0.3299
   28DOPC   PO4  319   1.355  34.744  13.383  0.0868  0.2726 -0.2847
   28DOPC   GL1  320   1.389  34.773  12.980  0.0269  0.0072  0.1010
   28DOPC   GL2  321   1.192  34.890  12.786 -0.0119  0.1068  0.0128
   28DOPC   C1A  322   1.506  34.681  12.499 -0.0863  0.1868 -0.1583
   28DOPC   D2A  323   1.700  34.529  12.109  0.0041 -0.1525  0.2277
   28DOPC   C3A  324   2.018  34.236  11.892  0.2827  0.0729 -0.1326
   28DOPC   C4A  325   2.381  34.425  11.707 -0.0993  0.0467  0.2086
   28DOPC   C1B  326   0.751  34.909  12.537  0.0222 -0.2562 -0.0495
   28DOPC   D2B  327   0.357  35.036  12.298 -0.0165 -0.1902 -0.0318
   28DOPC   C3B  328   0.339  35.047  11.856  0.1012  0.0777 -0.0984
   28DOPC   C4B  329   0.243  34.952  11.436 -0.1267  0.0392 -0.0470
   29POSM   NC3  330   7.261  33.738  14.012 -0.0111 -0.1757  0.0925
   29POSM   PO4  331   6.855  33.728  13.964  0.1216  0.0715 -0.0454
   29POSM   AM1  332   6.710  33.721  13.674  0.3583 -0.1537 -0.3281
   29POSM   AM2  333   6.672  33.575  13.441  0.0856  0.0639 -0.0412
   29POSM   T1A  334   6.527  34.046  13.310  0.0816 -0.0291 -0.1696
   29POSM   C2A  335   6.684  34.277  12.974 -0.2358  0.1965 -0.0061
   29POSM   C3A  336   6.818  34.125  12.537  0.1102  0.0644 -0.0877
   29POSM   C1B  337   6.841  33.362  13.216  0.0669  0.1650  0.0333
   29POSM   D2B  338   7.204  33.011  13.282 -0.1346  0.2448  0.2489
   29POSM   C3B  339   7.071  32.789  12.840 -0.0439 -0.0499  0.0738
   29POSM   C4B  340   6.742  32.761  12.561 -0.1021 -0.0017 -0.2044
   30POSM   NC3  341  11.826   6.195  14.390  0.3427 -0.0444  0.0269
   30POSM   PO4  342  11.503   5.973  14.304  0.1932 -0.0334 -0.0593
   30POSM   AM1  343  11.459   6.088  14.001  0.1405  0.1503 -0.0393
   30POSM   AM2  344  11.282   5.938  13.862 -0.2049 -0.0179  0.1255
   30POSM   T1A  345  11.536   6.325  13.575 -0.2697  0.0502 -0.1187
   30POSM   C2A  346  11.730   6.633  13.245  0.1007  0.0353  0.0479
   30POSM   C3A  347  11.886   6.924  12.912 -0.1613  0.0218 -0.1842
   30POSM   C1B  348  11.392   5.826  13.516 -0.0006  0.0369 -0.0184
   30POSM   D2B  349  11.607   5.497  13.220 -0.1157 -0.0647  0.0549
   30POSM   C3B  350  11.869   5.712  12.845  0.0385  0.1971 -0.1181
   30POSM   C4B  351  11.878   6.044  12.532  0.1071  0.0084 -0.0490
   31DOPE   NH3  352   8.414   9.578  14.588 -0.0867 -0.1139  0.1657
   31DOPE   PO4  353   8.744   9.639  14.528 -0.3713  0.3433  0.0446
   31DOPE   GL1  354   8.885   9.529  14.158 -0.2543  0.1212  0.2877
   31DOPE   GL2  355   8.904   9.769  13.963 -0.0198  0.0543 -0.0405
   31DOPE   C1A  356   9.261   9.322  13.933 -0.1835 -0.1654  0.2328
   31DOPE   D2A  357   9.361   9.228  13.475 -0.0026 -0.0474 -0.0997
   31DOPE   C3A  358   9.594   9.343  13.153 -0.0450 -0.1569 -0.0688
   31DOPE   C4A  359   9.727   9.527  12.776 -0.1115 -0.1453  0.1199
   31DOPE   C1B  360   8.714   9.422  13.698  0.2400 -0.1027 -0.0841
   31DOPE   D2B  361   8.417   9.294  13.292  0.0312  0.0201 -0.0253
   31DOPE   C3B  362   8.668   9.107  12.968 -0.2019  0.1943 -0.0162
   31DOPE   C4B  363   8.741   9.172  12.534 -0.0959  0.0409  0.1627
   32DOPC   NC3  364   7.198  11.967  14.681  0.1281 -0.2017  0.4775
   32DOPC   PO4  365   6.981  11.993  14.337 -0.2345 -0.1571 -0.0220
   32DOPC   GL1  366   6.815  11.707  14.118  0.0693  0.0166  0.0344
   32DOPC   GL2  367   7.054  11.731  13.844  0.0929  0.2723  0.1769
   32DOPC   C1A  368   6.624  11.533  13.709  0.2051 -0.2577 -0.1139
   32DOPC   D2A  369   6.637  11.235  13.360  0.1035  0.2131 -0.0313
   32DOPC   C3A  370   6.742  11.180  12.921 -0.0636 -0.1464 -0.0838
   32DOPC   C4A  371   7.007  11.316  12.560 -0.0272 -0.0869 -0.0852
   32DOPC   C1B  372   7.082  11.946  13.391  0.3368  0.0123 -0.1123
   32DOPC   D2B  373   6.954  12.286  13.128 -0.0829  0.1061  0.1876
   32DOPC   C3B  374   6.910  12.268  12.652  0.0014 -0.1746 -0.0316
   32DOPC   C4B  375   6.613  12.457  12.389 -0.1021  0.1781  0.2654
   33DOPE   NH3  376   7.884   6.198  14.643  0.1667 -0.0712 -0.0992
   33DOPE   PO4  377   7.791   6.357  14.381 -0.3078  0.2773  0.0702
   33DOPE   GL1  378   7.837   6.382  14.027 -0.0804  0.4158 -0.3339
   33DOPE   GL2  379   8.046   6.619  14.056  0.2456 -0.0067  0.4381
   33DOPE   C1A  380   7.936   6.211  13.591  0.0202  0.1885  0.1677
   33DOPE   D2A  381   8.078   6.321  13.157 -0.0838  0.0720 -0.1068
   33DOPE   C3A  382   8.234   6.170  12.752 -0.0040 -0.1398  0.1503
   33DOPE   C4A  383   8.366   5.876  12.385 -0.1768 -0.0593  0.1308
   33DOPE   C1B  384   8.169   6.787  13.612 -0.1745  0.0528 -0.0382
   33DOPE   D2B  385   8.577   7.088  13.493  0.1226  0.1234 -0.1086
   33DOPE   C3B  386   8.772   7.325  13.163 -0.3031  0.1317 -0.5573
   33DOPE   C4B  387   9.043   7.618  12.906  0.2222  0.0595 -0.0812
   34DOPE   NH3  388  10.558   1.865  13.819  0.2370 -0.0279 -0.0025
   34DOPE   PO4  389  10.805   2.072  13.831  0.3257  0.1148 -0.0916
   34DOPE   GL1  390  10.654   2.259  13.483 -0.0015  0.5292  0.1936
   34DOPE   GL2  391  10.905   2.414  13.458 -0.0621  0.1182  0.0761
   34DOPE   C1A  392  10.672   2.049  13.109  0.0388  0.0248  0.1527
   34DOPE   D2A  393  11.027   1.706  13.006 -0.2701  0.0848 -0.2591
   34DOPE   C3A  394  11.181   1.655  12.583 -0.2257  0.2109 -0.0539
   34DOPE   C4A  395  11.312   1.604  12.100  0.0002 -0.2753 -0.3931
   34DOPE   C1B  396  11.212   2.584  13.202 -0.1236 -0.1398  0.1950
   34DOPE   D2B  397  11.428   2.596  12.816 -0.4345 -0.0035 -0.1446
   34DOPE   C3B  398  11.201   2.440  12.458  0.0961 -0.0301  0.1570
   34DOPE   C4B  399  10.947   2.132  12.218  0.2228 -0.1208  0.1504
   35DOPE   NH3  400   9.613   1.139  14.210 -0.3241  0.2088 -0.0189
   35DOPE   PO4  401   9.603   0.988  13.914  0.0378  0.1357  0.1639
   35DOPE   GL1  402   9.665   0.988  13.533  0.1355 -0.2839  0.1872
   35DOPE   GL2  403   9.378   0.988  13.430  0.0461  0.3945 -0.0861
   35DOPE   C1A  404  10.069   1.081  13.306 -0.1509  0.0397 -0.1436
   35DOPE   D2A  405  10.097   1.263  12.884 -0.2543 -0.0651 -0.1875
   35DOPE   C3A  406  10.037   1.029  12.428 -0.0792 -0.2642  0.1428
   35DOPE   C4A  407  10.172   0.906  12.015  0.0697 -0.0243 -0.2217
   35DOPE   C1B  408   9.232   1.224  13.080  0.3326  0.0225 -0.0167
   35DOPE   D2B  409   8.976   1.591  12.943  0.2235 -0.1294  0.0336
   35DOPE   C3B  410   8.808   1.714  12.583 -0.3717  0.0559 -0.0268
   35DOPE   C4B  411   8.809   2.087  12.235  0.1127  0.0843 -0.1230
   36DOPS   CNO  412   4.541   2.709  14.090 -0.0772 -0.0960 -0.0235
   36DOPS   PO4  413   4.822   2.936  13.975 -0.1213 -0.1099 -0.0277
   36DOPS   GL1  414   4.759   2.947  13.599  0.2136  0.1796 -0.0884
   36DOPS   GL2  415   4.803   3.200  13.485  0.0679 -0.2758 -0.1570
   36DOPS   C1A  416   4.588   2.813  13.137 -0.0985  0.4176 -0.0486
   36DOPS   D2A  417   4.393   2.949  12.759  0.0367  0.0975  0.0593
   36DOPS   C3A  418   4.442   3.425  12.817 -0.2035  0.1882  0.2294
   36DOPS   C4A  419   4.471   3.888  12.754  0.0445 -0.0040 -0.2851
   36DOPS   C1B  420   4.935   3.148  12.997  0.3754 -0.2723 -0.0441
   36DOPS   D2B  421   4.776   3.188  12.526 -0.3215 -0.1886 -0.0424
   36DOPS   C3B  422   4.694   2.783  12.413  0.2543  0.3664  0.1784
   36DOPS   C4B  423   4.336   2.521  12.281 -0.0399  0.0980  0.0242
   37DOPE   NH3  424   4.802   5.575  14.153  0.0144  0.1719 -0.1963
   37DOPE   PO4  425   4.756   5.282  14.171  0.0490 -0.0510 -0.0434
   37DOPE   GL1  426   4.784   5.275  13.746  0.1385 -0.0113 -0.4511
   37DOPE   GL2  427   5.113   5.317  13.739 -0.2436 -0.0849  0.0857
   37DOPE   C1A  428   4.977   5.048  13.377 -0.0514  0.0995 -0.0798
   37DOPE   D2A  429   5.150   4.765  13.007 -0.0162 -0.1453  0.1757
   37DOPE   C3A  430   4.810   4.690  12.725  0.0747  0.1729  0.0472
   37DOPE   C4A  431   4.554   4.848  12.356 -0.0396 -0.0952  0.0442
   37DOPE   C1B  432   5.439   5.555  13.519 -0.1008  0.1383  0.3046
   37DOPE   D2B  433   5.869   5.385  13.421  0.0369  0.1918  0.2187
   37DOPE   C3B  434   5.763   5.701  13.068  0.4140 -0.3134  0.0004
   37DOPE   C4B  435   5.464   5.793  12.725 -0.0481  0.0088  0.2895
   38DOPE   NH3  436   7.815   7.313  14.436  0.2237 -0.2830 -0.1308
   38DOPE   PO4  437   7.668   7.440  14.186 -0.4165  0.0678 -0.1127
   38DOPE   GL1  438   8.065   7.387  14.091 -0.1780 -0.2058 -0.3961
   38DOPE   GL2  439   8.014   7.265  13.838 -0.0257 -0.2441  0.2854
   38DOPE   C1A  440   8.305   7.644  13.753  0.0608 -0.1765  0.0817
   38DOPE   D2A  441   8.342   7.713  13.291  0.0936 -0.3832  0.4040
   38DOPE   C3A  442   8.002   7.794  13.024 -0.1010  0.1008  0.1087
   38DOPE   C4A  443   7.598   8.118  13.079 -0.0960 -0.2118  0.3022
   38DOPE   C1B  444   7.878   7.283  13.363 -0.0853  0.0279 -0.1277
   38DOPE   D2B  445   7.645   7.324  12.999 -0.1310  0.2008  0.1676
   38DOPE   C3B  446   7.515   6.864  12.809  0.2091 -0.2749  0.1291
   38DOPE   C4B  447   7.370   6.452  12.848  0.0637  0.1341  0.2987
   39POSM   NC3  448   5.100  34.397  13.493 -0.1550  0.1563  0.3219
   39POSM   PO4  449   4.866  34.095  13.412 -0.0122 -0.0717  0.0011
   39POSM   AM1  450   4.735  33.916  13.153  0.0832 -0.5160  0.1641
   39POSM   AM2  451   4.501  33.860  13.082 -0.1511  0.0236 -0.3278
   39POSM   T1A  452   4.864  33.713  12.717  0.1549 -0.2827  0.0165
   39POSM   C2A  453   5.075  33.511  12.358 -0.0822  0.0275 -0.0960
   39POSM   C3A  454   5.298  33.483  11.915 -0.0846  0.0524 -0.1625
   39POSM   C1B  455   4.200  33.776  12.943  0.0081 -0.3456  0.2814
   39POSM   D2B  456   3.859  33.679  12.638 -0.1055  0.1273 -0.2501
   39POSM   C3B  457   3.874  33.523  12.181 -0.1169 -0.1082  0.0286
   39POSM   C4B  458   3.744  33.197  11.925 -0.0372  0.0446  0.0129
   40POSM   NC3  459   4.266  34.597  13.709  0.0428 -0.0845 -0.0634
   40POSM   PO4  460   4.651  34.536  13.665  0.2227  0.0028 -0.1745
   40POSM   AM1  461   4.681  34.523  13.278  0.1537 -0.0266 -0.1194
   40POSM   AM2  462   4.639  34.376  13.023 -0.0725 -0.3996 -0.1006
   40POSM   T1A  463   5.085  34.556  12.985  0.2066  0.1608  0.2034
   40POSM   C2A  464   5.445  34.657  12.597 -0.2181 -0.0827 -0.0757
   40POSM   C3A  465   5.442  34.455  12.137  0.5546  0.0423 -0.0105
   40POSM   C1B  466   4.680  34.253  12.745  0.0488  0.1637  0.0820
   40POSM   D2B  467   4.736  34.034  12.307 -0.1091  0.0238  0.3914
   40POSM   C3B  468   5.200  33.989  12.104  0.1935 -0.1398  0.1692
   40POSM   C4B  469   5.575  34.066  11.885 -0.0690  0.0453  0.0666
   41DOPC   NC3  470   6.876   2.931  14.189 -0.1797  0.1825 -0.0035
   41DOPC   PO4  471   7.245   3.067  14.157 -0.2890 -0.1215 -0.0844
   41DOPC   GL1  472   7.153   3.143  13.792 -0.0380 -0.3185  0.3605
   41DOPC   GL2  473   7.448   3.121  13.637 -0.0662 -0.0751 -0.0252
   41DOPC   C1A  474   7.008   3.336  13.398 -0.2106 -0.0370  0.1747
   41DOPC   D2A  475   6.917   3.696  13.133  0.2391 -0.2169  0.0410
   41DOPC   C3A  476   6.689   3.558  12.718  0.1184  0.0991  0.0130
   41DOPC   C4A  477   6.814   3.428  12.291  0.0311 -0.3686  0.2297
   41DOPC   C1B  478   7.406   3.058  13.246 -0.0807 -0.4348  0.2505
   41DOPC   D2B  479   7.288   2.781  12.876 -0.0323  0.0036  0.1594
   41DOPC   C3B  480   7.147   2.367  12.676  0.1373  0.2921 -0.0942
   41DOPC   C4B  481   7.107   2.119  12.322  0.1015 -0.2199 -0.1428
   42DOPC   NC3  482   6.471   5.480  14.481 -0.1762 -0.0044 -0.1362
   42DOPC   PO4  483   6.533   5.624  14.105 -0.0004 -0.0513  0.0203
   42DOPC   GL1  484   6.482   5.747  13.709  0.2239 -0.1798 -0.4133
   42DOPC   GL2  485   6.499   5.476  13.601  0.1346 -0.4298 -0.1285
   42DOPC   C1A  486   6.634   6.137  13.522 -0.4712 -0.0276 -0.0426
   42DOPC   D2A  487   6.753   6.576  13.701  0.1512 -0.0467 -0.0478
   42DOPC   C3A  488   6.390   6.794  13.610  0.0902 -0.0919  0.6726
   42DOPC   C4A  489   6.177   7.184  13.485  0.1539 -0.0379 -0.1266
   42DOPC   C1B  490   6.945   5.400  13.369 -0.1551  0.0312 -0.2042
   42DOPC   D2B  491   7.318   5.632  13.121  0.1015  0.2556  0.1886
   42DOPC   C3B  492   7.359   5.554  12.630  0.0286  0.2370  0.1430
   42DOPC   C4B  493   7.103   5.249  12.337  0.0300 -0.3067 -0.0075
   43POSM   NC3  494   5.442  10.977  14.489  0.0632 -0.1582 -0.4868
   43POSM   PO4  495   5.568  11.371  14.539  0.0778 -0.1169  0.1070
   43POSM   AM1  496   5.588  11.468  14.232  0.0683 -0.0927  0.1968
   43POSM   AM2  497   5.773  11.437  13.986 -0.0180 -0.0211  0.4032
   43POSM   T1A  498   5.338  11.561  13.808  0.2186 -0.0402 -0.0524
   43POSM   C2A  499   5.062  11.733  13.454 -0.1338 -0.1206  0.1031
   43POSM   C3A  500   4.902  12.082  13.176  0.0853 -0.2601 -0.1521
   43POSM   C1B  501   5.696  11.145  13.820 -0.1002  0.2322  0.0873
   43POSM   D2B  502   5.443  10.852  13.571  0.0800 -0.2355 -0.1878
   43POSM   C3B  503   5.541  10.532  13.289 -0.0851 -0.2599 -0.1911
   43POSM   C4B  504   5.670  10.126  13.225 -0.1341 -0.1039 -0.0552
   44DOPC   NC3  505   9.843   2.358  13.735 -0.3804  0.0534  0.2021
   44DOPC   PO4  506   9.874   2.418  14.138 -0.1460 -0.1367 -0.2702
   44DOPC   GL1  507   9.495   2.337  14.011  0.0547 -0.0496 -0.0442
   44DOPC   GL2  508   9.436   2.580  14.142  0.2778 -0.0677  0.1071
   44DOPC   C1A  509   9.301   2.269  13.592  0.1977  0.0443  0.0846
   44DOPC   D2A  510   9.108   2.345  13.204 -0.2771 -0.1149  0.0511
   44DOPC   C3A  511   9.367   2.483  12.874 -0.1526 -0.2964 -0.0112
   44DOPC   C4A  512   9.665   2.636  12.553  0.2772  0.0272  0.0166
   44DOPC   C1B  513   9.585   2.811  13.772  0.1291 -0.0446  0.0465
   44DOPC   D2B  514   9.577   2.648  13.304  0.1406  0.0126  0.1963
   44DOPC   C3B  515   9.940   2.569  12.972  0.1093  0.0028  0.0471
   44DOPC   C4B  516  10.316   2.735  12.738  0.2979  0.0522 -0.1257
   45POSM   NC3  517   3.898   7.722  14.153 -0.2307 -0.3700  0.1261
   45POSM   PO4  518   4.082   7.977  14.369 -0.4826  0.4621  0.1520
   45POSM   AM1  519   4.077   8.169  14.106 -0.1356  0.2474 -0.3424
   45POSM   AM2  520   4.234   8.369  14.004 -0.0046 -0.1156 -0.1354
   45POSM   T1A  521   3.832   8.483  13.728  0.1491  0.3572  0.1766
   45POSM   C2A  522   3.895   8.783  13.355  0.1388  0.3368 -0.1674
   45POSM   C3A  523   3.982   8.741  12.890 -0.1990  0.1794 -0.1436
   45POSM   C1B  524   4.521   8.338  13.814  0.0011  0.3922  0.2167
   45POSM   D2B  525   4.732   8.195  13.451  0.1702  0.0292  0.0705
   45POSM   C3B  526   4.537   7.902  13.172 -0.0990  0.0160 -0.1261
   45POSM   C4B  527   4.540   7.633  12.770 -0.0601  0.0720  0.2000
   46DOPC   NC3  528   3.759   2.112  13.775 -0.0334  0.0222  0.0149
   46DOPC   PO4  529   4.015   2.426  13.790 -0.0512  0.2656 -0.0949
   46DOPC   GL1  530   4.099   2.380  13.387  0.1418  0.2194 -0.0831
   46DOPC   GL2  531   4.214   2.252  13.145 -0.0355 -0.0611 -0.1394
   46DOPC   C1A  532   4.079   2.740  13.148  0.3005  0.0488  0.0939
   46DOPC   D2A  533   3.997   3.214  12.981  0.0038 -0.2148 -0.1612
   46DOPC   C3A  534   4.082   3.330  12.546  0.0181 -0.2552  0.0708
   46DOPC   C4A  535   4.036   3.550  12.116 -0.1102  0.1317 -0.0090
   46DOPC   C1B  536   4.556   2.333  12.873 -0.1708  0.2547 -0.2027
   46DOPC   D2B  537   4.960   2.471  12.987  0.1193  0.2428  0.0609
   46DOPC   C3B  538   5.307   2.411  12.687  0.1017 -0.0360 -0.2954
   46DOPC   C4B  539   5.599   2.416  12.337  0.0760  0.0138  0.1244
   47POSM   NC3  540   6.772   7.415  14.299 -0.2341  0.1222  0.1349
   47POSM   PO4  541   6.830   7.801  14.255 -0.0395  0.0062  0.0511
   47POSM   AM1  542   6.743   7.736  13.953  0.0780  0.2984  0.0226
   47POSM   AM2  543   6.441   7.616  13.878 -0.2345  0.0456  0.3010
   47POSM   T1A  544   6.644   7.834  13.452 -0.0565  0.0929  0.0059
   47POSM   C2A  545   6.553   7.561  13.148 -0.2299  0.3082  0.0938
   47POSM   C3A  546   6.746   7.323  12.812  0.4538 -0.0667 -0.1204
   47POSM   C1B  547   6.172   7.864  13.906 -0.0864  0.1695  0.1399
   47POSM   D2B  548   6.028   8.263  13.757  0.0198  0.0539  0.4294
   47POSM   C3B  549   5.669   8.097  13.407  0.0859 -0.0311  0.2804
   47POSM   C4B  550   5.198   8.188  13.280 -0.0943  0.1741 -0.3821
   48DOPE   NH3  551   3.727   5.139  14.219 -0.0560  0.0345  0.1772
   48DOPE   PO4  552   3.829   4.857  14.192 -0.1195  0.1471  0.0823
   48DOPE   GL1  553   4.259   4.915  13.961 -0.2314 -0.0779 -0.0687
   48DOPE   GL2  554   4.113   5.101  13.795 -0.0745 -0.0512 -0.0569
   48DOPE   C1A  555   4.550   4.750  13.632  0.1220  0.0055 -0.0098
   48DOPE   D2A  556   4.571   4.337  13.452 -0.2397 -0.1385  0.3757
   48DOPE   C3A  557   4.825   4.249  13.093  0.1800  0.0315 -0.0916
   48DOPE   C4A  558   5.109   4.090  12.746 -0.1197 -0.1473 -0.0146
   48DOPE   C1B  559   4.449   5.181  13.435  0.1052  0.0941 -0.0257
   48DOPE   D2B  560   4.707   5.275  13.041 -0.0730 -0.2795 -0.1214
   48DOPE   C3B  561   4.871   5.185  12.625  0.1172 -0.0897  0.1453
   48DOPE   C4B  562   5.144   4.902  12.372  0.1228  0.1768  0.0205
   49DOPC   NC3  563  10.337   0.745  14.501  0.1019  0.0219 -0.0983
   49DOPC   PO4  564  10.005   0.768  14.269 -0.1088 -0.0241 -0.0733
   49DOPC   GL1  565   9.927   0.564  13.937  0.1241  0.0074 -0.2473
   49DOPC   GL2  566  10.002   0.724  13.736 -0.0669 -0.1690 -0.3351
   49DOPC   C1A  567   9.922   0.148  13.733  0.0806  0.3011  0.3169
   49DOPC   D2A  568   9.893  -0.289  13.608 -0.1004 -0.0473  0.1700
   49DOPC   C3A  569   9.868  -0.439  13.158 -0.2721 -0.1174  0.0598
   49DOPC   C4A  570   9.762  -0.591  12.757 -0.3383 -0.0631  0.0459
   49DOPC   C1B  571  10.194   0.401  13.396  0.2181  0.1289 -0.2647
   49DOPC   D2B  572   9.883   0.123  13.216  0.3222 -0.2234  0.3400
   49DOPC   C3B  573   9.979   0.054  12.745  0.0787 -0.0308 -0.0713
   49DOPC   C4B  574  10.206  -0.276  12.636 -0.1153 -0.0581 -0.1846
   50DOPC   NC3  575   6.775   0.046  14.673 -0.1890 -0.2523 -0.0516
   50DOPC   PO4  576   6.969   0.349  14.607  0.0929  0.1632  0.1984
   50DOPC   GL1  577   7.010   0.649  14.225  0.3150 -0.3098 -0.1440
   50DOPC   GL2  578   6.794   0.737  14.128  0.0049  0.1866 -0.2352
   50DOPC   C1A  579   7.401   0.860  14.060 -0.1960 -0.2470  0.0376
   50DOPC   D2A  580   7.512   1.191  13.791 -0.1150 -0.2285  0.0589
   50DOPC   C3A  581   7.909   1.365  13.967  0.1472  0.1096  0.0455
   50DOPC   C4A  582   8.291   1.501  13.867  0.0195 -0.1720  0.0236
   50DOPC   C1B  583   7.096   0.659  13.787  0.2327  0.2917  0.0341
   50DOPC   D2B  584   7.396   0.849  13.480 -0.1148  0.2212  0.0761
   50DOPC   C3B  585   7.529   0.952  13.065 -0.1651 -0.0965  0.0365
   50DOPC   C4B  586   7.399   1.300  12.918  0.1034  0.0391  0.1241
   51DOPC   NC3  587   5.481   4.352  14.037 -0.2568 -0.0656 -0.0044
   51DOPC   PO4  588   5.351   3.959  13.959 -0.0054  0.0276 -0.2581
   51DOPC   GL1  589   5.618   4.041  13.678  0.0339 -0.2069  0.2992
   51DOPC   GL2  590   5.425   4.147  13.523  0.3469 -0.0310  0.0429
   51DOPC   C1A  591   5.873   4.085  13.283  0.2776  0.1178  0.0855
   51DOPC   D2A  592   5.782   4.081  12.858 -0.1971 -0.2609  0.0204
   51DOPC   C3A  593   5.736   4.266  12.423  0.0098 -0.0990  0.2548
   51DOPC   C4A  594   5.559   4.575  12.103 -0.1233 -0.0959  0.1514
   51DOPC   C1B  595   5.419   4.293  13.093  0.0077 -0.2139 -0.0559
   51DOPC   D2B  596   5.326   4.534  12.649  0.3003  0.1024 -0.3232
   51DOPC   C3B  597   5.531   4.984  12.656  0.2309  0.0534  0.1287
   51DOPC   C4B  598   5.788   5.188  12.937 -0.1389 -0.0900 -0.1435
   52DOPC   NC3  599  10.694   7.703  14.212  0.2083  0.2345 -0.4363
   52DOPC   PO4  600  10.833   7.699  14.566 -0.1732 -0.1475 -0.0283
   52DOPC   GL1  601  10.986   7.995  14.393 -0.1481  0.2048  0.2478
   52DOPC   GL2  602  11.348   7.967  14.385  0.1892 -0.0007 -0.1795
   52DOPC   C1A  603  11.127   8.386  14.212  0.3162 -0.1544  0.0294
   52DOPC   D2A  604  11.350   8.730  14.151 -0.0095 -0.1848 -0.1990
   52DOPC   C3A  605  11.240   9.096  13.912 -0.0664 -0.3561  0.0693
   52DOPC   C4A  606  10.950   9.415  13.978  0.1474  0.1588  0.1379
   52DOPC   C1B  607  11.192   7.917  13.980  0.1596  0.1847  0.0156
   52DOPC   D2B  608  11.201   7.878  13.514  0.0676 -0.2288  0.3309
   52DOPC   C3B  609  11.564   8.017  13.224 -0.0501 -0.0483  0.2273
   52DOPC   C4B  610  12.025   8.011  13.015  0.0391  0.2072 -0.1268
   53DOPS   CNO  611   6.066   2.863  14.369  0.0440 -0.2699  0.1834
   53DOPS   PO4  612   6.388   2.779  14.223  0.2621  0.2912 -0.0828
   53DOPS   GL1  613   6.400   2.871  13.781  0.0749 -0.1887 -0.0583
   53DOPS   GL2  614   6.672   2.816  13.755  0.1097  0.0421 -0.3830
   53DOPS   C1A  615   6.568   2.879  13.280  0.1235 -0.0470 -0.2477
   53DOPS   D2A  616   6.357   2.727  12.870  0.2365 -0.2768  0.0596
   53DOPS   C3A  617   6.585   2.484  12.550  0.4357  0.1533 -0.0656
   53DOPS   C4A  618   6.548   2.133  12.202 -0.0647  0.1786  0.3617
   53DOPS   C1B  619   6.398   2.502  13.522  0.0230  0.2792 -0.1753
   53DOPS   D2B  620   6.330   2.276  13.176 -0.1877  0.2210 -0.2694
   53DOPS   C3B  621   6.730   2.432  13.028  0.0740 -0.2147 -0.1730
   53DOPS   C4B  622   7.118   2.200  13.214  0.0702 -0.2399  0.0056
   54DOPC   NC3  623   8.145   2.716  14.331  0.0226  0.0397  0.0044
   54DOPC   PO4  624   7.823   2.956  14.264 -0.1657 -0.1333  0.1335
   54DOPC   GL1  625   7.784   3.000  13.901  0.1399 -0.0102  0.2000
   54DOPC   GL2  626   8.090   2.894  13.803 -0.2614  0.1070 -0.1921
   54DOPC   C1A  627   7.894   3.131  13.462 -0.1686  0.2804  0.1057
   54DOPC   D2A  628   7.958   2.990  13.002 -0.2779 -0.1268  0.3611
   54DOPC   C3A  629   8.177   2.576  12.895 -0.0298  0.1421 -0.3075
   54DOPC   C4A  630   8.465   2.294  12.642  0.0499 -0.0161 -0.3184
   54DOPC   C1B  631   8.338   2.833  13.370 -0.3114  0.1412 -0.2144
   54DOPC   D2B  632   8.488   2.957  12.936 -0.0253 -0.4144 -0.0327
   54DOPC   C3B  633   8.480   3.273  12.659 -0.1019  0.0815 -0.1743
   54DOPC   C4B  634   8.298   3.459  12.309 -0.2001 -0.3648 -0.5214
   55DOPS   CNO  635   8.540   6.552  14.966 -0.2304  0.1737  0.1222
   55DOPS   PO4  636   8.292   6.515  14.680 -0.4252  0.2484  0.0996
   55DOPS   GL1  637   8.346   6.336  14.342  0.1453  0.1459  0.2568
   55DOPS   GL2  638   8.204   6.097  14.281  0.1752 -0.1599 -0.0119
   55DOPS   C1A  639   8.370   6.309  13.890  0.0168  0.1166  0.3006
   55DOPS   D2A  640   8.371   6.068  13.451 -0.2227 -0.0294  0.2496
   55DOPS   C3A  641   8.643   6.334  13.117 -0.2322 -0.3538 -0.0674
   55DOPS   C4A  642   8.960   6.566  12.892 -0.0945 -0.0773  0.1077
   55DOPS   C1B  643   8.161   5.862  13.927 -0.1069  0.0755 -0.1536
   55DOPS   D2B  644   8.269   5.600  13.574 -0.1892  0.1014 -0.2355
   55DOPS   C3B  645   8.122   5.799  13.155  0.0801  0.2103  0.0191
   55DOPS   C4B  646   8.060   5.589  12.729  0.3484  0.0047 -0.1162
   56POSM   NC3  647  11.642  33.223  14.351 -0.0693 -0.1395 -0.0425
   56POSM   PO4  648  11.819  32.868  14.301  0.3228 -0.0153  0.0628
   56POSM   AM1  649  11.867  32.692  13.986  0.0929 -0.2128 -0.1182
   56POSM   AM2  650  11.965  32.439  13.876  0.1809  0.5057 -0.2251
   56POSM   T1A  651  11.967  32.805  13.463 -0.0186 -0.0346  0.4262
   56POSM   C2A  652  11.932  32.588  13.026  0.2090  0.1719 -0.1421
   56POSM   C3A  653  11.542  32.776  12.784  0.0095  0.1701  0.3650
   56POSM   C1B  654  11.965  32.266  13.555  0.0570 -0.2525 -0.1313
   56POSM   D2B  655  11.846  32.008  13.200  0.0525  0.2368 -0.1248
   56POSM   C3B  656  11.413  31.859  12.955  0.0025  0.3784  0.1945
   56POSM   C4B  657  11.089  31.620  13.087  0.1644  0.5193  0.1587
   57DOPS   CNO  658   3.113   0.703  13.539  0.0640  0.1392  0.1539
   57DOPS   PO4  659   3.286   0.553  13.810  0.2023  0.1448  0.0480
   57DOPS   GL1  660   3.510   0.445  13.497  0.1555  0.0555  0.1150
   57DOPS   GL2  661   3.605   0.690  13.286  0.1363 -0.1792 -0.0496
   57DOPS   C1A  662   3.360   0.263  13.126 -0.1550  0.2569 -0.1420
   57DOPS   D2A  663   3.345   0.139  12.688 -0.3303 -0.3333  0.0227
   57DOPS   C3A  664   3.113   0.391  12.469 -0.1548 -0.0213 -0.0358
   57DOPS   C4A  665   2.743   0.313  12.159 -0.0124  0.0494 -0.1408
   57DOPS   C1B  666   3.882   0.461  13.027 -0.0379 -0.1833 -0.1355
   57DOPS   D2B  667   4.188   0.219  12.747 -0.2512  0.4513 -0.1061
   57DOPS   C3B  668   4.036   0.241  12.309 -0.2403  0.0163 -0.0170
   57DOPS   C4B  669   3.732   0.106  11.944 -0.2535 -0.0839  0.3573
   58DOPS   CNO  670  33.362   2.631  14.185 -0.2125 -0.0637  0.2007
   58DOPS   PO4  671  33.199   2.411  13.907  0.2849  0.0880 -0.2869
   58DOPS   GL1  672  33.091   2.470  13.526  0.3194 -0.1676 -0.5136
   58DOPS   GL2  673  33.118   2.762  13.399 -0.1455  0.4316  0.2528
   58DOPS   C1A  674  33.093   2.052  13.330  0.1310 -0.1576 -0.0828
   58DOPS   D2A  675  33.142   2.006  12.853 -0.2169  0.1819  0.3281
   58DOPS   C3A  676  32.812   2.060  12.542 -0.0650 -0.2753  0.1297
   58DOPS   C4A  677  32.524   2.342  12.363  0.1529 -0.2406 -0.3407
   58DOPS   C1B  678  33.363   2.407  13.145 -0.0602 -0.0328 -0.1485
   58DOPS   D2B  679  33.427   2.455  12.699  0.1475 -0.1648  0.2978
   58DOPS   C3B  680  33.270   2.829  12.603  0.1990 -0.2772  0.0602
   58DOPS   C4B  681  33.280   3.075  12.178  0.2177  0.0257 -0.1408
   59DOPE   NH3  682   2.494   2.647  13.552 -0.1346  0.0908  0.0045
   59DOPE   PO4  683   2.583   2.400  13.348  0.0805  0.0573 -0.2233
   59DOPE   GL1  684   2.784   2.229  12.922 -0.3310  0.2434  0.2007
   59DOPE   GL2  685   2.942   2.441  12.875 -0.0565 -0.3446  0.1416
   59DOPE   C1A  686   2.860   2.258  12.409  0.0729 -0.1963  0.3405
   59DOPE   D2A  687   3.022   2.507  12.136 -0.3151 -0.0679 -0.0600
   59DOPE   C3A  688   2.835   2.394  11.758 -0.2356 -0.2705 -0.3013
   59DOPE   C4A  689   2.447   2.368  11.516 -0.0364 -0.1251  0.0940
   59DOPE   C1B  690   2.727   2.715  12.543 -0.1956  0.0352  0.2886
   59DOPE   D2B  691   2.427   3.020  12.490  0.1003  0.1237 -0.3215
   59DOPE   C3B  692   2.404   3.309  12.098  0.1632  0.1945  0.0316
   59DOPE   C4B  693   2.573   3.332  11.642 -0.3784  0.2099 -0.2929
   60DOPE   NH3  694   8.291  32.863  14.306  0.1642  0.0960  0.1314
   60DOPE   PO4  695   8.627  32.974  14.364 -0.1791 -0.0485  0.1272
   60DOPE   GL1  696   8.802  32.862  14.009 -0.2080  0.0515  0.2060
   60DOPE   GL2  697   8.738  32.983  13.769  0.0381 -0.0690 -0.1001
   60DOPE   C1A  698   9.167  33.214  13.886  0.1480  0.1170 -0.4315
   60DOPE   D2A  699   9.478  33.545  13.854 -0.4072 -0.1885 -0.1962
   60DOPE   C3A  700   9.867  33.550  13.616  0.1875  0.0067  0.1925
   60DOPE   C4A  701   9.970  33.803  13.270  0.1862 -0.3088  0.4771
   60DOPE   C1B  702   8.828  33.148  13.297 -0.2900  0.2599 -0.1214
   60DOPE   D2B  703   8.866  33.342  12.896  0.2558  0.2867  0.1661
   60DOPE   C3B  704   9.335  33.317  12.816 -0.1016  0.1672  0.2036
   60DOPE   C4B  705   9.668  33.182  12.573  0.2895  0.3793 -0.2590
   61DOPE   NH3  706   7.839  10.231  14.283 -0.1066  0.2442 -0.1358
   61DOPE   PO4  707   7.862  10.584  14.284  0.0725  0.0333 -0.0979
   61DOPE   GL1  708   7.946  10.625  13.903  0.1312 -0.4824 -0.1421
   61DOPE   GL2  709   7.995  10.337  13.733  0.0287  0.3105  0.2430
   61DOPE   C1A  710   7.754  10.675  13.480  0.0999  0.0455 -0.0450
   61DOPE   D2A  711   7.855  10.396  13.141  0.0724 -0.1187  0.0505
   61DOPE   C3A  712   7.799  10.827  12.993  0.2476 -0.1435 -0.2521
   61DOPE   C4A  713   7.731  11.240  12.861 -0.3950  0.0218  0.2159
   61DOPE   C1B  714   7.895  10.042  13.436  0.5531 -0.0337  0.0252
   61DOPE   D2B  715   7.688   9.947  13.050  0.1884 -0.2091  0.1762
   61DOPE   C3B  716   7.888   9.608  12.801 -0.1229 -0.1184 -0.0707
   61DOPE   C4B  717   8.276   9.319  12.790  0.0195  0.0252  0.1387
   62DOPC   NC3  718   8.571   6.761  14.246  0.1394 -0.3566  0.4364
   62DOPC   PO4  719   8.231   6.991  14.299  0.1297 -0.0350 -0.0462
   62DOPC   GL1  720   8.473   7.147  13.978 -0.4726 -0.1362 -0.2831
   62DOPC   GL2  721   8.536   7.396  14.132 -0.0245  0.0285  0.1674
   62DOPC   C1A  722   8.955   7.138  13.977  0.1229 -0.1167 -0.3350
   62DOPC   D2A  723   9.384   7.039  13.866 -0.0979  0.2482  0.5001
   62DOPC   C3A  724   9.631   7.351  13.582 -0.0850 -0.0670  0.0370
   62DOPC   C4A  725   9.589   7.312  13.154 -0.1636 -0.0565 -0.0412
   62DOPC   C1B  726   8.774   7.529  13.686  0.0127  0.3085 -0.3021
   62DOPC   D2B  727   9.152   7.227  13.494  0.1790 -0.0157 -0.3117
   62DOPC   C3B  728   9.157   7.130  13.003  0.0394 -0.2110 -0.0791
   62DOPC   C4B  729   9.216   6.942  12.579 -0.0220  0.1603 -0.0835
   63DOPC   NC3  730  13.468   3.313  13.960  0.0625 -0.1589 -0.1515
   63DOPC   PO4  731  13.619   3.454  13.634  0.2988 -0.2015  0.1830
   63DOPC   GL1  732  13.536   3.550  13.266 -0.1324 -0.1251 -0.2171
   63DOPC   GL2  733  13.215   3.522  13.274  0.0754 -0.3022  0.6893
   63DOPC   C1A  734  13.529   3.850  12.903  0.2389  0.2862 -0.0150
   63DOPC   D2A  735  13.498   3.812  12.429 -0.2036  0.0906 -0.0411
   63DOPC   C3A  736  13.698   3.448  12.343  0.1050  0.1202 -0.2710
   63DOPC   C4A  737  14.010   3.090  12.473 -0.0938 -0.2813  0.2099
   63DOPC   C1B  738  13.144   3.584  12.820 -0.4240  0.1176 -0.4041
   63DOPC   D2B  739  13.181   3.354  12.441 -0.1348 -0.1625  0.0969
   63DOPC   C3B  740  13.005   3.667  12.151 -0.3030  0.2883 -0.1603
   63DOPC   C4B  741  12.646   3.907  11.936 -0.0292 -0.2692 -0.2243
   64POSM   NC3  742   6.110   3.162  13.958 -0.0958 -0.0555 -0.3366
   64POSM   PO4  743   5.733   3.003  13.979 -0.2749  0.1949 -0.1992
   64POSM   AM1  744   5.740   3.090  13.658 -0.1741 -0.0324  0.2412
   64POSM   AM2  745   5.893   3.035  13.466 -0.0049  0.2708  0.1209
   64POSM   T1A  746   5.537   3.288  13.228 -0.2562 -0.2115  0.0741
   64POSM   C2A  747   5.304   3.435  12.893  0.1441  0.0869 -0.0313
   64POSM   C3A  748   4.897   3.666  12.861 -0.2906 -0.1633  0.3719
   64POSM   C1B  749   5.954   3.053  13.136  0.1668 -0.1931  0.0890
   64POSM   D2B  750   5.813   3.069  12.665 -0.0745  0.0963 -0.0034
   64POSM   C3B  751   5.597   3.404  12.467 -0.0933  0.0574  0.0358
   64POSM   C4B  752   5.510   3.858  12.558  0.0044  0.1754 -0.0213
   65POSM   NC3  753   4.480   8.911  14.694 -0.0276  0.0967 -0.1904
   65POSM   PO4  754   4.688   8.655  14.459  0.0211 -0.1548  0.1177
   65POSM   AM1  755   4.761   8.586  14.162  0.4029 -0.3438  0.3056
   65POSM   AM2  756   4.786   8.680  13.921 -0.0444  0.0826 -0.0112
   65POSM   T1A  757   5.039   8.183  13.975 -0.2662 -0.3415  0.2176
   65POSM   C2A  758   5.162   7.827  13.704  0.2613 -0.1070 -0.1832
   65POSM   C3A  759   5.375   7.705  13.350  0.0798  0.2181  0.3329
   65POSM   C1B  760   4.899   8.642  13.617  0.2006 -0.0829  0.1260
   65POSM   D2B  761   4.920   8.681  13.145 -0.0875  0.1844 -0.1334
   65POSM   C3B  762   4.903   8.532  12.690  0.2737  0.1219 -0.3079
   65POSM   C4B  763   4.907   8.408  12.230 -0.0153 -0.0932 -0.1550
   66DOPE   NH3  764   1.314   2.348  13.383  0.1718 -0.1279  0.2604
   66DOPE   PO4  765   1.603   2.291  13.371 -0.1621 -0.0628  0.2294
   66DOPE   GL1  766   1.522   2.363  12.954  0.0339  0.2870 -0.1119
   66DOPE   GL2  767   1.676   2.565  12.889 -0.0953  0.0141 -0.3150
   66DOPE   C1A  768   1.716   2.207  12.552 -0.0736  0.1587  0.1392
   66DOPE   D2A  769   1.893   2.361  12.169 -0.1274 -0.2515 -0.2501
   66DOPE   C3A  770   2.000   2.181  11.706  0.0288  0.0833 -0.2810
   66DOPE   C4A  771   1.979   2.261  11.290 -0.0759 -0.3157 -0.2749
   66DOPE   C1B  772   1.632   2.756  12.501 -0.2572 -0.0029  0.2390
   66DOPE   D2B  773   1.480   2.963  12.103 -0.0493  0.3456 -0.2331
   66DOPE   C3B  774   1.506   3.001  11.679 -0.1376 -0.0978 -0.1072
   66DOPE   C4B  775   1.753   3.128  11.310 -0.0373 -0.1166 -0.0725
   67DOPE   NH3  776   2.256  34.616  13.611 -0.0818  0.2756  0.2025
   67DOPE   PO4  777   2.436  34.523  13.392  0.1572 -0.1392  0.1318
   67DOPE   GL1  778   2.313  34.531  12.967  0.0425 -0.1402 -0.2841
   67DOPE   GL2  779   2.475  34.300  12.835 -0.2337 -0.4619 -0.1139
   67DOPE   C1A  780   2.550  34.812  12.707 -0.0221 -0.0501  0.0552
   67DOPE   D2A  781   2.387  35.262  12.589  0.4670  0.0605  0.1324
   67DOPE   C3A  782   2.666  35.469  12.222  0.0525  0.1718 -0.1237
   67DOPE   C4A  783   2.808  35.352  11.822  0.1897 -0.0221 -0.1236
   67DOPE   C1B  784   2.410  34.214  12.308  0.3163 -0.0960 -0.0621
   67DOPE   D2B  785   2.521  33.990  11.913  0.2776  0.4092  0.1847
   67DOPE   C3B  786   2.214  33.807  11.588  0.1049  0.0363  0.1260
   67DOPE   C4B  787   1.732  33.686  11.645  0.3827  0.1046  0.1622
   68DOPE   NH3  788   3.379  10.847  14.302 -0.4229  0.0489 -0.0982
   68DOPE   PO4  789   3.676  10.948  14.300  0.3365 -0.0172  0.2070
   68DOPE   GL1  790   3.467  10.996  13.857  0.0322  0.1971 -0.0300
   68DOPE   GL2  791   3.349  11.186  13.724 -0.1892 -0.1728 -0.4762
   68DOPE   C1A  792   3.217  10.767  13.513 -0.0139  0.0837 -0.1227
   68DOPE   D2A  793   3.098  10.811  13.038 -0.1105 -0.0062  0.0787
   68DOPE   C3A  794   2.743  10.958  12.779  0.1198  0.2127 -0.2697
   68DOPE   C4A  795   2.514  11.088  12.455 -0.0389 -0.1641  0.0866
   68DOPE   C1B  796   3.506  11.514  13.389  0.0782  0.1739 -0.1281
   68DOPE   D2B  797   3.535  11.676  12.975  0.1461 -0.0432 -0.1059
   68DOPE   C3B  798   3.756  11.594  12.585 -0.0782 -0.1903  0.1420
   68DOPE   C4B  799   4.104  11.581  12.305 -0.0917  0.0184 -0.1357
   69DOPC   NC3  800  33.707   0.750  13.129 -0.1205  0.2434  0.0411
   69DOPC   PO4  801  33.573   0.400  13.226 -0.0193 -0.0414  0.3391
   69DOPC   GL1  802  33.463   0.156  12.928  0.1346 -0.2453 -0.1157
   69DOPC   GL2  803  33.360   0.388  12.767 -0.1917 -0.0422 -0.0678
   69DOPC   C1A  804  33.337  -0.160  12.590  0.0064  0.4747  0.2873
   69DOPC   D2A  805  33.232  -0.458  12.258 -0.0509 -0.0904  0.1609
   69DOPC   C3A  806  33.056  -0.476  11.825  0.2664 -0.0317  0.0199
   69DOPC   C4A  807  32.660  -0.452  11.537  0.2027  0.0766 -0.1000
   69DOPC   C1B  808  33.680   0.224  12.475 -0.0091 -0.1112  0.0803
   69DOPC   D2B  809  33.903  -0.166  12.313  0.1134 -0.3949  0.2526
   69DOPC   C3B  810  34.119  -0.122  11.967  0.0341  0.0536  0.0746
   69DOPC   C4B  811  34.105   0.076  11.566  0.1913 -0.0459 -0.2690
   70DOPC   NC3  812   2.844   3.258  13.731 -0.3293 -0.0627 -0.2586
   70DOPC   PO4  813   3.046   3.160  13.433  0.1404  0.1037  0.0784
   70DOPC   GL1  814   2.994   3.386  13.112 -0.2918  0.2531  0.2632
   70DOPC   GL2  815   2.699   3.465  13.054 -0.1485  0.0670 -0.1239
   70DOPC   C1A  816   3.092   3.497  12.690 -0.1256  0.3680  0.2461
   70DOPC   D2A  817   2.949   3.670  12.242 -0.2885 -0.1684 -0.0162
   70DOPC   C3A  818   3.011   3.331  11.923 -0.2272  0.2381  0.2813
   70DOPC   C4A  819   3.159   2.925  11.792  0.0163 -0.1556 -0.0939
   70DOPC   C1B  820   2.518   3.508  12.625  0.1558  0.3006  0.1309
   70DOPC   D2B  821   2.455   3.785  12.253 -0.2114  0.2267  0.1191
   70DOPC   C3B  822   2.105   3.720  12.020  0.2644 -0.0704 -0.1611
   70DOPC   C4B  823   1.750   3.381  12.089  0.1605 -0.1355 -0.4712
   71POSM   NC3  824   6.024  34.236  14.324 -0.3278 -0.0715  0.1289
   71POSM   PO4  825   6.073  34.104  13.929 -0.1277  0.3045 -0.3090
   71POSM   AM1  826   6.075  34.210  13.594  0.1139  0.0234 -0.1895
   71POSM   AM2  827   6.010  34.421  13.436  0.1172  0.2970 -0.1236
   71POSM   T1A  828   5.802  34.081  13.157  0.0293 -0.1639 -0.0717
   71POSM   C2A  829   5.613  34.162  12.742 -0.0971 -0.0006  0.0233
   71POSM   C3A  830   5.163  34.207  12.634  0.1708  0.3276 -0.0817
   71POSM   C1B  831   6.199  34.381  13.166  0.3457  0.3886 -0.3098
   71POSM   D2B  832   6.202  34.240  12.756 -0.0129 -0.0138 -0.0098
   71POSM   C3B  833   6.288  34.231  12.361 -0.1248  0.2100  0.1479
   71POSM   C4B  834   6.529  34.317  12.003 -0.1916 -0.1789 -0.2315
   72DOPC   NC3  835   2.364  10.676  13.976 -0.0442  0.1210  0.2428
   72DOPC   PO4  836   2.549  10.359  14.104  0.2856 -0.1954  0.3115
   72DOPC   GL1  837   2.372  10.045  13.789 -0.2129 -0.2201  0.1561
   72DOPC   GL2  838   2.565   9.997  13.592  0.0814  0.3494  0.1160
   72DOPC   C1A  839   2.160  10.299  13.466 -0.0383 -0.0089 -0.2028
   72DOPC   D2A  840   2.188  10.364  13.026 -0.0527 -0.0954  0.2333
   72DOPC   C3A  841   2.496  10.167  12.740  0.1758  0.0596 -0.1944
   72DOPC   C4A  842   2.825  10.479  12.713 -0.0302 -0.0833 -0.0485
   72DOPC   C1B  843   2.483   9.785  13.166 -0.0708  0.2656  0.1236
   72DOPC   D2B  844   2.330   9.590  12.738 -0.0649 -0.1449 -0.2626
   72DOPC   C3B  845   2.524   9.810  12.395  0.1626  0.0081  0.0670
   72DOPC   C4B  846   2.443   9.957  11.965 -0.0202 -0.0065  0.1579
   73DOPE   NH3  847  10.665   2.541  13.957 -0.0597  0.1344  0.2622
   73DOPE   PO4  848  10.363   2.327  13.904  0.0468 -0.2634 -0.1361
   73DOPE   GL1  849  10.245   2.450  13.562  0.0417  0.0305 -0.0552
   73DOPE   GL2  850  10.145   2.162  13.383 -0.2496  0.1748 -0.3498
   73DOPE   C1A  851  10.435   2.508  13.138  0.2332 -0.0045 -0.0875
   73DOPE   D2A  852  10.786   2.629  12.881 -0.2213  0.0882  0.2013
   73DOPE   C3A  853  10.792   2.996  12.597  0.3368 -0.1578  0.3185
   73DOPE   C4A  854  10.707   3.143  12.182 -0.2459 -0.0507  0.2026
   73DOPE   C1B  855  10.193   2.073  12.950 -0.2754 -0.2259 -0.1519
   73DOPE   D2B  856  10.076   1.750  12.651 -0.0996 -0.0817  0.2331
   73DOPE   C3B  857   9.655   1.713  12.398 -0.1211  0.1203 -0.0728
   73DOPE   C4B  858   9.287   1.752  12.197  0.1006 -0.0007 -0.1177
   74DOPC   NC3  859   4.467   7.702  14.564  0.1268  0.1749 -0.0378
   74DOPC   PO4  860   4.820   7.653  14.445 -0.1717  0.1331 -0.1320
   74DOPC   GL1  861   4.737   7.769  13.974  0.2094 -0.2424  0.1794
   74DOPC   GL2  862   4.406   7.791  13.961  0.0846 -0.0447  0.0799
   74DOPC   C1A  863   4.705   7.580  13.576  0.0953 -0.0535  0.0833
   74DOPC   D2A  864   4.670   7.405  13.154 -0.0057  0.0498  0.2465
   74DOPC   C3A  865   4.289   7.225  12.932  0.1409  0.1142 -0.2226
   74DOPC   C4A  866   4.101   7.309  12.543 -0.0084  0.0549  0.0298
   74DOPC   C1B  867   4.291   7.981  13.603 -0.1883  0.0241 -0.0302
   74DOPC   D2B  868   3.987   8.176  13.354 -0.2512  0.2365 -0.3724
   74DOPC   C3B  869   4.004   8.184  12.875 -0.0091  0.1340 -0.0270
   74DOPC   C4B  870   3.939   8.413  12.444  0.0372  0.1661  0.0609
   75DOPE   NH3  871   4.979   9.031  14.281  0.0118 -0.1759  0.0977
   75DOPE   PO4  872   4.708   9.221  14.233 -0.1088 -0.0401  0.2936
   75DOPE   GL1  873   4.633   9.181  13.869  0.2543  0.2963  0.5327
   75DOPE   GL2  874   4.422   9.402  13.768 -0.0705  0.1992 -0.2851
   75DOPE   C1A  875   4.690   9.071  13.413  0.3540 -0.0675  0.3879
   75DOPE   D2A  876   4.582   9.098  12.944 -0.0636 -0.0924 -0.0632
   75DOPE   C3A  877   4.439   8.787  12.610  0.0023 -0.0451  0.4149
   75DOPE   C4A  878   4.403   8.480  12.324 -0.0315 -0.0306 -0.0131
   75DOPE   C1B  879   4.465   9.536  13.365  0.0753  0.1236  0.0090
   75DOPE   D2B  880   4.407   9.602  12.923 -0.1291  0.1515  0.1734
   75DOPE   C3B  881   4.273   9.530  12.447  0.0073  0.1112  0.1482
   75DOPE   C4B  882   4.086   9.847  12.175  0.0578 -0.1371 -0.1344
   76DOPE   NH3  883   8.213  33.681  13.962  0.1255  0.1326 -0.1589
   76DOPE   PO4  884   8.411  33.853  14.144 -0.1559 -0.0904  0.1066
   76DOPE   GL1  885   8.733  33.640  13.996  0.2995 -0.1177  0.2525
   76DOPE   GL2  886   8.637  33.423  14.022  0.0878  0.4959  0.1703
   76DOPE   C1A  887   8.980  33.669  13.590  0.2143  0.1390 -0.3069
   76DOPE   D2A  888   9.309  33.472  13.318 -0.1285  0.2547 -0.1048
   76DOPE   C3A  889   9.467  33.045  13.445 -0.3739 -0.0659  0.0194
   76DOPE   C4A  890   9.714  32.695  13.534 -0.0386  0.0573 -0.2743
   76DOPE   C1B  891   8.477  33.435  13.555 -0.2805  0.0190  0.0437
   76DOPE   D2B  892   8.398  33.390  13.099  0.0370  0.1117 -0.1645
   76DOPE   C3B  893   8.463  33.503  12.628 -0.0696 -0.0800 -0.1045
   76DOPE   C4B  894   8.627  33.791  12.338  0.2176 -0.1631 -0.1020
   77DOPC   NC3  895   2.935   0.324  14.017 -0.0465  0.0377  0.4208
   77DOPC   PO4  896   2.672   0.145  13.784 -0.1011  0.0149  0.2459
   77DOPC   GL1  897   2.845   0.293  13.486 -0.2463  0.2740  0.1726
   77DOPC   GL2  898   2.897   0.043  13.315 -0.2671  0.0182  0.1036
   77DOPC   C1A  899   2.834   0.410  13.009 -0.1359  0.0672  0.2241
   77DOPC   D2A  900   2.848   0.688  12.676  0.4101  0.1498 -0.1592
   77DOPC   C3A  901   3.167   0.887  12.406 -0.2495 -0.3043 -0.0634
   77DOPC   C4A  902   3.285   0.936  11.991 -0.0452 -0.0613  0.1084
   77DOPC   C1B  903   2.894  -0.133  12.886  0.0883 -0.2825 -0.2149
   77DOPC   D2B  904   2.824  -0.129  12.395  0.2270 -0.3753  0.1132
   77DOPC   C3B  905   2.816  -0.240  11.969  0.0319  0.3506  0.3061
   77DOPC   C4B  906   2.854  -0.467  11.602  0.2012  0.0298  0.0260
   78DOPC   NC3  907   2.890   1.091  13.334  0.1888 -0.0260 -0.1982
   78DOPC   PO4  908   3.176   1.195  13.611  0.0873 -0.1557  0.0190
   78DOPC   GL1  909   3.265   0.982  13.188  0.2268  0.3836 -0.0994
   78DOPC   GL2  910   3.175   0.768  13.043 -0.1407  0.1946 -0.2357
   78DOPC   C1A  911   3.190   1.198  12.813  0.0057 -0.1505 -0.0977
   78DOPC   D2A  912   3.004   1.621  12.708 -0.1195  0.0480 -0.1678
   78DOPC   C3A  913   3.176   1.769  12.333  0.1720 -0.0854  0.1439
   78DOPC   C4A  914   3.020   1.959  11.964 -0.3376  0.0555  0.2404
   78DOPC   C1B  915   3.513   0.782  12.793  0.4523  0.3079 -0.0819
   78DOPC   D2B  916   3.590   0.537  12.413  0.1174 -0.3454  0.0378
   78DOPC   C3B  917   3.717   0.679  11.982 -0.1227 -0.0209 -0.0684
   78DOPC   C4B  918   3.938   0.480  11.648 -0.0716  0.0388  0.0060
   79DOPC   NC3  919  12.968   6.703  15.010 -0.0448  0.0519  0.0585
   79DOPC   PO4  920  12.829   7.057  14.911 -0.3071 -0.1346  0.1758
   79DOPC   GL1  921  12.534   7.290  14.629  0.0020  0.4739 -0.0149
   79DOPC   GL2  922  12.696   7.234  14.379  0.0436  0.2772  0.0346
   79DOPC   C1A  923  12.382   7.520  14.193 -0.1036 -0.1185 -0.2234
   79DOPC   D2A  924  12.142   7.629  13.828 -0.0805  0.0607 -0.1724
   79DOPC   C3A  925  12.076   7.743  13.367  0.0332  0.1452  0.1367
   79DOPC   C4A  926  12.041   7.521  12.950  0.0711  0.0618 -0.0237
   79DOPC   C1B  927  12.813   7.327  13.958  0.0843  0.1475  0.0744
   79DOPC   D2B  928  12.748   7.562  13.548 -0.0902 -0.2856  0.2315
   79DOPC   C3B  929  12.348   7.341  13.341 -0.3377  0.3348 -0.1287
   79DOPC   C4B  930  11.930   7.227  13.386  0.0186 -0.3238 -0.2289
   80DOPC   NC3  931   0.184   0.969  13.380  0.2918 -0.2940  0.1641
   80DOPC   PO4  932  -0.196   1.029  13.468  0.1469 -0.1673  0.2648
   80DOPC   GL1  933  -0.403   1.312  13.306  0.0797 -0.0081  0.4637
   80DOPC   GL2  934  -0.699   1.241  13.256  0.0068  0.4099 -0.0085
   80DOPC   C1A  935  -0.445   1.515  12.895 -0.1495  0.0967  0.3032
   80DOPC   D2A  936  -0.679   1.474  12.545 -0.2778 -0.0158  0.1160
   80DOPC   C3A  937  -0.863   1.593  12.125 -0.1343 -0.1163 -0.0950
   80DOPC   C4A  938  -0.905   1.530  11.689 -0.1005 -0.0680 -0.0479
   80DOPC   C1B  939  -0.727   1.036  12.797  0.3941 -0.0430  0.2744
   80DOPC   D2B  940  -0.909   0.678  12.602  0.0672  0.1780 -0.2918
   80DOPC   C3B  941  -1.042   0.632  12.137  0.0086 -0.1303 -0.2288
   80DOPC   C4B  942  -1.305   0.469  11.788 -0.1824  0.1599  0.2030
   81DOPC   NC3  943   9.086   2.631  14.468  0.1006  0.0064 -0.1047
   81DOPC   PO4  944   8.684   2.688  14.432 -0.1347  0.2847 -0.2870
   81DOPC   GL1  945   8.556   2.509  14.123 -0.3113  0.4984  0.0789
   81DOPC   GL2  946   8.763   2.341  14.050 -0.0516 -0.3110  0.2321
   81DOPC   C1A  947   8.627   2.695  13.724 -0.0303 -0.5072  0.0166
   81DOPC   D2A  948   8.672   3.137  13.529 -0.0575  0.0925 -0.1280
   81DOPC   C3A  949   8.286   3.359  13.696  0.0799  0.2105  0.0480
   81DOPC   C4A  950   7.895   3.557  13.729 -0.2554 -0.1740  0.1355
   81DOPC   C1B  951   8.782   2.230  13.578  0.2060 -0.0145 -0.0894
   81DOPC   D2B  952   8.397   2.290  13.305 -0.2130  0.2157  0.0938
   81DOPC   C3B  953   7.970   2.030  13.253  0.3456 -0.2776  0.1472
   81DOPC   C4B  954   7.761   1.817  12.925  0.0390  0.3109 -0.1975
   82DOPE   NH3  955  12.623   5.548  14.520 -0.0712  0.3555 -0.0806
   82DOPE   PO4  956  12.540   5.227  14.503  0.1366  0.0358 -0.0191
   82DOPE   GL1  957  12.624   5.282  14.015  0.2014 -0.0352 -0.0042
   82DOPE   GL2  958  12.871   5.376  13.884 -0.2272 -0.0226 -0.1064
   82DOPE   C1A  959  12.426   5.429  13.624 -0.0403 -0.2695 -0.0107
   82DOPE   D2A  960  12.471   5.500  13.172 -0.0479 -0.2138 -0.2526
   82DOPE   C3A  961  12.832   5.285  12.916  0.2991 -0.2699 -0.1801
   82DOPE   C4A  962  12.878   5.055  12.467 -0.2140 -0.1272 -0.0066
   82DOPE   C1B  963  12.998   4.970  13.679  0.0144  0.1795  0.0573
   82DOPE   D2B  964  12.889   4.534  13.555  0.0247 -0.1819 -0.2851
   82DOPE   C3B  965  12.859   4.517  13.123 -0.1723  0.0185 -0.0906
   82DOPE   C4B  966  13.123   4.631  12.752 -0.1212 -0.3882  0.0273
   83DOPE   NH3  967   9.324   7.719  14.676  0.0632  0.2117 -0.3705
   83DOPE   PO4  968   9.550   7.679  14.895  0.1879 -0.2334  0.0082
   83DOPE   GL1  969   9.765   7.613  14.528 -0.2030  0.1765  0.3458
   83DOPE   GL2  970   9.805   7.946  14.491  0.0825  0.0505  0.3065
   83DOPE   C1A  971   9.683   7.579  14.038  0.1088 -0.0867  0.1579
   83DOPE   D2A  972   9.641   7.911  13.665  0.0592  0.1552 -0.2585
   83DOPE   C3A  973   9.847   7.733  13.268 -0.0083 -0.0208 -0.0461
   83DOPE   C4A  974  10.242   7.760  13.046 -0.0171 -0.2479 -0.2537
   83DOPE   C1B  975  10.087   8.284  14.287  0.2777  0.4707  0.0775
   83DOPE   D2B  976  10.180   8.353  13.831 -0.3100 -0.1100 -0.3630
   83DOPE   C3B  977  10.562   8.439  13.639 -0.0670 -0.0446  0.0777
   83DOPE   C4B  978  10.844   8.254  13.384  0.0147  0.2940 -0.0694
   84POSM   NC3  979   7.232   7.532  14.015 -0.1490  0.2337 -0.0735
   84POSM   PO4  980   7.201   7.180  14.181  0.2887 -0.2698  0.0417
   84POSM   AM1  981   7.316   7.090  13.870 -0.2409  0.2124 -0.0805
   84POSM   AM2  982   7.547   7.144  13.780 -0.1057  0.1812  0.1572
   84POSM   T1A  983   7.125   6.792  13.491  0.1475 -0.2563  0.0476
   84POSM   C2A  984   7.081   6.397  13.278  0.0580 -0.1193  0.1563
   84POSM   C3A  985   7.073   6.067  12.943 -0.0388  0.0803  0.0947
   84POSM   C1B  986   7.448   7.228  13.474 -0.2018  0.3345  0.2223
   84POSM   D2B  987   7.171   7.234  13.115  0.2438  0.1467  0.1729
   84POSM   C3B  988   7.196   7.164  12.652 -0.2953  0.2739  0.4662
   84POSM   C4B  989   7.344   6.986  12.327  0.0794 -0.2374  0.0505
   85DOPC   NC3  990   9.665   0.261  14.192  0.2666  0.0291 -0.0417
   85DOPC   PO4  991   9.390   0.135  14.414 -0.1059  0.0626 -0.2069
   85DOPC   GL1  992   9.176   0.176  14.060 -0.0580 -0.0256  0.0132
   85DOPC   GL2  993   8.918   0.049  13.887  0.1483 -0.0627  0.0959
   85DOPC   C1A  994   9.386  -0.024  13.677  0.2090 -0.0839 -0.1741
   85DOPC   D2A  995   9.406  -0.270  13.326 -0.2730 -0.1980  0.0006
   85DOPC   C3A  996   9.038  -0.097  13.083 -0.0057 -0.4895  0.0187
   85DOPC   C4A  997   9.045   0.148  12.639  0.0081 -0.1440 -0.0821
   85DOPC   C1B  998   9.024  -0.394  13.697  0.3035  0.1070  0.0646
   85DOPC   D2B  999   9.077  -0.632  13.295 -0.0784 -0.0532 -0.2016
   85DOPC   C3B 1000   9.286  -0.485  12.897  0.3569  0.5522  0.1410
   85DOPC   C4B 1001   9.499  -0.109  12.709 -0.0236 -0.1263  0.0528
   86POSM   NC3 1002   1.640   1.728  13.342  0.0867 -0.0474  0.4435
   86POSM   PO4 1003   1.501   1.422  13.202 -0.1402  0.2838  0.1526
   86POSM   AM1 1004   1.573   1.409  12.879  0.3086 -0.3096 -0.4007
   86POSM   AM2 1005   1.733   1.229  12.678  0.0908  0.0937 -0.1400
   86POSM   T1A 1006   1.538   1.661  12.458  0.0011 -0.0358 -0.0850
   86POSM   C2A 1007   1.616   1.964  12.053  0.0507  0.1850  0.0228
   86POSM   C3A 1008   1.496   2.168  11.624 -0.0141  0.3096  0.0214
   86POSM   C1B 1009   1.846   1.269  12.322 -0.2360  0.1481 -0.0978
   86POSM   D2B 1010   1.828   1.192  11.900  0.2132  0.3593  0.2562
   86POSM   C3B 1011   1.671   0.746  11.732 -0.1289  0.0126 -0.0049
   86POSM   C4B 1012   1.631   0.456  11.396 -0.1602  0.1095 -0.0453
   87POSM   NC3 1013   3.691   9.797  14.520  0.0786 -0.1069  0.1533
   87POSM   PO4 1014   3.987   9.896  14.368  0.0010  0.1264  0.0601
   87POSM   AM1 1015   3.915  10.025  14.093  0.1015 -0.0962 -0.4024
   87POSM   AM2 1016   3.962  10.247  13.888  0.3092  0.0070 -0.2598
   87POSM   T1A 1017   3.957   9.867  13.591  0.1629  0.2790  0.3343
   87POSM   C2A 1018   4.018   9.701  13.192 -0.1173  0.0971 -0.1626
   87POSM   C3A 1019   3.851   9.601  12.755 -0.1813  0.3502 -0.2526
   87POSM   C1B 1020   4.143  10.354  13.633 -0.0702 -0.1400  0.0691
   87POSM   D2B 1021   4.097  10.586  13.247  0.1525 -0.1845 -0.3218
   87POSM   C3B 1022   3.998  10.512  12.797  0.2005 -0.1140 -0.0042
   87POSM   C4B 1023   3.947  10.271  12.417  0.1119 -0.1133 -0.0837
   88DOPS   CNO 1024   5.093   0.984  13.684  0.0391 -0.1920 -0.1056
   88DOPS   PO4 1025   5.127   1.369  13.751 -0.1504 -0.1877  0.0519
   88DOPS   GL1 1026   5.159   1.504  13.371  0.2081 -0.5092 -0.0401
   88DOPS   GL2 1027   5.244   1.342  13.163 -0.0916 -0.1588 -0.2139
   88DOPS   C1A 1028   4.797   1.626  13.058 -0.0247 -0.1028  0.2720
   88DOPS   D2A 1029   4.393   1.882  12.872 -0.0708  0.1427 -0.0084
   88DOPS   C3A 1030   4.605   1.976  12.461 -0.0158 -0.3019  0.3509
   88DOPS   C4A 1031   4.726   2.068  12.053  0.0099  0.0411  0.0355
   88DOPS   C1B 1032   5.337   1.603  12.877  0.2873  0.0842  0.0171
   88DOPS   D2B 1033   5.555   1.934  12.664 -0.0586  0.5138  0.0269
   88DOPS   C3B 1034   5.548   1.978  12.211  0.1576  0.0305  0.0663
   88DOPS   C4B 1035   5.620   1.793  11.718 -0.0849 -0.1275 -0.0122
   89DOPC   NC3 1036   5.424   7.327  14.835  0.0561 -0.2999 -0.2392
   89DOPC   PO4 1037   5.446   7.335  14.436  0.3481  0.1458  0.0471
   89DOPC   GL1 1038   5.456   7.025  14.126  0.2824  0.2211 -0.1573
   89DOPC   GL2 1039   5.481   7.266  13.884 -0.1692 -0.2927 -0.1582
   89DOPC   C1A 1040   5.803   6.918  13.784  0.1238  0.0772  0.1188
   89DOPC   D2A 1041   5.887   6.848  13.293  0.0323 -0.1672 -0.5566
   89DOPC   C3A 1042   5.736   6.643  12.904  0.1124 -0.0515 -0.0646
   89DOPC   C4A 1043   5.425   6.285  12.889  0.1738  0.1529 -0.3242
   89DOPC   C1B 1044   5.570   7.239  13.430  0.0680 -0.0090 -0.0852
   89DOPC   D2B 1045   5.602   7.426  12.953 -0.1163 -0.3965  0.1785
   89DOPC   C3B 1046   5.512   7.900  12.926  0.0731  0.0478 -0.1188
   89DOPC   C4B 1047   5.094   8.075  12.804 -0.0523  0.1668 -0.1527
   90DOPE   NH3 1048   7.356   6.033  14.572  0.0661  0.0650  0.0308
   90DOPE   PO4 1049   7.220   6.235  14.350 -0.0142  0.0044  0.0060
   90DOPE   GL1 1050   7.388   6.294  14.016 -0.1858 -0.2203  0.1623
   90DOPE   GL2 1051   7.200   6.252  13.762  0.0936 -0.0680 -0.1247
   90DOPE   C1A 1052   7.565   6.623  13.734  0.2211  0.2399 -0.3780
   90DOPE   D2A 1053   7.738   6.746  13.339  0.2698 -0.1398 -0.0071
   90DOPE   C3A 1054   8.006   6.943  13.050  0.1579  0.1320  0.0174
   90DOPE   C4A 1055   8.302   7.274  13.032  0.1017 -0.4108 -0.2594
   90DOPE   C1B 1056   7.040   5.890  13.511  0.0366 -0.2830  0.1638
   90DOPE   D2B 1057   6.724   5.785  13.143 -0.1673 -0.2489 -0.0456
   90DOPE   C3B 1058   6.782   5.820  12.644  0.0949 -0.1045 -0.0673
   90DOPE   C4B 1059   6.904   5.665  12.218 -0.1805 -0.3112  0.0663
   91DOPE   NH3 1060   6.575  32.505  13.723 -0.1453  0.0252 -0.1493
   91DOPE   PO4 1061   6.390  32.553  13.477  0.1448 -0.1257  0.2961
   91DOPE   GL1 1062   6.379  32.597  13.103  0.2817  0.0120 -0.0982
   91DOPE   GL2 1063   6.362  32.839  13.006 -0.1304 -0.2658  0.0065
   91DOPE   C1A 1064   6.307  32.268  12.797  0.2176 -0.3749  0.0055
   91DOPE   D2A 1065   6.381  31.810  12.786 -0.2168  0.0418  0.0966
   91DOPE   C3A 1066   6.293  31.740  12.288 -0.0518  0.2559  0.3183
   91DOPE   C4A 1067   5.954  31.674  12.002  0.2643 -0.3105  0.2443
   91DOPE   C1B 1068   6.600  33.203  12.801  0.0559  0.0972 -0.0455
   91DOPE   D2B 1069   7.054  33.385  12.710  0.0901  0.1679 -0.0422
   91DOPE   C3B 1070   7.026  33.574  12.348 -0.2020  0.0196 -0.0839
   91DOPE   C4B 1071   6.855  33.450  11.947  0.4703  0.0791  0.2720
   92DOPC   NC3 1072   7.971   1.608  14.414 -0.0315 -0.2613  0.1999
   92DOPC   PO4 1073   8.212   1.886  14.547  0.2038 -0.0047 -0.0266
   92DOPC   GL1 1074   8.209   2.171  14.212  0.1777 -0.0564  0.3361
   92DOPC   GL2 1075   8.403   1.946  14.053 -0.0699 -0.1897 -0.3313
   92DOPC   C1A 1076   8.186   2.360  13.764  0.2446 -0.0566  0.1858
   92DOPC   D2A 1077   7.919   2.505  13.437 -0.0008 -0.2552 -0.0082
   92DOPC   C3A 1078   7.488   2.597  13.467 -0.1767 -0.0989 -0.0306
   92DOPC   C4A 1079   7.057   2.678  13.414 -0.1816 -0.0911  0.0100
   92DOPC   C1B 1080   8.351   1.880  13.569 -0.1581  0.1023 -0.1129
   92DOPC   D2B 1081   8.360   1.756  13.107 -0.0482  0.1687 -0.0443
   92DOPC   C3B 1082   8.714   2.064  13.021  0.2160 -0.3148  0.1560
   92DOPC   C4B 1083   9.054   2.098  12.649  0.0424  0.0911  0.0890
   93POSM   NC3 1084   6.095   4.509  14.280  0.0439  0.0230  0.0696
   93POSM   PO4 1085   5.878   4.781  14.059  0.0925 -0.2753  0.1802
   93POSM   AM1 1086   6.099   4.824  13.821 -0.0028  0.1522  0.0230
   93POSM   AM2 1087   6.340   4.776  13.846  0.1622  0.1371  0.2647
   93POSM   T1A 1088   6.228   5.086  13.458  0.2740 -0.2592  0.0849
   93POSM   C2A 1089   6.572   5.224  13.149  0.2076 -0.1534 -0.1634
   93POSM   C3A 1090   6.851   5.396  12.845 -0.0415  0.1946 -0.1365
   93POSM   C1B 1091   6.652   4.722  13.639 -0.0242 -0.2798  0.1739
   93POSM   D2B 1092   7.029   4.572  13.489  0.0324 -0.0056  0.0341
   93POSM   C3B 1093   7.225   4.897  13.234 -0.1757 -0.1459 -0.0174
   93POSM   C4B 1094   7.298   5.108  12.875  0.1749 -0.0260  0.1387
   94POSM   NC3 1095   3.985  10.507  14.289 -0.1751  0.0127  0.0214
   94POSM   PO4 1096   3.624  10.387  14.317 -0.2368  0.1275  0.0161
   94POSM   AM1 1097   3.629  10.580  14.035  0.0013  0.3349  0.1741
   94POSM   AM2 1098   3.504  10.436  13.803  0.1304  0.0157 -0.0694
   94POSM   T1A 1099   3.775  10.755  13.594 -0.1066 -0.1541  0.1385
   94POSM   C2A 1100   3.617  10.658  13.192  0.1170  0.0280 -0.2259
   94POSM   C3A 1101   3.506  10.478  12.839  0.1578 -0.0880  0.3637
   94POSM   C1B 1102   3.572  10.251  13.594  0.0637  0.5055  0.0899
   94POSM   D2B 1103   3.807  10.170  13.165 -0.0849 -0.0682  0.0683
   94POSM   C3B 1104   3.697  10.030  12.790 -0.4541 -0.2837 -0.1583
   94POSM   C4B 1105   3.607   9.925  12.385  0.2062 -0.2052  0.0464
   95DOPC   NC3 1106  11.408   6.968  14.611 -0.2134  0.1393 -0.2856
   95DOPC   PO4 1107  11.077   7.119  14.740 -0.3731 -0.0319 -0.0936
   95DOPC   GL1 1108  11.086   7.232  14.342 -0.1052 -0.2101 -0.0246
   95DOPC   GL2 1109  11.141   7.465  14.257 -0.3803  0.2652  0.0113
   95DOPC   C1A 1110  11.009   7.031  13.906  0.0647 -0.0695 -0.4690
   95DOPC   D2A 1111  11.248   6.788  13.538 -0.0568 -0.5208  0.1775
   95DOPC   C3A 1112  11.454   7.052  13.251  0.0490 -0.0382  0.2451
   95DOPC   C4A 1113  11.524   7.478  13.076 -0.0884 -0.1907  0.1516
   95DOPC   C1B 1114  11.028   7.515  13.778 -0.1420 -0.1475  0.3677
   95DOPC   D2B 1115  11.031   7.406  13.370  0.1347  0.0285  0.1046
   95DOPC   C3B 1116  10.822   7.714  13.150 -0.3499 -0.1122 -0.1669
   95DOPC   C4B 1117  10.654   7.983  12.767 -0.0813 -0.4309  0.0140
   96DOPS   CNO 1118   3.655   5.916  14.450 -0.0477 -0.0641  0.0336
   96DOPS   PO4 1119   3.776   5.578  14.473 -0.2697  0.0408  0.1430
   96DOPS   GL1 1120   3.819   5.716  14.090 -0.1461 -0.3045  0.0758
   96DOPS   GL2 1121   3.847   5.486  13.911 -0.0597 -0.1262  0.1749
   96DOPS   C1A 1122   3.550   5.772  13.675 -0.0989 -0.2751 -0.1711
   96DOPS   D2A 1123   3.533   6.115  13.360 -0.0067 -0.2383 -0.0370
   96DOPS   C3A 1124   3.354   6.171  12.935  0.1152 -0.1313  0.0438
   96DOPS   C4A 1125   3.213   6.184  12.544 -0.2331 -0.0513 -0.1051
   96DOPS   C1B 1126   3.938   5.454  13.456  0.1206  0.0379  0.0046
   96DOPS   D2B 1127   4.184   5.438  13.021  0.4119 -0.4150 -0.0562
   96DOPS   C3B 1128   3.960   5.633  12.634 -0.1194  0.0477 -0.1003
   96DOPS   C4B 1129   3.852   5.448  12.233 -0.0559 -0.2181  0.1088
   97DOPE   NH3 1130  10.351   4.808  14.219  0.1062  0.0463  0.2024
   97DOPE   PO4 1131  10.272   5.069  14.314 -0.1828  0.0208  0.0528
   97DOPE   GL1 1132  10.212   5.197  13.888  0.0165 -0.2212  0.2749
   97DOPE   GL2 1133  10.173   4.881  13.773 -0.0899 -0.0256 -0.0142
   97DOPE   C1A 1134  10.110   5.424  13.526  0.0004  0.2565 -0.0900
   97DOPE   D2A 1135   9.921   5.437  13.117  0.0789 -0.2715 -0.3820
   97DOPE   C3A 1136   9.939   5.745  12.779  0.4421  0.1944  0.1184
   97DOPE   C4A 1137   9.818   6.005  12.397 -0.0722 -0.0001  0.2988
   97DOPE   C1B 1138  10.220   4.646  13.322  0.1609  0.1755  0.0897
   97DOPE   D2B 1139  10.120   4.237  13.102 -0.1779 -0.0782  0.1367
   97DOPE   C3B 1140  10.120   4.210  12.648 -0.2514 -0.1296  0.0567
   97DOPE   C4B 1141   9.819   4.320  12.299 -0.0258 -0.3206  0.2291
   98DOPS   CNO 1142   8.732   7.625  14.829 -0.1994 -0.1139 -0.0388
   98DOPS   PO4 1143   8.839   7.659  14.454 -0.1023  0.0969  0.0322
   98DOPS   GL1 1144   9.143   7.477  14.244  0.2500 -0.4026 -0.1779
   98DOPS   GL2 1145   9.322   7.315  14.394  0.0318  0.4456  0.0455
   98DOPS   C1A 1146   9.275   7.585  13.801 -0.3355  0.2626 -0.0934
   98DOPS   D2A 1147   9.252   7.730  13.396 -0.2090  0.1559  0.1969
   98DOPS   C3A 1148   8.804   7.825  13.251  0.1738 -0.1971  0.2572
   98DOPS   C4A 1149   8.543   7.978  12.893 -0.6294 -0.0875 -0.0534
   98DOPS   C1B 1150   9.726   7.166  14.243 -0.1452  0.3366  0.0844
   98DOPS   D2B 1151  10.025   7.174  13.848 -0.1663 -0.0382  0.0692
   98DOPS   C3B 1152  10.155   7.585  13.750  0.1706 -0.0703 -0.0574
   98DOPS   C4B 1153  10.272   7.897  14.019 -0.0546  0.1512 -0.1148
   99DOPS   CNO 1154   3.925  34.220  13.831 -0.1725 -0.0539  0.2208
   99DOPS   PO4 1155   3.732  34.570  13.813 -0.3120  0.2017  0.2209
   99DOPS   GL1 1156   3.512  34.594  13.451 -0.0299 -0.3274 -0.2408
   99DOPS   GL2 1157   3.268  34.438  13.264 -0.1107 -0.5098  0.0013
   99DOPS   C1A 1158   3.716  34.616  13.021 -0.0616 -0.1237  0.0251
   99DOPS   D2A 1159   3.729  34.514  12.575  0.0580 -0.2540 -0.0631
   99DOPS   C3A 1160   3.823  34.106  12.437 -0.3414 -0.1831 -0.1248
   99DOPS   C4A 1161   4.269  33.927  12.384  0.2811 -0.1249 -0.0021
   99DOPS   C1B 1162   3.337  34.307  12.838  0.1543  0.0184 -0.1509
   99DOPS   D2B 1163   3.302  34.247  12.379 -0.0001  0.0319 -0.0214
   99DOPS   C3B 1164   3.284  34.625  12.133  0.1261  0.0201  0.3897
   99DOPS   C4B 1165   3.244  35.092  12.016 -0.0048  0.3826 -0.2068
  100POSM   NC3 1166   5.263   1.772  13.976 -0.1541 -0.0309 -0.1033
  100POSM   PO4 1167   5.160   2.157  14.035 -0.0815 -0.3620 -0.2258
  100POSM   AM1 1168   5.279   2.139  13.717 -0.0618 -0.1041  0.0678
  100POSM   AM2 1169   5.355   1.955  13.490 -0.0108  0.2024  0.1715
  100POSM   T1A 1170   5.421   2.410  13.294  0.1293 -0.0590 -0.1671
  100POSM   C2A 1171   5.386   2.777  13.039 -0.2353  0.1046  0.1916
  100POSM   C3A 1172   5.315   2.987  12.611 -0.0370 -0.1071  0.2032
  100POSM   C1B 1173   5.195   1.986  13.179  0.0702 -0.0477  0.0765
  100POSM   D2B 1174   4.996   2.042  12.755  0.3473 -0.0466  0.1395
  100POSM   C3B 1175   5.098   2.092  12.347 -0.0320 -0.0454  0.1886
  100POSM   C4B 1176   5.221   2.243  11.903  0.1397  0.0715 -0.3683
  101POSM   NC3 1177  11.603   3.414  14.012 -0.1835 -0.1728 -0.0858
  101POSM   PO4 1178  11.593   3.808  14.116 -0.1054 -0.0442 -0.1364
  101POSM   AM1 1179  11.406   3.936  13.941  0.1671 -0.0713 -0.1464
  101POSM   AM2 1180  11.187   4.057  13.905  0.2267  0.0393  0.4395
  101POSM   T1A 1181  11.440   3.995  13.470 -0.3069  0.3357 -0.1712
  101POSM   C2A 1182  11.438   4.094  13.019  0.1801  0.2767  0.0060
  101POSM   C3A 1183  11.407   4.235  12.596 -0.0476 -0.1393 -0.0702
  101POSM   C1B 1184  10.913   3.934  13.707 -0.0057  0.0484 -0.1453
  101POSM   D2B 1185  10.599   3.789  13.405  0.0129 -0.1605 -0.4907
  101POSM   C3B 1186  10.721   3.652  12.966  0.2331  0.4764  0.1398
  101POSM   C4B 1187  10.850   3.500  12.560 -0.0118  0.3839  0.1578
  102DOPC   NC3 1188   1.765  34.003  13.702  0.0957  0.1975  0.2384
  102DOPC   PO4 1189   1.786  34.386  13.558 -0.1647  0.0985  0.0652
  102DOPC   GL1 1190   1.667  34.350  13.244 -0.2553 -0.3626 -0.0411
  102DOPC   GL2 1191   1.486  34.109  13.245 -0.4260  0.1427 -0.0714
  102DOPC   C1A 1192   1.848  34.435  12.819  0.0621  0.0724  0.0900
  102DOPC   D2A 1193   2.087  34.545  12.462 -0.0327  0.0983 -0.1055
  102DOPC   C3A 1194   2.274  34.743  12.124  0.0154  0.1527  0.0258
  102DOPC   C4A 1195   2.343  34.904  11.706 -0.3211 -0.0862 -0.1423
  102DOPC   C1B 1196   1.325  34.291  12.876  0.1498  0.0407  0.1709
  102DOPC   D2B 1197   1.385  34.130  12.467  0.0199 -0.0771  0.0829
  102DOPC   C3B 1198   1.446  34.084  11.996  0.0045  0.1371  0.0198
  102DOPC   C4B 1199   1.479  34.253  11.547  0.1400  0.0894  0.0498
  103POSM   NC3 1200   5.733  13.418  14.025 -0.2342  0.1616 -0.0202
  103POSM   PO4 1201   5.888  13.745  14.111 -0.0923  0.1550  0.3531
  103POSM   AM1 1202   6.104  13.703  13.861  0.0782 -0.0265  0.4969
  103POSM   AM2 1203   6.149  13.464  13.707  0.3468 -0.1766  0.0820
  103POSM   T1A 1204   6.167  13.772  13.373  0.1632 -0.0491  0.3462
  103POSM   C2A 1205   6.358  13.861  12.945  0.1170  0.2065  0.1493
  103POSM   C3A 1206   6.509  13.705  12.555 -0.0431  0.0237 -0.3956
  103POSM   C1B 1207   5.994  13.146  13.663  0.4018  0.0736  0.0956
  103POSM   D2B 1208   5.726  12.987  13.305  0.1547 -0.1962  0.0910
  103POSM   C3B 1209   5.942  12.844  12.898  0.0156 -0.1530  0.2092
  103POSM   C4B 1210   6.059  12.585  12.549  0.1954  0.2073  0.3043
  104DOPC   NC3 1211   4.980   4.894  14.030 -0.0515 -0.3015  0.1707
  104DOPC   PO4 1212   5.346   4.910  14.167 -0.0513  0.1502  0.1577
  104DOPC   GL1 1213   5.397   4.831  13.763 -0.1973  0.2004  0.0558
  104DOPC   GL2 1214   5.585   4.603  13.590 -0.0446  0.0802 -0.1111
  104DOPC   C1A 1215   5.463   5.058  13.365 -0.0981 -0.2448 -0.1760
  104DOPC   D2A 1216   5.317   5.310  12.999  0.3544 -0.0336  0.4443
  104DOPC   C3A 1217   5.004   5.606  12.810  0.0353  0.3234  0.0456
  104DOPC   C4A 1218   4.950   5.656  12.374  0.3632 -0.0041 -0.2167
  104DOPC   C1B 1219   5.861   4.675  13.190  0.0073  0.0358  0.0125
  104DOPC   D2B 1220   6.238   4.878  13.010 -0.0258  0.2293 -0.0683
  104DOPC   C3B 1221   6.689   4.676  13.045  0.3340  0.0425 -0.0304
  104DOPC   C4B 1222   7.099   4.492  12.895 -0.2454 -0.0856 -0.0168
  105POSM   NC3 1223   6.582   4.694  14.245 -0.2178 -0.1020 -0.0382
  105POSM   PO4 1224   6.700   5.016  14.472 -0.2249 -0.0253 -0.0769
  105POSM   AM1 1225   6.985   4.945  14.283  0.1611 -0.3346  0.2902
  105POSM   AM2 1226   7.208   4.816  14.234 -0.3530  0.1865 -0.0662
  105POSM   T1A 1227   7.123   4.993  13.802 -0.0033  0.1610 -0.1267
  105POSM   C2A 1228   7.377   5.304  13.577 -0.0497  0.0065  0.1531
  105POSM   C3A 1229   7.759   5.457  13.256  0.2205  0.0376 -0.0342
  105POSM   C1B 1230   7.518   4.792  14.092  0.2007  0.1325  0.0538
  105POSM   D2B 1231   7.656   4.895  13.689  0.2147  0.0704  0.1693
  105POSM   C3B 1232   8.050   4.746  13.568 -0.0903 -0.0390 -0.1449
  105POSM   C4B 1233   8.096   4.329  13.374 -0.4975 -0.0379 -0.1172
  106POSM   NC3 1234   8.979   0.527  14.405  0.0780 -0.0281  0.0201
  106POSM   PO4 1235   9.286   0.620  14.181  0.1065  0.1508  0.2001
  106POSM   AM1 1236   9.343   0.556  13.877  0.1532 -0.3606  0.0060
  106POSM   AM2 1237   9.527   0.541  13.668  0.0049 -0.2643 -0.2442
  106POSM   T1A 1238   9.226   0.329  13.424 -0.0055 -0.1771 -0.1195
  106POSM   C2A 1239   9.401   0.260  13.024 -0.1285 -0.0380  0.0683
  106POSM   C3A 1240   9.505   0.403  12.618 -0.2330  0.0999  0.0025
  106POSM   C1B 1241   9.661   0.557  13.377  0.0259  0.3026 -0.0463
  106POSM   D2B 1242   9.804   0.738  12.993  0.1538  0.2653  0.0356
  106POSM   C3B 1243  10.056   0.584  12.640  0.3673  0.2573 -0.1016
  106POSM   C4B 1244  10.401   0.622  12.327  0.1908 -0.3334 -0.1647
  107DOPC   NC3 1245  33.103   0.006  13.179 -0.2204 -0.3571 -0.0001
  107DOPC   PO4 1246  32.930   0.156  13.490 -0.1003  0.0751 -0.1178
  107DOPC   GL1 1247  32.669   0.104  13.141 -0.0772 -0.0859  0.2325
  107DOPC   GL2 1248  32.646  -0.203  13.041 -0.2661  0.2431  0.0491
  107DOPC   C1A 1249  32.460   0.285  12.741  0.1273 -0.1557  0.1836
  107DOPC   D2A 1250  32.089   0.510  12.714 -0.2060 -0.4075  0.0307
  107DOPC   C3A 1251  32.064   0.739  13.114 -0.2634 -0.0711  0.0350
  107DOPC   C4A 1252  32.026   0.930  13.524 -0.0350 -0.0510  0.0418
  107DOPC   C1B 1253  32.844  -0.054  12.622 -0.0994 -0.0240  0.0666
  107DOPC   D2B 1254  33.083   0.263  12.391  0.0203  0.1297  0.0930
  107DOPC   C3B 1255  33.350   0.031  12.126  0.2592  0.2392 -0.0944
  107DOPC   C4B 1256  33.719   0.136  11.916  0.0124  0.0814 -0.2920
  108DOPE   NH3 1257   3.541   1.476  13.923 -0.0724  0.2577  0.2004
  108DOPE   PO4 1258   3.624   1.652  13.683 -0.0545 -0.0222 -0.1155
  108DOPE   GL1 1259   3.545   1.869  13.245  0.1493  0.0605 -0.0075
  108DOPE   GL2 1260   3.667   2.085  13.306  0.2101  0.3265  0.3869
  108DOPE   C1A 1261   3.488   1.675  12.803 -0.0950 -0.1651  0.1437
  108DOPE   D2A 1262   3.417   1.350  12.440 -0.0855  0.0526  0.0047
  108DOPE   C3A 1263   3.747   1.059  12.300  0.0904 -0.3523 -0.0513
  108DOPE   C4A 1264   4.036   0.719  12.452 -0.2195 -0.0050  0.1445
  108DOPE   C1B 1265   3.784   2.262  12.856  0.2970 -0.2953  0.0513
  108DOPE   D2B 1266   4.108   2.208  12.555 -0.2131  0.1448 -0.0094
  108DOPE   C3B 1267   4.150   1.964  12.161  0.0268  0.1156 -0.4430
  108DOPE   C4B 1268   4.220   1.528  12.111  0.0781  0.2668 -0.0043
  109DOPC   NC3 1269   2.154   0.873  13.540  0.0860  0.0031  0.1155
  109DOPC   PO4 1270   2.378   1.120  13.378 -0.0625 -0.0620 -0.1216
  109DOPC   GL1 1271   2.305   1.098  12.959 -0.2903 -0.1423 -0.2377
  109DOPC   GL2 1272   2.554   0.980  12.900  0.1866  0.0795  0.1591
  109DOPC   C1A 1273   2.283   1.497  12.648  0.3311 -0.0080  0.1120
  109DOPC   D2A 1274   2.046   1.775  12.377 -0.0390  0.0521  0.1433
  109DOPC   C3A 1275   2.151   1.613  11.970 -0.0985 -0.2365  0.0618
  109DOPC   C4A 1276   2.196   1.734  11.513 -0.0730  0.1936 -0.2173
  109DOPC   C1B 1277   2.740   1.202  12.499  0.1241 -0.2336 -0.2502
  109DOPC   D2B 1278   2.914   1.233  12.032 -0.1182  0.2148  0.2296
  109DOPC   C3B 1279   3.263   1.461  11.887  0.2351  0.1620 -0.2198
  109DOPC   C4B 1280   3.661   1.226  11.732 -0.0914  0.1099  0.2253
  110POSM   NC3 1281  11.847   5.680  14.486  0.0990 -0.0315 -0.0278
  110POSM   PO4 1282  12.220   5.812  14.442 -0.2881 -0.1556  0.0643
  110POSM   AM1 1283  12.084   5.895  14.149  0.2120 -0.4225 -0.1680
  110POSM   AM2 1284  11.876   5.822  14.022 -0.0029 -0.1934 -0.0027
  110POSM   T1A 1285  11.954   6.358  13.948 -0.1099  0.1642  0.3386
  110POSM   C2A 1286  11.907   6.737  13.701 -0.0594 -0.0701 -0.1407
  110POSM   C3A 1287  12.202   6.788  13.349 -0.0682 -0.3042  0.0036
  110POSM   C1B 1288  11.908   5.897  13.699  0.1385  0.1105 -0.1420
  110POSM   D2B 1289  12.049   5.719  13.313  0.1154 -0.2172  0.3146
  110POSM   C3B 1290  12.303   5.885  12.936 -0.0953  0.4055  0.0345
  110POSM   C4B 1291  12.737   5.834  12.752  0.1590 -0.0580  0.1883
  111POSM   NC3 1292   4.457   9.885  14.606  0.0210 -0.4463 -0.1402
  111POSM   PO4 1293   4.788   9.824  14.448  0.0581  0.0522  0.2080
  111POSM   AM1 1294   4.753   9.958  14.161 -0.0974 -0.1922  0.0657
  111POSM   AM2 1295   4.934  10.058  13.930  0.0324 -0.4158  0.1201
  111POSM   T1A 1296   4.408   9.971  13.776  0.0686 -0.2624 -0.0934
  111POSM   C2A 1297   4.346  10.047  13.322  0.1479  0.1596  0.1160
  111POSM   C3A 1298   4.195  10.018  12.806 -0.1205  0.5416  0.1158
  111POSM   C1B 1299   4.989   9.733  13.800 -0.3740 -0.1706  0.3149
  111POSM   D2B 1300   4.931   9.525  13.436  0.0873 -0.0770 -0.2975
  111POSM   C3B 1301   4.956   9.424  13.025  0.2747  0.0007  0.0621
  111POSM   C4B 1302   5.235   9.438  12.626 -0.3921  0.0713  0.0310
  112POSM   NC3 1303   4.442   6.391  13.772 -0.1818  0.1544  0.2303
  112POSM   PO4 1304   4.783   6.508  13.985 -0.3175 -0.1868 -0.1108
  112POSM   AM1 1305   4.913   6.275  13.768  0.0836 -0.0475 -0.0875
  112POSM   AM2 1306   5.075   6.276  13.509  0.1212 -0.2698  0.1801
  112POSM   T1A 1307   4.679   6.064  13.381  0.0542  0.1195 -0.1799
  112POSM   C2A 1308   4.382   6.188  13.067 -0.3640  0.1005 -0.2430
  112POSM   C3A 1309   4.162   6.373  12.675 -0.0960 -0.2363  0.2478
  112POSM   C1B 1310   4.955   6.379  13.207  0.1270  0.2472  0.0748
  112POSM   D2B 1311   4.607   6.575  12.867  0.0311 -0.1044  0.1156
  112POSM   C3B 1312   4.706   6.682  12.426  0.0892 -0.0670 -0.1663
  112POSM   C4B 1313   4.662   6.732  11.955 -0.0352 -0.1289  0.0812
  113POSM   NC3 1314   4.965  10.750  14.368 -0.0092 -0.0176  0.0709
  113POSM   PO4 1315   4.704  11.046  14.178  0.0255 -0.1117  0.1456
  113POSM   AM1 1316   4.789  11.208  13.946  0.0126  0.2761  0.0027
  113POSM   AM2 1317   4.677  11.372  13.756  0.1646  0.0591 -0.0030
  113POSM   T1A 1318   5.117  11.225  13.572 -0.0418  0.4089  0.1441
  113POSM   C2A 1319   5.446  11.271  13.250 -0.0091 -0.0967 -0.0751
  113POSM   C3A 1320   5.739  10.984  13.085  0.1107 -0.2812  0.3134
  113POSM   C1B 1321   4.652  11.229  13.465 -0.0718  0.0187  0.1010
  113POSM   D2B 1322   4.885  11.146  13.078 -0.2461 -0.1691  0.0802
  113POSM   C3B 1323   5.241  10.851  12.964  0.0231  0.1031  0.3854
  113POSM   C4B 1324   5.540  10.588  12.796 -0.0945 -0.1820 -0.3496
  114DOPC   NC3 1325  10.062   9.128  15.212  0.2034 -0.1333 -0.2210
  114DOPC   PO4 1326   9.835   9.334  14.995 -0.2649  0.2873  0.0261
  114DOPC   GL1 1327   9.870   9.302  14.563 -0.2511 -0.1020 -0.2666
  114DOPC   GL2 1328   9.709   9.303  14.352  0.3511  0.1197  0.2406
  114DOPC   C1A 1329  10.254   9.283  14.256  0.0679  0.1433  0.0429
  114DOPC   D2A 1330  10.404   9.330  13.811 -0.1122  0.2975  0.1602
  114DOPC   C3A 1331  10.606   9.735  13.642 -0.1661 -0.0752 -0.1361
  114DOPC   C4A 1332  10.794  10.130  13.648  0.0270 -0.0075  0.0893
  114DOPC   C1B 1333   9.757   9.456  13.915 -0.2116  0.1483  0.0452
  114DOPC   D2B 1334  10.020   9.551  13.594 -0.1956 -0.0925 -0.2515
  114DOPC   C3B 1335  10.375   9.300  13.347 -0.0804  0.0220 -0.1244
  114DOPC   C4B 1336  10.508   8.892  13.191  0.0568 -0.1477 -0.0051
  115POSM   NC3 1337  12.602   4.505  14.158 -0.2833  0.1464  0.0857
  115POSM   PO4 1338  12.277   4.285  14.222 -0.2238 -0.0849 -0.0727
  115POSM   AM1 1339  12.328   4.242  13.887  0.0877  0.2046  0.0047
  115POSM   AM2 1340  12.421   4.038  13.677  0.0893 -0.0386 -0.0151
  115POSM   T1A 1341  12.383   4.441  13.444  0.1904  0.0966  0.0592
  115POSM   C2A 1342  12.124   4.691  13.042  0.1680 -0.0002 -0.1670
  115POSM   C3A 1343  12.248   4.806  12.558  0.1499 -0.0204 -0.1882
  115POSM   C1B 1344  12.158   4.000  13.504  0.0727  0.1416 -0.1105
  115POSM   D2B 1345  11.815   3.809  13.226  0.1820  0.0477  0.4828
  115POSM   C3B 1346  12.145   3.703  12.879  0.2500 -0.0417 -0.3293
  115POSM   C4B 1347  12.283   3.683  12.467  0.1293 -0.1970 -0.0938
  116DOPS   CNO 1348   4.336   2.051  13.975  0.0438  0.1775  0.0998
  116DOPS   PO4 1349   4.343   2.043  13.602 -0.2170  0.1736  0.1675
  116DOPS   GL1 1350   4.340   1.734  13.328 -0.2454 -0.0377 -0.1667
  116DOPS   GL2 1351   4.011   1.730  13.355 -0.0068  0.0985 -0.0424
  116DOPS   C1A 1352   4.381   1.375  13.021 -0.0189 -0.1924  0.2555
  116DOPS   D2A 1353   4.624   1.052  12.910  0.1017  0.0909 -0.2566
  116DOPS   C3A 1354   4.717   0.961  12.439 -0.0650 -0.2126 -0.1612
  116DOPS   C4A 1355   5.040   1.190  12.237 -0.1682  0.2550 -0.2203
  116DOPS   C1B 1356   3.986   1.662  12.956  0.1717 -0.1495  0.2893
  116DOPS   D2B 1357   3.868   1.744  12.498 -0.1530  0.0990  0.2379
  116DOPS   C3B 1358   3.766   1.662  12.034  0.2593  0.4645 -0.0525
  116DOPS   C4B 1359   3.968   1.549  11.618  0.1571 -0.0549 -0.3683
  117DOPS   CNO 1360   4.129   5.982  13.939  0.0628 -0.0866  0.0918
  117DOPS   PO4 1361   4.526   5.992  14.026  0.1060  0.1979  0.1542
  117DOPS   GL1 1362   4.609   5.677  13.751  0.4055 -0.0570  0.1781
  117DOPS   GL2 1363   4.343   5.546  13.766 -0.1835 -0.1130  0.0918
  117DOPS   C1A 1364   4.832   5.613  13.431  0.1852  0.1004  0.0175
  117DOPS   D2A 1365   5.109   5.915  13.154 -0.2998  0.2763 -0.4076
  117DOPS   C3A 1366   4.964   6.162  12.769  0.0811  0.2454  0.2560
  117DOPS   C4A 1367   5.130   6.515  12.594  0.0508  0.0932  0.1111
  117DOPS   C1B 1368   4.316   5.771  13.331  0.2736 -0.0367  0.2029
  117DOPS   D2B 1369   4.572   5.743  12.956 -0.1404  0.0379 -0.2631
  117DOPS   C3B 1370   4.477   5.804  12.509 -0.0425 -0.1554  0.1797
  117DOPS   C4B 1371   4.069   5.983  12.296 -0.0063 -0.2240 -0.2648
  118DOPS   CNO 1372   9.395   6.915  14.661  0.0023 -0.1850  0.2387
  118DOPS   PO4 1373   9.027   6.765  14.739  0.0680  0.0962 -0.0183
  118DOPS   GL1 1374   9.132   6.702  14.264 -0.2875 -0.1428  0.0074
  118DOPS   GL2 1375   9.412   6.699  14.252 -0.1881 -0.2948 -0.4013
  118DOPS   C1A 1376   8.941   6.661  13.854 -0.0224  0.0911  0.4775
  118DOPS   D2A 1377   9.043   6.720  13.392 -0.0768 -0.1642  0.0264
  118DOPS   C3A 1378   9.466   6.838  13.329 -0.3515 -0.3054 -0.1447
  118DOPS   C4A 1379   9.820   6.920  13.044  0.3088  0.2170 -0.1086
  118DOPS   C1B 1380   9.741   6.701  13.960 -0.3474 -0.2219  0.1169
  118DOPS   D2B 1381   9.939   6.442  13.613 -0.0046  0.3258 -0.0167
  118DOPS   C3B 1382   9.813   6.473  13.188  0.2626  0.0276 -0.0791
  118DOPS   C4B 1383   9.958   6.266  12.779  0.1220  0.1734 -0.0275
  119POSM   NC3 1384   7.441   1.194  14.842 -0.1452 -0.0548  0.4550
  119POSM   PO4 1385   7.398   1.486  14.647  0.1443  0.1958  0.0631
  119POSM   AM1 1386   7.375   1.569  14.290  0.1196  0.0989 -0.1582
  119POSM   AM2 1387   7.249   1.459  14.105 -0.5734  0.1604 -0.0075
  119POSM   T1A 1388   7.473   1.785  13.858 -0.3285 -0.1637  0.0202
  119POSM   C2A 1389   7.519   1.998  13.463  0.0003 -0.1048  0.1791
  119POSM   C3A 1390   7.601   2.309  13.094 -0.3240  0.0699  0.3390
  119POSM   C1B 1391   7.029   1.590  13.911 -0.1356 -0.1481 -0.2425
  119POSM   D2B 1392   7.081   1.743  13.527 -0.0920  0.3490 -0.2113
  119POSM   C3B 1393   7.258   1.757  13.116 -0.1048 -0.0769  0.1632
  119POSM   C4B 1394   7.259   1.676  12.639  0.0613  0.2785  0.2712
  120DOPE   NH3 1395   8.630  10.964  14.404 -0.4200  0.1320 -0.2034
  120DOPE   PO4 1396   8.579  10.737  14.629  0.0614  0.3036  0.0345
  120DOPE   GL1 1397   8.783  10.559  14.303  0.2120 -0.0527  0.3995
  120DOPE   GL2 1398   9.007  10.635  14.313  0.3082 -0.1653  0.3917
  120DOPE   C1A 1399   8.830  10.227  13.923  0.2040 -0.0032 -0.1936
  120DOPE   D2A 1400   8.854  10.038  13.492 -0.3321 -0.0962 -0.1455
  120DOPE   C3A 1401   9.105  10.057  13.172 -0.1602  0.2473  0.0990
  120DOPE   C4A 1402   9.422   9.881  12.998  0.1593  0.0976 -0.1419
  120DOPE   C1B 1403   9.098  10.631  13.829  0.3553 -0.2229  0.0077
  120DOPE   D2B 1404   9.353  10.517  13.478 -0.2036 -0.0792  0.2621
  120DOPE   C3B 1405   9.623  10.164  13.392 -0.0570 -0.0416  0.1180
  120DOPE   C4B 1406   9.845   9.814  13.174  0.0003 -0.2634 -0.3664
  121POSM   NC3 1407   4.685  32.950  13.501  0.2705  0.0328 -0.0807
  121POSM   PO4 1408   4.706  33.278  13.224 -0.1735  0.0093  0.0175
  121POSM   AM1 1409   4.862  33.188  12.916  0.3478 -0.0265 -0.0581
  121POSM   AM2 1410   4.733  33.083  12.672  0.0127 -0.0571  0.1328
  121POSM   T1A 1411   5.242  33.038  12.658 -0.1907 -0.4701  0.0265
  121POSM   C2A 1412   5.428  32.980  12.230 -0.3553 -0.1179 -0.1272
  121POSM   C3A 1413   5.826  32.896  12.025  0.2212 -0.2003 -0.0609
  121POSM   C1B 1414   4.800  33.088  12.363  0.2460 -0.0533 -0.1286
  121POSM   D2B 1415   4.899  33.160  11.940 -0.1555  0.1845 -0.1991
  121POSM   C3B 1416   5.252  33.000  11.693  0.2261  0.3988  0.0951
  121POSM   C4B 1417   5.597  32.737  11.625  0.1207 -0.0349  0.2181
  122DOPS   CNO 1418   6.543   4.303  14.559  0.3290  0.0791 -0.1399
  122DOPS   PO4 1419   6.384   4.133  14.267  0.0439  0.1122 -0.3485
  122DOPS   GL1 1420   6.496   3.945  13.856 -0.2452 -0.1334  0.1813
  122DOPS   GL2 1421   6.507   4.249  13.774  0.0808 -0.0768 -0.1086
  122DOPS   C1A 1422   6.336   3.913  13.414 -0.0916  0.2956  0.1383
  122DOPS   D2A 1423   6.362   3.810  12.971  0.1486  0.3917 -0.0161
  122DOPS   C3A 1424   6.344   4.083  12.515  0.0633  0.0438  0.1200
  122DOPS   C4A 1425   6.276   4.065  12.043 -0.1515  0.0421 -0.1586
  122DOPS   C1B 1426   6.283   4.435  13.448  0.0133  0.1841  0.2928
  122DOPS   D2B 1427   6.280   4.323  12.967 -0.0888 -0.1310  0.3003
  122DOPS   C3B 1428   6.125   4.638  12.608 -0.0345 -0.0130 -0.1024
  122DOPS   C4B 1429   6.032   5.039  12.445  0.1249 -0.2638  0.1519
  123POSM   NC3 1430  11.430   2.938  14.113  0.1667  0.1047  0.3365
  123POSM   PO4 1431  11.760   2.927  13.870 -0.0121 -0.0356 -0.0168
  123POSM   AM1 1432  11.782   3.163  13.636  0.0290  0.4350 -0.1327
  123POSM   AM2 1433  11.889   3.258  13.381 -0.1010  0.1724 -0.1389
  123POSM   T1A 1434  11.487   3.512  13.486 -0.1431  0.2003  0.0020
  123POSM   C2A 1435  11.251   3.628  13.067 -0.2771 -0.1756 -0.1041
  123POSM   C3A 1436  11.447   3.721  12.636 -0.3245  0.3709  0.3222
  123POSM   C1B 1437  11.793   3.346  13.012  0.0703 -0.1281 -0.2866
  123POSM   D2B 1438  11.833   3.373  12.532 -0.0515 -0.2204  0.0018
  123POSM   C3B 1439  12.217   3.193  12.389 -0.0716 -0.1133 -0.0470
  123POSM   C4B 1440  12.593   2.901  12.378 -0.2658  0.0561 -0.2277
  124POSM   NC3 1441   5.558   0.200  14.118 -0.1622  0.3594 -0.0995
  124POSM   PO4 1442   5.435   0.569  13.905 -0.2649  0.0742  0.0005
  124POSM   AM1 1443   5.716   0.542  13.691  0.5870 -0.1947  0.5025
  124POSM   AM2 1444   5.798   0.327  13.540  0.0685  0.3181  0.0091
  124POSM   T1A 1445   6.107   0.738  13.397  0.2429 -0.1580 -0.1219
  124POSM   C2A 1446   6.387   0.585  13.052  0.1514 -0.0487 -0.0473
  124POSM   C3A 1447   6.744   0.484  12.783  0.0613 -0.2669 -0.2134
  124POSM   C1B 1448   5.755   0.440  13.258  0.1033  0.2405 -0.1066
  124POSM   D2B 1449   5.679   0.696  12.901  0.3988  0.0493  0.0087
  124POSM   C3B 1450   5.630   0.563  12.515  0.1777 -0.0614  0.0204
  124POSM   C4B 1451   5.701   0.197  12.201 -0.1106 -0.2651  0.2795
  125POSM   NC3 1452   3.654   8.852  14.628 -0.0106  0.1069 -0.2191
  125POSM   PO4 1453   4.017   8.874  14.583 -0.1422 -0.0823  0.1790
  125POSM   AM1 1454   4.097   8.830  14.231  0.0110 -0.0143 -0.2384
  125POSM   AM2 1455   4.340   8.888  14.062 -0.1043 -0.0584  0.0899
  125POSM   T1A 1456   3.902   9.072  13.842 -0.1334 -0.0095 -0.4184
  125POSM   C2A 1457   4.047   9.254  13.440 -0.1019  0.0111  0.2146
  125POSM   C3A 1458   4.108   9.220  12.968 -0.2925  0.4003 -0.1898
  125POSM   C1B 1459   4.399   8.843  13.749 -0.0987  0.2638  0.0047
  125POSM   D2B 1460   4.334   8.523  13.418  0.1039  0.0371  0.2356
  125POSM   C3B 1461   4.503   8.450  13.032  0.1690 -0.0970 -0.0964
  125POSM   C4B 1462   4.564   8.145  12.690 -0.1575 -0.1145 -0.0585
  126DOPE   NH3 1463  11.993   4.612  14.519 -0.0529 -0.2745 -0.0589
  126DOPE   PO4 1464  11.776   4.799  14.314 -0.0820 -0.2620 -0.3533
  126DOPE   GL1 1465  11.918   4.734  14.002  0.3971  0.2202  0.1851
  126DOPE   GL2 1466  12.089   4.569  13.789  0.0797  0.2735 -0.3204
  126DOPE   C1A 1467  12.094   5.115  13.754 -0.0967  0.2081  0.1177
  126DOPE   D2A 1468  12.027   5.168  13.287 -0.2615 -0.3598 -0.0610
  126DOPE   C3A 1469  12.160   5.278  12.846 -0.3158 -0.4099 -0.2795
  126DOPE   C4A 1470  12.457   5.482  12.588 -0.1349  0.0117  0.0164
  126DOPE   C1B 1471  12.478   4.824  13.768 -0.0609  0.1957 -0.1851
  126DOPE   D2B 1472  12.555   5.036  13.359  0.1141  0.3483  0.2627
  126DOPE   C3B 1473  12.566   4.866  12.927 -0.2510 -0.0969 -0.0859
  126DOPE   C4B 1474  12.651   4.505  12.612  0.4338  0.0616 -0.3239
  127DOPE   NH3 1475   2.687   5.804  14.158 -0.1414 -0.1708 -0.0203
  127DOPE   PO4 1476   2.748   6.034  14.004  0.1211 -0.3599 -0.0303
  127DOPE   GL1 1477   2.611   6.002  13.657 -0.2001  0.0263  0.2705
  127DOPE   GL2 1478   2.711   5.675  13.550  0.1246 -0.1056  0.0429
  127DOPE   C1A 1479   2.576   6.273  13.297 -0.1963  0.2319 -0.2357
  127DOPE   D2A 1480   2.763   6.573  12.996  0.4065 -0.0332  0.1233
  127DOPE   C3A 1481   2.891   6.507  12.516  0.1025 -0.0414  0.0178
  127DOPE   C4A 1482   2.794   6.318  12.078 -0.1271  0.2041 -0.2025
  127DOPE   C1B 1483   2.640   5.720  13.089  0.0024 -0.1021 -0.2359
  127DOPE   D2B 1484   2.772   6.073  12.875 -0.3196 -0.0471 -0.3573
  127DOPE   C3B 1485   2.789   6.002  12.449  0.2704  0.0635  0.0060
  127DOPE   C4B 1486   2.417   5.920  12.181 -0.0244 -0.4090  0.2688
  128DOPS   CNO 1487  11.271   3.064  13.672 -0.0836  0.3652  0.0477
  128DOPS   PO4 1488  10.922   2.973  13.796 -0.2531 -0.1053 -0.0762
  128DOPS   GL1 1489  10.621   2.722  13.550 -0.0715  0.2305 -0.3570
  128DOPS   GL2 1490  10.701   2.835  13.316  0.0220 -0.0812  0.2274
  128DOPS   C1A 1491  10.180   2.868  13.378 -0.0169 -0.0885 -0.1583
  128DOPS   D2A 1492  10.009   3.211  13.105  0.2556 -0.0414  0.2703
  128DOPS   C3A 1493   9.802   3.657  13.176 -0.0359  0.0255  0.2371
  128DOPS   C4A 1494   9.726   3.962  12.871 -0.2318 -0.2228 -0.1264
  128DOPS   C1B 1495  11.077   3.035  13.055  0.0932  0.0046  0.0677
  128DOPS   D2B 1496  11.395   3.153  12.725  0.1725  0.0462 -0.1381
  128DOPS   C3B 1497  11.280   3.265  12.281  0.2904 -0.1282 -0.0512
  128DOPS   C4B 1498  11.134   3.353  11.863 -0.0588 -0.2116  0.1860
  129DOPS   CNO 1499   2.541   4.310  14.081  0.1491 -0.1402 -0.0678
  129DOPS   PO4 1500   2.593   4.082  13.816  0.0534  0.3110 -0.2258
  129DOPS   GL1 1501   2.761   4.285  13.481 -0.1655  0.2551 -0.0757
  129DOPS   GL2 1502   2.867   4.579  13.570 -0.3525 -0.0357  0.0501
  129DOPS   C1A 1503   3.096   4.464  13.173 -0.1115 -0.0729  0.2565
  129DOPS   D2A 1504   3.318   4.654  12.839  0.1047 -0.1710  0.0087
  129DOPS   C3A 1505   3.481   4.565  12.383 -0.1591 -0.0583 -0.0194
  129DOPS   C4A 1506   3.909   4.331  12.330 -0.0281 -0.3058  0.2253
  129DOPS   C1B 1507   2.553   4.675  13.198 -0.0361  0.0168  0.0238
  129DOPS   D2B 1508   2.415   4.639  12.733  0.0480  0.0308  0.2396
  129DOPS   C3B 1509   2.468   5.010  12.473 -0.2968  0.0080  0.1926
  129DOPS   C4B 1510   2.589   5.422  12.267 -0.1787  0.1833 -0.0663
  130DOPE   NH3 1511   6.617   8.277  14.504  0.1007 -0.0921 -0.0689
  130DOPE   PO4 1512   6.779   8.346  14.263  0.0179 -0.2742 -0.0469
  130DOPE   GL1 1513   6.826   8.422  13.796  0.3474 -0.3093 -0.2743
  130DOPE   GL2 1514   6.839   8.166  13.769 -0.3526 -0.1414 -0.3181
  130DOPE   C1A 1515   6.847   8.361  13.294 -0.1955  0.2207 -0.2918
  130DOPE   D2A 1516   6.761   8.561  12.836 -0.2712  0.1320  0.0396
  130DOPE   C3A 1517   6.751   8.982  12.730 -0.3435 -0.0735 -0.1644
  130DOPE   C4A 1518   6.763   9.428  12.877  0.4170 -0.3238 -0.0429
  130DOPE   C1B 1519   7.180   7.929  13.611 -0.1472 -0.0804 -0.1278
  130DOPE   D2B 1520   7.453   7.702  13.247  0.1518  0.2510 -0.1276
  130DOPE   C3B 1521   7.395   7.748  12.737 -0.1418  0.1724 -0.1583
  130DOPE   C4B 1522   7.043   7.998  12.507  0.0432  0.1300  0.1645
  131DOPC   NC3 1523   5.831   9.229  14.576  0.0185  0.1929  0.2231
  131DOPC   PO4 1524   5.496   9.027  14.530 -0.0201  0.0698  0.1737
  131DOPC   GL1 1525   5.494   9.086  14.141 -0.0048  0.1106  0.2137
  131DOPC   GL2 1526   5.846   9.027  14.057  0.1692 -0.0071 -0.1000
  131DOPC   C1A 1527   5.208   8.978  13.803 -0.0157  0.2420 -0.0027
  131DOPC   D2A 1528   5.178   9.033  13.318  0.0489  0.0069  0.2870
  131DOPC   C3A 1529   5.340   8.945  12.876  0.0264  0.1899  0.0232
  131DOPC   C4A 1530   5.203   8.822  12.426 -0.1309  0.0414  0.0741
  131DOPC   C1B 1531   5.667   8.948  13.639  0.0128 -0.0467  0.2498
  131DOPC   D2B 1532   5.807   9.055  13.202  0.0859 -0.0788 -0.3241
  131DOPC   C3B 1533   6.010   8.742  12.900 -0.0712  0.2310 -0.1722
  131DOPC   C4B 1534   6.333   8.539  12.610  0.0256 -0.1393  0.4996
  132DOPE   NH3 1535   7.283   8.030  14.190  0.1783  0.0275 -0.1112
  132DOPE   PO4 1536   7.554   8.020  14.363  0.1009  0.1852 -0.3762
  132DOPE   GL1 1537   7.685   7.983  13.968  0.1606  0.1521  0.1425
  132DOPE   GL2 1538   7.617   7.760  13.826  0.0701  0.2180 -0.0640
  132DOPE   C1A 1539   7.573   8.254  13.673  0.0142 -0.0694 -0.0233
  132DOPE   D2A 1540   7.296   8.603  13.544  0.0906  0.0184 -0.1095
  132DOPE   C3A 1541   6.911   8.847  13.698  0.1960 -0.1885  0.1484
  132DOPE   C4A 1542   6.531   9.104  13.790  0.2012  0.1120 -0.1184
  132DOPE   C1B 1543   7.949   7.940  13.508 -0.2552  0.2069  0.1851
  132DOPE   D2B 1544   8.086   8.256  13.135  0.3354 -0.1153  0.0259
  132DOPE   C3B 1545   8.498   8.446  12.887 -0.1151 -0.1752  0.1727
  132DOPE   C4B 1546   8.546   8.691  12.529  0.0270 -0.1350  0.1387
  133DOPC   NC3 1547   2.083   2.398  13.181  0.0449  0.0245 -0.0719
  133DOPC   PO4 1548   2.043   2.039  13.270 -0.2495 -0.0265 -0.1334
  133DOPC   GL1 1549   2.141   2.075  12.877 -0.1972 -0.1437  0.3859
  133DOPC   GL2 1550   2.433   1.880  13.007  0.0147  0.2007  0.1486
  133DOPC   C1A 1551   2.291   2.188  12.431  0.2321 -0.0031  0.1365
  133DOPC   D2A 1552   2.501   2.457  12.150 -0.0171 -0.0164 -0.1853
  133DOPC   C3A 1553   2.308   2.687  11.846  0.1136 -0.1225 -0.2495
  133DOPC   C4A 1554   1.874   2.648  11.712 -0.1208 -0.0404 -0.0455
  133DOPC   C1B 1555   2.624   1.858  12.605  0.1303  0.0849 -0.0919
  133DOPC   D2B 1556   2.688   1.632  12.242 -0.3276  0.0403  0.1165
  133DOPC   C3B 1557   2.613   1.617  11.789  0.0701  0.0726  0.0237
  133DOPC   C4B 1558   2.928   1.476  11.442  0.0862  0.0820 -0.1226
  134DOPE   NH3 1559   8.897   4.914  14.688 -0.0887  0.0789 -0.0860
  134DOPE   PO4 1560   8.982   5.164  14.544 -0.2587  0.1529  0.1482
  134DOPE   GL1 1561   8.870   5.354  14.215  0.2792  0.0778 -0.0562
  134DOPE   GL2 1562   9.038   5.600  14.184  0.0313 -0.0570 -0.1159
  134DOPE   C1A 1563   9.020   5.246  13.824 -0.0789  0.1681 -0.2372
  134DOPE   D2A 1564   9.182   5.141  13.355  0.1223  0.0801 -0.2038
  134DOPE   C3A 1565   9.125   5.347  12.901  0.1967  0.2314 -0.0583
  134DOPE   C4A 1566   9.200   5.257  12.470 -0.1715  0.1985 -0.1260
  134DOPE   C1B 1567   9.215   5.774  13.828  0.1036 -0.1041  0.0515
  134DOPE   D2B 1568   9.215   5.988  13.397 -0.0722  0.3129  0.2296
  134DOPE   C3B 1569   9.021   6.001  12.954 -0.1536  0.3898 -0.0046
  134DOPE   C4B 1570   8.806   5.995  12.573  0.0374  0.1512 -0.1552
  135DOPE   NH3 1571   9.279   6.340  14.643 -0.2092 -0.0905 -0.0645
  135DOPE   PO4 1572   9.580   6.226  14.556  0.1370  0.2025  0.2356
  135DOPE   GL1 1573   9.662   6.208  14.187 -0.2561  0.1016  0.1028
  135DOPE   GL2 1574   9.353   6.246  14.055  0.0612  0.0009 -0.2349
  135DOPE   C1A 1575   9.669   6.048  13.752  0.1350  0.1415 -0.2844
  135DOPE   D2A 1576   9.828   6.007  13.348 -0.1621  0.0236  0.0149
  135DOPE   C3A 1577   9.534   5.996  12.951  0.0518  0.2335  0.0970
  135DOPE   C4A 1578   9.310   6.080  12.561  0.0733  0.2553  0.1461
  135DOPE   C1B 1579   9.341   6.426  13.649 -0.5838 -0.1392 -0.2469
  135DOPE   D2B 1580   9.326   6.396  13.166 -0.0310  0.0911 -0.0373
  135DOPE   C3B 1581   9.505   6.650  12.837  0.0611 -0.0192 -0.0675
  135DOPE   C4B 1582   9.870   6.741  12.583  0.0673 -0.0061  0.0581
  136DOPC   NC3 1583   4.959  31.808  13.186  0.2267  0.0100  0.0156
  136DOPC   PO4 1584   4.567  31.734  13.138 -0.1708  0.0912  0.1843
  136DOPC   GL1 1585   4.581  31.907  12.832 -0.0466  0.0922 -0.3799
  136DOPC   GL2 1586   4.573  32.211  12.846 -0.3864 -0.0676  0.2892
  136DOPC   C1A 1587   4.747  31.849  12.405  0.1618  0.0623 -0.0596
  136DOPC   D2A 1588   4.996  31.798  11.995  0.2032  0.2959 -0.1437
  136DOPC   C3A 1589   4.864  32.225  11.841  0.0508 -0.2507 -0.0388
  136DOPC   C4A 1590   4.702  32.631  11.978  0.1071  0.0591 -0.1741
  136DOPC   C1B 1591   4.607  32.276  12.422  0.1350 -0.0029  0.3816
  136DOPC   D2B 1592   4.461  32.081  12.002 -0.2976 -0.0447  0.0374
  136DOPC   C3B 1593   4.395  32.346  11.602 -0.1051 -0.0228  0.0309
  136DOPC   C4B 1594   4.185  32.647  11.280 -0.0935  0.2288  0.0627
  137DOPC   NC3 1595  11.605   4.351  14.157  0.0264 -0.0399  0.4880
  137DOPC   PO4 1596  11.347   4.495  14.350 -0.1376 -0.2218 -0.0121
  137DOPC   GL1 1597  11.187   4.521  13.983 -0.1037 -0.3196  0.0276
  137DOPC   GL2 1598  10.918   4.508  13.863 -0.2293 -0.0560 -0.2902
  137DOPC   C1A 1599  11.536   4.501  13.670  0.2332 -0.1690 -0.0877
  137DOPC   D2A 1600  11.786   4.324  13.324 -0.1140  0.2875 -0.1870
  137DOPC   C3A 1601  11.927   4.285  12.887 -0.0300  0.2094  0.0663
  137DOPC   C4A 1602  11.815   4.495  12.487  0.0439 -0.0109  0.0101
  137DOPC   C1B 1603  11.078   4.383  13.461 -0.1861  0.0827  0.0275
  137DOPC   D2B 1604  11.380   4.593  13.198  0.1265  0.1307 -0.0080
  137DOPC   C3B 1605  11.303   4.772  12.775  0.0111  0.0296 -0.1336
  137DOPC   C4B 1606  11.123   5.010  12.416  0.1991 -0.2926  0.0232
  138DOPE   NH3 1607   8.371   4.291  14.554  0.1033 -0.1648  0.0237
  138DOPE   PO4 1608   8.371   4.066  14.334  0.2196  0.1355  0.2030
  138DOPE   GL1 1609   8.499   4.157  13.928  0.2126 -0.0231 -0.3375
  138DOPE   GL2 1610   8.288   4.015  13.854 -0.0092 -0.0975  0.0272
  138DOPE   C1A 1611   8.622   4.109  13.443 -0.0724  0.1026  0.0728
  138DOPE   D2A 1612   8.576   4.201  13.004 -0.1157  0.1367 -0.1394
  138DOPE   C3A 1613   8.470   3.990  12.568  0.1647 -0.1202 -0.3737
  138DOPE   C4A 1614   8.760   3.805  12.347  0.2318 -0.0058  0.3790
  138DOPE   C1B 1615   8.266   3.792  13.418  0.1439  0.0890 -0.1316
  138DOPE   D2B 1616   8.431   3.448  13.137 -0.0136  0.1474 -0.0229
  138DOPE   C3B 1617   8.112   3.566  12.837  0.3797 -0.0540  0.1687
  138DOPE   C4B 1618   7.954   3.837  12.523  0.1121 -0.3622  0.0938
  139DOPE   NH3 1619  14.206   5.996  14.171  0.1052 -0.0403 -0.0084
  139DOPE   PO4 1620  14.063   6.180  14.421 -0.0229  0.1997 -0.3091
  139DOPE   GL1 1621  14.062   6.501  14.153  0.0289  0.2952  0.0323
  139DOPE   GL2 1622  13.831   6.381  13.987  0.0800 -0.0071 -0.0764
  139DOPE   C1A 1623  14.375   6.920  14.164 -0.2539 -0.0385 -0.0242
  139DOPE   D2A 1624  14.565   7.345  14.099 -0.0201  0.3282 -0.0701
  139DOPE   C3A 1625  14.571   7.656  13.765 -0.0555  0.2452  0.2599
  139DOPE   C4A 1626  14.680   7.979  13.506  0.1207 -0.2326  0.1872
  139DOPE   C1B 1627  13.903   6.501  13.538  0.1776  0.0283  0.2500
  139DOPE   D2B 1628  13.899   6.563  13.081  0.3891 -0.2441  0.1944
  139DOPE   C3B 1629  14.337   6.525  12.850 -0.0451 -0.1717  0.3680
  139DOPE   C4B 1630  14.677   6.195  12.800 -0.1072 -0.1010  0.0689
  140DOPS   CNO 1631   2.706   5.368  13.944 -0.1447 -0.2201  0.1195
  140DOPS   PO4 1632   2.952   5.102  13.930  0.1096  0.1539 -0.0874
  140DOPS   GL1 1633   3.088   5.296  13.573  0.1468  0.0243 -0.1052
  140DOPS   GL2 1634   3.373   5.295  13.627  0.0445 -0.4450  0.3094
  140DOPS   C1A 1635   2.992   5.435  13.142  0.1972  0.2361 -0.2050
  140DOPS   D2A 1636   3.074   5.716  12.784 -0.1678  0.1173 -0.2310
  140DOPS   C3A 1637   3.089   5.614  12.344 -0.1902 -0.1628 -0.0658
  140DOPS   C4A 1638   3.401   5.429  12.040 -0.0858 -0.2482  0.2312
  140DOPS   C1B 1639   3.435   5.116  13.209  0.0769  0.0877 -0.1102
  140DOPS   D2B 1640   3.230   5.211  12.797  0.2307  0.2094  0.0451
  140DOPS   C3B 1641   3.493   5.577  12.623 -0.2358  0.0217 -0.0201
  140DOPS   C4B 1642   3.559   5.835  12.255  0.0654 -0.1758  0.0671
  141POSM   NC3 1643   7.110   6.716  14.044 -0.4410  0.1842 -0.1561
  141POSM   PO4 1644   6.766   6.927  14.107 -0.3015  0.0834 -0.1549
  141POSM   AM1 1645   6.810   7.078  13.839  0.1448  0.0174 -0.2085
  141POSM   AM2 1646   6.957   7.281  13.679 -0.3381  0.0023 -0.2443
  141POSM   T1A 1647   6.684   7.097  13.360 -0.2985  0.1642 -0.0285
  141POSM   C2A 1648   6.390   6.946  13.002 -0.1207 -0.0124 -0.0398
  141POSM   C3A 1649   6.233   6.646  12.698 -0.0823 -0.1579  0.1681
  141POSM   C1B 1650   6.985   7.516  13.488 -0.3493 -0.2172  0.1450
  141POSM   D2B 1651   7.010   7.795  13.076 -0.0456  0.3565 -0.1160
  141POSM   C3B 1652   6.667   8.058  12.965 -0.1754 -0.2491  0.1562
  141POSM   C4B 1653   6.425   8.065  12.575 -0.0940 -0.2314  0.3651
  142DOPC   NC3 1654   1.544   3.946  13.632  0.0566 -0.0614  0.1101
  142DOPC   PO4 1655   1.449   3.594  13.820 -0.0847 -0.2232 -0.3103
  142DOPC   GL1 1656   1.482   3.536  13.479  0.1663  0.0672 -0.2557
  142DOPC   GL2 1657   1.762   3.388  13.348  0.0140  0.0989  0.0106
  142DOPC   C1A 1658   1.250   3.246  13.205  0.0199  0.3244 -0.0264
  142DOPC   D2A 1659   0.854   3.042  12.977  0.1819 -0.1995  0.0822
  142DOPC   C3A 1660   0.686   3.166  12.523 -0.0184 -0.1648  0.1669
  142DOPC   C4A 1661   0.522   3.470  12.256 -0.0248  0.1110  0.0642
  142DOPC   C1B 1662   1.684   3.653  12.981  0.3027 -0.0990  0.0415
  142DOPC   D2B 1663   1.443   3.901  12.678 -0.0557 -0.2365  0.2509
  142DOPC   C3B 1664   1.552   3.487  12.518 -0.0282 -0.2344  0.1658
  142DOPC   C4B 1665   1.227   3.145  12.638  0.2017  0.1034 -0.3345
  143DOPC   NC3 1666   4.295   0.582  13.774 -0.0490 -0.0559 -0.1796
  143DOPC   PO4 1667   4.459   0.345  13.494  0.0823 -0.2399  0.0775
  143DOPC   GL1 1668   4.659   0.562  13.228 -0.2874 -0.1117  0.0195
  143DOPC   GL2 1669   4.890   0.672  13.197  0.1572 -0.0485 -0.2933
  143DOPC   C1A 1670   4.746   0.283  12.905 -0.2553  0.0284  0.1084
  143DOPC   D2A 1671   4.844   0.026  12.593  0.2520 -0.1028  0.0217
  143DOPC   C3A 1672   4.963  -0.242  12.201  0.0951 -0.1543  0.0804
  143DOPC   C4A 1673   4.765  -0.107  11.797 -0.4873 -0.2861 -0.0371
  143DOPC   C1B 1674   5.120   0.933  12.949 -0.0041  0.0876 -0.0685
  143DOPC   D2B 1675   5.017   1.304  12.717  0.1891 -0.0268 -0.2678
  143DOPC   C3B 1676   5.245   1.596  12.410  0.2385  0.1241 -0.0602
  143DOPC   C4B 1677   5.435   1.422  12.082 -0.1626  0.0498  0.2855
  144DOPS   CNO 1678   3.421  33.021  13.626  0.3163 -0.0797  0.2269
  144DOPS   PO4 1679   3.381  33.392  13.612 -0.4865  0.1677 -0.0395
  144DOPS   GL1 1680   3.272  33.391  13.258  0.2931 -0.1392 -0.0255
  144DOPS   GL2 1681   3.020  33.553  13.293 -0.0130 -0.0517 -0.1666
  144DOPS   C1A 1682   3.463  33.336  12.805  0.0341 -0.4050  0.1193
  144DOPS   D2A 1683   3.595  33.233  12.423  0.0530  0.3722 -0.1642
  144DOPS   C3A 1684   3.304  33.124  12.100 -0.1065 -0.3633  0.2449
  144DOPS   C4A 1685   2.938  33.023  11.897 -0.1148 -0.3235  0.2504
  144DOPS   C1B 1686   2.869  33.631  12.893 -0.1294 -0.0993  0.1344
  144DOPS   D2B 1687   2.556  33.651  12.561 -0.2002 -0.4858  0.0676
  144DOPS   C3B 1688   2.390  33.258  12.347 -0.1643 -0.0063  0.1722
  144DOPS   C4B 1689   2.353  32.934  12.034  0.1729  0.1531  0.0267
  145DOPC   NC3 1690   9.493  10.314  15.095  0.0205  0.4285 -0.0434
  145DOPC   PO4 1691   9.479  10.699  14.951  0.3129 -0.3475 -0.1455
  145DOPC   GL1 1692   9.667  10.635  14.595  0.2803 -0.3672  0.0651
  145DOPC   GL2 1693   9.488  10.829  14.391  0.1306  0.1560  0.1210
  145DOPC   C1A 1694   9.925  10.889  14.262  0.3346  0.0937 -0.0567
  145DOPC   D2A 1695  10.071  11.100  13.841  0.0372  0.0075  0.0518
  145DOPC   C3A 1696  10.272  10.924  13.485 -0.1169 -0.4115  0.0396
  145DOPC   C4A 1697  10.148  10.804  13.062 -0.1579 -0.2806 -0.1803
  145DOPC   C1B 1698   9.596  10.943  13.946  0.0721  0.0986 -0.2002
  145DOPC   D2B 1699   9.682  10.988  13.492  0.0217  0.0424 -0.1103
  145DOPC   C3B 1700   9.680  10.695  13.152  0.1131  0.0534  0.1515
  145DOPC   C4B 1701   9.544  10.367  12.882 -0.2512 -0.1059 -0.2750
  146POSM   NC3 1702   9.720   2.976  14.226 -0.2625 -0.1071 -0.0401
  146POSM   PO4 1703   9.414   3.042  14.487  0.1930 -0.0299  0.0664
  146POSM   AM1 1704   9.262   3.029  14.175  0.0416 -0.0144  0.1772
  146POSM   AM2 1705   9.026   2.915  14.074  0.4264  0.0680  0.1051
  146POSM   T1A 1706   9.101   3.264  13.777  0.0709  0.1911 -0.0984
  146POSM   C2A 1707   8.915   3.560  13.423 -0.2619 -0.0765  0.2295
  146POSM   C3A 1708   8.798   3.784  13.080  0.2050 -0.1873 -0.0144
  146POSM   C1B 1709   9.080   2.745  13.781 -0.2020  0.1022 -0.1660
  146POSM   D2B 1710   9.047   2.807  13.322  0.2767  0.0535  0.0241
  146POSM   C3B 1711   8.900   3.170  13.074  0.1784  0.2961 -0.1714
  146POSM   C4B 1712   8.927   3.420  12.621 -0.1983 -0.1970 -0.1021
  147DOPC   NC3 1713   6.975  33.172  14.196  0.1023  0.1657 -0.0362
  147DOPC   PO4 1714   7.142  33.288  13.872  0.1058 -0.0491  0.0772
  147DOPC   GL1 1715   7.164  33.537  13.456 -0.0000  0.0472  0.2845
  147DOPC   GL2 1716   7.116  33.807  13.499 -0.5811  0.1056  0.0247
  147DOPC   C1A 1717   7.378  33.461  13.055  0.1647 -0.1923  0.0678
  147DOPC   D2A 1718   7.484  33.105  12.746  0.1379  0.0794 -0.0123
  147DOPC   C3A 1719   7.479  33.228  12.331  0.0350  0.1575  0.1056
  147DOPC   C4A 1720   7.653  33.336  11.968 -0.1977  0.2385  0.0343
  147DOPC   C1B 1721   7.192  34.133  13.180  0.0491 -0.1790  0.0467
  147DOPC   D2B 1722   7.143  34.612  13.073  0.1734 -0.0870  0.0136
  147DOPC   C3B 1723   7.180  34.662  12.641 -0.3743 -0.1037  0.1976
  147DOPC   C4B 1724   6.849  34.603  12.333 -0.1023  0.0067  0.2304
  148DOPC   NC3 1725   8.647  32.356  14.238  0.0757 -0.3498 -0.0158
  148DOPC   PO4 1726   8.965  32.077  14.172  0.3138 -0.0095 -0.4408
  148DOPC   GL1 1727   8.926  32.242  13.817  0.2493  0.0628  0.2671
  148DOPC   GL2 1728   9.008  32.494  13.752  0.0231 -0.0578  0.0756
  148DOPC   C1A 1729   8.998  32.078  13.408 -0.0934 -0.3106 -0.1330
  148DOPC   D2A 1730   9.068  32.336  12.971  0.3233 -0.1603 -0.2858
  148DOPC   C3A 1731   9.065  32.507  12.574  0.1471 -0.1375  0.1913
  148DOPC   C4A 1732   9.383  32.714  12.268 -0.1269 -0.0491  0.2798
  148DOPC   C1B 1733   9.113  32.634  13.333  0.1331  0.0567 -0.0007
  148DOPC   D2B 1734   9.145  32.884  12.901 -0.2273 -0.1537 -0.0562
  148DOPC   C3B 1735   9.056  32.970  12.496 -0.2751  0.0613 -0.0051
  148DOPC   C4B 1736   8.932  33.388  12.370 -0.0984  0.2336 -0.0465
  149DOPE   NH3 1737   7.885  31.724  13.518  0.3811  0.4360  0.2972
  149DOPE   PO4 1738   8.214  31.663  13.539 -0.1242 -0.0524 -0.1657
  149DOPE   GL1 1739   8.210  32.024  13.246  0.1544 -0.0714  0.4475
  149DOPE   GL2 1740   7.980  31.903  13.014  0.0061  0.0567  0.0508
  149DOPE   C1A 1741   8.569  32.192  13.061  0.3501 -0.2140  0.0184
  149DOPE   D2A 1742   8.682  32.172  12.654  0.2798 -0.0497 -0.0988
  149DOPE   C3A 1743   8.706  32.129  12.175  0.0066  0.1126 -0.2271
  149DOPE   C4A 1744   8.559  32.365  11.815  0.2329  0.0834 -0.0864
  149DOPE   C1B 1745   7.697  31.773  12.630 -0.0907 -0.0292  0.2677
  149DOPE   D2B 1746   7.276  31.860  12.413  0.0409  0.0242  0.1304
  149DOPE   C3B 1747   6.992  31.929  12.061 -0.1289 -0.1620  0.0905
  149DOPE   C4B 1748   6.898  31.975  11.558  0.0518 -0.2790 -0.0980
  150POSM   NC3 1749  12.371   0.740  14.177  0.2330  0.0576 -0.0232
  150POSM   PO4 1750  12.296   1.122  14.002  0.1273  0.0274  0.2098
  150POSM   AM1 1751  12.540   0.990  13.800  0.2928 -0.0331 -0.1579
  150POSM   AM2 1752  12.540   0.684  13.730 -0.0796  0.2981  0.3648
  150POSM   T1A 1753  12.908   0.978  13.448  0.0965  0.1170  0.0627
  150POSM   C2A 1754  13.364   0.751  13.358  0.2500  0.0882  0.5630
  150POSM   C3A 1755  13.534   0.404  13.099 -0.3036 -0.0675  0.4101
  150POSM   C1B 1756  12.457   0.713  13.415  0.0325 -0.2397  0.1146
  150POSM   D2B 1757  12.483   0.769  12.956 -0.2992 -0.1409 -0.1998
  150POSM   C3B 1758  12.569   0.489  12.592  0.0118 -0.4163 -0.3318
  150POSM   C4B 1759  12.880   0.238  12.420  0.2254 -0.1863  0.0296
  151POSM   NC3 1760   5.334   6.268  14.554 -0.1130  0.0138  0.2838
  151POSM   PO4 1761   5.541   6.526  14.365  0.1659 -0.2487  0.0455
  151POSM   AM1 1762   5.653   6.596  14.076  0.1033  0.0493 -0.0912
  151POSM   AM2 1763   5.832   6.427  13.905  0.0158 -0.0685 -0.2545
  151POSM   T1A 1764   5.497   6.583  13.578 -0.0870  0.1762  0.2206
  151POSM   C2A 1765   5.379   6.705  13.184 -0.0178 -0.2408  0.2240
  151POSM   C3A 1766   5.225   6.933  12.812 -0.2053  0.0218 -0.1709
  151POSM   C1B 1767   6.020   6.386  13.624  0.1339 -0.0886  0.2802
  151POSM   D2B 1768   6.225   6.451  13.226 -0.2191  0.2385  0.1380
  151POSM   C3B 1769   6.639   6.499  13.168 -0.1529  0.0188  0.2995
  151POSM   C4B 1770   6.976   6.769  12.924 -0.2266 -0.0326  0.1232
  152DOPE   NH3 1771   1.732   0.157  13.726 -0.0028 -0.2421  0.0560
  152DOPE   PO4 1772   1.966   0.371  13.598  0.1277 -0.0284  0.0525
  152DOPE   GL1 1773   1.768   0.269  13.280  0.1265  0.0682  0.1501
  152DOPE   GL2 1774   1.976   0.067  13.188 -0.0871 -0.1961 -0.1742
  152DOPE   C1A 1775   1.657   0.460  12.889  0.2959  0.2842  0.0041
  152DOPE   D2A 1776   1.958   0.809  12.714  0.2348  0.2557  0.3098
  152DOPE   C3A 1777   2.288   1.030  12.477 -0.1053  0.0090  0.0026
  152DOPE   C4A 1778   2.438   1.210  12.053 -0.0658  0.3617 -0.0571
  152DOPE   C1B 1779   2.053   0.199  12.766 -0.0333  0.1855 -0.0949
  152DOPE   D2B 1780   1.851   0.386  12.394 -0.4569 -0.0603  0.0291
  152DOPE   C3B 1781   2.126   0.671  12.165  0.0196 -0.0213  0.2131
  152DOPE   C4B 1782   2.358   0.786  11.820  0.0753 -0.1030 -0.0927
  153POSM   NC3 1783  33.682  34.026  13.449 -0.0832 -0.1218  0.0086
  153POSM   PO4 1784  34.058  34.107  13.438 -0.1417  0.3358 -0.1101
  153POSM   AM1 1785  34.111  34.017  13.143  0.0001 -0.0512  0.0256
  153POSM   AM2 1786  33.943  33.830  12.956 -0.3344 -0.0997 -0.0959
  153POSM   T1A 1787  34.138  34.229  12.693  0.1023  0.1785  0.2848
  153POSM   C2A 1788  34.188  34.116  12.265  0.0292 -0.1746 -0.2043
  153POSM   C3A 1789  34.345  33.890  11.884 -0.0481  0.2016  0.2564
  153POSM   C1B 1790  33.996  33.760  12.612 -0.0009  0.1141  0.0254
  153POSM   D2B 1791  34.188  33.615  12.229  0.1187  0.1189  0.1541
  153POSM   C3B 1792  34.201  33.262  11.984  0.1134 -0.0001  0.1039
  153POSM   C4B 1793  34.273  32.821  12.148 -0.0471 -0.0059  0.1375
  154DOPE   NH3 1794   5.422   8.295  14.714 -0.1411  0.1955 -0.0240
  154DOPE   PO4 1795   5.675   8.166  14.544 -0.1626 -0.1375  0.1317
  154DOPE   GL1 1796   5.550   8.221  14.199  0.0767  0.0721 -0.0019
  154DOPE   GL2 1797   5.617   8.001  14.006  0.0998  0.0362 -0.0021
  154DOPE   C1A 1798   5.518   8.422  13.802  0.3031 -0.1211 -0.2951
  154DOPE   D2A 1799   5.379   8.652  13.404  0.1744 -0.1146 -0.1564
  154DOPE   C3A 1800   5.456   8.431  12.969  0.0401  0.2944  0.1044
  154DOPE   C4A 1801   5.578   8.520  12.606 -0.4009 -0.0638 -0.0256
  154DOPE   C1B 1802   5.735   7.692  13.634  0.3302 -0.0052 -0.0009
  154DOPE   D2B 1803   6.129   7.676  13.410 -0.1163  0.0653  0.1586
  154DOPE   C3B 1804   6.069   7.365  13.006  0.0105  0.1106  0.1919
  154DOPE   C4B 1805   5.825   7.102  12.657  0.2202  0.1164 -0.1189
  155POSM   NC3 1806   3.681   2.570  13.469  0.4415 -0.1191  0.0324
  155POSM   PO4 1807   3.496   2.881  13.543  0.1553  0.1329 -0.1338
  155POSM   AM1 1808   3.394   2.872  13.228  0.2384 -0.1438 -0.1246
  155POSM   AM2 1809   3.177   2.845  13.009 -0.3303 -0.0984  0.2444
  155POSM   T1A 1810   3.657   2.781  12.808 -0.1218 -0.1416  0.3692
  155POSM   C2A 1811   3.804   2.595  12.397  0.0494 -0.0161 -0.1866
  155POSM   C3A 1812   3.945   2.599  11.970  0.3319  0.0154 -0.2018
  155POSM   C1B 1813   3.107   2.999  12.732  0.0751  0.2226  0.0489
  155POSM   D2B 1814   2.943   3.079  12.286  0.1674  0.3265  0.3622
  155POSM   C3B 1815   2.716   2.899  11.997  0.3020  0.0776  0.2531
  155POSM   C4B 1816   2.740   2.844  11.487 -0.1976 -0.0157  0.0570
  156DOPS   CNO 1817  13.315   0.655  14.351 -0.0940 -0.1679  0.1983
  156DOPS   PO4 1818  13.253   0.434  14.663 -0.2578 -0.1488  0.2653
  156DOPS   GL1 1819  13.370   0.156  14.321  0.0150 -0.2197  0.4755
  156DOPS   GL2 1820  13.286   0.243  14.030 -0.1560  0.0843 -0.0289
  156DOPS   C1A 1821  13.748   0.027  14.043 -0.1139 -0.1020  0.1003
  156DOPS   D2A 1822  14.115   0.190  13.780  0.1120  0.0308  0.0094
  156DOPS   C3A 1823  14.441  -0.054  13.542  0.0164  0.1769 -0.1667
  156DOPS   C4A 1824  14.769  -0.307  13.439 -0.2414 -0.0910  0.0325
  156DOPS   C1B 1825  13.514   0.225  13.634 -0.4169  0.0022 -0.1216
  156DOPS   D2B 1826  13.751   0.043  13.380  0.0319  0.3191 -0.2631
  156DOPS   C3B 1827  13.998   0.150  13.035 -0.2742  0.0182  0.2054
  156DOPS   C4B 1828  14.266   0.331  12.787 -0.0587  0.3657  0.1834
  157DOPC   NC3 1829   7.011   9.767  14.140  0.4773  0.2420  0.0241
  157DOPC   PO4 1830   7.398   9.900  14.096  0.2456  0.0109 -0.0278
  157DOPC   GL1 1831   7.249   9.830  13.687  0.1114 -0.4171  0.1417
  157DOPC   GL2 1832   7.205  10.029  13.509 -0.1966  0.2545  0.1819
  157DOPC   C1A 1833   7.495   9.662  13.359 -0.0566 -0.2654  0.0666
  157DOPC   D2A 1834   7.386   9.380  12.985 -0.1502  0.0016 -0.2567
  157DOPC   C3A 1835   7.440   9.048  12.705 -0.1055  0.1318  0.2023
  157DOPC   C4A 1836   7.149   8.698  12.529  0.0242 -0.2521  0.1357
  157DOPC   C1B 1837   6.888  10.328  13.587 -0.1159 -0.1981  0.2396
  157DOPC   D2B 1838   6.549  10.567  13.556 -0.2669 -0.0748  0.2102
  157DOPC   C3B 1839   6.440  10.807  13.120  0.2614  0.3972  0.0063
  157DOPC   C4B 1840   6.214  11.096  12.924  0.0690 -0.0237  0.1022
  158DOPS   CNO 1841   2.091   8.315  14.029 -0.1015 -0.1766  0.1010
  158DOPS   PO4 1842   1.951   8.179  13.721  0.0246  0.0199 -0.0327
  158DOPS   GL1 1843   1.889   8.484  13.354  0.0746  0.3106 -0.5363
  158DOPS   GL2 1844   1.810   8.210  13.232  0.1679 -0.1167  0.2159
  158DOPS   C1A 1845   1.539   8.651  13.143  0.0469 -0.1646 -0.3532
  158DOPS   D2A 1846   1.174   8.888  13.093 -0.0451  0.0383 -0.1402
  158DOPS   C3A 1847   1.046   9.019  12.725 -0.2186  0.0115  0.0076
  158DOPS   C4A 1848   0.965   9.346  12.408 -0.1131 -0.2917 -0.1494
  158DOPS   C1B 1849   1.688   7.808  13.004 -0.1203 -0.1896  0.0486
  158DOPS   D2B 1850   1.282   7.557  12.899 -0.2705 -0.2114 -0.0129
  158DOPS   C3B 1851   1.175   7.430  12.440 -0.2138  0.2994 -0.1049
  158DOPS   C4B 1852   0.879   7.256  12.085 -0.0174 -0.2776 -0.0655
  159DOPE   NH3 1853   9.486   9.692  14.899 -0.2591  0.2633  0.0565
  159DOPE   PO4 1854   9.509   9.980  14.809  0.0592 -0.1083  0.0717
  159DOPE   GL1 1855   9.638   9.965  14.446 -0.2678  0.1367 -0.1185
  159DOPE   GL2 1856   9.678   9.834  14.209 -0.0512 -0.0580 -0.0350
  159DOPE   C1A 1857  10.076  10.121  14.372 -0.0098  0.0752 -0.2005
  159DOPE   D2A 1858  10.498  10.123  14.553  0.1745 -0.1199 -0.0576
  159DOPE   C3A 1859  10.493   9.639  14.638  0.2323 -0.1910 -0.1541
  159DOPE   C4A 1860  10.496   9.187  14.735 -0.1939 -0.0911  0.0053
  159DOPE   C1B 1861   9.912  10.000  13.830  0.1726  0.0064  0.1736
  159DOPE   D2B 1862  10.260  10.114  13.573 -0.0630 -0.1445  0.1545
  159DOPE   C3B 1863  10.339   9.871  13.218 -0.1690  0.1328 -0.0784
  159DOPE   C4B 1864  10.736   9.611  13.174 -0.1022 -0.3037  0.0089
  160DOPC   NC3 1865   4.474   4.052  13.893 -0.1057 -0.0752 -0.1786
  160DOPC   PO4 1866   4.120   3.918  13.892  0.2350  0.3585  0.0319
  160DOPC   GL1 1867   4.118   4.118  13.602 -0.2515  0.1512  0.0638
  160DOPC   GL2 1868   3.848   4.285  13.631  0.0875 -0.0563 -0.0581
  160DOPC   C1A 1869   4.230   4.208  13.132 -0.1148  0.1696 -0.0866
  160DOPC   D2A 1870   4.366   4.361  12.675  0.0219  0.1891  0.1134
  160DOPC   C3A 1871   4.772   4.317  12.410 -0.0689  0.0699 -0.0720
  160DOPC   C4A 1872   5.170   4.152  12.242  0.1041 -0.0855  0.2278
  160DOPC   C1B 1873   4.110   4.601  13.432  0.2632 -0.0759 -0.0038
  160DOPC   D2B 1874   4.441   4.723  13.107 -0.0724 -0.2829  0.2299
  160DOPC   C3B 1875   4.351   4.991  12.745  0.0215  0.3073 -0.2226
  160DOPC   C4B 1876   4.350   5.310  12.423 -0.0579  0.0856 -0.0487
  161DOPS   CNO 1877   1.455   2.361  13.875 -0.1120 -0.0551 -0.0082
  161DOPS   PO4 1878   1.343   2.718  13.763 -0.1152  0.0196 -0.1464
  161DOPS   GL1 1879   1.417   2.772  13.405 -0.1008 -0.0947 -0.1046
  161DOPS   GL2 1880   1.684   2.858  13.324 -0.1043 -0.1047  0.1638
  161DOPS   C1A 1881   1.272   2.781  12.958 -0.1193 -0.0939  0.0157
  161DOPS   D2A 1882   1.099   2.504  12.695  0.0306 -0.0077 -0.0845
  161DOPS   C3A 1883   1.078   2.780  12.333 -0.0106 -0.1996 -0.2467
  161DOPS   C4A 1884   1.025   3.167  12.058 -0.0098 -0.1535  0.0082
  161DOPS   C1B 1885   1.721   3.159  12.935 -0.0391  0.3281 -0.0665
  161DOPS   D2B 1886   1.974   3.289  12.588  0.0444  0.2277  0.0458
  161DOPS   C3B 1887   1.995   3.715  12.527  0.1881 -0.1119  0.5068
  161DOPS   C4B 1888   1.697   3.906  12.217 -0.1907 -0.0243 -0.0419
  162DOPC   NC3 1889   2.940   1.840  13.156  0.2080  0.1310 -0.1375
  162DOPC   PO4 1890   3.159   2.158  13.221  0.0937  0.0317  0.1911
  162DOPC   GL1 1891   3.373   2.356  12.919 -0.0084  0.1033 -0.2440
  162DOPC   GL2 1892   3.241   2.094  12.732  0.0545 -0.1325  0.0130
  162DOPC   C1A 1893   3.345   2.576  12.496 -0.0760  0.0568 -0.1022
  162DOPC   D2A 1894   3.471   2.807  12.119  0.0106  0.0715  0.0665
  162DOPC   C3A 1895   3.814   3.053  12.169 -0.0250 -0.0400 -0.1992
  162DOPC   C4A 1896   4.223   2.994  12.164  0.1931  0.1015 -0.2838
  162DOPC   C1B 1897   3.538   2.066  12.389 -0.0853 -0.2169  0.0178
  162DOPC   D2B 1898   3.445   2.214  11.922  0.0713  0.0739  0.1894
  162DOPC   C3B 1899   3.464   1.949  11.527 -0.1491 -0.0409 -0.2151
  162DOPC   C4B 1900   3.654   1.658  11.217  0.1705 -0.2465 -0.1195
  163DOPE   NH3 1901  11.589   8.698  15.062 -0.0884 -0.1477 -0.1306
  163DOPE   PO4 1902  11.695   8.395  15.072 -0.2725  0.0341 -0.0630
  163DOPE   GL1 1903  11.929   8.270  14.719  0.0000 -0.4306  0.2327
  163DOPE   GL2 1904  11.829   7.967  14.635  0.0111 -0.2160 -0.1569
  163DOPE   C1A 1905  11.741   8.423  14.322  0.2773 -0.3373 -0.2767
  163DOPE   D2A 1906  11.806   8.689  13.920 -0.2395 -0.2285  0.0755
  163DOPE   C3A 1907  11.750   9.003  13.594 -0.1170 -0.0856 -0.0116
  163DOPE   C4A 1908  11.474   9.086  13.306  0.0898  0.0765 -0.0871
  163DOPE   C1B 1909  12.123   8.128  14.332  0.0447  0.1368 -0.1801
  163DOPE   D2B 1910  12.112   8.233  13.862 -0.1394  0.0336  0.1348
  163DOPE   C3B 1911  11.938   8.264  13.474 -0.0570  0.1056  0.0589
  163DOPE   C4B 1912  11.569   8.553  13.321 -0.0593  0.0457 -0.0726
  164POSM   NC3 1913   5.272   5.363  14.313  0.1645 -0.1544 -0.1002
  164POSM   PO4 1914   5.332   5.731  14.209  0.0974  0.0719 -0.2391
  164POSM   AM1 1915   5.544   5.751  13.959 -0.0737  0.1459  0.1638
  164POSM   AM2 1916   5.824   5.705  13.830 -0.0168  0.1918 -0.0532
  164POSM   T1A 1917   5.564   6.074  13.582 -0.2535  0.0226  0.0913
  164POSM   C2A 1918   5.826   6.179  13.238 -0.2729 -0.2312 -0.0091
  164POSM   C3A 1919   5.890   6.136  12.834  0.1585  0.2033  0.2070
  164POSM   C1B 1920   6.045   5.783  13.584 -0.1650  0.0612 -0.0001
  164POSM   D2B 1921   6.262   5.622  13.224 -0.2130 -0.0293 -0.2554
  164POSM   C3B 1922   6.354   6.039  12.977 -0.3933 -0.0462  0.0556
  164POSM   C4B 1923   6.618   6.304  12.688 -0.0725 -0.1317 -0.0284
  165DOPE   NH3 1924   8.637   8.573  14.636  0.0206  0.1196  0.0779
  165DOPE   PO4 1925   8.615   8.776  14.393  0.1685 -0.0316 -0.0542
  165DOPE   GL1 1926   8.748   8.757  14.108 -0.1514 -0.1521 -0.3076
  165DOPE   GL2 1927   8.850   9.012  13.926  0.2268  0.2130  0.6500
  165DOPE   C1A 1928   8.592   8.577  13.710  0.0601  0.1975  0.4600
  165DOPE   D2A 1929   8.444   8.637  13.306 -0.0957  0.3886 -0.1601
  165DOPE   C3A 1930   8.160   8.857  13.064 -0.1291  0.2129 -0.0338
  165DOPE   C4A 1931   7.826   9.044  12.994  0.0301  0.1380  0.0929
  165DOPE   C1B 1932   8.810   9.025  13.447  0.0412 -0.0046 -0.0003
  165DOPE   D2B 1933   9.184   8.854  13.154  0.0986  0.2159 -0.0849
  165DOPE   C3B 1934   9.005   8.802  12.747 -0.2652  0.0486 -0.1312
  165DOPE   C4B 1935   9.038   8.866  12.288 -0.1786  0.1983 -0.2022
  166POSM   NC3 1936   7.369   8.956  14.013  0.2067  0.4694  0.1848
  166POSM   PO4 1937   7.683   8.879  14.235  0.2745 -0.0772 -0.1833
  166POSM   AM1 1938   7.795   8.789  13.961  0.2735 -0.3529 -0.1067
  166POSM   AM2 1939   7.732   8.781  13.693 -0.2492 -0.0937  0.3439
  166POSM   T1A 1940   8.070   8.454  13.741 -0.3277  0.0234 -0.1190
  166POSM   C2A 1941   8.335   8.142  13.602  0.2186  0.1003  0.0678
  166POSM   C3A 1942   8.805   8.107  13.627 -0.0081 -0.0659 -0.1736
  166POSM   C1B 1943   7.746   8.674  13.342  0.1655 -0.2698  0.3127
  166POSM   D2B 1944   7.781   8.541  12.861 -0.2985 -0.1324 -0.1072
  166POSM   C3B 1945   8.112   8.497  12.556 -0.0920  0.0393 -0.0747
  166POSM   C4B 1946   8.179   8.022  12.552  0.0144 -0.0620  0.1949
  167DOPC   NC3 1947  10.131   6.227  14.086  0.0405  0.0716 -0.2484
  167DOPC   PO4 1948  10.422   6.047  14.309 -0.0796  0.1982  0.1721
  167DOPC   GL1 1949  10.637   6.018  13.959 -0.3130 -0.1663  0.3981
  167DOPC   GL2 1950  10.816   5.771  14.013  0.0862 -0.0730 -0.1945
  167DOPC   C1A 1951  10.735   5.907  13.501 -0.0048  0.1244 -0.1589
  167DOPC   D2A 1952  10.710   6.085  13.077 -0.0759  0.1222  0.0328
  167DOPC   C3A 1953  10.370   6.066  12.756 -0.2424  0.1030  0.1258
  167DOPC   C4A 1954  10.288   5.985  12.301  0.0630 -0.2104 -0.0055
  167DOPC   C1B 1955  10.610   5.437  13.729 -0.1933 -0.4690 -0.0653
  167DOPC   D2B 1956  10.668   5.238  13.316  0.3030  0.0009 -0.2432
  167DOPC   C3B 1957  10.289   5.057  13.085  0.1278  0.2247 -0.1108
  167DOPC   C4B 1958  10.112   4.729  12.830 -0.1985  0.0824 -0.0610
  168DOPE   NH3 1959   5.665  11.880  14.568  0.3227  0.1589  0.1248
  168DOPE   PO4 1960   5.646  12.004  14.282  0.1017  0.0940  0.0789
  168DOPE   GL1 1961   5.814  11.964  14.051 -0.0608  0.4277  0.0239
  168DOPE   GL2 1962   5.863  12.222  13.889  0.0591  0.0295 -0.2874
  168DOPE   C1A 1963   5.685  11.902  13.593 -0.0824 -0.0977  0.0102
  168DOPE   D2A 1964   5.584  11.734  13.205  0.1083  0.0754 -0.2783
  168DOPE   C3A 1965   5.201  11.704  13.029 -0.0731  0.2791 -0.2456
  168DOPE   C4A 1966   5.096  11.562  12.558  0.0508 -0.1814 -0.1238
  168DOPE   C1B 1967   6.160  12.147  13.569  0.1822 -0.1078  0.2601
  168DOPE   D2B 1968   6.520  11.919  13.323 -0.1552 -0.0483 -0.0381
  168DOPE   C3B 1969   6.413  11.626  13.023 -0.2512 -0.2021 -0.2545
  168DOPE   C4B 1970   6.400  11.404  12.657 -0.1679  0.0304  0.0287
  169POSM   NC3 1971   8.824  34.308  14.252 -0.0529  0.0056  0.0432
  169POSM   PO4 1972   8.443  34.385  14.164  0.0094  0.3840  0.0028
  169POSM   AM1 1973   8.501  34.292  13.887  0.0669  0.2170  0.5526
  169POSM   AM2 1974   8.598  34.016  13.754 -0.3160  0.0065  0.0837
  169POSM   T1A 1975   8.614  34.583  13.503 -0.0629 -0.0797  0.0051
  169POSM   C2A 1976   8.481  34.623  13.099 -0.2504  0.0873  0.0923
  169POSM   C3A 1977   8.527  34.785  12.659  0.0334  0.1281 -0.0849
  169POSM   C1B 1978   8.566  34.032  13.442  0.1772  0.1680 -0.0014
  169POSM   D2B 1979   8.679  33.848  13.015  0.0335  0.1655  0.3350
  169POSM   C3B 1980   8.967  33.852  12.668 -0.3179  0.1974  0.1018
  169POSM   C4B 1981   9.422  33.767  12.530  0.0670  0.0595  0.0591
  170DOPE   NH3 1982   8.150  10.312  14.676 -0.0768 -0.0669 -0.1747
  170DOPE   PO4 1983   8.179  10.016  14.551 -0.2511 -0.1943 -0.1334
  170DOPE   GL1 1984   8.230  10.103  14.092  0.2635  0.2489 -0.4555
  170DOPE   GL2 1985   8.311  10.397  14.093  0.0169  0.1279  0.2303
  170DOPE   C1A 1986   8.377  10.009  13.655  0.1768 -0.2973 -0.2370
  170DOPE   D2A 1987   8.391  10.251  13.307  0.0576  0.0864  0.1584
  170DOPE   C3A 1988   8.719  10.204  12.967 -0.0499 -0.0050 -0.1791
  170DOPE   C4A 1989   9.049   9.996  12.669  0.0503  0.0425 -0.0613
  170DOPE   C1B 1990   8.569  10.603  13.707 -0.0889 -0.0068 -0.0292
  170DOPE   D2B 1991   8.849  10.596  13.300 -0.2516 -0.2195  0.0699
  170DOPE   C3B 1992   8.615  10.885  12.916 -0.4285  0.0406  0.2179
  170DOPE   C4B 1993   8.587  11.356  13.019 -0.2040 -0.0278 -0.0638
  171DOPE   NH3 1994  34.297  34.475  13.119 -0.1624  0.3743 -0.0340
  171DOPE   PO4 1995  34.371  34.791  13.229 -0.0418  0.0316 -0.5269
  171DOPE   GL1 1996  34.588  34.952  12.953 -0.2765  0.0459  0.1945
  171DOPE   GL2 1997  34.862  35.012  12.947 -0.3526  0.4252 -0.0503
  171DOPE   C1A 1998  34.585  35.219  12.501  0.0652 -0.2219 -0.0463
  171DOPE   D2A 1999  34.587  35.174  12.049  0.1706 -0.2198  0.0489
  171DOPE   C3A 2000  34.232  35.197  11.733 -0.0393  0.0732 -0.1706
  171DOPE   C4A 2001  33.923  35.394  11.418 -0.1909  0.3914 -0.3192
  171DOPE   C1B 2002  34.696  35.465  12.878  0.2257  0.2108 -0.1138
  171DOPE   D2B 2003  34.439  35.723  12.585 -0.1669 -0.0277  0.0125
  171DOPE   C3B 2004  34.153  35.461  12.302  0.0770  0.0260 -0.0631
  171DOPE   C4B 2005  34.093  35.051  12.238 -0.3976  0.1982  0.5032
  172DOPE   NH3 2006   8.528   5.350  14.508 -0.0665  0.0590 -0.4445
  172DOPE   PO4 2007   8.573   5.630  14.649  0.0586 -0.0263  0.3300
  172DOPE   GL1 2008   8.572   5.917  14.438  0.1435  0.1914 -0.2520
  172DOPE   GL2 2009   8.576   5.792  14.212 -0.0017 -0.3945  0.2883
  172DOPE   C1A 2010   8.845   6.206  14.110 -0.1007  0.1642  0.2801
  172DOPE   D2A 2011   8.826   6.245  13.670 -0.1139  0.2138 -0.1721
  172DOPE   C3A 2012   8.590   6.609  13.475 -0.0490 -0.0422  0.0166
  172DOPE   C4A 2013   8.528   6.837  13.098  0.2122  0.0269  0.1049
  172DOPE   C1B 2014   8.702   5.749  13.843 -0.0483  0.0723  0.0478
  172DOPE   D2B 2015   8.796   5.757  13.423 -0.0960  0.1776  0.0088
  172DOPE   C3B 2016   8.596   5.714  13.000 -0.0828  0.0399  0.1551
  172DOPE   C4B 2017   8.691   5.516  12.574 -0.0917 -0.0131 -0.0794
  173DOPE   NH3 2018   0.165  34.590  13.299 -0.0404  0.1635 -0.1677
  173DOPE   PO4 2019   0.048  34.295  13.388  0.1451  0.1220  0.0357
  173DOPE   GL1 2020  -0.004  34.392  12.950 -0.0876 -0.0937 -0.0684
  173DOPE   GL2 2021   0.304  34.402  12.813  0.0725  0.3852  0.0206
  173DOPE   C1A 2022  -0.123  34.216  12.526  0.0759  0.1763  0.0570
  173DOPE   D2A 2023  -0.017  34.244  12.081  0.0477 -0.1783  0.2786
  173DOPE   C3A 2024   0.049  34.054  11.703  0.0219 -0.0871  0.0240
  173DOPE   C4A 2025   0.364  33.998  11.340 -0.0625 -0.1277 -0.0207
  173DOPE   C1B 2026   0.349  34.429  12.363 -0.0051  0.1775  0.1550
  173DOPE   D2B 2027   0.581  34.581  12.009 -0.2605  0.3015 -0.1634
  173DOPE   C3B 2028   0.391  34.523  11.604  0.4121 -0.1731 -0.3115
  173DOPE   C4B 2029   0.170  34.437  11.225  0.0355  0.0876 -0.0424
  174POSM   NC3 2030   9.566   3.480  14.539 -0.1036 -0.0948 -0.2250
  174POSM   PO4 2031   9.806   3.736  14.307  0.1214  0.0782 -0.1101
  174POSM   AM1 2032   9.857   3.762  13.983 -0.0440 -0.4915 -0.0335
  174POSM   AM2 2033   9.648   3.766  13.736  0.0712 -0.2351  0.1994
  174POSM   T1A 2034  10.113   3.740  13.528 -0.3705  0.0650 -0.0898
  174POSM   C2A 2035  10.255   3.635  13.077  0.0883 -0.3674  0.0519
  174POSM   C3A 2036  10.357   3.797  12.664  0.1069  0.0438 -0.0129
  174POSM   C1B 2037   9.481   3.577  13.504  0.2508 -0.1070 -0.3395
  174POSM   D2B 2038   9.277   3.487  13.067 -0.0097  0.0560 -0.3153
  174POSM   C3B 2039   9.510   3.508  12.715 -0.3233 -0.0314 -0.1001
  174POSM   C4B 2040   9.916   3.475  12.713 -0.0024 -0.3988 -0.0521
  175DOPE   NH3 2041  12.545   6.812  14.604  0.2268  0.1676 -0.0362
  175DOPE   PO4 2042  12.780   6.638  14.505  0.0646 -0.2762 -0.0426
  175DOPE   GL1 2043  12.910   6.907  14.148 -0.1793 -0.2289  0.5666
  175DOPE   GL2 2044  12.737   6.723  13.965 -0.1468  0.1205  0.0263
  175DOPE   C1A 2045  13.157   6.927  13.802  0.0208  0.2133  0.1805
  175DOPE   D2A 2046  13.556   6.948  13.576  0.0663 -0.2030 -0.0777
  175DOPE   C3A 2047  13.610   7.000  13.106  0.1929 -0.3065  0.1550
  175DOPE   C4A 2048  13.958   6.945  12.779  0.3273 -0.0227  0.1346
  175DOPE   C1B 2049  12.394   6.479  13.755 -0.2455 -0.1497 -0.1866
  175DOPE   D2B 2050  12.362   6.040  13.548  0.0807 -0.1990  0.3016
  175DOPE   C3B 2051  11.990   6.195  13.334 -0.4070 -0.1802 -0.0040
  175DOPE   C4B 2052  11.714   6.175  13.016  0.0798  0.2844  0.1678
  176DOPE   NH3 2053  10.478  11.519  14.713  0.3536  0.1186  0.1643
  176DOPE   PO4 2054  10.580  11.314  14.960  0.0984  0.0785  0.2212
  176DOPE   GL1 2055  10.608  11.038  14.717 -0.3839  0.0324  0.0366
  176DOPE   GL2 2056  10.435  10.778  14.681 -0.0194  0.0961 -0.2428
  176DOPE   C1A 2057  10.928  10.727  14.560 -0.2026 -0.0812 -0.1494
  176DOPE   D2A 2058  11.298  10.988  14.471  0.0267  0.1996  0.0747
  176DOPE   C3A 2059  11.572  10.991  14.087  0.2642 -0.2677 -0.0937
  176DOPE   C4A 2060  11.905  11.181  13.856  0.1273 -0.0071 -0.1004
  176DOPE   C1B 2061  10.363  10.534  14.253 -0.2686  0.0683  0.1844
  176DOPE   D2B 2062  10.509  10.514  13.838 -0.0005  0.2462 -0.1730
  176DOPE   C3B 2063  10.495  10.495  13.397 -0.0699  0.0500 -0.0896
  176DOPE   C4B 2064  10.568  10.420  12.935 -0.2780 -0.1784 -0.0696
  177POSM   NC3 2065   9.549   4.522  14.559 -0.0863  0.0534 -0.1549
  177POSM   PO4 2066   9.320   4.299  14.333  0.0615  0.4839  0.0327
  177POSM   AM1 2067   9.368   4.401  14.026 -0.0469 -0.2314 -0.1130
  177POSM   AM2 2068   9.299   4.186  13.830 -0.1329 -0.1503  0.2732
  177POSM   T1A 2069   9.198   4.754  13.660  0.3303  0.0834 -0.0460
  177POSM   C2A 2070   8.819   4.908  13.539  0.2065  0.2207 -0.3577
  177POSM   C3A 2071   8.528   5.176  13.711  0.1135  0.1729  0.2892
  177POSM   C1B 2072   9.134   4.251  13.572  0.2575  0.0247  0.0253
  177POSM   D2B 2073   9.037   4.523  13.183  0.2377  0.1166  0.0997
  177POSM   C3B 2074   8.785   4.762  12.865  0.0050 -0.0597  0.1705
  177POSM   C4B 2075   8.768   5.033  12.488  0.2861 -0.2878  0.0042
  178DOPC   NC3 2076   5.613   3.685  14.221  0.1545  0.0346  0.1365
  178DOPC   PO4 2077   5.888   3.706  13.978  0.2335 -0.1718 -0.0674
  178DOPC   GL1 2078   5.986   3.474  13.634 -0.0028  0.1065  0.1130
  178DOPC   GL2 2079   6.279   3.493  13.636  0.1325 -0.0412  0.1799
  178DOPC   C1A 2080   5.934   3.598  13.175 -0.1348 -0.0396  0.0502
  178DOPC   D2A 2081   6.013   3.607  12.702  0.1745 -0.1240  0.0412
  178DOPC   C3A 2082   5.908   3.759  12.275 -0.1496  0.0003  0.1529
  178DOPC   C4A 2083   5.913   3.687  11.819  0.2592  0.2632 -0.0193
  178DOPC   C1B 2084   6.489   3.369  13.221 -0.1069  0.1562  0.1396
  178DOPC   D2B 2085   6.328   3.207  12.823  0.0651 -0.4900 -0.0208
  178DOPC   C3B 2086   6.599   3.000  12.497 -0.0522 -0.2569 -0.2624
  178DOPC   C4B 2087   6.549   3.017  12.008 -0.0037  0.0782  0.1378
  179DOPE   NH3 2088   0.934   1.167  13.358 -0.2202  0.3500 -0.2745
  179DOPE   PO4 2089   1.180   0.948  13.368 -0.4277 -0.1702  0.1347
  179DOPE   GL1 2090   1.175   0.979  13.022  0.1011 -0.1538  0.1111
  179DOPE   GL2 2091   1.469   0.922  12.964  0.1587  0.1860  0.1658
  179DOPE   C1A 2092   1.163   1.275  12.693 -0.2467  0.2125 -0.2033
  179DOPE   D2A 2093   0.951   1.577  12.430 -0.3149 -0.1028  0.0494
  179DOPE   C3A 2094   0.895   1.393  12.007 -0.0834  0.1092 -0.0710
  179DOPE   C4A 2095   0.772   1.422  11.523  0.0414  0.0951 -0.2746
  179DOPE   C1B 2096   1.389   0.859  12.497  0.0489 -0.2864 -0.0075
  179DOPE   D2B 2097   1.255   0.979  12.078  0.1360  0.2238  0.0299
  179DOPE   C3B 2098   1.407   1.478  12.002  0.0891  0.1421 -0.1111
  179DOPE   C4B 2099   1.715   1.677  11.701  0.0902  0.2379 -0.1448
  180DOPC   NC3 2100   9.991   8.429  14.732 -0.0751 -0.0875 -0.0559
  180DOPC   PO4 2101  10.342   8.371  14.968 -0.0704 -0.1547 -0.1729
  180DOPC   GL1 2102  10.448   8.516  14.645 -0.1938  0.0417 -0.0041
  180DOPC   GL2 2103  10.694   8.431  14.495 -0.0731 -0.0832  0.0564
  180DOPC   C1A 2104  10.395   8.711  14.219  0.0977  0.1813  0.2400
  180DOPC   D2A 2105  10.225   8.855  13.821 -0.2349  0.2281 -0.0978
  180DOPC   C3A 2106  10.163   8.674  13.402  0.2878 -0.1254 -0.3379
  180DOPC   C4A 2107  10.290   8.360  13.040 -0.3107  0.1160  0.2471
  180DOPC   C1B 2108  10.669   8.203  14.113 -0.0008 -0.0898 -0.3592
  180DOPC   D2B 2109  10.653   7.895  13.739 -0.0676 -0.1117  0.1950
  180DOPC   C3B 2110  10.303   7.991  13.487  0.1947  0.2389 -0.0310
  180DOPC   C4B 2111   9.894   8.248  13.403 -0.1102  0.2324 -0.1397
  181POSM   NC3 2112   5.898  31.797  13.707 -0.0291  0.0363 -0.0705
  181POSM   PO4 2113   5.772  32.160  13.758 -0.0291  0.0996 -0.1251
  181POSM   AM1 2114   5.785  32.182  13.430  0.1710 -0.0022  0.1392
  181POSM   AM2 2115   5.981  32.225  13.236 -0.1005  0.1165 -0.0041
  181POSM   T1A 2116   5.488  32.068  13.027 -0.2358  0.4236 -0.0686
  181POSM   C2A 2117   5.155  32.099  12.734 -0.0788 -0.2071 -0.1086
  181POSM   C3A 2118   5.129  32.173  12.289 -0.0451 -0.1161  0.2478
  181POSM   C1B 2119   5.894  32.446  12.961 -0.1536 -0.1755 -0.0428
  181POSM   D2B 2120   5.964  32.610  12.520  0.1547 -0.1357 -0.2533
  181POSM   C3B 2121   6.302  32.918  12.377 -0.1217  0.1300 -0.0509
  181POSM   C4B 2122   6.587  33.270  12.286  0.0586 -0.0412  0.1809
  182DOPE   NH3 2123   8.724   2.014  14.468  0.1331  0.0950 -0.2989
  182DOPE   PO4 2124   8.927   1.769  14.311 -0.0956  0.0643  0.1253
  182DOPE   GL1 2125   8.890   1.785  13.908 -0.5284 -0.0860 -0.1114
  182DOPE   GL2 2126   9.207   1.815  13.821 -0.2335  0.0696 -0.0590
  182DOPE   C1A 2127   8.755   1.580  13.506  0.1734 -0.0566 -0.0843
  182DOPE   D2A 2128   8.609   1.346  13.132  0.1707  0.1215  0.1040
  182DOPE   C3A 2129   8.397   1.414  12.741  0.2031 -0.1421 -0.0278
  182DOPE   C4A 2130   8.300   1.803  12.533  0.0729 -0.3762  0.2208
  182DOPE   C1B 2131   9.203   1.881  13.325  0.2519 -0.0716  0.1456
  182DOPE   D2B 2132   9.427   1.795  12.937 -0.0961  0.1893 -0.1366
  182DOPE   C3B 2133   9.879   1.740  13.064 -0.0114 -0.0996  0.0690
  182DOPE   C4B 2134  10.176   1.680  13.416 -0.0904 -0.1625 -0.1274
  183DOPE   NH3 2135  11.565   2.314  13.543 -0.0440 -0.0746  0.2186
  183DOPE   PO4 2136  11.420   2.158  13.792  0.0419  0.1293 -0.0902
  183DOPE   GL1 2137  11.163   2.002  13.563 -0.0866 -0.3536 -0.0668
  183DOPE   GL2 2138  11.070   1.750  13.538  0.1447  0.2315 -0.0267
  183DOPE   C1A 2139  11.191   2.138  13.116  0.2499 -0.0991 -0.3253
  183DOPE   D2A 2140  10.985   2.133  12.754  0.3339  0.1924 -0.0945
  183DOPE   C3A 2141  10.579   2.286  12.592  0.1176  0.2557  0.3683
  183DOPE   C4A 2142  10.074   2.366  12.486  0.1406  0.1022 -0.0130
  183DOPE   C1B 2143  10.650   1.616  13.343 -0.2257  0.0700  0.2832
  183DOPE   D2B 2144  10.430   1.641  12.959 -0.2116 -0.2188 -0.0906
  183DOPE   C3B 2145  10.599   1.727  12.597 -0.0302  0.0837  0.1428
  183DOPE   C4B 2146  10.796   1.659  12.183  0.0658  0.3676  0.0694
  184POSM   NC3 2147   4.196  33.486  13.367  0.1066  0.3089  0.3222
  184POSM   PO4 2148   3.918  33.341  13.615 -0.3446 -0.2919  0.0149
  184POSM   AM1 2149   3.776  33.235  13.359  0.0824  0.0759 -0.4437
  184POSM   AM2 2150   3.816  33.106  13.105 -0.0863  0.1087  0.0842
  184POSM   T1A 2151   3.347  32.975  13.129 -0.0479 -0.2271  0.2642
  184POSM   C2A 2152   2.967  33.133  12.921  0.1419 -0.0944 -0.2647
  184POSM   C3A 2153   2.509  33.225  12.813  0.0205  0.0669 -0.2185
  184POSM   C1B 2154   3.791  32.962  12.827 -0.0928  0.1055 -0.3187
  184POSM   D2B 2155   3.785  32.670  12.433 -0.0555  0.0485  0.1823
  184POSM   C3B 2156   3.756  32.693  11.984  0.0090  0.1617  0.3301
  184POSM   C4B 2157   3.814  32.459  11.595  0.3238 -0.1365 -0.3595
  185DOPS   CNO 2158   8.132   0.490  14.729  0.1660  0.0893  0.1094
  185DOPS   PO4 2159   7.913   0.721  14.530  0.2332  0.0556 -0.1715
  185DOPS   GL1 2160   7.834   0.883  14.091  0.0449  0.3990 -0.0295
  185DOPS   GL2 2161   7.793   0.703  13.823 -0.1818 -0.1186 -0.3168
  185DOPS   C1A 2162   8.234   0.990  13.862  0.0132 -0.2062 -0.2189
  185DOPS   D2A 2163   8.614   1.042  13.569 -0.1247 -0.2454  0.2306
  185DOPS   C3A 2164   8.935   0.884  13.279 -0.0275 -0.0638 -0.2326
  185DOPS   C4A 2165   9.181   0.737  12.833  0.1914  0.1813 -0.3267
  185DOPS   C1B 2166   7.838   1.029  13.439 -0.2364 -0.0887 -0.2567
  185DOPS   D2B 2167   7.970   1.334  13.095 -0.3135 -0.1663 -0.4585
  185DOPS   C3B 2168   7.912   1.412  12.610 -0.4123 -0.1870 -0.0010
  185DOPS   C4B 2169   7.967   1.548  12.211  0.2542 -0.0132  0.0118
  186DOPC   NC3 2170   3.729  12.255  13.741 -0.0798  0.0006  0.4188
  186DOPC   PO4 2171   3.421  12.156  13.936  0.1510 -0.1050  0.0800
  186DOPC   GL1 2172   3.454  11.919  13.607  0.2553  0.2316  0.3175
  186DOPC   GL2 2173   3.221  11.738  13.696  0.2400 -0.1473 -0.2576
  186DOPC   C1A 2174   3.549  12.080  13.216 -0.0613 -0.0893 -0.0311
  186DOPC   D2A 2175   3.426  12.344  12.827 -0.0989  0.0602 -0.1017
  186DOPC   C3A 2176   3.451  12.169  12.451 -0.0987 -0.1410  0.0115
  186DOPC   C4A 2177   3.812  12.010  12.258 -0.0475 -0.0110 -0.1315
  186DOPC   C1B 2178   3.081  11.762  13.252  0.3055  0.0328  0.2899
  186DOPC   D2B 2179   3.096  11.972  12.888 -0.2394 -0.0852 -0.0068
  186DOPC   C3B 2180   3.250  11.672  12.575  0.1275  0.0339  0.0393
  186DOPC   C4B 2181   3.396  11.439  12.303 -0.1397  0.0108  0.0746
  187POSM   NC3 2182   4.747   1.218  13.336 -0.1494  0.0602  0.2082
  187POSM   PO4 2183   4.580   0.967  13.600 -0.2363 -0.1329  0.0845
  187POSM   AM1 2184   4.372   0.893  13.338 -0.1846  0.0110 -0.0519
  187POSM   AM2 2185   4.140   0.759  13.330  0.2586 -0.3832 -0.1246
  187POSM   T1A 2186   4.354   0.639  12.925 -0.2366  0.3656  0.2067
  187POSM   C2A 2187   4.535   0.477  12.488 -0.0973 -0.0092 -0.2427
  187POSM   C3A 2188   4.711   0.228  12.169  0.1140 -0.0085  0.2522
  187POSM   C1B 2189   3.952   0.953  13.097 -0.1684  0.1636 -0.1620
  187POSM   D2B 2190   3.751   1.193  12.781  0.0427  0.0069  0.2440
  187POSM   C3B 2191   4.165   1.282  12.559  0.1272  0.2797  0.1450
  187POSM   C4B 2192   4.559   1.496  12.529  0.0176  0.0188 -0.0144
  188DOPE   NH3 2193   6.297   1.503  14.246 -0.2003 -0.1406 -0.1611
  188DOPE   PO4 2194   6.158   1.782  14.253 -0.5037 -0.0072  0.1932
  188DOPE   GL1 2195   6.372   1.863  13.899  0.1696 -0.4144  0.2964
  188DOPE   GL2 2196   6.283   2.025  13.718  0.1159  0.0637  0.1243
  188DOPE   C1A 2197   6.613   1.628  13.590  0.0280  0.0906  0.0067
  188DOPE   D2A 2198   6.515   1.246  13.371  0.1898 -0.1028 -0.0230
  188DOPE   C3A 2199   6.595   1.030  12.946  0.0402  0.0791 -0.0422
  188DOPE   C4A 2200   6.558   0.975  12.479 -0.0972  0.0158 -0.0575
  188DOPE   C1B 2201   6.235   1.798  13.294  0.4256  0.2853  0.2252
  188DOPE   D2B 2202   6.470   1.530  12.969  0.0271 -0.3017  0.1570
  188DOPE   C3B 2203   6.909   1.438  12.811  0.0698  0.2878  0.0070
  188DOPE   C4B 2204   7.058   1.167  12.444  0.0822 -0.0566  0.0966
  189DOPS   CNO 2205   5.179  33.855  13.750  0.1710  0.1166 -0.1922
  189DOPS   PO4 2206   5.458  33.633  13.599  0.2216 -0.0757 -0.1196
  189DOPS   GL1 2207   5.511  33.744  13.292 -0.0322 -0.3009 -0.1386
  189DOPS   GL2 2208   5.750  33.554  13.169 -0.1838  0.0585  0.1813
  189DOPS   C1A 2209   5.447  33.715  12.829  0.1715  0.0718  0.3799
  189DOPS   D2A 2210   5.530  33.783  12.387  0.2485  0.1803 -0.0560
  189DOPS   C3A 2211   5.797  34.158  12.298 -0.1556 -0.2845 -0.0848
  189DOPS   C4A 2212   5.980  34.447  11.985  0.0204 -0.1194  0.0838
  189DOPS   C1B 2213   5.926  33.726  12.750  0.2238  0.0582 -0.0424
  189DOPS   D2B 2214   6.185  33.552  12.451 -0.1345  0.1919  0.0035
  189DOPS   C3B 2215   6.558  33.793  12.226 -0.2510  0.0298  0.1501
  189DOPS   C4B 2216   6.928  34.004  11.954 -0.0680  0.2538  0.5092
  190DOPS   CNO 2217   5.893   9.957  14.507 -0.5229 -0.3726 -0.1966
  190DOPS   PO4 2218   6.082   9.641  14.458 -0.1297 -0.0272 -0.0381
  190DOPS   GL1 2219   5.931   9.434  14.108  0.0191 -0.1566 -0.0230
  190DOPS   GL2 2220   5.687   9.560  13.989  0.0891 -0.0313  0.1615
  190DOPS   C1A 2221   6.032   9.390  13.657  0.3647  0.0624 -0.1213
  190DOPS   D2A 2222   6.352   9.228  13.348 -0.0382 -0.1441  0.0277
  190DOPS   C3A 2223   6.244   9.225  12.886  0.3045 -0.1841 -0.0983
  190DOPS   C4A 2224   6.199   9.009  12.463 -0.0950 -0.1293 -0.0178
  190DOPS   C1B 2225   5.435   9.401  13.611  0.0098  0.1660 -0.2657
  190DOPS   D2B 2226   5.465   9.390  13.163  0.0515 -0.1523  0.0997
  190DOPS   C3B 2227   5.638   9.760  12.915  0.1433  0.1001  0.0496
  190DOPS   C4B 2228   6.014   9.617  12.660  0.4808  0.0505 -0.0627
  191DOPE   NH3 2229  11.565   0.437  14.140  0.2430  0.2257 -0.1264
  191DOPE   PO4 2230  11.883   0.505  14.174  0.0459 -0.0654 -0.3219
  191DOPE   GL1 2231  11.954   0.564  13.875 -0.2739  0.0873 -0.1151
  191DOPE   GL2 2232  11.723   0.664  13.676 -0.0609  0.1204  0.2464
  191DOPE   C1A 2233  12.119   0.317  13.484 -0.2811  0.1536 -0.3236
  191DOPE   D2A 2234  12.274   0.072  13.176  0.2355 -0.0918  0.0367
  191DOPE   C3A 2235  12.075  -0.152  12.757  0.0721 -0.0712  0.1337
  191DOPE   C4A 2236  11.771  -0.396  12.525 -0.3561 -0.2472 -0.0143
  191DOPE   C1B 2237  11.447   0.406  13.422  0.1385 -0.0633 -0.0981
  191DOPE   D2B 2238  11.293   0.099  13.173 -0.0672  0.0880  0.0771
  191DOPE   C3B 2239  11.600  -0.068  12.903 -0.0789 -0.1039 -0.0815
  191DOPE   C4B 2240  11.699   0.159  12.507 -0.1040  0.1903  0.3062
  192DOPC   NC3 2241   7.585   3.437  14.130  0.0608  0.2015  0.0675
  192DOPC   PO4 2242   7.393   3.728  14.271  0.0105  0.2779  0.0271
  192DOPC   GL1 2243   7.591   3.867  13.936  0.1275 -0.0878 -0.1124
  192DOPC   GL2 2244   7.354   4.009  13.788  0.0996  0.3347  0.2538
  192DOPC   C1A 2245   7.760   4.000  13.470  0.1660 -0.1409 -0.0120
  192DOPC   D2A 2246   7.865   4.017  13.020 -0.0750 -0.0466  0.2717
  192DOPC   C3A 2247   8.151   4.274  12.763  0.1511 -0.1296 -0.0894
  192DOPC   C4A 2248   8.416   4.639  12.547 -0.3483  0.0326  0.2956
  192DOPC   C1B 2249   7.297   4.078  13.334  0.1327 -0.3087  0.1459
  192DOPC   D2B 2250   7.352   3.892  12.911  0.0119  0.0781  0.0456
  192DOPC   C3B 2251   7.177   3.523  12.684  0.1162  0.2137 -0.2579
  192DOPC   C4B 2252   6.987   3.178  12.896 -0.0030  0.0175 -0.1046
  193DOPS   CNO 2253  11.334   5.736  14.723 -0.1291  0.0045  0.0485
  193DOPS   PO4 2254  11.172   5.523  14.471  0.1683  0.2253  0.4368
  193DOPS   GL1 2255  11.246   5.564  14.087 -0.1502  0.0885  0.0482
  193DOPS   GL2 2256  11.094   5.320  13.932  0.2530 -0.1996 -0.2931
  193DOPS   C1A 2257  11.606   5.418  13.817 -0.0609 -0.3741  0.0452
  193DOPS   D2A 2258  11.606   5.075  13.544 -0.1850 -0.2413 -0.1930
  193DOPS   C3A 2259  11.621   5.039  13.112  0.2220  0.1960  0.3152
  193DOPS   C4A 2260  11.428   5.300  12.822 -0.0603 -0.0081 -0.0132
  193DOPS   C1B 2261  11.061   5.507  13.499  0.0450  0.0383  0.2403
  193DOPS   D2B 2262  11.175   5.732  13.071  0.2638  0.1489  0.2375
  193DOPS   C3B 2263  10.948   5.832  12.699  0.1010 -0.0720 -0.0782
  193DOPS   C4B 2264  10.761   6.141  12.417  0.0461  0.1295  0.2751
  194DOPE   NH3 2265   5.848   8.539  14.256 -0.2304 -0.3349 -0.2537
  194DOPE   PO4 2266   6.155   8.617  14.375  0.1487  0.2420  0.1686
  194DOPE   GL1 2267   6.337   8.452  14.028  0.0453 -0.3546 -0.1136
  194DOPE   GL2 2268   6.490   8.649  13.975 -0.2484  0.1764  0.2717
  194DOPE   C1A 2269   6.470   8.331  13.560  0.5621 -0.2462 -0.5507
  194DOPE   D2A 2270   6.344   8.416  13.161 -0.1805 -0.1403  0.0865
  194DOPE   C3A 2271   6.581   8.779  13.293  0.0522 -0.3128 -0.1757
  194DOPE   C4A 2272   6.889   9.151  13.284  0.0432 -0.1777  0.2177
  194DOPE   C1B 2273   6.133   8.737  13.626 -0.4146 -0.0545 -0.0878
  194DOPE   D2B 2274   5.862   8.553  13.321  0.1868  0.0005 -0.1219
  194DOPE   C3B 2275   5.934   8.264  12.941 -0.1360  0.3348 -0.1582
  194DOPE   C4B 2276   6.082   7.811  12.805  0.2447  0.0077  0.0096
  195DOPE   NH3 2277  10.351   6.379  14.692  0.1455  0.4219 -0.1205
  195DOPE   PO4 2278  10.475   6.620  14.533  0.0010 -0.1475  0.3635
  195DOPE   GL1 2279  10.462   6.558  14.219  0.0038  0.2303 -0.1019
  195DOPE   GL2 2280  10.694   6.458  14.091  0.0331  0.0088  0.6059
  195DOPE   C1A 2281  10.228   6.740  13.845 -0.2968  0.0957 -0.3613
  195DOPE   D2A 2282  10.141   6.875  13.468  0.3586  0.0218  0.1014
  195DOPE   C3A 2283  10.064   7.277  13.317  0.2402  0.0587 -0.0706
  195DOPE   C4A 2284  10.026   7.341  12.835 -0.0028 -0.0114 -0.0014
  195DOPE   C1B 2285  10.527   6.384  13.690  0.2375  0.0162 -0.1160
  195DOPE   D2B 2286  10.388   6.416  13.264 -0.3012  0.1939  0.1461
  195DOPE   C3B 2287  10.262   6.698  12.990 -0.2752  0.3339 -0.1400
  195DOPE   C4B 2288  10.325   6.989  12.652 -0.2488 -0.1176  0.1030
  196DOPE   NH3 2289   7.337   2.726  14.520  0.0995  0.1997 -0.0565
  196DOPE   PO4 2290   7.127   2.475  14.465 -0.4710 -0.0763  0.0213
  196DOPE   GL1 2291   7.216   2.626  14.047 -0.1656 -0.1159  0.0250
  196DOPE   GL2 2292   7.509   2.600  14.070 -0.0907 -0.0904  0.0717
  196DOPE   C1A 2293   7.128   2.268  13.769  0.0532 -0.0582 -0.1445
  196DOPE   D2A 2294   6.738   2.112  13.546 -0.2480 -0.0068  0.0116
  196DOPE   C3A 2295   6.720   1.913  13.107  0.0819 -0.1352 -0.2037
  196DOPE   C4A 2296   6.785   1.969  12.659 -0.0958 -0.0568  0.0986
  196DOPE   C1B 2297   7.734   2.270  13.886  0.1526  0.1998 -0.0158
  196DOPE   D2B 2298   7.949   1.850  13.946 -0.0750 -0.2276 -0.0705
  196DOPE   C3B 2299   7.921   1.632  13.567 -0.3677 -0.2704  0.0267
  196DOPE   C4B 2300   7.536   1.468  13.397  0.0323 -0.2292  0.0359
  197DOPC   NC3 2301  13.227   9.468  15.076 -0.4025 -0.0986 -0.1179
  197DOPC   PO4 2302  12.871   9.584  15.083  0.1934 -0.0684  0.2174
  197DOPC   GL1 2303  12.580   9.597  14.731  0.0004  0.3568 -0.0284
  197DOPC   GL2 2304  12.435   9.750  14.981 -0.0655  0.1059  0.1155
  197DOPC   C1A 2305  12.717   9.614  14.257 -0.2500 -0.1023 -0.0645
  197DOPC   D2A 2306  12.456   9.473  13.932 -0.0404  0.0112  0.0710
  197DOPC   C3A 2307  11.962   9.517  13.717 -0.2036  0.1340  0.0617
  197DOPC   C4A 2308  11.553   9.433  13.654 -0.2709 -0.0660  0.0154
  197DOPC   C1B 2309  12.447   9.942  14.544 -0.0959 -0.0651  0.2701
  197DOPC   D2B 2310  12.621  10.149  14.148  0.3300 -0.0765 -0.2407
  197DOPC   C3B 2311  12.567   9.937  13.773  0.0652  0.4082 -0.0572
  197DOPC   C4B 2312  12.827   9.853  13.410  0.4156  0.2146  0.2796
  198POSM   NC3 2313   1.893   4.952  14.608 -0.2337  0.0258  0.1359
  198POSM   PO4 2314   1.874   5.061  14.186 -0.0426 -0.1231  0.2324
  198POSM   AM1 2315   1.816   5.018  13.845 -0.0716  0.1236  0.0313
  198POSM   AM2 2316   1.966   4.961  13.632  0.2384  0.2717  0.2279
  198POSM   T1A 2317   1.521   5.055  13.417 -0.0527  0.0311  0.0960
  198POSM   C2A 2318   1.460   5.351  13.129  0.2007  0.3099 -0.1189
  198POSM   C3A 2319   1.248   5.632  12.851 -0.1113 -0.1276  0.0327
  198POSM   C1B 2320   2.006   5.045  13.295  0.0323  0.1438  0.0922
  198POSM   D2B 2321   2.046   5.041  12.842  0.1376  0.4686  0.0890
  198POSM   C3B 2322   2.256   5.442  12.617  0.1737 -0.2538  0.2368
  198POSM   C4B 2323   2.402   5.830  12.672 -0.1819 -0.2758  0.0352
  199POSM   NC3 2324   1.110   5.672  14.222  0.1622  0.0481  0.0553
  199POSM   PO4 2325   1.260   5.846  13.915  0.0881  0.1735 -0.0779
  199POSM   AM1 2326   1.191   5.850  13.585  0.3200  0.0361 -0.2893
  199POSM   AM2 2327   1.358   5.771  13.386 -0.3077  0.0390  0.3897
  199POSM   T1A 2328   0.921   5.970  13.162  0.0255 -0.3079  0.4924
  199POSM   C2A 2329   0.706   6.290  12.925 -0.3444 -0.2622 -0.1447
  199POSM   C3A 2330   0.567   6.693  12.737  0.0358  0.1225 -0.2827
  199POSM   C1B 2331   1.508   5.978  13.212 -0.1205 -0.0843  0.2770
  199POSM   D2B 2332   1.787   6.042  12.857  0.5163 -0.0903  0.0038
  199POSM   C3B 2333   1.911   6.277  12.526  0.3296  0.1995 -0.0183
  199POSM   C4B 2334   1.916   6.440  12.105 -0.0775 -0.2043  0.0918
  200DOPC   NC3 2335   6.481   3.609  14.121 -0.4214 -0.2813  0.1653
  200DOPC   PO4 2336   6.659   3.315  13.953  0.3186 -0.1115 -0.0123
  200DOPC   GL1 2337   6.855   3.575  13.810 -0.0262 -0.1615  0.1918
  200DOPC   GL2 2338   7.121   3.576  13.910  0.1369  0.1012 -0.0636
  200DOPC   C1A 2339   6.871   3.964  13.557 -0.2584 -0.4052 -0.0691
  200DOPC   D2A 2340   6.723   4.208  13.228 -0.3082 -0.3574  0.1750
  200DOPC   C3A 2341   6.884   4.057  12.791 -0.4097  0.1147  0.3663
  200DOPC   C4A 2342   6.838   3.946  12.365  0.1132  0.0121 -0.1309
  200DOPC   C1B 2343   7.448   3.594  13.544  0.1013 -0.0660  0.1067
  200DOPC   D2B 2344   7.846   3.562  13.258  0.1341  0.2544  0.0597
  200DOPC   C3B 2345   7.624   3.381  12.842 -0.1941  0.2187 -0.0597
  200DOPC   C4B 2346   7.716   3.434  12.398 -0.0702  0.0186 -0.1308
  201DOPC   NC3 2347   6.966   5.571  13.855 -0.2818  0.0579  0.2217
  201DOPC   PO4 2348   7.116   5.747  14.200 -0.1928  0.1265  0.0513
  201DOPC   GL1 2349   7.417   5.741  13.995  0.0657 -0.2758  0.3285
  201DOPC   GL2 2350   7.611   5.942  14.136  0.0327  0.0143  0.0903
  201DOPC   C1A 2351   7.583   5.777  13.572 -0.1004 -0.2443  0.2464
  201DOPC   D2A 2352   7.570   6.155  13.293 -0.2699 -0.0854 -0.1151
  201DOPC   C3A 2353   7.558   5.988  12.869  0.3044 -0.0287 -0.4034
  201DOPC   C4A 2354   7.826   5.983  12.463  0.3976 -0.2095  0.0109
  201DOPC   C1B 2355   7.799   5.525  14.015  0.1827  0.2540  0.1925
  201DOPC   D2B 2356   7.964   5.235  13.686 -0.2667  0.3358 -0.2833
  201DOPC   C3B 2357   8.238   5.159  13.293  0.2658 -0.0075  0.0319
  201DOPC   C4B 2358   8.710   5.211  13.146 -0.1456 -0.3429  0.3111
  202DOPS   CNO 2359   3.099   7.862  13.887 -0.1232 -0.0983  0.0808
  202DOPS   PO4 2360   2.817   7.580  13.927  0.1597  0.5155 -0.1068
  202DOPS   GL1 2361   2.845   7.749  13.549  0.2071  0.3138  0.3556
  202DOPS   GL2 2362   2.951   8.121  13.508  0.0629 -0.0829  0.0720
  202DOPS   C1A 2363   2.626   7.499  13.214 -0.1617 -0.0239  0.5808
  202DOPS   D2A 2364   2.502   7.223  12.847 -0.1983  0.0404 -0.0984
  202DOPS   C3A 2365   2.550   7.177  12.409 -0.3554  0.0825 -0.1898
  202DOPS   C4A 2366   2.758   7.437  12.053 -0.0781 -0.0265 -0.0171
  202DOPS   C1B 2367   2.819   7.942  13.139 -0.1357 -0.0587 -0.0401
  202DOPS   D2B 2368   2.876   7.965  12.645 -0.0411 -0.1758  0.3081
  202DOPS   C3B 2369   2.899   7.521  12.714  0.2223  0.0708 -0.0589
  202DOPS   C4B 2370   2.991   7.060  12.665  0.2133 -0.3355  0.0951
  203DOPE   NH3 2371   5.288   0.977  14.175  0.1648 -0.1975 -0.0455
  203DOPE   PO4 2372   5.508   1.158  14.042 -0.0610  0.0123  0.2778
  203DOPE   GL1 2373   5.545   0.947  13.691 -0.0654 -0.1663 -0.2698
  203DOPE   GL2 2374   5.863   1.008  13.720 -0.3112 -0.0188 -0.2211
  203DOPE   C1A 2375   5.564   1.015  13.253 -0.0747  0.1799  0.2026
  203DOPE   D2A 2376   5.607   1.167  12.815  0.0039  0.0147  0.1917
  203DOPE   C3A 2377   5.641   1.052  12.382  0.2701  0.1138  0.1960
  203DOPE   C4A 2378   5.817   0.774  12.074  0.2669 -0.2261 -0.2916
  203DOPE   C1B 2379   5.994   1.284  13.394 -0.2768  0.0493  0.4907
  203DOPE   D2B 2380   6.108   1.171  12.924  0.1250  0.0666 -0.0049
  203DOPE   C3B 2381   6.076   0.836  12.610  0.1284 -0.2109  0.1261
  203DOPE   C4B 2382   6.092   0.458  12.373  0.3710  0.0923 -0.0011
  204DOPS   CNO 2383  10.069   3.503  14.686 -0.1438  0.0821  0.1230
  204DOPS   PO4 2384  10.102   3.190  14.476  0.0616 -0.0441 -0.0617
  204DOPS   GL1 2385  10.025   3.310  14.044 -0.0318 -0.2474 -0.1521
  204DOPS   GL2 2386  10.186   3.470  13.954 -0.1585 -0.1116  0.0570
  204DOPS   C1A 2387   9.826   3.183  13.639 -0.1291 -0.0007  0.1644
  204DOPS   D2A 2388   9.437   3.129  13.347 -0.1100  0.3195  0.2963
  204DOPS   C3A 2389   9.428   2.980  12.914  0.2137  0.2918  0.0883
  204DOPS   C4A 2390   9.212   2.941  12.513  0.2269 -0.1813 -0.1145
  204DOPS   C1B 2391  10.368   3.351  13.503  0.2253  0.4414 -0.0769
  204DOPS   D2B 2392  10.536   3.211  13.074  0.2995  0.0673  0.0539
  204DOPS   C3B 2393  10.322   3.233  12.608  0.1116  0.0857  0.1744
  204DOPS   C4B 2394  10.327   3.448  12.276  0.0611 -0.0724 -0.0813
  205DOPE   NH3 2395  12.146   0.026  10.164  0.2752  0.1486 -0.2209
  205DOPE   PO4 2396  11.980   0.311  10.298 -0.1378 -0.0339 -0.2037
  205DOPE   GL1 2397  12.019   0.379  10.683 -0.2378 -0.1917  0.0712
  205DOPE   GL2 2398  12.315   0.422  10.692 -0.2602  0.2700 -0.1071
  205DOPE   C1A 2399  11.919   0.276  11.125  0.2685 -0.1367 -0.1641
  205DOPE   D2A 2400  11.906   0.082  11.550  0.2085 -0.3122 -0.2047
  205DOPE   C3A 2401  11.897   0.327  11.961 -0.1987  0.0558 -0.0827
  205DOPE   C4A 2402  11.684   0.591  12.263 -0.1637  0.3493  0.1077
  205DOPE   C1B 2403  12.469   0.757  10.991  0.1173  0.2090 -0.0005
  205DOPE   D2B 2404  12.529   1.171  11.219 -0.2872  0.3920  0.2185
  205DOPE   C3B 2405  12.670   1.207  11.636  0.0477  0.0033 -0.1478
  205DOPE   C4B 2406  12.921   1.264  12.016  0.0908 -0.0032  0.0527
  206DOPS   CNO 2407   3.610   2.852  10.029  0.4341 -0.1028 -0.1041
  206DOPS   PO4 2408   3.914   3.129  10.012 -0.0310 -0.0203 -0.2688
  206DOPS   GL1 2409   3.952   2.762  10.265 -0.1409  0.3088 -0.4062
  206DOPS   GL2 2410   3.962   2.920  10.531  0.0479 -0.2520  0.0886
  206DOPS   C1A 2411   4.097   2.329  10.483 -0.2158 -0.0640  0.1361
  206DOPS   D2A 2412   4.110   2.071  10.828  0.1564  0.1193 -0.2251
  206DOPS   C3A 2413   4.288   1.687  11.051  0.0215 -0.0759 -0.1145
  206DOPS   C4A 2414   4.202   1.321  11.259 -0.0047  0.2658 -0.2521
  206DOPS   C1B 2415   3.590   2.605  10.687  0.1905 -0.0228 -0.2120
  206DOPS   D2B 2416   3.196   2.564  10.907  0.2340  0.0941  0.0884
  206DOPS   C3B 2417   3.194   3.002  11.126 -0.0839  0.1539  0.3096
  206DOPS   C4B 2418   3.506   3.221  11.335 -0.1455 -0.1225  0.0673
  207DOPE   NH3 2419   9.067   1.628  10.377 -0.2218  0.0925 -0.0465
  207DOPE   PO4 2420   9.288   1.691  10.177  0.3221 -0.0360  0.0018
  207DOPE   GL1 2421   9.479   1.420  10.462 -0.2245  0.0675 -0.0037
  207DOPE   GL2 2422   9.722   1.548  10.489  0.0831 -0.0004 -0.1961
  207DOPE   C1A 2423   9.611   1.557  10.934  0.2056  0.2082 -0.0537
  207DOPE   D2A 2424   9.414   1.634  11.388 -0.2290  0.2756  0.0478
  207DOPE   C3A 2425   9.552   1.443  11.790  0.1176 -0.0721 -0.2580
  207DOPE   C4A 2426   9.708   1.260  12.202 -0.0893  0.1264 -0.1070
  207DOPE   C1B 2427  10.010   1.894  10.675 -0.2660 -0.0039  0.3302
  207DOPE   D2B 2428  10.245   2.080  11.058  0.0145 -0.0848  0.2475
  207DOPE   C3B 2429  10.272   1.712  11.393 -0.1872 -0.2305  0.3998
  207DOPE   C4B 2430  10.552   1.576  11.702 -0.0015  0.0164  0.0055
  208DOPE   NH3 2431  11.697   0.733  10.268 -0.0481 -0.1321 -0.1294
  208DOPE   PO4 2432  11.935   0.922  10.129  0.1807  0.0409 -0.0019
  208DOPE   GL1 2433  12.035   0.996  10.492 -0.0593 -0.2214 -0.2236
  208DOPE   GL2 2434  12.131   0.861  10.662 -0.2026  0.0956 -0.2614
  208DOPE   C1A 2435  12.126   1.332  10.866 -0.1302  0.0544  0.0253
  208DOPE   D2A 2436  12.151   1.442  11.329  0.1752  0.2259  0.0979
  208DOPE   C3A 2437  12.281   1.559  11.757  0.0583  0.1879  0.0415
  208DOPE   C4A 2438  12.476   1.489  12.172  0.2820 -0.0985 -0.1397
  208DOPE   C1B 2439  11.969   0.776  11.075  0.4309 -0.1627 -0.0931
  208DOPE   D2B 2440  12.127   0.915  11.477 -0.4574 -0.0686 -0.0318
  208DOPE   C3B 2441  12.292   0.630  11.807 -0.1292 -0.3883 -0.2032
  208DOPE   C4B 2442  12.189   0.698  12.307  0.0220  0.1387  0.2448
  209DOPC   NC3 2443  11.835  34.502  10.929  0.1744 -0.0183 -0.4660
  209DOPC   PO4 2444  11.860  34.164  10.670 -0.1053 -0.0010  0.0487
  209DOPC   GL1 2445  11.704  33.894  10.978  0.0583  0.2832  0.0471
  209DOPC   GL2 2446  11.935  33.707  10.934 -0.4048  0.3681  0.2160
  209DOPC   C1A 2447  11.542  34.053  11.318 -0.1424  0.2000  0.2647
  209DOPC   D2A 2448  11.531  34.382  11.615 -0.5740 -0.2811 -0.1256
  209DOPC   C3A 2449  11.692  34.176  12.012  0.0553 -0.0441 -0.2933
  209DOPC   C4A 2450  11.835  33.815  12.326 -0.2263  0.2076  0.3910
  209DOPC   C1B 2451  12.146  33.970  11.216  0.4445 -0.0441 -0.0234
  209DOPC   D2B 2452  12.031  34.217  11.539  0.1795 -0.1284 -0.0609
  209DOPC   C3B 2453  12.093  33.892  11.873  0.0111 -0.0209  0.1641
  209DOPC   C4B 2454  12.392  33.692  12.175  0.3634 -0.1174 -0.0696
  210DOPC   NC3 2455   3.895   5.273  10.120 -0.0036 -0.1222  0.3327
  210DOPC   PO4 2456   4.138   5.534  10.298 -0.3123  0.0139  0.0204
  210DOPC   GL1 2457   4.185   5.549  10.727 -0.0379  0.1572 -0.2691
  210DOPC   GL2 2458   4.282   5.797  10.711  0.0436 -0.1233 -0.1632
  210DOPC   C1A 2459   4.439   5.380  11.085 -0.0414  0.0875  0.0281
  210DOPC   D2A 2460   4.406   4.920  11.289 -0.3147  0.0731  0.0388
  210DOPC   C3A 2461   4.821   4.729  11.443  0.3350 -0.0218  0.0036
  210DOPC   C4A 2462   5.220   4.826  11.638  0.2998 -0.1817  0.2386
  210DOPC   C1B 2463   4.077   5.998  11.042  0.0768  0.1949 -0.0349
  210DOPC   D2B 2464   3.814   5.986  11.389 -0.3667  0.1332  0.0355
  210DOPC   C3B 2465   3.481   6.269  11.516  0.0433 -0.0626 -0.5161
  210DOPC   C4B 2466   3.492   6.710  11.383  0.0368 -0.3926 -0.1546
  211DOPE   NH3 2467   1.701   7.322  10.318  0.1969  0.1786  0.1137
  211DOPE   PO4 2468   1.740   7.041  10.465 -0.0406  0.2898 -0.2073
  211DOPE   GL1 2469   1.661   6.915  10.797  0.0716 -0.2655 -0.1585
  211DOPE   GL2 2470   1.485   6.758  10.929  0.0302  0.1906  0.1387
  211DOPE   C1A 2471   1.652   7.100  11.226  0.2332 -0.0626 -0.1872
  211DOPE   D2A 2472   1.393   7.180  11.605 -0.0008 -0.1112 -0.2685
  211DOPE   C3A 2473   1.125   6.830  11.766  0.0354  0.2797  0.0367
  211DOPE   C4A 2474   0.771   6.576  11.731  0.1524  0.0936 -0.1563
  211DOPE   C1B 2475   1.475   6.712  11.378 -0.1400 -0.1642 -0.2191
  211DOPE   D2B 2476   1.493   6.451  11.730 -0.0948  0.0146  0.2625
  211DOPE   C3B 2477   1.087   6.213  11.772  0.0249 -0.0525  0.3327
  211DOPE   C4B 2478   0.892   5.806  11.784  0.2070 -0.0032  0.4835
  212DOPE   NH3 2479  14.744   9.039  10.914 -0.0519  0.2098 -0.2672
  212DOPE   PO4 2480  14.936   8.781  10.993  0.0000 -0.0046 -0.0788
  212DOPE   GL1 2481  14.855   8.503  11.320  0.2010 -0.0532  0.2078
  212DOPE   GL2 2482  15.113   8.370  11.326 -0.3025  0.0306 -0.0200
  212DOPE   C1A 2483  14.790   8.442  11.800 -0.2348  0.2848  0.1862
  212DOPE   D2A 2484  14.586   8.552  12.204 -0.2473 -0.0118  0.3366
  212DOPE   C3A 2485  14.690   8.484  12.671 -0.1342 -0.0645 -0.2963
  212DOPE   C4A 2486  14.369   8.360  13.022 -0.0749 -0.0142  0.0270
  212DOPE   C1B 2487  15.125   8.718  11.604  0.1263 -0.1545  0.1753
  212DOPE   D2B 2488  14.819   9.062  11.776  0.1358 -0.1102  0.1025
  212DOPE   C3B 2489  14.756   9.042  12.230  0.1976 -0.0280  0.0473
  212DOPE   C4B 2490  14.950   8.862  12.550 -0.2922  0.1025  0.3023
  213DOPE   NH3 2491   7.351   4.095  10.076 -0.1895  0.2686 -0.0277
  213DOPE   PO4 2492   7.464   4.200  10.381  0.0619  0.2719  0.2941
  213DOPE   GL1 2493   7.331   3.919  10.633  0.0032  0.0855 -0.1662
  213DOPE   GL2 2494   7.568   3.761  10.724 -0.0147  0.3438  0.2794
  213DOPE   C1A 2495   7.216   3.885  11.087 -0.1402 -0.1995 -0.0413
  213DOPE   D2A 2496   6.954   3.674  11.324 -0.0214 -0.0093  0.3608
  213DOPE   C3A 2497   6.997   3.563  11.765  0.1630 -0.0454  0.2314
  213DOPE   C4A 2498   7.296   3.599  12.177  0.0802  0.1623  0.0823
  213DOPE   C1B 2499   7.770   3.787  11.214 -0.0706 -0.1313 -0.2225
  213DOPE   D2B 2500   7.952   3.722  11.623  0.1467 -0.0229  0.2772
  213DOPE   C3B 2501   7.698   3.895  11.980  0.1987 -0.1062 -0.3056
  213DOPE   C4B 2502   7.504   3.944  12.410 -0.1984  0.1145  0.2384
  214POSM   NC3 2503   3.744   7.232  10.054 -0.1757  0.0235  0.2081
  214POSM   PO4 2504   3.503   6.922  10.141 -0.0007  0.0239 -0.1709
  214POSM   AM1 2505   3.588   6.883  10.464 -0.1780 -0.2831 -0.0511
  214POSM   AM2 2506   3.407   6.953  10.638  0.0664  0.1277  0.0121
  214POSM   T1A 2507   3.802   6.956  10.912 -0.1393  0.3395  0.0505
  214POSM   C2A 2508   3.886   7.096  11.346 -0.2956 -0.1778  0.0878
  214POSM   C3A 2509   4.214   7.003  11.738  0.0376 -0.2397 -0.0348
  214POSM   C1B 2510   3.306   6.846  10.885 -0.0377 -0.0555  0.0682
  214POSM   D2B 2511   2.983   6.578  11.131  0.0274  0.4762 -0.0295
  214POSM   C3B 2512   2.989   6.696  11.608  0.0685 -0.1185  0.0361
  214POSM   C4B 2513   2.843   6.883  12.053  0.0893  0.2059 -0.0351
  215DOPE   NH3 2514   7.932   4.392  10.476 -0.2419 -0.1253  0.2370
  215DOPE   PO4 2515   7.682   4.624  10.569  0.4354 -0.1009  0.0891
  215DOPE   GL1 2516   7.421   4.592  10.866  0.6728  0.2745  0.0679
  215DOPE   GL2 2517   7.287   4.354  10.812  0.2047 -0.0542 -0.0589
  215DOPE   C1A 2518   7.279   4.812  11.229 -0.1223 -0.2567  0.0021
  215DOPE   D2A 2519   7.606   4.821  11.642  0.2698 -0.0077  0.0570
  215DOPE   C3A 2520   7.569   4.912  12.094 -0.1613  0.2181  0.0092
  215DOPE   C4A 2521   7.359   4.809  12.488 -0.1156 -0.1890 -0.1490
  215DOPE   C1B 2522   7.049   4.397  11.207 -0.0977 -0.1803  0.2541
  215DOPE   D2B 2523   7.127   4.544  11.624 -0.0359 -0.0699  0.1492
  215DOPE   C3B 2524   7.486   4.385  11.876  0.1148  0.0789 -0.0146
  215DOPE   C4B 2525   7.873   4.266  11.743  0.1723 -0.2463  0.3769
  216POSM   NC3 2526   7.148   6.544  10.282 -0.0583  0.1423  0.0172
  216POSM   PO4 2527   7.225   6.858  10.475  0.0798  0.0155 -0.4142
  216POSM   AM1 2528   7.100   7.004  10.768  0.0939  0.1055  0.1688
  216POSM   AM2 2529   7.277   7.123  10.930 -0.1385  0.3402  0.0726
  216POSM   T1A 2530   6.831   7.145  11.210 -0.0708  0.2734 -0.0753
  216POSM   C2A 2531   6.617   7.302  11.624  0.1954 -0.1701 -0.1918
  216POSM   C3A 2532   6.530   7.278  12.089 -0.0577  0.1844 -0.2190
  216POSM   C1B 2533   7.389   7.103  11.225 -0.0877  0.2638  0.1741
  216POSM   D2B 2534   7.283   6.931  11.627  0.0908 -0.1570 -0.2217
  216POSM   C3B 2535   6.960   7.029  11.929 -0.0750 -0.1090  0.2381
  216POSM   C4B 2536   6.836   6.957  12.381 -0.0150 -0.1227  0.2649
  217POSM   NC3 2537   1.043   0.273   9.340 -0.1996  0.0538 -0.1291
  217POSM   PO4 2538   1.274  -0.031   9.333 -0.4391 -0.1365  0.2869
  217POSM   AM1 2539   1.242  -0.046   9.698 -0.1995  0.3507  0.0927
  217POSM   AM2 2540   1.241  -0.263   9.943 -0.1707 -0.0991 -0.0426
  217POSM   T1A 2541   1.407   0.206  10.115  0.2476 -0.2189  0.2025
  217POSM   C2A 2542   1.276   0.591  10.318 -0.0626 -0.2645  0.0685
  217POSM   C3A 2543   0.961   0.494  10.685  0.0218 -0.0525  0.0195
  217POSM   C1B 2544   1.218  -0.175  10.291  0.0724 -0.1484  0.1227
  217POSM   D2B 2545   1.295   0.000  10.739 -0.0514  0.1104 -0.3919
  217POSM   C3B 2546   1.073  -0.182  11.048  0.1796 -0.1824  0.2320
  217POSM   C4B 2547   0.932  -0.206  11.494  0.0915  0.2241  0.2401
  218DOPC   NC3 2548  11.460   8.656  10.835  0.2674 -0.2017 -0.0678
  218DOPC   PO4 2549  11.611   8.940  11.055 -0.1878  0.2715  0.2481
  218DOPC   GL1 2550  11.722   8.673  11.256  0.2069 -0.4379 -0.3823
  218DOPC   GL2 2551  11.484   8.504  11.395 -0.1414 -0.1711 -0.3823
  218DOPC   C1A 2552  11.908   8.619  11.729 -0.1315  0.1037 -0.1504
  218DOPC   D2A 2553  11.908   8.527  12.150  0.1075  0.3647 -0.4188
  218DOPC   C3A 2554  12.187   8.289  12.394  0.4390 -0.0697  0.0686
  218DOPC   C4A 2555  12.556   8.173  12.655  0.1604 -0.1622 -0.3583
  218DOPC   C1B 2556  11.463   8.296  11.799 -0.1778  0.2921 -0.1398
  218DOPC   D2B 2557  11.694   8.077  12.113 -0.1104 -0.2750  0.3154
  218DOPC   C3B 2558  12.008   7.781  12.263  0.2042 -0.0694  0.2442
  218DOPC   C4B 2559  12.402   7.683  12.501 -0.1287  0.1079 -0.1460
  219DOPC   NC3 2560   9.968   9.451  11.257  0.1904  0.0483 -0.1226
  219DOPC   PO4 2561  10.196   9.792  11.152  0.0473  0.1117  0.0506
  219DOPC   GL1 2562   9.877   9.886  11.356 -0.0740 -0.0419 -0.2251
  219DOPC   GL2 2563  10.074  10.152  11.473  0.0844  0.2893 -0.2319
  219DOPC   C1A 2564   9.604  10.130  11.666  0.0923 -0.1159  0.0337
  219DOPC   D2A 2565   9.517  10.327  12.071  0.2770  0.2830 -0.3126
  219DOPC   C3A 2566   9.835  10.192  12.396  0.0175  0.1879  0.2513
  219DOPC   C4A 2567  10.059   9.916  12.660  0.1050 -0.1885 -0.2526
  219DOPC   C1B 2568  10.112  10.089  11.916 -0.0988  0.2729  0.2732
  219DOPC   D2B 2569  10.345  10.126  12.304  0.2978 -0.0259  0.1618
  219DOPC   C3B 2570  10.590   9.974  12.705  0.0686 -0.0288  0.1422
  219DOPC   C4B 2571  10.845  10.064  13.135 -0.2754 -0.0728  0.0782
  220DOPC   NC3 2572   5.528   3.536  10.597 -0.2912 -0.0100  0.2088
  220DOPC   PO4 2573   5.184   3.542  10.412 -0.0538 -0.0386  0.1878
  220DOPC   GL1 2574   4.901   3.576  10.739 -0.2544  0.3223  0.1746
  220DOPC   GL2 2575   4.851   3.315  10.838 -0.0634 -0.1173  0.0862
  220DOPC   C1A 2576   4.946   3.616  11.200  0.0903  0.1572 -0.0020
  220DOPC   D2A 2577   4.686   3.782  11.566  0.2129 -0.1894 -0.0784
  220DOPC   C3A 2578   4.785   4.158  11.865 -0.2464 -0.2412  0.0010
  220DOPC   C4A 2579   4.907   4.638  11.995 -0.0762  0.2534  0.1415
  220DOPC   C1B 2580   4.542   3.325  11.232 -0.0967  0.0928 -0.2176
  220DOPC   D2B 2581   4.463   3.281  11.651  0.2665  0.2690 -0.0422
  220DOPC   C3B 2582   4.729   3.118  11.982 -0.1007 -0.1253  0.1367
  220DOPC   C4B 2583   5.174   3.200  12.110 -0.1696 -0.1129 -0.1158
  221DOPE   NH3 2584   8.167  33.510  10.433  0.3166 -0.0511  0.1477
  221DOPE   PO4 2585   7.885  33.446  10.394 -0.0725 -0.3552  0.2105
  221DOPE   GL1 2586   7.760  33.124  10.695  0.1137 -0.2550  0.5644
  221DOPE   GL2 2587   8.065  33.150  10.768 -0.1818 -0.0647  0.0619
  221DOPE   C1A 2588   7.815  32.781  11.031 -0.1465  0.2249 -0.3088
  221DOPE   D2A 2589   8.086  32.482  11.280 -0.0784  0.3389 -0.1100
  221DOPE   C3A 2590   8.041  32.031  11.349 -0.3157 -0.0255  0.1224
  221DOPE   C4A 2591   7.962  31.647  11.138  0.0415  0.2995  0.1595
  221DOPE   C1B 2592   8.350  32.899  11.114  0.2223 -0.0087  0.1301
  221DOPE   D2B 2593   8.576  32.721  11.466  0.0861 -0.1176  0.0034
  221DOPE   C3B 2594   8.629  32.951  11.840  0.2782 -0.1941  0.0857
  221DOPE   C4B 2595   8.709  32.642  12.245 -0.1913 -0.2687 -0.1601
  222POSM   NC3 2596   7.546  30.650   9.251  0.1588  0.2301  0.1465
  222POSM   PO4 2597   7.136  30.691   9.202 -0.0551 -0.0536  0.1110
  222POSM   AM1 2598   7.047  30.559   9.509 -0.3925 -0.0695 -0.0486
  222POSM   AM2 2599   7.240  30.474   9.658 -0.1469 -0.0219  0.1263
  222POSM   T1A 2600   6.744  30.283   9.842  0.1011  0.0614 -0.0183
  222POSM   C2A 2601   6.734  30.052  10.274  0.1123 -0.3312  0.1491
  222POSM   C3A 2602   6.641  29.858  10.698  0.2487  0.0059  0.3026
  222POSM   C1B 2603   7.208  30.369   9.955 -0.1194  0.3639 -0.2205
  222POSM   D2B 2604   7.004  30.451  10.329 -0.2187  0.3601 -0.0228
  222POSM   C3B 2605   6.864  30.281  10.687  0.3583 -0.1706  0.0700
  222POSM   C4B 2606   6.510  30.236  11.005 -0.1102 -0.2698 -0.0647
  223DOPE   NH3 2607   2.749   9.529  10.481  0.1071  0.0193 -0.4867
  223DOPE   PO4 2608   2.765   9.262  10.371  0.0668  0.2026  0.0549
  223DOPE   GL1 2609   2.731   9.091  10.687 -0.2330 -0.1336  0.0039
  223DOPE   GL2 2610   2.600   8.853  10.677  0.2168 -0.0752  0.1530
  223DOPE   C1A 2611   2.535   9.302  11.095 -0.1518  0.0868  0.0550
  223DOPE   D2A 2612   2.492   9.593  11.442  0.0764 -0.3089  0.0661
  223DOPE   C3A 2613   2.363   9.514  11.903  0.2365 -0.0004 -0.0469
  223DOPE   C4A 2614   2.355   9.291  12.338  0.1334 -0.2776  0.1461
  223DOPE   C1B 2615   2.690   8.679  11.035 -0.2018 -0.1476 -0.0571
  223DOPE   D2B 2616   2.842   8.640  11.444  0.1533 -0.0134 -0.3863
  223DOPE   C3B 2617   2.380   8.759  11.522 -0.1260 -0.2506 -0.0087
  223DOPE   C4B 2618   2.183   8.957  11.114 -0.0700 -0.1299  0.1114
  224DOPC   NC3 2619  10.984  33.225  10.302  0.1972  0.4055 -0.2894
  224DOPC   PO4 2620  10.872  33.578  10.241 -0.1192  0.2415 -0.1828
  224DOPC   GL1 2621  10.693  33.571  10.636 -0.3271 -0.4924  0.2500
  224DOPC   GL2 2622  10.767  33.837  10.774  0.0498  0.4600 -0.0888
  224DOPC   C1A 2623  10.975  33.373  10.965 -0.2352 -0.0140  0.2522
  224DOPC   D2A 2624  10.921  33.302  11.397  0.1269  0.1487 -0.1790
  224DOPC   C3A 2625  10.617  33.190  11.741 -0.4368 -0.0927 -0.0900
  224DOPC   C4A 2626  10.218  33.171  11.940 -0.0235  0.4668 -0.1869
  224DOPC   C1B 2627  10.913  33.900  11.178  0.1822  0.0343 -0.1923
  224DOPC   D2B 2628  10.653  34.267  11.386  0.1895 -0.2257  0.0205
  224DOPC   C3B 2629  10.352  34.155  11.755 -0.2632  0.2064  0.2716
  224DOPC   C4B 2630  10.202  34.043  12.157 -0.0020 -0.3506 -0.1047
  225POSM   NC3 2631  11.517   1.618  10.369 -0.0166  0.3259 -0.0653
  225POSM   PO4 2632  11.629   1.274  10.448 -0.0298 -0.1481 -0.0964
  225POSM   AM1 2633  11.720   1.346  10.758  0.2702  0.1231  0.3086
  225POSM   AM2 2634  11.680   1.588  10.839 -0.3005 -0.0367  0.1807
  225POSM   T1A 2635  11.746   1.176  11.224 -0.0498  0.1718  0.4580
  225POSM   C2A 2636  11.819   1.310  11.666 -0.4108 -0.0994 -0.3302
  225POSM   C3A 2637  11.802   1.618  11.987  0.1692 -0.2792 -0.0204
  225POSM   C1B 2638  11.717   1.676  11.192 -0.4143  0.2804  0.3583
  225POSM   D2B 2639  11.911   1.793  11.554 -0.0925 -0.5799 -0.0981
  225POSM   C3B 2640  12.151   2.064  11.824  0.1783  0.1617 -0.1683
  225POSM   C4B 2641  12.446   2.037  12.156 -0.3080 -0.1740  0.1845
  226DOPE   NH3 2642  11.032   4.940  10.762 -0.1822 -0.0613 -0.0754
  226DOPE   PO4 2643  11.335   4.992  10.672  0.0231  0.2674 -0.2914
  226DOPE   GL1 2644  11.328   4.732  11.111 -0.1086  0.0103  0.1585
  226DOPE   GL2 2645  11.305   4.533  10.911  0.0582 -0.2816 -0.2850
  226DOPE   C1A 2646  11.656   4.542  11.419 -0.1563  0.1018  0.1192
  226DOPE   D2A 2647  11.748   4.247  11.694  0.0018  0.2055  0.2302
  226DOPE   C3A 2648  11.608   4.152  12.094 -0.2704 -0.1441  0.1061
  226DOPE   C4A 2649  11.819   3.935  12.449 -0.0754  0.2913  0.2031
  226DOPE   C1B 2650  10.938   4.542  11.166  0.2326  0.0528 -0.1997
  226DOPE   D2B 2651  10.640   4.389  11.488 -0.0656 -0.1318 -0.3469
  226DOPE   C3B 2652  10.650   4.381  11.962 -0.0360 -0.1036  0.0988
  226DOPE   C4B 2653  10.664   4.051  12.275  0.0635 -0.4383 -0.2293
  227DOPE   NH3 2654   2.063   1.764   9.498 -0.3042 -0.1051 -0.0198
  227DOPE   PO4 2655   1.734   1.749   9.526 -0.0065  0.0495 -0.3122
  227DOPE   GL1 2656   1.434   1.596   9.767 -0.2962 -0.1160 -0.1286
  227DOPE   GL2 2657   1.219   1.686   9.670 -0.1670  0.0020 -0.0085
  227DOPE   C1A 2658   1.187   1.301  10.001  0.0688 -0.3582  0.1483
  227DOPE   D2A 2659   0.983   1.025  10.319 -0.0544 -0.0587  0.1193
  227DOPE   C3A 2660   0.877   1.110  10.745  0.3524  0.3521 -0.0888
  227DOPE   C4A 2661   0.864   0.860  11.162 -0.4784 -0.2937 -0.0200
  227DOPE   C1B 2662   0.972   1.757  10.106 -0.0959 -0.1798  0.1904
  227DOPE   D2B 2663   0.945   1.956  10.526  0.0852 -0.2189  0.0306
  227DOPE   C3B 2664   1.233   1.796  10.883 -0.5770  0.1449  0.1846
  227DOPE   C4B 2665   1.332   1.710  11.371  0.0014  0.3024 -0.0527
  228DOPC   NC3 2666   8.847   8.240  10.452 -0.0494  0.1259 -0.0303
  228DOPC   PO4 2667   8.759   8.239  10.855  0.0799  0.3975  0.1809
  228DOPC   GL1 2668   8.924   8.015  11.183  0.2473 -0.2898 -0.1712
  228DOPC   GL2 2669   8.802   7.754  11.120  0.2224  0.2986 -0.0265
  228DOPC   C1A 2670   8.858   7.868  11.640  0.1915 -0.0478  0.0825
  228DOPC   D2A 2671   8.435   7.882  11.900  0.0681 -0.2185  0.2316
  228DOPC   C3A 2672   8.386   7.644  12.267  0.4629 -0.1454 -0.1076
  228DOPC   C4A 2673   8.098   7.516  12.639  0.1377 -0.0799  0.1535
  228DOPC   C1B 2674   8.500   7.539  11.388  0.1781 -0.2566 -0.0375
  228DOPC   D2B 2675   8.524   7.393  11.796 -0.0839 -0.1129 -0.3153
  228DOPC   C3B 2676   8.733   6.982  11.891  0.2508  0.0232  0.1117
  228DOPC   C4B 2677   9.014   6.773  12.134 -0.1155 -0.1075  0.1171
  229DOPE   NH3 2678   5.801   7.073  10.227  0.2422  0.0367 -0.3353
  229DOPE   PO4 2679   5.676   6.786  10.336 -0.2056 -0.1033  0.1748
  229DOPE   GL1 2680   5.599   6.676  10.662 -0.0511 -0.0458 -0.3593
  229DOPE   GL2 2681   5.289   6.736  10.687  0.2298  0.0797  0.0613
  229DOPE   C1A 2682   5.631   6.833  11.069 -0.0729  0.0500 -0.1619
  229DOPE   D2A 2683   5.725   6.959  11.513  0.1542 -0.4198 -0.3189
  229DOPE   C3A 2684   5.612   6.700  11.878 -0.3132  0.4331 -0.2234
  229DOPE   C4A 2685   5.577   6.665  12.304 -0.3098 -0.0331  0.0945
  229DOPE   C1B 2686   5.114   6.662  11.145 -0.0633 -0.1381 -0.0834
  229DOPE   D2B 2687   5.043   6.436  11.558  0.0779 -0.2036  0.4219
  229DOPE   C3B 2688   4.702   6.241  11.763 -0.1986 -0.1704 -0.0737
  229DOPE   C4B 2689   4.479   5.985  12.031  0.3281 -0.6124  0.2850
  230POSM   NC3 2690   9.926   5.383  10.769 -0.1759  0.0409 -0.4509
  230POSM   PO4 2691   9.558   5.564  10.775 -0.2300 -0.0829  0.1102
  230POSM   AM1 2692   9.609   5.696  11.043 -0.0525 -0.1564  0.0762
  230POSM   AM2 2693   9.850   5.799  11.189 -0.1850 -0.1406  0.0489
  230POSM   T1A 2694   9.422   5.849  11.473  0.0788 -0.0312  0.2701
  230POSM   C2A 2695   9.258   5.680  11.910 -0.1871  0.2063  0.2691
  230POSM   C3A 2696   8.856   5.469  12.075 -0.0396  0.0460 -0.0151
  230POSM   C1B 2697   9.829   5.600  11.494 -0.4448  0.0542  0.1315
  230POSM   D2B 2698   9.627   5.349  11.847  0.0684 -0.1214  0.0552
  230POSM   C3B 2699   9.815   4.966  12.093 -0.1902  0.1429  0.0689
  230POSM   C4B 2700   9.696   4.845  12.494 -0.3359 -0.3164 -0.0624
  231DOPC   NC3 2701   9.993   8.343  10.581 -0.1881 -0.1748  0.0263
  231DOPC   PO4 2702   9.845   8.005  10.684 -0.0754  0.1077  0.0172
  231DOPC   GL1 2703   9.911   8.077  11.077 -0.0514  0.4270 -0.0276
  231DOPC   GL2 2704   9.689   8.164  11.287 -0.1537  0.2014  0.1844
  231DOPC   C1A 2705  10.022   7.845  11.489 -0.1180  0.0255  0.0835
  231DOPC   D2A 2706  10.064   7.637  11.920  0.0619 -0.1671 -0.0850
  231DOPC   C3A 2707   9.752   7.399  12.184 -0.2133 -0.0916  0.0049
  231DOPC   C4A 2708   9.622   7.203  12.582 -0.0406  0.1110 -0.0643
  231DOPC   C1B 2709   9.847   8.260  11.665 -0.2186  0.1897 -0.2040
  231DOPC   D2B 2710   9.965   8.375  12.104 -0.0930  0.0187 -0.2087
  231DOPC   C3B 2711   9.821   8.177  12.464 -0.2957  0.2021 -0.1963
  231DOPC   C4B 2712   9.887   8.077  12.875  0.0373 -0.1617 -0.0669
  232POSM   NC3 2713   7.077   7.943  10.773  0.1892  0.0481  0.1896
  232POSM   PO4 2714   7.378   8.168  10.662 -0.2775  0.0959  0.0491
  232POSM   AM1 2715   7.595   8.275  10.878 -0.1026  0.4448 -0.4507
  232POSM   AM2 2716   7.807   8.163  11.002  0.2168 -0.1252 -0.0432
  232POSM   T1A 2717   7.725   8.633  11.233 -0.2214  0.0719  0.1948
  232POSM   C2A 2718   7.745   8.527  11.674 -0.1245  0.3476 -0.2285
  232POSM   C3A 2719   7.930   8.616  12.099 -0.2363 -0.3161 -0.1485
  232POSM   C1B 2720   7.736   8.153  11.306  0.1998  0.1774 -0.0213
  232POSM   D2B 2721   7.949   8.038  11.641 -0.3546  0.0129  0.1818
  232POSM   C3B 2722   7.690   7.892  12.006  0.0625 -0.1815 -0.0699
  232POSM   C4B 2723   7.296   7.845  12.142 -0.2427 -0.2292 -0.2055
  233DOPE   NH3 2724   7.830  32.236   9.765  0.1291  0.0753  0.3189
  233DOPE   PO4 2725   7.876  32.583   9.830 -0.0102  0.1424 -0.0091
  233DOPE   GL1 2726   7.703  32.400  10.189 -0.1920 -0.4410  0.0350
  233DOPE   GL2 2727   7.406  32.356  10.103  0.0015 -0.1142 -0.0868
  233DOPE   C1A 2728   7.574  31.978  10.389  0.1495 -0.3255  0.1562
  233DOPE   D2A 2729   7.603  31.702  10.744  0.0572  0.1086 -0.0741
  233DOPE   C3A 2730   7.377  31.301  10.829  0.0046 -0.2407  0.1648
  233DOPE   C4A 2731   7.066  31.105  11.016  0.2086  0.1298 -0.0031
  233DOPE   C1B 2732   7.301  32.388  10.534  0.0499  0.1517  0.1582
  233DOPE   D2B 2733   7.221  32.153  10.948  0.0856 -0.1806  0.2066
  233DOPE   C3B 2734   7.510  31.972  11.232  0.2670 -0.0569  0.0561
  233DOPE   C4B 2735   7.616  32.023  11.647  0.0977 -0.0248 -0.3754
  234DOPC   NC3 2736  10.578   2.585  10.202 -0.1385  0.1091  0.1148
  234DOPC   PO4 2737  10.427   2.208  10.164 -0.1054 -0.3430 -0.1191
  234DOPC   GL1 2738  10.569   2.050  10.416  0.2218 -0.1748 -0.1931
  234DOPC   GL2 2739  10.777   2.232  10.564  0.1828 -0.2657 -0.0503
  234DOPC   C1A 2740  10.532   1.724  10.778  0.1420 -0.0278  0.0086
  234DOPC   D2A 2741  10.650   1.455  11.114  0.1413 -0.0374 -0.0805
  234DOPC   C3A 2742  10.977   1.507  11.400 -0.2333  0.0337 -0.2283
  234DOPC   C4A 2743  11.366   1.476  11.580  0.0177 -0.2492 -0.1701
  234DOPC   C1B 2744  10.849   2.046  11.024  0.2017  0.0843 -0.0136
  234DOPC   D2B 2745  10.725   1.928  11.463  0.2133 -0.2574 -0.0230
  234DOPC   C3B 2746  10.590   2.078  11.888 -0.0589  0.1787 -0.2532
  234DOPC   C4B 2747  10.379   2.019  12.256 -0.0270 -0.1509 -0.2202
  235DOPE   NH3 2748  13.423  34.375  10.364  0.0822  0.1269  0.1016
  235DOPE   PO4 2749  13.328  34.175  10.579  0.0650  0.3591 -0.1040
  235DOPE   GL1 2750  13.287  34.205  11.015  0.1910 -0.1338  0.2694
  235DOPE   GL2 2751  13.455  34.138  11.125 -0.0562 -0.4166 -0.0602
  235DOPE   C1A 2752  13.107  34.091  11.436 -0.1841  0.0715  0.3252
  235DOPE   D2A 2753  13.161  33.628  11.487 -0.0036  0.0084  0.2854
  235DOPE   C3A 2754  13.186  33.592  11.926  0.1960 -0.1825 -0.2270
  235DOPE   C4A 2755  12.912  33.537  12.264  0.2499  0.0859  0.0510
  235DOPE   C1B 2756  13.677  33.891  11.445  0.1830  0.1473  0.0935
  235DOPE   D2B 2757  13.650  33.857  11.893 -0.1296 -0.3057  0.0287
  235DOPE   C3B 2758  13.945  34.150  12.106 -0.1496 -0.0526  0.1773
  235DOPE   C4B 2759  14.303  34.166  12.385  0.0303  0.0135  0.0752
  236POSM   NC3 2760   5.356   2.054  10.004  0.1669 -0.0391 -0.2531
  236POSM   PO4 2761   4.966   2.089  10.027 -0.1971 -0.0546 -0.1872
  236POSM   AM1 2762   4.807   1.966  10.313 -0.1971 -0.3053  0.0024
  236POSM   AM2 2763   4.770   1.712  10.408 -0.2722 -0.0179 -0.0561
  236POSM   T1A 2764   4.575   2.105  10.659 -0.0276 -0.4026  0.1235
  236POSM   C2A 2765   4.562   2.255  11.108 -0.0071  0.2508 -0.0209
  236POSM   C3A 2766   4.459   2.656  11.340 -0.2698 -0.0555  0.1854
  236POSM   C1B 2767   4.686   1.463  10.684  0.1291 -0.1611  0.1535
  236POSM   D2B 2768   4.585   1.155  10.986  0.2853 -0.2766 -0.2177
  236POSM   C3B 2769   4.725   1.200  11.431 -0.0189  0.1736 -0.4793
  236POSM   C4B 2770   4.491   1.434  11.731 -0.1737  0.0635  0.0086
  237DOPC   NC3 2771   6.959   4.756  10.796  0.3473  0.2110  0.1218
  237DOPC   PO4 2772   6.660   4.609  10.554 -0.0853  0.4607 -0.0795
  237DOPC   GL1 2773   6.370   4.639  10.856 -0.1672  0.3608 -0.1361
  237DOPC   GL2 2774   6.583   4.491  11.051  0.1018  0.2661  0.1917
  237DOPC   C1A 2775   6.185   4.639  11.320  0.0965 -0.0584  0.0141
  237DOPC   D2A 2776   6.268   4.517  11.727 -0.0785  0.1084 -0.0094
  237DOPC   C3A 2777   6.610   4.480  12.067  0.1436  0.0319  0.2900
  237DOPC   C4A 2778   6.691   4.459  12.513  0.1453  0.0833  0.1149
  237DOPC   C1B 2779   6.680   4.724  11.363 -0.1725 -0.3720 -0.0600
  237DOPC   D2B 2780   6.905   4.986  11.675 -0.0818  0.3359  0.1251
  237DOPC   C3B 2781   7.083   4.808  12.044 -0.0285  0.2029  0.1419
  237DOPC   C4B 2782   7.136   4.361  12.283 -0.2848  0.0166 -0.0275
  238POSM   NC3 2783   7.891   0.960  10.170 -0.2052 -0.2726 -0.2904
  238POSM   PO4 2784   8.257   1.079  10.264  0.3860 -0.0542 -0.1704
  238POSM   AM1 2785   8.326   1.219  10.545 -0.2212  0.2744 -0.1271
  238POSM   AM2 2786   8.414   1.432  10.685  0.1494  0.3581  0.0321
  238POSM   T1A 2787   8.455   1.019  10.996  0.2825 -0.1722 -0.4304
  238POSM   C2A 2788   8.494   0.654  11.278 -0.3321 -0.1406  0.0876
  238POSM   C3A 2789   8.579   0.575  11.746 -0.1086  0.3153 -0.1686
  238POSM   C1B 2790   8.754   1.370  10.753  0.1771 -0.1502 -0.0109
  238POSM   D2B 2791   9.136   1.525  10.908 -0.1479 -0.2606  0.1269
  238POSM   C3B 2792   9.348   1.911  10.797 -0.0151 -0.0925 -0.1014
  238POSM   C4B 2793   9.355   2.329  10.788 -0.1867  0.0605  0.0648
  239POSM   NC3 2794   2.779   3.103   9.422  0.1534  0.1421 -0.0310
  239POSM   PO4 2795   2.489   3.097   9.679 -0.0856 -0.1095 -0.0385
  239POSM   AM1 2796   2.453   3.284   9.947  0.1323  0.0600  0.1201
  239POSM   AM2 2797   2.329   3.225  10.169  0.0035 -0.1302 -0.2213
  239POSM   T1A 2798   2.740   3.447  10.353  0.0869  0.1613  0.1751
  239POSM   C2A 2799   2.926   3.699  10.715  0.0259 -0.0917  0.0972
  239POSM   C3A 2800   2.796   3.841  11.179 -0.1823 -0.1310  0.0938
  239POSM   C1B 2801   2.374   3.158  10.490 -0.3423  0.0239 -0.2703
  239POSM   D2B 2802   2.292   2.760  10.728  0.1696  0.0775 -0.1767
  239POSM   C3B 2803   2.171   2.296  10.813  0.0115  0.0670 -0.1013
  239POSM   C4B 2804   1.766   2.033  10.717 -0.1948  0.0843  0.0992
  240DOPC   NC3 2805   4.239  34.339   9.916  0.1445 -0.1818  0.0801
  240DOPC   PO4 2806   4.367  34.694   9.905 -0.0444  0.2813 -0.1519
  240DOPC   GL1 2807   4.165  34.785  10.248 -0.2997  0.1357 -0.1212
  240DOPC   GL2 2808   4.024  34.552  10.342  0.0311  0.0249  0.0608
  240DOPC   C1A 2809   4.378  34.751  10.716  0.1468  0.0573  0.0563
  240DOPC   D2A 2810   4.726  34.901  11.060  0.0178 -0.0455 -0.0002
  240DOPC   C3A 2811   4.715  35.042  11.559  0.2254  0.0192  0.2753
  240DOPC   C4A 2812   4.815  35.355  11.904 -0.2384 -0.1349 -0.1353
  240DOPC   C1B 2813   3.837  34.847  10.640 -0.0538  0.0220  0.1318
  240DOPC   D2B 2814   4.010  35.137  11.020  0.2077 -0.0194 -0.1568
  240DOPC   C3B 2815   4.296  34.958  11.289  0.0183 -0.3335 -0.0937
  240DOPC   C4B 2816   4.267  34.758  11.719 -0.1112  0.1976 -0.3207
  241DOPE   NH3 2817   2.265   0.190   9.757  0.1946 -0.0989  0.0941
  241DOPE   PO4 2818   2.496   0.184   9.971  0.2161 -0.0849 -0.1517
  241DOPE   GL1 2819   2.564   0.282  10.385  0.1213  0.0518 -0.0603
  241DOPE   GL2 2820   2.263   0.389  10.418 -0.2076 -0.1293 -0.2277
  241DOPE   C1A 2821   2.513   0.309  10.846  0.2741  0.0801  0.2188
  241DOPE   D2A 2822   2.531   0.583  11.216  0.1706 -0.0617  0.0270
  241DOPE   C3A 2823   2.485   1.013  11.380 -0.0903 -0.1170 -0.0385
  241DOPE   C4A 2824   2.498   1.464  11.241 -0.1950 -0.1524 -0.0516
  241DOPE   C1B 2825   2.368   0.728  10.624 -0.1867  0.1320 -0.1035
  241DOPE   D2B 2826   2.309   1.076  10.921 -0.2477 -0.3620  0.0548
  241DOPE   C3B 2827   2.033   1.436  11.014  0.1572  0.0681  0.2359
  241DOPE   C4B 2828   1.772   1.836  11.165 -0.0334 -0.0321 -0.2532
  242POSM   NC3 2829   3.521  12.093  10.047 -0.2068 -0.0674  0.1790
  242POSM   PO4 2830   3.189  12.228  10.156  0.2523 -0.1413  0.3450
  242POSM   AM1 2831   3.309  12.149  10.445  0.1686  0.1588  0.2648
  242POSM   AM2 2832   3.394  12.329  10.602 -0.0747 -0.0462 -0.0762
  242POSM   T1A 2833   3.280  11.968  10.917 -0.0682  0.1728  0.1205
  242POSM   C2A 2834   3.422  11.830  11.326 -0.0367 -0.0805  0.2895
  242POSM   C3A 2835   3.471  11.682  11.751 -0.1264  0.0245 -0.1929
  242POSM   C1B 2836   3.313  12.592  10.836 -0.0347 -0.1154  0.1310
  242POSM   D2B 2837   3.306  12.858  11.227 -0.0363 -0.0572  0.0135
  242POSM   C3B 2838   3.458  12.849  11.663  0.0610  0.2475 -0.1920
  242POSM   C4B 2839   3.460  12.729  12.116  0.2295 -0.0335 -0.0104
  243POSM   NC3 2840   5.107  31.967   9.909  0.2771  0.0193 -0.1315
  243POSM   PO4 2841   4.723  32.073   9.810  0.0318 -0.0702  0.1022
  243POSM   AM1 2842   4.656  32.212  10.106 -0.1882  0.2228  0.3351
  243POSM   AM2 2843   4.557  32.464  10.138  0.0057  0.0090 -0.1425
  243POSM   T1A 2844   4.519  32.068  10.577 -0.0588  0.2478  0.0688
  243POSM   C2A 2845   4.803  31.796  10.814  0.3862  0.0167  0.4371
  243POSM   C3A 2846   5.060  31.771  11.195  0.0584  0.1348 -0.0676
  243POSM   C1B 2847   4.460  32.549  10.451 -0.1886 -0.0724  0.0634
  243POSM   D2B 2848   4.440  32.412  10.930 -0.0364  0.1079 -0.0340
  243POSM   C3B 2849   4.588  32.025  11.195  0.1093 -0.2111 -0.1351
  243POSM   C4B 2850   4.766  31.776  11.581  0.1584  0.1681 -0.0476
  244DOPS   CNO 2851   8.556   5.535  10.959 -0.2265 -0.3671  0.2806
  244DOPS   PO4 2852   8.197   5.639  10.823  0.2045  0.0527 -0.0608
  244DOPS   GL1 2853   8.021   5.894  11.119  0.1905  0.1589 -0.4359
  244DOPS   GL2 2854   8.249   5.743  11.287 -0.4013 -0.2908 -0.3351
  244DOPS   C1A 2855   7.842   6.160  11.458  0.2786  0.0121  0.1822
  244DOPS   D2A 2856   7.647   6.262  11.839  0.0344 -0.2471  0.0944
  244DOPS   C3A 2857   7.617   6.466  12.246 -0.0735  0.0884  0.0410
  244DOPS   C4A 2858   7.848   6.495  12.663 -0.1613 -0.1584  0.0368
  244DOPS   C1B 2859   8.367   5.983  11.674  0.0012  0.2724  0.0235
  244DOPS   D2B 2860   8.664   6.023  12.025  0.0973 -0.3577  0.0082
  244DOPS   C3B 2861   9.002   6.228  12.213 -0.1384  0.2025 -0.1506
  244DOPS   C4B 2862   9.382   6.505  12.224  0.0783 -0.2359  0.3708
  245DOPC   NC3 2863   4.656   7.565   9.851 -0.1061 -0.1397 -0.2659
  245DOPC   PO4 2864   4.536   7.710  10.164 -0.2397  0.2638  0.0300
  245DOPC   GL1 2865   4.754   7.995  10.442 -0.3223 -0.3472  0.0616
  245DOPC   GL2 2866   4.772   8.224  10.622  0.0288 -0.0600  0.4295
  245DOPC   C1A 2867   4.730   7.780  10.831 -0.0667 -0.0569  0.1662
  245DOPC   D2A 2868   4.630   7.464  11.159 -0.1027 -0.2359 -0.0508
  245DOPC   C3A 2869   4.280   7.459  11.505 -0.0784  0.2790  0.0002
  245DOPC   C4A 2870   4.311   7.606  11.943 -0.0698  0.1512  0.2922
  245DOPC   C1B 2871   4.678   8.273  11.064 -0.1751 -0.3796  0.0617
  245DOPC   D2B 2872   4.594   8.293  11.513 -0.2892  0.0322 -0.0142
  245DOPC   C3B 2873   4.507   8.578  11.832  0.0272  0.1512 -0.0500
  245DOPC   C4B 2874   4.533   8.963  12.115  0.3099 -0.1048  0.0576
  246POSM   NC3 2875   0.065   2.833  10.286 -0.1661  0.2503  0.0311
  246POSM   PO4 2876  -0.315   2.729  10.137 -0.1514  0.0332 -0.3591
  246POSM   AM1 2877  -0.427   2.764  10.440  0.1495 -0.0131  0.1998
  246POSM   AM2 2878  -0.652   2.680  10.575  0.2272  0.2071  0.2151
  246POSM   T1A 2879  -0.283   2.649  10.910 -0.0967  0.1890  0.2808
  246POSM   C2A 2880  -0.074   2.776  11.300 -0.2890  0.3073  0.4179
  246POSM   C3A 2881   0.373   2.997  11.302 -0.0179 -0.0278  0.1027
  246POSM   C1B 2882  -0.737   2.609  10.864 -0.0808 -0.0295  0.0151
  246POSM   D2B 2883  -0.860   2.524  11.351  0.0256 -0.2026  0.0537
  246POSM   C3B 2884  -1.001   2.705  11.743 -0.0605 -0.2020  0.2302
  246POSM   C4B 2885  -0.991   2.766  12.206  0.3389 -0.1104 -0.0098
  247DOPE   NH3 2886   6.005   2.697  10.361  0.0255  0.1030  0.1107
  247DOPE   PO4 2887   6.143   2.452  10.489  0.1910 -0.1432 -0.0912
  247DOPE   GL1 2888   5.885   2.293  10.758  0.0074 -0.0041  0.1989
  247DOPE   GL2 2889   5.680   2.449  10.687 -0.0070 -0.1340  0.1364
  247DOPE   C1A 2890   5.924   1.973  11.116 -0.0063  0.0445 -0.0705
  247DOPE   D2A 2891   5.796   1.608  11.302  0.4693  0.0148  0.3948
  247DOPE   C3A 2892   6.141   1.510  11.573 -0.2386 -0.3857  0.3058
  247DOPE   C4A 2893   6.525   1.407  11.780 -0.0463 -0.2969 -0.0203
  247DOPE   C1B 2894   5.675   2.672  11.129 -0.2765 -0.0004 -0.1651
  247DOPE   D2B 2895   5.621   2.885  11.518 -0.1242 -0.0108  0.0498
  247DOPE   C3B 2896   5.728   2.524  11.809  0.2444 -0.0440 -0.0346
  247DOPE   C4B 2897   5.977   2.192  11.950 -0.0194 -0.0497  0.0445
  248POSM   NC3 2898   2.470   6.184  10.147 -0.0522  0.1015  0.3597
  248POSM   PO4 2899   2.676   5.878  10.104 -0.1116 -0.0436  0.1182
  248POSM   AM1 2900   2.609   5.886  10.440 -0.0518  0.1569  0.3394
  248POSM   AM2 2901   2.720   6.035  10.633 -0.4883 -0.1408  0.1565
  248POSM   T1A 2902   2.337   5.795  10.887  0.1711 -0.0048  0.2895
  248POSM   C2A 2903   2.205   5.724  11.333  0.0883 -0.0913 -0.0394
  248POSM   C3A 2904   2.285   5.505  11.773 -0.0532 -0.0571  0.0233
  248POSM   C1B 2905   2.699   6.162  10.913 -0.2163 -0.0300  0.1581
  248POSM   D2B 2906   2.660   6.220  11.362  0.1777 -0.0588 -0.3396
  248POSM   C3B 2907   3.012   6.227  11.614  0.1537 -0.1154 -0.1402
  248POSM   C4B 2908   3.308   6.505  11.864 -0.0120  0.2475 -0.1519
  249POSM   NC3 2909   7.324   5.669  10.532 -0.0324 -0.0731 -0.1928
  249POSM   PO4 2910   7.152   5.531  10.892  0.1547  0.0788 -0.2719
  249POSM   AM1 2911   7.100   5.680  11.182  0.0004  0.1047  0.0303
  249POSM   AM2 2912   7.031   5.657  11.470 -0.1611  0.0399  0.0887
  249POSM   T1A 2913   7.138   6.143  11.368  0.0795  0.1612  0.0834
  249POSM   C2A 2914   7.129   6.486  11.652  0.0977 -0.0450  0.1027
  249POSM   C3A 2915   7.220   6.624  12.047 -0.0915  0.0396  0.1911
  249POSM   C1B 2916   6.949   5.529  11.751 -0.1712  0.0783  0.1288
  249POSM   D2B 2917   6.558   5.398  11.994 -0.0321  0.4232 -0.3370
  249POSM   C3B 2918   6.401   5.620  12.366 -0.0055  0.1378  0.2252
  249POSM   C4B 2919   6.179   5.560  12.755 -0.3287 -0.1554 -0.1384
  250POSM   NC3 2920   3.751   4.698  10.581 -0.0911 -0.0472  0.0241
  250POSM   PO4 2921   3.486   4.964  10.420  0.1724  0.2253 -0.0475
  250POSM   AM1 2922   3.328   4.969  10.694  0.0952  0.2285 -0.1672
  250POSM   AM2 2923   3.484   4.969  10.919 -0.0415  0.3536  0.0785
  250POSM   T1A 2924   3.043   5.168  11.064 -0.2040 -0.2252 -0.0851
  250POSM   C2A 2925   3.034   5.203  11.476  0.0847 -0.0019  0.0362
  250POSM   C3A 2926   2.864   5.332  11.871 -0.1328  0.0915 -0.2664
  250POSM   C1B 2927   3.525   5.040  11.246 -0.0360 -0.2351  0.2274
  250POSM   D2B 2928   3.687   5.309  11.581  0.2995  0.1425  0.0296
  250POSM   C3B 2929   3.705   4.988  11.872 -0.0760  0.0290 -0.0517
  250POSM   C4B 2930   3.776   4.560  11.882  0.3757 -0.0801  0.1983
  251DOPS   CNO 2931  11.850   4.914  10.504 -0.0065 -0.1811 -0.1787
  251DOPS   PO4 2932  12.010   4.608  10.450  0.0638  0.0078 -0.1947
  251DOPS   GL1 2933  11.765   4.602  10.807  0.2197 -0.3768 -0.0349
  251DOPS   GL2 2934  11.799   4.855  10.960 -0.3392  0.1185  0.0356
  251DOPS   C1A 2935  12.025   4.338  11.063  0.3233 -0.0914  0.1529
  251DOPS   D2A 2936  11.955   3.929  11.227 -0.0611  0.3122 -0.2034
  251DOPS   C3A 2937  11.999   3.807  11.654  0.0023 -0.0984  0.0028
  251DOPS   C4A 2938  12.098   4.038  12.025  0.2311 -0.0441  0.0292
  251DOPS   C1B 2939  11.605   5.022  11.355  0.0084  0.1100  0.3047
  251DOPS   D2B 2940  11.569   5.020  11.782  0.0162 -0.3756 -0.0017
  251DOPS   C3B 2941  11.384   5.340  12.086  0.0255  0.4292 -0.1743
  251DOPS   C4B 2942  11.673   5.548  12.391  0.0837 -0.2846  0.2238
  252POSM   NC3 2943   9.396   0.525  10.530  0.0698 -0.3593 -0.0198
  252POSM   PO4 2944   9.082   0.712  10.704  0.0233 -0.3031 -0.0371
  252POSM   AM1 2945   8.932   0.839  10.967  0.0914  0.0953 -0.2156
  252POSM   AM2 2946   8.924   1.073  11.109 -0.1029 -0.0878  0.3236
  252POSM   T1A 2947   8.962   0.678  11.455 -0.2430  0.0515  0.2482
  252POSM   C2A 2948   9.177   0.637  11.861 -0.0402  0.0882  0.0149
  252POSM   C3A 2949   9.197   0.729  12.328  0.1758  0.0213 -0.1774
  252POSM   C1B 2950   8.840   1.302  11.305  0.0760 -0.0972 -0.4163
  252POSM   D2B 2951   8.582   1.675  11.576 -0.0844 -0.2395  0.1910
  252POSM   C3B 2952   8.105   1.538  11.763  0.3124  0.0511 -0.0829
  252POSM   C4B 2953   7.932   1.118  11.892  0.0336 -0.0068  0.2836
  253DOPE   NH3 2954  11.492   4.507  10.362  0.4490 -0.0965 -0.0194
  253DOPE   PO4 2955  11.464   4.201  10.327  0.0528  0.2750 -0.2707
  253DOPE   GL1 2956  11.429   4.020  10.657 -0.0050  0.2205 -0.3081
  253DOPE   GL2 2957  11.623   4.123  10.853 -0.3965 -0.1962 -0.1129
  253DOPE   C1A 2958  11.128   4.123  11.026  0.2700  0.1610 -0.1111
  253DOPE   D2A 2959  11.205   4.242  11.504  0.1661  0.5389  0.1990
  253DOPE   C3A 2960  11.066   4.128  11.927 -0.3020  0.0232 -0.1172
  253DOPE   C4A 2961  11.132   3.856  12.286 -0.1684  0.0818  0.2767
  253DOPE   C1B 2962  11.492   3.938  11.306  0.2456 -0.1692 -0.0697
  253DOPE   D2B 2963  11.303   3.769  11.722 -0.0767  0.0639 -0.0097
  253DOPE   C3B 2964  11.578   3.628  11.990 -0.2585  0.0668  0.0317
  253DOPE   C4B 2965  11.930   3.391  11.977 -0.1637  0.4078 -0.2293
  254DOPE   NH3 2966  10.210  11.840  10.840  0.0597  0.0749  0.2824
  254DOPE   PO4 2967  10.285  11.896  11.160  0.1594 -0.4042  0.1359
  254DOPE   GL1 2968   9.974  11.700  11.284 -0.2004 -0.0604 -0.1117
  254DOPE   GL2 2969   9.791  11.906  11.386  0.0306 -0.0366  0.4284
  254DOPE   C1A 2970   9.737  11.539  11.705 -0.0804  0.0355 -0.2724
  254DOPE   D2A 2971   9.436  11.299  11.987 -0.1074  0.0681 -0.2039
  254DOPE   C3A 2972   9.590  11.314  12.418 -0.4495  0.0181  0.1471
  254DOPE   C4A 2973   9.705  11.421  12.829 -0.0827  0.0974 -0.2752
  254DOPE   C1B 2974   9.977  12.131  11.792 -0.0021 -0.1820  0.0762
  254DOPE   D2B 2975   9.939  12.344  12.190 -0.1096 -0.1549 -0.3241
  254DOPE   C3B 2976   9.954  12.239  12.614 -0.0847 -0.0525 -0.0600
  254DOPE   C4B 2977   9.963  12.333  13.084 -0.1346  0.0024 -0.0821
  255DOPE   NH3 2978   5.741   8.389  10.523  0.4906  0.2048 -0.1185
  255DOPE   PO4 2979   6.041   8.282  10.468  0.2174  0.0133  0.1925
  255DOPE   GL1 2980   6.179   8.148  10.808 -0.1703  0.1347  0.0167
  255DOPE   GL2 2981   6.187   8.422  10.974  0.2008  0.1632  0.4075
  255DOPE   C1A 2982   6.077   7.858  11.176 -0.0899  0.0303 -0.0554
  255DOPE   D2A 2983   6.292   7.830  11.591  0.1695  0.0818 -0.0133
  255DOPE   C3A 2984   6.115   7.877  12.015  0.1518  0.2824  0.0596
  255DOPE   C4A 2985   5.917   8.109  12.409 -0.1186  0.1081 -0.0101
  255DOPE   C1B 2986   6.442   8.315  11.291  0.1504 -0.0606  0.4120
  255DOPE   D2B 2987   6.543   8.260  11.784  0.1471 -0.0416  0.0806
  255DOPE   C3B 2988   6.618   7.918  12.129  0.0425  0.0634 -0.4388
  255DOPE   C4B 2989   6.507   7.603  12.440  0.1471  0.2836  0.0815
  256DOPE   NH3 2990  30.753  34.118   9.887  0.1304  0.2197 -0.1540
  256DOPE   PO4 2991  30.975  34.377   9.897 -0.0822 -0.0185  0.2049
  256DOPE   GL1 2992  31.251  34.156  10.098 -0.3959  0.0896 -0.0408
  256DOPE   GL2 2993  31.350  34.435  10.261  0.2150 -0.2202 -0.0040
  256DOPE   C1A 2994  31.123  34.107  10.568  0.0122  0.0476  0.1387
  256DOPE   D2A 2995  31.133  33.806  10.928 -0.3267  0.1855 -0.1455
  256DOPE   C3A 2996  31.237  34.076  11.290 -0.0423 -0.1899 -0.0909
  256DOPE   C4A 2997  31.161  34.271  11.690  0.1263 -0.4186  0.1142
  256DOPE   C1B 2998  31.281  34.564  10.691 -0.1141 -0.0609 -0.1246
  256DOPE   D2B 2999  31.427  34.791  11.069 -0.2889  0.2619 -0.2154
  256DOPE   C3B 3000  31.670  34.558  11.392  0.1076  0.1833  0.2198
  256DOPE   C4B 3001  32.102  34.287  11.567  0.1810 -0.1402 -0.0179
  257POSM   NC3 3002   0.532  34.394   8.775  0.1798 -0.1661 -0.0264
  257POSM   PO4 3003   0.704  34.463   9.163 -0.0354 -0.2429 -0.1847
  257POSM   AM1 3004   0.817  34.552   9.483 -0.0025  0.0841 -0.1385
  257POSM   AM2 3005   0.789  34.439   9.753  0.3442  0.3199  0.0665
  257POSM   T1A 3006   0.927  34.872   9.865  0.0323 -0.3011  0.0462
  257POSM   C2A 3007   0.793  35.078  10.242 -0.2309  0.2379  0.0109
  257POSM   C3A 3008   0.432  35.146  10.509  0.0143  0.0509 -0.0115
  257POSM   C1B 3009   0.717  34.504  10.115  0.0829  0.0464 -0.1571
  257POSM   D2B 3010   0.849  34.689  10.547  0.1770  0.0875 -0.0637
  257POSM   C3B 3011   0.580  34.805  10.960  0.2005  0.0786  0.3001
  257POSM   C4B 3012   0.768  34.903  11.341  0.3008 -0.1429  0.1180
  258DOPC   NC3 3013  13.023   8.266  11.444  0.1451  0.3370  0.0098
  258DOPC   PO4 3014  12.646   8.199  11.275 -0.0336 -0.1106 -0.2222
  258DOPC   GL1 3015  12.624   7.939  11.571 -0.2846 -0.0090  0.2507
  258DOPC   GL2 3016  12.727   7.645  11.574 -0.5753 -0.0506 -0.1096
  258DOPC   C1A 3017  12.944   8.021  11.887 -0.1093 -0.0100 -0.0977
  258DOPC   D2A 3018  12.838   7.796  12.310 -0.3737 -0.2732  0.1605
  258DOPC   C3A 3019  12.466   7.970  12.096  0.2321 -0.0978  0.3504
  258DOPC   C4A 3020  12.171   8.198  11.897 -0.2370  0.0471 -0.1722
  258DOPC   C1B 3021  13.090   7.382  11.538 -0.2191 -0.1108 -0.0619
  258DOPC   D2B 3022  13.514   7.175  11.566  0.1043  0.2085  0.1670
  258DOPC   C3B 3023  13.891   7.288  11.702  0.0856  0.0939 -0.0814
  258DOPC   C4B 3024  14.135   7.507  12.006  0.3770 -0.1961  0.2514
  259DOPC   NC3 3025   5.150   7.673  10.513 -0.0845  0.1409 -0.1365
  259DOPC   PO4 3026   5.307   8.033  10.395 -0.1605  0.0620 -0.0393
  259DOPC   GL1 3027   5.482   7.979  10.671  0.0690 -0.2247 -0.0048
  259DOPC   GL2 3028   5.554   7.730  10.780  0.1725  0.1692  0.1778
  259DOPC   C1A 3029   5.656   8.189  11.052 -0.1684 -0.1211 -0.0929
  259DOPC   D2A 3030   5.920   8.242  11.391  0.0365 -0.0801  0.0078
  259DOPC   C3A 3031   5.836   8.299  11.852  0.0222 -0.0886 -0.0554
  259DOPC   C4A 3032   6.053   8.576  12.176  0.2261  0.5138  0.4084
  259DOPC   C1B 3033   5.548   7.772  11.282 -0.0121  0.2124  0.0731
  259DOPC   D2B 3034   5.787   7.825  11.666  0.2143  0.0290 -0.0336
  259DOPC   C3B 3035   5.589   7.743  12.066  0.0391 -0.1509 -0.1795
  259DOPC   C4B 3036   5.536   7.626  12.522 -0.0037 -0.2300 -0.1946
  260POSM   NC3 3037   1.757   4.497   9.247 -0.0008  0.1956 -0.2540
  260POSM   PO4 3038   1.898   4.378   9.584 -0.2766 -0.1018  0.0808
  260POSM   AM1 3039   1.891   4.179   9.847 -0.1317 -0.0684 -0.0965
  260POSM   AM2 3040   1.707   4.088  10.026 -0.0043  0.1647 -0.2433
  260POSM   T1A 3041   2.111   4.051  10.267  0.0106 -0.0422 -0.1154
  260POSM   C2A 3042   2.186   4.343  10.627  0.1555  0.1419  0.1208
  260POSM   C3A 3043   2.014   4.494  11.012  0.0006  0.1099  0.2276
  260POSM   C1B 3044   1.620   4.209  10.344 -0.0421 -0.2153  0.0095
  260POSM   D2B 3045   1.580   4.424  10.806  0.2888  0.0289  0.0644
  260POSM   C3B 3046   1.701   4.153  11.181 -0.2934 -0.1113  0.0898
  260POSM   C4B 3047   2.052   4.197  11.521  0.1714  0.0814  0.1164
  261POSM   NC3 3048  10.232   4.780  10.396 -0.0269  0.1445 -0.3198
  261POSM   PO4 3049  10.608   4.880  10.480 -0.0279 -0.0726  0.1627
  261POSM   AM1 3050  10.527   4.742  10.748 -0.0159  0.1101 -0.5108
  261POSM   AM2 3051  10.550   4.899  10.992 -0.1507  0.2009 -0.1721
  261POSM   T1A 3052  10.308   4.457  11.153  0.2140 -0.1854  0.1715
  261POSM   C2A 3053   9.911   4.385  11.318  0.1533 -0.0439 -0.2780
  261POSM   C3A 3054   9.707   4.172  11.616  0.1600  0.3152 -0.0781
  261POSM   C1B 3055  10.499   4.898  11.302 -0.0238 -0.2028 -0.1156
  261POSM   D2B 3056  10.465   4.907  11.794  0.0014 -0.1466  0.1089
  261POSM   C3B 3057  10.620   5.167  12.173 -0.0530  0.0082  0.2660
  261POSM   C4B 3058  10.574   4.947  12.591  0.4404 -0.4120 -0.1762
  262DOPS   CNO 3059   8.378   1.884  10.532  0.1104  0.1736  0.1197
  262DOPS   PO4 3060   8.649   1.842  10.235 -0.2108 -0.0021  0.0439
  262DOPS   GL1 3061   8.770   1.788  10.693 -0.3789 -0.4793  0.0558
  262DOPS   GL2 3062   8.851   1.984  10.794 -0.0384  0.0021  0.0321
  262DOPS   C1A 3063   8.480   1.774  11.057 -0.2743  0.1753 -0.0052
  262DOPS   D2A 3064   8.242   1.388  11.237  0.2137  0.2185 -0.3554
  262DOPS   C3A 3065   8.515   1.088  11.581  0.1064 -0.0249  0.2377
  262DOPS   C4A 3066   8.790   0.993  11.851  0.4939  0.0355 -0.1883
  262DOPS   C1B 3067   8.928   1.817  11.263  0.2967 -0.1295  0.2505
  262DOPS   D2B 3068   9.078   1.713  11.705 -0.1396 -0.2762 -0.0087
  262DOPS   C3B 3069   8.798   1.524  12.012 -0.1645 -0.3254 -0.1652
  262DOPS   C4B 3070   8.400   1.430  12.200  0.0986 -0.2606 -0.2058
  263DOPE   NH3 3071   8.338   5.155  10.676  0.1953  0.1224 -0.0679
  263DOPE   PO4 3072   8.546   4.983  10.826 -0.2020 -0.1087 -0.2627
  263DOPE   GL1 3073   8.384   5.132  11.179  0.1647  0.0860 -0.3658
  263DOPE   GL2 3074   8.145   5.242  11.116  0.0011  0.1472 -0.2228
  263DOPE   C1A 3075   8.420   5.385  11.598 -0.4127  0.0364  0.2865
  263DOPE   D2A 3076   8.352   5.578  11.965 -0.1918  0.2159  0.2133
  263DOPE   C3A 3077   7.923   5.570  12.201  0.1211 -0.1749  0.1063
  263DOPE   C4A 3078   7.700   5.258  12.374 -0.1313 -0.0152 -0.0779
  263DOPE   C1B 3079   7.934   5.365  11.500 -0.5485  0.0683  0.0737
  263DOPE   D2B 3080   7.880   5.747  11.715  0.0607  0.0921 -0.0020
  263DOPE   C3B 3081   7.459   5.827  11.668  0.0402 -0.1170 -0.0353
  263DOPE   C4B 3082   7.099   6.035  11.863  0.1362 -0.2131  0.0871
  264DOPC   NC3 3083   7.762   5.515  10.896 -0.0650 -0.1354 -0.2191
  264DOPC   PO4 3084   7.873   5.134  10.741  0.0149  0.0273 -0.3048
  264DOPC   GL1 3085   7.738   5.133  11.164  0.0490 -0.0034 -0.0894
  264DOPC   GL2 3086   7.765   4.811  11.092 -0.2907 -0.2213 -0.0943
  264DOPC   C1A 3087   7.399   5.299  11.477  0.0125 -0.3920 -0.0814
  264DOPC   D2A 3088   7.440   5.369  11.930 -0.2271  0.4026 -0.0146
  264DOPC   C3A 3089   7.460   5.713  12.153 -0.1246 -0.2079  0.2493
  264DOPC   C4A 3090   7.225   6.047  12.424 -0.1980  0.0671 -0.0952
  264DOPC   C1B 3091   7.672   4.458  11.388 -0.0404 -0.2588 -0.1650
  264DOPC   D2B 3092   7.434   4.087  11.471  0.1534  0.0627 -0.1293
  264DOPC   C3B 3093   7.453   3.660  11.618 -0.1007 -0.0049 -0.1091
  264DOPC   C4B 3094   7.648   3.356  11.862 -0.1742  0.0585  0.1405
  265DOPC   NC3 3095   6.487   5.038  10.978  0.3014  0.1768 -0.2628
  265DOPC   PO4 3096   6.487   5.353  10.654  0.3382 -0.1741 -0.1399
  265DOPC   GL1 3097   6.290   5.464  11.069 -0.0574  0.1926  0.0535
  265DOPC   GL2 3098   6.598   5.631  11.077 -0.0837  0.1068  0.1247
  265DOPC   C1A 3099   6.446   5.455  11.504  0.0676 -0.2361  0.2482
  265DOPC   D2A 3100   6.441   5.031  11.659 -0.0444  0.0871  0.0744
  265DOPC   C3A 3101   6.379   4.949  12.111  0.0643  0.1166  0.4556
  265DOPC   C4A 3102   6.538   4.929  12.545  0.3870 -0.0125  0.0883
  265DOPC   C1B 3103   6.642   5.987  11.354  0.1962 -0.3147  0.0790
  265DOPC   D2B 3104   6.675   6.213  11.727 -0.1441  0.3966  0.2147
  265DOPC   C3B 3105   6.830   6.247  12.190 -0.2852 -0.2620  0.2631
  265DOPC   C4B 3106   7.034   6.516  12.503  0.2068 -0.2328 -0.3131
  266DOPC   NC3 3107   5.830   4.831  10.391 -0.3368  0.0325  0.3318
  266DOPC   PO4 3108   5.663   5.164  10.254  0.2326  0.0032  0.1444
  266DOPC   GL1 3109   5.500   5.278  10.596  0.4421 -0.1912  0.0211
  266DOPC   GL2 3110   5.463   5.527  10.716  0.0185  0.1153 -0.0308
  266DOPC   C1A 3111   5.067   5.162  10.754  0.3411  0.2626 -0.0251
  266DOPC   D2A 3112   4.920   5.125  11.210  0.0157 -0.0807 -0.1064
  266DOPC   C3A 3113   5.020   5.403  11.518 -0.2027  0.1616  0.3246
  266DOPC   C4A 3114   5.086   5.206  11.917  0.1629  0.0610  0.0499
  266DOPC   C1B 3115   5.332   5.754  11.059  0.3109  0.0690  0.0483
  266DOPC   D2B 3116   5.615   5.957  11.327 -0.1462  0.0477  0.2815
  266DOPC   C3B 3117   5.594   5.766  11.743  0.0756  0.3851  0.0537
  266DOPC   C4B 3118   5.411   5.629  12.133  0.1882  0.2257 -0.1978
  267DOPE   NH3 3119   6.576  32.702   9.583 -0.1992 -0.1294 -0.0901
  267DOPE   PO4 3120   6.324  32.792   9.795  0.0030  0.2510  0.4357
  267DOPE   GL1 3121   6.451  32.586  10.178 -0.0737 -0.0908 -0.1151
  267DOPE   GL2 3122   6.639  32.721  10.335  0.0476  0.1759 -0.0917
  267DOPE   C1A 3123   6.250  32.587  10.600  0.0418 -0.2604 -0.1807
  267DOPE   D2A 3124   5.867  32.530  10.863  0.0499 -0.0890 -0.3174
  267DOPE   C3A 3125   5.772  32.880  11.190 -0.0583 -0.0691  0.1184
  267DOPE   C4A 3126   5.650  33.207  11.514  0.4195 -0.0832  0.1953
  267DOPE   C1B 3127   6.757  32.519  10.786 -0.0789  0.0176 -0.0490
  267DOPE   D2B 3128   6.819  32.351  11.197 -0.0567 -0.0072 -0.1320
  267DOPE   C3B 3129   6.465  32.273  11.481  0.0481  0.0144  0.0999
  267DOPE   C4B 3130   6.066  32.514  11.411 -0.2319  0.0571  0.1078
  268DOPC   NC3 3131  10.628   5.747  10.642 -0.5276  0.1447 -0.2464
  268DOPC   PO4 3132  10.791   5.376  10.750 -0.1267 -0.2224  0.0196
  268DOPC   GL1 3133  10.811   5.267  11.148 -0.2824 -0.1602  0.3588
  268DOPC   GL2 3134  10.985   5.021  11.253 -0.0430  0.1018  0.0745
  268DOPC   C1A 3135  10.629   5.379  11.535  0.1528 -0.1417  0.2064
  268DOPC   D2A 3136  10.224   5.337  11.686  0.1538  0.0482 -0.2760
  268DOPC   C3A 3137  10.149   5.357  12.141 -0.3736  0.1155 -0.1153
  268DOPC   C4A 3138  10.111   5.208  12.588  0.0793  0.1726  0.2362
  268DOPC   C1B 3139  11.095   4.724  11.603  0.1390  0.2290 -0.0866
  268DOPC   D2B 3140  11.378   4.592  11.960  0.0467 -0.1413 -0.0895
  268DOPC   C3B 3141  11.561   4.938  12.236 -0.1821  0.0824 -0.0084
  268DOPC   C4B 3142  11.749   5.001  12.644  0.0605 -0.0173 -0.2317
  269POSM   NC3 3143   5.508   0.604  10.344  0.1590  0.1530  0.1217
  269POSM   PO4 3144   5.200   0.562  10.103  0.0663 -0.1579 -0.0091
  269POSM   AM1 3145   5.067   0.398  10.343  0.1772  0.3410 -0.0093
  269POSM   AM2 3146   5.018   0.522  10.585 -0.0144 -0.1634  0.0833
  269POSM   T1A 3147   4.918   0.041  10.654 -0.1361 -0.1304  0.1764
  269POSM   C2A 3148   4.700  -0.291  10.911  0.3427  0.2065 -0.1524
  269POSM   C3A 3149   4.462  -0.242  11.302 -0.3273  0.3557 -0.2024
  269POSM   C1B 3150   4.744   0.707  10.748 -0.2048  0.0708  0.0362
  269POSM   D2B 3151   4.584   0.685  11.169  0.2073 -0.0011  0.0319
  269POSM   C3B 3152   4.485   0.786  11.587 -0.3999  0.2179  0.0707
  269POSM   C4B 3153   4.334   0.522  11.934 -0.1358 -0.2072 -0.0520
  270DOPS   CNO 3154   1.034  30.738   9.856 -0.1382  0.0626 -0.0344
  270DOPS   PO4 3155   1.318  30.743  10.094  0.3780  0.1835 -0.2338
  270DOPS   GL1 3156   1.264  30.766  10.444 -0.3160  0.2483  0.1369
  270DOPS   GL2 3157   1.396  30.515  10.665 -0.3170  0.1107 -0.4314
  270DOPS   C1A 3158   1.027  31.052  10.719 -0.0741  0.2243 -0.1930
  270DOPS   D2A 3159   1.188  31.276  11.139 -0.0660 -0.1716 -0.0378
  270DOPS   C3A 3160   1.350  30.925  11.446  0.2709  0.2387 -0.1785
  270DOPS   C4A 3161   1.419  30.515  11.627 -0.4145 -0.0072 -0.1022
  270DOPS   C1B 3162   1.466  30.902  10.896 -0.3908  0.1845  0.2179
  270DOPS   D2B 3163   1.875  31.106  10.977  0.4054 -0.2871  0.1379
  270DOPS   C3B 3164   2.115  31.130  11.340 -0.4061 -0.0807  0.1153
  270DOPS   C4B 3165   2.436  31.162  11.635 -0.2192  0.3639 -0.0428
  271DOPE   NH3 3166   2.826   4.459   9.851  0.1113 -0.2176  0.2050
  271DOPE   PO4 3167   2.771   4.228   9.976  0.0974  0.1039  0.0394
  271DOPE   GL1 3168   2.615   4.215  10.331 -0.2957 -0.1787  0.2162
  271DOPE   GL2 3169   2.634   4.525  10.468 -0.1966  0.0026 -0.0190
  271DOPE   C1A 3170   2.452   3.882  10.595  0.1337  0.1728  0.2040
  271DOPE   D2A 3171   2.311   3.485  10.878 -0.0509 -0.3198  0.2117
  271DOPE   C3A 3172   2.736   3.357  11.052  0.1162  0.0156  0.0708
  271DOPE   C4A 3173   3.022   3.396  11.415 -0.1841  0.0016  0.0047
  271DOPE   C1B 3174   2.659   4.289  10.849  0.3677 -0.0286 -0.0847
  271DOPE   D2B 3175   2.313   4.018  11.100 -0.0256  0.0386  0.1861
  271DOPE   C3B 3176   2.303   3.701  11.490 -0.0048 -0.1943  0.1862
  271DOPE   C4B 3177   1.899   3.587  11.581 -0.0646  0.1012 -0.0203
  272POSM   NC3 3178  33.119  33.504   9.405 -0.2741  0.2389  0.0992
  272POSM   PO4 3179  32.995  33.371   9.772 -0.1895  0.4795 -0.4598
  272POSM   AM1 3180  33.028  33.529  10.079  0.2583 -0.3135 -0.2235
  272POSM   AM2 3181  32.863  33.723  10.212  0.1533 -0.1204  0.0269
  272POSM   T1A 3182  33.251  33.502  10.535 -0.2185 -0.0322  0.1773
  272POSM   C2A 3183  33.705  33.383  10.644 -0.2249 -0.3487  0.4459
  272POSM   C3A 3184  33.957  33.302  11.008  0.1770 -0.1814  0.0411
  272POSM   C1B 3185  32.933  33.865  10.511 -0.1304  0.3680 -0.1389
  272POSM   D2B 3186  33.163  33.838  10.972 -0.0675  0.0007 -0.1802
  272POSM   C3B 3187  33.152  33.384  11.130  0.2436  0.4536  0.0956
  272POSM   C4B 3188  32.967  33.026  10.843  0.0771  0.1857  0.0762
  273DOPC   NC3 3189   6.952   6.021  10.884  0.0046  0.0919  0.2824
  273DOPC   PO4 3190   7.171   6.148  10.571  0.3003 -0.2256 -0.2545
  273DOPC   GL1 3191   7.208   6.378  10.959 -0.1398 -0.4389  0.0714
  273DOPC   GL2 3192   7.406   6.563  10.988 -0.0857  0.3328  0.4924
  273DOPC   C1A 3193   6.830   6.612  11.225 -0.0316 -0.0611 -0.0959
  273DOPC   D2A 3194   6.644   6.711  11.637 -0.0827  0.0368 -0.1485
  273DOPC   C3A 3195   6.496   6.531  12.046 -0.0593 -0.0245 -0.0284
  273DOPC   C4A 3196   6.081   6.491  12.200  0.1609  0.0081  0.1053
  273DOPC   C1B 3197   7.590   6.616  11.462 -0.1528  0.1685  0.2572
  273DOPC   D2B 3198   7.721   6.785  11.930  0.0717 -0.0780 -0.0933
  273DOPC   C3B 3199   8.073   6.649  12.239  0.2091  0.0172  0.0821
  273DOPC   C4B 3200   8.262   6.732  12.661 -0.1402  0.1619  0.1177
  274DOPS   CNO 3201   3.790  32.927  10.244  0.1633 -0.0161 -0.3557
  274DOPS   PO4 3202   3.829  33.266  10.090  0.0201  0.2029  0.3864
  274DOPS   GL1 3203   3.931  33.253  10.487  0.1451  0.2047 -0.2120
  274DOPS   GL2 3204   4.126  33.431  10.589  0.2341  0.1191 -0.1384
  274DOPS   C1A 3205   3.777  33.105  10.904 -0.1159 -0.0332 -0.2035
  274DOPS   D2A 3206   3.738  32.779  11.198  0.1487 -0.1128 -0.3806
  274DOPS   C3A 3207   3.935  33.016  11.509 -0.0819  0.2006  0.0518
  274DOPS   C4A 3208   4.105  33.419  11.673 -0.0230  0.1485 -0.0923
  274DOPS   C1B 3209   4.117  33.833  10.853  0.3035  0.0422 -0.0894
  274DOPS   D2B 3210   4.208  33.994  11.258 -0.3099 -0.0228 -0.1108
  274DOPS   C3B 3211   4.036  34.281  11.587 -0.3811  0.2825  0.0717
  274DOPS   C4B 3212   4.122  34.335  12.030  0.1773 -0.1223 -0.0318
  275DOPC   NC3 3213   6.016   1.356  10.124 -0.0142  0.1815 -0.0997
  275DOPC   PO4 3214   5.848   1.011  10.208  0.2068  0.0592  0.2634
  275DOPC   GL1 3215   5.801   1.133  10.621  0.2477 -0.4212  0.0719
  275DOPC   GL2 3216   5.757   1.410  10.642 -0.0778 -0.1070  0.3156
  275DOPC   C1A 3217   5.604   1.107  11.074 -0.1600  0.1803 -0.0284
  275DOPC   D2A 3218   5.665   0.941  11.545  0.1075 -0.2620  0.0678
  275DOPC   C3A 3219   5.900   1.205  11.828  0.0445  0.1045  0.2471
  275DOPC   C4A 3220   6.134   1.241  12.231 -0.0071 -0.0944  0.2017
  275DOPC   C1B 3221   5.482   1.620  10.925 -0.0238 -0.1782  0.1613
  275DOPC   D2B 3222   5.267   1.721  11.283 -0.0424  0.1186 -0.0210
  275DOPC   C3B 3223   5.063   1.638  11.702  0.0692 -0.2912  0.3106
  275DOPC   C4B 3224   4.838   1.593  12.087  0.0742  0.0217 -0.1275
  276DOPC   NC3 3225   5.459   0.103  10.103 -0.0147  0.0099 -0.1617
  276DOPC   PO4 3226   5.753   0.340   9.945  0.1442 -0.1745  0.0017
  276DOPC   GL1 3227   5.791   0.252  10.349 -0.1708 -0.0734 -0.0450
  276DOPC   GL2 3228   5.893   0.079  10.535 -0.0296  0.2450 -0.2790
  276DOPC   C1A 3229   5.461   0.219  10.682  0.0457  0.0251  0.0339
  276DOPC   D2A 3230   5.192   0.302  11.052  0.0272 -0.3471  0.4403
  276DOPC   C3A 3231   5.043  -0.046  11.373  0.0611  0.3339  0.1333
  276DOPC   C4A 3232   5.175  -0.404  11.675 -0.0431  0.1722 -0.3888
  276DOPC   C1B 3233   5.790  -0.275  10.784  0.0833  0.3724 -0.2760
  276DOPC   D2B 3234   5.579  -0.669  10.835 -0.0470  0.1908  0.0021
  276DOPC   C3B 3235   5.652  -1.028  11.051  0.0996  0.1316 -0.3537
  276DOPC   C4B 3236   5.367  -1.420  11.028 -0.0513 -0.1160 -0.2604
  277DOPE   NH3 3237   8.648   2.345  10.315  0.0508 -0.0204  0.3048
  277DOPE   PO4 3238   8.602   2.329  10.596  0.0010 -0.1202  0.0061
  277DOPE   GL1 3239   8.883   2.451  10.839 -0.0695  0.0896  0.1852
  277DOPE   GL2 3240   8.988   2.776  10.921  0.0029 -0.0748 -0.0002
  277DOPE   C1A 3241   9.084   2.372  11.236  0.1612  0.0931  0.2860
  277DOPE   D2A 3242   9.314   2.088  11.527 -0.1746  0.1927 -0.2044
  277DOPE   C3A 3243   9.299   2.196  11.985  0.0471  0.1432 -0.0478
  277DOPE   C4A 3244   9.225   2.526  12.295  0.0148 -0.0576 -0.0687
  277DOPE   C1B 3245   9.215   2.829  11.326 -0.0531  0.1920 -0.0790
  277DOPE   D2B 3246   9.395   2.635  11.669 -0.2921 -0.1120  0.1082
  277DOPE   C3B 3247   9.675   2.299  11.690  0.0298  0.1414  0.4649
  277DOPE   C4B 3248  10.089   2.351  11.928 -0.1331 -0.0262  0.0464
  278DOPC   NC3 3249   2.665   1.474   9.974  0.2325 -0.0892  0.0858
  278DOPC   PO4 3250   2.474   1.169   9.791 -0.0252  0.0929 -0.1121
  278DOPC   GL1 3251   2.203   1.375  10.077 -0.1713  0.2035 -0.1116
  278DOPC   GL2 3252   2.157   1.626   9.948 -0.1646 -0.1007 -0.1684
  278DOPC   C1A 3253   2.077   1.257  10.524 -0.3448  0.2223 -0.1219
  278DOPC   D2A 3254   1.803   0.968  10.773 -0.3049  0.1359  0.2896
  278DOPC   C3A 3255   1.991   0.838  11.193 -0.1257 -0.0555  0.2490
  278DOPC   C4A 3256   2.074   1.199  11.495  0.0081 -0.0341  0.0500
  278DOPC   C1B 3257   1.761   1.407  10.088 -0.0101 -0.2121 -0.0388
  278DOPC   D2B 3258   1.533   1.030  10.321  0.3445  0.3241 -0.2640
  278DOPC   C3B 3259   1.325   0.957  10.706  0.0661  0.1757  0.2268
  278DOPC   C4B 3260   1.363   0.807  11.091  0.0485 -0.2315 -0.1471
  279DOPC   NC3 3261   4.918   9.923  11.121 -0.0627  0.0269 -0.2089
  279DOPC   PO4 3262   5.134   9.907  10.771 -0.2476 -0.1506 -0.1542
  279DOPC   GL1 3263   5.327   9.690  11.073  0.0165 -0.0373 -0.1147
  279DOPC   GL2 3264   5.222   9.518  11.204 -0.2271  0.1675  0.0516
  279DOPC   C1A 3265   5.552   9.837  11.454  0.0676  0.1935 -0.0651
  279DOPC   D2A 3266   5.823  10.123  11.600  0.0939  0.2594  0.0510
  279DOPC   C3A 3267   6.170  10.036  11.869  0.2482  0.1990 -0.0983
  279DOPC   C4A 3268   6.125   9.791  12.245 -0.0067  0.0537  0.0409
  279DOPC   C1B 3269   5.414   9.355  11.572  0.0893 -0.5489  0.1173
  279DOPC   D2B 3270   5.690   9.094  11.845 -0.2788  0.0026  0.0954
  279DOPC   C3B 3271   5.693   8.956  12.315  0.0626  0.0321 -0.1239
  279DOPC   C4B 3272   5.778   9.153  12.733 -0.1198 -0.0183 -0.1389
  280POSM   NC3 3273   4.901  10.714  10.202  0.0183 -0.0510 -0.0475
  280POSM   PO4 3274   4.865  10.760  10.623 -0.1893 -0.0938  0.1234
  280POSM   AM1 3275   4.833  10.799  10.969  0.2389 -0.1085 -0.1217
  280POSM   AM2 3276   5.010  10.887  11.202  0.1572 -0.1899  0.0145
  280POSM   T1A 3277   4.518  10.826  11.327  0.1289  0.2167 -0.4056
  280POSM   C2A 3278   4.371  10.517  11.624  0.0732  0.1005  0.2350
  280POSM   C3A 3279   4.288  10.418  12.080  0.1192 -0.0168  0.0331
  280POSM   C1B 3280   5.152  10.878  11.523  0.2139  0.2406 -0.1489
  280POSM   D2B 3281   5.403  11.052  11.868  0.0438  0.2417  0.2972
  280POSM   C3B 3282   5.552  10.878  12.267  0.0235 -0.1283  0.0740
  280POSM   C4B 3283   5.437  10.453  12.327  0.0259  0.1924 -0.2919
  281DOPE   NH3 3284   6.034   0.844   9.766  0.1672 -0.0257 -0.5332
  281DOPE   PO4 3285   6.162   0.598   9.949 -0.2076 -0.1535  0.0698
  281DOPE   GL1 3286   6.093   0.612  10.368  0.0170  0.1400 -0.2809
  281DOPE   GL2 3287   6.192   0.456  10.614 -0.0297  0.0562 -0.1806
  281DOPE   C1A 3288   5.803   0.666  10.773 -0.1037 -0.0049 -0.0044
  281DOPE   D2A 3289   5.600   0.570  11.159  0.1538 -0.4183  0.0607
  281DOPE   C3A 3290   5.515   0.210  11.382  0.0067 -0.3796  0.0690
  281DOPE   C4A 3291   5.641  -0.102  11.673 -0.0654 -0.2396 -0.3493
  281DOPE   C1B 3292   6.181   0.059  10.955  0.1473 -0.1169  0.0641
  281DOPE   D2B 3293   5.872  -0.164  11.273  0.2459  0.0138  0.2413
  281DOPE   C3B 3294   5.909  -0.542  11.547 -0.0032 -0.3435  0.0913
  281DOPE   C4B 3295   5.889  -1.008  11.592 -0.2823  0.0349  0.0066
  282DOPS   CNO 3296   5.875   3.211  10.408 -0.1650  0.0327 -0.2608
  282DOPS   PO4 3297   6.264   3.173  10.433 -0.0232  0.2114 -0.0961
  282DOPS   GL1 3298   6.030   3.419  10.769  0.2581 -0.2503 -0.3767
  282DOPS   GL2 3299   6.069   3.706  10.714 -0.0522 -0.0799 -0.1484
  282DOPS   C1A 3300   6.291   3.497  11.146 -0.3556  0.3716  0.0001
  282DOPS   D2A 3301   6.438   3.713  11.573 -0.0118  0.0375 -0.1306
  282DOPS   C3A 3302   6.398   3.589  12.008 -0.0091 -0.0178 -0.2155
  282DOPS   C4A 3303   6.333   3.396  12.395  0.2055 -0.0099  0.1055
  282DOPS   C1B 3304   5.789   3.642  11.088 -0.0164 -0.3916  0.3035
  282DOPS   D2B 3305   5.513   3.513  11.359  0.1208 -0.0109  0.0801
  282DOPS   C3B 3306   5.561   3.344  11.820  0.2517  0.2991  0.1228
  282DOPS   C4B 3307   5.641   2.960  12.102 -0.0532 -0.1240  0.1893
  283DOPC   NC3 3308   6.648  10.749  10.765  0.0316  0.0213  0.3165
  283DOPC   PO4 3309   6.976  10.720  10.924  0.0228 -0.3665 -0.3224
  283DOPC   GL1 3310   7.107  10.998  11.086  0.0715  0.3750  0.0062
  283DOPC   GL2 3311   7.346  11.089  10.976  0.1370 -0.0328 -0.0765
  283DOPC   C1A 3312   7.030  11.029  11.528 -0.0602 -0.0310  0.1109
  283DOPC   D2A 3313   7.007  10.960  11.970 -0.1618 -0.1086  0.2384
  283DOPC   C3A 3314   6.819  11.324  12.167  0.1296  0.6285 -0.1572
  283DOPC   C4A 3315   6.551  11.718  12.174  0.1932 -0.0485  0.0947
  283DOPC   C1B 3316   7.524  11.262  11.375 -0.0664  0.0421  0.0097
  283DOPC   D2B 3317   7.460  11.163  11.804 -0.1386  0.4127  0.0169
  283DOPC   C3B 3318   7.268  11.447  12.102  0.2375  0.1214  0.2559
  283DOPC   C4B 3319   7.125  11.759  12.349  0.4498  0.3345  0.3980
  284DOPE   NH3 3320   1.413   2.099   9.503  0.2262  0.1360  0.3005
  284DOPE   PO4 3321   1.345   2.368   9.573  0.1251  0.1060 -0.0039
  284DOPE   GL1 3322   1.288   2.108   9.967  0.0689  0.3028  0.2630
  284DOPE   GL2 3323   1.269   2.371  10.058  0.1342 -0.1699  0.2976
  284DOPE   C1A 3324   1.409   1.836  10.327 -0.0060 -0.2427 -0.0928
  284DOPE   D2A 3325   1.253   1.404  10.494 -0.0657  0.2518 -0.0077
  284DOPE   C3A 3326   1.564   1.410  10.821  0.0197  0.1292  0.0547
  284DOPE   C4A 3327   1.640   1.289  11.257  0.1984  0.0515  0.0465
  284DOPE   C1B 3328   1.115   2.613  10.367 -0.2930 -0.4084  0.0750
  284DOPE   D2B 3329   1.115   2.989  10.572 -0.2850 -0.0640 -0.2238
  284DOPE   C3B 3330   1.547   3.202  10.720  0.0647 -0.1828  0.0467
  284DOPE   C4B 3331   1.973   3.110  10.844  0.1497  0.4370  0.2066
  285DOPE   NH3 3332   5.220   1.641  10.244 -0.0541  0.1952  0.0730
  285DOPE   PO4 3333   5.492   1.499  10.250 -0.0721 -0.1602 -0.2732
  285DOPE   GL1 3334   5.330   1.150  10.474 -0.6213  0.0818  0.0147
  285DOPE   GL2 3335   5.190   1.359  10.619  0.0201 -0.1371 -0.1801
  285DOPE   C1A 3336   5.229   0.858  10.818  0.3389 -0.0467 -0.1203
  285DOPE   D2A 3337   5.043   0.832  11.287  0.0841  0.0625  0.0646
  285DOPE   C3A 3338   5.241   0.587  11.641  0.0509  0.1211  0.1775
  285DOPE   C4A 3339   5.593   0.458  11.830 -0.0310  0.0276  0.1918
  285DOPE   C1B 3340   5.066   1.344  11.082  0.0024  0.0861 -0.1406
  285DOPE   D2B 3341   5.287   1.273  11.470  0.0332 -0.1051  0.1542
  285DOPE   C3B 3342   5.107   1.061  11.757  0.0301  0.0485  0.2933
  285DOPE   C4B 3343   5.303   0.841  12.096  0.2785 -0.2257 -0.0106
  286POSM   NC3 3344  12.492   7.755  11.022  0.1508 -0.0717  0.0345
  286POSM   PO4 3345  12.120   7.712  10.898 -0.3827  0.0811  0.0248
  286POSM   AM1 3346  12.037   7.757  11.262  0.2751 -0.0554  0.3151
  286POSM   AM2 3347  12.218   7.804  11.454  0.0827 -0.0503 -0.0992
  286POSM   T1A 3348  11.751   7.815  11.695  0.2371  0.1170 -0.1375
  286POSM   C2A 3349  11.444   7.529  11.941 -0.2682 -0.0156  0.5148
  286POSM   C3A 3350  11.312   7.234  12.244  0.2063  0.0991  0.3522
  286POSM   C1B 3351  12.261   7.635  11.767 -0.0610  0.2054  0.0114
  286POSM   D2B 3352  12.630   7.508  12.020  0.1019 -0.2198  0.3441
  286POSM   C3B 3353  13.037   7.225  12.036  0.0369  0.3900 -0.3094
  286POSM   C4B 3354  13.508   7.228  12.041 -0.1388  0.3024 -0.1274
  287POSM   NC3 3355  10.590  10.141  11.175  0.0273 -0.2129 -0.2289
  287POSM   PO4 3356  10.926  10.008  11.322  0.0967 -0.0818  0.0434
  287POSM   AM1 3357  10.821  10.130  11.583 -0.0305 -0.1698  0.0548
  287POSM   AM2 3358  10.554  10.151  11.665  0.0988  0.2274  0.0961
  287POSM   T1A 3359  10.806  10.058  12.066 -0.1288  0.1819 -0.0792
  287POSM   C2A 3360  10.841  10.401  12.490 -0.2783 -0.2726 -0.0203
  287POSM   C3A 3361  11.153  10.347  12.813  0.2653  0.1291  0.2501
  287POSM   C1B 3362  10.451  10.447  11.791  0.2229 -0.0901 -0.0117
  287POSM   D2B 3363  10.339  10.931  11.755  0.1299 -0.4806 -0.1005
  287POSM   C3B 3364  10.472  11.190  12.148  0.2072  0.1637  0.1213
  287POSM   C4B 3365  10.438  11.478  12.482 -0.1707  0.0682 -0.0103
  288DOPC   NC3 3366   2.160   2.644   9.663 -0.0362  0.2056  0.2833
  288DOPC   PO4 3367   1.861   2.371   9.526 -0.0430 -0.1329  0.0806
  288DOPC   GL1 3368   1.739   2.346   9.923  0.1555  0.0173 -0.2549
  288DOPC   GL2 3369   1.724   2.034   9.914  0.2417  0.0864 -0.0306
  288DOPC   C1A 3370   1.671   2.319  10.361  0.1647  0.3704  0.2128
  288DOPC   D2A 3371   1.319   2.250  10.675 -0.0815 -0.0788 -0.3417
  288DOPC   C3A 3372   1.184   2.647  10.932 -0.2235  0.0536  0.1965
  288DOPC   C4A 3373   1.247   3.021  11.186 -0.0760 -0.0831 -0.2795
  288DOPC   C1B 3374   1.964   1.897  10.291  0.0103 -0.2570  0.1221
  288DOPC   D2B 3375   2.394   1.816  10.307  0.3097 -0.0337 -0.2761
  288DOPC   C3B 3376   2.314   1.818  10.750 -0.2261  0.0512 -0.0601
  288DOPC   C4B 3377   2.361   2.012  11.155  0.0841  0.0148  0.0658
  289DOPC   NC3 3378   6.198  11.172  10.182 -0.0995 -0.1946  0.2272
  289DOPC   PO4 3379   6.484  11.147  10.450 -0.0163 -0.1926 -0.1343
  289DOPC   GL1 3380   6.513  11.214  10.818 -0.5679 -0.2608  0.0763
  289DOPC   GL2 3381   6.596  11.492  10.794  0.2325 -0.1211 -0.1284
  289DOPC   C1A 3382   6.665  11.277  11.265 -0.0571  0.3487 -0.3895
  289DOPC   D2A 3383   6.639  11.436  11.743 -0.1090  0.1511 -0.2388
  289DOPC   C3A 3384   6.345  11.237  12.128 -0.2149  0.0787  0.1424
  289DOPC   C4A 3385   6.553  10.970  12.490  0.2019 -0.0844  0.4541
  289DOPC   C1B 3386   6.276  11.560  11.149  0.1413  0.1944 -0.1829
  289DOPC   D2B 3387   6.054  11.817  11.445  0.1199 -0.0907  0.2142
  289DOPC   C3B 3388   6.163  11.696  11.856  0.0452 -0.1394  0.0946
  289DOPC   C4B 3389   6.112  11.679  12.326  0.0315  0.2290 -0.1111
  290DOPC   NC3 3390  10.177   8.535  11.038 -0.4944  0.0493  0.1454
  290DOPC   PO4 3391   9.985   8.843  10.829 -0.1488  0.1071  0.2746
  290DOPC   GL1 3392   9.882   8.840  11.301 -0.4121  0.1101 -0.1690
  290DOPC   GL2 3393   9.706   8.649  11.389 -0.1563  0.2416 -0.2054
  290DOPC   C1A 3394   9.570   9.190  11.463  0.1605  0.0452  0.1619
  290DOPC   D2A 3395   9.373   9.520  11.631  0.2407 -0.0604  0.1732
  290DOPC   C3A 3396   9.436   9.738  12.070  0.2464 -0.0044 -0.3515
  290DOPC   C4A 3397   9.471   9.840  12.468  0.0207  0.0681 -0.0982
  290DOPC   C1B 3398   9.908   8.799  11.780 -0.2924  0.1356  0.1274
  290DOPC   D2B 3399  10.069   8.878  12.163 -0.1991 -0.0579 -0.1960
  290DOPC   C3B 3400  10.003   9.230  12.495 -0.1661 -0.2093  0.0478
  290DOPC   C4B 3401  10.231   9.451  12.863  0.3772  0.2063 -0.0073
  291POSM   NC3 3402   5.437  33.205   9.824 -0.1623  0.0759  0.0194
  291POSM   PO4 3403   5.775  33.157  10.029 -0.1902  0.2501  0.2754
  291POSM   AM1 3404   5.948  33.139  10.320  0.1239  0.1329 -0.0220
  291POSM   AM2 3405   5.874  32.933  10.514  0.0641 -0.0253  0.2147
  291POSM   T1A 3406   6.336  33.080  10.707  0.0666 -0.0689  0.3606
  291POSM   C2A 3407   6.249  32.930  11.063 -0.1626  0.1299  0.0462
  291POSM   C3A 3408   6.485  32.768  11.414  0.0562 -0.1744  0.0943
  291POSM   C1B 3409   5.817  33.166  10.775  0.0379 -0.1456 -0.0187
  291POSM   D2B 3410   5.962  33.327  11.231  0.4234  0.0494  0.0543
  291POSM   C3B 3411   6.086  32.999  11.589 -0.0988 -0.0701  0.0335
  291POSM   C4B 3412   6.216  32.617  11.882  0.0941 -0.1792 -0.1130
  292DOPC   NC3 3413   3.912   8.638  10.534 -0.1595 -0.0358  0.0284
  292DOPC   PO4 3414   3.568   8.467  10.369 -0.1550  0.2799  0.0243
  292DOPC   GL1 3415   3.482   8.530  10.746 -0.1104  0.4228 -0.0755
  292DOPC   GL2 3416   3.567   8.253  10.842 -0.1260 -0.0781 -0.1270
  292DOPC   C1A 3417   3.237   8.437  11.122  0.2700 -0.4075 -0.2576
  292DOPC   D2A 3418   3.266   8.272  11.560  0.1562 -0.0006  0.1697
  292DOPC   C3A 3419   2.928   8.293  11.874 -0.0182 -0.0308  0.4477
  292DOPC   C4A 3420   2.485   8.402  11.939  0.2329  0.2107 -0.0874
  292DOPC   C1B 3421   3.655   8.105  11.280  0.1258  0.0704 -0.3654
  292DOPC   D2B 3422   3.684   8.142  11.707 -0.3441 -0.1626  0.1030
  292DOPC   C3B 3423   3.647   8.562  11.874 -0.1761  0.2283 -0.2867
  292DOPC   C4B 3424   3.593   8.846  12.264  0.2002  0.2618  0.0349
  293POSM   NC3 3425  12.420   6.912  10.788  0.1204  0.2540  0.1229
  293POSM   PO4 3426  12.350   7.280  10.813  0.2396  0.3181  0.1080
  293POSM   AM1 3427  12.263   7.258  11.120  0.0124  0.2445  0.1483
  293POSM   AM2 3428  12.339   7.318  11.369  0.0193  0.1872 -0.0650
  293POSM   T1A 3429  12.070   6.903  11.412 -0.1575  0.6977 -0.0160
  293POSM   C2A 3430  12.031   6.769  11.817 -0.0102  0.1233 -0.0606
  293POSM   C3A 3431  12.123   6.730  12.321 -0.0026 -0.0523 -0.0537
  293POSM   C1B 3432  12.344   7.148  11.682 -0.5150 -0.2926 -0.2067
  293POSM   D2B 3433  12.257   7.155  12.110  0.2333  0.0647  0.0148
  293POSM   C3B 3434  12.319   7.141  12.650  0.0612 -0.2649  0.0736
  293POSM   C4B 3435  12.520   6.856  12.981 -0.0723  0.0350 -0.0817
  294DOPS   CNO 3436  10.439   0.163  10.200  0.1950  0.0417  0.1413
  294DOPS   PO4 3437  10.335   0.503  10.342  0.0053 -0.2657 -0.3524
  294DOPS   GL1 3438  10.425   0.501  10.742  0.1518  0.0726 -0.2265
  294DOPS   GL2 3439  10.657   0.436  10.873 -0.3334 -0.0761 -0.4338
  294DOPS   C1A 3440  10.159   0.266  11.051  0.1280 -0.0763 -0.0802
  294DOPS   D2A 3441   9.833   0.176  11.381 -0.0308  0.0299  0.0305
  294DOPS   C3A 3442   9.587   0.220  11.722  0.2168  0.0764  0.1011
  294DOPS   C4A 3443   9.374   0.295  12.153 -0.0694 -0.2145 -0.0705
  294DOPS   C1B 3444  10.527   0.479  11.329 -0.0766  0.1325 -0.4850
  294DOPS   D2B 3445  10.517   0.469  11.773 -0.0649  0.1315  0.0207
  294DOPS   C3B 3446  10.876   0.696  12.040  0.2662 -0.0989  0.1676
  294DOPS   C4B 3447  11.202   0.754  12.383 -0.1994  0.2014 -0.0878
  295DOPC   NC3 3448   6.856   0.782  10.083  0.0611  0.0488 -0.0668
  295DOPC   PO4 3449   7.017   0.891  10.448 -0.0176 -0.2324  0.0588
  295DOPC   GL1 3450   7.113   1.085  10.737 -0.0408  0.1526 -0.1614
  295DOPC   GL2 3451   6.954   1.016  10.970 -0.0506 -0.1233  0.0743
  295DOPC   C1A 3452   7.445   1.275  11.023 -0.1777  0.1446  0.0013
  295DOPC   D2A 3453   7.723   1.379  11.323 -0.3265  0.1084  0.0883
  295DOPC   C3A 3454   7.463   1.398  11.749  0.2111  0.2503  0.1662
  295DOPC   C4A 3455   7.301   1.462  12.154  0.0488  0.0306  0.0940
  295DOPC   C1B 3456   7.157   0.884  11.383  0.0869  0.1859  0.1982
  295DOPC   D2B 3457   7.440   0.890  11.711  0.2778  0.5245  0.1010
  295DOPC   C3B 3458   7.391   0.919  12.131 -0.2984  0.0129  0.1032
  295DOPC   C4B 3459   7.509   0.933  12.577 -0.4212  0.2974  0.0862
  296DOPS   CNO 3460   4.127   6.941  10.441 -0.1523 -0.0939 -0.1785
  296DOPS   PO4 3461   4.490   6.832  10.379  0.0127  0.2628  0.0886
  296DOPS   GL1 3462   4.455   7.120  10.641 -0.1615 -0.0178 -0.0850
  296DOPS   GL2 3463   4.369   7.362  10.566  0.0421 -0.3766  0.0320
  296DOPS   C1A 3464   4.453   6.908  11.071  0.3975 -0.2095 -0.0718
  296DOPS   D2A 3465   4.737   6.943  11.490 -0.1669  0.1472  0.0426
  296DOPS   C3A 3466   4.672   7.248  11.872  0.0625 -0.0826  0.4105
  296DOPS   C4A 3467   4.597   7.313  12.364 -0.3628  0.0701 -0.1236
  296DOPS   C1B 3468   4.154   7.457  10.974 -0.2636  0.2253  0.3073
  296DOPS   D2B 3469   3.897   7.604  11.264  0.0994  0.2497 -0.0409
  296DOPS   C3B 3470   3.821   7.480  11.730  0.2499  0.1024 -0.0452
  296DOPS   C4B 3471   3.838   7.297  12.153  0.0851  0.2330 -0.0858
  297DOPE   NH3 3472   7.134   8.923  10.607 -0.1330  0.2932 -0.0596
  297DOPE   PO4 3473   7.326   8.700  10.693 -0.0448  0.2986  0.1750
  297DOPE   GL1 3474   7.296   8.496  11.099 -0.0579  0.2099  0.3628
  297DOPE   GL2 3475   7.119   8.797  11.162  0.2701 -0.0949  0.0800
  297DOPE   C1A 3476   6.954   8.408  11.420  0.0831 -0.1578 -0.1196
  297DOPE   D2A 3477   6.876   7.918  11.590  0.2837 -0.0513 -0.2020
  297DOPE   C3A 3478   6.970   7.572  11.928  0.2067 -0.2046  0.0368
  297DOPE   C4A 3479   7.018   7.425  12.331 -0.2733 -0.0746  0.1631
  297DOPE   C1B 3480   7.219   8.724  11.602 -0.2178  0.0136 -0.1016
  297DOPE   D2B 3481   7.419   8.697  12.056 -0.2794  0.0628 -0.0445
  297DOPE   C3B 3482   7.425   8.335  12.346 -0.2440  0.0727 -0.0792
  297DOPE   C4B 3483   7.712   8.006  12.492  0.2592  0.2994  0.1272
  298DOPE   NH3 3484  10.861   0.394  10.419 -0.1816  0.0440 -0.2771
  298DOPE   PO4 3485  10.911   0.104  10.573 -0.0628 -0.1408 -0.0242
  298DOPE   GL1 3486  11.145  -0.120  10.841  0.1012  0.0658  0.0360
  298DOPE   GL2 3487  11.374  -0.103  10.761  0.0721 -0.1114 -0.3788
  298DOPE   C1A 3488  11.145  -0.353  11.277 -0.0920  0.0668 -0.2926
  298DOPE   D2A 3489  11.134  -0.651  11.675  0.0591  0.0152 -0.1242
  298DOPE   C3A 3490  10.789  -0.583  11.935 -0.3901 -0.0711  0.3684
  298DOPE   C4A 3491  10.570  -0.282  12.185  0.2712 -0.1978  0.0110
  298DOPE   C1B 3492  11.470   0.036  11.236  0.2333 -0.0349 -0.0167
  298DOPE   D2B 3493  11.332   0.240  11.616  0.0607  0.1093  0.0885
  298DOPE   C3B 3494  11.005   0.560  11.562 -0.0601  0.0028 -0.2677
  298DOPE   C4B 3495  11.027   1.034  11.711  0.2301 -0.0965  0.0422
  299DOPE   NH3 3496   8.057   3.866  10.658 -0.0808 -0.2327  0.0732
  299DOPE   PO4 3497   8.251   4.107  10.711  0.0687  0.2148 -0.2557
  299DOPE   GL1 3498   8.209   4.248  11.120  0.2770 -0.0009  0.1023
  299DOPE   GL2 3499   8.229   4.510  11.279 -0.0995  0.1384 -0.2020
  299DOPE   C1A 3500   8.349   4.003  11.513  0.0886 -0.4674 -0.2077
  299DOPE   D2A 3501   8.384   3.911  11.957  0.1628 -0.0094 -0.2320
  299DOPE   C3A 3502   8.129   4.204  12.208  0.0923  0.1594 -0.0520
  299DOPE   C4A 3503   7.696   4.371  12.304  0.0821  0.0625  0.0597
  299DOPE   C1B 3504   8.112   4.858  11.589 -0.1125  0.1246 -0.0173
  299DOPE   D2B 3505   8.013   5.105  11.963  0.0197 -0.3231  0.1023
  299DOPE   C3B 3506   8.312   5.154  12.318 -0.1480  0.1950 -0.0375
  299DOPE   C4B 3507   8.327   5.141  12.804  0.0630 -0.1135 -0.1713
  300DOPC   NC3 3508   4.717   1.078   9.839  0.0144  0.1657 -0.0814
  300DOPC   PO4 3509   4.471   1.379   9.916 -0.0908  0.0721 -0.2768
  300DOPC   GL1 3510   4.429   1.376  10.290  0.2523 -0.0898  0.4629
  300DOPC   GL2 3511   4.289   1.165  10.457  0.3262 -0.0086 -0.5514
  300DOPC   C1A 3512   4.182   1.658  10.583  0.3146  0.1592  0.3139
  300DOPC   D2A 3513   3.782   1.525  10.790 -0.2755 -0.3353  0.1142
  300DOPC   C3A 3514   3.574   1.138  10.638  0.0417  0.1582  0.0467
  300DOPC   C4A 3515   3.768   0.689  10.590  0.3396 -0.1577  0.0257
  300DOPC   C1B 3516   4.112   0.962  10.874  0.1492  0.0111 -0.1796
  300DOPC   D2B 3517   4.077   0.807  11.319  0.0293  0.0629  0.0535
  300DOPC   C3B 3518   4.105   1.078  11.726  0.0666  0.0205  0.3552
  300DOPC   C4B 3519   4.286   1.011  12.141  0.0219  0.0936 -0.0797
  301DOPS   CNO 3520  11.722   7.380  10.875  0.1170 -0.1045  0.1480
  301DOPS   PO4 3521  11.521   7.629  11.099  0.0195  0.0284  0.0017
  301DOPS   GL1 3522  11.514   7.453  11.393 -0.2046  0.3040  0.1147
  301DOPS   GL2 3523  11.858   7.369  11.373 -0.0291  0.2540  0.0132
  301DOPS   C1A 3524  11.198   7.232  11.634  0.1314 -0.0395 -0.0973
  301DOPS   D2A 3525  10.911   7.188  11.999 -0.1294  0.2796  0.0099
  301DOPS   C3A 3526  10.839   7.050  12.448 -0.1492  0.1640 -0.0380
  301DOPS   C4A 3527  11.011   7.258  12.818 -0.1409 -0.1434  0.2760
  301DOPS   C1B 3528  11.840   7.238  11.839 -0.3838 -0.3189 -0.1733
  301DOPS   D2B 3529  11.691   6.951  12.213 -0.3059 -0.4093 -0.2579
  301DOPS   C3B 3530  11.300   6.823  12.454 -0.0449 -0.2981  0.2463
  301DOPS   C4B 3531  11.251   6.798  12.890 -0.0710  0.0811  0.0495
  302DOPS   CNO 3532   8.485  11.090  10.624 -0.2128  0.0534 -0.0512
  302DOPS   PO4 3533   8.781  11.178  10.817 -0.1346  0.4381 -0.2979
  302DOPS   GL1 3534   8.760  11.133  11.191 -0.0570 -0.0464  0.0702
  302DOPS   GL2 3535   8.842  10.882  11.259 -0.3346 -0.2247  0.0442
  302DOPS   C1A 3536   8.554  11.245  11.595  0.2422  0.0067 -0.0422
  302DOPS   D2A 3537   8.569  11.313  11.980 -0.0439  0.0673 -0.1675
  302DOPS   C3A 3538   8.517  11.774  12.170 -0.2954  0.0241  0.0205
  302DOPS   C4A 3539   8.355  11.737  12.620  0.0006 -0.1523  0.0138
  302DOPS   C1B 3540   9.102  10.607  11.503  0.0197  0.2628  0.0947
  302DOPS   D2B 3541   9.039  10.516  11.927  0.0195  0.0924  0.1091
  302DOPS   C3B 3542   8.639  10.290  11.995  0.3001 -0.0436 -0.1462
  302DOPS   C4B 3543   8.612   9.946  12.325  0.0267 -0.1545  0.0568
  303DOPC   NC3 3544   9.407   8.037  10.923  0.0010  0.3051  0.0952
  303DOPC   PO4 3545   9.339   7.633  10.978  0.1993  0.1179  0.1627
  303DOPC   GL1 3546   9.530   7.738  11.292 -0.1542 -0.0366  0.0042
  303DOPC   GL2 3547   9.298   7.789  11.485 -0.1694 -0.0165 -0.1900
  303DOPC   C1A 3548   9.597   7.474  11.681 -0.1476  0.1277  0.0083
  303DOPC   D2A 3549   9.391   7.767  12.009 -0.0773  0.0233 -0.3363
  303DOPC   C3A 3550   8.952   7.857  12.123 -0.1056  0.3225 -0.2678
  303DOPC   C4A 3551   8.647   8.032  12.425  0.4725 -0.0931 -0.3988
  303DOPC   C1B 3552   9.379   8.153  11.716 -0.2027 -0.0021  0.2606
  303DOPC   D2B 3553   9.336   8.349  12.100  0.1706  0.3387 -0.0400
  303DOPC   C3B 3554   9.331   7.989  12.426 -0.2049  0.0230 -0.0326
  303DOPC   C4B 3555   9.190   7.526  12.384 -0.3112  0.1996 -0.0655
  304DOPS   CNO 3556   1.581   2.780   9.747 -0.3539  0.2838  0.1555
  304DOPS   PO4 3557   1.389   3.016   9.935 -0.1353 -0.0574  0.2528
  304DOPS   GL1 3558   1.576   3.040  10.166  0.0726 -0.2936 -0.7383
  304DOPS   GL2 3559   1.871   3.068  10.155 -0.0270 -0.0860  0.1246
  304DOPS   C1A 3560   1.608   2.773  10.536  0.4645  0.2924 -0.0774
  304DOPS   D2A 3561   1.734   2.545  10.935 -0.3014 -0.0857  0.6053
  304DOPS   C3A 3562   2.119   2.735  11.189  0.3068 -0.0606  0.1378
  304DOPS   C4A 3563   2.232   3.217  11.298  0.5528 -0.1430  0.0665
  304DOPS   C1B 3564   2.114   2.648  10.133  0.1912 -0.0948  0.1449
  304DOPS   D2B 3565   2.354   2.341  10.396  0.0509  0.3410 -0.0769
  304DOPS   C3B 3566   2.699   2.637  10.464  0.0123 -0.0470 -0.1359
  304DOPS   C4B 3567   3.130   2.762  10.455 -0.1492 -0.0270  0.3326
  305DOPS   CNO 3568   6.707   6.239  10.418  0.0582  0.1692  0.0817
  305DOPS   PO4 3569   6.431   6.469  10.463 -0.1972  0.0450 -0.0929
  305DOPS   GL1 3570   6.193   6.309  10.730 -0.1033  0.4351  0.2860
  305DOPS   GL2 3571   6.024   6.523  10.819 -0.5237  0.1633  0.0911
  305DOPS   C1A 3572   6.182   6.019  11.087 -0.0514  0.0654 -0.0718
  305DOPS   D2A 3573   6.158   5.836  11.504 -0.0951  0.0831 -0.0002
  305DOPS   C3A 3574   6.320   5.896  11.931 -0.0688 -0.0545 -0.2344
  305DOPS   C4A 3575   6.336   6.116  12.358  0.0836  0.0640  0.1111
  305DOPS   C1B 3576   6.180   6.565  11.266  0.1160  0.2743 -0.2051
  305DOPS   D2B 3577   6.096   6.533  11.702  0.2028  0.0662 -0.2504
  305DOPS   C3B 3578   5.818   6.217  11.847  0.0597  0.1548  0.0013
  305DOPS   C4B 3579   5.780   5.960  12.251  0.2013 -0.1095  0.1079
  306DOPC   NC3 3580   5.341   6.167  10.550  0.3448  0.1357 -0.2576
  306DOPC   PO4 3581   5.009   6.318  10.444  0.0214 -0.0247  0.2657
  306DOPC   GL1 3582   4.902   6.411  10.785 -0.0483 -0.3390  0.0017
  306DOPC   GL2 3583   4.785   6.681  10.763  0.0781 -0.1148  0.2953
  306DOPC   C1A 3584   4.978   6.152  11.154 -0.1920  0.2817 -0.3047
  306DOPC   D2A 3585   5.141   5.884  11.535 -0.1480  0.0084 -0.1050
  306DOPC   C3A 3586   4.944   5.901  11.951  0.0190 -0.2043 -0.0334
  306DOPC   C4A 3587   4.802   6.193  12.329  0.1628 -0.1418  0.0293
  306DOPC   C1B 3588   5.005   7.089  10.884 -0.0749 -0.0439  0.2852
  306DOPC   D2B 3589   5.142   7.572  11.055  0.0538 -0.0083 -0.2831
  306DOPC   C3B 3590   4.983   7.474  11.498 -0.1127 -0.1324  0.2427
  306DOPC   C4B 3591   5.066   7.531  11.958  0.0812  0.1364 -0.2616
  307DOPE   NH3 3592  10.034  34.539  10.350 -0.3894  0.1875  0.0385
  307DOPE   PO4 3593   9.895  34.297  10.224 -0.0013  0.2536  0.1080
  307DOPE   GL1 3594   9.783  34.335  10.633  0.1277 -0.0149 -0.3087
  307DOPE   GL2 3595   9.920  34.459  10.811 -0.0535  0.1991  0.1040
  307DOPE   C1A 3596   9.838  34.010  11.014  0.0021  0.1455 -0.0759
  307DOPE   D2A 3597   9.822  34.035  11.501  0.1461  0.1299  0.0603
  307DOPE   C3A 3598   9.858  33.688  11.837 -0.1100 -0.0441  0.3555
  307DOPE   C4A 3599   9.847  33.542  12.257 -0.0040  0.1930 -0.1820
  307DOPE   C1B 3600  10.037  34.406  11.275 -0.0631 -0.2919 -0.0414
  307DOPE   D2B 3601  10.330  34.688  11.505 -0.2627  0.1080  0.2338
  307DOPE   C3B 3602  10.257  34.718  11.986 -0.2623 -0.0816  0.0008
  307DOPE   C4B 3603  10.413  34.814  12.398  0.1308  0.2428  0.3057
  308DOPE   NH3 3604   3.078   8.572  10.593  0.2973 -0.1011  0.0930
  308DOPE   PO4 3605   2.937   8.452  10.328  0.0206 -0.0729  0.0314
  308DOPE   GL1 3606   3.074   8.088  10.527  0.2708  0.1385  0.0797
  308DOPE   GL2 3607   3.145   8.026  10.753  0.0800 -0.0789 -0.0249
  308DOPE   C1A 3608   2.788   7.741  10.735  0.0453  0.1185 -0.2965
  308DOPE   D2A 3609   2.559   7.345  10.836  0.1990 -0.0787 -0.4948
  308DOPE   C3A 3610   2.790   7.032  11.109 -0.2199 -0.2050  0.0359
  308DOPE   C4A 3611   2.855   7.154  11.562  0.2076 -0.3961 -0.3427
  308DOPE   C1B 3612   3.356   7.808  11.016 -0.0894  0.0057  0.1641
  308DOPE   D2B 3613   3.455   7.707  11.475  0.0275  0.0860  0.0653
  308DOPE   C3B 3614   3.219   7.835  11.792 -0.1009  0.0728  0.0062
  308DOPE   C4B 3615   3.139   7.854  12.246  0.2395 -0.0515  0.3801
  309POSM   NC3 3616   7.347   1.569  10.492 -0.1355 -0.1893  0.0077
  309POSM   PO4 3617   7.050   1.746  10.306  0.2615  0.1661 -0.0220
  309POSM   AM1 3618   6.971   1.818  10.583 -0.3065  0.1491  0.0788
  309POSM   AM2 3619   7.051   1.994  10.811  0.0022  0.1161  0.2133
  309POSM   T1A 3620   7.015   1.556  11.005 -0.2076  0.0055  0.1062
  309POSM   C2A 3621   7.113   1.422  11.402  0.1105  0.1996  0.0883
  309POSM   C3A 3622   6.985   1.122  11.778 -0.1313 -0.0972 -0.0823
  309POSM   C1B 3623   6.758   1.975  10.952  0.0527 -0.0529  0.3151
  309POSM   D2B 3624   6.380   1.891  11.285  0.5042 -0.2025 -0.0423
  309POSM   C3B 3625   6.345   1.888  11.739 -0.2268  0.1274  0.0283
  309POSM   C4B 3626   6.050   1.686  12.013  0.0779 -0.3326  0.0585
  310DOPS   CNO 3627  11.489  10.587  10.901 -0.1548 -0.0063  0.1925
  310DOPS   PO4 3628  11.755  10.402  11.050 -0.2040 -0.2191  0.3659
  310DOPS   GL1 3629  11.718  10.312  11.513  0.0083 -0.0824 -0.1785
  310DOPS   GL2 3630  11.693  10.075  11.691 -0.0296  0.0306 -0.0340
  310DOPS   C1A 3631  11.977  10.445  11.839  0.0916  0.1518  0.0601
  310DOPS   D2A 3632  12.017  10.592  12.239  0.1362 -0.0773 -0.1451
  310DOPS   C3A 3633  11.744  10.336  12.574 -0.2059 -0.1962  0.0524
  310DOPS   C4A 3634  11.699  10.385  13.038 -0.1331  0.1752  0.2236
  310DOPS   C1B 3635  11.864  10.049  12.156  0.2200 -0.0820  0.1259
  310DOPS   D2B 3636  12.213  10.145  12.462  0.3435  0.2892 -0.1669
  310DOPS   C3B 3637  12.022  10.041  12.903  0.0816 -0.0006 -0.2222
  310DOPS   C4B 3638  11.851   9.966  13.331  0.2385  0.2172  0.1443
  311DOPC   NC3 3639   5.969  32.626  10.052  0.2213 -0.2667  0.2015
  311DOPC   PO4 3640   5.933  32.278   9.859  0.0740 -0.1301  0.0658
  311DOPC   GL1 3641   6.258  32.160  10.146  0.0911  0.1377 -0.2208
  311DOPC   GL2 3642   6.406  31.906  10.229 -0.0252 -0.1701 -0.1896
  311DOPC   C1A 3643   5.931  32.108  10.552 -0.2131 -0.4345 -0.0816
  311DOPC   D2A 3644   5.740  32.002  10.922 -0.2262  0.0662 -0.0639
  311DOPC   C3A 3645   5.566  32.274  11.270  0.0187 -0.1026 -0.1534
  311DOPC   C4A 3646   5.167  32.435  11.521 -0.0107  0.1129  0.2280
  311DOPC   C1B 3647   6.263  31.700  10.595 -0.0698 -0.0371 -0.0752
  311DOPC   D2B 3648   6.043  31.564  10.976 -0.0933 -0.3655 -0.1016
  311DOPC   C3B 3649   6.068  31.925  11.281  0.3885  0.0865 -0.2245
  311DOPC   C4B 3650   5.842  32.097  11.604  0.0374 -0.0775 -0.1797
  312DOPE   NH3 3651   1.620   0.925   9.051 -0.1577  0.1900 -0.2771
  312DOPE   PO4 3652   1.686   0.812   9.343 -0.2358  0.4662  0.0073
  312DOPE   GL1 3653   1.620   0.607   9.614  0.2305  0.1648 -0.2215
  312DOPE   GL2 3654   1.391   0.420   9.658  0.4145  0.0179  0.0630
  312DOPE   C1A 3655   1.816   0.569  10.033  0.1081 -0.1215  0.0729
  312DOPE   D2A 3656   1.789   0.605  10.470 -0.0728  0.1094  0.0735
  312DOPE   C3A 3657   1.518   0.452  10.811 -0.0003  0.2145 -0.0755
  312DOPE   C4A 3658   1.193   0.360  11.178 -0.1379  0.0433 -0.0984
  312DOPE   C1B 3659   1.063   0.713   9.859 -0.1016 -0.1133  0.0034
  312DOPE   D2B 3660   0.583   0.835   9.911  0.0832 -0.2156 -0.3051
  312DOPE   C3B 3661   0.168   0.738  10.101 -0.2038  0.0222 -0.0451
  312DOPE   C4B 3662  -0.264   0.916  10.300  0.1001  0.0903 -0.0322
  313DOPS   CNO 3663   6.899   2.825  10.243  0.0474  0.0111 -0.0282
  313DOPS   PO4 3664   6.508   2.754  10.269 -0.3245  0.1542 -0.2778
  313DOPS   GL1 3665   6.414   2.794  10.703 -0.3116  0.5062  0.0534
  313DOPS   GL2 3666   6.633   2.564  10.702  0.4792  0.0579 -0.1465
  313DOPS   C1A 3667   6.362   3.004  11.104  0.0288 -0.0285 -0.0000
  313DOPS   D2A 3668   6.196   2.802  11.436 -0.2100  0.3156  0.0634
  313DOPS   C3A 3669   6.225   2.616  11.868  0.0079  0.0223  0.2892
  313DOPS   C4A 3670   6.098   2.560  12.301 -0.3053 -0.0111  0.0944
  313DOPS   C1B 3671   6.538   2.484  11.108 -0.1590  0.2122 -0.2842
  313DOPS   D2B 3672   6.717   2.751  11.454  0.0508 -0.1586 -0.3472
  313DOPS   C3B 3673   6.827   2.611  11.929  0.0665  0.1242 -0.1861
  313DOPS   C4B 3674   7.043   2.658  12.316  0.0765  0.1407  0.1639
  314DOPS   CNO 3675  10.622   8.288  10.986 -0.3516  0.1388 -0.2570
  314DOPS   PO4 3676  10.318   8.090  10.909  0.0783  0.0304  0.0841
  314DOPS   GL1 3677  10.364   8.154  11.393 -0.1293  0.1321  0.1663
  314DOPS   GL2 3678  10.307   8.436  11.513  0.1757  0.0114 -0.3913
  314DOPS   C1A 3679  10.294   8.060  11.837 -0.0617  0.1456  0.1860
  314DOPS   D2A 3680  10.316   8.020  12.318 -0.0390  0.0778  0.0051
  314DOPS   C3A 3681  10.021   7.716  12.531  0.0847  0.2643  0.2092
  314DOPS   C4A 3682   9.612   7.636  12.770  0.0041  0.0096 -0.1413
  314DOPS   C1B 3683  10.515   8.601  11.913 -0.2354 -0.0707 -0.0341
  314DOPS   D2B 3684  10.444   8.693  12.354  0.1274 -0.0097  0.0174
  314DOPS   C3B 3685  10.778   8.633  12.687 -0.0075 -0.3442  0.0297
  314DOPS   C4B 3686  10.955   8.696  13.161  0.0671  0.0482 -0.1271
  315DOPE   NH3 3687   4.753   8.913  10.142 -0.3053  0.1012 -0.0161
  315DOPE   PO4 3688   4.541   8.677  10.177 -0.5053  0.3585  0.0141
  315DOPE   GL1 3689   4.421   8.411  10.429  0.3654 -0.0334  0.1434
  315DOPE   GL2 3690   4.350   8.506  10.718 -0.1216 -0.1539  0.0707
  315DOPE   C1A 3691   4.341   8.023  10.700  0.2819  0.1437  0.0647
  315DOPE   D2A 3692   4.262   7.965  11.177  0.1233  0.0629 -0.2060
  315DOPE   C3A 3693   4.171   7.954  11.609  0.1151  0.0842  0.2287
  315DOPE   C4A 3694   4.100   8.272  11.980 -0.1997 -0.0864 -0.1040
  315DOPE   C1B 3695   4.031   8.409  11.008  0.0007  0.1314  0.1714
  315DOPE   D2B 3696   3.708   8.661  11.242 -0.1252  0.0592 -0.2151
  315DOPE   C3B 3697   3.881   9.078  11.364 -0.2028  0.1198  0.0779
  315DOPE   C4B 3698   3.904   9.509  11.202 -0.0942 -0.0029  0.0217
  316DOPE   NH3 3699   4.136   3.592  10.110 -0.2915  0.0145 -0.0021
  316DOPE   PO4 3700   4.396   3.421  10.104 -0.2461 -0.1067  0.1150
  316DOPE   GL1 3701   4.269   3.256  10.445 -0.1621  0.0930  0.0888
  316DOPE   GL2 3702   4.463   3.104  10.559  0.1839 -0.3949  0.3423
  316DOPE   C1A 3703   4.140   3.349  10.889 -0.1171 -0.0320  0.4435
  316DOPE   D2A 3704   3.936   3.454  11.252  0.0507 -0.1746 -0.1524
  316DOPE   C3A 3705   4.050   2.987  11.347  0.2727  0.1027  0.2291
  316DOPE   C4A 3706   4.254   2.826  11.721 -0.0886  0.3261  0.0384
  316DOPE   C1B 3707   4.337   2.874  10.945  0.3035 -0.1571  0.2321
  316DOPE   D2B 3708   4.050   2.537  10.945 -0.2727  0.3185 -0.0267
  316DOPE   C3B 3709   3.976   2.286  11.335 -0.1886 -0.1600  0.2502
  316DOPE   C4B 3710   3.861   2.068  11.731 -0.1216  0.3111 -0.0781
  317POSM   NC3 3711  10.641   1.377  10.453 -0.1150  0.1572 -0.3490
  317POSM   PO4 3712  10.981   1.209  10.340 -0.1819  0.1244 -0.0281
  317POSM   AM1 3713  11.156   1.346  10.568  0.2164  0.2119 -0.0730
  317POSM   AM2 3714  11.228   1.219  10.824 -0.5019  0.0605  0.1252
  317POSM   T1A 3715  11.132   1.661  10.945  0.0320 -0.3241 -0.0085
  317POSM   C2A 3716  11.227   1.971  11.292 -0.0536  0.1604  0.0904
  317POSM   C3A 3717  11.165   2.017  11.792  0.2138  0.1416 -0.0859
  317POSM   C1B 3718  11.262   1.143  11.170 -0.1676 -0.2972 -0.0256
  317POSM   D2B 3719  11.513   0.965  11.545  0.2650  0.2009  0.1976
  317POSM   C3B 3720  11.404   0.694  11.873  0.1157  0.2939  0.1737
  317POSM   C4B 3721  11.277   0.341  12.134 -0.3075 -0.1129  0.2002
  318DOPC   NC3 3722   9.034   3.721  10.924 -0.1616 -0.0277 -0.3323
  318DOPC   PO4 3723   8.934   3.585  10.552 -0.0279  0.1279  0.3324
  318DOPC   GL1 3724   9.203   3.251  10.929 -0.2262  0.2296 -0.1468
  318DOPC   GL2 3725   8.930   3.295  11.128 -0.1243  0.0394  0.0342
  318DOPC   C1A 3726   9.498   3.512  11.133 -0.1199 -0.0184  0.1273
  318DOPC   D2A 3727   9.963   3.621  11.298  0.1935 -0.1617  0.3093
  318DOPC   C3A 3728  10.100   3.330  11.655  0.1689 -0.0778 -0.1803
  318DOPC   C4A 3729   9.878   3.259  12.051  0.1637 -0.0228  0.2071
  318DOPC   C1B 3730   9.077   3.473  11.566 -0.1639 -0.2066  0.1349
  318DOPC   D2B 3731   9.063   3.476  11.996 -0.1195  0.0462  0.3352
  318DOPC   C3B 3732   9.395   3.440  12.246  0.0473 -0.0166 -0.1363
  318DOPC   C4B 3733   9.719   3.115  12.469 -0.0020 -0.2812 -0.1311
  319DOPC   NC3 3734   7.004   3.327  10.315 -0.2650  0.0299  0.3898
  319DOPC   PO4 3735   7.004   3.728  10.390  0.0022 -0.3130 -0.0051
  319DOPC   GL1 3736   7.111   3.555  10.798 -0.3292  0.0405 -0.3773
  319DOPC   GL2 3737   6.768   3.606  10.808 -0.2036  0.0307 -0.3066
  319DOPC   C1A 3738   7.308   3.312  11.181 -0.0712  0.2445 -0.0853
  319DOPC   D2A 3739   7.171   3.034  11.477 -0.2556 -0.2967 -0.1025
  319DOPC   C3A 3740   7.127   3.139  11.923 -0.1419  0.0479  0.0770
  319DOPC   C4A 3741   7.175   3.122  12.385  0.0487 -0.2360 -0.0063
  319DOPC   C1B 3742   6.566   3.940  10.971 -0.1321 -0.0061 -0.2388
  319DOPC   D2B 3743   6.469   4.159  11.347 -0.3195  0.1171 -0.1355
  319DOPC   C3B 3744   6.764   4.128  11.720  0.0025 -0.2210 -0.3081
  319DOPC   C4B 3745   7.170   4.010  11.966  0.0865  0.1982 -0.0302
  320DOPE   NH3 3746  11.010   9.291  11.152  0.1314 -0.1845  0.1927
  320DOPE   PO4 3747  11.085   9.550  11.407 -0.1429  0.3311 -0.0214
  320DOPE   GL1 3748  11.327   9.552  11.710  0.0564  0.0173  0.2885
  320DOPE   GL2 3749  11.615   9.499  11.713 -0.1106 -0.0070 -0.0358
  320DOPE   C1A 3750  11.207   9.654  12.133 -0.4935  0.2829  0.0678
  320DOPE   D2A 3751  10.855   9.654  12.415 -0.2384 -0.0718  0.3113
  320DOPE   C3A 3752  10.438   9.613  12.363  0.1198 -0.0734 -0.1492
  320DOPE   C4A 3753  10.021   9.704  12.216  0.2012  0.0914 -0.0556
  320DOPE   C1B 3754  11.711   9.552  12.150  0.1082 -0.1483 -0.2567
  320DOPE   D2B 3755  11.837   9.752  12.560 -0.1685  0.1839 -0.0874
  320DOPE   C3B 3756  11.512   9.906  12.799 -0.0848 -0.0690  0.0696
  320DOPE   C4B 3757  11.109   9.841  12.806  0.1265 -0.2054  0.1358
  321POSM   NC3 3758   8.763  12.142  10.766 -0.2162  0.2466 -0.1135
  321POSM   PO4 3759   8.920  12.474  10.879  0.1463  0.1532 -0.0842
  321POSM   AM1 3760   8.740  12.539  11.147 -0.1236  0.4001 -0.2641
  321POSM   AM2 3761   8.571  12.425  11.340 -0.3970  0.2316 -0.0612
  321POSM   T1A 3762   8.656  12.854  11.485 -0.0294 -0.0740  0.2493
  321POSM   C2A 3763   8.606  12.755  11.945 -0.0662 -0.1330 -0.3865
  321POSM   C3A 3764   8.694  12.609  12.371 -0.3015  0.2825  0.0446
  321POSM   C1B 3765   8.387  12.432  11.635  0.0715  0.0098 -0.2804
  321POSM   D2B 3766   8.163  12.466  12.021 -0.0496 -0.1844  0.2673
  321POSM   C3B 3767   8.223  12.701  12.357  0.1454  0.0820  0.2829
  321POSM   C4B 3768   8.177  12.724  12.853 -0.2681 -0.0447  0.2075
  322DOPE   NH3 3769   6.033   1.924  10.484 -0.0948  0.0740 -0.2967
  322DOPE   PO4 3770   5.760   1.935  10.408  0.1838  0.0718 -0.1592
  322DOPE   GL1 3771   5.432   1.973  10.573  0.2263 -0.0643  0.3050
  322DOPE   GL2 3772   5.202   2.118  10.483  0.3229 -0.0014  0.1073
  322DOPE   C1A 3773   5.385   2.117  10.980 -0.2338 -0.2364  0.0351
  322DOPE   D2A 3774   5.681   2.271  11.357 -0.2183  0.0777 -0.2940
  322DOPE   C3A 3775   6.133   2.295  11.406 -0.1223  0.2002  0.1980
  322DOPE   C4A 3776   6.558   2.282  11.597  0.0853 -0.0679 -0.2483
  322DOPE   C1B 3777   5.013   1.803  10.865  0.1283  0.0259  0.2026
  322DOPE   D2B 3778   4.740   1.690  11.255 -0.3380 -0.0658  0.1064
  322DOPE   C3B 3779   4.353   1.872  11.527  0.0720  0.0953 -0.0453
  322DOPE   C4B 3780   4.309   2.283  11.778  0.1219 -0.0214 -0.1172
  323DOPC   NC3 3781   9.345   3.928  10.383 -0.1262  0.0837  0.2403
  323DOPC   PO4 3782   9.686   4.110  10.275  0.1718  0.1795  0.0351
  323DOPC   GL1 3783   9.666   4.066  10.710  0.3040 -0.2847  0.0359
  323DOPC   GL2 3784   9.477   4.020  10.917 -0.2112  0.0880 -0.1315
  323DOPC   C1A 3785  10.089   4.066  11.000 -0.1280  0.0425 -0.0229
  323DOPC   D2A 3786  10.341   3.956  11.329  0.1285 -0.1499  0.2309
  323DOPC   C3A 3787  10.485   3.506  11.288  0.0573  0.1720 -0.1155
  323DOPC   C4A 3788  10.667   3.261  11.683  0.1392 -0.0288 -0.0322
  323DOPC   C1B 3789   9.259   3.956  11.338  0.1993  0.1242  0.0217
  323DOPC   D2B 3790   9.323   3.908  11.759  0.0284  0.0814 -0.0407
  323DOPC   C3B 3791   9.664   3.785  12.042 -0.2393 -0.2705  0.3904
  323DOPC   C4B 3792   9.991   3.826  12.335 -0.1071  0.3191  0.0493
  324DOPS   CNO 3793  34.542  33.198   9.722  0.2005 -0.0596  0.1106
  324DOPS   PO4 3794  34.832  33.027   9.825 -0.0244  0.2022  0.1228
  324DOPS   GL1 3795  34.873  33.264  10.070  0.2731 -0.1624 -0.4407
  324DOPS   GL2 3796  35.153  33.385  10.154 -0.1312  0.0007 -0.0824
  324DOPS   C1A 3797  34.791  33.474  10.540 -0.4111 -0.1840  0.0176
  324DOPS   D2A 3798  34.865  33.699  10.956 -0.1347  0.1527  0.1269
  324DOPS   C3A 3799  35.056  33.479  11.317  0.2505  0.1094  0.2981
  324DOPS   C4A 3800  35.487  33.410  11.530 -0.2355 -0.0364  0.0201
  324DOPS   C1B 3801  35.297  33.329  10.593 -0.0066 -0.0582 -0.0814
  324DOPS   D2B 3802  35.424  33.120  10.973  0.3304 -0.2338  0.0526
  324DOPS   C3B 3803  35.394  32.697  11.218 -0.2824  0.1947  0.0785
  324DOPS   C4B 3804  35.359  32.469  11.613  0.0836 -0.0887 -0.1269
  325DOPE   NH3 3805   4.376   2.930  10.102 -0.0688 -0.1933 -0.1459
  325DOPE   PO4 3806   4.659   2.737  10.130  0.2705  0.0447 -0.0338
  325DOPE   GL1 3807   4.827   2.452  10.408 -0.0592 -0.1028 -0.3364
  325DOPE   GL2 3808   4.639   2.646  10.590  0.1247 -0.1734  0.0240
  325DOPE   C1A 3809   5.006   2.408  10.830  0.0092  0.2787 -0.0944
  325DOPE   D2A 3810   5.202   2.538  11.232  0.0038  0.0657 -0.0850
  325DOPE   C3A 3811   4.867   2.357  11.552  0.1705  0.0868 -0.4683
  325DOPE   C4A 3812   4.740   2.559  11.962  0.1491 -0.1467  0.0699
  325DOPE   C1B 3813   4.790   2.887  10.969 -0.3138 -0.0724 -0.3190
  325DOPE   D2B 3814   4.846   2.915  11.438  0.1159 -0.2277 -0.0682
  325DOPE   C3B 3815   5.155   2.794  11.770  0.3866  0.1288  0.3685
  325DOPE   C4B 3816   5.126   2.679  12.232  0.2531  0.3084 -0.0603
  326DOPE   NH3 3817   5.252   4.294  10.186 -0.1831 -0.2970  0.0326
  326DOPE   PO4 3818   5.032   4.510  10.230 -0.1690  0.1515  0.1961
  326DOPE   GL1 3819   5.019   4.515  10.622 -0.4909  0.1013  0.2682
  326DOPE   GL2 3820   5.379   4.512  10.710 -0.3631  0.0706  0.0884
  326DOPE   C1A 3821   4.930   4.132  10.945  0.3128  0.0538  0.1552
  326DOPE   D2A 3822   5.381   4.034  11.065  0.0554 -0.0288  0.0667
  326DOPE   C3A 3823   5.528   4.029  11.484 -0.1889 -0.2540 -0.2836
  326DOPE   C4A 3824   5.439   3.880  11.900 -0.0018 -0.2571  0.0608
  326DOPE   C1B 3825   5.511   4.910  10.870 -0.3294 -0.0474 -0.1094
  326DOPE   D2B 3826   5.465   5.276  11.192 -0.0951 -0.0848 -0.2290
  326DOPE   C3B 3827   5.538   5.265  11.662  0.0755 -0.0689  0.0483
  326DOPE   C4B 3828   5.554   5.133  12.120 -0.1219 -0.0022 -0.1771
  327DOPS   CNO 3829  12.192   9.686  10.968 -0.2783  0.2227  0.1130
  327DOPS   PO4 3830  12.184   9.296  11.001  0.1934 -0.0851  0.0397
  327DOPS   GL1 3831  12.184   9.137  11.354  0.0928  0.3605  0.1136
  327DOPS   GL2 3832  11.922   9.079  11.385 -0.3395  0.0883 -0.0400
  327DOPS   C1A 3833  12.411   8.945  11.695 -0.2289  0.0909 -0.0455
  327DOPS   D2A 3834  12.499   8.806  12.164 -0.0366 -0.0690 -0.0146
  327DOPS   C3A 3835  12.425   9.025  12.578 -0.0481  0.2300 -0.1334
  327DOPS   C4A 3836  12.158   9.033  12.946  0.0635  0.2897 -0.1470
  327DOPS   C1B 3837  11.912   9.128  11.828 -0.0710  0.0832  0.1369
  327DOPS   D2B 3838  12.048   9.023  12.250 -0.2137 -0.1843 -0.0024
  327DOPS   C3B 3839  12.054   8.673  12.603  0.2262 -0.0505 -0.1347
  327DOPS   C4B 3840  11.955   8.471  12.998  0.2843  0.1517 -0.0852
  328DOPE   NH3 3841   8.296   3.087  10.481 -0.1092 -0.0197  0.4083
  328DOPE   PO4 3842   8.516   2.835  10.393 -0.1843 -0.1559 -0.1917
  328DOPE   GL1 3843   8.534   2.781  10.908  0.2522 -0.3650 -0.0491
  328DOPE   GL2 3844   8.340   2.508  10.978 -0.0027 -0.3918  0.0507
  328DOPE   C1A 3845   8.740   2.787  11.353  0.0644 -0.1560 -0.0708
  328DOPE   D2A 3846   8.959   3.009  11.720  0.0955 -0.1561  0.2335
  328DOPE   C3A 3847   9.335   3.011  11.991  0.2624  0.1058  0.0285
  328DOPE   C4A 3848   9.738   2.754  12.088  0.0752  0.3659 -0.1449
  328DOPE   C1B 3849   8.584   2.270  11.237  0.2855 -0.0471 -0.3306
  328DOPE   D2B 3850   8.787   2.144  11.584 -0.0157 -0.1054  0.0920
  328DOPE   C3B 3851   8.861   2.532  11.805 -0.3106 -0.2391 -0.1884
  328DOPE   C4B 3852   8.553   2.904  11.901  0.3217 -0.0440 -0.0629
  329DOPS   CNO 3853   8.208   2.095  10.114  0.2220 -0.1613 -0.0105
  329DOPS   PO4 3854   7.900   2.004  10.327  0.2264  0.2291  0.0542
  329DOPS   GL1 3855   7.753   1.786  10.624 -0.1784 -0.2278 -0.1399
  329DOPS   GL2 3856   7.978   1.655  10.749  0.0674  0.0425  0.1707
  329DOPS   C1A 3857   7.476   1.771  11.012 -0.0400  0.0282 -0.0390
  329DOPS   D2A 3858   7.251   1.872  11.365 -0.1326  0.0750  0.2802
  329DOPS   C3A 3859   7.374   1.933  11.839 -0.1755 -0.0942  0.1862
  329DOPS   C4A 3860   7.702   1.954  12.194  0.0299 -0.1915 -0.0272
  329DOPS   C1B 3861   7.934   1.817  11.169 -0.1063 -0.0064 -0.0943
  329DOPS   D2B 3862   7.759   1.920  11.587  0.1981  0.2639 -0.2644
  329DOPS   C3B 3863   7.811   2.291  11.828 -0.0033  0.1346 -0.0111
  329DOPS   C4B 3864   7.976   2.667  12.056 -0.1846 -0.2173  0.2833
  330DOPS   CNO 3865  11.113   2.699   9.968 -0.3222 -0.0880  0.2305
  330DOPS   PO4 3866  10.940   2.898  10.223  0.3637 -0.3150 -0.0483
  330DOPS   GL1 3867  10.959   3.032  10.598  0.2007  0.2647  0.1797
  330DOPS   GL2 3868  11.111   3.343  10.610 -0.0591 -0.1231 -0.1485
  330DOPS   C1A 3869  10.931   2.887  11.020  0.0469 -0.0876 -0.4424
  330DOPS   D2A 3870  11.071   2.935  11.422  0.4488  0.0729 -0.2269
  330DOPS   C3A 3871  10.754   2.763  11.697  0.1985 -0.0219  0.0113
  330DOPS   C4A 3872  10.571   2.530  12.063  0.0425  0.0335  0.0137
  330DOPS   C1B 3873  10.840   3.556  10.889 -0.0485  0.2487  0.4622
  330DOPS   D2B 3874  10.995   3.780  11.322 -0.1717  0.2950 -0.0846
  330DOPS   C3B 3875  10.707   3.839  11.632 -0.2552  0.0478  0.1483
  330DOPS   C4B 3876  10.743   3.653  12.049  0.0341 -0.2060  0.3516
  331DOPC   NC3 3877   3.364  33.730   9.929  0.2482 -0.0016 -0.1822
  331DOPC   PO4 3878   3.345  34.118   9.785 -0.2028 -0.0545 -0.0712
  331DOPC   GL1 3879   3.245  34.238  10.173 -0.0484  0.2163 -0.1128
  331DOPC   GL2 3880   3.263  34.583  10.298  0.1838 -0.1088 -0.1931
  331DOPC   C1A 3881   3.207  33.975  10.563 -0.3966 -0.1230  0.0550
  331DOPC   D2A 3882   3.086  33.969  10.920  0.3400  0.1316 -0.3307
  331DOPC   C3A 3883   3.358  33.835  11.330  0.0168 -0.1206  0.1735
  331DOPC   C4A 3884   3.751  33.835  11.564  0.0293 -0.0435  0.0735
  331DOPC   C1B 3885   3.292  34.517  10.708 -0.0972  0.4073  0.4502
  331DOPC   D2B 3886   3.390  34.784  11.130  0.2805  0.0986  0.2025
  331DOPC   C3B 3887   3.230  35.029  11.478 -0.2052 -0.1347 -0.3057
  331DOPC   C4B 3888   3.444  35.443  11.570 -0.0683 -0.1189  0.0746
  332DOPC   NC3 3889   9.955   6.136  10.453 -0.0359  0.1619 -0.0074
  332DOPC   PO4 3890  10.061   5.838  10.697  0.3285 -0.1170 -0.0748
  332DOPC   GL1 3891  10.347   5.685  10.976  0.1632 -0.4182 -0.1241
  332DOPC   GL2 3892  10.412   5.405  11.023 -0.1258 -0.0738 -0.2483
  332DOPC   C1A 3893  10.347   5.777  11.396 -0.1280  0.3741 -0.2131
  332DOPC   D2A 3894  10.468   5.810  11.883  0.1407 -0.3644 -0.2344
  332DOPC   C3A 3895  10.599   6.242  11.908 -0.0484  0.3320  0.1154
  332DOPC   C4A 3896  10.754   6.645  11.704  0.0956 -0.0471  0.2959
  332DOPC   C1B 3897  10.088   5.191  11.253  0.3314  0.1030 -0.1609
  332DOPC   D2B 3898   9.922   4.947  11.631 -0.0174  0.2159 -0.3771
  332DOPC   C3B 3899  10.107   4.530  11.802  0.4150 -0.0135  0.0794
  332DOPC   C4B 3900  10.220   4.053  11.897 -0.1635  0.2030  0.0479
  333DOPE   NH3 3901   8.132   2.497  10.457  0.1150  0.3408 -0.2426
  333DOPE   PO4 3902   7.771   2.469  10.499 -0.0540 -0.1767  0.1002
  333DOPE   GL1 3903   7.778   2.507  10.953 -0.0036 -0.1181  0.0324
  333DOPE   GL2 3904   7.587   2.291  10.975  0.3197 -0.0018 -0.1208
  333DOPE   C1A 3905   8.019   2.268  11.306  0.0639 -0.1816  0.0526
  333DOPE   D2A 3906   8.271   2.032  11.653  0.0015 -0.4972  0.4295
  333DOPE   C3A 3907   8.198   2.034  12.100  0.2860  0.1396  0.2042
  333DOPE   C4A 3908   8.023   2.275  12.421 -0.0429  0.1638  0.0619
  333DOPE   C1B 3909   7.488   2.356  11.404  0.0660 -0.2576 -0.0299
  333DOPE   D2B 3910   7.275   2.471  11.823 -0.1390  0.0967 -0.0125
  333DOPE   C3B 3911   7.484   2.419  12.231 -0.2115  0.4349  0.1579
  333DOPE   C4B 3912   7.577   2.125  12.599  0.3047 -0.3499 -0.0420
  334DOPC   NC3 3913   8.351  10.910  11.073  0.2076 -0.2862  0.3930
  334DOPC   PO4 3914   8.188  10.661  10.805  0.1501  0.0295  0.2984
  334DOPC   GL1 3915   8.247  10.436  11.193  0.0280  0.0149 -0.1188
  334DOPC   GL2 3916   8.472  10.530  11.347  0.1253  0.1985  0.5073
  334DOPC   C1A 3917   8.186  10.367  11.693  0.2603  0.0186 -0.1890
  334DOPC   D2A 3918   8.207  10.449  12.178  0.2084  0.1575 -0.0272
  334DOPC   C3A 3919   8.205  10.858  12.417  0.0506 -0.0076 -0.3652
  334DOPC   C4A 3920   8.174  11.243  12.700  0.0439 -0.3879 -0.0111
  334DOPC   C1B 3921   8.614  10.727  11.716  0.3400 -0.1310 -0.0924
  334DOPC   D2B 3922   8.651  10.764  12.185  0.3397 -0.0214  0.1344
  334DOPC   C3B 3923   8.667  11.122  12.474  0.0628 -0.2735 -0.1994
  334DOPC   C4B 3924   8.780  11.583  12.558  0.1588 -0.0497 -0.0110
  335POSM   NC3 3925   7.449   0.600  10.418  0.2192  0.2250 -0.4574
  335POSM   PO4 3926   7.114   0.432  10.296  0.2005 -0.2818  0.1968
  335POSM   AM1 3927   6.925   0.424  10.568 -0.0628  0.0846 -0.1789
  335POSM   AM2 3928   7.035   0.449  10.845  0.2982  0.0925 -0.1546
  335POSM   T1A 3929   6.614   0.096  10.706  0.2233 -0.0108 -0.1637
  335POSM   C2A 3930   6.500  -0.357  10.853 -0.0426 -0.3057  0.2006
  335POSM   C3A 3931   6.153  -0.544  11.073  0.0808 -0.0081  0.4707
  335POSM   C1B 3932   6.763   0.389  11.033  0.2360  0.3041 -0.0291
  335POSM   D2B 3933   6.317   0.507  11.189  0.3036  0.1656 -0.0364
  335POSM   C3B 3934   6.066   0.238  11.452 -0.0031  0.1670  0.1571
  335POSM   C4B 3935   6.149   0.250  11.904  0.1054  0.1537 -0.1524
  336DOPC   NC3 3936   5.904   6.319  10.349 -0.1570  0.0059 -0.2045
  336DOPC   PO4 3937   6.075   5.999  10.299 -0.2212  0.1073  0.1015
  336DOPC   GL1 3938   5.937   5.950  10.680  0.0806 -0.1607 -0.0041
  336DOPC   GL2 3939   5.725   6.028  10.809  0.1831  0.2721 -0.2233
  336DOPC   C1A 3940   5.857   5.653  11.054  0.1386  0.0585  0.0296
  336DOPC   D2A 3941   5.926   5.305  11.333  0.1224 -0.0930  0.3430
  336DOPC   C3A 3942   5.979   5.424  11.781 -0.0514  0.3313 -0.2575
  336DOPC   C4A 3943   5.891   5.479  12.267  0.0411 -0.4461 -0.1086
  336DOPC   C1B 3944   5.551   6.353  11.034  0.1831  0.0969 -0.0338
  336DOPC   D2B 3945   5.509   6.392  11.440 -0.3201  0.0489 -0.1627
  336DOPC   C3B 3946   5.315   6.196  11.825 -0.3524  0.1765  0.2697
  336DOPC   C4B 3947   5.303   6.197  12.238 -0.0018  0.1251 -0.2910
  337DOPC   NC3 3948   9.181   6.150  10.772  0.3529  0.2935 -0.2041
  337DOPC   PO4 3949   9.487   6.359  10.629  0.1187 -0.1621  0.0441
  337DOPC   GL1 3950   9.712   6.127  10.899  0.1409  0.2286 -0.0307
  337DOPC   GL2 3951   9.986   6.270  10.898  0.0482 -0.0303  0.0430
  337DOPC   C1A 3952   9.809   6.328  11.317 -0.0319 -0.0480 -0.2427
  337DOPC   D2A 3953   9.641   6.568  11.716  0.2753  0.0000 -0.0471
  337DOPC   C3A 3954   9.937   7.006  11.614  0.2116  0.5532 -0.4512
  337DOPC   C4A 3955  10.157   7.254  11.317  0.0625 -0.2125  0.1848
  337DOPC   C1B 3956  10.306   6.260  11.278 -0.3769 -0.1000  0.4205
  337DOPC   D2B 3957  10.731   6.109  11.453 -0.1073  0.1466  0.2054
  337DOPC   C3B 3958  10.951   5.792  11.757 -0.1020 -0.0422  0.0281
  337DOPC   C4B 3959  10.903   5.662  12.170 -0.1222  0.0705  0.1352
  338DOPE   NH3 3960   3.090   5.748  10.337 -0.3588  0.1609  0.1771
  338DOPE   PO4 3961   3.206   5.957  10.565  0.1454 -0.1752  0.5246
  338DOPE   GL1 3962   3.542   6.056  10.882  0.4550  0.5407  0.1301
  338DOPE   GL2 3963   3.315   6.284  10.981 -0.0688 -0.1435  0.1804
  338DOPE   C1A 3964   3.759   6.372  11.083  0.1355 -0.1805  0.1971
  338DOPE   D2A 3965   4.070   6.655  11.243  0.0248  0.2377 -0.4080
  338DOPE   C3A 3966   4.197   6.534  11.715  0.3162  0.1337 -0.0365
  338DOPE   C4A 3967   4.277   6.396  12.151  0.0370 -0.1054 -0.0006
  338DOPE   C1B 3968   3.113   5.954  11.218  0.0655  0.0687 -0.2964
  338DOPE   D2B 3969   3.247   5.657  11.579 -0.0187  0.0429 -0.1384
  338DOPE   C3B 3970   3.593   5.796  11.758 -0.1586  0.0582 -0.1696
  338DOPE   C4B 3971   3.823   6.145  11.855  0.1300 -0.1760  0.0388
  339DOPE   NH3 3972   2.240  10.840  10.213  0.0592  0.0489 -0.0328
  339DOPE   PO4 3973   2.304  11.129  10.066  0.1996  0.0235 -0.1199
  339DOPE   GL1 3974   2.115  11.151  10.534 -0.2909 -0.2378 -0.1647
  339DOPE   GL2 3975   1.986  11.378  10.579 -0.4137 -0.3414  0.3485
  339DOPE   C1A 3976   2.289  11.178  10.985 -0.0660 -0.1877 -0.0245
  339DOPE   D2A 3977   2.475  10.907  11.328  0.0340  0.3711  0.2030
  339DOPE   C3A 3978   2.254  10.857  11.701 -0.1026 -0.1277  0.3623
  339DOPE   C4A 3979   1.839  10.975  11.821  0.2841  0.1081 -0.2600
  339DOPE   C1B 3980   1.881  11.483  10.991  0.1190 -0.1297 -0.1794
  339DOPE   D2B 3981   1.581  11.568  11.287  0.0321 -0.4899 -0.1303
  339DOPE   C3B 3982   1.713  11.480  11.699  0.0525 -0.1983 -0.2003
  339DOPE   C4B 3983   2.161  11.472  11.864 -0.2687  0.4504  0.0820
  340DOPC   NC3 3984   1.077   5.392   9.994  0.0120 -0.3768  0.2692
  340DOPC   PO4 3985   0.883   5.343  10.370 -0.0488  0.2413 -0.2146
  340DOPC   GL1 3986   1.300   5.429  10.382 -0.1967 -0.2335 -0.0756
  340DOPC   GL2 3987   1.266   5.540  10.663  0.1743  0.0289 -0.0141
  340DOPC   C1A 3988   1.617   5.147  10.609 -0.2835 -0.2131  0.1013
  340DOPC   D2A 3989   1.633   4.919  10.991  0.2855  0.0483  0.0297
  340DOPC   C3A 3990   1.402   4.773  11.283 -0.3239 -0.0457 -0.1281
  340DOPC   C4A 3991   1.273   4.747  11.758  0.1590  0.0690 -0.3178
  340DOPC   C1B 3992   1.334   5.334  11.085 -0.1262  0.1872  0.1960
  340DOPC   D2B 3993   1.336   5.359  11.546 -0.0029  0.0506  0.1785
  340DOPC   C3B 3994   1.289   5.532  11.956 -0.1962  0.0830 -0.0437
  340DOPC   C4B 3995   1.420   5.439  12.395 -0.0141 -0.0339  0.0084
  341DOPE   NH3 3996  14.739   4.766  10.176  0.2288 -0.0361 -0.0206
  341DOPE   PO4 3997  14.647   5.017  10.373  0.1752 -0.1842 -0.0502
  341DOPE   GL1 3998  14.666   5.285  10.652  0.0488  0.3431 -0.1298
  341DOPE   GL2 3999  14.761   5.122  10.895 -0.0742 -0.0503  0.1713
  341DOPE   C1A 4000  14.575   5.529  11.044 -0.3025 -0.2045  0.1810
  341DOPE   D2A 4001  14.584   5.747  11.500  0.1274  0.1839  0.2630
  341DOPE   C3A 4002  14.606   5.623  11.928 -0.0464  0.0611 -0.0734
  341DOPE   C4A 4003  14.352   5.532  12.254 -0.1273  0.0665  0.1052
  341DOPE   C1B 4004  14.750   4.694  11.148  0.1365 -0.0376  0.0139
  341DOPE   D2B 4005  14.704   4.656  11.560  0.1049  0.1874  0.0116
  341DOPE   C3B 4006  14.494   4.392  11.871  0.1888  0.0632  0.1483
  341DOPE   C4B 4007  14.281   4.001  11.858  0.2053  0.0857 -0.1792
  342DOPS   CNO 4008   4.866   9.374  10.461  0.3707  0.0193 -0.0893
  342DOPS   PO4 4009   4.539   9.218  10.523  0.1647 -0.2114 -0.3843
  342DOPS   GL1 4010   4.373   8.953  10.781  0.0309 -0.3291  0.0782
  342DOPS   GL2 4011   4.117   9.030  10.851  0.1297 -0.0822  0.1699
  342DOPS   C1A 4012   4.429   8.700  11.193 -0.2367 -0.0642 -0.1298
  342DOPS   D2A 4013   4.080   8.645  11.513  0.0760  0.2426  0.0854
  342DOPS   C3A 4014   4.063   8.801  11.986 -0.0061 -0.1369 -0.0213
  342DOPS   C4A 4015   4.084   9.013  12.433 -0.0466  0.1731  0.1073
  342DOPS   C1B 4016   4.379   9.177  11.209 -0.0307 -0.2776  0.0076
  342DOPS   D2B 4017   4.396   9.081  11.606  0.0607 -0.0854  0.0597
  342DOPS   C3B 4018   4.053   9.264  11.812 -0.3360 -0.2069  0.0112
  342DOPS   C4B 4019   3.799   9.371  12.197  0.1665 -0.3713 -0.2106
  343DOPC   NC3 4020   4.980   8.428  10.235 -0.1432  0.3127 -0.1374
  343DOPC   PO4 4021   5.271   8.590  10.374  0.0425 -0.1146  0.0897
  343DOPC   GL1 4022   5.320   8.418  10.764 -0.0649  0.1342  0.1175
  343DOPC   GL2 4023   5.091   8.542  10.893  0.0241 -0.0022  0.3059
  343DOPC   C1A 4024   5.172   8.058  11.046 -0.0657  0.0815  0.1085
  343DOPC   D2A 4025   4.851   7.878  11.289  0.0549  0.0333 -0.1428
  343DOPC   C3A 4026   4.757   7.873  11.726 -0.3361  0.0335  0.2625
  343DOPC   C4A 4027   4.563   8.030  12.088  0.2544  0.1301 -0.2572
  343DOPC   C1B 4028   5.304   8.430  11.314 -0.2339 -0.1452 -0.0985
  343DOPC   D2B 4029   5.107   8.286  11.692 -0.3072 -0.4120 -0.0265
  343DOPC   C3B 4030   5.289   7.868  11.671 -0.2296  0.0800 -0.1390
  343DOPC   C4B 4031   5.486   7.420  11.657  0.2913 -0.0236 -0.2432
  344POSM   NC3 4032   8.329   6.082  10.852  0.1614  0.0455  0.3307
  344POSM   PO4 4033   8.695   5.992  10.715 -0.0913  0.2189 -0.0634
  344POSM   AM1 4034   8.766   6.019  11.025 -0.3959 -0.1427 -0.1421
  344POSM   AM2 4035   8.706   5.898  11.246  0.0342 -0.3493  0.2062
  344POSM   T1A 4036   8.786   6.375  11.404  0.2494 -0.0212 -0.1057
  344POSM   C2A 4037   8.643   6.501  11.861 -0.0277  0.3545 -0.1196
  344POSM   C3A 4038   8.573   6.472  12.332 -0.0209  0.1558 -0.2039
  344POSM   C1B 4039   8.828   5.650  11.417 -0.2130 -0.1610 -0.1004
  344POSM   D2B 4040   9.000   5.307  11.549 -0.3144  0.3542 -0.0669
  344POSM   C3B 4041   9.007   5.017  11.928  0.0220 -0.1995 -0.1369
  344POSM   C4B 4042   8.607   4.838  12.081 -0.0546 -0.0545 -0.1223
  345DOPC   NC3 4043   1.174   3.469   9.815  0.1913  0.0868  0.0974
  345DOPC   PO4 4044   0.879   3.715   9.931 -0.0970  0.2065 -0.0842
  345DOPC   GL1 4045   0.782   3.656  10.289 -0.1273  0.0483  0.1395
  345DOPC   GL2 4046   0.737   3.427  10.417  0.0042  0.1050  0.1557
  345DOPC   C1A 4047   0.799   3.863  10.718  0.0883 -0.0081 -0.0435
  345DOPC   D2A 4048   1.025   4.042  11.114 -0.2628 -0.0985  0.0400
  345DOPC   C3A 4049   1.129   3.771  11.471 -0.1439 -0.4242  0.1284
  345DOPC   C4A 4050   0.762   3.669  11.814  0.3331 -0.1185  0.0410
  345DOPC   C1B 4051   1.015   3.430  10.807  0.0411 -0.3713 -0.0027
  345DOPC   D2B 4052   1.405   3.478  11.113 -0.0241  0.0413 -0.0880
  345DOPC   C3B 4053   1.819   3.606  10.997  0.1669 -0.4089 -0.0174
  345DOPC   C4B 4054   1.945   3.961  10.811  0.0171 -0.1628 -0.0063
  346POSM   NC3 4055   6.482   9.231  10.597  0.0694  0.1563 -0.0778
  346POSM   PO4 4056   6.699   9.026  10.804 -0.0823 -0.1190 -0.0471
  346POSM   AM1 4057   6.609   9.208  11.081  0.1432 -0.1882  0.0773
  346POSM   AM2 4058   6.586   9.467  11.069 -0.2968 -0.0687  0.1155
  346POSM   T1A 4059   6.357   9.205  11.470  0.2701  0.3101 -0.1899
  346POSM   C2A 4060   6.175   9.130  11.951 -0.1485  0.3224 -0.0026
  346POSM   C3A 4061   6.440   9.371  12.237 -0.2254 -0.1215 -0.2921
  346POSM   C1B 4062   6.706   9.518  11.342  0.0356  0.0326 -0.1006
  346POSM   D2B 4063   7.110   9.645  11.443 -0.1427 -0.1153 -0.0143
  346POSM   C3B 4064   7.450   9.957  11.524  0.1502  0.1426 -0.1092
  346POSM   C4B 4065   7.696  10.343  11.635 -0.0186  0.1489 -0.2341
  347DOPE   NH3 4066   4.400   5.150  10.163  0.2326 -0.1496  0.0978
  347DOPE   PO4 4067   4.207   4.993  10.360  0.0838  0.2864  0.0259
  347DOPE   GL1 4068   4.220   4.767  10.637  0.3014 -0.1723  0.1684
  347DOPE   GL2 4069   4.434   5.002  10.787  0.0315 -0.0279  0.0877
  347DOPE   C1A 4070   4.023   4.578  11.023 -0.1497  0.1250  0.0236
  347DOPE   D2A 4071   4.011   4.340  11.408 -0.0458 -0.1928 -0.0791
  347DOPE   C3A 4072   3.633   4.019  11.526 -0.1557 -0.2163 -0.0787
  347DOPE   C4A 4073   3.539   3.646  11.776 -0.1842 -0.3792 -0.3403
  347DOPE   C1B 4074   4.736   4.662  10.964 -0.1360  0.0784  0.1879
  347DOPE   D2B 4075   5.149   4.597  11.113 -0.0833  0.0229  0.0065
  347DOPE   C3B 4076   5.114   4.300  11.367  0.3392  0.0958 -0.1609
  347DOPE   C4B 4077   5.234   4.282  11.791 -0.0179  0.0715  0.4882
  348DOPE   NH3 4078  11.678   5.365  10.715  0.1594  0.0143 -0.2266
  348DOPE   PO4 4079  11.662   5.697  10.721  0.0403 -0.0391 -0.1933
  348DOPE   GL1 4080  11.876   5.735  11.072 -0.0179 -0.1318 -0.4491
  348DOPE   GL2 4081  11.665   5.552  11.233  0.1450 -0.1778 -0.0554
  348DOPE   C1A 4082  12.218   5.467  11.223  0.0861 -0.2029 -0.0438
  348DOPE   D2A 4083  12.247   5.083  11.349 -0.1586  0.2332 -0.1150
  348DOPE   C3A 4084  12.592   4.898  11.668  0.2502 -0.4000 -0.0453
  348DOPE   C4A 4085  12.493   4.887  12.117  0.2244 -0.2017  0.0935
  348DOPE   C1B 4086  11.242   5.402  11.472  0.2659 -0.4039 -0.4720
  348DOPE   D2B 4087  10.990   5.156  11.800  0.0656 -0.0241  0.3202
  348DOPE   C3B 4088  10.888   4.789  12.074  0.0444  0.2672 -0.2249
  348DOPE   C4B 4089  11.012   4.410  12.419 -0.0288 -0.1222 -0.2578
  349DOPS   CNO 4090   6.338  33.994  10.262 -0.2250  0.0549 -0.0241
  349DOPS   PO4 4091   6.613  33.764  10.126 -0.1179  0.0598  0.0133
  349DOPS   GL1 4092   6.718  33.530  10.432 -0.0716  0.0654 -0.2765
  349DOPS   GL2 4093   6.756  33.612  10.693  0.0940  0.0777  0.1198
  349DOPS   C1A 4094   6.833  33.074  10.641  0.1742 -0.2817 -0.1360
  349DOPS   D2A 4095   6.840  32.919  11.076 -0.0861  0.2871 -0.2372
  349DOPS   C3A 4096   6.958  33.171  11.480  0.1194  0.0790 -0.0658
  349DOPS   C4A 4097   7.234  33.145  11.851  0.0956  0.1477 -0.5321
  349DOPS   C1B 4098   6.571  33.308  11.051  0.2625  0.0367  0.1246
  349DOPS   D2B 4099   6.433  33.317  11.480 -0.2384  0.0363  0.1658
  349DOPS   C3B 4100   6.619  33.074  11.828 -0.0573 -0.1379 -0.2549
  349DOPS   C4B 4101   6.895  32.729  11.786  0.0423 -0.0024  0.2448
  350DOPE   NH3 4102   5.193  34.147  10.019 -0.0069  0.0128 -0.0801
  350DOPE   PO4 4103   5.482  34.264  10.038  0.2218  0.1525  0.1127
  350DOPE   GL1 4104   5.348  34.149  10.443 -0.1514 -0.1547 -0.3462
  350DOPE   GL2 4105   5.313  34.447  10.507  0.1700 -0.0015 -0.1117
  350DOPE   C1A 4106   4.963  34.022  10.673  0.2053  0.2997 -0.3928
  350DOPE   D2A 4107   4.582  33.842  10.917  0.5319 -0.1416  0.0266
  350DOPE   C3A 4108   4.542  33.663  11.394  0.1199 -0.1211  0.1715
  350DOPE   C4A 4109   4.814  33.695  11.844  0.3747 -0.0812  0.0620
  350DOPE   C1B 4110   5.294  34.454  10.958 -0.0468  0.2587  0.1583
  350DOPE   D2B 4111   5.482  34.194  11.299  0.4733  0.0660 -0.4092
  350DOPE   C3B 4112   5.353  33.843  11.522  0.2444 -0.2367  0.0210
  350DOPE   C4B 4113   5.119  33.490  11.474 -0.2003  0.2221 -0.0757
  351DOPE   NH3 4114   9.983   0.837  10.091 -0.1543 -0.1169  0.1487
  351DOPE   PO4 4115   9.871   0.728  10.348 -0.1021  0.1891 -0.2533
  351DOPE   GL1 4116   9.755   0.854  10.677 -0.4454  0.2142 -0.0493
  351DOPE   GL2 4117   9.502   0.928  10.770 -0.1852  0.4530 -0.0022
  351DOPE   C1A 4118   9.935   0.827  11.093 -0.0379  0.3061  0.2727
  351DOPE   D2A 4119  10.136   0.779  11.496 -0.1711  0.3384 -0.1622
  351DOPE   C3A 4120  10.016   0.478  11.904  0.3017  0.2008  0.1032
  351DOPE   C4A 4121   9.920   0.301  12.270 -0.0664  0.2312  0.1446
  351DOPE   C1B 4122   9.462   1.129  11.214  0.1114 -0.1118  0.1064
  351DOPE   D2B 4123   9.173   1.173  11.598  0.0435 -0.0445  0.0372
  351DOPE   C3B 4124   9.218   1.244  12.116  0.0773 -0.0071  0.0272
  351DOPE   C4B 4125   9.100   1.253  12.544 -0.1985  0.1917 -0.3744
  352POSM   NC3 4126  12.613   8.661  10.905  0.0858  0.2474  0.0301
  352POSM   PO4 4127  12.990   8.574  11.037 -0.0676  0.0463  0.0243
  352POSM   AM1 4128  12.873   8.662  11.382 -0.1318 -0.0277  0.0089
  352POSM   AM2 4129  12.951   8.883  11.530  0.2285  0.1436 -0.2998
  352POSM   T1A 4130  12.727   8.527  11.836  0.2122  0.1132 -0.1061
  352POSM   C2A 4131  12.860   8.383  12.223 -0.2337 -0.1019 -0.0149
  352POSM   C3A 4132  13.186   8.224  12.492  0.2398 -0.1049  0.2499
  352POSM   C1B 4133  13.166   8.727  11.755  0.1199  0.0527  0.0174
  352POSM   D2B 4134  13.394   8.590  12.138  0.0840  0.1008 -0.2801
  352POSM   C3B 4135  13.343   8.690  12.608 -0.2308 -0.1640 -0.0338
  352POSM   C4B 4136  13.398   8.812  13.107 -0.0506 -0.1259  0.0249
  353DOPC   NC3 4137  11.888   6.103  10.809  0.2635  0.2481  0.1689
  353DOPC   PO4 4138  12.219   6.231  10.616 -0.0574  0.3918 -0.1347
  353DOPC   GL1 4139  12.093   6.483  10.947  0.1678  0.0400  0.3495
  353DOPC   GL2 4140  12.367   6.462  11.057 -0.2356 -0.1106 -0.2945
  353DOPC   C1A 4141  11.702   6.579  11.232  0.0157 -0.2592  0.0299
  353DOPC   D2A 4142  11.551   6.854  11.620 -0.1189  0.3755 -0.3803
  353DOPC   C3A 4143  11.198   6.719  11.909  0.1871  0.3122 -0.3043
  353DOPC   C4A 4144  10.891   6.544  12.221  0.1647 -0.2661 -0.0243
  353DOPC   C1B 4145  12.137   6.432  11.483  0.0838  0.0553 -0.1085
  353DOPC   D2B 4146  11.735   6.355  11.735 -0.1521 -0.0102  0.1066
  353DOPC   C3B 4147  11.561   6.416  12.141  0.2254 -0.1946  0.1470
  353DOPC   C4B 4148  11.744   6.595  12.570 -0.4228  0.1997 -0.1607
  354DOPC   NC3 4149   6.002  31.824   9.953  0.0235 -0.0383  0.1260
  354DOPC   PO4 4150   6.322  31.728   9.784 -0.1223 -0.2497 -0.1789
  354DOPC   GL1 4151   6.365  31.354   9.885 -0.0062  0.1283  0.1656
  354DOPC   GL2 4152   6.144  31.374  10.094  0.1937 -0.0620  0.3243
  354DOPC   C1A 4153   6.503  31.067  10.222  0.0335 -0.3122 -0.1749
  354DOPC   D2A 4154   6.645  30.804  10.530  0.1163 -0.1841  0.0050
  354DOPC   C3A 4155   6.733  30.736  10.942  0.1311  0.0765  0.0923
  354DOPC   C4A 4156   6.922  30.652  11.358  0.2482 -0.0042  0.1819
  354DOPC   C1B 4157   5.844  31.435  10.415 -0.0963  0.0323  0.1299
  354DOPC   D2B 4158   5.540  31.667  10.655 -0.1971  0.0054 -0.1219
  354DOPC   C3B 4159   5.534  31.598  11.091  0.1420 -0.2720 -0.0485
  354DOPC   C4B 4160   5.815  31.500  11.453  0.3493  0.2129 -0.0102
  355DOPE   NH3 4161   6.251  33.609   9.819 -0.0315  0.0706 -0.2602
  355DOPE   PO4 4162   5.948  33.591   9.800  0.3101 -0.2663 -0.0368
  355DOPE   GL1 4163   5.993  33.619  10.211 -0.2747 -0.0900 -0.2840
  355DOPE   GL2 4164   6.219  33.523  10.355  0.2349  0.0082 -0.1635
  355DOPE   C1A 4165   5.732  33.660  10.537 -0.0639  0.4561 -0.0861
  355DOPE   D2A 4166   5.295  33.706  10.668  0.0717 -0.0469  0.3403
  355DOPE   C3A 4167   5.120  33.852  11.067  0.0974  0.1617  0.0626
  355DOPE   C4A 4168   4.803  34.106  11.352  0.1587 -0.1964 -0.2361
  355DOPE   C1B 4169   6.254  33.725  10.804  0.0319 -0.0948  0.1551
  355DOPE   D2B 4170   6.475  33.772  11.185  0.1040  0.2531  0.2738
  355DOPE   C3B 4171   6.338  33.933  11.600  0.2954  0.2147  0.0685
  355DOPE   C4B 4172   6.086  33.871  12.020 -0.3284 -0.2254  0.0996
  356DOPE   NH3 4173   9.017   5.337  10.908 -0.1231  0.0967 -0.0820
  356DOPE   PO4 4174   9.261   5.171  10.840  0.1152 -0.3895  0.2576
  356DOPE   GL1 4175   9.451   4.871  11.124  0.0907  0.0407 -0.0553
  356DOPE   GL2 4176   9.513   4.626  11.094 -0.1533  0.1818 -0.2145
  356DOPE   C1A 4177   9.466   4.892  11.639  0.3002 -0.1411  0.1400
  356DOPE   D2A 4178   9.466   4.602  11.984  0.0591 -0.0990 -0.2623
  356DOPE   C3A 4179   9.219   4.719  12.348  0.1256 -0.2414 -0.0528
  356DOPE   C4A 4180   9.281   4.796  12.815  0.0464  0.0598  0.0568
  356DOPE   C1B 4181   9.292   4.475  11.446  0.0220 -0.1396  0.0015
  356DOPE   D2B 4182   9.037   4.458  11.785 -0.2017 -0.1017  0.0503
  356DOPE   C3B 4183   9.202   4.185  12.149  0.1718 -0.0653 -0.2701
  356DOPE   C4B 4184   9.285   3.915  12.504 -0.1192  0.1807 -0.1977
  357POSM   NC3 4185   4.504  34.176   9.349  0.2943 -0.0902  0.0277
  357POSM   PO4 4186   4.298  33.999   9.602  0.0857 -0.1447 -0.1582
  357POSM   AM1 4187   4.281  33.829   9.890 -0.1339 -0.4395  0.0138
  357POSM   AM2 4188   4.127  33.771  10.127 -0.0209 -0.0683 -0.0348
  357POSM   T1A 4189   4.503  33.482  10.146 -0.4690 -0.0603 -0.1889
  357POSM   C2A 4190   4.621  33.463  10.609  0.1224 -0.3188  0.0053
  357POSM   C3A 4191   4.883  33.420  11.010  0.0662 -0.1620  0.1545
  357POSM   C1B 4192   4.176  34.059  10.341 -0.0801 -0.1875  0.1975
  357POSM   D2B 4193   4.213  34.283  10.785 -0.0767  0.1682  0.4353
  357POSM   C3B 4194   3.987  34.572  11.072  0.0274  0.1416 -0.0886
  357POSM   C4B 4195   3.826  34.717  11.451  0.1550  0.1857  0.2998
  358POSM   NC3 4196   7.336   2.440  10.173  0.2784  0.1319  0.0824
  358POSM   PO4 4197   7.411   2.835  10.239  0.0333 -0.1669 -0.1899
  358POSM   AM1 4198   7.270   2.735  10.522  0.1494 -0.3164 -0.0842
  358POSM   AM2 4199   7.305   2.582  10.726 -0.0843  0.0086 -0.3940
  358POSM   T1A 4200   7.074   2.966  10.893  0.0217  0.2300 -0.2381
  358POSM   C2A 4201   6.819   3.248  11.132 -0.0778 -0.0037 -0.2965
  358POSM   C3A 4202   6.579   3.236  11.541 -0.0059 -0.1430 -0.0766
  358POSM   C1B 4203   7.121   2.461  10.932 -0.0721 -0.1812 -0.2202
  358POSM   D2B 4204   6.948   2.216  11.321 -0.0328  0.0063 -0.2039
  358POSM   C3B 4205   6.786   1.841  11.479  0.0315  0.2756 -0.2406
  358POSM   C4B 4206   6.944   1.638  11.824  0.1266 -0.0734  0.0648
  359POSM   NC3 4207   5.139   5.335  10.249  0.0867  0.1254  0.1590
  359POSM   PO4 4208   5.143   5.746  10.368  0.1729  0.0591  0.2935
  359POSM   AM1 4209   4.948   5.701  10.632 -0.1329 -0.2181  0.1571
  359POSM   AM2 4210   4.786   5.946  10.691  0.2055  0.0036 -0.0648
  359POSM   T1A 4211   4.842   5.680  11.096  0.2318 -0.1689  0.2490
  359POSM   C2A 4212   4.652   5.714  11.436  0.0804 -0.0514  0.0403
  359POSM   C3A 4213   4.513   5.526  11.884 -0.0206 -0.2171  0.1810
  359POSM   C1B 4214   4.561   6.141  10.878  0.2299  0.1073 -0.1320
  359POSM   D2B 4215   4.506   6.357  11.270 -0.2557 -0.0725  0.0940
  359POSM   C3B 4216   4.286   6.022  11.572 -0.1005 -0.4878  0.0512
  359POSM   C4B 4217   4.071   5.663  11.845 -0.2367 -0.2885 -0.0716
  360POSM   NC3 4218   9.273   3.089  10.515  0.1157 -0.0104 -0.1861
  360POSM   PO4 4219   9.552   3.027  10.281  0.1509  0.1841 -0.0144
  360POSM   AM1 4220   9.742   3.132  10.549  0.0753  0.4362 -0.1769
  360POSM   AM2 4221   9.688   3.141  10.818 -0.0127 -0.0555  0.2278
  360POSM   T1A 4222  10.072   3.476  10.773 -0.0726  0.2145 -0.0248
  360POSM   C2A 4223  10.418   3.752  10.779 -0.1372  0.0233 -0.0893
  360POSM   C3A 4224  10.637   4.073  10.960 -0.1167  0.4122 -0.0144
  360POSM   C1B 4225   9.570   2.820  10.929 -0.2772 -0.1442  0.3266
  360POSM   D2B 4226   9.608   2.483  11.222  0.0253 -0.1720  0.2626
  360POSM   C3B 4227  10.012   2.411  11.350 -0.0240 -0.1012  0.2086
  360POSM   C4B 4228  10.431   2.390  11.565  0.0478  0.1344  0.0026
  361DOPC   NC3 4229   6.472   4.451  10.040 -0.1860  0.0920  0.3494
  361DOPC   PO4 4230   6.098   4.516  10.075 -0.2900 -0.0947  0.0762
  361DOPC   GL1 4231   6.254   4.458  10.448 -0.0957 -0.0821  0.1521
  361DOPC   GL2 4232   6.282   4.208  10.665  0.2329  0.5066  0.4124
  361DOPC   C1A 4233   5.941   4.595  10.805 -0.1796  0.1542 -0.0248
  361DOPC   D2A 4234   5.706   4.416  11.157  0.1413  0.2958 -0.3183
  361DOPC   C3A 4235   5.680   4.819  11.343 -0.0509 -0.2061 -0.0664
  361DOPC   C4A 4236   5.877   4.896  11.759 -0.1802 -0.2511 -0.2493
  361DOPC   C1B 4237   6.066   4.085  11.027  0.3470 -0.2022 -0.1331
  361DOPC   D2B 4238   6.046   4.074  11.511 -0.0493  0.3107  0.2015
  361DOPC   C3B 4239   5.835   4.200  11.866  0.2027 -0.0693  0.0954
  361DOPC   C4B 4240   6.033   4.529  12.139  0.0715 -0.3739 -0.1177
  362DOPC   NC3 4241   9.666   1.403   9.937 -0.0151  0.1217  0.1405
  362DOPC   PO4 4242  10.005   1.356  10.141  0.0999 -0.1443 -0.1398
  362DOPC   GL1 4243  10.081   1.207  10.490 -0.0763  0.0175 -0.1616
  362DOPC   GL2 4244  10.302   1.015  10.520 -0.0225  0.1784  0.0403
  362DOPC   C1A 4245  10.066   1.315  10.938  0.3340 -0.0479 -0.0213
  362DOPC   D2A 4246   9.981   1.243  11.369  0.0244  0.0519  0.2039
  362DOPC   C3A 4247  10.062   1.396  11.830  0.2135  0.0664  0.1019
  362DOPC   C4A 4248  10.226   1.461  12.297 -0.0896 -0.1089  0.2633
  362DOPC   C1B 4249  10.425   0.957  10.975  0.3077 -0.0123  0.0331
  362DOPC   D2B 4250  10.767   0.968  11.245 -0.0992 -0.0428 -0.2620
  362DOPC   C3B 4251  10.536   1.067  11.632 -0.1650 -0.2977 -0.1134
  362DOPC   C4B 4252  10.550   1.208  12.060  0.2095 -0.0144  0.1458
  363DOPE   NH3 4253   8.898   4.621  10.476  0.1549 -0.1052 -0.3092
  363DOPE   PO4 4254   8.969   4.774  10.746 -0.0509 -0.0555 -0.1088
  363DOPE   GL1 4255   8.809   4.728  11.126 -0.2970 -0.1595 -0.2980
  363DOPE   GL2 4256   9.008   4.921  11.240 -0.0076  0.2955  0.1897
  363DOPE   C1A 4257   8.723   4.312  11.338  0.0904 -0.0957 -0.0267
  363DOPE   D2A 4258   8.781   3.872  11.433 -0.0961  0.1653 -0.1306
  363DOPE   C3A 4259   8.831   4.006  11.859  0.0489 -0.0512  0.0376
  363DOPE   C4A 4260   8.641   4.310  12.153 -0.1069 -0.0941 -0.2442
  363DOPE   C1B 4261   8.640   4.826  11.549  0.0718  0.3593  0.0502
  363DOPE   D2B 4262   8.402   4.460  11.719  0.0401  0.1817  0.0032
  363DOPE   C3B 4263   8.054   4.645  12.019 -0.0093  0.2382 -0.0394
  363DOPE   C4B 4264   7.926   4.759  12.455 -0.2280 -0.1989 -0.2012
  364DOPC   NC3 4265   9.307   7.173  10.554  0.1281 -0.2425  0.2046
  364DOPC   PO4 4266   8.977   7.328  10.686 -0.2629 -0.2084 -0.2383
  364DOPC   GL1 4267   9.038   7.232  11.045  0.1780 -0.1331  0.0561
  364DOPC   GL2 4268   9.303   7.124  11.019  0.1023 -0.1400 -0.5233
  364DOPC   C1A 4269   8.959   7.316  11.477 -0.0619 -0.3012 -0.0117
  364DOPC   D2A 4270   8.978   7.369  11.949 -0.0396  0.1194 -0.0249
  364DOPC   C3A 4271   8.781   7.300  12.321 -0.0512 -0.0372  0.0336
  364DOPC   C4A 4272   8.623   7.502  12.668 -0.2572 -0.2146 -0.0215
  364DOPC   C1B 4273   9.429   7.099  11.460  0.0204 -0.0730  0.0215
  364DOPC   D2B 4274   9.403   7.070  11.922  0.1463  0.0862 -0.2476
  364DOPC   C3B 4275   9.823   6.873  12.078 -0.2075  0.0914 -0.3078
  364DOPC   C4B 4276  10.003   6.447  12.174  0.0120 -0.5512 -0.2519
  365DOPC   NC3 4277   9.748  11.011  10.802 -0.1375  0.3633 -0.0292
  365DOPC   PO4 4278   9.700  10.629  10.900 -0.0951  0.0304  0.2017
  365DOPC   GL1 4279   9.783  10.562  11.267 -0.0654  0.3075  0.0311
  365DOPC   GL2 4280   9.569  10.609  11.387  0.1725 -0.2443  0.2242
  365DOPC   C1A 4281   9.970  10.597  11.679  0.1390  0.2618 -0.1109
  365DOPC   D2A 4282   9.975  10.606  12.138 -0.3550 -0.0531  0.1993
  365DOPC   C3A 4283   9.717  10.655  12.537  0.0998 -0.0281  0.2281
  365DOPC   C4A 4284   9.501  10.984  12.782  0.0506  0.1332  0.0806
  365DOPC   C1B 4285   9.431  10.872  11.720  0.3629 -0.1564 -0.3168
  365DOPC   D2B 4286   9.409  10.847  12.204 -0.3849 -0.0981 -0.3474
  365DOPC   C3B 4287   9.129  11.117  12.456 -0.2351  0.0101 -0.0268
  365DOPC   C4B 4288   9.018  11.196  12.866 -0.0482  0.1419  0.0506
  366DOPS   CNO 4289   9.006   9.223  10.439  0.4033 -0.1027  0.0039
  366DOPS   PO4 4290   8.888   9.294  10.792 -0.0137  0.0692 -0.0025
  366DOPS   GL1 4291   8.817   9.072  11.124 -0.3780  0.0835  0.1125
  366DOPS   GL2 4292   8.558   9.174  11.254  0.1118 -0.0785 -0.0566
  366DOPS   C1A 4293   9.060   9.092  11.500 -0.0230  0.0673  0.1066
  366DOPS   D2A 4294   9.288   9.032  11.876  0.0050 -0.0631 -0.0694
  366DOPS   C3A 4295   9.570   8.785  12.163 -0.0334 -0.4006  0.0621
  366DOPS   C4A 4296   9.808   8.690  12.568 -0.1572 -0.0423  0.1896
  366DOPS   C1B 4297   8.582   9.155  11.712 -0.2471  0.2408  0.0486
  366DOPS   D2B 4298   8.540   9.297  12.140 -0.1171  0.3483  0.0086
  366DOPS   C3B 4299   8.187   9.059  12.182 -0.1983  0.1594  0.3605
  366DOPS   C4B 4300   7.897   8.949  12.516 -0.1119  0.4487 -0.1376
  367POSM   NC3 4301  13.174   6.662  10.823 -0.0001 -0.0424 -0.0868
  367POSM   PO4 4302  13.484   6.490  10.669 -0.0457  0.1785  0.0941
  367POSM   AM1 4303  13.574   6.442  10.992 -0.2863 -0.1333 -0.1278
  367POSM   AM2 4304  13.662   6.611  11.176 -0.0622  0.0581 -0.0704
  367POSM   T1A 4305  13.802   6.095  11.266  0.3276 -0.0730 -0.0519
  367POSM   C2A 4306  14.097   5.790  11.492 -0.0222 -0.1056 -0.2935
  367POSM   C3A 4307  13.981   5.687  11.939  0.1333  0.3316  0.1951
  367POSM   C1B 4308  13.596   6.512  11.469 -0.0001 -0.0016  0.2792
  367POSM   D2B 4309  13.534   6.392  11.910 -0.2031  0.0377 -0.3165
  367POSM   C3B 4310  13.863   6.132  12.191 -0.1734  0.0449  0.0080
  367POSM   C4B 4311  14.285   6.163  12.444  0.4208  0.1338 -0.3474
  368DOPS   CNO 4312  11.072   8.377  10.612  0.4181  0.2742  0.2396
  368DOPS   PO4 4313  11.114   8.370  11.012  0.0437 -0.3129  0.0063
  368DOPS   GL1 4314  10.998   8.392  11.406 -0.0083  0.0175 -0.2905
  368DOPS   GL2 4315  10.847   8.179  11.436 -0.0935 -0.1706 -0.3112
  368DOPS   C1A 4316  11.021   8.650  11.773  0.1230 -0.1642  0.1640
  368DOPS   D2A 4317  11.056   8.738  12.268 -0.0810  0.1561 -0.0556
  368DOPS   C3A 4318  11.400   8.422  12.409  0.1309 -0.1118 -0.4088
  368DOPS   C4A 4319  11.566   8.134  12.733  0.3535  0.0780  0.4556
  368DOPS   C1B 4320  10.783   8.054  11.915  0.3403  0.0931  0.1961
  368DOPS   D2B 4321  10.839   8.266  12.322  0.1206 -0.0579  0.3396
  368DOPS   C3B 4322  11.060   8.221  12.656  0.0138 -0.0714 -0.0685
  368DOPS   C4B 4323  11.242   8.320  13.073 -0.1211 -0.1384  0.0061
  369POSM   NC3 4324   4.556   4.483  10.421 -0.1212 -0.4028 -0.2037
  369POSM   PO4 4325   4.215   4.469  10.219 -0.1673 -0.1197 -0.2206
  369POSM   AM1 4326   4.080   4.340  10.465 -0.1023 -0.0784 -0.1814
  369POSM   AM2 4327   4.182   4.162  10.695 -0.1479  0.0982 -0.0623
  369POSM   T1A 4328   3.695   4.248  10.779  0.1492 -0.2223  0.1936
  369POSM   C2A 4329   3.573   4.451  11.210 -0.1970  0.1620  0.0223
  369POSM   C3A 4330   3.422   4.646  11.570  0.1884 -0.0055  0.2554
  369POSM   C1B 4331   4.436   4.269  10.883 -0.1077  0.2717 -0.0496
  369POSM   D2B 4332   4.547   4.291  11.352  0.2313 -0.2165 -0.1304
  369POSM   C3B 4333   4.308   4.169  11.751  0.0133  0.4363 -0.0765
  369POSM   C4B 4334   4.425   3.978  12.166 -0.1055 -0.0057 -0.1783
  370DOPC   NC3 4335   6.215   7.745  10.618 -0.2427  0.0315 -0.2851
  370DOPC   PO4 4336   5.930   7.459  10.566 -0.1124 -0.1168  0.1014
  370DOPC   GL1 4337   6.087   7.461  10.955 -0.5659  0.2150  0.0470
  370DOPC   GL2 4338   5.990   7.171  10.982 -0.0233  0.0716 -0.3688
  370DOPC   C1A 4339   5.931   7.418  11.411  0.0592 -0.0019 -0.3394
  370DOPC   D2A 4340   6.018   7.373  11.839  0.0626  0.1137  0.0069
  370DOPC   C3A 4341   6.044   7.455  12.280  0.3891  0.1182  0.1299
  370DOPC   C4A 4342   6.315   7.149  12.537  0.0978  0.0376 -0.2611
  370DOPC   C1B 4343   5.579   7.305  11.109 -0.1601 -0.2661  0.0404
  370DOPC   D2B 4344   5.243   7.103  11.291 -0.2495 -0.1372  0.0794
  370DOPC   C3B 4345   5.184   6.986  11.736 -0.1003  0.1542  0.1915
  370DOPC   C4B 4346   5.160   6.637  12.044  0.3666 -0.2585 -0.3138
  371DOPC   NC3 4347  10.136   2.261   9.818 -0.1965 -0.1657 -0.0109
  371DOPC   PO4 4348   9.941   2.423  10.147 -0.1730 -0.4337  0.3890
  371DOPC   GL1 4349  10.150   2.515  10.425  0.1798 -0.0096 -0.2957
  371DOPC   GL2 4350  10.267   2.389  10.590 -0.1056  0.3478  0.0820
  371DOPC   C1A 4351  10.134   2.903  10.712  0.2620 -0.0022 -0.1667
  371DOPC   D2A 4352  10.053   2.890  11.177 -0.1187 -0.2871  0.2771
  371DOPC   C3A 4353   9.699   3.124  11.421 -0.4188  0.0425  0.2652
  371DOPC   C4A 4354   9.595   3.518  11.607 -0.3913  0.0797 -0.0198
  371DOPC   C1B 4355   9.885   2.337  10.858  0.1233  0.1056  0.0836
  371DOPC   D2B 4356   9.710   2.009  11.131 -0.0427 -0.0910 -0.0376
  371DOPC   C3B 4357   9.801   1.845  11.592  0.2991 -0.1623 -0.1052
  371DOPC   C4B 4358   9.978   1.854  12.044 -0.2406  0.0279  0.0696
  372DOPC   NC3 4359   4.255  32.839   9.951 -0.1098  0.0967  0.2650
  372DOPC   PO4 4360   3.940  32.847   9.728  0.0888  0.0007 -0.0844
  372DOPC   GL1 4361   3.889  32.482  10.038 -0.2805  0.0542 -0.0953
  372DOPC   GL2 4362   3.566  32.475   9.889 -0.0816 -0.1069  0.1644
  372DOPC   C1A 4363   4.100  32.193  10.286 -0.0130 -0.1945  0.0971
  372DOPC   D2A 4364   4.031  32.076  10.707 -0.0497 -0.3241  0.2732
  372DOPC   C3A 4365   4.111  32.063  11.138 -0.0966 -0.1461 -0.0773
  372DOPC   C4A 4366   4.160  31.917  11.571  0.1207 -0.0072  0.0585
  372DOPC   C1B 4367   3.260  32.634  10.217 -0.0249 -0.0058  0.2253
  372DOPC   D2B 4368   2.941  32.696  10.550 -0.0323 -0.0608  0.1215
  372DOPC   C3B 4369   2.951  33.077  10.815  0.1218 -0.1094 -0.3031
  372DOPC   C4B 4370   3.253  33.052  11.165 -0.2164  0.2875 -0.0307
  373POSM   NC3 4371   9.885  11.636  10.155  0.1316 -0.0073 -0.0980
  373POSM   PO4 4372   9.875  11.852  10.468  0.2245 -0.0122 -0.0530
  373POSM   AM1 4373   9.740  11.698  10.772  0.3285 -0.1541 -0.3944
  373POSM   AM2 4374   9.785  11.487  10.956  0.3923 -0.0135 -0.0612
  373POSM   T1A 4375   9.411  11.651  11.174 -0.1657  0.0355  0.0733
  373POSM   C2A 4376   9.199  11.339  11.520  0.1026 -0.3012 -0.1728
  373POSM   C3A 4377   9.011  11.106  11.838  0.0642 -0.2590 -0.3857
  373POSM   C1B 4378   9.851  11.298  11.234  0.1457 -0.0698 -0.0344
  373POSM   D2B 4379   9.908  11.066  11.574 -0.2654  0.1190 -0.3747
  373POSM   C3B 4380   9.950  11.117  12.075 -0.2189 -0.0917 -0.1981
  373POSM   C4B 4381  10.012  11.098  12.532 -0.0225 -0.0701  0.0986
  374POSM   NC3 4382   3.585   1.723   9.757 -0.0161  0.0548  0.3943
  374POSM   PO4 4383   3.480   1.369   9.602  0.1278  0.0891  0.1571
  374POSM   AM1 4384   3.448   1.322   9.952 -0.0085  0.0152 -0.0104
  374POSM   AM2 4385   3.548   1.411  10.226 -0.2543 -0.2492  0.0974
  374POSM   T1A 4386   3.084   1.290  10.264  0.2197  0.0830 -0.2416
  374POSM   C2A 4387   3.115   1.118  10.711  0.1119  0.1515  0.1570
  374POSM   C3A 4388   2.784   0.948  11.026  0.0604 -0.0544  0.1303
  374POSM   C1B 4389   3.665   1.747  10.329  0.2157 -0.4974 -0.4677
  374POSM   D2B 4390   3.698   2.099  10.691 -0.0176  0.2653 -0.2250
  374POSM   C3B 4391   3.483   2.239  11.085 -0.0290  0.1601 -0.1537
  374POSM   C4B 4392   3.210   2.533  11.401  0.0591  0.0283 -0.2135
  375DOPE   NH3 4393   6.663   1.715   9.997  0.1009  0.2914  0.0647
  375DOPE   PO4 4394   6.437   1.564  10.214  0.2110 -0.0549  0.1314
  375DOPE   GL1 4395   6.245   1.547  10.576 -0.1190  0.1839  0.0995
  375DOPE   GL2 4396   6.408   1.665  10.806 -0.0471  0.0033 -0.0901
  375DOPE   C1A 4397   6.195   1.130  10.831 -0.0697 -0.2299  0.3392
  375DOPE   D2A 4398   6.056   0.978  11.240  0.3137 -0.1540  0.1306
  375DOPE   C3A 4399   6.101   0.796  11.641  0.2740  0.2011 -0.1172
  375DOPE   C4A 4400   6.335   0.772  12.012  0.0089 -0.0941  0.0824
  375DOPE   C1B 4401   6.616   1.398  11.138 -0.0111  0.0168 -0.0202
  375DOPE   D2B 4402   6.598   1.025  11.372  0.1886  0.1365  0.0125
  375DOPE   C3B 4403   6.596   0.550  11.550 -0.4443 -0.1443 -0.1908
  375DOPE   C4B 4404   6.654   0.178  11.798 -0.0455  0.0890  0.3166
  376DOPS   CNO 4405  11.682   6.246  10.340  0.1132 -0.2199  0.4729
  376DOPS   PO4 4406  11.463   6.123  10.591  0.2336 -0.2315 -0.0784
  376DOPS   GL1 4407  11.404   6.023  11.000  0.3231  0.1543 -0.4119
  376DOPS   GL2 4408  11.274   5.903  11.268 -0.2135 -0.0296 -0.0470
  376DOPS   C1A 4409  11.689   6.127  11.277  0.0925 -0.2941 -0.1860
  376DOPS   D2A 4410  12.012   5.872  11.531  0.0925 -0.0401  0.1537
  376DOPS   C3A 4411  11.861   5.510  11.697 -0.0358  0.1320 -0.2333
  376DOPS   C4A 4412  12.165   5.139  11.836  0.0923 -0.1941 -0.0682
  376DOPS   C1B 4413  11.545   5.878  11.679 -0.4224 -0.0545  0.0316
  376DOPS   D2B 4414  11.856   5.941  12.012  0.1322  0.4538 -0.1256
  376DOPS   C3B 4415  12.175   5.632  12.194  0.1876 -0.1492  0.3419
  376DOPS   C4B 4416  12.083   5.244  12.341 -0.0433 -0.1833  0.0624
  377DOPE   NH3 4417  14.551   8.422  10.785 -0.2021 -0.1869 -0.0183
  377DOPE   PO4 4418  14.475   8.569  11.053  0.1517  0.0583  0.1212
  377DOPE   GL1 4419  14.588   8.861  11.334 -0.1926  0.2081 -0.0374
  377DOPE   GL2 4420  14.456   8.710  11.581  0.1090 -0.1862 -0.0216
  377DOPE   C1A 4421  14.547   9.274  11.441 -0.1218 -0.3218  0.0378
  377DOPE   D2A 4422  14.242   9.618  11.422  0.0468 -0.0688  0.2964
  377DOPE   C3A 4423  14.055   9.686  11.864  0.2338 -0.0424  0.3456
  377DOPE   C4A 4424  13.915   9.791  12.239 -0.2355 -0.2342 -0.3514
  377DOPE   C1B 4425  14.280   9.039  11.863  0.1644  0.1715 -0.2373
  377DOPE   D2B 4426  13.857   9.209  12.023  0.0635 -0.2432 -0.2368
  377DOPE   C3B 4427  13.599   9.122  12.424  0.1428 -0.0815  0.1208
  377DOPE   C4B 4428  13.199   9.158  12.728 -0.3192  0.3520 -0.0618
  378DOPC   NC3 4429   0.041   1.259   9.800  0.2592 -0.2250 -0.0321
  378DOPC   PO4 4430   0.346   1.156   9.592 -0.1303 -0.2053  0.0772
  378DOPC   GL1 4431   0.395   1.263  10.045  0.2373 -0.2091  0.2254
  378DOPC   GL2 4432   0.654   1.378  10.060 -0.0884  0.1909  0.1096
  378DOPC   C1A 4433   0.329   1.050  10.468 -0.3691 -0.2026  0.3214
  378DOPC   D2A 4434   0.364   1.168  10.933  0.0688 -0.1336  0.0916
  378DOPC   C3A 4435   0.439   1.003  11.381 -0.5242 -0.0739  0.5412
  378DOPC   C4A 4436   0.562   1.092  11.839 -0.3078 -0.2073 -0.1352
  378DOPC   C1B 4437   0.708   1.499  10.526 -0.2096 -0.0603  0.1364
  378DOPC   D2B 4438   0.773   1.564  10.970 -0.2573 -0.5035 -0.1721
  378DOPC   C3B 4439   1.124   1.296  11.129 -0.1672  0.0758 -0.0868
  378DOPC   C4B 4440   1.227   1.129  11.549  0.1285 -0.4401 -0.1287
  379DOPC   NC3 4441   8.160   1.543  10.201 -0.1651  0.0787 -0.1913
  379DOPC   PO4 4442   7.760   1.463  10.203  0.1988  0.0808 -0.1132
  379DOPC   GL1 4443   7.880   1.284  10.590  0.2180  0.2215  0.0852
  379DOPC   GL2 4444   7.599   1.098  10.571  0.0497  0.0258  0.0529
  379DOPC   C1A 4445   7.985   1.051  11.005  0.1883 -0.0060  0.2499
  379DOPC   D2A 4446   7.945   0.899  11.407  0.2225 -0.0642  0.0477
  379DOPC   C3A 4447   7.888   0.636  11.770  0.1774  0.1574 -0.2672
  379DOPC   C4A 4448   7.606   0.328  11.938 -0.3432 -0.2590  0.0759
  379DOPC   C1B 4449   7.423   0.798  10.933 -0.2464 -0.0737  0.0829
  379DOPC   D2B 4450   7.487   0.507  11.308 -0.0478 -0.2698  0.0713
  379DOPC   C3B 4451   7.134   0.357  11.576  0.2434 -0.0646  0.1373
  379DOPC   C4B 4452   7.056   0.560  11.939  0.0259  0.1330 -0.1194
  380POSM   NC3 4453  10.567   7.037  10.651 -0.0876 -0.0471  0.0052
  380POSM   PO4 4454  10.192   7.198  10.564 -0.1735 -0.2128  0.0521
  380POSM   AM1 4455  10.098   6.982  10.852 -0.1929 -0.2675  0.2560
  380POSM   AM2 4456  10.267   6.850  10.986  0.0355 -0.0026  0.2458
  380POSM   T1A 4457   9.845   6.799  11.224  0.0037 -0.1179 -0.3232
  380POSM   C2A 4458   9.420   6.651  11.224 -0.1826  0.0423  0.2084
  380POSM   C3A 4459   9.264   6.260  11.228 -0.2693 -0.0834 -0.4777
  380POSM   C1B 4460  10.338   6.821  11.286 -0.2011 -0.3111 -0.0786
  380POSM   D2B 4461  10.237   6.586  11.680 -0.1867 -0.0185  0.3063
  380POSM   C3B 4462  10.123   6.119  11.712 -0.1305 -0.2303  0.3450
  380POSM   C4B 4463   9.948   5.783  11.977 -0.1866  0.4467 -0.2390
  381POSM   NC3 4464   2.534   6.992  10.076  0.0553  0.0680 -0.1204
  381POSM   PO4 4465   2.691   6.645  10.255  0.1103  0.0540  0.0300
  381POSM   AM1 4466   2.571   6.496  10.487  0.0302 -0.0641 -0.0133
  381POSM   AM2 4467   2.447   6.600  10.731 -0.0225 -0.1386  0.0431
  381POSM   T1A 4468   2.186   6.187  10.589  0.2475 -0.2541  0.1457
  381POSM   C2A 4469   1.830   6.004  10.860 -0.1158 -0.0067  0.2127
  381POSM   C3A 4470   1.498   5.817  11.051  0.1139 -0.1506 -0.2530
  381POSM   C1B 4471   2.461   6.586  11.072  0.0938 -0.0870  0.0371
  381POSM   D2B 4472   2.478   6.780  11.520  0.0152  0.0410 -0.1644
  381POSM   C3B 4473   2.078   6.992  11.651 -0.0393  0.0086  0.0601
  381POSM   C4B 4474   1.682   6.849  11.879  0.0750  0.0623 -0.1341
  382DOPS   CNO 4475   7.703   3.234  10.217  0.1342  0.3875 -0.1588
  382DOPS   PO4 4476   7.926   3.445  10.433 -0.2732  0.1843  0.0218
  382DOPS   GL1 4477   8.049   3.360  10.787 -0.1457  0.2448  0.2998
  382DOPS   GL2 4478   7.767   3.338  10.911  0.0841  0.0826 -0.2828
  382DOPS   C1A 4479   8.233   3.620  11.128 -0.1287 -0.1322  0.0384
  382DOPS   D2A 4480   8.520   3.484  11.431  0.0575 -0.1853 -0.0908
  382DOPS   C3A 4481   8.560   3.475  11.873 -0.1052 -0.1181 -0.0792
  382DOPS   C4A 4482   8.739   3.194  12.212 -0.1420  0.0017 -0.2296
  382DOPS   C1B 4483   7.806   3.288  11.339  0.0404 -0.3340 -0.1230
  382DOPS   D2B 4484   8.180   3.235  11.661 -0.0131  0.4946 -0.0384
  382DOPS   C3B 4485   8.011   3.139  12.066 -0.2550 -0.3426  0.0999
  382DOPS   C4B 4486   8.275   2.885  12.369  0.0911 -0.1402  0.2901
  383POSM   NC3 4487   4.713  31.735   9.461  0.1707 -0.1246  0.1444
  383POSM   PO4 4488   4.943  31.560   9.705 -0.1292 -0.2548  0.0058
  383POSM   AM1 4489   4.969  31.450  10.002  0.0496 -0.2459 -0.0340
  383POSM   AM2 4490   4.819  31.287  10.172  0.3077  0.0665  0.1483
  383POSM   T1A 4491   5.173  31.293  10.455  0.3636  0.5097 -0.2330
  383POSM   C2A 4492   5.550  31.109  10.642 -0.0986  0.0568  0.2857
  383POSM   C3A 4493   5.662  30.744  10.938  0.1094  0.3383  0.4410
  383POSM   C1B 4494   4.681  31.040  10.284 -0.1181  0.0929  0.0745
  383POSM   D2B 4495   4.468  30.742  10.516  0.1622  0.1297  0.3372
  383POSM   C3B 4496   4.506  30.292  10.510  0.1516 -0.1321 -0.1491
  383POSM   C4B 4497   4.803  29.930  10.688  0.0732 -0.3343 -0.0148
  384DOPE   NH3 4498   7.547   9.715  10.571 -0.1383 -0.0434  0.2418
  384DOPE   PO4 4499   7.504   9.418  10.627  0.0795 -0.2895 -0.0420
  384DOPE   GL1 4500   7.212   9.529  10.954 -0.3332 -0.0119 -0.0926
  384DOPE   GL2 4501   7.049   9.293  11.080 -0.0522 -0.1022 -0.0061
  384DOPE   C1A 4502   6.936   9.857  11.049 -0.0637 -0.0774  0.0497
  384DOPE   D2A 4503   6.687   9.981  11.439  0.1573  0.0521 -0.0047
  384DOPE   C3A 4504   7.036   9.953  11.779 -0.1316 -0.3429  0.1571
  384DOPE   C4A 4505   7.383   9.695  11.954  0.0076 -0.1556  0.0319
  384DOPE   C1B 4506   6.998   9.165  11.536 -0.0401  0.0568  0.0827
  384DOPE   D2B 4507   6.746   8.949  11.844 -0.1840 -0.4513  0.1554
  384DOPE   C3B 4508   6.900   8.989  12.253 -0.1274 -0.0932 -0.0132
  384DOPE   C4B 4509   7.088   9.364  12.541 -0.1021 -0.0563  0.1792
  385DOPE   NH3 4510   2.795  34.501  10.083  0.1795 -0.3629 -0.0968
  385DOPE   PO4 4511   2.735  34.204  10.178 -0.0362 -0.0586  0.1086
  385DOPE   GL1 4512   2.822  34.202  10.512  0.0505 -0.2168 -0.0540
  385DOPE   GL2 4513   2.728  34.508  10.603 -0.1011  0.2681  0.3121
  385DOPE   C1A 4514   2.651  34.099  10.909  0.0666  0.0366  0.1295
  385DOPE   D2A 4515   2.470  33.737  11.171 -0.3262 -0.1215 -0.0439
  385DOPE   C3A 4516   2.713  33.660  11.575  0.3078  0.0094 -0.3987
  385DOPE   C4A 4517   2.830  33.558  12.037 -0.0452 -0.0536  0.2061
  385DOPE   C1B 4518   2.988  34.856  10.614 -0.1152 -0.3292 -0.2676
  385DOPE   D2B 4519   3.394  35.017  10.695  0.2574  0.0732  0.2787
  385DOPE   C3B 4520   3.382  35.424  10.935 -0.0485 -0.0965 -0.0537
  385DOPE   C4B 4521   3.604  35.789  11.110 -0.1311 -0.1612  0.0114
  386DOPE   NH3 4522   2.287  34.058   9.932  0.1986  0.0144 -0.1704
  386DOPE   PO4 4523   2.430  33.731   9.935 -0.0897 -0.0918  0.2306
  386DOPE   GL1 4524   2.594  33.818  10.399 -0.0062 -0.3165  0.1872
  386DOPE   GL2 4525   2.322  33.916  10.449 -0.2285  0.2530 -0.4809
  386DOPE   C1A 4526   2.775  33.587  10.761  0.0044  0.1494  0.2112
  386DOPE   D2A 4527   2.979  33.482  11.156 -0.3298 -0.0801  0.0591
  386DOPE   C3A 4528   3.179  33.456  11.631 -0.1361  0.0623  0.0271
  386DOPE   C4A 4529   3.399  33.590  12.032 -0.2655 -0.0753  0.2342
  386DOPE   C1B 4530   2.083  34.138  10.767  0.4099 -0.2674 -0.0159
  386DOPE   D2B 4531   2.204  34.597  10.888  0.1164  0.0121 -0.1479
  386DOPE   C3B 4532   2.478  34.606  11.206  0.0732  0.3117  0.1256
  386DOPE   C4B 4533   2.759  34.854  11.427  0.2202 -0.0824 -0.0195
  387DOPS   CNO 4534   7.208  34.254  10.264 -0.2539 -0.2770  0.0220
  387DOPS   PO4 4535   7.546  34.327  10.383 -0.1111 -0.1669  0.1823
  387DOPS   GL1 4536   7.616  34.644  10.659  0.1355 -0.2270  0.1891
  387DOPS   GL2 4537   7.873  34.510  10.685 -0.0568  0.0460 -0.1838
  387DOPS   C1A 4538   7.353  34.805  10.972  0.0792 -0.2697  0.0580
  387DOPS   D2A 4539   6.956  34.589  11.034 -0.1787  0.0071  0.2772
  387DOPS   C3A 4540   6.558  34.689  11.268 -0.0486  0.0398  0.0095
  387DOPS   C4A 4541   6.294  34.485  11.624  0.2084 -0.0060 -0.2974
  387DOPS   C1B 4542   7.690  34.238  11.008  0.0342  0.1319  0.1808
  387DOPS   D2B 4543   7.351  34.369  11.285 -0.1103 -0.0003  0.0149
  387DOPS   C3B 4544   7.263  34.003  11.566 -0.2004  0.2397 -0.0759
  387DOPS   C4B 4545   6.883  33.719  11.510 -0.1618 -0.2770  0.2256
  388POSM   NC3 4546   5.159   2.901  10.563 -0.0688 -0.2230 -0.2650
  388POSM   PO4 4547   5.513   2.891  10.493  0.1879 -0.1864  0.3191
  388POSM   AM1 4548   5.515   3.032  10.781 -0.0703 -0.3596  0.1772
  388POSM   AM2 4549   5.415   3.137  11.009  0.1177 -0.0625 -0.0842
  388POSM   T1A 4550   5.855   3.178  11.141  0.2758  0.2684 -0.0027
  388POSM   C2A 4551   6.002   3.283  11.525  0.0309  0.0189  0.0814
  388POSM   C3A 4552   6.047   3.209  11.973 -0.2689 -0.1104 -0.1306
  388POSM   C1B 4553   5.268   3.091  11.259  0.1275 -0.2485 -0.0539
  388POSM   D2B 4554   5.078   3.385  11.627  0.2487  0.2363  0.0916
  388POSM   C3B 4555   5.015   3.691  11.999 -0.0200 -0.1928  0.1790
  388POSM   C4B 4556   5.102   3.554  12.436 -0.1036  0.2504 -0.0617
  389POSM   NC3 4557  12.359   4.902  10.331 -0.0569 -0.2675 -0.2561
  389POSM   PO4 4558  12.467   5.292  10.463 -0.1849  0.0840  0.0068
  389POSM   AM1 4559  12.588   5.209  10.758 -0.0860 -0.1824  0.3114
  389POSM   AM2 4560  12.623   5.326  11.051  0.0297  0.3436 -0.2812
  389POSM   T1A 4561  12.837   4.888  11.047  0.0364  0.2631  0.0020
  389POSM   C2A 4562  12.761   4.539  11.350 -0.0750  0.1613  0.0622
  389POSM   C3A 4563  12.682   4.431  11.813 -0.0794  0.3006 -0.0458
  389POSM   C1B 4564  12.768   5.308  11.385  0.1430  0.1779 -0.2200
  389POSM   D2B 4565  13.092   4.973  11.540 -0.1049  0.0689 -0.1545
  389POSM   C3B 4566  13.049   4.889  11.973  0.0880 -0.4033  0.2800
  389POSM   C4B 4567  12.976   4.550  12.250 -0.0002  0.1268  0.0283
  390DOPE   NH3 4568   7.800   2.938  10.648  0.0728 -0.4743  0.1424
  390DOPE   PO4 4569   8.045   2.859  10.846  0.1169  0.1282 -0.0109
  390DOPE   GL1 4570   8.008   2.762  11.227  0.2157  0.1902 -0.5866
  390DOPE   GL2 4571   8.211   2.775  11.387 -0.2934  0.1129  0.1757
  390DOPE   C1A 4572   7.752   2.823  11.597  0.3632  0.0153 -0.1810
  390DOPE   D2A 4573   7.533   2.894  11.933  0.1660  0.0944 -0.2255
  390DOPE   C3A 4574   7.658   2.900  12.362  0.0149  0.1264 -0.2774
  390DOPE   C4A 4575   7.757   2.597  12.665 -0.0940  0.0474 -0.2225
  390DOPE   C1B 4576   8.348   2.506  11.701 -0.1331  0.0240  0.2692
  390DOPE   D2B 4577   8.420   2.486  12.118  0.2926  0.0040  0.0128
  390DOPE   C3B 4578   8.751   2.702  12.345  0.0977  0.3143 -0.0100
  390DOPE   C4B 4579   8.851   2.600  12.774 -0.2315  0.1452  0.0413
  391DOPS   CNO 4580   1.767  10.126   9.868  0.1206  0.1831  0.1028
  391DOPS   PO4 4581   1.754  10.086  10.234  0.4203  0.3671  0.3398
  391DOPS   GL1 4582   1.687  10.167  10.638  0.1195 -0.1983  0.0472
  391DOPS   GL2 4583   1.964  10.232  10.720 -0.0099 -0.0014 -0.0388
  391DOPS   C1A 4584   1.499  10.054  11.061 -0.2784 -0.1334 -0.4760
  391DOPS   D2A 4585   1.404   9.835  11.460 -0.0305  0.1339 -0.0591
  391DOPS   C3A 4586   1.763   9.580  11.601  0.2269  0.1557  0.1782
  391DOPS   C4A 4587   2.132   9.234  11.551 -0.0914  0.0025 -0.1087
  391DOPS   C1B 4588   1.741  10.504  11.026 -0.0883 -0.1292  0.0806
  391DOPS   D2B 4589   1.435  10.646  11.371 -0.2105 -0.2184 -0.0476
  391DOPS   C3B 4590   1.736  10.480  11.709  0.1629  0.1462  0.0397
  391DOPS   C4B 4591   1.555  10.414  12.174 -0.0278 -0.1523 -0.0432
  392DOPE   NH3 4592   8.395   7.154  10.481  0.1214  0.0585 -0.1537
  392DOPE   PO4 4593   8.114   7.091  10.653 -0.1849  0.0959  0.2764
  392DOPE   GL1 4594   8.126   7.233  11.013 -0.1453 -0.0391  0.1117
  392DOPE   GL2 4595   7.789   7.263  11.043 -0.2547  0.0954 -0.1119
  392DOPE   C1A 4596   8.141   7.148  11.458  0.2833  0.1300 -0.2109
  392DOPE   D2A 4597   8.227   6.946  11.892 -0.3349 -0.4702 -0.2893
  392DOPE   C3A 4598   8.410   7.012  12.302 -0.0561  0.0739  0.1852
  392DOPE   C4A 4599   8.755   6.891  12.593 -0.0569 -0.0762  0.0462
  392DOPE   C1B 4600   7.753   7.445  11.410 -0.0025  0.1529 -0.4689
  392DOPE   D2B 4601   8.027   7.581  11.758 -0.0308  0.3913  0.0554
  392DOPE   C3B 4602   7.989   7.279  12.174  0.1876 -0.0717  0.3376
  392DOPE   C4B 4603   7.864   7.037  12.462 -0.0846 -0.0831 -0.1226
  393POSM   NC3 4604  34.132   0.966   9.205  0.0953  0.0877 -0.2973
  393POSM   PO4 4605  34.376   0.684   9.284  0.1712 -0.2377 -0.1869
  393POSM   AM1 4606  34.364   0.483   9.543 -0.0582 -0.1601  0.0817
  393POSM   AM2 4607  34.349   0.207   9.609  0.1428 -0.0678 -0.1293
  393POSM   T1A 4608  34.385   0.539  10.011 -0.0476  0.0101  0.2609
  393POSM   C2A 4609  34.617   0.357  10.420 -0.0830  0.2505 -0.0799
  393POSM   C3A 4610  34.680   0.683  10.724  0.0870 -0.1061  0.4722
  393POSM   C1B 4611  34.654   0.220   9.812 -0.0342 -0.2428  0.1645
  393POSM   D2B 4612  34.972   0.072  10.032  0.0993  0.0004  0.0426
  393POSM   C3B 4613  35.012   0.001  10.491  0.0511  0.2462 -0.0981
  393POSM   C4B 4614  34.969  -0.391  10.705  0.0797  0.2810 -0.2306
  394POSM   NC3 4615   1.316   8.638   9.915  0.1013  0.1272 -0.1282
  394POSM   PO4 4616   0.979   8.481  10.086  0.1356 -0.1979 -0.4257
  394POSM   AM1 4617   1.091   8.604  10.356 -0.0217 -0.1915  0.0181
  394POSM   AM2 4618   1.359   8.677  10.409 -0.5960  0.3508 -0.1542
  394POSM   T1A 4619   1.007   8.627  10.870 -0.3787  0.0792 -0.0593
  394POSM   C2A 4620   0.771   8.682  11.306  0.1101  0.0487 -0.0787
  394POSM   C3A 4621   0.862   8.769  11.734  0.1603  0.0258 -0.0273
  394POSM   C1B 4622   1.332   8.927  10.628  0.0799 -0.3070  0.3811
  394POSM   D2B 4623   1.392   9.405  10.620  0.0730  0.0395 -0.4390
  394POSM   C3B 4624   1.735   9.630  10.838  0.0355  0.0837 -0.2184
  394POSM   C4B 4625   1.916   9.850  11.213  0.0444 -0.1188  0.2977
  395DOPC   NC3 4626   2.817   5.021  10.524 -0.0353 -0.0901  0.0808
  395DOPC   PO4 4627   2.733   5.366  10.331  0.0509  0.1676 -0.0772
  395DOPC   GL1 4628   2.610   5.412  10.542  0.0276  0.2126  0.0188
  395DOPC   GL2 4629   2.346   5.297  10.680  0.0815 -0.2163 -0.2190
  395DOPC   C1A 4630   2.799   5.632  10.936  0.1199 -0.0961 -0.0783
  395DOPC   D2A 4631   2.738   5.657  11.400  0.1713  0.0329 -0.5602
  395DOPC   C3A 4632   2.820   5.800  11.829  0.0131 -0.0943 -0.1654
  395DOPC   C4A 4633   3.154   6.014  12.051  0.4133  0.0573 -0.2897
  395DOPC   C1B 4634   2.510   5.289  11.087 -0.0942  0.1643 -0.4699
  395DOPC   D2B 4635   2.472   5.077  11.506  0.1388 -0.0744 -0.3146
  395DOPC   C3B 4636   2.634   4.873  11.892  0.0712 -0.1818 -0.0392
  395DOPC   C4B 4637   2.895   4.640  12.272  0.1762  0.0069  0.1390
  396POSM   NC3 4638   4.717   4.222   9.915 -0.1531  0.1585  0.3199
  396POSM   PO4 4639   4.377   4.038   9.970 -0.1872  0.0805 -0.0050
  396POSM   AM1 4640   4.350   3.983  10.297  0.4911 -0.1913  0.3292
  396POSM   AM2 4641   4.445   3.749  10.438  0.3060  0.0362 -0.2406
  396POSM   T1A 4642   3.985   3.778  10.632 -0.0077  0.1418  0.2020
  396POSM   C2A 4643   3.829   3.934  11.112 -0.0155  0.1890  0.2683
  396POSM   C3A 4644   3.388   3.759  11.217  0.4244  0.0715  0.2599
  396POSM   C1B 4645   4.453   3.758  10.786  0.0339 -0.0420  0.1818
  396POSM   D2B 4646   4.330   3.766  11.194 -0.3269  0.1924 -0.1449
  396POSM   C3B 4647   4.161   3.667  11.628 -0.0574 -0.1779  0.3693
  396POSM   C4B 4648   3.958   3.263  11.722  0.1584 -0.3603  0.1210
  397DOPE   NH3 4649   3.636   0.256   9.537  0.0128 -0.3991 -0.2360
  397DOPE   PO4 4650   3.562   0.518   9.761  0.1483 -0.2126  0.3630
  397DOPE   GL1 4651   3.239   0.645   9.960 -0.0495 -0.4554 -0.2363
  397DOPE   GL2 4652   3.131   0.368  10.142 -0.1163  0.0105  0.0326
  397DOPE   C1A 4653   3.302   0.717  10.404 -0.0547 -0.0646  0.0484
  397DOPE   D2A 4654   2.991   0.647  10.717 -0.2498  0.1336  0.0733
  397DOPE   C3A 4655   2.992   0.331  11.050  0.0405  0.0445  0.0411
  397DOPE   C4A 4656   2.945  -0.174  11.087 -0.0176  0.0454 -0.0876
  397DOPE   C1B 4657   2.821   0.699  10.230  0.0561  0.2429 -0.0275
  397DOPE   D2B 4658   2.605   1.065  10.338  0.1866 -0.2059  0.2781
  397DOPE   C3B 4659   2.624   1.422  10.645 -0.1393  0.0717  0.4131
  397DOPE   C4B 4660   2.793   1.743  10.883  0.2321 -0.1757 -0.0683
  398DOPS   CNO 4661   2.964   2.196   9.367 -0.1573  0.1884 -0.1311
  398DOPS   PO4 4662   2.812   2.301   9.694 -0.0963 -0.1044  0.5671
  398DOPS   GL1 4663   2.647   2.069  10.028 -0.2734  0.0316  0.1164
  398DOPS   GL2 4664   2.811   2.183  10.234  0.1329  0.0731 -0.0322
  398DOPS   C1A 4665   2.871   1.754  10.349 -0.0944 -0.0069 -0.1272
  398DOPS   D2A 4666   3.248   1.734  10.635  0.1363  0.1296 -0.0282
  398DOPS   C3A 4667   3.243   1.452  11.004  0.1008 -0.2263  0.1518
  398DOPS   C4A 4668   3.123   1.040  11.306  0.4131 -0.0225  0.0629
  398DOPS   C1B 4669   2.981   2.161  10.669  0.2245 -0.1403 -0.1330
  398DOPS   D2B 4670   3.037   2.075  11.137 -0.1400 -0.1146  0.0953
  398DOPS   C3B 4671   2.695   1.982  11.466  0.0862 -0.2354  0.0535
  398DOPS   C4B 4672   2.417   2.058  11.872  0.2971 -0.3169  0.2546
  399DOPC   NC3 4673   3.794   5.797  10.595  0.0931 -0.0417 -0.0895
  399DOPC   PO4 4674   3.578   5.551  10.376  0.0950  0.1562  0.2148
  399DOPC   GL1 4675   3.578   5.364  10.657 -0.2689 -0.0159 -0.0236
  399DOPC   GL2 4676   3.865   5.213  10.644 -0.1608 -0.4468  0.0904
  399DOPC   C1A 4677   3.667   5.633  11.065 -0.3289 -0.1811  0.0233
  399DOPC   D2A 4678   4.004   5.524  11.339  0.1336 -0.1036 -0.0921
  399DOPC   C3A 4679   4.198   5.200  11.617  0.2324 -0.4632  0.0184
  399DOPC   C4A 4680   4.659   5.118  11.641 -0.2833 -0.0823  0.2711
  399DOPC   C1B 4681   3.994   5.052  11.055 -0.0174 -0.0163  0.2302
  399DOPC   D2B 4682   3.907   4.838  11.438  0.0655  0.0561  0.0385
  399DOPC   C3B 4683   4.266   4.705  11.707  0.0372  0.1003 -0.2842
  399DOPC   C4B 4684   4.366   4.479  12.124 -0.0189  0.0531 -0.2809
  400DOPC   NC3 4685  11.197   8.835  11.209  0.1352 -0.0038  0.0428
  400DOPC   PO4 4686  10.800   8.824  11.211 -0.1688  0.1623 -0.3139
  400DOPC   GL1 4687  10.453   9.036  11.359  0.0165  0.0328 -0.0520
  400DOPC   GL2 4688  10.667   9.203  11.572 -0.0756 -0.3017 -0.1728
  400DOPC   C1A 4689  10.183   9.181  11.707 -0.4044 -0.2048 -0.1400
  400DOPC   D2A 4690   9.753   9.231  11.962  0.3957  0.2699 -0.3683
  400DOPC   C3A 4691   9.479   9.310  12.338  0.2202  0.0533  0.0948
  400DOPC   C4A 4692   9.555   9.079  12.785  0.0728  0.1739 -0.2489
  400DOPC   C1B 4693  10.565   9.279  12.021 -0.0219  0.0040 -0.2729
  400DOPC   D2B 4694  10.637   9.128  12.454  0.0110 -0.3496 -0.0486
  400DOPC   C3B 4695  10.788   9.142  12.920 -0.0661 -0.2474  0.1677
  400DOPC   C4B 4696  11.196   9.330  12.977  0.0596  0.0281 -0.1800
  401DOPC   NC3 4697   3.004   3.832  10.193 -0.1017  0.1938 -0.0203
  401DOPC   PO4 4698   3.371   3.987  10.029  0.0346  0.0261 -0.3246
  401DOPC   GL1 4699   3.546   3.715  10.320  0.1634  0.1523  0.0770
  401DOPC   GL2 4700   3.482   3.824  10.620 -0.0448 -0.1411 -0.0713
  401DOPC   C1A 4701   3.265   3.380  10.522  0.0619  0.3043  0.0189
  401DOPC   D2A 4702   2.958   3.136  10.677 -0.0302 -0.0143  0.0639
  401DOPC   C3A 4703   2.773   2.851  10.956 -0.1934  0.0136 -0.2875
  401DOPC   C4A 4704   2.640   2.420  10.999 -0.4353  0.2049  0.2077
  401DOPC   C1B 4705   3.601   3.432  10.871  0.1115 -0.2122 -0.0993
  401DOPC   D2B 4706   3.741   3.027  10.928 -0.0228  0.1305 -0.0802
  401DOPC   C3B 4707   3.647   2.717  11.207  0.0861 -0.2243  0.1557
  401DOPC   C4B 4708   3.647   2.587  11.604 -0.1250  0.1061 -0.1494
  402DOPS   CNO 4709   8.534   6.391  10.445 -0.0316  0.0296  0.1467
  402DOPS   PO4 4710   8.695   6.729  10.517 -0.2626  0.0292 -0.0961
  402DOPS   GL1 4711   8.718   6.945  10.905 -0.0405 -0.1545 -0.1944
  402DOPS   GL2 4712   8.579   7.128  10.967 -0.0126  0.2771 -0.5333
  402DOPS   C1A 4713   8.952   6.837  11.279 -0.2897 -0.0281  0.0469
  402DOPS   D2A 4714   9.113   6.707  11.694 -0.0666  0.3112  0.1927
  402DOPS   C3A 4715   9.220   6.282  11.691 -0.0591 -0.0275 -0.2035
  402DOPS   C4A 4716   9.560   6.125  11.972 -0.0302 -0.0377 -0.3162
  402DOPS   C1B 4717   8.477   6.820  11.356  0.0866 -0.1010 -0.1175
  402DOPS   D2B 4718   8.300   6.440  11.323  0.1203  0.0165 -0.2382
  402DOPS   C3B 4719   8.109   6.488  11.751  0.0167 -0.4838  0.2164
  402DOPS   C4B 4720   8.063   6.115  12.029  0.1894 -0.3427 -0.2141
  403POSM   NC3 4721   3.910  33.719   9.632 -0.0417 -0.1163 -0.0851
  403POSM   PO4 4722   3.854  34.062   9.801 -0.1304 -0.3411 -0.1208
  403POSM   AM1 4723   3.680  34.045  10.114  0.1285  0.0138  0.3718
  403POSM   AM2 4724   3.642  34.186  10.324  0.0035  0.0326 -0.3531
  403POSM   T1A 4725   3.602  33.725  10.452 -0.2085  0.0798 -0.1540
  403POSM   C2A 4726   3.433  33.481  10.866 -0.1987  0.1334 -0.0426
  403POSM   C3A 4727   3.595  33.369  11.316  0.2950  0.0404 -0.0539
  403POSM   C1B 4728   3.672  34.164  10.690  0.0657  0.1137  0.0008
  403POSM   D2B 4729   3.747  34.098  11.124 -0.1364 -0.1810 -0.0069
  403POSM   C3B 4730   3.410  34.375  11.347 -0.0672 -0.0005 -0.2019
  403POSM   C4B 4731   3.207  34.619  11.657  0.3900  0.0974  0.1112
  404POSM   NC3 4732   5.711   9.760  10.739 -0.1022 -0.1795 -0.1381
  404POSM   PO4 4733   6.086   9.827  10.656  0.1184  0.1818 -0.1396
  404POSM   AM1 4734   6.072   9.700  10.988  0.0369 -0.0850 -0.1622
  404POSM   AM2 4735   5.921   9.565  11.188 -0.1101 -0.1563  0.0559
  404POSM   T1A 4736   6.283   9.781  11.443 -0.1113  0.2077 -0.0414
  404POSM   C2A 4737   6.531   9.649  11.835 -0.2973 -0.3978 -0.0897
  404POSM   C3A 4738   6.918   9.456  12.051  0.0752 -0.0119  0.0883
  404POSM   C1B 4739   5.722   9.227  11.169  0.3427  0.1666  0.1284
  404POSM   D2B 4740   5.434   8.910  11.337  0.0484  0.2247 -0.1875
  404POSM   C3B 4741   5.484   8.625  11.726 -0.1862 -0.0220  0.2837
  404POSM   C4B 4742   5.439   8.363  12.110  0.0656  0.1714  0.0062
  405DOPE   NH3 4743   0.318   1.902   9.981  0.0859  0.1716 -0.1302
  405DOPE   PO4 4744   0.017   1.879   9.911  0.0407 -0.2159  0.0231
  405DOPE   GL1 4745  -0.039   1.767  10.279 -0.1916 -0.2073  0.0229
  405DOPE   GL2 4746   0.143   1.538  10.324 -0.1489  0.0417 -0.0382
  405DOPE   C1A 4747  -0.260   1.849  10.665 -0.3371 -0.0036  0.1288
  405DOPE   D2A 4748  -0.471   2.190  10.984 -0.2909  0.1686  0.1888
  405DOPE   C3A 4749  -0.548   2.124  11.439 -0.0828 -0.1590  0.1584
  405DOPE   C4A 4750  -0.718   2.350  11.791 -0.0215  0.3145 -0.1870
  405DOPE   C1B 4751  -0.146   1.271  10.575  0.3706  0.0494 -0.1830
  405DOPE   D2B 4752  -0.186   1.313  11.034 -0.0199  0.1095 -0.2163
  405DOPE   C3B 4753  -0.024   0.910  11.254  0.2448 -0.0478  0.1195
  405DOPE   C4B 4754   0.131   0.807  11.697 -0.0888  0.0858 -0.1655
  406DOPC   NC3 4755   6.736  30.934   9.241 -0.0311  0.2380 -0.0202
  406DOPC   PO4 4756   6.499  30.934   9.524 -0.0839  0.3635 -0.0492
  406DOPC   GL1 4757   6.654  30.696   9.737 -0.1752  0.1831 -0.1038
  406DOPC   GL2 4758   6.869  30.925   9.837 -0.0361 -0.1762 -0.2985
  406DOPC   C1A 4759   6.354  30.647  10.143  0.1031  0.0862  0.2936
  406DOPC   D2A 4760   6.022  30.855  10.377  0.0640 -0.1365 -0.1588
  406DOPC   C3A 4761   6.219  31.178  10.634 -0.2265  0.1400 -0.4029
  406DOPC   C4A 4762   6.401  31.104  11.082 -0.0311 -0.0105 -0.1050
  406DOPC   C1B 4763   7.243  30.862  10.138 -0.1781  0.1246 -0.0870
  406DOPC   D2B 4764   7.659  30.631  10.144 -0.1274  0.0679 -0.1383
  406DOPC   C3B 4765   7.898  30.568  10.485 -0.6380  0.1454  0.0724
  406DOPC   C4B 4766   7.769  30.614  10.908  0.1469  0.1784  0.2075
  407POSM   NC3 4767  10.487   3.533   9.850  0.0062  0.0558 -0.1723
  407POSM   PO4 4768  10.448   3.145   9.998  0.1322 -0.3432 -0.0300
  407POSM   AM1 4769  10.503   3.039  10.324  0.2150 -0.2146  0.0586
  407POSM   AM2 4770  10.520   3.180  10.591 -0.0873 -0.1113 -0.1235
  407POSM   T1A 4771  10.616   2.672  10.692  0.1118  0.0349  0.0654
  407POSM   C2A 4772  10.564   2.472  11.127  0.1291  0.0886  0.1918
  407POSM   C3A 4773  10.906   2.409  11.403  0.3659  0.4177  0.1944
  407POSM   C1B 4774  10.499   3.192  10.918 -0.1974  0.0147 -0.0418
  407POSM   D2B 4775  10.528   2.968  11.332 -0.3698  0.1446  0.0664
  407POSM   C3B 4776  10.211   2.828  11.714  0.1581 -0.3152  0.1785
  407POSM   C4B 4777  10.221   2.879  12.203  0.3883  0.0607 -0.0537
  408POSM   NC3 4778   8.853   8.787  10.739  0.0395  0.3926 -0.0440
  408POSM   PO4 4779   9.150   8.545  10.757  0.1902 -0.3454 -0.1158
  408POSM   AM1 4780   9.095   8.500  11.067 -0.3210  0.2380 -0.1770
  408POSM   AM2 4781   9.258   8.415  11.279 -0.3145  0.2612  0.1836
  408POSM   T1A 4782   8.753   8.312  11.433 -0.2335  0.1173  0.2974
  408POSM   C2A 4783   8.764   8.261  11.902 -0.0171  0.0559 -0.0838
  408POSM   C3A 4784   8.901   8.434  12.282  0.0701  0.0329 -0.1067
  408POSM   C1B 4785   9.143   8.610  11.527 -0.3087  0.2076  0.3123
  408POSM   D2B 4786   8.810   8.753  11.791 -0.0814  0.0547 -0.0372
  408POSM   C3B 4787   8.445   8.688  12.049 -0.0507 -0.0864 -0.0734
  408POSM   C4B 4788   8.297   8.275  12.125  0.1211 -0.0742 -0.0642
  409DOPC   NC3 4789   2.556  20.022  13.739 -0.0154 -0.0387  0.2355
  409DOPC   PO4 4790   2.771  19.713  13.632 -0.0543  0.3403 -0.1261
  409DOPC   GL1 4791   2.943  19.779  13.267 -0.2018  0.2283 -0.3129
  409DOPC   GL2 4792   3.175  19.874  13.252 -0.0234  0.0831  0.2653
  409DOPC   C1A 4793   3.055  19.619  12.796 -0.1699 -0.2365  0.2662
  409DOPC   D2A 4794   3.375  19.725  12.426  0.0107  0.1570  0.1340
  409DOPC   C3A 4795   3.133  19.944  12.136 -0.0456 -0.1148 -0.2657
  409DOPC   C4A 4796   3.039  20.204  11.817  0.1144 -0.2136 -0.2577
  409DOPC   C1B 4797   3.448  19.952  12.876  0.0800  0.0749 -0.2848
  409DOPC   D2B 4798   3.581  20.152  12.466 -0.0709 -0.2563 -0.2261
  409DOPC   C3B 4799   3.641  20.085  11.998  0.1845  0.2392  0.0602
  409DOPC   C4B 4800   3.551  20.259  11.560 -0.1633 -0.0241 -0.0220
  410DOPC   NC3 4801   7.696  14.665  14.383 -0.1188 -0.3104  0.0430
  410DOPC   PO4 4802   7.393  14.651  14.673 -0.1936  0.1732  0.0359
  410DOPC   GL1 4803   7.341  14.431  14.340  0.2271 -0.0400  0.0097
  410DOPC   GL2 4804   7.257  14.527  14.072  0.0314 -0.1922  0.0964
  410DOPC   C1A 4805   7.524  14.118  14.010 -0.0186 -0.4331  0.0573
  410DOPC   D2A 4806   7.897  13.953  13.657  0.1926  0.2614  0.2773
  410DOPC   C3A 4807   8.041  14.324  13.487  0.0723  0.1159  0.2836
  410DOPC   C4A 4808   8.070  14.749  13.593 -0.1593  0.0640  0.0019
  410DOPC   C1B 4809   7.237  14.765  13.714 -0.0050 -0.1132 -0.0331
  410DOPC   D2B 4810   7.560  14.853  13.419  0.1756 -0.2141  0.1498
  410DOPC   C3B 4811   7.796  14.597  13.160  0.2369 -0.1224 -0.2080
  410DOPC   C4B 4812   8.140  14.417  12.975  0.0708  0.1480 -0.1089
  411DOPE   NH3 4813   8.710  20.558  13.661  0.1787  0.2370  0.0302
  411DOPE   PO4 4814   8.662  20.797  13.406 -0.0402 -0.0067 -0.1894
  411DOPE   GL1 4815   8.853  20.696  12.997 -0.1922  0.0458  0.0681
  411DOPE   GL2 4816   9.110  20.683  13.143 -0.0259 -0.3475  0.2263
  411DOPE   C1A 4817   8.991  20.515  12.581 -0.0758  0.1317  0.1665
  411DOPE   D2A 4818   9.350  20.390  12.324 -0.3301 -0.0094  0.0503
  411DOPE   C3A 4819   9.768  20.665  12.330 -0.1194  0.1908  0.1747
  411DOPE   C4A 4820   9.734  21.037  12.624 -0.1351 -0.1125  0.0765
  411DOPE   C1B 4821   9.511  20.985  13.086 -0.0337 -0.0014  0.3063
  411DOPE   D2B 4822   9.606  21.480  13.041 -0.0926  0.2264 -0.0088
  411DOPE   C3B 4823   9.827  21.561  12.599  0.0845 -0.1696  0.0911
  411DOPE   C4B 4824   9.832  21.432  12.144 -0.1032 -0.0951  0.1639
  412DOPE   NH3 4825   1.316  22.679  13.431 -0.1260 -0.2180  0.1189
  412DOPE   PO4 4826   1.622  22.778  13.278 -0.1317  0.1222  0.1371
  412DOPE   GL1 4827   1.959  22.865  13.063 -0.1078 -0.2176 -0.5031
  412DOPE   GL2 4828   1.800  23.069  12.835  0.1881 -0.1542  0.0309
  412DOPE   C1A 4829   2.260  22.560  12.826  0.0304 -0.1203  0.0204
  412DOPE   D2A 4830   2.407  22.380  12.470  0.3424  0.0654 -0.1555
  412DOPE   C3A 4831   2.356  22.056  12.077  0.1304 -0.1825 -0.2699
  412DOPE   C4A 4832   2.088  22.073  11.765  0.0161 -0.3438 -0.0602
  412DOPE   C1B 4833   1.901  22.738  12.534  0.1451 -0.0861 -0.0677
  412DOPE   D2B 4834   2.024  22.427  12.184 -0.0375 -0.0997 -0.0589
  412DOPE   C3B 4835   1.768  22.031  12.175  0.1311 -0.2651 -0.0192
  412DOPE   C4B 4836   1.657  21.642  12.425  0.3545  0.3278  0.2954
  413DOPC   NC3 4837   7.890  21.166  13.546 -0.1045  0.4723  0.0001
  413DOPC   PO4 4838   7.871  21.066  13.184  0.0888  0.1878 -0.2705
  413DOPC   GL1 4839   7.749  21.185  12.824 -0.0038  0.1613  0.4720
  413DOPC   GL2 4840   8.010  21.036  12.690  0.0503 -0.2049 -0.1269
  413DOPC   C1A 4841   7.538  21.598  12.811  0.1632  0.0278 -0.0962
  413DOPC   D2A 4842   7.249  21.960  12.715  0.2195 -0.0527 -0.0767
  413DOPC   C3A 4843   6.880  22.160  12.443 -0.0876  0.1893 -0.4570
  413DOPC   C4A 4844   6.804  22.339  12.028  0.1914 -0.0768 -0.0280
  413DOPC   C1B 4845   7.892  21.032  12.228 -0.1466  0.1254  0.1221
  413DOPC   D2B 4846   7.553  21.230  11.955  0.0703  0.1700  0.1902
  413DOPC   C3B 4847   7.427  21.660  12.169 -0.2925 -0.0725 -0.0259
  413DOPC   C4B 4848   7.357  22.152  12.280  0.3298  0.0431 -0.1756
  414DOPC   NC3 4849   8.987  19.715  14.112 -0.0973 -0.0429  0.3168
  414DOPC   PO4 4850   8.643  19.667  13.988 -0.0110 -0.1084  0.0566
  414DOPC   GL1 4851   8.791  19.612  13.593  0.0776  0.2034  0.0843
  414DOPC   GL2 4852   8.978  19.902  13.599  0.2493  0.3372 -0.0870
  414DOPC   C1A 4853   9.009  19.346  13.250  0.0514 -0.2360 -0.0595
  414DOPC   D2A 4854   9.217  19.030  12.951  0.2445 -0.1191  0.2972
  414DOPC   C3A 4855   9.036  18.651  12.853  0.2854  0.0396  0.2446
  414DOPC   C4A 4856   8.873  18.373  12.477 -0.0793  0.1568 -0.1563
  414DOPC   C1B 4857   9.097  19.878  13.163 -0.1519  0.0560 -0.0118
  414DOPC   D2B 4858   9.149  20.037  12.762 -0.1114  0.3156 -0.0738
  414DOPC   C3B 4859   9.554  20.068  12.636 -0.2523 -0.1018 -0.1515
  414DOPC   C4B 4860   9.923  20.187  12.410  0.1387  0.0007  0.0379
  415POSM   NC3 4861   1.399  15.913  13.732  0.0454  0.0826  0.0724
  415POSM   PO4 4862   1.209  15.659  13.551 -0.2425 -0.0211  0.1278
  415POSM   AM1 4863   1.146  15.517  13.254 -0.1641  0.2226  0.2010
  415POSM   AM2 4864   0.964  15.291  13.120 -0.0247  0.3148  0.0559
  415POSM   T1A 4865   1.311  15.372  12.763 -0.3329 -0.3270 -0.1776
  415POSM   C2A 4866   1.289  15.073  12.373  0.0190 -0.1114 -0.0648
  415POSM   C3A 4867   1.152  14.881  12.027 -0.0747 -0.0724 -0.1645
  415POSM   C1B 4868   0.807  15.284  12.814  0.1527  0.1150  0.1229
  415POSM   D2B 4869   0.506  15.498  12.585 -0.0313  0.0514 -0.1566
  415POSM   C3B 4870   0.331  15.549  12.166  0.0158 -0.0345 -0.0942
  415POSM   C4B 4871   0.207  15.957  11.920  0.1816 -0.2542 -0.1024
  416DOPS   CNO 4872   4.942  21.292  13.918 -0.2032  0.0297  0.1946
  416DOPS   PO4 4873   4.979  21.463  13.597 -0.2739  0.3014  0.1416
  416DOPS   GL1 4874   4.685  21.411  13.331 -0.4494  0.3815 -0.2250
  416DOPS   GL2 4875   4.500  21.609  13.209 -0.2035  0.2463  0.0552
  416DOPS   C1A 4876   4.575  21.237  12.898  0.5054  0.0639 -0.2446
  416DOPS   D2A 4877   4.564  21.123  12.458  0.0791  0.0190 -0.0754
  416DOPS   C3A 4878   4.671  20.764  12.266  0.1064 -0.0102 -0.1928
  416DOPS   C4A 4879   4.865  20.354  12.238 -0.0437  0.0263 -0.0073
  416DOPS   C1B 4880   4.691  21.879  12.834 -0.0479  0.0764  0.2582
  416DOPS   D2B 4881   4.557  21.775  12.424 -0.2347  0.3028 -0.1302
  416DOPS   C3B 4882   4.726  21.910  12.003  0.0731  0.0912 -0.0331
  416DOPS   C4B 4883   4.705  22.249  11.672 -0.1653  0.1717  0.2410
  417DOPC   NC3 4884   4.997  13.121  13.954  0.0007 -0.1040 -0.4366
  417DOPC   PO4 4885   4.777  13.432  14.050  0.1805  0.2499  0.1471
  417DOPC   GL1 4886   4.861  13.425  13.654  0.1154 -0.4833  0.1730
  417DOPC   GL2 4887   5.120  13.479  13.591  0.0628 -0.1936 -0.0980
  417DOPC   C1A 4888   4.772  13.723  13.319  0.1434  0.1018  0.3071
  417DOPC   D2A 4889   4.982  14.095  13.094 -0.1485 -0.0578 -0.1205
  417DOPC   C3A 4890   5.393  14.132  12.924 -0.1894  0.2194  0.3328
  417DOPC   C4A 4891   5.647  14.406  12.632  0.1079 -0.3065 -0.0475
  417DOPC   C1B 4892   5.274  13.281  13.216  0.1610  0.4204 -0.0097
  417DOPC   D2B 4893   5.644  13.217  12.878 -0.1204 -0.0921 -0.0511
  417DOPC   C3B 4894   5.608  13.417  12.466 -0.1282 -0.0726 -0.1352
  417DOPC   C4B 4895   5.651  13.221  12.043  0.2058  0.1239 -0.0041
  418DOPE   NH3 4896   0.473  15.515  13.691  0.3613 -0.1092 -0.3236
  418DOPE   PO4 4897   0.722  15.516  13.594 -0.4934  0.0879 -0.0404
  418DOPE   GL1 4898   0.609  15.851  13.318 -0.3761 -0.1540  0.0861
  418DOPE   GL2 4899   0.839  15.924  13.259  0.0775 -0.2682 -0.3845
  418DOPE   C1A 4900   0.411  15.897  12.910  0.2481 -0.1563 -0.3959
  418DOPE   D2A 4901   0.517  15.971  12.440  0.0046  0.1092  0.1366
  418DOPE   C3A 4902   0.394  16.407  12.253 -0.0120 -0.0773  0.0748
  418DOPE   C4A 4903   0.393  16.834  12.041 -0.1239 -0.2493  0.2279
  418DOPE   C1B 4904   0.903  15.796  12.810  0.2667 -0.0081 -0.6651
  418DOPE   D2B 4905   0.990  15.513  12.440 -0.0630  0.0125  0.1348
  418DOPE   C3B 4906   0.802  15.618  12.011 -0.3422 -0.2875 -0.1530
  418DOPE   C4B 4907   0.487  15.614  11.660  0.1755 -0.3700 -0.0940
  419POSM   NC3 4908   5.661  20.527  14.029 -0.0936  0.2467  0.1224
  419POSM   PO4 4909   5.543  20.265  13.790  0.0423  0.2097 -0.0332
  419POSM   AM1 4910   5.488  20.259  13.503  0.0759 -0.2637  0.2897
  419POSM   AM2 4911   5.710  20.259  13.280  0.2455 -0.1244  0.2730
  419POSM   T1A 4912   5.227  20.027  13.129  0.0488 -0.2688 -0.4656
  419POSM   C2A 4913   4.832  20.083  12.916 -0.1160 -0.1955  0.2032
  419POSM   C3A 4914   4.495  20.222  12.599  0.1319 -0.2522  0.2901
  419POSM   C1B 4915   5.620  20.357  12.959  0.2522 -0.1726 -0.1038
  419POSM   D2B 4916   5.705  20.360  12.480  0.2570 -0.0871 -0.1306
  419POSM   C3B 4917   5.417  20.199  12.150 -0.2812  0.0303 -0.0224
  419POSM   C4B 4918   5.052  20.067  11.888 -0.6266  0.1879  0.1775
  420DOPS   CNO 4919   4.077  20.793  13.566 -0.0287  0.3088  0.0289
  420DOPS   PO4 4920   3.753  20.615  13.432  0.0128 -0.1265 -0.0083
  420DOPS   GL1 4921   3.401  20.824  13.320 -0.1807 -0.0688  0.3100
  420DOPS   GL2 4922   3.280  20.571  13.337 -0.0180  0.0865  0.1734
  420DOPS   C1A 4923   3.112  21.160  13.377  0.2530 -0.2698  0.0429
  420DOPS   D2A 4924   3.157  21.555  13.086 -0.1252 -0.2217 -0.1772
  420DOPS   C3A 4925   3.213  21.595  12.611 -0.0454  0.0024  0.1592
  420DOPS   C4A 4926   3.267  21.771  12.205  0.0060 -0.1260 -0.0432
  420DOPS   C1B 4927   3.153  20.834  12.989 -0.1556 -0.2849  0.2808
  420DOPS   D2B 4928   2.841  20.767  12.626  0.2197  0.1189  0.0121
  420DOPS   C3B 4929   2.853  20.480  12.303 -0.0733 -0.0473  0.4149
  420DOPS   C4B 4930   2.559  20.463  11.979 -0.0593  0.0612 -0.4822
  421DOPC   NC3 4931  10.239  12.767  14.627  0.2048 -0.1312  0.1530
  421DOPC   PO4 4932  10.293  12.387  14.752 -0.2706  0.0472  0.2667
  421DOPC   GL1 4933  10.427  12.393  14.380  0.2014 -0.1388  0.1003
  421DOPC   GL2 4934  10.477  12.567  14.252  0.2192 -0.2572 -0.1871
  421DOPC   C1A 4935  10.436  12.093  13.987  0.1108 -0.1501  0.1521
  421DOPC   D2A 4936  10.473  11.808  13.576 -0.3259 -0.2207  0.0067
  421DOPC   C3A 4937  10.444  11.407  13.361  0.2810 -0.1338  0.2491
  421DOPC   C4A 4938  10.625  10.966  13.172  0.1858 -0.2052 -0.2384
  421DOPC   C1B 4939  10.629  12.558  13.852  0.2763  0.1448  0.0296
  421DOPC   D2B 4940  10.739  12.628  13.373  0.2449  0.0185 -0.3262
  421DOPC   C3B 4941  10.650  13.083  13.264 -0.1758 -0.1307 -0.0071
  421DOPC   C4B 4942  10.816  13.371  12.965  0.0692  0.0587  0.1668
  422DOPE   NH3 4943   4.475  16.304  13.831  0.1126 -0.2008  0.0833
  422DOPE   PO4 4944   4.321  16.038  13.859  0.1847  0.2236 -0.2354
  422DOPE   GL1 4945   4.407  15.867  13.533  0.1656 -0.0982  0.0005
  422DOPE   GL2 4946   4.392  16.136  13.353  0.1756 -0.3671  0.0879
  422DOPE   C1A 4947   4.276  15.486  13.284 -0.0550 -0.3648 -0.3843
  422DOPE   D2A 4948   4.185  15.085  13.170 -0.0663 -0.0220 -0.2349
  422DOPE   C3A 4949   4.256  14.947  12.767 -0.0067  0.1604  0.0154
  422DOPE   C4A 4950   4.141  15.050  12.348 -0.2215  0.0631 -0.1548
  422DOPE   C1B 4951   4.687  15.895  13.077  0.0774  0.1280 -0.1423
  422DOPE   D2B 4952   5.150  15.914  12.900 -0.2219  0.1567  0.0203
  422DOPE   C3B 4953   5.279  15.963  12.475 -0.1775 -0.0813 -0.1297
  422DOPE   C4B 4954   5.166  15.943  12.054 -0.1640 -0.0215 -0.2886
  423DOPE   NH3 4955   3.196  18.053  13.452 -0.0119  0.4495 -0.1394
  423DOPE   PO4 4956   3.032  17.799  13.419 -0.2055 -0.1045  0.1093
  423DOPE   GL1 4957   2.813  17.822  13.013  0.0338  0.1004 -0.1708
  423DOPE   GL2 4958   2.811  17.533  12.885  0.1632 -0.0831 -0.1223
  423DOPE   C1A 4959   2.944  18.090  12.609 -0.0466  0.0270  0.0312
  423DOPE   D2A 4960   2.639  18.226  12.237  0.1051 -0.0600  0.0736
  423DOPE   C3A 4961   2.819  17.972  11.926  0.1874 -0.0748  0.0412
  423DOPE   C4A 4962   3.229  17.763  11.753  0.2234  0.1605  0.1145
  423DOPE   C1B 4963   2.840  17.612  12.458  0.1540 -0.0432  0.2482
  423DOPE   D2B 4964   2.897  17.464  12.028  0.1413  0.0469 -0.0745
  423DOPE   C3B 4965   2.751  17.630  11.635 -0.0788 -0.1719  0.1044
  423DOPE   C4B 4966   2.465  17.875  11.405 -0.1665  0.2103 -0.0114
  424DOPC   NC3 4967   6.267  21.496  13.091 -0.1944 -0.0156  0.2220
  424DOPC   PO4 4968   5.885  21.462  13.090 -0.1793 -0.3710  0.1092
  424DOPC   GL1 4969   5.727  21.624  12.799 -0.1274  0.1357 -0.1371
  424DOPC   GL2 4970   5.813  21.611  12.547  0.1544 -0.0728  0.0231
  424DOPC   C1A 4971   5.285  21.823  12.658  0.1512 -0.0941  0.0687
  424DOPC   D2A 4972   5.076  22.210  12.493  0.2830 -0.2007 -0.1280
  424DOPC   C3A 4973   5.331  22.479  12.235 -0.0457  0.3650 -0.3971
  424DOPC   C4A 4974   5.529  22.863  12.174 -0.0312 -0.0996  0.2089
  424DOPC   C1B 4975   5.405  21.415  12.418 -0.0889  0.1384  0.1637
  424DOPC   D2B 4976   5.068  21.063  12.369 -0.0063  0.2912  0.3210
  424DOPC   C3B 4977   5.007  20.990  11.887  0.0217  0.0627  0.1373
  424DOPC   C4B 4978   5.168  21.052  11.478  0.0286  0.1920  0.1090
  425POSM   NC3 4979   7.623  18.743  13.233 -0.0751 -0.2291 -0.1792
  425POSM   PO4 4980   7.799  19.091  13.266 -0.0835 -0.2020  0.0222
  425POSM   AM1 4981   7.860  19.035  12.948  0.0693  0.4447 -0.0825
  425POSM   AM2 4982   7.714  19.034  12.709 -0.1030  0.3917 -0.2373
  425POSM   T1A 4983   8.177  18.780  12.646 -0.2905  0.3427 -0.1972
  425POSM   C2A 4984   8.384  18.510  12.297 -0.0785 -0.2422 -0.2381
  425POSM   C3A 4985   8.476  18.121  12.212  0.2946  0.2332  0.1052
  425POSM   C1B 4986   7.824  19.027  12.386  0.0040 -0.1487 -0.2586
  425POSM   D2B 4987   7.978  18.704  12.068 -0.1829 -0.0973  0.2540
  425POSM   C3B 4988   8.180  18.920  11.738  0.1169  0.1417  0.2154
  425POSM   C4B 4989   8.200  18.910  11.295 -0.0347 -0.2679 -0.0790
  426DOPE   NH3 4990   1.273  22.206  13.591 -0.0924 -0.2858 -0.1486
  426DOPE   PO4 4991   1.126  21.959  13.695 -0.4085 -0.1126  0.0993
  426DOPE   GL1 4992   1.231  21.713  13.415 -0.0867  0.0595  0.4419
  426DOPE   GL2 4993   1.253  21.939  13.119 -0.0785 -0.2717  0.1717
  426DOPE   C1A 4994   1.057  21.317  13.216  0.3416  0.3926  0.1525
  426DOPE   D2A 4995   0.962  20.990  12.877  0.1147 -0.1621  0.0957
  426DOPE   C3A 4996   1.185  20.792  12.558 -0.3050 -0.0540 -0.2500
  426DOPE   C4A 4997   1.336  20.337  12.599  0.2772 -0.0512 -0.1607
  426DOPE   C1B 4998   1.241  21.956  12.633  0.4280  0.4539  0.0725
  426DOPE   D2B 4999   1.315  21.974  12.183 -0.0374 -0.0413  0.1067
  426DOPE   C3B 5000   0.960  22.023  11.879  0.1796  0.0454 -0.0614
  426DOPE   C4B 5001   0.681  22.436  11.888 -0.0714  0.3429  0.2220
  427DOPS   CNO 5002   3.181  13.729  13.659 -0.1404  0.0640  0.1832
  427DOPS   PO4 5003   2.854  13.782  13.812  0.0911  0.3664 -0.2773
  427DOPS   GL1 5004   2.711  13.627  13.530 -0.1444  0.3285  0.2317
  427DOPS   GL2 5005   2.830  13.292  13.510  0.1096 -0.0400 -0.2339
  427DOPS   C1A 5006   2.645  13.610  13.059 -0.0600 -0.3131 -0.2121
  427DOPS   D2A 5007   2.323  13.669  12.700 -0.3191  0.0114  0.1460
  427DOPS   C3A 5008   2.551  13.642  12.334 -0.0061  0.3475 -0.2905
  427DOPS   C4A 5009   2.803  13.799  12.043 -0.0595 -0.5958  0.1814
  427DOPS   C1B 5010   3.078  13.410  13.131 -0.0590  0.1113  0.0027
  427DOPS   D2B 5011   3.368  13.277  12.800  0.1294  0.4455  0.1605
  427DOPS   C3B 5012   3.193  12.884  12.652  0.0370  0.1834  0.5649
  427DOPS   C4B 5013   2.874  12.787  12.290  0.1756  0.2612  0.0636
  428POSM   NC3 5014   4.884  18.782  13.958 -0.0506  0.0220  0.2423
  428POSM   PO4 5015   4.842  18.710  13.547  0.0077  0.1641  0.0602
  428POSM   AM1 5016   4.648  18.759  13.282 -0.0250  0.2082 -0.2157
  428POSM   AM2 5017   4.413  18.613  13.156 -0.3229  0.1411 -0.0986
  428POSM   T1A 5018   4.468  19.037  12.920  0.1221 -0.0200  0.0853
  428POSM   C2A 5019   4.742  19.198  12.586 -0.0683 -0.0271 -0.0537
  428POSM   C3A 5020   5.064  19.187  12.264 -0.0990  0.0246 -0.3209
  428POSM   C1B 5021   4.441  18.453  12.837 -0.2823 -0.1117  0.1065
  428POSM   D2B 5022   4.640  18.353  12.422 -0.1391  0.1169 -0.1547
  428POSM   C3B 5023   4.692  17.971  12.201 -0.2504  0.0081 -0.0879
  428POSM   C4B 5024   4.430  17.630  11.939 -0.0448  0.0561 -0.0685
  429POSM   NC3 5025   3.402  20.529  13.809  0.3055  0.1066 -0.0947
  429POSM   PO4 5026   3.062  20.316  13.687  0.0532  0.0461  0.0117
  429POSM   AM1 5027   2.948  20.234  13.401  0.4206 -0.2428  0.3421
  429POSM   AM2 5028   2.696  20.269  13.279  0.0973  0.0169 -0.1739
  429POSM   T1A 5029   3.056  20.302  12.909 -0.1663 -0.1367 -0.1665
  429POSM   C2A 5030   3.290  20.522  12.623  0.1993 -0.1578  0.0326
  429POSM   C3A 5031   3.363  20.538  12.203 -0.3509 -0.1143  0.0211
  429POSM   C1B 5032   2.597  20.018  13.011  0.3557 -0.0082  0.0652
  429POSM   D2B 5033   2.658  20.081  12.551  0.0440 -0.1402  0.0852
  429POSM   C3B 5034   2.604  19.995  12.111 -0.1401 -0.1000  0.0325
  429POSM   C4B 5035   2.248  20.039  11.758  0.1602 -0.1863 -0.0644
  430DOPC   NC3 5036   2.072  12.081  14.090 -0.0455 -0.1963 -0.0623
  430DOPC   PO4 5037   2.448  11.913  14.094 -0.0117 -0.2334 -0.0512
  430DOPC   GL1 5038   2.499  12.139  13.674  0.1823  0.3444  0.4222
  430DOPC   GL2 5039   2.806  12.062  13.614  0.1091 -0.1572  0.0639
  430DOPC   C1A 5040   2.466  12.355  13.251 -0.1652 -0.3557  0.1310
  430DOPC   D2A 5041   2.590  12.572  12.864  0.0067 -0.0422 -0.0893
  430DOPC   C3A 5042   2.436  12.622  12.477  0.0651 -0.2104  0.4371
  430DOPC   C4A 5043   2.573  12.335  12.055 -0.0581  0.1606  0.2847
  430DOPC   C1B 5044   3.131  12.286  13.340 -0.1463  0.1571  0.1186
  430DOPC   D2B 5045   3.086  12.591  13.055  0.2720  0.1006  0.0780
  430DOPC   C3B 5046   2.982  12.448  12.614  0.1420 -0.1462 -0.2056
  430DOPC   C4B 5047   2.740  12.076  12.497 -0.4132 -0.1881  0.1024
  431DOPS   CNO 5048   7.943  15.896  14.429  0.1003  0.1763  0.2242
  431DOPS   PO4 5049   7.756  15.845  14.095 -0.0770 -0.1769 -0.3164
  431DOPS   GL1 5050   7.571  16.002  13.820  0.1773  0.0404 -0.6060
  431DOPS   GL2 5051   7.639  16.241  13.823  0.1417 -0.0766 -0.0099
  431DOPS   C1A 5052   7.665  15.984  13.387 -0.1220  0.1822 -0.1399
  431DOPS   D2A 5053   7.963  15.725  13.131  0.0831  0.0120  0.0160
  431DOPS   C3A 5054   7.695  15.783  12.706 -0.0423 -0.2008  0.0625
  431DOPS   C4A 5055   7.333  15.695  12.435  0.0327 -0.2932  0.0730
  431DOPS   C1B 5056   8.069  16.185  13.624  0.0508 -0.4489  0.0634
  431DOPS   D2B 5057   8.270  15.712  13.585 -0.1682  0.2728 -0.1126
  431DOPS   C3B 5058   8.675  15.557  13.437  0.1110  0.0728  0.1817
  431DOPS   C4B 5059   9.131  15.770  13.413  0.3361 -0.2643 -0.0939
  432DOPE   NH3 5060   9.405  22.234  13.737  0.1068  0.1510 -0.2656
  432DOPE   PO4 5061   9.564  21.990  13.774  0.0738  0.0326  0.0035
  432DOPE   GL1 5062   9.659  22.033  13.339 -0.1506 -0.2760 -0.1930
  432DOPE   GL2 5063   9.389  22.023  13.151  0.0678 -0.1884 -0.3228
  432DOPE   C1A 5064   9.966  21.846  12.975 -0.2329 -0.3069 -0.2917
  432DOPE   D2A 5065  10.313  21.796  12.780  0.1300  0.1663  0.3673
  432DOPE   C3A 5066  10.261  21.762  12.287 -0.0834  0.0709 -0.0521
  432DOPE   C4A 5067  10.099  21.889  11.913 -0.0790  0.1415 -0.0664
  432DOPE   C1B 5068   9.036  22.267  13.048  0.1097  0.2437  0.0944
  432DOPE   D2B 5069   8.735  22.453  12.803  0.2142 -0.3233 -0.3819
  432DOPE   C3B 5070   8.772  22.626  12.398 -0.0194  0.0016 -0.2486
  432DOPE   C4B 5071   9.051  22.641  12.022  0.2018  0.0969 -0.0776
  433POSM   NC3 5072   6.808  18.890  13.350 -0.0597  0.2006  0.3182
  433POSM   PO4 5073   6.861  19.274  13.368  0.2189 -0.0008  0.1674
  433POSM   AM1 5074   6.812  19.338  13.050  0.2425  0.0608 -0.2275
  433POSM   AM2 5075   6.894  19.295  12.808 -0.0955  0.1443 -0.1682
  433POSM   T1A 5076   6.536  19.642  12.706  0.1709  0.0079 -0.3405
  433POSM   C2A 5077   6.514  19.648  12.259  0.0084  0.3294 -0.1899
  433POSM   C3A 5078   6.284  19.321  11.949 -0.1251  0.1259  0.1491
  433POSM   C1B 5079   6.895  19.252  12.469  0.0598  0.1954 -0.2601
  433POSM   D2B 5080   6.909  19.319  11.948  0.0496  0.3801 -0.2104
  433POSM   C3B 5081   7.027  18.874  11.845  0.1267  0.1281  0.0238
  433POSM   C4B 5082   7.312  18.649  11.521  0.0465 -0.1829 -0.0101
  434POSM   NC3 5083   7.584  13.704  14.844 -0.0322 -0.1983  0.0554
  434POSM   PO4 5084   7.780  13.348  14.874  0.0468  0.1850  0.0169
  434POSM   AM1 5085   7.791  13.435  14.565 -0.3151 -0.1878  0.3020
  434POSM   AM2 5086   7.651  13.352  14.296 -0.2667 -0.1477  0.2295
  434POSM   T1A 5087   7.828  13.782  14.203 -0.2245  0.1309  0.1938
  434POSM   C2A 5088   7.990  14.292  14.084  0.0817 -0.0218 -0.0842
  434POSM   C3A 5089   8.334  14.526  13.917 -0.2497 -0.0034  0.2114
  434POSM   C1B 5090   7.577  13.341  13.957  0.1736 -0.1830  0.1797
  434POSM   D2B 5091   7.479  13.405  13.489 -0.0731  0.1223 -0.1272
  434POSM   C3B 5092   7.640  13.732  13.250  0.1492 -0.1241  0.1193
  434POSM   C4B 5093   7.748  14.129  13.050 -0.1183  0.3163  0.0418
  435DOPC   NC3 5094   1.918  23.936  13.258  0.0280 -0.1208 -0.2284
  435DOPC   PO4 5095   1.564  24.005  13.354  0.0311 -0.0471  0.0453
  435DOPC   GL1 5096   1.521  23.922  12.996  0.2094 -0.0785  0.4002
  435DOPC   GL2 5097   1.656  24.087  12.826  0.0513 -0.2276 -0.2209
  435DOPC   C1A 5098   1.541  23.542  12.712  0.2939 -0.1057 -0.2454
  435DOPC   D2A 5099   1.463  23.267  12.362 -0.1345  0.0413 -0.1144
  435DOPC   C3A 5100   1.102  23.157  12.106  0.3235  0.1630  0.0333
  435DOPC   C4A 5101   0.688  23.011  11.904  0.1714 -0.1767 -0.2931
  435DOPC   C1B 5102   1.769  24.217  12.441 -0.0517 -0.2891 -0.3661
  435DOPC   D2B 5103   1.507  24.206  11.975 -0.0359 -0.0546 -0.2454
  435DOPC   C3B 5104   1.069  24.337  11.980 -0.2032 -0.0590 -0.2131
  435DOPC   C4B 5105   0.665  24.509  12.011  0.1708  0.0377  0.0759
  436DOPC   NC3 5106  34.533  14.175  14.129  0.1063  0.1755 -0.2134
  436DOPC   PO4 5107  34.719  14.503  13.974 -0.2396 -0.2631  0.0901
  436DOPC   GL1 5108  34.705  14.339  13.568 -0.0222  0.1644  0.0256
  436DOPC   GL2 5109  34.889  14.187  13.630  0.0569 -0.0940  0.0826
  436DOPC   C1A 5110  35.023  14.468  13.247 -0.2959 -0.6659 -0.2417
  436DOPC   D2A 5111  35.213  14.393  12.845  0.1954 -0.1663 -0.2194
  436DOPC   C3A 5112  35.183  14.610  12.435  0.1867  0.1071 -0.1415
  436DOPC   C4A 5113  35.083  14.603  11.961  0.0928 -0.0261 -0.1245
  436DOPC   C1B 5114  35.048  13.947  13.295  0.2102 -0.0049 -0.4628
  436DOPC   D2B 5115  35.041  13.882  12.818 -0.0192 -0.2229 -0.3563
  436DOPC   C3B 5116  35.306  13.579  12.708 -0.4396  0.2785  0.2517
  436DOPC   C4B 5117  35.650  13.299  12.543 -0.2406  0.2235  0.1418
  437POSM   NC3 5118   3.247  11.757  14.185  0.0263 -0.2975  0.0970
  437POSM   PO4 5119   3.461  11.463  14.170  0.1275 -0.1371 -0.1943
  437POSM   AM1 5120   3.681  11.442  13.961 -0.0359 -0.0273 -0.5122
  437POSM   AM2 5121   3.860  11.242  13.913  0.1246  0.0932  0.2212
  437POSM   T1A 5122   3.835  11.759  13.583  0.1280 -0.1567 -0.0091
  437POSM   C2A 5123   4.025  11.929  13.204  0.2665 -0.1471 -0.1972
  437POSM   C3A 5124   3.848  12.046  12.792  0.0732 -0.2426  0.2060
  437POSM   C1B 5125   3.857  11.269  13.589 -0.1619  0.0398  0.0972
  437POSM   D2B 5126   3.727  11.105  13.192  0.3316 -0.0609  0.0811
  437POSM   C3B 5127   3.679  11.142  12.788 -0.1781 -0.2026 -0.1128
  437POSM   C4B 5128   3.766  11.115  12.332 -0.4082 -0.4722 -0.1748
  438POSM   NC3 5129   7.993  15.425  14.244  0.4473  0.3488  0.1314
  438POSM   PO4 5130   8.076  15.046  14.299 -0.1049  0.2946  0.0357
  438POSM   AM1 5131   8.299  15.096  14.034 -0.3860  0.3164  0.0364
  438POSM   AM2 5132   8.273  15.195  13.763  0.2043  0.1183  0.0645
  438POSM   T1A 5133   8.698  15.038  13.740 -0.0752  0.3157 -0.1190
  438POSM   C2A 5134   8.856  15.134  13.295 -0.0264 -0.0136 -0.1269
  438POSM   C3A 5135   8.991  15.470  13.024 -0.3117 -0.1677  0.0853
  438POSM   C1B 5136   8.295  15.175  13.408 -0.0182  0.2763  0.1028
  438POSM   D2B 5137   8.397  15.094  12.948 -0.0561  0.3095  0.1354
  438POSM   C3B 5138   8.799  14.881  12.705  0.4872  0.1741 -0.2489
  438POSM   C4B 5139   9.086  14.557  12.704  0.0448  0.0137 -0.0569
  439DOPE   NH3 5140   9.231  21.147  14.062  0.1377 -0.3675 -0.5859
  439DOPE   PO4 5141   9.546  21.077  13.921 -0.0965  0.1334 -0.2897
  439DOPE   GL1 5142   9.640  20.964  13.546 -0.0682 -0.1172  0.1159
  439DOPE   GL2 5143   9.896  21.055  13.446  0.1164  0.0498  0.0189
  439DOPE   C1A 5144   9.592  20.556  13.249  0.0973 -0.0115 -0.0733
  439DOPE   D2A 5145   9.548  20.104  13.142  0.0662  0.0146 -0.2281
  439DOPE   C3A 5146   9.854  19.833  13.354 -0.0758 -0.0953  0.0128
  439DOPE   C4A 5147  10.172  19.845  13.676 -0.1648  0.1421 -0.1451
  439DOPE   C1B 5148  10.046  21.184  13.003 -0.0039 -0.2001  0.3120
  439DOPE   D2B 5149  10.217  21.266  12.565 -0.0480 -0.0264  0.0502
  439DOPE   C3B 5150  10.168  21.011  12.147 -0.0442 -0.1018 -0.0840
  439DOPE   C4B 5151  10.087  21.153  11.731 -0.0932  0.2933 -0.1835
  440DOPC   NC3 5152   5.128  20.009  13.706 -0.1801  0.0552  0.0421
  440DOPC   PO4 5153   4.987  20.400  13.576  0.0103 -0.1836  0.0676
  440DOPC   GL1 5154   4.750  20.357  13.353  0.0133  0.3896  0.0378
  440DOPC   GL2 5155   4.811  20.527  13.129  0.0041 -0.1866  0.3800
  440DOPC   C1A 5156   4.346  20.364  13.066  0.0920 -0.1244  0.2300
  440DOPC   D2A 5157   3.992  20.667  12.946  0.2520 -0.1708  0.1459
  440DOPC   C3A 5158   3.777  20.662  12.495  0.1900  0.1157  0.1753
  440DOPC   C4A 5159   3.812  20.525  12.050  0.0410 -0.0806 -0.0035
  440DOPC   C1B 5160   4.580  20.719  12.802 -0.0235  0.1050 -0.1272
  440DOPC   D2B 5161   4.252  20.630  12.498  0.2194 -0.0149 -0.1517
  440DOPC   C3B 5162   4.231  20.341  12.149  0.0696  0.0781  0.0194
  440DOPC   C4B 5163   4.084  20.298  11.741 -0.2504 -0.0518  0.1262
  441DOPE   NH3 5164   6.555  17.783  13.419 -0.0225  0.3060  0.0354
  441DOPE   PO4 5165   6.420  17.486  13.495 -0.0475 -0.2883 -0.0745
  441DOPE   GL1 5166   6.422  17.530  13.014 -0.3812 -0.1550  0.0178
  441DOPE   GL2 5167   6.770  17.503  13.082 -0.0202 -0.3126  0.2594
  441DOPE   C1A 5168   6.308  17.759  12.610  0.0671  0.4758 -0.0675
  441DOPE   D2A 5169   6.034  17.654  12.189 -0.0908  0.0927 -0.2651
  441DOPE   C3A 5170   6.283  17.726  11.776  0.2808  0.1161 -0.0271
  441DOPE   C4A 5171   6.586  17.610  11.489 -0.0401 -0.0766  0.1777
  441DOPE   C1B 5172   6.690  17.360  12.614 -0.1735  0.2943  0.2615
  441DOPE   D2B 5173   6.472  17.067  12.301 -0.1405 -0.1458  0.0839
  441DOPE   C3B 5174   6.288  16.614  12.313  0.2278  0.2530  0.3363
  441DOPE   C4B 5175   6.019  16.244  12.298 -0.1204 -0.2863  0.0172
  442DOPE   NH3 5176   9.600  12.866  14.833  0.2389  0.0978 -0.1982
  442DOPE   PO4 5177   9.398  12.600  14.778  0.0247 -0.1564  0.3198
  442DOPE   GL1 5178   9.685  12.602  14.380 -0.1014  0.2281  0.3955
  442DOPE   GL2 5179   9.932  12.500  14.343 -0.2124  0.1093  0.0426
  442DOPE   C1A 5180   9.651  12.511  13.918  0.0638  0.1111  0.0797
  442DOPE   D2A 5181   9.712  12.675  13.497 -0.0501  0.4144  0.1729
  442DOPE   C3A 5182   9.408  12.596  13.179 -0.3083  0.1282  0.1256
  442DOPE   C4A 5183   9.153  12.555  12.747 -0.0086  0.2259 -0.2397
  442DOPE   C1B 5184  10.055  12.759  13.999 -0.0194  0.1218  0.4899
  442DOPE   D2B 5185   9.819  13.063  13.729 -0.0348  0.1292  0.0764
  442DOPE   C3B 5186   9.556  13.468  13.683  0.1161 -0.1080 -0.1362
  442DOPE   C4B 5187   9.460  13.930  13.574  0.2795  0.1163  0.0037
  443DOPE   NH3 5188   6.554  14.396  14.609 -0.0125 -0.1057  0.0157
  443DOPE   PO4 5189   6.319  14.217  14.462  0.0395  0.1303 -0.1154
  443DOPE   GL1 5190   6.359  14.107  14.119 -0.1775 -0.3595  0.0062
  443DOPE   GL2 5191   6.223  14.241  13.890  0.1322  0.0612 -0.3738
  443DOPE   C1A 5192   6.645  13.954  13.742 -0.1403 -0.0992 -0.1768
  443DOPE   D2A 5193   6.676  14.020  13.300  0.1381  0.0306  0.0811
  443DOPE   C3A 5194   6.643  14.237  12.888  0.1407 -0.1849  0.1372
  443DOPE   C4A 5195   6.769  14.406  12.453  0.0957  0.0837  0.0779
  443DOPE   C1B 5196   6.229  14.234  13.407 -0.2160  0.1064 -0.1941
  443DOPE   D2B 5197   6.066  14.239  12.945  0.0449 -0.1167 -0.0323
  443DOPE   C3B 5198   6.309  14.187  12.557  0.0697  0.1176 -0.1526
  443DOPE   C4B 5199   6.305  13.976  12.122 -0.0989  0.1514  0.0926
  444DOPS   CNO 5200   0.301  19.063  13.634 -0.1564  0.1284 -0.2835
  444DOPS   PO4 5201   0.160  18.824  13.397  0.1316 -0.6109 -0.0953
  444DOPS   GL1 5202   0.175  18.861  13.085 -0.1123  0.1782 -0.2091
  444DOPS   GL2 5203   0.366  19.023  12.961 -0.1641 -0.0100 -0.2775
  444DOPS   C1A 5204   0.060  18.791  12.624  0.0225  0.1732 -0.1887
  444DOPS   D2A 5205   0.104  18.897  12.169 -0.0328  0.3129  0.0745
  444DOPS   C3A 5206   0.408  18.685  11.917  0.1930 -0.2698 -0.1825
  444DOPS   C4A 5207   0.374  18.491  11.459 -0.3964  0.3094  0.2771
  444DOPS   C1B 5208   0.401  19.190  12.528 -0.3421  0.1904  0.1203
  444DOPS   D2B 5209   0.473  19.227  12.061  0.0824  0.1342 -0.1061
  444DOPS   C3B 5210   0.350  19.634  11.792 -0.1292 -0.1274 -0.1538
  444DOPS   C4B 5211   0.294  19.922  11.436  0.0217 -0.0780 -0.0389
  445DOPE   NH3 5212   4.051  18.894  13.275 -0.0004  0.1519 -0.2211
  445DOPE   PO4 5213   3.966  18.577  13.397 -0.3907 -0.1333 -0.2215
  445DOPE   GL1 5214   3.799  18.385  13.069 -0.1941 -0.2564  0.2141
  445DOPE   GL2 5215   3.600  18.164  13.108  0.1113 -0.0818 -0.0169
  445DOPE   C1A 5216   3.973  18.511  12.614  0.3669  0.1973 -0.0583
  445DOPE   D2A 5217   3.972  18.838  12.355 -0.1626 -0.2794 -0.0826
  445DOPE   C3A 5218   3.945  18.695  11.896  0.2127 -0.1098  0.1169
  445DOPE   C4A 5219   3.781  18.541  11.457  0.0492  0.3885  0.1629
  445DOPE   C1B 5220   3.483  18.267  12.660 -0.4396  0.1619  0.1183
  445DOPE   D2B 5221   3.300  18.363  12.252  0.1308 -0.1355  0.0239
  445DOPE   C3B 5222   3.182  18.278  11.815 -0.0194  0.3838 -0.0312
  445DOPE   C4B 5223   2.966  18.089  11.407  0.1576  0.1384 -0.2056
  446DOPE   NH3 5224  33.909  18.126  13.661  0.1234  0.2062  0.0613
  446DOPE   PO4 5225  33.906  17.968  13.391 -0.0549  0.2485 -0.0863
  446DOPE   GL1 5226  34.016  17.817  13.018 -0.0288  0.1854 -0.0568
  446DOPE   GL2 5227  34.168  17.898  12.751  0.1630  0.1172 -0.2204
  446DOPE   C1A 5228  33.700  17.815  12.648  0.1488 -0.1350  0.2834
  446DOPE   D2A 5229  33.793  17.717  12.196  0.1107 -0.0216  0.1723
  446DOPE   C3A 5230  33.791  17.638  11.703 -0.1615  0.0457 -0.0017
  446DOPE   C4A 5231  34.232  17.611  11.525  0.0312  0.0924  0.0063
  446DOPE   C1B 5232  34.359  17.971  12.365 -0.1150 -0.0683  0.2502
  446DOPE   D2B 5233  34.339  17.842  11.955  0.0418 -0.2126 -0.0279
  446DOPE   C3B 5234  34.209  18.135  11.566 -0.2165  0.0401 -0.4250
  446DOPE   C4B 5235  34.167  18.395  11.182 -0.2349  0.1191  0.3109
  447POSM   NC3 5236   4.178  10.973  14.351  0.0975 -0.0280  0.0967
  447POSM   PO4 5237   4.415  10.724  14.434  0.2235 -0.0007  0.0402
  447POSM   AM1 5238   4.402  10.691  14.107  0.3491  0.2021 -0.0602
  447POSM   AM2 5239   4.319  10.845  13.893 -0.1198 -0.2416  0.2631
  447POSM   T1A 5240   4.633  10.381  13.728 -0.0783 -0.0291 -0.0289
  447POSM   C2A 5241   4.808   9.994  13.422 -0.3842  0.1925  0.0320
  447POSM   C3A 5242   4.782   9.917  13.026  0.2540 -0.3899 -0.3250
  447POSM   C1B 5243   4.287  10.984  13.618 -0.0614 -0.2275 -0.3519
  447POSM   D2B 5244   4.288  11.060  13.142 -0.1224 -0.1589  0.0577
  447POSM   C3B 5245   4.527  10.815  12.774  0.0386  0.2425 -0.1318
  447POSM   C4B 5246   4.674  10.713  12.352  0.2994 -0.2216 -0.4399
  448POSM   NC3 5247   3.934  13.847  13.336  0.0553  0.2397 -0.1202
  448POSM   PO4 5248   3.859  14.153  13.527 -0.1350  0.1413 -0.3493
  448POSM   AM1 5249   3.844  14.304  13.253 -0.0655  0.2578  0.3236
  448POSM   AM2 5250   3.680  14.344  13.004 -0.0013 -0.3435 -0.0386
  448POSM   T1A 5251   4.138  14.466  12.881 -0.3078 -0.0825 -0.0928
  448POSM   C2A 5252   4.404  14.556  12.491  0.2344 -0.1594  0.0736
  448POSM   C3A 5253   4.475  14.769  12.085  0.1244  0.0683 -0.0791
  448POSM   C1B 5254   3.695  14.203  12.695  0.2444 -0.2280  0.0212
  448POSM   D2B 5255   3.932  14.141  12.318  0.1991 -0.2084  0.1587
  448POSM   C3B 5256   3.904  13.938  11.929  0.1131 -0.1758 -0.2376
  448POSM   C4B 5257   3.680  13.737  11.572  0.0752  0.1336 -0.4183
  449DOPC   NC3 5258   3.803  16.132  13.840 -0.1057 -0.0268  0.1917
  449DOPC   PO4 5259   4.009  16.372  13.610  0.0176  0.2231 -0.1004
  449DOPC   GL1 5260   4.032  16.458  13.247  0.1342  0.0108  0.2178
  449DOPC   GL2 5261   3.970  16.284  13.073  0.0749  0.3049 -0.1730
  449DOPC   C1A 5262   4.271  16.695  12.917  0.2051 -0.0077 -0.0048
  449DOPC   D2A 5263   4.464  17.001  12.651 -0.2227 -0.0073 -0.2284
  449DOPC   C3A 5264   4.522  17.077  12.176 -0.0334 -0.0128 -0.0109
  449DOPC   C4A 5265   4.409  17.143  11.737  0.0297 -0.2872  0.2921
  449DOPC   C1B 5266   3.944  16.424  12.659 -0.1395  0.3727  0.2835
  449DOPC   D2B 5267   4.359  16.554  12.446  0.0358 -0.0596  0.2786
  449DOPC   C3B 5268   4.386  16.596  11.977  0.0194 -0.1944 -0.0509
  449DOPC   C4B 5269   4.350  16.647  11.525 -0.3531  0.1274 -0.2351
  450DOPC   NC3 5270   3.350  19.401  13.378 -0.1950 -0.0141  0.0716
  450DOPC   PO4 5271   3.596  19.064  13.359 -0.1695 -0.0291 -0.0227
  450DOPC   GL1 5272   3.699  19.148  13.095  0.0889 -0.2380 -0.2955
  450DOPC   GL2 5273   3.541  18.934  12.901 -0.0562 -0.1375 -0.0059
  450DOPC   C1A 5274   3.570  19.390  12.753  0.0913 -0.0497 -0.1286
  450DOPC   D2A 5275   3.720  19.413  12.320 -0.4189  0.0748 -0.1989
  450DOPC   C3A 5276   3.965  19.272  11.938  0.2497 -0.3188  0.2133
  450DOPC   C4A 5277   4.326  18.985  11.856  0.1295  0.1884 -0.1664
  450DOPC   C1B 5278   3.508  18.970  12.455 -0.2506 -0.1832  0.0308
  450DOPC   D2B 5279   3.406  18.916  12.010 -0.0298 -0.1236 -0.0678
  450DOPC   C3B 5280   3.525  19.017  11.579 -0.2425  0.1264 -0.2015
  450DOPC   C4B 5281   3.353  18.932  11.144  0.2404  0.3426 -0.1733
  451POSM   NC3 5282   3.327  22.868  13.882  0.1912 -0.0186  0.1341
  451POSM   PO4 5283   2.985  22.631  13.736 -0.2624  0.3752  0.0139
  451POSM   AM1 5284   2.820  22.611  13.436 -0.0967 -0.3526 -0.2174
  451POSM   AM2 5285   2.781  22.804  13.258 -0.1477 -0.0405 -0.1833
  451POSM   T1A 5286   2.570  22.333  13.135  0.1402  0.2593 -0.1446
  451POSM   C2A 5287   2.248  22.074  12.867 -0.2065  0.4992 -0.0670
  451POSM   C3A 5288   2.123  21.839  12.478  0.0650 -0.0750 -0.1163
  451POSM   C1B 5289   2.715  22.799  12.913 -0.0779 -0.0587 -0.0195
  451POSM   D2B 5290   2.759  22.816  12.465  0.2384 -0.1481  0.0744
  451POSM   C3B 5291   3.096  22.741  12.131  0.0734  0.0198 -0.1060
  451POSM   C4B 5292   3.481  23.015  12.035  0.1314 -0.2372  0.1309
  452DOPC   NC3 5293   7.232  12.527  14.548  0.1765 -0.1274 -0.1738
  452DOPC   PO4 5294   7.581  12.626  14.501 -0.0220 -0.0830  0.0484
  452DOPC   GL1 5295   7.601  12.304  14.330  0.2840 -0.0748  0.3229
  452DOPC   GL2 5296   7.503  12.088  14.153 -0.3866 -0.1584  0.3589
  452DOPC   C1A 5297   7.992  12.095  14.101 -0.2859  0.0856 -0.2655
  452DOPC   D2A 5298   8.043  12.232  13.715 -0.0395  0.0451 -0.1409
  452DOPC   C3A 5299   8.032  12.550  13.337  0.1410 -0.0135 -0.2814
  452DOPC   C4A 5300   7.728  12.755  13.049  0.1355 -0.0024 -0.3417
  452DOPC   C1B 5301   7.421  12.104  13.714 -0.1873 -0.0066 -0.1420
  452DOPC   D2B 5302   7.672  12.081  13.315 -0.2223 -0.1899 -0.0425
  452DOPC   C3B 5303   7.388  12.080  12.957  0.1311 -0.3257 -0.0067
  452DOPC   C4B 5304   7.419  12.115  12.518  0.0872 -0.2020 -0.3195
  453POSM   NC3 5305   2.791  21.078  14.261 -0.1369  0.3081 -0.0980
  453POSM   PO4 5306   2.596  21.037  13.925 -0.2185 -0.1062 -0.2412
  453POSM   AM1 5307   2.588  21.044  13.595  0.0454 -0.3787  0.1037
  453POSM   AM2 5308   2.447  21.216  13.398  0.3093  0.0616  0.1858
  453POSM   T1A 5309   2.713  20.775  13.211  0.0535  0.1867  0.2250
  453POSM   C2A 5310   2.524  20.519  12.888  0.1053  0.1058 -0.0087
  453POSM   C3A 5311   2.335  20.436  12.460  0.1435 -0.0742 -0.2900
  453POSM   C1B 5312   2.686  21.265  13.206 -0.3555  0.1053 -0.0497
  453POSM   D2B 5313   2.843  21.236  12.800 -0.2313  0.0177  0.1417
  453POSM   C3B 5314   2.929  21.331  12.329 -0.2058 -0.0480 -0.0841
  453POSM   C4B 5315   3.051  21.488  11.868 -0.3763 -0.0128 -0.1033
  454DOPC   NC3 5316  33.004  16.697  13.521 -0.1369 -0.0090  0.2056
  454DOPC   PO4 5317  33.367  16.838  13.544  0.1040  0.0683  0.0526
  454DOPC   GL1 5318  33.417  16.553  13.203  0.3037  0.2077  0.2253
  454DOPC   GL2 5319  33.164  16.379  13.066 -0.1667 -0.1628  0.2602
  454DOPC   C1A 5320  33.471  16.596  12.750  0.0339 -0.3952  0.1566
  454DOPC   D2A 5321  33.329  16.426  12.339 -0.0423  0.3140 -0.2161
  454DOPC   C3A 5322  33.004  16.107  12.142 -0.0401 -0.2357  0.0108
  454DOPC   C4A 5323  32.643  15.902  11.991 -0.3151  0.0116  0.0315
  454DOPC   C1B 5324  33.168  16.137  12.696  0.0996 -0.0961  0.1188
  454DOPC   D2B 5325  33.347  15.843  12.295  0.1109  0.1178  0.1082
  454DOPC   C3B 5326  33.719  16.074  12.051 -0.1387 -0.0910  0.2637
  454DOPC   C4B 5327  34.170  16.196  11.966 -0.0020  0.2280 -0.3863
  455POSM   NC3 5328  34.651  21.061  13.988  0.0426 -0.1536  0.0383
  455POSM   PO4 5329  34.419  21.267  13.743 -0.0425 -0.1199 -0.1955
  455POSM   AM1 5330  34.281  21.385  13.464  0.0071 -0.2221 -0.2456
  455POSM   AM2 5331  34.372  21.424  13.184  0.1736  0.1092 -0.0911
  455POSM   T1A 5332  34.103  21.786  13.287 -0.1847  0.1198  0.3351
  455POSM   C2A 5333  34.147  22.039  12.906 -0.0076  0.1326 -0.0479
  455POSM   C3A 5334  34.178  22.145  12.478  0.3496  0.0856  0.0763
  455POSM   C1B 5335  34.536  21.644  12.974 -0.1733 -0.2287  0.1460
  455POSM   D2B 5336  34.627  21.982  12.689  0.4520  0.2118  0.0704
  455POSM   C3B 5337  34.865  22.041  12.282  0.2782 -0.3004 -0.2310
  455POSM   C4B 5338  34.820  22.029  11.835 -0.0736  0.0532  0.2506
  456DOPE   NH3 5339   0.671  19.838  13.469 -0.3142  0.2078 -0.0626
  456DOPE   PO4 5340   0.928  19.628  13.391 -0.0232 -0.1872  0.1784
  456DOPE   GL1 5341   0.866  19.715  13.030 -0.0209  0.0936 -0.3036
  456DOPE   GL2 5342   0.778  19.503  12.850  0.3015  0.0531 -0.1643
  456DOPE   C1A 5343   1.075  19.903  12.692  0.1765  0.0471 -0.1899
  456DOPE   D2A 5344   1.037  19.993  12.270 -0.2559 -0.0659 -0.1151
  456DOPE   C3A 5345   1.375  20.218  12.037  0.3262  0.1405  0.1505
  456DOPE   C4A 5346   1.537  20.610  12.247 -0.0324 -0.1345  0.1503
  456DOPE   C1B 5347   0.654  19.630  12.418  0.2773  0.0547 -0.0409
  456DOPE   D2B 5348   0.797  19.626  11.993 -0.0052  0.3240  0.2791
  456DOPE   C3B 5349   0.835  20.051  11.812  0.0225  0.2306  0.2058
  456DOPE   C4B 5350   0.825  20.455  12.034 -0.0692 -0.5782  0.0106
  457DOPC   NC3 5351   8.968  11.795  14.473  0.4405  0.0143  0.0088
  457DOPC   PO4 5352   9.313  11.911  14.654 -0.0478  0.0590  0.0325
  457DOPC   GL1 5353   9.366  11.882  14.281 -0.2526 -0.0389 -0.1989
  457DOPC   GL2 5354   9.585  12.115  14.214  0.0990  0.2485  0.2766
  457DOPC   C1A 5355   9.080  11.633  13.964  0.1084  0.1336  0.3538
  457DOPC   D2A 5356   8.747  11.274  13.887 -0.2222 -0.3684  0.0868
  457DOPC   C3A 5357   8.468  11.137  13.498 -0.2353 -0.1896  0.0028
  457DOPC   C4A 5358   8.149  11.113  13.174  0.3088  0.3407 -0.0599
  457DOPC   C1B 5359   9.276  12.089  13.907 -0.0572 -0.2765 -0.3281
  457DOPC   D2B 5360   8.903  11.993  13.586  0.1180 -0.1950 -0.2180
  457DOPC   C3B 5361   9.220  12.048  13.230  0.0546  0.0679  0.2275
  457DOPC   C4B 5362   9.526  12.203  12.944 -0.2128  0.1600  0.1405
  458DOPC   NC3 5363   4.837  13.934  13.858 -0.0599 -0.1928  0.0653
  458DOPC   PO4 5364   5.181  14.142  13.954 -0.1343 -0.0630 -0.1243
  458DOPC   GL1 5365   5.335  13.956  13.640  0.0641  0.1031  0.0829
  458DOPC   GL2 5366   5.536  13.778  13.779 -0.2756 -0.0903 -0.1108
  458DOPC   C1A 5367   5.327  13.752  13.240 -0.2031 -0.1565 -0.2145
  458DOPC   D2A 5368   5.313  13.619  12.859  0.0260 -0.0309  0.0537
  458DOPC   C3A 5369   5.203  13.238  12.689  0.0338  0.0081 -0.3193
  458DOPC   C4A 5370   5.494  12.927  12.416 -0.1454  0.0268  0.1866
  458DOPC   C1B 5371   5.708  13.472  13.444 -0.2955  0.1923  0.0280
  458DOPC   D2B 5372   6.090  13.316  13.178  0.0362  0.0747 -0.1770
  458DOPC   C3B 5373   6.261  12.881  13.347  0.1436  0.1266  0.0764
  458DOPC   C4B 5374   6.522  12.489  13.263 -0.0621 -0.2015 -0.0495
  459DOPC   NC3 5375   1.649  17.047  13.254 -0.1149 -0.3095  0.2130
  459DOPC   PO4 5376   2.015  17.150  13.222 -0.0342 -0.1432  0.2617
  459DOPC   GL1 5377   2.225  16.824  12.964  0.3829  0.2644  0.0572
  459DOPC   GL2 5378   2.458  17.016  13.007 -0.0884  0.1896  0.0244
  459DOPC   C1A 5379   2.002  16.755  12.596 -0.2183  0.1977  0.2843
  459DOPC   D2A 5380   1.838  16.747  12.132 -0.0019 -0.0666 -0.0331
  459DOPC   C3A 5381   1.918  16.636  11.743  0.4399  0.1139 -0.1751
  459DOPC   C4A 5382   1.717  16.554  11.304  0.3587  0.1138 -0.1533
  459DOPC   C1B 5383   2.602  16.724  12.662 -0.1371 -0.2371  0.1931
  459DOPC   D2B 5384   3.026  16.596  12.428 -0.1557 -0.1423  0.0956
  459DOPC   C3B 5385   2.870  16.594  11.962  0.0150 -0.2588  0.2457
  459DOPC   C4B 5386   2.910  16.345  11.567 -0.0440 -0.0237  0.0310
  460DOPC   NC3 5387   6.784  20.661  13.166  0.0891  0.1022 -0.2182
  460DOPC   PO4 5388   6.970  21.014  13.194  0.2113  0.0020 -0.2646
  460DOPC   GL1 5389   6.817  20.958  12.775 -0.0035  0.1724  0.1398
  460DOPC   GL2 5390   6.615  21.142  12.645  0.1164 -0.1824  0.1604
  460DOPC   C1A 5391   6.672  20.607  12.480 -0.4190 -0.0793  0.0747
  460DOPC   D2A 5392   6.868  20.262  12.314  0.0246 -0.0631 -0.1061
  460DOPC   C3A 5393   6.941  20.186  11.855 -0.1019 -0.2659  0.0094
  460DOPC   C4A 5394   7.147  20.188  11.406  0.4610  0.0088 -0.0927
  460DOPC   C1B 5395   6.915  20.993  12.331 -0.0146  0.0763 -0.1753
  460DOPC   D2B 5396   7.180  20.646  12.200  0.0569  0.1851  0.3015
  460DOPC   C3B 5397   7.301  20.687  11.778 -0.2588 -0.1645  0.0564
  460DOPC   C4B 5398   7.581  20.944  11.516  0.1827 -0.0744 -0.2640
  461DOPS   CNO 5399   4.938  16.077  14.053  0.2078 -0.1620 -0.0059
  461DOPS   PO4 5400   5.205  16.194  13.878  0.2206 -0.2677  0.0676
  461DOPS   GL1 5401   5.526  16.230  13.560 -0.1567  0.0347  0.1988
  461DOPS   GL2 5402   5.243  16.306  13.367  0.0495  0.2327  0.0806
  461DOPS   C1A 5403   5.556  15.961  13.120 -0.0136 -0.0685 -0.0951
  461DOPS   D2A 5404   5.542  15.569  12.879  0.1274 -0.4886 -0.0207
  461DOPS   C3A 5405   5.756  15.533  12.500  0.0972 -0.2265 -0.2004
  461DOPS   C4A 5406   5.690  15.797  12.167 -0.1140 -0.1902 -0.1614
  461DOPS   C1B 5407   5.315  16.399  12.891  0.0974  0.0044  0.0788
  461DOPS   D2B 5408   5.254  16.465  12.426 -0.1430  0.1596  0.1137
  461DOPS   C3B 5409   5.307  16.814  12.169 -0.1734  0.0650 -0.2497
  461DOPS   C4B 5410   5.315  17.284  12.103  0.1042 -0.1535  0.1619
  462DOPC   NC3 5411   3.177  15.579  13.178  0.2635  0.2610 -0.2060
  462DOPC   PO4 5412   3.468  15.643  13.493  0.1026 -0.0582  0.4380
  462DOPC   GL1 5413   3.657  15.737  13.147  0.0297 -0.5190 -0.1611
  462DOPC   GL2 5414   3.508  15.811  12.881 -0.3589 -0.0325  0.2069
  462DOPC   C1A 5415   4.071  15.798  12.942 -0.1746 -0.2630 -0.1200
  462DOPC   D2A 5416   4.335  15.994  12.605  0.2139 -0.2876 -0.0160
  462DOPC   C3A 5417   4.317  15.663  12.256 -0.0007  0.0446 -0.2962
  462DOPC   C4A 5418   4.287  15.374  11.912  0.2016  0.1712  0.1197
  462DOPC   C1B 5419   3.829  15.973  12.539  0.1263  0.2094  0.1458
  462DOPC   D2B 5420   4.115  16.183  12.201  0.2133 -0.2110 -0.2667
  462DOPC   C3B 5421   3.962  16.369  11.795  0.0477 -0.1150  0.0352
  462DOPC   C4B 5422   3.869  16.538  11.382  0.0280  0.5008  0.0262
  463DOPS   CNO 5423   6.251  18.206  13.596  0.1453 -0.2543 -0.2245
  463DOPS   PO4 5424   6.026  17.913  13.632  0.0620  0.0615  0.1823
  463DOPS   GL1 5425   6.110  17.875  13.321 -0.1215 -0.0688  0.0056
  463DOPS   GL2 5426   6.023  17.671  13.174 -0.4068  0.0815  0.2218
  463DOPS   C1A 5427   6.043  18.041  12.889 -0.2730 -0.1737  0.0511
  463DOPS   D2A 5428   5.959  18.105  12.455 -0.2470 -0.1262  0.0381
  463DOPS   C3A 5429   6.348  18.027  12.211  0.2125 -0.1277  0.1289
  463DOPS   C4A 5430   6.534  17.580  12.137 -0.3186 -0.1934 -0.4983
  463DOPS   C1B 5431   6.024  17.382  12.863  0.1128 -0.1166 -0.0972
  463DOPS   D2B 5432   5.955  17.104  12.491  0.0978  0.0891  0.1202
  463DOPS   C3B 5433   6.062  17.201  12.035 -0.2322 -0.3808  0.3930
  463DOPS   C4B 5434   6.475  17.233  11.758 -0.0098  0.0632  0.0518
  464POSM   NC3 5435  11.254  10.889  15.774  0.3737  0.3265  0.0805
  464POSM   PO4 5436  11.404  11.002  15.428  0.4803 -0.3047  0.0681
  464POSM   AM1 5437  11.450  10.855  15.139 -0.2904 -0.1711 -0.2617
  464POSM   AM2 5438  11.558  10.981  14.927  0.1690 -0.4810  0.1067
  464POSM   T1A 5439  11.270  10.491  14.841 -0.2229  0.1500  0.1933
  464POSM   C2A 5440  11.065  10.188  14.525 -0.0349  0.0469  0.0118
  464POSM   C3A 5441  10.811  10.287  14.144 -0.3619 -0.3716 -0.0642
  464POSM   C1B 5442  11.796  11.095  14.765 -0.0453 -0.4795  0.3337
  464POSM   D2B 5443  12.058  11.339  14.507 -0.0318 -0.1450 -0.1555
  464POSM   C3B 5444  12.116  11.642  14.099  0.2046 -0.3271 -0.1913
  464POSM   C4B 5445  12.291  12.040  13.929 -0.0676 -0.0224 -0.1295
  465DOPS   CNO 5446   1.271  17.118  13.604  0.0427 -0.0752  0.2981
  465DOPS   PO4 5447   1.319  16.791  13.484 -0.0474  0.0248 -0.1412
  465DOPS   GL1 5448   1.125  16.912  13.166 -0.1048 -0.0474 -0.0296
  465DOPS   GL2 5449   1.180  17.177  13.075 -0.0841  0.0831 -0.3371
  465DOPS   C1A 5450   1.023  16.833  12.699 -0.1848  0.0206 -0.0460
  465DOPS   D2A 5451   1.281  16.929  12.315 -0.1460  0.1654 -0.0762
  465DOPS   C3A 5452   1.422  16.576  11.981  0.0179 -0.0298  0.0106
  465DOPS   C4A 5453   1.320  16.489  11.591  0.0351 -0.0511  0.1773
  465DOPS   C1B 5454   0.741  17.223  12.864 -0.1947 -0.3809 -0.0967
  465DOPS   D2B 5455   0.600  16.983  12.465 -0.2708  0.3584  0.2508
  465DOPS   C3B 5456   0.612  17.292  12.120 -0.0345 -0.0753 -0.0420
  465DOPS   C4B 5457   0.812  17.440  11.674  0.0457  0.1191 -0.1398
  466DOPS   CNO 5458  34.231  12.981  14.045  0.4852  0.1099  0.1744
  466DOPS   PO4 5459  34.224  12.825  13.719  0.0775 -0.1350  0.2225
  466DOPS   GL1 5460  34.286  12.991  13.307 -0.0971  0.3558  0.1139
  466DOPS   GL2 5461  34.365  13.259  13.393 -0.1805  0.1534 -0.2312
  466DOPS   C1A 5462  34.091  13.115  12.898  0.1902 -0.2262  0.0248
  466DOPS   D2A 5463  33.922  13.230  12.503 -0.0501  0.0145 -0.0264
  466DOPS   C3A 5464  34.193  13.185  12.101 -0.0393 -0.0016  0.0334
  466DOPS   C4A 5465  34.248  12.929  11.752  0.1616 -0.3583  0.2089
  466DOPS   C1B 5466  34.427  13.455  13.013  0.2913  0.2940 -0.2125
  466DOPS   D2B 5467  34.392  13.298  12.593  0.0010 -0.0742  0.0146
  466DOPS   C3B 5468  34.637  13.305  12.222 -0.3566  0.2125 -0.1821
  466DOPS   C4B 5469  34.557  13.306  11.738 -0.2427 -0.1218  0.1686
  467DOPE   NH3 5470   1.474  19.363  13.434  0.0175 -0.0552  0.0926
  467DOPE   PO4 5471   1.785  19.237  13.437 -0.1479  0.1385  0.1235
  467DOPE   GL1 5472   1.855  19.208  13.093 -0.1026 -0.2801 -0.0679
  467DOPE   GL2 5473   2.129  19.328  13.076 -0.2660  0.0049  0.0607
  467DOPE   C1A 5474   1.699  19.114  12.670 -0.0147  0.1550 -0.1249
  467DOPE   D2A 5475   1.617  19.289  12.284  0.0017  0.0722 -0.0279
  467DOPE   C3A 5476   1.875  19.206  11.915  0.1271 -0.0787  0.0845
  467DOPE   C4A 5477   2.278  18.957  11.845 -0.4595  0.1205  0.1553
  467DOPE   C1B 5478   2.185  19.806  12.946 -0.0115  0.0743 -0.2208
  467DOPE   D2B 5479   2.101  20.240  12.920 -0.0285  0.2108  0.0938
  467DOPE   C3B 5480   1.831  20.266  12.501  0.0096 -0.1638 -0.0032
  467DOPE   C4B 5481   1.830  20.239  12.040  0.1973  0.2133 -0.0559
  468DOPE   NH3 5482   6.897  11.214  14.184  0.0166 -0.1457  0.0747
  468DOPE   PO4 5483   7.123  11.092  14.367  0.1501 -0.1245 -0.0506
  468DOPE   GL1 5484   7.013  10.771  13.997 -0.0699 -0.2615  0.0280
  468DOPE   GL2 5485   6.858  10.912  13.741  0.0295 -0.2849  0.1516
  468DOPE   C1A 5486   7.289  10.719  13.636  0.0088 -0.0534  0.2313
  468DOPE   D2A 5487   7.383  10.524  13.225  0.0036 -0.0299  0.0625
  468DOPE   C3A 5488   7.289  10.182  12.967 -0.0990  0.2695 -0.0058
  468DOPE   C4A 5489   7.208   9.823  12.722  0.0408  0.0729  0.0732
  468DOPE   C1B 5490   6.908  10.815  13.314 -0.0730  0.0227  0.1158
  468DOPE   D2B 5491   6.882  10.458  13.092  0.2709  0.0925  0.1157
  468DOPE   C3B 5492   6.797  10.055  12.835  0.2591  0.2090 -0.2483
  468DOPE   C4B 5493   6.566   9.755  12.545 -0.2312 -0.0918  0.0004
  469DOPE   NH3 5494   5.173  18.148  13.562  0.2028  0.0942 -0.1241
  469DOPE   PO4 5495   5.252  18.404  13.424 -0.0229  0.5731  0.1629
  469DOPE   GL1 5496   5.254  18.478  12.986 -0.1278  0.0258 -0.1734
  469DOPE   GL2 5497   5.154  18.701  13.025 -0.1979  0.0365  0.5046
  469DOPE   C1A 5498   5.080  18.247  12.633 -0.1144 -0.0738 -0.0009
  469DOPE   D2A 5499   5.096  18.375  12.204  0.4344 -0.3590 -0.0300
  469DOPE   C3A 5500   4.804  18.287  11.845  0.1519 -0.2217  0.1144
  469DOPE   C4A 5501   4.546  18.022  11.548 -0.0511  0.0048 -0.6779
  469DOPE   C1B 5502   4.889  18.688  12.666  0.2624 -0.1582  0.1142
  469DOPE   D2B 5503   4.513  18.838  12.334  0.2130 -0.3525 -0.0777
  469DOPE   C3B 5504   4.815  18.830  11.967  0.1690 -0.1265  0.0958
  469DOPE   C4B 5505   5.073  18.632  11.665  0.2461  0.0756  0.1455
  470DOPC   NC3 5506   1.573  20.044  14.032  0.1144 -0.0505  0.0833
  470DOPC   PO4 5507   1.650  20.023  13.603  0.0393 -0.0932  0.0638
  470DOPC   GL1 5508   1.771  20.186  13.202  0.0782  0.1733 -0.2326
  470DOPC   GL2 5509   1.858  20.419  13.315 -0.1806 -0.1167 -0.0698
  470DOPC   C1A 5510   1.696  19.898  12.818  0.0918 -0.1875  0.0275
  470DOPC   D2A 5511   1.564  19.766  12.390  0.1283 -0.1280 -0.1973
  470DOPC   C3A 5512   1.964  19.694  12.084  0.0789 -0.0047  0.0771
  470DOPC   C4A 5513   2.047  19.590  11.617 -0.1322 -0.3132  0.1769
  470DOPC   C1B 5514   1.687  20.510  12.859  0.0970  0.1241  0.0821
  470DOPC   D2B 5515   1.926  20.740  12.558 -0.0764 -0.0783  0.1019
  470DOPC   C3B 5516   2.142  20.755  12.105 -0.1257 -0.0459 -0.0101
  470DOPC   C4B 5517   2.154  21.057  11.742 -0.1541 -0.3282  0.1950
  471DOPC   NC3 5518   8.067  17.144  14.225 -0.0612 -0.1557 -0.2742
  471DOPC   PO4 5519   8.039  17.132  13.858 -0.1424  0.1137 -0.1192
  471DOPC   GL1 5520   8.264  16.861  13.634  0.0488  0.0769 -0.0249
  471DOPC   GL2 5521   8.395  16.674  13.831 -0.2130  0.1373 -0.0071
  471DOPC   C1A 5522   8.276  16.631  13.238  0.2751 -0.2961 -0.1011
  471DOPC   D2A 5523   8.413  16.465  12.818 -0.1740 -0.1486 -0.1517
  471DOPC   C3A 5524   8.416  16.678  12.428  0.2588  0.1991 -0.1324
  471DOPC   C4A 5525   8.194  16.766  12.020  0.0872  0.1917  0.2638
  471DOPC   C1B 5526   8.703  16.587  13.459 -0.2185 -0.0451  0.2010
  471DOPC   D2B 5527   8.928  16.326  13.126  0.0795  0.0172 -0.0404
  471DOPC   C3B 5528   8.809  15.974  12.978 -0.0906 -0.0351 -0.0492
  471DOPC   C4B 5529   8.520  15.614  12.934 -0.1300 -0.0692  0.2123
  472POSM   NC3 5530   0.252  18.289  13.448 -0.0998 -0.0552 -0.1016
  472POSM   PO4 5531   0.083  17.989  13.578  0.3985  0.1576  0.4145
  472POSM   AM1 5532   0.017  17.933  13.273 -0.0428  0.4764 -0.3050
  472POSM   AM2 5533  -0.128  17.719  13.176  0.0238  0.2439 -0.4708
  472POSM   T1A 5534  -0.034  17.969  12.776 -0.1250  0.0827 -0.0523
  472POSM   C2A 5535   0.093  17.736  12.304 -0.2536  0.1566  0.0999
  472POSM   C3A 5536   0.288  17.771  11.935  0.0294 -0.1008 -0.0214
  472POSM   C1B 5537  -0.272  17.536  12.900 -0.0091 -0.3996  0.0348
  472POSM   D2B 5538  -0.523  17.511  12.455  0.1299 -0.1952  0.0038
  472POSM   C3B 5539  -0.233  17.388  12.139 -0.0825 -0.0337  0.3039
  472POSM   C4B 5540   0.126  17.292  11.854 -0.1954 -0.1584 -0.1240
  473POSM   NC3 5541  33.860  23.358  14.095 -0.0745 -0.0587 -0.2251
  473POSM   PO4 5542  33.847  22.962  14.006 -0.2473 -0.1270 -0.3267
  473POSM   AM1 5543  33.927  23.053  13.721 -0.2206  0.0073 -0.1055
  473POSM   AM2 5544  33.781  22.955  13.505 -0.0374 -0.2202  0.2161
  473POSM   T1A 5545  34.289  23.127  13.340 -0.2023  0.1334  0.2592
  473POSM   C2A 5546  34.733  23.089  13.157 -0.1920 -0.2562 -0.3713
  473POSM   C3A 5547  34.827  22.875  12.763 -0.0632  0.0110  0.2597
  473POSM   C1B 5548  33.916  22.833  13.212  0.1809 -0.0105  0.1030
  473POSM   D2B 5549  34.269  22.902  12.922  0.2331  0.0835  0.1980
  473POSM   C3B 5550  34.016  22.754  12.543  0.2319  0.1057  0.3588
  473POSM   C4B 5551  33.990  22.887  12.130  0.3216 -0.0861  0.2734
  474DOPE   NH3 5552   3.303  15.089  13.640 -0.1855 -0.1687  0.0595
  474DOPE   PO4 5553   3.143  15.053  13.333 -0.0975  0.1898  0.0553
  474DOPE   GL1 5554   3.146  15.055  12.974  0.2480 -0.1447  0.1421
  474DOPE   GL2 5555   3.282  14.712  12.994  0.1450 -0.0905  0.0713
  474DOPE   C1A 5556   3.364  15.356  12.703 -0.1433 -0.0799 -0.0949
  474DOPE   D2A 5557   3.491  15.575  12.316  0.1202 -0.0712 -0.0439
  474DOPE   C3A 5558   3.550  15.957  12.036  0.1602  0.0413 -0.0101
  474DOPE   C4A 5559   3.348  16.376  12.063 -0.2144 -0.1648  0.1941
  474DOPE   C1B 5560   3.349  14.906  12.573  0.1294  0.1135 -0.0087
  474DOPE   D2B 5561   3.651  15.027  12.266 -0.3580  0.0728  0.1741
  474DOPE   C3B 5562   3.413  14.980  11.897 -0.0206 -0.2583 -0.0006
  474DOPE   C4B 5563   3.194  14.869  11.547 -0.0996 -0.0170  0.1649
  475DOPE   NH3 5564   0.199  15.372  14.122  0.2237  0.0507  0.1755
  475DOPE   PO4 5565   0.056  15.587  13.901 -0.0718  0.2230  0.1971
  475DOPE   GL1 5566  -0.165  15.526  13.623  0.2059 -0.2329  0.3945
  475DOPE   GL2 5567   0.006  15.315  13.437 -0.6093  0.2886 -0.0291
  475DOPE   C1A 5568  -0.398  15.579  13.224  0.1535  0.0205 -0.2511
  475DOPE   D2A 5569  -0.637  15.781  12.801 -0.1255 -0.0674  0.1933
  475DOPE   C3A 5570  -0.595  15.840  12.337 -0.1375 -0.0046  0.1362
  475DOPE   C4A 5571  -0.734  15.699  11.832  0.1318 -0.1640 -0.0242
  475DOPE   C1B 5572   0.136  14.955  13.176 -0.0882 -0.2763 -0.0820
  475DOPE   D2B 5573   0.371  14.992  12.837 -0.1478  0.1399 -0.1774
  475DOPE   C3B 5574   0.193  15.071  12.401 -0.0566  0.0743 -0.1804
  475DOPE   C4B 5575  -0.043  14.903  12.027  0.1009 -0.0058 -0.3785
  476DOPE   NH3 5576   2.532  23.878  13.615  0.0170 -0.0286 -0.0784
  476DOPE   PO4 5577   2.437  23.905  13.333  0.0393 -0.1517  0.0044
  476DOPE   GL1 5578   2.299  23.865  13.012 -0.1025 -0.3705 -0.0199
  476DOPE   GL2 5579   2.183  24.123  12.824  0.1699 -0.1249 -0.0959
  476DOPE   C1A 5580   2.445  23.534  12.671 -0.1617  0.0672 -0.2946
  476DOPE   D2A 5581   2.630  23.340  12.333  0.0324 -0.1337 -0.0061
  476DOPE   C3A 5582   2.749  23.086  11.952 -0.1450 -0.2560  0.1684
  476DOPE   C4A 5583   2.947  22.717  11.661  0.2833  0.3314 -0.0574
  476DOPE   C1B 5584   2.086  23.862  12.489  0.2201  0.1188 -0.2084
  476DOPE   D2B 5585   1.743  23.740  12.235 -0.2678 -0.1723 -0.2345
  476DOPE   C3B 5586   1.833  23.411  11.987  0.0569  0.2489 -0.0025
  476DOPE   C4B 5587   1.785  22.956  11.877  0.2345  0.0498  0.0885
  477DOPC   NC3 5588   1.127  14.081  13.870 -0.0412 -0.1085  0.0667
  477DOPC   PO4 5589   1.321  14.400  13.792 -0.1971  0.1206 -0.1159
  477DOPC   GL1 5590   1.273  14.176  13.395  0.1855  0.0324 -0.1106
  477DOPC   GL2 5591   1.562  14.192  13.361 -0.2984 -0.1315  0.1345
  477DOPC   C1A 5592   1.177  14.310  12.926 -0.2024 -0.0088 -0.1715
  477DOPC   D2A 5593   0.967  14.321  12.527 -0.3144  0.2319  0.1467
  477DOPC   C3A 5594   0.583  14.091  12.467  0.0847 -0.2961  0.0218
  477DOPC   C4A 5595   0.290  14.127  12.082 -0.1374 -0.1081 -0.2180
  477DOPC   C1B 5596   1.622  14.543  13.082 -0.1605 -0.0327 -0.0318
  477DOPC   D2B 5597   1.394  14.723  12.735  0.0357  0.0881  0.1091
  477DOPC   C3B 5598   1.551  14.637  12.321  0.3555  0.0161 -0.2307
  477DOPC   C4B 5599   1.686  14.948  11.924  0.2076 -0.0907 -0.2886
  478DOPC   NC3 5600  33.778  16.530  13.591 -0.3316  0.1660 -0.0726
  478DOPC   PO4 5601  34.081  16.285  13.499  0.2246 -0.1519  0.0397
  478DOPC   GL1 5602  34.415  16.037  13.274  0.2530  0.2227 -0.0020
  478DOPC   GL2 5603  34.524  16.327  13.157 -0.1737  0.0043 -0.2736
  478DOPC   C1A 5604  34.597  15.818  12.906  0.1817 -0.0398 -0.2608
  478DOPC   D2A 5605  34.737  15.682  12.557  0.2187 -0.2805 -0.0924
  478DOPC   C3A 5606  34.505  15.388  12.257 -0.0794 -0.1234  0.1131
  478DOPC   C4A 5607  34.256  15.026  12.301  0.0725 -0.0591  0.0199
  478DOPC   C1B 5608  34.228  16.223  12.803  0.0796  0.2136 -0.4086
  478DOPC   D2B 5609  33.776  16.140  12.512 -0.0445  0.2026 -0.2540
  478DOPC   C3B 5610  33.858  16.519  12.329 -0.1868  0.0236 -0.2088
  478DOPC   C4B 5611  33.694  16.763  12.024  0.0850 -0.0652 -0.1037
  479POSM   NC3 5612   4.116  13.433  14.139 -0.1462  0.0579  0.0336
  479POSM   PO4 5613   4.094  13.081  14.029  0.4174  0.0736 -0.0443
  479POSM   AM1 5614   4.281  13.068  13.759  0.0979 -0.1092 -0.0606
  479POSM   AM2 5615   4.540  13.070  13.690 -0.3222  0.0584  0.4504
  479POSM   T1A 5616   4.438  13.370  13.372  0.2177  0.2420  0.1623
  479POSM   C2A 5617   4.227  13.615  13.034  0.0717 -0.0809 -0.1328
  479POSM   C3A 5618   4.075  13.928  12.766  0.1577 -0.0797 -0.0625
  479POSM   C1B 5619   4.799  13.005  13.472 -0.2023 -0.0354 -0.0943
  479POSM   D2B 5620   4.887  12.952  13.017 -0.0414 -0.0265 -0.0578
  479POSM   C3B 5621   4.786  13.428  12.873  0.1991  0.1755  0.1418
  479POSM   C4B 5622   4.808  13.688  12.520 -0.5370  0.0286 -0.4567
  480DOPC   NC3 5623  34.129  27.791  12.836 -0.0672 -0.0387  0.0030
  480DOPC   PO4 5624  34.052  27.437  12.878 -0.0694 -0.2658 -0.1929
  480DOPC   GL1 5625  34.370  27.237  12.681 -0.0645  0.4339 -0.0052
  480DOPC   GL2 5626  34.429  27.491  12.550  0.0990 -0.0299 -0.3323
  480DOPC   C1A 5627  34.646  27.059  12.345  0.1006 -0.0856 -0.1759
  480DOPC   D2A 5628  35.014  26.980  12.093 -0.3121 -0.2068 -0.2146
  480DOPC   C3A 5629  35.083  26.889  11.674  0.1386  0.0034  0.1381
  480DOPC   C4A 5630  35.156  26.490  11.484  0.2184 -0.0157 -0.0315
  480DOPC   C1B 5631  34.422  27.507  12.046 -0.0437 -0.0120  0.0096
  480DOPC   D2B 5632  34.307  27.841  11.756  0.2119  0.0190 -0.1128
  480DOPC   C3B 5633  34.120  28.268  11.770 -0.1311  0.0341  0.0377
  480DOPC   C4B 5634  34.087  28.476  12.131 -0.0660 -0.0399 -0.0357
  481DOPE   NH3 5635   8.449  13.050  14.818  0.2076 -0.0402 -0.1474
  481DOPE   PO4 5636   8.240  13.228  14.595  0.0045  0.2399 -0.0994
  481DOPE   GL1 5637   8.105  13.254  14.222  0.3599  0.2388  0.0469
  481DOPE   GL2 5638   8.262  13.122  14.055  0.1341  0.3188  0.3241
  481DOPE   C1A 5639   8.010  13.499  13.800  0.0506  0.2259 -0.3724
  481DOPE   D2A 5640   8.072  13.504  13.314 -0.0571 -0.0809  0.1387
  481DOPE   C3A 5641   8.154  13.848  12.944  0.0059  0.0928 -0.0368
  481DOPE   C4A 5642   7.911  13.805  12.577 -0.0318 -0.1578  0.4134
  481DOPE   C1B 5643   8.418  12.799  13.735 -0.4685 -0.1026 -0.2186
  481DOPE   D2B 5644   8.627  12.404  13.855  0.1081 -0.0952  0.2696
  481DOPE   C3B 5645   8.479  12.236  13.425  0.1080 -0.3426 -0.2254
  481DOPE   C4B 5646   8.144  12.165  13.085 -0.0066 -0.0611 -0.0005
  482DOPC   NC3 5647   1.188  18.288  13.624  0.2770 -0.2366  0.1534
  482DOPC   PO4 5648   1.463  18.370  13.351  0.4079  0.1126 -0.0460
  482DOPC   GL1 5649   1.516  18.520  13.044 -0.1332  0.0308  0.1335
  482DOPC   GL2 5650   1.243  18.545  12.845  0.2328  0.1064 -0.2085
  482DOPC   C1A 5651   1.788  18.596  12.660  0.1989  0.2191 -0.1695
  482DOPC   D2A 5652   1.986  18.721  12.280 -0.1182  0.4660 -0.0629
  482DOPC   C3A 5653   2.210  18.399  12.051  0.4213 -0.2579 -0.1327
  482DOPC   C4A 5654   2.314  17.971  11.892 -0.1489  0.3136 -0.1128
  482DOPC   C1B 5655   0.983  18.467  12.536  0.2974  0.1025  0.3070
  482DOPC   D2B 5656   0.694  18.230  12.230 -0.0101 -0.2016  0.0659
  482DOPC   C3B 5657   0.688  18.171  11.760  0.0461 -0.4034  0.1817
  482DOPC   C4B 5658   0.572  17.847  11.548 -0.1606 -0.2078  0.1049
  483DOPE   NH3 5659  32.998  20.807  13.559 -0.0677  0.0284 -0.2113
  483DOPE   PO4 5660  32.756  20.613  13.561 -0.1184  0.2638 -0.0251
  483DOPE   GL1 5661  32.780  20.697  13.127  0.1649  0.1743  0.2032
  483DOPE   GL2 5662  33.067  20.693  12.993 -0.1975 -0.1997 -0.0305
  483DOPE   C1A 5663  32.817  21.090  13.032 -0.1572 -0.1986 -0.1291
  483DOPE   D2A 5664  32.854  21.391  12.699 -0.1393 -0.0566  0.1049
  483DOPE   C3A 5665  33.161  21.353  12.353 -0.0332 -0.2791 -0.0699
  483DOPE   C4A 5666  33.020  21.057  11.994 -0.0792  0.0015 -0.1579
  483DOPE   C1B 5667  33.376  20.761  12.690 -0.2363  0.0515  0.0905
  483DOPE   D2B 5668  33.475  20.618  12.245 -0.0310  0.1180 -0.2098
  483DOPE   C3B 5669  33.727  20.219  12.185 -0.0422 -0.0668 -0.2281
  483DOPE   C4B 5670  33.703  19.779  12.248  0.0837  0.1581 -0.2372
  484DOPE   NH3 5671   6.551  13.786  14.358 -0.1915 -0.0051  0.2844
  484DOPE   PO4 5672   6.838  13.787  14.441  0.1574 -0.0297  0.0927
  484DOPE   GL1 5673   6.895  13.759  14.097  0.2019  0.2771  0.0351
  484DOPE   GL2 5674   7.140  13.878  13.882 -0.0637  0.1406  0.0366
  484DOPE   C1A 5675   6.977  13.482  13.724  0.1245  0.1469 -0.1620
  484DOPE   D2A 5676   7.006  13.305  13.316 -0.0711  0.3090 -0.2044
  484DOPE   C3A 5677   7.099  13.578  13.043  0.0850 -0.4429 -0.0757
  484DOPE   C4A 5678   7.009  13.865  12.677  0.1217 -0.2948  0.1745
  484DOPE   C1B 5679   7.130  13.829  13.461 -0.0084  0.0902  0.2598
  484DOPE   D2B 5680   7.178  14.106  13.119  0.0354 -0.0726  0.0492
  484DOPE   C3B 5681   7.079  14.545  13.183 -0.1253 -0.0980  0.0939
  484DOPE   C4B 5682   6.823  14.777  12.879 -0.0969  0.1914  0.0172
  485DOPC   NC3 5683   2.584  16.057  13.497  0.0505 -0.1416 -0.2190
  485DOPC   PO4 5684   2.989  16.036  13.490  0.1759  0.2062 -0.1049
  485DOPC   GL1 5685   3.105  16.033  13.124  0.2401  0.0276  0.3120
  485DOPC   GL2 5686   3.033  16.232  12.935 -0.1534  0.1302 -0.0451
  485DOPC   C1A 5687   3.026  15.752  12.693  0.1342  0.0126 -0.0908
  485DOPC   D2A 5688   2.907  15.332  12.470 -0.1076  0.1436 -0.0455
  485DOPC   C3A 5689   2.609  15.252  12.120  0.0934  0.1727  0.0123
  485DOPC   C4A 5690   2.352  15.410  11.778  0.0702 -0.1858  0.0743
  485DOPC   C1B 5691   3.007  16.642  12.931  0.0101 -0.0561  0.2514
  485DOPC   D2B 5692   2.969  17.047  12.708 -0.1603 -0.0021 -0.2032
  485DOPC   C3B 5693   3.308  17.274  12.487  0.0893 -0.1624 -0.3858
  485DOPC   C4B 5694   3.708  17.369  12.662 -0.4218 -0.3654 -0.0439
  486DOPC   NC3 5695   3.692  17.279  13.403 -0.2043 -0.2105  0.1876
  486DOPC   PO4 5696   3.541  17.587  13.609  0.2149 -0.3176 -0.2396
  486DOPC   GL1 5697   3.575  17.698  13.251  0.2446 -0.2346 -0.1758
  486DOPC   GL2 5698   3.362  17.514  13.126 -0.1002 -0.0918 -0.0914
  486DOPC   C1A 5699   3.881  17.799  12.964  0.0855 -0.1486  0.0420
  486DOPC   D2A 5700   3.771  17.854  12.520 -0.2224  0.2780  0.0719
  486DOPC   C3A 5701   3.943  17.783  12.105 -0.1048  0.0926 -0.1705
  486DOPC   C4A 5702   3.881  17.598  11.669 -0.4239 -0.1356 -0.0290
  486DOPC   C1B 5703   3.299  17.775  12.727 -0.0052 -0.1115 -0.1972
  486DOPC   D2B 5704   3.321  17.829  12.253  0.0622  0.0329 -0.2580
  486DOPC   C3B 5705   3.541  17.485  12.019 -0.1947 -0.2211 -0.0040
  486DOPC   C4B 5706   3.410  17.221  11.595  0.2954  0.1122 -0.1887
  487DOPC   NC3 5707  10.520  20.311  13.679  0.0756  0.2429 -0.2595
  487DOPC   PO4 5708  10.925  20.421  13.636  0.2208 -0.1304 -0.0332
  487DOPC   GL1 5709  11.001  20.421  13.314 -0.0452  0.0463 -0.2161
  487DOPC   GL2 5710  11.270  20.317  13.258 -0.2022  0.0989  0.0947
  487DOPC   C1A 5711  10.659  20.402  12.975  0.3041 -0.2421 -0.3991
  487DOPC   D2A 5712  10.279  20.227  13.149 -0.2263 -0.1163 -0.0316
  487DOPC   C3A 5713  10.004  19.914  12.880 -0.0901 -0.2570  0.2503
  487DOPC   C4A 5714   9.815  19.566  12.591 -0.0081  0.0434  0.3692
  487DOPC   C1B 5715  11.156  20.213  12.846 -0.1508  0.2086 -0.1081
  487DOPC   D2B 5716  11.137  20.056  12.415 -0.0778  0.2987 -0.1588
  487DOPC   C3B 5717  10.756  19.891  12.329 -0.0446  0.1146 -0.0298
  487DOPC   C4B 5718  10.334  19.738  12.394  0.0748 -0.1878 -0.1022
  488DOPC   NC3 5719   1.025  11.870  14.019  0.0864  0.3579 -0.1137
  488DOPC   PO4 5720   1.213  12.158  14.255 -0.0700  0.4344 -0.3490
  488DOPC   GL1 5721   1.224  12.197  13.809 -0.0711 -0.1775  0.2355
  488DOPC   GL2 5722   1.133  12.005  13.533  0.1802 -0.0997  0.0695
  488DOPC   C1A 5723   1.497  12.339  13.431  0.1005 -0.1890  0.1784
  488DOPC   D2A 5724   1.909  12.322  13.211 -0.1125 -0.2221  0.1077
  488DOPC   C3A 5725   2.176  12.223  12.892 -0.2570  0.1264  0.0718
  488DOPC   C4A 5726   2.265  12.106  12.398 -0.0600 -0.1875  0.1012
  488DOPC   C1B 5727   1.177  11.960  13.100 -0.2202  0.1141 -0.1448
  488DOPC   D2B 5728   1.236  11.838  12.648  0.2749  0.1115 -0.0374
  488DOPC   C3B 5729   1.277  12.255  12.490  0.0810 -0.0141  0.0443
  488DOPC   C4B 5730   1.026  12.446  12.152  0.0739 -0.2085 -0.0022
  489DOPC   NC3 5731   4.338  15.532  13.926 -0.1342 -0.2324  0.0124
  489DOPC   PO4 5732   4.673  15.638  13.779 -0.0373 -0.1389 -0.1079
  489DOPC   GL1 5733   4.804  15.395  13.497 -0.1520 -0.0452 -0.0328
  489DOPC   GL2 5734   5.073  15.204  13.485 -0.0287  0.3296  0.1877
  489DOPC   C1A 5735   4.994  15.530  13.109 -0.1108  0.2077  0.1160
  489DOPC   D2A 5736   5.096  15.317  12.734  0.1448 -0.0873  0.0585
  489DOPC   C3A 5737   5.179  15.357  12.280 -0.0119 -0.0618 -0.0417
  489DOPC   C4A 5738   5.351  15.487  11.862 -0.0159  0.0716 -0.2029
  489DOPC   C1B 5739   5.346  15.127  13.101  0.1137 -0.0734  0.1866
  489DOPC   D2B 5740   5.562  15.095  12.697 -0.0621 -0.1045 -0.0626
  489DOPC   C3B 5741   5.273  14.801  12.557 -0.2476  0.0637  0.1157
  489DOPC   C4B 5742   5.467  14.564  12.224  0.0466 -0.3297  0.0292
  490DOPE   NH3 5743  10.452  18.731  14.254  0.0879  0.2069  0.1156
  490DOPE   PO4 5744  10.351  18.959  14.104 -0.0683  0.0032 -0.0446
  490DOPE   GL1 5745  10.385  18.973  13.753 -0.2206  0.0162 -0.1422
  490DOPE   GL2 5746  10.528  18.853  13.521 -0.0177 -0.2237 -0.5181
  490DOPE   C1A 5747  10.481  19.298  13.397  0.3151  0.2028 -0.1811
  490DOPE   D2A 5748  10.803  19.489  13.102  0.0532 -0.0504  0.1103
  490DOPE   C3A 5749  10.591  19.883  12.910  0.2422 -0.0901  0.1227
  490DOPE   C4A 5750  10.407  20.165  12.599  0.3738 -0.0832  0.0339
  490DOPE   C1B 5751  10.161  18.864  13.271 -0.3653  0.1886  0.2181
  490DOPE   D2B 5752  10.110  18.893  12.848  0.1141  0.0130 -0.1020
  490DOPE   C3B 5753  10.080  18.568  12.593 -0.1720  0.1946 -0.1081
  490DOPE   C4B 5754   9.812  18.327  12.314  0.1025 -0.0228  0.1602
  491DOPE   NH3 5755   8.424  18.030  13.660 -0.0258  0.1671 -0.0053
  491DOPE   PO4 5756   8.257  17.868  13.926 -0.1719  0.1461 -0.0088
  491DOPE   GL1 5757   8.165  17.514  13.653  0.0958 -0.0082 -0.0302
  491DOPE   GL2 5758   8.359  17.430  13.409  0.2211 -0.2701  0.1008
  491DOPE   C1A 5759   7.878  17.477  13.253 -0.1737  0.1484 -0.0679
  491DOPE   D2A 5760   7.756  17.254  12.854  0.4626 -0.0022  0.0260
  491DOPE   C3A 5761   7.723  17.401  12.333 -0.1583 -0.0821 -0.1421
  491DOPE   C4A 5762   7.855  17.323  11.898  0.0530  0.0175 -0.0366
  491DOPE   C1B 5763   8.430  17.070  13.150  0.0319 -0.1032  0.0151
  491DOPE   D2B 5764   8.742  16.926  12.818 -0.0388 -0.2859  0.0274
  491DOPE   C3B 5765   8.655  17.104  12.438  0.3910 -0.2475 -0.0045
  491DOPE   C4B 5766   8.803  16.842  12.114  0.1269  0.1164  0.0583
  492POSM   NC3 5767   2.822  22.064  13.764 -0.1810  0.3101  0.1221
  492POSM   PO4 5768   2.430  21.861  13.824 -0.1175  0.2613  0.2623
  492POSM   AM1 5769   2.413  21.768  13.532 -0.1293 -0.2209  0.1660
  492POSM   AM2 5770   2.182  21.667  13.431 -0.1219 -0.1676 -0.2814
  492POSM   T1A 5771   2.625  21.701  13.093 -0.1031  0.1513 -0.5174
  492POSM   C2A 5772   2.504  21.600  12.694 -0.2116  0.0266 -0.4642
  492POSM   C3A 5773   2.426  21.516  12.242 -0.3576  0.0499  0.0702
  492POSM   C1B 5774   2.144  21.531  13.133  0.2557  0.1139 -0.1931
  492POSM   D2B 5775   1.960  21.383  12.792 -0.1637 -0.1896 -0.1758
  492POSM   C3B 5776   1.981  21.229  12.362  0.1983 -0.1862  0.0274
  492POSM   C4B 5777   1.714  21.027  12.053  0.0611 -0.0494  0.2105
  493DOPC   NC3 5778   6.514  10.389  14.304  0.1225 -0.0771  0.0602
  493DOPC   PO4 5779   6.651  10.015  14.393 -0.3244 -0.0773  0.0500
  493DOPC   GL1 5780   6.532   9.934  14.069  0.3349 -0.2305 -0.0383
  493DOPC   GL2 5781   6.394   9.650  13.963  0.5281  0.4484 -0.0718
  493DOPC   C1A 5782   6.343  10.071  13.646  0.1253 -0.1460 -0.0565
  493DOPC   D2A 5783   6.487  10.179  13.186  0.0204  0.1520  0.1113
  493DOPC   C3A 5784   6.250  10.086  12.890  0.2336  0.0974  0.1347
  493DOPC   C4A 5785   5.822  10.145  12.679  0.2680 -0.1592 -0.2861
  493DOPC   C1B 5786   6.722   9.785  13.672  0.0399  0.0461 -0.0212
  493DOPC   D2B 5787   6.918   9.645  13.288 -0.2961  0.2946  0.1176
  493DOPC   C3B 5788   6.431   9.721  13.122  0.0118  0.0012  0.2740
  493DOPC   C4B 5789   6.004   9.561  13.181  0.1677 -0.1229 -0.2629
  494POSM   NC3 5790   3.130  13.383  14.009  0.2269 -0.1627  0.0146
  494POSM   PO4 5791   3.050  13.016  13.934 -0.0839  0.3284 -0.0970
  494POSM   AM1 5792   3.237  13.098  13.673 -0.0953 -0.0153 -0.1384
  494POSM   AM2 5793   3.484  13.206  13.593 -0.0949 -0.0116 -0.2662
  494POSM   T1A 5794   3.347  12.963  13.197 -0.0948  0.0676 -0.2315
  494POSM   C2A 5795   3.680  12.794  12.888 -0.1208  0.1111 -0.0618
  494POSM   C3A 5796   3.837  12.561  12.513  0.0898  0.4731 -0.0794
  494POSM   C1B 5797   3.571  13.440  13.410 -0.1720 -0.2231  0.1933
  494POSM   D2B 5798   3.642  13.674  13.004  0.0873 -0.1322  0.2505
  494POSM   C3B 5799   3.665  13.699  12.528 -0.1010  0.0557 -0.1927
  494POSM   C4B 5800   4.023  13.619  12.290 -0.2324 -0.2341  0.1125
  495POSM   NC3 5801  34.151  25.190  13.341  0.4407 -0.0155 -0.2991
  495POSM   PO4 5802  34.537  25.208  13.366 -0.0913  0.0689  0.4180
  495POSM   AM1 5803  34.607  25.231  13.048  0.0409  0.0918  0.1038
  495POSM   AM2 5804  34.396  25.132  12.879  0.0152  0.0295 -0.0247
  495POSM   T1A 5805  34.886  25.202  12.625  0.0737  0.3338 -0.2393
  495POSM   C2A 5806  34.801  25.200  12.188  0.0706  0.1279 -0.0428
  495POSM   C3A 5807  34.529  24.982  11.840 -0.0973  0.4930  0.1733
  495POSM   C1B 5808  34.378  25.213  12.573 -0.2588  0.1884 -0.1791
  495POSM   D2B 5809  34.199  25.284  12.136  0.1151 -0.0073  0.1315
  495POSM   C3B 5810  34.419  25.480  11.788  0.2857  0.0700 -0.1856
  495POSM   C4B 5811  34.276  25.515  11.348 -0.0143  0.0544  0.3434
  496DOPS   CNO 5812   2.353  16.821  13.494  0.1162 -0.1365 -0.0054
  496DOPS   PO4 5813   2.177  16.473  13.618  0.2154 -0.1996 -0.1639
  496DOPS   GL1 5814   2.245  16.374  13.247 -0.3765  0.1264 -0.0445
  496DOPS   GL2 5815   2.529  16.468  13.202  0.1263 -0.4860 -0.0920
  496DOPS   C1A 5816   1.971  16.279  12.903 -0.3457  0.2935  0.1870
  496DOPS   D2A 5817   2.136  16.000  12.558  0.2513 -0.0073  0.0707
  496DOPS   C3A 5818   2.061  15.662  12.256  0.3439  0.0813  0.0754
  496DOPS   C4A 5819   2.076  15.214  12.257  0.0618  0.1378  0.2259
  496DOPS   C1B 5820   2.574  16.279  12.786 -0.0916  0.3225 -0.0399
  496DOPS   D2B 5821   2.500  16.379  12.322 -0.2050  0.0716  0.0408
  496DOPS   C3B 5822   2.390  16.762  12.158  0.0806  0.2835 -0.0491
  496DOPS   C4B 5823   2.204  17.125  11.941 -0.2913  0.0700 -0.1988
  497DOPC   NC3 5824   1.903  21.717  13.933  0.1939 -0.0949  0.0802
  497DOPC   PO4 5825   1.654  21.807  13.642 -0.1250  0.1215  0.1381
  497DOPC   GL1 5826   1.703  21.755  13.302 -0.0391 -0.0780 -0.2088
  497DOPC   GL2 5827   1.665  21.452  13.214  0.2018  0.0938 -0.0162
  497DOPC   C1A 5828   1.698  21.904  12.874 -0.1742 -0.1025 -0.1275
  497DOPC   D2A 5829   1.595  22.271  12.548  0.0884  0.0154  0.0413
  497DOPC   C3A 5830   1.156  22.399  12.484  0.3721 -0.2163 -0.0454
  497DOPC   C4A 5831   0.901  22.724  12.280  0.3997  0.1366 -0.0911
  497DOPC   C1B 5832   1.343  21.444  12.853  0.1392 -0.0167 -0.1040
  497DOPC   D2B 5833   0.919  21.601  12.788 -0.0817 -0.1530  0.1822
  497DOPC   C3B 5834   0.850  21.825  12.323 -0.3973 -0.2917 -0.1785
  497DOPC   C4B 5835   0.510  21.744  11.974  0.0401  0.0680 -0.2125
  498DOPE   NH3 5836   1.385  20.482  13.273 -0.2147  0.0118 -0.0687
  498DOPE   PO4 5837   1.085  20.610  13.323 -0.0376 -0.0591  0.0332
  498DOPE   GL1 5838   0.689  20.615  13.004 -0.1067 -0.1327 -0.1161
  498DOPE   GL2 5839   0.481  20.757  12.850 -0.0963  0.0659 -0.0325
  498DOPE   C1A 5840   0.707  20.503  12.491 -0.0424  0.1163  0.1645
  498DOPE   D2A 5841   0.513  20.133  12.355 -0.2081  0.1841 -0.2773
  498DOPE   C3A 5842   0.353  20.196  11.939 -0.0276 -0.0744 -0.2044
  498DOPE   C4A 5843   0.052  20.352  11.566 -0.1566  0.3140  0.0247
  498DOPE   C1B 5844   0.311  20.977  12.484 -0.0831 -0.3206 -0.0840
  498DOPE   D2B 5845   0.285  21.209  12.092 -0.3962 -0.3893 -0.0669
  498DOPE   C3B 5846   0.667  21.200  11.766  0.0445 -0.0790 -0.0686
  498DOPE   C4B 5847   0.840  20.791  11.678  0.0025 -0.1068  0.1162
  499DOPE   NH3 5848   2.327  13.870  13.735  0.1089  0.2931 -0.3151
  499DOPE   PO4 5849   2.286  14.175  13.654  0.2573  0.0081 -0.2427
  499DOPE   GL1 5850   2.043  14.191  13.315  0.1612 -0.2424  0.2297
  499DOPE   GL2 5851   2.098  14.486  13.208  0.2001  0.2640 -0.0294
  499DOPE   C1A 5852   1.963  14.152  12.830  0.0598  0.0109 -0.0651
  499DOPE   D2A 5853   1.818  13.814  12.509  0.0460 -0.2500 -0.0771
  499DOPE   C3A 5854   1.840  14.039  12.093  0.2599  0.1883 -0.3922
  499DOPE   C4A 5855   1.895  14.088  11.599  0.2944 -0.0432  0.3325
  499DOPE   C1B 5856   2.356  14.529  12.819 -0.1835 -0.0089  0.2607
  499DOPE   D2B 5857   2.531  14.260  12.489 -0.2027  0.0504  0.2985
  499DOPE   C3B 5858   2.788  13.898  12.656 -0.0523  0.1885 -0.0966
  499DOPE   C4B 5859   2.952  13.500  12.596 -0.0495 -0.1386  0.1284
  500DOPC   NC3 5860   6.515  15.836  14.109  0.0230 -0.1874  0.2322
  500DOPC   PO4 5861   6.443  15.460  14.116 -0.1745 -0.0368  0.2004
  500DOPC   GL1 5862   6.542  15.359  13.776  0.2514  0.0001  0.1431
  500DOPC   GL2 5863   6.540  15.076  13.705 -0.1862 -0.0356  0.0758
  500DOPC   C1A 5864   6.800  15.430  13.417  0.0622 -0.1327 -0.2117
  500DOPC   D2A 5865   6.872  15.451  12.958  0.1123 -0.1168  0.0350
  500DOPC   C3A 5866   7.051  15.291  12.526 -0.3510 -0.0204 -0.1606
  500DOPC   C4A 5867   7.266  15.248  12.107  0.0417  0.0111  0.0528
  500DOPC   C1B 5868   6.873  14.966  13.410 -0.1907 -0.0873  0.0273
  500DOPC   D2B 5869   7.188  15.149  13.186 -0.2569 -0.0323  0.2462
  500DOPC   C3B 5870   7.415  14.883  12.931 -0.0463  0.1058  0.2123
  500DOPC   C4B 5871   7.467  14.442  12.741  0.0693 -0.0868 -0.3440
  501POSM   NC3 5872   6.062  18.462  13.235 -0.1087 -0.1953 -0.2294
  501POSM   PO4 5873   6.425  18.640  13.200 -0.1566  0.0508  0.5819
  501POSM   AM1 5874   6.382  18.516  12.878 -0.0083 -0.2834  0.4342
  501POSM   AM2 5875   6.241  18.567  12.695  0.0575 -0.0357  0.2093
  501POSM   T1A 5876   6.653  18.251  12.562 -0.0263  0.0008 -0.3417
  501POSM   C2A 5877   7.120  18.225  12.529 -0.3506 -0.1500  0.1566
  501POSM   C3A 5878   7.448  17.963  12.357  0.1470  0.1735  0.2380
  501POSM   C1B 5879   6.349  18.682  12.377 -0.4706  0.1177 -0.0074
  501POSM   D2B 5880   6.556  18.888  12.043  0.0859  0.2048 -0.1397
  501POSM   C3B 5881   6.404  18.874  11.650  0.0167 -0.1734 -0.2247
  501POSM   C4B 5882   6.307  18.974  11.171 -0.1639  0.1470 -0.2676
  502POSM   NC3 5883   1.238  24.229  13.693  0.0852 -0.5097  0.0299
  502POSM   PO4 5884   0.899  24.138  13.542  0.1145 -0.0306 -0.0347
  502POSM   AM1 5885   1.100  24.060  13.305 -0.1319  0.1549  0.0614
  502POSM   AM2 5886   1.073  23.843  13.151  0.1193  0.0470 -0.0266
  502POSM   T1A 5887   1.229  24.246  12.860  0.2401  0.2194  0.2925
  502POSM   C2A 5888   1.333  24.039  12.458 -0.3505  0.1912 -0.3756
  502POSM   C3A 5889   1.255  23.817  12.022 -0.2655 -0.1312 -0.1116
  502POSM   C1B 5890   1.132  23.701  12.841  0.0157  0.1624 -0.0055
  502POSM   D2B 5891   1.069  23.551  12.428  0.1643 -0.2715 -0.0797
  502POSM   C3B 5892   0.834  23.190  12.573  0.3270 -0.1229  0.1448
  502POSM   C4B 5893   0.396  23.126  12.372  0.2435  0.1917 -0.2187
  503DOPC   NC3 5894   8.819  23.669  13.206 -0.0868 -0.2102  0.0316
  503DOPC   PO4 5895   8.501  23.514  13.403  0.0627  0.2242 -0.0351
  503DOPC   GL1 5896   8.763  23.222  13.264  0.0986  0.0110  0.3005
  503DOPC   GL2 5897   8.977  23.205  13.354 -0.4005 -0.0070  0.0534
  503DOPC   C1A 5898   9.035  23.348  12.873  0.1225  0.5030 -0.4370
  503DOPC   D2A 5899   9.539  23.361  12.825  0.0841  0.0598 -0.0781
  503DOPC   C3A 5900   9.744  23.051  12.492 -0.1131 -0.0185  0.2632
  503DOPC   C4A 5901   9.681  22.598  12.313  0.1996  0.2952 -0.0724
  503DOPC   C1B 5902   9.400  23.067  13.253 -0.0858 -0.0395  0.1382
  503DOPC   D2B 5903   9.581  22.793  12.866  0.0176  0.0654  0.1985
  503DOPC   C3B 5904   9.666  22.328  12.831 -0.1034 -0.0995  0.2432
  503DOPC   C4B 5905   9.495  22.002  12.695  0.0146  0.3142  0.0988
  504DOPS   CNO 5906   1.417  17.564  13.298  0.0267 -0.0610  0.1585
  504DOPS   PO4 5907   1.186  17.840  13.361  0.1306 -0.5113  0.3779
  504DOPS   GL1 5908   1.358  18.015  13.005 -0.1863 -0.1391 -0.1599
  504DOPS   GL2 5909   1.386  17.757  12.834 -0.3360 -0.0038  0.2365
  504DOPS   C1A 5910   1.465  18.160  12.619 -0.0371 -0.1950  0.1252
  504DOPS   D2A 5911   1.527  17.782  12.348  0.0642 -0.2366  0.5301
  504DOPS   C3A 5912   1.912  17.703  12.083 -0.1034 -0.2531  0.1370
  504DOPS   C4A 5913   2.321  17.537  12.146 -0.1974 -0.2074  0.2669
  504DOPS   C1B 5914   1.091  17.496  12.540  0.0675 -0.2248 -0.2236
  504DOPS   D2B 5915   1.168  17.357  12.098  0.0302  0.2571  0.0062
  504DOPS   C3B 5916   1.296  17.765  11.844  0.1239  0.0119  0.0367
  504DOPS   C4B 5917   1.076  17.830  11.464  0.0146 -0.0188  0.2159
  505DOPE   NH3 5918   8.913  13.989  15.020  0.0907  0.1329  0.0091
  505DOPE   PO4 5919   9.176  13.843  15.016 -0.0922 -0.2515 -0.2776
  505DOPE   GL1 5920   9.149  13.887  14.592 -0.0522  0.1611 -0.0358
  505DOPE   GL2 5921   8.849  13.848  14.485 -0.2105  0.1634 -0.2503
  505DOPE   C1A 5922   9.460  13.975  14.255  0.1754  0.2346  0.1463
  505DOPE   D2A 5923   9.815  13.858  13.971  0.3924 -0.0941 -0.0950
  505DOPE   C3A 5924  10.020  14.034  13.603 -0.3246  0.1066 -0.2730
  505DOPE   C4A 5925  10.159  14.082  13.230 -0.0598 -0.1244  0.3123
  505DOPE   C1B 5926   8.470  14.057  14.182  0.2096  0.1882  0.3216
  505DOPE   D2B 5927   8.422  13.946  13.731 -0.0690 -0.0056 -0.2676
  505DOPE   C3B 5928   8.534  14.196  13.365 -0.4304  0.3701 -0.4960
  505DOPE   C4B 5929   8.651  14.386  12.941  0.0743 -0.3308 -0.2596
  506DOPS   CNO 5930   2.314  23.443  13.786 -0.0525  0.1310  0.1228
  506DOPS   PO4 5931   2.144  23.438  13.443  0.1851  0.4758  0.1223
  506DOPS   GL1 5932   2.220  23.405  13.051  0.1770 -0.2061  0.1528
  506DOPS   GL2 5933   1.974  23.517  12.982 -0.0662  0.0868 -0.0297
  506DOPS   C1A 5934   2.238  23.038  12.715  0.1640 -0.0680  0.1726
  506DOPS   D2A 5935   2.302  22.981  12.210  0.0298  0.0663  0.1321
  506DOPS   C3A 5936   2.230  23.173  11.795  0.3917  0.5629  0.0349
  506DOPS   C4A 5937   2.355  23.554  11.576 -0.2818 -0.1005  0.0540
  506DOPS   C1B 5938   2.006  23.364  12.490  0.1456  0.2004  0.1118
  506DOPS   D2B 5939   2.248  23.592  12.117 -0.2411 -0.2860 -0.2615
  506DOPS   C3B 5940   2.103  24.014  11.925  0.3811 -0.1466 -0.2577
  506DOPS   C4B 5941   1.854  24.236  11.611 -0.0286 -0.1645  0.0919
  507DOPS   CNO 5942   2.812  11.630  14.034  0.1491  0.1872  0.1655
  507DOPS   PO4 5943   2.515  11.376  13.994 -0.1024 -0.4353  0.1315
  507DOPS   GL1 5944   2.412  11.480  13.606  0.2176 -0.3651 -0.1162
  507DOPS   GL2 5945   2.711  11.537  13.512  0.0580 -0.1568  0.1248
  507DOPS   C1A 5946   2.309  11.349  13.168  0.0514 -0.1275  0.0355
  507DOPS   D2A 5947   2.106  11.134  12.802  0.1043 -0.1935 -0.0409
  507DOPS   C3A 5948   2.340  10.702  12.667 -0.0864  0.1130  0.1982
  507DOPS   C4A 5949   2.561  10.571  12.305  0.1344 -0.2758 -0.1219
  507DOPS   C1B 5950   2.988  11.236  13.306 -0.3453  0.1282  0.0199
  507DOPS   D2B 5951   3.251  11.307  12.916 -0.2723  0.1088 -0.5346
  507DOPS   C3B 5952   3.224  10.996  12.552 -0.0508 -0.2428  0.0405
  507DOPS   C4B 5953   2.976  10.804  12.168 -0.0884 -0.1174  0.0423
  508POSM   NC3 5954  32.304  20.704  13.833  0.0294  0.0531 -0.0230
  508POSM   PO4 5955  31.979  20.821  13.687  0.0262  0.1769 -0.2688
  508POSM   AM1 5956  31.999  20.763  13.365 -0.0867 -0.1360  0.1945
  508POSM   AM2 5957  31.883  20.639  13.150 -0.4205  0.0477 -0.2538
  508POSM   T1A 5958  32.305  20.836  12.967  0.0671  0.0996 -0.0831
  508POSM   C2A 5959  32.634  20.730  12.665  0.0156  0.1175  0.1076
  508POSM   C3A 5960  32.950  20.964  12.522 -0.0527  0.1493 -0.0799
  508POSM   C1B 5961  31.788  20.849  12.969 -0.1531 -0.1706 -0.0250
  508POSM   D2B 5962  31.434  21.224  12.954  0.0302  0.0660 -0.2184
  508POSM   C3B 5963  31.407  21.358  12.507 -0.1199  0.0380  0.2639
  508POSM   C4B 5964  31.682  21.415  12.200 -0.1301 -0.0534 -0.0066
  509POSM   NC3 5965   5.659  15.731  13.924 -0.0494 -0.0411  0.0100
  509POSM   PO4 5966   6.062  15.824  13.971  0.1443 -0.0437 -0.0327
  509POSM   AM1 5967   6.245  15.757  13.721 -0.1397  0.2414 -0.0384
  509POSM   AM2 5968   6.464  15.824  13.581  0.2745 -0.0630 -0.2059
  509POSM   T1A 5969   6.320  15.433  13.387 -0.3100 -0.0952  0.0044
  509POSM   C2A 5970   6.418  15.016  13.280  0.2286 -0.2252 -0.1634
  509POSM   C3A 5971   6.499  14.587  13.186  0.2615 -0.2105 -0.5192
  509POSM   C1B 5972   6.571  15.800  13.238  0.0844  0.2224  0.0762
  509POSM   D2B 5973   6.881  15.907  12.938  0.0196 -0.0327  0.1684
  509POSM   C3B 5974   6.856  15.763  12.526 -0.0462 -0.0253  0.0160
  509POSM   C4B 5975   6.773  15.641  12.126  0.1536 -0.2113  0.2465
  510DOPC   NC3 5976   2.146  12.992  13.905 -0.0182 -0.0222  0.0176
  510DOPC   PO4 5977   2.062  13.355  13.825  0.0635 -0.2056 -0.3114
  510DOPC   GL1 5978   2.102  13.277  13.495  0.0210 -0.0953  0.3820
  510DOPC   GL2 5979   2.330  13.471  13.433 -0.2598  0.0717 -0.0423
  510DOPC   C1A 5980   2.356  12.867  13.416 -0.2739  0.0971 -0.1919
  510DOPC   D2A 5981   2.732  12.937  13.120  0.1769 -0.0546  0.1305
  510DOPC   C3A 5982   2.579  13.075  12.699  0.2272 -0.1428  0.0626
  510DOPC   C4A 5983   2.314  13.057  12.309  0.0260 -0.0263 -0.2690
  510DOPC   C1B 5984   2.190  13.190  13.063 -0.0023  0.2272 -0.0011
  510DOPC   D2B 5985   2.135  12.819  12.820  0.1602 -0.0684 -0.0343
  510DOPC   C3B 5986   1.866  12.869  12.435 -0.1768  0.0469 -0.2078
  510DOPC   C4B 5987   1.766  13.224  12.168  0.1042  0.0183  0.2958
  511POSM   NC3 5988   5.864  19.909  13.682  0.1718 -0.3851 -0.3985
  511POSM   PO4 5989   6.221  19.885  13.507 -0.1920 -0.2900 -0.1368
  511POSM   AM1 5990   6.069  19.872  13.235 -0.1953  0.2449  0.2338
  511POSM   AM2 5991   5.829  19.789  13.135 -0.0722 -0.1961  0.0532
  511POSM   T1A 5992   5.952  19.924  12.713  0.0735  0.1916 -0.1732
  511POSM   C2A 5993   5.978  20.039  12.333  0.2437 -0.1840  0.2932
  511POSM   C3A 5994   5.955  20.266  11.913 -0.2752 -0.2299  0.0193
  511POSM   C1B 5995   5.539  19.700  12.960  0.0305  0.1385  0.1709
  511POSM   D2B 5996   5.164  19.533  12.886 -0.2294 -0.0209 -0.0850
  511POSM   C3B 5997   4.948  19.665  12.472 -0.0597 -0.1419 -0.0954
  511POSM   C4B 5998   5.212  19.607  12.058 -0.1899  0.2356  0.0832
  512DOPC   NC3 5999   4.787  18.303  13.119  0.0196  0.1402 -0.0772
  512DOPC   PO4 6000   4.782  17.987  13.300 -0.1328  0.0834  0.3064
  512DOPC   GL1 6001   4.855  17.883  12.928  0.0903 -0.2078  0.0826
  512DOPC   GL2 6002   4.569  17.966  12.683 -0.4356  0.1783 -0.1149
  512DOPC   C1A 6003   5.144  17.808  12.533 -0.0701 -0.3283  0.1749
  512DOPC   D2A 6004   5.180  17.856  12.086 -0.2467 -0.0909 -0.3086
  512DOPC   C3A 6005   5.314  18.173  11.796  0.2685 -0.2265  0.0344
  512DOPC   C4A 6006   5.128  18.222  11.356 -0.1664 -0.1956  0.1390
  512DOPC   C1B 6007   4.167  18.122  12.471 -0.0425  0.1628 -0.0786
  512DOPC   D2B 6008   3.848  18.271  12.168  0.1834  0.0494  0.1122
  512DOPC   C3B 6009   3.621  18.071  11.822 -0.0559  0.1071 -0.0698
  512DOPC   C4B 6010   3.500  18.001  11.426 -0.0812 -0.1778  0.2978
  513POSM   NC3 6011   4.494  17.238  13.909  0.1056 -0.1935  0.0552
  513POSM   PO4 6012   4.554  17.505  13.638  0.2427 -0.0109 -0.1065
  513POSM   AM1 6013   4.606  17.414  13.326 -0.0604 -0.2029  0.1202
  513POSM   AM2 6014   4.637  17.169  13.178  0.2551  0.0905 -0.0049
  513POSM   T1A 6015   4.650  17.468  12.798  0.1709 -0.0186 -0.1215
  513POSM   C2A 6016   4.755  17.500  12.368 -0.0715  0.0033 -0.0949
  513POSM   C3A 6017   4.868  17.379  11.916 -0.1411  0.0834  0.3996
  513POSM   C1B 6018   4.847  16.999  13.024  0.2556  0.1921  0.1858
  513POSM   D2B 6019   5.292  16.875  12.804  0.1980 -0.0758 -0.1327
  513POSM   C3B 6020   5.489  17.158  12.546 -0.1599  0.3351 -0.0867
  513POSM   C4B 6021   5.554  17.628  12.361  0.0330 -0.1454  0.2524
  514POSM   NC3 6022   8.831   8.349  14.236 -0.0951 -0.1475 -0.5067
  514POSM   PO4 6023   9.116   8.529  14.454  0.2732  0.0603  0.1513
  514POSM   AM1 6024   9.189   8.621  14.117  0.0307  0.0001 -0.1377
  514POSM   AM2 6025   9.295   8.832  14.010  0.4013  0.1077  0.2365
  514POSM   T1A 6026   9.089   8.625  13.614 -0.1598  0.0483 -0.1679
  514POSM   C2A 6027   8.948   8.378  13.188  0.0661  0.0092 -0.0788
  514POSM   C3A 6028   8.934   8.253  12.750  0.0890 -0.0572  0.0782
  514POSM   C1B 6029   9.598   8.945  13.858 -0.1014 -0.3478 -0.0939
  514POSM   D2B 6030   9.923   9.098  13.550 -0.0783  0.2192  0.3621
  514POSM   C3B 6031   9.960   9.005  13.078 -0.3768 -0.2013  0.0065
  514POSM   C4B 6032  10.214   8.796  12.784 -0.0600 -0.0715 -0.3030
  515DOPC   NC3 6033   0.949  14.774  13.877  0.0954 -0.1410  0.1229
  515DOPC   PO4 6034   0.789  14.442  13.810 -0.1490 -0.1772 -0.2839
  515DOPC   GL1 6035   0.816  14.522  13.429 -0.0632  0.0448  0.0414
  515DOPC   GL2 6036   0.757  14.283  13.308  0.1075 -0.2075  0.2450
  515DOPC   C1A 6037   0.746  14.792  13.092  0.0809 -0.3992  0.1306
  515DOPC   D2A 6038   0.959  14.827  12.697 -0.2830 -0.0202 -0.2104
  515DOPC   C3A 6039   0.732  15.044  12.367  0.2242 -0.0984  0.0854
  515DOPC   C4A 6040   0.629  15.144  11.893  0.1717  0.1451  0.3770
  515DOPC   C1B 6041   0.843  13.974  12.921 -0.2349  0.3302 -0.0056
  515DOPC   D2B 6042   1.142  13.854  12.618  0.0086  0.0195 -0.2460
  515DOPC   C3B 6043   0.899  13.754  12.254 -0.0340  0.3600  0.0591
  515DOPC   C4B 6044   0.680  13.801  11.836 -0.1016  0.1666 -0.0633
  516DOPE   NH3 6045   1.767  15.341  13.500 -0.3074 -0.3378  0.1499
  516DOPE   PO4 6046   1.543  15.167  13.405 -0.0641 -0.1556 -0.0585
  516DOPE   GL1 6047   1.600  15.128  13.040 -0.1265  0.2970 -0.1054
  516DOPE   GL2 6048   1.841  14.969  13.077  0.0927 -0.0194 -0.0505
  516DOPE   C1A 6049   1.742  15.105  12.602 -0.0080 -0.2071 -0.0915
  516DOPE   D2A 6050   1.623  15.395  12.239 -0.1216  0.0231 -0.3949
  516DOPE   C3A 6051   1.282  15.516  11.975  0.0524 -0.0645  0.2663
  516DOPE   C4A 6052   1.139  15.955  11.791 -0.2485 -0.0456  0.1396
  516DOPE   C1B 6053   1.888  14.663  12.653  0.1108 -0.2668 -0.1438
  516DOPE   D2B 6054   2.050  14.337  12.382  0.0700  0.0896 -0.2604
  516DOPE   C3B 6055   1.984  14.499  11.937 -0.0753  0.2287  0.2186
  516DOPE   C4B 6056   2.167  14.919  11.806  0.1139  0.1791 -0.0913
  517DOPC   NC3 6057   0.010  17.495  13.591  0.1679  0.0747 -0.1024
  517DOPC   PO4 6058  -0.112  17.131  13.452 -0.4786  0.1016 -0.0652
  517DOPC   GL1 6059  -0.180  17.092  13.064 -0.0755 -0.1260  0.3820
  517DOPC   GL2 6060  -0.446  17.101  13.024  0.0827 -0.2639  0.4603
  517DOPC   C1A 6061  -0.187  16.687  12.817 -0.3038 -0.0620  0.1062
  517DOPC   D2A 6062  -0.329  16.550  12.399  0.0984 -0.2922 -0.1045
  517DOPC   C3A 6063  -0.531  16.855  12.064  0.0769 -0.0914 -0.1829
  517DOPC   C4A 6064  -0.761  17.250  11.915 -0.2359  0.1097  0.1141
  517DOPC   C1B 6065  -0.826  17.326  12.834  0.1046  0.1367  0.0547
  517DOPC   D2B 6066  -1.159  17.053  12.787  0.0880  0.0150  0.0794
  517DOPC   C3B 6067  -1.266  16.922  12.383  0.0295  0.0207 -0.3310
  517DOPC   C4B 6068  -1.382  17.023  11.960  0.0425  0.0033  0.3902
  518POSM   NC3 6069   8.238  19.301  13.413  0.1134  0.1716  0.1624
  518POSM   PO4 6070   8.295  19.599  13.616  0.3482 -0.0786 -0.2044
  518POSM   AM1 6071   8.323  19.723  13.300  0.0188 -0.0334 -0.3378
  518POSM   AM2 6072   8.560  19.752  13.140  0.2098 -0.3333  0.1937
  518POSM   T1A 6073   8.207  19.806  12.796  0.3271  0.0883  0.0472
  518POSM   C2A 6074   8.435  19.686  12.447  0.2244 -0.2394  0.2393
  518POSM   C3A 6075   8.714  19.818  12.066 -0.0060 -0.1217 -0.1353
  518POSM   C1B 6076   8.676  19.589  12.886 -0.2532  0.0945 -0.1669
  518POSM   D2B 6077   8.950  19.321  12.632 -0.1902  0.1210  0.1210
  518POSM   C3B 6078   8.809  19.307  12.160  0.2250  0.1677  0.0660
  518POSM   C4B 6079   8.440  19.288  11.822 -0.0358 -0.2537 -0.0501
  519POSM   NC3 6080  33.754  22.118  14.268  0.0472  0.2695  0.2952
  519POSM   PO4 6081  33.913  22.040  13.937 -0.0926 -0.0492 -0.1061
  519POSM   AM1 6082  33.877  22.214  13.672  0.2057  0.0132 -0.3411
  519POSM   AM2 6083  34.022  22.419  13.542 -0.1913  0.0772 -0.3412
  519POSM   T1A 6084  33.781  22.149  13.168  0.1072 -0.0753 -0.2812
  519POSM   C2A 6085  33.655  22.057  12.741 -0.1959 -0.2759  0.0711
  519POSM   C3A 6086  33.751  21.826  12.344 -0.1514 -0.0323 -0.1130
  519POSM   C1B 6087  34.229  22.361  13.320  0.0900  0.1684  0.0839
  519POSM   D2B 6088  34.434  22.425  12.922  0.2157 -0.1456 -0.0215
  519POSM   C3B 6089  34.527  22.636  12.501 -0.0848  0.0790  0.0509
  519POSM   C4B 6090  34.570  22.462  12.035 -0.0035  0.1737  0.1050
  520POSM   NC3 6091  34.459  18.515  13.406  0.1931 -0.0589  0.1582
  520POSM   PO4 6092  34.067  18.527  13.384  0.2477  0.3399  0.2592
  520POSM   AM1 6093  34.080  18.473  13.057 -0.2408 -0.2805  0.0023
  520POSM   AM2 6094  33.945  18.316  12.869  0.0003 -0.0420 -0.0378
  520POSM   T1A 6095  34.388  18.439  12.639  0.0320 -0.0302 -0.2895
  520POSM   C2A 6096  34.429  18.533  12.213 -0.1019 -0.2184 -0.0761
  520POSM   C3A 6097  34.505  18.611  11.763 -0.2915  0.1894 -0.5849
  520POSM   C1B 6098  33.961  18.298  12.494  0.1557  0.0814  0.1234
  520POSM   D2B 6099  33.985  18.184  12.046  0.0875  0.1211 -0.0804
  520POSM   C3B 6100  33.832  18.488  11.751 -0.4870  0.4796  0.0892
  520POSM   C4B 6101  33.389  18.569  11.617  0.2371 -0.1560  0.0168
  521POSM   NC3 6102   3.863  24.555  13.940 -0.2060  0.0762  0.1120
  521POSM   PO4 6103   3.754  24.292  13.680  0.5712  0.2146  0.1217
  521POSM   AM1 6104   3.859  24.475  13.447  0.1243 -0.2150  0.2187
  521POSM   AM2 6105   3.756  24.579  13.237 -0.1086  0.0372 -0.2319
  521POSM   T1A 6106   4.191  24.501  13.090  0.0751 -0.4610 -0.3338
  521POSM   C2A 6107   4.417  24.796  12.748  0.0960 -0.2118  0.5799
  521POSM   C3A 6108   4.638  25.156  12.504  0.1045  0.0071 -0.3329
  521POSM   C1B 6109   3.738  24.394  12.958 -0.1256  0.1412  0.2322
  521POSM   D2B 6110   3.705  24.268  12.502 -0.2564  0.0391  0.4208
  521POSM   C3B 6111   3.644  24.403  12.068 -0.0698 -0.0021 -0.1851
  521POSM   C4B 6112   3.863  24.515  11.706  0.1121  0.1913 -0.0623
  522DOPC   NC3 6113  11.716  17.390  14.052  0.3060  0.0478  0.0825
  522DOPC   PO4 6114  11.444  17.108  13.916  0.0141 -0.0341 -0.0391
  522DOPC   GL1 6115  11.300  17.234  13.641  0.0622  0.0861 -0.1097
  522DOPC   GL2 6116  11.552  17.406  13.493 -0.0818 -0.1119 -0.3447
  522DOPC   C1A 6117  11.130  17.594  13.418  0.1627  0.1080 -0.0029
  522DOPC   D2A 6118  10.878  17.597  13.017  0.2150 -0.2118 -0.1741
  522DOPC   C3A 6119  10.892  17.785  12.599  0.2557  0.0661  0.1080
  522DOPC   C4A 6120  10.643  17.991  12.355  0.1844  0.2222 -0.2863
  522DOPC   C1B 6121  11.715  17.289  13.135 -0.0956 -0.2983 -0.0986
  522DOPC   D2B 6122  11.764  17.491  12.710 -0.0291  0.2536 -0.6300
  522DOPC   C3B 6123  11.423  17.699  12.542  0.1694 -0.2476 -0.1288
  522DOPC   C4B 6124  11.100  17.851  12.196  0.1839 -0.1323  0.2812
  523POSM   NC3 6125   9.895  19.415  14.804  0.1397  0.2081 -0.1616
  523POSM   PO4 6126   9.909  19.273  14.479  0.2350  0.1036 -0.1578
  523POSM   AM1 6127   9.919  19.241  14.155  0.0286  0.3821  0.1000
  523POSM   AM2 6128  10.061  19.368  13.986 -0.1360  0.1813  0.0169
  523POSM   T1A 6129   9.609  19.244  13.714 -0.1086  0.2385  0.3692
  523POSM   C2A 6130   9.481  19.420  13.329  0.4898  0.4134  0.1502
  523POSM   C3A 6131   9.353  19.560  12.933 -0.4814 -0.0684 -0.1271
  523POSM   C1B 6132  10.049  19.314  13.618  0.0959 -0.1661  0.0733
  523POSM   D2B 6133   9.973  19.413  13.207 -0.0077  0.2046  0.1044
  523POSM   C3B 6134  10.290  19.474  12.857  0.0054  0.0986  0.1291
  523POSM   C4B 6135  10.621  19.382  12.506 -0.0343 -0.1076 -0.3225
  524DOPS   CNO 6136   3.960  16.983  14.209 -0.1445 -0.1308  0.1040
  524DOPS   PO4 6137   3.993  16.925  13.814  0.1802 -0.1593 -0.1573
  524DOPS   GL1 6138   4.034  16.972  13.478 -0.0059  0.0975  0.5173
  524DOPS   GL2 6139   4.206  17.178  13.338  0.3945  0.0043  0.0650
  524DOPS   C1A 6140   3.861  16.901  13.055 -0.1377  0.0684  0.2260
  524DOPS   D2A 6141   3.962  16.911  12.539  0.2642 -0.0754 -0.0543
  524DOPS   C3A 6142   3.612  17.051  12.202  0.2749 -0.0822 -0.0953
  524DOPS   C4A 6143   3.230  17.010  11.985  0.0195 -0.3883  0.0445
  524DOPS   C1B 6144   4.145  17.247  12.921 -0.0587 -0.1664  0.3540
  524DOPS   D2B 6145   4.221  17.442  12.459 -0.1639  0.0211  0.1571
  524DOPS   C3B 6146   4.030  17.283  12.075  0.0052 -0.1182 -0.3686
  524DOPS   C4B 6147   3.921  17.003  11.677 -0.4938  0.0631  0.1353
  525DOPS   CNO 6148  32.587  16.876  13.811 -0.1685 -0.1178  0.0233
  525DOPS   PO4 6149  32.551  16.702  13.486 -0.0714  0.0452 -0.0481
  525DOPS   GL1 6150  32.695  16.619  13.109 -0.1607  0.1187 -0.5252
  525DOPS   GL2 6151  32.488  16.496  12.990  0.0701 -0.3194  0.1457
  525DOPS   C1A 6152  32.903  16.634  12.690 -0.2763 -0.2341  0.3049
  525DOPS   D2A 6153  32.937  16.736  12.184 -0.2276 -0.3632 -0.0311
  525DOPS   C3A 6154  33.211  16.517  11.828 -0.5089  0.1040  0.0857
  525DOPS   C4A 6155  33.166  16.147  11.550 -0.0766 -0.2195 -0.0915
  525DOPS   C1B 6156  32.671  16.107  12.846  0.1953 -0.3005  0.1157
  525DOPS   D2B 6157  32.810  15.832  12.495  0.0096 -0.1151 -0.1172
  525DOPS   C3B 6158  32.616  15.429  12.571  0.2024  0.5225  0.0195
  525DOPS   C4B 6159  32.530  15.006  12.832  0.4010 -0.1091 -0.1273
  526DOPS   CNO 6160   1.854  17.811  12.825 -0.1432  0.2045  0.3833
  526DOPS   PO4 6161   1.896  17.670  13.167  0.2697 -0.1393  0.0409
  526DOPS   GL1 6162   2.068  17.342  12.822  0.3353  0.1922  0.1031
  526DOPS   GL2 6163   2.235  17.524  12.695 -0.1143 -0.1225  0.0068
  526DOPS   C1A 6164   1.949  17.289  12.400 -0.1678 -0.4186  0.1141
  526DOPS   D2A 6165   1.622  17.192  12.098 -0.0548  0.0084  0.0470
  526DOPS   C3A 6166   1.806  17.101  11.630  0.0253 -0.0807 -0.1039
  526DOPS   C4A 6167   2.143  16.957  11.393 -0.1761  0.0551 -0.0314
  526DOPS   C1B 6168   2.414  17.145  12.489 -0.1025  0.1941  0.1295
  526DOPS   D2B 6169   2.756  17.024  12.271  0.0550  0.4670  0.2639
  526DOPS   C3B 6170   2.684  17.045  11.827 -0.0953  0.0226 -0.0810
  526DOPS   C4B 6171   2.569  16.713  11.529  0.0526  0.1483 -0.1814
  527POSM   NC3 6172   8.817  15.162  14.837  0.1350  0.1760 -0.4140
  527POSM   PO4 6173   8.854  15.410  14.556 -0.1611  0.2334  0.2296
  527POSM   AM1 6174   9.049  15.408  14.273  0.1944 -0.0252  0.0243
  527POSM   AM2 6175   9.279  15.578  14.191 -0.0848 -0.1228 -0.0662
  527POSM   T1A 6176   9.067  15.316  13.843 -0.1946  0.2640  0.2295
  527POSM   C2A 6177   9.338  15.313  13.409 -0.1895 -0.2160 -0.0204
  527POSM   C3A 6178   9.692  15.365  13.140 -0.0881  0.0505  0.1640
  527POSM   C1B 6179   9.183  15.774  13.936  0.0371  0.1180 -0.1958
  527POSM   D2B 6180   9.065  16.185  13.642  0.1668  0.1482 -0.1826
  527POSM   C3B 6181   8.667  16.050  13.488 -0.0794  0.1985 -0.0732
  527POSM   C4B 6182   8.310  16.124  13.197 -0.1502 -0.3411  0.3012
  528DOPE   NH3 6183   4.282  19.623  13.671 -0.2036 -0.0069  0.0154
  528DOPE   PO4 6184   4.607  19.616  13.753  0.0305 -0.0891  0.3046
  528DOPE   GL1 6185   4.541  19.610  13.312  0.3774 -0.4386  0.1264
  528DOPE   GL2 6186   4.584  19.911  13.295  0.0792 -0.1808 -0.2151
  528DOPE   C1A 6187   4.611  19.590  12.889 -0.1711 -0.0259 -0.2640
  528DOPE   D2A 6188   4.450  19.714  12.471  0.0353  0.2868  0.1422
  528DOPE   C3A 6189   4.596  19.979  12.075  0.0352  0.1058  0.0589
  528DOPE   C4A 6190   4.568  20.314  11.738 -0.1245  0.1832  0.2245
  528DOPE   C1B 6191   4.207  19.883  13.015 -0.3788  0.1501  0.0059
  528DOPE   D2B 6192   3.927  19.758  12.693  0.0666  0.0257 -0.0213
  528DOPE   C3B 6193   4.043  19.891  12.306 -0.0221 -0.1110 -0.0237
  528DOPE   C4B 6194   4.074  19.856  11.879 -0.0667  0.0783  0.1035
  529POSM   NC3 6195   5.446  10.047  14.151 -0.1814  0.0950 -0.0767
  529POSM   PO4 6196   5.297  10.378  14.322 -0.0571 -0.1432 -0.1563
  529POSM   AM1 6197   5.174  10.499  14.026 -0.2709  0.0525 -0.2056
  529POSM   AM2 6198   5.051  10.677  13.866  0.0969  0.0415 -0.3112
  529POSM   T1A 6199   5.149  10.360  13.554  0.1433 -0.2427  0.0455
  529POSM   C2A 6200   5.042  10.422  13.144 -0.2444 -0.3100  0.1008
  529POSM   C3A 6201   4.930  10.523  12.750 -0.1018 -0.3410  0.0019
  529POSM   C1B 6202   4.916  10.775  13.565  0.0257  0.0003  0.0870
  529POSM   D2B 6203   4.565  10.712  13.297 -0.2460  0.1094 -0.1815
  529POSM   C3B 6204   4.560  10.336  13.062  0.3312 -0.1275  0.1256
  529POSM   C4B 6205   4.479  10.359  12.591 -0.2146 -0.0636  0.1148
  530DOPS   CNO 6206   5.199  15.515  13.888  0.2013 -0.0172 -0.1461
  530DOPS   PO4 6207   5.451  15.327  14.142 -0.0422 -0.1640 -0.1957
  530DOPS   GL1 6208   5.596  15.277  13.814 -0.0997 -0.2650 -0.1392
  530DOPS   GL2 6209   5.706  14.999  13.858  0.0239  0.1282  0.1880
  530DOPS   C1A 6210   5.763  15.560  13.454 -0.0522  0.0969 -0.0293
  530DOPS   D2A 6211   6.031  15.791  13.107  0.0120  0.2794  0.1466
  530DOPS   C3A 6212   6.333  15.507  12.912 -0.3085  0.3396  0.0715
  530DOPS   C4A 6213   6.513  15.406  12.483 -0.0379 -0.2209 -0.0464
  530DOPS   C1B 6214   5.766  15.039  13.377 -0.0642 -0.1326  0.2056
  530DOPS   D2B 6215   5.961  15.232  13.008  0.1766 -0.1366 -0.0409
  530DOPS   C3B 6216   6.157  15.128  12.602  0.1287 -0.1157 -0.0242
  530DOPS   C4B 6217   6.181  15.122  12.123  0.2541 -0.1649 -0.1065
  531POSM   NC3 6218   7.135  17.013  13.711 -0.3827 -0.0850  0.0517
  531POSM   PO4 6219   7.233  16.699  13.933 -0.0010  0.0303 -0.1278
  531POSM   AM1 6220   7.351  16.574  13.655  0.4077 -0.0869 -0.0621
  531POSM   AM2 6221   7.285  16.383  13.402  0.1076  0.2105  0.2353
  531POSM   T1A 6222   7.742  16.513  13.395  0.0415 -0.2103 -0.1135
  531POSM   C2A 6223   7.887  16.333  12.989  0.0675  0.1075 -0.2914
  531POSM   C3A 6224   8.102  16.014  12.721 -0.1887  0.2981  0.0232
  531POSM   C1B 6225   7.369  16.321  13.162  0.2103 -0.1182  0.1415
  531POSM   D2B 6226   7.332  16.127  12.736 -0.0375  0.0700  0.0305
  531POSM   C3B 6227   7.582  16.152  12.385 -0.1862 -0.2206  0.0053
  531POSM   C4B 6228   7.852  15.949  12.055 -0.0903  0.0527 -0.1110
  532POSM   NC3 6229   3.906  15.421  13.679  0.2591 -0.3052 -0.0400
  532POSM   PO4 6230   3.779  15.018  13.671  0.1012 -0.0934 -0.1625
  532POSM   AM1 6231   3.672  15.077  13.369  0.1058  0.0349 -0.0384
  532POSM   AM2 6232   3.607  15.258  13.149 -0.3234  0.1274 -0.0501
  532POSM   T1A 6233   3.729  14.829  12.923  0.0305 -0.0557  0.0194
  532POSM   C2A 6234   3.813  14.600  12.520  0.0861 -0.1924  0.1294
  532POSM   C3A 6235   3.983  14.623  12.070  0.0252 -0.3336 -0.1392
  532POSM   C1B 6236   3.876  15.335  12.927  0.1214 -0.0758  0.3452
  532POSM   D2B 6237   3.994  15.506  12.522  0.0403  0.1112  0.0284
  532POSM   C3B 6238   3.861  15.480  12.059  0.1687 -0.0435 -0.2764
  532POSM   C4B 6239   3.910  15.098  11.805  0.1435  0.0879  0.0634
  533POSM   NC3 6240  34.339  22.047  14.220 -0.0935 -0.0746  0.2762
  533POSM   PO4 6241  34.315  22.327  13.969 -0.0741  0.3574 -0.2471
  533POSM   AM1 6242  34.514  22.304  13.708  0.0770  0.1434 -0.1326
  533POSM   AM2 6243  34.681  22.493  13.507  0.1211 -0.0302 -0.0349
  533POSM   T1A 6244  34.683  22.005  13.380  0.2157  0.2969  0.0146
  533POSM   C2A 6245  34.964  21.860  13.118  0.2308 -0.5641  0.1127
  533POSM   C3A 6246  35.147  21.902  12.655  0.0671 -0.0068 -0.1148
  533POSM   C1B 6247  34.862  22.528  13.202  0.0898  0.3716  0.1631
  533POSM   D2B 6248  34.987  22.409  12.772  0.2278  0.8987  0.1621
  533POSM   C3B 6249  35.246  22.696  12.650 -0.0547 -0.1939 -0.4329
  533POSM   C4B 6250  35.666  22.743  12.909  0.2201 -0.0658  0.2196
  534DOPE   NH3 6251  10.055  17.452  14.280 -0.0049 -0.0431  0.2069
  534DOPE   PO4 6252   9.972  17.204  14.058  0.0420 -0.1791  0.2661
  534DOPE   GL1 6253  10.127  17.227  13.631  0.0333 -0.1303 -0.0685
  534DOPE   GL2 6254  10.060  17.375  13.415  0.2612 -0.0361  0.1711
  534DOPE   C1A 6255  10.538  17.185  13.440  0.2128 -0.2294 -0.3376
  534DOPE   D2A 6256  10.891  17.139  13.224  0.0775  0.0209  0.2834
  534DOPE   C3A 6257  10.922  16.828  12.870  0.1126 -0.0380 -0.1995
  534DOPE   C4A 6258  10.817  16.413  12.699 -0.1293 -0.0166 -0.2952
  534DOPE   C1B 6259  10.073  17.201  12.979 -0.0793 -0.2568 -0.2421
  534DOPE   D2B 6260   9.966  16.895  12.664  0.1297 -0.3486 -0.2156
  534DOPE   C3B 6261   9.621  16.640  12.465  0.0902  0.1941 -0.0146
  534DOPE   C4B 6262   9.384  16.245  12.601  0.0084 -0.1750  0.2442
  535DOPE   NH3 6263   0.743  19.062  13.295  0.0919  0.2498 -0.0734
  535DOPE   PO4 6264   1.035  19.177  13.283 -0.0966  0.0249  0.3206
  535DOPE   GL1 6265   1.011  19.054  12.867  0.2173 -0.2461  0.1839
  535DOPE   GL2 6266   0.830  18.882  12.775 -0.0211  0.1876  0.2358
  535DOPE   C1A 6267   1.327  18.901  12.530 -0.0497 -0.0215 -0.1127
  535DOPE   D2A 6268   1.449  18.559  12.286  0.3377 -0.2179  0.2286
  535DOPE   C3A 6269   1.183  18.486  11.839  0.0355  0.0489  0.0935
  535DOPE   C4A 6270   0.836  18.684  11.560  0.0072  0.1112  0.0203
  535DOPE   C1B 6271   0.849  19.139  12.371 -0.5713  0.0336 -0.1034
  535DOPE   D2B 6272   1.110  19.453  12.423 -0.1548 -0.0735 -0.1699
  535DOPE   C3B 6273   1.294  19.610  12.001  0.1953 -0.5175 -0.0470
  535DOPE   C4B 6274   1.409  19.733  11.564  0.0728  0.2676  0.2749
  536DOPS   CNO 6275  13.111  11.515  14.806 -0.2620  0.2069 -0.0701
  536DOPS   PO4 6276  12.822  11.313  14.951  0.2134 -0.2268 -0.3491
  536DOPS   GL1 6277  12.718  11.306  14.520 -0.3785  0.0136 -0.3355
  536DOPS   GL2 6278  12.478  11.180  14.440  0.0913 -0.0255 -0.0695
  536DOPS   C1A 6279  12.674  11.478  14.118  0.0942  0.0319 -0.0842
  536DOPS   D2A 6280  12.505  11.657  13.739  0.0429 -0.0726 -0.4017
  536DOPS   C3A 6281  12.488  11.480  13.297  0.0487 -0.2167 -0.0334
  536DOPS   C4A 6282  12.129  11.512  13.035 -0.0069 -0.1829  0.2083
  536DOPS   C1B 6283  12.158  10.926  14.214  0.2041 -0.1049  0.3073
  536DOPS   D2B 6284  11.963  10.615  13.889  0.2156 -0.1630  0.2938
  536DOPS   C3B 6285  11.765  10.778  13.503  0.1524 -0.0029 -0.3200
  536DOPS   C4B 6286  11.349  10.923  13.615 -0.0636  0.0799 -0.1132
  537DOPS   CNO 6287   0.386  16.311  13.380 -0.0003  0.0432  0.3844
  537DOPS   PO4 6288   0.724  16.391  13.437 -0.1030 -0.3346  0.1911
  537DOPS   GL1 6289   0.593  16.321  13.000  0.3017  0.0850  0.1715
  537DOPS   GL2 6290   0.560  16.524  12.764 -0.1855  0.1484  0.1207
  537DOPS   C1A 6291   1.022  16.291  12.786  0.0885  0.0148 -0.0574
  537DOPS   D2A 6292   1.281  16.467  12.491 -0.3607  0.2929 -0.0401
  537DOPS   C3A 6293   1.724  16.347  12.391 -0.2145 -0.1993 -0.0223
  537DOPS   C4A 6294   2.038  16.283  12.099  0.1007  0.2328 -0.0177
  537DOPS   C1B 6295   0.167  16.284  12.687  0.1824 -0.0393  0.0075
  537DOPS   D2B 6296  -0.049  16.093  12.350  0.2429  0.1314  0.1234
  537DOPS   C3B 6297  -0.038  16.467  12.042 -0.0995 -0.1912 -0.0273
  537DOPS   C4B 6298  -0.313  16.571  11.688  0.3021 -0.1267  0.0540
  538DOPE   NH3 6299   3.856  21.310  13.820 -0.0685  0.2332 -0.1526
  538DOPE   PO4 6300   3.932  21.635  13.679 -0.1035  0.1524  0.1219
  538DOPE   GL1 6301   3.977  21.644  13.254 -0.4499 -0.2346  0.3401
  538DOPE   GL2 6302   3.682  21.532  13.177  0.0282  0.1294 -0.1380
  538DOPE   C1A 6303   4.183  21.622  12.825 -0.0017 -0.1901 -0.1537
  538DOPE   D2A 6304   4.062  21.658  12.338  0.1411  0.0149 -0.2930
  538DOPE   C3A 6305   4.327  21.468  12.097  0.1771 -0.0495  0.1367
  538DOPE   C4A 6306   4.654  21.343  11.762  0.1676 -0.2101 -0.0263
  538DOPE   C1B 6307   3.740  21.473  12.753 -0.3471  0.0827  0.0396
  538DOPE   D2B 6308   3.565  21.437  12.325  0.0820 -0.0435 -0.0499
  538DOPE   C3B 6309   3.805  21.487  11.930 -0.1950  0.0814  0.2364
  538DOPE   C4B 6310   3.716  21.627  11.526 -0.0128  0.0123  0.2468
  539DOPC   NC3 6311   5.333  23.248  13.733  0.1170 -0.0545 -0.1026
  539DOPC   PO4 6312   5.102  22.955  13.733  0.2565 -0.0532  0.1573
  539DOPC   GL1 6313   5.303  22.830  13.460  0.2437  0.3871 -0.0618
  539DOPC   GL2 6314   5.575  22.832  13.545  0.1838 -0.0931 -0.1366
  539DOPC   C1A 6315   5.082  22.680  13.045 -0.5081  0.1868  0.2177
  539DOPC   D2A 6316   4.671  22.474  12.909  0.0906  0.1737 -0.0909
  539DOPC   C3A 6317   4.403  22.820  12.702 -0.1460  0.2710 -0.0496
  539DOPC   C4A 6318   4.529  22.952  12.276  0.2179  0.0786 -0.0550
  539DOPC   C1B 6319   5.571  22.751  13.081  0.2622  0.2774 -0.1869
  539DOPC   D2B 6320   5.384  22.636  12.668  0.0294 -0.2308  0.3209
  539DOPC   C3B 6321   5.011  22.799  12.446  0.4170 -0.0863 -0.0335
  539DOPC   C4B 6322   4.970  22.946  12.015  0.1475 -0.1199  0.2203
  540DOPE   NH3 6323   2.768  18.689  13.635  0.1621  0.0498  0.0238
  540DOPE   PO4 6324   2.963  18.545  13.468  0.1454  0.1361  0.0809
  540DOPE   GL1 6325   3.122  18.786  13.166  0.1750 -0.1148 -0.3155
  540DOPE   GL2 6326   2.991  19.036  13.178  0.0828 -0.3279  0.0915
  540DOPE   C1A 6327   3.038  18.602  12.731  0.0467 -0.1246 -0.1091
  540DOPE   D2A 6328   2.968  18.771  12.299  0.0322 -0.0300 -0.0756
  540DOPE   C3A 6329   2.732  18.605  11.958  0.1234  0.3522  0.0056
  540DOPE   C4A 6330   2.580  18.302  11.631 -0.1403  0.1350 -0.0376
  540DOPE   C1B 6331   3.126  19.135  12.756 -0.0855 -0.1544 -0.0180
  540DOPE   D2B 6332   3.106  19.306  12.297  0.0236 -0.2596  0.1856
  540DOPE   C3B 6333   3.359  19.506  11.964 -0.2498 -0.1130  0.1223
  540DOPE   C4B 6334   3.287  19.834  11.620  0.4682 -0.0768 -0.1677
  541DOPC   NC3 6335   0.832  13.021  13.727  0.1354 -0.1169 -0.4628
  541DOPC   PO4 6336   0.853  12.622  13.830  0.0669 -0.0184  0.1658
  541DOPC   GL1 6337   0.772  12.523  13.463  0.0334 -0.2207 -0.4083
  541DOPC   GL2 6338   0.684  12.303  13.450 -0.1240  0.0311 -0.0236
  541DOPC   C1A 6339   0.982  12.480  13.079  0.0317  0.1476  0.0311
  541DOPC   D2A 6340   1.398  12.596  12.977  0.0671  0.0167 -0.3825
  541DOPC   C3A 6341   1.806  12.491  12.734 -0.0454 -0.5133  0.2081
  541DOPC   C4A 6342   1.915  12.426  12.241  0.0957  0.1132 -0.1007
  541DOPC   C1B 6343   0.639  12.130  13.073  0.0624  0.2874  0.1508
  541DOPC   D2B 6344   0.684  11.639  12.996  0.2605 -0.0613  0.0933
  541DOPC   C3B 6345   0.858  11.486  12.646  0.1326  0.1365  0.0144
  541DOPC   C4B 6346   0.870  11.421  12.197 -0.0425  0.1776  0.0536
  542DOPE   NH3 6347   9.344  18.284  14.030  0.0614  0.0638  0.1458
  542DOPE   PO4 6348   9.645  18.415  13.929 -0.0942  0.1460  0.2237
  542DOPE   GL1 6349   9.695  18.295  13.536  0.4584  0.3173 -0.1866
  542DOPE   GL2 6350   9.595  18.554  13.452 -0.0565 -0.1951 -0.0246
  542DOPE   C1A 6351   9.427  18.137  13.214 -0.0517 -0.1045  0.1861
  542DOPE   D2A 6352   8.997  18.163  13.071  0.0746 -0.1040 -0.0654
  542DOPE   C3A 6353   8.568  17.925  13.132  0.0545 -0.3314 -0.0413
  542DOPE   C4A 6354   8.155  17.855  13.086 -0.1674  0.1112  0.2658
  542DOPE   C1B 6355   9.652  18.917  13.165  0.1018  0.2806 -0.2332
  542DOPE   D2B 6356   9.693  19.184  12.813  0.1268 -0.4438 -0.2121
  542DOPE   C3B 6357   9.416  19.266  12.489  0.0379  0.1781  0.2324
  542DOPE   C4B 6358   9.183  19.583  12.350 -0.2219 -0.1837  0.1950
  543DOPE   NH3 6359   7.377  20.146  12.905 -0.3107 -0.1018 -0.1320
  543DOPE   PO4 6360   7.522  19.922  13.034 -0.0836 -0.2972 -0.1826
  543DOPE   GL1 6361   7.773  19.957  12.717 -0.1921 -0.1538  0.3414
  543DOPE   GL2 6362   7.813  20.210  12.663  0.0733 -0.1945  0.1016
  543DOPE   C1A 6363   7.482  20.010  12.356  0.1493 -0.1772 -0.1484
  543DOPE   D2A 6364   7.527  20.061  11.879  0.1311 -0.1877  0.3726
  543DOPE   C3A 6365   7.692  19.689  11.617 -0.1215 -0.0365  0.2561
  543DOPE   C4A 6366   7.633  19.444  11.190 -0.0871 -0.0566  0.1554
  543DOPE   C1B 6367   8.169  20.183  12.411 -0.0823 -0.0871  0.4404
  543DOPE   D2B 6368   8.313  20.365  11.981  0.0120 -0.0289  0.1378
  543DOPE   C3B 6369   8.068  20.139  11.649  0.1294 -0.1977  0.0104
  543DOPE   C4B 6370   7.994  19.881  11.262  0.1422 -0.1163  0.2645
  544DOPC   NC3 6371   2.991   8.273  14.152  0.0321  0.1390 -0.1685
  544DOPC   PO4 6372   3.273   8.532  14.380  0.3202  0.2453 -0.0024
  544DOPC   GL1 6373   3.330   8.536  13.969 -0.0483 -0.0055 -0.3481
  544DOPC   GL2 6374   3.286   8.374  13.775 -0.4185  0.0977 -0.1875
  544DOPC   C1A 6375   3.466   8.849  13.640 -0.0007 -0.4322  0.2512
  544DOPC   D2A 6376   3.522   9.292  13.511  0.1997 -0.2973  0.2277
  544DOPC   C3A 6377   3.433   9.442  13.095  0.0154 -0.1768  0.0662
  544DOPC   C4A 6378   3.313   9.575  12.592  0.0947 -0.0646 -0.2118
  544DOPC   C1B 6379   3.462   8.373  13.380 -0.2357  0.0478 -0.1960
  544DOPC   D2B 6380   3.582   8.484  12.949 -0.0494 -0.0955  0.2801
  544DOPC   C3B 6381   3.382   8.700  12.660  0.2876  0.0896 -0.2033
  544DOPC   C4B 6382   3.193   8.442  12.327 -0.0367  0.2850 -0.4304
  545DOPC   NC3 6383  10.197  16.028  14.618  0.1112 -0.4492  0.1977
  545DOPC   PO4 6384  10.232  15.642  14.605 -0.0429 -0.1598 -0.2001
  545DOPC   GL1 6385  10.347  15.424  14.281  0.1154  0.0444  0.2582
  545DOPC   GL2 6386  10.352  15.134  14.413 -0.2725  0.2278 -0.1862
  545DOPC   C1A 6387  10.107  15.365  13.934  0.0170  0.0538  0.0633
  545DOPC   D2A 6388  10.252  15.379  13.525 -0.1059 -0.1349  0.2150
  545DOPC   C3A 6389  10.217  15.027  13.272  0.4270  0.0683 -0.0992
  545DOPC   C4A 6390  10.081  14.648  13.009  0.2776 -0.1304  0.0578
  545DOPC   C1B 6391   9.973  14.975  14.218 -0.0946  0.0781 -0.4214
  545DOPC   D2B 6392   9.805  14.590  13.952  0.2211 -0.1416  0.0767
  545DOPC   C3B 6393   9.877  14.337  14.361 -0.0032  0.3467 -0.3632
  545DOPC   C4B 6394  10.064  13.977  14.442  0.1718  0.1818  0.1035
  546DOPE   NH3 6395   7.147  15.131  14.551 -0.0499  0.3472 -0.3696
  546DOPE   PO4 6396   7.320  15.109  14.308  0.0722 -0.0031 -0.0186
  546DOPE   GL1 6397   7.555  14.882  14.007  0.2825  0.1482  0.1362
  546DOPE   GL2 6398   7.728  15.137  13.893  0.0436  0.4339 -0.2891
  546DOPE   C1A 6399   7.696  14.548  13.800 -0.3899  0.1135 -0.2179
  546DOPE   D2A 6400   7.528  14.305  13.479  0.2857  0.0569  0.0912
  546DOPE   C3A 6401   7.060  14.316  13.662  0.0249 -0.2384  0.1091
  546DOPE   C4A 6402   6.633  14.464  13.725  0.0296  0.0832 -0.1338
  546DOPE   C1B 6403   7.826  15.303  13.479 -0.0538  0.2144 -0.1850
  546DOPE   D2B 6404   7.825  15.278  13.028 -0.1380  0.1963 -0.2393
  546DOPE   C3B 6405   8.029  15.421  12.582 -0.1998  0.1755  0.0918
  546DOPE   C4B 6406   7.855  15.457  12.135  0.2435 -0.1970 -0.3161
  547DOPE   NH3 6407   7.493  19.532  13.374 -0.0829  0.1485 -0.0140
  547DOPE   PO4 6408   7.803  19.625  13.408  0.0200 -0.2137 -0.0608
  547DOPE   GL1 6409   7.958  19.537  13.109  0.0225  0.2091  0.1096
  547DOPE   GL2 6410   7.767  19.527  12.902  0.0247 -0.0128 -0.1860
  547DOPE   C1A 6411   8.191  19.299  12.749  0.1259 -0.1131  0.0011
  547DOPE   D2A 6412   8.247  19.214  12.291 -0.1860  0.0126 -0.2804
  547DOPE   C3A 6413   7.915  19.303  11.977  0.0460  0.0558 -0.1150
  547DOPE   C4A 6414   7.535  19.561  12.076 -0.2545 -0.0354 -0.0702
  547DOPE   C1B 6415   7.813  19.531  12.511  0.0408  0.1171 -0.0816
  547DOPE   D2B 6416   7.899  19.874  12.181 -0.3233 -0.0526  0.1948
  547DOPE   C3B 6417   8.243  19.675  11.949 -0.0403  0.1764 -0.0123
  547DOPE   C4B 6418   8.509  19.813  11.613  0.0370 -0.0249  0.0759
  548DOPS   CNO 6419   2.309  15.068  13.716  0.3774  0.0266  0.0033
  548DOPS   PO4 6420   2.355  14.942  13.392 -0.1074  0.0316  0.1028
  548DOPS   GL1 6421   2.460  15.038  13.094 -0.5428 -0.1255  0.0237
  548DOPS   GL2 6422   2.701  14.906  13.031  0.1546  0.1026 -0.1122
  548DOPS   C1A 6423   2.603  15.428  12.876 -0.1114 -0.0000  0.0550
  548DOPS   D2A 6424   2.551  15.772  12.529 -0.2045  0.1479  0.1934
  548DOPS   C3A 6425   2.570  15.932  12.100  0.3520  0.1087 -0.0355
  548DOPS   C4A 6426   2.460  16.263  11.826 -0.0623 -0.4468  0.2335
  548DOPS   C1B 6427   2.826  14.843  12.644 -0.1588 -0.0314  0.2447
  548DOPS   D2B 6428   2.910  14.765  12.226 -0.4408  0.0712 -0.2606
  548DOPS   C3B 6429   2.966  14.274  12.154 -0.1474 -0.3054  0.1212
  548DOPS   C4B 6430   3.265  13.943  12.301  0.1459  0.0509 -0.0489
  549POSM   NC3 6431   6.092  25.192  13.814 -0.4745 -0.1397 -0.3879
  549POSM   PO4 6432   5.867  25.025  13.520  0.2071  0.0950 -0.1775
  549POSM   AM1 6433   5.875  24.906  13.221 -0.2538 -0.1913  0.0077
  549POSM   AM2 6434   5.959  24.979  12.986  0.2078  0.0294 -0.0330
  549POSM   T1A 6435   5.592  24.700  12.831  0.0819 -0.2579 -0.1616
  549POSM   C2A 6436   5.378  24.649  12.374 -0.2482  0.2703  0.0136
  549POSM   C3A 6437   5.084  24.757  11.984 -0.0846  0.1046 -0.1323
  549POSM   C1B 6438   6.057  24.870  12.693 -0.0072 -0.0676 -0.0095
  549POSM   D2B 6439   6.002  24.563  12.290  0.2135  0.2361 -0.2545
  549POSM   C3B 6440   6.054  24.355  11.860 -0.1105 -0.3737  0.1325
  549POSM   C4B 6441   6.113  24.327  11.406  0.3449 -0.0124 -0.1046
  550DOPC   NC3 6442  34.550  19.142  13.316 -0.2941 -0.1124  0.0314
  550DOPC   PO4 6443  34.608  19.432  13.609 -0.1198  0.1322  0.1035
  550DOPC   GL1 6444  34.436  19.641  13.347 -0.0314  0.3927 -0.1175
  550DOPC   GL2 6445  34.595  19.566  13.093 -0.0116 -0.0649 -0.0530
  550DOPC   C1A 6446  34.093  19.783  13.090  0.2300  0.0733  0.1916
  550DOPC   D2A 6447  33.855  20.047  12.769 -0.1213 -0.2156 -0.1376
  550DOPC   C3A 6448  33.399  20.110  12.505  0.1733 -0.3483 -0.0383
  550DOPC   C4A 6449  33.060  20.433  12.553 -0.1159 -0.2262 -0.0534
  550DOPC   C1B 6450  34.658  19.272  12.723 -0.0273 -0.0946 -0.2750
  550DOPC   D2B 6451  34.450  19.250  12.299 -0.2693 -0.2410 -0.1771
  550DOPC   C3B 6452  34.642  19.322  11.875 -0.2313  0.0655 -0.1231
  550DOPC   C4B 6453  34.730  19.002  11.566  0.0328  0.0857 -0.3866
  551DOPC   NC3 6454   3.240  16.440  13.378 -0.0605 -0.0782 -0.0328
  551DOPC   PO4 6455   3.513  16.166  13.423 -0.0545  0.3597 -0.0110
  551DOPC   GL1 6456   3.462  16.231  12.996 -0.1676  0.0500 -0.1977
  551DOPC   GL2 6457   3.550  16.535  12.986 -0.0383  0.0612 -0.0169
  551DOPC   C1A 6458   3.404  16.275  12.512  0.0308  0.2724 -0.0235
  551DOPC   D2A 6459   3.021  16.071  12.242 -0.0530  0.1129  0.2011
  551DOPC   C3A 6460   3.009  15.621  12.061 -0.3196 -0.3391  0.0934
  551DOPC   C4A 6461   3.092  15.305  11.665  0.0319 -0.0952 -0.0261
  551DOPC   C1B 6462   3.482  16.770  12.610 -0.0502  0.0441 -0.0071
  551DOPC   D2B 6463   3.758  16.558  12.225  0.4158  0.2518  0.0490
  551DOPC   C3B 6464   3.558  16.710  11.798 -0.1949 -0.0532 -0.1776
  551DOPC   C4B 6465   3.190  16.755  11.494 -0.3194 -0.0965 -0.3002
  552DOPS   CNO 6466   2.332  12.401  14.347  0.1018 -0.2489 -0.3703
  552DOPS   PO4 6467   2.114  12.679  14.224  0.2976  0.0254 -0.1420
  552DOPS   GL1 6468   1.814  12.490  13.900 -0.0747  0.0155  0.4056
  552DOPS   GL2 6469   1.893  12.619  13.629  0.0654 -0.1381  0.1382
  552DOPS   C1A 6470   1.956  12.104  13.626  0.1793 -0.2005 -0.1019
  552DOPS   D2A 6471   2.166  11.844  13.308  0.0574  0.0236 -0.1604
  552DOPS   C3A 6472   2.556  11.848  13.120  0.2736 -0.2885 -0.0847
  552DOPS   C4A 6473   2.819  11.574  12.849  0.2938  0.2125 -0.0786
  552DOPS   C1B 6474   1.766  12.853  13.255  0.0009  0.0942  0.1793
  552DOPS   D2B 6475   1.721  13.031  12.869 -0.1100  0.4201  0.0615
  552DOPS   C3B 6476   1.952  13.308  12.665 -0.0208 -0.1031 -0.1965
  552DOPS   C4B 6477   2.094  13.545  12.280 -0.0325  0.1259 -0.0135
  553DOPC   NC3 6478   7.472  20.857  13.347 -0.0043 -0.0898  0.3474
  553DOPC   PO4 6479   7.289  20.569  13.183  0.1001 -0.2389 -0.1493
  553DOPC   GL1 6480   7.474  20.865  12.919  0.0776 -0.2261 -0.0880
  553DOPC   GL2 6481   7.235  21.128  12.831  0.1289  0.1297  0.2679
  553DOPC   C1A 6482   7.626  20.646  12.496  0.0755  0.0622  0.3624
  553DOPC   D2A 6483   7.764  20.389  12.127 -0.2403  0.2414 -0.2361
  553DOPC   C3A 6484   7.895  20.727  11.846  0.2009  0.0370 -0.1728
  553DOPC   C4A 6485   7.975  21.140  11.762  0.1286  0.2304  0.0437
  553DOPC   C1B 6486   7.453  21.247  12.451 -0.1989 -0.0937 -0.1791
  553DOPC   D2B 6487   7.830  21.498  12.463  0.2602  0.1393 -0.1380
  553DOPC   C3B 6488   7.927  21.564  11.994  0.2283  0.0788  0.2317
  553DOPC   C4B 6489   8.326  21.464  11.757  0.1554 -0.0870 -0.0755
  554POSM   NC3 6490   9.622  13.571  15.096  0.3185 -0.2192  0.1822
  554POSM   PO4 6491   9.848  13.292  14.930 -0.3219  0.1540  0.2663
  554POSM   AM1 6492   9.882  13.468  14.646 -0.1810 -0.2277 -0.0763
  554POSM   AM2 6493   9.661  13.612  14.507  0.0672 -0.1428  0.0047
  554POSM   T1A 6494   9.943  13.366  14.132 -0.1358 -0.1907  0.1356
  554POSM   C2A 6495  10.142  13.498  13.697 -0.1999 -0.0184 -0.0445
  554POSM   C3A 6496  10.374  13.557  13.286 -0.4877 -0.0075  0.0297
  554POSM   C1B 6497   9.437  13.467  14.240  0.0225  0.1444 -0.0098
  554POSM   D2B 6498   9.074  13.506  13.982 -0.0858 -0.2187  0.1324
  554POSM   C3B 6499   9.068  13.417  13.523  0.0577  0.0746  0.2153
  554POSM   C4B 6500   9.270  13.592  13.130  0.0386  0.1227  0.2216
  555DOPC   NC3 6501   4.143  12.704  14.357  0.2912  0.3369  0.0959
  555DOPC   PO4 6502   4.483  12.555  14.385 -0.0200  0.2361 -0.3133
  555DOPC   GL1 6503   4.506  12.425  13.953 -0.1449 -0.2357 -0.1176
  555DOPC   GL2 6504   4.325  12.640  13.909 -0.2659  0.1609  0.0343
  555DOPC   C1A 6505   4.233  12.227  13.662 -0.0358  0.0323 -0.2524
  555DOPC   D2A 6506   4.405  12.184  13.158 -0.0779  0.1450  0.2712
  555DOPC   C3A 6507   4.334  11.877  12.812  0.1327 -0.0728  0.1042
  555DOPC   C4A 6508   4.662  11.838  12.439 -0.1078 -0.4063  0.3069
  555DOPC   C1B 6509   4.347  12.636  13.451  0.2198  0.2688 -0.1986
  555DOPC   D2B 6510   4.336  12.845  13.017 -0.0125 -0.0880 -0.0224
  555DOPC   C3B 6511   4.282  12.801  12.560 -0.2721  0.0501 -0.0850
  555DOPC   C4B 6512   4.278  12.579  12.154  0.1930  0.0731 -0.3483
  556DOPC   NC3 6513   8.101  12.588  14.016  0.0700 -0.0169  0.1972
  556DOPC   PO4 6514   8.067  12.687  14.392 -0.0958 -0.0595 -0.0122
  556DOPC   GL1 6515   7.826  12.946  14.129  0.0661  0.2722 -0.0540
  556DOPC   GL2 6516   7.627  12.902  14.082 -0.1257 -0.2107 -0.0156
  556DOPC   C1A 6517   7.892  13.061  13.652  0.0154 -0.3543 -0.0853
  556DOPC   D2A 6518   8.198  13.049  13.317  0.0590 -0.1950  0.1381
  556DOPC   C3A 6519   8.481  12.703  13.213 -0.0302  0.2374 -0.1051
  556DOPC   C4A 6520   8.908  12.441  13.276  0.1417 -0.2044 -0.0791
  556DOPC   C1B 6521   7.598  12.613  13.697 -0.1465 -0.1059 -0.2381
  556DOPC   D2B 6522   7.399  12.461  13.275 -0.0885  0.2017  0.1664
  556DOPC   C3B 6523   7.277  12.596  12.794 -0.1485  0.5777  0.0043
  556DOPC   C4B 6524   7.514  12.784  12.521  0.0088 -0.3343  0.1481
  557DOPE   NH3 6525   5.771  12.554  14.291  0.3141 -0.0165 -0.0536
  557DOPE   PO4 6526   5.468  12.454  14.242 -0.0539 -0.0666 -0.1691
  557DOPE   GL1 6527   5.365  12.306  13.891 -0.2348 -0.2764 -0.1090
  557DOPE   GL2 6528   5.325  12.018  13.929  0.2465 -0.0644  0.0372
  557DOPE   C1A 6529   5.325  12.182  13.435 -0.0107  0.1594 -0.2547
  557DOPE   D2A 6530   5.510  12.185  13.016 -0.3062  0.1200 -0.0248
  557DOPE   C3A 6531   5.581  12.431  12.666  0.4069 -0.0178  0.1427
  557DOPE   C4A 6532   5.737  12.318  12.274  0.2233  0.0022  0.0136
  557DOPE   C1B 6533   4.915  12.140  13.755 -0.3406 -0.0376  0.1410
  557DOPE   D2B 6534   4.845  12.559  13.652  0.0119 -0.0177 -0.0369
  557DOPE   C3B 6535   4.822  12.532  13.192 -0.3125 -0.2680 -0.1875
  557DOPE   C4B 6536   4.608  12.458  12.806 -0.0774 -0.0669 -0.2946
  558POSM   NC3 6537   9.301  11.180  15.047  0.0821 -0.1328  0.0125
  558POSM   PO4 6538   9.152  11.487  14.879  0.0092  0.1638  0.1189
  558POSM   AM1 6539   9.293  11.382  14.607 -0.3022 -0.2188  0.4876
  558POSM   AM2 6540   9.530  11.333  14.522  0.0747 -0.0238  0.1538
  558POSM   T1A 6541   9.180  11.145  14.139 -0.0605 -0.2415 -0.1479
  558POSM   C2A 6542   9.226  11.165  13.624  0.0418 -0.2694 -0.3406
  558POSM   C3A 6543   9.257  10.925  13.193  0.1145 -0.0193 -0.3249
  558POSM   C1B 6544   9.604  11.457  14.167  0.1957  0.0007  0.1012
  558POSM   D2B 6545   9.731  11.476  13.752  0.1472  0.0941  0.2785
  558POSM   C3B 6546   9.854  11.422  13.316 -0.0019 -0.1986  0.1521
  558POSM   C4B 6547  10.136  11.288  12.961 -0.4228  0.1515 -0.0964
  559POSM   NC3 6548  34.622  20.086  13.623  0.1377  0.1633 -0.0945
  559POSM   PO4 6549  34.845  19.900  13.420 -0.1812 -0.2422 -0.2696
  559POSM   AM1 6550  34.936  19.946  13.124 -0.0346  0.1731 -0.3297
  559POSM   AM2 6551  35.064  19.806  12.966 -0.1040  0.1712  0.1135
  559POSM   T1A 6552  34.895  20.220  12.708 -0.0593  0.1391 -0.1072
  559POSM   C2A 6553  34.915  20.507  12.399  0.1035 -0.0599  0.2547
  559POSM   C3A 6554  35.108  20.722  12.022 -0.1145  0.0670  0.0677
  559POSM   C1B 6555  34.870  19.679  12.679  0.1962  0.2030 -0.0118
  559POSM   D2B 6556  34.772  19.611  12.232  0.0057 -0.1770 -0.2055
  559POSM   C3B 6557  34.596  19.816  11.816 -0.1652 -0.2404 -0.2693
  559POSM   C4B 6558  34.498  19.923  11.374  0.0663  0.0017 -0.0029
  560DOPE   NH3 6559   2.011  11.219  13.658 -0.2541 -0.1003  0.1270
  560DOPE   PO4 6560   2.092  11.074  13.931 -0.0636  0.2092  0.0879
  560DOPE   GL1 6561   1.913  10.756  13.670 -0.1047  0.1456 -0.1745
  560DOPE   GL2 6562   1.601  10.870  13.717 -0.0398  0.1044 -0.0410
  560DOPE   C1A 6563   2.207  10.839  13.320  0.0244 -0.0298 -0.1166
  560DOPE   D2A 6564   2.614  10.658  13.117 -0.0566  0.4834  0.1628
  560DOPE   C3A 6565   2.852  10.284  13.216 -0.0777  0.0827  0.2677
  560DOPE   C4A 6566   3.266  10.076  13.205  0.1145 -0.1322 -0.0892
  560DOPE   C1B 6567   1.683  10.731  13.288 -0.0423  0.1494  0.4246
  560DOPE   D2B 6568   1.852  10.666  12.866  0.1414 -0.1419  0.0082
  560DOPE   C3B 6569   1.963  10.496  12.445  0.1310  0.4286  0.0295
  560DOPE   C4B 6570   2.158  10.415  12.038 -0.0883  0.0555  0.1240
  561POSM   NC3 6571   1.400  11.110  14.111 -0.1018  0.0400  0.2400
  561POSM   PO4 6572   1.660  11.390  13.946  0.1617  0.2707  0.2815
  561POSM   AM1 6573   1.593  11.462  13.645 -0.1082 -0.0998 -0.3649
  561POSM   AM2 6574   1.600  11.362  13.396  0.0524 -0.3462  0.0992
  561POSM   T1A 6575   1.631  11.837  13.313 -0.1678 -0.0929  0.2457
  561POSM   C2A 6576   1.633  11.993  12.852  0.0175 -0.1940 -0.1205
  561POSM   C3A 6577   1.719  12.005  12.405  0.4180  0.2954  0.3040
  561POSM   C1B 6578   1.827  11.451  13.173 -0.1511 -0.1425 -0.0623
  561POSM   D2B 6579   2.112  11.739  12.814 -0.1358 -0.0240 -0.3486
  561POSM   C3B 6580   2.448  11.635  12.496  0.1029  0.4075  0.0948
  561POSM   C4B 6581   2.844  11.469  12.300  0.1667  0.0562 -0.0314
  562DOPE   NH3 6582   3.737  23.829  13.690  0.0735  0.1051 -0.2586
  562DOPE   PO4 6583   3.504  23.809  13.474 -0.2130  0.3243 -0.1621
  562DOPE   GL1 6584   3.396  23.771  13.086 -0.2320  0.0074 -0.1320
  562DOPE   GL2 6585   3.553  23.696  12.859 -0.1250  0.0319 -0.1661
  562DOPE   C1A 6586   3.345  24.124  12.827  0.1057 -0.0039  0.2043
  562DOPE   D2A 6587   2.988  24.495  12.837  0.0725 -0.0499  0.0840
  562DOPE   C3A 6588   3.158  24.799  12.519 -0.2622 -0.0324 -0.3656
  562DOPE   C4A 6589   3.273  24.750  12.079 -0.0326  0.0984  0.1669
  562DOPE   C1B 6590   3.917  23.830  12.581  0.1239  0.1407 -0.1633
  562DOPE   D2B 6591   4.074  24.067  12.205 -0.0110  0.0650 -0.3570
  562DOPE   C3B 6592   4.284  24.348  11.991 -0.2869  0.3140 -0.3117
  562DOPE   C4B 6593   4.763  24.357  11.892  0.1590  0.1421 -0.1365
  563POSM   NC3 6594  34.022  15.824  14.103  0.0280  0.2942 -0.2638
  563POSM   PO4 6595  34.165  15.495  13.925 -0.1729 -0.1291 -0.1217
  563POSM   AM1 6596  34.094  15.318  13.644 -0.4923  0.4852  0.1094
  563POSM   AM2 6597  34.189  15.115  13.483 -0.0594 -0.0906  0.0172
  563POSM   T1A 6598  33.790  15.393  13.231  0.2216  0.0993  0.0516
  563POSM   C2A 6599  33.365  15.519  13.171  0.3017  0.0824 -0.1764
  563POSM   C3A 6600  33.044  15.851  13.219  0.2473 -0.3722 -0.2564
  563POSM   C1B 6601  34.012  14.962  13.186 -0.2218 -0.2014 -0.1602
  563POSM   D2B 6602  33.777  14.689  12.906 -0.1390  0.0952 -0.0441
  563POSM   C3B 6603  33.540  14.748  12.515  0.2396  0.3914 -0.1992
  563POSM   C4B 6604  33.237  14.863  12.196 -0.0200  0.0058 -0.0877
  564DOPS   CNO 6605   8.618  12.208  14.361  0.0560  0.0492  0.1567
  564DOPS   PO4 6606   8.555  12.083  14.679 -0.0084  0.0114  0.1793
  564DOPS   GL1 6607   8.389  11.771  14.317 -0.0093  0.0122 -0.1154
  564DOPS   GL2 6608   8.556  11.532  14.323  0.3936 -0.1462  0.3268
  564DOPS   C1A 6609   8.564  11.869  13.919  0.1186  0.1029 -0.2198
  564DOPS   D2A 6610   8.602  11.614  13.568  0.0078 -0.1507  0.2126
  564DOPS   C3A 6611   8.958  11.545  13.320  0.0928 -0.0407  0.1915
  564DOPS   C4A 6612   9.360  11.497  13.243 -0.3510  0.0505 -0.4060
  564DOPS   C1B 6613   8.275  11.416  13.953  0.2308  0.5009  0.0179
  564DOPS   D2B 6614   8.023  11.506  13.537 -0.1083 -0.1729 -0.1625
  564DOPS   C3B 6615   8.061  11.660  13.104  0.0441  0.0480 -0.2346
  564DOPS   C4B 6616   7.858  11.804  12.707 -0.1476  0.3320  0.0037
  565DOPC   NC3 6617   1.722  20.790  14.174  0.2379  0.2427 -0.2766
  565DOPC   PO4 6618   1.491  20.912  13.902 -0.1944 -0.1822 -0.0690
  565DOPC   GL1 6619   1.649  20.860  13.553 -0.1620  0.0172  0.0459
  565DOPC   GL2 6620   1.420  21.012  13.381  0.1653 -0.0868 -0.0130
  565DOPC   C1A 6621   1.877  20.978  13.189  0.0018  0.1262 -0.1338
  565DOPC   D2A 6622   2.327  20.973  13.003 -0.0287 -0.3352 -0.0137
  565DOPC   C3A 6623   2.397  21.006  12.587 -0.0338  0.1184  0.2500
  565DOPC   C4A 6624   2.648  20.933  12.203 -0.0987 -0.2731  0.1181
  565DOPC   C1B 6625   1.459  20.956  12.958  0.1532  0.0314  0.0665
  565DOPC   D2B 6626   1.582  21.119  12.553 -0.0824 -0.0453 -0.1251
  565DOPC   C3B 6627   1.205  21.368  12.371  0.0234 -0.1506 -0.0982
  565DOPC   C4B 6628   1.022  21.526  11.994  0.1764  0.1476 -0.2379
  566DOPS   CNO 6629  33.326  24.111  13.192 -0.1463 -0.1952  0.1239
  566DOPS   PO4 6630  33.679  23.994  13.288  0.1991  0.2401 -0.1363
  566DOPS   GL1 6631  33.733  23.732  12.999  0.0498  0.3552 -0.5909
  566DOPS   GL2 6632  33.700  23.406  13.005  0.0259  0.1991 -0.2087
  566DOPS   C1A 6633  33.895  23.719  12.559 -0.1310  0.1200 -0.2509
  566DOPS   D2A 6634  33.775  23.620  12.168 -0.1122  0.2182 -0.2131
  566DOPS   C3A 6635  33.688  23.229  11.950  0.0882  0.1267 -0.0126
  566DOPS   C4A 6636  33.671  22.763  11.794 -0.0359 -0.2276 -0.1683
  566DOPS   C1B 6637  34.170  23.454  12.940  0.1787  0.1073  0.1937
  566DOPS   D2B 6638  34.630  23.486  12.796  0.3650 -0.3118 -0.1630
  566DOPS   C3B 6639  34.669  23.353  12.327  0.0830  0.1758  0.1548
  566DOPS   C4B 6640  34.570  22.991  12.072  0.2074  0.0654 -0.0034
  567DOPE   NH3 6641   8.248  20.684  13.178 -0.2589 -0.0198 -0.0644
  567DOPE   PO4 6642   8.255  20.391  13.343 -0.0111 -0.0214  0.1018
  567DOPE   GL1 6643   8.347  20.236  12.873  0.0898  0.1053 -0.0515
  567DOPE   GL2 6644   8.534  20.464  12.825  0.0900  0.0679 -0.2708
  567DOPE   C1A 6645   8.714  20.076  12.589 -0.1750  0.0614  0.0611
  567DOPE   D2A 6646   8.810  20.286  12.160  0.0060  0.0547 -0.3268
  567DOPE   C3A 6647   9.125  20.059  11.956  0.0476 -0.0335  0.1636
  567DOPE   C4A 6648   9.512  19.975  12.162 -0.1244 -0.0217  0.2164
  567DOPE   C1B 6649   8.270  20.691  12.489 -0.3000  0.0731 -0.1223
  567DOPE   D2B 6650   8.398  20.934  12.160  0.1689  0.0017  0.3555
  567DOPE   C3B 6651   8.476  20.781  11.765 -0.0677  0.2290  0.0564
  567DOPE   C4B 6652   8.815  20.609  11.466 -0.3641  0.0244  0.1965
  568DOPC   NC3 6653   0.276  20.734  13.330 -0.1163 -0.1706  0.1894
  568DOPC   PO4 6654   0.039  20.559  13.558 -0.1142 -0.1877  0.3426
  568DOPC   GL1 6655   0.034  20.324  13.204  0.1744 -0.2078  0.1080
  568DOPC   GL2 6656  -0.073  20.524  13.029 -0.2266 -0.2837 -0.3387
  568DOPC   C1A 6657  -0.225  20.061  12.929  0.1216 -0.2203  0.1078
  568DOPC   D2A 6658  -0.189  19.999  12.428 -0.0495 -0.3431 -0.2914
  568DOPC   C3A 6659  -0.288  20.313  12.094 -0.1641 -0.1021  0.1975
  568DOPC   C4A 6660  -0.401  20.236  11.658 -0.1655 -0.1725  0.1443
  568DOPC   C1B 6661  -0.174  20.713  12.618  0.2509 -0.0055  0.1247
  568DOPC   D2B 6662  -0.159  21.025  12.203  0.0134  0.1671  0.2534
  568DOPC   C3B 6663  -0.069  20.924  11.732 -0.1370 -0.1294 -0.1582
  568DOPC   C4B 6664   0.368  20.835  11.567 -0.2080 -0.1459  0.0435
  569DOPS   CNO 6665   0.800  13.810  14.125 -0.0716  0.5687  0.3458
  569DOPS   PO4 6666   0.962  13.524  13.899  0.1111  0.1569 -0.1431
  569DOPS   GL1 6667   1.031  13.377  13.525  0.1357 -0.1732 -0.3913
  569DOPS   GL2 6668   1.225  13.155  13.387  0.2309  0.4673  0.0369
  569DOPS   C1A 6669   0.703  13.459  13.241  0.0900  0.3398  0.2536
  569DOPS   D2A 6670   0.308  13.436  13.082  0.1909  0.2862  0.1301
  569DOPS   C3A 6671   0.166  13.404  12.682  0.2620  0.3730  0.2537
  569DOPS   C4A 6672   0.356  13.650  12.301 -0.0570  0.3529  0.0720
  569DOPS   C1B 6673   1.179  13.024  12.925  0.0222 -0.0282  0.3573
  569DOPS   D2B 6674   1.338  12.912  12.529  0.0432 -0.0529  0.2887
  569DOPS   C3B 6675   1.233  13.182  12.110  0.0957  0.0452 -0.0625
  569DOPS   C4B 6676   0.988  13.406  11.812  0.0138  0.1264  0.0783
  570DOPC   NC3 6677   1.543  13.877  13.822 -0.1191  0.1966 -0.1432
  570DOPC   PO4 6678   1.423  13.578  13.676 -0.1968  0.1682 -0.0280
  570DOPC   GL1 6679   1.382  13.695  13.352  0.1339  0.0265  0.4781
  570DOPC   GL2 6680   1.078  13.775  13.364 -0.0567  0.2270 -0.0990
  570DOPC   C1A 6681   1.548  13.819  12.921  0.1247 -0.0767  0.0465
  570DOPC   D2A 6682   1.529  14.174  12.619  0.1948 -0.1133  0.1580
  570DOPC   C3A 6683   1.409  14.173  12.169  0.1421 -0.0389 -0.1605
  570DOPC   C4A 6684   1.387  14.512  11.856 -0.0433 -0.2022  0.1261
  570DOPC   C1B 6685   1.133  13.496  12.981  0.1579 -0.4394 -0.0293
  570DOPC   D2B 6686   1.465  13.410  12.662  0.0241  0.2197  0.2720
  570DOPC   C3B 6687   1.450  13.620  12.272 -0.1943  0.1452 -0.1809
  570DOPC   C4B 6688   1.616  13.675  11.821 -0.0061  0.0312  0.1390
  571DOPE   NH3 6689  11.164  18.662  14.013 -0.1983  0.1398 -0.0805
  571DOPE   PO4 6690  10.891  18.859  13.886  0.1394  0.1789  0.1205
  571DOPE   GL1 6691  11.221  18.853  13.549  0.0526 -0.1959 -0.1127
  571DOPE   GL2 6692  11.447  18.991  13.580  0.1411 -0.2339  0.1735
  571DOPE   C1A 6693  11.342  18.780  13.106  0.1339  0.2452  0.2047
  571DOPE   D2A 6694  11.424  18.699  12.610 -0.1766 -0.1984  0.0313
  571DOPE   C3A 6695  11.830  18.503  12.447  0.1166 -0.2811 -0.0640
  571DOPE   C4A 6696  12.128  18.470  12.116  0.2634  0.1758 -0.1524
  571DOPE   C1B 6697  11.741  18.638  13.465 -0.0267  0.0321 -0.0461
  571DOPE   D2B 6698  12.038  18.253  13.426 -0.4636  0.0392  0.2237
  571DOPE   C3B 6699  11.830  17.843  13.227  0.1446 -0.0072  0.0563
  571DOPE   C4B 6700  11.447  17.761  13.047 -0.2098 -0.0642 -0.1964
  572POSM   NC3 6701   5.248  16.931  13.277 -0.0575 -0.0892 -0.0216
  572POSM   PO4 6702   5.357  17.226  13.503 -0.2776  0.1661  0.0050
  572POSM   AM1 6703   5.325  17.437  13.246  0.1903  0.1289  0.1410
  572POSM   AM2 6704   5.072  17.484  13.071 -0.0649  0.2408 -0.1914
  572POSM   T1A 6705   5.621  17.660  12.888 -0.2547  0.3200 -0.0594
  572POSM   C2A 6706   5.553  18.054  12.743 -0.0821  0.3014  0.1940
  572POSM   C3A 6707   5.736  18.479  12.766 -0.0453 -0.1411 -0.1105
  572POSM   C1B 6708   5.130  17.372  12.792 -0.2312  0.1021 -0.1346
  572POSM   D2B 6709   4.957  17.046  12.439  0.2515 -0.1139 -0.1813
  572POSM   C3B 6710   4.826  16.638  12.563 -0.0933  0.0753  0.1078
  572POSM   C4B 6711   4.764  16.283  12.743 -0.0072 -0.1155  0.1247
  573DOPE   NH3 6712   4.533  21.101  13.660  0.0659  0.0284 -0.3416
  573DOPE   PO4 6713   4.259  21.280  13.523  0.0003 -0.0029 -0.1690
  573DOPE   GL1 6714   4.169  21.239  13.128  0.2422 -0.0292 -0.1685
  573DOPE   GL2 6715   3.914  21.062  13.199  0.2751  0.0584  0.0436
  573DOPE   C1A 6716   4.122  21.079  12.701  0.2086 -0.0410 -0.0482
  573DOPE   D2A 6717   4.028  20.996  12.268 -0.0888 -0.2500  0.1471
  573DOPE   C3A 6718   4.275  20.820  11.937 -0.2444 -0.2466 -0.1365
  573DOPE   C4A 6719   4.619  20.835  11.592 -0.2656 -0.0339 -0.0114
  573DOPE   C1B 6720   3.569  21.007  12.851 -0.0444  0.1787 -0.1635
  573DOPE   D2B 6721   3.254  21.018  12.545  0.0929 -0.1592 -0.3074
  573DOPE   C3B 6722   3.186  20.997  12.075 -0.2614 -0.5270 -0.0515
  573DOPE   C4B 6723   2.919  20.804  11.814 -0.1223  0.0029 -0.0402
  574POSM   NC3 6724   3.841  18.853  13.827 -0.1232 -0.1128  0.2159
  574POSM   PO4 6725   3.993  19.172  13.721  0.0640 -0.4057 -0.0325
  574POSM   AM1 6726   3.915  19.349  13.486  0.1961  0.0204 -0.1111
  574POSM   AM2 6727   4.035  19.447  13.242  0.0263 -0.2470  0.0057
  574POSM   T1A 6728   3.665  19.748  13.278 -0.1653 -0.0200 -0.0817
  574POSM   C2A 6729   3.834  20.175  13.066  0.2306  0.0389  0.3134
  574POSM   C3A 6730   4.038  20.258  12.657  0.0774  0.0352 -0.0176
  574POSM   C1B 6731   4.082  19.375  12.891  0.1080 -0.1125 -0.0456
  574POSM   D2B 6732   4.249  19.286  12.484 -0.2248 -0.1646  0.3280
  574POSM   C3B 6733   4.584  19.307  12.163 -0.0153 -0.3166  0.1533
  574POSM   C4B 6734   4.800  19.414  11.817  0.2323 -0.1163 -0.0629
  575DOPC   NC3 6735   7.354  17.930  13.422  0.4144  0.0510 -0.2458
  575DOPC   PO4 6736   6.995  17.994  13.227  0.2838 -0.2331  0.0956
  575DOPC   GL1 6737   7.133  17.797  12.800  0.0663 -0.0355 -0.1943
  575DOPC   GL2 6738   6.868  17.804  12.651 -0.0283 -0.1589  0.0586
  575DOPC   C1A 6739   7.172  17.537  12.388 -0.1771 -0.1161 -0.0710
  575DOPC   D2A 6740   6.895  17.385  12.013  0.0667  0.2735 -0.1414
  575DOPC   C3A 6741   6.970  17.222  11.581 -0.1630  0.1898  0.1690
  575DOPC   C4A 6742   7.102  16.913  11.236  0.0267 -0.1494  0.1699
  575DOPC   C1B 6743   6.904  17.912  12.219  0.3811  0.1139 -0.0141
  575DOPC   D2B 6744   6.707  17.953  11.804  0.0543  0.0076  0.1412
  575DOPC   C3B 6745   6.802  18.359  11.597  0.3716  0.2342 -0.0588
  575DOPC   C4B 6746   6.815  18.707  11.364 -0.0929 -0.2120 -0.0007
  576DOPE   NH3 6747   4.944  20.914  13.420  0.2866  0.1668 -0.1227
  576DOPE   PO4 6748   5.178  21.129  13.351  0.1392  0.3030 -0.0130
  576DOPE   GL1 6749   4.981  21.192  13.057  0.1227 -0.2113 -0.0829
  576DOPE   GL2 6750   5.138  20.903  12.912  0.0635  0.1491 -0.1192
  576DOPE   C1A 6751   4.932  21.444  12.699  0.4283  0.4167 -0.0652
  576DOPE   D2A 6752   4.843  21.459  12.195 -0.1552  0.1723  0.0401
  576DOPE   C3A 6753   5.211  21.442  11.908  0.1396 -0.0004 -0.1837
  576DOPE   C4A 6754   5.508  21.102  11.870  0.1178  0.1784  0.1296
  576DOPE   C1B 6755   5.154  20.448  12.779  0.4139  0.2471 -0.1144
  576DOPE   D2B 6756   5.264  20.005  12.669 -0.2237  0.0516  0.0540
  576DOPE   C3B 6757   5.515  19.787  12.414  0.0341  0.0574 -0.0834
  576DOPE   C4B 6758   5.684  19.825  11.968 -0.0826  0.0496  0.1035
  577POSM   NC3 6759   6.369  12.565  13.730  0.3438  0.2305 -0.0290
  577POSM   PO4 6760   6.292  12.536  14.114 -0.1812  0.1388  0.2673
  577POSM   AM1 6761   6.321  12.207  14.033  0.1747  0.1016 -0.0559
  577POSM   AM2 6762   6.533  12.065  13.921 -0.1556 -0.0482  0.0012
  577POSM   T1A 6763   6.200  11.725  13.847  0.1936  0.1813  0.0316
  577POSM   C2A 6764   6.104  11.471  13.452  0.2430  0.0931 -0.0062
  577POSM   C3A 6765   6.132  11.060  13.411  0.0421  0.2709 -0.0390
  577POSM   C1B 6766   6.773  12.089  13.735 -0.3305  0.4297  0.0280
  577POSM   D2B 6767   7.029  12.422  13.617 -0.0400 -0.1551 -0.0274
  577POSM   C3B 6768   6.908  12.787  13.419  0.2493 -0.1081 -0.0318
  577POSM   C4B 6769   6.863  12.972  12.970 -0.1965 -0.1406 -0.0666
  578DOPE   NH3 6770   9.544  21.560  13.497  0.0399  0.1337  0.0054
  578DOPE   PO4 6771   9.307  21.393  13.591  0.1152 -0.1455  0.1754
  578DOPE   GL1 6772   9.237  21.270  13.226  0.2100 -0.0017 -0.2526
  578DOPE   GL2 6773   9.155  21.516  13.087 -0.1084 -0.1251 -0.2084
  578DOPE   C1A 6774   9.039  21.081  12.792 -0.3041 -0.2582 -0.3258
  578DOPE   D2A 6775   8.743  21.014  12.497  0.0687 -0.1304  0.1981
  578DOPE   C3A 6776   8.903  20.737  12.162  0.2700 -0.1035  0.0872
  578DOPE   C4A 6777   9.169  20.546  11.877 -0.1725 -0.1541 -0.1548
  578DOPE   C1B 6778   9.298  21.514  12.618 -0.1713  0.0849 -0.2341
  578DOPE   D2B 6779   9.249  21.808  12.200  0.0420 -0.0952  0.1782
  578DOPE   C3B 6780   9.343  22.231  12.236 -0.0248  0.0065 -0.2018
  578DOPE   C4B 6781   9.212  22.495  12.628 -0.2269 -0.2312 -0.1546
  579DOPE   NH3 6782  33.449  15.850  13.631 -0.2277 -0.0277 -0.0692
  579DOPE   PO4 6783  33.681  16.094  13.755  0.3475  0.0495 -0.4206
  579DOPE   GL1 6784  33.732  16.150  13.294  0.2642  0.2543 -0.0586
  579DOPE   GL2 6785  33.828  16.335  13.084 -0.3119 -0.0162  0.1422
  579DOPE   C1A 6786  33.595  15.884  12.956 -0.2484 -0.2057 -0.0586
  579DOPE   D2A 6787  33.636  15.614  12.571  0.0995  0.3248  0.2870
  579DOPE   C3A 6788  33.659  15.348  12.184  0.2949 -0.1234  0.2903
  579DOPE   C4A 6789  33.349  15.239  11.883  0.0351  0.1132 -0.0825
  579DOPE   C1B 6790  33.957  16.711  12.846 -0.0731  0.1582  0.1151
  579DOPE   D2B 6791  33.960  16.977  12.465  0.3840 -0.0781  0.0717
  579DOPE   C3B 6792  34.447  17.083  12.553  0.2272 -0.0399 -0.0942
  579DOPE   C4B 6793  34.855  17.258  12.477 -0.1180 -0.1214  0.0792
  580DOPE   NH3 6794   5.820  16.609  13.588  0.0744 -0.0154 -0.2013
  580DOPE   PO4 6795   5.692  16.879  13.560 -0.1605 -0.2397 -0.0053
  580DOPE   GL1 6796   5.646  16.672  13.103 -0.3127  0.0990 -0.1514
  580DOPE   GL2 6797   5.796  16.403  13.098 -0.0820  0.0080 -0.2791
  580DOPE   C1A 6798   5.733  16.655  12.630  0.2738  0.1263  0.1208
  580DOPE   D2A 6799   5.787  16.735  12.212  0.1298  0.1427  0.2429
  580DOPE   C3A 6800   5.531  16.400  12.044 -0.2155 -0.1555 -0.0899
  580DOPE   C4A 6801   5.526  16.051  11.717  0.0767 -0.2206  0.2682
  580DOPE   C1B 6802   6.085  16.756  12.957  0.0073 -0.1320 -0.2302
  580DOPE   D2B 6803   6.391  17.050  12.835  0.2348  0.1785 -0.2796
  580DOPE   C3B 6804   6.723  16.832  12.677 -0.1680  0.3076  0.1989
  580DOPE   C4B 6805   7.123  16.596  12.691  0.0211 -0.0022  0.0300
  581DOPE   NH3 6806  34.685  12.862  13.612  0.0371  0.0050  0.0516
  581DOPE   PO4 6807  34.816  13.140  13.533 -0.1092 -0.0363 -0.0600
  581DOPE   GL1 6808  35.064  13.025  13.307  0.1336  0.1068 -0.1567
  581DOPE   GL2 6809  34.984  12.742  13.229  0.1736  0.0124 -0.1068
  581DOPE   C1A 6810  35.261  13.031  12.874  0.0791 -0.2149  0.0305
  581DOPE   D2A 6811  35.504  12.799  12.520 -0.0041  0.2039  0.0556
  581DOPE   C3A 6812  35.206  12.616  12.217  0.0150 -0.2849  0.0432
  581DOPE   C4A 6813  35.225  12.545  11.759  0.2441 -0.0280 -0.0220
  581DOPE   C1B 6814  35.133  12.542  12.823 -0.2077  0.2422 -0.2458
  581DOPE   D2B 6815  35.443  12.258  12.558  0.3167  0.0660  0.1109
  581DOPE   C3B 6816  35.623  11.945  12.278 -0.2405  0.0172  0.2270
  581DOPE   C4B 6817  35.477  11.791  11.869 -0.0419  0.0233 -0.2047
  582POSM   NC3 6818   8.895  12.523  14.749 -0.0202  0.3827 -0.0709
  582POSM   PO4 6819   8.912  12.909  14.753 -0.0843 -0.0660  0.0611
  582POSM   AM1 6820   9.128  12.810  14.508  0.0353 -0.1581  0.0397
  582POSM   AM2 6821   9.358  12.907  14.358  0.3606 -0.1852 -0.0461
  582POSM   T1A 6822   9.056  12.597  14.073 -0.0874  0.0914  0.1209
  582POSM   C2A 6823   9.219  12.509  13.654  0.0998 -0.0039  0.2632
  582POSM   C3A 6824   9.588  12.219  13.483  0.1576 -0.0819  0.2865
  582POSM   C1B 6825   9.389  12.983  14.048 -0.0910  0.1745 -0.1302
  582POSM   D2B 6826   9.306  12.969  13.584  0.1644 -0.0198  0.2555
  582POSM   C3B 6827   9.527  13.164  13.292 -0.1804 -0.0035  0.0495
  582POSM   C4B 6828   9.809  13.348  12.944  0.1025  0.2304  0.1488
  583DOPE   NH3 6829   6.792  19.757  13.264  0.1957  0.4681  0.0335
  583DOPE   PO4 6830   7.084  19.700  13.169 -0.0552 -0.3103  0.0810
  583DOPE   GL1 6831   7.204  19.668  12.832  0.3008  0.3310 -0.3169
  583DOPE   GL2 6832   7.091  19.825  12.630  0.2834 -0.2146  0.2416
  583DOPE   C1A 6833   7.354  19.401  12.498 -0.1950  0.3051 -0.0602
  583DOPE   D2A 6834   7.330  19.018  12.228  0.0055  0.1054  0.3621
  583DOPE   C3A 6835   7.588  18.918  11.880  0.1302  0.0884  0.0341
  583DOPE   C4A 6836   7.815  18.570  11.626  0.1162  0.1942 -0.1591
  583DOPE   C1B 6837   7.030  19.776  12.192  0.0497  0.1500  0.0206
  583DOPE   D2B 6838   7.178  19.734  11.732 -0.0606 -0.0082 -0.1202
  583DOPE   C3B 6839   6.989  19.694  11.337 -0.2466 -0.2530 -0.2042
  583DOPE   C4B 6840   7.083  19.795  10.896  0.0887 -0.1126  0.2777
  584DOPE   NH3 6841   8.608  19.236  13.762 -0.0776  0.4177 -0.0147
  584DOPE   PO4 6842   8.390  18.979  13.743  0.0997 -0.0938 -0.2024
  584DOPE   GL1 6843   8.566  18.968  13.398 -0.1201 -0.0731 -0.1894
  584DOPE   GL2 6844   8.803  18.846  13.504 -0.0224  0.4619 -0.2426
  584DOPE   C1A 6845   8.610  19.061  12.942  0.2307  0.2681  0.0092
  584DOPE   D2A 6846   8.681  18.952  12.506  0.1312 -0.1377 -0.3861
  584DOPE   C3A 6847   9.145  18.875  12.432  0.2934  0.0482 -0.1920
  584DOPE   C4A 6848   9.577  18.841  12.207  0.3831 -0.1266 -0.0709
  584DOPE   C1B 6849   8.643  18.577  13.131 -0.3174  0.1910  0.0357
  584DOPE   D2B 6850   8.489  18.316  12.777 -0.1674  0.0527  0.2758
  584DOPE   C3B 6851   8.459  17.866  12.630 -0.2471 -0.2554  0.2498
  584DOPE   C4B 6852   8.602  17.642  12.296  0.0227 -0.1500 -0.3810
  585POSM   NC3 6853   7.082  16.242  13.890  0.0740  0.0419  0.0037
  585POSM   PO4 6854   6.702  16.317  13.982 -0.1153 -0.1665 -0.4831
  585POSM   AM1 6855   6.673  16.233  13.649 -0.2822  0.2083  0.0299
  585POSM   AM2 6856   6.812  16.196  13.405  0.0939 -0.1402 -0.2728
  585POSM   T1A 6857   6.296  16.271  13.290  0.2846  0.0979 -0.0795
  585POSM   C2A 6858   6.168  16.255  12.821 -0.1310  0.3550  0.3728
  585POSM   C3A 6859   5.701  16.148  12.663  0.1186 -0.0025 -0.1151
  585POSM   C1B 6860   7.024  16.004  13.425  0.0276 -0.1427  0.0424
  585POSM   D2B 6861   7.297  15.647  13.296 -0.1006 -0.1641  0.0524
  585POSM   C3B 6862   7.358  15.484  12.891  0.2415  0.0280 -0.0809
  585POSM   C4B 6863   7.594  15.285  12.553 -0.2351 -0.0901  0.1860
  586DOPC   NC3 6864   2.060  18.230  13.435  0.1272 -0.0556 -0.0990
  586DOPC   PO4 6865   2.296  18.546  13.521  0.0133  0.1139 -0.0649
  586DOPC   GL1 6866   2.316  18.542  13.154 -0.0357 -0.1178  0.0516
  586DOPC   GL2 6867   2.584  18.661  13.084 -0.1792 -0.0718  0.0270
  586DOPC   C1A 6868   2.105  18.880  12.859  0.0571  0.0598 -0.3274
  586DOPC   D2A 6869   2.185  19.187  12.539  0.0967  0.1471  0.2679
  586DOPC   C3A 6870   1.967  19.552  12.578  0.2126  0.0809  0.0676
  586DOPC   C4A 6871   2.221  19.918  12.434 -0.1388  0.0500  0.2404
  586DOPC   C1B 6872   2.601  19.028  12.859 -0.0070  0.1040  0.0314
  586DOPC   D2B 6873   2.544  19.481  12.766  0.0880 -0.0124  0.0358
  586DOPC   C3B 6874   2.620  19.603  12.332  0.1393 -0.0702  0.2881
  586DOPC   C4B 6875   2.383  19.432  12.017 -0.0862 -0.1406 -0.1436
  587DOPE   NH3 6876  33.946  15.054  13.982  0.0293  0.1891  0.0852
  587DOPE   PO4 6877  33.990  14.797  13.795 -0.1282 -0.3068  0.2116
  587DOPE   GL1 6878  34.030  14.611  13.415  0.3884  0.2945  0.0173
  587DOPE   GL2 6879  33.999  14.359  13.222 -0.1726  0.3860  0.0615
  587DOPE   C1A 6880  34.432  14.638  13.131  0.0660  0.0269  0.1591
  587DOPE   D2A 6881  34.737  14.626  12.824 -0.1316 -0.1031  0.1096
  587DOPE   C3A 6882  34.787  14.246  12.607  0.2350  0.1730  0.1137
  587DOPE   C4A 6883  34.627  13.817  12.451  0.0871  0.2814  0.3942
  587DOPE   C1B 6884  33.724  14.181  12.918 -0.1826  0.0425 -0.3812
  587DOPE   D2B 6885  33.679  14.208  12.497  0.2766 -0.0358 -0.1156
  587DOPE   C3B 6886  34.061  14.404  12.281 -0.2187 -0.2739  0.2907
  587DOPE   C4B 6887  34.532  14.509  12.245 -0.0290  0.1692 -0.3568
  588DOPC   NC3 6888   7.220  18.449  13.429 -0.2708 -0.2636  0.0683
  588DOPC   PO4 6889   7.546  18.398  13.610  0.4096  0.3149 -0.1152
  588DOPC   GL1 6890   7.566  18.248  13.152  0.0797  0.1559  0.2495
  588DOPC   GL2 6891   7.390  18.310  12.911 -0.3361  0.0189  0.0951
  588DOPC   C1A 6892   7.920  18.400  12.878  0.2127 -0.1849 -0.1172
  588DOPC   D2A 6893   8.068  18.211  12.449  0.0368 -0.3668 -0.1960
  588DOPC   C3A 6894   7.870  18.159  12.091 -0.1639  0.1155  0.2507
  588DOPC   C4A 6895   7.640  17.817  11.934 -0.1026 -0.1586 -0.1257
  588DOPC   C1B 6896   7.691  18.019  12.766  0.0274  0.1877 -0.0580
  588DOPC   D2B 6897   7.963  17.739  12.617  0.1520 -0.4016 -0.0255
  588DOPC   C3B 6898   8.081  17.741  12.167 -0.0573  0.1407  0.0671
  588DOPC   C4B 6899   8.304  17.841  11.841  0.1511  0.0425  0.2693
  589POSM   NC3 6900   1.557   9.186  13.845  0.1143  0.2078  0.1252
  589POSM   PO4 6901   1.182   9.243  14.019  0.4011  0.3006  0.1268
  589POSM   AM1 6902   1.144   9.451  13.722  0.2442 -0.3002  0.0610
  589POSM   AM2 6903   1.297   9.437  13.473 -0.0815  0.0567 -0.3837
  589POSM   T1A 6904   0.831   9.732  13.450  0.1047  0.0205  0.0152
  589POSM   C2A 6905   0.638   9.844  13.018  0.0733  0.0964  0.1529
  589POSM   C3A 6906   0.619   9.875  12.514  0.0132 -0.1011 -0.0398
  589POSM   C1B 6907   1.489   9.222  13.308  0.0636  0.0927 -0.4102
  589POSM   D2B 6908   1.804   9.119  13.050 -0.3101  0.0762  0.2262
  589POSM   C3B 6909   1.941   8.922  12.649  0.0576 -0.0837  0.1013
  589POSM   C4B 6910   1.802   8.545  12.399 -0.2587  0.1919  0.0922
  590DOPE   NH3 6911   6.753  16.882  14.037  0.2706  0.1001 -0.2774
  590DOPE   PO4 6912   6.627  17.048  13.809  0.2890  0.0356 -0.2090
  590DOPE   GL1 6913   6.593  17.024  13.469  0.2389  0.3006  0.0206
  590DOPE   GL2 6914   6.809  17.101  13.326 -0.3993 -0.2333  0.2856
  590DOPE   C1A 6915   6.587  16.641  13.137  0.0353  0.0818  0.1526
  590DOPE   D2A 6916   6.694  16.366  12.879  0.0160  0.0315  0.0866
  590DOPE   C3A 6917   6.684  16.360  12.408  0.1289 -0.1446 -0.0652
  590DOPE   C4A 6918   6.570  16.322  11.989 -0.0481  0.2625 -0.2511
  590DOPE   C1B 6919   7.175  16.817  13.185 -0.0591 -0.1154 -0.0893
  590DOPE   D2B 6920   7.606  16.728  12.945 -0.0455 -0.2707 -0.1513
  590DOPE   C3B 6921   7.533  16.918  12.576 -0.1944 -0.0956 -0.0810
  590DOPE   C4B 6922   7.682  16.852  12.120  0.1069 -0.0673  0.2019
  591DOPE   NH3 6923   9.002  14.721  14.787 -0.0688  0.2025  0.0466
  591DOPE   PO4 6924   8.826  14.459  14.747  0.2176 -0.0207 -0.1050
  591DOPE   GL1 6925   9.068  14.279  14.372 -0.1480 -0.1421 -0.0804
  591DOPE   GL2 6926   9.236  14.511  14.442 -0.0989  0.1096 -0.1924
  591DOPE   C1A 6927   8.966  13.988  14.025 -0.1236 -0.1112  0.1108
  591DOPE   D2A 6928   8.926  13.914  13.588 -0.0127  0.0104 -0.0542
  591DOPE   C3A 6929   9.070  14.198  13.291 -0.0117  0.2204 -0.3199
  591DOPE   C4A 6930   9.266  14.120  12.864 -0.0563 -0.1637  0.2736
  591DOPE   C1B 6931   9.345  14.427  13.971 -0.3006  0.2610  0.0287
  591DOPE   D2B 6932   9.562  14.436  13.502  0.1456  0.1452 -0.2620
  591DOPE   C3B 6933   9.679  14.342  13.081  0.1525  0.0715  0.2479
  591DOPE   C4B 6934   9.606  14.522  12.697 -0.0591  0.1751 -0.2811
  592POSM   NC3 6935   3.505  12.955  14.051  0.0507 -0.1802 -0.0092
  592POSM   PO4 6936   3.775  12.638  14.057 -0.0067 -0.1216 -0.0091
  592POSM   AM1 6937   3.858  12.717  13.728 -0.1493  0.0681 -0.2602
  592POSM   AM2 6938   3.878  12.902  13.582 -0.2479  0.0760  0.1287
  592POSM   T1A 6939   3.942  12.428  13.335  0.2412 -0.0351  0.4549
  592POSM   C2A 6940   4.101  12.441  12.911 -0.0734  0.1072 -0.1542
  592POSM   C3A 6941   4.269  12.281  12.519 -0.0884 -0.2959  0.0547
  592POSM   C1B 6942   3.904  13.077  13.295 -0.2257 -0.1903 -0.2274
  592POSM   D2B 6943   3.877  13.224  12.880 -0.1395 -0.0939  0.0425
  592POSM   C3B 6944   4.227  13.312  12.635  0.1274 -0.0934  0.1415
  592POSM   C4B 6945   4.483  13.428  12.229 -0.1953  0.1367 -0.2366
  593DOPS   CNO 6946   8.542  13.596  14.811 -0.2320  0.1566 -0.1228
  593DOPS   PO4 6947   8.902  13.431  14.830 -0.0958  0.0744 -0.0422
  593DOPS   GL1 6948   8.660  13.426  14.420 -0.0099 -0.1920 -0.1806
  593DOPS   GL2 6949   8.849  13.215  14.346 -0.2180 -0.2205 -0.0464
  593DOPS   C1A 6950   8.551  13.474  13.955 -0.0352 -0.2325  0.1147
  593DOPS   D2A 6951   8.563  13.556  13.501  0.3128 -0.0743  0.3226
  593DOPS   C3A 6952   8.796  13.613  13.120 -0.0215  0.0378  0.0331
  593DOPS   C4A 6953   8.820  13.934  12.782 -0.0599  0.3584 -0.0665
  593DOPS   C1B 6954   8.838  13.054  13.924  0.4206  0.0815  0.2057
  593DOPS   D2B 6955   8.742  13.068  13.492  0.1294 -0.1233 -0.1112
  593DOPS   C3B 6956   9.018  12.975  13.078  0.1329 -0.1765 -0.1331
  593DOPS   C4B 6957   9.408  13.020  12.776  0.2113 -0.1148  0.0126
  594DOPC   NC3 6958   2.250  24.783  13.105  0.1028  0.0768  0.3305
  594DOPC   PO4 6959   2.009  24.470  13.219 -0.0693 -0.1475  0.0991
  594DOPC   GL1 6960   1.953  24.468  12.818 -0.3368 -0.0790 -0.0709
  594DOPC   GL2 6961   1.669  24.588  12.813  0.1761 -0.2269  0.0967
  594DOPC   C1A 6962   2.122  24.754  12.481 -0.0104  0.0701 -0.1838
  594DOPC   D2A 6963   2.328  24.817  12.098  0.0460 -0.3241  0.1427
  594DOPC   C3A 6964   2.239  24.520  11.749  0.2142  0.2449  0.0822
  594DOPC   C4A 6965   2.298  24.142  11.448 -0.0543  0.1411 -0.0675
  594DOPC   C1B 6966   1.560  24.752  12.365 -0.2833 -0.1107 -0.0014
  594DOPC   D2B 6967   1.269  24.780  12.015 -0.2328 -0.0278  0.0709
  594DOPC   C3B 6968   0.893  24.983  12.055  0.2310  0.0625  0.2565
  594DOPC   C4B 6969   0.557  24.974  12.309 -0.0863  0.0152  0.0458
  595POSM   NC3 6970   2.390  17.467  13.212  0.0090  0.1035 -0.3913
  595POSM   PO4 6971   2.347  17.837  13.149 -0.0127  0.3155  0.1686
  595POSM   AM1 6972   2.289  17.980  12.882 -0.0760  0.1280  0.5859
  595POSM   AM2 6973   2.431  17.967  12.621 -0.0266 -0.1379 -0.1560
  595POSM   T1A 6974   2.244  18.413  12.649  0.0070 -0.1626 -0.0914
  595POSM   C2A 6975   2.489  18.724  12.444  0.2000 -0.2739 -0.0684
  595POSM   C3A 6976   2.614  19.072  12.258  0.1785  0.5654 -0.0866
  595POSM   C1B 6977   2.192  17.956  12.401 -0.2470  0.4697  0.3552
  595POSM   D2B 6978   1.773  18.167  12.161 -0.0405 -0.2380  0.0373
  595POSM   C3B 6979   1.772  18.518  11.851  0.1121  0.0030  0.1355
  595POSM   C4B 6980   1.909  18.740  11.494  0.2799 -0.2462  0.0653
  596DOPE   NH3 6981   6.782  13.289  14.637  0.1800  0.0378 -0.2716
  596DOPE   PO4 6982   6.719  13.283  14.317 -0.4418 -0.0615 -0.1376
  596DOPE   GL1 6983   6.857  13.094  14.006 -0.4091 -0.0056 -0.0326
  596DOPE   GL2 6984   6.802  12.848  13.958  0.1362 -0.0329 -0.0568
  596DOPE   C1A 6985   7.233  12.971  13.764  0.1568  0.2072 -0.0518
  596DOPE   D2A 6986   7.403  12.967  13.344 -0.1459 -0.0858  0.1985
  596DOPE   C3A 6987   7.328  13.108  12.946 -0.0272  0.1318 -0.0699
  596DOPE   C4A 6988   7.479  13.524  12.740  0.0380 -0.0199  0.0494
  596DOPE   C1B 6989   6.584  13.168  13.609  0.1096 -0.1052 -0.0433
  596DOPE   D2B 6990   6.592  13.567  13.397  0.0112  0.1130  0.0780
  596DOPE   C3B 6991   6.571  13.380  12.957 -0.1428  0.1353  0.1965
  596DOPE   C4B 6992   6.390  13.134  12.623 -0.1167  0.3751 -0.0259
  597DOPS   CNO 6993   3.523  14.579  13.451  0.4013 -0.3424  0.2455
  597DOPS   PO4 6994   3.124  14.524  13.469 -0.0499 -0.1320  0.4398
  597DOPS   GL1 6995   3.242  14.273  13.200  0.2361  0.0571 -0.1126
  597DOPS   GL2 6996   3.371  14.050  13.332 -0.1344  0.0494  0.0052
  597DOPS   C1A 6997   2.839  14.271  12.962 -0.1376  0.0279  0.1587
  597DOPS   D2A 6998   2.393  14.113  13.021 -0.0406 -0.1348 -0.1133
  597DOPS   C3A 6999   2.107  13.745  13.098  0.2315  0.0451 -0.2729
  597DOPS   C4A 7000   1.771  13.446  13.154  0.0366 -0.1058  0.0277
  597DOPS   C1B 7001   3.260  13.986  12.823 -0.1299  0.1750 -0.0826
  597DOPS   D2B 7002   3.188  14.401  12.618  0.1643  0.1461  0.0908
  597DOPS   C3B 7003   3.394  14.460  12.238  0.0633  0.1854  0.1887
  597DOPS   C4B 7004   3.483  14.151  11.932 -0.1637  0.4661 -0.2522
  598DOPS   CNO 7005   5.633  19.555  13.917  0.1467  0.4762 -0.2949
  598DOPS   PO4 7006   5.472  19.330  13.695  0.0353 -0.1224  0.1170
  598DOPS   GL1 7007   5.430  19.344  13.233 -0.1678  0.2567  0.0124
  598DOPS   GL2 7008   5.750  19.251  13.136  0.0385  0.2394  0.1103
  598DOPS   C1A 7009   5.383  19.090  12.850  0.0042 -0.1384 -0.1011
  598DOPS   D2A 7010   5.318  18.769  12.504 -0.3595 -0.1378  0.0832
  598DOPS   C3A 7011   5.361  18.831  12.044 -0.1472  0.0808  0.1959
  598DOPS   C4A 7012   5.273  19.140  11.730  0.1176  0.0417 -0.1590
  598DOPS   C1B 7013   5.952  19.439  12.741  0.0249 -0.2108  0.1036
  598DOPS   D2B 7014   5.964  19.544  12.313  0.0831 -0.0786 -0.1808
  598DOPS   C3B 7015   6.136  19.785  11.884 -0.1075 -0.2871  0.0736
  598DOPS   C4B 7016   6.033  19.877  11.439  0.2178 -0.1755  0.2385
  599DOPE   NH3 7017  13.708  11.522  15.056  0.0576  0.0392  0.0935
  599DOPE   PO4 7018  13.600  11.578  14.776 -0.0028  0.2731  0.2765
  599DOPE   GL1 7019  13.443  11.411  14.464 -0.4427  0.1454 -0.0255
  599DOPE   GL2 7020  13.540  11.602  14.223 -0.0719 -0.0708  0.1534
  599DOPE   C1A 7021  13.183  11.182  14.176 -0.0338  0.5983  0.2150
  599DOPE   D2A 7022  12.718  10.992  14.088  0.0060  0.2581 -0.0143
  599DOPE   C3A 7023  12.414  11.200  13.784  0.1934  0.0629 -0.2629
  599DOPE   C4A 7024  12.206  11.072  13.330  0.3859  0.1456  0.1753
  599DOPE   C1B 7025  13.519  11.445  13.804  0.4631 -0.0129  0.0509
  599DOPE   D2B 7026  13.473  11.079  13.541  0.1288  0.1365 -0.2616
  599DOPE   C3B 7027  13.451  11.144  13.083 -0.2036  0.1559 -0.0211
  599DOPE   C4B 7028  13.885  11.068  12.809 -0.2620  0.1642  0.1827
  600DOPC   NC3 7029   5.847  14.314  14.312  0.2900 -0.2542 -0.1813
  600DOPC   PO4 7030   5.968  14.636  14.049  0.0559  0.1637  0.0098
  600DOPC   GL1 7031   5.823  14.489  13.710  0.0037  0.0103  0.4374
  600DOPC   GL2 7032   5.710  14.198  13.830  0.2295  0.1251 -0.0300
  600DOPC   C1A 7033   5.750  14.533  13.246  0.3330  0.0031 -0.0388
  600DOPC   D2A 7034   5.897  14.780  12.878 -0.1228  0.0456 -0.0017
  600DOPC   C3A 7035   6.334  14.716  12.702  0.0279 -0.0737  0.2083
  600DOPC   C4A 7036   6.629  14.892  12.453  0.0453 -0.0741  0.1050
  600DOPC   C1B 7037   5.672  14.068  13.392 -0.2686 -0.2583 -0.2423
  600DOPC   D2B 7038   5.792  13.845  12.958  0.3013 -0.0288 -0.1597
  600DOPC   C3B 7039   5.785  13.904  12.464  0.0598 -0.0663  0.2844
  600DOPC   C4B 7040   5.821  14.223  12.199  0.1291 -0.3406  0.2319
  601DOPS   CNO 7041   6.665  20.478  13.636  0.0811  0.0745 -0.1019
  601DOPS   PO4 7042   6.598  20.237  13.386  0.1580 -0.1523  0.0106
  601DOPS   GL1 7043   6.309  20.271  13.108  0.1164 -0.2765 -0.2730
  601DOPS   GL2 7044   6.373  20.027  12.947 -0.0521 -0.1733  0.1088
  601DOPS   C1A 7045   6.159  20.481  12.736  0.1679  0.2830 -0.1294
  601DOPS   D2A 7046   6.140  20.523  12.268 -0.0797 -0.0321  0.2812
  601DOPS   C3A 7047   5.970  20.840  11.906  0.0895  0.1369  0.1653
  601DOPS   C4A 7048   6.084  21.245  11.752 -0.0858  0.1617 -0.0391
  601DOPS   C1B 7049   6.442  20.130  12.521  0.1070 -0.0394 -0.0312
  601DOPS   D2B 7050   6.419  20.184  12.048  0.0676  0.3045 -0.2415
  601DOPS   C3B 7051   6.612  19.817  11.827 -0.0867  0.2025  0.0541
  601DOPS   C4B 7052   6.421  19.524  11.495 -0.0714  0.0300  0.0569
  602DOPE   NH3 7053   3.186  25.364  13.601  0.3437 -0.0238  0.2742
  602DOPE   PO4 7054   2.924  25.168  13.600  0.0920 -0.2116 -0.2192
  602DOPE   GL1 7055   3.119  25.077  13.259  0.0288  0.6122  0.2635
  602DOPE   GL2 7056   3.162  25.322  13.067  0.0802 -0.2887  0.0596
  602DOPE   C1A 7057   3.376  24.870  12.919 -0.0092 -0.0045 -0.2636
  602DOPE   D2A 7058   3.715  24.815  12.656 -0.0936  0.1691  0.1219
  602DOPE   C3A 7059   3.967  24.669  12.265 -0.2698  0.0298 -0.4977
  602DOPE   C4A 7060   4.138  24.922  11.925  0.2156  0.1825 -0.1135
  602DOPE   C1B 7061   2.915  25.077  12.795 -0.2304 -0.0263 -0.1218
  602DOPE   D2B 7062   2.579  24.891  12.554  0.3003 -0.3308 -0.2168
  602DOPE   C3B 7063   2.776  24.567  12.334  0.3265 -0.2745  0.1242
  602DOPE   C4B 7064   3.173  24.312  12.249 -0.5633 -0.0596  0.3526
  603DOPE   NH3 7065   5.722  18.896  13.692 -0.0784  0.0647 -0.2319
  603DOPE   PO4 7066   5.997  18.904  13.510  0.1623  0.2377  0.0183
  603DOPE   GL1 7067   6.070  18.860  12.992  0.0747 -0.0958 -0.2816
  603DOPE   GL2 7068   6.282  19.162  12.954  0.3468  0.4325 -0.1931
  603DOPE   C1A 7069   5.869  18.959  12.618 -0.2020  0.0255 -0.2170
  603DOPE   D2A 7070   5.552  19.169  12.342  0.1699  0.2052  0.1219
  603DOPE   C3A 7071   5.716  19.341  11.906  0.1070 -0.0761  0.0400
  603DOPE   C4A 7072   5.627  19.520  11.499 -0.2242 -0.2278  0.0651
  603DOPE   C1B 7073   6.286  19.171  12.440 -0.0089 -0.0892 -0.1314
  603DOPE   D2B 7074   6.056  18.944  12.122  0.1911 -0.0849 -0.1146
  603DOPE   C3B 7075   5.869  18.598  12.291  0.2498  0.4424  0.0683
  603DOPE   C4B 7076   5.579  18.286  12.309  0.0652 -0.0969  0.2183
  604DOPE   NH3 7077   6.735  17.525  13.879 -0.0680 -0.1565 -0.0677
  604DOPE   PO4 7078   6.974  17.557  13.608 -0.3080 -0.4099 -0.4193
  604DOPE   GL1 7079   7.201  17.290  13.353  0.0139 -0.2347 -0.0269
  604DOPE   GL2 7080   7.246  17.439  13.104  0.3453  0.1889  0.0489
  604DOPE   C1A 7081   7.533  17.025  13.363 -0.1610  0.3415 -0.1217
  604DOPE   D2A 7082   7.943  16.994  13.196  0.0469 -0.1290  0.1395
  604DOPE   C3A 7083   8.101  16.844  12.783  0.0290 -0.1671 -0.2144
  604DOPE   C4A 7084   7.860  16.561  12.490 -0.2942  0.1849 -0.2503
  604DOPE   C1B 7085   7.146  17.160  12.784 -0.2391 -0.3249 -0.2028
  604DOPE   D2B 7086   7.067  17.032  12.357  0.1324 -0.0134  0.2007
  604DOPE   C3B 7087   7.171  16.586  12.199 -0.1896  0.2666  0.1443
  604DOPE   C4B 7088   7.100  16.121  12.207  0.0051  0.1537 -0.0985
  605DOPC   NC3 7089  11.300  20.087  13.732 -0.1834  0.2674  0.2126
  605DOPC   PO4 7090  11.199  19.801  13.476  0.0749  0.3350 -0.0297
  605DOPC   GL1 7091  11.219  19.700  13.106  0.0953  0.1320  0.2106
  605DOPC   GL2 7092  11.498  19.806  13.062 -0.1133  0.5127 -0.3241
  605DOPC   C1A 7093  11.028  19.628  12.652  0.2363 -0.1598 -0.0138
  605DOPC   D2A 7094  11.053  19.426  12.231 -0.1435 -0.2172 -0.1882
  605DOPC   C3A 7095  11.167  18.997  12.090 -0.2187  0.0026  0.0742
  605DOPC   C4A 7096  11.191  18.828  11.684 -0.2626 -0.0592  0.5195
  605DOPC   C1B 7097  11.510  19.793  12.655  0.0714  0.0958 -0.0879
  605DOPC   D2B 7098  11.484  19.666  12.225 -0.0481  0.3126  0.0405
  605DOPC   C3B 7099  11.652  19.277  12.053  0.0133  0.0192 -0.1972
  605DOPC   C4B 7100  11.684  18.852  12.131  0.3070  0.0486  0.2937
  606POSM   NC3 7101   0.509  17.116  13.966 -0.2513  0.0364  0.0218
  606POSM   PO4 7102   0.416  17.174  13.603  0.0457 -0.3791  0.0047
  606POSM   AM1 7103   0.382  17.196  13.291  0.0813 -0.1219  0.0664
  606POSM   AM2 7104   0.236  17.368  13.169  0.1397  0.1240  0.0609
  606POSM   T1A 7105   0.275  17.019  12.852 -0.2004  0.1205 -0.2346
  606POSM   C2A 7106   0.139  16.744  12.499  0.2223  0.1277  0.1582
  606POSM   C3A 7107  -0.087  16.945  12.098 -0.1188  0.1997 -0.2810
  606POSM   C1B 7108   0.294  17.552  12.881  0.0332 -0.1254 -0.0040
  606POSM   D2B 7109   0.577  17.626  12.499 -0.0776  0.0370 -0.0421
  606POSM   C3B 7110   0.907  17.944  12.620 -0.0709  0.0977  0.2947
  606POSM   C4B 7111   1.163  18.119  12.219  0.4983 -0.0690 -0.0733
  607POSM   NC3 7112  33.505  20.703  14.104 -0.0886  0.1530  0.1612
  607POSM   PO4 7113  33.517  20.812  13.751 -0.1295  0.0915  0.1085
  607POSM   AM1 7114  33.508  20.962  13.413  0.0053 -0.0824 -0.3080
  607POSM   AM2 7115  33.347  21.008  13.209 -0.0788 -0.1349  0.4470
  607POSM   T1A 7116  33.778  20.892  12.951  0.0208 -0.0520 -0.2490
  607POSM   C2A 7117  33.895  20.883  12.518 -0.2998 -0.1873  0.2777
  607POSM   C3A 7118  34.036  20.715  12.120 -0.0063 -0.0577 -0.3495
  607POSM   C1B 7119  33.323  21.222  12.903  0.1346 -0.0726 -0.0173
  607POSM   D2B 7120  33.618  21.296  12.548 -0.0514  0.0719  0.0672
  607POSM   C3B 7121  33.508  21.112  12.110 -0.3826 -0.0522 -0.1209
  607POSM   C4B 7122  33.419  21.171  11.724  0.0862 -0.2504  0.1770
  608DOPC   NC3 7123   4.463  14.588  13.764  0.0181 -0.0131 -0.4073
  608DOPC   PO4 7124   4.322  14.205  13.749 -0.2282 -0.2805  0.2559
  608DOPC   GL1 7125   4.441  14.326  13.319  0.0344 -0.2048 -0.1810
  608DOPC   GL2 7126   4.317  14.119  13.236 -0.1860  0.2999  0.0902
  608DOPC   C1A 7127   4.592  14.608  13.028  0.0105 -0.1843 -0.2482
  608DOPC   D2A 7128   4.776  14.876  12.692  0.1826  0.0523  0.2225
  608DOPC   C3A 7129   4.684  15.156  12.310  0.1483 -0.1511  0.1499
  608DOPC   C4A 7130   4.778  15.581  12.001 -0.1962  0.1020 -0.3519
  608DOPC   C1B 7131   4.554  14.169  12.785  0.0906  0.0583  0.0626
  608DOPC   D2B 7132   4.753  14.183  12.346 -0.1337  0.3216  0.1520
  608DOPC   C3B 7133   4.929  14.595  12.224 -0.1280 -0.0609 -0.1454
  608DOPC   C4B 7134   5.136  14.965  12.042 -0.0550  0.1221 -0.0022
  609DOPC   NC3 7135   5.205  14.954  13.993  0.1268 -0.0519  0.1579
  609DOPC   PO4 7136   4.928  14.664  13.913 -0.2320 -0.1239 -0.1561
  609DOPC   GL1 7137   4.955  14.763  13.481 -0.2352  0.3718 -0.2955
  609DOPC   GL2 7138   4.712  14.860  13.435  0.1706  0.0014 -0.0753
  609DOPC   C1A 7139   5.159  14.627  13.097  0.2538  0.2570 -0.1334
  609DOPC   D2A 7140   5.015  14.437  12.708 -0.0611  0.0272  0.0713
  609DOPC   C3A 7141   5.254  14.179  12.400 -0.1260 -0.1861  0.1263
  609DOPC   C4A 7142   5.316  13.781  12.286 -0.4854  0.0900 -0.0831
  609DOPC   C1B 7143   4.705  15.145  13.063 -0.0725 -0.1711 -0.1966
  609DOPC   D2B 7144   4.532  15.472  12.751  0.1187  0.2570  0.0263
  609DOPC   C3B 7145   4.811  15.808  12.607  0.2361 -0.0190 -0.1439
  609DOPC   C4B 7146   4.628  16.038  12.186 -0.1938  0.0360  0.1596
  610DOPS   CNO 7147   0.646  18.630  13.556  0.0639  0.0168  0.2780
  610DOPS   PO4 7148   0.637  18.573  13.193 -0.1874 -0.0219 -0.1342
  610DOPS   GL1 7149   0.409  18.520  12.826  0.0823  0.2564  0.1732
  610DOPS   GL2 7150   0.548  18.313  12.790  0.1311  0.2475 -0.1456
  610DOPS   C1A 7151   0.558  18.680  12.415  0.2251  0.0530  0.0483
  610DOPS   D2A 7152   0.910  18.754  12.123 -0.2355  0.1471  0.0156
  610DOPS   C3A 7153   1.267  19.001  12.078  0.0477 -0.1410 -0.0503
  610DOPS   C4A 7154   1.435  19.228  11.729  0.2437 -0.0050 -0.2061
  610DOPS   C1B 7155   0.199  18.239  12.423 -0.3408  0.0724  0.1063
  610DOPS   D2B 7156   0.173  18.208  11.953 -0.3135 -0.1086 -0.1448
  610DOPS   C3B 7157   0.043  18.013  11.537  0.0672  0.1089  0.1143
  610DOPS   C4B 7158  -0.059  17.643  11.241  0.1053  0.3420 -0.2977
  611DOPE   NH3 7159   4.702  12.064  14.242  0.0441 -0.0210 -0.0864
  611DOPE   PO4 7160   4.400  11.935  14.383 -0.0598  0.0992 -0.0498
  611DOPE   GL1 7161   4.422  11.896  13.954  0.2134 -0.0292 -0.4625
  611DOPE   GL2 7162   4.207  11.718  13.836  0.2981 -0.0573 -0.2074
  611DOPE   C1A 7163   4.526  11.863  13.517  0.0333 -0.1198  0.4633
  611DOPE   D2A 7164   4.676  11.614  13.126 -0.1822 -0.2743  0.0164
  611DOPE   C3A 7165   4.588  11.420  12.719  0.1139 -0.1726  0.1580
  611DOPE   C4A 7166   4.521  11.193  12.345  0.0412 -0.0152  0.0181
  611DOPE   C1B 7167   4.229  11.528  13.385 -0.0202  0.3050  0.0538
  611DOPE   D2B 7168   4.075  11.468  12.971  0.1516 -0.0706 -0.1085
  611DOPE   C3B 7169   4.153  11.156  12.646 -0.0479  0.3138  0.3774
  611DOPE   C4B 7170   4.209  10.773  12.421  0.2366 -0.0097 -0.0386
  612DOPS   CNO 7171   6.884  18.461  13.060  0.1100 -0.1457  0.3972
  612DOPS   PO4 7172   7.147  18.729  13.013 -0.1993  0.1638  0.0946
  612DOPS   GL1 7173   7.262  18.809  12.710 -0.2172  0.0786 -0.0755
  612DOPS   GL2 7174   7.492  18.634  12.550 -0.1262 -0.0656  0.2113
  612DOPS   C1A 7175   6.971  18.697  12.379  0.3582 -0.2526 -0.0238
  612DOPS   D2A 7176   6.744  18.400  12.086  0.1410  0.0434  0.1554
  612DOPS   C3A 7177   6.326  18.430  11.904 -0.1599  0.1049  0.2607
  612DOPS   C4A 7178   5.917  18.155  11.917 -0.1261  0.3632 -0.1834
  612DOPS   C1B 7179   7.448  18.431  12.160 -0.2036 -0.2337  0.1626
  612DOPS   D2B 7180   7.175  18.148  11.874  0.2501  0.2635 -0.0763
  612DOPS   C3B 7181   7.218  17.707  11.792  0.0826 -0.1589 -0.4404
  612DOPS   C4B 7182   7.397  17.321  11.943  0.2201  0.0712 -0.1490
  613DOPE   NH3 7183  10.308  14.077  11.317  0.0459 -0.1835 -0.0613
  613DOPE   PO4 7184  10.327  13.754  11.198 -0.3322 -0.5038  0.0293
  613DOPE   GL1 7185  10.361  13.551  11.559  0.1293 -0.1869  0.0042
  613DOPE   GL2 7186  10.316  13.757  11.753  0.1484 -0.2157  0.1255
  613DOPE   C1A 7187  10.416  13.136  11.803  0.1059  0.0039  0.0900
  613DOPE   D2A 7188  10.365  12.928  12.271  0.2051 -0.1924  0.1227
  613DOPE   C3A 7189  10.114  12.663  12.560  0.1159  0.0876  0.0377
  613DOPE   C4A 7190   9.809  12.791  12.918  0.0599  0.1566  0.3043
  613DOPE   C1B 7191  10.382  13.457  12.134  0.2610  0.0932 -0.2508
  613DOPE   D2B 7192  10.461  13.334  12.575 -0.0038 -0.0155  0.0490
  613DOPE   C3B 7193  10.238  13.141  12.870  0.1077  0.1041  0.0234
  613DOPE   C4B 7194  10.093  13.093  13.291 -0.1309 -0.2172  0.0700
  614DOPS   CNO 7195   1.095  15.864   9.844 -0.0880  0.0027  0.0861
  614DOPS   PO4 7196   1.360  15.624   9.699 -0.0842  0.0129  0.1939
  614DOPS   GL1 7197   1.300  15.503  10.047 -0.2474  0.0007  0.2995
  614DOPS   GL2 7198   1.031  15.404  10.017 -0.1076 -0.0392  0.1082
  614DOPS   C1A 7199   1.518  15.390  10.386 -0.0417 -0.2773 -0.0686
  614DOPS   D2A 7200   1.504  15.489  10.825  0.3046 -0.0729  0.2392
  614DOPS   C3A 7201   1.767  15.441  11.202  0.0392 -0.0853 -0.1260
  614DOPS   C4A 7202   1.838  15.462  11.671  0.1911  0.0792  0.0620
  614DOPS   C1B 7203   0.932  15.248  10.450 -0.1456  0.2085 -0.0095
  614DOPS   D2B 7204   0.864  15.152  10.878  0.0560 -0.0451  0.0111
  614DOPS   C3B 7205   1.254  15.120  11.143 -0.0493 -0.1314 -0.0997
  614DOPS   C4B 7206   1.306  15.171  11.609 -0.1259  0.0950  0.0947
  615DOPE   NH3 7207   6.885  13.781  10.270 -0.1485 -0.0297 -0.0756
  615DOPE   PO4 7208   6.935  14.002  10.460  0.2940  0.0143 -0.2852
  615DOPE   GL1 7209   7.075  14.169  10.787  0.2237  0.0475  0.0613
  615DOPE   GL2 7210   7.213  14.365  10.644  0.1921 -0.0848  0.3027
  615DOPE   C1A 7211   7.356  14.218  11.116 -0.2113  0.2435  0.1799
  615DOPE   D2A 7212   7.423  14.133  11.584  0.0413 -0.2659 -0.1932
  615DOPE   C3A 7213   7.395  13.714  11.739 -0.3058  0.0307  0.2798
  615DOPE   C4A 7214   7.541  13.422  11.445 -0.1709  0.1212  0.0587
  615DOPE   C1B 7215   7.000  14.547  11.022 -0.1704 -0.2737  0.0629
  615DOPE   D2B 7216   6.777  14.422  11.423  0.0992 -0.3138  0.2267
  615DOPE   C3B 7217   7.015  14.328  11.802 -0.1401  0.1003  0.1419
  615DOPE   C4B 7218   7.163  14.347  12.222  0.0405  0.1838  0.2835
  616DOPE   NH3 7219   9.431  13.493  10.688 -0.1278 -0.0275  0.1818
  616DOPE   PO4 7220   9.567  13.650  10.823 -0.0139  0.1494 -0.2604
  616DOPE   GL1 7221   9.606  13.768  11.230 -0.0648  0.0137 -0.5208
  616DOPE   GL2 7222   9.778  13.689  11.294 -0.0799  0.2570  0.3350
  616DOPE   C1A 7223   9.419  13.672  11.604 -0.0892 -0.1535 -0.0086
  616DOPE   D2A 7224   9.345  13.502  11.995 -0.0859  0.1530  0.1936
  616DOPE   C3A 7225   9.539  13.200  12.233  0.1242  0.0244 -0.3753
  616DOPE   C4A 7226   9.893  13.174  12.521  0.0835  0.1742  0.3500
  616DOPE   C1B 7227   9.856  13.335  11.589  0.2990  0.1234 -0.1159
  616DOPE   D2B 7228   9.922  13.193  11.968 -0.1264 -0.1921  0.0923
  616DOPE   C3B 7229   9.794  12.799  12.111 -0.1231  0.0916  0.2136
  616DOPE   C4B 7230   9.506  12.470  11.979 -0.3149 -0.1104  0.0373
  617DOPC   NC3 7231   8.788  14.145  10.998 -0.0318  0.1606  0.0757
  617DOPC   PO4 7232   8.780  14.271  10.633  0.3237  0.1830  0.2191
  617DOPC   GL1 7233   8.599  14.559  10.876 -0.2827  0.3282 -0.3260
  617DOPC   GL2 7234   8.406  14.707  10.780 -0.3041  0.0491 -0.1798
  617DOPC   C1A 7235   8.716  14.541  11.348 -0.0081 -0.2742 -0.1542
  617DOPC   D2A 7236   9.009  14.555  11.759 -0.0604 -0.0806  0.0786
  617DOPC   C3A 7237   9.005  14.113  11.931  0.2749  0.0354 -0.1522
  617DOPC   C4A 7238   9.195  13.921  12.321 -0.1477  0.1952 -0.0199
  617DOPC   C1B 7239   8.362  14.993  11.147  0.1278 -0.0605  0.0396
  617DOPC   D2B 7240   8.269  15.336  11.438  0.1353 -0.0700  0.0145
  617DOPC   C3B 7241   8.310  15.301  11.890  0.0071  0.1156  0.1561
  617DOPC   C4B 7242   8.439  15.122  12.362 -0.0480  0.0446 -0.1434
  618DOPC   NC3 7243  33.992  21.113   9.820  0.0728 -0.0928 -0.2008
  618DOPC   PO4 7244  34.329  20.971   9.624  0.1747  0.1373  0.1491
  618DOPC   GL1 7245  34.347  20.917  10.057 -0.0792  0.0653  0.2166
  618DOPC   GL2 7246  34.348  21.168  10.267  0.2043  0.1999 -0.3016
  618DOPC   C1A 7247  33.900  20.903  10.286  0.1010 -0.0681  0.2299
  618DOPC   D2A 7248  33.501  20.766  10.456  0.0762 -0.0329 -0.0429
  618DOPC   C3A 7249  33.424  20.818  10.886  0.2110 -0.2869 -0.4576
  618DOPC   C4A 7250  33.065  20.832  11.152 -0.0980  0.1334  0.1488
  618DOPC   C1B 7251  34.172  21.063  10.678 -0.0852  0.1803  0.0624
  618DOPC   D2B 7252  33.952  20.919  11.061  0.1955  0.0757  0.0396
  618DOPC   C3B 7253  33.592  20.880  11.374  0.4007  0.2603 -0.1027
  618DOPC   C4B 7254  33.371  20.723  11.760 -0.3970  0.2162  0.2415
  619DOPE   NH3 7255  33.652  22.098   9.769 -0.0688 -0.1010  0.0095
  619DOPE   PO4 7256  33.550  22.031  10.104  0.2108  0.1262 -0.3082
  619DOPE   GL1 7257  33.390  21.918  10.416 -0.0839 -0.2428 -0.2813
  619DOPE   GL2 7258  33.131  21.994  10.401 -0.0889  0.3425 -0.2892
  619DOPE   C1A 7259  33.622  21.794  10.794  0.0219  0.2706 -0.1451
  619DOPE   D2A 7260  33.807  21.975  11.242 -0.0765 -0.2085 -0.1263
  619DOPE   C3A 7261  33.811  21.959  11.702  0.0656 -0.0188 -0.3316
  619DOPE   C4A 7262  33.991  22.302  11.972 -0.1138 -0.2520 -0.4992
  619DOPE   C1B 7263  33.086  21.748  10.772 -0.2666  0.3368 -0.1376
  619DOPE   D2B 7264  32.994  21.838  11.231  0.1433  0.0393 -0.1455
  619DOPE   C3B 7265  32.929  21.963  11.685 -0.4201 -0.2888  0.3249
  619DOPE   C4B 7266  33.047  22.347  11.851  0.1217 -0.0930  0.1317
  620DOPE   NH3 7267   9.958  20.264  10.138  0.0553  0.2283  0.3848
  620DOPE   PO4 7268  10.098  19.954  10.123 -0.0510 -0.0755  0.1802
  620DOPE   GL1 7269   9.997  19.724  10.414  0.2700  0.3560 -0.2997
  620DOPE   GL2 7270   9.863  19.481  10.492 -0.0801 -0.0887 -0.1671
  620DOPE   C1A 7271   9.751  19.903  10.782  0.0349 -0.1175 -0.1103
  620DOPE   D2A 7272   9.642  20.249  11.013  0.0862 -0.1878 -0.3778
  620DOPE   C3A 7273   9.437  20.136  11.433  0.1285 -0.1545  0.1028
  620DOPE   C4A 7274   9.381  19.740  11.702  0.1194 -0.1974 -0.1382
  620DOPE   C1B 7275   9.879  19.472  10.939  0.0864  0.0000 -0.1760
  620DOPE   D2B 7276   9.688  19.749  11.277 -0.0203  0.0810 -0.0771
  620DOPE   C3B 7277   9.875  19.820  11.677 -0.1593  0.0195  0.1172
  620DOPE   C4B 7278  10.088  20.111  11.961  0.0344  0.2804 -0.2827
  621DOPE   NH3 7279   5.562  14.024  10.188  0.1233 -0.3118 -0.1983
  621DOPE   PO4 7280   5.441  14.251  10.352 -0.0784  0.3130 -0.0557
  621DOPE   GL1 7281   5.439  14.412  10.644 -0.1375 -0.0578  0.1500
  621DOPE   GL2 7282   5.730  14.396  10.842  0.2479 -0.1749  0.1727
  621DOPE   C1A 7283   5.152  14.669  10.933 -0.2712 -0.1924 -0.1489
  621DOPE   D2A 7284   5.008  14.726  11.373 -0.2030 -0.0135  0.0350
  621DOPE   C3A 7285   4.750  14.507  11.625 -0.1386 -0.0109  0.0890
  621DOPE   C4A 7286   4.611  14.105  11.537 -0.3064  0.0123 -0.0275
  621DOPE   C1B 7287   5.838  14.062  11.189 -0.5287  0.0926 -0.1567
  621DOPE   D2B 7288   6.143  13.758  11.264 -0.2333 -0.2732  0.2953
  621DOPE   C3B 7289   5.749  13.465  11.383 -0.1252 -0.2049  0.1273
  621DOPE   C4B 7290   5.532  13.079  11.535  0.1638 -0.2129 -0.1995
  622POSM   NC3 7291   1.198  24.020   9.549  0.2725 -0.1771  0.0445
  622POSM   PO4 7292   0.869  23.828   9.652 -0.0552 -0.3312 -0.0584
  622POSM   AM1 7293   0.991  23.720   9.957 -0.0897  0.0566 -0.0715
  622POSM   AM2 7294   0.998  23.760  10.294  0.1097 -0.2626  0.0506
  622POSM   T1A 7295   1.293  23.446  10.211 -0.0447  0.1697 -0.0472
  622POSM   C2A 7296   1.628  23.366  10.471  0.1174 -0.0153  0.1368
  622POSM   C3A 7297   1.730  23.584  10.897 -0.1252  0.0109 -0.2003
  622POSM   C1B 7298   0.807  23.605  10.515  0.3068  0.0315 -0.0330
  622POSM   D2B 7299   0.739  23.809  10.935 -0.0563  0.2261  0.0099
  622POSM   C3B 7300   0.827  23.727  11.377  0.2152  0.0256  0.0579
  622POSM   C4B 7301   0.794  23.967  11.841  0.0950  0.3111  0.1460
  623DOPE   NH3 7302   1.821  17.564   9.416  0.1512 -0.1257 -0.0201
  623DOPE   PO4 7303   1.681  17.752   9.669 -0.1608  0.0639 -0.1911
  623DOPE   GL1 7304   1.633  17.822  10.068  0.2201  0.2364  0.1486
  623DOPE   GL2 7305   1.807  17.639  10.195 -0.3175  0.1277  0.0667
  623DOPE   C1A 7306   1.504  17.964  10.468  0.0860  0.3764 -0.1134
  623DOPE   D2A 7307   1.570  18.405  10.672 -0.2848  0.0455  0.0520
  623DOPE   C3A 7308   1.809  18.234  11.080  0.0080  0.0134  0.0481
  623DOPE   C4A 7309   2.088  18.227  11.474 -0.1920  0.0455 -0.1685
  623DOPE   C1B 7310   1.983  17.823  10.582 -0.4556 -0.1569  0.1881
  623DOPE   D2B 7311   2.199  17.902  11.024  0.1839  0.0255  0.1853
  623DOPE   C3B 7312   2.652  18.054  10.991 -0.1076 -0.2596 -0.0267
  623DOPE   C4B 7313   3.103  17.847  10.838  0.1361 -0.0039  0.0652
  624POSM   NC3 7314   8.923  17.827   9.796  0.1076  0.0549  0.0774
  624POSM   PO4 7315   9.298  17.949   9.872 -0.1076  0.0764  0.0068
  624POSM   AM1 7316   9.319  17.998  10.212  0.1826 -0.5378 -0.2359
  624POSM   AM2 7317   9.252  17.868  10.468  0.4682  0.5581 -0.3634
  624POSM   T1A 7318   9.324  18.319  10.584  0.1791 -0.0409 -0.1318
  624POSM   C2A 7319   9.317  18.710  10.830 -0.2097  0.1294 -0.2296
  624POSM   C3A 7320   9.067  19.074  10.870  0.1113  0.1233 -0.3835
  624POSM   C1B 7321   9.027  17.635  10.584 -0.0693 -0.2832  0.2391
  624POSM   D2B 7322   8.631  17.472  10.708 -0.1945  0.1915  0.1309
  624POSM   C3B 7323   8.430  17.482  11.097  0.2047 -0.1047 -0.0536
  624POSM   C4B 7324   8.121  17.510  11.467  0.1948  0.2803 -0.2718
  625POSM   NC3 7325   2.912  11.779  10.012 -0.2338  0.1949  0.2878
  625POSM   PO4 7326   3.275  11.687  10.174 -0.2296  0.0950 -0.1049
  625POSM   AM1 7327   3.184  11.730  10.460 -0.1681  0.0288  0.0058
  625POSM   AM2 7328   2.943  11.772  10.606  0.1513  0.1453 -0.0977
  625POSM   T1A 7329   3.218  11.491  10.945  0.0941  0.2543  0.0541
  625POSM   C2A 7330   3.228  11.331  11.414  0.0055  0.0045 -0.1056
  625POSM   C3A 7331   3.047  11.399  11.840  0.0666 -0.2813 -0.1008
  625POSM   C1B 7332   2.823  11.751  10.927  0.1771 -0.0053  0.0211
  625POSM   D2B 7333   2.782  11.777  11.358  0.1765  0.3518  0.0515
  625POSM   C3B 7334   3.068  11.976  11.667  0.2610  0.0781  0.1704
  625POSM   C4B 7335   3.163  11.875  12.143 -0.0562  0.0342 -0.0270
  626DOPC   NC3 7336   7.316  20.243   9.785 -0.1667  0.1546 -0.1128
  626DOPC   PO4 7337   7.288  19.850   9.722 -0.0927 -0.1356 -0.1452
  626DOPC   GL1 7338   7.412  19.651  10.037  0.1996  0.0718  0.1722
  626DOPC   GL2 7339   7.210  19.446  10.008  0.3913  0.3499  0.0466
  626DOPC   C1A 7340   7.793  19.508  10.246  0.1678 -0.4191  0.0879
  626DOPC   D2A 7341   8.018  19.429  10.633  0.1361  0.0817  0.2997
  626DOPC   C3A 7342   8.187  19.435  11.074  0.0957  0.0410 -0.1794
  626DOPC   C4A 7343   8.061  19.358  11.502 -0.0051  0.3155 -0.1941
  626DOPC   C1B 7344   7.272  19.186  10.303  0.2790  0.0061 -0.2129
  626DOPC   D2B 7345   7.424  18.761  10.359  0.1029 -0.1266 -0.0007
  626DOPC   C3B 7346   7.597  18.549  10.638  0.3702  0.2076 -0.4761
  626DOPC   C4B 7347   7.531  18.205  10.971 -0.3429  0.2345 -0.1084
  627DOPC   NC3 7348   2.716  20.058   9.895 -0.0318 -0.0028 -0.2948
  627DOPC   PO4 7349   3.094  20.026   9.829 -0.0393  0.0733  0.3785
  627DOPC   GL1 7350   3.193  19.844  10.119  0.3586  0.1296 -0.1523
  627DOPC   GL2 7351   3.469  19.979  10.216 -0.2014  0.1666  0.1692
  627DOPC   C1A 7352   3.184  19.977  10.607  0.1391 -0.0688 -0.0783
  627DOPC   D2A 7353   3.022  20.247  10.839 -0.0870 -0.1246 -0.2059
  627DOPC   C3A 7354   2.967  20.128  11.278 -0.0086 -0.0851 -0.1493
  627DOPC   C4A 7355   2.682  20.354  11.554 -0.2197 -0.1552  0.1680
  627DOPC   C1B 7356   3.435  19.592  10.499 -0.0257  0.0736  0.0785
  627DOPC   D2B 7357   3.620  19.219  10.733 -0.0833 -0.0572  0.1296
  627DOPC   C3B 7358   3.687  19.329  11.186  0.3566  0.2032  0.0548
  627DOPC   C4B 7359   3.755  19.520  11.579  0.2211  0.1694  0.1099
  628DOPC   NC3 7360   2.346  15.391   9.744 -0.0463 -0.1024 -0.1387
  628DOPC   PO4 7361   2.330  15.703   9.976  0.1223 -0.1157 -0.0218
  628DOPC   GL1 7362   2.421  15.761  10.408  0.5891  0.2541 -0.0436
  628DOPC   GL2 7363   2.588  16.055  10.336 -0.1360  0.3168  0.0039
  628DOPC   C1A 7364   2.475  15.508  10.798  0.4385 -0.0824 -0.0753
  628DOPC   D2A 7365   2.368  15.262  11.191 -0.0822 -0.1364  0.5591
  628DOPC   C3A 7366   2.696  15.143  11.473  0.0438  0.1826  0.0186
  628DOPC   C4A 7367   2.679  14.854  11.790 -0.0377  0.2766  0.3415
  628DOPC   C1B 7368   2.473  16.027  10.809 -0.3542  0.4120  0.0909
  628DOPC   D2B 7369   2.378  15.783  11.192  0.1104 -0.2322 -0.5705
  628DOPC   C3B 7370   2.650  15.804  11.576  0.2680  0.1342  0.3518
  628DOPC   C4B 7371   3.132  15.885  11.657 -0.2655  0.0046 -0.2446
  629DOPE   NH3 7372   5.834  12.993  10.733 -0.0064  0.0228  0.1436
  629DOPE   PO4 7373   6.094  12.911  10.681  0.1531  0.1436  0.0754
  629DOPE   GL1 7374   6.170  12.953  11.032 -0.2152  0.1543 -0.2810
  629DOPE   GL2 7375   6.020  12.657  11.140  0.1893 -0.4677 -0.1244
  629DOPE   C1A 7376   6.150  13.127  11.449  0.2275 -0.0889  0.1744
  629DOPE   D2A 7377   6.046  13.442  11.776 -0.0824 -0.2593  0.2717
  629DOPE   C3A 7378   6.029  13.547  12.223 -0.2128 -0.3167 -0.0011
  629DOPE   C4A 7379   6.087  13.526  12.695 -0.2347 -0.1080 -0.1132
  629DOPE   C1B 7380   6.262  12.454  11.445  0.5081 -0.1418  0.0972
  629DOPE   D2B 7381   6.273  12.638  11.894  0.0790 -0.0097  0.3023
  629DOPE   C3B 7382   5.891  12.763  12.052 -0.1443 -0.1781  0.0648
  629DOPE   C4B 7383   5.454  12.742  11.955 -0.0888  0.2441  0.2035
  630POSM   NC3 7384   5.968   8.586  10.054  0.0630 -0.0551 -0.2082
  630POSM   PO4 7385   5.703   8.801  10.191 -0.0178 -0.2115 -0.0039
  630POSM   AM1 7386   5.690   8.856  10.539  0.2157 -0.0043  0.0372
  630POSM   AM2 7387   5.449   8.910  10.697  0.0698  0.1917 -0.0092
  630POSM   T1A 7388   5.738   8.710  11.000  0.1431 -0.1644 -0.1982
  630POSM   C2A 7389   5.963   8.813  11.398  0.1974 -0.0631 -0.0670
  630POSM   C3A 7390   6.193   8.668  11.724 -0.1979 -0.3259  0.1047
  630POSM   C1B 7391   5.211   9.016  10.901  0.1547  0.3157  0.5648
  630POSM   D2B 7392   4.805   8.915  11.087 -0.2644  0.2236  0.1013
  630POSM   C3B 7393   4.898   8.755  11.520 -0.3684 -0.2142  0.1803
  630POSM   C4B 7394   5.053   8.785  11.936  0.0673 -0.0970 -0.0843
  631DOPE   NH3 7395  34.519  24.284   9.342 -0.1196 -0.0886  0.1392
  631DOPE   PO4 7396  34.626  24.266   9.646 -0.3753 -0.1397 -0.1869
  631DOPE   GL1 7397  34.432  24.433   9.848  0.2685 -0.1476 -0.3545
  631DOPE   GL2 7398  34.354  24.698   9.998  0.2053  0.0672  0.1418
  631DOPE   C1A 7399  34.440  24.314  10.316  0.3940  0.2773  0.1625
  631DOPE   D2A 7400  34.193  24.279  10.739 -0.0432  0.0510 -0.2722
  631DOPE   C3A 7401  34.247  24.640  11.090  0.0058  0.2269 -0.1766
  631DOPE   C4A 7402  34.193  24.926  11.448 -0.3278  0.0843 -0.2754
  631DOPE   C1B 7403  34.038  24.395  10.069 -0.1748 -0.1750  0.2906
  631DOPE   D2B 7404  33.960  24.083  10.346  0.0238  0.0791 -0.1749
  631DOPE   C3B 7405  33.642  24.264  10.650 -0.1356 -0.1631  0.0125
  631DOPE   C4B 7406  33.772  24.295  11.085  0.0853 -0.0449  0.0118
  632DOPC   NC3 7407   9.565  10.176  11.104  0.0862  0.5627 -0.1508
  632DOPC   PO4 7408   9.252   9.963  10.999  0.3297  0.1007  0.2166
  632DOPC   GL1 7409   9.146  10.124  11.359  0.2692 -0.0234  0.3843
  632DOPC   GL2 7410   8.852  10.227  11.304 -0.0304  0.1133  0.2159
  632DOPC   C1A 7411   9.114   9.986  11.785  0.0990 -0.1178 -0.1872
  632DOPC   D2A 7412   9.108  10.062  12.216 -0.1189 -0.0083  0.0710
  632DOPC   C3A 7413   9.001  10.464  12.436 -0.1066  0.0823  0.0573
  632DOPC   C4A 7414   9.104  10.585  12.825  0.1090 -0.0253  0.0684
  632DOPC   C1B 7415   8.532  10.052  11.599 -0.1719  0.0335  0.1144
  632DOPC   D2B 7416   8.509   9.744  11.841 -0.0974 -0.1886 -0.0712
  632DOPC   C3B 7417   8.137   9.467  11.898  0.0764  0.0287  0.2430
  632DOPC   C4B 7418   7.783   9.428  12.188  0.0811  0.1428 -0.1152
  633POSM   NC3 7419   6.867  11.966  10.384 -0.1103 -0.0068  0.4561
  633POSM   PO4 7420   7.250  12.122  10.499 -0.0439  0.2620  0.2229
  633POSM   AM1 7421   7.232  11.885  10.746 -0.0670  0.1136 -0.1913
  633POSM   AM2 7422   7.116  11.640  10.746  0.1108  0.2460  0.2134
  633POSM   T1A 7423   7.504  11.765  11.150  0.0745 -0.3397  0.0800
  633POSM   C2A 7424   7.659  11.728  11.612  0.1398 -0.0692 -0.1448
  633POSM   C3A 7425   7.746  11.694  12.075 -0.1571  0.0578  0.0529
  633POSM   C1B 7426   7.046  11.527  11.074  0.1427 -0.0085 -0.0696
  633POSM   D2B 7427   7.125  11.545  11.533 -0.0564 -0.1400  0.0961
  633POSM   C3B 7428   6.926  11.777  11.879 -0.3846 -0.1135  0.0393
  633POSM   C4B 7429   6.826  12.108  12.133  0.0052 -0.1250 -0.2082
  634DOPE   NH3 7430   9.706  16.833  10.072 -0.1745  0.0695  0.0924
  634DOPE   PO4 7431   9.509  17.073  10.165  0.2452  0.0665 -0.1234
  634DOPE   GL1 7432   9.505  17.340  10.533  0.0600  0.0485  0.0867
  634DOPE   GL2 7433   9.762  17.266  10.689  0.1164 -0.0654  0.0740
  634DOPE   C1A 7434   9.305  17.363  10.962  0.0279  0.2547 -0.0643
  634DOPE   D2A 7435   8.983  17.630  11.087  0.2349  0.1049  0.1033
  634DOPE   C3A 7436   8.743  17.713  11.491 -0.1253 -0.1517  0.2432
  634DOPE   C4A 7437   8.814  17.897  11.939 -0.0326  0.2043  0.0141
  634DOPE   C1B 7438   9.793  17.416  11.138 -0.0680 -0.0757 -0.0285
  634DOPE   D2B 7439   9.645  17.343  11.567 -0.1355 -0.2621  0.1270
  634DOPE   C3B 7440   9.748  16.846  11.597  0.3070  0.3800  0.1075
  634DOPE   C4B 7441   9.883  16.508  11.888 -0.6670 -0.1548 -0.0019
  635DOPE   NH3 7442  31.945  18.514   9.812  0.0811 -0.1395 -0.0050
  635DOPE   PO4 7443  32.021  18.668  10.064 -0.1530 -0.2036 -0.3309
  635DOPE   GL1 7444  32.022  18.504  10.405 -0.1558 -0.3300 -0.0984
  635DOPE   GL2 7445  31.851  18.297  10.307 -0.1493  0.6195 -0.1550
  635DOPE   C1A 7446  31.806  18.570  10.812  0.0313  0.1199 -0.0072
  635DOPE   D2A 7447  31.569  18.383  11.162 -0.1935 -0.2496 -0.0855
  635DOPE   C3A 7448  31.796  18.251  11.539 -0.1609 -0.1189 -0.0078
  635DOPE   C4A 7449  32.001  18.039  11.921  0.0430  0.0515  0.3259
  635DOPE   C1B 7450  31.428  18.357  10.542 -0.3014  0.1846  0.0606
  635DOPE   D2B 7451  31.169  18.533  10.898 -0.0351  0.0606 -0.2700
  635DOPE   C3B 7452  31.164  18.562  11.357 -0.1245 -0.1827  0.2591
  635DOPE   C4B 7453  30.836  18.643  11.725 -0.0897 -0.1650 -0.0503
  636DOPC   NC3 7454  34.272  16.736   9.971 -0.1473  0.2249  0.0150
  636DOPC   PO4 7455  33.894  16.677   9.860  0.0802  0.2569  0.2025
  636DOPC   GL1 7456  33.830  16.743  10.158  0.2374 -0.1563  0.0766
  636DOPC   GL2 7457  33.971  16.620  10.392  0.1635  0.3137  0.1855
  636DOPC   C1A 7458  33.809  17.070  10.502 -0.3472 -0.1962 -0.3260
  636DOPC   D2A 7459  33.586  17.466  10.642 -0.0948 -0.2834 -0.1557
  636DOPC   C3A 7460  33.651  17.856  10.917 -0.4060  0.0706 -0.1226
  636DOPC   C4A 7461  33.817  17.989  11.332  0.0675  0.2511  0.0869
  636DOPC   C1B 7462  33.766  16.450  10.775 -0.0684 -0.0125 -0.3113
  636DOPC   D2B 7463  33.703  16.653  11.175  0.0622 -0.1578  0.0525
  636DOPC   C3B 7464  33.992  16.854  11.574  0.1569 -0.0354 -0.2522
  636DOPC   C4B 7465  34.383  17.101  11.658  0.0890  0.2837  0.0550
  637DOPE   NH3 7466  34.591  19.539   9.633 -0.1778  0.0954  0.0095
  637DOPE   PO4 7467  34.538  19.246   9.577 -0.0851  0.0065  0.1351
  637DOPE   GL1 7468  34.507  19.236   9.957  0.0102 -0.4927 -0.3476
  637DOPE   GL2 7469  34.483  19.511  10.125 -0.2955  0.0314  0.1025
  637DOPE   C1A 7470  34.309  18.943  10.305 -0.1456 -0.0754 -0.0953
  637DOPE   D2A 7471  34.112  18.619  10.539 -0.0341 -0.2271 -0.3933
  637DOPE   C3A 7472  34.257  18.165  10.682 -0.3195 -0.0982  0.0759
  637DOPE   C4A 7473  34.184  17.863  11.031 -0.2261 -0.0132 -0.1128
  637DOPE   C1B 7474  34.567  19.489  10.559 -0.1910 -0.0833 -0.2216
  637DOPE   D2B 7475  34.771  19.726  10.947  0.3124  0.1717 -0.0805
  637DOPE   C3B 7476  35.145  19.520  11.151 -0.1763 -0.2816  0.2392
  637DOPE   C4B 7477  35.225  19.206  11.514 -0.1791 -0.2460  0.0110
  638POSM   NC3 7478   3.735  14.127   9.081  0.2416  0.1543 -0.2258
  638POSM   PO4 7479   3.609  13.994   9.447  0.0488 -0.2025  0.3684
  638POSM   AM1 7480   3.418  14.170   9.674  0.0894  0.1908 -0.2418
  638POSM   AM2 7481   3.493  14.341   9.824  0.0162 -0.2661 -0.1787
  638POSM   T1A 7482   3.120  14.053  10.058 -0.0688 -0.0472  0.0983
  638POSM   C2A 7483   2.990  14.038  10.513 -0.0024 -0.0046  0.0609
  638POSM   C3A 7484   2.592  13.997  10.691 -0.0312  0.0497  0.3537
  638POSM   C1B 7485   3.587  14.226  10.100 -0.0438 -0.2536 -0.1949
  638POSM   D2B 7486   3.480  14.257  10.549  0.0870  0.1680 -0.0492
  638POSM   C3B 7487   3.204  14.207  10.922 -0.0578  0.2896  0.2308
  638POSM   C4B 7488   3.351  14.204  11.374 -0.0887 -0.0859  0.1400
  639DOPC   NC3 7489   5.910  18.355   9.736  0.1746  0.1867 -0.2376
  639DOPC   PO4 7490   5.643  18.590   9.598  0.2917  0.0393 -0.1861
  639DOPC   GL1 7491   5.565  18.634   9.967 -0.0444  0.0224 -0.1268
  639DOPC   GL2 7492   5.846  18.871  10.053  0.0684 -0.2575 -0.0401
  639DOPC   C1A 7493   5.785  18.536  10.381  0.1117 -0.1329 -0.1452
  639DOPC   D2A 7494   5.679  18.708  10.758 -0.0371  0.1217 -0.1958
  639DOPC   C3A 7495   5.890  18.684  11.169  0.1189  0.4367  0.1496
  639DOPC   C4A 7496   6.087  18.539  11.491 -0.1424 -0.1402  0.3740
  639DOPC   C1B 7497   5.719  19.041  10.435 -0.0552  0.0253 -0.0480
  639DOPC   D2B 7498   5.416  19.122  10.809  0.0617 -0.1945  0.1773
  639DOPC   C3B 7499   5.615  19.120  11.240  0.0673 -0.3603 -0.0556
  639DOPC   C4B 7500   5.947  19.033  11.548  0.0761 -0.1328  0.3446
  640POSM   NC3 7501   5.693  21.252  10.067  0.1121  0.0924 -0.0594
  640POSM   PO4 7502   5.911  21.251   9.714  0.2139 -0.0543 -0.1220
  640POSM   AM1 7503   6.148  21.270   9.972 -0.0700 -0.1068 -0.2122
  640POSM   AM2 7504   6.210  21.134  10.209  0.5768  0.2369  0.2528
  640POSM   T1A 7505   6.488  21.537  10.273  0.1262  0.1062  0.3386
  640POSM   C2A 7506   6.888  21.665  10.415  0.1116  0.2914 -0.0957
  640POSM   C3A 7507   7.336  21.657  10.286 -0.0975 -0.3018  0.1009
  640POSM   C1B 7508   6.078  21.021  10.470 -0.1267  0.0449  0.2331
  640POSM   D2B 7509   5.804  21.023  10.830  0.0679 -0.2487 -0.2022
  640POSM   C3B 7510   5.407  20.956  11.013  0.2677  0.0804 -0.1726
  640POSM   C4B 7511   4.928  20.897  11.111  0.0610 -0.0792 -0.1271
  641DOPE   NH3 7512   6.167  10.859  10.684 -0.1090  0.0355  0.0727
  641DOPE   PO4 7513   5.928  10.977  10.530  0.1831  0.0838  0.0723
  641DOPE   GL1 7514   5.783  11.116  10.927 -0.2471  0.1688 -0.2999
  641DOPE   GL2 7515   6.070  11.106  11.121 -0.1495  0.2459 -0.0048
  641DOPE   C1A 7516   5.638  11.108  11.395 -0.1706 -0.1422  0.0210
  641DOPE   D2A 7517   5.695  11.494  11.603 -0.3299 -0.0794  0.2987
  641DOPE   C3A 7518   5.339  11.745  11.813  0.1451 -0.0250  0.1397
  641DOPE   C4A 7519   4.960  11.708  12.043 -0.1294  0.3545 -0.3843
  641DOPE   C1B 7520   6.211  11.213  11.522  0.1619  0.0002  0.3415
  641DOPE   D2B 7521   5.912  11.217  11.888 -0.4111 -0.3212 -0.3300
  641DOPE   C3B 7522   5.903  11.216  12.354  0.0572 -0.2839  0.0920
  641DOPE   C4B 7523   5.576  11.161  12.675  0.1415  0.1197 -0.0742
  642DOPC   NC3 7524   6.130  15.136   9.972  0.0358  0.2559  0.0371
  642DOPC   PO4 7525   5.801  14.970  10.084  0.2167  0.1485 -0.0188
  642DOPC   GL1 7526   5.870  15.062  10.412  0.3392 -0.2175 -0.0672
  642DOPC   GL2 7527   6.110  15.161  10.465 -0.3023  0.2779  0.2167
  642DOPC   C1A 7528   5.771  15.235  10.864  0.1212  0.0239  0.0996
  642DOPC   D2A 7529   5.582  15.293  11.280  0.1533  0.2000 -0.0905
  642DOPC   C3A 7530   5.414  14.940  11.536 -0.1163  0.0885 -0.2238
  642DOPC   C4A 7531   5.281  14.570  11.801  0.0814 -0.2367  0.1257
  642DOPC   C1B 7532   6.429  15.038  10.792 -0.5682  0.0301 -0.1458
  642DOPC   D2B 7533   6.490  14.763  11.164 -0.0246  0.0202  0.2702
  642DOPC   C3B 7534   6.465  14.705  11.687 -0.0586  0.4664 -0.2797
  642DOPC   C4B 7535   6.438  14.466  12.100  0.2329 -0.1782  0.1190
  643DOPE   NH3 7536  12.006  10.880  10.898  0.0547  0.0981 -0.1455
  643DOPE   PO4 7537  12.036  11.147  11.057 -0.0938  0.1730  0.3894
  643DOPE   GL1 7538  11.988  11.257  11.424 -0.0988 -0.1176 -0.2791
  643DOPE   GL2 7539  11.689  11.349  11.372 -0.0851  0.1458  0.0601
  643DOPE   C1A 7540  12.104  11.056  11.796 -0.0289  0.2379 -0.3647
  643DOPE   D2A 7541  12.057  11.106  12.289 -0.0950  0.1350  0.1188
  643DOPE   C3A 7542  11.670  10.979  12.547 -0.3864  0.0019  0.3197
  643DOPE   C4A 7543  11.433  10.825  12.878  0.0370 -0.1086  0.0340
  643DOPE   C1B 7544  11.810  11.429  11.778  0.0321 -0.2116 -0.0591
  643DOPE   D2B 7545  11.851  11.752  12.174  0.0334 -0.1372  0.2413
  643DOPE   C3B 7546  11.575  11.921  12.494 -0.1084 -0.1700  0.6596
  643DOPE   C4B 7547  11.460  12.162  12.901 -0.0638 -0.4089  0.0270
  644POSM   NC3 7548  32.877  15.618   9.705  0.2609 -0.0303 -0.0689
  644POSM   PO4 7549  33.180  15.810   9.903 -0.0152  0.2346 -0.0340
  644POSM   AM1 7550  33.155  16.029  10.167 -0.5164  0.0911 -0.0423
  644POSM   AM2 7551  32.982  16.025  10.366  0.3168 -0.0679 -0.0895
  644POSM   T1A 7552  32.997  16.500  10.289  0.1159 -0.0180  0.1257
  644POSM   C2A 7553  32.867  16.928  10.297  0.1551 -0.3933  0.0908
  644POSM   C3A 7554  32.858  17.246  10.599 -0.0080 -0.0030 -0.1290
  644POSM   C1B 7555  32.983  15.762  10.626 -0.1478 -0.2895 -0.1257
  644POSM   D2B 7556  33.035  15.490  11.000 -0.0077  0.2142  0.0011
  644POSM   C3B 7557  33.304  15.578  11.362  0.3851 -0.1441 -0.3015
  644POSM   C4B 7558  33.417  15.739  11.831  0.1745  0.1149  0.1613
  645DOPC   NC3 7559   7.197  17.129  10.116  0.0038 -0.0398 -0.2338
  645DOPC   PO4 7560   6.937  16.797  10.029  0.2385 -0.0813 -0.2345
  645DOPC   GL1 7561   6.935  16.830  10.339  0.1512 -0.3617  0.1407
  645DOPC   GL2 7562   6.715  16.677  10.484  0.3132 -0.1895 -0.2577
  645DOPC   C1A 7563   6.953  17.153  10.707 -0.3821  0.2649 -0.4925
  645DOPC   D2A 7564   6.937  17.465  11.062  0.2360 -0.0905 -0.0173
  645DOPC   C3A 7565   7.031  17.834  11.286 -0.2144  0.2672  0.1585
  645DOPC   C4A 7566   7.111  18.273  11.150 -0.2255 -0.0135 -0.0574
  645DOPC   C1B 7567   6.688  16.639  10.993  0.3540 -0.3371 -0.0480
  645DOPC   D2B 7568   6.310  16.618  11.289 -0.4309  0.0737  0.2880
  645DOPC   C3B 7569   6.477  16.254  11.497 -0.0302  0.0943  0.0273
  645DOPC   C4B 7570   6.587  15.782  11.684  0.3992 -0.4407  0.3679
  646POSM   NC3 7571   8.887  10.286  10.798 -0.2580 -0.1673 -0.2546
  646POSM   PO4 7572   8.479  10.195  10.896  0.0834 -0.2802 -0.0652
  646POSM   AM1 7573   8.524   9.898  11.065 -0.0504 -0.0911 -0.5208
  646POSM   AM2 7574   8.743   9.766  11.202 -0.2664 -0.1712 -0.0750
  646POSM   T1A 7575   8.328   9.597  11.411 -0.0916 -0.0795 -0.2407
  646POSM   C2A 7576   7.953   9.244  11.474 -0.2132 -0.1136  0.2851
  646POSM   C3A 7577   7.761   9.009  11.821  0.1150 -0.1337 -0.1668
  646POSM   C1B 7578   8.898   9.560  11.486 -0.3247  0.1289  0.0298
  646POSM   D2B 7579   8.994   9.439  11.887 -0.1871  0.0581 -0.0339
  646POSM   C3B 7580   9.024   9.592  12.321 -0.2157  0.0930 -0.0037
  646POSM   C4B 7581   9.190   9.408  12.733  0.1745 -0.5314 -0.0234
  647POSM   NC3 7582   0.427  18.663   9.269  0.0758 -0.2017 -0.0719
  647POSM   PO4 7583   0.635  18.569   9.569  0.0694  0.3464 -0.1179
  647POSM   AM1 7584   0.596  18.651   9.920 -0.3885  0.0848  0.0931
  647POSM   AM2 7585   0.569  18.905  10.022  0.0495 -0.2820 -0.0378
  647POSM   T1A 7586   0.630  18.557  10.418  0.0916  0.0255  0.1253
  647POSM   C2A 7587   0.577  18.859  10.767 -0.1661  0.3331  0.0398
  647POSM   C3A 7588   0.398  18.889  11.187 -0.0747  0.0099 -0.1637
  647POSM   C1B 7589   0.363  18.989  10.276  0.4999 -0.0194 -0.2943
  647POSM   D2B 7590   0.053  19.024  10.627  0.3478  0.1613 -0.0363
  647POSM   C3B 7591   0.050  19.234  11.031 -0.1573 -0.2589 -0.0907
  647POSM   C4B 7592   0.077  19.463  11.435 -0.2155  0.3983  0.1878
  648DOPC   NC3 7593   5.046  13.302  10.652 -0.0113  0.3806  0.1537
  648DOPC   PO4 7594   5.363  13.152  10.793 -0.0590 -0.1691  0.0020
  648DOPC   GL1 7595   5.330  13.105  11.111 -0.2381 -0.3084  0.1965
  648DOPC   GL2 7596   5.266  13.439  11.190  0.0884 -0.2114  0.1601
  648DOPC   C1A 7597   5.039  13.020  11.448 -0.1701 -0.1875  0.3462
  648DOPC   D2A 7598   4.838  12.779  11.718 -0.0226  0.2371  0.2784
  648DOPC   C3A 7599   4.599  12.924  12.083 -0.1057  0.1631  0.1515
  648DOPC   C4A 7600   4.740  13.038  12.501  0.2125  0.1485 -0.0658
  648DOPC   C1B 7601   4.889  13.556  11.340 -0.1284  0.2088 -0.1959
  648DOPC   D2B 7602   4.459  13.614  11.426  0.1327 -0.0582 -0.0181
  648DOPC   C3B 7603   4.344  13.769  11.838 -0.1615  0.3109  0.0469
  648DOPC   C4B 7604   4.426  13.894  12.270  0.0918  0.0529  0.4189
  649DOPE   NH3 7605   2.087  12.287  10.066 -0.0150 -0.1127 -0.0857
  649DOPE   PO4 7606   2.076  12.044  10.273  0.2370  0.2333 -0.0260
  649DOPE   GL1 7607   2.147  12.031  10.656  0.2801  0.3312  0.2450
  649DOPE   GL2 7608   1.900  11.924  10.747 -0.0799 -0.1020 -0.0059
  649DOPE   C1A 7609   2.374  12.228  10.991  0.1895  0.4968 -0.2581
  649DOPE   D2A 7610   2.456  12.426  11.426 -0.0639 -0.1412  0.0316
  649DOPE   C3A 7611   2.449  12.817  11.712 -0.2237 -0.0582 -0.0187
  649DOPE   C4A 7612   2.508  13.247  11.889 -0.1331 -0.1519  0.0582
  649DOPE   C1B 7613   1.838  12.194  11.064  0.1857  0.4327 -0.0580
  649DOPE   D2B 7614   1.898  12.497  11.372  0.0985  0.0233 -0.0628
  649DOPE   C3B 7615   2.128  12.404  11.796 -0.0906 -0.0428 -0.0311
  649DOPE   C4B 7616   2.021  11.993  11.959  0.2090 -0.2097  0.0884
  650POSM   NC3 7617   2.335  23.479   9.923 -0.1010 -0.0815 -0.3531
  650POSM   PO4 7618   2.522  23.811   9.855 -0.0909 -0.2476  0.0721
  650POSM   AM1 7619   2.497  23.895  10.153  0.1677  0.1253 -0.1200
  650POSM   AM2 7620   2.491  23.755  10.377  0.2213 -0.1080 -0.2962
  650POSM   T1A 7621   2.364  24.245  10.523  0.1413  0.2442  0.0756
  650POSM   C2A 7622   2.340  24.457  10.916  0.0784  0.0134 -0.0939
  650POSM   C3A 7623   2.565  24.572  11.383  0.1792  0.1940  0.0681
  650POSM   C1B 7624   2.568  23.697  10.740 -0.0579 -0.1823  0.0165
  650POSM   D2B 7625   2.727  23.611  11.212  0.2078 -0.3104 -0.0510
  650POSM   C3B 7626   3.124  23.338  11.121 -0.0215  0.2315 -0.1063
  650POSM   C4B 7627   3.238  22.916  10.922  0.3073  0.1411  0.1473
  651POSM   NC3 7628   3.555  13.218  10.427  0.1370  0.0197 -0.0422
  651POSM   PO4 7629   3.850  13.446  10.343 -0.2895  0.2751  0.2888
  651POSM   AM1 7630   4.032  13.707  10.440  0.0136  0.0137 -0.3730
  651POSM   AM2 7631   4.279  13.756  10.600 -0.1364  0.0463  0.0268
  651POSM   T1A 7632   4.000  14.218  10.420  0.0940  0.1243  0.1449
  651POSM   C2A 7633   3.805  14.614  10.542 -0.1343  0.0315 -0.0492
  651POSM   C3A 7634   3.631  14.914  10.819  0.0674  0.0513 -0.1112
  651POSM   C1B 7635   4.131  13.956  10.823 -0.0811 -0.0561 -0.2274
  651POSM   D2B 7636   4.138  13.990  11.292  0.0265  0.1849  0.0643
  651POSM   C3B 7637   3.861  14.245  11.563  0.0905 -0.0534  0.0478
  651POSM   C4B 7638   3.592  14.585  11.690  0.1807 -0.4583 -0.0502
  652DOPS   CNO 7639   6.509  16.738   9.696  0.0602  0.0339 -0.3826
  652DOPS   PO4 7640   6.381  16.773  10.059  0.2131  0.0064 -0.2074
  652DOPS   GL1 7641   6.292  16.922  10.369  0.4902 -0.1327  0.0454
  652DOPS   GL2 7642   6.491  17.167  10.370  0.1771 -0.0222  0.1055
  652DOPS   C1A 7643   6.213  16.659  10.745 -0.0930  0.3074 -0.2385
  652DOPS   D2A 7644   6.257  16.208  10.922 -0.1250  0.1954 -0.0315
  652DOPS   C3A 7645   5.991  16.166  11.315  0.0483  0.0072  0.1111
  652DOPS   C4A 7646   6.064  16.044  11.736  0.0537  0.2266  0.1594
  652DOPS   C1B 7647   6.392  17.142  10.810 -0.1605 -0.1170 -0.1742
  652DOPS   D2B 7648   6.587  17.114  11.225  0.3813  0.2399  0.2000
  652DOPS   C3B 7649   6.685  16.730  11.526 -0.1346 -0.1337  0.2477
  652DOPS   C4B 7650   6.868  16.826  11.929  0.2159  0.0692 -0.2322
  653DOPC   NC3 7651   0.108  21.151   9.967 -0.3394 -0.1472 -0.0504
  653DOPC   PO4 7652   0.457  20.938  10.020  0.0944  0.0775  0.4207
  653DOPC   GL1 7653   0.422  21.134  10.365 -0.1996 -0.0021  0.1885
  653DOPC   GL2 7654   0.384  21.520  10.231 -0.1298  0.1013  0.3029
  653DOPC   C1A 7655   0.511  21.017  10.844  0.0167  0.1911 -0.0406
  653DOPC   D2A 7656   0.632  21.136  11.285  0.2964  0.0324  0.0437
  653DOPC   C3A 7657   1.072  21.192  11.400  0.0627 -0.0179  0.0534
  653DOPC   C4A 7658   1.365  21.558  11.439 -0.3125 -0.0310  0.0100
  653DOPC   C1B 7659   0.093  21.400  10.611 -0.1448 -0.0602  0.0068
  653DOPC   D2B 7660   0.218  21.439  10.983  0.2332  0.0347  0.1561
  653DOPC   C3B 7661   0.331  21.891  11.149 -0.2110 -0.0433 -0.0718
  653DOPC   C4B 7662   0.464  22.155  11.479  0.0359 -0.4099 -0.1402
  654POSM   NC3 7663  31.359  20.399   9.832 -0.2068  0.2432 -0.1470
  654POSM   PO4 7664  31.092  20.065   9.832 -0.0264  0.2712 -0.0401
  654POSM   AM1 7665  31.098  20.107  10.155  0.0494 -0.0191  0.1172
  654POSM   AM2 7666  31.287  20.276  10.291  0.0771  0.1699 -0.2412
  654POSM   T1A 7667  31.050  19.890  10.569 -0.0530  0.0112  0.0077
  654POSM   C2A 7668  31.111  19.960  11.055  0.1265 -0.1425 -0.1394
  654POSM   C3A 7669  31.124  19.639  11.389  0.0424  0.2062  0.0374
  654POSM   C1B 7670  31.343  20.345  10.597 -0.0761  0.1445  0.0250
  654POSM   D2B 7671  31.229  20.462  11.000  0.1409 -0.2840 -0.0066
  654POSM   C3B 7672  31.162  20.694  11.423  0.0868  0.3009 -0.1838
  654POSM   C4B 7673  30.975  20.961  11.733  0.0459 -0.2603  0.1418
  655DOPE   NH3 7674   1.299  12.419  10.009 -0.2263  0.2517 -0.2439
  655DOPE   PO4 7675   1.599  12.324  10.045 -0.1606  0.2222  0.0456
  655DOPE   GL1 7676   1.752  12.640  10.291  0.1034 -0.3493 -0.1261
  655DOPE   GL2 7677   1.808  12.433  10.483 -0.0151  0.0567  0.0807
  655DOPE   C1A 7678   1.758  13.009  10.587 -0.0167 -0.0686 -0.2064
  655DOPE   D2A 7679   1.959  13.180  11.012  0.2495 -0.1660 -0.1101
  655DOPE   C3A 7680   1.807  13.531  11.301  0.0735 -0.0151  0.0432
  655DOPE   C4A 7681   1.635  13.931  11.264  0.0187 -0.0976 -0.4747
  655DOPE   C1B 7682   2.001  12.661  10.854 -0.0348 -0.0390 -0.0964
  655DOPE   D2B 7683   2.248  12.827  11.173 -0.1634  0.1977  0.0228
  655DOPE   C3B 7684   1.898  12.957  11.442  0.2188 -0.0486  0.1399
  655DOPE   C4B 7685   1.884  12.885  11.885 -0.2034  0.1074  0.1298
  656POSM   NC3 7686  34.013  20.588   9.866  0.1458 -0.2274 -0.1833
  656POSM   PO4 7687  33.892  20.241   9.843  0.0678  0.0713  0.1167
  656POSM   AM1 7688  33.663  20.158  10.103 -0.3679  0.2781 -0.0325
  656POSM   AM2 7689  33.439  20.348  10.213 -0.1035  0.2921 -0.1561
  656POSM   T1A 7690  33.679  19.896  10.531  0.2159 -0.1459  0.1086
  656POSM   C2A 7691  33.870  19.658  10.840  0.2873  0.1358  0.2319
  656POSM   C3A 7692  34.316  19.512  11.041 -0.3213  0.0181 -0.3440
  656POSM   C1B 7693  33.410  20.307  10.555  0.0641 -0.0293 -0.2937
  656POSM   D2B 7694  33.241  20.386  10.989  0.0933  0.0762 -0.2574
  656POSM   C3B 7695  33.332  20.368  11.433  0.0384 -0.4675  0.0184
  656POSM   C4B 7696  33.409  20.144  11.828  0.2531  0.0185 -0.1446
  657POSM   NC3 7697   3.483  19.340  10.002 -0.0559  0.2529  0.0824
  657POSM   PO4 7698   3.279  19.553   9.764  0.0905  0.2825  0.2286
  657POSM   AM1 7699   3.043  19.493   9.957  0.3312  0.1503  0.0763
  657POSM   AM2 7700   3.019  19.414  10.245 -0.0951  0.0807  0.0619
  657POSM   T1A 7701   2.556  19.371  10.070 -0.1500  0.0817  0.1751
  657POSM   C2A 7702   2.196  19.605  10.183  0.5473 -0.0743 -0.4661
  657POSM   C3A 7703   2.128  19.916  10.585  0.1471  0.0333  0.2720
  657POSM   C1B 7704   2.942  19.496  10.574 -0.0140  0.3385  0.2838
  657POSM   D2B 7705   2.826  19.765  10.929  0.0929 -0.1940  0.0307
  657POSM   C3B 7706   2.809  19.666  11.411 -0.0076  0.0352 -0.1158
  657POSM   C4B 7707   2.858  19.549  11.837 -0.0912  0.2425 -0.1277
  658POSM   NC3 7708   0.484  19.904   9.522  0.0818 -0.0598  0.2258
  658POSM   PO4 7709   0.592  19.574   9.704 -0.0275 -0.1332  0.5953
  658POSM   AM1 7710   0.676  19.513  10.026  0.1025 -0.1087 -0.2411
  658POSM   AM2 7711   0.839  19.621  10.205 -0.0546  0.1086 -0.0099
  658POSM   T1A 7712   0.874  19.145  10.345  0.0597 -0.2181  0.2097
  658POSM   C2A 7713   1.012  18.784  10.584 -0.1334 -0.3371 -0.2295
  658POSM   C3A 7714   1.144  18.666  11.041  0.2051  0.2174  0.0728
  658POSM   C1B 7715   0.901  19.627  10.538 -0.1158  0.0403 -0.1067
  658POSM   D2B 7716   1.024  19.699  11.020 -0.1179  0.1764  0.3424
  658POSM   C3B 7717   1.296  20.006  11.151  0.0639  0.0589  0.1039
  658POSM   C4B 7718   1.097  20.353  11.451 -0.0213  0.3051  0.0355
  659DOPS   CNO 7719   6.048  15.745   9.950  0.3391  0.0777  0.1060
  659DOPS   PO4 7720   5.887  15.523  10.179 -0.0863 -0.0381 -0.1962
  659DOPS   GL1 7721   5.826  15.504  10.488 -0.0141 -0.0402  0.0679
  659DOPS   GL2 7722   5.504  15.568  10.516  0.2661 -0.4554 -0.0002
  659DOPS   C1A 7723   6.131  15.541  10.852  0.2063  0.0788 -0.0623
  659DOPS   D2A 7724   6.129  15.196  11.236 -0.1559 -0.0919 -0.4223
  659DOPS   C3A 7725   5.968  15.037  11.602  0.2208  0.1745  0.3291
  659DOPS   C4A 7726   5.659  15.000  11.974 -0.2138  0.0661  0.1600
  659DOPS   C1B 7727   5.413  15.602  10.947 -0.0107 -0.1904 -0.2370
  659DOPS   D2B 7728   5.263  15.636  11.406 -0.0368  0.0320 -0.0964
  659DOPS   C3B 7729   4.862  15.848  11.596 -0.1702 -0.0405 -0.0398
  659DOPS   C4B 7730   4.397  15.884  11.751  0.2811  0.0908 -0.5667
  660POSM   NC3 7731   5.590  13.945  10.751 -0.2059  0.6397  0.2758
  660POSM   PO4 7732   5.261  13.742  10.697 -0.1202 -0.0136  0.1483
  660POSM   AM1 7733   5.227  13.879  10.998 -0.0515  0.0257  0.1802
  660POSM   AM2 7734   5.255  14.139  11.108 -0.1862  0.1821 -0.1658
  660POSM   T1A 7735   5.375  13.802  11.495 -0.3245  0.0095 -0.1329
  660POSM   C2A 7736   5.283  13.468  11.752  0.1439  0.2078 -0.2400
  660POSM   C3A 7737   5.112  13.293  12.194  0.2169  0.1322 -0.0828
  660POSM   C1B 7738   5.119  14.173  11.403 -0.0631 -0.1972  0.0730
  660POSM   D2B 7739   5.157  14.077  11.889 -0.2142  0.1004 -0.1035
  660POSM   C3B 7740   4.880  13.716  11.977 -0.0956  0.2315  0.2822
  660POSM   C4B 7741   4.797  13.324  11.787  0.0847  0.2218  0.0060
  661DOPE   NH3 7742   7.574  16.136   9.909 -0.3544  0.1112 -0.0437
  661DOPE   PO4 7743   7.770  16.404   9.882 -0.3349  0.1062  0.0008
  661DOPE   GL1 7744   7.756  16.334  10.272  0.1757 -0.2904 -0.0332
  661DOPE   GL2 7745   7.915  16.169  10.391  0.0348 -0.0704  0.1293
  661DOPE   C1A 7746   7.517  16.531  10.637  0.0562 -0.2340 -0.0706
  661DOPE   D2A 7747   7.152  16.557  10.834  0.0512 -0.1959 -0.2433
  661DOPE   C3A 7748   7.011  16.353  11.191 -0.0141  0.0538  0.0884
  661DOPE   C4A 7749   7.077  16.376  11.685  0.0227 -0.2663 -0.0839
  661DOPE   C1B 7750   7.715  15.770  10.648 -0.0109 -0.3101 -0.2263
  661DOPE   D2B 7751   7.561  15.358  10.828  0.0722  0.1918 -0.1449
  661DOPE   C3B 7752   7.265  15.333  11.172  0.3913  0.0733 -0.3962
  661DOPE   C4B 7753   6.839  15.088  11.208 -0.2407  0.2352  0.2391
  662DOPE   NH3 7754  10.371  19.533  10.042  0.1711 -0.3960  0.0427
  662DOPE   PO4 7755  10.267  19.312  10.248  0.0058 -0.2261  0.1716
  662DOPE   GL1 7756  10.201  19.246  10.665 -0.3591  0.1263  0.0606
  662DOPE   GL2 7757  10.519  19.192  10.721  0.2213 -0.0682  0.5001
  662DOPE   C1A 7758  10.046  19.040  11.082 -0.3240  0.0061  0.0580
  662DOPE   D2A 7759  10.303  18.984  11.509  0.2092  0.2739 -0.0468
  662DOPE   C3A 7760  10.715  19.219  11.495 -0.0402  0.1979  0.0570
  662DOPE   C4A 7761  10.964  19.474  11.199  0.0925  0.1592  0.1353
  662DOPE   C1B 7762  10.380  19.362  11.159 -0.0236  0.0694  0.2894
  662DOPE   D2B 7763  10.102  19.520  11.451 -0.1332  0.2314  0.0089
  662DOPE   C3B 7764  10.121  19.498  11.945  0.1393 -0.2316  0.0383
  662DOPE   C4B 7765  10.118  19.272  12.333 -0.0024 -0.3176 -0.1936
  663DOPE   NH3 7766   5.596  16.496   9.928  0.1050 -0.0290  0.1110
  663DOPE   PO4 7767   5.463  16.755  10.062 -0.0435 -0.1606 -0.1824
  663DOPE   GL1 7768   5.524  16.948  10.378  0.1834 -0.1272 -0.4708
  663DOPE   GL2 7769   5.353  17.217  10.362  0.0294 -0.3425 -0.3939
  663DOPE   C1A 7770   5.401  16.846  10.814  0.1468  0.1899 -0.0543
  663DOPE   D2A 7771   5.082  16.837  11.155 -0.2038  0.0048  0.0488
  663DOPE   C3A 7772   4.847  16.663  11.458  0.1871 -0.0005 -0.3542
  663DOPE   C4A 7773   4.847  16.879  11.893 -0.1111 -0.1948 -0.3506
  663DOPE   C1B 7774   5.478  17.346  10.789 -0.0455 -0.0617  0.2729
  663DOPE   D2B 7775   5.439  17.210  11.172 -0.3079 -0.0462 -0.0608
  663DOPE   C3B 7776   5.399  17.423  11.562  0.0019 -0.0381 -0.0400
  663DOPE   C4B 7777   5.592  17.745  11.879  0.0824  0.1962 -0.3732
  664DOPE   NH3 7778   1.180  13.300   9.895 -0.3074  0.0065  0.1023
  664DOPE   PO4 7779   0.893  13.092   9.864 -0.0073 -0.0466  0.0815
  664DOPE   GL1 7780   0.801  13.476  10.072  0.1464 -0.1401 -0.0287
  664DOPE   GL2 7781   0.958  13.811  10.133  0.1690  0.0838  0.1439
  664DOPE   C1A 7782   0.799  13.552  10.531 -0.0135  0.1927 -0.0533
  664DOPE   D2A 7783   0.652  13.507  10.970  0.0956  0.0313 -0.3101
  664DOPE   C3A 7784   0.589  13.704  11.365 -0.0848 -0.0280  0.0505
  664DOPE   C4A 7785   0.385  13.409  11.701  0.3227  0.0293 -0.0567
  664DOPE   C1B 7786   0.857  14.125  10.503 -0.1209 -0.2331 -0.1858
  664DOPE   D2B 7787   0.749  14.008  10.924  0.3268 -0.0244 -0.2710
  664DOPE   C3B 7788   0.621  14.261  11.359  0.2506  0.0454  0.2680
  664DOPE   C4B 7789   0.815  14.288  11.832 -0.0692  0.1315  0.0741
  665POSM   NC3 7790   1.115  15.317   9.352 -0.1538 -0.3056  0.3461
  665POSM   PO4 7791   0.733  15.371   9.433 -0.2519  0.1648  0.0250
  665POSM   AM1 7792   0.685  15.543   9.716 -0.0339 -0.1438 -0.4236
  665POSM   AM2 7793   0.561  15.787   9.843  0.0780  0.1606  0.1859
  665POSM   T1A 7794   0.568  15.475  10.217 -0.0949 -0.2646 -0.1087
  665POSM   C2A 7795   0.473  15.224  10.622  0.3149 -0.1784  0.2343
  665POSM   C3A 7796   0.204  14.961  10.923 -0.0356  0.1696  0.0061
  665POSM   C1B 7797   0.562  15.991  10.086 -0.2695 -0.1792  0.2395
  665POSM   D2B 7798   0.550  16.132  10.535 -0.0845 -0.2182  0.1140
  665POSM   C3B 7799   0.808  16.067  10.911  0.1681  0.0436 -0.2749
  665POSM   C4B 7800   0.761  15.887  11.274 -0.0495 -0.0537 -0.1129
  666DOPC   NC3 7801   4.719  19.707   9.953 -0.0910 -0.0088  0.2333
  666DOPC   PO4 7802   4.505  19.765   9.626 -0.2897  0.0423 -0.0619
  666DOPC   GL1 7803   4.348  20.091   9.741  0.0655  0.0650  0.2998
  666DOPC   GL2 7804   4.505  20.197   9.946 -0.0046 -0.0162  0.1104
  666DOPC   C1A 7805   4.149  19.923  10.116 -0.1663  0.2862 -0.0892
  666DOPC   D2A 7806   4.166  19.770  10.563  0.1235 -0.0409 -0.3952
  666DOPC   C3A 7807   4.581  19.597  10.690  0.0273  0.1138 -0.0389
  666DOPC   C4A 7808   4.716  19.573  11.206 -0.1379  0.1333 -0.3680
  666DOPC   C1B 7809   4.583  20.011  10.371  0.2091  0.1874  0.1574
  666DOPC   D2B 7810   4.600  20.095  10.852  0.1942 -0.0357  0.1662
  666DOPC   C3B 7811   4.184  19.945  11.012  0.3386  0.2233 -0.3316
  666DOPC   C4B 7812   3.946  19.950  11.411 -0.1253  0.1045  0.0148
  667DOPC   NC3 7813   2.127  18.034   9.943 -0.0298  0.0984  0.2398
  667DOPC   PO4 7814   2.173  17.722   9.733  0.1510 -0.2018 -0.0241
  667DOPC   GL1 7815   2.354  17.496   9.871  0.0827 -0.1211  0.1827
  667DOPC   GL2 7816   2.601  17.665   9.958  0.0817 -0.0597  0.3942
  667DOPC   C1A 7817   2.357  17.500  10.335  0.3808  0.1022 -0.0163
  667DOPC   D2A 7818   2.253  17.403  10.815 -0.1706 -0.1783  0.2440
  667DOPC   C3A 7819   2.546  17.084  11.054  0.1374  0.1143 -0.0791
  667DOPC   C4A 7820   2.885  17.141  11.404 -0.0072 -0.0569 -0.0663
  667DOPC   C1B 7821   2.878  17.624  10.335 -0.0286  0.0142  0.0638
  667DOPC   D2B 7822   3.131  17.353  10.641  0.1175 -0.2330  0.0556
  667DOPC   C3B 7823   3.314  17.247  11.043  0.4580 -0.3360  0.0904
  667DOPC   C4B 7824   3.587  16.950  11.254  0.1517  0.0248  0.2384
  668POSM   NC3 7825  34.400  18.596   9.482 -0.0640 -0.2978 -0.0372
  668POSM   PO4 7826  34.682  18.463   9.272  0.1229  0.3000 -0.0821
  668POSM   AM1 7827  34.810  18.412   9.598 -0.0582 -0.1729 -0.2122
  668POSM   AM2 7828  35.009  18.270   9.798 -0.0215 -0.2526  0.3875
  668POSM   T1A 7829  34.694  18.606  10.063  0.3219 -0.1703  0.0448
  668POSM   C2A 7830  34.655  18.537  10.538  0.1087 -0.0442 -0.2471
  668POSM   C3A 7831  34.874  18.586  10.900 -0.0175 -0.1486 -0.1121
  668POSM   C1B 7832  35.109  18.150  10.118  0.2967  0.1853  0.0558
  668POSM   D2B 7833  35.201  18.082  10.525 -0.2981 -0.2366 -0.2629
  668POSM   C3B 7834  35.361  18.325  10.829 -0.1689 -0.2926 -0.2732
  668POSM   C4B 7835  35.550  18.250  11.260 -0.1714 -0.1176  0.0646
  669POSM   NC3 7836   8.293  13.877  10.528 -0.2209 -0.1357 -0.0118
  669POSM   PO4 7837   8.143  13.489  10.448  0.0485  0.1105  0.1854
  669POSM   AM1 7838   8.002  13.557  10.768  0.0910  0.0475  0.1749
  669POSM   AM2 7839   7.839  13.717  10.899  0.1173 -0.4378  0.0948
  669POSM   T1A 7840   8.070  13.502  11.279 -0.2036  0.1969 -0.0931
  669POSM   C2A 7841   7.986  13.454  11.739  0.0867  0.0566 -0.1771
  669POSM   C3A 7842   7.797  13.627  12.084 -0.2206  0.1964  0.1691
  669POSM   C1B 7843   7.506  13.753  11.043  0.1826 -0.1814  0.1837
  669POSM   D2B 7844   7.103  13.795  11.331 -0.0133  0.4437 -0.0147
  669POSM   C3B 7845   6.920  13.855  11.709 -0.3069  0.1228  0.2346
  669POSM   C4B 7846   6.870  13.947  12.128  0.1252 -0.0528  0.4869
  670DOPS   CNO 7847   8.697  13.703  10.730 -0.1864 -0.1964  0.1772
  670DOPS   PO4 7848   8.982  13.559  10.967  0.3782 -0.0522  0.1120
  670DOPS   GL1 7849   8.773  13.718  11.214 -0.0830  0.3964 -0.0199
  670DOPS   GL2 7850   8.584  13.467  11.334  0.0323 -0.0749  0.0423
  670DOPS   C1A 7851   8.887  13.661  11.666  0.1107 -0.0574 -0.0963
  670DOPS   D2A 7852   8.823  13.593  12.154  0.0275  0.1250  0.1450
  670DOPS   C3A 7853   8.529  13.587  12.500  0.0711 -0.2512  0.2173
  670DOPS   C4A 7854   8.409  13.372  12.909 -0.0890  0.2207  0.0637
  670DOPS   C1B 7855   8.450  13.305  11.696 -0.1436  0.0566  0.5124
  670DOPS   D2B 7856   8.371  13.200  12.102  0.1499 -0.0430  0.0616
  670DOPS   C3B 7857   8.122  13.216  12.479 -0.1143  0.0643  0.1447
  670DOPS   C4B 7858   7.756  13.163  12.778  0.2758 -0.1770 -0.2737
  671DOPE   NH3 7859   5.709  17.294   9.505 -0.1635 -0.1963 -0.3675
  671DOPE   PO4 7860   5.966  17.353   9.688 -0.1665  0.2768 -0.0777
  671DOPE   GL1 7861   5.889  17.376  10.044 -0.0651 -0.0843 -0.4471
  671DOPE   GL2 7862   5.873  17.127  10.184  0.0315 -0.0003  0.6439
  671DOPE   C1A 7863   6.091  17.402  10.524 -0.1494  0.0445 -0.1276
  671DOPE   D2A 7864   6.442  17.622  10.707 -0.2818  0.2693  0.0641
  671DOPE   C3A 7865   6.260  17.726  11.092  0.1285 -0.0048 -0.1581
  671DOPE   C4A 7866   5.996  17.871  11.423  0.1555  0.1455  0.0708
  671DOPE   C1B 7867   5.892  16.993  10.646 -0.3328  0.4940 -0.0494
  671DOPE   D2B 7868   5.916  16.793  11.067 -0.0382  0.2055 -0.1582
  671DOPE   C3B 7869   6.029  17.034  11.444  0.1255  0.2079 -0.1438
  671DOPE   C4B 7870   5.932  17.378  11.591  0.0617  0.2068 -0.1459
  672DOPC   NC3 7871   4.987  14.403  10.161  0.0341  0.3843  0.1161
  672DOPC   PO4 7872   4.675  14.147  10.231  0.0668  0.4055  0.0071
  672DOPC   GL1 7873   4.522  14.229  10.604  0.1826 -0.1046  0.1731
  672DOPC   GL2 7874   4.660  14.514  10.624 -0.2248  0.0947 -0.0141
  672DOPC   C1A 7875   4.261  14.436  10.884 -0.0386 -0.0137  0.0332
  672DOPC   D2A 7876   4.140  14.721  11.223 -0.1449 -0.2958  0.1253
  672DOPC   C3A 7877   4.235  14.541  11.599  0.0694 -0.1299 -0.0696
  672DOPC   C4A 7878   4.327  14.279  11.934  0.0469  0.0120 -0.2963
  672DOPC   C1B 7879   4.315  14.704  10.471  0.0822 -0.0185  0.0342
  672DOPC   D2B 7880   4.147  14.943  10.735  0.1940  0.2065  0.0875
  672DOPC   C3B 7881   3.863  15.254  10.482 -0.4780  0.1382 -0.0807
  672DOPC   C4B 7882   3.779  15.688  10.651 -0.0107  0.0522 -0.3226
  673DOPC   NC3 7883   0.533  16.842   9.829  0.2698 -0.0354  0.1450
  673DOPC   PO4 7884   0.309  17.178   9.824  0.0387  0.0507 -0.0404
  673DOPC   GL1 7885   0.362  17.193  10.202 -0.2168 -0.2019  0.2764
  673DOPC   GL2 7886   0.041  17.225  10.326  0.0910  0.1824 -0.1459
  673DOPC   C1A 7887   0.710  17.308  10.524  0.1236 -0.3054  0.0578
  673DOPC   D2A 7888   0.823  17.094  10.898  0.1393  0.2359 -0.0997
  673DOPC   C3A 7889   0.967  17.064  11.356  0.0932 -0.0681  0.0099
  673DOPC   C4A 7890   1.324  16.979  11.667  0.2265 -0.2049 -0.1963
  673DOPC   C1B 7891  -0.308  17.040  10.560 -0.1975  0.1361 -0.0441
  673DOPC   D2B 7892  -0.587  16.858  10.883  0.1783  0.0612 -0.1776
  673DOPC   C3B 7893  -0.259  16.781  11.222 -0.0211 -0.0481  0.1418
  673DOPC   C4B 7894   0.104  16.890  11.538  0.2365  0.1769  0.1932
  674DOPC   NC3 7895   2.491  21.887  10.043 -0.2866 -0.0897  0.1126
  674DOPC   PO4 7896   2.845  21.895   9.936 -0.0436 -0.0361  0.0894
  674DOPC   GL1 7897   2.831  21.971  10.325 -0.0704 -0.0767  0.0658
  674DOPC   GL2 7898   2.721  22.225  10.335  0.3194 -0.2013  0.1640
  674DOPC   C1A 7899   2.763  22.046  10.800  0.4471 -0.0633  0.0243
  674DOPC   D2A 7900   2.899  21.830  11.201  0.0462  0.0378  0.2274
  674DOPC   C3A 7901   3.215  21.779  11.546  0.0449 -0.1384  0.4647
  674DOPC   C4A 7902   3.479  22.029  11.833  0.0365 -0.0285  0.0575
  674DOPC   C1B 7903   2.279  22.189  10.559 -0.0093 -0.1286 -0.1722
  674DOPC   D2B 7904   2.089  22.156  10.956  0.1477 -0.2059 -0.1277
  674DOPC   C3B 7905   2.133  22.429  11.312  0.2366  0.2566  0.1694
  674DOPC   C4B 7906   2.249  22.679  11.699 -0.1126 -0.0899  0.0485
  675DOPE   NH3 7907   7.518   7.259  10.529 -0.1762  0.0411  0.2894
  675DOPE   PO4 7908   7.461   7.543  10.659 -0.2025  0.0053 -0.0231
  675DOPE   GL1 7909   7.623   7.741  10.967  0.1466 -0.2184 -0.0343
  675DOPE   GL2 7910   7.408   7.593  11.144 -0.0831  0.1114  0.0901
  675DOPE   C1A 7911   8.026   7.711  11.158 -0.1609 -0.1870  0.0862
  675DOPE   D2A 7912   8.393   7.991  11.314 -0.1064  0.2387  0.2789
  675DOPE   C3A 7913   8.319   8.337  11.628  0.2002 -0.1714  0.4337
  675DOPE   C4A 7914   8.205   8.778  11.596 -0.2993 -0.0062  0.0455
  675DOPE   C1B 7915   7.399   7.800  11.575 -0.1671 -0.2739  0.1265
  675DOPE   D2B 7916   7.397   8.209  11.704 -0.0394  0.2860  0.0920
  675DOPE   C3B 7917   7.000   8.347  11.930 -0.1666  0.2008  0.2421
  675DOPE   C4B 7918   6.732   8.513  12.235 -0.1336 -0.1116  0.2232
  676DOPC   NC3 7919  10.345  17.530  10.009  0.1803 -0.3663  0.1728
  676DOPC   PO4 7920  10.214  17.784  10.269  0.1203 -0.0512  0.0107
  676DOPC   GL1 7921  10.038  17.637  10.531  0.2600 -0.1891  0.0321
  676DOPC   GL2 7922  10.194  17.757  10.751  0.2809  0.1592 -0.0404
  676DOPC   C1A 7923   9.596  17.679  10.744 -0.2866  0.3285 -0.0887
  676DOPC   D2A 7924   9.317  17.997  10.949 -0.0195 -0.1570 -0.3622
  676DOPC   C3A 7925   9.351  17.899  11.446  0.1183 -0.0637 -0.0052
  676DOPC   C4A 7926   9.442  17.779  11.878  0.4020 -0.1376  0.1227
  676DOPC   C1B 7927   9.892  17.997  10.981 -0.0406  0.0565  0.0189
  676DOPC   D2B 7928   9.692  18.247  11.308  0.1505 -0.1346 -0.2788
  676DOPC   C3B 7929   9.259  18.377  11.265 -0.0812  0.3052  0.1351
  676DOPC   C4B 7930   8.934  18.690  11.201  0.0139  0.0181  0.0588
  677POSM   NC3 7931   4.411  15.826  10.007  0.0336 -0.0612 -0.1042
  677POSM   PO4 7932   4.565  16.150   9.890 -0.0158 -0.0996 -0.0913
  677POSM   AM1 7933   4.678  16.288  10.154 -0.1985 -0.1874 -0.1222
  677POSM   AM2 7934   4.707  16.206  10.412  0.1150 -0.2100 -0.0983
  677POSM   T1A 7935   4.671  16.711  10.459 -0.0185  0.0518 -0.0049
  677POSM   C2A 7936   4.900  17.069  10.710 -0.2065 -0.0787  0.1885
  677POSM   C3A 7937   4.923  17.431  10.986  0.3020  0.3132 -0.1689
  677POSM   C1B 7938   4.632  16.193  10.736  0.1258 -0.2273 -0.2918
  677POSM   D2B 7939   4.647  16.200  11.179  0.0989  0.2223 -0.2174
  677POSM   C3B 7940   4.675  16.278  11.664 -0.0558 -0.3160  0.1635
  677POSM   C4B 7941   4.968  16.436  12.007  0.1329 -0.0569  0.1057
  678DOPS   CNO 7942   6.597   8.147  10.597 -0.0893 -0.0478  0.1053
  678DOPS   PO4 7943   6.668   7.780  10.470  0.0856 -0.3401 -0.0501
  678DOPS   GL1 7944   6.642   7.762  10.836 -0.3173 -0.1023 -0.2753
  678DOPS   GL2 7945   6.525   7.933  11.041 -0.1577  0.2197  0.2977
  678DOPS   C1A 7946   6.904   7.649  11.213 -0.3779  0.1876 -0.0582
  678DOPS   D2A 7947   7.141   7.392  11.532  0.1027  0.2843 -0.0790
  678DOPS   C3A 7948   7.452   7.436  11.956  0.2188  0.0656 -0.0540
  678DOPS   C4A 7949   7.559   7.433  12.386  0.0798 -0.2977  0.1884
  678DOPS   C1B 7950   6.435   7.436  11.197 -0.1441  0.1089 -0.0892
  678DOPS   D2B 7951   6.304   7.014  11.375 -0.2545  0.1083 -0.0332
  678DOPS   C3B 7952   6.288   6.964  11.804 -0.1325 -0.0096  0.0555
  678DOPS   C4B 7953   6.027   6.990  12.177 -0.0980 -0.0372  0.0493
  679DOPE   NH3 7954  33.037  20.344   9.950 -0.0062  0.1138  0.0214
  679DOPE   PO4 7955  32.933  20.006   9.929  0.0361  0.1345  0.3215
  679DOPE   GL1 7956  32.932  19.883  10.255  0.0574  0.2725  0.1975
  679DOPE   GL2 7957  33.218  19.899  10.338  0.0309 -0.0281  0.1482
  679DOPE   C1A 7958  32.823  20.182  10.584  0.1511 -0.0575  0.1435
  679DOPE   D2A 7959  32.799  20.087  11.038 -0.4481 -0.1214 -0.3887
  679DOPE   C3A 7960  32.784  20.450  11.350  0.2165 -0.0509 -0.1380
  679DOPE   C4A 7961  32.887  20.586  11.783 -0.2568 -0.2391  0.0986
  679DOPE   C1B 7962  33.223  19.878  10.837  0.2314  0.0302  0.1410
  679DOPE   D2B 7963  33.583  19.982  11.142  0.1917 -0.3800  0.2016
  679DOPE   C3B 7964  33.518  19.756  11.524  0.0516 -0.2527  0.1270
  679DOPE   C4B 7965  33.392  19.629  11.935 -0.2545 -0.1969  0.0992
  680POSM   NC3 7966   2.616  14.034   9.618 -0.1946  0.2599 -0.0993
  680POSM   PO4 7967   2.249  14.217   9.647  0.1176  0.1072  0.0721
  680POSM   AM1 7968   2.108  14.143   9.916 -0.1641 -0.0545  0.2423
  680POSM   AM2 7969   2.017  14.333  10.133 -0.1437 -0.1269 -0.3781
  680POSM   T1A 7970   2.106  13.952  10.408 -0.0470  0.2655  0.0951
  680POSM   C2A 7971   1.781  13.872  10.748 -0.2514 -0.1768  0.0644
  680POSM   C3A 7972   1.418  14.146  10.880  0.4107 -0.0674  0.2904
  680POSM   C1B 7973   2.175  14.519  10.347 -0.1961 -0.0331  0.1191
  680POSM   D2B 7974   2.315  14.753  10.729 -0.2231 -0.2430 -0.2125
  680POSM   C3B 7975   2.350  14.693  11.189  0.1206  0.0959 -0.1747
  680POSM   C4B 7976   2.255  14.434  11.556  0.2087  0.3182 -0.0551
  681DOPC   NC3 7977   3.953  17.073   9.323 -0.1971  0.2377  0.1872
  681DOPC   PO4 7978   4.062  16.894   9.639 -0.0038  0.1584  0.0206
  681DOPC   GL1 7979   3.857  16.591   9.693  0.2582 -0.0273  0.0762
  681DOPC   GL2 7980   3.646  16.621   9.777  0.0562  0.0080 -0.1516
  681DOPC   C1A 7981   3.913  16.517  10.164  0.0025 -0.3691  0.1389
  681DOPC   D2A 7982   4.185  16.550  10.570  0.0715  0.0714 -0.1145
  681DOPC   C3A 7983   4.165  16.446  10.994 -0.0385  0.0288 -0.0897
  681DOPC   C4A 7984   4.229  16.111  11.355 -0.0440  0.1367  0.1357
  681DOPC   C1B 7985   3.389  16.644  10.174 -0.2393 -0.1405 -0.3235
  681DOPC   D2B 7986   3.143  16.975  10.344 -0.0838  0.1413 -0.0825
  681DOPC   C3B 7987   3.119  16.855  10.784 -0.0675 -0.0876 -0.0040
  681DOPC   C4B 7988   2.812  16.678  11.132 -0.0580  0.0227 -0.1759
  682DOPS   CNO 7989   2.751   9.693   9.865 -0.0137 -0.0974  0.1973
  682DOPS   PO4 7990   2.793   9.913  10.173  0.0570  0.0577  0.1292
  682DOPS   GL1 7991   2.723   9.999  10.554  0.3924  0.1247  0.0055
  682DOPS   GL2 7992   2.535  10.173  10.685  0.2017  0.2580  0.0445
  682DOPS   C1A 7993   2.790   9.773  10.991 -0.2228  0.1013  0.0352
  682DOPS   D2A 7994   3.028   9.568  11.327  0.2511  0.1655 -0.0351
  682DOPS   C3A 7995   3.166   9.256  11.688  0.2014  0.2488  0.0685
  682DOPS   C4A 7996   3.600   9.130  11.842 -0.0909 -0.1038 -0.0453
  682DOPS   C1B 7997   2.666  10.381  11.092 -0.2639  0.2333  0.1973
  682DOPS   D2B 7998   2.916  10.541  11.426 -0.0231  0.0985  0.3461
  682DOPS   C3B 7999   2.863  10.965  11.643 -0.0161 -0.0539 -0.1175
  682DOPS   C4B 8000   2.595  11.197  11.938 -0.2203 -0.1844  0.1710
  683DOPC   NC3 8001  33.666  15.587  10.538  0.1268  0.0150 -0.1085
  683DOPC   PO4 8002  33.566  15.796  10.241  0.1516 -0.1074  0.0554
  683DOPC   GL1 8003  33.409  16.003  10.544  0.1421 -0.0017 -0.1076
  683DOPC   GL2 8004  33.468  16.258  10.403 -0.0812 -0.0304 -0.1569
  683DOPC   C1A 8005  33.442  15.812  10.938 -0.0008  0.3592  0.0120
  683DOPC   D2A 8006  33.709  15.521  11.091 -0.0175  0.4126 -0.0291
  683DOPC   C3A 8007  33.764  15.306  11.478  0.0940 -0.3242  0.1414
  683DOPC   C4A 8008  34.008  15.184  11.856 -0.0170  0.4082 -0.0414
  683DOPC   C1B 8009  33.298  16.532  10.750 -0.0442 -0.0184  0.0171
  683DOPC   D2B 8010  33.205  16.642  11.199  0.0645 -0.0593  0.3461
  683DOPC   C3B 8011  33.511  16.781  11.544  0.0533 -0.0868  0.1212
  683DOPC   C4B 8012  33.766  16.376  11.686 -0.1059 -0.5114  0.1652
  684DOPC   NC3 8013   2.032  16.228  10.060  0.0914 -0.0559  0.0280
  684DOPC   PO4 8014   2.343  16.195   9.795 -0.0128  0.0572  0.2110
  684DOPC   GL1 8015   2.432  16.402  10.160 -0.3482 -0.0617  0.0527
  684DOPC   GL2 8016   2.475  16.686  10.169  0.0113  0.1085  0.3111
  684DOPC   C1A 8017   2.166  16.258  10.499  0.2648 -0.5203 -0.1262
  684DOPC   D2A 8018   1.947  16.305  10.898 -0.1760 -0.3661  0.0086
  684DOPC   C3A 8019   2.050  16.115  11.370 -0.4016  0.1240  0.5237
  684DOPC   C4A 8020   2.163  15.883  11.810 -0.3104 -0.1735  0.0059
  684DOPC   C1B 8021   2.576  16.588  10.604  0.0720  0.1726 -0.0375
  684DOPC   D2B 8022   2.313  16.595  10.970 -0.0437  0.3126  0.2849
  684DOPC   C3B 8023   2.545  16.278  11.222  0.0737  0.0119  0.0746
  684DOPC   C4B 8024   2.977  16.051  11.129  0.0638  0.1257 -0.0230
  685DOPE   NH3 8025   6.035  10.351  10.678 -0.0294 -0.2792 -0.0773
  685DOPE   PO4 8026   6.341  10.344  10.647 -0.1538  0.2404  0.1701
  685DOPE   GL1 8027   6.320  10.476  11.040  0.0829 -0.1707 -0.0830
  685DOPE   GL2 8028   6.599  10.460  11.164 -0.1200 -0.3101  0.2183
  685DOPE   C1A 8029   6.244  10.354  11.496  0.0051 -0.1632 -0.0838
  685DOPE   D2A 8030   6.566  10.337  11.830  0.1030  0.0318 -0.2001
  685DOPE   C3A 8031   6.646  10.062  12.099 -0.0154  0.5283 -0.1876
  685DOPE   C4A 8032   6.980   9.886  12.310 -0.1578 -0.0210 -0.0192
  685DOPE   C1B 8033   6.429  10.802  11.399 -0.0879  0.1560 -0.1425
  685DOPE   D2B 8034   6.575  10.895  11.859 -0.0825 -0.1048  0.2668
  685DOPE   C3B 8035   6.671  10.601  12.211  0.2533 -0.0184  0.0764
  685DOPE   C4B 8036   6.561  10.512  12.652  0.0302  0.2112 -0.0184
  686DOPC   NC3 8037   1.615  14.120   9.839  0.3286 -0.0647  0.0405
  686DOPC   PO4 8038   1.428  13.734   9.867 -0.2664  0.0283  0.1112
  686DOPC   GL1 8039   1.338  13.969  10.193 -0.1052  0.3788  0.0156
  686DOPC   GL2 8040   1.523  14.123  10.313  0.2741 -0.2430 -0.0219
  686DOPC   C1A 8041   1.289  13.759  10.611 -0.0110  0.2574  0.0290
  686DOPC   D2A 8042   1.117  13.710  10.971  0.1281 -0.0162 -0.1188
  686DOPC   C3A 8043   1.069  14.013  11.343 -0.1178  0.1906 -0.2666
  686DOPC   C4A 8044   1.194  13.891  11.784 -0.1791 -0.0249 -0.1024
  686DOPC   C1B 8045   1.820  14.322  10.618  0.1019 -0.1428  0.0228
  686DOPC   D2B 8046   2.152  14.269  10.926 -0.2562  0.1665  0.0734
  686DOPC   C3B 8047   1.825  14.447  11.162 -0.0308  0.2288  0.1687
  686DOPC   C4B 8048   1.547  14.713  11.394 -0.0665  0.2491  0.0053
  687DOPC   NC3 8049   5.547  20.441   9.572  0.2521 -0.2505 -0.1124
  687DOPC   PO4 8050   5.292  20.726   9.576 -0.1748  0.0158  0.1463
  687DOPC   GL1 8051   5.264  20.880   9.988 -0.1247  0.0761  0.0380
  687DOPC   GL2 8052   5.290  20.580  10.124  0.1149  0.3466 -0.0513
  687DOPC   C1A 8053   5.612  20.819  10.374  0.1618 -0.0988 -0.1655
  687DOPC   D2A 8054   5.603  20.546  10.757 -0.2801  0.5045  0.0530
  687DOPC   C3A 8055   5.930  20.566  11.002  0.1452  0.2195 -0.0767
  687DOPC   C4A 8056   6.035  20.391  11.414 -0.2488  0.0274  0.0976
  687DOPC   C1B 8057   5.474  20.227  10.401 -0.0628  0.0734 -0.2099
  687DOPC   D2B 8058   5.499  19.888  10.770 -0.1384 -0.3355  0.0451
  687DOPC   C3B 8059   5.648  20.135  11.145 -0.0364 -0.3323 -0.2057
  687DOPC   C4B 8060   5.472  20.155  11.533 -0.0554  0.0283 -0.0100
  688POSM   NC3 8061   3.248  20.748   9.631 -0.0138 -0.1084  0.0834
  688POSM   PO4 8062   2.931  20.515   9.740  0.1992  0.0397 -0.0485
  688POSM   AM1 8063   2.957  20.521  10.069  0.4156  0.2735 -0.0319
  688POSM   AM2 8064   3.076  20.369  10.270 -0.0066 -0.0623 -0.0531
  688POSM   T1A 8065   2.744  20.686  10.507 -0.0838 -0.0249 -0.0208
  688POSM   C2A 8066   2.329  20.789  10.674 -0.1811 -0.2390  0.3473
  688POSM   C3A 8067   1.919  20.846  10.817  0.1016  0.1044  0.1151
  688POSM   C1B 8068   3.302  20.504  10.506  0.2851 -0.1189 -0.0058
  688POSM   D2B 8069   3.522  20.344  10.856 -0.2022 -0.1898 -0.0965
  688POSM   C3B 8070   3.413  19.966  11.104  0.1960 -0.1537 -0.0990
  688POSM   C4B 8071   3.286  19.525  10.976  0.1574 -0.2004 -0.0077
  689DOPE   NH3 8072   5.326  12.658  10.720 -0.1244  0.0404  0.2386
  689DOPE   PO4 8073   5.538  12.406  10.770 -0.0245  0.2717 -0.0100
  689DOPE   GL1 8074   5.523  12.426  11.189  0.0501  0.0441  0.1365
  689DOPE   GL2 8075   5.569  12.751  11.179  0.1764  0.1807  0.0926
  689DOPE   C1A 8076   5.180  12.489  11.483  0.1320 -0.0561  0.2063
  689DOPE   D2A 8077   4.941  12.225  11.802  0.3005  0.2915 -0.1499
  689DOPE   C3A 8078   4.963  12.219  12.290  0.1921  0.1101  0.2319
  689DOPE   C4A 8079   5.032  12.109  12.726 -0.0482  0.6368 -0.1202
  689DOPE   C1B 8080   5.745  12.579  11.575 -0.3366 -0.1451 -0.3639
  689DOPE   D2B 8081   5.902  12.239  11.832 -0.0369  0.0825 -0.0528
  689DOPE   C3B 8082   5.740  11.855  12.030 -0.0259  0.0020 -0.1082
  689DOPE   C4B 8083   5.526  11.481  12.238  0.1519 -0.0888 -0.0790
  690DOPS   CNO 8084   4.534  12.669  10.706 -0.1979  0.2628 -0.3349
  690DOPS   PO4 8085   4.190  12.664  10.561  0.2177  0.0182  0.3868
  690DOPS   GL1 8086   3.788  12.762  10.593  0.0420 -0.2487 -0.3418
  690DOPS   GL2 8087   3.764  12.544  10.816  0.0270 -0.3903  0.0382
  690DOPS   C1A 8088   3.727  13.091  10.932  0.0196 -0.0386 -0.2377
  690DOPS   D2A 8089   3.845  13.529  10.866 -0.1594 -0.0215 -0.0038
  690DOPS   C3A 8090   3.624  13.901  10.948 -0.2062 -0.1230 -0.0873
  690DOPS   C4A 8091   3.744  14.341  11.045 -0.1987 -0.2871 -0.1746
  690DOPS   C1B 8092   3.764  12.647  11.274  0.0776 -0.2463  0.0502
  690DOPS   D2B 8093   3.993  12.964  11.541 -0.2875  0.1592  0.1279
  690DOPS   C3B 8094   3.822  13.310  11.792  0.1397 -0.1242 -0.1073
  690DOPS   C4B 8095   3.533  13.590  12.056  0.1348  0.1572  0.2572
  691DOPC   NC3 8096   1.849  22.247   9.578  0.2048  0.0226 -0.0590
  691DOPC   PO4 8097   2.098  22.143   9.880  0.0398 -0.0332 -0.1099
  691DOPC   GL1 8098   1.891  22.197  10.234  0.3419 -0.0964 -0.1784
  691DOPC   GL2 8099   1.633  22.135  10.129 -0.0146 -0.3808  0.1443
  691DOPC   C1A 8100   1.893  22.457  10.645  0.1308  0.0334 -0.1068
  691DOPC   D2A 8101   1.772  22.621  11.068  0.2054  0.1345  0.1079
  691DOPC   C3A 8102   1.355  22.466  11.251 -0.0725  0.0993  0.2218
  691DOPC   C4A 8103   0.876  22.352  11.424  0.0569 -0.1713 -0.0439
  691DOPC   C1B 8104   1.504  22.499  10.358  0.0522 -0.0076 -0.1856
  691DOPC   D2B 8105   1.291  22.613  10.775 -0.1886 -0.1358  0.1500
  691DOPC   C3B 8106   1.205  23.106  10.847  0.1249  0.2529 -0.0770
  691DOPC   C4B 8107   1.209  23.537  10.742  0.0024  0.0101 -0.3879
  692DOPE   NH3 8108  33.868  16.241  10.014  0.1499  0.0973  0.0534
  692DOPE   PO4 8109  34.193  16.268  10.032  0.3493 -0.1365  0.1976
  692DOPE   GL1 8110  34.340  16.377  10.402  0.0924 -0.1569  0.0266
  692DOPE   GL2 8111  34.528  16.541  10.370  0.1478  0.0049 -0.2709
  692DOPE   C1A 8112  34.312  16.435  10.857 -0.1918  0.0265 -0.5408
  692DOPE   D2A 8113  34.097  16.404  11.245  0.4185 -0.2570  0.3649
  692DOPE   C3A 8114  34.259  16.048  11.496 -0.3888  0.1170 -0.1567
  692DOPE   C4A 8115  34.127  15.646  11.381 -0.0603  0.2152  0.2597
  692DOPE   C1B 8116  34.859  16.424  10.683  0.0436 -0.4187 -0.2891
  692DOPE   D2B 8117  35.029  16.236  11.039 -0.2363 -0.1959  0.1077
  692DOPE   C3B 8118  35.077  16.096  11.479  0.1904  0.3208  0.2810
  692DOPE   C4B 8119  35.277  16.170  11.883  0.2015  0.0593 -0.0741
  693DOPE   NH3 8120   5.399  15.316  10.096  0.1121 -0.1384  0.1268
  693DOPE   PO4 8121   5.078  15.402  10.052 -0.4148 -0.2239 -0.0832
  693DOPE   GL1 8122   4.782  15.393  10.302 -0.0239 -0.0833  0.5230
  693DOPE   GL2 8123   4.912  15.458  10.578 -0.1361 -0.0822 -0.1019
  693DOPE   C1A 8124   4.534  15.747  10.482  0.0749  0.1862  0.1060
  693DOPE   D2A 8125   4.203  15.932  10.727 -0.0069 -0.1613  0.1032
  693DOPE   C3A 8126   4.046  15.724  11.092 -0.1297  0.2095  0.1778
  693DOPE   C4A 8127   3.804  15.314  11.015 -0.1317 -0.0876  0.2259
  693DOPE   C1B 8128   4.681  15.618  10.959 -0.0532  0.0975  0.1082
  693DOPE   D2B 8129   4.497  15.520  11.412 -0.0413  0.1369  0.2343
  693DOPE   C3B 8130   4.050  15.460  11.539 -0.2842 -0.1607  0.4042
  693DOPE   C4B 8131   3.574  15.403  11.656  0.2592  0.0676 -0.2503
  694POSM   NC3 8132   7.733  17.731   9.918  0.0131 -0.1045  0.2070
  694POSM   PO4 8133   7.918  17.992   9.667  0.0213 -0.4258  0.1842
  694POSM   AM1 8134   7.967  18.104   9.933 -0.0540 -0.1759 -0.0021
  694POSM   AM2 8135   7.985  18.133  10.186  0.0685  0.2009  0.3029
  694POSM   T1A 8136   7.851  18.597  10.189  0.2641 -0.2039 -0.1409
  694POSM   C2A 8137   7.889  19.053  10.354 -0.0144  0.1423  0.0850
  694POSM   C3A 8138   8.296  19.216  10.275 -0.1004  0.0758  0.0882
  694POSM   C1B 8139   8.024  18.143  10.542  0.0244 -0.2593  0.0122
  694POSM   D2B 8140   8.047  18.246  10.974 -0.2823  0.0632  0.0311
  694POSM   C3B 8141   7.722  18.603  11.165  0.2338  0.1524 -0.0154
  694POSM   C4B 8142   7.728  19.002  11.425  0.2004  0.3217 -0.0060
  695POSM   NC3 8143  11.302  20.118  10.354  0.2364 -0.2327  0.0341
  695POSM   PO4 8144  11.644  19.916  10.315 -0.1148  0.0920  0.0809
  695POSM   AM1 8145  11.725  19.831  10.635 -0.1354  0.0395  0.0770
  695POSM   AM2 8146  11.917  19.779  10.837  0.0750 -0.2116 -0.0282
  695POSM   T1A 8147  11.686  19.938  11.159  0.0156 -0.0878 -0.4014
  695POSM   C2A 8148  11.613  19.853  11.628 -0.0747  0.1059  0.0617
  695POSM   C3A 8149  11.433  20.111  12.013  0.0975 -0.0213  0.2537
  695POSM   C1B 8150  12.206  19.759  10.971  0.0394 -0.2816 -0.3061
  695POSM   D2B 8151  12.573  19.938  11.159 -0.0168  0.4301  0.0407
  695POSM   C3B 8152  12.436  20.214  11.468  0.1338 -0.0788  0.1603
  695POSM   C4B 8153  12.378  20.061  11.828  0.1679 -0.0110  0.1866
  696DOPC   NC3 8154  33.048  14.649  10.304 -0.0461 -0.0436  0.2048
  696DOPC   PO4 8155  33.255  14.960  10.111  0.0845  0.0537 -0.2308
  696DOPC   GL1 8156  33.536  14.991  10.404  0.4564 -0.1756 -0.0970
  696DOPC   GL2 8157  33.655  14.698  10.499 -0.0383 -0.0772  0.0029
  696DOPC   C1A 8158  33.433  15.153  10.814 -0.4324  0.3409 -0.1521
  696DOPC   D2A 8159  33.309  15.103  11.257 -0.0418  0.3181 -0.1722
  696DOPC   C3A 8160  33.309  14.591  11.376  0.0284 -0.1228 -0.0410
  696DOPC   C4A 8161  33.413  14.209  11.659  0.0512 -0.2184 -0.2305
  696DOPC   C1B 8162  33.922  15.032  10.714 -0.1690 -0.0469 -0.0068
  696DOPC   D2B 8163  34.122  15.159  11.139 -0.0644  0.1418  0.2020
  696DOPC   C3B 8164  33.987  14.850  11.447  0.0069  0.1991  0.0545
  696DOPC   C4B 8165  34.030  14.560  11.822 -0.0054  0.2317 -0.2433
  697DOPC   NC3 8166   2.630  20.850  10.030  0.1372  0.4958 -0.1728
  697DOPC   PO4 8167   2.923  21.064   9.980 -0.0048  0.2024 -0.1482
  697DOPC   GL1 8168   2.837  21.215  10.215 -0.4073  0.0643  0.1765
  697DOPC   GL2 8169   2.964  21.500  10.216 -0.2675 -0.0211  0.1420
  697DOPC   C1A 8170   2.730  21.242  10.692  0.0301 -0.4359 -0.2010
  697DOPC   D2A 8171   2.852  21.220  11.145 -0.0023  0.4598  0.0022
  697DOPC   C3A 8172   2.698  21.477  11.438  0.2227  0.0424 -0.1690
  697DOPC   C4A 8173   2.744  21.870  11.695 -0.3280  0.2658 -0.0313
  697DOPC   C1B 8174   3.033  21.624  10.665 -0.0207 -0.2244 -0.1483
  697DOPC   D2B 8175   3.287  21.485  11.052 -0.1132  0.0568  0.0864
  697DOPC   C3B 8176   3.662  21.693  11.043  0.0723 -0.0433  0.4217
  697DOPC   C4B 8177   4.029  21.711  10.701 -0.0062 -0.1602 -0.0519
  698DOPC   NC3 8178   6.123  15.857  10.461  0.0643  0.1371  0.0148
  698DOPC   PO4 8179   5.879  16.145  10.360 -0.1788 -0.1400  0.1076
  698DOPC   GL1 8180   5.645  16.034  10.644 -0.3015  0.3566  0.0519
  698DOPC   GL2 8181   5.836  15.922  10.868  0.0392  0.0734  0.3113
  698DOPC   C1A 8182   5.498  16.332  10.945  0.1153 -0.1604 -0.1371
  698DOPC   D2A 8183   5.513  16.643  11.312 -0.1205  0.1353  0.1967
  698DOPC   C3A 8184   5.874  16.611  11.635 -0.0237  0.0339  0.0677
  698DOPC   C4A 8185   6.314  16.702  11.819  0.1494 -0.0363  0.2724
  698DOPC   C1B 8186   5.719  15.783  11.274 -0.0885  0.0611 -0.3067
  698DOPC   D2B 8187   5.867  15.584  11.685  0.0527  0.0088  0.1812
  698DOPC   C3B 8188   6.188  15.608  12.018  0.0673 -0.0107  0.0129
  698DOPC   C4B 8189   6.188  15.819  12.440  0.2774  0.0793  0.2589
  699POSM   NC3 8190   1.708  15.118   9.979 -0.0563 -0.0393 -0.4301
  699POSM   PO4 8191   1.838  15.461   9.905 -0.5172  0.0014  0.5409
  699POSM   AM1 8192   1.798  15.692  10.123 -0.0634 -0.1502 -0.0049
  699POSM   AM2 8193   1.967  15.821  10.322  0.0058 -0.3210  0.1374
  699POSM   T1A 8194   1.428  15.852  10.319  0.3593 -0.0022  0.0126
  699POSM   C2A 8195   1.296  15.930  10.743  0.0630 -0.1245 -0.2086
  699POSM   C3A 8196   1.222  16.057  11.161  0.1942 -0.0926  0.0671
  699POSM   C1B 8197   1.922  15.831  10.677  0.2093 -0.3520 -0.1026
  699POSM   D2B 8198   1.670  15.902  11.053 -0.1112  0.1663  0.2136
  699POSM   C3B 8199   1.618  15.897  11.463  0.0083  0.0079 -0.2678
  699POSM   C4B 8200   1.677  15.981  11.948 -0.0084 -0.0574  0.2663
  700DOPC   NC3 8201   0.625  21.750   9.850 -0.4385  0.3692  0.1314
  700DOPC   PO4 8202   0.261  21.600   9.757  0.2166 -0.4250 -0.0311
  700DOPC   GL1 8203   0.246  21.899  10.095  0.1414  0.3891  0.2177
  700DOPC   GL2 8204   0.203  22.127   9.940 -0.3239 -0.0777  0.1168
  700DOPC   C1A 8205  -0.028  21.891  10.484  0.2129  0.1619 -0.2253
  700DOPC   D2A 8206  -0.112  21.811  10.924 -0.3228 -0.0273  0.3047
  700DOPC   C3A 8207  -0.033  21.742  11.369  0.0524  0.0313 -0.3315
  700DOPC   C4A 8208   0.329  21.542  11.583  0.6998 -0.0980  0.1595
  700DOPC   C1B 8209   0.177  22.379  10.314 -0.3559  0.0779 -0.1937
  700DOPC   D2B 8210   0.059  22.427  10.739 -0.2346 -0.2946  0.0496
  700DOPC   C3B 8211   0.352  22.551  11.062  0.1399  0.1386 -0.3703
  700DOPC   C4B 8212   0.525  22.695  11.483 -0.2081  0.1339  0.0315
  701POSM   NC3 8213  10.320  15.971  10.661 -0.1249 -0.1113 -0.0466
  701POSM   PO4 8214   9.920  16.053  10.680  0.2404  0.1504  0.1522
  701POSM   AM1 8215   9.696  16.076  10.966 -0.5528 -0.0195 -0.0298
  701POSM   AM2 8216   9.672  15.861  11.177 -0.2865 -0.0102  0.2236
  701POSM   T1A 8217   9.349  16.310  11.242  0.1345 -0.0312  0.0767
  701POSM   C2A 8218   9.370  16.494  11.686  0.1090 -0.0457  0.3553
  701POSM   C3A 8219   9.478  16.766  12.011 -0.1987  0.0173 -0.2154
  701POSM   C1B 8220   9.570  15.846  11.522  0.0404  0.0617 -0.1674
  701POSM   D2B 8221   9.680  15.867  11.957  0.1442 -0.0110  0.1721
  701POSM   C3B 8222   9.486  16.244  12.100 -0.0058 -0.0814  0.2078
  701POSM   C4B 8223   9.091  16.436  12.126  0.1198  0.1444  0.1737
  702DOPS   CNO 8224   9.318  14.650  11.333  0.2324 -0.1074 -0.5378
  702DOPS   PO4 8225   9.175  14.487  11.017 -0.1343  0.0621  0.0366
  702DOPS   GL1 8226   9.113  14.168  11.330  0.1950  0.2057  0.1774
  702DOPS   GL2 8227   9.378  14.195  11.550  0.0409 -0.1128 -0.1399
  702DOPS   C1A 8228   8.659  14.106  11.536 -0.0125 -0.0319 -0.2165
  702DOPS   D2A 8229   8.339  13.794  11.627  0.1012 -0.0259 -0.0546
  702DOPS   C3A 8230   8.277  13.732  12.071 -0.1381  0.0332  0.3423
  702DOPS   C4A 8231   8.333  14.025  12.399 -0.0757 -0.0658 -0.0215
  702DOPS   C1B 8232   9.506  14.262  12.003 -0.0520  0.0086  0.0451
  702DOPS   D2B 8233   9.661  14.048  12.430  0.4095 -0.0196  0.1028
  702DOPS   C3B 8234   9.546  13.661  12.553  0.0582 -0.0133  0.3427
  702DOPS   C4B 8235   9.158  13.438  12.651  0.1352  0.3308  0.2086
  703DOPC   NC3 8236   3.339  16.235   9.287 -0.2083  0.1204 -0.1523
  703DOPC   PO4 8237   3.647  16.086   9.474 -0.0942 -0.0915 -0.1385
  703DOPC   GL1 8238   3.801  15.717   9.813 -0.2497 -0.2514 -0.0558
  703DOPC   GL2 8239   3.779  15.427   9.795 -0.0842  0.3079 -0.2310
  703DOPC   C1A 8240   3.915  15.870  10.244 -0.2280  0.1428  0.0265
  703DOPC   D2A 8241   3.821  16.182  10.551  0.1235  0.0638 -0.2518
  703DOPC   C3A 8242   3.746  16.145  11.022 -0.0436  0.1566 -0.1899
  703DOPC   C4A 8243   3.833  15.965  11.466 -0.2551  0.0874  0.2454
  703DOPC   C1B 8244   3.527  15.583  10.149  0.2100 -0.1186 -0.1596
  703DOPC   D2B 8245   3.426  15.986  10.328 -0.2307  0.3020  0.3441
  703DOPC   C3B 8246   3.353  15.903  10.794  0.1266 -0.0180  0.4197
  703DOPC   C4B 8247   3.415  15.737  11.189 -0.3459  0.0702 -0.1929
  704DOPS   CNO 8248  33.623  22.873   9.935 -0.5545 -0.2780 -0.3426
  704DOPS   PO4 8249  33.817  22.558   9.944 -0.1616 -0.1209 -0.1969
  704DOPS   GL1 8250  33.878  22.332  10.343  0.3464  0.1904 -0.0043
  704DOPS   GL2 8251  33.856  22.637  10.485 -0.0345 -0.0941 -0.1535
  704DOPS   C1A 8252  33.678  22.279  10.776 -0.0907  0.1579 -0.0409
  704DOPS   D2A 8253  33.341  22.185  11.074 -0.1836  0.1751 -0.1749
  704DOPS   C3A 8254  33.392  22.206  11.535 -0.1578 -0.0628  0.0473
  704DOPS   C4A 8255  33.474  22.293  11.977  0.1024 -0.0014  0.2099
  704DOPS   C1B 8256  33.756  22.751  10.914  0.2327 -0.0158 -0.1547
  704DOPS   D2B 8257  33.730  22.491  11.317 -0.1551 -0.4102  0.1618
  704DOPS   C3B 8258  34.121  22.380  11.448 -0.1485  0.0986  0.1021
  704DOPS   C4B 8259  34.355  22.096  11.680  0.1405 -0.1632  0.1385
  705DOPE   NH3 8260   2.833  18.491   9.281  0.0613  0.0570  0.1684
  705DOPE   PO4 8261   2.676  18.557   9.580  0.1468  0.4202 -0.0105
  705DOPE   GL1 8262   2.694  18.449   9.923 -0.0546 -0.3835  0.4219
  705DOPE   GL2 8263   2.431  18.501  10.113  0.0267  0.4256 -0.1442
  705DOPE   C1A 8264   3.035  18.568  10.250  0.1753  0.1976 -0.1472
  705DOPE   D2A 8265   3.441  18.516  10.327 -0.1316 -0.4002  0.1894
  705DOPE   C3A 8266   3.815  18.746  10.215 -0.0106  0.3012  0.3870
  705DOPE   C4A 8267   4.260  18.841  10.096 -0.1865 -0.1483  0.0895
  705DOPE   C1B 8268   2.678  18.471  10.537 -0.1999 -0.0544 -0.0419
  705DOPE   D2B 8269   3.074  18.614  10.751  0.0111 -0.1782  0.1464
  705DOPE   C3B 8270   2.825  18.654  11.145 -0.2536  0.0974 -0.0256
  705DOPE   C4B 8271   2.538  18.847  11.441  0.1285 -0.0867  0.0660
  706DOPE   NH3 8272   9.369  15.307  10.809 -0.0867 -0.0886 -0.0353
  706DOPE   PO4 8273   9.332  15.028  10.941 -0.0884  0.0119 -0.4394
  706DOPE   GL1 8274   9.130  15.041  11.333 -0.2345 -0.2043 -0.3102
  706DOPE   GL2 8275   9.378  15.126  11.465  0.0336 -0.2533  0.3120
  706DOPE   C1A 8276   8.670  14.983  11.582 -0.1427  0.1433 -0.0675
  706DOPE   D2A 8277   8.236  14.822  11.702 -0.1509 -0.0109  0.0018
  706DOPE   C3A 8278   8.059  14.869  12.153 -0.0354 -0.1925  0.1878
  706DOPE   C4A 8279   7.933  14.896  12.634 -0.0913 -0.0423  0.1798
  706DOPE   C1B 8280   9.732  15.396  11.680  0.1161  0.2195 -0.3063
  706DOPE   D2B 8281  10.064  15.698  11.703  0.0938 -0.0072  0.1004
  706DOPE   C3B 8282   9.996  16.051  11.527  0.3443 -0.1685 -0.1202
  706DOPE   C4B 8283   9.920  16.435  11.367  0.2955 -0.1651  0.0085
  707DOPE   NH3 8284   7.228  13.089  10.312 -0.0961  0.3133  0.0569
  707DOPE   PO4 8285   7.243  13.085  10.616  0.2176 -0.1608  0.1343
  707DOPE   GL1 8286   7.267  12.947  11.036  0.4722  0.3048  0.0551
  707DOPE   GL2 8287   7.124  13.218  11.138 -0.1869  0.3326 -0.1863
  707DOPE   C1A 8288   7.488  12.924  11.445 -0.3852  0.1867 -0.3356
  707DOPE   D2A 8289   7.477  13.154  11.838  0.1837 -0.0872 -0.0193
  707DOPE   C3A 8290   7.195  13.015  12.217 -0.2274 -0.0348  0.2565
  707DOPE   C4A 8291   6.956  12.781  12.514 -0.1604 -0.1936  0.2517
  707DOPE   C1B 8292   6.989  13.362  11.521 -0.2588 -0.1343  0.1377
  707DOPE   D2B 8293   7.030  13.366  11.953  0.0953  0.2226  0.2002
  707DOPE   C3B 8294   7.312  13.576  12.247 -0.1657 -0.1831 -0.2581
  707DOPE   C4B 8295   7.431  13.985  12.454  0.3162 -0.0515 -0.0787
  708DOPC   NC3 8296   3.901  12.358  10.383  0.2866  0.0711 -0.0226
  708DOPC   PO4 8297   4.122  12.102  10.620  0.0285  0.0848 -0.1639
  708DOPC   GL1 8298   4.140  12.075  10.979 -0.3043  0.3922  0.3637
  708DOPC   GL2 8299   4.239  12.350  11.086  0.0711  0.2118 -0.0091
  708DOPC   C1A 8300   3.756  12.172  11.127 -0.0954  0.0256 -0.3872
  708DOPC   D2A 8301   3.320  12.299  11.261  0.0750  0.1198  0.1339
  708DOPC   C3A 8302   3.402  12.325  11.680 -0.2826 -0.0146  0.3170
  708DOPC   C4A 8303   3.104  12.357  12.036  0.1378  0.0787  0.3722
  708DOPC   C1B 8304   4.222  12.105  11.489  0.2715  0.0504 -0.2906
  708DOPC   D2B 8305   4.192  11.717  11.776 -0.2846 -0.0447 -0.4646
  708DOPC   C3B 8306   4.590  11.436  11.866  0.0415 -0.0805  0.1634
  708DOPC   C4B 8307   4.731  10.973  11.796 -0.3006  0.0605  0.1282
  709DOPS   CNO 8308   8.697  18.201   9.170 -0.1971 -0.0227 -0.2788
  709DOPS   PO4 8309   8.591  18.081   9.546  0.3211 -0.1375 -0.0059
  709DOPS   GL1 8310   8.610  18.144  10.018  0.1211  0.0588  0.1949
  709DOPS   GL2 8311   8.888  18.224  10.210 -0.0847 -0.0455 -0.1766
  709DOPS   C1A 8312   8.415  18.352  10.376  0.0132 -0.0414  0.0351
  709DOPS   D2A 8313   8.287  18.794  10.504  0.1653  0.2314 -0.2534
  709DOPS   C3A 8314   8.031  18.955  10.865  0.2276  0.2894 -0.0086
  709DOPS   C4A 8315   7.604  18.986  10.832 -0.1897 -0.0056 -0.0639
  709DOPS   C1B 8316   8.856  18.153  10.694  0.0392  0.1534 -0.2732
  709DOPS   D2B 8317   8.836  18.126  11.163 -0.0266 -0.1280  0.1015
  709DOPS   C3B 8318   8.903  18.367  11.592 -0.1950 -0.0571 -0.0095
  709DOPS   C4B 8319   8.878  18.414  11.995  0.0263 -0.3269 -0.1324
  710DOPS   CNO 8320   6.532  19.294   9.122 -0.2388 -0.0853  0.1548
  710DOPS   PO4 8321   6.268  19.130   9.357  0.0200 -0.0859 -0.1046
  710DOPS   GL1 8322   6.158  19.105   9.758 -0.3397 -0.1061 -0.2251
  710DOPS   GL2 8323   6.350  18.892   9.935  0.3341 -0.0782  0.2511
  710DOPS   C1A 8324   6.097  19.304  10.176 -0.2578  0.2516 -0.0194
  710DOPS   D2A 8325   6.369  19.556  10.439 -0.2135  0.2838 -0.0903
  710DOPS   C3A 8326   6.165  19.692  10.802 -0.1758  0.1020  0.0182
  710DOPS   C4A 8327   5.987  19.502  11.162 -0.1428 -0.0675 -0.0827
  710DOPS   C1B 8328   6.241  18.866  10.409 -0.0290  0.1274  0.0893
  710DOPS   D2B 8329   6.170  18.595  10.776 -0.2957  0.1924 -0.0369
  710DOPS   C3B 8330   6.454  18.455  11.093  0.3460  0.0421 -0.0259
  710DOPS   C4B 8331   6.403  18.122  11.424 -0.0812 -0.3581  0.4461
  711DOPC   NC3 8332   4.227  20.482   9.467  0.3901  0.2249  0.0312
  711DOPC   PO4 8333   4.277  20.633   9.806  0.2060 -0.1002  0.2023
  711DOPC   GL1 8334   4.238  20.667  10.110  0.1560 -0.3121  0.1255
  711DOPC   GL2 8335   4.307  20.471  10.299 -0.0375 -0.0701 -0.0697
  711DOPC   C1A 8336   4.194  20.836  10.535 -0.2112  0.0662 -0.1540
  711DOPC   D2A 8337   4.321  20.750  11.010 -0.1931 -0.0612 -0.0742
  711DOPC   C3A 8338   4.499  20.418  11.292 -0.0105 -0.3908  0.0811
  711DOPC   C4A 8339   4.466  19.932  11.407  0.0461 -0.2707 -0.1601
  711DOPC   C1B 8340   4.183  20.356  10.715  0.0520 -0.0263 -0.0410
  711DOPC   D2B 8341   3.988  20.376  11.131  0.0668  0.1469 -0.0815
  711DOPC   C3B 8342   4.108  20.706  11.439  0.0887  0.0807  0.0828
  711DOPC   C4B 8343   3.834  20.995  11.785  0.2669  0.1464 -0.1106
  712DOPS   CNO 8344  33.560  17.983   9.301  0.0437  0.3194  0.0219
  712DOPS   PO4 8345  33.923  17.973   9.423  0.0642 -0.0506  0.4211
  712DOPS   GL1 8346  33.704  17.927   9.762 -0.4997  0.6407  0.0694
  712DOPS   GL2 8347  33.488  17.689   9.689  0.0904 -0.1725  0.4878
  712DOPS   C1A 8348  33.523  18.296  10.056  0.0547  0.1334 -0.0346
  712DOPS   D2A 8349  33.197  18.262  10.367  0.1653  0.2560  0.0300
  712DOPS   C3A 8350  33.182  18.180  10.835  0.4381 -0.0054  0.0703
  712DOPS   C4A 8351  33.368  18.220  11.282  0.0514 -0.1768  0.2560
  712DOPS   C1B 8352  33.652  17.602  10.139 -0.0196  0.0552  0.2997
  712DOPS   D2B 8353  34.030  17.629  10.506  0.0010 -0.2180 -0.1420
  712DOPS   C3B 8354  34.055  17.384  10.919  0.1533 -0.0740 -0.1664
  712DOPS   C4B 8355  34.124  17.185  11.257 -0.0723  0.1836 -0.0240
  713DOPS   CNO 8356   0.901  22.084   9.223  0.2058  0.2449 -0.1157
  713DOPS   PO4 8357   0.954  21.947   9.557 -0.0663  0.1955 -0.0155
  713DOPS   GL1 8358   1.021  22.036   9.943 -0.1446  0.1213  0.0349
  713DOPS   GL2 8359   1.103  21.766  10.008 -0.0645  0.0644 -0.3996
  713DOPS   C1A 8360   0.691  21.998  10.291 -0.1922  0.0565  0.1694
  713DOPS   D2A 8361   0.461  21.912  10.698  0.1494 -0.0419 -0.0380
  713DOPS   C3A 8362   0.750  22.058  11.044  0.3027  0.0168  0.0313
  713DOPS   C4A 8363   1.177  22.003  11.321  0.1372  0.0563  0.1293
  713DOPS   C1B 8364   1.169  21.937  10.452  0.2138 -0.2763  0.2407
  713DOPS   D2B 8365   1.144  21.842  10.852 -0.2844  0.1727 -0.0844
  713DOPS   C3B 8366   1.372  21.496  10.946 -0.1350  0.1995 -0.2359
  713DOPS   C4B 8367   1.462  21.109  11.126  0.1631  0.0200 -0.1504
  714DOPC   NC3 8368   0.981  25.816   9.383  0.2013 -0.2611  0.1130
  714DOPC   PO4 8369   0.980  25.485   9.603 -0.0727 -0.0725  0.5569
  714DOPC   GL1 8370   0.949  25.315   9.945 -0.2377 -0.0210  0.2638
  714DOPC   GL2 8371   0.692  25.203  10.056 -0.4416 -0.3110 -0.1444
  714DOPC   C1A 8372   0.832  25.546  10.362 -0.0420  0.1113 -0.1688
  714DOPC   D2A 8373   0.963  25.746  10.807  0.3959  0.0037  0.3950
  714DOPC   C3A 8374   0.702  25.969  11.147 -0.0999  0.2937 -0.0510
  714DOPC   C4A 8375   0.267  26.050  11.187  0.0466  0.0379 -0.0898
  714DOPC   C1B 8376   0.360  25.311  10.370 -0.3143  0.2745 -0.0711
  714DOPC   D2B 8377   0.323  25.573  10.757 -0.1924  0.1519 -0.1203
  714DOPC   C3B 8378   0.103  25.578  11.132  0.1083  0.0772 -0.2920
  714DOPC   C4B 8379   0.088  25.280  11.513  0.0056 -0.1013 -0.1682
  715DOPE   NH3 8380   8.866  12.978  10.898 -0.0492  0.0607  0.1093
  715DOPE   PO4 8381   9.141  13.028  10.851  0.0342 -0.1480  0.0982
  715DOPE   GL1 8382   9.214  12.773  11.093 -0.2628 -0.4739  0.1319
  715DOPE   GL2 8383   9.500  12.854  11.213  0.2284 -0.3723 -0.1133
  715DOPE   C1A 8384   9.051  12.523  11.511  0.2177  0.2376 -0.1311
  715DOPE   D2A 8385   9.041  12.567  11.944  0.0865 -0.1539  0.1483
  715DOPE   C3A 8386   9.247  12.791  12.296 -0.2477 -0.4441  0.4318
  715DOPE   C4A 8387   9.553  12.539  12.487  0.1248  0.3917 -0.2485
  715DOPE   C1B 8388   9.317  12.930  11.622 -0.2749  0.2764  0.0789
  715DOPE   D2B 8389   8.962  13.074  11.851 -0.1324 -0.3405 -0.1693
  715DOPE   C3B 8390   8.894  13.108  12.304 -0.1167  0.1333 -0.0053
  715DOPE   C4B 8391   8.667  13.098  12.624 -0.1080  0.0468  0.0172
  716DOPE   NH3 8392  33.130  22.977   9.846 -0.1197 -0.0630 -0.3288
  716DOPE   PO4 8393  33.290  23.231   9.686 -0.0482  0.0411  0.1922
  716DOPE   GL1 8394  33.474  23.327  10.027  0.0593  0.1758 -0.0816
  716DOPE   GL2 8395  33.307  23.177  10.248 -0.1519  0.0317 -0.0398
  716DOPE   C1A 8396  33.332  23.776  10.194  0.3200  0.1641 -0.2859
  716DOPE   D2A 8397  33.167  24.012  10.534 -0.0149 -0.1507 -0.2622
  716DOPE   C3A 8398  33.422  23.950  10.974 -0.0432  0.1557  0.2035
  716DOPE   C4A 8399  33.693  23.880  11.356  0.0113 -0.0438 -0.2152
  716DOPE   C1B 8400  33.334  23.435  10.628 -0.1111  0.1192 -0.2267
  716DOPE   D2B 8401  33.395  23.361  11.067 -0.3481  0.3031  0.0220
  716DOPE   C3B 8402  33.227  23.711  11.384  0.1133  0.0843 -0.2837
  716DOPE   C4B 8403  32.932  23.723  11.811  0.3205  0.2506 -0.1278
  717POSM   NC3 8404   2.847  14.877   9.233 -0.1743 -0.3855  0.1258
  717POSM   PO4 8405   3.149  14.907   9.456 -0.1241 -0.0300  0.1828
  717POSM   AM1 8406   3.210  14.826   9.762 -0.1155 -0.0594  0.2911
  717POSM   AM2 8407   3.137  15.007   9.946 -0.0229  0.1392 -0.2281
  717POSM   T1A 8408   3.375  14.685  10.228  0.0787  0.1054  0.3979
  717POSM   C2A 8409   3.204  14.619  10.653 -0.1988 -0.2447  0.0163
  717POSM   C3A 8410   3.340  14.601  11.112 -0.1667  0.0247 -0.0644
  717POSM   C1B 8411   3.106  15.304  10.015  0.4051  0.0011  0.0963
  717POSM   D2B 8412   2.986  15.625  10.336  0.1908 -0.1676 -0.1550
  717POSM   C3B 8413   2.894  15.735  10.752  0.0062 -0.1317 -0.2584
  717POSM   C4B 8414   2.902  15.569  11.228  0.0991 -0.0841 -0.2410
  718DOPS   CNO 8415   6.571  20.569   9.730  0.0479  0.0973 -0.0386
  718DOPS   PO4 8416   6.332  20.847   9.773 -0.0614 -0.2735  0.1038
  718DOPS   GL1 8417   6.242  20.643  10.126  0.1548 -0.1560 -0.0985
  718DOPS   GL2 8418   6.532  20.723  10.249  0.0567  0.0184 -0.1480
  718DOPS   C1A 8419   5.894  20.416  10.281  0.1340 -0.1889  0.2379
  718DOPS   D2A 8420   5.966  20.143  10.674  0.2312  0.0279 -0.0237
  718DOPS   C3A 8421   6.298  20.179  10.950 -0.0904  0.1883 -0.1567
  718DOPS   C4A 8422   6.789  20.223  10.985 -0.0146  0.1164 -0.1996
  718DOPS   C1B 8423   6.662  21.083  10.485  0.0853 -0.1509  0.0649
  718DOPS   D2B 8424   6.700  21.418  10.800  0.3614  0.2346 -0.1598
  718DOPS   C3B 8425   6.880  21.914  10.844  0.0235 -0.0921 -0.1365
  718DOPS   C4B 8426   7.066  22.211  11.061  0.0718 -0.4886  0.1323
  719DOPC   NC3 8427   8.078  11.356  10.428  0.0121  0.2120  0.0082
  719DOPC   PO4 8428   7.811  11.228  10.681  0.1289 -0.1386 -0.1904
  719DOPC   GL1 8429   7.967  11.207  11.073 -0.1900 -0.2730 -0.4707
  719DOPC   GL2 8430   7.856  10.963  11.133  0.1040  0.2168 -0.3370
  719DOPC   C1A 8431   8.066  11.425  11.446  0.0752 -0.1383  0.2551
  719DOPC   D2A 8432   8.209  11.583  11.795 -0.0719  0.0890  0.0320
  719DOPC   C3A 8433   8.149  11.382  12.218 -0.1523 -0.0699 -0.1486
  719DOPC   C4A 8434   7.732  11.231  12.349 -0.1266 -0.3030  0.0709
  719DOPC   C1B 8435   8.128  10.908  11.537 -0.0789 -0.1316  0.0112
  719DOPC   D2B 8436   8.028  10.950  11.961  0.2814 -0.1189 -0.3291
  719DOPC   C3B 8437   7.758  10.701  12.265  0.1134 -0.0411 -0.0880
  719DOPC   C4B 8438   7.515  10.548  12.699 -0.0140 -0.1292  0.0092
  720DOPE   NH3 8439   0.881  14.485   9.667 -0.0040  0.1613 -0.2666
  720DOPE   PO4 8440   1.067  14.206   9.760 -0.1183 -0.1115  0.0694
  720DOPE   GL1 8441   0.998  14.334  10.144 -0.2807  0.2172 -0.1935
  720DOPE   GL2 8442   0.827  14.572  10.245 -0.0787 -0.3615  0.1187
  720DOPE   C1A 8443   1.235  14.433  10.538  0.1757 -0.0086 -0.0604
  720DOPE   D2A 8444   1.029  14.458  10.955  0.1387  0.3277  0.0146
  720DOPE   C3A 8445   1.048  14.505  11.409 -0.1233 -0.1590  0.0973
  720DOPE   C4A 8446   0.681  14.703  11.617 -0.0506 -0.0535 -0.0020
  720DOPE   C1B 8447   0.673  14.717  10.664 -0.0815  0.1332  0.0414
  720DOPE   D2B 8448   0.678  14.771  11.155  0.0442  0.0214 -0.2895
  720DOPE   C3B 8449   0.338  14.964  11.441  0.2047  0.3036 -0.2045
  720DOPE   C4B 8450   0.159  15.250  11.779 -0.0341 -0.1173 -0.1654
  721DOPS   CNO 8451   7.128  10.493  10.310 -0.4099  0.2080  0.0032
  721DOPS   PO4 8452   7.435  10.272  10.328  0.2918 -0.0866 -0.2484
  721DOPS   GL1 8453   7.421  10.217  10.730  0.2623 -0.2259  0.0829
  721DOPS   GL2 8454   7.274  10.352  10.947  0.1885 -0.2803 -0.2508
  721DOPS   C1A 8455   7.595   9.930  11.073  0.0165  0.0978 -0.7829
  721DOPS   D2A 8456   7.613   9.494  11.241 -0.2610 -0.3134  0.1338
  721DOPS   C3A 8457   7.442   9.332  11.631 -0.0800 -0.2721  0.2084
  721DOPS   C4A 8458   7.319   9.180  12.056 -0.0500 -0.2295 -0.0539
  721DOPS   C1B 8459   7.164  10.359  11.426 -0.0953  0.0353  0.2330
  721DOPS   D2B 8460   6.933  10.596  11.674  0.0151 -0.2058  0.1975
  721DOPS   C3B 8461   7.079  10.386  12.014 -0.1337  0.0083  0.0388
  721DOPS   C4B 8462   7.495  10.200  12.066  0.0160  0.6894  0.3278
  722DOPS   CNO 8463   6.837  17.549   9.643  0.0893 -0.3312  0.3112
  722DOPS   PO4 8464   6.747  17.755   9.918 -0.0214 -0.1843 -0.0257
  722DOPS   GL1 8465   6.694  18.140  10.139  0.0072 -0.0849 -0.2054
  722DOPS   GL2 8466   6.947  18.059  10.355  0.1452  0.0740 -0.0523
  722DOPS   C1A 8467   6.614  18.452  10.514  0.2874 -0.0771  0.1059
  722DOPS   D2A 8468   6.604  18.873  10.756 -0.0698  0.1259 -0.0650
  722DOPS   C3A 8469   6.791  19.166  11.045 -0.0349 -0.2754 -0.0574
  722DOPS   C4A 8470   6.886  19.238  11.504 -0.0493 -0.4718 -0.1673
  722DOPS   C1B 8471   7.132  18.344  10.672 -0.4475  0.0089  0.3137
  722DOPS   D2B 8472   7.089  18.790  10.791  0.3668  0.1132  0.0204
  722DOPS   C3B 8473   7.213  19.010  11.230 -0.1258  0.0086  0.1153
  722DOPS   C4B 8474   7.372  19.286  11.606  0.1515 -0.4474 -0.3078
  723DOPE   NH3 8475  34.545  25.400   9.219 -0.0039  0.1361 -0.0396
  723DOPE   PO4 8476  34.775  25.247   9.327 -0.2763  0.0694  0.0377
  723DOPE   GL1 8477  34.879  25.239   9.754  0.2059 -0.2062  0.1103
  723DOPE   GL2 8478  34.626  25.087   9.857  0.2568 -0.1900  0.1688
  723DOPE   C1A 8479  34.970  25.606   9.994 -0.4037 -0.2036 -0.1099
  723DOPE   D2A 8480  35.079  25.892  10.321 -0.0159  0.0787 -0.1467
  723DOPE   C3A 8481  34.823  26.024  10.689  0.1759 -0.1498 -0.3478
  723DOPE   C4A 8482  34.631  26.424  10.883  0.0660  0.0857  0.2607
  723DOPE   C1B 8483  34.502  25.514  10.017  0.0176 -0.0525  0.2194
  723DOPE   D2B 8484  34.662  25.670  10.428 -0.0567 -0.3875 -0.1215
  723DOPE   C3B 8485  34.416  25.578  10.777 -0.0686  0.0424 -0.1263
  723DOPE   C4B 8486  33.946  25.726  10.880 -0.1776  0.0140  0.3337
  724DOPE   NH3 8487   5.543  15.855  10.108 -0.1467  0.0035 -0.0827
  724DOPE   PO4 8488   5.344  16.097  10.169 -0.1808 -0.0651 -0.3226
  724DOPE   GL1 8489   5.201  16.187  10.538 -0.1721 -0.3082  0.1639
  724DOPE   GL2 8490   5.195  15.918  10.611 -0.0339 -0.2861 -0.0978
  724DOPE   C1A 8491   4.972  16.537  10.786 -0.1570 -0.0974  0.0426
  724DOPE   D2A 8492   4.601  16.686  10.957  0.1885 -0.1499 -0.4334
  724DOPE   C3A 8493   4.596  17.084  11.177 -0.3802  0.1132  0.0577
  724DOPE   C4A 8494   4.893  17.241  11.470 -0.0161  0.1244 -0.1849
  724DOPE   C1B 8495   5.133  15.983  11.044  0.0740 -0.0457 -0.2304
  724DOPE   D2B 8496   5.169  16.309  11.391 -0.1006  0.1107  0.0547
  724DOPE   C3B 8497   5.271  16.657  11.703  0.0123 -0.0206  0.0298
  724DOPE   C4B 8498   5.552  16.988  11.696 -0.0134  0.0304  0.0668
  725POSM   NC3 8499   9.830  12.510  10.835 -0.1479  0.0412  0.0178
  725POSM   PO4 8500   9.821  12.161  10.927  0.3436  0.1659 -0.1856
  725POSM   AM1 8501   9.565  12.184  11.117 -0.0186 -0.2626 -0.0467
  725POSM   AM2 8502   9.380  12.378  11.172  0.0004  0.1895  0.1966
  725POSM   T1A 8503   9.327  11.996  11.540  0.2036 -0.3021  0.1161
  725POSM   C2A 8504   9.534  11.999  11.977  0.0546  0.2390 -0.2397
  725POSM   C3A 8505   9.594  11.927  12.458 -0.0614  0.1638 -0.0891
  725POSM   C1B 8506   9.531  12.461  11.491  0.0106 -0.1368 -0.1301
  725POSM   D2B 8507   9.835  12.784  11.607 -0.0870 -0.0268  0.1867
  725POSM   C3B 8508  10.236  12.572  11.681  0.0841 -0.2317  0.2452
  725POSM   C4B 8509  10.606  12.628  11.925  0.0260  0.1131  0.0268
  726DOPC   NC3 8510   6.191  11.912  10.798  0.0872 -0.0236  0.1495
  726DOPC   PO4 8511   6.446  12.146  10.569  0.2677  0.2969  0.0265
  726DOPC   GL1 8512   6.739  11.934  10.810  0.2299 -0.1746 -0.1659
  726DOPC   GL2 8513   6.594  11.907  11.035 -0.0335 -0.3386 -0.0196
  726DOPC   C1A 8514   7.004  11.993  11.183 -0.2911  0.0700  0.1112
  726DOPC   D2A 8515   7.287  12.025  11.531  0.3051 -0.4743  0.2591
  726DOPC   C3A 8516   7.295  12.077  12.001  0.0209 -0.1936  0.3267
  726DOPC   C4A 8517   7.240  12.468  12.255  0.1881 -0.0928  0.3706
  726DOPC   C1B 8518   6.571  11.837  11.493 -0.0890  0.0053  0.1312
  726DOPC   D2B 8519   6.399  12.099  11.812  0.0820  0.4447 -0.0637
  726DOPC   C3B 8520   6.242  12.184  12.255 -0.2843 -0.1624  0.0233
  726DOPC   C4B 8521   5.951  12.105  12.657  0.3000  0.2622  0.1256
  727DOPC   NC3 8522   0.318  15.260   9.804  0.0121  0.1982 -0.1842
  727DOPC   PO4 8523   0.218  15.567   9.575 -0.0981  0.0927  0.0947
  727DOPC   GL1 8524   0.114  15.679  10.045 -0.0991  0.1786  0.0628
  727DOPC   GL2 8525  -0.129  15.905  10.207  0.0648 -0.2671 -0.0864
  727DOPC   C1A 8526   0.278  15.761  10.472 -0.2494  0.1069 -0.4029
  727DOPC   D2A 8527   0.384  15.767  10.886  0.2273  0.0214 -0.3682
  727DOPC   C3A 8528   0.490  15.406  11.209 -0.0556 -0.1688 -0.2068
  727DOPC   C4A 8529   0.814  15.206  11.467 -0.7018 -0.0782 -0.1068
  727DOPC   C1B 8530  -0.155  16.001  10.660  0.1467 -0.0562 -0.0605
  727DOPC   D2B 8531  -0.096  15.906  11.120 -0.2320 -0.2012 -0.2663
  727DOPC   C3B 8532  -0.042  15.748  11.518 -0.0818  0.3768 -0.0236
  727DOPC   C4B 8533  -0.276  15.475  11.782  0.1356 -0.1185  0.0356
  728DOPE   NH3 8534  10.022  25.819   9.084  0.1125 -0.0204 -0.1438
  728DOPE   PO4 8535   9.810  25.726   9.325 -0.0181 -0.0061 -0.0176
  728DOPE   GL1 8536   9.967  25.779   9.651  0.0180 -0.3064 -0.0436
  728DOPE   GL2 8537  10.156  25.641   9.659  0.3664 -0.2367 -0.1257
  728DOPE   C1A 8538   9.847  25.961  10.059  0.1696 -0.2465  0.0313
  728DOPE   D2A 8539   9.721  26.015  10.501 -0.1721 -0.1512 -0.1578
  728DOPE   C3A 8540   9.588  25.947  10.967  0.1627  0.1955  0.0110
  728DOPE   C4A 8541   9.581  25.925  11.475 -0.1150 -0.0817  0.0242
  728DOPE   C1B 8542  10.399  25.693  10.095 -0.1309 -0.0720 -0.0734
  728DOPE   D2B 8543  10.618  25.746  10.477  0.1904 -0.5491  0.1569
  728DOPE   C3B 8544  11.115  25.696  10.496 -0.0929 -0.0641 -0.2681
  728DOPE   C4B 8545  11.534  25.423  10.391  0.1612 -0.0712 -0.2949
  729POSM   NC3 8546   7.829  21.436   9.687 -0.2813  0.0561 -0.1395
  729POSM   PO4 8547   8.169  21.671   9.827 -0.0243 -0.1244 -0.2063
  729POSM   AM1 8548   8.038  21.570  10.106 -0.0923 -0.0761 -0.2075
  729POSM   AM2 8549   8.105  21.653  10.360  0.4397 -0.0153 -0.0212
  729POSM   T1A 8550   7.984  21.178  10.339  0.0109 -0.1531  0.1793
  729POSM   C2A 8551   7.935  20.714  10.446 -0.0121  0.0403 -0.0827
  729POSM   C3A 8552   7.782  20.301  10.599  0.1943 -0.0796  0.0022
  729POSM   C1B 8553   8.142  21.476  10.659 -0.1511 -0.1070  0.1703
  729POSM   D2B 8554   8.282  21.609  11.098 -0.1496 -0.2296 -0.3210
  729POSM   C3B 8555   8.418  21.194  11.293  0.2047  0.3310  0.0436
  729POSM   C4B 8556   8.498  20.825  11.055  0.2719 -0.1991 -0.0687
  730DOPE   NH3 8557   4.144  18.264   9.952 -0.1794  0.1364  0.1226
  730DOPE   PO4 8558   4.389  18.145   9.788 -0.0096 -0.0438 -0.1227
  730DOPE   GL1 8559   4.706  18.166  10.047 -0.1359 -0.0974  0.0743
  730DOPE   GL2 8560   4.689  18.478  10.060 -0.2367  0.1339  0.1480
  730DOPE   C1A 8561   5.028  18.044  10.297  0.0206  0.3433 -0.0083
  730DOPE   D2A 8562   5.168  17.685  10.585  0.4024 -0.2211  0.0456
  730DOPE   C3A 8563   5.283  17.819  10.970  0.1902 -0.2735  0.0994
  730DOPE   C4A 8564   5.510  17.861  11.356  0.0765  0.2284 -0.0669
  730DOPE   C1B 8565   4.787  18.434  10.509 -0.1067 -0.0466 -0.0371
  730DOPE   D2B 8566   4.980  18.192  10.854 -0.1081  0.0437  0.1983
  730DOPE   C3B 8567   4.815  17.870  11.157  0.2404 -0.1364 -0.1824
  730DOPE   C4B 8568   4.999  17.755  11.540 -0.0173  0.0032  0.3457
  731DOPC   NC3 8569   8.229  17.637   9.398 -0.0399  0.0137 -0.2742
  731DOPC   PO4 8570   8.080  17.349   9.669  0.0358 -0.1691  0.0624
  731DOPC   GL1 8571   8.014  17.346  10.009 -0.5028  0.0064  0.0993
  731DOPC   GL2 8572   8.255  17.380  10.178 -0.1243 -0.4309  0.0382
  731DOPC   C1A 8573   7.810  17.592  10.412  0.0052 -0.0933  0.0506
  731DOPC   D2A 8574   7.580  17.952  10.572  0.0748  0.1076  0.2980
  731DOPC   C3A 8575   7.145  17.871  10.788  0.1212  0.2849  0.3688
  731DOPC   C4A 8576   6.694  18.023  10.918  0.1947  0.2293 -0.0279
  731DOPC   C1B 8577   8.294  17.754  10.457 -0.2914  0.0031 -0.0509
  731DOPC   D2B 8578   8.437  17.964  10.826  0.1874 -0.1234  0.3692
  731DOPC   C3B 8579   8.360  17.989  11.296 -0.0056  0.1859 -0.0745
  731DOPC   C4B 8580   7.969  18.014  11.589  0.2696  0.0229 -0.0165
  732DOPS   CNO 8581   2.328  14.709   9.594  0.0569  0.1240 -0.1752
  732DOPS   PO4 8582   2.650  14.859   9.682 -0.1371  0.0579 -0.0645
  732DOPS   GL1 8583   2.738  14.809  10.107 -0.0768  0.1706  0.0483
  732DOPS   GL2 8584   2.957  14.579  10.140  0.0317 -0.0772  0.2456
  732DOPS   C1A 8585   2.935  15.034  10.525 -0.3126  0.0032 -0.1070
  732DOPS   D2A 8586   2.860  15.136  10.988  0.0487  0.1220 -0.1749
  732DOPS   C3A 8587   3.298  15.214  11.168 -0.2078 -0.1719  0.1279
  732DOPS   C4A 8588   3.683  14.987  11.345  0.0602  0.3218  0.2490
  732DOPS   C1B 8589   2.740  14.504  10.511  0.0556  0.1172 -0.2691
  732DOPS   D2B 8590   2.661  14.389  10.967 -0.0543  0.0691 -0.0630
  732DOPS   C3B 8591   2.900  14.516  11.312  0.0663  0.2258  0.0773
  732DOPS   C4B 8592   2.950  14.475  11.748  0.2032 -0.0059  0.0472
  733DOPE   NH3 8593   2.577  21.432   9.868  0.1688 -0.0748  0.1298
  733DOPE   PO4 8594   2.387  21.315  10.110 -0.0391 -0.2477  0.3692
  733DOPE   GL1 8595   2.429  21.448  10.435  0.2370  0.2691  0.1245
  733DOPE   GL2 8596   2.572  21.675  10.505 -0.0533 -0.1647 -0.1304
  733DOPE   C1A 8597   2.277  21.317  10.881  0.0004 -0.0470 -0.2531
  733DOPE   D2A 8598   2.054  21.059  11.238 -0.0478  0.3174 -0.0737
  733DOPE   C3A 8599   1.680  20.879  11.494 -0.0383 -0.1718  0.1297
  733DOPE   C4A 8600   1.414  20.606  11.725 -0.2210  0.5456  0.1445
  733DOPE   C1B 8601   2.409  21.773  10.920  0.4450  0.1899 -0.2027
  733DOPE   D2B 8602   2.378  21.889  11.331 -0.0489  0.0147  0.0521
  733DOPE   C3B 8603   2.244  21.624  11.635 -0.0212 -0.4578 -0.0795
  733DOPE   C4B 8604   2.006  21.563  12.002  0.1288  0.0415  0.0853
  734DOPE   NH3 8605   3.082  16.911   9.246 -0.4049  0.0966 -0.1797
  734DOPE   PO4 8606   3.046  16.637   9.364 -0.0431  0.1453 -0.1090
  734DOPE   GL1 8607   3.117  16.918   9.697  0.0760  0.0581 -0.3589
  734DOPE   GL2 8608   2.859  16.752   9.863 -0.1579  0.0930  0.0901
  734DOPE   C1A 8609   3.392  17.117   9.946 -0.0431  0.1144 -0.0852
  734DOPE   D2A 8610   3.828  17.020  10.067  0.2548 -0.1018  0.2874
  734DOPE   C3A 8611   3.832  16.914  10.463  0.1265  0.0302  0.0843
  734DOPE   C4A 8612   3.692  16.632  10.851 -0.1720  0.1872  0.3310
  734DOPE   C1B 8613   2.936  16.499  10.242  0.0177  0.1922 -0.0435
  734DOPE   D2B 8614   2.992  16.296  10.664 -0.0238 -0.0749 -0.0352
  734DOPE   C3B 8615   3.291  16.417  11.037 -0.1643 -0.2507 -0.3614
  734DOPE   C4B 8616   3.412  16.254  11.450 -0.6184 -0.1616  0.1376
  735DOPS   CNO 8617   7.931  22.100   9.757  0.2194  0.0887  0.0350
  735DOPS   PO4 8618   8.294  22.226   9.900  0.1039  0.2298 -0.0986
  735DOPS   GL1 8619   8.423  22.148  10.192 -0.1836  0.1875  0.0370
  735DOPS   GL2 8620   8.565  21.857  10.163 -0.0396 -0.0044 -0.0902
  735DOPS   C1A 8621   8.102  22.118  10.534  0.2492 -0.0691  0.1289
  735DOPS   D2A 8622   7.752  21.898  10.715  0.3698  0.0377 -0.0291
  735DOPS   C3A 8623   7.839  21.799  11.156 -0.2850  0.1813  0.1005
  735DOPS   C4A 8624   8.062  21.950  11.543  0.1790 -0.1779  0.2179
  735DOPS   C1B 8625   8.917  21.947  10.511 -0.2763 -0.1775 -0.1693
  735DOPS   D2B 8626   9.152  22.247  10.803  0.2608 -0.4009 -0.0520
  735DOPS   C3B 8627   9.281  22.442  11.202 -0.0364 -0.2454  0.0655
  735DOPS   C4B 8628   9.284  22.272  11.668  0.2130  0.2180  0.3971
  736DOPE   NH3 8629  11.251  14.222  11.102  0.0396  0.0863 -0.1090
  736DOPE   PO4 8630  11.172  14.218  11.424  0.0735 -0.0461  0.0551
  736DOPE   GL1 8631  11.365  14.579  11.443 -0.2110  0.4738  0.1849
  736DOPE   GL2 8632  11.224  14.671  11.662  0.1624  0.1169 -0.1328
  736DOPE   C1A 8633  11.714  14.517  11.751 -0.0894  0.1219  0.0688
  736DOPE   D2A 8634  11.935  14.619  12.143 -0.0893  0.1179  0.0595
  736DOPE   C3A 8635  12.068  14.190  12.125 -0.1090  0.1245 -0.4503
  736DOPE   C4A 8636  12.180  13.802  12.366  0.4045 -0.3809 -0.2182
  736DOPE   C1B 8637  10.958  14.842  12.054 -0.1750  0.2274  0.0881
  736DOPE   D2B 8638  10.894  15.106  12.459  0.5612  0.1348  0.1844
  736DOPE   C3B 8639  10.402  15.217  12.525  0.4560 -0.1939 -0.3051
  736DOPE   C4B 8640  10.203  15.344  12.920  0.1171  0.1219  0.0248
  737DOPS   CNO 8641   2.655  12.730   9.825 -0.1484 -0.3021  0.0523
  737DOPS   PO4 8642   2.978  12.653   9.979  0.1369 -0.2641  0.0931
  737DOPS   GL1 8643   2.840  12.567  10.348  0.0098  0.1636  0.0600
  737DOPS   GL2 8644   3.053  12.724  10.481 -0.1052 -0.1535 -0.1217
  737DOPS   C1A 8645   2.919  12.332  10.789  0.0451  0.0802  0.1521
  737DOPS   D2A 8646   2.867  12.211  11.214 -0.0676  0.3831  0.3568
  737DOPS   C3A 8647   2.956  12.543  11.523 -0.1345 -0.1500 -0.1270
  737DOPS   C4A 8648   2.959  12.910  11.812 -0.2039 -0.1635 -0.2509
  737DOPS   C1B 8649   3.117  13.069  10.827 -0.0996 -0.0222  0.1968
  737DOPS   D2B 8650   3.305  13.466  10.898 -0.2533  0.0449  0.2080
  737DOPS   C3B 8651   3.209  13.598  11.356  0.1395  0.0627  0.0910
  737DOPS   C4B 8652   3.157  13.793  11.737 -0.2032  0.1089  0.2234
  738DOPS   CNO 8653  12.618   9.970  10.798  0.0848 -0.0629  0.3169
  738DOPS   PO4 8654  12.540  10.025  11.160  0.0496  0.2005  0.0515
  738DOPS   GL1 8655  12.416   9.869  11.560 -0.0366 -0.3007 -0.0132
  738DOPS   GL2 8656  12.171  10.008  11.745 -0.3018 -0.1449 -0.0075
  738DOPS   C1A 8657  12.712   9.630  11.870  0.2393  0.0303  0.1661
  738DOPS   D2A 8658  12.953   9.535  12.230 -0.0803  0.0336 -0.2449
  738DOPS   C3A 8659  12.727   9.430  12.625  0.1280 -0.2372 -0.0889
  738DOPS   C4A 8660  12.801   9.545  13.047 -0.3366 -0.0150 -0.2644
  738DOPS   C1B 8661  12.441  10.234  12.000 -0.2111 -0.0625  0.2522
  738DOPS   D2B 8662  12.629  10.406  12.373  0.1712 -0.0831  0.0765
  738DOPS   C3B 8663  12.985  10.421  12.660 -0.0714 -0.0834 -0.0401
  738DOPS   C4B 8664  13.016  10.239  13.090  0.1598  0.0411 -0.0695
  739DOPC   NC3 8665   4.182  13.192  10.545  0.0658 -0.1614 -0.0227
  739DOPC   PO4 8666   4.583  13.219  10.571  0.0659 -0.3375 -0.1502
  739DOPC   GL1 8667   4.559  13.182  10.910 -0.2684 -0.1190  0.2952
  739DOPC   GL2 8668   4.353  13.427  10.996 -0.2763  0.3828  0.0019
  739DOPC   C1A 8669   4.553  13.094  11.402 -0.0296  0.1101  0.0982
  739DOPC   D2A 8670   4.338  13.276  11.777  0.0067  0.1529  0.2594
  739DOPC   C3A 8671   4.067  13.017  12.090  0.2669  0.0467 -0.2582
  739DOPC   C4A 8672   3.708  13.108  12.413 -0.0167  0.0011 -0.1374
  739DOPC   C1B 8673   4.020  13.424  11.324 -0.3497 -0.2474 -0.0710
  739DOPC   D2B 8674   3.537  13.276  11.393  0.2633 -0.1258  0.0049
  739DOPC   C3B 8675   3.283  13.309  11.754  0.0831  0.2970  0.2628
  739DOPC   C4B 8676   3.293  13.220  12.201 -0.4016  0.1193  0.2750
  740DOPC   NC3 8677   8.008  14.691  10.425  0.0901  0.3542  0.0083
  740DOPC   PO4 8678   7.678  14.488  10.567  0.3245 -0.0854 -0.1569
  740DOPC   GL1 8679   7.665  14.603  10.906 -0.0056 -0.0791  0.3271
  740DOPC   GL2 8680   7.965  14.729  10.960  0.0339  0.0118  0.0224
  740DOPC   C1A 8681   7.679  14.512  11.354  0.2674  0.0467 -0.1621
  740DOPC   D2A 8682   7.788  14.553  11.858  0.0876 -0.1996  0.2578
  740DOPC   C3A 8683   7.512  14.749  12.226  0.1443  0.1717  0.1652
  740DOPC   C4A 8684   7.178  14.803  12.526  0.1360  0.0318  0.1298
  740DOPC   C1B 8685   7.861  15.080  11.243 -0.1447  0.0572  0.0936
  740DOPC   D2B 8686   7.842  15.141  11.767  0.0088  0.1505  0.0921
  740DOPC   C3B 8687   7.470  15.288  11.632  0.3016  0.2775  0.2387
  740DOPC   C4B 8688   7.034  15.499  11.666  0.1056 -0.1727 -0.1697
  741DOPE   NH3 8689   6.368  13.997  10.429 -0.0864  0.1114  0.2090
  741DOPE   PO4 8690   6.423  13.673  10.501  0.1792  0.1318 -0.1975
  741DOPE   GL1 8691   6.632  13.825  10.799 -0.0440 -0.1566  0.3043
  741DOPE   GL2 8692   6.695  13.585  10.983 -0.1654  0.1672  0.4716
  741DOPE   C1A 8693   6.652  14.009  11.234 -0.2514 -0.0675 -0.2348
  741DOPE   D2A 8694   6.460  14.141  11.667 -0.0345  0.0980  0.1411
  741DOPE   C3A 8695   6.021  13.926  11.731  0.0226 -0.4000 -0.3110
  741DOPE   C4A 8696   5.684  13.786  11.965 -0.1135  0.2721  0.0435
  741DOPE   C1B 8697   6.511  13.535  11.424 -0.0939 -0.2487 -0.1160
  741DOPE   D2B 8698   6.505  13.595  11.861 -0.1596  0.0131 -0.0413
  741DOPE   C3B 8699   6.707  13.350  12.292  0.1599 -0.1151 -0.0518
  741DOPE   C4B 8700   6.997  13.297  12.623  0.2387  0.0494  0.0230
  742DOPC   NC3 8701  11.542  21.480  10.118  0.1281 -0.0681 -0.3280
  742DOPC   PO4 8702  11.306  21.860  10.151  0.0997  0.0376  0.0175
  742DOPC   GL1 8703  11.319  21.654  10.516 -0.0903  0.1277  0.1823
  742DOPC   GL2 8704  11.167  21.533  10.492 -0.3578  0.1886  0.2407
  742DOPC   C1A 8705  11.684  21.397  10.673 -0.1124  0.1361 -0.1521
  742DOPC   D2A 8706  12.037  21.240  10.807  0.0642 -0.0026 -0.0812
  742DOPC   C3A 8707  12.018  21.042  11.235 -0.0203 -0.2131  0.0064
  742DOPC   C4A 8708  11.860  21.003  11.663 -0.1424  0.1141  0.0468
  742DOPC   C1B 8709  10.934  21.663  10.842  0.1537 -0.2137 -0.1250
  742DOPC   D2B 8710  10.804  21.571  11.309  0.0823  0.1086  0.0828
  742DOPC   C3B 8711  10.528  21.152  11.383  0.0911 -0.0627 -0.4626
  742DOPC   C4B 8712  10.512  20.729  11.162  0.1735  0.1941 -0.1242
  743POSM   NC3 8713   5.600  11.355  10.511 -0.4247  0.4653 -0.0143
  743POSM   PO4 8714   5.361  11.500  10.745 -0.0616 -0.0097 -0.0006
  743POSM   AM1 8715   5.310  11.727  10.972  0.0339 -0.0219  0.0854
  743POSM   AM2 8716   5.438  11.919  11.139 -0.1908 -0.1308 -0.0569
  743POSM   T1A 8717   5.053  11.802  11.399 -0.1127  0.2785  0.1933
  743POSM   C2A 8718   4.674  11.835  11.648  0.1617 -0.0597 -0.2051
  743POSM   C3A 8719   4.513  12.052  12.041  0.1063  0.2184 -0.0720
  743POSM   C1B 8720   5.511  12.042  11.488  0.0931 -0.1281  0.1172
  743POSM   D2B 8721   5.418  12.259  11.921  0.2571 -0.2145  0.0147
  743POSM   C3B 8722   5.401  11.980  12.296 -0.0185 -0.1269  0.2090
  743POSM   C4B 8723   5.554  11.812  12.692 -0.1320 -0.1000 -0.1994
  744DOPC   NC3 8724   2.117  20.120   9.953 -0.0305  0.1010 -0.0636
  744DOPC   PO4 8725   2.347  20.432  10.012 -0.0344  0.2119 -0.0522
  744DOPC   GL1 8726   2.595  20.282  10.324 -0.5453  0.3174 -0.1201
  744DOPC   GL2 8727   2.305  20.361  10.447  0.0019  0.0460  0.0707
  744DOPC   C1A 8728   2.601  19.799  10.386 -0.1599 -0.0474  0.0737
  744DOPC   D2A 8729   2.457  19.426  10.580  0.1445 -0.1081 -0.1593
  744DOPC   C3A 8730   2.493  19.321  11.033  0.0045  0.0645 -0.1365
  744DOPC   C4A 8731   2.473  19.329  11.506 -0.0121 -0.3022  0.0634
  744DOPC   C1B 8732   2.520  20.384  10.845  0.2579 -0.1726  0.1594
  744DOPC   D2B 8733   2.484  20.675  11.212 -0.2438 -0.0285  0.0358
  744DOPC   C3B 8734   2.563  20.985  11.469  0.1472 -0.2359  0.0252
  744DOPC   C4B 8735   2.602  21.245  11.864 -0.0025 -0.2633  0.1332
  745DOPC   NC3 8736   4.576  17.654   9.873  0.1727 -0.3464 -0.0413
  745DOPC   PO4 8737   4.191  17.731   9.980  0.0644 -0.0295 -0.1417
  745DOPC   GL1 8738   3.931  17.715  10.269 -0.1488 -0.0859  0.2851
  745DOPC   GL2 8739   3.724  17.817  10.102  0.1972  0.0402 -0.2201
  745DOPC   C1A 8740   3.957  17.893  10.723 -0.0129  0.0603  0.0930
  745DOPC   D2A 8741   3.862  18.160  11.085 -0.6693  0.0816  0.1855
  745DOPC   C3A 8742   4.048  18.129  11.532 -0.0367  0.2147  0.1597
  745DOPC   C4A 8743   4.254  18.172  11.947  0.1062  0.0825 -0.3413
  745DOPC   C1B 8744   3.479  17.846  10.524 -0.2388  0.1778  0.1072
  745DOPC   D2B 8745   3.393  18.213  10.810  0.0327 -0.2251 -0.0062
  745DOPC   C3B 8746   3.322  18.441  11.204  0.2990  0.1126 -0.0121
  745DOPC   C4B 8747   3.168  18.670  11.558 -0.0355 -0.2364 -0.2995
  746DOPE   NH3 8748   3.574  21.172   9.871 -0.0666 -0.0326 -0.0508
  746DOPE   PO4 8749   3.484  21.466   9.856 -0.1396  0.2455  0.2353
  746DOPE   GL1 8750   3.462  21.490  10.237  0.2789 -0.2702  0.1139
  746DOPE   GL2 8751   3.307  21.240  10.441 -0.1100  0.2246 -0.0098
  746DOPE   C1A 8752   3.557  21.740  10.611  0.0977 -0.1405  0.1208
  746DOPE   D2A 8753   3.322  21.990  10.951  0.0217 -0.1349  0.0817
  746DOPE   C3A 8754   3.508  22.086  11.321 -0.2253 -0.0520  0.0228
  746DOPE   C4A 8755   3.836  22.353  11.505 -0.4566  0.1802 -0.0364
  746DOPE   C1B 8756   3.197  20.945  10.722  0.1257  0.2687 -0.0010
  746DOPE   D2B 8757   3.072  20.732  11.116  0.0912 -0.0972 -0.0950
  746DOPE   C3B 8758   3.272  21.126  11.395 -0.0093 -0.1330 -0.1832
  746DOPE   C4B 8759   3.715  21.202  11.321 -0.1447  0.0087  0.2606
  747DOPE   NH3 8760   1.778  24.831   9.413  0.2327 -0.2986 -0.1067
  747DOPE   PO4 8761   1.532  24.834   9.667  0.0759 -0.3356  0.0985
  747DOPE   GL1 8762   1.483  24.950  10.044 -0.1157  0.0410  0.2312
  747DOPE   GL2 8763   1.387  25.218   9.993  0.2436 -0.3857  0.2644
  747DOPE   C1A 8764   1.736  24.803  10.381 -0.2778  0.1148 -0.0402
  747DOPE   D2A 8765   1.954  24.746  10.741 -0.0854  0.5579 -0.2566
  747DOPE   C3A 8766   1.843  24.553  11.151 -0.2564  0.0409  0.0797
  747DOPE   C4A 8767   1.434  24.356  11.252 -0.0987 -0.3627 -0.0172
  747DOPE   C1B 8768   1.187  25.166  10.381  0.0835  0.1040 -0.3555
  747DOPE   D2B 8769   1.038  24.930  10.705 -0.2213 -0.1623 -0.2339
  747DOPE   C3B 8770   1.052  24.880  11.161 -0.4021  0.0118  0.0229
  747DOPE   C4B 8771   1.065  24.619  11.548 -0.3392  0.2379  0.1605
  748DOPC   NC3 8772  30.076  19.640  10.178 -0.0364  0.1521 -0.1337
  748DOPC   PO4 8773  30.449  19.526  10.083  0.3742  0.0581 -0.3651
  748DOPC   GL1 8774  30.702  19.477  10.428 -0.0594 -0.0253 -0.0377
  748DOPC   GL2 8775  30.487  19.221  10.482 -0.2538  0.0611  0.3710
  748DOPC   C1A 8776  31.038  19.323  10.766  0.1933 -0.0191 -0.1455
  748DOPC   D2A 8777  30.949  19.106  11.187  0.3240  0.2290  0.2375
  748DOPC   C3A 8778  30.642  18.742  11.198 -0.0127  0.0133  0.3681
  748DOPC   C4A 8779  30.279  18.401  11.140  0.0279  0.0064 -0.2169
  748DOPC   C1B 8780  30.472  19.285  10.908 -0.6317 -0.1430  0.0351
  748DOPC   D2B 8781  30.269  19.010  11.224  0.2218  0.0093  0.0617
  748DOPC   C3B 8782  30.318  18.694  11.556 -0.2229 -0.1498  0.0105
  748DOPC   C4B 8783  30.392  18.635  11.979  0.0235 -0.0972 -0.3038
  749DOPE   NH3 8784   9.167  18.838   9.741  0.0843  0.1952 -0.2107
  749DOPE   PO4 8785   9.080  19.095   9.956 -0.1206  0.1937  0.3489
  749DOPE   GL1 8786   9.012  19.345  10.254 -0.0308  0.1172  0.3544
  749DOPE   GL2 8787   8.783  19.159  10.371  0.0678 -0.1422  0.1004
  749DOPE   C1A 8788   8.901  19.587  10.627  0.0844  0.1508  0.2828
  749DOPE   D2A 8789   8.856  19.813  10.967  0.0935 -0.0876  0.0803
  749DOPE   C3A 8790   8.939  19.931  11.372  0.1200  0.0241 -0.1349
  749DOPE   C4A 8791   8.731  20.237  11.676  0.2590  0.4012 -0.0099
  749DOPE   C1B 8792   8.524  19.259  10.774  0.1340  0.2200 -0.1354
  749DOPE   D2B 8793   8.605  19.229  11.225 -0.0788  0.2634  0.1853
  749DOPE   C3B 8794   8.695  18.870  11.585 -0.1758  0.0881 -0.0927
  749DOPE   C4B 8795   8.661  18.837  11.999 -0.0995 -0.2597 -0.0883
  750DOPS   CNO 8796   4.827  19.446   9.357  0.0046  0.0384 -0.1439
  750DOPS   PO4 8797   5.013  19.316   9.652 -0.1420 -0.0460  0.0934
  750DOPS   GL1 8798   5.176  19.555   9.957  0.0497  0.0833  0.3064
  750DOPS   GL2 8799   5.447  19.324   9.999  0.1663  0.0269 -0.0827
  750DOPS   C1A 8800   5.059  19.273  10.363  0.0342  0.3715 -0.0369
  750DOPS   D2A 8801   4.889  19.162  10.847 -0.1171 -0.0660  0.1715
  750DOPS   C3A 8802   5.149  19.414  11.178  0.1692  0.1384 -0.3831
  750DOPS   C4A 8803   5.119  19.671  11.544  0.0410  0.0209  0.1852
  750DOPS   C1B 8804   5.403  19.689  10.310  0.0470 -0.0880  0.1271
  750DOPS   D2B 8805   5.067  19.683  10.677  0.0271  0.1442 -0.0434
  750DOPS   C3B 8806   5.145  19.928  11.034  0.0339 -0.2223 -0.1236
  750DOPS   C4B 8807   4.952  20.226  11.377  0.1338 -0.0353 -0.1096
  751DOPC   NC3 8808   1.643  20.963   9.636  0.1846 -0.2353  0.1121
  751DOPC   PO4 8809   1.325  21.061   9.857  0.2808  0.1645 -0.1252
  751DOPC   GL1 8810   1.541  21.080  10.165 -0.3694  0.1821 -0.2868
  751DOPC   GL2 8811   1.723  20.817  10.333  0.1087  0.4481  0.3235
  751DOPC   C1A 8812   1.710  21.301  10.542 -0.1206  0.0604 -0.1134
  751DOPC   D2A 8813   2.018  21.677  10.674  0.3318  0.2489 -0.1238
  751DOPC   C3A 8814   1.953  21.618  11.121 -0.1349 -0.1964 -0.0657
  751DOPC   C4A 8815   1.791  21.397  11.531  0.0450  0.1525  0.0109
  751DOPC   C1B 8816   1.364  20.915  10.608  0.0972  0.4199 -0.2487
  751DOPC   D2B 8817   0.970  21.089  10.816 -0.3665 -0.1441  0.1179
  751DOPC   C3B 8818   0.860  20.697  10.674 -0.3783 -0.0505  0.0453
  751DOPC   C4B 8819   0.496  20.526  10.538 -0.0040  0.1187  0.1278
  752POSM   NC3 8820   6.771  18.119   9.549 -0.0838  0.0661  0.0067
  752POSM   PO4 8821   6.356  18.200   9.434 -0.0582 -0.2182 -0.3195
  752POSM   AM1 8822   6.374  18.229   9.750  0.2933  0.1683  0.1472
  752POSM   AM2 8823   6.305  18.001   9.953 -0.2047  0.0022  0.3878
  752POSM   T1A 8824   6.163  18.414  10.167 -0.0223  0.3774 -0.3787
  752POSM   C2A 8825   6.072  18.189  10.630  0.0455  0.2356 -0.2353
  752POSM   C3A 8826   5.994  18.227  11.068 -0.1563 -0.1871  0.1483
  752POSM   C1B 8827   6.003  17.938  10.089  0.0391  0.0875 -0.1294
  752POSM   D2B 8828   5.656  17.860  10.448 -0.0564 -0.1067 -0.0563
  752POSM   C3B 8829   5.793  17.754  10.907 -0.1790  0.1063 -0.2133
  752POSM   C4B 8830   5.926  17.333  11.045 -0.0503  0.0106 -0.0631
  753DOPC   NC3 8831   0.487  19.989  10.003 -0.1564  0.1233 -0.1453
  753DOPC   PO4 8832   0.147  19.857   9.876  0.0694 -0.0804  0.1875
  753DOPC   GL1 8833   0.078  19.850  10.242 -0.2385  0.0727  0.1762
  753DOPC   GL2 8834   0.337  19.721  10.407 -0.2008  0.2546  0.0971
  753DOPC   C1A 8835   0.164  20.149  10.641  0.0289 -0.2125 -0.2525
  753DOPC   D2A 8836  -0.044  20.250  11.045  0.1509 -0.3016  0.1920
  753DOPC   C3A 8837   0.169  20.615  11.158  0.1729 -0.0454 -0.0357
  753DOPC   C4A 8838   0.010  21.008  10.891  0.1476  0.0257 -0.2271
  753DOPC   C1B 8839   0.524  19.346  10.668  0.2315  0.0123 -0.1217
  753DOPC   D2B 8840   0.882  19.250  10.919  0.0981  0.4097 -0.0447
  753DOPC   C3B 8841   1.007  19.142  11.321 -0.0723 -0.1476 -0.1855
  753DOPC   C4B 8842   0.925  19.197  11.781 -0.1366 -0.1099 -0.1743
  754POSM   NC3 8843   0.992  17.047   9.084 -0.1948 -0.2191 -0.1008
  754POSM   PO4 8844   1.135  17.147   9.449  0.0556  0.0150 -0.0059
  754POSM   AM1 8845   0.982  17.076   9.708  0.4724  0.4666  0.0652
  754POSM   AM2 8846   0.795  17.303   9.829 -0.2544  0.2738  0.2602
  754POSM   T1A 8847   1.033  16.996  10.206 -0.1636  0.1080  0.0162
  754POSM   C2A 8848   1.252  17.205  10.527 -0.3482  0.1118  0.0015
  754POSM   C3A 8849   1.164  17.465  10.918 -0.2054 -0.1100 -0.1688
  754POSM   C1B 8850   0.912  17.466  10.087  0.0868 -0.0522  0.1757
  754POSM   D2B 8851   1.009  17.663  10.484 -0.0713  0.1061 -0.0138
  754POSM   C3B 8852   0.751  17.755  10.871  0.0894  0.3402  0.1914
  754POSM   C4B 8853   0.395  17.933  11.032 -0.1169  0.0440  0.2526
  755DOPE   NH3 8854   1.334  16.054   9.380 -0.0373  0.0431 -0.1347
  755DOPE   PO4 8855   1.173  16.296   9.533  0.1650  0.4183 -0.3358
  755DOPE   GL1 8856   1.101  16.386   9.924  0.0001 -0.5144 -0.2907
  755DOPE   GL2 8857   0.927  16.594  10.030  0.1641 -0.0167 -0.1810
  755DOPE   C1A 8858   0.996  16.126  10.331  0.2643  0.3797  0.0001
  755DOPE   D2A 8859   0.849  15.752  10.560 -0.0477 -0.1199 -0.1767
  755DOPE   C3A 8860   1.002  15.578  11.002  0.0825 -0.2062 -0.1635
  755DOPE   C4A 8861   1.163  15.637  11.435  0.1780  0.1082  0.2237
  755DOPE   C1B 8862   0.600  16.786  10.372  0.0290  0.3364 -0.1342
  755DOPE   D2B 8863   0.297  16.919  10.712 -0.1531 -0.0088 -0.2798
  755DOPE   C3B 8864   0.263  16.727  11.142  0.0691  0.1053 -0.2412
  755DOPE   C4B 8865   0.001  16.364  11.342  0.0412  0.1535  0.1056
  756DOPE   NH3 8866  11.216  16.811  10.376 -0.1017  0.2129 -0.1967
  756DOPE   PO4 8867  11.123  16.959  10.683  0.3014 -0.2077  0.0212
  756DOPE   GL1 8868  11.007  16.920  11.093 -0.3551  0.0427  0.0953
  756DOPE   GL2 8869  10.902  17.211  11.074  0.0372 -0.2617  0.1167
  756DOPE   C1A 8870  10.929  16.980  11.493  0.1792 -0.0874  0.0382
  756DOPE   D2A 8871  10.795  16.759  11.872  0.0137 -0.1042 -0.0953
  756DOPE   C3A 8872  10.926  16.804  12.321 -0.2739  0.2003 -0.0065
  756DOPE   C4A 8873  11.286  16.701  12.563  0.3184  0.1056 -0.1230
  756DOPE   C1B 8874  10.633  17.474  11.391 -0.0886  0.0796 -0.1230
  756DOPE   D2B 8875  10.259  17.765  11.340 -0.0837 -0.0463 -0.2488
  756DOPE   C3B 8876   9.845  17.852  11.522 -0.0256  0.1404  0.0993
  756DOPE   C4B 8877   9.660  18.184  11.821  0.2234 -0.3100  0.1140
  757DOPS   CNO 8878   5.722  10.271  10.288 -0.2857 -0.2303  0.0586
  757DOPS   PO4 8879   5.534  10.210  10.644 -0.1995 -0.1283 -0.2150
  757DOPS   GL1 8880   5.545  10.188  11.018  0.0434  0.2528  0.2134
  757DOPS   GL2 8881   5.862  10.176  11.085 -0.0393 -0.0098 -0.0251
  757DOPS   C1A 8882   5.287  10.221  11.379  0.1588  0.1846  0.0164
  757DOPS   D2A 8883   5.378  10.141  11.841 -0.0309  0.0454  0.0097
  757DOPS   C3A 8884   5.674   9.868  11.983  0.0197  0.4144 -0.0111
  757DOPS   C4A 8885   5.940   9.543  11.781  0.0098 -0.1735  0.1874
  757DOPS   C1B 8886   5.748  10.562  11.338  0.1127  0.0550  0.2710
  757DOPS   D2B 8887   5.608  10.584  11.824 -0.2403 -0.1482 -0.0429
  757DOPS   C3B 8888   5.862  10.347  12.137 -0.0180  0.0376  0.0788
  757DOPS   C4B 8889   6.247  10.227  12.382  0.0032  0.0678 -0.4025
  758DOPE   NH3 8890   3.247  10.070  10.141 -0.0026 -0.2424 -0.2312
  758DOPE   PO4 8891   3.349  10.273  10.348  0.1622 -0.0524 -0.2251
  758DOPE   GL1 8892   3.298  10.483  10.575  0.4754 -0.0226 -0.0328
  758DOPE   GL2 8893   3.091  10.361  10.812  0.3486  0.2275  0.0757
  758DOPE   C1A 8894   3.412  10.878  10.726 -0.2076  0.1871  0.1643
  758DOPE   D2A 8895   3.619  11.318  10.647 -0.0798  0.2311 -0.2050
  758DOPE   C3A 8896   3.804  11.619  10.981  0.1124 -0.0180  0.6157
  758DOPE   C4A 8897   3.862  11.723  11.421 -0.2137 -0.0586 -0.0551
  758DOPE   C1B 8898   3.137  10.100  11.156 -0.0798  0.0063 -0.1694
  758DOPE   D2B 8899   3.160   9.990  11.600  0.1301  0.0481 -0.0894
  758DOPE   C3B 8900   2.869   9.623  11.797  0.0248  0.0320 -0.1522
  758DOPE   C4B 8901   2.769   9.375  12.155 -0.4594 -0.0211  0.0014
  759DOPE   NH3 8902   8.810  11.666  11.124  0.2040 -0.1039  0.2181
  759DOPE   PO4 8903   8.543  11.842  11.119 -0.0373 -0.3152  0.1867
  759DOPE   GL1 8904   8.487  11.708  11.454  0.4090  0.1012  0.0006
  759DOPE   GL2 8905   8.517  11.955  11.601 -0.1655 -0.1272 -0.1841
  759DOPE   C1A 8906   8.922  11.737  11.643  0.2081  0.0385  0.3703
  759DOPE   D2A 8907   9.034  11.600  11.997  0.1764  0.0885 -0.2742
  759DOPE   C3A 8908   9.202  11.667  12.360 -0.1698  0.0324  0.0152
  759DOPE   C4A 8909   9.235  11.782  12.796 -0.0130  0.2965  0.0740
  759DOPE   C1B 8910   8.660  12.215  11.982  0.2075 -0.0683  0.0622
  759DOPE   D2B 8911   9.071  12.162  12.270 -0.1051  0.1755  0.3038
  759DOPE   C3B 8912   8.882  12.080  12.631  0.3037 -0.2599 -0.1644
  759DOPE   C4B 8913   8.732  11.876  12.976 -0.0888  0.2355  0.0593
  760POSM   NC3 8914   8.763  19.496   9.818  0.0736 -0.1198 -0.1601
  760POSM   PO4 8915   8.539  19.843   9.755  0.0247  0.1271 -0.0569
  760POSM   AM1 8916   8.396  20.018   9.984  0.3037  0.1205  0.2523
  760POSM   AM2 8917   8.430  20.254  10.149 -0.1963  0.0584 -0.1015
  760POSM   T1A 8918   8.082  19.981  10.337 -0.0529  0.1276 -0.0423
  760POSM   C2A 8919   7.653  19.991  10.176 -0.1652 -0.0538 -0.0020
  760POSM   C3A 8920   7.195  19.809  10.414  0.0455  0.2141 -0.2913
  760POSM   C1B 8921   8.339  20.423  10.491 -0.0331 -0.0383 -0.0356
  760POSM   D2B 8922   8.143  20.582  10.898  0.2202 -0.1495 -0.1892
  760POSM   C3B 8923   7.862  20.333  11.104  0.0992 -0.2144  0.2644
  760POSM   C4B 8924   7.649  20.364  11.499  0.1989  0.1890  0.4717
  761DOPC   NC3 8925  10.386  18.693  10.779 -0.0058 -0.2555  0.1925
  761DOPC   PO4 8926  10.705  18.482  10.693 -0.0840 -0.0148 -0.0057
  761DOPC   GL1 8927  10.563  18.394  11.130 -0.2835 -0.4741 -0.2441
  761DOPC   GL2 8928  10.416  18.217  10.983  0.1079  0.0175  0.0099
  761DOPC   C1A 8929  10.786  18.581  11.503 -0.0804 -0.0978 -0.0841
  761DOPC   D2A 8930  10.772  18.800  11.926  0.0965  0.0267 -0.1785
  761DOPC   C3A 8931  10.518  19.209  11.968 -0.1175 -0.3813 -0.0357
  761DOPC   C4A 8932  10.616  19.684  11.912  0.0186 -0.2911  0.0556
  761DOPC   C1B 8933  10.158  18.449  11.314  0.0071 -0.0653  0.0966
  761DOPC   D2B 8934   9.944  18.668  11.667 -0.0065 -0.0844 -0.0057
  761DOPC   C3B 8935  10.140  18.796  12.029  0.2126  0.0111 -0.0526
  761DOPC   C4B 8936  10.415  18.873  12.390  0.1938  0.1340 -0.0202
  762DOPC   NC3 8937   5.177  10.437  10.896 -0.3213  0.0168  0.0769
  762DOPC   PO4 8938   4.824  10.313  10.816 -0.0131 -0.1252  0.1215
  762DOPC   GL1 8939   4.667  10.399  11.204 -0.2890  0.0593 -0.2719
  762DOPC   GL2 8940   4.494  10.226  11.268 -0.0295  0.2791 -0.1729
  762DOPC   C1A 8941   4.845  10.419  11.617 -0.1768  0.1759  0.0592
  762DOPC   D2A 8942   5.054  10.526  11.998 -0.0475  0.1278 -0.0313
  762DOPC   C3A 8943   4.949  10.185  12.354  0.0440  0.1691 -0.0342
  762DOPC   C4A 8944   4.846   9.777  12.604  0.0292 -0.0749  0.2254
  762DOPC   C1B 8945   4.748   9.932  11.583  0.2229  0.0327  0.0846
  762DOPC   D2B 8946   5.109   9.704  11.732 -0.3162  0.1471 -0.2253
  762DOPC   C3B 8947   5.150   9.739  12.148  0.0551 -0.1354  0.0461
  762DOPC   C4B 8948   5.423   9.987  12.393 -0.1021 -0.1271  0.1775
  763DOPE   NH3 8949   4.724   9.908  10.413 -0.3593  0.1168  0.1962
  763DOPE   PO4 8950   4.485   9.753  10.367 -0.3281 -0.0759 -0.0781
  763DOPE   GL1 8951   4.655   9.721  10.839  0.2073  0.0568  0.0919
  763DOPE   GL2 8952   4.773   9.454  10.926 -0.0841  0.1215  0.1005
  763DOPE   C1A 8953   4.410   9.744  11.268  0.0810 -0.0761  0.1408
  763DOPE   D2A 8954   4.446   9.571  11.681 -0.3373  0.0553 -0.3037
  763DOPE   C3A 8955   4.646   9.588  12.100 -0.0205 -0.0131  0.0964
  763DOPE   C4A 8956   4.733   9.327  12.493 -0.0243  0.2328 -0.0642
  763DOPE   C1B 8957   4.797   9.281  11.413 -0.3756  0.0764  0.0627
  763DOPE   D2B 8958   4.898   9.235  11.827  0.0500 -0.0460 -0.1281
  763DOPE   C3B 8959   5.313   9.219  12.069 -0.1907 -0.1232 -0.2458
  763DOPE   C4B 8960   5.638   9.483  12.277 -0.0296  0.1537  0.0228
  764DOPE   NH3 8961   8.176  12.423  11.007 -0.1602 -0.0373 -0.0341
  764DOPE   PO4 8962   8.272  12.155  10.836 -0.0126 -0.0604  0.0791
  764DOPE   GL1 8963   8.176  12.049  11.289  0.0373 -0.1314 -0.0403
  764DOPE   GL2 8964   7.873  12.068  11.287 -0.0440 -0.2647  0.1729
  764DOPE   C1A 8965   8.040  12.049  11.766 -0.1820  0.4074  0.1318
  764DOPE   D2A 8966   8.075  12.016  12.219 -0.2199 -0.1201  0.0628
  764DOPE   C3A 8967   8.377  12.229  12.518 -0.0387 -0.1603 -0.2471
  764DOPE   C4A 8968   8.612  12.414  12.824  0.1612 -0.3807 -0.4275
  764DOPE   C1B 8969   7.897  12.507  11.486  0.1278 -0.0371 -0.2139
  764DOPE   D2B 8970   7.605  12.561  11.820 -0.2846 -0.0463 -0.3331
  764DOPE   C3B 8971   7.752  12.389  12.284 -0.1645 -0.0274  0.3289
  764DOPE   C4B 8972   7.863  12.351  12.747  0.1329 -0.0459 -0.2007
  765POSM   NC3 8973   4.582  12.189  10.694  0.0674  0.1643 -0.0706
  765POSM   PO4 8974   4.861  12.358  10.454  0.1135  0.2902 -0.2982
  765POSM   AM1 8975   4.936  12.446  10.787 -0.0127 -0.1650 -0.0767
  765POSM   AM2 8976   5.038  12.317  10.987  0.0697 -0.0402 -0.2399
  765POSM   T1A 8977   4.706  12.585  11.279  0.1891  0.4820 -0.1252
  765POSM   C2A 8978   4.344  12.576  11.605  0.3116 -0.2447 -0.0589
  765POSM   C3A 8979   3.924  12.496  11.778 -0.3843 -0.0920  0.3611
  765POSM   C1B 8980   4.752  12.123  11.138  0.2316 -0.0188 -0.0197
  765POSM   D2B 8981   4.397  11.736  11.129 -0.2234  0.0456  0.2226
  765POSM   C3B 8982   4.206  11.391  11.398  0.4204 -0.0088  0.0381
  765POSM   C4B 8983   4.190  11.067  11.707  0.1463  0.0004 -0.0757
  766POSM   NC3 8984   4.798  14.804   9.530 -0.0342 -0.1869  0.1300
  766POSM   PO4 8985   5.061  14.841   9.843 -0.0931 -0.0856 -0.2829
  766POSM   AM1 8986   4.998  14.966  10.157 -0.0552  0.3090  0.2798
  766POSM   AM2 8987   4.823  14.936  10.373  0.1229 -0.2225  0.0717
  766POSM   T1A 8988   5.267  15.143  10.602 -0.0630 -0.1121  0.0671
  766POSM   C2A 8989   5.188  15.193  11.061  0.1761  0.2533  0.2818
  766POSM   C3A 8990   4.959  15.243  11.407  0.2568  0.1838  0.0373
  766POSM   C1B 8991   4.757  14.992  10.735 -0.1291 -0.0232 -0.1570
  766POSM   D2B 8992   4.577  14.758  11.071 -0.2714  0.0692 -0.0710
  766POSM   C3B 8993   4.733  14.336  11.053 -0.1788 -0.1584 -0.1497
  766POSM   C4B 8994   4.611  13.896  10.939  0.4767 -0.3289 -0.1032
  767POSM   NC3 8995   1.046  22.433   9.548  0.1307  0.3270 -0.1622
  767POSM   PO4 8996   0.979  22.821   9.577  0.1809 -0.1849  0.0257
  767POSM   AM1 8997   0.971  22.743   9.904  0.3627 -0.1525 -0.0214
  767POSM   AM2 8998   1.133  22.552  10.042 -0.1237  0.1603  0.0763
  767POSM   T1A 8999   0.522  22.677  10.177 -0.0284 -0.1565  0.2133
  767POSM   C2A 9000   0.264  22.829  10.585 -0.2699  0.0478 -0.1848
  767POSM   C3A 9001   0.267  23.015  10.990  0.0361  0.0815 -0.1350
  767POSM   C1B 9002   0.983  22.486  10.333 -0.0309  0.1582 -0.0096
  767POSM   D2B 9003   0.773  22.487  10.696 -0.1362  0.0413  0.1635
  767POSM   C3B 9004   0.878  22.746  11.066 -0.0175  0.0573 -0.0676
  767POSM   C4B 9005   1.008  23.027  11.391  0.0853 -0.1062  0.1791
  768POSM   NC3 9006   7.437  18.551   9.278 -0.3568  0.2559 -0.1901
  768POSM   PO4 9007   7.101  18.537   9.465  0.0277 -0.1554 -0.3406
  768POSM   AM1 9008   7.157  18.471   9.800  0.2620  0.0223  0.3463
  768POSM   AM2 9009   6.995  18.482  10.018  0.0275  0.1286  0.1856
  768POSM   T1A 9010   7.427  18.207  10.124  0.3187  0.3281 -0.1537
  768POSM   C2A 9011   7.337  17.748  10.177 -0.0318 -0.0274 -0.3767
  768POSM   C3A 9012   7.328  17.410  10.490  0.0656  0.0290  0.0485
  768POSM   C1B 9013   6.895  18.776  10.156  0.0285  0.0653 -0.1279
  768POSM   D2B 9014   6.648  19.173  10.257  0.1303 -0.0259 -0.0378
  768POSM   C3B 9015   6.851  19.418  10.568  0.2153  0.2378  0.3199
  768POSM   C4B 9016   7.187  19.321  10.863  0.2686  0.0880  0.0224
  769DOPC   NC3 9017   1.502  18.697   9.754  0.2005  0.0833  0.0722
  769DOPC   PO4 9018   1.811  18.949   9.627 -0.3014 -0.0132 -0.3456
  769DOPC   GL1 9019   1.788  19.085  10.016  0.1945 -0.3568  0.0086
  769DOPC   GL2 9020   2.073  19.078  10.025 -0.1671 -0.0954  0.0089
  769DOPC   C1A 9021   1.862  19.340  10.470 -0.4033 -0.1673 -0.0939
  769DOPC   D2A 9022   1.992  19.514  10.931 -0.1867  0.2133 -0.0022
  769DOPC   C3A 9023   2.296  19.770  11.170 -0.0954  0.0682  0.1029
  769DOPC   C4A 9024   2.276  20.210  11.305 -0.1193  0.2375 -0.3841
  769DOPC   C1B 9025   2.296  18.946  10.394  0.0228 -0.2275  0.1202
  769DOPC   D2B 9026   2.432  18.889  10.813 -0.0801  0.2621  0.2607
  769DOPC   C3B 9027   2.081  18.996  11.075  0.1270  0.2456 -0.0601
  769DOPC   C4B 9028   1.763  19.180  11.356  0.0629 -0.0265  0.1253
  770DOPC   NC3 9029   8.363   9.514  10.901  0.3878 -0.1045 -0.0746
  770DOPC   PO4 9030   8.276   9.748  10.630  0.0216  0.0798  0.0524
  770DOPC   GL1 9031   8.029   9.994  10.825 -0.0558 -0.3449  0.2062
  770DOPC   GL2 9032   7.911  10.228  10.867  0.1036  0.0687 -0.0778
  770DOPC   C1A 9033   8.012  10.042  11.299 -0.3455 -0.0795 -0.1734
  770DOPC   D2A 9034   7.919   9.847  11.690  0.3478 -0.1219  0.3725
  770DOPC   C3A 9035   8.077   9.926  12.099  0.0420  0.1975  0.0864
  770DOPC   C4A 9036   8.213   9.561  12.382 -0.0478 -0.0427 -0.0361
  770DOPC   C1B 9037   7.672  10.426  11.159 -0.0687  0.0318 -0.1295
  770DOPC   D2B 9038   7.459  10.762  11.383 -0.1732 -0.1948  0.1598
  770DOPC   C3B 9039   7.446  10.700  11.839  0.0993 -0.0826  0.1259
  770DOPC   C4B 9040   7.314  10.860  12.334 -0.0321  0.1452 -0.1219
  771DOPE   NH3 9041   9.775  19.170  10.108  0.1184  0.4190 -0.0405
  771DOPE   PO4 9042   9.577  18.944  10.020  0.2891  0.1039 -0.0019
  771DOPE   GL1 9043   9.358  19.085  10.356 -0.1866  0.2154  0.1249
  771DOPE   GL2 9044   9.174  18.854  10.400 -0.0913 -0.0626 -0.2970
  771DOPE   C1A 9045   9.418  19.471  10.626  0.3288  0.1406 -0.1070
  771DOPE   D2A 9046   9.302  19.674  10.974 -0.2234 -0.2132  0.1460
  771DOPE   C3A 9047   9.101  19.413  11.301  0.0379 -0.3686  0.1672
  771DOPE   C4A 9048   8.880  19.496  11.678 -0.1310 -0.0720 -0.2198
  771DOPE   C1B 9049   8.794  18.681  10.647  0.1188  0.3788  0.3270
  771DOPE   D2B 9050   8.509  18.747  10.966  0.0846  0.0861 -0.0447
  771DOPE   C3B 9051   8.493  18.498  11.336 -0.1631  0.0313 -0.1321
  771DOPE   C4B 9052   8.352  18.428  11.731 -0.0666 -0.0110  0.2590
  772DOPC   NC3 9053   5.258  18.939   9.712 -0.0926 -0.0597  0.0226
  772DOPC   PO4 9054   5.117  18.583   9.794 -0.1103  0.0548  0.0199
  772DOPC   GL1 9055   5.151  18.596  10.207 -0.1340 -0.2722 -0.2256
  772DOPC   GL2 9056   5.252  18.830  10.392 -0.2669  0.2255  0.0582
  772DOPC   C1A 9057   5.342  18.299  10.575  0.3797 -0.1247 -0.0154
  772DOPC   D2A 9058   5.502  18.244  11.025  0.0026  0.0378  0.1582
  772DOPC   C3A 9059   5.650  18.281  11.416 -0.4271  0.3017  0.0946
  772DOPC   C4A 9060   5.703  18.583  11.765  0.2718 -0.0387 -0.0280
  772DOPC   C1B 9061   5.089  18.730  10.804 -0.0164  0.2214 -0.1747
  772DOPC   D2B 9062   5.312  18.645  11.214 -0.2897 -0.0450  0.0094
  772DOPC   C3B 9063   4.946  18.969  11.362  0.0002  0.1228 -0.2318
  772DOPC   C4B 9064   4.548  19.092  11.381  0.3402 -0.1286 -0.0790
  773DOPC   NC3 9065   3.635  19.090   9.550 -0.1711 -0.1074 -0.0240
  773DOPC   PO4 9066   3.971  19.283   9.597  0.0671 -0.3537 -0.1787
  773DOPC   GL1 9067   4.177  19.487   9.933 -0.4058  0.0442 -0.0775
  773DOPC   GL2 9068   3.983  19.275  10.151  0.0243  0.0146 -0.1170
  773DOPC   C1A 9069   4.508  19.322  10.262  0.0939  0.2399  0.0286
  773DOPC   D2A 9070   4.634  18.927  10.456 -0.3751  0.0933  0.0225
  773DOPC   C3A 9071   4.630  18.759  10.875  0.2569  0.1289 -0.0219
  773DOPC   C4A 9072   4.694  18.482  11.232 -0.5368 -0.3859  0.0402
  773DOPC   C1B 9073   4.063  19.058  10.578 -0.1435  0.0585 -0.1996
  773DOPC   D2B 9074   4.309  19.148  10.930 -0.0267  0.0974  0.1658
  773DOPC   C3B 9075   4.218  19.506  11.251 -0.4172  0.2400  0.0196
  773DOPC   C4B 9076   4.347  19.478  11.714  0.2953  0.0971  0.1308
  774DOPS   CNO 9077   7.629  20.997   9.445 -0.2517  0.1381 -0.1915
  774DOPS   PO4 9078   7.358  20.873   9.678 -0.3748  0.1136  0.2081
  774DOPS   GL1 9079   7.108  20.969   9.853  0.0806 -0.1209 -0.0130
  774DOPS   GL2 9080   6.981  20.710  10.001 -0.0156  0.1113 -0.0212
  774DOPS   C1A 9081   7.131  21.196  10.263  0.0221 -0.2171 -0.0135
  774DOPS   D2A 9082   7.174  21.211  10.741 -0.1061  0.0806 -0.1119
  774DOPS   C3A 9083   7.502  21.242  11.117 -0.0739 -0.0229  0.4209
  774DOPS   C4A 9084   7.962  21.301  11.270 -0.2063  0.0507 -0.0291
  774DOPS   C1B 9085   7.057  20.751  10.473  0.2257  0.0926 -0.2987
  774DOPS   D2B 9086   7.106  20.607  10.954  0.0243 -0.0571  0.0423
  774DOPS   C3B 9087   7.421  20.278  10.989  0.0839 -0.1125 -0.2947
  774DOPS   C4B 9088   7.478  19.892  11.219  0.1107 -0.1753 -0.0544
  775POSM   NC3 9089  12.629  14.455  10.755 -0.1936  0.0618  0.0049
  775POSM   PO4 9090  12.964  14.630  10.635 -0.1454 -0.0173  0.2468
  775POSM   AM1 9091  13.087  14.436  10.893 -0.1477 -0.1890  0.1276
  775POSM   AM2 9092  13.138  14.177  11.026  0.1536 -0.0952  0.0387
  775POSM   T1A 9093  13.419  14.552  11.240  0.2573  0.4988 -0.0978
  775POSM   C2A 9094  13.707  14.525  11.541  0.2814 -0.0196 -0.2178
  775POSM   C3A 9095  13.754  14.486  11.998  0.0151  0.1482 -0.4904
  775POSM   C1B 9096  12.960  14.306  11.287 -0.2408 -0.2144  0.0629
  775POSM   D2B 9097  12.844  14.612  11.632 -0.1796 -0.2845  0.1519
  775POSM   C3B 9098  12.526  14.856  11.481 -0.0333 -0.1587  0.0507
  775POSM   C4B 9099  12.433  15.280  11.692  0.1014 -0.0017 -0.0567
  776DOPS   CNO 9100   3.603  18.540   9.478 -0.0936 -0.2211 -0.1976
  776DOPS   PO4 9101   3.720  18.300   9.716  0.0604  0.1869 -0.1114
  776DOPS   GL1 9102   3.583  18.254  10.020 -0.0979  0.3934  0.2880
  776DOPS   GL2 9103   3.334  18.085  10.036 -0.0414 -0.2651 -0.1265
  776DOPS   C1A 9104   3.836  18.251  10.402  0.0236  0.6617 -0.2663
  776DOPS   D2A 9105   4.097  18.573  10.649 -0.1257  0.0458  0.0892
  776DOPS   C3A 9106   4.166  18.534  11.131  0.0139 -0.1366 -0.0480
  776DOPS   C4A 9107   4.349  18.546  11.568  0.2133  0.3086  0.0939
  776DOPS   C1B 9108   2.903  18.107  10.222 -0.1807  0.1996 -0.1339
  776DOPS   D2B 9109   2.525  17.940  10.549  0.1165 -0.1395 -0.1655
  776DOPS   C3B 9110   2.661  17.584  10.766  0.3947  0.2006  0.0822
  776DOPS   C4B 9111   2.880  17.566  11.162 -0.0943 -0.2451  0.2143
  777POSM   NC3 9112   1.922  19.749   9.310 -0.0618 -0.2441  0.0557
  777POSM   PO4 9113   1.547  19.607   9.464 -0.1448 -0.0178  0.1281
  777POSM   AM1 9114   1.599  19.694   9.784  0.1612 -0.3844  0.2549
  777POSM   AM2 9115   1.761  19.732   9.993 -0.1149 -0.0752 -0.0474
  777POSM   T1A 9116   1.363  19.547  10.216 -0.2044  0.0869 -0.1822
  777POSM   C2A 9117   1.415  19.325  10.595  0.1838 -0.3105 -0.0105
  777POSM   C3A 9118   1.428  19.321  11.044 -0.1422  0.2159  0.3777
  777POSM   C1B 9119   1.774  19.873  10.311 -0.1020 -0.0528 -0.0683
  777POSM   D2B 9120   1.638  19.817  10.754 -0.1393 -0.0901 -0.0977
  777POSM   C3B 9121   1.836  19.988  11.126 -0.2519 -0.0706 -0.1489
  777POSM   C4B 9122   1.807  20.091  11.576  0.2116 -0.3732 -0.2518
  778DOPC   NC3 9123   1.000  19.953   9.390 -0.0717  0.1802 -0.1707
  778DOPC   PO4 9124   0.857  20.200   9.676 -0.0933 -0.1286 -0.0859
  778DOPC   GL1 9125   1.054  20.195  10.031 -0.0245  0.2432  0.0393
  778DOPC   GL2 9126   1.228  20.005  10.138  0.2352  0.1633  0.1699
  778DOPC   C1A 9127   0.777  20.049  10.383  0.1193 -0.2641 -0.1736
  778DOPC   D2A 9128   0.593  19.884  10.775  0.0591 -0.1891  0.0838
  778DOPC   C3A 9129   0.474  20.249  11.039 -0.0659 -0.0703  0.1598
  778DOPC   C4A 9130   0.558  20.405  11.485 -0.1755 -0.0908  0.1024
  778DOPC   C1B 9131   1.191  20.007  10.575 -0.2630 -0.1126  0.1864
  778DOPC   D2B 9132   0.925  20.229  10.874 -0.0201  0.1092 -0.2244
  778DOPC   C3B 9133   0.788  20.034  11.340 -0.0997  0.0499  0.0873
  778DOPC   C4B 9134   0.876  19.635  11.493  0.0636 -0.1888  0.1451
  779DOPC   NC3 9135   8.811  16.684  10.361  0.1174 -0.0800 -0.1107
  779DOPC   PO4 9136   8.657  17.063  10.257  0.3027 -0.0116  0.2178
  779DOPC   GL1 9137   8.371  17.071  10.517 -0.2353  0.3068  0.2698
  779DOPC   GL2 9138   8.410  16.837  10.615  0.0895  0.0509  0.2155
  779DOPC   C1A 9139   8.130  17.387  10.716 -0.2070  0.0408 -0.0769
  779DOPC   D2A 9140   7.935  17.683  11.006  0.1651  0.1557  0.1463
  779DOPC   C3A 9141   7.568  17.457  10.898  0.1554 -0.1783 -0.0651
  779DOPC   C4A 9142   7.420  17.001  10.847  0.1270  0.1545  0.3302
  779DOPC   C1B 9143   8.306  16.978  11.019  0.1173 -0.1063  0.2795
  779DOPC   D2B 9144   8.143  17.042  11.444  0.1639 -0.1469  0.2168
  779DOPC   C3B 9145   7.839  16.795  11.642 -0.1083  0.0079  0.0389
  779DOPC   C4B 9146   7.600  16.433  11.847  0.0893  0.1507 -0.4507
  780DOPC   NC3 9147   3.615   9.207  10.312  0.0952 -0.0354 -0.3153
  780DOPC   PO4 9148   3.575   8.980  10.640 -0.1778 -0.2374 -0.2110
  780DOPC   GL1 9149   3.357   8.925  11.046  0.2069 -0.0647 -0.1171
  780DOPC   GL2 9150   3.422   9.228  11.139  0.3013 -0.1325 -0.1601
  780DOPC   C1A 9151   3.315   8.816  11.513 -0.0054  0.0260  0.0047
  780DOPC   D2A 9152   3.182   8.769  11.938 -0.2351  0.2820  0.0470
  780DOPC   C3A 9153   3.209   9.172  12.191  0.1436 -0.1602  0.2791
  780DOPC   C4A 9154   3.309   9.605  12.015 -0.3532  0.0937 -0.3559
  780DOPC   C1B 9155   2.973   9.079  11.214 -0.0306  0.0099 -0.0560
  780DOPC   D2B 9156   2.662   9.166  11.625  0.0871  0.0690 -0.0436
  780DOPC   C3B 9157   2.704   8.882  11.973  0.0171 -0.1096  0.0377
  780DOPC   C4B 9158   2.826   8.871  12.393  0.0185 -0.2019  0.1902
  781POSM   NC3 9159   6.511  19.397   9.688 -0.0733  0.0524  0.0529
  781POSM   PO4 9160   6.334  19.757   9.700 -0.1958  0.0802  0.2741
  781POSM   AM1 9161   6.237  19.872   9.990 -0.1103 -0.1774 -0.1615
  781POSM   AM2 9162   6.361  20.071  10.159  0.1185 -0.1070  0.2764
  781POSM   T1A 9163   5.908  19.816  10.296 -0.2278 -0.2190 -0.0568
  781POSM   C2A 9164   5.741  19.476  10.592 -0.1637  0.0770  0.1625
  781POSM   C3A 9165   5.959  19.137  10.842 -0.0126 -0.0445 -0.0461
  781POSM   C1B 9166   6.328  20.254  10.384  0.0396  0.0433 -0.5025
  781POSM   D2B 9167   6.389  20.631  10.721  0.0987 -0.2582  0.0758
  781POSM   C3B 9168   6.367  20.617  11.173 -0.1417 -0.0354  0.4570
  781POSM   C4B 9169   6.435  20.941  11.503 -0.0969  0.1143  0.1046
  782POSM   NC3 9170   1.569  14.533   9.083 -0.1168 -0.1685  0.1060
  782POSM   PO4 9171   1.489  14.470   9.470 -0.0813  0.0191 -0.0039
  782POSM   AM1 9172   1.384  14.625   9.739  0.0716 -0.2073 -0.0041
  782POSM   AM2 9173   1.416  14.519  10.007 -0.1581  0.2892 -0.2493
  782POSM   T1A 9174   1.155  14.938  10.150 -0.0880 -0.1197  0.2190
  782POSM   C2A 9175   1.281  14.953  10.618  0.1282  0.0704 -0.0401
  782POSM   C3A 9176   1.561  14.674  10.808  0.0445 -0.0926 -0.1470
  782POSM   C1B 9177   1.582  14.695  10.240 -0.2339 -0.0627  0.7449
  782POSM   D2B 9178   1.859  14.902  10.516 -0.4686  0.2281  0.2359
  782POSM   C3B 9179   1.958  14.990  10.933 -0.0647 -0.0888 -0.0685
  782POSM   C4B 9180   1.932  15.023  11.370  0.0423 -0.0869 -0.0528
  783DOPE   NH3 9181   6.494  13.144  10.384  0.2694  0.0640  0.1133
  783DOPE   PO4 9182   6.759  13.271  10.549  0.0690 -0.1631 -0.2372
  783DOPE   GL1 9183   6.812  13.087  10.832  0.1011 -0.1129 -0.0298
  783DOPE   GL2 9184   6.585  12.940  10.870 -0.4361 -0.2808  0.0088
  783DOPE   C1A 9185   6.930  12.700  11.070  0.2266 -0.0598 -0.0688
  783DOPE   D2A 9186   6.721  12.385  11.315 -0.2832 -0.1580  0.1598
  783DOPE   C3A 9187   6.736  12.474  11.718  0.1006 -0.0525  0.1483
  783DOPE   C4A 9188   6.721  12.821  12.075 -0.0327 -0.4556  0.0522
  783DOPE   C1B 9189   6.572  12.858  11.334  0.1074  0.1733  0.1472
  783DOPE   D2B 9190   6.540  13.136  11.688 -0.3435  0.1220  0.2419
  783DOPE   C3B 9191   6.276  13.124  12.090 -0.1429 -0.1811 -0.0247
  783DOPE   C4B 9192   5.957  13.113  12.430  0.1823 -0.1874 -0.3854
  784DOPS   CNO 9193   7.620  15.335  10.232 -0.2627 -0.0452 -0.4020
  784DOPS   PO4 9194   7.595  14.959  10.298  0.5933  0.0093 -0.1311
  784DOPS   GL1 9195   7.571  14.942  10.711 -0.5056  0.1156  0.1104
  784DOPS   GL2 9196   7.298  14.817  10.710  0.2451  0.1533 -0.1070
  784DOPS   C1A 9197   7.407  14.890  11.146 -0.5128  0.0715 -0.2260
  784DOPS   D2A 9198   7.218  14.699  11.501  0.2161 -0.0883  0.3207
  784DOPS   C3A 9199   6.908  14.982  11.665 -0.1933  0.1479  0.0942
  784DOPS   C4A 9200   6.781  15.165  12.086 -0.0316 -0.1711 -0.3422
  784DOPS   C1B 9201   7.007  15.173  10.704 -0.1602 -0.4258 -0.3448
  784DOPS   D2B 9202   6.705  15.495  10.799  0.0914  0.0065  0.1008
  784DOPS   C3B 9203   6.753  15.536  11.258 -0.1054  0.0164 -0.1852
  784DOPS   C4B 9204   6.540  15.301  11.560  0.0346  0.2165 -0.0100
  785DOPE   NH3 9205   8.729  20.346   9.633  0.3003  0.1092 -0.2470
  785DOPE   PO4 9206   8.710  20.559   9.815  0.3468  0.1900 -0.0867
  785DOPE   GL1 9207   8.807  20.503  10.162  0.2350  0.3255 -0.1719
  785DOPE   GL2 9208   8.969  20.398  10.446  0.1255 -0.0546 -0.0110
  785DOPE   C1A 9209   8.710  20.806  10.531 -0.1745 -0.0711  0.1028
  785DOPE   D2A 9210   8.324  21.015  10.627 -0.1112  0.0058  0.0594
  785DOPE   C3A 9211   7.936  21.049  10.852 -0.0677 -0.0377  0.0941
  785DOPE   C4A 9212   7.607  21.362  10.629 -0.1361 -0.1092  0.2821
  785DOPE   C1B 9213   8.732  20.439  10.866  0.3305  0.0658 -0.3174
  785DOPE   D2B 9214   8.501  20.147  11.116 -0.0605  0.1169  0.3081
  785DOPE   C3B 9215   8.360  20.433  11.441 -0.0698 -0.0673  0.0724
  785DOPE   C4B 9216   8.008  20.769  11.375  0.1558 -0.1085 -0.0313
  786DOPC   NC3 9217   0.829  17.527   9.319 -0.1569 -0.0059 -0.0993
  786DOPC   PO4 9218   0.515  17.686   9.436  0.1158  0.1754  0.1443
  786DOPC   GL1 9219   0.635  17.841   9.846 -0.1944 -0.0651  0.2840
  786DOPC   GL2 9220   0.766  18.037   9.703  0.0029 -0.0550 -0.0644
  786DOPC   C1A 9221   0.465  17.669  10.260 -0.0071  0.0994  0.1266
  786DOPC   D2A 9222   0.253  17.566  10.690  0.1368 -0.0041 -0.0583
  786DOPC   C3A 9223   0.464  17.401  11.047  0.0513 -0.1726  0.3128
  786DOPC   C4A 9224   0.442  17.180  11.451 -0.0209  0.1012 -0.0844
  786DOPC   C1B 9225   0.935  18.052  10.172 -0.0065  0.0807  0.0125
  786DOPC   D2B 9226   1.035  18.279  10.510  0.0112 -0.2099 -0.2030
  786DOPC   C3B 9227   1.275  18.134  10.952 -0.0451 -0.1285  0.2083
  786DOPC   C4B 9228   1.380  18.214  11.385 -0.0055 -0.3542  0.1179
  787DOPC   NC3 9229   2.741  13.120  10.127 -0.1561 -0.0877 -0.1065
  787DOPC   PO4 9230   2.489  13.224   9.873 -0.2092  0.1110 -0.0737
  787DOPC   GL1 9231   2.340  13.359  10.076 -0.3270 -0.1727  0.0112
  787DOPC   GL2 9232   2.070  13.252  10.205 -0.0314  0.0340 -0.1096
  787DOPC   C1A 9233   2.576  13.568  10.462 -0.0867  0.0972  0.2845
  787DOPC   D2A 9234   2.782  13.567  10.877 -0.1381  0.0686 -0.2397
  787DOPC   C3A 9235   2.747  13.924  11.175  0.1338  0.0955 -0.2774
  787DOPC   C4A 9236   2.731  14.064  11.609 -0.0158  0.1197  0.0722
  787DOPC   C1B 9237   2.081  13.490  10.601 -0.2869 -0.2384 -0.2151
  787DOPC   D2B 9238   2.250  13.751  10.979  0.0616  0.0156  0.0436
  787DOPC   C3B 9239   2.280  13.755  11.393 -0.2364  0.3160  0.0501
  787DOPC   C4B 9240   2.292  13.806  11.912  0.0591 -0.2915  0.2861
  788POSM   NC3 9241   9.432  16.342  10.696 -0.0939  0.1079  0.4387
  788POSM   PO4 9242   9.135  16.292  10.440  0.2667  0.1608  0.2436
  788POSM   AM1 9243   8.961  16.338  10.684  0.3452 -0.2837 -0.0372
  788POSM   AM2 9244   8.979  16.156  10.905 -0.1122  0.1259 -0.0085
  788POSM   T1A 9245   8.604  16.499  10.936  0.0303 -0.0145  0.0539
  788POSM   C2A 9246   8.315  16.547  11.306 -0.0048  0.6703 -0.2673
  788POSM   C3A 9247   8.176  16.314  11.733 -0.2312 -0.2162  0.0185
  788POSM   C1B 9248   8.852  16.134  11.162  0.3559  0.2786  0.5234
  788POSM   D2B 9249   8.580  16.073  11.555  0.2099 -0.2695  0.2597
  788POSM   C3B 9250   8.267  15.785  11.879  0.0015  0.0038  0.2331
  788POSM   C4B 9251   8.385  15.718  12.349  0.3258 -0.1491 -0.4431
  789POSM   NC3 9252  34.501  23.190   9.479 -0.3228 -0.4943  0.1316
  789POSM   PO4 9253  34.619  22.999   9.795 -0.0619 -0.0865 -0.2675
  789POSM   AM1 9254  34.535  23.103  10.090 -0.0411 -0.0109  0.1049
  789POSM   AM2 9255  34.327  23.162  10.221 -0.1907 -0.0120 -0.0092
  789POSM   T1A 9256  34.645  23.143  10.581  0.1687  0.4231 -0.6501
  789POSM   C2A 9257  34.526  23.372  10.971  0.1067 -0.0561 -0.0865
  789POSM   C3A 9258  34.248  23.417  11.325 -0.1379 -0.2806  0.1528
  789POSM   C1B 9259  34.135  23.313  10.522 -0.0668 -0.0035 -0.1121
  789POSM   D2B 9260  33.917  23.227  10.909  0.2306 -0.1073 -0.0082
  789POSM   C3B 9261  34.000  22.943  11.320  0.1082 -0.2260 -0.0447
  789POSM   C4B 9262  34.232  22.772  11.671  0.1829  0.1627  0.3147
  790DOPS   CNO 9263  10.245  14.417  10.975  0.1327 -0.2822  0.0515
  790DOPS   PO4 9264  10.305  14.592  11.310 -0.2030  0.3532 -0.0843
  790DOPS   GL1 9265  10.138  14.578  11.655  0.0277  0.1776 -0.1028
  790DOPS   GL2 9266  10.292  14.306  11.769 -0.1570 -0.1886  0.3598
  790DOPS   C1A 9267   9.906  14.600  12.096 -0.3438  0.1395  0.0966
  790DOPS   D2A 9268  10.027  14.696  12.541  0.3069  0.0236  0.1671
  790DOPS   C3A 9269   9.809  15.053  12.754 -0.2493  0.0454  0.0988
  790DOPS   C4A 9270   9.551  15.370  12.685 -0.0004 -0.1921  0.2694
  790DOPS   C1B 9271  10.213  14.169  12.225 -0.0079  0.1847 -0.0756
  790DOPS   D2B 9272  10.015  14.206  12.657 -0.1088 -0.1236 -0.0710
  790DOPS   C3B 9273   9.756  13.895  12.911  0.1092 -0.1362  0.1239
  790DOPS   C4B 9274   9.824  13.658  13.314  0.2731 -0.0681  0.1633
  791POSM   NC3 9275   3.673  10.656  10.303  0.1188  0.0113 -0.0473
  791POSM   PO4 9276   4.057  10.501  10.327  0.1567 -0.2810  0.1208
  791POSM   AM1 9277   4.012  10.468  10.641  0.1423  0.1416 -0.0773
  791POSM   AM2 9278   3.795  10.534  10.791  0.1426  0.0048  0.1096
  791POSM   T1A 9279   4.086  10.378  11.156 -0.1425  0.0310 -0.0154
  791POSM   C2A 9280   3.933  10.673  11.487 -0.0764 -0.0142  0.1461
  791POSM   C3A 9281   3.824  10.799  11.901 -0.2744  0.1707 -0.1558
  791POSM   C1B 9282   3.583  10.538  11.046 -0.1021 -0.0611  0.1360
  791POSM   D2B 9283   3.505  10.360  11.438  0.0377 -0.1986 -0.0719
  791POSM   C3B 9284   3.360  10.444  11.863 -0.0443  0.0161  0.1135
  791POSM   C4B 9285   3.524  10.525  12.298 -0.2107 -0.1210 -0.0236
  792DOPE   NH3 9286   1.583  16.087   9.870  0.1741  0.2507  0.3066
  792DOPE   PO4 9287   1.571  16.415   9.891  0.3694  0.4414 -0.0199
  792DOPE   GL1 9288   1.380  16.309  10.265 -0.2433  0.1440  0.1875
  792DOPE   GL2 9289   1.648  16.349  10.427  0.0443 -0.1158 -0.2088
  792DOPE   C1A 9290   1.102  16.655  10.547 -0.0409  0.0086  0.0453
  792DOPE   D2A 9291   0.772  16.572  10.815 -0.4254 -0.0763  0.1866
  792DOPE   C3A 9292   0.768  16.481  11.264 -0.0364  0.4577  0.2254
  792DOPE   C4A 9293   0.478  16.602  11.629 -0.3142 -0.2540  0.1733
  792DOPE   C1B 9294   1.406  16.386  10.802 -0.0037  0.2500  0.0344
  792DOPE   D2B 9295   1.239  16.660  11.117  0.0502  0.0110  0.0647
  792DOPE   C3B 9296   1.483  17.051  11.207 -0.0131 -0.0926 -0.1571
  792DOPE   C4B 9297   1.485  17.439  11.476 -0.0083  0.0912 -0.0996
  793DOPE   NH3 9298   4.969  16.909   9.934  0.1792  0.0239 -0.1340
  793DOPE   PO4 9299   4.943  17.225  10.007  0.0914  0.3010 -0.0449
  793DOPE   GL1 9300   4.663  17.244  10.285 -0.1100 -0.3079 -0.2339
  793DOPE   GL2 9301   4.676  17.569  10.378 -0.0368 -0.0835 -0.3126
  793DOPE   C1A 9302   4.296  17.053  10.562  0.0560  0.0042 -0.1543
  793DOPE   D2A 9303   4.053  17.000  10.965  0.0244  0.0626  0.1526
  793DOPE   C3A 9304   4.118  17.254  11.285  0.0951  0.0482  0.1092
  793DOPE   C4A 9305   4.454  17.518  11.399  0.0675  0.3122 -0.0836
  793DOPE   C1B 9306   4.611  17.916  10.691  0.0635 -0.2251  0.0662
  793DOPE   D2B 9307   4.355  18.069  11.065 -0.0077 -0.1069  0.1815
  793DOPE   C3B 9308   4.075  17.766  11.210 -0.3825 -0.2537 -0.3091
  793DOPE   C4B 9309   3.720  17.481  11.169 -0.0079  0.0636  0.3375
  794DOPE   NH3 9310   0.463  12.901  10.102 -0.0210 -0.0401  0.1649
  794DOPE   PO4 9311   0.679  12.691  10.101 -0.0479  0.2866  0.1092
  794DOPE   GL1 9312   1.031  12.693  10.272  0.2556 -0.1452 -0.2662
  794DOPE   GL2 9313   0.980  13.044  10.337 -0.0501  0.0122  0.3390
  794DOPE   C1A 9314   1.325  12.775  10.646  0.3841 -0.4035 -0.2275
  794DOPE   D2A 9315   1.549  12.677  11.073  0.1462 -0.1320 -0.0580
  794DOPE   C3A 9316   1.481  12.668  11.490  0.1644 -0.1105 -0.2518
  794DOPE   C4A 9317   1.480  12.618  11.993  0.2882  0.3084  0.4732
  794DOPE   C1B 9318   1.200  13.295  10.585 -0.2037  0.2388 -0.0539
  794DOPE   D2B 9319   1.502  13.422  10.941 -0.1308 -0.1480 -0.0278
  794DOPE   C3B 9320   1.447  13.106  11.278  0.1289 -0.1902  0.1944
  794DOPE   C4B 9321   1.494  13.171  11.707  0.0188 -0.0038  0.3776
  795DOPS   CNO 9322   3.566   9.710   9.939 -0.2728 -0.3406  0.0166
  795DOPS   PO4 9323   3.595   9.728  10.267  0.0180  0.0013 -0.2099
  795DOPS   GL1 9324   3.597   9.905  10.655  0.1179  0.3281  0.0152
  795DOPS   GL2 9325   3.478  10.096  10.832 -0.0842 -0.3874  0.3401
  795DOPS   C1A 9326   3.964   9.929  10.942  0.2100  0.1477  0.1826
  795DOPS   D2A 9327   3.977   9.964  11.415 -0.1161  0.0404 -0.0514
  795DOPS   C3A 9328   4.272  10.047  11.754  0.3498  0.1503 -0.2132
  795DOPS   C4A 9329   4.573  10.044  12.082  0.2191  0.1081 -0.2936
  795DOPS   C1B 9330   3.530   9.885  11.228 -0.4466 -0.0862  0.0759
  795DOPS   D2B 9331   3.528   9.561  11.520 -0.1728  0.2162  0.2607
  795DOPS   C3B 9332   3.635   9.885  11.785 -0.2529  0.1539 -0.2104
  795DOPS   C4B 9333   3.860  10.294  11.940 -0.1806 -0.1161 -0.4353
  796POSM   NC3 9334   8.023  13.019  10.699  0.0723 -0.1786 -0.2408
  796POSM   PO4 9335   7.725  12.832  10.575  0.0301  0.3856 -0.2551
  796POSM   AM1 9336   7.711  12.662  10.825  0.3000  0.1871 -0.0107
  796POSM   AM2 9337   7.815  12.728  11.082  0.2478 -0.1068 -0.0403
  796POSM   T1A 9338   7.428  12.375  11.143 -0.0053  0.1295 -0.1819
  796POSM   C2A 9339   7.169  12.512  11.511  0.0078 -0.0194  0.4449
  796POSM   C3A 9340   7.042  12.916  11.633  0.1208  0.0297  0.0555
  796POSM   C1B 9341   7.979  12.951  11.321  0.1687 -0.0887 -0.1333
  796POSM   D2B 9342   8.166  12.880  11.718  0.1977 -0.4909  0.2505
  796POSM   C3B 9343   7.923  12.977  12.084 -0.3294 -0.1927 -0.1258
  796POSM   C4B 9344   7.626  13.246  12.338 -0.3895 -0.3342  0.1523
  797POSM   NC3 9345  10.878  16.480  10.710  0.1367 -0.0766 -0.0982
  797POSM   PO4 9346  10.522  16.402  10.798 -0.1619 -0.0605  0.1883
  797POSM   AM1 9347  10.542  16.428  11.132 -0.1416 -0.0364 -0.1226
  797POSM   AM2 9348  10.807  16.528  11.280  0.2913 -0.2306  0.2524
  797POSM   T1A 9349  10.393  16.389  11.618 -0.5557 -0.1086  0.1388
  797POSM   C2A 9350  10.295  16.104  11.904  0.0494 -0.1603 -0.0295
  797POSM   C3A 9351  10.024  16.113  12.290 -0.0578 -0.0834 -0.1156
  797POSM   C1B 9352  11.084  16.555  11.501 -0.0109 -0.1151  0.0105
  797POSM   D2B 9353  11.274  16.600  11.943 -0.0993 -0.1182 -0.0398
  797POSM   C3B 9354  11.257  17.064  12.018  0.1090  0.3145 -0.3125
  797POSM   C4B 9355  10.921  17.314  11.843  0.2548  0.1178  0.0121
  798DOPE   NH3 9356   5.872  14.512  10.288  0.0879  0.2697 -0.4132
  798DOPE   PO4 9357   5.932  14.183  10.442  0.3990  0.1363 -0.0375
  798DOPE   GL1 9358   6.190  14.344  10.660  0.2486  0.1034 -0.0042
  798DOPE   GL2 9359   6.296  14.602  10.615 -0.4275  0.2412  0.1819
  798DOPE   C1A 9360   6.230  14.313  11.114  0.0387  0.2072 -0.1883
  798DOPE   D2A 9361   6.089  14.556  11.393  0.3557  0.4764  0.2448
  798DOPE   C3A 9362   5.943  14.537  11.850 -0.2860  0.3413 -0.0178
  798DOPE   C4A 9363   6.025  14.654  12.339 -0.2212 -0.0137 -0.0253
  798DOPE   C1B 9364   5.993  14.785  10.858 -0.0365 -0.1862  0.1646
  798DOPE   D2B 9365   5.585  14.821  11.026  0.2404 -0.0869  0.0371
  798DOPE   C3B 9366   5.548  14.535  11.377  0.1339 -0.1471  0.2737
  798DOPE   C4B 9367   5.588  14.209  11.753  0.2644 -0.2557  0.2580
  799DOPS   CNO 9368   1.153  24.503   9.558 -0.1612  0.1931  0.0911
  799DOPS   PO4 9369   0.889  24.387   9.724  0.4413  0.1706 -0.1645
  799DOPS   GL1 9370   0.882  24.418  10.099  0.0936  0.1548  0.1761
  799DOPS   GL2 9371   1.074  24.691  10.075  0.1363 -0.1818 -0.0315
  799DOPS   C1A 9372   0.639  24.730  10.406  0.0348  0.3790  0.1336
  799DOPS   D2A 9373   0.307  24.770  10.711 -0.0224  0.1567 -0.0025
  799DOPS   C3A 9374  -0.104  24.565  10.762  0.1034 -0.2504  0.1727
  799DOPS   C4A 9375  -0.534  24.710  10.518  0.3056 -0.2995 -0.3335
  799DOPS   C1B 9376   1.246  24.441  10.421 -0.0607 -0.0914  0.0507
  799DOPS   D2B 9377   1.235  24.030  10.706 -0.0933  0.1297  0.2178
  799DOPS   C3B 9378   1.298  23.873  11.165 -0.0224  0.0546 -0.0263
  799DOPS   C4B 9379   1.236  24.040  11.562  0.4523 -0.0012 -0.0141
  800DOPE   NH3 9380   1.302  16.791   9.706 -0.0120 -0.1281  0.1772
  800DOPE   PO4 9381   1.606  16.860   9.601 -0.0906 -0.1320 -0.0661
  800DOPE   GL1 9382   1.680  16.856  10.034 -0.1741 -0.3437 -0.0405
  800DOPE   GL2 9383   1.442  16.757  10.231 -0.1517 -0.3034  0.0201
  800DOPE   C1A 9384   1.807  17.215  10.368  0.2352 -0.2102  0.1176
  800DOPE   D2A 9385   1.681  17.464  10.736  0.1245  0.2382  0.0616
  800DOPE   C3A 9386   1.594  17.756  11.085  0.1337  0.1729 -0.1782
  800DOPE   C4A 9387   1.708  17.872  11.538  0.1375 -0.0468 -0.1011
  800DOPE   C1B 9388   1.568  16.848  10.676 -0.1469  0.1936  0.0373
  800DOPE   D2B 9389   1.949  16.912  10.886  0.1021  0.3156  0.0520
  800DOPE   C3B 9390   1.917  17.337  11.160 -0.0465 -0.1966 -0.0772
  800DOPE   C4B 9391   2.112  17.492  11.516 -0.2958  0.1405 -0.0263
  801POSM   NC3 9392  34.348  10.993  10.447  0.2464 -0.0408  0.0389
  801POSM   PO4 9393  33.991  11.024  10.614 -0.0434  0.3144  0.2428
  801POSM   AM1 9394  33.742  11.133  10.770  0.1347 -0.4169 -0.0722
  801POSM   AM2 9395  33.768  11.383  10.914 -0.3322 -0.1199  0.0840
  801POSM   T1A 9396  33.707  11.124  11.289 -0.1826  0.2196  0.0138
  801POSM   C2A 9397  33.850  11.088  11.738  0.1637  0.2991 -0.1804
  801POSM   C3A 9398  33.852  10.779  11.995 -0.3452  0.0564  0.2971
  801POSM   C1B 9399  33.937  11.605  11.120  0.2387  0.0222  0.2238
  801POSM   D2B 9400  33.930  11.635  11.574 -0.2922 -0.0855  0.2109
  801POSM   C3B 9401  33.498  11.542  11.447 -0.0724  0.0282 -0.2009
  801POSM   C4B 9402  33.186  11.204  11.347 -0.3655 -0.0416  0.2883
  802POSM   NC3 9403   2.527  24.343   9.990  0.0169 -0.0114 -0.0159
  802POSM   PO4 9404   2.524  24.685   9.787  0.0232 -0.0781  0.3819
  802POSM   AM1 9405   2.538  24.810  10.089  0.0712  0.1344 -0.0616
  802POSM   AM2 9406   2.633  24.756  10.353  0.0175  0.2292  0.0053
  802POSM   T1A 9407   2.281  25.068  10.468  0.6155 -0.2079 -0.3083
  802POSM   C2A 9408   2.073  25.204  10.846  0.4782 -0.3049 -0.1293
  802POSM   C3A 9409   2.124  25.589  11.175 -0.0215  0.1027 -0.1523
  802POSM   C1B 9410   2.780  24.659  10.652  0.2508 -0.1610 -0.1212
  802POSM   D2B 9411   3.020  24.461  11.024 -0.0034 -0.0937  0.0818
  802POSM   C3B 9412   3.015  24.602  11.504 -0.0878 -0.3600  0.1015
  802POSM   C4B 9413   2.834  24.398  11.830 -0.0460  0.2072 -0.4012
  803DOPC   NC3 9414   1.375  20.117   9.635  0.1611 -0.0107 -0.1552
  803DOPC   PO4 9415   1.753  20.135   9.628  0.4818  0.1123 -0.0443
  803DOPC   GL1 9416   1.652  20.188  10.016 -0.0546  0.1284  0.1457
  803DOPC   GL2 9417   1.528  20.463   9.988 -0.0703 -0.0441  0.0527
  803DOPC   C1A 9418   1.838  20.326  10.399  0.3296  0.3558 -0.1767
  803DOPC   D2A 9419   1.977  20.350  10.839 -0.3815  0.0007  0.2163
  803DOPC   C3A 9420   1.838  20.551  11.180 -0.1514 -0.3807 -0.0172
  803DOPC   C4A 9421   2.001  20.554  11.659 -0.1843  0.1267 -0.0656
  803DOPC   C1B 9422   1.326  20.409  10.397  0.0314 -0.1587  0.0665
  803DOPC   D2B 9423   1.452  20.356  10.850  0.4252 -0.2366  0.2536
  803DOPC   C3B 9424   1.172  20.624  11.035 -0.0426 -0.1415  0.1220
  803DOPC   C4B 9425   0.760  20.665  11.141 -0.0774  0.1388  0.2067
  804POSM   NC3 9426  33.467  18.688   9.599  0.0321 -0.0667  0.0244
  804POSM   PO4 9427  33.787  18.935   9.687 -0.0295  0.1081  0.2971
  804POSM   AM1 9428  33.783  18.750   9.948 -0.1282  0.1171  0.2664
  804POSM   AM2 9429  33.931  18.541  10.091  0.1109 -0.1502  0.0295
  804POSM   T1A 9430  33.521  18.668  10.412  0.0435  0.0460  0.0485
  804POSM   C2A 9431  33.542  18.983  10.779 -0.3315  0.1635 -0.0077
  804POSM   C3A 9432  33.307  19.019  11.150  0.3857 -0.4462 -0.0121
  804POSM   C1B 9433  34.204  18.429  10.081 -0.3132 -0.1565  0.1035
  804POSM   D2B 9434  34.595  18.162  10.194 -0.0005 -0.1692 -0.1295
  804POSM   C3B 9435  34.722  17.994  10.617  0.0159  0.2724 -0.2617
  804POSM   C4B 9436  34.627  18.132  11.057  0.0132  0.5564 -0.3109
  805DOPE   NH3 9437   2.098  12.741   9.575  0.0354 -0.0599 -0.0213
  805DOPE   PO4 9438   1.997  12.792   9.913  0.0608  0.0937 -0.0255
  805DOPE   GL1 9439   2.137  12.767  10.293  0.2621  0.3109  0.3748
  805DOPE   GL2 9440   2.427  12.751  10.223 -0.0096  0.1439  0.0205
  805DOPE   C1A 9441   2.279  13.034  10.624 -0.1533  0.1288 -0.3229
  805DOPE   D2A 9442   2.511  13.170  10.950 -0.1511  0.0547  0.0121
  805DOPE   C3A 9443   2.340  13.267  11.375 -0.0537  0.3989  0.1496
  805DOPE   C4A 9444   2.072  13.407  11.752 -0.0523  0.2016  0.2547
  805DOPE   C1B 9445   2.545  12.647  10.684  0.0513  0.2557  0.1553
  805DOPE   D2B 9446   2.727  12.727  11.132  0.0520 -0.0414  0.1961
  805DOPE   C3B 9447   2.898  13.115  11.380  0.1770  0.0527 -0.2492
  805DOPE   C4B 9448   2.733  13.542  11.530 -0.2531  0.1220  0.0986
  806DOPS   CNO 9449   2.563  18.078   9.731  0.1733 -0.0155 -0.0787
  806DOPS   PO4 9450   2.914  18.051   9.515 -0.1700 -0.0048  0.1916
  806DOPS   GL1 9451   2.989  17.796   9.800  0.0217  0.3745  0.1906
  806DOPS   GL2 9452   3.068  17.516   9.676  0.1196  0.0310 -0.1691
  806DOPS   C1A 9453   3.288  17.570  10.119 -0.1202  0.2781 -0.0225
  806DOPS   D2A 9454   3.590  17.406  10.320 -0.0285 -0.1201  0.0014
  806DOPS   C3A 9455   3.894  17.428  10.674 -0.3357  0.1385 -0.2101
  806DOPS   C4A 9456   4.347  17.490  10.853  0.0499  0.5184  0.2180
  806DOPS   C1B 9457   2.886  17.268  10.014  0.0132 -0.0351 -0.1633
  806DOPS   D2B 9458   2.661  17.147  10.435 -0.0590 -0.0067 -0.0743
  806DOPS   C3B 9459   2.242  17.011  10.503  0.0547 -0.2841 -0.0478
  806DOPS   C4B 9460   1.982  16.708  10.426  0.0084  0.2048  0.0622
  807DOPC   NC3 9461   0.943  19.212   9.877 -0.0301 -0.2647  0.2302
  807DOPC   PO4 9462   1.045  18.891   9.720  0.5339 -0.1241  0.2198
  807DOPC   GL1 9463   1.095  18.820  10.093 -0.1941  0.3329  0.3311
  807DOPC   GL2 9464   1.085  18.536  10.015 -0.1184 -0.0076 -0.0215
  807DOPC   C1A 9465   1.480  18.939  10.297  0.2643 -0.2117  0.1837
  807DOPC   D2A 9466   1.739  18.884  10.667  0.1137  0.0554 -0.1617
  807DOPC   C3A 9467   1.618  18.696  11.073 -0.0214 -0.1434 -0.0090
  807DOPC   C4A 9468   1.416  18.762  11.466  0.3234  0.1683 -0.2465
  807DOPC   C1B 9469   1.468  18.434  10.209  0.1040  0.1372  0.1464
  807DOPC   D2B 9470   1.925  18.312  10.340  0.0784 -0.0008  0.4380
  807DOPC   C3B 9471   2.096  18.503  10.727 -0.1526  0.1417 -0.1478
  807DOPC   C4B 9472   2.349  18.520  11.107  0.1155  0.0170  0.2536
  808DOPC   NC3 9473   7.924  20.387  10.085  0.0788  0.3424 -0.0971
  808DOPC   PO4 9474   7.719  20.464   9.762 -0.2298  0.3184  0.2105
  808DOPC   GL1 9475   7.465  20.563  10.015 -0.1975 -0.0699  0.2744
  808DOPC   GL2 9476   7.481  20.778  10.192 -0.3876  0.3145  0.0707
  808DOPC   C1A 9477   7.327  20.316  10.413  0.0610 -0.2030  0.2645
  808DOPC   D2A 9478   6.874  20.203  10.320  0.2746 -0.2002  0.1512
  808DOPC   C3A 9479   6.671  19.912  10.590 -0.2006  0.1879 -0.1496
  808DOPC   C4A 9480   6.598  19.745  11.051 -0.1164  0.1631 -0.1852
  808DOPC   C1B 9481   7.538  20.906  10.594  0.1608  0.1147 -0.2284
  808DOPC   D2B 9482   7.581  20.774  11.024 -0.1589  0.2979 -0.0597
  808DOPC   C3B 9483   7.179  20.908  11.283 -0.1797 -0.2302  0.1658
  808DOPC   C4B 9484   6.861  20.666  11.493 -0.3103 -0.0877  0.0378
  809DOPC   NC3 9485  32.790  16.559   9.293  0.4722  0.2732 -0.0156
  809DOPC   PO4 9486  33.041  16.716   9.589 -0.0965 -0.1491  0.1070
  809DOPC   GL1 9487  33.332  16.886   9.899  0.3365 -0.0777  0.2089
  809DOPC   GL2 9488  33.183  17.106   9.871 -0.1898  0.2219  0.0537
  809DOPC   C1A 9489  33.368  16.811  10.354 -0.0346 -0.1536 -0.0551
  809DOPC   D2A 9490  33.273  17.025  10.746 -0.0976 -0.2205  0.2855
  809DOPC   C3A 9491  33.632  17.082  11.007  0.0164  0.2008 -0.0529
  809DOPC   C4A 9492  33.616  17.278  11.425  0.3504  0.0585  0.1056
  809DOPC   C1B 9493  33.155  17.357  10.203  0.0360 -0.0027 -0.0996
  809DOPC   D2B 9494  33.234  17.808  10.421  0.2918  0.0515 -0.2474
  809DOPC   C3B 9495  33.180  17.639  10.857 -0.4362 -0.0533  0.2032
  809DOPC   C4B 9496  33.251  17.697  11.275 -0.1684 -0.1130 -0.0012
  810DOPS   CNO 9497   3.144  19.243   9.369 -0.0345  0.0012 -0.1145
  810DOPS   PO4 9498   3.052  19.028   9.627  0.0474  0.1923  0.3127
  810DOPS   GL1 9499   3.030  18.999  10.030 -0.2513  0.2109  0.1257
  810DOPS   GL2 9500   2.753  18.950  10.015  0.0929  0.1179 -0.0486
  810DOPS   C1A 9501   3.339  18.963  10.397 -0.1109  0.1339 -0.0289
  810DOPS   D2A 9502   3.571  18.705  10.757 -0.2486  0.3836  0.0952
  810DOPS   C3A 9503   3.893  18.885  11.014 -0.0549  0.0464 -0.1042
  810DOPS   C4A 9504   4.065  19.059  11.434  0.0894  0.0922  0.1392
  810DOPS   C1B 9505   2.786  19.047  10.426 -0.1590 -0.1355 -0.2689
  810DOPS   D2B 9506   3.021  19.089  10.816 -0.0701  0.0543 -0.1367
  810DOPS   C3B 9507   2.950  19.224  11.293 -0.1369  0.0578  0.0596
  810DOPS   C4B 9508   2.909  19.057  11.714  0.1703 -0.0032  0.0749
  811POSM   NC3 9509   2.891  10.367  10.356  0.0940  0.2870  0.0201
  811POSM   PO4 9510   2.558  10.461  10.200 -0.1973  0.0108  0.0856
  811POSM   AM1 9511   2.489  10.615  10.516 -0.0163 -0.2320 -0.0185
  811POSM   AM2 9512   2.470  10.857  10.689 -0.0211  0.3418  0.1133
  811POSM   T1A 9513   2.236  10.539  10.947  0.2473 -0.0376 -0.1485
  811POSM   C2A 9514   2.169  10.368  11.334 -0.2225 -0.0753 -0.1046
  811POSM   C3A 9515   2.053  10.030  11.632  0.1036  0.1190  0.1215
  811POSM   C1B 9516   2.730  10.815  10.901 -0.1595  0.0630 -0.1659
  811POSM   D2B 9517   3.145  10.927  11.145  0.2114 -0.0235  0.1349
  811POSM   C3B 9518   3.405  10.882  11.504 -0.2560 -0.4008  0.3498
  811POSM   C4B 9519   3.387  11.056  11.997 -0.1562  0.1019  0.2844
  812POSM   NC3 9520   4.883  20.772   9.251 -0.0467  0.1987  0.0380
  812POSM   PO4 9521   4.766  20.530   9.587 -0.4398 -0.0215 -0.0550
  812POSM   AM1 9522   4.817  20.596   9.859 -0.0108 -0.1140 -0.0105
  812POSM   AM2 9523   4.784  20.804  10.042  0.0516  0.0949  0.0310
  812POSM   T1A 9524   4.873  20.411  10.331  0.2844 -0.2382  0.2626
  812POSM   C2A 9525   5.111  20.292  10.735  0.0097  0.1785 -0.0707
  812POSM   C3A 9526   5.280  20.465  11.118 -0.1428 -0.1901  0.3035
  812POSM   C1B 9527   4.649  20.837  10.357  0.2539 -0.0334  0.0062
  812POSM   D2B 9528   4.595  21.059  10.727  0.0615 -0.1796 -0.3673
  812POSM   C3B 9529   4.138  21.256  10.871 -0.0534  0.2171 -0.1779
  812POSM   C4B 9530   3.638  21.269  10.756  0.0279  0.1047 -0.0153
  813DOPE   NH3 9531  32.650  18.347   9.687  0.0451 -0.1571 -0.2107
  813DOPE   PO4 9532  32.553  18.571   9.894 -0.0363 -0.4242 -0.0041
  813DOPE   GL1 9533  32.431  18.584  10.276  0.2276  0.0685  0.3303
  813DOPE   GL2 9534  32.637  18.356  10.400 -0.5126  0.0450 -0.2132
  813DOPE   C1A 9535  32.373  18.649  10.709  0.3243 -0.1667 -0.0157
  813DOPE   D2A 9536  32.191  18.937  11.036 -0.0417 -0.1515 -0.4136
  813DOPE   C3A 9537  32.031  18.652  11.334 -0.0277  0.1818 -0.0414
  813DOPE   C4A 9538  31.642  18.700  11.597  0.0267 -0.2023  0.1800
  813DOPE   C1B 9539  32.763  18.407  10.843  0.1728 -0.0040 -0.4185
  813DOPE   D2B 9540  32.594  18.596  11.240 -0.3455  0.0356  0.1195
  813DOPE   C3B 9541  32.794  18.463  11.632 -0.5070  0.2678 -0.2578
  813DOPE   C4B 9542  32.995  18.456  12.063 -0.0911 -0.1945  0.0095
  814DOPC   NC3 9543   4.224  11.598  10.664  0.1364  0.0819 -0.2368
  814DOPC   PO4 9544   4.520  11.381  10.572  0.3560 -0.1081 -0.0164
  814DOPC   GL1 9545   4.329  11.172  10.772 -0.2166 -0.1146  0.2189
  814DOPC   GL2 9546   4.495  11.154  11.015 -0.5243 -0.1056 -0.2493
  814DOPC   C1A 9547   4.041  11.001  11.115 -0.0097 -0.2639  0.0112
  814DOPC   D2A 9548   3.633  11.188  11.160 -0.3419 -0.0759  0.0606
  814DOPC   C3A 9549   3.703  11.265  11.557  0.0090  0.2377 -0.0211
  814DOPC   C4A 9550   3.854  11.427  11.938  0.2504 -0.1136 -0.2401
  814DOPC   C1B 9551   4.740  11.346  11.284 -0.0350  0.0951  0.2909
  814DOPC   D2B 9552   5.045  11.384  11.655  0.0027  0.0624 -0.3620
  814DOPC   C3B 9553   4.999  11.224  12.136 -0.0554  0.0701  0.0871
  814DOPC   C4B 9554   5.041  11.066  12.590 -0.1093  0.1034  0.0384
  815POSM   NC3 9555   7.273  15.376   9.755 -0.3602 -0.2075 -0.1630
  815POSM   PO4 9556   7.353  15.725   9.857  0.0986 -0.0978  0.0965
  815POSM   AM1 9557   7.323  15.777  10.155 -0.2363 -0.0006  0.4054
  815POSM   AM2 9558   7.400  15.977  10.306 -0.1449 -0.2885 -0.0202
  815POSM   T1A 9559   7.222  15.639  10.601 -0.2370  0.1549 -0.1988
  815POSM   C2A 9560   7.152  15.832  11.006 -0.2125 -0.0364 -0.2637
  815POSM   C3A 9561   7.162  15.963  11.468 -0.1597 -0.1753 -0.0589
  815POSM   C1B 9562   7.247  16.134  10.560 -0.3744 -0.0948  0.0172
  815POSM   D2B 9563   6.818  16.202  10.752 -0.0583  0.2288  0.2950
  815POSM   C3B 9564   6.643  16.005  11.094 -0.0682  0.0548 -0.1242
  815POSM   C4B 9565   6.288  15.748  11.264  0.1082  0.0934 -0.1656
  816POSM   NC3 9566   3.976  15.109   9.430 -0.0483 -0.0045 -0.2365
  816POSM   PO4 9567   4.274  14.892   9.575  0.3540  0.1473 -0.0167
  816POSM   AM1 9568   4.130  15.017   9.861  0.7090  0.1004 -0.1994
  816POSM   AM2 9569   4.193  15.168  10.078  0.3948 -0.0353  0.3334
  816POSM   T1A 9570   3.685  15.017  10.070 -0.0987 -0.2795  0.2896
  816POSM   C2A 9571   3.418  15.148  10.372 -0.0369  0.0677 -0.2760
  816POSM   C3A 9572   3.280  15.449  10.761 -0.1645  0.1353  0.0478
  816POSM   C1B 9573   4.374  15.220  10.350 -0.0082 -0.0390 -0.0539
  816POSM   D2B 9574   4.298  15.392  10.746 -0.0571  0.0602 -0.0291
  816POSM   C3B 9575   4.243  15.164  11.132  0.2064  0.0123 -0.0252
  816POSM   C4B 9576   4.369  15.018  11.553  0.3145 -0.0670 -0.1872
  817DOPC   NC3 9577   4.155  32.021  13.039 -0.1051  0.0575  0.1785
  817DOPC   PO4 9578   3.937  32.136  13.344  0.0068 -0.0028  0.0472
  817DOPC   GL1 9579   3.836  32.390  13.010  0.0278 -0.2703 -0.2186
  817DOPC   GL2 9580   4.074  32.567  12.963  0.2809  0.1326 -0.0077
  817DOPC   C1A 9581   3.668  32.249  12.628 -0.1707  0.0198 -0.2376
  817DOPC   D2A 9582   3.333  32.021  12.412  0.4648  0.0658  0.1207
  817DOPC   C3A 9583   2.964  32.162  12.117 -0.4166  0.2028  0.2033
  817DOPC   C4A 9584   2.938  32.024  11.704  0.2738  0.2165 -0.1013
  817DOPC   C1B 9585   4.171  32.291  12.608  0.2009 -0.2149  0.2020
  817DOPC   D2B 9586   4.201  31.869  12.467  0.3058  0.0353  0.0981
  817DOPC   C3B 9587   3.797  31.706  12.607  0.1683  0.3290 -0.2856
  817DOPC   C4B 9588   3.515  31.330  12.446 -0.0712  0.2312 -0.0217
  818DOPC   NC3 9589  11.330  27.073  13.045  0.3901  0.1316  0.1628
  818DOPC   PO4 9590  11.305  26.703  13.204 -0.1302  0.2197 -0.0616
  818DOPC   GL1 9591  11.585  26.442  13.103  0.0168  0.1955  0.0469
  818DOPC   GL2 9592  11.668  26.697  12.870  0.1967  0.2447 -0.3872
  818DOPC   C1A 9593  11.849  26.270  12.799  0.3116 -0.1831  0.2165
  818DOPC   D2A 9594  12.069  26.402  12.351  0.1593 -0.1681  0.0135
  818DOPC   C3A 9595  12.048  26.163  12.001  0.0747 -0.0094 -0.0164
  818DOPC   C4A 9596  11.959  26.180  11.584 -0.2506  0.1842  0.0709
  818DOPC   C1B 9597  11.948  26.828  12.551  0.1133  0.0645 -0.2759
  818DOPC   D2B 9598  12.359  26.903  12.377  0.0451 -0.2408  0.2440
  818DOPC   C3B 9599  12.559  26.546  12.233 -0.1075 -0.1251 -0.1546
  818DOPC   C4B 9600  12.632  26.127  12.028  0.2499  0.2151 -0.3212
  819DOPE   NH3 9601  10.196  28.621  12.831  0.1566 -0.1111 -0.2010
  819DOPE   PO4 9602  10.484  28.753  12.724  0.1608 -0.0401 -0.1613
  819DOPE   GL1 9603  10.443  29.113  12.544  0.1559  0.1944 -0.0211
  819DOPE   GL2 9604  10.561  29.284  12.674 -0.2996 -0.0117  0.0417
  819DOPE   C1A 9605  10.341  29.366  12.159  0.0971 -0.1388  0.4427
  819DOPE   D2A 9606  10.221  29.614  11.803  0.2952 -0.2680 -0.2133
  819DOPE   C3A 9607  10.219  29.637  11.368 -0.3202  0.0429 -0.2268
  819DOPE   C4A 9608   9.891  29.605  11.047 -0.0472 -0.0506 -0.0579
  819DOPE   C1B 9609  10.973  29.171  12.418 -0.0385  0.1413  0.2277
  819DOPE   D2B 9610  11.205  29.349  12.090  0.0293  0.1312  0.1329
  819DOPE   C3B 9611  11.452  29.147  11.800  0.2797  0.2447  0.3673
  819DOPE   C4B 9612  11.741  28.983  11.525  0.1641  0.0340  0.1101
  820DOPE   NH3 9613  33.830  32.730  13.444  0.0193  0.5365 -0.2182
  820DOPE   PO4 9614  34.100  32.600  13.496 -0.2150 -0.2564  0.2420
  820DOPE   GL1 9615  34.220  32.574  13.158 -0.1120 -0.2388  0.1727
  820DOPE   GL2 9616  34.190  32.856  13.020 -0.0834  0.0999 -0.2578
  820DOPE   C1A 9617  34.320  32.401  12.756  0.5076  0.1678  0.0044
  820DOPE   D2A 9618  34.272  31.938  12.606  0.0077 -0.0571  0.1855
  820DOPE   C3A 9619  34.027  31.582  12.408 -0.0688  0.0669 -0.1451
  820DOPE   C4A 9620  33.790  31.340  12.082 -0.1027 -0.1478 -0.1404
  820DOPE   C1B 9621  34.071  32.782  12.604 -0.3616  0.0814  0.1189
  820DOPE   D2B 9622  33.823  32.469  12.401  0.1320 -0.1112  0.2042
  820DOPE   C3B 9623  33.914  32.105  12.100  0.1561 -0.0185  0.2604
  820DOPE   C4B 9624  34.313  31.853  12.031 -0.2602  0.3712 -0.1888
  821DOPC   NC3 9625   9.002   0.858  13.855  0.0779  0.1121 -0.1639
  821DOPC   PO4 9626   8.805   0.549  14.009  0.0754  0.2223  0.0935
  821DOPC   GL1 9627   8.602   0.584  13.796 -0.1051  0.2229  0.3194
  821DOPC   GL2 9628   8.762   0.445  13.539  0.0304 -0.0410  0.0684
  821DOPC   C1A 9629   8.307   0.600  13.420  0.2836  0.0291 -0.0849
  821DOPC   D2A 9630   8.332   0.915  13.123 -0.1387  0.0295 -0.0580
  821DOPC   C3A 9631   8.721   0.974  12.829 -0.1890  0.0470  0.0837
  821DOPC   C4A 9632   8.742   0.972  12.367 -0.0241  0.0619 -0.2138
  821DOPC   C1B 9633   8.791   0.379  13.062 -0.1262 -0.1669  0.2510
  821DOPC   D2B 9634   8.799   0.532  12.619 -0.3558 -0.2537 -0.0389
  821DOPC   C3B 9635   8.653   0.461  12.186  0.0404  0.4667  0.0364
  821DOPC   C4B 9636   8.225   0.407  12.137 -0.1031  0.0984  0.1353
  822DOPC   NC3 9637   8.087  32.678  13.751 -0.0915 -0.2121  0.1096
  822DOPC   PO4 9638   8.465  32.567  13.849 -0.1027 -0.4260 -0.4738
  822DOPC   GL1 9639   8.502  32.557  13.417 -0.2702  0.1857  0.0175
  822DOPC   GL2 9640   8.408  32.844  13.385  0.0295  0.0080 -0.1330
  822DOPC   C1A 9641   8.706  32.670  13.020 -0.0071  0.1888 -0.0237
  822DOPC   D2A 9642   8.579  32.962  12.719 -0.0929 -0.2208  0.0072
  822DOPC   C3A 9643   8.293  33.044  12.349 -0.0482  0.1772 -0.3901
  822DOPC   C4A 9644   8.157  33.218  11.936 -0.1542 -0.1361  0.1383
  822DOPC   C1B 9645   8.193  32.860  12.997 -0.1682 -0.1817 -0.0821
  822DOPC   D2B 9646   7.923  32.849  12.677 -0.2290 -0.0125 -0.0627
  822DOPC   C3B 9647   7.850  32.863  12.182 -0.2636  0.1964 -0.0204
  822DOPC   C4B 9648   7.625  32.718  11.853 -0.3271  0.0054  0.0842
  823POSM   NC3 9649   2.616  26.109  13.778  0.2549 -0.0777 -0.4038
  823POSM   PO4 9650   2.748  26.305  13.460 -0.2194  0.1774  0.0955
  823POSM   AM1 9651   2.655  26.276  13.199 -0.5020 -0.1045  0.0327
  823POSM   AM2 9652   2.470  26.104  13.009 -0.1193  0.1690  0.1717
  823POSM   T1A 9653   2.845  26.257  12.731  0.3542  0.1010 -0.1371
  823POSM   C2A 9654   2.800  26.250  12.285  0.1082  0.1727 -0.0368
  823POSM   C3A 9655   3.040  26.229  11.945  0.0250 -0.2304 -0.1202
  823POSM   C1B 9656   2.483  25.967  12.690  0.1251 -0.0624  0.0096
  823POSM   D2B 9657   2.657  25.746  12.333  0.0160  0.0268 -0.2639
  823POSM   C3B 9658   2.962  25.747  12.000  0.1291 -0.1091  0.5291
  823POSM   C4B 9659   3.384  25.771  12.009  0.0256 -0.0589 -0.1173
  824DOPS   CNO 9660   9.253  29.478  13.124 -0.2235 -0.1344 -0.2685
  824DOPS   PO4 9661   9.110  29.743  12.853 -0.0190  0.2221  0.1837
  824DOPS   GL1 9662   9.082  29.764  12.346 -0.1097  0.4621 -0.0652
  824DOPS   GL2 9663   9.106  29.445  12.332  0.4070 -0.0106  0.1369
  824DOPS   C1A 9664   9.113  30.020  11.951 -0.3576  0.2619  0.1690
  824DOPS   D2A 9665   9.321  30.186  11.543  0.0473  0.1343  0.2245
  824DOPS   C3A 9666   9.114  30.474  11.238  0.0966  0.3908  0.2273
  824DOPS   C4A 9667   8.748  30.517  10.919  0.1820  0.1102 -0.0581
  824DOPS   C1B 9668   8.987  29.497  11.895  0.1577 -0.0675  0.2750
  824DOPS   D2B 9669   9.092  29.759  11.539 -0.0852 -0.3118 -0.1151
  824DOPS   C3B 9670   8.740  29.628  11.246 -0.0838  0.1659  0.4296
  824DOPS   C4B 9671   8.489  29.680  10.888  0.2427  0.1324  0.1463
  825DOPC   NC3 9672   7.953  23.441  13.569 -0.2588  0.0638 -0.1097
  825DOPC   PO4 9673   7.564  23.305  13.618  0.2118 -0.1458  0.3065
  825DOPC   GL1 9674   7.641  23.358  13.216 -0.1527 -0.0112 -0.3312
  825DOPC   GL2 9675   7.482  23.554  13.109  0.1180  0.1109 -0.0532
  825DOPC   C1A 9676   7.420  23.159  12.883  0.0114 -0.0925  0.1319
  825DOPC   D2A 9677   7.223  23.138  12.495 -0.0002  0.2169 -0.1965
  825DOPC   C3A 9678   7.381  23.096  12.089 -0.0983  0.2682  0.0334
  825DOPC   C4A 9679   7.421  22.984  11.638  0.0298 -0.3770  0.0300
  825DOPC   C1B 9680   7.495  23.552  12.587  0.3965  0.1292  0.2108
  825DOPC   D2B 9681   7.198  23.661  12.184 -0.0117  0.0993 -0.0801
  825DOPC   C3B 9682   7.262  23.866  11.765  0.0827  0.2147 -0.0977
  825DOPC   C4B 9683   7.400  24.214  11.430 -0.0748 -0.0949  0.2335
  826DOPE   NH3 9684   1.799  32.150  13.566 -0.1141  0.0358  0.0570
  826DOPE   PO4 9685   1.598  32.427  13.529 -0.0613 -0.0116  0.0887
  826DOPE   GL1 9686   1.500  32.136  13.219  0.0771  0.1544 -0.0997
  826DOPE   GL2 9687   1.496  32.382  13.038 -0.0236 -0.0610 -0.0725
  826DOPE   C1A 9688   1.646  31.989  12.794  0.0328 -0.0240 -0.2099
  826DOPE   D2A 9689   1.737  32.030  12.369  0.2323 -0.0923 -0.4283
  826DOPE   C3A 9690   1.961  32.168  12.042  0.1736 -0.2627 -0.0102
  826DOPE   C4A 9691   2.053  32.524  11.782  0.1054 -0.1475  0.1876
  826DOPE   C1B 9692   1.471  32.435  12.547  0.2769  0.0281  0.0627
  826DOPE   D2B 9693   1.326  32.475  12.099 -0.0011 -0.2650 -0.1893
  826DOPE   C3B 9694   1.214  32.335  11.697 -0.1061 -0.1640  0.0421
  826DOPE   C4B 9695   1.267  32.414  11.259 -0.1420  0.0976  0.2568
  827POSM   NC3 9696   9.496  32.205  14.781 -0.3759 -0.0385 -0.0639
  827POSM   PO4 9697   9.322  32.301  14.494  0.0356  0.1275  0.0520
  827POSM   AM1 9698   9.345  32.362  14.165 -0.1235 -0.2849  0.0521
  827POSM   AM2 9699   9.412  32.229  13.935  0.1169 -0.0362  0.0630
  827POSM   T1A 9700   9.401  32.795  13.915 -0.2452  0.2956 -0.0716
  827POSM   C2A 9701   9.805  33.049  13.889 -0.3732  0.1670 -0.2750
  827POSM   C3A 9702  10.131  33.112  13.585 -0.0489 -0.0554  0.2500
  827POSM   C1B 9703   9.411  32.268  13.637 -0.2366 -0.0196  0.1862
  827POSM   D2B 9704   9.644  32.222  13.241 -0.1973 -0.3642 -0.0237
  827POSM   C3B 9705   9.986  32.533  13.112  0.2862  0.0350 -0.4098
  827POSM   C4B 9706  10.295  32.799  13.188  0.0149 -0.0262  0.2007
  828DOPS   CNO 9707   7.586  33.330  14.227  0.0770 -0.2480  0.1828
  828DOPS   PO4 9708   7.754  33.609  14.000  0.1071  0.1233  0.0206
  828DOPS   GL1 9709   7.851  33.842  13.633 -0.5239  0.0824 -0.1670
  828DOPS   GL2 9710   7.568  33.931  13.531  0.1270  0.0875  0.2651
  828DOPS   C1A 9711   8.154  33.810  13.304  0.1909  0.1972  0.1673
  828DOPS   D2A 9712   8.173  33.803  12.904  0.2984 -0.2253  0.3169
  828DOPS   C3A 9713   8.372  34.116  12.645 -0.0616  0.1492  0.0374
  828DOPS   C4A 9714   8.774  34.318  12.613 -0.1593 -0.0713 -0.4851
  828DOPS   C1B 9715   7.640  33.944  13.101 -0.0543 -0.1972  0.0028
  828DOPS   D2B 9716   7.679  34.233  12.781  0.3031  0.2342 -0.1459
  828DOPS   C3B 9717   7.927  34.157  12.427  0.2369  0.1491  0.3025
  828DOPS   C4B 9718   8.206  34.179  12.025 -0.0646 -0.1160 -0.0269
  829DOPC   NC3 9719   8.958  24.432  13.264 -0.1370 -0.2473  0.2108
  829DOPC   PO4 9720   9.060  24.053  13.246  0.0259  0.1463  0.1402
  829DOPC   GL1 9721   9.294  24.143  12.915 -0.0772 -0.3026 -0.0790
  829DOPC   GL2 9722   9.266  23.851  12.842  0.1567  0.1065  0.1712
  829DOPC   C1A 9723   9.677  24.067  12.706  0.0441 -0.2128 -0.2597
  829DOPC   D2A 9724  10.146  23.977  12.566  0.1550  0.1310  0.0377
  829DOPC   C3A 9725  10.143  23.840  12.128  0.2305 -0.0229  0.5278
  829DOPC   C4A 9726  10.390  23.916  11.754  0.0080  0.2420  0.2594
  829DOPC   C1B 9727   9.036  23.751  12.451 -0.0327 -0.1539  0.1490
  829DOPC   D2B 9728   8.700  23.870  12.119 -0.2560 -0.0449  0.0732
  829DOPC   C3B 9729   8.723  23.550  11.751 -0.0683 -0.2109  0.0350
  829DOPC   C4B 9730   8.795  23.247  11.397  0.0577 -0.0616  0.1457
  830DOPE   NH3 9731   4.355  27.263  13.395 -0.0357  0.2267  0.0457
  830DOPE   PO4 9732   4.081  27.269  13.529 -0.0756 -0.0066 -0.1495
  830DOPE   GL1 9733   3.991  27.438  13.169  0.4179 -0.0624  0.4864
  830DOPE   GL2 9734   3.910  27.110  13.058  0.0339  0.3463  0.0339
  830DOPE   C1A 9735   4.225  27.434  12.766 -0.0484  0.1811 -0.1251
  830DOPE   D2A 9736   4.091  27.351  12.303  0.3391 -0.4093  0.1192
  830DOPE   C3A 9737   3.790  27.650  12.029 -0.1679 -0.2258 -0.1955
  830DOPE   C4A 9738   4.044  28.008  11.836  0.0610  0.1495 -0.0658
  830DOPE   C1B 9739   3.611  26.837  12.799 -0.0907  0.0512  0.1718
  830DOPE   D2B 9740   3.274  26.964  12.464  0.2216  0.0037  0.0647
  830DOPE   C3B 9741   3.371  27.332  12.132  0.4068 -0.1297 -0.1691
  830DOPE   C4B 9742   3.440  27.505  11.705 -0.1632  0.0245  0.0517
  831DOPE   NH3 9743   5.482  26.520  13.183 -0.1199  0.1573  0.3103
  831DOPE   PO4 9744   5.477  26.754  12.969  0.0452  0.2684  0.0865
  831DOPE   GL1 9745   5.256  26.852  12.681 -0.1869  0.3556  0.0946
  831DOPE   GL2 9746   4.947  26.940  12.649 -0.1551 -0.0450 -0.1386
  831DOPE   C1A 9747   5.211  27.039  12.227  0.1360  0.2799  0.0576
  831DOPE   D2A 9748   5.287  27.156  11.827  0.1712  0.3621  0.1770
  831DOPE   C3A 9749   5.512  27.401  11.479  0.0220  0.1902 -0.4252
  831DOPE   C4A 9750   5.617  27.844  11.363 -0.3719  0.0256  0.1564
  831DOPE   C1B 9751   5.050  26.576  12.430  0.2975 -0.0546 -0.0634
  831DOPE   D2B 9752   5.033  26.380  11.989 -0.3374  0.0701  0.1317
  831DOPE   C3B 9753   4.695  26.123  11.700 -0.2204 -0.0446 -0.0981
  831DOPE   C4B 9754   4.513  26.167  11.280 -0.0338 -0.2863 -0.2073
  832DOPC   NC3 9755   7.974  31.024  13.051  0.2817  0.0299  0.1210
  832DOPC   PO4 9756   7.921  30.645  13.079 -0.2539  0.2212  0.0088
  832DOPC   GL1 9757   8.128  30.690  12.668 -0.1712  0.1804 -0.2574
  832DOPC   GL2 9758   8.420  30.837  12.763 -0.0476  0.1137  0.0844
  832DOPC   C1A 9759   8.225  30.890  12.225  0.0752  0.0461  0.1255
  832DOPC   D2A 9760   8.402  31.179  11.901 -0.0188  0.2228  0.3567
  832DOPC   C3A 9761   8.320  30.981  11.501  0.0507  0.1027 -0.0603
  832DOPC   C4A 9762   8.322  30.819  11.058  0.1294 -0.1106  0.2358
  832DOPC   C1B 9763   8.614  31.284  12.687  0.1317  0.1772  0.1988
  832DOPC   D2B 9764   8.593  31.606  12.376 -0.0113 -0.1995  0.2432
  832DOPC   C3B 9765   8.550  31.714  11.936  0.1195  0.1873 -0.6939
  832DOPC   C4B 9766   8.711  31.888  11.563 -0.4402  0.3267  0.1183
  833POSM   NC3 9767   8.039  26.180  13.420  0.2288 -0.2368 -0.1876
  833POSM   PO4 9768   7.884  25.803  13.351  0.0068  0.2854  0.0427
  833POSM   AM1 9769   7.987  25.855  13.065 -0.2222  0.1781  0.0483
  833POSM   AM2 9770   7.901  26.011  12.854  0.2807 -0.2439  0.0650
  833POSM   T1A 9771   8.338  25.817  12.687  0.3618  0.3674 -0.3146
  833POSM   C2A 9772   8.433  25.949  12.227  0.0086 -0.1293 -0.1822
  833POSM   C3A 9773   8.817  25.937  11.943  0.1286 -0.0829  0.1159
  833POSM   C1B 9774   7.922  26.243  12.600 -0.1197  0.1235  0.4067
  833POSM   D2B 9775   8.098  26.469  12.220  0.2684 -0.2712  0.0734
  833POSM   C3B 9776   8.359  26.292  11.870 -0.1512 -0.0890 -0.0260
  833POSM   C4B 9777   8.287  26.179  11.446 -0.5145 -0.2522 -0.0551
  834DOPE   NH3 9778   1.290  32.400  13.902 -0.1063 -0.0162  0.0913
  834DOPE   PO4 9779   1.050  32.243  14.038 -0.0438  0.0561  0.1947
  834DOPE   GL1 9780   0.929  32.326  13.635  0.2281  0.2185 -0.1094
  834DOPE   GL2 9781   1.114  32.162  13.406  0.0061  0.3995  0.2168
  834DOPE   C1A 9782   0.594  32.101  13.376 -0.4968  0.1632  0.0855
  834DOPE   D2A 9783   0.541  32.018  12.893 -0.0331 -0.1243  0.1017
  834DOPE   C3A 9784   0.316  31.623  12.878  0.1209  0.1232 -0.3088
  834DOPE   C4A 9785   0.250  31.254  13.128 -0.0700  0.0311 -0.0833
  834DOPE   C1B 9786   0.943  32.352  13.032  0.0454 -0.1306  0.0351
  834DOPE   D2B 9787   0.958  32.477  12.577  0.1277 -0.2684  0.0050
  834DOPE   C3B 9788   0.682  32.123  12.421  0.3487  0.3543  0.3468
  834DOPE   C4B 9789   0.690  31.703  12.501  0.3624  0.0009  0.0046
  835DOPS   CNO 9790   4.278  26.498  13.699 -0.0500  0.0571  0.1235
  835DOPS   PO4 9791   3.968  26.298  13.606  0.2186 -0.3577  0.2305
  835DOPS   GL1 9792   3.810  26.470  13.293  0.3084  0.0457 -0.2501
  835DOPS   GL2 9793   3.628  26.369  13.132 -0.0313  0.2053  0.0732
  835DOPS   C1A 9794   4.013  26.562  12.899  0.0195 -0.1986 -0.0106
  835DOPS   D2A 9795   3.894  26.505  12.476  0.0032  0.0771 -0.2748
  835DOPS   C3A 9796   3.725  26.295  12.086  0.3578 -0.1275 -0.2682
  835DOPS   C4A 9797   3.572  26.197  11.678  0.0319 -0.0337 -0.0411
  835DOPS   C1B 9798   3.860  26.023  12.928 -0.0342  0.1255 -0.1313
  835DOPS   D2B 9799   4.324  25.945  12.775 -0.0951  0.0147 -0.0821
  835DOPS   C3B 9800   4.599  25.575  12.792 -0.0612  0.1345 -0.0050
  835DOPS   C4B 9801   4.554  25.197  13.065  0.0817 -0.1580  0.0252
  836POSM   NC3 9802   6.639  29.821  13.276 -0.1702  0.0795  0.1626
  836POSM   PO4 9803   6.928  29.704  13.041  0.0464  0.1956  0.3578
  836POSM   AM1 9804   6.821  29.707  12.738 -0.1753  0.2049 -0.1105
  836POSM   AM2 9805   6.799  29.529  12.554  0.0678 -0.0142 -0.5005
  836POSM   T1A 9806   6.790  30.031  12.369  0.3380  0.0683 -0.1647
  836POSM   C2A 9807   6.590  30.028  11.933  0.1930  0.0885  0.1719
  836POSM   C3A 9808   6.714  30.135  11.514  0.0863  0.2211  0.1336
  836POSM   C1B 9809   6.876  29.571  12.209  0.1058 -0.2103  0.0954
  836POSM   D2B 9810   6.909  29.665  11.743  0.2481 -0.0571  0.0989
  836POSM   C3B 9811   6.800  29.334  11.395  0.2490 -0.0798  0.0072
  836POSM   C4B 9812   6.969  29.490  10.976  0.1315  0.2264 -0.2954
  837POSM   NC3 9813   4.425  29.515  13.714 -0.2586  0.2727 -0.1018
  837POSM   PO4 9814   4.115  29.310  13.563  0.2561 -0.0271 -0.0037
  837POSM   AM1 9815   4.136  29.252  13.254 -0.0558 -0.1043  0.2214
  837POSM   AM2 9816   4.045  29.092  13.006 -0.2750 -0.2995 -0.0438
  837POSM   T1A 9817   4.344  29.340  12.788  0.1417 -0.0887  0.1720
  837POSM   C2A 9818   4.714  29.415  12.476  0.1664 -0.0209 -0.0397
  837POSM   C3A 9819   5.187  29.398  12.596 -0.0784  0.1620  0.0639
  837POSM   C1B 9820   4.074  28.922  12.701  0.1153 -0.0821  0.0841
  837POSM   D2B 9821   4.202  28.855  12.255 -0.4455 -0.2139  0.1219
  837POSM   C3B 9822   3.999  28.993  11.869  0.0344  0.2140 -0.4082
  837POSM   C4B 9823   3.749  29.155  11.494 -0.1850 -0.4667 -0.0606
  838DOPC   NC3 9824   0.507  23.161  13.583  0.4141 -0.0412 -0.1188
  838DOPC   PO4 9825   0.872  22.960  13.557 -0.0508  0.1197 -0.1894
  838DOPC   GL1 9826   0.920  23.302  13.463 -0.4900 -0.0702  0.0906
  838DOPC   GL2 9827   1.102  23.281  13.275  0.0288 -0.2245  0.0154
  838DOPC   C1A 9828   0.675  23.439  13.082  0.0722  0.2110  0.4205
  838DOPC   D2A 9829   0.415  23.453  12.672 -0.1048  0.0973  0.0447
  838DOPC   C3A 9830   0.589  23.588  12.275 -0.0918  0.2480 -0.2982
  838DOPC   C4A 9831   0.796  23.491  11.824  0.3061 -0.0112 -0.5525
  838DOPC   C1B 9832   1.260  23.162  12.890  0.1791  0.0387 -0.0443
  838DOPC   D2B 9833   1.373  22.809  12.591 -0.0491  0.1271 -0.2554
  838DOPC   C3B 9834   1.474  22.672  12.167 -0.1003  0.0188  0.3049
  838DOPC   C4B 9835   1.717  22.466  11.797 -0.0265  0.0359  0.1140
  839DOPS   CNO 9836   7.949  26.816  13.423  0.1077 -0.1464 -0.1513
  839DOPS   PO4 9837   8.244  26.662  13.511 -0.4154  0.1572  0.2628
  839DOPS   GL1 9838   8.239  26.719  13.052 -0.2160 -0.2559  0.1275
  839DOPS   GL2 9839   8.094  26.975  12.896  0.0261  0.0356  0.1161
  839DOPS   C1A 9840   8.381  26.547  12.643 -0.2315  0.0736 -0.0615
  839DOPS   D2A 9841   8.644  26.655  12.279 -0.0606 -0.2634  0.2442
  839DOPS   C3A 9842   8.823  26.408  11.868  0.2585  0.1506  0.0211
  839DOPS   C4A 9843   8.865  26.095  11.507 -0.1282 -0.2426  0.2499
  839DOPS   C1B 9844   7.903  26.716  12.617  0.1179  0.1246  0.0818
  839DOPS   D2B 9845   7.564  26.898  12.322 -0.1130  0.2212  0.0641
  839DOPS   C3B 9846   7.341  26.594  11.985  0.2021  0.2225 -0.0693
  839DOPS   C4B 9847   7.249  26.148  11.724 -0.1987 -0.3913  0.2050
  840DOPE   NH3 9848   7.401  29.935  13.041  0.0765  0.6613 -0.3623
  840DOPE   PO4 9849   7.641  29.765  12.902  0.1711  0.2013  0.2111
  840DOPE   GL1 9850   7.504  29.815  12.521  0.1260  0.0841  0.1355
  840DOPE   GL2 9851   7.243  29.777  12.505 -0.1399  0.1158  0.0248
  840DOPE   C1A 9852   7.338  30.233  12.305  0.0389 -0.1809  0.1429
  840DOPE   D2A 9853   7.019  30.543  12.227  0.0073 -0.0051  0.3730
  840DOPE   C3A 9854   6.755  30.855  11.926  0.1956 -0.0257  0.2892
  840DOPE   C4A 9855   6.517  30.968  11.575  0.1310  0.0895  0.1487
  840DOPE   C1B 9856   7.350  29.730  12.113 -0.1824 -0.0573 -0.1300
  840DOPE   D2B 9857   7.575  29.849  11.730  0.0056  0.1142 -0.0440
  840DOPE   C3B 9858   7.310  29.796  11.342 -0.0092  0.0096  0.3213
  840DOPE   C4B 9859   6.976  30.039  11.144  0.0747 -0.2469 -0.0839
  841POSM   NC3 9860   9.923  26.973  13.279  0.0480 -0.1718  0.1782
  841POSM   PO4 9861  10.266  27.063  13.110  0.0099  0.0362  0.2356
  841POSM   AM1 9862  10.370  27.069  12.812  0.0202  0.2829 -0.1604
  841POSM   AM2 9863  10.567  27.213  12.659  0.1842 -0.0693 -0.0321
  841POSM   T1A 9864  10.229  27.012  12.361 -0.1369  0.0008  0.0620
  841POSM   C2A 9865  10.316  27.203  11.964  0.1054  0.0997 -0.2187
  841POSM   C3A 9866  10.223  27.352  11.526 -0.2124 -0.1811 -0.3145
  841POSM   C1B 9867  10.656  27.202  12.334 -0.0513 -0.1251  0.2779
  841POSM   D2B 9868  10.782  27.160  11.894 -0.1551 -0.0464 -0.0463
  841POSM   C3B 9869  10.625  26.921  11.582  0.3319  0.4793  0.0899
  841POSM   C4B 9870  10.359  26.505  11.503  0.1706  0.0864  0.2852
  842POSM   NC3 9871  10.403  24.682  13.696 -0.1798 -0.0409 -0.0037
  842POSM   PO4 9872  10.602  24.603  13.367  0.2134 -0.0903 -0.0823
  842POSM   AM1 9873  10.637  24.533  13.068 -0.2152  0.0440  0.2161
  842POSM   AM2 9874  10.459  24.482  12.874  0.1394 -0.0769  0.1795
  842POSM   T1A 9875  10.832  24.745  12.678 -0.0457  0.2910  0.0705
  842POSM   C2A 9876  10.633  24.776  12.254  0.2388 -0.0138 -0.1131
  842POSM   C3A 9877  10.380  24.931  11.901 -0.3723 -0.0253  0.1050
  842POSM   C1B 9878  10.367  24.476  12.550 -0.3101  0.3635  0.1206
  842POSM   D2B 9879  10.438  24.246  12.179  0.2473 -0.2311 -0.3017
  842POSM   C3B 9880  10.743  24.268  11.803 -0.0263  0.0624  0.0186
  842POSM   C4B 9881  10.767  24.411  11.377  0.0583  0.0271  0.1034
  843DOPC   NC3 9882   1.241  33.252  13.660 -0.1124  0.0446 -0.0518
  843DOPC   PO4 9883   1.223  32.899  13.858 -0.1292 -0.0634  0.1569
  843DOPC   GL1 9884   1.072  32.853  13.482  0.0982  0.1895 -0.2914
  843DOPC   GL2 9885   1.217  32.690  13.377 -0.0815  0.2140  0.2746
  843DOPC   C1A 9886   0.783  33.120  13.227 -0.4137  0.0905  0.2495
  843DOPC   D2A 9887   0.567  33.392  13.047  0.0695  0.0121 -0.2377
  843DOPC   C3A 9888   0.346  33.693  12.789  0.0474  0.1602 -0.0438
  843DOPC   C4A 9889   0.240  33.926  12.368  0.2074 -0.1843  0.1387
  843DOPC   C1B 9890   1.174  32.790  12.904 -0.0327  0.1117 -0.0097
  843DOPC   D2B 9891   1.359  32.902  12.490  0.1097  0.2622  0.0864
  843DOPC   C3B 9892   1.419  32.968  12.038  0.0842  0.5618  0.0296
  843DOPC   C4B 9893   1.292  33.323  11.821  0.0167  0.0110  0.1688
  844DOPC   NC3 9894  34.530  26.094  13.220 -0.0039 -0.4351 -0.3551
  844DOPC   PO4 9895  34.869  26.298  13.104 -0.5650  0.0980  0.0600
  844DOPC   GL1 9896  34.891  26.376  12.721 -0.1776 -0.0230  0.2434
  844DOPC   GL2 9897  34.604  26.352  12.645  0.1752  0.6730  0.0167
  844DOPC   C1A 9898  34.942  26.106  12.354 -0.3023 -0.0884  0.2011
  844DOPC   D2A 9899  34.774  25.805  12.052  0.3326  0.0228  0.1004
  844DOPC   C3A 9900  34.606  25.853  11.603 -0.1714  0.2567 -0.0796
  844DOPC   C4A 9901  34.382  26.001  11.222  0.2076 -0.2229 -0.3289
  844DOPC   C1B 9902  34.706  26.535  12.300  0.0174  0.2601  0.0121
  844DOPC   D2B 9903  34.624  26.729  11.895 -0.0124 -0.0816  0.0834
  844DOPC   C3B 9904  34.355  26.899  11.556  0.0236  0.4328  0.2325
  844DOPC   C4B 9905  34.018  27.005  11.267 -0.1045 -0.0568  0.0851
  845POSM   NC3 9906   3.292  24.243  13.283 -0.0278  0.1107 -0.0747
  845POSM   PO4 9907   2.928  24.286  13.478 -0.1468 -0.4987 -0.0474
  845POSM   AM1 9908   2.784  24.249  13.168  0.1448 -0.1607 -0.0652
  845POSM   AM2 9909   2.579  24.382  13.038  0.0715  0.3395  0.0497
  845POSM   T1A 9910   2.871  23.996  12.741 -0.3235  0.2948  0.2128
  845POSM   C2A 9911   2.821  23.857  12.307 -0.2537  0.0665  0.2172
  845POSM   C3A 9912   3.080  23.946  11.911 -0.0794  0.0901 -0.0264
  845POSM   C1B 9913   2.501  24.430  12.679 -0.0476  0.1565 -0.1431
  845POSM   D2B 9914   2.287  24.289  12.267 -0.0374 -0.0024 -0.2242
  845POSM   C3B 9915   1.919  24.494  12.105 -0.0094 -0.0983 -0.1058
  845POSM   C4B 9916   1.687  24.647  11.765  0.0874  0.1232 -0.0606
  846POSM   NC3 9917  10.221  23.228  14.103  0.0344  0.0421 -0.2132
  846POSM   PO4 9918  10.227  23.390  13.785 -0.0161 -0.0137  0.1953
  846POSM   AM1 9919  10.294  23.362  13.459  0.5386  0.1878 -0.1560
  846POSM   AM2 9920  10.456  23.226  13.289 -0.1491 -0.2217  0.1031
  846POSM   T1A 9921  10.350  23.660  13.051  0.2330  0.1449  0.0365
  846POSM   C2A 9922  10.571  23.926  12.825 -0.0776  0.1094 -0.1100
  846POSM   C3A 9923  10.867  24.114  12.545  0.0603 -0.1159 -0.0847
  846POSM   C1B 9924  10.665  23.273  12.986 -0.1894  0.0129 -0.0647
  846POSM   D2B 9925  10.930  23.540  12.718 -0.1392 -0.3128  0.2970
  846POSM   C3B 9926  11.327  23.765  12.686  0.2754  0.0302  0.2011
  846POSM   C4B 9927  11.668  23.517  12.515  0.1204  0.1796 -0.3975
  847DOPE   NH3 9928   9.338  31.705  13.851  0.0571 -0.1120 -0.2067
  847DOPE   PO4 9929   9.629  31.780  13.944  0.0578  0.0437  0.0902
  847DOPE   GL1 9930   9.824  31.853  13.618 -0.0107 -0.1484 -0.0147
  847DOPE   GL2 9931   9.691  31.737  13.396 -0.0251 -0.4123 -0.1681
  847DOPE   C1A 9932  10.157  32.169  13.438 -0.0486 -0.2738 -0.3199
  847DOPE   D2A 9933  10.512  32.374  13.293  0.2760  0.0433 -0.0196
  847DOPE   C3A 9934  10.612  32.482  12.851  0.1007 -0.1303 -0.0455
  847DOPE   C4A 9935  10.856  32.664  12.482 -0.1117 -0.0024 -0.0867
  847DOPE   C1B 9936   9.749  31.855  12.940  0.3528  0.3288 -0.2939
  847DOPE   D2B 9937   9.981  32.087  12.682 -0.2171  0.1390  0.0538
  847DOPE   C3B 9938   9.755  32.109  12.278 -0.0775  0.1765 -0.1332
  847DOPE   C4B 9939   9.641  31.909  11.902 -0.1921 -0.2973  0.0600
  848DOPC   NC3 9940   7.135  31.411  13.212  0.1256  0.4577  0.2350
  848DOPC   PO4 9941   7.223  31.725  13.432  0.1439 -0.3420 -0.1226
  848DOPC   GL1 9942   7.178  31.835  13.118 -0.2631 -0.1167  0.0026
  848DOPC   GL2 9943   6.988  31.881  12.967  0.1298 -0.2071 -0.0722
  848DOPC   C1A 9944   7.428  32.139  12.914 -0.0081  0.2368  0.0861
  848DOPC   D2A 9945   7.702  32.304  12.557  0.1850 -0.1230  0.4391
  848DOPC   C3A 9946   7.680  32.275  12.100  0.1375 -0.1503 -0.0478
  848DOPC   C4A 9947   7.962  32.380  11.737  0.0170 -0.1810  0.2056
  848DOPC   C1B 9948   6.794  31.983  12.554 -0.0295 -0.0696  0.0291
  848DOPC   D2B 9949   6.545  32.287  12.362 -0.3196  0.0848  0.2296
  848DOPC   C3B 9950   6.535  32.154  11.937 -0.0698 -0.0763 -0.1281
  848DOPC   C4B 9951   6.571  31.709  11.797 -0.1819  0.2482  0.0829
  849DOPE   NH3 9952   6.862  28.149  13.337  0.3960 -0.5247  0.0794
  849DOPE   PO4 9953   6.817  27.815  13.265  0.0045  0.1403  0.0953
  849DOPE   GL1 9954   6.727  28.033  12.881  0.2022  0.0177  0.0024
  849DOPE   GL2 9955   6.549  27.842  12.805 -0.1940 -0.1385 -0.1012
  849DOPE   C1A 9956   6.643  28.067  12.396 -0.0106  0.0631  0.2379
  849DOPE   D2A 9957   6.622  28.291  11.988  0.0014 -0.0093  0.2138
  849DOPE   C3A 9958   6.711  28.339  11.515 -0.0653  0.1304  0.1668
  849DOPE   C4A 9959   6.936  28.442  11.096 -0.2120  0.2159  0.0865
  849DOPE   C1B 9960   6.341  27.520  12.607  0.0256  0.0531  0.0328
  849DOPE   D2B 9961   6.111  27.296  12.284  0.0560  0.3532  0.1231
  849DOPE   C3B 9962   6.364  27.338  11.897 -0.0203  0.2310  0.2026
  849DOPE   C4B 9963   6.544  27.321  11.495  0.0370 -0.2179  0.0103
  850DOPE   NH3 9964  11.691  26.596  13.512 -0.0403 -0.0782 -0.1411
  850DOPE   PO4 9965  11.894  26.743  13.642  0.0695 -0.1990 -0.0410
  850DOPE   GL1 9966  12.162  26.543  13.451  0.1425 -0.0448  0.2395
  850DOPE   GL2 9967  12.163  26.610  13.164  0.0255  0.1116 -0.2482
  850DOPE   C1A 9968  12.603  26.446  13.290 -0.0777  0.3737  0.1932
  850DOPE   D2A 9969  12.959  26.647  13.093 -0.2393 -0.1206  0.2205
  850DOPE   C3A 9970  13.318  26.594  12.837 -0.0455 -0.0926 -0.1556
  850DOPE   C4A 9971  13.619  26.767  12.525  0.0429 -0.1657 -0.0492
  850DOPE   C1B 9972  12.368  26.536  12.754 -0.1068 -0.2035 -0.0964
  850DOPE   D2B 9973  12.782  26.349  12.621 -0.0170 -0.2176 -0.1677
  850DOPE   C3B 9974  12.698  25.953  12.477  0.0900  0.0043 -0.1056
  850DOPE   C4B 9975  12.227  25.813  12.339 -0.0467 -0.5432 -0.0369
  851DOPE   NH3 9976   7.736  27.962  12.618  0.1408 -0.0650 -0.3119
  851DOPE   PO4 9977   8.017  27.793  12.712 -0.0474 -0.2557 -0.1290
  851DOPE   GL1 9978   7.978  27.651  12.352  0.0646  0.2588 -0.0228
  851DOPE   GL2 9979   7.732  27.477  12.368  0.1320  0.1187  0.3360
  851DOPE   C1A 9980   8.118  27.485  11.957 -0.0951 -0.2117 -0.2675
  851DOPE   D2A 9981   8.095  27.233  11.607 -0.2600 -0.0465 -0.0508
  851DOPE   C3A 9982   8.100  27.046  11.192 -0.1630 -0.2878 -0.1036
  851DOPE   C4A 9983   7.681  26.896  10.976  0.2264 -0.1404  0.1930
  851DOPE   C1B 9984   7.648  27.311  11.931  0.0176  0.2377  0.0727
  851DOPE   D2B 9985   7.428  26.978  11.724 -0.0288  0.0894 -0.2387
  851DOPE   C3B 9986   7.653  26.768  11.433 -0.0484  0.0763 -0.1463
  851DOPE   C4B 9987   7.743  26.460  11.130 -0.1752 -0.1407 -0.0022
  852DOPS   CNO 9988  34.463  28.080  13.253 -0.4068 -0.0533  0.3325
  852DOPS   PO4 9989  34.160  28.218  13.057 -0.3964 -0.1122 -0.0936
  852DOPS   GL1 9990  34.146  28.371  12.758  0.0184  0.3573  0.2384
  852DOPS   GL2 9991  34.249  28.172  12.527  0.1371 -0.0996  0.1198
  852DOPS   C1A 9992  34.282  28.771  12.586 -0.1417 -0.4105 -0.1738
  852DOPS   D2A 9993  34.215  28.927  12.182  0.0566 -0.1459 -0.0009
  852DOPS   C3A 9994  34.264  28.841  11.729  0.0801  0.0860  0.1041
  852DOPS   C4A 9995  34.325  28.923  11.308 -0.1273  0.1917 -0.2050
  852DOPS   C1B 9996  34.101  27.908  12.202 -0.0697 -0.4702  0.1103
  852DOPS   D2B 9997  33.839  27.626  11.930  0.0491  0.1731 -0.0746
  852DOPS   C3B 9998  33.713  27.584  11.474  0.0471 -0.1110  0.1843
  852DOPS   C4B 9999  33.714  27.380  11.093 -0.1402  0.0919 -0.1097
  853DOPE   NH310000   6.253  28.554  13.039 -0.1134  0.0428  0.2922
  853DOPE   PO410001   6.374  28.258  13.201  0.1999 -0.2917 -0.1358
  853DOPE   GL110002   6.385  28.271  12.748 -0.1059  0.1476 -0.2531
  853DOPE   GL210003   6.154  28.307  12.536  0.1689  0.3042 -0.2272
  853DOPE   C1A10004   6.518  28.586  12.418  0.1173 -0.2941  0.0589
  853DOPE   D2A10005   6.366  28.744  12.086 -0.2501  0.0546  0.0421
  853DOPE   C3A10006   6.198  28.561  11.682 -0.0293  0.1366  0.2038
  853DOPE   C4A10007   6.398  28.609  11.233 -0.0282  0.2748 -0.1300
  853DOPE   C1B10008   6.033  28.753  12.467  0.1455 -0.1472  0.1161
  853DOPE   D2B10009   5.942  29.142  12.245 -0.3714 -0.0197  0.0384
  853DOPE   C3B10010   5.818  29.298  11.806  0.2028 -0.1830  0.0389
  853DOPE   C4B10011   5.616  29.222  11.375 -0.0529 -0.2150  0.2253
  854DOPE   NH310012   2.194  27.048  13.028 -0.0444 -0.0280 -0.1603
  854DOPE   PO410013   1.903  26.927  13.131 -0.0890 -0.0925 -0.2802
  854DOPE   GL110014   1.867  26.897  12.763  0.0151  0.0671 -0.2196
  854DOPE   GL210015   1.766  27.042  12.639  0.0711  0.1927 -0.1572
  854DOPE   C1A10016   1.752  26.557  12.421  0.0784  0.0026  0.1706
  854DOPE   D2A10017   1.411  26.459  12.099 -0.2893 -0.1075 -0.0963
  854DOPE   C3A10018   1.233  26.838  11.840 -0.0687 -0.2082 -0.0353
  854DOPE   C4A10019   1.423  27.121  11.596 -0.0823 -0.2585  0.0590
  854DOPE   C1B10020   2.114  26.824  12.323 -0.1574  0.2216  0.0643
  854DOPE   D2B10021   2.469  27.011  12.041  0.0487 -0.2755  0.0214
  854DOPE   C3B10022   2.373  27.357  11.722 -0.2084 -0.0346 -0.0349
  854DOPE   C4B10023   2.226  27.487  11.283  0.2227  0.2117  0.0699
  855POSM   NC310024   0.057  24.666  13.576  0.1203 -0.0466  0.0219
  855POSM   PO410025   0.183  24.422  13.296  0.0048 -0.3137 -0.0711
  855POSM   AM110026   0.383  24.505  13.025 -0.1328  0.4613  0.3395
  855POSM   AM210027   0.471  24.407  12.804  0.0901  0.2359 -0.1793
  855POSM   T1A10028   0.737  24.811  12.726 -0.1734 -0.2248  0.0692
  855POSM   C2A10029   1.079  25.055  12.495 -0.5417  0.1541 -0.1196
  855POSM   C3A10030   1.389  25.246  12.194  0.4190 -0.1091  0.0331
  855POSM   C1B10031   0.384  24.377  12.474  0.1867 -0.0677  0.0828
  855POSM   D2B10032   0.400  24.078  12.127 -0.2638  0.0199 -0.1947
  855POSM   C3B10033   0.283  23.719  11.906  0.0268  0.0629 -0.2802
  855POSM   C4B10034   0.175  23.321  11.862 -0.3647  0.1648 -0.0009
  856POSM   NC310035   3.680  25.284  13.651  0.1814 -0.0708  0.0349
  856POSM   PO410036   3.697  24.890  13.631 -0.0644  0.1468 -0.2501
  856POSM   AM110037   4.006  24.961  13.486 -0.1647 -0.2974  0.2731
  856POSM   AM210038   4.125  24.961  13.210 -0.0979 -0.2588  0.2505
  856POSM   T1A10039   4.482  24.897  13.494 -0.1956  0.0515  0.1937
  856POSM   C2A10040   4.621  24.639  13.155 -0.1364  0.0300  0.0474
  856POSM   C3A10041   4.655  24.320  12.869 -0.3536 -0.0865  0.0003
  856POSM   C1B10042   4.097  25.122  12.902 -0.0088  0.0598 -0.1389
  856POSM   D2B10043   4.057  25.104  12.434 -0.1680 -0.1217  0.1577
  856POSM   C3B10044   3.667  25.038  12.201  0.1517 -0.0166 -0.0973
  856POSM   C4B10045   3.247  25.271  12.118 -0.1750  0.2067 -0.3215
  857DOPC   NC310046   5.381  27.726  12.788 -0.0905 -0.0173 -0.2334
  857DOPC   PO410047   5.547  28.060  12.905  0.2898 -0.0381 -0.3915
  857DOPC   GL110048   5.567  28.221  12.554 -0.3384  0.0322 -0.0825
  857DOPC   GL210049   5.460  27.986  12.356 -0.1698  0.2071  0.0038
  857DOPC   C1A10050   5.690  28.486  12.222  0.1245 -0.1550  0.2725
  857DOPC   D2A10051   5.807  28.776  11.907  0.1789 -0.2068 -0.0477
  857DOPC   C3A10052   5.459  28.619  11.685  0.3241  0.1545  0.2300
  857DOPC   C4A10053   5.256  28.357  11.402 -0.0112 -0.0496 -0.0839
  857DOPC   C1B10054   5.922  27.966  12.308 -0.0094  0.0224 -0.1746
  857DOPC   D2B10055   6.277  27.780  12.139 -0.1452  0.3883  0.1657
  857DOPC   C3B10056   6.545  27.800  11.812 -0.1220  0.1987 -0.0249
  857DOPC   C4B10057   6.787  27.806  11.413 -0.2119  0.0602  0.0548
  858DOPC   NC310058   3.469  31.871  13.548  0.2282 -0.0758 -0.1892
  858DOPC   PO410059   3.094  31.963  13.576 -0.3302 -0.0130  0.0452
  858DOPC   GL110060   2.970  31.988  13.253 -0.2339  0.1117  0.1429
  858DOPC   GL210061   3.082  32.134  12.953 -0.3057 -0.0536  0.1571
  858DOPC   C1A10062   2.582  31.900  12.986 -0.0032  0.1383 -0.0527
  858DOPC   D2A10063   2.190  31.867  12.726  0.0536  0.1879 -0.1066
  858DOPC   C3A10064   2.096  31.676  12.274  0.3956  0.2858 -0.0471
  858DOPC   C4A10065   2.164  31.579  11.861  0.1943 -0.0029 -0.1852
  858DOPC   C1B10066   3.344  32.539  12.957  0.0277 -0.0637  0.0296
  858DOPC   D2B10067   3.325  32.872  12.602 -0.0334 -0.0992 -0.0963
  858DOPC   C3B10068   3.305  32.624  12.213  0.1189 -0.1679 -0.0408
  858DOPC   C4B10069   3.091  32.497  11.805  0.0097 -0.1342 -0.0047
  859POSM   NC310070   5.174  30.097  13.023 -0.2846  0.2328  0.0293
  859POSM   PO410071   5.291  30.383  13.243  0.0901 -0.0327  0.1821
  859POSM   AM110072   5.425  30.466  12.971  0.0962 -0.1671  0.2836
  859POSM   AM210073   5.377  30.650  12.759 -0.0052 -0.2228  0.2767
  859POSM   T1A10074   5.693  30.348  12.527 -0.0142  0.2811 -0.0375
  859POSM   C2A10075   5.604  30.044  12.190 -0.1029  0.1334  0.0817
  859POSM   C3A10076   5.932  29.713  12.033  0.1333 -0.1429 -0.0341
  859POSM   C1B10077   5.274  30.529  12.508  0.0343 -0.4859  0.1172
  859POSM   D2B10078   5.155  30.330  12.078  0.2128 -0.1290  0.0063
  859POSM   C3B10079   4.916  30.496  11.690 -0.4151  0.0409  0.0736
  859POSM   C4B10080   4.699  30.481  11.317  0.1250 -0.0686 -0.4537
  860DOPC   NC310081   7.861  23.911  12.962  0.2757 -0.0462  0.0032
  860DOPC   PO410082   8.046  23.868  13.326  0.2726  0.5156 -0.0379
  860DOPC   GL110083   8.322  23.814  12.974  0.2624 -0.0711 -0.6614
  860DOPC   GL210084   8.452  24.024  12.750  0.0892 -0.2011 -0.1133
  860DOPC   C1A10085   8.595  23.536  12.689  0.1777  0.0010  0.1048
  860DOPC   D2A10086   8.503  23.420  12.237  0.1095 -0.1818 -0.1031
  860DOPC   C3A10087   8.210  23.509  11.885  0.2209  0.3021 -0.0596
  860DOPC   C4A10088   8.228  23.291  11.500 -0.0527 -0.0411 -0.0717
  860DOPC   C1B10089   8.311  24.256  12.381 -0.0018 -0.3398 -0.0389
  860DOPC   D2B10090   8.122  23.964  12.109  0.2825  0.2537  0.1235
  860DOPC   C3B10091   8.343  23.960  11.709 -0.3222 -0.1490 -0.2154
  860DOPC   C4B10092   8.527  23.732  11.321  0.1056  0.1447 -0.1146
  861POSM   NC310093   0.288  33.020  13.272  0.2598  0.1896  0.3112
  861POSM   PO410094  -0.117  33.118  13.194  0.0621  0.0656  0.0434
  861POSM   AM110095   0.019  33.153  12.910  0.0830 -0.0338 -0.2793
  861POSM   AM210096   0.038  32.925  12.747 -0.0032 -0.0937 -0.0651
  861POSM   T1A10097   0.265  33.318  12.519 -0.0515 -0.0601  0.2957
  861POSM   C2A10098   0.372  33.209  12.059  0.1186  0.1618  0.2858
  861POSM   C3A10099   0.066  33.318  11.694  0.2626  0.5108 -0.0742
  861POSM   C1B10100  -0.110  32.721  12.515 -0.1363  0.1207 -0.1212
  861POSM   D2B10101  -0.145  32.284  12.253 -0.2789  0.2579 -0.0679
  861POSM   C3B10102  -0.382  32.341  11.891 -0.1688  0.1260 -0.1691
  861POSM   C4B10103  -0.640  32.190  11.536 -0.0581 -0.1791 -0.1358
  862DOPC   NC310104   0.677  28.450  13.430 -0.0781  0.2309 -0.4269
  862DOPC   PO410105   0.931  28.428  13.162  0.1142 -0.2203  0.1863
  862DOPC   GL110106   1.035  28.230  12.745  0.1027 -0.0386 -0.1396
  862DOPC   GL210107   0.979  28.409  12.532 -0.0033  0.1203 -0.1399
  862DOPC   C1A10108   1.488  28.184  12.524 -0.1975 -0.1419 -0.0826
  862DOPC   D2A10109   1.870  27.956  12.371  0.1862  0.2772 -0.1411
  862DOPC   C3A10110   2.282  27.893  12.508  0.0774 -0.1198 -0.0674
  862DOPC   C4A10111   2.677  27.652  12.557  0.0348 -0.0015 -0.2930
  862DOPC   C1B10112   1.222  28.399  12.134 -0.2215 -0.2131 -0.0593
  862DOPC   D2B10113   1.081  28.576  11.705  0.0139 -0.2967  0.1249
  862DOPC   C3B10114   1.271  28.396  11.256  0.3288 -0.0920 -0.0590
  862DOPC   C4B10115   1.495  28.008  11.068  0.1376 -0.1751 -0.2872
  863POSM   NC310116  34.519  33.847  13.561  0.1178  0.0190 -0.2197
  863POSM   PO410117  34.296  33.620  13.301 -0.1636  0.1053 -0.0087
  863POSM   AM110118  34.319  33.516  13.020  0.0937  0.3275  0.0994
  863POSM   AM210119  34.156  33.372  12.825 -0.0761  0.0529  0.1492
  863POSM   T1A10120  34.550  33.611  12.563 -0.2598 -0.0528  0.2963
  863POSM   C2A10121  34.681  33.631  12.135 -0.0217  0.1907  0.2950
  863POSM   C3A10122  35.041  33.699  11.832  0.1427 -0.2387 -0.1648
  863POSM   C1B10123  34.314  33.196  12.565 -0.0131 -0.2516 -0.0987
  863POSM   D2B10124  34.593  33.158  12.252  0.1650  0.0819  0.0869
  863POSM   C3B10125  34.699  32.873  11.904 -0.0026 -0.1593 -0.1364
  863POSM   C4B10126  34.817  32.590  11.588 -0.0125 -0.2014 -0.0240
  864DOPE   NH310127   3.582  30.411  13.349  0.0627 -0.1309 -0.1130
  864DOPE   PO410128   3.795  30.152  13.361  0.0227 -0.2052 -0.1641
  864DOPE   GL110129   3.719  29.970  13.123 -0.2171  0.1684 -0.2084
  864DOPE   GL210130   3.800  29.678  13.244 -0.1371  0.2213  0.2009
  864DOPE   C1A10131   3.803  30.021  12.617 -0.0790  0.1277  0.1455
  864DOPE   D2A10132   3.827  29.956  12.208 -0.2011 -0.3189 -0.2041
  864DOPE   C3A10133   4.207  29.998  11.925  0.1100 -0.1718 -0.1628
  864DOPE   C4A10134   4.552  29.754  11.888  0.0230 -0.0024 -0.0577
  864DOPE   C1B10135   3.846  29.521  12.810  0.0210  0.0365  0.2317
  864DOPE   D2B10136   4.094  29.640  12.425  0.2646  0.2848  0.0331
  864DOPE   C3B10137   4.272  29.356  12.173 -0.0564 -0.1921 -0.0824
  864DOPE   C4B10138   4.525  29.210  11.835  0.0115 -0.1078 -0.4401
  865DOPC   NC310139   6.644  22.929  13.274  0.1736 -0.0196  0.1023
  865DOPC   PO410140   6.544  22.559  13.324 -0.1200  0.0177 -0.0858
  865DOPC   GL110141   6.478  22.546  12.977 -0.0678 -0.0331 -0.2755
  865DOPC   GL210142   6.382  22.324  12.824 -0.0526 -0.0580  0.1085
  865DOPC   C1A10143   6.793  22.615  12.605 -0.1505 -0.1105 -0.1220
  865DOPC   D2A10144   7.154  22.683  12.359  0.1314  0.0168  0.1830
  865DOPC   C3A10145   7.365  22.543  11.958  0.0455  0.1142  0.3780
  865DOPC   C4A10146   7.704  22.478  11.663 -0.2640 -0.0727  0.0230
  865DOPC   C1B10147   6.342  22.356  12.369 -0.1161 -0.3056  0.2917
  865DOPC   D2B10148   6.105  22.163  12.049  0.1508 -0.0435 -0.0153
  865DOPC   C3B10149   5.975  21.709  12.133 -0.3114  0.1330 -0.0286
  865DOPC   C4B10150   5.798  21.313  12.158  0.4720  0.0203 -0.1839
  866DOPC   NC310151   3.630  22.139  13.414 -0.0784  0.1368 -0.2523
  866DOPC   PO410152   3.314  22.012  13.585  0.1371 -0.0702 -0.1253
  866DOPC   GL110153   3.096  22.258  13.291  0.4172 -0.0022 -0.2491
  866DOPC   GL210154   2.978  22.016  13.212  0.2073 -0.2483 -0.1197
  866DOPC   C1A10155   3.060  22.515  12.928  0.2274 -0.2347  0.2208
  866DOPC   D2A10156   3.248  22.786  12.602 -0.1235 -0.0192  0.2241
  866DOPC   C3A10157   3.110  23.204  12.382  0.3361  0.1704  0.1476
  866DOPC   C4A10158   3.237  23.496  12.067 -0.0310  0.1660 -0.5549
  866DOPC   C1B10159   2.779  22.049  12.777 -0.1255 -0.2853 -0.0178
  866DOPC   D2B10160   2.755  21.912  12.331 -0.1278  0.0448  0.3607
  866DOPC   C3B10161   3.019  22.204  12.044 -0.3851  0.1096  0.0538
  866DOPC   C4B10162   3.357  22.450  11.868  0.0345  0.2417  0.1682
  867DOPC   NC310163   2.529  28.150  13.240 -0.0521 -0.0714 -0.0893
  867DOPC   PO410164   2.876  28.233  13.382 -0.0665  0.0687 -0.1427
  867DOPC   GL110165   3.015  28.135  12.948  0.0098 -0.3922 -0.2654
  867DOPC   GL210166   2.740  28.187  12.789  0.1164 -0.2192  0.5181
  867DOPC   C1A10167   3.336  28.029  12.630 -0.4350  0.2038 -0.1116
  867DOPC   D2A10168   3.258  27.833  12.207 -0.2139 -0.1761  0.1770
  867DOPC   C3A10169   3.220  27.980  11.770 -0.0066 -0.0781 -0.0624
  867DOPC   C4A10170   3.098  28.420  11.737 -0.2568  0.1275 -0.3380
  867DOPC   C1B10171   2.818  28.092  12.320 -0.1418 -0.0925 -0.0072
  867DOPC   D2B10172   2.693  28.261  11.940  0.1303 -0.0448  0.0133
  867DOPC   C3B10173   2.832  28.101  11.511  0.2871 -0.0892 -0.1857
  867DOPC   C4B10174   2.724  27.766  11.172  0.2264  0.5930  0.2813
  868DOPC   NC310175  11.710  28.353  13.169  0.0330 -0.0473 -0.0169
  868DOPC   PO410176  11.842  28.691  13.259  0.0504  0.3912 -0.1158
  868DOPC   GL110177  11.569  28.718  12.897  0.2039 -0.3076 -0.1735
  868DOPC   GL210178  11.806  28.815  12.785  0.2149  0.1162 -0.2127
  868DOPC   C1A10179  11.653  28.428  12.556  0.2934 -0.0383 -0.0812
  868DOPC   D2A10180  11.948  28.202  12.359  0.2712 -0.0142  0.0480
  868DOPC   C3A10181  11.948  28.049  11.935 -0.3924 -0.1224  0.0211
  868DOPC   C4A10182  11.869  27.952  11.496 -0.1729  0.2124 -0.3697
  868DOPC   C1B10183  12.036  28.753  12.398 -0.2984  0.1460 -0.1583
  868DOPC   D2B10184  12.145  28.578  11.980 -0.3022 -0.1534  0.0296
  868DOPC   C3B10185  12.226  28.772  11.569  0.2643  0.1420  0.3785
  868DOPC   C4B10186  12.327  29.161  11.374 -0.1000  0.0884  0.3970
  869DOPS   CNO10187   7.663  28.296  12.987  0.0675  0.2393  0.1559
  869DOPS   PO410188   7.433  28.413  12.708 -0.1100  0.0222 -0.2860
  869DOPS   GL110189   7.340  28.146  12.423 -0.1281 -0.2736  0.1142
  869DOPS   GL210190   7.113  28.281  12.275  0.1860 -0.1770 -0.0469
  869DOPS   C1A10191   7.607  28.195  12.029  0.3142 -0.0185 -0.1212
  869DOPS   D2A10192   7.668  28.156  11.509  0.2355 -0.0030  0.0530
  869DOPS   C3A10193   7.270  28.043  11.236  0.2600  0.0735  0.3538
  869DOPS   C4A10194   7.204  28.163  10.771 -0.1242  0.4170 -0.1373
  869DOPS   C1B10195   6.965  28.618  12.022  0.0890  0.0515  0.2230
  869DOPS   D2B10196   6.694  28.822  11.737 -0.1307 -0.0653  0.5453
  869DOPS   C3B10197   6.362  29.054  11.522  0.1576  0.1199 -0.0526
  869DOPS   C4B10198   6.058  29.081  11.191 -0.2616  0.2499 -0.0851
  870DOPC   NC310199   3.506  26.803  13.332 -0.2374 -0.0616 -0.0325
  870DOPC   PO410200   3.166  26.622  13.303  0.1454 -0.2459  0.0019
  870DOPC   GL110201   3.076  26.642  12.854 -0.0359 -0.1274  0.2805
  870DOPC   GL210202   3.268  26.447  12.830 -0.2327 -0.2320 -0.1580
  870DOPC   C1A10203   2.890  26.697  12.448 -0.1538 -0.2040  0.1329
  870DOPC   D2A10204   2.844  26.677  11.956  0.1655  0.0305  0.0803
  870DOPC   C3A10205   2.669  26.799  11.567  0.0193  0.0227 -0.1704
  870DOPC   C4A10206   2.714  27.184  11.330 -0.1215  0.1696 -0.4018
  870DOPC   C1B10207   3.327  26.424  12.376  0.0836  0.0731  0.3685
  870DOPC   D2B10208   3.387  26.690  11.987  0.2592  0.1470  0.3968
  870DOPC   C3B10209   3.177  26.595  11.575  0.0862  0.1946 -0.2010
  870DOPC   C4B10210   3.156  26.377  11.127 -0.5371  0.3056 -0.1570
  871DOPS   CNO10211   9.647  28.405  13.143 -0.1317  0.0600 -0.0365
  871DOPS   PO410212   9.756  28.375  12.807 -0.0748 -0.5493 -0.2450
  871DOPS   GL110213   9.668  28.119  12.542  0.4486  0.0006  0.0597
  871DOPS   GL210214   9.373  28.187  12.442  0.0989  0.1181 -0.0350
  871DOPS   C1A10215   9.886  28.078  12.135 -0.2716 -0.1136  0.0470
  871DOPS   D2A10216  10.132  27.821  11.836  0.2262 -0.0118 -0.1338
  871DOPS   C3A10217   9.971  27.929  11.423  0.1346  0.0066  0.0208
  871DOPS   C4A10218   9.817  28.032  11.017  0.1700 -0.1339 -0.2507
  871DOPS   C1B10219   9.148  28.065  12.047 -0.3873 -0.0930 -0.1958
  871DOPS   D2B10220   9.038  27.997  11.592  0.0233 -0.1066 -0.0134
  871DOPS   C3B10221   8.935  27.608  11.412 -0.1373  0.0733 -0.3268
  871DOPS   C4B10222   8.699  27.265  11.616  0.1350  0.1438  0.0983
  872POSM   NC310223  11.494  21.783  14.108  0.3390 -0.1680  0.0617
  872POSM   PO410224  11.453  21.452  13.891  0.1272 -0.0545  0.1894
  872POSM   AM110225  11.503  21.551  13.585  0.0684  0.1420 -0.0278
  872POSM   AM210226  11.729  21.668  13.439 -0.1778 -0.0851  0.0141
  872POSM   T1A10227  11.349  21.562  13.088  0.0700 -0.1237  0.0141
  872POSM   C2A10228  11.002  21.702  12.893  0.0244 -0.0453 -0.1017
  872POSM   C3A10229  10.774  21.874  12.485 -0.2036 -0.1796  0.1364
  872POSM   C1B10230  11.823  21.718  13.119 -0.0139  0.2266 -0.1788
  872POSM   D2B10231  12.097  21.775  12.737  0.2918  0.0624 -0.1364
  872POSM   C3B10232  12.043  21.795  12.312 -0.0842 -0.1162  0.0777
  872POSM   C4B10233  11.987  21.476  11.996 -0.0617  0.2682  0.2844
  873DOPS   CNO10234   2.830  25.596  14.184  0.1122 -0.0598 -0.0716
  873DOPS   PO410235   2.961  25.727  13.846 -0.0229 -0.1483 -0.0652
  873DOPS   GL110236   3.043  25.780  13.466  0.0305  0.0443 -0.0911
  873DOPS   GL210237   3.303  25.732  13.311  0.1135  0.1862 -0.2078
  873DOPS   C1A10238   2.855  25.759  13.034 -0.0509  0.1997 -0.0324
  873DOPS   D2A10239   2.628  25.490  12.707  0.1541  0.2463 -0.1762
  873DOPS   C3A10240   2.796  25.275  12.320  0.1852 -0.0026  0.1603
  873DOPS   C4A10241   2.833  25.016  11.958 -0.1539  0.0539  0.0937
  873DOPS   C1B10242   3.404  25.889  12.897 -0.0878  0.2101 -0.0188
  873DOPS   D2B10243   3.690  25.975  12.481 -0.1838 -0.1947 -0.1395
  873DOPS   C3B10244   4.110  26.065  12.321 -0.0993  0.1249 -0.4577
  873DOPS   C4B10245   4.530  26.047  12.141  0.2830  0.1329  0.0260
  874DOPS   CNO10246  33.054  27.044  13.392 -0.1892 -0.0043  0.1164
  874DOPS   PO410247  33.046  26.838  13.102  0.4930 -0.2329  0.2633
  874DOPS   GL110248  32.741  26.798  12.868 -0.1169 -0.1307 -0.0795
  874DOPS   GL210249  32.836  26.843  12.637  0.2733  0.1801 -0.4162
  874DOPS   C1A10250  32.500  26.470  12.602  0.0326 -0.2805 -0.1905
  874DOPS   D2A10251  32.441  26.068  12.412  0.0773 -0.1812 -0.3023
  874DOPS   C3A10252  32.112  26.046  12.004 -0.0788  0.1114 -0.2565
  874DOPS   C4A10253  31.837  25.762  11.688 -0.0916 -0.1470  0.3678
  874DOPS   C1B10254  33.236  26.671  12.441 -0.2421 -0.0843 -0.1489
  874DOPS   D2B10255  33.326  26.440  12.115 -0.1556  0.0310 -0.1460
  874DOPS   C3B10256  33.388  26.621  11.660 -0.0940  0.0244  0.0795
  874DOPS   C4B10257  33.539  26.980  11.402  0.1295  0.1719 -0.1909
  875DOPE   NH310258   2.777  29.250  13.219  0.2298  0.0212  0.1344
  875DOPE   PO410259   2.523  29.182  13.162 -0.3751 -0.1578  0.1310
  875DOPE   GL110260   2.529  28.991  12.816  0.0553  0.0657 -0.1061
  875DOPE   GL210261   2.274  28.965  12.771  0.1562  0.2687 -0.2073
  875DOPE   C1A10262   2.737  29.079  12.429 -0.1018 -0.0269  0.0396
  875DOPE   D2A10263   2.871  29.203  12.027  0.1764 -0.2203 -0.0027
  875DOPE   C3A10264   3.022  28.969  11.676  0.2703  0.2891 -0.1337
  875DOPE   C4A10265   3.449  28.780  11.587  0.1458 -0.1480  0.0092
  875DOPE   C1B10266   2.240  28.865  12.389 -0.0886 -0.3695  0.0895
  875DOPE   D2B10267   1.944  28.931  12.075 -0.0950 -0.0984  0.0118
  875DOPE   C3B10268   1.966  28.945  11.635 -0.0472 -0.0799  0.3256
  875DOPE   C4B10269   2.049  29.308  11.363  0.0777 -0.2155  0.3030
  876DOPE   NH310270   7.006  24.886  13.303 -0.1125  0.2999  0.0918
  876DOPE   PO410271   6.798  24.622  13.310 -0.2241  0.0200  0.0317
  876DOPE   GL110272   6.765  24.261  13.003  0.3475  0.1107 -0.1069
  876DOPE   GL210273   6.928  24.423  12.785 -0.0790 -0.1265 -0.1057
  876DOPE   C1A10274   6.722  24.006  12.604  0.1413  0.2139  0.3884
  876DOPE   D2A10275   6.746  23.806  12.151 -0.1920 -0.1173 -0.2323
  876DOPE   C3A10276   6.455  23.453  11.929  0.1845  0.1095  0.2562
  876DOPE   C4A10277   6.115  23.423  11.670 -0.0478 -0.3263  0.0183
  876DOPE   C1B10278   7.233  24.607  12.465 -0.0849  0.1168 -0.1976
  876DOPE   D2B10279   7.499  24.727  12.178 -0.1200 -0.4571 -0.0018
  876DOPE   C3B10280   7.459  24.374  11.867  0.3431  0.2887  0.3149
  876DOPE   C4B10281   7.765  24.014  11.752 -0.0938  0.0418  0.0207
  877DOPE   NH310282   8.704  29.550  12.651 -0.0695 -0.0341  0.0450
  877DOPE   PO410283   8.505  29.756  12.482  0.0998 -0.0935 -0.2663
  877DOPE   GL110284   8.612  29.677  12.100 -0.0584  0.0609 -0.1728
  877DOPE   GL210285   8.355  29.572  12.019  0.3314 -0.1071  0.2264
  877DOPE   C1A10286   8.637  29.903  11.716 -0.0058 -0.0158  0.1076
  877DOPE   D2A10287   8.728  30.128  11.336  0.2922 -0.1468  0.0172
  877DOPE   C3A10288   9.032  29.975  11.013 -0.3573  0.1851 -0.2082
  877DOPE   C4A10289   9.281  29.723  10.691 -0.1335  0.0951 -0.0517
  877DOPE   C1B10290   8.491  29.429  11.623 -0.0191  0.1826 -0.0077
  877DOPE   D2B10291   8.956  29.257  11.470 -0.0451 -0.0130  0.4451
  877DOPE   C3B10292   9.222  29.308  11.079  0.2234 -0.1013 -0.0151
  877DOPE   C4B10293   9.653  29.177  10.883 -0.1785 -0.0297  0.0846
  878DOPC   NC310294   2.099  27.816  13.293  0.0680 -0.0400 -0.0265
  878DOPC   PO410295   2.335  27.528  13.125 -0.0201  0.0978 -0.0435
  878DOPC   GL110296   2.210  27.400  12.697 -0.1268  0.0587  0.2017
  878DOPC   GL210297   1.928  27.532  12.764 -0.1091  0.0323  0.1172
  878DOPC   C1A10298   2.362  27.433  12.250 -0.1199  0.0035  0.2491
  878DOPC   D2A10299   2.431  27.856  12.049 -0.1555 -0.6361  0.0246
  878DOPC   C3A10300   2.382  27.840  11.581  0.1052 -0.4402  0.2186
  878DOPC   C4A10301   2.106  27.990  11.134  0.1958 -0.0809 -0.1295
  878DOPC   C1B10302   1.891  27.412  12.367  0.0225  0.0346  0.2044
  878DOPC   D2B10303   1.994  27.203  11.990  0.3135  0.1982 -0.1253
  878DOPC   C3B10304   1.845  27.382  11.606 -0.0528  0.2326  0.2125
  878DOPC   C4B10305   1.676  27.810  11.531 -0.2002  0.0154  0.0045
  879DOPC   NC310306  12.092  23.900  14.038 -0.3922 -0.2143 -0.3022
  879DOPC   PO410307  11.850  23.728  13.811  0.0412  0.0820  0.1461
  879DOPC   GL110308  12.079  23.670  13.543 -0.2032  0.0259 -0.1873
  879DOPC   GL210309  12.014  23.806  13.316  0.1074  0.0458  0.0921
  879DOPC   C1A10310  12.021  23.285  13.260 -0.1194 -0.0368  0.0300
  879DOPC   D2A10311  12.210  22.839  13.208 -0.3354 -0.3934 -0.5751
  879DOPC   C3A10312  12.108  22.683  12.798  0.0903  0.4895 -0.3564
  879DOPC   C4A10313  11.790  22.644  12.478  0.1702  0.3823 -0.0431
  879DOPC   C1B10314  12.067  23.590  12.904 -0.0687  0.0214  0.0750
  879DOPC   D2B10315  12.257  23.176  12.746 -0.0521 -0.1708 -0.1753
  879DOPC   C3B10316  12.324  23.217  12.289  0.0242  0.0222  0.2571
  879DOPC   C4B10317  12.466  23.113  11.851  0.0053 -0.0293 -0.1204
  880POSM   NC310318   2.465  31.135  13.737  0.2380 -0.2849 -0.1244
  880POSM   PO410319   2.599  30.817  13.586  0.2072 -0.0060  0.3367
  880POSM   AM110320   2.383  30.952  13.322 -0.1324 -0.0865 -0.0131
  880POSM   AM210321   2.471  31.018  13.045  0.2693  0.1507 -0.0281
  880POSM   T1A10322   2.028  30.792  12.988 -0.0481 -0.1190 -0.0893
  880POSM   C2A10323   1.758  30.849  12.611 -0.0012 -0.0008  0.3932
  880POSM   C3A10324   1.506  31.155  12.302 -0.2047 -0.1036  0.3754
  880POSM   C1B10325   2.480  30.919  12.733 -0.2609  0.1156 -0.1620
  880POSM   D2B10326   2.321  30.590  12.447  0.0321  0.3004 -0.3147
  880POSM   C3B10327   2.522  30.118  12.479 -0.1048  0.0658 -0.2487
  880POSM   C4B10328   2.835  29.790  12.425  0.1957  0.1706 -0.3364
  881POSM   NC310329   2.180  33.058  13.681  0.0440  0.2919  0.1967
  881POSM   PO410330   2.514  32.824  13.734 -0.0315  0.0059  0.2225
  881POSM   AM110331   2.507  32.800  13.419 -0.3324  0.1856 -0.0537
  881POSM   AM210332   2.631  32.816  13.199 -0.1047  0.2411  0.1517
  881POSM   T1A10333   2.268  32.808  12.950  0.0699  0.2330 -0.0225
  881POSM   C2A10334   2.458  32.753  12.514  0.0416  0.1110 -0.0916
  881POSM   C3A10335   2.753  32.627  12.178 -0.1902 -0.1491  0.1577
  881POSM   C1B10336   2.818  32.673  12.910 -0.0923 -0.2187 -0.2336
  881POSM   D2B10337   2.927  32.429  12.556  0.2837  0.0249  0.0676
  881POSM   C3B10338   2.787  32.017  12.571 -0.1220 -0.3428 -0.0139
  881POSM   C4B10339   2.565  31.577  12.556 -0.2728  0.0970 -0.1100
  882DOPE   NH310340   2.166  26.120  13.500  0.1073 -0.0534  0.1457
  882DOPE   PO410341   2.018  26.078  13.186 -0.0219  0.0378 -0.0324
  882DOPE   GL110342   1.968  25.895  12.848  0.0763 -0.0776  0.0567
  882DOPE   GL210343   2.044  26.151  12.675  0.0271 -0.2660  0.1327
  882DOPE   C1A10344   2.139  25.702  12.455 -0.0494  0.1727  0.1006
  882DOPE   D2A10345   2.177  25.830  12.005  0.3321  0.0826  0.0202
  882DOPE   C3A10346   2.530  26.034  11.852 -0.0719  0.2772  0.2956
  882DOPE   C4A10347   2.702  26.312  11.526  0.0511  0.0066 -0.0754
  882DOPE   C1B10348   2.142  26.277  12.304 -0.2090  0.1438 -0.2054
  882DOPE   D2B10349   2.373  26.447  11.985 -0.0403  0.0413  0.0143
  882DOPE   C3B10350   2.024  26.694  11.841  0.1344 -0.2712  0.0046
  882DOPE   C4B10351   1.691  26.664  11.632 -0.0511  0.2679 -0.3635
  883DOPE   NH310352  33.069  28.762  13.025  0.1419  0.0042 -0.0202
  883DOPE   PO410353  33.068  28.497  12.916  0.0706  0.0849  0.0052
  883DOPE   GL110354  32.971  28.444  12.560 -0.2591  0.1404 -0.1753
  883DOPE   GL210355  32.885  28.170  12.503 -0.0163  0.4437  0.0144
  883DOPE   C1A10356  33.164  28.719  12.231 -0.2426  0.1783  0.3018
  883DOPE   D2A10357  33.141  28.799  11.765 -0.0227  0.1056  0.0295
  883DOPE   C3A10358  33.479  28.708  11.479 -0.0202  0.0066  0.1916
  883DOPE   C4A10359  33.923  28.598  11.393  0.2775  0.1773  0.2308
  883DOPE   C1B10360  33.259  28.245  12.277  0.1299 -0.1391  0.1846
  883DOPE   D2B10361  33.656  28.104  12.048 -0.1440 -0.0615  0.0242
  883DOPE   C3B10362  33.729  28.052  11.563  0.0359 -0.1792 -0.2142
  883DOPE   C4B10363  33.819  27.911  11.129  0.0437  0.1389 -0.1388
  884DOPE   NH310364   7.944  34.191  13.946  0.2489 -0.1328  0.0683
  884DOPE   PO410365   7.646  34.105  14.018  0.1805 -0.0111  0.1264
  884DOPE   GL110366   7.492  34.412  13.884  0.2953 -0.1604  0.1892
  884DOPE   GL210367   7.643  34.555  13.701 -0.4411  0.1222  0.2393
  884DOPE   C1A10368   7.173  34.640  13.587 -0.1786  0.1503  0.0557
  884DOPE   D2A10369   7.345  35.047  13.350 -0.1599 -0.2595 -0.3128
  884DOPE   C3A10370   7.284  35.097  12.873  0.2277  0.0498 -0.2322
  884DOPE   C4A10371   7.398  35.079  12.376 -0.0158 -0.1587 -0.0603
  884DOPE   C1B10372   7.578  34.519  13.264 -0.0243  0.0263 -0.1725
  884DOPE   D2B10373   7.598  34.779  12.871  0.1113  0.0791 -0.2976
  884DOPE   C3B10374   7.833  35.085  12.616 -0.2703 -0.1215 -0.2828
  884DOPE   C4B10375   7.929  35.427  12.287  0.3105 -0.0265  0.2940
  885DOPC   NC310376  33.915  26.567  12.991 -0.0145  0.1216  0.0174
  885DOPC   PO410377  34.289  26.460  13.033 -0.3138  0.0845  0.0964
  885DOPC   GL110378  34.253  26.609  12.685 -0.0334  0.2650  0.2711
  885DOPC   GL210379  34.171  26.833  12.670 -0.0695  0.2404 -0.3245
  885DOPC   C1A10380  34.177  26.419  12.291  0.2475  0.3982  0.0294
  885DOPC   D2A10381  34.512  26.253  11.942 -0.0145 -0.2802 -0.1972
  885DOPC   C3A10382  34.598  26.381  11.523 -0.2506 -0.1326  0.1115
  885DOPC   C4A10383  34.733  26.773  11.279 -0.1221  0.2306  0.0887
  885DOPC   C1B10384  33.765  26.701  12.512  0.0800 -0.1998 -0.0404
  885DOPC   D2B10385  33.670  26.779  12.033 -0.4038  0.0773 -0.1541
  885DOPC   C3B10386  33.908  27.165  11.769 -0.2708  0.3457 -0.1627
  885DOPC   C4B10387  34.240  27.367  11.559 -0.0265 -0.1038 -0.0392
  886DOPC   NC310388   1.354  28.226  13.266  0.2119 -0.2544  0.1670
  886DOPC   PO410389   1.652  27.998  13.147  0.0859  0.0861 -0.0620
  886DOPC   GL110390   1.729  28.349  12.940  0.1287  0.1696  0.1419
  886DOPC   GL210391   1.778  28.572  13.080 -0.0044 -0.2152 -0.0110
  886DOPC   C1A10392   2.018  28.384  12.592 -0.1061 -0.0840  0.1810
  886DOPC   D2A10393   2.460  28.416  12.349 -0.0192 -0.0686 -0.0736
  886DOPC   C3A10394   2.523  28.765  12.028 -0.0101  0.0737  0.0640
  886DOPC   C4A10395   2.395  29.196  11.862 -0.1935  0.2413  0.0211
  886DOPC   C1B10396   1.747  28.837  12.725 -0.0727  0.1146  0.1855
  886DOPC   D2B10397   1.640  28.653  12.371  0.0795  0.0380  0.3963
  886DOPC   C3B10398   1.959  28.386  12.108 -0.1097  0.1235 -0.0527
  886DOPC   C4B10399   2.248  28.284  11.787  0.1342  0.1106  0.0429
  887POSM   NC310400   4.422  23.688  13.891  0.1541  0.1833 -0.0510
  887POSM   PO410401   4.242  23.900  13.677  0.0243  0.0605  0.0477
  887POSM   AM110402   4.084  23.887  13.407 -0.2333 -0.0230 -0.0190
  887POSM   AM210403   3.957  24.085  13.256  0.1114  0.2223 -0.0494
  887POSM   T1A10404   4.051  23.554  13.015  0.3427 -0.0952  0.0028
  887POSM   C2A10405   4.101  23.185  12.765  0.0485  0.0900 -0.2234
  887POSM   C3A10406   4.044  22.965  12.387 -0.3607  0.3707  0.2230
  887POSM   C1B10407   4.152  24.027  12.963  0.1817  0.1531  0.0373
  887POSM   D2B10408   4.459  23.824  12.723 -0.0707  0.1173  0.1191
  887POSM   C3B10409   4.730  23.728  12.416  0.1796 -0.0892 -0.2921
  887POSM   C4B10410   5.034  23.621  12.098 -0.2295  0.1494  0.1214
  888DOPC   NC310411   0.418   0.379  13.845 -0.0384  0.1251 -0.0715
  888DOPC   PO410412   0.403   0.428  13.453  0.0652  0.3392 -0.0376
  888DOPC   GL110413   0.441   0.685  13.080 -0.0165 -0.1820 -0.0551
  888DOPC   GL210414   0.749   0.739  13.166 -0.1804 -0.1659 -0.0279
  888DOPC   C1A10415   0.410   0.676  12.610  0.4386 -0.1131  0.0711
  888DOPC   D2A10416   0.292   0.825  12.191 -0.2114  0.2957  0.0357
  888DOPC   C3A10417  -0.065   1.076  12.114  0.1765 -0.1256  0.2044
  888DOPC   C4A10418  -0.497   1.266  12.142 -0.1799  0.0773 -0.3114
  888DOPC   C1B10419   0.976   0.622  12.782 -0.0349  0.2458 -0.3090
  888DOPC   D2B10420   1.127   0.489  12.370 -0.2078  0.1543 -0.0633
  888DOPC   C3B10421   1.477   0.336  12.103 -0.0805 -0.3288 -0.1343
  888DOPC   C4B10422   1.899   0.291  11.877  0.1292  0.0410  0.1675
  889DOPE   NH310423   7.401  27.518  13.458  0.2908  0.2560 -0.0776
  889DOPE   PO410424   7.624  27.297  13.309 -0.0582  0.3229 -0.0147
  889DOPE   GL110425   7.178  27.198  13.211  0.0890  0.3518 -0.1834
  889DOPE   GL210426   7.125  27.419  13.048 -0.0954 -0.0096 -0.0965
  889DOPE   C1A10427   7.014  26.961  12.852  0.0755  0.2482 -0.1450
  889DOPE   D2A10428   7.019  26.698  12.479 -0.1935 -0.4059  0.0241
  889DOPE   C3A10429   7.077  26.218  12.391 -0.1151  0.2048 -0.1345
  889DOPE   C4A10430   7.301  25.893  12.135 -0.0925 -0.1648  0.1751
  889DOPE   C1B10431   6.863  27.521  12.705  0.1868 -0.0046  0.1753
  889DOPE   D2B10432   6.810  27.544  12.270 -0.0562  0.0182  0.0361
  889DOPE   C3B10433   6.997  27.478  11.830  0.1385 -0.0910 -0.1701
  889DOPE   C4B10434   7.249  27.591  11.475  0.0066 -0.0802 -0.4611
  890DOPC   NC310435   3.962  30.463  12.962  0.0104 -0.4800 -0.0597
  890DOPC   PO410436   3.655  30.726  12.956  0.3658 -0.0240  0.0746
  890DOPC   GL110437   3.509  30.610  12.682  0.1402  0.3184  0.1558
  890DOPC   GL210438   3.732  30.480  12.532 -0.0188 -0.0242 -0.3640
  890DOPC   C1A10439   3.299  30.691  12.282  0.0121 -0.1443  0.1341
  890DOPC   D2A10440   3.256  30.757  11.809  0.0115  0.1836 -0.2517
  890DOPC   C3A10441   2.966  30.563  11.569  0.0734 -0.0702  0.2288
  890DOPC   C4A10442   2.872  30.151  11.727 -0.0678 -0.2582  0.0355
  890DOPC   C1B10443   3.797  30.893  12.322  0.0454 -0.2514  0.1996
  890DOPC   D2B10444   3.660  31.153  11.984  0.0199  0.0641 -0.2024
  890DOPC   C3B10445   3.849  31.376  11.591  0.1803  0.1369 -0.3543
  890DOPC   C4B10446   3.942  31.610  11.238 -0.2948 -0.1370 -0.0550
  891DOPE   NH310447   4.205  31.180  13.379  0.4730 -0.0376 -0.2068
  891DOPE   PO410448   3.989  31.010  13.248 -0.1370  0.3184  0.0169
  891DOPE   GL110449   4.054  30.944  12.826 -0.2954  0.3248 -0.1779
  891DOPE   GL210450   3.955  31.160  12.698  0.1140 -0.1893  0.1782
  891DOPE   C1A10451   4.293  30.843  12.443 -0.2060 -0.0688 -0.0614
  891DOPE   D2A10452   4.550  31.073  12.097  0.0059 -0.0610  0.1608
  891DOPE   C3A10453   4.588  30.857  11.673 -0.1736 -0.2301  0.2196
  891DOPE   C4A10454   4.931  30.910  11.368 -0.0221  0.1895  0.0023
  891DOPE   C1B10455   4.066  31.324  12.347 -0.3281  0.2271  0.0139
  891DOPE   D2B10456   3.869  31.697  12.077  0.0750  0.2081 -0.2238
  891DOPE   C3B10457   3.966  32.156  12.050 -0.0328  0.3171  0.2997
  891DOPE   C4B10458   4.232  32.542  12.148 -0.0739  0.1927 -0.1376
  892DOPE   NH310459   5.563  21.886  13.129 -0.0458 -0.1979  0.1978
  892DOPE   PO410460   5.892  21.933  13.160  0.2866 -0.0589  0.0742
  892DOPE   GL110461   6.082  21.845  12.890  0.0041 -0.3777  0.3513
  892DOPE   GL210462   6.071  22.002  12.655  0.0970  0.1115 -0.2631
  892DOPE   C1A10463   6.271  21.489  12.599  0.1925 -0.2324  0.2675
  892DOPE   D2A10464   6.484  21.326  12.179 -0.2279  0.1963 -0.0883
  892DOPE   C3A10465   6.643  21.340  11.727  0.1313 -0.0326 -0.0436
  892DOPE   C4A10466   6.925  21.363  11.331  0.0050  0.0945 -0.2200
  892DOPE   C1B10467   5.671  22.050  12.406  0.1985  0.0855 -0.0033
  892DOPE   D2B10468   5.543  21.868  12.041 -0.4640 -0.0265  0.0645
  892DOPE   C3B10469   5.701  21.611  11.681 -0.0269 -0.2175 -0.4442
  892DOPE   C4B10470   5.590  21.277  11.439 -0.1108  0.3022  0.0927
  893DOPC   NC310471   1.890  29.908  13.372  0.2283 -0.2612  0.0077
  893DOPC   PO410472   1.625  29.611  13.376 -0.0912  0.1193 -0.0603
  893DOPC   GL110473   1.683  29.670  12.969 -0.2959  0.0662  0.2960
  893DOPC   GL210474   1.783  29.430  12.855  0.0162 -0.0757  0.1876
  893DOPC   C1A10475   1.402  29.620  12.611 -0.3106 -0.2403 -0.1517
  893DOPC   D2A10476   1.099  29.415  12.244  0.0923  0.1541 -0.1482
  893DOPC   C3A10477   1.060  29.595  11.832 -0.2447 -0.0128  0.0647
  893DOPC   C4A10478   1.034  29.495  11.364 -0.2065  0.1095 -0.1514
  893DOPC   C1B10479   1.797  29.200  12.457 -0.1865 -0.4118  0.1087
  893DOPC   D2B10480   1.563  29.256  12.072  0.1402  0.1749 -0.0447
  893DOPC   C3B10481   1.447  28.826  11.948 -0.1663  0.1031  0.0833
  893DOPC   C4B10482   1.577  28.448  11.729  0.0569 -0.2301  0.2239
  894DOPC   NC310483   6.199  25.357  13.301 -0.0545  0.0659 -0.1991
  894DOPC   PO410484   6.151  25.749  13.250 -0.0410  0.1968  0.0289
  894DOPC   GL110485   6.074  25.800  12.913 -0.1554  0.0859 -0.1782
  894DOPC   GL210486   6.128  25.461  12.831 -0.3668  0.1769 -0.2743
  894DOPC   C1A10487   5.887  26.047  12.513  0.1393 -0.0632  0.1010
  894DOPC   D2A10488   5.977  26.108  12.050 -0.2443 -0.1914 -0.0376
  894DOPC   C3A10489   6.380  26.312  11.892  0.2632  0.1656  0.0004
  894DOPC   C4A10490   6.757  26.224  11.699  0.1705  0.2599  0.0242
  894DOPC   C1B10491   6.045  25.387  12.386 -0.3759 -0.0072  0.1187
  894DOPC   D2B10492   5.702  25.517  12.137  0.1761 -0.0466 -0.2201
  894DOPC   C3B10493   5.472  25.860  12.356 -0.0025  0.0506 -0.2690
  894DOPC   C4B10494   5.281  26.163  12.685 -0.3108 -0.1777  0.0112
  895DOPC   NC310495  10.268  30.059  13.104  0.1039  0.1453 -0.0837
  895DOPC   PO410496   9.920  30.265  13.123  0.1674 -0.0720  0.1941
  895DOPC   GL110497   9.980  30.587  12.795  0.1788  0.5566  0.2093
  895DOPC   GL210498  10.219  30.702  12.712 -0.0267  0.1211 -0.0927
  895DOPC   C1A10499   9.902  30.508  12.316  0.0378 -0.3238 -0.0705
  895DOPC   D2A10500   9.689  30.835  12.069 -0.0773 -0.0404  0.2561
  895DOPC   C3A10501   9.914  31.061  11.718  0.0591 -0.0027 -0.5000
  895DOPC   C4A10502  10.389  31.032  11.559 -0.1704 -0.2670 -0.0580
  895DOPC   C1B10503  10.404  30.665  12.312  0.0270 -0.0908  0.0083
  895DOPC   D2B10504  10.534  30.558  11.876 -0.0558  0.0985  0.0009
  895DOPC   C3B10505  10.436  30.459  11.447  0.2310  0.1273  0.2547
  895DOPC   C4B10506  10.441  30.091  11.144  0.0223  0.0360 -0.0816
  896DOPC   NC310507  32.367  25.872  13.521  0.3942 -0.1850 -0.0264
  896DOPC   PO410508  32.036  26.063  13.682 -0.3043  0.1837 -0.2298
  896DOPC   GL110509  31.741  25.930  13.388  0.1857 -0.1621  0.0552
  896DOPC   GL210510  31.888  25.924  13.192 -0.0090  0.1556 -0.2187
  896DOPC   C1A10511  31.313  26.005  13.161 -0.2095 -0.2293 -0.1693
  896DOPC   D2A10512  31.015  26.015  12.830  0.2639 -0.0261 -0.2356
  896DOPC   C3A10513  31.187  26.183  12.399  0.0639  0.1595  0.5547
  896DOPC   C4A10514  31.075  26.029  11.996 -0.4036  0.2313 -0.0843
  896DOPC   C1B10515  31.940  26.198  12.758  0.0565  0.0957  0.1786
  896DOPC   D2B10516  31.954  26.503  12.407  0.1604  0.0790 -0.3087
  896DOPC   C3B10517  31.871  26.451  11.901  0.1772  0.1781 -0.1472
  896DOPC   C4B10518  32.033  26.677  11.511  0.0263 -0.1977 -0.0144
  897DOPC   NC310519   6.332  26.853  13.263 -0.2691  0.2550  0.0642
  897DOPC   PO410520   5.993  26.657  13.192  0.0361 -0.0764  0.1692
  897DOPC   GL110521   6.019  26.596  12.772 -0.2822  0.2652 -0.2356
  897DOPC   GL210522   6.258  26.356  12.753  0.1829 -0.0725  0.0868
  897DOPC   C1A10523   5.658  26.528  12.436  0.1206  0.0442 -0.0103
  897DOPC   D2A10524   5.509  26.313  12.045  0.3311  0.0931  0.3211
  897DOPC   C3A10525   5.376  26.665  11.747  0.2519 -0.1331 -0.1870
  897DOPC   C4A10526   5.329  26.861  11.366  0.2654 -0.0997  0.0367
  897DOPC   C1B10527   6.154  26.511  12.311  0.3126  0.0133 -0.0310
  897DOPC   D2B10528   6.002  26.606  11.901  0.0039  0.1865 -0.0682
  897DOPC   C3B10529   5.794  26.357  11.557  0.1719 -0.4993 -0.0440
  897DOPC   C4B10530   5.692  25.888  11.602  0.0300 -0.3136  0.2624
  898DOPE   NH310531   5.160  27.107  13.088 -0.0464 -0.1089 -0.1575
  898DOPE   PO410532   5.431  27.272  13.006  0.2751  0.2122 -0.1229
  898DOPE   GL110533   5.389  27.234  12.635  0.0831 -0.0187  0.3464
  898DOPE   GL210534   5.112  27.370  12.645 -0.0661 -0.0774 -0.0933
  898DOPE   C1A10535   5.676  27.517  12.374  0.1098  0.2930 -0.3204
  898DOPE   D2A10536   5.756  27.514  11.919 -0.0618  0.1379 -0.0594
  898DOPE   C3A10537   6.076  27.636  11.579  0.5104 -0.0034 -0.0189
  898DOPE   C4A10538   6.268  28.031  11.416 -0.3411 -0.0207 -0.0308
  898DOPE   C1B10539   5.214  27.544  12.241 -0.3889  0.2806  0.0436
  898DOPE   D2B10540   5.308  27.787  11.840 -0.1371 -0.0106 -0.2233
  898DOPE   C3B10541   5.610  28.012  11.926 -0.2990  0.1634  0.1854
  898DOPE   C4B10542   6.016  28.145  11.893 -0.1900 -0.0919 -0.0109
  899DOPE   NH310543   2.990  28.715  13.392  0.0959 -0.5904  0.1363
  899DOPE   PO410544   2.851  28.737  13.098 -0.2103 -0.2160  0.2872
  899DOPE   GL110545   2.959  28.850  12.774  0.1745  0.1391 -0.0234
  899DOPE   GL210546   2.864  28.592  12.597 -0.1081 -0.0107 -0.1061
  899DOPE   C1A10547   3.236  29.019  12.438 -0.2731  0.1599 -0.0333
  899DOPE   D2A10548   3.421  29.079  12.010 -0.1779 -0.0746 -0.0217
  899DOPE   C3A10549   3.356  29.469  11.722  0.0458  0.2270  0.0038
  899DOPE   C4A10550   3.176  29.842  11.450  0.0381  0.0854  0.1915
  899DOPE   C1B10551   3.354  28.567  12.627 -0.1986 -0.2045 -0.1105
  899DOPE   D2B10552   3.719  28.698  12.377  0.0520 -0.2078 -0.0998
  899DOPE   C3B10553   3.860  29.170  12.340  0.1144 -0.0439 -0.0612
  899DOPE   C4B10554   3.798  29.440  11.986  0.1913 -0.2170 -0.0755
  900POSM   NC310555   5.381  28.859  13.595 -0.1172  0.0576 -0.1110
  900POSM   PO410556   5.193  29.153  13.729 -0.1706  0.2015 -0.5194
  900POSM   AM110557   5.055  29.165  13.433 -0.0432 -0.2695 -0.0431
  900POSM   AM210558   5.057  29.088  13.177  0.0876 -0.0296  0.1015
  900POSM   T1A10559   4.929  29.523  13.083  0.1762  0.0196 -0.2364
  900POSM   C2A10560   4.718  29.868  12.814  0.3353 -0.2478  0.0258
  900POSM   C3A10561   4.454  29.946  12.501  0.1939  0.5360 -0.1096
  900POSM   C1B10562   4.874  29.024  12.846 -0.0704 -0.0732 -0.0563
  900POSM   D2B10563   4.699  28.836  12.468  0.0521  0.0286 -0.0309
  900POSM   C3B10564   4.661  28.731  11.996 -0.2495 -0.3554 -0.0064
  900POSM   C4B10565   4.783  28.703  11.592  0.1217 -0.0590  0.1014
  901DOPC   NC310566   5.953  23.714  13.998  0.3937 -0.1502 -0.2811
  901DOPC   PO410567   5.648  23.441  14.056  0.2671  0.0383  0.2618
  901DOPC   GL110568   5.722  23.454  13.603 -0.0282 -0.2234 -0.3313
  901DOPC   GL210569   5.930  23.130  13.607 -0.0236  0.2447  0.1391
  901DOPC   C1A10570   5.731  23.270  13.146  0.2775  0.0748 -0.0113
  901DOPC   D2A10571   5.515  23.166  12.739 -0.1829 -0.0490 -0.1398
  901DOPC   C3A10572   5.838  23.188  12.374  0.1896  0.0209  0.2252
  901DOPC   C4A10573   6.011  22.994  11.992 -0.3155  0.1066  0.4229
  901DOPC   C1B10574   6.125  23.004  13.222  0.3888 -0.1215 -0.0649
  901DOPC   D2B10575   6.161  22.833  12.742 -0.4376  0.0640 -0.0229
  901DOPC   C3B10576   5.859  22.608  12.463 -0.4993  0.3534  0.1182
  901DOPC   C4B10577   5.772  22.516  11.975 -0.1149  0.2543 -0.0168
  902POSM   NC310578   5.413  25.721  13.593 -0.1873 -0.2021  0.0513
  902POSM   PO410579   5.562  26.041  13.417  0.0438  0.2045  0.2695
  902POSM   AM110580   5.454  25.898  13.147  0.0538  0.4165  0.4101
  902POSM   AM210581   5.596  25.848  12.900 -0.0739 -0.1916  0.3687
  902POSM   T1A10582   5.067  25.776  12.881 -0.2446  0.0995  0.1007
  902POSM   C2A10583   5.023  25.567  12.465 -0.0682  0.2349 -0.1722
  902POSM   C3A10584   4.857  25.527  12.001  0.1815  0.0398  0.0137
  902POSM   C1B10585   5.685  25.628  12.675 -0.3826 -0.0876 -0.2331
  902POSM   D2B10586   5.598  25.208  12.593 -0.0867 -0.3699 -0.2046
  902POSM   C3B10587   5.785  25.007  12.212  0.1162  0.2248  0.1971
  902POSM   C4B10588   5.641  25.058  11.776  0.3016  0.1756  0.1937
  903POSM   NC310589   2.002  33.756  14.069 -0.0671 -0.0713 -0.1702
  903POSM   PO410590   2.079  33.572  13.713 -0.0333  0.0490 -0.1710
  903POSM   AM110591   1.936  33.356  13.459 -0.0814 -0.0839 -0.0745
  903POSM   AM210592   1.677  33.314  13.439  0.3593 -0.1285 -0.2323
  903POSM   T1A10593   2.012  33.349  12.970  0.0353  0.1378  0.4456
  903POSM   C2A10594   1.975  33.487  12.531  0.2757 -0.4112  0.2118
  903POSM   C3A10595   2.214  33.719  12.239 -0.0597  0.2828  0.2253
  903POSM   C1B10596   1.612  33.044  13.225  0.0562  0.1201  0.0280
  903POSM   D2B10597   1.726  32.807  12.877  0.1131  0.1646  0.0841
  903POSM   C3B10598   1.933  32.992  12.511  0.0703 -0.0051  0.0033
  903POSM   C4B10599   1.856  33.167  12.078 -0.4995 -0.1017  0.1645
  904DOPS   CNO10600   6.983  29.187  12.891 -0.0402 -0.2646  0.3263
  904DOPS   PO410601   7.307  29.415  12.811  0.1299  0.1248  0.3938
  904DOPS   GL110602   7.487  29.370  12.378  0.0726  0.1133  0.0766
  904DOPS   GL210603   7.501  29.038  12.421 -0.0639  0.1104  0.1985
  904DOPS   C1A10604   7.585  29.291  11.914  0.0228 -0.0874  0.4096
  904DOPS   D2A10605   7.582  29.335  11.471  0.2630  0.1011 -0.0342
  904DOPS   C3A10606   7.306  29.111  11.209  0.3108  0.0170  0.0812
  904DOPS   C4A10607   7.176  28.833  10.820 -0.4058  0.0541  0.2891
  904DOPS   C1B10608   7.527  28.750  12.065 -0.1572  0.0498 -0.0791
  904DOPS   D2B10609   7.781  28.823  11.726 -0.0322 -0.0728  0.2248
  904DOPS   C3B10610   7.735  28.623  11.383  0.4108  0.2211  0.2416
  904DOPS   C4B10611   7.470  28.464  11.062  0.1532  0.1281 -0.0796
  905DOPC   NC310612   2.999  31.050  13.717 -0.1136 -0.0767 -0.0468
  905DOPC   PO410613   3.269  31.307  13.598  0.0182 -0.0916 -0.0767
  905DOPC   GL110614   3.194  31.489  13.201  0.4410 -0.0762 -0.1614
  905DOPC   GL210615   2.926  31.551  13.132 -0.3898  0.2557 -0.2810
  905DOPC   C1A10616   3.235  31.578  12.732 -0.0499 -0.0240  0.1055
  905DOPC   D2A10617   3.092  31.588  12.262 -0.1443  0.0975 -0.0236
  905DOPC   C3A10618   3.318  31.832  11.937  0.1742  0.1294 -0.0602
  905DOPC   C4A10619   3.473  32.265  11.956  0.0693  0.2599  0.1000
  905DOPC   C1B10620   2.871  31.232  12.762 -0.0893  0.0398  0.3848
  905DOPC   D2B10621   3.006  31.109  12.340 -0.1662 -0.2971 -0.3427
  905DOPC   C3B10622   2.595  30.944  12.181 -0.2098  0.1951 -0.2185
  905DOPC   C4B10623   2.381  30.712  11.835 -0.2101  0.0457  0.1316
  906DOPE   NH310624   2.808  30.547  13.256 -0.1481  0.1385  0.2329
  906DOPE   PO410625   3.061  30.589  13.068 -0.0842  0.2309 -0.2091
  906DOPE   GL110626   3.075  30.502  12.706 -0.0940 -0.1429 -0.2694
  906DOPE   GL210627   2.877  30.649  12.602  0.2107 -0.0823 -0.0419
  906DOPE   C1A10628   3.221  30.170  12.426 -0.0838  0.1537  0.3123
  906DOPE   D2A10629   3.314  30.028  11.947 -0.1052  0.1370  0.2526
  906DOPE   C3A10630   3.410  30.286  11.573  0.1185  0.2392  0.1369
  906DOPE   C4A10631   3.618  30.275  11.133  0.0297  0.2820  0.3571
  906DOPE   C1B10632   2.783  30.478  12.156  0.0271  0.1112 -0.2648
  906DOPE   D2B10633   2.414  30.216  11.976  0.1981  0.1513 -0.0505
  906DOPE   C3B10634   2.345  30.360  11.513 -0.4163  0.2255  0.1176
  906DOPE   C4B10635   2.294  30.624  11.120 -0.0373 -0.0245  0.0021
  907DOPE   NH310636   7.092  25.949  13.118 -0.0050 -0.1208  0.0882
  907DOPE   PO410637   6.773  26.019  13.182 -0.0833 -0.0043  0.0411
  907DOPE   GL110638   6.682  26.167  12.773 -0.2746 -0.2366 -0.1397
  907DOPE   GL210639   6.823  25.930  12.689  0.0875 -0.1498 -0.0686
  907DOPE   C1A10640   6.606  26.369  12.374  0.0737  0.2196 -0.1554
  907DOPE   D2A10641   6.853  26.533  11.999  0.3711  0.3530 -0.0958
  907DOPE   C3A10642   6.949  26.948  11.938 -0.0734 -0.2379  0.0163
  907DOPE   C4A10643   6.942  27.033  11.446  0.2223 -0.4376  0.3339
  907DOPE   C1B10644   6.411  25.875  12.596 -0.1222 -0.0965  0.0305
  907DOPE   D2B10645   6.260  25.773  12.198  0.0916 -0.0404  0.0109
  907DOPE   C3B10646   6.448  25.409  11.962  0.0007  0.2851 -0.1291
  907DOPE   C4B10647   6.467  25.290  11.491 -0.1654 -0.1799 -0.2344
  908DOPC   NC310648   9.285  25.740  13.206 -0.4502 -0.1193 -0.2225
  908DOPC   PO410649   9.181  25.370  13.302  0.1790 -0.0496 -0.0620
  908DOPC   GL110650   9.416  25.335  13.015  0.1279  0.0034 -0.1350
  908DOPC   GL210651   9.630  25.440  13.004  0.2243  0.0432  0.1522
  908DOPC   C1A10652   9.362  25.658  12.673  0.1924  0.0281  0.0500
  908DOPC   D2A10653   9.198  25.844  12.281  0.1453 -0.0521  0.0118
  908DOPC   C3A10654   9.006  26.274  12.273 -0.2860  0.1566  0.3093
  908DOPC   C4A10655   8.918  26.522  12.675  0.0879  0.0066 -0.0594
  908DOPC   C1B10656   9.713  25.133  12.629  0.0311 -0.2068 -0.1904
  908DOPC   D2B10657   9.709  24.987  12.187  0.0607  0.1016 -0.2291
  908DOPC   C3B10658   9.435  25.146  11.871  0.0013 -0.1001 -0.1078
  908DOPC   C4B10659   9.493  25.384  11.485  0.1749 -0.0469  0.2269
  909POSM   NC310660  10.933  28.145  13.125 -0.0298 -0.1585  0.2475
  909POSM   PO410661  11.231  28.376  13.190  0.2340  0.1949  0.3155
  909POSM   AM110662  11.267  28.348  12.871 -0.1544  0.0346  0.0343
  909POSM   AM210663  11.092  28.237  12.672 -0.1686 -0.3998 -0.0227
  909POSM   T1A10664  11.213  28.650  12.472 -0.0932  0.3089  0.0478
  909POSM   C2A10665  11.145  28.801  11.981 -0.2365  0.1828 -0.2984
  909POSM   C3A10666  11.055  28.904  11.510 -0.0812 -0.1357 -0.2963
  909POSM   C1B10667  11.320  28.139  12.400 -0.4091 -0.3081 -0.1283
  909POSM   D2B10668  11.444  28.012  11.955 -0.2963  0.2148  0.2504
  909POSM   C3B10669  11.270  28.351  11.646  0.0995 -0.0090  0.0191
  909POSM   C4B10670  10.969  28.426  11.262  0.0777  0.2376 -0.2458
  910POSM   NC310671   2.499  32.364  13.962  0.0452 -0.1271 -0.1020
  910POSM   PO410672   2.264  32.351  13.675  0.0513  0.0808  0.1020
  910POSM   AM110673   2.257  32.301  13.364 -0.1144 -0.0223  0.0661
  910POSM   AM210674   2.428  32.360  13.140 -0.3390 -0.0216  0.0412
  910POSM   T1A10675   1.996  32.251  12.964  0.1154 -0.1388  0.0032
  910POSM   C2A10676   1.997  32.420  12.528  0.0029  0.0115 -0.2980
  910POSM   C3A10677   1.799  32.667  12.165  0.0966  0.0618  0.0700
  910POSM   C1B10678   2.453  32.331  12.799  0.0723 -0.2279 -0.3704
  910POSM   D2B10679   2.423  32.305  12.294  0.3169  0.0904 -0.1343
  910POSM   C3B10680   2.516  31.920  12.076 -0.0775 -0.1563  0.0492
  910POSM   C4B10681   2.654  31.436  12.008 -0.2606  0.3343  0.0538
  911DOPC   NC310682   8.312  29.847  13.258  0.2995  0.0261 -0.4975
  911DOPC   PO410683   8.601  29.917  12.991  0.0830  0.0190 -0.0761
  911DOPC   GL110684   8.618  30.244  12.634  0.2045  0.3659  0.2264
  911DOPC   GL210685   8.856  30.144  12.559  0.0634  0.2133  0.1704
  911DOPC   C1A10686   8.191  30.340  12.426  0.2216 -0.2996 -0.2498
  911DOPC   D2A10687   7.823  30.544  12.209 -0.1245 -0.1087  0.3686
  911DOPC   C3A10688   7.450  30.516  11.930  0.0200 -0.1236 -0.0424
  911DOPC   C4A10689   7.131  30.138  11.777  0.1652 -0.1413 -0.1098
  911DOPC   C1B10690   9.187  30.261  12.340 -0.1881 -0.1222  0.1334
  911DOPC   D2B10691   9.376  30.432  11.990  0.3461 -0.0802 -0.0631
  911DOPC   C3B10692   9.201  30.694  11.664 -0.0315 -0.0303 -0.1036
  911DOPC   C4B10693   8.909  31.029  11.680 -0.1639  0.0322  0.2445
  912DOPS   CNO10694   4.698  27.254  12.983  0.0646  0.1550  0.1644
  912DOPS   PO410695   4.551  26.929  13.003 -0.2959  0.0039  0.3307
  912DOPS   GL110696   4.505  27.035  12.595 -0.0463 -0.3227  0.3875
  912DOPS   GL210697   4.223  26.906  12.622 -0.0362 -0.0811  0.2522
  912DOPS   C1A10698   4.725  26.897  12.215 -0.1373 -0.0508  0.2187
  912DOPS   D2A10699   4.882  26.801  11.819  0.0999  0.1201 -0.0584
  912DOPS   C3A10700   4.676  26.647  11.387  0.2903 -0.0315  0.2146
  912DOPS   C4A10701   4.206  26.615  11.429 -0.1441 -0.2336  0.0520
  912DOPS   C1B10702   4.238  26.907  12.137  0.1709  0.2613 -0.0940
  912DOPS   D2B10703   3.982  27.128  11.757 -0.1541 -0.0545  0.1217
  912DOPS   C3B10704   4.194  27.500  11.657  0.0521  0.3544 -0.2717
  912DOPS   C4B10705   4.544  27.727  11.433  0.0328  0.1334  0.2792
  913DOPE   NH310706  10.676  26.854  13.412 -0.0689 -0.1713 -0.4005
  913DOPE   PO410707  10.748  26.643  13.156 -0.1626 -0.1671  0.0116
  913DOPE   GL110708  10.715  26.646  12.853  0.3790  0.1111  0.0281
  913DOPE   GL210709  10.960  26.805  12.710  0.3092  0.2766  0.2063
  913DOPE   C1A10710  10.473  26.537  12.460  0.1865  0.0753  0.0389
  913DOPE   D2A10711  10.320  26.672  12.037  0.3013 -0.0408  0.6616
  913DOPE   C3A10712   9.876  26.842  12.099 -0.1555 -0.0954  0.1132
  913DOPE   C4A10713   9.543  26.877  11.825 -0.2993  0.0685  0.2028
  913DOPE   C1B10714  10.867  26.757  12.309  0.3063  0.0684  0.0585
  913DOPE   D2B10715  10.832  26.600  11.897 -0.1016  0.1651 -0.0737
  913DOPE   C3B10716  11.054  26.263  11.734 -0.1550  0.1813  0.2807
  913DOPE   C4B10717  11.203  25.793  11.795  0.2089  0.1934 -0.0648
  914DOPS   CNO10718   6.094  30.191  13.576  0.1850  0.1701 -0.0548
  914DOPS   PO410719   6.185  30.015  13.272 -0.2033  0.2993  0.4137
  914DOPS   GL110720   6.198  29.937  12.933 -0.0499  0.1902 -0.3510
  914DOPS   GL210721   6.452  29.939  12.824 -0.0533  0.0118 -0.0325
  914DOPS   C1A10722   5.870  29.804  12.680  0.2191  0.0057  0.0512
  914DOPS   D2A10723   5.679  29.526  12.399  0.2635  0.0705 -0.0150
  914DOPS   C3A10724   5.379  29.610  12.099  0.0479  0.3893 -0.0105
  914DOPS   C4A10725   4.970  29.536  11.793 -0.2584  0.0264 -0.3503
  914DOPS   C1B10726   6.355  29.795  12.355  0.1634  0.1881 -0.0506
  914DOPS   D2B10727   6.372  29.460  12.075  0.0132 -0.2013 -0.1982
  914DOPS   C3B10728   6.327  29.742  11.687  0.0127  0.2000  0.3089
  914DOPS   C4B10729   6.183  29.520  11.428 -0.1290  0.0591 -0.2263
  915DOPS   CNO10730   0.167  25.623  13.358  0.2736  0.2362 -0.1342
  915DOPS   PO410731   0.427  25.391  13.185 -0.0344 -0.0275  0.0492
  915DOPS   GL110732   0.430  25.585  12.830 -0.3454  0.0941  0.3593
  915DOPS   GL210733   0.298  25.866  12.882  0.0132 -0.0658  0.2670
  915DOPS   C1A10734   0.411  25.663  12.386 -0.0246 -0.0140  0.1888
  915DOPS   D2A10735   0.447  25.465  11.956 -0.1393  0.1429  0.1273
  915DOPS   C3A10736   0.484  24.995  11.829 -0.4156  0.1176  0.0752
  915DOPS   C4A10737   0.577  24.665  11.531 -0.1776 -0.0230 -0.1027
  915DOPS   C1B10738  -0.092  25.860  12.605  0.4196  0.0948  0.0616
  915DOPS   D2B10739  -0.502  25.912  12.423  0.1382 -0.1584  0.1676
  915DOPS   C3B10740  -0.472  25.837  11.969  0.0317 -0.1000 -0.3159
  915DOPS   C4B10741  -0.557  26.128  11.625  0.0827 -0.1489  0.2793
  916POSM   NC310742   0.868  31.814  13.752 -0.0408  0.1380 -0.1791
  916POSM   PO410743   1.019  31.440  13.769  0.1807  0.0205 -0.1566
  916POSM   AM110744   0.984  31.199  13.566  0.0064  0.5305  0.0535
  916POSM   AM210745   0.829  30.982  13.512 -0.4353  0.1146  0.3433
  916POSM   T1A10746   1.193  31.114  13.176 -0.3958 -0.0045  0.4544
  916POSM   C2A10747   1.313  31.351  12.823 -0.0229  0.2152 -0.0559
  916POSM   C3A10748   1.125  31.513  12.526  0.0525  0.0677 -0.1145
  916POSM   C1B10749   0.744  30.820  13.199  0.0716 -0.4099  0.0448
  916POSM   D2B10750   0.777  30.781  12.754 -0.0318 -0.0419 -0.1092
  916POSM   C3B10751   0.449  30.647  12.480 -0.0774 -0.0330 -0.2634
  916POSM   C4B10752   0.427  30.604  11.992 -0.2207 -0.0144 -0.2496
  917POSM   NC310753   5.219  27.991  13.283 -0.3260 -0.1143  0.4973
  917POSM   PO410754   5.091  27.633  13.127  0.2547  0.0418 -0.1675
  917POSM   AM110755   4.886  27.653  12.877  0.4351 -0.1793 -0.4165
  917POSM   AM210756   4.860  27.883  12.661 -0.0637 -0.0422 -0.2422
  917POSM   T1A10757   4.646  27.450  12.471  0.1690 -0.1426 -0.1203
  917POSM   C2A10758   4.523  27.278  12.006 -0.1962 -0.0036  0.0132
  917POSM   C3A10759   4.476  27.048  11.567 -0.2237 -0.0131 -0.0473
  917POSM   C1B10760   4.972  28.002  12.369  0.0874  0.1551 -0.3252
  917POSM   D2B10761   5.177  28.260  12.042 -0.0699 -0.0377 -0.0608
  917POSM   C3B10762   5.164  28.703  12.049  0.0579 -0.0381 -0.1518
  917POSM   C4B10763   4.994  29.125  12.069 -0.1302 -0.2089  0.2331
  918DOPC   NC310764   3.980  25.889  13.939 -0.0243  0.4671 -0.0156
  918DOPC   PO410765   4.113  25.583  13.730 -0.1250 -0.0327  0.1072
  918DOPC   GL110766   4.067  25.405  13.387  0.3284 -0.3573 -0.0024
  918DOPC   GL210767   4.212  25.618  13.196  0.0701 -0.0393  0.3211
  918DOPC   C1A10768   3.677  25.308  13.109 -0.3456 -0.0345  0.2180
  918DOPC   D2A10769   3.563  25.290  12.666  0.2489  0.4539 -0.0880
  918DOPC   C3A10770   3.191  25.533  12.626  0.1279  0.2977  0.1820
  918DOPC   C4A10771   3.174  25.968  12.486 -0.1617 -0.0476 -0.0688
  918DOPC   C1B10772   3.999  25.586  12.797 -0.1687  0.1129  0.0147
  918DOPC   D2B10773   3.803  25.551  12.361  0.0537  0.1593  0.1018
  918DOPC   C3B10774   4.120  25.472  12.103  0.1832  0.1702  0.0117
  918DOPC   C4B10775   4.532  25.608  12.307  0.1283  0.1459  0.0222
  919POSM   NC310776   8.312  31.939  13.973 -0.1158 -0.0986 -0.1986
  919POSM   PO410777   8.085  32.193  13.792 -0.3004  0.1070  0.2839
  919POSM   AM110778   7.963  32.301  13.502  0.3623  0.1331  0.1073
  919POSM   AM210779   7.768  32.458  13.362  0.2284  0.0266  0.1937
  919POSM   T1A10780   8.109  32.403  13.019 -0.1598 -0.1089  0.2912
  919POSM   C2A10781   8.355  32.557  12.635 -0.0414  0.1513  0.0609
  919POSM   C3A10782   8.167  32.477  12.224 -0.0455 -0.0492 -0.0276
  919POSM   C1B10783   7.839  32.759  13.290 -0.0449  0.2873 -0.0565
  919POSM   D2B10784   7.846  33.184  13.123 -0.0417 -0.1896  0.0831
  919POSM   C3B10785   8.042  33.308  12.786  0.0583  0.0882  0.4147
  919POSM   C4B10786   8.038  33.553  12.333 -0.1682  0.4310 -0.0053
  920DOPC   NC310787   7.407  30.457  13.109  0.1241  0.0028 -0.0832
  920DOPC   PO410788   7.056  30.410  13.264 -0.1345  0.1758 -0.1888
  920DOPC   GL110789   6.937  30.604  12.961 -0.0394 -0.2648 -0.0245
  920DOPC   GL210790   7.058  30.767  12.821  0.0811 -0.1756 -0.1038
  920DOPC   C1A10791   6.650  30.511  12.637  0.3202  0.0601  0.1781
  920DOPC   D2A10792   6.498  30.538  12.194 -0.0351 -0.0672 -0.1644
  920DOPC   C3A10793   6.410  30.495  11.744 -0.1970 -0.2462 -0.0384
  920DOPC   C4A10794   6.276  30.608  11.321 -0.1211  0.2559  0.0633
  920DOPC   C1B10795   7.456  30.692  12.533  0.0467 -0.0441  0.0199
  920DOPC   D2B10796   7.817  30.990  12.518 -0.2268 -0.0394  0.0563
  920DOPC   C3B10797   7.601  31.333  12.413  0.2940 -0.3708 -0.1359
  920DOPC   C4B10798   7.299  31.491  12.738 -0.2037 -0.1159 -0.0054
  921POSM   NC310799   8.648  29.126  12.890 -0.3234  0.0562 -0.3648
  921POSM   PO410800   9.012  29.181  12.742 -0.0361  0.2634  0.0732
  921POSM   AM110801   8.818  29.133  12.465  0.1897  0.0914  0.0828
  921POSM   AM210802   8.787  28.861  12.348  0.1023 -0.0968  0.3848
  921POSM   T1A10803   8.583  29.156  12.033 -0.1688  0.2427  0.0461
  921POSM   C2A10804   8.583  28.949  11.600 -0.1664 -0.1228 -0.1573
  921POSM   C3A10805   8.179  28.783  11.336 -0.3186  0.1590  0.3482
  921POSM   C1B10806   8.900  28.727  12.076  0.0154 -0.2076  0.1912
  921POSM   D2B10807   9.076  28.845  11.696  0.2147  0.1227  0.0515
  921POSM   C3B10808   9.379  28.844  11.380  0.0240 -0.2671 -0.1452
  921POSM   C4B10809   9.849  28.829  11.378 -0.2453 -0.2375  0.2604
  922POSM   NC310810   8.379  25.309  12.920 -0.3141 -0.2652 -0.2500
  922POSM   PO410811   7.978  25.360  12.977  0.0066  0.1513 -0.1562
  922POSM   AM110812   7.956  25.107  12.797 -0.2105 -0.4919  0.1594
  922POSM   AM210813   7.875  24.811  12.785  0.0967  0.1028 -0.1573
  922POSM   T1A10814   7.938  25.056  12.319 -0.1157  0.2670 -0.1448
  922POSM   C2A10815   8.156  25.174  11.955 -0.1463  0.1150 -0.4445
  922POSM   C3A10816   8.565  25.313  11.908 -0.0215  0.0233  0.1060
  922POSM   C1B10817   7.915  24.579  12.490  0.5917 -0.0022 -0.2457
  922POSM   D2B10818   7.912  24.449  12.060 -0.0173  0.3527 -0.0222
  922POSM   C3B10819   7.803  24.786  11.794  0.0221  0.2223  0.1193
  922POSM   C4B10820   7.943  25.000  11.467  0.0128  0.0471  0.0321
  923DOPC   NC310821   1.731  26.482  12.959 -0.1177 -0.0111  0.3462
  923DOPC   PO410822   1.541  26.140  13.026  0.0171  0.0470 -0.0695
  923DOPC   GL110823   1.429  26.219  12.549 -0.2360 -0.0356 -0.3474
  923DOPC   GL210824   1.631  26.025  12.360 -0.0079  0.1657 -0.0037
  923DOPC   C1A10825   1.006  26.375  12.348 -0.0932 -0.0591  0.0943
  923DOPC   D2A10826   0.805  26.511  11.911  0.3599  0.0504 -0.0707
  923DOPC   C3A10827   1.001  26.135  11.633 -0.0668 -0.0529  0.0178
  923DOPC   C4A10828   1.302  26.211  11.354  0.1155 -0.1188 -0.1047
  923DOPC   C1B10829   1.732  26.099  11.914  0.0123  0.1486  0.1173
  923DOPC   D2B10830   2.061  26.144  11.595  0.0612 -0.0957  0.1362
  923DOPC   C3B10831   2.258  26.523  11.422 -0.0918  0.2436 -0.1969
  923DOPC   C4B10832   2.168  26.974  11.452  0.1021 -0.2294  0.1264
  924DOPE   NH310833  33.490  27.166  13.206 -0.1391  0.1589  0.2432
  924DOPE   PO410834  33.759  27.066  13.061  0.0711  0.1338  0.2006
  924DOPE   GL110835  33.771  27.226  12.544  0.0616 -0.2657 -0.0832
  924DOPE   GL210836  33.938  27.181  12.351 -0.1037 -0.2133 -0.2873
  924DOPE   C1A10837  33.518  27.387  12.148  0.1130  0.0623  0.0724
  924DOPE   D2A10838  33.416  27.150  11.823  0.0573 -0.2628 -0.2995
  924DOPE   C3A10839  32.986  27.206  11.694  0.4455 -0.0878 -0.0308
  924DOPE   C4A10840  32.617  26.947  11.682 -0.2095 -0.2452 -0.0279
  924DOPE   C1B10841  34.159  26.906  12.132 -0.4174 -0.3937  0.0115
  924DOPE   D2B10842  34.110  26.569  11.840  0.0095 -0.0696  0.4157
  924DOPE   C3B10843  33.849  26.588  11.483  0.1453  0.1353 -0.0575
  924DOPE   C4B10844  33.691  26.596  11.042  0.1742  0.0199  0.3134
  925DOPC   NC310845  34.457  28.618  13.100  0.4626  0.2383  0.1223
  925DOPC   PO410846  34.231  28.685  13.440 -0.2420  0.1767  0.3551
  925DOPC   GL110847  33.997  28.662  13.008 -0.3702  0.0011  0.0401
  925DOPC   GL210848  33.999  28.959  12.943  0.0563  0.0181 -0.2373
  925DOPC   C1A10849  33.715  28.627  12.571 -0.2001  0.2093 -0.0717
  925DOPC   D2A10850  33.676  28.953  12.217  0.0915  0.0836  0.2380
  925DOPC   C3A10851  33.595  28.582  11.943  0.0349 -0.2467  0.0447
  925DOPC   C4A10852  33.313  28.295  11.759 -0.0209  0.0138  0.2399
  925DOPC   C1B10853  33.940  29.218  12.602  0.2934  0.1945 -0.2030
  925DOPC   D2B10854  33.921  29.387  12.156 -0.0579 -0.0413  0.0817
  925DOPC   C3B10855  33.751  29.531  11.709  0.2192  0.0904  0.2729
  925DOPC   C4B10856  33.859  29.903  11.405  0.1513  0.0065  0.2498
  926POSM   NC310857   8.953  28.705  12.844  0.0559  0.0290 -0.0284
  926POSM   PO410858   9.281  28.563  12.848  0.1291 -0.1884 -0.0905
  926POSM   AM110859   9.338  28.697  12.548 -0.0634 -0.0452  0.2049
  926POSM   AM210860   9.296  28.944  12.422  0.4067 -0.1233 -0.3887
  926POSM   T1A10861   9.327  28.532  12.038  0.1401 -0.0518  0.0525
  926POSM   C2A10862   9.349  28.388  11.607 -0.5282 -0.2733  0.0589
  926POSM   C3A10863   9.222  28.331  11.175  0.0003  0.0380  0.0877
  926POSM   C1B10864   9.339  29.072  12.123 -0.2120 -0.2050 -0.3017
  926POSM   D2B10865   9.379  29.284  11.701  0.1565 -0.0160 -0.1808
  926POSM   C3B10866   9.733  29.316  11.477  0.1723  0.3761 -0.1499
  926POSM   C4B10867  10.146  29.179  11.283  0.1140 -0.0039 -0.4810
  927POSM   NC310868  33.821  32.042  12.744 -0.1511 -0.1885 -0.0901
  927POSM   PO410869  33.525  32.004  13.050 -0.0711 -0.2533  0.2091
  927POSM   AM110870  33.289  32.107  12.843  0.2628  0.1337  0.0806
  927POSM   AM210871  33.400  32.314  12.641  0.0606  0.0075  0.1566
  927POSM   T1A10872  32.935  32.211  12.553 -0.2133 -0.0334 -0.0147
  927POSM   C2A10873  32.914  32.122  12.101  0.0791  0.0725  0.1493
  927POSM   C3A10874  33.057  31.897  11.749  0.1996  0.1218 -0.2226
  927POSM   C1B10875  33.391  32.274  12.286  0.1620  0.2607 -0.2114
  927POSM   D2B10876  33.335  32.347  11.830  0.1856 -0.2594 -0.2039
  927POSM   C3B10877  33.726  32.504  11.665 -0.1623 -0.0890 -0.1143
  927POSM   C4B10878  34.218  32.680  11.563  0.1044  0.0485 -0.0974
  928POSM   NC310879   1.412  30.417  13.906 -0.0362 -0.0343 -0.0498
  928POSM   PO410880   0.999  30.407  14.044 -0.0871  0.0591 -0.1673
  928POSM   AM110881   0.956  30.458  13.728  0.1243 -0.2564 -0.3877
  928POSM   AM210882   1.044  30.418  13.475 -0.0334  0.1287  0.0409
  928POSM   T1A10883   0.512  30.543  13.484  0.0685  0.2228 -0.1476
  928POSM   C2A10884   0.229  30.183  13.303  0.0561 -0.0815  0.0454
  928POSM   C3A10885  -0.110  29.868  13.325 -0.3531  0.0401  0.0245
  928POSM   C1B10886   1.092  30.503  13.118 -0.2599  0.0303 -0.0772
  928POSM   D2B10887   1.043  30.302  12.673  0.3924 -0.1907  0.0938
  928POSM   C3B10888   0.995  30.471  12.254 -0.2484  0.3391  0.1807
  928POSM   C4B10889   0.917  30.791  11.911 -0.1633  0.0653  0.0458
  929POSM   NC310890   5.215  33.190  13.225 -0.0565  0.1134 -0.0681
  929POSM   PO410891   5.010  32.873  13.208  0.0159  0.0743  0.1426
  929POSM   AM110892   5.036  32.749  12.947 -0.1306 -0.0391  0.3926
  929POSM   AM210893   4.912  32.589  12.757  0.0051  0.3351 -0.2647
  929POSM   T1A10894   5.451  32.556  12.596 -0.0869 -0.2543 -0.1505
  929POSM   C2A10895   5.705  32.207  12.500 -0.0346 -0.0184  0.2116
  929POSM   C3A10896   5.940  31.891  12.649  0.1382  0.0517 -0.3666
  929POSM   C1B10897   4.984  32.634  12.414 -0.2565  0.0089  0.0681
  929POSM   D2B10898   5.223  32.567  12.011  0.1759 -0.0643  0.0895
  929POSM   C3B10899   5.707  32.446  12.059 -0.1019  0.0252 -0.0521
  929POSM   C4B10900   6.107  32.206  12.131  0.0967  0.2013  0.2595
  930DOPC   NC310901  12.595  29.103  13.367  0.1102  0.3327  0.1178
  930DOPC   PO410902  12.310  28.896  13.156  0.2051 -0.1271 -0.1011
  930DOPC   GL110903  12.483  28.984  12.763 -0.4049  0.0063 -0.3806
  930DOPC   GL210904  12.614  29.295  12.875  0.1074  0.2435 -0.1379
  930DOPC   C1A10905  12.441  29.029  12.310 -0.1250 -0.0456  0.3889
  930DOPC   D2A10906  12.553  29.146  11.880 -0.2066  0.0478  0.1565
  930DOPC   C3A10907  12.972  29.071  11.918  0.1519  0.1477  0.1226
  930DOPC   C4A10908  13.289  29.416  12.034 -0.0486 -0.2544 -0.1617
  930DOPC   C1B10909  12.406  29.505  12.530  0.3130 -0.0597  0.0131
  930DOPC   D2B10910  12.178  29.851  12.404  0.1144 -0.0138  0.0859
  930DOPC   C3B10911  12.091  30.047  11.970  0.0190  0.0548  0.2677
  930DOPC   C4B10912  12.030  29.984  11.487  0.0512 -0.2376 -0.0698
  931POSM   NC310913  13.103  29.056  14.015  0.1214 -0.3385 -0.2267
  931POSM   PO410914  12.964  29.418  13.856 -0.1950  0.1100  0.1750
  931POSM   AM110915  12.910  29.330  13.568 -0.2593  0.2174 -0.3458
  931POSM   AM210916  12.872  29.519  13.359 -0.1520  0.1269 -0.1382
  931POSM   T1A10917  13.097  29.098  13.158 -0.0103 -0.1043 -0.2603
  931POSM   C2A10918  13.041  29.010  12.752  0.0579  0.1173 -0.0540
  931POSM   C3A10919  12.864  29.300  12.388 -0.1814 -0.1760  0.1597
  931POSM   C1B10920  12.858  29.661  13.048  0.2331  0.1042  0.0005
  931POSM   D2B10921  13.197  29.901  12.820 -0.0868  0.0989 -0.3731
  931POSM   C3B10922  13.272  29.937  12.327 -0.0463  0.1336 -0.0113
  931POSM   C4B10923  13.179  29.853  11.908  0.1238  0.2134 -0.1351
  932DOPS   CNO10924   3.310  28.442  13.605 -0.0520  0.0695 -0.1073
  932DOPS   PO410925   3.479  28.743  13.458  0.2521 -0.0144  0.1246
  932DOPS   GL110926   3.616  28.780  13.090 -0.0790  0.0726  0.0851
  932DOPS   GL210927   3.770  28.612  12.906  0.0078 -0.0846 -0.2925
  932DOPS   C1A10928   3.588  29.085  12.757 -0.1812 -0.0767 -0.0222
  932DOPS   D2A10929   3.460  29.503  12.561 -0.2467  0.0363 -0.2969
  932DOPS   C3A10930   3.247  29.637  12.184 -0.0505 -0.2364  0.0160
  932DOPS   C4A10931   2.921  29.686  11.888 -0.1419  0.0753 -0.1362
  932DOPS   C1B10932   3.790  28.247  12.692  0.0586 -0.0940 -0.1746
  932DOPS   D2B10933   3.656  28.128  12.221  0.1811  0.1305  0.0258
  932DOPS   C3B10934   3.249  28.335  12.190 -0.2393 -0.1618  0.1563
  932DOPS   C4B10935   3.016  28.728  12.124 -0.0660 -0.1263  0.0205
  933DOPS   CNO10936   0.521  29.461  14.194  0.0802  0.0635 -0.0333
  933DOPS   PO410937   0.525  29.726  13.931 -0.3088  0.0919  0.0392
  933DOPS   GL110938   0.469  29.848  13.493 -0.0394 -0.1899  0.1712
  933DOPS   GL210939   0.677  30.045  13.460  0.1418 -0.1066  0.3034
  933DOPS   C1A10940   0.341  29.777  13.060  0.3169 -0.2359  0.0281
  933DOPS   D2A10941   0.583  29.876  12.724 -0.1625  0.5968  0.1146
  933DOPS   C3A10942   0.988  29.833  12.496  0.2184  0.1248  0.0633
  933DOPS   C4A10943   1.001  30.022  12.048 -0.0570  0.1051  0.2333
  933DOPS   C1B10944   0.936  30.037  13.063  0.0765 -0.0112  0.0976
  933DOPS   D2B10945   1.384  30.058  12.922  0.2218  0.0453 -0.0061
  933DOPS   C3B10946   1.429  30.119  12.459  0.1638 -0.1433  0.4164
  933DOPS   C4B10947   1.511  30.294  12.024  0.2426 -0.0700  0.4232
  934DOPS   CNO10948   5.389  28.383  13.626 -0.0998 -0.1189  0.1829
  934DOPS   PO410949   5.283  28.501  13.270  0.0206  0.0705 -0.3343
  934DOPS   GL110950   4.934  28.469  12.980 -0.5082  0.0056 -0.0493
  934DOPS   GL210951   5.106  28.252  12.844  0.1820  0.2629  0.0414
  934DOPS   C1A10952   4.699  28.334  12.608  0.1497  0.1883  0.1766
  934DOPS   D2A10953   4.620  28.277  12.151 -0.3544  0.1727  0.2286
  934DOPS   C3A10954   4.775  28.238  11.736 -0.2291  0.0250  0.0962
  934DOPS   C4A10955   4.778  28.150  11.272 -0.0950  0.1014 -0.2814
  934DOPS   C1B10956   5.182  28.646  12.573  0.0346  0.1067 -0.0979
  934DOPS   D2B10957   5.475  28.926  12.550  0.1297 -0.0869 -0.1080
  934DOPS   C3B10958   5.475  29.080  12.147 -0.0164  0.2983  0.2590
  934DOPS   C4B10959   5.298  29.165  11.713 -0.1356  0.1006 -0.1361
  935POSM   NC310960   9.513  25.937  13.647  0.0166  0.1491  0.0762
  935POSM   PO410961   9.741  25.849  13.309 -0.1471 -0.1446  0.0498
  935POSM   AM110962   9.906  25.794  13.047 -0.0064 -0.1228  0.1721
  935POSM   AM210963  10.105  25.910  12.901  0.0047 -0.0177  0.1459
  935POSM   T1A10964   9.876  25.598  12.589  0.0734  0.0537  0.0826
  935POSM   C2A10965  10.080  25.350  12.297 -0.1346 -0.1916  0.0893
  935POSM   C3A10966  10.517  25.332  12.290 -0.0599 -0.4637  0.0052
  935POSM   C1B10967  10.223  25.966  12.567 -0.0998 -0.0310 -0.0021
  935POSM   D2B10968  10.175  25.801  12.107 -0.0818 -0.0879  0.1116
  935POSM   C3B10969  10.086  25.804  11.569  0.2542  0.0002 -0.3399
  935POSM   C4B10970   9.951  25.556  11.193  0.2282 -0.0399  0.0405
  936DOPE   NH310971   8.243   0.292  13.840  0.0028  0.0073 -0.1445
  936DOPE   PO410972   8.111   0.023  13.910 -0.1142  0.1061 -0.0785
  936DOPE   GL110973   8.085  -0.158  13.456  0.0309  0.0340  0.1706
  936DOPE   GL210974   8.101  -0.403  13.476 -0.0326  0.1284  0.3249
  936DOPE   C1A10975   8.031   0.120  13.094 -0.0901  0.1628 -0.1383
  936DOPE   D2A10976   8.301   0.451  12.895 -0.0672  0.1658  0.1159
  936DOPE   C3A10977   8.376   0.719  12.548  0.1935 -0.1145  0.0398
  936DOPE   C4A10978   8.348   0.871  12.066  0.1904 -0.1721 -0.1309
  936DOPE   C1B10979   8.068  -0.375  13.020 -0.0701 -0.4969 -0.3118
  936DOPE   D2B10980   8.073  -0.123  12.669  0.0478  0.1681  0.0013
  936DOPE   C3B10981   8.343  -0.140  12.295  0.0087 -0.3709  0.2587
  936DOPE   C4B10982   8.708  -0.407  12.124 -0.0385 -0.3514  0.3091
  937POSM   NC310983   5.461  24.575  13.417 -0.0968  0.1288 -0.1492
  937POSM   PO410984   5.466  24.327  13.690  0.4575 -0.1531  0.0942
  937POSM   AM110985   5.629  24.122  13.489 -0.1464  0.0843  0.3412
  937POSM   AM210986   5.854  23.917  13.507 -0.0686 -0.0065 -0.0729
  937POSM   T1A10987   5.512  23.782  13.107 -0.3057 -0.0019  0.2215
  937POSM   C2A10988   5.274  23.616  12.739  0.0287  0.2717 -0.0114
  937POSM   C3A10989   5.103  23.309  12.462 -0.0790 -0.2617 -0.1240
  937POSM   C1B10990   6.026  23.894  13.212  0.3365 -0.2064 -0.1775
  937POSM   D2B10991   6.255  23.830  12.814 -0.0985  0.2672  0.3424
  937POSM   C3B10992   6.240  23.605  12.410  0.1245 -0.1187 -0.0730
  937POSM   C4B10993   5.909  23.627  12.086 -0.0365  0.4417  0.0902
  938DOPS   CNO10994   8.101  28.913  13.231 -0.0013 -0.0823 -0.0663
  938DOPS   PO410995   8.096  29.028  12.847 -0.0755 -0.5052  0.0627
  938DOPS   GL110996   7.973  28.942  12.437  0.0260  0.3945  0.1461
  938DOPS   GL210997   7.925  29.048  12.215 -0.0606  0.3248  0.0353
  938DOPS   C1A10998   8.279  28.694  12.172 -0.0305 -0.0218 -0.0714
  938DOPS   D2A10999   8.182  28.469  11.789 -0.1326  0.1647 -0.1620
  938DOPS   C3A11000   8.365  28.082  11.557 -0.1394  0.1530 -0.2170
  938DOPS   C4A11001   8.686  27.987  11.258  0.0196 -0.1264  0.0644
  938DOPS   C1B11002   8.150  29.182  11.845 -0.0617  0.1228 -0.0670
  938DOPS   D2B11003   8.084  29.371  11.369 -0.2154  0.0614 -0.3573
  938DOPS   C3B11004   7.892  29.146  11.016 -0.1041  0.5039 -0.1710
  938DOPS   C4B11005   7.907  28.752  10.877 -0.1549  0.3238  0.2683
  939POSM   NC311006   9.224  26.681  13.081  0.1353 -0.0515  0.0432
  939POSM   PO411007   9.542  26.641  13.260  0.0129 -0.0578 -0.1432
  939POSM   AM111008   9.709  26.725  12.972  0.1002 -0.0949 -0.1188
  939POSM   AM211009   9.978  26.751  12.824 -0.1365  0.0678 -0.1472
  939POSM   T1A11010   9.575  26.620  12.494  0.0582  0.3803 -0.0581
  939POSM   C2A11011   9.407  26.480  12.067 -0.1375 -0.0175  0.3601
  939POSM   C3A11012   9.291  26.342  11.654 -0.0116  0.1718  0.0420
  939POSM   C1B11013  10.034  26.478  12.624  0.0661  0.3125  0.2330
  939POSM   D2B11014  10.014  26.306  12.173  0.1155 -0.0071  0.3511
  939POSM   C3B11015   9.795  26.426  11.765 -0.0766 -0.0448 -0.0180
  939POSM   C4B11016   9.681  26.649  11.362  0.0365 -0.3073 -0.2375
  940POSM   NC311017   6.457  24.718  12.906 -0.1491  0.2204 -0.2189
  940POSM   PO411018   6.524  25.074  13.064  0.2321  0.1885  0.1977
  940POSM   AM111019   6.445  25.131  12.745 -0.2522 -0.2538 -0.0314
  940POSM   AM211020   6.573  25.274  12.534  0.0238  0.0848  0.2433
  940POSM   T1A11021   6.319  24.997  12.240 -0.4496 -0.0109 -0.0184
  940POSM   C2A11022   6.179  25.010  11.815 -0.1310  0.1026  0.0727
  940POSM   C3A11023   6.020  24.852  11.431 -0.2418 -0.1571 -0.0586
  940POSM   C1B11024   6.725  25.557  12.373  0.0741  0.1887 -0.0424
  940POSM   D2B11025   6.757  25.892  12.121 -0.1723 -0.2283 -0.0379
  940POSM   C3B11026   6.760  25.705  11.723 -0.2107  0.4734  0.0529
  940POSM   C4B11027   6.908  25.400  11.382 -0.0543 -0.0749 -0.0282
  941POSM   NC311028   1.746  31.695  13.709 -0.0318  0.0852  0.1723
  941POSM   PO411029   1.362  31.812  13.707 -0.0092  0.1346  0.0314
  941POSM   AM111030   1.245  31.738  13.425 -0.1797 -0.0745  0.3031
  941POSM   AM211031   1.061  31.614  13.269  0.1004  0.0140 -0.1546
  941POSM   T1A11032   1.188  31.934  12.930  0.0973  0.0053 -0.1052
  941POSM   C2A11033   1.198  31.991  12.472  0.0551 -0.1856 -0.1781
  941POSM   C3A11034   1.108  31.766  12.070 -0.1077 -0.1225  0.1050
  941POSM   C1B11035   0.864  31.560  12.987  0.6024  0.0946  0.4333
  941POSM   D2B11036   0.612  31.233  12.728 -0.1836 -0.4716 -0.0177
  941POSM   C3B11037   0.476  31.259  12.264  0.1025 -0.3629 -0.0345
  941POSM   C4B11038   0.358  31.122  11.801 -0.1861 -0.2296 -0.2711
  942DOPE   NH311039  10.569  30.214  13.535 -0.3064 -0.0684  0.2248
  942DOPE   PO411040  10.732  30.216  13.292  0.1161  0.0625  0.3273
  942DOPE   GL111041  10.888  30.318  12.811 -0.0628 -0.1042 -0.2183
  942DOPE   GL211042  11.150  30.442  12.890  0.0811 -0.0871  0.1718
  942DOPE   C1A11043  10.784  30.256  12.361  0.1378 -0.1511 -0.0194
  942DOPE   D2A11044  10.860  30.127  11.945  0.0751 -0.2783  0.1675
  942DOPE   C3A11045  10.895  30.400  11.576 -0.1268 -0.0076  0.0971
  942DOPE   C4A11046  11.276  30.599  11.435  0.3688 -0.5640 -0.1790
  942DOPE   C1B11047  11.343  30.385  12.514  0.2177 -0.1672  0.0706
  942DOPE   D2B11048  11.704  30.199  12.262 -0.1930  0.0994 -0.2381
  942DOPE   C3B11049  11.748  30.439  11.825  0.5205  0.3087  0.0382
  942DOPE   C4B11050  11.956  30.533  11.448 -0.3778  0.0683  0.0774
  943DOPE   NH311051  34.564  32.755  13.527  0.2036 -0.1330 -0.2520
  943DOPE   PO411052  34.882  32.628  13.530 -0.0411  0.0146 -0.1946
  943DOPE   GL111053  35.078  32.529  13.198 -0.1640 -0.1752 -0.0225
  943DOPE   GL211054  35.384  32.642  13.322 -0.2661  0.4087  0.0685
  943DOPE   C1A11055  35.024  32.456  12.722  0.2996  0.4957 -0.1626
  943DOPE   D2A11056  34.940  32.543  12.230 -0.2328 -0.0045  0.1103
  943DOPE   C3A11057  35.006  32.178  11.898  0.1640  0.0880 -0.2369
  943DOPE   C4A11058  35.251  31.963  11.500 -0.2329  0.1616 -0.0566
  943DOPE   C1B11059  35.339  32.857  12.850 -0.1808 -0.1927  0.0527
  943DOPE   D2B11060  35.321  32.880  12.410  0.3096  0.0704 -0.0448
  943DOPE   C3B11061  35.483  32.555  12.092 -0.1970 -0.0767  0.1615
  943DOPE   C4B11062  35.484  32.134  11.956 -0.4401 -0.0771 -0.1986
  944DOPS   CNO11063  10.834  21.303  13.942 -0.1789 -0.2755 -0.3086
  944DOPS   PO411064  10.564  21.580  13.852  0.0138 -0.1760 -0.0593
  944DOPS   GL111065  10.411  21.666  13.494 -0.0214  0.0495  0.2198
  944DOPS   GL211066  10.534  21.426  13.297 -0.0416  0.0438 -0.1212
  944DOPS   C1A11067  10.582  21.985  13.214  0.2853  0.0185 -0.4779
  944DOPS   D2A11068  10.618  22.204  12.812  0.2368 -0.0904 -0.0365
  944DOPS   C3A11069  10.264  22.204  12.526  0.0941  0.1025 -0.2487
  944DOPS   C4A11070   9.868  22.085  12.334  0.0248  0.0950 -0.0870
  944DOPS   C1B11071  10.622  21.380  12.798 -0.3329 -0.5357  0.0304
  944DOPS   D2B11072  10.656  21.371  12.316  0.2076 -0.1886  0.3431
  944DOPS   C3B11073  10.754  20.929  12.295  0.1043 -0.4738 -0.0638
  944DOPS   C4B11074  10.863  20.552  12.508 -0.2255 -0.2793 -0.1578
  945DOPS   CNO11075  32.715  29.002  13.629 -0.0713 -0.0867 -0.3487
  945DOPS   PO411076  32.697  29.017  13.232  0.0382 -0.1305 -0.2164
  945DOPS   GL111077  32.669  28.793  12.772  0.5620 -0.1673  0.1456
  945DOPS   GL211078  32.886  28.907  12.607 -0.0010  0.1878 -0.3570
  945DOPS   C1A11079  32.596  28.543  12.366  0.2032 -0.3315  0.2308
  945DOPS   D2A11080  32.688  28.644  11.918 -0.0972  0.2012 -0.1301
  945DOPS   C3A11081  32.380  28.490  11.614 -0.1469  0.2662  0.3407
  945DOPS   C4A11082  31.969  28.735  11.641 -0.0255  0.0220 -0.1257
  945DOPS   C1B11083  32.789  29.060  12.180 -0.0493  0.1641  0.0529
  945DOPS   D2B11084  32.917  29.253  11.741 -0.4064 -0.3708 -0.4267
  945DOPS   C3B11085  33.216  29.317  11.386  0.0258 -0.3326  0.1926
  945DOPS   C4B11086  33.595  29.234  11.187  0.0218 -0.1151 -0.1868
  946DOPE   NH311087   6.600  31.518  13.152 -0.0322  0.1293  0.0432
  946DOPE   PO411088   6.411  31.337  12.983 -0.2051 -0.0664  0.1254
  946DOPE   GL111089   6.350  31.213  12.654 -0.1305 -0.1030 -0.0590
  946DOPE   GL211090   6.560  31.043  12.596 -0.1429 -0.0968 -0.3363
  946DOPE   C1A11091   5.974  31.222  12.354  0.0343  0.0328  0.0689
  946DOPE   D2A11092   5.588  31.188  12.144 -0.1264 -0.0166  0.1494
  946DOPE   C3A11093   5.425  31.488  11.917  0.4150  0.0396  0.0656
  946DOPE   C4A11094   5.328  31.847  11.595 -0.0944  0.1892  0.2606
  946DOPE   C1B11095   6.470  31.164  12.136  0.0611 -0.0491 -0.0245
  946DOPE   D2B11096   6.135  31.248  11.807 -0.0268 -0.0321  0.0137
  946DOPE   C3B11097   6.317  31.458  11.424 -0.1613  0.0672  0.3065
  946DOPE   C4B11098   6.560  31.801  11.202 -0.3047 -0.3777  0.3021
  947DOPC   NC311099   6.525  31.991  13.202 -0.2562  0.0707  0.0683
  947DOPC   PO411100   6.774  31.892  13.481  0.4115  0.0255  0.2234
  947DOPC   GL111101   6.838  32.287  13.425 -0.1608 -0.0862  0.2180
  947DOPC   GL211102   7.053  32.287  13.609  0.0918 -0.3040  0.1293
  947DOPC   C1A11103   6.827  32.343  12.938 -0.2761 -0.3558 -0.2451
  947DOPC   D2A11104   7.141  32.333  12.548 -0.1009 -0.1592  0.0490
  947DOPC   C3A11105   7.188  32.425  12.068 -0.1255 -0.2203  0.0676
  947DOPC   C4A11106   7.191  32.350  11.600 -0.1168 -0.0041 -0.2253
  947DOPC   C1B11107   7.261  32.506  13.228  0.1609  0.3232 -0.1949
  947DOPC   D2B11108   7.537  32.605  12.901 -0.1581  0.0716  0.1789
  947DOPC   C3B11109   7.424  32.693  12.486  0.1095 -0.0209  0.1145
  947DOPC   C4B11110   7.120  32.881  12.243 -0.4131 -0.0827  0.1470
  948DOPE   NH311111   6.554  28.941  13.322  0.2934  0.0718 -0.2350
  948DOPE   PO411112   6.708  28.732  13.114  0.0360  0.1633 -0.1847
  948DOPE   GL111113   6.653  28.900  12.795 -0.3997 -0.2997 -0.3030
  948DOPE   GL211114   6.428  29.027  12.681 -0.2688 -0.0939  0.1444
  948DOPE   C1A11115   6.774  29.015  12.371  0.1302 -0.2648  0.1665
  948DOPE   D2A11116   7.022  29.133  12.031 -0.0419  0.1289 -0.3075
  948DOPE   C3A11117   7.179  28.949  11.662 -0.2601  0.1943  0.1386
  948DOPE   C4A11118   7.195  28.511  11.545 -0.0556 -0.0743 -0.0969
  948DOPE   C1B11119   6.075  29.351  12.667  0.0528 -0.2434 -0.1399
  948DOPE   D2B11120   5.659  29.285  12.841  0.2243  0.1246 -0.2362
  948DOPE   C3B11121   5.477  29.720  12.964 -0.3099  0.0736 -0.0438
  948DOPE   C4B11122   5.335  29.941  12.589 -0.2113  0.1648 -0.1106
  949DOPC   NC311123  32.320  25.618  13.088  0.0425 -0.0229 -0.1585
  949DOPC   PO411124  32.507  25.338  13.250 -0.0394  0.1336 -0.1522
  949DOPC   GL111125  32.573  25.207  12.880 -0.3364  0.2899 -0.2582
  949DOPC   GL211126  32.408  24.969  12.849  0.3575  0.4848 -0.1395
  949DOPC   C1A11127  32.429  25.508  12.566  0.1177 -0.0714 -0.2077
  949DOPC   D2A11128  32.004  25.685  12.470  0.1967 -0.3626  0.0024
  949DOPC   C3A11129  32.028  25.523  12.146 -0.1556 -0.1929 -0.0396
  949DOPC   C4A11130  32.293  25.446  11.750 -0.2139  0.4610  0.1757
  949DOPC   C1B11131  32.592  24.946  12.438 -0.2511 -0.0322 -0.0216
  949DOPC   D2B11132  32.409  25.029  12.000 -0.0894  0.1740  0.0333
  949DOPC   C3B11133  32.795  25.005  11.764  0.3464 -0.1267 -0.3437
  949DOPC   C4B11134  32.868  25.040  11.335 -0.1865  0.2477  0.0013
  950DOPE   NH311135   8.749  27.460  13.486 -0.0364  0.0174  0.1443
  950DOPE   PO411136   8.981  27.243  13.402 -0.1423 -0.0062 -0.2823
  950DOPE   GL111137   8.889  27.183  12.927 -0.3238 -0.1435 -0.1989
  950DOPE   GL211138   9.041  27.445  12.812  0.0214  0.0258 -0.1752
  950DOPE   C1A11139   8.664  27.007  12.604 -0.0123 -0.2111  0.1668
  950DOPE   D2A11140   8.602  27.168  12.194 -0.0989  0.2034 -0.1278
  950DOPE   C3A11141   8.349  26.904  11.915  0.1279  0.1410 -0.0210
  950DOPE   C4A11142   8.178  26.684  11.576 -0.0871  0.0444 -0.0517
  950DOPE   C1B11143   9.030  27.422  12.346 -0.0104 -0.0305 -0.0374
  950DOPE   D2B11144   9.051  27.598  11.922 -0.1114 -0.4995 -0.0060
  950DOPE   C3B11145   9.397  27.363  11.742 -0.2276  0.3341 -0.0242
  950DOPE   C4B11146   9.737  27.294  11.384  0.0260  0.1179 -0.1353
  951DOPE   NH311147  10.458  27.625  12.930 -0.0678  0.0982  0.1842
  951DOPE   PO411148  10.730  27.803  12.820 -0.1497 -0.3159  0.1359
  951DOPE   GL111149  10.843  27.608  12.508  0.1515 -0.3093 -0.0356
  951DOPE   GL211150  10.910  27.879  12.360 -0.0237  0.1486  0.0316
  951DOPE   C1A11151  10.648  27.631  12.056  0.0029  0.1672 -0.0527
  951DOPE   D2A11152  10.664  27.641  11.666  0.0819 -0.2407 -0.1357
  951DOPE   C3A11153  10.444  27.713  11.296 -0.1645  0.1343 -0.0596
  951DOPE   C4A11154  10.058  27.545  11.059 -0.1343  0.0445 -0.0679
  951DOPE   C1B11155  10.877  28.343  12.245  0.2122 -0.2126  0.1443
  951DOPE   D2B11156  10.621  28.765  12.224 -0.1210 -0.0060 -0.3514
  951DOPE   C3B11157  10.670  29.115  11.954  0.0410  0.0235 -0.0790
  951DOPE   C4B11158  10.553  29.320  11.569  0.0012 -0.1025  0.1214
  952DOPC   NC311159   2.603  25.294  13.186  0.2702  0.0006  0.2424
  952DOPC   PO411160   2.263  25.204  13.347 -0.0819 -0.0298 -0.2693
  952DOPC   GL111161   2.279  25.203  12.814 -0.3216 -0.0456 -0.2331
  952DOPC   GL211162   1.982  25.167  12.798 -0.2212  0.0863 -0.0419
  952DOPC   C1A11163   2.316  25.282  12.322  0.0324 -0.1555 -0.2255
  952DOPC   D2A11164   2.506  25.427  11.967 -0.1025 -0.2089 -0.2025
  952DOPC   C3A11165   2.337  25.254  11.597  0.0374  0.2238 -0.1733
  952DOPC   C4A11166   2.086  24.939  11.444  0.0146  0.0730 -0.0727
  952DOPC   C1B11167   1.863  25.138  12.347 -0.1470  0.1663 -0.0312
  952DOPC   D2B11168   2.005  25.262  11.933 -0.1964 -0.0403 -0.2294
  952DOPC   C3B11169   1.677  25.174  11.689 -0.0729  0.1468 -0.2983
  952DOPC   C4B11170   1.237  25.186  11.591 -0.2665 -0.1969 -0.2023
  953DOPC   NC311171  12.474  26.917  13.492  0.1558 -0.2261  0.0962
  953DOPC   PO411172  12.430  27.066  13.140  0.1335 -0.2146  0.1266
  953DOPC   GL111173  12.637  26.941  12.785  0.1362  0.4481 -0.1286
  953DOPC   GL211174  12.812  27.248  12.782  0.1158 -0.1857  0.0138
  953DOPC   C1A11175  12.919  26.813  12.459  0.0707 -0.2176  0.2271
  953DOPC   D2A11176  12.998  26.825  12.034 -0.1727 -0.1526  0.2277
  953DOPC   C3A11177  13.011  26.406  11.788  0.0255 -0.1230 -0.0669
  953DOPC   C4A11178  13.246  26.173  11.528 -0.2901  0.1972 -0.0791
  953DOPC   C1B11179  13.024  27.444  12.396 -0.0944 -0.5579  0.2780
  953DOPC   D2B11180  13.190  27.846  12.155 -0.2115  0.0138 -0.0600
  953DOPC   C3B11181  12.891  28.188  12.078 -0.1435 -0.0819 -0.1138
  953DOPC   C4B11182  12.692  28.608  11.898 -0.0689  0.1074  0.1624
  954DOPE   NH311183   6.038  24.592  13.815  0.1824  0.0940  0.2048
  954DOPE   PO411184   5.961  24.447  13.530  0.3709  0.0169  0.4014
  954DOPE   GL111185   5.933  24.480  13.206  0.3339  0.1558  0.0003
  954DOPE   GL211186   5.748  24.250  13.065 -0.0928 -0.0427 -0.0913
  954DOPE   C1A11187   6.132  24.325  12.762  0.0458 -0.1076 -0.3352
  954DOPE   D2A11188   6.444  24.400  12.522  0.1388  0.0667 -0.4647
  954DOPE   C3A11189   6.348  24.095  12.185  0.0471 -0.0261 -0.1238
  954DOPE   C4A11190   6.217  23.890  11.787  0.1162 -0.0176  0.1570
  954DOPE   C1B11191   5.446  24.221  12.699  0.1615 -0.2042  0.1998
  954DOPE   D2B11192   5.416  23.876  12.326  0.0472  0.1426 -0.2190
  954DOPE   C3B11193   5.455  23.429  12.105 -0.0616  0.0993  0.1926
  954DOPE   C4B11194   5.500  23.120  11.791  0.1124 -0.0616  0.0061
  955DOPE   NH311195  11.543  27.470  13.371 -0.3290  0.1256 -0.1819
  955DOPE   PO411196  11.654  27.487  13.060 -0.4482  0.0643  0.0378
  955DOPE   GL111197  11.723  27.571  12.775  0.1271 -0.3040  0.1113
  955DOPE   GL211198  11.687  27.277  12.627 -0.1933  0.1541  0.2463
  955DOPE   C1A11199  11.594  27.695  12.341 -0.0535 -0.0562 -0.2319
  955DOPE   D2A11200  11.764  27.583  11.931 -0.0930 -0.0817 -0.0684
  955DOPE   C3A11201  12.108  27.301  12.074 -0.2551 -0.0571  0.0604
  955DOPE   C4A11202  12.088  26.851  11.981  0.1472 -0.1683 -0.1494
  955DOPE   C1B11203  11.594  27.205  12.175  0.1179 -0.1082 -0.1664
  955DOPE   D2B11204  11.247  26.945  11.986 -0.1582  0.0488  0.1548
  955DOPE   C3B11205  11.200  26.807  11.561 -0.0261 -0.2986  0.1469
  955DOPE   C4B11206  11.173  26.974  11.175  0.1304 -0.0903  0.1708
  956DOPS   CNO11207   0.778  28.885  13.611  0.0165 -0.0999  0.0239
  956DOPS   PO411208   0.533  28.949  13.322 -0.1672  0.1208 -0.1252
  956DOPS   GL111209   0.499  29.164  12.859  0.5416 -0.2462  0.1473
  956DOPS   GL211210   0.299  29.276  13.020 -0.0055  0.0012  0.1254
  956DOPS   C1A11211   0.497  29.047  12.418  0.0231  0.4117 -0.0132
  956DOPS   D2A11212   0.703  29.233  12.016  0.0792 -0.3902 -0.2583
  956DOPS   C3A11213   0.955  29.034  11.695 -0.0762 -0.1203  0.0281
  956DOPS   C4A11214   1.105  28.979  11.266  0.0400 -0.0663 -0.1459
  956DOPS   C1B11215   0.308  29.438  12.591  0.0603  0.1820 -0.1704
  956DOPS   D2B11216   0.160  29.839  12.320  0.2243 -0.2648  0.0701
  956DOPS   C3B11217   0.380  30.019  11.905 -0.0887  0.1389 -0.0895
  956DOPS   C4B11218   0.293  30.172  11.465 -0.3123  0.3200 -0.1623
  957POSM   NC311219   5.879  30.908  13.541  0.0759 -0.1101  0.1021
  957POSM   PO411220   5.895  31.291  13.593 -0.2017 -0.0501 -0.0406
  957POSM   AM111221   5.778  31.308  13.282  0.3850  0.0862 -0.0946
  957POSM   AM211222   5.875  31.214  13.020  0.0692 -0.3022 -0.0149
  957POSM   T1A11223   5.450  31.565  12.931 -0.0290 -0.0548  0.1313
  957POSM   C2A11224   5.501  31.611  12.471 -0.0792 -0.2012 -0.2223
  957POSM   C3A11225   5.494  31.933  12.130 -0.0192 -0.0284  0.4702
  957POSM   C1B11226   5.726  30.979  12.796  0.1296  0.0295 -0.4218
  957POSM   D2B11227   5.683  30.795  12.382  0.1269  0.5081  0.0246
  957POSM   C3B11228   5.584  30.528  12.012 -0.0373 -0.2999 -0.1765
  957POSM   C4B11229   5.392  30.287  11.606  0.1295 -0.0638 -0.0481
  958DOPC   NC311230   0.710  28.732  12.845  0.1090  0.2411  0.0677
  958DOPC   PO411231   0.319  28.711  12.965  0.0183  0.3808 -0.2920
  958DOPC   GL111232   0.216  28.421  12.601 -0.1282  0.3680 -0.2993
  958DOPC   GL211233   0.043  28.557  12.413 -0.0504 -0.3410  0.0737
  958DOPC   C1A11234   0.346  28.274  12.185  0.0852  0.0776 -0.2303
  958DOPC   D2A11235   0.618  28.172  11.793  0.0287 -0.1107 -0.2481
  958DOPC   C3A11236   0.447  27.854  11.533 -0.1102  0.1802  0.0602
  958DOPC   C4A11237   0.424  27.526  11.797  0.0511 -0.1346  0.2131
  958DOPC   C1B11238  -0.138  28.310  12.036 -0.0166  0.0107 -0.0926
  958DOPC   D2B11239  -0.111  28.256  11.596 -0.1250 -0.0424 -0.2190
  958DOPC   C3B11240  -0.473  28.222  11.271 -0.0465 -0.0857 -0.2547
  958DOPC   C4B11241  -0.777  28.400  10.924  0.1760  0.1922 -0.1621
  959DOPC   NC311242   0.053  27.326  12.934  0.4686  0.0455 -0.0559
  959DOPC   PO411243  -0.205  27.534  13.157  0.1763  0.2289  0.1855
  959DOPC   GL111244  -0.096  27.788  12.816 -0.1418 -0.0669  0.2096
  959DOPC   GL211245  -0.002  28.063  12.818  0.2891 -0.0851  0.0948
  959DOPC   C1A11246  -0.091  27.918  12.338 -0.0206 -0.3603 -0.1306
  959DOPC   D2A11247   0.125  27.900  11.918  0.1988 -0.3252 -0.0305
  959DOPC   C3A11248  -0.014  27.617  11.586 -0.0760  0.1803  0.0496
  959DOPC   C4A11249   0.037  27.185  11.590  0.0488 -0.1401  0.1008
  959DOPC   C1B11250   0.361  27.964  12.571  0.1335 -0.2539  0.2816
  959DOPC   D2B11251   0.720  28.034  12.278  0.0281 -0.2770 -0.4224
  959DOPC   C3B11252   0.864  27.784  11.926 -0.0171 -0.2540 -0.2115
  959DOPC   C4B11253   1.122  27.525  11.583  0.4615  0.0372 -0.1083
  960DOPS   CNO11254   4.841  23.422  13.642  0.1611 -0.0946 -0.0846
  960DOPS   PO411255   4.834  23.808  13.602 -0.0127 -0.0150 -0.1030
  960DOPS   GL111256   5.051  23.648  13.322 -0.2576  0.0968  0.0574
  960DOPS   GL211257   4.895  23.658  13.062 -0.1057 -0.1327  0.1183
  960DOPS   C1A11258   5.218  23.251  13.167 -0.0835  0.0332  0.1070
  960DOPS   D2A11259   4.956  23.084  12.834 -0.1944  0.0714  0.0516
  960DOPS   C3A11260   4.608  23.296  12.685  0.3008  0.1249  0.0956
  960DOPS   C4A11261   4.245  23.442  12.406  0.0564  0.0782 -0.0110
  960DOPS   C1B11262   4.998  23.986  12.718  0.2098 -0.1501 -0.0271
  960DOPS   D2B11263   5.010  24.210  12.311 -0.0835 -0.0056  0.0808
  960DOPS   C3B11264   4.602  24.231  12.386  0.0860  0.3875  0.0124
  960DOPS   C4B11265   4.225  24.358  12.604  0.0038  0.1867  0.2181
  961DOPC   NC311266  10.655  34.593  14.895  0.1719 -0.0568 -0.2663
  961DOPC   PO411267  10.471  34.632  14.500 -0.1447  0.0368 -0.4383
  961DOPC   GL111268  10.473  34.676  14.054 -0.0441 -0.1400  0.2374
  961DOPC   GL211269  10.791  34.683  14.072  0.0156  0.0363  0.0046
  961DOPC   C1A11270  10.431  34.535  13.627  0.2135 -0.1550  0.2098
  961DOPC   D2A11271  10.362  34.597  13.135 -0.1309  0.1810  0.1121
  961DOPC   C3A11272  10.401  34.964  12.840 -0.1281  0.0417 -0.2678
  961DOPC   C4A11273  10.372  35.388  13.005  0.3116  0.2672 -0.0134
  961DOPC   C1B11274  10.764  34.276  13.895 -0.2135  0.1003  0.0079
  961DOPC   D2B11275  10.746  33.950  13.595  0.2537 -0.2975  0.1759
  961DOPC   C3B11276  11.124  33.971  13.293 -0.2535  0.1911 -0.0470
  961DOPC   C4B11277  11.449  34.260  13.131 -0.3069  0.2000  0.1616
  962POSM   NC311278   7.552  25.353  13.208 -0.0376  0.0278 -0.2532
  962POSM   PO411279   7.553  25.677  12.985  0.0831  0.0969 -0.2635
  962POSM   AM111280   7.635  25.587  12.704 -0.1618 -0.1994 -0.4187
  962POSM   AM211281   7.833  25.684  12.529  0.0921 -0.1359  0.1093
  962POSM   T1A11282   7.603  25.466  12.208  0.1220  0.1992  0.1183
  962POSM   C2A11283   7.459  25.145  11.866 -0.2117 -0.3684 -0.0164
  962POSM   C3A11284   7.398  24.878  11.504  0.0497 -0.3191 -0.1887
  962POSM   C1B11285   8.079  25.521  12.367 -0.0191  0.1805 -0.0824
  962POSM   D2B11286   8.426  25.172  12.374  0.0859 -0.2112 -0.3375
  962POSM   C3B11287   8.377  24.769  12.097 -0.1487  0.1515 -0.2918
  962POSM   C4B11288   8.226  24.533  11.718  0.2850  0.2054 -0.0380
  963DOPC   NC311289   3.136  23.429  13.370  0.1269  0.1948 -0.1475
  963DOPC   PO411290   3.036  23.237  13.698  0.0431  0.1105  0.2822
  963DOPC   GL111291   3.212  22.937  13.372  0.4232 -0.0374  0.2076
  963DOPC   GL211292   3.342  22.672  13.311  0.0650  0.1346 -0.1541
  963DOPC   C1A11293   3.125  23.098  12.951 -0.0686  0.0951  0.0163
  963DOPC   D2A11294   2.964  23.510  12.801  0.0510  0.0295 -0.1365
  963DOPC   C3A11295   3.247  23.744  12.502 -0.1570 -0.1863  0.1956
  963DOPC   C4A11296   3.561  23.909  12.195 -0.0553 -0.0979 -0.2224
  963DOPC   C1B11297   3.574  22.901  12.957 -0.0783 -0.5363  0.1151
  963DOPC   D2B11298   3.505  23.270  12.660 -0.0767 -0.0954 -0.0006
  963DOPC   C3B11299   3.725  23.367  12.295 -0.0456  0.0383 -0.2945
  963DOPC   C4B11300   3.959  23.568  11.954 -0.1341 -0.1229  0.1076
  964DOPC   NC311301   7.169  23.719  13.573 -0.1712  0.0792  0.0473
  964DOPC   PO411302   6.811  23.579  13.715  0.1418 -0.0176  0.1365
  964DOPC   GL111303   6.799  23.603  13.329 -0.1476  0.0561  0.0436
  964DOPC   GL211304   6.623  23.817  13.219 -0.1422  0.0709  0.3036
  964DOPC   C1A11305   6.940  23.373  12.928  0.1546  0.1155  0.0679
  964DOPC   D2A11306   6.845  23.428  12.467 -0.1127  0.1192 -0.1373
  964DOPC   C3A11307   6.817  23.104  12.137  0.2272  0.0684 -0.1528
  964DOPC   C4A11308   6.893  22.800  11.789  0.3802 -0.4392 -0.0371
  964DOPC   C1B11309   6.459  23.420  13.063  0.1444 -0.1111  0.0105
  964DOPC   D2B11310   6.063  23.346  12.774 -0.0261 -0.1959  0.2031
  964DOPC   C3B11311   5.803  23.637  12.612 -0.1826  0.3260 -0.0046
  964DOPC   C4B11312   5.887  23.986  12.476  0.2157  0.1287 -0.0911
  965DOPE   NH311313   4.285  21.954  13.581  0.0886  0.2686 -0.0394
  965DOPE   PO411314   4.064  22.219  13.612 -0.3025 -0.1370 -0.0203
  965DOPE   GL111315   4.049  22.076  13.210  0.1677  0.2184 -0.1821
  965DOPE   GL211316   4.305  22.098  13.113 -0.0611  0.2581  0.0926
  965DOPE   C1A11317   3.828  21.995  12.769 -0.4712 -0.2034  0.1405
  965DOPE   D2A11318   3.639  22.105  12.348  0.0754 -0.1733 -0.0812
  965DOPE   C3A11319   3.987  22.017  12.067 -0.1273 -0.0775  0.0855
  965DOPE   C4A11320   4.238  22.051  11.668  0.1679  0.2690  0.1222
  965DOPE   C1B11321   4.340  22.247  12.677  0.2740  0.0638 -0.2318
  965DOPE   D2B11322   4.422  22.311  12.245  0.4761 -0.4651 -0.1853
  965DOPE   C3B11323   4.851  22.439  12.083 -0.0228  0.1504  0.0278
  965DOPE   C4B11324   5.209  22.194  11.843  0.0067 -0.0498 -0.2462
  966POSM   NC311325   6.350  22.114  13.244 -0.3171  0.0889 -0.3900
  966POSM   PO411326   6.616  21.847  13.191  0.2385 -0.0281  0.3575
  966POSM   AM111327   6.703  21.844  12.879 -0.1820  0.3085 -0.2488
  966POSM   AM211328   6.551  21.886  12.662  0.2170  0.0025  0.2633
  966POSM   T1A11329   6.919  21.639  12.467 -0.0592 -0.1518  0.4093
  966POSM   C2A11330   7.053  21.404  12.076 -0.0997 -0.1082 -0.2200
  966POSM   C3A11331   7.020  21.080  11.723 -0.1482 -0.1815 -0.1581
  966POSM   C1B11332   6.514  21.858  12.320  0.2164  0.0227 -0.0368
  966POSM   D2B11333   6.751  21.851  11.926  0.0176 -0.2393  0.1062
  966POSM   C3B11334   7.170  22.039  11.863  0.0890 -0.1674  0.2267
  966POSM   C4B11335   7.641  21.998  11.833 -0.1360  0.0838  0.2322
  967POSM   NC311336   2.873  30.166  12.907 -0.2505  0.0512 -0.2640
  967POSM   PO411337   2.851  29.777  13.061 -0.0398  0.2888 -0.0847
  967POSM   AM111338   2.606  29.655  12.907 -0.3697 -0.0534  0.0989
  967POSM   AM211339   2.472  29.444  12.685  0.1022 -0.2406  0.3890
  967POSM   T1A11340   2.149  29.804  12.738  0.0654  0.1346  0.0799
  967POSM   C2A11341   1.801  29.753  12.406  0.2378  0.1487 -0.4306
  967POSM   C3A11342   1.493  29.759  12.044 -0.3040 -0.0250 -0.0331
  967POSM   C1B11343   2.252  29.382  12.453 -0.0735  0.0753  0.2823
  967POSM   D2B11344   1.998  29.456  12.041 -0.1903  0.2312 -0.0284
  967POSM   C3B11345   1.964  29.931  11.978 -0.0555 -0.2131 -0.3550
  967POSM   C4B11346   1.891  30.288  11.740 -0.0471 -0.0998  0.1428
  968DOPE   NH311347   1.737  25.566  13.139 -0.0821  0.0024  0.0840
  968DOPE   PO411348   1.466  25.640  13.131  0.1104  0.0232  0.2615
  968DOPE   GL111349   1.498  25.754  12.802 -0.0909  0.3052 -0.3137
  968DOPE   GL211350   1.709  25.606  12.639 -0.1338 -0.1626  0.1235
  968DOPE   C1A11351   1.234  25.667  12.433  0.0866 -0.0294  0.1227
  968DOPE   D2A11352   1.199  25.975  12.076  0.0612 -0.0373  0.2149
  968DOPE   C3A11353   1.412  25.837  11.680 -0.0271 -0.1675 -0.0636
  968DOPE   C4A11354   1.109  25.659  11.360  0.1912 -0.0710 -0.0241
  968DOPE   C1B11355   1.729  25.607  12.119  0.0527 -0.1514  0.2400
  968DOPE   D2B11356   1.891  25.623  11.618 -0.0663  0.1171  0.0662
  968DOPE   C3B11357   1.629  25.432  11.270  0.0076  0.1004 -0.0521
  968DOPE   C4B11358   1.590  24.979  11.213 -0.2719  0.1598  0.1606
  969POSM   NC311359  33.775  25.918  13.469  0.0458 -0.0735 -0.2530
  969POSM   PO411360  33.692  26.262  13.262 -0.0789 -0.3138  0.0703
  969POSM   AM111361  33.623  26.143  12.966 -0.0438 -0.0777  0.1652
  969POSM   AM211362  33.802  26.147  12.734  0.1136  0.1183 -0.3449
  969POSM   T1A11363  33.266  26.090  12.616 -0.0355  0.4013 -0.1082
  969POSM   C2A11364  33.361  25.945  12.186 -0.1126  0.0853 -0.2775
  969POSM   C3A11365  33.491  25.603  11.895  0.2256 -0.2532 -0.0948
  969POSM   C1B11366  33.716  26.206  12.441  0.0790  0.0050 -0.0876
  969POSM   D2B11367  33.789  26.137  12.020  0.2881  0.0205  0.1522
  969POSM   C3B11368  33.458  26.084  11.687  0.2707  0.3411 -0.0600
  969POSM   C4B11369  33.207  25.918  11.355  0.2735 -0.4294  0.0184
  970DOPE   NH311370   5.990  33.772  13.566 -0.0614 -0.2867 -0.3391
  970DOPE   PO411371   6.202  33.531  13.543  0.0647  0.1693 -0.0687
  970DOPE   GL111372   6.198  33.559  13.115 -0.0126 -0.1232 -0.4078
  970DOPE   GL211373   6.164  33.284  13.100  0.0618 -0.1119 -0.2076
  970DOPE   C1A11374   6.498  33.709  12.805 -0.1463 -0.1418 -0.0184
  970DOPE   D2A11375   6.903  33.804  12.955  0.0155  0.1393  0.2800
  970DOPE   C3A11376   7.262  33.899  12.685  0.0711 -0.1915  0.0652
  970DOPE   C4A11377   7.700  33.659  12.719 -0.2809 -0.1523 -0.1470
  970DOPE   C1B11378   5.969  33.180  12.719 -0.0304  0.1441 -0.2163
  970DOPE   D2B11379   5.727  33.280  12.419 -0.0089 -0.0520  0.3649
  970DOPE   C3B11380   5.830  33.487  12.087  0.1832  0.1600  0.0301
  970DOPE   C4B11381   6.207  33.393  11.922 -0.3159 -0.2963 -0.2032
  971POSM   NC311382  32.797  27.783  13.534 -0.3733  0.1243  0.1020
  971POSM   PO411383  32.477  27.950  13.395 -0.1521 -0.3476  0.0670
  971POSM   AM111384  32.390  27.974  13.060 -0.1640 -0.2327 -0.0518
  971POSM   AM211385  32.158  27.863  12.907  0.1381  0.2492  0.0142
  971POSM   T1A11386  32.368  28.120  12.545 -0.0225 -0.1188 -0.0377
  971POSM   C2A11387  32.576  28.176  12.094  0.1554  0.0248  0.1540
  971POSM   C3A11388  32.785  28.191  11.631 -0.0871  0.0376 -0.0292
  971POSM   C1B11389  32.103  27.623  12.756  0.0667 -0.1059  0.2581
  971POSM   D2B11390  32.016  27.447  12.398  0.3276  0.0498  0.2214
  971POSM   C3B11391  32.187  27.845  12.169  0.1358  0.1560  0.4368
  971POSM   C4B11392  32.246  28.024  11.737 -0.1154  0.1401 -0.1077
  972DOPS   CNO11393   7.446  24.206  13.629  0.2546  0.0127 -0.0712
  972DOPS   PO411394   7.515  24.019  13.324 -0.0843 -0.2551 -0.1899
  972DOPS   GL111395   7.498  24.151  12.954 -0.2171 -0.0261  0.0214
  972DOPS   GL211396   7.564  24.349  12.794  0.1119 -0.0921 -0.2998
  972DOPS   C1A11397   7.263  24.030  12.554  0.1069 -0.2358 -0.4485
  972DOPS   D2A11398   6.967  24.277  12.290  0.1268 -0.2565 -0.0627
  972DOPS   C3A11399   7.005  24.582  11.946 -0.0666 -0.1904 -0.1144
  972DOPS   C4A11400   6.802  24.958  11.703  0.0865 -0.3900 -0.0390
  972DOPS   C1B11401   7.751  23.983  12.486  0.1222  0.0305 -0.1342
  972DOPS   D2B11402   8.086  23.677  12.546 -0.1458  0.0933  0.1047
  972DOPS   C3B11403   8.171  23.250  12.527  0.2436 -0.1335 -0.0557
  972DOPS   C4B11404   8.307  22.820  12.441  0.0034  0.0904  0.0948
  973DOPC   NC311405   5.770  30.132  13.010 -0.0217  0.2339  0.0417
  973DOPC   PO411406   5.844  30.472  13.220 -0.2224  0.0550  0.2926
  973DOPC   GL111407   5.971  30.601  12.950  0.2223 -0.4443 -0.3868
  973DOPC   GL211408   6.196  30.382  12.886 -0.0430 -0.2394 -0.0160
  973DOPC   C1A11409   6.132  30.756  12.519 -0.3121  0.3166  0.0036
  973DOPC   D2A11410   6.057  30.804  12.034 -0.2167 -0.2278  0.1037
  973DOPC   C3A11411   5.961  30.552  11.660 -0.3605 -0.4083  0.1141
  973DOPC   C4A11412   5.760  30.371  11.276 -0.0774  0.3209  0.2629
  973DOPC   C1B11413   6.136  30.223  12.452 -0.0129  0.1736 -0.0786
  973DOPC   D2B11414   6.072  30.182  11.992  0.1724  0.1538  0.1628
  973DOPC   C3B11415   5.830  30.012  11.640  0.1411 -0.3861  0.0069
  973DOPC   C4B11416   5.540  29.659  11.620  0.1903  0.1354 -0.1245
  974DOPS   CNO11417   0.806  34.519  13.659  0.0059  0.1598 -0.1902
  974DOPS   PO411418   0.609  34.432  13.338 -0.1840 -0.0260 -0.2965
  974DOPS   GL111419   0.756  34.252  12.957  0.1473  0.3006 -0.0893
  974DOPS   GL211420   0.866  34.508  12.773  0.0285  0.0466  0.0698
  974DOPS   C1A11421   0.757  33.988  12.588 -0.0279 -0.1056 -0.1460
  974DOPS   D2A11422   0.621  33.627  12.325  0.0308 -0.2082 -0.0320
  974DOPS   C3A11423   0.908  33.643  11.973  0.2105  0.4163  0.1053
  974DOPS   C4A11424   1.217  33.749  11.639 -0.1309 -0.1331 -0.1748
  974DOPS   C1B11425   0.938  34.332  12.346 -0.0883 -0.1237 -0.1038
  974DOPS   D2B11426   1.110  34.484  11.978  0.1975 -0.1314  0.3099
  974DOPS   C3B11427   1.036  34.946  11.932 -0.0857  0.2550 -0.0444
  974DOPS   C4B11428   1.147  35.333  11.634 -0.0856  0.3644 -0.4369
  975DOPE   NH311429   9.985  31.477  13.840  0.4130  0.0683  0.2156
  975DOPE   PO411430  10.155  31.255  13.710  0.0865 -0.1746 -0.4556
  975DOPE   GL111431  10.248  31.394  13.352 -0.2094 -0.3569 -0.0140
  975DOPE   GL211432  10.142  31.701  13.207  0.1603  0.2679  0.3718
  975DOPE   C1A11433  10.568  31.543  13.030  0.2057  0.1233 -0.0032
  975DOPE   D2A11434  10.761  31.848  12.710 -0.0934  0.0119  0.1278
  975DOPE   C3A11435  11.161  31.765  12.426 -0.0770 -0.3824  0.2231
  975DOPE   C4A11436  11.454  31.913  12.074 -0.1000  0.2722 -0.0823
  975DOPE   C1B11437  10.119  31.523  12.810 -0.2979  0.0614 -0.0521
  975DOPE   D2B11438   9.917  31.658  12.450 -0.0741  0.2083 -0.3097
  975DOPE   C3B11439   9.948  31.467  12.057 -0.2828  0.0650  0.0259
  975DOPE   C4B11440  10.026  31.563  11.647 -0.3006 -0.2653 -0.1091
  976DOPC   NC311441   1.046  26.424  13.241  0.1212  0.2147  0.0393
  976DOPC   PO411442   1.352  26.642  13.202 -0.1964 -0.0508  0.3178
  976DOPC   GL111443   1.411  26.862  12.919  0.1361 -0.2977  0.0797
  976DOPC   GL211444   1.326  27.177  12.938 -0.2132 -0.1473  0.1816
  976DOPC   C1A11445   1.359  26.833  12.481 -0.0552 -0.0841  0.0988
  976DOPC   D2A11446   1.561  27.073  12.132  0.1140  0.1599  0.1935
  976DOPC   C3A11447   1.534  27.472  11.963 -0.1951  0.0267 -0.1743
  976DOPC   C4A11448   1.955  27.728  11.937 -0.3235  0.2036  0.0492
  976DOPC   C1B11449   1.389  27.352  12.516  0.0210 -0.3721  0.0697
  976DOPC   D2B11450   1.146  27.262  12.177 -0.1828  0.1586  0.0020
  976DOPC   C3B11451   0.666  27.424  12.248 -0.1423 -0.3079 -0.0284
  976DOPC   C4B11452   0.209  27.474  12.394 -0.0365 -0.0557 -0.0528
  977DOPS   CNO11453  32.586  26.820  13.375 -0.0803  0.0019  0.1558
  977DOPS   PO411454  32.269  26.676  13.274  0.1399 -0.1654  0.1744
  977DOPS   GL111455  32.090  26.325  13.257 -0.3026 -0.3405  0.2983
  977DOPS   GL211456  31.787  26.404  13.331 -0.3396 -0.1823 -0.0324
  977DOPS   C1A11457  32.389  26.097  12.936  0.3122 -0.0471 -0.0620
  977DOPS   D2A11458  32.818  26.137  12.759  0.1756 -0.0431  0.1378
  977DOPS   C3A11459  32.889  26.259  12.295  0.0765  0.0461 -0.0303
  977DOPS   C4A11460  32.990  26.075  11.901  0.3197  0.2884  0.0698
  977DOPS   C1B11461  31.308  26.530  13.212 -0.1426  0.3429  0.1971
  977DOPS   D2B11462  31.039  26.536  12.845  0.3582 -0.1453 -0.1562
  977DOPS   C3B11463  30.881  26.552  12.396 -0.0663 -0.1395 -0.0374
  977DOPS   C4B11464  30.605  26.485  12.075  0.0683  0.2864  0.0290
  978DOPC   NC311465   0.694  25.779  13.141  0.0587 -0.2332 -0.1837
  978DOPC   PO411466   0.676  26.126  13.322  0.1354 -0.2437 -0.0669
  978DOPC   GL111467   0.644  26.284  12.952  0.2714 -0.1683  0.0994
  978DOPC   GL211468   0.617  26.490  12.775 -0.0904 -0.0771  0.0762
  978DOPC   C1A11469   0.729  26.013  12.598  0.1047  0.0745  0.2140
  978DOPC   D2A11470   0.742  25.948  12.124 -0.1612 -0.3724  0.2866
  978DOPC   C3A11471   0.862  25.700  11.802  0.1798 -0.0562 -0.3051
  978DOPC   C4A11472   0.760  25.310  11.511 -0.0913 -0.1372  0.0055
  978DOPC   C1B11473   0.483  26.509  12.325 -0.0478 -0.2657 -0.1109
  978DOPC   D2B11474   0.308  26.401  11.943 -0.0764 -0.0583 -0.4039
  978DOPC   C3B11475   0.469  26.066  11.695  0.0702 -0.0361  0.1941
  978DOPC   C4B11476   0.387  25.659  11.540 -0.1013  0.1225 -0.0864
  979DOPE   NH311477  10.164  30.640  13.287 -0.1887  0.0226 -0.1469
  979DOPE   PO411478  10.372  30.684  13.548  0.2376 -0.0227  0.3817
  979DOPE   GL111479  10.550  31.016  13.328  0.1003  0.1270 -0.0981
  979DOPE   GL211480  10.360  31.062  13.133 -0.1084 -0.1604  0.0352
  979DOPE   C1A11481  10.838  31.146  13.016  0.0014  0.2091 -0.4149
  979DOPE   D2A11482  10.938  31.349  12.554 -0.1199 -0.1032 -0.3392
  979DOPE   C3A11483  10.959  31.246  12.126 -0.1998  0.0837  0.0396
  979DOPE   C4A11484  10.925  30.933  11.758 -0.1705  0.0829  0.0229
  979DOPE   C1B11485  10.486  31.196  12.676 -0.3602 -0.0186  0.2396
  979DOPE   D2B11486  10.420  31.531  12.404 -0.0179  0.1107 -0.2234
  979DOPE   C3B11487  10.727  31.826  12.172  0.1120  0.0120  0.0647
  979DOPE   C4B11488  10.971  31.928  11.801  0.0213  0.0835 -0.1684
  980POSM   NC311489   6.420  30.792  13.041  0.1644  0.0702  0.2481
  980POSM   PO411490   6.755  31.030  13.132 -0.1283  0.1553 -0.3160
  980POSM   AM111491   6.869  31.191  12.874  0.2637 -0.0443 -0.2211
  980POSM   AM211492   6.842  31.457  12.742 -0.1629  0.0746 -0.0281
  980POSM   T1A11493   7.162  31.063  12.437 -0.0020 -0.4025  0.1384
  980POSM   C2A11494   7.423  31.036  12.054 -0.0611  0.2387  0.0134
  980POSM   C3A11495   7.884  31.147  11.949  0.0337 -0.0245 -0.2062
  980POSM   C1B11496   6.791  31.432  12.402 -0.0955  0.0961  0.0428
  980POSM   D2B11497   6.997  31.314  11.935  0.0611 -0.0534  0.2941
  980POSM   C3B11498   7.180  31.067  11.642 -0.3008  0.1163 -0.0727
  980POSM   C4B11499   7.458  30.837  11.325  0.0745 -0.1425  0.2011
  981DOPE   NH311500   4.789  30.397  13.410  0.0124 -0.0084 -0.1548
  981DOPE   PO411501   4.600  30.365  13.191 -0.1381 -0.0495  0.0732
  981DOPE   GL111502   4.620  30.448  12.781 -0.2077  0.3768 -0.0131
  981DOPE   GL211503   4.368  30.378  12.633 -0.1974 -0.1569 -0.1626
  981DOPE   C1A11504   4.902  30.219  12.534  0.2581  0.0780  0.1416
  981DOPE   D2A11505   4.887  29.845  12.196  0.2683  0.1864  0.0767
  981DOPE   C3A11506   4.981  30.023  11.749 -0.2684  0.0313 -0.1095
  981DOPE   C4A11507   5.027  30.047  11.315 -0.3974  0.0604  0.0105
  981DOPE   C1B11508   4.071  30.375  12.233  0.1305 -0.0443 -0.2406
  981DOPE   D2B11509   3.624  30.403  12.021  0.2848  0.4063  0.1294
  981DOPE   C3B11510   3.843  30.518  11.588  0.1408 -0.0144 -0.4877
  981DOPE   C4B11511   4.066  30.150  11.444  0.1551  0.1669 -0.0680
  982POSM   NC311512   6.276  27.587  13.107  0.1062  0.4363  0.0730
  982POSM   PO411513   6.179  27.325  13.327  0.0132 -0.0241  0.0170
  982POSM   AM111514   6.105  27.155  13.018 -0.1699 -0.0338  0.0099
  982POSM   AM211515   5.893  27.015  12.869  0.2862  0.1146 -0.1063
  982POSM   T1A11516   6.328  26.961  12.635 -0.0605  0.2223  0.0603
  982POSM   C2A11517   6.491  26.936  12.226 -0.1499  0.1428 -0.3651
  982POSM   C3A11518   6.487  26.834  11.851  0.1932 -0.0273 -0.0342
  982POSM   C1B11519   5.821  26.992  12.547 -0.2135 -0.2477 -0.1648
  982POSM   D2B11520   5.710  27.035  12.131 -0.1385 -0.1003 -0.3756
  982POSM   C3B11521   5.916  27.076  11.737 -0.0404  0.0994 -0.0761
  982POSM   C4B11522   6.001  27.211  11.249  0.0300  0.5304  0.0367
  983DOPC   NC311523  11.066  26.128  13.301 -0.0861  0.4725  0.2416
  983DOPC   PO411524  11.455  26.077  13.314 -0.0934 -0.1980  0.1948
  983DOPC   GL111525  11.357  26.020  12.961 -0.3746  0.0963 -0.0613
  983DOPC   GL211526  11.517  25.856  12.755  0.2212 -0.1106  0.0337
  983DOPC   C1A11527  11.350  26.335  12.611 -0.0996  0.2407  0.2045
  983DOPC   D2A11528  11.236  26.284  12.209  0.0430  0.0705 -0.0159
  983DOPC   C3A11529  11.532  26.155  11.921  0.2063 -0.0903  0.0607
  983DOPC   C4A11530  11.493  26.197  11.444 -0.1163  0.0818  0.0185
  983DOPC   C1B11531  11.720  25.988  12.416 -0.0028 -0.0937  0.2628
  983DOPC   D2B11532  11.739  25.758  12.081  0.0623 -0.0790  0.1219
  983DOPC   C3B11533  11.677  25.774  11.610  0.0477  0.1529  0.0242
  983DOPC   C4B11534  11.933  25.817  11.190  0.0095 -0.0566  0.0878
  984DOPE   NH311535   7.877  29.442  12.627 -0.0350  0.0944  0.0044
  984DOPE   PO411536   8.037  29.584  12.389  0.2950  0.1815 -0.1585
  984DOPE   GL111537   7.906  29.714  12.133  0.3417 -0.2682 -0.0396
  984DOPE   GL211538   7.897  30.006  12.162 -0.1304  0.0303  0.2447
  984DOPE   C1A11539   8.081  29.757  11.701 -0.1504  0.2148  0.0540
  984DOPE   D2A11540   8.281  29.887  11.313  0.1908 -0.1696 -0.0653
  984DOPE   C3A11541   8.020  30.248  11.159  0.0320  0.0570 -0.2709
  984DOPE   C4A11542   7.928  30.643  11.355 -0.2388 -0.0491  0.2876
  984DOPE   C1B11543   8.279  30.109  11.995  0.1599  0.0971  0.2796
  984DOPE   D2B11544   8.726  30.234  12.106  0.1624  0.0282  0.2155
  984DOPE   C3B11545   8.856  30.377  11.726 -0.1673 -0.1279  0.1438
  984DOPE   C4B11546   8.683  30.692  11.377 -0.0653  0.0006 -0.3816
  985POSM   NC311547   4.119  22.741  13.675  0.1683  0.1660  0.0613
  985POSM   PO411548   3.854  22.953  13.508 -0.1615  0.0831  0.0351
  985POSM   AM111549   3.818  22.720  13.274  0.3462  0.0868 -0.2310
  985POSM   AM211550   3.982  22.538  13.128 -0.3660 -0.1489  0.3295
  985POSM   T1A11551   3.566  22.362  12.968 -0.1135  0.0221  0.0975
  985POSM   C2A11552   3.276  22.108  12.715  0.1006  0.0323  0.0536
  985POSM   C3A11553   2.977  22.381  12.478 -0.0058 -0.1848 -0.0733
  985POSM   C1B11554   3.979  22.623  12.763 -0.2404 -0.1678  0.2128
  985POSM   D2B11555   3.692  22.637  12.397  0.1405 -0.2856  0.0665
  985POSM   C3B11556   3.895  22.548  11.953  0.0315  0.0267  0.0687
  985POSM   C4B11557   4.359  22.634  11.906 -0.1097  0.0862  0.2356
  986DOPE   NH311558   8.958  30.286  13.048  0.2089 -0.0955 -0.0093
  986DOPE   PO411559   8.953  30.594  13.071  0.0814  0.1273 -0.2520
  986DOPE   GL111560   9.006  30.624  12.710  0.1282  0.1632  0.0080
  986DOPE   GL211561   8.978  30.937  12.656 -0.0016 -0.2782  0.0365
  986DOPE   C1A11562   8.643  30.643  12.404  0.3418  0.1177 -0.0476
  986DOPE   D2A11563   8.571  30.730  11.953 -0.0572  0.2039 -0.0544
  986DOPE   C3A11564   8.192  30.549  11.742 -0.0235  0.1691 -0.2106
  986DOPE   C4A11565   7.806  30.275  11.696  0.1888  0.1403 -0.1602
  986DOPE   C1B11566   9.375  31.084  12.723  0.0740  0.1185 -0.0283
  986DOPE   D2B11567   9.618  31.206  12.420 -0.1488 -0.2176 -0.0355
  986DOPE   C3B11568   9.440  31.546  12.127 -0.1977  0.0254  0.2150
  986DOPE   C4B11569   9.010  31.535  11.869  0.0123 -0.0990 -0.0013
  987DOPE   NH311570   0.709  27.952  13.334  0.0327 -0.1615 -0.2288
  987DOPE   PO411571   0.869  27.914  13.066 -0.0736  0.2920 -0.2878
  987DOPE   GL111572   0.994  27.728  12.785 -0.1386  0.3519 -0.4161
  987DOPE   GL211573   1.294  27.774  12.813 -0.2139  0.1574 -0.2282
  987DOPE   C1A11574   0.914  27.275  12.664 -0.0856 -0.0326 -0.1934
  987DOPE   D2A11575   0.832  26.962  12.330  0.0553  0.3078  0.1605
  987DOPE   C3A11576   0.743  27.088  11.874 -0.3083  0.2154 -0.3522
  987DOPE   C4A11577   0.946  27.057  11.480 -0.2493 -0.0892 -0.0507
  987DOPE   C1B11578   1.173  27.780  12.362  0.0045 -0.2539  0.1257
  987DOPE   D2B11579   1.480  27.978  12.033 -0.1649 -0.0215  0.3218
  987DOPE   C3B11580   1.200  28.021  11.642 -0.0189  0.1055  0.0044
  987DOPE   C4B11581   0.981  27.905  11.221 -0.1280 -0.1833 -0.0596
  988DOPE   NH311582   9.921  27.977  13.058  0.1507 -0.1524  0.1482
  988DOPE   PO411583  10.233  28.041  12.937 -0.3667 -0.1328  0.2918
  988DOPE   GL111584  10.122  27.803  12.647  0.0330  0.1808 -0.3517
  988DOPE   GL211585  10.370  27.850  12.450  0.0348 -0.1307  0.0476
  988DOPE   C1A11586  10.063  27.514  12.275 -0.0442 -0.0707  0.1578
  988DOPE   D2A11587   9.884  27.310  11.885 -0.1318  0.1691  0.0275
  988DOPE   C3A11588  10.007  26.936  11.624 -0.0043 -0.3030  0.2437
  988DOPE   C4A11589  10.159  26.963  11.192  0.1714 -0.1119 -0.1129
  988DOPE   C1B11590  10.461  28.166  12.142  0.1918  0.1561  0.1815
  988DOPE   D2B11591  10.373  28.262  11.720 -0.3129 -0.0439  0.3365
  988DOPE   C3B11592   9.929  28.444  11.747 -0.1525 -0.1436  0.2774
  988DOPE   C4B11593   9.695  28.839  11.886  0.0162 -0.0080 -0.4644
  989DOPE   NH311594  33.624  24.477  13.415  0.1216 -0.0253  0.1398
  989DOPE   PO411595  33.877  24.468  13.237  0.3118 -0.3708 -0.1100
  989DOPE   GL111596  33.979  24.206  12.952  0.0842  0.2457 -0.0993
  989DOPE   GL211597  33.744  24.173  12.810 -0.0867  0.1235 -0.0154
  989DOPE   C1A11598  34.155  24.156  12.518 -0.0472 -0.1756  0.2165
  989DOPE   D2A11599  34.104  24.000  12.029  0.0486 -0.0783 -0.1884
  989DOPE   C3A11600  33.965  23.673  11.743 -0.1140  0.0596 -0.1418
  989DOPE   C4A11601  33.744  23.366  11.477 -0.0044 -0.2547 -0.1662
  989DOPE   C1B11602  33.721  24.156  12.329  0.1019  0.0889 -0.2035
  989DOPE   D2B11603  33.585  24.094  11.904 -0.0310 -0.0713  0.2135
  989DOPE   C3B11604  33.527  24.459  11.682 -0.2004 -0.2930 -0.1324
  989DOPE   C4B11605  33.304  24.724  11.314  0.0184  0.0395 -0.0449
  990POSM   NC311606  11.833  23.167  13.881  0.2822  0.0247 -0.2549
  990POSM   PO411607  11.448  23.065  13.797 -0.1307  0.1662  0.0305
  990POSM   AM111608  11.382  22.989  13.474 -0.3848 -0.3317 -0.5052
  990POSM   AM211609  11.576  22.889  13.287  0.0840 -0.1556  0.3093
  990POSM   T1A11610  11.216  23.112  13.033 -0.1384 -0.0643  0.0355
  990POSM   C2A11611  11.295  23.135  12.581 -0.1992 -0.3888 -0.3195
  990POSM   C3A11612  11.420  23.091  12.171 -0.0146 -0.0986 -0.3693
  990POSM   C1B11613  11.692  22.598  13.087  0.1912 -0.0006 -0.1524
  990POSM   D2B11614  11.638  22.260  12.784 -0.1307  0.0503 -0.0352
  990POSM   C3B11615  11.666  22.225  12.326  0.1145 -0.0345  0.1408
  990POSM   C4B11616  11.496  22.014  11.899  0.0797 -0.1616  0.2692
  991DOPE   NH311617   9.606  30.198  13.507  0.2396  0.0938  0.1393
  991DOPE   PO411618   9.406  30.135  13.242 -0.0110  0.0354  0.2635
  991DOPE   GL111619   9.314  30.147  12.774  0.2484 -0.1137  0.3570
  991DOPE   GL211620   9.556  30.278  12.686 -0.1608  0.1641  0.1732
  991DOPE   C1A11621   9.496  29.857  12.386 -0.0822 -0.0761  0.1646
  991DOPE   D2A11622   9.459  29.640  12.018 -0.0784 -0.0532  0.0508
  991DOPE   C3A11623   9.682  29.806  11.663  0.0488  0.1287  0.1555
  991DOPE   C4A11624  10.004  30.079  11.436 -0.0075 -0.3755 -0.2121
  991DOPE   C1B11625   9.445  30.672  12.481 -0.4344 -0.2269 -0.0851
  991DOPE   D2B11626   9.166  30.870  12.163  0.1249  0.3284  0.2748
  991DOPE   C3B11627   9.393  31.158  11.855  0.1788  0.0847 -0.2427
  991DOPE   C4B11628   9.552  31.490  11.625  0.0156 -0.0198  0.0257
  992DOPE   NH311629  10.445  32.263  13.869 -0.0005 -0.3866  0.3213
  992DOPE   PO411630  10.600  32.549  13.828  0.1881 -0.1172  0.4705
  992DOPE   GL111631  10.649  32.796  13.441 -0.2952 -0.5293 -0.2602
  992DOPE   GL211632  10.930  32.593  13.414 -0.2006  0.1153  0.1247
  992DOPE   C1A11633  10.802  33.033  13.075  0.1787  0.1657 -0.1604
  992DOPE   D2A11634  10.772  33.391  12.763 -0.1139  0.0198 -0.2109
  992DOPE   C3A11635  10.406  33.480  12.458 -0.3084 -0.1590 -0.0020
  992DOPE   C4A11636  10.439  33.588  12.005 -0.1610  0.0052 -0.5296
  992DOPE   C1B11637  11.068  32.698  12.962 -0.1802 -0.0799  0.1444
  992DOPE   D2B11638  11.231  33.142  12.775  0.0518 -0.1944  0.1161
  992DOPE   C3B11639  11.221  33.003  12.312  0.0273 -0.1084  0.0863
  992DOPE   C4B11640  11.200  33.108  11.834  0.1480  0.2375 -0.0063
  993POSM   NC311641  10.406  26.354  12.946 -0.0636 -0.0163 -0.3540
  993POSM   PO411642  10.618  26.082  13.138 -0.1172  0.3051  0.1451
  993POSM   AM111643  10.810  26.092  12.916  0.2619  0.0194  0.0782
  993POSM   AM211644  10.812  26.244  12.667 -0.2098  0.2099 -0.4294
  993POSM   T1A11645  11.097  25.913  12.504  0.1736 -0.0605  0.0968
  993POSM   C2A11646  11.307  25.557  12.267 -0.1642  0.1927  0.0043
  993POSM   C3A11647  11.504  25.363  11.862  0.2958 -0.0128 -0.2922
  993POSM   C1B11648  10.718  26.172  12.327 -0.0276 -0.0980  0.1252
  993POSM   D2B11649  10.608  26.189  11.880 -0.2168 -0.1664 -0.2811
  993POSM   C3B11650  10.674  25.812  11.709 -0.0896 -0.0317  0.0551
  993POSM   C4B11651  10.381  25.436  11.819 -0.2144 -0.0074 -0.3139
  994DOPC   NC311652   2.444  31.467  13.295  0.0687  0.0643 -0.3605
  994DOPC   PO411653   2.030  31.367  13.381  0.2028  0.1956  0.0412
  994DOPC   GL111654   2.012  31.522  12.979  0.1434 -0.3636  0.2056
  994DOPC   GL211655   2.196  31.326  12.824  0.0869 -0.0619 -0.0947
  994DOPC   C1A11656   1.785  31.496  12.585  0.2710 -0.4072  0.0969
  994DOPC   D2A11657   1.583  31.600  12.128  0.0380 -0.1674  0.0773
  994DOPC   C3A11658   1.697  31.769  11.747 -0.0429 -0.0783  0.0973
  994DOPC   C4A11659   1.673  32.203  11.641 -0.0665  0.0562  0.1311
  994DOPC   C1B11660   2.198  31.222  12.370  0.0489  0.3087 -0.0079
  994DOPC   D2B11661   1.886  31.210  11.981  0.0479 -0.2186  0.0470
  994DOPC   C3B11662   1.904  30.863  11.708  0.1461 -0.0705  0.0140
  994DOPC   C4B11663   1.778  30.645  11.362  0.4236 -0.0046 -0.0958
  995DOPE   NH311664  33.613  27.743  12.974 -0.1327 -0.0451 -0.1163
  995DOPE   PO411665  33.421  27.544  12.830 -0.0781 -0.4305  0.1522
  995DOPE   GL111666  33.198  27.500  12.516  0.1352 -0.4755  0.1830
  995DOPE   GL211667  33.254  27.722  12.357 -0.0730 -0.2182 -0.0761
  995DOPE   C1A11668  33.068  27.184  12.265  0.0481 -0.2023 -0.3218
  995DOPE   D2A11669  32.789  26.911  12.125 -0.0711  0.0656 -0.0005
  995DOPE   C3A11670  32.975  26.597  11.835 -0.4907 -0.6152 -0.2626
  995DOPE   C4A11671  32.937  26.328  11.505 -0.1352 -0.2287  0.1050
  995DOPE   C1B11672  33.265  27.800  11.884 -0.1149  0.1730  0.0582
  995DOPE   D2B11673  33.196  27.767  11.399 -0.2911  0.2050  0.0531
  995DOPE   C3B11674  33.192  27.321  11.238  0.1239 -0.4113 -0.0839
  995DOPE   C4B11675  33.066  26.822  11.309 -0.0113 -0.1850 -0.0700
  996DOPC   NC311676  10.653  29.512  13.152 -0.1531 -0.1982  0.0008
  996DOPC   PO411677  10.288  29.584  13.021  0.0722  0.0582  0.1518
  996DOPC   GL111678  10.389  29.846  12.719  0.0715  0.2722  0.3362
  996DOPC   GL211679  10.668  29.868  12.808 -0.1295 -0.2409  0.1161
  996DOPC   C1A11680  10.416  29.943  12.284 -0.4499  0.2467  0.0160
  996DOPC   D2A11681  10.353  30.135  11.861  0.2913  0.1292 -0.1162
  996DOPC   C3A11682  10.602  29.929  11.584  0.0430  0.1763 -0.1090
  996DOPC   C4A11683  10.887  29.995  11.230  0.0242  0.1210  0.2304
  996DOPC   C1B11684  10.803  29.647  12.348 -0.0568 -0.1145 -0.1176
  996DOPC   D2B11685  10.881  29.643  11.867  0.1292 -0.1253 -0.2806
  996DOPC   C3B11686  11.294  29.650  11.686  0.1249  0.1931  0.0986
  996DOPC   C4B11687  11.436  29.354  11.279  0.0641 -0.2691  0.1665
  997POSM   NC311688   0.325  24.034  13.626 -0.0134  0.0054  0.0944
  997POSM   PO411689  -0.065  24.083  13.604  0.1342 -0.0508  0.0568
  997POSM   AM111690  -0.063  23.996  13.271  0.3403 -0.1084 -0.2298
  997POSM   AM211691   0.061  24.019  13.038 -0.0950  0.1080  0.2049
  997POSM   T1A11692  -0.327  23.894  12.848 -0.0007  0.1114  0.1627
  997POSM   C2A11693  -0.308  23.739  12.421  0.1003 -0.1229 -0.0710
  997POSM   C3A11694  -0.461  23.298  12.462  0.1437  0.0510 -0.0706
  997POSM   C1B11695   0.258  23.916  12.767 -0.0947  0.1418 -0.1587
  997POSM   D2B11696   0.710  23.915  12.685  0.1084 -0.0936  0.0852
  997POSM   C3B11697   0.861  24.177  12.403 -0.0477 -0.0812  0.2340
  997POSM   C4B11698   1.104  24.500  12.450  0.0274 -0.4095 -0.1254
  998DOPE   NH311699   7.276  26.638  13.595  0.2286 -0.2204  0.0156
  998DOPE   PO411700   7.456  26.761  13.356  0.0376  0.0087 -0.0165
  998DOPE   GL111701   7.353  26.790  13.032 -0.0039  0.0634  0.0732
  998DOPE   GL211702   7.542  26.990  12.911  0.1641 -0.0022 -0.0462
  998DOPE   C1A11703   7.464  26.531  12.642  0.1176 -0.0477  0.0621
  998DOPE   D2A11704   7.600  26.284  12.261  0.2566 -0.0399 -0.1509
  998DOPE   C3A11705   7.963  25.988  12.216  0.2214 -0.0261  0.0318
  998DOPE   C4A11706   8.145  25.691  11.872 -0.2160  0.2060 -0.3164
  998DOPE   C1B11707   7.336  27.253  12.622  0.1217 -0.0289  0.0470
  998DOPE   D2B11708   7.241  27.283  12.200 -0.2445  0.0411 -0.0400
  998DOPE   C3B11709   7.363  27.724  12.062 -0.0534 -0.2190  0.3977
  998DOPE   C4B11710   7.110  28.040  11.849  0.1702  0.0655 -0.7326
  999DOPE   NH311711  11.264  27.715  12.714 -0.0863  0.0402  0.1357
  999DOPE   PO411712  11.133  27.485  12.883 -0.0993 -0.2692 -0.0656
  999DOPE   GL111713  11.118  27.208  12.618  0.0377 -0.1288 -0.1095
  999DOPE   GL211714  11.162  27.336  12.371  0.2843  0.3012  0.1339
  999DOPE   C1A11715  11.420  26.895  12.536  0.1878 -0.0577 -0.0274
  999DOPE   D2A11716  11.594  26.617  12.229  0.0113 -0.1955 -0.0441
  999DOPE   C3A11717  11.651  26.612  11.754 -0.3115  0.0260  0.2006
  999DOPE   C4A11718  11.656  26.708  11.273  0.3230 -0.0831  0.3215
  999DOPE   C1B11719  11.259  27.531  11.986 -0.1382  0.0800  0.0671
  999DOPE   D2B11720  11.308  27.743  11.577  0.0980 -0.1294  0.4274
  999DOPE   C3B11721  10.919  27.895  11.331 -0.2603  0.4336  0.1278
  999DOPE   C4B11722  10.573  28.160  11.232 -0.2094 -0.2259  0.1527
 1000POSM   NC311723   4.174  26.187  13.205 -0.1313  0.0770 -0.1089
 1000POSM   PO411724   4.522  26.349  13.321 -0.1286  0.1476  0.1525
 1000POSM   AM111725   4.553  26.386  12.986  0.0119  0.0109 -0.0132
 1000POSM   AM211726   4.524  26.502  12.740  0.1284 -0.0584  0.2092
 1000POSM   T1A11727   4.773  26.089  12.628  0.0079  0.0236  0.3164
 1000POSM   C2A11728   4.986  25.999  12.254  0.1010 -0.0461 -0.3164
 1000POSM   C3A11729   5.221  25.917  11.839  0.1547 -0.0608 -0.0949
 1000POSM   C1B11730   4.409  26.446  12.460  0.1817  0.1148  0.1411
 1000POSM   D2B11731   4.474  26.481  11.979  0.2007  0.0899  0.0706
 1000POSM   C3B11732   4.172  26.234  11.772 -0.0887 -0.0796 -0.0797
 1000POSM   C4B11733   3.928  25.868  11.795 -0.0305 -0.0604  0.0199
 1001DOPS   CNO11734   7.049  25.542  12.825  0.0680 -0.2015 -0.3295
 1001DOPS   PO411735   7.063  25.366  13.142 -0.2984 -0.0811 -0.1964
 1001DOPS   GL111736   6.904  25.118  12.840  0.3307  0.5679 -0.3410
 1001DOPS   GL211737   7.013  24.917  12.806 -0.0810 -0.1760 -0.0638
 1001DOPS   C1A11738   7.044  25.158  12.404 -0.0425 -0.0197  0.2022
 1001DOPS   D2A11739   6.968  25.343  11.991 -0.0025 -0.2790  0.0680
 1001DOPS   C3A11740   7.244  25.615  11.736  0.1178 -0.1042 -0.0114
 1001DOPS   C4A11741   7.367  25.796  11.329 -0.0220 -0.3176 -0.1361
 1001DOPS   C1B11742   6.742  24.767  12.417 -0.0074 -0.2155  0.0915
 1001DOPS   D2B11743   6.469  24.527  12.078  0.1022 -0.2487  0.0899
 1001DOPS   C3B11744   6.445  24.621  11.654 -0.1691  0.2233  0.1096
 1001DOPS   C4B11745   6.472  24.818  11.275 -0.2003 -0.2132 -0.2940
 1002DOPC   NC311746   4.423  31.263  12.942  0.3159 -0.5531  0.1596
 1002DOPC   PO411747   4.705  31.206  13.217 -0.1042 -0.1050  0.1410
 1002DOPC   GL111748   4.845  31.427  12.837 -0.0939  0.1219 -0.0159
 1002DOPC   GL211749   5.023  31.518  12.679  0.0098  0.0956 -0.1864
 1002DOPC   C1A11750   4.537  31.404  12.468 -0.3337  0.1714  0.4198
 1002DOPC   D2A11751   4.477  31.618  12.064 -0.4254 -0.0321  0.3217
 1002DOPC   C3A11752   4.351  31.416  11.682  0.1261 -0.3004  0.0952
 1002DOPC   C4A11753   4.571  31.357  11.217 -0.0493 -0.2568  0.0214
 1002DOPC   C1B11754   4.980  31.355  12.267 -0.0227  0.0181  0.1454
 1002DOPC   D2B11755   4.902  31.239  11.835  0.0843  0.1510  0.1360
 1002DOPC   C3B11756   5.167  31.368  11.464 -0.1588 -0.1742  0.0830
 1002DOPC   C4B11757   5.484  31.178  11.239  0.0639 -0.0427 -0.1923
 1003POSM   NC311758   3.627  27.624  13.416  0.1783  0.0118 -0.0849
 1003POSM   PO411759   3.526  27.301  13.361 -0.0176  0.2963 -0.1331
 1003POSM   AM111760   3.475  27.312  13.034 -0.2858  0.0865  0.2013
 1003POSM   AM211761   3.428  27.568  12.874 -0.0164  0.3200 -0.0223
 1003POSM   T1A11762   3.679  27.250  12.583  0.0715  0.0408 -0.1838
 1003POSM   C2A11763   3.700  26.937  12.218 -0.1996  0.0624 -0.1365
 1003POSM   C3A11764   3.937  26.660  11.883 -0.1306  0.2425  0.3288
 1003POSM   C1B11765   3.207  27.441  12.627  0.2152 -0.1406 -0.0085
 1003POSM   D2B11766   2.819  27.187  12.368  0.1036 -0.1210 -0.0593
 1003POSM   C3B11767   2.843  27.323  11.931  0.0830 -0.0060  0.2934
 1003POSM   C4B11768   2.946  27.556  11.598 -0.1782 -0.0640 -0.1576
 1004DOPE   NH311769   7.184  22.803  13.681  0.0305  0.1756 -0.0967
 1004DOPE   PO411770   7.007  22.667  13.424 -0.0297  0.0177 -0.0557
 1004DOPE   GL111771   7.024  22.664  13.026  0.1189  0.2738 -0.1011
 1004DOPE   GL211772   7.043  22.905  12.966 -0.0521 -0.0069 -0.0760
 1004DOPE   C1A11773   7.429  22.692  12.753  0.1555 -0.0677 -0.2585
 1004DOPE   D2A11774   7.677  22.526  12.422 -0.1785  0.1779 -0.0736
 1004DOPE   C3A11775   7.894  22.762  12.113 -0.1221  0.2063  0.1135
 1004DOPE   C4A11776   7.951  22.964  11.741  0.0326 -0.1066 -0.0386
 1004DOPE   C1B11777   6.641  23.034  12.746  0.3347 -0.4133 -0.1269
 1004DOPE   D2B11778   6.300  23.093  12.394 -0.1343  0.0817 -0.3316
 1004DOPE   C3B11779   6.440  22.802  12.060  0.2142 -0.0572  0.0534
 1004DOPE   C4B11780   6.337  22.516  11.674  0.1210  0.0198  0.0399
 1005DOPS   CNO11781   4.696  25.197  14.001  0.0231 -0.0701 -0.2197
 1005DOPS   PO411782   5.018  25.364  13.883  0.0282 -0.1149  0.0657
 1005DOPS   GL111783   5.154  25.308  13.469  0.3180 -0.3006 -0.2544
 1005DOPS   GL211784   4.957  25.402  13.289 -0.0121  0.0965  0.0090
 1005DOPS   C1A11785   4.989  24.900  13.283 -0.1920  0.1682 -0.1627
 1005DOPS   D2A11786   5.126  24.594  12.994  0.1627  0.3452  0.3202
 1005DOPS   C3A11787   4.920  24.573  12.565  0.2194  0.3162 -0.1193
 1005DOPS   C4A11788   4.605  24.701  12.245  0.0101  0.1961 -0.2065
 1005DOPS   C1B11789   5.009  25.158  12.871  0.0864  0.0122  0.0437
 1005DOPS   D2B11790   5.091  25.082  12.395  0.0910  0.3638  0.2319
 1005DOPS   C3B11791   5.281  25.256  12.005 -0.1293 -0.0105 -0.3082
 1005DOPS   C4B11792   5.384  25.507  11.680 -0.0493  0.0167  0.0626
 1006DOPS   CNO11793   8.200  31.042  13.806  0.2851 -0.1135  0.4376
 1006DOPS   PO411794   8.028  31.205  13.491 -0.1670 -0.0342 -0.2931
 1006DOPS   GL111795   8.047  31.443  13.155 -0.4543 -0.0984  0.0009
 1006DOPS   GL211796   8.377  31.387  13.113 -0.1457  0.0578 -0.2166
 1006DOPS   C1A11797   8.039  31.455  12.707 -0.1109 -0.0143 -0.0958
 1006DOPS   D2A11798   8.109  31.559  12.266  0.2880 -0.0541  0.0457
 1006DOPS   C3A11799   7.770  31.723  12.073  0.0314 -0.0230  0.2724
 1006DOPS   C4A11800   7.402  31.583  11.874  0.2175  0.0150  0.1598
 1006DOPS   C1B11801   8.395  31.769  12.793  0.4919 -0.6255  0.1003
 1006DOPS   D2B11802   8.150  32.099  12.524  0.0005  0.1828  0.1748
 1006DOPS   C3B11803   8.198  31.965  12.074  0.3480 -0.3835  0.1849
 1006DOPS   C4B11804   8.095  31.622  11.738  0.0647  0.1008  0.0849
 1007DOPE   NH311805   8.140  21.764  13.476  0.1672  0.1461 -0.2110
 1007DOPE   PO411806   8.189  22.090  13.384  0.2785  0.2523 -0.2987
 1007DOPE   GL111807   8.040  22.088  13.034 -0.1440  0.0622 -0.0773
 1007DOPE   GL211808   8.192  21.893  12.944  0.0824  0.0422 -0.0022
 1007DOPE   C1A11809   7.801  22.003  12.685 -0.0885 -0.2925  0.1077
 1007DOPE   D2A11810   7.888  22.024  12.261 -0.0198 -0.0832  0.1295
 1007DOPE   C3A11811   8.047  22.278  11.948 -0.2255  0.1767  0.1068
 1007DOPE   C4A11812   8.219  22.467  11.601 -0.0637 -0.2380  0.1970
 1007DOPE   C1B11813   8.628  21.967  12.831  0.0761  0.0130  0.0275
 1007DOPE   D2B11814   9.007  21.968  12.564  0.1454  0.0105 -0.0214
 1007DOPE   C3B11815   8.872  22.138  12.156  0.0677 -0.1711  0.2708
 1007DOPE   C4B11816   8.780  22.288  11.735  0.1641  0.2037  0.2405
 1008DOPC   NC311817   8.297  23.086  13.408 -0.0552 -0.1553  0.1024
 1008DOPC   PO411818   7.931  22.956  13.381  0.1746  0.1008 -0.1471
 1008DOPC   GL111819   7.829  23.017  12.998  0.3550  0.0690 -0.1797
 1008DOPC   GL211820   8.021  22.896  12.852  0.1211 -0.1652 -0.0191
 1008DOPC   C1A11821   7.720  23.087  12.524 -0.2530  0.2858 -0.2096
 1008DOPC   D2A11822   7.828  23.374  12.152  0.2370  0.1080  0.1829
 1008DOPC   C3A11823   7.606  23.414  11.711 -0.4713 -0.3058 -0.1308
 1008DOPC   C4A11824   7.696  23.261  11.267  0.1157 -0.2548 -0.3489
 1008DOPC   C1B11825   8.024  22.450  12.740  0.3398  0.0151 -0.0893
 1008DOPC   D2B11826   8.313  22.239  12.406  0.1513  0.1193  0.1716
 1008DOPC   C3B11827   8.488  22.524  12.034 -0.3977  0.3046 -0.1502
 1008DOPC   C4B11828   8.439  22.968  11.863 -0.2682  0.2361  0.1848
 1009DOPS   CNO11829   9.522  27.590  13.177 -0.0701 -0.0176  0.0269
 1009DOPS   PO411830   9.900  27.492  13.206  0.3318 -0.0720  0.2212
 1009DOPS   GL111831   9.837  27.254  12.890 -0.1638 -0.1465  0.0853
 1009DOPS   GL211832  10.003  27.366  12.742 -0.2622  0.1594 -0.2707
 1009DOPS   C1A11833   9.447  27.120  12.607 -0.0726 -0.3229 -0.2139
 1009DOPS   D2A11834   9.170  26.865  12.327  0.0056  0.3296  0.0639
 1009DOPS   C3A11835   9.046  26.963  11.840  0.5492 -0.3722  0.0510
 1009DOPS   C4A11836   9.150  26.846  11.367 -0.0184 -0.1823 -0.2916
 1009DOPS   C1B11837   9.645  27.632  12.601  0.0136 -0.2643 -0.3802
 1009DOPS   D2B11838   9.560  27.622  12.152  0.0386  0.1457 -0.3964
 1009DOPS   C3B11839   9.542  27.809  11.724 -0.0522  0.0512  0.1581
 1009DOPS   C4B11840   9.372  27.851  11.271 -0.0865  0.0775 -0.0537
 1010DOPE   NH311841   4.930  30.728  13.027  0.0343  0.0067  0.0766
 1010DOPE   PO411842   5.006  30.986  12.847  0.1440  0.1639  0.3888
 1010DOPE   GL111843   4.822  30.928  12.499  0.1994 -0.0674 -0.0737
 1010DOPE   GL211844   4.816  30.695  12.452 -0.1201  0.1395 -0.0989
 1010DOPE   C1A11845   5.086  30.852  12.086  0.0385 -0.2107 -0.2364
 1010DOPE   D2A11846   5.269  30.899  11.708 -0.4467  0.1971 -0.3986
 1010DOPE   C3A11847   5.667  30.958  11.669 -0.0059  0.2453  0.0379
 1010DOPE   C4A11848   5.977  30.969  11.324 -0.0586  0.0218  0.4107
 1010DOPE   C1B11849   4.604  30.553  12.050 -0.3666 -0.1994  0.0568
 1010DOPE   D2B11850   4.377  30.403  11.697 -0.3379 -0.0270  0.2293
 1010DOPE   C3B11851   4.549  30.047  11.508 -0.0272  0.2001  0.3875
 1010DOPE   C4B11852   4.708  29.666  11.421  0.1430  0.0052 -0.1913
 1011DOPE   NH311853   9.487  28.984  12.917 -0.1303  0.1764 -0.0799
 1011DOPE   PO411854   9.731  28.908  12.710  0.1122 -0.0054 -0.0154
 1011DOPE   GL111855   9.780  28.994  12.354  0.2176 -0.1392  0.2431
 1011DOPE   GL211856  10.049  28.925  12.224 -0.3911  0.0599 -0.0281
 1011DOPE   C1A11857   9.822  29.347  12.041  0.1601  0.2876  0.0602
 1011DOPE   D2A11858   9.920  29.769  12.165  0.0641  0.2125 -0.1705
 1011DOPE   C3A11859   9.823  30.162  11.934 -0.0628 -0.0289  0.1403
 1011DOPE   C4A11860  10.057  30.517  11.857  0.2357 -0.2109 -0.0007
 1011DOPE   C1B11861  10.173  29.025  11.797 -0.0944  0.0159 -0.2530
 1011DOPE   D2B11862  10.467  28.783  11.571  0.1763  0.0036 -0.1089
 1011DOPE   C3B11863  10.769  28.492  11.755 -0.1728  0.0447  0.0526
 1011DOPE   C4B11864  10.893  28.037  11.859  0.2325  0.0745  0.0296
 1012DOPE   NH311865   8.081  28.539  12.914  0.2141 -0.3551  0.1146
 1012DOPE   PO411866   8.190  28.297  12.795  0.1179 -0.2768  0.2647
 1012DOPE   GL111867   8.244  28.125  12.450 -0.0855  0.1441 -0.0308
 1012DOPE   GL211868   8.456  28.191  12.357  0.0195 -0.2793 -0.0861
 1012DOPE   C1A11869   8.050  28.013  11.984 -0.0185  0.0025 -0.0174
 1012DOPE   D2A11870   7.756  27.744  11.724 -0.0966 -0.2448 -0.0533
 1012DOPE   C3A11871   7.957  27.724  11.324 -0.0659 -0.0362  0.0573
 1012DOPE   C4A11872   8.214  27.854  10.979 -0.3431  0.1010 -0.1196
 1012DOPE   C1B11873   8.679  28.332  11.960  0.0024  0.0164  0.0235
 1012DOPE   D2B11874   8.807  28.508  11.528  0.0180  0.0270 -0.1117
 1012DOPE   C3B11875   8.543  28.427  11.130 -0.0287  0.1868 -0.0355
 1012DOPE   C4B11876   8.476  28.733  10.814  0.4637  0.0831 -0.2390
 1013DOPC   NC311877   9.485  33.706  14.308  0.0649  0.2994  0.1009
 1013DOPC   PO411878   9.780  33.936  14.491  0.1087  0.0241 -0.0468
 1013DOPC   GL111879   9.903  33.927  14.079 -0.1054 -0.3085 -0.1967
 1013DOPC   GL211880   9.709  34.023  13.884 -0.3257 -0.1882 -0.0880
 1013DOPC   C1A11881  10.241  34.095  13.756  0.0062 -0.0624  0.2018
 1013DOPC   D2A11882  10.353  34.125  13.302 -0.1169  0.0560 -0.2060
 1013DOPC   C3A11883  10.262  34.000  12.849  0.0058  0.2210 -0.1689
 1013DOPC   C4A11884   9.986  33.630  12.764 -0.2184  0.1527  0.4547
 1013DOPC   C1B11885   9.451  33.928  13.517 -0.0513  0.4089 -0.0144
 1013DOPC   D2B11886   9.533  33.777  13.048 -0.1567  0.0631 -0.2179
 1013DOPC   C3B11887   9.777  33.322  13.085  0.1825 -0.1444  0.6495
 1013DOPC   C4B11888   9.634  32.867  13.023  0.2532  0.2641 -0.2076
 1014POSM   NC311889   2.191  30.648  13.849 -0.0060 -0.0515  0.3263
 1014POSM   PO411890   1.921  30.415  13.672  0.0248  0.3729 -0.0415
 1014POSM   AM111891   1.865  30.441  13.351  0.3231  0.2135 -0.0314
 1014POSM   AM211892   1.955  30.332  13.089  0.0751 -0.0174  0.0191
 1014POSM   T1A11893   1.557  30.608  13.018  0.0246  0.0377  0.2008
 1014POSM   C2A11894   1.251  30.747  12.662 -0.0860  0.1218 -0.0679
 1014POSM   C3A11895   1.009  30.983  12.369  0.0500 -0.2148 -0.0636
 1014POSM   C1B11896   1.843  30.236  12.722 -0.0798 -0.2999  0.1496
 1014POSM   D2B11897   1.934  30.281  12.290  0.0123  0.0857 -0.1409
 1014POSM   C3B11898   1.866  30.741  12.153  0.0543  0.0163 -0.1249
 1014POSM   C4B11899   1.462  30.836  11.958  0.2791  0.4022  0.0568
 1015POSM   NC311900  33.035  31.675  13.786 -0.2291 -0.1000  0.1563
 1015POSM   PO411901  33.064  31.460  13.461 -0.1185  0.0397  0.1216
 1015POSM   AM111902  33.023  31.472  13.110 -0.1206 -0.1199 -0.1806
 1015POSM   AM211903  33.086  31.285  12.904  0.1908 -0.0515 -0.5002
 1015POSM   T1A11904  33.010  31.716  12.640  0.1523  0.1594  0.0328
 1015POSM   C2A11905  32.936  31.572  12.235 -0.1439  0.4589 -0.2941
 1015POSM   C3A11906  32.846  31.266  11.908 -0.0348 -0.0911 -0.0643
 1015POSM   C1B11907  33.117  31.175  12.533 -0.3943  0.0622 -0.1461
 1015POSM   D2B11908  33.339  31.187  12.083 -0.0182  0.0131  0.0093
 1015POSM   C3B11909  33.351  31.451  11.734  0.0491 -0.1285 -0.1859
 1015POSM   C4B11910  33.525  31.508  11.379  0.1059 -0.0151 -0.0788
 1016DOPC   NC311911   3.962  28.818  13.432  0.0331  0.1756  0.1363
 1016DOPC   PO411912   4.342  28.782  13.434  0.0621  0.0580 -0.1387
 1016DOPC   GL111913   4.248  28.715  13.045  0.1302 -0.1131  0.1610
 1016DOPC   GL211914   4.550  28.676  12.893 -0.0323 -0.0143 -0.0936
 1016DOPC   C1A11915   4.195  28.219  12.995 -0.2319 -0.1387  0.3348
 1016DOPC   D2A11916   4.339  27.898  12.724  0.1565  0.0595 -0.3876
 1016DOPC   C3A11917   4.286  27.917  12.276  0.0242 -0.0903  0.1168
 1016DOPC   C4A11918   4.495  27.792  11.953  0.5566  0.0435  0.0166
 1016DOPC   C1B11919   4.241  28.506  12.588  0.2533  0.1494  0.0255
 1016DOPC   D2B11920   4.066  28.355  12.221 -0.0326  0.2424  0.1202
 1016DOPC   C3B11921   4.246  28.539  11.841 -0.0595  0.0490 -0.3491
 1016DOPC   C4B11922   4.318  28.408  11.414 -0.0587 -0.0647  0.0730
 1017DOPC   NC311923   8.513  27.897  12.747 -0.1493  0.1018 -0.0291
 1017DOPC   PO411924   8.614  27.636  13.010  0.3595 -0.3777  0.0955
 1017DOPC   GL111925   8.645  27.453  12.637  0.0116 -0.1784  0.0030
 1017DOPC   GL211926   8.318  27.404  12.648 -0.1937 -0.2576 -0.2518
 1017DOPC   C1A11927   8.533  27.622  12.253 -0.1647  0.2779 -0.0669
 1017DOPC   D2A11928   8.646  27.844  11.894  0.2042  0.0027  0.2246
 1017DOPC   C3A11929   8.381  27.603  11.548  0.1043 -0.0907 -0.0429
 1017DOPC   C4A11930   8.327  27.439  11.208 -0.0945 -0.0232 -0.1261
 1017DOPC   C1B11931   8.077  27.100  12.311 -0.1617 -0.0807  0.0180
 1017DOPC   D2B11932   7.874  26.872  11.931 -0.0236 -0.2110 -0.0235
 1017DOPC   C3B11933   7.819  26.433  11.745 -0.0632  0.0662  0.0225
 1017DOPC   C4B11934   7.717  26.060  11.532  0.1433 -0.3026 -0.0911
 1018DOPS   CNO11935   1.609  33.574  13.860  0.1294 -0.0608  0.0158
 1018DOPS   PO411936   1.425  33.692  13.555  0.0403 -0.1425  0.0717
 1018DOPS   GL111937   1.365  33.575  13.273  0.0423 -0.0520  0.1740
 1018DOPS   GL211938   1.144  33.471  13.175  0.2090  0.2002  0.0010
 1018DOPS   C1A11939   1.522  33.411  12.857 -0.0660 -0.3491 -0.0287
 1018DOPS   D2A11940   1.517  33.356  12.370  0.0882  0.3158  0.1076
 1018DOPS   C3A11941   1.694  33.688  12.149 -0.1371 -0.3390 -0.0172
 1018DOPS   C4A11942   1.863  34.024  12.382  0.1616  0.0138 -0.0770
 1018DOPS   C1B11943   1.036  33.221  12.805  0.0213 -0.0521 -0.3061
 1018DOPS   D2B11944   1.004  33.252  12.342 -0.0036 -0.3034 -0.0341
 1018DOPS   C3B11945   0.818  33.152  11.945 -0.0308 -0.2411 -0.0010
 1018DOPS   C4B11946   0.489  32.964  11.643 -0.1779  0.1639  0.1285
 1019DOPE   NH311947   5.623  20.967  13.155 -0.3817  0.0336  0.0528
 1019DOPE   PO411948   5.938  20.916  13.116 -0.1019  0.1853 -0.2121
 1019DOPE   GL111949   6.051  21.088  12.827 -0.0808  0.2571 -0.1511
 1019DOPE   GL211950   5.760  21.161  12.717 -0.0140  0.2245 -0.1829
 1019DOPE   C1A11951   6.211  20.945  12.380  0.0024 -0.0012  0.2784
 1019DOPE   D2A11952   6.447  20.862  12.002 -0.0973 -0.3286 -0.0898
 1019DOPE   C3A11953   6.429  20.532  11.689 -0.1460  0.0282 -0.1475
 1019DOPE   C4A11954   6.569  20.131  11.417  0.1429 -0.0330 -0.2295
 1019DOPE   C1B11955   5.576  20.904  12.383 -0.2907  0.4022 -0.0750
 1019DOPE   D2B11956   5.241  20.648  12.225 -0.2326  0.2572  0.0383
 1019DOPE   C3B11957   5.292  20.605  11.763  0.0319 -0.0630  0.3244
 1019DOPE   C4B11958   5.607  20.689  11.447 -0.2317 -0.1919 -0.2492
 1020DOPS   CNO11959   8.884  26.331  13.225  0.2110 -0.2510 -0.2759
 1020DOPS   PO411960   9.225  26.218  13.351  0.0182  0.0067 -0.0694
 1020DOPS   GL111961   9.219  26.191  13.011  0.2631 -0.0717  0.1020
 1020DOPS   GL211962   9.404  26.266  12.876 -0.1348  0.4011  0.1269
 1020DOPS   C1A11963   8.977  25.922  12.728 -0.0388 -0.0830 -0.0835
 1020DOPS   D2A11964   8.791  25.589  12.466  0.0797 -0.0520  0.1574
 1020DOPS   C3A11965   9.008  25.328  12.119  0.1846  0.0443  0.1866
 1020DOPS   C4A11966   8.898  24.860  12.072  0.2670  0.0803 -0.1712
 1020DOPS   C1B11967   9.625  26.129  12.464 -0.1846  0.0566  0.0079
 1020DOPS   D2B11968   9.662  25.979  12.030 -0.0061 -0.0203  0.2935
 1020DOPS   C3B11969   9.367  25.652  11.856 -0.2195  0.0174 -0.0385
 1020DOPS   C4B11970   9.011  25.619  11.576  0.0524 -0.1359 -0.2104
 1021DOPE   NH311971  10.251  22.524   9.818  0.2439 -0.1971 -0.2526
 1021DOPE   PO411972  10.445  22.780   9.836 -0.0905 -0.2721  0.1119
 1021DOPE   GL111973  10.417  22.751  10.189 -0.1956 -0.3317  0.0448
 1021DOPE   GL211974  10.277  22.593  10.390  0.2680 -0.0240  0.0085
 1021DOPE   C1A11975  10.359  23.011  10.621 -0.1149 -0.1727 -0.1849
 1021DOPE   D2A11976  10.082  23.231  10.934  0.0818 -0.0592  0.2839
 1021DOPE   C3A11977  10.218  23.055  11.306  0.0731  0.1186  0.1617
 1021DOPE   C4A11978  10.116  22.607  11.343  0.1530  0.0656 -0.2012
 1021DOPE   C1B11979  10.290  22.539  10.883  0.0282  0.0147  0.0388
 1021DOPE   D2B11980  10.651  22.616  11.220  0.0608  0.0732 -0.2798
 1021DOPE   C3B11981  10.700  22.913  11.518 -0.1319 -0.0538  0.1004
 1021DOPE   C4B11982  10.821  23.339  11.699  0.0437  0.0383 -0.0704
 1022DOPS   CNO11983   1.848  25.596   9.672 -0.0924 -0.4087  0.0452
 1022DOPS   PO411984   1.868  25.230   9.736 -0.0188  0.0141  0.0064
 1022DOPS   GL111985   2.013  25.298  10.152 -0.1301 -0.1109 -0.1041
 1022DOPS   GL211986   1.824  25.339  10.360  0.1308  0.2001 -0.2510
 1022DOPS   C1A11987   2.291  25.609  10.327 -0.0501 -0.1729  0.2096
 1022DOPS   D2A11988   2.379  25.580  10.795 -0.2767 -0.2757 -0.0526
 1022DOPS   C3A11989   2.651  25.441  11.170 -0.0296 -0.0481 -0.3327
 1022DOPS   C4A11990   2.703  25.640  11.530 -0.2333 -0.2997 -0.0961
 1022DOPS   C1B11991   1.556  25.184  10.694 -0.1053  0.0769 -0.3383
 1022DOPS   D2B11992   1.251  25.349  10.981 -0.1632  0.1733 -0.2766
 1022DOPS   C3B11993   0.807  25.318  10.996  0.2806  0.0008 -0.2897
 1022DOPS   C4B11994   0.395  25.157  11.109 -0.0129 -0.2154  0.1133
 1023DOPE   NH311995   9.466  24.150   9.430 -0.0321  0.3079 -0.2751
 1023DOPE   PO411996   9.417  24.125   9.740  0.0352  0.3833 -0.2714
 1023DOPE   GL111997   9.320  24.127  10.161  0.0441 -0.2025 -0.2874
 1023DOPE   GL211998   9.529  24.077  10.394 -0.0361 -0.1522 -0.0684
 1023DOPE   C1A11999   9.202  24.293  10.617  0.0348  0.0085  0.2426
 1023DOPE   D2A12000   9.255  24.561  10.942  0.0710 -0.0689 -0.3579
 1023DOPE   C3A12001   9.066  24.918  10.831  0.0036  0.2256 -0.0716
 1023DOPE   C4A12002   9.033  25.290  10.639 -0.3355 -0.0636 -0.0080
 1023DOPE   C1B12003   9.673  24.231  10.837  0.2963 -0.0369  0.1331
 1023DOPE   D2B12004   9.622  24.463  11.252  0.0920  0.1177 -0.2725
 1023DOPE   C3B12005  10.043  24.653  11.353  0.0439  0.0698 -0.0306
 1023DOPE   C4B12006  10.341  24.512  11.682 -0.1639 -0.0351  0.1232
 1024DOPE   NH312007   7.655  24.237   9.499 -0.2293  0.3808 -0.2633
 1024DOPE   PO412008   7.484  24.538   9.467 -0.1304 -0.0176  0.1592
 1024DOPE   GL112009   7.578  24.617   9.855  0.1776  0.2092  0.3540
 1024DOPE   GL212010   7.370  24.842   9.817  0.0373 -0.1143 -0.1508
 1024DOPE   C1A12011   7.964  24.689  10.139 -0.0537  0.1720 -0.2329
 1024DOPE   D2A12012   8.244  24.575  10.508 -0.3892 -0.0080  0.3468
 1024DOPE   C3A12013   8.147  24.628  10.937 -0.1672  0.1098  0.1310
 1024DOPE   C4A12014   8.358  24.796  11.295 -0.1420  0.0884 -0.0270
 1024DOPE   C1B12015   7.390  24.699  10.287  0.1225 -0.2441  0.3004
 1024DOPE   D2B12016   7.730  24.649  10.597 -0.0541  0.1901 -0.0532
 1024DOPE   C3B12017   7.970  25.038  10.745  0.0900 -0.1985  0.1579
 1024DOPE   C4B12018   8.248  25.360  10.965  0.3245 -0.0049 -0.1580
 1025DOPC   NC312019  10.239  23.163  10.143  0.2281 -0.1818  0.2817
 1025DOPC   PO412020   9.951  22.879  10.156 -0.1935 -0.2125 -0.0160
 1025DOPC   GL112021   9.674  22.683  10.498 -0.0786  0.1004  0.2322
 1025DOPC   GL212022   9.868  22.858  10.677  0.0420  0.1044  0.3267
 1025DOPC   C1A12023   9.399  22.736  10.828 -0.1860  0.2377  0.0700
 1025DOPC   D2A12024   9.175  23.022  11.120 -0.0344 -0.0796  0.1317
 1025DOPC   C3A12025   9.242  22.854  11.535  0.2164  0.0930 -0.0051
 1025DOPC   C4A12026   9.499  22.859  11.956 -0.0831 -0.0055  0.2950
 1025DOPC   C1B12027   9.721  22.966  11.159 -0.1182 -0.2580 -0.2523
 1025DOPC   D2B12028   9.748  23.056  11.604 -0.0438 -0.0523 -0.2045
 1025DOPC   C3B12029  10.015  22.787  11.839  0.1898 -0.0176  0.0389
 1025DOPC   C4B12030  10.106  22.372  11.970  0.1424 -0.1135  0.0336
 1026DOPC   NC312031   1.400  33.578   9.807  0.1243 -0.0733  0.1269
 1026DOPC   PO412032   1.240  33.956   9.833 -0.0374  0.1184  0.0127
 1026DOPC   GL112033   1.356  33.998  10.210  0.1788 -0.2717  0.0483
 1026DOPC   GL212034   1.321  33.713  10.334 -0.3010  0.2690 -0.1547
 1026DOPC   C1A12035   1.254  34.157  10.637 -0.0742  0.0369  0.0084
 1026DOPC   D2A12036   1.343  34.010  11.088  0.1838 -0.0659 -0.0351
 1026DOPC   C3A12037   1.802  33.916  11.208  0.1043 -0.0872  0.2427
 1026DOPC   C4A12038   2.137  34.226  11.273  0.0671  0.3421 -0.3140
 1026DOPC   C1B12039   0.936  33.743  10.605 -0.1647  0.6531 -0.2424
 1026DOPC   D2B12040   0.667  33.687  10.957  0.0603 -0.1180 -0.2515
 1026DOPC   C3B12041   0.876  33.920  11.303 -0.1034 -0.2887  0.1884
 1026DOPC   C4B12042   0.783  34.047  11.761  0.0789  0.0496  0.2621
 1027DOPE   NH312043  33.050  31.673   9.824 -0.3161  0.2104 -0.2188
 1027DOPE   PO412044  32.858  31.439   9.846 -0.4559  0.1809 -0.1196
 1027DOPE   GL112045  32.725  31.344  10.201 -0.0254  0.1356 -0.0670
 1027DOPE   GL212046  32.680  31.592  10.324  0.3532 -0.2417  0.0047
 1027DOPE   C1A12047  33.089  31.352  10.498 -0.2449  0.2076  0.0123
 1027DOPE   D2A12048  33.050  31.127  10.941  0.0418 -0.0427  0.0226
 1027DOPE   C3A12049  33.283  31.033  11.343  0.1413  0.1056 -0.0531
 1027DOPE   C4A12050  33.284  30.806  11.771  0.0949  0.0378  0.0076
 1027DOPE   C1B12051  32.582  32.066  10.322  0.3587 -0.1330 -0.2173
 1027DOPE   D2B12052  32.667  32.448  10.565 -0.0818 -0.1594  0.0685
 1027DOPE   C3B12053  32.939  32.710  10.449  0.2825 -0.0048 -0.0221
 1027DOPE   C4B12054  33.296  32.981  10.429 -0.0768  0.2462 -0.0309
 1028DOPE   NH312055  11.171  32.187  10.179  0.1110  0.0665  0.1526
 1028DOPE   PO412056  11.443  32.062  10.267  0.0047 -0.3057  0.2508
 1028DOPE   GL112057  11.290  31.872  10.561  0.0562 -0.0834 -0.1870
 1028DOPE   GL212058  11.103  31.767  10.507 -0.0013 -0.4939 -0.2184
 1028DOPE   C1A12059  11.135  31.718  10.977  0.1162 -0.1475 -0.1946
 1028DOPE   D2A12060  10.990  31.708  11.398 -0.1647  0.0544  0.0404
 1028DOPE   C3A12061  11.205  31.488  11.782  0.0048 -0.0219  0.2646
 1028DOPE   C4A12062  11.422  31.132  11.861 -0.2915 -0.1503 -0.2548
 1028DOPE   C1B12063  10.736  32.024  10.665  0.2087  0.3811  0.2746
 1028DOPE   D2B12064  10.641  32.049  11.136  0.2099  0.1772 -0.2685
 1028DOPE   C3B12065  10.534  31.905  11.618 -0.1973 -0.1979 -0.2226
 1028DOPE   C4B12066  10.212  31.903  11.910 -0.0367  0.4995 -0.1877
 1029DOPE   NH312067   6.362  27.555   9.384 -0.1825  0.0615 -0.1468
 1029DOPE   PO412068   6.400  27.844   9.288  0.1395  0.3422  0.0343
 1029DOPE   GL112069   6.600  27.885   9.628 -0.1047  0.2564  0.3261
 1029DOPE   GL212070   6.511  28.151   9.808 -0.0822  0.2788  0.1866
 1029DOPE   C1A12071   6.739  27.833  10.083  0.2284 -0.3104  0.0365
 1029DOPE   D2A12072   6.755  28.008  10.493  0.0424 -0.2436 -0.2837
 1029DOPE   C3A12073   6.962  27.799  10.935  0.3905 -0.1019 -0.0417
 1029DOPE   C4A12074   6.820  27.382  11.095 -0.0401 -0.2577 -0.0853
 1029DOPE   C1B12075   6.502  28.360  10.219  0.0852  0.2461  0.1627
 1029DOPE   D2B12076   6.589  28.426  10.669 -0.0429  0.4486  0.0468
 1029DOPE   C3B12077   6.564  28.082  11.024 -0.0623  0.0462 -0.1348
 1029DOPE   C4B12078   6.365  27.699  11.056 -0.5376  0.0172 -0.1418
 1030POSM   NC312079   0.733  30.491   9.545 -0.0265  0.1106  0.1660
 1030POSM   PO412080   1.075  30.290   9.607  0.2643 -0.1814  0.1793
 1030POSM   AM112081   1.045  30.268   9.901  0.0068  0.3639 -0.2180
 1030POSM   AM212082   1.259  30.167  10.107 -0.0287  0.0198  0.1867
 1030POSM   T1A12083   0.824  30.403  10.340 -0.2634  0.0731  0.0564
 1030POSM   C2A12084   0.732  30.599  10.741  0.1689 -0.3238 -0.1090
 1030POSM   C3A12085   0.917  30.767  11.154 -0.1118 -0.0487  0.0600
 1030POSM   C1B12086   1.017  29.949  10.269 -0.1985 -0.0932 -0.1153
 1030POSM   D2B12087   0.986  29.562  10.541  0.0461 -0.0006 -0.0393
 1030POSM   C3B12088   0.789  29.537  10.969 -0.0001  0.0105  0.1297
 1030POSM   C4B12089   0.596  29.270  11.380  0.0083 -0.0496 -0.0659
 1031DOPE   NH312090   3.262  28.422   9.586  0.0466 -0.2046 -0.2672
 1031DOPE   PO412091   3.402  28.686   9.750  0.1238 -0.0069 -0.1088
 1031DOPE   GL112092   3.661  28.845  10.071 -0.3435  0.1911  0.0566
 1031DOPE   GL212093   3.766  29.126  10.134  0.0088 -0.1809 -0.1467
 1031DOPE   C1A12094   3.919  28.610  10.270  0.4081 -0.1123 -0.2526
 1031DOPE   D2A12095   4.084  28.401  10.640 -0.1151 -0.3412 -0.1678
 1031DOPE   C3A12096   4.051  28.239  11.048 -0.1382  0.2051 -0.1978
 1031DOPE   C4A12097   4.109  27.946  11.360 -0.0243  0.0534  0.0252
 1031DOPE   C1B12098   3.957  29.407  10.412 -0.1548  0.1843  0.0423
 1031DOPE   D2B12099   4.258  29.537  10.714 -0.1088 -0.0368  0.0074
 1031DOPE   C3B12100   4.187  29.398  11.161 -0.1892  0.2209 -0.1175
 1031DOPE   C4B12101   4.149  29.567  11.588 -0.1146 -0.1713  0.3620
 1032POSM   NC312102  11.320  31.580   9.722 -0.1461  0.3651  0.0370
 1032POSM   PO412103  11.088  31.717   9.989  0.1448 -0.5527  0.1804
 1032POSM   AM112104  11.046  31.453  10.195 -0.2033 -0.0134 -0.0692
 1032POSM   AM212105  11.147  31.255  10.295 -0.0153 -0.1004  0.0904
 1032POSM   T1A12106  10.729  31.008  10.315  0.0390 -0.1503  0.1008
 1032POSM   C2A12107  10.479  30.907  10.676 -0.1710  0.1340  0.0034
 1032POSM   C3A12108  10.023  30.814  10.686 -0.2389 -0.0554 -0.2646
 1032POSM   C1B12109  11.305  31.365  10.601  0.0540  0.2206 -0.2969
 1032POSM   D2B12110  11.481  31.309  11.020  0.0321 -0.0067  0.2410
 1032POSM   C3B12111  11.161  31.128  11.297  0.1381 -0.1509 -0.1776
 1032POSM   C4B12112  10.684  31.278  11.241 -0.0943 -0.0802 -0.1159
 1033POSM   NC312113  32.970  26.858   8.927 -0.3443 -0.1079 -0.1501
 1033POSM   PO412114  33.070  27.036   9.233  0.3591  0.3337  0.1110
 1033POSM   AM112115  33.095  27.198   9.496 -0.1151  0.0787  0.0287
 1033POSM   AM212116  32.944  27.100   9.725 -0.0579 -0.0587  0.1405
 1033POSM   T1A12117  33.409  27.313   9.847 -0.4940 -0.2917  0.0152
 1033POSM   C2A12118  33.426  27.451  10.281 -0.1503 -0.2395 -0.1300
 1033POSM   C3A12119  33.415  27.310  10.692  0.0856  0.3930  0.0819
 1033POSM   C1B12120  32.860  27.128  10.040 -0.0596  0.0016  0.0003
 1033POSM   D2B12121  32.686  27.022  10.448 -0.0587 -0.1557 -0.3268
 1033POSM   C3B12122  32.969  27.095  10.844  0.3839  0.0239  0.2461
 1033POSM   C4B12123  33.323  26.869  10.891  0.0625 -0.0447 -0.2199
 1034DOPC   NC312124  12.462  30.926  10.171  0.2340  0.1616  0.0903
 1034DOPC   PO412125  12.653  30.748   9.850  0.1502  0.1542  0.4373
 1034DOPC   GL112126  12.625  30.486  10.242 -0.0097 -0.0463 -0.5272
 1034DOPC   GL212127  12.821  30.309  10.142 -0.0537  0.1167 -0.0825
 1034DOPC   C1A12128  12.316  30.581  10.605 -0.2278 -0.0065 -0.1345
 1034DOPC   D2A12129  11.974  30.467  10.979 -0.3206  0.0766  0.0239
 1034DOPC   C3A12130  11.545  30.379  11.029  0.0851 -0.1103 -0.2729
 1034DOPC   C4A12131  11.091  30.309  10.985  0.3296 -0.1195 -0.3715
 1034DOPC   C1B12132  12.771  30.333  10.647  0.3888 -0.4895 -0.0505
 1034DOPC   D2B12133  13.007  30.191  10.972  0.1080 -0.1597 -0.0054
 1034DOPC   C3B12134  12.905  29.877  11.328 -0.1703 -0.1566  0.0682
 1034DOPC   C4B12135  12.820  29.531  11.687  0.0756 -0.1221  0.4165
 1035DOPC   NC312136   5.472  28.959   9.798 -0.1202  0.1164  0.0805
 1035DOPC   PO412137   5.731  28.744   9.586  0.3252 -0.0480 -0.0613
 1035DOPC   GL112138   5.902  28.973   9.932 -0.6099  0.5417 -0.1758
 1035DOPC   GL212139   5.921  29.232   9.925 -0.1195  0.0017  0.2858
 1035DOPC   C1A12140   5.855  29.038  10.369 -0.1369  0.0790 -0.1939
 1035DOPC   D2A12141   6.157  29.019  10.735  0.2454  0.1065 -0.3683
 1035DOPC   C3A12142   6.323  29.460  10.918  0.1800  0.2666  0.0589
 1035DOPC   C4A12143   6.539  29.747  11.216  0.0455 -0.0935  0.0595
 1035DOPC   C1B12144   5.938  29.611  10.060  0.0417 -0.1273  0.1081
 1035DOPC   D2B12145   6.000  29.959  10.456 -0.3117 -0.0679 -0.1367
 1035DOPC   C3B12146   6.141  29.926  10.946 -0.2240 -0.1253  0.1735
 1035DOPC   C4B12147   6.208  30.079  11.375 -0.0416 -0.2081 -0.0641
 1036DOPC   NC312148   3.380  25.943   9.421  0.0975 -0.2569  0.0104
 1036DOPC   PO412149   3.684  26.037   9.615 -0.1407 -0.1534  0.1089
 1036DOPC   GL112150   3.553  25.865   9.911 -0.1863 -0.0716  0.0643
 1036DOPC   GL212151   3.347  25.636   9.892 -0.0385 -0.1443  0.1383
 1036DOPC   C1A12152   3.914  25.870  10.265  0.1071  0.1420  0.1359
 1036DOPC   D2A12153   3.825  25.775  10.750  0.2707  0.0045 -0.0630
 1036DOPC   C3A12154   3.877  25.433  11.126 -0.0765  0.1220 -0.1664
 1036DOPC   C4A12155   3.940  25.145  11.440 -0.4596  0.1268  0.1135
 1036DOPC   C1B12156   3.184  25.526  10.408  0.1222 -0.1366  0.3162
 1036DOPC   D2B12157   2.963  25.629  10.800 -0.1042 -0.1294  0.0079
 1036DOPC   C3B12158   3.179  25.569  11.171  0.0243 -0.1580 -0.2178
 1036DOPC   C4B12159   3.182  25.445  11.644 -0.3885 -0.0769 -0.2102
 1037DOPE   NH312160   3.733  22.777  10.045 -0.1467 -0.1373 -0.1687
 1037DOPE   PO412161   4.030  22.911  10.009  0.0770 -0.0731  0.0662
 1037DOPE   GL112162   4.048  22.747  10.397  0.0530 -0.1558  0.0714
 1037DOPE   GL212163   4.263  22.559  10.402  0.2772  0.0035  0.0170
 1037DOPE   C1A12164   3.676  22.677  10.718  0.1874 -0.1227 -0.1927
 1037DOPE   D2A12165   3.625  22.516  11.099  0.0511  0.2473 -0.1889
 1037DOPE   C3A12166   3.365  22.724  11.457  0.0196 -0.2811  0.3307
 1037DOPE   C4A12167   3.198  23.167  11.629  0.0790 -0.1597  0.1127
 1037DOPE   C1B12168   4.113  22.507  10.829 -0.0943 -0.3136 -0.2014
 1037DOPE   D2B12169   4.028  22.855  11.082 -0.1134 -0.1160 -0.1004
 1037DOPE   C3B12170   4.115  22.910  11.570  0.0213 -0.2309  0.0141
 1037DOPE   C4B12171   4.151  23.119  11.904  0.1684 -0.0788 -0.3338
 1038POSM   NC312172   3.996  21.053   9.628 -0.3533  0.1584  0.1878
 1038POSM   PO412173   3.722  20.785   9.631  0.0238 -0.0444 -0.2948
 1038POSM   AM112174   3.810  20.719   9.919 -0.0450 -0.3629 -0.1898
 1038POSM   AM212175   3.860  20.895  10.122 -0.1059  0.4524 -0.3086
 1038POSM   T1A12176   3.805  20.420  10.288  0.1954  0.0787 -0.1142
 1038POSM   C2A12177   3.764  20.059  10.594  0.0963 -0.0278 -0.1885
 1038POSM   C3A12178   3.732  19.711  10.879  0.0928  0.2097  0.0255
 1038POSM   C1B12179   3.717  20.861  10.463  0.1115  0.2172  0.0502
 1038POSM   D2B12180   3.794  20.828  10.895  0.2570 -0.1615 -0.1337
 1038POSM   C3B12181   3.575  20.683  11.267  0.1712 -0.2543  0.2034
 1038POSM   C4B12182   3.431  20.721  11.756 -0.2519 -0.2644 -0.3390
 1039DOPE   NH312183   0.880  33.428   9.082  0.1356 -0.2550 -0.0330
 1039DOPE   PO412184   0.653  33.528   9.278 -0.2969 -0.2672  0.3209
 1039DOPE   GL112185   0.376  33.747   9.549  0.0250  0.0681  0.1693
 1039DOPE   GL212186   0.202  33.554   9.707  0.1124  0.0917 -0.2212
 1039DOPE   C1A12187   0.608  33.846   9.925  0.2359 -0.3964  0.0464
 1039DOPE   D2A12188   0.885  34.061  10.200 -0.2789 -0.0208  0.1795
 1039DOPE   C3A12189   0.787  34.224  10.656  0.1457  0.0822  0.2519
 1039DOPE   C4A12190   0.605  34.295  11.081  0.2140 -0.2801 -0.0812
 1039DOPE   C1B12191  -0.074  33.633  10.090  0.1378  0.1551 -0.0198
 1039DOPE   D2B12192  -0.456  33.478  10.296 -0.4005  0.0019 -0.0030
 1039DOPE   C3B12193  -0.496  33.167  10.563  0.0270 -0.1640  0.1083
 1039DOPE   C4B12194  -0.869  32.916  10.576 -0.3367  0.0682  0.1812
 1040DOPC   NC312195  10.342  20.869   9.629  0.1280 -0.1021  0.1431
 1040DOPC   PO412196  10.098  21.172   9.712  0.0658 -0.0411 -0.1458
 1040DOPC   GL112197   9.790  21.182  10.090 -0.4135  0.0615 -0.2998
 1040DOPC   GL212198   9.526  21.089  10.175  0.1002  0.2551  0.0537
 1040DOPC   C1A12199   9.972  21.265  10.489  0.2369  0.3238 -0.0664
 1040DOPC   D2A12200  10.416  21.338  10.525 -0.0938 -0.0950  0.2383
 1040DOPC   C3A12201  10.719  21.200  10.884  0.2277  0.1812  0.2039
 1040DOPC   C4A12202  10.955  21.051  11.249 -0.1679  0.0730 -0.0127
 1040DOPC   C1B12203   9.552  21.136  10.634 -0.1735 -0.0774  0.3083
 1040DOPC   D2B12204   9.710  20.916  11.059 -0.1261  0.0340 -0.3487
 1040DOPC   C3B12205   9.614  21.140  11.479 -0.0762  0.1027  0.1008
 1040DOPC   C4B12206   9.716  21.507  11.671 -0.0461 -0.2432  0.1117
 1041POSM   NC312207   6.311  22.280   9.640  0.3625 -0.0170 -0.2505
 1041POSM   PO412208   6.112  22.605   9.736  0.2041 -0.2117 -0.1497
 1041POSM   AM112209   6.178  22.644  10.052  0.0374  0.3462  0.3108
 1041POSM   AM212210   6.132  22.481  10.290  0.1646 -0.0886 -0.0548
 1041POSM   T1A12211   6.218  22.963  10.416  0.2584  0.0289 -0.0964
 1041POSM   C2A12212   5.945  23.051  10.818 -0.0555 -0.2052 -0.1541
 1041POSM   C3A12213   5.880  23.128  11.246 -0.1401  0.0299 -0.1687
 1041POSM   C1B12214   6.139  22.432  10.641 -0.0016 -0.4191 -0.2154
 1041POSM   D2B12215   6.015  22.188  11.053 -0.0515 -0.1299 -0.1459
 1041POSM   C3B12216   6.195  22.050  11.408 -0.0867 -0.1280  0.1907
 1041POSM   C4B12217   6.266  21.733  11.708 -0.0132 -0.1522  0.0471
 1042DOPE   NH312218   8.679  32.787   9.540 -0.1235 -0.3702  0.1314
 1042DOPE   PO412219   8.728  32.557   9.734 -0.0078  0.1459  0.1481
 1042DOPE   GL112220   8.705  32.355   9.980  0.0164 -0.0293 -0.2390
 1042DOPE   GL212221   8.622  32.546  10.225  0.1248  0.2880 -0.1291
 1042DOPE   C1A12222   8.483  32.003  10.216 -0.2485  0.1938 -0.0727
 1042DOPE   D2A12223   8.037  31.771  10.296 -0.2229 -0.1124  0.1651
 1042DOPE   C3A12224   7.933  31.401  10.607 -0.0243 -0.1788 -0.3332
 1042DOPE   C4A12225   7.857  31.124  11.027 -0.1262  0.1093  0.0613
 1042DOPE   C1B12226   8.848  32.210  10.463  0.1923 -0.0500  0.0805
 1042DOPE   D2B12227   8.782  31.837  10.722 -0.2105 -0.1633 -0.2539
 1042DOPE   C3B12228   9.027  31.487  10.878  0.1684 -0.0684 -0.0714
 1042DOPE   C4B12229   9.148  31.434  11.358  0.0196  0.2416  0.1770
 1043DOPE   NH312230  31.061  26.460   9.873 -0.3890  0.0870  0.0767
 1043DOPE   PO412231  31.252  26.678   9.827 -0.0576  0.0177  0.0890
 1043DOPE   GL112232  31.469  26.726  10.148 -0.0588  0.1387  0.0201
 1043DOPE   GL212233  31.232  26.619  10.341 -0.1524  0.1839  0.0764
 1043DOPE   C1A12234  31.692  26.666  10.561  0.0715  0.0999  0.1327
 1043DOPE   D2A12235  31.658  26.256  10.808  0.4019 -0.1227  0.0701
 1043DOPE   C3A12236  31.693  26.102  11.232  0.0750 -0.2513 -0.0826
 1043DOPE   C4A12237  32.051  26.202  11.506 -0.2724  0.0051 -0.3325
 1043DOPE   C1B12238  31.165  26.928  10.677 -0.1704  0.1511 -0.1348
 1043DOPE   D2B12239  31.004  27.106  11.044 -0.0704 -0.2093 -0.0874
 1043DOPE   C3B12240  31.191  27.471  11.300  0.0095 -0.1304 -0.1065
 1043DOPE   C4B12241  31.383  27.477  11.677 -0.1072 -0.1918  0.1674
 1044DOPC   NC312242   4.280  26.733   9.317 -0.2847  0.2756 -0.2200
 1044DOPC   PO412243   4.336  26.813   9.675  0.0210 -0.3183 -0.2713
 1044DOPC   GL112244   4.323  26.612  10.042 -0.1760 -0.1815  0.0122
 1044DOPC   GL212245   4.478  26.827  10.157  0.0333  0.0776 -0.1523
 1044DOPC   C1A12246   4.162  26.769  10.462 -0.2916  0.2082  0.0698
 1044DOPC   D2A12247   3.975  27.072  10.721 -0.0097  0.1889 -0.2000
 1044DOPC   C3A12248   4.008  27.114  11.177  0.3917 -0.2034 -0.3415
 1044DOPC   C4A12249   3.626  26.994  11.463  0.2606  0.1703 -0.1329
 1044DOPC   C1B12250   4.765  26.588  10.380  0.0043  0.1745  0.0720
 1044DOPC   D2B12251   5.109  26.401  10.693  0.0224  0.2049 -0.4547
 1044DOPC   C3B12252   4.973  26.325  11.095 -0.0021  0.3065 -0.3048
 1044DOPC   C4B12253   5.132  26.346  11.544  0.2498  0.2597 -0.0143
 1045DOPE   NH312254   1.370  32.692   9.515 -0.0804  0.1066 -0.0393
 1045DOPE   PO412255   1.708  32.666   9.623  0.0484  0.1840  0.0721
 1045DOPE   GL112256   1.567  32.472   9.925 -0.3990  0.2915  0.0720
 1045DOPE   GL212257   1.310  32.516  10.063 -0.3423  0.0688  0.1340
 1045DOPE   C1A12258   1.862  32.363  10.328  0.1272 -0.0670  0.2995
 1045DOPE   D2A12259   2.064  32.557  10.672 -0.2428  0.2274  0.0943
 1045DOPE   C3A12260   2.145  32.620  11.111 -0.2837  0.0885 -0.0292
 1045DOPE   C4A12261   2.178  32.877  11.427  0.0330 -0.1629  0.1240
 1045DOPE   C1B12262   1.169  32.754  10.449  0.1023  0.1261 -0.0024
 1045DOPE   D2B12263   1.143  32.883  10.902 -0.0835  0.1616 -0.0484
 1045DOPE   C3B12264   1.117  33.017  11.333  0.0542 -0.1940  0.0253
 1045DOPE   C4B12265   1.077  32.815  11.731 -0.0824 -0.1783 -0.2625
 1046POSM   NC312266   9.028  30.333   9.066 -0.1298 -0.0665 -0.0121
 1046POSM   PO412267   8.699  30.395   9.269 -0.1691 -0.0306 -0.0735
 1046POSM   AM112268   8.713  30.259   9.564  0.0620 -0.4571  0.2840
 1046POSM   AM212269   8.644  30.047   9.760  0.0256  0.0352  0.1192
 1046POSM   T1A12270   9.102  30.250   9.878 -0.0923 -0.0550  0.0738
 1046POSM   C2A12271   9.544  30.386   9.901 -0.1105 -0.0100  0.0154
 1046POSM   C3A12272   9.865  30.687   9.863 -0.6043  0.0226  0.0095
 1046POSM   C1B12273   8.658  30.207  10.068  0.2143 -0.0063 -0.2413
 1046POSM   D2B12274   8.679  30.578  10.348  0.3033  0.0992 -0.0163
 1046POSM   C3B12275   8.336  30.415  10.597 -0.2677  0.1692 -0.3806
 1046POSM   C4B12276   8.015  30.108  10.686  0.2011 -0.0448  0.0427
 1047DOPC   NC312277  10.040  32.081  10.040  0.0652  0.2677  0.0749
 1047DOPC   PO412278   9.635  32.110   9.954  0.0547  0.0615  0.0552
 1047DOPC   GL112279   9.488  32.204  10.375  0.1400  0.2187  0.2737
 1047DOPC   GL212280   9.746  32.028  10.471  0.1002  0.1838  0.0893
 1047DOPC   C1A12281   9.227  32.246  10.740 -0.0769  0.4597  0.0764
 1047DOPC   D2A12282   9.017  32.072  11.102 -0.1311  0.0173  0.0449
 1047DOPC   C3A12283   8.887  32.346  11.430  0.0657  0.1608  0.2544
 1047DOPC   C4A12284   9.076  32.558  11.784  0.0606 -0.1170 -0.0398
 1047DOPC   C1B12285   9.866  32.428  10.687  0.2036  0.0975  0.2379
 1047DOPC   D2B12286  10.256  32.714  10.724  0.0778  0.1662  0.1250
 1047DOPC   C3B12287  10.400  32.632  11.192 -0.1474 -0.0771 -0.0077
 1047DOPC   C4B12288  10.411  32.675  11.643 -0.0689 -0.0729  0.3215
 1048POSM   NC312289   9.412  34.345  10.407 -0.0615  0.0430 -0.0781
 1048POSM   PO412290   9.576  34.703  10.276  0.0660  0.0510  0.1055
 1048POSM   AM112291   9.503  34.800  10.565 -0.1228  0.0636  0.0615
 1048POSM   AM212292   9.459  34.672  10.822  0.0886 -0.0067 -0.2561
 1048POSM   T1A12293   9.664  35.081  10.981 -0.2820  0.2346  0.0726
 1048POSM   C2A12294   9.608  35.334  11.400  0.1675 -0.0087 -0.0313
 1048POSM   C3A12295   9.672  35.678  11.731 -0.1234 -0.0181  0.3364
 1048POSM   C1B12296   9.476  34.584  11.155 -0.0652 -0.2047  0.0775
 1048POSM   D2B12297   9.521  34.401  11.585 -0.1060 -0.1574  0.0504
 1048POSM   C3B12298   9.844  34.422  11.885 -0.1639 -0.1239 -0.2575
 1048POSM   C4B12299   9.843  34.508  12.317 -0.2747 -0.1358  0.0960
 1049DOPE   NH312300   4.230  22.513   9.765  0.1557  0.1266  0.1543
 1049DOPE   PO412301   4.039  22.335   9.991  0.0253 -0.1014  0.0529
 1049DOPE   GL112302   4.094  22.083  10.353 -0.0096 -0.0379 -0.0781
 1049DOPE   GL212303   4.296  21.868  10.177 -0.1198 -0.0435  0.1541
 1049DOPE   C1A12304   4.459  21.998  10.627 -0.0521 -0.1427 -0.1261
 1049DOPE   D2A12305   4.479  22.067  11.087 -0.0040 -0.4157 -0.0408
 1049DOPE   C3A12306   4.635  21.723  11.327 -0.2748 -0.0736 -0.0893
 1049DOPE   C4A12307   4.608  21.293  11.270 -0.5275  0.1173  0.1142
 1049DOPE   C1B12308   4.730  21.784  10.081 -0.0406 -0.3784 -0.0695
 1049DOPE   D2B12309   5.176  21.630  10.041 -0.2666 -0.2089  0.1193
 1049DOPE   C3B12310   5.405  21.614  10.487  0.3304  0.1898  0.1072
 1049DOPE   C4B12311   5.517  21.482  10.929 -0.0224  0.1395  0.0142
 1050DOPC   NC312312   7.875  25.907   9.573 -0.1774  0.1152 -0.0245
 1050DOPC   PO412313   7.717  25.619   9.406  0.0365  0.1135 -0.3147
 1050DOPC   GL112314   7.514  25.623   9.788  0.1446 -0.0880 -0.4165
 1050DOPC   GL212315   7.425  25.335   9.859  0.2515  0.2185  0.1388
 1050DOPC   C1A12316   7.535  25.989  10.070  0.0095  0.2401  0.0444
 1050DOPC   D2A12317   7.750  26.266  10.289 -0.0761  0.0204  0.2434
 1050DOPC   C3A12318   7.845  26.280  10.715  0.0568  0.0084 -0.0797
 1050DOPC   C4A12319   7.679  25.942  10.984 -0.0135 -0.1369 -0.1068
 1050DOPC   C1B12320   7.294  25.429  10.260  0.2113 -0.1323 -0.0043
 1050DOPC   D2B12321   7.421  25.613  10.660 -0.1481 -0.0893  0.1226
 1050DOPC   C3B12322   7.111  25.878  10.886  0.0945 -0.0295  0.0110
 1050DOPC   C4B12323   6.848  26.026  11.234 -0.2916  0.1692 -0.1026
 1051DOPE   NH312324  13.389  21.343  10.429  0.3070  0.0672  0.2989
 1051DOPE   PO412325  13.542  21.549  10.596 -0.0391  0.0555 -0.0669
 1051DOPE   GL112326  13.574  21.721  10.903 -0.1083  0.1102 -0.1088
 1051DOPE   GL212327  13.663  21.547  11.099  0.1036 -0.0068 -0.0315
 1051DOPE   C1A12328  13.636  22.038  11.266 -0.1414  0.0261  0.1880
 1051DOPE   D2A12329  13.687  22.482  11.431 -0.0518 -0.0233  0.1735
 1051DOPE   C3A12330  13.560  22.636  11.831  0.2676 -0.0111 -0.1089
 1051DOPE   C4A12331  13.300  22.377  12.147  0.2270 -0.0415  0.1947
 1051DOPE   C1B12332  13.372  21.287  11.423 -0.1500 -0.2615 -0.0592
 1051DOPE   D2B12333  13.039  21.319  11.749 -0.2039 -0.3424  0.1321
 1051DOPE   C3B12334  12.958  20.957  12.001  0.1136 -0.0216  0.1142
 1051DOPE   C4B12335  12.685  20.939  12.380  0.2024 -0.1518 -0.0335
 1052POSM   NC312336   0.752  28.287   9.196 -0.1072 -0.2837 -0.0125
 1052POSM   PO412337   0.810  27.906   9.338  0.1638 -0.1381  0.0468
 1052POSM   AM112338   0.720  28.048   9.632  0.0788  0.1021 -0.1064
 1052POSM   AM212339   0.563  27.890   9.805  0.1351  0.0410 -0.0617
 1052POSM   T1A12340   0.764  28.315  10.103  0.2326 -0.0842  0.2178
 1052POSM   C2A12341   0.791  28.569  10.484 -0.0722  0.0934 -0.3300
 1052POSM   C3A12342   1.124  28.745  10.754  0.2373 -0.2759 -0.2127
 1052POSM   C1B12343   0.408  27.879  10.133  0.0384  0.1386  0.3048
 1052POSM   D2B12344   0.073  27.954  10.531 -0.2077  0.2995 -0.0101
 1052POSM   C3B12345   0.019  27.499  10.772 -0.0950  0.1358  0.3230
 1052POSM   C4B12346  -0.146  27.202  11.128  0.2175  0.0763  0.0353
 1053DOPC   NC312347   7.065  27.251   9.358  0.0524  0.1125 -0.0275
 1053DOPC   PO412348   6.705  27.140   9.435 -0.1225  0.0130 -0.1093
 1053DOPC   GL112349   6.810  27.072   9.838 -0.2591 -0.0878 -0.3139
 1053DOPC   GL212350   7.009  26.858   9.762 -0.2067  0.0484  0.1222
 1053DOPC   C1A12351   6.887  27.299  10.234 -0.3746  0.0629  0.2718
 1053DOPC   D2A12352   7.064  27.409  10.653  0.1961 -0.1833 -0.0776
 1053DOPC   C3A12353   7.349  27.413  10.979  0.1402 -0.1278 -0.0455
 1053DOPC   C4A12354   7.639  27.311  11.323 -0.1421  0.0473 -0.1225
 1053DOPC   C1B12355   6.817  26.661  10.105 -0.1689  0.2287 -0.0465
 1053DOPC   D2B12356   6.449  26.714  10.309 -0.0505  0.0416  0.0615
 1053DOPC   C3B12357   6.444  27.201  10.294 -0.2478 -0.0287  0.0112
 1053DOPC   C4B12358   6.590  27.532  10.564 -0.0025 -0.3024  0.1611
 1054POSM   NC312359   9.492  22.141   9.908  0.1140  0.1485 -0.2048
 1054POSM   PO412360   9.580  22.536   9.976 -0.0194 -0.0060  0.0150
 1054POSM   AM112361   9.836  22.408  10.148 -0.1917  0.0240  0.0481
 1054POSM   AM212362   9.925  22.154  10.156 -0.1693  0.1482  0.1096
 1054POSM   T1A12363   9.876  22.271  10.609  0.0298 -0.2288 -0.1834
 1054POSM   C2A12364   9.775  22.484  10.989  0.1039  0.1058  0.1774
 1054POSM   C3A12365   9.687  22.455  11.465  0.2443 -0.1291  0.1984
 1054POSM   C1B12366   9.927  21.893  10.353 -0.0818 -0.3377 -0.2504
 1054POSM   D2B12367   9.852  21.743  10.738  0.0023 -0.1127 -0.0600
 1054POSM   C3B12368   9.966  22.012  11.130  0.0126 -0.0665 -0.1417
 1054POSM   C4B12369  10.011  22.132  11.518  0.0267 -0.0325  0.0493
 1055POSM   NC312370   1.312  28.100   9.426 -0.1875 -0.1486 -0.1585
 1055POSM   PO412371   1.516  27.922   9.670  0.0691 -0.2837 -0.0809
 1055POSM   AM112372   1.615  28.013   9.966  0.1160 -0.0016 -0.1405
 1055POSM   AM212373   1.848  28.164  10.097  0.0613  0.1360 -0.1206
 1055POSM   T1A12374   1.537  28.016  10.467 -0.1933 -0.0518 -0.1240
 1055POSM   C2A12375   1.154  28.229  10.664  0.2076 -0.1102 -0.0206
 1055POSM   C3A12376   0.790  28.402  10.970 -0.0844  0.2119 -0.2218
 1055POSM   C1B12377   2.073  27.997  10.266  0.1706  0.0600 -0.0364
 1055POSM   D2B12378   2.125  27.667  10.640  0.1253 -0.0293 -0.0158
 1055POSM   C3B12379   1.742  27.620  10.922  0.0043  0.2601 -0.0722
 1055POSM   C4B12380   1.369  27.462  11.183  0.1290  0.2365  0.0696
 1056DOPC   NC312381   4.387  23.312  10.243  0.0385  0.1477 -0.0139
 1056DOPC   PO412382   4.725  23.449  10.028 -0.1923 -0.0773 -0.2709
 1056DOPC   GL112383   4.887  23.382  10.372  0.0629  0.1372 -0.0088
 1056DOPC   GL212384   5.195  23.211  10.341  0.0188 -0.0654 -0.0272
 1056DOPC   C1A12385   4.943  23.455  10.820  0.2737  0.0957  0.3986
 1056DOPC   D2A12386   5.261  23.521  11.159  0.0455  0.2386 -0.0148
 1056DOPC   C3A12387   5.458  23.866  10.981 -0.0697  0.0016  0.1534
 1056DOPC   C4A12388   5.812  24.083  11.113 -0.2806  0.0334  0.1776
 1056DOPC   C1B12389   5.527  23.474  10.563  0.1522 -0.3990  0.0490
 1056DOPC   D2B12390   5.871  23.581  10.932  0.3854  0.1967 -0.0185
 1056DOPC   C3B12391   5.697  23.597  11.329 -0.2165  0.1314 -0.2925
 1056DOPC   C4B12392   5.711  23.971  11.631  0.0196  0.0593  0.0370
 1057DOPE   NH312393   4.356  23.344   9.726 -0.2119  0.1135 -0.0341
 1057DOPE   PO412394   4.531  23.048   9.788 -0.1471  0.2564 -0.0140
 1057DOPE   GL112395   4.592  22.831  10.158  0.0867 -0.0130  0.0601
 1057DOPE   GL212396   4.810  22.943  10.211  0.0180  0.1047 -0.1640
 1057DOPE   C1A12397   4.738  22.580  10.524  0.0321 -0.3281 -0.1842
 1057DOPE   D2A12398   4.743  22.422  10.956 -0.0146 -0.2893  0.1254
 1057DOPE   C3A12399   4.876  22.616  11.354 -0.0141 -0.1843  0.1462
 1057DOPE   C4A12400   4.603  22.926  11.624 -0.0190 -0.0862 -0.1610
 1057DOPE   C1B12401   4.605  23.121  10.605 -0.1290 -0.2541  0.0966
 1057DOPE   D2B12402   4.448  23.554  10.719  0.0744  0.0149  0.4288
 1057DOPE   C3B12403   4.429  23.747  11.158  0.0828  0.0478  0.1309
 1057DOPE   C4B12404   4.305  24.055  11.541  0.1119  0.2340 -0.0113
 1058POSM   NC312405   5.584  32.272   9.426 -0.0418 -0.0591  0.1538
 1058POSM   PO412406   5.440  32.317   9.746 -0.2255  0.1418  0.1354
 1058POSM   AM112407   5.525  32.489  10.003 -0.0312  0.0557  0.4491
 1058POSM   AM212408   5.475  32.779  10.086 -0.1535  0.1771 -0.0381
 1058POSM   T1A12409   5.595  32.499  10.473 -0.2470  0.1121 -0.1780
 1058POSM   C2A12410   5.454  32.808  10.805  0.0043 -0.0906 -0.2864
 1058POSM   C3A12411   5.263  32.808  11.237 -0.0082  0.1253 -0.2461
 1058POSM   C1B12412   5.201  32.788  10.289 -0.2586 -0.3136  0.3954
 1058POSM   D2B12413   4.969  32.487  10.545 -0.2092  0.0142  0.0951
 1058POSM   C3B12414   4.933  32.568  11.029 -0.2841  0.0871 -0.0088
 1058POSM   C4B12415   4.666  32.713  11.341  0.0991 -0.2094 -0.3968
 1059POSM   NC312416   4.788  24.648   9.922 -0.1516 -0.0712  0.2718
 1059POSM   PO412417   4.615  24.294  10.016 -0.0420 -0.1375 -0.1338
 1059POSM   AM112418   4.672  24.329  10.339  0.1473 -0.1188 -0.1505
 1059POSM   AM212419   4.820  24.158  10.465  0.0552 -0.1534  0.1021
 1059POSM   T1A12420   4.914  24.598  10.730 -0.0158 -0.0272 -0.0612
 1059POSM   C2A12421   5.242  24.809  11.011 -0.2409  0.0850  0.2087
 1059POSM   C3A12422   5.256  24.840  11.464 -0.3066 -0.0276 -0.0476
 1059POSM   C1B12423   4.768  24.040  10.762 -0.0925 -0.0886 -0.1503
 1059POSM   D2B12424   4.921  23.836  11.186 -0.1845  0.1640  0.0035
 1059POSM   C3B12425   4.787  23.843  11.611 -0.2268  0.0595  0.0647
 1059POSM   C4B12426   4.525  23.834  11.976  0.1116 -0.1382  0.1171
 1060DOPS   CNO12427   4.571  25.518   9.689  0.1059 -0.2161  0.1425
 1060DOPS   PO412428   4.922  25.403   9.770  0.0654 -0.0322  0.1323
 1060DOPS   GL112429   4.989  25.683  10.087  0.0791 -0.2239  0.5461
 1060DOPS   GL212430   5.143  25.574  10.256 -0.0139  0.0515  0.0081
 1060DOPS   C1A12431   4.859  26.043  10.332  0.3152  0.5020 -0.1031
 1060DOPS   D2A12432   4.688  26.043  10.758 -0.2217  0.3615  0.0632
 1060DOPS   C3A12433   4.808  25.705  11.013 -0.3945  0.0579  0.1188
 1060DOPS   C4A12434   4.835  25.693  11.427  0.1777  0.0632  0.1576
 1060DOPS   C1B12435   4.749  25.504  10.416  0.0939  0.2198  0.0057
 1060DOPS   D2B12436   4.376  25.278  10.567  0.4144  0.0144 -0.0666
 1060DOPS   C3B12437   4.378  25.203  11.078 -0.1409  0.0206  0.2353
 1060DOPS   C4B12438   4.456  25.218  11.487  0.0905 -0.3129  0.1024
 1061DOPC   NC312439   4.223  32.447   9.607  0.1014 -0.0678 -0.0207
 1061DOPC   PO412440   3.867  32.243   9.572 -0.0074 -0.0194  0.2692
 1061DOPC   GL112441   3.804  32.088   9.948  0.2853 -0.1839 -0.2807
 1061DOPC   GL212442   3.627  31.871   9.982  0.0485  0.0397 -0.2210
 1061DOPC   C1A12443   3.570  32.194  10.335  0.1762  0.4102  0.0873
 1061DOPC   D2A12444   3.550  32.195  10.814  0.1510  0.0235  0.0935
 1061DOPC   C3A12445   3.630  32.111  11.271  0.1041 -0.0258 -0.1978
 1061DOPC   C4A12446   3.659  31.868  11.623  0.1886  0.2546  0.2102
 1061DOPC   C1B12447   3.957  31.698  10.293  0.1430  0.0170 -0.2399
 1061DOPC   D2B12448   4.410  31.638  10.419  0.1269 -0.1503 -0.5163
 1061DOPC   C3B12449   4.601  31.292  10.655  0.0875 -0.0063  0.1710
 1061DOPC   C4B12450   4.555  30.940  10.960 -0.2414 -0.0268 -0.0480
 1062POSM   NC312451  33.953  28.902   9.185 -0.2872  0.0025 -0.0562
 1062POSM   PO412452  34.300  29.011   9.378  0.1060  0.2153  0.1082
 1062POSM   AM112453  34.358  28.935   9.683  0.2304 -0.3123  0.2650
 1062POSM   AM212454  34.618  28.998   9.835  0.2008  0.0513  0.0604
 1062POSM   T1A12455  34.219  28.717  10.104  0.1300  0.1267  0.1970
 1062POSM   C2A12456  34.150  28.773  10.501 -0.1225  0.0675 -0.0139
 1062POSM   C3A12457  34.007  28.918  10.894  0.2409  0.2565  0.2016
 1062POSM   C1B12458  34.418  29.179  10.095  0.0094 -0.4761 -0.2570
 1062POSM   D2B12459  34.073  29.275  10.435 -0.0460 -0.1091 -0.0766
 1062POSM   C3B12460  34.116  29.665  10.642  0.0871  0.2504 -0.0735
 1062POSM   C4B12461  34.065  30.048  10.801 -0.0833 -0.0084 -0.0369
 1063DOPE   NH312462   7.365  23.253   9.860  0.1502 -0.0898 -0.1561
 1063DOPE   PO412463   7.574  23.410   9.669 -0.0935 -0.3686 -0.0193
 1063DOPE   GL112464   7.739  23.489   9.963 -0.0395  0.2095 -0.1530
 1063DOPE   GL212465   7.709  23.293  10.230 -0.2202 -0.0635 -0.2086
 1063DOPE   C1A12466   7.773  23.805  10.366 -0.2809 -0.2000  0.2568
 1063DOPE   D2A12467   7.941  24.179  10.652 -0.1363 -0.1384 -0.1922
 1063DOPE   C3A12468   7.866  24.037  11.065 -0.3371  0.3336 -0.2665
 1063DOPE   C4A12469   7.980  23.761  11.382  0.1171  0.1475 -0.0629
 1063DOPE   C1B12470   8.013  23.021  10.486  0.1131  0.2162 -0.0396
 1063DOPE   D2B12471   7.940  22.561  10.656 -0.1190 -0.0456 -0.3327
 1063DOPE   C3B12472   7.722  22.344  10.962 -0.1512 -0.0860 -0.1177
 1063DOPE   C4B12473   7.508  22.154  11.283  0.1831 -0.0406 -0.0617
 1064POSM   NC312474   1.190  31.908   9.288 -0.1179 -0.2798 -0.2839
 1064POSM   PO412475   1.244  32.123   9.613  0.2503 -0.2481  0.1884
 1064POSM   AM112476   1.209  32.069   9.965 -0.0974 -0.2159 -0.0729
 1064POSM   AM212477   0.981  32.118  10.131 -0.1521 -0.1048  0.0319
 1064POSM   T1A12478   1.428  32.165  10.423 -0.0626 -0.2148  0.1306
 1064POSM   C2A12479   1.382  32.066  10.879  0.2388 -0.0986 -0.0349
 1064POSM   C3A12480   1.505  31.858  11.285 -0.0214 -0.1070 -0.0134
 1064POSM   C1B12481   0.945  32.291  10.473  0.0649 -0.1940 -0.0863
 1064POSM   D2B12482   0.871  32.301  10.927 -0.1613 -0.0918  0.0890
 1064POSM   C3B12483   1.025  31.984  11.299 -0.0081 -0.2654 -0.1539
 1064POSM   C4B12484   1.045  31.646  11.596  0.2066 -0.2722 -0.1942
 1065POSM   NC312485   3.642  29.971   9.599  0.0836  0.4201 -0.1078
 1065POSM   PO412486   3.683  29.581   9.700  0.3009  0.0214 -0.1302
 1065POSM   AM112487   3.604  29.681  10.041 -0.2771  0.0799 -0.2526
 1065POSM   AM212488   3.657  29.862  10.242  0.0565  0.3129 -0.1177
 1065POSM   T1A12489   3.406  29.434  10.444 -0.2400  0.0022  0.0744
 1065POSM   C2A12490   3.060  29.165  10.591 -0.0987  0.0776  0.1105
 1065POSM   C3A12491   2.743  29.097  10.913 -0.0741 -0.0545 -0.0739
 1065POSM   C1B12492   3.704  29.804  10.549  0.0166 -0.0156  0.0191
 1065POSM   D2B12493   3.773  29.459  10.887  0.3323  0.1114 -0.1927
 1065POSM   C3B12494   3.721  29.668  11.318 -0.0654 -0.1497 -0.0556
 1065POSM   C4B12495   3.737  29.912  11.690 -0.0017  0.1164 -0.4633
 1066POSM   NC312496   1.945  31.744   9.498 -0.0794  0.2186  0.1528
 1066POSM   PO412497   1.563  31.671   9.582  0.4677  0.2568 -0.0361
 1066POSM   AM112498   1.528  31.722   9.902  0.0356  0.0877 -0.1904
 1066POSM   AM212499   1.384  31.604  10.097  0.0040 -0.0288  0.1659
 1066POSM   T1A12500   1.786  31.846  10.299 -0.2024 -0.0177  0.0803
 1066POSM   C2A12501   1.853  31.895  10.761 -0.1532 -0.2494 -0.0808
 1066POSM   C3A12502   1.762  32.266  11.099 -0.1707 -0.0835  0.0477
 1066POSM   C1B12503   1.168  31.658  10.335 -0.3335  0.3300 -0.0995
 1066POSM   D2B12504   1.060  31.703  10.789  0.1474 -0.0031  0.1827
 1066POSM   C3B12505   0.650  31.819  10.902 -0.0002 -0.3320 -0.0212
 1066POSM   C4B12506   0.289  31.750  10.684 -0.2824 -0.3201 -0.1770
 1067DOPS   CNO12507  10.361  26.011   9.379  0.2072  0.0807  0.2666
 1067DOPS   PO412508  10.552  26.306   9.312 -0.2876 -0.2121 -0.0802
 1067DOPS   GL112509  10.384  26.403   9.626  0.4883 -0.1832 -0.1080
 1067DOPS   GL212510  10.363  26.671   9.658 -0.0840  0.2867  0.1289
 1067DOPS   C1A12511  10.560  26.153   9.948 -0.1572  0.1835  0.1671
 1067DOPS   D2A12512  10.777  26.207  10.387 -0.0121 -0.2788 -0.0539
 1067DOPS   C3A12513  10.577  26.187  10.834  0.0818 -0.0789  0.1668
 1067DOPS   C4A12514  10.242  26.497  10.978 -0.1108 -0.0112  0.0674
 1067DOPS   C1B12515  10.509  26.649  10.122 -0.0100  0.0042 -0.2163
 1067DOPS   D2B12516  10.495  26.618  10.561 -0.2255  0.0027  0.0111
 1067DOPS   C3B12517  10.937  26.588  10.748  0.0150 -0.1640 -0.0224
 1067DOPS   C4B12518  11.300  26.429  10.970  0.2217  0.0011  0.0138
 1068POSM   NC312519   1.820  23.672   9.588 -0.3505 -0.0165  0.1056
 1068POSM   PO412520   1.856  23.408   9.874 -0.0823  0.0329  0.4232
 1068POSM   AM112521   1.938  23.523  10.168  0.2878 -0.0748 -0.0595
 1068POSM   AM212522   2.096  23.413  10.381  0.0305  0.0849  0.3958
 1068POSM   T1A12523   1.920  23.905  10.520  0.1446 -0.2400 -0.0464
 1068POSM   C2A12524   1.663  24.299  10.646 -0.0938  0.0402  0.0131
 1068POSM   C3A12525   1.427  24.663  10.798 -0.0473  0.1051  0.0007
 1068POSM   C1B12526   2.142  23.399  10.681  0.0446  0.4063  0.2285
 1068POSM   D2B12527   2.241  23.341  11.127 -0.1428 -0.2657  0.1922
 1068POSM   C3B12528   1.890  23.505  11.369  0.2116  0.2720 -0.0678
 1068POSM   C4B12529   1.610  23.736  11.596 -0.1745 -0.1261 -0.0943
 1069DOPE   NH312530  10.887  23.100   9.755 -0.2839 -0.1239 -0.2825
 1069DOPE   PO412531  10.652  23.237   9.892 -0.1525 -0.1257 -0.0095
 1069DOPE   GL112532  10.587  23.492  10.136 -0.0113  0.1537 -0.3190
 1069DOPE   GL212533  10.779  23.694  10.303  0.0763 -0.1807 -0.0668
 1069DOPE   C1A12534  10.295  23.608  10.465 -0.3083  0.0316 -0.0152
 1069DOPE   D2A12535  10.114  24.041  10.546  0.1330 -0.0912  0.0235
 1069DOPE   C3A12536  10.512  24.292  10.465  0.3236  0.2445  0.0713
 1069DOPE   C4A12537  10.914  24.590  10.421  0.0324  0.0998 -0.0681
 1069DOPE   C1B12538  11.016  23.596  10.644  0.2725 -0.0393  0.0593
 1069DOPE   D2B12539  11.166  23.388  11.014  0.0211 -0.1913 -0.1426
 1069DOPE   C3B12540  11.130  23.048  11.312 -0.1867  0.0575 -0.0079
 1069DOPE   C4B12541  11.395  22.889  11.674  0.4470  0.2599  0.2886
 1070DOPE   NH312542   9.152  33.536  10.069 -0.2548  0.1615  0.0993
 1070DOPE   PO412543   8.929  33.559  10.283 -0.0568  0.3676  0.0830
 1070DOPE   GL112544   8.944  33.599  10.622  0.0545  0.2945  0.0271
 1070DOPE   GL212545   9.298  33.667  10.706  0.2773 -0.1047 -0.1316
 1070DOPE   C1A12546   8.814  33.774  11.067  0.1678 -0.0775 -0.1886
 1070DOPE   D2A12547   8.457  33.870  11.310  0.0169 -0.3625  0.0340
 1070DOPE   C3A12548   8.455  33.763  11.738 -0.2308 -0.0152 -0.1098
 1070DOPE   C4A12549   8.645  33.419  11.964  0.3211 -0.2966  0.1043
 1070DOPE   C1B12550   9.238  33.528  11.143 -0.1270  0.0418 -0.0321
 1070DOPE   D2B12551   9.373  33.371  11.606  0.1863 -0.0132 -0.0222
 1070DOPE   C3B12552   9.363  33.471  12.064 -0.1329  0.0711  0.0893
 1070DOPE   C4B12553   9.069  33.820  12.099  0.4333  0.0858  0.1235
 1071DOPE   NH312554   3.263  27.342   9.594 -0.1543  0.0525 -0.1633
 1071DOPE   PO412555   3.365  27.646   9.628 -0.0232  0.0772  0.0457
 1071DOPE   GL112556   3.473  27.521   9.962  0.1524 -0.3839 -0.0057
 1071DOPE   GL212557   3.517  27.349  10.088 -0.1414 -0.0404 -0.3690
 1071DOPE   C1A12558   3.279  27.750  10.338  0.3303 -0.0099 -0.0769
 1071DOPE   D2A12559   2.978  27.787  10.694 -0.1732 -0.0057  0.1590
 1071DOPE   C3A12560   2.541  27.986  10.716 -0.1922  0.4762 -0.1949
 1071DOPE   C4A12561   2.168  28.277  10.702  0.1713 -0.2908  0.0067
 1071DOPE   C1B12562   3.606  27.366  10.532 -0.2304  0.2322  0.2640
 1071DOPE   D2B12563   3.576  27.310  11.005 -0.1068  0.1297  0.2940
 1071DOPE   C3B12564   3.803  27.551  11.345  0.1209  0.1068  0.1366
 1071DOPE   C4B12565   3.633  27.976  11.507  0.1633  0.2424 -0.0042
 1072DOPE   NH312566  32.180  26.736   9.537 -0.0460 -0.3199  0.1252
 1072DOPE   PO412567  32.300  27.072   9.471 -0.3622 -0.3390 -0.0026
 1072DOPE   GL112568  32.299  27.044   9.870 -0.4468 -0.0160  0.1327
 1072DOPE   GL212569  32.496  26.729   9.966 -0.0121  0.4328 -0.0789
 1072DOPE   C1A12570  32.065  27.255  10.220 -0.2526  0.0393 -0.2272
 1072DOPE   D2A12571  31.917  27.425  10.623 -0.1129  0.1738 -0.1847
 1072DOPE   C3A12572  32.226  27.337  10.981 -0.2019 -0.3056  0.0302
 1072DOPE   C4A12573  32.566  27.284  11.343 -0.0442  0.0788  0.3812
 1072DOPE   C1B12574  32.440  26.422  10.329 -0.1216 -0.0356  0.0679
 1072DOPE   D2B12575  32.544  26.360  10.733  0.3387  0.2902 -0.0894
 1072DOPE   C3B12576  32.903  26.495  10.981 -0.2905  0.0119 -0.0458
 1072DOPE   C4B12577  33.293  26.372  11.156  0.3646  0.5652 -0.0668
 1073POSM   NC312578   0.385  26.560   8.817 -0.1424  0.2907 -0.0511
 1073POSM   PO412579   0.066  26.740   8.985  0.2079 -0.0631 -0.0176
 1073POSM   AM112580   0.040  26.762   9.304 -0.2266 -0.0565 -0.1585
 1073POSM   AM212581   0.137  26.639   9.557  0.0812  0.2033  0.2125
 1073POSM   T1A12582  -0.363  26.761   9.619 -0.2745  0.1574  0.2695
 1073POSM   C2A12583  -0.782  26.719   9.810  0.0712 -0.2458 -0.0218
 1073POSM   C3A12584  -1.242  26.815   9.802  0.2933 -0.2155  0.0478
 1073POSM   C1B12585   0.105  26.625   9.927 -0.5650 -0.0776 -0.0347
 1073POSM   D2B12586  -0.128  26.642  10.353 -0.1683 -0.0425 -0.1325
 1073POSM   C3B12587  -0.274  26.826  10.814  0.0672  0.1373 -0.2336
 1073POSM   C4B12588  -0.468  26.554  11.115 -0.1221  0.0550  0.1278
 1074DOPC   NC312589  10.437  31.811   9.782  0.0261  0.0665 -0.1160
 1074DOPC   PO412590  10.133  31.601   9.894  0.1562  0.5907 -0.1865
 1074DOPC   GL112591  10.223  31.178  10.015 -0.2207 -0.1356  0.1609
 1074DOPC   GL212592   9.987  31.188  10.147 -0.1255  0.2523 -0.0151
 1074DOPC   C1A12593  10.181  30.734  10.218  0.1007 -0.5892 -0.2072
 1074DOPC   D2A12594  10.367  30.436  10.545  0.2538  0.1561  0.2313
 1074DOPC   C3A12595  10.541  30.546  10.962  0.0260  0.2371 -0.1430
 1074DOPC   C4A12596  10.766  30.788  11.278 -0.1050 -0.0079  0.4626
 1074DOPC   C1B12597   9.890  31.285  10.571 -0.2268 -0.0685  0.0158
 1074DOPC   D2B12598  10.191  31.220  10.940  0.1868  0.1006  0.0487
 1074DOPC   C3B12599  10.042  30.849  11.223 -0.0225  0.0139 -0.1516
 1074DOPC   C4B12600  10.036  30.423  11.034  0.1428 -0.3038  0.1967
 1075DOPC   NC312601   8.756   0.034  10.174  0.2304  0.1603  0.2603
 1075DOPC   PO412602   8.999  -0.091  10.432  0.0817 -0.1022 -0.1551
 1075DOPC   GL112603   9.043  -0.404  10.642 -0.3685  0.2655  0.3601
 1075DOPC   GL212604   8.807  -0.542  10.692  0.2770 -0.4296 -0.2951
 1075DOPC   C1A12605   9.192  -0.530  11.028  0.1811  0.0503 -0.0894
 1075DOPC   D2A12606   9.347  -0.778  11.433 -0.2272 -0.2154 -0.0183
 1075DOPC   C3A12607   9.452  -0.703  11.867 -0.0092 -0.0346  0.0681
 1075DOPC   C4A12608   9.716  -0.618  12.209  0.1662 -0.2085 -0.0231
 1075DOPC   C1B12609   8.711  -0.429  11.100 -0.2140  0.0170 -0.0801
 1075DOPC   D2B12610   8.491  -0.362  11.509  0.2505  0.0389  0.0949
 1075DOPC   C3B12611   8.065  -0.491  11.452  0.0354 -0.3073  0.2287
 1075DOPC   C4B12612   7.725  -0.780  11.356 -0.1493 -0.1848  0.3095
 1076POSM   NC312613  31.651  27.900   9.747  0.3052 -0.1984  0.0496
 1076POSM   PO412614  31.708  27.526   9.611 -0.1802  0.0928 -0.0987
 1076POSM   AM112615  31.715  27.425   9.912 -0.5460  0.2996 -0.0029
 1076POSM   AM212616  31.691  27.600  10.105  0.2422  0.2777 -0.0558
 1076POSM   T1A12617  31.587  27.162  10.300  0.0977  0.0995  0.0147
 1076POSM   C2A12618  31.595  27.096  10.743 -0.0247  0.2238 -0.0207
 1076POSM   C3A12619  31.555  27.031  11.182  0.4149  0.4899 -0.0320
 1076POSM   C1B12620  31.595  27.788  10.346 -0.2430 -0.1460 -0.0889
 1076POSM   D2B12621  31.713  27.972  10.749  0.0829 -0.2373 -0.1337
 1076POSM   C3B12622  31.986  27.849  11.103 -0.1751 -0.0309  0.2198
 1076POSM   C4B12623  32.217  27.671  11.414  0.0895 -0.0932  0.2866
 1077POSM   NC312624   6.775  28.317   9.041 -0.1735 -0.1749  0.2575
 1077POSM   PO412625   7.135  28.188   9.142  0.1501 -0.2737  0.0632
 1077POSM   AM112626   7.164  28.219   9.431 -0.0159 -0.1093 -0.4248
 1077POSM   AM212627   7.013  28.089   9.635 -0.1384  0.2280 -0.1163
 1077POSM   T1A12628   7.449  28.308   9.782 -0.1269  0.1231  0.3264
 1077POSM   C2A12629   7.576  28.209  10.178 -0.1668  0.3455 -0.1405
 1077POSM   C3A12630   7.666  28.418  10.541  0.0741  0.0005 -0.0883
 1077POSM   C1B12631   6.988  28.240   9.976  0.0373  0.3530  0.0559
 1077POSM   D2B12632   6.947  28.573  10.311 -0.0760 -0.2362  0.1046
 1077POSM   C3B12633   6.841  28.987  10.133  0.0809  0.0309 -0.0061
 1077POSM   C4B12634   6.428  29.177   9.956  0.0839 -0.0597  0.1158
 1078DOPS   CNO12635   8.290  26.184   9.458  0.0802 -0.0671  0.0172
 1078DOPS   PO412636   8.149  26.530   9.353 -0.1407  0.1423 -0.0048
 1078DOPS   GL112637   8.229  26.527   9.815 -0.0815  0.0588 -0.1464
 1078DOPS   GL212638   7.989  26.347   9.832  0.1008 -0.2033  0.0478
 1078DOPS   C1A12639   8.266  26.363  10.276 -0.1622 -0.2018  0.3239
 1078DOPS   D2A12640   8.410  26.445  10.712 -0.3259 -0.2405 -0.1594
 1078DOPS   C3A12641   8.415  26.626  11.123  0.1613 -0.2380  0.0704
 1078DOPS   C4A12642   8.659  26.661  11.478 -0.2949 -0.0754 -0.0061
 1078DOPS   C1B12643   7.720  26.699   9.977  0.0734  0.0728  0.0392
 1078DOPS   D2B12644   7.795  27.205   9.986  0.0269  0.0441  0.0324
 1078DOPS   C3B12645   7.683  27.606  10.155  0.0264  0.0044  0.3241
 1078DOPS   C4B12646   7.875  27.954  10.445 -0.0326 -0.3428 -0.3784
 1079DOPE   NH312647   7.818  30.759   9.711  0.1307  0.2060  0.1633
 1079DOPE   PO412648   8.168  30.842   9.733 -0.1484 -0.3084  0.1145
 1079DOPE   GL112649   8.125  30.766  10.092  0.1606 -0.3351  0.1920
 1079DOPE   GL212650   8.207  30.474  10.097 -0.0549  0.0496 -0.2757
 1079DOPE   C1A12651   8.313  30.936  10.477  0.1518  0.4319  0.1079
 1079DOPE   D2A12652   8.712  31.000  10.697  0.1443  0.0824  0.0895
 1079DOPE   C3A12653   8.759  31.094  11.139  0.0197  0.0220  0.1643
 1079DOPE   C4A12654   8.576  31.416  11.467  0.0082 -0.1864  0.0021
 1079DOPE   C1B12655   8.188  30.090  10.240 -0.0361  0.4098  0.1121
 1079DOPE   D2B12656   8.142  29.664  10.461  0.0882  0.2834  0.2771
 1079DOPE   C3B12657   7.928  29.607  10.841  0.1035 -0.2477 -0.2624
 1079DOPE   C4B12658   7.464  29.493  10.909 -0.1534 -0.1617 -0.1306
 1080DOPC   NC312659   6.481  26.585   9.638  0.1651  0.1786 -0.1357
 1080DOPC   PO412660   6.170  26.655   9.398  0.2373 -0.4237  0.0665
 1080DOPC   GL112661   6.033  26.565   9.717  0.1229  0.1243  0.2780
 1080DOPC   GL212662   6.120  26.246   9.822 -0.1518 -0.4241  0.1290
 1080DOPC   C1A12663   5.850  26.662  10.157  0.3239  0.2820 -0.1776
 1080DOPC   D2A12664   5.944  26.833  10.632 -0.0121 -0.2342  0.0380
 1080DOPC   C3A12665   6.295  26.598  10.931 -0.0257  0.1932 -0.2003
 1080DOPC   C4A12666   6.664  26.660  11.253 -0.3012  0.0251  0.0352
 1080DOPC   C1B12667   5.897  26.100  10.166 -0.0767 -0.1949 -0.1116
 1080DOPC   D2B12668   5.966  25.900  10.611  0.2139 -0.0180 -0.0708
 1080DOPC   C3B12669   5.781  26.179  10.983  0.2053 -0.0265 -0.0184
 1080DOPC   C4B12670   5.438  26.469  11.075  0.3047  0.1974  0.1459
 1081DOPC   NC312671   4.495  27.657  10.003 -0.2498  0.1632 -0.3551
 1081DOPC   PO412672   4.452  27.297   9.847 -0.0807 -0.0492  0.0311
 1081DOPC   GL112673   4.637  27.233  10.218 -0.1038 -0.2893 -0.1606
 1081DOPC   GL212674   4.866  27.146  10.125  0.0482  0.1297 -0.1112
 1081DOPC   C1A12675   4.562  27.063  10.644 -0.0045  0.0125  0.0194
 1081DOPC   D2A12676   4.484  27.031  11.097  0.0825 -0.2548 -0.0655
 1081DOPC   C3A12677   4.825  27.265  11.343 -0.1015 -0.0873  0.2220
 1081DOPC   C4A12678   4.928  27.430  11.730  0.3646 -0.0432 -0.1494
 1081DOPC   C1B12679   4.968  27.395  10.506  0.0998  0.0085 -0.5273
 1081DOPC   D2B12680   5.230  27.784  10.602  0.0093  0.0396 -0.3061
 1081DOPC   C3B12681   5.193  27.962  11.034 -0.1107 -0.0967  0.1269
 1081DOPC   C4B12682   5.086  27.767  11.433 -0.0511  0.0605  0.2191
 1082DOPC   NC312683   4.120  29.943   9.754  0.1784 -0.2602  0.1259
 1082DOPC   PO412684   4.104  30.388   9.799  0.0813  0.3111  0.3398
 1082DOPC   GL112685   3.995  30.435  10.161 -0.1430 -0.0754 -0.0555
 1082DOPC   GL212686   3.719  30.380  10.171 -0.0485  0.1380  0.0799
 1082DOPC   C1A12687   3.958  30.260  10.627 -0.0377 -0.3326  0.0276
 1082DOPC   D2A12688   4.024  29.942  10.996  0.0521  0.2857 -0.1681
 1082DOPC   C3A12689   4.449  29.828  11.040  0.1296  0.3257 -0.1220
 1082DOPC   C4A12690   4.733  29.491  10.971 -0.3259 -0.0664 -0.1590
 1082DOPC   C1B12691   3.356  30.218  10.472 -0.1473 -0.0298  0.2944
 1082DOPC   D2B12692   3.232  30.042  10.915  0.1506  0.0577 -0.0070
 1082DOPC   C3B12693   3.241  29.579  11.049  0.1802 -0.1351  0.3684
 1082DOPC   C4B12694   3.292  29.229  11.259  0.1124  0.0947 -0.1562
 1083DOPE   NH312695   6.339  23.549   9.749  0.1608  0.0171  0.0196
 1083DOPE   PO412696   6.650  23.507   9.795 -0.3591 -0.1998  0.3066
 1083DOPE   GL112697   6.747  23.685  10.140 -0.5322  0.2083  0.0856
 1083DOPE   GL212698   7.036  23.550  10.099 -0.0451  0.0246 -0.2981
 1083DOPE   C1A12699   7.037  23.910  10.458 -0.1064  0.2492  0.4877
 1083DOPE   D2A12700   6.960  24.120  10.875 -0.1021  0.2574 -0.0595
 1083DOPE   C3A12701   6.956  23.927  11.291  0.1641 -0.2586  0.1695
 1083DOPE   C4A12702   6.689  23.626  11.491  0.0417 -0.2337  0.2970
 1083DOPE   C1B12703   7.346  23.541  10.447 -0.0194  0.2614  0.1141
 1083DOPE   D2B12704   7.565  23.419  10.820 -0.2026 -0.1742  0.0289
 1083DOPE   C3B12705   7.649  22.935  10.873 -0.1636 -0.1388 -0.0344
 1083DOPE   C4B12706   7.787  22.771  11.312 -0.2098  0.0704  0.0779
 1084DOPC   NC312707  11.167  28.569   8.951  0.1412 -0.0261 -0.0309
 1084DOPC   PO412708  11.270  28.242   9.125 -0.0289  0.0814  0.1228
 1084DOPC   GL112709  10.980  28.179   9.470 -0.2844 -0.1310 -0.1805
 1084DOPC   GL212710  11.263  27.995   9.570  0.0813  0.1000  0.0904
 1084DOPC   C1A12711  10.610  28.476   9.633  0.0650  0.0818  0.2589
 1084DOPC   D2A12712  10.366  28.797   9.949 -0.1551 -0.0996  0.3823
 1084DOPC   C3A12713  10.203  28.663  10.332  0.1108  0.0684  0.0816
 1084DOPC   C4A12714  10.148  28.794  10.804  0.1143 -0.4122  0.0070
 1084DOPC   C1B12715  11.251  27.959  10.025  0.1269  0.0278  0.0821
 1084DOPC   D2B12716  11.306  27.920  10.510 -0.1172  0.0956  0.2141
 1084DOPC   C3B12717  11.685  28.215  10.605 -0.0468 -0.1421  0.0033
 1084DOPC   C4B12718  11.582  28.663  10.688 -0.1040  0.0590 -0.1355
 1085POSM   NC312719   4.855  26.216   9.790 -0.0699  0.0935  0.2550
 1085POSM   PO412720   4.490  26.292   9.729  0.0678 -0.1022  0.1537
 1085POSM   AM112721   4.410  26.113   9.968 -0.0814  0.1696  0.1107
 1085POSM   AM212722   4.461  25.894  10.121 -0.1076  0.0765  0.1603
 1085POSM   T1A12723   4.362  26.239  10.497  0.3533 -0.1143  0.0553
 1085POSM   C2A12724   4.168  26.126  10.921  0.0636 -0.2595 -0.0653
 1085POSM   C3A12725   3.999  26.148  11.346 -0.1422 -0.0753  0.1003
 1085POSM   C1B12726   4.387  25.777  10.425  0.4236 -0.0553  0.3318
 1085POSM   D2B12727   4.302  25.639  10.855  0.2224 -0.3008 -0.0809
 1085POSM   C3B12728   4.343  25.719  11.298  0.0411 -0.4879  0.1974
 1085POSM   C4B12729   4.416  25.725  11.778  0.0257  0.3099 -0.0175
 1086DOPS   CNO12730  33.718  21.582   9.767 -0.2044  0.1880  0.1149
 1086DOPS   PO412731  34.090  21.610   9.774  0.3362 -0.1660  0.2555
 1086DOPS   GL112732  34.023  21.509  10.127  0.1492 -0.0330 -0.0844
 1086DOPS   GL212733  33.768  21.594  10.261 -0.0048  0.1144  0.0782
 1086DOPS   C1A12734  34.159  21.688  10.551 -0.0824 -0.0418  0.1680
 1086DOPS   D2A12735  34.107  21.659  10.981  0.1362  0.3182  0.3189
 1086DOPS   C3A12736  34.326  21.281  11.133 -0.1150 -0.0895 -0.0498
 1086DOPS   C4A12737  34.750  21.165  11.349  0.0105 -0.1536 -0.1352
 1086DOPS   C1B12738  33.707  21.310  10.638 -0.0659 -0.1617  0.3765
 1086DOPS   D2B12739  33.610  21.298  11.059 -0.0156  0.0970 -0.2971
 1086DOPS   C3B12740  33.856  21.289  11.474  0.0502 -0.2797  0.0648
 1086DOPS   C4B12741  34.187  21.645  11.496  0.1012  0.2059 -0.2232
 1087DOPE   NH312742   2.444  28.123   9.341 -0.1174 -0.0941  0.0207
 1087DOPE   PO412743   2.236  28.329   9.469 -0.0807 -0.1287 -0.2107
 1087DOPE   GL112744   2.284  28.450   9.843  0.1104  0.0694 -0.1924
 1087DOPE   GL212745   2.372  28.266   9.999 -0.1401  0.0625  0.1756
 1087DOPE   C1A12746   2.056  28.586  10.247 -0.1638  0.1407 -0.1623
 1087DOPE   D2A12747   1.971  28.793  10.709  0.1793  0.2144  0.1585
 1087DOPE   C3A12748   2.246  28.909  11.111 -0.1369  0.0674 -0.0430
 1087DOPE   C4A12749   2.554  29.018  11.403 -0.2018  0.1138 -0.0882
 1087DOPE   C1B12750   2.626  28.351  10.415  0.2070  0.1948 -0.0647
 1087DOPE   D2B12751   3.025  28.212  10.533  0.0391 -0.2900 -0.2187
 1087DOPE   C3B12752   3.047  28.204  10.950 -0.0401  0.1827 -0.1300
 1087DOPE   C4B12753   3.308  28.314  11.280  0.0473  0.1520 -0.1412
 1088POSM   NC312754  33.233  26.644   9.410 -0.5273  0.0315 -0.4510
 1088POSM   PO412755  33.084  26.309   9.392  0.1272 -0.1578 -0.4670
 1088POSM   AM112756  33.093  26.375   9.733 -0.1719 -0.0698  0.0298
 1088POSM   AM212757  32.936  26.483   9.914 -0.2330 -0.2263 -0.1742
 1088POSM   T1A12758  33.470  26.313  10.096  0.1404 -0.0988 -0.0390
 1088POSM   C2A12759  33.881  26.326  10.157 -0.0738  0.1202 -0.4650
 1088POSM   C3A12760  34.302  26.365   9.960  0.1001 -0.1456  0.1927
 1088POSM   C1B12761  32.967  26.647  10.200 -0.1388 -0.2085 -0.2990
 1088POSM   D2B12762  33.254  26.929  10.394 -0.0874  0.1926 -0.0959
 1088POSM   C3B12763  33.614  26.649  10.419 -0.0239 -0.0169  0.1537
 1088POSM   C4B12764  34.003  26.474  10.653  0.1285 -0.0941 -0.0166
 1089DOPC   NC312765   5.140  24.283  10.098 -0.2166  0.0045 -0.0783
 1089DOPC   PO412766   5.359  24.533   9.890 -0.1497  0.1099 -0.4054
 1089DOPC   GL112767   5.175  24.681  10.236 -0.4225 -0.0532  0.1651
 1089DOPC   GL212768   5.304  24.631  10.472  0.1680 -0.2646 -0.1344
 1089DOPC   C1A12769   4.992  25.047  10.437  0.1007  0.0380 -0.2138
 1089DOPC   D2A12770   4.773  25.070  10.831 -0.2754 -0.3678 -0.1787
 1089DOPC   C3A12771   4.931  25.310  11.219 -0.1079 -0.0344 -0.0114
 1089DOPC   C4A12772   4.969  25.208  11.661 -0.0813  0.1555 -0.0703
 1089DOPC   C1B12773   5.589  24.541  10.844 -0.2130 -0.4816  0.1230
 1089DOPC   D2B12774   5.644  24.484  11.311 -0.2699  0.2405  0.0722
 1089DOPC   C3B12775   5.623  24.473  11.720  0.0095  0.0532  0.1098
 1089DOPC   C4B12776   5.264  24.226  11.926 -0.0137 -0.0079 -0.0588
 1090DOPS   CNO12777   2.566  22.356   9.832 -0.1930  0.1335 -0.3095
 1090DOPS   PO412778   2.573  22.673  10.066 -0.1623 -0.0233  0.0781
 1090DOPS   GL112779   2.367  22.625  10.453  0.3267 -0.3046  0.0473
 1090DOPS   GL212780   2.238  22.860  10.567  0.0892  0.2489 -0.2265
 1090DOPS   C1A12781   2.577  22.515  10.857  0.2449 -0.1352  0.3080
 1090DOPS   D2A12782   2.661  22.299  11.251  0.1484  0.0774  0.0680
 1090DOPS   C3A12783   2.573  22.336  11.658  0.2747  0.0689  0.1047
 1090DOPS   C4A12784   2.569  22.585  12.038 -0.1401  0.1021 -0.3446
 1090DOPS   C1B12785   2.227  22.845  11.024 -0.3042  0.1887  0.0245
 1090DOPS   D2B12786   1.989  22.979  11.383  0.0313 -0.2266 -0.2420
 1090DOPS   C3B12787   1.579  22.856  11.472 -0.1943 -0.2374  0.3846
 1090DOPS   C4B12788   1.237  22.690  11.724 -0.1148 -0.2583  0.0507
 1091DOPC   NC312789  33.791  26.556   9.345 -0.0657  0.1025  0.0635
 1091DOPC   PO412790  33.924  26.184   9.219  0.0286 -0.1213  0.2033
 1091DOPC   GL112791  34.022  25.958   9.489 -0.1514 -0.1785  0.0854
 1091DOPC   GL212792  33.738  26.012   9.659  0.0119  0.1662  0.0250
 1091DOPC   C1A12793  34.108  25.874   9.967  0.1364  0.1512  0.1003
 1091DOPC   D2A12794  34.060  25.734  10.374 -0.0226  0.0079 -0.0624
 1091DOPC   C3A12795  33.685  25.938  10.526  0.1692  0.2882  0.0197
 1091DOPC   C4A12796  33.535  26.206  10.790  0.0971 -0.2161 -0.1954
 1091DOPC   C1B12797  33.611  25.828  10.071  0.0479 -0.1698 -0.3072
 1091DOPC   D2B12798  33.669  25.365  10.259 -0.0754  0.0128 -0.1082
 1091DOPC   C3B12799  33.620  25.404  10.642 -0.1007  0.2602 -0.2013
 1091DOPC   C4B12800  33.492  25.701  10.989 -0.0544 -0.2259 -0.1885
 1092DOPC   NC312801   3.729  23.990   9.956  0.0067 -0.1077 -0.1208
 1092DOPC   PO412802   3.351  24.064   9.872  0.0403  0.2078  0.0049
 1092DOPC   GL112803   3.210  24.083  10.258  0.0201  0.2856  0.0588
 1092DOPC   GL212804   2.939  24.158  10.211 -0.0269  0.0186 -0.1598
 1092DOPC   C1A12805   3.251  24.474  10.516 -0.0803 -0.3804 -0.0848
 1092DOPC   D2A12806   3.427  24.719  10.855  0.1849  0.2718  0.2265
 1092DOPC   C3A12807   3.523  24.615  11.303 -0.1638 -0.1990  0.2370
 1092DOPC   C4A12808   3.392  24.254  11.582 -0.1982  0.1507 -0.3956
 1092DOPC   C1B12809   2.887  24.141  10.659  0.0280 -0.0164  0.0821
 1092DOPC   D2B12810   2.598  24.083  11.018 -0.0024 -0.3271  0.2027
 1092DOPC   C3B12811   2.159  23.988  10.994 -0.1196  0.2230 -0.0279
 1092DOPC   C4B12812   1.777  24.001  11.137  0.1186  0.0844 -0.1523
 1093DOPE   NH312813   5.820  24.143   9.725  0.2096 -0.1083  0.0710
 1093DOPE   PO412814   5.878  23.841   9.857 -0.0768 -0.1139  0.1766
 1093DOPE   GL112815   5.837  23.882  10.181  0.0431  0.1075 -0.0895
 1093DOPE   GL212816   5.590  23.859  10.251 -0.0936  0.0310 -0.0898
 1093DOPE   C1A12817   5.917  24.115  10.592  0.0110  0.2199  0.0898
 1093DOPE   D2A12818   6.066  24.484  10.918  0.1499 -0.2131  0.2988
 1093DOPE   C3A12819   5.873  24.926  10.950  0.0559 -0.1924 -0.1445
 1093DOPE   C4A12820   5.574  25.097  11.230  0.0020 -0.2158 -0.0077
 1093DOPE   C1B12821   5.357  24.108  10.574  0.3110 -0.2984  0.0227
 1093DOPE   D2B12822   5.209  24.272  10.995  0.1010  0.0907 -0.0044
 1093DOPE   C3B12823   5.242  24.071  11.443  0.0552  0.0108  0.0127
 1093DOPE   C4B12824   5.260  23.674  11.670  0.1343 -0.0211  0.0178
 1094DOPC   NC312825   0.132  28.038   9.301  0.0962 -0.0280 -0.1611
 1094DOPC   PO412826   0.338  28.267   9.543  0.2412  0.0178 -0.2088
 1094DOPC   GL112827   0.121  28.112   9.764 -0.0548 -0.4126  0.2410
 1094DOPC   GL212828   0.047  27.878   9.825 -0.1865  0.0243  0.2927
 1094DOPC   C1A12829  -0.183  28.189  10.158  0.1225  0.3572  0.0587
 1094DOPC   D2A12830  -0.435  28.280  10.528  0.2132  0.3995 -0.0499
 1094DOPC   C3A12831  -0.341  27.976  10.837 -0.2332 -0.1902 -0.0351
 1094DOPC   C4A12832  -0.339  27.701  11.207 -0.1535  0.0756 -0.0849
 1094DOPC   C1B12833  -0.412  27.707   9.874 -0.1288  0.1482 -0.2381
 1094DOPC   D2B12834  -0.822  27.590   9.998  0.1470 -0.3196  0.1883
 1094DOPC   C3B12835  -0.898  27.111  10.124  0.2912  0.4283 -0.1861
 1094DOPC   C4B12836  -0.581  26.762  10.233 -0.3088  0.0328 -0.0840
 1095DOPC   NC312837   7.506  33.809  10.374 -0.0555 -0.2972 -0.0455
 1095DOPC   PO412838   7.138  33.737  10.368  0.1568 -0.1519 -0.1659
 1095DOPC   GL112839   7.124  33.885  10.713  0.1221  0.0528 -0.4914
 1095DOPC   GL212840   7.332  33.964  10.855 -0.2489  0.0688 -0.2155
 1095DOPC   C1A12841   6.844  34.071  11.049 -0.2837  0.0107  0.1246
 1095DOPC   D2A12842   6.650  34.222  11.412 -0.3564  0.0192  0.0958
 1095DOPC   C3A12843   6.978  34.496  11.676  0.0482  0.1718  0.1258
 1095DOPC   C4A12844   7.226  34.746  11.988 -0.0684  0.1955  0.1427
 1095DOPC   C1B12845   7.214  33.682  11.136 -0.0005  0.0047 -0.1085
 1095DOPC   D2B12846   7.377  33.495  11.505 -0.1989 -0.0743  0.0540
 1095DOPC   C3B12847   7.294  33.625  11.880  0.2218  0.1209 -0.0728
 1095DOPC   C4B12848   7.435  33.813  12.215 -0.0360  0.0431 -0.0691
 1096POSM   NC312849   7.169  31.753   9.419 -0.1738 -0.0159 -0.2864
 1096POSM   PO412850   7.286  32.052   9.684 -0.0447  0.4545  0.2177
 1096POSM   AM112851   7.196  31.995  10.008 -0.4211  0.0664  0.0321
 1096POSM   AM212852   7.158  31.797  10.252 -0.0725 -0.0279  0.1837
 1096POSM   T1A12853   6.907  32.158  10.408  0.2506 -0.0741  0.0072
 1096POSM   C2A12854   6.595  32.060  10.736  0.0196 -0.0699 -0.1503
 1096POSM   C3A12855   6.324  32.341  11.004  0.0787 -0.2878 -0.3490
 1096POSM   C1B12856   7.131  31.746  10.609 -0.1387 -0.1438  0.0642
 1096POSM   D2B12857   7.031  31.671  11.023  0.4081  0.2764 -0.3838
 1096POSM   C3B12858   7.230  31.560  11.410 -0.2040 -0.0456  0.0250
 1096POSM   C4B12859   7.638  31.347  11.467 -0.0261 -0.2868 -0.2906
 1097DOPE   NH312860   6.361  26.115   9.317 -0.4066  0.1661  0.1681
 1097DOPE   PO412861   6.437  25.782   9.305 -0.1575  0.2816  0.0140
 1097DOPE   GL112862   6.275  25.824   9.662  0.0566  0.2238 -0.0126
 1097DOPE   GL212863   6.500  25.958   9.785  0.2490  0.1385  0.3326
 1097DOPE   C1A12864   6.309  25.729  10.155  0.0549  0.0802  0.1140
 1097DOPE   D2A12865   6.448  25.775  10.560 -0.0710  0.2297  0.2560
 1097DOPE   C3A12866   6.445  26.157  10.861  0.0232  0.2001  0.0565
 1097DOPE   C4A12867   6.397  26.227  11.369 -0.2774  0.3768  0.0452
 1097DOPE   C1B12868   6.660  26.132  10.115 -0.0841  0.2631  0.1070
 1097DOPE   D2B12869   6.809  26.137  10.532  0.1593 -0.2990  0.0336
 1097DOPE   C3B12870   6.960  26.601  10.545 -0.0767  0.0534 -0.0598
 1097DOPE   C4B12871   6.731  26.978  10.707 -0.0377 -0.1908  0.2869
 1098DOPS   CNO12872   3.882  24.477   9.745  0.0861  0.3808 -0.4510
 1098DOPS   PO412873   3.745  24.787   9.674  0.1240  0.1132  0.0128
 1098DOPS   GL112874   3.549  24.729   9.998 -0.1470 -0.1448 -0.1217
 1098DOPS   GL212875   3.509  24.479  10.108 -0.0440  0.2617 -0.1247
 1098DOPS   C1A12876   3.703  24.828  10.396  0.2572 -0.1737  0.1427
 1098DOPS   D2A12877   3.920  25.025  10.772  0.0145  0.0117  0.4681
 1098DOPS   C3A12878   3.981  24.712  11.068  0.1007 -0.1519 -0.0205
 1098DOPS   C4A12879   4.276  24.672  11.374 -0.1564 -0.3573  0.2230
 1098DOPS   C1B12880   3.653  24.184  10.397 -0.0795 -0.2602  0.4168
 1098DOPS   D2B12881   3.526  23.920  10.742  0.3421 -0.0682 -0.0569
 1098DOPS   C3B12882   3.519  23.634  11.119 -0.3560 -0.0113 -0.0977
 1098DOPS   C4B12883   3.390  23.668  11.555 -0.1946 -0.1652 -0.0250
 1099DOPC   NC312884   5.160  30.157   9.086 -0.1780  0.0708 -0.2688
 1099DOPC   PO412885   5.000  30.271   9.403 -0.0055 -0.1031 -0.1641
 1099DOPC   GL112886   4.871  30.142   9.759  0.1034  0.0081  0.1477
 1099DOPC   GL212887   4.616  30.235   9.738 -0.0504  0.0883  0.0368
 1099DOPC   C1A12888   4.714  29.995  10.177 -0.3671  0.1589 -0.1555
 1099DOPC   D2A12889   4.565  29.561  10.239 -0.0798  0.1648  0.0691
 1099DOPC   C3A12890   4.779  29.195  10.501  0.1597  0.1277  0.1009
 1099DOPC   C4A12891   5.076  29.085  10.890  0.0037 -0.3802  0.2636
 1099DOPC   C1B12892   4.845  30.464  10.090  0.3424  0.2949  0.0391
 1099DOPC   D2B12893   5.091  30.240  10.382  0.0782  0.1478 -0.0935
 1099DOPC   C3B12894   5.170  29.857  10.072 -0.1682  0.0603 -0.0679
 1099DOPC   C4B12895   5.046  29.417  10.116  0.0548 -0.1975  0.2643
 1100DOPE   NH312896   0.069  28.785   9.442  0.2918  0.0223 -0.1065
 1100DOPE   PO412897  -0.072  28.529   9.556 -0.1823 -0.1172 -0.1576
 1100DOPE   GL112898  -0.113  28.536   9.936  0.2714  0.2966  0.4627
 1100DOPE   GL212899   0.232  28.570   9.990  0.1754  0.2602 -0.3129
 1100DOPE   C1A12900  -0.060  28.593  10.429 -0.1407  0.1257  0.1549
 1100DOPE   D2A12901   0.254  28.676  10.740  0.0545  0.3331  0.4080
 1100DOPE   C3A12902   0.288  28.368  11.102  0.0290 -0.2366  0.0097
 1100DOPE   C4A12903   0.074  27.955  11.212  0.0681 -0.2644 -0.1409
 1100DOPE   C1B12904   0.355  28.358  10.381 -0.0670  0.0151 -0.2169
 1100DOPE   D2B12905   0.695  28.069  10.604  0.1430  0.1443 -0.0534
 1100DOPE   C3B12906   0.562  27.838  11.045  0.0871 -0.1763  0.1540
 1100DOPE   C4B12907   0.374  27.459  11.187  0.0897 -0.0161 -0.2407
 1101DOPE   NH312908   4.973  27.357   9.669  0.1930  0.2136  0.2529
 1101DOPE   PO412909   5.241  27.202   9.752  0.2757  0.2142  0.0812
 1101DOPE   GL112910   5.241  26.891  10.128 -0.1202  0.1055  0.0871
 1101DOPE   GL212911   5.521  27.019  10.198  0.0795 -0.0733 -0.1998
 1101DOPE   C1A12912   5.126  26.927  10.545 -0.1880 -0.2862  0.1659
 1101DOPE   D2A12913   4.981  26.853  10.980  0.2481  0.2238  0.3663
 1101DOPE   C3A12914   4.611  26.544  10.843 -0.2116  0.1064  0.0380
 1101DOPE   C4A12915   4.144  26.668  10.918  0.2836 -0.2523 -0.3403
 1101DOPE   C1B12916   5.531  27.239  10.573  0.0099  0.5731 -0.0626
 1101DOPE   D2B12917   5.477  26.928  10.906  0.0437 -0.1311  0.4239
 1101DOPE   C3B12918   5.865  26.733  11.101  0.1785  0.3497  0.1927
 1101DOPE   C4B12919   6.212  26.807  11.438  0.4429  0.0110  0.2476
 1102POSM   NC312920  10.674  27.685   9.044  0.2444  0.1551 -0.0862
 1102POSM   PO412921  10.404  27.532   9.313  0.2423 -0.1761  0.0179
 1102POSM   AM112922  10.386  27.531   9.640 -0.2906  0.0896 -0.1404
 1102POSM   AM212923  10.234  27.672   9.787 -0.2733  0.0889  0.2326
 1102POSM   T1A12924  10.506  27.549  10.155  0.3974 -0.3105 -0.2233
 1102POSM   C2A12925  10.451  27.489  10.608  0.1678  0.0270  0.1055
 1102POSM   C3A12926  10.492  27.296  11.057 -0.0491 -0.0302  0.0085
 1102POSM   C1B12927  10.191  27.881   9.969 -0.3266  0.1319 -0.1501
 1102POSM   D2B12928   9.974  28.233  10.233  0.0069 -0.2565 -0.1306
 1102POSM   C3B12929  10.068  28.319  10.694 -0.1315  0.1659  0.2383
 1102POSM   C4B12930  10.168  28.358  11.197 -0.2498  0.2306 -0.1753
 1103POSM   NC312931  10.015  33.326  10.034 -0.1006  0.0978 -0.1609
 1103POSM   PO412932   9.660  33.436  10.043  0.0321  0.0269 -0.4967
 1103POSM   AM112933   9.502  33.410  10.356 -0.0299 -0.3414  0.0564
 1103POSM   AM212934   9.296  33.249  10.474  0.4992 -0.2093 -0.1493
 1103POSM   T1A12935   9.644  33.332  10.841 -0.0336  0.1437  0.2270
 1103POSM   C2A12936   9.861  33.518  11.243 -0.1969  0.1310  0.2341
 1103POSM   C3A12937  10.186  33.509  11.538 -0.1441 -0.0951  0.0410
 1103POSM   C1B12938   9.190  33.161  10.729  0.1669  0.2080  0.1485
 1103POSM   D2B12939   8.880  33.020  11.004 -0.1812 -0.3970  0.0425
 1103POSM   C3B12940   9.120  32.671  11.117 -0.0352  0.1768 -0.1268
 1103POSM   C4B12941   9.481  32.527  11.363  0.1589 -0.0636  0.1611
 1104DOPC   NC312942  32.301  25.869   9.591  0.1344 -0.2113  0.0049
 1104DOPC   PO412943  32.072  26.204   9.572 -0.4777  0.1581  0.2503
 1104DOPC   GL112944  32.182  26.305   9.908  0.1241 -0.3562 -0.4095
 1104DOPC   GL212945  32.158  26.049  10.087  0.0948 -0.1800 -0.1675
 1104DOPC   C1A12946  32.024  26.661  10.193 -0.0293  0.0184 -0.4259
 1104DOPC   D2A12947  32.204  26.894  10.566  0.0135 -0.0157 -0.1094
 1104DOPC   C3A12948  32.474  26.888  10.937 -0.1524  0.0523 -0.1615
 1104DOPC   C4A12949  32.511  26.585  11.299 -0.4129  0.3026 -0.1983
 1104DOPC   C1B12950  32.585  26.197   9.955  0.0522 -0.0122 -0.0364
 1104DOPC   D2B12951  32.986  26.027  10.097 -0.0746 -0.0397  0.0992
 1104DOPC   C3B12952  33.106  26.227  10.493  0.1525  0.4179  0.4077
 1104DOPC   C4B12953  32.960  25.985  10.861 -0.2205 -0.3494  0.2007
 1105DOPC   NC312954   5.919  30.919   9.379  0.0410 -0.3291  0.2398
 1105DOPC   PO412955   5.797  30.532   9.358 -0.2192  0.0273 -0.3107
 1105DOPC   GL112956   5.650  30.541   9.624  0.1097 -0.1883 -0.1614
 1105DOPC   GL212957   5.411  30.410   9.755  0.1114  0.0732  0.0435
 1105DOPC   C1A12958   5.847  30.530  10.071  0.1510  0.3569 -0.1652
 1105DOPC   D2A12959   5.812  30.394  10.503 -0.2377 -0.1418  0.2294
 1105DOPC   C3A12960   5.747  30.211  10.834  0.0781  0.0784  0.2452
 1105DOPC   C4A12961   5.587  29.955  11.169  0.1328 -0.2954  0.1209
 1105DOPC   C1B12962   5.561  30.137  10.115 -0.1341 -0.2251 -0.0928
 1105DOPC   D2B12963   5.509  29.889  10.470  0.1438  0.3358 -0.3835
 1105DOPC   C3B12964   5.289  30.116  10.814 -0.0017  0.2383 -0.3387
 1105DOPC   C4B12965   5.281  30.505  11.086  0.0701  0.2348 -0.0410
 1106DOPC   NC312966   8.308  29.354   9.298  0.0388  0.2627 -0.4068
 1106DOPC   PO412967   8.111  29.649   9.346 -0.2210 -0.3117  0.1493
 1106DOPC   GL112968   8.008  29.893   9.677  0.1322  0.2449  0.1160
 1106DOPC   GL212969   8.197  29.789   9.834  0.1897  0.0997 -0.3215
 1106DOPC   C1A12970   7.751  29.728  10.026 -0.0719  0.0479 -0.0536
 1106DOPC   D2A12971   7.576  29.489  10.392 -0.2513  0.0773  0.1974
 1106DOPC   C3A12972   7.177  29.273  10.432 -0.1088  0.0448 -0.3672
 1106DOPC   C4A12973   6.816  29.474  10.508  0.0778  0.1168 -0.1946
 1106DOPC   C1B12974   8.274  29.290   9.873 -0.0601 -0.2027  0.0378
 1106DOPC   D2B12975   8.235  28.878   9.797  0.1301 -0.0391 -0.0640
 1106DOPC   C3B12976   8.382  28.462   9.802 -0.3441 -0.2834 -0.2338
 1106DOPC   C4B12977   8.507  27.989   9.779 -0.0990 -0.1123 -0.2269
 1107POSM   NC312978   2.625  25.920   9.513 -0.0862 -0.1722  0.2934
 1107POSM   PO412979   2.876  25.580   9.624  0.2373  0.1150  0.3678
 1107POSM   AM112980   2.763  25.633   9.923  0.0830 -0.0969 -0.0514
 1107POSM   AM212981   2.875  25.800  10.176  0.3188 -0.1805 -0.1592
 1107POSM   T1A12982   2.667  25.351  10.323 -0.0552 -0.0394 -0.1059
 1107POSM   C2A12983   2.631  25.152  10.765 -0.0367 -0.0132 -0.0645
 1107POSM   C3A12984   2.405  24.953  11.100 -0.1270 -0.1462 -0.0837
 1107POSM   C1B12985   2.726  25.954  10.396 -0.0988 -0.1279  0.2407
 1107POSM   D2B12986   2.549  26.043  10.828 -0.0194 -0.1605 -0.0310
 1107POSM   C3B12987   2.894  25.989  11.134 -0.2262 -0.0579  0.0963
 1107POSM   C4B12988   3.111  26.030  11.497  0.0976 -0.2251  0.2200
 1108DOPC   NC312989   2.766  33.331   9.739  0.1620  0.2303 -0.0759
 1108DOPC   PO412990   3.130  33.336   9.808  0.1781  0.5224  0.0261
 1108DOPC   GL112991   3.049  33.093  10.124 -0.2095 -0.2357 -0.2480
 1108DOPC   GL212992   3.284  33.298  10.243  0.0473  0.0754  0.0711
 1108DOPC   C1A12993   2.692  33.288  10.386  0.1987  0.0552 -0.0998
 1108DOPC   D2A12994   2.264  33.441  10.423  0.1478 -0.2603 -0.0621
 1108DOPC   C3A12995   2.018  33.527  10.773 -0.0094 -0.0098  0.1351
 1108DOPC   C4A12996   2.042  33.481  11.224 -0.4543 -0.1172 -0.1281
 1108DOPC   C1B12997   3.388  32.996  10.595 -0.0028 -0.0532  0.1114
 1108DOPC   D2B12998   3.221  32.657  10.954  0.0070 -0.1333 -0.2887
 1108DOPC   C3B12999   3.381  32.622  11.423  0.1977  0.1758  0.4771
 1108DOPC   C4B13000   3.435  32.999  11.623  0.0797 -0.1468  0.1348
 1109POSM   NC313001   9.381  24.685   9.687  0.1420 -0.2757 -0.1743
 1109POSM   PO413002   9.683  24.932   9.602  0.3639 -0.1812 -0.1198
 1109POSM   AM113003   9.636  25.133   9.869 -0.0683  0.0285 -0.2510
 1109POSM   AM213004   9.773  25.394   9.879  0.4591  0.0540  0.0659
 1109POSM   T1A13005   9.381  25.343  10.241  0.0021  0.1402 -0.0607
 1109POSM   C2A13006   9.324  25.653  10.605 -0.1590  0.0023  0.0981
 1109POSM   C3A13007   9.092  25.851  10.960  0.1032 -0.0636  0.1519
 1109POSM   C1B13008   9.886  25.512  10.192  0.0505 -0.0492 -0.1122
 1109POSM   D2B13009   9.855  25.536  10.645  0.2436 -0.0441 -0.1071
 1109POSM   C3B13010   9.552  25.421  11.001  0.2157 -0.0897 -0.1530
 1109POSM   C4B13011   9.107  25.383  11.139 -0.0448 -0.1081  0.1480
 1110DOPS   CNO13012   9.400  27.065   9.194 -0.2329  0.1450  0.0561
 1110DOPS   PO413013   9.783  27.027   9.215  0.0921 -0.3156 -0.0966
 1110DOPS   GL113014   9.583  26.956   9.633 -0.3114 -0.0546  0.0893
 1110DOPS   GL213015   9.865  26.789   9.686  0.0860  0.3567 -0.0044
 1110DOPS   C1A13016   9.413  27.020  10.059  0.1309 -0.0061 -0.1075
 1110DOPS   D2A13017   9.041  26.953  10.382 -0.1275  0.0672 -0.1456
 1110DOPS   C3A13018   8.724  27.292  10.510  0.2000  0.0246 -0.0677
 1110DOPS   C4A13019   8.718  27.554  10.859 -0.0911 -0.2275  0.1217
 1110DOPS   C1B13020   9.996  26.890  10.183  0.2991 -0.0230 -0.0998
 1110DOPS   D2B13021   9.968  26.607  10.567 -0.1037  0.4199 -0.0582
 1110DOPS   C3B13022   9.601  26.432  10.866 -0.1198 -0.0080  0.2327
 1110DOPS   C4B13023   9.278  26.323  11.172 -0.0269 -0.0885  0.0146
 1111DOPC   NC313024   5.428  24.982   9.304 -0.1648  0.3114  0.0765
 1111DOPC   PO413025   5.588  25.073   9.693 -0.3597 -0.3002 -0.0561
 1111DOPC   GL113026   5.574  25.226  10.067  0.2378  0.1838  0.0707
 1111DOPC   GL213027   5.640  24.937  10.156 -0.0544  0.1018  0.0571
 1111DOPC   C1A13028   5.678  25.575  10.329  0.2023  0.1693 -0.0669
 1111DOPC   D2A13029   5.450  25.993  10.398  0.0641 -0.1062 -0.1882
 1111DOPC   C3A13030   5.670  26.395  10.556 -0.0988 -0.0226  0.2223
 1111DOPC   C4A13031   6.109  26.363  10.514 -0.0400 -0.0118  0.0419
 1111DOPC   C1B13032   5.559  25.045  10.565 -0.0506  0.1048  0.1011
 1111DOPC   D2B13033   5.265  25.274  10.806 -0.1095 -0.2846  0.0500
 1111DOPC   C3B13034   5.283  25.733  10.851 -0.1159  0.0625 -0.3363
 1111DOPC   C4B13035   5.293  25.917  11.293 -0.1215 -0.2790 -0.1101
 1112DOPS   CNO13036  32.845  32.116   9.366  0.0596 -0.1001 -0.1250
 1112DOPS   PO413037  32.984  32.348   9.642  0.0203 -0.1894  0.0918
 1112DOPS   GL113038  33.150  32.144   9.934  0.0405  0.3671 -0.0641
 1112DOPS   GL213039  33.484  32.084   9.911  0.1067 -0.3283  0.0301
 1112DOPS   C1A13040  33.126  32.235  10.410 -0.0349 -0.2624  0.0532
 1112DOPS   D2A13041  33.312  32.218  10.831 -0.0509  0.0480  0.2106
 1112DOPS   C3A13042  33.397  32.631  10.902  0.0285  0.1725  0.1402
 1112DOPS   C4A13043  33.515  33.091  10.994 -0.0797 -0.0605 -0.1550
 1112DOPS   C1B13044  33.635  31.979  10.355  0.2315 -0.0740  0.2142
 1112DOPS   D2B13045  33.755  31.820  10.767  0.0698 -0.1136  0.1188
 1112DOPS   C3B13046  33.674  32.046  11.116  0.2401  0.0605 -0.2040
 1112DOPS   C4B13047  33.566  32.038  11.517 -0.1263 -0.3054  0.1823
 1113DOPE   NH313048   4.703  28.284   9.485  0.0427 -0.0298 -0.0942
 1113DOPE   PO413049   4.736  28.615   9.550 -0.0796 -0.0668  0.2364
 1113DOPE   GL113050   4.798  28.496   9.907  0.2948 -0.0976 -0.1255
 1113DOPE   GL213051   4.540  28.610   9.991  0.0934 -0.0716 -0.1589
 1113DOPE   C1A13052   5.125  28.278  10.187  0.2845  0.0119  0.1151
 1113DOPE   D2A13053   5.495  28.229  10.501 -0.1696 -0.3343  0.0982
 1113DOPE   C3A13054   5.743  27.797  10.598 -0.2247  0.0967 -0.0405
 1113DOPE   C4A13055   5.742  27.555  10.946 -0.0944 -0.0521  0.1128
 1113DOPE   C1B13056   4.592  28.435  10.412  0.2448  0.0978 -0.0307
 1113DOPE   D2B13057   4.542  28.491  10.878  0.1430  0.0232 -0.1344
 1113DOPE   C3B13058   4.897  28.680  11.154  0.1021 -0.1270 -0.3560
 1113DOPE   C4B13059   5.306  28.883  11.228  0.1301 -0.1134 -0.0117
 1114DOPE   NH313060  11.637  22.374   9.840 -0.1373  0.2876 -0.0875
 1114DOPE   PO413061  11.345  22.329   9.969 -0.0096  0.1787 -0.2087
 1114DOPE   GL113062  11.219  22.327  10.333  0.0734 -0.0789  0.0624
 1114DOPE   GL213063  11.076  22.104  10.532 -0.0856 -0.0182  0.1197
 1114DOPE   C1A13064  11.429  22.422  10.715 -0.3150 -0.4691 -0.1648
 1114DOPE   D2A13065  11.857  22.341  10.952  0.0253  0.0481 -0.1459
 1114DOPE   C3A13066  11.926  22.461  11.409 -0.1200  0.1012  0.1288
 1114DOPE   C4A13067  11.943  22.309  11.904  0.1921  0.1544  0.1890
 1114DOPE   C1B13068  10.733  22.248  10.859  0.0816 -0.1906 -0.0167
 1114DOPE   D2B13069  10.434  22.153  11.225 -0.0845 -0.4153 -0.0157
 1114DOPE   C3B13070  10.511  21.993  11.669  0.3513  0.1605  0.1068
 1114DOPE   C4B13071  10.589  22.005  12.081  0.3356  0.2197  0.0437
 1115DOPE   NH313072   7.470  27.918   8.897 -0.0669  0.4138 -0.2757
 1115DOPE   PO413073   7.686  27.707   9.048 -0.0441  0.0094  0.1510
 1115DOPE   GL113074   7.406  27.495   9.320 -0.2228  0.0536  0.3235
 1115DOPE   GL213075   7.333  27.736   9.437  0.2321 -0.0983 -0.0913
 1115DOPE   C1A13076   7.364  27.323   9.778  0.0138  0.1570  0.0946
 1115DOPE   D2A13077   7.299  27.041  10.166  0.1067  0.4276  0.0020
 1115DOPE   C3A13078   7.332  27.015  10.631  0.1167  0.0633 -0.1936
 1115DOPE   C4A13079   7.117  26.880  11.015 -0.1609 -0.2824  0.0712
 1115DOPE   C1B13080   7.329  27.841   9.901 -0.2553 -0.0326  0.4523
 1115DOPE   D2B13081   7.173  27.821  10.326  0.0979 -0.0331 -0.0864
 1115DOPE   C3B13082   7.522  27.746  10.623 -0.1795  0.2515 -0.1269
 1115DOPE   C4B13083   7.686  27.986  10.973 -0.0280 -0.2826  0.1425
 1116DOPC   NC313084   7.238  22.191   9.961 -0.0096 -0.1063 -0.0958
 1116DOPC   PO413085   6.919  22.167   9.732  0.2585  0.0663 -0.2064
 1116DOPC   GL113086   6.813  22.328  10.169 -0.3433  0.0573 -0.1989
 1116DOPC   GL213087   7.051  22.489  10.290 -0.3713 -0.3397 -0.0149
 1116DOPC   C1A13088   6.668  22.254  10.600 -0.1681  0.0795  0.1857
 1116DOPC   D2A13089   6.569  22.359  11.031  0.0307 -0.0137 -0.4162
 1116DOPC   C3A13090   6.813  22.700  11.249  0.1823  0.0657  0.1884
 1116DOPC   C4A13091   6.706  23.098  11.497 -0.0687  0.0085 -0.1843
 1116DOPC   C1B13092   7.150  22.609  10.704 -0.2075 -0.0429 -0.3924
 1116DOPC   D2B13093   7.310  22.631  11.191  0.2268  0.1211  0.0199
 1116DOPC   C3B13094   7.159  22.415  11.488 -0.1701 -0.1965 -0.3067
 1116DOPC   C4B13095   6.743  22.201  11.532 -0.1316  0.3222 -0.0468
 1117DOPS   CNO13096  11.276  30.247   9.414 -0.1778 -0.0650  0.1636
 1117DOPS   PO413097  11.620  30.435   9.340 -0.1939 -0.0868  0.0007
 1117DOPS   GL113098  11.651  30.264   9.664  0.0183 -0.3139  0.0390
 1117DOPS   GL213099  11.909  30.186   9.720 -0.2680  0.1534 -0.0327
 1117DOPS   C1A13100  11.243  30.277   9.934  0.2391 -0.0172 -0.2387
 1117DOPS   D2A13101  10.960  30.143  10.263 -0.1479 -0.2845  0.0147
 1117DOPS   C3A13102  10.730  30.114  10.652 -0.0750  0.2917  0.2404
 1117DOPS   C4A13103  10.226  29.885  10.691 -0.2736 -0.3916  0.0548
 1117DOPS   C1B13104  11.939  29.827  10.020 -0.0135  0.1891 -0.1033
 1117DOPS   D2B13105  11.978  29.737  10.506  0.0083 -0.0067  0.0793
 1117DOPS   C3B13106  11.829  30.030  10.902  0.0377  0.1684  0.2292
 1117DOPS   C4B13107  11.488  29.887  11.208  0.2745 -0.1714 -0.0376
 1118DOPS   CNO13108  11.351   0.239  10.353 -0.1993  0.3608  0.1715
 1118DOPS   PO413109  11.546   0.379  10.638  0.4471  0.1582  0.1087
 1118DOPS   GL113110  11.273   0.366  10.882  0.1072  0.0360  0.0646
 1118DOPS   GL213111  11.088   0.607  10.958 -0.1932  0.0468 -0.1822
 1118DOPS   C1A13112  10.993   0.199  11.235 -0.3807  0.0317  0.3215
 1118DOPS   D2A13113  10.817  -0.002  11.630 -0.1160  0.0496 -0.1134
 1118DOPS   C3A13114  10.803   0.126  12.040  0.2595 -0.2702 -0.3467
 1118DOPS   C4A13115  10.851   0.343  12.422  0.1989 -0.0581  0.0042
 1118DOPS   C1B13116  11.417   0.567  11.287 -0.1428 -0.1469  0.0911
 1118DOPS   D2B13117  11.796   0.550  11.528  0.0605 -0.2219  0.1071
 1118DOPS   C3B13118  11.865   0.834  11.890 -0.0767 -0.1026 -0.2397
 1118DOPS   C4B13119  12.196   1.146  11.954 -0.0616 -0.1613 -0.2019
 1119DOPC   NC313120   7.110  29.522   9.477  0.2163 -0.0914  0.2305
 1119DOPC   PO413121   7.430  29.237   9.335  0.1388  0.1117 -0.2610
 1119DOPC   GL113122   7.455  29.226   9.766  0.4192 -0.0177  0.0726
 1119DOPC   GL213123   7.306  29.437   9.935  0.1312  0.5538 -0.2148
 1119DOPC   C1A13124   7.823  29.120  10.003 -0.2502  0.1757  0.3976
 1119DOPC   D2A13125   8.032  29.185  10.391 -0.0337  0.0605  0.1934
 1119DOPC   C3A13126   8.316  29.217  10.723  0.0069  0.1608  0.3911
 1119DOPC   C4A13127   8.485  29.144  11.144  0.1897 -0.1208  0.2556
 1119DOPC   C1B13128   6.917  29.497  10.023  0.0945  0.1564  0.0893
 1119DOPC   D2B13129   6.492  29.688  10.067  0.3991  0.1736  0.1257
 1119DOPC   C3B13130   6.295  29.469  10.419  0.2071  0.1703  0.2021
 1119DOPC   C4B13131   5.845  29.524  10.556 -0.1208  0.0438  0.0023
 1120DOPS   CNO13132   2.886  28.758   9.673 -0.0179 -0.1505  0.2135
 1120DOPS   PO413133   2.752  28.435   9.619 -0.1833  0.0817  0.1061
 1120DOPS   GL113134   2.815  28.342   9.952  0.3632  0.0240 -0.0142
 1120DOPS   GL213135   3.061  28.478  10.067 -0.0640  0.0439  0.0339
 1120DOPS   C1A13136   2.836  27.946  10.193  0.0164 -0.0405 -0.3946
 1120DOPS   D2A13137   2.562  27.621  10.358 -0.4797  0.2066 -0.2188
 1120DOPS   C3A13138   2.657  27.413  10.738 -0.1233 -0.0869 -0.1057
 1120DOPS   C4A13139   2.425  27.106  10.901 -0.0793 -0.1517  0.0906
 1120DOPS   C1B13140   2.972  28.698  10.492  0.2521 -0.2748 -0.2372
 1120DOPS   D2B13141   3.203  28.801  10.850 -0.0195 -0.0267 -0.1117
 1120DOPS   C3B13142   3.013  28.732  11.270  0.0756 -0.1899  0.0245
 1120DOPS   C4B13143   2.640  28.565  11.501  0.0590  0.0993  0.2394
 1121DOPS   CNO13144   3.306  26.974   9.192 -0.0956 -0.0285 -0.0266
 1121DOPS   PO413145   3.269  26.822   9.546 -0.2382  0.2877  0.3433
 1121DOPS   GL113146   3.414  26.900   9.888 -0.1228 -0.3135  0.2861
 1121DOPS   GL213147   3.196  27.045  10.013 -0.1498 -0.0266  0.1689
 1121DOPS   C1A13148   3.837  27.048  10.125 -0.0251 -0.0322  0.2122
 1121DOPS   D2A13149   4.137  27.343  10.226  0.0576  0.0545  0.4888
 1121DOPS   C3A13150   4.369  27.502  10.622 -0.0897  0.4094 -0.0226
 1121DOPS   C4A13151   4.242  27.514  11.046  0.0612  0.0419 -0.0515
 1121DOPS   C1B13152   3.076  27.302  10.426 -0.0987 -0.0211 -0.3011
 1121DOPS   D2B13153   3.099  27.305  10.875  0.0103  0.3012 -0.3196
 1121DOPS   C3B13154   3.234  27.277  11.307  0.0150 -0.0559 -0.0043
 1121DOPS   C4B13155   3.136  27.038  11.674  0.2330  0.0366  0.0279
 1122DOPC   NC313156   2.146  33.265   9.994 -0.1343 -0.5663  0.0928
 1122DOPC   PO413157   2.165  32.912   9.775  0.0105 -0.1096  0.1681
 1122DOPC   GL113158   2.346  32.905  10.198 -0.0922 -0.4071  0.0319
 1122DOPC   GL213159   2.368  32.558  10.247 -0.1101 -0.0001  0.0962
 1122DOPC   C1A13160   2.021  33.025  10.560 -0.1355  0.2675  0.1550
 1122DOPC   D2A13161   1.912  33.062  11.001 -0.1647  0.0586  0.1867
 1122DOPC   C3A13162   1.622  32.798  11.179  0.3499 -0.1163  0.2105
 1122DOPC   C4A13163   1.584  32.701  11.643  0.4710  0.2690  0.2415
 1122DOPC   C1B13164   2.498  32.770  10.640  0.2571 -0.0924 -0.1556
 1122DOPC   D2B13165   2.396  33.176  10.836  0.0707 -0.0099 -0.0807
 1122DOPC   C3B13166   2.489  33.237  11.271 -0.0535 -0.3507 -0.3093
 1122DOPC   C4B13167   2.243  33.310  11.679  0.0640  0.0066 -0.1114
 1123DOPE   NH313168  10.928  22.096  10.031  0.0635  0.1828 -0.1103
 1123DOPE   PO413169  10.665  22.220   9.871  0.3639 -0.5496 -0.1774
 1123DOPE   GL113170  10.699  22.401  10.302 -0.0898 -0.2817 -0.2900
 1123DOPE   GL213171  10.571  22.188  10.424  0.1243  0.1795  0.0662
 1123DOPE   C1A13172  10.733  22.681  10.667 -0.3362 -0.0911  0.4080
 1123DOPE   D2A13173  10.707  22.995  10.957 -0.2833  0.1558 -0.0180
 1123DOPE   C3A13174  10.679  23.370  11.189  0.2385  0.3070  0.0834
 1123DOPE   C4A13175  10.333  23.651  11.187 -0.2223 -0.2061  0.1139
 1123DOPE   C1B13176  10.295  21.965  10.672 -0.0797  0.0194 -0.2756
 1123DOPE   D2B13177  10.394  21.609  10.960  0.1962  0.1822 -0.2196
 1123DOPE   C3B13178  10.246  21.548  11.405  0.0738 -0.2314  0.1150
 1123DOPE   C4B13179  10.428  21.525  11.853  0.1095 -0.2204 -0.1927
 1124DOPE   NH313180  33.588  31.154   9.658 -0.0036  0.1656  0.2883
 1124DOPE   PO413181  33.557  31.514   9.627  0.1769  0.0036  0.0585
 1124DOPE   GL113182  33.495  31.554   9.983 -0.0353 -0.0847 -0.1502
 1124DOPE   GL213183  33.795  31.660  10.045  0.2450  0.4059  0.3918
 1124DOPE   C1A13184  33.240  31.754  10.362  0.1495 -0.2816  0.2020
 1124DOPE   D2A13185  32.912  31.868  10.690  0.1086  0.2057 -0.0721
 1124DOPE   C3A13186  32.843  31.586  11.004  0.2543 -0.1687  0.2426
 1124DOPE   C4A13187  32.966  31.495  11.406 -0.2630  0.1573  0.0160
 1124DOPE   C1B13188  34.069  31.487  10.444 -0.1179  0.1913  0.2785
 1124DOPE   D2B13189  34.444  31.669  10.637 -0.0649 -0.0445  0.1048
 1124DOPE   C3B13190  34.674  32.028  10.943 -0.1003  0.5200 -0.2124
 1124DOPE   C4B13191  35.053  32.215  11.035  0.0082 -0.0072 -0.1551
 1125POSM   NC313192   3.787  22.147   9.646 -0.0325  0.2846 -0.0871
 1125POSM   PO413193   3.544  22.296   9.873  0.3689 -0.2666 -0.0913
 1125POSM   AM113194   3.547  22.310  10.189  0.1671 -0.2813  0.0814
 1125POSM   AM213195   3.657  22.206  10.439  0.2073  0.0663  0.1286
 1125POSM   T1A13196   3.214  22.309  10.583 -0.1130  0.1003 -0.0955
 1125POSM   C2A13197   3.108  22.466  11.024  0.2669 -0.3956  0.0085
 1125POSM   C3A13198   3.113  22.242  11.470  0.1253 -0.0463  0.1254
 1125POSM   C1B13199   3.737  22.174  10.740 -0.1369 -0.1907  0.3522
 1125POSM   D2B13200   3.979  22.066  11.136  0.1386 -0.1079  0.2253
 1125POSM   C3B13201   4.177  21.625  11.294 -0.0757 -0.0878  0.0359
 1125POSM   C4B13202   4.231  21.219  11.576  0.0791 -0.2877 -0.0671
 1126DOPS   CNO13203  10.437  33.383   9.669  0.0286 -0.3732 -0.3118
 1126DOPS   PO413204  10.506  33.322  10.043 -0.0175 -0.0984 -0.1441
 1126DOPS   GL113205  10.428  33.288  10.421 -0.2067  0.0453  0.0409
 1126DOPS   GL213206  10.602  33.055  10.611 -0.0694  0.0371  0.3893
 1126DOPS   C1A13207  10.167  33.244  10.793 -0.1517  0.3131 -0.1444
 1126DOPS   D2A13208   9.949  32.969  11.070  0.1001 -0.0567 -0.1052
 1126DOPS   C3A13209   9.913  32.519  11.149 -0.0631  0.3135 -0.1615
 1126DOPS   C4A13210   9.666  32.126  11.018  0.2385 -0.4843  0.1062
 1126DOPS   C1B13211  10.801  32.922  11.055 -0.1136  0.2204  0.1490
 1126DOPS   D2B13212  10.992  32.819  11.469 -0.0047 -0.0331  0.0489
 1126DOPS   C3B13213  10.829  32.407  11.585 -0.1314  0.0293  0.0540
 1126DOPS   C4B13214  10.575  32.238  11.947 -0.1683 -0.1379 -0.1753
 1127DOPC   NC313215   6.113  21.719   9.911  0.0177 -0.0455  0.0206
 1127DOPC   PO413216   5.954  22.067   9.952 -0.0839  0.0781  0.1402
 1127DOPC   GL113217   6.041  22.027  10.356  0.0420  0.1243 -0.0375
 1127DOPC   GL213218   6.272  22.027  10.474  0.1028 -0.0515 -0.1550
 1127DOPC   C1A13219   5.767  21.882  10.711 -0.2973  0.0785 -0.2578
 1127DOPC   D2A13220   5.865  21.751  11.169 -0.1825 -0.0606 -0.0731
 1127DOPC   C3A13221   6.107  21.426  11.310  0.0893  0.0687  0.3504
 1127DOPC   C4A13222   5.983  20.952  11.330 -0.1197 -0.1594  0.1019
 1127DOPC   C1B13223   6.386  21.845  10.938  0.0546 -0.1986  0.3336
 1127DOPC   D2B13224   6.579  21.740  11.329  0.0090  0.2426  0.1366
 1127DOPC   C3B13225   7.044  21.850  11.433 -0.2240  0.0090 -0.1208
 1127DOPC   C4B13226   7.458  21.627  11.485  0.2763  0.2996 -0.2304
 1128DOPE   NH313227  30.361  26.455  10.169  0.2209 -0.0258 -0.3216
 1128DOPE   PO413228  30.607  26.595   9.982 -0.1686  0.0251  0.5214
 1128DOPE   GL113229  30.781  26.467  10.299  0.0091  0.0846  0.0245
 1128DOPE   GL213230  30.707  26.622  10.518  0.3365  0.1710 -0.0152
 1128DOPE   C1A13231  31.016  26.326  10.709 -0.2349 -0.1512  0.4442
 1128DOPE   D2A13232  31.215  26.529  11.056 -0.0329  0.0650 -0.1022
 1128DOPE   C3A13233  31.497  26.537  11.393 -0.0793 -0.1516  0.0147
 1128DOPE   C4A13234  31.509  26.187  11.709 -0.0787  0.1169  0.1697
 1128DOPE   C1B13235  30.765  26.689  10.996 -0.0910  0.2357 -0.0141
 1128DOPE   D2B13236  30.577  26.961  11.318  0.2412 -0.2208 -0.0181
 1128DOPE   C3B13237  30.697  27.373  11.329 -0.0985 -0.1187  0.1659
 1128DOPE   C4B13238  30.777  27.712  11.588 -0.1086 -0.2835  0.1205
 1129DOPS   CNO13239   8.840  24.775   9.628 -0.0499  0.0328 -0.2091
 1129DOPS   PO413240   8.937  24.429   9.496 -0.1329 -0.0336  0.0586
 1129DOPS   GL113241   8.941  24.223   9.861 -0.2183  0.0892 -0.0198
 1129DOPS   GL213242   9.026  24.476  10.046 -0.2798 -0.0897  0.2674
 1129DOPS   C1A13243   8.873  24.036  10.315  0.0460 -0.0741  0.0734
 1129DOPS   D2A13244   8.875  24.046  10.797 -0.1648  0.3410 -0.2211
 1129DOPS   C3A13245   8.969  24.124  11.236  0.1910  0.2141 -0.2350
 1129DOPS   C4A13246   8.900  24.070  11.653 -0.3809  0.2076 -0.0436
 1129DOPS   C1B13247   8.789  24.535  10.476 -0.4511  0.0343  0.0152
 1129DOPS   D2B13248   8.617  24.489  10.910 -0.0635 -0.3459  0.1670
 1129DOPS   C3B13249   8.872  24.641  11.270  0.0556  0.0669  0.2821
 1129DOPS   C4B13250   9.156  24.514  11.607 -0.2029 -0.1150 -0.1082
 1130DOPS   CNO13251  10.572  32.523   9.747 -0.0444 -0.1929  0.3431
 1130DOPS   PO413252  10.390  32.464  10.071 -0.0779  0.0375  0.0971
 1130DOPS   GL113253  10.350  32.186  10.448  0.2062  0.0637 -0.1256
 1130DOPS   GL213254  10.276  31.876  10.400  0.3091 -0.0172 -0.0245
 1130DOPS   C1A13255  10.274  32.257  10.897 -0.0598  0.0486  0.2116
 1130DOPS   D2A13256  10.106  32.095  11.297  0.0620 -0.0939 -0.1992
 1130DOPS   C3A13257  10.020  32.416  11.658  0.0705 -0.2770 -0.0232
 1130DOPS   C4A13258  10.002  32.462  12.076 -0.0256  0.1047  0.2495
 1130DOPS   C1B13259  10.083  31.750  10.816 -0.3405  0.1791 -0.0562
 1130DOPS   D2B13260   9.796  31.632  11.154  0.0586 -0.0657 -0.4822
 1130DOPS   C3B13261   9.466  31.914  11.387  0.0098  0.0871  0.0711
 1130DOPS   C4B13262   9.184  32.024  11.747 -0.2789 -0.1566  0.1014
 1131DOPE   NH313263  33.859  31.975   9.610  0.0249 -0.0579 -0.1712
 1131DOPE   PO413264  33.972  32.285   9.518  0.2271 -0.0343  0.0308
 1131DOPE   GL113265  33.874  32.561   9.921  0.2650  0.0227  0.4984
 1131DOPE   GL213266  33.743  32.787   9.807  0.0818  0.4844  0.1459
 1131DOPE   C1A13267  33.746  32.466  10.325 -0.2488 -0.3462  0.1326
 1131DOPE   D2A13268  33.775  32.403  10.728 -0.1660  0.1293 -0.2791
 1131DOPE   C3A13269  33.799  32.609  11.172  0.0617  0.1508  0.0463
 1131DOPE   C4A13270  33.721  32.954  11.427  0.0041 -0.3100 -0.0851
 1131DOPE   C1B13271  34.032  33.017  10.087  0.2364  0.1694  0.1454
 1131DOPE   D2B13272  34.465  32.998  10.168 -0.0457  0.2105 -0.0551
 1131DOPE   C3B13273  34.679  32.920  10.625  0.1938 -0.4266  0.4706
 1131DOPE   C4B13274  34.922  33.100  10.954  0.1219  0.1054 -0.0412
 1132DOPE   NH313275   3.367  26.393   9.789 -0.0167 -0.2026 -0.0337
 1132DOPE   PO413276   3.156  26.117   9.818  0.2488  0.0897  0.0550
 1132DOPE   GL113277   3.020  26.239  10.193 -0.1698 -0.2460 -0.2010
 1132DOPE   GL213278   3.248  26.106  10.342 -0.4039 -0.2604  0.0372
 1132DOPE   C1A13279   3.198  26.638  10.312 -0.1432  0.3504 -0.0908
 1132DOPE   D2A13280   3.421  26.932  10.570 -0.2646  0.0586 -0.0468
 1132DOPE   C3A13281   3.627  26.797  10.948  0.1988 -0.0968 -0.1403
 1132DOPE   C4A13282   3.712  26.507  11.330  0.3720  0.2860 -0.1707
 1132DOPE   C1B13283   3.338  25.912  10.729  0.0818  0.0961  0.1106
 1132DOPE   D2B13284   3.556  25.934  11.168  0.4600  0.2678  0.4089
 1132DOPE   C3B13285   3.605  25.674  11.507  0.1484 -0.1204  0.0977
 1132DOPE   C4B13286   3.721  25.398  11.803  0.0850  0.0939 -0.2052
 1133POSM   NC313287  11.926  20.526   9.901  0.0186 -0.1665  0.2298
 1133POSM   PO413288  11.583  20.548  10.117  0.0163  0.1183  0.0839
 1133POSM   AM113289  11.682  20.486  10.433  0.3334  0.1097  0.2792
 1133POSM   AM213290  11.654  20.315  10.684  0.0700  0.0270 -0.1155
 1133POSM   T1A13291  11.685  20.851  10.807 -0.0975 -0.1846 -0.1039
 1133POSM   C2A13292  11.547  21.056  11.188 -0.0467 -0.4923 -0.2926
 1133POSM   C3A13293  11.337  20.901  11.634 -0.0120  0.0487 -0.1623
 1133POSM   C1B13294  11.410  20.330  10.903 -0.0043 -0.1787 -0.0001
 1133POSM   D2B13295  11.093  20.570  11.067 -0.0773  0.0307  0.1137
 1133POSM   C3B13296  10.831  20.628  11.520 -0.3689  0.3398  0.1849
 1133POSM   C4B13297  10.565  20.878  11.814 -0.0398 -0.0710 -0.1887
 1134DOPC   NC313298   4.094  24.974  10.062 -0.2183  0.0331 -0.2535
 1134DOPC   PO413299   4.298  24.708   9.883 -0.1697  0.2050 -0.0011
 1134DOPC   GL113300   4.365  24.614  10.231 -0.0531  0.0282 -0.1630
 1134DOPC   GL213301   4.468  24.782  10.394  0.1342  0.2762  0.2719
 1134DOPC   C1A13302   4.036  24.480  10.549  0.1994 -0.0859 -0.1406
 1134DOPC   D2A13303   3.724  24.325  10.941  0.0547 -0.1587  0.0727
 1134DOPC   C3A13304   3.884  24.141  11.278  0.0691  0.0449 -0.0141
 1134DOPC   C4A13305   3.839  24.036  11.779 -0.0223  0.0614  0.1319
 1134DOPC   C1B13306   4.453  24.700  10.839  0.1197 -0.2218 -0.2263
 1134DOPC   D2B13307   4.763  24.818  11.214  0.1300  0.1270 -0.0466
 1134DOPC   C3B13308   4.661  24.802  11.680 -0.3261 -0.1918 -0.1772
 1134DOPC   C4B13309   4.638  25.112  12.002 -0.0865  0.1562  0.3497
 1135DOPC   NC313310   3.896  30.811   9.831 -0.1197 -0.1162  0.1726
 1135DOPC   PO413311   4.116  31.157   9.922  0.0110 -0.1061  0.0568
 1135DOPC   GL113312   4.040  31.099  10.204 -0.2736  0.2864 -0.3095
 1135DOPC   GL213313   3.750  30.929  10.269 -0.3194 -0.2577 -0.1135
 1135DOPC   C1A13314   4.120  31.119  10.679 -0.3644 -0.0191 -0.2431
 1135DOPC   D2A13315   3.962  31.133  11.161 -0.0822 -0.0835  0.1273
 1135DOPC   C3A13316   4.168  30.962  11.446 -0.3113  0.0854 -0.1441
 1135DOPC   C4A13317   4.138  30.821  11.876  0.1811 -0.0451 -0.1151
 1135DOPC   C1B13318   3.674  30.705  10.673 -0.0487 -0.1030 -0.3827
 1135DOPC   D2B13319   3.961  30.630  11.051  0.2911 -0.0285 -0.0380
 1135DOPC   C3B13320   4.383  30.470  10.945  0.1714 -0.1987 -0.0002
 1135DOPC   C4B13321   4.866  30.533  10.833 -0.1176 -0.2218 -0.0743
 1136DOPE   NH313322   8.129   0.140  10.315 -0.1681 -0.0611 -0.1581
 1136DOPE   PO413323   7.984   0.310  10.465 -0.3624 -0.0002  0.0201
 1136DOPE   GL113324   7.982   0.203  10.844 -0.1277 -0.2221 -0.2999
 1136DOPE   GL213325   7.830   0.465  10.950 -0.1452  0.3118 -0.2778
 1136DOPE   C1A13326   7.855  -0.041  11.205 -0.0718 -0.0600 -0.1852
 1136DOPE   D2A13327   7.639  -0.005  11.564 -0.1393 -0.0372  0.1859
 1136DOPE   C3A13328   7.529  -0.358  11.890 -0.0630  0.2493 -0.2523
 1136DOPE   C4A13329   7.283  -0.411  12.291 -0.3500  0.0023  0.1383
 1136DOPE   C1B13330   8.041   0.418  11.326  0.5364 -0.0857  0.0217
 1136DOPE   D2B13331   8.192   0.183  11.657 -0.0726 -0.1476 -0.2347
 1136DOPE   C3B13332   7.969  -0.076  11.932 -0.5039  0.2103  0.1800
 1136DOPE   C4B13333   7.686  -0.078  12.306  0.2700  0.0068 -0.0626
 1137POSM   NC313334  10.800  34.105  10.203 -0.1321  0.0210 -0.1074
 1137POSM   PO413335  10.418  34.247  10.157 -0.2187  0.1129 -0.1722
 1137POSM   AM113336  10.362  34.159  10.463  0.1624 -0.4776 -0.0639
 1137POSM   AM213337  10.153  34.021  10.616 -0.0165  0.0552  0.3029
 1137POSM   T1A13338  10.358  34.198  10.959 -0.2492 -0.0913 -0.1542
 1137POSM   C2A13339  10.289  33.935  11.263 -0.0867 -0.3128 -0.3506
 1137POSM   C3A13340  10.628  33.761  11.568  0.0404 -0.0434  0.1165
 1137POSM   C1B13341  10.226  33.758  10.781  0.1099 -0.0500  0.2495
 1137POSM   D2B13342  10.478  33.529  11.112  0.0222 -0.1966  0.0054
 1137POSM   C3B13343  10.372  33.129  11.284  0.2539 -0.1275  0.0820
 1137POSM   C4B13344  10.031  32.951  11.515  0.0356 -0.3710 -0.1004
 1138DOPE   NH313345   6.939  25.785   9.418 -0.0831  0.3080 -0.0773
 1138DOPE   PO413346   6.970  25.761   9.741 -0.1361 -0.1141 -0.2779
 1138DOPE   GL113347   7.021  25.908  10.124  0.3609 -0.5504  0.1071
 1138DOPE   GL213348   7.124  26.233   9.971 -0.2619  0.0563  0.2958
 1138DOPE   C1A13349   7.296  26.108  10.499 -0.1348  0.0439  0.0208
 1138DOPE   D2A13350   7.289  26.373  10.860  0.1972  0.1817  0.1333
 1138DOPE   C3A13351   7.300  26.264  11.264 -0.0206  0.1725 -0.1792
 1138DOPE   C4A13352   7.138  26.592  11.540 -0.1414 -0.0834  0.0974
 1138DOPE   C1B13353   7.358  26.566  10.233 -0.1142 -0.1196  0.3385
 1138DOPE   D2B13354   7.669  26.723  10.480  0.2293 -0.1381  0.0367
 1138DOPE   C3B13355   7.816  27.212  10.503 -0.0094  0.0732 -0.0452
 1138DOPE   C4B13356   7.870  27.434  10.903  0.0147 -0.3760  0.1361
 1139DOPC   NC313357   8.987  29.426   9.164  0.1750  0.0044  0.4253
 1139DOPC   PO413358   8.755  29.123   9.052  0.2698 -0.0227  0.0162
 1139DOPC   GL113359   9.092  29.009   9.333 -0.2606  0.2999  0.1358
 1139DOPC   GL213360   9.410  29.036   9.310  0.1605 -0.0842 -0.1877
 1139DOPC   C1A13361   9.217  29.238   9.730 -0.2146  0.1173 -0.1787
 1139DOPC   D2A13362   9.210  29.518  10.105  0.1806 -0.1122  0.1908
 1139DOPC   C3A13363   8.991  29.870  10.295  0.2391  0.1008 -0.0483
 1139DOPC   C4A13364   8.657  30.033  10.579 -0.2374  0.1244  0.0772
 1139DOPC   C1B13365   9.708  29.168   9.645 -0.0767  0.2127 -0.6400
 1139DOPC   D2B13366  10.055  29.157   9.953  0.1677  0.0808 -0.0242
 1139DOPC   C3B13367  10.028  29.192  10.422  0.1291  0.0636 -0.2504
 1139DOPC   C4B13368  10.235  29.409  10.759  0.0009 -0.3646 -0.0114
 1140DOPS   CNO13369   0.656  26.526   9.294  0.0933  0.2224 -0.2841
 1140DOPS   PO413370   0.845  26.774   9.514  0.0625 -0.0128  0.1317
 1140DOPS   GL113371   0.684  26.491   9.853  0.1263  0.0538 -0.5043
 1140DOPS   GL213372   0.890  26.511  10.070 -0.3915  0.0181 -0.3666
 1140DOPS   C1A13373   0.425  26.401  10.228  0.2213 -0.2371 -0.0670
 1140DOPS   D2A13374   0.303  26.626  10.573  0.1172 -0.0187  0.0774
 1140DOPS   C3A13375   0.465  26.468  10.946 -0.0413  0.1970 -0.1332
 1140DOPS   C4A13376   0.836  26.490  11.169  0.1250 -0.0882  0.1839
 1140DOPS   C1B13377   0.511  26.847  10.050  0.0142 -0.0308  0.2217
 1140DOPS   D2B13378   0.276  27.105  10.368 -0.2964 -0.1936 -0.0095
 1140DOPS   C3B13379   0.256  27.071  10.893  0.0331  0.2867  0.1424
 1140DOPS   C4B13380   0.533  26.907  11.205 -0.0577  0.0940 -0.2575
 1141DOPE   NH313381   3.076  30.931   9.666  0.0345 -0.0265 -0.1361
 1141DOPE   PO413382   3.390  30.920   9.622 -0.2883  0.1350  0.2168
 1141DOPE   GL113383   3.441  30.756  10.015  0.3873  0.0873 -0.0218
 1141DOPE   GL213384   3.240  30.527   9.987 -0.0420 -0.2124 -0.0171
 1141DOPE   C1A13385   3.225  30.734  10.416  0.1928 -0.0497 -0.3149
 1141DOPE   D2A13386   3.178  30.556  10.792  0.2579  0.1725  0.0893
 1141DOPE   C3A13387   3.345  30.724  11.207  0.1644  0.0018 -0.1242
 1141DOPE   C4A13388   3.531  31.021  11.435 -0.1563 -0.0494  0.0182
 1141DOPE   C1B13389   2.910  30.419  10.328 -0.3581  0.0378  0.2528
 1141DOPE   D2B13390   2.799  30.262  10.717  0.0518 -0.0833  0.2915
 1141DOPE   C3B13391   2.796  30.508  11.093  0.1547 -0.0004 -0.0789
 1141DOPE   C4B13392   2.628  30.888  11.315 -0.3104 -0.1163 -0.0818
 1142DOPE   NH313393   3.658  28.032   9.708  0.2252 -0.2430  0.1014
 1142DOPE   PO413394   3.758  28.305   9.752  0.0552  0.0748 -0.0575
 1142DOPE   GL113395   3.589  28.390  10.089  0.2756 -0.1186  0.4103
 1142DOPE   GL213396   3.449  28.187  10.178 -0.2564  0.3922  0.2755
 1142DOPE   C1A13397   3.498  28.657  10.506  0.0583  0.1798  0.2822
 1142DOPE   D2A13398   3.743  28.927  10.720  0.0550 -0.2232  0.1832
 1142DOPE   C3A13399   4.069  28.789  11.090  0.1145  0.2846 -0.4012
 1142DOPE   C4A13400   4.252  28.867  11.489 -0.1297 -0.0516  0.2069
 1142DOPE   C1B13401   3.554  28.143  10.603  0.0428 -0.0910  0.0548
 1142DOPE   D2B13402   3.587  28.460  10.944  0.0538 -0.0870 -0.0432
 1142DOPE   C3B13403   3.780  28.443  11.434  0.0767 -0.0140 -0.1469
 1142DOPE   C4B13404   3.743  28.499  11.911 -0.1170  0.2820 -0.2118
 1143DOPS   CNO13405  11.200  32.939   9.905 -0.0588 -0.0364  0.1019
 1143DOPS   PO413406  11.190  32.757  10.244  0.0830  0.0180 -0.0648
 1143DOPS   GL113407  11.062  32.758  10.611  0.0350 -0.0347  0.1924
 1143DOPS   GL213408  11.233  32.997  10.692 -0.0514 -0.2326  0.0886
 1143DOPS   C1A13409  10.890  32.435  10.918  0.0730 -0.2086  0.0958
 1143DOPS   D2A13410  11.149  32.258  11.264  0.1821  0.1804 -0.0273
 1143DOPS   C3A13411  11.403  32.649  11.259 -0.0604  0.1460 -0.0363
 1143DOPS   C4A13412  11.379  33.074  11.239  0.3169 -0.2888  0.1940
 1143DOPS   C1B13413  11.559  32.710  10.816  0.1132 -0.0958 -0.1040
 1143DOPS   D2B13414  11.627  32.281  11.029  0.3306 -0.0208 -0.0067
 1143DOPS   C3B13415  11.796  32.334  11.428 -0.0403 -0.0919 -0.2731
 1143DOPS   C4B13416  12.229  32.476  11.528 -0.1318 -0.2514 -0.0262
 1144DOPE   NH313417   9.557  23.418   9.599  0.0950  0.0346 -0.2039
 1144DOPE   PO413418   9.372  23.663   9.548 -0.0884 -0.1666  0.1098
 1144DOPE   GL113419   9.553  23.761   9.983  0.4784  0.1028  0.0577
 1144DOPE   GL213420   9.324  23.639  10.152 -0.2095 -0.0138  0.0533
 1144DOPE   C1A13421   9.823  23.686  10.348 -0.3042 -0.0686  0.0274
 1144DOPE   D2A13422   9.836  23.746  10.860 -0.2799  0.0590 -0.2384
 1144DOPE   C3A13423   9.943  24.075  11.234  0.0971  0.0422 -0.0950
 1144DOPE   C4A13424   9.936  24.203  11.682  0.0642  0.2270 -0.0193
 1144DOPE   C1B13425   9.184  23.738  10.606 -0.2430 -0.0492 -0.2107
 1144DOPE   D2B13426   9.382  23.938  11.038 -0.0140 -0.0498  0.1400
 1144DOPE   C3B13427   9.522  24.003  11.513  0.1107  0.0080  0.1581
 1144DOPE   C4B13428   9.667  23.678  11.844  0.1618 -0.0857  0.0139
 1145DOPS   CNO13429   4.546  21.539   9.547  0.3576  0.0166 -0.0792
 1145DOPS   PO413430   4.212  21.541   9.736 -0.0939  0.0807 -0.0964
 1145DOPS   GL113431   4.253  21.336  10.014  0.1009  0.0594 -0.1498
 1145DOPS   GL213432   4.417  21.080   9.958  0.0753 -0.0841 -0.1473
 1145DOPS   C1A13433   4.452  21.404  10.442  0.0217  0.3119  0.1165
 1145DOPS   D2A13434   4.496  21.570  10.872  0.1501  0.1536 -0.1186
 1145DOPS   C3A13435   4.848  21.845  10.887 -0.1075 -0.0665 -0.0122
 1145DOPS   C4A13436   5.033  22.126  11.246 -0.0953 -0.0993  0.1202
 1145DOPS   C1B13437   4.850  21.292  10.065  0.1244 -0.0943  0.0661
 1145DOPS   D2B13438   5.219  21.170  10.353 -0.4773 -0.0718 -0.0911
 1145DOPS   C3B13439   5.040  20.787  10.580  0.0116 -0.1908 -0.1287
 1145DOPS   C4B13440   4.711  20.578  10.777 -0.4484  0.1464  0.3279
 1146DOPS   CNO13441   8.672  27.445   8.946 -0.2864  0.0763 -0.4087
 1146DOPS   PO413442   8.396  27.351   9.155 -0.0322 -0.1078 -0.2391
 1146DOPS   GL113443   8.565  27.612   9.459 -0.5028  0.1486  0.0200
 1146DOPS   GL213444   8.461  27.410   9.654  0.1021 -0.2317  0.3032
 1146DOPS   C1A13445   8.957  27.780   9.658 -0.2564  0.1073  0.1810
 1146DOPS   D2A13446   9.150  27.928  10.058 -0.0211 -0.1243  0.0445
 1146DOPS   C3A13447   9.056  28.178  10.401 -0.1755  0.1711  0.0095
 1146DOPS   C4A13448   8.942  28.464  10.749  0.3629  0.2006  0.0590
 1146DOPS   C1B13449   8.213  27.543  10.017 -0.4330  0.0424  0.2380
 1146DOPS   D2B13450   8.218  27.600  10.485 -0.1224 -0.0719 -0.2203
 1146DOPS   C3B13451   8.271  27.248  10.754  0.1809 -0.0743 -0.1876
 1146DOPS   C4B13452   8.103  26.815  10.725 -0.4468 -0.1267 -0.1196
 1147DOPC   NC313453   4.520  23.856  10.203 -0.4359  0.0896  0.1516
 1147DOPC   PO413454   4.232  23.754   9.978 -0.0319  0.1388  0.0600
 1147DOPC   GL113455   4.032  23.870  10.282 -0.0099 -0.3392  0.1706
 1147DOPC   GL213456   3.915  23.685  10.453  0.1376 -0.0109  0.0584
 1147DOPC   C1A13457   4.296  24.031  10.595  0.1079  0.3095 -0.1212
 1147DOPC   D2A13458   4.290  24.278  11.008  0.2781  0.1902 -0.1348
 1147DOPC   C3A13459   4.632  24.277  11.232 -0.2217 -0.2966 -0.1599
 1147DOPC   C4A13460   4.963  24.456  11.457  0.1437 -0.2998 -0.0641
 1147DOPC   C1B13461   4.008  23.699  10.935 -0.1227  0.1773 -0.2942
 1147DOPC   D2B13462   4.004  23.643  11.420  0.0381 -0.0461 -0.0511
 1147DOPC   C3B13463   4.371  23.471  11.611  0.0026 -0.0017 -0.0587
 1147DOPC   C4B13464   4.571  23.344  12.013 -0.1771  0.2233  0.1212
 1148DOPC   NC313465  10.063  26.538   9.273  0.2310 -0.0026  0.0329
 1148DOPC   PO413466   9.817  26.264   9.244  0.0197  0.1298 -0.0958
 1148DOPC   GL113467  10.009  26.193   9.638  0.0383 -0.0629 -0.0532
 1148DOPC   GL213468   9.703  26.253   9.692  0.2370  0.4687 -0.3795
 1148DOPC   C1A13469  10.081  26.379  10.029  0.0850 -0.1174 -0.1868
 1148DOPC   D2A13470  10.269  26.237  10.438 -0.1121  0.0961  0.0486
 1148DOPC   C3A13471  10.116  25.996  10.813  0.0873  0.0547 -0.0558
 1148DOPC   C4A13472   9.918  26.211  11.205 -0.0709  0.1530 -0.1191
 1148DOPC   C1B13473   9.619  26.407  10.137  0.3443  0.0218  0.0309
 1148DOPC   D2B13474   9.475  26.683  10.446  0.1484  0.1191 -0.0160
 1148DOPC   C3B13475   9.650  27.109  10.499  0.0442 -0.0745  0.0807
 1148DOPC   C4B13476   9.580  27.506  10.778 -0.1171 -0.3442 -0.1386
 1149DOPE   NH313477   9.027  22.626   9.873 -0.0685 -0.0722  0.0181
 1149DOPE   PO413478   8.767  22.418   9.878  0.0842  0.1673  0.0267
 1149DOPE   GL113479   8.664  22.517  10.232  0.0961 -0.4378  0.3143
 1149DOPE   GL213480   8.629  22.767  10.285 -0.3775 -0.0402  0.1559
 1149DOPE   C1A13481   8.563  22.343  10.644  0.1310 -0.3172  0.3228
 1149DOPE   D2A13482   8.659  22.307  11.073  0.1107 -0.1608 -0.0792
 1149DOPE   C3A13483   8.538  21.946  11.399  0.3275  0.0930 -0.3281
 1149DOPE   C4A13484   8.727  21.545  11.450 -0.1105 -0.0528  0.0385
 1149DOPE   C1B13485   8.440  22.840  10.735  0.0081  0.2766 -0.0936
 1149DOPE   D2B13486   8.236  22.598  11.100 -0.1323 -0.1329  0.0089
 1149DOPE   C3B13487   8.245  22.102  11.023 -0.4591 -0.0389  0.0657
 1149DOPE   C4B13488   8.473  21.832  10.723  0.2923 -0.0285 -0.0948
 1150DOPC   NC313489   8.592  34.679  10.729  0.2919  0.1775  0.0939
 1150DOPC   PO413490   8.351  34.444  10.543  0.0090 -0.0178 -0.1573
 1150DOPC   GL113491   8.345  34.136  10.823 -0.0672 -0.2893  0.1169
 1150DOPC   GL213492   8.236  34.288  10.988  0.1633 -0.3483 -0.1680
 1150DOPC   C1A13493   8.153  33.739  10.917 -0.4038  0.0186  0.1365
 1150DOPC   D2A13494   7.974  33.417  11.223 -0.0187  0.0005  0.1872
 1150DOPC   C3A13495   7.985  33.559  11.658 -0.2340  0.1769  0.1793
 1150DOPC   C4A13496   7.801  33.896  11.871 -0.1441 -0.0210  0.0680
 1150DOPC   C1B13497   8.351  34.667  11.166  0.1320  0.0136 -0.1322
 1150DOPC   D2B13498   8.668  34.880  11.400  0.2473 -0.0477 -0.0804
 1150DOPC   C3B13499   8.591  34.738  11.870  0.1391  0.1664  0.3225
 1150DOPC   C4B13500   8.879  34.709  12.196 -0.5554  0.0535  0.1029
 1151POSM   NC313501   2.991  22.975  10.155  0.1729 -0.0034 -0.2257
 1151POSM   PO413502   3.373  23.149  10.083  0.1311  0.0260 -0.3152
 1151POSM   AM113503   3.600  23.155  10.315 -0.3630 -0.1814  0.0361
 1151POSM   AM213504   3.864  23.143  10.449  0.0511  0.1437 -0.0602
 1151POSM   T1A13505   3.567  23.284  10.763 -0.0506 -0.4620  0.0475
 1151POSM   C2A13506   3.637  23.154  11.179 -0.1565 -0.0949  0.0789
 1151POSM   C3A13507   3.696  23.259  11.598  0.2148  0.2219  0.1705
 1151POSM   C1B13508   4.068  23.101  10.699 -0.3878  0.1393 -0.0465
 1151POSM   D2B13509   4.257  23.296  11.097 -0.2129  0.0544 -0.4069
 1151POSM   C3B13510   4.699  23.315  11.263  0.3061 -0.3009 -0.3073
 1151POSM   C4B13511   4.959  23.317  11.684  0.0733 -0.0834 -0.1054
 1152DOPC   NC313512   1.943  30.269   9.894 -0.2273  0.1104 -0.1513
 1152DOPC   PO413513   2.173  30.501   9.633  0.3489  0.4217  0.0748
 1152DOPC   GL113514   2.341  30.505  10.028 -0.0705  0.0820 -0.2247
 1152DOPC   GL213515   2.311  30.701  10.154 -0.0426  0.0684 -0.0092
 1152DOPC   C1A13516   2.438  30.103  10.262  0.3051 -0.1473  0.1974
 1152DOPC   D2A13517   2.376  29.730  10.570 -0.1926 -0.0881  0.0849
 1152DOPC   C3A13518   2.274  30.038  10.920 -0.0148 -0.1335  0.1482
 1152DOPC   C4A13519   2.115  29.842  11.330 -0.1236 -0.1244 -0.1407
 1152DOPC   C1B13520   2.174  30.873  10.551  0.1012  0.0689 -0.1489
 1152DOPC   D2B13521   1.872  30.632  10.720 -0.1180  0.0291 -0.1424
 1152DOPC   C3B13522   1.795  30.297  10.982  0.0386  0.0728 -0.1004
 1152DOPC   C4B13523   1.617  30.055  11.322  0.3225  0.1156  0.0407
 1153DOPC   NC313524   7.399  32.778   9.798  0.3660 -0.0106  0.1484
 1153DOPC   PO413525   7.617  33.086   9.941 -0.0384 -0.0314 -0.4502
 1153DOPC   GL113526   7.527  32.869  10.351  0.1182 -0.0264 -0.0103
 1153DOPC   GL213527   7.231  32.832  10.286 -0.3097  0.0022 -0.1259
 1153DOPC   C1A13528   7.786  32.562  10.599  0.1106  0.0808 -0.0944
 1153DOPC   D2A13529   7.759  32.239  10.900  0.1874 -0.1591 -0.0617
 1153DOPC   C3A13530   7.527  32.457  11.244  0.0702  0.1279 -0.0745
 1153DOPC   C4A13531   7.166  32.718  11.303  0.0569 -0.1381 -0.1768
 1153DOPC   C1B13532   7.289  32.837  10.769 -0.0518 -0.4873  0.1764
 1153DOPC   D2B13533   7.425  33.132  11.116  0.2053 -0.2858  0.1373
 1153DOPC   C3B13534   7.657  33.009  11.422  0.0680  0.0879  0.2321
 1153DOPC   C4B13535   8.104  32.919  11.541  0.0897  0.1364  0.0892
 1154DOPE   NH313536   2.871  31.497   9.273  0.2211 -0.0435  0.1654
 1154DOPE   PO413537   2.750  31.342   9.508 -0.1169  0.2963  0.0910
 1154DOPE   GL113538   2.765  31.256   9.848 -0.1213 -0.1858  0.0141
 1154DOPE   GL213539   2.753  31.484  10.068  0.0094  0.0744 -0.0009
 1154DOPE   C1A13540   2.715  30.890  10.034  0.1141 -0.0315 -0.2078
 1154DOPE   D2A13541   2.658  30.800  10.527  0.0181  0.0910 -0.1081
 1154DOPE   C3A13542   2.341  30.404  10.630  0.1618  0.2719 -0.0932
 1154DOPE   C4A13543   1.993  30.141  10.499 -0.0655  0.0256  0.1368
 1154DOPE   C1B13544   2.504  31.291  10.392 -0.2834  0.1684 -0.1492
 1154DOPE   D2B13545   2.499  31.130  10.887 -0.1056 -0.2251  0.1306
 1154DOPE   C3B13546   2.624  31.409  11.207 -0.2904 -0.0622 -0.0176
 1154DOPE   C4B13547   2.557  31.696  11.543 -0.0607 -0.2135 -0.3168
 1155DOPE   NH313548   1.633  30.771   9.729  0.1812 -0.1480 -0.0671
 1155DOPE   PO413549   1.859  30.893   9.912 -0.1654 -0.1026 -0.0361
 1155DOPE   GL113550   1.850  31.126  10.228  0.5419  0.1868  0.3070
 1155DOPE   GL213551   1.681  30.995  10.440  0.1403 -0.4942  0.0816
 1155DOPE   C1A13552   2.020  31.373  10.580  0.0238  0.2120 -0.0815
 1155DOPE   D2A13553   2.274  31.602  10.901 -0.0988  0.2382 -0.0609
 1155DOPE   C3A13554   2.022  31.732  11.236  0.2570  0.0342  0.0506
 1155DOPE   C4A13555   2.128  32.001  11.617 -0.0534  0.1690 -0.1964
 1155DOPE   C1B13556   1.399  31.297  10.607 -0.0019  0.1304 -0.1773
 1155DOPE   D2B13557   1.582  31.534  10.954  0.1246  0.0175  0.1512
 1155DOPE   C3B13558   1.607  31.347  11.371 -0.0720  0.0631  0.1421
 1155DOPE   C4B13559   1.318  31.285  11.810 -0.1730  0.3834  0.0450
 1156DOPC   NC313560   0.223  29.997   9.842 -0.0492 -0.2104  0.0424
 1156DOPC   PO413561   0.355  30.194   9.579 -0.0356  0.0830 -0.0624
 1156DOPC   GL113562   0.550  30.307   9.953  0.0911 -0.2116  0.1804
 1156DOPC   GL213563   0.342  30.470  10.057  0.0868 -0.4690  0.3014
 1156DOPC   C1A13564   0.534  29.966  10.272 -0.3381  0.0071  0.1066
 1156DOPC   D2A13565   0.580  29.937  10.739 -0.2226 -0.3146  0.1190
 1156DOPC   C3A13566   1.008  30.145  10.805 -0.1103 -0.0234 -0.0595
 1156DOPC   C4A13567   1.219  30.391  11.131 -0.5010  0.0354  0.0880
 1156DOPC   C1B13568   0.302  30.333  10.523 -0.1083 -0.1361 -0.0486
 1156DOPC   D2B13569   0.372  30.406  10.971  0.0437 -0.1031  0.0022
 1156DOPC   C3B13570   0.742  30.208  11.206  0.4310 -0.0618 -0.1841
 1156DOPC   C4B13571   1.119  30.039  11.525 -0.0289  0.3143  0.2284
 1157DOPE   NH313572   6.581  25.443   9.659  0.0296 -0.1248 -0.1820
 1157DOPE   PO413573   6.477  25.170   9.759  0.4244  0.0973 -0.1606
 1157DOPE   GL113574   6.542  25.220  10.093  0.1244  0.0279 -0.1419
 1157DOPE   GL213575   6.743  25.506  10.170 -0.0558  0.0924  0.0062
 1157DOPE   C1A13576   6.518  25.268  10.536  0.2095  0.1337  0.0560
 1157DOPE   D2A13577   6.327  25.106  10.883 -0.2243  0.0267 -0.1668
 1157DOPE   C3A13578   6.065  25.297  11.185 -0.1414  0.0045 -0.2321
 1157DOPE   C4A13579   5.946  25.370  11.638  0.2326 -0.3534  0.0124
 1157DOPE   C1B13580   6.936  25.617  10.549 -0.2989 -0.2465 -0.2174
 1157DOPE   D2B13581   6.655  25.588  10.936 -0.0960  0.1606  0.0214
 1157DOPE   C3B13582   6.352  25.755  11.185 -0.1469 -0.2334 -0.1843
 1157DOPE   C4B13583   6.239  25.813  11.663  0.1840 -0.0048  0.1583
 1158DOPS   CNO13584   7.531  31.424   9.446 -0.0397 -0.0860  0.1304
 1158DOPS   PO413585   7.762  31.236   9.639 -0.0540  0.1040  0.0235
 1158DOPS   GL113586   7.659  31.307   9.990 -0.0151 -0.1175  0.0980
 1158DOPS   GL213587   7.843  31.113  10.139 -0.0484  0.2219  0.1153
 1158DOPS   C1A13588   7.352  31.335  10.323  0.2282  0.3125 -0.2565
 1158DOPS   D2A13589   6.944  31.166  10.440 -0.1004 -0.1238 -0.0646
 1158DOPS   C3A13590   6.630  31.427  10.831 -0.1097 -0.0605 -0.0971
 1158DOPS   C4A13591   6.797  31.350  11.327  0.0760  0.0223  0.0786
 1158DOPS   C1B13592   7.602  30.960  10.501  0.1632 -0.2448 -0.1837
 1158DOPS   D2B13593   7.204  30.732  10.662  0.2683 -0.1499  0.0277
 1158DOPS   C3B13594   7.247  30.439  11.020  0.1620 -0.0753  0.1314
 1158DOPS   C4B13595   7.466  30.361  11.384 -0.0872  0.0779  0.1167
 1159DOPC   NC313596   4.918  33.807  10.228  0.2037  0.1814  0.0569
 1159DOPC   PO413597   5.082  33.549   9.954 -0.0820 -0.1653 -0.0900
 1159DOPC   GL113598   5.109  33.238  10.216  0.2815  0.1376 -0.0280
 1159DOPC   GL213599   5.436  33.253  10.377  0.1381 -0.1210  0.1134
 1159DOPC   C1A13600   4.705  32.944  10.306 -0.1932 -0.1249 -0.4159
 1159DOPC   D2A13601   4.338  33.025  10.460 -0.1390 -0.0575 -0.0865
 1159DOPC   C3A13602   4.059  32.753  10.689 -0.1876  0.0572 -0.2461
 1159DOPC   C4A13603   3.654  32.610  10.595 -0.2670  0.1512  0.0458
 1159DOPC   C1B13604   5.065  33.104  10.636  0.0638 -0.2466  0.1179
 1159DOPC   D2B13605   4.656  32.896  10.829 -0.2741 -0.1300  0.3632
 1159DOPC   C3B13606   4.327  33.107  10.957  0.0135  0.0448 -0.0181
 1159DOPC   C4B13607   4.076  33.426  11.148  0.0138  0.2870 -0.1248
 1160POSM   NC313608   9.739  29.926   8.709 -0.0859 -0.1558  0.1703
 1160POSM   PO413609   9.449  29.909   9.017 -0.0283 -0.0891  0.0160
 1160POSM   AM113610   9.560  29.942   9.335 -0.0262 -0.1676 -0.0637
 1160POSM   AM213611   9.789  30.011   9.474 -0.0721 -0.1951  0.0625
 1160POSM   T1A13612   9.429  29.874   9.813 -0.0159  0.0491 -0.1579
 1160POSM   C2A13613   9.491  30.011  10.279 -0.0293 -0.1855  0.4513
 1160POSM   C3A13614   9.756  30.009  10.693 -0.1355 -0.1683  0.1857
 1160POSM   C1B13615   9.946  30.203   9.703 -0.1907  0.0695  0.0457
 1160POSM   D2B13616  10.272  30.339   9.996 -0.0499  0.0668  0.0227
 1160POSM   C3B13617  10.451  30.012  10.271 -0.0400 -0.0707 -0.0309
 1160POSM   C4B13618  10.266  29.628  10.330 -0.2475 -0.0344  0.1132
 1161DOPC   NC313619  33.479  29.190   9.772 -0.0473  0.1127 -0.3394
 1161DOPC   PO413620  33.569  28.840   9.576  0.3521  0.4701 -0.1381
 1161DOPC   GL113621  33.457  28.733   9.987 -0.1995 -0.1321 -0.1403
 1161DOPC   GL213622  33.721  28.564  10.037  0.0313 -0.2411 -0.0479
 1161DOPC   C1A13623  33.608  28.860  10.430  0.0653  0.1956  0.2675
 1161DOPC   D2A13624  33.503  28.760  10.825 -0.0619  0.1858 -0.0824
 1161DOPC   C3A13625  33.182  28.842  11.114 -0.3428 -0.2212 -0.0850
 1161DOPC   C4A13626  32.798  28.801  11.425  0.3341 -0.0655 -0.1004
 1161DOPC   C1B13627  33.725  28.371  10.506  0.1618  0.2599 -0.1594
 1161DOPC   D2B13628  33.824  27.918  10.630  0.0960 -0.2574 -0.0795
 1161DOPC   C3B13629  33.816  27.459  10.523  0.3674 -0.0135  0.1273
 1161DOPC   C4B13630  33.876  27.024  10.649  0.0199  0.0650 -0.0350
 1162POSM   NC313631   7.790  29.945   9.125 -0.1093  0.0107  0.1892
 1162POSM   PO413632   7.872  30.302   9.332  0.0069 -0.0852 -0.1280
 1162POSM   AM113633   7.649  30.237   9.590 -0.2826  0.2386 -0.0503
 1162POSM   AM213634   7.713  30.243   9.874 -0.1533 -0.2213 -0.3525
 1162POSM   T1A13635   7.344  29.924   9.816 -0.3282  0.0541 -0.0006
 1162POSM   C2A13636   7.228  29.832  10.279 -0.3244  0.0291  0.1209
 1162POSM   C3A13637   7.207  29.870  10.710 -0.1127 -0.1858 -0.4449
 1162POSM   C1B13638   7.657  30.156  10.193 -0.1833  0.0046  0.1137
 1162POSM   D2B13639   7.434  30.309  10.592  0.0429 -0.1260 -0.0510
 1162POSM   C3B13640   7.609  30.041  10.928 -0.0944 -0.0061  0.0978
 1162POSM   C4B13641   7.790  29.776  11.278  0.2906  0.0097  0.0945
 1163DOPE   NH313642   2.034  28.785   9.586  0.2156  0.0907  0.2709
 1163DOPE   PO413643   1.816  29.012   9.683 -0.0437  0.0029 -0.2475
 1163DOPE   GL113644   1.595  29.057   9.907  0.2606 -0.2100 -0.0705
 1163DOPE   GL213645   1.309  29.155   9.848 -0.3061 -0.1907 -0.2140
 1163DOPE   C1A13646   1.658  29.074  10.394 -0.1363  0.0878  0.1794
 1163DOPE   D2A13647   1.543  29.091  10.830  0.1116  0.1280 -0.1179
 1163DOPE   C3A13648   1.680  28.774  11.146 -0.2281  0.5130 -0.0000
 1163DOPE   C4A13649   1.990  28.508  11.378 -0.0957 -0.0319 -0.3393
 1163DOPE   C1B13650   1.156  29.138  10.366  0.0503  0.2043 -0.1635
 1163DOPE   D2B13651   0.786  29.075  10.680  0.1724  0.5351  0.0085
 1163DOPE   C3B13652   0.626  28.803  11.046 -0.2957 -0.0497 -0.0382
 1163DOPE   C4B13653   0.702  28.559  11.413  0.0398 -0.0245 -0.1342
 1164DOPE   NH313654  11.247  29.265   9.018  0.0769 -0.0293  0.4784
 1164DOPE   PO413655  11.015  29.035   9.078 -0.1192 -0.0906 -0.1037
 1164DOPE   GL113656  10.985  29.134   9.429 -0.1211  0.1195 -0.2170
 1164DOPE   GL213657  11.132  29.310   9.585  0.0599 -0.2675 -0.2550
 1164DOPE   C1A13658  10.757  29.038   9.814  0.1344 -0.3084 -0.0414
 1164DOPE   D2A13659  10.542  29.202  10.222  0.3691 -0.4694  0.1715
 1164DOPE   C3A13660  10.577  29.032  10.629 -0.2332 -0.0808 -0.0313
 1164DOPE   C4A13661  10.568  29.070  11.070  0.0404  0.0908 -0.1783
 1164DOPE   C1B13662  11.172  29.298  10.044  0.2027 -0.1476  0.0009
 1164DOPE   D2B13663  11.075  29.229  10.463  0.4740 -0.2173  0.3577
 1164DOPE   C3B13664  11.298  29.087  10.842  0.1547  0.0807  0.0312
 1164DOPE   C4B13665  11.414  28.794  11.148  0.1898  0.1160  0.1456
 1165DOPS   CNO13666   4.927  22.563   9.886 -0.3697 -0.3530  0.1412
 1165DOPS   PO413667   5.167  22.312   9.952 -0.0738 -0.0018  0.1653
 1165DOPS   GL113668   5.048  22.286  10.317 -0.0019  0.3035 -0.2709
 1165DOPS   GL213669   4.998  22.008  10.404 -0.0030 -0.2850  0.1188
 1165DOPS   C1A13670   5.136  22.245  10.776  0.0641  0.2747  0.1933
 1165DOPS   D2A13671   5.329  21.899  10.934  0.1587 -0.1230 -0.3381
 1165DOPS   C3A13672   5.471  21.977  11.387 -0.3309 -0.1713 -0.0112
 1165DOPS   C4A13673   5.751  22.140  11.686  0.0551 -0.1472 -0.2126
 1165DOPS   C1B13674   4.904  21.562  10.463  0.1752  0.0961 -0.0637
 1165DOPS   D2B13675   5.028  21.278  10.850  0.1105 -0.2088  0.1265
 1165DOPS   C3B13676   5.111  21.532  11.225  0.0365  0.2220 -0.0954
 1165DOPS   C4B13677   5.040  21.778  11.600 -0.0054  0.0286 -0.2788
 1166DOPE   NH313678   2.973  23.695   9.978 -0.2181  0.0084 -0.2888
 1166DOPE   PO413679   2.851  23.416  10.031  0.3447 -0.0077  0.0837
 1166DOPE   GL113680   2.857  23.442  10.453 -0.0957 -0.0645  0.2459
 1166DOPE   GL213681   3.081  23.282  10.525  0.0037  0.0920 -0.1195
 1166DOPE   C1A13682   2.607  23.212  10.788  0.0400  0.2030 -0.1188
 1166DOPE   D2A13683   2.746  22.883  11.102 -0.1052 -0.1936  0.3994
 1166DOPE   C3A13684   2.677  23.201  11.452 -0.2382 -0.0185 -0.4502
 1166DOPE   C4A13685   2.872  23.502  11.694 -0.1387 -0.2627 -0.0614
 1166DOPE   C1B13686   3.099  23.658  10.799  0.2508 -0.1142  0.0286
 1166DOPE   D2B13687   3.073  23.952  11.179  0.0372 -0.0056  0.3049
 1166DOPE   C3B13688   2.767  24.027  11.485  0.4263 -0.1451  0.1149
 1166DOPE   C4B13689   2.573  23.988  11.871  0.2467 -0.1465  0.0722
 1167DOPE   NH313690   8.437  23.728   9.397 -0.0174 -0.1379 -0.2585
 1167DOPE   PO413691   8.309  23.576   9.652 -0.3421 -0.0793  0.0897
 1167DOPE   GL113692   8.547  23.506   9.934  0.0198 -0.0922  0.1995
 1167DOPE   GL213693   8.417  23.232  10.049  0.2581  0.1831  0.1213
 1167DOPE   C1A13694   8.847  23.310  10.291  0.2224  0.0791  0.0231
 1167DOPE   D2A13695   8.845  23.219  10.754 -0.2055 -0.0274 -0.1827
 1167DOPE   C3A13696   9.084  23.516  11.020 -0.2247  0.2308 -0.0301
 1167DOPE   C4A13697   9.150  23.659  11.462 -0.3980  0.0231 -0.4748
 1167DOPE   C1B13698   8.182  23.463  10.341  0.0719  0.1727 -0.0579
 1167DOPE   D2B13699   8.066  23.675  10.788 -0.3785 -0.0212 -0.0271
 1167DOPE   C3B13700   8.377  24.007  10.934 -0.0148  0.1102 -0.1419
 1167DOPE   C4B13701   8.340  24.262  11.269  0.1364 -0.1698  0.0456
 1168POSM   NC313702  12.651  32.178  10.258 -0.1728 -0.1259  0.0730
 1168POSM   PO413703  12.622  31.770  10.261  0.3404  0.4256  0.4244
 1168POSM   AM113704  12.450  31.798  10.512 -0.5299 -0.0292  0.1367
 1168POSM   AM213705  12.452  32.043  10.713 -0.4320  0.1617  0.2219
 1168POSM   T1A13706  12.169  31.527  10.779  0.0147 -0.1715  0.2180
 1168POSM   C2A13707  11.993  31.495  11.203 -0.1686 -0.1526  0.3589
 1168POSM   C3A13708  11.696  31.278  11.475  0.4660  0.1650  0.0287
 1168POSM   C1B13709  12.587  32.050  11.030  0.3537  0.1731 -0.1107
 1168POSM   D2B13710  12.607  32.012  11.483 -0.2826  0.0941  0.4164
 1168POSM   C3B13711  12.601  32.018  11.972 -0.0409 -0.1633 -0.1408
 1168POSM   C4B13712  12.251  32.031  12.274  0.0030 -0.1100  0.1569
 1169DOPC   NC313713  10.872  26.551   9.722  0.1471  0.2499 -0.4191
 1169DOPC   PO413714  10.780  26.778   9.400  0.1112  0.1529 -0.0463
 1169DOPC   GL113715  10.656  27.132   9.580  0.2842  0.2994  0.1794
 1169DOPC   GL213716  10.787  27.106   9.790 -0.4580 -0.0580  0.1691
 1169DOPC   C1A13717  10.338  27.158   9.941  0.3090  0.0265  0.2719
 1169DOPC   D2A13718  10.385  27.075  10.363  0.2803  0.1533 -0.0367
 1169DOPC   C3A13719  10.073  27.107  10.740 -0.0339 -0.1196  0.0199
 1169DOPC   C4A13720   9.707  26.978  10.981  0.0923 -0.2946  0.2771
 1169DOPC   C1B13721  10.873  27.095  10.275  0.0518  0.0979  0.0177
 1169DOPC   D2B13722  10.761  27.104  10.694  0.0814  0.3197 -0.1953
 1169DOPC   C3B13723  10.694  26.834  11.103  0.2343  0.1103  0.2298
 1169DOPC   C4B13724  10.843  26.478  11.294 -0.0005  0.1836 -0.0496
 1170DOPC   NC313725   2.087  22.620   9.987  0.1237 -0.2641 -0.1401
 1170DOPC   PO413726   2.208  22.996   9.961 -0.0749  0.4381  0.0246
 1170DOPC   GL113727   1.884  22.975  10.198  0.1554  0.0030  0.1570
 1170DOPC   GL213728   1.577  22.903  10.185 -0.0420  0.0208  0.0552
 1170DOPC   C1A13729   1.794  22.974  10.635  0.2839 -0.1063 -0.1161
 1170DOPC   D2A13730   1.667  23.128  10.992 -0.0468 -0.0627 -0.2014
 1170DOPC   C3A13731   1.401  23.369  11.263 -0.5345  0.1059  0.2274
 1170DOPC   C4A13732   1.324  23.369  11.680 -0.2894  0.0265  0.2193
 1170DOPC   C1B13733   1.180  22.951  10.312  0.3215 -0.0848 -0.0844
 1170DOPC   D2B13734   0.805  22.993  10.493 -0.0883 -0.0271 -0.4148
 1170DOPC   C3B13735   0.721  23.187  10.982  0.1394 -0.1428 -0.0092
 1170DOPC   C4B13736   0.509  23.288  11.425  0.0734 -0.0515 -0.2566
 1171DOPE   NH313737   6.080  24.796   9.910  0.0108  0.2480  0.0512
 1171DOPE   PO413738   6.365  24.656   9.849  0.2617  0.0022 -0.0592
 1171DOPE   GL113739   6.486  24.551  10.200 -0.1328 -0.2497 -0.0856
 1171DOPE   GL213740   6.482  24.805  10.350  0.2302 -0.2034 -0.1596
 1171DOPE   C1A13741   6.402  24.327  10.589  0.1847  0.1785 -0.2597
 1171DOPE   D2A13742   6.604  23.949  10.608  0.0502  0.0977 -0.0014
 1171DOPE   C3A13743   6.268  23.927  10.917  0.0369  0.1110  0.2062
 1171DOPE   C4A13744   6.177  23.726  11.314  0.0629 -0.2504  0.0944
 1171DOPE   C1B13745   6.651  24.726  10.757  0.1104 -0.0838 -0.0678
 1171DOPE   D2B13746   6.535  24.411  11.080  0.1368  0.2742  0.0312
 1171DOPE   C3B13747   6.529  24.165  11.456 -0.0899 -0.0297 -0.3723
 1171DOPE   C4B13748   6.821  24.071  11.800 -0.0122 -0.0512  0.2134
 1172DOPE   NH313749   8.762  28.600   8.941  0.4333 -0.1025  0.0514
 1172DOPE   PO413750   8.912  28.311   9.039  0.3120 -0.1426 -0.1694
 1172DOPE   GL113751   9.157  28.347   9.302  0.1287  0.2132  0.3303
 1172DOPE   GL213752   9.008  28.277   9.594  0.2202  0.1022 -0.3689
 1172DOPE   C1A13753   9.353  28.605   9.561 -0.1963  0.2710 -0.2221
 1172DOPE   D2A13754   9.233  28.711   9.873  0.1295 -0.2340 -0.0210
 1172DOPE   C3A13755   9.438  28.450  10.218  0.1616 -0.1982 -0.1712
 1172DOPE   C4A13756   9.760  28.709  10.483  0.1040 -0.3783  0.0590
 1172DOPE   C1B13757   8.873  28.454  10.029 -0.1377 -0.1311 -0.1133
 1172DOPE   D2B13758   9.066  28.737  10.348 -0.0368 -0.0457 -0.2511
 1172DOPE   C3B13759   9.319  28.818  10.759  0.2387  0.0682 -0.0260
 1172DOPE   C4B13760   9.658  28.560  10.974  0.2822  0.0243  0.0251
 1173POSM   NC313761   5.836  22.957   9.973  0.1394  0.2919  0.0324
 1173POSM   PO413762   5.512  22.945   9.721  0.3527  0.2469 -0.1792
 1173POSM   AM113763   5.387  22.830  10.027 -0.0400 -0.0624 -0.2680
 1173POSM   AM213764   5.316  22.653  10.282 -0.2139  0.3009  0.2753
 1173POSM   T1A13765   5.595  22.978  10.474  0.1217 -0.1229  0.1050
 1173POSM   C2A13766   5.438  23.109  10.881 -0.1604  0.1710 -0.2458
 1173POSM   C3A13767   5.406  23.074  11.316 -0.0069  0.2473 -0.2388
 1173POSM   C1B13768   5.192  22.719  10.578  0.2365 -0.0287  0.0925
 1173POSM   D2B13769   4.958  22.951  10.929 -0.0595 -0.0240 -0.1862
 1173POSM   C3B13770   4.511  22.878  11.010  0.1129  0.1983 -0.6889
 1173POSM   C4B13771   4.367  22.537  11.351  0.1448 -0.1010  0.1775
 1174POSM   NC313772  10.775  29.429   9.160  0.0868 -0.2929 -0.0787
 1174POSM   PO413773  10.485  29.618   8.994 -0.2216  0.1680 -0.2133
 1174POSM   AM113774  10.338  29.708   9.294 -0.2803 -0.1032  0.0121
 1174POSM   AM213775  10.427  29.862   9.503 -0.0601  0.1004 -0.1364
 1174POSM   T1A13776   9.975  29.560   9.591  0.4896  0.1149  0.0004
 1174POSM   C2A13777   9.728  29.552   9.989 -0.2170  0.2923  0.0655
 1174POSM   C3A13778   9.657  29.567  10.408 -0.4289 -0.0361 -0.0727
 1174POSM   C1B13779  10.303  29.888   9.833 -0.3192  0.0016 -0.0899
 1174POSM   D2B13780   9.980  29.977  10.131  0.0358  0.2105  0.0511
 1174POSM   C3B13781   9.899  30.365  10.368  0.0283 -0.0982 -0.0900
 1174POSM   C4B13782   9.598  30.736  10.358  0.0523 -0.1945 -0.3607
 1175POSM   NC313783   0.575  33.170   9.622 -0.1462 -0.2542  0.0946
 1175POSM   PO413784   0.883  32.998   9.582  0.0692  0.0397  0.0582
 1175POSM   AM113785   0.875  33.035   9.919 -0.0882  0.1489  0.1223
 1175POSM   AM213786   0.650  32.925  10.050 -0.0748  0.1348 -0.2790
 1175POSM   T1A13787   1.070  33.302  10.262  0.0781  0.3176 -0.2395
 1175POSM   C2A13788   1.178  33.322  10.697 -0.0641  0.1368  0.0309
 1175POSM   C3A13789   1.079  33.497  11.115  0.0390 -0.0359 -0.1657
 1175POSM   C1B13790   0.663  32.919  10.379 -0.0172  0.1059  0.3287
 1175POSM   D2B13791   0.538  32.652  10.741  0.1227  0.1209 -0.1822
 1175POSM   C3B13792   0.459  32.202  10.561  0.1010 -0.0562  0.4966
 1175POSM   C4B13793   0.627  31.830  10.384 -0.2802 -0.5229 -0.0199
 1176POSM   NC313794   8.692  25.531   9.323  0.0699 -0.1118 -0.4877
 1176POSM   PO413795   8.374  25.721   9.500 -0.1087  0.0248 -0.2814
 1176POSM   AM113796   8.448  25.868   9.791  0.0192  0.2285  0.3949
 1176POSM   AM213797   8.268  25.828  10.029 -0.0793  0.0213  0.1172
 1176POSM   T1A13798   8.675  26.087  10.172  0.1008 -0.2990  0.0339
 1176POSM   C2A13799   8.719  26.035  10.623  0.1658 -0.2294  0.1438
 1176POSM   C3A13800   8.695  26.222  11.054  0.0014  0.0402  0.0264
 1176POSM   C1B13801   8.223  25.898  10.364  0.0551  0.1529 -0.1930
 1176POSM   D2B13802   8.287  25.988  10.835  0.0074  0.1886 -0.1117
 1176POSM   C3B13803   8.123  25.800  11.241 -0.1725  0.3171 -0.1174
 1176POSM   C4B13804   7.805  25.516  11.471  0.3244  0.0563 -0.2540
 1177DOPC   NC313805   1.869  29.393   9.933  0.0578 -0.3219  0.0896
 1177DOPC   PO413806   1.962  29.703   9.743  0.0126 -0.1264  0.1646
 1177DOPC   GL113807   1.963  29.810  10.128 -0.0867  0.5077  0.0629
 1177DOPC   GL213808   1.694  29.871  10.209 -0.1188 -0.0259 -0.1988
 1177DOPC   C1A13809   1.976  29.475  10.445 -0.3419 -0.3813 -0.2650
 1177DOPC   D2A13810   2.144  29.281  10.829 -0.0257 -0.0177  0.1280
 1177DOPC   C3A13811   2.481  29.450  11.118  0.1025 -0.1995  0.0478
 1177DOPC   C4A13812   2.827  29.468  11.374 -0.0207 -0.0919  0.0618
 1177DOPC   C1B13813   1.503  29.986  10.589 -0.0739 -0.1815 -0.0310
 1177DOPC   D2B13814   1.329  29.801  11.002  0.0820 -0.0198  0.1630
 1177DOPC   C3B13815   1.523  29.528  11.279  0.1252 -0.0914  0.0357
 1177DOPC   C4B13816   1.775  29.635  11.631  0.0848  0.0516 -0.1685
 1178DOPC   NC313817   5.365  21.955   9.739  0.1415  0.1954 -0.4447
 1178DOPC   PO413818   5.639  21.693   9.799  0.2659 -0.0634  0.0374
 1178DOPC   GL113819   5.685  21.727  10.094  0.0969 -0.3252  0.2984
 1178DOPC   GL213820   5.560  22.018  10.231  0.1666 -0.2365 -0.0673
 1178DOPC   C1A13821   5.975  21.562  10.381 -0.2381  0.0072  0.0111
 1178DOPC   D2A13822   6.031  21.450  10.822 -0.0459 -0.0319 -0.0698
 1178DOPC   C3A13823   6.350  21.104  10.869 -0.1884  0.0095 -0.1613
 1178DOPC   C4A13824   6.708  21.000  11.101 -0.0842 -0.0456 -0.2852
 1178DOPC   C1B13825   5.688  22.345  10.502  0.1568  0.0909 -0.0673
 1178DOPC   D2B13826   5.636  22.593  10.934  0.0212 -0.0834  0.2844
 1178DOPC   C3B13827   5.330  22.539  11.248 -0.0648 -0.2295  0.1658
 1178DOPC   C4B13828   5.388  22.628  11.644  0.1649 -0.3359  0.1942
 1179DOPE   NH313829   9.260  31.825   9.693 -0.1527 -0.2458  0.1653
 1179DOPE   PO413830   9.040  31.612   9.661  0.0364  0.1047 -0.0366
 1179DOPE   GL113831   9.008  31.559  10.063  0.0196 -0.2776 -0.2617
 1179DOPE   GL213832   9.187  31.316  10.096 -0.0830  0.0094 -0.1950
 1179DOPE   C1A13833   9.195  31.689  10.455  0.1573 -0.0354  0.0447
 1179DOPE   D2A13834   9.476  31.722  10.760  0.2359 -0.0704 -0.0908
 1179DOPE   C3A13835   9.498  31.251  10.926 -0.0051  0.0728 -0.1165
 1179DOPE   C4A13836   9.586  31.111  11.346 -0.0097 -0.0774  0.0020
 1179DOPE   C1B13837   9.209  31.166  10.519  0.0998  0.0471 -0.0515
 1179DOPE   D2B13838   9.241  30.799  10.839 -0.0708  0.1916  0.0807
 1179DOPE   C3B13839   9.575  30.655  11.116  0.3597 -0.3040  0.0151
 1179DOPE   C4B13840   9.735  30.571  11.519  0.0923 -0.1305  0.1442
 1180DOPC   NC313841   8.322  30.042   9.155 -0.0276 -0.0497 -0.0226
 1180DOPC   PO413842   8.594  29.786   9.322  0.1351 -0.0226  0.0441
 1180DOPC   GL113843   8.589  29.518   9.591  0.4466 -0.1567 -0.2714
 1180DOPC   GL213844   8.751  29.260   9.539  0.2938 -0.0545  0.1985
 1180DOPC   C1A13845   8.670  29.608  10.023  0.0370  0.2940 -0.0163
 1180DOPC   D2A13846   8.801  29.372  10.437 -0.0097 -0.0549 -0.2461
 1180DOPC   C3A13847   8.825  29.065  10.743 -0.1706 -0.2653 -0.1217
 1180DOPC   C4A13848   8.936  28.821  11.119 -0.1316  0.1530 -0.5439
 1180DOPC   C1B13849   8.787  29.035   9.975 -0.1742  0.2430 -0.1284
 1180DOPC   D2B13850   8.557  28.839  10.320  0.2580 -0.3018  0.3181
 1180DOPC   C3B13851   8.608  28.367  10.449  0.2016 -0.2505  0.1251
 1180DOPC   C4B13852   8.625  28.049  10.722  0.2659  0.2475 -0.1158
 1181DOPC   NC313853   9.599  29.020   8.670 -0.2816 -0.2086  0.4736
 1181DOPC   PO413854   9.876  29.146   8.900  0.1139 -0.1661 -0.0877
 1181DOPC   GL113855  10.080  29.026   9.181  0.2004 -0.3244 -0.1716
 1181DOPC   GL213856  10.178  29.275   9.275 -0.5320  0.2309  0.1127
 1181DOPC   C1A13857   9.872  28.725   9.500  0.4210 -0.2534 -0.3122
 1181DOPC   D2A13858   9.789  28.779   9.928  0.1166  0.0764  0.0598
 1181DOPC   C3A13859   9.592  29.106  10.205 -0.0454 -0.0787  0.2942
 1181DOPC   C4A13860   9.283  29.247  10.531 -0.3030  0.1499 -0.2466
 1181DOPC   C1B13861  10.465  29.417   9.664 -0.2643  0.3274  0.3908
 1181DOPC   D2B13862  10.721  29.657  10.033  0.0404  0.2808  0.1731
 1181DOPC   C3B13863  11.135  29.841   9.858  0.2415 -0.0967 -0.4221
 1181DOPC   C4B13864  11.546  29.852   9.726  0.0978 -0.0275 -0.1719
 1182DOPS   CNO13865   8.397   0.578  10.267  0.0504  0.0795  0.2001
 1182DOPS   PO413866   8.697   0.434  10.418  0.1755 -0.0108 -0.0769
 1182DOPS   GL113867   8.983   0.283  10.711 -0.2248  0.1142 -0.3586
 1182DOPS   GL213868   8.855   0.359  10.982 -0.0313  0.1317  0.1959
 1182DOPS   C1A13869   9.010  -0.093  11.013  0.1364  0.1763  0.3276
 1182DOPS   D2A13870   9.082  -0.246  11.433 -0.1678 -0.2926  0.2025
 1182DOPS   C3A13871   8.880  -0.603  11.573  0.0521 -0.1574  0.1023
 1182DOPS   C4A13872   8.935  -1.083  11.539 -0.1757 -0.0448 -0.0845
 1182DOPS   C1B13873   9.187   0.301  11.279 -0.2913 -0.0176  0.2600
 1182DOPS   D2B13874   9.108   0.126  11.705 -0.1754 -0.1878  0.0656
 1182DOPS   C3B13875   9.255  -0.241  11.946  0.0566  0.7208 -0.0038
 1182DOPS   C4B13876   9.260  -0.386  12.430  0.1797  0.2106  0.0432
 1183POSM   NC313877   8.156  25.285   9.425  0.0312 -0.0143  0.0737
 1183POSM   PO413878   8.489  25.073   9.404 -0.1461  0.1735  0.0982
 1183POSM   AM113879   8.502  25.060   9.723  0.4441  0.0117  0.2747
 1183POSM   AM213880   8.325  25.081   9.942 -0.2283 -0.4090 -0.2346
 1183POSM   T1A13881   8.841  25.063  10.108 -0.0702  0.1025  0.1424
 1183POSM   C2A13882   9.198  24.863  10.326 -0.1545  0.3414 -0.1349
 1183POSM   C3A13883   9.496  25.013  10.664 -0.0626 -0.3490 -0.2667
 1183POSM   C1B13884   8.381  25.143  10.284 -0.0587 -0.1616  0.2266
 1183POSM   D2B13885   8.581  25.064  10.686  0.4710  0.4692 -0.0031
 1183POSM   C3B13886   8.674  25.209  11.126  0.0253 -0.1450  0.3762
 1183POSM   C4B13887   8.384  25.245  11.427  0.1012 -0.0963  0.1643
 1184DOPS   CNO13888   4.881  27.812   9.524  0.2178  0.1535 -0.1121
 1184DOPS   PO413889   5.196  28.077   9.614  0.0805 -0.1182  0.1779
 1184DOPS   GL113890   5.503  28.230   9.873 -0.3794  0.2914 -0.0323
 1184DOPS   GL213891   5.471  27.963  10.040 -0.0261  0.2067 -0.2629
 1184DOPS   C1A13892   5.534  28.575  10.172 -0.1322  0.2014 -0.0516
 1184DOPS   D2A13893   5.428  28.829  10.564 -0.1959  0.1741  0.0910
 1184DOPS   C3A13894   5.618  29.039  10.876  0.0292 -0.0447  0.0453
 1184DOPS   C4A13895   5.805  29.489  11.020  0.1571  0.0591  0.0718
 1184DOPS   C1B13896   5.599  27.531  10.182 -0.0183  0.1420 -0.1143
 1184DOPS   D2B13897   5.978  27.298  10.399 -0.1153 -0.2119  0.1503
 1184DOPS   C3B13898   6.151  27.318  10.757  0.1476 -0.2615  0.1727
 1184DOPS   C4B13899   6.409  27.073  11.035 -0.1859  0.2285 -0.2437
 1185POSM   NC313900   1.723  27.618   9.368 -0.1488 -0.1134 -0.0870
 1185POSM   PO413901   1.327  27.589   9.309 -0.0541 -0.3591 -0.0513
 1185POSM   AM113902   1.299  27.443   9.612 -0.2895  0.3211  0.2336
 1185POSM   AM213903   1.515  27.433   9.843 -0.0540  0.0620 -0.1509
 1185POSM   T1A13904   0.874  27.340   9.861 -0.0372  0.1156  0.1326
 1185POSM   C2A13905   0.596  27.418  10.183 -0.2503  0.0078  0.0546
 1185POSM   C3A13906   0.504  27.538  10.616  0.2884  0.1185  0.1880
 1185POSM   C1B13907   1.274  27.486  10.089 -0.0885  0.0402  0.0136
 1185POSM   D2B13908   1.023  27.828  10.314  0.1298  0.2795 -0.4542
 1185POSM   C3B13909   1.189  27.728  10.726  0.2634 -0.0993 -0.2047
 1185POSM   C4B13910   0.913  27.405  11.064  0.1633  0.0151  0.2081
 1186DOPC   NC313911   3.204  29.483   9.982 -0.0250  0.2831 -0.0102
 1186DOPC   PO413912   2.836  29.675   9.971  0.2865  0.4353  0.0131
 1186DOPC   GL113913   2.888  29.543  10.357  0.2630 -0.1076 -0.1604
 1186DOPC   GL213914   3.049  29.837  10.406 -0.0542  0.0822 -0.0088
 1186DOPC   C1A13915   2.544  29.239  10.443 -0.1946 -0.0591 -0.1083
 1186DOPC   D2A13916   2.385  28.846  10.549 -0.3949  0.0539  0.1622
 1186DOPC   C3A13917   2.647  28.585  10.909 -0.1019 -0.1619  0.4716
 1186DOPC   C4A13918   2.515  28.229  11.195 -0.2087 -0.1085  0.0317
 1186DOPC   C1B13919   2.800  29.737  10.753 -0.0396  0.0731 -0.1744
 1186DOPC   D2B13920   2.704  29.997  11.198  0.0178  0.0519  0.0073
 1186DOPC   C3B13921   2.515  29.698  11.634  0.1293 -0.1880  0.1164
 1186DOPC   C4B13922   2.450  29.724  12.094  0.3151  0.1312  0.0500
 1187DOPC   NC313923   7.892  28.774   9.130 -0.0479 -0.0257  0.1204
 1187DOPC   PO413924   8.078  28.409   9.152 -0.0740  0.0200  0.0889
 1187DOPC   GL113925   7.996  28.390   9.522 -0.2568  0.0891 -0.0137
 1187DOPC   GL213926   7.842  28.589   9.592 -0.1484  0.1460 -0.3101
 1187DOPC   C1A13927   8.043  28.138   9.941 -0.2334  0.1718 -0.0197
 1187DOPC   D2A13928   8.311  28.069  10.265  0.3951 -0.1773 -0.2812
 1187DOPC   C3A13929   8.621  27.745  10.261  0.1489 -0.0053  0.1425
 1187DOPC   C4A13930   8.920  27.413  10.032 -0.0432  0.0708  0.5018
 1187DOPC   C1B13931   7.875  28.612  10.077 -0.3594 -0.1856  0.0144
 1187DOPC   D2B13932   8.149  28.654  10.465 -0.1656  0.0526  0.2037
 1187DOPC   C3B13933   8.150  28.311  10.694  0.0937  0.2236  0.0283
 1187DOPC   C4B13934   8.089  28.284  11.173 -0.1128 -0.0508  0.0110
 1188DOPC   NC313935   3.670  25.147   9.371  0.2792  0.2486  0.1424
 1188DOPC   PO413936   3.719  25.528   9.517  0.2902  0.0695 -0.1813
 1188DOPC   GL113937   3.770  25.497   9.877 -0.0401 -0.1594 -0.3577
 1188DOPC   GL213938   3.659  25.209   9.900  0.1029  0.0718  0.0863
 1188DOPC   C1A13939   3.717  25.414  10.353  0.4442 -0.0877 -0.1305
 1188DOPC   D2A13940   3.519  25.344  10.790  0.1808 -0.0142 -0.1271
 1188DOPC   C3A13941   3.577  25.070  11.154  0.1955 -0.0799 -0.1469
 1188DOPC   C4A13942   3.476  24.962  11.640  0.2479 -0.0443  0.0427
 1188DOPC   C1B13943   3.332  25.053  10.212 -0.0153  0.0377 -0.3487
 1188DOPC   D2B13944   3.094  25.014  10.638 -0.3501  0.2030 -0.0894
 1188DOPC   C3B13945   2.998  24.966  11.067  0.1025 -0.1062 -0.2740
 1188DOPC   C4B13946   2.763  25.037  11.489  0.0480 -0.0872 -0.0772
 1189POSM   NC313947   9.709  33.003  10.269  0.1983  0.1409 -0.3511
 1189POSM   PO413948   9.417  32.942  10.095 -0.1544  0.1294  0.4161
 1189POSM   AM113949   9.293  32.825  10.354 -0.1659  0.0154  0.0966
 1189POSM   AM213950   9.411  32.653  10.550  0.5001  0.3182 -0.1558
 1189POSM   T1A13951   8.897  32.702  10.598 -0.1240  0.2767  0.1557
 1189POSM   C2A13952   8.707  32.498  10.962 -0.0452 -0.0527 -0.2845
 1189POSM   C3A13953   8.476  32.132  11.194  0.3365  0.2330 -0.3530
 1189POSM   C1B13954   9.483  32.779  10.865  0.1571 -0.1630 -0.4860
 1189POSM   D2B13955   9.419  33.041  11.217  0.0257  0.0422 -0.1809
 1189POSM   C3B13956   9.512  32.925  11.645  0.0201 -0.0610 -0.0823
 1189POSM   C4B13957   9.771  32.943  12.018  0.3441 -0.0974 -0.0622
 1190POSM   NC313958   2.506  27.312   9.505  0.0196  0.0598  0.0657
 1190POSM   PO413959   2.820  27.148   9.588 -0.0377 -0.2619  0.0429
 1190POSM   AM113960   2.673  27.183   9.903  0.3066 -0.1034 -0.0850
 1190POSM   AM213961   2.410  27.243  10.024 -0.3595  0.4606 -0.2090
 1190POSM   T1A13962   2.699  27.014  10.373  0.3314  0.0038  0.1970
 1190POSM   C2A13963   2.951  26.820  10.667  0.0513  0.1916 -0.0332
 1190POSM   C3A13964   3.096  26.874  11.051 -0.0304 -0.1400 -0.1540
 1190POSM   C1B13965   2.254  27.242  10.303 -0.5352  0.0061 -0.0411
 1190POSM   D2B13966   2.020  27.150  10.711  0.0924 -0.1507  0.2261
 1190POSM   C3B13967   1.606  26.920  10.715 -0.0312 -0.2896  0.0815
 1190POSM   C4B13968   1.199  27.061  10.932 -0.4135  0.1169 -0.1562
 1191DOPE   NH313969   6.680  24.230   9.601 -0.0836  0.0343 -0.0059
 1191DOPE   PO413970   6.428  24.068   9.707 -0.1168  0.3151  0.0335
 1191DOPE   GL113971   6.278  23.944  10.067 -0.1976  0.0545  0.1006
 1191DOPE   GL213972   6.186  24.190  10.217 -0.0681 -0.1291  0.1017
 1191DOPE   C1A13973   6.190  23.726  10.433  0.0268 -0.2185  0.0224
 1191DOPE   D2A13974   6.357  23.360  10.683 -0.1011 -0.0209  0.2790
 1191DOPE   C3A13975   6.290  23.266  11.157  0.2498 -0.1223 -0.1560
 1191DOPE   C4A13976   6.235  22.975  11.549  0.1144  0.0687 -0.0916
 1191DOPE   C1B13977   6.042  24.592  10.380 -0.1474 -0.1787  0.0007
 1191DOPE   D2B13978   6.040  25.144  10.416 -0.0546 -0.0429  0.2791
 1191DOPE   C3B13979   5.806  25.397  10.768 -0.3368 -0.1107  0.0188
 1191DOPE   C4B13980   5.743  25.666  11.130 -0.1136 -0.0595  0.1870
 1192DOPS   CNO13981  13.500  26.495   9.623 -0.1711  0.1402  0.0908
 1192DOPS   PO413982  13.334  26.637   9.950  0.1218  0.0054 -0.0115
 1192DOPS   GL113983  13.216  26.676  10.316 -0.0110  0.0220 -0.0427
 1192DOPS   GL213984  12.847  26.793  10.240  0.3364 -0.0652  0.2321
 1192DOPS   C1A13985  13.332  26.721  10.768  0.0529  0.0506  0.1763
 1192DOPS   D2A13986  13.116  26.945  11.137  0.0946 -0.2733  0.3577
 1192DOPS   C3A13987  13.322  26.805  11.531  0.0216 -0.2289  0.2401
 1192DOPS   C4A13988  13.532  27.026  11.841 -0.0347 -0.2807  0.0242
 1192DOPS   C1B13989  12.864  26.599  10.638  0.1768  0.0429  0.0403
 1192DOPS   D2B13990  12.749  26.232  10.870  0.3124 -0.2081 -0.2665
 1192DOPS   C3B13991  12.553  25.876  10.613 -0.2051 -0.1056 -0.1028
 1192DOPS   C4B13992  12.239  25.541  10.589  0.0149  0.0233  0.0650
 1193DOPE   NH313993  12.335  33.804  10.593  0.3217 -0.1971 -0.1896
 1193DOPE   PO413994  12.338  33.517  10.460 -0.1876  0.2338 -0.1942
 1193DOPE   GL113995  12.212  33.325  10.760 -0.1847 -0.0058 -0.0765
 1193DOPE   GL213996  12.313  33.048  10.899  0.0004 -0.2139  0.0951
 1193DOPE   C1A13997  12.339  33.447  11.147 -0.2309  0.1197  0.0587
 1193DOPE   D2A13998  12.347  33.663  11.563 -0.1431  0.2001  0.1205
 1193DOPE   C3A13999  12.124  33.397  11.800  0.1007 -0.1209  0.0862
 1193DOPE   C4A14000  11.713  33.192  11.771 -0.4671 -0.0350  0.0116
 1193DOPE   C1B14001  12.423  32.972  11.316  0.1978  0.2660 -0.2255
 1193DOPE   D2B14002  12.487  32.963  11.713 -0.0219 -0.1193 -0.0787
 1193DOPE   C3B14003  12.135  32.901  12.027  0.3064  0.1832 -0.1615
 1193DOPE   C4B14004  11.747  32.922  12.329  0.2090 -0.1138  0.1874
 1194DOPC   NC314005  33.974  27.867   9.083 -0.0037  0.2943  0.0318
 1194DOPC   PO414006  34.306  27.866   9.238 -0.0894 -0.1397  0.1093
 1194DOPC   GL114007  34.122  28.081   9.470  0.0120  0.2922 -0.0750
 1194DOPC   GL214008  34.292  28.179   9.665  0.1100 -0.2065 -0.0032
 1194DOPC   C1A14009  33.682  27.855   9.573 -0.2090  0.0179  0.0465
 1194DOPC   D2A14010  33.280  27.804   9.786 -0.1797  0.0945 -0.2717
 1194DOPC   C3A14011  33.003  27.688  10.120 -0.0635 -0.4125 -0.0388
 1194DOPC   C4A14012  32.976  27.374  10.476 -0.1944 -0.1422 -0.0975
 1194DOPC   C1B14013  34.009  28.142  10.070  0.0271  0.3236  0.3047
 1194DOPC   D2B14014  33.570  28.013  10.105  0.0860 -0.1011  0.0561
 1194DOPC   C3B14015  33.376  27.873  10.502 -0.1589 -0.0174  0.0287
 1194DOPC   C4B14016  33.189  27.737  10.897 -0.1962 -0.1343  0.0499
 1195DOPC   NC314017   2.646  26.184   9.942 -0.2981  0.0664 -0.0111
 1195DOPC   PO414018   2.426  26.350   9.691  0.1509 -0.0126 -0.1570
 1195DOPC   GL114019   2.332  26.441  10.122 -0.2557 -0.1285 -0.0289
 1195DOPC   GL214020   2.396  26.722  10.089 -0.3579 -0.1188  0.1618
 1195DOPC   C1A14021   2.215  26.200  10.467 -0.0242 -0.1212 -0.0029
 1195DOPC   D2A14022   1.812  26.313  10.640  0.1524  0.1203  0.4041
 1195DOPC   C3A14023   1.785  26.560  11.029  0.0828 -0.2015  0.0200
 1195DOPC   C4A14024   1.772  27.059  11.119 -0.2062  0.1095 -0.1795
 1195DOPC   C1B14025   2.655  26.542  10.462 -0.0350 -0.0167  0.0180
 1195DOPC   D2B14026   2.978  26.349  10.696  0.0814 -0.0041 -0.0153
 1195DOPC   C3B14027   3.414  26.456  10.679  0.2995 -0.1513  0.1320
 1195DOPC   C4B14028   3.834  26.310  10.563 -0.1541 -0.1225  0.0929
 1196POSM   NC314029   9.101  27.757   8.728  0.2643 -0.2536 -0.2781
 1196POSM   PO414030   9.214  27.496   9.021 -0.0055 -0.1622 -0.1750
 1196POSM   AM114031   9.301  27.581   9.350 -0.2872 -0.1081 -0.2961
 1196POSM   AM214032   9.363  27.370   9.544  0.1883  0.2482 -0.0238
 1196POSM   T1A14033   9.422  28.012   9.597  0.0372 -0.3664 -0.0885
 1196POSM   C2A14034   9.699  28.267   9.792 -0.5363 -0.2217 -0.1604
 1196POSM   C3A14035  10.115  28.412   9.806  0.0393 -0.3857 -0.0943
 1196POSM   C1B14036   9.434  27.536   9.788 -0.0703 -0.3453  0.0589
 1196POSM   D2B14037   9.377  27.502  10.250  0.1709  0.0115 -0.0909
 1196POSM   C3B14038   9.090  27.633  10.563  0.1237 -0.1402 -0.0553
 1196POSM   C4B14039   9.042  27.889  10.936  0.1729 -0.0588  0.1290
 1197POSM   NC314040  34.121  34.460   9.457  0.2648 -0.1055  0.1785
 1197POSM   PO414041  34.448  34.480   9.305 -0.2045  0.0500 -0.2631
 1197POSM   AM114042  34.586  34.431   9.621 -0.0090 -0.0483 -0.1003
 1197POSM   AM214043  34.447  34.382   9.846  0.1378  0.2018  0.1238
 1197POSM   T1A14044  34.960  34.225   9.853 -0.1089 -0.1133  0.0003
 1197POSM   C2A14045  34.936  34.203  10.265  0.1672  0.3575 -0.0198
 1197POSM   C3A14046  35.133  33.804  10.417 -0.0077 -0.2050  0.0952
 1197POSM   C1B14047  34.542  34.133  10.066 -0.1840  0.0977 -0.0546
 1197POSM   D2B14048  34.647  33.940  10.559  0.2803 -0.1321  0.0285
 1197POSM   C3B14049  34.541  34.123  10.974  0.3717  0.0859  0.1228
 1197POSM   C4B14050  34.320  34.229  11.347  0.0031 -0.1235  0.0022
 1198DOPS   CNO14051  10.038  23.110   9.628 -0.0658  0.1339 -0.1387
 1198DOPS   PO414052   9.719  22.939   9.674 -0.0515 -0.1008 -0.0830
 1198DOPS   GL114053   9.517  23.060  10.053 -0.1087 -0.0164  0.1845
 1198DOPS   GL214054   9.600  23.232  10.210  0.0688 -0.0915  0.3330
 1198DOPS   C1A14055   9.218  22.920  10.434  0.3491  0.2951 -0.2284
 1198DOPS   D2A14056   8.924  22.708  10.696  0.2519 -0.0038  0.1233
 1198DOPS   C3A14057   8.770  22.749  11.099 -0.3480  0.1842 -0.0093
 1198DOPS   C4A14058   8.772  22.773  11.574 -0.0565 -0.1613  0.0651
 1198DOPS   C1B14059   9.491  23.359  10.726  0.1109  0.0207 -0.1087
 1198DOPS   D2B14060   9.533  23.426  11.220  0.0159 -0.2545 -0.2825
 1198DOPS   C3B14061   9.912  23.558  11.444  0.0412 -0.2199 -0.3504
 1198DOPS   C4B14062  10.259  23.406  11.735 -0.1639  0.2217  0.1128
 1199POSM   NC314063   8.013  23.101   9.545  0.4921 -0.0300 -0.1689
 1199POSM   PO414064   7.781  22.944   9.817 -0.0888 -0.0561 -0.1658
 1199POSM   AM114065   7.578  22.824  10.089  0.1632 -0.0693  0.0743
 1199POSM   AM214066   7.351  22.916  10.252 -0.1180 -0.1877  0.0404
 1199POSM   T1A14067   7.507  22.402  10.407 -0.0954  0.2946  0.0054
 1199POSM   C2A14068   7.301  22.104  10.613 -0.1857 -0.0517  0.2660
 1199POSM   C3A14069   7.372  21.762  10.983 -0.0929  0.0827 -0.3254
 1199POSM   C1B14070   7.211  23.049  10.514  0.2418 -0.2430 -0.3475
 1199POSM   D2B14071   7.156  23.011  10.955  0.0370 -0.0206 -0.0847
 1199POSM   C3B14072   6.731  23.208  10.986 -0.1175  0.1855  0.2035
 1199POSM   C4B14073   6.669  23.638  11.025 -0.0143 -0.1733  0.1039
 1200DOPE   NH314074   5.229  30.728   9.391 -0.2739 -0.1512 -0.0884
 1200DOPE   PO414075   5.459  30.926   9.436  0.1099 -0.2891  0.2068
 1200DOPE   GL114076   5.602  30.897   9.821 -0.0661  0.1456 -0.0147
 1200DOPE   GL214077   5.695  31.133  10.029 -0.0145 -0.1762  0.0798
 1200DOPE   C1A14078   5.415  30.737  10.193 -0.1835 -0.4388 -0.1415
 1200DOPE   D2A14079   5.351  30.582  10.621  0.0525 -0.1363 -0.1983
 1200DOPE   C3A14080   5.116  30.959  10.755 -0.2082 -0.0312 -0.0998
 1200DOPE   C4A14081   4.980  31.346  10.961  0.0025  0.0434  0.2806
 1200DOPE   C1B14082   5.518  31.545  10.116  0.1212  0.3963 -0.1673
 1200DOPE   D2B14083   5.589  32.015  10.180  0.1718  0.0443 -0.0002
 1200DOPE   C3B14084   5.323  32.109  10.503  0.0703 -0.2097  0.0108
 1200DOPE   C4B14085   5.233  32.184  10.927 -0.1001 -0.0402 -0.3260
 1201DOPE   NH314086   1.436  25.301   9.477 -0.0098 -0.0078  0.0088
 1201DOPE   PO414087   1.415  25.593   9.355  0.1674  0.0609 -0.1089
 1201DOPE   GL114088   1.320  25.764   9.738 -0.2772 -0.2053 -0.1365
 1201DOPE   GL214089   1.410  26.023   9.695 -0.0005 -0.2325  0.0972
 1201DOPE   C1A14090   1.266  25.737  10.208 -0.3346  0.1040 -0.3367
 1201DOPE   D2A14091   1.469  25.651  10.623 -0.1160  0.3438  0.1105
 1201DOPE   C3A14092   1.384  25.912  10.969 -0.3831  0.1538 -0.0081
 1201DOPE   C4A14093   1.695  25.963  11.314 -0.2050 -0.1828 -0.0863
 1201DOPE   C1B14094   1.354  26.239  10.105  0.0765  0.0646 -0.1964
 1201DOPE   D2B14095   1.331  26.175  10.558  0.1567 -0.0500 -0.0441
 1201DOPE   C3B14096   1.286  26.446  10.911  0.2659  0.0902  0.1296
 1201DOPE   C4B14097   1.265  26.710  11.274  0.0862  0.0366  0.0309
 1202DOPE   NH314098   1.812  26.227   9.291 -0.0836  0.2281  0.3773
 1202DOPE   PO414099   1.724  26.532   9.375 -0.2096  0.0797  0.0975
 1202DOPE   GL114100   1.962  26.481   9.653 -0.1376  0.2550 -0.2801
 1202DOPE   GL214101   1.916  26.203   9.778 -0.1231  0.2864 -0.3092
 1202DOPE   C1A14102   1.921  26.558  10.162  0.2219  0.1575  0.0189
 1202DOPE   D2A14103   2.146  26.739  10.470  0.2175 -0.2251 -0.0342
 1202DOPE   C3A14104   2.235  26.557  10.874  0.1074  0.4602  0.1853
 1202DOPE   C4A14105   2.657  26.592  11.105  0.0360  0.0816  0.2278
 1202DOPE   C1B14106   1.760  25.909  10.146  0.0182  0.2988 -0.0712
 1202DOPE   D2B14107   1.915  25.820  10.599 -0.0966  0.1854  0.1596
 1202DOPE   C3B14108   2.092  26.047  10.944  0.0256 -0.0140  0.0717
 1202DOPE   C4B14109   2.402  25.990  11.303  0.0674  0.3045  0.0742
 1203DOPS   CNO14110   7.077  22.781   9.871  0.3835  0.1726  0.1216
 1203DOPS   PO414111   6.884  23.067   9.755  0.0569 -0.0262  0.0145
 1203DOPS   GL114112   6.890  23.121  10.195 -0.0103 -0.0533  0.0282
 1203DOPS   GL214113   6.603  23.233  10.270  0.2329  0.2195 -0.0749
 1203DOPS   C1A14114   6.700  22.764  10.548 -0.0303  0.0910 -0.1691
 1203DOPS   D2A14115   6.408  22.874  10.873 -0.0469  0.1056  0.0442
 1203DOPS   C3A14116   6.212  22.618  11.168 -0.0406  0.3577 -0.1528
 1203DOPS   C4A14117   5.857  22.593  11.463  0.1694  0.0242  0.2122
 1203DOPS   C1B14118   6.814  23.496  10.557  0.1356  0.2110  0.0286
 1203DOPS   D2B14119   7.128  23.528  10.925 -0.0810  0.0987  0.2330
 1203DOPS   C3B14120   7.186  23.367  11.344  0.0999 -0.0249 -0.1060
 1203DOPS   C4B14121   7.082  23.359  11.795  0.0448 -0.2494  0.0871
 1204POSM   NC314122   6.590  24.781   9.432  0.1560  0.3871  0.1030
 1204POSM   PO414123   6.926  24.668   9.523  0.1900  0.0298  0.2782
 1204POSM   AM114124   6.854  24.698   9.862  0.3705 -0.2635 -0.2827
 1204POSM   AM214125   6.896  24.912  10.075 -0.1549 -0.1373  0.0094
 1204POSM   T1A14126   6.888  24.483  10.303  0.2735 -0.4610 -0.0771
 1204POSM   C2A14127   7.125  24.574  10.705  0.1158 -0.0580  0.0301
 1204POSM   C3A14128   7.478  24.347  10.951 -0.3738 -0.0623  0.2056
 1204POSM   C1B14129   6.946  25.091  10.382  0.1359  0.0408 -0.0026
 1204POSM   D2B14130   6.878  25.161  10.821 -0.2983 -0.0780  0.1222
 1204POSM   C3B14131   6.976  24.847  11.150 -0.2093 -0.1141 -0.2106
 1204POSM   C4B14132   6.969  24.456  11.334 -0.1253  0.0960  0.0446
 1205POSM   NC314133   9.851  28.247   9.331  0.1355 -0.0155 -0.0002
 1205POSM   PO414134   9.968  27.871   9.254  0.0111 -0.0425  0.2056
 1205POSM   AM114135   9.873  27.741   9.547  0.0202 -0.2074 -0.0957
 1205POSM   AM214136   9.891  27.418   9.563 -0.1388  0.2416 -0.2640
 1205POSM   T1A14137   9.735  27.795  10.016  0.0640 -0.0319 -0.0251
 1205POSM   C2A14138   9.579  28.013  10.398 -0.1019  0.0623 -0.0306
 1205POSM   C3A14139   9.395  28.255  10.722 -0.2229 -0.1763 -0.2495
 1205POSM   C1B14140   9.888  27.314   9.903 -0.0575 -0.0431 -0.0098
 1205POSM   D2B14141  10.056  27.451  10.279  0.0280  0.2357  0.0257
 1205POSM   C3B14142  10.008  27.776  10.546  0.0662  0.4299  0.2355
 1205POSM   C4B14143  10.339  27.899  10.820  0.1316  0.2335 -0.1135
 1206DOPE   NH314144   8.446  24.473   9.416  0.1369 -0.2171  0.0062
 1206DOPE   PO414145   8.190  24.235   9.486 -0.2043  0.0557 -0.0290
 1206DOPE   GL114146   8.051  24.358   9.817 -0.0231 -0.0503 -0.0950
 1206DOPE   GL214147   8.149  24.252  10.118  0.0473  0.1032  0.1763
 1206DOPE   C1A14148   7.657  24.234  10.055  0.1081  0.1178 -0.0485
 1206DOPE   D2A14149   7.475  24.264  10.462  0.0029  0.2522 -0.0177
 1206DOPE   C3A14150   7.448  23.886  10.745  0.0541 -0.3506  0.1237
 1206DOPE   C4A14151   7.443  23.758  11.213  0.1635  0.3332  0.2780
 1206DOPE   C1B14152   8.386  24.069  10.477 -0.2244  0.2011  0.1315
 1206DOPE   D2B14153   8.635  23.681  10.514 -0.1523  0.3519  0.0459
 1206DOPE   C3B14154   8.481  23.475  10.913  0.2086  0.0742 -0.0758
 1206DOPE   C4B14155   8.109  23.156  10.978  0.0945 -0.3690 -0.0508
 1207DOPS   CNO14156   3.484  31.553   9.457 -0.0993 -0.0292  0.0100
 1207DOPS   PO414157   3.217  31.457   9.668  0.0818  0.3128 -0.2811
 1207DOPS   GL114158   3.259  31.449  10.123  0.3393 -0.1275  0.2865
 1207DOPS   GL214159   3.110  31.154  10.158  0.0331 -0.0568  0.1606
 1207DOPS   C1A14160   3.537  31.352  10.423  0.3456  0.3606 -0.0748
 1207DOPS   D2A14161   3.537  31.139  10.818 -0.0846 -0.1374  0.2714
 1207DOPS   C3A14162   3.226  31.403  11.004 -0.0978  0.0621 -0.0091
 1207DOPS   C4A14163   3.097  31.614  11.408 -0.4137 -0.3041 -0.1349
 1207DOPS   C1B14164   2.953  31.246  10.593  0.3404  0.3363 -0.1376
 1207DOPS   D2B14165   2.968  30.979  10.977  0.3578  0.0116  0.2487
 1207DOPS   C3B14166   2.977  31.173  11.429  0.0697  0.1570  0.1491
 1207DOPS   C4B14167   3.223  31.341  11.833  0.0819 -0.1225  0.1053
 1208DOPE   NH314168   6.028  28.108   9.612 -0.1565 -0.1705 -0.0641
 1208DOPE   PO414169   6.059  27.798   9.704 -0.4418 -0.1608 -0.2026
 1208DOPE   GL114170   5.936  27.894  10.089 -0.3586  0.1427  0.2044
 1208DOPE   GL214171   6.125  27.760  10.190 -0.0966  0.2452 -0.1150
 1208DOPE   C1A14172   5.993  28.294  10.256 -0.2562  0.0111  0.1382
 1208DOPE   D2A14173   5.899  28.611  10.617 -0.2387  0.0573 -0.1437
 1208DOPE   C3A14174   5.877  28.611  11.115  0.1403 -0.1099  0.0759
 1208DOPE   C4A14175   5.757  28.327  11.407 -0.1995 -0.1306  0.0458
 1208DOPE   C1B14176   6.220  27.928  10.597  0.2301  0.2236  0.0929
 1208DOPE   D2B14177   6.098  28.215  10.969  0.0201  0.1679 -0.2099
 1208DOPE   C3B14178   5.639  28.190  10.939 -0.2410 -0.0054  0.1746
 1208DOPE   C4B14179   5.303  28.485  10.927  0.0392 -0.0958  0.0221
 1209POSM   NC314180   1.966  26.872   9.173  0.1105  0.3292 -0.3679
 1209POSM   PO414181   1.985  27.238   9.223  0.0068  0.0097  0.2546
 1209POSM   AM114182   2.012  27.246   9.536  0.3360  0.0218 -0.1133
 1209POSM   AM214183   2.016  27.457   9.776  0.1621  0.2848 -0.2287
 1209POSM   T1A14184   1.911  27.020   9.957 -0.0241  0.0010  0.1934
 1209POSM   C2A14185   1.474  27.016  10.185  0.1053 -0.0229 -0.1130
 1209POSM   C3A14186   1.286  26.663  10.440 -0.4013 -0.3196  0.0821
 1209POSM   C1B14187   1.919  27.541  10.101 -0.5482 -0.0148 -0.3075
 1209POSM   D2B14188   1.592  27.470  10.460  0.2106 -0.1448 -0.5459
 1209POSM   C3B14189   1.200  27.257  10.529 -0.1330  0.0821 -0.0640
 1209POSM   C4B14190   0.960  27.023  10.219  0.1005  0.1651  0.1779
 1210POSM   NC314191   2.094  33.662   9.349  0.1718 -0.0272  0.2472
 1210POSM   PO414192   1.803  33.676   9.615  0.3678  0.0537 -0.1613
 1210POSM   AM114193   1.842  33.583   9.928  0.1265  0.0821  0.2355
 1210POSM   AM214194   1.927  33.725  10.146 -0.1184 -0.1913  0.2278
 1210POSM   T1A14195   1.676  33.348  10.328  0.0578  0.0232 -0.2659
 1210POSM   C2A14196   1.554  33.076  10.668 -0.0403 -0.0456 -0.1361
 1210POSM   C3A14197   1.549  32.597  10.729  0.0872  0.0066 -0.0523
 1210POSM   C1B14198   1.781  33.818  10.399 -0.2534 -0.0669 -0.0094
 1210POSM   D2B14199   1.533  33.655  10.753 -0.0220 -0.1014  0.2956
 1210POSM   C3B14200   1.558  33.501  11.157  0.0623  0.0680  0.3738
 1210POSM   C4B14201   1.746  33.198  11.451 -0.0558 -0.3109 -0.0460
 1211DOPC   NC314202   4.442  29.001   9.619  0.0080  0.2536  0.2808
 1211DOPC   PO414203   4.609  29.351   9.434 -0.0685  0.0136 -0.2030
 1211DOPC   GL114204   4.710  29.258   9.860  0.2654 -0.1113 -0.0508
 1211DOPC   GL214205   4.918  29.012   9.859  0.1845 -0.0013  0.0383
 1211DOPC   C1A14206   4.404  29.075  10.151 -0.1543  0.0283 -0.0739
 1211DOPC   D2A14207   4.263  28.909  10.541  0.2037 -0.1869  0.0161
 1211DOPC   C3A14208   4.511  29.023  10.940 -0.2051  0.2040 -0.2004
 1211DOPC   C4A14209   4.681  29.117  11.316  0.1352  0.1458 -0.3394
 1211DOPC   C1B14210   5.045  28.799  10.234  0.1010 -0.0548 -0.0727
 1211DOPC   D2B14211   4.933  28.662  10.630 -0.1289  0.0446 -0.4087
 1211DOPC   C3B14212   4.889  28.200  10.696 -0.1759 -0.0870  0.0304
 1211DOPC   C4B14213   4.720  27.851  10.410 -0.1584 -0.1449  0.2584
 1212POSM   NC314214   0.641  29.429   9.240 -0.1865  0.1121 -0.0139
 1212POSM   PO414215   0.942  29.589   9.415 -0.0307 -0.2560  0.0701
 1212POSM   AM114216   0.987  29.506   9.753 -0.0873  0.0512 -0.1901
 1212POSM   AM214217   0.901  29.405   9.974 -0.2553 -0.3275  0.0671
 1212POSM   T1A14218   1.328  29.537  10.152 -0.1675 -0.0700  0.1206
 1212POSM   C2A14219   1.506  29.521  10.595 -0.1911  0.1022  0.0281
 1212POSM   C3A14220   1.831  29.686  10.882  0.0156 -0.1440 -0.0365
 1212POSM   C1B14221   0.665  29.452  10.216 -0.3151 -0.0132  0.1237
 1212POSM   D2B14222   0.421  29.474  10.574 -0.1448 -0.0335  0.0543
 1212POSM   C3B14223   0.322  29.158  10.863  0.1689  0.1279 -0.0805
 1212POSM   C4B14224   0.144  28.850  11.191 -0.0465 -0.1067  0.1226
 1213DOPE   NH314225   7.444  25.086   9.382  0.2389 -0.2882 -0.0727
 1213DOPE   PO414226   7.738  25.108   9.508 -0.0057 -0.0788 -0.0642
 1213DOPE   GL114227   7.857  25.104   9.826 -0.0789  0.1322  0.3370
 1213DOPE   GL214228   7.932  25.431   9.842  0.1870 -0.2598 -0.0646
 1213DOPE   C1A14229   7.727  25.169  10.340 -0.1127  0.1634 -0.0491
 1213DOPE   D2A14230   7.362  25.107  10.672  0.1569  0.0230 -0.1425
 1213DOPE   C3A14231   7.503  24.817  10.979 -0.0278 -0.0810  0.2425
 1213DOPE   C4A14232   7.775  24.583  11.269  0.1231 -0.2268  0.0613
 1213DOPE   C1B14233   7.807  25.611  10.240  0.3234  0.3168 -0.3719
 1213DOPE   D2B14234   7.924  25.690  10.678 -0.0288  0.2044  0.4172
 1213DOPE   C3B14235   7.765  25.367  10.969 -0.1014 -0.2106  0.0473
 1213DOPE   C4B14236   7.360  25.250  11.186  0.1027  0.0158 -0.1020
 1214DOPS   CNO14237   4.388  27.682   9.529 -0.1361  0.2675 -0.1243
 1214DOPS   PO414238   4.253  28.035   9.608  0.0923  0.1897 -0.2255
 1214DOPS   GL114239   4.143  28.044   9.936  0.2866 -0.0606  0.0476
 1214DOPS   GL214240   4.284  28.232  10.111  0.0858  0.2277 -0.0469
 1214DOPS   C1A14241   3.859  27.818  10.317  0.1432 -0.1914 -0.4042
 1214DOPS   D2A14242   3.900  27.753  10.779 -0.1158  0.0566 -0.1057
 1214DOPS   C3A14243   3.460  27.762  10.905  0.0833 -0.0672 -0.1131
 1214DOPS   C4A14244   3.241  27.823  11.246 -0.0736 -0.1593 -0.2717
 1214DOPS   C1B14245   4.239  27.986  10.522 -0.3275 -0.3821 -0.0573
 1214DOPS   D2B14246   4.453  27.936  10.891 -0.0110  0.1812  0.1296
 1214DOPS   C3B14247   4.781  27.640  10.904 -0.0348  0.3122 -0.1941
 1214DOPS   C4B14248   5.192  27.399  11.042  0.0335  0.1456  0.1774
 1215DOPC   NC314249   3.391  31.990   9.581  0.1836  0.0134 -0.1367
 1215DOPC   PO414250   3.040  32.158   9.486  0.1624  0.0421  0.1844
 1215DOPC   GL114251   3.097  31.919   9.901  0.4902 -0.0563  0.2085
 1215DOPC   GL214252   3.141  32.147  10.029  0.0647  0.0799  0.0250
 1215DOPC   C1A14253   3.121  31.822  10.359  0.1313 -0.1656  0.3807
 1215DOPC   D2A14254   3.391  31.748  10.673 -0.1903 -0.0358 -0.1083
 1215DOPC   C3A14255   3.810  31.587  10.791 -0.0517  0.2621  0.1639
 1215DOPC   C4A14256   4.276  31.684  10.918  0.3831 -0.2062 -0.0963
 1215DOPC   C1B14257   2.842  32.239  10.319 -0.0527 -0.0902  0.0392
 1215DOPC   D2B14258   2.697  32.325  10.785 -0.0629  0.1408  0.2631
 1215DOPC   C3B14259   2.686  32.662  11.070 -0.1165 -0.2440  0.1386
 1215DOPC   C4B14260   2.866  32.815  11.447 -0.1139  0.1756 -0.0319
 1216DOPC   NC314261  12.003  29.510   9.592  0.4338  0.1686  0.0689
 1216DOPC   PO414262  11.759  29.254   9.470  0.0404 -0.1088  0.1159
 1216DOPC   GL114263  11.629  29.224   9.829 -0.0893  0.2421 -0.2835
 1216DOPC   GL214264  11.831  29.295   9.980  0.0715 -0.0738 -0.1764
 1216DOPC   C1A14265  11.406  28.796   9.797  0.0890 -0.1301  0.2715
 1216DOPC   D2A14266  11.061  28.468   9.899  0.1023 -0.1241 -0.0927
 1216DOPC   C3A14267  10.776  28.676  10.258 -0.0984  0.1038  0.0032
 1216DOPC   C4A14268  10.999  28.705  10.691  0.0161 -0.1867 -0.2896
 1216DOPC   C1B14269  11.744  29.242  10.409 -0.0185 -0.0806  0.0365
 1216DOPC   D2B14270  11.615  29.483  10.790 -0.0906 -0.3820 -0.1294
 1216DOPC   C3B14271  11.963  29.555  11.130 -0.1531 -0.0689 -0.0628
 1216DOPC   C4B14272  11.910  29.499  11.574 -0.0147 -0.2336 -0.2238
 1217DOPC   NC314273  34.137  27.411   8.953 -0.1470 -0.3413 -0.1439
 1217DOPC   PO414274  33.846  27.176   9.037 -0.1431 -0.0975 -0.0916
 1217DOPC   GL114275  34.046  27.068   9.350  0.0359 -0.0228 -0.4505
 1217DOPC   GL214276  34.397  27.092   9.285  0.0632 -0.0814 -0.0650
 1217DOPC   C1A14277  34.218  27.230   9.745 -0.0670  0.2948 -0.0922
 1217DOPC   D2A14278  34.471  27.033  10.090  0.2248 -0.2192  0.0295
 1217DOPC   C3A14279  34.309  27.236  10.482  0.0083 -0.2776 -0.0279
 1217DOPC   C4A14280  34.183  27.355  10.865  0.2260 -0.0663 -0.4819
 1217DOPC   C1B14281  34.677  27.116   9.620  0.1639 -0.0139  0.0174
 1217DOPC   D2B14282  34.871  27.372   9.891  0.0791 -0.1215 -0.0892
 1217DOPC   C3B14283  34.620  27.523  10.223  0.2456  0.4485 -0.2267
 1217DOPC   C4B14284  34.217  27.721  10.350 -0.1344 -0.1965  0.1600
 1218DOPS   CNO14285   5.835  29.449   8.933  0.1526 -0.1528 -0.0835
 1218DOPS   PO414286   5.876  29.624   9.268 -0.0398  0.3539  0.0491
 1218DOPS   GL114287   5.739  29.691   9.555 -0.2632  0.0227  0.3255
 1218DOPS   GL214288   5.553  29.459   9.683  0.0686 -0.1755  0.1308
 1218DOPS   C1A14289   5.903  30.054   9.811 -0.2808 -0.0975  0.2234
 1218DOPS   D2A14290   6.266  30.180  10.050  0.0194 -0.3113  0.1731
 1218DOPS   C3A14291   6.375  30.361  10.532  0.0678  0.0363 -0.0649
 1218DOPS   C4A14292   6.142  30.676  10.846  0.1843  0.0984 -0.1529
 1218DOPS   C1B14293   5.513  29.446  10.147  0.1996 -0.1963  0.0374
 1218DOPS   D2B14294   5.265  29.390  10.543 -0.1255 -0.0383 -0.0122
 1218DOPS   C3B14295   5.213  29.621  10.874 -0.1623 -0.1265  0.0871
 1218DOPS   C4B14296   5.113  29.381  11.273 -0.0020 -0.1389 -0.0249
 1219POSM   NC314297  34.546  24.806   9.394 -0.1033  0.0477 -0.2135
 1219POSM   PO414298  34.211  25.004   9.490 -0.0813 -0.2305 -0.0540
 1219POSM   AM114299  34.033  25.046   9.762 -0.4700 -0.2303  0.0430
 1219POSM   AM214300  34.129  25.150  10.019  0.0497  0.0781 -0.0154
 1219POSM   T1A14301  33.831  24.813  10.123 -0.1129 -0.2308  0.0352
 1219POSM   C2A14302  33.687  24.861  10.566  0.1497 -0.5028 -0.1573
 1219POSM   C3A14303  33.711  24.808  11.069 -0.1375 -0.2104  0.0882
 1219POSM   C1B14304  34.180  25.191  10.392  0.0676  0.1078 -0.3601
 1219POSM   D2B14305  34.009  25.130  10.869 -0.1269  0.0078 -0.1348
 1219POSM   C3B14306  33.821  25.296  11.290  0.0411  0.0359 -0.2204
 1219POSM   C4B14307  33.664  25.015  11.625  0.1196  0.1263 -0.1678
 1220POSM   NC314308   8.921  30.721   9.524 -0.2042 -0.3722  0.3694
 1220POSM   PO414309   9.103  31.079   9.536 -0.0484  0.2487  0.1646
 1220POSM   AM114310   8.996  31.030   9.828 -0.0003 -0.3021 -0.2086
 1220POSM   AM214311   9.096  30.813   9.976 -0.0624  0.1786 -0.1737
 1220POSM   T1A14312   8.721  31.184  10.187  0.0511  0.0091  0.1997
 1220POSM   C2A14313   8.487  31.432  10.562 -0.1186  0.1342  0.0365
 1220POSM   C3A14314   8.470  31.572  11.000 -0.0638 -0.4121 -0.2692
 1220POSM   C1B14315   9.173  30.582  10.223  0.2642  0.1874  0.0258
 1220POSM   D2B14316   9.153  30.378  10.613 -0.4206 -0.0721 -0.2598
 1220POSM   C3B14317   9.431  30.224  10.958  0.0237  0.2939 -0.0874
 1220POSM   C4B14318   9.547  29.878  11.233 -0.1090 -0.0605  0.2354
 1221DOPE   NH314319  33.375  30.282   9.349  0.1634  0.2378 -0.2156
 1221DOPE   PO414320  33.196  30.244   9.617 -0.1894  0.1210 -0.0114
 1221DOPE   GL114321  33.318  30.175   9.957 -0.0097  0.0676 -0.1892
 1221DOPE   GL214322  33.590  29.976  10.016  0.1537  0.0485  0.0123
 1221DOPE   C1A14323  33.137  29.959  10.271 -0.3125  0.2208 -0.2919
 1221DOPE   D2A14324  33.250  29.701  10.593 -0.0842 -0.0767 -0.0807
 1221DOPE   C3A14325  32.968  29.677  10.962 -0.0945 -0.0821 -0.0633
 1221DOPE   C4A14326  32.826  29.671  11.411 -0.6163  0.3035 -0.1102
 1221DOPE   C1B14327  33.712  29.860  10.483 -0.0890  0.0578 -0.0167
 1221DOPE   D2B14328  33.669  29.729  10.951  0.0457  0.1054  0.0476
 1221DOPE   C3B14329  33.356  29.778  11.292 -0.2350  0.0563  0.0657
 1221DOPE   C4B14330  33.246  29.864  11.668  0.1805 -0.0082  0.2809
 1222DOPC   NC314331   1.763  21.734   9.775 -0.1682 -0.1899 -0.0255
 1222DOPC   PO414332   1.457  21.531   9.693 -0.1111 -0.0310 -0.0214
 1222DOPC   GL114333   1.463  21.475  10.092  0.1038  0.1149 -0.0832
 1222DOPC   GL214334   1.574  21.683  10.276 -0.0319  0.0647  0.1338
 1222DOPC   C1A14335   1.205  21.345  10.432  0.1424  0.1415 -0.1775
 1222DOPC   D2A14336   0.776  21.555  10.600 -0.2597 -0.0771  0.0811
 1222DOPC   C3A14337   0.731  21.560  11.035 -0.0731  0.0718 -0.0339
 1222DOPC   C4A14338   0.810  21.591  11.419 -0.2633  0.0240  0.1082
 1222DOPC   C1B14339   1.693  22.004  10.565  0.0426 -0.3212 -0.0956
 1222DOPC   D2B14340   1.573  22.167  10.922 -0.2196 -0.1438 -0.2700
 1222DOPC   C3B14341   1.736  21.968  11.319  0.1056  0.0240 -0.1480
 1222DOPC   C4B14342   1.551  21.968  11.703  0.3981 -0.0213  0.0597
 1223POSM   NC314343   9.455  25.706   9.684  0.0633  0.2159 -0.1476
 1223POSM   PO414344   9.063  25.643   9.612  0.2886  0.0416 -0.0134
 1223POSM   AM114345   9.083  25.640   9.970  0.1057 -0.0253 -0.0742
 1223POSM   AM214346   9.125  25.828  10.157  0.2137  0.0675  0.4114
 1223POSM   T1A14347   8.738  25.542  10.344  0.1723 -0.0071  0.0445
 1223POSM   C2A14348   8.537  25.619  10.719 -0.1913 -0.0175 -0.1141
 1223POSM   C3A14349   8.586  25.715  11.209 -0.2420  0.0497  0.0007
 1223POSM   C1B14350   9.116  26.100  10.340  0.0749  0.0277 -0.1656
 1223POSM   D2B14351   9.100  26.386  10.714 -0.0465 -0.2084  0.1701
 1223POSM   C3B14352   9.202  26.835  10.842  0.0797 -0.1978 -0.2222
 1223POSM   C4B14353   9.225  27.290  11.043 -0.0655  0.1517  0.2080
 1224POSM   NC314354   6.865  28.999   8.706 -0.0153  0.0881  0.2305
 1224POSM   PO414355   6.884  28.783   9.028 -0.1779  0.1325  0.0856
 1224POSM   AM114356   7.023  28.747   9.351  0.1909  0.0897  0.2209
 1224POSM   AM214357   6.862  28.563   9.550  0.4059 -0.3288 -0.0452
 1224POSM   T1A14358   7.315  28.745   9.783  0.1803  0.1161  0.1016
 1224POSM   C2A14359   7.399  28.838  10.227  0.2365  0.0777  0.0379
 1224POSM   C3A14360   7.604  29.057  10.612  0.1393 -0.1045 -0.0318
 1224POSM   C1B14361   6.639  28.640   9.850  0.1500 -0.0760  0.0972
 1224POSM   D2B14362   6.303  28.788  10.220 -0.0778 -0.0112  0.2122
 1224POSM   C3B14363   6.624  28.941  10.551 -0.1513  0.0694 -0.0828
 1224POSM   C4B14364   6.758  28.911  11.043  0.2241 -0.0047  0.1389
 1225DOPC   NC314365  15.042   7.513  14.739 -0.4114  0.1404 -0.0134
 1225DOPC   PO414366  15.252   7.884  14.657  0.0004 -0.1444 -0.0954
 1225DOPC   GL114367  15.218   8.156  14.338 -0.0656 -0.0148 -0.3769
 1225DOPC   GL214368  15.343   7.987  14.186  0.2445 -0.0077  0.0444
 1225DOPC   C1A14369  14.883   8.239  14.039  0.0209  0.2059  0.0672
 1225DOPC   D2A14370  14.519   8.325  13.745  0.0752 -0.0027  0.3978
 1225DOPC   C3A14371  14.514   8.729  13.499  0.0731  0.1795 -0.1870
 1225DOPC   C4A14372  14.671   8.783  13.058 -0.0402 -0.1098  0.2343
 1225DOPC   C1B14373  15.106   7.783  13.855 -0.3561  0.4283  0.2376
 1225DOPC   D2B14374  14.978   7.571  13.470 -0.1688 -0.0192  0.5665
 1225DOPC   C3B14375  15.181   7.512  13.087 -0.1126 -0.0811  0.0076
 1225DOPC   C4B14376  15.075   7.412  12.624 -0.2671 -0.0933  0.1192
 1226DOPC   NC314377  20.297   3.498  14.044 -0.2283 -0.1003 -0.0987
 1226DOPC   PO414378  19.977   3.386  14.202  0.0300 -0.1105 -0.0861
 1226DOPC   GL114379  20.095   3.039  14.013  0.0413 -0.2627 -0.0052
 1226DOPC   GL214380  20.010   3.216  13.761 -0.3066 -0.0239 -0.1929
 1226DOPC   C1A14381  19.949   2.728  13.698  0.0758  0.3378 -0.1248
 1226DOPC   D2A14382  19.810   2.456  13.327  0.0146  0.3647  0.0673
 1226DOPC   C3A14383  19.573   2.568  12.929  0.1657 -0.1087  0.0509
 1226DOPC   C4A14384  19.226   2.833  12.976  0.0849  0.1865 -0.3684
 1226DOPC   C1B14385  19.990   3.423  13.365 -0.1126 -0.4652 -0.0560
 1226DOPC   D2B14386  19.947   3.912  13.268 -0.2112 -0.2552 -0.0804
 1226DOPC   C3B14387  19.948   4.243  12.885 -0.0520  0.1528 -0.1834
 1226DOPC   C4B14388  19.907   4.614  12.701  0.0809  0.1431 -0.1037
 1227DOPE   NH314389  20.993   9.034  14.538  0.2897 -0.1340 -0.0154
 1227DOPE   PO414390  20.833   8.840  14.330  0.0676  0.1081 -0.2308
 1227DOPE   GL114391  21.038   8.732  14.050 -0.1315  0.2186 -0.2251
 1227DOPE   GL214392  20.908   8.567  13.808  0.1784  0.2435 -0.2018
 1227DOPE   C1A14393  21.157   8.930  13.613  0.2873 -0.1218  0.2318
 1227DOPE   D2A14394  21.387   8.936  13.202 -0.2054  0.0108  0.1681
 1227DOPE   C3A14395  21.552   9.033  12.750 -0.1848  0.2068  0.2009
 1227DOPE   C4A14396  21.646   8.891  12.282 -0.1739  0.4146 -0.0208
 1227DOPE   C1B14397  20.552   8.731  13.519 -0.2262  0.2854 -0.4159
 1227DOPE   D2B14398  20.280   9.008  13.264 -0.0260  0.0232  0.1406
 1227DOPE   C3B14399  20.477   9.386  13.021  0.0345 -0.0066 -0.0522
 1227DOPE   C4B14400  20.602   9.393  12.564 -0.2714 -0.0014  0.0216
 1228DOPE   NH314401  13.731   8.056  14.873 -0.0127 -0.0045 -0.1297
 1228DOPE   PO414402  13.520   8.214  14.652 -0.0461  0.1642 -0.1144
 1228DOPE   GL114403  13.503   8.045  14.380 -0.2099 -0.4671  0.1402
 1228DOPE   GL214404  13.581   7.845  14.125  0.1806  0.0615 -0.0873
 1228DOPE   C1A14405  13.525   8.347  14.019 -0.1225  0.1066  0.0615
 1228DOPE   D2A14406  13.549   8.562  13.587  0.2500 -0.0056 -0.0150
 1228DOPE   C3A14407  13.503   8.265  13.264  0.2175  0.2666 -0.1335
 1228DOPE   C4A14408  13.765   8.371  12.910  0.1534  0.1730 -0.5838
 1228DOPE   C1B14409  13.399   7.995  13.679 -0.0784 -0.0380 -0.3310
 1228DOPE   D2B14410  13.267   7.748  13.281  0.1590  0.0231 -0.0024
 1228DOPE   C3B14411  13.360   7.489  12.946 -0.0357  0.2291  0.1432
 1228DOPE   C4B14412  13.154   7.084  12.762  0.2230  0.1711 -0.0817
 1229DOPC   NC314413  23.021  10.768  14.175  0.1347 -0.0089 -0.1938
 1229DOPC   PO414414  23.364  10.658  14.006  0.0371  0.1909 -0.0427
 1229DOPC   GL114415  23.437  10.540  13.541 -0.3345  0.0495 -0.2244
 1229DOPC   GL214416  23.609  10.659  13.304  0.1001  0.0925 -0.0432
 1229DOPC   C1A14417  23.547  10.205  13.170  0.0739  0.0619 -0.1731
 1229DOPC   D2A14418  23.729   9.801  13.066  0.0722 -0.0059  0.0657
 1229DOPC   C3A14419  23.738   9.714  12.617  0.2400  0.1045  0.0957
 1229DOPC   C4A14420  23.492   9.554  12.231 -0.0946  0.2269  0.0409
 1229DOPC   C1B14421  23.690  10.630  12.874 -0.0080 -0.0485 -0.1891
 1229DOPC   D2B14422  23.627  10.588  12.481 -0.2902  0.1554 -0.2106
 1229DOPC   C3B14423  24.011  10.431  12.298 -0.1240 -0.0517 -0.0155
 1229DOPC   C4B14424  24.304  10.301  11.942 -0.2021  0.1458 -0.3172
 1230DOPC   NC314425  25.905  10.739  14.608 -0.3564  0.2194 -0.3047
 1230DOPC   PO414426  25.643  10.728  14.340  0.0990 -0.3757 -0.0644
 1230DOPC   GL114427  25.711  10.720  13.990 -0.2791  0.0281 -0.2203
 1230DOPC   GL214428  25.965  10.700  13.916  0.0966 -0.0893  0.0264
 1230DOPC   C1A14429  25.559  10.544  13.629  0.0507  0.2299  0.0657
 1230DOPC   D2A14430  25.578  10.389  13.207 -0.2820 -0.3342 -0.1247
 1230DOPC   C3A14431  25.921  10.379  12.941  0.1180  0.1168 -0.2420
 1230DOPC   C4A14432  26.362  10.365  12.808 -0.2001  0.1705  0.0795
 1230DOPC   C1B14433  26.054  10.978  13.568 -0.1278 -0.2854 -0.1875
 1230DOPC   D2B14434  26.133  10.856  13.145  0.1242 -0.0226 -0.1376
 1230DOPC   C3B14435  25.955  10.862  12.708 -0.3741  0.2404  0.0574
 1230DOPC   C4B14436  25.892  10.957  12.242  0.0408  0.1656  0.0397
 1231POSM   NC314437  16.011   2.430  14.233  0.0565 -0.1172  0.0291
 1231POSM   PO414438  15.812   2.081  14.199  0.3272  0.4714  0.0492
 1231POSM   AM114439  15.824   2.109  13.893 -0.3134 -0.3013  0.3314
 1231POSM   AM214440  15.887   2.369  13.739  0.3902  0.1037  0.0721
 1231POSM   T1A14441  15.613   2.038  13.452 -0.1270 -0.0645  0.2421
 1231POSM   C2A14442  15.379   2.214  13.122  0.0181  0.5210 -0.2145
 1231POSM   C3A14443  15.008   2.265  12.819  0.0413 -0.0456 -0.2075
 1231POSM   C1B14444  15.911   2.435  13.421 -0.1315 -0.1561 -0.2051
 1231POSM   D2B14445  15.839   2.591  12.977 -0.1129 -0.2189  0.0062
 1231POSM   C3B14446  15.664   2.895  12.663  0.0957 -0.3074 -0.1309
 1231POSM   C4B14447  15.613   3.277  12.393  0.0470  0.2052  0.0249
 1232DOPS   CNO14448  20.370   8.529  14.491 -0.1385 -0.0674  0.0047
 1232DOPS   PO414449  20.033   8.501  14.336  0.0900  0.4096  0.2782
 1232DOPS   GL114450  19.838   8.316  14.018 -0.1899 -0.2458  0.1407
 1232DOPS   GL214451  20.033   8.133  13.924  0.1618 -0.0881 -0.1727
 1232DOPS   C1A14452  19.627   8.160  13.587 -0.0396 -0.5619 -0.1999
 1232DOPS   D2A14453  19.316   7.956  13.311  0.1089 -0.1863 -0.0693
 1232DOPS   C3A14454  19.275   8.020  12.870 -0.1833 -0.1136  0.0789
 1232DOPS   C4A14455  19.327   7.988  12.350  0.0457 -0.0008 -0.1797
 1232DOPS   C1B14456  20.322   8.106  13.561  0.1442 -0.0995  0.1327
 1232DOPS   D2B14457  20.352   8.052  13.113 -0.0261  0.0878 -0.1829
 1232DOPS   C3B14458  20.048   8.008  12.782 -0.1043  0.1257  0.2067
 1232DOPS   C4B14459  19.807   7.872  12.475 -0.2685 -0.0160  0.1567
 1233DOPC   NC314460  15.689   3.477  14.341 -0.3054  0.0770  0.0660
 1233DOPC   PO414461  15.399   3.653  14.220  0.1275  0.0049  0.0886
 1233DOPC   GL114462  15.546   3.924  13.995  0.1323 -0.0036  0.1864
 1233DOPC   GL214463  15.740   3.999  14.209  0.1639 -0.0661 -0.0269
 1233DOPC   C1A14464  15.860   3.947  13.629  0.4324 -0.4168  0.1565
 1233DOPC   D2A14465  16.047   3.969  13.230  0.1422 -0.2617 -0.1675
 1233DOPC   C3A14466  15.841   3.881  12.773 -0.1344  0.2429 -0.0379
 1233DOPC   C4A14467  15.474   3.966  12.513 -0.1338  0.2214 -0.2070
 1233DOPC   C1B14468  16.149   3.789  14.042  0.1681 -0.1329  0.0891
 1233DOPC   D2B14469  16.332   3.740  13.580  0.0960 -0.0634 -0.2689
 1233DOPC   C3B14470  16.756   3.510  13.434  0.1782  0.3166  0.0525
 1233DOPC   C4B14471  17.137   3.465  13.667 -0.0312  0.0658 -0.1905
 1234DOPE   NH314472  13.652   2.470  13.701 -0.1281  0.0145 -0.1367
 1234DOPE   PO414473  13.938   2.553  13.581 -0.1964  0.0011  0.0269
 1234DOPE   GL114474  13.989   2.676  13.215 -0.3710 -0.2592 -0.2584
 1234DOPE   GL214475  14.307   2.678  13.174  0.1443  0.1115  0.1717
 1234DOPE   C1A14476  13.927   2.477  12.798 -0.3548  0.0008 -0.1391
 1234DOPE   D2A14477  13.932   2.635  12.362  0.2733 -0.1288 -0.1965
 1234DOPE   C3A14478  14.111   2.320  12.068 -0.1722 -0.0432 -0.1579
 1234DOPE   C4A14479  14.333   1.870  12.029 -0.0369  0.2144  0.1996
 1234DOPE   C1B14480  14.049   3.033  12.987 -0.3880 -0.0525  0.0695
 1234DOPE   D2B14481  13.770   3.365  12.897 -0.1991  0.4243 -0.2328
 1234DOPE   C3B14482  13.999   3.726  12.672 -0.4927  0.2973 -0.0149
 1234DOPE   C4B14483  13.809   4.183  12.723 -0.0088 -0.0361  0.3377
 1235POSM   NC314484  19.311   9.500  14.682 -0.1102 -0.2823  0.0455
 1235POSM   PO414485  19.019   9.361  14.425 -0.0751 -0.1124 -0.0761
 1235POSM   AM114486  18.817   9.325  14.166 -0.0336  0.3166  0.3848
 1235POSM   AM214487  18.778   9.175  13.936  0.0463  0.4142 -0.1196
 1235POSM   T1A14488  18.364   9.424  14.002 -0.0484  0.0187  0.0108
 1235POSM   C2A14489  17.971   9.191  14.031 -0.1212  0.1506  0.0074
 1235POSM   C3A14490  17.714   8.871  14.278 -0.0255 -0.0546 -0.0010
 1235POSM   C1B14491  18.750   9.059  13.568 -0.0861 -0.0178 -0.1339
 1235POSM   D2B14492  18.607   9.288  13.189  0.2940  0.3184 -0.2420
 1235POSM   C3B14493  18.881   9.421  12.852  0.0877  0.1246 -0.0216
 1235POSM   C4B14494  19.110   9.482  12.504  0.2110  0.1771  0.2576
 1236DOPS   CNO14495  19.214  12.425  13.351 -0.2195 -0.0843  0.3311
 1236DOPS   PO414496  19.058  12.390  13.680  0.2207  0.0660 -0.0786
 1236DOPS   GL114497  18.775  12.103  13.465 -0.1887  0.0728 -0.3486
 1236DOPS   GL214498  18.909  11.957  13.291  0.0229  0.0848  0.1871
 1236DOPS   C1A14499  18.353  11.946  13.394 -0.0598  0.0552  0.0716
 1236DOPS   D2A14500  18.014  12.249  13.412 -0.1122 -0.0270 -0.0652
 1236DOPS   C3A14501  17.845  12.458  13.024 -0.0334 -0.0278  0.3324
 1236DOPS   C4A14502  17.667  12.802  12.745 -0.0937 -0.1750  0.1812
 1236DOPS   C1B14503  18.654  11.861  12.997  0.0148 -0.0527  0.1366
 1236DOPS   D2B14504  18.209  11.715  12.958  0.1952 -0.1565  0.0939
 1236DOPS   C3B14505  18.039  11.310  12.660  0.0076 -0.4426  0.0105
 1236DOPS   C4B14506  17.791  11.159  12.313 -0.0844 -0.1958 -0.3382
 1237DOPC   NC314507  21.650   2.926  14.142 -0.1993 -0.3064 -0.2781
 1237DOPC   PO414508  21.866   2.541  14.162 -0.0207 -0.0231  0.0530
 1237DOPC   GL114509  21.826   2.596  13.735  0.3435  0.3221 -0.2537
 1237DOPC   GL214510  21.934   2.902  13.669 -0.2351  0.1553  0.0819
 1237DOPC   C1A14511  21.608   2.466  13.313 -0.0106  0.1567  0.1640
 1237DOPC   D2A14512  21.775   2.430  12.854 -0.1860 -0.0685 -0.1659
 1237DOPC   C3A14513  21.534   2.435  12.449  0.1103 -0.0754 -0.1084
 1237DOPC   C4A14514  21.171   2.243  12.343 -0.1366  0.2019  0.0123
 1237DOPC   C1B14515  21.918   2.821  13.180  0.0074 -0.1205 -0.1167
 1237DOPC   D2B14516  22.059   2.942  12.753  0.0642  0.1559 -0.1075
 1237DOPC   C3B14517  22.439   3.160  12.582  0.0151  0.0164  0.0481
 1237DOPC   C4B14518  22.708   3.193  12.170  0.1761 -0.2188  0.2029
 1238DOPE   NH314519  19.242   3.669  14.592 -0.0304  0.1618 -0.0170
 1238DOPE   PO414520  18.966   3.843  14.598  0.1873  0.3370  0.1535
 1238DOPE   GL114521  18.919   3.634  14.234  0.1381  0.0757  0.4280
 1238DOPE   GL214522  19.179   3.799  14.110 -0.1422 -0.3416  0.0526
 1238DOPE   C1A14523  18.698   3.827  13.854 -0.0596 -0.1195  0.0417
 1238DOPE   D2A14524  18.394   3.790  13.487 -0.0358  0.0894 -0.3899
 1238DOPE   C3A14525  17.984   3.791  13.371  0.0062  0.0985 -0.0194
 1238DOPE   C4A14526  17.543   3.851  13.524  0.2966 -0.0992 -0.1929
 1238DOPE   C1B14527  19.371   3.753  13.705  0.0269 -0.1077 -0.1673
 1238DOPE   D2B14528  19.491   3.712  13.317 -0.0123  0.1248 -0.2132
 1238DOPE   C3B14529  19.343   3.403  12.996 -0.2726 -0.2178 -0.0674
 1238DOPE   C4B14530  18.989   3.352  12.779 -0.1724  0.4147  0.1674
 1239DOPE   NH314531  18.079   4.083  14.979  0.1400 -0.0996 -0.1006
 1239DOPE   PO414532  18.070   4.031  14.679 -0.1089  0.1077 -0.1143
 1239DOPE   GL114533  18.149   3.952  14.367  0.0450  0.2299 -0.0255
 1239DOPE   GL214534  17.926   4.016  14.154 -0.1665 -0.1258  0.3465
 1239DOPE   C1A14535  18.416   4.169  14.114  0.0492  0.0329  0.4391
 1239DOPE   D2A14536  18.535   4.281  13.715  0.0889 -0.1797 -0.2005
 1239DOPE   C3A14537  18.345   4.376  13.333  0.1304  0.0768 -0.2882
 1239DOPE   C4A14538  18.078   4.721  13.216  0.1168  0.1805 -0.2478
 1239DOPE   C1B14539  18.198   3.643  13.989  0.0443  0.0238  0.1191
 1239DOPE   D2B14540  18.192   3.208  14.072  0.3147  0.0212  0.0728
 1239DOPE   C3B14541  17.972   2.916  13.739  0.3475 -0.0585  0.3659
 1239DOPE   C4B14542  18.024   2.555  13.475 -0.0431  0.1558 -0.2836
 1240DOPC   NC314543  20.118   9.798  14.205  0.1532  0.0228  0.2524
 1240DOPC   PO414544  20.178   9.454  14.379  0.0506  0.1718  0.2702
 1240DOPC   GL114545  20.242   9.334  13.987  0.3573  0.2597 -0.0842
 1240DOPC   GL214546  20.098   9.477  13.837  0.1749 -0.0077 -0.2026
 1240DOPC   C1A14547  20.109   8.915  13.816  0.2886  0.2223  0.3126
 1240DOPC   D2A14548  20.070   8.522  13.610  0.1617 -0.3304  0.0162
 1240DOPC   C3A14549  20.090   8.515  13.139 -0.2014 -0.0316  0.1211
 1240DOPC   C4A14550  20.107   8.658  12.750  0.1210 -0.1931  0.3517
 1240DOPC   C1B14551  20.407   9.434  13.564 -0.2377 -0.2190  0.0142
 1240DOPC   D2B14552  20.822   9.403  13.396  0.1077  0.1013 -0.1104
 1240DOPC   C3B14553  20.821   8.946  13.163  0.2533  0.3309 -0.0101
 1240DOPC   C4B14554  21.069   8.621  13.002 -0.1931  0.0524 -0.4561
 1241POSM   NC314555  20.821   7.803  14.413 -0.0218 -0.2800 -0.3348
 1241POSM   PO414556  21.151   7.847  14.343 -0.0709 -0.1621  0.0352
 1241POSM   AM114557  21.153   7.725  14.016 -0.0061 -0.2955  0.1076
 1241POSM   AM214558  21.265   7.830  13.792  0.0011  0.2016 -0.2107
 1241POSM   T1A14559  21.017   7.419  13.660  0.1271  0.0557 -0.1088
 1241POSM   C2A14560  20.778   7.305  13.325  0.0184  0.2155  0.1030
 1241POSM   C3A14561  20.502   7.496  13.016  0.0041 -0.5876  0.1049
 1241POSM   C1B14562  21.112   8.063  13.551 -0.2066  0.1198  0.2340
 1241POSM   D2B14563  20.773   8.266  13.328 -0.2447  0.1413  0.0813
 1241POSM   C3B14564  20.592   8.484  12.963 -0.0502 -0.0378 -0.2186
 1241POSM   C4B14565  20.716   8.850  12.725 -0.0133  0.0663  0.1478
 1242DOPE   NH314566  12.832   7.584  14.838 -0.0096 -0.2160 -0.0189
 1242DOPE   PO414567  13.022   7.468  14.665 -0.2437  0.2013  0.1075
 1242DOPE   GL114568  13.035   7.833  14.480 -0.2629  0.2216 -0.5682
 1242DOPE   GL214569  12.758   7.788  14.356 -0.1114  0.0765 -0.1020
 1242DOPE   C1A14570  13.046   8.178  14.158 -0.0844  0.0821  0.0945
 1242DOPE   D2A14571  13.070   8.530  13.879 -0.1697 -0.1727 -0.3849
 1242DOPE   C3A14572  13.064   8.531  13.404  0.0222  0.0660 -0.1189
 1242DOPE   C4A14573  13.006   8.362  12.910  0.0256  0.0422  0.0916
 1242DOPE   C1B14574  12.586   7.996  13.982 -0.3709  0.1177  0.2424
 1242DOPE   D2B14575  12.465   7.942  13.555 -0.2099 -0.1407 -0.1329
 1242DOPE   C3B14576  12.411   8.272  13.251 -0.1580  0.0152 -0.3058
 1242DOPE   C4B14577  12.531   8.607  12.935  0.0274 -0.2089 -0.2381
 1243DOPS   CNO14578  14.539   0.670  14.430  0.0602 -0.1388  0.1314
 1243DOPS   PO414579  14.441   0.986  14.285  0.0585 -0.1629  0.1479
 1243DOPS   GL114580  14.431   1.194  13.838 -0.1106 -0.0670 -0.1847
 1243DOPS   GL214581  14.758   1.121  13.744 -0.0034  0.2123  0.1918
 1243DOPS   C1A14582  14.387   1.377  13.386  0.1729 -0.1380  0.0835
 1243DOPS   D2A14583  14.058   1.624  13.191  0.0672  0.1828 -0.4101
 1243DOPS   C3A14584  14.140   1.661  12.739  0.1326 -0.1365 -0.0319
 1243DOPS   C4A14585  14.291   1.483  12.378 -0.0380  0.2160  0.2052
 1243DOPS   C1B14586  14.647   0.849  13.436  0.1002  0.5031  0.0698
 1243DOPS   D2B14587  14.509   0.752  13.000 -0.0889  0.3548 -0.0398
 1243DOPS   C3B14588  14.244   0.813  12.584  0.1095  0.1700  0.2388
 1243DOPS   C4B14589  14.384   1.045  12.205 -0.0220 -0.1542  0.1054
 1244POSM   NC314590  19.201   6.165  14.726 -0.1154 -0.1037  0.1949
 1244POSM   PO414591  19.408   6.080  14.431  0.1370  0.0649  0.0778
 1244POSM   AM114592  19.368   6.099  14.112 -0.3981 -0.3978 -0.1399
 1244POSM   AM214593  19.516   6.001  13.859  0.0586 -0.3273  0.1750
 1244POSM   T1A14594  19.037   6.291  13.806 -0.0644 -0.2845  0.0833
 1244POSM   C2A14595  18.809   6.600  13.557  0.1090 -0.1754 -0.1200
 1244POSM   C3A14596  18.594   7.003  13.490 -0.1191  0.0583 -0.0683
 1244POSM   C1B14597  19.332   5.895  13.536 -0.2781  0.2828  0.3167
 1244POSM   D2B14598  19.205   5.568  13.247  0.3167  0.0570 -0.3593
 1244POSM   C3B14599  19.089   5.508  12.822 -0.1911 -0.3297  0.4747
 1244POSM   C4B14600  19.310   5.318  12.500 -0.0833  0.1109  0.1298
 1245POSM   NC314601  16.874   7.266  14.651 -0.1086 -0.2336 -0.0823
 1245POSM   PO414602  17.162   7.492  14.614  0.2636 -0.2008 -0.0395
 1245POSM   AM114603  17.343   7.578  14.357  0.4628 -0.1446  0.2314
 1245POSM   AM214604  17.542   7.476  14.265  0.0752  0.2349  0.2091
 1245POSM   T1A14605  17.418   7.772  13.866 -0.0871  0.1627  0.0733
 1245POSM   C2A14606  17.497   7.664  13.371  0.3668  0.2170  0.0292
 1245POSM   C3A14607  17.269   7.343  13.071 -0.1223  0.1543  0.0675
 1245POSM   C1B14608  17.531   7.318  13.974  0.0368 -0.0690 -0.2106
 1245POSM   D2B14609  17.439   7.152  13.535 -0.0849 -0.0371  0.0911
 1245POSM   C3B14610  17.801   7.191  13.265  0.0243 -0.0410 -0.1383
 1245POSM   C4B14611  18.233   7.054  13.138  0.1867 -0.0840 -0.3919
 1246DOPC   NC314612  12.993  33.111  14.091 -0.1894 -0.0815 -0.0028
 1246DOPC   PO414613  13.375  33.205  14.031 -0.2629  0.2173  0.1206
 1246DOPC   GL114614  13.466  33.400  13.691 -0.0779 -0.0136  0.1228
 1246DOPC   GL214615  13.670  33.577  13.683  0.0054  0.2872  0.0332
 1246DOPC   C1A14616  13.327  33.703  13.356  0.1401  0.0632  0.2479
 1246DOPC   D2A14617  13.415  33.892  12.957 -0.1041 -0.3054  0.3355
 1246DOPC   C3A14618  13.153  33.979  12.573  0.1388 -0.0388  0.1115
 1246DOPC   C4A14619  12.806  33.995  12.304 -0.1308 -0.0891 -0.1363
 1246DOPC   C1B14620  13.824  33.642  13.230  0.1442 -0.0886 -0.1787
 1246DOPC   D2B14621  13.738  33.220  13.106 -0.4528 -0.1817  0.1120
 1246DOPC   C3B14622  13.889  33.072  12.723  0.1674  0.1333  0.3423
 1246DOPC   C4B14623  14.046  32.771  12.398  0.1222 -0.1082 -0.2260
 1247DOPS   CNO14624  20.374   0.766  14.545 -0.4437 -0.0532  0.0910
 1247DOPS   PO414625  20.376   0.812  14.135  0.0247  0.0202  0.0618
 1247DOPS   GL114626  20.369   0.922  13.704 -0.1341  0.1676  0.3084
 1247DOPS   GL214627  20.025   0.870  13.647  0.1032 -0.0053  0.1851
 1247DOPS   C1A14628  20.549   0.673  13.319  0.0777  0.1619  0.3004
 1247DOPS   D2A14629  20.386   0.421  12.962  0.3861 -0.1849  0.2641
 1247DOPS   C3A14630  20.130   0.570  12.554  0.2660 -0.1164 -0.2006
 1247DOPS   C4A14631  19.778   0.375  12.315  0.1287  0.0362 -0.0787
 1247DOPS   C1B14632  19.714   1.176  13.419 -0.0986  0.0638 -0.0124
 1247DOPS   D2B14633  19.429   1.406  13.104  0.1314 -0.0816 -0.1991
 1247DOPS   C3B14634  19.464   1.893  13.198  0.0282 -0.0528 -0.1511
 1247DOPS   C4B14635  19.383   2.250  13.354 -0.1055  0.1967 -0.2003
 1248DOPE   NH314636  22.634  11.377  13.981 -0.0001 -0.1490 -0.2618
 1248DOPE   PO414637  22.731  11.092  13.890 -0.0946  0.0456 -0.1607
 1248DOPE   GL114638  22.504  11.079  13.596  0.0725  0.1759 -0.1303
 1248DOPE   GL214639  22.376  10.794  13.628 -0.0842 -0.0375  0.0945
 1248DOPE   C1A14640  22.638  11.189  13.167 -0.2434 -0.0968  0.1999
 1248DOPE   D2A14641  23.048  11.369  12.900  0.1236  0.2532  0.1116
 1248DOPE   C3A14642  23.002  11.487  12.465 -0.0109 -0.1246  0.2923
 1248DOPE   C4A14643  23.007  11.466  12.007 -0.2569  0.2220  0.4325
 1248DOPE   C1B14644  22.212  10.964  13.178  0.1377  0.2053  0.2600
 1248DOPE   D2B14645  21.888  11.008  12.898 -0.1809 -0.3966  0.3470
 1248DOPE   C3B14646  21.579  10.863  12.546 -0.3259 -0.0497 -0.0424
 1248DOPE   C4B14647  21.795  10.772  12.080  0.1305 -0.0604  0.0056
 1249POSM   NC314648  22.047   5.727  14.390 -0.3230 -0.0759 -0.0693
 1249POSM   PO414649  22.266   5.855  14.062  0.1070  0.1040 -0.0442
 1249POSM   AM114650  22.307   5.727  13.787  0.3219 -0.1289 -0.3094
 1249POSM   AM214651  22.433   5.827  13.559 -0.3258 -0.0342 -0.0068
 1249POSM   T1A14652  22.169   5.385  13.403 -0.0258  0.2783 -0.2409
 1249POSM   C2A14653  21.863   5.321  13.065  0.1675 -0.2080  0.0352
 1249POSM   C3A14654  21.684   5.177  12.655 -0.1470 -0.0915  0.1087
 1249POSM   C1B14655  22.591   5.792  13.255 -0.0423  0.0172 -0.0866
 1249POSM   D2B14656  22.902   5.594  12.983  0.1862  0.0896 -0.1704
 1249POSM   C3B14657  23.353   5.730  12.838 -0.0248 -0.2507  0.3081
 1249POSM   C4B14658  23.637   5.462  12.573  0.1080  0.2579  0.1678
 1250POSM   NC314659  24.059   3.254  14.183 -0.1220  0.2380  0.1254
 1250POSM   PO414660  23.667   3.297  14.164 -0.2602  0.1531 -0.0506
 1250POSM   AM114661  23.731   3.217  13.842  0.0966  0.0642  0.1753
 1250POSM   AM214662  23.752   3.343  13.626 -0.0513 -0.1493 -0.3187
 1250POSM   T1A14663  23.473   2.881  13.562  0.1554  0.0402  0.1407
 1250POSM   C2A14664  23.330   2.670  13.130  0.1290  0.0365  0.1287
 1250POSM   C3A14665  23.350   2.448  12.724 -0.0553  0.1711  0.4933
 1250POSM   C1B14666  23.890   3.417  13.322 -0.0107 -0.1904 -0.2349
 1250POSM   D2B14667  23.885   3.392  12.915  0.0873  0.1767  0.0902
 1250POSM   C3B14668  23.559   3.661  12.736  0.0042 -0.0339  0.2182
 1250POSM   C4B14669  23.138   3.766  12.868  0.1317 -0.0583  0.0819
 1251DOPC   NC314670  13.377   6.247  14.648  0.2022 -0.1976 -0.3732
 1251DOPC   PO414671  13.051   6.271  14.762  0.0521 -0.0468  0.1757
 1251DOPC   GL114672  13.025   6.247  14.331  0.0053 -0.1347  0.0563
 1251DOPC   GL214673  13.191   6.485  14.170  0.1323 -0.1181  0.0867
 1251DOPC   C1A14674  12.834   6.133  13.950  0.2123 -0.0037  0.3810
 1251DOPC   D2A14675  12.801   6.352  13.548 -0.0679 -0.1223 -0.0843
 1251DOPC   C3A14676  12.519   6.346  13.159 -0.0407 -0.2300 -0.2089
 1251DOPC   C4A14677  12.150   6.466  12.923  0.1002  0.0122  0.0819
 1251DOPC   C1B14678  13.356   6.438  13.744 -0.2682 -0.0918  0.1402
 1251DOPC   D2B14679  13.393   6.568  13.316  0.0513  0.0671 -0.2186
 1251DOPC   C3B14680  12.982   6.621  13.184  0.3049  0.0818  0.0091
 1251DOPC   C4B14681  12.892   6.687  12.694 -0.0875 -0.3443  0.0708
 1252DOPC   NC314682  12.068   2.084  13.502  0.0148 -0.2390 -0.0689
 1252DOPC   PO414683  12.146   2.492  13.603  0.3033 -0.0313  0.0116
 1252DOPC   GL114684  11.927   2.540  13.246 -0.4404  0.0261  0.7184
 1252DOPC   GL214685  12.050   2.759  13.155  0.1527  0.0667  0.2582
 1252DOPC   C1A14686  12.040   2.434  12.755 -0.0456  0.2126 -0.1846
 1252DOPC   D2A14687  12.464   2.340  12.554 -0.1666 -0.1516 -0.1748
 1252DOPC   C3A14688  12.806   2.361  12.259 -0.0254 -0.2036 -0.1980
 1252DOPC   C4A14689  13.110   2.329  11.900 -0.1110 -0.1771  0.2577
 1252DOPC   C1B14690  11.869   2.931  12.725  0.1125  0.0930 -0.2663
 1252DOPC   D2B14691  11.583   2.849  12.356 -0.0830  0.1481  0.3081
 1252DOPC   C3B14692  11.570   3.096  11.954 -0.0121  0.0695 -0.1218
 1252DOPC   C4B14693  11.475   3.243  11.490  0.3409  0.1099  0.0074
 1253POSM   NC314694  17.985  32.638  14.620 -0.0092 -0.1201  0.3012
 1253POSM   PO414695  18.323  32.726  14.481 -0.1313 -0.1334 -0.2065
 1253POSM   AM114696  18.488  32.849  14.228  0.0382  0.1875  0.2763
 1253POSM   AM214697  18.458  33.121  14.125  0.0495 -0.0708  0.1309
 1253POSM   T1A14698  18.594  32.763  13.743 -0.0876  0.0362 -0.0385
 1253POSM   C2A14699  18.494  32.938  13.367  0.0400  0.2353  0.0152
 1253POSM   C3A14700  18.484  33.258  13.059 -0.2220 -0.1460 -0.0853
 1253POSM   C1B14701  18.363  33.212  13.820  0.2412  0.0615  0.0210
 1253POSM   D2B14702  18.238  33.434  13.443  0.4519 -0.0477  0.0778
 1253POSM   C3B14703  17.970  33.473  13.058 -0.1172 -0.1680  0.2478
 1253POSM   C4B14704  17.572  33.253  12.981 -0.0758 -0.1303 -0.1505
 1254POSM   NC314705  23.200   4.124  13.508  0.1098 -0.1106 -0.5275
 1254POSM   PO414706  22.963   4.383  13.733  0.0498 -0.1500  0.1701
 1254POSM   AM114707  23.169   4.580  13.557 -0.0513 -0.0948 -0.2716
 1254POSM   AM214708  23.152   4.578  13.243  0.1010 -0.0379  0.3960
 1254POSM   T1A14709  23.490   4.867  13.386  0.2140  0.3163 -0.2075
 1254POSM   C2A14710  23.958   4.964  13.418 -0.0043 -0.1456  0.1118
 1254POSM   C3A14711  24.326   5.207  13.248  0.1572  0.2314  0.3351
 1254POSM   C1B14712  23.180   4.322  12.986  0.1685  0.1282 -0.3523
 1254POSM   D2B14713  22.862   4.188  12.665 -0.2365  0.0925 -0.4400
 1254POSM   C3B14714  22.948   4.366  12.219 -0.6125  0.0096 -0.1197
 1254POSM   C4B14715  23.091   4.391  11.821 -0.1087  0.1596 -0.2577
 1255DOPE   NH314716  23.917  11.987  13.756  0.0816 -0.1789  0.0149
 1255DOPE   PO414717  23.800  11.717  13.690 -0.0427 -0.0623  0.2142
 1255DOPE   GL114718  23.763  11.587  13.307  0.0313 -0.2299  0.0060
 1255DOPE   GL214719  23.821  11.375  13.210 -0.0165 -0.0815 -0.4513
 1255DOPE   C1A14720  23.575  11.844  12.980  0.2081  0.1024 -0.0236
 1255DOPE   D2A14721  23.585  11.783  12.530  0.0028 -0.0635 -0.0247
 1255DOPE   C3A14722  23.906  12.106  12.412 -0.2269 -0.1426 -0.3480
 1255DOPE   C4A14723  24.398  12.064  12.413 -0.1911 -0.1740  0.1127
 1255DOPE   C1B14724  24.026  10.962  13.078  0.1454 -0.0870 -0.2701
 1255DOPE   D2B14725  24.133  10.741  12.666  0.1555  0.2023  0.0232
 1255DOPE   C3B14726  23.992  10.976  12.291 -0.0263 -0.0713 -0.3451
 1255DOPE   C4B14727  24.333  11.218  12.046 -0.0655  0.2479  0.0942
 1256DOPC   NC314728  18.495   8.817  14.985 -0.0200 -0.1715  0.2341
 1256DOPC   PO414729  18.364   8.686  14.643  0.0420 -0.1871 -0.1387
 1256DOPC   GL114730  18.258   8.596  14.211  0.0390  0.2574  0.0095
 1256DOPC   GL214731  18.424   8.861  14.152 -0.2842 -0.2167  0.1314
 1256DOPC   C1A14732  18.005   8.630  13.823 -0.0071  0.1298  0.0657
 1256DOPC   D2A14733  17.980   8.693  13.369  0.1241 -0.0074 -0.1064
 1256DOPC   C3A14734  18.302   8.863  13.064  0.0140  0.1877  0.3728
 1256DOPC   C4A14735  18.260   9.056  12.680 -0.1399  0.0265 -0.0061
 1256DOPC   C1B14736  18.439   8.655  13.692 -0.2902 -0.1073 -0.0116
 1256DOPC   D2B14737  18.678   8.492  13.335  0.1943  0.1691 -0.2569
 1256DOPC   C3B14738  18.872   8.763  13.029  0.0579 -0.3843  0.0844
 1256DOPC   C4B14739  18.755   8.994  12.677  0.0192 -0.4962 -0.1578
 1257DOPE   NH314740  22.092   6.183  13.712  0.0232 -0.0885  0.3658
 1257DOPE   PO414741  21.816   6.336  13.680 -0.1019 -0.1000  0.2255
 1257DOPE   GL114742  21.861   6.305  13.252  0.0691 -0.0691 -0.2201
 1257DOPE   GL214743  21.745   6.553  13.247 -0.2076 -0.2729 -0.0885
 1257DOPE   C1A14744  22.254   6.141  13.045  0.0754 -0.0073 -0.0274
 1257DOPE   D2A14745  22.537   6.177  12.732 -0.0266  0.1797 -0.0459
 1257DOPE   C3A14746  22.668   6.145  12.319 -0.0134  0.2645 -0.0770
 1257DOPE   C4A14747  22.393   6.129  11.948  0.0372  0.2975  0.0308
 1257DOPE   C1B14748  21.770   6.833  12.900 -0.4411 -0.4312 -0.0180
 1257DOPE   D2B14749  21.715   6.793  12.475 -0.0202  0.0582 -0.3941
 1257DOPE   C3B14750  21.982   6.798  12.124  0.2516 -0.2533 -0.2713
 1257DOPE   C4B14751  21.924   6.952  11.724 -0.3247 -0.0246 -0.2440
 1258DOPE   NH314752  22.114   1.186  14.186 -0.0135 -0.0242 -0.3276
 1258DOPE   PO414753  21.935   1.425  14.135  0.1272  0.1862  0.2216
 1258DOPE   GL114754  21.913   1.608  13.841  0.0894  0.1492  0.0904
 1258DOPE   GL214755  22.112   1.731  13.816 -0.0256  0.2181 -0.1318
 1258DOPE   C1A14756  21.710   1.568  13.426 -0.0491 -0.2018 -0.0218
 1258DOPE   D2A14757  21.626   1.450  12.997  0.2363 -0.0858  0.1311
 1258DOPE   C3A14758  21.730   1.431  12.540 -0.1223 -0.0411 -0.1083
 1258DOPE   C4A14759  21.605   1.077  12.258  0.1127  0.2868 -0.0460
 1258DOPE   C1B14760  22.154   1.749  13.365  0.2498  0.2503 -0.0391
 1258DOPE   D2B14761  22.484   2.007  13.238  0.5629  0.0070 -0.2895
 1258DOPE   C3B14762  22.644   1.851  12.779 -0.3329 -0.0875  0.0303
 1258DOPE   C4B14763  22.424   1.481  12.603  0.0565 -0.0276  0.0189
 1259DOPE   NH314764  17.152   3.174  14.196 -0.1450  0.0446 -0.0911
 1259DOPE   PO414765  17.334   2.922  14.116 -0.1293 -0.3350 -0.0103
 1259DOPE   GL114766  17.661   2.626  13.990  0.1206  0.2928 -0.1269
 1259DOPE   GL214767  17.963   2.589  14.087 -0.0184 -0.2203  0.0346
 1259DOPE   C1A14768  17.665   2.201  13.817 -0.2258  0.0096  0.2473
 1259DOPE   D2A14769  17.636   1.773  13.765  0.1151 -0.2605 -0.0850
 1259DOPE   C3A14770  17.644   1.716  13.306 -0.0718 -0.1737  0.0210
 1259DOPE   C4A14771  17.628   1.504  12.926  0.2874 -0.1695 -0.0600
 1259DOPE   C1B14772  18.148   2.283  13.861  0.0913  0.1851  0.0705
 1259DOPE   D2B14773  18.050   2.102  13.469 -0.0259  0.1310 -0.0926
 1259DOPE   C3B14774  17.713   2.215  13.209 -0.0034  0.1135  0.4244
 1259DOPE   C4B14775  17.370   2.485  13.159  0.0126 -0.0367  0.0184
 1260DOPS   CNO14776  14.601   6.548  14.477 -0.2113 -0.1980  0.2825
 1260DOPS   PO414777  14.578   6.177  14.516  0.1487 -0.1322 -0.0459
 1260DOPS   GL114778  14.615   6.269  14.086  0.1615 -0.0002 -0.0851
 1260DOPS   GL214779  14.472   6.524  13.965  0.0439  0.0198 -0.1132
 1260DOPS   C1A14780  14.885   6.428  13.684 -0.2858 -0.1859  0.2875
 1260DOPS   D2A14781  15.204   6.411  13.406 -0.0110  0.1523 -0.1973
 1260DOPS   C3A14782  15.306   6.733  13.096  0.1339  0.2465 -0.4446
 1260DOPS   C4A14783  15.399   7.105  12.885 -0.0916 -0.0076  0.1571
 1260DOPS   C1B14784  14.358   6.231  13.686 -0.0648 -0.1148  0.1845
 1260DOPS   D2B14785  14.191   5.758  13.626 -0.1551 -0.0285 -0.1133
 1260DOPS   C3B14786  14.118   5.666  13.186 -0.1068 -0.1479 -0.2523
 1260DOPS   C4B14787  14.298   5.645  12.749 -0.1202 -0.1907  0.0433
 1261DOPE   NH314788  19.343   5.059  14.281 -0.2888  0.1352  0.0593
 1261DOPE   PO414789  19.037   5.047  14.312 -0.0254  0.3857  0.1612
 1261DOPE   GL114790  19.070   4.904  13.937 -0.1130 -0.1432 -0.0736
 1261DOPE   GL214791  19.099   5.113  13.753 -0.1222 -0.1539 -0.3842
 1261DOPE   C1A14792  19.042   4.478  13.837  0.0300 -0.0609  0.1454
 1261DOPE   D2A14793  19.030   4.213  13.491  0.0181 -0.0306  0.2036
 1261DOPE   C3A14794  18.741   4.173  13.144  0.0791 -0.2157  0.1285
 1261DOPE   C4A14795  18.308   3.936  13.018 -0.1864  0.3334 -0.4406
 1261DOPE   C1B14796  18.935   5.130  13.295  0.0269 -0.1963  0.1256
 1261DOPE   D2B14797  18.473   5.136  13.137 -0.1503 -0.1753 -0.2126
 1261DOPE   C3B14798  18.438   4.826  12.864 -0.0015  0.0596  0.0765
 1261DOPE   C4B14799  18.277   4.414  12.831 -0.3946 -0.1897  0.0898
 1262DOPE   NH314800  16.004   7.114  14.372 -0.3652  0.2376 -0.0337
 1262DOPE   PO414801  16.026   6.801  14.423  0.3063  0.2232  0.2122
 1262DOPE   GL114802  15.875   6.690  14.043 -0.2887  0.0627  0.0224
 1262DOPE   GL214803  16.061   6.478  13.940  0.0026  0.1121  0.0425
 1262DOPE   C1A14804  15.716   7.033  13.762 -0.0966  0.1958 -0.1415
 1262DOPE   D2A14805  15.586   7.239  13.359  0.0884 -0.0346  0.1217
 1262DOPE   C3A14806  15.932   7.161  13.047 -0.0942 -0.0509 -0.1000
 1262DOPE   C4A14807  16.337   7.267  12.869  0.0351 -0.4110 -0.1975
 1262DOPE   C1B14808  16.291   6.830  13.682 -0.0575  0.1245 -0.1815
 1262DOPE   D2B14809  16.655   7.114  13.798 -0.0000  0.0897  0.0767
 1262DOPE   C3B14810  16.530   7.539  13.751  0.0825  0.0269 -0.0217
 1262DOPE   C4B14811  16.618   7.933  13.511 -0.2229 -0.0899 -0.0278
 1263POSM   NC314812  17.173  33.280  14.187  0.3226  0.1511  0.3627
 1263POSM   PO414813  16.823  33.075  14.164 -0.0705 -0.0081 -0.1703
 1263POSM   AM114814  16.758  32.979  13.867 -0.0836 -0.0789  0.0566
 1263POSM   AM214815  16.649  33.104  13.643 -0.0837 -0.2501 -0.0023
 1263POSM   T1A14816  16.935  32.714  13.468  0.2307 -0.0958 -0.2747
 1263POSM   C2A14817  16.693  32.514  13.117  0.1686  0.1036  0.1465
 1263POSM   C3A14818  16.383  32.760  13.026  0.1135 -0.1793  0.0780
 1263POSM   C1B14819  16.686  33.115  13.278 -0.2335 -0.0688 -0.0907
 1263POSM   D2B14820  16.652  33.360  12.895  0.0711 -0.0891 -0.0175
 1263POSM   C3B14821  16.893  33.483  12.523 -0.0174  0.1439  0.0803
 1263POSM   C4B14822  16.971  33.567  12.107 -0.0026 -0.0882 -0.2390
 1264POSM   NC314823  18.215   2.993  14.497 -0.0032  0.2527 -0.0997
 1264POSM   PO414824  17.829   2.963  14.394 -0.2768 -0.2048 -0.0044
 1264POSM   AM114825  17.712   3.166  14.158 -0.2260  0.2136  0.2638
 1264POSM   AM214826  17.641   3.229  13.882 -0.4249 -0.1752 -0.2806
 1264POSM   T1A14827  17.646   3.660  13.985  0.0498 -0.1290 -0.1711
 1264POSM   C2A14828  17.348   4.031  13.918  0.1131  0.0162  0.4132
 1264POSM   C3A14829  17.356   4.369  13.552 -0.1730 -0.5138  0.2121
 1264POSM   C1B14830  17.638   3.302  13.600 -0.1071  0.0580 -0.2930
 1264POSM   D2B14831  17.495   3.430  13.204  0.0851  0.0311  0.1238
 1264POSM   C3B14832  17.168   3.700  13.045  0.1840 -0.2205  0.2143
 1264POSM   C4B14833  16.877   3.841  12.674 -0.2146 -0.1402 -0.1456
 1265DOPC   NC314834  20.912   5.920  13.998  0.0913 -0.0044 -0.4785
 1265DOPC   PO414835  21.169   5.611  13.918  0.2625 -0.1079  0.0220
 1265DOPC   GL114836  21.191   5.593  13.519  0.0144  0.0069  0.1980
 1265DOPC   GL214837  21.017   5.351  13.515 -0.0898  0.2572  0.1908
 1265DOPC   C1A14838  21.439   5.642  13.157  0.0050  0.1414  0.0444
 1265DOPC   D2A14839  21.265   5.755  12.708 -0.0725  0.0094  0.2669
 1265DOPC   C3A14840  21.178   5.603  12.285 -0.0703 -0.1343  0.0373
 1265DOPC   C4A14841  21.003   5.684  11.838 -0.0872 -0.1383 -0.3207
 1265DOPC   C1B14842  21.298   5.126  13.244  0.0752 -0.0843 -0.1539
 1265DOPC   D2B14843  21.299   4.882  12.868 -0.1904 -0.1669  0.1203
 1265DOPC   C3B14844  20.968   4.636  12.654 -0.2202 -0.0779  0.0833
 1265DOPC   C4B14845  20.613   4.774  12.413 -0.0809 -0.0481  0.2231
 1266DOPC   NC314846  16.214   7.838  14.815 -0.0579 -0.3780 -0.0719
 1266DOPC   PO414847  15.956   7.547  14.742  0.1873 -0.0806 -0.0309
 1266DOPC   GL114848  15.920   7.576  14.324 -0.1801 -0.0365  0.1900
 1266DOPC   GL214849  15.656   7.455  14.292  0.0408 -0.1963 -0.3472
 1266DOPC   C1A14850  16.033   7.404  13.903 -0.0579  0.0772 -0.0025
 1266DOPC   D2A14851  16.108   7.262  13.520 -0.1419  0.1862 -0.0150
 1266DOPC   C3A14852  16.563   7.383  13.297 -0.2863 -0.0370 -0.1465
 1266DOPC   C4A14853  16.799   7.104  12.957  0.0799 -0.1983 -0.1067
 1266DOPC   C1B14854  15.495   7.540  13.892 -0.0039  0.1072  0.3469
 1266DOPC   D2B14855  15.473   7.735  13.484 -0.0066  0.0515 -0.0048
 1266DOPC   C3B14856  15.696   8.126  13.301 -0.2481 -0.1763 -0.1284
 1266DOPC   C4B14857  15.747   8.112  12.837 -0.2604 -0.1337  0.1211
 1267POSM   NC314858  12.014   8.057  15.108 -0.1045  0.0322  0.2039
 1267POSM   PO414859  12.127   8.381  15.294  0.2702  0.0395  0.2769
 1267POSM   AM114860  12.143   8.563  15.029  0.3060 -0.0631 -0.1343
 1267POSM   AM214861  12.168   8.846  14.977  0.0321  0.1569  0.2961
 1267POSM   T1A14862  12.122   8.672  14.538 -0.2485  0.0849  0.1615
 1267POSM   C2A14863  12.350   8.552  14.130 -0.0904  0.0643 -0.0355
 1267POSM   C3A14864  12.570   8.436  13.735 -0.0488 -0.2136  0.1925
 1267POSM   C1B14865  11.954   9.037  14.837  0.0451  0.0481 -0.0224
 1267POSM   D2B14866  11.702   9.424  14.772 -0.2405 -0.2503  0.1437
 1267POSM   C3B14867  11.940   9.859  14.617 -0.1917 -0.1370 -0.0847
 1267POSM   C4B14868  11.966  10.228  14.302 -0.0729  0.1530 -0.1264
 1268DOPC   NC314869  21.357   2.376  14.754  0.1465  0.1557  0.1414
 1268DOPC   PO414870  21.621   2.196  14.522 -0.0928  0.0019 -0.0345
 1268DOPC   GL114871  21.450   2.398  14.194 -0.2289  0.5826  0.2624
 1268DOPC   GL214872  21.512   2.256  13.931 -0.0578 -0.3473  0.0319
 1268DOPC   C1A14873  21.339   2.681  13.789 -0.0396 -0.2551 -0.0328
 1268DOPC   D2A14874  21.400   2.958  13.390 -0.1050  0.3660  0.0665
 1268DOPC   C3A14875  21.353   2.695  12.956 -0.0162  0.0999 -0.3022
 1268DOPC   C4A14876  21.220   2.225  12.864 -0.0897 -0.0919  0.2715
 1268DOPC   C1B14877  21.410   1.781  13.797 -0.2115  0.1322 -0.4517
 1268DOPC   D2B14878  21.531   1.315  13.868  0.0541 -0.2404  0.1721
 1268DOPC   C3B14879  21.437   0.982  13.567  0.2547  0.0765 -0.4862
 1268DOPC   C4B14880  21.125   0.779  13.272  0.2647 -0.0282  0.0115
 1269POSM   NC314881  11.262   7.572  14.720 -0.0944 -0.0208 -0.0889
 1269POSM   PO414882  11.625   7.425  14.721 -0.2405 -0.0777 -0.2575
 1269POSM   AM114883  11.689   7.273  14.457  0.1839 -0.1179  0.1034
 1269POSM   AM214884  11.576   7.264  14.211 -0.3242  0.1148 -0.2139
 1269POSM   T1A14885  12.046   7.116  14.102 -0.0104 -0.2299  0.1742
 1269POSM   C2A14886  12.403   7.099  13.765 -0.0973  0.2876 -0.1727
 1269POSM   C3A14887  12.739   6.861  13.494 -0.2701  0.1646 -0.1225
 1269POSM   C1B14888  11.546   7.609  14.087 -0.0670  0.2090 -0.3583
 1269POSM   D2B14889  11.693   8.035  14.010  0.1562  0.0443  0.1295
 1269POSM   C3B14890  11.450   8.273  13.738  0.1712 -0.3727 -0.0675
 1269POSM   C4B14891  11.115   8.568  13.646 -0.1192 -0.3832  0.0266
 1270DOPC   NC314892  14.667   3.372  13.851  0.1186  0.0160  0.1465
 1270DOPC   PO414893  14.858   3.658  14.047  0.1012 -0.1344  0.2158
 1270DOPC   GL114894  15.003   3.869  13.703 -0.2011 -0.0747  0.0124
 1270DOPC   GL214895  15.270   3.749  13.684 -0.2652  0.0219  0.0790
 1270DOPC   C1A14896  15.011   4.130  13.320 -0.0626 -0.0217  0.2800
 1270DOPC   D2A14897  15.089   4.151  12.855  0.0189  0.1287 -0.1634
 1270DOPC   C3A14898  14.706   4.270  12.587 -0.1763  0.0089  0.0873
 1270DOPC   C4A14899  14.358   4.396  12.391  0.0986  0.2552  0.2330
 1270DOPC   C1B14900  15.384   4.248  13.666 -0.0088  0.1127 -0.0016
 1270DOPC   D2B14901  15.776   4.403  13.868  0.2328  0.2180 -0.1438
 1270DOPC   C3B14902  16.183   4.338  13.717 -0.3310  0.2858 -0.0654
 1270DOPC   C4B14903  16.449   4.274  13.309  0.1455 -0.4149  0.1666
 1271POSM   NC314904  15.115   9.396  14.515  0.2054  0.1712 -0.1265
 1271POSM   PO414905  15.263   9.044  14.383 -0.1279 -0.2719 -0.0516
 1271POSM   AM114906  15.187   9.043  14.091  0.2887 -0.0248  0.0291
 1271POSM   AM214907  15.286   9.085  13.833 -0.0700 -0.1187 -0.1140
 1271POSM   T1A14908  14.830   9.192  13.776  0.0644  0.2658 -0.0433
 1271POSM   C2A14909  14.615   9.182  13.393  0.0368 -0.0522  0.3066
 1271POSM   C3A14910  14.191   9.361  13.279 -0.0524  0.3000 -0.0460
 1271POSM   C1B14911  15.242   9.120  13.440 -0.2128 -0.1949  0.1735
 1271POSM   D2B14912  15.282   8.999  13.018 -0.0403  0.3980  0.1721
 1271POSM   C3B14913  15.710   9.069  12.747 -0.1228 -0.2400 -0.3600
 1271POSM   C4B14914  15.977   8.913  12.385  0.1225 -0.0214  0.1164
 1272DOPE   NH314915  16.480   6.455  14.522  0.1715  0.0616 -0.1434
 1272DOPE   PO414916  16.762   6.265  14.522  0.0614 -0.1873  0.0378
 1272DOPE   GL114917  16.850   6.296  14.218  0.0546 -0.2446  0.2768
 1272DOPE   GL214918  16.944   6.455  14.123  0.1341 -0.0738 -0.3516
 1272DOPE   C1A14919  16.518   6.236  13.893 -0.1229  0.1769 -0.0584
 1272DOPE   D2A14920  16.631   6.097  13.457  0.1920  0.1555 -0.0594
 1272DOPE   C3A14921  16.278   5.767  13.354 -0.0891  0.0825  0.1162
 1272DOPE   C4A14922  16.152   5.400  13.098 -0.1722 -0.0610 -0.1195
 1272DOPE   C1B14923  16.821   6.558  13.682  0.2529  0.0439 -0.0657
 1272DOPE   D2B14924  16.804   6.612  13.255 -0.3112 -0.4508  0.1111
 1272DOPE   C3B14925  16.833   6.212  13.027  0.4196 -0.2398  0.4467
 1272DOPE   C4B14926  16.489   5.972  12.930 -0.0721  0.2311 -0.4203
 1273DOPC   NC314927  21.828  34.115  14.137 -0.2045 -0.1425  0.0536
 1273DOPC   PO414928  21.547  33.841  14.166 -0.0757 -0.2482  0.0901
 1273DOPC   GL114929  21.311  33.858  13.848 -0.0384 -0.0382 -0.2761
 1273DOPC   GL214930  21.382  34.137  13.787 -0.0695 -0.1930 -0.0029
 1273DOPC   C1A14931  21.203  33.528  13.577 -0.0494  0.0461  0.0469
 1273DOPC   D2A14932  20.880  33.509  13.208  0.1165  0.0742  0.0751
 1273DOPC   C3A14933  21.097  33.799  12.915 -0.0748  0.0824 -0.0959
 1273DOPC   C4A14934  21.053  33.722  12.418 -0.5557  0.0471  0.2476
 1273DOPC   C1B14935  21.209  34.021  13.383  0.1147  0.0855 -0.0890
 1273DOPC   D2B14936  21.105  34.351  13.111 -0.0430 -0.1778  0.3723
 1273DOPC   C3B14937  21.182  34.596  12.725  0.3128  0.1799 -0.2668
 1273DOPC   C4B14938  21.158  34.892  12.315 -0.0767  0.1376 -0.1802
 1274DOPC   NC314939  17.915  33.523  13.882 -0.0059 -0.2550 -0.0446
 1274DOPC   PO414940  17.640  33.542  14.174  0.1346 -0.1973  0.4303
 1274DOPC   GL114941  17.499  33.519  13.710  0.0980  0.0656 -0.3466
 1274DOPC   GL214942  17.267  33.368  13.655 -0.1433 -0.2706  0.3845
 1274DOPC   C1A14943  17.716  33.242  13.449  0.0688 -0.0355 -0.2083
 1274DOPC   D2A14944  17.944  32.975  13.108 -0.1274  0.2335 -0.0025
 1274DOPC   C3A14945  17.936  32.973  12.684 -0.1379 -0.1848 -0.0980
 1274DOPC   C4A14946  17.561  33.211  12.491 -0.1739 -0.1433 -0.0551
 1274DOPC   C1B14947  17.173  33.246  13.276 -0.0925  0.2036 -0.2069
 1274DOPC   D2B14948  17.025  33.045  12.861  0.1614  0.0373 -0.2907
 1274DOPC   C3B14949  16.678  32.853  12.688  0.1771  0.1583  0.0511
 1274DOPC   C4B14950  16.353  32.629  12.508  0.1178 -0.1903  0.1466
 1275DOPC   NC314951  15.617   6.175  14.106  0.4321 -0.2075 -0.0774
 1275DOPC   PO414952  15.529   5.851  14.294  0.0070  0.2201  0.2509
 1275DOPC   GL114953  15.164   5.979  14.168  0.0740 -0.1274  0.0454
 1275DOPC   GL214954  14.872   5.904  14.125  0.2597  0.0474  0.2490
 1275DOPC   C1A14955  15.212   6.012  13.698  0.0556 -0.2873 -0.1720
 1275DOPC   D2A14956  15.093   5.709  13.354  0.3292  0.2738  0.3035
 1275DOPC   C3A14957  15.164   5.996  12.983  0.2383 -0.2592 -0.1111
 1275DOPC   C4A14958  15.145   6.380  12.776  0.0127  0.0367 -0.1984
 1275DOPC   C1B14959  14.739   5.965  13.700  0.1387 -0.0695  0.1402
 1275DOPC   D2B14960  14.703   6.186  13.323  0.0322 -0.0223 -0.0303
 1275DOPC   C3B14961  14.811   6.628  13.180 -0.2163 -0.1319  0.1922
 1275DOPC   C4B14962  14.860   7.085  13.095  0.4080 -0.3893 -0.0071
 1276DOPC   NC314963  18.675   7.708  13.972  0.0984 -0.0352 -0.1888
 1276DOPC   PO414964  18.971   7.606  14.228 -0.1667 -0.0937 -0.0622
 1276DOPC   GL114965  19.153   7.358  14.010  0.1455 -0.1231 -0.1254
 1276DOPC   GL214966  18.878   7.225  13.834 -0.1490 -0.0360  0.1896
 1276DOPC   C1A14967  19.403   7.249  13.640  0.0109  0.3179 -0.3381
 1276DOPC   D2A14968  19.451   7.342  13.224  0.2735 -0.3328  0.0591
 1276DOPC   C3A14969  19.604   7.552  12.815 -0.2193  0.2278  0.0683
 1276DOPC   C4A14970  19.579   7.462  12.411  0.0831 -0.0993  0.1888
 1276DOPC   C1B14971  18.926   7.437  13.458  0.2091  0.0493  0.2888
 1276DOPC   D2B14972  19.054   7.586  13.017  0.0993  0.2504 -0.0015
 1276DOPC   C3B14973  18.802   7.774  12.678 -0.1414 -0.3664  0.2034
 1276DOPC   C4B14974  18.835   8.178  12.362  0.0557 -0.3738 -0.0628
 1277DOPS   CNO14975  20.462   5.712  14.030  0.3310  0.0324 -0.0634
 1277DOPS   PO414976  20.658   5.420  13.831  0.0816  0.1351  0.2909
 1277DOPS   GL114977  20.471   5.448  13.437  0.1179  0.0948  0.1594
 1277DOPS   GL214978  20.185   5.335  13.437  0.3042 -0.2153 -0.1405
 1277DOPS   C1A14979  20.772   5.462  13.084  0.0380 -0.0313  0.0352
 1277DOPS   D2A14980  21.077   5.310  12.793  0.0585  0.2525 -0.1238
 1277DOPS   C3A14981  20.827   5.276  12.434  0.1088 -0.2517  0.0274
 1277DOPS   C4A14982  20.642   5.505  12.016  0.0195  0.3668 -0.0128
 1277DOPS   C1B14983  20.231   5.582  13.054 -0.2590 -0.2105  0.3161
 1277DOPS   D2B14984  20.458   5.606  12.688 -0.0042 -0.2733  0.1229
 1277DOPS   C3B14985  20.745   5.862  12.398  0.5482  0.1469 -0.2975
 1277DOPS   C4B14986  20.899   6.298  12.431 -0.0398 -0.2665  0.0438
 1278DOPC   NC314987  19.106   2.731  14.978 -0.0951 -0.1137  0.0339
 1278DOPC   PO414988  19.224   3.119  14.850 -0.1642  0.3744 -0.1139
 1278DOPC   GL114989  19.005   3.278  14.562  0.1989 -0.2186 -0.2109
 1278DOPC   GL214990  19.082   3.231  14.253 -0.0322  0.2246  0.3550
 1278DOPC   C1A14991  18.632   3.313  14.221 -0.1173 -0.0818 -0.3876
 1278DOPC   D2A14992  18.519   3.327  13.737  0.4279 -0.0562  0.3655
 1278DOPC   C3A14993  18.143   3.275  13.433  0.2679 -0.0823  0.1093
 1278DOPC   C4A14994  18.018   3.455  13.039 -0.2498  0.5743  0.0874
 1278DOPC   C1B14995  19.033   3.392  13.777 -0.2218 -0.2760 -0.0714
 1278DOPC   D2B14996  18.932   3.686  13.418  0.1121  0.1665 -0.1307
 1278DOPC   C3B14997  18.591   3.406  13.132 -0.2136  0.0563 -0.0998
 1278DOPC   C4B14998  18.355   3.414  12.709  0.2261 -0.0502  0.0686
 1279DOPS   CNO14999  19.024   5.798  14.296 -0.2327 -0.1831 -0.1557
 1279DOPS   PO415000  19.047   5.479  14.098  0.2180 -0.1402  0.1453
 1279DOPS   GL115001  18.861   5.820  13.881 -0.0254  0.1261 -0.4190
 1279DOPS   GL215002  18.591   5.945  13.831  0.0496 -0.1096 -0.0553
 1279DOPS   C1A15003  18.848   5.988  13.414  0.0669 -0.0914  0.0938
 1279DOPS   D2A15004  18.569   6.245  13.219 -0.0091 -0.2255 -0.0840
 1279DOPS   C3A15005  18.356   6.448  12.898  0.0672 -0.1270 -0.1823
 1279DOPS   C4A15006  18.289   6.458  12.431  0.1086  0.0959  0.2630
 1279DOPS   C1B15007  18.306   6.245  13.634 -0.1478 -0.0316 -0.3967
 1279DOPS   D2B15008  18.181   6.647  13.463 -0.0987 -0.0821  0.2819
 1279DOPS   C3B15009  17.942   6.655  13.056 -0.3165 -0.1060 -0.1584
 1279DOPS   C4B15010  17.573   6.727  12.770  0.0008 -0.1385  0.0217
 1280POSM   NC315011  24.039  31.985  14.395 -0.0575 -0.0011  0.0487
 1280POSM   PO415012  23.774  31.882  14.081  0.0173  0.2708  0.3016
 1280POSM   AM115013  23.895  32.145  13.943 -0.0472  0.3032 -0.1486
 1280POSM   AM215014  23.993  32.204  13.712  0.3973  0.2779 -0.1251
 1280POSM   T1A15015  23.743  32.594  13.801  0.0450 -0.1869 -0.0035
 1280POSM   C2A15016  23.596  32.810  13.395 -0.0373 -0.0122  0.0483
 1280POSM   C3A15017  23.700  32.811  12.926  0.0694 -0.1529  0.0699
 1280POSM   C1B15018  24.233  32.193  13.505 -0.3334 -0.3016 -0.0716
 1280POSM   D2B15019  24.418  32.250  13.086  0.1054  0.3749  0.0315
 1280POSM   C3B15020  24.197  32.636  12.956  0.1866  0.1500  0.0919
 1280POSM   C4B15021  24.070  33.121  12.799  0.3126 -0.0456  0.0972
 1281DOPS   CNO15022  14.024   5.085  14.705  0.0247  0.0827 -0.1309
 1281DOPS   PO415023  14.229   4.786  14.848 -0.0548  0.2633  0.1032
 1281DOPS   GL115024  14.405   4.739  14.440  0.0354 -0.2628  0.2354
 1281DOPS   GL215025  14.259   4.515  14.246  0.2432  0.1482 -0.1211
 1281DOPS   C1A15026  14.539   4.796  13.961 -0.0364 -0.0207  0.1821
 1281DOPS   D2A15027  14.695   4.673  13.567 -0.0738 -0.0425  0.0979
 1281DOPS   C3A15028  14.921   4.365  13.814 -0.0372 -0.2822  0.2162
 1281DOPS   C4A15029  15.309   4.495  14.073  0.1033  0.1268  0.0828
 1281DOPS   C1B15030  14.395   4.349  13.814  0.1039  0.2272  0.0394
 1281DOPS   D2B15031  14.548   3.964  13.598 -0.0239  0.0331  0.1701
 1281DOPS   C3B15032  14.645   3.874  13.122 -0.0922  0.1170  0.3088
 1281DOPS   C4B15033  14.853   3.768  12.740  0.4556 -0.1867 -0.1058
 1282DOPS   CNO15034  10.808   0.362  14.438 -0.2802  0.3558  0.1493
 1282DOPS   PO415035  10.713   0.643  14.232  0.3142  0.0527  0.0529
 1282DOPS   GL115036  10.463   0.579  13.904  0.0927 -0.0696  0.2176
 1282DOPS   GL215037  10.584   0.370  13.827 -0.2826 -0.1546 -0.0847
 1282DOPS   C1A15038  10.497   0.848  13.538 -0.0522 -0.2719  0.1506
 1282DOPS   D2A15039  10.552   1.127  13.172 -0.1596 -0.4096 -0.1468
 1282DOPS   C3A15040  10.882   1.240  12.852  0.0510  0.0952 -0.1982
 1282DOPS   C4A15041  11.000   1.222  12.402 -0.2320  0.1113  0.0901
 1282DOPS   C1B15042  10.738   0.323  13.331 -0.3204 -0.0299 -0.3330
 1282DOPS   D2B15043  10.904   0.204  12.901 -0.1234  0.3256  0.2509
 1282DOPS   C3B15044  11.295   0.354  12.700  0.4208 -0.0417  0.0117
 1282DOPS   C4B15045  11.560   0.712  12.812 -0.0953 -0.0913  0.2260
 1283DOPE   NH315046  15.196   3.221  14.413 -0.3244 -0.1615 -0.3431
 1283DOPE   PO415047  15.364   2.944  14.344 -0.6502  0.0743  0.2457
 1283DOPE   GL115048  15.460   3.157  13.986 -0.3070 -0.0492  0.0869
 1283DOPE   GL215049  15.190   3.279  13.922 -0.2254 -0.1587  0.1093
 1283DOPE   C1A15050  15.611   3.322  13.527  0.2502 -0.0956 -0.4423
 1283DOPE   D2A15051  15.782   3.530  13.103 -0.4052  0.2092  0.1921
 1283DOPE   C3A15052  16.021   3.391  12.754  0.1482 -0.0369 -0.2077
 1283DOPE   C4A15053  16.112   3.165  12.429 -0.1308 -0.0651  0.1324
 1283DOPE   C1B15054  15.163   3.159  13.481 -0.0863 -0.0023 -0.3647
 1283DOPE   D2B15055  14.967   2.756  13.323 -0.3404  0.0754  0.1496
 1283DOPE   C3B15056  14.782   2.703  12.885 -0.1920 -0.2945 -0.0183
 1283DOPE   C4B15057  14.361   2.726  12.677 -0.1626 -0.0970  0.0947
 1284DOPE   NH315058  17.637   1.265  14.509 -0.0241 -0.3997  0.0762
 1284DOPE   PO415059  17.501   1.466  14.242  0.1121  0.1319 -0.3721
 1284DOPE   GL115060  17.734   1.208  13.997  0.4420  0.2903  0.2373
 1284DOPE   GL215061  17.582   1.024  13.932 -0.4167  0.0242  0.0453
 1284DOPE   C1A15062  18.038   1.152  13.672  0.2339 -0.0048 -0.2121
 1284DOPE   D2A15063  18.339   1.298  13.320  0.0425 -0.2445  0.0080
 1284DOPE   C3A15064  18.103   1.338  12.909  0.0255  0.3265 -0.0111
 1284DOPE   C4A15065  18.101   1.588  12.572 -0.1069  0.2404 -0.0166
 1284DOPE   C1B15066  17.541   1.310  13.589 -0.1821  0.1437 -0.1971
 1284DOPE   D2B15067  17.187   1.499  13.328 -0.0043  0.1781 -0.0334
 1284DOPE   C3B15068  17.063   1.414  12.868 -0.1863 -0.0359  0.1941
 1284DOPE   C4B15069  17.262   1.221  12.553 -0.0032 -0.0711 -0.0953
 1285DOPE   NH315070  22.121  10.213  13.992  0.1610 -0.2270  0.0141
 1285DOPE   PO415071  21.892  10.262  13.759 -0.1306  0.2515  0.4523
 1285DOPE   GL115072  21.926  10.379  13.398  0.4053 -0.1366  0.0219
 1285DOPE   GL215073  22.182  10.388  13.318 -0.0291  0.2667 -0.1036
 1285DOPE   C1A15074  21.775  10.366  12.969 -0.1324 -0.1284 -0.0142
 1285DOPE   D2A15075  21.949  10.573  12.572  0.0174  0.3579  0.3590
 1285DOPE   C3A15076  21.918  10.313  12.181 -0.1719  0.2452  0.0745
 1285DOPE   C4A15077  21.810  10.345  11.776  0.2477 -0.2061  0.3436
 1285DOPE   C1B15078  22.325  10.435  12.860  0.2141 -0.0019  0.1565
 1285DOPE   D2B15079  22.417  10.789  12.563 -0.0623  0.4379 -0.1727
 1285DOPE   C3B15080  22.701  10.684  12.240 -0.0835  0.1928 -0.0614
 1285DOPE   C4B15081  23.005  10.667  11.849 -0.1751  0.1412 -0.0098
 1286DOPC   NC315082  16.419   5.463  14.895 -0.2487  0.1016 -0.0512
 1286DOPC   PO415083  16.295   5.547  14.532 -0.1485  0.0698  0.1410
 1286DOPC   GL115084  16.218   5.591  14.160 -0.1020  0.0884  0.0980
 1286DOPC   GL215085  16.018   5.796  14.136 -0.0036  0.1781 -0.3050
 1286DOPC   C1A15086  16.054   5.518  13.731 -0.0522  0.1986 -0.1153
 1286DOPC   D2A15087  15.655   5.716  13.564  0.0619  0.0223 -0.0623
 1286DOPC   C3A15088  15.657   5.975  13.193 -0.0173  0.1252  0.0668
 1286DOPC   C4A15089  15.869   6.347  13.020  0.0817 -0.5443  0.0615
 1286DOPC   C1B15090  16.062   5.998  13.728 -0.0275 -0.1540 -0.1231
 1286DOPC   D2B15091  16.165   6.343  13.477  0.3527  0.2411  0.2955
 1286DOPC   C3B15092  16.340   6.449  13.029 -0.3199 -0.1705  0.0596
 1286DOPC   C4B15093  16.526   6.747  12.760  0.1857  0.1814 -0.1266
 1287DOPC   NC315094  24.642   5.305  14.240 -0.0969 -0.0049  0.1027
 1287DOPC   PO415095  24.667   5.026  13.957  0.0705  0.1569  0.2221
 1287DOPC   GL115096  24.676   4.936  13.613  0.0015 -0.4100  0.1957
 1287DOPC   GL215097  24.401   4.788  13.508  0.1499  0.2619 -0.0382
 1287DOPC   C1A15098  24.966   5.044  13.234 -0.0423 -0.2599  0.0402
 1287DOPC   D2A15099  25.295   5.423  13.133  0.1163  0.0191  0.1259
 1287DOPC   C3A15100  25.667   5.252  12.873 -0.0566 -0.2593 -0.2486
 1287DOPC   C4A15101  25.855   5.241  12.437 -0.1500 -0.1277 -0.1012
 1287DOPC   C1B15102  24.509   4.560  13.119  0.0001 -0.1318 -0.0875
 1287DOPC   D2B15103  24.558   4.453  12.720 -0.1934 -0.1778 -0.1350
 1287DOPC   C3B15104  24.302   4.103  12.537  0.1038  0.3047  0.3452
 1287DOPC   C4B15105  24.271   3.913  12.101 -0.1419 -0.1474  0.0194
 1288POSM   NC315106  13.466   4.412  14.395  0.0879 -0.0677  0.3198
 1288POSM   PO415107  13.633   4.469  14.039 -0.1203 -0.0904  0.0687
 1288POSM   AM115108  13.588   4.453  13.719 -0.4457  0.1168 -0.2111
 1288POSM   AM215109  13.380   4.474  13.538  0.3531  0.0705  0.3842
 1288POSM   T1A15110  13.922   4.365  13.267 -0.0726 -0.0251 -0.0008
 1288POSM   C2A15111  14.410   4.383  13.245  0.0941  0.0870 -0.0130
 1288POSM   C3A15112  14.820   4.564  13.090  0.1503 -0.4855  0.0248
 1288POSM   C1B15113  13.269   4.746  13.306  0.2831 -0.1256 -0.0716
 1288POSM   D2B15114  13.371   5.037  12.927  0.0073  0.0163 -0.2143
 1288POSM   C3B15115  13.749   5.049  12.683  0.0075  0.1285  0.3074
 1288POSM   C4B15116  14.169   5.153  12.645 -0.1375  0.1214  0.0838
 1289POSM   NC315117  13.024   9.527  14.592  0.4095 -0.0735 -0.0081
 1289POSM   PO415118  13.455   9.529  14.637  0.0006  0.0031  0.0826
 1289POSM   AM115119  13.457   9.365  14.340  0.1749 -0.1653 -0.2130
 1289POSM   AM215120  13.521   9.312  14.098  0.0866  0.0725 -0.3268
 1289POSM   T1A15121  13.066   9.157  14.126  0.1075 -0.2097 -0.0067
 1289POSM   C2A15122  12.935   8.768  14.315 -0.0386  0.3486 -0.0327
 1289POSM   C3A15123  12.709   8.427  14.448  0.0895 -0.1309  0.0202
 1289POSM   C1B15124  13.430   9.424  13.800 -0.0393  0.1065  0.1298
 1289POSM   D2B15125  13.585   9.421  13.369 -0.2125 -0.0304  0.0428
 1289POSM   C3B15126  13.726   9.204  12.938  0.6357  0.1770 -0.0012
 1289POSM   C4B15127  13.857   8.856  12.711 -0.1822  0.3013 -0.0743
 1290DOPE   NH315128  15.108  33.189  14.210  0.0187 -0.0974  0.3038
 1290DOPE   PO415129  15.050  33.054  13.919  0.1862 -0.0222  0.2324
 1290DOPE   GL115130  15.040  33.277  13.591  0.0971 -0.2528  0.1377
 1290DOPE   GL215131  15.145  33.225  13.325  0.0147  0.1732 -0.0660
 1290DOPE   C1A15132  14.688  33.452  13.267  0.2897  0.0016 -0.1833
 1290DOPE   D2A15133  14.614  33.877  13.109 -0.2504 -0.1076 -0.2684
 1290DOPE   C3A15134  14.811  33.943  12.726  0.0068  0.4585  0.2248
 1290DOPE   C4A15135  15.319  33.908  12.630 -0.0574  0.2879 -0.0351
 1290DOPE   C1B15136  14.779  32.977  13.095  0.1659 -0.2201  0.2676
 1290DOPE   D2B15137  14.391  32.933  12.829  0.1943 -0.1679  0.1677
 1290DOPE   C3B15138  14.229  33.233  12.488 -0.0178 -0.2685  0.0222
 1290DOPE   C4B15139  14.496  33.432  12.163 -0.0774 -0.0003  0.0691
 1291DOPE   NH315140  14.957   2.223  14.248 -0.1032  0.0605  0.1175
 1291DOPE   PO415141  14.740   2.485  14.215  0.1791 -0.3357  0.0593
 1291DOPE   GL115142  14.836   2.388  13.766 -0.5353 -0.1767  0.2633
 1291DOPE   GL215143  14.967   2.085  13.733 -0.1210  0.0654  0.1965
 1291DOPE   C1A15144  14.653   2.339  13.288  0.1218  0.0959  0.1155
 1291DOPE   D2A15145  14.487   2.145  12.876  0.2623 -0.0477 -0.0224
 1291DOPE   C3A15146  14.156   2.142  12.559  0.0465  0.1400  0.0950
 1291DOPE   C4A15147  13.855   1.944  12.302  0.1127 -0.2033 -0.1623
 1291DOPE   C1B15148  15.335   2.401  13.586 -0.1773  0.2933  0.1796
 1291DOPE   D2B15149  15.497   2.697  13.309  0.0693  0.4512 -0.2202
 1291DOPE   C3B15150  15.312   2.624  12.840 -0.1478  0.1592 -0.1189
 1291DOPE   C4B15151  15.218   2.534  12.430  0.1066 -0.2022  0.0349
 1292DOPE   NH315152  15.646  11.171  14.283  0.3904  0.0577 -0.0358
 1292DOPE   PO415153  15.561  11.308  14.047  0.1596 -0.3132  0.2040
 1292DOPE   GL115154  15.482  11.277  13.642  0.1425 -0.1674  0.0110
 1292DOPE   GL215155  15.648  11.459  13.552  0.2530 -0.4090  0.0934
 1292DOPE   C1A15156  15.521  11.058  13.213  0.0446 -0.0537 -0.1409
 1292DOPE   D2A15157  15.373  11.345  12.894 -0.0690 -0.2736 -0.0060
 1292DOPE   C3A15158  15.678  11.253  12.530  0.1373  0.1433 -0.2402
 1292DOPE   C4A15159  15.616  10.897  12.226 -0.3242 -0.2840 -0.0435
 1292DOPE   C1B15160  15.950  11.342  13.230  0.1331  0.0979 -0.4105
 1292DOPE   D2B15161  16.226  11.581  12.951  0.4008 -0.3751  0.1233
 1292DOPE   C3B15162  15.889  11.755  12.617 -0.1248 -0.1307 -0.0435
 1292DOPE   C4B15163  15.805  11.958  12.197 -0.1214  0.0184 -0.1380
 1293DOPC   NC315164  11.093  33.804  14.136 -0.0592  0.1794 -0.0992
 1293DOPC   PO415165  11.333  34.122  14.248  0.1661  0.1206  0.1741
 1293DOPC   GL115166  11.485  34.332  13.992 -0.3388  0.3726 -0.1138
 1293DOPC   GL215167  11.759  34.297  13.936  0.0879 -0.0480  0.1023
 1293DOPC   C1A15168  11.442  34.521  13.615 -0.2074  0.1626 -0.3802
 1293DOPC   D2A15169  11.776  34.488  13.339 -0.1735 -0.1011  0.0614
 1293DOPC   C3A15170  11.888  34.147  13.009  0.1527 -0.1014 -0.1999
 1293DOPC   C4A15171  12.193  33.946  12.725 -0.0595 -0.0192  0.4412
 1293DOPC   C1B15172  11.580  33.954  13.572  0.0361  0.1243 -0.0327
 1293DOPC   D2B15173  11.692  33.701  13.244  0.0528 -0.0096  0.0560
 1293DOPC   C3B15174  11.534  33.859  12.794  0.0044 -0.1840 -0.0213
 1293DOPC   C4B15175  11.294  34.297  12.637  0.2744 -0.2668  0.2167
 1294DOPC   NC315176  15.006   6.347  14.715  0.2290  0.2484  0.0414
 1294DOPC   PO415177  15.106   6.740  14.693 -0.2107 -0.0656  0.0255
 1294DOPC   GL115178  15.159   6.795  14.308  0.1502 -0.0870  0.2386
 1294DOPC   GL215179  15.487   6.723  14.274  0.1294 -0.1572 -0.4579
 1294DOPC   C1A15180  14.825   6.831  13.993  0.1180 -0.1445  0.2143
 1294DOPC   D2A15181  14.558   6.987  13.616  0.1044 -0.4251 -0.0018
 1294DOPC   C3A15182  14.383   6.603  13.379 -0.0364  0.0889 -0.0971
 1294DOPC   C4A15183  14.222   6.153  13.184 -0.0230  0.1596 -0.0256
 1294DOPC   C1B15184  15.361   6.505  13.875 -0.2548 -0.0028 -0.1177
 1294DOPC   D2B15185  15.697   6.483  13.519  0.1272 -0.0697  0.0088
 1294DOPC   C3B15186  15.918   6.757  13.299  0.0573  0.1612  0.0667
 1294DOPC   C4B15187  16.376   6.915  13.236  0.3054 -0.1115  0.0771
 1295POSM   NC315188  14.951  33.628  13.949 -0.1483  0.0495 -0.0199
 1295POSM   PO415189  15.288  33.833  13.978 -0.0322 -0.1135  0.3105
 1295POSM   AM115190  15.337  33.846  13.634 -0.0755 -0.2168 -0.2890
 1295POSM   AM215191  15.121  33.866  13.443  0.3828 -0.3269 -0.1037
 1295POSM   T1A15192  15.490  33.564  13.260  0.1054  0.1784 -0.0104
 1295POSM   C2A15193  15.819  33.500  12.928 -0.3691 -0.3175  0.0070
 1295POSM   C3A15194  16.079  33.728  12.677  0.0064  0.1022 -0.2352
 1295POSM   C1B15195  15.124  34.105  13.236  0.5654  0.2008  0.0819
 1295POSM   D2B15196  15.389  34.370  12.900  0.0128 -0.1823  0.0444
 1295POSM   C3B15197  15.180  34.384  12.502 -0.1614  0.0516  0.4830
 1295POSM   C4B15198  14.748  34.364  12.393 -0.2931 -0.1284 -0.2613
 1296DOPC   NC315199  15.623  10.840  13.760 -0.0340  0.0314  0.1224
 1296DOPC   PO415200  15.666  10.639  14.137  0.0702  0.2150 -0.2792
 1296DOPC   GL115201  15.430  10.403  14.052 -0.2012 -0.1498  0.2410
 1296DOPC   GL215202  15.290  10.445  13.811  0.0051  0.1334 -0.2023
 1296DOPC   C1A15203  15.294   9.987  13.993 -0.0817  0.0598 -0.1380
 1296DOPC   D2A15204  15.388   9.614  13.686 -0.0424 -0.0195  0.0567
 1296DOPC   C3A15205  14.960   9.563  13.446 -0.0281 -0.0164 -0.0876
 1296DOPC   C4A15206  14.946   9.471  13.000 -0.0144  0.1147  0.0129
 1296DOPC   C1B15207  15.470  10.268  13.378  0.2315 -0.0541 -0.3919
 1296DOPC   D2B15208  15.468  10.428  12.945 -0.0460  0.1790 -0.3145
 1296DOPC   C3B15209  15.087  10.236  12.749 -0.1181 -0.2143  0.0489
 1296DOPC   C4B15210  14.757   9.869  12.892  0.0082  0.2504 -0.0491
 1297DOPE   NH315211  21.453   1.470  14.333 -0.1166  0.0338  0.1141
 1297DOPE   PO415212  21.218   1.300  14.401 -0.2216  0.0204  0.2033
 1297DOPE   GL115213  21.045   1.279  14.076  0.0093  0.1514 -0.0049
 1297DOPE   GL215214  21.144   1.004  13.970 -0.1188 -0.0903  0.2928
 1297DOPE   C1A15215  21.051   1.436  13.633 -0.1280 -0.0719 -0.0207
 1297DOPE   D2A15216  21.183   1.348  13.232 -0.0750  0.1051 -0.2547
 1297DOPE   C3A15217  21.163   1.715  12.970 -0.1114 -0.0687  0.2128
 1297DOPE   C4A15218  20.893   1.891  12.687 -0.2089  0.1878 -0.0912
 1297DOPE   C1B15219  20.838   0.957  13.635 -0.1149  0.2387  0.0629
 1297DOPE   D2B15220  20.709   1.110  13.222  0.1715 -0.1172 -0.1254
 1297DOPE   C3B15221  21.012   1.081  12.775  0.0488  0.0153  0.0552
 1297DOPE   C4B15222  21.247   1.358  12.570 -0.2233  0.1489 -0.0201
 1298DOPC   NC315223  14.255   8.816  14.691 -0.1302  0.2943  0.1336
 1298DOPC   PO415224  14.646   8.916  14.771 -0.4805  0.1128 -0.1040
 1298DOPC   GL115225  14.677   8.864  14.446  0.0893  0.0683  0.7459
 1298DOPC   GL215226  14.741   9.143  14.234  0.1955  0.2136  0.1005
 1298DOPC   C1A15227  14.767   8.710  14.009 -0.0223 -0.5161  0.0477
 1298DOPC   D2A15228  15.114   8.582  13.732  0.1910 -0.0373 -0.0940
 1298DOPC   C3A15229  15.171   8.173  13.490  0.1961  0.1910 -0.1969
 1298DOPC   C4A15230  15.257   7.990  13.069 -0.2034 -0.0724 -0.0639
 1298DOPC   C1B15231  14.364   9.120  13.939  0.0790 -0.0050  0.0589
 1298DOPC   D2B15232  13.897   9.203  13.843 -0.2201 -0.0569  0.1197
 1298DOPC   C3B15233  13.830   8.999  13.443  0.1999  0.0462 -0.1128
 1298DOPC   C4B15234  14.123   8.844  13.100  0.0587 -0.0795  0.0580
 1299DOPE   NH315235  11.803  10.536  15.193 -0.3747  0.1325  0.1829
 1299DOPE   PO415236  11.775  10.209  15.266  0.2480  0.2821 -0.1224
 1299DOPE   GL115237  11.723   9.983  14.977 -0.5362 -0.3623  0.3881
 1299DOPE   GL215238  11.658  10.251  14.724 -0.3640  0.0295 -0.2043
 1299DOPE   C1A15239  11.331   9.830  14.818  0.1204 -0.0342  0.1703
 1299DOPE   D2A15240  11.085   9.603  14.466 -0.0822  0.0473 -0.1125
 1299DOPE   C3A15241  10.720   9.784  14.217 -0.0458 -0.1674  0.2046
 1299DOPE   C4A15242  10.311   9.751  14.038  0.3843  0.2234 -0.0689
 1299DOPE   C1B15243  11.519   9.957  14.380  0.0071 -0.0691 -0.1392
 1299DOPE   D2B15244  11.152   9.973  14.077 -0.2302 -0.1046 -0.2644
 1299DOPE   C3B15245  11.414   9.890  13.694  0.0827 -0.1108  0.1218
 1299DOPE   C4B15246  11.333   9.720  13.309 -0.0335 -0.0741 -0.0466
 1300DOPE   NH315247  18.667   0.558  14.481 -0.1757 -0.1286 -0.2029
 1300DOPE   PO415248  18.857   0.324  14.370  0.3341  0.0796  0.2213
 1300DOPE   GL115249  18.644   0.209  13.982 -0.0533  0.2668  0.0901
 1300DOPE   GL215250  18.556   0.002  13.875  0.0911 -0.0400 -0.0478
 1300DOPE   C1A15251  18.652   0.402  13.567 -0.1041  0.0806  0.3146
 1300DOPE   D2A15252  18.760   0.561  13.113 -0.1221 -0.3203  0.2567
 1300DOPE   C3A15253  18.800   0.303  12.770 -0.0293  0.2467 -0.1003
 1300DOPE   C4A15254  18.808   0.120  12.347 -0.0665  0.1294 -0.3262
 1300DOPE   C1B15255  18.408  -0.054  13.484 -0.1234 -0.0406 -0.1978
 1300DOPE   D2B15256  18.420   0.212  13.148 -0.1160 -0.1425 -0.2288
 1300DOPE   C3B15257  18.128   0.288  12.876  0.1471  0.0529  0.0825
 1300DOPE   C4B15258  17.807   0.247  12.459  0.1017  0.1642 -0.0427
 1301DOPC   NC315259  13.206   1.271  13.724  0.0323 -0.1451 -0.0551
 1301DOPC   PO415260  13.575   1.406  13.751  0.1895 -0.3013 -0.2068
 1301DOPC   GL115261  13.451   1.274  13.339 -0.0126  0.1740 -0.0374
 1301DOPC   GL215262  13.397   1.526  13.287  0.1505 -0.0653 -0.1394
 1301DOPC   C1A15263  13.679   1.051  13.007  0.1626 -0.0147  0.3061
 1301DOPC   D2A15264  13.750   0.699  12.782  0.1923  0.2947  0.3007
 1301DOPC   C3A15265  13.746   0.729  12.348 -0.2542 -0.0759 -0.1302
 1301DOPC   C4A15266  13.582   0.285  12.186  0.1301 -0.0752 -0.0690
 1301DOPC   C1B15267  13.325   1.929  13.059  0.3068  0.1381  0.1822
 1301DOPC   D2B15268  13.464   2.038  12.572 -0.1038 -0.4106 -0.3789
 1301DOPC   C3B15269  13.392   1.873  12.155  0.0925 -0.2119  0.0800
 1301DOPC   C4B15270  13.341   1.486  11.955 -0.0047 -0.1126  0.3555
 1302DOPC   NC315271  14.690   1.612  13.835  0.0139  0.3010  0.0085
 1302DOPC   PO415272  15.002   1.733  14.104 -0.0905 -0.2162  0.2155
 1302DOPC   GL115273  15.250   1.652  13.759 -0.0259  0.0333 -0.2214
 1302DOPC   GL215274  15.175   1.392  13.613 -0.3378 -0.1194 -0.1236
 1302DOPC   C1A15275  15.162   1.832  13.328 -0.0226 -0.1012 -0.1242
 1302DOPC   D2A15276  15.329   1.781  12.910 -0.1811  0.0358 -0.1378
 1302DOPC   C3A15277  15.221   1.663  12.488 -0.1250 -0.2674 -0.0538
 1302DOPC   C4A15278  15.167   1.293  12.232 -0.3230 -0.0675 -0.0848
 1302DOPC   C1B15279  15.224   1.361  13.177  0.0374  0.0728  0.2242
 1302DOPC   D2B15280  15.074   1.277  12.737 -0.0996  0.0870  0.1214
 1302DOPC   C3B15281  14.760   1.003  12.530  0.3246 -0.3560 -0.0611
 1302DOPC   C4B15282  14.638   0.574  12.363 -0.1923  0.0333 -0.2524
 1303DOPC   NC315283  22.576   9.887  14.604 -0.1698  0.0239 -0.2919
 1303DOPC   PO415284  22.350  10.140  14.449  0.1898  0.1520  0.1562
 1303DOPC   GL115285  22.608  10.058  14.021  0.0892  0.1400 -0.0329
 1303DOPC   GL215286  22.664   9.804  14.070 -0.1019 -0.0460 -0.0573
 1303DOPC   C1A15287  22.578  10.157  13.580  0.2555  0.0327 -0.1647
 1303DOPC   D2A15288  22.646  10.528  13.304  0.1291 -0.0121  0.0995
 1303DOPC   C3A15289  22.774  10.764  12.902 -0.4148  0.5625  0.1430
 1303DOPC   C4A15290  22.803  11.028  12.544 -0.0761  0.0812 -0.2536
 1303DOPC   C1B15291  22.375   9.696  13.750 -0.0278  0.2261  0.0612
 1303DOPC   D2B15292  22.044   9.928  13.474  0.1459  0.3179  0.0020
 1303DOPC   C3B15293  22.104  10.011  13.022  0.1732  0.2046 -0.0447
 1303DOPC   C4B15294  22.088  10.033  12.598 -0.2394 -0.2761 -0.1416
 1304DOPC   NC315295  12.669  34.475  13.921 -0.1717  0.2019  0.0261
 1304DOPC   PO415296  12.352  34.429  14.146  0.0367 -0.0395 -0.0524
 1304DOPC   GL115297  12.194  34.122  13.974  0.0417  0.1266  0.0128
 1304DOPC   GL215298  12.439  33.975  14.037  0.1259  0.0765 -0.1253
 1304DOPC   C1A15299  12.050  34.065  13.557 -0.1893  0.4254  0.1062
 1304DOPC   D2A15300  12.250  33.830  13.208 -0.0161 -0.0059 -0.1325
 1304DOPC   C3A15301  12.078  33.534  12.927 -0.0042 -0.0966  0.0849
 1304DOPC   C4A15302  11.649  33.377  12.646  0.0767 -0.0787 -0.3838
 1304DOPC   C1B15303  12.659  34.051  13.632  0.0207 -0.4592 -0.1920
 1304DOPC   D2B15304  12.780  33.837  13.283  0.1357 -0.0519  0.0280
 1304DOPC   C3B15305  12.599  33.425  13.116 -0.0392  0.2813 -0.0555
 1304DOPC   C4B15306  12.559  33.437  12.635  0.0706 -0.0490 -0.0373
 1305DOPC   NC315307  17.649   1.954  14.253  0.3819  0.2578  0.3137
 1305DOPC   PO415308  17.909   1.729  14.441 -0.1458 -0.1711 -0.2145
 1305DOPC   GL115309  18.122   1.822  14.163  0.3699 -0.1985  0.4950
 1305DOPC   GL215310  18.030   1.573  13.996 -0.1882 -0.0717  0.0264
 1305DOPC   C1A15311  18.425   1.811  13.813 -0.4761 -0.0769  0.1730
 1305DOPC   D2A15312  18.531   1.859  13.391  0.1292 -0.1753 -0.1915
 1305DOPC   C3A15313  18.718   2.134  13.077  0.1881  0.2619 -0.0308
 1305DOPC   C4A15314  19.117   2.213  12.932  0.4553 -0.1732  0.3572
 1305DOPC   C1B15315  18.074   1.608  13.551 -0.0119 -0.1922  0.0417
 1305DOPC   D2B15316  18.072   1.775  13.100  0.1404  0.4741 -0.1348
 1305DOPC   C3B15317  18.502   1.610  12.921 -0.0562 -0.2346 -0.0718
 1305DOPC   C4B15318  18.486   1.290  12.610 -0.0068  0.1886 -0.1427
 1306DOPE   NH315319  22.386   7.182  14.220  0.3547  0.1761 -0.0974
 1306DOPE   PO415320  22.450   6.901  14.039 -0.1677  0.1734  0.2414
 1306DOPE   GL115321  22.492   6.827  13.605 -0.2498 -0.2764 -0.1353
 1306DOPE   GL215322  22.184   6.694  13.529 -0.0742 -0.1137 -0.0318
 1306DOPE   C1A15323  22.371   7.073  13.256 -0.1210  0.0992  0.1401
 1306DOPE   D2A15324  22.334   7.539  13.084 -0.2931  0.0611  0.0629
 1306DOPE   C3A15325  22.385   7.497  12.612 -0.1029 -0.3321 -0.0043
 1306DOPE   C4A15326  22.220   7.607  12.198  0.0529  0.1340 -0.0943
 1306DOPE   C1B15327  22.200   6.656  13.081  0.0419  0.1859  0.2626
 1306DOPE   D2B15328  22.063   6.460  12.675  0.0177 -0.2459 -0.2071
 1306DOPE   C3B15329  22.349   6.632  12.397 -0.4373  0.1600  0.1317
 1306DOPE   C4B15330  22.398   7.117  12.232  0.0336 -0.0068  0.1129
 1307DOPE   NH315331  21.620   7.685  14.092 -0.1901  0.0395  0.3836
 1307DOPE   PO415332  21.596   7.407  13.913  0.1031 -0.0862  0.2873
 1307DOPE   GL115333  21.460   7.372  13.513  0.1047  0.4089 -0.5026
 1307DOPE   GL215334  21.678   7.301  13.392  0.0056  0.1222 -0.1586
 1307DOPE   C1A15335  21.186   7.036  13.342 -0.2536  0.1577 -0.0410
 1307DOPE   D2A15336  21.004   6.672  13.119  0.0856 -0.0062  0.0146
 1307DOPE   C3A15337  21.107   6.788  12.719  0.2107 -0.0520  0.0650
 1307DOPE   C4A15338  21.249   6.615  12.330  0.0946  0.1634  0.1772
 1307DOPE   C1B15339  21.799   7.503  13.022 -0.1188  0.1392  0.1535
 1307DOPE   D2B15340  21.468   7.745  12.792 -0.1137 -0.1377  0.2589
 1307DOPE   C3B15341  21.610   8.172  12.796  0.1118 -0.3423  0.1000
 1307DOPE   C4B15342  21.532   8.579  12.928 -0.0433  0.2263  0.2116
 1308POSM   NC315343  17.264   6.440  14.550 -0.1029 -0.1351  0.0213
 1308POSM   PO415344  17.622   6.584  14.480 -0.3190 -0.2863  0.5180
 1308POSM   AM115345  17.513   6.629  14.181 -0.3347 -0.0375 -0.1870
 1308POSM   AM215346  17.359   6.867  14.116 -0.1732 -0.1319 -0.1826
 1308POSM   T1A15347  17.612   6.683  13.692 -0.0436 -0.2341  0.0649
 1308POSM   C2A15348  17.510   6.478  13.274  0.0586  0.2540 -0.0144
 1308POSM   C3A15349  17.375   6.149  12.917  0.0871  0.2083 -0.1140
 1308POSM   C1B15350  17.117   6.901  13.880 -0.3019 -0.1104  0.4179
 1308POSM   D2B15351  16.982   7.051  13.425  0.0451  0.1167  0.1696
 1308POSM   C3B15352  17.230   6.861  13.137  0.2564 -0.1508  0.2739
 1308POSM   C4B15353  17.024   6.616  12.812 -0.2462 -0.2376  0.2382
 1309DOPC   NC315354  20.873  33.807  13.857 -0.2724  0.0775 -0.0399
 1309DOPC   PO415355  20.511  33.657  13.947 -0.2929 -0.1015 -0.1047
 1309DOPC   GL115356  20.272  33.722  13.575  0.0496 -0.0096  0.1388
 1309DOPC   GL215357  20.367  33.555  13.360  0.2253  0.2403 -0.3801
 1309DOPC   C1A15358  20.185  34.058  13.289  0.0273 -0.0760  0.2339
 1309DOPC   D2A15359  20.238  34.409  13.029  0.3426  0.3536 -0.6131
 1309DOPC   C3A15360  20.095  34.600  12.664  0.3368  0.1506 -0.1594
 1309DOPC   C4A15361  19.890  34.393  12.322  0.4228 -0.1303  0.2596
 1309DOPC   C1B15362  20.012  33.293  13.278  0.0671 -0.0702  0.0084
 1309DOPC   D2B15363  19.550  33.392  13.141 -0.0909  0.0704 -0.1175
 1309DOPC   C3B15364  19.239  33.438  13.500  0.2168  0.0426 -0.1530
 1309DOPC   C4B15365  18.960  33.756  13.726 -0.0740 -0.1389 -0.2230
 1310POSM   NC315366  15.020   0.780  14.275  0.0173 -0.0322  0.2000
 1310POSM   PO415367  15.021   0.454  14.116  0.1764  0.0363  0.1024
 1310POSM   AM115368  15.158   0.585  13.842  0.3406 -0.2745  0.0164
 1310POSM   AM215369  15.158   0.882  13.777  0.2416  0.0007 -0.5056
 1310POSM   T1A15370  14.967   0.511  13.360  0.0440  0.1554 -0.2084
 1310POSM   C2A15371  14.869   0.342  12.943  0.1921  0.2964  0.1529
 1310POSM   C3A15372  14.643   0.070  12.635 -0.2491  0.0824  0.0036
 1310POSM   C1B15373  15.147   0.943  13.447 -0.0783 -0.2587  0.0020
 1310POSM   D2B15374  14.910   0.982  13.049  0.2205  0.3896  0.2867
 1310POSM   C3B15375  15.157   0.768  12.693  0.2084 -0.2170  0.1048
 1310POSM   C4B15376  15.488   0.530  12.409 -0.1093 -0.3288 -0.2708
 1311POSM   NC315377  12.671   8.736  14.892 -0.0486 -0.1605  0.0172
 1311POSM   PO415378  12.871   9.044  14.804  0.0642 -0.2889  0.2431
 1311POSM   AM115379  12.660   9.195  14.605  0.1709 -0.0427  0.2673
 1311POSM   AM215380  12.409   9.085  14.533 -0.0021 -0.0281  0.0519
 1311POSM   T1A15381  12.219   9.484  14.485  0.2333 -0.1361  0.2324
 1311POSM   C2A15382  11.861   9.587  14.233  0.1158  0.0986  0.0140
 1311POSM   C3A15383  11.475   9.483  14.133 -0.1649 -0.3583  0.1037
 1311POSM   C1B15384  12.539   9.074  14.195 -0.0539  0.0574  0.0128
 1311POSM   D2B15385  12.753   8.966  13.790  0.4327  0.0838 -0.3563
 1311POSM   C3B15386  12.654   8.841  13.378  0.0605 -0.0123  0.1638
 1311POSM   C4B15387  12.801   9.027  12.958 -0.1637  0.1144 -0.0793
 1312DOPS   CNO15388  18.199   5.436  14.202  0.2485 -0.1123 -0.2332
 1312DOPS   PO415389  18.154   5.321  13.829 -0.1232 -0.2243  0.3543
 1312DOPS   GL115390  18.420   5.543  13.702  0.3093  0.0044 -0.1194
 1312DOPS   GL215391  18.704   5.467  13.630 -0.3364 -0.2816  0.0107
 1312DOPS   C1A15392  18.273   5.848  13.402 -0.3380 -0.1535 -0.0728
 1312DOPS   D2A15393  18.307   5.900  12.929  0.6148 -0.2259 -0.0264
 1312DOPS   C3A15394  18.704   6.002  12.782  0.0181  0.1315  0.0930
 1312DOPS   C4A15395  19.142   6.045  12.960  0.0176  0.0085 -0.1001
 1312DOPS   C1B15396  18.654   5.597  13.177  0.0811 -0.2300  0.1053
 1312DOPS   D2B15397  18.539   5.505  12.757  0.1303  0.3664 -0.2238
 1312DOPS   C3B15398  18.374   5.759  12.475  0.1543 -0.0228 -0.1154
 1312DOPS   C4B15399  18.046   6.041  12.252 -0.1852  0.0560 -0.3685
 1313DOPC   NC315400  17.122   7.979  14.517 -0.0094  0.1638  0.1303
 1313DOPC   PO415401  16.900   8.284  14.541 -0.3422  0.1768 -0.0200
 1313DOPC   GL115402  16.691   8.274  14.250 -0.0655  0.0495 -0.2109
 1313DOPC   GL215403  16.375   8.283  14.348  0.2548 -0.2735  0.0683
 1313DOPC   C1A15404  16.630   8.371  13.802 -0.1759  0.2967  0.0420
 1313DOPC   D2A15405  16.522   8.594  13.440  0.0972  0.2651  0.2765
 1313DOPC   C3A15406  16.641   8.555  13.001  0.1949  0.1559 -0.0489
 1313DOPC   C4A15407  16.810   8.215  12.763 -0.0452  0.0979 -0.0656
 1313DOPC   C1B15408  16.253   8.094  13.892 -0.1487 -0.0687 -0.0438
 1313DOPC   D2B15409  16.044   8.346  13.527  0.1435 -0.0896  0.0361
 1313DOPC   C3B15410  16.208   8.280  13.121  0.0128  0.0219 -0.1214
 1313DOPC   C4B15411  16.338   8.214  12.717  0.0743 -0.1465  0.0190
 1314DOPE   NH315412  15.723   7.946  14.485 -0.1826 -0.1940 -0.2637
 1314DOPE   PO415413  15.949   8.156  14.578 -0.0731  0.0416 -0.0328
 1314DOPE   GL115414  15.698   8.323  14.264 -0.1419  0.0944 -0.0459
 1314DOPE   GL215415  15.888   8.376  14.082  0.0185 -0.0775 -0.0319
 1314DOPE   C1A15416  15.609   8.132  13.823  0.1724 -0.0773 -0.3106
 1314DOPE   D2A15417  15.910   7.849  13.633  0.1091  0.3067  0.0291
 1314DOPE   C3A15418  16.236   7.743  13.335 -0.0371 -0.1119 -0.1618
 1314DOPE   C4A15419  16.574   7.792  13.019  0.1679 -0.2396  0.0390
 1314DOPE   C1B15420  15.648   8.668  13.862  0.0718  0.1037 -0.1459
 1314DOPE   D2B15421  15.560   8.606  13.434 -0.5624  0.1426 -0.3815
 1314DOPE   C3B15422  15.290   8.498  13.094  0.3717 -0.0105 -0.2836
 1314DOPE   C4B15423  15.180   8.303  12.688  0.0633 -0.0516 -0.0865
 1315DOPE   NH315424  16.024   2.869  14.569  0.2934  0.1583 -0.3501
 1315DOPE   PO415425  15.978   3.079  14.363 -0.0780  0.0252  0.1419
 1315DOPE   GL115426  16.005   3.165  13.997 -0.1688  0.0044  0.0441
 1315DOPE   GL215427  15.868   3.351  13.915  0.1600 -0.1256 -0.1782
 1315DOPE   C1A15428  15.975   2.891  13.627  0.0043 -0.0066  0.0579
 1315DOPE   D2A15429  15.886   3.014  13.163  0.0278 -0.1933 -0.1157
 1315DOPE   C3A15430  15.483   3.187  13.046  0.0956  0.1841  0.0190
 1315DOPE   C4A15431  15.374   3.497  12.740  0.0561 -0.3373 -0.2227
 1315DOPE   C1B15432  16.051   3.376  13.481 -0.0263  0.0312  0.0555
 1315DOPE   D2B15433  16.372   3.355  13.117  0.2049 -0.0591  0.2184
 1315DOPE   C3B15434  16.487   3.812  13.047 -0.1030 -0.0259 -0.0648
 1315DOPE   C4B15435  16.787   4.181  12.997  0.0322 -0.2418  0.1690
 1316DOPC   NC315436  19.245   1.341  14.058  0.0596 -0.1220 -0.1945
 1316DOPC   PO415437  19.143   0.964  13.936  0.1203  0.1246 -0.2321
 1316DOPC   GL115438  19.314   0.934  13.544  0.1689  0.0898 -0.1663
 1316DOPC   GL215439  19.216   1.280  13.529 -0.0259  0.1971  0.1137
 1316DOPC   C1A15440  19.643   0.709  13.306  0.2049 -0.1956  0.0913
 1316DOPC   D2A15441  20.007   0.874  13.123 -0.3230 -0.3230 -0.2308
 1316DOPC   C3A15442  20.266   1.266  13.097 -0.0726 -0.0388  0.0620
 1316DOPC   C4A15443  20.415   1.454  13.534 -0.1526  0.0342  0.0663
 1316DOPC   C1B15444  19.168   1.702  13.535  0.1883  0.0234  0.1109
 1316DOPC   D2B15445  18.910   2.079  13.610 -0.3950 -0.0058 -0.2201
 1316DOPC   C3B15446  18.533   2.387  13.433  0.3787 -0.4053 -0.1089
 1316DOPC   C4B15447  18.210   2.331  13.052  0.1175  0.1333  0.1310
 1317POSM   NC315448  18.308   7.713  14.327  0.0863  0.1746 -0.0923
 1317POSM   PO415449  18.110   7.402  14.380 -0.1020 -0.1792  0.4027
 1317POSM   AM115450  18.129   7.363  14.043  0.2052 -0.2206  0.3482
 1317POSM   AM215451  18.360   7.363  13.814 -0.4839 -0.3399 -0.1897
 1317POSM   T1A15452  17.937   7.529  13.579 -0.0802 -0.1506 -0.4003
 1317POSM   C2A15453  18.076   7.662  13.191 -0.2848  0.1496  0.4139
 1317POSM   C3A15454  18.340   7.871  12.914  0.1371 -0.0433  0.2007
 1317POSM   C1B15455  18.440   7.527  13.529  0.1717  0.0172 -0.4433
 1317POSM   D2B15456  18.539   7.487  13.112  0.2275  0.1071 -0.1472
 1317POSM   C3B15457  18.736   7.073  13.006  0.1309  0.0094 -0.1551
 1317POSM   C4B15458  18.901   6.617  13.008  0.1066  0.0988 -0.0152
 1318POSM   NC315459  14.711   9.340  14.997 -0.0415  0.2902  0.1349
 1318POSM   PO415460  14.649   9.512  14.661 -0.0351 -0.2881 -0.0359
 1318POSM   AM115461  14.417   9.404  14.485  0.1377  0.2190  0.3275
 1318POSM   AM215462  14.176   9.186  14.435 -0.0411  0.2400 -0.0892
 1318POSM   T1A15463  14.113   9.577  14.111  0.1852 -0.0603  0.0701
 1318POSM   C2A15464  13.917   9.695  13.759 -0.1399 -0.0998  0.0297
 1318POSM   C3A15465  13.922   9.808  13.308 -0.2037 -0.1215  0.0986
 1318POSM   C1B15466  13.880   9.018  14.285 -0.3200 -0.1733 -0.0177
 1318POSM   D2B15467  13.517   8.862  14.038  0.1125 -0.0227 -0.2545
 1318POSM   C3B15468  13.299   8.983  13.655 -0.3601  0.3819  0.0820
 1318POSM   C4B15469  13.017   9.165  13.364 -0.3034 -0.2750  0.2060
 1319DOPC   NC315470  22.442  12.266  14.007 -0.2275 -0.0515 -0.0633
 1319DOPC   PO415471  22.682  12.539  13.776 -0.2819 -0.2231 -0.0493
 1319DOPC   GL115472  22.569  12.594  13.383  0.0097 -0.2173  0.3443
 1319DOPC   GL215473  22.724  12.438  13.263 -0.1279  0.1770 -0.2407
 1319DOPC   C1A15474  22.391  12.750  13.007  0.1870 -0.2545 -0.0051
 1319DOPC   D2A15475  22.017  12.738  12.750 -0.2708 -0.1034  0.0365
 1319DOPC   C3A15476  21.729  12.439  12.563  0.2424  0.0025 -0.0877
 1319DOPC   C4A15477  21.734  12.084  12.298  0.1432  0.0832  0.1008
 1319DOPC   C1B15478  22.540  12.189  13.040  0.1342 -0.1014  0.2260
 1319DOPC   D2B15479  22.175  11.932  13.082 -0.0394 -0.2021  0.0741
 1319DOPC   C3B15480  22.074  11.753  12.677  0.3369  0.0442  0.2785
 1319DOPC   C4B15481  22.027  11.670  12.226  0.0765  0.0557  0.0047
 1320DOPS   CNO15482  17.603   6.089  14.742  0.0605  0.0236  0.0325
 1320DOPS   PO415483  17.448   5.796  14.595  0.1266  0.0059 -0.3128
 1320DOPS   GL115484  17.280   5.753  14.189 -0.0307  0.2816  0.4121
 1320DOPS   GL215485  17.070   5.896  14.275 -0.0434  0.1793 -0.0556
 1320DOPS   C1A15486  17.473   5.865  13.754  0.1550 -0.1352 -0.1488
 1320DOPS   D2A15487  17.726   5.759  13.369  0.3070  0.0910  0.1291
 1320DOPS   C3A15488  17.587   5.690  12.922 -0.1990  0.1868 -0.1170
 1320DOPS   C4A15489  17.593   5.923  12.552 -0.0099 -0.0741  0.1651
 1320DOPS   C1B15490  16.906   5.895  13.855  0.1750  0.1905  0.0428
 1320DOPS   D2B15491  16.524   5.714  13.746  0.2439 -0.0472  0.0451
 1320DOPS   C3B15492  16.520   5.253  13.636  0.4716 -0.1828 -0.3555
 1320DOPS   C4B15493  16.104   5.009  13.514  0.1722 -0.0324 -0.0845
 1321DOPE   NH315494  25.276   4.311  14.038 -0.0441 -0.1496  0.0037
 1321DOPE   PO415495  24.977   4.297  13.974  0.1179  0.0658  0.1381
 1321DOPE   GL115496  24.829   4.440  13.584 -0.1963 -0.1270  0.1035
 1321DOPE   GL215497  24.689   4.235  13.490  0.2760 -0.1516  0.2236
 1321DOPE   C1A15498  25.049   4.549  13.167  0.1856 -0.2303  0.1086
 1321DOPE   D2A15499  25.318   4.444  12.756 -0.2305  0.1081  0.2257
 1321DOPE   C3A15500  25.659   4.156  12.723 -0.2505 -0.0267  0.1898
 1321DOPE   C4A15501  26.144   4.065  12.728 -0.0271  0.1054 -0.0253
 1321DOPE   C1B15502  24.595   3.991  13.092  0.0545  0.0939  0.1698
 1321DOPE   D2B15503  24.728   3.847  12.669  0.1057  0.0123  0.1847
 1321DOPE   C3B15504  24.564   3.565  12.313  0.4103  0.0288 -0.1160
 1321DOPE   C4B15505  24.198   3.373  12.055  0.0282 -0.0714 -0.0579
 1322DOPS   CNO15506  16.442   7.069  14.190 -0.1924  0.1155  0.3027
 1322DOPS   PO415507  16.471   7.351  14.449  0.1196  0.1123 -0.0107
 1322DOPS   GL115508  16.837   7.534  14.274  0.3074  0.0640 -0.3130
 1322DOPS   GL215509  16.989   7.277  14.167 -0.2919  0.4168  0.1982
 1322DOPS   C1A15510  16.888   7.864  13.966  0.0899  0.0773  0.0673
 1322DOPS   D2A15511  17.201   8.196  14.035  0.2299 -0.2010 -0.2944
 1322DOPS   C3A15512  17.181   8.163  13.579 -0.0267 -0.2707  0.0080
 1322DOPS   C4A15513  16.901   8.277  13.277  0.0456 -0.4837 -0.0920
 1322DOPS   C1B15514  17.068   7.450  13.733 -0.3661 -0.2464  0.0742
 1322DOPS   D2B15515  16.959   7.684  13.356 -0.3037  0.1834  0.3050
 1322DOPS   C3B15516  17.172   7.941  13.023 -0.0365 -0.0888  0.2561
 1322DOPS   C4B15517  17.340   7.909  12.542 -0.0009 -0.1933 -0.0079
 1323DOPS   CNO15518  12.702   3.165  13.441  0.3042  0.2164  0.0019
 1323DOPS   PO415519  13.040   3.052  13.545  0.3133  0.0165 -0.0741
 1323DOPS   GL115520  12.990   3.136  13.044  0.1506  0.2474 -0.0412
 1323DOPS   GL215521  13.251   3.113  13.007 -0.2435  0.0991 -0.0280
 1323DOPS   C1A15522  12.683   3.285  12.716 -0.2280 -0.1004 -0.3643
 1323DOPS   D2A15523  12.654   3.415  12.317 -0.0468 -0.0506 -0.1794
 1323DOPS   C3A15524  12.520   3.301  11.879  0.2115 -0.3605 -0.1935
 1323DOPS   C4A15525  12.228   3.306  11.477 -0.1610  0.3106  0.1195
 1323DOPS   C1B15526  12.987   2.846  12.718  0.0843  0.1028  0.1104
 1323DOPS   D2B15527  13.070   2.831  12.268 -0.0695  0.0133  0.0493
 1323DOPS   C3B15528  13.004   3.155  11.994 -0.2854 -0.2891 -0.0960
 1323DOPS   C4B15529  12.915   3.466  11.658 -0.0080  0.1119  0.0752
 1324POSM   NC315530  14.104   6.702  14.568 -0.3573  0.0373  0.0260
 1324POSM   PO415531  13.847   6.983  14.631  0.0749  0.4390 -0.3840
 1324POSM   AM115532  13.846   7.052  14.310  0.3544  0.0037 -0.0564
 1324POSM   AM215533  13.751   7.324  14.202 -0.0256 -0.1116  0.0904
 1324POSM   T1A15534  14.006   6.944  13.830  0.1955  0.1262 -0.0829
 1324POSM   C2A15535  13.998   6.988  13.350  0.0022  0.1167 -0.0871
 1324POSM   C3A15536  14.335   7.051  13.043  0.0759  0.1495  0.0634
 1324POSM   C1B15537  13.701   7.381  13.892  0.0363 -0.1816 -0.0155
 1324POSM   D2B15538  13.669   7.451  13.427 -0.0204  0.2602  0.1058
 1324POSM   C3B15539  13.916   7.421  13.035  0.2595  0.1130  0.0130
 1324POSM   C4B15540  14.046   7.510  12.645 -0.1494  0.1306  0.1404
 1325POSM   NC315541  22.451   4.434  13.610  0.0756 -0.3536  0.2208
 1325POSM   PO415542  22.277   4.094  13.691 -0.2702  0.3210  0.1944
 1325POSM   AM115543  22.089   4.048  13.435  0.1855  0.0252  0.0109
 1325POSM   AM215544  21.779   4.037  13.409  0.2555 -0.0338 -0.2487
 1325POSM   T1A15545  21.938   4.114  12.946  0.1106  0.0643  0.2145
 1325POSM   C2A15546  21.746   4.116  12.563 -0.3359 -0.2916  0.0857
 1325POSM   C3A15547  21.666   3.765  12.299 -0.2087 -0.0788  0.0193
 1325POSM   C1B15548  21.734   3.754  13.213  0.0249 -0.0174 -0.2132
 1325POSM   D2B15549  21.727   3.460  12.843  0.2255 -0.1467  0.0343
 1325POSM   C3B15550  21.953   3.329  12.475 -0.3856 -0.2746  0.1296
 1325POSM   C4B15551  22.233   3.183  12.099  0.0213 -0.1450 -0.0387
 1326DOPC   NC315552  14.201  34.472  14.226 -0.3726  0.0676 -0.2041
 1326DOPC   PO415553  14.277  34.109  14.123  0.0626  0.0373  0.2424
 1326DOPC   GL115554  14.303  34.188  13.738 -0.3641  0.2642  0.1969
 1326DOPC   GL215555  14.044  34.331  13.694  0.0907 -0.2851 -0.0700
 1326DOPC   C1A15556  14.237  33.868  13.395  0.2002  0.2514  0.0873
 1326DOPC   D2A15557  14.104  33.917  12.946  0.0588  0.0431  0.0245
 1326DOPC   C3A15558  14.376  33.651  12.671  0.3168 -0.1579 -0.1804
 1326DOPC   C4A15559  14.720  33.324  12.637 -0.1414  0.3176  0.4744
 1326DOPC   C1B15560  14.103  34.405  13.207  0.1143  0.2955 -0.3043
 1326DOPC   D2B15561  13.919  34.386  12.752  0.4758  0.2178 -0.1498
 1326DOPC   C3B15562  13.986  34.645  12.382  0.0414  0.1945  0.0630
 1326DOPC   C4B15563  14.425  34.658  12.209  0.1143  0.0909 -0.1553
 1327POSM   NC315564  18.085  11.387  14.357 -0.3690 -0.2140 -0.0742
 1327POSM   PO415565  18.211  11.777  14.212  0.3083 -0.0086 -0.3860
 1327POSM   AM115566  17.995  11.682  13.947 -0.0984  0.0116  0.0226
 1327POSM   AM215567  17.903  11.421  13.838 -0.1302 -0.1089  0.0092
 1327POSM   T1A15568  17.733  11.846  13.507  0.1993  0.1277 -0.0305
 1327POSM   C2A15569  17.472  12.124  13.226 -0.2455 -0.0404 -0.1007
 1327POSM   C3A15570  17.229  12.440  12.967  0.0338  0.0905  0.0318
 1327POSM   C1B15571  17.962  11.413  13.517 -0.0009  0.0551 -0.1266
 1327POSM   D2B15572  18.065  11.168  13.126 -0.0430  0.0691  0.2609
 1327POSM   C3B15573  17.695  10.998  12.907 -0.0471 -0.0860 -0.0614
 1327POSM   C4B15574  17.366  11.251  12.741 -0.0033  0.2563  0.0625
 1328DOPC   NC315575  21.865   4.230  13.837  0.1055  0.1053  0.1459
 1328DOPC   PO415576  21.913   4.547  13.636 -0.0597  0.0067  0.2836
 1328DOPC   GL115577  22.005   4.481  13.286  0.0623 -0.1073  0.0326
 1328DOPC   GL215578  22.185   4.753  13.215 -0.2189  0.0168  0.0641
 1328DOPC   C1A15579  21.864   4.663  12.834  0.2189  0.0342  0.2101
 1328DOPC   D2A15580  21.969   4.523  12.380  0.1541 -0.0391  0.1100
 1328DOPC   C3A15581  21.846   4.905  12.177  0.4675  0.1395 -0.0194
 1328DOPC   C4A15582  21.760   5.160  11.824 -0.1234 -0.0430  0.0362
 1328DOPC   C1B15583  22.213   5.013  12.849  0.0382 -0.1778 -0.0801
 1328DOPC   D2B15584  22.106   5.358  12.579 -0.2817 -0.1319 -0.0728
 1328DOPC   C3B15585  21.779   5.609  12.393 -0.2335 -0.0930 -0.1988
 1328DOPC   C4B15586  21.580   5.620  11.950 -0.3313 -0.1380 -0.0690
 1329POSM   NC315587  19.923   3.207  14.642 -0.2219  0.0077 -0.0117
 1329POSM   PO415588  19.553   3.311  14.501  0.0736  0.0761 -0.0360
 1329POSM   AM115589  19.505   3.250  14.170  0.5639  0.2816 -0.1940
 1329POSM   AM215590  19.540   3.349  13.897 -0.0249  0.1241 -0.1042
 1329POSM   T1A15591  19.447   2.858  13.852  0.1645 -0.2289 -0.0650
 1329POSM   C2A15592  19.324   2.733  13.463 -0.0893 -0.0991  0.2031
 1329POSM   C3A15593  18.964   2.542  13.294  0.1558 -0.2819  0.0875
 1329POSM   C1B15594  19.535   3.241  13.549  0.3378  0.1225  0.0146
 1329POSM   D2B15595  19.717   2.987  13.203 -0.0253 -0.0219  0.3008
 1329POSM   C3B15596  19.688   3.087  12.775  0.1214 -0.0956 -0.1523
 1329POSM   C4B15597  19.822   3.371  12.435  0.1743 -0.2243 -0.0241
 1330POSM   NC315598  17.895   0.211  14.314  0.0861 -0.2082  0.2808
 1330POSM   PO415599  18.170   0.462  14.438  0.1656 -0.0325 -0.1325
 1330POSM   AM115600  18.212   0.503  14.144  0.0876 -0.1222 -0.0639
 1330POSM   AM215601  18.176   0.704  13.933  0.0846 -0.1862 -0.3217
 1330POSM   T1A15602  18.084   0.189  13.817 -0.1146 -0.0681 -0.2960
 1330POSM   C2A15603  17.778   0.049  13.486  0.0357  0.5893  0.2557
 1330POSM   C3A15604  17.537  -0.289  13.252 -0.0218 -0.0234 -0.2393
 1330POSM   C1B15605  17.864   0.630  13.868  0.2419 -0.0265  0.0384
 1330POSM   D2B15606  17.500   0.273  13.929  0.1401  0.3761 -0.2719
 1330POSM   C3B15607  17.275   0.148  13.556  0.0984 -0.4270 -0.0830
 1330POSM   C4B15608  17.223   0.061  13.100  0.1136  0.0888  0.3525
 1331DOPC   NC315609   9.729   5.785  14.706 -0.1394  0.2196 -0.0042
 1331DOPC   PO415610   9.953   5.899  14.408 -0.1948  0.0486  0.1155
 1331DOPC   GL115611   9.918   5.802  14.020  0.0800  0.1644 -0.3541
 1331DOPC   GL215612   9.896   5.539  13.958  0.1695 -0.2065  0.1543
 1331DOPC   C1A15613  10.268   5.842  13.707  0.2867  0.1093 -0.4463
 1331DOPC   D2A15614  10.284   5.814  13.264  0.2601  0.0901 -0.0959
 1331DOPC   C3A15615  10.500   5.533  12.919  0.0841  0.0787 -0.2986
 1331DOPC   C4A15616  10.471   5.568  12.453  0.0197  0.1530 -0.1227
 1331DOPC   C1B15617   9.623   5.613  13.582  0.3233  0.0357  0.0980
 1331DOPC   D2B15618   9.403   5.557  13.188 -0.0780  0.1779  0.4293
 1331DOPC   C3B15619   9.565   5.470  12.754 -0.0423 -0.1290  0.2961
 1331DOPC   C4B15620   9.535   5.575  12.294 -0.2741  0.1169  0.1403
 1332DOPE   NH315621  12.719   2.673  13.982  0.2535  0.1022 -0.0073
 1332DOPE   PO415622  12.746   2.545  13.714  0.1610  0.1677 -0.0355
 1332DOPE   GL115623  12.641   2.368  13.344  0.0281  0.6371  0.0885
 1332DOPE   GL215624  12.492   2.512  13.202  0.1902  0.0890 -0.3534
 1332DOPE   C1A15625  12.934   2.356  12.943 -0.1803 -0.0742  0.0337
 1332DOPE   D2A15626  12.957   2.000  12.620 -0.1381  0.1442 -0.1560
 1332DOPE   C3A15627  12.870   1.772  12.225 -0.0374 -0.0307 -0.0931
 1332DOPE   C4A15628  12.878   1.711  11.777 -0.0954  0.3878  0.1290
 1332DOPE   C1B15629  12.340   2.117  13.013  0.0084  0.0052  0.1321
 1332DOPE   D2B15630  12.194   1.723  13.200  0.0231  0.0270  0.0291
 1332DOPE   C3B15631  12.077   1.324  12.980  0.0240  0.1929 -0.1140
 1332DOPE   C4B15632  11.919   1.029  12.684 -0.1093 -0.1507  0.1168
 1333DOPC   NC315633  13.377   4.920  14.611 -0.3685 -0.1083 -0.0416
 1333DOPC   PO415634  13.365   4.899  14.206  0.0725  0.2023  0.4554
 1333DOPC   GL115635  13.543   4.875  13.883  0.2688 -0.0996 -0.0216
 1333DOPC   GL215636  13.703   5.112  13.834 -0.3810  0.2280  0.2125
 1333DOPC   C1A15637  13.719   4.804  13.491 -0.0370 -0.1749 -0.0387
 1333DOPC   D2A15638  13.857   5.127  13.171  0.1906 -0.0404  0.3317
 1333DOPC   C3A15639  13.580   5.537  13.030  0.1944 -0.0784 -0.2545
 1333DOPC   C4A15640  13.138   5.634  12.999  0.1740 -0.0696  0.0294
 1333DOPC   C1B15641  13.390   5.434  13.873  0.1843 -0.1028  0.1947
 1333DOPC   D2B15642  13.280   5.883  13.739  0.1064 -0.2819 -0.0854
 1333DOPC   C3B15643  13.224   6.116  13.304  0.0014 -0.1767  0.0743
 1333DOPC   C4B15644  13.122   6.160  12.847  0.0041  0.0849  0.1509
 1334POSM   NC315645  21.781   6.874  13.692  0.1844 -0.0313  0.0777
 1334POSM   PO415646  21.954   7.021  14.051 -0.1957  0.1043  0.1169
 1334POSM   AM115647  22.089   7.304  13.877  0.4404 -0.1980  0.1110
 1334POSM   AM215648  22.298   7.270  13.711  0.2526 -0.0444 -0.0163
 1334POSM   T1A15649  22.034   7.697  13.523 -0.0594  0.2245  0.0424
 1334POSM   C2A15650  21.975   7.988  13.179 -0.1037 -0.2205 -0.0559
 1334POSM   C3A15651  22.003   7.875  12.682  0.1205 -0.1987  0.0524
 1334POSM   C1B15652  22.562   7.439  13.542 -0.1037  0.3240  0.2302
 1334POSM   D2B15653  22.814   7.737  13.329  0.0743  0.1886  0.1301
 1334POSM   C3B15654  22.729   7.757  12.918  0.3973 -0.2586 -0.1645
 1334POSM   C4B15655  22.614   8.017  12.562 -0.0328  0.0930 -0.2622
 1335POSM   NC315656  14.251  10.688  15.089 -0.0184  0.3423  0.0478
 1335POSM   PO415657  14.100  10.377  14.901 -0.1885 -0.2278  0.0390
 1335POSM   AM115658  13.986  10.338  14.575 -0.0392  0.1360  0.0538
 1335POSM   AM215659  13.973  10.132  14.406  0.1072 -0.0787  0.1095
 1335POSM   T1A15660  13.775  10.525  14.183  0.1495 -0.1334 -0.2920
 1335POSM   C2A15661  13.765  10.763  13.781  0.0965  0.0256  0.1585
 1335POSM   C3A15662  13.897  10.877  13.362  0.1006  0.1105 -0.2280
 1335POSM   C1B15663  14.099  10.119  14.081  0.1915 -0.0093  0.1819
 1335POSM   D2B15664  14.129  10.186  13.641 -0.0484 -0.0912 -0.2229
 1335POSM   C3B15665  13.702  10.221  13.469  0.0050 -0.0678  0.1289
 1335POSM   C4B15666  13.357   9.833  13.505  0.3380 -0.1756  0.0474
 1336POSM   NC315667  14.850   4.688  14.299 -0.0910  0.0182  0.0597
 1336POSM   PO415668  15.030   4.992  14.488  0.0038  0.1934  0.2196
 1336POSM   AM115669  15.034   5.077  14.155  0.1929 -0.0550  0.2026
 1336POSM   AM215670  14.959   5.207  13.929  0.0016  0.3481  0.1722
 1336POSM   T1A15671  15.247   4.874  13.711  0.1233  0.1406 -0.2827
 1336POSM   C2A15672  15.588   4.728  13.445  0.2843  0.0706 -0.0648
 1336POSM   C3A15673  15.969   4.470  13.302 -0.1756 -0.1555  0.1901
 1336POSM   C1B15674  14.825   5.213  13.638 -0.0156  0.4916 -0.0916
 1336POSM   D2B15675  14.949   5.164  13.177 -0.1982  0.0014  0.0352
 1336POSM   C3B15676  15.374   4.995  13.017 -0.1431 -0.4188 -0.0494
 1336POSM   C4B15677  15.794   4.881  12.995 -0.0336  0.0677 -0.2571
 1337POSM   NC315678  16.727   9.858  14.564 -0.3456  0.4192 -0.1920
 1337POSM   PO415679  16.380  10.096  14.500 -0.2932 -0.1047 -0.0274
 1337POSM   AM115680  16.367   9.943  14.208 -0.1957 -0.1909  0.0018
 1337POSM   AM215681  16.569   9.779  14.048 -0.2686 -0.0715  0.0051
 1337POSM   T1A15682  16.177   9.992  13.753 -0.2464  0.0276  0.1236
 1337POSM   C2A15683  16.134  10.339  13.379  0.0703 -0.0353 -0.1898
 1337POSM   C3A15684  16.173  10.285  12.901 -0.0363  0.0379  0.2763
 1337POSM   C1B15685  16.460   9.634  13.740 -0.0017 -0.1776  0.0126
 1337POSM   D2B15686  16.215   9.337  13.517  0.1848  0.0562  0.2519
 1337POSM   C3B15687  16.433   9.049  13.215 -0.0650  0.0111 -0.1749
 1337POSM   C4B15688  16.799   9.058  12.889  0.2419  0.1263  0.1772
 1338DOPC   NC315689  21.785   9.484  14.285  0.3203 -0.1819  0.0273
 1338DOPC   PO415690  21.395   9.576  14.273  0.0751  0.1763  0.2429
 1338DOPC   GL115691  21.540   9.617  13.914  0.0994 -0.4041 -0.5416
 1338DOPC   GL215692  21.548   9.854  13.834 -0.0437  0.2538  0.0120
 1338DOPC   C1A15693  21.426   9.357  13.498  0.0944 -0.0217  0.1680
 1338DOPC   D2A15694  21.423   9.443  13.063 -0.1116 -0.0056 -0.3159
 1338DOPC   C3A15695  21.033   9.345  12.902 -0.0353 -0.0286  0.0470
 1338DOPC   C4A15696  21.133   9.170  12.510  0.1728  0.2770  0.1891
 1338DOPC   C1B15697  21.529   9.838  13.359 -0.2752 -0.3398 -0.0754
 1338DOPC   D2B15698  21.599   9.857  12.891  0.1284  0.2336 -0.0104
 1338DOPC   C3B15699  21.272   9.784  12.633  0.4334 -0.3258 -0.0600
 1338DOPC   C4B15700  21.113  10.085  12.258 -0.1516 -0.0023 -0.0185
 1339POSM   NC315701  23.092   7.251  14.567  0.1402 -0.3707 -0.4831
 1339POSM   PO415702  22.932   7.376  14.281 -0.1322  0.0848  0.1346
 1339POSM   AM115703  23.105   7.576  14.064  0.0892 -0.3868  0.1407
 1339POSM   AM215704  23.217   7.529  13.795 -0.0894  0.0025  0.1102
 1339POSM   T1A15705  22.980   7.963  13.769 -0.1010 -0.0504 -0.1696
 1339POSM   C2A15706  22.869   8.265  13.485 -0.1456  0.6039  0.1777
 1339POSM   C3A15707  22.695   8.562  13.157 -0.0504 -0.0887 -0.2558
 1339POSM   C1B15708  23.219   7.513  13.468  0.0177 -0.1009 -0.2350
 1339POSM   D2B15709  23.192   7.593  13.020  0.0688  0.0867  0.1987
 1339POSM   C3B15710  23.078   7.704  12.576  0.2164 -0.0425  0.0684
 1339POSM   C4B15711  23.020   7.862  12.180  0.2090 -0.1662  0.1533
 1340DOPS   CNO15712  18.111   2.387  14.556 -0.0928  0.0864 -0.0408
 1340DOPS   PO415713  18.381   2.582  14.716  0.0196  0.0875 -0.1675
 1340DOPS   GL115714  18.428   2.605  14.311  0.3371  0.0380  0.2320
 1340DOPS   GL215715  18.764   2.792  14.237 -0.0550 -0.1203  0.3034
 1340DOPS   C1A15716  18.400   2.774  13.868 -0.0705  0.0205  0.1898
 1340DOPS   D2A15717  18.482   2.945  13.409 -0.1938  0.0114 -0.3395
 1340DOPS   C3A15718  18.249   2.859  13.016 -0.1517  0.1140 -0.0227
 1340DOPS   C4A15719  17.782   2.599  12.889  0.4918  0.4369  0.0144
 1340DOPS   C1B15720  18.844   2.966  13.808 -0.0847 -0.3624  0.2192
 1340DOPS   D2B15721  18.999   3.116  13.388 -0.2499 -0.0558  0.0764
 1340DOPS   C3B15722  18.749   2.950  13.015 -0.1756  0.0841  0.0417
 1340DOPS   C4B15723  18.666   2.552  12.821  0.3315  0.1440 -0.2410
 1341DOPS   CNO15724  13.591   5.809  14.736  0.3231  0.2522 -0.4666
 1341DOPS   PO415725  13.531   5.847  14.365  0.1815  0.1993  0.0697
 1341DOPS   GL115726  13.802   5.939  14.025 -0.1137  0.0338  0.2716
 1341DOPS   GL215727  13.846   5.626  13.990  0.1396  0.2340  0.0085
 1341DOPS   C1A15728  13.772   5.991  13.548  0.1046 -0.1961  0.0852
 1341DOPS   D2A15729  13.722   6.108  13.109  0.0851  0.0271 -0.0591
 1341DOPS   C3A15730  13.801   5.904  12.678 -0.1536  0.5919 -0.1842
 1341DOPS   C4A15731  13.825   5.590  12.410 -0.1707  0.1801 -0.0069
 1341DOPS   C1B15732  13.711   5.542  13.540  0.1862  0.0540 -0.1421
 1341DOPS   D2B15733  13.350   5.224  13.397 -0.2020  0.1081 -0.1949
 1341DOPS   C3B15734  12.917   5.443  13.399 -0.2531 -0.3876  0.1940
 1341DOPS   C4B15735  12.818   5.911  13.340  0.0861  0.3994  0.5637
 1342DOPS   CNO15736  19.849   6.324  13.993 -0.0689 -0.0245  0.0455
 1342DOPS   PO415737  20.194   6.156  14.027 -0.0484  0.0084 -0.1531
 1342DOPS   GL115738  20.021   5.952  13.785  0.3471  0.2227  0.2108
 1342DOPS   GL215739  20.206   5.796  13.578 -0.2189 -0.1513  0.1227
 1342DOPS   C1A15740  19.818   6.109  13.409 -0.3281 -0.1670 -0.0055
 1342DOPS   D2A15741  19.804   6.025  12.971 -0.0598 -0.1943 -0.2823
 1342DOPS   C3A15742  19.506   5.788  12.731  0.2762 -0.0290 -0.0372
 1342DOPS   C4A15743  19.139   5.931  12.483  0.0915 -0.0295 -0.0498
 1342DOPS   C1B15744  20.336   6.081  13.295 -0.2852  0.0774  0.1539
 1342DOPS   D2B15745  20.556   6.468  13.193  0.1137  0.0834 -0.0289
 1342DOPS   C3B15746  20.609   6.467  12.743 -0.2087 -0.2668 -0.2552
 1342DOPS   C4B15747  20.652   6.788  12.378 -0.2737  0.1767 -0.1719
 1343POSM   NC315748  20.894   1.670  15.108 -0.1935 -0.0165  0.0102
 1343POSM   PO415749  20.679   1.702  14.801  0.4061 -0.2093  0.0336
 1343POSM   AM115750  20.683   1.833  14.495 -0.1417  0.0518  0.0506
 1343POSM   AM215751  20.839   1.718  14.233 -0.0372 -0.4956  0.2669
 1343POSM   T1A15752  20.626   2.195  14.161  0.0254 -0.1479 -0.1605
 1343POSM   C2A15753  20.476   2.333  13.697  0.0835 -0.1354 -0.0080
 1343POSM   C3A15754  20.291   2.495  13.257 -0.2630  0.0677  0.0484
 1343POSM   C1B15755  20.820   1.773  13.902 -0.0392  0.3485 -0.3113
 1343POSM   D2B15756  20.770   1.775  13.394 -0.0769  0.1620  0.4552
 1343POSM   C3B15757  20.807   2.170  13.231  0.1558 -0.0067  0.1103
 1343POSM   C4B15758  20.795   2.516  12.944  0.0578  0.1946  0.2188
 1344DOPE   NH315759  19.519  10.335  14.391  0.1527  0.0345  0.0064
 1344DOPE   PO415760  19.802  10.243  14.315  0.3124 -0.4117 -0.3167
 1344DOPE   GL115761  19.831  10.064  13.941  0.4477  0.3307 -0.3460
 1344DOPE   GL215762  19.675  10.292  13.842  0.2331  0.1525  0.2327
 1344DOPE   C1A15763  20.097   9.900  13.582  0.1096  0.1023  0.1765
 1344DOPE   D2A15764  20.327   9.851  13.212  0.2876 -0.0075 -0.0703
 1344DOPE   C3A15765  20.588  10.239  13.063  0.0568 -0.1075  0.0429
 1344DOPE   C4A15766  20.935  10.335  13.277  0.0448 -0.2239 -0.1096
 1344DOPE   C1B15767  20.032  10.380  13.632  0.0336 -0.2989  0.0643
 1344DOPE   D2B15768  20.239  10.506  13.241  0.1413  0.0510  0.0326
 1344DOPE   C3B15769  20.259  10.497  12.797  0.2136  0.1014 -0.1680
 1344DOPE   C4B15770  20.232  10.131  12.590  0.0623 -0.3315 -0.1916
 1345POSM   NC315771  15.845   1.250  14.250  0.1335 -0.0747  0.1766
 1345POSM   PO415772  16.233   1.226  14.229 -0.0896  0.0162 -0.0957
 1345POSM   AM115773  16.484   1.126  14.002  0.0164  0.0439  0.1717
 1345POSM   AM215774  16.666   0.908  13.930 -0.3651 -0.0620 -0.1427
 1345POSM   T1A15775  16.672   1.209  13.525  0.1434 -0.0288 -0.4789
 1345POSM   C2A15776  16.565   1.117  13.090 -0.0625 -0.0836  0.0574
 1345POSM   C3A15777  16.674   1.316  12.661 -0.0398  0.0720  0.2960
 1345POSM   C1B15778  16.713   0.662  13.729 -0.0223  0.1894 -0.1945
 1345POSM   D2B15779  16.978   0.531  13.335 -0.0874 -0.3679 -0.1621
 1345POSM   C3B15780  16.787   0.332  12.938 -0.0477  0.2323  0.0879
 1345POSM   C4B15781  16.627   0.421  12.508  0.3312  0.0211 -0.1081
 1346DOPS   CNO15782  21.351   6.526  13.562  0.1604  0.3042  0.2140
 1346DOPS   PO415783  21.032   6.296  13.554 -0.1969  0.1560 -0.0368
 1346DOPS   GL115784  21.158   6.244  13.278 -0.1194  0.4365  0.1977
 1346DOPS   GL215785  21.090   6.119  13.021  0.3532 -0.0535 -0.1478
 1346DOPS   C1A15786  21.424   6.406  12.915  0.1959  0.0262  0.2664
 1346DOPS   D2A15787  21.584   6.138  12.496 -0.0819 -0.2484 -0.0094
 1346DOPS   C3A15788  21.293   6.125  12.152 -0.1099  0.0316 -0.2952
 1346DOPS   C4A15789  20.864   6.268  11.992  0.2785  0.0646  0.0849
 1346DOPS   C1B15790  20.654   5.989  12.942  0.0106  0.2293  0.3107
 1346DOPS   D2B15791  20.279   6.098  12.732 -0.1435  0.1542  0.2654
 1346DOPS   C3B15792  20.028   5.771  12.628 -0.1560 -0.1111  0.0530
 1346DOPS   C4B15793  19.824   5.330  12.674 -0.0056  0.1031  0.3293
 1347POSM   NC315794  22.762   5.609  13.879 -0.0965  0.1130  0.2851
 1347POSM   PO415795  22.618   5.261  13.943 -0.0327  0.1343  0.0860
 1347POSM   AM115796  22.688   5.224  13.603 -0.0316  0.2650  0.0634
 1347POSM   AM215797  22.867   5.310  13.438  0.1835 -0.3607  0.0878
 1347POSM   T1A15798  22.602   5.200  13.090  0.1487  0.0253  0.0422
 1347POSM   C2A15799  22.787   5.108  12.663  0.1340  0.0506 -0.0021
 1347POSM   C3A15800  22.908   4.874  12.280 -0.1306 -0.1417 -0.1073
 1347POSM   C1B15801  23.092   5.169  13.206  0.3265  0.2012 -0.4123
 1347POSM   D2B15802  23.244   5.234  12.798 -0.0130 -0.2779 -0.0066
 1347POSM   C3B15803  23.270   5.185  12.332 -0.1061  0.3682 -0.1063
 1347POSM   C4B15804  23.698   5.227  12.113 -0.1871 -0.1556 -0.1609
 1348POSM   NC315805  17.118   5.421  14.536 -0.0341  0.2167  0.0194
 1348POSM   PO415806  17.296   5.110  14.351  0.0561 -0.3993  0.1645
 1348POSM   AM115807  17.378   5.196  14.045  0.0087  0.0162  0.0544
 1348POSM   AM215808  17.180   5.380  13.862 -0.0537 -0.0952  0.1175
 1348POSM   T1A15809  17.569   5.330  13.587 -0.4677 -0.1901  0.0986
 1348POSM   C2A15810  17.919   5.255  13.325 -0.0560 -0.3988 -0.1274
 1348POSM   C3A15811  18.090   5.439  12.913  0.0275 -0.1726 -0.1033
 1348POSM   C1B15812  16.998   5.467  13.591  0.3817  0.2779  0.0461
 1348POSM   D2B15813  16.693   5.540  13.233  0.2104  0.0561 -0.3725
 1348POSM   C3B15814  16.883   5.683  12.886  0.0472  0.2717 -0.2828
 1348POSM   C4B15815  17.215   5.679  12.535 -0.3790 -0.4605  0.3547
 1349POSM   NC315816  14.876   8.587  15.179  0.0040  0.2566  0.1933
 1349POSM   PO415817  14.569   8.461  14.986  0.1533  0.0066 -0.1809
 1349POSM   AM115818  14.448   8.393  14.681  0.1144  0.2954  0.0293
 1349POSM   AM215819  14.587   8.232  14.479  0.1359  0.1628 -0.0454
 1349POSM   T1A15820  14.250   8.622  14.268  0.0437 -0.2394 -0.1211
 1349POSM   C2A15821  14.008   8.529  13.876 -0.1881 -0.1567  0.0932
 1349POSM   C3A15822  14.067   8.422  13.427 -0.1313  0.3652  0.2229
 1349POSM   C1B15823  14.363   8.168  14.241  0.3402 -0.1537  0.0158
 1349POSM   D2B15824  13.978   8.078  14.109 -0.2218  0.3459 -0.0576
 1349POSM   C3B15825  13.889   7.901  13.682  0.2330 -0.1311  0.0378
 1349POSM   C4B15826  14.202   7.864  13.316 -0.0471  0.1735  0.1826
 1350DOPE   NH315827  21.227   8.251  14.072  0.0106 -0.0310 -0.1881
 1350DOPE   PO415828  21.546   8.169  14.164 -0.0806  0.0922 -0.1743
 1350DOPE   GL115829  21.666   8.300  13.745  0.1424 -0.1236  0.0970
 1350DOPE   GL215830  21.718   8.078  13.626 -0.3555  0.1694 -0.0676
 1350DOPE   C1A15831  21.944   8.511  13.408  0.2507 -0.0399 -0.1798
 1350DOPE   D2A15832  22.263   8.781  13.237  0.0210  0.1663  0.0813
 1350DOPE   C3A15833  22.300   8.964  12.802 -0.3163 -0.3235  0.0564
 1350DOPE   C4A15834  22.338   9.259  12.453  0.0956 -0.0015 -0.1433
 1350DOPE   C1B15835  21.533   7.853  13.287  0.1701 -0.0603 -0.0756
 1350DOPE   D2B15836  21.189   7.556  13.221  0.1445  0.0093  0.2821
 1350DOPE   C3B15837  21.361   7.226  12.885 -0.0117  0.2934 -0.0283
 1350DOPE   C4B15838  21.385   7.273  12.421  0.2555 -0.1465 -0.1770
 1351DOPE   NH315839  13.131   7.015  14.536 -0.0708  0.3708 -0.1457
 1351DOPE   PO415840  13.362   6.935  14.396 -0.4936  0.4563  0.2041
 1351DOPE   GL115841  13.306   7.215  14.113  0.0778 -0.0128 -0.1809
 1351DOPE   GL215842  13.193   7.461  14.245 -0.1928 -0.3152 -0.2687
 1351DOPE   C1A15843  13.228   7.359  13.650 -0.0209 -0.0142  0.0901
 1351DOPE   D2A15844  13.016   7.223  13.240 -0.0612 -0.3110 -0.1302
 1351DOPE   C3A15845  12.693   7.385  12.974  0.2106  0.0256  0.1127
 1351DOPE   C4A15846  12.476   7.754  13.061 -0.1606 -0.0055 -0.1757
 1351DOPE   C1B15847  13.077   7.751  13.957 -0.1944  0.0295  0.2613
 1351DOPE   D2B15848  12.932   8.086  13.636 -0.1556  0.0437 -0.0196
 1351DOPE   C3B15849  12.847   8.028  13.230 -0.0334 -0.0893  0.1924
 1351DOPE   C4B15850  12.913   7.873  12.858  0.1574 -0.0380  0.1464
 1352DOPS   CNO15851  20.324  34.298  14.203  0.0649  0.1040  0.1344
 1352DOPS   PO415852  20.663  34.189  14.138 -0.0927  0.2019  0.1286
 1352DOPS   GL115853  20.692  34.304  13.738  0.1537  0.2180 -0.3201
 1352DOPS   GL215854  20.913  34.372  13.668 -0.2066 -0.2551 -0.0385
 1352DOPS   C1A15855  20.667  34.000  13.355  0.1286 -0.2490  0.2578
 1352DOPS   D2A15856  20.517  33.869  12.937  0.1262 -0.1315 -0.0670
 1352DOPS   C3A15857  20.679  34.215  12.708  0.3017  0.2354 -0.2553
 1352DOPS   C4A15858  20.401  34.332  12.359  0.1010  0.0391 -0.2571
 1352DOPS   C1B15859  21.187  34.650  13.450 -0.2078 -0.2771  0.2002
 1352DOPS   D2B15860  21.492  34.822  13.106  0.1798 -0.1198 -0.2144
 1352DOPS   C3B15861  21.453  35.237  12.947  0.2687  0.2397 -0.1134
 1352DOPS   C4B15862  21.469  35.653  12.794 -0.1343  0.1693  0.1489
 1353DOPS   CNO15863  14.274   2.945  14.072  0.0798  0.3014  0.0837
 1353DOPS   PO415864  14.058   3.225  14.120 -0.0881 -0.1306  0.1314
 1353DOPS   GL115865  14.092   3.385  13.741  0.1408  0.1472 -0.3192
 1353DOPS   GL215866  14.056   3.737  13.628 -0.0692 -0.0340  0.0625
 1353DOPS   C1A15867  14.344   3.445  13.310 -0.1539  0.1054  0.0948
 1353DOPS   D2A15868  14.396   3.483  12.879 -0.3460 -0.0524  0.1669
 1353DOPS   C3A15869  14.558   3.197  12.542  0.0025 -0.0457  0.1172
 1353DOPS   C4A15870  14.368   2.883  12.181 -0.0100 -0.0244 -0.4622
 1353DOPS   C1B15871  14.110   3.919  13.183 -0.1513  0.0490 -0.2382
 1353DOPS   D2B15872  14.316   4.103  12.808  0.1855  0.1270 -0.0618
 1353DOPS   C3B15873  14.392   3.841  12.417 -0.0427  0.0517  0.1315
 1353DOPS   C4B15874  14.242   3.516  12.150 -0.2493  0.2423  0.0308
 1354DOPE   NH315875  18.438  10.226  14.450  0.2349 -0.0323 -0.0524
 1354DOPE   PO415876  18.351  10.447  14.193 -0.1230  0.2489 -0.0105
 1354DOPE   GL115877  18.315  10.132  13.905  0.2628 -0.0862  0.2955
 1354DOPE   GL215878  18.427  10.107  13.620  0.2510  0.3764 -0.3323
 1354DOPE   C1A15879  17.973   9.872  13.726 -0.1438  0.3238  0.2481
 1354DOPE   D2A15880  17.704   9.627  13.400  0.2299 -0.3311  0.0380
 1354DOPE   C3A15881  17.651   9.835  12.944  0.2193 -0.0074  0.2157
 1354DOPE   C4A15882  17.597   9.716  12.500 -0.0502 -0.0629 -0.1497
 1354DOPE   C1B15883  18.291  10.134  13.211 -0.0785  0.1119 -0.1982
 1354DOPE   D2B15884  18.117  10.237  12.802  0.0708  0.0333  0.1965
 1354DOPE   C3B15885  17.692  10.333  12.658 -0.0515  0.1855 -0.0093
 1354DOPE   C4B15886  17.302  10.081  12.639 -0.1404  0.0400 -0.1653
 1355DOPC   NC315887  17.624  12.483  13.800  0.2286  0.0993 -0.0625
 1355DOPC   PO415888  17.370  12.785  13.919  0.1241 -0.0994 -0.1007
 1355DOPC   GL115889  17.048  12.747  13.632 -0.4465 -0.1350  0.1154
 1355DOPC   GL215890  17.017  12.490  13.449 -0.0454 -0.0759  0.0747
 1355DOPC   C1A15891  17.050  12.880  13.183 -0.5491 -0.1362 -0.2585
 1355DOPC   D2A15892  17.177  12.844  12.743  0.1564 -0.1036 -0.1881
 1355DOPC   C3A15893  16.981  12.719  12.369 -0.0367  0.0676 -0.0396
 1355DOPC   C4A15894  16.749  12.815  11.957 -0.1418 -0.0605  0.0670
 1355DOPC   C1B15895  16.948  12.149  13.122  0.3592  0.0452  0.0842
 1355DOPC   D2B15896  16.730  11.804  12.915  0.1598  0.3820 -0.2698
 1355DOPC   C3B15897  16.547  11.844  12.463 -0.1130 -0.2998  0.2907
 1355DOPC   C4B15898  16.252  11.479  12.216 -0.2482 -0.0104 -0.1251
 1356DOPE   NH315899  18.192   6.521  14.499  0.1494 -0.0451  0.3654
 1356DOPE   PO415900  18.053   6.238  14.470  0.1063  0.3704  0.1796
 1356DOPE   GL115901  17.803   6.043  14.149 -0.1593 -0.0649  0.0567
 1356DOPE   GL215902  17.528   6.120  14.239  0.1687 -0.3297  0.0769
 1356DOPE   C1A15903  17.819   6.180  13.674  0.2244  0.0457  0.0864
 1356DOPE   D2A15904  17.980   6.200  13.244  0.2245  0.2797  0.1123
 1356DOPE   C3A15905  17.891   6.269  12.789 -0.2596 -0.0015 -0.0571
 1356DOPE   C4A15906  17.660   6.422  12.398 -0.2224 -0.1441 -0.0832
 1356DOPE   C1B15907  17.316   6.308  13.905  0.1250  0.1440  0.0924
 1356DOPE   D2B15908  17.111   6.231  13.509  0.0959  0.0947  0.0304
 1356DOPE   C3B15909  17.154   5.828  13.320  0.1647  0.0392 -0.4798
 1356DOPE   C4B15910  17.264   5.470  13.163  0.1576 -0.1970 -0.0034
 1357DOPC   NC315911  12.272   2.930  13.722 -0.1647  0.0341  0.1900
 1357DOPC   PO415912  12.293   3.317  13.647 -0.1359 -0.0915 -0.0506
 1357DOPC   GL115913  12.305   3.501  13.251 -0.1908 -0.2804 -0.0746
 1357DOPC   GL215914  12.275   3.209  13.093 -0.2000 -0.1568 -0.1557
 1357DOPC   C1A15915  12.644   3.683  13.021  0.0385 -0.0346 -0.1495
 1357DOPC   D2A15916  12.716   3.945  12.641 -0.2128 -0.0456 -0.0377
 1357DOPC   C3A15917  13.131   4.136  12.542 -0.1884 -0.2523  0.1396
 1357DOPC   C4A15918  13.519   4.299  12.320 -0.1759 -0.0070 -0.0018
 1357DOPC   C1B15919  12.370   2.861  12.816 -0.2523 -0.0595  0.1146
 1357DOPC   D2B15920  12.155   2.668  12.374  0.0176  0.3057 -0.1267
 1357DOPC   C3B15921  12.337   2.635  11.993 -0.1460 -0.4711  0.1710
 1357DOPC   C4B15922  12.826   2.724  11.823  0.1536  0.0575 -0.1092
 1358DOPE   NH315923  20.763   3.529  14.313  0.0466 -0.1823  0.1478
 1358DOPE   PO415924  20.661   3.794  14.188  0.1054  0.1218  0.1121
 1358DOPE   GL115925  20.758   3.564  13.866 -0.1043  0.2824  0.0730
 1358DOPE   GL215926  20.998   3.592  13.669 -0.0345  0.0010  0.0421
 1358DOPE   C1A15927  20.473   3.479  13.530  0.1270 -0.1697  0.1175
 1358DOPE   D2A15928  20.329   3.086  13.419  0.1749 -0.1679  0.1908
 1358DOPE   C3A15929  20.669   2.719  13.448  0.0294  0.1555 -0.0411
 1358DOPE   C4A15930  21.050   2.554  13.399 -0.1628 -0.0785 -0.1715
 1358DOPE   C1B15931  20.835   3.567  13.217  0.1305 -0.1037 -0.0375
 1358DOPE   D2B15932  20.947   3.506  12.781 -0.0000 -0.0057  0.0685
 1358DOPE   C3B15933  21.187   3.342  12.370 -0.2282 -0.1396 -0.0277
 1358DOPE   C4B15934  21.146   3.293  11.961  0.1683  0.2256 -0.0917
 1359DOPE   NH315935  19.562   6.545  14.343  0.1921 -0.1623 -0.1297
 1359DOPE   PO415936  19.420   6.783  14.312  0.2842 -0.3670 -0.1720
 1359DOPE   GL115937  19.455   6.510  13.912  0.1529 -0.1835  0.1170
 1359DOPE   GL215938  19.332   6.711  13.841  0.1663  0.1679 -0.3108
 1359DOPE   C1A15939  19.408   6.384  13.478 -0.5105  0.0065  0.2124
 1359DOPE   D2A15940  19.400   6.452  12.997 -0.1797 -0.4828  0.1132
 1359DOPE   C3A15941  19.498   6.244  12.571 -0.0638 -0.1216  0.0716
 1359DOPE   C4A15942  19.892   6.194  12.331 -0.0490 -0.0519 -0.1190
 1359DOPE   C1B15943  19.227   6.861  13.375 -0.0604  0.0416  0.1553
 1359DOPE   D2B15944  19.246   6.941  12.957 -0.0187 -0.2292  0.2002
 1359DOPE   C3B15945  19.173   6.650  12.572  0.1047 -0.1685  0.1805
 1359DOPE   C4B15946  19.113   6.436  12.207  0.1898  0.1645  0.0028
 1360DOPC   NC315947  12.923  34.233  14.828  0.2252 -0.0242 -0.0929
 1360DOPC   PO415948  13.102  34.484  14.515 -0.0304  0.2723 -0.1120
 1360DOPC   GL115949  13.109  34.484  14.127  0.2836 -0.3655  0.0232
 1360DOPC   GL215950  13.311  34.271  14.084  0.1329  0.2326 -0.0903
 1360DOPC   C1A15951  13.166  34.556  13.678  0.0212 -0.0795  0.2753
 1360DOPC   D2A15952  13.210  34.740  13.272 -0.1664  0.0105  0.0311
 1360DOPC   C3A15953  13.010  34.738  12.882  0.1838 -0.0838  0.0286
 1360DOPC   C4A15954  13.075  34.464  12.574  0.1314  0.2004  0.2127
 1360DOPC   C1B15955  13.540  34.307  13.704  0.0947 -0.0549 -0.2770
 1360DOPC   D2B15956  13.680  34.153  13.339  0.0717 -0.1960  0.4776
 1360DOPC   C3B15957  13.457  34.453  12.997 -0.0797  0.0158  0.2866
 1360DOPC   C4B15958  13.513  34.786  12.686  0.0031  0.0608 -0.0097
 1361DOPC   NC315959  23.773   3.783  14.190 -0.1344  0.2733 -0.1116
 1361DOPC   PO415960  24.031   3.638  13.915  0.2470  0.2979 -0.2616
 1361DOPC   GL115961  24.065   3.746  13.543 -0.2698  0.0389 -0.3000
 1361DOPC   GL215962  24.179   3.984  13.482  0.1913  0.2800 -0.0618
 1361DOPC   C1A15963  24.352   3.589  13.201  0.0617  0.1716  0.3081
 1361DOPC   D2A15964  24.427   3.457  12.786  0.3240  0.1718  0.0816
 1361DOPC   C3A15965  24.048   3.592  12.509  0.2011  0.0090 -0.0076
 1361DOPC   C4A15966  23.806   3.964  12.393 -0.1469  0.0296 -0.0174
 1361DOPC   C1B15967  24.047   4.398  13.432 -0.1978 -0.1735 -0.0544
 1361DOPC   D2B15968  23.674   4.435  13.261 -0.0667  0.0321  0.1834
 1361DOPC   C3B15969  23.498   4.616  12.876  0.0378 -0.1573 -0.0352
 1361DOPC   C4B15970  23.105   4.711  12.678 -0.1114 -0.0357  0.0634
 1362DOPE   NH315971  18.486   4.986  14.424 -0.2927  0.1770  0.1133
 1362DOPE   PO415972  18.222   4.939  14.271  0.2568 -0.0702 -0.1058
 1362DOPE   GL115973  18.219   4.854  13.907  0.3924  0.3347  0.1139
 1362DOPE   GL215974  18.168   4.592  13.882  0.0841 -0.0674  0.0858
 1362DOPE   C1A15975  18.540   4.829  13.602  0.4162  0.2390 -0.0557
 1362DOPE   D2A15976  18.829   4.692  13.219  0.0864 -0.0114 -0.1062
 1362DOPE   C3A15977  19.224   4.748  13.407 -0.0800  0.0407  0.1579
 1362DOPE   C4A15978  19.667   4.725  13.266  0.3616  0.1469 -0.0099
 1362DOPE   C1B15979  17.879   4.288  13.638  0.1078  0.0018 -0.2293
 1362DOPE   D2B15980  17.760   4.300  13.154  0.2689 -0.0532 -0.2269
 1362DOPE   C3B15981  17.617   3.903  12.976 -0.2187  0.2219  0.1914
 1362DOPE   C4B15982  17.430   3.804  12.555 -0.0656  0.3408 -0.2414
 1363DOPE   NH315983  23.630  11.091  13.895  0.1125  0.0165  0.2600
 1363DOPE   PO415984  23.598  11.122  13.565  0.0466 -0.1219  0.0068
 1363DOPE   GL115985  23.418  11.128  13.122  0.1122 -0.5507  0.1620
 1363DOPE   GL215986  23.197  10.968  13.189 -0.0230  0.2352 -0.1638
 1363DOPE   C1A15987  23.587  11.257  12.709 -0.1799  0.0915 -0.1328
 1363DOPE   D2A15988  23.534  11.248  12.207 -0.0487  0.0443 -0.0999
 1363DOPE   C3A15989  23.571  10.836  12.028  0.1856  0.0691 -0.0641
 1363DOPE   C4A15990  23.434  10.391  11.950 -0.0703 -0.1541  0.2181
 1363DOPE   C1B15991  23.249  10.860  12.733 -0.1936 -0.1140 -0.1040
 1363DOPE   D2B15992  23.168  10.893  12.270  0.3303 -0.1844  0.0070
 1363DOPE   C3B15993  23.101  10.452  12.442 -0.0214  0.1362  0.1581
 1363DOPE   C4B15994  22.699  10.290  12.607  0.0273 -0.2408 -0.2741
 1364DOPS   CNO15995  13.177   3.684  13.811 -0.0221 -0.0528 -0.2485
 1364DOPS   PO415996  13.059   4.010  13.626  0.0663  0.3493  0.0700
 1364DOPS   GL115997  12.784   4.087  13.329 -0.0274 -0.1425 -0.1701
 1364DOPS   GL215998  12.984   4.027  13.120  0.0326 -0.0187  0.2516
 1364DOPS   C1A15999  12.476   4.217  12.966 -0.0712  0.0849 -0.2629
 1364DOPS   D2A16000  12.243   4.181  12.541 -0.2896  0.0006  0.3597
 1364DOPS   C3A16001  12.246   4.472  12.197  0.0890 -0.3599 -0.0711
 1364DOPS   C4A16002  11.913   4.697  12.005  0.1787 -0.1351 -0.0769
 1364DOPS   C1B16003  13.357   4.285  12.999 -0.0714  0.1011  0.0128
 1364DOPS   D2B16004  13.664   4.625  12.928 -0.0954  0.2618 -0.4566
 1364DOPS   C3B16005  14.104   4.562  12.840 -0.1853 -0.0977 -0.0936
 1364DOPS   C4B16006  14.530   4.772  12.745 -0.4282  0.1485  0.1405
 1365POSM   NC316007  17.241  11.434  14.376 -0.2071  0.0419 -0.4821
 1365POSM   PO416008  17.516  11.285  14.097  0.1690 -0.1072  0.3345
 1365POSM   AM116009  17.521  11.227  13.744  0.0075  0.1359 -0.0156
 1365POSM   AM216010  17.587  10.984  13.635  0.0197  0.3124 -0.2518
 1365POSM   T1A16011  17.499  11.346  13.268 -0.3131 -0.1073  0.2203
 1365POSM   C2A16012  17.711  11.631  12.983  0.0404  0.1137 -0.2026
 1365POSM   C3A16013  17.788  11.982  12.692 -0.1788  0.0790 -0.0256
 1365POSM   C1B16014  17.628  10.775  13.364 -0.2861 -0.1332  0.0487
 1365POSM   D2B16015  17.438  10.521  13.011 -0.1057  0.1895 -0.1717
 1365POSM   C3B16016  17.383  10.709  12.625 -0.3563  0.2317 -0.0459
 1365POSM   C4B16017  17.294  11.050  12.311 -0.0106  0.0596 -0.0381
 1366DOPC   NC316018  14.368   5.493  14.711  0.0230  0.2161  0.2395
 1366DOPC   PO416019  14.487   5.615  14.351  0.1515 -0.1273 -0.2804
 1366DOPC   GL116020  14.284   5.540  14.056  0.0329  0.2032  0.1614
 1366DOPC   GL216021  14.544   5.540  13.857 -0.0636  0.1275 -0.2444
 1366DOPC   C1A16022  14.173   5.219  13.668 -0.1428 -0.0612  0.1005
 1366DOPC   D2A16023  14.225   4.868  13.432 -0.3436  0.0182 -0.1399
 1366DOPC   C3A16024  14.463   5.199  13.078  0.2709  0.0085  0.0012
 1366DOPC   C4A16025  14.634   5.284  12.631 -0.0087  0.0975  0.2041
 1366DOPC   C1B16026  14.581   5.610  13.382 -0.1122  0.3526  0.0126
 1366DOPC   D2B16027  14.726   5.698  12.960  0.0304  0.0279  0.1166
 1366DOPC   C3B16028  15.104   5.453  12.745  0.1212  0.0134 -0.1430
 1366DOPC   C4B16029  15.476   5.620  12.496  0.0646  0.1812  0.2650
 1367DOPC   NC316030  14.409   2.503  13.775 -0.1227 -0.2077 -0.0597
 1367DOPC   PO416031  14.602   2.833  13.731 -0.0493  0.1058 -0.0364
 1367DOPC   GL116032  14.621   3.108  13.480 -0.0693  0.1758  0.1849
 1367DOPC   GL216033  14.597   3.092  13.181  0.0333 -0.1334  0.0277
 1367DOPC   C1A16034  14.859   3.510  13.375  0.1729  0.1140  0.0854
 1367DOPC   D2A16035  15.291   3.638  13.222 -0.0571 -0.0650 -0.0691
 1367DOPC   C3A16036  15.519   4.056  13.179 -0.2308  0.2976  0.2154
 1367DOPC   C4A16037  15.364   4.474  13.075 -0.2369 -0.0948  0.0601
 1367DOPC   C1B16038  15.020   3.125  12.952 -0.0954 -0.1701  0.1759
 1367DOPC   D2B16039  15.150   3.049  12.495  0.1366 -0.5635  0.1149
 1367DOPC   C3B16040  14.790   2.757  12.360  0.0933  0.0363  0.1221
 1367DOPC   C4B16041  14.497   2.380  12.324  0.1507 -0.2818 -0.0197
 1368DOPS   CNO16042  14.017   1.919  14.146 -0.2277  0.1588 -0.0467
 1368DOPS   PO416043  13.996   2.113  13.837  0.1164  0.0794 -0.2597
 1368DOPS   GL116044  14.269   2.073  13.534 -0.3659 -0.1742 -0.0381
 1368DOPS   GL216045  14.051   2.121  13.299 -0.0739 -0.0470 -0.1402
 1368DOPS   C1A16046  14.601   1.832  13.281  0.1817 -0.0144 -0.0064
 1368DOPS   D2A16047  14.674   1.525  12.967 -0.0906 -0.1464  0.1283
 1368DOPS   C3A16048  14.789   1.796  12.611  0.0523  0.0781  0.1236
 1368DOPS   C4A16049  14.863   2.122  12.256 -0.1227  0.3036 -0.2422
 1368DOPS   C1B16050  13.804   2.008  12.951  0.1056  0.0717  0.0836
 1368DOPS   D2B16051  13.599   1.576  12.830 -0.1184 -0.0244  0.4067
 1368DOPS   C3B16052  13.218   1.550  12.648  0.0860 -0.1704  0.0562
 1368DOPS   C4B16053  12.829   1.372  12.569  0.2592 -0.0388 -0.1079
 1369DOPC   NC316054  22.117  14.731  13.515 -0.0394 -0.2627 -0.5139
 1369DOPC   PO416055  22.358  14.958  13.312 -0.1279  0.3926  0.4305
 1369DOPC   GL116056  22.394  15.003  12.924  0.1475 -0.2688 -0.1946
 1369DOPC   GL216057  22.400  15.262  12.718 -0.0169 -0.4107  0.0056
 1369DOPC   C1A16058  22.374  14.729  12.567 -0.0538  0.0101  0.0508
 1369DOPC   D2A16059  22.147  14.475  12.251  0.0654 -0.1577 -0.0656
 1369DOPC   C3A16060  22.256  14.270  11.822  0.1149 -0.0903  0.1101
 1369DOPC   C4A16061  22.182  14.265  11.375 -0.0735 -0.1357  0.0359
 1369DOPC   C1B16062  22.482  15.160  12.260 -0.0120  0.2039  0.1729
 1369DOPC   D2B16063  22.757  15.266  11.866 -0.2183 -0.0183  0.2614
 1369DOPC   C3B16064  22.926  15.073  11.442 -0.1970 -0.1598 -0.0470
 1369DOPC   C4B16065  23.301  15.107  11.149  0.0955  0.2877  0.1708
 1370POSM   NC316066  23.802   6.312  14.410  0.3225  0.0683 -0.0517
 1370POSM   PO416067  23.554   6.208  14.092  0.0068 -0.1496  0.0591
 1370POSM   AM116068  23.387   6.155  13.813 -0.1277 -0.0517 -0.1140
 1370POSM   AM216069  23.190   6.269  13.649 -0.1006  0.0393 -0.0608
 1370POSM   T1A16070  23.471   6.138  13.306 -0.0696  0.1351  0.0059
 1370POSM   C2A16071  23.319   6.325  12.868  0.0313 -0.0142  0.0724
 1370POSM   C3A16072  22.957   6.510  12.563 -0.0570 -0.0590  0.1992
 1370POSM   C1B16073  23.087   6.463  13.372 -0.1453 -0.4250  0.0657
 1370POSM   D2B16074  23.111   6.745  13.049  0.1176 -0.2255 -0.1775
 1370POSM   C3B16075  23.268   7.012  12.723 -0.0178  0.4536 -0.0454
 1370POSM   C4B16076  23.292   7.273  12.394 -0.2294 -0.0048  0.0514
 1371DOPC   NC316077  16.139   1.702  14.086 -0.0678 -0.0861  0.1457
 1371DOPC   PO416078  16.285   2.096  13.979 -0.0919 -0.0029  0.1350
 1371DOPC   GL116079  16.362   2.253  13.613  0.0415 -0.3724  0.2793
 1371DOPC   GL216080  16.399   2.538  13.649  0.0873  0.0685  0.1633
 1371DOPC   C1A16081  16.294   2.166  13.162  0.2236  0.0690  0.1022
 1371DOPC   D2A16082  16.355   2.376  12.710  0.1839  0.2854 -0.5825
 1371DOPC   C3A16083  16.047   2.579  12.396 -0.0146  0.2188 -0.0830
 1371DOPC   C4A16084  15.678   2.733  12.176 -0.0108 -0.0494  0.0780
 1371DOPC   C1B16085  16.314   2.776  13.250  0.0552 -0.2463 -0.2464
 1371DOPC   D2B16086  16.282   2.891  12.853 -0.0810 -0.1908 -0.4396
 1371DOPC   C3B16087  16.526   2.727  12.475  0.0028  0.1414 -0.0596
 1371DOPC   C4B16088  16.958   2.951  12.480 -0.1705 -0.2067 -0.1159
 1372DOPC   NC316089  21.861   0.270  14.188  0.2372  0.0288  0.1713
 1372DOPC   PO416090  21.757  -0.070  14.218  0.0502 -0.0992  0.2745
 1372DOPC   GL116091  21.484  -0.107  13.845  0.0116 -0.3366 -0.3216
 1372DOPC   GL216092  21.635   0.144  13.677 -0.1671 -0.1271 -0.1727
 1372DOPC   C1A16093  21.560  -0.323  13.430 -0.2271 -0.0819  0.0927
 1372DOPC   D2A16094  21.669  -0.400  12.983 -0.2583  0.1641 -0.0346
 1372DOPC   C3A16095  21.413  -0.582  12.710 -0.1367  0.1895  0.3409
 1372DOPC   C4A16096  21.132  -0.401  12.336  0.1547  0.1685  0.1613
 1372DOPC   C1B16097  21.744   0.561  13.362 -0.4358 -0.1182  0.0703
 1372DOPC   D2B16098  21.844   0.978  13.180  0.1859  0.4863 -0.0783
 1372DOPC   C3B16099  22.102   1.214  12.880 -0.0218 -0.1313 -0.3255
 1372DOPC   C4B16100  22.120   1.135  12.402  0.2411  0.0418  0.1547
 1373DOPE   NH316101  18.797  34.232  14.019  0.2735  0.3006 -0.2224
 1373DOPE   PO416102  18.481  34.259  14.068  0.0410 -0.1275 -0.5076
 1373DOPE   GL116103  18.511  33.967  13.791  0.0923 -0.2908 -0.1128
 1373DOPE   GL216104  18.405  33.772  13.888  0.0092  0.1260  0.0037
 1373DOPE   C1A16105  18.718  34.111  13.410 -0.1581 -0.1649  0.0588
 1373DOPE   D2A16106  18.607  34.416  13.045  0.1062  0.0384 -0.0943
 1373DOPE   C3A16107  18.248  34.511  12.748 -0.1354 -0.1140 -0.2063
 1373DOPE   C4A16108  17.927  34.426  12.439 -0.0231  0.0498 -0.0110
 1373DOPE   C1B16109  18.222  33.924  13.469  0.2087  0.4034 -0.0264
 1373DOPE   D2B16110  18.325  33.990  12.984  0.0082  0.2739  0.0648
 1373DOPE   C3B16111  18.298  33.571  12.712  0.1761 -0.0550  0.3251
 1373DOPE   C4B16112  18.478  33.146  12.572  0.0162 -0.3010  0.1079
 1374POSM   NC316113  22.302  33.379  14.074  0.2688 -0.0411 -0.0748
 1374POSM   PO416114  22.096  33.695  14.148 -0.1727 -0.3487  0.0825
 1374POSM   AM116115  21.993  33.785  13.858 -0.1778  0.2106 -0.1556
 1374POSM   AM216116  22.005  33.996  13.681  0.2338 -0.1190  0.3621
 1374POSM   T1A16117  21.661  33.737  13.449  0.1598  0.1936  0.0107
 1374POSM   C2A16118  21.603  33.765  12.997 -0.3387  0.0626 -0.2210
 1374POSM   C3A16119  21.897  33.878  12.683 -0.2134 -0.1656  0.0292
 1374POSM   C1B16120  22.021  34.034  13.313  0.0895 -0.1105 -0.1330
 1374POSM   D2B16121  22.201  34.306  12.996  0.4716  0.0162 -0.2008
 1374POSM   C3B16122  22.150  34.300  12.534  0.1976 -0.2582 -0.1204
 1374POSM   C4B16123  22.350  34.116  12.161  0.2171 -0.1092  0.1736
 1375POSM   NC316124  17.828   7.788  14.553 -0.0560 -0.0135  0.1991
 1375POSM   PO416125  17.593   8.106  14.460  0.2081  0.1549 -0.1354
 1375POSM   AM116126  17.643   8.251  14.144  0.4057  0.2129  0.2268
 1375POSM   AM216127  17.681   8.161  13.859  0.2470 -0.2952 -0.2988
 1375POSM   T1A16128  17.478   8.624  13.870  0.2633 -0.1835 -0.2170
 1375POSM   C2A16129  17.491   8.707  13.456 -0.0810 -0.1422  0.2171
 1375POSM   C3A16130  17.467   8.391  13.112 -0.3135  0.0461 -0.2522
 1375POSM   C1B16131  17.676   8.241  13.552  0.0760 -0.3365  0.0044
 1375POSM   D2B16132  17.802   8.053  13.114 -0.0160  0.2364  0.2678
 1375POSM   C3B16133  17.598   7.683  12.880 -0.0084 -0.0116  0.0124
 1375POSM   C4B16134  17.654   7.233  12.768  0.1096 -0.0179  0.0575
 1376DOPE   NH316135  13.640   2.972  13.434  0.4379 -0.2594 -0.1447
 1376DOPE   PO416136  13.392   2.769  13.365  0.1849 -0.1016 -0.1968
 1376DOPE   GL116137  13.573   2.769  13.019  0.0491  0.0505 -0.2060
 1376DOPE   GL216138  13.365   2.588  12.886 -0.1512 -0.3477 -0.4081
 1376DOPE   C1A16139  13.538   3.011  12.597 -0.0276 -0.1695  0.0313
 1376DOPE   D2A16140  13.580   2.920  12.161  0.0656 -0.1023 -0.1351
 1376DOPE   C3A16141  13.928   3.059  11.969 -0.2882  0.0401  0.2367
 1376DOPE   C4A16142  14.303   3.213  11.758 -0.1966  0.2208 -0.2222
 1376DOPE   C1B16143  13.457   2.532  12.460  0.0514 -0.2121  0.0113
 1376DOPE   D2B16144  13.629   2.289  12.045  0.1969 -0.1134 -0.0882
 1376DOPE   C3B16145  13.742   2.610  11.754 -0.0131  0.0606 -0.0748
 1376DOPE   C4B16146  14.206   2.725  11.645  0.2991 -0.0316  0.1568
 1377POSM   NC316147  11.891   1.511  14.059  0.0129  0.0282 -0.0639
 1377POSM   PO416148  11.805   1.783  13.820 -0.1643  0.1184  0.2659
 1377POSM   AM116149  11.655   1.794  13.528  0.0341  0.2786 -0.1093
 1377POSM   AM216150  11.575   1.613  13.320 -0.1489  0.4114  0.1203
 1377POSM   T1A16151  11.667   2.090  13.114 -0.2945  0.1269  0.0594
 1377POSM   C2A16152  11.569   2.115  12.708  0.4089 -0.0206  0.1541
 1377POSM   C3A16153  11.442   2.099  12.231 -0.0235 -0.0090  0.0347
 1377POSM   C1B16154  11.640   1.483  12.975  0.1078  0.1191 -0.1535
 1377POSM   D2B16155  11.634   1.580  12.474  0.1690  0.4084 -0.1106
 1377POSM   C3B16156  12.059   1.423  12.406 -0.0058 -0.1044 -0.1325
 1377POSM   C4B16157  12.407   1.098  12.527 -0.0463 -0.0673  0.0243
 1378DOPE   NH316158  16.162   9.611  14.463  0.2848 -0.0637  0.2107
 1378DOPE   PO416159  15.815   9.580  14.511  0.0480  0.1311  0.2909
 1378DOPE   GL116160  15.716   9.247  14.225 -0.0358 -0.3689  0.0482
 1378DOPE   GL216161  15.464   9.437  14.141  0.0552 -0.0619  0.3475
 1378DOPE   C1A16162  15.777   9.228  13.747  0.0725 -0.4549  0.1438
 1378DOPE   D2A16163  15.720   9.123  13.281  0.3456  0.1385 -0.1455
 1378DOPE   C3A16164  15.440   9.475  13.069 -0.0983 -0.0845  0.0691
 1378DOPE   C4A16165  15.293   9.895  13.082 -0.0197 -0.0015  0.0716
 1378DOPE   C1B16166  15.051   9.578  14.022 -0.2851 -0.0037  0.0778
 1378DOPE   D2B16167  14.595   9.589  14.006 -0.1743 -0.1091 -0.0088
 1378DOPE   C3B16168  14.402   9.688  13.620 -0.1528  0.1522 -0.1966
 1378DOPE   C4B16169  14.405   9.872  13.216 -0.2128 -0.1273  0.0151
 1379POSM   NC316170  11.075   6.175  14.504 -0.3044  0.3109  0.3465
 1379POSM   PO416171  11.418   6.376  14.636 -0.4806 -0.1235  0.0141
 1379POSM   AM116172  11.402   6.504  14.358  0.0477 -0.0331 -0.0311
 1379POSM   AM216173  11.208   6.509  14.132 -0.2191  0.0760 -0.0976
 1379POSM   T1A16174  11.488   6.841  13.968 -0.3550 -0.1607 -0.3702
 1379POSM   C2A16175  11.487   7.228  13.704  0.2588  0.0383 -0.0536
 1379POSM   C3A16176  11.616   7.670  13.607  0.0779 -0.0541 -0.1630
 1379POSM   C1B16177  11.116   6.399  13.807  0.1635  0.4769  0.1073
 1379POSM   D2B16178  10.936   6.410  13.405 -0.0392 -0.1190  0.0677
 1379POSM   C3B16179  11.177   6.275  13.001  0.1777  0.1724  0.0524
 1379POSM   C4B16180  11.238   6.369  12.540  0.0104 -0.1789 -0.3083
 1380DOPS   CNO16181  19.716   1.119  13.945 -0.2578 -0.2907  0.0112
 1380DOPS   PO416182  20.088   1.200  14.011 -0.0560 -0.0208  0.0972
 1380DOPS   GL116183  19.895   1.502  13.814 -0.1991 -0.1292 -0.0745
 1380DOPS   GL216184  19.617   1.556  13.750 -0.1051 -0.0466 -0.0037
 1380DOPS   C1A16185  19.918   1.578  13.368 -0.2143  0.0055 -0.3589
 1380DOPS   D2A16186  19.918   1.691  12.992 -0.3723  0.0016 -0.0597
 1380DOPS   C3A16187  19.664   1.483  12.709 -0.1864  0.0402 -0.1653
 1380DOPS   C4A16188  19.316   1.460  12.434 -0.0194  0.2357  0.1330
 1380DOPS   C1B16189  19.778   1.975  13.725 -0.1080  0.1489 -0.1088
 1380DOPS   D2B16190  19.546   2.394  13.797 -0.0675  0.0851  0.1351
 1380DOPS   C3B16191  19.083   2.440  13.918 -0.1584  0.4532 -0.0346
 1380DOPS   C4B16192  18.630   2.348  13.914  0.3290 -0.2409 -0.0572
 1381DOPC   NC316193  17.957   8.464  14.508 -0.1317 -0.2011  0.1067
 1381DOPC   PO416194  18.072   8.150  14.328  0.0266  0.2262 -0.2812
 1381DOPC   GL116195  18.388   8.062  14.002  0.1560 -0.1037  0.4823
 1381DOPC   GL216196  18.268   7.936  13.810 -0.1717  0.0634 -0.0906
 1381DOPC   C1A16197  18.710   8.241  13.747  0.2175 -0.0727  0.0170
 1381DOPC   D2A16198  18.797   8.008  13.318 -0.1446  0.2503 -0.2066
 1381DOPC   C3A16199  18.710   8.225  12.921 -0.2015  0.0544 -0.2302
 1381DOPC   C4A16200  18.517   8.573  12.568 -0.0861 -0.0969  0.1126
 1381DOPC   C1B16201  18.254   8.217  13.499  0.4143 -0.0861 -0.2385
 1381DOPC   D2B16202  18.273   8.375  13.076 -0.1395  0.0240 -0.1662
 1381DOPC   C3B16203  17.884   8.634  12.880  0.0126  0.1159 -0.1916
 1381DOPC   C4B16204  17.511   8.896  12.848  0.1302 -0.2283  0.1619
 1382DOPS   CNO16205  13.854  11.052  15.273 -0.0742  0.0834  0.2748
 1382DOPS   PO416206  13.635  11.016  15.008 -0.1290 -0.0954 -0.2059
 1382DOPS   GL116207  13.496  11.004  14.635  0.0287  0.3687 -0.2772
 1382DOPS   GL216208  13.238  10.951  14.650 -0.0817  0.1679  0.4240
 1382DOPS   C1A16209  13.722  11.022  14.198  0.3261  0.1892  0.1667
 1382DOPS   D2A16210  14.014  11.309  13.980 -0.0418 -0.2432  0.2570
 1382DOPS   C3A16211  13.909  11.337  13.522 -0.1905 -0.2026 -0.1798
 1382DOPS   C4A16212  13.845  11.513  13.114 -0.2953 -0.4057  0.0426
 1382DOPS   C1B16213  13.302  10.741  14.271 -0.1686 -0.2505 -0.1245
 1382DOPS   D2B16214  13.124  10.762  13.825 -0.1631 -0.0344 -0.0209
 1382DOPS   C3B16215  13.237  10.588  13.458 -0.1118  0.2858 -0.0483
 1382DOPS   C4B16216  13.221  10.735  12.986  0.0552 -0.3164  0.0427
 1383DOPE   NH316217  20.432   7.064  14.399  0.4032 -0.1515  0.1910
 1383DOPE   PO416218  20.255   7.130  14.139  0.1825  0.3459 -0.1497
 1383DOPE   GL116219  20.067   7.088  13.889  0.1138 -0.1165  0.0009
 1383DOPE   GL216220  19.852   6.818  13.918 -0.1388 -0.1162  0.2378
 1383DOPE   C1A16221  19.874   7.237  13.516 -0.1604  0.0844  0.0408
 1383DOPE   D2A16222  19.965   7.409  13.089  0.2357  0.0541 -0.2518
 1383DOPE   C3A16223  20.107   7.569  12.686 -0.3739  0.2528  0.0381
 1383DOPE   C4A16224  20.154   7.503  12.147  0.1714 -0.1894  0.1996
 1383DOPE   C1B16225  19.695   6.734  13.525 -0.1609 -0.1838  0.1603
 1383DOPE   D2B16226  19.725   6.935  13.126 -0.1110  0.2866 -0.0916
 1383DOPE   C3B16227  20.152   6.984  12.891  0.1969 -0.2034 -0.1814
 1383DOPE   C4B16228  20.269   7.059  12.438 -0.2255  0.0767 -0.1339
 1384DOPC   NC316229  13.539   7.376  14.621  0.1998 -0.0174 -0.0595
 1384DOPC   PO416230  13.812   7.636  14.663  0.1004  0.1750  0.1652
 1384DOPC   GL116231  14.084   7.826  14.438 -0.0311 -0.2323 -0.4546
 1384DOPC   GL216232  14.312   7.835  14.610 -0.0079 -0.1647 -0.0290
 1384DOPC   C1A16233  14.144   7.617  14.022 -0.0085 -0.0488 -0.2028
 1384DOPC   D2A16234  14.196   7.365  13.650  0.3421  0.1374 -0.0896
 1384DOPC   C3A16235  14.520   7.409  13.341  0.0815  0.0699  0.1551
 1384DOPC   C4A16236  14.621   7.516  12.902 -0.0026 -0.0444  0.1394
 1384DOPC   C1B16237  14.709   7.689  14.390 -0.0307  0.1594  0.1004
 1384DOPC   D2B16238  15.091   7.492  14.264  0.1461  0.1334  0.2738
 1384DOPC   C3B16239  15.185   7.128  13.947 -0.1593 -0.1061 -0.1158
 1384DOPC   C4B16240  15.168   6.985  13.510 -0.0531 -0.1398 -0.1352
 1385DOPS   CNO16241  10.725   1.104  14.390  0.3603  0.0233 -0.6037
 1385DOPS   PO416242  11.067   1.299  14.388 -0.0141  0.0704  0.1994
 1385DOPS   GL116243  11.220   1.204  14.056 -0.3823 -0.0790  0.1012
 1385DOPS   GL216244  11.013   1.375  13.862  0.0282 -0.0020 -0.1377
 1385DOPS   C1A16245  11.476   1.225  13.672  0.1734  0.2414 -0.0253
 1385DOPS   D2A16246  11.731   1.026  13.300  0.2454  0.0087 -0.1187
 1385DOPS   C3A16247  12.001   0.714  13.182 -0.0447  0.1482  0.0240
 1385DOPS   C4A16248  12.098   0.482  12.740  0.1499 -0.0463  0.0459
 1385DOPS   C1B16249  10.988   1.263  13.416 -0.0951 -0.3725 -0.0801
 1385DOPS   D2B16250  11.306   1.175  13.149  0.2105 -0.1948 -0.0031
 1385DOPS   C3B16251  11.435   1.152  12.650 -0.0471  0.0772 -0.1078
 1385DOPS   C4B16252  11.608   1.107  12.245  0.1281 -0.0945  0.4484
 1386DOPC   NC316253  16.876   3.149  15.029 -0.2732 -0.0111 -0.3357
 1386DOPC   PO416254  16.958   3.292  14.665  0.1456  0.0908 -0.2945
 1386DOPC   GL116255  16.798   3.438  14.300  0.2499  0.2961  0.0509
 1386DOPC   GL216256  16.480   3.323  14.070 -0.0105 -0.2446  0.1215
 1386DOPC   C1A16257  16.765   3.797  14.011 -0.0624  0.0887  0.0427
 1386DOPC   D2A16258  16.656   4.173  13.803  0.1037  0.0925 -0.0070
 1386DOPC   C3A16259  16.940   4.087  13.440 -0.0896 -0.1068  0.0459
 1386DOPC   C4A16260  17.239   4.248  13.103  0.3879  0.3870  0.0972
 1386DOPC   C1B16261  16.474   3.158  13.622  0.0696  0.2779 -0.4442
 1386DOPC   D2B16262  16.707   3.014  13.308 -0.1236 -0.1449  0.1241
 1386DOPC   C3B16263  16.887   3.297  12.965 -0.0240 -0.0101 -0.0854
 1386DOPC   C4B16264  17.318   3.330  12.742 -0.0324 -0.1132 -0.1178
 1387DOPE   NH316265  20.747  10.632  14.502 -0.1034  0.1228  0.1204
 1387DOPE   PO416266  20.831  10.360  14.310  0.0223 -0.1723  0.0016
 1387DOPE   GL116267  20.875  10.454  13.907  0.1846 -0.3970 -0.1745
 1387DOPE   GL216268  20.894  10.196  13.813  0.0523 -0.1428 -0.1104
 1387DOPE   C1A16269  21.186  10.572  13.629 -0.3165 -0.0526  0.0371
 1387DOPE   D2A16270  21.491  10.398  13.426 -0.0536  0.3215 -0.0304
 1387DOPE   C3A16271  21.306  10.182  13.038 -0.0670 -0.1613  0.0275
 1387DOPE   C4A16272  20.975  10.286  12.717 -0.0422  0.0237 -0.2510
 1387DOPE   C1B16273  20.775   9.888  13.472  0.2663 -0.1678  0.0398
 1387DOPE   D2B16274  21.009   9.838  13.072 -0.0669 -0.1835 -0.0305
 1387DOPE   C3B16275  20.715   9.873  12.731 -0.0085 -0.1415 -0.0338
 1387DOPE   C4B16276  20.655   9.845  12.283  0.2218 -0.2814  0.0564
 1388POSM   NC316277  19.584   8.616  14.660  0.0855 -0.0386  0.0293
 1388POSM   PO416278  19.395   8.965  14.634 -0.0989  0.2684 -0.2255
 1388POSM   AM116279  19.378   9.011  14.280 -0.0079  0.0700 -0.1379
 1388POSM   AM216280  19.205   9.032  14.093 -0.3137 -0.0632  0.0522
 1388POSM   T1A16281  19.613   9.183  13.876  0.0307  0.1512  0.1841
 1388POSM   C2A16282  19.604   9.628  13.630  0.0368  0.0403  0.2305
 1388POSM   C3A16283  19.687   9.951  13.348  0.2062 -0.3486  0.1169
 1388POSM   C1B16284  19.208   8.945  13.788  0.0232 -0.0296 -0.2632
 1388POSM   D2B16285  19.204   9.049  13.314 -0.4157  0.1248  0.0535
 1388POSM   C3B16286  19.451   9.273  12.991  0.2442  0.1315 -0.1136
 1388POSM   C4B16287  19.844   9.088  12.858 -0.2783 -0.0338  0.1200
 1389DOPE   NH316288  16.445   8.864  14.751  0.4694 -0.1755 -0.2317
 1389DOPE   PO416289  16.636   8.738  14.526 -0.3452 -0.0122  0.2200
 1389DOPE   GL116290  16.955   8.653  14.282  0.1360  0.3351 -0.4092
 1389DOPE   GL216291  16.923   8.685  14.044  0.4855 -0.2351 -0.0224
 1389DOPE   C1A16292  17.210   9.010  14.182  0.2617 -0.0801  0.5177
 1389DOPE   D2A16293  17.467   9.194  13.901  0.2019 -0.2260  0.0090
 1389DOPE   C3A16294  17.749   9.140  13.568 -0.1114  0.2712 -0.0160
 1389DOPE   C4A16295  18.242   9.113  13.560  0.0208  0.1579 -0.1619
 1389DOPE   C1B16296  17.014   8.647  13.609  0.1420  0.0463 -0.1086
 1389DOPE   D2B16297  17.034   8.809  13.199  0.3300 -0.3210  0.2403
 1389DOPE   C3B16298  17.071   8.633  12.769 -0.1159  0.0057 -0.2078
 1389DOPE   C4B16299  17.093   8.793  12.327 -0.2197  0.3489 -0.0830
 1390POSM   NC316300  18.938   8.873  14.544 -0.2277  0.0886 -0.1409
 1390POSM   PO416301  19.113   8.532  14.503 -0.0049  0.1599 -0.1940
 1390POSM   AM116302  19.273   8.512  14.223 -0.1060 -0.0837 -0.2085
 1390POSM   AM216303  19.514   8.611  14.114 -0.0964 -0.2740 -0.1620
 1390POSM   T1A16304  19.201   8.397  13.734 -0.0851 -0.3387 -0.1027
 1390POSM   C2A16305  19.189   8.461  13.250 -0.1727 -0.0219  0.2361
 1390POSM   C3A16306  19.470   8.670  12.902  0.0216  0.1429 -0.0705
 1390POSM   C1B16307  19.610   8.638  13.824  0.0800 -0.0265  0.3248
 1390POSM   D2B16308  19.660   8.657  13.374  0.0504  0.0293  0.0638
 1390POSM   C3B16309  19.780   9.066  13.364  0.1732  0.2243  0.0001
 1390POSM   C4B16310  19.978   9.442  13.131  0.0077 -0.0579 -0.1014
 1391DOPC   NC316311  21.434   3.900  13.727  0.0133  0.0536  0.0413
 1391DOPC   PO416312  21.407   4.310  13.599 -0.3991 -0.1900 -0.2118
 1391DOPC   GL116313  21.380   4.207  13.310  0.2178  0.0858  0.2470
 1391DOPC   GL216314  21.215   3.946  13.294 -0.1390  0.0366  0.0396
 1391DOPC   C1A16315  21.453   4.332  12.887  0.1231  0.0204  0.0929
 1391DOPC   D2A16316  21.448   4.575  12.498 -0.1595 -0.0941  0.0784
 1391DOPC   C3A16317  21.225   4.982  12.339 -0.0789  0.1149 -0.2486
 1391DOPC   C4A16318  21.255   5.235  11.945  0.1132 -0.0282  0.2244
 1391DOPC   C1B16319  21.295   3.840  12.834  0.2050 -0.0783 -0.0173
 1391DOPC   D2B16320  21.194   4.013  12.389  0.2142 -0.0650 -0.2436
 1391DOPC   C3B16321  21.508   4.171  12.084 -0.1645  0.1697  0.0331
 1391DOPC   C4B16322  21.871   4.330  11.862 -0.0042 -0.0934 -0.2578
 1392DOPE   NH316323  19.372   9.996  14.075  0.2476  0.0442 -0.0617
 1392DOPE   PO416324  19.171   9.856  14.262 -0.2111  0.0238  0.1944
 1392DOPE   GL116325  19.015   9.659  13.915 -0.1823 -0.1250  0.1291
 1392DOPE   GL216326  19.170   9.494  13.753 -0.2531 -0.3121  0.1029
 1392DOPE   C1A16327  18.691   9.539  13.613 -0.0301 -0.0657  0.1737
 1392DOPE   D2A16328  18.306   9.587  13.433  0.3195  0.3173 -0.1176
 1392DOPE   C3A16329  18.008   9.329  13.175 -0.0129  0.0775  0.1789
 1392DOPE   C4A16330  17.772   9.342  12.762 -0.2712 -0.0944 -0.0218
 1392DOPE   C1B16331  19.151   9.547  13.324 -0.0136 -0.1321  0.3633
 1392DOPE   D2B16332  19.217   9.808  12.961  0.2522 -0.2397 -0.3274
 1392DOPE   C3B16333  18.869   9.906  12.635  0.0648  0.0434  0.0696
 1392DOPE   C4B16334  18.511  10.013  12.376  0.1019  0.2530 -0.0260
 1393POSM   NC316335  16.746   1.059  14.411  0.0716 -0.0417 -0.0162
 1393POSM   PO416336  17.147   0.988  14.381  0.3402  0.0412  0.1690
 1393POSM   AM116337  17.127   0.892  14.087  0.1090 -0.0964  0.1492
 1393POSM   AM216338  17.160   0.668  13.841 -0.2789 -0.3427  0.0349
 1393POSM   T1A16339  17.121   1.078  13.595  0.0433  0.0010 -0.1366
 1393POSM   C2A16340  17.029   1.024  13.140  0.0305  0.2556 -0.0425
 1393POSM   C3A16341  16.923   0.842  12.742  0.1301 -0.0077  0.1465
 1393POSM   C1B16342  17.369   0.614  13.598 -0.0661  0.3563 -0.1806
 1393POSM   D2B16343  17.567   0.448  13.194 -0.0153  0.1421 -0.0197
 1393POSM   C3B16344  17.490   0.381  12.767 -0.0778  0.1046 -0.2131
 1393POSM   C4B16345  17.200   0.450  12.459  0.0558 -0.1306  0.2378
 1394DOPE   NH316346  21.616   8.952  14.636  0.4061 -0.1122  0.2099
 1394DOPE   PO416347  21.483   9.071  14.384 -0.1540  0.0190 -0.2801
 1394DOPE   GL116348  21.518   8.991  14.022 -0.1205  0.0530  0.0602
 1394DOPE   GL216349  21.435   8.692  13.903 -0.2240  0.0350 -0.0755
 1394DOPE   C1A16350  21.716   8.993  13.607 -0.2886  0.0589  0.1537
 1394DOPE   D2A16351  21.876   9.024  13.138 -0.1073 -0.0770 -0.4486
 1394DOPE   C3A16352  21.922   9.322  12.744  0.1301  0.6311 -0.1470
 1394DOPE   C4A16353  22.028   9.645  12.379  0.0801  0.4316 -0.0751
 1394DOPE   C1B16354  21.332   8.505  13.408 -0.0621  0.3539 -0.0505
 1394DOPE   D2B16355  21.233   8.193  13.107  0.2832 -0.1653  0.1876
 1394DOPE   C3B16356  21.147   8.211  12.672 -0.1832 -0.2108  0.2399
 1394DOPE   C4B16357  21.460   8.457  12.380  0.1723 -0.1270 -0.0897
 1395DOPE   NH316358  13.458   1.885  13.952 -0.2669  0.1058  0.3261
 1395DOPE   PO416359  13.247   1.732  14.076 -0.1607 -0.0551 -0.2198
 1395DOPE   GL116360  12.989   1.760  13.811 -0.3760  0.0247 -0.0181
 1395DOPE   GL216361  13.077   1.789  13.565 -0.1837 -0.3347  0.1529
 1395DOPE   C1A16362  12.770   1.457  13.541 -0.0570 -0.0661 -0.0366
 1395DOPE   D2A16363  12.387   1.244  13.362  0.3768 -0.1416 -0.1618
 1395DOPE   C3A16364  12.612   1.238  12.980  0.2868 -0.0390  0.0120
 1395DOPE   C4A16365  13.060   1.268  13.071  0.0427 -0.4179  0.0522
 1395DOPE   C1B16366  12.836   1.809  13.133 -0.1829  0.0522  0.1231
 1395DOPE   D2B16367  12.500   1.722  12.756  0.2475 -0.3655  0.2101
 1395DOPE   C3B16368  12.068   1.879  12.660  0.3539 -0.4141 -0.1093
 1395DOPE   C4B16369  11.961   2.074  12.343 -0.1054  0.0159 -0.0302
 1396DOPE   NH316370  19.850   7.730  14.199  0.1994  0.1402 -0.0781
 1396DOPE   PO416371  20.099   7.583  14.092  0.0926  0.1327 -0.0153
 1396DOPE   GL116372  20.243   7.623  13.727 -0.0995 -0.1222 -0.1265
 1396DOPE   GL216373  20.141   7.665  13.426  0.2289  0.2583 -0.4088
 1396DOPE   C1A16374  20.641   7.759  13.446 -0.1262  0.0457 -0.2332
 1396DOPE   D2A16375  20.841   7.885  13.022  0.2698  0.0187  0.2368
 1396DOPE   C3A16376  20.584   8.012  12.652  0.1616 -0.0713  0.0474
 1396DOPE   C4A16377  20.534   8.441  12.443 -0.0187 -0.2429  0.0673
 1396DOPE   C1B16378  19.799   7.850  13.228 -0.0680  0.0392  0.2736
 1396DOPE   D2B16379  19.686   8.262  13.033 -0.4262  0.5026 -0.1063
 1396DOPE   C3B16380  19.663   8.334  12.599  0.2781 -0.0232 -0.1519
 1396DOPE   C4B16381  19.715   8.724  12.377  0.0279  0.0555  0.1102
 1397DOPE   NH316382  12.848   0.225  14.341 -0.3245  0.1278  0.1931
 1397DOPE   PO416383  12.769   0.288  14.031 -0.1559  0.0142  0.4316
 1397DOPE   GL116384  12.860   0.256  13.680 -0.1509  0.3707  0.2117
 1397DOPE   GL216385  12.636   0.132  13.559 -0.0405  0.1247  0.1023
 1397DOPE   C1A16386  12.895   0.405  13.230  0.2013 -0.0986  0.0613
 1397DOPE   D2A16387  13.114   0.668  12.919 -0.1117  0.1798 -0.0042
 1397DOPE   C3A16388  12.887   0.869  12.496 -0.0733 -0.1393 -0.1009
 1397DOPE   C4A16389  12.644   0.815  12.088 -0.0234 -0.0390  0.0633
 1397DOPE   C1B16390  12.700  -0.246  13.424  0.0843  0.1433 -0.2243
 1397DOPE   D2B16391  12.516  -0.391  13.030 -0.1804 -0.1162 -0.1526
 1397DOPE   C3B16392  12.699  -0.794  12.821  0.1045 -0.4923 -0.1538
 1397DOPE   C4B16393  13.033  -1.165  12.817  0.1740 -0.0050  0.2376
 1398POSM   NC316394  21.139   3.350  14.618  0.3920  0.1879 -0.1638
 1398POSM   PO416395  20.827   3.108  14.583  0.1235  0.1474  0.0727
 1398POSM   AM116396  20.853   3.084  14.262 -0.1453  0.0191  0.2411
 1398POSM   AM216397  21.108   3.203  14.104  0.2802 -0.3498 -0.0889
 1398POSM   T1A16398  20.841   2.676  13.916  0.0772  0.2445 -0.1944
 1398POSM   C2A16399  21.036   2.246  13.829  0.1732  0.0404 -0.2099
 1398POSM   C3A16400  21.296   2.074  13.479 -0.0981  0.0940 -0.5394
 1398POSM   C1B16401  21.049   3.130  13.733  0.0444 -0.0576 -0.1848
 1398POSM   D2B16402  20.905   3.074  13.268 -0.1762  0.0259  0.2016
 1398POSM   C3B16403  20.590   3.224  12.948  0.1122  0.0178  0.1989
 1398POSM   C4B16404  20.596   3.292  12.512  0.0980  0.0546  0.1106
 1399DOPE   NH316405  22.503   6.287  14.011  0.0763 -0.0545 -0.1693
 1399DOPE   PO416406  22.760   6.095  13.859  0.1022 -0.1459 -0.2299
 1399DOPE   GL116407  22.742   6.135  13.494 -0.2097 -0.4276 -0.0194
 1399DOPE   GL216408  22.513   6.368  13.523 -0.3360 -0.1747 -0.2073
 1399DOPE   C1A16409  22.990   6.065  13.080  0.1267  0.2469 -0.2962
 1399DOPE   D2A16410  23.036   6.006  12.613  0.0491 -0.0199  0.1179
 1399DOPE   C3A16411  22.984   5.563  12.451 -0.3038  0.3360  0.0574
 1399DOPE   C4A16412  22.864   5.388  12.060 -0.2648 -0.2703  0.0178
 1399DOPE   C1B16413  22.654   6.633  13.214  0.0719  0.1850 -0.3759
 1399DOPE   D2B16414  22.603   6.798  12.804  0.3176  0.1544  0.0676
 1399DOPE   C3B16415  22.192   7.042  12.699 -0.1754 -0.1030 -0.0115
 1399DOPE   C4B16416  21.877   7.370  12.534 -0.1857 -0.0743  0.0097
 1400DOPE   NH316417  24.596   8.854  13.797  0.0861 -0.1126  0.0289
 1400DOPE   PO416418  24.556   9.003  13.523 -0.1107  0.1745 -0.3537
 1400DOPE   GL116419  24.649   9.042  13.194 -0.0037  0.0406 -0.1107
 1400DOPE   GL216420  24.591   8.736  13.023  0.1926  0.0359  0.5448
 1400DOPE   C1A16421  24.539   9.352  12.833  0.3519  0.2023  0.0501
 1400DOPE   D2A16422  24.172   9.472  12.678  0.2064 -0.4201 -0.2752
 1400DOPE   C3A16423  24.031   9.347  12.199 -0.0846  0.1802  0.0685
 1400DOPE   C4A16424  24.404   9.271  11.854 -0.0415  0.2486  0.1842
 1400DOPE   C1B16425  24.818   8.980  12.722  0.0298 -0.1752  0.2164
 1400DOPE   D2B16426  25.088   9.299  12.619  0.0404 -0.2733 -0.0884
 1400DOPE   C3B16427  25.402   9.101  12.316 -0.1006 -0.4089  0.0287
 1400DOPE   C4B16428  25.662   8.858  12.173 -0.0059  0.2061  0.2798
 1401POSM   NC316429  19.559   1.892  14.421 -0.0723  0.2121  0.2093
 1401POSM   PO416430  19.687   1.537  14.259 -0.1801 -0.0688  0.0899
 1401POSM   AM116431  19.954   1.758  14.179 -0.0158  0.1213  0.2940
 1401POSM   AM216432  20.264   1.798  14.191  0.1867  0.0550 -0.1086
 1401POSM   T1A16433  20.073   2.270  14.079 -0.0427 -0.0780 -0.0034
 1401POSM   C2A16434  20.332   2.656  14.076  0.2143  0.0203  0.0698
 1401POSM   C3A16435  20.571   3.032  13.919 -0.0232 -0.0854 -0.3022
 1401POSM   C1B16436  20.305   1.871  13.847 -0.4789 -0.1606 -0.1204
 1401POSM   D2B16437  20.226   1.996  13.412 -0.1550  0.0483  0.0346
 1401POSM   C3B16438  20.370   1.729  13.089  0.1643 -0.1849  0.2868
 1401POSM   C4B16439  20.671   1.487  12.877 -0.1760  0.1056  0.1419
 1402DOPC   NC316440  15.703   8.786  14.507  0.1865  0.2060  0.0475
 1402DOPC   PO416441  16.076   8.655  14.435  0.2496 -0.0431  0.2425
 1402DOPC   GL116442  16.199   8.910  14.177  0.0930 -0.0025  0.0639
 1402DOPC   GL216443  16.407   8.718  14.028  0.2405 -0.1745  0.1168
 1402DOPC   C1A16444  16.131   8.887  13.693 -0.0098  0.0571  0.3314
 1402DOPC   D2A16445  16.044   8.794  13.240  0.1673  0.1574 -0.0963
 1402DOPC   C3A16446  15.761   8.604  12.982  0.1634 -0.1385 -0.0273
 1402DOPC   C4A16447  15.515   8.648  12.562 -0.2405  0.2492  0.1853
 1402DOPC   C1B16448  16.652   9.004  13.757 -0.1241  0.1791 -0.0088
 1402DOPC   D2B16449  17.061   9.116  13.618 -0.0134 -0.0094 -0.1983
 1402DOPC   C3B16450  17.253   9.253  13.247 -0.1783 -0.1942  0.2309
 1402DOPC   C4B16451  17.273   9.337  12.790 -0.3359  0.0126 -0.0303
 1403DOPE   NH316452  11.237   0.852  14.521  0.1306 -0.0245 -0.2116
 1403DOPE   PO416453  11.426   0.909  14.300  0.0301 -0.1178  0.3372
 1403DOPE   GL116454  11.295   0.748  14.001  0.1266  0.0176 -0.1178
 1403DOPE   GL216455  11.079   0.468  13.959  0.0353  0.0449  0.2174
 1403DOPE   C1A16456  11.226   0.830  13.513  0.1962 -0.4151 -0.1981
 1403DOPE   D2A16457  11.108   0.664  13.127 -0.3892 -0.1687  0.1727
 1403DOPE   C3A16458  10.813   0.736  12.787  0.2616 -0.0065 -0.2389
 1403DOPE   C4A16459  10.490   1.052  12.566  0.1489 -0.0743  0.1940
 1403DOPE   C1B16460  11.100   0.125  13.685 -0.0228  0.1567 -0.1422
 1403DOPE   D2B16461  10.940  -0.238  13.504  0.1461  0.1263  0.2476
 1403DOPE   C3B16462  10.975  -0.256  13.067 -0.3130  0.0450  0.0005
 1403DOPE   C4B16463  10.743  -0.243  12.623 -0.0194 -0.2466 -0.1840
 1404DOPC   NC316464  21.562   5.422  13.644  0.0614  0.2596 -0.1476
 1404DOPC   PO416465  21.754   5.770  13.817 -0.0178  0.3096  0.0958
 1404DOPC   GL116466  21.836   5.674  13.368  0.3096  0.1183 -0.3405
 1404DOPC   GL216467  22.024   5.856  13.359 -0.2150 -0.0120 -0.0302
 1404DOPC   C1A16468  21.799   5.933  12.918 -0.1378  0.0414 -0.0543
 1404DOPC   D2A16469  22.106   5.952  12.614  0.0588 -0.5573 -0.0465
 1404DOPC   C3A16470  21.994   6.204  12.226  0.3870 -0.1383  0.2294
 1404DOPC   C4A16471  21.865   6.415  11.863  0.0874 -0.4157 -0.0918
 1404DOPC   C1B16472  22.230   5.618  12.976 -0.2293 -0.0976 -0.1103
 1404DOPC   D2B16473  22.543   5.670  12.654 -0.2795  0.3635 -0.0675
 1404DOPC   C3B16474  22.383   5.730  12.220 -0.0175  0.1944  0.1812
 1404DOPC   C4B16475  22.122   5.520  11.921 -0.1716 -0.1408  0.0164
 1405POSM   NC316476  12.007  30.495  13.896 -0.2176  0.0113  0.3322
 1405POSM   PO416477  12.014  30.886  13.823 -0.0058 -0.0397  0.1659
 1405POSM   AM116478  12.221  30.872  13.567 -0.1267  0.0319  0.0576
 1405POSM   AM216479  12.419  31.103  13.505  0.1649 -0.3364 -0.0475
 1405POSM   T1A16480  12.290  30.741  13.077 -0.0384  0.1168 -0.2397
 1405POSM   C2A16481  12.682  30.761  12.853  0.0944  0.1796  0.0713
 1405POSM   C3A16482  13.053  30.879  12.564 -0.0666 -0.2078 -0.1243
 1405POSM   C1B16483  12.644  31.127  13.178  0.0429  0.2614  0.1047
 1405POSM   D2B16484  12.823  31.300  12.838  0.1153  0.0943 -0.1089
 1405POSM   C3B16485  12.640  31.230  12.486  0.1797  0.3592  0.0152
 1405POSM   C4B16486  12.609  31.397  12.056 -0.1237 -0.2943  0.4163
 1406DOPE   NH316487  17.139   2.543  14.334  0.1552  0.3038  0.2580
 1406DOPE   PO416488  17.112   2.258  14.175  0.1346  0.1409  0.0901
 1406DOPE   GL116489  17.244   2.245  13.952  0.1327 -0.1795  0.2717
 1406DOPE   GL216490  17.283   2.551  13.775  0.1243  0.2101 -0.0175
 1406DOPE   C1A16491  17.212   2.095  13.488  0.2129 -0.0732  0.0283
 1406DOPE   D2A16492  17.240   1.956  13.063 -0.0222  0.2072 -0.0881
 1406DOPE   C3A16493  17.096   1.938  12.659 -0.2543  0.2424  0.1415
 1406DOPE   C4A16494  16.881   1.704  12.361  0.0855 -0.4593  0.1954
 1406DOPE   C1B16495  17.548   2.749  13.570 -0.3212 -0.1943 -0.2124
 1406DOPE   D2B16496  17.760   2.948  13.243  0.0523 -0.2997  0.0656
 1406DOPE   C3B16497  17.820   3.072  12.794  0.0620 -0.1356  0.1568
 1406DOPE   C4B16498  18.078   3.142  12.384  0.1114  0.1009 -0.2649
 1407DOPE   NH316499  22.150   2.130  14.481  0.0723 -0.0179  0.0747
 1407DOPE   PO416500  22.322   2.133  14.222 -0.0573 -0.0795  0.3156
 1407DOPE   GL116501  22.097   2.209  13.853 -0.3125 -0.3747 -0.0520
 1407DOPE   GL216502  22.255   2.263  13.647  0.0652  0.1212 -0.0791
 1407DOPE   C1A16503  21.809   2.048  13.510  0.2374  0.3391 -0.3750
 1407DOPE   D2A16504  21.658   1.977  13.086 -0.0673  0.3249 -0.1277
 1407DOPE   C3A16505  21.989   1.754  12.839 -0.1119 -0.3128  0.1237
 1407DOPE   C4A16506  22.121   1.821  12.407  0.3512  0.0585 -0.0158
 1407DOPE   C1B16507  22.120   2.339  13.246  0.0423  0.0947 -0.2288
 1407DOPE   D2B16508  22.233   2.261  12.806  0.5163 -0.3036 -0.0229
 1407DOPE   C3B16509  22.324   2.582  12.502 -0.0515 -0.0000 -0.1280
 1407DOPE   C4B16510  22.575   2.567  12.168  0.0079  0.0006  0.0073
 1408POSM   NC316511  15.672  34.186  14.057 -0.1819 -0.1611  0.0890
 1408POSM   PO416512  16.084  34.148  14.144 -0.2317 -0.1295 -0.0012
 1408POSM   AM116513  16.071  34.112  13.816  0.1246  0.3563 -0.2086
 1408POSM   AM216514  16.188  34.274  13.655  0.2838  0.0615  0.2959
 1408POSM   T1A16515  15.706  34.017  13.463  0.1365 -0.0295  0.1436
 1408POSM   C2A16516  15.653  33.960  13.010 -0.1274  0.0140  0.0603
 1408POSM   C3A16517  15.759  34.091  12.585  0.1780 -0.1016 -0.4782
 1408POSM   C1B16518  16.478  34.469  13.615 -0.1555 -0.1580  0.1773
 1408POSM   D2B16519  16.833  34.583  13.394 -0.2459 -0.1059 -0.0742
 1408POSM   C3B16520  16.718  34.522  12.961 -0.1671  0.0768 -0.0832
 1408POSM   C4B16521  16.972  34.692  12.661  0.2253  0.0186 -0.2795
 1409DOPS   CNO16522  16.815   2.786  14.575  0.0121 -0.2462 -0.3305
 1409DOPS   PO416523  16.790   2.865  14.190 -0.0208  0.2799  0.0137
 1409DOPS   GL116524  16.883   2.717  13.886 -0.0961 -0.0824  0.0250
 1409DOPS   GL216525  17.003   2.979  13.722 -0.2023 -0.2201  0.0478
 1409DOPS   C1A16526  16.906   2.616  13.459 -0.0214  0.1648 -0.1104
 1409DOPS   D2A16527  16.738   2.354  13.220 -0.0062 -0.1144 -0.0740
 1409DOPS   C3A16528  16.808   2.467  12.781  0.0333 -0.0684 -0.3386
 1409DOPS   C4A16529  16.920   2.463  12.368 -0.0584  0.1118  0.1181
 1409DOPS   C1B16530  17.206   3.006  13.364 -0.1290  0.0006 -0.0400
 1409DOPS   D2B16531  17.209   2.865  12.914  0.0518  0.0380  0.1909
 1409DOPS   C3B16532  17.334   2.464  12.689 -0.3301  0.0035  0.0757
 1409DOPS   C4B16533  17.578   2.135  12.675 -0.0317  0.2157 -0.3086
 1410DOPC   NC316534  17.572  10.576  14.400  0.0825  0.0375 -0.0562
 1410DOPC   PO416535  17.296  10.289  14.333  0.4210  0.3743 -0.1222
 1410DOPC   GL116536  17.273  10.218  13.967 -0.2123  0.0103 -0.0537
 1410DOPC   GL216537  17.443  10.021  13.868 -0.0081  0.0359  0.2151
 1410DOPC   C1A16538  16.923  10.022  13.746  0.3620 -0.1494  0.1062
 1410DOPC   D2A16539  16.730   9.913  13.373 -0.1385  0.1481  0.4672
 1410DOPC   C3A16540  16.293   9.886  13.288 -0.0074  0.0160  0.2268
 1410DOPC   C4A16541  15.849   9.996  13.104  0.1682  0.0493 -0.0111
 1410DOPC   C1B16542  17.447  10.108  13.419  0.0686 -0.0947 -0.0145
 1410DOPC   D2B16543  17.149  10.105  13.105 -0.0237  0.0741  0.0683
 1410DOPC   C3B16544  16.980   9.706  12.893 -0.5207  0.2031 -0.0636
 1410DOPC   C4B16545  16.835   9.418  12.579  0.2067  0.2836 -0.1453
 1411POSM   NC316546  19.987   5.513  13.978 -0.1995 -0.2076 -0.1724
 1411POSM   PO416547  19.814   5.173  14.079  0.0840  0.0100  0.0645
 1411POSM   AM116548  19.581   5.308  13.895  0.0999  0.3385 -0.0269
 1411POSM   AM216549  19.483   5.494  13.782 -0.2851 -0.1350 -0.2057
 1411POSM   T1A16550  19.452   5.174  13.413  0.0460 -0.3501  0.0368
 1411POSM   C2A16551  19.403   5.124  12.982 -0.3583  0.0989  0.2304
 1411POSM   C3A16552  19.546   4.926  12.581 -0.1206  0.1768 -0.0779
 1411POSM   C1B16553  19.765   5.585  13.552 -0.3837 -0.0208 -0.1242
 1411POSM   D2B16554  19.785   5.592  13.115  0.4156 -0.0563  0.0236
 1411POSM   C3B16555  19.948   5.113  13.111 -0.1857  0.0858 -0.2654
 1411POSM   C4B16556  20.150   4.674  13.156  0.1158  0.1929  0.0853
 1412DOPE   NH316557  16.725   1.848  14.158  0.0061  0.0018 -0.2843
 1412DOPE   PO416558  16.596   1.569  14.036 -0.1365  0.1046  0.1029
 1412DOPE   GL116559  16.503   1.740  13.723 -0.1178 -0.2555 -0.0860
 1412DOPE   GL216560  16.764   1.846  13.538  0.0405 -0.1745  0.0182
 1412DOPE   C1A16561  16.353   1.614  13.331 -0.1133 -0.0390  0.1906
 1412DOPE   D2A16562  16.177   1.636  12.929  0.2114  0.1272  0.2017
 1412DOPE   C3A16563  15.871   1.997  12.905 -0.4353 -0.0960 -0.0126
 1412DOPE   C4A16564  15.519   2.220  12.661  0.0559  0.1163 -0.2053
 1412DOPE   C1B16565  16.780   1.831  13.071 -0.1583  0.3213  0.4334
 1412DOPE   D2B16566  16.555   1.858  12.705 -0.1893 -0.0140  0.2314
 1412DOPE   C3B16567  16.146   1.921  12.471 -0.2341 -0.3873  0.2538
 1412DOPE   C4B16568  15.725   1.730  12.382 -0.0661  0.1561  0.1648
 1413DOPS   CNO16569  15.539   1.645  14.199  0.2145  0.1045  0.5474
 1413DOPS   PO416570  15.365   1.340  14.080 -0.0502  0.0157  0.1443
 1413DOPS   GL116571  15.606   1.337  13.821 -0.1156  0.1905  0.0484
 1413DOPS   GL216572  15.738   1.570  13.737 -0.2313  0.2973 -0.2096
 1413DOPS   C1A16573  15.683   1.068  13.414  0.0903 -0.0545  0.1346
 1413DOPS   D2A16574  15.986   0.948  13.084  0.2459 -0.1616 -0.0633
 1413DOPS   C3A16575  16.208   1.146  12.721  0.0141  0.3285  0.1156
 1413DOPS   C4A16576  16.138   1.435  12.372 -0.0400  0.0526  0.2224
 1413DOPS   C1B16577  15.816   1.612  13.291 -0.0567 -0.1488  0.3894
 1413DOPS   D2B16578  15.709   1.386  12.894  0.3291 -0.0046 -0.0386
 1413DOPS   C3B16579  15.692   1.239  12.418  0.1503  0.3040  0.0418
 1413DOPS   C4B16580  15.582   1.232  11.932 -0.0475 -0.0082  0.1917
 1414DOPS   CNO16581  18.532  10.933  14.141  0.3348  0.1280  0.0805
 1414DOPS   PO416582  18.808  11.119  14.015 -0.1641 -0.2331 -0.3818
 1414DOPS   GL116583  18.820  11.342  13.677 -0.0313 -0.2778  0.2146
 1414DOPS   GL216584  19.040  11.499  13.509 -0.4095 -0.1138  0.0013
 1414DOPS   C1A16585  18.511  11.432  13.350  0.1459  0.0996  0.0703
 1414DOPS   D2A16586  18.516  11.223  12.894  0.1671 -0.1237  0.1904
 1414DOPS   C3A16587  18.515  11.565  12.576 -0.1863  0.1307  0.1640
 1414DOPS   C4A16588  18.501  11.824  12.213 -0.0881 -0.1406  0.1079
 1414DOPS   C1B16589  18.985  11.233  13.142 -0.3692 -0.1315 -0.1293
 1414DOPS   D2B16590  18.829  10.807  12.997 -0.1033  0.1722  0.1995
 1414DOPS   C3B16591  18.799  10.954  12.609  0.0775  0.0991 -0.0015
 1414DOPS   C4B16592  18.412  11.022  12.342 -0.2389 -0.1997 -0.2663
 1415DOPE   NH316593  23.135  33.595  14.557  0.0026 -0.1560  0.0516
 1415DOPE   PO416594  23.390  33.820  14.634 -0.0964  0.4110 -0.2439
 1415DOPE   GL116595  23.354  33.815  14.181  0.0382 -0.1358 -0.0235
 1415DOPE   GL216596  23.052  33.738  14.077  0.0664 -0.1593 -0.0222
 1415DOPE   C1A16597  23.331  33.965  13.745 -0.0685  0.0480  0.1248
 1415DOPE   D2A16598  23.151  34.017  13.330 -0.1311  0.1536  0.0094
 1415DOPE   C3A16599  23.500  34.238  13.149 -0.0483  0.2216 -0.3653
 1415DOPE   C4A16600  23.959  34.114  13.034 -0.0412  0.3488  0.1250
 1415DOPE   C1B16601  23.009  33.576  13.580  0.2850  0.3043 -0.0733
 1415DOPE   D2B16602  22.979  33.490  13.126  0.2174  0.1515 -0.1428
 1415DOPE   C3B16603  22.688  33.506  12.829 -0.1618 -0.1326  0.0390
 1415DOPE   C4B16604  22.425  33.793  12.597 -0.0938 -0.0059 -0.0785
 1416DOPC   NC316605  15.554  34.530  14.441 -0.2137 -0.2060 -0.1841
 1416DOPC   PO416606  15.340  34.624  14.110 -0.0776  0.1131 -0.4508
 1416DOPC   GL116607  15.513  34.795  13.786 -0.0953  0.1034  0.2044
 1416DOPC   GL216608  15.673  34.598  13.678 -0.1119 -0.0698  0.0387
 1416DOPC   C1A16609  15.493  35.198  13.522  0.1481 -0.1697 -0.0110
 1416DOPC   D2A16610  15.431  35.465  13.102 -0.1512  0.2726  0.2124
 1416DOPC   C3A16611  15.631  35.547  12.772 -0.2195 -0.1977  0.2549
 1416DOPC   C4A16612  15.896  35.517  12.425  0.0082 -0.0979 -0.2518
 1416DOPC   C1B16613  15.564  34.670  13.270  0.0246  0.0013 -0.1794
 1416DOPC   D2B16614  15.150  34.700  13.191  0.2594  0.0556  0.0585
 1416DOPC   C3B16615  14.896  34.418  12.892 -0.2094 -0.0284  0.2588
 1416DOPC   C4B16616  14.449  34.302  12.838 -0.0302  0.2994 -0.3629
 1417DOPS   CNO16617  22.262   8.354  14.463 -0.0596  0.0769 -0.0142
 1417DOPS   PO416618  22.454   8.088  14.250 -0.3632  0.0825  0.1607
 1417DOPS   GL116619  22.400   8.297  13.974 -0.2110  0.0855 -0.1490
 1417DOPS   GL216620  22.111   8.283  13.900  0.0045 -0.1032 -0.4371
 1417DOPS   C1A16621  22.471   8.028  13.603  0.0158  0.0677 -0.1186
 1417DOPS   D2A16622  22.516   8.147  13.117 -0.0733  0.0187 -0.0371
 1417DOPS   C3A16623  22.202   8.335  12.846 -0.0906 -0.1262  0.0143
 1417DOPS   C4A16624  21.961   8.639  12.619  0.0710  0.0340  0.0050
 1417DOPS   C1B16625  22.161   8.743  13.795  0.0269  0.1467 -0.0942
 1417DOPS   D2B16626  22.381   9.105  13.566 -0.2643  0.0306  0.2319
 1417DOPS   C3B16627  22.400   9.291  13.173  0.1925  0.4976 -0.2426
 1417DOPS   C4B16628  22.319   9.596  12.859 -0.3549 -0.0119 -0.2328
 1418DOPE   NH316629  17.016  10.712  14.241  0.1087  0.1205 -0.5295
 1418DOPE   PO416630  17.246  10.698  14.052 -0.2893  0.0707  0.3486
 1418DOPE   GL116631  17.068  10.762  13.784  0.1451  0.1572 -0.4665
 1418DOPE   GL216632  16.981  10.475  13.749  0.1303 -0.0007 -0.2333
 1418DOPE   C1A16633  16.831  10.982  13.475  0.1384 -0.2559  0.3438
 1418DOPE   D2A16634  16.649  10.940  13.098 -0.0416 -0.1458  0.0168
 1418DOPE   C3A16635  16.175  10.871  13.094  0.3560 -0.2478 -0.1216
 1418DOPE   C4A16636  15.871  10.716  12.750  0.2216 -0.1024 -0.1562
 1418DOPE   C1B16637  17.134  10.584  13.359 -0.1555  0.0649 -0.2522
 1418DOPE   D2B16638  17.158  10.910  13.057  0.1204  0.0620 -0.1751
 1418DOPE   C3B16639  16.917  10.923  12.610 -0.0370 -0.1165 -0.3278
 1418DOPE   C4B16640  16.735  10.849  12.174 -0.0582 -0.0763 -0.3765
 1419DOPE   NH316641  20.322   6.639  14.173 -0.0754  0.3007  0.0457
 1419DOPE   PO416642  20.503   6.719  13.929 -0.1204  0.1581 -0.1278
 1419DOPE   GL116643  20.240   6.738  13.725 -0.0713 -0.0333  0.0263
 1419DOPE   GL216644  20.108   6.480  13.615 -0.1579 -0.1737  0.0372
 1419DOPE   C1A16645  20.355   6.884  13.348 -0.1246  0.0003 -0.0340
 1419DOPE   D2A16646  20.633   6.934  12.962 -0.0600  0.0695  0.1348
 1419DOPE   C3A16647  20.888   7.203  12.654  0.2658 -0.1782 -0.0284
 1419DOPE   C4A16648  21.061   7.607  12.652  0.0641  0.0910  0.1336
 1419DOPE   C1B16649  20.060   6.456  13.121 -0.0428 -0.1147  0.0356
 1419DOPE   D2B16650  19.828   6.598  12.771 -0.1793 -0.1257 -0.2586
 1419DOPE   C3B16651  20.110   6.595  12.371  0.0770  0.0090  0.2296
 1419DOPE   C4B16652  20.380   6.274  12.207  0.2539 -0.2034 -0.1795
 1420DOPE   NH316653  20.076   4.741  14.123 -0.2178  0.2630 -0.2813
 1420DOPE   PO416654  20.157   4.436  14.070  0.0241  0.2412  0.2133
 1420DOPE   GL116655  19.983   4.283  13.747  0.2471 -0.1436  0.0212
 1420DOPE   GL216656  20.115   4.361  13.555 -0.1490  0.0517  0.2240
 1420DOPE   C1A16657  19.587   4.277  13.510 -0.0520  0.4012  0.2984
 1420DOPE   D2A16658  19.423   4.342  13.090 -0.1415  0.2683  0.4608
 1420DOPE   C3A16659  19.233   4.610  12.808  0.0178 -0.0470 -0.1204
 1420DOPE   C4A16660  18.997   5.007  12.772  0.0901  0.2349 -0.1298
 1420DOPE   C1B16661  20.358   4.236  13.147  0.1769 -0.0058  0.0455
 1420DOPE   D2B16662  20.442   4.426  12.743  0.2787  0.1723 -0.2014
 1420DOPE   C3B16663  20.729   4.209  12.450  0.0020 -0.3353 -0.0846
 1420DOPE   C4B16664  21.058   4.412  12.141 -0.0708  0.0117 -0.3875
 1421DOPC   NC316665  23.659   9.501  14.027  0.2504 -0.1834 -0.0436
 1421DOPC   PO416666  23.374   9.747  14.201 -0.0370  0.1909 -0.2833
 1421DOPC   GL116667  23.202   9.740  13.866 -0.4408  0.0391 -0.4144
 1421DOPC   GL216668  23.010   9.999  13.700 -0.0326 -0.2099 -0.0531
 1421DOPC   C1A16669  23.434   9.707  13.481  0.1354  0.0135 -0.1245
 1421DOPC   D2A16670  23.203   9.781  13.075 -0.0383  0.1872  0.0767
 1421DOPC   C3A16671  23.172   9.743  12.614 -0.2446 -0.1256 -0.1703
 1421DOPC   C4A16672  23.089   9.861  12.209 -0.1604  0.1274  0.1758
 1421DOPC   C1B16673  23.085  10.218  13.331 -0.0043  0.3018  0.0607
 1421DOPC   D2B16674  23.068  10.319  12.894  0.2291  0.2634  0.1171
 1421DOPC   C3B16675  23.470  10.186  12.625 -0.1311 -0.0007  0.0647
 1421DOPC   C4B16676  23.667  10.057  12.231  0.0197  0.1678 -0.1381
 1422POSM   NC316677  15.404   4.919  14.792  0.3750 -0.0240 -0.1107
 1422POSM   PO416678  15.765   4.933  14.636 -0.2068 -0.1462  0.0333
 1422POSM   AM116679  15.911   4.875  14.341 -0.5871 -0.1203  0.0317
 1422POSM   AM216680  16.080   4.680  14.186  0.1260 -0.1330 -0.1342
 1422POSM   T1A16681  15.804   5.030  13.884  0.0280 -0.3539  0.0879
 1422POSM   C2A16682  15.614   5.228  13.498 -0.0200  0.0571  0.1601
 1422POSM   C3A16683  15.543   5.438  13.136  0.1607  0.0208  0.3406
 1422POSM   C1B16684  16.286   4.779  13.947  0.0923  0.0844  0.1649
 1422POSM   D2B16685  16.546   4.711  13.513  0.2611  0.0798 -0.2699
 1422POSM   C3B16686  16.902   4.528  13.342  0.0972 -0.0208  0.1170
 1422POSM   C4B16687  17.094   4.689  12.949  0.1976  0.2186 -0.1090
 1423POSM   NC316688   7.510  11.363  14.466 -0.2423 -0.0501 -0.0587
 1423POSM   PO416689   7.265  11.617  14.310 -0.1367  0.0555  0.2163
 1423POSM   AM116690   7.366  11.505  14.014 -0.0919  0.0974 -0.1206
 1423POSM   AM216691   7.275  11.263  13.890  0.0699  0.0353 -0.2960
 1423POSM   T1A16692   7.504  11.628  13.540  0.0900 -0.2499  0.0226
 1423POSM   C2A16693   7.503  11.636  13.094 -0.2034 -0.1023 -0.1736
 1423POSM   C3A16694   7.436  11.547  12.641 -0.0632  0.2715  0.2117
 1423POSM   C1B16695   7.117  11.328  13.567  0.0278 -0.0194  0.0721
 1423POSM   D2B16696   6.989  11.498  13.143 -0.0250 -0.0966 -0.0506
 1423POSM   C3B16697   6.919  11.817  12.796  0.1393  0.1415  0.0965
 1423POSM   C4B16698   6.506  11.927  12.586  0.1828  0.3598  0.0115
 1424DOPC   NC316699  17.799   5.088  14.075  0.2793  0.2279  0.2253
 1424DOPC   PO416700  17.734   4.868  14.416 -0.3911 -0.3092  0.2256
 1424DOPC   GL116701  17.677   4.634  14.049  0.3566  0.3424 -0.0420
 1424DOPC   GL216702  17.482   4.555  14.046  0.0396 -0.2006 -0.1542
 1424DOPC   C1A16703  17.753   4.778  13.611 -0.2726  0.0750 -0.0369
 1424DOPC   D2A16704  17.550   4.756  13.253 -0.0626  0.2042 -0.1149
 1424DOPC   C3A16705  17.510   5.102  12.931  0.1035  0.1237  0.2595
 1424DOPC   C4A16706  17.572   5.312  12.601  0.0148  0.0509  0.1059
 1424DOPC   C1B16707  17.280   4.881  13.765  0.0384 -0.5432 -0.0475
 1424DOPC   D2B16708  17.120   5.018  13.340 -0.0633 -0.1186  0.2110
 1424DOPC   C3B16709  16.707   5.002  13.148  0.2459 -0.1497  0.0827
 1424DOPC   C4B16710  16.299   4.974  12.988 -0.1858  0.1821  0.1970
 1425DOPC   NC316711  20.615   4.438  13.443 -0.1277 -0.0526 -0.3191
 1425DOPC   PO416712  20.901   4.595  13.721  0.2300  0.2236 -0.0767
 1425DOPC   GL116713  21.035   4.742  13.367 -0.1779 -0.0397 -0.0804
 1425DOPC   GL216714  21.104   4.522  13.215  0.1133  0.2081 -0.1226
 1425DOPC   C1A16715  20.774   4.937  13.034  0.0015  0.1334 -0.0271
 1425DOPC   D2A16716  20.400   5.066  12.830  0.3567  0.1986 -0.1223
 1425DOPC   C3A16717  20.339   5.218  12.419 -0.0928 -0.1938 -0.2982
 1425DOPC   C4A16718  20.121   5.411  12.069 -0.1402 -0.4255  0.0879
 1425DOPC   C1B16719  20.928   4.162  12.954  0.3179  0.1223 -0.0274
 1425DOPC   D2B16720  20.615   3.924  12.847  0.1147 -0.2616  0.0345
 1425DOPC   C3B16721  20.324   3.656  13.123  0.0080  0.1181 -0.1115
 1425DOPC   C4B16722  20.101   3.327  12.879 -0.0997 -0.0943 -0.1278
 1426DOPS   CNO16723  11.009   8.625  14.864 -0.0554 -0.2502 -0.0117
 1426DOPS   PO416724  11.101   8.898  15.122  0.0246 -0.3061  0.1358
 1426DOPS   GL116725  11.050   9.093  14.794 -0.5203 -0.2411 -0.2463
 1426DOPS   GL216726  11.330   9.057  14.736  0.2266  0.0505  0.1321
 1426DOPS   C1A16727  10.824   8.943  14.386 -0.4661  0.2041  0.0522
 1426DOPS   D2A16728  10.814   8.736  14.016  0.0545  0.0816 -0.0673
 1426DOPS   C3A16729  10.788   8.903  13.609  0.3694 -0.1269 -0.3834
 1426DOPS   C4A16730  10.964   9.290  13.433  0.2089 -0.0492  0.1627
 1426DOPS   C1B16731  11.705   9.010  14.442 -0.1247 -0.2945 -0.2510
 1426DOPS   D2B16732  12.042   9.084  14.175 -0.3276  0.0469  0.1583
 1426DOPS   C3B16733  12.217   8.947  13.749  0.0156  0.0802 -0.1395
 1426DOPS   C4B16734  12.193   8.743  13.331 -0.3272 -0.1563 -0.0418
 1427DOPE   NH316735  16.369   0.644  14.328 -0.0393 -0.1624  0.0677
 1427DOPE   PO416736  16.123   0.514  14.154 -0.0872  0.0999 -0.1163
 1427DOPE   GL116737  16.242   0.699  13.821  0.2496  0.2198 -0.1644
 1427DOPE   GL216738  16.016   0.946  13.801 -0.1832 -0.0373 -0.0374
 1427DOPE   C1A16739  16.364   0.735  13.345  0.0162 -0.0274 -0.0547
 1427DOPE   D2A16740  16.480   0.709  12.908  0.0529 -0.0283  0.0443
 1427DOPE   C3A16741  16.202   0.538  12.617 -0.1664 -0.2386 -0.0332
 1427DOPE   C4A16742  15.912   0.268  12.264 -0.0773  0.2757  0.1937
 1427DOPE   C1B16743  15.948   0.583  13.506 -0.1712 -0.0407  0.0745
 1427DOPE   D2B16744  15.882   0.339  13.098 -0.0129  0.0075  0.0345
 1427DOPE   C3B16745  15.510   0.341  12.858  0.2773 -0.0555  0.0311
 1427DOPE   C4B16746  15.179   0.173  12.600  0.0473  0.2112 -0.1702
 1428DOPS   CNO16747  23.055   5.016  13.839 -0.0680 -0.2829 -0.2190
 1428DOPS   PO416748  23.187   5.392  13.813  0.5787  0.0466 -0.0982
 1428DOPS   GL116749  23.404   5.497  13.414 -0.2808 -0.3662  0.0045
 1428DOPS   GL216750  23.530   5.398  13.173 -0.2246 -0.0929  0.1576
 1428DOPS   C1A16751  23.754   5.775  13.318  0.0921  0.0379  0.1437
 1428DOPS   D2A16752  23.873   6.020  12.945 -0.0481 -0.1851 -0.1801
 1428DOPS   C3A16753  23.609   6.021  12.561  0.0739 -0.5583  0.0099
 1428DOPS   C4A16754  23.407   5.707  12.188  0.1624  0.1519  0.2482
 1428DOPS   C1B16755  23.706   5.130  12.981  0.2079  0.0810 -0.0181
 1428DOPS   D2B16756  23.968   4.763  12.943 -0.2154 -0.2238  0.0393
 1428DOPS   C3B16757  24.085   4.360  12.926  0.3742 -0.2110  0.0150
 1428DOPS   C4B16758  24.069   3.868  12.873  0.0270 -0.2643 -0.0968
 1429DOPE   NH316759  24.280   3.703  10.339 -0.1864 -0.1666  0.1414
 1429DOPE   PO416760  24.257   3.390  10.289  0.1813 -0.0299 -0.0194
 1429DOPE   GL116761  24.356   3.175  10.560 -0.0487  0.0478 -0.0605
 1429DOPE   GL216762  24.056   3.225  10.687  0.1260  0.2353 -0.1285
 1429DOPE   C1A16763  24.364   3.241  11.067 -0.3238 -0.0968 -0.0936
 1429DOPE   D2A16764  24.514   3.217  11.553  0.0062 -0.3856  0.0353
 1429DOPE   C3A16765  24.555   2.983  11.972 -0.1405 -0.0522 -0.2412
 1429DOPE   C4A16766  25.030   2.812  12.041  0.0620  0.2101  0.0173
 1429DOPE   C1B16767  23.851   3.425  11.037 -0.0774  0.0061 -0.0469
 1429DOPE   D2B16768  23.569   3.796  11.240  0.0918  0.1349  0.2454
 1429DOPE   C3B16769  23.457   3.854  11.699  0.0812 -0.2035 -0.0544
 1429DOPE   C4B16770  22.972   3.830  11.837  0.2291 -0.0720  0.1168
 1430DOPS   CNO16771  13.085   4.524  10.219  0.0415  0.0062  0.2281
 1430DOPS   PO416772  13.349   4.343  10.438 -0.1867  0.2988 -0.1286
 1430DOPS   GL116773  13.536   4.313  10.840  0.1047 -0.0427  0.1494
 1430DOPS   GL216774  13.404   3.999  10.854  0.3308 -0.0952  0.0353
 1430DOPS   C1A16775  13.953   4.151  11.046 -0.2535  0.0085 -0.1541
 1430DOPS   D2A16776  14.327   4.214  11.378  0.1987 -0.3033 -0.2007
 1430DOPS   C3A16777  14.621   3.874  11.404 -0.1832  0.1227  0.1307
 1430DOPS   C4A16778  14.632   3.550  11.798 -0.0536  0.1505  0.0008
 1430DOPS   C1B16779  13.351   4.078  11.271 -0.0507 -0.1762  0.2469
 1430DOPS   D2B16780  13.339   3.766  11.673 -0.0338 -0.0524 -0.1302
 1430DOPS   C3B16781  13.649   3.830  11.980  0.3210 -0.2765 -0.3216
 1430DOPS   C4B16782  13.967   4.002  12.260  0.1826  0.0433  0.2308
 1431DOPE   NH316783  21.795   2.899  10.196 -0.0297  0.0006  0.3514
 1431DOPE   PO416784  21.824   2.626  10.407  0.2376 -0.0469  0.1827
 1431DOPE   GL116785  21.843   2.757  10.782 -0.1628  0.1752  0.1523
 1431DOPE   GL216786  21.933   3.046  10.723  0.0438 -0.2454 -0.0816
 1431DOPE   C1A16787  21.496   2.632  11.080 -0.0294 -0.2631 -0.2342
 1431DOPE   D2A16788  21.135   2.549  11.407  0.0617  0.2259  0.1043
 1431DOPE   C3A16789  21.229   2.479  11.837 -0.2204  0.1376  0.1022
 1431DOPE   C4A16790  21.317   2.799  12.226 -0.0484 -0.1269 -0.3014
 1431DOPE   C1B16791  22.288   3.165  11.026  0.0959  0.0418 -0.1570
 1431DOPE   D2B16792  22.178   3.373  11.420 -0.1111 -0.0329 -0.1606
 1431DOPE   C3B16793  21.924   3.111  11.717  0.1898  0.1169 -0.2023
 1431DOPE   C4B16794  21.624   3.171  12.093  0.0373  0.0815 -0.2452
 1432DOPE   NH316795  20.549   0.815  10.348 -0.0516 -0.0170  0.0152
 1432DOPE   PO416796  20.393   1.044  10.561 -0.2976  0.3079  0.2348
 1432DOPE   GL116797  20.322   1.011  10.917 -0.2436  0.1830  0.1372
 1432DOPE   GL216798  20.260   1.192  11.125  0.0341 -0.1421  0.0589
 1432DOPE   C1A16799  20.061   0.693  11.148  0.1518  0.0759 -0.1708
 1432DOPE   D2A16800  19.864   0.545  11.494 -0.1157 -0.1671  0.0255
 1432DOPE   C3A16801  19.863   0.212  11.801 -0.1002 -0.1392  0.0283
 1432DOPE   C4A16802  19.598  -0.154  11.953  0.1923  0.4979 -0.0423
 1432DOPE   C1B16803  20.576   1.452  11.352  0.0697  0.0700  0.4308
 1432DOPE   D2B16804  20.602   1.632  11.810  0.0519 -0.0652 -0.3041
 1432DOPE   C3B16805  20.303   1.469  12.169  0.2100 -0.2746 -0.0327
 1432DOPE   C4B16806  20.255   1.456  12.608  0.0871  0.3315  0.2124
 1433DOPC   NC316807  19.893   1.373  10.495  0.0296 -0.0399  0.2448
 1433DOPC   PO416808  20.112   1.568  10.744  0.4907 -0.1247  0.2675
 1433DOPC   GL116809  20.200   1.686  11.147  0.1565 -0.3425 -0.0627
 1433DOPC   GL216810  20.103   1.903  11.183 -0.0217  0.1037  0.2477
 1433DOPC   C1A16811  20.091   1.495  11.594 -0.0134 -0.1993 -0.2870
 1433DOPC   D2A16812  20.269   1.139  11.876 -0.0749 -0.1033  0.1462
 1433DOPC   C3A16813  20.335   1.050  12.336  0.0643  0.2258 -0.2569
 1433DOPC   C4A16814  20.508   0.968  12.783 -0.2391  0.0751 -0.2362
 1433DOPC   C1B16815  20.340   1.942  11.538 -0.0821  0.0954 -0.1244
 1433DOPC   D2B16816  20.421   2.105  11.941  0.2756 -0.1619 -0.2433
 1433DOPC   C3B16817  20.477   1.980  12.391  0.0462  0.0919  0.0812
 1433DOPC   C4B16818  20.439   2.116  12.792 -0.0540  0.1503  0.1111
 1434DOPC   NC316819  15.952   6.921  11.034 -0.5470  0.1812 -0.1985
 1434DOPC   PO416820  15.860   7.325  10.965 -0.3965 -0.1213  0.2646
 1434DOPC   GL116821  15.997   7.290  11.325  0.0713  0.1378  0.1814
 1434DOPC   GL216822  16.276   7.280  11.283 -0.1877 -0.0815  0.1560
 1434DOPC   C1A16823  15.702   7.286  11.652  0.3053 -0.2360 -0.0206
 1434DOPC   D2A16824  15.644   7.057  12.057 -0.0385 -0.2291  0.0875
 1434DOPC   C3A16825  15.789   7.160  12.520  0.2250 -0.0071  0.2695
 1434DOPC   C4A16826  16.058   6.822  12.682 -0.1661 -0.1762 -0.1233
 1434DOPC   C1B16827  16.259   7.269  11.732 -0.2084 -0.1159 -0.1366
 1434DOPC   D2B16828  16.184   7.196  12.145  0.2923  0.0769 -0.2181
 1434DOPC   C3B16829  16.140   7.492  12.508 -0.0058  0.0774  0.0846
 1434DOPC   C4B16830  16.096   7.748  12.846  0.1930 -0.0837  0.2768
 1435DOPE   NH316831  10.819   7.930  10.693 -0.0840  0.3598  0.2001
 1435DOPE   PO416832  10.943   7.810  10.952 -0.0519  0.2006 -0.1730
 1435DOPE   GL116833  10.893   7.737  11.325 -0.0638  0.2590 -0.1920
 1435DOPE   GL216834  10.614   7.691  11.276  0.0014 -0.2428 -0.1493
 1435DOPE   C1A16835  11.118   7.818  11.689  0.5184 -0.1635 -0.1741
 1435DOPE   D2A16836  11.213   7.913  12.167 -0.0815 -0.0688 -0.0904
 1435DOPE   C3A16837  11.529   7.686  12.428 -0.2930  0.0065 -0.3475
 1435DOPE   C4A16838  11.758   7.320  12.592  0.0167 -0.0632  0.0049
 1435DOPE   C1B16839  10.661   7.605  11.729  0.2241  0.2476 -0.0646
 1435DOPE   D2B16840  10.748   7.613  12.163  0.2802  0.2580  0.0000
 1435DOPE   C3B16841  10.963   7.665  12.542 -0.1185  0.1237 -0.1905
 1435DOPE   C4B16842  11.233   7.754  12.869  0.1786 -0.1030  0.1492
 1436DOPE   NH316843  23.088  11.878   9.987 -0.2218  0.2383  0.3257
 1436DOPE   PO416844  22.967  11.603   9.980 -0.0922 -0.0174  0.1977
 1436DOPE   GL116845  22.890  11.576  10.343 -0.1871 -0.3379 -0.4054
 1436DOPE   GL216846  23.148  11.627  10.504 -0.5236  0.0908  0.0976
 1436DOPE   C1A16847  22.716  11.552  10.751 -0.1108 -0.1643 -0.1495
 1436DOPE   D2A16848  22.756  11.666  11.176  0.3690  0.2567  0.1557
 1436DOPE   C3A16849  22.964  11.345  11.357  0.1646 -0.1851 -0.0320
 1436DOPE   C4A16850  23.227  11.136  11.709 -0.2340  0.2015 -0.0785
 1436DOPE   C1B16851  23.143  11.810  10.906 -0.1948  0.2449 -0.1238
 1436DOPE   D2B16852  22.841  12.110  11.023  0.0264 -0.1368  0.2264
 1436DOPE   C3B16853  22.863  12.347  11.418  0.2219  0.0288 -0.1549
 1436DOPE   C4B16854  23.134  12.335  11.790  0.0356  0.0177  0.0568
 1437DOPE   NH316855  18.694   4.149  10.866  0.0360 -0.0327 -0.3058
 1437DOPE   PO416856  18.849   3.924  11.095 -0.1251  0.0297 -0.0443
 1437DOPE   GL116857  18.900   3.925  11.443 -0.0077  0.1063 -0.1135
 1437DOPE   GL216858  18.982   4.186  11.476 -0.4232  0.3285 -0.1555
 1437DOPE   C1A16859  18.763   3.763  11.909  0.1080  0.2566  0.2641
 1437DOPE   D2A16860  18.722   3.555  12.328  0.0174  0.1459 -0.0691
 1437DOPE   C3A16861  18.758   3.776  12.756 -0.0736  0.1715  0.0534
 1437DOPE   C4A16862  19.139   3.888  12.989 -0.0768 -0.0883 -0.1081
 1437DOPE   C1B16863  19.313   3.944  11.695 -0.0445  0.2270 -0.1155
 1437DOPE   D2B16864  19.276   3.684  12.050 -0.0700 -0.2079  0.0624
 1437DOPE   C3B16865  19.370   3.632  12.477  0.3415 -0.1017  0.2206
 1437DOPE   C4B16866  19.603   3.871  12.762 -0.0105  0.0582 -0.2003
 1438POSM   NC316867  13.381   7.592  11.115  0.0434  0.1745  0.0812
 1438POSM   PO416868  13.642   7.865  10.915  0.0429 -0.0804 -0.0886
 1438POSM   AM116869  13.853   7.790  11.174  0.1997  0.3331 -0.0014
 1438POSM   AM216870  13.778   7.751  11.449 -0.1455 -0.2547  0.0403
 1438POSM   T1A16871  14.242   7.674  11.467  0.0479  0.0763 -0.1665
 1438POSM   C2A16872  14.477   7.896  11.744 -0.1635  0.0197  0.1132
 1438POSM   C3A16873  14.610   7.950  12.163  0.0107 -0.0835  0.0173
 1438POSM   C1B16874  13.757   7.811  11.766 -0.2596 -0.2180 -0.2140
 1438POSM   D2B16875  13.748   7.610  12.258  0.0542 -0.2184 -0.2746
 1438POSM   C3B16876  13.696   7.853  12.659  0.0072 -0.2171  0.3334
 1438POSM   C4B16877  13.709   7.859  13.151  0.1445 -0.0696  0.0742
 1439DOPE   NH316878  17.932   7.532  10.567 -0.0671 -0.0228 -0.3751
 1439DOPE   PO416879  17.855   7.373  10.827 -0.0198 -0.1355  0.0181
 1439DOPE   GL116880  17.787   7.495  11.238  0.3780 -0.2220  0.0090
 1439DOPE   GL216881  17.658   7.211  11.296  0.1509 -0.6433  0.0811
 1439DOPE   C1A16882  17.982   7.716  11.578 -0.0520 -0.0364  0.0810
 1439DOPE   D2A16883  18.053   7.920  11.990  0.1607  0.1273 -0.0389
 1439DOPE   C3A16884  18.277   7.725  12.386 -0.0461  0.1366  0.2387
 1439DOPE   C4A16885  18.499   7.314  12.587  0.2078 -0.2168  0.0041
 1439DOPE   C1B16886  17.542   7.076  11.746  0.2202  0.1391  0.0450
 1439DOPE   D2B16887  17.214   7.162  11.992 -0.1096 -0.0488  0.1332
 1439DOPE   C3B16888  17.011   6.809  12.279 -0.2507 -0.0824  0.1418
 1439DOPE   C4B16889  17.195   6.422  12.421  0.0439  0.0952  0.1233
 1440POSM   NC316890  20.613   5.792  10.479  0.2674 -0.0582  0.0696
 1440POSM   PO416891  20.348   5.941  10.222  0.0018  0.1608 -0.1939
 1440POSM   AM116892  20.164   6.061  10.475 -0.2271 -0.2820  0.4272
 1440POSM   AM216893  19.993   6.230  10.614 -0.3737  0.1977 -0.1579
 1440POSM   T1A16894  20.212   6.004  10.942 -0.0649  0.0550 -0.1583
 1440POSM   C2A16895  20.384   5.834  11.370 -0.0794  0.1820 -0.0408
 1440POSM   C3A16896  20.502   5.898  11.791 -0.0745  0.3585 -0.3542
 1440POSM   C1B16897  19.736   6.253  10.804  0.2724  0.2090 -0.0272
 1440POSM   D2B16898  19.619   6.290  11.220  0.4557 -0.0878  0.2945
 1440POSM   C3B16899  19.891   5.977  11.495 -0.1648 -0.1336  0.2439
 1440POSM   C4B16900  20.004   5.916  11.952  0.0317 -0.1069 -0.0549
 1441POSM   NC316901  12.064   2.698  10.069 -0.2578 -0.0691 -0.1969
 1441POSM   PO416902  12.384   2.701   9.784 -0.0794 -0.4199  0.1207
 1441POSM   AM116903  12.547   2.593  10.082  0.1054  0.1523  0.0194
 1441POSM   AM216904  12.574   2.343  10.241  0.4110  0.0845 -0.1714
 1441POSM   T1A16905  12.571   2.764  10.566 -0.1432  0.0419 -0.1216
 1441POSM   C2A16906  12.835   2.805  11.045  0.1265  0.1060  0.2104
 1441POSM   C3A16907  13.091   2.565  11.366  0.0244  0.2201  0.3863
 1441POSM   C1B16908  12.662   2.273  10.530  0.1191  0.0721 -0.0054
 1441POSM   D2B16909  12.457   2.391  10.947 -0.2172  0.0179 -0.1870
 1441POSM   C3B16910  12.627   2.487  11.360  0.3069  0.0037  0.2739
 1441POSM   C4B16911  12.636   2.276  11.768  0.1087  0.0921 -0.0594
 1442DOPC   NC316912  20.380   9.033  10.270 -0.1142  0.2355  0.1767
 1442DOPC   PO416913  20.103   9.291  10.335 -0.1047  0.0900 -0.2056
 1442DOPC   GL116914  19.971   9.510  10.691 -0.1508 -0.0456 -0.1572
 1442DOPC   GL216915  19.804   9.756  10.676  0.1917  0.0424  0.1094
 1442DOPC   C1A16916  19.806   9.316  11.089 -0.1048  0.1229 -0.0287
 1442DOPC   D2A16917  19.863   9.243  11.517  0.1658 -0.1076 -0.0302
 1442DOPC   C3A16918  20.216   9.436  11.776  0.3824 -0.2521 -0.1413
 1442DOPC   C4A16919  20.325   9.406  12.209  0.2756  0.1016  0.2329
 1442DOPC   C1B16920  19.999   9.884  11.043 -0.0138 -0.0309 -0.1940
 1442DOPC   D2B16921  20.130  10.235  11.350 -0.0903 -0.0254 -0.0106
 1442DOPC   C3B16922  19.844  10.250  11.744 -0.2387  0.1051  0.0000
 1442DOPC   C4B16923  19.608  10.178  12.090 -0.1300 -0.2317 -0.0671
 1443DOPC   NC316924  20.979   8.680  10.696 -0.2060  0.2284 -0.0755
 1443DOPC   PO416925  20.931   8.342  10.506 -0.1214 -0.0235  0.0484
 1443DOPC   GL116926  21.124   8.135  10.754  0.1535  0.0130  0.1407
 1443DOPC   GL216927  21.089   8.241  10.983 -0.1231 -0.0632  0.0205
 1443DOPC   C1A16928  21.208   7.774  11.055  0.0983 -0.1358 -0.1790
 1443DOPC   D2A16929  21.139   7.361  11.180  0.1167  0.1460  0.0614
 1443DOPC   C3A16930  21.043   7.157  11.615  0.0771 -0.3263 -0.3246
 1443DOPC   C4A16931  21.037   7.156  12.129  0.4118 -0.2666 -0.0285
 1443DOPC   C1B16932  20.810   7.969  11.229  0.3723  0.1740  0.2056
 1443DOPC   D2B16933  20.446   7.903  11.422  0.0376 -0.0172 -0.0957
 1443DOPC   C3B16934  20.225   7.945  11.874  0.1759  0.3743 -0.1981
 1443DOPC   C4B16935  20.218   8.050  12.307 -0.3704 -0.0167 -0.2737
 1444DOPC   NC316936  15.844   4.819  11.079 -0.0689  0.1937 -0.2277
 1444DOPC   PO416937  16.054   5.106  11.011  0.2457  0.1821 -0.1507
 1444DOPC   GL116938  16.268   5.173  11.364 -0.0254  0.1533  0.0712
 1444DOPC   GL216939  16.396   5.405  11.384  0.0635  0.0894 -0.0177
 1444DOPC   C1A16940  16.639   4.905  11.456  0.2163 -0.0233  0.1826
 1444DOPC   D2A16941  16.789   4.754  11.888 -0.3158  0.1301  0.2182
 1444DOPC   C3A16942  16.838   5.013  12.231 -0.0426 -0.1719 -0.3207
 1444DOPC   C4A16943  17.171   5.333  12.187  0.0761 -0.0446 -0.1409
 1444DOPC   C1B16944  15.997   5.443  11.616  0.1871  0.1260 -0.2138
 1444DOPC   D2B16945  15.880   5.048  11.832  0.1340  0.0202 -0.2226
 1444DOPC   C3B16946  15.928   4.785  12.223 -0.1695 -0.1034 -0.1126
 1444DOPC   C4B16947  16.084   4.665  12.655 -0.1085 -0.2467 -0.0295
 1445DOPE   NH316948  16.361  34.213  10.564 -0.4873  0.0529  0.0263
 1445DOPE   PO416949  16.154  33.940  10.545  0.1848  0.0741 -0.1724
 1445DOPE   GL116950  15.954  33.876  10.970 -0.0239  0.3292 -0.2725
 1445DOPE   GL216951  16.166  33.997  11.068  0.1383  0.0557  0.0958
 1445DOPE   C1A16952  15.910  33.445  11.151  0.0514  0.1988 -0.1167
 1445DOPE   D2A16953  16.189  33.110  11.351 -0.1607  0.1729 -0.4731
 1445DOPE   C3A16954  16.550  33.162  11.054  0.1410 -0.2683 -0.0516
 1445DOPE   C4A16955  16.857  33.507  11.077  0.2232  0.1020 -0.0731
 1445DOPE   C1B16956  16.047  33.817  11.438  0.2059  0.0076  0.0847
 1445DOPE   D2B16957  15.981  33.422  11.673 -0.3672 -0.1143 -0.0334
 1445DOPE   C3B16958  16.056  33.330  12.136  0.1131 -0.1112  0.1164
 1445DOPE   C4B16959  16.424  33.553  12.305 -0.1099 -0.1604 -0.2520
 1446POSM   NC316960  17.215  32.079  10.539  0.1525  0.1538 -0.3790
 1446POSM   PO416961  17.018  32.434  10.445  0.2439  0.2602 -0.1280
 1446POSM   AM116962  17.007  32.378  10.779  0.0964 -0.0025 -0.2681
 1446POSM   AM216963  17.109  32.453  11.041 -0.3089  0.3697 -0.0761
 1446POSM   T1A16964  16.688  32.222  11.168  0.0428  0.0680 -0.1953
 1446POSM   C2A16965  16.438  32.299  11.560  0.0979 -0.0620 -0.2068
 1446POSM   C3A16966  16.004  32.547  11.458 -0.1443  0.0669  0.1644
 1446POSM   C1B16967  17.191  32.591  11.312  0.0849  0.1509 -0.1084
 1446POSM   D2B16968  17.513  32.515  11.698  0.0525 -0.0244 -0.1598
 1446POSM   C3B16969  17.627  32.857  11.967  0.1833  0.0728  0.2410
 1446POSM   C4B16970  17.756  33.304  11.980  0.0194 -0.0389  0.1325
 1447DOPE   NH316971  15.886  10.365  10.621  0.1979  0.1112 -0.0535
 1447DOPE   PO416972  15.648  10.182  10.571 -0.3923  0.0701 -0.0456
 1447DOPE   GL116973  15.561  10.254  10.935 -0.3636 -0.2945  0.3397
 1447DOPE   GL216974  15.786  10.081  11.039  0.0188 -0.3198  0.3076
 1447DOPE   C1A16975  15.160  10.122  11.127  0.2222  0.3552 -0.1690
 1447DOPE   D2A16976  15.205   9.877  11.514  0.0652 -0.0745 -0.0122
 1447DOPE   C3A16977  14.983   9.940  11.862 -0.1073  0.2543  0.1176
 1447DOPE   C4A16978  14.910  10.110  12.295 -0.1540  0.0483 -0.2370
 1447DOPE   C1B16979  15.628  10.083  11.461 -0.1200 -0.1298  0.1864
 1447DOPE   D2B16980  15.353  10.277  11.801  0.0280 -0.7002  0.1473
 1447DOPE   C3B16981  15.441  10.091  12.187  0.1193 -0.3025  0.0760
 1447DOPE   C4B16982  15.240   9.814  12.593 -0.3325  0.2905  0.0648
 1448DOPC   NC316983  18.544   1.410  10.742 -0.1312  0.0433 -0.1159
 1448DOPC   PO416984  18.691   1.013  10.687 -0.1659  0.1287 -0.2420
 1448DOPC   GL116985  18.826   1.024  11.025 -0.0412  0.1280 -0.0472
 1448DOPC   GL216986  18.792   1.285  11.145 -0.1696 -0.1117 -0.0754
 1448DOPC   C1A16987  19.126   0.826  11.318 -0.4544 -0.2853 -0.0173
 1448DOPC   D2A16988  19.352   0.930  11.748  0.2423 -0.0112 -0.0356
 1448DOPC   C3A16989  19.713   0.699  11.916 -0.1070  0.0361 -0.2196
 1448DOPC   C4A16990  20.141   0.644  12.053  0.3656  0.0933 -0.0437
 1448DOPC   C1B16991  19.093   1.312  11.479 -0.2469 -0.1453 -0.1728
 1448DOPC   D2B16992  19.255   1.404  11.912  0.2102  0.1414 -0.1292
 1448DOPC   C3B16993  18.879   1.542  12.181 -0.0633 -0.1732  0.2198
 1448DOPC   C4B16994  18.837   1.709  12.580  0.1488 -0.0209 -0.0853
 1449POSM   NC316995  18.847   2.249  10.384 -0.1804 -0.1992  0.0735
 1449POSM   PO416996  18.440   2.311  10.404 -0.0260 -0.1425  0.0519
 1449POSM   AM116997  18.287   2.250  10.702  0.5684  0.0358 -0.2095
 1449POSM   AM216998  18.070   2.404  10.844 -0.1404  0.2937  0.0324
 1449POSM   T1A16999  18.276   2.059  11.174 -0.0599 -0.1477  0.1772
 1449POSM   C2A17000  18.253   1.889  11.606 -0.4272  0.1981  0.3558
 1449POSM   C3A17001  17.870   1.939  11.829 -0.0423 -0.1933  0.2441
 1449POSM   C1B17002  17.786   2.372  11.070 -0.3344  0.0759 -0.0361
 1449POSM   D2B17003  17.531   2.181  11.412 -0.1600 -0.0135 -0.0797
 1449POSM   C3B17004  17.565   2.345  11.822  0.2382 -0.1097  0.1687
 1449POSM   C4B17005  17.285   2.599  12.078  0.1457 -0.2292  0.0362
 1450DOPE   NH317006  19.885   4.351  10.799  0.1211 -0.1483  0.0987
 1450DOPE   PO417007  20.021   4.186  10.601 -0.1728 -0.0198  0.2260
 1450DOPE   GL117008  20.165   3.860  10.861  0.1046 -0.2061 -0.2704
 1450DOPE   GL217009  20.295   4.074  11.069  0.2816  0.2555  0.1554
 1450DOPE   C1A17010  20.167   3.716  11.336  0.3023 -0.0175 -0.0752
 1450DOPE   D2A17011  20.091   3.871  11.802  0.1912  0.0480  0.0879
 1450DOPE   C3A17012  20.287   4.123  12.119  0.1499 -0.0673  0.0473
 1450DOPE   C4A17013  20.161   4.489  12.339  0.1753 -0.2536 -0.0393
 1450DOPE   C1B17014  20.232   4.241  11.515 -0.0131  0.3314 -0.1058
 1450DOPE   D2B17015  20.122   4.552  11.810  0.0548 -0.1227  0.0478
 1450DOPE   C3B17016  20.352   4.955  11.983 -0.1503  0.0056  0.0862
 1450DOPE   C4B17017  20.782   5.000  11.984 -0.0208 -0.3210 -0.2017
 1451DOPE   NH317018  14.948   6.263  10.675  0.1446  0.1744 -0.1537
 1451DOPE   PO417019  15.049   6.004  10.780 -0.0745 -0.2574  0.1704
 1451DOPE   GL117020  14.864   5.898  11.075  0.0437  0.3424 -0.2798
 1451DOPE   GL217021  14.582   6.075  11.035 -0.1417  0.0717 -0.0703
 1451DOPE   C1A17022  15.046   5.918  11.506  0.0052  0.0641  0.0684
 1451DOPE   D2A17023  15.050   5.527  11.761  0.1692 -0.1520  0.1231
 1451DOPE   C3A17024  15.048   5.567  12.206 -0.2792 -0.0238 -0.2613
 1451DOPE   C4A17025  14.671   5.807  12.457  0.2170  0.1003  0.2440
 1451DOPE   C1B17026  14.368   6.214  11.454  0.0189 -0.0611  0.2172
 1451DOPE   D2B17027  13.990   6.226  11.697  0.3786 -0.0811 -0.1346
 1451DOPE   C3B17028  14.204   6.493  12.038  0.1148  0.2091 -0.0253
 1451DOPE   C4B17029  14.274   6.746  12.395  0.2132 -0.1729 -0.2081
 1452DOPC   NC317030  17.082   6.120  10.688  0.2066  0.1219 -0.2439
 1452DOPC   PO417031  17.209   5.801  10.898 -0.1109 -0.1502 -0.0930
 1452DOPC   GL117032  17.257   5.703  11.276  0.1775 -0.0540 -0.0362
 1452DOPC   GL217033  17.364   5.464  11.246 -0.2402  0.0169 -0.2964
 1452DOPC   C1A17034  16.943   5.697  11.610  0.0388  0.1117 -0.4630
 1452DOPC   D2A17035  16.666   5.927  11.880 -0.0790 -0.2272  0.0074
 1452DOPC   C3A17036  16.730   5.574  12.219 -0.3120  0.0367  0.2176
 1452DOPC   C4A17037  16.491   5.454  12.584  0.2537 -0.0433  0.1445
 1452DOPC   C1B17038  17.457   5.432  11.701 -0.0778  0.0623  0.1362
 1452DOPC   D2B17039  17.699   5.153  11.962 -0.1403  0.1643  0.2035
 1452DOPC   C3B17040  17.833   4.973  12.337  0.2390 -0.0828 -0.1436
 1452DOPC   C4B17041  17.973   4.906  12.752 -0.0122 -0.1399  0.0518
 1453DOPE   NH317042  15.115   8.368  10.729 -0.0994  0.1460 -0.1462
 1453DOPE   PO417043  15.282   8.139  10.879  0.0091  0.0890  0.0036
 1453DOPE   GL117044  15.561   8.157  11.204 -0.1639 -0.1939  0.0026
 1453DOPE   GL217045  15.485   8.015  11.414  0.0884 -0.1862  0.0086
 1453DOPE   C1A17046  15.533   8.481  11.554  0.2147  0.2626 -0.1185
 1453DOPE   D2A17047  15.532   8.619  12.010  0.0590  0.0427 -0.2888
 1453DOPE   C3A17048  15.448   9.036  12.216  0.1673  0.0849 -0.1952
 1453DOPE   C4A17049  15.263   9.238  12.618 -0.0277  0.4059 -0.0508
 1453DOPE   C1B17050  15.467   7.848  11.869 -0.1253 -0.0690  0.1011
 1453DOPE   D2B17051  15.682   7.531  12.144  0.0001  0.0348  0.0956
 1453DOPE   C3B17052  15.559   7.619  12.601 -0.0458 -0.0724  0.2521
 1453DOPE   C4B17053  15.660   7.680  13.048 -0.1000  0.0039  0.0431
 1454POSM   NC317054  22.411   6.279  10.273  0.1381 -0.2220  0.2952
 1454POSM   PO417055  22.009   6.343  10.252 -0.1768  0.0065 -0.0740
 1454POSM   AM117056  22.071   6.440  10.565  0.2634 -0.3143 -0.0504
 1454POSM   AM217057  21.867   6.529  10.720 -0.1283 -0.0158  0.0324
 1454POSM   T1A17058  22.230   6.817  10.885 -0.0204  0.0151  0.1419
 1454POSM   C2A17059  22.246   6.874  11.336 -0.0545  0.1809 -0.2665
 1454POSM   C3A17060  22.361   6.733  11.798  0.2312 -0.2605 -0.4864
 1454POSM   C1B17061  21.823   6.239  10.899  0.2885  0.1994 -0.0178
 1454POSM   D2B17062  21.693   6.042  11.237  0.1945  0.1430  0.1147
 1454POSM   C3B17063  21.228   5.944  11.156  0.0171  0.1490 -0.3293
 1454POSM   C4B17064  20.838   5.670  11.354 -0.1332 -0.1115  0.1143
 1455DOPC   NC317065  22.030   8.628  10.005 -0.1833 -0.1299 -0.0579
 1455DOPC   PO417066  21.765   8.611  10.279 -0.0428 -0.1797 -0.1187
 1455DOPC   GL117067  21.922   8.597  10.680  0.2080  0.4206 -0.3308
 1455DOPC   GL217068  22.018   8.386  10.795  0.0033  0.0691 -0.0423
 1455DOPC   C1A17069  21.880   8.801  11.143  0.3895  0.0414  0.1701
 1455DOPC   D2A17070  21.896   8.919  11.550  0.0408  0.0328  0.1115
 1455DOPC   C3A17071  21.535   8.641  11.747  0.2031 -0.1321 -0.0873
 1455DOPC   C4A17072  21.226   8.326  11.959  0.0444 -0.0395 -0.0178
 1455DOPC   C1B17073  22.266   8.387  11.186  0.0492 -0.0351 -0.0405
 1455DOPC   D2B17074  22.468   8.657  11.500 -0.0363 -0.0311  0.2393
 1455DOPC   C3B17075  22.679   8.629  11.903  0.0863  0.0257  0.0135
 1455DOPC   C4B17076  22.889   8.858  12.277 -0.1168  0.1611 -0.2350
 1456POSM   NC317077  18.403  10.729  10.250  0.0407 -0.1669  0.1673
 1456POSM   PO417078  18.084  10.728  10.428  0.1447  0.1876 -0.0774
 1456POSM   AM117079  18.191  10.662  10.710  0.2028 -0.1634 -0.1647
 1456POSM   AM217080  18.070  10.558  10.996 -0.0840 -0.0633  0.4126
 1456POSM   T1A17081  18.334  10.910  11.118 -0.1466  0.1598 -0.0558
 1456POSM   C2A17082  18.714  10.826  11.392  0.1732 -0.2266  0.2497
 1456POSM   C3A17083  19.003  10.913  11.750  0.0424 -0.0956  0.2362
 1456POSM   C1B17084  17.767  10.585  11.242  0.0260  0.1714  0.0020
 1456POSM   D2B17085  17.561  10.405  11.532 -0.1478  0.2657 -0.0173
 1456POSM   C3B17086  17.824  10.334  11.896 -0.2716  0.0108 -0.0770
 1456POSM   C4B17087  18.072  10.369  12.271 -0.0494 -0.1773 -0.1646
 1457DOPE   NH317088  15.784  34.272  10.749  0.1436 -0.0332 -0.1332
 1457DOPE   PO417089  15.949  34.436  10.537 -0.0707 -0.1751 -0.3438
 1457DOPE   GL117090  16.044  34.679  10.857  0.0236 -0.2465 -0.1332
 1457DOPE   GL217091  16.204  34.503  11.000  0.0082 -0.4753 -0.1315
 1457DOPE   C1A17092  15.941  34.893  11.271  0.1268 -0.0274 -0.0177
 1457DOPE   D2A17093  16.044  34.765  11.739 -0.1597 -0.1869  0.2268
 1457DOPE   C3A17094  16.464  34.794  11.943  0.2391 -0.0909  0.1816
 1457DOPE   C4A17095  16.763  35.103  12.003  0.1866  0.0959 -0.2982
 1457DOPE   C1B17096  16.218  34.419  11.425  0.1570 -0.0206 -0.1728
 1457DOPE   D2B17097  16.267  34.294  11.887  0.1186 -0.0725 -0.0111
 1457DOPE   C3B17098  15.868  34.393  12.100 -0.0023  0.2592 -0.3325
 1457DOPE   C4B17099  15.634  34.579  12.473 -0.1784  0.2863  0.1581
 1458DOPC   NC317100  22.411   4.561  10.089  0.1445 -0.2102  0.2151
 1458DOPC   PO417101  22.010   4.618  10.114  0.3152  0.1989  0.2152
 1458DOPC   GL117102  22.042   4.814  10.480  0.0114 -0.2520  0.4967
 1458DOPC   GL217103  22.073   4.551  10.609 -0.1330 -0.1442  0.0894
 1458DOPC   C1A17104  21.823   5.148  10.710  0.2592  0.1421 -0.0422
 1458DOPC   D2A17105  22.012   5.313  11.074  0.0088 -0.1051  0.0409
 1458DOPC   C3A17106  21.839   5.580  11.436 -0.2575  0.0007  0.3432
 1458DOPC   C4A17107  21.847   5.938  11.694  0.2507  0.1087 -0.3776
 1458DOPC   C1B17108  22.007   4.747  11.035 -0.0402 -0.0765 -0.3087
 1458DOPC   D2B17109  21.960   4.869  11.486 -0.2376  0.2597  0.1353
 1458DOPC   C3B17110  22.274   5.024  11.802 -0.3044  0.0213 -0.0652
 1458DOPC   C4B17111  22.402   5.050  12.216 -0.0475 -0.0356  0.0474
 1459DOPE   NH317112  24.232   1.480  10.390 -0.0723 -0.1647 -0.1188
 1459DOPE   PO417113  23.964   1.500  10.546  0.1017 -0.1842 -0.0405
 1459DOPE   GL117114  24.168   1.604  10.943 -0.0656 -0.1774 -0.3383
 1459DOPE   GL217115  24.056   1.853  10.942  0.0602 -0.1631 -0.1909
 1459DOPE   C1A17116  24.270   1.843  11.368 -0.4076  0.0126  0.1886
 1459DOPE   D2A17117  24.015   2.128  11.668  0.0143  0.0653  0.1541
 1459DOPE   C3A17118  23.724   2.076  12.050  0.2330  0.0564 -0.1192
 1459DOPE   C4A17119  23.311   2.113  12.306 -0.1003 -0.0863  0.0879
 1459DOPE   C1B17120  23.728   1.912  11.316  0.1225  0.1158  0.2653
 1459DOPE   D2B17121  23.506   1.640  11.586 -0.2329 -0.3352 -0.0121
 1459DOPE   C3B17122  23.545   1.576  12.088  0.0001 -0.2713  0.2638
 1459DOPE   C4B17123  23.674   1.727  12.523 -0.2158 -0.0106  0.0952
 1460POSM   NC317124  14.114   4.268  10.213 -0.1363  0.3233 -0.0284
 1460POSM   PO417125  14.095   3.937  10.088  0.0353  0.0104  0.1763
 1460POSM   AM117126  14.070   3.804  10.367  0.1869 -0.2775 -0.3517
 1460POSM   AM217127  14.111   3.511  10.396 -0.0541  0.4406  0.0641
 1460POSM   T1A17128  13.797   3.684  10.759 -0.1450 -0.0193  0.1741
 1460POSM   C2A17129  13.743   3.669  11.237  0.0467 -0.0540 -0.1406
 1460POSM   C3A17130  13.819   3.998  11.507  0.0470  0.0379  0.1215
 1460POSM   C1B17131  14.276   3.409  10.673  0.1730 -0.1031 -0.1450
 1460POSM   D2B17132  14.171   3.336  11.187  0.1553 -0.0855  0.0036
 1460POSM   C3B17133  13.889   3.083  11.407 -0.2308 -0.0222 -0.2140
 1460POSM   C4B17134  13.565   2.747  11.289 -0.2717  0.0943  0.3504
 1461DOPC   NC317135  17.770   8.021  10.552 -0.2820  0.0689 -0.0790
 1461DOPC   PO417136  17.517   7.786  10.730  0.0115 -0.0745 -0.2555
 1461DOPC   GL117137  17.482   7.847  11.125  0.2142 -0.3353  0.2071
 1461DOPC   GL217138  17.252   7.724  11.191  0.0423 -0.2254  0.0216
 1461DOPC   C1A17139  17.417   8.156  11.475 -0.0637 -0.2258  0.1059
 1461DOPC   D2A17140  17.537   8.588  11.628  0.2157  0.3623 -0.1835
 1461DOPC   C3A17141  17.506   8.622  12.125  0.1610  0.1791 -0.1767
 1461DOPC   C4A17142  17.501   8.429  12.581 -0.1694 -0.4342 -0.2705
 1461DOPC   C1B17143  17.462   7.581  11.546 -0.0292 -0.0063  0.0503
 1461DOPC   D2B17144  17.579   7.550  11.988  0.1043 -0.1225  0.2132
 1461DOPC   C3B17145  17.406   7.450  12.388  0.1629 -0.2912 -0.2791
 1461DOPC   C4B17146  17.189   7.066  12.657  0.0906 -0.0338  0.0005
 1462POSM   NC317147  20.209   3.029  10.526  0.0887  0.0400 -0.2111
 1462POSM   PO417148  20.441   2.766  10.364  0.2140  0.0872  0.0341
 1462POSM   AM117149  20.601   2.803  10.678 -0.2225 -0.1490  0.4766
 1462POSM   AM217150  20.533   2.732  10.955 -0.0147 -0.0214  0.3189
 1462POSM   T1A17151  21.024   2.899  10.938  0.1283  0.2847  0.0165
 1462POSM   C2A17152  21.324   3.083  11.179 -0.0628  0.0492 -0.1211
 1462POSM   C3A17153  21.766   3.189  11.186 -0.1027 -0.1303 -0.0386
 1462POSM   C1B17154  20.687   2.751  11.292  0.0109 -0.1039 -0.0021
 1462POSM   D2B17155  20.919   3.018  11.572 -0.0905 -0.1841  0.1834
 1462POSM   C3B17156  21.387   2.925  11.714 -0.0507 -0.0062  0.0146
 1462POSM   C4B17157  21.728   2.610  11.897  0.1347 -0.0228  0.0009
 1463POSM   NC317158  16.820   7.672  10.554 -0.2527 -0.0061  0.0409
 1463POSM   PO417159  16.779   7.342  10.759 -0.0585 -0.0212  0.3626
 1463POSM   AM117160  16.730   7.194  11.046 -0.3610  0.2474 -0.0842
 1463POSM   AM217161  16.919   7.258  11.220 -0.3851  0.1258  0.0362
 1463POSM   T1A17162  16.666   7.022  11.544 -0.0006 -0.0777 -0.0451
 1463POSM   C2A17163  16.723   7.099  11.972 -0.1305  0.3126  0.0170
 1463POSM   C3A17164  16.623   7.187  12.388  0.1707 -0.0182  0.0024
 1463POSM   C1B17165  17.157   7.054  11.453  0.0857  0.0271 -0.4933
 1463POSM   D2B17166  17.014   6.732  11.747  0.0157 -0.2676 -0.0986
 1463POSM   C3B17167  17.398   6.562  11.957  0.1427 -0.1063 -0.0339
 1463POSM   C4B17168  17.603   6.169  12.011  0.1744  0.0392 -0.1144
 1464DOPC   NC317169  16.406   1.131  10.359 -0.0948  0.0743  0.3437
 1464DOPC   PO417170  16.241   1.338  10.079  0.3056  0.1780 -0.0733
 1464DOPC   GL117171  16.199   1.611  10.463 -0.2505  0.1597  0.2793
 1464DOPC   GL217172  16.055   1.375  10.621  0.1935 -0.0086  0.3690
 1464DOPC   C1A17173  16.452   1.663  10.882  0.1782  0.1164 -0.0834
 1464DOPC   D2A17174  16.440   1.784  11.382  0.1511  0.0031  0.0809
 1464DOPC   C3A17175  16.616   2.189  11.576  0.2582  0.1304 -0.2771
 1464DOPC   C4A17176  17.035   2.276  11.825  0.1080 -0.0523  0.1817
 1464DOPC   C1B17177  16.082   1.373  11.095  0.1614  0.0773 -0.3878
 1464DOPC   D2B17178  15.975   1.187  11.547 -0.1025  0.2255  0.1213
 1464DOPC   C3B17179  15.953   1.549  11.878 -0.1156  0.1238  0.3381
 1464DOPC   C4B17180  16.396   1.747  11.986 -0.2209 -0.2442 -0.2551
 1465DOPE   NH317181  14.591   0.492  10.031  0.0472 -0.1986 -0.4008
 1465DOPE   PO417182  14.607   0.167  10.135 -0.1180  0.0373  0.0398
 1465DOPE   GL117183  14.662   0.261  10.481 -0.0990 -0.2297  0.0574
 1465DOPE   GL217184  14.923   0.464  10.446  0.0299 -0.0334 -0.0438
 1465DOPE   C1A17185  14.524   0.050  10.905 -0.2174 -0.1907  0.3025
 1465DOPE   D2A17186  14.272  -0.113  11.260 -0.2056  0.1605 -0.2822
 1465DOPE   C3A17187  14.638  -0.216  11.569  0.0085 -0.1260 -0.0292
 1465DOPE   C4A17188  14.982  -0.398  11.878  0.0328  0.0283 -0.1195
 1465DOPE   C1B17189  15.001   0.244  10.857  0.0422 -0.0262 -0.0383
 1465DOPE   D2B17190  14.987  -0.072  11.238  0.1494 -0.1269 -0.0616
 1465DOPE   C3B17191  15.020   0.072  11.650  0.1162  0.1470 -0.3246
 1465DOPE   C4B17192  15.014   0.279  12.050 -0.0504  0.0803 -0.0733
 1466POSM   NC317193  10.908  12.399  10.831 -0.0462  0.2568  0.1413
 1466POSM   PO417194  11.105  12.650  10.984 -0.2478 -0.3538 -0.4241
 1466POSM   AM117195  11.062  12.568  11.317 -0.2142 -0.3517 -0.2340
 1466POSM   AM217196  11.057  12.726  11.586 -0.2018 -0.0203  0.2455
 1466POSM   T1A17197  11.097  12.191  11.646 -0.2438 -0.3250  0.0360
 1466POSM   C2A17198  10.914  12.181  12.093 -0.2471  0.0451  0.0813
 1466POSM   C3A17199  10.569  12.440  12.353 -0.0168 -0.5693 -0.2382
 1466POSM   C1B17200  11.106  12.656  11.948  0.1043 -0.0144  0.0522
 1466POSM   D2B17201  10.989  12.638  12.351 -0.2516  0.1456 -0.1057
 1466POSM   C3B17202  10.888  12.456  12.811 -0.2384  0.0632  0.2333
 1466POSM   C4B17203  11.017  12.233  13.186  0.3170 -0.0414 -0.3059
 1467POSM   NC317204  15.034   1.373  10.190 -0.1858 -0.0720  0.3194
 1467POSM   PO417205  15.327   1.160  10.162  0.1933  0.0057  0.1170
 1467POSM   AM117206  15.422   1.134  10.500 -0.3096  0.2725  0.0919
 1467POSM   AM217207  15.526   1.002  10.700  0.2423 -0.0621 -0.0884
 1467POSM   T1A17208  15.643   1.455  10.769 -0.1752  0.0016 -0.3535
 1467POSM   C2A17209  15.467   1.790  11.032  0.0624  0.0019 -0.1372
 1467POSM   C3A17210  15.181   1.989  11.376  0.0362  0.1581  0.2955
 1467POSM   C1B17211  15.676   0.989  10.973 -0.0973 -0.0011 -0.0174
 1467POSM   D2B17212  15.890   0.745  11.276 -0.0606 -0.2888 -0.1882
 1467POSM   C3B17213  15.918   0.600  11.727 -0.2175  0.0284 -0.0904
 1467POSM   C4B17214  16.220   0.525  12.066  0.1821 -0.3914 -0.2561
 1468DOPS   CNO17215  19.693   5.195  10.660  0.0840  0.0973 -0.0971
 1468DOPS   PO417216  19.722   4.821  10.678  0.1650  0.0528  0.0308
 1468DOPS   GL117217  19.971   4.887  10.985 -0.1866 -0.0321  0.2472
 1468DOPS   GL217218  19.976   4.695  11.222 -0.1096  0.0774 -0.2818
 1468DOPS   C1A17219  20.023   5.270  11.258 -0.1799  0.1449 -0.1859
 1468DOPS   D2A17220  19.652   5.608  11.240 -0.0653 -0.0532  0.2839
 1468DOPS   C3A17221  19.484   5.822  10.903  0.2359 -0.0631 -0.1713
 1468DOPS   C4A17222  19.258   6.232  10.808  0.1971 -0.0923 -0.1409
 1468DOPS   C1B17223  20.472   4.585  11.177 -0.1954  0.2082 -0.0417
 1468DOPS   D2B17224  20.694   4.340  10.821 -0.3191  0.0292  0.3480
 1468DOPS   C3B17225  21.041   4.139  11.075  0.0279  0.2215 -0.0530
 1468DOPS   C4B17226  21.180   3.911  11.438  0.0536  0.5382  0.0647
 1469DOPC   NC317227  16.094   9.833  10.576  0.1884 -0.0553 -0.2829
 1469DOPC   PO417228  16.249  10.097  10.814 -0.0893  0.1434  0.2382
 1469DOPC   GL117229  16.208  10.367  11.122  0.4165  0.1539 -0.1533
 1469DOPC   GL217230  15.945  10.571  11.061  0.0080  0.3110 -0.1299
 1469DOPC   C1A17231  16.131  10.120  11.486  0.3772  0.1790 -0.5956
 1469DOPC   D2A17232  16.165  10.044  11.954 -0.0866 -0.1390 -0.2170
 1469DOPC   C3A17233  15.986   9.841  12.342  0.1468 -0.1287  0.4414
 1469DOPC   C4A17234  16.215   9.779  12.756 -0.0578  0.1637  0.0728
 1469DOPC   C1B17235  15.693  10.569  11.448 -0.0682 -0.1070  0.2316
 1469DOPC   D2B17236  15.817  10.536  11.937 -0.0036 -0.1861  0.0286
 1469DOPC   C3B17237  15.824  10.366  12.341  0.0307 -0.0544  0.1201
 1469DOPC   C4B17238  15.671  10.106  12.673 -0.2628 -0.1022 -0.3103
 1470POSM   NC317239  13.927   3.485   9.908  0.2205 -0.0559  0.0074
 1470POSM   PO417240  14.195   3.205   9.973  0.1549  0.0504 -0.4215
 1470POSM   AM117241  14.177   3.050  10.234  0.1140  0.2596  0.0648
 1470POSM   AM217242  14.360   2.922  10.454  0.1113 -0.1066  0.2833
 1470POSM   T1A17243  13.964   3.034  10.724  0.2986  0.1946  0.0466
 1470POSM   C2A17244  13.654   3.149  11.032  0.0694 -0.0032 -0.0750
 1470POSM   C3A17245  13.447   3.303  11.398 -0.1066 -0.0029  0.1504
 1470POSM   C1B17246  14.498   2.768  10.748  0.0276 -0.1899 -0.1211
 1470POSM   D2B17247  14.533   2.397  11.018 -0.2851 -0.0366 -0.1687
 1470POSM   C3B17248  14.798   2.312  11.390 -0.2047  0.2007 -0.2117
 1470POSM   C4B17249  14.953   2.013  11.779 -0.2515  0.0267 -0.1357
 1471DOPE   NH317250  15.432   2.863  10.117  0.1645 -0.0931 -0.1673
 1471DOPE   PO417251  15.591   2.599  10.165 -0.1020 -0.2980 -0.0186
 1471DOPE   GL117252  15.546   2.462  10.498  0.0289 -0.0270 -0.2211
 1471DOPE   GL217253  15.399   2.746  10.654  0.1295 -0.2275  0.0893
 1471DOPE   C1A17254  15.612   2.212  10.860  0.3426  0.1939  0.2507
 1471DOPE   D2A17255  15.622   2.227  11.356 -0.1544 -0.0127 -0.1348
 1471DOPE   C3A17256  15.592   2.019  11.721 -0.0876 -0.3274  0.0407
 1471DOPE   C4A17257  15.342   1.937  12.062 -0.0451 -0.0121 -0.0946
 1471DOPE   C1B17258  15.492   2.785  11.095 -0.1712 -0.0287  0.0837
 1471DOPE   D2B17259  15.624   2.858  11.553  0.0950 -0.1194 -0.0647
 1471DOPE   C3B17260  15.865   2.509  11.793 -0.2802  0.2187  0.0918
 1471DOPE   C4B17261  15.796   2.209  12.138  0.2896 -0.2171  0.1277
 1472POSM   NC317262  13.081   7.245  10.446  0.1241 -0.1641 -0.2214
 1472POSM   PO417263  12.962   7.077  10.771  0.0890 -0.1990  0.3222
 1472POSM   AM117264  12.827   6.935  11.053  0.3319 -0.2984  0.2083
 1472POSM   AM217265  12.601   6.913  11.220  0.2331  0.0024 -0.3326
 1472POSM   T1A17266  13.060   6.765  11.461 -0.2429 -0.0952 -0.0789
 1472POSM   C2A17267  13.293   6.822  11.860  0.0366  0.0285 -0.1352
 1472POSM   C3A17268  13.250   6.850  12.291  0.0731 -0.1367  0.0071
 1472POSM   C1B17269  12.528   6.740  11.501 -0.0991  0.1871 -0.0032
 1472POSM   D2B17270  12.525   6.632  11.944  0.1605 -0.1119  0.2193
 1472POSM   C3B17271  12.679   6.972  12.254 -0.0367 -0.0544 -0.2179
 1472POSM   C4B17272  12.876   7.312  12.460 -0.1915 -0.2005  0.1009
 1473POSM   NC317273  15.941   8.118  10.937 -0.1595 -0.0065  0.2357
 1473POSM   PO417274  16.169   7.812  10.793 -0.0200  0.0307  0.0841
 1473POSM   AM117275  16.115   7.738  11.122 -0.1126 -0.0819 -0.1407
 1473POSM   AM217276  15.893   7.701  11.317  0.1304 -0.0055  0.0569
 1473POSM   T1A17277  16.437   7.683  11.516 -0.2018  0.0114  0.1381
 1473POSM   C2A17278  16.606   7.741  11.911 -0.0999 -0.1562  0.2381
 1473POSM   C3A17279  16.925   7.536  12.183  0.4119  0.1133  0.1163
 1473POSM   C1B17280  15.914   7.764  11.709  0.0392 -0.1368  0.0081
 1473POSM   D2B17281  16.145   7.746  12.063  0.2770  0.0609 -0.0256
 1473POSM   C3B17282  15.970   7.967  12.359  0.1440 -0.2262 -0.0548
 1473POSM   C4B17283  15.539   8.119  12.337  0.1069  0.1574  0.1257
 1474POSM   NC317284  15.418   7.295  10.605 -0.2398 -0.0973  0.0310
 1474POSM   PO417285  15.458   7.032  10.917  0.4556 -0.0859  0.1860
 1474POSM   AM117286  15.510   6.986  11.248 -0.1488  0.0451  0.0838
 1474POSM   AM217287  15.329   6.950  11.458  0.1741 -0.1224 -0.2504
 1474POSM   T1A17288  15.904   6.825  11.541  0.4074  0.0511 -0.1803
 1474POSM   C2A17289  16.181   6.780  11.890  0.0421 -0.0937 -0.2358
 1474POSM   C3A17290  16.332   6.700  12.299 -0.1819  0.0268  0.1207
 1474POSM   C1B17291  15.196   6.788  11.698 -0.1413  0.0525  0.2041
 1474POSM   D2B17292  15.121   6.526  12.072 -0.1775 -0.0384 -0.1974
 1474POSM   C3B17293  14.692   6.385  12.219  0.1180 -0.2006  0.0515
 1474POSM   C4B17294  14.438   6.035  11.999  0.0162 -0.0256  0.0385
 1475DOPS   CNO17295  19.087   7.095  10.666 -0.2310 -0.0247 -0.1103
 1475DOPS   PO417296  19.281   6.853  10.451  0.2167 -0.7491 -0.0315
 1475DOPS   GL117297  19.495   6.655  10.740  0.0928 -0.2215 -0.0038
 1475DOPS   GL217298  19.809   6.731  10.877  0.3430 -0.0004  0.0810
 1475DOPS   C1A17299  19.352   6.710  11.148  0.1330 -0.1266 -0.2496
 1475DOPS   D2A17300  19.105   7.011  11.393  0.1267  0.0854  0.0827
 1475DOPS   C3A17301  19.154   6.860  11.835  0.2556  0.3543 -0.3638
 1475DOPS   C4A17302  19.404   6.950  12.150 -0.0018  0.2973 -0.3606
 1475DOPS   C1B17303  19.882   6.897  11.305  0.0334 -0.0349  0.1080
 1475DOPS   D2B17304  19.608   6.892  11.716  0.1964 -0.0813  0.2472
 1475DOPS   C3B17305  19.426   7.290  11.727 -0.2871 -0.1685  0.0335
 1475DOPS   C4B17306  19.245   7.562  12.025 -0.2114 -0.0691  0.1192
 1476POSM   NC317307  16.540   3.238  10.220 -0.1759  0.0842 -0.1481
 1476POSM   PO417308  16.737   2.993  10.496  0.1529  0.0171 -0.1085
 1476POSM   AM117309  16.602   2.868  10.776  0.4546 -0.3360  0.2644
 1476POSM   AM217310  16.393   2.691  10.869 -0.1298  0.1596  0.1263
 1476POSM   T1A17311  16.525   2.949  11.257 -0.3531  0.0503  0.1194
 1476POSM   C2A17312  16.575   3.134  11.629 -0.2409  0.4503 -0.1600
 1476POSM   C3A17313  16.411   3.285  12.029 -0.0938  0.2851  0.1144
 1476POSM   C1B17314  16.682   2.503  11.001 -0.1495 -0.4301  0.0969
 1476POSM   D2B17315  17.031   2.245  11.256 -0.1119  0.1057  0.2587
 1476POSM   C3B17316  17.077   1.869  11.453 -0.0973  0.3750 -0.1810
 1476POSM   C4B17317  16.817   1.651  11.797  0.0493 -0.1317  0.0334
 1477DOPE   NH317318  23.032   5.786  10.007  0.1789  0.4222 -0.1158
 1477DOPE   PO417319  23.265   5.623  10.104 -0.1082 -0.1455  0.1502
 1477DOPE   GL117320  23.407   5.788  10.459  0.1226  0.1587  0.1409
 1477DOPE   GL217321  23.629   6.009  10.463 -0.0722  0.0036  0.0701
 1477DOPE   C1A17322  23.747   5.587  10.732  0.1014 -0.0569 -0.5263
 1477DOPE   D2A17323  23.997   5.525  11.155  0.2949 -0.0810  0.3412
 1477DOPE   C3A17324  24.034   5.537  11.599 -0.1985  0.1125  0.0617
 1477DOPE   C4A17325  23.961   5.636  12.055  0.1789 -0.0118  0.1040
 1477DOPE   C1B17326  23.373   6.022  10.869  0.1109  0.1472  0.1414
 1477DOPE   D2B17327  23.627   5.904  11.266  0.0318  0.0173 -0.0922
 1477DOPE   C3B17328  23.730   5.922  11.738 -0.0271  0.3736 -0.0538
 1477DOPE   C4B17329  23.783   6.165  12.113  0.0131  0.1224  0.2920
 1478DOPE   NH317330  26.053   9.459  10.313 -0.4575 -0.0782  0.3597
 1478DOPE   PO417331  25.925   9.741  10.392 -0.5335 -0.0769 -0.0361
 1478DOPE   GL117332  25.830   9.946  10.635  0.1585 -0.2139  0.0176
 1478DOPE   GL217333  25.709  10.205  10.529 -0.2289  0.2077 -0.1382
 1478DOPE   C1A17334  25.728   9.635  11.018 -0.0451  0.0607  0.0525
 1478DOPE   D2A17335  25.617   9.460  11.440 -0.1309 -0.0232  0.0103
 1478DOPE   C3A17336  25.986   9.505  11.584 -0.1397 -0.3251  0.2217
 1478DOPE   C4A17337  26.344   9.315  11.578  0.2995 -0.1576 -0.0445
 1478DOPE   C1B17338  25.806  10.186  10.995  0.0439 -0.0107  0.2205
 1478DOPE   D2B17339  25.713   9.966  11.389 -0.1561 -0.2479 -0.2078
 1478DOPE   C3B17340  25.577  10.095  11.810 -0.0287 -0.1535  0.1189
 1478DOPE   C4B17341  25.660  10.100  12.200  0.2266  0.1496  0.0210
 1479DOPE   NH317342  16.232   8.864  10.951  0.1695  0.0618 -0.1066
 1479DOPE   PO417343  16.181   8.551  10.929  0.0606 -0.1753 -0.1366
 1479DOPE   GL117344  16.353   8.427  11.104  0.4818 -0.1398  0.2675
 1479DOPE   GL217345  16.390   8.151  11.234  0.4960  0.1426 -0.0700
 1479DOPE   C1A17346  16.459   8.560  11.566 -0.1457 -0.1496  0.1158
 1479DOPE   D2A17347  16.718   8.692  12.013  0.0769 -0.1239 -0.1296
 1479DOPE   C3A17348  16.621   8.611  12.515  0.2778  0.0105  0.1212
 1479DOPE   C4A17349  16.229   8.711  12.742 -0.0412 -0.0003  0.0632
 1479DOPE   C1B17350  16.424   8.131  11.717 -0.1082  0.0482  0.0239
 1479DOPE   D2B17351  16.459   8.146  12.219  0.2465 -0.2563  0.1827
 1479DOPE   C3B17352  16.607   7.785  12.480  0.0810 -0.3656  0.0463
 1479DOPE   C4B17353  16.999   7.611  12.699 -0.0385 -0.0124 -0.3639
 1480DOPE   NH317354  11.019   2.209  10.133 -0.0224 -0.1075  0.0380
 1480DOPE   PO417355  11.309   2.103  10.257  0.0034 -0.2647 -0.0461
 1480DOPE   GL117356  11.190   2.119  10.591 -0.1747 -0.3418  0.2011
 1480DOPE   GL217357  11.403   2.021  10.740 -0.0985  0.1550 -0.0727
 1480DOPE   C1A17358  11.130   2.435  10.922 -0.2144 -0.1272  0.1109
 1480DOPE   D2A17359  11.424   2.767  11.053 -0.0093 -0.2698  0.1815
 1480DOPE   C3A17360  11.311   3.209  11.003  0.1309  0.0305  0.0668
 1480DOPE   C4A17361  11.327   3.684  10.947  0.1203 -0.1995  0.3074
 1480DOPE   C1B17362  11.583   2.271  11.106 -0.1720  0.0337 -0.2283
 1480DOPE   D2B17363  11.578   2.233  11.557  0.0689  0.1434 -0.0244
 1480DOPE   C3B17364  11.308   2.476  11.890 -0.0574 -0.0929  0.0118
 1480DOPE   C4B17365  11.061   2.841  12.155 -0.0454  0.0473 -0.0249
 1481POSM   NC317366  13.118   5.763  10.539  0.1364 -0.2228  0.1735
 1481POSM   PO417367  13.460   5.828  10.437  0.0227 -0.2543  0.0849
 1481POSM   AM117368  13.524   5.696  10.718  0.1517 -0.1790 -0.0403
 1481POSM   AM217369  13.331   5.591  10.929 -0.2188  0.2249  0.2751
 1481POSM   T1A17370  13.766   5.571  11.146  0.0463 -0.0495  0.0662
 1481POSM   C2A17371  13.642   5.427  11.596 -0.1688  0.0612 -0.2921
 1481POSM   C3A17372  13.561   5.309  12.027 -0.0569 -0.2261  0.4017
 1481POSM   C1B17373  13.212   5.495  11.239 -0.0431 -0.1173 -0.1616
 1481POSM   D2B17374  13.122   5.569  11.714 -0.0466 -0.2753  0.0086
 1481POSM   C3B17375  13.050   5.470  12.203 -0.4738 -0.0144  0.1017
 1481POSM   C4B17376  13.409   5.367  12.548  0.2470  0.1301 -0.1890
 1482DOPC   NC317377  21.658  11.871  10.307  0.0517  0.0480 -0.0630
 1482DOPC   PO417378  22.002  12.010  10.341  0.0384 -0.2194 -0.0256
 1482DOPC   GL117379  21.990  11.873  10.722 -0.0416  0.3486  0.0590
 1482DOPC   GL217380  22.039  12.080  10.853 -0.3289 -0.0067  0.1411
 1482DOPC   C1A17381  22.147  11.545  11.072 -0.1279  0.0140  0.0308
 1482DOPC   D2A17382  22.494  11.266  11.256  0.1096  0.2754 -0.1438
 1482DOPC   C3A17383  22.523  11.424  11.688 -0.1581  0.1830 -0.2568
 1482DOPC   C4A17384  22.466  11.767  11.977  0.1124  0.3839 -0.0530
 1482DOPC   C1B17385  22.163  12.202  11.284  0.0392 -0.1466  0.1203
 1482DOPC   D2B17386  22.458  12.117  11.658  0.0957  0.1204 -0.1277
 1482DOPC   C3B17387  22.173  12.142  12.068 -0.2156  0.2115 -0.1518
 1482DOPC   C4B17388  22.109  12.520  12.281  0.0448 -0.3033  0.0244
 1483DOPC   NC317389  18.457   9.697  10.570  0.0824  0.0109  0.2429
 1483DOPC   PO417390  18.079   9.651  10.601  0.2407  0.1438 -0.3274
 1483DOPC   GL117391  18.166   9.826  10.989  0.3568  0.2015  0.0019
 1483DOPC   GL217392  17.902   9.982  10.945  0.1208 -0.0068 -0.1557
 1483DOPC   C1A17393  18.109   9.554  11.366 -0.3271  0.0607  0.0266
 1483DOPC   D2A17394  17.786   9.310  11.576 -0.0618 -0.2729 -0.1041
 1483DOPC   C3A17395  17.522   9.010  11.325  0.1423  0.2055  0.1598
 1483DOPC   C4A17396  17.268   8.981  10.981  0.0233 -0.1688 -0.0853
 1483DOPC   C1B17397  18.011  10.140  11.353 -0.3116 -0.1315 -0.1996
 1483DOPC   D2B17398  18.068   9.864  11.769 -0.0759  0.2716  0.0512
 1483DOPC   C3B17399  17.972   9.937  12.190  0.2906 -0.1711 -0.2409
 1483DOPC   C4B17400  18.049   9.728  12.649 -0.0698 -0.2994  0.2228
 1484POSM   NC317401  12.861   4.879  10.479 -0.2857  0.0366 -0.1151
 1484POSM   PO417402  13.268   4.913  10.503 -0.1405 -0.1227  0.2554
 1484POSM   AM117403  13.243   4.671  10.734 -0.0266 -0.2885 -0.3321
 1484POSM   AM217404  13.014   4.469  10.767 -0.2939 -0.2064 -0.1739
 1484POSM   T1A17405  13.320   4.585  11.183  0.2372  0.3287  0.0133
 1484POSM   C2A17406  13.178   4.433  11.616  0.2054  0.1524  0.1612
 1484POSM   C3A17407  13.135   4.122  11.952  0.2513  0.0707  0.1566
 1484POSM   C1B17408  12.871   4.222  10.959  0.0754  0.2586  0.0004
 1484POSM   D2B17409  12.516   4.016  11.146  0.0409  0.1296 -0.0162
 1484POSM   C3B17410  12.337   3.594  10.986  0.1530  0.1365 -0.1571
 1484POSM   C4B17411  12.220   3.331  10.593 -0.0307  0.1968 -0.3082
 1485POSM   NC317412  23.122   6.216   9.724 -0.0506 -0.2213 -0.0338
 1485POSM   PO417413  22.853   6.355   9.997 -0.1148  0.0485 -0.2986
 1485POSM   AM117414  22.841   6.426  10.295  0.1578  0.0981 -0.1792
 1485POSM   AM217415  22.930   6.618  10.509  0.2476  0.1564 -0.0076
 1485POSM   T1A17416  22.520   6.414  10.725 -0.3007 -0.2882  0.2564
 1485POSM   C2A17417  22.252   6.344  11.086  0.1720 -0.0034 -0.0980
 1485POSM   C3A17418  22.038   6.422  11.432 -0.0442 -0.0978 -0.0153
 1485POSM   C1B17419  23.057   6.546  10.771 -0.0172  0.0139 -0.1022
 1485POSM   D2B17420  23.110   6.352  11.165 -0.0042  0.0894  0.1485
 1485POSM   C3B17421  23.114   6.037  11.534  0.1203 -0.0016  0.0984
 1485POSM   C4B17422  22.972   5.944  11.969  0.2158 -0.0008 -0.1013
 1486DOPS   CNO17423  19.493   1.562  10.779 -0.1657  0.0516 -0.0480
 1486DOPS   PO417424  19.695   1.860  10.837  0.1451  0.0584  0.0668
 1486DOPS   GL117425  19.628   1.743  11.194  0.1442 -0.2288 -0.3949
 1486DOPS   GL217426  19.670   1.847  11.428 -0.0943  0.0646 -0.2783
 1486DOPS   C1A17427  19.604   1.372  11.527  0.0605  0.0496 -0.0383
 1486DOPS   D2A17428  19.765   1.186  11.884  0.0904  0.1155  0.0460
 1486DOPS   C3A17429  19.773   1.019  12.291  0.1749 -0.0610 -0.0113
 1486DOPS   C4A17430  19.935   1.073  12.682  0.3717  0.1542 -0.0241
 1486DOPS   C1B17431  19.558   1.799  11.823 -0.0066  0.1863  0.0831
 1486DOPS   D2B17432  19.747   1.639  12.191  0.0055  0.2576  0.1838
 1486DOPS   C3B17433  19.978   1.891  12.526 -0.0217 -0.0527  0.0366
 1486DOPS   C4B17434  19.980   2.263  12.825  0.2602 -0.1264 -0.1882
 1487DOPE   NH317435  20.934   9.482  10.869 -0.1762  0.0540 -0.1960
 1487DOPE   PO417436  20.968   9.164  10.892  0.1235 -0.0174  0.0311
 1487DOPE   GL117437  21.195   9.304  11.208  0.1524  0.0858  0.1254
 1487DOPE   GL217438  20.999   9.385  11.372 -0.3253 -0.1445 -0.5363
 1487DOPE   C1A17439  21.571   9.292  11.466  0.1442 -0.1778 -0.0976
 1487DOPE   D2A17440  21.667   9.292  11.951 -0.1048  0.1357 -0.5593
 1487DOPE   C3A17441  22.110   9.331  11.964  0.0116  0.0635 -0.0768
 1487DOPE   C4A17442  22.451   9.020  11.886  0.1877  0.1936 -0.1303
 1487DOPE   C1B17443  21.190   9.373  11.778 -0.2227 -0.0168 -0.0189
 1487DOPE   D2B17444  21.225   9.007  12.045  0.2310 -0.0573  0.0202
 1487DOPE   C3B17445  20.923   8.740  12.295 -0.2336  0.0168 -0.1088
 1487DOPE   C4B17446  20.469   8.879  12.273  0.0574 -0.1994  0.2536
 1488DOPC   NC317447  21.251   4.179  10.176 -0.3967 -0.0414 -0.1722
 1488DOPC   PO417448  21.305   4.560  10.126 -0.3345  0.2535  0.1244
 1488DOPC   GL117449  21.582   4.626  10.339  0.0851 -0.0629 -0.2509
 1488DOPC   GL217450  21.523   4.935  10.414  0.0040  0.1951  0.0557
 1488DOPC   C1A17451  21.635   4.523  10.797  0.1602 -0.1420  0.1525
 1488DOPC   D2A17452  21.562   4.655  11.200 -0.1985 -0.1390  0.0027
 1488DOPC   C3A17453  21.421   4.428  11.521  0.0989 -0.1347 -0.3976
 1488DOPC   C4A17454  21.489   4.674  11.931  0.1823  0.0670 -0.0875
 1488DOPC   C1B17455  21.309   5.114  10.762 -0.4320 -0.2274  0.0159
 1488DOPC   D2B17456  21.070   5.318  11.091  0.2726 -0.0525  0.1272
 1488DOPC   C3B17457  20.877   5.122  11.461 -0.0860  0.3571 -0.0868
 1488DOPC   C4B17458  20.515   4.878  11.529  0.0675  0.2838  0.2961
 1489DOPC   NC317459  17.022   6.892  10.863  0.0497 -0.5645 -0.0593
 1489DOPC   PO417460  17.219   6.547  10.932 -0.0894 -0.0025  0.0991
 1489DOPC   GL117461  17.236   6.442  11.301 -0.1671 -0.3462  0.2811
 1489DOPC   GL217462  17.059   6.171  11.328  0.1261  0.2488  0.1711
 1489DOPC   C1A17463  17.524   6.195  11.548 -0.1938 -0.0823 -0.0301
 1489DOPC   D2A17464  17.991   6.343  11.535 -0.1259  0.0798 -0.0471
 1489DOPC   C3A17465  18.311   6.266  11.906 -0.0526  0.0597 -0.3255
 1489DOPC   C4A17466  18.588   6.137  12.247  0.1068  0.1500 -0.0514
 1489DOPC   C1B17467  17.099   6.225  11.790 -0.0415  0.2015  0.2034
 1489DOPC   D2B17468  17.202   5.962  12.141 -0.0515  0.1326 -0.2702
 1489DOPC   C3B17469  16.909   6.007  12.522  0.3765 -0.1940 -0.1420
 1489DOPC   C4B17470  16.535   6.315  12.539 -0.2156  0.1812  0.0476
 1490DOPC   NC317471  18.960   8.371  10.369  0.0369  0.3144  0.0007
 1490DOPC   PO417472  19.202   8.622  10.568 -0.2582  0.0770  0.0596
 1490DOPC   GL117473  19.145   8.533  10.938  0.1990  0.3313  0.1048
 1490DOPC   GL217474  18.864   8.507  11.024 -0.2651  0.2080  0.0311
 1490DOPC   C1A17475  19.215   8.471  11.430  0.0963 -0.1774  0.0016
 1490DOPC   D2A17476  19.008   8.530  11.877  0.1976 -0.2286 -0.4694
 1490DOPC   C3A17477  19.275   8.457  12.268 -0.1129 -0.0045 -0.5142
 1490DOPC   C4A17478  19.065   8.448  12.713 -0.1175  0.0599 -0.0529
 1490DOPC   C1B17479  19.023   8.937  11.237  0.4408  0.2636 -0.0686
 1490DOPC   D2B17480  18.886   9.364  11.174  0.1040 -0.0688 -0.2226
 1490DOPC   C3B17481  18.551   9.397  11.507  0.0959 -0.1800  0.0880
 1490DOPC   C4B17482  18.216   9.338  11.802 -0.2466  0.1599  0.3652
 1491DOPE   NH317483  18.074   1.977  10.398 -0.0808  0.0627 -0.1889
 1491DOPE   PO417484  17.775   2.000  10.313  0.0952 -0.1673  0.1655
 1491DOPE   GL117485  17.751   2.072  10.684  0.3846  0.6714  0.1323
 1491DOPE   GL217486  17.850   1.847  10.832 -0.3288 -0.2093  0.0196
 1491DOPE   C1A17487  17.367   2.068  10.972 -0.0308 -0.0415 -0.3195
 1491DOPE   D2A17488  16.989   1.831  10.966  0.0419  0.1427  0.0638
 1491DOPE   C3A17489  16.831   1.454  11.218  0.1190  0.0059 -0.2209
 1491DOPE   C4A17490  16.931   1.121  11.516  0.2443 -0.2373 -0.2743
 1491DOPE   C1B17491  17.855   1.707  11.352  0.0812  0.2389 -0.1984
 1491DOPE   D2B17492  18.086   1.483  11.758 -0.2657  0.1227  0.1189
 1491DOPE   C3B17493  17.734   1.552  12.095 -0.1583  0.2484 -0.3418
 1491DOPE   C4B17494  17.475   1.671  12.480 -0.0645 -0.1306  0.0348
 1492DOPC   NC317495  22.868   7.736  10.007  0.0695  0.2213 -0.2546
 1492DOPC   PO417496  22.526   7.830  10.170 -0.2773  0.1491  0.4831
 1492DOPC   GL117497  22.622   7.624  10.527 -0.0446 -0.2852 -0.3891
 1492DOPC   GL217498  22.877   7.641  10.483  0.4461  0.3744 -0.4351
 1492DOPC   C1A17499  22.550   7.676  10.963 -0.1636  0.0622  0.1757
 1492DOPC   D2A17500  22.753   7.712  11.366  0.0703  0.1487 -0.1771
 1492DOPC   C3A17501  22.552   7.733  11.777  0.2811  0.2285  0.0084
 1492DOPC   C4A17502  22.715   7.452  12.103  0.0294  0.0953  0.1137
 1492DOPC   C1B17503  23.013   7.387  10.836  0.3855 -0.1422 -0.3429
 1492DOPC   D2B17504  23.146   7.129  11.154 -0.3053 -0.0998 -0.0046
 1492DOPC   C3B17505  22.972   7.273  11.538  0.2717  0.1647 -0.0048
 1492DOPC   C4B17506  23.165   7.468  11.915  0.1624  0.2361  0.1901
 1493POSM   NC317507  14.180   1.150  10.150  0.1630  0.0014 -0.1903
 1493POSM   PO417508  14.569   1.215  10.145  0.1545 -0.0158  0.1407
 1493POSM   AM117509  14.676   1.317  10.432 -0.2196  0.1407 -0.0020
 1493POSM   AM217510  14.707   1.567  10.563 -0.0549 -0.0064  0.0429
 1493POSM   T1A17511  14.739   1.096  10.878 -0.0711 -0.1790  0.0479
 1493POSM   C2A17512  14.780   1.206  11.373  0.1149  0.2204 -0.0136
 1493POSM   C3A17513  14.867   1.139  11.834  0.1545  0.1429 -0.0727
 1493POSM   C1B17514  14.529   1.564  10.877 -0.0924  0.2391 -0.1945
 1493POSM   D2B17515  14.253   1.366  11.169 -0.0225 -0.3934  0.2359
 1493POSM   C3B17516  14.346   0.926  11.054  0.4677  0.1025  0.1879
 1493POSM   C4B17517  14.514   0.547  10.796 -0.0694  0.0896  0.1535
 1494DOPS   CNO17518  12.921  28.328   9.256 -0.3064  0.0816  0.2555
 1494DOPS   PO417519  12.957  28.348   9.615 -0.2421 -0.0856  0.3082
 1494DOPS   GL117520  12.873  28.486   9.950 -0.0629  0.1633 -0.1422
 1494DOPS   GL217521  12.759  28.726   9.881  0.0140 -0.2871 -0.1687
 1494DOPS   C1A17522  13.025  28.683  10.332 -0.1587  0.1194 -0.1573
 1494DOPS   D2A17523  13.316  28.580  10.667  0.1540 -0.2120  0.0971
 1494DOPS   C3A17524  13.099  28.424  11.020 -0.0553  0.0311  0.1009
 1494DOPS   C4A17525  12.923  28.325  11.460  0.0361  0.2941 -0.0920
 1494DOPS   C1B17526  12.606  28.986  10.153 -0.1340  0.3721 -0.0170
 1494DOPS   D2B17527  12.211  28.959  10.348 -0.0496 -0.1193  0.0136
 1494DOPS   C3B17528  11.806  28.798  10.181  0.0894  0.1840 -0.0983
 1494DOPS   C4B17529  11.308  28.842  10.312  0.0154 -0.0895  0.0202
 1495DOPE   NH317530  15.708   3.641  10.426 -0.0572 -0.0947  0.2514
 1495DOPE   PO417531  15.554   3.797  10.216 -0.1244 -0.1486  0.0120
 1495DOPE   GL117532  15.301   3.823  10.588 -0.1014 -0.1503 -0.1164
 1495DOPE   GL217533  15.372   3.664  10.815 -0.0166  0.0529 -0.2334
 1495DOPE   C1A17534  15.255   4.141  10.924 -0.0113 -0.4255  0.0325
 1495DOPE   D2A17535  15.405   4.449  11.285 -0.0833 -0.0771  0.2636
 1495DOPE   C3A17536  15.172   4.448  11.677 -0.0995  0.2521  0.0399
 1495DOPE   C4A17537  14.919   4.646  12.026  0.2882 -0.0994 -0.0747
 1495DOPE   C1B17538  15.181   3.244  10.942  0.0813 -0.1879 -0.1122
 1495DOPE   D2B17539  15.217   3.064  11.400 -0.0876 -0.0419 -0.0213
 1495DOPE   C3B17540  15.042   3.338  11.668  0.3956 -0.1278 -0.0425
 1495DOPE   C4B17541  14.738   3.195  12.067  0.0037 -0.2100 -0.0782
 1496POSM   NC317542  13.754   4.614  10.450 -0.2241 -0.4187  0.2853
 1496POSM   PO417543  13.844   4.996  10.422 -0.1775  0.1256 -0.1341
 1496POSM   AM117544  13.729   5.021  10.739  0.3774  0.0832  0.2743
 1496POSM   AM217545  13.513   5.116  10.898  0.0112 -0.0510 -0.0498
 1496POSM   T1A17546  14.009   5.110  11.172  0.0415  0.1895  0.0642
 1496POSM   C2A17547  14.178   5.345  11.551 -0.3526 -0.1154  0.1279
 1496POSM   C3A17548  14.020   5.170  11.994 -0.0140 -0.1198  0.0038
 1496POSM   C1B17549  13.486   5.011  11.241  0.2050 -0.1639  0.5217
 1496POSM   D2B17550  13.736   4.925  11.629  0.0957 -0.0724 -0.2258
 1496POSM   C3B17551  13.558   4.751  12.000 -0.0809  0.1009 -0.3492
 1496POSM   C4B17552  13.396   4.883  12.367 -0.0986  0.2537  0.0581
 1497DOPC   NC317553  15.996   5.637  11.180  0.1638 -0.1271 -0.0895
 1497DOPC   PO417554  16.278   5.567  10.938  0.0925 -0.0711 -0.2686
 1497DOPC   GL117555  16.521   5.777  11.186  0.1122 -0.0836 -0.0061
 1497DOPC   GL217556  16.750   5.930  11.100 -0.1422 -0.0107  0.2756
 1497DOPC   C1A17557  16.249   5.904  11.545 -0.1280  0.0955  0.0653
 1497DOPC   D2A17558  15.946   5.903  11.891 -0.1539  0.2099 -0.0551
 1497DOPC   C3A17559  15.921   5.686  12.335 -0.2096  0.3160  0.2239
 1497DOPC   C4A17560  16.039   5.807  12.762 -0.0648 -0.1000  0.0007
 1497DOPC   C1B17561  16.495   6.235  11.273 -0.1707 -0.0761 -0.1726
 1497DOPC   D2B17562  16.322   6.659  11.363  0.0465  0.2153 -0.1572
 1497DOPC   C3B17563  16.533   6.446  11.704  0.0250 -0.0361 -0.1077
 1497DOPC   C4B17564  16.765   6.426  12.103 -0.0331  0.2134  0.0395
 1498DOPS   CNO17565  13.827   0.004  10.358  0.4493 -0.0599  0.0160
 1498DOPS   PO417566  13.505   0.249  10.459 -0.2858  0.2084 -0.1019
 1498DOPS   GL117567  13.505   0.336  10.846 -0.3962  0.4010 -0.4185
 1498DOPS   GL217568  13.373   0.609  10.836 -0.1870 -0.0469  0.0064
 1498DOPS   C1A17569  13.680   0.281  11.217  0.0055 -0.0577 -0.1108
 1498DOPS   D2A17570  13.750   0.193  11.662 -0.2211  0.1767  0.3515
 1498DOPS   C3A17571  13.655   0.602  11.854 -0.0753 -0.1667  0.1267
 1498DOPS   C4A17572  13.946   0.940  11.994 -0.3705  0.2296  0.0057
 1498DOPS   C1B17573  13.409   0.853  11.238 -0.4146  0.1135 -0.2901
 1498DOPS   D2B17574  13.548   1.062  11.637  0.0643  0.0391 -0.1129
 1498DOPS   C3B17575  13.384   1.020  12.125 -0.0398  0.2247 -0.0612
 1498DOPS   C4B17576  13.332   1.084  12.603 -0.2617  0.1123 -0.0170
 1499DOPC   NC317577  14.873   2.079  10.280  0.2626  0.0537  0.0790
 1499DOPC   PO417578  14.705   2.298   9.996  0.3157 -0.2844  0.2573
 1499DOPC   GL117579  14.586   2.482  10.376 -0.1349 -0.0556  0.4183
 1499DOPC   GL217580  14.306   2.431  10.363  0.1925  0.0856 -0.0379
 1499DOPC   C1A17581  14.915   2.507  10.691  0.0536 -0.1813 -0.0340
 1499DOPC   D2A17582  15.177   2.423  11.105  0.2326  0.0728 -0.2019
 1499DOPC   C3A17583  15.171   2.633  11.532  0.1074  0.1500 -0.2721
 1499DOPC   C4A17584  15.381   2.430  11.908  0.0415  0.0614  0.0398
 1499DOPC   C1B17585  14.078   2.453  10.758  0.0026 -0.1001 -0.1069
 1499DOPC   D2B17586  14.103   2.646  11.168  0.0303 -0.0503  0.1750
 1499DOPC   C3B17587  14.455   2.926  11.230  0.1110 -0.5313 -0.1061
 1499DOPC   C4B17588  14.869   2.877  11.061 -0.1039 -0.0086 -0.3182
 1500DOPC   NC317589  15.705   1.533  10.289 -0.1414  0.2908  0.1352
 1500DOPC   PO417590  15.380   1.706  10.221  0.0940 -0.0815  0.1227
 1500DOPC   GL117591  15.306   1.681  10.628  0.0405 -0.0438  0.0799
 1500DOPC   GL217592  15.146   1.427  10.683 -0.1349 -0.2286 -0.2415
 1500DOPC   C1A17593  14.989   1.884  10.893 -0.1984 -0.2082  0.2015
 1500DOPC   D2A17594  14.697   1.782  11.288 -0.1565 -0.2258 -0.0101
 1500DOPC   C3A17595  14.715   1.582  11.688 -0.1327  0.0001 -0.3160
 1500DOPC   C4A17596  14.755   1.513  12.114 -0.0979  0.0199 -0.1767
 1500DOPC   C1B17597  15.246   1.227  11.096 -0.0544  0.0437 -0.1782
 1500DOPC   D2B17598  15.345   0.935  11.437  0.1770 -0.0030  0.1077
 1500DOPC   C3B17599  15.071   0.655  11.647 -0.1187 -0.1700 -0.4499
 1500DOPC   C4B17600  14.704   0.673  11.860  0.0937  0.1206  0.0498
 1501DOPE   NH317601  20.882   3.160  10.366 -0.1913 -0.3753 -0.0273
 1501DOPE   PO417602  21.162   3.332  10.461  0.2125  0.1528  0.0658
 1501DOPE   GL117603  21.050   3.387  10.874  0.2542 -0.0533  0.1029
 1501DOPE   GL217604  21.134   3.659  10.864 -0.2496  0.1085 -0.1648
 1501DOPE   C1A17605  20.963   3.505  11.331 -0.2479  0.0926 -0.3670
 1501DOPE   D2A17606  20.797   3.650  11.787 -0.3254  0.0149  0.1452
 1501DOPE   C3A17607  20.756   4.071  11.917  0.2181 -0.0655  0.0939
 1501DOPE   C4A17608  20.641   4.509  11.926 -0.0619 -0.3072  0.3689
 1501DOPE   C1B17609  21.484   3.599  11.155  0.1270 -0.0820  0.0554
 1501DOPE   D2B17610  21.619   3.454  11.597 -0.2679 -0.2491  0.1490
 1501DOPE   C3B17611  21.963   3.563  11.896 -0.0558 -0.2781  0.0844
 1501DOPE   C4B17612  22.136   3.954  12.155  0.1822  0.0399  0.2081
 1502DOPC   NC317613  12.315   4.236  10.126  0.0438  0.0122  0.0893
 1502DOPC   PO417614  12.606   4.512  10.167 -0.2840  0.0437  0.1131
 1502DOPC   GL117615  12.591   4.400  10.563  0.1147  0.3078 -0.0809
 1502DOPC   GL217616  12.462   4.596  10.667 -0.0236 -0.3637 -0.2446
 1502DOPC   C1A17617  12.264   4.012  10.665  0.4221  0.4050  0.0328
 1502DOPC   D2A17618  11.876   3.744  10.619 -0.0430  0.0285  0.4197
 1502DOPC   C3A17619  11.626   3.358  10.651  0.0439  0.0283  0.0197
 1502DOPC   C4A17620  11.506   2.961  10.539 -0.1222 -0.3823 -0.1786
 1502DOPC   C1B17621  12.380   4.689  11.118 -0.1862 -0.0643  0.0229
 1502DOPC   D2B17622  12.137   4.578  11.492  0.0277 -0.1684  0.1166
 1502DOPC   C3B17623  12.342   4.169  11.584 -0.1240 -0.1560  0.2063
 1502DOPC   C4B17624  12.504   3.693  11.538 -0.2696 -0.0885 -0.3581
 1503DOPC   NC317625  24.675  12.795  10.444  0.0253 -0.4521 -0.1357
 1503DOPC   PO417626  24.536  12.985  10.154 -0.1443  0.0981  0.0459
 1503DOPC   GL117627  24.392  13.136  10.412 -0.2996 -0.0699  0.2415
 1503DOPC   GL217628  24.314  13.310  10.403 -0.0247 -0.0198 -0.2720
 1503DOPC   C1A17629  24.245  13.155  10.875  0.2375 -0.1593 -0.2309
 1503DOPC   D2A17630  24.142  13.404  11.206  0.0181  0.1396  0.0665
 1503DOPC   C3A17631  24.136  13.030  11.513 -0.0898  0.2529  0.0484
 1503DOPC   C4A17632  24.345  12.792  11.815 -0.0326  0.0984  0.0065
 1503DOPC   C1B17633  24.176  13.621  10.756 -0.2892 -0.0922  0.0396
 1503DOPC   D2B17634  24.067  13.942  11.090 -0.0169 -0.0786 -0.0866
 1503DOPC   C3B17635  24.395  13.993  11.364  0.3227 -0.2770  0.0237
 1503DOPC   C4B17636  24.861  13.882  11.338  0.0067  0.3287 -0.0741
 1504POSM   NC317637  18.903   9.891  10.255  0.0740 -0.0071  0.1639
 1504POSM   PO417638  19.299   9.900  10.149  0.0113 -0.1255 -0.0211
 1504POSM   AM117639  19.240  10.090  10.454 -0.3465  0.2645 -0.0560
 1504POSM   AM217640  19.044  10.199  10.669 -0.1029  0.3421 -0.0653
 1504POSM   T1A17641  19.452  10.193  10.889  0.0224 -0.3660 -0.2254
 1504POSM   C2A17642  19.552  10.150  11.334  0.1070  0.1929  0.0351
 1504POSM   C3A17643  19.390  10.510  11.596  0.0665 -0.3223 -0.2884
 1504POSM   C1B17644  18.750  10.082  10.882  0.2113  0.0070 -0.2834
 1504POSM   D2B17645  18.558   9.825  11.204 -0.4615  0.2350  0.4498
 1504POSM   C3B17646  18.546   9.894  11.606  0.0150 -0.1978  0.1176
 1504POSM   C4B17647  18.411  10.172  11.921 -0.0458 -0.0777 -0.0778
 1505DOPE   NH317648  16.477   4.166  10.577  0.0386 -0.0559  0.0268
 1505DOPE   PO417649  16.207   4.301  10.718 -0.1431 -0.0312  0.1293
 1505DOPE   GL117650  16.133   4.152  10.955  0.0129  0.1669 -0.0802
 1505DOPE   GL217651  16.151   3.935  11.160 -0.0135 -0.0808 -0.0693
 1505DOPE   C1A17652  15.876   4.322  11.305 -0.2611  0.1079  0.0398
 1505DOPE   D2A17653  15.727   4.607  11.612 -0.4229 -0.0017 -0.0623
 1505DOPE   C3A17654  15.489   4.633  12.054 -0.2202 -0.2876  0.0932
 1505DOPE   C4A17655  15.237   4.502  12.385 -0.0122  0.3383  0.2684
 1505DOPE   C1B17656  16.161   4.004  11.588 -0.1277  0.4121  0.0713
 1505DOPE   D2B17657  15.952   4.297  11.921 -0.0226 -0.0597 -0.3763
 1505DOPE   C3B17658  15.881   4.263  12.367 -0.5024  0.3665 -0.3176
 1505DOPE   C4B17659  15.708   4.348  12.802  0.0293 -0.1204  0.3651
 1506DOPS   CNO17660  16.084   4.741  10.468 -0.3740  0.0926  0.2098
 1506DOPS   PO417661  16.440   4.710  10.584 -0.0635  0.0555  0.2145
 1506DOPS   GL117662  16.545   4.455  10.999 -0.0335 -0.0768  0.2562
 1506DOPS   GL217663  16.318   4.651  11.119  0.2160 -0.4880  0.0448
 1506DOPS   C1A17664  16.578   4.333  11.445 -0.1904 -0.0252 -0.2878
 1506DOPS   D2A17665  16.469   4.371  11.870 -0.1248  0.0331 -0.3447
 1506DOPS   C3A17666  16.344   4.026  12.110  0.0089  0.0397 -0.1563
 1506DOPS   C4A17667  16.299   3.794  12.540  0.2053 -0.0003  0.1508
 1506DOPS   C1B17668  16.203   4.684  11.557  0.0190 -0.0607 -0.0091
 1506DOPS   D2B17669  16.348   4.927  11.941  0.4024  0.1927 -0.1494
 1506DOPS   C3B17670  16.490   4.727  12.345  0.1789  0.2032 -0.1531
 1506DOPS   C4B17671  16.615   4.632  12.781 -0.1489  0.0469 -0.2779
 1507DOPC   NC317672  14.019  12.142  11.635  0.1395  0.0340  0.1261
 1507DOPC   PO417673  13.710  12.274  11.443  0.1979  0.1306  0.0436
 1507DOPC   GL117674  13.598  12.446  11.774 -0.1866 -0.2707 -0.2121
 1507DOPC   GL217675  13.665  12.763  11.623  0.1923  0.0596 -0.0457
 1507DOPC   C1A17676  13.581  12.376  12.222 -0.0442 -0.1682  0.0625
 1507DOPC   D2A17677  13.403  12.324  12.663 -0.1899 -0.1092 -0.0379
 1507DOPC   C3A17678  13.564  12.693  12.821 -0.0971  0.1780 -0.0274
 1507DOPC   C4A17679  13.573  13.131  12.820  0.3408 -0.0416 -0.2424
 1507DOPC   C1B17680  13.773  13.187  11.778  0.0848 -0.0722 -0.1365
 1507DOPC   D2B17681  13.649  13.551  12.061 -0.4345 -0.0187 -0.1626
 1507DOPC   C3B17682  13.592  13.589  12.606 -0.2002 -0.0196  0.1694
 1507DOPC   C4B17683  13.345  13.737  12.949 -0.0510 -0.1198  0.1279
 1508DOPE   NH317684  12.680   3.291   9.694 -0.3169  0.0184 -0.1983
 1508DOPE   PO417685  12.849   3.460   9.912 -0.1693  0.0123 -0.1418
 1508DOPE   GL117686  12.874   3.230  10.327 -0.2246 -0.1707  0.3786
 1508DOPE   GL217687  12.625   3.264  10.335  0.1825  0.1489  0.1523
 1508DOPE   C1A17688  13.000   2.735  10.346  0.0633  0.2436 -0.1453
 1508DOPE   D2A17689  13.232   2.346  10.442 -0.0791 -0.0568 -0.0223
 1508DOPE   C3A17690  13.532   2.371  10.812 -0.1692  0.0147 -0.0890
 1508DOPE   C4A17691  13.796   2.240  11.138  0.1233 -0.0051 -0.1559
 1508DOPE   C1B17692  12.660   3.251  10.782  0.0338  0.4325 -0.2112
 1508DOPE   D2B17693  12.712   3.308  11.214 -0.2196 -0.1129  0.1266
 1508DOPE   C3B17694  12.997   3.038  11.462  0.2048  0.1580  0.1153
 1508DOPE   C4B17695  13.314   2.849  11.731 -0.1585  0.1673  0.0201
 1509DOPE   NH317696  18.317   4.533  10.625  0.3112 -0.0488 -0.0509
 1509DOPE   PO417697  18.225   4.403  10.860  0.1724 -0.2027 -0.2215
 1509DOPE   GL117698  18.178   4.279  11.219 -0.4699 -0.1971 -0.0198
 1509DOPE   GL217699  18.444   4.128  11.275 -0.1108  0.2288 -0.3521
 1509DOPE   C1A17700  18.002   4.252  11.603 -0.3323  0.2906  0.1061
 1509DOPE   D2A17701  17.626   4.165  11.906 -0.2283  0.1483  0.2938
 1509DOPE   C3A17702  17.654   4.272  12.377 -0.0576 -0.1048  0.0939
 1509DOPE   C4A17703  17.530   4.509  12.755 -0.2047  0.1655  0.0523
 1509DOPE   C1B17704  18.453   4.151  11.783 -0.1632 -0.1454 -0.1985
 1509DOPE   D2B17705  18.579   4.134  12.243  0.1494  0.1186  0.0739
 1509DOPE   C3B17706  18.334   3.887  12.513 -0.2330 -0.0824 -0.4563
 1509DOPE   C4B17707  17.966   3.794  12.596  0.3212  0.1477  0.2637
 1510POSM   NC317708  20.924   9.378  10.144 -0.1882 -0.0408 -0.3349
 1510POSM   PO417709  21.176   9.405  10.457 -0.2626 -0.0113 -0.1426
 1510POSM   AM117710  21.362   9.398  10.746 -0.2277 -0.1970  0.0342
 1510POSM   AM217711  21.625   9.339  10.912  0.0988  0.0410 -0.1750
 1510POSM   T1A17712  21.398   9.733  11.113  0.2242 -0.0923  0.0260
 1510POSM   C2A17713  21.811   9.837  11.294 -0.0252 -0.0045 -0.0450
 1510POSM   C3A17714  22.064   9.483  11.513 -0.2218 -0.1149 -0.1782
 1510POSM   C1B17715  21.927   9.396  11.030  0.2172 -0.2523  0.1300
 1510POSM   D2B17716  22.276   9.138  11.197 -0.1797 -0.0544  0.0014
 1510POSM   C3B17717  22.620   9.327  11.401  0.0627  0.0070 -0.3216
 1510POSM   C4B17718  23.047   9.477  11.684  0.1891 -0.0830  0.1389
 1511POSM   NC317719  22.527  11.898  10.192 -0.3253 -0.2208 -0.6184
 1511POSM   PO417720  22.819  12.050  10.386 -0.0119 -0.2052 -0.1893
 1511POSM   AM117721  22.989  12.288  10.575 -0.1189  0.1000  0.0769
 1511POSM   AM217722  22.901  12.523  10.736  0.0132  0.1641 -0.1791
 1511POSM   T1A17723  23.337  12.372  10.898  0.1237  0.1310 -0.2029
 1511POSM   C2A17724  23.442  12.470  11.285  0.0232 -0.2367 -0.0131
 1511POSM   C3A17725  23.629  12.184  11.636  0.3549 -0.0631 -0.1981
 1511POSM   C1B17726  22.966  12.671  11.048  0.2646 -0.1133 -0.3226
 1511POSM   D2B17727  23.058  12.817  11.464 -0.1192  0.1988  0.2440
 1511POSM   C3B17728  22.835  13.061  11.737 -0.3700 -0.0243 -0.1894
 1511POSM   C4B17729  22.559  13.105  12.136  0.0999 -0.0316  0.2057
 1512DOPC   NC317730  14.512   4.109   9.860 -0.2370  0.4662 -0.0911
 1512DOPC   PO417731  14.605   4.290  10.216  0.2511 -0.0708  0.0886
 1512DOPC   GL117732  14.410   4.214  10.573 -0.5400 -0.4320  0.1422
 1512DOPC   GL217733  14.460   3.897  10.579 -0.1237 -0.1847  0.0200
 1512DOPC   C1A17734  14.653   4.182  10.959  0.2122  0.3404  0.0117
 1512DOPC   D2A17735  14.950   4.220  11.295  0.1616  0.1633 -0.2046
 1512DOPC   C3A17736  14.910   4.014  11.754  0.1002 -0.3422 -0.2547
 1512DOPC   C4A17737  15.008   4.080  12.215 -0.3852 -0.2304 -0.0492
 1512DOPC   C1B17738  14.305   3.801  11.033  0.2246 -0.1013  0.1730
 1512DOPC   D2B17739  14.198   3.674  11.493 -0.4368  0.0923  0.0014
 1512DOPC   C3B17740  13.843   3.490  11.686 -0.0841  0.1449  0.2233
 1512DOPC   C4B17741  13.443   3.373  11.943 -0.1437  0.0197  0.1418
 1513DOPC   NC317742  16.970   8.888  10.517 -0.1853  0.1391 -0.1095
 1513DOPC   PO417743  16.815   9.261  10.467  0.2728 -0.0087  0.1451
 1513DOPC   GL117744  16.730   9.082  10.868 -0.0640  0.0026  0.0133
 1513DOPC   GL217745  16.839   9.322  11.001  0.2564 -0.1459  0.3104
 1513DOPC   C1A17746  16.722   8.888  11.288 -0.1956  0.0337  0.1378
 1513DOPC   D2A17747  16.975   8.669  11.579 -0.1210 -0.0866  0.1951
 1513DOPC   C3A17748  17.086   8.289  11.836  0.2068  0.1042  0.0766
 1513DOPC   C4A17749  17.011   8.253  12.259  0.0669  0.1059 -0.1392
 1513DOPC   C1B17750  17.220   9.419  11.282  0.4645 -0.2096  0.1833
 1513DOPC   D2B17751  17.378   9.509  11.691 -0.0864 -0.1346  0.1068
 1513DOPC   C3B17752  17.701   9.569  12.004  0.0726 -0.1868 -0.3900
 1513DOPC   C4B17753  18.006   9.316  12.262  0.2107 -0.5296  0.0248
 1514DOPC   NC317754  18.918   6.867  10.128 -0.0102 -0.0223  0.1036
 1514DOPC   PO417755  18.749   6.750  10.453 -0.0489 -0.3592  0.0029
 1514DOPC   GL117756  18.912   6.668  10.769 -0.1153  0.2302  0.1241
 1514DOPC   GL217757  18.810   6.842  11.009 -0.3340 -0.2107 -0.0440
 1514DOPC   C1A17758  18.963   6.408  11.166  0.1760 -0.0331 -0.0531
 1514DOPC   D2A17759  19.244   5.990  11.282  0.0976 -0.0003  0.1713
 1514DOPC   C3A17760  19.453   5.877  11.622  0.3706 -0.1553 -0.0234
 1514DOPC   C4A17761  19.522   5.965  12.028 -0.1111 -0.1125  0.0047
 1514DOPC   C1B17762  18.587   6.947  11.362  0.2928  0.1655 -0.1782
 1514DOPC   D2B17763  18.695   7.054  11.784  0.1729  0.0678 -0.0878
 1514DOPC   C3B17764  18.926   7.191  12.142 -0.1709 -0.0481 -0.2544
 1514DOPC   C4B17765  19.087   7.184  12.576 -0.1907 -0.1121 -0.0355
 1515POSM   NC317766  15.870   5.428  10.596  0.2253  0.0832 -0.0051
 1515POSM   PO417767  15.540   5.590  10.676  0.4803  0.2245  0.1154
 1515POSM   AM117768  15.446   5.712  10.945  0.1002  0.1203 -0.1845
 1515POSM   AM217769  15.233   5.686  11.109 -0.0837  0.1497 -0.1536
 1515POSM   T1A17770  15.534   5.838  11.416  0.0712  0.0442 -0.0241
 1515POSM   C2A17771  15.412   5.941  11.816  0.2827  0.4000 -0.0134
 1515POSM   C3A17772  15.588   6.216  12.162  0.1076 -0.0619 -0.3062
 1515POSM   C1B17773  15.032   5.479  11.278 -0.1737 -0.2018  0.2922
 1515POSM   D2B17774  14.730   5.170  11.400  0.0618  0.0899  0.0054
 1515POSM   C3B17775  14.736   5.100  11.891 -0.0614 -0.5973 -0.0635
 1515POSM   C4B17776  14.476   4.862  12.180 -0.2528  0.1318 -0.0738
 1516DOPC   NC317777  13.757   9.546  11.141  0.3772 -0.0798  0.2409
 1516DOPC   PO417778  13.407   9.638  11.106  0.2720  0.1573  0.1562
 1516DOPC   GL117779  13.576   9.898  11.413  0.0365  0.0860  0.1659
 1516DOPC   GL217780  13.645   9.668  11.590  0.0072 -0.0634 -0.2149
 1516DOPC   C1A17781  13.767  10.113  11.789  0.2194 -0.0460  0.1893
 1516DOPC   D2A17782  13.888  10.260  12.228 -0.2191  0.2227  0.0318
 1516DOPC   C3A17783  14.026  10.117  12.676  0.3209  0.1717 -0.2613
 1516DOPC   C4A17784  14.151  10.295  13.074 -0.2519 -0.0081 -0.1194
 1516DOPC   C1B17785  13.373   9.703  11.952 -0.0599 -0.1499 -0.3118
 1516DOPC   D2B17786  13.401   9.652  12.392 -0.0594  0.0022 -0.0915
 1516DOPC   C3B17787  13.711   9.662  12.725 -0.0196  0.0632 -0.0346
 1516DOPC   C4B17788  14.185   9.639  12.822  0.0651  0.2349 -0.1867
 1517POSM   NC317789  22.780   6.866  10.006  0.1685 -0.2875  0.1350
 1517POSM   PO417790  22.934   7.215   9.907 -0.0805  0.3556 -0.0719
 1517POSM   AM117791  23.111   7.253  10.169 -0.0373 -0.0438 -0.1622
 1517POSM   AM217792  23.094   7.101  10.377 -0.1531  0.0196  0.1625
 1517POSM   T1A17793  23.422   7.461  10.546  0.1388 -0.1484  0.0124
 1517POSM   C2A17794  23.481   7.461  10.999 -0.0619 -0.0888 -0.1128
 1517POSM   C3A17795  23.429   7.428  11.492 -0.0425  0.0421 -0.0342
 1517POSM   C1B17796  23.295   6.925  10.553 -0.2383  0.0924  0.0758
 1517POSM   D2B17797  23.478   6.805  10.971 -0.0227 -0.0142 -0.0683
 1517POSM   C3B17798  23.574   6.575  11.351  0.2218  0.0466  0.0841
 1517POSM   C4B17799  23.685   6.526  11.784  0.1839 -0.1975 -0.3724
 1518DOPS   CNO17800  22.256   2.910  10.379  0.2512  0.3153  0.0356
 1518DOPS   PO417801  22.118   3.245  10.267  0.1048 -0.2749  0.0064
 1518DOPS   GL117802  22.169   3.435  10.577 -0.2386  0.2963  0.2067
 1518DOPS   GL217803  22.439   3.480  10.706 -0.3202 -0.0804  0.0789
 1518DOPS   C1A17804  21.973   3.588  10.921 -0.1581  0.2768 -0.0654
 1518DOPS   D2A17805  21.913   3.820  11.259  0.0483  0.1559  0.0265
 1518DOPS   C3A17806  21.642   3.931  11.643  0.2274 -0.0144 -0.3692
 1518DOPS   C4A17807  21.263   3.779  11.902  0.3114  0.1087 -0.1201
 1518DOPS   C1B17808  22.436   3.834  11.023 -0.0081 -0.2235  0.0749
 1518DOPS   D2B17809  22.637   3.896  11.452 -0.1177 -0.0365 -0.3335
 1518DOPS   C3B17810  23.043   4.088  11.396 -0.2308 -0.2046  0.2021
 1518DOPS   C4B17811  23.435   4.280  11.504  0.1866 -0.1311 -0.1149
 1519DOPC   NC317812  17.861   4.085  10.679 -0.0699  0.2996  0.0380
 1519DOPC   PO417813  17.492   4.127  10.669  0.0653  0.0550  0.0014
 1519DOPC   GL117814  17.590   3.946  10.989  0.0458  0.2231  0.1620
 1519DOPC   GL217815  17.454   3.648  11.003  0.0953  0.0482 -0.1151
 1519DOPC   C1A17816  17.569   4.079  11.404 -0.0766 -0.1658  0.2000
 1519DOPC   D2A17817  17.532   4.511  11.487 -0.1474 -0.1286  0.4141
 1519DOPC   C3A17818  17.821   4.726  11.729 -0.0989  0.0733 -0.3823
 1519DOPC   C4A17819  18.240   4.719  11.824 -0.2560  0.0087 -0.1729
 1519DOPC   C1B17820  17.376   3.593  11.449 -0.2461  0.4935 -0.0710
 1519DOPC   D2B17821  17.332   3.724  11.876 -0.2159 -0.0915 -0.0437
 1519DOPC   C3B17822  17.202   4.068  12.189  0.1782  0.0054  0.1439
 1519DOPC   C4B17823  17.140   4.251  12.589 -0.0395 -0.1934  0.3525
 1520DOPS   CNO17824  14.070   8.740  10.820 -0.0141  0.3109 -0.1604
 1520DOPS   PO417825  14.004   8.352  10.706 -0.1113 -0.2050 -0.0185
 1520DOPS   GL117826  13.998   8.261  11.133  0.1966  0.2978 -0.1253
 1520DOPS   GL217827  14.228   8.039  11.130  0.1593  0.0083 -0.0864
 1520DOPS   C1A17828  14.068   8.193  11.576 -0.0677  0.0413  0.1666
 1520DOPS   D2A17829  14.198   8.284  12.043  0.0847  0.1539  0.1636
 1520DOPS   C3A17830  14.077   7.981  12.358  0.0677  0.1313 -0.3328
 1520DOPS   C4A17831  14.189   7.958  12.822  0.0864  0.3116  0.3876
 1520DOPS   C1B17832  14.631   8.022  11.321 -0.2160 -0.0056 -0.0923
 1520DOPS   D2B17833  14.982   7.938  11.614  0.0378  0.3635  0.0361
 1520DOPS   C3B17834  15.078   8.108  12.016  0.3429  0.1717 -0.0927
 1520DOPS   C4B17835  15.085   8.492  12.263 -0.1790  0.0583  0.0127
 1521DOPE   NH317836  18.519   7.172  10.467 -0.0013 -0.2065  0.0372
 1521DOPE   PO417837  18.478   7.504  10.504  0.1059  0.3130  0.1664
 1521DOPE   GL117838  18.838   7.486  10.739  0.0173 -0.1314 -0.1554
 1521DOPE   GL217839  18.913   7.748  10.859  0.4633  0.0270  0.1054
 1521DOPE   C1A17840  18.778   7.348  11.133 -0.3241  0.2303 -0.0667
 1521DOPE   D2A17841  18.913   7.513  11.540 -0.0445  0.3649  0.0766
 1521DOPE   C3A17842  19.269   7.750  11.546 -0.0187  0.1272  0.0290
 1521DOPE   C4A17843  19.324   8.126  11.864  0.1543  0.0054 -0.0920
 1521DOPE   C1B17844  19.282   7.528  11.028  0.0007 -0.0472 -0.0724
 1521DOPE   D2B17845  19.636   7.357  11.272  0.4184  0.4199 -0.3169
 1521DOPE   C3B17846  19.805   7.728  11.441  0.1316  0.1501  0.0598
 1521DOPE   C4B17847  19.626   8.165  11.456  0.1324 -0.0086 -0.0378
 1522DOPE   NH317848  23.335   1.231  10.421 -0.0245 -0.3901  0.2627
 1522DOPE   PO417849  23.075   1.132  10.469 -0.1245 -0.3325 -0.0051
 1522DOPE   GL117850  23.216   0.970  10.847 -0.0472  0.1459 -0.1037
 1522DOPE   GL217851  23.341   1.202  11.025 -0.3038  0.2785  0.1728
 1522DOPE   C1A17852  23.030   0.965  11.307 -0.1178  0.1307 -0.1734
 1522DOPE   D2A17853  22.902   0.951  11.763 -0.0917  0.2114 -0.3345
 1522DOPE   C3A17854  23.033   1.270  12.005 -0.0844  0.2639  0.2486
 1522DOPE   C4A17855  23.034   1.707  11.961  0.0486 -0.3831 -0.0534
 1522DOPE   C1B17856  23.597   1.179  11.421 -0.1790 -0.2099 -0.0156
 1522DOPE   D2B17857  23.785   1.140  11.838  0.0700 -0.0115  0.1627
 1522DOPE   C3B17858  23.415   0.986  12.140  0.2940 -0.0321 -0.0891
 1522DOPE   C4B17859  23.171   0.920  12.475  0.1818 -0.1939 -0.2887
 1523DOPE   NH317860  19.629   3.629  10.412 -0.1486 -0.1404  0.0082
 1523DOPE   PO417861  19.653   3.850  10.681  0.1247 -0.0722  0.1414
 1523DOPE   GL117862  19.796   3.806  10.991 -0.0380  0.0180 -0.1712
 1523DOPE   GL217863  19.781   3.523  11.051 -0.2367  0.1598 -0.2528
 1523DOPE   C1A17864  19.699   4.048  11.413  0.0805 -0.2831  0.0694
 1523DOPE   D2A17865  19.723   4.314  11.792 -0.0390 -0.1281 -0.0985
 1523DOPE   C3A17866  19.292   4.539  11.882  0.1634  0.0538 -0.1651
 1523DOPE   C4A17867  19.101   4.765  12.187  0.3014 -0.0583  0.5017
 1523DOPE   C1B17868  19.665   3.552  11.489  0.4636  0.0285 -0.0158
 1523DOPE   D2B17869  19.740   3.630  11.938 -0.1335 -0.0616 -0.0683
 1523DOPE   C3B17870  19.737   3.998  12.209 -0.0007  0.0920 -0.0095
 1523DOPE   C4B17871  19.565   4.418  12.344  0.0353 -0.2914  0.2907
 1524DOPC   NC317872  15.826  31.590  10.485  0.3362 -0.4101 -0.0048
 1524DOPC   PO417873  15.542  31.380  10.350  0.0843 -0.1731 -0.0100
 1524DOPC   GL117874  15.408  31.435  10.783  0.0207  0.1588 -0.2255
 1524DOPC   GL217875  15.656  31.258  10.822  0.0798  0.1614  0.0088
 1524DOPC   C1A17876  15.250  31.542  11.217  0.0696 -0.0823  0.1703
 1524DOPC   D2A17877  15.022  31.264  11.595 -0.0599  0.2540  0.1904
 1524DOPC   C3A17878  15.046  31.179  12.057 -0.3206 -0.0397  0.0095
 1524DOPC   C4A17879  15.303  31.332  12.377 -0.1550  0.1525 -0.3174
 1524DOPC   C1B17880  15.651  31.278  11.257  0.2085  0.0930 -0.0152
 1524DOPC   D2B17881  15.485  31.299  11.719 -0.2019 -0.1252  0.1459
 1524DOPC   C3B17882  15.863  31.256  12.016 -0.0240  0.0375 -0.1786
 1524DOPC   C4B17883  16.307  31.263  12.241 -0.2183 -0.2371  0.0185
 1525DOPS   CNO17884  23.772   8.583   9.794 -0.1912 -0.4314 -0.0567
 1525DOPS   PO417885  23.395   8.563   9.810 -0.0624  0.0914 -0.0736
 1525DOPS   GL117886  23.507   8.662  10.268 -0.0269 -0.3568  0.2249
 1525DOPS   GL217887  23.477   8.930  10.140  0.0059  0.0512  0.0107
 1525DOPS   C1A17888  23.728   8.465  10.615  0.0714 -0.0267  0.1078
 1525DOPS   D2A17889  24.085   8.269  10.764 -0.3164  0.0678  0.2092
 1525DOPS   C3A17890  23.961   8.219  11.211 -0.0250  0.1640 -0.0079
 1525DOPS   C4A17891  24.069   7.949  11.574 -0.1797 -0.2579 -0.0544
 1525DOPS   C1B17892  23.663   8.980  10.546  0.0027  0.0673 -0.1853
 1525DOPS   D2B17893  23.482   9.141  10.936 -0.1569 -0.2290  0.4040
 1525DOPS   C3B17894  23.355   8.980  11.350 -0.1284  0.0644  0.0205
 1525DOPS   C4B17895  23.120   8.931  11.709  0.0953  0.1969  0.3909
 1526DOPS   CNO17896  19.606   9.286  10.522 -0.1083  0.0762 -0.0749
 1526DOPS   PO417897  19.588   8.922  10.541  0.2029  0.2413 -0.2146
 1526DOPS   GL117898  19.361   8.942  10.848 -0.0266 -0.0315  0.2294
 1526DOPS   GL217899  19.324   9.204  10.919 -0.1730 -0.0761 -0.2063
 1526DOPS   C1A17900  19.564   8.891  11.243 -0.2663  0.0535  0.0818
 1526DOPS   D2A17901  19.428   8.989  11.650 -0.2753  0.2409 -0.1636
 1526DOPS   C3A17902  19.468   9.055  12.104 -0.1783  0.0650 -0.2063
 1526DOPS   C4A17903  19.340   8.975  12.523  0.2203 -0.1656 -0.1720
 1526DOPS   C1B17904  19.349   9.330  11.322 -0.0130  0.4532  0.1401
 1526DOPS   D2B17905  19.053   9.413  11.677 -0.0115  0.1600 -0.0110
 1526DOPS   C3B17906  18.994   9.002  11.811 -0.0422 -0.1749  0.1847
 1526DOPS   C4B17907  18.944   8.889  12.244  0.3189 -0.2453  0.2859
 1527DOPC   NC317908  21.140   9.882  10.127  0.0829 -0.1737  0.0910
 1527DOPC   PO417909  21.308  10.229  10.155 -0.0584  0.0109 -0.0740
 1527DOPC   GL117910  21.355  10.134  10.514 -0.0763 -0.0476 -0.1015
 1527DOPC   GL217911  21.208   9.873  10.612 -0.1738  0.1810 -0.2584
 1527DOPC   C1A17912  21.330  10.226  10.951 -0.2755 -0.0252 -0.2724
 1527DOPC   D2A17913  21.465  10.252  11.406 -0.0333  0.3269 -0.1794
 1527DOPC   C3A17914  21.295  10.308  11.824  0.2433 -0.2283  0.1607
 1527DOPC   C4A17915  21.186  10.586  12.197 -0.3188  0.2037  0.0033
 1527DOPC   C1B17916  20.914  10.006  10.945  0.4634 -0.1801  0.0499
 1527DOPC   D2B17917  20.603   9.752  11.168  0.0293 -0.1375 -0.3297
 1527DOPC   C3B17918  20.520  10.030  11.531 -0.1231  0.1790 -0.2306
 1527DOPC   C4B17919  20.274   9.990  11.927 -0.0743 -0.0925  0.0246
 1528DOPS   CNO17920  12.209   1.441   9.670  0.1213  0.2747 -0.1902
 1528DOPS   PO417921  12.396   1.671   9.843 -0.2043  0.2137 -0.1688
 1528DOPS   GL117922  12.601   1.904  10.155  0.0588  0.0090  0.2276
 1528DOPS   GL217923  12.320   1.913  10.293  0.0066  0.1891  0.3393
 1528DOPS   C1A17924  12.958   1.893  10.462 -0.1158 -0.2434  0.1461
 1528DOPS   D2A17925  13.298   1.910  10.759 -0.0185  0.0619 -0.0271
 1528DOPS   C3A17926  13.224   1.791  11.233  0.1300  0.0781 -0.3175
 1528DOPS   C4A17927  12.942   2.064  11.442 -0.2313  0.2772 -0.1214
 1528DOPS   C1B17928  12.506   1.700  10.677  0.0247 -0.2514 -0.1334
 1528DOPS   D2B17929  12.797   1.415  10.886  0.2317 -0.0974 -0.0021
 1528DOPS   C3B17930  12.695   1.590  11.344  0.0349  0.0127 -0.1132
 1528DOPS   C4B17931  12.485   1.906  11.374 -0.1533  0.1413 -0.0530
 1529DOPS   CNO17932  17.707   6.601  10.703  0.0678 -0.1360 -0.2889
 1529DOPS   PO417933  17.586   6.944  10.825 -0.0842 -0.0314 -0.0737
 1529DOPS   GL117934  18.012   6.995  10.972 -0.1567 -0.1948 -0.2646
 1529DOPS   GL217935  18.298   7.150  10.984 -0.2385 -0.2913 -0.2393
 1529DOPS   C1A17936  18.084   6.853  11.365 -0.2321 -0.0846 -0.1086
 1529DOPS   D2A17937  18.235   6.868  11.750 -0.1726 -0.3017  0.0849
 1529DOPS   C3A17938  17.964   6.823  12.109  0.3386  0.1091 -0.2736
 1529DOPS   C4A17939  17.524   6.979  12.305  0.2137  0.2524 -0.0127
 1529DOPS   C1B17940  18.189   7.329  11.375 -0.1642 -0.2875  0.2373
 1529DOPS   D2B17941  18.004   7.315  11.824  0.0642  0.2519 -0.3311
 1529DOPS   C3B17942  17.938   7.384  12.291  0.0017  0.1403  0.2660
 1529DOPS   C4B17943  18.058   7.502  12.734 -0.2520  0.1732 -0.1479
 1530DOPC   NC317944  15.266   8.895  10.638 -0.3443  0.0858 -0.0996
 1530DOPC   PO417945  15.177   9.242  10.783  0.1243  0.0499  0.3617
 1530DOPC   GL117946  15.313   9.374  11.174  0.1845  0.2125  0.2124
 1530DOPC   GL217947  15.031   9.165  11.330  0.3905 -0.1234  0.1092
 1530DOPC   C1A17948  15.626   9.238  11.495  0.4360 -0.1184  0.0478
 1530DOPC   D2A17949  15.813   9.067  11.840  0.3202 -0.0404  0.0460
 1530DOPC   C3A17950  16.014   9.381  12.137  0.0882  0.0457  0.1478
 1530DOPC   C4A17951  16.423   9.573  12.282 -0.0770 -0.2549  0.2530
 1530DOPC   C1B17952  15.204   9.326  11.690 -0.1786  0.2306  0.1506
 1530DOPC   D2B17953  15.154   9.359  12.101 -0.0149 -0.2546  0.2582
 1530DOPC   C3B17954  14.878   9.583  12.372  0.2490  0.1292  0.0362
 1530DOPC   C4B17955  14.610   9.320  12.654 -0.1374  0.0248  0.0792
 1531DOPE   NH317956  17.809   1.438  10.471  0.0497 -0.0887  0.0381
 1531DOPE   PO417957  18.108   1.478  10.586 -0.0976 -0.1543 -0.0132
 1531DOPE   GL117958  18.007   1.460  10.968 -0.4138  0.0965  0.3492
 1531DOPE   GL217959  18.223   1.574  11.078 -0.2984 -0.0262  0.3160
 1531DOPE   C1A17960  17.837   1.219  11.370 -0.0820 -0.0988  0.0071
 1531DOPE   D2A17961  17.845   1.012  11.800  0.0495 -0.0091  0.1540
 1531DOPE   C3A17962  17.420   1.152  11.981 -0.3854 -0.0631  0.3814
 1531DOPE   C4A17963  17.038   1.323  12.143 -0.0437 -0.2207 -0.3948
 1531DOPE   C1B17964  18.333   1.256  11.415  0.0244  0.0034  0.0048
 1531DOPE   D2B17965  18.687   0.963  11.529 -0.1013  0.2407  0.0587
 1531DOPE   C3B17966  18.878   1.046  11.919 -0.0239  0.0714 -0.0817
 1531DOPE   C4B17967  19.199   0.978  12.240 -0.1053  0.0964 -0.1098
 1532DOPE   NH317968  11.320  10.385  11.357 -0.3348 -0.1879  0.1834
 1532DOPE   PO417969  11.346  10.740  11.351 -0.0632  0.1105 -0.3428
 1532DOPE   GL117970  11.257  10.745  11.736 -0.1418  0.2526  0.0699
 1532DOPE   GL217971  11.421  10.508  11.833  0.3535  0.1374 -0.0548
 1532DOPE   C1A17972  10.921  10.589  12.024 -0.1046 -0.1791 -0.0014
 1532DOPE   D2A17973  10.468  10.664  12.244 -0.1108  0.4001  0.0411
 1532DOPE   C3A17974  10.561  10.931  12.640  0.0311  0.3647 -0.0617
 1532DOPE   C4A17975  11.024  10.894  12.705  0.0595 -0.0809 -0.2315
 1532DOPE   C1B17976  11.632  10.866  11.982 -0.0060  0.1861 -0.2547
 1532DOPE   D2B17977  11.618  11.297  12.200 -0.3195  0.1843 -0.0154
 1532DOPE   C3B17978  11.293  11.381  12.535  0.2076  0.1176  0.0237
 1532DOPE   C4B17979  10.854  11.370  12.727 -0.0954  0.2748 -0.2371
 1533POSM   NC317980  20.387   3.712  10.092  0.0233 -0.0649 -0.1080
 1533POSM   PO417981  20.397   3.327  10.213 -0.1756 -0.0497 -0.0037
 1533POSM   AM117982  20.484   3.397  10.522 -0.0121  0.3310  0.5080
 1533POSM   AM217983  20.640   3.561  10.672  0.0874 -0.0538 -0.1127
 1533POSM   T1A17984  20.518   3.236  11.028 -0.1278 -0.1220 -0.1281
 1533POSM   C2A17985  20.438   3.282  11.514  0.1171  0.0981 -0.2720
 1533POSM   C3A17986  20.643   3.235  11.943 -0.0251 -0.0871  0.0111
 1533POSM   C1B17987  20.632   3.726  10.963 -0.1673 -0.1335 -0.2435
 1533POSM   D2B17988  20.641   3.927  11.369 -0.3450 -0.2623  0.0056
 1533POSM   C3B17989  20.819   4.364  11.438  0.1061  0.3214  0.1251
 1533POSM   C4B17990  21.001   4.697  11.178  0.0710  0.1468  0.4193
 1534DOPS   CNO17991  20.601   9.355  10.540  0.0995  0.0366  0.1284
 1534DOPS   PO417992  20.417   9.420  10.875 -0.1018  0.2944  0.4612
 1534DOPS   GL117993  20.581   9.146  11.210 -0.1970 -0.1666 -0.1993
 1534DOPS   GL217994  20.401   9.319  11.366  0.1235 -0.1264  0.1705
 1534DOPS   C1A17995  20.740   9.123  11.659  0.1608 -0.2473  0.2853
 1534DOPS   D2A17996  20.779   9.278  12.067 -0.1852  0.1866 -0.0735
 1534DOPS   C3A17997  21.120   9.578  12.242 -0.0463 -0.1177 -0.0892
 1534DOPS   C4A17998  21.520   9.459  12.408 -0.0098  0.2368 -0.1900
 1534DOPS   C1B17999  20.695   9.607  11.672 -0.1056 -0.0020  0.0378
 1534DOPS   D2B18000  21.044   9.866  11.764 -0.1082 -0.1227 -0.2111
 1534DOPS   C3B18001  21.529   9.790  11.735  0.0303 -0.0618 -0.2128
 1534DOPS   C4B18002  21.964   9.906  11.734  0.4679  0.3043  0.2727
 1535DOPC   NC318003  19.142   1.728  11.111 -0.5602 -0.0089  0.1707
 1535DOPC   PO418004  18.937   1.759  10.825 -0.1474  0.0694 -0.1167
 1535DOPC   GL118005  18.659   1.758  11.105 -0.0269  0.0219 -0.1029
 1535DOPC   GL218006  18.729   2.039  11.260 -0.0139  0.1731  0.0879
 1535DOPC   C1A18007  18.707   1.613  11.545  0.2541 -0.0888 -0.2745
 1535DOPC   D2A18008  18.568   1.372  11.905 -0.0713  0.2573 -0.0402
 1535DOPC   C3A18009  18.216   1.258  12.198  0.2539 -0.2262  0.3920
 1535DOPC   C4A18010  17.832   1.098  12.494 -0.0320  0.0831 -0.1914
 1535DOPC   C1B18011  18.804   2.362  11.524 -0.1030  0.0586 -0.0939
 1535DOPC   D2B18012  18.954   2.348  11.961  0.2753  0.3174 -0.1812
 1535DOPC   C3B18013  18.720   2.234  12.349  0.0612  0.2046  0.0523
 1535DOPC   C4B18014  18.422   2.075  12.627  0.0220  0.0380 -0.0101
 1536DOPE   NH318015  12.667   6.086  10.789  0.1655  0.0743 -0.0130
 1536DOPE   PO418016  12.748   5.753  10.855  0.2035  0.1347  0.4364
 1536DOPE   GL118017  12.617   5.725  11.270 -0.2832 -0.0764 -0.0968
 1536DOPE   GL218018  12.862   5.857  11.374  0.1777  0.1127 -0.0223
 1536DOPE   C1A18019  12.454   5.598  11.682  0.0823 -0.0983  0.0910
 1536DOPE   D2A18020  12.598   5.368  12.046 -0.0826  0.2143 -0.1228
 1536DOPE   C3A18021  12.684   5.847  12.240  0.2838  0.0990 -0.1251
 1536DOPE   C4A18022  12.544   6.258  12.403 -0.0020  0.0071 -0.0485
 1536DOPE   C1B18023  13.090   6.143  11.669  0.0512 -0.1315  0.2776
 1536DOPE   D2B18024  13.043   6.385  12.062  0.3170 -0.0926 -0.2923
 1536DOPE   C3B18025  13.364   6.384  12.417 -0.0403  0.1880  0.2866
 1536DOPE   C4B18026  13.449   6.719  12.762 -0.0158  0.1481 -0.0734
 1537DOPS   CNO18027  16.089   2.966   9.995 -0.3358  0.2033 -0.2009
 1537DOPS   PO418028  15.864   3.137  10.238 -0.0107 -0.3412 -0.0288
 1537DOPS   GL118029  15.808   3.030  10.614  0.1597  0.0590 -0.2032
 1537DOPS   GL218030  15.629   3.239  10.785 -0.0776 -0.0537  0.0075
 1537DOPS   C1A18031  15.897   2.665  10.903 -0.2196 -0.0264  0.1152
 1537DOPS   D2A18032  16.088   2.659  11.309 -0.1360  0.0042  0.0976
 1537DOPS   C3A18033  16.377   2.678  11.650  0.2697  0.3592 -0.1775
 1537DOPS   C4A18034  16.667   2.632  12.004 -0.1197  0.2707  0.1228
 1537DOPS   C1B18035  15.631   3.247  11.247  0.2232  0.0295 -0.1297
 1537DOPS   D2B18036  15.939   3.510  11.472  0.2457  0.0595  0.0825
 1537DOPS   C3B18037  15.895   3.703  11.892 -0.0349  0.1874 -0.0530
 1537DOPS   C4B18038  15.896   3.636  12.335  0.1493 -0.1258 -0.0363
 1538DOPS   CNO18039  22.788  10.607  10.427 -0.1335  0.2195 -0.2650
 1538DOPS   PO418040  22.551  10.850  10.264 -0.0528 -0.1037  0.1128
 1538DOPS   GL118041  22.513  11.088  10.587  0.1771  0.0120 -0.1769
 1538DOPS   GL218042  22.308  11.147  10.819  0.0376  0.1470 -0.2916
 1538DOPS   C1A18043  22.772  11.015  10.958 -0.1431 -0.0071 -0.1013
 1538DOPS   D2A18044  22.875  10.839  11.433 -0.2717 -0.2677  0.2561
 1538DOPS   C3A18045  22.704  11.017  11.837  0.2751 -0.4166  0.0943
 1538DOPS   C4A18046  22.604  11.382  12.196 -0.1429 -0.1535 -0.3600
 1538DOPS   C1B18047  22.332  10.750  11.139  0.2111  0.1564  0.1944
 1538DOPS   D2B18048  22.218  10.720  11.609  0.0714  0.1601  0.2447
 1538DOPS   C3B18049  22.360  10.435  11.955  0.0341  0.3126  0.0617
 1538DOPS   C4B18050  22.411  10.081  12.269 -0.1218  0.0008 -0.1692
 1539DOPE   NH318051  11.702   9.495  11.036  0.1093  0.2576 -0.0498
 1539DOPE   PO418052  11.520   9.377  11.265  0.0310  0.2197 -0.0144
 1539DOPE   GL118053  11.519   9.007  11.514 -0.1608 -0.2137  0.1679
 1539DOPE   GL218054  11.256   9.104  11.638 -0.1169  0.2323 -0.3038
 1539DOPE   C1A18055  11.447   8.784  11.948  0.2892  0.1758  0.4543
 1539DOPE   D2A18056  11.581   8.999  12.345  0.0547  0.1828  0.1665
 1539DOPE   C3A18057  11.784   9.279  12.645 -0.2264  0.2666 -0.0730
 1539DOPE   C4A18058  11.788   9.475  13.027  0.1337 -0.0645 -0.0527
 1539DOPE   C1B18059  11.048   9.174  12.036 -0.0403  0.0330 -0.3217
 1539DOPE   D2B18060  11.151   9.187  12.479 -0.2125  0.2549  0.0489
 1539DOPE   C3B18061  11.242   8.800  12.749 -0.1574  0.1477 -0.3208
 1539DOPE   C4B18062  11.675   8.832  12.893 -0.0789 -0.2629  0.0565
 1540DOPE   NH318063  18.341   5.293  10.623  0.2568  0.1891 -0.0458
 1540DOPE   PO418064  18.233   5.016  10.771 -0.3520  0.0242 -0.1385
 1540DOPE   GL118065  18.187   4.988  11.202  0.0692  0.3867 -0.1688
 1540DOPE   GL218066  18.250   4.709  11.285  0.0429 -0.0403 -0.0834
 1540DOPE   C1A18067  18.536   5.072  11.558 -0.1036 -0.0711 -0.0582
 1540DOPE   D2A18068  18.687   4.963  11.983  0.1007 -0.0414 -0.2425
 1540DOPE   C3A18069  18.661   4.854  12.420 -0.0756 -0.2089 -0.2621
 1540DOPE   C4A18070  18.670   4.433  12.598 -0.0262 -0.1042  0.3343
 1540DOPE   C1B18071  18.639   4.534  11.450 -0.2209 -0.0500 -0.0811
 1540DOPE   D2B18072  18.806   4.444  11.852  0.1359 -0.4852 -0.2554
 1540DOPE   C3B18073  19.085   4.191  12.115 -0.2823 -0.1466 -0.0288
 1540DOPE   C4B18074  19.075   4.161  12.587 -0.2052  0.1047  0.0438
 1541POSM   NC318075  21.144   0.145  10.177  0.1348 -0.0797 -0.1373
 1541POSM   PO418076  21.570   0.196  10.237  0.3707 -0.0955 -0.1056
 1541POSM   AM118077  21.461   0.219  10.513  0.0861  0.1211 -0.3474
 1541POSM   AM218078  21.554   0.175  10.816  0.1867  0.1574  0.0190
 1541POSM   T1A18079  21.084   0.176  10.771 -0.3943 -0.1847  0.1511
 1541POSM   C2A18080  20.776   0.117  11.179 -0.1889 -0.4221 -0.2509
 1541POSM   C3A18081  20.684  -0.120  11.555 -0.0919 -0.3019 -0.1507
 1541POSM   C1B18082  21.525   0.008  11.160  0.0776  0.3640 -0.2819
 1541POSM   D2B18083  21.566  -0.261  11.580  0.0089  0.0243  0.0011
 1541POSM   C3B18084  21.157  -0.211  11.792  0.0218 -0.0198  0.4989
 1541POSM   C4B18085  20.819  -0.028  12.027 -0.1940 -0.0699 -0.0146
 1542DOPC   NC318086  19.157   4.693  10.375 -0.1436 -0.1862  0.1565
 1542DOPC   PO418087  18.844   4.484  10.562 -0.0801  0.1483  0.1173
 1542DOPC   GL118088  19.056   4.690  10.859  0.0717 -0.0276 -0.2743
 1542DOPC   GL218089  19.276   4.502  10.871 -0.0394  0.1723  0.2246
 1542DOPC   C1A18090  18.986   4.900  11.295 -0.3034 -0.1583 -0.0665
 1542DOPC   D2A18091  19.121   4.970  11.751  0.1653 -0.1076 -0.0969
 1542DOPC   C3A18092  19.506   5.055  12.052  0.2386  0.1412 -0.2031
 1542DOPC   C4A18093  19.901   5.000  12.250 -0.1822  0.1346 -0.1985
 1542DOPC   C1B18094  19.335   4.495  11.320 -0.3261  0.0882 -0.0211
 1542DOPC   D2B18095  19.628   4.760  11.636  0.1022  0.1083 -0.1512
 1542DOPC   C3B18096  19.945   5.082  11.709  0.0843  0.3882 -0.0702
 1542DOPC   C4B18097  20.375   5.342  11.642  0.2322  0.0265  0.1832
 1543DOPC   NC318098  16.567   5.152  10.938 -0.3200  0.1178 -0.1192
 1543DOPC   PO418099  16.861   5.431  11.062 -0.1773  0.3010 -0.2305
 1543DOPC   GL118100  16.950   5.262  11.384 -0.2052 -0.3361  0.1743
 1543DOPC   GL218101  17.099   4.976  11.337 -0.0295 -0.3110  0.1264
 1543DOPC   C1A18102  16.733   5.318  11.793 -0.2183 -0.1981 -0.0280
 1543DOPC   D2A18103  16.336   5.554  11.908  0.0863  0.1807 -0.1572
 1543DOPC   C3A18104  16.119   5.262  12.216 -0.3536  0.0468 -0.1307
 1543DOPC   C4A18105  16.029   5.139  12.625  0.3748 -0.1226 -0.2932
 1543DOPC   C1B18106  17.242   4.946  11.764  0.0533  0.3982 -0.0908
 1543DOPC   D2B18107  17.445   4.695  12.101  0.2112 -0.2347 -0.1122
 1543DOPC   C3B18108  17.264   4.895  12.537 -0.2377  0.2272 -0.0756
 1543DOPC   C4B18109  16.952   5.210  12.724  0.2645 -0.1055  0.2090
 1544DOPE   NH318110  23.855  14.740   9.993  0.3021  0.0004 -0.1296
 1544DOPE   PO418111  23.795  14.451   9.868  0.1197 -0.0733 -0.0904
 1544DOPE   GL118112  23.820  14.337  10.296  0.5086 -0.1094  0.2760
 1544DOPE   GL218113  23.921  14.589  10.458 -0.1254 -0.0611  0.0935
 1544DOPE   C1A18114  23.810  13.897  10.499 -0.3131  0.3326  0.1114
 1544DOPE   D2A18115  23.669  13.698  10.824  0.4761 -0.2696 -0.2070
 1544DOPE   C3A18116  23.531  13.903  11.269 -0.0071  0.2569 -0.2928
 1544DOPE   C4A18117  23.395  14.257  11.520 -0.1142 -0.0052 -0.0246
 1544DOPE   C1B18118  23.940  14.451  10.931 -0.0986  0.3517 -0.0428
 1544DOPE   D2B18119  23.861  14.364  11.402  0.1129 -0.2821 -0.2810
 1544DOPE   C3B18120  23.650  14.590  11.730 -0.2548 -0.0242  0.1246
 1544DOPE   C4B18121  23.762  14.661  12.175  0.1844 -0.1201  0.2171
 1545POSM   NC318122  22.282  13.149  10.024 -0.2431  0.2273 -0.0200
 1545POSM   PO418123  22.310  12.767  10.051  0.2126 -0.1574  0.0199
 1545POSM   AM118124  22.237  12.787  10.380 -0.1981  0.1868 -0.0073
 1545POSM   AM218125  22.070  12.680  10.526  0.0266 -0.0452 -0.3509
 1545POSM   T1A18126  22.118  13.102  10.761  0.0716  0.1278 -0.0268
 1545POSM   C2A18127  22.059  13.118  11.200 -0.3625  0.0444 -0.0472
 1545POSM   C3A18128  22.155  13.154  11.580  0.2428 -0.4805  0.3499
 1545POSM   C1B18129  22.319  12.617  10.781 -0.2302  0.0248  0.0744
 1545POSM   D2B18130  22.510  12.580  11.170  0.0230 -0.0596  0.0374
 1545POSM   C3B18131  22.509  12.699  11.635  0.0379 -0.0377 -0.1499
 1545POSM   C4B18132  22.542  12.479  12.041  0.0724 -0.1638  0.1680
 1546DOPE   NH318133  18.312   6.517  10.508  0.2119 -0.0902  0.0261
 1546DOPE   PO418134  18.380   6.750  10.726  0.0849 -0.1304 -0.3722
 1546DOPE   GL118135  18.353   6.347  10.938  0.0438  0.1193  0.1217
 1546DOPE   GL218136  18.080   6.417  11.041 -0.0226  0.0890  0.1157
 1546DOPE   C1A18137  18.261   5.926  11.169  0.1507  0.1254 -0.2033
 1546DOPE   D2A18138  17.882   5.837  11.383  0.0874  0.0713  0.0957
 1546DOPE   C3A18139  17.870   5.694  11.838  0.2654  0.1502  0.0239
 1546DOPE   C4A18140  17.570   5.610  12.177  0.0089  0.1401  0.2336
 1546DOPE   C1B18141  18.426   6.429  11.377  0.3593  0.1036 -0.0240
 1546DOPE   D2B18142  18.729   6.540  11.680  0.0767  0.0583 -0.1714
 1546DOPE   C3B18143  18.667   6.683  12.155 -0.4658 -0.2661 -0.3340
 1546DOPE   C4B18144  18.684   6.834  12.574 -0.2248 -0.0163 -0.0057
 1547DOPC   NC318145  21.330   5.783   9.935 -0.0089  0.2025 -0.1225
 1547DOPC   PO418146  21.031   5.728  10.195  0.2841 -0.0636  0.0634
 1547DOPC   GL118147  21.387   5.685  10.439 -0.0846 -0.1818  0.3164
 1547DOPC   GL218148  21.394   5.828  10.652  0.0057 -0.1614  0.4183
 1547DOPC   C1A18149  21.845   5.635  10.530 -0.1882  0.1450 -0.1703
 1547DOPC   D2A18150  22.244   5.422  10.605 -0.1424 -0.1763  0.1873
 1547DOPC   C3A18151  22.392   5.051  10.824  0.0652 -0.0746  0.1952
 1547DOPC   C4A18152  22.577   4.678  10.743  0.3513 -0.0144  0.0010
 1547DOPC   C1B18153  21.516   5.590  11.018 -0.0966  0.1079 -0.0129
 1547DOPC   D2B18154  21.567   5.173  11.173  0.0177 -0.5208 -0.0226
 1547DOPC   C3B18155  21.384   5.018  11.508  0.0905  0.1471  0.1604
 1547DOPC   C4B18156  21.055   4.724  11.688 -0.0135  0.3840  0.2597
 1548DOPS   CNO18157  12.608  34.608  10.671 -0.0258 -0.1655  0.0609
 1548DOPS   PO418158  12.250  34.652  10.669  0.0242  0.1048  0.7202
 1548DOPS   GL118159  12.336  34.803  11.043 -0.3208  0.1250  0.0116
 1548DOPS   GL218160  12.241  34.608  11.224  0.1436  0.0260 -0.0778
 1548DOPS   C1A18161  12.463  35.115  11.376  0.4476  0.1933 -0.2412
 1548DOPS   D2A18162  12.755  35.065  11.784  0.0851 -0.2723 -0.0392
 1548DOPS   C3A18163  12.514  34.990  12.087 -0.0233 -0.0091  0.1443
 1548DOPS   C4A18164  12.167  34.865  12.364  0.2993 -0.2673 -0.2396
 1548DOPS   C1B18165  12.341  34.663  11.706  0.3011  0.2205  0.1044
 1548DOPS   D2B18166  12.011  34.555  12.007  0.1792  0.0050 -0.1476
 1548DOPS   C3B18167  11.542  34.665  12.009  0.0232  0.5109 -0.0535
 1548DOPS   C4B18168  11.238  34.393  12.127  0.0758 -0.3046  0.0873
 1549DOPE   NH318169  14.318  10.926  10.443 -0.0061 -0.0672  0.0746
 1549DOPE   PO418170  14.392  11.266  10.579 -0.0127  0.0836  0.3434
 1549DOPE   GL118171  14.555  11.276  10.965  0.1306  0.0590 -0.1149
 1549DOPE   GL218172  14.348  11.048  11.021  0.0312 -0.1788  0.0118
 1549DOPE   C1A18173  14.823  11.074  11.299 -0.1756  0.3062 -0.2162
 1549DOPE   D2A18174  15.050  10.881  11.652  0.1505 -0.2026  0.0542
 1549DOPE   C3A18175  15.125  11.162  12.045 -0.0182  0.2109  0.2006
 1549DOPE   C4A18176  15.182  11.138  12.471  0.0671  0.2940  0.0119
 1549DOPE   C1B18177  14.371  11.344  11.370  0.1071  0.0208  0.0807
 1549DOPE   D2B18178  14.364  11.505  11.814  0.4515 -0.1201 -0.0027
 1549DOPE   C3B18179  14.515  11.443  12.219  0.2579 -0.0768 -0.3028
 1549DOPE   C4B18180  14.838  11.558  12.509  0.0313  0.4154  0.0679
 1550DOPE   NH318181  18.706   3.116  10.662 -0.3064 -0.1238 -0.2087
 1550DOPE   PO418182  18.459   3.332  10.557 -0.0080  0.1607 -0.1027
 1550DOPE   GL118183  18.508   3.245  11.004 -0.1519 -0.0871  0.2243
 1550DOPE   GL218184  18.435   3.497  11.156  0.1752 -0.0855  0.1733
 1550DOPE   C1A18185  18.440   3.016  11.429 -0.1326  0.1347  0.2110
 1550DOPE   D2A18186  18.552   2.726  11.764 -0.3083 -0.0703  0.0747
 1550DOPE   C3A18187  18.337   2.748  12.179 -0.1252 -0.2677 -0.1748
 1550DOPE   C4A18188  18.188   2.598  12.592  0.1285  0.3833  0.0031
 1550DOPE   C1B18189  18.341   3.682  11.575  0.4228  0.2647  0.1053
 1550DOPE   D2B18190  18.272   3.734  12.018 -0.1702  0.0469 -0.0010
 1550DOPE   C3B18191  18.116   4.139  12.118  0.2253  0.1801 -0.2102
 1550DOPE   C4B18192  18.209   4.547  12.301  0.0133  0.1311  0.0722
 1551DOPS   CNO18193  25.456  13.015  10.193 -0.3020  0.1184  0.0021
 1551DOPS   PO418194  25.787  13.125  10.313 -0.0922 -0.1056 -0.1692
 1551DOPS   GL118195  25.502  13.437  10.430  0.5428  0.5950  0.2036
 1551DOPS   GL218196  25.298  13.446  10.688 -0.4450  0.1730  0.0849
 1551DOPS   C1A18197  25.642  13.776  10.718  0.0208  0.0691 -0.0906
 1551DOPS   D2A18198  25.785  14.111  10.951  0.2317 -0.0497  0.0050
 1551DOPS   C3A18199  25.940  14.165  11.406  0.0738  0.1955 -0.3082
 1551DOPS   C4A18200  25.686  14.247  11.794 -0.1457 -0.0170 -0.1766
 1551DOPS   C1B18201  25.163  13.829  10.824  0.0987  0.2156  0.0905
 1551DOPS   D2B18202  25.366  14.116  11.187  0.1347 -0.2900 -0.0315
 1551DOPS   C3B18203  25.512  14.476  11.454  0.0236 -0.1837 -0.1936
 1551DOPS   C4B18204  25.912  14.631  11.564  0.1474 -0.3345  0.1800
 1552DOPE   NH318205  21.830   2.038  10.318 -0.0469 -0.0035 -0.1980
 1552DOPE   PO418206  21.906   1.877  10.602 -0.1030  0.0103 -0.2850
 1552DOPE   GL118207  21.735   1.755  10.903 -0.1138  0.1804 -0.2251
 1552DOPE   GL218208  21.895   1.845  11.099 -0.0905  0.0488 -0.1956
 1552DOPE   C1A18209  21.465   1.458  11.187 -0.1228  0.1108  0.1481
 1552DOPE   D2A18210  21.161   1.447  11.569  0.2153  0.1333 -0.1239
 1552DOPE   C3A18211  21.413   1.544  11.906  0.0645  0.3966 -0.2590
 1552DOPE   C4A18212  21.840   1.474  12.112 -0.1977 -0.2202 -0.0212
 1552DOPE   C1B18213  22.175   1.885  11.454  0.1763 -0.4072 -0.1372
 1552DOPE   D2B18214  22.520   1.941  11.729  0.3439 -0.1731  0.0837
 1552DOPE   C3B18215  22.403   2.144  12.134  0.0078 -0.0128  0.1699
 1552DOPE   C4B18216  21.980   2.294  12.305 -0.3115  0.1956 -0.1292
 1553DOPS   CNO18217  16.324  33.783  10.096  0.0488  0.1261 -0.3317
 1553DOPS   PO418218  16.563  33.731  10.318  0.0775  0.1808  0.0858
 1553DOPS   GL118219  16.561  33.652  10.707 -0.1645 -0.1341  0.2028
 1553DOPS   GL218220  16.304  33.567  10.906  0.2415  0.0578 -0.0718
 1553DOPS   C1A18221  16.671  33.937  11.034  0.0207  0.0531 -0.1066
 1553DOPS   D2A18222  16.660  34.392  11.234  0.1089 -0.1803  0.0556
 1553DOPS   C3A18223  16.706  34.349  11.690 -0.4271  0.0096 -0.3401
 1553DOPS   C4A18224  16.756  34.048  12.067  0.0076  0.1030 -0.0020
 1553DOPS   C1B18225  16.461  33.585  11.362  0.1419 -0.0721 -0.3627
 1553DOPS   D2B18226  16.395  33.795  11.793 -0.1577  0.0487 -0.0728
 1553DOPS   C3B18227  15.981  33.840  11.925  0.0804 -0.0749 -0.0230
 1553DOPS   C4B18228  15.619  33.974  11.756  0.1134  0.1399  0.2183
 1554DOPS   CNO18229  22.828   0.769  10.819 -0.1703 -0.1071  0.0427
 1554DOPS   PO418230  23.127   0.564  10.659  0.0412 -0.1645  0.3482
 1554DOPS   GL118231  23.205   0.325  11.024 -0.4182  0.0460 -0.1192
 1554DOPS   GL218232  23.106   0.424  11.242  0.1876  0.0606 -0.1027
 1554DOPS   C1A18233  23.563   0.310  11.330  0.0116  0.0998  0.4355
 1554DOPS   D2A18234  23.824   0.414  11.648  0.0080  0.2363 -0.0145
 1554DOPS   C3A18235  23.726   0.595  12.075  0.0433  0.1755  0.3170
 1554DOPS   C4A18236  23.673   0.693  12.553  0.2692  0.0078 -0.1060
 1554DOPS   C1B18237  23.300   0.586  11.659  0.1914 -0.0902  0.1825
 1554DOPS   D2B18238  23.183   0.522  12.063 -0.2040  0.0199  0.0414
 1554DOPS   C3B18239  22.825   0.722  12.233  0.1291  0.3535  0.2265
 1554DOPS   C4B18240  22.377   0.704  12.189 -0.2778 -0.1108 -0.0463
 1555DOPC   NC318241  13.842   1.385  10.510  0.2463 -0.1878 -0.3739
 1555DOPC   PO418242  14.134   1.608  10.345 -0.3225 -0.0775  0.2362
 1555DOPC   GL118243  14.035   1.821  10.736 -0.2838  0.0522  0.3719
 1555DOPC   GL218244  13.799   1.892  10.609  0.1301 -0.1233  0.0854
 1555DOPC   C1A18245  14.184   1.869  11.196  0.1688  0.1107 -0.2809
 1555DOPC   D2A18246  14.077   2.217  11.529 -0.1586  0.0345 -0.2762
 1555DOPC   C3A18247  14.506   2.273  11.750 -0.2177  0.2004  0.0791
 1555DOPC   C4A18248  14.867   2.458  11.928  0.0562 -0.4142  0.1234
 1555DOPC   C1B18249  13.682   1.572  10.958  0.0462  0.3099 -0.0201
 1555DOPC   D2B18250  13.820   1.492  11.359  0.0992 -0.0797  0.1487
 1555DOPC   C3B18251  13.551   1.822  11.597 -0.3870  0.0337 -0.0712
 1555DOPC   C4B18252  13.436   2.259  11.512 -0.0605 -0.0895  0.5108
 1556DOPC   NC318253  24.235   4.427  10.304  0.0207  0.1559 -0.0703
 1556DOPC   PO418254  24.133   4.140  10.603  0.3060 -0.1681 -0.1347
 1556DOPC   GL118255  24.066   4.171  10.937 -0.2665  0.0976 -0.2355
 1556DOPC   GL218256  24.195   4.170  11.173  0.2620  0.3802  0.1559
 1556DOPC   C1A18257  23.839   4.518  11.172  0.1778 -0.1670 -0.6649
 1556DOPC   D2A18258  23.781   4.870  11.491 -0.1996  0.1563 -0.1143
 1556DOPC   C3A18259  23.733   4.713  11.964  0.2933 -0.0687 -0.1698
 1556DOPC   C4A18260  23.417   4.576  12.275 -0.1715  0.3861 -0.1354
 1556DOPC   C1B18261  23.927   4.055  11.526  0.0327  0.0889  0.0006
 1556DOPC   D2B18262  23.845   4.191  11.968 -0.1602 -0.2962 -0.1111
 1556DOPC   C3B18263  23.890   4.491  12.338  0.1058  0.1283  0.1148
 1556DOPC   C4B18264  23.695   4.885  12.491 -0.3193  0.1777  0.1897
 1557DOPE   NH318265  15.938   4.115  10.303 -0.2819  0.3612 -0.4241
 1557DOPE   PO418266  16.151   3.906  10.222 -0.1846  0.0056  0.4490
 1557DOPE   GL118267  16.065   3.876  10.651 -0.3244  0.2630 -0.0976
 1557DOPE   GL218268  15.722   3.993  10.765 -0.3025 -0.1679  0.1901
 1557DOPE   C1A18269  15.940   3.569  10.963 -0.1506 -0.2020  0.0175
 1557DOPE   D2A18270  16.095   3.158  11.120 -0.2089 -0.0893 -0.0461
 1557DOPE   C3A18271  16.060   3.092  11.598  0.1290 -0.0496  0.1698
 1557DOPE   C4A18272  16.109   2.883  11.998  0.1655  0.1436 -0.0773
 1557DOPE   C1B18273  15.622   3.857  11.231  0.0942 -0.0119 -0.1983
 1557DOPE   D2B18274  15.595   4.089  11.632 -0.0347  0.1470  0.0129
 1557DOPE   C3B18275  15.491   3.951  12.056  0.0183  0.1765 -0.3530
 1557DOPE   C4B18276  15.242   3.579  12.211 -0.1930  0.2170  0.1839
 1558DOPC   NC318277  23.489  12.767  10.042  0.1015 -0.0686  0.0550
 1558DOPC   PO418278  23.155  12.713  10.249  0.1960 -0.2542 -0.2961
 1558DOPC   GL118279  23.321  12.632  10.575  0.0521  0.2253  0.5404
 1558DOPC   GL218280  23.672  12.554  10.470 -0.1577 -0.0348  0.0002
 1558DOPC   C1A18281  23.419  12.885  10.983  0.0066  0.3718  0.1331
 1558DOPC   D2A18282  23.610  13.048  11.351 -0.3983  0.2319  0.0431
 1558DOPC   C3A18283  23.379  13.278  11.681  0.3654 -0.1615 -0.1879
 1558DOPC   C4A18284  23.450  13.408  12.150 -0.3620  0.1504  0.1361
 1558DOPC   C1B18285  23.882  12.375  10.857 -0.0529 -0.0061 -0.0268
 1558DOPC   D2B18286  24.016  12.113  11.235  0.0526 -0.2493  0.0154
 1558DOPC   C3B18287  24.404  11.841  11.129 -0.2788  0.5602 -0.0221
 1558DOPC   C4B18288  24.476  11.428  11.021  0.1635  0.1136 -0.0181
 1559POSM   NC318289  17.457   3.631  10.428  0.3799 -0.1737 -0.0342
 1559POSM   PO418290  17.451   3.271  10.249  0.1182 -0.1619 -0.0245
 1559POSM   AM118291  17.596   3.201  10.551  0.2003  0.2836 -0.0035
 1559POSM   AM218292  17.805   3.039  10.623  0.0980  0.1334 -0.1445
 1559POSM   T1A18293  17.512   3.137  11.043 -0.0373 -0.1282 -0.0077
 1559POSM   C2A18294  17.267   3.072  11.438 -0.1724  0.2292  0.0901
 1559POSM   C3A18295  16.967   2.983  11.787  0.0785 -0.0441 -0.1301
 1559POSM   C1B18296  17.642   2.736  10.775 -0.0749 -0.0193 -0.1057
 1559POSM   D2B18297  17.284   2.634  11.023 -0.1245  0.0692  0.0794
 1559POSM   C3B18298  16.975   2.989  11.051  0.0643 -0.0454  0.2797
 1559POSM   C4B18299  16.968   3.445  11.166 -0.1852  0.2214 -0.0139
 1560DOPC   NC318300  14.112  11.539  10.884  0.2407  0.0274 -0.0209
 1560DOPC   PO418301  13.706  11.540  10.936  0.2049 -0.0469 -0.1880
 1560DOPC   GL118302  13.877  11.413  11.340  0.1035  0.0596 -0.2284
 1560DOPC   GL218303  13.905  11.703  11.464 -0.4930 -0.1391 -0.0336
 1560DOPC   C1A18304  13.963  11.245  11.756  0.3814  0.1117  0.0594
 1560DOPC   D2A18305  14.183  11.093  12.106 -0.0315  0.2454 -0.0396
 1560DOPC   C3A18306  13.937  10.868  12.330  0.0641 -0.1845  0.0760
 1560DOPC   C4A18307  13.827  10.588  12.696 -0.0451 -0.0279 -0.1646
 1560DOPC   C1B18308  13.813  11.745  11.892 -0.1938 -0.1863  0.0011
 1560DOPC   D2B18309  13.711  11.869  12.301 -0.0106  0.1946 -0.0634
 1560DOPC   C3B18310  14.111  11.681  12.470  0.1642  0.3567 -0.1262
 1560DOPC   C4B18311  14.357  11.352  12.676 -0.0410 -0.2000  0.1877
 1561DOPC   NC318312  19.574   8.306  10.389  0.3022 -0.3404 -0.0130
 1561DOPC   PO418313  19.607   7.961  10.325 -0.3038  0.1238  0.1162
 1561DOPC   GL118314  19.814   7.947  10.714  0.2225 -0.0935 -0.2134
 1561DOPC   GL218315  19.573   7.957  10.979 -0.0908  0.0512 -0.1463
 1561DOPC   C1A18316  20.005   8.090  11.117  0.0018  0.1451  0.2931
 1561DOPC   D2A18317  20.233   8.386  11.392  0.2784 -0.1093 -0.1855
 1561DOPC   C3A18318  19.885   8.685  11.570 -0.2419 -0.0556 -0.1097
 1561DOPC   C4A18319  19.542   8.534  11.793 -0.1112 -0.0711 -0.2168
 1561DOPC   C1B18320  19.171   8.103  11.147  0.0823 -0.1696  0.1281
 1561DOPC   D2B18321  18.906   8.066  11.468 -0.0664 -0.3471  0.0825
 1561DOPC   C3B18322  18.758   7.982  11.884 -0.0174  0.3959  0.1201
 1561DOPC   C4B18323  18.709   7.664  12.223  0.1050  0.2414 -0.0781
 1562DOPE   NH318324  15.313  12.283  10.495  0.0661 -0.1784 -0.1326
 1562DOPE   PO418325  15.500  12.490  10.332  0.1912 -0.1454 -0.0380
 1562DOPE   GL118326  15.766  12.552  10.657 -0.3908 -0.0384 -0.2675
 1562DOPE   GL218327  15.532  12.501  10.845 -0.2520  0.2542 -0.1308
 1562DOPE   C1A18328  15.966  12.578  11.078 -0.1156 -0.1665  0.0020
 1562DOPE   D2A18329  16.183  12.374  11.450  0.0267 -0.0280  0.0778
 1562DOPE   C3A18330  15.869  12.221  11.724  0.1368  0.2552  0.2456
 1562DOPE   C4A18331  15.631  12.409  12.043  0.0281  0.1652 -0.1673
 1562DOPE   C1B18332  15.496  12.274  11.256  0.0748  0.2834 -0.2870
 1562DOPE   D2B18333  15.326  12.271  11.646  0.4030  0.0940 -0.2318
 1562DOPE   C3B18334  15.003  12.068  11.788 -0.0877 -0.2874  0.1529
 1562DOPE   C4B18335  14.852  11.708  12.036 -0.2933 -0.0185  0.0906
 1563DOPE   NH318336  13.593  10.582  11.033  0.1233  0.2272  0.0517
 1563DOPE   PO418337  13.591  10.262  11.101 -0.0037 -0.2842  0.0320
 1563DOPE   GL118338  13.607  10.391  11.466 -0.2359  0.0500  0.4728
 1563DOPE   GL218339  13.843  10.550  11.521  0.0571  0.4180  0.1062
 1563DOPE   C1A18340  13.399  10.543  11.844  0.1882 -0.2345 -0.0115
 1563DOPE   D2A18341  13.392  10.546  12.300  0.1484 -0.2070  0.2276
 1563DOPE   C3A18342  13.517  10.107  12.542  0.1333 -0.2003 -0.1250
 1563DOPE   C4A18343  13.565  10.077  12.983 -0.0706  0.2645 -0.0323
 1563DOPE   C1B18344  13.884  10.648  11.940  0.2299 -0.0407  0.0605
 1563DOPE   D2B18345  14.283  10.558  12.123 -0.0686  0.0991 -0.1066
 1563DOPE   C3B18346  14.381  10.315  12.406 -0.0667  0.4447  0.3217
 1563DOPE   C4B18347  14.481   9.840  12.521  0.0962 -0.2129  0.2274
 1564DOPC   NC318348  14.121   7.671  10.815  0.0954 -0.0311  0.0004
 1564DOPC   PO418349  14.205   7.309  10.711 -0.0784 -0.2704 -0.1298
 1564DOPC   GL118350  14.359   7.422  11.103  0.0931 -0.2470 -0.0795
 1564DOPC   GL218351  14.616   7.556  11.102 -0.0941  0.3312 -0.1827
 1564DOPC   C1A18352  14.373   7.167  11.512 -0.0614  0.0041 -0.1009
 1564DOPC   D2A18353  14.259   7.046  11.957  0.0253  0.2134 -0.0063
 1564DOPC   C3A18354  13.942   7.105  12.252 -0.2120 -0.1907  0.1914
 1564DOPC   C4A18355  13.593   7.223  12.551 -0.3032  0.5039  0.3422
 1564DOPC   C1B18356  14.729   7.503  11.532  0.0498 -0.2765 -0.0874
 1564DOPC   D2B18357  14.652   7.359  11.957 -0.2238  0.4774 -0.1955
 1564DOPC   C3B18358  14.562   7.506  12.355  0.0863  0.0347 -0.2692
 1564DOPC   C4B18359  14.441   7.163  12.609  0.0885  0.3017 -0.3516
 1565DOPE   NH318360  23.476   7.277   9.726  0.0340  0.1610  0.1004
 1565DOPE   PO418361  23.519   7.133   9.990  0.2560  0.0253  0.0636
 1565DOPE   GL118362  23.719   7.089  10.269  0.4400  0.0595 -0.0836
 1565DOPE   GL218363  23.896   6.810  10.328  0.3468 -0.1512 -0.0677
 1565DOPE   C1A18364  23.932   7.380  10.528 -0.3820 -0.1685 -0.0651
 1565DOPE   D2A18365  23.928   7.689  10.872 -0.2003  0.0436  0.1083
 1565DOPE   C3A18366  23.672   7.748  11.277 -0.1777  0.2130 -0.0046
 1565DOPE   C4A18367  23.571   8.100  11.640 -0.2341  0.3056 -0.0015
 1565DOPE   C1B18368  23.929   6.973  10.733 -0.1546  0.0464 -0.0912
 1565DOPE   D2B18369  23.967   7.073  11.158  0.0123 -0.2504  0.0426
 1565DOPE   C3B18370  23.712   6.998  11.530  0.2602 -0.4096  0.2755
 1565DOPE   C4B18371  23.317   6.981  11.746 -0.1749  0.1562  0.0790
 1566DOPS   CNO18372  18.895   9.393  10.634  0.2962  0.1932  0.3496
 1566DOPS   PO418373  19.159   9.666  10.645 -0.0501 -0.0191  0.0832
 1566DOPS   GL118374  19.201   9.692  10.977  0.1601 -0.4158  0.1426
 1566DOPS   GL218375  19.501   9.743  11.070 -0.0843 -0.2197 -0.4375
 1566DOPS   C1A18376  19.121   9.891  11.371  0.1234 -0.0912  0.5329
 1566DOPS   D2A18377  19.203   9.974  11.783  0.3828 -0.1289 -0.0108
 1566DOPS   C3A18378  18.859   9.854  12.075  0.3149 -0.0179 -0.0672
 1566DOPS   C4A18379  18.419   9.645  12.080 -0.2406 -0.0618 -0.0778
 1566DOPS   C1B18380  19.625   9.691  11.503  0.2416  0.0118 -0.3527
 1566DOPS   D2B18381  19.818   9.745  11.906 -0.0069  0.0654  0.1267
 1566DOPS   C3B18382  19.973   9.808  12.332  0.2485 -0.1243 -0.1372
 1566DOPS   C4B18383  20.136   9.704  12.737  0.0964  0.3598  0.0669
 1567DOPC   NC318384  16.635  11.138  10.807  0.0959 -0.0152 -0.1800
 1567DOPC   PO418385  16.313  11.319  10.601 -0.0733 -0.0649 -0.0429
 1567DOPC   GL118386  16.125  11.544  10.930 -0.0389 -0.2132 -0.1392
 1567DOPC   GL218387  16.303  11.750  10.908 -0.1852  0.0197  0.2802
 1567DOPC   C1A18388  15.725  11.606  11.108 -0.4781  0.2148 -0.1592
 1567DOPC   D2A18389  15.583  11.831  11.438  0.0971 -0.3075  0.1337
 1567DOPC   C3A18390  15.461  11.764  11.860  0.3151 -0.0468  0.1505
 1567DOPC   C4A18391  15.388  11.537  12.296  0.3455 -0.0356 -0.4495
 1567DOPC   C1B18392  16.612  11.899  11.226 -0.3012 -0.2111  0.1820
 1567DOPC   D2B18393  16.877  11.722  11.540 -0.1937  0.1972 -0.0567
 1567DOPC   C3B18394  17.145  11.940  11.885  0.1807 -0.1592  0.0617
 1567DOPC   C4B18395  17.504  12.016  12.124  0.3819 -0.0126  0.1151
 1568POSM   NC318396  21.534   6.445  10.351 -0.1812 -0.2576  0.2403
 1568POSM   PO418397  21.237   6.196  10.267  0.0266 -0.0159  0.1429
 1568POSM   AM118398  21.081   6.204  10.529  0.0547  0.1467  0.1506
 1568POSM   AM218399  21.170   6.324  10.777  0.0862 -0.0220 -0.2762
 1568POSM   T1A18400  20.815   5.946  10.922 -0.2100 -0.2399 -0.0254
 1568POSM   C2A18401  20.531   5.588  10.947 -0.2826 -0.1141  0.2952
 1568POSM   C3A18402  20.569   5.114  11.068  0.2804 -0.3047  0.3251
 1568POSM   C1B18403  21.345   6.401  11.066  0.2497  0.2270 -0.0052
 1568POSM   D2B18404  21.574   6.462  11.491  0.0725  0.2241 -0.0363
 1568POSM   C3B18405  21.247   6.538  11.814 -0.1143  0.2104  0.1562
 1568POSM   C4B18406  20.866   6.773  11.886  0.0450  0.0113  0.2547
 1569DOPC   NC318407  15.031   5.510  10.694  0.0471 -0.1384 -0.1444
 1569DOPC   PO418408  15.172   5.171  10.603  0.0715  0.0200  0.2106
 1569DOPC   GL118409  15.315   5.147  10.936  0.3604  0.2236 -0.5009
 1569DOPC   GL218410  15.592   5.291  11.080  0.5302  0.1738 -0.1858
 1569DOPC   C1A18411  15.186   4.911  11.312  0.2372 -0.0704  0.1576
 1569DOPC   D2A18412  15.183   4.962  11.807  0.1419  0.2909  0.0338
 1569DOPC   C3A18413  15.143   5.054  12.249 -0.1959  0.0161  0.3025
 1569DOPC   C4A18414  15.030   4.851  12.686 -0.1883  0.1965  0.0305
 1569DOPC   C1B18415  15.449   5.315  11.526  0.0713  0.1156  0.3544
 1569DOPC   D2B18416  15.564   5.516  11.919 -0.1889  0.0799  0.0319
 1569DOPC   C3B18417  15.622   5.190  12.189 -0.0375 -0.2696  0.1179
 1569DOPC   C4B18418  15.501   4.899  12.539  0.2517 -0.0617 -0.2140
 1570POSM   NC318419  18.637   5.653  10.169 -0.0890 -0.3730 -0.1693
 1570POSM   PO418420  18.799   5.426  10.468  0.4890  0.1230 -0.2944
 1570POSM   AM118421  18.947   5.527  10.743  0.0960  0.0534 -0.0463
 1570POSM   AM218422  18.990   5.712  10.899  0.1327 -0.3101  0.4026
 1570POSM   T1A18423  19.208   5.288  11.136  0.3481  0.1796  0.0067
 1570POSM   C2A18424  19.423   5.271  11.560  0.0810  0.0754  0.1982
 1570POSM   C3A18425  19.734   5.496  11.797 -0.0027 -0.1713  0.1807
 1570POSM   C1B18426  18.832   5.903  11.101  0.1483  0.1425  0.0328
 1570POSM   D2B18427  18.696   6.046  11.513 -0.1676  0.1209 -0.0606
 1570POSM   C3B18428  19.040   6.168  11.808 -0.0915  0.0417 -0.0001
 1570POSM   C4B18429  19.335   6.462  11.640  0.0736 -0.1353 -0.2515
 1571DOPE   NH318430  17.266   4.494  10.468  0.0967  0.5701 -0.0404
 1571DOPE   PO418431  17.355   4.632  10.746  0.2773  0.2125 -0.0180
 1571DOPE   GL118432  17.358   4.685  11.137 -0.1224  0.3449 -0.0589
 1571DOPE   GL218433  17.156   4.385  11.225 -0.2653  0.0118  0.0168
 1571DOPE   C1A18434  17.609   4.978  11.398 -0.1025 -0.1096 -0.2993
 1571DOPE   D2A18435  17.990   5.222  11.569  0.1243  0.2364 -0.2542
 1571DOPE   C3A18436  18.164   5.229  11.986  0.1052 -0.1402  0.0216
 1571DOPE   C4A18437  18.274   5.305  12.420 -0.1598 -0.0812 -0.2996
 1571DOPE   C1B18438  17.115   4.418  11.759 -0.1836  0.0045 -0.2421
 1571DOPE   D2B18439  16.898   4.457  12.194 -0.0644 -0.1538 -0.0676
 1571DOPE   C3B18440  16.628   4.169  12.424 -0.0485 -0.0422 -0.0198
 1571DOPE   C4B18441  16.298   4.198  12.815 -0.1759 -0.1388 -0.0458
 1572DOPE   NH318442  21.590   8.194  10.571  0.2606 -0.3788  0.0519
 1572DOPE   PO418443  21.430   8.462  10.691 -0.2771 -0.0155 -0.1753
 1572DOPE   GL118444  21.548   8.287  11.070 -0.2013 -0.1984 -0.0611
 1572DOPE   GL218445  21.473   8.472  11.266  0.2493 -0.0262  0.0891
 1572DOPE   C1A18446  21.265   8.120  11.429 -0.1795  0.0721  0.3044
 1572DOPE   D2A18447  21.084   7.708  11.577  0.0214 -0.2628 -0.0647
 1572DOPE   C3A18448  20.818   7.588  11.962  0.0073  0.0895  0.2264
 1572DOPE   C4A18449  20.593   7.539  12.331  0.1482  0.2979  0.1692
 1572DOPE   C1B18450  21.850   8.344  11.413 -0.0375 -0.0738 -0.2386
 1572DOPE   D2B18451  22.172   8.348  11.703 -0.3515 -0.3003 -0.3252
 1572DOPE   C3B18452  22.073   8.695  11.988 -0.0121 -0.2220 -0.0463
 1572DOPE   C4B18453  22.386   8.744  12.285 -0.1157  0.0432 -0.1741
 1573DOPS   CNO18454  16.745   0.844  10.031  0.1080 -0.1033 -0.2243
 1573DOPS   PO418455  16.951   0.962  10.354 -0.1138  0.0909  0.1202
 1573DOPS   GL118456  16.903   1.050  10.726  0.2525 -0.0599 -0.2976
 1573DOPS   GL218457  16.643   0.968  10.717  0.0363  0.1312 -0.0320
 1573DOPS   C1A18458  17.134   1.036  11.110 -0.3455  0.1087  0.1104
 1573DOPS   D2A18459  17.439   0.994  11.502 -0.2495  0.1062 -0.2741
 1573DOPS   C3A18460  17.188   0.745  11.797 -0.0834  0.1857 -0.0563
 1573DOPS   C4A18461  17.081   0.843  12.220  0.1157 -0.2005 -0.1239
 1573DOPS   C1B18462  16.776   0.670  11.070 -0.0531  0.0317 -0.0806
 1573DOPS   D2B18463  16.750   0.628  11.519  0.0497 -0.0089  0.1140
 1573DOPS   C3B18464  16.431   0.826  11.769  0.4965 -0.0492 -0.0619
 1573DOPS   C4B18465  16.086   1.032  12.039  0.1826 -0.1430 -0.2642
 1574DOPE   NH318466  11.682  33.773  10.353  0.0256 -0.0337 -0.0406
 1574DOPE   PO418467  11.836  33.481  10.365  0.3580 -0.1350  0.2428
 1574DOPE   GL118468  11.693  33.432  10.701  0.2454 -0.0108  0.0145
 1574DOPE   GL218469  11.798  33.120  10.747  0.1339  0.0930  0.1148
 1574DOPE   C1A18470  11.423  33.553  11.091  0.1976  0.2469  0.1674
 1574DOPE   D2A18471  11.338  33.509  11.520 -0.0407  0.0745 -0.0026
 1574DOPE   C3A18472  11.009  33.581  11.890  0.0799  0.1646 -0.0179
 1574DOPE   C4A18473  10.828  33.297  12.209 -0.1403 -0.1212  0.0310
 1574DOPE   C1B18474  11.885  33.247  11.172 -0.1569 -0.1954 -0.0623
 1574DOPE   D2B18475  11.832  33.631  11.427 -0.0628 -0.0752  0.2715
 1574DOPE   C3B18476  11.641  33.673  11.846  0.4008  0.1615 -0.1771
 1574DOPE   C4B18477  11.414  33.448  12.153 -0.0793 -0.1380 -0.0877
 1575DOPE   NH318478  19.505   2.683  10.670 -0.1842 -0.0472  0.2474
 1575DOPE   PO418479  19.572   2.391  10.586 -0.0667 -0.1215  0.0346
 1575DOPE   GL118480  19.492   2.433  11.019  0.1849  0.4926  0.3824
 1575DOPE   GL218481  19.686   2.332  11.190  0.1671  0.4191 -0.1804
 1575DOPE   C1A18482  19.265   2.188  11.317 -0.2669  0.1687  0.0244
 1575DOPE   D2A18483  19.102   1.964  11.678 -0.0208  0.1317  0.2232
 1575DOPE   C3A18484  18.717   1.910  11.942  0.1915 -0.3693 -0.0407
 1575DOPE   C4A18485  18.372   1.794  12.146  0.2830  0.2467  0.0843
 1575DOPE   C1B18486  19.921   2.191  11.593  0.1400 -0.1057  0.2602
 1575DOPE   D2B18487  19.887   2.084  12.070  0.5594 -0.2678  0.1915
 1575DOPE   C3B18488  20.161   2.412  12.345  0.2049 -0.0843 -0.0887
 1575DOPE   C4B18489  20.584   2.496  12.443  0.1762 -0.1331  0.1539
 1576POSM   NC318490  23.032  10.132   9.897 -0.1094 -0.1447  0.1707
 1576POSM   PO418491  23.076  10.520  10.012 -0.1100  0.1032 -0.1594
 1576POSM   AM118492  23.265  10.514  10.286 -0.0199 -0.2032 -0.1489
 1576POSM   AM218493  23.362  10.684  10.475 -0.1941  0.0477  0.0376
 1576POSM   T1A18494  23.754  10.382  10.375 -0.2383  0.2227 -0.3287
 1576POSM   C2A18495  24.079  10.424  10.699  0.0612  0.0192 -0.1556
 1576POSM   C3A18496  24.305  10.565  11.018 -0.0125 -0.0295 -0.0967
 1576POSM   C1B18497  23.200  10.757  10.776 -0.1438 -0.0107  0.1169
 1576POSM   D2B18498  22.910  10.533  10.999 -0.2133  0.0817 -0.2925
 1576POSM   C3B18499  22.801  10.346  11.422 -0.0037 -0.1008  0.0751
 1576POSM   C4B18500  23.001  10.106  11.768  0.0904 -0.1568  0.1358
 1577DOPC   NC318501  22.563   8.411  10.058 -0.1297 -0.0894 -0.0204
 1577DOPC   PO418502  22.519   8.797  10.068 -0.1918  0.0273 -0.1580
 1577DOPC   GL118503  22.507   8.622  10.467 -0.4569  0.0867  0.0110
 1577DOPC   GL218504  22.752   8.659  10.519  0.2960  0.0174  0.2235
 1577DOPC   C1A18505  22.513   8.771  10.937 -0.0395  0.0274 -0.1960
 1577DOPC   D2A18506  22.882   8.820  11.222 -0.2319 -0.0767 -0.1965
 1577DOPC   C3A18507  23.105   8.530  11.503  0.4533 -0.4452  0.0692
 1577DOPC   C4A18508  23.243   8.332  11.901 -0.1825 -0.6123  0.1925
 1577DOPC   C1B18509  22.878   8.428  10.885 -0.0666 -0.0458 -0.0587
 1577DOPC   D2B18510  22.764   8.179  11.216  0.2636 -0.2580  0.1655
 1577DOPC   C3B18511  22.655   8.212  11.662 -0.1490  0.0623 -0.1561
 1577DOPC   C4B18512  22.527   8.209  12.089  0.2568 -0.1869  0.1132
 1578DOPC   NC318513  13.582  34.612  10.827  0.1688 -0.0307  0.3587
 1578DOPC   PO418514  13.773  34.284  10.750 -0.2741  0.0675  0.2018
 1578DOPC   GL118515  14.044  34.281  10.973 -0.0671 -0.1074  0.0790
 1578DOPC   GL218516  14.368  34.208  10.847  0.2219  0.4817 -0.1562
 1578DOPC   C1A18517  13.864  34.359  11.431 -0.0122 -0.1252 -0.1517
 1578DOPC   D2A18518  13.558  34.335  11.798 -0.1238 -0.4155 -0.1193
 1578DOPC   C3A18519  13.165  34.178  12.014 -0.4726 -0.3588 -0.0628
 1578DOPC   C4A18520  12.790  33.955  11.809 -0.0591 -0.1472 -0.0484
 1578DOPC   C1B18521  14.671  34.132  11.207  0.1157 -0.2488 -0.1995
 1578DOPC   D2B18522  14.724  33.875  11.616  0.2100 -0.0905  0.2488
 1578DOPC   C3B18523  14.427  34.157  11.821  0.1423  0.0955  0.1181
 1578DOPC   C4B18524  14.186  34.556  11.773 -0.1658 -0.1132  0.0837
 1579DOPE   NH318525  15.689  32.737  10.525  0.0205  0.1774 -0.0664
 1579DOPE   PO418526  15.957  32.561  10.417  0.0446  0.0724 -0.1328
 1579DOPE   GL118527  15.915  32.473  10.882  0.2969 -0.4260 -0.0310
 1579DOPE   GL218528  15.771  32.232  10.859 -0.0817  0.0628  0.2068
 1579DOPE   C1A18529  16.358  32.622  11.083  0.0999 -0.3540 -0.0157
 1579DOPE   D2A18530  16.663  32.738  11.384  0.1208  0.0599 -0.0360
 1579DOPE   C3A18531  16.676  32.827  11.878  0.1017  0.0070 -0.1109
 1579DOPE   C4A18532  16.597  33.015  12.201  0.3474  0.5505  0.1401
 1579DOPE   C1B18533  15.604  31.967  11.259  0.4089  0.1747 -0.2124
 1579DOPE   D2B18534  15.738  31.756  11.657 -0.0492  0.1281 -0.0579
 1579DOPE   C3B18535  15.413  31.727  12.024 -0.6683 -0.2701 -0.0845
 1579DOPE   C4B18536  15.161  31.853  12.400 -0.0237  0.0787  0.1006
 1580DOPE   NH318537  20.239   6.441  10.145  0.2683  0.0550 -0.2177
 1580DOPE   PO418538  20.151   6.620  10.404 -0.4184  0.2416  0.0767
 1580DOPE   GL118539  20.273   6.660  10.743  0.0369  0.0773 -0.0433
 1580DOPE   GL218540  20.448   6.389  10.719  0.0966 -0.0985  0.0867
 1580DOPE   C1A18541  20.221   6.468  11.186 -0.2064  0.0316 -0.1437
 1580DOPE   D2A18542  20.402   6.341  11.580  0.2997 -0.0825  0.1482
 1580DOPE   C3A18543  19.977   6.396  11.860 -0.0272 -0.1029  0.1995
 1580DOPE   C4A18544  19.607   6.443  12.026 -0.0305 -0.1126  0.1592
 1580DOPE   C1B18545  20.778   6.481  11.056 -0.1558 -0.0088 -0.0421
 1580DOPE   D2B18546  20.965   6.278  11.458 -0.0108 -0.0417  0.0170
 1580DOPE   C3B18547  21.304   6.018  11.708  0.0624  0.0904 -0.1911
 1580DOPE   C4B18548  21.336   5.574  11.462  0.1278 -0.0586  0.0836
 1581POSM   NC318549  16.959   1.459  10.606 -0.0487  0.1408 -0.0709
 1581POSM   PO418550  17.295   1.306  10.438  0.0168 -0.1885  0.1668
 1581POSM   AM118551  17.392   1.247  10.725 -0.1039  0.0520  0.0594
 1581POSM   AM218552  17.554   1.421  10.904 -0.0003 -0.0312  0.0180
 1581POSM   T1A18553  17.590   0.869  11.067  0.1414 -0.1462  0.0751
 1581POSM   C2A18554  17.841   0.696  11.399  0.0685 -0.1301 -0.5630
 1581POSM   C3A18555  18.266   0.765  11.529 -0.1514  0.1732  0.2455
 1581POSM   C1B18556  17.403   1.521  11.219 -0.0991 -0.0935  0.0613
 1581POSM   D2B18557  17.461   1.518  11.641  0.0916  0.0066  0.1364
 1581POSM   C3B18558  17.348   1.870  11.873 -0.0937 -0.1732 -0.1598
 1581POSM   C4B18559  17.417   2.097  12.254  0.2720 -0.0384 -0.1764
 1582POSM   NC318560  19.613   7.243  10.709 -0.1211 -0.0941  0.3290
 1582POSM   PO418561  19.836   7.025  10.459  0.0600  0.0270 -0.1018
 1582POSM   AM118562  20.077   7.103  10.674 -0.1766  0.1627 -0.0232
 1582POSM   AM218563  20.069   7.291  10.873  0.2373  0.0358 -0.2400
 1582POSM   T1A18564  20.377   6.964  11.045 -0.2572  0.1447 -0.2641
 1582POSM   C2A18565  20.573   6.898  11.479  0.3442  0.0409  0.1102
 1582POSM   C3A18566  20.309   6.758  11.865  0.2554  0.1740 -0.1468
 1582POSM   C1B18567  20.113   7.367  11.225 -0.0788  0.0426 -0.2897
 1582POSM   D2B18568  20.010   7.270  11.695  0.1897 -0.0244 -0.0631
 1582POSM   C3B18569  19.906   7.044  12.135 -0.0029  0.0968  0.2922
 1582POSM   C4B18570  19.668   6.996  12.562  0.1085  0.1170  0.0331
 1583POSM   NC318571  15.402   8.810  11.151  0.2369 -0.3085 -0.1103
 1583POSM   PO418572  15.609   8.552  10.878 -0.0075 -0.0718 -0.1493
 1583POSM   AM118573  15.797   8.513  11.159  0.0529 -0.0608 -0.0009
 1583POSM   AM218574  15.903   8.763  11.265  0.3104 -0.1443  0.0968
 1583POSM   T1A18575  15.961   8.200  11.489 -0.0995 -0.2201  0.0789
 1583POSM   C2A18576  15.998   8.243  11.957  0.0972 -0.1354 -0.1191
 1583POSM   C3A18577  15.942   8.434  12.367  0.0337  0.0354  0.1320
 1583POSM   C1B18578  15.990   8.688  11.607  0.1932 -0.2049 -0.2862
 1583POSM   D2B18579  16.233   8.724  11.981  0.2746 -0.0012 -0.1449
 1583POSM   C3B18580  16.424   9.035  12.258  0.0699 -0.1091  0.0345
 1583POSM   C4B18581  16.346   9.260  12.684  0.0697  0.3141  0.0481
 1584POSM   NC318582  23.486   5.033  10.090 -0.0413 -0.1673 -0.1900
 1584POSM   PO418583  23.860   5.001  10.232  0.1850  0.1795  0.3639
 1584POSM   AM118584  23.855   5.055  10.590 -0.1430  0.5104  0.2053
 1584POSM   AM218585  24.082   5.016  10.785  0.3270  0.0004  0.1512
 1584POSM   T1A18586  23.698   5.050  11.070  0.1226  0.0297 -0.0637
 1584POSM   C2A18587  23.366   5.246  11.391  0.2984 -0.2738  0.1415
 1584POSM   C3A18588  23.322   5.584  11.675 -0.0479  0.1150  0.2005
 1584POSM   C1B18589  24.178   5.019  11.141 -0.1166  0.0161  0.3162
 1584POSM   D2B18590  24.250   5.051  11.582  0.0868  0.1775 -0.0447
 1584POSM   C3B18591  24.230   4.711  11.967 -0.0744  0.0334 -0.0282
 1584POSM   C4B18592  24.453   4.395  12.153  0.2407 -0.1350  0.0214
 1585DOPC   NC318593  15.087   6.732  11.046 -0.1371 -0.0600 -0.1573
 1585DOPC   PO418594  15.325   6.552  10.783  0.2027 -0.0961 -0.0823
 1585DOPC   GL118595  15.531   6.533  11.042  0.3115  0.1910 -0.0464
 1585DOPC   GL218596  15.576   6.171  11.001  0.3356  0.1179  0.3395
 1585DOPC   C1A18597  15.477   6.397  11.480 -0.0538  0.1118  0.3383
 1585DOPC   D2A18598  15.598   6.610  11.857  0.0190  0.2166  0.5011
 1585DOPC   C3A18599  15.835   6.643  12.237  0.0502 -0.4970 -0.0758
 1585DOPC   C4A18600  16.039   6.312  12.526 -0.0212  0.0649 -0.1028
 1585DOPC   C1B18601  15.955   6.190  11.240  0.3372  0.0162 -0.0121
 1585DOPC   D2B18602  15.993   6.362  11.683 -0.2872 -0.2620  0.0044
 1585DOPC   C3B18603  16.260   6.276  12.066 -0.0650  0.0534 -0.1069
 1585DOPC   C4B18604  16.320   5.892  12.290 -0.2933 -0.2285 -0.0363
 1586DOPC   NC318605  19.981   2.224  10.788 -0.3205  0.1619 -0.2976
 1586DOPC   PO418606  20.011   2.616  10.797  0.1121  0.1898 -0.0853
 1586DOPC   GL118607  19.833   2.848  10.992 -0.0121  0.0796 -0.4094
 1586DOPC   GL218608  20.061   3.070  11.016  0.1059 -0.0824 -0.1171
 1586DOPC   C1A18609  19.750   2.739  11.452 -0.0631  0.1747 -0.1506
 1586DOPC   D2A18610  19.769   2.556  11.886 -0.4566  0.0877  0.2172
 1586DOPC   C3A18611  19.441   2.261  11.998  0.0038 -0.0264 -0.1217
 1586DOPC   C4A18612  19.163   1.930  12.200  0.2176  0.0684 -0.4465
 1586DOPC   C1B18613  20.004   3.186  11.414  0.1639  0.0431  0.3603
 1586DOPC   D2B18614  20.005   3.236  11.891  0.1927  0.1239  0.1464
 1586DOPC   C3B18615  20.217   3.558  12.244 -0.1894 -0.0464 -0.0569
 1586DOPC   C4B18616  20.639   3.707  12.313 -0.2800 -0.1569  0.2924
 1587DOPE   NH318617  22.599   7.253  10.260 -0.1219 -0.1586 -0.3948
 1587DOPE   PO418618  22.306   7.332  10.406 -0.2735 -0.0502  0.0732
 1587DOPE   GL118619  22.470   7.168  10.734 -0.0500  0.6992  0.0095
 1587DOPE   GL218620  22.725   6.978  10.773 -0.0777 -0.1200 -0.1412
 1587DOPE   C1A18621  22.599   7.213  11.187  0.1973 -0.0233 -0.4089
 1587DOPE   D2A18622  22.543   7.218  11.683 -0.0031 -0.2784 -0.1393
 1587DOPE   C3A18623  22.795   6.941  11.904  0.3200 -0.1693  0.1199
 1587DOPE   C4A18624  23.130   6.733  12.203  0.2232  0.0405  0.0223
 1587DOPE   C1B18625  22.663   6.681  11.160 -0.0044 -0.1579 -0.0811
 1587DOPE   D2B18626  22.928   6.760  11.480  0.3069 -0.0322  0.0906
 1587DOPE   C3B18627  23.215   6.455  11.737 -0.0529  0.3805 -0.0340
 1587DOPE   C4B18628  23.294   6.211  12.145  0.1400  0.1929 -0.0285
 1588DOPC   NC318629  18.106   3.304  10.866  0.2990 -0.0681 -0.0915
 1588DOPC   PO418630  17.853   3.574  10.739  0.1120 -0.2740 -0.1274
 1588DOPC   GL118631  17.957   3.631  11.175  0.1410  0.1752  0.0513
 1588DOPC   GL218632  17.975   3.829  11.275 -0.1449  0.1929  0.0795
 1588DOPC   C1A18633  17.998   3.266  11.410 -0.0126  0.0033  0.0847
 1588DOPC   D2A18634  18.105   2.893  11.751 -0.1106  0.4680  0.1179
 1588DOPC   C3A18635  17.714   2.801  12.037  0.0661 -0.0403  0.0856
 1588DOPC   C4A18636  17.782   2.482  12.374 -0.1313  0.1813  0.1072
 1588DOPC   C1B18637  17.821   3.757  11.705 -0.2345  0.0761  0.0617
 1588DOPC   D2B18638  17.746   3.750  12.183 -0.1097 -0.1969  0.0909
 1588DOPC   C3B18639  17.608   3.372  12.314  0.3191 -0.0115  0.2329
 1588DOPC   C4B18640  17.462   2.937  12.420  0.1414  0.0817 -0.3215
 1589DOPC   NC318641  21.176   8.904  11.521 -0.0960  0.0146 -0.1472
 1589DOPC   PO418642  21.006   8.726  11.187 -0.0174  0.2914  0.1045
 1589DOPC   GL118643  20.813   8.365  11.372  0.1077  0.2380 -0.0588
 1589DOPC   GL218644  20.829   8.555  11.617 -0.3300 -0.0935  0.2777
 1589DOPC   C1A18645  20.753   8.038  11.732  0.0656  0.1005 -0.1050
 1589DOPC   D2A18646  20.834   8.035  12.217 -0.0283 -0.1224 -0.1952
 1589DOPC   C3A18647  21.278   7.934  12.312 -0.4921 -0.1180 -0.0916
 1589DOPC   C4A18648  21.718   7.802  12.228 -0.0314 -0.1501  0.0707
 1589DOPC   C1B18649  20.469   8.411  11.865  0.0657 -0.2320 -0.0152
 1589DOPC   D2B18650  20.110   8.547  12.094 -0.1089  0.0772 -0.1017
 1589DOPC   C3B18651  19.814   8.171  12.088  0.3851  0.3315 -0.0678
 1589DOPC   C4B18652  19.745   7.735  11.938  0.1923 -0.1199  0.0014
 1590DOPS   CNO18653  23.940  16.217  10.093  0.1071  0.0975  0.4150
 1590DOPS   PO418654  24.283  16.134   9.915 -0.2182 -0.1402 -0.0604
 1590DOPS   GL118655  24.384  16.064  10.202  0.2408 -0.1692  0.0343
 1590DOPS   GL218656  24.213  15.864  10.329  0.2778 -0.2539 -0.0788
 1590DOPS   C1A18657  24.787  16.082  10.472 -0.2281 -0.0803 -0.1078
 1590DOPS   D2A18658  25.103  15.777  10.635 -0.0327  0.1622 -0.0723
 1590DOPS   C3A18659  25.376  15.775  11.046  0.2305 -0.0577 -0.1380
 1590DOPS   C4A18660  25.749  15.620  11.254  0.1459 -0.0913  0.0335
 1590DOPS   C1B18661  24.110  15.680  10.722 -0.1363  0.2059  0.1645
 1590DOPS   D2B18662  24.206  15.555  11.124 -0.1135 -0.1400  0.1805
 1590DOPS   C3B18663  24.445  15.791  11.409 -0.0126  0.0955  0.0136
 1590DOPS   C4B18664  24.817  15.561  11.573  0.1044  0.1429 -0.1488
 1591POSM   NC318665  22.080   5.235  10.115 -0.0769 -0.1119 -0.1893
 1591POSM   PO418666  22.415   5.408  10.015 -0.2097  0.0115 -0.0539
 1591POSM   AM118667  22.620   5.561  10.245 -0.0109 -0.0694  0.1886
 1591POSM   AM218668  22.687   5.824  10.357  0.2498 -0.0290 -0.0398
 1591POSM   T1A18669  22.754   5.517  10.717  0.0837  0.1300 -0.1730
 1591POSM   C2A18670  22.533   5.469  11.140 -0.1133 -0.2667 -0.0055
 1591POSM   C3A18671  22.300   5.387  11.451 -0.0056  0.0140  0.1896
 1591POSM   C1B18672  22.442   5.886  10.590 -0.1328  0.0755 -0.2660
 1591POSM   D2B18673  22.181   5.836  10.987 -0.0299  0.3340  0.1515
 1591POSM   C3B18674  22.305   5.864  11.399 -0.1243  0.1160  0.1076
 1591POSM   C4B18675  22.639   5.652  11.665  0.1592  0.0182  0.0448
 1592DOPS   CNO18676  18.280   8.072  10.576 -0.0321 -0.0787  0.0813
 1592DOPS   PO418677  18.629   8.113  10.725 -0.0946 -0.1598 -0.1196
 1592DOPS   GL118678  18.635   8.025  11.102 -0.1734  0.0446  0.1338
 1592DOPS   GL218679  18.405   8.182  11.196  0.2342 -0.2593  0.0402
 1592DOPS   C1A18680  18.496   7.709  11.429  0.0505 -0.1270 -0.0434
 1592DOPS   D2A18681  18.412   7.521  11.845 -0.0550  0.2549  0.1256
 1592DOPS   C3A18682  18.384   7.098  12.184  0.0452 -0.4199 -0.1190
 1592DOPS   C4A18683  18.099   6.956  12.565 -0.1285 -0.0447 -0.0193
 1592DOPS   C1B18684  18.382   8.212  11.689  0.3831 -0.0933  0.0479
 1592DOPS   D2B18685  18.428   8.465  12.035  0.0735  0.2378  0.4147
 1592DOPS   C3B18686  18.213   8.267  12.373  0.5269  0.1203  0.0855
 1592DOPS   C4B18687  17.847   8.052  12.638 -0.0489 -0.1589  0.0550
 1593POSM   NC318688  14.275   5.026  10.674 -0.2115 -0.1870  0.0724
 1593POSM   PO418689  14.270   4.709  10.409  0.0060 -0.1033 -0.0726
 1593POSM   AM118690  14.146   4.556  10.686  0.1901 -0.3767  0.0986
 1593POSM   AM218691  14.294   4.505  10.935 -0.1724 -0.2766  0.0932
 1593POSM   T1A18692  13.797   4.598  11.062 -0.0652  0.1367 -0.1680
 1593POSM   C2A18693  13.713   4.495  11.469  0.2021  0.0061 -0.0856
 1593POSM   C3A18694  13.677   4.294  11.864  0.0651  0.3467 -0.3351
 1593POSM   C1B18695  14.274   4.677  11.201  0.3478  0.0522  0.1430
 1593POSM   D2B18696  14.261   4.861  11.620  0.0203  0.0725  0.1907
 1593POSM   C3B18697  14.061   4.624  11.974 -0.0415 -0.1215 -0.0615
 1593POSM   C4B18698  13.900   4.637  12.408  0.3264 -0.0481 -0.1602
 1594DOPC   NC318699  15.109  10.165  10.549 -0.0309 -0.1446 -0.1407
 1594DOPC   PO418700  14.778   9.929  10.606 -0.2857  0.1556 -0.1315
 1594DOPC   GL118701  14.677   9.975  11.047 -0.1751  0.3017  0.2711
 1594DOPC   GL218702  14.468  10.136  11.176  0.0422 -0.0898 -0.2442
 1594DOPC   C1A18703  14.736   9.747  11.443  0.0245 -0.1497 -0.1610
 1594DOPC   D2A18704  14.645   9.564  11.827  0.1668 -0.0835 -0.1622
 1594DOPC   C3A18705  14.373   9.467  12.220 -0.1004 -0.2111  0.1120
 1594DOPC   C4A18706  14.054   9.284  12.466  0.2578 -0.2687  0.2079
 1594DOPC   C1B18707  14.807  10.270  11.473  0.1724 -0.2779  0.0944
 1594DOPC   D2B18708  14.829  10.463  11.915 -0.5101  0.2638 -0.0292
 1594DOPC   C3B18709  15.148  10.588  12.205  0.2740  0.0600 -0.0709
 1594DOPC   C4B18710  15.408  10.688  12.568 -0.0614  0.0781 -0.2719
 1595DOPC   NC318711  21.872   7.245  10.268 -0.2324  0.2645  0.3768
 1595DOPC   PO418712  21.911   6.857  10.354 -0.0180  0.0150 -0.3589
 1595DOPC   GL118713  21.801   7.073  10.764 -0.1188 -0.0366 -0.3003
 1595DOPC   GL218714  22.022   7.283  10.824 -0.2536 -0.0557  0.0371
 1595DOPC   C1A18715  21.624   6.847  11.142 -0.2027  0.1990 -0.0143
 1595DOPC   D2A18716  21.258   6.804  11.365  0.1878 -0.0203 -0.1818
 1595DOPC   C3A18717  20.883   6.973  11.122 -0.0928 -0.1845 -0.1360
 1595DOPC   C4A18718  20.915   7.342  10.735 -0.4617 -0.1233 -0.0779
 1595DOPC   C1B18719  22.006   7.432  11.240  0.1542 -0.2130  0.1654
 1595DOPC   D2B18720  22.113   7.428  11.723  0.1607  0.1341 -0.1658
 1595DOPC   C3B18721  21.725   7.364  12.040  0.2415 -0.0963  0.3446
 1595DOPC   C4B18722  21.325   7.554  11.999 -0.1178 -0.0272  0.0432
 1596DOPC   NC318723  13.786   0.463  10.149 -0.2743 -0.0808 -0.1128
 1596DOPC   PO418724  14.054   0.692  10.079  0.2570 -0.1765 -0.0840
 1596DOPC   GL118725  14.076   0.774  10.507  0.1989  0.1597 -0.1405
 1596DOPC   GL218726  13.741   0.759  10.538 -0.1583 -0.0574 -0.1201
 1596DOPC   C1A18727  13.987   0.505  10.864  0.5242 -0.0551  0.2155
 1596DOPC   D2A18728  14.195   0.374  11.225  0.3162 -0.2713 -0.4691
 1596DOPC   C3A18729  14.149   0.482  11.676  0.1175 -0.1583 -0.0040
 1596DOPC   C4A18730  14.066   0.442  12.133 -0.1639 -0.3731 -0.1273
 1596DOPC   C1B18731  13.847   1.047  10.960 -0.3340  0.4968  0.2562
 1596DOPC   D2B18732  13.878   0.787  11.324  0.1100 -0.0252 -0.0144
 1596DOPC   C3B18733  14.248   0.960  11.501  0.0944 -0.1811 -0.0146
 1596DOPC   C4B18734  14.275   1.395  11.775  0.1617 -0.0235 -0.1752
 1597POSM   NC318735  20.619   9.934  10.033 -0.0494  0.0774 -0.1726
 1597POSM   PO418736  20.422  10.195  10.256 -0.2479 -0.0022 -0.2847
 1597POSM   AM118737  20.286  10.186  10.580  0.1531  0.0177  0.3542
 1597POSM   AM218738  20.434  10.134  10.863  0.1325 -0.1325 -0.0782
 1597POSM   T1A18739  19.916  10.346  10.800 -0.2240 -0.1995  0.1434
 1597POSM   C2A18740  19.587  10.721  10.913  0.0002 -0.1087 -0.1460
 1597POSM   C3A18741  19.899  11.062  11.075 -0.4492  0.0024 -0.0564
 1597POSM   C1B18742  20.586  10.315  11.135 -0.2168  0.2766 -0.3102
 1597POSM   D2B18743  20.927  10.286  11.485 -0.2007  0.1522 -0.0541
 1597POSM   C3B18744  20.733  10.208  11.922  0.0891  0.0866 -0.0735
 1597POSM   C4B18745  20.641  10.343  12.338  0.2679 -0.1511 -0.1745
 1598POSM   NC318746  12.883   0.446   9.982 -0.2923 -0.0393  0.1646
 1598POSM   PO418747  13.215   0.560  10.202  0.2322 -0.0951 -0.2406
 1598POSM   AM118748  13.233   0.836  10.407  0.0198  0.0593  0.2065
 1598POSM   AM218749  12.991   0.965  10.515 -0.1129 -0.0083  0.0591
 1598POSM   T1A18750  13.434   1.150  10.762 -0.2741 -0.1777 -0.2215
 1598POSM   C2A18751  13.246   1.317  11.150 -0.1095  0.1452  0.2835
 1598POSM   C3A18752  13.162   1.339  11.572 -0.0750 -0.2622 -0.2722
 1598POSM   C1B18753  12.997   0.948  10.894 -0.0471  0.0516  0.0730
 1598POSM   D2B18754  12.870   0.826  11.305  0.2313 -0.1660  0.1729
 1598POSM   C3B18755  13.090   0.843  11.742  0.0263 -0.1553 -0.3186
 1598POSM   C4B18756  13.118   0.654  12.115 -0.0923  0.3414  0.0176
 1599DOPE   NH318757  19.256   3.626  10.812  0.0122 -0.0536  0.1238
 1599DOPE   PO418758  19.003   3.443  10.885  0.1433  0.0920  0.2009
 1599DOPE   GL118759  18.947   3.286  11.257  0.2547 -0.1905 -0.1496
 1599DOPE   GL218760  18.813   2.981  11.178 -0.0028 -0.1894 -0.3196
 1599DOPE   C1A18761  18.704   3.433  11.577 -0.0377 -0.0317  0.2166
 1599DOPE   D2A18762  18.465   3.223  11.930 -0.0712  0.0326 -0.1214
 1599DOPE   C3A18763  18.036   3.318  11.981  0.1000 -0.2922 -0.2349
 1599DOPE   C4A18764  17.641   3.166  11.751  0.1139 -0.1016 -0.0897
 1599DOPE   C1B18765  18.931   2.990  11.653  0.0102 -0.0517  0.2978
 1599DOPE   D2B18766  19.029   3.284  11.986 -0.1152  0.0146  0.1153
 1599DOPE   C3B18767  18.834   3.034  12.329  0.2460 -0.1077 -0.0269
 1599DOPE   C4B18768  18.517   2.956  12.594  0.0923 -0.2142  0.1042
 1600DOPS   CNO18769  23.598   4.163  10.492 -0.1148  0.0381 -0.1239
 1600DOPS   PO418770  23.478   3.927  10.243 -0.3799  0.0864  0.1420
 1600DOPS   GL118771  23.152   4.021  10.546  0.2248 -0.0176 -0.3773
 1600DOPS   GL218772  23.200   3.761  10.674 -0.1337  0.1207  0.2474
 1600DOPS   C1A18773  23.299   4.247  10.976  0.0680 -0.0421  0.3180
 1600DOPS   D2A18774  23.411   4.617  11.063  0.0699  0.0358 -0.0973
 1600DOPS   C3A18775  23.264   4.720  11.446 -0.2730 -0.1210 -0.0376
 1600DOPS   C4A18776  23.327   4.951  11.881  0.1465  0.2091  0.0400
 1600DOPS   C1B18777  22.968   3.754  11.034  0.1837  0.1903  0.1377
 1600DOPS   D2B18778  22.766   3.429  11.200  0.1646 -0.0926  0.0246
 1600DOPS   C3B18779  22.761   3.354  11.625 -0.2240 -0.1952 -0.0607
 1600DOPS   C4B18780  22.449   3.647  11.883 -0.0053 -0.0982  0.0717
 1601DOPE   NH318781  26.359  13.232  10.265 -0.1959  0.3762  0.0454
 1601DOPE   PO418782  26.642  13.119  10.293  0.2864 -0.0290 -0.0438
 1601DOPE   GL118783  26.533  13.193  10.704 -0.3430 -0.1158 -0.3446
 1601DOPE   GL218784  26.506  13.540  10.717 -0.0282  0.0870  0.0956
 1601DOPE   C1A18785  26.421  13.297  11.136  0.1419 -0.2740  0.0150
 1601DOPE   D2A18786  26.268  13.247  11.549 -0.2107  0.0438  0.4112
 1601DOPE   C3A18787  26.029  13.656  11.703 -0.2681  0.1256  0.0071
 1601DOPE   C4A18788  25.586  13.787  11.784  0.2115 -0.2324 -0.2080
 1601DOPE   C1B18789  26.570  13.820  11.054  0.0125 -0.2319  0.2649
 1601DOPE   D2B18790  26.423  14.044  11.465  0.1613 -0.1185  0.0414
 1601DOPE   C3B18791  26.449  14.492  11.518 -0.1875 -0.1135  0.0245
 1601DOPE   C4B18792  26.578  14.940  11.612 -0.0710 -0.1201 -0.0135
 1602DOPC   NC318793  15.084   7.699  11.190  0.3078  0.3055 -0.1610
 1602DOPC   PO418794  15.084   7.374  10.951  0.0236 -0.2265  0.0442
 1602DOPC   GL118795  15.016   7.262  11.296 -0.1133  0.1430  0.1457
 1602DOPC   GL218796  14.835   7.011  11.475 -0.2881 -0.1114  0.4454
 1602DOPC   C1A18797  15.147   7.371  11.756  0.1542  0.2414  0.1647
 1602DOPC   D2A18798  15.157   7.609  12.165  0.2100 -0.2589 -0.1207
 1602DOPC   C3A18799  14.983   7.882  12.531  0.0168 -0.0275 -0.0257
 1602DOPC   C4A18800  14.768   7.988  12.963  0.0330  0.0146 -0.2380
 1602DOPC   C1B18801  14.717   6.867  11.891  0.0088 -0.1513 -0.1470
 1602DOPC   D2B18802  14.767   6.886  12.331 -0.0814 -0.0051 -0.0145
 1602DOPC   C3B18803  15.182   6.843  12.535 -0.1916  0.0832  0.0756
 1602DOPC   C4B18804  15.604   6.628  12.688 -0.2028  0.1201  0.2031
 1603DOPC   NC318805  14.505   2.796   9.965  0.1833  0.1250 -0.1115
 1603DOPC   PO418806  14.716   3.113  10.082  0.2981 -0.1387 -0.3069
 1603DOPC   GL118807  14.607   3.296  10.430 -0.0961  0.0632  0.2840
 1603DOPC   GL218808  14.761   3.543  10.485  0.1116 -0.2456 -0.1552
 1603DOPC   C1A18809  14.678   3.280  10.904  0.1991 -0.1372 -0.1007
 1603DOPC   D2A18810  14.654   3.358  11.351 -0.1747 -0.0912  0.1145
 1603DOPC   C3A18811  14.771   2.970  11.641 -0.0788  0.0452 -0.0048
 1603DOPC   C4A18812  15.096   2.922  11.959 -0.2171 -0.0081  0.3211
 1603DOPC   C1B18813  14.852   3.757  10.919  0.1983 -0.2068 -0.2772
 1603DOPC   D2B18814  15.084   3.705  11.336 -0.3059  0.1392 -0.1942
 1603DOPC   C3B18815  15.437   3.620  11.642 -0.1379 -0.2898 -0.0094
 1603DOPC   C4B18816  15.637   3.285  11.846 -0.3384  0.0065 -0.2121
 1604POSM   NC318817  23.179   8.118   9.711 -0.0101  0.1002  0.0212
 1604POSM   PO418818  23.002   8.200  10.045  0.0112 -0.2176 -0.2052
 1604POSM   AM118819  22.881   8.157  10.365  0.3573  0.0954 -0.1747
 1604POSM   AM218820  22.662   8.169  10.529 -0.1202  0.2679  0.1671
 1604POSM   T1A18821  22.965   7.945  10.826  0.1033  0.2439  0.3930
 1604POSM   C2A18822  23.170   7.741  11.180 -0.0783 -0.3672 -0.0475
 1604POSM   C3A18823  23.110   7.871  11.665  0.1285  0.1153 -0.1042
 1604POSM   C1B18824  22.445   8.201  10.755  0.0495  0.2232 -0.1801
 1604POSM   D2B18825  22.160   7.970  11.025  0.2174 -0.0851  0.2191
 1604POSM   C3B18826  22.190   7.874  11.472  0.0210  0.0022  0.1547
 1604POSM   C4B18827  22.036   7.865  11.858  0.2866 -0.0959  0.0296
 1605POSM   NC318828  13.545   8.193  10.547 -0.1110  0.0575  0.2581
 1605POSM   PO418829  13.347   8.269  10.896 -0.0506 -0.2115 -0.1898
 1605POSM   AM118830  13.364   8.156  11.186 -0.3632  0.3193 -0.1286
 1605POSM   AM218831  13.593   8.188  11.326  0.0903 -0.1483  0.3295
 1605POSM   T1A18832  13.310   7.869  11.594 -0.1109  0.1472 -0.0735
 1605POSM   C2A18833  13.309   7.695  12.012 -0.4082  0.2020 -0.1767
 1605POSM   C3A18834  13.272   7.616  12.475  0.0891 -0.2755  0.0960
 1605POSM   C1B18835  13.578   8.293  11.681 -0.2026  0.0585 -0.2008
 1605POSM   D2B18836  13.595   8.156  12.087  0.2243 -0.2415  0.1601
 1605POSM   C3B18837  13.770   8.443  12.402  0.1628 -0.1153  0.0826
 1605POSM   C4B18838  14.179   8.432  12.604  0.0861  0.1550 -0.1776
 1606DOPS   CNO18839  19.377   3.022  10.275 -0.0134 -0.0388 -0.1385
 1606DOPS   PO418840  19.215   3.127  10.583 -0.1355 -0.0429  0.2068
 1606DOPS   GL118841  19.281   2.988  10.940 -0.2312  0.0105 -0.0648
 1606DOPS   GL218842  19.519   3.145  11.164 -0.0578  0.0047 -0.2256
 1606DOPS   C1A18843  19.151   2.667  11.229 -0.2098  0.1499 -0.2232
 1606DOPS   D2A18844  19.268   2.603  11.635 -0.2862 -0.0592  0.0079
 1606DOPS   C3A18845  19.312   2.716  12.058  0.0152 -0.2168  0.0214
 1606DOPS   C4A18846  19.716   2.789  12.333 -0.0125  0.0844  0.0515
 1606DOPS   C1B18847  19.442   3.091  11.654  0.0599 -0.2361  0.0033
 1606DOPS   D2B18848  19.496   3.217  12.089  0.0762  0.0997 -0.0908
 1606DOPS   C3B18849  19.287   3.017  12.447  0.0378 -0.3148 -0.0696
 1606DOPS   C4B18850  19.074   2.623  12.578 -0.6620  0.0209  0.2482
 1607POSM   NC318851  15.572   0.797   9.940 -0.0108  0.1367 -0.0045
 1607POSM   PO418852  15.470   0.620  10.259  0.1130 -0.2234 -0.0132
 1607POSM   AM118853  15.378   0.619  10.583 -0.0965 -0.0017 -0.0637
 1607POSM   AM218854  15.479   0.427  10.751 -0.0996  0.3751 -0.3021
 1607POSM   T1A18855  15.093   0.726  10.971 -0.0040 -0.0564  0.0172
 1607POSM   C2A18856  14.721   0.628  11.268  0.1449 -0.1542 -0.0131
 1607POSM   C3A18857  14.584   0.272  11.590 -0.1743 -0.3087  0.2157
 1607POSM   C1B18858  15.507   0.432  11.127 -0.0684 -0.3430  0.0878
 1607POSM   D2B18859  15.526   0.289  11.549  0.0969 -0.2244  0.0429
 1607POSM   C3B18860  15.431   0.484  11.925 -0.0253 -0.1683  0.1575
 1607POSM   C4B18861  15.135   0.796  12.141 -0.1765  0.3252  0.0083
 1608DOPE   NH318862  18.182   8.761  10.369  0.1297 -0.2460 -0.2337
 1608DOPE   PO418863  17.851   8.598  10.422 -0.0956 -0.0647 -0.0803
 1608DOPE   GL118864  17.648   8.697  10.822 -0.1864 -0.0713 -0.1052
 1608DOPE   GL218865  17.717   8.399  11.024 -0.0710 -0.0952 -0.0702
 1608DOPE   C1A18866  17.247   8.523  11.102  0.0747  0.0312 -0.0116
 1608DOPE   D2A18867  16.852   8.320  11.275 -0.5051  0.0350 -0.0257
 1608DOPE   C3A18868  16.853   7.915  11.453  0.1854 -0.0868  0.1140
 1608DOPE   C4A18869  16.964   7.488  11.631  0.0621 -0.0768 -0.2411
 1608DOPE   C1B18870  17.911   8.227  11.401 -0.0389  0.2247  0.0521
 1608DOPE   D2B18871  17.958   8.396  11.847 -0.2127 -0.0327 -0.1140
 1608DOPE   C3B18872  17.603   8.121  12.070  0.2912 -0.2526 -0.0657
 1608DOPE   C4B18873  17.204   7.851  11.958  0.0510  0.0221  0.0999
 1609DOPE   NH318874  11.879   1.856  10.076 -0.1679 -0.0212 -0.1158
 1609DOPE   PO418875  11.840   2.147  10.119  0.0418 -0.0317 -0.1790
 1609DOPE   GL118876  11.734   2.145  10.466 -0.1460 -0.1118 -0.0313
 1609DOPE   GL218877  11.908   1.931  10.577 -0.0768 -0.1714 -0.1642
 1609DOPE   C1A18878  11.807   2.484  10.780 -0.1109 -0.0772  0.0493
 1609DOPE   D2A18879  12.013   2.658  11.120 -0.2706 -0.0102 -0.2335
 1609DOPE   C3A18880  11.846   3.079  11.081 -0.0209  0.1543 -0.1871
 1609DOPE   C4A18881  11.824   3.472  11.246  0.2008  0.2068 -0.0321
 1609DOPE   C1B18882  12.111   1.842  10.949  0.0956  0.1039  0.0916
 1609DOPE   D2B18883  12.128   2.174  11.261 -0.0311 -0.1224 -0.0579
 1609DOPE   C3B18884  12.082   2.491  11.567 -0.1279 -0.1697 -0.0121
 1609DOPE   C4B18885  12.059   2.948  11.746  0.2915  0.2396 -0.2401
 1610DOPE   NH318886  15.032  34.526  10.097  0.0441  0.0836 -0.1412
 1610DOPE   PO418887  15.288  34.350  10.158  0.0444 -0.1960 -0.1759
 1610DOPE   GL118888  15.372  34.246  10.531  0.1800  0.0200  0.2712
 1610DOPE   GL218889  15.362  33.919  10.575  0.0239 -0.2811  0.2152
 1610DOPE   C1A18890  15.163  34.243  10.972 -0.1963 -0.1974 -0.1779
 1610DOPE   D2A18891  15.146  34.112  11.408 -0.2144 -0.1981 -0.2001
 1610DOPE   C3A18892  15.425  34.462  11.588  0.0405 -0.0237  0.3506
 1610DOPE   C4A18893  15.451  34.635  11.946 -0.1439  0.2486  0.0747
 1610DOPE   C1B18894  15.292  33.517  10.706 -0.0404  0.0206  0.0552
 1610DOPE   D2B18895  15.037  33.232  10.978  0.0715  0.0440 -0.2042
 1610DOPE   C3B18896  14.958  33.415  11.392 -0.0536  0.4791 -0.0860
 1610DOPE   C4B18897  14.633  33.423  11.707  0.1454  0.0789 -0.0308
 1611DOPS   CNO18898  15.324  33.106  10.397 -0.0786 -0.0881 -0.1024
 1611DOPS   PO418899  15.195  32.764  10.472 -0.1037  0.2658 -0.2470
 1611DOPS   GL118900  15.045  32.747  10.823 -0.0486 -0.3838  0.1375
 1611DOPS   GL218901  14.871  32.603  10.897 -0.0006 -0.0222 -0.2700
 1611DOPS   C1A18902  15.221  32.829  11.260  0.0037  0.3470  0.1989
 1611DOPS   D2A18903  15.286  32.734  11.726  0.1004 -0.0155  0.0744
 1611DOPS   C3A18904  15.000  32.576  12.050  0.2977 -0.1101 -0.2036
 1611DOPS   C4A18905  14.764  32.261  12.283  0.1783  0.1346  0.0166
 1611DOPS   C1B18906  14.654  32.450  11.305 -0.1808 -0.0662  0.1005
 1611DOPS   D2B18907  14.388  32.387  11.659 -0.0751  0.3475 -0.0943
 1611DOPS   C3B18908  14.388  32.543  12.101  0.0884 -0.1092 -0.0726
 1611DOPS   C4B18909  14.633  32.915  12.134  0.0589 -0.2270 -0.2381
 1612POSM   NC318910  21.625   3.368  10.195  0.0143  0.0940 -0.1512
 1612POSM   PO418911  21.303   3.515  10.020 -0.2032 -0.0196  0.2424
 1612POSM   AM118912  21.314   3.726  10.269 -0.0334  0.2025 -0.0849
 1612POSM   AM218913  21.461   3.801  10.512  0.0339 -0.0075  0.0203
 1612POSM   T1A18914  21.024   4.047  10.572 -0.2526 -0.0416  0.4315
 1612POSM   C2A18915  21.136   4.526  10.717  0.0606 -0.0982  0.0593
 1612POSM   C3A18916  20.784   4.833  10.719  0.0120 -0.0081  0.0646
 1612POSM   C1B18917  21.535   4.036  10.723 -0.0350  0.0170  0.0458
 1612POSM   D2B18918  21.534   4.133  11.167 -0.0149 -0.0243  0.1364
 1612POSM   C3B18919  21.894   4.306  11.379 -0.1168  0.3571  0.1376
 1612POSM   C4B18920  22.169   4.016  11.668  0.0708  0.0923  0.0101
 1613POSM   NC318921  22.161   7.801  10.555 -0.0699  0.0749  0.0575
 1613POSM   PO418922  21.869   7.786  10.339 -0.3305  0.0749  0.1615
 1613POSM   AM118923  21.721   7.739  10.655 -0.0189 -0.0794 -0.3417
 1613POSM   AM218924  21.748   7.884  10.890  0.2373  0.1072 -0.2471
 1613POSM   T1A18925  21.585   7.422  11.023  0.0895 -0.1305 -0.2142
 1613POSM   C2A18926  21.558   7.317  11.525  0.0925  0.1465  0.3228
 1613POSM   C3A18927  21.434   7.012  11.830 -0.3743  0.1415 -0.2356
 1613POSM   C1B18928  21.682   7.861  11.211  0.0145 -0.0008 -0.0806
 1613POSM   D2B18929  21.610   7.804  11.663  0.0617  0.0302 -0.0592
 1613POSM   C3B18930  21.700   8.212  11.902 -0.1792  0.0696  0.0227
 1613POSM   C4B18931  22.001   8.248  12.239 -0.0233  0.0216 -0.1343
 1614DOPE   NH318932  23.023   4.052   9.906  0.0166 -0.0095  0.2615
 1614DOPE   PO418933  23.118   4.236  10.164 -0.1314  0.1777 -0.2191
 1614DOPE   GL118934  23.117   4.504  10.442 -0.2078  0.3573  0.1882
 1614DOPE   GL218935  22.904   4.705  10.312  0.2783 -0.2793  0.0773
 1614DOPE   C1A18936  23.405   4.799  10.618 -0.0053 -0.0916  0.1069
 1614DOPE   D2A18937  23.413   5.261  10.617 -0.0876  0.2514  0.1935
 1614DOPE   C3A18938  23.344   5.522  11.018  0.1604  0.0178  0.1077
 1614DOPE   C4A18939  22.965   5.632  11.282  0.0453  0.0899  0.1673
 1614DOPE   C1B18940  22.939   5.048  10.604  0.2537  0.0729  0.2332
 1614DOPE   D2B18941  23.047   5.142  11.064 -0.0893 -0.2006  0.1970
 1614DOPE   C3B18942  22.875   5.154  11.417  0.2811  0.1166 -0.0824
 1614DOPE   C4B18943  22.745   4.918  11.742  0.2101 -0.0918 -0.2527
 1615DOPS   CNO18944  13.156  10.289  11.396  0.0190 -0.2521 -0.2017
 1615DOPS   PO418945  12.829  10.445  11.214 -0.1561 -0.1348 -0.2733
 1615DOPS   GL118946  12.656  10.300  11.536 -0.0305  0.2963  0.0700
 1615DOPS   GL218947  12.633  10.562  11.654 -0.2893  0.2446  0.1621
 1615DOPS   C1A18948  12.935  10.197  11.892 -0.1130  0.0832 -0.0003
 1615DOPS   D2A18949  13.108  10.093  12.304 -0.3157  0.1182  0.1792
 1615DOPS   C3A18950  13.060   9.817  12.694  0.1328 -0.2048 -0.3106
 1615DOPS   C4A18951  13.276   9.548  13.019 -0.1149  0.1491  0.3632
 1615DOPS   C1B18952  12.505  10.758  12.020 -0.2797  0.3296 -0.4550
 1615DOPS   D2B18953  12.426  10.869  12.417  0.0419  0.2163 -0.3911
 1615DOPS   C3B18954  12.198  10.572  12.739  0.0061 -0.0790  0.1628
 1615DOPS   C4B18955  12.122  10.553  13.179 -0.2102  0.0890  0.0587
 1616DOPE   NH318956  20.067   7.901  10.119  0.2923  0.0127  0.2085
 1616DOPE   PO418957  20.102   8.202  10.167 -0.1930 -0.2740 -0.0601
 1616DOPE   GL118958  20.090   8.252  10.501  0.1782 -0.1239  0.0021
 1616DOPE   GL218959  20.304   8.059  10.650  0.0256  0.0079 -0.0354
 1616DOPE   C1A18960  20.162   8.567  10.848 -0.0524  0.1199  0.2142
 1616DOPE   D2A18961  20.167   8.862  11.247  0.0121  0.1837  0.2442
 1616DOPE   C3A18962  20.311   8.889  11.739 -0.0506  0.2689  0.2874
 1616DOPE   C4A18963  20.002   9.052  12.058 -0.1910 -0.2103  0.1460
 1616DOPE   C1B18964  20.400   7.721  10.952  0.2353  0.0742 -0.1987
 1616DOPE   D2B18965  20.662   7.477  11.206 -0.2262  0.3526  0.0947
 1616DOPE   C3B18966  20.539   7.383  11.593 -0.2451  0.1439  0.0566
 1616DOPE   C4B18967  20.557   7.169  11.993 -0.0797 -0.1965 -0.2281
 1617POSM   NC318968  11.523   3.561   9.734 -0.0220  0.0080 -0.0372
 1617POSM   PO418969  11.877   3.382   9.668  0.3067  0.0455 -0.3597
 1617POSM   AM118970  11.920   3.447   9.970  0.0118  0.1360  0.1097
 1617POSM   AM218971  11.784   3.459  10.217  0.0173  0.2878  0.0619
 1617POSM   T1A18972  12.247   3.739  10.266  0.1777  0.1727  0.2310
 1617POSM   C2A18973  12.689   3.714  10.506 -0.1427  0.0413  0.2502
 1617POSM   C3A18974  13.134   3.738  10.515  0.0973 -0.0492  0.4104
 1617POSM   C1B18975  11.930   3.130  10.304 -0.0006 -0.2593  0.2469
 1617POSM   D2B18976  12.074   2.860  10.635  0.1796 -0.1847  0.0626
 1617POSM   C3B18977  12.345   2.988  11.022  0.1025 -0.0813 -0.1299
 1617POSM   C4B18978  12.510   2.933  11.454 -0.2914  0.2410 -0.0310
 1618POSM   NC318979  13.226   8.993  11.072  0.0928 -0.0873  0.1676
 1618POSM   PO418980  13.017   9.291  11.113 -0.2318  0.3329  0.2859
 1618POSM   AM118981  13.185   9.299  11.377 -0.2588  0.0503  0.0609
 1618POSM   AM218982  13.422   9.226  11.474 -0.1601 -0.0637 -0.2851
 1618POSM   T1A18983  13.097   9.230  11.839 -0.1733 -0.1437  0.2140
 1618POSM   C2A18984  12.904   9.049  12.178 -0.1972 -0.1842  0.1402
 1618POSM   C3A18985  12.838   8.741  12.580 -0.0647 -0.0195 -0.0271
 1618POSM   C1B18986  13.576   8.980  11.677  0.2822 -0.1661  0.3476
 1618POSM   D2B18987  13.831   8.654  11.913 -0.0091  0.1083  0.3151
 1618POSM   C3B18988  14.135   8.826  12.282  0.1489  0.3256  0.4168
 1618POSM   C4B18989  14.374   8.884  12.664  0.1883 -0.0539 -0.0794
 1619DOPC   NC318990  14.254  10.137  10.744  0.1397 -0.1341  0.2521
 1619DOPC   PO418991  14.408  10.481  10.614  0.1529  0.2448 -0.0648
 1619DOPC   GL118992  14.697  10.442  10.954 -0.1025 -0.1537 -0.0080
 1619DOPC   GL218993  14.991  10.492  10.855 -0.2699  0.1572 -0.3604
 1619DOPC   C1A18994  14.528  10.650  11.279 -0.0198  0.0345  0.1870
 1619DOPC   D2A18995  14.403  10.477  11.660 -0.1855 -0.0003  0.4010
 1619DOPC   C3A18996  14.262  10.085  11.659  0.1716  0.1807  0.3836
 1619DOPC   C4A18997  14.413   9.988  12.015 -0.1284 -0.0091 -0.2994
 1619DOPC   C1B18998  15.266  10.708  11.138 -0.1552  0.1600 -0.1165
 1619DOPC   D2B18999  15.655  11.077  11.099 -0.4428 -0.0056  0.3782
 1619DOPC   C3B19000  15.920  11.120  11.474  0.0757  0.0898 -0.2780
 1619DOPC   C4B19001  16.119  10.945  11.885 -0.4039 -0.2191 -0.1519
 1620POSM   NC319002  13.371   6.364  10.209  0.0561 -0.0060 -0.4846
 1620POSM   PO419003  13.060   6.222  10.441  0.1907 -0.3788  0.1582
 1620POSM   AM119004  13.111   6.239  10.759  0.0187  0.2946 -0.0663
 1620POSM   AM219005  13.216   6.072  10.950 -0.0604 -0.0851  0.2919
 1620POSM   T1A19006  12.856   6.323  11.237  0.4617 -0.0108 -0.0305
 1620POSM   C2A19007  12.588   6.173  11.615 -0.0000  0.0963  0.0038
 1620POSM   C3A19008  12.275   6.155  11.921 -0.0583 -0.0894 -0.1046
 1620POSM   C1B19009  13.336   6.028  11.260 -0.1819 -0.0185  0.1154
 1620POSM   D2B19010  13.527   5.949  11.674 -0.0575 -0.1654  0.3056
 1620POSM   C3B19011  13.441   5.841  12.117 -0.0223 -0.1355  0.2456
 1620POSM   C4B19012  13.181   5.848  12.474 -0.0477 -0.2793 -0.2752
 1621DOPE   NH319013  16.918   2.502  10.311 -0.1502  0.1014 -0.0752
 1621DOPE   PO419014  16.703   2.286  10.309  0.0576 -0.0989  0.1598
 1621DOPE   GL119015  16.547   2.212  10.742  0.1093 -0.0787 -0.0539
 1621DOPE   GL219016  16.256   2.042  10.730  0.1678  0.0665 -0.2787
 1621DOPE   C1A19017  16.275   2.248  11.170 -0.2634  0.2163 -0.2183
 1621DOPE   D2A19018  16.101   2.156  11.593  0.0409  0.4323 -0.2111
 1621DOPE   C3A19019  16.284   2.257  11.979  0.0055  0.0053 -0.2491
 1621DOPE   C4A19020  16.574   2.173  12.305 -0.2304 -0.0200 -0.1951
 1621DOPE   C1B19021  15.970   1.875  11.012 -0.0858 -0.0518  0.2326
 1621DOPE   D2B19022  15.830   1.676  11.387 -0.5168  0.0430 -0.0124
 1621DOPE   C3B19023  15.415   1.560  11.482  0.0715  0.0588 -0.1655
 1621DOPE   C4B19024  15.206   1.521  11.791 -0.1291  0.1913  0.1463
 1622DOPS   CNO19025  16.990   3.793  10.751  0.0999  0.0955  0.3502
 1622DOPS   PO419026  16.677   3.711  10.539 -0.1529 -0.1357  0.0936
 1622DOPS   GL119027  16.456   3.773  10.854  0.3531 -0.1062 -0.2059
 1622DOPS   GL219028  16.642   3.988  11.034 -0.3634  0.1653 -0.2435
 1622DOPS   C1A19029  16.394   3.515  11.259 -0.4916 -0.0184 -0.4183
 1622DOPS   D2A19030  16.458   3.700  11.703  0.0785  0.1382  0.3493
 1622DOPS   C3A19031  16.849   3.513  11.718  0.3293 -0.0212 -0.3494
 1622DOPS   C4A19032  17.042   3.308  12.147  0.3787 -0.1860 -0.0281
 1622DOPS   C1B19033  16.863   3.907  11.462  0.1263  0.0188  0.0313
 1622DOPS   D2B19034  16.797   4.000  11.907 -0.0409  0.2316  0.1294
 1622DOPS   C3B19035  16.691   3.675  12.216 -0.0902 -0.1774 -0.0563
 1622DOPS   C4B19036  16.576   3.325  12.557  0.2052 -0.1841 -0.1016
 1623DOPC   NC319037  14.332   6.764  10.699  0.1880  0.2329 -0.0266
 1623DOPC   PO419038  14.587   6.579  10.942 -0.1753 -0.0751 -0.1692
 1623DOPC   GL119039  14.749   6.583  11.323 -0.0243 -0.0906  0.1070
 1623DOPC   GL219040  14.467   6.677  11.431  0.1535  0.2659  0.1740
 1623DOPC   C1A19041  14.813   6.354  11.723  0.1033 -0.1459 -0.3339
 1623DOPC   D2A19042  14.962   6.002  12.033 -0.1445 -0.1950 -0.0917
 1623DOPC   C3A19043  15.188   6.083  12.389  0.0533 -0.1166 -0.0178
 1623DOPC   C4A19044  15.564   6.064  12.684 -0.0856  0.0049 -0.0601
 1623DOPC   C1B19045  14.052   6.699  11.573 -0.1442  0.1650 -0.2351
 1623DOPC   D2B19046  13.769   6.804  11.916  0.1071 -0.2953 -0.3956
 1623DOPC   C3B19047  13.760   6.619  12.274 -0.0895  0.0124  0.4975
 1623DOPC   C4B19048  13.938   6.463  12.591 -0.2521 -0.0466  0.1471
 1624DOPC   NC319049  20.755  11.320  10.349  0.0074  0.0375 -0.1148
 1624DOPC   PO419050  20.627  11.053  10.608  0.0770  0.2018  0.2054
 1624DOPC   GL119051  20.634  11.036  10.981  0.0819  0.0286 -0.4431
 1624DOPC   GL219052  20.371  10.781  11.052  0.0487 -0.1103  0.3684
 1624DOPC   C1A19053  20.750  11.229  11.416  0.1200  0.1684 -0.1623
 1624DOPC   D2A19054  20.812  11.295  11.851 -0.1372  0.1030 -0.0543
 1624DOPC   C3A19055  21.219  11.560  11.887  0.1206 -0.0781 -0.0215
 1624DOPC   C4A19056  21.619  11.809  11.914  0.0232  0.2726  0.3411
 1624DOPC   C1B19057  20.715  10.731  11.377  0.2887  0.2597 -0.2354
 1624DOPC   D2B19058  20.894  10.716  11.780 -0.0481  0.2109  0.3233
 1624DOPC   C3B19059  20.673  10.857  12.154 -0.0965 -0.2622  0.1790
 1624DOPC   C4B19060  20.305  10.871  12.466  0.0440  0.1812 -0.1602
 1625DOPC   NC319061  13.634   3.015   9.378  0.1231  0.1533  0.1213
 1625DOPC   PO419062  13.666   3.070   9.747 -0.0998 -0.3861  0.1167
 1625DOPC   GL119063  13.671   2.941  10.082 -0.2422  0.1647  0.2043
 1625DOPC   GL219064  13.703   3.175  10.237 -0.1226  0.0150 -0.0123
 1625DOPC   C1A19065  13.545   2.765  10.460  0.1084  0.0548 -0.2399
 1625DOPC   D2A19066  13.269   2.800  10.867 -0.0083  0.3471  0.1518
 1625DOPC   C3A19067  13.066   2.352  10.896  0.0096 -0.2056  0.2820
 1625DOPC   C4A19068  12.793   2.003  10.990 -0.2065 -0.0984  0.0780
 1625DOPC   C1B19069  13.430   3.219  10.621 -0.0707 -0.1326 -0.0827
 1625DOPC   D2B19070  13.171   3.324  10.977 -0.2118  0.0028  0.0269
 1625DOPC   C3B19071  12.958   3.733  11.129  0.0739  0.1776  0.0601
 1625DOPC   C4B19072  12.931   4.043  11.442  0.1807 -0.0353  0.0004
 1626DOPS   CNO19073  18.841   8.961  10.308 -0.1736  0.0964  0.0542
 1626DOPS   PO419074  18.530   9.152  10.489  0.2980  0.1334  0.1239
 1626DOPS   GL119075  18.368   9.008  10.794  0.0046  0.0783 -0.1939
 1626DOPS   GL219076  18.348   9.306  10.988  0.2560 -0.0513  0.0148
 1626DOPS   C1A19077  18.432   8.774  11.193 -0.1882 -0.2000  0.2738
 1626DOPS   D2A19078  18.674   8.576  11.505  0.0979 -0.2177 -0.0538
 1626DOPS   C3A19079  18.530   8.866  11.819  0.1940 -0.1156 -0.2762
 1626DOPS   C4A19080  18.363   8.952  12.228  0.0621  0.2654  0.1203
 1626DOPS   C1B19081  18.004   9.071  11.138 -0.0199  0.0624  0.2921
 1626DOPS   D2B19082  18.016   8.804  11.508  0.0313 -0.1000  0.0657
 1626DOPS   C3B19083  17.897   8.937  11.945  0.0797  0.0860  0.0069
 1626DOPS   C4B19084  17.895   8.755  12.389  0.0713  0.0309 -0.2873
 1627POSM   NC319085  13.065   0.089  10.331 -0.0667  0.2134 -0.1392
 1627POSM   PO419086  13.116  -0.091  10.688 -0.2228 -0.1175 -0.1629
 1627POSM   AM119087  13.071   0.124  10.946  0.0503 -0.2057 -0.2332
 1627POSM   AM219088  12.835   0.187  11.041 -0.2022  0.0464 -0.1266
 1627POSM   T1A19089  13.116   0.386  11.387 -0.0453  0.0349 -0.1868
 1627POSM   C2A19090  13.248   0.261  11.780  0.1519 -0.2526  0.2751
 1627POSM   C3A19091  13.282  -0.029  12.103  0.1714 -0.0919  0.0101
 1627POSM   C1B19092  12.785  -0.007  11.299  0.0729 -0.2717 -0.2795
 1627POSM   D2B19093  12.895  -0.100  11.749  0.1632  0.1444  0.0226
 1627POSM   C3B19094  12.758  -0.171  12.208 -0.1063  0.1704  0.1613
 1627POSM   C4B19095  12.533  -0.203  12.574 -0.0679 -0.2232  0.1191
 1628POSM   NC319096  18.982  11.296  10.519  0.5750  0.1898  0.2099
 1628POSM   PO419097  19.278  11.307  10.227 -0.0769 -0.2243 -0.1399
 1628POSM   AM119098  19.443  11.241  10.499  0.2007  0.4973 -0.3516
 1628POSM   AM219099  19.702  11.321  10.622  0.2652 -0.1854 -0.2302
 1628POSM   T1A19100  19.331  11.203  10.982 -0.0279 -0.0044 -0.2366
 1628POSM   C2A19101  19.181  10.859  11.249 -0.2250 -0.1073  0.0617
 1628POSM   C3A19102  19.144  10.418  11.166 -0.1532 -0.2536  0.0564
 1628POSM   C1B19103  19.729  11.505  10.906 -0.1585  0.0706 -0.3045
 1628POSM   D2B19104  19.666  11.478  11.396  0.2090  0.2108 -0.0691
 1628POSM   C3B19105  19.600  11.003  11.530 -0.1743  0.1137 -0.2052
 1628POSM   C4B19106  19.876  10.668  11.424  0.1748  0.2287 -0.1972
 1629DOPE   NH319107  11.259   7.464  10.712  0.2286 -0.4403 -0.2032
 1629DOPE   PO419108  10.999   7.439  10.614  0.0288 -0.4231 -0.0538
 1629DOPE   GL119109  10.918   7.295  11.014 -0.1197  0.0607  0.0331
 1629DOPE   GL219110  11.096   7.354  11.199  0.0911 -0.4298  0.3192
 1629DOPE   C1A19111  10.696   7.148  11.416  0.0981  0.1814 -0.1061
 1629DOPE   D2A19112  10.405   7.204  11.855 -0.1058 -0.3344 -0.1811
 1629DOPE   C3A19113  10.418   6.792  12.131  0.1146 -0.0636  0.1951
 1629DOPE   C4A19114  10.396   6.471  12.499 -0.0157  0.1867 -0.3201
 1629DOPE   C1B19115  11.070   6.850  11.364  0.1070 -0.1258  0.3890
 1629DOPE   D2B19116  11.269   6.455  11.491  0.1773  0.1503 -0.0117
 1629DOPE   C3B19117  11.110   6.221  11.877  0.0851 -0.0392  0.0998
 1629DOPE   C4B19118  11.279   5.926  12.207 -0.1091  0.0248 -0.1536
 1630DOPC   NC319119  13.343  30.957  10.293 -0.2092  0.1343 -0.3327
 1630DOPC   PO419120  12.967  30.858  10.226 -0.1161  0.0513  0.1135
 1630DOPC   GL119121  12.843  30.788  10.607 -0.1451 -0.1578 -0.0580
 1630DOPC   GL219122  12.957  31.034  10.715 -0.1552  0.2781 -0.0643
 1630DOPC   C1A19123  12.640  30.587  11.012  0.1561  0.0537  0.0297
 1630DOPC   D2A19124  12.697  30.660  11.461 -0.1235 -0.5074 -0.1495
 1630DOPC   C3A19125  13.081  30.426  11.609  0.1757 -0.1050 -0.1737
 1630DOPC   C4A19126  13.413  30.279  11.958  0.1661  0.0861 -0.0575
 1630DOPC   C1B19127  12.889  31.150  11.192  0.1351  0.0258 -0.0989
 1630DOPC   D2B19128  13.036  31.052  11.657 -0.3251 -0.0773 -0.1217
 1630DOPC   C3B19129  12.676  30.989  11.910  0.0302 -0.0779  0.1718
 1630DOPC   C4B19130  12.272  31.070  12.192 -0.2776 -0.2056 -0.0291
 1631POSM   NC319131  21.138   1.443  10.280 -0.1493  0.2485  0.0514
 1631POSM   PO419132  20.939   1.132  10.425  0.1320 -0.0538 -0.2230
 1631POSM   AM119133  20.859   0.974  10.711  0.2907 -0.0793 -0.2510
 1631POSM   AM219134  20.812   0.681  10.829  0.0145 -0.1568 -0.1841
 1631POSM   T1A19135  20.716   1.016  11.171  0.0634  0.1429 -0.3033
 1631POSM   C2A19136  20.810   1.133  11.630  0.0548  0.3533  0.2267
 1631POSM   C3A19137  21.135   1.100  11.998 -0.0483  0.0496 -0.0786
 1631POSM   C1B19138  20.519   0.524  10.999 -0.0205 -0.0663  0.0158
 1631POSM   D2B19139  20.330   0.332  11.364  0.2127 -0.0476 -0.3332
 1631POSM   C3B19140  20.512   0.326  11.785 -0.2220  0.0249  0.2048
 1631POSM   C4B19141  20.307   0.226  12.209  0.3264 -0.0181  0.1552
 1632POSM   NC319142  17.741   5.750  10.913  0.1456 -0.2108 -0.1138
 1632POSM   PO419143  17.910   5.361  10.921 -0.0040 -0.0438 -0.0290
 1632POSM   AM119144  18.127   5.426  11.160  0.0556 -0.0770 -0.0084
 1632POSM   AM219145  18.417   5.446  11.154  0.1876  0.0850  0.3620
 1632POSM   T1A19146  18.281   5.601  11.599 -0.2749 -0.2962  0.0565
 1632POSM   C2A19147  18.567   5.762  11.959 -0.2151  0.2507  0.0591
 1632POSM   C3A19148  18.815   5.545  12.303 -0.1260  0.1517 -0.3345
 1632POSM   C1B19149  18.724   5.474  11.330 -0.0185  0.0712  0.0998
 1632POSM   D2B19150  19.041   5.554  11.623 -0.3920  0.1455  0.1527
 1632POSM   C3B19151  19.270   5.500  12.050  0.2490 -0.0617 -0.1646
 1632POSM   C4B19152  19.681   5.583  12.291  0.1896 -0.0524  0.0572
 1633DOPC   NC319153  15.269  20.773  13.625 -0.0395 -0.0783 -0.0872
 1633DOPC   PO419154  15.109  20.435  13.726  0.2163 -0.2955 -0.0555
 1633DOPC   GL119155  15.079  20.303  13.483  0.1089  0.4037  0.1751
 1633DOPC   GL219156  14.898  20.111  13.407  0.2846  0.0108 -0.3070
 1633DOPC   C1A19157  15.374  20.127  13.193 -0.0009 -0.0658  0.0989
 1633DOPC   D2A19158  15.611  20.163  12.802  0.0325 -0.0852  0.1461
 1633DOPC   C3A19159  15.924  19.863  12.748  0.0345 -0.2690  0.5621
 1633DOPC   C4A19160  16.197  19.502  12.601 -0.1727 -0.0009 -0.1413
 1633DOPC   C1B19161  14.724  20.228  13.046 -0.3150  0.1871 -0.0967
 1633DOPC   D2B19162  14.558  19.962  12.683 -0.0865  0.1105 -0.1266
 1633DOPC   C3B19163  14.471  20.162  12.215  0.1244 -0.0445  0.1114
 1633DOPC   C4B19164  14.659  20.272  11.880  0.0734  0.0040  0.1240
 1634DOPC   NC319165  20.573  13.950  12.896 -0.3363  0.2558 -0.1946
 1634DOPC   PO419166  20.690  14.261  13.110 -0.0869  0.0918  0.2252
 1634DOPC   GL119167  20.854  14.285  12.714  0.1210 -0.0167  0.1763
 1634DOPC   GL219168  20.988  14.577  12.713 -0.2814 -0.0830  0.0771
 1634DOPC   C1A19169  20.910  13.856  12.434  0.2256 -0.2193 -0.0035
 1634DOPC   D2A19170  20.931  13.487  12.121  0.1430 -0.0758  0.0186
 1634DOPC   C3A19171  20.707  13.191  11.811  0.0948  0.3419 -0.3520
 1634DOPC   C4A19172  20.541  13.107  11.352 -0.2394 -0.5653 -0.0216
 1634DOPC   C1B19173  20.756  14.829  12.482  0.2088 -0.1237  0.0474
 1634DOPC   D2B19174  20.541  15.250  12.436  0.3122 -0.2980 -0.2954
 1634DOPC   C3B19175  20.122  15.348  12.546  0.0118 -0.1665  0.3292
 1634DOPC   C4B19176  19.761  15.640  12.566 -0.4176  0.2060 -0.1179
 1635DOPE   NH319177  20.525  19.782  13.688  0.6650 -0.1519 -0.0872
 1635DOPE   PO419178  20.568  19.569  13.484  0.0084 -0.1249 -0.1120
 1635DOPE   GL119179  20.733  19.640  13.203 -0.2512 -0.2769 -0.6623
 1635DOPE   GL219180  20.585  19.531  12.985 -0.5521 -0.1716 -0.2049
 1635DOPE   C1A19181  20.908  19.933  12.888 -0.1088  0.1773 -0.0910
 1635DOPE   D2A19182  21.236  20.325  12.833 -0.0126  0.0793 -0.0342
 1635DOPE   C3A19183  21.109  20.508  12.439 -0.2413 -0.0324 -0.0769
 1635DOPE   C4A19184  21.050  20.682  11.990 -0.1843 -0.1097  0.0163
 1635DOPE   C1B19185  20.422  19.403  12.593 -0.0065 -0.2971 -0.0005
 1635DOPE   D2B19186  20.163  19.683  12.327 -0.1273  0.2522  0.0536
 1635DOPE   C3B19187  20.184  19.479  11.900 -0.1313 -0.2085  0.0944
 1635DOPE   C4B19188  20.350  19.172  11.620  0.3182  0.1356 -0.3141
 1636DOPE   NH319189  16.006  20.738  13.868  0.0316  0.0307 -0.1234
 1636DOPE   PO419190  15.686  20.859  13.894 -0.0906 -0.3546 -0.0029
 1636DOPE   GL119191  15.800  20.839  13.463 -0.2382  0.2435  0.0021
 1636DOPE   GL219192  15.664  21.053  13.316  0.1043 -0.0416 -0.1224
 1636DOPE   C1A19193  16.055  20.728  13.080  0.1786  0.1848  0.1129
 1636DOPE   D2A19194  15.887  20.579  12.613 -0.1215 -0.0424 -0.0509
 1636DOPE   C3A19195  15.939  20.415  12.141 -0.0642  0.1093 -0.0142
 1636DOPE   C4A19196  16.122  20.201  11.794 -0.2156 -0.5391  0.0305
 1636DOPE   C1B19197  15.559  20.667  13.141  0.0104  0.0615 -0.2340
 1636DOPE   D2B19198  15.351  20.568  12.807  0.2892 -0.1876 -0.0492
 1636DOPE   C3B19199  15.427  20.415  12.375 -0.1178  0.1688  0.0071
 1636DOPE   C4B19200  15.510  20.666  11.980 -0.4647  0.0148 -0.2011
 1637DOPC   NC319201  19.630  21.939  13.762  0.0449 -0.3208  0.0921
 1637DOPC   PO419202  19.573  21.598  13.913  0.2875 -0.0155 -0.0540
 1637DOPC   GL119203  19.601  21.538  13.429  0.0885  0.2878 -0.0309
 1637DOPC   GL219204  19.488  21.736  13.305 -0.0078 -0.1855  0.0639
 1637DOPC   C1A19205  19.820  21.300  13.074 -0.2103  0.1037 -0.1094
 1637DOPC   D2A19206  19.865  21.354  12.625  0.0106 -0.0080  0.1182
 1637DOPC   C3A19207  19.533  21.020  12.385  0.1897  0.1683 -0.0317
 1637DOPC   C4A19208  19.623  20.595  12.419  0.1530  0.1870 -0.0218
 1637DOPC   C1B19209  19.319  21.508  12.951  0.2336 -0.0024 -0.0797
 1637DOPC   D2B19210  19.358  21.493  12.561  0.2626 -0.0406 -0.0073
 1637DOPC   C3B19211  19.630  21.832  12.636  0.2201  0.4774  0.1203
 1637DOPC   C4B19212  19.778  22.264  12.722 -0.1256  0.2900  0.0586
 1638DOPC   NC319213  22.338  18.393  13.330  0.1786 -0.2488  0.0420
 1638DOPC   PO419214  22.275  18.785  13.449  0.3829 -0.2428  0.2058
 1638DOPC   GL119215  21.951  19.129  13.337  0.1236 -0.1218 -0.1021
 1638DOPC   GL219216  21.963  18.954  13.107 -0.0363  0.0909 -0.0261
 1638DOPC   C1A19217  22.208  19.431  13.087  0.0346  0.2899  0.0828
 1638DOPC   D2A19218  22.462  19.657  12.798  0.3054 -0.1840 -0.0242
 1638DOPC   C3A19219  22.185  19.922  12.514 -0.0587  0.0961 -0.2027
 1638DOPC   C4A19220  21.832  20.225  12.389  0.0510  0.0694 -0.3707
 1638DOPC   C1B19221  22.049  19.127  12.693 -0.1889 -0.5990  0.3440
 1638DOPC   D2B19222  21.890  19.551  12.483 -0.0971 -0.0985  0.0143
 1638DOPC   C3B19223  21.486  19.388  12.481 -0.1845 -0.0525  0.2395
 1638DOPC   C4B19224  21.225  18.969  12.383 -0.0725 -0.0971 -0.3845
 1639POSM   NC319225  15.885  14.786  13.342  0.1707  0.4094  0.2149
 1639POSM   PO419226  15.989  15.159  13.370 -0.0458 -0.2629 -0.0906
 1639POSM   AM119227  15.979  15.174  13.048 -0.1759  0.4698  0.3244
 1639POSM   AM219228  15.861  14.971  12.848  0.3279 -0.0993  0.0682
 1639POSM   T1A19229  15.991  15.374  12.600 -0.0114  0.0034  0.3910
 1639POSM   C2A19230  16.175  15.443  12.203 -0.0133  0.1704  0.2374
 1639POSM   C3A19231  16.161  15.378  11.727 -0.2499  0.4390 -0.1321
 1639POSM   C1B19232  16.056  14.872  12.529  0.0184 -0.0978 -0.0146
 1639POSM   D2B19233  16.334  14.868  12.194 -0.1315  0.0749  0.2924
 1639POSM   C3B19234  16.521  15.022  11.828 -0.3101 -0.1061 -0.2881
 1639POSM   C4B19235  16.605  14.891  11.375 -0.0142  0.0786 -0.0000
 1640DOPS   CNO19236  17.683  22.134  14.052 -0.1854 -0.2981 -0.2711
 1640DOPS   PO419237  17.848  21.888  13.807 -0.2911  0.0796 -0.1916
 1640DOPS   GL119238  17.585  21.799  13.518 -0.0546  0.1474  0.0189
 1640DOPS   GL219239  17.748  21.496  13.447 -0.2297 -0.1040  0.1041
 1640DOPS   C1A19240  17.360  22.009  13.213  0.0599  0.0507 -0.1648
 1640DOPS   D2A19241  17.281  22.240  12.814 -0.3317  0.0902 -0.0397
 1640DOPS   C3A19242  17.534  22.173  12.422  0.2312  0.2766  0.0436
 1640DOPS   C4A19243  17.860  22.366  12.139 -0.3851 -0.2068  0.1695
 1640DOPS   C1B19244  17.858  21.333  13.041 -0.0358  0.0831  0.2402
 1640DOPS   D2B19245  18.152  21.430  12.642  0.0214  0.2723 -0.2045
 1640DOPS   C3B19246  18.074  21.432  12.206 -0.0733  0.1276 -0.0737
 1640DOPS   C4B19247  17.797  21.377  11.816 -0.3048 -0.0544  0.0579
 1641DOPC   NC319248  17.803  14.180  12.814 -0.0421 -0.1557  0.2124
 1641DOPC   PO419249  17.742  14.478  13.103  0.1506  0.1356  0.2020
 1641DOPC   GL119250  17.573  14.560  12.709 -0.2658  0.1361 -0.0206
 1641DOPC   GL219251  17.316  14.362  12.752 -0.0552 -0.1268 -0.2852
 1641DOPC   C1A19252  17.770  14.349  12.340  0.0068  0.1210 -0.0105
 1641DOPC   D2A19253  17.793  14.373  11.910  0.0693 -0.1100  0.0798
 1641DOPC   C3A19254  17.502  14.744  11.667  0.1200  0.0596  0.1473
 1641DOPC   C4A19255  17.056  14.957  11.821  0.0669  0.2213  0.1052
 1641DOPC   C1B19256  16.911  14.340  12.493  0.0858  0.1599  0.1822
 1641DOPC   D2B19257  16.540  14.217  12.344  0.0736 -0.2289 -0.1391
 1641DOPC   C3B19258  16.343  13.910  12.049 -0.4405 -0.2047  0.0919
 1641DOPC   C4B19259  16.401  13.610  11.671 -0.0307 -0.2703  0.1260
 1642DOPE   NH319260  10.184  14.480  15.195 -0.1599 -0.0780  0.3614
 1642DOPE   PO419261  10.090  14.284  14.973  0.3846  0.5985 -0.2556
 1642DOPE   GL119262  10.500  14.373  14.833  0.1096  0.2423  0.0642
 1642DOPE   GL219263  10.437  14.558  14.601  0.0155  0.0868 -0.1637
 1642DOPE   C1A19264  10.658  14.195  14.389  0.1449  0.1477 -0.2323
 1642DOPE   D2A19265  10.793  14.168  13.942  0.5311  0.0906  0.1305
 1642DOPE   C3A19266  10.839  14.278  13.518  0.1268 -0.0185 -0.2101
 1642DOPE   C4A19267  11.068  14.462  13.119 -0.2764 -0.2911 -0.0038
 1642DOPE   C1B19268  10.324  14.655  14.192 -0.0244 -0.2209  0.1879
 1642DOPE   D2B19269  10.364  14.388  13.807 -0.0148  0.1141  0.0256
 1642DOPE   C3B19270  10.347  13.971  14.051  0.0376 -0.1402 -0.2498
 1642DOPE   C4B19271  10.308  13.607  14.337 -0.2140 -0.0382  0.2768
 1643POSM   NC319272  18.093  17.996  13.047  0.0997  0.0616 -0.0754
 1643POSM   PO419273  17.861  17.747  12.852 -0.1341 -0.2269  0.0568
 1643POSM   AM119274  17.723  17.816  12.574 -0.2133 -0.0840  0.4883
 1643POSM   AM219275  17.669  17.696  12.290  0.0978  0.2200  0.0281
 1643POSM   T1A19276  17.412  18.112  12.306  0.1221 -0.1444 -0.1154
 1643POSM   C2A19277  17.137  18.195  11.918 -0.0338  0.2145  0.0376
 1643POSM   C3A19278  17.387  18.191  11.552  0.1093  0.4054  0.2605
 1643POSM   C1B19279  17.658  17.823  11.929 -0.3141  0.0616 -0.0404
 1643POSM   D2B19280  17.550  17.728  11.449 -0.1810 -0.1098  0.1276
 1643POSM   C3B19281  17.212  17.868  11.137 -0.0724 -0.1474 -0.2639
 1643POSM   C4B19282  16.775  18.100  11.134 -0.1032  0.1840  0.0279
 1644DOPS   CNO19283  16.148  21.947  14.095 -0.3648 -0.2824  0.2092
 1644DOPS   PO419284  15.968  21.682  13.973  0.1602  0.1055 -0.3189
 1644DOPS   GL119285  15.990  21.985  13.685  0.2291  0.0634  0.3253
 1644DOPS   GL219286  16.198  22.105  13.501 -0.0216  0.1615 -0.4760
 1644DOPS   C1A19287  15.775  22.082  13.250  0.1313  0.3983  0.0826
 1644DOPS   D2A19288  15.533  21.870  12.918 -0.0390  0.0872 -0.2114
 1644DOPS   C3A19289  15.874  21.801  12.632  0.0525  0.0223 -0.0586
 1644DOPS   C4A19290  16.211  21.934  12.283  0.3569 -0.4069 -0.3699
 1644DOPS   C1B19291  16.392  21.897  13.128  0.0058 -0.0054 -0.1599
 1644DOPS   D2B19292  16.610  21.845  12.718  0.0634  0.0663 -0.1440
 1644DOPS   C3B19293  16.717  22.059  12.307 -0.0368  0.0922  0.0150
 1644DOPS   C4B19294  16.447  22.299  12.020 -0.0275  0.0900 -0.1611
 1645DOPC   NC319295  19.513  12.375  13.778 -0.2440  0.1911 -0.0609
 1645DOPC   PO419296  19.513  12.750  13.665  0.2778  0.1401 -0.0861
 1645DOPC   GL119297  19.602  12.680  13.228  0.2722  0.0042 -0.0201
 1645DOPC   GL219298  19.783  12.817  13.161  0.3519  0.1973 -0.1797
 1645DOPC   C1A19299  19.405  12.388  12.858 -0.2468  0.0316 -0.0992
 1645DOPC   D2A19300  19.399  12.032  12.592 -0.0041 -0.3706 -0.0888
 1645DOPC   C3A19301  19.492  11.569  12.583  0.2995 -0.2309 -0.1809
 1645DOPC   C4A19302  19.292  11.165  12.381  0.1918  0.0226  0.1213
 1645DOPC   C1B19303  19.658  12.795  12.724  0.2845  0.2712  0.1429
 1645DOPC   D2B19304  19.387  12.937  12.438 -0.0996 -0.2630 -0.1290
 1645DOPC   C3B19305  19.200  12.828  12.045  0.1726 -0.0328  0.0680
 1645DOPC   C4B19306  19.167  12.535  11.752 -0.1078 -0.0052  0.3162
 1646DOPE   NH319307  19.369  14.916  13.218 -0.0234 -0.0529  0.4700
 1646DOPE   PO419308  19.437  14.831  12.924 -0.3811 -0.2845  0.0562
 1646DOPE   GL119309  19.203  14.972  12.604 -0.2503 -0.1072 -0.1299
 1646DOPE   GL219310  19.386  14.822  12.396 -0.1918  0.2780 -0.1813
 1646DOPE   C1A19311  19.186  15.409  12.463 -0.1368  0.1530  0.0180
 1646DOPE   D2A19312  19.180  15.584  12.034  0.0666  0.0391 -0.1063
 1646DOPE   C3A19313  19.175  16.002  11.876 -0.1307 -0.3926  0.0512
 1646DOPE   C4A19314  19.399  16.192  11.543  0.0675  0.2930  0.0770
 1646DOPE   C1B19315  19.232  15.089  12.027 -0.2598  0.0294 -0.0417
 1646DOPE   D2B19316  19.163  15.146  11.609 -0.0045  0.4429  0.1541
 1646DOPE   C3B19317  18.809  14.930  11.385  0.0027  0.0621  0.2175
 1646DOPE   C4B19318  18.583  14.596  11.473 -0.6703 -0.0969 -0.0973
 1647DOPE   NH319319  13.386  17.199  13.956 -0.1684  0.1273  0.1977
 1647DOPE   PO419320  13.181  16.993  13.787  0.0295  0.3474  0.4136
 1647DOPE   GL119321  13.191  16.958  13.338 -0.2082 -0.0568  0.1477
 1647DOPE   GL219322  13.397  16.781  13.386  0.0063 -0.1101 -0.0643
 1647DOPE   C1A19323  13.263  17.226  12.966  0.0837  0.1748  0.0022
 1647DOPE   D2A19324  13.585  17.460  12.684 -0.3902  0.0201 -0.0120
 1647DOPE   C3A19325  13.315  17.744  12.426  0.0481  0.0395  0.0105
 1647DOPE   C4A19326  13.233  17.605  12.043  0.1498  0.0822 -0.2291
 1647DOPE   C1B19327  13.532  16.561  13.008  0.0979 -0.0637 -0.0211
 1647DOPE   D2B19328  13.838  16.371  12.705  0.3446 -0.1438 -0.1323
 1647DOPE   C3B19329  14.018  15.954  12.732  0.1649  0.1498 -0.0068
 1647DOPE   C4B19330  14.159  15.501  12.796 -0.0649 -0.5072 -0.2591
 1648DOPC   NC319331  18.653  22.316  14.203 -0.0047 -0.1989 -0.0626
 1648DOPC   PO419332  18.952  22.477  14.090  0.1894  0.1501 -0.0121
 1648DOPC   GL119333  18.939  22.410  13.709 -0.2916 -0.0059  0.4095
 1648DOPC   GL219334  18.721  22.283  13.674 -0.1279 -0.1172 -0.0401
 1648DOPC   C1A19335  18.946  22.670  13.359  0.1811 -0.1128  0.0512
 1648DOPC   D2A19336  18.766  22.826  12.956  0.1975 -0.0067 -0.3078
 1648DOPC   C3A19337  18.867  23.224  12.724 -0.1794  0.0586  0.1119
 1648DOPC   C4A19338  18.615  23.439  12.328 -0.0248 -0.2052 -0.0124
 1648DOPC   C1B19339  18.703  22.316  13.183 -0.0759  0.0771  0.4299
 1648DOPC   D2B19340  18.919  22.394  12.765 -0.2394 -0.1208 -0.1395
 1648DOPC   C3B19341  19.323  22.409  13.024 -0.5334  0.0546  0.2164
 1648DOPC   C4B19342  19.689  22.266  13.268  0.2355 -0.2476  0.1123
 1649POSM   NC319343  21.701  17.668  14.077 -0.1716 -0.0559  0.1854
 1649POSM   PO419344  22.069  17.774  13.973  0.0098 -0.1822 -0.0907
 1649POSM   AM119345  22.001  17.802  13.643  0.0213 -0.1442  0.1118
 1649POSM   AM219346  22.109  18.016  13.500 -0.0912  0.3417  0.0936
 1649POSM   T1A19347  21.639  17.901  13.358  0.0583  0.1192 -0.1025
 1649POSM   C2A19348  21.678  17.995  12.936 -0.2483  0.2388 -0.0500
 1649POSM   C3A19349  21.669  17.866  12.539  0.0693  0.1135  0.3000
 1649POSM   C1B19350  22.105  17.841  13.187  0.2013 -0.1811 -0.0678
 1649POSM   D2B19351  22.171  17.936  12.745 -0.1438 -0.1735  0.2041
 1649POSM   C3B19352  21.969  18.317  12.608  0.2654  0.0052 -0.3336
 1649POSM   C4B19353  22.171  18.641  12.287 -0.0638  0.1057 -0.1101
 1650DOPE   NH319354  11.942  16.878  14.002 -0.0464  0.0911  0.0538
 1650DOPE   PO419355  12.186  17.131  14.017 -0.2669 -0.3236 -0.1435
 1650DOPE   GL119356  12.197  17.156  13.584 -0.1814 -0.3904  0.1726
 1650DOPE   GL219357  12.096  17.426  13.540  0.2243  0.2418 -0.1960
 1650DOPE   C1A19358  12.248  16.857  13.223  0.2313 -0.1839  0.0215
 1650DOPE   D2A19359  12.563  16.935  12.882  0.1066 -0.2278  0.0649
 1650DOPE   C3A19360  12.797  17.303  12.877 -0.2469 -0.1439 -0.1078
 1650DOPE   C4A19361  12.926  17.734  12.824 -0.1756 -0.0125 -0.1285
 1650DOPE   C1B19362  12.184  17.388  13.017 -0.0234  0.0122 -0.1009
 1650DOPE   D2B19363  12.040  17.060  12.755  0.4113  0.0795 -0.1671
 1650DOPE   C3B19364  11.953  17.279  12.289  0.1733  0.0827  0.2524
 1650DOPE   C4B19365  11.936  17.558  11.904  0.0158  0.1974 -0.1972
 1651DOPS   CNO19366  16.114  12.384  14.596  0.1257 -0.2053  0.3285
 1651DOPS   PO419367  15.798  12.600  14.467 -0.1426  0.1428 -0.0754
 1651DOPS   GL119368  15.645  12.517  14.039 -0.0017  0.1306 -0.1237
 1651DOPS   GL219369  15.526  12.278  14.039  0.2076  0.1672  0.1741
 1651DOPS   C1A19370  15.560  12.330  13.578  0.1639  0.1202  0.3600
 1651DOPS   D2A19371  15.413  12.227  13.195  0.0241 -0.0369  0.4389
 1651DOPS   C3A19372  15.217  12.498  12.915 -0.2734 -0.1329  0.0693
 1651DOPS   C4A19373  15.072  12.453  12.486 -0.0364  0.2283  0.0973
 1651DOPS   C1B19374  15.053  12.205  13.881  0.1568 -0.0720 -0.0780
 1651DOPS   D2B19375  14.692  11.934  13.758 -0.2067 -0.1244 -0.0015
 1651DOPS   C3B19376  14.637  11.998  13.260  0.0397  0.1231  0.0356
 1651DOPS   C4B19377  14.875  12.126  12.901 -0.1343  0.0379  0.0345
 1652POSM   NC319378  18.185  20.356  13.608 -0.0516  0.3875 -0.1475
 1652POSM   PO419379  17.918  20.112  13.470  0.0508 -0.0175 -0.0007
 1652POSM   AM119380  17.819  20.124  13.143 -0.4149 -0.2415  0.2093
 1652POSM   AM219381  17.568  20.189  12.983 -0.0875  0.2063  0.3797
 1652POSM   T1A19382  17.942  20.040  12.675 -0.0626  0.0113 -0.1221
 1652POSM   C2A19383  17.876  19.871  12.247 -0.0290  0.2726  0.0655
 1652POSM   C3A19384  17.602  19.835  11.872 -0.1233  0.0202  0.0534
 1652POSM   C1B19385  17.359  20.280  12.734 -0.0260  0.0400 -0.1071
 1652POSM   D2B19386  17.073  20.194  12.414 -0.1580 -0.2097  0.0919
 1652POSM   C3B19387  17.153  19.969  11.993 -0.4200  0.1287 -0.1159
 1652POSM   C4B19388  17.268  19.907  11.541  0.3433  0.1076 -0.0173
 1653POSM   NC319389  14.215  18.387  13.043 -0.1346 -0.0991  0.3604
 1653POSM   PO419390  14.604  18.381  13.095  0.0803  0.0087 -0.1308
 1653POSM   AM119391  14.745  18.329  12.776  0.2372 -0.3028  0.1148
 1653POSM   AM219392  14.748  18.238  12.503  0.0848 -0.0121 -0.1744
 1653POSM   T1A19393  15.197  18.310  12.504 -0.2247 -0.0989 -0.2599
 1653POSM   C2A19394  15.615  18.283  12.332 -0.1083  0.2046 -0.0945
 1653POSM   C3A19395  16.104  18.283  12.196  0.2259 -0.2101  0.4511
 1653POSM   C1B19396  14.813  18.300  12.197 -0.2175 -0.0193 -0.1908
 1653POSM   D2B19397  14.830  18.528  11.828 -0.2189 -0.1334  0.1992
 1653POSM   C3B19398  14.865  18.186  11.601 -0.2505 -0.0952 -0.1569
 1653POSM   C4B19399  14.716  17.756  11.470  0.1357  0.0484  0.1543
 1654DOPC   NC319400  16.040  12.155  14.042  0.0320  0.1775  0.1629
 1654DOPC   PO419401  16.215  12.312  13.700 -0.0653  0.1095 -0.0974
 1654DOPC   GL119402  16.151  12.358  13.372  0.1663  0.2486 -0.1599
 1654DOPC   GL219403  16.261  12.601  13.258  0.2134 -0.1058  0.2909
 1654DOPC   C1A19404  15.938  12.062  13.077  0.1331 -0.0580  0.2294
 1654DOPC   D2A19405  15.653  11.722  13.118  0.1791  0.1571  0.0867
 1654DOPC   C3A19406  15.362  11.822  12.743 -0.3706 -0.0805 -0.1165
 1654DOPC   C4A19407  15.195  12.014  12.332 -0.1524 -0.0450  0.0817
 1654DOPC   C1B19408  16.647  12.597  12.987 -0.1775 -0.0946 -0.3025
 1654DOPC   D2B19409  16.805  12.344  12.604  0.0642 -0.0524 -0.3409
 1654DOPC   C3B19410  16.655  12.379  12.184 -0.0220  0.0422  0.0767
 1654DOPC   C4B19411  16.297  12.499  11.918 -0.0432 -0.2140 -0.1601
 1655DOPS   CNO19412  20.282  15.021  12.942 -0.2510  0.1234  0.3771
 1655DOPS   PO419413  20.036  14.899  13.207 -0.0294  0.2030  0.0071
 1655DOPS   GL119414  19.895  14.663  12.854 -0.3065 -0.0341 -0.4035
 1655DOPS   GL219415  19.835  14.926  12.696  0.0098  0.1971  0.2010
 1655DOPS   C1A19416  19.781  14.472  12.447  0.0766  0.1497  0.0916
 1655DOPS   D2A19417  19.439  14.373  12.178  0.4289  0.0223  0.1056
 1655DOPS   C3A19418  19.068  14.578  12.077 -0.2877  0.4553  0.0547
 1655DOPS   C4A19419  18.647  14.760  11.963  0.1077  0.1868 -0.0685
 1655DOPS   C1B19420  19.717  15.189  12.285  0.1779 -0.3154  0.2609
 1655DOPS   D2B19421  19.688  15.588  12.082  0.2183  0.1508 -0.1656
 1655DOPS   C3B19422  19.490  15.662  11.657  0.1029  0.1314 -0.2261
 1655DOPS   C4B19423  19.132  15.582  11.384 -0.0333 -0.2216  0.0304
 1656DOPE   NH319424  18.675  19.890  13.325 -0.0015  0.0721  0.0149
 1656DOPE   PO419425  18.362  19.862  13.348  0.0310  0.3258 -0.0685
 1656DOPE   GL119426  18.203  20.065  13.018 -0.2996 -0.2341  0.1508
 1656DOPE   GL219427  18.443  20.123  12.897 -0.1572 -0.1513 -0.0318
 1656DOPE   C1A19428  18.023  20.520  12.993 -0.0241  0.1271 -0.0857
 1656DOPE   D2A19429  18.047  20.948  12.882  0.1836  0.0246  0.0094
 1656DOPE   C3A19430  17.763  21.084  12.535  0.0134  0.4242  0.2459
 1656DOPE   C4A19431  17.559  21.122  12.156  0.0878  0.1148 -0.1665
 1656DOPE   C1B19432  18.418  19.752  12.590  0.1219 -0.1590  0.0606
 1656DOPE   D2B19433  18.503  19.442  12.270  0.1441 -0.0009  0.1892
 1656DOPE   C3B19434  18.598  19.514  11.758  0.0006 -0.0461 -0.2972
 1656DOPE   C4B19435  18.793  19.811  11.485 -0.2593 -0.0930  0.1670
 1657POSM   NC319436  22.323  17.349  13.834 -0.1694  0.1427  0.0122
 1657POSM   PO419437  21.953  17.311  13.631 -0.0549 -0.1284  0.0520
 1657POSM   AM119438  21.956  17.219  13.327  0.2628  0.3121  0.2470
 1657POSM   AM219439  21.847  16.965  13.203 -0.3269  0.3443  0.0995
 1657POSM   T1A19440  21.969  17.426  12.876  0.1345  0.4380  0.2371
 1657POSM   C2A19441  21.893  17.472  12.383  0.2165 -0.0516 -0.2770
 1657POSM   C3A19442  21.782  17.578  11.993  0.0066  0.1752 -0.0319
 1657POSM   C1B19443  21.743  16.975  12.888 -0.1454 -0.0582 -0.0357
 1657POSM   D2B19444  21.581  17.027  12.453  0.3479  0.0639  0.1077
 1657POSM   C3B19445  21.590  16.699  12.092 -0.5421 -0.3110  0.2048
 1657POSM   C4B19446  21.543  16.252  12.004 -0.1437  0.1471 -0.1398
 1658POSM   NC319447  21.707  14.286  13.240  0.1838  0.1539 -0.0304
 1658POSM   PO419448  21.638  14.702  13.318 -0.0203 -0.2240  0.0574
 1658POSM   AM119449  21.575  14.620  12.986  0.0695 -0.0287 -0.0636
 1658POSM   AM219450  21.578  14.772  12.709 -0.2231 -0.3091  0.0492
 1658POSM   T1A19451  21.413  14.323  12.596  0.1049 -0.2664 -0.0397
 1658POSM   C2A19452  21.089  14.360  12.305  0.3482 -0.1387 -0.1937
 1658POSM   C3A19453  21.054  14.760  12.056  0.0975  0.1140  0.0386
 1658POSM   C1B19454  21.528  14.844  12.388  0.3438  0.1073  0.0279
 1658POSM   D2B19455  21.430  15.097  12.011  0.0290  0.0939 -0.1601
 1658POSM   C3B19456  21.736  15.107  11.618  0.0554  0.1005  0.1102
 1658POSM   C4B19457  21.847  15.488  11.392  0.0242  0.3896 -0.1512
 1659DOPC   NC319458  12.429  19.043  14.411 -0.0811 -0.0637 -0.1738
 1659DOPC   PO419459  12.633  19.256  14.138 -0.1310  0.2704 -0.0172
 1659DOPC   GL119460  12.574  19.154  13.728 -0.1733 -0.1303  0.4218
 1659DOPC   GL219461  12.824  18.992  13.667 -0.0078 -0.0871  0.2950
 1659DOPC   C1A19462  12.810  19.286  13.321  0.1412  0.1358 -0.2322
 1659DOPC   D2A19463  12.563  19.418  12.972 -0.1634 -0.1193 -0.0797
 1659DOPC   C3A19464  12.684  19.326  12.463 -0.0130 -0.2693  0.0961
 1659DOPC   C4A19465  12.731  19.187  12.023 -0.0063  0.2312  0.2741
 1659DOPC   C1B19466  12.430  18.945  13.350 -0.1342 -0.0815 -0.2588
 1659DOPC   D2B19467  12.093  18.695  13.126  0.4262  0.1005  0.0779
 1659DOPC   C3B19468  12.190  18.393  12.776 -0.0690  0.0172 -0.1074
 1659DOPC   C4B19469  12.594  18.171  12.718  0.0274  0.0444  0.0605
 1660DOPC   NC319470   9.716  16.782  14.051 -0.2884  0.1047  0.1319
 1660DOPC   PO419471   9.389  16.649  14.222  0.2026  0.1887 -0.1317
 1660DOPC   GL119472   9.585  16.390  13.875  0.2912  0.0456 -0.4361
 1660DOPC   GL219473   9.446  16.498  13.627  0.2031  0.3557  0.2592
 1660DOPC   C1A19474   9.535  15.991  13.670 -0.7293 -0.1790  0.1836
 1660DOPC   D2A19475   9.618  15.527  13.768  0.0225 -0.1427 -0.1933
 1660DOPC   C3A19476   9.747  15.060  13.616  0.0599  0.1360  0.0504
 1660DOPC   C4A19477   9.640  14.861  13.206  0.0365 -0.0143  0.2062
 1660DOPC   C1B19478   9.191  16.746  13.322 -0.1431  0.1567 -0.0902
 1660DOPC   D2B19479   9.076  17.180  13.175 -0.0924 -0.1235  0.2073
 1660DOPC   C3B19480   9.092  17.302  12.722 -0.0663 -0.1537 -0.2420
 1660DOPC   C4B19481   9.189  17.327  12.272  0.1528  0.0043 -0.2042
 1661POSM   NC319482  19.035  12.879  13.490  0.1664  0.0933 -0.1022
 1661POSM   PO419483  18.673  12.791  13.642 -0.1002  0.3365 -0.0266
 1661POSM   AM119484  18.714  12.538  13.401  0.5664 -0.3497  0.0557
 1661POSM   AM219485  18.506  12.398  13.266 -0.1196  0.0969  0.0300
 1661POSM   T1A19486  18.890  12.314  12.967 -0.0530 -0.0073 -0.0235
 1661POSM   C2A19487  18.898  12.037  12.568 -0.0004  0.0364 -0.2976
 1661POSM   C3A19488  19.008  11.739  12.246  0.1863  0.1685  0.2091
 1661POSM   C1B19489  18.331  12.275  12.989  0.0729  0.2939  0.1011
 1661POSM   D2B19490  18.325  12.058  12.578 -0.0221  0.1599  0.3091
 1661POSM   C3B19491  18.006  11.785  12.339 -0.0576 -0.1299  0.1389
 1661POSM   C4B19492  17.791  11.600  11.974  0.2162  0.0514  0.1749
 1662POSM   NC319493  23.990  17.710  13.652 -0.0678  0.1074 -0.1221
 1662POSM   PO419494  24.194  17.969  13.459  0.0196  0.1967  0.1033
 1662POSM   AM119495  24.307  17.878  13.176  0.1732 -0.0852  0.4651
 1662POSM   AM219496  24.316  17.645  12.940  0.0030 -0.2660  0.1276
 1662POSM   T1A19497  24.671  17.884  12.772  0.0008 -0.0892 -0.1046
 1662POSM   C2A19498  24.688  17.902  12.265 -0.1450 -0.1850  0.0848
 1662POSM   C3A19499  24.842  17.552  12.038 -0.0447 -0.1411  0.1543
 1662POSM   C1B19500  24.263  17.600  12.585 -0.0702 -0.0025  0.0483
 1662POSM   D2B19501  24.266  17.596  12.122 -0.0667  0.0648  0.0966
 1662POSM   C3B19502  23.945  17.449  11.811 -0.0676  0.0254 -0.0551
 1662POSM   C4B19503  23.485  17.428  11.598 -0.1757  0.0435  0.1703
 1663DOPE   NH319504  20.748  22.731  14.452 -0.1626 -0.0727  0.0073
 1663DOPE   PO419505  20.491  22.890  14.527  0.1223 -0.2792  0.2162
 1663DOPE   GL119506  20.450  23.047  14.178 -0.0862 -0.0887  0.2223
 1663DOPE   GL219507  20.612  22.994  13.969 -0.3349 -0.1736 -0.2426
 1663DOPE   C1A19508  20.138  23.025  13.855  0.0618  0.1585 -0.1309
 1663DOPE   D2A19509  20.014  22.721  13.530 -0.0351 -0.1736  0.1248
 1663DOPE   C3A19510  19.887  22.863  13.062 -0.1840 -0.0342  0.2539
 1663DOPE   C4A19511  19.726  22.827  12.663  0.1024  0.2374  0.0880
 1663DOPE   C1B19512  20.628  22.769  13.584 -0.1361  0.3308 -0.0470
 1663DOPE   D2B19513  20.454  22.993  13.216 -0.2702  0.0698 -0.0983
 1663DOPE   C3B19514  20.324  23.140  12.829 -0.2125 -0.6091 -0.0713
 1663DOPE   C4B19515  20.174  23.311  12.378  0.2237  0.1464  0.1362
 1664DOPC   NC319516  20.033  20.399  13.240 -0.0205  0.2676 -0.1429
 1664DOPC   PO419517  19.789  20.267  13.486  0.0037  0.2383  0.1924
 1664DOPC   GL119518  19.548  20.354  13.172  0.2475  0.0999  0.1213
 1664DOPC   GL219519  19.599  20.507  12.921  0.1437 -0.3916 -0.3719
 1664DOPC   C1A19520  19.389  20.075  12.837 -0.0988 -0.2420 -0.0133
 1664DOPC   D2A19521  19.254  20.209  12.431 -0.2399 -0.0052  0.0368
 1664DOPC   C3A19522  19.546  20.229  12.104 -0.1583 -0.1336 -0.3008
 1664DOPC   C4A19523  19.955  20.242  12.188  0.1277 -0.2631  0.0874
 1664DOPC   C1B19524  19.891  20.261  12.717  0.0736 -0.2068  0.1427
 1664DOPC   D2B19525  19.739  19.892  12.472  0.3095  0.2008 -0.4667
 1664DOPC   C3B19526  19.741  19.790  12.008  0.2393  0.2001 -0.1691
 1664DOPC   C4B19527  19.964  19.833  11.583 -0.0457 -0.0051 -0.0466
 1665DOPE   NH319528  18.439  16.720  12.519 -0.4095  0.1020  0.2006
 1665DOPE   PO419529  18.479  17.010  12.612 -0.0031 -0.0501 -0.0079
 1665DOPE   GL119530  18.463  17.049  12.188 -0.0115  0.0581  0.2837
 1665DOPE   GL219531  18.339  17.341  12.147  0.1276  0.0726  0.0135
 1665DOPE   C1A19532  18.345  16.924  11.737 -0.2929  0.4143  0.0599
 1665DOPE   D2A19533  18.318  16.547  11.400 -0.0987  0.1459  0.0350
 1665DOPE   C3A19534  18.011  16.183  11.530 -0.1942  0.2345  0.0924
 1665DOPE   C4A19535  17.633  15.987  11.596  0.1986 -0.1221 -0.2410
 1665DOPE   C1B19536  18.084  17.710  12.062 -0.2662 -0.1900  0.1536
 1665DOPE   D2B19537  18.108  18.132  11.873  0.7501 -0.3034 -0.2732
 1665DOPE   C3B19538  18.020  18.069  11.414 -0.0384  0.0677  0.0338
 1665DOPE   C4B19539  17.961  18.393  11.070 -0.2354  0.2526 -0.0763
 1666DOPE   NH319540  20.388  15.805  13.761  0.1819  0.0855 -0.3085
 1666DOPE   PO419541  20.190  15.801  13.455  0.2238  0.2483  0.2224
 1666DOPE   GL119542  20.223  16.020  13.120  0.4380  0.2984  0.3138
 1666DOPE   GL219543  20.542  16.089  13.063 -0.2576  0.1481  0.0711
 1666DOPE   C1A19544  20.221  15.916  12.695  0.1759 -0.0123 -0.3269
 1666DOPE   D2A19545  20.395  15.958  12.282  0.1648 -0.2797  0.0765
 1666DOPE   C3A19546  20.797  16.173  12.241 -0.1966 -0.2650 -0.1512
 1666DOPE   C4A19547  21.104  16.043  11.933 -0.0558  0.1367  0.2472
 1666DOPE   C1B19548  20.663  16.293  12.709 -0.0892 -0.1248  0.1713
 1666DOPE   D2B19549  20.339  16.433  12.356 -0.0882  0.1719  0.1992
 1666DOPE   C3B19550  20.444  16.308  11.935  0.0934 -0.0393  0.2189
 1666DOPE   C4B19551  20.558  15.995  11.638  0.1765  0.0779  0.1849
 1667DOPE   NH319552  19.285  11.087  13.880 -0.0464  0.5188 -0.2382
 1667DOPE   PO419553  19.556  10.997  13.862  0.2271 -0.1951  0.4644
 1667DOPE   GL119554  19.803  10.775  13.614 -0.3363 -0.0415  0.1179
 1667DOPE   GL219555  19.857  10.902  13.294  0.3398 -0.3967 -0.0757
 1667DOPE   C1A19556  19.718  10.450  13.243 -0.0674 -0.0658 -0.1642
 1667DOPE   D2A19557  19.924  10.080  12.968  0.2457 -0.2494  0.1917
 1667DOPE   C3A19558  19.694   9.688  12.786  0.1233 -0.0934  0.3300
 1667DOPE   C4A19559  19.736   9.364  12.377 -0.1512 -0.1602 -0.1213
 1667DOPE   C1B19560  19.816  10.734  12.840  0.0141 -0.0561  0.1413
 1667DOPE   D2B19561  19.816  10.373  12.533 -0.1457  0.0112  0.0102
 1667DOPE   C3B19562  20.112  10.496  12.210 -0.1623  0.2443  0.1063
 1667DOPE   C4B19563  20.249  10.509  11.760  0.1909  0.2062 -0.1898
 1668DOPS   CNO19564  11.245  15.139  15.195  0.0997 -0.0283 -0.0457
 1668DOPS   PO419565  10.890  15.082  15.125 -0.3097  0.1011 -0.0188
 1668DOPS   GL119566  10.815  14.850  14.780 -0.3771 -0.0436 -0.0452
 1668DOPS   GL219567  10.958  14.620  14.684  0.0809  0.2262  0.0321
 1668DOPS   C1A19568  10.905  15.030  14.322 -0.0835  0.2587  0.0014
 1668DOPS   D2A19569  10.636  15.175  13.958 -0.2088  0.0886 -0.0150
 1668DOPS   C3A19570  10.335  14.939  13.792  0.0950  0.0272 -0.0426
 1668DOPS   C4A19571  10.082  14.643  13.526 -0.2751  0.1276 -0.0942
 1668DOPS   C1B19572  11.090  14.569  14.256  0.1634 -0.3079 -0.0196
 1668DOPS   D2B19573  11.192  14.462  13.834  0.0564 -0.2407  0.1275
 1668DOPS   C3B19574  11.445  14.493  13.442  0.1782 -0.2072  0.0865
 1668DOPS   C4B19575  11.740  14.147  13.227  0.1894  0.0077 -0.1617
 1669DOPE   NH319576  16.914  21.016  14.089  0.0229  0.3219  0.4603
 1669DOPE   PO419577  16.834  20.778  13.918  0.2119 -0.2840  0.1898
 1669DOPE   GL119578  17.014  20.794  13.561  0.1852  0.1335 -0.0124
 1669DOPE   GL219579  17.253  20.660  13.628 -0.1783  0.4579  0.0972
 1669DOPE   C1A19580  17.017  21.019  13.174  0.1074 -0.4185  0.0371
 1669DOPE   D2A19581  17.232  21.084  12.739  0.0956  0.1736  0.1424
 1669DOPE   C3A19582  17.389  20.696  12.452 -0.2181 -0.1689  0.2782
 1669DOPE   C4A19583  17.577  20.333  12.263  0.2077 -0.0362  0.0829
 1669DOPE   C1B19584  17.227  20.537  13.202  0.2201  0.1133 -0.1264
 1669DOPE   D2B19585  16.876  20.404  12.988  0.2448 -0.1586  0.0554
 1669DOPE   C3B19586  16.414  20.475  12.859  0.2154  0.2260 -0.2782
 1669DOPE   C4B19587  16.104  20.219  13.046  0.0622 -0.0660  0.2192
 1670DOPE   NH319588  14.755  17.521  13.468  0.0671 -0.2169  0.1971
 1670DOPE   PO419589  14.716  17.191  13.468  0.0948  0.0197 -0.0765
 1670DOPE   GL119590  14.493  17.093  13.102 -0.1478 -0.1795  0.1226
 1670DOPE   GL219591  14.718  17.266  12.864  0.1123 -0.1706  0.0027
 1670DOPE   C1A19592  14.421  16.874  12.702  0.0750  0.0889 -0.0325
 1670DOPE   D2A19593  14.196  16.649  12.344 -0.0813  0.3951  0.1670
 1670DOPE   C3A19594  13.899  16.298  12.221  0.2491 -0.0558 -0.2250
 1670DOPE   C4A19595  13.573  16.013  12.126  0.2402  0.1567  0.1831
 1670DOPE   C1B19596  15.092  17.095  12.641  0.0028  0.3325  0.3762
 1670DOPE   D2B19597  15.192  17.207  12.251 -0.0180  0.2224 -0.0344
 1670DOPE   C3B19598  14.748  17.408  12.111  0.0540  0.1884  0.1020
 1670DOPE   C4B19599  14.706  17.882  11.939  0.0240  0.1685 -0.0415
 1671POSM   NC319600  14.394  12.856  14.537 -0.1221 -0.2197  0.2126
 1671POSM   PO419601  14.073  13.062  14.610  0.1289  0.1412 -0.0045
 1671POSM   AM119602  14.047  12.993  14.268 -0.1878  0.0468 -0.2158
 1671POSM   AM219603  14.218  12.973  14.056 -0.0156  0.2651  0.1841
 1671POSM   T1A19604  13.812  12.713  13.902 -0.1334 -0.3221 -0.1435
 1671POSM   C2A19605  13.854  12.328  13.642  0.0930  0.3821  0.0398
 1671POSM   C3A19606  13.980  12.324  13.178 -0.5021  0.1374 -0.2207
 1671POSM   C1B19607  14.241  12.907  13.691 -0.0850  0.1114 -0.4474
 1671POSM   D2B19608  14.037  12.795  13.325  0.1869 -0.2904 -0.1339
 1671POSM   C3B19609  14.138  12.792  12.847  0.1176  0.2022  0.1437
 1671POSM   C4B19610  14.237  12.759  12.386 -0.0710  0.2535  0.3004
 1672POSM   NC319611  16.751  16.197  12.751 -0.0672  0.0304  0.2172
 1672POSM   PO419612  17.060  15.914  12.821  0.1734  0.1117 -0.1574
 1672POSM   AM119613  16.912  15.789  12.557 -0.0444  0.0810 -0.3307
 1672POSM   AM219614  17.020  15.632  12.348  0.0391  0.0368 -0.1049
 1672POSM   T1A19615  16.482  15.890  12.332 -0.0128  0.3445 -0.0846
 1672POSM   C2A19616  16.249  15.829  11.945  0.3261 -0.2870 -0.2013
 1672POSM   C3A19617  16.271  15.818  11.485 -0.0939  0.1449  0.2156
 1672POSM   C1B19618  17.072  15.731  12.076  0.1589  0.2717  0.1945
 1672POSM   D2B19619  17.058  15.786  11.666 -0.1424  0.1748 -0.2714
 1672POSM   C3B19620  16.749  16.170  11.686 -0.0332  0.1537 -0.0430
 1672POSM   C4B19621  16.709  16.501  11.345 -0.0095 -0.0980 -0.2434
 1673DOPC   NC319622  16.181  16.801  13.228 -0.1661 -0.0516 -0.2239
 1673DOPC   PO419623  16.365  16.578  12.975  0.0736 -0.2177 -0.1760
 1673DOPC   GL119624  16.253  16.709  12.656 -0.0685 -0.0928 -0.3302
 1673DOPC   GL219625  16.086  16.482  12.439 -0.0087 -0.1099 -0.0515
 1673DOPC   C1A19626  16.217  16.887  12.191 -0.0173 -0.2887  0.3984
 1673DOPC   D2A19627  16.415  16.729  11.782 -0.0252 -0.2928 -0.3285
 1673DOPC   C3A19628  16.752  16.988  11.764  0.1440  0.1351 -0.1138
 1673DOPC   C4A19629  16.882  17.399  11.604 -0.2370 -0.0574  0.4261
 1673DOPC   C1B19630  16.338  16.334  12.070 -0.2089 -0.0834  0.1652
 1673DOPC   D2B19631  16.243  16.288  11.650 -0.0036 -0.0448  0.0102
 1673DOPC   C3B19632  16.194  16.699  11.329  0.1692 -0.0104  0.0491
 1673DOPC   C4B19633  16.455  17.051  11.196 -0.0435 -0.1080 -0.0177
 1674DOPC   NC319634  13.685  20.697  13.871  0.0292 -0.3364 -0.0533
 1674DOPC   PO419635  13.441  20.443  13.754  0.1965 -0.0655  0.1404
 1674DOPC   GL119636  13.527  20.419  13.355 -0.3927 -0.2142 -0.0967
 1674DOPC   GL219637  13.672  20.610  13.327  0.0783  0.1685 -0.0139
 1674DOPC   C1A19638  13.383  20.019  13.142  0.1735  0.0330 -0.0291
 1674DOPC   D2A19639  13.523  19.616  13.023 -0.2733  0.2613 -0.0071
 1674DOPC   C3A19640  13.610  19.371  12.660 -0.0373 -0.1410 -0.1569
 1674DOPC   C4A19641  13.695  19.179  12.245  0.3277 -0.3499  0.0206
 1674DOPC   C1B19642  13.817  20.677  12.868 -0.0016  0.2183  0.3732
 1674DOPC   D2B19643  13.732  20.746  12.391  0.1748  0.3709  0.0796
 1674DOPC   C3B19644  14.015  20.461  12.135  0.3327 -0.1172 -0.1623
 1674DOPC   C4B19645  14.170  20.155  11.828  0.0308  0.3648  0.2509
 1675POSM   NC319646  11.697  19.929  13.488  0.4458  0.2387 -0.1162
 1675POSM   PO419647  11.766  20.246  13.718  0.4217  0.3832 -0.0378
 1675POSM   AM119648  11.891  20.350  13.419  0.1674 -0.5226 -0.2004
 1675POSM   AM219649  11.869  20.287  13.191  0.2039  0.1451  0.0156
 1675POSM   T1A19650  12.308  20.491  13.209 -0.2228 -0.1304 -0.6062
 1675POSM   C2A19651  12.611  20.587  12.889 -0.2329 -0.0365  0.0398
 1675POSM   C3A19652  12.896  20.526  12.500  0.3798 -0.0994  0.0288
 1675POSM   C1B19653  11.639  20.266  12.913  0.0331 -0.3407 -0.5095
 1675POSM   D2B19654  11.561  20.327  12.455 -0.0276 -0.1611  0.2265
 1675POSM   C3B19655  11.796  20.703  12.400 -0.1539 -0.5094 -0.1694
 1675POSM   C4B19656  11.919  21.180  12.406 -0.1776 -0.0559 -0.1422
 1676DOPC   NC319657  18.970  10.676  14.070 -0.0690  0.2135  0.0191
 1676DOPC   PO419658  19.307  10.537  13.985  0.1784  0.0493 -0.0640
 1676DOPC   GL119659  19.101  10.446  13.677 -0.0258  0.2447  0.0631
 1676DOPC   GL219660  19.258  10.612  13.492  0.4870  0.1218 -0.0613
 1676DOPC   C1A19661  18.738  10.442  13.342  0.3307  0.0298  0.3339
 1676DOPC   D2A19662  18.678  10.294  12.926 -0.2060  0.3917  0.0518
 1676DOPC   C3A19663  18.976  10.392  12.555  0.1766  0.2129 -0.2125
 1676DOPC   C4A19664  19.085  10.769  12.198  0.0929 -0.0392  0.4174
 1676DOPC   C1B19665  19.329  10.805  13.100  0.0349 -0.3462 -0.2686
 1676DOPC   D2B19666  19.266  10.828  12.678 -0.1189  0.1691  0.0643
 1676DOPC   C3B19667  19.565  10.731  12.327  0.0856 -0.5753  0.0325
 1676DOPC   C4B19668  19.764  10.696  11.952 -0.0302  0.0447  0.2130
 1677POSM   NC319669  10.437  17.596  13.763  0.5718 -0.0371  0.0936
 1677POSM   PO419670  10.426  17.987  13.833 -0.1750  0.0100 -0.0177
 1677POSM   AM119671  10.564  18.148  13.597  0.3039  0.1196  0.3080
 1677POSM   AM219672  10.589  18.026  13.340  0.2150  0.1699  0.1528
 1677POSM   T1A19673  10.408  18.453  13.222 -0.0440  0.2599 -0.4065
 1677POSM   C2A19674  10.583  18.668  12.860  0.0428 -0.1094  0.1939
 1677POSM   C3A19675  10.897  18.685  12.478  0.0950 -0.1433 -0.3431
 1677POSM   C1B19676  10.883  18.075  13.251  0.1899 -0.1828  0.2389
 1677POSM   D2B19677  11.073  18.339  12.965 -0.4280 -0.1076  0.0282
 1677POSM   C3B19678  11.207  18.276  12.524  0.1130  0.2073 -0.3307
 1677POSM   C4B19679  11.212  18.476  12.170  0.0841 -0.1036  0.1914
 1678DOPC   NC319680  13.164  16.287  14.164  0.3474 -0.1046 -0.0640
 1678DOPC   PO419681  13.451  16.117  14.032  0.1240  0.0639 -0.0490
 1678DOPC   GL119682  13.431  16.020  13.653  0.0078 -0.4633 -0.1518
 1678DOPC   GL219683  13.376  15.708  13.561  0.0497  0.5124 -0.0972
 1678DOPC   C1A19684  13.170  16.212  13.289 -0.1792  0.1267 -0.0932
 1678DOPC   D2A19685  13.004  16.144  12.875  0.0310  0.1079 -0.1271
 1678DOPC   C3A19686  12.907  16.501  12.600 -0.2217  0.1106  0.1257
 1678DOPC   C4A19687  12.879  16.971  12.494 -0.0498  0.1806  0.0069
 1678DOPC   C1B19688  12.968  15.750  13.345  0.0210  0.0566 -0.0134
 1678DOPC   D2B19689  12.617  16.084  13.174 -0.1411  0.2815 -0.1689
 1678DOPC   C3B19690  12.401  15.741  13.100  0.0178  0.0950 -0.1077
 1678DOPC   C4B19691  11.991  15.584  13.043 -0.2276 -0.0437  0.1605
 1679POSM   NC319692  11.680  21.082  13.574  0.1363  0.2029  0.1281
 1679POSM   PO419693  11.497  20.734  13.547  0.0709 -0.3372  0.2319
 1679POSM   AM119694  11.601  20.694  13.248 -0.1012 -0.1524 -0.1124
 1679POSM   AM219695  11.842  20.788  13.120 -0.0855  0.2742  0.0529
 1679POSM   T1A19696  11.376  20.684  12.815  0.1993  0.1059  0.1619
 1679POSM   C2A19697  11.278  20.819  12.359  0.3867  0.0882 -0.2785
 1679POSM   C3A19698  11.079  20.589  11.994  0.0467 -0.1923 -0.0169
 1679POSM   C1B19699  12.021  20.769  12.883  0.0251 -0.3465 -0.0378
 1679POSM   D2B19700  12.272  20.648  12.508 -0.1399 -0.1754  0.1993
 1679POSM   C3B19701  12.141  20.835  12.090 -0.0807  0.1600  0.2570
 1679POSM   C4B19702  12.421  21.036  11.802  0.2308  0.1323  0.0177
 1680DOPE   NH319703  13.864  15.777  14.142  0.0929 -0.3012  0.1803
 1680DOPE   PO419704  13.794  15.804  13.825 -0.0009  0.3000 -0.3641
 1680DOPE   GL119705  13.896  15.741  13.440  0.3674  0.0285  0.2798
 1680DOPE   GL219706  14.124  15.803  13.275 -0.1107 -0.0105  0.0857
 1680DOPE   C1A19707  13.771  15.503  13.052 -0.0788  0.1889 -0.3790
 1680DOPE   D2A19708  13.733  15.402  12.567  0.0353 -0.1150  0.2047
 1680DOPE   C3A19709  13.660  15.076  12.220  0.1460  0.2144  0.1220
 1680DOPE   C4A19710  13.794  14.920  11.820 -0.1114 -0.3040 -0.0041
 1680DOPE   C1B19711  14.184  15.314  13.236  0.0794  0.0224 -0.1679
 1680DOPE   D2B19712  13.936  15.079  12.936  0.1399 -0.1146  0.0714
 1680DOPE   C3B19713  14.115  15.059  12.507 -0.0442 -0.1968  0.0771
 1680DOPE   C4B19714  14.241  14.744  12.207 -0.1056  0.2407 -0.0993
 1681DOPC   NC319715  20.691  12.978  13.280  0.1021  0.0823 -0.1746
 1681DOPC   PO419716  20.928  13.311  13.324  0.4623  0.0702 -0.0057
 1681DOPC   GL119717  21.002  13.272  12.951 -0.2046 -0.0892 -0.0674
 1681DOPC   GL219718  20.829  13.296  12.746  0.1521  0.0497 -0.1353
 1681DOPC   C1A19719  21.272  13.403  12.591  0.0355  0.0229 -0.2516
 1681DOPC   D2A19720  21.598  13.387  12.276 -0.3190  0.1081  0.1321
 1681DOPC   C3A19721  21.343  13.358  11.905 -0.3365  0.1261 -0.0076
 1681DOPC   C4A19722  21.049  13.539  11.570 -0.2947  0.0694  0.3072
 1681DOPC   C1B19723  20.557  13.147  12.417  0.1855 -0.1977  0.0627
 1681DOPC   D2B19724  20.309  13.365  12.075 -0.0919  0.1900  0.0075
 1681DOPC   C3B19725  20.096  13.776  11.984  0.0143 -0.1728  0.0984
 1681DOPC   C4B19726  19.711  14.011  11.834 -0.0038  0.3243  0.1629
 1682DOPC   NC319727  19.837  11.339  13.624 -0.2462  0.2718 -0.1021
 1682DOPC   PO419728  19.549  11.535  13.715 -0.0708  0.2001  0.2550
 1682DOPC   GL119729  19.528  11.469  13.313 -0.1190  0.1844 -0.0929
 1682DOPC   GL219730  19.430  11.213  13.315  0.1847  0.0574  0.2076
 1682DOPC   C1A19731  19.874  11.643  13.053  0.1798  0.0887  0.1883
 1682DOPC   D2A19732  19.845  12.022  12.812  0.2804  0.1633  0.1111
 1682DOPC   C3A19733  19.980  11.954  12.384  0.1612 -0.1220  0.1422
 1682DOPC   C4A19734  20.144  11.987  11.986 -0.0533  0.2095 -0.0816
 1682DOPC   C1B19735  19.617  11.232  12.891 -0.1065 -0.1372 -0.0231
 1682DOPC   D2B19736  19.875  11.204  12.462  0.0638  0.1022 -0.1124
 1682DOPC   C3B19737  19.641  11.259  12.005 -0.1275 -0.0856 -0.1286
 1682DOPC   C4B19738  19.213  11.410  11.919 -0.0799 -0.1523  0.2175
 1683DOPC   NC319739  16.006  14.183  13.648 -0.3263 -0.0500 -0.0346
 1683DOPC   PO419740  15.788  14.241  13.972  0.0758  0.0919 -0.0339
 1683DOPC   GL119741  15.374  14.279  13.670 -0.1262 -0.0629  0.2234
 1683DOPC   GL219742  15.564  14.443  13.504  0.4247  0.0326  0.0419
 1683DOPC   C1A19743  15.034  14.118  13.394 -0.1998  0.0855  0.1226
 1683DOPC   D2A19744  14.619  13.985  13.221  0.2759 -0.0279  0.2229
 1683DOPC   C3A19745  14.513  13.891  12.852 -0.0138  0.0130  0.0745
 1683DOPC   C4A19746  14.440  13.569  12.576  0.0745  0.1589  0.0650
 1683DOPC   C1B19747  15.594  14.060  13.273  0.0555 -0.1676  0.0805
 1683DOPC   D2B19748  15.564  13.603  13.122 -0.1321 -0.0508 -0.1420
 1683DOPC   C3B19749  15.466  13.365  12.796  0.2990  0.3788  0.1349
 1683DOPC   C4B19750  15.743  13.238  12.457 -0.1416  0.2935 -0.1893
 1684DOPC   NC319751  24.764  18.030  13.360  0.0926 -0.0412 -0.2484
 1684DOPC   PO419752  24.945  17.801  13.629 -0.2006  0.0840  0.2567
 1684DOPC   GL119753  25.016  17.459  13.404 -0.3392  0.0810  0.1780
 1684DOPC   GL219754  24.882  17.551  13.086  0.1679  0.0069 -0.0520
 1684DOPC   C1A19755  25.237  17.263  13.004 -0.1224 -0.0230  0.0015
 1684DOPC   D2A19756  25.245  17.338  12.574  0.1754  0.0717 -0.1853
 1684DOPC   C3A19757  25.244  17.183  12.141  0.0690 -0.2424 -0.1727
 1684DOPC   C4A19758  24.965  17.100  11.756  0.2665 -0.4680 -0.2402
 1684DOPC   C1B19759  24.676  17.357  12.743  0.0614 -0.0932 -0.1280
 1684DOPC   D2B19760  24.723  17.200  12.372  0.1089  0.0664  0.0227
 1684DOPC   C3B19761  24.430  16.839  12.293  0.1145  0.2385 -0.0120
 1684DOPC   C4B19762  24.039  16.636  12.448  0.1932  0.1977  0.0117
 1685DOPS   CNO19763  15.215  16.313  13.523 -0.3289 -0.1134  0.0352
 1685DOPS   PO419764  15.143  15.998  13.315 -0.1680 -0.1355  0.2443
 1685DOPS   GL119765  14.974  15.832  12.928  0.0446  0.0977  0.0437
 1685DOPS   GL219766  15.102  15.642  12.962  0.0321  0.3120  0.2142
 1685DOPS   C1A19767  15.043  15.619  12.503 -0.1512 -0.0183  0.0322
 1685DOPS   D2A19768  15.033  15.240  12.310  0.2304 -0.2380 -0.1151
 1685DOPS   C3A19769  14.777  14.914  12.284 -0.0421 -0.2840  0.0328
 1685DOPS   C4A19770  14.550  14.544  12.557 -0.1263 -0.1695  0.0511
 1685DOPS   C1B19771  15.317  15.956  12.683 -0.1834 -0.5218 -0.1296
 1685DOPS   D2B19772  15.384  15.966  12.229 -0.2986 -0.5386  0.3347
 1685DOPS   C3B19773  15.117  16.238  11.939  0.0704  0.0904  0.3087
 1685DOPS   C4B19774  15.038  16.607  11.623  0.1559  0.0164  0.2404
 1686DOPC   NC319775  19.085  14.428  12.604 -0.0496  0.1112  0.1575
 1686DOPC   PO419776  18.780  14.319  12.764  0.0723 -0.1433 -0.0759
 1686DOPC   GL119777  18.684  14.038  12.486 -0.2894 -0.1121  0.0774
 1686DOPC   GL219778  18.710  14.250  12.274 -0.0678 -0.1924  0.0189
 1686DOPC   C1A19779  18.625  13.786  12.104  0.0618  0.0495  0.0190
 1686DOPC   D2A19780  18.242  13.452  12.072 -0.1040 -0.0150 -0.0212
 1686DOPC   C3A19781  18.428  13.040  12.003 -0.3656  0.0011  0.3658
 1686DOPC   C4A19782  18.707  12.715  12.073 -0.0375 -0.1337  0.1085
 1686DOPC   C1B19783  18.294  14.110  12.268 -0.0591 -0.3629 -0.1508
 1686DOPC   D2B19784  17.926  13.920  12.081 -0.1455  0.0096 -0.4230
 1686DOPC   C3B19785  18.105  13.925  11.692 -0.1681 -0.5377 -0.2125
 1686DOPC   C4B19786  18.286  13.811  11.300 -0.1583 -0.1377  0.0509
 1687DOPS   CNO19787  18.674  18.246  13.693 -0.2320 -0.0438  0.2585
 1687DOPS   PO419788  18.831  17.946  13.463 -0.1245 -0.0944 -0.1069
 1687DOPS   GL119789  18.961  17.969  13.029 -0.0894  0.2078 -0.2574
 1687DOPS   GL219790  18.837  18.219  12.920 -0.2682  0.1531  0.1065
 1687DOPS   C1A19791  19.181  18.018  12.600  0.2987  0.1760  0.2659
 1687DOPS   D2A19792  19.260  17.839  12.197 -0.5349  0.0704 -0.1467
 1687DOPS   C3A19793  19.658  17.730  11.898  0.0719  0.3037 -0.1321
 1687DOPS   C4A19794  19.601  17.771  11.410  0.0019 -0.2587 -0.0504
 1687DOPS   C1B19795  18.898  18.443  12.526 -0.1835  0.1781  0.1385
 1687DOPS   D2B19796  19.020  18.242  12.081 -0.0660  0.1246 -0.3208
 1687DOPS   C3B19797  18.757  18.572  11.868 -0.0415  0.1461 -0.1044
 1687DOPS   C4B19798  18.510  18.610  11.512  0.0072  0.0397 -0.0722
 1688POSM   NC319799  24.581  14.098  13.900  0.1986 -0.0195  0.1261
 1688POSM   PO419800  24.256  13.995  13.651 -0.2586  0.0696  0.0749
 1688POSM   AM119801  24.373  13.785  13.361 -0.2470 -0.0451 -0.2306
 1688POSM   AM219802  24.382  13.513  13.355  0.2155 -0.1803  0.1184
 1688POSM   T1A19803  24.779  13.823  13.095  0.1976 -0.1456 -0.2572
 1688POSM   C2A19804  25.213  13.793  12.908 -0.2819 -0.0423 -0.0080
 1688POSM   C3A19805  25.456  13.411  12.769  0.0635  0.0893 -0.1986
 1688POSM   C1B19806  24.558  13.322  13.089  0.0474 -0.3472  0.1478
 1688POSM   D2B19807  24.791  12.926  12.896 -0.0186 -0.1034  0.4338
 1688POSM   C3B19808  25.158  13.037  12.532 -0.1168 -0.2034  0.1250
 1688POSM   C4B19809  25.450  12.945  12.195  0.3039 -0.2425  0.1010
 1689DOPS   CNO19810  12.607  17.545  13.815 -0.0894 -0.1094 -0.2973
 1689DOPS   PO419811  12.885  17.786  13.719  0.0342 -0.2783  0.3655
 1689DOPS   GL119812  12.960  17.911  13.378  0.1626 -0.2468 -0.0296
 1689DOPS   GL219813  13.114  18.159  13.478 -0.2725 -0.1120  0.2183
 1689DOPS   C1A19814  12.551  18.032  13.201  0.1117 -0.2671 -0.0035
 1689DOPS   D2A19815  12.201  17.923  12.942  0.0759 -0.0227  0.1854
 1689DOPS   C3A19816  12.467  17.715  12.594  0.2494 -0.0926 -0.0084
 1689DOPS   C4A19817  12.470  17.237  12.493 -0.4271  0.1488  0.0501
 1689DOPS   C1B19818  13.162  18.220  13.027 -0.1503 -0.0316 -0.1256
 1689DOPS   D2B19819  13.070  18.302  12.606  0.0061  0.3343 -0.0710
 1689DOPS   C3B19820  13.469  18.219  12.360  0.2115 -0.2080 -0.0348
 1689DOPS   C4B19821  13.927  18.270  12.462  0.0674  0.1792  0.2418
 1690DOPS   CNO19822  11.415  12.263  15.089  0.1775  0.1310 -0.0433
 1690DOPS   PO419823  11.529  11.917  15.197 -0.3759  0.0696  0.1009
 1690DOPS   GL119824  11.538  11.891  14.780  0.2704  0.2539  0.0413
 1690DOPS   GL219825  11.555  12.174  14.633 -0.2430  0.0017 -0.1635
 1690DOPS   C1A19826  11.553  11.519  14.570 -0.1020  0.1471 -0.2229
 1690DOPS   D2A19827  11.321  11.409  14.228 -0.1095  0.0976 -0.1643
 1690DOPS   C3A19828  11.405  11.365  13.752 -0.0115  0.0128 -0.3245
 1690DOPS   C4A19829  11.686  11.348  13.442 -0.1426 -0.2504  0.2228
 1690DOPS   C1B19830  11.216  12.052  14.354 -0.0557 -0.2160 -0.0185
 1690DOPS   D2B19831  11.168  12.090  13.840  0.0303  0.4183  0.2196
 1690DOPS   C3B19832  10.780  12.207  13.615  0.0114  0.0152  0.0141
 1690DOPS   C4B19833  10.458  12.160  13.266 -0.0568 -0.0339  0.0205
 1691DOPE   NH319834  13.652  15.153  14.115 -0.1206  0.0250  0.0030
 1691DOPE   PO419835  13.927  15.303  14.090 -0.1752 -0.1691 -0.0467
 1691DOPE   GL119836  13.936  15.162  13.683 -0.0735 -0.0123 -0.1031
 1691DOPE   GL219837  13.710  15.322  13.573  0.0494  0.0179 -0.0861
 1691DOPE   C1A19838  14.059  14.850  13.380  0.1315 -0.1113 -0.2256
 1691DOPE   D2A19839  14.234  14.623  13.017  0.2061  0.0943  0.0095
 1691DOPE   C3A19840  14.088  14.204  12.832 -0.1887  0.2351 -0.1451
 1691DOPE   C4A19841  14.010  13.817  12.511  0.0020 -0.0772 -0.3970
 1691DOPE   C1B19842  13.625  15.014  13.260  0.2014 -0.2430 -0.2275
 1691DOPE   D2B19843  13.737  14.642  12.988  0.0966 -0.3655 -0.4077
 1691DOPE   C3B19844  13.976  14.597  12.579  0.1396 -0.0820 -0.0890
 1691DOPE   C4B19845  14.093  14.264  12.323  0.2197  0.1228  0.0679
 1692DOPE   NH319846  21.062  11.487  14.229 -0.3640 -0.1450  0.0241
 1692DOPE   PO419847  21.257  11.424  13.945  0.2170 -0.2848 -0.1828
 1692DOPE   GL119848  21.002  11.536  13.681 -0.0397  0.3694  0.0610
 1692DOPE   GL219849  21.183  11.736  13.562 -0.2016 -0.1234 -0.1320
 1692DOPE   C1A19850  20.971  11.372  13.217 -0.0837  0.1040  0.3314
 1692DOPE   D2A19851  21.250  11.169  12.947  0.1884 -0.0978 -0.2877
 1692DOPE   C3A19852  21.126  11.158  12.512 -0.2774 -0.1741  0.0144
 1692DOPE   C4A19853  20.921  11.521  12.278  0.2850 -0.0272 -0.2283
 1692DOPE   C1B19854  21.254  11.806  13.111  0.2335 -0.1355 -0.1370
 1692DOPE   D2B19855  21.034  11.656  12.795  0.1190 -0.0178 -0.2216
 1692DOPE   C3B19856  21.314  11.923  12.584 -0.3439 -0.2488  0.1611
 1692DOPE   C4B19857  21.280  12.106  12.174  0.2465 -0.0460  0.5374
 1693DOPE   NH319858  18.197  18.768  13.243  0.2806  0.4280  0.1216
 1693DOPE   PO419859  18.102  18.692  12.927 -0.0967 -0.1112 -0.0482
 1693DOPE   GL119860  18.095  18.847  12.523  0.0842  0.1019 -0.1194
 1693DOPE   GL219861  18.085  18.528  12.368 -0.2494 -0.2661  0.2293
 1693DOPE   C1A19862  18.453  18.895  12.294  0.1783  0.0008 -0.0494
 1693DOPE   D2A19863  18.685  19.040  11.926  0.2188 -0.3717 -0.0974
 1693DOPE   C3A19864  18.968  19.364  12.093  0.0798 -0.2534 -0.1766
 1693DOPE   C4A19865  19.279  19.598  12.308  0.3096 -0.2530 -0.0556
 1693DOPE   C1B19866  18.161  18.662  11.978 -0.2125 -0.3577 -0.0456
 1693DOPE   D2B19867  18.144  19.025  11.793 -0.0595  0.0008  0.7436
 1693DOPE   C3B19868  17.829  19.313  11.507  0.1874  0.1342  0.1457
 1693DOPE   C4B19869  17.413  19.483  11.310 -0.1427  0.0949 -0.2185
 1694DOPC   NC319870  15.035  18.687  13.617 -0.4332  0.2116 -0.0220
 1694DOPC   PO419871  15.284  18.728  13.265 -0.0486  0.1726  0.0735
 1694DOPC   GL119872  15.336  18.696  12.875 -0.0504  0.1845  0.0995
 1694DOPC   GL219873  15.065  18.675  12.806 -0.0405  0.1013 -0.4169
 1694DOPC   C1A19874  15.423  18.757  12.431  0.0533 -0.0193  0.2588
 1694DOPC   D2A19875  15.204  18.833  12.034 -0.0832  0.2048 -0.1318
 1694DOPC   C3A19876  15.309  18.430  11.704 -0.1300 -0.2172 -0.2147
 1694DOPC   C4A19877  15.194  18.479  11.290  0.2530  0.3339  0.0610
 1694DOPC   C1B19878  14.929  18.896  12.442 -0.2134 -0.1824 -0.0413
 1694DOPC   D2B19879  14.995  19.266  12.193  0.3232 -0.2614  0.0054
 1694DOPC   C3B19880  14.879  19.322  11.796  0.0010 -0.2505 -0.2987
 1694DOPC   C4B19881  15.091  19.316  11.375  0.1584  0.0290  0.1600
 1695DOPC   NC319882  21.082  14.862  13.473 -0.0078 -0.0266 -0.0467
 1695DOPC   PO419883  21.202  14.890  13.095 -0.0273  0.2732  0.0434
 1695DOPC   GL119884  21.222  15.012  12.752 -0.0435  0.1947  0.3104
 1695DOPC   GL219885  21.350  15.327  12.814  0.1054  0.2139  0.2422
 1695DOPC   C1A19886  21.124  15.216  12.371  0.1967  0.2878 -0.0160
 1695DOPC   D2A19887  20.857  15.180  12.009  0.2823 -0.2254 -0.0812
 1695DOPC   C3A19888  21.117  15.195  11.606 -0.0490 -0.1319  0.1850
 1695DOPC   C4A19889  21.323  14.807  11.612  0.1866 -0.0867 -0.0673
 1695DOPC   C1B19890  21.685  15.329  12.498  0.5593  0.2304  0.2556
 1695DOPC   D2B19891  21.972  15.011  12.422  0.3571 -0.3140 -0.3237
 1695DOPC   C3B19892  21.981  14.842  11.977 -0.0322  0.1863 -0.0229
 1695DOPC   C4B19893  21.853  14.635  11.657 -0.1864  0.2791  0.0090
 1696POSM   NC319894  13.293  15.086  14.498 -0.0457  0.1099  0.0448
 1696POSM   PO419895  13.152  15.442  14.610  0.1385 -0.1760  0.2829
 1696POSM   AM119896  12.923  15.392  14.395 -0.4191  0.2450 -0.1756
 1696POSM   AM219897  12.769  15.412  14.149  0.0307  0.0002  0.0202
 1696POSM   T1A19898  12.385  15.326  14.470 -0.0926  0.1500 -0.1888
 1696POSM   C2A19899  12.026  15.372  14.173  0.1998 -0.1857  0.2991
 1696POSM   C3A19900  11.728  15.582  13.907 -0.1453  0.3350  0.0710
 1696POSM   C1B19901  13.045  15.393  13.935  0.2374 -0.1011  0.2353
 1696POSM   D2B19902  13.069  15.227  13.519 -0.0099  0.1493 -0.0468
 1696POSM   C3B19903  12.908  14.899  13.286  0.4982  0.0371  0.1225
 1696POSM   C4B19904  12.618  14.979  12.932  0.0964  0.3635 -0.1224
 1697POSM   NC319905  14.091  20.221  14.019 -0.0835  0.0898  0.5064
 1697POSM   PO419906  14.284  20.600  13.987  0.0027  0.1255 -0.2746
 1697POSM   AM119907  14.102  20.781  13.823 -0.2419 -0.2679 -0.1489
 1697POSM   AM219908  14.087  20.794  13.513 -0.2644  0.1172  0.0460
 1697POSM   T1A19909  13.725  21.072  13.565 -0.1908 -0.0292 -0.0397
 1697POSM   C2A19910  13.382  21.205  13.268  0.1356 -0.1543 -0.1943
 1697POSM   C3A19911  13.432  20.982  12.895  0.2900 -0.1974  0.0633
 1697POSM   C1B19912  14.169  20.981  13.265  0.0974 -0.0681  0.2585
 1697POSM   D2B19913  14.378  21.384  13.165  0.2817 -0.2261 -0.0358
 1697POSM   C3B19914  14.263  21.493  12.734  0.1689 -0.0891 -0.4073
 1697POSM   C4B19915  14.042  21.482  12.353 -0.0741  0.0956  0.1297
 1698DOPE   NH319916  13.628  13.242  14.780  0.1177 -0.1939  0.1633
 1698DOPE   PO419917  13.593  12.932  14.897  0.0829 -0.0951 -0.0733
 1698DOPE   GL119918  13.295  12.927  14.665 -0.5205  0.1622  0.2427
 1698DOPE   GL219919  13.046  12.763  14.631  0.2202 -0.2637  0.2312
 1698DOPE   C1A19920  13.080  13.210  14.345  0.0481  0.0799 -0.1168
 1698DOPE   D2A19921  12.752  13.349  14.066 -0.0212 -0.2397 -0.0670
 1698DOPE   C3A19922  12.615  13.791  13.976  0.2204 -0.1536 -0.0447
 1698DOPE   C4A19923  12.621  14.282  13.990  0.0844 -0.1893  0.0632
 1698DOPE   C1B19924  13.302  12.714  14.281 -0.0603  0.0298  0.2610
 1698DOPE   D2B19925  13.362  12.914  13.833  0.1938 -0.0230 -0.0564
 1698DOPE   C3B19926  13.038  13.185  13.651  0.1908 -0.2994 -0.2802
 1698DOPE   C4B19927  12.660  13.406  13.578 -0.2339 -0.0413 -0.0298
 1699DOPE   NH319928  11.085  11.905  14.957 -0.2654  0.0465  0.5104
 1699DOPE   PO419929  10.880  11.716  14.980  0.1130  0.1896 -0.2047
 1699DOPE   GL119930  11.062  11.652  14.595  0.2243  0.4884  0.1618
 1699DOPE   GL219931  11.019  11.341  14.669 -0.0454 -0.1516 -0.1938
 1699DOPE   C1A19932  10.781  11.731  14.256 -0.2426  0.2898  0.0228
 1699DOPE   D2A19933  10.920  11.652  13.855  0.0786  0.1136 -0.2649
 1699DOPE   C3A19934  10.878  11.706  13.354 -0.0935  0.0693  0.3463
 1699DOPE   C4A19935  11.074  11.811  12.921 -0.1180 -0.0822  0.3892
 1699DOPE   C1B19936  10.819  11.223  14.295 -0.1167 -0.1844 -0.1512
 1699DOPE   D2B19937  10.905  10.828  14.083 -0.2793  0.2554  0.1941
 1699DOPE   C3B19938  10.943  10.609  13.660  0.1069 -0.0910  0.0413
 1699DOPE   C4B19939  10.986  10.587  13.204 -0.1861 -0.2193 -0.2074
 1700DOPE   NH319940  15.172  22.227  13.823  0.0960 -0.5020  0.0835
 1700DOPE   PO419941  15.081  21.950  13.946  0.2975  0.0355  0.3082
 1700DOPE   GL119942  15.151  21.832  13.573  0.0190  0.3089  0.0431
 1700DOPE   GL219943  15.182  22.010  13.392 -0.1117  0.0311 -0.0711
 1700DOPE   C1A19944  14.758  21.731  13.325  0.0699  0.2564  0.1016
 1700DOPE   D2A19945  14.537  21.868  12.965 -0.1288 -0.2864  0.0567
 1700DOPE   C3A19946  14.697  21.757  12.476 -0.1753  0.5319  0.2179
 1700DOPE   C4A19947  14.546  21.534  12.101 -0.2440 -0.2808 -0.3081
 1700DOPE   C1B19948  15.034  21.888  12.908  0.1000  0.1244  0.0674
 1700DOPE   D2B19949  15.226  21.486  12.726  0.2040  0.0242 -0.0836
 1700DOPE   C3B19950  15.536  21.518  12.410 -0.2740  0.5629 -0.3287
 1700DOPE   C4B19951  15.826  21.543  12.004 -0.0886  0.2542 -0.1713
 1701DOPC   NC319952  11.985  12.179  15.000 -0.0055 -0.0808  0.1539
 1701DOPC   PO419953  12.390  12.189  14.943 -0.1112 -0.3408  0.1263
 1701DOPC   GL119954  12.311  12.033  14.518  0.1244  0.0215 -0.1885
 1701DOPC   GL219955  12.525  11.924  14.364  0.4447 -0.0356 -0.0312
 1701DOPC   C1A19956  11.924  12.094  14.304  0.0977 -0.0158 -0.1016
 1701DOPC   D2A19957  11.609  11.821  14.185  0.2755  0.1971 -0.1524
 1701DOPC   C3A19958  11.615  11.838  13.729 -0.3740  0.2260  0.0373
 1701DOPC   C4A19959  11.383  11.901  13.340 -0.0242 -0.1819  0.0765
 1701DOPC   C1B19960  12.775  12.067  13.979  0.0496 -0.2543  0.0602
 1701DOPC   D2B19961  12.676  12.267  13.568  0.2040  0.0873  0.2297
 1701DOPC   C3B19962  12.287  12.036  13.469 -0.0013  0.1992  0.0185
 1701DOPC   C4B19963  12.061  11.652  13.603 -0.1033  0.0643 -0.0674
 1702DOPC   NC319964   9.797  15.449  14.276 -0.0474  0.0980 -0.1527
 1702DOPC   PO419965   9.774  15.777  14.368  0.2070 -0.1271  0.1469
 1702DOPC   GL119966  10.127  15.798  14.130  0.1450  0.1312 -0.1643
 1702DOPC   GL219967  10.001  15.826  13.869 -0.0966 -0.3176 -0.1382
 1702DOPC   C1A19968  10.567  15.698  13.903 -0.1601  0.0164  0.0766
 1702DOPC   D2A19969  10.749  15.618  13.509 -0.0252 -0.0063 -0.0554
 1702DOPC   C3A19970  10.715  15.183  13.370 -0.1578  0.1291  0.1265
 1702DOPC   C4A19971  10.652  14.749  13.367  0.0851  0.3687 -0.2969
 1702DOPC   C1B19972   9.909  15.720  13.398  0.0473  0.0156 -0.0037
 1702DOPC   D2B19973   9.837  15.808  12.952 -0.1764 -0.1514 -0.0604
 1702DOPC   C3B19974  10.093  15.690  12.597 -0.0314  0.2505  0.0344
 1702DOPC   C4B19975  10.205  15.647  12.144  0.2318 -0.0851  0.0986
 1703POSM   NC319976  17.272  13.184  13.632 -0.1211 -0.1728  0.3726
 1703POSM   PO419977  17.069  13.524  13.575  0.3350  0.2048  0.0296
 1703POSM   AM119978  16.930  13.565  13.280 -0.1165  0.1179  0.0523
 1703POSM   AM219979  16.758  13.754  13.174  0.0577  0.0533 -0.2374
 1703POSM   T1A19980  17.076  13.384  12.829  0.2187 -0.2390  0.1181
 1703POSM   C2A19981  17.005  13.288  12.318  0.0494  0.1618  0.1588
 1703POSM   C3A19982  16.598  13.421  12.117  0.2364  0.1742  0.2545
 1703POSM   C1B19983  16.501  13.595  13.052 -0.0465  0.1082 -0.2162
 1703POSM   D2B19984  16.223  13.352  12.817  0.0637  0.1931 -0.2506
 1703POSM   C3B19985  16.213  13.253  12.368 -0.2968  0.2261 -0.1423
 1703POSM   C4B19986  16.052  13.459  12.012  0.0570 -0.2358  0.2317
 1704DOPC   NC319987  11.118  22.228  13.697 -0.1848  0.1468  0.3002
 1704DOPC   PO419988  11.459  22.023  13.718  0.1006  0.1865  0.2765
 1704DOPC   GL119989  11.378  22.328  13.369 -0.1726  0.2695  0.1248
 1704DOPC   GL219990  11.278  22.516  13.315  0.0947 -0.1247 -0.0309
 1704DOPC   C1A19991  11.276  22.076  12.980 -0.2852  0.0736  0.0425
 1704DOPC   D2A19992  11.369  21.885  12.556  0.2034  0.2374 -0.1114
 1704DOPC   C3A19993  11.165  21.712  12.171 -0.3838  0.0843  0.0750
 1704DOPC   C4A19994  10.993  21.852  11.733 -0.1193 -0.0652  0.1228
 1704DOPC   C1B19995  11.250  22.525  12.833  0.0335  0.0132  0.0587
 1704DOPC   D2B19996  11.322  22.683  12.414 -0.0884 -0.1135 -0.3255
 1704DOPC   C3B19997  11.502  22.589  12.047 -0.0929  0.1305  0.1001
 1704DOPC   C4B19998  11.860  22.866  11.932  0.1350 -0.1529  0.0596
 1705DOPE   NH319999  21.313  13.639  13.158  0.0275 -0.0014  0.0857
 1705DOPE   PO420000  21.575  13.845  13.073  0.0905  0.1285 -0.0189
 1705DOPE   GL120001  21.772  13.826  12.840 -0.0804  0.1517 -0.0102
 1705DOPE   GL220002  21.537  13.798  12.591 -0.1976  0.0122 -0.0491
 1705DOPE   C1A20003  22.024  13.597  12.512 -0.3101  0.2458  0.0074
 1705DOPE   D2A20004  22.014  13.392  12.031 -0.2823  0.1154  0.0654
 1705DOPE   C3A20005  21.919  13.580  11.616 -0.1258  0.0428 -0.0982
 1705DOPE   C4A20006  22.195  13.572  11.227 -0.0456  0.3089 -0.3738
 1705DOPE   C1B20007  21.332  13.788  12.198 -0.0473 -0.0989  0.1418
 1705DOPE   D2B20008  21.035  14.029  11.931 -0.1124  0.0105  0.1110
 1705DOPE   C3B20009  21.344  14.319  11.877  0.0962  0.0708 -0.3932
 1705DOPE   C4B20010  21.661  14.429  12.121 -0.0433 -0.0975  0.1575
 1706DOPC   NC320011  13.933  17.980  13.752  0.1956 -0.0293  0.0385
 1706DOPC   PO420012  13.961  17.667  13.446 -0.0720 -0.4800 -0.1025
 1706DOPC   GL120013  13.874  17.687  13.070  0.0243  0.1337 -0.1553
 1706DOPC   GL220014  14.058  17.925  12.956 -0.0437  0.1764  0.0367
 1706DOPC   C1A20015  13.642  17.967  12.762 -0.1022 -0.0853 -0.2524
 1706DOPC   D2A20016  13.617  18.403  12.876  0.1010 -0.1728  0.3945
 1706DOPC   C3A20017  13.877  18.750  12.712 -0.1148 -0.0195  0.2196
 1706DOPC   C4A20018  14.058  19.190  12.823  0.0853  0.2986 -0.1521
 1706DOPC   C1B20019  14.014  17.710  12.490 -0.1720 -0.1009 -0.1775
 1706DOPC   D2B20020  13.653  17.426  12.210  0.0362 -0.2006 -0.3223
 1706DOPC   C3B20021  13.361  17.076  12.268 -0.1724 -0.1191  0.0457
 1706DOPC   C4B20022  13.402  16.705  12.502  0.0743  0.0760  0.0944
 1707DOPE   NH320023  10.551  18.499  13.830  0.0841  0.1853 -0.4682
 1707DOPE   PO420024  10.726  18.344  14.021  0.3015  0.1553  0.2421
 1707DOPE   GL120025  11.025  18.414  13.689  0.2842  0.0052 -0.1373
 1707DOPE   GL220026  10.916  18.569  13.441 -0.1174  0.1999  0.2306
 1707DOPE   C1A20027  11.330  18.155  13.413 -0.0890 -0.0263  0.0297
 1707DOPE   D2A20028  11.591  18.309  13.084  0.0660  0.0779 -0.2950
 1707DOPE   C3A20029  11.774  18.029  12.734  0.1977  0.0337  0.2024
 1707DOPE   C4A20030  12.017  17.801  12.450 -0.1583  0.1423  0.1553
 1707DOPE   C1B20031  10.914  18.962  13.164 -0.1897 -0.0168  0.0183
 1707DOPE   D2B20032  11.042  19.145  12.778 -0.2923  0.0931  0.1330
 1707DOPE   C3B20033  11.468  19.261  12.628 -0.0738  0.1097 -0.2031
 1707DOPE   C4B20034  11.857  19.462  12.489  0.2388 -0.1197  0.1730
 1708DOPE   NH320035  22.429  15.398  13.190  0.2862 -0.1509 -0.1109
 1708DOPE   PO420036  22.315  15.704  13.148 -0.0991  0.1635 -0.1783
 1708DOPE   GL120037  22.290  15.785  12.763  0.0969  0.0491 -0.2135
 1708DOPE   GL220038  22.563  15.714  12.729  0.0531  0.0069  0.1858
 1708DOPE   C1A20039  22.106  15.596  12.412 -0.0161  0.0357 -0.0389
 1708DOPE   D2A20040  21.980  15.374  12.064  0.2135 -0.0085 -0.1722
 1708DOPE   C3A20041  22.259  15.238  11.709 -0.0676 -0.2022  0.1504
 1708DOPE   C4A20042  22.501  15.309  11.327  0.2071 -0.1070 -0.1868
 1708DOPE   C1B20043  22.597  15.663  12.336 -0.2087  0.2067  0.2862
 1708DOPE   D2B20044  22.355  15.689  11.930 -0.0076 -0.0651 -0.2518
 1708DOPE   C3B20045  22.285  16.112  11.775 -0.2768  0.2351  0.0678
 1708DOPE   C4B20046  22.304  16.359  11.396  0.0098  0.0139 -0.0343
 1709DOPC   NC320047   9.610  17.378  13.774 -0.0308 -0.0858 -0.0086
 1709DOPC   PO420048   9.453  17.078  13.780 -0.1055  0.0908 -0.0612
 1709DOPC   GL120049   9.456  17.157  13.354 -0.4859  0.3434  0.3002
 1709DOPC   GL220050   9.564  17.072  13.089  0.1657  0.0355  0.0904
 1709DOPC   C1A20051   9.658  17.592  13.173 -0.0828 -0.0179 -0.1135
 1709DOPC   D2A20052   9.728  17.893  12.814 -0.1319 -0.0530  0.0549
 1709DOPC   C3A20053  10.127  18.092  12.750 -0.1030  0.1895  0.1923
 1709DOPC   C4A20054  10.633  18.202  12.792  0.1621  0.1383 -0.1627
 1709DOPC   C1B20055   9.301  16.849  12.845  0.2077  0.0651  0.2080
 1709DOPC   D2B20056   9.001  16.636  12.552 -0.0145  0.1332 -0.1450
 1709DOPC   C3B20057   8.919  16.188  12.506  0.1709 -0.1335  0.1314
 1709DOPC   C4B20058   8.820  15.778  12.556 -0.1957 -0.1228  0.1056
 1710DOPC   NC320059  13.484  14.271  14.231  0.1233  0.2240 -0.2458
 1710DOPC   PO420060  13.633  14.604  14.207 -0.0388 -0.1713 -0.1814
 1710DOPC   GL120061  13.601  14.579  13.883  0.0111 -0.4397  0.0690
 1710DOPC   GL220062  13.508  14.827  13.751  0.3613  0.2630  0.1550
 1710DOPC   C1A20063  13.755  14.428  13.497 -0.3442  0.0903 -0.0778
 1710DOPC   D2A20064  14.105  14.117  13.378  0.2972 -0.0376  0.1978
 1710DOPC   C3A20065  14.009  13.780  13.086  0.4346 -0.0023  0.1814
 1710DOPC   C4A20066  13.833  13.356  13.151  0.3334 -0.0490  0.1876
 1710DOPC   C1B20067  13.294  14.611  13.485  0.0595 -0.1256  0.1321
 1710DOPC   D2B20068  13.221  14.613  13.072 -0.1070  0.0878  0.0838
 1710DOPC   C3B20069  13.231  15.074  12.957 -0.0084 -0.0964  0.1119
 1710DOPC   C4B20070  13.229  15.189  12.545  0.1454 -0.0975 -0.1871
 1711DOPC   NC320071  22.585  19.961  13.818  0.1224 -0.1536  0.4102
 1711DOPC   PO420072  22.578  19.660  13.569  0.2101  0.2176  0.1463
 1711DOPC   GL120073  22.449  20.046  13.381 -0.1049 -0.1094 -0.2996
 1711DOPC   GL220074  22.634  19.945  13.142 -0.1046  0.0828 -0.2754
 1711DOPC   C1A20075  22.310  20.234  12.953 -0.1642  0.2490 -0.3060
 1711DOPC   D2A20076  22.328  20.414  12.505  0.4044  0.0678  0.2042
 1711DOPC   C3A20077  22.755  20.362  12.307 -0.0888 -0.0734  0.1501
 1711DOPC   C4A20078  22.996  20.308  11.953  0.0235  0.1288 -0.1123
 1711DOPC   C1B20079  22.839  19.990  12.730  0.0646  0.2425 -0.0179
 1711DOPC   D2B20080  22.816  19.840  12.254  0.0444 -0.0727 -0.1620
 1711DOPC   C3B20081  23.075  19.566  11.991 -0.2641 -0.3995  0.0516
 1711DOPC   C4B20082  23.534  19.585  11.851 -0.1153  0.1574 -0.0192
 1712DOPC   NC320083  12.138  12.658  15.080 -0.1182 -0.5454 -0.0168
 1712DOPC   PO420084  11.749  12.601  15.178  0.0610 -0.0859 -0.2282
 1712DOPC   GL120085  11.708  12.595  14.761 -0.1052  0.2037 -0.3783
 1712DOPC   GL220086  11.983  12.502  14.622 -0.0393  0.2371  0.4277
 1712DOPC   C1A20087  11.491  12.616  14.301  0.0966 -0.0012  0.1053
 1712DOPC   D2A20088  11.575  12.315  13.992 -0.0916 -0.0522 -0.0860
 1712DOPC   C3A20089  11.808  12.259  13.658  0.0611 -0.0768  0.1375
 1712DOPC   C4A20090  11.853  12.034  13.278 -0.0217  0.0679 -0.0151
 1712DOPC   C1B20091  12.118  12.884  14.484 -0.2570 -0.2429  0.0396
 1712DOPC   D2B20092  12.299  13.280  14.366  0.3101 -0.0572  0.0791
 1712DOPC   C3B20093  12.286  13.363  13.896  0.0367  0.1545 -0.3048
 1712DOPC   C4B20094  12.228  13.082  13.560  0.4340 -0.0904  0.0738
 1713DOPC   NC320095  19.872  13.105  13.575 -0.1339  0.1001 -0.1434
 1713DOPC   PO420096  20.221  13.039  13.393 -0.1654 -0.1256 -0.4562
 1713DOPC   GL120097  20.086  13.080  12.998  0.1612 -0.1830  0.4507
 1713DOPC   GL220098  20.366  12.977  12.895 -0.3741  0.0481  0.0579
 1713DOPC   C1A20099  20.021  13.067  12.516 -0.1027 -0.0453 -0.0418
 1713DOPC   D2A20100  19.834  13.344  12.170 -0.1840 -0.1536  0.1947
 1713DOPC   C3A20101  19.850  13.460  11.701  0.2441 -0.2196  0.0987
 1713DOPC   C4A20102  19.812  13.224  11.341 -0.1352 -0.2267  0.0441
 1713DOPC   C1B20103  20.174  12.592  12.791 -0.0172 -0.2638 -0.1869
 1713DOPC   D2B20104  20.035  12.454  12.384 -0.0714  0.1400  0.0973
 1713DOPC   C3B20105  19.747  12.726  12.196 -0.0260  0.1871  0.1411
 1713DOPC   C4B20106  19.742  12.986  11.861  0.0189  0.2766  0.2227
 1714DOPE   NH320107  22.681  19.013  14.001 -0.0671 -0.1868 -0.0745
 1714DOPE   PO420108  22.619  19.077  13.714  0.1119 -0.1934  0.0224
 1714DOPE   GL120109  22.600  19.041  13.327  0.0283 -0.0168  0.1094
 1714DOPE   GL220110  22.678  18.777  13.131  0.0417 -0.1825  0.0215
 1714DOPE   C1A20111  22.525  19.153  12.879  0.1691  0.1789  0.2420
 1714DOPE   D2A20112  22.633  19.312  12.444  0.0982  0.2466  0.0379
 1714DOPE   C3A20113  22.355  19.173  12.079  0.0476  0.0648 -0.0694
 1714DOPE   C4A20114  22.123  18.855  11.871  0.0635  0.1742 -0.1330
 1714DOPE   C1B20115  22.964  18.588  12.809  0.2091  0.2491 -0.2451
 1714DOPE   D2B20116  23.147  18.527  12.359  0.1884 -0.0231  0.0764
 1714DOPE   C3B20117  23.264  18.161  12.029 -0.3815  0.0213  0.2907
 1714DOPE   C4B20118  23.336  17.714  11.945 -0.1391  0.0481  0.0150
 1715DOPE   NH320119  22.974  16.711  13.562  0.0658 -0.0645 -0.2539
 1715DOPE   PO420120  22.662  16.618  13.418 -0.0925 -0.2878 -0.1106
 1715DOPE   GL120121  22.582  16.883  13.097 -0.0682  0.3158 -0.3452
 1715DOPE   GL220122  22.693  16.779  12.897  0.0121  0.0396  0.1318
 1715DOPE   C1A20123  22.270  17.077  12.878 -0.2751  0.1183 -0.0666
 1715DOPE   D2A20124  22.038  17.034  12.509 -0.1444  0.1194  0.0762
 1715DOPE   C3A20125  22.185  16.927  12.046 -0.3216 -0.0989  0.2427
 1715DOPE   C4A20126  22.333  16.829  11.593 -0.2212 -0.1035 -0.1150
 1715DOPE   C1B20127  22.496  16.705  12.526 -0.2079 -0.1582 -0.0676
 1715DOPE   D2B20128  22.506  16.565  12.068 -0.2303  0.0097 -0.1434
 1715DOPE   C3B20129  22.685  16.951  11.928 -0.2867  0.3245  0.0941
 1715DOPE   C4B20130  22.980  17.309  11.873  0.2217  0.2534  0.1586
 1716POSM   NC320131  15.946  19.029  13.404 -0.3045 -0.0710  0.1234
 1716POSM   PO420132  15.681  19.028  13.167 -0.1623 -0.4000  0.2398
 1716POSM   AM120133  15.565  19.089  12.848  0.0355 -0.3915  0.2993
 1716POSM   AM220134  15.389  19.301  12.742  0.0210  0.0101 -0.1236
 1716POSM   T1A20135  15.872  19.104  12.427  0.0316  0.3778 -0.0959
 1716POSM   C2A20136  16.171  19.250  12.139  0.0168 -0.2107 -0.1151
 1716POSM   C3A20137  16.424  19.055  11.823 -0.2752  0.0027  0.2041
 1716POSM   C1B20138  15.615  19.516  12.584 -0.0652  0.1902 -0.0160
 1716POSM   D2B20139  15.810  19.571  12.166 -0.0225  0.1736 -0.2085
 1716POSM   C3B20140  15.718  19.123  11.987  0.0076 -0.2168  0.2531
 1716POSM   C4B20141  15.818  18.623  12.022 -0.2944  0.0034  0.2976
 1717DOPC   NC320142  18.684   9.875  14.130 -0.0385 -0.1234  0.0591
 1717DOPC   PO420143  18.857  10.184  13.960 -0.0226  0.2481 -0.0542
 1717DOPC   GL120144  18.945  10.001  13.637  0.1077 -0.2514  0.4155
 1717DOPC   GL220145  19.218   9.985  13.554  0.1368  0.0175  0.2299
 1717DOPC   C1A20146  18.795   9.916  13.214 -0.0243  0.0377  0.1452
 1717DOPC   D2A20147  18.501   9.756  12.927  0.1812  0.0887  0.0837
 1717DOPC   C3A20148  18.515   9.487  12.552 -0.2152  0.1038  0.2309
 1717DOPC   C4A20149  18.768   9.313  12.184 -0.3255  0.0896  0.1043
 1717DOPC   C1B20150  19.185  10.254  13.209  0.3715  0.1691  0.0854
 1717DOPC   D2B20151  19.400  10.302  12.787  0.0185  0.2463  0.1148
 1717DOPC   C3B20152  19.436   9.918  12.490  0.0362  0.1703  0.2474
 1717DOPC   C4B20153  19.363   9.608  12.107  0.1486  0.0339  0.1434
 1718POSM   NC320154  13.940  13.452  14.226  0.0331 -0.1299 -0.2675
 1718POSM   PO420155  13.758  13.628  14.519 -0.3136  0.2115  0.1315
 1718POSM   AM120156  13.578  13.716  14.273  0.1020  0.0388 -0.3087
 1718POSM   AM220157  13.533  13.726  13.993  0.1667  0.0051  0.1298
 1718POSM   T1A20158  13.137  13.918  14.195 -0.0663 -0.2380  0.0976
 1718POSM   C2A20159  12.811  13.846  14.442  0.1102  0.1245 -0.0588
 1718POSM   C3A20160  12.384  13.772  14.432 -0.0667  0.1027  0.2597
 1718POSM   C1B20161  13.427  13.413  13.866  0.0318  0.0427 -0.0120
 1718POSM   D2B20162  13.503  13.170  13.462 -0.2000  0.1928  0.1950
 1718POSM   C3B20163  13.552  12.739  13.421 -0.3997 -0.1661  0.2872
 1718POSM   C4B20164  13.296  12.439  13.139 -0.1189 -0.0017 -0.1868
 1719POSM   NC320165  12.237  22.046  14.157 -0.2746  0.1244  0.1238
 1719POSM   PO420166  12.428  21.945  13.873 -0.1967 -0.1749  0.2200
 1719POSM   AM120167  12.308  21.835  13.584 -0.0541 -0.1332  0.2277
 1719POSM   AM220168  12.175  21.911  13.349 -0.1543  0.0134  0.0749
 1719POSM   T1A20169  12.170  21.410  13.269  0.2050 -0.0666 -0.1980
 1719POSM   C2A20170  11.926  21.285  13.007  0.0173  0.0994 -0.1349
 1719POSM   C3A20171  11.578  21.140  12.759  0.3115  0.3387 -0.2325
 1719POSM   C1B20172  12.396  21.810  13.132  0.0886 -0.4240 -0.1416
 1719POSM   D2B20173  12.653  21.548  12.840  0.2435 -0.0771  0.0583
 1719POSM   C3B20174  13.084  21.601  12.711 -0.0483  0.1298  0.0169
 1719POSM   C4B20175  13.484  21.460  12.580  0.1010 -0.1201  0.2352
 1720DOPS   CNO20176  16.913  17.479  13.010 -0.2515 -0.0850 -0.0552
 1720DOPS   PO420177  16.694  17.462  12.698  0.1712 -0.0754 -0.2754
 1720DOPS   GL120178  16.975  17.736  12.398  0.0155  0.2484  0.1528
 1720DOPS   GL220179  16.711  17.821  12.222  0.0250 -0.0358  0.0284
 1720DOPS   C1A20180  17.192  17.717  12.012  0.0925 -0.1664  0.1278
 1720DOPS   D2A20181  17.376  17.373  11.751 -0.1670  0.0978  0.0163
 1720DOPS   C3A20182  17.333  16.853  11.654 -0.2807 -0.1037 -0.0655
 1720DOPS   C4A20183  17.473  16.496  11.406  0.2205 -0.0883 -0.0617
 1720DOPS   C1B20184  16.673  17.392  12.047  0.0454  0.1659 -0.1643
 1720DOPS   D2B20185  16.380  17.284  11.655  0.6243 -0.1178  0.3346
 1720DOPS   C3B20186  16.066  17.360  11.269  0.3058  0.1496 -0.0541
 1720DOPS   C4B20187  15.627  17.413  11.409 -0.0946  0.0879 -0.2900
 1721DOPC   NC320188  15.979  21.220  13.684  0.3373  0.1102 -0.1119
 1721DOPC   PO420189  16.329  21.058  13.681  0.1879  0.4619  0.1764
 1721DOPC   GL120190  16.505  21.279  13.359  0.0675  0.2034  0.2092
 1721DOPC   GL220191  16.318  21.391  13.164 -0.0964  0.4337 -0.1827
 1721DOPC   C1A20192  16.492  20.988  13.005 -0.0094  0.1171  0.2142
 1721DOPC   D2A20193  16.236  20.959  12.614  0.0388 -0.0859 -0.0573
 1721DOPC   C3A20194  16.531  20.973  12.285 -0.0200 -0.0064  0.3805
 1721DOPC   C4A20195  16.865  20.708  12.539  0.0235 -0.2280  0.0722
 1721DOPC   C1B20196  16.297  21.451  12.694 -0.3495  0.0898  0.0995
 1721DOPC   D2B20197  16.164  21.296  12.250  0.0625 -0.0048  0.0661
 1721DOPC   C3B20198  16.234  21.344  11.796  0.0553 -0.0139  0.0980
 1721DOPC   C4B20199  16.212  21.603  11.452  0.2314 -0.4605 -0.1913
 1722DOPE   NH320200  11.713  19.513  14.357  0.0514  0.1214 -0.2979
 1722DOPE   PO420201  11.971  19.359  14.382  0.0424 -0.0650  0.0040
 1722DOPE   GL120202  12.082  19.079  14.040  0.1147 -0.4419 -0.1739
 1722DOPE   GL220203  12.144  19.256  13.861 -0.2641  0.0565 -0.2254
 1722DOPE   C1A20204  12.166  18.673  13.750  0.1611 -0.1530  0.2493
 1722DOPE   D2A20205  12.500  18.386  13.589  0.0574  0.0253 -0.0653
 1722DOPE   C3A20206  12.811  18.523  13.297 -0.2241 -0.0065  0.0140
 1722DOPE   C4A20207  12.671  18.844  12.950 -0.2417 -0.1763  0.0690
 1722DOPE   C1B20208  11.963  19.098  13.459  0.0731  0.0778 -0.1183
 1722DOPE   D2B20209  11.736  19.085  13.062 -0.1443  0.0068  0.1634
 1722DOPE   C3B20210  11.894  19.019  12.686  0.0152 -0.1689  0.1995
 1722DOPE   C4B20211  12.237  18.794  12.498 -0.0688  0.1600  0.2228
 1723DOPE   NH320212  16.403  13.758  14.121 -0.2396  0.0488 -0.1199
 1723DOPE   PO420213  16.190  13.783  13.861  0.0455 -0.2498 -0.0836
 1723DOPE   GL120214  16.069  13.687  13.590  0.2973 -0.2449  0.2546
 1723DOPE   GL220215  15.822  13.422  13.592 -0.2093 -0.0025  0.0086
 1723DOPE   C1A20216  16.053  13.664  13.141 -0.0397  0.2718  0.0749
 1723DOPE   D2A20217  15.830  13.913  12.845  0.1629  0.2845 -0.0698
 1723DOPE   C3A20218  15.323  13.997  12.821  0.0703 -0.0019  0.1781
 1723DOPE   C4A20219  14.904  14.169  12.853 -0.0134 -0.0121  0.2883
 1723DOPE   C1B20220  15.619  13.010  13.633  0.0841 -0.2107 -0.0813
 1723DOPE   D2B20221  15.546  12.722  13.302  0.2165 -0.2559 -0.1874
 1723DOPE   C3B20222  15.866  12.564  12.980  0.1457  0.1368  0.1392
 1723DOPE   C4B20223  16.172  12.831  12.768 -0.2071 -0.4557 -0.0245
 1724DOPC   NC320224  17.337  15.458  12.756  0.3800  0.0259  0.1260
 1724DOPC   PO420225  17.717  15.487  12.725  0.2386 -0.4523 -0.2290
 1724DOPC   GL120226  17.513  15.571  12.328 -0.1903 -0.1194 -0.4123
 1724DOPC   GL220227  17.416  15.325  12.208 -0.0386  0.1285 -0.0114
 1724DOPC   C1A20228  17.499  15.951  12.080 -0.1611  0.2615  0.0156
 1724DOPC   D2A20229  17.251  16.265  11.823  0.3685  0.0853 -0.2732
 1724DOPC   C3A20230  17.105  16.188  11.357  0.0929 -0.1732 -0.1086
 1724DOPC   C4A20231  16.774  15.856  11.195 -0.2289  0.0550  0.1082
 1724DOPC   C1B20232  17.481  15.528  11.779 -0.0202 -0.0846 -0.0441
 1724DOPC   D2B20233  17.569  15.474  11.317 -0.1929 -0.2693 -0.1256
 1724DOPC   C3B20234  17.422  15.880  11.165 -0.1045 -0.2408  0.2422
 1724DOPC   C4B20235  17.110  16.071  10.907  0.1424 -0.0269  0.1437
 1725POSM   NC320236  17.220  16.663  12.199  0.1592  0.0981 -0.1659
 1725POSM   PO420237  17.458  16.829  12.458  0.0246  0.0659 -0.0627
 1725POSM   AM120238  17.558  16.935  12.152 -0.2792  0.2114 -0.3083
 1725POSM   AM220239  17.714  16.742  11.998 -0.1239  0.0947 -0.2964
 1725POSM   T1A20240  17.827  17.309  11.897  0.1125  0.0964  0.0153
 1725POSM   C2A20241  17.960  17.557  11.601 -0.4846 -0.0713  0.0027
 1725POSM   C3A20242  18.030  17.648  11.162  0.1038  0.1351 -0.1016
 1725POSM   C1B20243  17.856  16.788  11.708 -0.0593 -0.2678 -0.0744
 1725POSM   D2B20244  17.933  16.833  11.248  0.0388  0.1210  0.1199
 1725POSM   C3B20245  17.475  16.845  11.063 -0.0443 -0.0743 -0.2642
 1725POSM   C4B20246  17.095  16.572  11.001 -0.0980 -0.1443  0.2105
 1726POSM   NC320247  12.802  24.028  14.301 -0.2661 -0.0800 -0.1572
 1726POSM   PO420248  12.593  24.067  13.993 -0.2372 -0.0936  0.2574
 1726POSM   AM120249  12.542  23.981  13.681  0.0043  0.1213  0.4387
 1726POSM   AM220250  12.593  23.810  13.480 -0.2790 -0.4101 -0.1742
 1726POSM   T1A20251  12.719  24.195  13.221  0.0462  0.1381  0.3200
 1726POSM   C2A20252  12.882  24.261  12.752 -0.1848  0.0173 -0.0447
 1726POSM   C3A20253  12.836  24.630  12.454  0.0444  0.1124  0.1124
 1726POSM   C1B20254  12.441  23.612  13.243  0.0356  0.0144 -0.4332
 1726POSM   D2B20255  12.583  23.578  12.809 -0.0165  0.3140  0.2064
 1726POSM   C3B20256  12.738  23.823  12.475  0.2241 -0.0515 -0.0826
 1726POSM   C4B20257  12.732  24.102  12.069  0.1765  0.2236 -0.1290
 1727DOPC   NC320258  17.521  23.096  14.001 -0.1969  0.1431  0.2745
 1727DOPC   PO420259  17.873  23.037  13.937 -0.0389 -0.1093  0.1028
 1727DOPC   GL120260  18.065  22.964  13.587  0.1389 -0.0782 -0.1957
 1727DOPC   GL220261  18.012  23.222  13.401  0.2207  0.0769  0.1064
 1727DOPC   C1A20262  17.949  22.738  13.203 -0.3112  0.1582 -0.0460
 1727DOPC   D2A20263  17.834  22.397  12.817 -0.1141  0.0061 -0.0322
 1727DOPC   C3A20264  18.170  22.337  12.506 -0.1893 -0.1466 -0.0923
 1727DOPC   C4A20265  18.566  22.200  12.371  0.3071  0.1068 -0.0758
 1727DOPC   C1B20266  17.983  23.299  12.934 -0.0796 -0.1480  0.1359
 1727DOPC   D2B20267  18.126  23.325  12.520 -0.2515  0.0868 -0.0731
 1727DOPC   C3B20268  18.179  23.159  12.046  0.2287  0.1533 -0.1387
 1727DOPC   C4B20269  18.015  22.826  11.770 -0.1670 -0.0996 -0.0835
 1728DOPS   CNO20270  14.433  17.633  13.118  0.0057 -0.4014  0.0524
 1728DOPS   PO420271  14.708  17.884  13.135  0.3986 -0.2272  0.1379
 1728DOPS   GL120272  14.745  17.793  12.721  0.0673 -0.0977 -0.1427
 1728DOPS   GL220273  14.917  17.648  12.522 -0.0330 -0.0616  0.3096
 1728DOPS   C1A20274  14.475  17.803  12.348 -0.2471 -0.0252  0.0898
 1728DOPS   D2A20275  14.214  17.883  11.977  0.2903 -0.1139 -0.2858
 1728DOPS   C3A20276  13.771  17.850  12.034 -0.0527 -0.0633 -0.1275
 1728DOPS   C4A20277  13.352  18.018  11.835  0.1347 -0.2335 -0.2919
 1728DOPS   C1B20278  15.147  17.908  12.275 -0.0002 -0.3466 -0.2844
 1728DOPS   D2B20279  15.344  18.050  11.959  0.1429 -0.0892 -0.2220
 1728DOPS   C3B20280  15.773  18.102  11.861 -0.0939 -0.1165 -0.2401
 1728DOPS   C4B20281  16.070  18.433  11.653  0.1508  0.1160 -0.1475
 1729DOPE   NH320282  23.690  12.920  13.605  0.0659  0.0873  0.1073
 1729DOPE   PO420283  23.399  12.950  13.457 -0.1893 -0.1363 -0.0166
 1729DOPE   GL120284  23.659  12.967  13.052  0.4253  0.0949  0.1876
 1729DOPE   GL220285  23.393  12.897  13.001 -0.2256 -0.0148 -0.1217
 1729DOPE   C1A20286  23.869  12.849  12.689  0.1491  0.0050  0.1881
 1729DOPE   D2A20287  23.737  12.865  12.229  0.0239 -0.0503 -0.2731
 1729DOPE   C3A20288  23.792  13.134  11.881  0.3229  0.1035 -0.0036
 1729DOPE   C4A20289  23.857  13.471  11.602 -0.2129 -0.2632  0.0400
 1729DOPE   C1B20290  23.441  13.183  12.657  0.0482  0.2618 -0.1327
 1729DOPE   D2B20291  23.827  13.389  12.497 -0.0136  0.1090  0.2600
 1729DOPE   C3B20292  24.207  13.539  12.412  0.2487  0.0162  0.1050
 1729DOPE   C4B20293  24.490  13.784  12.716 -0.2034  0.1501 -0.3459
 1730DOPS   CNO20294  15.733  17.720  13.329  0.1631  0.1458 -0.0108
 1730DOPS   PO420295  15.710  17.524  13.003  0.1616  0.1407  0.0083
 1730DOPS   GL120296  15.801  17.484  12.599  0.2312 -0.1239  0.0574
 1730DOPS   GL220297  15.541  17.482  12.496 -0.1387  0.2331 -0.0602
 1730DOPS   C1A20298  15.851  17.776  12.252  0.1398 -0.0780 -0.0200
 1730DOPS   D2A20299  16.256  17.836  11.938  0.1105  0.0871 -0.1332
 1730DOPS   C3A20300  16.364  17.769  11.491 -0.0940  0.0039  0.0797
 1730DOPS   C4A20301  16.355  17.788  11.008 -0.2042 -0.2817 -0.2860
 1730DOPS   C1B20302  15.461  17.584  12.049 -0.0246  0.4769 -0.2071
 1730DOPS   D2B20303  15.107  17.586  11.726 -0.0429 -0.4277 -0.2983
 1730DOPS   C3B20304  14.979  17.170  11.631  0.1358 -0.0630 -0.4275
 1730DOPS   C4B20305  14.954  16.974  11.216 -0.1201  0.1147 -0.1558
 1731DOPS   CNO20306  13.486  11.970  15.216  0.2478  0.1610  0.0534
 1731DOPS   PO420307  13.759  12.087  14.980  0.0264 -0.1622 -0.2617
 1731DOPS   GL120308  13.382  11.994  14.599  0.0280  0.1603 -0.2270
 1731DOPS   GL220309  13.486  12.146  14.360 -0.2918 -0.2371  0.0962
 1731DOPS   C1A20310  13.081  11.727  14.336  0.1867 -0.3907 -0.1410
 1731DOPS   D2A20311  13.116  11.632  13.908  0.0578  0.0445  0.1146
 1731DOPS   C3A20312  12.927  11.289  13.726 -0.0589  0.0334  0.1108
 1731DOPS   C4A20313  12.938  11.051  13.322  0.2051 -0.0396 -0.1125
 1731DOPS   C1B20314  13.345  12.359  13.948  0.0695 -0.1151 -0.1241
 1731DOPS   D2B20315  13.138  12.474  13.569  0.0978 -0.1011  0.3194
 1731DOPS   C3B20316  13.147  12.029  13.519  0.1014  0.3081 -0.1556
 1731DOPS   C4B20317  13.178  11.564  13.416  0.0215 -0.3665  0.0524
 1732POSM   NC320318  14.776  16.587  13.816  0.2218 -0.2301 -0.0492
 1732POSM   PO420319  14.403  16.477  13.856  0.2032 -0.5297 -0.0305
 1732POSM   AM120320  14.163  16.475  13.626 -0.2742  0.0109  0.0983
 1732POSM   AM220321  13.889  16.542  13.505 -0.1322 -0.1900  0.1797
 1732POSM   T1A20322  14.302  16.247  13.233 -0.0536  0.0240  0.1601
 1732POSM   C2A20323  14.404  16.279  12.791 -0.0639 -0.0168  0.1758
 1732POSM   C3A20324  14.348  16.181  12.348  0.0903  0.1774 -0.1808
 1732POSM   C1B20325  13.686  16.308  13.416 -0.0399 -0.0152 -0.1046
 1732POSM   D2B20326  13.611  16.028  13.098  0.2099  0.0926 -0.1760
 1732POSM   C3B20327  13.427  16.029  12.664 -0.0664  0.0236 -0.1417
 1732POSM   C4B20328  13.152  16.153  12.364 -0.0809  0.1162  0.2665
 1733POSM   NC320329  17.164  17.911  13.108  0.2537  0.1196 -0.3183
 1733POSM   PO420330  17.403  18.175  12.928 -0.5002 -0.1020 -0.2481
 1733POSM   AM120331  17.351  18.394  12.633  0.2142 -0.2224 -0.0181
 1733POSM   AM220332  17.154  18.563  12.551 -0.1896  0.1482 -0.0379
 1733POSM   T1A20333  17.499  18.671  12.248 -0.0199  0.2396 -0.0402
 1733POSM   C2A20334  17.699  19.068  12.081 -0.2037 -0.1347 -0.0066
 1733POSM   C3A20335  18.060  19.417  12.100  0.5633 -0.2856 -0.0230
 1733POSM   C1B20336  16.931  18.606  12.244  0.2550 -0.1152 -0.0996
 1733POSM   D2B20337  16.576  18.479  12.006 -0.1378 -0.2234  0.0434
 1733POSM   C3B20338  16.591  18.245  11.657 -0.1310 -0.1313  0.0347
 1733POSM   C4B20339  16.838  17.878  11.594  0.1619 -0.0653  0.0246
 1734DOPC   NC320340  11.221  14.662  15.153  0.1553 -0.0143  0.4138
 1734DOPC   PO420341  11.406  14.411  14.954  0.0195  0.1212 -0.1842
 1734DOPC   GL120342  11.442  14.450  14.548  0.1436  0.0231 -0.2176
 1734DOPC   GL220343  11.359  14.258  14.453 -0.1666  0.0498  0.3407
 1734DOPC   C1A20344  11.507  14.768  14.193  0.1784 -0.0852  0.0890
 1734DOPC   D2A20345  11.835  14.945  13.866 -0.0371 -0.0330  0.0537
 1734DOPC   C3A20346  11.776  14.862  13.377 -0.1722  0.2638 -0.1850
 1734DOPC   C4A20347  11.826  14.576  13.063  0.0450  0.2706  0.0235
 1734DOPC   C1B20348  11.308  14.052  14.090  0.1200  0.0820  0.3472
 1734DOPC   D2B20349  11.121  13.882  13.720 -0.0913 -0.2283  0.4068
 1734DOPC   C3B20350  11.224  14.033  13.324  0.1961  0.0383  0.0265
 1734DOPC   C4B20351  11.356  14.149  12.880 -0.0391 -0.3538 -0.0929
 1735POSM   NC320352  16.725  22.644  14.072 -0.3206 -0.3653 -0.1411
 1735POSM   PO420353  16.836  22.259  14.024 -0.0916  0.2358  0.1110
 1735POSM   AM120354  16.770  22.252  13.718 -0.3089  0.0243  0.0644
 1735POSM   AM220355  16.659  22.466  13.571  0.1637 -0.1225 -0.0721
 1735POSM   T1A20356  16.840  22.153  13.250  0.0815  0.0280  0.2071
 1735POSM   C2A20357  16.632  22.318  12.875  0.0537 -0.1322 -0.3632
 1735POSM   C3A20358  16.675  22.486  12.451 -0.1029 -0.2804  0.0739
 1735POSM   C1B20359  16.463  22.524  13.286 -0.0837 -0.2713 -0.0851
 1735POSM   D2B20360  16.343  22.724  12.845  0.0421  0.0182 -0.0133
 1735POSM   C3B20361  16.658  23.034  12.651  0.1545  0.0885  0.1873
 1735POSM   C4B20362  16.720  23.205  12.206  0.1551 -0.2591  0.0331
 1736DOPC   NC320363  18.136  15.460  12.973  0.0224 -0.1821 -0.0385
 1736DOPC   PO420364  18.181  15.695  12.679 -0.0698  0.1697 -0.2124
 1736DOPC   GL120365  18.170  15.411  12.469 -0.1783 -0.4762  0.2295
 1736DOPC   GL220366  18.270  15.177  12.545 -0.0959  0.1541  0.2074
 1736DOPC   C1A20367  17.987  15.299  12.056 -0.2113  0.0088  0.0334
 1736DOPC   D2A20368  18.034  15.427  11.605 -0.0235 -0.0790  0.0863
 1736DOPC   C3A20369  18.013  15.637  11.240 -0.1457 -0.2498 -0.2671
 1736DOPC   C4A20370  17.808  15.694  10.817  0.1327  0.2393 -0.1640
 1736DOPC   C1B20371  18.464  15.188  12.119 -0.2246  0.3651  0.1402
 1736DOPC   D2B20372  18.734  15.405  11.786 -0.1807 -0.0656  0.2014
 1736DOPC   C3B20373  18.662  15.833  11.963 -0.0632  0.2743 -0.0384
 1736DOPC   C4B20374  18.417  16.247  11.822 -0.1557  0.0754 -0.1387
 1737POSM   NC320375  15.637  16.007  13.429  0.0923 -0.0127 -0.1260
 1737POSM   PO420376  15.866  16.127  13.132 -0.1012  0.0964 -0.2859
 1737POSM   AM120377  15.762  16.006  12.824  0.4068  0.1359 -0.6399
 1737POSM   AM220378  15.798  15.791  12.607  0.1576 -0.1624  0.0075
 1737POSM   T1A20379  15.524  16.371  12.575  0.2364  0.1507  0.0916
 1737POSM   C2A20380  15.168  16.458  12.416 -0.1019  0.0742  0.2300
 1737POSM   C3A20381  14.747  16.505  12.587  0.2014 -0.1225  0.3005
 1737POSM   C1B20382  15.865  16.024  12.382  0.4057  0.0696 -0.1202
 1737POSM   D2B20383  15.682  16.321  12.031  0.1528  0.1245 -0.2975
 1737POSM   C3B20384  15.901  16.665  11.830 -0.1388 -0.0220 -0.0840
 1737POSM   C4B20385  15.960  17.017  11.585  0.0159 -0.1407  0.0232
 1738POSM   NC320386  20.399  12.235  13.784  0.0751  0.1611  0.3092
 1738POSM   PO420387  20.060  12.080  13.787  0.1211 -0.1262  0.1331
 1738POSM   AM120388  19.994  12.094  13.477  0.5017 -0.0885  0.1111
 1738POSM   AM220389  19.737  12.163  13.345 -0.0389  0.3312  0.1643
 1738POSM   T1A20390  20.243  12.130  13.032  0.6259 -0.1071  0.0049
 1738POSM   C2A20391  20.409  12.151  12.560  0.0591  0.0049  0.1990
 1738POSM   C3A20392  20.532  12.361  12.175 -0.1254 -0.1121 -0.3064
 1738POSM   C1B20393  19.511  11.947  13.159 -0.1554  0.1867  0.3877
 1738POSM   D2B20394  19.195  11.658  13.046 -0.2780 -0.0374 -0.0225
 1738POSM   C3B20395  18.954  11.494  12.693  0.1306  0.0280  0.0762
 1738POSM   C4B20396  18.823  11.306  12.247 -0.2057  0.0072  0.0090
 1739DOPC   NC320397  10.628  13.413  15.129 -0.1162  0.0688 -0.4188
 1739DOPC   PO420398  10.934  13.623  15.069 -0.0864 -0.0919  0.0884
 1739DOPC   GL120399  11.082  13.337  14.875 -0.1707  0.1002  0.3166
 1739DOPC   GL220400  11.018  13.026  14.962  0.4177 -0.1994  0.1153
 1739DOPC   C1A20401  11.140  13.378  14.404  0.0324  0.0643  0.4020
 1739DOPC   D2A20402  11.449  13.601  14.160  0.1307  0.1721  0.4814
 1739DOPC   C3A20403  11.748  13.472  13.786 -0.1208  0.0391 -0.2942
 1739DOPC   C4A20404  12.146  13.697  13.519 -0.3680 -0.2298 -0.0969
 1739DOPC   C1B20405  11.473  13.090  14.813 -0.3067  0.1124 -0.1507
 1739DOPC   D2B20406  11.640  13.244  14.451 -0.0968 -0.2147 -0.2157
 1739DOPC   C3B20407  11.905  13.088  14.094 -0.1465  0.0759 -0.1078
 1739DOPC   C4B20408  11.770  12.773  13.785 -0.0815 -0.2960  0.2383
 1740DOPE   NH320409  12.659  14.020  15.596 -0.1461  0.1513  0.0428
 1740DOPE   PO420410  12.758  14.077  15.290 -0.0291  0.2275 -0.1475
 1740DOPE   GL120411  12.711  13.930  14.924 -0.0153 -0.3044  0.0951
 1740DOPE   GL220412  12.765  14.230  14.768 -0.4094  0.0541 -0.0691
 1740DOPE   C1A20413  12.726  13.446  14.816 -0.0711 -0.0167 -0.2636
 1740DOPE   D2A20414  12.634  13.014  14.672  0.1137 -0.0071  0.2016
 1740DOPE   C3A20415  12.686  12.879  14.260 -0.1939 -0.2315 -0.3421
 1740DOPE   C4A20416  12.406  12.829  13.955  0.1518  0.0871 -0.2773
 1740DOPE   C1B20417  12.414  14.226  14.552 -0.0763 -0.0202  0.2451
 1740DOPE   D2B20418  12.031  14.044  14.730  0.0782 -0.2016 -0.0074
 1740DOPE   C3B20419  12.050  13.535  14.701 -0.2933 -0.0918  0.0451
 1740DOPE   C4B20420  12.276  13.177  14.919 -0.1246 -0.0872 -0.0376
 1741DOPC   NC320421  10.528  16.691  14.385  0.2136 -0.1301 -0.1145
 1741DOPC   PO420422  10.204  16.778  14.158  0.0062 -0.0466  0.2049
 1741DOPC   GL120423  10.137  16.776  13.779  0.1107 -0.0600 -0.4553
 1741DOPC   GL220424  10.298  16.518  13.716 -0.4064  0.5640  0.1981
 1741DOPC   C1A20425  10.231  16.828  13.339 -0.1412  0.1811 -0.1488
 1741DOPC   D2A20426  10.215  16.643  12.980 -0.3796  0.1217  0.0399
 1741DOPC   C3A20427  10.499  16.817  12.595  0.3846 -0.1634 -0.0011
 1741DOPC   C4A20428  10.469  17.072  12.198 -0.0096  0.1706 -0.2172
 1741DOPC   C1B20429   9.943  16.383  13.561 -0.1240 -0.0419  0.2663
 1741DOPC   D2B20430   9.734  16.546  13.154  0.0473  0.1381  0.1418
 1741DOPC   C3B20431   9.435  16.225  13.090  0.0644 -0.2409 -0.0551
 1741DOPC   C4B20432   9.313  15.864  12.883  0.1622 -0.1492 -0.0194
 1742POSM   NC320433  23.732  16.950  13.345  0.1500  0.1209 -0.5148
 1742POSM   PO420434  23.509  16.650  13.412  0.2298 -0.1137  0.3356
 1742POSM   AM120435  23.446  16.623  13.086 -0.1434  0.0569  0.0656
 1742POSM   AM220436  23.219  16.732  12.964 -0.0336 -0.1214 -0.3090
 1742POSM   T1A20437  23.599  16.593  12.597  0.0585 -0.1285  0.0135
 1742POSM   C2A20438  23.531  16.611  12.129  0.3091  0.1627  0.0781
 1742POSM   C3A20439  23.206  16.801  11.782  0.0932 -0.0181 -0.0516
 1742POSM   C1B20440  23.150  16.835  12.699  0.3591  0.0257  0.2331
 1742POSM   D2B20441  23.059  16.815  12.229 -0.1405  0.0782 -0.1588
 1742POSM   C3B20442  22.820  17.191  12.402  0.1495  0.1685  0.1370
 1742POSM   C4B20443  22.807  17.627  12.405 -0.1760  0.0495 -0.0914
 1743POSM   NC320444  12.783  19.721  14.235  0.0681 -0.0883 -0.0954
 1743POSM   PO420445  13.054  19.460  14.080 -0.1221 -0.1758 -0.0834
 1743POSM   AM120446  12.909  19.610  13.834 -0.2280 -0.3119 -0.4858
 1743POSM   AM220447  12.631  19.574  13.752  0.1253 -0.1597 -0.0305
 1743POSM   T1A20448  12.899  19.810  13.403  0.3583 -0.5502  0.1464
 1743POSM   C2A20449  12.935  19.719  12.998 -0.1666  0.0542  0.1570
 1743POSM   C3A20450  13.189  19.658  12.663  0.3224  0.2373  0.0511
 1743POSM   C1B20451  12.371  19.538  13.519  0.0438 -0.1741 -0.3929
 1743POSM   D2B20452  12.049  19.511  13.228  0.0423 -0.2312 -0.1907
 1743POSM   C3B20453  11.937  19.834  12.878  0.1419  0.1499 -0.1385
 1743POSM   C4B20454  12.089  20.244  12.745  0.1858  0.3133  0.0274
 1744POSM   NC320455  11.453  15.663  15.212  0.0417 -0.2888 -0.1032
 1744POSM   PO420456  11.554  15.420  14.897 -0.0591 -0.2174  0.0025
 1744POSM   AM120457  11.603  15.289  14.613 -0.1983 -0.0710  0.2548
 1744POSM   AM220458  11.771  15.067  14.504  0.3560  0.1356  0.0234
 1744POSM   T1A20459  11.374  15.246  14.175 -0.2521  0.0984 -0.0026
 1744POSM   C2A20460  11.159  14.964  13.920  0.0977 -0.0013  0.0979
 1744POSM   C3A20461  10.774  14.680  13.885  0.2095  0.1273  0.1022
 1744POSM   C1B20462  12.073  14.940  14.369  0.2218 -0.0801  0.1299
 1744POSM   D2B20463  12.242  14.556  14.161 -0.1641  0.1079  0.0611
 1744POSM   C3B20464  12.304  14.718  13.733  0.0810 -0.0637 -0.1546
 1744POSM   C4B20465  12.316  14.683  13.256 -0.4046  0.1462 -0.0701
 1745POSM   NC320466  14.539  22.209  13.875 -0.2764  0.2193 -0.2674
 1745POSM   PO420467  14.798  22.489  13.922  0.1407 -0.4375  0.0237
 1745POSM   AM120468  14.764  22.463  13.577 -0.0296 -0.0266 -0.1341
 1745POSM   AM220469  14.799  22.323  13.365  0.3779 -0.0043 -0.0656
 1745POSM   T1A20470  14.407  22.457  13.190  0.3773  0.0551 -0.2213
 1745POSM   C2A20471  13.949  22.573  13.071  0.2041  0.1190 -0.1267
 1745POSM   C3A20472  13.692  22.911  13.170  0.2740  0.1089  0.0946
 1745POSM   C1B20473  14.855  22.360  13.034  0.2447  0.0836 -0.0690
 1745POSM   D2B20474  14.993  22.252  12.603  0.0937  0.1872  0.3340
 1745POSM   C3B20475  14.811  22.640  12.380  0.0906 -0.1469 -0.2174
 1745POSM   C4B20476  14.593  22.823  12.067  0.0917 -0.2844 -0.2497
 1746DOPC   NC320477  24.132  19.045  13.925 -0.1609  0.0245 -0.1812
 1746DOPC   PO420478  23.812  18.859  13.917 -0.0588  0.3077 -0.0280
 1746DOPC   GL120479  23.861  19.051  13.575 -0.1819 -0.1382 -0.1750
 1746DOPC   GL220480  23.689  19.293  13.505 -0.0850  0.0278  0.0733
 1746DOPC   C1A20481  24.067  19.091  13.155 -0.0130 -0.2348 -0.2269
 1746DOPC   D2A20482  24.472  19.325  13.037  0.3198  0.2938 -0.1351
 1746DOPC   C3A20483  24.729  19.223  12.608  0.1993 -0.2041 -0.3091
 1746DOPC   C4A20484  24.694  18.977  12.193 -0.1084 -0.4416  0.0536
 1746DOPC   C1B20485  23.704  19.555  13.121  0.2571 -0.0017 -0.1315
 1746DOPC   D2B20486  23.503  19.325  12.808  0.1850 -0.0587  0.0450
 1746DOPC   C3B20487  23.896  19.045  12.687 -0.1423 -0.0268 -0.1745
 1746DOPC   C4B20488  24.270  19.182  12.455  0.0330 -0.0363  0.1338
 1747POSM   NC320489  26.399  18.606  14.581  0.0197 -0.2972  0.1961
 1747POSM   PO420490  26.181  18.648  14.265 -0.1247 -0.0766  0.1189
 1747POSM   AM120491  26.056  18.625  13.955  0.2451 -0.2852 -0.3085
 1747POSM   AM220492  25.839  18.674  13.756 -0.3784  0.0301  0.0801
 1747POSM   T1A20493  26.190  18.446  13.489  0.2995 -0.0446 -0.0204
 1747POSM   C2A20494  26.510  18.079  13.308  0.0650 -0.3636 -0.0723
 1747POSM   C3A20495  26.918  17.938  13.212  0.0462 -0.0809 -0.1059
 1747POSM   C1B20496  25.860  18.891  13.478 -0.0264 -0.2530  0.1193
 1747POSM   D2B20497  25.856  18.982  13.014  0.1018 -0.1407 -0.0151
 1747POSM   C3B20498  25.581  18.715  12.732 -0.1177  0.1302  0.0141
 1747POSM   C4B20499  25.516  18.679  12.293  0.0777  0.0590 -0.1739
 1748DOPS   CNO20500  16.858  14.744  13.438 -0.2961  0.0339  0.1640
 1748DOPS   PO420501  16.827  14.316  13.416 -0.1455  0.0195  0.1804
 1748DOPS   GL120502  16.459  14.248  13.189  0.2165  0.0565  0.0026
 1748DOPS   GL220503  16.308  13.989  13.362  0.0411 -0.1475  0.1154
 1748DOPS   C1A20504  16.394  14.018  12.772 -0.2750  0.2254  0.0702
 1748DOPS   D2A20505  16.625  13.674  12.542 -0.0552 -0.0643  0.4013
 1748DOPS   C3A20506  17.020  13.777  12.295 -0.0472 -0.0660  0.1448
 1748DOPS   C4A20507  17.295  13.519  12.016  0.0226  0.0547  0.1656
 1748DOPS   C1B20508  16.010  14.283  13.155 -0.3754  0.1492 -0.0372
 1748DOPS   D2B20509  15.689  14.461  12.850  0.1222  0.1064  0.1470
 1748DOPS   C3B20510  15.477  14.307  12.443 -0.0211 -0.1713 -0.0307
 1748DOPS   C4B20511  15.252  13.934  12.298 -0.0288 -0.1476 -0.0637
 1749DOPS   CNO20512  13.294  19.159  13.709 -0.0774 -0.2602 -0.1142
 1749DOPS   PO420513  13.264  18.765  13.676  0.3493  0.0354 -0.0785
 1749DOPS   GL120514  13.112  18.911  13.285  0.1979 -0.3428  0.0667
 1749DOPS   GL220515  13.340  19.116  13.220 -0.0974 -0.0382  0.0587
 1749DOPS   C1A20516  13.255  18.788  12.891 -0.2334 -0.2686  0.1129
 1749DOPS   D2A20517  13.441  18.826  12.449  0.0324  0.2621  0.2043
 1749DOPS   C3A20518  13.787  18.617  12.178  0.2084  0.0131  0.1065
 1749DOPS   C4A20519  14.120  18.922  12.186 -0.1204  0.3198  0.0360
 1749DOPS   C1B20520  13.061  19.192  12.822 -0.0414 -0.2639  0.0280
 1749DOPS   D2B20521  13.135  19.199  12.378  0.2219  0.1429 -0.3875
 1749DOPS   C3B20522  13.099  19.549  12.094 -0.4917  0.2311 -0.1981
 1749DOPS   C4B20523  13.304  19.845  11.806 -0.0527  0.0477 -0.0130
 1750DOPS   CNO20524  16.966  21.776  14.205 -0.4880 -0.1233  0.0355
 1750DOPS   PO420525  16.991  21.556  13.937  0.0884  0.0400 -0.0025
 1750DOPS   GL120526  17.089  21.576  13.550 -0.1185 -0.1150  0.0737
 1750DOPS   GL220527  16.749  21.692  13.441 -0.0223 -0.3791  0.0562
 1750DOPS   C1A20528  17.331  21.503  13.172  0.2931 -0.3877 -0.2921
 1750DOPS   D2A20529  17.487  21.703  12.756  0.1312  0.2114 -0.0832
 1750DOPS   C3A20530  17.095  21.779  12.483 -0.0360 -0.0757 -0.1982
 1750DOPS   C4A20531  17.056  21.609  12.091  0.2683 -0.1398  0.1804
 1750DOPS   C1B20532  16.821  21.455  13.061  0.2084 -0.0285  0.2410
 1750DOPS   D2B20533  16.744  21.223  12.675  0.0946  0.1684 -0.0627
 1750DOPS   C3B20534  16.600  21.499  12.314 -0.2043  0.2693 -0.1548
 1750DOPS   C4B20535  16.562  21.786  11.911  0.2026  0.3584  0.1799
 1751POSM   NC320536  18.339  14.689  13.342 -0.1803 -0.1954  0.1089
 1751POSM   PO420537  18.416  14.615  12.997 -0.1207  0.0648  0.0865
 1751POSM   AM120538  18.435  14.740  12.743  0.0662 -0.3319  0.3394
 1751POSM   AM220539  18.495  14.659  12.490  0.0335 -0.0762 -0.3766
 1751POSM   T1A20540  18.766  15.044  12.524 -0.1177 -0.1042  0.0984
 1751POSM   C2A20541  18.727  15.488  12.443 -0.0194  0.1005  0.1433
 1751POSM   C3A20542  18.952  15.845  12.401 -0.0064 -0.4755  0.3550
 1751POSM   C1B20543  18.218  14.752  12.271 -0.1420 -0.1740  0.0082
 1751POSM   D2B20544  18.118  14.851  11.827 -0.0434  0.2547 -0.1129
 1751POSM   C3B20545  18.298  15.022  11.450 -0.1087 -0.1866  0.5161
 1751POSM   C4B20546  18.589  15.391  11.332 -0.0942 -0.2165  0.2696
 1752DOPE   NH320547  16.425  24.620  14.452 -0.1919 -0.1069  0.2274
 1752DOPE   PO420548  16.625  24.903  14.476 -0.0891  0.4261 -0.1174
 1752DOPE   GL120549  16.662  24.870  14.083  0.0731 -0.1126 -0.2149
 1752DOPE   GL220550  16.681  24.601  14.008 -0.1395  0.0298  0.4752
 1752DOPE   C1A20551  16.986  25.005  13.835 -0.0304 -0.1423 -0.0127
 1752DOPE   D2A20552  17.201  25.234  13.426 -0.0809  0.0885  0.2607
 1752DOPE   C3A20553  16.977  25.460  13.145 -0.1238  0.1637 -0.0565
 1752DOPE   C4A20554  16.708  25.848  12.944 -0.1371  0.1919  0.0976
 1752DOPE   C1B20555  16.592  24.730  13.582  0.0505 -0.1727 -0.1871
 1752DOPE   D2B20556  16.290  24.902  13.281 -0.0665 -0.0404  0.1159
 1752DOPE   C3B20557  16.410  24.780  12.877 -0.2631 -0.1836  0.1556
 1752DOPE   C4B20558  16.189  24.574  12.542 -0.0499 -0.0431 -0.1441
 1753POSM   NC320559  15.037  11.604  14.653  0.0531  0.2302  0.2414
 1753POSM   PO420560  15.335  11.573  14.457  0.0333  0.0412  0.3018
 1753POSM   AM120561  15.248  11.614  14.121 -0.1859  0.1114  0.2874
 1753POSM   AM220562  15.370  11.743  13.890  0.3207  0.0693 -0.2633
 1753POSM   T1A20563  14.994  11.487  13.727  0.2787 -0.1326 -0.0389
 1753POSM   C2A20564  14.555  11.561  13.531  0.1051 -0.0821 -0.1284
 1753POSM   C3A20565  14.281  11.348  13.205 -0.1314  0.2323  0.1344
 1753POSM   C1B20566  15.272  11.861  13.625  0.1725 -0.0303 -0.1590
 1753POSM   D2B20567  15.138  11.771  13.165  0.4273  0.4725 -0.0161
 1753POSM   C3B20568  14.780  11.547  13.034 -0.1682  0.0932  0.1798
 1753POSM   C4B20569  14.751  11.107  12.859  0.3044  0.3145  0.5850
 1754DOPS   CNO20570  16.622  18.998  13.146  0.1712 -0.1292 -0.0533
 1754DOPS   PO420571  16.430  19.287  13.221 -0.0269 -0.1701  0.1410
 1754DOPS   GL120572  16.649  19.541  13.061 -0.1788  0.1672 -0.2056
 1754DOPS   GL220573  16.647  19.396  12.805  0.0209  0.2170 -0.0900
 1754DOPS   C1A20574  16.542  19.887  12.785  0.2621  0.0105 -0.0242
 1754DOPS   D2A20575  16.276  20.063  12.431  0.2333  0.1338  0.1367
 1754DOPS   C3A20576  16.532  20.453  12.296 -0.2153  0.2512 -0.0695
 1754DOPS   C4A20577  16.816  20.650  11.972  0.1309  0.1786  0.1664
 1754DOPS   C1B20578  16.603  19.268  12.367  0.0746 -0.1997  0.1970
 1754DOPS   D2B20579  16.870  19.089  12.059 -0.0817  0.1375  0.2174
 1754DOPS   C3B20580  17.101  18.752  11.853  0.2154 -0.1000 -0.0213
 1754DOPS   C4B20581  17.011  18.480  11.459  0.1136 -0.1575 -0.0720
 1755POSM   NC320582  23.221  17.929  13.416 -0.3597 -0.1326 -0.1294
 1755POSM   PO420583  23.065  17.598  13.546 -0.0269  0.2958 -0.0705
 1755POSM   AM120584  22.907  17.534  13.295  0.0102 -0.0380  0.1770
 1755POSM   AM220585  22.790  17.324  13.150  0.0794 -0.1237  0.1336
 1755POSM   T1A20586  22.542  17.652  12.951 -0.1406 -0.1132 -0.1020
 1755POSM   C2A20587  22.415  17.433  12.564  0.2402 -0.1164  0.0026
 1755POSM   C3A20588  22.408  17.332  12.117 -0.2534 -0.2689  0.3619
 1755POSM   C1B20589  22.978  17.230  12.902  0.0374 -0.0938 -0.1419
 1755POSM   D2B20590  23.254  17.354  12.542  0.4955  0.1519 -0.2107
 1755POSM   C3B20591  23.243  17.803  12.415  0.0535 -0.0649 -0.0324
 1755POSM   C4B20592  22.894  18.130  12.422 -0.3094 -0.0526  0.4676
 1756POSM   NC320593  17.451  14.887  13.042 -0.0128  0.0137 -0.2042
 1756POSM   PO420594  17.176  15.130  13.060  0.0376 -0.1043 -0.0061
 1756POSM   AM120595  16.946  15.094  12.865  0.3338  0.2667 -0.0164
 1756POSM   AM220596  16.881  15.282  12.660 -0.0977 -0.0472  0.2628
 1756POSM   T1A20597  16.586  14.825  12.651 -0.1425 -0.1851  0.1154
 1756POSM   C2A20598  16.345  14.517  12.729 -0.3831 -0.3940  0.0966
 1756POSM   C3A20599  15.996  14.285  12.477 -0.2146 -0.1116 -0.0215
 1756POSM   C1B20600  16.874  15.133  12.366 -0.3867 -0.1966 -0.0139
 1756POSM   D2B20601  16.828  14.687  12.177 -0.2491  0.5264  0.1238
 1756POSM   C3B20602  16.588  14.504  11.867 -0.0790  0.0133 -0.2934
 1756POSM   C4B20603  16.187  14.603  11.699  0.0076  0.0024 -0.0855
 1757POSM   NC320604  15.002  19.119  13.040 -0.1153 -0.1376 -0.3442
 1757POSM   PO420605  14.704  18.895  13.220 -0.1350  0.3930  0.0114
 1757POSM   AM120606  14.529  18.904  12.960  0.0961  0.1600  0.4879
 1757POSM   AM220607  14.455  18.733  12.770  0.0747  0.4666  0.0897
 1757POSM   T1A20608  14.485  19.120  12.499  0.0882 -0.1526  0.0100
 1757POSM   C2A20609  14.514  19.447  12.216 -0.0688  0.3362 -0.2673
 1757POSM   C3A20610  14.514  19.752  11.864  0.0710 -0.3193  0.2393
 1757POSM   C1B20611  14.382  18.605  12.464  0.1914 -0.1767 -0.0550
 1757POSM   D2B20612  14.297  18.386  12.049 -0.0438 -0.2838  0.1537
 1757POSM   C3B20613  14.088  18.652  11.783 -0.1241 -0.4446  0.0884
 1757POSM   C4B20614  13.791  19.007  11.800  0.0851 -0.1762 -0.0140
 1758DOPE   NH320615  25.770  20.040  13.941  0.0067 -0.0601 -0.0898
 1758DOPE   PO420616  25.938  19.824  13.957  0.1147  0.1852  0.1481
 1758DOPE   GL120617  25.843  19.682  13.541  0.1112  0.1799 -0.0782
 1758DOPE   GL220618  25.680  19.416  13.437 -0.3797  0.1965  0.1021
 1758DOPE   C1A20619  26.175  19.415  13.330 -0.0118  0.1661  0.2814
 1758DOPE   D2A20620  26.451  19.218  12.997  0.1054  0.0402  0.2670
 1758DOPE   C3A20621  26.498  19.039  12.600  0.3553 -0.3067 -0.1192
 1758DOPE   C4A20622  26.484  18.615  12.417 -0.0125 -0.1796  0.2959
 1758DOPE   C1B20623  25.802  19.499  13.019 -0.0592 -0.1956  0.4443
 1758DOPE   D2B20624  26.053  19.370  12.633 -0.0509 -0.0235  0.2974
 1758DOPE   C3B20625  26.067  19.004  12.388 -0.3455 -0.1165  0.0031
 1758DOPE   C4B20626  26.344  18.886  11.979 -0.0122 -0.0113 -0.1537
 1759DOPE   NH320627  14.207  17.224  13.514 -0.1229  0.1065 -0.0426
 1759DOPE   PO420628  13.993  17.046  13.384  0.0951 -0.1337 -0.2414
 1759DOPE   GL120629  13.893  17.120  12.968 -0.1667 -0.0432  0.1050
 1759DOPE   GL220630  14.056  17.286  12.785  0.0015 -0.1643 -0.1440
 1759DOPE   C1A20631  13.861  16.950  12.547 -0.4386 -0.0875 -0.2622
 1759DOPE   D2A20632  13.777  16.884  12.117  0.2243  0.1416  0.1485
 1759DOPE   C3A20633  14.025  16.744  11.792 -0.0005  0.0314 -0.3918
 1759DOPE   C4A20634  14.118  16.377  11.553  0.3426 -0.1849 -0.0936
 1759DOPE   C1B20635  14.307  17.246  12.404  0.1181 -0.0840  0.0375
 1759DOPE   D2B20636  14.494  16.982  12.036  0.5195  0.2225  0.3646
 1759DOPE   C3B20637  14.936  16.796  12.126  0.1377 -0.2589  0.4251
 1759DOPE   C4B20638  15.381  16.733  12.027 -0.2210  0.0785  0.0709
 1760DOPS   CNO20639  23.776  12.378  13.994 -0.2481  0.1547 -0.1818
 1760DOPS   PO420640  23.676  12.434  13.650 -0.0052  0.0838  0.1141
 1760DOPS   GL120641  23.611  12.440  13.280 -0.0263  0.1530  0.0258
 1760DOPS   GL220642  23.330  12.408  13.271 -0.0179 -0.0612 -0.0617
 1760DOPS   C1A20643  23.714  12.375  12.811  0.0815  0.1988 -0.2127
 1760DOPS   D2A20644  23.447  12.276  12.451  0.0748  0.1250  0.0946
 1760DOPS   C3A20645  23.661  12.355  12.077 -0.0946  0.1018 -0.1173
 1760DOPS   C4A20646  24.127  12.329  11.922  0.1280  0.0660  0.3405
 1760DOPS   C1B20647  23.162  12.409  12.848  0.1372  0.0739  0.0242
 1760DOPS   D2B20648  22.759  12.432  12.679  0.0120  0.2130  0.3032
 1760DOPS   C3B20649  22.545  12.803  12.531  0.0348  0.2167  0.0412
 1760DOPS   C4B20650  22.207  13.107  12.513  0.0993  0.2543 -0.2698
 1761DOPS   CNO20651   9.200  14.822  15.219 -0.0798  0.1344 -0.1086
 1761DOPS   PO420652   9.402  15.018  14.946 -0.0509 -0.0229 -0.0301
 1761DOPS   GL120653   9.157  15.062  14.541  0.2405 -0.1421 -0.0991
 1761DOPS   GL220654   9.510  15.050  14.449 -0.1133  0.3200 -0.1187
 1761DOPS   C1A20655   8.979  14.945  14.161 -0.1803  0.0014  0.0447
 1761DOPS   D2A20656   8.778  14.517  14.106  0.1453 -0.0848 -0.0610
 1761DOPS   C3A20657   8.747  14.576  13.654  0.1133 -0.0605  0.1930
 1761DOPS   C4A20658   8.559  14.716  13.273  0.1511  0.0208 -0.1938
 1761DOPS   C1B20659   9.453  15.086  13.966 -0.3069 -0.1383  0.0212
 1761DOPS   D2B20660   9.186  14.864  13.656  0.0233  0.0507  0.0885
 1761DOPS   C3B20661   9.196  14.692  13.240 -0.2966  0.1513  0.0909
 1761DOPS   C4B20662   9.264  14.977  12.870 -0.0185 -0.1364  0.2594
 1762DOPE   NH320663  14.493  18.994  13.654  0.2299  0.0951  0.0629
 1762DOPE   PO420664  14.235  19.165  13.678  0.0225  0.2767  0.0481
 1762DOPE   GL120665  14.329  19.242  13.241 -0.0683  0.2392  0.1045
 1762DOPE   GL220666  14.567  19.357  13.321 -0.1055  0.1292  0.1724
 1762DOPE   C1A20667  14.445  19.462  12.849  0.1232  0.2839  0.1990
 1762DOPE   D2A20668  14.829  19.416  12.628  0.1381 -0.2178  0.2595
 1762DOPE   C3A20669  14.886  19.762  12.283 -0.1202 -0.1926 -0.0382
 1762DOPE   C4A20670  15.119  20.054  11.959 -0.1355  0.1921  0.0533
 1762DOPE   C1B20671  14.964  19.645  13.208  0.0614 -0.0254  0.1327
 1762DOPE   D2B20672  15.038  19.811  12.803 -0.0279  0.0869 -0.1365
 1762DOPE   C3B20673  15.304  19.862  12.498 -0.0285 -0.0451  0.1441
 1762DOPE   C4B20674  15.581  20.018  12.189  0.0598  0.1477  0.0714
 1763DOPC   NC320675  13.814  19.736  13.488 -0.2146  0.3514  0.0422
 1763DOPC   PO420676  13.773  20.038  13.700 -0.0830  0.1668 -0.0084
 1763DOPC   GL120677  14.026  20.266  13.424  0.1678 -0.0472  0.3014
 1763DOPC   GL220678  14.329  20.304  13.520 -0.1090 -0.0657  0.3335
 1763DOPC   C1A20679  13.823  20.161  13.028  0.0902 -0.1850  0.0622
 1763DOPC   D2A20680  14.011  20.282  12.589  0.1817  0.1675 -0.0017
 1763DOPC   C3A20681  13.972  19.955  12.249  0.1704  0.0147  0.3227
 1763DOPC   C4A20682  13.773  19.816  11.828  0.1712  0.0306  0.0493
 1763DOPC   C1B20683  14.338  20.026  13.182 -0.3259 -0.0003 -0.2692
 1763DOPC   D2B20684  14.050  19.716  12.958 -0.2045 -0.1069  0.1673
 1763DOPC   C3B20685  14.103  19.559  12.492  0.4919  0.1627  0.1962
 1763DOPC   C4B20686  14.075  19.443  12.062  0.1240 -0.1627  0.2693
 1764DOPE   NH320687  17.501  21.575  13.902 -0.1048 -0.0285 -0.0685
 1764DOPE   PO420688  17.734  21.463  13.979 -0.1522  0.1871  0.1079
 1764DOPE   GL120689  18.055  21.240  13.801  0.3516 -0.3793 -0.2000
 1764DOPE   GL220690  18.190  21.492  13.663 -0.0046 -0.2967 -0.1957
 1764DOPE   C1A20691  17.969  21.006  13.391  0.0096 -0.0873  0.1574
 1764DOPE   D2A20692  17.529  21.039  13.251  0.0437 -0.2176  0.0421
 1764DOPE   C3A20693  17.568  20.769  12.890  0.0917  0.3495 -0.4013
 1764DOPE   C4A20694  17.843  20.600  12.535  0.3722  0.1262 -0.0308
 1764DOPE   C1B20695  18.434  21.462  13.311  0.1972  0.3437  0.1806
 1764DOPE   D2B20696  18.772  21.833  13.272  0.0643 -0.2056 -0.1343
 1764DOPE   C3B20697  19.092  21.951  12.920 -0.1423 -0.0027  0.5779
 1764DOPE   C4B20698  19.178  21.941  12.488  0.2461  0.3535 -0.0090
 1765DOPC   NC320699   8.459  17.295  13.995 -0.1889  0.0244 -0.0936
 1765DOPC   PO420700   8.679  17.614  13.838  0.3289 -0.0150 -0.2966
 1765DOPC   GL120701   8.794  17.551  13.349  0.0032 -0.0537 -0.1940
 1765DOPC   GL220702   9.147  17.507  13.513  0.1335  0.1217 -0.2953
 1765DOPC   C1A20703   8.695  17.458  12.909 -0.1246 -0.1427 -0.0926
 1765DOPC   D2A20704   8.247  17.323  12.762 -0.0084  0.0267  0.1811
 1765DOPC   C3A20705   8.233  17.282  12.240  0.0426  0.0658  0.2586
 1765DOPC   C4A20706   8.525  17.292  11.850 -0.0532 -0.0832 -0.3208
 1765DOPC   C1B20707   9.160  17.694  13.077  0.0048  0.1537 -0.2473
 1765DOPC   D2B20708   8.965  17.839  12.684 -0.3342 -0.1095  0.1336
 1765DOPC   C3B20709   9.323  17.737  12.406 -0.0128  0.2002 -0.0617
 1765DOPC   C4B20710   9.805  17.871  12.319  0.2888 -0.2503  0.3028
 1766DOPE   NH320711  24.629  16.034  13.250 -0.1286 -0.3796 -0.0271
 1766DOPE   PO420712  24.472  15.756  13.122 -0.3147 -0.0327 -0.1009
 1766DOPE   GL120713  24.451  15.515  12.868  0.1447  0.0155 -0.4645
 1766DOPE   GL220714  24.420  15.262  12.876 -0.1742 -0.2076 -0.2626
 1766DOPE   C1A20715  24.184  15.486  12.470 -0.2170 -0.1645 -0.1587
 1766DOPE   D2A20716  23.928  15.156  12.276  0.1717  0.1060 -0.0597
 1766DOPE   C3A20717  23.995  14.998  11.877  0.0366  0.2668  0.2655
 1766DOPE   C4A20718  24.034  14.855  11.457 -0.0774 -0.0729  0.1784
 1766DOPE   C1B20719  24.691  15.512  12.494 -0.0216  0.1057 -0.0475
 1766DOPE   D2B20720  24.799  15.640  12.046  0.2123 -0.0479 -0.0363
 1766DOPE   C3B20721  24.686  16.016  11.785  0.2410  0.0689 -0.1380
 1766DOPE   C4B20722  24.569  16.279  11.407  0.1996 -0.2038  0.0030
 1767DOPE   NH320723  20.071  18.968  13.103  0.2944  0.1343  0.0384
 1767DOPE   PO420724  20.317  18.756  12.996 -0.4290 -0.0503 -0.0296
 1767DOPE   GL120725  20.209  18.731  12.632 -0.0433  0.1710  0.3778
 1767DOPE   GL220726  20.426  18.598  12.495 -0.0108 -0.3498  0.0734
 1767DOPE   C1A20727  20.093  18.253  12.458 -0.1423 -0.0593  0.1901
 1767DOPE   D2A20728  20.027  17.937  12.181 -0.0753 -0.2162  0.0253
 1767DOPE   C3A20729  20.090  18.065  11.777 -0.2285 -0.0694  0.3478
 1767DOPE   C4A20730  20.144  18.067  11.309 -0.2481  0.1124 -0.2639
 1767DOPE   C1B20731  20.330  18.803  12.156  0.3769 -0.1318 -0.1727
 1767DOPE   D2B20732  20.328  18.692  11.718 -0.0164  0.1587 -0.1658
 1767DOPE   C3B20733  20.767  18.696  11.493  0.3406  0.5261  0.2065
 1767DOPE   C4B20734  21.058  18.710  11.099 -0.0598 -0.0307  0.2674
 1768DOPC   NC320735  14.677  12.207  14.246  0.0028 -0.2573 -0.2674
 1768DOPC   PO420736  14.357  12.029  14.130  0.2549  0.3473 -0.4485
 1768DOPC   GL120737  14.205  11.773  13.805 -0.0087  0.3628 -0.1722
 1768DOPC   GL220738  13.936  11.834  13.833  0.1301 -0.0597  0.1495
 1768DOPC   C1A20739  14.125  11.922  13.363 -0.2132  0.1040 -0.2015
 1768DOPC   D2A20740  14.214  11.861  12.951  0.0848  0.3365 -0.1852
 1768DOPC   C3A20741  14.546  11.931  12.604 -0.0114 -0.0958 -0.2152
 1768DOPC   C4A20742  14.652  12.161  12.280 -0.1958 -0.1782  0.2733
 1768DOPC   C1B20743  13.607  11.842  13.518 -0.2067  0.3179 -0.0223
 1768DOPC   D2B20744  13.509  11.979  13.085  0.1623  0.1556  0.0607
 1768DOPC   C3B20745  13.830  12.042  12.757  0.3621 -0.1495 -0.3911
 1768DOPC   C4B20746  14.138  12.263  12.538 -0.0735 -0.2115  0.0471
 1769DOPC   NC320747  23.497  15.334  13.972  0.0032 -0.1273  0.1085
 1769DOPC   PO420748  23.205  15.428  13.733 -0.1111  0.0508 -0.0551
 1769DOPC   GL120749  23.064  15.387  13.318  0.1344  0.0569 -0.4013
 1769DOPC   GL220750  22.878  15.180  13.169 -0.0595  0.0233  0.3526
 1769DOPC   C1A20751  23.328  15.274  12.979 -0.2090 -0.0324  0.0035
 1769DOPC   D2A20752  23.540  15.122  12.571  0.2259 -0.3167  0.1134
 1769DOPC   C3A20753  23.442  15.412  12.203 -0.0092 -0.0194 -0.3305
 1769DOPC   C4A20754  23.271  15.800  12.121  0.1262  0.0122  0.1926
 1769DOPC   C1B20755  22.896  15.363  12.796 -0.0151 -0.0457 -0.1542
 1769DOPC   D2B20756  22.973  15.307  12.338 -0.1299 -0.2160  0.1493
 1769DOPC   C3B20757  23.184  14.996  12.043  0.1811 -0.0160 -0.0748
 1769DOPC   C4B20758  23.433  15.014  11.635 -0.2961  0.0737  0.2786
 1770DOPE   NH320759  16.135  13.228  13.960  0.1197  0.1212 -0.1739
 1770DOPE   PO420760  16.421  13.035  14.033  0.0868  0.2110  0.2510
 1770DOPE   GL120761  16.484  13.053  13.683 -0.0341  0.0482 -0.2807
 1770DOPE   GL220762  16.768  13.079  13.599 -0.3139 -0.0386 -0.1159
 1770DOPE   C1A20763  16.089  13.073  13.386  0.0331 -0.0820 -0.1244
 1770DOPE   D2A20764  15.785  13.129  13.043  0.1425 -0.1233 -0.4183
 1770DOPE   C3A20765  15.492  12.874  12.806  0.2635 -0.1119  0.0692
 1770DOPE   C4A20766  15.563  12.443  12.545 -0.3400 -0.1780 -0.0188
 1770DOPE   C1B20767  16.580  13.100  13.210 -0.0460 -0.1344 -0.1268
 1770DOPE   D2B20768  16.709  13.000  12.766  0.2581  0.0761  0.1917
 1770DOPE   C3B20769  16.472  12.828  12.404 -0.0061  0.0597  0.3244
 1770DOPE   C4B20770  16.021  12.730  12.310 -0.0850  0.0759  0.0442
 1771DOPE   NH320771  25.283  17.477  13.801  0.0986 -0.0068  0.2829
 1771DOPE   PO420772  25.495  17.741  13.879  0.0576  0.2240 -0.1233
 1771DOPE   GL120773  25.327  18.010  13.579 -0.5330  0.0845 -0.2255
 1771DOPE   GL220774  25.425  17.795  13.413  0.2596 -0.0059  0.0884
 1771DOPE   C1A20775  25.401  18.281  13.193 -0.0397  0.0258  0.0267
 1771DOPE   D2A20776  25.521  18.219  12.705  0.1562 -0.0892  0.1057
 1771DOPE   C3A20777  25.657  18.185  12.284  0.0909  0.3676 -0.0340
 1771DOPE   C4A20778  25.455  18.078  11.852 -0.1675  0.0133  0.1351
 1771DOPE   C1B20779  25.203  17.873  13.001 -0.1568 -0.0354  0.1790
 1771DOPE   D2B20780  25.118  17.804  12.515  0.2704  0.1280 -0.0177
 1771DOPE   C3B20781  25.153  18.185  12.251 -0.3329  0.1646  0.2618
 1771DOPE   C4B20782  25.006  18.649  12.357  0.2772  0.1912 -0.2189
 1772DOPS   CNO20783  13.440  14.438  14.906  0.0256  0.1553 -0.0426
 1772DOPS   PO420784  13.262  14.543  14.599 -0.0236  0.0400 -0.0334
 1772DOPS   GL120785  13.128  14.612  14.123  0.1658  0.1092 -0.0587
 1772DOPS   GL220786  13.113  14.928  14.087  0.0190 -0.1515  0.1493
 1772DOPS   C1A20787  13.190  14.253  13.817  0.0917 -0.2698  0.1852
 1772DOPS   D2A20788  13.299  14.149  13.364 -0.0237  0.1820  0.0272
 1772DOPS   C3A20789  13.599  14.152  12.980  0.0940  0.2071  0.3718
 1772DOPS   C4A20790  13.643  14.099  12.515 -0.0661  0.2839  0.0010
 1772DOPS   C1B20791  12.871  14.679  13.772  0.2375 -0.0599  0.2250
 1772DOPS   D2B20792  12.849  14.373  13.406 -0.1478  0.0610  0.3650
 1772DOPS   C3B20793  12.724  14.489  12.959  0.0044  0.1374  0.4923
 1772DOPS   C4B20794  12.626  14.265  12.579 -0.0881 -0.0777  0.0871
 1773POSM   NC320795  15.268  21.096  14.038  0.1646  0.2795 -0.0650
 1773POSM   PO420796  14.855  21.104  14.049 -0.1116  0.0244  0.0302
 1773POSM   AM120797  14.858  20.981  13.749 -0.0965 -0.4983  0.2498
 1773POSM   AM220798  14.751  20.766  13.628  0.1681  0.3093 -0.1303
 1773POSM   T1A20799  14.863  21.149  13.276  0.2129 -0.5885 -0.0412
 1773POSM   C2A20800  14.773  21.365  12.846  0.1768 -0.3237  0.2104
 1773POSM   C3A20801  14.625  21.180  12.473  0.3314  0.1775 -0.0837
 1773POSM   C1B20802  14.579  20.672  13.347  0.2191  0.0299  0.2437
 1773POSM   D2B20803  14.252  20.537  13.039 -0.0939 -0.0603 -0.0495
 1773POSM   C3B20804  14.571  20.490  12.662 -0.4530 -0.1931  0.0443
 1773POSM   C4B20805  14.958  20.255  12.524  0.3749  0.0026  0.0936
 1774DOPC   NC320806  11.184  15.492  14.578 -0.2282  0.1917 -0.1600
 1774DOPC   PO420807  11.094  15.844  14.638  0.1380 -0.1594  0.3077
 1774DOPC   GL120808  11.023  15.855  14.299 -0.0510  0.1569  0.0257
 1774DOPC   GL220809  11.027  15.546  14.098  0.0838 -0.3618 -0.0406
 1774DOPC   C1A20810  11.252  15.916  13.917 -0.0279 -0.0431  0.2951
 1774DOPC   D2A20811  11.604  16.061  13.641  0.0072  0.1765 -0.0124
 1774DOPC   C3A20812  11.764  16.068  13.206  0.2430 -0.1096 -0.2927
 1774DOPC   C4A20813  12.101  16.039  12.882  0.1096 -0.0023  0.1751
 1774DOPC   C1B20814  11.248  15.421  13.736 -0.2939  0.0771  0.1239
 1774DOPC   D2B20815  11.594  15.400  13.457  0.0320  0.1192 -0.0214
 1774DOPC   C3B20816  11.585  15.225  13.001  0.0776  0.1153  0.2906
 1774DOPC   C4B20817  11.452  14.824  12.834 -0.0263 -0.2940  0.2018
 1775DOPC   NC320818  11.821  14.525  15.213  0.0447  0.0609 -0.0417
 1775DOPC   PO420819  12.051  14.795  15.237  0.0672 -0.2400 -0.1085
 1775DOPC   GL120820  12.011  14.740  14.865  0.1054  0.1324 -0.0506
 1775DOPC   GL220821  11.857  14.571  14.731 -0.1036 -0.0689 -0.2439
 1775DOPC   C1A20822  12.422  14.656  14.718 -0.0648 -0.0197  0.2790
 1775DOPC   D2A20823  12.745  14.562  14.387  0.1659 -0.0541  0.0446
 1775DOPC   C3A20824  12.600  14.907  14.117 -0.1364  0.0145  0.0746
 1775DOPC   C4A20825  12.592  15.186  13.769 -0.1405  0.2344  0.1142
 1775DOPC   C1B20826  11.811  14.362  14.291  0.1502 -0.1132 -0.0650
 1775DOPC   D2B20827  11.897  14.414  13.826  0.0120  0.0294  0.1245
 1775DOPC   C3B20828  11.672  13.993  13.750  0.0552  0.0511  0.1665
 1775DOPC   C4B20829  11.595  13.717  13.355 -0.1114 -0.0931 -0.1380
 1776DOPS   CNO20830  13.965  13.992  14.260 -0.0575 -0.0727 -0.4882
 1776DOPS   PO420831  14.221  13.966  13.978 -0.2065 -0.1116  0.0150
 1776DOPS   GL120832  14.220  13.749  13.595  0.0081 -0.3295  0.1967
 1776DOPS   GL220833  13.898  13.654  13.634  0.1698 -0.1533 -0.2183
 1776DOPS   C1A20834  14.340  13.393  13.327 -0.0093 -0.0178  0.0521
 1776DOPS   D2A20835  14.564  13.233  12.983 -0.2771  0.1293 -0.0972
 1776DOPS   C3A20836  14.984  13.115  13.078  0.0887 -0.1522  0.4103
 1776DOPS   C4A20837  15.342  13.209  13.287  0.0971  0.0578 -0.0319
 1776DOPS   C1B20838  13.471  13.724  13.465 -0.1216  0.0768 -0.1716
 1776DOPS   D2B20839  13.113  13.778  13.748 -0.1664 -0.1718 -0.1626
 1776DOPS   C3B20840  12.686  13.911  13.455  0.0756  0.2427 -0.1428
 1776DOPS   C4B20841  12.378  14.042  13.111  0.1331 -0.1827  0.0610
 1777DOPC   NC320842  20.941  24.434  14.496 -0.1736  0.1074 -0.0965
 1777DOPC   PO420843  20.649  24.250  14.286  0.1524  0.0451  0.1082
 1777DOPC   GL120844  20.746  24.331  13.848  0.1202  0.0225  0.3492
 1777DOPC   GL220845  20.532  24.044  13.808 -0.1296 -0.1587  0.0178
 1777DOPC   C1A20846  21.087  24.094  13.584  0.0146  0.0805  0.1208
 1777DOPC   D2A20847  21.169  23.916  13.180  0.2939  0.1871 -0.1887
 1777DOPC   C3A20848  21.631  24.015  13.070 -0.0572  0.1703  0.1146
 1777DOPC   C4A20849  22.047  23.989  12.795  0.3540  0.2123 -0.0532
 1777DOPC   C1B20850  20.735  23.787  13.433  0.0627 -0.0678 -0.1268
 1777DOPC   D2B20851  20.792  23.632  12.979  0.0835 -0.0896 -0.3541
 1777DOPC   C3B20852  21.049  23.832  12.632  0.0437 -0.2285  0.0357
 1777DOPC   C4B20853  21.301  24.219  12.682  0.2988 -0.1391 -0.3717
 1778POSM   NC320854  18.953  17.513  13.199 -0.2669  0.1062 -0.0460
 1778POSM   PO420855  18.921  17.114  13.047  0.1013 -0.1603 -0.3176
 1778POSM   AM120856  18.802  17.300  12.749  0.2022 -0.2382 -0.1557
 1778POSM   AM220857  18.881  17.553  12.702  0.1276 -0.1026  0.1520
 1778POSM   T1A20858  19.028  17.353  12.292  0.1107  0.1734  0.0805
 1778POSM   C2A20859  19.272  17.360  11.915 -0.0980  0.3065  0.2485
 1778POSM   C3A20860  19.648  17.241  11.678  0.2134  0.0626 -0.0639
 1778POSM   C1B20861  18.784  17.749  12.456  0.2507  0.0555  0.0329
 1778POSM   D2B20862  18.643  17.764  12.036 -0.2629 -0.5059 -0.1724
 1778POSM   C3B20863  18.702  17.389  11.808  0.2056  0.1438 -0.2791
 1778POSM   C4B20864  18.849  17.006  11.823 -0.2239 -0.0765  0.4012
 1779DOPC   NC320865  16.578  11.309  13.944 -0.1289  0.0831 -0.3081
 1779DOPC   PO420866  16.725  11.565  14.222 -0.0473  0.0683  0.1425
 1779DOPC   GL120867  16.923  11.653  13.852  0.0919 -0.2747  0.0711
 1779DOPC   GL220868  17.209  11.598  13.830  0.2531 -0.0624 -0.2859
 1779DOPC   C1A20869  16.827  11.520  13.389 -0.1355 -0.0937 -0.2256
 1779DOPC   D2A20870  16.870  11.347  12.995  0.2214 -0.0105  0.0704
 1779DOPC   C3A20871  16.521  11.188  12.736 -0.0287  0.3474  0.1179
 1779DOPC   C4A20872  16.188  11.047  12.480 -0.2665  0.0339  0.1301
 1779DOPC   C1B20873  17.234  11.774  13.408  0.0298 -0.0927 -0.2043
 1779DOPC   D2B20874  17.227  11.790  12.951  0.2080  0.5990 -0.0534
 1779DOPC   C3B20875  17.025  11.666  12.564  0.0204  0.1440 -0.1089
 1779DOPC   C4B20876  16.836  11.393  12.262 -0.1126 -0.0840  0.0055
 1780DOPC   NC320877  22.041  13.001  13.377  0.1125  0.1521  0.1527
 1780DOPC   PO420878  21.686  12.770  13.454 -0.0940 -0.1052 -0.1010
 1780DOPC   GL120879  21.557  12.940  13.108 -0.0760  0.0775 -0.3241
 1780DOPC   GL220880  21.426  13.158  13.039 -0.2977  0.0230  0.2602
 1780DOPC   C1A20881  21.538  12.892  12.673  0.3202 -0.0436 -0.0817
 1780DOPC   D2A20882  21.804  12.905  12.313 -0.1921  0.0184 -0.1607
 1780DOPC   C3A20883  21.670  13.014  11.854  0.1491  0.1132  0.0097
 1780DOPC   C4A20884  21.564  13.281  11.413  0.1685 -0.0678  0.1363
 1780DOPC   C1B20885  21.793  13.247  12.838 -0.2737 -0.1206 -0.2818
 1780DOPC   D2B20886  22.197  13.399  12.907  0.1453 -0.0852  0.0174
 1780DOPC   C3B20887  22.582  13.646  12.914 -0.0971  0.2742 -0.0217
 1780DOPC   C4B20888  23.018  13.761  13.072 -0.0071 -0.3476 -0.4045
 1781DOPE   NH320889  17.703   9.850  14.492 -0.1819 -0.0874 -0.0261
 1781DOPE   PO420890  17.736  10.093  14.250 -0.1721  0.1560  0.0862
 1781DOPE   GL120891  17.928  10.278  13.970 -0.4139 -0.0377 -0.1657
 1781DOPE   GL220892  17.726  10.545  13.930 -0.4788  0.1656  0.0083
 1781DOPE   C1A20893  17.925  10.296  13.526  0.4042  0.0230 -0.1640
 1781DOPE   D2A20894  17.955  10.553  13.123 -0.0660 -0.0465  0.1271
 1781DOPE   C3A20895  17.968  10.718  12.670 -0.0968 -0.3792 -0.0356
 1781DOPE   C4A20896  17.701  10.709  12.273  0.1971  0.2039  0.0862
 1781DOPE   C1B20897  18.049  10.718  13.734  0.2076  0.0731  0.1132
 1781DOPE   D2B20898  18.341  10.804  13.393  0.1649 -0.2533  0.2010
 1781DOPE   C3B20899  18.371  10.661  12.959  0.0217 -0.0011  0.2140
 1781DOPE   C4B20900  18.450  10.496  12.530 -0.0821 -0.0899 -0.0554
 1782POSM   NC320901  21.394  12.422  14.103  0.3785 -0.0359 -0.0310
 1782POSM   PO420902  21.092  12.649  13.954  0.6383 -0.2948 -0.0765
 1782POSM   AM120903  21.127  12.635  13.635  0.2801  0.2599  0.3834
 1782POSM   AM220904  21.145  12.789  13.385 -0.0989 -0.1347  0.0491
 1782POSM   T1A20905  21.172  12.305  13.245  0.2086 -0.1924  0.2037
 1782POSM   C2A20906  20.924  12.157  12.908  0.2889 -0.1129 -0.2223
 1782POSM   C3A20907  20.830  11.960  12.472  0.2674  0.3040 -0.2481
 1782POSM   C1B20908  21.124  12.774  13.058 -0.1929  0.1475 -0.2664
 1782POSM   D2B20909  21.057  12.851  12.649  0.1998 -0.0090 -0.1346
 1782POSM   C3B20910  20.916  12.933  12.153 -0.1917 -0.0471  0.0040
 1782POSM   C4B20911  21.081  12.890  11.719 -0.0960 -0.1389 -0.0299
 1783POSM   NC320912  12.480  16.283  14.690  0.1661  0.0110 -0.1533
 1783POSM   PO420913  12.690  16.199  14.389 -0.1891 -0.2957  0.3847
 1783POSM   AM120914  12.552  16.093  14.086  0.2268 -0.2975 -0.1362
 1783POSM   AM220915  12.561  15.832  13.975 -0.0563 -0.0755 -0.1905
 1783POSM   T1A20916  12.505  16.235  13.629  0.2953  0.5458  0.0245
 1783POSM   C2A20917  12.691  16.525  13.314 -0.0514  0.4636  0.0868
 1783POSM   C3A20918  13.034  16.703  13.052 -0.1640  0.0932  0.1034
 1783POSM   C1B20919  12.556  15.672  13.655  0.1360  0.0058  0.1433
 1783POSM   D2B20920  12.562  15.317  13.295  0.1405  0.2688 -0.0764
 1783POSM   C3B20921  12.832  15.438  12.928  0.1425  0.0993 -0.0688
 1783POSM   C4B20922  13.212  15.635  12.854  0.0502 -0.1282 -0.1180
 1784DOPE   NH320923  12.804  11.920  14.785  0.0149 -0.2434  0.1070
 1784DOPE   PO420924  13.031  12.077  14.911  0.0023  0.0357  0.1424
 1784DOPE   GL120925  12.799  12.304  14.624 -0.1730 -0.2014 -0.0871
 1784DOPE   GL220926  13.019  12.321  14.412  0.0760 -0.0466 -0.1446
 1784DOPE   C1A20927  12.437  12.405  14.305 -0.3520 -0.3353  0.0410
 1784DOPE   D2A20928  12.103  12.451  14.054 -0.2220  0.1488 -0.1745
 1784DOPE   C3A20929  12.271  12.528  13.601  0.0162  0.3023 -0.2552
 1784DOPE   C4A20930  12.348  12.481  13.137  0.0795 -0.0312 -0.2204
 1784DOPE   C1B20931  12.890  12.535  13.968 -0.1508  0.2522 -0.2090
 1784DOPE   D2B20932  12.737  12.803  13.594  0.0581 -0.0560  0.1904
 1784DOPE   C3B20933  12.590  12.995  13.257  0.1887  0.1049 -0.1611
 1784DOPE   C4B20934  12.202  13.047  13.054 -0.1346  0.0267  0.2082
 1785POSM   NC320935  10.413  12.511  15.228  0.0259  0.0981 -0.2474
 1785POSM   PO420936  10.731  12.447  15.067 -0.1566 -0.2712  0.1813
 1785POSM   AM120937  10.728  12.525  14.722  0.0137 -0.1985  0.0078
 1785POSM   AM220938  10.818  12.773  14.600 -0.3963  0.3485  0.0746
 1785POSM   T1A20939  10.950  12.453  14.262  0.0065  0.1130  0.0480
 1785POSM   C2A20940  11.131  12.615  13.882  0.0040 -0.2196 -0.0977
 1785POSM   C3A20941  11.353  12.439  13.557 -0.0591  0.0684 -0.0861
 1785POSM   C1B20942  11.145  12.889  14.457  0.0114 -0.0146  0.0457
 1785POSM   D2B20943  11.327  13.035  14.054  0.2143  0.0206 -0.4076
 1785POSM   C3B20944  11.281  13.392  13.750  0.0939 -0.1689  0.1328
 1785POSM   C4B20945  10.911  13.504  13.418  0.1567 -0.3099  0.0129
 1786DOPE   NH320946  15.943  22.930  14.253 -0.4220  0.1663  0.1429
 1786DOPE   PO420947  16.266  22.789  14.265 -0.2194 -0.1185  0.0594
 1786DOPE   GL120948  16.231  22.846  13.880  0.1221  0.1693  0.2892
 1786DOPE   GL220949  16.343  22.801  13.643 -0.0044 -0.1022  0.3653
 1786DOPE   C1A20950  15.846  22.999  13.696  0.2116 -0.0017 -0.0509
 1786DOPE   D2A20951  15.533  22.943  13.367  0.1865  0.2323  0.2935
 1786DOPE   C3A20952  15.796  22.814  12.990  0.2472 -0.2231  0.3643
 1786DOPE   C4A20953  16.005  23.116  12.775  0.1877  0.0004  0.4099
 1786DOPE   C1B20954  16.170  23.049  13.317 -0.1536 -0.0038 -0.0175
 1786DOPE   D2B20955  16.436  23.272  13.066  0.1735  0.1523  0.2489
 1786DOPE   C3B20956  16.233  23.593  12.923 -0.0535  0.2275 -0.1141
 1786DOPE   C4B20957  15.913  23.919  13.051 -0.0891  0.2022  0.0551
 1787POSM   NC320958  11.735  16.164  14.097  0.1837 -0.1461  0.0759
 1787POSM   PO420959  11.633  16.529  14.006 -0.1140 -0.0456  0.1340
 1787POSM   AM120960  11.562  16.608  13.693  0.1392  0.0668  0.1851
 1787POSM   AM220961  11.332  16.754  13.543 -0.2023  0.3361 -0.1975
 1787POSM   T1A20962  11.706  16.581  13.224 -0.3040  0.2486  0.1000
 1787POSM   C2A20963  11.604  16.868  12.876 -0.0844  0.0082 -0.0368
 1787POSM   C3A20964  11.499  17.121  12.506  0.1110 -0.0173 -0.1071
 1787POSM   C1B20965  11.327  16.946  13.277 -0.2481  0.2249  0.1064
 1787POSM   D2B20966  11.269  17.215  12.961 -0.0522  0.1132  0.1161
 1787POSM   C3B20967  10.938  17.253  12.581  0.0777  0.0870 -0.1289
 1787POSM   C4B20968  10.750  17.480  12.262  0.0265  0.0228 -0.0299
 1788DOPS   CNO20969  22.269  14.006  13.584  0.1212 -0.5470 -0.0733
 1788DOPS   PO420970  22.180  14.283  13.341  0.1519 -0.4323  0.0669
 1788DOPS   GL120971  22.113  14.205  13.001 -0.0360  0.3881 -0.1364
 1788DOPS   GL220972  22.357  14.204  12.839  0.0447 -0.2286 -0.0502
 1788DOPS   C1A20973  21.891  14.164  12.545 -0.2163  0.2429  0.0324
 1788DOPS   D2A20974  21.997  13.959  12.154  0.1850  0.0820  0.5276
 1788DOPS   C3A20975  21.779  14.070  11.785  0.0934 -0.1610 -0.1024
 1788DOPS   C4A20976  21.483  13.827  11.554 -0.2430 -0.1314 -0.1887
 1788DOPS   C1B20977  22.356  13.981  12.473 -0.2691  0.0285  0.1993
 1788DOPS   D2B20978  22.528  13.559  12.404 -0.2750 -0.0537  0.0301
 1788DOPS   C3B20979  22.464  13.533  11.926  0.0467  0.1692 -0.0304
 1788DOPS   C4B20980  22.405  13.864  11.575  0.1172 -0.0822 -0.0504
 1789DOPC   NC320981  15.347  21.835  14.337 -0.2917  0.0484  0.0627
 1789DOPC   PO420982  15.438  21.544  14.084 -0.0421  0.1097 -0.0003
 1789DOPC   GL120983  15.511  21.487  13.667  0.1604  0.0529  0.3381
 1789DOPC   GL220984  15.606  21.777  13.595 -0.2176  0.0585 -0.0568
 1789DOPC   C1A20985  15.327  21.464  13.211 -0.1123  0.3990 -0.3995
 1789DOPC   D2A20986  15.215  21.034  12.997 -0.0547  0.1863 -0.4710
 1789DOPC   C3A20987  14.893  20.813  12.783 -0.1325 -0.1008  0.2003
 1789DOPC   C4A20988  14.494  20.982  12.879 -0.0920 -0.1906 -0.2238
 1789DOPC   C1B20989  15.805  21.542  13.273  0.0405 -0.2049 -0.1566
 1789DOPC   D2B20990  15.918  21.218  12.944 -0.0650  0.2643 -0.1309
 1789DOPC   C3B20991  15.608  21.018  12.718 -0.0870 -0.3884 -0.0850
 1789DOPC   C4B20992  15.272  20.990  12.394  0.2536 -0.1055  0.1674
 1790DOPS   CNO20993  12.204  20.175  14.128  0.0531  0.0284 -0.1457
 1790DOPS   PO420994  12.565  20.191  14.030  0.1345  0.0843 -0.2526
 1790DOPS   GL120995  12.580  20.016  13.690  0.1732 -0.2132 -0.1481
 1790DOPS   GL220996  12.617  20.271  13.508 -0.0737  0.1088 -0.0886
 1790DOPS   C1A20997  12.333  19.938  13.262  0.1418  0.1532 -0.1933
 1790DOPS   D2A20998  12.392  19.861  12.806  0.0426 -0.1516 -0.0205
 1790DOPS   C3A20999  12.276  19.710  12.409  0.1030 -0.2109 -0.2158
 1790DOPS   C4A21000  12.502  19.618  12.035 -0.2512 -0.2250  0.0780
 1790DOPS   C1B21001  12.716  20.200  13.056  0.0171 -0.1893 -0.1243
 1790DOPS   D2B21002  12.881  20.062  12.637  0.3761  0.1955  0.1479
 1790DOPS   C3B21003  13.042  20.060  12.231 -0.3016 -0.0648  0.2034
 1790DOPS   C4B21004  13.096  20.454  12.000 -0.4449 -0.1185 -0.3328
 1791DOPE   NH321005  19.364  19.963  13.373  0.2733  0.1871  0.2339
 1791DOPE   PO421006  19.540  19.738  13.545 -0.1141  0.1934  0.0664
 1791DOPE   GL121007  19.720  19.752  13.138 -0.2381 -0.1037 -0.2817
 1791DOPE   GL221008  19.572  19.612  12.896 -0.0938  0.3074 -0.0855
 1791DOPE   C1A21009  20.067  19.828  12.866  0.0961 -0.1631  0.0315
 1791DOPE   D2A21010  20.479  19.905  12.632 -0.0699  0.0338 -0.2336
 1791DOPE   C3A21011  20.669  19.807  12.273 -0.1252  0.2021 -0.1551
 1791DOPE   C4A21012  20.885  19.416  12.128 -0.0221  0.1024 -0.2463
 1791DOPE   C1B21013  19.794  19.312  12.578 -0.1128  0.1112 -0.3074
 1791DOPE   D2B21014  19.662  19.265  12.104  0.1429 -0.1060 -0.1960
 1791DOPE   C3B21015  19.843  18.967  11.783  0.3015  0.1058 -0.2956
 1791DOPE   C4B21016  19.867  18.561  11.553 -0.1004 -0.2310 -0.2787
 1792DOPC   NC321017  10.968  16.922  13.838 -0.0598  0.3379 -0.0592
 1792DOPC   PO421018  10.707  16.666  13.926  0.1160 -0.2310  0.0262
 1792DOPC   GL121019  10.816  16.491  13.534 -0.2192  0.0340 -0.5267
 1792DOPC   GL221020  10.740  16.650  13.297 -0.2103  0.1759  0.2798
 1792DOPC   C1A21021  11.156  16.383  13.182  0.0941 -0.1692 -0.1792
 1792DOPC   D2A21022  11.471  16.294  12.865 -0.1293  0.0721  0.1847
 1792DOPC   C3A21023  11.496  15.841  12.719  0.1076 -0.1375 -0.0967
 1792DOPC   C4A21024  11.539  15.443  12.507  0.1150  0.1609  0.0562
 1792DOPC   C1B21025  10.679  16.180  13.206  0.0440 -0.2364 -0.1568
 1792DOPC   D2B21026  10.434  15.807  13.114  0.3402  0.2086  0.0648
 1792DOPC   C3B21027  10.716  15.459  12.952 -0.0133 -0.0443 -0.0665
 1792DOPC   C4B21028  10.653  14.972  12.946 -0.3290 -0.3238 -0.0477
 1793DOPS   CNO21029  10.646  12.951  15.390  0.3414 -0.1464 -0.3913
 1793DOPS   PO421030  10.537  12.959  15.013  0.0129  0.2559  0.0175
 1793DOPS   GL121031  10.439  13.262  14.712  0.1582 -0.0452  0.0078
 1793DOPS   GL221032  10.679  13.287  14.562  0.1367 -0.4700 -0.0490
 1793DOPS   C1A21033  10.319  13.053  14.288 -0.1021  0.1276  0.1582
 1793DOPS   D2A21034  10.318  13.072  13.780 -0.0100 -0.2558  0.1303
 1793DOPS   C3A21035  10.306  12.683  13.530  0.0649 -0.4617 -0.0718
 1793DOPS   C4A21036  10.066  12.355  13.600 -0.3761 -0.0318 -0.0181
 1793DOPS   C1B21037  10.816  13.058  14.145 -0.0073 -0.3789  0.2011
 1793DOPS   D2B21038  10.848  13.086  13.719 -0.0550 -0.1212  0.3022
 1793DOPS   C3B21039  11.227  12.917  13.482 -0.2490  0.0641 -0.0065
 1793DOPS   C4B21040  11.394  12.635  13.132 -0.2752 -0.0963 -0.0446
 1794DOPC   NC321041  15.228  12.561  14.934  0.0286  0.0333 -0.3311
 1794DOPC   PO421042  15.308  12.443  14.516 -0.0678  0.2460 -0.3344
 1794DOPC   GL121043  15.281  12.746  14.184  0.0746 -0.2528 -0.2814
 1794DOPC   GL221044  15.210  13.007  14.075  0.1699 -0.1305  0.1245
 1794DOPC   C1A21045  15.242  12.662  13.745  0.1822 -0.1784  0.1349
 1794DOPC   D2A21046  15.015  12.333  13.445 -0.2376  0.2720  0.3496
 1794DOPC   C3A21047  14.773  12.555  13.118  0.0228 -0.0026 -0.0663
 1794DOPC   C4A21048  14.500  12.841  13.271 -0.1057  0.0306  0.2906
 1794DOPC   C1B21049  15.289  13.349  13.771 -0.2336 -0.0124  0.0312
 1794DOPC   D2B21050  15.251  13.669  13.492  0.1936 -0.0941  0.0114
 1794DOPC   C3B21051  14.982  13.644  13.103  0.1068 -0.0124 -0.1354
 1794DOPC   C4B21052  15.003  13.665  12.682 -0.1465 -0.0132  0.0108
 1795DOPE   NH321053  21.402  19.056  13.382 -0.4154 -0.0625  0.0613
 1795DOPE   PO421054  21.571  18.788  13.446 -0.0004  0.0033  0.5019
 1795DOPE   GL121055  21.553  18.696  13.079  0.1679 -0.1837 -0.0848
 1795DOPE   GL221056  21.290  18.623  12.979 -0.0824 -0.0775  0.1409
 1795DOPE   C1A21057  21.693  18.793  12.635  0.2688 -0.2736 -0.0606
 1795DOPE   D2A21058  21.882  19.035  12.244  0.1052  0.1357  0.1491
 1795DOPE   C3A21059  21.631  18.880  11.875 -0.1847  0.0373 -0.1115
 1795DOPE   C4A21060  21.391  18.667  11.524 -0.0331  0.0341  0.1958
 1795DOPE   C1B21061  21.447  18.383  12.662 -0.0273  0.2060  0.0866
 1795DOPE   D2B21062  21.608  18.486  12.282  0.2660 -0.1462 -0.0660
 1795DOPE   C3B21063  21.250  18.525  11.977 -0.3992 -0.1913  0.0638
 1795DOPE   C4B21064  20.930  18.208  11.868  0.1924  0.1795 -0.1599
 1796POSM   NC321065  17.619  19.769  13.643 -0.1283  0.2730  0.0203
 1796POSM   PO421066  17.318  19.627  13.443 -0.0835  0.0233  0.4002
 1796POSM   AM121067  17.311  19.572  13.105 -0.2729 -0.0928  0.0179
 1796POSM   AM221068  17.141  19.441  12.884 -0.0268  0.1775 -0.1409
 1796POSM   T1A21069  17.514  19.524  12.628  0.3143 -0.2046  0.3112
 1796POSM   C2A21070  17.251  19.449  12.222  0.1294 -0.1041 -0.2894
 1796POSM   C3A21071  17.321  19.258  11.751 -0.2308  0.1883 -0.2793
 1796POSM   C1B21072  17.015  19.669  12.593 -0.0864 -0.0466 -0.0879
 1796POSM   D2B21073  16.738  19.748  12.222 -0.1131 -0.0616  0.4263
 1796POSM   C3B21074  16.767  19.512  11.821  0.2094 -0.3601  0.1021
 1796POSM   C4B21075  16.855  19.115  11.568 -0.1982 -0.3326  0.1677
 1797DOPE   NH321076  14.553  22.865  14.242 -0.3110  0.0161  0.0823
 1797DOPE   PO421077  14.359  22.688  14.026 -0.1360  0.1382  0.2026
 1797DOPE   GL121078  14.401  22.631  13.658  0.0552 -0.2123 -0.2441
 1797DOPE   GL221079  14.201  22.759  13.539  0.4180  0.2032 -0.0534
 1797DOPE   C1A21080  14.634  22.849  13.315  0.1359 -0.0876 -0.0633
 1797DOPE   D2A21081  14.785  22.803  12.888 -0.1854  0.2343 -0.0115
 1797DOPE   C3A21082  14.839  23.148  12.597  0.0768 -0.0202 -0.2193
 1797DOPE   C4A21083  14.871  23.271  12.157  0.3421  0.1644 -0.1789
 1797DOPE   C1B21084  14.179  23.044  13.245  0.0488  0.2068  0.1814
 1797DOPE   D2B21085  13.940  23.285  12.965 -0.3287 -0.1959  0.2346
 1797DOPE   C3B21086  13.906  23.089  12.543  0.2704  0.0903  0.0472
 1797DOPE   C4B21087  13.866  23.112  12.089 -0.0069  0.1653 -0.0488
 1798POSM   NC321088  19.575  17.515  13.461  0.0490  0.0518  0.1101
 1798POSM   PO421089  19.802  17.852  13.493  0.2465  0.0471 -0.0587
 1798POSM   AM121090  19.771  17.870  13.172 -0.2512 -0.1835 -0.3727
 1798POSM   AM221091  19.875  17.731  12.961  0.2066  0.0611 -0.0605
 1798POSM   T1A21092  19.664  18.050  12.674  0.1733  0.2347 -0.0494
 1798POSM   C2A21093  19.516  18.250  12.286 -0.1096  0.2835  0.2615
 1798POSM   C3A21094  19.527  18.198  11.825  0.3908  0.0130 -0.3089
 1798POSM   C1B21095  20.140  17.796  12.784 -0.1571  0.1336  0.2111
 1798POSM   D2B21096  20.362  17.563  12.428 -0.3387 -0.1208  0.0729
 1798POSM   C3B21097  20.419  17.112  12.416 -0.0659 -0.1978 -0.1456
 1798POSM   C4B21098  20.630  16.756  12.148  0.1058 -0.0520 -0.1637
 1799DOPC   NC321099  21.485  15.744  13.627  0.0298  0.1529  0.1392
 1799DOPC   PO421100  21.350  15.709  13.220  0.1834  0.0301 -0.2667
 1799DOPC   GL121101  21.179  15.834  12.948 -0.4275  0.0239 -0.0093
 1799DOPC   GL221102  20.914  15.683  12.958 -0.3116  0.0912 -0.2902
 1799DOPC   C1A21103  21.253  15.784  12.487 -0.0178 -0.0765  0.3609
 1799DOPC   D2A21104  21.511  15.654  12.116 -0.1084  0.0364  0.0233
 1799DOPC   C3A21105  21.275  15.669  11.665  0.4127  0.0125  0.1887
 1799DOPC   C4A21106  21.049  15.974  11.446 -0.3281 -0.0847 -0.1443
 1799DOPC   C1B21107  20.724  15.709  12.526 -0.0902  0.1222  0.2230
 1799DOPC   D2B21108  20.851  15.667  12.069  0.1889  0.1279  0.1162
 1799DOPC   C3B21109  20.401  15.519  12.046 -0.1840 -0.0709 -0.2839
 1799DOPC   C4B21110  20.113  15.137  12.067  0.0428 -0.2102 -0.2503
 1800DOPE   NH321111  16.919  22.944  14.509  0.0909  0.0254  0.2128
 1800DOPE   PO421112  17.128  22.831  14.277 -0.0049  0.0126  0.0702
 1800DOPE   GL121113  17.090  22.994  13.906  0.1760 -0.3571  0.3125
 1800DOPE   GL221114  16.943  22.899  13.679 -0.0910 -0.1395  0.0094
 1800DOPE   C1A21115  17.294  23.273  13.564  0.3256 -0.3489  0.0081
 1800DOPE   D2A21116  17.524  23.257  13.170  0.0812 -0.4115  0.1572
 1800DOPE   C3A21117  17.664  22.946  12.873 -0.0224 -0.0002  0.0460
 1800DOPE   C4A21118  17.499  22.668  12.528 -0.0482  0.3593  0.0578
 1800DOPE   C1B21119  16.897  22.818  13.248 -0.2472  0.2721  0.2027
 1800DOPE   D2B21120  17.153  22.815  12.860  0.0065 -0.1855  0.0797
 1800DOPE   C3B21121  17.017  22.838  12.368 -0.0177  0.1960 -0.2345
 1800DOPE   C4B21122  16.990  22.544  11.993 -0.2655  0.1069 -0.1215
 1801POSM   NC321123  21.194  10.656  14.214  0.0060 -0.3396  0.1028
 1801POSM   PO421124  20.968  10.998  14.189 -0.1456 -0.1834  0.0102
 1801POSM   AM121125  20.903  10.976  13.860  0.0233 -0.1825 -0.0397
 1801POSM   AM221126  20.745  11.132  13.697 -0.0342 -0.2652 -0.0065
 1801POSM   T1A21127  20.607  10.672  13.551  0.1363 -0.0437  0.0310
 1801POSM   C2A21128  20.487  10.229  13.557  0.0692  0.1529  0.1028
 1801POSM   C3A21129  20.501   9.867  13.872 -0.0318 -0.0989  0.0842
 1801POSM   C1B21130  20.591  11.135  13.454  0.1087 -0.1713 -0.2051
 1801POSM   D2B21131  20.367  10.944  13.036 -0.1061 -0.0991  0.0914
 1801POSM   C3B21132  20.167  11.265  12.829  0.0587  0.2235 -0.0524
 1801POSM   C4B21133  20.227  11.640  12.671 -0.0255  0.0650 -0.2201
 1802DOPE   NH321134  18.609  20.121  13.724 -0.2312  0.2940  0.0127
 1802DOPE   PO421135  18.710  20.379  13.543  0.1677  0.2952 -0.0223
 1802DOPE   GL121136  18.421  20.428  13.218  0.3025  0.0477  0.4501
 1802DOPE   GL221137  18.374  20.727  13.217 -0.1760  0.0960 -0.0091
 1802DOPE   C1A21138  18.444  20.535  12.722  0.0541 -0.3492 -0.2196
 1802DOPE   D2A21139  18.194  20.320  12.353  0.2116  0.0151  0.2362
 1802DOPE   C3A21140  18.341  20.474  11.922  0.0057  0.1916 -0.2245
 1802DOPE   C4A21141  18.289  20.557  11.486  0.0570  0.0986 -0.3734
 1802DOPE   C1B21142  18.540  20.988  12.895  0.2511  0.0768  0.0955
 1802DOPE   D2B21143  18.681  21.076  12.435 -0.2656  0.2849 -0.0367
 1802DOPE   C3B21144  18.274  20.888  12.250  0.0820  0.1479  0.0322
 1802DOPE   C4B21145  17.834  20.739  12.099 -0.1750 -0.1106  0.2222
 1803DOPE   NH321146   9.962  17.978  13.854 -0.3465  0.0692 -0.0006
 1803DOPE   PO421147   9.944  17.684  13.838 -0.5035  0.2360 -0.0967
 1803DOPE   GL121148  10.160  17.852  13.459  0.1523 -0.0386  0.4387
 1803DOPE   GL221149   9.964  18.030  13.299  0.1668 -0.0437  0.2705
 1803DOPE   C1A21150  10.319  17.678  13.097  0.0233  0.0724 -0.2380
 1803DOPE   D2A21151  10.440  17.520  12.683  0.0718  0.0751 -0.1656
 1803DOPE   C3A21152  10.138  17.382  12.396  0.1279 -0.2175  0.1409
 1803DOPE   C4A21153   9.850  17.482  12.018 -0.1366 -0.1281  0.1703
 1803DOPE   C1B21154   9.940  18.446  13.032 -0.0691 -0.3635  0.2353
 1803DOPE   D2B21155   9.610  18.663  12.754  0.0969 -0.3015  0.0732
 1803DOPE   C3B21156   9.414  18.328  12.647 -0.3118  0.0319 -0.0086
 1803DOPE   C4B21157   9.305  18.225  12.256  0.1587  0.3357 -0.0507
 1804DOPE   NH321158  19.624  16.785  12.926  0.0927 -0.0611  0.0175
 1804DOPE   PO421159  19.747  16.516  12.909 -0.1159 -0.0244  0.1470
 1804DOPE   GL121160  19.999  16.767  12.546  0.1498 -0.2954 -0.2717
 1804DOPE   GL221161  19.830  17.064  12.522 -0.0435 -0.2087  0.1336
 1804DOPE   C1A21162  20.012  16.637  12.071  0.0430 -0.0905  0.3571
 1804DOPE   D2A21163  20.056  16.358  11.653 -0.0862 -0.0860  0.1503
 1804DOPE   C3A21164  20.274  16.331  11.265  0.0679 -0.0999  0.0714
 1804DOPE   C4A21165  20.714  16.502  11.213 -0.1858 -0.0556 -0.1193
 1804DOPE   C1B21166  19.579  16.970  12.104 -0.1188  0.0061 -0.1368
 1804DOPE   D2B21167  19.610  16.533  11.838 -0.1645  0.3038  0.1684
 1804DOPE   C3B21168  19.694  16.094  11.870 -0.1746 -0.0880 -0.0874
 1804DOPE   C4B21169  20.090  15.927  11.877 -0.2122 -0.3021  0.1623
 1805DOPE   NH321170  15.001  10.569  14.639 -0.0266 -0.2141 -0.1504
 1805DOPE   PO421171  15.008  10.269  14.554  0.3141 -0.3930  0.3902
 1805DOPE   GL121172  14.612  10.269  14.454  0.1139 -0.3475 -0.1497
 1805DOPE   GL221173  14.411  10.506  14.511  0.0630 -0.3392  0.3930
 1805DOPE   C1A21174  14.576  10.091  14.009 -0.1002 -0.1457 -0.0575
 1805DOPE   D2A21175  14.874  10.081  13.671  0.1974 -0.2351  0.3251
 1805DOPE   C3A21176  14.966  10.317  13.261 -0.2100 -0.0734 -0.1332
 1805DOPE   C4A21177  14.647  10.342  12.946  0.3017 -0.1145 -0.3916
 1805DOPE   C1B21178  14.264  10.619  14.132 -0.0810 -0.0881 -0.0542
 1805DOPE   D2B21179  14.252  10.873  13.702  0.1558 -0.1095 -0.2904
 1805DOPE   C3B21180  14.642  11.056  13.454 -0.0061  0.2244 -0.1476
 1805DOPE   C4B21181  15.055  11.208  13.297 -0.1293 -0.5200  0.0191
 1806POSM   NC321182  19.310  12.925  13.067 -0.1350 -0.1554 -0.4407
 1806POSM   PO421183  19.462  13.202  13.271 -0.0467 -0.0350  0.1271
 1806POSM   AM121184  19.644  13.240  12.985  0.1431  0.0918  0.0667
 1806POSM   AM221185  19.564  13.335  12.737 -0.0202 -0.0110 -0.1807
 1806POSM   T1A21186  20.024  13.503  12.692 -0.3744  0.2334  0.1467
 1806POSM   C2A21187  20.438  13.635  12.511  0.2847 -0.0212 -0.2411
 1806POSM   C3A21188  20.538  13.831  12.032 -0.3618  0.1388 -0.0760
 1806POSM   C1B21189  19.434  13.412  12.500 -0.1538  0.1503  0.3325
 1806POSM   D2B21190  19.350  13.387  12.033  0.3257  0.3472 -0.1455
 1806POSM   C3B21191  19.410  13.541  11.579 -0.2214 -0.1611 -0.1581
 1806POSM   C4B21192  19.752  13.792  11.364 -0.0712 -0.0256  0.2208
 1807DOPE   NH321193  20.729  17.947  13.348 -0.0024  0.0686 -0.5203
 1807DOPE   PO421194  20.958  18.164  13.507 -0.2359 -0.0260 -0.3062
 1807DOPE   GL121195  21.021  18.275  13.084 -0.0917 -0.2076  0.0354
 1807DOPE   GL221196  21.211  18.041  13.067 -0.0277  0.1050 -0.1714
 1807DOPE   C1A21197  20.903  18.518  12.710  0.0709 -0.1082 -0.0142
 1807DOPE   D2A21198  20.888  18.352  12.300 -0.2050 -0.1934 -0.1144
 1807DOPE   C3A21199  21.283  18.088  12.239  0.0903  0.1325  0.2875
 1807DOPE   C4A21200  21.530  17.990  11.781 -0.0358 -0.0256 -0.1497
 1807DOPE   C1B21201  21.005  17.904  12.652  0.2186  0.0133  0.1317
 1807DOPE   D2B21202  20.902  17.717  12.303 -0.0684  0.0913 -0.0206
 1807DOPE   C3B21203  21.027  17.673  11.850  0.4375  0.1337  0.3722
 1807DOPE   C4B21204  21.373  17.533  11.593 -0.4292 -0.0675  0.2754
 1808DOPE   NH321205  18.418  19.193  13.332 -0.2628 -0.0110 -0.0768
 1808DOPE   PO421206  18.638  19.408  13.282  0.1631 -0.1248 -0.0941
 1808DOPE   GL121207  18.755  19.626  12.951 -0.0760  0.1643  0.2374
 1808DOPE   GL221208  18.808  19.359  12.736 -0.1517  0.1364  0.1567
 1808DOPE   C1A21209  18.982  19.865  12.678  0.0523 -0.1723  0.0717
 1808DOPE   D2A21210  18.771  20.237  12.465 -0.1625  0.3011 -0.1243
 1808DOPE   C3A21211  18.681  20.613  12.188  0.0058 -0.2381 -0.0507
 1808DOPE   C4A21212  18.795  20.899  11.874  0.1166  0.0508  0.1453
 1808DOPE   C1B21213  18.967  19.023  12.502  0.2267  0.1728 -0.0204
 1808DOPE   D2B21214  19.107  18.847  12.048  0.0527 -0.1458 -0.0678
 1808DOPE   C3B21215  19.510  18.667  12.037  0.0805 -0.1209 -0.1134
 1808DOPE   C4B21216  19.941  18.455  12.039 -0.0536 -0.0676  0.1883
 1809POSM   NC321217  19.467  14.131  13.570  0.1102 -0.0257  0.0568
 1809POSM   PO421218  19.804  14.065  13.325  0.0953 -0.0350 -0.0496
 1809POSM   AM121219  19.875  13.931  13.013  0.2913  0.0746 -0.2119
 1809POSM   AM221220  20.099  13.961  12.861 -0.1949 -0.1109  0.0897
 1809POSM   T1A21221  19.714  13.848  12.558  0.2394  0.5867 -0.1369
 1809POSM   C2A21222  19.432  13.849  12.192 -0.1476  0.1321 -0.2033
 1809POSM   C3A21223  19.067  13.798  11.923  0.1579  0.0993  0.2055
 1809POSM   C1B21224  20.140  14.074  12.522  0.0749  0.0728  0.2432
 1809POSM   D2B21225  20.122  14.267  12.064  0.1643 -0.1211 -0.3282
 1809POSM   C3B21226  19.839  14.641  12.017 -0.0456 -0.3245  0.1186
 1809POSM   C4B21227  19.762  14.952  11.707 -0.1489  0.4849  0.0793
 1810DOPC   NC321228  12.969  20.554  13.803  0.2542  0.2730  0.1157
 1810DOPC   PO421229  12.592  20.681  13.859 -0.1262  0.2588  0.1994
 1810DOPC   GL121230  12.726  20.775  13.428  0.1048 -0.2732 -0.0057
 1810DOPC   GL221231  12.950  20.839  13.173  0.0143 -0.2697 -0.0777
 1810DOPC   C1A21232  12.546  21.048  13.106 -0.0308  0.1085 -0.0525
 1810DOPC   D2A21233  12.312  21.191  12.732  0.0470  0.0917 -0.0470
 1810DOPC   C3A21234  12.387  21.363  12.300 -0.0432 -0.1385 -0.2275
 1810DOPC   C4A21235  12.596  21.514  11.896  0.0588 -0.0279  0.3986
 1810DOPC   C1B21236  13.183  20.556  12.984 -0.2029  0.1189 -0.0349
 1810DOPC   D2B21237  13.464  20.356  12.728 -0.0194 -0.1263 -0.2164
 1810DOPC   C3B21238  13.569  19.932  12.659  0.1799 -0.3490  0.1024
 1810DOPC   C4B21239  13.540  19.666  12.229 -0.0872  0.1819  0.1359
 1811DOPE   NH321240  11.183  14.015  15.137 -0.0410  0.0506 -0.2793
 1811DOPE   PO421241  10.934  14.124  14.976 -0.1436 -0.0571 -0.2036
 1811DOPE   GL121242  11.033  13.972  14.646  0.3407  0.0620 -0.3143
 1811DOPE   GL221243  11.226  13.775  14.663  0.1029  0.0699  0.0650
 1811DOPE   C1A21244  10.861  13.753  14.322 -0.0133  0.1518  0.0964
 1811DOPE   D2A21245  10.658  13.547  13.985  0.2180 -0.4278 -0.2324
 1811DOPE   C3A21246  10.583  13.830  13.648  0.0059 -0.5890  0.0588
 1811DOPE   C4A21247  10.735  13.950  13.206  0.1397  0.2159  0.0691
 1811DOPE   C1B21248  11.634  13.858  14.550 -0.0522 -0.3797 -0.4245
 1811DOPE   D2B21249  11.967  13.676  14.208  0.1519 -0.1222 -0.1493
 1811DOPE   C3B21250  12.172  14.019  14.002 -0.1335  0.2241 -0.1507
 1811DOPE   C4B21251  12.300  14.210  13.554 -0.1084 -0.2565 -0.0278
 1812DOPC   NC321252  24.322  15.904  13.562 -0.1903 -0.1988 -0.1113
 1812DOPC   PO421253  23.965  15.800  13.466 -0.0979  0.1268  0.0884
 1812DOPC   GL121254  23.804  15.830  13.092  0.0607  0.1651  0.0744
 1812DOPC   GL221255  24.043  15.745  12.895 -0.4600 -0.4737 -0.0324
 1812DOPC   C1A21256  23.587  16.156  12.878  0.1047  0.3185  0.0935
 1812DOPC   D2A21257  23.424  16.169  12.407 -0.0641 -0.1294  0.0050
 1812DOPC   C3A21258  23.035  16.276  12.152 -0.2372  0.2656  0.0829
 1812DOPC   C4A21259  22.750  16.327  11.754 -0.2406  0.3835  0.2051
 1812DOPC   C1B21260  23.710  15.582  12.633 -0.0520 -0.0185 -0.2803
 1812DOPC   D2B21261  23.269  15.613  12.611  0.1959 -0.2011 -0.0786
 1812DOPC   C3B21262  23.004  15.995  12.690 -0.5270 -0.0288 -0.1480
 1812DOPC   C4B21263  22.886  16.398  12.632  0.0952 -0.2369 -0.0192
 1813POSM   NC321264  14.278  10.980  14.513 -0.1142  0.0279 -0.2511
 1813POSM   PO421265  14.648  11.018  14.442  0.3247 -0.3597  0.1625
 1813POSM   AM121266  14.816  10.824  14.247 -0.3396 -0.3413  0.0668
 1813POSM   AM221267  14.846  10.543  14.142  0.0157  0.4093  0.2636
 1813POSM   T1A21268  14.979  10.947  13.802  0.2322  0.0908  0.1533
 1813POSM   C2A21269  15.087  10.744  13.426  0.6242  0.0495  0.2306
 1813POSM   C3A21270  15.168  10.816  13.012 -0.0750  0.1292 -0.1208
 1813POSM   C1B21271  14.713  10.529  13.833  0.1003  0.1507 -0.1836
 1813POSM   D2B21272  14.525  10.508  13.423 -0.0943  0.1284 -0.3176
 1813POSM   C3B21273  14.327  10.836  13.107 -0.2154  0.0093  0.2573
 1813POSM   C4B21274  14.330  10.856  12.652  0.2566  0.1976 -0.2739
 1814DOPE   NH321275  18.002  17.091  12.376  0.0312 -0.2043 -0.3587
 1814DOPE   PO421276  17.966  16.854  12.562  0.0033 -0.0317  0.0705
 1814DOPE   GL121277  17.983  16.620  12.336  0.6660  0.0606 -0.1159
 1814DOPE   GL221278  18.213  16.588  12.120 -0.0276  0.1447  0.0530
 1814DOPE   C1A21279  17.916  16.260  11.988  0.2991 -0.0175 -0.2016
 1814DOPE   D2A21280  18.097  15.853  11.893 -0.2665 -0.1904 -0.0679
 1814DOPE   C3A21281  18.377  15.867  11.497  0.1874  0.0983  0.1687
 1814DOPE   C4A21282  18.259  16.093  11.112  0.0824 -0.1369 -0.0899
 1814DOPE   C1B21283  18.691  16.602  12.071 -0.0370  0.0658  0.3245
 1814DOPE   D2B21284  19.142  16.524  12.066  0.1185  0.2232 -0.1043
 1814DOPE   C3B21285  19.348  16.183  12.273 -0.2741 -0.0407 -0.0401
 1814DOPE   C4B21286  19.818  16.145  12.358 -0.2253  0.0916  0.1557
 1815DOPE   NH321287  22.160  16.094  13.493 -0.2494  0.1009  0.1472
 1815DOPE   PO421288  22.079  16.443  13.531  0.0499  0.1123 -0.2350
 1815DOPE   GL121289  22.199  16.544  13.244 -0.0817  0.1192 -0.0723
 1815DOPE   GL221290  22.438  16.336  13.116 -0.1664  0.0917  0.1141
 1815DOPE   C1A21291  22.082  16.586  12.813 -0.1001 -0.1319  0.0873
 1815DOPE   D2A21292  21.958  16.561  12.387 -0.1059 -0.3177  0.0685
 1815DOPE   C3A21293  22.013  16.450  11.931 -0.0131  0.0023  0.1377
 1815DOPE   C4A21294  21.796  16.466  11.597  0.0503  0.1487  0.2034
 1815DOPE   C1B21295  22.500  16.149  12.698  0.2059 -0.0918  0.2538
 1815DOPE   D2B21296  22.368  16.089  12.266  0.4283  0.0009 -0.1366
 1815DOPE   C3B21297  21.979  16.008  12.118 -0.3818  0.0479 -0.4083
 1815DOPE   C4B21298  21.824  15.791  11.770  0.1124  0.0417  0.1710
 1816POSM   NC321299  14.085  12.171  14.632 -0.0621 -0.1170 -0.0497
 1816POSM   PO421300  14.216  12.447  14.424  0.0882  0.0163 -0.0655
 1816POSM   AM121301  14.344  12.499  14.117  0.1341  0.1632  0.1657
 1816POSM   AM221302  14.313  12.417  13.831 -0.0018  0.1488 -0.0474
 1816POSM   T1A21303  14.719  12.685  13.836  0.0046  0.0598  0.0542
 1816POSM   C2A21304  14.941  12.954  13.533  0.3781 -0.1529  0.0332
 1816POSM   C3A21305  14.842  13.358  13.461  0.3477  0.2238  0.2209
 1816POSM   C1B21306  14.375  12.409  13.475  0.2301  0.1020  0.0018
 1816POSM   D2B21307  14.406  12.312  12.991 -0.0146  0.1897  0.0234
 1816POSM   C3B21308  14.598  12.555  12.622  0.1320 -0.0590  0.1862
 1816POSM   C4B21309  14.625  13.070  12.531  0.2073 -0.2766  0.0684
 1817DOPS   CNO21310  17.894  13.824  13.289 -0.1985  0.1878 -0.0943
 1817DOPS   PO421311  18.039  13.734  12.964  0.1307 -0.1456 -0.0505
 1817DOPS   GL121312  18.042  13.463  12.787 -0.3939 -0.0780  0.0259
 1817DOPS   GL221313  17.990  13.190  12.813 -0.0742  0.0227  0.0204
 1817DOPS   C1A21314  17.844  13.555  12.349  0.0266 -0.0677  0.2644
 1817DOPS   D2A21315  17.778  13.538  11.860  0.1766  0.0823 -0.1474
 1817DOPS   C3A21316  18.091  13.383  11.582 -0.3745  0.1407  0.2015
 1817DOPS   C4A21317  18.526  13.324  11.575 -0.0177 -0.1130  0.0910
 1817DOPS   C1B21318  18.098  13.072  12.399 -0.1828  0.0526  0.0198
 1817DOPS   D2B21319  17.904  12.957  11.997 -0.3909 -0.0043  0.0689
 1817DOPS   C3B21320  17.752  12.507  11.967 -0.0918  0.1329  0.3128
 1817DOPS   C4B21321  18.013  12.147  11.940 -0.3831 -0.1387 -0.1084
 1818DOPC   NC321322  13.598  23.760  13.807 -0.0064  0.3146  0.1983
 1818DOPC   PO421323  13.340  23.477  13.786 -0.1308 -0.1161  0.2540
 1818DOPC   GL121324  13.283  23.461  13.476  0.1359  0.0817  0.1739
 1818DOPC   GL221325  13.438  23.714  13.343 -0.0492  0.3937 -0.1441
 1818DOPC   C1A21326  13.420  23.362  13.058  0.1321  0.1114 -0.0129
 1818DOPC   D2A21327  13.395  22.983  12.747 -0.1794  0.3478  0.0863
 1818DOPC   C3A21328  13.100  22.776  12.458  0.0938  0.0141  0.0163
 1818DOPC   C4A21329  12.759  22.891  12.139 -0.2488 -0.0676 -0.0607
 1818DOPC   C1B21330  13.654  23.792  12.895 -0.2147 -0.2485 -0.1594
 1818DOPC   D2B21331  13.599  23.456  12.566  0.1068  0.0891  0.2789
 1818DOPC   C3B21332  13.346  23.164  12.276 -0.0383  0.1918  0.1601
 1818DOPC   C4B21333  13.381  23.137  11.843  0.0232  0.1225  0.1386
 1819POSM   NC321334  15.568  17.290  13.490 -0.2258 -0.0240  0.1543
 1819POSM   PO421335  15.686  16.972  13.306 -0.1374 -0.0378  0.0725
 1819POSM   AM121336  15.800  17.057  12.971 -0.1510 -0.3859  0.1581
 1819POSM   AM221337  16.039  17.041  12.831 -0.1947  0.1418 -0.0285
 1819POSM   T1A21338  15.768  16.942  12.486  0.0178 -0.0437 -0.0765
 1819POSM   C2A21339  15.738  17.115  12.099 -0.1784  0.2088  0.3437
 1819POSM   C3A21340  15.489  17.205  11.786  0.1615  0.1350 -0.0885
 1819POSM   C1B21341  16.163  17.212  12.555  0.0494 -0.3556 -0.4277
 1819POSM   D2B21342  16.201  17.424  12.148  0.0552  0.0963 -0.1109
 1819POSM   C3B21343  15.908  17.511  11.805 -0.1722  0.0594  0.0160
 1819POSM   C4B21344  15.907  17.783  11.425  0.3143  0.0481 -0.2481
 1820DOPE   NH321345  18.278  13.121  13.427  0.0189  0.1679 -0.0165
 1820DOPE   PO421346  18.365  12.925  13.199  0.0446  0.1561 -0.1827
 1820DOPE   GL121347  18.433  12.877  12.829  0.0150 -0.0226  0.1049
 1820DOPE   GL221348  18.204  12.684  12.703 -0.1695 -0.0664 -0.2528
 1820DOPE   C1A21349  18.636  13.029  12.449  0.0581  0.1481  0.0885
 1820DOPE   D2A21350  18.941  13.386  12.300 -0.2119 -0.0728 -0.0875
 1820DOPE   C3A21351  18.915  13.234  11.853  0.2290 -0.2709  0.1698
 1820DOPE   C4A21352  18.742  12.908  11.631  0.3217  0.4287  0.1808
 1820DOPE   C1B21353  18.596  12.480  12.605  0.2484  0.4912 -0.1324
 1820DOPE   D2B21354  19.054  12.637  12.590  0.0206  0.1257  0.1622
 1820DOPE   C3B21355  19.394  12.397  12.271 -0.0978  0.1570  0.2072
 1820DOPE   C4B21356  19.590  12.365  11.811  0.2983 -0.0384  0.0230
 1821DOPS   CNO21357  16.470   9.389  15.185 -0.1206 -0.0159  0.0342
 1821DOPS   PO421358  16.466   9.404  14.815 -0.0454  0.2758  0.2792
 1821DOPS   GL121359  16.481   9.161  14.389  0.0534  0.1854  0.1864
 1821DOPS   GL221360  16.689   9.146  14.220 -0.2929 -0.1742  0.1468
 1821DOPS   C1A21361  16.228   9.283  14.003 -0.1622  0.0274 -0.3129
 1821DOPS   D2A21362  15.880   9.684  13.913 -0.2008 -0.0204 -0.2723
 1821DOPS   C3A21363  15.871   9.726  13.474  0.3496 -0.2252 -0.2216
 1821DOPS   C4A21364  15.949   9.485  13.084  0.0565 -0.2612 -0.2074
 1821DOPS   C1B21365  16.995   9.429  14.002  0.0411  0.2383 -0.2361
 1821DOPS   D2B21366  17.196   9.606  13.658  0.3164 -0.0806 -0.1965
 1821DOPS   C3B21367  16.783   9.408  13.405  0.0563  0.0563  0.0175
 1821DOPS   C4B21368  16.538   9.497  13.070 -0.0368 -0.0510  0.0383
 1822DOPS   CNO21369  17.845  24.131  14.343  0.0469  0.2993 -0.2246
 1822DOPS   PO421370  17.762  24.192  13.989  0.3013 -0.0949  0.2278
 1822DOPS   GL121371  17.590  23.892  13.748 -0.1724 -0.2318 -0.0880
 1822DOPS   GL221372  17.317  23.858  13.792 -0.0076 -0.0339 -0.1620
 1822DOPS   C1A21373  17.677  23.711  13.307  0.1783  0.1529  0.1619
 1822DOPS   D2A21374  17.547  23.779  12.926  0.2982  0.0460 -0.3610
 1822DOPS   C3A21375  17.567  23.454  12.656 -0.0978  0.2077 -0.0673
 1822DOPS   C4A21376  17.629  23.108  12.383  0.1614 -0.1817  0.1359
 1822DOPS   C1B21377  17.366  24.159  13.482  0.0974 -0.2368  0.3006
 1822DOPS   D2B21378  17.467  24.303  13.053 -0.1688  0.1878 -0.0732
 1822DOPS   C3B21379  17.245  24.267  12.628 -0.2799  0.1592 -0.0073
 1822DOPS   C4B21380  17.111  24.645  12.338 -0.0794  0.2509  0.1860
 1823DOPE   NH321381  22.960  12.924  13.663  0.0492  0.0801  0.1610
 1823DOPE   PO421382  22.891  13.238  13.545 -0.1862  0.3428 -0.5602
 1823DOPE   GL121383  22.723  13.350  13.246 -0.0207 -0.2090 -0.0386
 1823DOPE   GL221384  22.614  13.135  13.133 -0.1593  0.1558 -0.2997
 1823DOPE   C1A21385  22.917  13.287  12.791 -0.2213 -0.0532 -0.1338
 1823DOPE   D2A21386  23.018  13.199  12.331 -0.1964  0.2825 -0.0815
 1823DOPE   C3A21387  22.983  13.498  12.044 -0.1912  0.0151 -0.0056
 1823DOPE   C4A21388  23.366  13.741  11.818  0.0413 -0.1318 -0.1294
 1823DOPE   C1B21389  22.881  12.828  12.991 -0.0892  0.1057  0.0204
 1823DOPE   D2B21390  23.094  12.809  12.605 -0.0418 -0.0043 -0.1347
 1823DOPE   C3B21391  23.042  12.467  12.261  0.1206 -0.1507 -0.0589
 1823DOPE   C4B21392  22.832  12.090  12.084  0.0105  0.0071  0.0270
 1824DOPC   NC321393  16.131  10.407  14.062 -0.0740 -0.0027 -0.0138
 1824DOPC   PO421394  16.096  10.671  13.793  0.1285 -0.0701  0.1876
 1824DOPC   GL121395  16.352  10.783  13.532  0.1717 -0.0666 -0.0446
 1824DOPC   GL221396  16.347  11.126  13.483 -0.0385 -0.1123  0.3218
 1824DOPC   C1A21397  16.567  10.480  13.236  0.0555 -0.0430  0.2533
 1824DOPC   D2A21398  16.627  10.077  12.953 -0.2668  0.0686  0.3610
 1824DOPC   C3A21399  16.491  10.215  12.512  0.2505 -0.3086 -0.0475
 1824DOPC   C4A21400  16.662  10.276  12.117  0.2055  0.0426 -0.1200
 1824DOPC   C1B21401  16.312  11.612  13.442  0.1146  0.1916  0.1193
 1824DOPC   D2B21402  16.451  12.014  13.283  0.0706  0.0388  0.1200
 1824DOPC   C3B21403  16.360  12.226  12.860 -0.0106  0.0847 -0.2965
 1824DOPC   C4B21404  16.020  12.266  12.538  0.1114 -0.0938  0.0800
 1825DOPS   CNO21405  24.327  17.147  13.969  0.1034 -0.0285 -0.0256
 1825DOPS   PO421406  24.095  17.233  13.656  0.0643 -0.0271  0.6233
 1825DOPS   GL121407  24.294  17.285  13.297  0.0238 -0.0856  0.2459
 1825DOPS   GL221408  24.534  17.234  13.286 -0.0227  0.1270  0.0656
 1825DOPS   C1A21409  24.155  17.175  12.835  0.3135 -0.3475 -0.1120
 1825DOPS   D2A21410  23.972  17.146  12.430 -0.3011  0.0992 -0.0456
 1825DOPS   C3A21411  24.063  16.956  11.985 -0.1984 -0.2423  0.0766
 1825DOPS   C4A21412  24.105  17.047  11.522  0.2429  0.1011  0.0735
 1825DOPS   C1B21413  24.613  16.932  12.954  0.1758  0.4362  0.1464
 1825DOPS   D2B21414  24.913  16.832  12.658 -0.4141  0.2339 -0.0676
 1825DOPS   C3B21415  24.938  16.753  12.216  0.0402  0.0931  0.0691
 1825DOPS   C4B21416  24.988  16.511  11.800 -0.1228 -0.2070  0.0295
 1826DOPE   NH321417  12.681  23.171  14.353  0.3067  0.2149  0.1604
 1826DOPE   PO421418  12.672  23.131  14.025  0.0016 -0.0831  0.1112
 1826DOPE   GL121419  12.599  23.205  13.551 -0.4609  0.1026  0.0588
 1826DOPE   GL221420  12.793  23.336  13.508 -0.3339 -0.0806  0.0821
 1826DOPE   C1A21421  12.622  23.118  13.128 -0.0766  0.1787  0.2725
 1826DOPE   D2A21422  12.961  23.234  12.836 -0.0680 -0.0246  0.1004
 1826DOPE   C3A21423  12.869  23.371  12.424 -0.0025  0.0092  0.0304
 1826DOPE   C4A21424  12.856  23.432  11.979  0.2947  0.0400  0.0200
 1826DOPE   C1B21425  12.964  23.627  13.177  0.2327  0.3462  0.1570
 1826DOPE   D2B21426  13.174  23.786  12.818 -0.0128  0.1181 -0.0613
 1826DOPE   C3B21427  13.271  23.720  12.378  0.0250 -0.2247 -0.3857
 1826DOPE   C4B21428  13.138  23.841  11.975 -0.0916  0.1780  0.0446
 1827DOPE   NH321429  21.715  16.797  13.658 -0.1919 -0.1586  0.0301
 1827DOPE   PO421430  21.440  16.970  13.532  0.1135  0.0887  0.3455
 1827DOPE   GL121431  21.359  17.177  13.263 -0.0255  0.3038  0.2995
 1827DOPE   GL221432  21.602  17.415  13.190 -0.1433 -0.3820  0.0572
 1827DOPE   C1A21433  21.212  17.029  12.861  0.0278 -0.3906 -0.1200
 1827DOPE   D2A21434  20.989  16.738  12.579 -0.1981  0.0913  0.1447
 1827DOPE   C3A21435  21.134  16.620  12.140  0.0221  0.1626  0.4593
 1827DOPE   C4A21436  20.967  16.499  11.725 -0.2589 -0.0881  0.1885
 1827DOPE   C1B21437  21.422  17.496  12.780  0.1030 -0.0463  0.2983
 1827DOPE   D2B21438  21.361  17.500  12.340  0.3401  0.0426  0.1039
 1827DOPE   C3B21439  21.472  17.200  11.969 -0.0178  0.0918  0.3257
 1827DOPE   C4B21440  21.510  16.837  11.640  0.1462  0.1181  0.0133
 1828DOPE   NH321441  15.516  15.241  13.168 -0.1147  0.0750 -0.2497
 1828DOPE   PO421442  15.409  14.978  13.087 -0.0013 -0.1545  0.0914
 1828DOPE   GL121443  15.252  14.882  12.691  0.3137 -0.0531  0.1334
 1828DOPE   GL221444  15.507  14.790  12.559 -0.1591  0.2277  0.4330
 1828DOPE   C1A21445  14.926  15.161  12.775 -0.0223 -0.1080  0.0630
 1828DOPE   D2A21446  14.615  15.477  13.009  0.2476 -0.1922 -0.2123
 1828DOPE   C3A21447  14.622  15.856  12.662 -0.1191 -0.2597 -0.1229
 1828DOPE   C4A21448  14.888  16.065  12.354  0.1215  0.0315  0.0089
 1828DOPE   C1B21449  15.517  15.063  12.223 -0.0861 -0.4873 -0.0590
 1828DOPE   D2B21450  15.590  15.486  12.257 -0.2702  0.1314  0.0968
 1828DOPE   C3B21451  15.744  15.770  11.973 -0.1887 -0.0231  0.6692
 1828DOPE   C4B21452  15.804  16.039  11.572  0.2624 -0.0516 -0.1419
 1829DOPC   NC321453  20.160  21.653  14.494  0.1932 -0.1446 -0.0213
 1829DOPC   PO421454  20.006  21.428  14.173  0.1449  0.2616 -0.2007
 1829DOPC   GL121455  20.090  21.628  13.838  0.2262 -0.3584  0.0463
 1829DOPC   GL221456  20.124  21.890  13.901  0.2518 -0.0695 -0.0803
 1829DOPC   C1A21457  20.011  21.767  13.450  0.3599 -0.0092 -0.1418
 1829DOPC   D2A21458  20.177  21.979  13.115  0.1194  0.3008  0.0969
 1829DOPC   C3A21459  20.140  22.433  13.049  0.2352  0.0989  0.1055
 1829DOPC   C4A21460  20.208  22.659  12.634 -0.2733 -0.4250 -0.3337
 1829DOPC   C1B21461  20.164  22.216  13.613  0.1158  0.0837  0.1278
 1829DOPC   D2B21462  20.571  22.287  13.469 -0.1726  0.0603  0.1341
 1829DOPC   C3B21463  20.668  22.415  13.042 -0.0068 -0.1907  0.1970
 1829DOPC   C4B21464  20.677  22.591  12.587  0.2376 -0.1252 -0.0582
 1830POSM   NC321465   9.975  16.280  14.089  0.1707 -0.0588  0.1972
 1830POSM   PO421466  10.334  16.303  14.245 -0.0743  0.2567 -0.2013
 1830POSM   AM121467  10.423  16.168  13.974 -0.0843  0.1152  0.0525
 1830POSM   AM221468  10.678  16.151  13.838  0.1881  0.0564 -0.0078
 1830POSM   T1A21469  10.309  15.955  13.517 -0.0626 -0.0559 -0.2638
 1830POSM   C2A21470  10.107  16.196  13.152 -0.0521 -0.2566 -0.0085
 1830POSM   C3A21471   9.854  16.247  12.775 -0.0290  0.1730  0.1155
 1830POSM   C1B21472  10.946  16.073  13.560 -0.4365 -0.2530  0.2396
 1830POSM   D2B21473  11.282  15.832  13.384  0.2131 -0.1223 -0.0744
 1830POSM   C3B21474  11.149  15.480  13.153  0.0549  0.1703 -0.2447
 1830POSM   C4B21475  11.131  14.996  13.155  0.0465  0.1810 -0.1811
 1831POSM   NC321476  10.343  21.189  13.690 -0.0804 -0.3020  0.1804
 1831POSM   PO421477  10.493  20.876  13.869 -0.1937  0.1211  0.3379
 1831POSM   AM121478  10.317  20.742  13.639  0.0785  0.4226 -0.0393
 1831POSM   AM221479  10.337  20.779  13.372 -0.6661  0.0813  0.3111
 1831POSM   T1A21480   9.970  20.388  13.559 -0.0454 -0.4559  0.0964
 1831POSM   C2A21481   9.763  20.081  13.748  0.1077  0.0634 -0.4748
 1831POSM   C3A21482   9.404  19.737  13.730  0.4887 -0.0417  0.3007
 1831POSM   C1B21483  10.092  20.728  13.152  0.1671 -0.0843 -0.1984
 1831POSM   D2B21484   9.881  20.520  12.803 -0.1311  0.1723  0.2291
 1831POSM   C3B21485   9.466  20.651  12.731 -0.1735 -0.1074 -0.0016
 1831POSM   C4B21486   9.290  20.903  12.415 -0.0895 -0.0100  0.0999
 1832DOPC   NC321487  14.598  14.306  14.144  0.2378  0.1411 -0.0472
 1832DOPC   PO421488  14.586  14.697  14.097  0.4249  0.0936  0.0327
 1832DOPC   GL121489  14.624  14.733  13.664  0.1281  0.2165 -0.2721
 1832DOPC   GL221490  14.469  14.431  13.579  0.2057  0.1697  0.2200
 1832DOPC   C1A21491  14.567  14.992  13.298 -0.0197 -0.1192 -0.2689
 1832DOPC   D2A21492  14.484  15.016  12.839 -0.0051  0.2139 -0.4547
 1832DOPC   C3A21493  14.514  15.384  12.445  0.3517 -0.2637 -0.1646
 1832DOPC   C4A21494  14.504  15.741  12.184 -0.0316  0.2859 -0.1023
 1832DOPC   C1B21495  14.731  14.528  13.178  0.0778 -0.1091  0.2083
 1832DOPC   D2B21496  15.167  14.575  12.993  0.1985  0.3921  0.0874
 1832DOPC   C3B21497  15.066  14.487  12.513  0.0645  0.1461 -0.0531
 1832DOPC   C4B21498  15.068  14.573  12.043 -0.0347  0.4822  0.3135
 1833DOPC   NC321499  20.100  14.449  13.497 -0.1299 -0.1385  0.0002
 1833DOPC   PO421500  20.142  14.364  13.146  0.1394 -0.0483 -0.2397
 1833DOPC   GL121501  20.289  14.546  12.834  0.0626  0.0547  0.3936
 1833DOPC   GL221502  20.443  14.383  12.666 -0.1732  0.0317 -0.0894
 1833DOPC   C1A21503  20.220  14.744  12.401  0.0683  0.3296 -0.1181
 1833DOPC   D2A21504  20.503  14.838  12.002 -0.0663 -0.0052 -0.1534
 1833DOPC   C3A21505  20.815  14.836  11.639 -0.0892 -0.0428  0.0822
 1833DOPC   C4A21506  21.037  14.425  11.512  0.0583 -0.2621  0.0100
 1833DOPC   C1B21507  20.570  14.297  12.289  0.3376  0.1278  0.2179
 1833DOPC   D2B21508  20.642  14.321  11.814  0.1943 -0.3418 -0.2101
 1833DOPC   C3B21509  20.318  14.564  11.632  0.2488  0.2329 -0.4136
 1833DOPC   C4B21510  19.918  14.443  11.561  0.0846  0.1188  0.2951
 1834DOPS   CNO21511  12.386  16.721  14.301  0.1660 -0.1786  0.4256
 1834DOPS   PO421512  12.217  16.385  14.197  0.0808  0.2423  0.1096
 1834DOPS   GL121513  12.109  16.187  13.851  0.2160  0.2488  0.0926
 1834DOPS   GL221514  11.962  16.411  13.645 -0.2280  0.4123 -0.0690
 1834DOPS   C1A21515  12.038  15.791  13.621  0.1608 -0.2740 -0.0011
 1834DOPS   D2A21516  12.034  15.303  13.542  0.4014  0.0268 -0.0756
 1834DOPS   C3A21517  12.147  15.113  13.076 -0.1983 -0.0777 -0.2626
 1834DOPS   C4A21518  11.996  14.954  12.672 -0.0525 -0.0665  0.1052
 1834DOPS   C1B21519  12.207  16.353  13.259 -0.1334  0.1967  0.2740
 1834DOPS   D2B21520  12.451  16.411  12.849 -0.0576  0.0004  0.1149
 1834DOPS   C3B21521  12.551  16.019  12.667 -0.0116  0.0517 -0.1436
 1834DOPS   C4B21522  12.797  15.669  12.472 -0.2487  0.4280 -0.0928
 1835DOPE   NH321523  17.215  13.967  13.286 -0.1298  0.0643 -0.1638
 1835DOPE   PO421524  17.464  13.976  13.086 -0.1781  0.1888 -0.0982
 1835DOPE   GL121525  17.554  13.730  12.809 -0.2184 -0.2110  0.0862
 1835DOPE   GL221526  17.484  13.796  12.553 -0.0942  0.1863 -0.1944
 1835DOPE   C1A21527  17.535  13.293  12.656  0.1176  0.1126  0.2458
 1835DOPE   D2A21528  17.445  13.026  12.336  0.2901 -0.2144 -0.1465
 1835DOPE   C3A21529  17.440  12.558  12.351 -0.1056  0.3324 -0.0359
 1835DOPE   C4A21530  17.288  12.197  12.574 -0.1849  0.3043 -0.0634
 1835DOPE   C1B21531  17.403  14.085  12.262 -0.1233 -0.0191  0.0212
 1835DOPE   D2B21532  17.197  14.356  11.970 -0.0861 -0.0286  0.2009
 1835DOPE   C3B21533  17.376  14.784  12.170 -0.2917  0.1977 -0.0497
 1835DOPE   C4B21534  17.780  14.857  12.196 -0.0617 -0.2610 -0.3733
 1836DOPS   CNO21535  20.426  17.131  13.467 -0.0599  0.1002  0.1506
 1836DOPS   PO421536  20.555  17.481  13.359  0.0262  0.0442  0.1308
 1836DOPS   GL121537  20.681  17.434  12.926  0.2002 -0.1362 -0.6468
 1836DOPS   GL221538  20.643  17.707  12.831  0.0719 -0.4587  0.1154
 1836DOPS   C1A21539  20.861  17.283  12.533  0.1332 -0.2939 -0.3183
 1836DOPS   D2A21540  21.003  17.287  12.119 -0.4622 -0.1628 -0.0181
 1836DOPS   C3A21541  20.981  16.997  11.783  0.2040 -0.1439 -0.2332
 1836DOPS   C4A21542  20.632  16.879  11.544 -0.0252  0.0089 -0.0219
 1836DOPS   C1B21543  20.531  18.067  12.508  0.0516  0.0840  0.1411
 1836DOPS   D2B21544  20.454  18.220  12.089 -0.0400 -0.0683  0.2025
 1836DOPS   C3B21545  20.553  17.870  11.878 -0.0430  0.2542  0.2075
 1836DOPS   C4B21546  20.555  17.430  11.999 -0.0961  0.0991  0.1762
 1837DOPE   NH321547  25.009  15.149   9.670 -0.2485 -0.3023 -0.4207
 1837DOPE   PO421548  24.767  15.057   9.520  0.0304 -0.3172  0.2186
 1837DOPE   GL121549  24.752  14.874   9.888  0.1288  0.0147  0.1397
 1837DOPE   GL221550  24.834  14.631   9.813 -0.0582  0.2262  0.0553
 1837DOPE   C1A21551  24.737  15.184  10.224  0.1485  0.2429  0.3963
 1837DOPE   D2A21552  24.721  15.099  10.702 -0.1488  0.1296 -0.3137
 1837DOPE   C3A21553  24.851  14.724  10.950 -0.0621 -0.0677  0.1127
 1837DOPE   C4A21554  25.035  14.427  11.252  0.1036  0.3391  0.0304
 1837DOPE   C1B21555  24.954  14.737  10.274 -0.1468  0.0875 -0.0288
 1837DOPE   D2B21556  25.179  14.779  10.641 -0.0708  0.0340  0.2335
 1837DOPE   C3B21557  25.518  14.829  10.934 -0.1172  0.0417  0.1547
 1837DOPE   C4B21558  25.629  15.039  11.326 -0.2618  0.0322  0.2899
 1838DOPS   CNO21559  11.951  12.222  11.324  0.3390  0.1086 -0.0900
 1838DOPS   PO421560  11.900  12.619  11.350  0.0994 -0.1118 -0.4026
 1838DOPS   GL121561  11.981  12.919  11.535 -0.2696 -0.2604 -0.2695
 1838DOPS   GL221562  12.290  12.999  11.501 -0.1965 -0.0521  0.1837
 1838DOPS   C1A21563  12.146  13.167  11.912 -0.1346 -0.2326  0.2514
 1838DOPS   D2A21564  12.366  13.293  12.315  0.0078 -0.2627  0.0154
 1838DOPS   C3A21565  12.118  13.399  12.668  0.0750 -0.0665  0.0934
 1838DOPS   C4A21566  11.793  13.502  13.008  0.3369  0.3045 -0.1776
 1838DOPS   C1B21567  12.352  12.752  11.928  0.0652  0.2793 -0.1259
 1838DOPS   D2B21568  12.591  12.526  12.262 -0.1165  0.1129 -0.2884
 1838DOPS   C3B21569  12.465  12.819  12.665 -0.2001 -0.0222 -0.1701
 1838DOPS   C4B21570  12.585  13.219  12.795 -0.1800 -0.2345  0.3347
 1839DOPE   NH321571  19.631  12.135  10.209 -0.2496 -0.1000  0.0593
 1839DOPE   PO421572  19.946  12.052  10.169  0.0999 -0.1372  0.2807
 1839DOPE   GL121573  19.906  11.865  10.568  0.2636  0.1562  0.1837
 1839DOPE   GL221574  19.668  11.968  10.715  0.0466 -0.0065 -0.3241
 1839DOPE   C1A21575  20.065  11.879  11.019  0.0807  0.0858  0.1110
 1839DOPE   D2A21576  20.039  11.801  11.499  0.2484  0.1878 -0.1623
 1839DOPE   C3A21577  19.647  11.882  11.708 -0.0382 -0.0308  0.1289
 1839DOPE   C4A21578  19.472  11.814  12.127  0.3335  0.1115 -0.0761
 1839DOPE   C1B21579  19.539  11.927  11.195  0.2053 -0.0105 -0.0165
 1839DOPE   D2B21580  19.193  11.772  11.481 -0.1260 -0.1303 -0.1984
 1839DOPE   C3B21581  19.162  12.071  11.859  0.0494 -0.1711 -0.3913
 1839DOPE   C4B21582  18.883  12.230  12.141 -0.0725 -0.0671 -0.0562
 1840DOPE   NH321583  21.175  13.374   9.754  0.0085  0.0333  0.1872
 1840DOPE   PO421584  21.374  13.659   9.703  0.1141  0.3428 -0.2429
 1840DOPE   GL121585  21.459  13.536  10.094  0.2716 -0.3017 -0.1515
 1840DOPE   GL221586  21.349  13.374  10.228  0.3616  0.0098 -0.2918
 1840DOPE   C1A21587  21.629  13.546  10.559 -0.2153 -0.2511 -0.2484
 1840DOPE   D2A21588  21.726  13.442  10.941  0.1058  0.0883 -0.0555
 1840DOPE   C3A21589  21.748  13.867  11.041 -0.2039  0.0869  0.0363
 1840DOPE   C4A21590  21.876  14.340  10.957  0.4320  0.3013 -0.1747
 1840DOPE   C1B21591  21.132  13.750  10.365  0.2160 -0.2554  0.0417
 1840DOPE   D2B21592  20.745  13.853  10.456  0.0596  0.1343  0.1478
 1840DOPE   C3B21593  20.517  13.760  10.838 -0.3392  0.0581  0.2907
 1840DOPE   C4B21594  20.760  13.536  11.183  0.1337 -0.2578  0.1746
 1841DOPC   NC321595  22.488  14.576   9.347 -0.0062 -0.1945 -0.0167
 1841DOPC   PO421596  22.619  14.291   9.557  0.0703  0.0554  0.0227
 1841DOPC   GL121597  22.703  14.288   9.897 -0.1458  0.4095 -0.1222
 1841DOPC   GL221598  22.929  14.254  10.129 -0.1362  0.0362  0.2887
 1841DOPC   C1A21599  22.615  13.925  10.233  0.2080 -0.0001 -0.0129
 1841DOPC   D2A21600  22.776  13.818  10.647 -0.1899  0.2066  0.0248
 1841DOPC   C3A21601  22.530  13.402  10.750  0.0606  0.3033  0.1968
 1841DOPC   C4A21602  22.522  13.039  11.029  0.0766  0.0747  0.2499
 1841DOPC   C1B21603  22.859  14.368  10.555 -0.2808 -0.1851 -0.0639
 1841DOPC   D2B21604  22.533  14.387  10.890 -0.0559  0.2204  0.0826
 1841DOPC   C3B21605  22.674  14.293  11.340 -0.1142 -0.0614 -0.1282
 1841DOPC   C4B21606  23.028  14.566  11.534  0.0702  0.0724  0.1328
 1842DOPC   NC321607  11.546  18.859  10.346  0.0139  0.1329 -0.2152
 1842DOPC   PO421608  11.463  18.498  10.205 -0.1275 -0.2296 -0.2949
 1842DOPC   GL121609  11.624  18.352  10.481  0.5564 -0.1088  0.1035
 1842DOPC   GL221610  11.730  18.558  10.716  0.1234 -0.0105  0.2534
 1842DOPC   C1A21611  11.354  18.299  10.883  0.0920  0.3560  0.2151
 1842DOPC   D2A21612  11.392  18.074  11.325 -0.4694 -0.2367  0.1619
 1842DOPC   C3A21613  11.163  18.262  11.718 -0.0031  0.0149  0.1733
 1842DOPC   C4A21614  10.791  18.271  12.008  0.0434  0.2795  0.3301
 1842DOPC   C1B21615  11.820  18.433  11.142 -0.0527  0.3755 -0.0131
 1842DOPC   D2B21616  11.545  18.538  11.537 -0.2944 -0.0173 -0.0479
 1842DOPC   C3B21617  11.690  18.339  11.932  0.1574  0.1711  0.0036
 1842DOPC   C4B21618  11.601  18.025  12.268 -0.0091  0.3164 -0.0952
 1843DOPE   NH321619  12.322  19.048  10.273 -0.0840  0.0308  0.2051
 1843DOPE   PO421620  12.059  18.996  10.396 -0.0772  0.0154 -0.0962
 1843DOPE   GL121621  12.082  18.931  10.768 -0.0927  0.0572  0.1903
 1843DOPE   GL221622  12.330  18.775  10.766 -0.2814 -0.2795 -0.0881
 1843DOPE   C1A21623  12.257  18.991  11.213  0.3205  0.1015  0.0900
 1843DOPE   D2A21624  12.456  19.186  11.547 -0.2597  0.0883  0.0648
 1843DOPE   C3A21625  12.452  19.666  11.553 -0.0824 -0.0576  0.1384
 1843DOPE   C4A21626  12.058  19.870  11.469 -0.3360  0.0775 -0.0641
 1843DOPE   C1B21627  12.267  18.501  11.111  0.1015 -0.0025  0.1052
 1843DOPE   D2B21628  12.083  18.592  11.533  0.0832 -0.0907 -0.0773
 1843DOPE   C3B21629  12.076  18.882  11.811  0.2098  0.3069  0.0827
 1843DOPE   C4B21630  12.187  19.215  12.154  0.1965 -0.0015 -0.2076
 1844DOPE   NH321631  24.630  20.198  10.454 -0.0435 -0.0666  0.4799
 1844DOPE   PO421632  24.329  20.107  10.338  0.0587  0.4471  0.0058
 1844DOPE   GL121633  24.373  20.135  10.836 -0.3360  0.1925 -0.0920
 1844DOPE   GL221634  24.265  19.820  10.865  0.0897 -0.2796 -0.0969
 1844DOPE   C1A21635  24.716  19.972  11.055  0.0051  0.2056  0.2042
 1844DOPE   D2A21636  25.077  20.216  11.348  0.1579 -0.1112 -0.1137
 1844DOPE   C3A21637  24.757  20.364  11.629  0.2426 -0.0712  0.3017
 1844DOPE   C4A21638  24.356  20.647  11.711  0.0232  0.1142 -0.3243
 1844DOPE   C1B21639  24.263  19.885  11.322  0.2007 -0.1576 -0.1125
 1844DOPE   D2B21640  24.340  20.076  11.736  0.2910  0.3596  0.1956
 1844DOPE   C3B21641  24.552  19.875  12.089  0.3527  0.3021 -0.0229
 1844DOPE   C4B21642  24.861  19.699  12.379  0.0342 -0.0159 -0.2672
 1845DOPE   NH321643  15.897  15.933   9.314  0.2963 -0.1420  0.0160
 1845DOPE   PO421644  16.002  16.129   9.508  0.1332  0.0019  0.1049
 1845DOPE   GL121645  16.024  16.085   9.911  0.1463  0.1289  0.1233
 1845DOPE   GL221646  16.090  16.401   9.977 -0.2212  0.1935 -0.1623
 1845DOPE   C1A21647  15.723  16.042  10.297 -0.2315 -0.0891 -0.1468
 1845DOPE   D2A21648  15.624  15.818  10.710  0.0504 -0.1387 -0.0540
 1845DOPE   C3A21649  15.452  16.063  11.131 -0.0613 -0.1039  0.3900
 1845DOPE   C4A21650  15.188  16.042  11.460 -0.1416 -0.0073  0.3132
 1845DOPE   C1B21651  16.056  16.631  10.361  0.1784  0.1943 -0.1741
 1845DOPE   D2B21652  16.067  16.602  10.851  0.0131 -0.2304  0.2271
 1845DOPE   C3B21653  15.775  16.484  11.153 -0.0754  0.2714 -0.1191
 1845DOPE   C4B21654  15.496  16.462  11.524  0.2660 -0.1174 -0.1697
 1846POSM   NC321655  13.661  21.891  10.196  0.1127  0.0197  0.1312
 1846POSM   PO421656  13.994  21.715  10.234 -0.2955 -0.0481  0.0950
 1846POSM   AM121657  14.031  21.667  10.544 -0.1262 -0.5349 -0.0962
 1846POSM   AM221658  13.998  21.486  10.760  0.1921  0.2574  0.0363
 1846POSM   T1A21659  14.028  21.891  11.027  0.0598  0.2316 -0.1020
 1846POSM   C2A21660  14.028  21.763  11.461  0.2025 -0.0423 -0.2866
 1846POSM   C3A21661  13.886  21.602  11.894 -0.1705 -0.0210  0.0299
 1846POSM   C1B21662  14.190  21.441  11.054 -0.3684  0.0770  0.1423
 1846POSM   D2B21663  14.416  21.478  11.458 -0.0249  0.2747 -0.0556
 1846POSM   C3B21664  14.411  21.881  11.721 -0.0403  0.3083 -0.1112
 1846POSM   C4B21665  14.257  21.930  12.158  0.1549  0.0986  0.0778
 1847DOPE   NH321666  15.983  20.366   9.848  0.0659  0.0394  0.4211
 1847DOPE   PO421667  15.679  20.458   9.995 -0.1828 -0.1290 -0.1403
 1847DOPE   GL121668  15.753  20.688  10.366  0.2783 -0.0335 -0.0059
 1847DOPE   GL221669  15.660  20.535  10.552  0.0217 -0.3363  0.1715
 1847DOPE   C1A21670  16.029  20.853  10.718  0.1741 -0.2206 -0.1756
 1847DOPE   D2A21671  16.036  20.860  11.171 -0.1054  0.0740 -0.1165
 1847DOPE   C3A21672  16.329  21.083  11.387 -0.0623 -0.0123  0.1181
 1847DOPE   C4A21673  16.631  21.074  11.741  0.0771  0.1214  0.0623
 1847DOPE   C1B21674  15.776  20.383  10.968 -0.0271 -0.1936  0.1640
 1847DOPE   D2B21675  15.844  20.094  11.291 -0.1081 -0.2155 -0.3103
 1847DOPE   C3B21676  15.939  19.629  11.338  0.0296  0.2662 -0.0448
 1847DOPE   C4B21677  16.101  19.406  11.713  0.0484 -0.1152 -0.0487
 1848POSM   NC321678  21.150  15.130   9.886 -0.1753  0.2368  0.3086
 1848POSM   PO421679  21.245  14.750   9.973 -0.3265 -0.1284  0.1513
 1848POSM   AM121680  21.223  14.502  10.182  0.0082 -0.1680  0.0690
 1848POSM   AM221681  21.036  14.367  10.326 -0.1463  0.2805 -0.1187
 1848POSM   T1A21682  21.449  14.246  10.586  0.0106  0.0546 -0.2856
 1848POSM   C2A21683  21.362  14.175  11.059  0.0060  0.1056 -0.0663
 1848POSM   C3A21684  21.576  14.268  11.431  0.0276 -0.0798  0.3266
 1848POSM   C1B21685  20.976  14.253  10.684  0.0134 -0.1974 -0.0471
 1848POSM   D2B21686  20.917  14.021  11.125  0.3816  0.3920  0.0210
 1848POSM   C3B21687  20.571  13.949  11.462  0.1600  0.2271 -0.0497
 1848POSM   C4B21688  20.149  14.022  11.543 -0.1386  0.1081 -0.0103
 1849POSM   NC321689  11.065  11.098  11.174 -0.1291  0.0177 -0.0372
 1849POSM   PO421690  10.672  11.018  11.179  0.1386  0.0432  0.2942
 1849POSM   AM121691  10.648  11.103  11.450 -0.0730 -0.1927 -0.4267
 1849POSM   AM221692  10.761  11.252  11.635 -0.3265  0.2454  0.0311
 1849POSM   T1A21693  10.341  11.446  11.726 -0.0006 -0.1117  0.0902
 1849POSM   C2A21694  10.119  11.572  12.052  0.5171  0.0227  0.1463
 1849POSM   C3A21695   9.990  11.638  12.496 -0.2462  0.0471  0.0026
 1849POSM   C1B21696  10.887  11.095  11.876  0.3252 -0.1772 -0.1065
 1849POSM   D2B21697  11.162  10.976  12.273  0.1967  0.0601 -0.0488
 1849POSM   C3B21698  11.337  10.609  12.389  0.0836 -0.0194 -0.0963
 1849POSM   C4B21699  11.399  10.150  12.257 -0.2005  0.2345  0.2439
 1850DOPC   NC321700  21.741  19.905  10.293 -0.1310  0.2588 -0.1142
 1850DOPC   PO421701  21.568  19.598  10.057  0.1439 -0.0469  0.0079
 1850DOPC   GL121702  21.693  19.414  10.514 -0.0450  0.1231  0.4748
 1850DOPC   GL221703  21.816  19.190  10.689 -0.0814  0.2043  0.1418
 1850DOPC   C1A21704  21.371  19.250  10.871  0.1005  0.0193  0.0588
 1850DOPC   D2A21705  21.443  19.082  11.291 -0.0204 -0.1908 -0.2895
 1850DOPC   C3A21706  21.825  19.304  11.516  0.1301  0.0819  0.1124
 1850DOPC   C4A21707  21.952  19.414  11.894  0.1951 -0.1139 -0.3507
 1850DOPC   C1B21708  21.846  18.997  11.118 -0.0636  0.4310 -0.2970
 1850DOPC   D2B21709  21.896  18.703  11.482 -0.0812  0.1313 -0.0806
 1850DOPC   C3B21710  21.810  18.414  11.828 -0.0241  0.0661  0.0161
 1850DOPC   C4B21711  21.931  18.085  12.131 -0.2555 -0.1905  0.2905
 1851DOPC   NC321712  18.087  19.569   9.653 -0.1541  0.0968  0.1424
 1851DOPC   PO421713  17.810  19.658   9.935 -0.0955  0.0285  0.1914
 1851DOPC   GL121714  17.881  19.608  10.263  0.0010  0.0562  0.1015
 1851DOPC   GL221715  17.888  19.822  10.464  0.0564 -0.2344  0.1422
 1851DOPC   C1A21716  17.762  19.386  10.664 -0.0391  0.0584 -0.1708
 1851DOPC   D2A21717  17.901  19.470  11.050 -0.0915 -0.0704  0.1246
 1851DOPC   C3A21718  17.931  19.815  11.359  0.1794  0.0198  0.0222
 1851DOPC   C4A21719  18.098  19.818  11.795 -0.3199  0.2801 -0.1303
 1851DOPC   C1B21720  18.194  19.850  10.811 -0.3556 -0.1734 -0.0549
 1851DOPC   D2B21721  18.334  20.121  11.158 -0.0302 -0.0644  0.0886
 1851DOPC   C3B21722  18.426  20.078  11.538  0.0346  0.2108  0.0936
 1851DOPC   C4B21723  18.603  19.967  11.989  0.1221  0.0126  0.1292
 1852DOPC   NC321724  11.699  16.196  11.131 -0.2259  0.0339 -0.1442
 1852DOPC   PO421725  11.723  16.260  10.726  0.2805  0.2865  0.1114
 1852DOPC   GL121726  12.101  16.391  11.014 -0.3575 -0.1979 -0.1205
 1852DOPC   GL221727  12.330  16.340  10.960  0.1620 -0.0709 -0.1078
 1852DOPC   C1A21728  12.059  16.442  11.430  0.1417  0.1869 -0.1010
 1852DOPC   D2A21729  12.215  16.574  11.869  0.1869  0.0373  0.0922
 1852DOPC   C3A21730  12.528  16.931  12.021 -0.1291  0.2486 -0.1501
 1852DOPC   C4A21731  12.957  17.173  12.005 -0.0244  0.0670 -0.2529
 1852DOPC   C1B21732  12.634  16.273  11.290  0.0797  0.3168  0.2627
 1852DOPC   D2B21733  12.754  16.263  11.752 -0.0048 -0.0051 -0.2040
 1852DOPC   C3B21734  13.118  15.998  11.854 -0.2299  0.2700 -0.1961
 1852DOPC   C4B21735  13.490  15.944  11.594 -0.1383 -0.2499 -0.3601
 1853DOPE   NH321736  21.581  11.146  10.667  0.4567 -0.3729  0.2178
 1853DOPE   PO421737  21.808  11.391  10.556  0.2896 -0.0539 -0.1347
 1853DOPE   GL121738  21.605  11.510  10.924 -0.2938  0.0579  0.2000
 1853DOPE   GL221739  21.474  11.802  10.789  0.2401 -0.1737 -0.1183
 1853DOPE   C1A21740  21.250  11.681  11.209  0.1336 -0.0881 -0.1714
 1853DOPE   D2A21741  21.218  11.996  11.595  0.1580 -0.0726 -0.0297
 1853DOPE   C3A21742  20.966  12.272  11.386 -0.1323 -0.1193 -0.2404
 1853DOPE   C4A21743  20.576  12.486  11.278  0.1477 -0.0408 -0.1324
 1853DOPE   C1B21744  21.691  11.940  11.182  0.2678  0.3220  0.0223
 1853DOPE   D2B21745  21.778  12.181  11.590 -0.1688  0.0710 -0.0361
 1853DOPE   C3B21746  21.642  12.445  11.963 -0.1751  0.1363  0.1045
 1853DOPE   C4B21747  21.363  12.702  12.219  0.1579 -0.1557 -0.0354
 1854POSM   NC321748  15.871  12.208  10.344 -0.0456 -0.3122  0.4823
 1854POSM   PO421749  15.609  11.894  10.307  0.0934 -0.0222  0.1099
 1854POSM   AM121750  15.590  11.950  10.635 -0.0863  0.1163 -0.0677
 1854POSM   AM221751  15.757  12.015  10.858 -0.2198  0.0687 -0.0464
 1854POSM   T1A21752  15.300  11.913  11.010  0.0650 -0.2344 -0.0743
 1854POSM   C2A21753  15.044  11.811  11.407 -0.2507 -0.0013  0.0968
 1854POSM   C3A21754  14.827  11.448  11.588 -0.3171 -0.2621  0.0111
 1854POSM   C1B21755  15.941  12.078  11.143  0.1701 -0.0817  0.0391
 1854POSM   D2B21756  16.210  11.863  11.433  0.0592  0.2863 -0.1572
 1854POSM   C3B21757  15.979  11.583  11.688  0.1328  0.0849 -0.3112
 1854POSM   C4B21758  15.732  11.310  11.982 -0.0008 -0.0407  0.0539
 1855DOPE   NH321759  10.802  17.242  10.380  0.2977  0.1084 -0.3442
 1855DOPE   PO421760  10.510  17.255  10.349 -0.0755  0.1234  0.0781
 1855DOPE   GL121761  10.459  17.366  10.684  0.3876  0.0770  0.2051
 1855DOPE   GL221762  10.301  17.269  10.989 -0.2504  0.0334 -0.0654
 1855DOPE   C1A21763  10.700  17.689  10.918 -0.1192 -0.0122 -0.3453
 1855DOPE   D2A21764  10.925  18.059  11.023  0.2395  0.1255  0.0656
 1855DOPE   C3A21765  10.718  18.113  11.414 -0.0386 -0.0683 -0.3587
 1855DOPE   C4A21766  10.380  18.173  11.713  0.2357  0.0229 -0.1998
 1855DOPE   C1B21767  10.155  17.254  11.405 -0.2086 -0.1246 -0.0623
 1855DOPE   D2B21768  10.383  17.396  11.789  0.4776  0.2110 -0.1148
 1855DOPE   C3B21769  10.274  17.805  12.117 -0.1913 -0.0064 -0.2125
 1855DOPE   C4B21770  10.333  18.323  12.246  0.0048  0.1166  0.1089
 1856DOPC   NC321771  24.066  12.940   9.740  0.1430  0.3538  0.2124
 1856DOPC   PO421772  23.934  13.014  10.119  0.1096 -0.0490 -0.1328
 1856DOPC   GL121773  23.948  12.967  10.568 -0.2658  0.4470 -0.0088
 1856DOPC   GL221774  24.121  12.717  10.572  0.1313 -0.0327 -0.0474
 1856DOPC   C1A21775  23.773  13.228  10.865 -0.2047 -0.2059 -0.1918
 1856DOPC   D2A21776  23.412  13.432  11.137 -0.3777 -0.0506 -0.0881
 1856DOPC   C3A21777  23.191  13.827  10.963 -0.0337 -0.0340 -0.0277
 1856DOPC   C4A21778  22.986  14.240  10.997  0.0291 -0.1016  0.1981
 1856DOPC   C1B21779  24.024  12.777  11.070  0.1992 -0.0736 -0.3275
 1856DOPC   D2B21780  23.881  12.574  11.558  0.0528 -0.1570  0.0899
 1856DOPC   C3B21781  23.493  12.753  11.717 -0.2710  0.0273 -0.2591
 1856DOPC   C4B21782  23.222  12.889  12.015  0.1168  0.2181  0.0673
 1857POSM   NC321783  20.596  12.574   9.906 -0.1108 -0.1867  0.2772
 1857POSM   PO421784  20.891  12.327   9.927 -0.2091  0.0514  0.1979
 1857POSM   AM121785  20.827  12.446  10.251 -0.0560 -0.0360 -0.2096
 1857POSM   AM221786  20.605  12.484  10.423  0.1392  0.0271 -0.0524
 1857POSM   T1A21787  21.030  12.488  10.698 -0.2452 -0.2276 -0.1163
 1857POSM   C2A21788  21.035  12.724  11.140 -0.1264 -0.0893  0.1185
 1857POSM   C3A21789  21.031  13.135  11.303  0.1012  0.1140  0.0358
 1857POSM   C1B21790  20.631  12.785  10.600 -0.2066 -0.1584  0.1671
 1857POSM   D2B21791  20.859  13.108  10.844 -0.3095  0.0723  0.0504
 1857POSM   C3B21792  21.091  13.458  10.729 -0.2207 -0.0971  0.2243
 1857POSM   C4B21793  21.279  13.544  11.123 -0.0608 -0.1607  0.1412
 1858DOPE   NH321794  18.211  16.153   9.529 -0.4780 -0.0364 -0.2738
 1858DOPE   PO421795  18.157  16.440   9.322 -0.1268  0.0342  0.2843
 1858DOPE   GL121796  18.213  16.683   9.720  0.1360 -0.2785  0.2400
 1858DOPE   GL221797  17.973  16.488   9.848 -0.0272 -0.4094 -0.0914
 1858DOPE   C1A21798  18.307  16.889  10.101 -0.0071  0.0283  0.2266
 1858DOPE   D2A21799  18.628  17.060  10.429 -0.0380 -0.0014  0.0371
 1858DOPE   C3A21800  18.987  16.830  10.637 -0.2348 -0.1394 -0.3067
 1858DOPE   C4A21801  19.207  16.789  11.056 -0.6493  0.1657 -0.0853
 1858DOPE   C1B21802  17.814  16.775  10.108 -0.3224 -0.1697  0.1524
 1858DOPE   D2B21803  17.814  17.103  10.383  0.0121 -0.1441  0.0318
 1858DOPE   C3B21804  17.853  17.099  10.843  0.0429 -0.2574 -0.0816
 1858DOPE   C4B21805  17.794  17.255  11.245 -0.0548  0.0611  0.1610
 1859DOPE   NH321806   9.447  15.899  10.456 -0.1015 -0.3182  0.1399
 1859DOPE   PO421807   9.370  15.804  10.774  0.0938 -0.0370  0.1388
 1859DOPE   GL121808   9.212  15.818  11.157 -0.2512  0.3533  0.0583
 1859DOPE   GL221809   9.225  15.560  11.245 -0.3841  0.0510 -0.0097
 1859DOPE   C1A21810   9.081  15.905  11.571 -0.2841 -0.4362 -0.0501
 1859DOPE   D2A21811   8.905  15.930  11.951  0.2125 -0.3699 -0.4573
 1859DOPE   C3A21812   9.207  15.786  12.255  0.1449  0.1570  0.0947
 1859DOPE   C4A21813   9.654  15.824  12.462 -0.0687  0.0394  0.1550
 1859DOPE   C1B21814   9.242  15.501  11.764 -0.1682 -0.2108 -0.2553
 1859DOPE   D2B21815   9.472  15.333  12.087 -0.0422 -0.0379  0.1171
 1859DOPE   C3B21816   9.472  14.978  12.373  0.0989  0.1126  0.1162
 1859DOPE   C4B21817   9.191  14.640  12.254  0.1962  0.3389  0.4226
 1860DOPC   NC321818  15.198  17.472   9.407  0.3582 -0.2634  0.0265
 1860DOPC   PO421819  15.108  17.086   9.385 -0.0528  0.3230 -0.1145
 1860DOPC   GL121820  15.266  17.167   9.795 -0.3572  0.1161  0.0488
 1860DOPC   GL221821  15.166  17.465   9.985  0.0772 -0.1741  0.3424
 1860DOPC   C1A21822  15.736  17.228   9.815  0.1868 -0.2106  0.1527
 1860DOPC   D2A21823  15.984  17.145  10.154 -0.0601  0.2461 -0.0245
 1860DOPC   C3A21824  16.339  17.452  10.242 -0.1235  0.0835 -0.0204
 1860DOPC   C4A21825  16.547  17.571  10.609 -0.0884 -0.0713 -0.1227
 1860DOPC   C1B21826  15.410  17.136  10.243 -0.1151  0.0603 -0.1574
 1860DOPC   D2B21827  15.635  16.880  10.576  0.0780 -0.2693  0.0176
 1860DOPC   C3B21828  15.363  16.794  10.983  0.0599  0.1064  0.1280
 1860DOPC   C4B21829  15.112  16.444  11.179 -0.1139  0.1651  0.0032
 1861DOPE   NH321830  12.119  16.543  10.507 -0.3769 -0.1332 -0.0347
 1861DOPE   PO421831  12.267  16.703  10.683  0.1542 -0.0914 -0.2095
 1861DOPE   GL121832  12.114  16.934  10.969  0.2013  0.1804 -0.1512
 1861DOPE   GL221833  11.848  16.810  11.034  0.2916 -0.0450 -0.1100
 1861DOPE   C1A21834  12.389  17.232  11.219 -0.1320 -0.1129  0.1716
 1861DOPE   D2A21835  12.661  17.296  11.582 -0.2251  0.2016 -0.0368
 1861DOPE   C3A21836  12.711  17.718  11.834 -0.0661 -0.1570 -0.2180
 1861DOPE   C4A21837  12.852  18.018  12.238 -0.2129  0.1528  0.3900
 1861DOPE   C1B21838  11.936  16.941  11.421 -0.0764  0.0101 -0.4461
 1861DOPE   D2B21839  12.229  17.178  11.767 -0.1688 -0.1053 -0.0702
 1861DOPE   C3B21840  12.391  17.461  12.087  0.2662  0.0557 -0.3797
 1861DOPE   C4B21841  12.841  17.520  12.331  0.2206  0.3869  0.0074
 1862POSM   NC321842  19.807  16.223   9.980  0.0661 -0.1102 -0.1006
 1862POSM   PO421843  20.005  15.975   9.787  0.2862  0.0269  0.1328
 1862POSM   AM121844  20.130  15.807   9.992 -0.1077 -0.1871  0.2730
 1862POSM   AM221845  19.931  15.718  10.231  0.1326  0.3452 -0.2020
 1862POSM   T1A21846  20.423  15.604  10.308 -0.2511 -0.2358  0.5727
 1862POSM   C2A21847  20.480  15.682  10.755  0.1655  0.1716  0.0487
 1862POSM   C3A21848  20.687  15.940  11.067 -0.1811 -0.0671  0.1951
 1862POSM   C1B21849  19.963  15.617  10.578 -0.0422  0.1841 -0.3169
 1862POSM   D2B21850  20.101  15.369  10.971  0.0079  0.1547 -0.0788
 1862POSM   C3B21851  20.530  15.360  11.252  0.3271 -0.2721 -0.0911
 1862POSM   C4B21852  20.789  15.517  11.618 -0.1365  0.0100  0.1517
 1863DOPC   NC321853  16.799  18.593   9.805  0.2223 -0.0191  0.2158
 1863DOPC   PO421854  16.649  18.314   9.564  0.3569  0.0255  0.3217
 1863DOPC   GL121855  16.527  17.945   9.692  0.0363  0.1619  0.1065
 1863DOPC   GL221856  16.730  17.926   9.936 -0.1681 -0.2512  0.0097
 1863DOPC   C1A21857  16.187  17.885  10.040 -0.0766  0.1076 -0.1857
 1863DOPC   D2A21858  16.067  17.796  10.484 -0.0145 -0.4481 -0.4598
 1863DOPC   C3A21859  15.722  17.461  10.534  0.1935  0.1813 -0.0950
 1863DOPC   C4A21860  15.480  17.313  10.888 -0.1020 -0.1014 -0.1858
 1863DOPC   C1B21861  16.811  17.941  10.388 -0.3539 -0.0141  0.0239
 1863DOPC   D2B21862  16.865  18.305  10.726  0.0170 -0.1597  0.1958
 1863DOPC   C3B21863  16.492  18.554  10.741  0.0474  0.0903  0.0314
 1863DOPC   C4B21864  16.113  18.546  10.407  0.0230 -0.1225  0.0024
 1864POSM   NC321865  21.001  22.402  10.031  0.0757 -0.4430  0.1799
 1864POSM   PO421866  20.874  22.030  10.142  0.2403  0.2910 -0.3041
 1864POSM   AM121867  20.686  21.984  10.417 -0.0972  0.2937  0.2087
 1864POSM   AM221868  20.673  22.063  10.683 -0.4127  0.0928 -0.0466
 1864POSM   T1A21869  20.455  21.610  10.674  0.1110 -0.1969 -0.2879
 1864POSM   C2A21870  20.190  21.390  10.950 -0.2335 -0.2925  0.0259
 1864POSM   C3A21871  20.084  21.066  11.226  0.0201  0.2420 -0.2716
 1864POSM   C1B21872  20.822  22.094  11.015  0.0265 -0.1995 -0.0333
 1864POSM   D2B21873  20.955  22.327  11.382  0.0662 -0.1937  0.1942
 1864POSM   C3B21874  20.923  22.281  11.832  0.2507  0.3226 -0.0735
 1864POSM   C4B21875  20.931  22.332  12.273  0.3139 -0.2899  0.2470
 1865DOPE   NH321876  16.932   9.822  10.373  0.0467 -0.1147  0.0210
 1865DOPE   PO421877  16.897  10.052  10.546 -0.5467  0.0911  0.0757
 1865DOPE   GL121878  16.884   9.865  10.893 -0.2321 -0.0803  0.1581
 1865DOPE   GL221879  16.660   9.893  11.130  0.1287 -0.2024  0.5631
 1865DOPE   C1A21880  17.366   9.876  10.974  0.2148 -0.0656  0.0228
 1865DOPE   D2A21881  17.606   9.824  11.319 -0.0192  0.1808  0.0627
 1865DOPE   C3A21882  17.566   9.940  11.770  0.2004  0.0649 -0.0651
 1865DOPE   C4A21883  17.452  10.126  12.181 -0.0619 -0.0340 -0.0309
 1865DOPE   C1B21884  16.757   9.501  11.461  0.6865 -0.1771  0.0025
 1865DOPE   D2B21885  17.026   9.156  11.635 -0.2276 -0.2115  0.2426
 1865DOPE   C3B21886  17.366   9.038  11.841  0.2288 -0.0445  0.1132
 1865DOPE   C4B21887  17.518   9.103  12.299 -0.1532  0.1505 -0.0280
 1866DOPC   NC321888  17.698  16.732   9.240  0.0945 -0.1429  0.2177
 1866DOPC   PO421889  17.344  16.835   9.434 -0.4231 -0.2547 -0.1971
 1866DOPC   GL121890  17.542  16.598   9.640  0.1228 -0.2571 -0.3026
 1866DOPC   GL221891  17.393  16.759   9.899 -0.2252 -0.0193  0.0452
 1866DOPC   C1A21892  17.534  16.275  10.001 -0.2303 -0.0250 -0.0083
 1866DOPC   D2A21893  17.237  16.057  10.234 -0.0497  0.0697 -0.1340
 1866DOPC   C3A21894  17.234  15.660  10.439  0.3548 -0.1823 -0.3142
 1866DOPC   C4A21895  17.300  15.508  10.849 -0.1786 -0.2393 -0.1685
 1866DOPC   C1B21896  17.372  17.116  10.110  0.1298 -0.1667  0.4836
 1866DOPC   D2B21897  17.354  17.192  10.574 -0.0380  0.0607 -0.2955
 1866DOPC   C3B21898  17.047  17.058  10.841 -0.1690 -0.0346 -0.0990
 1866DOPC   C4B21899  16.963  16.970  11.301  0.0310  0.0968  0.0125
 1867DOPE   NH321900  23.165  11.015  10.081  0.0931 -0.1260  0.0465
 1867DOPE   PO421901  23.312  11.303  10.140  0.1060 -0.1870  0.1899
 1867DOPE   GL121902  23.422  11.261  10.531  0.0483  0.1399  0.3200
 1867DOPE   GL221903  23.625  11.465  10.629  0.2980 -0.0907  0.1801
 1867DOPE   C1A21904  23.279  11.346  10.947  0.2496  0.0228  0.1511
 1867DOPE   D2A21905  23.407  11.410  11.396  0.1012 -0.0109 -0.1733
 1867DOPE   C3A21906  23.393  11.720  11.738 -0.0261 -0.0268  0.0499
 1867DOPE   C4A21907  23.340  11.905  12.123 -0.1116 -0.1374 -0.1958
 1867DOPE   C1B21908  23.895  11.356  10.962  0.3578  0.0585  0.0020
 1867DOPE   D2B21909  23.816  11.155  11.394  0.1019 -0.1308  0.0139
 1867DOPE   C3B21910  24.056  10.950  11.649 -0.4079  0.1125  0.1332
 1867DOPE   C4B21911  24.455  10.745  11.752 -0.4725  0.0419  0.0240
 1868POSM   NC321912  11.928  17.230  10.612 -0.3040  0.1853 -0.0321
 1868POSM   PO421913  11.523  17.266  10.495 -0.2919  0.1201 -0.0256
 1868POSM   AM121914  11.452  17.266  10.821 -0.2785 -0.0476  0.0280
 1868POSM   AM221915  11.503  17.160  11.062  0.1749  0.0486 -0.1479
 1868POSM   T1A21916  11.287  17.609  11.164 -0.0359 -0.0544  0.3351
 1868POSM   C2A21917  11.049  17.743  11.451 -0.1674 -0.0128  0.2125
 1868POSM   C3A21918  10.750  17.796  11.853 -0.0872  0.0341 -0.1984
 1868POSM   C1B21919  11.425  16.952  11.277 -0.2747 -0.0822  0.0416
 1868POSM   D2B21920  11.586  16.610  11.521 -0.1634  0.0828  0.2264
 1868POSM   C3B21921  11.773  16.385  11.879  0.2153 -0.5032  0.1023
 1868POSM   C4B21922  12.112  16.141  12.080  0.1812  0.1201  0.0365
 1869DOPC   NC321923  17.353  19.796   9.922  0.2029 -0.1910  0.0137
 1869DOPC   PO421924  17.107  19.697  10.200 -0.0497 -0.1442  0.0376
 1869DOPC   GL121925  17.282  19.731  10.543  0.2102  0.3396 -0.1232
 1869DOPC   GL221926  17.267  19.427  10.700  0.0100  0.1975 -0.1294
 1869DOPC   C1A21927  17.487  20.005  10.790 -0.1299  0.3877 -0.0101
 1869DOPC   D2A21928  17.856  20.176  11.001  0.0951  0.1592 -0.0133
 1869DOPC   C3A21929  17.744  20.363  11.356 -0.0191 -0.2725 -0.1938
 1869DOPC   C4A21930  17.839  20.346  11.806 -0.0551  0.0338  0.0149
 1869DOPC   C1B21931  17.096  19.677  11.058  0.2760 -0.0432  0.0265
 1869DOPC   D2B21932  16.787  19.745  11.370 -0.2330  0.1341 -0.1698
 1869DOPC   C3B21933  16.347  19.833  11.541  0.2807  0.0357 -0.1151
 1869DOPC   C4B21934  16.259  19.765  12.049 -0.1160 -0.2354 -0.2871
 1870POSM   NC321935  20.274  13.790   9.493  0.0554 -0.2332  0.1201
 1870POSM   PO421936  20.540  13.556   9.642  0.3663 -0.0697  0.0052
 1870POSM   AM121937  20.601  13.482   9.924 -0.3578 -0.5017 -0.0722
 1870POSM   AM221938  20.466  13.538  10.174  0.2124  0.0240  0.1165
 1870POSM   T1A21939  20.867  13.235  10.273  0.1517 -0.1525  0.1122
 1870POSM   C2A21940  21.183  12.933  10.462 -0.4523 -0.2480  0.3946
 1870POSM   C3A21941  21.369  13.053  10.868  0.1939  0.0064 -0.0497
 1870POSM   C1B21942  20.426  13.470  10.489  0.2103  0.0641  0.0880
 1870POSM   D2B21943  20.363  13.264  10.863  0.2415  0.0038  0.2362
 1870POSM   C3B21944  19.918  13.309  10.826  0.0621  0.0220 -0.1135
 1870POSM   C4B21945  19.457  13.379  11.022  0.2323  0.1223  0.0261
 1871POSM   NC321946  11.697  18.098  10.001 -0.1614  0.1550 -0.2967
 1871POSM   PO421947  11.886  17.958  10.297 -0.1509 -0.3456  0.0061
 1871POSM   AM121948  12.042  18.029  10.556 -0.1500 -0.0686 -0.0717
 1871POSM   AM221949  11.979  18.109  10.803 -0.0875  0.2386  0.1584
 1871POSM   T1A21950  12.388  17.906  10.952  0.0007  0.1010  0.1231
 1871POSM   C2A21951  12.345  18.096  11.398  0.4317  0.0113 -0.0102
 1871POSM   C3A21952  12.181  18.039  11.805  0.0456 -0.2469  0.1168
 1871POSM   C1B21953  11.860  17.946  11.046  0.2862 -0.1599 -0.0794
 1871POSM   D2B21954  11.848  17.901  11.480 -0.0946  0.2278 -0.0228
 1871POSM   C3B21955  11.469  17.861  11.741  0.0798 -0.0430  0.0948
 1871POSM   C4B21956  11.486  17.494  12.112  0.1790 -0.0107  0.2492
 1872DOPC   NC321957  19.092  12.116  10.244  0.1230  0.1716 -0.3935
 1872DOPC   PO421958  18.938  12.222  10.608  0.3091 -0.4524  0.1847
 1872DOPC   GL121959  19.175  12.160  11.012  0.3040  0.1513  0.3062
 1872DOPC   GL221960  18.968  12.259  11.116  0.3024  0.3044  0.0742
 1872DOPC   C1A21961  19.403  12.424  11.310 -0.1559  0.2268 -0.4149
 1872DOPC   D2A21962  19.685  12.706  11.461  0.2292  0.1337 -0.1534
 1872DOPC   C3A21963  20.118  12.769  11.289  0.2626  0.0436 -0.1074
 1872DOPC   C4A21964  20.309  12.611  10.912 -0.1043 -0.0407 -0.2938
 1872DOPC   C1B21965  18.825  12.323  11.551  0.1690 -0.2433 -0.1355
 1872DOPC   D2B21966  18.442  12.391  11.774 -0.3403 -0.4298  0.1457
 1872DOPC   C3B21967  18.261  12.578  12.150 -0.1483  0.0958  0.0677
 1872DOPC   C4B21968  17.957  12.325  12.423 -0.0755  0.0971  0.0610
 1873DOPE   NH321969  13.120  12.202  11.447  0.0877 -0.1129  0.0172
 1873DOPE   PO421970  12.918  12.357  11.634 -0.2248 -0.1964  0.0003
 1873DOPE   GL121971  13.162  12.406  11.969 -0.1276  0.0813 -0.0348
 1873DOPE   GL221972  13.155  12.704  11.886  0.1137  0.2625 -0.2391
 1873DOPE   C1A21973  12.998  12.308  12.411 -0.0765 -0.2908  0.3278
 1873DOPE   D2A21974  12.680  12.326  12.731 -0.2564 -0.0343 -0.0585
 1873DOPE   C3A21975  12.815  12.597  13.103 -0.1040  0.0388 -0.1016
 1873DOPE   C4A21976  13.124  12.890  13.288  0.1679 -0.1275 -0.0139
 1873DOPE   C1B21977  13.265  12.726  12.355 -0.1939 -0.0579 -0.1922
 1873DOPE   D2B21978  13.066  12.880  12.761 -0.3531 -0.2432  0.0069
 1873DOPE   C3B21979  13.067  13.286  12.984  0.1956  0.3643 -0.3321
 1873DOPE   C4B21980  12.784  13.626  13.095 -0.2525 -0.1395  0.1455
 1874POSM   NC321981  15.737  23.042  10.524  0.2128  0.0475 -0.0007
 1874POSM   PO421982  15.461  23.333  10.406 -0.1513 -0.0206 -0.1337
 1874POSM   AM121983  15.426  23.394  10.758  0.5767 -0.3612  0.1609
 1874POSM   AM221984  15.265  23.224  10.923  0.1685  0.1386 -0.1642
 1874POSM   T1A21985  15.646  23.556  11.147 -0.2462  0.0045  0.5608
 1874POSM   C2A21986  15.599  23.591  11.606 -0.1581 -0.1026  0.4286
 1874POSM   C3A21987  15.248  23.578  11.951  0.0927 -0.0655  0.1492
 1874POSM   C1B21988  15.315  23.189  11.227  0.0669  0.1073 -0.1490
 1874POSM   D2B21989  15.365  23.111  11.703  0.1052  0.1382 -0.1901
 1874POSM   C3B21990  15.484  23.172  12.121  0.2933  0.1201 -0.2419
 1874POSM   C4B21991  15.302  23.335  12.503 -0.5560  0.1288  0.1142
 1875POSM   NC321992  14.263  13.704  10.538 -0.0717  0.2082 -0.1782
 1875POSM   PO421993  14.147  14.061  10.532 -0.3870  0.0622 -0.1408
 1875POSM   AM121994  14.171  14.156  10.862 -0.4403 -0.0969 -0.2620
 1875POSM   AM221995  14.085  14.182  11.087  0.0863  0.2265  0.1527
 1875POSM   T1A21996  14.590  14.302  11.205  0.0602 -0.0227  0.3890
 1875POSM   C2A21997  14.691  14.592  11.551  0.0212 -0.1508 -0.1584
 1875POSM   C3A21998  14.530  14.897  11.844 -0.2686  0.0958 -0.1313
 1875POSM   C1B21999  14.123  14.331  11.338  0.0766  0.0279 -0.3227
 1875POSM   D2B22000  14.223  14.545  11.742 -0.0018 -0.3208 -0.0335
 1875POSM   C3B22001  14.581  14.357  11.953 -0.1652 -0.2189  0.0871
 1875POSM   C4B22002  14.847  14.016  11.925  0.1313 -0.3090  0.0813
 1876DOPS   CNO22003  16.387  14.933   9.957  0.0078  0.3035  0.1431
 1876DOPS   PO422004  16.390  15.290   9.821 -0.1557 -0.0165 -0.2023
 1876DOPS   GL122005  16.467  15.257  10.272  0.2196 -0.2825 -0.2303
 1876DOPS   GL222006  16.192  15.242  10.384 -0.0201  0.1972 -0.1405
 1876DOPS   C1A22007  16.745  15.521  10.556 -0.1977 -0.0221 -0.1777
 1876DOPS   D2A22008  16.853  15.982  10.547  0.3024  0.1040 -0.1352
 1876DOPS   C3A22009  17.058  16.427  10.545  0.3562  0.0976 -0.3481
 1876DOPS   C4A22010  17.018  16.809  10.355  0.3588  0.1033  0.2025
 1876DOPS   C1B22011  16.224  15.763  10.241 -0.0527 -0.2718  0.2358
 1876DOPS   D2B22012  16.327  16.177  10.402 -0.4342 -0.0002 -0.0831
 1876DOPS   C3B22013  16.558  16.415  10.690  0.1105  0.1656 -0.4875
 1876DOPS   C4B22014  16.670  16.773  10.870 -0.0080 -0.0981  0.0496
 1877DOPC   NC322015  14.901  21.225  10.567 -0.2620 -0.0980  0.2295
 1877DOPC   PO422016  14.873  21.605  10.456  0.1601 -0.0977  0.2272
 1877DOPC   GL122017  14.568  21.545  10.787  0.1107 -0.0031 -0.1732
 1877DOPC   GL222018  14.782  21.528  10.977  0.0123  0.3916  0.1882
 1877DOPC   C1A22019  14.482  21.877  11.099 -0.2097 -0.2582  0.2843
 1877DOPC   D2A22020  14.282  22.206  11.367 -0.4198 -0.0072  0.0193
 1877DOPC   C3A22021  14.036  22.288  11.737  0.0875  0.2280  0.1608
 1877DOPC   C4A22022  13.873  22.343  12.157 -0.1956 -0.0061 -0.5125
 1877DOPC   C1B22023  14.823  21.716  11.417 -0.1507 -0.2712 -0.1428
 1877DOPC   D2B22024  14.951  21.590  11.809  0.0718  0.1155  0.1010
 1877DOPC   C3B22025  14.845  21.971  12.055  0.0396  0.2942 -0.0999
 1877DOPC   C4B22026  14.548  22.304  12.059 -0.2248 -0.0691  0.2576
 1878POSM   NC322027   8.589  16.237  10.456 -0.0064  0.3810  0.4280
 1878POSM   PO422028   8.730  15.857  10.416 -0.2025 -0.0407 -0.0824
 1878POSM   AM122029   8.533  15.882  10.679 -0.1228 -0.6181  0.6049
 1878POSM   AM222030   8.257  15.895  10.698 -0.0814  0.0353  0.1475
 1878POSM   T1A22031   8.484  15.815  11.126  0.0805  0.1926  0.1855
 1878POSM   C2A22032   8.120  15.850  11.419 -0.2186  0.2472 -0.2104
 1878POSM   C3A22033   7.902  15.582  11.648  0.0774  0.1281 -0.2601
 1878POSM   C1B22034   8.045  16.110  10.863 -0.1185  0.0776  0.1831
 1878POSM   D2B22035   7.555  16.188  11.015 -0.0696  0.0574  0.0657
 1878POSM   C3B22036   7.449  16.530  11.327 -0.0955  0.0202 -0.0053
 1878POSM   C4B22037   7.322  16.826  11.671  0.0814 -0.0685  0.1759
 1879DOPE   NH322038  15.656  12.998  10.287 -0.1727  0.0825 -0.0329
 1879DOPE   PO422039  15.371  12.939  10.461  0.0497 -0.1281 -0.0221
 1879DOPE   GL122040  15.267  12.947  10.812  0.1148 -0.0423  0.1353
 1879DOPE   GL222041  15.281  13.146  10.964  0.1420 -0.2372  0.1739
 1879DOPE   C1A22042  15.112  12.596  11.089 -0.0577 -0.0583  0.0950
 1879DOPE   D2A22043  14.860  12.373  11.447  0.1043 -0.0224  0.1681
 1879DOPE   C3A22044  14.546  12.465  11.782 -0.2314 -0.0110 -0.0336
 1879DOPE   C4A22045  14.158  12.387  12.086  0.1878  0.0388 -0.1852
 1879DOPE   C1B22046  15.618  12.906  11.106  0.1598 -0.1930  0.3573
 1879DOPE   D2B22047  15.803  12.803  11.580  0.0236 -0.1710  0.0044
 1879DOPE   C3B22048  15.685  12.970  11.994  0.0285 -0.1128 -0.3770
 1879DOPE   C4B22049  15.421  12.834  12.320  0.0002  0.1740 -0.1433
 1880POSM   NC322050  13.981  18.612  10.268 -0.0230 -0.0069 -0.0552
 1880POSM   PO422051  13.611  18.685  10.223 -0.3945 -0.1026 -0.0100
 1880POSM   AM122052  13.516  18.728  10.510  0.2359 -0.0514  0.1440
 1880POSM   AM222053  13.652  18.698  10.756  0.1889  0.1178  0.1082
 1880POSM   T1A22054  13.138  18.938  10.783 -0.1071  0.2332  0.1159
 1880POSM   C2A22055  13.059  19.229  11.163  0.1003  0.0817  0.1125
 1880POSM   C3A22056  13.066  19.508  11.538  0.1936 -0.3209 -0.1709
 1880POSM   C1B22057  13.452  18.593  11.043 -0.2192 -0.0885  0.1593
 1880POSM   D2B22058  13.388  18.446  11.408 -0.2243  0.1426 -0.3493
 1880POSM   C3B22059  13.429  18.586  11.808 -0.1268 -0.0724 -0.1362
 1880POSM   C4B22060  13.292  18.973  12.003 -0.1445  0.0936 -0.0041
 1881POSM   NC322061  13.949  17.446  10.050  0.0325 -0.0259  0.0950
 1881POSM   PO422062  14.011  17.801   9.874 -0.1576  0.1110  0.1429
 1881POSM   AM122063  14.271  17.757  10.097  0.2673 -0.5246 -0.0496
 1881POSM   AM222064  14.276  17.665  10.363 -0.0821  0.1324  0.1957
 1881POSM   T1A22065  14.734  17.906  10.133 -0.2506  0.1226  0.2906
 1881POSM   C2A22066  15.170  17.993  10.026 -0.0037 -0.2209 -0.1280
 1881POSM   C3A22067  15.587  17.768  10.018  0.2385 -0.2587  0.0712
 1881POSM   C1B22068  14.164  17.726  10.671 -0.1520  0.1370  0.0310
 1881POSM   D2B22069  14.290  17.671  11.158 -0.2455 -0.1136 -0.1761
 1881POSM   C3B22070  14.291  17.394  11.510 -0.0724 -0.2219 -0.0380
 1881POSM   C4B22071  14.137  17.363  11.929  0.1452  0.1117 -0.1691
 1882POSM   NC322072  13.398  16.146  10.649 -0.1248  0.0620 -0.0695
 1882POSM   PO422073  13.030  16.006  10.513 -0.1080 -0.2906  0.3949
 1882POSM   AM122074  12.960  16.123  10.830  0.1982 -0.0095  0.0373
 1882POSM   AM222075  12.949  15.996  11.068  0.0651 -0.0254 -0.1783
 1882POSM   T1A22076  13.020  16.538  11.128 -0.0338  0.0233  0.0022
 1882POSM   C2A22077  13.310  16.868  11.264  0.0972  0.2052  0.1168
 1882POSM   C3A22078  13.589  17.114  10.975  0.0653 -0.2752 -0.1671
 1882POSM   C1B22079  13.063  16.083  11.317 -0.1109 -0.2604 -0.3914
 1882POSM   D2B22080  13.154  16.479  11.603  0.1103  0.1033 -0.0103
 1882POSM   C3B22081  12.838  16.764  11.567  0.2175  0.0403 -0.1324
 1882POSM   C4B22082  12.449  16.729  11.412 -0.1152  0.0229 -0.0434
 1883DOPS   CNO22083  19.446  14.869   9.749 -0.1029 -0.2733 -0.3256
 1883DOPS   PO422084  19.381  15.212   9.869  0.0348 -0.1247  0.0810
 1883DOPS   GL122085  19.649  15.206  10.226 -0.1541 -0.2736  0.1733
 1883DOPS   GL222086  19.485  15.374  10.325  0.1824  0.0549 -0.1222
 1883DOPS   C1A22087  19.993  15.118  10.552  0.0888 -0.0478 -0.0264
 1883DOPS   D2A22088  20.418  15.021  10.739  0.0041 -0.2164  0.2512
 1883DOPS   C3A22089  20.771  15.226  10.714  0.0822 -0.0032  0.4039
 1883DOPS   C4A22090  21.195  15.349  10.651 -0.0357  0.2434  0.2441
 1883DOPS   C1B22091  19.103  15.307  10.585  0.1547  0.1815 -0.0788
 1883DOPS   D2B22092  19.156  15.138  11.083 -0.2166 -0.0627  0.0524
 1883DOPS   C3B22093  19.535  15.251  11.327 -0.0573  0.2601  0.0733
 1883DOPS   C4B22094  19.924  15.456  11.528  0.1605  0.1885  0.3443
 1884POSM   NC322095  18.879  11.473  10.010  0.0861  0.1870 -0.1043
 1884POSM   PO422096  18.810  11.731  10.269  0.0660  0.0253 -0.2292
 1884POSM   AM122097  18.781  11.742  10.619  0.2212 -0.0608  0.1148
 1884POSM   AM222098  18.639  11.924  10.782  0.3153  0.3845  0.2441
 1884POSM   T1A22099  19.027  11.596  11.048 -0.1396  0.1191 -0.3162
 1884POSM   C2A22100  19.039  11.301  11.423  0.0641 -0.0108 -0.4010
 1884POSM   C3A22101  18.648  11.236  11.742 -0.0842  0.0283 -0.0084
 1884POSM   C1B22102  18.552  12.012  11.109  0.0435  0.0531  0.1629
 1884POSM   D2B22103  18.355  12.007  11.526  0.0869  0.1080 -0.0780
 1884POSM   C3B22104  18.183  11.699  11.808  0.0014  0.0216 -0.1994
 1884POSM   C4B22105  18.233  11.330  12.050 -0.0798  0.0451  0.2431
 1885DOPE   NH322106  19.576  15.632   9.901 -0.0505 -0.0850  0.1311
 1885DOPE   PO422107  19.816  15.474   9.750 -0.1144 -0.0920 -0.0766
 1885DOPE   GL122108  20.008  15.258   9.816 -0.2310 -0.1289 -0.2434
 1885DOPE   GL222109  20.235  15.303   9.950  0.0802 -0.0609 -0.0475
 1885DOPE   C1A22110  19.898  14.882  10.073  0.1929  0.1523 -0.0932
 1885DOPE   D2A22111  19.470  14.808  10.213 -0.3077  0.1065  0.1081
 1885DOPE   C3A22112  19.301  14.463  10.376 -0.0038  0.3245  0.0718
 1885DOPE   C4A22113  19.106  14.194  10.713 -0.0494 -0.1743 -0.0543
 1885DOPE   C1B22114  20.348  14.964  10.228  0.1658  0.2609 -0.1492
 1885DOPE   D2B22115  20.134  14.506  10.340 -0.0595 -0.1391  0.1993
 1885DOPE   C3B22116  20.325  14.188  10.656  0.0121  0.1603 -0.0489
 1885DOPE   C4B22117  20.318  14.259  11.125 -0.4974 -0.0187  0.0633
 1886DOPE   NH322118  22.715  20.976  10.163 -0.1164  0.0753  0.1819
 1886DOPE   PO422119  23.000  20.897  10.241 -0.3917  0.2306 -0.3867
 1886DOPE   GL122120  22.710  20.632  10.525  0.0450  0.0778 -0.0803
 1886DOPE   GL222121  22.672  20.838  10.660 -0.0112  0.0375 -0.1476
 1886DOPE   C1A22122  22.716  20.452  10.969 -0.1308  0.0326 -0.0548
 1886DOPE   D2A22123  22.477  20.209  11.292  0.2027 -0.1601 -0.5205
 1886DOPE   C3A22124  22.604  20.466  11.701 -0.0605  0.0675  0.1322
 1886DOPE   C4A22125  22.762  20.812  11.961  0.0837 -0.1263  0.0859
 1886DOPE   C1B22126  22.552  21.009  11.111 -0.1555  0.1154 -0.2218
 1886DOPE   D2B22127  22.795  21.036  11.486 -0.0319  0.4386 -0.1436
 1886DOPE   C3B22128  23.171  21.343  11.420 -0.0679 -0.1364  0.2418
 1886DOPE   C4B22129  23.183  21.831  11.551  0.0038  0.1290 -0.2212
 1887DOPE   NH322130  14.713  20.766  10.372  0.0056 -0.0604  0.1573
 1887DOPE   PO422131  15.005  20.846  10.313 -0.1455  0.0736  0.1573
 1887DOPE   GL122132  15.068  20.828  10.697 -0.0796  0.1526  0.1762
 1887DOPE   GL222133  15.337  20.973  10.782  0.2652 -0.3205  0.1343
 1887DOPE   C1A22134  15.045  20.822  11.175 -0.1109 -0.2937  0.0759
 1887DOPE   D2A22135  14.678  20.740  11.406 -0.3238  0.1882  0.3263
 1887DOPE   C3A22136  14.276  20.957  11.406 -0.1449 -0.2681  0.1270
 1887DOPE   C4A22137  13.918  21.213  11.462 -0.0735 -0.0000  0.1767
 1887DOPE   C1B22138  15.608  20.888  11.136 -0.0300 -0.0224 -0.0482
 1887DOPE   D2B22139  15.763  20.658  11.506 -0.1540  0.1839  0.0186
 1887DOPE   C3B22140  15.537  20.228  11.703  0.2724  0.0331  0.1422
 1887DOPE   C4B22141  15.799  19.818  11.752  0.0861 -0.0046 -0.1979
 1888DOPE   NH322142  11.632  13.371  11.189 -0.0138 -0.2880  0.0075
 1888DOPE   PO422143  11.748  13.331  11.472  0.1570  0.0918  0.0013
 1888DOPE   GL122144  11.556  13.438  11.797  0.2300  0.2135 -0.0475
 1888DOPE   GL222145  11.262  13.327  11.756 -0.0358 -0.0495 -0.1295
 1888DOPE   C1A22146  11.793  13.302  12.199  0.3588 -0.2010  0.1278
 1888DOPE   D2A22147  11.912  12.954  12.509 -0.2933  0.1221  0.2343
 1888DOPE   C3A22148  11.681  12.991  12.889 -0.2158 -0.1472 -0.0484
 1888DOPE   C4A22149  11.704  13.173  13.336  0.1723  0.0063  0.0167
 1888DOPE   C1B22150  11.263  13.509  12.159 -0.0065  0.0297 -0.1722
 1888DOPE   D2B22151  11.276  13.974  12.309 -0.1376 -0.1584  0.0635
 1888DOPE   C3B22152  11.655  14.200  12.466  0.1086  0.0680  0.0891
 1888DOPE   C4B22153  12.004  14.100  12.780 -0.0649 -0.1092  0.0876
 1889POSM   NC322154  13.076  13.892  10.483  0.5297  0.0311 -0.1397
 1889POSM   PO422155  12.798  13.964  10.727  0.3573  0.0751 -0.1493
 1889POSM   AM122156  12.595  14.019  10.982 -0.3673  0.2577  0.4536
 1889POSM   AM222157  12.436  13.985  11.244 -0.0570 -0.1442  0.0712
 1889POSM   T1A22158  12.396  14.449  11.184  0.2404  0.1911 -0.0868
 1889POSM   C2A22159  11.975  14.649  11.391  0.1152 -0.0045  0.1223
 1889POSM   C3A22160  12.001  14.952  11.719  0.0987  0.2755  0.0024
 1889POSM   C1B22161  12.599  13.968  11.544  0.0088  0.0120 -0.1813
 1889POSM   D2B22162  12.720  14.101  11.928 -0.0581 -0.2237  0.0872
 1889POSM   C3B22163  12.822  14.530  12.175  0.1918  0.0137 -0.2003
 1889POSM   C4B22164  12.985  14.722  12.605  0.2729 -0.0746  0.0491
 1890DOPC   NC322165  19.772  16.976   9.622 -0.0698 -0.0174  0.2680
 1890DOPC   PO422166  19.846  16.725   9.910 -0.1565 -0.5062 -0.3294
 1890DOPC   GL122167  19.894  16.577  10.274 -0.2823 -0.2372 -0.0526
 1890DOPC   GL222168  19.817  16.831  10.392  0.1068 -0.1320 -0.0863
 1890DOPC   C1A22169  20.134  16.649  10.727  0.1037 -0.1429 -0.1456
 1890DOPC   D2A22170  20.109  16.922  11.102  0.0373  0.3196  0.0250
 1890DOPC   C3A22171  20.070  16.843  11.521  0.1824 -0.4182 -0.2523
 1890DOPC   C4A22172  20.216  17.029  11.907 -0.3333  0.1137 -0.0374
 1890DOPC   C1B22173  19.729  16.985  10.784  0.1579 -0.0860  0.0073
 1890DOPC   D2B22174  19.526  17.174  11.149  0.0932  0.0680 -0.4822
 1890DOPC   C3B22175  19.083  17.257  11.320  0.1683  0.1772  0.2317
 1890DOPC   C4B22176  18.803  17.651  11.386 -0.0779  0.3229 -0.0141
 1891DOPC   NC322177  16.567  22.580  10.194 -0.1429 -0.3890 -0.0583
 1891DOPC   PO422178  16.942  22.750  10.340  0.1923  0.0121  0.2084
 1891DOPC   GL122179  16.835  22.419  10.549  0.0573  0.0202 -0.1963
 1891DOPC   GL222180  16.728  22.540  10.773  0.0436  0.2567 -0.1046
 1891DOPC   C1A22181  17.154  22.154  10.829 -0.1375 -0.1824  0.2956
 1891DOPC   D2A22182  17.237  21.905  11.231 -0.0804 -0.1782  0.2102
 1891DOPC   C3A22183  17.355  21.764  11.677 -0.0413  0.3282  0.0265
 1891DOPC   C4A22184  17.621  21.809  12.059  0.1357  0.0625  0.1422
 1891DOPC   C1B22185  17.071  22.681  11.003  0.3792 -0.0352  0.0672
 1891DOPC   D2B22186  17.090  22.476  11.448 -0.0818  0.1710  0.2412
 1891DOPC   C3B22187  17.439  22.268  11.679  0.0467 -0.1120  0.1029
 1891DOPC   C4B22188  17.880  22.262  11.571 -0.0180 -0.4504  0.0759
 1892POSM   NC322189  12.421  13.199  10.711  0.1074 -0.0073  0.1708
 1892POSM   PO422190  12.491  13.126  11.062  0.0654  0.2054 -0.3242
 1892POSM   AM122191  12.677  13.208  11.319  0.1019  0.0722  0.0905
 1892POSM   AM222192  12.922  13.389  11.429 -0.0516 -0.1155 -0.1101
 1892POSM   T1A22193  12.764  13.048  11.749  0.0597 -0.2011 -0.0661
 1892POSM   C2A22194  12.880  13.113  12.183 -0.0682 -0.1400 -0.0670
 1892POSM   C3A22195  13.104  13.378  12.496 -0.2130  0.0478  0.0630
 1892POSM   C1B22196  12.962  13.503  11.783  0.2800  0.0526  0.1174
 1892POSM   D2B22197  13.214  13.687  12.166 -0.0473 -0.1761  0.0606
 1892POSM   C3B22198  12.976  13.909  12.582 -0.1475 -0.0940  0.0984
 1892POSM   C4B22199  12.956  14.073  12.994 -0.0704  0.0072 -0.0672
 1893POSM   NC322200  17.011  18.056   9.361 -0.1897  0.2999  0.2705
 1893POSM   PO422201  17.263  17.757   9.394 -0.0409  0.2771 -0.2017
 1893POSM   AM122202  17.323  17.736   9.715  0.0710  0.4149  0.0681
 1893POSM   AM222203  17.356  17.595   9.916  0.0118 -0.3322 -0.0082
 1893POSM   T1A22204  17.266  18.000  10.141  0.4037  0.2382  0.1155
 1893POSM   C2A22205  17.361  18.005  10.626 -0.3879  0.1784 -0.0757
 1893POSM   C3A22206  17.646  17.986  10.957 -0.3714  0.3996  0.3509
 1893POSM   C1B22207  17.620  17.592  10.173  0.2452 -0.0208 -0.1196
 1893POSM   D2B22208  17.815  17.645  10.595  0.1984  0.0475  0.0765
 1893POSM   C3B22209  17.491  17.484  10.882 -0.2116  0.4525  0.0369
 1893POSM   C4B22210  17.238  17.350  11.276  0.1033 -0.0649  0.1666
 1894DOPS   CNO22211  17.561  14.908  10.122  0.0286 -0.1384  0.0118
 1894DOPS   PO422212  17.923  15.002   9.984 -0.0194  0.1889  0.0169
 1894DOPS   GL122213  18.251  14.781  10.197  0.0091  0.2856  0.2985
 1894DOPS   GL222214  18.437  14.911  10.029 -0.0326 -0.1506  0.1010
 1894DOPS   C1A22215  18.175  14.673  10.631 -0.0623  0.2244  0.3140
 1894DOPS   D2A22216  18.168  14.756  11.048 -0.0601  0.3171  0.0451
 1894DOPS   C3A22217  18.132  14.459  11.380  0.1577 -0.2668  0.0167
 1894DOPS   C4A22218  18.291  14.400  11.839  0.0201  0.1134 -0.0541
 1894DOPS   C1B22219  18.716  14.813  10.423 -0.0860  0.2645 -0.0545
 1894DOPS   D2B22220  19.089  14.720  10.721 -0.0109  0.0056  0.3586
 1894DOPS   C3B22221  19.447  14.494  10.886 -0.1757  0.0362  0.2131
 1894DOPS   C4B22222  19.822  14.355  11.115  0.2797 -0.0875  0.3242
 1895DOPE   NH322223  19.095  16.539   9.649 -0.2072  0.0659  0.1909
 1895DOPE   PO422224  19.387  16.558   9.785 -0.3713  0.0880 -0.0387
 1895DOPE   GL122225  19.482  16.470  10.175 -0.2662  0.0073  0.2567
 1895DOPE   GL222226  19.353  16.713  10.281 -0.2919 -0.0497  0.4020
 1895DOPE   C1A22227  19.561  16.449  10.621  0.0532  0.1932  0.1503
 1895DOPE   D2A22228  19.803  16.334  11.049 -0.0631  0.4939 -0.1991
 1895DOPE   C3A22229  19.681  16.684  11.319 -0.0064  0.0626 -0.1153
 1895DOPE   C4A22230  19.333  16.854  11.586  0.0421 -0.0099 -0.1082
 1895DOPE   C1B22231  19.350  17.135  10.475 -0.0774 -0.0358 -0.0793
 1895DOPE   D2B22232  19.473  17.566  10.712  0.1816 -0.1601  0.0546
 1895DOPE   C3B22233  19.211  17.693  11.026 -0.2399 -0.0627 -0.1818
 1895DOPE   C4B22234  18.964  18.062  11.052 -0.2384  0.0981 -0.0377
 1896DOPC   NC322235  15.462  14.304  10.081 -0.2518  0.2037 -0.1654
 1896DOPC   PO422236  15.627  14.632   9.994 -0.3199 -0.2450 -0.2613
 1896DOPC   GL122237  15.671  14.813  10.371 -0.2960 -0.0830 -0.0001
 1896DOPC   GL222238  15.501  15.020  10.372 -0.2675 -0.0379  0.1102
 1896DOPC   C1A22239  15.921  14.892  10.756 -0.2113  0.4095  0.3828
 1896DOPC   D2A22240  16.181  15.103  11.122 -0.0825  0.0806  0.1244
 1896DOPC   C3A22241  16.377  15.521  11.101  0.2139 -0.0541 -0.0196
 1896DOPC   C4A22242  16.476  15.919  10.853  0.2160  0.1384 -0.1380
 1896DOPC   C1B22243  15.654  15.280  10.767 -0.1705 -0.1345 -0.0669
 1896DOPC   D2B22244  15.846  15.568  11.152 -0.0023 -0.0576  0.1015
 1896DOPC   C3B22245  15.616  15.396  11.502  0.1919  0.0658  0.2704
 1896DOPC   C4B22246  15.449  15.036  11.718  0.0234  0.1469  0.1566
 1897DOPC   NC322247  15.222  22.324  10.622 -0.1579 -0.3303 -0.1270
 1897DOPC   PO422248  15.381  22.073  10.378  0.0325 -0.3080 -0.1082
 1897DOPC   GL122249  15.605  22.155  10.697 -0.2312 -0.0308  0.3460
 1897DOPC   GL222250  15.741  21.904  10.827  0.1166  0.2361  0.0933
 1897DOPC   C1A22251  15.643  22.298  11.085 -0.1352 -0.1644  0.0059
 1897DOPC   D2A22252  15.632  22.563  11.475  0.1711  0.3766 -0.3309
 1897DOPC   C3A22253  15.474  22.598  11.837  0.3531  0.0471  0.0514
 1897DOPC   C4A22254  15.387  22.416  12.247  0.1935 -0.1001  0.1500
 1897DOPC   C1B22255  15.795  21.737  11.229 -0.1139  0.0869  0.0838
 1897DOPC   D2B22256  15.405  21.607  11.541 -0.1990  0.4355  0.1085
 1897DOPC   C3B22257  15.325  21.844  11.948 -0.1981 -0.0137 -0.0151
 1897DOPC   C4B22258  15.294  21.907  12.418 -0.3314 -0.1396  0.0085
 1898DOPC   NC322259  14.714  24.628  10.838 -0.0173 -0.1980 -0.1719
 1898DOPC   PO422260  14.707  25.014  10.661 -0.0632 -0.1020  0.1209
 1898DOPC   GL122261  14.437  24.967  10.937 -0.1261  0.1756  0.2162
 1898DOPC   GL222262  14.380  25.247  11.006  0.2366 -0.1315 -0.2065
 1898DOPC   C1A22263  14.367  24.585  11.251 -0.4052 -0.1436  0.0722
 1898DOPC   D2A22264  14.031  24.468  11.544 -0.0966  0.1898 -0.0302
 1898DOPC   C3A22265  13.924  24.511  11.993  0.2718 -0.2798  0.2635
 1898DOPC   C4A22266  13.647  24.449  12.295 -0.1109  0.1824 -0.0682
 1898DOPC   C1B22267  14.280  25.445  11.426  0.0868 -0.1721 -0.3194
 1898DOPC   D2B22268  14.389  25.481  11.915  0.0852  0.5047 -0.2585
 1898DOPC   C3B22269  14.592  25.053  12.132 -0.1134  0.1900  0.1580
 1898DOPC   C4B22270  14.959  24.818  12.375  0.6685 -0.2778  0.1508
 1899DOPE   NH322271  21.790  12.911   9.894 -0.0369  0.1417 -0.3587
 1899DOPE   PO422272  21.563  12.935  10.049  0.1425 -0.1566 -0.2997
 1899DOPE   GL122273  21.698  12.982  10.362 -0.0770 -0.0910  0.1304
 1899DOPE   GL222274  21.906  13.202  10.343 -0.5867  0.0433  0.0324
 1899DOPE   C1A22275  21.679  12.717  10.755 -0.1403 -0.0427 -0.2579
 1899DOPE   D2A22276  21.650  12.770  11.180  0.1134 -0.1971  0.1451
 1899DOPE   C3A22277  21.900  12.687  11.533  0.1169 -0.0881 -0.0037
 1899DOPE   C4A22278  22.144  12.862  11.925 -0.3532 -0.0535  0.0793
 1899DOPE   C1B22279  22.099  13.556  10.608 -0.0419  0.2103  0.0035
 1899DOPE   D2B22280  22.230  13.930  10.807  0.5205 -0.2944 -0.0106
 1899DOPE   C3B22281  22.587  13.881  11.109 -0.1117  0.2631  0.1086
 1899DOPE   C4B22282  22.984  13.888  11.401  0.3606  0.0269  0.1309
 1900DOPC   NC322283  20.643  18.349  10.267  0.0844  0.0575 -0.0870
 1900DOPC   PO422284  20.264  18.244  10.321 -0.0930 -0.1525 -0.1594
 1900DOPC   GL122285  20.432  17.932  10.377  0.0384  0.0392  0.1910
 1900DOPC   GL222286  20.389  17.904  10.675  0.0035 -0.0056 -0.6315
 1900DOPC   C1A22287  20.887  17.940  10.370  0.1023 -0.0213  0.0259
 1900DOPC   D2A22288  21.259  18.127  10.538  0.0261  0.0243  0.2018
 1900DOPC   C3A22289  21.264  18.211  10.971 -0.2534  0.0102 -0.0868
 1900DOPC   C4A22290  21.066  18.199  11.383 -0.1696 -0.2268  0.2188
 1900DOPC   C1B22291  20.293  17.694  11.044  0.2107  0.0854  0.0643
 1900DOPC   D2B22292  19.972  17.447  11.244  0.2006  0.1643  0.1794
 1900DOPC   C3B22293  20.071  17.454  11.718 -0.0584  0.1825 -0.1251
 1900DOPC   C4B22294  19.944  17.387  12.120 -0.0741  0.0538  0.1644
 1901POSM   NC322295  11.418  15.357  10.430  0.1137  0.1977 -0.2425
 1901POSM   PO422296  11.707  15.316  10.695 -0.2755  0.1536  0.0001
 1901POSM   AM122297  11.696  15.406  11.003 -0.3365  0.4322  0.2810
 1901POSM   AM222298  11.500  15.568  11.153  0.3011 -0.1652 -0.2857
 1901POSM   T1A22299  11.894  15.408  11.445 -0.0106  0.1751 -0.1317
 1901POSM   C2A22300  11.998  15.443  11.880 -0.0569 -0.1860 -0.0543
 1901POSM   C3A22301  12.037  15.231  12.257 -0.0805  0.3113  0.0356
 1901POSM   C1B22302  11.573  15.792  11.366  0.0360 -0.2958  0.0061
 1901POSM   D2B22303  11.421  16.117  11.584  0.1547  0.1633 -0.2605
 1901POSM   C3B22304  11.379  16.046  12.057  0.1125  0.2265  0.2337
 1901POSM   C4B22305  11.121  16.158  12.397  0.2360  0.2230  0.1232
 1902DOPS   CNO22306  13.922  13.723  10.947  0.1732 -0.1448  0.1923
 1902DOPS   PO422307  14.100  13.396  10.841 -0.0862  0.1552 -0.0308
 1902DOPS   GL122308  14.411  13.431  10.995  0.0088 -0.3513  0.0739
 1902DOPS   GL222309  14.382  13.645  11.225  0.2063  0.0981  0.1997
 1902DOPS   C1A22310  14.420  13.136  11.365  0.1576 -0.1151 -0.0562
 1902DOPS   D2A22311  14.752  12.923  11.699  0.2863 -0.0867  0.1771
 1902DOPS   C3A22312  15.030  13.104  12.090 -0.3606  0.2157 -0.1905
 1902DOPS   C4A22313  15.101  13.145  12.565 -0.0503  0.1111 -0.3585
 1902DOPS   C1B22314  14.618  13.549  11.614 -0.1114 -0.0488  0.0965
 1902DOPS   D2B22315  14.514  13.301  12.009  0.0145 -0.0515 -0.1325
 1902DOPS   C3B22316  14.112  13.288  12.207 -0.0239  0.1113  0.0191
 1902DOPS   C4B22317  14.033  13.267  12.718 -0.3773  0.3287 -0.0712
 1903DOPE   NH322318  12.091  15.578  10.876 -0.0911  0.2623 -0.2931
 1903DOPE   PO422319  12.016  15.885  10.874 -0.0938  0.2620 -0.0874
 1903DOPE   GL122320  12.057  15.832  11.306  0.0562 -0.0723  0.0039
 1903DOPE   GL222321  12.312  15.934  11.260 -0.0575 -0.0686 -0.0452
 1903DOPE   C1A22322  11.891  15.881  11.734  0.2759  0.2055  0.1062
 1903DOPE   D2A22323  11.712  15.739  12.157  0.3393 -0.0184  0.1395
 1903DOPE   C3A22324  11.804  16.088  12.483  0.0858 -0.3288  0.1167
 1903DOPE   C4A22325  11.915  16.447  12.750 -0.1712  0.1176  0.1047
 1903DOPE   C1B22326  12.401  15.870  11.705 -0.0874  0.2504 -0.0442
 1903DOPE   D2B22327  12.647  15.988  12.115  0.0991 -0.2568  0.1792
 1903DOPE   C3B22328  12.581  16.442  12.239 -0.1061 -0.1657 -0.0450
 1903DOPE   C4B22329  12.275  16.713  12.463  0.1728  0.1471 -0.0147
 1904POSM   NC322330   8.945  14.716  10.649 -0.1335  0.0034  0.2183
 1904POSM   PO422331   9.073  15.035  10.506 -0.0184 -0.0065  0.0233
 1904POSM   AM122332   8.911  15.231  10.729  0.0942  0.0459 -0.1427
 1904POSM   AM222333   8.826  15.111  11.006 -0.0946  0.4570 -0.0102
 1904POSM   T1A22334   8.402  15.366  10.817 -0.0791 -0.2075  0.3861
 1904POSM   C2A22335   8.044  15.571  10.982 -0.3255 -0.1841  0.3098
 1904POSM   C3A22336   7.650  15.663  11.180  0.0684 -0.0492  0.0453
 1904POSM   C1B22337   8.803  15.328  11.253 -0.2045  0.1683 -0.1181
 1904POSM   D2B22338   8.725  15.580  11.644  0.2476  0.0932  0.1176
 1904POSM   C3B22339   8.780  15.421  12.080  0.1992 -0.0639  0.3210
 1904POSM   C4B22340   9.079  15.286  12.412 -0.3381  0.0544 -0.0442
 1905DOPC   NC322341  16.426  21.030   9.979  0.3433 -0.4364  0.0067
 1905DOPC   PO422342  16.545  20.659   9.973  0.1305 -0.1862  0.1652
 1905DOPC   GL122343  16.628  20.523  10.344 -0.1878  0.3310  0.1766
 1905DOPC   GL222344  16.777  20.576  10.568  0.2096  0.3985  0.1498
 1905DOPC   C1A22345  16.514  20.091  10.423  0.3396 -0.1433  0.2509
 1905DOPC   D2A22346  16.622  19.669  10.704  0.0870  0.2677  0.1772
 1905DOPC   C3A22347  16.776  19.296  10.621  0.1357  0.4808  0.0621
 1905DOPC   C4A22348  16.883  18.842  10.577 -0.0396 -0.0717 -0.0604
 1905DOPC   C1B22349  16.349  20.472  10.737  0.0728  0.1309  0.2146
 1905DOPC   D2B22350  16.285  20.330  11.188 -0.1584 -0.0412 -0.0459
 1905DOPC   C3B22351  16.380  20.642  11.539  0.0674  0.0410 -0.3444
 1905DOPC   C4B22352  16.252  20.772  11.918  0.2106 -0.0949 -0.2194
 1906DOPS   CNO22353  12.763  11.345  11.159  0.2696  0.1621 -0.0350
 1906DOPS   PO422354  12.867  10.981  11.092  0.1789 -0.0259 -0.1602
 1906DOPS   GL122355  12.847  11.022  11.468 -0.2894  0.2518 -0.2526
 1906DOPS   GL222356  13.053  11.180  11.573 -0.2393 -0.1141 -0.1738
 1906DOPS   C1A22357  12.616  11.248  11.829  0.1213  0.2977  0.2345
 1906DOPS   D2A22358  12.771  11.377  12.259  0.1205  0.1615 -0.0043
 1906DOPS   C3A22359  13.171  11.404  12.463  0.1883 -0.1449 -0.0467
 1906DOPS   C4A22360  13.451  11.531  12.805  0.1937 -0.0711 -0.0533
 1906DOPS   C1B22361  13.006  10.831  11.902  0.3935 -0.2540  0.0129
 1906DOPS   D2B22362  12.934  10.949  12.388  0.1301 -0.1550 -0.0556
 1906DOPS   C3B22363  12.899  11.104  12.767  0.0767 -0.0318  0.2989
 1906DOPS   C4B22364  12.901  11.497  13.055  0.1459  0.0895 -0.0331
 1907DOPC   NC322365  13.670  14.251  10.830 -0.3614  0.0410  0.1514
 1907DOPC   PO422366  13.533  13.881  10.709 -0.0244 -0.3356  0.3764
 1907DOPC   GL122367  13.500  13.760  11.086  0.0254 -0.1549 -0.1354
 1907DOPC   GL222368  13.624  14.023  11.275 -0.0336  0.3936 -0.0912
 1907DOPC   C1A22369  13.161  13.871  11.427  0.2857 -0.1297 -0.2118
 1907DOPC   D2A22370  13.171  14.250  11.721 -0.0026  0.0709  0.1365
 1907DOPC   C3A22371  13.269  14.215  12.153  0.3277  0.0993  0.1526
 1907DOPC   C4A22372  13.255  14.332  12.622  0.1767 -0.1469  0.0800
 1907DOPC   C1B22373  13.951  13.793  11.489  0.2740 -0.0052 -0.1809
 1907DOPC   D2B22374  14.125  13.530  11.779  0.1156 -0.0819  0.0282
 1907DOPC   C3B22375  14.430  13.786  12.117  0.1836  0.3083  0.0296
 1907DOPC   C4B22376  14.707  14.060  12.417 -0.3317 -0.2182  0.1078
 1908DOPC   NC322377  13.684  13.160  10.944 -0.2354  0.0935 -0.1268
 1908DOPC   PO422378  13.403  12.924  10.927  0.0192  0.1603  0.0577
 1908DOPC   GL122379  13.548  13.146  11.372  0.0600 -0.2850  0.0094
 1908DOPC   GL222380  13.310  13.108  11.574 -0.0879 -0.0218  0.2832
 1908DOPC   C1A22381  13.475  13.566  11.595 -0.2063  0.0752  0.0445
 1908DOPC   D2A22382  13.535  13.958  11.853  0.4556 -0.4179 -0.0717
 1908DOPC   C3A22383  14.015  14.073  11.887  0.1809  0.0182 -0.0823
 1908DOPC   C4A22384  14.395  13.973  11.609  0.0665  0.2213  0.2049
 1908DOPC   C1B22385  13.275  13.217  11.986 -0.0798 -0.1548  0.0174
 1908DOPC   D2B22386  13.540  13.182  12.332  0.1923 -0.1558 -0.0171
 1908DOPC   C3B22387  13.843  12.871  12.116  0.0071  0.0238  0.2619
 1908DOPC   C4B22388  14.174  12.825  11.735  0.0141 -0.0582 -0.0060
 1909DOPE   NH322389  17.908  12.645   9.934 -0.1908 -0.1766  0.1073
 1909DOPE   PO422390  17.775  12.886  10.063 -0.3479 -0.0505 -0.2882
 1909DOPE   GL122391  17.908  12.847  10.423  0.0764 -0.3491 -0.0535
 1909DOPE   GL222392  17.710  12.778  10.585 -0.1184 -0.1958  0.1478
 1909DOPE   C1A22393  18.212  12.846  10.774 -0.1338 -0.1096  0.3099
 1909DOPE   D2A22394  18.646  12.680  10.814 -0.0381 -0.1643  0.1522
 1909DOPE   C3A22395  18.965  12.743  11.197  0.1180 -0.0145 -0.0207
 1909DOPE   C4A22396  19.288  12.965  11.522  0.0920  0.2429 -0.0025
 1909DOPE   C1B22397  17.759  12.644  11.008  0.0069 -0.1839 -0.1253
 1909DOPE   D2B22398  17.795  12.558  11.495 -0.1521  0.0454  0.0489
 1909DOPE   C3B22399  17.568  12.946  11.648  0.1834  0.4942 -0.1281
 1909DOPE   C4B22400  17.173  13.041  11.881  0.1234 -0.0517  0.1505
 1910DOPC   NC322401  12.340  13.503  11.377  0.0231 -0.1551 -0.2299
 1910DOPC   PO422402  12.007  13.691  11.313  0.1233 -0.1374  0.3466
 1910DOPC   GL122403  11.953  13.831  11.652 -0.0277  0.2013  0.1989
 1910DOPC   GL222404  12.075  14.121  11.639 -0.1389  0.1985 -0.0316
 1910DOPC   C1A22405  12.299  13.705  11.899  0.0102  0.3386  0.3137
 1910DOPC   D2A22406  12.644  13.690  12.236 -0.2450  0.1514 -0.3015
 1910DOPC   C3A22407  12.526  13.764  12.732 -0.0247 -0.1133 -0.0469
 1910DOPC   C4A22408  12.298  13.540  13.109  0.0837  0.1799  0.1033
 1910DOPC   C1B22409  12.384  14.444  11.741 -0.0850  0.1780 -0.1995
 1910DOPC   D2B22410  12.451  14.848  12.004  0.0563  0.0609 -0.0298
 1910DOPC   C3B22411  12.472  14.746  12.473  0.3480  0.0879  0.1114
 1910DOPC   C4B22412  12.234  14.558  12.784 -0.0134 -0.3235 -0.0336
 1911DOPC   NC322413  20.279  22.151  10.230 -0.1955  0.2259  0.0712
 1911DOPC   PO422414  20.554  22.415  10.337 -0.1226  0.3443 -0.0941
 1911DOPC   GL122415  20.305  22.259  10.663 -0.0522 -0.0201  0.1875
 1911DOPC   GL222416  20.129  22.474  10.749 -0.1145  0.0586 -0.1284
 1911DOPC   C1A22417  20.312  21.982  11.031 -0.0180 -0.3323  0.0177
 1911DOPC   D2A22418  20.459  22.121  11.466  0.0817 -0.4021  0.0660
 1911DOPC   C3A22419  20.784  21.864  11.647  0.1628  0.2483 -0.1033
 1911DOPC   C4A22420  21.149  21.747  11.908 -0.1287 -0.0436  0.1618
 1911DOPC   C1B22421  20.217  22.529  11.208  0.0884  0.2422  0.1044
 1911DOPC   D2B22422  20.051  22.463  11.673 -0.2647  0.2118 -0.0752
 1911DOPC   C3B22423  20.388  22.308  11.953 -0.1159 -0.0640  0.0584
 1911DOPC   C4B22424  20.590  21.968  12.216  0.0729  0.1471 -0.1732
 1912POSM   NC322425  14.464  23.646   9.920 -0.0109 -0.3856 -0.0559
 1912POSM   PO422426  14.075  23.739  10.013  0.0667  0.2692 -0.0451
 1912POSM   AM122427  13.895  23.689  10.300 -0.0478 -0.0376  0.1505
 1912POSM   AM222428  13.878  23.779  10.571  0.0418  0.0216 -0.3442
 1912POSM   T1A22429  13.675  23.323  10.584  0.1170 -0.2255 -0.0605
 1912POSM   C2A22430  13.267  23.107  10.661 -0.0702  0.1846 -0.0804
 1912POSM   C3A22431  13.026  23.292  10.991 -0.0246 -0.1007 -0.1025
 1912POSM   C1B22432  13.770  23.703  10.899 -0.0910 -0.2638  0.2697
 1912POSM   D2B22433  13.430  23.566  11.155 -0.0607 -0.2554  0.0810
 1912POSM   C3B22434  13.450  23.613  11.613 -0.0508 -0.2442 -0.0809
 1912POSM   C4B22435  13.600  23.547  12.062 -0.0749  0.0411 -0.0668
 1913DOPE   NH322436  16.885  16.579   9.448  0.0920 -0.1860 -0.1423
 1913DOPE   PO422437  16.754  16.848   9.493  0.0207 -0.1045  0.1789
 1913DOPE   GL122438  16.778  16.945   9.916 -0.2607  0.2111  0.1320
 1913DOPE   GL222439  16.517  16.775  10.096 -0.2231  0.0866  0.0064
 1913DOPE   C1A22440  16.878  17.392  10.084 -0.0266  0.2480 -0.0779
 1913DOPE   D2A22441  17.183  17.577  10.388 -0.1198  0.1437  0.2644
 1913DOPE   C3A22442  17.029  17.603  10.801 -0.1548 -0.3536 -0.0138
 1913DOPE   C4A22443  16.728  17.493  11.158  0.0400  0.2212  0.5901
 1913DOPE   C1B22444  16.423  16.997  10.456 -0.0811  0.0631 -0.0417
 1913DOPE   D2B22445  16.082  17.165  10.738 -0.0322  0.2120 -0.0776
 1913DOPE   C3B22446  15.811  16.960  11.107  0.2939  0.0229  0.0539
 1913DOPE   C4B22447  15.427  16.920  11.426  0.1245  0.0818 -0.1650
 1914DOPS   CNO22448  15.341  14.568  10.644  0.1788 -0.2281 -0.1212
 1914DOPS   PO422449  15.184  14.653  10.324  0.0574  0.0482 -0.3269
 1914DOPS   GL122450  14.933  14.894  10.617 -0.0752 -0.0627  0.2956
 1914DOPS   GL222451  15.141  15.031  10.791 -0.0664 -0.0107 -0.2895
 1914DOPS   C1A22452  14.544  15.010  10.897 -0.1879  0.2285  0.1366
 1914DOPS   D2A22453  14.124  15.148  10.911  0.1676  0.1749 -0.1176
 1914DOPS   C3A22454  13.930  15.413  11.217 -0.0632 -0.2820 -0.1639
 1914DOPS   C4A22455  13.830  15.336  11.639 -0.6341  0.2894 -0.2405
 1914DOPS   C1B22456  15.470  14.991  11.147 -0.0297  0.0455  0.1380
 1914DOPS   D2B22457  15.367  14.639  11.358  0.0782  0.3615  0.2531
 1914DOPS   C3B22458  15.725  14.493  11.596  0.0773  0.1270 -0.0364
 1914DOPS   C4B22459  15.940  14.204  11.866  0.0293 -0.0879  0.1524
 1915DOPC   NC322460  16.933  24.482  10.946  0.0701  0.1409  0.0550
 1915DOPC   PO422461  17.076  24.108  10.840  0.2080  0.0449 -0.3628
 1915DOPC   GL122462  17.397  24.070  11.152 -0.1109 -0.4147  0.2423
 1915DOPC   GL222463  17.354  23.793  11.307 -0.0535  0.1141 -0.0210
 1915DOPC   C1A22464  17.358  24.340  11.509  0.0707 -0.1478 -0.2306
 1915DOPC   D2A22465  17.170  24.356  11.971  0.1277 -0.0646  0.2625
 1915DOPC   C3A22466  16.744  24.250  11.998 -0.0492  0.1759  0.1859
 1915DOPC   C4A22467  16.340  24.359  12.117 -0.2896 -0.0701  0.1914
 1915DOPC   C1B22468  17.479  23.692  11.717 -0.2313  0.4477  0.2291
 1915DOPC   D2B22469  17.353  23.501  12.116 -0.0755  0.1573  0.2351
 1915DOPC   C3B22470  17.257  23.099  11.997  0.2644  0.0721  0.3990
 1915DOPC   C4B22471  17.507  22.747  11.932  0.2879 -0.2260  0.0246
 1916DOPE   NH322472   7.453  13.944  10.483 -0.3788  0.0112  0.3456
 1916DOPE   PO422473   7.787  13.939  10.429  0.2380  0.1791  0.0666
 1916DOPE   GL122474   7.780  14.157  10.843  0.4318  0.0159 -0.1463
 1916DOPE   GL222475   8.079  14.298  10.787  0.6119  0.0602 -0.3183
 1916DOPE   C1A22476   7.853  14.068  11.261 -0.1712 -0.3531  0.2276
 1916DOPE   D2A22477   7.854  13.911  11.677  0.2016 -0.1472 -0.2535
 1916DOPE   C3A22478   7.974  14.126  12.064 -0.2351 -0.2889  0.0501
 1916DOPE   C4A22479   7.900  14.441  12.364  0.2586  0.0733 -0.0121
 1916DOPE   C1B22480   8.333  14.318  11.157 -0.2404 -0.1997 -0.0401
 1916DOPE   D2B22481   8.160  14.287  11.630  0.0762  0.1292  0.0023
 1916DOPE   C3B22482   8.338  14.452  12.035 -0.0647  0.2059 -0.2678
 1916DOPE   C4B22483   8.420  14.556  12.473  0.0563  0.1266 -0.0390
 1917DOPE   NH322484  16.850  19.769   9.784  0.1900 -0.0813 -0.2193
 1917DOPE   PO422485  16.727  19.506   9.820  0.0663 -0.1656 -0.1781
 1917DOPE   GL122486  16.489  19.711  10.119  0.0775 -0.1551  0.0371
 1917DOPE   GL222487  16.482  19.384  10.202  0.0279 -0.1875 -0.1615
 1917DOPE   C1A22488  16.184  19.715  10.497 -0.0152  0.4208 -0.0327
 1917DOPE   D2A22489  15.837  19.429  10.646  0.2986 -0.1819 -0.1246
 1917DOPE   C3A22490  15.796  18.955  10.849 -0.1384  0.0432  0.1684
 1917DOPE   C4A22491  15.834  18.562  10.892 -0.1986  0.0519  0.2255
 1917DOPE   C1B22492  16.313  19.140  10.552 -0.1367  0.3319  0.3536
 1917DOPE   D2B22493  16.219  19.166  10.989 -0.0232  0.1827  0.2325
 1917DOPE   C3B22494  16.251  18.772  11.130  0.1093 -0.2079  0.0026
 1917DOPE   C4B22495  16.477  18.675  11.461  0.3501  0.2872  0.2889
 1918POSM   NC322496  22.980  18.736  10.046 -0.2325 -0.0587 -0.2146
 1918POSM   PO422497  22.615  18.883  10.148 -0.1175 -0.2429  0.0562
 1918POSM   AM122498  22.677  19.116  10.342  0.2969 -0.0636 -0.4136
 1918POSM   AM222499  22.892  19.313  10.373  0.0157  0.3661 -0.1242
 1918POSM   T1A22500  22.602  19.198  10.813  0.0060  0.0836 -0.1758
 1918POSM   C2A22501  22.733  19.212  11.267 -0.0300 -0.2575  0.1707
 1918POSM   C3A22502  22.742  18.926  11.682  0.2077  0.1197 -0.0779
 1918POSM   C1B22503  23.109  19.257  10.625 -0.0670 -0.0619 -0.0140
 1918POSM   D2B22504  23.235  19.066  11.032 -0.2911  0.1190 -0.0733
 1918POSM   C3B22505  23.405  18.590  11.009 -0.2407 -0.0804  0.3535
 1918POSM   C4B22506  23.433  18.103  10.977  0.0835 -0.4270  0.0548
 1919POSM   NC322507  23.576  19.647   9.755  0.0980  0.0266 -0.0058
 1919POSM   PO422508  23.602  19.538  10.129 -0.1005 -0.2646 -0.1889
 1919POSM   AM122509  23.573  19.466  10.443 -0.2643 -0.1974 -0.2163
 1919POSM   AM222510  23.559  19.537  10.706  0.0317  0.0063 -0.2325
 1919POSM   T1A22511  23.591  19.078  10.706  0.1085 -0.2342  0.1246
 1919POSM   C2A22512  23.776  18.924  11.084 -0.2636  0.2180  0.2182
 1919POSM   C3A22513  23.749  18.790  11.503  0.0184 -0.2219 -0.2746
 1919POSM   C1B22514  23.635  19.475  11.051 -0.1833 -0.0184  0.5409
 1919POSM   D2B22515  23.650  19.294  11.409 -0.2694  0.0823 -0.2569
 1919POSM   C3B22516  23.956  19.128  11.758  0.2522  0.2993 -0.1507
 1919POSM   C4B22517  24.287  19.251  11.969 -0.2925 -0.0537  0.1151
 1920DOPC   NC322518   8.200  16.892  10.085  0.1263 -0.0609 -0.1299
 1920DOPC   PO422519   8.287  16.514  10.229  0.2927 -0.3511 -0.4194
 1920DOPC   GL122520   7.998  16.679  10.527  0.2755  0.1490  0.0459
 1920DOPC   GL222521   7.868  16.919  10.634 -0.1648 -0.0189  0.1721
 1920DOPC   C1A22522   7.994  16.597  10.978  0.0041  0.4082  0.2550
 1920DOPC   D2A22523   7.904  16.312  11.345 -0.0002  0.0151  0.3408
 1920DOPC   C3A22524   7.672  16.027  11.584 -0.3196  0.2221 -0.2184
 1920DOPC   C4A22525   7.433  15.742  11.829  0.0748 -0.0892 -0.0686
 1920DOPC   C1B22526   7.835  17.090  11.075 -0.3701 -0.0849  0.0886
 1920DOPC   D2B22527   7.677  17.274  11.440 -0.1489 -0.1464 -0.1137
 1920DOPC   C3B22528   7.533  17.740  11.392 -0.3710  0.0844 -0.0390
 1920DOPC   C4B22529   7.482  18.193  11.510  0.0888  0.0717 -0.1078
 1921DOPC   NC322530  14.420  21.507  10.078 -0.1640 -0.2376 -0.1670
 1921DOPC   PO422531  14.507  21.206  10.238  0.0535 -0.0185  0.2945
 1921DOPC   GL122532  14.333  21.194  10.616 -0.1469  0.2493 -0.5441
 1921DOPC   GL222533  14.290  20.898  10.655  0.1673  0.1136  0.1078
 1921DOPC   C1A22534  14.584  21.122  11.040 -0.2839 -0.1599 -0.1584
 1921DOPC   D2A22535  14.836  21.226  11.395 -0.0787 -0.1420  0.1469
 1921DOPC   C3A22536  14.628  21.064  11.804  0.2630 -0.0836 -0.2589
 1921DOPC   C4A22537  14.190  21.185  11.907 -0.3500  0.1904  0.0673
 1921DOPC   C1B22538  14.302  20.608  11.081 -0.2760  0.0387 -0.0211
 1921DOPC   D2B22539  14.371  20.345  11.448  0.3476 -0.2372  0.2704
 1921DOPC   C3B22540  14.279  20.671  11.793  0.0029  0.1953  0.0254
 1921DOPC   C4B22541  14.519  20.678  12.154  0.0372  0.2088 -0.0526
 1922DOPC   NC322542  19.475  17.706  10.231 -0.0857  0.1208 -0.1615
 1922DOPC   PO422543  19.208  17.890  10.022  0.0979 -0.0299  0.1466
 1922DOPC   GL122544  19.244  18.031  10.384  0.1340  0.2880 -0.1099
 1922DOPC   GL222545  19.059  17.830  10.543  0.1800 -0.4317 -0.1870
 1922DOPC   C1A22546  19.548  18.167  10.722  0.3602  0.1144  0.1950
 1922DOPC   D2A22547  19.967  18.283  10.907 -0.1786  0.3311 -0.3096
 1922DOPC   C3A22548  20.289  18.580  11.116  0.3324 -0.1289  0.1189
 1922DOPC   C4A22549  20.538  18.977  11.163  0.2023  0.1182  0.0666
 1922DOPC   C1B22550  18.802  18.240  10.641  0.3172 -0.1051  0.1186
 1922DOPC   D2B22551  18.621  18.435  11.012 -0.1399  0.0943 -0.2148
 1922DOPC   C3B22552  18.580  18.090  11.331 -0.0052 -0.0024  0.2234
 1922DOPC   C4B22553  18.437  17.818  11.608 -0.0119 -0.0444 -0.0804
 1923POSM   NC322554  11.056  15.538  10.862 -0.1484 -0.3499  0.1234
 1923POSM   PO422555  10.656  15.624  10.766  0.2279  0.0697  0.1301
 1923POSM   AM122556  10.594  15.558  11.145  0.2281  0.2250  0.1048
 1923POSM   AM222557  10.491  15.715  11.356  0.1353 -0.1118  0.4362
 1923POSM   T1A22558  10.446  15.207  11.482  0.0915 -0.0800 -0.0210
 1923POSM   C2A22559  10.549  14.851  11.752 -0.0235 -0.0858  0.0183
 1923POSM   C3A22560  10.369  14.806  12.180 -0.1681  0.1466 -0.0348
 1923POSM   C1B22561  10.580  15.657  11.675  0.1276 -0.0802  0.0191
 1923POSM   D2B22562  10.791  15.803  12.031 -0.1034  0.0698 -0.0368
 1923POSM   C3B22563  10.538  15.913  12.414 -0.2480 -0.0536  0.0518
 1923POSM   C4B22564  10.374  16.218  12.665  0.2132  0.1840 -0.1394
 1924DOPC   NC322565  13.675  20.899   9.924  0.2569 -0.0314  0.0489
 1924DOPC   PO422566  13.546  20.919  10.292  0.1374 -0.2292  0.0605
 1924DOPC   GL122567  13.468  21.006  10.679  0.3055 -0.1133  0.1811
 1924DOPC   GL222568  13.723  21.078  10.748 -0.0654  0.1127  0.0509
 1924DOPC   C1A22569  13.308  20.946  11.107  0.1044 -0.0047 -0.0159
 1924DOPC   D2A22570  13.223  20.733  11.501  0.0842  0.1029 -0.1549
 1924DOPC   C3A22571  13.597  20.971  11.768  0.0589 -0.1520  0.3759
 1924DOPC   C4A22572  13.692  21.135  12.217 -0.1608  0.0051 -0.1395
 1924DOPC   C1B22573  13.817  20.863  11.150 -0.1495 -0.3774 -0.0850
 1924DOPC   D2B22574  13.894  20.644  11.562  0.1243 -0.0865 -0.1559
 1924DOPC   C3B22575  13.536  20.430  11.776 -0.2552  0.0535 -0.2072
 1924DOPC   C4B22576  13.575  20.249  12.168 -0.1411  0.1128 -0.0644
 1925POSM   NC322577  20.478  14.021   9.970 -0.2218  0.0932 -0.0579
 1925POSM   PO422578  20.120  14.132   9.870 -0.0415  0.0708  0.3012
 1925POSM   AM122579  19.971  14.015  10.130 -0.3037 -0.0410  0.2848
 1925POSM   AM222580  19.977  13.778  10.256 -0.0623  0.0736 -0.1618
 1925POSM   T1A22581  19.792  14.284  10.525 -0.1039 -0.1708  0.1813
 1925POSM   C2A22582  19.905  14.645  10.726 -0.1523  0.1725  0.0126
 1925POSM   C3A22583  19.874  14.882  11.177 -0.2481  0.0648  0.1066
 1925POSM   C1B22584  20.027  13.726  10.538  0.3213  0.2562 -0.2523
 1925POSM   D2B22585  20.037  13.847  10.959 -0.0406  0.1011 -0.1063
 1925POSM   C3B22586  20.191  13.588  11.253  0.0532 -0.1320  0.5101
 1925POSM   C4B22587  20.394  13.444  11.629  0.1531  0.0385 -0.1538
 1926DOPS   CNO22588  20.088  12.474   9.836  0.0443 -0.0968  0.0090
 1926DOPS   PO422589  20.185  12.510  10.181 -0.0640 -0.0477  0.1443
 1926DOPS   GL122590  19.942  12.500  10.359 -0.0846 -0.1637 -0.0693
 1926DOPS   GL222591  20.012  12.341  10.592 -0.1206 -0.0246 -0.1770
 1926DOPS   C1A22592  19.690  12.862  10.373  0.1755 -0.1351  0.0867
 1926DOPS   D2A22593  19.404  13.259  10.504 -0.3320  0.1373 -0.0371
 1926DOPS   C3A22594  19.086  13.136  10.779  0.1544  0.2064  0.1645
 1926DOPS   C4A22595  18.995  13.206  11.193  0.3924 -0.0963  0.0834
 1926DOPS   C1B22596  19.891  12.329  11.031 -0.2301 -0.0960 -0.0665
 1926DOPS   D2B22597  19.911  12.237  11.470 -0.3352  0.1073  0.1602
 1926DOPS   C3B22598  20.226  12.493  11.764 -0.0662 -0.0830 -0.0706
 1926DOPS   C4B22599  20.664  12.664  11.747 -0.1666  0.3504 -0.0215
 1927DOPC   NC322600  15.232  15.472   9.589  0.3689 -0.0152  0.1712
 1927DOPC   PO422601  14.981  15.745   9.751 -0.0151 -0.1791  0.2031
 1927DOPC   GL122602  15.077  15.507  10.084  0.0049  0.0515 -0.0417
 1927DOPC   GL222603  14.800  15.553  10.277 -0.1662  0.1120 -0.4176
 1927DOPC   C1A22604  15.288  15.493  10.527 -0.1215  0.0220  0.2906
 1927DOPC   D2A22605  15.259  15.552  11.039  0.0689  0.2089 -0.3391
 1927DOPC   C3A22606  15.014  15.539  11.420 -0.2093 -0.1446  0.1332
 1927DOPC   C4A22607  15.244  15.649  11.782  0.2287 -0.1605 -0.0438
 1927DOPC   C1B22608  14.784  15.472  10.762  0.1503  0.1578  0.5408
 1927DOPC   D2B22609  14.610  15.442  11.202 -0.0307  0.2489 -0.0770
 1927DOPC   C3B22610  14.582  15.840  11.487  0.0537  0.1445 -0.1819
 1927DOPC   C4B22611  14.669  16.267  11.591  0.0559 -0.2003  0.1640
 1928DOPS   CNO22612   9.132  21.245   9.789 -0.0227 -0.0753 -0.3933
 1928DOPS   PO422613   9.296  21.555   9.773  0.2683  0.0622 -0.1905
 1928DOPS   GL122614   8.944  21.480  10.098  0.4427  0.0922  0.3768
 1928DOPS   GL222615   9.106  21.425  10.314  0.1118  0.2451  0.0621
 1928DOPS   C1A22616   8.671  21.354  10.438 -0.0058  0.1351 -0.0282
 1928DOPS   D2A22617   8.724  21.360  10.891 -0.1330  0.2308  0.2201
 1928DOPS   C3A22618   8.870  21.797  11.021 -0.0336 -0.0532  0.0721
 1928DOPS   C4A22619   9.075  22.042  11.290  0.4000 -0.1421  0.0610
 1928DOPS   C1B22620   9.343  21.664  10.661 -0.2307  0.1489 -0.3475
 1928DOPS   D2B22621   9.526  22.016  10.971  0.0532  0.2310 -0.0604
 1928DOPS   C3B22622   9.534  21.929  11.437  0.0839  0.3379 -0.1122
 1928DOPS   C4B22623   9.619  21.921  11.917  0.0714  0.0200  0.2692
 1929DOPE   NH322624  15.132  19.778   9.877 -0.0727  0.0490  0.0188
 1929DOPE   PO422625  15.254  20.094   9.925  0.1470 -0.0955 -0.1816
 1929DOPE   GL122626  15.248  20.126  10.365 -0.0762  0.3843  0.2213
 1929DOPE   GL222627  15.189  20.400  10.393  0.0917  0.0040 -0.2533
 1929DOPE   C1A22628  15.611  19.969  10.701  0.2099 -0.4202 -0.0435
 1929DOPE   D2A22629  16.046  19.994  10.813 -0.1125 -0.1272 -0.2348
 1929DOPE   C3A22630  16.298  19.684  11.006  0.0675 -0.2968  0.0613
 1929DOPE   C4A22631  16.481  19.390  11.343  0.0042 -0.2597  0.1858
 1929DOPE   C1B22632  15.273  20.374  10.859  0.3180 -0.0660  0.3167
 1929DOPE   D2B22633  15.347  20.429  11.317 -0.0649 -0.0388 -0.0915
 1929DOPE   C3B22634  15.098  20.541  11.699  0.3040  0.1365 -0.1323
 1929DOPE   C4B22635  15.001  20.817  12.016  0.3011 -0.1327 -0.0689
 1930DOPE   NH322636  24.474  13.625   9.210  0.4879  0.2284 -0.2766
 1930DOPE   PO422637  24.455  13.654   9.554 -0.1038  0.1399  0.2866
 1930DOPE   GL122638  24.328  13.920   9.866 -0.1764  0.2585  0.4919
 1930DOPE   GL222639  24.195  13.802  10.094  0.0537 -0.0148  0.3305
 1930DOPE   C1A22640  24.457  14.247  10.188 -0.2352  0.2541 -0.0473
 1930DOPE   D2A22641  24.189  14.166  10.587 -0.0494 -0.1556  0.0883
 1930DOPE   C3A22642  24.384  14.380  10.965 -0.0704  0.2819  0.1466
 1930DOPE   C4A22643  24.577  14.478  11.323 -0.1652 -0.2955 -0.0178
 1930DOPE   C1B22644  24.515  13.755  10.444 -0.3106  0.0981  0.0491
 1930DOPE   D2B22645  24.650  13.845  10.890  0.0490  0.2146 -0.0795
 1930DOPE   C3B22646  24.869  14.228  10.857  0.0141 -0.1342  0.0537
 1930DOPE   C4B22647  25.321  14.320  10.755  0.1703  0.1572 -0.1867
 1931DOPE   NH322648  17.954  13.303  10.276  0.1447 -0.0612 -0.0344
 1931DOPE   PO422649  17.746  13.461  10.132  0.0625  0.0160 -0.1076
 1931DOPE   GL122650  17.474  13.200  10.370 -0.1224  0.2920  0.3368
 1931DOPE   GL222651  17.535  13.427  10.579  0.3113  0.0937  0.1677
 1931DOPE   C1A22652  17.179  13.076  10.716 -0.0457 -0.1435  0.0027
 1931DOPE   D2A22653  17.291  12.824  11.095 -0.0056 -0.0411  0.0632
 1931DOPE   C3A22654  17.280  12.557  11.498 -0.0389  0.0213 -0.4004
 1931DOPE   C4A22655  17.154  12.478  11.922  0.0290  0.1481  0.1467
 1931DOPE   C1B22656  17.526  13.241  11.039 -0.1546  0.1784  0.2044
 1931DOPE   D2B22657  17.414  13.407  11.469 -0.0703 -0.0840  0.1123
 1931DOPE   C3B22658  17.482  13.850  11.646 -0.1329 -0.4251  0.1211
 1931DOPE   C4B22659  17.702  14.111  11.418 -0.1092 -0.0835 -0.2248
 1932DOPC   NC322660  18.298  11.739   9.978  0.1527  0.1042  0.1140
 1932DOPC   PO422661  17.946  11.684  10.211  0.1203 -0.1390 -0.1325
 1932DOPC   GL122662  18.116  11.704  10.555  0.0842 -0.0155 -0.0915
 1932DOPC   GL222663  18.246  11.959  10.546 -0.0137  0.1393 -0.2239
 1932DOPC   C1A22664  18.134  11.747  11.003 -0.2100 -0.2181 -0.1117
 1932DOPC   D2A22665  18.041  11.502  11.359 -0.0700 -0.0416 -0.1843
 1932DOPC   C3A22666  18.176  11.100  11.584 -0.1575  0.0472  0.0967
 1932DOPC   C4A22667  18.152  10.640  11.539 -0.1397  0.0864 -0.2066
 1932DOPC   C1B22668  18.139  12.227  10.875 -0.1984  0.0875  0.0493
 1932DOPC   D2B22669  18.425  12.483  11.187  0.0101  0.2560  0.1052
 1932DOPC   C3B22670  18.508  12.968  11.179  0.2300 -0.1382  0.0025
 1932DOPC   C4B22671  18.466  13.424  11.033 -0.1167  0.3541  0.1272
 1933DOPS   CNO22672  19.829  16.390   9.513  0.0282  0.1575  0.0813
 1933DOPS   PO422673  19.577  16.084   9.542 -0.0746 -0.2230 -0.3060
 1933DOPS   GL122674  19.379  16.044   9.863  0.1919 -0.1463  0.4044
 1933DOPS   GL222675  19.089  16.112   9.968  0.2685  0.1370 -0.1250
 1933DOPS   C1A22676  19.512  16.000  10.292 -0.3314  0.0167 -0.0855
 1933DOPS   D2A22677  19.609  15.905  10.691 -0.1081 -0.2814 -0.1123
 1933DOPS   C3A22678  19.541  15.461  10.851  0.1515 -0.2469  0.0967
 1933DOPS   C4A22679  19.545  14.979  10.779  0.0762  0.0038  0.0923
 1933DOPS   C1B22680  19.079  16.323  10.428 -0.2417 -0.1785  0.0311
 1933DOPS   D2B22681  18.953  16.371  10.875  0.0624  0.1154 -0.1804
 1933DOPS   C3B22682  19.334  16.141  10.993 -0.0093  0.2120  0.1233
 1933DOPS   C4B22683  19.680  15.815  11.172  0.0689 -0.1485 -0.2663
 1934DOPS   CNO22684  19.544  19.607   9.634  0.4454  0.2523  0.2121
 1934DOPS   PO422685  19.359  19.737   9.900 -0.1457 -0.1891  0.0829
 1934DOPS   GL122686  19.618  19.658  10.246 -0.2765  0.3880  0.1896
 1934DOPS   GL222687  19.503  19.465  10.310 -0.3705  0.2107 -0.3053
 1934DOPS   C1A22688  19.797  19.873  10.611 -0.1350 -0.1255 -0.0649
 1934DOPS   D2A22689  20.009  20.251  10.538  0.0264 -0.0650  0.0954
 1934DOPS   C3A22690  19.903  20.660  10.613 -0.1303  0.1756 -0.0248
 1934DOPS   C4A22691  20.029  21.096  10.610 -0.1582  0.1701 -0.0828
 1934DOPS   C1B22692  19.381  19.562  10.742 -0.0687  0.0740 -0.1910
 1934DOPS   D2B22693  19.144  19.740  11.144  0.1228 -0.3976  0.3147
 1934DOPS   C3B22694  19.292  19.821  11.591  0.1499 -0.0073 -0.1667
 1934DOPS   C4B22695  19.063  19.935  12.013  0.0971 -0.0193  0.0879
 1935DOPC   NC322696  17.717  20.644   9.653  0.1090  0.1322 -0.2319
 1935DOPC   PO422697  17.553  20.607  10.008  0.2127  0.1606 -0.2877
 1935DOPC   GL122698  17.749  20.858  10.323  0.2952 -0.0412  0.2505
 1935DOPC   GL222699  17.949  21.009  10.135 -0.0354  0.3180 -0.3447
 1935DOPC   C1A22700  17.703  21.199  10.564  0.0327  0.1382  0.0925
 1935DOPC   D2A22701  17.808  21.375  10.961 -0.0506  0.0351 -0.1212
 1935DOPC   C3A22702  18.014  21.783  10.859 -0.1427 -0.0765  0.0787
 1935DOPC   C4A22703  18.187  22.244  10.832  0.2212  0.0727  0.1828
 1935DOPC   C1B22704  18.124  20.706  10.502  0.0950  0.0817  0.2323
 1935DOPC   D2B22705  18.031  20.615  10.938  0.1121 -0.4006  0.2061
 1935DOPC   C3B22706  18.018  20.915  11.271  0.0128 -0.1331 -0.0169
 1935DOPC   C4B22707  18.124  20.996  11.756  0.2398  0.2181  0.0347
 1936DOPS   CNO22708  12.830  15.144  10.766 -0.1482 -0.1291  0.0888
 1936DOPS   PO422709  12.572  15.403  10.768 -0.1721  0.3116  0.1649
 1936DOPS   GL122710  12.904  15.509  11.134 -0.0952  0.0416  0.1038
 1936DOPS   GL222711  12.858  15.270  11.325 -0.2492 -0.1956 -0.0047
 1936DOPS   C1A22712  12.848  15.682  11.604  0.2442 -0.0759  0.4299
 1936DOPS   D2A22713  12.889  15.469  11.991  0.3007 -0.0136 -0.0465
 1936DOPS   C3A22714  12.435  15.545  12.140 -0.2508  0.1493  0.0764
 1936DOPS   C4A22715  12.123  15.712  12.449  0.0860  0.1514  0.0006
 1936DOPS   C1B22716  12.954  15.081  11.744  0.2317 -0.1752  0.0006
 1936DOPS   D2B22717  12.994  15.028  12.154 -0.0481 -0.2322  0.0682
 1936DOPS   C3B22718  12.720  15.177  12.456  0.2612  0.0942  0.1794
 1936DOPS   C4B22719  12.389  15.335  12.751 -0.0308  0.2194 -0.2034
 1937DOPS   CNO22720  17.745  20.225   9.369 -0.0064  0.1693  0.0890
 1937DOPS   PO422721  17.717  20.103   9.734 -0.0118 -0.0730  0.0865
 1937DOPS   GL122722  17.670  20.158  10.141 -0.0632  0.2709 -0.3989
 1937DOPS   GL222723  17.392  20.100  10.282  0.1046  0.2504  0.0911
 1937DOPS   C1A22724  17.743  20.370  10.558  0.0792 -0.0539  0.2149
 1937DOPS   D2A22725  17.569  20.731  10.716  0.2328  0.3474  0.0090
 1937DOPS   C3A22726  17.555  20.806  11.137 -0.0332  0.0595 -0.2923
 1937DOPS   C4A22727  17.632  20.900  11.584  0.0948 -0.2768  0.0602
 1937DOPS   C1B22728  17.033  20.144  10.650  0.1089 -0.1942  0.0978
 1937DOPS   D2B22729  16.710  20.160  10.916 -0.3649 -0.0186 -0.1677
 1937DOPS   C3B22730  16.791  20.251  11.390  0.2936  0.0624  0.3619
 1937DOPS   C4B22731  16.577  20.229  11.788 -0.1538  0.0121 -0.1549
 1938DOPC   NC322732  14.041  19.547  10.398 -0.0165 -0.3157 -0.1538
 1938DOPC   PO422733  13.850  19.784  10.122 -0.4261  0.0175 -0.0260
 1938DOPC   GL122734  13.861  19.976  10.531 -0.3554 -0.2871 -0.1940
 1938DOPC   GL222735  13.914  19.853  10.818  0.1275  0.1428 -0.0793
 1938DOPC   C1A22736  13.483  20.084  10.862  0.3297  0.0539  0.0131
 1938DOPC   D2A22737  13.389  20.435  11.133 -0.0176 -0.3891 -0.0134
 1938DOPC   C3A22738  13.182  20.227  11.475 -0.1193  0.1630  0.1973
 1938DOPC   C4A22739  12.853  19.933  11.616  0.2241  0.2048 -0.0491
 1938DOPC   C1B22740  14.000  19.587  11.214  0.1099 -0.0162 -0.0302
 1938DOPC   D2B22741  14.023  19.412  11.608  0.0489 -0.0935 -0.3285
 1938DOPC   C3B22742  14.405  19.263  11.708 -0.1545  0.0802 -0.1502
 1938DOPC   C4B22743  14.533  18.889  11.990 -0.0329 -0.1169 -0.0330
 1939DOPE   NH322744  20.940  10.791  10.316 -0.1293 -0.1728 -0.0471
 1939DOPE   PO422745  21.165  10.991  10.443 -0.1195 -0.0594  0.0445
 1939DOPE   GL122746  21.141  10.771  10.749 -0.3064 -0.0893 -0.1029
 1939DOPE   GL222747  20.913  10.702  10.874  0.3042  0.0732 -0.2118
 1939DOPE   C1A22748  21.545  10.668  10.993 -0.0880 -0.0596 -0.2907
 1939DOPE   D2A22749  21.702  10.763  11.400 -0.0653  0.2236 -0.2444
 1939DOPE   C3A22750  21.463  10.921  11.722 -0.1974 -0.2744 -0.0134
 1939DOPE   C4A22751  21.158  11.060  12.056  0.0246  0.4911  0.1405
 1939DOPE   C1B22752  21.195  10.939  11.227 -0.2158 -0.0665  0.3654
 1939DOPE   D2B22753  21.327  11.305  11.475 -0.0676 -0.1113  0.2263
 1939DOPE   C3B22754  21.692  11.549  11.490 -0.1624  0.1831 -0.2313
 1939DOPE   C4B22755  22.098  11.751  11.536 -0.1423 -0.1377 -0.0102
 1940DOPE   NH322756   9.163  20.318   9.935 -0.0894  0.1898 -0.2209
 1940DOPE   PO422757   9.251  20.617   9.894  0.2372 -0.1389 -0.1110
 1940DOPE   GL122758   9.628  20.618  10.227  0.0006  0.2170  0.1569
 1940DOPE   GL222759   9.462  20.334  10.340  0.0235  0.3896 -0.2321
 1940DOPE   C1A22760   9.890  20.701  10.565  0.2221 -0.0047  0.0898
 1940DOPE   D2A22761  10.080  20.552  10.990 -0.2867  0.0324  0.0028
 1940DOPE   C3A22762  10.085  20.737  11.394 -0.0132 -0.1929 -0.0812
 1940DOPE   C4A22763  10.147  20.649  11.820 -0.1417  0.0176  0.1228
 1940DOPE   C1B22764   9.332  20.689  10.554  0.0121 -0.2635 -0.1115
 1940DOPE   D2B22765   9.079  21.015  10.767 -0.0543 -0.0630  0.0541
 1940DOPE   C3B22766   9.090  21.187  11.228  0.2749  0.1303  0.1453
 1940DOPE   C4B22767   8.943  21.059  11.660 -0.2384 -0.0760 -0.2355
 1941POSM   NC322768  15.602  16.238   9.775  0.1536 -0.3578 -0.0962
 1941POSM   PO422769  15.502  15.855   9.606  0.0555 -0.0181  0.1180
 1941POSM   AM122770  15.479  15.765   9.967  0.0174 -0.2346 -0.1438
 1941POSM   AM222771  15.525  15.516  10.120  0.1939  0.0875  0.1586
 1941POSM   T1A22772  15.243  15.981  10.353 -0.0740 -0.1688 -0.2280
 1941POSM   C2A22773  15.067  15.890  10.762  0.2338 -0.1947 -0.1423
 1941POSM   C3A22774  14.732  15.945  11.026 -0.2703  0.0735  0.2271
 1941POSM   C1B22775  15.807  15.528  10.321 -0.0917 -0.3592  0.0840
 1941POSM   D2B22776  16.059  15.666  10.700  0.0867 -0.2819  0.0427
 1941POSM   C3B22777  15.956  16.029  10.973 -0.0950  0.2007  0.1439
 1941POSM   C4B22778  16.280  16.294  11.118 -0.0056  0.0500  0.2777
 1942DOPS   CNO22779  19.189  21.837   9.703 -0.3897  0.1811 -0.2320
 1942DOPS   PO422780  19.420  21.916  10.006  0.0860  0.0612 -0.1762
 1942DOPS   GL122781  19.524  21.840  10.387 -0.0516 -0.0046  0.4093
 1942DOPS   GL222782  19.784  22.035  10.451 -0.3680  0.1413  0.0071
 1942DOPS   C1A22783  19.402  21.774  10.847  0.0520  0.1215  0.0657
 1942DOPS   D2A22784  19.384  21.950  11.278 -0.1755  0.1389  0.2012
 1942DOPS   C3A22785  19.530  21.762  11.647 -0.0772  0.0029  0.0254
 1942DOPS   C4A22786  19.468  21.723  12.104 -0.1828 -0.0128 -0.3979
 1942DOPS   C1B22787  19.745  22.217  10.877  0.0589 -0.2576 -0.1282
 1942DOPS   D2B22788  19.794  22.145  11.370  0.3622 -0.0344  0.4377
 1942DOPS   C3B22789  19.702  22.181  11.832  0.3425  0.1587  0.0219
 1942DOPS   C4B22790  19.417  22.272  12.169  0.0714  0.3505  0.1059
 1943DOPC   NC322791  20.131  10.972  10.599 -0.0810 -0.3355 -0.3957
 1943DOPC   PO422792  20.258  11.237  10.301 -0.0452  0.0556 -0.2542
 1943DOPC   GL122793  20.400  11.548  10.667  0.4373 -0.1045  0.3766
 1943DOPC   GL222794  20.270  11.393  10.841  0.2400  0.2134 -0.1022
 1943DOPC   C1A22795  20.663  11.618  11.063  0.0444 -0.0681 -0.0752
 1943DOPC   D2A22796  20.777  11.727  11.528  0.3986 -0.0836 -0.1218
 1943DOPC   C3A22797  20.421  11.619  11.780 -0.2310 -0.2084 -0.0711
 1943DOPC   C4A22798  20.023  11.418  11.750 -0.0413 -0.0545 -0.1717
 1943DOPC   C1B22799  20.260  11.351  11.308 -0.2085  0.0704 -0.1184
 1943DOPC   D2B22800  20.291  10.946  11.567 -0.0953 -0.2296  0.1733
 1943DOPC   C3B22801  20.221  11.054  12.033 -0.0831 -0.0181 -0.2955
 1943DOPC   C4B22802  20.450  11.374  12.228 -0.0152  0.0188  0.1110
 1944DOPE   NH322803  11.493  13.813  11.439 -0.2156  0.0078  0.1100
 1944DOPE   PO422804  11.210  13.730  11.437 -0.2849  0.0546 -0.1565
 1944DOPE   GL122805  11.193  13.891  11.734 -0.3187 -0.2759 -0.2805
 1944DOPE   GL222806  11.380  14.123  11.821 -0.0259 -0.0627 -0.0069
 1944DOPE   C1A22807  10.841  14.020  11.991  0.0564  0.3988  0.2703
 1944DOPE   D2A22808  10.701  14.415  12.105  0.2842 -0.0846 -0.1927
 1944DOPE   C3A22809  10.438  14.459  12.527  0.3119  0.0715  0.2871
 1944DOPE   C4A22810  10.559  14.363  13.008 -0.2064  0.1829 -0.2078
 1944DOPE   C1B22811  11.369  14.503  12.115  0.1377 -0.1138 -0.3117
 1944DOPE   D2B22812  11.102  14.530  12.549  0.1924  0.0010 -0.3139
 1944DOPE   C3B22813  10.862  14.172  12.578 -0.0196  0.0015  0.0062
 1944DOPE   C4B22814  10.501  13.941  12.487 -0.0751 -0.3284  0.0426
 1945DOPS   CNO22815  16.725  13.819   9.658  0.0437 -0.1157  0.2133
 1945DOPS   PO422816  16.784  13.609   9.953  0.0236  0.6201  0.4395
 1945DOPS   GL122817  16.843  13.868  10.221 -0.2625  0.0161  0.0032
 1945DOPS   GL222818  16.592  13.840  10.382  0.2119 -0.0001 -0.1290
 1945DOPS   C1A22819  17.002  13.688  10.632 -0.0379 -0.1249 -0.1883
 1945DOPS   D2A22820  17.294  13.733  10.969  0.1171  0.3041  0.0445
 1945DOPS   C3A22821  17.077  13.911  11.336  0.1044 -0.3458  0.1185
 1945DOPS   C4A22822  16.949  14.329  11.486 -0.1364 -0.2446 -0.0284
 1945DOPS   C1B22823  16.591  13.941  10.823 -0.1957 -0.0111 -0.1254
 1945DOPS   D2B22824  16.656  13.714  11.197  0.1840 -0.1107  0.0205
 1945DOPS   C3B22825  16.497  13.236  11.280  0.0615  0.0794 -0.1452
 1945DOPS   C4B22826  16.904  12.933  11.393  0.0468  0.0564  0.0857
 1946DOPS   CNO22827  18.179  18.961   9.777  0.1388 -0.0235  0.2102
 1946DOPS   PO422828  18.086  19.238  10.021  0.1553  0.1349  0.2056
 1946DOPS   GL122829  18.072  19.076  10.361 -0.2984 -0.0956  0.3931
 1946DOPS   GL222830  18.137  18.802  10.293 -0.5568 -0.0913  0.2330
 1946DOPS   C1A22831  18.074  18.900  10.794 -0.0338 -0.0718 -0.1741
 1946DOPS   D2A22832  18.136  18.913  11.299 -0.1790  0.0762 -0.1191
 1946DOPS   C3A22833  17.924  18.546  11.538  0.0016 -0.1672 -0.1033
 1946DOPS   C4A22834  17.694  18.371  11.932  0.0050 -0.1654  0.1390
 1946DOPS   C1B22835  18.255  18.417  10.524  0.2842 -0.3638 -0.1380
 1946DOPS   D2B22836  18.310  18.043  10.800  0.1920  0.2038  0.2125
 1946DOPS   C3B22837  18.574  17.677  10.973 -0.3157  0.1359 -0.3664
 1946DOPS   C4B22838  18.873  17.406  10.730  0.0354 -0.1313  0.3332
 1947DOPE   NH322839   8.901  19.877   9.422  0.0613  0.1107 -0.1937
 1947DOPE   PO422840   9.074  19.917   9.684  0.2274 -0.1301  0.1639
 1947DOPE   GL122841   9.041  19.750  10.095  0.0852 -0.1573 -0.0522
 1947DOPE   GL222842   8.815  19.981  10.135 -0.0706 -0.2154  0.0059
 1947DOPE   C1A22843   9.236  19.955  10.478 -0.2535  0.3729  0.1689
 1947DOPE   D2A22844   9.176  20.157  10.863  0.3338 -0.0374 -0.3865
 1947DOPE   C3A22845   9.233  20.579  11.053  0.4552 -0.3815 -0.0003
 1947DOPE   C4A22846   9.408  20.653  11.448  0.0036 -0.2026 -0.0434
 1947DOPE   C1B22847   8.690  20.036  10.551 -0.0926  0.3374 -0.0393
 1947DOPE   D2B22848   8.432  19.747  10.793  0.2541  0.0201  0.2730
 1947DOPE   C3B22849   8.035  19.944  10.782 -0.3641 -0.0727  0.3632
 1947DOPE   C4B22850   7.626  19.734  10.713  0.0476  0.1253 -0.0786
 1948DOPE   NH322851  15.227  19.169   9.750 -0.2010 -0.3222 -0.0643
 1948DOPE   PO422852  15.371  19.327  10.018  0.2975 -0.2174  0.0510
 1948DOPE   GL122853  15.136  19.446  10.384 -0.0793  0.1291  0.1088
 1948DOPE   GL222854  14.986  19.698  10.397  0.0020 -0.0660  0.0928
 1948DOPE   C1A22855  15.209  19.437  10.825  0.0019 -0.0778  0.2902
 1948DOPE   D2A22856  15.556  19.457  11.126  0.0785 -0.1644 -0.2215
 1948DOPE   C3A22857  15.563  19.417  11.601  0.0192 -0.0422 -0.0232
 1948DOPE   C4A22858  15.354  19.605  11.998  0.0576 -0.2768 -0.1991
 1948DOPE   C1B22859  14.756  20.047  10.596 -0.1384 -0.0528  0.0838
 1948DOPE   D2B22860  14.816  20.325  10.978  0.0268  0.0467  0.2298
 1948DOPE   C3B22861  14.913  20.160  11.406 -0.1313  0.2788  0.0507
 1948DOPE   C4B22862  15.129  19.808  11.486 -0.0545 -0.0667 -0.0188
 1949POSM   NC322863  25.208  13.095   9.610  0.0298 -0.0960  0.0286
 1949POSM   PO422864  24.971  12.928   9.917 -0.0064  0.0111 -0.0132
 1949POSM   AM122865  25.000  13.045  10.218 -0.2425  0.1002 -0.0309
 1949POSM   AM222866  24.863  13.308  10.324  0.0016 -0.0743  0.0267
 1949POSM   T1A22867  25.058  12.916  10.716 -0.0173  0.2385 -0.0520
 1949POSM   C2A22868  25.006  12.650  11.099 -0.0467 -0.1996 -0.1122
 1949POSM   C3A22869  24.861  12.583  11.548 -0.3480  0.0602  0.6555
 1949POSM   C1B22870  24.784  13.361  10.620  0.3111  0.0113 -0.0022
 1949POSM   D2B22871  24.898  13.346  11.051  0.3033  0.0446 -0.2112
 1949POSM   C3B22872  24.619  13.460  11.408 -0.0283 -0.1034  0.0422
 1949POSM   C4B22873  24.444  13.338  11.786  0.2881 -0.0884 -0.0677
 1950DOPC   NC322874  16.397  13.142   9.835 -0.0420 -0.0628 -0.3051
 1950DOPC   PO422875  16.266  13.163  10.192 -0.2113  0.1787  0.2326
 1950DOPC   GL122876  16.339  13.314  10.498 -0.3293 -0.0909 -0.3644
 1950DOPC   GL222877  16.189  13.546  10.648 -0.2525 -0.1434 -0.0049
 1950DOPC   C1A22878  16.698  13.264  10.831  0.0321 -0.0240  0.0642
 1950DOPC   D2A22879  17.021  13.373  11.167 -0.2206 -0.1346  0.2019
 1950DOPC   C3A22880  16.892  13.451  11.609 -0.0740 -0.0518 -0.3699
 1950DOPC   C4A22881  17.002  13.875  11.814 -0.0120  0.2945 -0.0765
 1950DOPC   C1B22882  16.173  13.631  11.103  0.0312 -0.1581 -0.1023
 1950DOPC   D2B22883  15.932  13.768  11.487  0.0749 -0.2520  0.1731
 1950DOPC   C3B22884  15.952  14.169  11.292  0.1765 -0.0234 -0.2079
 1950DOPC   C4B22885  15.798  14.408  10.930 -0.3022  0.1239  0.0278
 1951DOPC   NC322886  14.543  14.864  10.401  0.4105 -0.5653 -0.3663
 1951DOPC   PO422887  14.511  15.168  10.160  0.1381 -0.1139 -0.0646
 1951DOPC   GL122888  14.386  15.399  10.502  0.1781 -0.1676  0.0462
 1951DOPC   GL222889  14.317  15.587  10.392 -0.0828 -0.2842  0.0863
 1951DOPC   C1A22890  14.311  15.690  10.858  0.0092 -0.2792 -0.1924
 1951DOPC   D2A22891  14.299  16.113  10.917 -0.2937  0.0422  0.1248
 1951DOPC   C3A22892  14.530  16.483  11.156  0.1505 -0.3202 -0.0134
 1951DOPC   C4A22893  14.584  16.796  11.523 -0.2962  0.0661  0.0949
 1951DOPC   C1B22894  14.595  15.943  10.466  0.2576  0.0623 -0.1177
 1951DOPC   D2B22895  14.791  16.337  10.578 -0.0985 -0.1155  0.2246
 1951DOPC   C3B22896  15.194  16.494  10.610 -0.0522 -0.0184 -0.1218
 1951DOPC   C4B22897  15.662  16.362  10.665  0.2012  0.5166 -0.5904
 1952DOPE   NH322898  21.095  21.040  10.364  0.3337 -0.3226 -0.1191
 1952DOPE   PO422899  21.401  21.171  10.460 -0.4943 -0.0267  0.0582
 1952DOPE   GL122900  21.280  21.065  10.796  0.0812  0.0108 -0.0075
 1952DOPE   GL222901  21.108  20.785  10.891 -0.1527  0.0738 -0.2874
 1952DOPE   C1A22902  21.070  21.367  11.091  0.4381 -0.0019 -0.0760
 1952DOPE   D2A22903  21.041  21.408  11.549  0.1402 -0.0178 -0.0788
 1952DOPE   C3A22904  21.367  21.190  11.827 -0.4445  0.1513 -0.0736
 1952DOPE   C4A22905  21.864  21.186  11.884 -0.0137  0.1801 -0.1991
 1952DOPE   C1B22906  21.132  20.441  11.214 -0.0573 -0.0356 -0.0335
 1952DOPE   D2B22907  21.156  20.159  11.528  0.4329 -0.3107 -0.0101
 1952DOPE   C3B22908  21.384  20.234  11.904 -0.1215  0.1205  0.0912
 1952DOPE   C4B22909  21.596  20.629  12.094 -0.0974 -0.2448  0.2541
 1953POSM   NC322910  20.591  19.692   9.888  0.1738  0.2686 -0.1431
 1953POSM   PO422911  20.439  19.378   9.974  0.3569  0.2826 -0.1884
 1953POSM   AM122912  20.307  19.353  10.259 -0.3186  0.1211  0.0937
 1953POSM   AM222913  20.097  19.377  10.424  0.0229 -0.2927 -0.0350
 1953POSM   T1A22914  20.410  19.072  10.695  0.1796  0.2401  0.1391
 1953POSM   C2A22915  20.494  18.621  10.698 -0.0074  0.3024 -0.0327
 1953POSM   C3A22916  20.755  18.289  10.853 -0.0667 -0.1335 -0.2926
 1953POSM   C1B22917  19.989  19.361  10.772 -0.2053  0.0727 -0.0709
 1953POSM   D2B22918  19.696  19.463  11.113 -0.1216  0.2458  0.2132
 1953POSM   C3B22919  19.583  19.930  11.148 -0.3280 -0.2734 -0.0428
 1953POSM   C4B22920  19.505  20.376  10.993  0.0889 -0.3751  0.2067
 1954DOPE   NH322921  17.047  20.652  10.175  0.0420  0.3086 -0.0993
 1954DOPE   PO422922  16.912  20.974  10.162 -0.1116  0.0637  0.1075
 1954DOPE   GL122923  17.130  20.934  10.521  0.0582  0.2179 -0.0519
 1954DOPE   GL222924  16.935  21.078  10.699  0.0701  0.1251  0.4384
 1954DOPE   C1A22925  17.129  20.649  10.897 -0.1160 -0.0777  0.1479
 1954DOPE   D2A22926  17.245  20.282  11.140 -0.2134 -0.1222 -0.2456
 1954DOPE   C3A22927  17.305  20.465  11.553 -0.0718  0.1682  0.0722
 1954DOPE   C4A22928  17.362  20.634  11.974  0.0466 -0.2703  0.2144
 1954DOPE   C1B22929  17.314  21.173  10.959 -0.1260 -0.1104  0.0193
 1954DOPE   D2B22930  17.390  21.381  11.361  0.3441  0.3499  0.0137
 1954DOPE   C3B22931  17.187  21.153  11.688  0.3993 -0.2681 -0.0634
 1954DOPE   C4B22932  17.037  21.087  12.202 -0.0395  0.0204 -0.1768
 1955DOPC   NC322933  16.439  14.204   9.903  0.0337 -0.0593  0.1150
 1955DOPC   PO422934  16.677  14.364  10.174 -0.0060  0.2055  0.2297
 1955DOPC   GL122935  16.750  14.415  10.567 -0.2074  0.0488 -0.1553
 1955DOPC   GL222936  16.782  14.627  10.572 -0.1131  0.0684  0.0817
 1955DOPC   C1A22937  16.968  14.233  10.920  0.1563  0.0200 -0.1093
 1955DOPC   D2A22938  17.390  14.281  11.035  0.0951  0.0626 -0.1451
 1955DOPC   C3A22939  17.466  14.663  11.205 -0.1985 -0.2657 -0.0615
 1955DOPC   C4A22940  17.237  15.051  11.291  0.2766 -0.3520 -0.1125
 1955DOPC   C1B22941  16.608  15.023  10.762 -0.1746 -0.0832 -0.1241
 1955DOPC   D2B22942  16.837  15.342  11.067 -0.1991  0.0574 -0.1212
 1955DOPC   C3B22943  16.618  15.358  11.495 -0.0506 -0.2471  0.0147
 1955DOPC   C4B22944  16.633  15.468  11.995  0.0668 -0.0310  0.1734
 1956DOPS   CNO22945  10.481  12.653  11.242  0.0977  0.3038 -0.3500
 1956DOPS   PO422946  10.747  12.904  11.251  0.0702 -0.1661 -0.0315
 1956DOPS   GL122947  10.740  13.159  11.524  0.2387  0.6293  0.1644
 1956DOPS   GL222948  10.790  13.405  11.371  0.4121  0.1555 -0.1458
 1956DOPS   C1A22949  10.823  13.075  11.994 -0.0171  0.2568 -0.0359
 1956DOPS   D2A22950  10.860  13.146  12.385 -0.0941  0.1044 -0.1190
 1956DOPS   C3A22951  10.660  12.859  12.665 -0.4084  0.2512 -0.1450
 1956DOPS   C4A22952  10.399  12.587  12.969  0.2547 -0.0135 -0.2387
 1956DOPS   C1B22953  10.773  13.565  11.824  0.0190 -0.0642 -0.0151
 1956DOPS   D2B22954  10.802  13.629  12.294 -0.0559  0.0765  0.0436
 1956DOPS   C3B22955  11.130  13.716  12.670 -0.1622  0.0493 -0.1825
 1956DOPS   C4B22956  11.305  13.469  13.057 -0.2278  0.1659  0.0841
 1957DOPE   NH322957  14.330  22.361  10.476 -0.0039  0.1110  0.1771
 1957DOPE   PO422958  14.124  22.300  10.228  0.0385  0.0665  0.0917
 1957DOPE   GL122959  13.785  22.366  10.430 -0.3417 -0.1866  0.3850
 1957DOPE   GL222960  13.780  22.141  10.652  0.1116 -0.3066 -0.0059
 1957DOPE   C1A22961  13.651  22.736  10.700 -0.0309 -0.0841 -0.0709
 1957DOPE   D2A22962  13.369  22.698  11.057  0.1292 -0.0159  0.0317
 1957DOPE   C3A22963  13.277  22.980  11.359 -0.3410 -0.1167  0.0579
 1957DOPE   C4A22964  12.915  23.211  11.502  0.0371 -0.3931 -0.2315
 1957DOPE   C1B22965  14.044  22.402  10.926  0.2689  0.1035 -0.1002
 1957DOPE   D2B22966  14.126  22.704  11.276 -0.1835 -0.1081  0.2037
 1957DOPE   C3B22967  14.590  22.707  11.433  0.0709 -0.3686 -0.0174
 1957DOPE   C4B22968  15.020  22.797  11.524  0.1297 -0.1349  0.3555
 1958DOPE   NH322969  15.184  16.675   9.673 -0.2124 -0.0869  0.0361
 1958DOPE   PO422970  15.071  16.593   9.958 -0.0072 -0.0673 -0.0212
 1958DOPE   GL122971  14.944  16.677  10.356  0.0847  0.1417 -0.0112
 1958DOPE   GL222972  14.947  16.983  10.336  0.0598  0.1561 -0.3308
 1958DOPE   C1A22973  14.706  16.808  10.719 -0.3280  0.1471 -0.0560
 1958DOPE   D2A22974  14.513  16.976  11.073 -0.2824  0.0733  0.0381
 1958DOPE   C3A22975  14.667  17.342  11.142  0.1661 -0.1978 -0.0602
 1958DOPE   C4A22976  14.686  17.708  10.884  0.0901  0.2931 -0.1975
 1958DOPE   C1B22977  14.982  17.193  10.824 -0.1612 -0.1503 -0.1485
 1958DOPE   D2B22978  15.101  17.547  11.162 -0.1192 -0.1259 -0.2305
 1958DOPE   C3B22979  15.405  17.785  10.927  0.3360 -0.1560 -0.0559
 1958DOPE   C4B22980  15.870  17.745  10.917 -0.1168  0.1513 -0.0636
 1959DOPS   CNO22981  22.142  23.619  10.918 -0.1680 -0.1478  0.3474
 1959DOPS   PO422982  22.521  23.733  10.800  0.1665 -0.1718  0.1859
 1959DOPS   GL122983  22.473  23.982  11.115 -0.2027  0.1227 -0.0428
 1959DOPS   GL222984  22.383  23.804  11.312  0.4974 -0.0323  0.0730
 1959DOPS   C1A22985  22.762  24.133  11.414 -0.0456  0.0854  0.1172
 1959DOPS   D2A22986  23.097  23.957  11.659 -0.0958  0.2358  0.0434
 1959DOPS   C3A22987  23.219  23.525  11.767 -0.0631  0.2717 -0.0397
 1959DOPS   C4A22988  23.149  23.306  12.161 -0.0346  0.2194 -0.1606
 1959DOPS   C1B22989  22.685  23.623  11.574  0.1386 -0.0658 -0.4608
 1959DOPS   D2B22990  22.845  23.671  12.044  0.4078 -0.1764 -0.0150
 1959DOPS   C3B22991  22.510  23.772  12.308  0.2494  0.0349  0.1454
 1959DOPS   C4B22992  22.082  23.568  12.324  0.1370 -0.1719  0.1572
 1960DOPE   NH322993  23.071  15.665   9.780 -0.1003  0.0964  0.1456
 1960DOPE   PO422994  23.049  15.316   9.840 -0.1106 -0.3380 -0.1125
 1960DOPE   GL122995  23.137  15.178  10.142 -0.2611  0.2267  0.0094
 1960DOPE   GL222996  23.298  15.413  10.322 -0.1598 -0.0836 -0.4208
 1960DOPE   C1A22997  22.966  14.760  10.256  0.0173 -0.0082  0.0991
 1960DOPE   D2A22998  22.540  14.592  10.192 -0.1299  0.2807 -0.0386
 1960DOPE   C3A22999  22.190  14.338  10.436 -0.2499 -0.1098 -0.1696
 1960DOPE   C4A23000  21.844  14.036  10.403  0.1307  0.2686  0.1888
 1960DOPE   C1B23001  23.181  15.676  10.680  0.1050  0.0053  0.1664
 1960DOPE   D2B23002  23.131  16.014  10.985 -0.0876 -0.2317  0.0286
 1960DOPE   C3B23003  22.772  16.166  11.195 -0.0725  0.1551  0.1726
 1960DOPE   C4B23004  22.334  16.228  10.933 -0.0261 -0.0669 -0.2416
 1961DOPS   CNO23005  17.025  10.956  10.589 -0.1362  0.1715  0.2899
 1961DOPS   PO423006  17.225  10.681  10.449 -0.1014  0.1160  0.3816
 1961DOPS   GL123007  17.049  10.655  10.873  0.4705  0.0513 -0.0232
 1961DOPS   GL223008  17.275  10.719  11.026 -0.0882  0.2167  0.0734
 1961DOPS   C1A23009  17.002  10.298  11.149 -0.2679 -0.2399 -0.3329
 1961DOPS   D2A23010  17.069   9.916  11.393  0.0302 -0.1711  0.3367
 1961DOPS   C3A23011  17.012   9.828  11.883 -0.1509  0.1503  0.1197
 1961DOPS   C4A23012  16.912   9.897  12.351  0.1342  0.1386  0.0560
 1961DOPS   C1B23013  17.191  10.788  11.486  0.2437 -0.1853  0.0993
 1961DOPS   D2B23014  17.213  10.666  11.949  0.1461 -0.0746  0.1470
 1961DOPS   C3B23015  17.023  10.473  12.352 -0.2109  0.2325 -0.1249
 1961DOPS   C4B23016  16.942  10.442  12.788  0.0106  0.0800 -0.0082
 1962DOPS   CNO23017  25.538  12.099   9.988  0.1151  0.1562  0.4069
 1962DOPS   PO423018  25.162  12.164  10.066 -0.1257  0.2790 -0.0395
 1962DOPS   GL123019  25.036  12.112  10.481  0.3144  0.0837 -0.2093
 1962DOPS   GL223020  25.178  12.140  10.774 -0.4956 -0.2062 -0.0536
 1962DOPS   C1A23021  24.751  12.433  10.761 -0.2391  0.0846  0.0721
 1962DOPS   D2A23022  24.542  12.777  10.916  0.0415 -0.0695  0.0469
 1962DOPS   C3A23023  24.656  12.978  11.325  0.5150 -0.2143  0.0515
 1962DOPS   C4A23024  24.813  13.001  11.781  0.0167  0.1909 -0.1369
 1962DOPS   C1B23025  25.414  12.551  10.819  0.2901 -0.3289 -0.0053
 1962DOPS   D2B23026  25.536  13.001  10.754 -0.1578  0.1147  0.2994
 1962DOPS   C3B23027  25.791  13.183  11.074 -0.1000 -0.5175 -0.1495
 1962DOPS   C4B23028  25.710  13.290  11.502 -0.2338 -0.1859  0.0667
 1963DOPC   NC323029  16.646  10.416  10.787 -0.0964  0.2441 -0.1082
 1963DOPC   PO423030  16.324  10.644  10.672  0.3005 -0.0504 -0.2457
 1963DOPC   GL123031  16.295  10.820  11.011 -0.0567  0.0862  0.1488
 1963DOPC   GL223032  16.204  11.092  11.043 -0.2313 -0.0384  0.1280
 1963DOPC   C1A23033  16.679  10.731  11.273 -0.2320 -0.0250 -0.1752
 1963DOPC   D2A23034  16.801  10.523  11.654  0.2326 -0.0679 -0.1772
 1963DOPC   C3A23035  16.599  10.085  11.610 -0.3374 -0.1517  0.1869
 1963DOPC   C4A23036  16.462   9.712  11.784  0.0937  0.1470  0.1520
 1963DOPC   C1B23037  16.210  10.751  11.420 -0.2375 -0.1539  0.1281
 1963DOPC   D2B23038  16.304  10.489  11.747  0.3676 -0.1065 -0.0456
 1963DOPC   C3B23039  16.299  10.596  12.278  0.1306 -0.1234 -0.0182
 1963DOPC   C4B23040  16.490  10.669  12.714  0.0770  0.2635  0.2225
 1964DOPC   NC323041  20.598  17.267   9.529  0.0418 -0.0462 -0.0404
 1964DOPC   PO423042  20.393  17.514   9.743 -0.1015  0.1760 -0.3469
 1964DOPC   GL123043  20.617  17.442  10.018  0.1044 -0.3239  0.1272
 1964DOPC   GL223044  20.794  17.178  10.094  0.2515 -0.1618  0.0827
 1964DOPC   C1A23045  20.685  17.476  10.479  0.1729  0.2199  0.1440
 1964DOPC   D2A23046  20.874  17.742  10.817 -0.2579 -0.0768  0.0132
 1964DOPC   C3A23047  20.666  17.971  11.196  0.1787  0.0738  0.2044
 1964DOPC   C4A23048  20.578  18.231  11.556  0.0412 -0.1165  0.2643
 1964DOPC   C1B23049  20.756  16.835  10.441  0.1516  0.0317 -0.0413
 1964DOPC   D2B23050  20.584  16.835  10.860  0.1860  0.0977 -0.0303
 1964DOPC   C3B23051  20.470  17.247  11.148 -0.0783  0.2323 -0.0633
 1964DOPC   C4B23052  20.524  17.548  11.478 -0.2619  0.1823 -0.3405
 1965DOPE   NH323053  15.071  14.165  10.371  0.4259  0.0447 -0.0681
 1965DOPE   PO423054  14.950  13.993  10.598 -0.1049 -0.1487  0.0646
 1965DOPE   GL123055  14.963  14.228  10.911 -0.3244  0.0969  0.4758
 1965DOPE   GL223056  15.269  14.141  10.970 -0.3193  0.0297  0.0998
 1965DOPE   C1A23057  14.875  14.676  11.034  0.0443  0.1147 -0.0141
 1965DOPE   D2A23058  15.075  15.049  11.366  0.0650 -0.1693  0.0374
 1965DOPE   C3A23059  14.975  15.139  11.824 -0.4042 -0.0095 -0.2375
 1965DOPE   C4A23060  14.787  15.498  11.910 -0.0215  0.1081  0.2133
 1965DOPE   C1B23061  15.488  14.074  11.443  0.0761 -0.2318  0.2161
 1965DOPE   D2B23062  15.542  13.862  11.874  0.0482  0.1653 -0.0041
 1965DOPE   C3B23063  15.751  13.791  12.269  0.1596 -0.0859  0.1983
 1965DOPE   C4B23064  16.089  13.693  12.530 -0.0119 -0.2004  0.2364
 1966DOPC   NC323065  21.604  21.447  10.803  0.3911 -0.1407  0.1335
 1966DOPC   PO423066  21.467  21.790  10.707 -0.3455  0.0137  0.0453
 1966DOPC   GL123067  21.146  21.771  10.967  0.0160  0.4788 -0.1621
 1966DOPC   GL223068  21.258  21.817  11.266  0.0760  0.1957 -0.3958
 1966DOPC   C1A23069  20.702  21.656  11.179  0.1594 -0.2399 -0.1711
 1966DOPC   D2A23070  20.286  21.632  11.385 -0.0199 -0.3148 -0.1955
 1966DOPC   C3A23071  20.121  21.869  11.776  0.0044 -0.1325  0.0029
 1966DOPC   C4A23072  20.075  21.960  12.202 -0.0722 -0.1291  0.0791
 1966DOPC   C1B23073  21.696  21.737  11.279  0.3513 -0.1643 -0.0596
 1966DOPC   D2B23074  21.881  21.256  11.204 -0.0677  0.1106  0.2112
 1966DOPC   C3B23075  21.841  20.851  11.461 -0.1795 -0.1303  0.0332
 1966DOPC   C4B23076  21.386  20.687  11.638  0.2853 -0.0364  0.3690
 1967POSM   NC323077  15.277  13.614  10.719 -0.1672  0.2513  0.0986
 1967POSM   PO423078  15.487  13.468  10.436 -0.4066 -0.5032  0.4603
 1967POSM   AM123079  15.679  13.398  10.699 -0.0540 -0.2157 -0.1031
 1967POSM   AM223080  15.841  13.157  10.746 -0.1031 -0.3806  0.2593
 1967POSM   T1A23081  15.792  13.349  11.183  0.1008  0.1381 -0.4314
 1967POSM   C2A23082  15.591  13.354  11.619 -0.3627 -0.2915  0.1837
 1967POSM   C3A23083  15.433  13.403  12.074  0.4248 -0.1484  0.1763
 1967POSM   C1B23084  16.160  13.143  10.920  0.1568 -0.1831  0.0746
 1967POSM   D2B23085  16.408  12.777  11.130  0.1618 -0.1366  0.0462
 1967POSM   C3B23086  16.459  12.802  11.558  0.1638 -0.1970  0.0783
 1967POSM   C4B23087  16.239  12.978  11.921  0.1427  0.1996 -0.2407
 1968DOPC   NC323088  13.329  19.093  10.322 -0.2016  0.0180 -0.1804
 1968DOPC   PO423089  13.709  19.169  10.383  0.1954 -0.0199  0.0476
 1968DOPC   GL123090  13.885  19.241  10.690  0.3502  0.0186 -0.1809
 1968DOPC   GL223091  13.855  19.148  10.956 -0.2422  0.2110 -0.3068
 1968DOPC   C1A23092  14.277  19.431  10.869 -0.3022  0.2363  0.2731
 1968DOPC   D2A23093  14.722  19.474  10.861 -0.1141 -0.0898 -0.2432
 1968DOPC   C3A23094  14.988  19.800  11.024 -0.0817  0.2820  0.2241
 1968DOPC   C4A23095  15.397  19.925  11.151 -0.1747  0.1676  0.1960
 1968DOPC   C1B23096  13.624  18.939  11.282 -0.2766 -0.0207 -0.2292
 1968DOPC   D2B23097  13.263  18.989  11.529 -0.3714 -0.3159 -0.0161
 1968DOPC   C3B23098  12.885  18.744  11.607 -0.4129 -0.0733 -0.3647
 1968DOPC   C4B23099  12.520  18.461  11.665 -0.3184  0.2764  0.1461
 1969DOPC   NC323100  17.003  21.941  10.429  0.1068 -0.1468  0.2261
 1969DOPC   PO423101  16.642  22.034  10.310 -0.0653 -0.1283 -0.0017
 1969DOPC   GL123102  16.519  21.872  10.587 -0.0065  0.5406  0.1178
 1969DOPC   GL223103  16.266  21.860  10.595  0.0620  0.0205  0.1788
 1969DOPC   C1A23104  16.448  21.574  10.954  0.1282  0.1712  0.4999
 1969DOPC   D2A23105  16.730  21.314  11.273  0.4483  0.0731  0.2752
 1969DOPC   C3A23106  16.893  21.625  11.557 -0.0223 -0.0892 -0.4121
 1969DOPC   C4A23107  16.984  22.056  11.727 -0.0527 -0.2294  0.1414
 1969DOPC   C1B23108  16.186  22.048  11.053  0.0341  0.0965 -0.0881
 1969DOPC   D2B23109  16.112  22.277  11.460  0.4203  0.2034  0.0983
 1969DOPC   C3B23110  15.930  22.428  11.856  0.3348 -0.2390 -0.0647
 1969DOPC   C4B23111  15.856  22.641  12.245 -0.6409 -0.2608  0.1815
 1970DOPE   NH323112  11.037  21.574   9.816  0.0840  0.0630  0.0862
 1970DOPE   PO423113  10.974  21.335  10.046  0.2706 -0.0140 -0.0263
 1970DOPE   GL123114  10.964  21.139  10.425 -0.3575 -0.0361  0.1563
 1970DOPE   GL223115  10.822  20.920  10.492  0.2058  0.0847  0.2449
 1970DOPE   C1A23116  11.216  21.142  10.802 -0.1604 -0.1117  0.0077
 1970DOPE   D2A23117  11.280  21.496  11.125  0.0528 -0.1510 -0.0091
 1970DOPE   C3A23118  11.329  21.855  11.405 -0.1624  0.2226  0.0104
 1970DOPE   C4A23119  11.427  22.256  11.468  0.2586  0.0108  0.0291
 1970DOPE   C1B23120  10.432  20.833  10.668 -0.0041 -0.0695  0.1060
 1970DOPE   D2B23121  10.190  21.079  10.982  0.0638  0.0171  0.1279
 1970DOPE   C3B23122   9.841  21.389  11.092  0.0884 -0.0935  0.0240
 1970DOPE   C4B23123   9.399  21.576  11.168  0.0241 -0.0389  0.3263
 1971DOPE   NH323124  12.248  19.700  10.453 -0.0817  0.0417  0.2667
 1971DOPE   PO423125  12.041  19.513  10.376  0.2954 -0.1040  0.2924
 1971DOPE   GL123126  11.932  19.306  10.753  0.0126 -0.3898  0.3064
 1971DOPE   GL223127  11.659  19.224  10.674 -0.3801 -0.0422 -0.0558
 1971DOPE   C1A23128  11.914  19.441  11.229  0.3282 -0.2139 -0.0334
 1971DOPE   D2A23129  12.025  19.423  11.744  0.0524  0.0600 -0.0687
 1971DOPE   C3A23130  11.945  19.790  12.012 -0.0484  0.1342 -0.0067
 1971DOPE   C4A23131  12.014  20.137  12.241  0.2902 -0.0601  0.1428
 1971DOPE   C1B23132  11.696  18.974  11.034  0.3502 -0.3148  0.0414
 1971DOPE   D2B23133  11.654  19.034  11.467  0.3120  0.1888 -0.0497
 1971DOPE   C3B23134  11.397  19.370  11.629  0.0183  0.1924  0.0771
 1971DOPE   C4B23135  11.117  19.714  11.812  0.2913 -0.0200 -0.0449
 1972DOPC   NC323136  10.233  16.903  10.647  0.0072 -0.4373 -0.1870
 1972DOPC   PO423137  10.627  16.953  10.788 -0.1670 -0.1815 -0.0589
 1972DOPC   GL123138  10.379  16.774  11.110  0.0196 -0.2404  0.0263
 1972DOPC   GL223139  10.496  16.911  11.299 -0.1175  0.2890 -0.0139
 1972DOPC   C1A23140   9.963  16.923  11.077  0.2220  0.0614 -0.2445
 1972DOPC   D2A23141   9.493  16.935  11.037 -0.4328 -0.1337  0.3483
 1972DOPC   C3A23142   9.280  17.001  11.426  0.0659  0.0746 -0.0498
 1972DOPC   C4A23143   9.031  17.156  11.802 -0.2036  0.2740  0.0612
 1972DOPC   C1B23144  10.282  16.909  11.756  0.2467  0.3785 -0.1390
 1972DOPC   D2B23145   9.969  16.965  12.036 -0.0834 -0.2287  0.0226
 1972DOPC   C3B23146   9.706  17.147  12.357  0.1396 -0.2126 -0.2361
 1972DOPC   C4B23147   9.712  17.423  12.711  0.1410 -0.1445 -0.0216
 1973DOPE   NH323148  21.991  16.231   9.639  0.3370  0.0415  0.0013
 1973DOPE   PO423149  21.936  16.455   9.850  0.2437 -0.1496  0.3073
 1973DOPE   GL123150  21.671  16.610   9.986  0.0801 -0.3447  0.0696
 1973DOPE   GL223151  21.703  16.570  10.268 -0.1449 -0.2178 -0.1972
 1973DOPE   C1A23152  21.632  17.061  10.000 -0.0468  0.0087  0.4287
 1973DOPE   D2A23153  21.588  17.376  10.328 -0.1494  0.0689 -0.2210
 1973DOPE   C3A23154  21.534  17.300  10.731 -0.0867  0.0174  0.3498
 1973DOPE   C4A23155  21.540  17.317  11.172 -0.0428 -0.0341  0.0474
 1973DOPE   C1B23156  21.548  16.625  10.704  0.0125 -0.2922  0.2103
 1973DOPE   D2B23157  21.521  16.826  11.099  0.0887 -0.2657 -0.1247
 1973DOPE   C3B23158  21.360  16.466  11.300 -0.1616  0.2973 -0.2719
 1973DOPE   C4B23159  21.556  16.051  11.303  0.0477  0.1365  0.1177
 1974DOPS   CNO23160  18.895  20.165  10.207  0.0841  0.0117  0.0187
 1974DOPS   PO423161  19.009  20.494  10.084 -0.0154  0.1235 -0.4583
 1974DOPS   GL123162  18.970  20.767  10.333 -0.0427 -0.1659 -0.1781
 1974DOPS   GL223163  19.149  20.947  10.242  0.1201  0.1508 -0.2480
 1974DOPS   C1A23164  18.658  20.800  10.631 -0.1257  0.3226 -0.1926
 1974DOPS   D2A23165  18.556  20.691  11.005 -0.5666  0.3269 -0.1250
 1974DOPS   C3A23166  18.747  20.754  11.440 -0.1584  0.2522  0.1638
 1974DOPS   C4A23167  19.172  20.816  11.443 -0.1290 -0.1681  0.0477
 1974DOPS   C1B23168  19.486  20.887  10.568 -0.2435 -0.1717 -0.1950
 1974DOPS   D2B23169  19.586  20.870  10.984 -0.3107  0.3087 -0.1937
 1974DOPS   C3B23170  19.632  20.642  11.342  0.1073  0.2363 -0.3041
 1974DOPS   C4B23171  19.679  20.267  11.592 -0.0177  0.1232  0.1782
 1975DOPC   NC323172  12.321  23.187   9.772  0.0836  0.2254 -0.1862
 1975DOPC   PO423173  12.673  23.331   9.814  0.0324  0.2829 -0.1918
 1975DOPC   GL123174  12.586  23.213  10.230  0.0501  0.0958 -0.0077
 1975DOPC   GL223175  12.845  23.073  10.269 -0.1331  0.1611  0.1869
 1975DOPC   C1A23176  12.601  23.103  10.679 -0.1860  0.0716 -0.0562
 1975DOPC   D2A23177  12.456  23.119  11.094  0.2004 -0.0352 -0.0298
 1975DOPC   C3A23178  12.515  23.514  11.329 -0.0355 -0.1544 -0.0988
 1975DOPC   C4A23179  12.633  23.765  11.658  0.0110  0.0090  0.2007
 1975DOPC   C1B23180  12.912  23.448  10.538 -0.0568 -0.2287 -0.1815
 1975DOPC   D2B23181  13.128  23.779  10.831  0.0796  0.1302  0.0941
 1975DOPC   C3B23182  12.990  23.809  11.279  0.2071 -0.1718 -0.2184
 1975DOPC   C4B23183  12.995  24.162  11.610 -0.1697  0.1753  0.1142
 1976POSM   NC323184  21.065  19.888  10.060 -0.2333  0.2158 -0.1241
 1976POSM   PO423185  20.996  19.487  10.086 -0.1502  0.0698  0.2230
 1976POSM   AM123186  20.831  19.622  10.368 -0.1983  0.0928 -0.2053
 1976POSM   AM223187  20.559  19.674  10.412 -0.0140  0.2498 -0.1156
 1976POSM   T1A23188  20.864  19.583  10.835  0.2251  0.1054 -0.1572
 1976POSM   C2A23189  20.566  19.530  11.165  0.1637  0.0459  0.0404
 1976POSM   C3A23190  20.153  19.475  11.305  0.1656 -0.0564 -0.0754
 1976POSM   C1B23191  20.334  19.777  10.692 -0.0338 -0.1116 -0.0444
 1976POSM   D2B23192  20.099  19.911  11.052  0.1941  0.0508  0.0178
 1976POSM   C3B23193  20.417  20.054  11.388 -0.0464  0.3157 -0.0069
 1976POSM   C4B23194  20.696  20.349  11.589 -0.0661  0.4133 -0.0209
 1977DOPC   NC323195  12.604  17.713  10.366 -0.0497 -0.2157 -0.0644
 1977DOPC   PO423196  12.256  17.549  10.296  0.0853  0.2806  0.0882
 1977DOPC   GL123197  12.202  17.651  10.672  0.2074  0.0037  0.1678
 1977DOPC   GL223198  12.095  17.531  10.993  0.1757  0.0627 -0.0778
 1977DOPC   C1A23199  12.649  17.459  10.876  0.1306 -0.2509 -0.1587
 1977DOPC   D2A23200  12.993  17.224  11.101 -0.1863  0.2030  0.2485
 1977DOPC   C3A23201  13.232  17.475  11.503 -0.0489 -0.0466  0.1962
 1977DOPC   C4A23202  13.579  17.588  11.717  0.2216 -0.0463  0.2074
 1977DOPC   C1B23203  11.858  17.444  11.389 -0.2394  0.2011  0.0561
 1977DOPC   D2B23204  11.518  17.263  11.665  0.5120 -0.1293 -0.1039
 1977DOPC   C3B23205  11.768  16.976  11.913  0.3767  0.1193  0.0180
 1977DOPC   C4B23206  11.722  16.714  12.325 -0.1207 -0.0284 -0.1563
 1978POSM   NC323207  15.757  21.367  10.035 -0.1454 -0.1104 -0.1711
 1978POSM   PO423208  16.135  21.346  10.186 -0.2498  0.0682  0.1862
 1978POSM   AM123209  16.196  21.361  10.490 -0.1725 -0.1790 -0.3133
 1978POSM   AM223210  16.009  21.482  10.704  0.2645  0.2294  0.1464
 1978POSM   T1A23211  16.454  21.109  10.879 -0.1491  0.1097 -0.1120
 1978POSM   C2A23212  16.698  20.839  11.098 -0.1323 -0.4061  0.1388
 1978POSM   C3A23213  17.025  20.800  11.431 -0.0092 -0.1235  0.1118
 1978POSM   C1B23214  15.958  21.349  10.980 -0.1287  0.3144 -0.0723
 1978POSM   D2B23215  15.831  21.303  11.383 -0.1964  0.0707 -0.1699
 1978POSM   C3B23216  15.822  21.089  11.800  0.1285  0.2997  0.1534
 1978POSM   C4B23217  15.748  21.009  12.243  0.2411 -0.2003 -0.1247
 1979DOPE   NH323218  13.715  15.486  10.756  0.1763 -0.1852  0.1663
 1979DOPE   PO423219  13.704  15.788  10.553 -0.0559  0.0224 -0.2820
 1979DOPE   GL123220  13.844  15.960  10.791  0.0757  0.1177  0.1921
 1979DOPE   GL223221  13.809  16.168  10.886 -0.0756  0.1347 -0.1097
 1979DOPE   C1A23222  13.939  15.932  11.272  0.2000 -0.2578  0.0074
 1979DOPE   D2A23223  14.079  15.764  11.631  0.0194  0.0554  0.1397
 1979DOPE   C3A23224  14.325  16.049  11.871  0.0213  0.2469 -0.0081
 1979DOPE   C4A23225  14.665  16.349  12.061 -0.1421 -0.0990 -0.1321
 1979DOPE   C1B23226  13.473  15.956  11.092  0.1276 -0.1699 -0.1814
 1979DOPE   D2B23227  13.397  15.505  11.290 -0.3256 -0.1738  0.1155
 1979DOPE   C3B23228  13.422  15.534  11.824  0.0456 -0.2734  0.1857
 1979DOPE   C4B23229  13.288  15.634  12.281 -0.3851  0.0638  0.0424
 1980DOPE   NH323230  21.498  14.401   9.663  0.0050 -0.0555 -0.0573
 1980DOPE   PO423231  21.821  14.518   9.647 -0.0524  0.2319 -0.0675
 1980DOPE   GL123232  21.699  14.657  10.022 -0.1823  0.0560 -0.2584
 1980DOPE   GL223233  21.675  14.381  10.148  0.0420 -0.4214  0.0707
 1980DOPE   C1A23234  22.049  14.837  10.216 -0.2449  0.1349  0.1306
 1980DOPE   D2A23235  22.232  15.215  10.367  0.3393 -0.1528 -0.0161
 1980DOPE   C3A23236  21.887  15.529  10.389  0.1837 -0.0927 -0.2609
 1980DOPE   C4A23237  21.496  15.744  10.372  0.2022 -0.0948  0.0758
 1980DOPE   C1B23238  21.744  14.635  10.521 -0.0517  0.2148 -0.0780
 1980DOPE   D2B23239  21.554  15.011  10.803 -0.2068 -0.1396  0.0376
 1980DOPE   C3B23240  21.866  15.317  10.876 -0.1573  0.3780 -0.0686
 1980DOPE   C4B23241  22.334  15.279  10.851  0.2896 -0.2456 -0.0893
 1981DOPS   CNO23242  21.049  11.603  10.060  0.2613 -0.1110  0.2703
 1981DOPS   PO423243  20.726  11.780  10.149 -0.1651  0.0864 -0.2295
 1981DOPS   GL123244  20.777  12.056  10.483 -0.3416  0.0729  0.1056
 1981DOPS   GL223245  20.811  11.803  10.643 -0.0027 -0.1663  0.1413
 1981DOPS   C1A23246  20.540  12.113  10.899  0.1017  0.0252 -0.0995
 1981DOPS   D2A23247  20.480  12.039  11.308  0.2659  0.2739 -0.1831
 1981DOPS   C3A23248  20.567  12.160  11.696  0.1643  0.1674  0.4760
 1981DOPS   C4A23249  20.812  11.898  11.956  0.1822 -0.1560  0.1291
 1981DOPS   C1B23250  21.052  12.078  10.937  0.1711  0.2214 -0.4273
 1981DOPS   D2B23251  21.393  12.320  11.183 -0.3880  0.1660 -0.0970
 1981DOPS   C3B23252  21.375  12.582  11.551 -0.2576  0.1008  0.0716
 1981DOPS   C4B23253  21.062  12.421  11.897  0.0962 -0.0492 -0.0654
 1982DOPE   NH323254  11.961   9.990  11.254  0.3708  0.0441  0.1577
 1982DOPE   PO423255  11.966   9.697  11.394 -0.0219 -0.0479 -0.3406
 1982DOPE   GL123256  12.090   9.562  11.742 -0.0741  0.0383 -0.3136
 1982DOPE   GL223257  12.289   9.410  11.696 -0.1607  0.2568  0.1170
 1982DOPE   C1A23258  12.249   9.747  12.117 -0.0415  0.0516 -0.1795
 1982DOPE   D2A23259  12.604   9.865  12.305  0.3042 -0.2165  0.2723
 1982DOPE   C3A23260  12.635  10.023  12.698  0.3335 -0.0854 -0.1053
 1982DOPE   C4A23261  12.467  10.206  13.107 -0.0901  0.0635 -0.3555
 1982DOPE   C1B23262  12.420   9.314  12.170 -0.3164 -0.0679  0.0333
 1982DOPE   D2B23263  12.278   9.459  12.586  0.1203 -0.0344 -0.2016
 1982DOPE   C3B23264  12.340   9.638  12.961 -0.1636 -0.0149 -0.3675
 1982DOPE   C4B23265  12.316   9.819  13.370 -0.2729 -0.3114 -0.1783
 1983DOPE   NH323266  20.504  14.833   9.609  0.2336 -0.0027 -0.1113
 1983DOPE   PO423267  20.760  14.893   9.730  0.0884  0.1074  0.1317
 1983DOPE   GL123268  20.772  14.839  10.120 -0.4230 -0.1883 -0.2804
 1983DOPE   GL223269  21.003  14.990  10.313  0.1899 -0.1216  0.3328
 1983DOPE   C1A23270  20.644  14.594  10.509  0.2912  0.1567  0.0189
 1983DOPE   D2A23271  20.656  14.553  10.970  0.0280  0.0984 -0.0180
 1983DOPE   C3A23272  20.387  14.869  11.215 -0.0527  0.3394 -0.1720
 1983DOPE   C4A23273  20.247  15.045  11.551 -0.1250 -0.2347  0.0167
 1983DOPE   C1B23274  21.131  14.804  10.691 -0.2371 -0.1453  0.2048
 1983DOPE   D2B23275  21.329  14.636  11.111 -0.3158  0.1452  0.0462
 1983DOPE   C3B23276  21.758  14.763  11.198 -0.0527  0.0107  0.2159
 1983DOPE   C4B23277  22.111  15.024  11.231 -0.0250  0.0576  0.1333
 1984POSM   NC323278  23.172  19.728  10.196 -0.1358 -0.0972  0.3480
 1984POSM   PO423279  22.877  19.980  10.143 -0.1514 -0.1321 -0.0996
 1984POSM   AM123280  22.694  19.838  10.362  0.1484  0.2625 -0.0667
 1984POSM   AM223281  22.481  19.666  10.382 -0.2089  0.0178 -0.3457
 1984POSM   T1A23282  22.697  19.677  10.845 -0.0065  0.0196 -0.1611
 1984POSM   C2A23283  22.636  19.721  11.330 -0.1218 -0.1072  0.2185
 1984POSM   C3A23284  22.762  19.940  11.798  0.1324  0.1702 -0.1453
 1984POSM   C1B23285  22.254  19.600  10.656  0.0649 -0.1517 -0.1074
 1984POSM   D2B23286  22.121  19.389  11.079 -0.0305  0.2821  0.1493
 1984POSM   C3B23287  22.295  19.328  11.509 -0.0665 -0.1089 -0.2415
 1984POSM   C4B23288  22.621  19.399  11.769 -0.1605 -0.0762  0.0332
 1985DOPC   NC323289  21.708  20.768   9.760 -0.1076  0.2943 -0.1890
 1985DOPC   PO423290  21.684  20.835  10.145 -0.1667 -0.2183 -0.1563
 1985DOPC   GL123291  21.802  20.777  10.585 -0.3971  0.0824  0.0167
 1985DOPC   GL223292  21.803  20.981  10.727 -0.2712 -0.0845 -0.1250
 1985DOPC   C1A23293  22.149  20.700  10.920 -0.1114 -0.0922  0.0528
 1985DOPC   D2A23294  22.231  20.607  11.349  0.2458 -0.2521  0.0403
 1985DOPC   C3A23295  22.279  21.041  11.600  0.0524 -0.0232  0.3882
 1985DOPC   C4A23296  22.415  21.209  12.035  0.2611 -0.0851  0.1710
 1985DOPC   C1B23297  21.693  20.567  11.002  0.0773  0.1388  0.0895
 1985DOPC   D2B23298  21.648  20.347  11.407  0.2555  0.2735 -0.0273
 1985DOPC   C3B23299  22.051  20.256  11.619  0.0744 -0.2094  0.2033
 1985DOPC   C4B23300  22.234  20.189  12.034  0.2452 -0.2691  0.1398
 1986DOPC   NC323301  17.671  10.745  10.743 -0.0923  0.1922 -0.3191
 1986DOPC   PO423302  17.609  11.035  10.564  0.0346 -0.0008 -0.1837
 1986DOPC   GL123303  17.515  11.178  10.854  0.0134  0.3356  0.1311
 1986DOPC   GL223304  17.268  11.242  10.913  0.0645  0.1423 -0.0393
 1986DOPC   C1A23305  17.675  11.080  11.263 -0.0320  0.1458 -0.1729
 1986DOPC   D2A23306  17.676  11.004  11.734 -0.2072  0.1249  0.0497
 1986DOPC   C3A23307  18.054  10.826  11.973  0.0367  0.0465 -0.0464
 1986DOPC   C4A23308  18.471  10.733  11.939  0.1929  0.0596 -0.1109
 1986DOPC   C1B23309  17.071  11.186  11.295  0.2596 -0.1226  0.2621
 1986DOPC   D2B23310  17.004  11.190  11.803  0.3516 -0.2018 -0.0521
 1986DOPC   C3B23311  17.285  11.483  12.032  0.0349  0.3555  0.0764
 1986DOPC   C4B23312  17.505  11.641  12.406 -0.3382  0.1074  0.1206
 1987DOPE   NH323313  13.462  14.760  10.751  0.2615 -0.2611 -0.0878
 1987DOPE   PO423314  13.684  14.963  10.682  0.1700 -0.1299  0.1348
 1987DOPE   GL123315  13.657  14.979  11.102 -0.0602  0.2489  0.2708
 1987DOPE   GL223316  13.873  14.766  11.132  0.0395 -0.0929  0.1085
 1987DOPE   C1A23317  13.332  15.007  11.413 -0.1158  0.2457 -0.1006
 1987DOPE   D2A23318  13.334  14.694  11.782  0.1510 -0.3216 -0.4809
 1987DOPE   C3A23319  13.377  14.656  12.269 -0.0464  0.1985 -0.0282
 1987DOPE   C4A23320  13.522  14.811  12.642 -0.0741 -0.0958  0.0076
 1987DOPE   C1B23321  14.198  14.941  11.351 -0.1970  0.2652 -0.2224
 1987DOPE   D2B23322  14.384  15.295  11.622  0.0276  0.2976 -0.0850
 1987DOPE   C3B23323  14.241  15.257  12.025  0.1856 -0.0519  0.1567
 1987DOPE   C4B23324  13.987  15.625  12.166 -0.0940 -0.2527 -0.0153
 1988DOPE   NH323325  19.412  15.603   9.421  0.2138  0.0176 -0.0434
 1988DOPE   PO423326  19.167  15.595   9.611 -0.0237 -0.1576 -0.0355
 1988DOPE   GL123327  19.093  15.682  10.017 -0.0530  0.0071 -0.1951
 1988DOPE   GL223328  18.798  15.752   9.912  0.2109  0.0355  0.4812
 1988DOPE   C1A23329  19.080  15.800  10.461 -0.3295 -0.0591  0.2708
 1988DOPE   D2A23330  19.039  15.745  10.959 -0.3322  0.1336  0.0120
 1988DOPE   C3A23331  18.887  16.084  11.280  0.0681 -0.1938 -0.0734
 1988DOPE   C4A23332  18.923  16.448  11.632  0.1210 -0.0681  0.1078
 1988DOPE   C1B23333  18.609  15.983  10.223  0.3362 -0.0593  0.3375
 1988DOPE   D2B23334  18.654  15.904  10.727  0.0580 -0.1352 -0.2260
 1988DOPE   C3B23335  18.359  15.640  10.915 -0.0592  0.1008  0.1745
 1988DOPE   C4B23336  18.173  15.234  11.007 -0.2246  0.0171 -0.2291
 1989POSM   NC323337  14.580  12.076  10.245  0.0638  0.0993 -0.0224
 1989POSM   PO423338  14.930  11.936  10.349 -0.0885 -0.2312  0.3052
 1989POSM   AM123339  14.780  11.906  10.640 -0.0024  0.1312  0.1246
 1989POSM   AM223340  14.591  11.677  10.743 -0.0733 -0.1081 -0.1775
 1989POSM   T1A23341  14.589  12.000  11.127  0.1646 -0.0011 -0.1209
 1989POSM   C2A23342  14.505  11.963  11.587 -0.2280  0.1026  0.0545
 1989POSM   C3A23343  14.300  11.910  12.039 -0.2282 -0.0330  0.0041
 1989POSM   C1B23344  14.893  11.574  10.950  0.0714  0.0955  0.0245
 1989POSM   D2B23345  15.228  11.437  11.179  0.1749 -0.2317  0.3094
 1989POSM   C3B23346  15.445  11.335  11.570  0.0189  0.1791 -0.0347
 1989POSM   C4B23347  15.524  10.930  11.745  0.0443 -0.0138 -0.3294
 1990POSM   NC323348  17.104  15.337  10.062  0.1166 -0.0343 -0.0038
 1990POSM   PO423349  16.890  14.997  10.077  0.0894 -0.0906  0.1357
 1990POSM   AM123350  17.091  14.940  10.330  0.5101  0.2762  0.0129
 1990POSM   AM223351  17.251  15.139  10.486 -0.0099  0.0019 -0.0281
 1990POSM   T1A23352  17.317  14.606  10.683 -0.2500 -0.2561  0.2742
 1990POSM   C2A23353  17.773  14.551  10.837  0.2483 -0.0207  0.0272
 1990POSM   C3A23354  18.131  14.248  10.937 -0.4956 -0.1321 -0.2319
 1990POSM   C1B23355  17.103  15.019  10.755  0.3721 -0.0925  0.1757
 1990POSM   D2B23356  16.979  14.744  11.051 -0.1681  0.0400  0.0564
 1990POSM   C3B23357  16.601  14.489  11.097  0.0668  0.1414  0.2089
 1990POSM   C4B23358  16.481  14.210  11.364  0.2920  0.2418  0.0698
 1991POSM   NC323359  12.675  20.068  10.384  0.0199  0.2705 -0.0915
 1991POSM   PO423360  13.018  20.335  10.361  0.0404  0.2713  0.0384
 1991POSM   AM123361  12.986  20.443  10.649 -0.2758  0.2502  0.2050
 1991POSM   AM223362  12.840  20.288  10.883  0.2468 -0.1685 -0.2035
 1991POSM   T1A23363  12.818  20.855  10.923  0.1925  0.1300  0.1305
 1991POSM   C2A23364  12.802  21.035  11.328 -0.1158  0.0442  0.1897
 1991POSM   C3A23365  12.441  21.360  11.430 -0.0421 -0.2196 -0.1105
 1991POSM   C1B23366  12.810  20.411  11.205  0.2813  0.4666  0.0604
 1991POSM   D2B23367  12.760  20.631  11.602  0.0359  0.1222 -0.2425
 1991POSM   C3B23368  12.610  20.521  12.033  0.3512 -0.0725  0.1025
 1991POSM   C4B23369  12.496  20.223  12.348 -0.2429 -0.1199 -0.2619
 1992POSM   NC323370  18.307  13.177   9.515  0.3176 -0.4657 -0.0975
 1992POSM   PO423371  18.175  13.025   9.827  0.0028 -0.1071  0.0590
 1992POSM   AM123372  18.388  13.074  10.099 -0.0689 -0.0819 -0.0686
 1992POSM   AM223373  18.607  13.260  10.158  0.1585 -0.0130 -0.2717
 1992POSM   T1A23374  18.728  12.830  10.362 -0.0101  0.0607 -0.1044
 1992POSM   C2A23375  19.186  12.708  10.450 -0.1882  0.3584 -0.2625
 1992POSM   C3A23376  19.512  12.440  10.615 -0.2160 -0.0587 -0.0785
 1992POSM   C1B23377  18.647  13.320  10.455 -0.1583  0.0900 -0.2687
 1992POSM   D2B23378  18.872  13.619  10.792  0.0085 -0.0142 -0.1816
 1992POSM   C3B23379  18.918  13.748  11.299  0.0017  0.0671  0.0344
 1992POSM   C4B23380  18.739  13.984  11.659 -0.0710 -0.0618 -0.1088
 1993DOPC   NC323381  16.094  18.134   9.602 -0.0093  0.2056 -0.2022
 1993DOPC   PO423382  15.749  18.304   9.692  0.1745  0.3718  0.3108
 1993DOPC   GL123383  15.612  18.337  10.088 -0.0211 -0.1225  0.1920
 1993DOPC   GL223384  15.801  18.163  10.275  0.2880 -0.0916  0.2045
 1993DOPC   C1A23385  15.631  18.648  10.413 -0.0986 -0.0739  0.0171
 1993DOPC   D2A23386  15.373  18.631  10.835  0.2654  0.2188  0.1765
 1993DOPC   C3A23387  15.371  18.988  11.157  0.2409 -0.3458 -0.2711
 1993DOPC   C4A23388  15.305  18.899  11.566 -0.2257 -0.1051 -0.0742
 1993DOPC   C1B23389  15.583  18.129  10.639 -0.0322 -0.0358 -0.2264
 1993DOPC   D2B23390  15.621  18.209  11.122  0.1001 -0.0292 -0.2007
 1993DOPC   C3B23391  15.696  18.558  11.413  0.0722 -0.0078 -0.1105
 1993DOPC   C4B23392  16.028  18.910  11.537 -0.0110  0.0819  0.1310
 1994DOPC   NC323393  19.066  13.197   9.981  0.2187  0.3137  0.2076
 1994DOPC   PO423394  19.448  13.139   9.841 -0.2882  0.0067  0.2153
 1994DOPC   GL123395  19.624  13.348  10.089 -0.0137  0.0255  0.1338
 1994DOPC   GL223396  19.560  13.604  10.041  0.0676 -0.0381  0.3461
 1994DOPC   C1A23397  20.013  13.270  10.249  0.0836  0.1901  0.1098
 1994DOPC   D2A23398  20.187  12.922  10.515  0.2354  0.2235  0.1778
 1994DOPC   C3A23399  19.881  12.753  10.820 -0.0987  0.0642  0.3245
 1994DOPC   C4A23400  19.454  12.904  10.993 -0.1375  0.4529  0.0743
 1994DOPC   C1B23401  19.437  13.810  10.404 -0.0434  0.0345 -0.1017
 1994DOPC   D2B23402  19.542  13.932  10.837  0.3746 -0.3057  0.0859
 1994DOPC   C3B23403  19.345  14.065  11.241  0.0427  0.1502 -0.2236
 1994DOPC   C4B23404  19.216  14.219  11.675  0.1908  0.1857 -0.0522
 1995DOPE   NH323405  18.932  15.231   9.902 -0.0974 -0.1148  0.1842
 1995DOPE   PO423406  18.651  15.310   9.726  0.2723  0.0206  0.0282
 1995DOPE   GL123407  18.440  15.347  10.120 -0.1038  0.0349  0.2308
 1995DOPE   GL223408  18.699  15.398  10.285 -0.2324  0.1047  0.2399
 1995DOPE   C1A23409  18.252  15.665  10.389 -0.4031  0.0416  0.2054
 1995DOPE   D2A23410  18.148  16.048  10.632  0.1102 -0.2270  0.1234
 1995DOPE   C3A23411  17.855  16.402  10.476  0.1873 -0.3051  0.1669
 1995DOPE   C4A23412  17.512  16.608  10.629 -0.1863  0.1024  0.4101
 1995DOPE   C1B23413  18.336  15.156  10.495  0.2434 -0.1587 -0.1266
 1995DOPE   D2B23414  17.832  15.097  10.472  0.1300 -0.2361 -0.0976
 1995DOPE   C3B23415  17.632  15.080  10.898 -0.1052 -0.1621  0.0017
 1995DOPE   C4B23416  17.768  15.065  11.349 -0.0180 -0.0896 -0.3444
 1996DOPC   NC323417  18.097  18.464   9.903  0.0259  0.0419 -0.0174
 1996DOPC   PO423418  18.351  18.226   9.785 -0.3381  0.0917 -0.1686
 1996DOPC   GL123419  18.295  17.989  10.034  0.0329 -0.1173  0.2693
 1996DOPC   GL223420  18.046  17.948  10.243 -0.1034 -0.0727 -0.2459
 1996DOPC   C1A23421  18.452  17.668  10.303 -0.2420  0.6028 -0.0306
 1996DOPC   D2A23422  18.234  17.350  10.538 -0.2269  0.0766  0.0470
 1996DOPC   C3A23423  18.319  17.154  10.921  0.0565 -0.1176 -0.3400
 1996DOPC   C4A23424  18.411  17.284  11.384 -0.0262  0.2078  0.0702
 1996DOPC   C1B23425  17.861  18.130  10.536  0.0968  0.0518 -0.1043
 1996DOPC   D2B23426  17.552  18.477  10.613 -0.0961 -0.0205 -0.0848
 1996DOPC   C3B23427  17.416  18.517  11.052  0.0095 -0.1129 -0.1802
 1996DOPC   C4B23428  17.447  18.813  11.419  0.1611 -0.1526  0.0778
 1997DOPC   NC323429  17.957  15.444   9.743 -0.1328 -0.1511  0.1879
 1997DOPC   PO423430  17.839  15.841   9.647  0.0106  0.2046 -0.1754
 1997DOPC   GL123431  17.940  16.076  10.029  0.1182 -0.0018  0.1455
 1997DOPC   GL223432  17.733  15.942  10.275 -0.2722  0.2476  0.1183
 1997DOPC   C1A23433  18.299  16.370  10.198  0.2345  0.0905 -0.1893
 1997DOPC   D2A23434  18.601  16.452  10.524  0.2095  0.3333  0.0542
 1997DOPC   C3A23435  18.570  16.682  10.955 -0.0070 -0.3208  0.3796
 1997DOPC   C4A23436  18.766  16.840  11.356 -0.1442 -0.0689  0.4077
 1997DOPC   C1B23437  17.524  16.083  10.712  0.1017  0.0894 -0.2254
 1997DOPC   D2B23438  17.684  16.352  11.019  0.1703 -0.1398 -0.0109
 1997DOPC   C3B23439  18.040  16.552  10.924 -0.0604 -0.1427 -0.0087
 1997DOPC   C4B23440  18.193  16.774  10.597  0.1865  0.1492 -0.2549
 1998DOPS   CNO23441  21.469  23.093  10.710 -0.0316  0.0332 -0.2440
 1998DOPS   PO423442  21.557  22.715  10.743  0.0448  0.2769 -0.1881
 1998DOPS   GL123443  21.727  22.698  11.095 -0.2635 -0.0594  0.3292
 1998DOPS   GL223444  22.034  22.615  11.184  0.1618 -0.2519 -0.0102
 1998DOPS   C1A23445  21.670  22.387  11.408  0.2204 -0.0778  0.0896
 1998DOPS   D2A23446  21.408  22.127  11.717  0.3866  0.0054 -0.1895
 1998DOPS   C3A23447  21.337  22.106  12.200 -0.1373  0.1679  0.0602
 1998DOPS   C4A23448  21.288  22.104  12.651 -0.0609  0.0441  0.1585
 1998DOPS   C1B23449  22.215  22.440  11.567  0.0993 -0.1211 -0.2318
 1998DOPS   D2B23450  22.277  22.340  12.021  0.3446  0.3193 -0.2577
 1998DOPS   C3B23451  22.315  22.650  12.366  0.1041  0.0644  0.3634
 1998DOPS   C4B23452  22.266  23.071  12.404  0.1017 -0.2329  0.1702
 1999POSM   NC323453  22.180  15.353   9.870  0.2035 -0.0301 -0.0838
 1999POSM   PO423454  22.515  15.581   9.745  0.0529  0.3483  0.0133
 1999POSM   AM123455  22.559  15.609  10.052  0.1437 -0.4876 -0.2329
 1999POSM   AM223456  22.805  15.666  10.189 -0.4141  0.1424 -0.2429
 1999POSM   T1A23457  22.330  15.718  10.501 -0.3448  0.2039 -0.1183
 1999POSM   C2A23458  22.051  15.770  10.857  0.2361 -0.2540  0.1417
 1999POSM   C3A23459  22.037  15.933  11.281  0.0145 -0.3084 -0.0566
 1999POSM   C1B23460  22.774  15.467  10.480  0.0048  0.2303 -0.2313
 1999POSM   D2B23461  22.819  15.235  10.890 -0.1365 -0.0310  0.1259
 1999POSM   C3B23462  23.022  15.533  11.156  0.2185  0.0369  0.1297
 1999POSM   C4B23463  23.176  15.543  11.675  0.4008 -0.1340  0.0454
 2000DOPS   CNO23464  18.539  19.244  10.253 -0.0227 -0.3024  0.1345
 2000DOPS   PO423465  18.824  19.048  10.110  0.0421  0.0205 -0.1827
 2000DOPS   GL123466  18.853  19.041  10.522 -0.0605  0.0434 -0.0729
 2000DOPS   GL223467  18.575  18.776  10.563 -0.0017  0.1909  0.0450
 2000DOPS   C1A23468  19.067  19.147  10.967  0.3504 -0.0745  0.0481
 2000DOPS   D2A23469  19.502  19.034  10.821 -0.0408  0.0732 -0.1350
 2000DOPS   C3A23470  19.613  18.607  10.997 -0.0127 -0.0490 -0.3329
 2000DOPS   C4A23471  19.525  18.288  11.316 -0.0129  0.1584  0.1129
 2000DOPS   C1B23472  18.512  18.960  10.984 -0.0623 -0.1818 -0.0676
 2000DOPS   D2B23473  18.621  19.094  11.410  0.2638 -0.1903 -0.0543
 2000DOPS   C3B23474  19.034  19.247  11.531 -0.1075  0.3114 -0.1171
 2000DOPS   C4B23475  19.396  19.387  11.786 -0.0440  0.1308  0.0083
 2001POSM   NC323476  14.548  15.752   9.867 -0.3066  0.0979  0.3709
 2001POSM   PO423477  14.286  16.077   9.897  0.2933 -0.0730  0.0025
 2001POSM   AM123478  14.307  16.382  10.118 -0.0101  0.2504  0.1150
 2001POSM   AM223479  14.506  16.606  10.112 -0.4415 -0.1609  0.1186
 2001POSM   T1A23480  14.298  16.529  10.615 -0.2867  0.1567  0.2862
 2001POSM   C2A23481  14.179  16.977  10.675  0.0916 -0.1145  0.3227
 2001POSM   C3A23482  14.087  17.247  10.999 -0.1698 -0.0801  0.0301
 2001POSM   C1B23483  14.417  16.929  10.243 -0.0818 -0.2452  0.2450
 2001POSM   D2B23484  14.590  17.264  10.553 -0.2243  0.3219 -0.2956
 2001POSM   C3B23485  14.974  17.530  10.497  0.4054 -0.1118  0.2584
 2001POSM   C4B23486  15.330  17.764  10.426 -0.3731 -0.3826 -0.1383
 2002DOPC   NC323487  13.424  16.995  10.417  0.1009  0.1049 -0.2918
 2002DOPC   PO423488  13.436  16.620  10.321  0.0785  0.4713 -0.1773
 2002DOPC   GL123489  13.749  16.533  10.595  0.0376 -0.1841  0.2726
 2002DOPC   GL223490  13.535  16.593  10.837 -0.2415  0.0940  0.2689
 2002DOPC   C1A23491  13.990  16.645  11.032  0.3584 -0.1445 -0.0591
 2002DOPC   D2A23492  14.134  16.919  11.352 -0.0416 -0.0925  0.3053
 2002DOPC   C3A23493  13.800  17.134  11.621 -0.0422  0.0249 -0.2201
 2002DOPC   C4A23494  13.378  16.920  11.742  0.1435  0.0881  0.3354
 2002DOPC   C1B23495  13.507  16.398  11.276 -0.0643 -0.0455  0.3342
 2002DOPC   D2B23496  13.699  16.383  11.718 -0.2963 -0.4342 -0.1211
 2002DOPC   C3B23497  13.465  16.500  12.049 -0.0771  0.0277  0.0643
 2002DOPC   C4B23498  13.011  16.663  12.075  0.4246  0.3557 -0.1104
 2003DOPC   NC323499  20.351  15.621   9.605  0.0659 -0.1961  0.1566
 2003DOPC   PO423500  20.775  15.676   9.557 -0.2585 -0.1549 -0.2782
 2003DOPC   GL123501  20.668  15.738   9.968  0.0385 -0.1203 -0.1498
 2003DOPC   GL223502  20.570  16.018   9.899 -0.3505 -0.0356 -0.3503
 2003DOPC   C1A23503  20.942  15.630  10.329  0.1140  0.1470  0.0648
 2003DOPC   D2A23504  20.986  15.742  10.757  0.1744 -0.0148 -0.1612
 2003DOPC   C3A23505  20.998  15.529  11.094 -0.1790 -0.1028 -0.2177
 2003DOPC   C4A23506  20.953  15.049  11.163 -0.0371 -0.0275 -0.0002
 2003DOPC   C1B23507  20.726  16.063  10.328  0.0242  0.4451  0.2752
 2003DOPC   D2B23508  20.810  16.281  10.738 -0.2047 -0.3412 -0.1638
 2003DOPC   C3B23509  21.048  16.617  10.900  0.0893  0.1587 -0.0983
 2003DOPC   C4B23510  21.027  16.895  11.240  0.0334 -0.0193  0.5055
 2004DOPC   NC323511  11.304  11.714  10.783  0.1349 -0.1353  0.1850
 2004DOPC   PO423512  11.270  11.520  11.130 -0.1117 -0.1174  0.1161
 2004DOPC   GL123513  11.187  11.770  11.408  0.1494 -0.2583  0.2460
 2004DOPC   GL223514  11.406  11.756  11.719  0.0147  0.0672  0.0913
 2004DOPC   C1A23515  10.833  11.734  11.730  0.3218 -0.0887  0.0021
 2004DOPC   D2A23516  10.431  11.981  11.816 -0.1059  0.0788 -0.0101
 2004DOPC   C3A23517  10.282  12.009  12.278  0.3686 -0.0517 -0.1466
 2004DOPC   C4A23518  10.448  12.183  12.716  0.1429 -0.0556  0.1277
 2004DOPC   C1B23519  11.246  11.711  12.161  0.2970 -0.3144 -0.0037
 2004DOPC   D2B23520  10.840  11.533  12.181  0.2620 -0.0819  0.0904
 2004DOPC   C3B23521  10.776  11.860  12.531  0.0633  0.1291 -0.4654
 2004DOPC   C4B23522  10.546  11.710  12.956 -0.1552 -0.0320 -0.1850
 2005POSM   NC323523  18.535  20.616  10.191  0.0817 -0.0993  0.2429
 2005POSM   PO423524  18.496  20.320   9.917 -0.2996 -0.1966 -0.0544
 2005POSM   AM123525  18.416  20.122  10.155 -0.1789  0.1232 -0.5926
 2005POSM   AM223526  18.249  20.185  10.366 -0.0135  0.0963 -0.0544
 2005POSM   T1A23527  18.612  19.774  10.465 -0.3315  0.0819  0.0991
 2005POSM   C2A23528  18.611  19.556  10.897 -0.2715  0.0388 -0.1654
 2005POSM   C3A23529  18.380  19.570  11.301 -0.0245 -0.1090  0.0027
 2005POSM   C1B23530  18.460  20.207  10.644  0.0921  0.3185 -0.0630
 2005POSM   D2B23531  18.769  19.989  10.903  0.0524  0.2206  0.1739
 2005POSM   C3B23532  18.810  20.276  11.231  0.1236 -0.2477  0.2036
 2005POSM   C4B23533  19.228  20.288  11.455 -0.1753  0.4507  0.0133
 2006POSM   NC323534  12.343  12.406  11.502  0.0953 -0.0856 -0.0449
 2006POSM   PO423535  12.550  12.042  11.458 -0.0468 -0.1496 -0.0356
 2006POSM   AM123536  12.511  11.989  11.758  0.4077 -0.5061  0.0899
 2006POSM   AM223537  12.665  12.012  12.029 -0.1200  0.0517 -0.0474
 2006POSM   T1A23538  12.193  12.109  12.142  0.2123  0.0351 -0.0028
 2006POSM   C2A23539  12.047  11.983  12.557  0.0011 -0.2321 -0.1507
 2006POSM   C3A23540  12.264  12.018  12.996  0.0226 -0.2018 -0.2879
 2006POSM   C1B23541  12.670  11.904  12.324  0.0195 -0.0806  0.2202
 2006POSM   D2B23542  12.557  11.735  12.744 -0.1653  0.1593  0.2590
 2006POSM   C3B23543  12.472  11.316  12.727  0.1484  0.0908 -0.1415
 2006POSM   C4B23544  12.077  11.076  12.783 -0.2360 -0.1408 -0.1876
 2007DOPE   NH323545  14.954  13.324  10.578 -0.1845 -0.1982 -0.0139
 2007DOPE   PO423546  14.744  13.488  10.657  0.1031 -0.2112 -0.3128
 2007DOPE   GL123547  14.899  13.556  10.977  0.0204 -0.3431 -0.2000
 2007DOPE   GL223548  14.866  13.408  11.231 -0.2097  0.2467 -0.1226
 2007DOPE   C1A23549  14.948  13.909  11.327 -0.0912 -0.0153 -0.0533
 2007DOPE   D2A23550  15.111  14.294  11.614  0.0377  0.1996  0.3355
 2007DOPE   C3A23551  15.372  14.273  11.936  0.1617 -0.0862 -0.1633
 2007DOPE   C4A23552  15.745  14.550  12.131 -0.1253  0.0628  0.2400
 2007DOPE   C1B23553  15.145  13.134  11.457 -0.2251  0.1970 -0.3017
 2007DOPE   D2B23554  15.318  12.731  11.511  0.0292 -0.1840 -0.4536
 2007DOPE   C3B23555  15.079  12.618  11.950  0.2940 -0.1973  0.1943
 2007DOPE   C4B23556  14.707  12.679  12.170  0.0909 -0.0421 -0.3808
 2008DOPS   CNO23557  22.984  16.178   9.661 -0.0112  0.1293  0.0769
 2008DOPS   PO423558  22.716  16.063   9.885 -0.0864  0.1280 -0.1212
 2008DOPS   GL123559  22.473  16.301  10.089 -0.0146  0.2686 -0.1114
 2008DOPS   GL223560  22.587  16.132  10.328  0.2701  0.2835  0.3117
 2008DOPS   C1A23561  22.144  16.272  10.396 -0.0792  0.0599  0.0709
 2008DOPS   D2A23562  21.858  16.198  10.706 -0.1558 -0.1069  0.2681
 2008DOPS   C3A23563  21.850  16.448  11.119  0.3677 -0.2723 -0.1653
 2008DOPS   C4A23564  21.951  16.886  11.297 -0.2419  0.0159  0.0642
 2008DOPS   C1B23565  22.764  15.943  10.692 -0.2016 -0.0253  0.0840
 2008DOPS   D2B23566  22.522  15.720  10.972  0.0122  0.2452 -0.0773
 2008DOPS   C3B23567  22.633  15.797  11.448  0.2771  0.3279 -0.0429
 2008DOPS   C4B23568  22.834  15.818  11.870  0.0646 -0.1490 -0.1504
 2009DOPE   NH323569  26.438  21.281  10.084  0.1539  0.0692 -0.0555
 2009DOPE   PO423570  26.436  20.986   9.994 -0.1013 -0.0839 -0.1037
 2009DOPE   GL123571  25.989  20.956  10.222  0.1195 -0.3795  0.0865
 2009DOPE   GL223572  26.156  20.758  10.315 -0.2003 -0.1080 -0.0081
 2009DOPE   C1A23573  25.931  20.980  10.699 -0.0611  0.2633 -0.0426
 2009DOPE   D2A23574  25.658  21.072  11.016 -0.1637  0.3217 -0.1985
 2009DOPE   C3A23575  25.844  21.127  11.463  0.1411 -0.1169  0.2558
 2009DOPE   C4A23576  25.903  21.341  11.896  0.1846 -0.0987  0.0075
 2009DOPE   C1B23577  26.410  20.581  10.685 -0.0651 -0.0767 -0.0695
 2009DOPE   D2B23578  26.520  20.785  11.093 -0.0701 -0.0204  0.1652
 2009DOPE   C3B23579  26.647  20.445  11.376  0.0334 -0.0998  0.2205
 2009DOPE   C4B23580  26.702  20.256  11.787  0.2848  0.2145 -0.3095
 2010DOPC   NC323581  10.775  16.037  11.053  0.0500 -0.2312 -0.1696
 2010DOPC   PO423582  11.146  16.032  10.852 -0.0185 -0.1226  0.3170
 2010DOPC   GL123583  11.211  15.981  11.246 -0.2366  0.1347  0.3894
 2010DOPC   GL223584  11.031  15.702  11.333  0.4132  0.3987  0.0377
 2010DOPC   C1A23585  10.832  16.074  11.548 -0.0165  0.1239 -0.1047
 2010DOPC   D2A23586  10.837  16.290  11.954  0.0240  0.0874 -0.0592
 2010DOPC   C3A23587  10.538  16.455  12.199  0.0055  0.0523  0.2685
 2010DOPC   C4A23588  10.121  16.577  12.372  0.2083  0.1689 -0.3425
 2010DOPC   C1B23589  11.168  15.732  11.760 -0.0035 -0.0706  0.2527
 2010DOPC   D2B23590  11.161  15.455  12.144  0.3688  0.3661  0.0291
 2010DOPC   C3B23591  11.070  15.533  12.622 -0.0374  0.2077 -0.0142
 2010DOPC   C4B23592  11.022  15.934  12.924 -0.3105 -0.1239 -0.2083
 2011DOPC   NC323593   9.747  14.745  11.015  0.2872  0.0589 -0.2652
 2011DOPC   PO423594   9.702  14.359  11.092  0.0745  0.0194  0.0996
 2011DOPC   GL123595   9.865  14.399  11.340 -0.3531  0.1354 -0.2098
 2011DOPC   GL223596   9.692  14.567  11.620 -0.1250 -0.0330 -0.2597
 2011DOPC   C1A23597   9.876  14.052  11.653  0.1165  0.0284 -0.0271
 2011DOPC   D2A23598   9.793  13.783  12.002  0.1272 -0.0242  0.1951
 2011DOPC   C3A23599  10.022  13.754  12.456 -0.1977  0.0745 -0.0774
 2011DOPC   C4A23600  10.263  13.685  12.846  0.1769  0.0707 -0.2351
 2011DOPC   C1B23601   9.500  14.872  11.879 -0.1554 -0.1140  0.0023
 2011DOPC   D2B23602   9.060  15.038  11.895 -0.1886  0.1235 -0.0213
 2011DOPC   C3B23603   8.740  14.770  12.120 -0.0692 -0.0440  0.1473
 2011DOPC   C4B23604   8.775  14.316  12.290  0.2261 -0.1394 -0.0617
 2012POSM   NC323605  22.252  17.631   9.417  0.4712 -0.0409  0.0542
 2012POSM   PO423606  22.155  17.985   9.607  0.1620 -0.2595  0.1213
 2012POSM   AM123607  21.970  17.764   9.784 -0.1408  0.3819  0.0299
 2012POSM   AM223608  21.982  17.786  10.086 -0.2195  0.3818 -0.0568
 2012POSM   T1A23609  22.033  17.349  10.082  0.2247  0.0956  0.2000
 2012POSM   C2A23610  21.947  17.016  10.441 -0.1641 -0.0383  0.0139
 2012POSM   C3A23611  22.124  16.662  10.747  0.1623  0.3846 -0.0797
 2012POSM   C1B23612  22.076  17.764  10.425 -0.2909  0.0766 -0.0595
 2012POSM   D2B23613  22.047  17.564  10.834 -0.0100 -0.0915  0.2462
 2012POSM   C3B23614  21.970  17.561  11.310 -0.0106  0.0017 -0.0956
 2012POSM   C4B23615  22.030  17.230  11.716  0.1938 -0.3132  0.1593
 2013POSM   NC323616  10.632  20.104   9.920  0.2342  0.0911  0.0945
 2013POSM   PO423617  10.862  19.976  10.216  0.0046  0.0231 -0.0466
 2013POSM   AM123618  10.846  20.003  10.568  0.2688  0.2387  0.2376
 2013POSM   AM223619  11.017  20.085  10.787  0.0390  0.0346  0.0059
 2013POSM   T1A23620  10.674  19.785  10.991  0.1760 -0.0311  0.2464
 2013POSM   C2A23621  10.530  19.849  11.396  0.1820  0.1673  0.2719
 2013POSM   C3A23622  10.438  20.236  11.569  0.2802  0.1761 -0.3034
 2013POSM   C1B23623  11.218  19.889  10.953 -0.1234 -0.1264 -0.1584
 2013POSM   D2B23624  11.418  19.442  11.047  0.2202  0.2256 -0.0182
 2013POSM   C3B23625  11.186  19.076  11.271  0.1477  0.1298 -0.3492
 2013POSM   C4B23626  11.165  18.616  11.200  0.4216 -0.1637 -0.1656
 2014DOPS   CNO23627  15.858  13.754  10.317  0.5140  0.1085  0.1753
 2014DOPS   PO423628  16.047  14.046  10.153 -0.0733  0.1280  0.1095
 2014DOPS   GL123629  16.194  14.043  10.520  0.0217  0.0632  0.1066
 2014DOPS   GL223630  15.991  14.010  10.729  0.3714  0.1214  0.0991
 2014DOPS   C1A23631  16.253  14.522  10.685 -0.0084 -0.0262 -0.1850
 2014DOPS   D2A23632  16.154  14.642  11.152 -0.0672  0.2458  0.3179
 2014DOPS   C3A23633  15.898  14.916  11.443 -0.0373 -0.0553  0.3362
 2014DOPS   C4A23634  15.889  14.967  11.908 -0.1001 -0.0683 -0.0114
 2014DOPS   C1B23635  15.684  13.788  11.005 -0.1468  0.0895  0.2348
 2014DOPS   D2B23636  15.364  13.577  11.268  0.2985  0.0147  0.1089
 2014DOPS   C3B23637  15.162  13.589  11.687 -0.0430 -0.5212 -0.2109
 2014DOPS   C4B23638  14.905  13.595  12.129  0.1106  0.0123  0.2808
 2015POSM   NC323639  12.684  11.822  11.029  0.0458  0.0433 -0.0860
 2015POSM   PO423640  13.003  11.849  11.102  0.1547 -0.1562  0.1908
 2015POSM   AM123641  13.061  11.742  11.418  0.1469  0.3147  0.0665
 2015POSM   AM223642  12.870  11.638  11.595  0.0089  0.0187 -0.1737
 2015POSM   T1A23643  13.426  11.506  11.612 -0.1548  0.0990  0.2784
 2015POSM   C2A23644  13.443  11.488  12.072 -0.0584  0.1791 -0.0126
 2015POSM   C3A23645  13.764  11.336  12.404  0.0225 -0.2755 -0.3945
 2015POSM   C1B23646  13.027  11.658  11.927 -0.0923  0.2740 -0.0051
 2015POSM   D2B23647  13.236  11.907  12.293 -0.0873 -0.4057 -0.0496
 2015POSM   C3B23648  13.085  11.975  12.750 -0.1000  0.2287  0.0468
 2015POSM   C4B23649  12.804  12.065  13.107 -0.0275  0.3962 -0.0566
 2016DOPE   NH323650  15.034  23.092  10.500 -0.0572 -0.3159  0.2927
 2016DOPE   PO423651  15.237  22.839  10.501 -0.1402 -0.3718 -0.1158
 2016DOPE   GL123652  15.601  22.653  10.735  0.1280 -0.2936  0.1538
 2016DOPE   GL223653  15.542  22.838  10.971  0.1880 -0.0276 -0.0886
 2016DOPE   C1A23654  15.989  22.683  10.964  0.1099  0.2868  0.0139
 2016DOPE   D2A23655  16.400  22.581  11.166  0.2243  0.1784 -0.0800
 2016DOPE   C3A23656  16.406  22.706  11.629 -0.2217 -0.0799  0.2984
 2016DOPE   C4A23657  16.515  22.797  12.107 -0.0960 -0.0920 -0.0240
 2016DOPE   C1B23658  15.857  23.138  10.993 -0.1892  0.0081  0.0255
 2016DOPE   D2B23659  16.313  23.074  10.972 -0.0535  0.0514  0.1558
 2016DOPE   C3B23660  16.710  22.989  11.211 -0.0989 -0.1759  0.1618
 2016DOPE   C4B23661  16.856  22.927  11.638  0.2172  0.1725 -0.0467
 2017DOPE   NH323662  11.187  13.117  11.283  0.2001  0.0442  0.1304
 2017DOPE   PO423663  11.446  12.917  11.336 -0.1642 -0.0880  0.0822
 2017DOPE   GL123664  11.467  12.910  11.758  0.3355 -0.1073  0.0810
 2017DOPE   GL223665  11.669  12.977  11.833 -0.4187 -0.1544  0.0016
 2017DOPE   C1A23666  11.375  13.030  12.209  0.4940  0.4172 -0.1687
 2017DOPE   D2A23667  11.418  13.284  12.593 -0.0154 -0.1278 -0.0201
 2017DOPE   C3A23668  11.634  13.700  12.495  0.1103  0.0277  0.4154
 2017DOPE   C4A23669  11.757  13.813  12.064 -0.1933  0.0025 -0.2099
 2017DOPE   C1B23670  11.727  12.642  12.128  0.0963 -0.1795  0.3059
 2017DOPE   D2B23671  11.874  12.401  12.404 -0.0700 -0.0413  0.0977
 2017DOPE   C3B23672  11.918  12.468  12.846 -0.0287  0.3620  0.1185
 2017DOPE   C4B23673  11.873  12.612  13.262 -0.1189 -0.0353 -0.2411
 2018DOPE   NH323674  12.295  11.599  11.369 -0.4473  0.0971  0.0340
 2018DOPE   PO423675  12.179  11.767  11.173  0.3160 -0.1156 -0.4662
 2018DOPE   GL123676  12.106  11.900  11.573  0.2461  0.1621  0.6606
 2018DOPE   GL223677  11.854  11.939  11.701  0.0004  0.2655  0.2833
 2018DOPE   C1A23678  12.260  11.618  11.921 -0.2369  0.0921  0.1557
 2018DOPE   D2A23679  12.304  11.582  12.379  0.0658  0.0461 -0.2303
 2018DOPE   C3A23680  11.866  11.519  12.595 -0.0286 -0.0912 -0.2525
 2018DOPE   C4A23681  11.569  11.555  12.970  0.1951 -0.1870 -0.3774
 2018DOPE   C1B23682  11.504  12.171  12.021 -0.2470 -0.1310 -0.1513
 2018DOPE   D2B23683  11.327  12.308  12.381  0.2515 -0.4031  0.1407
 2018DOPE   C3B23684  11.392  12.711  12.540  0.0913  0.1593 -0.4421
 2018DOPE   C4B23685  11.138  12.984  12.864 -0.0624  0.2388  0.0328
 2019DOPS   CNO23686  18.773  10.259   9.929  0.1486  0.0634  0.3239
 2019DOPS   PO423687  19.002  10.436  10.186  0.0780  0.2320  0.3137
 2019DOPS   GL123688  18.942  10.637  10.553  0.2517  0.2136 -0.1712
 2019DOPS   GL223689  19.111  10.847  10.703 -0.0028 -0.2957 -0.3481
 2019DOPS   C1A23690  18.742  10.579  10.956 -0.0621  0.0153  0.2618
 2019DOPS   D2A23691  18.486  10.327  11.271 -0.1813 -0.0313 -0.1713
 2019DOPS   C3A23692  18.839  10.336  11.613  0.1579  0.3342 -0.3219
 2019DOPS   C4A23693  18.834  10.335  12.091  0.2182 -0.0308  0.2800
 2019DOPS   C1B23694  18.858  11.094  10.996 -0.1078 -0.1962  0.0167
 2019DOPS   D2B23695  18.473  11.377  10.979  0.2292  0.1255  0.4085
 2019DOPS   C3B23696  18.562  11.508  11.358  0.1351  0.0143 -0.1414
 2019DOPS   C4B23697  18.781  11.704  11.776  0.1015 -0.1048 -0.0539
 2020POSM   NC323698  17.679  11.989  10.399 -0.2738  0.2161  0.1717
 2020POSM   PO423699  17.585  12.353  10.274 -0.0097 -0.0021  0.0666
 2020POSM   AM123700  17.513  12.391  10.603 -0.3227 -0.3354  0.0023
 2020POSM   AM223701  17.286  12.480  10.725 -0.1356 -0.2072  0.1640
 2020POSM   T1A23702  17.652  12.165  11.050  0.2286  0.2470 -0.1382
 2020POSM   C2A23703  17.535  11.718  11.189  0.0520  0.2571  0.1615
 2020POSM   C3A23704  17.406  11.439  11.496 -0.0253  0.1394  0.0951
 2020POSM   C1B23705  17.165  12.369  10.998 -0.0347  0.1289 -0.1505
 2020POSM   D2B23706  17.079  12.097  11.287  0.3247 -0.1316 -0.0144
 2020POSM   C3B23707  17.503  12.123  11.537  0.0288  0.0469 -0.0983
 2020POSM   C4B23708  17.883  11.956  11.454 -0.2644  0.0203  0.0112
 2021POSM   NC323709  18.134  14.590   9.765 -0.2863 -0.1436  0.3396
 2021POSM   PO423710  18.064  14.203   9.607  0.1846  0.0416  0.0563
 2021POSM   AM123711  18.062  14.141   9.951 -0.0539 -0.3320 -0.3614
 2021POSM   AM223712  18.264  14.229  10.151  0.1724  0.0450 -0.2612
 2021POSM   T1A23713  17.915  14.004  10.425 -0.2048 -0.2811  0.0363
 2021POSM   C2A23714  17.811  13.856  10.890  0.1540  0.1288  0.0986
 2021POSM   C3A23715  17.816  13.605  11.270 -0.3868 -0.1649  0.2070
 2021POSM   C1B23716  18.496  14.375  10.347 -0.2728 -0.1282  0.1382
 2021POSM   D2B23717  18.657  14.441  10.774  0.2008  0.0468  0.0844
 2021POSM   C3B23718  18.601  14.901  10.895  0.0402  0.8250 -0.1881
 2021POSM   C4B23719  18.686  15.322  10.799 -0.1559 -0.0565 -0.1895
 2022DOPE   NH323720  18.000  13.725   9.807  0.0670  0.3949 -0.2056
 2022DOPE   PO423721  18.217  13.548   9.950  0.0821  0.0788 -0.0726
 2022DOPE   GL123722  18.250  13.780  10.210  0.2069  0.2552  0.0870
 2022DOPE   GL223723  18.549  13.860  10.352  0.0823 -0.1406 -0.1222
 2022DOPE   C1A23724  18.195  13.635  10.660  0.3172  0.1872 -0.0365
 2022DOPE   D2A23725  17.977  13.260  10.908 -0.3697  0.3042  0.0647
 2022DOPE   C3A23726  18.012  12.966  11.280  0.1519 -0.3779  0.1671
 2022DOPE   C4A23727  18.216  12.868  11.626  0.0138 -0.2154  0.4009
 2022DOPE   C1B23728  18.556  13.952  10.852 -0.0124 -0.0533  0.1181
 2022DOPE   D2B23729  18.642  14.181  11.231 -0.1284  0.0938  0.1040
 2022DOPE   C3B23730  19.010  14.458  11.198 -0.0999  0.0978 -0.1923
 2022DOPE   C4B23731  19.366  14.625  11.444  0.1604  0.1212  0.0455
 2023DOPS   CNO23732  12.716  21.217  10.051  0.0337  0.0464  0.1215
 2023DOPS   PO423733  12.896  21.322  10.364  0.0743  0.0452 -0.1804
 2023DOPS   GL123734  12.929  21.270  10.704  0.3008 -0.3599 -0.0359
 2023DOPS   GL223735  13.146  21.355  10.899  0.1168  0.2176  0.1443
 2023DOPS   C1A23736  12.527  21.329  10.931  0.0135  0.2032  0.3259
 2023DOPS   D2A23737  12.261  21.656  11.040 -0.1683  0.1009  0.1985
 2023DOPS   C3A23738  12.311  22.086  11.198  0.1956  0.1126  0.3221
 2023DOPS   C4A23739  12.366  22.262  11.635  0.1704  0.1862  0.4195
 2023DOPS   C1B23740  13.194  21.793  11.123 -0.1177 -0.0514 -0.0736
 2023DOPS   D2B23741  13.387  21.734  11.571  0.1329 -0.0583  0.2826
 2023DOPS   C3B23742  13.067  21.833  11.909  0.2538  0.0274 -0.0052
 2023DOPS   C4B23743  13.229  21.942  12.322  0.5226  0.1038 -0.2523
 2024DOPE   NH323744  14.614  19.152   9.873 -0.2304  0.2090 -0.1050
 2024DOPE   PO423745  14.789  19.387   9.967  0.4886 -0.3361  0.0842
 2024DOPE   GL123746  14.860  19.144  10.283 -0.2582  0.1104  0.0092
 2024DOPE   GL223747  14.650  19.031  10.351 -0.0689 -0.2406 -0.0048
 2024DOPE   C1A23748  14.922  19.012  10.746 -0.0389  0.1185  0.0049
 2024DOPE   D2A23749  14.835  18.891  11.140  0.0066  0.1472 -0.0046
 2024DOPE   C3A23750  14.463  19.122  11.240  0.0680 -0.0245 -0.0015
 2024DOPE   C4A23751  14.084  18.965  11.382 -0.0830 -0.0507  0.3983
 2024DOPE   C1B23752  14.347  18.934  10.725 -0.0965  0.2407 -0.1881
 2024DOPE   D2B23753  14.086  18.688  10.924  0.0944 -0.1624 -0.0866
 2024DOPE   C3B23754  13.917  18.449  11.301 -0.0567 -0.3472 -0.0457
 2024DOPE   C4B23755  13.782  18.225  11.682 -0.0575 -0.2324  0.0767
 2025POSM   NC323756  10.705  14.848  11.203 -0.3441  0.2215  0.1307
 2025POSM   PO423757  11.025  14.682  11.045 -0.0648  0.1405  0.2098
 2025POSM   AM123758  11.165  14.887  11.240  0.0300 -0.4308  0.2788
 2025POSM   AM223759  11.064  15.122  11.354  0.2351 -0.0485 -0.0073
 2025POSM   T1A23760  11.501  15.103  11.524  0.0387 -0.0228 -0.1374
 2025POSM   C2A23761  11.548  15.225  11.962 -0.2511 -0.1570  0.1397
 2025POSM   C3A23762  11.599  14.938  12.291  0.1738 -0.1152  0.0922
 2025POSM   C1B23763  10.975  15.234  11.698  0.0859  0.0469  0.1984
 2025POSM   D2B23764  10.682  15.334  12.051  0.3388 -0.0305 -0.1349
 2025POSM   C3B23765  10.253  15.215  11.947  0.0436  0.0893 -0.2340
 2025POSM   C4B23766   9.938  15.143  12.245  0.1817 -0.2327  0.2763
 2026POSM   NC323767  13.398  20.479  10.102  0.1108 -0.1643 -0.1073
 2026POSM   PO423768  13.789  20.442  10.166  0.1019  0.1305  0.1575
 2026POSM   AM123769  13.948  20.492  10.477 -0.0667 -0.2193  0.2174
 2026POSM   AM223770  13.908  20.491  10.731 -0.0818 -0.1728  0.2431
 2026POSM   T1A23771  14.324  20.286  10.731 -0.0929  0.3717  0.2295
 2026POSM   C2A23772  14.416  19.907  11.043  0.1375  0.1954 -0.1168
 2026POSM   C3A23773  14.613  19.630  11.362 -0.1943  0.1617 -0.1450
 2026POSM   C1B23774  13.913  20.307  11.013 -0.0376  0.0299  0.3581
 2026POSM   D2B23775  13.811  20.188  11.444 -0.2010  0.0858  0.1353
 2026POSM   C3B23776  13.507  19.901  11.317 -0.0888  0.0100  0.0987
 2026POSM   C4B23777  13.087  19.798  11.143  0.0363  0.0150 -0.1452
 2027DOPC   NC323778  12.056  22.493  10.551 -0.1702  0.0347 -0.1022
 2027DOPC   PO423779  12.124  22.085  10.514  0.2816  0.1188  0.0451
 2027DOPC   GL123780  11.835  21.898  10.786 -0.4540 -0.1486  0.1081
 2027DOPC   GL223781  11.588  21.951  10.775  0.2341 -0.2593  0.2401
 2027DOPC   C1A23782  11.759  21.649  11.130 -0.1666  0.0602 -0.2139
 2027DOPC   D2A23783  11.662  21.500  11.527 -0.1027 -0.0072  0.0231
 2027DOPC   C3A23784  11.239  21.378  11.623 -0.2849 -0.0738 -0.3358
 2027DOPC   C4A23785  10.889  21.288  11.893 -0.1870  0.0755 -0.0627
 2027DOPC   C1B23786  11.238  22.084  11.010  0.1599 -0.3432  0.1297
 2027DOPC   D2B23787  10.923  22.173  11.377  0.1528 -0.1276 -0.3299
 2027DOPC   C3B23788  11.081  22.443  11.781  0.3093 -0.2907  0.2830
 2027DOPC   C4B23789  11.025  22.819  11.972 -0.2150  0.1466  0.2037
 2028POSM   NC323790   9.067  17.127  10.470 -0.2220 -0.0327 -0.0028
 2028POSM   PO423791   9.275  16.775  10.448 -0.1372 -0.2900 -0.0371
 2028POSM   AM123792   9.137  16.754  10.711 -0.4963  0.1990 -0.0176
 2028POSM   AM223793   9.091  16.649  10.981 -0.0312 -0.0156 -0.2780
 2028POSM   T1A23794   8.818  17.022  10.953 -0.0374 -0.1433  0.1198
 2028POSM   C2A23795   8.729  17.104  11.375 -0.0050 -0.3175  0.5383
 2028POSM   C3A23796   8.576  16.750  11.685  0.0092  0.0913  0.2559
 2028POSM   C1B23797   8.920  16.653  11.312 -0.5582 -0.0982 -0.0113
 2028POSM   D2B23798   8.903  16.380  11.682 -0.1625 -0.3699 -0.1459
 2028POSM   C3B23799   8.598  16.345  12.073 -0.1023  0.0643  0.0848
 2028POSM   C4B23800   8.218  16.213  12.252 -0.2291  0.4229  0.2550
 2029DOPE   NH323801  16.201  12.391   9.688  0.2781  0.3685  0.4466
 2029DOPE   PO423802  16.242  12.303  10.001  0.0301  0.2457  0.1715
 2029DOPE   GL123803  16.389  12.347  10.411  0.0561  0.0058  0.2095
 2029DOPE   GL223804  16.533  12.102  10.454 -0.2693  0.0641 -0.4350
 2029DOPE   C1A23805  16.426  12.351  10.928 -0.1206  0.3590  0.2785
 2029DOPE   D2A23806  16.722  12.417  11.313  0.1115 -0.0605  0.1292
 2029DOPE   C3A23807  16.728  12.201  11.694 -0.0540  0.2001 -0.3914
 2029DOPE   C4A23808  16.389  11.995  11.905  0.2493  0.1846  0.1398
 2029DOPE   C1B23809  16.864  12.024  10.806  0.3105  0.1946  0.2026
 2029DOPE   D2B23810  16.890  11.570  10.970  0.1017 -0.2534  0.1116
 2029DOPE   C3B23811  16.614  11.377  11.297  0.0250  0.1150 -0.1057
 2029DOPE   C4B23812  16.487  11.389  11.720 -0.0971 -0.0227 -0.2996
 2030DOPS   CNO23813  13.007  17.881  10.118 -0.0638 -0.3809 -0.0083
 2030DOPS   PO423814  12.874  18.176  10.309  0.0338 -0.1081  0.0249
 2030DOPS   GL123815  12.892  18.000  10.712  0.0702 -0.2451 -0.0083
 2030DOPS   GL223816  12.819  18.175  10.931  0.2449  0.2375 -0.1957
 2030DOPS   C1A23817  13.328  18.111  10.887  0.1913  0.3685  0.1672
 2030DOPS   D2A23818  13.564  18.006  11.231  0.0350 -0.1732 -0.0181
 2030DOPS   C3A23819  13.942  18.049  11.003  0.2074 -0.2388 -0.0661
 2030DOPS   C4A23820  14.432  18.119  11.019 -0.2779 -0.0716  0.0780
 2030DOPS   C1B23821  12.905  18.176  11.414  0.1090  0.0098 -0.1612
 2030DOPS   D2B23822  12.935  18.275  11.846  0.1159  0.0063 -0.0614
 2030DOPS   C3B23823  12.681  18.480  12.210 -0.1645  0.0608  0.3535
 2030DOPS   C4B23824  12.791  18.836  12.515  0.3001 -0.1588  0.0133
 2031DOPC   NC323825  12.315  19.656   9.950  0.2068 -0.0547 -0.1358
 2031DOPC   PO423826  12.601  19.932   9.885 -0.1785  0.3623 -0.2474
 2031DOPC   GL123827  12.619  19.651  10.247 -0.1296 -0.0917  0.0086
 2031DOPC   GL223828  12.803  19.493  10.309 -0.1887  0.0384  0.1081
 2031DOPC   C1A23829  12.641  19.695  10.727 -0.1890  0.1901  0.0357
 2031DOPC   D2A23830  12.586  19.416  11.105 -0.0486 -0.2710 -0.2003
 2031DOPC   C3A23831  12.706  18.969  10.992  0.0484 -0.0760  0.0401
 2031DOPC   C4A23832  12.969  18.601  11.108  0.1368  0.0439 -0.4730
 2031DOPC   C1B23833  13.024  19.448  10.708  0.4378 -0.1319  0.0788
 2031DOPC   D2B23834  13.460  19.562  10.876  0.0456 -0.0379 -0.3235
 2031DOPC   C3B23835  13.556  19.393  11.306 -0.2228 -0.4733 -0.1830
 2031DOPC   C4B23836  13.480  19.405  11.800 -0.3179  0.1034 -0.1014
 2032DOPC   NC323837  19.140  18.442  10.133  0.1896  0.3738 -0.0065
 2032DOPC   PO423838  19.483  18.643  10.056  0.0325  0.0630 -0.0369
 2032DOPC   GL123839  19.482  18.510  10.450 -0.0624  0.2114  0.2260
 2032DOPC   GL223840  19.833  18.474  10.458 -0.1780 -0.0977  0.3634
 2032DOPC   C1A23841  19.166  18.630  10.775 -0.0095  0.1142  0.3186
 2032DOPC   D2A23842  19.014  18.699  11.182  0.2601  0.0856 -0.1501
 2032DOPC   C3A23843  19.056  18.302  11.436 -0.0965 -0.1071 -0.3163
 2032DOPC   C4A23844  19.105  17.865  11.730  0.0158  0.0590 -0.1060
 2032DOPC   C1B23845  20.056  18.764  10.751 -0.0053  0.1879  0.2104
 2032DOPC   D2B23846  19.950  19.011  11.153  0.3152  0.4739  0.2176
 2032DOPC   C3B23847  19.499  19.044  11.317  0.0446 -0.0435  0.2851
 2032DOPC   C4B23848  19.316  18.744  11.609 -0.0674 -0.2901  0.1670
 2033DOPC   NC323849  13.368  17.861   9.649  0.3330  0.0250 -0.0627
 2033DOPC   PO423850  13.466  17.724  10.023  0.1895 -0.0950 -0.2998
 2033DOPC   GL123851  13.543  17.470  10.330  0.1415  0.3171  0.4673
 2033DOPC   GL223852  13.778  17.367  10.512  0.1446  0.0806  0.0294
 2033DOPC   C1A23853  13.274  17.405  10.741 -0.2249 -0.0032  0.2292
 2033DOPC   D2A23854  13.151  17.692  11.076  0.4219 -0.0012 -0.1001
 2033DOPC   C3A23855  12.733  17.715  11.331  0.2014 -0.0213 -0.0372
 2033DOPC   C4A23856  12.310  17.633  11.473 -0.0767  0.1048  0.0975
 2033DOPC   C1B23857  13.696  17.622  10.838 -0.0485 -0.4059 -0.4017
 2033DOPC   D2B23858  13.714  17.521  11.276  0.1628 -0.2492  0.0309
 2033DOPC   C3B23859  14.024  17.783  11.543  0.0116 -0.2868  0.4291
 2033DOPC   C4B23860  14.300  18.145  11.574 -0.0493  0.0680  0.1952
 2034DOPS   CNO23861  16.998  19.121  10.146 -0.1629 -0.1330 -0.0074
 2034DOPS   PO423862  17.251  18.958   9.886 -0.3573  0.0847  0.0906
 2034DOPS   GL123863  17.303  18.746  10.221 -0.0276 -0.2603 -0.2111
 2034DOPS   GL223864  17.149  18.544  10.290  0.2289 -0.0802  0.1385
 2034DOPS   C1A23865  17.586  18.936  10.535 -0.2212  0.0317 -0.1222
 2034DOPS   D2A23866  17.608  19.041  10.997 -0.0321  0.0358  0.2868
 2034DOPS   C3A23867  17.150  19.019  11.123  0.3489 -0.1311 -0.0544
 2034DOPS   C4A23868  16.704  18.995  11.023  0.3109  0.2949  0.1010
 2034DOPS   C1B23869  16.740  18.394  10.248  0.0778 -0.3784 -0.2742
 2034DOPS   D2B23870  16.407  18.169  10.429 -0.0371  0.1103  0.2343
 2034DOPS   C3B23871  16.116  18.153  10.787 -0.3941  0.1806 -0.0559
 2034DOPS   C4B23872  16.167  18.221  11.222  0.0292 -0.1017  0.0685
 2035POSM   NC323873  13.315  11.400  11.155  0.0754 -0.0917  0.2888
 2035POSM   PO423874  13.391  11.068  10.949 -0.1306 -0.0378  0.1203
 2035POSM   AM123875  13.595  11.016  11.184  0.6326 -0.1284  0.1487
 2035POSM   AM223876  13.848  10.989  11.273  0.1724 -0.2772  0.0951
 2035POSM   T1A23877  13.535  11.032  11.674  0.2070 -0.1407 -0.0181
 2035POSM   C2A23878  13.508  10.961  12.128 -0.1593 -0.0779  0.1579
 2035POSM   C3A23879  13.432  10.940  12.540  0.0291  0.0682  0.1505
 2035POSM   C1B23880  14.140  10.892  11.501  0.2942 -0.5499  0.3342
 2035POSM   D2B23881  14.551  10.934  11.745 -0.2778  0.0422  0.2759
 2035POSM   C3B23882  14.729  10.933  12.225 -0.3996 -0.0822  0.3069
 2035POSM   C4B23883  14.904  10.740  12.625  0.3127 -0.2767 -0.0054
 2036POSM   NC323884  13.842  22.559   9.855  0.1776 -0.0796 -0.1781
 2036POSM   PO423885  13.591  22.323   9.989  0.0540 -0.2262 -0.3115
 2036POSM   AM123886  13.370  22.347  10.225  0.1658 -0.0513  0.2796
 2036POSM   AM223887  13.308  22.156  10.460  0.0060  0.0170  0.3369
 2036POSM   T1A23888  13.127  22.623  10.576  0.0107 -0.3766 -0.0788
 2036POSM   C2A23889  12.926  22.818  10.958  0.1185 -0.1067  0.5977
 2036POSM   C3A23890  12.839  22.726  11.388  0.2379 -0.2531  0.3451
 2036POSM   C1B23891  13.301  22.175  10.820 -0.2893 -0.1407  0.0977
 2036POSM   D2B23892  13.028  22.362  11.162 -0.4406  0.0906  0.3365
 2036POSM   C3B23893  13.239  22.325  11.587 -0.1486 -0.1434  0.2137
 2036POSM   C4B23894  13.544  22.101  11.832 -0.2594 -0.1204 -0.3564
 2037DOPE   NH323895   9.778  18.300   9.964  0.1664 -0.2489 -0.0763
 2037DOPE   PO423896   9.951  18.582  10.035 -0.1620 -0.0377 -0.1042
 2037DOPE   GL123897   9.877  18.489  10.424  0.0841 -0.0755  0.1827
 2037DOPE   GL223898   9.648  18.699  10.453 -0.0643  0.1941 -0.1591
 2037DOPE   C1A23899   9.857  18.562  10.883  0.1443 -0.1579 -0.2870
 2037DOPE   D2A23900   9.648  18.717  11.252  0.0736 -0.0511  0.1066
 2037DOPE   C3A23901   9.371  18.803  11.602 -0.0834 -0.1182 -0.1379
 2037DOPE   C4A23902   9.169  19.081  11.931  0.0474 -0.4068  0.1353
 2037DOPE   C1B23903   9.665  19.051  10.741  0.0109 -0.1482  0.2223
 2037DOPE   D2B23904   9.483  19.179  11.134 -0.0291 -0.4670  0.0292
 2037DOPE   C3B23905   9.708  19.164  11.530 -0.0411 -0.2385  0.3086
 2037DOPE   C4B23906   9.575  19.352  11.955 -0.1105  0.2240  0.3274
 2038DOPC   NC323907  16.382   9.141  10.573  0.0347 -0.1331 -0.2967
 2038DOPC   PO423908  16.108   9.356  10.752 -0.1569 -0.1073  0.2492
 2038DOPC   GL123909  16.013   9.585  11.031  0.3186 -0.4266  0.2192
 2038DOPC   GL223910  16.234   9.645  11.204 -0.1351  0.2299  0.1000
 2038DOPC   C1A23911  15.863   9.647  11.481 -0.0304  0.1345 -0.0201
 2038DOPC   D2A23912  15.602   9.708  11.826  0.4411 -0.0168  0.0899
 2038DOPC   C3A23913  15.543   9.634  12.261 -0.2250  0.1102  0.3280
 2038DOPC   C4A23914  15.736   9.554  12.660 -0.1858 -0.0182 -0.2472
 2038DOPC   C1B23915  16.191   9.326  11.525 -0.5129  0.0169  0.0934
 2038DOPC   D2B23916  16.566   9.098  11.774 -0.2428 -0.0875  0.2390
 2038DOPC   C3B23917  16.813   9.382  12.072 -0.0148 -0.0638  0.2272
 2038DOPC   C4B23918  17.190   9.495  12.283  0.1892  0.2978 -0.1400
 2039POSM   NC323919  23.268  14.918   9.722  0.4340  0.2094 -0.0399
 2039POSM   PO423920  23.557  15.098   9.859 -0.3787 -0.2314  0.0147
 2039POSM   AM123921  23.645  15.086  10.207 -0.2689  0.2275 -0.3350
 2039POSM   AM223922  23.513  14.945  10.410 -0.2995  0.1288 -0.0167
 2039POSM   T1A23923  23.662  15.423  10.605 -0.0446 -0.0666 -0.4171
 2039POSM   C2A23924  23.509  15.625  11.016  0.0584  0.2420  0.2468
 2039POSM   C3A23925  23.716  15.832  11.396 -0.0578  0.0282  0.0657
 2039POSM   C1B23926  23.289  14.928  10.604  0.5744  0.0084 -0.1416
 2039POSM   D2B23927  22.948  14.794  10.887  0.0690 -0.3234  0.4102
 2039POSM   C3B23928  22.540  14.887  10.613 -0.0079  0.1674 -0.0149
 2039POSM   C4B23929  22.055  14.837  10.792  0.0367 -0.0771  0.1333
 2040POSM   NC323930  15.091  18.560   9.349 -0.1184 -0.1975 -0.2714
 2040POSM   PO423931  14.838  18.761   9.602 -0.0069  0.2248 -0.2049
 2040POSM   AM123932  14.841  18.738   9.921 -0.0574  0.1991  0.2060
 2040POSM   AM223933  15.041  18.738  10.115 -0.1324  0.0346 -0.0556
 2040POSM   T1A23934  14.653  18.503  10.379 -0.0074  0.0141 -0.2078
 2040POSM   C2A23935  14.623  18.520  10.851 -0.0748  0.0199 -0.1539
 2040POSM   C3A23936  14.424  18.605  11.288 -0.1088 -0.0503  0.0173
 2040POSM   C1B23937  15.165  18.511  10.286 -0.0726  0.1904 -0.2201
 2040POSM   D2B23938  15.096  18.204  10.621 -0.0198  0.3914  0.1699
 2040POSM   C3B23939  14.993  18.080  11.084  0.1003 -0.1743  0.0421
 2040POSM   C4B23940  15.314  17.975  11.423 -0.2517 -0.1108 -0.2925
 2041DOPC   NC323941  15.633  29.182  14.043  0.0717  0.1869 -0.0957
 2041DOPC   PO423942  15.851  29.360  14.322  0.1266  0.0396  0.3136
 2041DOPC   GL123943  15.956  29.504  14.089 -0.2220 -0.0241 -0.1183
 2041DOPC   GL223944  16.087  29.695  14.018 -0.1466  0.1019  0.0284
 2041DOPC   C1A23945  15.798  29.450  13.630  0.0821 -0.0624  0.0366
 2041DOPC   D2A23946  15.799  29.703  13.250 -0.3629 -0.1048 -0.2099
 2041DOPC   C3A23947  15.431  29.890  13.038 -0.1926 -0.0526  0.1707
 2041DOPC   C4A23948  15.222  30.042  12.654  0.0709  0.3053  0.1376
 2041DOPC   C1B23949  16.226  29.638  13.536  0.1164 -0.0456  0.1713
 2041DOPC   D2B23950  16.264  29.617  13.038 -0.0847 -0.4259 -0.0448
 2041DOPC   C3B23951  16.210  29.940  12.726 -0.0335 -0.1837  0.0387
 2041DOPC   C4B23952  16.341  30.245  12.386  0.1012 -0.0944 -0.0788
 2042DOPC   NC323953  19.325  27.364  14.238 -0.2388  0.1762 -0.1334
 2042DOPC   PO423954  19.009  27.174  14.297  0.0847  0.1230  0.0276
 2042DOPC   GL123955  19.009  27.017  13.978  0.2989 -0.2807  0.0708
 2042DOPC   GL223956  19.066  27.246  13.751 -0.1131 -0.0530 -0.0836
 2042DOPC   C1A23957  19.004  26.609  13.766  0.0542  0.1458  0.1154
 2042DOPC   D2A23958  19.183  26.500  13.374  0.2254  0.0049  0.2092
 2042DOPC   C3A23959  19.062  26.627  12.949 -0.0777  0.0967 -0.0610
 2042DOPC   C4A23960  18.707  26.422  12.771 -0.0786  0.4106 -0.0474
 2042DOPC   C1B23961  19.056  27.380  13.351  0.1144 -0.2121 -0.2045
 2042DOPC   D2B23962  19.013  27.622  12.942  0.1059 -0.0782 -0.0010
 2042DOPC   C3B23963  19.322  27.542  12.592  0.0589  0.1353  0.1366
 2042DOPC   C4B23964  19.596  27.864  12.368 -0.1289  0.0906  0.2325
 2043DOPE   NH323965  20.378  31.810  14.413  0.3352 -0.0704 -0.4628
 2043DOPE   PO423966  20.112  31.963  14.393 -0.0847 -0.0522 -0.0511
 2043DOPE   GL123967  20.022  31.863  13.973 -0.0016  0.1661  0.1824
 2043DOPE   GL223968  20.010  32.097  13.842  0.3795  0.2849  0.1950
 2043DOPE   C1A23969  19.728  31.786  13.608 -0.1813 -0.2199  0.0233
 2043DOPE   D2A23970  19.708  31.813  13.159  0.1432  0.1068  0.0766
 2043DOPE   C3A23971  19.605  31.568  12.782 -0.3795 -0.2390 -0.1828
 2043DOPE   C4A23972  19.722  31.383  12.362 -0.0234 -0.2988 -0.1768
 2043DOPE   C1B23973  20.203  31.978  13.388 -0.0503 -0.2332 -0.0233
 2043DOPE   D2B23974  20.209  32.230  12.988 -0.1095  0.0871  0.0536
 2043DOPE   C3B23975  20.467  32.016  12.670 -0.0961 -0.1456 -0.2669
 2043DOPE   C4B23976  20.763  31.681  12.680 -0.0241  0.0246 -0.2718
 2044DOPE   NH323977  10.756  31.772  14.162 -0.0708 -0.0142 -0.0316
 2044DOPE   PO423978  10.840  31.928  13.898  0.2920  0.1488  0.3057
 2044DOPE   GL123979  10.883  32.108  13.511 -0.1729 -0.0557 -0.0501
 2044DOPE   GL223980  10.767  31.906  13.349 -0.0870 -0.4464  0.0204
 2044DOPE   C1A23981  10.926  32.183  13.033 -0.3836 -0.2738 -0.0971
 2044DOPE   D2A23982  11.182  32.239  12.633  0.2363 -0.3644  0.3674
 2044DOPE   C3A23983  11.486  32.382  12.243  0.2515 -0.3362 -0.0897
 2044DOPE   C4A23984  11.834  32.207  11.966 -0.2355 -0.1352 -0.2769
 2044DOPE   C1B23985  10.412  32.011  12.983 -0.3180  0.1196  0.1560
 2044DOPE   D2B23986  10.419  32.084  12.481 -0.3006 -0.0497  0.2898
 2044DOPE   C3B23987  10.416  32.531  12.364 -0.0125  0.1733 -0.0739
 2044DOPE   C4B23988  10.655  32.825  12.089 -0.1001  0.3019  0.2509
 2045DOPC   NC323989  18.425   1.489  14.300  0.0988  0.4131  0.0468
 2045DOPC   PO423990  18.766   1.278  14.238 -0.2741 -0.2518  0.0782
 2045DOPC   GL123991  18.507   1.137  13.925  0.3713  0.1344 -0.0944
 2045DOPC   GL223992  18.625   1.317  13.708  0.1143 -0.0315  0.2220
 2045DOPC   C1A23993  18.439   0.869  13.544  0.1361 -0.0271 -0.0397
 2045DOPC   D2A23994  18.172   0.539  13.451 -0.0150 -0.2924  0.1306
 2045DOPC   C3A23995  17.863   0.857  13.311 -0.0333  0.2210  0.0299
 2045DOPC   C4A23996  17.571   1.027  12.994  0.1077 -0.3089 -0.0438
 2045DOPC   C1B23997  18.830   1.454  13.268 -0.1660  0.3107 -0.1241
 2045DOPC   D2B23998  19.035   1.744  13.005  0.2415 -0.1905  0.1753
 2045DOPC   C3B23999  19.396   1.860  12.701  0.3851  0.1961  0.0807
 2045DOPC   C4B24000  19.615   2.211  12.506  0.1122 -0.0871 -0.1605
 2046DOPC   NC324001  21.656  32.504  13.928 -0.1028  0.0250 -0.2770
 2046DOPC   PO424002  21.245  32.521  13.906 -0.1789 -0.2745 -0.0962
 2046DOPC   GL124003  21.250  32.253  13.559 -0.1872 -0.3967  0.3378
 2046DOPC   GL224004  21.030  32.343  13.442 -0.0073  0.1210 -0.1004
 2046DOPC   C1A24005  21.367  31.992  13.210  0.2088  0.2066  0.1703
 2046DOPC   D2A24006  21.428  31.708  12.913 -0.0633  0.1552  0.2941
 2046DOPC   C3A24007  21.248  31.842  12.496  0.1607 -0.3541 -0.0518
 2046DOPC   C4A24008  21.225  31.917  12.053  0.0497  0.4395 -0.1638
 2046DOPC   C1B24009  21.319  32.507  13.066  0.0436 -0.1142 -0.1594
 2046DOPC   D2B24010  21.320  32.868  12.753 -0.0172 -0.1206  0.0070
 2046DOPC   C3B24011  20.997  32.847  12.380 -0.0317 -0.3926 -0.1421
 2046DOPC   C4B24012  20.747  32.653  12.033 -0.1188  0.3190 -0.0894
 2047POSM   NC324013  12.476  27.560  13.050  0.1943 -0.0890  0.0322
 2047POSM   PO424014  12.810  27.675  13.131 -0.3256 -0.0213 -0.1207
 2047POSM   AM124015  12.883  27.801  12.828  0.0646 -0.1625 -0.1891
 2047POSM   AM224016  12.722  27.769  12.627  0.0072 -0.0773  0.2479
 2047POSM   T1A24017  12.999  28.219  12.515  0.1009  0.0914 -0.1881
 2047POSM   C2A24018  13.405  28.392  12.248  0.1003  0.2797 -0.1089
 2047POSM   C3A24019  13.776  28.177  12.032 -0.1539  0.1658 -0.1927
 2047POSM   C1B24020  12.691  27.803  12.299  0.0369  0.1689  0.1477
 2047POSM   D2B24021  12.656  27.732  11.842 -0.0701 -0.1298 -0.1584
 2047POSM   C3B24022  13.081  27.848  11.693  0.2072 -0.3519 -0.2394
 2047POSM   C4B24023  13.357  28.250  11.693  0.2671 -0.1840 -0.0962
 2048DOPS   CNO24024  20.658  33.026  14.029 -0.1684  0.3061 -0.2156
 2048DOPS   PO424025  20.371  32.784  13.967  0.2507  0.2318 -0.3941
 2048DOPS   GL124026  20.327  32.697  13.617  0.1124 -0.1094  0.3434
 2048DOPS   GL224027  20.168  32.486  13.634 -0.0875 -0.3259 -0.1832
 2048DOPS   C1A24028  20.475  33.017  13.342  0.1949  0.1303  0.2245
 2048DOPS   D2A24029  20.382  32.939  12.934  0.3362 -0.1676 -0.2312
 2048DOPS   C3A24030  20.247  33.402  12.814  0.2106  0.0881 -0.2567
 2048DOPS   C4A24031  20.116  33.762  12.608  0.3761 -0.2477  0.0410
 2048DOPS   C1B24032  19.813  32.354  13.303 -0.1325 -0.1925  0.2890
 2048DOPS   D2B24033  19.737  32.305  12.868 -0.1061  0.3588  0.0706
 2048DOPS   C3B24034  19.570  32.412  12.495 -0.0366 -0.3373 -0.1058
 2048DOPS   C4B24035  19.241  32.393  12.231 -0.0796  0.2578 -0.1306
 2049DOPC   NC324036  14.148  27.761  13.808  0.2151  0.1057 -0.2960
 2049DOPC   PO424037  14.455  27.910  13.669  0.0343 -0.1490  0.2732
 2049DOPC   GL124038  14.620  27.955  13.376 -0.0272  0.4041  0.1125
 2049DOPC   GL224039  14.776  28.232  13.450 -0.0377 -0.2292 -0.1907
 2049DOPC   C1A24040  14.874  27.914  13.018 -0.0220  0.0384 -0.1172
 2049DOPC   D2A24041  15.172  27.766  12.647  0.1382  0.0866  0.0017
 2049DOPC   C3A24042  15.189  28.133  12.354  0.0618  0.2386 -0.0080
 2049DOPC   C4A24043  15.374  28.358  11.982  0.2299  0.0630 -0.3048
 2049DOPC   C1B24044  15.139  28.311  13.205 -0.0125 -0.2253 -0.0163
 2049DOPC   D2B24045  15.095  28.350  12.766  0.2232 -0.0326 -0.2034
 2049DOPC   C3B24046  14.725  28.126  12.608 -0.2300  0.3684  0.1113
 2049DOPC   C4B24047  14.237  28.278  12.622  0.1745  0.1131  0.1039
 2050DOPE   NH324048  10.735  25.096  13.591  0.0277  0.0864  0.0972
 2050DOPE   PO424049  10.484  25.248  13.620  0.0136 -0.0099 -0.1431
 2050DOPE   GL124050  10.570  25.295  13.194 -0.0621 -0.1657 -0.3632
 2050DOPE   GL224051  10.533  25.552  13.016 -0.0059  0.0211  0.2647
 2050DOPE   C1A24052  10.464  25.046  12.752  0.0775  0.3306 -0.1063
 2050DOPE   D2A24053  10.169  24.885  12.363  0.0793  0.1297 -0.0530
 2050DOPE   C3A24054   9.952  24.459  12.309 -0.1011 -0.0119  0.0918
 2050DOPE   C4A24055   9.674  24.094  12.096  0.0996  0.1225  0.2094
 2050DOPE   C1B24056  10.621  25.757  12.603 -0.1854 -0.0884  0.1207
 2050DOPE   D2B24057  10.741  25.748  12.152  0.0732 -0.0062 -0.2096
 2050DOPE   C3B24058  10.898  25.433  11.835 -0.0110  0.2926 -0.0939
 2050DOPE   C4B24059  10.830  25.009  11.746 -0.2015 -0.1977 -0.0451
 2051POSM   NC324060  20.816  31.077  14.197  0.1167  0.2442  0.3498
 2051POSM   PO424061  20.931  30.718  14.180  0.4317  0.1204  0.0503
 2051POSM   AM124062  20.844  30.771  13.866 -0.2507  0.1037 -0.1373
 2051POSM   AM224063  20.927  30.930  13.624 -0.2322 -0.2931 -0.1271
 2051POSM   T1A24064  20.637  30.572  13.456 -0.0871 -0.0937  0.2086
 2051POSM   C2A24065  20.383  30.250  13.178  0.3058 -0.0616 -0.1785
 2051POSM   C3A24066  20.178  29.852  13.309  0.0765 -0.4667  0.1362
 2051POSM   C1B24067  20.889  30.990  13.262 -0.2678 -0.4180 -0.0578
 2051POSM   D2B24068  20.993  30.954  12.836  0.2482  0.1217  0.0023
 2051POSM   C3B24069  20.633  31.218  12.597 -0.1687  0.0657 -0.3182
 2051POSM   C4B24070  20.483  31.535  12.270  0.2330  0.0391 -0.4300
 2052DOPS   CNO24071  16.306  33.250  14.453 -0.2966  0.1687  0.2120
 2052DOPS   PO424072  16.386  33.424  14.112 -0.3115  0.0302 -0.1831
 2052DOPS   GL124073  16.424  33.821  14.032 -0.0408 -0.1912 -0.1240
 2052DOPS   GL224074  16.288  33.713  13.746  0.1085  0.0046 -0.1695
 2052DOPS   C1A24075  16.721  33.971  13.698 -0.3013 -0.1378 -0.1986
 2052DOPS   D2A24076  16.561  34.136  13.280  0.0128  0.0945 -0.0703
 2052DOPS   C3A24077  16.132  33.900  13.225 -0.1403  0.0743  0.0139
 2052DOPS   C4A24078  15.935  33.533  13.460 -0.0219  0.0425  0.1723
 2052DOPS   C1B24079  16.568  33.554  13.442  0.1848  0.1584  0.0826
 2052DOPS   D2B24080  16.914  33.718  13.226 -0.2446  0.0463 -0.2601
 2052DOPS   C3B24081  16.852  33.937  12.811  0.2539  0.1679 -0.2731
 2052DOPS   C4B24082  16.931  34.263  12.496 -0.0723  0.2460  0.2550
 2053DOPC   NC324083  22.132  22.295  14.621 -0.0326  0.0132 -0.0025
 2053DOPC   PO424084  21.758  22.468  14.570 -0.4515  0.0564 -0.0641
 2053DOPC   GL124085  21.903  22.768  14.387  0.3911  0.5212  0.0834
 2053DOPC   GL224086  22.094  22.987  14.439 -0.1515  0.1766 -0.0745
 2053DOPC   C1A24087  21.882  22.965  13.949  0.3306 -0.1462 -0.0748
 2053DOPC   D2A24088  21.986  23.078  13.479 -0.0631 -0.1212 -0.2087
 2053DOPC   C3A24089  21.893  22.782  13.140  0.1037 -0.0511  0.1283
 2053DOPC   C4A24090  21.874  22.807  12.677 -0.2216 -0.3168 -0.2639
 2053DOPC   C1B24091  22.115  23.378  14.191  0.2235  0.3052 -0.1567
 2053DOPC   D2B24092  21.884  23.677  13.937  0.1909  0.1532  0.1570
 2053DOPC   C3B24093  21.882  24.018  13.576 -0.3051  0.1922  0.0213
 2053DOPC   C4B24094  22.046  24.272  13.268  0.0939  0.2919  0.2172
 2054DOPE   NH324095  15.603  27.483  14.274 -0.3748  0.2959 -0.2656
 2054DOPE   PO424096  15.915  27.456  14.286 -0.1618  0.1507 -0.0313
 2054DOPE   GL124097  16.065  27.177  14.174  0.2871 -0.1844  0.0746
 2054DOPE   GL224098  15.988  27.005  13.958 -0.1838 -0.0461 -0.2861
 2054DOPE   C1A24099  16.453  26.900  14.081 -0.4203 -0.1001  0.0865
 2054DOPE   D2A24100  16.628  26.450  13.916 -0.0715  0.0497 -0.1409
 2054DOPE   C3A24101  16.361  26.227  13.583  0.0821  0.0900 -0.0807
 2054DOPE   C4A24102  15.985  26.225  13.335  0.0893 -0.0643 -0.2285
 2054DOPE   C1B24103  15.895  27.062  13.466 -0.1575  0.1835 -0.0257
 2054DOPE   D2B24104  15.819  27.081  12.960  0.2462  0.0480 -0.2060
 2054DOPE   C3B24105  15.384  26.932  12.751  0.2348  0.1153 -0.2415
 2054DOPE   C4B24106  15.173  26.506  12.841  0.0379 -0.2289  0.2096
 2055DOPE   NH324107  15.126  29.059  14.118 -0.1161  0.0243  0.0958
 2055DOPE   PO424108  15.332  28.800  14.010 -0.3705 -0.1553 -0.0118
 2055DOPE   GL124109  15.282  28.916  13.602  0.2200 -0.1012  0.0689
 2055DOPE   GL224110  15.603  28.946  13.563 -0.1377 -0.1687  0.0791
 2055DOPE   C1A24111  15.270  28.842  13.134  0.1965  0.3918  0.2023
 2055DOPE   D2A24112  15.121  28.920  12.748 -0.0531 -0.1466  0.1203
 2055DOPE   C3A24113  15.358  29.075  12.362 -0.0090 -0.2580 -0.1035
 2055DOPE   C4A24114  15.791  29.335  12.330 -0.0334 -0.0949 -0.4465
 2055DOPE   C1B24115  15.673  28.548  13.364  0.1294 -0.1264  0.1143
 2055DOPE   D2B24116  15.532  28.516  12.953  0.1686 -0.2214  0.1375
 2055DOPE   C3B24117  15.777  28.456  12.559 -0.3065 -0.1310  0.1548
 2055DOPE   C4B24118  16.185  28.293  12.336 -0.1684  0.4185 -0.1660
 2056DOPC   NC324119  19.576   0.489  13.837  0.1243 -0.0076  0.3729
 2056DOPC   PO424120  19.246   0.505  14.046  0.2228  0.3389 -0.1020
 2056DOPC   GL124121  19.149   0.264  13.703 -0.5394  0.0758 -0.0886
 2056DOPC   GL224122  19.100   0.544  13.576 -0.0027 -0.0375 -0.2654
 2056DOPC   C1A24123  19.475   0.200  13.423  0.0769  0.0294 -0.1687
 2056DOPC   D2A24124  19.436  -0.004  13.079  0.0139  0.2110 -0.0184
 2056DOPC   C3A24125  19.430   0.174  12.686  0.1526  0.1467  0.1107
 2056DOPC   C4A24126  19.267   0.501  12.376 -0.0695 -0.1265  0.1011
 2056DOPC   C1B24127  18.913   0.921  13.379 -0.1353 -0.0377 -0.0234
 2056DOPC   D2B24128  18.632   1.038  13.066  0.1010 -0.0466 -0.1938
 2056DOPC   C3B24129  18.245   0.806  13.048  0.3277  0.2543 -0.0737
 2056DOPC   C4B24130  17.861   0.687  12.811  0.2094 -0.0516  0.1228
 2057POSM   NC324131  21.146  28.439  14.469 -0.1181  0.2797 -0.3970
 2057POSM   PO424132  21.493  28.463  14.277  0.0285 -0.2744 -0.0968
 2057POSM   AM124133  21.494  28.562  13.977  0.0313 -0.2364  0.1324
 2057POSM   AM224134  21.632  28.503  13.751  0.3482 -0.3229 -0.0474
 2057POSM   T1A24135  21.130  28.546  13.639 -0.0390  0.1365  0.1103
 2057POSM   C2A24136  21.046  28.883  13.340  0.0168  0.1855  0.0340
 2057POSM   C3A24137  21.103  29.234  13.013  0.2574  0.0411  0.0131
 2057POSM   C1B24138  21.618  28.423  13.412  0.0790 -0.2004  0.0037
 2057POSM   D2B24139  21.483  28.370  13.021  0.2098  0.1136 -0.0917
 2057POSM   C3B24140  21.632  28.445  12.600  0.2337 -0.0163  0.0139
 2057POSM   C4B24141  21.629  28.338  12.165  0.0663 -0.0836 -0.1216
 2058DOPE   NH324142   8.583  31.296  13.597  0.4035  0.1413  0.0603
 2058DOPE   PO424143   8.903  31.338  13.596 -0.1335 -0.2579 -0.2338
 2058DOPE   GL124144   9.103  31.471  13.344 -0.2166  0.1507 -0.0764
 2058DOPE   GL224145   9.104  31.391  13.075  0.0024  0.0326 -0.0049
 2058DOPE   C1A24146   9.264  31.828  13.124  0.2276 -0.2757 -0.2380
 2058DOPE   D2A24147   9.383  32.069  12.745 -0.6511  0.2417 -0.1926
 2058DOPE   C3A24148   9.706  32.457  12.661 -0.0912  0.2641  0.2641
 2058DOPE   C4A24149  10.005  32.750  12.611 -0.1085 -0.0389 -0.1505
 2058DOPE   C1B24150   8.871  31.703  12.817 -0.1950 -0.3041  0.1901
 2058DOPE   D2B24151   9.056  31.857  12.382  0.3214  0.1581  0.0858
 2058DOPE   C3B24152   9.258  32.252  12.181 -0.2970 -0.0932  0.1779
 2058DOPE   C4B24153   9.573  32.431  11.905  0.0966  0.0746  0.0176
 2059DOPS   CNO24154  17.325  25.881  14.564 -0.1981 -0.3191 -0.3997
 2059DOPS   PO424155  17.209  25.534  14.469  0.0750 -0.1107  0.0391
 2059DOPS   GL124156  17.197  25.575  14.076 -0.0233 -0.0873 -0.0293
 2059DOPS   GL224157  17.336  25.324  14.018  0.2111 -0.0850  0.0977
 2059DOPS   C1A24158  16.883  25.462  13.768 -0.1810 -0.2892 -0.1735
 2059DOPS   D2A24159  16.698  25.184  13.471 -0.0768  0.3223  0.1158
 2059DOPS   C3A24160  16.893  24.872  13.207 -0.1207 -0.0160 -0.1921
 2059DOPS   C4A24161  16.876  24.380  13.137  0.0105  0.2310  0.0441
 2059DOPS   C1B24162  17.508  25.516  13.643 -0.1276  0.2343 -0.2285
 2059DOPS   D2B24163  17.603  25.563  13.156  0.2265  0.1272  0.0475
 2059DOPS   C3B24164  17.359  25.267  12.913  0.0752 -0.0733 -0.0067
 2059DOPS   C4B24165  16.944  25.171  12.772 -0.1537 -0.1618 -0.0319
 2060POSM   NC324166  21.591  31.561  14.600  0.3581  0.2764 -0.1282
 2060POSM   PO424167  21.557  31.565  14.198  0.1078 -0.2488  0.0338
 2060POSM   AM124168  21.308  31.497  13.978 -0.0207  0.4321 -0.2922
 2060POSM   AM224169  21.053  31.631  13.890 -0.2646 -0.0938  0.1718
 2060POSM   T1A24170  21.167  31.332  13.514  0.2661 -0.1125  0.2462
 2060POSM   C2A24171  21.025  31.464  13.149 -0.4539 -0.1701 -0.0714
 2060POSM   C3A24172  21.156  31.381  12.679  0.0689 -0.0268 -0.0865
 2060POSM   C1B24173  20.985  31.826  13.619  0.2810  0.1833  0.1957
 2060POSM   D2B24174  20.740  31.948  13.214 -0.0863 -0.2576  0.1839
 2060POSM   C3B24175  20.991  32.166  12.948  0.2424 -0.3671 -0.1291
 2060POSM   C4B24176  21.101  32.374  12.550  0.1742  0.2189 -0.1040
 2061POSM   NC324177  17.710  28.064  14.533 -0.0434  0.1780  0.2652
 2061POSM   PO424178  17.924  27.904  14.279 -0.2694 -0.2083  0.2780
 2061POSM   AM124179  17.829  27.717  14.037 -0.2269 -0.1382 -0.0850
 2061POSM   AM224180  17.933  27.495  13.879 -0.0236 -0.3778  0.0221
 2061POSM   T1A24181  17.898  27.869  13.546  0.1252 -0.2399 -0.3024
 2061POSM   C2A24182  18.118  28.044  13.161 -0.0726  0.1647 -0.0391
 2061POSM   C3A24183  18.198  28.316  12.745  0.2045  0.1686  0.0278
 2061POSM   C1B24184  17.776  27.374  13.614  0.0828  0.2391  0.1347
 2061POSM   D2B24185  17.760  26.934  13.370 -0.0299  0.0051  0.1777
 2061POSM   C3B24186  18.076  26.557  13.451 -0.0116  0.0423  0.1268
 2061POSM   C4B24187  18.416  26.540  13.766 -0.2182 -0.2461 -0.0060
 2062DOPC   NC324188  15.441  23.079  14.777 -0.1093 -0.1492  0.0130
 2062DOPC   PO424189  15.412  22.845  14.440 -0.0941  0.2144  0.1441
 2062DOPC   GL124190  15.553  22.656  14.047  0.2271 -0.2465  0.0285
 2062DOPC   GL224191  15.432  22.721  13.816 -0.0273 -0.0980 -0.2078
 2062DOPC   C1A24192  15.854  22.437  13.732  0.4581  0.0182 -0.5102
 2062DOPC   D2A24193  15.894  22.519  13.336 -0.1263  0.0449 -0.1601
 2062DOPC   C3A24194  16.108  22.278  12.957 -0.1481  0.0111 -0.0224
 2062DOPC   C4A24195  16.174  22.359  12.531 -0.0985  0.1450 -0.1328
 2062DOPC   C1B24196  15.409  22.469  13.392 -0.0173 -0.0547 -0.1269
 2062DOPC   D2B24197  15.396  22.530  12.901 -0.0629  0.1940 -0.0560
 2062DOPC   C3B24198  15.693  22.325  12.635 -0.0420  0.1250 -0.1218
 2062DOPC   C4B24199  15.725  22.043  12.242 -0.1082 -0.0088 -0.0567
 2063DOPS   CNO24200  20.470  26.699  14.515 -0.1818  0.1124  0.3299
 2063DOPS   PO424201  20.755  26.926  14.536 -0.1394 -0.1359 -0.0272
 2063DOPS   GL124202  20.746  27.186  14.248  0.1212  0.3665  0.0227
 2063DOPS   GL224203  20.591  27.477  14.389 -0.1537 -0.2359  0.3128
 2063DOPS   C1A24204  20.790  27.406  13.883  0.0867  0.1830  0.0409
 2063DOPS   D2A24205  21.007  27.631  13.503  0.0160  0.0849  0.0791
 2063DOPS   C3A24206  20.715  27.538  13.179 -0.0701  0.2284  0.1272
 2063DOPS   C4A24207  20.414  27.616  12.792  0.0443 -0.0202 -0.0378
 2063DOPS   C1B24208  20.377  27.683  14.062 -0.3658  0.3407  0.2331
 2063DOPS   D2B24209  20.531  27.765  13.617  0.2637 -0.3870 -0.3798
 2063DOPS   C3B24210  20.257  27.686  13.254  0.2094  0.0545 -0.0684
 2063DOPS   C4B24211  19.948  27.442  12.974 -0.1561  0.1484 -0.0879
 2064DOPE   NH324212  20.030  33.728  14.024  0.1037 -0.3159  0.0344
 2064DOPE   PO424213  19.805  33.514  14.064 -0.1568 -0.1581 -0.0847
 2064DOPE   GL124214  19.654  33.767  13.781 -0.0603 -0.1880  0.3564
 2064DOPE   GL224215  19.843  33.847  13.536  0.1915  0.1546 -0.0717
 2064DOPE   C1A24216  19.395  34.005  13.447 -0.0508 -0.1773  0.0831
 2064DOPE   D2A24217  19.282  33.845  13.050 -0.0133  0.0159  0.0085
 2064DOPE   C3A24218  19.026  33.460  12.992 -0.2686 -0.2660  0.0188
 2064DOPE   C4A24219  18.833  33.461  12.585  0.0361  0.3808  0.0707
 2064DOPE   C1B24220  19.880  33.732  13.052  0.4074  0.1356  0.1482
 2064DOPE   D2B24221  19.770  33.404  12.688  0.0111 -0.1352  0.0887
 2064DOPE   C3B24222  20.067  33.401  12.289 -0.1357 -0.0139 -0.1822
 2064DOPE   C4B24223  20.471  33.475  12.155  0.2830  0.0388 -0.1665
 2065POSM   NC324224  21.979  30.028  13.818  0.0628  0.0563 -0.2170
 2065POSM   PO424225  22.409  30.061  13.723  0.1675 -0.2158  0.0577
 2065POSM   AM124226  22.478  30.267  13.493  0.1560  0.3475  0.0498
 2065POSM   AM224227  22.618  30.550  13.498  0.1346 -0.1848  0.1859
 2065POSM   T1A24228  22.556  30.363  12.995  0.0369 -0.0367 -0.0275
 2065POSM   C2A24229  22.661  30.623  12.613 -0.0991  0.0686 -0.0669
 2065POSM   C3A24230  23.055  30.794  12.444  0.0006 -0.0886 -0.1297
 2065POSM   C1B24231  22.885  30.635  13.298 -0.5701 -0.3828 -0.2757
 2065POSM   D2B24232  23.137  30.814  12.947  0.1042 -0.0558  0.1178
 2065POSM   C3B24233  23.297  31.242  12.916 -0.4551 -0.2931 -0.0391
 2065POSM   C4B24234  23.445  31.698  12.823  0.3846 -0.2118  0.2859
 2066POSM   NC324235  22.519  24.440  15.156  0.0937  0.0133 -0.1326
 2066POSM   PO424236  22.770  24.747  14.975 -0.0156  0.0621 -0.0600
 2066POSM   AM124237  22.705  24.646  14.683  0.2749  0.0884  0.1505
 2066POSM   AM224238  22.655  24.468  14.511 -0.5021 -0.0125 -0.1726
 2066POSM   T1A24239  23.003  24.750  14.292 -0.0948 -0.0773 -0.0411
 2066POSM   C2A24240  23.467  24.775  14.096 -0.1642 -0.2069 -0.2465
 2066POSM   C3A24241  23.858  24.942  13.872 -0.0475  0.0223 -0.2590
 2066POSM   C1B24242  22.352  24.352  14.326  0.2161 -0.0926  0.1887
 2066POSM   D2B24243  22.175  24.117  13.936 -0.3733  0.0128 -0.2724
 2066POSM   C3B24244  22.442  24.021  13.599  0.0401  0.1242 -0.0402
 2066POSM   C4B24245  22.513  24.113  13.168 -0.1693  0.0833  0.1373
 2067DOPC   NC324246  11.089  30.971  13.522  0.2375  0.3559  0.2145
 2067DOPC   PO424247  10.867  30.659  13.544  0.0935 -0.3303 -0.2671
 2067DOPC   GL124248  10.890  30.719  13.194 -0.1099  0.0224 -0.2184
 2067DOPC   GL224249  10.690  30.684  13.008  0.0321  0.0637  0.0274
 2067DOPC   C1A24250  11.312  30.906  13.016  0.3154  0.1936  0.0938
 2067DOPC   D2A24251  11.627  30.895  12.704  0.0944 -0.0254 -0.0325
 2067DOPC   C3A24252  11.899  31.219  12.557 -0.2820 -0.0644  0.1226
 2067DOPC   C4A24253  12.210  31.560  12.400  0.3520 -0.0478  0.1705
 2067DOPC   C1B24254  10.847  30.756  12.596 -0.0478  0.1053  0.0267
 2067DOPC   D2B24255  11.191  30.868  12.297  0.0778  0.0631 -0.2051
 2067DOPC   C3B24256  11.236  30.446  12.011 -0.0777 -0.0041  0.2397
 2067DOPC   C4B24257  11.422  30.169  11.609  0.1031  0.0357 -0.0816
 2068DOPC   NC324258  11.896  24.179  13.639  0.0204 -0.1000  0.1960
 2068DOPC   PO424259  11.835  24.587  13.625 -0.0045  0.1716  0.0633
 2068DOPC   GL124260  11.820  24.462  13.222 -0.1061  0.3799  0.0754
 2068DOPC   GL224261  11.561  24.511  13.105  0.1246 -0.1311 -0.2465
 2068DOPC   C1A24262  11.867  24.456  12.739 -0.0731 -0.0281 -0.0933
 2068DOPC   D2A24263  11.995  24.555  12.315 -0.0217  0.0751 -0.0060
 2068DOPC   C3A24264  12.108  24.734  11.935 -0.0116  0.0290  0.0278
 2068DOPC   C4A24265  12.437  24.987  11.706 -0.0462  0.0580 -0.0314
 2068DOPC   C1B24266  11.288  24.404  12.678 -0.0366  0.3099 -0.1503
 2068DOPC   D2B24267  11.519  24.550  12.266  0.0583  0.0955 -0.0584
 2068DOPC   C3B24268  11.749  24.344  11.937 -0.0068  0.1647 -0.0871
 2068DOPC   C4B24269  11.950  24.517  11.559 -0.0482 -0.1775 -0.1206
 2069POSM   NC324270  15.733  24.258  14.656  0.2154  0.2564  0.2968
 2069POSM   PO424271  16.101  24.262  14.685  0.0592 -0.0594  0.0017
 2069POSM   AM124272  16.048  24.400  14.369 -0.0326  0.1451 -0.2468
 2069POSM   AM224273  15.838  24.467  14.186 -0.1767  0.1163  0.0041
 2069POSM   T1A24274  16.176  24.497  13.871 -0.1501  0.1962 -0.3995
 2069POSM   C2A24275  16.121  24.958  13.759 -0.0457  0.0605  0.0976
 2069POSM   C3A24276  15.817  25.302  13.708 -0.3234 -0.1374  0.0470
 2069POSM   C1B24277  15.727  24.144  14.061  0.3564  0.1555  0.0738
 2069POSM   D2B24278  15.708  23.755  13.751 -0.3208  0.1719 -0.2002
 2069POSM   C3B24279  15.500  23.792  13.354  0.0166  0.0646  0.0735
 2069POSM   C4B24280  15.314  23.616  12.984  0.1424 -0.3789 -0.1740
 2070POSM   NC324281  25.156  31.362  13.660 -0.0264  0.0819 -0.2104
 2070POSM   PO424282  25.436  31.290  13.872 -0.0502 -0.2534  0.1375
 2070POSM   AM124283  25.619  31.386  13.637  0.0465  0.2369  0.1660
 2070POSM   AM224284  25.645  31.638  13.447  0.0314  0.1486 -0.2726
 2070POSM   T1A24285  25.965  31.359  13.275  0.1044 -0.1016  0.0508
 2070POSM   C2A24286  26.146  31.628  12.908 -0.0093 -0.1022  0.0307
 2070POSM   C3A24287  26.166  31.452  12.497 -0.1455  0.2191  0.0250
 2070POSM   C1B24288  25.661  31.882  13.167  0.0175 -0.0030  0.0147
 2070POSM   D2B24289  25.678  31.990  12.726  0.3864 -0.1126 -0.1320
 2070POSM   C3B24290  25.688  32.402  12.544 -0.1065  0.1217 -0.0348
 2070POSM   C4B24291  25.815  32.629  12.148  0.1735  0.0220 -0.1079
 2071DOPE   NH324292  22.596  32.318  14.454 -0.0253  0.2683 -0.0444
 2071DOPE   PO424293  22.623  32.608  14.296 -0.0563 -0.2101  0.3353
 2071DOPE   GL124294  22.549  32.652  13.927 -0.0169 -0.0345  0.3823
 2071DOPE   GL224295  22.463  32.918  13.914 -0.1190  0.1011 -0.0509
 2071DOPE   C1A24296  22.811  32.747  13.583  0.3210  0.3270 -0.1881
 2071DOPE   D2A24297  23.013  32.984  13.256  0.0019 -0.3620 -0.1553
 2071DOPE   C3A24298  22.848  32.995  12.834 -0.1186 -0.1669  0.1607
 2071DOPE   C4A24299  22.695  32.657  12.575  0.2156 -0.0395 -0.2136
 2071DOPE   C1B24300  22.580  33.211  13.666  0.0132 -0.2032 -0.0761
 2071DOPE   D2B24301  22.528  33.577  13.322  0.0058 -0.4103 -0.2312
 2071DOPE   C3B24302  22.190  33.621  12.998 -0.0723 -0.1651  0.1698
 2071DOPE   C4B24303  21.883  33.280  12.987  0.0643  0.0406 -0.1565
 2072DOPC   NC324304  17.369  32.347  14.097  0.0412 -0.2778  0.1407
 2072DOPC   PO424305  17.532  32.005  14.263 -0.3452  0.0070  0.1634
 2072DOPC   GL124306  17.540  31.952  13.889 -0.5037 -0.3065 -0.0491
 2072DOPC   GL224307  17.284  31.895  13.813  0.3707 -0.0114  0.2393
 2072DOPC   C1A24308  17.609  31.661  13.512 -0.2221  0.0514  0.3207
 2072DOPC   D2A24309  17.821  31.591  13.094 -0.1810 -0.0526 -0.2826
 2072DOPC   C3A24310  17.847  31.147  12.962 -0.1987  0.1409 -0.0842
 2072DOPC   C4A24311  17.992  30.768  12.730  0.0423  0.3042 -0.1220
 2072DOPC   C1B24312  17.163  31.820  13.385 -0.1007  0.0345  0.1840
 2072DOPC   D2B24313  17.220  31.784  12.956  0.3747 -0.0249  0.2114
 2072DOPC   C3B24314  17.012  31.780  12.511  0.1108 -0.0319 -0.0103
 2072DOPC   C4B24315  17.062  32.023  12.131 -0.2105  0.0664 -0.0859
 2073DOPE   NH324316  20.016  30.197  14.487  0.1341 -0.1361  0.0528
 2073DOPE   PO424317  20.246  30.306  14.269 -0.1574 -0.3161  0.0401
 2073DOPE   GL124318  20.174  30.180  13.933  0.1645  0.0686 -0.0193
 2073DOPE   GL224319  20.318  29.902  13.779  0.3673  0.0079 -0.0125
 2073DOPE   C1A24320  20.152  30.542  13.603 -0.2383 -0.0343  0.1253
 2073DOPE   D2A24321  20.002  30.665  13.190 -0.0599 -0.2212  0.4040
 2073DOPE   C3A24322  19.739  30.489  12.902  0.0046 -0.2008  0.4296
 2073DOPE   C4A24323  19.514  30.157  12.656 -0.0487  0.2245 -0.0098
 2073DOPE   C1B24324  20.696  30.122  13.573 -0.0334 -0.2142  0.1831
 2073DOPE   D2B24325  20.944  30.182  13.200  0.1569  0.0231  0.0812
 2073DOPE   C3B24326  20.770  30.397  12.862  0.0847  0.0632  0.2384
 2073DOPE   C4B24327  20.538  30.716  12.565 -0.2011 -0.0627 -0.1268
 2074DOPE   NH324328  24.167  25.523  14.715  0.3267  0.2119  0.1023
 2074DOPE   PO424329  23.923  25.331  14.789  0.1261 -0.0808  0.1163
 2074DOPE   GL124330  23.658  25.229  14.579 -0.2481 -0.2493 -0.0419
 2074DOPE   GL224331  23.663  25.515  14.422 -0.0516  0.2446  0.2106
 2074DOPE   C1A24332  23.310  25.157  14.314 -0.1532 -0.1401 -0.2597
 2074DOPE   D2A24333  22.876  25.367  14.360  0.0830 -0.2350 -0.1660
 2074DOPE   C3A24334  22.464  25.415  14.284 -0.2244 -0.1842 -0.1543
 2074DOPE   C4A24335  22.132  25.343  14.014  0.4311  0.2879  0.2572
 2074DOPE   C1B24336  23.325  25.795  14.568 -0.1126 -0.1161  0.2080
 2074DOPE   D2B24337  22.866  25.844  14.405  0.0518  0.1633 -0.0517
 2074DOPE   C3B24338  22.806  25.772  13.977 -0.0080  0.0155 -0.1327
 2074DOPE   C4B24339  22.425  25.850  13.687  0.3615 -0.1020 -0.0059
 2075DOPE   NH324340  19.719  25.439  14.824 -0.0953  0.0009  0.0364
 2075DOPE   PO424341  19.651  25.256  14.594  0.0160 -0.2337 -0.2247
 2075DOPE   GL124342  19.689  25.251  14.274 -0.2814  0.1467 -0.1827
 2075DOPE   GL224343  19.600  25.121  13.983 -0.0382 -0.4318  0.3182
 2075DOPE   C1A24344  19.908  25.513  13.929  0.1223 -0.2149  0.2292
 2075DOPE   D2A24345  19.934  25.560  13.439 -0.0765 -0.3044 -0.2510
 2075DOPE   C3A24346  20.240  25.436  13.071 -0.0197  0.3301 -0.2912
 2075DOPE   C4A24347  20.425  25.235  12.701  0.1731  0.1021  0.1841
 2075DOPE   C1B24348  19.686  24.674  13.878  0.3610  0.3241  0.2166
 2075DOPE   D2B24349  19.725  24.592  13.458 -0.2176 -0.3057  0.0150
 2075DOPE   C3B24350  20.049  24.584  13.145  0.4730  0.1934 -0.0897
 2075DOPE   C4B24351  20.143  24.794  12.760  0.0965 -0.0133 -0.0225
 2076DOPS   CNO24352  13.460  28.931  13.590  0.0691 -0.0233  0.0279
 2076DOPS   PO424353  13.453  29.277  13.665  0.2338 -0.0278 -0.0936
 2076DOPS   GL124354  13.474  29.459  13.365  0.3103  0.1288  0.4304
 2076DOPS   GL224355  13.358  29.758  13.307  0.0350 -0.0220  0.0246
 2076DOPS   C1A24356  13.422  29.440  12.883  0.3002 -0.0335  0.2495
 2076DOPS   D2A24357  13.458  29.206  12.471  0.2779 -0.0228 -0.0077
 2076DOPS   C3A24358  13.514  28.767  12.564 -0.1211 -0.1731 -0.0632
 2076DOPS   C4A24359  13.685  28.350  12.658 -0.0977  0.3007  0.0454
 2076DOPS   C1B24360  13.770  29.764  13.029  0.0201  0.3078 -0.0845
 2076DOPS   D2B24361  14.194  29.691  13.250  0.0608  0.0517  0.3507
 2076DOPS   C3B24362  14.506  29.420  13.039  0.1227 -0.3832 -0.2183
 2076DOPS   C4B24363  14.882  29.390  12.807  0.0036 -0.0011  0.1126
 2077DOPE   NH324364  20.157  29.751  14.273  0.1065  0.1484  0.2409
 2077DOPE   PO424365  20.400  29.528  14.216  0.2912 -0.2058  0.2289
 2077DOPE   GL124366  20.447  29.399  13.842  0.1737 -0.2807 -0.0418
 2077DOPE   GL224367  20.662  29.475  13.759  0.2830 -0.1006  0.2050
 2077DOPE   C1A24368  20.177  29.399  13.506  0.3308  0.2013 -0.0088
 2077DOPE   D2A24369  19.747  29.300  13.414  0.0467 -0.3082  0.1992
 2077DOPE   C3A24370  19.535  29.301  12.997 -0.0774  0.4649  0.2072
 2077DOPE   C4A24371  19.383  29.585  12.715 -0.1620 -0.2397  0.0748
 2077DOPE   C1B24372  20.641  29.631  13.302 -0.2899  0.0649  0.2118
 2077DOPE   D2B24373  20.483  29.372  12.955 -0.3151 -0.3637  0.0290
 2077DOPE   C3B24374  20.690  29.453  12.491  0.0036  0.0770  0.1438
 2077DOPE   C4B24375  20.751  29.801  12.200 -0.0198  0.0883 -0.1424
 2078DOPE   NH324376  13.045  27.923  13.492 -0.2367 -0.0106 -0.3153
 2078DOPE   PO424377  13.378  27.880  13.497  0.1550 -0.1204 -0.1714
 2078DOPE   GL124378  13.267  28.024  13.103 -0.1944  0.0002  0.0040
 2078DOPE   GL224379  13.148  28.288  13.054  0.1165 -0.0791 -0.2935
 2078DOPE   C1A24380  13.403  27.926  12.647 -0.0400 -0.0239 -0.1864
 2078DOPE   D2A24381  13.914  27.903  12.616 -0.2356  0.0762 -0.1879
 2078DOPE   C3A24382  14.272  27.860  12.377  0.2973  0.1455  0.0618
 2078DOPE   C4A24383  14.669  27.830  12.191  0.1236 -0.2836  0.2129
 2078DOPE   C1B24384  13.454  28.584  13.031  0.1823 -0.0430 -0.0441
 2078DOPE   D2B24385  13.662  29.043  13.031 -0.0366  0.2371  0.1879
 2078DOPE   C3B24386  13.979  29.285  12.810  0.0926  0.0378 -0.2249
 2078DOPE   C4B24387  14.138  29.656  12.589  0.0033  0.1785  0.0911
 2079POSM   NC324388  14.334  24.011  14.346 -0.0672 -0.2645 -0.1658
 2079POSM   PO424389  14.670  24.192  14.356 -0.1308  0.2364 -0.3068
 2079POSM   AM124390  14.635  24.138  14.010 -0.1232  0.1032 -0.0084
 2079POSM   AM224391  14.612  24.326  13.801  0.1899 -0.1787 -0.0431
 2079POSM   T1A24392  14.423  24.021  13.502 -0.2882 -0.0711  0.1129
 2079POSM   C2A24393  14.471  23.907  13.005 -0.2026 -0.1552 -0.3996
 2079POSM   C3A24394  14.204  23.712  12.754  0.4284 -0.1365 -0.0678
 2079POSM   C1B24395  14.854  24.465  13.608  0.0004 -0.2972 -0.2336
 2079POSM   D2B24396  15.117  24.532  13.201 -0.0505  0.2419 -0.0369
 2079POSM   C3B24397  15.330  24.566  12.763 -0.0403  0.0495 -0.0674
 2079POSM   C4B24398  15.340  24.555  12.307  0.4404 -0.0680  0.1298
 2080POSM   NC324399  19.782  26.166  14.755  0.0508  0.0499 -0.2482
 2080POSM   PO424400  19.689  26.487  14.542 -0.0826  0.1286 -0.0145
 2080POSM   AM124401  19.556  26.352  14.248 -0.1703  0.3312 -0.4907
 2080POSM   AM224402  19.354  26.147  14.171 -0.0504  0.3371 -0.3785
 2080POSM   T1A24403  19.837  26.053  13.961  0.0922 -0.0521  0.2380
 2080POSM   C2A24404  19.898  26.090  13.479 -0.0482 -0.3887  0.3076
 2080POSM   C3A24405  20.023  25.901  13.050 -0.3812 -0.0202 -0.0634
 2080POSM   C1B24406  19.212  26.105  13.835 -0.1429 -0.3152  0.0394
 2080POSM   D2B24407  19.008  26.089  13.486  0.3487  0.0027  0.2171
 2080POSM   C3B24408  18.888  25.728  13.279  0.0171 -0.1760 -0.1850
 2080POSM   C4B24409  19.110  25.587  12.948 -0.1949 -0.1347 -0.1081
 2081DOPC   NC324410  18.705  28.417  14.396  0.4238  0.1636  0.0789
 2081DOPC   PO424411  18.609  28.095  14.190 -0.1796 -0.0764  0.3430
 2081DOPC   GL124412  18.591  28.065  13.827 -0.0751 -0.3793 -0.0693
 2081DOPC   GL224413  18.304  28.020  13.772  0.1089 -0.2668  0.1019
 2081DOPC   C1A24414  18.948  28.208  13.529  0.0295 -0.2846  0.2631
 2081DOPC   D2A24415  18.895  28.163  13.002 -0.3222 -0.1508 -0.2246
 2081DOPC   C3A24416  18.668  28.393  12.665  0.2910 -0.4206 -0.1802
 2081DOPC   C4A24417  18.781  28.579  12.267  0.0495 -0.0061  0.0373
 2081DOPC   C1B24418  18.425  28.319  13.423 -0.3041  0.2984 -0.3596
 2081DOPC   D2B24419  18.401  28.608  13.069  0.1313 -0.0254  0.0605
 2081DOPC   C3B24420  18.386  28.815  12.727  0.2728 -0.1521  0.1214
 2081DOPC   C4B24421  18.592  29.037  12.412  0.0930  0.0107  0.0838
 2082DOPC   NC324422  17.699  30.410  14.313 -0.0046  0.1205 -0.1587
 2082DOPC   PO424423  17.953  30.183  14.402  0.1158  0.2572  0.0922
 2082DOPC   GL124424  18.090  30.419  14.126  0.0708  0.3538 -0.0243
 2082DOPC   GL224425  18.138  30.731  14.164 -0.1885  0.0322  0.1707
 2082DOPC   C1A24426  18.362  30.361  13.797  0.0367  0.1892  0.3266
 2082DOPC   D2A24427  18.500  30.401  13.345  0.0688 -0.0845  0.1255
 2082DOPC   C3A24428  18.267  30.400  12.983 -0.1048 -0.4091 -0.0539
 2082DOPC   C4A24429  18.054  30.141  12.650  0.0272  0.3011  0.1276
 2082DOPC   C1B24430  17.766  30.919  14.009  0.0568  0.3712 -0.0119
 2082DOPC   D2B24431  17.445  31.256  13.975 -0.2081  0.0513  0.1255
 2082DOPC   C3B24432  17.176  31.331  13.619 -0.1354  0.1181  0.1667
 2082DOPC   C4B24433  17.343  31.266  13.184 -0.0338  0.0564  0.0373
 2083POSM   NC324434  13.958   1.229  14.043  0.0066 -0.3544  0.5516
 2083POSM   PO424435  13.621   1.038  14.122  0.0713 -0.0105 -0.1282
 2083POSM   AM124436  13.696   0.936  13.790  0.5296 -0.0328 -0.5985
 2083POSM   AM224437  13.836   1.065  13.578  0.0858 -0.0390  0.1499
 2083POSM   T1A24438  13.859   0.577  13.416  0.1191 -0.4759 -0.2106
 2083POSM   C2A24439  14.312   0.399  13.364 -0.1024 -0.0596 -0.2803
 2083POSM   C3A24440  14.522   0.053  13.094  0.2028  0.1443 -0.0185
 2083POSM   C1B24441  14.024   1.063  13.303 -0.0299 -0.2614 -0.0186
 2083POSM   D2B24442  14.234   1.237  12.935  0.2267 -0.3970  0.0576
 2083POSM   C3B24443  13.891   1.184  12.613 -0.2135  0.0418  0.2169
 2083POSM   C4B24444  13.675   1.444  12.291 -0.1599 -0.1003  0.1733
 2084DOPC   NC324445  19.574  24.741  15.244 -0.0075  0.0241  0.2483
 2084DOPC   PO424446  19.838  24.970  14.994 -0.2240  0.2596 -0.1283
 2084DOPC   GL124447  19.758  24.786  14.680 -0.0711  0.0340  0.0656
 2084DOPC   GL224448  19.619  24.499  14.574  0.2118 -0.3727  0.2814
 2084DOPC   C1A24449  19.990  24.659  14.306  0.2202 -0.2668 -0.0942
 2084DOPC   D2A24450  20.145  24.393  13.958 -0.1549 -0.2294 -0.2215
 2084DOPC   C3A24451  20.469  24.672  13.685 -0.0847  0.0501 -0.2130
 2084DOPC   C4A24452  20.875  24.747  13.431  0.0251 -0.0166 -0.1211
 2084DOPC   C1B24453  19.672  24.229  14.183 -0.0114  0.2060  0.2023
 2084DOPC   D2B24454  19.937  23.939  13.992  0.1858 -0.1092  0.0444
 2084DOPC   C3B24455  20.097  23.530  13.943  0.3369 -0.0264  0.0424
 2084DOPC   C4B24456  20.585  23.492  14.023  0.0255 -0.1868  0.1760
 2085POSM   NC324457  10.691  29.337  13.641 -0.0109 -0.1202 -0.3146
 2085POSM   PO424458  11.033  29.313  13.396 -0.1223 -0.2667  0.0206
 2085POSM   AM124459  11.124  29.285  13.099 -0.4060  0.0021 -0.3651
 2085POSM   AM224460  11.029  29.380  12.862 -0.0946 -0.0028 -0.0223
 2085POSM   T1A24461  11.373  29.080  12.745 -0.0268  0.1839  0.0167
 2085POSM   C2A24462  11.594  28.973  12.308 -0.2967 -0.1998 -0.0850
 2085POSM   C3A24463  11.692  28.606  12.050  0.0454 -0.0878  0.0613
 2085POSM   C1B24464  11.279  29.540  12.709  0.0605 -0.2243  0.1919
 2085POSM   D2B24465  11.621  29.717  12.514 -0.1546  0.0462  0.1050
 2085POSM   C3B24466  11.841  29.385  12.190 -0.1800  0.0236  0.1131
 2085POSM   C4B24467  12.076  29.106  11.913  0.3303  0.2560  0.3061
 2086DOPC   NC324468  17.541  29.785  14.555 -0.1661  0.1815  0.1010
 2086DOPC   PO424469  17.734  29.464  14.545 -0.0887  0.1367  0.0506
 2086DOPC   GL124470  17.746  29.635  14.073 -0.3010 -0.0580 -0.2396
 2086DOPC   GL224471  17.578  29.901  14.101  0.0995  0.5423  0.2498
 2086DOPC   C1A24472  17.506  29.378  13.758 -0.1832 -0.1713 -0.0799
 2086DOPC   D2A24473  17.175  29.300  13.446  0.1059  0.0213 -0.1240
 2086DOPC   C3A24474  17.062  29.402  13.024 -0.0260 -0.0523  0.0930
 2086DOPC   C4A24475  16.686  29.415  12.807  0.0125  0.2864  0.2449
 2086DOPC   C1B24476  17.588  29.973  13.655  0.2357 -0.1348 -0.1457
 2086DOPC   D2B24477  17.410  30.338  13.377 -0.0101 -0.1932  0.0631
 2086DOPC   C3B24478  17.242  30.170  12.955 -0.2076 -0.0593  0.1320
 2086DOPC   C4B24479  16.875  29.969  12.734  0.1485  0.0052 -0.1358
 2087POSM   NC324480  12.415  33.563  14.365 -0.0011 -0.0459 -0.1118
 2087POSM   PO424481  12.775  33.524  14.261 -0.0969  0.1646 -0.2043
 2087POSM   AM124482  12.965  33.586  13.994 -0.3935  0.1006  0.1029
 2087POSM   AM224483  13.038  33.474  13.742  0.1973  0.0938  0.2132
 2087POSM   T1A24484  13.126  33.941  13.777  0.0311  0.0706  0.0972
 2087POSM   C2A24485  13.135  34.143  13.419  0.0863  0.3755  0.0475
 2087POSM   C3A24486  13.043  34.239  12.990  0.2913 -0.0120 -0.2356
 2087POSM   C1B24487  12.883  33.278  13.591 -0.2728 -0.4362 -0.2205
 2087POSM   D2B24488  12.445  33.080  13.486 -0.0001  0.2136 -0.0011
 2087POSM   C3B24489  12.326  32.929  13.050  0.1872  0.2706  0.0601
 2087POSM   C4B24490  12.126  33.062  12.645  0.0201 -0.0425  0.1319
 2088DOPE   NH324491  15.277  30.547  14.289  0.0660  0.1794  0.0872
 2088DOPE   PO424492  15.349  30.853  14.326 -0.2377  0.0713 -0.0836
 2088DOPE   GL124493  15.255  31.142  14.011  0.4011  0.1808  0.1552
 2088DOPE   GL224494  15.183  30.878  13.852  0.2566 -0.0756  0.0220
 2088DOPE   C1A24495  15.218  31.208  13.526  0.1448 -0.2092 -0.2568
 2088DOPE   D2A24496  15.359  31.583  13.276  0.0754 -0.2171  0.0618
 2088DOPE   C3A24497  15.487  31.570  12.783  0.1720 -0.1607 -0.1112
 2088DOPE   C4A24498  15.711  31.622  12.429  0.0669 -0.0855 -0.1365
 2088DOPE   C1B24499  15.371  30.706  13.468 -0.1169 -0.0736  0.1188
 2088DOPE   D2B24500  15.575  30.632  13.034  0.0177  0.2453  0.0268
 2088DOPE   C3B24501  15.511  30.564  12.563 -0.0023 -0.0275  0.0917
 2088DOPE   C4B24502  15.217  30.421  12.296  0.1200 -0.1681  0.0717
 2089DOPC   NC324503  19.682  22.845  13.884 -0.1508  0.1833 -0.0193
 2089DOPC   PO424504  19.568  23.130  14.092 -0.1039  0.2055 -0.0267
 2089DOPC   GL124505  19.365  23.311  13.731 -0.0186 -0.0898  0.0892
 2089DOPC   GL224506  19.080  23.391  13.749 -0.0843  0.0634  0.0206
 2089DOPC   C1A24507  19.419  23.396  13.282 -0.1353 -0.2895 -0.0887
 2089DOPC   D2A24508  19.726  23.309  12.882 -0.1804  0.1817  0.0584
 2089DOPC   C3A24509  19.989  23.648  12.994  0.0582 -0.1765  0.4740
 2089DOPC   C4A24510  20.380  23.915  13.111  0.0838  0.1095  0.1356
 2089DOPC   C1B24511  19.110  23.779  13.542  0.1860  0.0637  0.1640
 2089DOPC   D2B24512  19.317  23.910  13.149  0.0388  0.2227  0.3534
 2089DOPC   C3B24513  19.251  24.381  13.168  0.2841 -0.0583  0.0299
 2089DOPC   C4B24514  19.486  24.776  13.084  0.0787  0.0070 -0.0919
 2090DOPC   NC324515  16.460  23.905  14.535 -0.1037  0.2866  0.4444
 2090DOPC   PO424516  16.507  24.136  14.253 -0.2358 -0.1091 -0.0119
 2090DOPC   GL124517  16.749  24.023  13.980  0.0856  0.3559 -0.2605
 2090DOPC   GL224518  16.996  24.194  13.997  0.0594 -0.0951 -0.2211
 2090DOPC   C1A24519  16.881  24.016  13.529  0.4805  0.0434  0.0410
 2090DOPC   D2A24520  17.160  23.774  13.205 -0.1194 -0.1546  0.0376
 2090DOPC   C3A24521  17.132  23.782  12.731  0.0952  0.1452  0.0147
 2090DOPC   C4A24522  16.979  23.814  12.310  0.3379 -0.2442 -0.1171
 2090DOPC   C1B24523  17.047  24.576  13.673  0.2479 -0.0229 -0.1111
 2090DOPC   D2B24524  17.335  24.704  13.337  0.0698 -0.0030  0.1785
 2090DOPC   C3B24525  17.299  24.737  12.871 -0.1986  0.1084  0.0722
 2090DOPC   C4B24526  17.415  24.973  12.514  0.0900 -0.1747  0.3336
 2091DOPC   NC324527  11.962  26.160  13.298  0.0919  0.0383  0.2172
 2091DOPC   PO424528  12.177  25.928  13.537 -0.0170  0.0601 -0.1960
 2091DOPC   GL124529  12.191  25.677  13.248  0.1061  0.3173  0.3025
 2091DOPC   GL224530  12.463  25.626  13.135 -0.1077 -0.0765  0.0080
 2091DOPC   C1A24531  12.136  25.239  12.977  0.0895  0.2019  0.1730
 2091DOPC   D2A24532  12.245  24.975  12.616  0.1506 -0.0485  0.1096
 2091DOPC   C3A24533  12.512  24.877  12.236 -0.2269  0.0960 -0.0200
 2091DOPC   C4A24534  12.801  24.576  11.958 -0.0762  0.1855 -0.1540
 2091DOPC   C1B24535  12.500  25.526  12.668  0.1613  0.3875 -0.1187
 2091DOPC   D2B24536  12.581  25.381  12.233 -0.0299  0.1189 -0.3362
 2091DOPC   C3B24537  12.863  25.684  12.111  0.0956 -0.0577 -0.0132
 2091DOPC   C4B24538  13.181  25.996  12.088  0.0221 -0.0548 -0.3318
 2092DOPC   NC324539  20.884  32.219  13.932  0.2012 -0.0260  0.0493
 2092DOPC   PO424540  20.854  31.950  14.240 -0.3450 -0.0141  0.0745
 2092DOPC   GL124541  20.624  31.635  14.066  0.1004 -0.4996 -0.3063
 2092DOPC   GL224542  20.476  31.856  13.886 -0.1328  0.2084  0.0035
 2092DOPC   C1A24543  20.717  31.336  13.762  0.2949  0.1862 -0.2515
 2092DOPC   D2A24544  20.575  31.441  13.308  0.1605 -0.0114  0.2579
 2092DOPC   C3A24545  20.331  31.535  12.974  0.0786  0.0557 -0.5252
 2092DOPC   C4A24546  20.030  31.698  12.657 -0.2026 -0.0387  0.1614
 2092DOPC   C1B24547  20.569  32.202  13.594 -0.1970 -0.1451 -0.0285
 2092DOPC   D2B24548  20.550  32.517  13.222  0.2449  0.0049 -0.0812
 2092DOPC   C3B24549  20.603  32.521  12.745  0.1757 -0.0718 -0.0411
 2092DOPC   C4B24550  20.436  32.440  12.347  0.0478 -0.0812 -0.2003
 2093DOPS   CNO24551  17.024  27.698  14.155 -0.1869 -0.5168  0.0331
 2093DOPS   PO424552  16.860  28.033  14.186  0.1419  0.3304 -0.3205
 2093DOPS   GL124553  16.668  27.817  13.857  0.2229 -0.0712 -0.3370
 2093DOPS   GL224554  16.925  27.844  13.674 -0.0734 -0.0881 -0.2614
 2093DOPS   C1A24555  16.601  27.544  13.460  0.2181  0.3276  0.2624
 2093DOPS   D2A24556  16.768  27.285  13.105  0.0482  0.0273 -0.0963
 2093DOPS   C3A24557  16.645  26.886  12.929 -0.2269  0.1222  0.1868
 2093DOPS   C4A24558  16.961  26.615  12.821  0.3119  0.0551  0.2010
 2093DOPS   C1B24559  17.042  27.738  13.230 -0.1255  0.1140  0.0147
 2093DOPS   D2B24560  17.006  27.621  12.803 -0.0629 -0.3670 -0.2357
 2093DOPS   C3B24561  16.961  27.220  12.626  0.1347 -0.0075  0.1152
 2093DOPS   C4B24562  16.626  27.061  12.346 -0.0057  0.2318 -0.2691
 2094DOPC   NC324563  19.594  28.521  14.192  0.3874 -0.2282  0.0177
 2094DOPC   PO424564  19.438  28.162  14.172  0.1453 -0.1864 -0.2767
 2094DOPC   GL124565  19.504  27.814  13.949  0.3322  0.0575 -0.1489
 2094DOPC   GL224566  19.269  27.894  13.786 -0.1649 -0.2733  0.1684
 2094DOPC   C1A24567  19.515  27.472  13.654 -0.0879 -0.0920  0.0118
 2094DOPC   D2A24568  19.830  27.269  13.452 -0.1935 -0.0535 -0.1186
 2094DOPC   C3A24569  19.905  26.950  13.126  0.1141  0.0344 -0.2576
 2094DOPC   C4A24570  20.089  26.824  12.698 -0.0529 -0.1492  0.1659
 2094DOPC   C1B24571  19.253  27.843  13.334 -0.1348 -0.2779 -0.0342
 2094DOPC   D2B24572  19.400  27.969  12.867  0.0853  0.4817 -0.0959
 2094DOPC   C3B24573  19.049  27.937  12.592 -0.1880  0.0956 -0.0809
 2094DOPC   C4B24574  18.642  27.956  12.364 -0.1667 -0.4931  0.2409
 2095DOPS   CNO24575  19.668  29.290  14.797 -0.2405  0.1538 -0.0783
 2095DOPS   PO424576  19.970  29.381  14.550  0.0497  0.1300  0.1954
 2095DOPS   GL124577  19.978  29.253  14.109  0.0490 -0.1621  0.0807
 2095DOPS   GL224578  19.901  29.467  13.903 -0.1835  0.1478 -0.0260
 2095DOPS   C1A24579  19.801  28.948  13.843 -0.1380  0.1951  0.1276
 2095DOPS   D2A24580  19.452  28.926  13.543  0.2253 -0.1278 -0.4318
 2095DOPS   C3A24581  19.585  28.819  13.122  0.0398 -0.0643 -0.0210
 2095DOPS   C4A24582  19.524  28.830  12.659  0.2648  0.0401 -0.2642
 2095DOPS   C1B24583  19.449  29.379  13.847  0.1891 -0.3087  0.0534
 2095DOPS   D2B24584  19.042  29.211  13.686  0.1423  0.1964  0.1104
 2095DOPS   C3B24585  19.109  29.129  13.235 -0.2982  0.0824  0.0708
 2095DOPS   C4B24586  19.034  29.186  12.754  0.1277  0.2955  0.1353
 2096POSM   NC324587  22.033  21.260  13.684  0.0058 -0.0628 -0.0267
 2096POSM   PO424588  22.233  20.927  13.773 -0.0114  0.0823 -0.4888
 2096POSM   AM124589  22.421  21.075  13.546 -0.0187 -0.2482 -0.1314
 2096POSM   AM224590  22.526  20.949  13.353  0.1475 -0.1317 -0.0311
 2096POSM   T1A24591  22.632  21.469  13.303  0.2269 -0.0728 -0.0975
 2096POSM   C2A24592  22.587  21.683  12.862  0.1498  0.1780 -0.1893
 2096POSM   C3A24593  22.371  22.011  12.521  0.1128  0.1727 -0.2458
 2096POSM   C1B24594  22.589  20.967  13.017 -0.2841  0.1466  0.2886
 2096POSM   D2B24595  22.770  21.279  12.686 -0.0051  0.1332 -0.1746
 2096POSM   C3B24596  23.065  21.312  12.302 -0.1818  0.0075 -0.0080
 2096POSM   C4B24597  23.147  21.134  11.954 -0.1639 -0.0299  0.1873
 2097DOPS   CNO24598  13.843  28.539  13.606  0.0952  0.0529  0.1694
 2097DOPS   PO424599  13.923  28.870  13.448  0.3346 -0.1009  0.1376
 2097DOPS   GL124600  14.167  28.922  13.087  0.0726  0.0290  0.3883
 2097DOPS   GL224601  14.433  28.872  13.016 -0.1016 -0.0214  0.2079
 2097DOPS   C1A24602  14.037  28.804  12.634  0.0813 -0.2620 -0.1662
 2097DOPS   D2A24603  13.864  28.649  12.216 -0.3239  0.0632  0.3058
 2097DOPS   C3A24604  13.643  28.982  12.007  0.0904 -0.0067 -0.6022
 2097DOPS   C4A24605  13.516  29.173  11.613 -0.0374 -0.0478  0.2443
 2097DOPS   C1B24606  14.469  29.145  12.641 -0.1430 -0.1103  0.3069
 2097DOPS   D2B24607  14.723  29.165  12.256 -0.0691 -0.4203  0.0291
 2097DOPS   C3B24608  14.898  28.682  12.268 -0.0207 -0.2708  0.0091
 2097DOPS   C4B24609  15.325  28.611  12.427  0.0864 -0.3818 -0.3019
 2098DOPS   CNO24610  10.132  23.852  13.503  0.2326 -0.0555  0.3292
 2098DOPS   PO424611   9.800  23.685  13.574  0.4743 -0.0978  0.2577
 2098DOPS   GL124612   9.858  23.566  13.142  0.0333  0.1218 -0.0071
 2098DOPS   GL224613   9.934  23.688  12.902 -0.0682  0.0666 -0.2850
 2098DOPS   C1A24614  10.051  23.182  12.951 -0.0535 -0.0803 -0.0427
 2098DOPS   D2A24615  10.273  23.166  12.612 -0.2405  0.0995 -0.1509
 2098DOPS   C3A24616  10.518  23.533  12.340  0.0423  0.1283 -0.1466
 2098DOPS   C4A24617  10.742  23.861  12.145 -0.0060 -0.1790 -0.1279
 2098DOPS   C1B24618   9.913  23.510  12.462 -0.1595 -0.0992  0.2448
 2098DOPS   D2B24619  10.003  23.250  12.097  0.0918 -0.2007  0.0618
 2098DOPS   C3B24620  10.515  23.153  12.053  0.3760 -0.0213  0.2454
 2098DOPS   C4B24621  10.784  22.987  12.440  0.0179  0.1493 -0.2549
 2099DOPE   NH324622  13.275  26.123  13.899 -0.1933 -0.1552  0.1797
 2099DOPE   PO424623  13.189  25.809  13.884 -0.3125  0.1261  0.0714
 2099DOPE   GL124624  13.347  25.651  13.543  0.0900 -0.2180 -0.0801
 2099DOPE   GL224625  13.450  25.936  13.417 -0.2198  0.0286 -0.2588
 2099DOPE   C1A24626  13.081  25.619  13.184  0.2486  0.2591  0.0550
 2099DOPE   D2A24627  13.008  25.583  12.746 -0.2228 -0.0039  0.1518
 2099DOPE   C3A24628  13.178  25.257  12.477  0.0899  0.1401 -0.2309
 2099DOPE   C4A24629  13.298  24.827  12.400 -0.0705 -0.2013  0.1552
 2099DOPE   C1B24630  13.868  25.715  13.282  0.2357 -0.1066 -0.0215
 2099DOPE   D2B24631  14.214  25.820  13.053 -0.1771  0.1055  0.1407
 2099DOPE   C3B24632  14.351  25.455  12.796  0.2625  0.2345 -0.0956
 2099DOPE   C4B24633  14.670  25.449  12.430  0.2201 -0.1466  0.0695
 2100DOPE   NH324634  19.598  21.144  14.260  0.0464  0.1466  0.2450
 2100DOPE   PO424635  19.656  20.937  14.007 -0.0137  0.0891  0.0055
 2100DOPE   GL124636  19.681  21.019  13.672 -0.3172  0.1084 -0.1865
 2100DOPE   GL224637  19.920  21.156  13.633  0.0785 -0.2547 -0.0680
 2100DOPE   C1A24638  19.698  20.879  13.247  0.0720 -0.0827  0.1555
 2100DOPE   D2A24639  20.046  20.877  12.861 -0.0096  0.2020 -0.3124
 2100DOPE   C3A24640  20.328  21.102  12.569  0.1727  0.0783  0.1904
 2100DOPE   C4A24641  20.605  21.424  12.477  0.0802 -0.3084 -0.2935
 2100DOPE   C1B24642  20.298  21.396  13.409  0.3096  0.1111 -0.2293
 2100DOPE   D2B24643  20.419  21.491  12.987 -0.0505  0.0610  0.2877
 2100DOPE   C3B24644  20.164  21.738  12.685  0.1190  0.0105  0.2134
 2100DOPE   C4B24645  20.254  22.147  12.600  0.1685 -0.0541  0.2065
 2101DOPE   NH324646  19.309  33.470  14.164 -0.0713 -0.0165 -0.1390
 2101DOPE   PO424647  19.141  33.281  14.332 -0.2559  0.1459 -0.0611
 2101DOPE   GL124648  19.146  33.201  13.886 -0.0988  0.2461  0.3712
 2101DOPE   GL224649  19.078  32.930  13.827 -0.1169  0.1144  0.1611
 2101DOPE   C1A24650  18.800  33.251  13.574  0.2536 -0.0377 -0.2043
 2101DOPE   D2A24651  18.638  33.661  13.375  0.4003  0.0579 -0.0995
 2101DOPE   C3A24652  18.766  33.839  12.967 -0.0919 -0.3453 -0.0035
 2101DOPE   C4A24653  18.956  34.037  12.593 -0.1232 -0.0870  0.1984
 2101DOPE   C1B24654  18.982  32.628  13.480 -0.0874  0.1191 -0.1052
 2101DOPE   D2B24655  18.677  32.427  13.212 -0.1128 -0.2813 -0.1123
 2101DOPE   C3B24656  18.223  32.527  13.452 -0.3047 -0.0388 -0.3103
 2101DOPE   C4B24657  18.042  32.911  13.568  0.2789 -0.2082  0.5326
 2102DOPC   NC324658  16.659  32.005  14.482 -0.1198 -0.0701  0.1381
 2102DOPC   PO424659  16.460  31.719  14.635  0.1560  0.2187  0.0105
 2102DOPC   GL124660  16.335  31.680  14.228 -0.0536  0.3339  0.0526
 2102DOPC   GL224661  16.442  31.914  14.068  0.0056  0.0729  0.0082
 2102DOPC   C1A24662  16.351  31.379  13.829 -0.1686 -0.0453 -0.0333
 2102DOPC   D2A24663  16.187  31.045  13.595 -0.0906 -0.1227 -0.0592
 2102DOPC   C3A24664  16.243  31.278  13.177  0.1577  0.2186 -0.0003
 2102DOPC   C4A24665  16.264  31.433  12.716  0.1382  0.3382 -0.0231
 2102DOPC   C1B24666  16.265  31.888  13.607  0.1350 -0.4445  0.1299
 2102DOPC   D2B24667  16.220  31.789  13.126  0.3284 -0.1117  0.1328
 2102DOPC   C3B24668  15.857  31.520  13.080 -0.2329 -0.2505 -0.0673
 2102DOPC   C4B24669  15.804  31.158  12.779 -0.0427 -0.2743  0.0621
 2103DOPC   NC324670  18.722  24.446  14.614 -0.0312 -0.0481  0.1355
 2103DOPC   PO424671  19.083  24.548  14.531 -0.1197  0.1302  0.1455
 2103DOPC   GL124672  19.052  24.502  14.144  0.0260 -0.0914  0.1032
 2103DOPC   GL224673  19.058  24.780  14.041  0.1848  0.0059  0.1011
 2103DOPC   C1A24674  19.190  24.234  13.798 -0.0109 -0.0186  0.0354
 2103DOPC   D2A24675  19.593  24.132  13.603  0.0179 -0.2263  0.0933
 2103DOPC   C3A24676  19.787  24.161  13.200 -0.2348  0.1066  0.1812
 2103DOPC   C4A24677  19.719  24.283  12.785  0.3580  0.0358  0.2738
 2103DOPC   C1B24678  19.252  24.714  13.602 -0.1648  0.3101  0.0923
 2103DOPC   D2B24679  19.450  25.125  13.404 -0.1763  0.0879 -0.0879
 2103DOPC   C3B24680  19.788  25.153  13.081 -0.1541  0.2186 -0.0521
 2103DOPC   C4B24681  19.951  25.349  12.690  0.0887  0.1972 -0.1288
 2104POSM   NC324682  14.685  27.454  14.184  0.1288  0.3262  0.0147
 2104POSM   PO424683  14.487  27.449  13.889 -0.1150  0.3194  0.1659
 2104POSM   AM124684  14.660  27.474  13.632  0.0426 -0.2089  0.3106
 2104POSM   AM224685  14.879  27.600  13.599  0.0193  0.1135  0.1352
 2104POSM   T1A24686  14.648  27.498  13.126 -0.1106  0.2349  0.0241
 2104POSM   C2A24687  14.656  27.577  12.684 -0.0315  0.0480 -0.0790
 2104POSM   C3A24688  14.729  27.325  12.311 -0.0163 -0.2653  0.4444
 2104POSM   C1B24689  15.115  27.639  13.325 -0.1386 -0.0746 -0.0304
 2104POSM   D2B24690  15.407  27.872  13.156 -0.1977 -0.0789 -0.1045
 2104POSM   C3B24691  15.600  27.982  12.739  0.0457  0.0164 -0.0713
 2104POSM   C4B24692  15.654  27.989  12.312 -0.0018 -0.1638  0.0188
 2105POSM   NC324693  13.027  32.407  14.396  0.3856  0.1316 -0.2337
 2105POSM   PO424694  12.846  32.627  14.144  0.1682  0.1367  0.0702
 2105POSM   AM124695  12.807  32.618  13.801  0.3805 -0.0304  0.4552
 2105POSM   AM224696  12.828  32.760  13.601 -0.0127 -0.3153 -0.1561
 2105POSM   T1A24697  12.780  32.280  13.414  0.0392 -0.0487 -0.1028
 2105POSM   C2A24698  12.589  32.097  13.024  0.1403 -0.1543  0.0325
 2105POSM   C3A24699  12.175  32.093  12.851  0.0261  0.2820 -0.0651
 2105POSM   C1B24700  13.070  32.751  13.384  0.0234  0.0399 -0.2473
 2105POSM   D2B24701  13.394  32.778  13.018 -0.1199 -0.1594 -0.0031
 2105POSM   C3B24702  13.408  33.148  12.697 -0.0340 -0.0160  0.1911
 2105POSM   C4B24703  13.453  33.503  12.414  0.1517 -0.3685  0.0373
 2106DOPE   NH324704  13.812  26.109  13.739  0.0809 -0.0136  0.0791
 2106DOPE   PO424705  13.699  26.385  13.854 -0.1939  0.1358  0.1113
 2106DOPE   GL124706  13.607  26.481  13.423 -0.2114  0.1776  0.1263
 2106DOPE   GL224707  13.313  26.438  13.542  0.0214 -0.1604 -0.0823
 2106DOPE   C1A24708  13.582  26.219  13.027  0.2054 -0.1178 -0.0967
 2106DOPE   D2A24709  13.336  26.048  12.657  0.0398 -0.1670 -0.2330
 2106DOPE   C3A24710  13.242  26.386  12.352 -0.2311  0.1524 -0.1143
 2106DOPE   C4A24711  13.499  26.513  11.945 -0.0198 -0.0198  0.0574
 2106DOPE   C1B24712  13.119  26.237  13.269  0.3856 -0.0472  0.0483
 2106DOPE   D2B24713  12.841  25.985  12.977 -0.0696  0.0427 -0.0676
 2106DOPE   C3B24714  12.381  26.077  12.921 -0.0128  0.0077  0.1285
 2106DOPE   C4B24715  12.056  25.782  12.826 -0.1689  0.1085 -0.0099
 2107DOPE   NH324716  13.399  25.350  14.055 -0.0885 -0.0758 -0.3695
 2107DOPE   PO424717  13.227  25.094  13.950  0.0605  0.1463 -0.2763
 2107DOPE   GL124718  13.518  25.088  13.712 -0.2928 -0.1152 -0.1229
 2107DOPE   GL224719  13.545  24.834  13.605  0.0052  0.0064  0.0125
 2107DOPE   C1A24720  13.558  25.284  13.281  0.0604 -0.1634  0.1797
 2107DOPE   D2A24721  13.518  25.636  12.941  0.1430  0.1401 -0.2212
 2107DOPE   C3A24722  13.884  25.639  12.625  0.1049 -0.4781 -0.3342
 2107DOPE   C4A24723  14.115  25.541  12.291  0.0129 -0.3536  0.0071
 2107DOPE   C1B24724  13.673  24.804  13.193 -0.1557 -0.1361 -0.0179
 2107DOPE   D2B24725  13.463  25.032  12.866  0.1817  0.0411 -0.0670
 2107DOPE   C3B24726  13.639  25.199  12.462 -0.1034 -0.2588 -0.2185
 2107DOPE   C4B24727  13.477  25.655  12.347 -0.2654  0.1825 -0.0732
 2108DOPE   NH324728  14.663  31.287  14.306 -0.2349  0.1325  0.0266
 2108DOPE   PO424729  14.877  31.074  14.222  0.0425 -0.0600  0.2696
 2108DOPE   GL124730  14.871  31.210  13.889 -0.1353 -0.0843 -0.4940
 2108DOPE   GL224731  14.563  31.312  13.832  0.0853 -0.0644  0.1492
 2108DOPE   C1A24732  14.994  31.607  13.731 -0.0049  0.0254  0.0764
 2108DOPE   D2A24733  14.953  32.059  13.576 -0.3326  0.1205 -0.1422
 2108DOPE   C3A24734  15.026  31.927  13.171 -0.1602 -0.1896  0.0873
 2108DOPE   C4A24735  14.847  31.977  12.762  0.1724  0.3520  0.0385
 2108DOPE   C1B24736  14.727  31.137  13.441  0.1014  0.0870 -0.2662
 2108DOPE   D2B24737  14.929  31.384  13.186  0.0994  0.1370  0.1105
 2108DOPE   C3B24738  14.962  31.294  12.773  0.1248  0.1418  0.0266
 2108DOPE   C4B24739  14.703  31.116  12.445  0.0858 -0.1746  0.4403
 2109DOPC   NC324740   8.226  24.409  13.391  0.0183  0.1634 -0.2067
 2109DOPC   PO424741   8.516  24.633  13.169  0.3709  0.0089  0.2082
 2109DOPC   GL124742   8.662  24.500  12.871  0.1135  0.1063  0.0026
 2109DOPC   GL224743   8.850  24.268  12.832  0.1357  0.0924 -0.2028
 2109DOPC   C1A24744   8.738  24.569  12.432  0.0760 -0.0529 -0.2468
 2109DOPC   D2A24745   8.631  24.340  11.990  0.0349 -0.1454 -0.2005
 2109DOPC   C3A24746   8.691  24.605  11.698  0.0585 -0.2519  0.0574
 2109DOPC   C4A24747   8.925  25.070  11.632 -0.1777  0.0670 -0.0151
 2109DOPC   C1B24748   9.192  24.260  12.501  0.1980  0.1007  0.1830
 2109DOPC   D2B24749   9.144  24.193  12.077 -0.2650  0.2618  0.0717
 2109DOPC   C3B24750   9.215  23.696  11.976  0.0473  0.2445  0.2192
 2109DOPC   C4B24751   9.178  23.292  11.753 -0.1192 -0.2832  0.1633
 2110DOPC   NC324752  13.425  30.211  13.686 -0.2954  0.2304  0.0320
 2110DOPC   PO424753  13.413  30.393  14.042  0.1518  0.1862 -0.0907
 2110DOPC   GL124754  13.579  30.608  13.780  0.0247 -0.1257  0.0838
 2110DOPC   GL224755  13.434  30.774  13.620 -0.1004  0.0273 -0.0448
 2110DOPC   C1A24756  13.917  30.830  13.573 -0.2153 -0.4596 -0.0366
 2110DOPC   D2A24757  14.057  30.773  13.124 -0.1233 -0.0211  0.2816
 2110DOPC   C3A24758  13.803  30.704  12.746 -0.1256 -0.1934 -0.0002
 2110DOPC   C4A24759  13.476  30.507  12.468 -0.0877 -0.0707 -0.2041
 2110DOPC   C1B24760  13.554  30.466  13.323  0.1603  0.3301 -0.2084
 2110DOPC   D2B24761  13.567  30.295  12.948 -0.1419  0.1950 -0.0186
 2110DOPC   C3B24762  13.825  30.036  12.637 -0.0510  0.2392  0.0785
 2110DOPC   C4B24763  13.690  29.662  12.334  0.3431 -0.1711  0.0735
 2111POSM   NC324764  15.841  25.870  14.613 -0.1115 -0.4710 -0.0057
 2111POSM   PO424765  15.986  26.238  14.618  0.1138 -0.2659 -0.3583
 2111POSM   AM124766  16.088  26.211  14.306 -0.2233  0.0507 -0.1189
 2111POSM   AM224767  16.100  26.066  14.059  0.1442 -0.1843  0.2492
 2111POSM   T1A24768  16.157  26.542  14.017 -0.1089 -0.3201 -0.1610
 2111POSM   C2A24769  16.194  26.714  13.608 -0.0088  0.0396  0.1384
 2111POSM   C3A24770  16.268  26.583  13.173  0.2009 -0.0094 -0.1158
 2111POSM   C1B24771  16.084  25.817  13.809 -0.0980 -0.0697  0.0065
 2111POSM   D2B24772  15.856  25.694  13.409  0.2017 -0.2744 -0.3079
 2111POSM   C3B24773  15.885  25.304  13.118  0.2032  0.0938  0.1931
 2111POSM   C4B24774  16.123  25.115  12.748  0.0263  0.2975  0.1321
 2112DOPC   NC324775  14.223  33.670  13.924  0.3416  0.0477 -0.2876
 2112DOPC   PO424776  14.492  33.372  13.864  0.1047  0.0470 -0.2242
 2112DOPC   GL124777  14.273  33.430  13.499  0.0706 -0.1986  0.1100
 2112DOPC   GL224778  14.032  33.286  13.585  0.1544 -0.1447 -0.0865
 2112DOPC   C1A24779  14.196  33.383  13.009 -0.1937  0.1127 -0.2660
 2112DOPC   D2A24780  13.864  33.558  12.727 -0.3171 -0.1848 -0.0933
 2112DOPC   C3A24781  13.710  33.937  12.513  0.0831 -0.0518  0.0593
 2112DOPC   C4A24782  13.535  34.340  12.402 -0.1945 -0.1345 -0.3700
 2112DOPC   C1B24783  14.251  33.006  13.300  0.0048  0.0096 -0.3093
 2112DOPC   D2B24784  14.398  32.557  13.308 -0.1940 -0.1731 -0.1111
 2112DOPC   C3B24785  14.520  32.129  13.143  0.1636  0.3246  0.0751
 2112DOPC   C4B24786  14.543  31.659  13.140 -0.0852 -0.1825 -0.0664
 2113DOPE   NH324787  19.789  25.742  14.432 -0.0269 -0.2561  0.0901
 2113DOPE   PO424788  19.469  25.773  14.487  0.2722  0.1554 -0.0595
 2113DOPE   GL124789  19.362  25.595  14.206  0.6054  0.1606  0.3781
 2113DOPE   GL224790  19.179  25.345  14.149  0.1343  0.1171  0.0560
 2113DOPE   C1A24791  19.434  25.696  13.744 -0.0641  0.0869 -0.1401
 2113DOPE   D2A24792  19.431  25.747  13.300 -0.0229 -0.1854 -0.3756
 2113DOPE   C3A24793  19.604  25.740  12.866 -0.2766  0.0124  0.0657
 2113DOPE   C4A24794  19.827  25.767  12.504 -0.2751  0.1497 -0.0822
 2113DOPE   C1B24795  19.115  25.143  13.764  0.1857 -0.0817 -0.0260
 2113DOPE   D2B24796  18.823  25.166  13.389  0.0349 -0.1199  0.0852
 2113DOPE   C3B24797  19.129  25.066  13.061 -0.0072  0.1818  0.0344
 2113DOPE   C4B24798  19.127  24.795  12.742 -0.1707 -0.1428 -0.1711
 2114DOPC   NC324799  16.335  29.211  14.118  0.1577 -0.0831 -0.2700
 2114DOPC   PO424800  16.420  28.851  14.214 -0.2890 -0.0554  0.0517
 2114DOPC   GL124801  16.602  28.660  13.917 -0.1835  0.1289  0.2735
 2114DOPC   GL224802  16.584  28.316  13.874 -0.2585  0.2311  0.1089
 2114DOPC   C1A24803  16.772  28.695  13.472  0.0124 -0.2891 -0.2009
 2114DOPC   D2A24804  16.781  28.486  13.081 -0.3156 -0.0611  0.0785
 2114DOPC   C3A24805  17.163  28.720  12.890  0.1019  0.1920  0.1678
 2114DOPC   C4A24806  17.405  28.927  13.148 -0.1212  0.0045 -0.2931
 2114DOPC   C1B24807  16.660  28.193  13.443  0.0795 -0.0120  0.1563
 2114DOPC   D2B24808  16.365  28.054  13.145 -0.1560  0.0097  0.0031
 2114DOPC   C3B24809  16.333  28.316  12.817 -0.1634  0.0731  0.0907
 2114DOPC   C4B24810  16.602  28.642  12.573  0.2763 -0.0063 -0.1962
 2115DOPE   NH324811  11.604  30.262  13.696 -0.0157 -0.3338 -0.0595
 2115DOPE   PO424812  11.520  30.552  13.834 -0.0416  0.2165  0.2981
 2115DOPE   GL124813  11.488  30.670  13.433 -0.2039 -0.2333 -0.1881
 2115DOPE   GL224814  11.591  30.950  13.414 -0.2108  0.1112  0.2715
 2115DOPE   C1A24815  11.637  30.489  13.003  0.0280  0.2843  0.1093
 2115DOPE   D2A24816  11.908  30.499  12.620 -0.2182 -0.1545 -0.0582
 2115DOPE   C3A24817  12.128  30.494  12.216 -0.0647 -0.2785  0.1278
 2115DOPE   C4A24818  12.338  30.581  11.824 -0.0637 -0.1097 -0.0588
 2115DOPE   C1B24819  11.935  31.083  13.121 -0.0678  0.0519  0.2117
 2115DOPE   D2B24820  12.282  31.188  12.884 -0.1653 -0.0754 -0.4737
 2115DOPE   C3B24821  12.267  30.816  12.606 -0.1045  0.1522 -0.1373
 2115DOPE   C4B24822  12.612  30.738  12.308 -0.0381 -0.0571  0.0418
 2116DOPE   NH324823  19.066  23.093  14.319  0.3912  0.1908 -0.1946
 2116DOPE   PO424824  18.851  23.187  14.113 -0.1587  0.0248 -0.0363
 2116DOPE   GL124825  18.748  23.061  13.764 -0.0253 -0.0406  0.0443
 2116DOPE   GL224826  18.660  22.766  13.749  0.3400  0.4739 -0.1534
 2116DOPE   C1A24827  18.862  23.151  13.312  0.0474  0.0186 -0.1251
 2116DOPE   D2A24828  18.925  23.537  13.118  0.0207 -0.2744 -0.0363
 2116DOPE   C3A24829  19.246  23.549  12.742 -0.2359 -0.0467  0.3432
 2116DOPE   C4A24830  19.670  23.789  12.624 -0.2707 -0.1973  0.0683
 2116DOPE   C1B24831  18.441  22.884  13.407 -0.2239 -0.1204  0.0387
 2116DOPE   D2B24832  18.429  23.257  13.066 -0.1731 -0.1353 -0.2388
 2116DOPE   C3B24833  18.556  23.659  12.798 -0.0063  0.2979 -0.3919
 2116DOPE   C4B24834  18.434  24.089  12.913 -0.1208  0.2715 -0.0401
 2117DOPC   NC324835  13.447  24.690  14.039  0.0093 -0.3056  0.2693
 2117DOPC   PO424836  13.559  24.343  13.914  0.1127 -0.3079  0.2929
 2117DOPC   GL124837  13.542  24.165  13.514  0.3047  0.2003  0.1053
 2117DOPC   GL224838  13.722  24.350  13.459  0.3544 -0.0634  0.1446
 2117DOPC   C1A24839  13.371  24.146  13.097  0.0203 -0.0489  0.3067
 2117DOPC   D2A24840  13.461  24.134  12.622 -0.4036  0.1433 -0.2161
 2117DOPC   C3A24841  13.846  23.996  12.467  0.2459  0.1661 -0.0996
 2117DOPC   C4A24842  14.033  23.608  12.250 -0.0653 -0.1683  0.1525
 2117DOPC   C1B24843  14.139  24.508  13.323  0.0902  0.0082 -0.3598
 2117DOPC   D2B24844  14.543  24.379  13.167  0.0056 -0.1037 -0.2548
 2117DOPC   C3B24845  14.700  24.641  12.865 -0.3899  0.5904  0.2843
 2117DOPC   C4B24846  14.614  25.059  12.734  0.0926 -0.3285 -0.0955
 2118DOPC   NC324847  17.535  29.152  14.200 -0.1065 -0.1342  0.0424
 2118DOPC   PO424848  17.332  28.830  14.310 -0.0784 -0.0340  0.1289
 2118DOPC   GL124849  17.346  28.651  13.962 -0.0977 -0.2308  0.0287
 2118DOPC   GL224850  17.154  28.392  13.934  0.2152  0.1428  0.0842
 2118DOPC   C1A24851  17.535  28.800  13.570 -0.2662  0.1264 -0.0717
 2118DOPC   D2A24852  17.847  28.722  13.230 -0.1810  0.1042 -0.0138
 2118DOPC   C3A24853  18.101  29.050  13.054 -0.0143  0.0726 -0.2424
 2118DOPC   C4A24854  18.123  29.209  12.662 -0.1831  0.0231  0.2634
 2118DOPC   C1B24855  17.138  28.320  13.461  0.0707  0.1698  0.1075
 2118DOPC   D2B24856  17.238  28.255  13.025  0.1362 -0.2656  0.1348
 2118DOPC   C3B24857  16.802  28.059  12.897 -0.0395  0.1492  0.2899
 2118DOPC   C4B24858  16.498  27.679  12.906 -0.1806  0.0336 -0.0774
 2119DOPC   NC324859  22.859  30.909  13.892 -0.0407  0.0389  0.0004
 2119DOPC   PO424860  22.795  31.247  14.102 -0.3016  0.2848 -0.1325
 2119DOPC   GL124861  22.725  31.289  13.703  0.0712  0.2298 -0.2430
 2119DOPC   GL224862  22.550  31.214  13.528  0.1455 -0.1248  0.2220
 2119DOPC   C1A24863  22.965  31.210  13.283 -0.3383  0.0477  0.0300
 2119DOPC   D2A24864  22.806  31.278  12.845 -0.3369 -0.0627  0.0097
 2119DOPC   C3A24865  22.425  31.612  12.696 -0.4429 -0.0097 -0.2693
 2119DOPC   C4A24866  22.338  31.670  12.230 -0.1122 -0.1566  0.1085
 2119DOPC   C1B24867  22.521  30.973  13.147 -0.3102 -0.2433 -0.1475
 2119DOPC   D2B24868  22.354  31.131  12.685 -0.2573 -0.3159 -0.1656
 2119DOPC   C3B24869  22.584  31.239  12.313 -0.0216 -0.0501 -0.0781
 2119DOPC   C4B24870  22.887  31.395  12.034 -0.5194  0.2670 -0.3645
 2120DOPC   NC324871   8.504  21.045  12.977 -0.0034  0.0057 -0.1595
 2120DOPC   PO424872   8.306  21.248  13.297 -0.1128  0.0983 -0.1290
 2120DOPC   GL124873   8.409  21.489  12.991 -0.0008 -0.0631  0.0134
 2120DOPC   GL224874   8.251  21.482  12.708 -0.0270  0.0118  0.3389
 2120DOPC   C1A24875   8.733  21.489  12.701  0.0294 -0.1512  0.3648
 2120DOPC   D2A24876   8.840  21.497  12.256  0.1899  0.0429  0.0375
 2120DOPC   C3A24877   9.235  21.273  12.123 -0.0533  0.0773 -0.1170
 2120DOPC   C4A24878   9.514  20.987  11.905  0.0072 -0.1275  0.1974
 2120DOPC   C1B24879   8.356  21.675  12.311 -0.1222 -0.0201 -0.1556
 2120DOPC   D2B24880   8.440  21.940  11.926  0.0674  0.0056 -0.0074
 2120DOPC   C3B24881   8.881  21.831  11.771  0.2339 -0.3795  0.0299
 2120DOPC   C4B24882   9.187  21.528  11.712 -0.0097 -0.0721  0.3960
 2121DOPC   NC324883  19.826  27.030  14.896 -0.1217  0.0940 -0.3013
 2121DOPC   PO424884  19.983  26.939  14.541 -0.0464  0.1684 -0.0417
 2121DOPC   GL124885  19.827  26.986  14.144  0.3869 -0.0225  0.1350
 2121DOPC   GL224886  19.580  26.876  14.133 -0.0161  0.0925  0.1716
 2121DOPC   C1A24887  20.009  26.914  13.706  0.2234 -0.1163 -0.1289
 2121DOPC   D2A24888  20.167  26.523  13.467 -0.2635  0.0100  0.2919
 2121DOPC   C3A24889  20.342  26.615  13.076  0.0250  0.2219 -0.1226
 2121DOPC   C4A24890  20.150  26.360  12.703 -0.1142 -0.0149 -0.0643
 2121DOPC   C1B24891  19.461  26.904  13.691 -0.2017 -0.0705  0.0784
 2121DOPC   D2B24892  19.395  26.950  13.249 -0.3696  0.0451  0.1740
 2121DOPC   C3B24893  18.912  26.931  13.299  0.2357  0.0090  0.0180
 2121DOPC   C4B24894  18.646  26.988  13.646  0.0092 -0.3482  0.1856
 2122DOPE   NH324895  23.471  30.158  13.856  0.1192  0.3996  0.0632
 2122DOPE   PO424896  23.219  30.358  13.764  0.2364  0.1451  0.0900
 2122DOPE   GL124897  23.281  30.388  13.298  0.2111  0.1380  0.1675
 2122DOPE   GL224898  23.501  30.411  13.083 -0.1436  0.0259 -0.3740
 2122DOPE   C1A24899  23.010  30.230  12.943  0.1327 -0.6646  0.0515
 2122DOPE   D2A24900  22.892  30.207  12.563 -0.1913 -0.0938  0.1497
 2122DOPE   C3A24901  23.035  29.935  12.167  0.0964  0.0294 -0.3990
 2122DOPE   C4A24902  23.256  29.525  12.187 -0.0649 -0.0493  0.1691
 2122DOPE   C1B24903  23.391  30.459  12.670 -0.3004 -0.0136 -0.1804
 2122DOPE   D2B24904  23.249  30.419  12.252 -0.3453  0.0644 -0.3010
 2122DOPE   C3B24905  22.858  30.416  12.010  0.2744  0.1842 -0.1824
 2122DOPE   C4B24906  22.416  30.168  12.059 -0.0549  0.0594  0.0044
 2123DOPE   NH324907  20.906  29.508  14.486  0.1700  0.1383  0.4766
 2123DOPE   PO424908  21.114  29.250  14.415 -0.1578 -0.2778 -0.2220
 2123DOPE   GL124909  21.094  29.232  14.085  0.1563  0.1913 -0.1932
 2123DOPE   GL224910  21.088  29.479  13.966  0.0995  0.2833  0.1156
 2123DOPE   C1A24911  20.835  28.965  13.810 -0.1411  0.0873  0.1099
 2123DOPE   D2A24912  20.574  29.071  13.440  0.0897 -0.1788 -0.2795
 2123DOPE   C3A24913  20.540  28.852  13.071  0.0888  0.4468  0.1058
 2123DOPE   C4A24914  20.246  28.539  12.944  0.3664 -0.0595  0.1044
 2123DOPE   C1B24915  21.067  29.407  13.493  0.2342  0.1041  0.0964
 2123DOPE   D2B24916  21.173  29.750  13.171 -0.2264  0.1136  0.1685
 2123DOPE   C3B24917  20.820  29.829  12.870  0.0520 -0.0082  0.1467
 2123DOPE   C4B24918  20.402  29.810  12.639 -0.1681 -0.2403 -0.0546
 2124POSM   NC324919  18.649  30.640  14.349 -0.0598  0.1594 -0.2105
 2124POSM   PO424920  18.498  30.964  14.508 -0.0292 -0.2647 -0.6819
 2124POSM   AM124921  18.492  31.086  14.211 -0.0069 -0.0450  0.2835
 2124POSM   AM224922  18.430  31.333  14.045 -0.1970 -0.1446  0.1260
 2124POSM   T1A24923  18.523  30.861  13.765 -0.0883 -0.0885  0.0313
 2124POSM   C2A24924  18.562  30.960  13.315  0.3484  0.0668  0.0457
 2124POSM   C3A24925  18.378  31.029  12.918 -0.1653 -0.1086 -0.2146
 2124POSM   C1B24926  18.163  31.128  13.845 -0.1016 -0.0453  0.0492
 2124POSM   D2B24927  18.097  30.751  13.635 -0.1334 -0.1993  0.1647
 2124POSM   C3B24928  17.902  30.691  13.210 -0.3248 -0.1925  0.1092
 2124POSM   C4B24929  17.480  30.703  13.053 -0.2856  0.0698 -0.0978
 2125DOPC   NC324930  19.461  20.631  13.716  0.1662  0.2230  0.2260
 2125DOPC   PO424931  19.211  20.404  13.522  0.0256  0.2574 -0.0245
 2125DOPC   GL124932  19.141  20.672  13.226  0.0051 -0.1257 -0.0596
 2125DOPC   GL224933  18.839  20.770  13.202  0.2178 -0.0222  0.3170
 2125DOPC   C1A24934  19.300  20.966  12.902  0.1204 -0.0953  0.1722
 2125DOPC   D2A24935  19.066  21.136  12.660  0.0687  0.2779  0.0339
 2125DOPC   C3A24936  18.819  21.546  12.817 -0.2631  0.1397 -0.1183
 2125DOPC   C4A24937  18.480  21.901  12.855  0.0088  0.0953  0.2367
 2125DOPC   C1B24938  18.953  20.634  12.773  0.0810  0.3246 -0.0063
 2125DOPC   D2B24939  19.125  20.686  12.332 -0.1942  0.1479 -0.1867
 2125DOPC   C3B24940  19.096  20.463  11.942  0.0750 -0.1018  0.3253
 2125DOPC   C4B24941  18.752  20.379  11.728  0.0195 -0.0640  0.1409
 2126POSM   NC324942  14.099  25.247  14.527 -0.2275 -0.2337  0.1853
 2126POSM   PO424943  13.909  25.498  14.210  0.2560  0.0520 -0.0766
 2126POSM   AM124944  14.050  25.344  13.962  0.1233  0.1111 -0.5052
 2126POSM   AM224945  14.051  25.173  13.763  0.1457  0.0322  0.1306
 2126POSM   T1A24946  14.536  25.337  13.768 -0.0459  0.0488  0.1970
 2126POSM   C2A24947  14.958  25.206  13.696  0.2495  0.1157 -0.0304
 2126POSM   C3A24948  15.338  25.295  13.976  0.4050 -0.0603 -0.1407
 2126POSM   C1B24949  14.005  25.150  13.420  0.4788 -0.2425 -0.3770
 2126POSM   D2B24950  13.889  25.229  12.925  0.1980  0.0391 -0.1707
 2126POSM   C3B24951  14.128  25.105  12.553  0.2863  0.1005 -0.1221
 2126POSM   C4B24952  14.274  24.702  12.490 -0.3551  0.0813  0.3629
 2127POSM   NC324953  10.926  33.031  14.393 -0.2236  0.2839 -0.0349
 2127POSM   PO424954  11.187  33.262  14.258 -0.4529  0.0904  0.0937
 2127POSM   AM124955  11.304  33.337  13.937  0.3954  0.1698 -0.0930
 2127POSM   AM224956  11.358  33.532  13.768  0.1520 -0.0562 -0.0800
 2127POSM   T1A24957  11.677  33.251  13.605  0.1695  0.0117 -0.2099
 2127POSM   C2A24958  12.076  33.369  13.404  0.0049 -0.3936  0.1571
 2127POSM   C3A24959  12.426  33.606  13.595 -0.1990  0.1582 -0.0607
 2127POSM   C1B24960  11.071  33.546  13.558  0.2404 -0.3450 -0.1171
 2127POSM   D2B24961  10.738  33.689  13.228 -0.0525  0.3167  0.0201
 2127POSM   C3B24962  10.830  33.904  12.776 -0.1382 -0.2089 -0.0094
 2127POSM   C4B24963  10.782  33.769  12.355  0.4480 -0.0345 -0.2445
 2128DOPS   CNO24964  19.589  29.539  14.290  0.0276 -0.2156 -0.0136
 2128DOPS   PO424965  19.676  29.855  14.442  0.0027 -0.1342  0.0352
 2128DOPS   GL124966  19.749  29.891  14.047 -0.0129 -0.2055 -0.0223
 2128DOPS   GL224967  19.495  29.909  13.935 -0.0251  0.0301  0.2213
 2128DOPS   C1A24968  19.742  29.773  13.550 -0.1011 -0.4159  0.2225
 2128DOPS   D2A24969  19.588  29.824  13.078 -0.1168 -0.0159  0.1489
 2128DOPS   C3A24970  19.971  30.028  12.908 -0.0032  0.1814  0.0166
 2128DOPS   C4A24971  20.247  30.332  12.727  0.0950  0.0745  0.0670
 2128DOPS   C1B24972  19.336  30.122  13.613 -0.0550 -0.0419  0.0950
 2128DOPS   D2B24973  19.372  30.268  13.167 -0.0732 -0.1758 -0.0536
 2128DOPS   C3B24974  19.198  30.504  12.818  0.2521  0.1981  0.1283
 2128DOPS   C4B24975  19.098  30.205  12.426 -0.3569 -0.3145  0.1492
 2129DOPC   NC324976  12.851  32.035  13.884 -0.3471  0.0546  0.0837
 2129DOPC   PO424977  13.211  32.213  13.977 -0.0886 -0.0609  0.0275
 2129DOPC   GL124978  13.231  32.307  13.535  0.0165 -0.0989 -0.2591
 2129DOPC   GL224979  13.511  32.461  13.459  0.1941 -0.0873  0.2747
 2129DOPC   C1A24980  13.195  32.141  13.153 -0.0513 -0.0879  0.0996
 2129DOPC   D2A24981  13.166  32.206  12.722  0.3711 -0.1837 -0.2196
 2129DOPC   C3A24982  13.348  31.981  12.357  0.1136 -0.0956  0.2793
 2129DOPC   C4A24983  13.611  31.587  12.219  0.1660  0.0784  0.2249
 2129DOPC   C1B24984  13.650  32.297  13.011 -0.0322 -0.0901  0.0255
 2129DOPC   D2B24985  13.645  32.635  12.622 -0.0532 -0.0220  0.0789
 2129DOPC   C3B24986  13.388  32.841  12.290  0.2393 -0.0564  0.3473
 2129DOPC   C4B24987  12.980  33.028  12.460  0.0833 -0.0678  0.1682
 2130DOPE   NH324988  12.904  31.280  14.115 -0.1466  0.1350  0.0026
 2130DOPE   PO424989  13.064  31.568  14.183  0.1518 -0.1697 -0.2969
 2130DOPE   GL124990  13.202  31.499  13.757  0.1652 -0.3110 -0.0941
 2130DOPE   GL224991  13.333  31.755  13.650  0.0415 -0.0512  0.1676
 2130DOPE   C1A24992  12.951  31.670  13.389  0.2139  0.3304 -0.2924
 2130DOPE   D2A24993  12.990  31.742  12.960 -0.2525 -0.4562 -0.1748
 2130DOPE   C3A24994  13.135  31.539  12.569 -0.2422  0.0414  0.0309
 2130DOPE   C4A24995  13.066  31.296  12.195  0.1669 -0.2377  0.0902
 2130DOPE   C1B24996  13.564  31.754  13.263 -0.2648 -0.1248 -0.0472
 2130DOPE   D2B24997  13.564  31.788  12.765 -0.0801  0.0317 -0.0009
 2130DOPE   C3B24998  13.843  32.146  12.555 -0.3358  0.1528 -0.0391
 2130DOPE   C4B24999  13.963  32.108  12.136  0.0124  0.2309 -0.4037
 2131DOPE   NH325000  15.132  23.365  14.394  0.2738 -0.0080  0.1401
 2131DOPE   PO425001  14.806  23.304  14.352 -0.0373 -0.0469  0.0023
 2131DOPE   GL125002  14.794  23.536  14.038  0.2609  0.1500 -0.0416
 2131DOPE   GL225003  14.682  23.700  14.098 -0.3646  0.2376 -0.4785
 2131DOPE   C1A25004  14.817  23.447  13.591 -0.2513 -0.1163 -0.1677
 2131DOPE   D2A25005  14.857  23.359  13.141 -0.2488  0.1368  0.2180
 2131DOPE   C3A25006  15.190  23.113  12.940 -0.0604  0.1843 -0.1616
 2131DOPE   C4A25007  15.270  22.849  12.533  0.2879 -0.1865 -0.2125
 2131DOPE   C1B25008  14.897  23.928  13.693  0.1203 -0.3251 -0.1604
 2131DOPE   D2B25009  14.966  23.832  13.251  0.0568  0.2307 -0.0724
 2131DOPE   C3B25010  14.957  23.959  12.855  0.1474 -0.5214  0.2863
 2131DOPE   C4B25011  15.195  23.808  12.504 -0.2949 -0.1918 -0.1351
 2132DOPC   NC325012  22.488  27.369  14.552  0.0190  0.4129 -0.0065
 2132DOPC   PO425013  22.129  27.398  14.355 -0.0567 -0.2164 -0.3544
 2132DOPC   GL125014  21.847  27.408  13.960 -0.2637  0.3149 -0.0546
 2132DOPC   GL225015  21.650  27.239  13.967  0.0424 -0.1095  0.2036
 2132DOPC   C1A25016  21.898  27.328  13.503  0.3401  0.2365 -0.0979
 2132DOPC   D2A25017  21.860  27.459  13.067  0.1453 -0.1172 -0.3072
 2132DOPC   C3A25018  22.321  27.383  13.056  0.2596 -0.1545 -0.0576
 2132DOPC   C4A25019  22.651  27.648  12.844 -0.0729  0.0750 -0.0344
 2132DOPC   C1B25020  21.510  26.992  13.613  0.0227 -0.2556 -0.0029
 2132DOPC   D2B25021  21.451  26.943  13.144  0.1837  0.1706  0.0274
 2132DOPC   C3B25022  21.835  26.934  12.831 -0.2454  0.0517  0.3792
 2132DOPC   C4B25023  21.952  26.865  12.339  0.1911 -0.0528 -0.0791
 2133POSM   NC325024  21.869  30.835  14.105  0.1385  0.0102 -0.0422
 2133POSM   PO425025  21.555  30.643  14.237  0.0911  0.0704  0.1894
 2133POSM   AM125026  21.369  30.769  13.995  0.4089  0.1948  0.3249
 2133POSM   AM225027  21.346  31.048  13.892  0.1571  0.2115  0.1624
 2133POSM   T1A25028  21.260  30.601  13.518 -0.0710  0.0904 -0.0811
 2133POSM   C2A25029  21.179  30.576  13.028 -0.0253 -0.0026 -0.1932
 2133POSM   C3A25030  21.201  30.526  12.564  0.0471  0.1121 -0.0347
 2133POSM   C1B25031  21.587  30.984  13.644 -0.1307  0.1200 -0.1890
 2133POSM   D2B25032  21.974  30.989  13.315  0.1012  0.0425 -0.2328
 2133POSM   C3B25033  22.155  31.396  13.148 -0.4098  0.2189 -0.1381
 2133POSM   C4B25034  22.595  31.538  13.207 -0.1553  0.0251  0.2449
 2134POSM   NC325035  13.699  32.101  13.705 -0.0154 -0.0788  0.0399
 2134POSM   PO425036  13.984  32.366  13.790 -0.1862 -0.0368 -0.1663
 2134POSM   AM125037  13.899  32.627  13.635  0.3300  0.0280 -0.1061
 2134POSM   AM225038  13.770  32.862  13.653 -0.0058 -0.1304  0.2732
 2134POSM   T1A25039  13.914  32.736  13.138  0.0057  0.2315  0.1033
 2134POSM   C2A25040  14.080  32.489  12.809  0.1269  0.0827 -0.2688
 2134POSM   C3A25041  14.363  32.275  12.537  0.0130  0.0646  0.2498
 2134POSM   C1B25042  13.499  32.960  13.457  0.1680  0.1444 -0.0175
 2134POSM   D2B25043  13.198  33.213  13.195 -0.0842  0.0349  0.4141
 2134POSM   C3B25044  12.830  33.007  13.073 -0.1424 -0.0288 -0.0663
 2134POSM   C4B25045  12.786  32.590  12.893 -0.0007  0.0168  0.2813
 2135DOPC   NC325046  21.055  32.960  14.346  0.1788 -0.2436  0.0757
 2135DOPC   PO425047  21.410  32.907  14.178  0.1884  0.1472  0.1862
 2135DOPC   GL125048  21.414  33.054  13.803  0.4783 -0.2835 -0.1286
 2135DOPC   GL225049  21.196  32.989  13.657  0.1234 -0.1864  0.0592
 2135DOPC   C1A25050  21.644  33.193  13.436  0.0500  0.0331 -0.1315
 2135DOPC   D2A25051  21.376  33.314  13.045  0.0848  0.1338 -0.1713
 2135DOPC   C3A25052  21.540  33.475  12.591 -0.0793  0.2801  0.0536
 2135DOPC   C4A25053  21.632  33.827  12.306  0.2338  0.1874  0.0198
 2135DOPC   C1B25054  21.007  32.899  13.259 -0.3463 -0.0813  0.2708
 2135DOPC   D2B25055  20.863  33.043  12.839  0.1341 -0.1822 -0.0951
 2135DOPC   C3B25056  20.715  33.493  12.692 -0.1926  0.3301 -0.5241
 2135DOPC   C4B25057  20.598  33.851  12.412  0.3803  0.0204  0.2576
 2136DOPS   CNO25058  15.062  30.089  14.420 -0.1305  0.0177 -0.1535
 2136DOPS   PO425059  14.876  29.972  14.100 -0.0522  0.2113 -0.3180
 2136DOPS   GL125060  15.195  30.060  13.842  0.1057 -0.4298  0.3432
 2136DOPS   GL225061  15.245  30.362  13.760  0.0213 -0.2272  0.1814
 2136DOPS   C1A25062  15.244  29.767  13.503  0.1866  0.3296  0.0075
 2136DOPS   D2A25063  15.409  29.405  13.247  0.0952  0.0433 -0.3086
 2136DOPS   C3A25064  15.363  29.403  12.769 -0.0237  0.0717 -0.3163
 2136DOPS   C4A25065  15.115  29.543  12.409 -0.1807 -0.0604 -0.0026
 2136DOPS   C1B25066  15.598  30.243  13.419  0.2467 -0.1096  0.1746
 2136DOPS   D2B25067  15.979  30.310  13.138 -0.2640 -0.1737 -0.1746
 2136DOPS   C3B25068  16.274  30.479  12.815  0.0690 -0.1646 -0.2569
 2136DOPS   C4B25069  16.524  30.855  12.663  0.0618 -0.1793  0.0898
 2137DOPE   NH325070  22.164  27.788  13.961  0.1091  0.3569 -0.1769
 2137DOPE   PO425071  21.867  27.829  13.926 -0.5456 -0.4718  0.2609
 2137DOPE   GL125072  21.731  28.030  13.553  0.0291  0.0744 -0.1303
 2137DOPE   GL225073  21.824  27.789  13.415 -0.1229  0.1587 -0.0706
 2137DOPE   C1A25074  21.351  27.997  13.283  0.1917  0.1770  0.1008
 2137DOPE   D2A25075  21.216  27.820  12.919 -0.0244 -0.0554 -0.1395
 2137DOPE   C3A25076  20.901  27.991  12.732 -0.0706  0.4133  0.5734
 2137DOPE   C4A25077  20.559  27.936  12.411  0.0811 -0.2357 -0.2310
 2137DOPE   C1B25078  22.254  27.735  13.390 -0.0560  0.4347  0.2902
 2137DOPE   D2B25079  22.523  27.971  13.148  0.0115 -0.2331  0.1688
 2137DOPE   C3B25080  22.185  27.831  12.885  0.0434  0.0451  0.3737
 2137DOPE   C4B25081  21.713  27.886  12.896 -0.0192 -0.1862  0.0563
 2138DOPS   CNO25082  17.269  31.540  14.333 -0.0689  0.0343  0.1174
 2138DOPS   PO425083  16.971  31.647  14.519  0.0504 -0.0164  0.0355
 2138DOPS   GL125084  16.752  31.477  14.140  0.0531  0.0667 -0.0928
 2138DOPS   GL225085  16.897  31.328  14.005 -0.3817 -0.0965  0.0970
 2138DOPS   C1A25086  16.753  31.724  13.749 -0.1654  0.2961  0.0967
 2138DOPS   D2A25087  16.633  31.543  13.312 -0.4073  0.2449  0.0254
 2138DOPS   C3A25088  16.739  32.008  13.148  0.5318 -0.1433 -0.1553
 2138DOPS   C4A25089  16.776  32.178  12.706  0.1809  0.4066  0.1441
 2138DOPS   C1B25090  17.101  30.870  14.017  0.0569  0.1713  0.0264
 2138DOPS   D2B25091  17.343  30.489  13.965  0.0625  0.1364 -0.0554
 2138DOPS   C3B25092  17.707  30.450  13.728 -0.2502  0.0467  0.0001
 2138DOPS   C4B25093  18.010  30.260  13.477 -0.1261  0.2897 -0.0023
 2139DOPS   CNO25094  14.394  26.633  14.366 -0.3757 -0.0511  0.1986
 2139DOPS   PO425095  14.174  26.422  14.129 -0.0770  0.1693 -0.0690
 2139DOPS   GL125096  14.302  26.144  13.995 -0.0654  0.4362 -0.0941
 2139DOPS   GL225097  14.122  25.904  14.028  0.0488  0.1939  0.0535
 2139DOPS   C1A25098  14.732  25.937  13.960 -0.1288 -0.0843  0.1575
 2139DOPS   D2A25099  15.084  25.675  13.762 -0.1017 -0.2083 -0.5303
 2139DOPS   C3A25100  15.349  25.819  13.386  0.2587 -0.0758 -0.1142
 2139DOPS   C4A25101  15.506  26.160  13.044  0.0413  0.1107  0.0455
 2139DOPS   C1B25102  14.292  25.804  13.706 -0.0569  0.2521 -0.1513
 2139DOPS   D2B25103  14.582  25.787  13.352  0.2415 -0.0073  0.2541
 2139DOPS   C3B25104  14.624  25.329  13.286  0.2334  0.0016 -0.0940
 2139DOPS   C4B25105  14.957  25.018  13.110  0.0340 -0.0967  0.1621
 2140POSM   NC325106  16.635  29.820  14.877  0.1230 -0.1549 -0.0141
 2140POSM   PO425107  16.725  29.429  14.799  0.0616  0.0934 -0.0837
 2140POSM   AM125108  16.738  29.530  14.468  0.2012  0.4615  0.0132
 2140POSM   AM225109  16.790  29.800  14.405  0.0857  0.2074  0.0531
 2140POSM   T1A25110  16.722  29.581  13.951  0.0487 -0.0233 -0.0752
 2140POSM   C2A25111  16.714  29.590  13.514 -0.0887  0.0362  0.1045
 2140POSM   C3A25112  16.591  29.186  13.397  0.1143  0.0159 -0.1098
 2140POSM   C1B25113  16.622  30.015  14.163  0.1448 -0.1259 -0.2420
 2140POSM   D2B25114  16.539  30.133  13.769 -0.4992  0.2026  0.0754
 2140POSM   C3B25115  16.328  30.499  13.589  0.1505  0.3116 -0.0386
 2140POSM   C4B25116  15.885  30.671  13.496  0.2395 -0.0003  0.0808
 2141POSM   NC325117  16.569  27.553  14.303  0.1552  0.1913  0.1885
 2141POSM   PO425118  16.351  27.839  14.174 -0.0267 -0.1052 -0.0742
 2141POSM   AM125119  16.227  27.619  13.934 -0.3858 -0.0675  0.2478
 2141POSM   AM225120  16.341  27.374  13.889  0.1720  0.0970 -0.2026
 2141POSM   T1A25121  16.080  27.657  13.439 -0.2609 -0.0135  0.1509
 2141POSM   C2A25122  15.958  27.679  12.995  0.1703  0.0871  0.0495
 2141POSM   C3A25123  16.092  27.874  12.572  0.1752 -0.0823 -0.1354
 2141POSM   C1B25124  16.331  27.217  13.618 -0.1345 -0.1546 -0.0098
 2141POSM   D2B25125  16.274  27.120  13.163  0.0785 -0.1073  0.0063
 2141POSM   C3B25126  16.264  27.215  12.708 -0.1901 -0.1893 -0.0016
 2141POSM   C4B25127  16.459  27.558  12.447 -0.0762 -0.1293 -0.2715
 2142DOPC   NC325128  11.267  25.725  13.557 -0.0368  0.1521  0.3653
 2142DOPC   PO425129  11.185  25.314  13.521  0.0545 -0.2359 -0.1742
 2142DOPC   GL125130  11.280  25.459  13.069  0.1822 -0.2546 -0.0832
 2142DOPC   GL225131  11.034  25.581  12.964  0.0481  0.0983  0.0949
 2142DOPC   C1A25132  11.618  25.380  12.772  0.0738  0.0234 -0.1155
 2142DOPC   D2A25133  12.017  25.409  12.507 -0.2252  0.0432 -0.2500
 2142DOPC   C3A25134  12.154  25.290  12.075  0.0777  0.1159  0.0667
 2142DOPC   C4A25135  12.160  25.451  11.592  0.3904 -0.1190  0.0109
 2142DOPC   C1B25136  10.934  25.325  12.570  0.1092  0.2148 -0.1274
 2142DOPC   D2B25137  11.098  25.053  12.204 -0.0165 -0.2903  0.3628
 2142DOPC   C3B25138  11.054  24.616  12.125 -0.1580 -0.0243  0.1679
 2142DOPC   C4B25139  11.162  24.181  12.109  0.0159  0.0408  0.1623
 2143POSM   NC325140  15.001  32.223  14.027 -0.2155  0.1925  0.4541
 2143POSM   PO425141  15.063  32.578  14.107 -0.0987 -0.1600  0.0848
 2143POSM   AM125142  15.068  32.593  13.775 -0.1523  0.0324  0.1109
 2143POSM   AM225143  15.170  32.773  13.536 -0.2233 -0.1330  0.0910
 2143POSM   T1A25144  14.921  32.438  13.305  0.0832 -0.1151  0.0396
 2143POSM   C2A25145  14.846  32.456  12.899  0.1718  0.3539 -0.1075
 2143POSM   C3A25146  14.771  32.733  12.533  0.1586 -0.2573  0.0330
 2143POSM   C1B25147  15.394  32.725  13.281 -0.1391  0.0545 -0.0138
 2143POSM   D2B25148  15.273  32.730  12.805  0.1392  0.2347 -0.1125
 2143POSM   C3B25149  15.226  33.212  12.770  0.2968 -0.0394  0.3433
 2143POSM   C4B25150  15.073  33.576  13.009 -0.0895  0.0330 -0.1617
 2144DOPC   NC325151  20.395  28.240  14.342 -0.2810  0.0897  0.2709
 2144DOPC   PO425152  20.715  28.039  14.471 -0.1586 -0.3323  0.5197
 2144DOPC   GL125153  20.760  27.888  14.130  0.2009  0.3117  0.0187
 2144DOPC   GL225154  20.828  28.017  13.960 -0.0454  0.2307  0.1399
 2144DOPC   C1A25155  21.164  27.631  14.014 -0.1414  0.1822  0.1281
 2144DOPC   D2A25156  21.439  27.685  13.642 -0.1069  0.3169 -0.1688
 2144DOPC   C3A25157  21.418  27.484  13.215 -0.0593 -0.1500 -0.0754
 2144DOPC   C4A25158  21.411  27.352  12.745  0.2390 -0.2030  0.1671
 2144DOPC   C1B25159  20.862  28.152  13.537 -0.1772  0.0557 -0.2373
 2144DOPC   D2B25160  20.646  28.008  13.166  0.1672  0.0363 -0.1057
 2144DOPC   C3B25161  20.342  28.060  12.916  0.0910  0.4405  0.0612
 2144DOPC   C4B25162  19.942  27.889  12.711  0.4281 -0.0717 -0.0142
 2145POSM   NC325163  17.767  27.241  14.292 -0.1905  0.1492 -0.0239
 2145POSM   PO425164  17.403  27.429  14.327  0.1575  0.1595 -0.0353
 2145POSM   AM125165  17.451  27.434  13.993  0.1954 -0.0813 -0.5650
 2145POSM   AM225166  17.206  27.326  13.824  0.0322 -0.0213  0.1545
 2145POSM   T1A25167  17.418  27.758  13.656  0.2382 -0.1110 -0.2844
 2145POSM   C2A25168  17.541  27.860  13.175  0.4319 -0.2508 -0.1308
 2145POSM   C3A25169  17.882  27.794  12.835  0.3566  0.3697 -0.0988
 2145POSM   C1B25170  17.261  27.214  13.510  0.6181  0.0252  0.1621
 2145POSM   D2B25171  17.208  26.860  13.183  0.2548  0.2510  0.1469
 2145POSM   C3B25172  17.391  26.984  12.796  0.2589 -0.1535  0.0915
 2145POSM   C4B25173  17.483  27.016  12.383 -0.0364 -0.0509 -0.0652
 2146POSM   NC325174  20.717  25.299  14.237  0.2630  0.0374  0.0817
 2146POSM   PO425175  20.953  25.032  14.418  0.4586 -0.0117  0.1499
 2146POSM   AM125176  21.022  24.942  14.124  0.2570 -0.3260  0.2840
 2146POSM   AM225177  20.956  24.740  13.949  0.2274  0.0132 -0.1181
 2146POSM   T1A25178  21.241  25.024  13.646 -0.1048 -0.0847  0.0431
 2146POSM   C2A25179  21.325  24.783  13.274 -0.1083 -0.1143 -0.0386
 2146POSM   C3A25180  21.136  24.430  13.097 -0.0456  0.1634 -0.0879
 2146POSM   C1B25181  21.168  24.523  13.756 -0.3050  0.0089  0.1880
 2146POSM   D2B25182  21.507  24.353  13.464  0.0889 -0.1218 -0.0781
 2146POSM   C3B25183  21.687  24.534  13.065 -0.4016  0.3259 -0.1543
 2146POSM   C4B25184  21.846  24.872  12.773  0.2818 -0.0873 -0.1073
 2147DOPC   NC325185  14.829  24.532  14.660  0.1784  0.2579  0.0874
 2147DOPC   PO425186  14.648  24.886  14.495 -0.0963  0.1813 -0.0149
 2147DOPC   GL125187  14.707  24.701  14.210 -0.0122  0.4181 -0.3602
 2147DOPC   GL225188  14.911  24.603  14.082  0.0030  0.2988 -0.1819
 2147DOPC   C1A25189  14.552  24.795  13.809  0.1279  0.0703 -0.1614
 2147DOPC   D2A25190  14.561  24.823  13.356  0.0016 -0.2176  0.0699
 2147DOPC   C3A25191  14.240  24.861  12.981 -0.1928  0.0289  0.1031
 2147DOPC   C4A25192  13.860  24.595  12.725  0.1285  0.1600 -0.1468
 2147DOPC   C1B25193  15.205  24.817  13.824 -0.2685 -0.1770 -0.2479
 2147DOPC   D2B25194  15.532  24.875  13.447  0.1996  0.0252 -0.0015
 2147DOPC   C3B25195  15.490  24.903  13.059  0.2753  0.1079 -0.2362
 2147DOPC   C4B25196  15.239  25.064  12.705 -0.0824 -0.0904  0.0422
 2148DOPE   NH325197  12.171  25.801  14.060 -0.0234 -0.0270  0.1850
 2148DOPE   PO425198  11.934  25.574  14.081 -0.0219  0.0323  0.1312
 2148DOPE   GL125199  12.118  25.498  13.735  0.0255 -0.0782  0.1495
 2148DOPE   GL225200  12.030  25.363  13.497 -0.0287 -0.3326 -0.1022
 2148DOPE   C1A25201  12.494  25.273  13.548  0.0201  0.1184  0.0579
 2148DOPE   D2A25202  12.784  25.230  13.147 -0.1298 -0.0556 -0.1880
 2148DOPE   C3A25203  12.971  24.835  12.958 -0.2218  0.1298 -0.1513
 2148DOPE   C4A25204  13.291  24.545  12.816  0.2736  0.1156 -0.2245
 2148DOPE   C1B25205  11.705  25.079  13.268  0.0671  0.0914  0.0204
 2148DOPE   D2B25206  11.332  25.023  12.961 -0.1694 -0.1097 -0.2701
 2148DOPE   C3B25207  11.500  24.941  12.577  0.1292  0.1270 -0.2098
 2148DOPE   C4B25208  11.777  25.018  12.241 -0.0706  0.1384  0.1134
 2149DOPC   NC325209  12.369  24.759  14.344  0.1794 -0.2274 -0.0266
 2149DOPC   PO425210  12.636  24.547  14.129 -0.1785  0.2816 -0.2216
 2149DOPC   GL125211  12.686  24.371  13.656  0.0904 -0.1629  0.1176
 2149DOPC   GL225212  12.386  24.488  13.647  0.0521  0.2645  0.0615
 2149DOPC   C1A25213  12.638  24.651  13.277 -0.0634  0.0998  0.1462
 2149DOPC   D2A25214  12.477  24.601  12.861  0.0067 -0.0472  0.0406
 2149DOPC   C3A25215  12.443  24.369  12.386 -0.0016  0.1559 -0.0165
 2149DOPC   C4A25216  12.228  24.237  11.967  0.2566  0.1341  0.0856
 2149DOPC   C1B25217  12.208  24.261  13.272 -0.0467  0.0543  0.0160
 2149DOPC   D2B25218  12.346  24.083  12.858 -0.3653 -0.0903 -0.1173
 2149DOPC   C3B25219  12.207  23.856  12.465 -0.0709 -0.1308  0.0656
 2149DOPC   C4B25220  12.238  23.732  12.020 -0.0881  0.0459  0.0835
 2150POSM   NC325221  23.998  30.324  13.887  0.1795  0.3446  0.2726
 2150POSM   PO425222  23.921  29.978  13.739  0.4560  0.0561  0.3109
 2150POSM   AM125223  23.941  30.065  13.444  0.1105  0.2785 -0.3023
 2150POSM   AM225224  24.071  30.286  13.310 -0.2904  0.4389  0.0665
 2150POSM   T1A25225  23.903  30.065  12.935 -0.0599 -0.2060 -0.1588
 2150POSM   C2A25226  23.893  30.460  12.640  0.0764  0.2071  0.2385
 2150POSM   C3A25227  23.899  30.799  12.365  0.2324 -0.1899  0.1654
 2150POSM   C1B25228  24.243  30.375  13.021 -0.0572 -0.3547  0.1865
 2150POSM   D2B25229  24.442  30.199  12.644 -0.0701  0.0375 -0.0945
 2150POSM   C3B25230  24.898  30.043  12.569  0.0701  0.2467 -0.3338
 2150POSM   C4B25231  25.258  29.981  12.261  0.3031 -0.0852 -0.1653
 2151POSM   NC325232  11.897  31.192  14.203 -0.2449  0.0646  0.2970
 2151POSM   PO425233  11.667  31.502  14.147 -0.1168  0.0626  0.1517
 2151POSM   AM125234  11.544  31.547  13.822  0.4140  0.0193 -0.0879
 2151POSM   AM225235  11.329  31.734  13.694  0.3783 -0.1299 -0.1918
 2151POSM   T1A25236  11.418  31.418  13.334  0.1063 -0.1211  0.0400
 2151POSM   C2A25237  11.498  31.352  12.879 -0.2873 -0.1637  0.0796
 2151POSM   C3A25238  11.389  31.297  12.396 -0.0870 -0.3224 -0.0343
 2151POSM   C1B25239  11.386  31.955  13.429  0.0289  0.0480  0.0248
 2151POSM   D2B25240  11.428  32.319  13.107  0.2943 -0.0590 -0.0392
 2151POSM   C3B25241  11.652  32.274  12.716 -0.4513  0.2418  0.3284
 2151POSM   C4B25242  11.964  32.450  12.408  0.1709  0.0169  0.0800
 2152POSM   NC325243  13.304  27.381  13.593  0.1794  0.1202  0.1669
 2152POSM   PO425244  13.678  27.346  13.403 -0.1368  0.2600 -0.2021
 2152POSM   AM125245  13.684  27.261  13.074 -0.0625  0.2928  0.0016
 2152POSM   AM225246  13.822  27.049  12.896  0.0742  0.3332  0.0133
 2152POSM   T1A25247  13.644  27.424  12.627 -0.1146  0.1507  0.0063
 2152POSM   C2A25248  13.646  27.674  12.218 -0.2409  0.1562 -0.0215
 2152POSM   C3A25249  13.973  27.771  11.923  0.0340  0.0386  0.2906
 2152POSM   C1B25250  14.071  26.933  12.663  0.1548  0.0403  0.1333
 2152POSM   D2B25251  14.419  26.975  12.309  0.1727  0.2601 -0.0723
 2152POSM   C3B25252  14.834  26.791  12.231 -0.0045  0.3640 -0.0735
 2152POSM   C4B25253  15.208  27.024  12.269 -0.1869 -0.0197 -0.2058
 2153POSM   NC325254  12.729  30.431  14.189 -0.1290  0.2997  0.1580
 2153POSM   PO425255  12.462  30.264  13.938 -0.0238  0.1008  0.4295
 2153POSM   AM125256  12.482  30.397  13.622  0.2272 -0.0224  0.2772
 2153POSM   AM225257  12.345  30.358  13.417 -0.0605 -0.3149  0.1721
 2153POSM   T1A25258  12.764  30.663  13.329  0.0855  0.0244 -0.1358
 2153POSM   C2A25259  13.141  30.833  13.079 -0.0686  0.3145  0.4454
 2153POSM   C3A25260  13.571  30.912  13.158 -0.0421 -0.1180  0.0087
 2153POSM   C1B25261  12.188  30.279  13.121 -0.0179 -0.3254  0.1299
 2153POSM   D2B25262  11.970  30.036  12.824  0.0330  0.3339  0.2687
 2153POSM   C3B25263  11.888  29.596  12.883  0.1280 -0.1052  0.0822
 2153POSM   C4B25264  12.019  29.227  12.598  0.1202  0.1735  0.0090
 2154DOPC   NC325265  23.887  31.163  14.348  0.2288 -0.0651 -0.1553
 2154DOPC   PO425266  23.712  31.333  14.060  0.1320  0.2708 -0.2295
 2154DOPC   GL125267  23.739  31.564  13.717  0.0671  0.0066 -0.1070
 2154DOPC   GL225268  23.476  31.728  13.667 -0.1187 -0.2648  0.3306
 2154DOPC   C1A25269  24.059  31.350  13.420  0.2020 -0.0726 -0.1506
 2154DOPC   D2A25270  24.375  31.283  13.098  0.0021  0.4652  0.0555
 2154DOPC   C3A25271  24.141  31.195  12.657 -0.1056 -0.2363  0.1727
 2154DOPC   C4A25272  23.912  31.379  12.265  0.1905 -0.0423  0.0256
 2154DOPC   C1B25273  23.488  31.461  13.320 -0.0323  0.0483  0.2816
 2154DOPC   D2B25274  23.786  31.346  12.964 -0.1533  0.3714 -0.2847
 2154DOPC   C3B25275  24.054  31.683  12.808  0.0188 -0.0946  0.1104
 2154DOPC   C4B25276  24.543  31.831  12.748 -0.1052 -0.0119 -0.0894
 2155POSM   NC325277  23.365  30.897  14.087 -0.0190  0.0580  0.0721
 2155POSM   PO425278  23.728  30.783  14.150  0.0508  0.1558 -0.1006
 2155POSM   AM125279  23.810  30.892  13.866 -0.3050  0.0099  0.1026
 2155POSM   AM225280  23.738  31.065  13.653 -0.0071 -0.0529  0.0222
 2155POSM   T1A25281  24.124  30.860  13.486  0.0191 -0.1361 -0.1073
 2155POSM   C2A25282  24.113  30.865  13.051 -0.0042  0.0510 -0.0600
 2155POSM   C3A25283  24.331  30.728  12.715  0.1058  0.2255 -0.1122
 2155POSM   C1B25284  23.646  30.952  13.321  0.0173 -0.1402  0.0173
 2155POSM   D2B25285  23.667  30.800  12.864  0.1094 -0.0677  0.3047
 2155POSM   C3B25286  23.511  31.065  12.508 -0.0394  0.1156  0.0103
 2155POSM   C4B25287  23.330  31.467  12.361  0.0308  0.0013 -0.3138
 2156DOPS   CNO25288  18.924  29.613  14.710 -0.2976  0.0802 -0.1245
 2156DOPS   PO425289  18.671  29.722  14.451  0.2815  0.1303  0.0967
 2156DOPS   GL125290  18.665  29.646  14.122 -0.1487  0.1477 -0.2421
 2156DOPS   GL225291  18.589  29.889  13.911  0.0458  0.2465  0.2242
 2156DOPS   C1A25292  19.048  29.704  13.892 -0.1282  0.1684  0.3138
 2156DOPS   D2A25293  19.249  29.595  13.443  0.0168  0.2769 -0.0973
 2156DOPS   C3A25294  19.041  29.721  13.037 -0.0316  0.2181  0.2239
 2156DOPS   C4A25295  18.905  29.802  12.636 -0.0709  0.0621  0.0582
 2156DOPS   C1B25296  18.412  29.943  13.475  0.2142  0.2537 -0.0420
 2156DOPS   D2B25297  18.469  29.884  13.041  0.2077 -0.2441  0.1726
 2156DOPS   C3B25298  18.785  30.243  12.985 -0.0010 -0.0663 -0.2886
 2156DOPS   C4B25299  18.713  30.667  12.900 -0.0758 -0.1181  0.1199
 2157DOPS   CNO25300  12.672  28.105  13.769  0.0438  0.0267  0.0887
 2157DOPS   PO425301  12.786  28.352  13.477  0.1053 -0.1471  0.1727
 2157DOPS   GL125302  12.660  28.274  13.099 -0.1305  0.0034  0.2560
 2157DOPS   GL225303  12.437  28.108  12.909 -0.0314  0.0643 -0.0093
 2157DOPS   C1A25304  12.672  28.555  12.638  0.2612 -0.0082 -0.1387
 2157DOPS   D2A25305  13.049  28.756  12.330 -0.0446  0.2366  0.1884
 2157DOPS   C3A25306  13.194  28.673  11.869 -0.0868 -0.0488  0.3030
 2157DOPS   C4A25307  13.618  28.642  11.669 -0.1951  0.2383  0.2478
 2157DOPS   C1B25308  12.414  28.182  12.451 -0.0740 -0.2254 -0.1629
 2157DOPS   D2B25309  12.417  28.162  11.984  0.0372  0.1292  0.0728
 2157DOPS   C3B25310  12.318  28.186  11.495 -0.2890 -0.2024 -0.0853
 2157DOPS   C4B25311  12.472  28.375  11.135  0.1431 -0.5217  0.0948
 2158DOPS   CNO25312  16.657  30.342  15.012 -0.1291  0.0733 -0.0082
 2158DOPS   PO425313  16.969  30.245  14.790 -0.0025  0.0186 -0.0927
 2158DOPS   GL125314  16.916  30.247  14.427  0.2771  0.1372  0.0076
 2158DOPS   GL225315  17.158  30.069  14.283 -0.1993 -0.0974  0.0441
 2158DOPS   C1A25316  16.857  30.482  14.051 -0.0746  0.2134  0.1613
 2158DOPS   D2A25317  16.838  30.512  13.606  0.1033  0.1456 -0.1749
 2158DOPS   C3A25318  17.032  30.665  13.220 -0.0837 -0.0895  0.0114
 2158DOPS   C4A25319  17.074  30.721  12.766  0.0532 -0.1225 -0.1206
 2158DOPS   C1B25320  17.088  29.951  13.829 -0.1003 -0.4829  0.1052
 2158DOPS   D2B25321  17.102  29.931  13.361  0.0130 -0.1325  0.3023
 2158DOPS   C3B25322  17.424  29.684  13.111  0.0889  0.2419 -0.1628
 2158DOPS   C4B25323  17.663  29.829  12.718  0.0492 -0.1669 -0.0620
 2159POSM   NC325324  20.163  25.011  14.606 -0.0036  0.0224  0.2392
 2159POSM   PO425325  20.217  25.426  14.639  0.1601 -0.1618  0.0259
 2159POSM   AM125326  20.227  25.342  14.276  0.3021 -0.0812 -0.1578
 2159POSM   AM225327  20.237  25.114  14.109 -0.1678 -0.1209  0.0351
 2159POSM   T1A25328  20.380  25.413  13.787 -0.1743 -0.1431  0.0958
 2159POSM   C2A25329  20.765  25.167  13.678 -0.0340 -0.1479  0.1774
 2159POSM   C3A25330  20.998  25.233  13.285 -0.2703 -0.2088 -0.1099
 2159POSM   C1B25331  20.094  24.985  13.893  0.6194  0.0055  0.0194
 2159POSM   D2B25332  20.212  24.997  13.428  0.1168  0.0863  0.2102
 2159POSM   C3B25333  20.544  25.049  13.138 -0.0018 -0.1647 -0.1822
 2159POSM   C4B25334  20.918  24.976  12.880 -0.6728  0.0554  0.0374
 2160DOPE   NH325335  17.287  33.457  14.614  0.0570 -0.1877 -0.1083
 2160DOPE   PO425336  17.190  33.721  14.429  0.0806  0.0442 -0.2105
 2160DOPE   GL125337  17.257  33.755  14.053 -0.1341  0.2020 -0.0520
 2160DOPE   GL225338  17.442  33.993  14.042  0.1905  0.2002 -0.1737
 2160DOPE   C1A25339  17.206  33.829  13.610 -0.1258  0.0285 -0.0700
 2160DOPE   D2A25340  17.468  33.681  13.257  0.0929  0.1957  0.2107
 2160DOPE   C3A25341  17.446  33.701  12.778  0.1065 -0.0956 -0.1389
 2160DOPE   C4A25342  17.418  33.686  12.290 -0.1092  0.3053  0.3498
 2160DOPE   C1B25343  17.653  33.965  13.657 -0.1205 -0.1572  0.0673
 2160DOPE   D2B25344  17.787  33.995  13.228  0.1877 -0.0995 -0.0087
 2160DOPE   C3B25345  17.871  33.957  12.742 -0.1505  0.0284  0.1458
 2160DOPE   C4B25346  17.918  33.593  12.443  0.0684 -0.0661  0.0979
 2161POSM   NC325347  15.002  25.341  14.919  0.0240  0.1871  0.3087
 2161POSM   PO425348  15.147  25.685  15.062 -0.2511  0.2170  0.2336
 2161POSM   AM125349  15.267  25.701  14.731  0.2443 -0.3984 -0.1465
 2161POSM   AM225350  15.474  25.514  14.621  0.0356 -0.1850 -0.0161
 2161POSM   T1A25351  15.261  25.907  14.277 -0.0356  0.2555  0.2656
 2161POSM   C2A25352  15.199  26.212  13.924  0.0922  0.1189 -0.1423
 2161POSM   C3A25353  15.278  26.455  13.540 -0.0495  0.0951  0.0705
 2161POSM   C1B25354  15.548  25.240  14.443  0.0508  0.2198 -0.1887
 2161POSM   D2B25355  15.640  24.957  14.073 -0.2577 -0.0982  0.3086
 2161POSM   C3B25356  15.655  24.583  13.789  0.0283 -0.0843  0.1330
 2161POSM   C4B25357  15.843  24.180  13.597  0.1881 -0.1651  0.1105
 2162DOPS   CNO25358  17.772  28.742  14.053  0.0443  0.2756 -0.2762
 2162DOPS   PO425359  17.676  28.347  14.134 -0.2069 -0.0593  0.0671
 2162DOPS   GL125360  17.928  28.333  13.813 -0.0625  0.2976  0.1092
 2162DOPS   GL225361  18.057  28.524  13.646  0.0303  0.0168 -0.0167
 2162DOPS   C1A25362  17.669  28.306  13.354  0.2771 -0.1257 -0.3302
 2162DOPS   D2A25363  17.748  28.258  12.946 -0.0448 -0.0449 -0.0541
 2162DOPS   C3A25364  17.841  28.651  12.771  0.1010  0.0864 -0.0894
 2162DOPS   C4A25365  18.000  28.691  12.345  0.3263  0.0298  0.1724
 2162DOPS   C1B25366  18.418  28.868  13.483 -0.0660 -0.3168 -0.1071
 2162DOPS   D2B25367  18.601  29.092  13.088  0.0329  0.0625 -0.0405
 2162DOPS   C3B25368  18.576  29.415  12.725  0.2702 -0.1820 -0.4670
 2162DOPS   C4B25369  18.467  29.866  12.535  0.1294 -0.0025 -0.3054
 2163POSM   NC325370  20.401  27.173  14.774 -0.0776 -0.0491 -0.1286
 2163POSM   PO425371  20.093  27.399  14.815 -0.0907 -0.0591 -0.0810
 2163POSM   AM125372  20.080  27.384  14.466 -0.2540 -0.3110  0.0604
 2163POSM   AM225373  19.828  27.429  14.263 -0.2212  0.0054 -0.1172
 2163POSM   T1A25374  20.318  27.179  14.090 -0.0165 -0.0876  0.0404
 2163POSM   C2A25375  20.474  26.868  13.766 -0.0709  0.0677 -0.0518
 2163POSM   C3A25376  20.678  26.554  13.475 -0.1798 -0.1631  0.2147
 2163POSM   C1B25377  19.909  27.360  13.921 -0.0106 -0.1749 -0.2510
 2163POSM   D2B25378  20.294  27.309  13.646  0.0195  0.1602  0.1916
 2163POSM   C3B25379  20.461  27.066  13.291  0.1206  0.1467 -0.0137
 2163POSM   C4B25380  20.409  27.115  12.858 -0.1294  0.0145  0.0354
 2164POSM   NC325381  17.770  26.152  14.722  0.0309  0.1992  0.0073
 2164POSM   PO425382  18.032  25.942  14.502 -0.0758 -0.2818 -0.0806
 2164POSM   AM125383  18.041  26.102  14.219 -0.0037  0.2680  0.0185
 2164POSM   AM225384  18.212  26.127  13.972  0.2172  0.1015  0.5089
 2164POSM   T1A25385  17.890  26.456  13.923  0.0679 -0.2379  0.0656
 2164POSM   C2A25386  17.593  26.444  13.575 -0.0366 -0.2881 -0.0958
 2164POSM   C3A25387  17.147  26.404  13.691  0.1864  0.0083 -0.1262
 2164POSM   C1B25388  18.089  25.951  13.717  0.2280 -0.2240 -0.4484
 2164POSM   D2B25389  17.678  26.001  13.459  0.0962 -0.1648  0.1833
 2164POSM   C3B25390  17.858  26.265  13.113  0.0441  0.0026 -0.1147
 2164POSM   C4B25391  18.205  26.278  12.819 -0.0397  0.1132  0.0290
 2165POSM   NC325392  15.629  31.271  14.285 -0.3041  0.1731 -0.2651
 2165POSM   PO425393  15.600  31.668  14.449 -0.2015  0.0042  0.0854
 2165POSM   AM125394  15.765  31.755  14.173 -0.0744 -0.2732  0.1876
 2165POSM   AM225395  15.846  31.586  13.961  0.1944 -0.2332 -0.0389
 2165POSM   T1A25396  15.714  31.946  13.649  0.2649  0.1556 -0.0087
 2165POSM   C2A25397  15.800  32.058  13.213  0.0538 -0.1795 -0.1718
 2165POSM   C3A25398  15.787  32.017  12.731  0.3115 -0.1525 -0.1237
 2165POSM   C1B25399  15.850  31.489  13.616 -0.1594 -0.0786 -0.0006
 2165POSM   D2B25400  15.697  31.121  13.311  0.1569 -0.0573 -0.0801
 2165POSM   C3B25401  16.062  30.825  13.101  0.0982 -0.0792  0.1725
 2165POSM   C4B25402  16.504  30.729  13.216  0.0570 -0.0218 -0.1100
 2166DOPE   NH325403  23.133  29.345  13.682  0.0828 -0.1920  0.2439
 2166DOPE   PO425404  23.139  29.658  13.580 -0.0412 -0.0375  0.2146
 2166DOPE   GL125405  23.204  29.565  13.230 -0.1066  0.2618 -0.2027
 2166DOPE   GL225406  23.100  29.769  13.046 -0.0291  0.0655 -0.3916
 2166DOPE   C1A25407  23.188  29.166  12.985 -0.0789  0.0863  0.0173
 2166DOPE   D2A25408  23.229  28.743  12.833 -0.1449 -0.1987  0.2129
 2166DOPE   C3A25409  23.376  28.334  12.732  0.0985  0.0671  0.0315
 2166DOPE   C4A25410  23.520  27.869  12.595 -0.4171 -0.0266 -0.2754
 2166DOPE   C1B25411  23.395  29.970  12.764  0.0747  0.1506 -0.0968
 2166DOPE   D2B25412  23.531  29.929  12.352 -0.0232  0.3262 -0.2506
 2166DOPE   C3B25413  23.754  29.782  12.002 -0.2374 -0.1116 -0.5187
 2166DOPE   C4B25414  24.196  29.632  12.051 -0.2446 -0.0328 -0.1189
 2167DOPE   NH325415  12.713  29.841  13.801 -0.0486 -0.3174 -0.0170
 2167DOPE   PO425416  12.948  29.915  13.628  0.0084  0.1152  0.0137
 2167DOPE   GL125417  12.921  30.052  13.292  0.0447  0.1978 -0.4377
 2167DOPE   GL225418  13.121  30.222  13.196 -0.2258 -0.0014  0.2681
 2167DOPE   C1A25419  12.659  30.246  13.016 -0.1764 -0.2508  0.3059
 2167DOPE   D2A25420  12.459  30.328  12.579  0.2163  0.0687  0.1820
 2167DOPE   C3A25421  12.574  30.157  12.168 -0.0590 -0.1939  0.2630
 2167DOPE   C4A25422  12.741  30.109  11.759  0.0407 -0.1023  0.0086
 2167DOPE   C1B25423  13.047  30.366  12.724 -0.0435 -0.1022  0.1330
 2167DOPE   D2B25424  12.973  30.390  12.268 -0.1190  0.0256  0.1235
 2167DOPE   C3B25425  13.109  30.777  12.093 -0.0126  0.2350  0.3388
 2167DOPE   C4B25426  13.562  30.905  12.057 -0.1569  0.0403  0.1444
 2168DOPS   CNO25427  21.366  20.355  13.883 -0.0947  0.1333 -0.4034
 2168DOPS   PO425428  21.213  20.004  13.869 -0.1243 -0.2652 -0.1592
 2168DOPS   GL125429  21.311  20.201  13.494  0.1702  0.0010 -0.0057
 2168DOPS   GL225430  21.210  20.391  13.359 -0.3391 -0.0586 -0.0214
 2168DOPS   C1A25431  21.403  19.959  13.122 -0.1413  0.0349 -0.1462
 2168DOPS   D2A25432  21.439  19.830  12.682 -0.1031  0.2498  0.0579
 2168DOPS   C3A25433  21.190  19.992  12.345 -0.0237  0.1388  0.1325
 2168DOPS   C4A25434  20.911  20.199  12.075  0.0085  0.5320 -0.1101
 2168DOPS   C1B25435  21.509  20.677  13.255 -0.0435 -0.0950  0.2775
 2168DOPS   D2B25436  21.728  21.057  13.158 -0.2864 -0.1893 -0.1056
 2168DOPS   C3B25437  21.752  21.511  13.287  0.0302 -0.0644  0.0349
 2168DOPS   C4B25438  21.687  22.016  13.277 -0.0227  0.2943 -0.0568
 2169DOPS   CNO25439  12.913  27.190  13.242 -0.3241  0.3279 -0.2307
 2169DOPS   PO425440  13.010  26.972  13.541  0.1685 -0.2451  0.0959
 2169DOPS   GL125441  13.273  26.953  13.184  0.1349  0.1588  0.2769
 2169DOPS   GL225442  13.538  26.872  13.274 -0.1193  0.0755 -0.0851
 2169DOPS   C1A25443  13.299  27.070  12.741 -0.3059  0.2528  0.0598
 2169DOPS   D2A25444  13.353  27.083  12.277  0.1496 -0.1606 -0.2500
 2169DOPS   C3A25445  13.046  27.301  11.920  0.0919 -0.4954  0.1666
 2169DOPS   C4A25446  12.937  27.427  11.477  0.3216 -0.1928 -0.2243
 2169DOPS   C1B25447  13.872  26.569  13.095 -0.1417  0.2430 -0.0869
 2169DOPS   D2B25448  14.034  26.273  12.793 -0.0222 -0.1402 -0.1554
 2169DOPS   C3B25449  14.183  26.475  12.461  0.2044  0.3640  0.0646
 2169DOPS   C4B25450  14.464  26.544  12.082 -0.0977  0.0932  0.1654
 2170DOPE   NH325451  15.517  32.901  14.226 -0.0803 -0.2691 -0.0475
 2170DOPE   PO425452  15.525  32.846  13.887 -0.1890  0.0396  0.0455
 2170DOPE   GL125453  15.730  32.798  13.575  0.1166 -0.1198  0.0665
 2170DOPE   GL225454  15.713  33.102  13.359  0.0933  0.3503 -0.3177
 2170DOPE   C1A25455  15.853  32.596  13.154  0.0693  0.2558 -0.2609
 2170DOPE   D2A25456  15.719  32.537  12.663  0.0831 -0.0441  0.1127
 2170DOPE   C3A25457  15.494  32.752  12.329 -0.0898  0.1798  0.1451
 2170DOPE   C4A25458  15.127  33.007  12.322  0.0611  0.0450  0.2509
 2170DOPE   C1B25459  15.797  32.996  12.865  0.0944  0.1146  0.1178
 2170DOPE   D2B25460  15.647  33.244  12.520  0.2121  0.0471 -0.0298
 2170DOPE   C3B25461  15.692  33.662  12.282 -0.0421  0.0396  0.1569
 2170DOPE   C4B25462  15.480  34.081  12.186 -0.1315  0.1292  0.0060
 2171DOPC   NC325463  13.632  31.588  14.630 -0.1302  0.0183  0.1724
 2171DOPC   PO425464  13.809  31.323  14.385  0.1673 -0.4204 -0.0297
 2171DOPC   GL125465  13.516  31.382  14.101  0.2747 -0.5861  0.0042
 2171DOPC   GL225466  13.440  31.235  13.962 -0.3164  0.0174 -0.0709
 2171DOPC   C1A25467  13.795  31.567  13.753  0.1676 -0.0486  0.0291
 2171DOPC   D2A25468  14.045  31.757  13.412 -0.2106  0.1811 -0.0251
 2171DOPC   C3A25469  13.997  31.820  13.007 -0.3327 -0.0795  0.1430
 2171DOPC   C4A25470  14.344  31.808  12.646 -0.0980  0.0286  0.3811
 2171DOPC   C1B25471  13.510  31.264  13.491  0.1428  0.1421  0.0909
 2171DOPC   D2B25472  13.302  31.399  13.067  0.0110  0.1396  0.3093
 2171DOPC   C3B25473  13.537  31.208  12.678  0.1067  0.2558  0.1787
 2171DOPC   C4B25474  13.857  31.146  12.354  0.0536 -0.0509  0.0190
 2172DOPE   NH325475  18.874  31.451  14.332 -0.0398 -0.2169  0.2710
 2172DOPE   PO425476  19.159  31.596  14.373 -0.0504  0.3207  0.0788
 2172DOPE   GL125477  19.087  31.620  13.987  0.0804  0.3085  0.0824
 2172DOPE   GL225478  19.178  31.820  13.757 -0.1495  0.2647 -0.4256
 2172DOPE   C1A25479  18.793  31.472  13.624  0.0466  0.0512 -0.1696
 2172DOPE   D2A25480  18.507  31.563  13.271 -0.1243 -0.0927  0.1301
 2172DOPE   C3A25481  18.282  31.515  12.847  0.0346  0.1301 -0.0824
 2172DOPE   C4A25482  17.958  31.770  12.625 -0.0589  0.1187 -0.0506
 2172DOPE   C1B25483  18.931  31.923  13.418  0.0580 -0.1011  0.1174
 2172DOPE   D2B25484  18.685  31.978  13.021 -0.1203 -0.1640 -0.1698
 2172DOPE   C3B25485  18.623  31.761  12.618  0.1047  0.0482 -0.0021
 2172DOPE   C4B25486  18.367  31.589  12.273  0.2416 -0.0559 -0.0304
 2173DOPC   NC325487   8.743  25.315  13.628  0.0381  0.0785  0.5666
 2173DOPC   PO425488   8.638  25.131  13.267 -0.0005  0.1219  0.3415
 2173DOPC   GL125489   8.750  24.903  12.949 -0.0899 -0.0759  0.1829
 2173DOPC   GL225490   8.808  25.086  12.722 -0.0639  0.0204 -0.0854
 2173DOPC   C1A25491   9.146  24.664  12.831  0.0721  0.1014  0.5465
 2173DOPC   D2A25492   9.515  24.704  12.539  0.1703  0.0320 -0.2063
 2173DOPC   C3A25493   9.477  24.565  12.145  0.2506 -0.2171 -0.1568
 2173DOPC   C4A25494   9.641  24.652  11.735  0.3014 -0.2084  0.0674
 2173DOPC   C1B25495   9.228  25.155  12.540 -0.0208  0.0291 -0.2750
 2173DOPC   D2B25496   9.499  25.423  12.267 -0.1393  0.1721 -0.1890
 2173DOPC   C3B25497   9.812  25.413  11.891  0.0626  0.0133  0.3210
 2173DOPC   C4B25498   9.942  25.113  11.539  0.0405  0.1215 -0.1313
 2174DOPE   NH325499  19.750  28.380  14.686 -0.2490  0.0886 -0.2305
 2174DOPE   PO425500  19.879  28.208  14.458 -0.1495 -0.1799  0.5662
 2174DOPE   GL125501  20.031  28.155  14.071 -0.0095 -0.1839 -0.1126
 2174DOPE   GL225502  19.908  27.887  14.084 -0.0942 -0.1058 -0.1522
 2174DOPE   C1A25503  20.371  28.213  13.798 -0.1066 -0.0049  0.0191
 2174DOPE   D2A25504  20.588  28.624  13.566  0.0941  0.1311  0.0610
 2174DOPE   C3A25505  20.897  28.481  13.151  0.0224 -0.0644 -0.2103
 2174DOPE   C4A25506  20.745  28.454  12.712 -0.2303 -0.1214  0.1223
 2174DOPE   C1B25507  20.049  27.834  13.691  0.1278 -0.1227 -0.3194
 2174DOPE   D2B25508  20.166  28.148  13.383 -0.2091 -0.0780 -0.4274
 2174DOPE   C3B25509  19.797  28.249  13.050 -0.1037  0.0171 -0.0860
 2174DOPE   C4B25510  19.334  28.350  13.187 -0.0956  0.0361  0.0156
 2175DOPE   NH325511  17.620  33.993  14.476 -0.0667 -0.0753 -0.0270
 2175DOPE   PO425512  17.371  34.144  14.576 -0.0903  0.1879  0.1101
 2175DOPE   GL125513  17.411  34.421  14.284 -0.0899  0.0145 -0.0619
 2175DOPE   GL225514  17.187  34.468  14.073 -0.0240 -0.1260  0.0335
 2175DOPE   C1A25515  17.721  34.456  13.929 -0.0123  0.2549  0.3218
 2175DOPE   D2A25516  18.123  34.342  13.708  0.0496 -0.2582  0.1692
 2175DOPE   C3A25517  18.072  34.413  13.231 -0.0520 -0.0667  0.0998
 2175DOPE   C4A25518  17.792  34.623  12.942  0.2632 -0.1805  0.0318
 2175DOPE   C1B25519  17.160  34.303  13.637  0.0419 -0.0639  0.1549
 2175DOPE   D2B25520  17.091  34.190  13.190 -0.0612 -0.1327  0.0397
 2175DOPE   C3B25521  17.343  34.246  12.856  0.0498  0.0542  0.0599
 2175DOPE   C4B25522  17.473  34.606  12.560 -0.2745 -0.0359  0.0313
 2176DOPC   NC325523  12.571  22.599  13.598 -0.1701  0.1671  0.2532
 2176DOPC   PO425524  12.297  22.398  13.418 -0.2288 -0.1928  0.2457
 2176DOPC   GL125525  12.328  22.276  13.059 -0.1304  0.1420  0.0377
 2176DOPC   GL225526  12.071  22.192  12.954 -0.1062  0.1910 -0.4351
 2176DOPC   C1A25527  12.634  22.117  12.756  0.1111  0.4243  0.2778
 2176DOPC   D2A25528  12.628  21.771  12.418  0.2117 -0.3071  0.0012
 2176DOPC   C3A25529  12.923  21.434  12.245 -0.1523  0.4281 -0.1308
 2176DOPC   C4A25530  13.367  21.485  12.030 -0.0227  0.1990  0.0318
 2176DOPC   C1B25531  12.125  22.258  12.474  0.1490  0.1539  0.3317
 2176DOPC   D2B25532  12.380  22.110  12.070 -0.0572 -0.0037  0.1192
 2176DOPC   C3B25533  12.808  22.254  11.831  0.1525 -0.0210 -0.2974
 2176DOPC   C4B25534  13.047  22.696  11.810  0.0412 -0.0595  0.0693
 2177DOPC   NC325535  21.404  24.823  14.376 -0.1413  0.1357  0.0115
 2177DOPC   PO425536  21.433  24.428  14.354 -0.1249  0.0030  0.2121
 2177DOPC   GL125537  21.594  24.472  13.900 -0.2259 -0.1001  0.1661
 2177DOPC   GL225538  21.541  24.152  13.902  0.0193  0.4149 -0.4093
 2177DOPC   C1A25539  22.048  24.502  13.757 -0.0908 -0.2788 -0.1881
 2177DOPC   D2A25540  22.420  24.552  13.494  0.1296 -0.3043 -0.2893
 2177DOPC   C3A25541  22.691  24.686  13.156 -0.2128  0.1718  0.2081
 2177DOPC   C4A25542  22.622  24.748  12.742 -0.2102  0.3113 -0.1098
 2177DOPC   C1B25543  21.458  23.796  13.570  0.0289 -0.0076  0.1485
 2177DOPC   D2B25544  21.830  23.589  13.334  0.3279 -0.0062  0.0171
 2177DOPC   C3B25545  21.892  23.269  12.983 -0.0505  0.0824 -0.1355
 2177DOPC   C4B25546  22.305  22.993  13.031 -0.5217  0.1654  0.1234
 2178DOPE   NH325547  18.785  23.613  14.811  0.0550  0.0004 -0.3589
 2178DOPE   PO425548  18.972  23.521  14.597  0.1098  0.1317 -0.1195
 2178DOPE   GL125549  19.085  23.600  14.208 -0.1218 -0.0464  0.2449
 2178DOPE   GL225550  19.340  23.696  14.123 -0.0284 -0.1851 -0.1883
 2178DOPE   C1A25551  18.835  23.921  13.919 -0.0057 -0.1669  0.0399
 2178DOPE   D2A25552  18.697  24.299  13.674 -0.0306 -0.2029  0.4776
 2178DOPE   C3A25553  18.279  24.309  13.345  0.3429 -0.0193 -0.0235
 2178DOPE   C4A25554  17.937  24.098  13.137 -0.0461  0.2537 -0.3734
 2178DOPE   C1B25555  19.614  23.694  13.743  0.2800 -0.0093  0.2883
 2178DOPE   D2B25556  19.996  23.828  13.510 -0.0896  0.2232 -0.0583
 2178DOPE   C3B25557  20.177  24.252  13.500 -0.0297  0.0886  0.2172
 2178DOPE   C4B25558  20.620  24.324  13.380  0.1181  0.2118 -0.0830
 2179DOPE   NH325559  21.987  31.799  14.119 -0.0369 -0.4197 -0.2390
 2179DOPE   PO425560  21.870  32.096  14.014  0.1629  0.1451  0.3541
 2179DOPE   GL125561  22.063  32.395  13.747 -0.2309 -0.2240  0.1054
 2179DOPE   GL225562  21.877  32.317  13.527  0.0770 -0.1827 -0.1878
 2179DOPE   C1A25563  22.377  32.500  13.411  0.0566 -0.0442  0.1494
 2179DOPE   D2A25564  22.752  32.580  13.147 -0.0294 -0.2359 -0.0484
 2179DOPE   C3A25565  23.181  32.612  12.901 -0.0564  0.1258  0.0701
 2179DOPE   C4A25566  23.315  32.925  12.576 -0.0078 -0.2343  0.3700
 2179DOPE   C1B25567  21.814  32.322  13.088 -0.1343 -0.0607  0.1185
 2179DOPE   D2B25568  21.579  32.233  12.703 -0.0793 -0.3246  0.0524
 2179DOPE   C3B25569  21.631  32.052  12.260 -0.0727 -0.5103  0.0517
 2179DOPE   C4B25570  21.710  31.731  11.971  0.2831  0.1478 -0.0576
 2180DOPS   CNO25571  11.825  27.886  13.379  0.3219 -0.1371 -0.0005
 2180DOPS   PO425572  12.041  27.822  13.054  0.2000 -0.0565 -0.2605
 2180DOPS   GL125573  12.193  27.756  12.708 -0.0237  0.2834 -0.0489
 2180DOPS   GL225574  12.021  27.750  12.533 -0.2076 -0.0388 -0.0138
 2180DOPS   C1A25575  12.413  27.374  12.562 -0.1989 -0.2374  0.1465
 2180DOPS   D2A25576  12.616  27.349  12.186 -0.0048  0.2463 -0.2319
 2180DOPS   C3A25577  12.508  27.072  11.836 -0.0862  0.2284 -0.0831
 2180DOPS   C4A25578  12.814  26.858  11.514 -0.1516  0.0863  0.2088
 2180DOPS   C1B25579  12.256  27.707  12.178 -0.2160 -0.3351  0.0958
 2180DOPS   D2B25580  12.220  27.569  11.686 -0.3070 -0.2033 -0.3200
 2180DOPS   C3B25581  11.910  27.207  11.625  0.1102 -0.0312  0.0034
 2180DOPS   C4B25582  11.468  27.293  11.608  0.0086  0.2700 -0.0459
 2181POSM   NC325583  16.947   0.212  13.966  0.0352 -0.0914  0.2793
 2181POSM   PO425584  16.535   0.205  14.168 -0.2507 -0.1177 -0.2674
 2181POSM   AM125585  16.437   0.232  13.845  0.0372 -0.0574 -0.0334
 2181POSM   AM225586  16.183   0.215  13.680  0.1630 -0.1931  0.1524
 2181POSM   T1A25587  16.522   0.304  13.356 -0.1065 -0.0382  0.3038
 2181POSM   C2A25588  16.344   0.137  12.950  0.1273  0.0915  0.0003
 2181POSM   C3A25589  16.467  -0.032  12.495 -0.1368 -0.0152 -0.4148
 2181POSM   C1B25590  16.063   0.066  13.412  0.2276 -0.2943  0.0781
 2181POSM   D2B25591  16.028  -0.294  13.093  0.1007 -0.2213 -0.1257
 2181POSM   C3B25592  16.325  -0.556  12.822  0.1491 -0.1433 -0.0200
 2181POSM   C4B25593  16.245  -0.578  12.371 -0.0755 -0.1092  0.1209
 2182DOPC   NC325594  14.323  29.117  13.475  0.3288 -0.1355  0.1225
 2182DOPC   PO425595  14.397  29.392  13.775 -0.1423  0.1458  0.3112
 2182DOPC   GL125596  14.544  29.709  13.535  0.1819 -0.2152 -0.0809
 2182DOPC   GL225597  14.780  29.952  13.611  0.2532  0.1461  0.3002
 2182DOPC   C1A25598  14.849  29.788  13.168 -0.0063 -0.0648  0.1130
 2182DOPC   D2A25599  14.748  29.904  12.701 -0.0406  0.1905 -0.1878
 2182DOPC   C3A25600  14.594  29.650  12.333 -0.2240  0.1759  0.0601
 2182DOPC   C4A25601  14.381  29.464  11.926 -0.0462 -0.1437 -0.1118
 2182DOPC   C1B25602  14.506  30.128  13.264 -0.0099 -0.2121 -0.1542
 2182DOPC   D2B25603  14.558  30.560  13.036  0.4212 -0.2059  0.1443
 2182DOPC   C3B25604  14.951  30.838  13.141 -0.1153 -0.0617  0.1381
 2182DOPC   C4B25605  15.270  31.050  13.051 -0.0894 -0.2272 -0.2309
 2183DOPC   NC325606  14.059  26.606  13.663 -0.5017  0.1786 -0.1811
 2183DOPC   PO425607  14.421  26.486  13.637 -0.2507 -0.0446  0.1827
 2183DOPC   GL125608  14.646  26.294  13.354 -0.0488  0.0499 -0.0500
 2183DOPC   GL225609  14.847  26.232  13.591  0.1757  0.3435 -0.0726
 2183DOPC   C1A25610  14.622  26.164  12.917  0.0543 -0.0225  0.0023
 2183DOPC   D2A25611  14.776  25.758  12.785  0.0336  0.0054 -0.3671
 2183DOPC   C3A25612  15.114  25.486  13.071 -0.1550  0.1477 -0.0112
 2183DOPC   C4A25613  15.307  25.347  13.439  0.1318 -0.0958  0.1738
 2183DOPC   C1B25614  15.026  26.075  13.130 -0.0536  0.0014  0.0761
 2183DOPC   D2B25615  15.143  26.064  12.687  0.2631  0.2458 -0.3175
 2183DOPC   C3B25616  15.195  25.622  12.560 -0.1803 -0.1017 -0.1252
 2183DOPC   C4B25617  15.089  25.268  12.228 -0.0603 -0.2542  0.0731
 2184DOPS   CNO25618  14.133  23.144  13.835 -0.0996  0.0443  0.0606
 2184DOPS   PO425619  14.365  23.319  14.095 -0.2687 -0.4474 -0.4112
 2184DOPS   GL125620  14.406  23.513  13.760 -0.1643  0.2607  0.0310
 2184DOPS   GL225621  14.126  23.657  13.809 -0.1399  0.0951 -0.1563
 2184DOPS   C1A25622  14.429  23.494  13.267  0.0980 -0.0553 -0.1056
 2184DOPS   D2A25623  14.399  23.257  12.840  0.0316 -0.0540  0.0202
 2184DOPS   C3A25624  14.315  22.791  12.767  0.0626 -0.1150 -0.1881
 2184DOPS   C4A25625  14.330  22.336  12.665 -0.2940 -0.1868  0.3124
 2184DOPS   C1B25626  13.949  23.905  13.424 -0.1608  0.0160 -0.0134
 2184DOPS   D2B25627  14.033  24.149  12.998 -0.6188  0.1545  0.0244
 2184DOPS   C3B25628  14.352  24.215  12.651 -0.0768 -0.2193 -0.3368
 2184DOPS   C4B25629  14.348  24.066  12.216 -0.0536  0.4911  0.1869
 2185DOPC   NC325630  19.805  34.487  14.268  0.0967 -0.3846 -0.1360
 2185DOPC   PO425631  19.782  34.140  14.102  0.3208 -0.0076  0.1404
 2185DOPC   GL125632  19.809  34.356  13.807  0.0390 -0.0459  0.1459
 2185DOPC   GL225633  19.795  34.646  13.734 -0.1030 -0.1039  0.2116
 2185DOPC   C1A25634  19.778  34.342  13.336  0.1017  0.1033 -0.1776
 2185DOPC   D2A25635  19.744  34.324  12.907  0.2340 -0.1052  0.1564
 2185DOPC   C3A25636  19.675  33.922  12.649  0.3202  0.0289 -0.1467
 2185DOPC   C4A25637  19.793  33.843  12.189  0.0585  0.0742 -0.1114
 2185DOPC   C1B25638  20.010  34.934  13.433  0.0082 -0.2730  0.0624
 2185DOPC   D2B25639  19.857  34.997  12.985 -0.1904 -0.1947  0.1799
 2185DOPC   C3B25640  19.687  35.353  12.786 -0.0270 -0.4045  0.2051
 2185DOPC   C4B25641  19.412  35.696  12.701 -0.0423  0.0133 -0.3185
 2186POSM   NC325642  21.491  25.859  14.477  0.0354  0.0405 -0.0845
 2186POSM   PO425643  21.453  26.254  14.465  0.0546  0.0953 -0.0772
 2186POSM   AM125644  21.440  26.178  14.125 -0.0531 -0.1873  0.0327
 2186POSM   AM225645  21.250  25.988  13.980  0.2152 -0.1385 -0.0267
 2186POSM   T1A25646  21.319  26.434  13.684 -0.0498  0.0883 -0.0583
 2186POSM   C2A25647  21.107  26.561  13.221 -0.0027 -0.0723  0.1558
 2186POSM   C3A25648  20.782  26.722  12.925  0.2004 -0.0136  0.0267
 2186POSM   C1B25649  21.324  25.953  13.649 -0.1352 -0.0269  0.0693
 2186POSM   D2B25650  21.556  26.101  13.295  0.1720  0.0720 -0.2364
 2186POSM   C3B25651  21.671  25.800  12.951  0.2002  0.3352 -0.0180
 2186POSM   C4B25652  21.747  25.426  12.698  0.0342  0.0925  0.3665
 2187DOPC   NC325653  16.592  26.435  14.394 -0.2855  0.1358  0.0205
 2187DOPC   PO425654  16.865  26.279  14.561 -0.2509  0.2012 -0.5697
 2187DOPC   GL125655  16.955  26.189  14.144 -0.0044  0.2342 -0.0846
 2187DOPC   GL225656  16.888  25.888  14.249  0.0911  0.1679 -0.0217
 2187DOPC   C1A25657  17.225  25.936  13.850  0.3339 -0.1088 -0.1629
 2187DOPC   D2A25658  17.193  25.892  13.435 -0.1838 -0.0498 -0.1017
 2187DOPC   C3A25659  17.336  26.274  13.210  0.0653  0.1530 -0.2795
 2187DOPC   C4A25660  17.458  26.501  12.812 -0.1662 -0.0310 -0.3169
 2187DOPC   C1B25661  16.597  25.873  13.898  0.0522 -0.0687 -0.0996
 2187DOPC   D2B25662  16.653  25.784  13.439 -0.5118 -0.1465 -0.1427
 2187DOPC   C3B25663  16.267  25.880  13.140 -0.1238  0.0321  0.2534
 2187DOPC   C4B25664  15.984  26.095  12.884  0.0727  0.2477  0.0710
 2188DOPC   NC325665  18.706  21.585  13.847 -0.4118  0.1446  0.0475
 2188DOPC   PO425666  18.809  21.885  14.048 -0.0626  0.1765  0.3251
 2188DOPC   GL125667  18.445  21.927  13.735  0.2706 -0.0668 -0.2374
 2188DOPC   GL225668  18.303  22.178  13.796 -0.2597  0.1922  0.2104
 2188DOPC   C1A25669  18.284  21.921  13.283  0.1071 -0.0900 -0.3033
 2188DOPC   D2A25670  17.860  21.912  13.130  0.2744  0.0966  0.0128
 2188DOPC   C3A25671  17.945  21.924  12.703  0.3082 -0.0837 -0.0478
 2188DOPC   C4A25672  18.185  21.903  12.281 -0.3671  0.1405 -0.2278
 2188DOPC   C1B25673  18.321  22.380  13.468  0.4261  0.0490  0.2376
 2188DOPC   D2B25674  18.302  22.499  12.977 -0.3839  0.0069 -0.0193
 2188DOPC   C3B25675  18.172  22.871  12.745  0.2758  0.2311 -0.2029
 2188DOPC   C4B25676  18.013  22.823  12.359  0.1887 -0.4427  0.0909
 2189DOPE   NH325677  17.893  24.657  14.183  0.0612 -0.2050  0.2457
 2189DOPE   PO425678  17.679  24.871  14.264  0.4365  0.0460 -0.2051
 2189DOPE   GL125679  17.430  24.844  13.891 -0.2468 -0.0207  0.1806
 2189DOPE   GL225680  17.504  24.546  13.791  0.1481 -0.0878  0.0054
 2189DOPE   C1A25681  17.656  24.994  13.544 -0.0632 -0.1504  0.0734
 2189DOPE   D2A25682  17.845  25.141  13.123  0.1568  0.0490 -0.0606
 2189DOPE   C3A25683  18.242  25.362  13.119  0.0884  0.3271  0.0045
 2189DOPE   C4A25684  18.443  25.581  13.559 -0.2517  0.0549  0.0462
 2189DOPE   C1B25685  17.793  24.498  13.411 -0.0709  0.1063 -0.3421
 2189DOPE   D2B25686  17.921  24.551  13.012  0.2103  0.0167  0.2529
 2189DOPE   C3B25687  18.147  24.894  12.758  0.0251  0.0958  0.0935
 2189DOPE   C4B25688  18.257  25.294  12.563  0.0485  0.2253 -0.2884
 2190POSM   NC325689  21.524  23.056  14.351  0.0577  0.1667 -0.1867
 2190POSM   PO425690  21.235  22.852  14.464  0.3694  0.2801 -0.1236
 2190POSM   AM125691  21.101  22.804  14.152  0.1419 -0.0297 -0.0279
 2190POSM   AM225692  21.007  22.629  13.993  0.1770  0.2249 -0.0665
 2190POSM   T1A25693  21.087  23.017  13.689 -0.3008  0.0361  0.1069
 2190POSM   C2A25694  21.010  22.885  13.194  0.0980 -0.2127  0.1145
 2190POSM   C3A25695  20.842  23.121  12.862  0.1161  0.1225  0.3086
 2190POSM   C1B25696  21.139  22.484  13.655  0.1128  0.2270 -0.0745
 2190POSM   D2B25697  21.150  22.443  13.205 -0.0957 -0.0635 -0.1453
 2190POSM   C3B25698  21.560  22.389  12.926  0.0335 -0.2230  0.1095
 2190POSM   C4B25699  21.602  22.459  12.463 -0.0815  0.1524 -0.1476
 2191POSM   NC325700  15.813  30.852  14.456  0.1476 -0.0088  0.1093
 2191POSM   PO425701  16.171  30.878  14.548 -0.2300 -0.0490 -0.1765
 2191POSM   AM125702  16.316  30.724  14.271  0.1514  0.1890 -0.0198
 2191POSM   AM225703  16.316  30.431  14.184 -0.0727 -0.0483 -0.5109
 2191POSM   T1A25704  16.577  30.845  13.867  0.0128 -0.2062  0.0049
 2191POSM   C2A25705  16.773  31.090  13.536  0.0996 -0.2450  0.2628
 2191POSM   C3A25706  16.806  31.130  13.018  0.0290  0.0784 -0.0085
 2191POSM   C1B25707  16.113  30.221  13.993  0.2186  0.2028  0.0880
 2191POSM   D2B25708  16.012  30.095  13.587 -0.0490  0.1092  0.0431
 2191POSM   C3B25709  16.392  30.057  13.262 -0.4322 -0.1464 -0.0688
 2191POSM   C4B25710  16.736  30.282  13.105  0.1235 -0.2297  0.0883
 2192DOPE   NH325711   9.628  22.867  13.758 -0.1639  0.0137 -0.0234
 2192DOPE   PO425712   9.953  22.872  13.757 -0.0243  0.1354 -0.1279
 2192DOPE   GL125713  10.152  22.794  13.491  0.0502  0.5196  0.0276
 2192DOPE   GL225714   9.927  22.783  13.191 -0.0684  0.0682  0.2389
 2192DOPE   C1A25715  10.397  22.648  13.170  0.0161  0.0522 -0.2934
 2192DOPE   D2A25716  10.549  22.688  12.759  0.1335 -0.0112 -0.1173
 2192DOPE   C3A25717  10.866  22.504  12.522  0.0995 -0.0858  0.0920
 2192DOPE   C4A25718  11.152  22.211  12.273 -0.2324 -0.1503 -0.0429
 2192DOPE   C1B25719  10.098  22.673  12.726  0.0795  0.2211 -0.2161
 2192DOPE   D2B25720  10.129  22.818  12.308 -0.0345  0.2029  0.0153
 2192DOPE   C3B25721  10.575  22.631  12.149  0.0177  0.0694 -0.0713
 2192DOPE   C4B25722  10.537  22.473  11.727  0.1712 -0.0994  0.2271
 2193POSM   NC325723   8.177  22.584  13.527 -0.0810  0.1695 -0.1775
 2193POSM   PO425724   8.573  22.610  13.662 -0.0040  0.1365 -0.4370
 2193POSM   AM125725   8.630  22.813  13.428  0.0128 -0.1594  0.1305
 2193POSM   AM225726   8.825  22.724  13.216 -0.0611 -0.1335 -0.1998
 2193POSM   T1A25727   8.495  22.993  12.951  0.0618 -0.1013 -0.2199
 2193POSM   C2A25728   8.711  23.073  12.574 -0.0002  0.2224  0.1459
 2193POSM   C3A25729   8.853  23.101  12.109 -0.0040 -0.0219 -0.2322
 2193POSM   C1B25730   9.053  22.860  12.978  0.0618  0.2483  0.4951
 2193POSM   D2B25731   9.190  22.988  12.539  0.0438  0.1030  0.1833
 2193POSM   C3B25732   9.312  23.332  12.310 -0.1586 -0.1457 -0.0763
 2193POSM   C4B25733   9.516  23.759  12.382  0.2410 -0.2071  0.0921
 2194DOPE   NH325734  15.554  32.183  14.391  0.2094 -0.2151 -0.0500
 2194DOPE   PO425735  15.715  32.443  14.327  0.0960  0.0797  0.3634
 2194DOPE   GL125736  15.662  32.347  13.991  0.0941 -0.1735 -0.3172
 2194DOPE   GL225737  15.473  32.353  13.817 -0.1777  0.0908 -0.1467
 2194DOPE   C1A25738  15.966  32.360  13.618 -0.2488 -0.1191  0.0826
 2194DOPE   D2A25739  16.304  32.296  13.344  0.2814 -0.1112 -0.0106
 2194DOPE   C3A25740  16.238  32.271  12.923  0.0473 -0.3208  0.0295
 2194DOPE   C4A25741  16.199  32.140  12.456  0.1818  0.0994 -0.0040
 2194DOPE   C1B25742  15.388  32.205  13.405  0.4422  0.1887  0.0677
 2194DOPE   D2B25743  15.374  32.244  12.916 -0.0072  0.1668 -0.0787
 2194DOPE   C3B25744  15.240  32.335  12.457 -0.2197  0.2348  0.0603
 2194DOPE   C4B25745  15.275  32.207  12.036  0.0769 -0.1591  0.1631
 2195POSM   NC325746  14.221  29.949  13.724 -0.0496  0.0148  0.0462
 2195POSM   PO425747  13.916  30.161  13.863 -0.0367 -0.0509 -0.2101
 2195POSM   AM125748  14.054  30.338  13.578 -0.0040  0.0823 -0.3810
 2195POSM   AM225749  14.311  30.489  13.565 -0.4161 -0.1513 -0.0501
 2195POSM   T1A25750  14.053  30.295  13.081 -0.2973  0.1266  0.0363
 2195POSM   C2A25751  14.325  30.080  12.787 -0.0377 -0.0700 -0.0749
 2195POSM   C3A25752  14.571  30.312  12.471  0.2321 -0.0978  0.0018
 2195POSM   C1B25753  14.404  30.772  13.416 -0.2001 -0.0188  0.1054
 2195POSM   D2B25754  14.418  31.107  13.065  0.0769  0.1678  0.2384
 2195POSM   C3B25755  14.261  30.978  12.669 -0.0538  0.0160  0.0023
 2195POSM   C4B25756  14.272  30.772  12.227 -0.1316  0.0296 -0.0096
 2196DOPS   CNO25757  21.323  23.383  14.842 -0.1570  0.0689  0.0412
 2196DOPS   PO425758  21.500  23.500  14.563  0.1325 -0.3010 -0.0310
 2196DOPS   GL125759  21.498  23.459  14.139  0.2214  0.1673  0.1321
 2196DOPS   GL225760  21.321  23.626  14.108  0.0096  0.3671  0.0660
 2196DOPS   C1A25761  21.523  23.252  13.721 -0.1751  0.0461  0.3154
 2196DOPS   D2A25762  21.381  23.329  13.197 -0.1262  0.0349 -0.1632
 2196DOPS   C3A25763  21.391  23.043  12.857 -0.0065  0.0853  0.0140
 2196DOPS   C4A25764  21.165  22.643  12.748  0.3193 -0.0018 -0.1490
 2196DOPS   C1B25765  21.036  23.563  13.740 -0.0049 -0.1081  0.0255
 2196DOPS   D2B25766  20.806  23.308  13.390  0.1526 -0.2292 -0.1751
 2196DOPS   C3B25767  20.339  23.416  13.454 -0.1989  0.1837  0.2732
 2196DOPS   C4B25768  19.868  23.261  13.426  0.1326 -0.0025 -0.2506
 2197DOPC   NC325769  16.398  32.834  14.238 -0.0104 -0.2281 -0.0935
 2197DOPC   PO425770  16.380  32.401  14.271 -0.0481 -0.1395 -0.0663
 2197DOPC   GL125771  16.406  32.400  13.872 -0.0050  0.0976  0.1355
 2197DOPC   GL225772  16.457  32.578  13.770  0.1740  0.0135 -0.2090
 2197DOPC   C1A25773  16.803  32.230  13.656 -0.1637  0.0173  0.1735
 2197DOPC   D2A25774  17.242  32.335  13.483  0.0123  0.2208 -0.0337
 2197DOPC   C3A25775  17.159  32.268  13.017  0.0855  0.1389 -0.1054
 2197DOPC   C4A25776  17.308  32.170  12.590 -0.0425 -0.1359 -0.0780
 2197DOPC   C1B25777  16.223  32.832  13.501  0.1034  0.1285  0.2067
 2197DOPC   D2B25778  16.198  33.168  13.154 -0.1139  0.2554  0.0699
 2197DOPC   C3B25779  16.241  33.155  12.663  0.2152 -0.3311 -0.0243
 2197DOPC   C4B25780  15.961  32.856  12.340 -0.3533  0.0235  0.0998
 2198DOPS   CNO25781   9.725  30.865  13.788 -0.0516 -0.3731  0.0529
 2198DOPS   PO425782   9.597  30.670  13.531 -0.3665 -0.2542 -0.0175
 2198DOPS   GL125783   9.736  30.906  13.256 -0.2081 -0.2952  0.1908
 2198DOPS   GL225784   9.886  31.162  13.306  0.0507  0.1445  0.1332
 2198DOPS   C1A25785   9.882  31.027  12.804  0.0981 -0.0921  0.1935
 2198DOPS   D2A25786  10.084  31.078  12.400 -0.0244 -0.1344  0.1983
 2198DOPS   C3A25787  10.398  31.122  12.018  0.2356 -0.0789  0.0528
 2198DOPS   C4A25788  10.671  31.449  11.827  0.0200 -0.1157  0.3120
 2198DOPS   C1B25789   9.577  31.391  13.069  0.1868 -0.1862 -0.0654
 2198DOPS   D2B25790   9.380  31.576  12.699 -0.0884 -0.3549 -0.0759
 2198DOPS   C3B25791   9.059  31.338  12.446 -0.0814  0.2283 -0.1852
 2198DOPS   C4B25792   8.725  31.147  12.223  0.0452 -0.1447  0.1133
 2199DOPE   NH325793  19.794  32.332  14.258  0.1359 -0.0091 -0.2573
 2199DOPE   PO425794  19.915  32.541  14.062  0.0660  0.0974  0.0348
 2199DOPE   GL125795  19.724  32.728  13.785  0.0550 -0.0226 -0.3760
 2199DOPE   GL225796  19.467  32.618  13.649 -0.0112  0.4292  0.1970
 2199DOPE   C1A25797  19.878  32.852  13.396 -0.0150  0.0941 -0.2215
 2199DOPE   D2A25798  19.821  32.904  12.917 -0.1376  0.1718 -0.0371
 2199DOPE   C3A25799  20.088  32.636  12.623  0.0239 -0.0540  0.0156
 2199DOPE   C4A25800  20.024  32.182  12.506  0.0735 -0.1502 -0.0086
 2199DOPE   C1B25801  19.384  32.932  13.347  0.0415 -0.0824  0.1229
 2199DOPE   D2B25802  18.968  32.990  13.143 -0.0805  0.1068  0.1414
 2199DOPE   C3B25803  18.853  32.830  12.724  0.4409 -0.1261  0.1468
 2199DOPE   C4B25804  18.918  32.816  12.215  0.0739 -0.0986  0.0511
 2200DOPC   NC325805  14.270  28.335  13.814  0.0160 -0.0129  0.2095
 2200DOPC   PO425806  14.331  28.495  13.451 -0.1640 -0.1557 -0.3208
 2200DOPC   GL125807  14.390  28.271  13.157 -0.2192 -0.0004 -0.1981
 2200DOPC   GL225808  14.618  28.355  13.006  0.2732 -0.3231 -0.3898
 2200DOPC   C1A25809  14.289  27.845  13.010  0.0675 -0.0601  0.3213
 2200DOPC   D2A25810  14.124  27.424  12.883 -0.1989  0.1051  0.2439
 2200DOPC   C3A25811  14.095  27.382  12.417  0.0931 -0.0898  0.0299
 2200DOPC   C4A25812  14.011  27.130  12.076  0.2799  0.0981  0.1778
 2200DOPC   C1B25813  14.618  28.628  12.682  0.1488 -0.0212  0.3413
 2200DOPC   D2B25814  14.376  28.711  12.296  0.3145  0.0336 -0.0202
 2200DOPC   C3B25815  14.283  28.315  12.074  0.0408  0.0494 -0.3810
 2200DOPC   C4B25816  14.409  27.970  11.718  0.1436  0.0691  0.0650
 2201DOPS   CNO25817  13.416  22.964  13.645  0.2083  0.0739 -0.2340
 2201DOPS   PO425818  13.050  22.829  13.815 -0.0192 -0.2241  0.1548
 2201DOPS   GL125819  12.905  22.895  13.440 -0.1261  0.0606 -0.2057
 2201DOPS   GL225820  13.150  23.024  13.220  0.2866  0.3424 -0.2210
 2201DOPS   C1A25821  12.795  22.682  13.044  0.3994  0.0577  0.0750
 2201DOPS   D2A25822  12.641  22.893  12.634  0.2475 -0.2624 -0.0340
 2201DOPS   C3A25823  12.319  22.747  12.350  0.0924  0.0754  0.0687
 2201DOPS   C4A25824  12.349  22.611  11.952 -0.0080 -0.2199 -0.0971
 2201DOPS   C1B25825  13.327  22.566  13.283 -0.1690 -0.1934 -0.2882
 2201DOPS   D2B25826  13.085  22.199  13.079  0.2412 -0.2316 -0.1689
 2201DOPS   C3B25827  13.072  22.304  12.616  0.1753 -0.0487  0.4993
 2201DOPS   C4B25828  12.730  22.432  12.309  0.2374  0.2198  0.1205
 2202DOPC   NC325829  14.878  26.736  13.685  0.0721  0.1035 -0.1226
 2202DOPC   PO425830  14.902  27.126  13.838  0.4522 -0.1189 -0.4637
 2202DOPC   GL125831  15.173  27.231  13.522 -0.2179  0.1926 -0.3412
 2202DOPC   GL225832  14.985  27.076  13.360 -0.3527  0.2101 -0.1804
 2202DOPC   C1A25833  15.437  26.912  13.318 -0.0886 -0.2035  0.2171
 2202DOPC   D2A25834  15.698  26.597  13.089  0.2399 -0.2446  0.2176
 2202DOPC   C3A25835  15.899  26.653  12.699 -0.1895 -0.2815 -0.1955
 2202DOPC   C4A25836  16.278  26.701  12.537  0.0164  0.0460 -0.1956
 2202DOPC   C1B25837  14.835  26.777  13.071 -0.2572  0.2144  0.1553
 2202DOPC   D2B25838  14.692  26.602  12.691 -0.4442  0.0557 -0.2963
 2202DOPC   C3B25839  14.835  26.274  12.319  0.1922  0.1303 -0.0475
 2202DOPC   C4B25840  15.093  26.002  12.145  0.2157  0.0482  0.0865
 2203DOPE   NH325841  24.953  32.361  14.500  0.0639 -0.0786 -0.0276
 2203DOPE   PO425842  24.823  32.427  14.233  0.0138 -0.0313  0.0338
 2203DOPE   GL125843  24.708  32.490  13.878 -0.2837  0.2493  0.4764
 2203DOPE   GL225844  24.806  32.804  13.891  0.1360  0.1546  0.0447
 2203DOPE   C1A25845  24.790  32.314  13.434  0.1361  0.1835 -0.1275
 2203DOPE   D2A25846  24.896  32.095  13.029  0.0225  0.2867  0.1619
 2203DOPE   C3A25847  25.048  31.854  12.681 -0.2951 -0.1152  0.0963
 2203DOPE   C4A25848  25.288  32.041  12.289 -0.1578  0.0514  0.0358
 2203DOPE   C1B25849  24.563  32.800  13.487 -0.1829 -0.0722 -0.0650
 2203DOPE   D2B25850  24.087  32.645  13.428  0.4248 -0.1118 -0.1461
 2203DOPE   C3B25851  23.861  32.334  13.192  0.0019  0.1195 -0.1865
 2203DOPE   C4B25852  23.715  32.203  12.740 -0.3040  0.4291 -0.1373
 2204POSM   NC325853  18.862  30.235  14.600 -0.0044 -0.0227 -0.1273
 2204POSM   PO425854  19.141  30.523  14.524  0.1681  0.0333  0.3701
 2204POSM   AM125855  19.107  30.466  14.208 -0.2745 -0.0070 -0.1803
 2204POSM   AM225856  18.939  30.270  14.084 -0.4277 -0.1384  0.0708
 2204POSM   T1A25857  19.363  30.656  13.848  0.1940  0.0093 -0.0025
 2204POSM   C2A25858  19.606  30.627  13.486  0.2555 -0.1474 -0.1481
 2204POSM   C3A25859  19.835  30.229  13.330  0.0983 -0.2645  0.2665
 2204POSM   C1B25860  18.862  30.481  13.851 -0.0644  0.1109  0.0401
 2204POSM   D2B25861  19.034  30.894  13.575 -0.0908 -0.0065 -0.1421
 2204POSM   C3B25862  19.007  30.991  13.076 -0.0912  0.1064  0.0181
 2204POSM   C4B25863  18.823  31.381  12.816 -0.1227  0.0543 -0.0208
 2205DOPE   NH325864  18.204  31.684  14.333  0.0954 -0.0760 -0.0554
 2205DOPE   PO425865  18.143  31.974  14.366 -0.3956  0.3075 -0.0964
 2205DOPE   GL125866  18.102  31.917  14.011  0.0577 -0.3749  0.2873
 2205DOPE   GL225867  18.065  32.178  13.804  0.5339 -0.3537 -0.3304
 2205DOPE   C1A25868  18.180  31.647  13.633  0.1543  0.0723 -0.2859
 2205DOPE   D2A25869  18.138  31.282  13.376 -0.0515 -0.2535 -0.0783
 2205DOPE   C3A25870  17.742  31.116  13.556  0.0864 -0.1276  0.1027
 2205DOPE   C4A25871  17.380  30.838  13.616  0.1639 -0.0883  0.4411
 2205DOPE   C1B25872  17.866  32.055  13.431 -0.2999 -0.1245  0.0998
 2205DOPE   D2B25873  17.659  32.063  12.985 -0.0043 -0.2234 -0.2744
 2205DOPE   C3B25874  17.807  32.228  12.551  0.1961  0.0892  0.6642
 2205DOPE   C4B25875  17.631  32.194  12.077  0.1038  0.0180  0.1784
 2206POSM   NC325876  20.288  31.108  14.747 -0.1020 -0.0919  0.1677
 2206POSM   PO425877  20.581  31.334  14.524  0.1322 -0.1900 -0.1353
 2206POSM   AM125878  20.420  31.268  14.267  0.2210 -0.0760  0.0139
 2206POSM   AM225879  20.240  31.374  14.016  0.3583 -0.1784 -0.1790
 2206POSM   T1A25880  20.433  30.923  13.889  0.0437 -0.2540  0.0299
 2206POSM   C2A25881  20.353  31.054  13.474  0.3439 -0.0251 -0.2817
 2206POSM   C3A25882  20.438  30.863  13.075 -0.1019  0.1002  0.4497
 2206POSM   C1B25883  20.228  31.472  13.690  0.4688  0.0407 -0.0243
 2206POSM   D2B25884  19.975  31.420  13.299  0.5405  0.3643 -0.1341
 2206POSM   C3B25885  20.038  31.125  12.907 -0.0867  0.0419  0.0263
 2206POSM   C4B25886  20.159  31.201  12.440  0.0176  0.1947 -0.1887
 2207DOPC   NC325887  18.141  28.369  14.256  0.0882 -0.0525  0.0316
 2207DOPC   PO425888  18.274  28.718  14.306 -0.1887  0.1667  0.0908
 2207DOPC   GL125889  18.156  28.943  13.999 -0.2484  0.1503 -0.2396
 2207DOPC   GL225890  18.126  29.248  14.058 -0.0721  0.1008  0.2248
 2207DOPC   C1A25891  17.990  29.019  13.590  0.2702 -0.1068 -0.3641
 2207DOPC   D2A25892  17.763  29.330  13.314  0.4000  0.2229 -0.1335
 2207DOPC   C3A25893  17.656  29.237  12.871 -0.2340 -0.0844  0.0505
 2207DOPC   C4A25894  17.513  28.933  12.525 -0.0961  0.2864 -0.0564
 2207DOPC   C1B25895  18.097  29.521  13.699  0.0363  0.1861 -0.1252
 2207DOPC   D2B25896  18.239  29.468  13.273 -0.2274  0.2459  0.1512
 2207DOPC   C3B25897  17.949  29.762  13.181  0.1119  0.2025 -0.1346
 2207DOPC   C4B25898  17.812  30.206  13.038  0.0845  0.0399 -0.2122
 2208DOPE   NH325899  20.022  31.445  14.513  0.3748 -0.5244  0.2471
 2208DOPE   PO425900  19.928  31.157  14.350 -0.0440  0.0909  0.1154
 2208DOPE   GL125901  19.746  31.083  13.886  0.0047 -0.1558 -0.2182
 2208DOPE   GL225902  19.861  31.054  13.622 -0.0857  0.0052  0.3486
 2208DOPE   C1A25903  19.387  31.286  13.638 -0.0496  0.0573  0.0716
 2208DOPE   D2A25904  19.317  31.484  13.239  0.0015 -0.0378  0.1753
 2208DOPE   C3A25905  19.226  31.861  13.022 -0.1306  0.0927  0.2885
 2208DOPE   C4A25906  19.153  32.239  12.761  0.1143 -0.2465 -0.0794
 2208DOPE   C1B25907  19.561  31.053  13.238  0.0696 -0.0505  0.0197
 2208DOPE   D2B25908  19.553  30.934  12.763  0.4393  0.1063 -0.0445
 2208DOPE   C3B25909  19.863  30.781  12.443 -0.3379 -0.0199 -0.0177
 2208DOPE   C4B25910  20.035  30.793  12.026 -0.1804 -0.0401  0.2724
 2209POSM   NC325911  18.853  24.974  14.509  0.2332 -0.3275 -0.0737
 2209POSM   PO425912  18.485  24.879  14.618 -0.0481 -0.4630  0.1528
 2209POSM   AM125913  18.424  24.959  14.287  0.2064  0.4243 -0.3274
 2209POSM   AM225914  18.517  24.804  14.066  0.2298  0.2881 -0.3488
 2209POSM   T1A25915  18.567  25.241  13.919  0.1570 -0.3741 -0.0210
 2209POSM   C2A25916  18.872  25.631  13.839  0.0530 -0.2593 -0.1102
 2209POSM   C3A25917  18.695  26.053  13.855  0.3254  0.0861  0.2352
 2209POSM   C1B25918  18.621  24.770  13.700  0.1147 -0.1070 -0.1712
 2209POSM   D2B25919  18.823  24.702  13.242  0.0146 -0.4080 -0.0265
 2209POSM   C3B25920  18.763  24.486  12.837 -0.0572 -0.0116  0.0214
 2209POSM   C4B25921  18.788  24.474  12.384  0.2978 -0.1212  0.1642
 2210DOPE   NH325922  21.743  33.354  14.309 -0.2064  0.0505 -0.1954
 2210DOPE   PO425923  21.845  33.026  14.330  0.2968 -0.2714 -0.0550
 2210DOPE   GL125924  22.003  33.090  13.912 -0.1648  0.0453  0.1818
 2210DOPE   GL225925  21.934  32.882  13.742 -0.0870  0.1102  0.1368
 2210DOPE   C1A25926  22.143  33.314  13.469  0.0036 -0.0644 -0.0561
 2210DOPE   D2A25927  22.414  33.127  13.144  0.0701  0.2887  0.2489
 2210DOPE   C3A25928  22.290  33.120  12.667  0.1267  0.0826  0.0223
 2210DOPE   C4A25929  22.246  32.869  12.338 -0.0802 -0.1949 -0.0310
 2210DOPE   C1B25930  22.013  32.872  13.217  0.0834  0.2221  0.0898
 2210DOPE   D2B25931  21.786  32.717  12.856 -0.0475  0.3069 -0.2903
 2210DOPE   C3B25932  21.790  33.049  12.543  0.0711 -0.2264 -0.0363
 2210DOPE   C4B25933  22.008  33.469  12.486  0.1259 -0.2618  0.3095
 2211DOPE   NH325934  11.449  24.018  13.703 -0.0121 -0.0262  0.0758
 2211DOPE   PO425935  11.408  24.310  13.573  0.4259  0.0368 -0.0579
 2211DOPE   GL125936  11.671  24.069  13.264  0.0427  0.0396 -0.0555
 2211DOPE   GL225937  11.482  23.917  13.205  0.1763  0.0930  0.1689
 2211DOPE   C1A25938  11.751  23.944  12.840  0.0127 -0.4092 -0.0342
 2211DOPE   D2A25939  11.772  23.984  12.343  0.0979  0.0072  0.3102
 2211DOPE   C3A25940  11.511  23.744  12.086 -0.3219 -0.2083 -0.2269
 2211DOPE   C4A25941  11.121  23.545  12.109 -0.0561 -0.0659  0.0794
 2211DOPE   C1B25942  11.567  23.500  13.019 -0.2746 -0.1425  0.0960
 2211DOPE   D2B25943  11.692  23.072  12.817 -0.1840  0.0180  0.0369
 2211DOPE   C3B25944  11.849  23.086  12.382  0.1656  0.0358 -0.2823
 2211DOPE   C4B25945  11.809  23.358  11.984 -0.1683  0.2713 -0.1516
 2212DOPE   NH325946  20.305  28.917  14.642 -0.2798  0.2660  0.1404
 2212DOPE   PO425947  20.220  28.611  14.646  0.2104  0.3074 -0.0383
 2212DOPE   GL125948  20.346  28.744  14.258  0.1908 -0.2404  0.0075
 2212DOPE   GL225949  20.123  28.585  14.085  0.0430  0.3378 -0.1020
 2212DOPE   C1A25950  20.310  28.929  13.851 -0.1639 -0.1252 -0.1758
 2212DOPE   D2A25951  20.148  28.818  13.404  0.2142  0.0009 -0.0283
 2212DOPE   C3A25952  20.062  29.142  13.058  0.1357  0.0595  0.1169
 2212DOPE   C4A25953  19.955  29.553  12.871  0.3268  0.1608 -0.1722
 2212DOPE   C1B25954  19.872  28.437  13.677 -0.0645  0.2411 -0.4093
 2212DOPE   D2B25955  19.659  28.091  13.531 -0.1415  0.0953  0.1991
 2212DOPE   C3B25956  19.696  27.733  13.260 -0.0887  0.1781  0.3885
 2212DOPE   C4B25957  19.459  27.419  13.072 -0.1224  0.0754  0.0011
 2213DOPE   NH325958  10.990  20.912  13.676 -0.1131  0.2994 -0.2567
 2213DOPE   PO425959  10.784  20.953  13.442  0.1379  0.0642  0.1878
 2213DOPE   GL125960  10.762  20.907  13.064 -0.3570  0.3127  0.4565
 2213DOPE   GL225961  10.965  21.047  12.838 -0.2389 -0.1574  0.0348
 2213DOPE   C1A25962  10.519  20.858  12.702 -0.1146 -0.1346 -0.4228
 2213DOPE   D2A25963  10.295  20.592  12.383  0.0781  0.3170 -0.0332
 2213DOPE   C3A25964  10.519  20.375  12.069  0.1033  0.0204 -0.0249
 2213DOPE   C4A25965  10.864  20.171  11.872  0.1848  0.0233  0.3638
 2213DOPE   C1B25966  11.141  21.304  12.479  0.0117 -0.0343 -0.2170
 2213DOPE   D2B25967  11.598  21.480  12.275 -0.0334  0.1440 -0.1065
 2213DOPE   C3B25968  11.547  21.100  12.034  0.3756  0.0529  0.3923
 2213DOPE   C4B25969  11.615  20.620  11.941 -0.2247  0.0482  0.1531
 2214POSM   NC325970  20.537  25.671  15.040 -0.3301  0.0461 -0.2983
 2214POSM   PO425971  20.594  25.788  14.643 -0.0241  0.6020 -0.1074
 2214POSM   AM125972  20.681  25.828  14.298  0.0795 -0.0931  0.0684
 2214POSM   AM225973  20.761  25.731  14.045  0.2892 -0.2785 -0.0627
 2214POSM   T1A25974  20.801  26.163  13.892 -0.0430  0.1526 -0.0172
 2214POSM   C2A25975  20.919  26.153  13.438  0.2406 -0.0845 -0.4239
 2214POSM   C3A25976  21.064  25.761  13.182  0.2882  0.3220 -0.0450
 2214POSM   C1B25977  20.871  25.722  13.737  0.0096  0.1966  0.1838
 2214POSM   D2B25978  20.613  25.541  13.375  0.0410 -0.1313  0.0348
 2214POSM   C3B25979  20.657  25.649  12.917  0.1439 -0.0215 -0.2766
 2214POSM   C4B25980  20.354  25.807  12.632 -0.0523  0.2660  0.0040
 2215DOPE   NH325981  21.575  29.099  14.044  0.0866 -0.1295 -0.2261
 2215DOPE   PO425982  21.651  29.431  13.998  0.0011 -0.1745 -0.0241
 2215DOPE   GL125983  21.439  29.509  13.679 -0.1609 -0.3870 -0.0418
 2215DOPE   GL225984  21.598  29.735  13.569  0.1056 -0.0249  0.1624
 2215DOPE   C1A25985  21.556  29.364  13.265  0.1344 -0.2349 -0.1625
 2215DOPE   D2A25986  21.715  29.140  12.888 -0.2447 -0.1727  0.0847
 2215DOPE   C3A25987  21.903  29.320  12.544 -0.0074 -0.2505  0.0579
 2215DOPE   C4A25988  21.999  29.401  12.125 -0.2247  0.1479  0.2512
 2215DOPE   C1B25989  21.963  29.823  13.335  0.1389 -0.1285 -0.2904
 2215DOPE   D2B25990  22.409  29.812  13.325  0.1377  0.2146 -0.0742
 2215DOPE   C3B25991  22.560  29.869  12.896  0.1666  0.1113  0.0464
 2215DOPE   C4B25992  22.588  29.861  12.426 -0.1508 -0.0391 -0.1152
 2216DOPE   NH325993  19.114   0.012  14.075  0.1001  0.1593 -0.3097
 2216DOPE   PO425994  19.340  -0.175  13.963 -0.0659 -0.1141 -0.2293
 2216DOPE   GL125995  19.195  -0.341  13.638  0.3490  0.0223 -0.0397
 2216DOPE   GL225996  18.976  -0.143  13.597 -0.0701  0.1894 -0.0373
 2216DOPE   C1A25997  19.108  -0.373  13.139 -0.0493  0.1855 -0.0705
 2216DOPE   D2A25998  19.090  -0.163  12.741 -0.0806  0.0371  0.0560
 2216DOPE   C3A25999  18.674  -0.315  12.529  0.0400 -0.0418 -0.1951
 2216DOPE   C4A26000  18.498  -0.749  12.469  0.1824 -0.1541 -0.3630
 2216DOPE   C1B26001  18.985   0.190  13.255 -0.1076 -0.0775 -0.2996
 2216DOPE   D2B26002  19.224   0.551  13.042 -0.2655  0.2124 -0.1588
 2216DOPE   C3B26003  18.960   0.804  12.687  0.0492 -0.0030 -0.0511
 2216DOPE   C4B26004  18.972   1.245  12.787 -0.3773  0.0899 -0.2191
 2217POSM   NC326005  21.925  25.494  15.292 -0.2413  0.3248  0.0107
 2217POSM   PO426006  21.975  25.475  14.931  0.1474  0.1455  0.1236
 2217POSM   AM126007  21.874  25.564  14.623  0.2031  0.1364  0.0308
 2217POSM   AM226008  21.967  25.702  14.401 -0.0326 -0.1881 -0.0070
 2217POSM   T1A26009  21.637  25.334  14.189 -0.0157  0.2185 -0.1505
 2217POSM   C2A26010  21.688  25.318  13.724  0.0391 -0.1867  0.1422
 2217POSM   C3A26011  21.395  25.517  13.493  0.1653 -0.2499 -0.0000
 2217POSM   C1B26012  21.857  25.748  14.094  0.2261  0.1413  0.4117
 2217POSM   D2B26013  21.789  26.019  13.748  0.0653  0.0648  0.1434
 2217POSM   C3B26014  21.859  25.753  13.383 -0.1842  0.1264  0.0357
 2217POSM   C4B26015  22.078  25.489  13.017 -0.0792 -0.2017 -0.0357
 2218DOPC   NC326016  13.997  30.859  14.508  0.0022 -0.3835 -0.2279
 2218DOPC   PO426017  14.277  30.978  14.195  0.2130  0.1185 -0.0975
 2218DOPC   GL126018  14.312  30.968  13.805 -0.1963  0.2373 -0.1421
 2218DOPC   GL226019  14.579  30.814  13.848  0.3741  0.0676  0.1815
 2218DOPC   C1A26020  14.212  31.257  13.502  0.2241  0.0767 -0.0634
 2218DOPC   D2A26021  13.907  31.319  13.124 -0.0682 -0.0680  0.0554
 2218DOPC   C3A26022  14.001  31.443  12.655 -0.0199 -0.0937  0.0171
 2218DOPC   C4A26023  14.277  31.424  12.310  0.0197  0.0190  0.0258
 2218DOPC   C1B26024  14.864  30.547  13.531 -0.0048  0.1497 -0.3279
 2218DOPC   D2B26025  15.045  30.292  13.224  0.2515 -0.0791 -0.0744
 2218DOPC   C3B26026  15.102  30.471  12.837 -0.1071 -0.4230 -0.0702
 2218DOPC   C4B26027  15.058  30.817  12.618  0.3565 -0.0193  0.1389
 2219DOPE   NH326028  13.172  21.988  14.159 -0.1716 -0.0630 -0.2009
 2219DOPE   PO426029  13.327  21.756  14.001 -0.0741 -0.1668 -0.0861
 2219DOPE   GL126030  13.302  21.914  13.666  0.0170 -0.2164 -0.0294
 2219DOPE   GL226031  13.191  22.101  13.598 -0.0478 -0.0309 -0.0591
 2219DOPE   C1A26032  13.631  22.056  13.343 -0.2304  0.0725 -0.2053
 2219DOPE   D2A26033  13.524  22.029  12.888  0.5561 -0.2495  0.1649
 2219DOPE   C3A26034  13.515  22.464  12.760  0.2731 -0.3140 -0.0655
 2219DOPE   C4A26035  13.596  22.725  12.347  0.3382 -0.0368  0.0249
 2219DOPE   C1B26036  13.074  21.771  13.296  0.2242  0.3520  0.0197
 2219DOPE   D2B26037  12.936  21.344  13.190  0.1199  0.3279 -0.1556
 2219DOPE   C3B26038  12.948  21.144  12.782 -0.0257  0.2192  0.0351
 2219DOPE   C4B26039  13.191  20.880  12.449 -0.4119 -0.1265 -0.1362
 2220DOPC   NC326040  22.580  28.511  14.191 -0.2800  0.0561 -0.0740
 2220DOPC   PO426041  22.431  28.131  14.142  0.1560  0.1494 -0.1235
 2220DOPC   GL126042  22.428  28.282  13.813 -0.0361 -0.0466 -0.1628
 2220DOPC   GL226043  22.390  28.580  13.768 -0.1406 -0.1219 -0.1447
 2220DOPC   C1A26044  22.199  28.242  13.445  0.2255  0.1698  0.2620
 2220DOPC   D2A26045  21.982  28.234  13.130  0.1384 -0.1341 -0.1604
 2220DOPC   C3A26046  21.905  28.692  12.941  0.1331  0.0709 -0.0150
 2220DOPC   C4A26047  21.863  28.852  12.495  0.0859 -0.3272  0.4363
 2220DOPC   C1B26048  22.343  28.824  13.326 -0.1946 -0.3315  0.1843
 2220DOPC   D2B26049  22.313  29.160  12.956 -0.1457 -0.0481  0.2926
 2220DOPC   C3B26050  22.283  28.830  12.647 -0.0580 -0.0482 -0.0130
 2220DOPC   C4B26051  22.502  28.581  12.357 -0.1629 -0.0453 -0.6845
 2221POSM   NC326052  13.753  22.518  13.522 -0.0268  0.1349  0.2948
 2221POSM   PO426053  14.036  22.375  13.785  0.0701 -0.1545 -0.1714
 2221POSM   AM126054  14.126  22.174  13.523  0.1593  0.2418 -0.1194
 2221POSM   AM226055  14.331  21.994  13.413 -0.2813 -0.1685 -0.0041
 2221POSM   T1A26056  14.067  22.119  12.989  0.1694  0.1667 -0.0019
 2221POSM   C2A26057  13.929  21.827  12.664  0.1616 -0.0003  0.2744
 2221POSM   C3A26058  13.699  21.882  12.261  0.2452 -0.0320  0.2219
 2221POSM   C1B26059  14.068  21.782  13.330 -0.2326  0.1500  0.0032
 2221POSM   D2B26060  13.889  21.481  13.058 -0.1628  0.0587  0.1588
 2221POSM   C3B26061  14.018  21.089  12.767  0.2016  0.0739 -0.3023
 2221POSM   C4B26062  14.193  20.767  12.512 -0.1196 -0.2064  0.1617
 2222DOPE   NH326063  20.460  26.215  14.396 -0.0346  0.2743 -0.1389
 2222DOPE   PO426064  20.198  26.180  14.495  0.0688  0.0785  0.0370
 2222DOPE   GL126065  20.004  26.353  14.200  0.0892 -0.2311 -0.0930
 2222DOPE   GL226066  20.159  26.598  14.134 -0.0798  0.0978  0.2385
 2222DOPE   C1A26067  19.697  26.479  13.815  0.2379 -0.2393 -0.4073
 2222DOPE   D2A26068  19.714  26.544  13.341 -0.2959  0.0524 -0.2787
 2222DOPE   C3A26069  19.507  26.172  13.067  0.0178  0.0487 -0.2480
 2222DOPE   C4A26070  19.060  26.094  12.945 -0.0847  0.2002 -0.0598
 2222DOPE   C1B26071  20.295  26.267  13.852 -0.1734  0.1992  0.2067
 2222DOPE   D2B26072  20.415  25.931  13.627 -0.0855 -0.2581  0.0800
 2222DOPE   C3B26073  20.507  26.017  13.208 -0.2381 -0.2560  0.0207
 2222DOPE   C4B26074  20.762  26.124  12.897 -0.0111  0.1190  0.2327
 2223DOPE   NH326075  21.765  24.558  14.982 -0.1327  0.1883  0.2037
 2223DOPE   PO426076  21.612  24.807  14.849 -0.2223  0.1389 -0.0835
 2223DOPE   GL126077  22.041  24.982  14.675  0.4685 -0.2448 -0.0406
 2223DOPE   GL226078  21.901  25.090  14.458 -0.0959 -0.1314 -0.1154
 2223DOPE   C1A26079  22.386  24.903  14.414 -0.2916  0.0263 -0.1867
 2223DOPE   D2A26080  22.626  24.828  14.013  0.0754  0.2348 -0.1238
 2223DOPE   C3A26081  22.465  25.044  13.646 -0.0857  0.1296  0.1820
 2223DOPE   C4A26082  22.241  25.382  13.512 -0.0761 -0.0308 -0.0870
 2223DOPE   C1B26083  21.867  24.926  14.043 -0.0654 -0.2821 -0.3291
 2223DOPE   D2B26084  21.683  24.832  13.604  0.0526 -0.1146  0.0445
 2223DOPE   C3B26085  22.025  24.820  13.295  0.1672  0.0375 -0.2634
 2223DOPE   C4B26086  22.344  25.072  13.023 -0.3040  0.0485 -0.3673
 2224POSM   NC326087  14.793  23.664  14.999  0.1904  0.2109 -0.0479
 2224POSM   PO426088  14.856  23.750  14.647  0.1245 -0.1542 -0.0025
 2224POSM   AM126089  15.009  23.828  14.361  0.1173 -0.2186  0.4284
 2224POSM   AM226090  15.095  24.069  14.219  0.0916 -0.3371 -0.1166
 2224POSM   T1A26091  15.247  23.653  13.963  0.0867  0.0543 -0.2178
 2224POSM   C2A26092  15.303  23.386  13.557  0.0242 -0.1887  0.1336
 2224POSM   C3A26093  15.045  23.033  13.474  0.0223  0.0966 -0.1842
 2224POSM   C1B26094  15.234  24.178  13.969 -0.1264  0.2161  0.4398
 2224POSM   D2B26095  15.282  24.216  13.521 -0.3288  0.0302 -0.0693
 2224POSM   C3B26096  15.587  24.397  13.227 -0.1390  0.2925  0.1243
 2224POSM   C4B26097  15.895  24.580  12.950  0.1313 -0.2100 -0.0674
 2225DOPS   CNO26098  16.928  23.932  14.845 -0.1828  0.1437  0.1234
 2225DOPS   PO426099  16.958  23.907  14.464  0.1450  0.0628  0.1671
 2225DOPS   GL126100  16.749  23.611  14.231 -0.1153  0.1483  0.0097
 2225DOPS   GL226101  16.458  23.639  14.071  0.1414  0.2039  0.1923
 2225DOPS   C1A26102  16.914  23.441  13.791 -0.1629  0.0214  0.1318
 2225DOPS   D2A26103  16.826  23.307  13.374 -0.1823  0.1460 -0.3517
 2225DOPS   C3A26104  16.979  23.345  12.945  0.0381 -0.0042 -0.0862
 2225DOPS   C4A26105  17.092  23.295  12.499  0.0536 -0.0978 -0.0565
 2225DOPS   C1B26106  16.207  23.921  13.769  0.0815  0.0565 -0.1691
 2225DOPS   D2B26107  16.298  24.233  13.373  0.1721  0.1234 -0.1833
 2225DOPS   C3B26108  16.391  24.170  12.960  0.2111 -0.0318  0.1746
 2225DOPS   C4B26109  16.194  24.004  12.602 -0.0845 -0.1251  0.1306
 2226DOPC   NC326110  12.303  32.739  14.192  0.1717 -0.0940  0.3886
 2226DOPC   PO426111  12.444  32.354  14.135 -0.0235 -0.1291 -0.1401
 2226DOPC   GL126112  12.465  32.334  13.789  0.0853 -0.2568 -0.0234
 2226DOPC   GL226113  12.364  32.648  13.727  0.2398 -0.1697  0.1360
 2226DOPC   C1A26114  12.388  32.022  13.479  0.0726  0.1205  0.4674
 2226DOPC   D2A26115  12.441  31.603  13.261 -0.0512  0.2609 -0.2446
 2226DOPC   C3A26116  12.489  31.657  12.796 -0.1660 -0.1222  0.2028
 2226DOPC   C4A26117  12.782  31.873  12.482  0.1159  0.1277 -0.1014
 2226DOPC   C1B26118  12.387  32.499  13.259  0.3378  0.1339  0.3753
 2226DOPC   D2B26119  12.320  32.557  12.763  0.3213 -0.1480  0.1579
 2226DOPC   C3B26120  12.469  32.760  12.406  0.0264  0.0627 -0.3106
 2226DOPC   C4B26121  12.808  32.792  12.074 -0.2671  0.2345  0.5385
 2227POSM   NC326122  18.437  29.319  14.465  0.0668 -0.0793 -0.3575
 2227POSM   PO426123  18.661  28.995  14.501  0.3176 -0.2709 -0.2994
 2227POSM   AM126124  18.692  28.904  14.174 -0.2910  0.1415  0.0976
 2227POSM   AM226125  18.599  29.030  13.969  0.1795 -0.0303  0.2379
 2227POSM   T1A26126  18.904  28.714  13.765  0.1854 -0.1038 -0.2452
 2227POSM   C2A26127  18.833  28.634  13.304 -0.0698  0.1846  0.1697
 2227POSM   C3A26128  18.953  28.719  12.881 -0.4986  0.4300 -0.0917
 2227POSM   C1B26129  18.541  29.306  13.748 -0.2203 -0.1467  0.3481
 2227POSM   D2B26130  18.746  29.550  13.393 -0.1236  0.0220  0.2992
 2227POSM   C3B26131  18.899  29.974  13.508  0.0202  0.1261 -0.0224
 2227POSM   C4B26132  18.964  30.441  13.374 -0.1606 -0.0273 -0.0462
 2228DOPE   NH326133  18.354  23.254  14.002  0.1515  0.2668 -0.0035
 2228DOPE   PO426134  18.138  23.483  14.042  0.1266  0.2913  0.2418
 2228DOPE   GL126135  18.256  23.515  13.642 -0.1405  0.0573  0.1003
 2228DOPE   GL226136  18.544  23.434  13.575  0.2753  0.0880 -0.1636
 2228DOPE   C1A26137  18.198  23.679  13.197  0.0886 -0.2562  0.2046
 2228DOPE   D2A26138  18.046  23.756  12.749  0.1730  0.1259 -0.2933
 2228DOPE   C3A26139  17.823  24.167  12.705  0.3564  0.0113  0.0567
 2228DOPE   C4A26140  17.761  24.512  12.466  0.1801 -0.1621  0.1261
 2228DOPE   C1B26141  18.621  23.872  13.455  0.0865  0.2090  0.0514
 2228DOPE   D2B26142  18.796  24.182  13.201  0.4834  0.0278  0.0441
 2228DOPE   C3B26143  18.915  24.019  12.807  0.0120  0.0751 -0.1829
 2228DOPE   C4B26144  18.698  23.946  12.406  0.1996  0.1140  0.2845
 2229DOPS   CNO26145  16.428  23.150  14.566 -0.1793 -0.0213  0.2070
 2229DOPS   PO426146  16.230  23.474  14.528  0.3301 -0.1441 -0.0916
 2229DOPS   GL126147  16.231  23.251  14.146 -0.0690  0.0620  0.2724
 2229DOPS   GL226148  16.050  23.363  13.978 -0.3123  0.2199 -0.0615
 2229DOPS   C1A26149  16.403  23.280  13.696  0.0989  0.2268 -0.1882
 2229DOPS   D2A26150  16.499  23.687  13.451 -0.3271 -0.1878 -0.1608
 2229DOPS   C3A26151  16.676  23.743  13.086  0.1092 -0.2723 -0.0284
 2229DOPS   C4A26152  16.650  23.612  12.675 -0.0684 -0.1854 -0.0521
 2229DOPS   C1B26153  16.049  23.493  13.500  0.0752 -0.0454  0.2338
 2229DOPS   D2B26154  15.741  23.370  13.182 -0.1708  0.0238 -0.0804
 2229DOPS   C3B26155  15.747  23.545  12.755 -0.2341 -0.3084 -0.1889
 2229DOPS   C4B26156  15.710  23.644  12.193  0.0755  0.1050 -0.1127
 2230DOPS   CNO26157  17.964  33.092  14.310  0.2354  0.1312 -0.2236
 2230DOPS   PO426158  17.616  33.093  14.457  0.0794  0.0813 -0.0564
 2230DOPS   GL126159  17.673  32.831  14.112 -0.0908  0.0525  0.6059
 2230DOPS   GL226160  17.604  33.098  13.935 -0.0426  0.2096  0.1817
 2230DOPS   C1A26161  17.733  32.548  13.753  0.0956  0.3697 -0.0640
 2230DOPS   D2A26162  17.697  32.517  13.309  0.0241 -0.1108  0.2525
 2230DOPS   C3A26163  18.012  32.472  12.994 -0.3039 -0.1386  0.2558
 2230DOPS   C4A26164  18.405  32.759  12.922 -0.2292 -0.0906 -0.3963
 2230DOPS   C1B26165  17.407  32.895  13.581 -0.1017  0.0848  0.0255
 2230DOPS   D2B26166  17.331  32.819  13.123 -0.1294  0.3640 -0.1276
 2230DOPS   C3B26167  17.562  32.638  12.800 -0.3677 -0.1059  0.0255
 2230DOPS   C4B26168  17.727  32.654  12.368  0.0544  0.2533 -0.1121
 2231DOPE   NH326169  20.758  20.250  13.879 -0.1581  0.0505 -0.1949
 2231DOPE   PO426170  20.721  20.257  13.554 -0.0576 -0.0520 -0.1698
 2231DOPE   GL126171  20.699  20.344  13.150 -0.2240  0.2260  0.2466
 2231DOPE   GL226172  20.485  20.588  13.229 -0.1126  0.0160 -0.2001
 2231DOPE   C1A26173  20.717  20.322  12.632 -0.1999  0.2103  0.0293
 2231DOPE   D2A26174  20.448  20.236  12.275 -0.1227  0.0605 -0.2265
 2231DOPE   C3A26175  20.419  20.577  11.948  0.0447  0.0820  0.3994
 2231DOPE   C4A26176  20.488  20.813  11.599 -0.0949  0.2126 -0.1672
 2231DOPE   C1B26177  20.314  20.465  12.816 -0.0111 -0.2257  0.1648
 2231DOPE   D2B26178  20.153  20.645  12.454  0.0055 -0.3596  0.1040
 2231DOPE   C3B26179  19.964  21.000  12.243  0.0227 -0.1381 -0.2373
 2231DOPE   C4B26180  20.147  21.472  12.219 -0.0373  0.0053 -0.0602
 2232DOPC   NC326181  16.666  25.422  14.637 -0.1357  0.0063 -0.0231
 2232DOPC   PO426182  16.415  25.582  14.942 -0.2682 -0.1221  0.1327
 2232DOPC   GL126183  16.221  25.581  14.504  0.1612  0.0876  0.2634
 2232DOPC   GL226184  16.397  25.620  14.246 -0.2364 -0.1499  0.2685
 2232DOPC   C1A26185  15.867  25.598  14.181 -0.1522 -0.0312 -0.0348
 2232DOPC   D2A26186  15.587  25.747  13.848  0.0458  0.1753  0.1115
 2232DOPC   C3A26187  15.677  26.163  13.709  0.2047  0.1741 -0.0879
 2232DOPC   C4A26188  15.722  26.595  13.757  0.0031  0.1934  0.0794
 2232DOPC   C1B26189  16.390  25.370  13.880 -0.2218 -0.2157  0.0115
 2232DOPC   D2B26190  16.237  25.388  13.435  0.2241  0.1882  0.0346
 2232DOPC   C3B26191  16.444  25.367  13.013 -0.0965 -0.2308 -0.1739
 2232DOPC   C4B26192  16.583  25.494  12.604  0.0403 -0.1225  0.3063
 2233DOPS   CNO26193  22.383  30.818  13.811 -0.1631  0.0926  0.0196
 2233DOPS   PO426194  22.162  30.524  13.901 -0.2229 -0.1312  0.0562
 2233DOPS   GL126195  22.039  30.339  13.466 -0.1666 -0.1492  0.3447
 2233DOPS   GL226196  22.145  30.558  13.321  0.1228 -0.0754 -0.3477
 2233DOPS   C1A26197  22.130  30.198  13.019  0.3428 -0.0785 -0.0980
 2233DOPS   D2A26198  22.310  30.207  12.629 -0.0434  0.0209  0.0959
 2233DOPS   C3A26199  21.971  30.400  12.304  0.1063 -0.1045 -0.1216
 2233DOPS   C4A26200  21.512  30.515  12.164 -0.0586  0.0122 -0.1370
 2233DOPS   C1B26201  22.220  30.681  12.883  0.0367  0.0580 -0.0785
 2233DOPS   D2B26202  21.923  30.864  12.609  0.2070 -0.1532 -0.0611
 2233DOPS   C3B26203  21.466  30.908  12.601  0.1171  0.1570 -0.3603
 2233DOPS   C4B26204  21.085  31.028  12.344  0.2297  0.1557  0.0582
 2234DOPE   NH326205  19.439  32.881  14.142 -0.1395  0.1627  0.1114
 2234DOPE   PO426206  19.365  32.597  14.202  0.0095  0.3354  0.0331
 2234DOPE   GL126207  19.200  32.337  13.952 -0.2027  0.0194 -0.0861
 2234DOPE   GL226208  19.490  32.147  13.907  0.0721  0.0087  0.0412
 2234DOPE   C1A26209  18.799  32.252  13.735  0.0478 -0.0003 -0.1592
 2234DOPE   D2A26210  18.434  32.030  13.508  0.4724 -0.0028  0.0464
 2234DOPE   C3A26211  18.223  31.976  13.091 -0.0781  0.1520  0.0292
 2234DOPE   C4A26212  18.342  32.220  12.686 -0.2555  0.1455 -0.1920
 2234DOPE   C1B26213  19.401  32.140  13.475  0.1996  0.0298  0.2431
 2234DOPE   D2B26214  19.260  32.437  13.209 -0.3874  0.2224  0.1463
 2234DOPE   C3B26215  19.357  32.729  12.849  0.1479 -0.3624  0.2304
 2234DOPE   C4B26216  19.267  33.122  12.541 -0.1121 -0.0144 -0.0263
 2235DOPE   NH326217  21.318  30.189  14.262 -0.0357  0.2133  0.2695
 2235DOPE   PO426218  21.509  30.076  14.077  0.0355 -0.0020 -0.0296
 2235DOPE   GL126219  21.523  30.250  13.695  0.0116  0.2203 -0.1418
 2235DOPE   GL226220  21.698  30.501  13.738 -0.3179 -0.0225 -0.0716
 2235DOPE   C1A26221  21.486  30.175  13.239  0.1234  0.0441 -0.0793
 2235DOPE   D2A26222  21.267  30.091  12.814 -0.1844 -0.0453 -0.2111
 2235DOPE   C3A26223  21.266  30.058  12.351 -0.0130 -0.2467 -0.0769
 2235DOPE   C4A26224  21.338  30.061  11.906 -0.3389 -0.1921 -0.1507
 2235DOPE   C1B26225  21.647  30.623  13.271  0.1602  0.0555 -0.0384
 2235DOPE   D2B26226  21.681  30.517  12.838 -0.1346 -0.2236 -0.0740
 2235DOPE   C3B26227  21.726  30.122  12.651  0.2044  0.1357 -0.1668
 2235DOPE   C4B26228  22.001  29.812  12.358 -0.1362  0.0185 -0.4308
 2236DOPE   NH326229  19.064  27.866  14.277 -0.1140  0.0463 -0.3381
 2236DOPE   PO426230  18.922  27.661  14.050 -0.1073 -0.0282 -0.0467
 2236DOPE   GL126231  18.690  27.566  13.712  0.5948 -0.1751  0.0861
 2236DOPE   GL226232  18.366  27.549  13.601 -0.2854 -0.0141  0.0075
 2236DOPE   C1A26233  18.699  27.815  13.327 -0.1053  0.2362  0.1036
 2236DOPE   D2A26234  18.512  27.814  12.862  0.1909 -0.0341  0.1704
 2236DOPE   C3A26235  18.634  27.421  12.646  0.0500  0.1496  0.0314
 2236DOPE   C4A26236  18.581  27.173  12.220 -0.0002 -0.1001  0.2004
 2236DOPE   C1B26237  18.103  27.521  13.219  0.5326 -0.1697 -0.1187
 2236DOPE   D2B26238  17.663  27.381  13.083 -0.1507 -0.1180  0.1944
 2236DOPE   C3B26239  17.520  27.523  12.618 -0.1908  0.0128 -0.2468
 2236DOPE   C4B26240  17.552  27.668  12.196 -0.0443  0.0118  0.1999
 2237DOPC   NC326241  23.314  32.106  13.929 -0.1211 -0.1925  0.1411
 2237DOPC   PO426242  23.108  32.107  14.297  0.0310  0.1511 -0.0292
 2237DOPC   GL126243  22.912  32.332  14.092  0.0644  0.1402  0.0677
 2237DOPC   GL226244  23.076  32.555  13.967  0.3107  0.0205  0.1548
 2237DOPC   C1A26245  22.889  32.177  13.679 -0.0728 -0.0954  0.0795
 2237DOPC   D2A26246  22.846  32.146  13.228 -0.0222 -0.2575 -0.1988
 2237DOPC   C3A26247  22.724  32.105  12.731 -0.1493  0.1025 -0.0737
 2237DOPC   C4A26248  22.693  32.284  12.276  0.1555  0.2451 -0.2063
 2237DOPC   C1B26249  23.276  32.480  13.569 -0.2333 -0.0557  0.1752
 2237DOPC   D2B26250  23.402  32.175  13.272  0.3894  0.0788 -0.2038
 2237DOPC   C3B26251  23.219  32.131  12.789  0.0367  0.0108  0.2261
 2237DOPC   C4B26252  23.158  32.420  12.437  0.0217  0.0646  0.0293
 2238POSM   NC326253  16.455  28.352  14.427  0.2020  0.1938  0.1049
 2238POSM   PO426254  16.117  28.332  14.245 -0.3055 -0.0116 -0.0516
 2238POSM   AM126255  16.058  28.500  13.942  0.0851 -0.2831 -0.0992
 2238POSM   AM226256  16.001  28.800  13.880  0.0976 -0.0097  0.4664
 2238POSM   T1A26257  16.178  28.428  13.466  0.2486  0.1430  0.1384
 2238POSM   C2A26258  16.384  28.781  13.221  0.0359 -0.2840 -0.0145
 2238POSM   C3A26259  16.677  28.957  12.968 -0.0463 -0.2749  0.0373
 2238POSM   C1B26260  16.100  28.985  13.592  0.0655 -0.1987  0.1156
 2238POSM   D2B26261  15.898  29.150  13.201 -0.0390  0.0251  0.4756
 2238POSM   C3B26262  16.187  29.115  12.868  0.1711 -0.1106  0.1049
 2238POSM   C4B26263  16.158  28.783  12.508  0.0489  0.1701  0.1505
 2239POSM   NC326264  11.071  32.399  13.889  0.0924  0.3879 -0.2196
 2239POSM   PO426265  11.028  32.747  14.059  0.2138  0.0567  0.2088
 2239POSM   AM126266  10.955  32.960  13.820  0.1584  0.0831 -0.0495
 2239POSM   AM226267  11.158  33.046  13.619  0.0483 -0.3000  0.1705
 2239POSM   T1A26268  10.674  33.282  13.524 -0.2825 -0.0201  0.3183
 2239POSM   C2A26269  10.297  33.351  13.179  0.0082  0.1966 -0.0264
 2239POSM   C3A26270  10.177  33.189  12.798  0.1393  0.0089  0.0771
 2239POSM   C1B26271  11.194  33.153  13.285  0.0799 -0.0247  0.2428
 2239POSM   D2B26272  11.201  33.574  13.054  0.5716  0.2222 -0.0894
 2239POSM   C3B26273  11.184  33.601  12.595 -0.0315  0.1311  0.0806
 2239POSM   C4B26274  11.306  33.926  12.275 -0.4058 -0.1028 -0.1329
 2240DOPC   NC326275  15.837  28.013  14.056 -0.3939 -0.2148  0.2570
 2240DOPC   PO426276  15.458  27.956  14.096  0.2284  0.0210 -0.0448
 2240DOPC   GL126277  15.628  27.730  13.749 -0.1200 -0.2050 -0.1157
 2240DOPC   GL226278  15.777  27.502  13.815  0.2104  0.1907 -0.0737
 2240DOPC   C1A26279  15.764  28.054  13.488  0.0241  0.0379 -0.1205
 2240DOPC   D2A26280  15.920  28.161  13.072 -0.0124  0.1896  0.0384
 2240DOPC   C3A26281  15.990  28.649  13.030 -0.0100 -0.0134  0.0915
 2240DOPC   C4A26282  15.715  28.928  12.754 -0.0388  0.0629 -0.2789
 2240DOPC   C1B26283  15.566  27.455  13.381 -0.1793 -0.2152  0.3280
 2240DOPC   D2B26284  15.413  27.446  12.940  0.2098 -0.1828  0.2018
 2240DOPC   C3B26285  15.060  27.288  12.713  0.2028  0.0587  0.1081
 2240DOPC   C4B26286  14.607  27.114  12.768  0.2365 -0.1596  0.1717
 2241DOPC   NC326287  17.172  26.865  14.795  0.1179  0.2521  0.0529
 2241DOPC   PO426288  17.373  26.876  14.482  0.0634 -0.2654 -0.1455
 2241DOPC   GL126289  17.390  26.998  14.123 -0.2424  0.3041 -0.1934
 2241DOPC   GL226290  17.404  26.651  14.014 -0.1689  0.3671  0.1215
 2241DOPC   C1A26291  17.804  26.941  13.869  0.3020 -0.0021 -0.1628
 2241DOPC   D2A26292  18.182  27.063  13.720  0.0846 -0.2568 -0.0957
 2241DOPC   C3A26293  18.306  27.016  13.277  0.1715  0.0446  0.0906
 2241DOPC   C4A26294  18.587  27.326  13.114  0.0135  0.1631 -0.0878
 2241DOPC   C1B26295  17.056  26.856  13.805  0.0535 -0.2076 -0.3336
 2241DOPC   D2B26296  16.751  27.039  13.527  0.0115 -0.3525 -0.1962
 2241DOPC   C3B26297  16.699  26.648  13.370 -0.1751  0.0628 -0.1089
 2241DOPC   C4B26298  16.771  26.262  13.240  0.0815  0.0921 -0.0387
 2242DOPS   CNO26299  12.214  29.806  13.949 -0.1714 -0.2418 -0.0085
 2242DOPS   PO426300  12.100  30.022  13.676  0.1629  0.0354 -0.0988
 2242DOPS   GL126301  12.083  29.911  13.261 -0.0670  0.1363 -0.0274
 2242DOPS   GL226302  11.782  30.054  13.268  0.2275  0.1188 -0.1639
 2242DOPS   C1A26303  12.379  29.829  12.900  0.1809 -0.0344 -0.0259
 2242DOPS   D2A26304  12.749  29.906  12.560  0.1535 -0.2010 -0.2022
 2242DOPS   C3A26305  12.731  29.711  12.114 -0.0722  0.2718  0.0183
 2242DOPS   C4A26306  12.296  29.559  12.021  0.1615  0.0676 -0.1535
 2242DOPS   C1B26307  11.514  30.012  12.893  0.3017 -0.3125 -0.0220
 2242DOPS   D2B26308  11.122  29.981  12.606 -0.0184 -0.2842  0.3111
 2242DOPS   C3B26309  11.234  29.878  12.158  0.1124  0.3216 -0.0894
 2242DOPS   C4B26310  11.632  29.843  11.978  0.0583 -0.2512  0.1185
 2243DOPE   NH326311  18.149  25.255  14.736 -0.0538  0.2102  0.0951
 2243DOPE   PO426312  18.061  25.227  14.458  0.1922 -0.1219 -0.1474
 2243DOPE   GL126313  18.101  25.159  14.047  0.3232  0.1756 -0.3071
 2243DOPE   GL226314  17.839  25.276  13.921 -0.1061 -0.1337  0.0884
 2243DOPE   C1A26315  18.219  25.050  13.641 -0.0068 -0.1020 -0.2379
 2243DOPE   D2A26316  18.389  24.875  13.217  0.1885 -0.0802  0.0863
 2243DOPE   C3A26317  18.602  25.098  12.849 -0.2369 -0.2185  0.1278
 2243DOPE   C4A26318  18.811  25.116  12.427 -0.1228  0.1364  0.3022
 2243DOPE   C1B26319  17.973  25.431  13.506  0.1348  0.0114  0.1822
 2243DOPE   D2B26320  18.121  25.775  13.230  0.1645 -0.1473 -0.4126
 2243DOPE   C3B26321  18.445  26.106  13.254  0.1506  0.2458  0.1046
 2243DOPE   C4B26322  18.542  26.585  13.266 -0.1834  0.0142 -0.1961
 2244DOPS   CNO26323  21.810  28.848  14.375 -0.3851 -0.0170 -0.0728
 2244DOPS   PO426324  21.963  28.811  14.054  0.2661 -0.0661  0.1057
 2244DOPS   GL126325  21.985  29.102  13.840  0.0036  0.0444 -0.0962
 2244DOPS   GL226326  21.806  28.969  13.589  0.2109 -0.0095  0.1658
 2244DOPS   C1A26327  22.110  29.363  13.438 -0.0906  0.0032  0.0673
 2244DOPS   D2A26328  22.055  29.561  12.955  0.0747  0.0329  0.1118
 2244DOPS   C3A26329  21.608  29.688  12.760 -0.1754  0.1059 -0.1591
 2244DOPS   C4A26330  21.223  29.500  12.588 -0.0270  0.0274  0.1832
 2244DOPS   C1B26331  21.530  28.864  13.278  0.0917 -0.0060 -0.0220
 2244DOPS   D2B26332  21.372  28.831  12.839 -0.4088 -0.2853  0.1233
 2244DOPS   C3B26333  21.002  28.866  12.628 -0.0568 -0.4020 -0.0279
 2244DOPS   C4B26334  20.514  28.912  12.598 -0.0161 -0.0479  0.4553
 2245DOPE   NH326335  22.955  23.302  10.569 -0.1945  0.1659  0.3072
 2245DOPE   PO426336  22.892  23.004  10.619  0.0572 -0.0115  0.0261
 2245DOPE   GL126337  23.127  23.110  10.941 -0.1407  0.1188  0.0170
 2245DOPE   GL226338  23.002  22.986  11.123  0.1281  0.0551 -0.0417
 2245DOPE   C1A26339  23.521  22.961  11.198 -0.0650  0.0689  0.1529
 2245DOPE   D2A26340  23.709  22.759  11.606 -0.4084  0.0616  0.1798
 2245DOPE   C3A26341  23.684  22.567  12.030 -0.2222  0.0711  0.2747
 2245DOPE   C4A26342  23.407  22.686  12.387  0.1452  0.0438  0.4541
 2245DOPE   C1B26343  22.948  23.103  11.592  0.1087 -0.1587 -0.0100
 2245DOPE   D2B26344  22.639  23.162  11.951  0.1420 -0.4373  0.1775
 2245DOPE   C3B26345  22.307  22.887  11.919 -0.1784 -0.0357 -0.3972
 2245DOPE   C4B26346  21.893  22.800  11.689  0.0823  0.0193  0.1737
 2246DOPS   CNO26347  12.356  24.963  10.261  0.0911  0.2195  0.1895
 2246DOPS   PO426348  12.750  24.862  10.213 -0.0921  0.1108 -0.2025
 2246DOPS   GL126349  12.535  24.510  10.426  0.0652  0.2016  0.5092
 2246DOPS   GL226350  12.751  24.536  10.651  0.3060  0.1272 -0.1291
 2246DOPS   C1A26351  12.264  24.644  10.769 -0.2973 -0.2942 -0.1694
 2246DOPS   D2A26352  11.994  24.817  11.124  0.2524  0.1804 -0.0219
 2246DOPS   C3A26353  11.877  25.002  11.525 -0.0845  0.0258  0.1233
 2246DOPS   C4A26354  11.510  24.794  11.792 -0.0249  0.1097 -0.0119
 2246DOPS   C1B26355  12.991  24.886  10.819  0.0199  0.0471 -0.0416
 2246DOPS   D2B26356  13.008  25.037  11.255  0.1624  0.2075  0.0463
 2246DOPS   C3B26357  12.980  24.895  11.611  0.0992  0.0644  0.0473
 2246DOPS   C4B26358  12.984  25.043  12.042 -0.0777  0.4185  0.0330
 2247DOPE   NH326359  21.871  25.281  10.810 -0.2595 -0.0294  0.0212
 2247DOPE   PO426360  21.625  25.488  10.766 -0.0308 -0.0404  0.2370
 2247DOPE   GL126361  21.739  25.674  11.005 -0.1149  0.1672 -0.2057
 2247DOPE   GL226362  21.572  25.854  11.138 -0.1663 -0.0120 -0.0118
 2247DOPE   C1A26363  21.894  25.567  11.386  0.4512 -0.0132  0.0688
 2247DOPE   D2A26364  21.751  25.587  11.857 -0.0971  0.0596  0.0604
 2247DOPE   C3A26365  21.986  25.566  12.239  0.2280 -0.1765 -0.0693
 2247DOPE   C4A26366  22.186  25.270  12.518  0.1819  0.2691  0.0525
 2247DOPE   C1B26367  21.637  25.996  11.541  0.0665  0.3066  0.0440
 2247DOPE   D2B26368  21.673  26.118  11.959 -0.0749  0.1126  0.1556
 2247DOPE   C3B26369  21.301  26.105  12.246 -0.3260 -0.4369 -0.0371
 2247DOPE   C4B26370  20.837  25.964  12.359  0.0355  0.0713 -0.2161
 2248DOPE   NH326371  21.269  23.295  10.305 -0.0519  0.2085 -0.1920
 2248DOPE   PO426372  21.206  23.533  10.521  0.1673  0.1900 -0.0176
 2248DOPE   GL126373  21.063  23.249  10.761 -0.0373 -0.1172  0.1603
 2248DOPE   GL226374  20.756  23.333  10.890 -0.0226  0.1290 -0.2039
 2248DOPE   C1A26375  21.083  23.188  11.286 -0.2605  0.0896 -0.1729
 2248DOPE   D2A26376  21.177  23.475  11.716  0.0592  0.0008  0.3369
 2248DOPE   C3A26377  21.502  23.163  11.916  0.0469  0.2231  0.2593
 2248DOPE   C4A26378  21.796  22.891  12.202  0.2399 -0.1582 -0.0933
 2248DOPE   C1B26379  20.692  22.922  11.171 -0.2264 -0.1456 -0.2063
 2248DOPE   D2B26380  20.595  22.631  11.577 -0.2403  0.3163  0.1148
 2248DOPE   C3B26381  20.743  22.718  12.027 -0.3931 -0.0480  0.0173
 2248DOPE   C4B26382  20.604  23.001  12.326 -0.0829  0.3033 -0.2612
 2249DOPC   NC326383  19.808  23.921  11.249 -0.0444  0.0232 -0.1844
 2249DOPC   PO426384  19.836  23.588  11.052  0.0459 -0.1233 -0.3312
 2249DOPC   GL126385  19.935  23.417  11.402  0.0265  0.0343  0.1903
 2249DOPC   GL226386  20.008  23.639  11.594 -0.0002 -0.1484  0.0658
 2249DOPC   C1A26387  20.391  23.380  11.580 -0.0901 -0.3137  0.2690
 2249DOPC   D2A26388  20.777  23.078  11.672  0.2122  0.0088  0.0252
 2249DOPC   C3A26389  21.030  23.130  12.053  0.1585  0.0782 -0.1737
 2249DOPC   C4A26390  21.209  22.790  12.286 -0.3146 -0.2689  0.0722
 2249DOPC   C1B26391  20.183  23.699  11.994 -0.0375  0.1158  0.2118
 2249DOPC   D2B26392  20.325  23.829  12.382 -0.1056 -0.1730 -0.0560
 2249DOPC   C3B26393  20.619  23.487  12.542  0.1137 -0.2822 -0.0630
 2249DOPC   C4B26394  21.056  23.336  12.496 -0.1390  0.0157  0.1057
 2250DOPC   NC326395  11.921  30.682   9.790 -0.1577  0.1341  0.1804
 2250DOPC   PO426396  12.199  30.527   9.947 -0.1451 -0.0587 -0.0076
 2250DOPC   GL126397  11.871  30.288  10.169  0.1627  0.2760  0.3393
 2250DOPC   GL226398  11.869  30.397  10.456 -0.1381 -0.1759  0.2526
 2250DOPC   C1A26399  11.549  29.933  10.257 -0.0047 -0.1280 -0.1984
 2250DOPC   D2A26400  11.133  29.735  10.378  0.1792  0.1106  0.0445
 2250DOPC   C3A26401  10.706  29.592  10.560 -0.1140  0.0015 -0.0494
 2250DOPC   C4A26402  10.565  29.627  11.055 -0.3428  0.1022 -0.0384
 2250DOPC   C1B26403  11.395  30.331  10.538  0.1669  0.3415  0.0177
 2250DOPC   D2B26404  11.350  29.959  10.782  0.1188 -0.2398 -0.1595
 2250DOPC   C3B26405  11.158  29.588  10.898 -0.1764 -0.0238  0.2186
 2250DOPC   C4B26406  10.970  29.433  11.289 -0.0247  0.0022 -0.0307
 2251DOPE   NH326407  11.728  28.006   9.333 -0.2163  0.2676 -0.0227
 2251DOPE   PO426408  11.648  27.712   9.341  0.0171 -0.0554  0.1375
 2251DOPE   GL126409  11.748  27.940   9.784  0.3703  0.1558 -0.0217
 2251DOPE   GL226410  11.786  28.164   9.827  0.0304  0.0468  0.2221
 2251DOPE   C1A26411  11.837  27.785  10.195  0.0163 -0.0063  0.0299
 2251DOPE   D2A26412  12.141  27.772  10.564  0.1298 -0.1365 -0.0405
 2251DOPE   C3A26413  12.398  27.398  10.646  0.0660  0.2139 -0.0289
 2251DOPE   C4A26414  12.472  26.962  10.511 -0.3759 -0.2920  0.2399
 2251DOPE   C1B26415  11.537  28.366  10.169  0.0543  0.4676 -0.1410
 2251DOPE   D2B26416  11.100  28.297  10.343  0.2580  0.2960  0.0643
 2251DOPE   C3B26417  11.241  28.296  10.815  0.3333  0.0669  0.0665
 2251DOPE   C4B26418  11.508  28.316  11.174  0.1843  0.1215  0.0938
 2252DOPE   NH326419  19.197  33.012  10.515 -0.2317  0.2344  0.2786
 2252DOPE   PO426420  19.246  32.719  10.567  0.2025 -0.2944 -0.3437
 2252DOPE   GL126421  19.426  32.807  10.924  0.3520  0.0044 -0.2689
 2252DOPE   GL226422  19.291  32.933  11.070 -0.1759 -0.2799  0.1352
 2252DOPE   C1A26423  19.489  32.582  11.329  0.0398  0.0348  0.0676
 2252DOPE   D2A26424  19.742  32.240  11.600 -0.0470  0.0731  0.1375
 2252DOPE   C3A26425  19.578  32.018  12.010 -0.1913  0.2266  0.2917
 2252DOPE   C4A26426  19.599  31.901  12.460 -0.1157  0.1793  0.1714
 2252DOPE   C1B26427  19.516  33.058  11.451  0.3257  0.2691  0.1546
 2252DOPE   D2B26428  19.730  33.101  11.820  0.1869 -0.0929  0.0393
 2252DOPE   C3B26429  19.553  33.365  12.172  0.0710  0.1524 -0.1063
 2252DOPE   C4B26430  19.306  33.599  12.489 -0.1583  0.0037  0.0693
 2253DOPE   NH326431  19.085  29.909  10.541  0.2014 -0.1507 -0.1549
 2253DOPE   PO426432  19.015  30.224  10.447 -0.2455  0.0989  0.3889
 2253DOPE   GL126433  19.119  30.277  10.856  0.0133  0.2041  0.4606
 2253DOPE   GL226434  19.324  30.125  10.912 -0.2028 -0.3616 -0.4137
 2253DOPE   C1A26435  19.069  29.974  11.254 -0.2336 -0.0666 -0.2944
 2253DOPE   D2A26436  19.013  29.842  11.660 -0.0442  0.2795  0.3198
 2253DOPE   C3A26437  19.091  30.225  11.898  0.1333 -0.2855  0.1386
 2253DOPE   C4A26438  19.425  30.440  12.115 -0.1127  0.4758 -0.2331
 2253DOPE   C1B26439  19.602  29.857  11.171 -0.0184  0.0488  0.2570
 2253DOPE   D2B26440  19.948  29.994  11.434  0.0517 -0.0294  0.1206
 2253DOPE   C3B26441  20.088  29.692  11.759  0.0141 -0.1757  0.2931
 2253DOPE   C4B26442  20.254  29.872  12.119 -0.1489 -0.1173  0.2450
 2254POSM   NC326443  13.885  28.385   9.568 -0.3350 -0.0251  0.3713
 2254POSM   PO426444  14.180  28.638   9.579 -0.1466  0.1271  0.0791
 2254POSM   AM126445  14.077  28.748   9.861  0.0100 -0.2211  0.0455
 2254POSM   AM226446  14.175  28.938  10.080 -0.0079  0.0436 -0.0809
 2254POSM   T1A26447  13.959  28.581  10.357  0.0003 -0.0108 -0.0476
 2254POSM   C2A26448  13.786  28.362  10.703 -0.0810  0.2544  0.0105
 2254POSM   C3A26449  13.702  28.570  11.039  0.3181  0.1207  0.1940
 2254POSM   C1B26450  14.045  29.065  10.373  0.3003  0.1601 -0.1102
 2254POSM   D2B26451  13.783  29.052  10.755 -0.1912 -0.0669  0.2080
 2254POSM   C3B26452  13.439  28.972  11.116 -0.0562  0.1350  0.1080
 2254POSM   C4B26453  13.240  28.758  11.375 -0.0434 -0.1221 -0.2448
 2255DOPE   NH326454  17.518  30.863  10.811 -0.2448  0.0786  0.1710
 2255DOPE   PO426455  17.686  30.600  10.651  0.1576  0.2598 -0.0175
 2255DOPE   GL126456  17.841  30.648  11.046  0.1125 -0.0290 -0.2028
 2255DOPE   GL226457  17.809  30.452  11.222 -0.0928 -0.3596  0.0228
 2255DOPE   C1A26458  17.847  30.976  11.394 -0.0151 -0.0011 -0.0384
 2255DOPE   D2A26459  17.624  30.918  11.740  0.3367  0.1572 -0.1493
 2255DOPE   C3A26460  17.778  30.791  12.137 -0.1060 -0.0141  0.0456
 2255DOPE   C4A26461  17.510  30.836  12.529 -0.2181  0.2271  0.1718
 2255DOPE   C1B26462  17.560  30.385  11.595  0.0666  0.0669  0.0871
 2255DOPE   D2B26463  17.276  30.595  11.976  0.2762 -0.0864 -0.1399
 2255DOPE   C3B26464  17.167  30.373  12.374 -0.4270 -0.2173  0.0426
 2255DOPE   C4B26465  16.753  30.426  12.577 -0.1696  0.3331 -0.2964
 2256POSM   NC326466  16.966  28.477   9.944  0.0487 -0.0861  0.2872
 2256POSM   PO426467  17.291  28.284  10.110 -0.1687 -0.5287 -0.0674
 2256POSM   AM126468  17.491  28.427  10.316 -0.4066  0.0949 -0.2180
 2256POSM   AM226469  17.705  28.267  10.457 -0.1639  0.1524 -0.1317
 2256POSM   T1A26470  17.786  28.777  10.526 -0.0457  0.2987 -0.2095
 2256POSM   C2A26471  18.087  28.852  10.832 -0.2545 -0.0827 -0.1241
 2256POSM   C3A26472  18.441  28.740  11.137 -0.0467 -0.2723  0.1966
 2256POSM   C1B26473  17.941  28.335  10.706 -0.1660  0.1101 -0.0257
 2256POSM   D2B26474  17.955  28.502  11.151 -0.1094  0.1659  0.0090
 2256POSM   C3B26475  17.666  28.566  11.503  0.0953  0.1470 -0.0376
 2256POSM   C4B26476  17.305  28.332  11.739 -0.0104  0.2914  0.0475
 2257POSM   NC326477  10.474  21.056  10.092 -0.1674  0.1798 -0.1208
 2257POSM   PO426478  10.602  20.625  10.020  0.1462 -0.0631  0.1295
 2257POSM   AM126479  10.638  20.404  10.306 -0.0868  0.0676  0.3204
 2257POSM   AM226480  10.453  20.319  10.483  0.5995 -0.0312  0.0953
 2257POSM   T1A26481  10.737  20.477  10.780 -0.3628  0.1393  0.1492
 2257POSM   C2A26482  10.646  20.274  11.109 -0.0023  0.0187 -0.2412
 2257POSM   C3A26483  10.972  20.033  11.353  0.0957 -0.2096 -0.2520
 2257POSM   C1B26484  10.259  20.236  10.700  0.3261 -0.0705 -0.0114
 2257POSM   D2B26485  10.128  19.988  11.116  0.5035 -0.4111  0.0344
 2257POSM   C3B26486   9.916  20.231  11.484 -0.0261 -0.0149 -0.2197
 2257POSM   C4B26487   9.643  20.363  11.858 -0.0211 -0.2866  0.1332
 2258DOPC   NC326488  19.228  32.249  10.091 -0.1277  0.0395  0.1727
 2258DOPC   PO426489  19.222  32.110  10.436 -0.1609  0.2026  0.0220
 2258DOPC   GL126490  19.252  32.164  10.842  0.1248 -0.0791 -0.1867
 2258DOPC   GL226491  19.200  32.372  10.900 -0.2525 -0.0923 -0.2601
 2258DOPC   C1A26492  19.175  32.075  11.267  0.2031  0.0922  0.2791
 2258DOPC   D2A26493  19.233  32.191  11.727  0.2533 -0.0325  0.0024
 2258DOPC   C3A26494  19.270  32.658  11.777 -0.0958  0.4047  0.0209
 2258DOPC   C4A26495  19.434  32.884  12.123 -0.0133  0.1437 -0.0566
 2258DOPC   C1B26496  18.930  32.520  11.231 -0.1209 -0.1240 -0.0354
 2258DOPC   D2B26497  18.740  32.265  11.563 -0.1166  0.0320 -0.0369
 2258DOPC   C3B26498  18.690  32.337  12.028 -0.0715 -0.1955 -0.4602
 2258DOPC   C4B26499  18.791  32.322  12.430 -0.0097  0.4250  0.1548
 2259DOPC   NC326500  17.524  33.744  10.119  0.0344 -0.1242  0.1124
 2259DOPC   PO426501  17.491  33.926  10.423  0.3269  0.0771  0.1146
 2259DOPC   GL126502  17.817  33.897  10.674  0.0472  0.3842  0.4253
 2259DOPC   GL226503  17.982  34.068  10.708  0.0602  0.0602  0.1775
 2259DOPC   C1A26504  18.103  33.748  11.025  0.0956 -0.2332 -0.0119
 2259DOPC   D2A26505  18.012  33.404  11.277  0.1125  0.0774  0.2286
 2259DOPC   C3A26506  17.662  33.537  11.524 -0.3549 -0.0594  0.3278
 2259DOPC   C4A26507  17.297  33.393  11.755 -0.3023 -0.2079  0.1006
 2259DOPC   C1B26508  18.061  34.167  11.184  0.1856  0.4924 -0.0089
 2259DOPC   D2B26509  18.267  34.334  11.618  0.1908  0.0396  0.0399
 2259DOPC   C3B26510  18.114  34.616  11.939 -0.1336  0.1954  0.1079
 2259DOPC   C4B26511  18.288  34.793  12.319 -0.1385  0.0436  0.0975
 2260DOPC   NC326512  16.424  28.520  10.039  0.1240 -0.0604 -0.0480
 2260DOPC   PO426513  16.139  28.590  10.287  0.1870 -0.1525  0.1554
 2260DOPC   GL126514  16.009  28.556  10.618  0.0231  0.1763 -0.3751
 2260DOPC   GL226515  15.793  28.372  10.719  0.0388 -0.1307 -0.2260
 2260DOPC   C1A26516  16.214  28.516  11.071  0.1715  0.0914 -0.2078
 2260DOPC   D2A26517  16.134  28.487  11.542 -0.1361 -0.2138  0.1818
 2260DOPC   C3A26518  15.663  28.521  11.625 -0.0397  0.1655 -0.2913
 2260DOPC   C4A26519  15.383  28.779  11.408 -0.1124 -0.0628  0.2589
 2260DOPC   C1B26520  15.669  28.468  11.161  0.1684 -0.0682  0.1473
 2260DOPC   D2B26521  15.390  28.173  11.454  0.2389 -0.0034 -0.0249
 2260DOPC   C3B26522  15.074  28.395  11.642  0.1307 -0.0694  0.1793
 2260DOPC   C4B26523  14.827  28.276  12.013  0.1069  0.1116  0.2186
 2261DOPE   NH326524  19.948  21.404   9.894 -0.2125 -0.1199  0.0210
 2261DOPE   PO426525  19.759  21.519  10.118  0.1666 -0.2788 -0.3804
 2261DOPE   GL126526  19.769  21.433  10.508  0.5876  0.0065  0.3463
 2261DOPE   GL226527  19.887  21.611  10.646  0.2342 -0.1144 -0.1808
 2261DOPE   C1A26528  19.520  21.306  10.888  0.3498  0.0086  0.0744
 2261DOPE   D2A26529  19.368  21.391  11.289  0.0234  0.0747  0.1152
 2261DOPE   C3A26530  19.230  21.400  11.701 -0.2303  0.2080 -0.2587
 2261DOPE   C4A26531  19.013  21.294  12.146  0.0662  0.0843 -0.0608
 2261DOPE   C1B26532  19.846  21.672  11.123  0.1454 -0.0761  0.1051
 2261DOPE   D2B26533  19.841  21.453  11.489  0.0048  0.3361  0.2172
 2261DOPE   C3B26534  19.613  21.058  11.616  0.1293  0.0093  0.3599
 2261DOPE   C4B26535  19.283  20.911  11.924 -0.2886 -0.0961 -0.1025
 2262POSM   NC326536  19.242  21.392   9.941 -0.0393  0.1754 -0.0766
 2262POSM   PO426537  18.853  21.225   9.977  0.2642 -0.1866 -0.0139
 2262POSM   AM126538  18.863  21.308  10.289  0.4648 -0.1054  0.2058
 2262POSM   AM226539  18.731  21.450  10.533  0.1726 -0.4855  0.0189
 2262POSM   T1A26540  19.013  21.131  10.740 -0.1206  0.3155 -0.3666
 2262POSM   C2A26541  19.045  20.780  10.989  0.0271 -0.0228  0.2109
 2262POSM   C3A26542  19.021  20.402  10.758 -0.0640 -0.3148 -0.0860
 2262POSM   C1B26543  18.504  21.313  10.739 -0.2737 -0.0266  0.0227
 2262POSM   D2B26544  18.349  21.236  11.127 -0.2299  0.0871 -0.1328
 2262POSM   C3B26545  18.110  21.515  11.428 -0.3133  0.0897  0.0241
 2262POSM   C4B26546  17.697  21.741  11.318  0.0387  0.1580  0.2007
 2263DOPE   NH326547  13.493  30.097   9.295  0.0733 -0.0196  0.0130
 2263DOPE   PO426548  13.681  29.994   9.536  0.1487  0.2394 -0.0791
 2263DOPE   GL126549  13.746  29.815  10.033 -0.1552  0.0842 -0.2789
 2263DOPE   GL226550  13.726  30.078  10.247 -0.0712 -0.1083 -0.1040
 2263DOPE   C1A26551  13.463  29.621  10.337 -0.1738  0.0856  0.1841
 2263DOPE   D2A26552  13.398  29.636  10.728 -0.1095  0.1262  0.1578
 2263DOPE   C3A26553  13.363  29.421  11.134  0.2842  0.0353 -0.1315
 2263DOPE   C4A26554  13.096  29.231  11.417 -0.2353  0.0200 -0.1226
 2263DOPE   C1B26555  13.694  30.067  10.708 -0.0662 -0.0484 -0.0744
 2263DOPE   D2B26556  13.515  29.943  11.124 -0.0239 -0.2840  0.0725
 2263DOPE   C3B26557  13.535  29.958  11.590  0.1042 -0.1646 -0.2899
 2263DOPE   C4B26558  13.739  29.934  11.954 -0.1271  0.0791  0.0125
 2264DOPC   NC326559  22.485  22.136  10.295  0.3857 -0.0327 -0.2169
 2264DOPC   PO426560  22.180  21.873  10.348 -0.0448  0.0597  0.3201
 2264DOPC   GL126561  22.234  22.081  10.701  0.0104 -0.2331  0.1354
 2264DOPC   GL226562  22.334  22.376  10.736 -0.1324  0.2332 -0.1046
 2264DOPC   C1A26563  22.096  22.007  11.150  0.0879  0.0253 -0.0106
 2264DOPC   D2A26564  21.975  22.070  11.671 -0.4725  0.0548 -0.1587
 2264DOPC   C3A26565  21.686  21.742  11.903 -0.4654 -0.0340  0.0413
 2264DOPC   C4A26566  21.476  21.568  12.278 -0.1852  0.0802 -0.0090
 2264DOPC   C1B26567  22.511  22.336  11.194  0.1507 -0.2090 -0.0508
 2264DOPC   D2B26568  22.418  21.965  11.546 -0.2349 -0.1094  0.3010
 2264DOPC   C3B26569  22.552  21.942  11.967 -0.1376 -0.1756  0.2110
 2264DOPC   C4B26570  22.609  21.622  12.324 -0.0690  0.0601  0.3753
 2265POSM   NC326571  19.108  22.144  10.516  0.0200 -0.1356 -0.0433
 2265POSM   PO426572  19.015  22.501  10.414  0.1242 -0.3140 -0.1886
 2265POSM   AM126573  19.036  22.543  10.782  0.2661  0.0549  0.1382
 2265POSM   AM226574  19.233  22.484  10.994  0.2989 -0.0038  0.2044
 2265POSM   T1A26575  18.781  22.556  11.226 -0.0421  0.3085  0.1158
 2265POSM   C2A26576  18.711  22.262  11.620 -0.1236  0.0416  0.1142
 2265POSM   C3A26577  18.332  22.271  11.959  0.0005 -0.1758  0.0512
 2265POSM   C1B26578  19.274  22.406  11.294  0.2571 -0.0856 -0.2660
 2265POSM   D2B26579  19.168  22.241  11.732  0.2006 -0.0938 -0.1867
 2265POSM   C3B26580  18.906  22.022  12.064 -0.0273  0.0018  0.0065
 2265POSM   C4B26581  18.678  21.674  12.318  0.1179 -0.2081 -0.1420
 2266DOPE   NH326582  17.847  27.943  10.093 -0.0585  0.0080  0.2357
 2266DOPE   PO426583  18.045  27.819  10.260 -0.1016  0.0556  0.1817
 2266DOPE   GL126584  18.082  27.917  10.623  0.3934  0.1509  0.1079
 2266DOPE   GL226585  17.937  27.705  10.775  0.1413  0.0298 -0.0634
 2266DOPE   C1A26586  18.255  28.022  11.020 -0.1133  0.1790  0.1182
 2266DOPE   D2A26587  18.531  28.269  11.310  0.0982 -0.0473 -0.0270
 2266DOPE   C3A26588  18.275  28.601  11.529 -0.2047 -0.1565 -0.2373
 2266DOPE   C4A26589  17.979  28.458  11.867 -0.1095 -0.1757 -0.1551
 2266DOPE   C1B26590  17.929  27.572  11.221 -0.0391 -0.2114  0.2164
 2266DOPE   D2B26591  18.263  27.599  11.582  0.2724 -0.0560 -0.2958
 2266DOPE   C3B26592  18.591  27.289  11.591 -0.0130 -0.2214  0.1793
 2266DOPE   C4B26593  18.960  27.199  11.857 -0.0799 -0.3361 -0.5322
 2267DOPE   NH326594  11.698  26.971   9.370 -0.2601 -0.0891  0.0771
 2267DOPE   PO426595  11.651  26.889   9.655 -0.0398 -0.0115  0.1335
 2267DOPE   GL126596  11.959  27.151   9.823 -0.3915 -0.0439 -0.3092
 2267DOPE   GL226597  11.806  27.441   9.772  0.2726 -0.1770  0.1447
 2267DOPE   C1A26598  12.121  27.361  10.227  0.2118 -0.0855  0.1320
 2267DOPE   D2A26599  11.836  27.338  10.606 -0.1332  0.2253  0.1256
 2267DOPE   C3A26600  11.644  27.655  10.827 -0.0382 -0.1130  0.0985
 2267DOPE   C4A26601  11.312  27.887  11.039 -0.2428 -0.0117 -0.0362
 2267DOPE   C1B26602  11.481  27.370  10.108 -0.0971 -0.1315 -0.0274
 2267DOPE   D2B26603  11.347  27.260  10.478 -0.1916 -0.2221 -0.1123
 2267DOPE   C3B26604  11.152  27.458  10.856 -0.2077 -0.1674  0.5081
 2267DOPE   C4B26605  10.960  27.412  11.255 -0.1024 -0.0068 -0.0101
 2268DOPC   NC326606  15.937  30.994  10.432 -0.3035  0.0997 -0.0259
 2268DOPC   PO426607  16.303  30.843  10.451 -0.0455 -0.2288 -0.3217
 2268DOPC   GL126608  16.222  30.768  10.805  0.0528 -0.3908  0.3225
 2268DOPC   GL226609  15.985  30.607  10.817 -0.0552 -0.0133  0.0178
 2268DOPC   C1A26610  16.134  30.970  11.222 -0.1689 -0.0264 -0.2161
 2268DOPC   D2A26611  16.201  30.960  11.726  0.1242  0.2698 -0.0084
 2268DOPC   C3A26612  16.614  30.905  11.899  0.1672  0.0323  0.2522
 2268DOPC   C4A26613  16.876  30.789  12.257  0.1579 -0.1872 -0.2208
 2268DOPC   C1B26614  15.587  30.730  11.022 -0.0442 -0.0211 -0.1938
 2268DOPC   D2B26615  15.461  30.387  11.343  0.1830  0.0723 -0.0908
 2268DOPC   C3B26616  15.216  29.997  11.247  0.0997 -0.1364  0.2768
 2268DOPC   C4B26617  14.907  29.880  11.546 -0.0078  0.0528 -0.0424
 2269DOPE   NH326618  13.263  26.042  10.091  0.1260 -0.2680  0.0778
 2269DOPE   PO426619  13.355  25.754  10.233 -0.0075 -0.1455  0.2137
 2269DOPE   GL126620  13.028  25.709  10.495  0.0240  0.1186  0.0134
 2269DOPE   GL226621  13.135  25.933  10.683 -0.4122  0.0332  0.1925
 2269DOPE   C1A26622  12.788  25.369  10.687  0.0714 -0.2856  0.0170
 2269DOPE   D2A26623  12.479  25.081  10.951  0.1788  0.0550  0.2001
 2269DOPE   C3A26624  12.434  24.786  11.259  0.0645 -0.1286 -0.6736
 2269DOPE   C4A26625  12.467  24.497  11.593  0.3688  0.3538  0.3486
 2269DOPE   C1B26626  12.878  25.748  11.013 -0.2334 -0.3260 -0.2635
 2269DOPE   D2B26627  12.476  25.615  11.005  0.0162 -0.1603 -0.1724
 2269DOPE   C3B26628  12.620  25.353  11.317 -0.1563 -0.0393  0.1000
 2269DOPE   C4B26629  12.878  25.378  11.722 -0.2389  0.0108  0.1434
 2270POSM   NC326630  21.787  27.686  11.042 -0.0609  0.0110 -0.1672
 2270POSM   PO426631  21.397  27.577  10.949  0.1805  0.3501  0.1246
 2270POSM   AM126632  21.310  27.635  11.257  0.0118  0.1294  0.2453
 2270POSM   AM226633  21.344  27.818  11.460  0.1706  0.0424  0.0630
 2270POSM   T1A26634  20.963  27.550  11.568 -0.1202  0.1030 -0.1703
 2270POSM   C2A26635  20.536  27.364  11.701 -0.1842  0.1585  0.1527
 2270POSM   C3A26636  20.111  27.454  11.925 -0.0367  0.0149  0.0057
 2270POSM   C1B26637  21.515  27.622  11.698  0.3271 -0.4796  0.0770
 2270POSM   D2B26638  21.691  27.291  12.047 -0.2049 -0.2279 -0.1358
 2270POSM   C3B26639  21.361  27.025  12.287  0.1442 -0.1211  0.1347
 2270POSM   C4B26640  21.214  26.869  12.696  0.4059 -0.1086 -0.0060
 2271DOPC   NC326641  20.260  32.183  10.733  0.2721 -0.0265  0.0071
 2271DOPC   PO426642  19.940  32.021  10.691 -0.1574  0.2639  0.0188
 2271DOPC   GL126643  19.926  32.063  11.009  0.0460  0.2148 -0.3132
 2271DOPC   GL226644  19.769  32.331  11.065 -0.1145  0.2310  0.1132
 2271DOPC   C1A26645  20.301  31.876  11.237  0.1948 -0.0731  0.1372
 2271DOPC   D2A26646  20.691  31.735  11.397  0.3392  0.0858 -0.2474
 2271DOPC   C3A26647  20.883  31.608  11.824  0.0338  0.0539 -0.1587
 2271DOPC   C4A26648  20.982  31.528  12.227 -0.0215  0.0159  0.2347
 2271DOPC   C1B26649  20.182  32.325  11.292 -0.0582 -0.1126  0.2727
 2271DOPC   D2B26650  20.603  32.216  11.415 -0.1317 -0.2259 -0.2214
 2271DOPC   C3B26651  20.702  32.045  11.841 -0.1665 -0.2820 -0.2356
 2271DOPC   C4B26652  20.776  32.080  12.294  0.1909 -0.1675  0.2185
 2272POSM   NC326653  19.505  34.122  10.032  0.4948 -0.1664  0.2866
 2272POSM   PO426654  19.883  34.185  10.057 -0.0192  0.0792  0.1443
 2272POSM   AM126655  19.812  34.279  10.382 -0.1500  0.1829 -0.0616
 2272POSM   AM226656  19.878  34.103  10.576  0.1609 -0.0259 -0.0528
 2272POSM   T1A26657  19.360  34.249  10.617  0.1850  0.2747  0.1111
 2272POSM   C2A26658  19.132  34.380  11.008 -0.1784 -0.1935 -0.0515
 2272POSM   C3A26659  18.742  34.368  11.339 -0.1892 -0.1878 -0.3245
 2272POSM   C1B26660  20.157  34.186  10.773  0.0286  0.3201  0.0196
 2272POSM   D2B26661  20.457  34.073  11.061  0.1895 -0.0822  0.1141
 2272POSM   C3B26662  20.812  34.318  10.956 -0.0107  0.1826 -0.1204
 2272POSM   C4B26663  21.106  34.438  11.260  0.0842 -0.1005 -0.0289
 2273DOPE   NH326664  14.875  22.079  10.272  0.0695  0.0688 -0.0691
 2273DOPE   PO426665  14.792  22.382  10.182 -0.2327  0.0878  0.0057
 2273DOPE   GL126666  14.784  22.441  10.598  0.0268 -0.0743 -0.3328
 2273DOPE   GL226667  14.723  22.179  10.728  0.1124 -0.0973  0.4212
 2273DOPE   C1A26668  14.496  22.622  10.884 -0.0331 -0.0291  0.6884
 2273DOPE   D2A26669  14.231  23.019  10.759  0.3543  0.0637 -0.1780
 2273DOPE   C3A26670  13.894  23.092  11.044 -0.1937 -0.1564  0.2059
 2273DOPE   C4A26671  13.817  23.049  11.530 -0.0054 -0.1270 -0.0506
 2273DOPE   C1B26672  14.814  22.268  11.152  0.0878  0.1194  0.0130
 2273DOPE   D2B26673  14.765  22.253  11.599 -0.0730 -0.1537 -0.0896
 2273DOPE   C3B26674  15.015  22.459  11.940  0.0602 -0.0874 -0.3330
 2273DOPE   C4B26675  15.110  22.838  12.007 -0.2012  0.0249 -0.0611
 2274DOPC   NC326676  21.906  25.289  10.326  0.0387  0.0966 -0.1862
 2274DOPC   PO426677  22.283  25.250  10.474  0.2362 -0.1257  0.0233
 2274DOPC   GL126678  22.346  25.423  10.852  0.0340 -0.0576  0.0278
 2274DOPC   GL226679  22.607  25.401  11.012  0.1949  0.1262  0.3382
 2274DOPC   C1A26680  22.222  25.831  11.064 -0.1188 -0.2023 -0.1945
 2274DOPC   D2A26681  22.107  26.026  11.469 -0.1041  0.1065 -0.1175
 2274DOPC   C3A26682  22.263  25.701  11.767 -0.0651  0.1307  0.0377
 2274DOPC   C4A26683  22.241  25.297  11.906 -0.2805  0.1092  0.2050
 2274DOPC   C1B26684  23.019  25.550  11.119  0.2056 -0.2014  0.0000
 2274DOPC   D2B26685  23.250  25.580  11.526 -0.1717 -0.1458  0.1584
 2274DOPC   C3B26686  23.242  25.932  11.844 -0.0176  0.1778 -0.1720
 2274DOPC   C4B26687  23.388  26.410  11.819  0.1236 -0.3541 -0.1085
 2275DOPE   NH326688  22.229  21.507   9.993  0.1361 -0.0068  0.0521
 2275DOPE   PO426689  22.435  21.375  10.235 -0.1021 -0.1015 -0.2172
 2275DOPE   GL126690  22.530  21.220  10.528  0.0571 -0.0107 -0.0121
 2275DOPE   GL226691  22.237  20.994  10.511  0.1132 -0.3839  0.0126
 2275DOPE   C1A26692  22.820  21.346  10.873 -0.2373 -0.4308 -0.1243
 2275DOPE   D2A26693  22.794  21.640  11.230 -0.0585  0.0394  0.0437
 2275DOPE   C3A26694  22.741  21.548  11.652  0.1842 -0.1007  0.1288
 2275DOPE   C4A26695  23.011  21.695  11.978  0.0716 -0.1318 -0.3005
 2275DOPE   C1B26696  22.265  21.323  10.844 -0.1419  0.1245  0.1499
 2275DOPE   D2B26697  22.269  21.553  11.190  0.0143 -0.2284 -0.1233
 2275DOPE   C3B26698  22.103  21.515  11.622 -0.1153  0.0362 -0.0247
 2275DOPE   C4B26699  22.118  21.601  12.053 -0.2454  0.0897 -0.0816
 2276POSM   NC326700  10.786  23.844   9.820 -0.0834  0.1059 -0.1224
 2276POSM   PO426701  11.121  23.658   9.810 -0.0887 -0.1043 -0.0011
 2276POSM   AM126702  11.184  23.887  10.045 -0.3941 -0.1209 -0.1980
 2276POSM   AM226703  11.083  24.113  10.171  0.0973  0.1082  0.1619
 2276POSM   T1A26704  11.436  23.898  10.463  0.0707 -0.1784 -0.0875
 2276POSM   C2A26705  11.471  23.748  10.882  0.2048  0.2944  0.0776
 2276POSM   C3A26706  11.427  23.679  11.332 -0.2522 -0.1554 -0.2928
 2276POSM   C1B26707  10.969  24.093  10.474 -0.1069 -0.1750  0.0711
 2276POSM   D2B26708  10.849  24.268  10.855  0.0205  0.3711 -0.4246
 2276POSM   C3B26709  10.789  23.920  11.140  0.3101 -0.1055  0.0244
 2276POSM   C4B26710  10.968  23.769  11.551 -0.1452 -0.1115 -0.0710
 2277DOPC   NC326711  18.245  29.999  10.713  0.0647  0.1077  0.0124
 2277DOPC   PO426712  18.080  29.687  10.706 -0.0792  0.1234  0.1320
 2277DOPC   GL126713  18.014  29.632  11.061 -0.4611 -0.0845  0.1772
 2277DOPC   GL226714  18.143  29.320  11.026 -0.1944  0.1150 -0.4925
 2277DOPC   C1A26715  18.135  29.517  11.454  0.1785  0.1060  0.1159
 2277DOPC   D2A26716  17.860  29.420  11.807  0.2985 -0.1194 -0.1876
 2277DOPC   C3A26717  18.138  29.159  12.080  0.3378  0.1112  0.1580
 2277DOPC   C4A26718  18.393  28.810  12.066  0.2509 -0.3647  0.1860
 2277DOPC   C1B26719  18.027  29.034  11.339 -0.0280  0.3437 -0.2076
 2277DOPC   D2B26720  17.887  28.939  11.735  0.0572 -0.2087  0.0278
 2277DOPC   C3B26721  17.616  28.800  11.973 -0.2770 -0.0207  0.1169
 2277DOPC   C4B26722  17.485  28.463  12.253  0.0365  0.0451  0.0077
 2278POSM   NC326723  19.219  22.858  10.038 -0.3522 -0.0175  0.3656
 2278POSM   PO426724  19.300  22.935  10.414  0.3176  0.0878  0.1534
 2278POSM   AM126725  19.163  22.952  10.739  0.0612 -0.1463  0.2067
 2278POSM   AM226726  18.894  23.061  10.831 -0.1581  0.0142  0.0842
 2278POSM   T1A26727  19.147  22.907  11.213 -0.0030 -0.4282  0.0453
 2278POSM   C2A26728  18.944  22.822  11.637  0.2502  0.1192 -0.2628
 2278POSM   C3A26729  18.912  22.565  12.032 -0.0819  0.3799  0.1721
 2278POSM   C1B26730  18.689  23.048  11.127  0.1757 -0.0269 -0.0923
 2278POSM   D2B26731  18.466  22.998  11.530 -0.1480 -0.0072  0.1343
 2278POSM   C3B26732  18.531  22.812  11.951  0.0730  0.0838 -0.0984
 2278POSM   C4B26733  18.513  22.714  12.428  0.0153  0.1446  0.1366
 2279POSM   NC326734  13.052  26.941   9.673  0.3209 -0.2216 -0.1320
 2279POSM   PO426735  12.718  26.778   9.671  0.0809  0.0429  0.0324
 2279POSM   AM126736  12.525  26.732   9.940  0.0342  0.0370  0.1103
 2279POSM   AM226737  12.255  26.776   9.903  0.2596 -0.1081 -0.1581
 2279POSM   T1A26738  12.319  26.391  10.233  0.1231  0.1026  0.1472
 2279POSM   C2A26739  12.326  26.510  10.697 -0.2556  0.2268 -0.3293
 2279POSM   C3A26740  12.573  26.748  11.020 -0.0430 -0.1134 -0.2743
 2279POSM   C1B26741  12.111  26.880  10.209  0.3292  0.0009 -0.1124
 2279POSM   D2B26742  11.989  26.865  10.657 -0.1146  0.0512 -0.3959
 2279POSM   C3B26743  12.067  27.159  10.995  0.3227 -0.2405  0.1232
 2279POSM   C4B26744  12.199  27.579  11.116  0.0968  0.0102  0.2503
 2280DOPC   NC326745  17.866  24.566  10.662 -0.1073  0.0236  0.2538
 2280DOPC   PO426746  17.530  24.757  10.680  0.3969  0.0660 -0.2933
 2280DOPC   GL126747  17.632  24.674  11.071  0.0672  0.4458 -0.1647
 2280DOPC   GL226748  17.398  24.517  11.081 -0.0716 -0.0270 -0.2099
 2280DOPC   C1A26749  17.735  24.715  11.534 -0.0618 -0.2265 -0.1790
 2280DOPC   D2A26750  18.046  24.924  11.833  0.0838 -0.0436  0.0395
 2280DOPC   C3A26751  17.958  25.007  12.263  0.3151 -0.0175 -0.1192
 2280DOPC   C4A26752  17.781  25.255  12.644 -0.1413 -0.2534 -0.1147
 2280DOPC   C1B26753  17.215  24.878  11.281 -0.2155  0.0289 -0.0248
 2280DOPC   D2B26754  17.166  24.935  11.761  0.4318 -0.0386 -0.1895
 2280DOPC   C3B26755  17.490  24.842  12.015 -0.0039 -0.0111  0.1392
 2280DOPC   C4B26756  17.785  24.484  11.966  0.0619  0.0383 -0.0161
 2281DOPE   NH326757  15.435  24.713  10.499  0.0176 -0.0372  0.2531
 2281DOPE   PO426758  15.161  24.810  10.615  0.0410  0.0452  0.2203
 2281DOPE   GL126759  15.045  25.081  10.986  0.0680 -0.0231 -0.1252
 2281DOPE   GL226760  14.864  25.000  11.134 -0.0438 -0.0292  0.1858
 2281DOPE   C1A26761  15.241  25.241  11.377  0.0088  0.0569  0.0647
 2281DOPE   D2A26762  15.510  25.246  11.761  0.1590 -0.2558 -0.1802
 2281DOPE   C3A26763  15.512  25.013  12.113 -0.1089 -0.1391  0.0282
 2281DOPE   C4A26764  15.714  24.835  12.447 -0.0129 -0.1578  0.3804
 2281DOPE   C1B26765  14.554  24.974  11.437  0.2264 -0.1748  0.1004
 2281DOPE   D2B26766  14.366  24.747  11.762  0.0747  0.3959  0.2893
 2281DOPE   C3B26767  14.565  24.535  12.127 -0.0586  0.0839 -0.1203
 2281DOPE   C4B26768  14.830  24.208  12.324 -0.1937  0.4413 -0.2348
 2282POSM   NC326769  12.167  33.059  10.370 -0.0920  0.2208  0.1356
 2282POSM   PO426770  12.338  32.668  10.378 -0.0330 -0.2214 -0.0626
 2282POSM   AM126771  12.155  32.604  10.623 -0.4807 -0.0917  0.2185
 2282POSM   AM226772  12.084  32.341  10.743 -0.0443  0.1378  0.3759
 2282POSM   T1A26773  11.951  32.744  11.056 -0.1132  0.2537  0.0152
 2282POSM   C2A26774  11.852  32.847  11.480  0.1061  0.0823 -0.0847
 2282POSM   C3A26775  11.647  32.659  11.866 -0.3626 -0.2432  0.1445
 2282POSM   C1B26776  12.331  32.435  11.003 -0.3793 -0.0176  0.0039
 2282POSM   D2B26777  12.666  32.556  11.270  0.3387  0.1930  0.1162
 2282POSM   C3B26778  12.645  32.409  11.725 -0.0465 -0.1669  0.0636
 2282POSM   C4B26779  12.297  32.451  12.025  0.1000  0.0906  0.0907
 2283POSM   NC326780  12.928  23.668  10.072 -0.1384  0.1842 -0.2247
 2283POSM   PO426781  13.147  24.027  10.006  0.4454  0.1090 -0.2788
 2283POSM   AM126782  13.344  24.132  10.258 -0.0118 -0.0516  0.0250
 2283POSM   AM226783  13.554  24.098  10.431 -0.1910 -0.0910  0.0527
 2283POSM   T1A26784  13.256  24.306  10.734  0.0123 -0.4375  0.0001
 2283POSM   C2A26785  13.317  24.170  11.157 -0.2640  0.0620  0.0195
 2283POSM   C3A26786  13.658  24.062  11.457  0.0127 -0.1098 -0.0087
 2283POSM   C1B26787  13.722  24.249  10.753  0.0160  0.2831  0.1802
 2283POSM   D2B26788  13.928  24.283  11.105  0.1141 -0.1061 -0.1135
 2283POSM   C3B26789  14.229  24.090  11.341 -0.0489  0.1245  0.1295
 2283POSM   C4B26790  14.411  24.239  11.708 -0.1181 -0.1274 -0.0508
 2284DOPS   CNO26791  20.191  30.728  10.004 -0.1696  0.1084  0.2105
 2284DOPS   PO426792  20.223  30.757  10.381 -0.1813  0.2573  0.2949
 2284DOPS   GL126793  20.379  30.715  10.705 -0.1236 -0.4447 -0.0723
 2284DOPS   GL226794  20.595  30.869  10.756 -0.1117 -0.0030 -0.1635
 2284DOPS   C1A26795  20.200  30.800  11.103 -0.3623 -0.0952 -0.3107
 2284DOPS   D2A26796  19.768  30.890  11.267 -0.1227 -0.1115  0.0600
 2284DOPS   C3A26797  19.523  30.761  11.704 -0.0220 -0.0128  0.2976
 2284DOPS   C4A26798  19.583  31.003  12.091  0.2293 -0.1300 -0.0644
 2284DOPS   C1B26799  20.869  31.052  11.009 -0.2038 -0.0411 -0.2322
 2284DOPS   D2B26800  20.871  31.230  11.404  0.3224  0.2829  0.1393
 2284DOPS   C3B26801  20.580  31.228  11.711  0.3215  0.2798 -0.0821
 2284DOPS   C4B26802  20.509  31.045  12.123  0.0468 -0.0421  0.2621
 2285DOPC   NC326803  14.325  29.431  10.166 -0.2188 -0.1834  0.0646
 2285DOPC   PO426804  14.197  29.803  10.192 -0.2191  0.1524 -0.2990
 2285DOPC   GL126805  14.113  29.873  10.481  0.1775 -0.5925  0.1030
 2285DOPC   GL226806  13.870  29.629  10.542  0.2553  0.1003 -0.0263
 2285DOPC   C1A26807  14.286  29.769  10.949  0.2290 -0.1148  0.5251
 2285DOPC   D2A26808  14.399  29.744  11.405 -0.2966 -0.0217  0.0859
 2285DOPC   C3A26809  14.267  30.047  11.737  0.2186  0.0283 -0.1690
 2285DOPC   C4A26810  14.133  30.171  12.167 -0.0376 -0.2734 -0.0114
 2285DOPC   C1B26811  13.819  29.609  11.000  0.0867  0.0431 -0.1503
 2285DOPC   D2B26812  13.912  29.563  11.456  0.2319 -0.3002  0.1662
 2285DOPC   C3B26813  13.842  29.465  11.873 -0.0081 -0.2445 -0.0324
 2285DOPC   C4B26814  13.994  29.267  12.244  0.1189  0.1592 -0.0200
 2286POSM   NC326815   8.788  26.051   9.461 -0.1899 -0.4041  0.0380
 2286POSM   PO426816   9.003  26.345   9.358  0.0375 -0.4907 -0.0040
 2286POSM   AM126817   9.121  26.626   9.575  0.1480  0.0934 -0.1693
 2286POSM   AM226818   9.285  26.626   9.781  0.0288  0.0088 -0.0096
 2286POSM   T1A26819   8.940  26.999   9.792  0.2967  0.2093  0.1521
 2286POSM   C2A26820   8.603  27.042  10.137 -0.0929  0.2195 -0.2678
 2286POSM   C3A26821   8.129  26.864  10.185 -0.0928 -0.6087  0.1238
 2286POSM   C1B26822   9.115  26.542  10.090  0.1758 -0.2458  0.0957
 2286POSM   D2B26823   8.739  26.506  10.382  0.0527  0.0420  0.1724
 2286POSM   C3B26824   8.687  26.868  10.708 -0.3710  0.0652 -0.1035
 2286POSM   C4B26825   8.656  27.066  11.119 -0.1597  0.0871 -0.0612
 2287DOPE   NH326826  17.393  26.919  10.522 -0.1223 -0.2190 -0.2387
 2287DOPE   PO426827  17.518  26.695  10.736  0.0538  0.0320  0.1075
 2287DOPE   GL126828  17.543  26.692  11.091  0.2943  0.2727 -0.0754
 2287DOPE   GL226829  17.849  26.607  11.235  0.1355 -0.2070 -0.0404
 2287DOPE   C1A26830  17.306  26.668  11.523 -0.2136 -0.2370  0.0536
 2287DOPE   D2A26831  17.329  26.919  11.911  0.2501  0.2947  0.1975
 2287DOPE   C3A26832  17.038  26.803  12.252  0.0729  0.0815 -0.2742
 2287DOPE   C4A26833  16.663  26.557  12.277 -0.1829  0.3367  0.2986
 2287DOPE   C1B26834  17.786  26.706  11.678 -0.1455 -0.0001  0.3314
 2287DOPE   D2B26835  17.784  26.737  12.138  0.3604  0.0879  0.1098
 2287DOPE   C3B26836  17.903  26.650  12.537  0.1516 -0.0496 -0.3467
 2287DOPE   C4B26837  17.962  26.745  12.972  0.1562 -0.3263  0.0280
 2288POSM   NC326838   8.077  33.363   9.948 -0.1090 -0.0369 -0.2462
 2288POSM   PO426839   8.465  33.394  10.065 -0.0202  0.3394  0.1994
 2288POSM   AM126840   8.552  33.231  10.367 -0.2367 -0.2699  0.0458
 2288POSM   AM226841   8.583  33.256  10.625 -0.2400 -0.1707  0.3769
 2288POSM   T1A26842   8.405  32.798  10.611  0.0054 -0.0173  0.3449
 2288POSM   C2A26843   8.233  32.370  10.793  0.2395 -0.0691  0.0694
 2288POSM   C3A26844   8.181  31.919  10.744  0.2977  0.3807  0.1316
 2288POSM   C1B26845   8.510  33.346  10.957  0.2644 -0.0458 -0.2924
 2288POSM   D2B26846   8.524  33.311  11.425 -0.1405  0.0585 -0.6185
 2288POSM   C3B26847   8.966  33.073  11.524 -0.3539  0.0837 -0.6057
 2288POSM   C4B26848   9.126  33.005  11.967  0.0625 -0.0990  0.1737
 2289POSM   NC326849  13.385  32.256   9.726 -0.0626 -0.0904 -0.2015
 2289POSM   PO426850  13.622  32.004   9.887 -0.0759 -0.2875 -0.0278
 2289POSM   AM126851  13.592  31.811  10.165  0.0094 -0.2522 -0.2498
 2289POSM   AM226852  13.647  31.933  10.439  0.0404  0.1593  0.0974
 2289POSM   T1A26853  13.353  31.509  10.475  0.0048 -0.1466 -0.3233
 2289POSM   C2A26854  13.426  31.139  10.760 -0.2540 -0.1080 -0.1244
 2289POSM   C3A26855  13.722  30.954  11.065 -0.0606  0.2094 -0.0751
 2289POSM   C1B26856  13.471  31.899  10.723 -0.1442  0.0623 -0.0115
 2289POSM   D2B26857  13.470  31.984  11.202 -0.1165  0.2478  0.0621
 2289POSM   C3B26858  13.778  31.734  11.430 -0.0533  0.0357 -0.0864
 2289POSM   C4B26859  14.022  31.587  11.862 -0.0541  0.1847 -0.2228
 2290POSM   NC326860  14.590  30.038  10.454 -0.1404  0.0318 -0.0558
 2290POSM   PO426861  14.706  29.695  10.408 -0.0762 -0.1495  0.3366
 2290POSM   AM126862  14.579  29.429  10.562  0.0328 -0.2601 -0.1301
 2290POSM   AM226863  14.341  29.334  10.695  0.1330  0.0375  0.0804
 2290POSM   T1A26864  14.780  29.050  10.794 -0.1167  0.3181  0.1121
 2290POSM   C2A26865  15.056  29.055  11.191 -0.2456  0.1318 -0.2029
 2290POSM   C3A26866  15.160  29.451  11.399 -0.3873 -0.0955 -0.0731
 2290POSM   C1B26867  14.218  29.113  10.953 -0.0149  0.4147 -0.0985
 2290POSM   D2B26868  13.891  29.044  11.286 -0.0087  0.1596 -0.1466
 2290POSM   C3B26869  14.143  28.895  11.670 -0.1242  0.2613  0.1208
 2290POSM   C4B26870  14.537  28.838  11.815  0.0267 -0.1954 -0.1604
 2291DOPS   CNO26871  22.035  26.214  10.745 -0.0857 -0.0201 -0.3101
 2291DOPS   PO426872  21.703  26.478  10.697  0.1547  0.0016  0.3887
 2291DOPS   GL126873  21.601  26.284  10.974 -0.0450  0.3210 -0.0434
 2291DOPS   GL226874  21.831  26.279  11.161 -0.0534  0.1030 -0.1590
 2291DOPS   C1A26875  21.271  26.378  11.332  0.3873 -0.1849 -0.1571
 2291DOPS   D2A26876  21.222  26.340  11.776 -0.2808  0.3098  0.1294
 2291DOPS   C3A26877  21.072  26.554  12.092  0.1626  0.3506 -0.1924
 2291DOPS   C4A26878  21.065  26.399  12.570 -0.2632  0.1953  0.4013
 2291DOPS   C1B26879  21.843  26.459  11.558 -0.1743  0.0308 -0.3258
 2291DOPS   D2B26880  21.854  26.824  11.808 -0.0986  0.0062 -0.0670
 2291DOPS   C3B26881  21.634  26.596  12.075  0.0432 -0.2234  0.0789
 2291DOPS   C4B26882  21.514  26.506  12.544 -0.0178  0.0957 -0.2651
 2292POSM   NC326883  18.062  21.534   9.933 -0.0172  0.0490  0.0972
 2292POSM   PO426884  17.945  21.870  10.132  0.0881  0.5096  0.1355
 2292POSM   AM126885  17.831  21.839  10.419 -0.0285 -0.0176  0.2025
 2292POSM   AM226886  17.632  21.679  10.514 -0.1097 -0.0386  0.1049
 2292POSM   T1A26887  17.700  22.156  10.791  0.1741 -0.0665 -0.0422
 2292POSM   C2A26888  17.545  22.459  11.118 -0.0031 -0.1009 -0.1075
 2292POSM   C3A26889  17.650  22.803  11.421  0.1455 -0.1022 -0.1976
 2292POSM   C1B26890  17.374  21.654  10.731  0.0949  0.2470  0.2379
 2292POSM   D2B26891  16.926  21.681  10.847 -0.1643  0.1864  0.0746
 2292POSM   C3B26892  16.766  22.027  11.214 -0.0391  0.1220  0.2803
 2292POSM   C4B26893  16.588  22.255  11.569  0.3957  0.1963  0.0114
 2293DOPE   NH326894  21.667  23.568  10.665  0.0845  0.1964  0.1809
 2293DOPE   PO426895  21.625  23.830  10.839 -0.0255  0.1428 -0.0213
 2293DOPE   GL126896  21.688  23.787  11.268 -0.0266 -0.2275 -0.1220
 2293DOPE   GL226897  21.399  23.773  11.369 -0.3775  0.0528  0.1548
 2293DOPE   C1A26898  22.003  23.899  11.587  0.1293 -0.0145  0.0403
 2293DOPE   D2A26899  22.007  24.295  11.854 -0.0211 -0.0802 -0.1079
 2293DOPE   C3A26900  22.166  24.163  12.303 -0.2371  0.0525 -0.0717
 2293DOPE   C4A26901  22.506  24.185  12.609 -0.0453 -0.1217  0.0921
 2293DOPE   C1B26902  21.647  23.541  11.605  0.2269  0.1344 -0.3377
 2293DOPE   D2B26903  21.980  23.319  11.867 -0.0158  0.3133 -0.2122
 2293DOPE   C3B26904  22.309  23.600  11.863 -0.2270  0.0342  0.0279
 2293DOPE   C4B26905  22.487  24.020  11.820 -0.0006 -0.0090 -0.1497
 2294DOPE   NH326906  21.747  34.406  10.061  0.0583  0.0352  0.1132
 2294DOPE   PO426907  21.985  34.661  10.006  0.0847  0.0777  0.0319
 2294DOPE   GL126908  22.072  34.536  10.363  0.2249 -0.4020 -0.4028
 2294DOPE   GL226909  22.118  34.291  10.483  0.0153 -0.2981  0.1507
 2294DOPE   C1A26910  22.060  34.619  10.806  0.2659  0.0165  0.2005
 2294DOPE   D2A26911  22.098  34.554  11.255 -0.0674  0.1633  0.1795
 2294DOPE   C3A26912  22.369  34.829  11.449 -0.2010  0.0816  0.0654
 2294DOPE   C4A26913  22.434  34.956  11.885  0.2446  0.1120 -0.0255
 2294DOPE   C1B26914  21.781  34.122  10.626 -0.1246 -0.0883 -0.0275
 2294DOPE   D2B26915  21.393  33.912  10.644  0.1760 -0.0318  0.2189
 2294DOPE   C3B26916  21.029  33.870  10.988 -0.0883  0.0434  0.0812
 2294DOPE   C4B26917  20.821  34.041  11.391 -0.0366  0.1202 -0.0636
 2295DOPE   NH326918  16.645  30.929  10.836  0.0935 -0.0590 -0.1918
 2295DOPE   PO426919  16.954  31.018  10.949 -0.1834  0.4012  0.0754
 2295DOPE   GL126920  16.937  30.930  11.284 -0.2537  0.0011  0.0247
 2295DOPE   GL226921  16.710  30.988  11.352 -0.0589 -0.0636 -0.3628
 2295DOPE   C1A26922  17.055  31.055  11.741  0.0724 -0.1508  0.1547
 2295DOPE   D2A26923  17.196  31.250  12.125 -0.0198 -0.4717  0.6019
 2295DOPE   C3A26924  17.643  31.227  12.288 -0.0458  0.3404  0.0325
 2295DOPE   C4A26925  18.022  31.197  12.510  0.1730  0.1068  0.1178
 2295DOPE   C1B26926  16.890  30.574  11.555  0.0879  0.2108 -0.2163
 2295DOPE   D2B26927  16.714  30.348  11.922 -0.2492  0.2909  0.1323
 2295DOPE   C3B26928  16.737  29.998  12.281  0.1232 -0.1907 -0.2982
 2295DOPE   C4B26929  16.782  29.516  12.360  0.0765 -0.2491  0.1515
 2296DOPE   NH326930  13.817  25.384  10.209  0.0583 -0.1999  0.1312
 2296DOPE   PO426931  13.858  25.609  10.442  0.1160 -0.0626 -0.0845
 2296DOPE   GL126932  13.643  25.829  10.587  0.3032 -0.2346 -0.1977
 2296DOPE   GL226933  13.783  26.022  10.738  0.0073 -0.1658  0.1264
 2296DOPE   C1A26934  13.533  25.694  11.032  0.1483 -0.4916 -0.1729
 2296DOPE   D2A26935  13.212  25.628  11.404  0.0953 -0.1162  0.0422
 2296DOPE   C3A26936  12.808  25.842  11.620  0.0614  0.2125 -0.1332
 2296DOPE   C4A26937  12.391  26.023  11.592  0.0016 -0.1900 -0.1620
 2296DOPE   C1B26938  13.467  26.234  10.979 -0.3910  0.1777 -0.1861
 2296DOPE   D2B26939  13.088  26.455  11.170  0.0434  0.4051  0.1341
 2296DOPE   C3B26940  12.738  26.292  11.353 -0.1038 -0.1450  0.0730
 2296DOPE   C4B26941  12.495  26.522  11.696  0.1210 -0.1045 -0.1321
 2297POSM   NC326942  14.198  23.319  10.285 -0.0364 -0.0702  0.2752
 2297POSM   PO426943  14.597  23.324  10.267  0.1951  0.0087 -0.0577
 2297POSM   AM126944  14.580  23.344  10.611  0.1075  0.1145  0.0469
 2297POSM   AM226945  14.730  23.235  10.816 -0.3410 -0.2483 -0.3089
 2297POSM   T1A26946  14.258  23.495  10.936 -0.1727  0.1894  0.0962
 2297POSM   C2A26947  14.102  23.605  11.359  0.0858 -0.3089 -0.0599
 2297POSM   C3A26948  13.937  23.477  11.752  0.0595 -0.4146  0.0743
 2297POSM   C1B26949  14.659  23.182  11.120 -0.0837  0.3002  0.0008
 2297POSM   D2B26950  14.313  23.137  11.419  0.0451  0.0722  0.0202
 2297POSM   C3B26951  14.215  22.816  11.776  0.2683  0.1642  0.0086
 2297POSM   C4B26952  14.146  22.771  12.263 -0.0197 -0.0212 -0.0799
 2298DOPC   NC326953  22.458  32.816  10.499  0.1742 -0.2676  0.0327
 2298DOPC   PO426954  22.313  32.480  10.533 -0.1223 -0.3471  0.0325
 2298DOPC   GL126955  22.344  32.662  10.904  0.1577  0.1559 -0.0472
 2298DOPC   GL226956  22.090  32.679  11.030 -0.0029  0.1679  0.4021
 2298DOPC   C1A26957  22.537  32.823  11.296  0.1604  0.0973 -0.2328
 2298DOPC   D2A26958  22.967  32.842  11.544  0.1629 -0.2707 -0.0859
 2298DOPC   C3A26959  23.410  32.940  11.408 -0.2687 -0.4813 -0.2454
 2298DOPC   C4A26960  23.703  33.049  11.048  0.3674 -0.1372  0.1089
 2298DOPC   C1B26961  22.094  32.802  11.463  0.0541  0.2408  0.3576
 2298DOPC   D2B26962  22.054  32.989  11.866 -0.2613 -0.2370 -0.0331
 2298DOPC   C3B26963  21.674  33.177  12.122  0.3545 -0.0214  0.0172
 2298DOPC   C4B26964  21.300  33.369  12.169 -0.1966  0.0828  0.1065
 2299DOPC   NC326965  15.093  32.187  10.332  0.0414 -0.0372 -0.0810
 2299DOPC   PO426966  15.489  32.283  10.379 -0.2273  0.0517  0.2308
 2299DOPC   GL126967  15.384  32.386  10.711 -0.0062 -0.3093  0.2520
 2299DOPC   GL226968  15.424  32.552  10.898  0.2613 -0.0859 -0.0311
 2299DOPC   C1A26969  15.146  32.170  11.084 -0.2662  0.1526 -0.0588
 2299DOPC   D2A26970  15.091  32.305  11.551 -0.1595  0.0895  0.3238
 2299DOPC   C3A26971  14.766  32.176  11.829 -0.0972 -0.2866  0.2713
 2299DOPC   C4A26972  14.435  31.924  12.024  0.2974 -0.0190 -0.2696
 2299DOPC   C1B26973  15.521  32.431  11.307  0.3085 -0.1233  0.1322
 2299DOPC   D2B26974  15.642  32.267  11.684 -0.0360 -0.2237  0.0015
 2299DOPC   C3B26975  15.767  32.575  11.923 -0.1880 -0.2101 -0.3387
 2299DOPC   C4B26976  16.133  32.882  11.833  0.0702 -0.1998 -0.2760
 2300POSM   NC326977  12.490  27.580   9.431 -0.0271  0.3396  0.2017
 2300POSM   PO426978  12.802  27.341   9.424 -0.2122  0.0249 -0.2250
 2300POSM   AM126979  12.808  27.389   9.752  0.0501 -0.4065 -0.3208
 2300POSM   AM226980  12.813  27.245  10.014 -0.1546 -0.0928  0.0357
 2300POSM   T1A26981  13.030  27.720  10.086  0.1121  0.1587  0.2977
 2300POSM   C2A26982  13.332  27.590  10.466 -0.0887  0.5038  0.3543
 2300POSM   C3A26983  13.153  27.541  10.864 -0.1961  0.1348 -0.0788
 2300POSM   C1B26984  12.743  27.322  10.287 -0.0319 -0.1476 -0.1333
 2300POSM   D2B26985  12.751  27.723  10.522 -0.1929 -0.0851  0.2522
 2300POSM   C3B26986  12.585  27.867  10.919  0.0159  0.1285  0.3027
 2300POSM   C4B26987  12.631  27.863  11.355  0.2935 -0.1223 -0.0518
 2301POSM   NC326988  17.091  29.759  10.495  0.1897 -0.0893  0.0325
 2301POSM   PO426989  17.426  29.723  10.712 -0.0458  0.0222  0.5152
 2301POSM   AM126990  17.405  29.769  11.021  0.0429  0.2477  0.1608
 2301POSM   AM226991  17.578  29.918  11.206  0.3752  0.2140  0.0372
 2301POSM   T1A26992  17.200  29.612  11.409  0.0810 -0.2173 -0.3109
 2301POSM   C2A26993  17.328  29.542  11.846 -0.2007 -0.1238 -0.3707
 2301POSM   C3A26994  17.616  29.354  12.178 -0.0421  0.0530  0.1604
 2301POSM   C1B26995  17.657  29.822  11.502  0.1543  0.0052  0.1036
 2301POSM   D2B26996  17.795  29.849  12.004  0.1651 -0.0509 -0.1429
 2301POSM   C3B26997  17.662  30.284  12.179  0.2114 -0.0126 -0.3151
 2301POSM   C4B26998  17.586  30.319  12.618  0.2329  0.0036 -0.0640
 2302DOPS   CNO26999  19.489  27.498  10.721  0.3966 -0.2551 -0.4837
 2302DOPS   PO427000  19.150  27.398  10.812 -0.1848 -0.2553 -0.1134
 2302DOPS   GL127001  19.144  27.575  11.135 -0.3178  0.1417 -0.0809
 2302DOPS   GL227002  19.014  27.345  11.360  0.2784 -0.2757  0.2159
 2302DOPS   C1A27003  19.253  27.798  11.551 -0.1515  0.0249  0.0263
 2302DOPS   D2A27004  19.229  27.864  11.979 -0.1480  0.0617 -0.3402
 2302DOPS   C3A27005  19.007  27.541  12.200  0.0709 -0.2124  0.1388
 2302DOPS   C4A27006  18.601  27.609  12.012 -0.0347 -0.1932 -0.1199
 2302DOPS   C1B27007  18.770  27.704  11.387  0.1927  0.4280  0.0240
 2302DOPS   D2B27008  18.762  27.966  11.753  0.2409 -0.0322  0.0110
 2302DOPS   C3B27009  18.969  28.153  11.423  0.0681  0.1363  0.2476
 2302DOPS   C4B27010  19.220  28.175  11.035  0.3981  0.0701 -0.2362
 2303DOPE   NH327011  19.040  31.733  10.723  0.2592 -0.0082  0.1325
 2303DOPE   PO427012  18.759  31.554  10.738 -0.0036  0.0812  0.2771
 2303DOPE   GL127013  18.817  31.481  11.136  0.3545 -0.2370 -0.3380
 2303DOPE   GL227014  18.694  31.788  11.185 -0.1660 -0.0200 -0.1321
 2303DOPE   C1A27015  18.813  31.114  11.475  0.0731 -0.1305  0.0407
 2303DOPE   D2A27016  18.578  30.758  11.706 -0.0739  0.3157  0.0659
 2303DOPE   C3A27017  18.744  30.628  12.105 -0.2377  0.2502  0.0991
 2303DOPE   C4A27018  18.649  30.297  12.493 -0.1541 -0.0113 -0.1786
 2303DOPE   C1B27019  18.894  31.795  11.566 -0.4308  0.0299  0.0394
 2303DOPE   D2B27020  19.167  31.722  11.928 -0.1311  0.0150 -0.1319
 2303DOPE   C3B27021  19.598  31.550  11.936  0.0864 -0.2577  0.0270
 2303DOPE   C4B27022  20.032  31.351  11.989  0.1397 -0.1524 -0.2256
 2304DOPC   NC327023  19.138  28.686  10.075  0.0831 -0.1162 -0.0577
 2304DOPC   PO427024  19.269  28.871  10.423  0.1506 -0.1745  0.1726
 2304DOPC   GL127025  19.163  28.714  10.700  0.0755 -0.4840 -0.1459
 2304DOPC   GL227026  19.365  28.683  10.859 -0.0282  0.1677 -0.0028
 2304DOPC   C1A27027  18.899  28.581  11.091  0.2209 -0.1653  0.2215
 2304DOPC   D2A27028  18.815  28.718  11.507  0.0300  0.0344 -0.3388
 2304DOPC   C3A27029  18.614  28.448  11.833  0.0831 -0.1892  0.0121
 2304DOPC   C4A27030  18.322  28.359  12.204  0.1374 -0.4178 -0.2722
 2304DOPC   C1B27031  19.314  28.629  11.328 -0.1227  0.2552 -0.3817
 2304DOPC   D2B27032  19.212  28.591  11.823 -0.2503 -0.0635 -0.0195
 2304DOPC   C3B27033  19.409  28.613  12.210  0.2097 -0.1659  0.0024
 2304DOPC   C4B27034  19.597  28.355  12.543  0.1625  0.0433 -0.1956
 2305DOPC   NC327035  18.196  30.660  10.498  0.0638 -0.3668 -0.1455
 2305DOPC   PO427036  18.193  30.454  10.859  0.0326 -0.0800  0.1565
 2305DOPC   GL127037  18.365  30.156  11.173  0.3381 -0.0786 -0.0599
 2305DOPC   GL227038  18.088  30.045  11.248  0.1040  0.2056 -0.0447
 2305DOPC   C1A27039  18.608  29.802  11.370 -0.1716 -0.0014 -0.1047
 2305DOPC   D2A27040  18.652  29.540  11.767  0.4122  0.1144  0.3441
 2305DOPC   C3A27041  18.345  29.614  12.079 -0.0642 -0.0800 -0.2309
 2305DOPC   C4A27042  18.023  29.571  12.355  0.1616 -0.1266 -0.0471
 2305DOPC   C1B27043  18.134  29.997  11.645  0.5440  0.1694 -0.1815
 2305DOPC   D2B27044  18.228  30.121  12.114 -0.1248  0.3913 -0.1513
 2305DOPC   C3B27045  18.225  30.529  12.296  0.2612 -0.0582  0.1791
 2305DOPC   C4B27046  18.455  30.869  12.472 -0.0374  0.1791  0.2298
 2306DOPC   NC327047  15.139  29.277  10.554  0.1964  0.1920 -0.0542
 2306DOPC   PO427048  15.446  29.182  10.816 -0.4267  0.0147  0.1926
 2306DOPC   GL127049  15.514  29.226  11.242 -0.2069 -0.1296  0.0087
 2306DOPC   GL227050  15.650  29.443  11.278 -0.0113  0.0217 -0.0489
 2306DOPC   C1A27051  15.646  29.124  11.718  0.0079  0.0534  0.1372
 2306DOPC   D2A27052  15.401  29.376  11.981  0.1522  0.1079 -0.1007
 2306DOPC   C3A27053  15.002  29.602  11.905 -0.0664 -0.1735 -0.1669
 2306DOPC   C4A27054  14.823  30.032  12.035 -0.0781 -0.1879  0.2382
 2306DOPC   C1B27055  15.495  29.800  11.578 -0.4210  0.1646  0.1268
 2306DOPC   D2B27056  15.730  30.156  11.711 -0.1647  0.3401 -0.0127
 2306DOPC   C3B27057  15.725  30.379  12.077  0.1453 -0.0573  0.0714
 2306DOPC   C4B27058  15.883  30.275  12.541  0.2189 -0.1737 -0.1318
 2307DOPE   NH327059  18.854  23.797  10.357  0.0494  0.0562 -0.0818
 2307DOPE   PO427060  18.616  23.765  10.575  0.0556  0.2780  0.0693
 2307DOPE   GL127061  18.662  24.012  10.861  0.2091 -0.1808 -0.0958
 2307DOPE   GL227062  18.876  24.020  11.053 -0.0580 -0.1355  0.1178
 2307DOPE   C1A27063  18.287  24.018  11.103 -0.1317  0.0462  0.1943
 2307DOPE   D2A27064  17.895  24.285  11.206 -0.2801 -0.3167  0.1319
 2307DOPE   C3A27065  18.138  24.439  11.554 -0.1816 -0.2888  0.0054
 2307DOPE   C4A27066  18.542  24.677  11.740  0.1673  0.0185  0.0520
 2307DOPE   C1B27067  19.104  23.875  11.417  0.2364 -0.0326 -0.0084
 2307DOPE   D2B27068  19.497  23.711  11.581  0.3591 -0.1587  0.1595
 2307DOPE   C3B27069  19.620  23.710  12.038  0.1598  0.1972 -0.0991
 2307DOPE   C4B27070  19.632  23.294  12.343  0.1652  0.1383  0.0181
 2308DOPC   NC327071  19.794  31.041  10.422 -0.1251 -0.2054 -0.2933
 2308DOPC   PO427072  19.426  31.158  10.329  0.1920  0.1905  0.0936
 2308DOPC   GL127073  19.315  31.296  10.738 -0.2947 -0.0674  0.2614
 2308DOPC   GL227074  19.562  31.184  10.891 -0.2034  0.1111  0.3622
 2308DOPC   C1A27075  19.272  31.542  11.152 -0.1254 -0.2462  0.1365
 2308DOPC   D2A27076  19.421  31.752  11.524 -0.2209 -0.2683 -0.0662
 2308DOPC   C3A27077  19.901  31.795  11.590 -0.0836  0.3541 -0.1743
 2308DOPC   C4A27078  20.346  31.703  11.768 -0.2347 -0.2361  0.2267
 2308DOPC   C1B27079  19.330  31.121  11.276  0.4651 -0.0448 -0.1142
 2308DOPC   D2B27080  19.302  31.243  11.714  0.0526  0.0658  0.0885
 2308DOPC   C3B27081  19.112  30.907  11.983 -0.2048  0.0757 -0.0443
 2308DOPC   C4B27082  19.013  30.872  12.480  0.0948  0.1092  0.2407
 2309POSM   NC327083  16.622  29.648  10.752  0.1147  0.1172 -0.0623
 2309POSM   PO427084  16.765  29.351  10.570  0.0791 -0.1791 -0.1683
 2309POSM   AM127085  16.666  29.195  10.837 -0.1163  0.4547 -0.0963
 2309POSM   AM227086  16.832  29.013  11.020  0.0432  0.0736 -0.0678
 2309POSM   T1A27087  16.413  28.973  11.191  0.1066  0.1334 -0.0136
 2309POSM   C2A27088  16.349  28.944  11.653 -0.3253 -0.0067  0.1354
 2309POSM   C3A27089  16.058  29.122  12.009  0.0951  0.1745  0.3863
 2309POSM   C1B27090  16.979  29.007  11.268  0.1954 -0.0759  0.0371
 2309POSM   D2B27091  17.319  29.053  11.681 -0.1768 -0.0864  0.2685
 2309POSM   C3B27092  17.216  29.079  12.109  0.2817  0.2362 -0.1127
 2309POSM   C4B27093  16.989  28.978  12.502 -0.3535  0.2500  0.2578
 2310DOPS   CNO27094  12.220  22.673   9.678 -0.2079  0.0655 -0.0083
 2310DOPS   PO427095  11.911  22.835   9.816 -0.2911  0.0384  0.1095
 2310DOPS   GL127096  11.716  22.978  10.214  0.2001 -0.1359 -0.0158
 2310DOPS   GL227097  11.546  22.714  10.275 -0.0636 -0.2497 -0.0060
 2310DOPS   C1A27098  11.658  23.390  10.404  0.2025 -0.1166 -0.3762
 2310DOPS   D2A27099  11.948  23.699  10.561 -0.3806 -0.2016 -0.2206
 2310DOPS   C3A27100  12.115  23.682  10.999 -0.1398  0.0581 -0.2599
 2310DOPS   C4A27101  12.035  23.583  11.459 -0.0821 -0.4009 -0.1027
 2310DOPS   C1B27102  11.612  22.880  10.661 -0.0840  0.0608 -0.0753
 2310DOPS   D2B27103  11.677  23.257  10.937  0.0253  0.1702  0.1363
 2310DOPS   C3B27104  11.654  23.205  11.413  0.0433 -0.4344 -0.0437
 2310DOPS   C4B27105  11.400  23.381  11.735 -0.1149  0.0379  0.0264
 2311DOPE   NH327106  16.517  25.973  10.690 -0.1587 -0.0701  0.1235
 2311DOPE   PO427107  16.336  26.214  10.697  0.0535 -0.1606  0.2045
 2311DOPE   GL127108  16.133  26.349  11.012  0.0648 -0.0742  0.1154
 2311DOPE   GL227109  16.103  26.636  11.093 -0.1512 -0.2026  0.1802
 2311DOPE   C1A27110  15.800  26.209  11.306  0.1238 -0.2034  0.2155
 2311DOPE   D2A27111  15.449  26.290  11.522 -0.1399 -0.4600 -0.2561
 2311DOPE   C3A27112  15.245  26.411  11.892  0.0077 -0.2009 -0.2185
 2311DOPE   C4A27113  15.259  26.534  12.335 -0.0125  0.5690  0.2233
 2311DOPE   C1B27114  16.241  26.842  11.487 -0.0173 -0.0812 -0.3222
 2311DOPE   D2B27115  16.315  26.864  11.965  0.1553  0.1549 -0.1788
 2311DOPE   C3B27116  15.981  27.106  12.174 -0.1220  0.0533  0.0156
 2311DOPE   C4B27117  15.694  27.402  12.387  0.2548 -0.3319  0.2976
 2312POSM   NC327118  13.095  25.223  10.283 -0.2421  0.0779 -0.0937
 2312POSM   PO427119  13.460  25.059  10.254  0.3925 -0.2551  0.0910
 2312POSM   AM127120  13.441  24.978  10.572 -0.1758 -0.1566 -0.0959
 2312POSM   AM227121  13.565  24.760  10.719 -0.1154  0.1096 -0.1089
 2312POSM   T1A27122  13.460  25.114  11.052  0.0469 -0.1441  0.0574
 2312POSM   C2A27123  13.428  25.161  11.529 -0.1691  0.0744 -0.2743
 2312POSM   C3A27124  13.314  25.385  11.921  0.1515  0.1852  0.0193
 2312POSM   C1B27125  13.453  24.643  11.030  0.1352 -0.0625 -0.0428
 2312POSM   D2B27126  13.483  24.620  11.520  0.1259 -0.1370  0.0005
 2312POSM   C3B27127  13.261  24.576  11.926  0.1171  0.2052  0.2519
 2312POSM   C4B27128  13.143  24.289  12.286  0.0811 -0.3477 -0.0857
 2313DOPC   NC327129  16.451  27.110  10.762  0.5569 -0.0507 -0.0752
 2313DOPC   PO427130  16.790  27.323  10.853  0.0103  0.1098 -0.0606
 2313DOPC   GL127131  16.778  27.456  11.167  0.2214 -0.1266 -0.0369
 2313DOPC   GL227132  16.886  27.739  11.073 -0.0709 -0.2792 -0.0849
 2313DOPC   C1A27133  16.771  27.553  11.622 -0.1970 -0.1511 -0.0039
 2313DOPC   D2A27134  16.804  27.568  12.090 -0.2375  0.1876  0.0386
 2313DOPC   C3A27135  17.096  27.795  12.289 -0.1962 -0.0519 -0.0990
 2313DOPC   C4A27136  17.400  28.007  12.559 -0.0948  0.2352 -0.1090
 2313DOPC   C1B27137  17.023  28.084  11.331 -0.1095  0.3982  0.0650
 2313DOPC   D2B27138  17.165  28.577  11.297  0.0571  0.3608 -0.2746
 2313DOPC   C3B27139  17.502  28.935  11.166  0.1868  0.0422  0.0229
 2313DOPC   C4B27140  17.618  29.351  11.373  0.1129  0.1132  0.1267
 2314DOPS   CNO27141  14.897  23.748  10.223  0.0359  0.1637 -0.0545
 2314DOPS   PO427142  15.033  23.606  10.557  0.0171 -0.4353 -0.0387
 2314DOPS   GL127143  14.834  23.810  10.786  0.3958 -0.1682  0.0480
 2314DOPS   GL227144  14.706  23.688  11.001 -0.2370  0.1637 -0.2936
 2314DOPS   C1A27145  14.753  24.172  11.110 -0.0137 -0.1591  0.1119
 2314DOPS   D2A27146  14.938  24.494  11.395  0.0724  0.1742  0.1181
 2314DOPS   C3A27147  14.955  24.348  11.871  0.1648  0.0865  0.1053
 2314DOPS   C4A27148  15.335  24.084  12.055 -0.1919 -0.3476  0.0376
 2314DOPS   C1B27149  14.591  23.651  11.454 -0.1091  0.2437  0.1108
 2314DOPS   D2B27150  14.390  23.747  11.853 -0.4078  0.1493  0.1215
 2314DOPS   C3B27151  13.982  23.988  11.868 -0.0063 -0.0415  0.0895
 2314DOPS   C4B27152  13.572  24.149  11.966  0.0979 -0.1020 -0.1397
 2315DOPC   NC327153   9.835  24.193   9.975  0.1543  0.1039 -0.3382
 2315DOPC   PO427154   9.904  24.428   9.658 -0.0648 -0.0891 -0.0405
 2315DOPC   GL127155   9.722  24.637   9.963  0.0639  0.3693 -0.1910
 2315DOPC   GL227156   9.514  24.525  10.099 -0.0492  0.4128 -0.2747
 2315DOPC   C1A27157   9.757  24.993  10.245  0.0419  0.1372  0.2031
 2315DOPC   D2A27158   9.999  25.040  10.621  0.1621 -0.1195  0.0283
 2315DOPC   C3A27159   9.836  25.000  11.054 -0.1542 -0.1351  0.1499
 2315DOPC   C4A27160   9.391  24.953  11.265 -0.0488  0.4835 -0.2308
 2315DOPC   C1B27161   9.868  24.461  10.448 -0.2030  0.1963  0.2229
 2315DOPC   D2B27162  10.071  24.533  10.893  0.0922 -0.1874 -0.0528
 2315DOPC   C3B27163  10.345  24.188  10.966 -0.0002  0.1531 -0.1302
 2315DOPC   C4B27164  10.568  23.883  10.695 -0.0028 -0.2475 -0.1778
 2316DOPC   NC327165  17.230  23.772  10.463  0.2658 -0.0707  0.1204
 2316DOPC   PO427166  17.577  23.765  10.419 -0.0631 -0.0746 -0.1426
 2316DOPC   GL127167  17.620  23.697  10.865  0.0396 -0.0281  0.3178
 2316DOPC   GL227168  17.700  23.461  10.877 -0.0382 -0.0830  0.1911
 2316DOPC   C1A27169  17.855  23.787  11.213  0.2114  0.1562 -0.0218
 2316DOPC   D2A27170  17.816  24.028  11.605 -0.1247 -0.0828 -0.0484
 2316DOPC   C3A27171  17.799  23.997  12.065  0.3582  0.0480  0.3535
 2316DOPC   C4A27172  17.489  23.852  12.380 -0.3120 -0.0963 -0.2376
 2316DOPC   C1B27173  17.706  23.292  11.326 -0.0221 -0.0090  0.0326
 2316DOPC   D2B27174  17.676  23.193  11.771  0.0840  0.2624  0.1937
 2316DOPC   C3B27175  17.833  23.491  12.094  0.1076 -0.0551  0.3127
 2316DOPC   C4B27176  18.247  23.729  12.111 -0.5173 -0.0582 -0.3104
 2317DOPE   NH327177  16.363  24.740  10.684  0.0040  0.0498  0.1572
 2317DOPE   PO427178  16.479  24.980  10.870  0.1911 -0.0060 -0.0007
 2317DOPE   GL127179  16.183  25.030  11.219  0.2357 -0.4942  0.4426
 2317DOPE   GL227180  16.326  25.258  11.360  0.3964  0.2621  0.0475
 2317DOPE   C1A27181  16.105  24.942  11.668 -0.2056  0.0020  0.3139
 2317DOPE   D2A27182  16.160  24.803  12.073  0.2566 -0.0018 -0.1925
 2317DOPE   C3A27183  15.731  24.596  11.986 -0.2341  0.1052  0.3061
 2317DOPE   C4A27184  15.491  24.354  11.686 -0.0272 -0.2498  0.1678
 2317DOPE   C1B27185  16.578  24.900  11.554  0.3667  0.2542 -0.0133
 2317DOPE   D2B27186  16.731  24.793  11.964 -0.1389  0.2251  0.3014
 2317DOPE   C3B27187  17.010  25.096  12.201 -0.2536  0.1233 -0.2433
 2317DOPE   C4B27188  17.030  25.483  12.378  0.0604  0.1684 -0.0906
 2318DOPC   NC327189  11.316  24.174   9.714  0.3001  0.0635  0.0483
 2318DOPC   PO427190  11.355  24.543   9.615 -0.0750  0.2202  0.1838
 2318DOPC   GL127191  11.248  24.622   9.962  0.0346  0.2131 -0.0472
 2318DOPC   GL227192  11.268  24.891  10.069 -0.2162 -0.1144 -0.0773
 2318DOPC   C1A27193  11.431  24.477  10.388 -0.1557  0.0087  0.1862
 2318DOPC   D2A27194  11.339  24.270  10.785 -0.2326  0.2440 -0.0159
 2318DOPC   C3A27195  11.241  24.161  11.186 -0.3399  0.3869 -0.0851
 2318DOPC   C4A27196  11.218  24.382  11.601 -0.3336 -0.1044 -0.0203
 2318DOPC   C1B27197  11.324  25.017  10.510 -0.0877  0.3537 -0.0139
 2318DOPC   D2B27198  11.161  24.793  10.910 -0.0910 -0.0928  0.0422
 2318DOPC   C3B27199  10.895  25.024  11.243 -0.3760 -0.2241 -0.0904
 2318DOPC   C4B27200  10.426  24.973  11.395 -0.3438 -0.1144  0.1005
 2319DOPC   NC327201  17.300  32.781  10.603  0.0036  0.2615  0.0396
 2319DOPC   PO427202  17.481  32.465  10.696 -0.1038  0.0435 -0.0398
 2319DOPC   GL127203  17.624  32.465  11.103 -0.4361 -0.2024  0.2116
 2319DOPC   GL227204  17.630  32.199  11.251  0.0548 -0.0322 -0.2846
 2319DOPC   C1A27205  17.883  32.700  11.405 -0.1796 -0.2019  0.0824
 2319DOPC   D2A27206  18.106  32.984  11.646  0.1552 -0.0161 -0.0100
 2319DOPC   C3A27207  18.242  33.415  11.762  0.3628 -0.4591 -0.2341
 2319DOPC   C4A27208  18.378  33.567  12.212  0.2448  0.1156 -0.2462
 2319DOPC   C1B27209  17.804  31.880  11.527  0.1563  0.2231 -0.1683
 2319DOPC   D2B27210  17.999  31.809  12.002  0.0194 -0.2727  0.0992
 2319DOPC   C3B27211  18.245  32.210  12.196 -0.0677  0.1052 -0.0780
 2319DOPC   C4B27212  18.419  32.613  12.398 -0.0436 -0.2504  0.0930
 2320POSM   NC327213  16.259   0.301  10.523  0.2457 -0.2118 -0.3978
 2320POSM   PO427214  16.298   0.679  10.450  0.0121 -0.0797 -0.1404
 2320POSM   AM127215  16.293   0.719  10.765 -0.1471 -0.1096  0.1632
 2320POSM   AM227216  16.201   0.935  10.937 -0.0473  0.1792 -0.0133
 2320POSM   T1A27217  16.327   0.482  11.213 -0.1884  0.0424 -0.1672
 2320POSM   C2A27218  16.586   0.172  11.427 -0.1627  0.1871 -0.0979
 2320POSM   C3A27219  16.960   0.171  11.629 -0.3291  0.0943  0.2097
 2320POSM   C1B27220  16.405   1.010  11.238  0.0667  0.0872  0.3276
 2320POSM   D2B27221  16.436   1.336  11.582 -0.1722 -0.0876 -0.0866
 2320POSM   C3B27222  16.579   1.246  12.068  0.1530  0.0262 -0.1231
 2320POSM   C4B27223  16.528   0.909  12.353  0.1379 -0.0653  0.1963
 2321DOPE   NH327224  17.171  28.768  10.355  0.2460 -0.0665 -0.3598
 2321DOPE   PO427225  16.957  28.862  10.569 -0.1099 -0.2287  0.1409
 2321DOPE   GL127226  17.078  28.627  10.788  0.0048 -0.1003 -0.1010
 2321DOPE   GL227227  16.844  28.514  10.911 -0.0913 -0.5460  0.1054
 2321DOPE   C1A27228  17.480  28.474  10.964  0.0583 -0.1304 -0.0312
 2321DOPE   D2A27229  17.722  28.113  11.175 -0.0704  0.1696  0.1574
 2321DOPE   C3A27230  18.054  28.148  11.476  0.2095 -0.0431 -0.0389
 2321DOPE   C4A27231  18.258  28.031  11.875 -0.1073  0.0141 -0.1632
 2321DOPE   C1B27232  16.673  28.557  11.290 -0.0288 -0.0282 -0.0466
 2321DOPE   D2B27233  16.868  28.716  11.722  0.0392  0.1454  0.0360
 2321DOPE   C3B27234  16.956  28.573  12.179 -0.0550  0.2833 -0.3131
 2321DOPE   C4B27235  17.120  28.363  12.572  0.4732  0.1362  0.0433
 2322DOPS   CNO27236  17.913  26.233  10.690  0.0344  0.0873  0.0546
 2322DOPS   PO427237  17.626  26.214  10.928 -0.0234 -0.0673 -0.0781
 2322DOPS   GL127238  17.553  26.145  11.385 -0.0293  0.2957 -0.1317
 2322DOPS   GL227239  17.622  25.847  11.536  0.2794 -0.1241  0.1724
 2322DOPS   C1A27240  17.137  26.210  11.597  0.3101 -0.2844 -0.1571
 2322DOPS   D2A27241  16.799  26.181  11.930 -0.0239 -0.4942  0.1693
 2322DOPS   C3A27242  16.426  26.280  12.021 -0.0885  0.0275  0.3791
 2322DOPS   C4A27243  16.168  26.238  12.374  0.0388 -0.1128 -0.3780
 2322DOPS   C1B27244  17.519  26.128  11.900 -0.0538 -0.0453  0.0194
 2322DOPS   D2B27245  17.347  26.356  12.305  0.0594  0.1998 -0.2140
 2322DOPS   C3B27246  17.160  26.151  12.653 -0.2370 -0.2097  0.0265
 2322DOPS   C4B27247  17.222  25.775  12.856 -0.0964 -0.1058  0.2347
 2323DOPC   NC327248  14.850  33.143  10.504  0.2148  0.1162  0.1268
 2323DOPC   PO427249  14.508  33.000  10.340 -0.1168 -0.1910  0.0042
 2323DOPC   GL127250  14.467  32.884  10.735 -0.2302  0.1507  0.0681
 2323DOPC   GL227251  14.142  32.906  10.705 -0.2762  0.1369 -0.0527
 2323DOPC   C1A27252  14.691  32.944  11.167 -0.1332  0.1816 -0.0805
 2323DOPC   D2A27253  14.835  32.969  11.585 -0.2083 -0.0678 -0.3864
 2323DOPC   C3A27254  15.096  33.277  11.888 -0.1692  0.2638 -0.1152
 2323DOPC   C4A27255  15.259  33.474  12.264  0.2429  0.1351 -0.1218
 2323DOPC   C1B27256  14.212  32.858  11.185  0.0351 -0.4099  0.2274
 2323DOPC   D2B27257  14.306  32.927  11.623  0.0354 -0.0882 -0.0612
 2323DOPC   C3B27258  14.121  33.161  12.003  0.1095  0.0115  0.0802
 2323DOPC   C4B27259  13.794  33.160  12.276  0.0904  0.1027  0.1317
 2324DOPE   NH327260  14.878  27.117   9.830 -0.1997  0.1449 -0.0702
 2324DOPE   PO427261  14.966  26.817   9.853 -0.2613  0.0112  0.3104
 2324DOPE   GL127262  14.926  26.972  10.228  0.1225 -0.2375 -0.3066
 2324DOPE   GL227263  14.860  26.695  10.415 -0.4441 -0.2712  0.0190
 2324DOPE   C1A27264  14.688  27.097  10.571  0.0636 -0.2603  0.3814
 2324DOPE   D2A27265  14.410  27.334  10.873 -0.1375 -0.1065 -0.1584
 2324DOPE   C3A27266  14.025  27.301  11.151 -0.2524  0.0833  0.1902
 2324DOPE   C4A27267  13.953  27.331  11.593  0.1879 -0.3125  0.1073
 2324DOPE   C1B27268  14.706  26.472  10.767 -0.3237  0.0246  0.3140
 2324DOPE   D2B27269  14.593  26.393  11.228  0.3271  0.1170 -0.0195
 2324DOPE   C3B27270  14.926  26.087  11.356  0.1165  0.0452  0.2812
 2324DOPE   C4B27271  15.167  25.772  11.652  0.2533  0.2733  0.1687
 2325DOPE   NH327272  15.781  29.978  10.395  0.0006 -0.1891  0.3061
 2325DOPE   PO427273  15.861  29.998  10.729 -0.0448 -0.1138  0.0795
 2325DOPE   GL127274  15.901  29.750  10.987 -0.0091  0.1276 -0.0517
 2325DOPE   GL227275  15.757  29.935  11.212 -0.0662 -0.0128  0.0627
 2325DOPE   C1A27276  16.337  29.621  11.171 -0.1957  0.0813  0.0249
 2325DOPE   D2A27277  16.675  29.387  11.259 -0.0208 -0.2937 -0.0227
 2325DOPE   C3A27278  16.868  29.292  11.665  0.1968  0.1190 -0.2035
 2325DOPE   C4A27279  16.677  29.116  12.065 -0.0068 -0.2259  0.1099
 2325DOPE   C1B27280  16.017  29.801  11.537  0.0110  0.0211 -0.0156
 2325DOPE   D2B27281  15.872  29.593  11.878 -0.0912 -0.0660 -0.1799
 2325DOPE   C3B27282  15.872  29.839  12.258 -0.0859  0.3005 -0.5646
 2325DOPE   C4B27283  15.709  29.719  12.661 -0.1446  0.0673 -0.0870
 2326POSM   NC327284  19.679  32.930  10.431  0.1173  0.0369 -0.0450
 2326POSM   PO427285  19.560  33.230  10.204 -0.1787 -0.1385 -0.1923
 2326POSM   AM127286  19.495  33.349  10.460  0.2122  0.1158 -0.1427
 2326POSM   AM227287  19.540  33.297  10.762 -0.1414  0.1170  0.0704
 2326POSM   T1A27288  19.521  33.770  10.749  0.0111  0.0276  0.0082
 2326POSM   C2A27289  19.449  33.994  11.158 -0.2177 -0.0432  0.2686
 2326POSM   C3A27290  19.406  34.319  11.466 -0.1022 -0.0271 -0.0851
 2326POSM   C1B27291  19.584  33.466  11.108 -0.0375  0.0325 -0.1313
 2326POSM   D2B27292  19.801  33.656  11.463 -0.1534 -0.0632 -0.0010
 2326POSM   C3B27293  20.095  33.595  11.833  0.1190  0.0624 -0.3088
 2326POSM   C4B27294  20.253  33.964  12.045 -0.0879  0.1215 -0.0235
 2327POSM   NC327295  22.194   1.484  10.657 -0.0928  0.2560  0.1358
 2327POSM   PO427296  21.941   1.199  10.577 -0.0286 -0.4661 -0.1178
 2327POSM   AM127297  21.892   1.065  10.895  0.2306  0.1446 -0.3908
 2327POSM   AM227298  21.670   0.910  11.052 -0.2032 -0.2116  0.1186
 2327POSM   T1A27299  22.092   0.936  11.321 -0.0884 -0.1189 -0.0058
 2327POSM   C2A27300  22.074   0.628  11.651 -0.0629 -0.1093 -0.1096
 2327POSM   C3A27301  21.944   0.438  12.044  0.0007 -0.2735  0.0409
 2327POSM   C1B27302  21.622   0.690  11.356 -0.1307 -0.3798  0.1014
 2327POSM   D2B27303  21.520   0.665  11.821 -0.1066  0.2327  0.0438
 2327POSM   C3B27304  21.501   0.205  11.959  0.1261  0.2007  0.0728
 2327POSM   C4B27305  21.570  -0.196  12.156  0.1831 -0.0148  0.0283
 2328DOPC   NC327306  14.291  28.297   9.296 -0.1332 -0.0566  0.1639
 2328DOPC   PO427307  14.329  28.044   9.598  0.2256 -0.0441 -0.0380
 2328DOPC   GL127308  14.198  28.250   9.884 -0.1028 -0.2206 -0.1564
 2328DOPC   GL227309  13.972  28.146  10.060 -0.1633 -0.1359 -0.1599
 2328DOPC   C1A27310  14.408  28.455  10.244 -0.0072  0.0158 -0.3191
 2328DOPC   D2A27311  14.488  28.836  10.461  0.1141  0.0813 -0.0368
 2328DOPC   C3A27312  14.187  28.651  10.765 -0.2213 -0.1494  0.1784
 2328DOPC   C4A27313  14.210  28.661  11.237  0.0662  0.3055  0.0641
 2328DOPC   C1B27314  14.180  28.096  10.421 -0.1092 -0.1125  0.0748
 2328DOPC   D2B27315  14.553  28.132  10.728  0.0407 -0.0040  0.0801
 2328DOPC   C3B27316  14.624  28.517  10.960  0.3209 -0.1653  0.1337
 2328DOPC   C4B27317  14.779  28.646  11.388 -0.0862  0.2023 -0.1090
 2329DOPC   NC327318  13.903  31.673   9.739  0.0089  0.0701 -0.0276
 2329DOPC   PO427319  13.850  31.282   9.650 -0.0393 -0.0371  0.0307
 2329DOPC   GL127320  13.933  31.225  10.025 -0.1557 -0.3145 -0.1069
 2329DOPC   GL227321  13.827  31.030  10.115 -0.1535 -0.0762 -0.3411
 2329DOPC   C1A27322  13.862  31.443  10.495  0.0062 -0.0016  0.1979
 2329DOPC   D2A27323  13.742  31.519  10.953  0.0743  0.2442  0.3850
 2329DOPC   C3A27324  13.293  31.531  11.103 -0.0331  0.1267  0.0432
 2329DOPC   C4A27325  12.992  31.819  11.256 -0.2010 -0.0558 -0.2134
 2329DOPC   C1B27326  13.787  30.905  10.514  0.0974 -0.1238 -0.0351
 2329DOPC   D2B27327  13.828  30.529  10.783  0.3865  0.1067  0.0572
 2329DOPC   C3B27328  13.555  30.492  11.175 -0.0311 -0.0977  0.0758
 2329DOPC   C4B27329  13.548  30.690  11.610 -0.0585 -0.0609  0.0128
 2330DOPC   NC327330  19.607  32.363  10.614 -0.1341  0.0545 -0.3536
 2330DOPC   PO427331  19.852  32.645  10.727  0.2497 -0.0452 -0.0207
 2330DOPC   GL127332  19.813  32.963  10.898 -0.1415  0.0447  0.0026
 2330DOPC   GL227333  19.842  32.872  11.151  0.1359  0.1751 -0.0820
 2330DOPC   C1A27334  20.126  33.252  11.100  0.2099  0.1630 -0.0887
 2330DOPC   D2A27335  20.120  33.204  11.550 -0.2142 -0.0992 -0.1843
 2330DOPC   C3A27336  20.451  33.058  11.825  0.1889  0.1856 -0.0210
 2330DOPC   C4A27337  20.806  33.176  12.040  0.0526  0.1168 -0.1601
 2330DOPC   C1B27338  19.844  32.706  11.610 -0.0372 -0.2178  0.2992
 2330DOPC   D2B27339  19.872  32.575  12.027 -0.3010  0.0868 -0.0467
 2330DOPC   C3B27340  20.131  32.904  12.169 -0.1728 -0.0136 -0.0971
 2330DOPC   C4B27341  20.467  33.043  12.476  0.2382 -0.0392 -0.1462
 2331POSM   NC327342  17.182  26.433  11.088 -0.2886  0.1846  0.3258
 2331POSM   PO427343  16.893  26.216  10.925  0.0901 -0.1209  0.4087
 2331POSM   AM127344  16.703  26.299  11.164 -0.2334 -0.0278  0.1300
 2331POSM   AM227345  16.732  26.481  11.395 -0.0503 -0.4347  0.1715
 2331POSM   T1A27346  16.285  26.316  11.475  0.4559  0.1784  0.0281
 2331POSM   C2A27347  15.999  26.491  11.793 -0.1167  0.2586  0.1295
 2331POSM   C3A27348  15.814  26.647  12.218 -0.3189  0.1308 -0.0536
 2331POSM   C1B27349  16.769  26.665  11.685 -0.3558 -0.2786 -0.0170
 2331POSM   D2B27350  16.790  27.129  11.838  0.0781 -0.0344 -0.2877
 2331POSM   C3B27351  16.404  27.390  11.939 -0.1300  0.3718  0.0814
 2331POSM   C4B27352  16.028  27.608  12.129  0.2177 -0.0918 -0.1567
 2332DOPC   NC327353  12.439  31.372   9.951 -0.1897  0.1170 -0.1155
 2332DOPC   PO427354  12.065  31.254  10.019 -0.1509  0.2011  0.0735
 2332DOPC   GL127355  12.191  31.184  10.422 -0.1040 -0.0914 -0.2435
 2332DOPC   GL227356  12.475  31.276  10.484  0.1363  0.0453  0.1041
 2332DOPC   C1A27357  11.910  30.927  10.743  0.0109  0.0036  0.3918
 2332DOPC   D2A27358  11.712  30.845  11.215 -0.3649 -0.2094  0.3586
 2332DOPC   C3A27359  11.858  30.905  11.681  0.2752 -0.0105  0.2406
 2332DOPC   C4A27360  11.801  30.897  12.154 -0.1187  0.1607 -0.3538
 2332DOPC   C1B27361  12.525  31.043  10.869  0.0220  0.2055  0.0132
 2332DOPC   D2B27362  12.221  30.899  11.141 -0.0137 -0.3801 -0.4260
 2332DOPC   C3B27363  12.249  31.195  11.555  0.2276 -0.0997 -0.3401
 2332DOPC   C4B27364  12.336  31.618  11.746  0.0048  0.3905 -0.0844
 2333POSM   NC327365  22.346  28.691  10.012 -0.4501 -0.0518 -0.4701
 2333POSM   PO427366  22.094  28.738  10.307 -0.0427  0.0065  0.0110
 2333POSM   AM127367  22.012  28.862  10.592  0.1695  0.1720  0.1957
 2333POSM   AM227368  22.097  28.827  10.861  0.1080  0.1498  0.0019
 2333POSM   T1A27369  21.822  29.178  10.969  0.2459 -0.4025 -0.1149
 2333POSM   C2A27370  21.935  29.243  11.436 -0.0608  0.1285 -0.1089
 2333POSM   C3A27371  22.144  29.037  11.772  0.1164  0.1638  0.1522
 2333POSM   C1B27372  22.437  28.759  10.855  0.2350  0.0288 -0.1209
 2333POSM   D2B27373  22.763  28.667  11.235  0.1487  0.1800  0.3684
 2333POSM   C3B27374  22.844  28.900  11.570  0.1482 -0.0224 -0.1153
 2333POSM   C4B27375  22.610  29.249  11.730  0.0663  0.1573 -0.1103
 2334DOPS   CNO27376  18.540  23.544  10.062  0.1572 -0.3420  0.0149
 2334DOPS   PO427377  18.448  23.319  10.372  0.3161  0.0195 -0.2263
 2334DOPS   GL127378  18.503  23.331  10.832 -0.3022 -0.0146  0.1583
 2334DOPS   GL227379  18.629  23.544  10.995 -0.0340  0.0484 -0.1182
 2334DOPS   C1A27380  18.180  23.363  11.182  0.0563 -0.1048 -0.2430
 2334DOPS   D2A27381  18.148  23.415  11.621  0.0435 -0.2497  0.2245
 2334DOPS   C3A27382  18.576  23.461  11.886 -0.0723 -0.0846  0.1618
 2334DOPS   C4A27383  18.983  23.700  11.912 -0.3107 -0.0906 -0.0259
 2334DOPS   C1B27384  18.614  23.784  11.406 -0.0275 -0.0285  0.3186
 2334DOPS   D2B27385  18.317  24.009  11.674 -0.2588  0.0820 -0.0559
 2334DOPS   C3B27386  18.286  24.302  11.971  0.1421 -0.0833 -0.4265
 2334DOPS   C4B27387  18.286  24.361  12.463 -0.2131  0.0115 -0.1357
 2335DOPC   NC327388  18.107  31.354  10.639  0.0366 -0.1550  0.0274
 2335DOPC   PO427389  18.003  31.002  10.753 -0.1602 -0.2739 -0.1471
 2335DOPC   GL127390  18.245  30.852  11.131  0.1362  0.3053  0.0154
 2335DOPC   GL227391  18.557  30.769  11.177 -0.1332 -0.0021  0.2392
 2335DOPC   C1A27392  18.291  31.146  11.475  0.2055  0.2476 -0.0432
 2335DOPC   D2A27393  18.454  31.392  11.832 -0.3275  0.2430 -0.0535
 2335DOPC   C3A27394  18.746  31.172  12.136 -0.2963 -0.1581  0.2439
 2335DOPC   C4A27395  19.195  31.349  12.285  0.0920 -0.0684 -0.0594
 2335DOPC   C1B27396  18.853  30.437  11.398 -0.1197 -0.2115  0.2680
 2335DOPC   D2B27397  18.569  30.258  11.693  0.0247 -0.2029  0.0397
 2335DOPC   C3B27398  18.714  29.947  12.074  0.2411  0.2219  0.0212
 2335DOPC   C4B27399  18.784  29.497  12.246  0.1360 -0.0025 -0.2082
 2336DOPS   CNO27400  12.098  28.792   9.199 -0.0525 -0.0943  0.0676
 2336DOPS   PO427401  12.334  29.012   9.440 -0.1757  0.0364  0.0991
 2336DOPS   GL127402  12.298  28.971   9.791  0.4726  0.3837  0.3569
 2336DOPS   GL227403  12.305  29.242   9.871 -0.3969 -0.1034 -0.2420
 2336DOPS   C1A27404  12.219  28.534   9.931 -0.2683 -0.0290 -0.1128
 2336DOPS   D2A27405  12.524  28.491  10.261 -0.2437  0.0746 -0.0101
 2336DOPS   C3A27406  12.389  28.235  10.621 -0.2317 -0.1814  0.0509
 2336DOPS   C4A27407  12.061  28.198  10.972 -0.2977  0.1000  0.0542
 2336DOPS   C1B27408  12.264  29.451  10.296 -0.1789  0.0194 -0.1242
 2336DOPS   D2B27409  12.458  29.666  10.638 -0.0281 -0.2328 -0.2155
 2336DOPS   C3B27410  12.406  29.760  11.114  0.0136 -0.2410 -0.0939
 2336DOPS   C4B27411  12.388  29.650  11.590  0.1093 -0.0276 -0.1531
 2337DOPE   NH327412  15.056  30.731  10.375  0.0993  0.3222 -0.1336
 2337DOPE   PO427413  14.931  30.972  10.177 -0.0272 -0.0440  0.1831
 2337DOPE   GL127414  14.777  31.204  10.520 -0.3175 -0.0364  0.0323
 2337DOPE   GL227415  15.095  31.148  10.635  0.4893  0.1599  0.1920
 2337DOPE   C1A27416  14.658  30.945  10.913 -0.2712 -0.2098 -0.3380
 2337DOPE   D2A27417  14.709  30.840  11.325 -0.1320  0.0156  0.2210
 2337DOPE   C3A27418  14.429  30.978  11.664 -0.2278 -0.0124  0.2567
 2337DOPE   C4A27419  14.057  31.057  11.872  0.0688  0.0244 -0.2922
 2337DOPE   C1B27420  15.133  31.096  11.119 -0.1728  0.0189  0.0807
 2337DOPE   D2B27421  15.294  30.846  11.450  0.2138  0.2883 -0.0075
 2337DOPE   C3B27422  15.128  30.754  11.888 -0.0004  0.1839  0.0463
 2337DOPE   C4B27423  14.770  30.658  12.165 -0.2416 -0.2686  0.1085
 2338DOPE   NH327424  21.061  24.101  10.909  0.0278 -0.1590 -0.1247
 2338DOPE   PO427425  21.189  24.365  11.070  0.4850  0.2064  0.1225
 2338DOPE   GL127426  21.178  24.249  11.429  0.0086 -0.1727  0.4743
 2338DOPE   GL227427  20.834  24.177  11.456 -0.1687 -0.2069 -0.3728
 2338DOPE   C1A27428  21.441  23.995  11.789  0.1966 -0.1308 -0.2310
 2338DOPE   D2A27429  21.786  23.833  12.076 -0.1979 -0.0075 -0.0963
 2338DOPE   C3A27430  21.601  23.883  12.498  0.5671  0.0411 -0.0954
 2338DOPE   C4A27431  21.471  23.601  12.795  0.2275  0.2764  0.2917
 2338DOPE   C1B27432  21.024  24.270  11.917 -0.1488 -0.1582  0.2145
 2338DOPE   D2B27433  21.257  24.055  12.217 -0.0692 -0.0834  0.0132
 2338DOPE   C3B27434  21.309  23.620  12.165 -0.1296 -0.1386 -0.0121
 2338DOPE   C4B27435  21.566  23.360  12.365 -0.0090 -0.1436  0.1936
 2339DOPE   NH327436  19.521  26.085  10.820 -0.2383  0.2612 -0.4065
 2339DOPE   PO427437  19.270  26.309  10.831 -0.2614  0.0456  0.0433
 2339DOPE   GL127438  19.258  26.498  11.159 -0.0152 -0.3293  0.3839
 2339DOPE   GL227439  19.383  26.723  11.300  0.2926 -0.1061  0.1920
 2339DOPE   C1A27440  19.151  26.387  11.596  0.1495 -0.0719 -0.0148
 2339DOPE   D2A27441  19.317  26.335  12.059  0.0487  0.0007 -0.0249
 2339DOPE   C3A27442  19.274  26.581  12.422  0.1334 -0.2429 -0.0240
 2339DOPE   C4A27443  19.562  26.665  12.792 -0.0607  0.1973 -0.4202
 2339DOPE   C1B27444  19.334  26.772  11.818 -0.4698 -0.2216  0.0935
 2339DOPE   D2B27445  18.955  26.750  12.091  0.0505  0.0095  0.1558
 2339DOPE   C3B27446  18.890  26.876  12.519  0.2875  0.2259  0.0293
 2339DOPE   C4B27447  19.112  27.115  12.867  0.0453 -0.0113  0.1526
 2340DOPC   NC327448  19.388  23.445  10.701  0.0860  0.0524  0.0006
 2340DOPC   PO427449  19.113  23.658  10.798 -0.0473  0.0137  0.0325
 2340DOPC   GL127450  19.138  23.387  11.100  0.0222  0.2572 -0.0970
 2340DOPC   GL227451  19.405  23.410  11.196  0.2560 -0.0057 -0.3205
 2340DOPC   C1A27452  18.992  23.307  11.562 -0.0702  0.2548  0.1376
 2340DOPC   D2A27453  19.177  23.112  11.947  0.1552 -0.1768 -0.0121
 2340DOPC   C3A27454  19.105  23.353  12.296  0.0653  0.3444  0.0213
 2340DOPC   C4A27455  19.184  23.835  12.355  0.0438 -0.2620 -0.0183
 2340DOPC   C1B27456  19.595  23.211  11.558 -0.2907  0.1040 -0.0506
 2340DOPC   D2B27457  19.908  23.257  11.912  0.0633  0.0290 -0.0366
 2340DOPC   C3B27458  19.936  22.849  12.081  0.2210 -0.0708  0.0674
 2340DOPC   C4B27459  19.927  22.486  12.293 -0.0783  0.1802  0.0885
 2341DOPS   CNO27460  21.532  27.782  10.490 -0.1406 -0.1717  0.0752
 2341DOPS   PO427461  21.630  28.056  10.755  0.0305  0.1301 -0.1392
 2341DOPS   GL127462  21.555  28.071  11.103 -0.0083  0.0820  0.1789
 2341DOPS   GL227463  21.436  28.394  11.117 -0.0526  0.0352  0.1216
 2341DOPS   C1A27464  21.858  27.979  11.450 -0.1786  0.1127 -0.0354
 2341DOPS   D2A27465  22.065  28.027  11.853  0.0122  0.2867  0.1234
 2341DOPS   C3A27466  22.515  28.038  12.073 -0.0417 -0.2403 -0.2604
 2341DOPS   C4A27467  22.528  28.109  12.544  0.1172  0.0530 -0.0428
 2341DOPS   C1B27468  21.493  28.285  11.610  0.2468  0.1405  0.1650
 2341DOPS   D2B27469  21.060  28.082  11.735  0.1928  0.0950  0.0362
 2341DOPS   C3B27470  21.012  28.006  12.185  0.0857 -0.1405 -0.0914
 2341DOPS   C4B27471  21.171  28.381  12.498  0.2663 -0.0975  0.0684
 2342DOPS   CNO27472  18.316  33.233  10.114 -0.0759  0.3486 -0.2574
 2342DOPS   PO427473  17.949  33.359  10.095 -0.0544  0.2440 -0.1778
 2342DOPS   GL127474  18.031  33.221  10.479  0.1443  0.1296 -0.0271
 2342DOPS   GL227475  17.857  33.009  10.557  0.5098  0.0820  0.0580
 2342DOPS   C1A27476  17.797  33.435  10.799 -0.0031  0.1568 -0.3003
 2342DOPS   D2A27477  17.454  33.418  11.096  0.3088 -0.1076  0.0842
 2342DOPS   C3A27478  17.209  33.644  11.370 -0.1272 -0.3383  0.0948
 2342DOPS   C4A27479  16.836  33.881  11.539 -0.0438 -0.4473  0.2544
 2342DOPS   C1B27480  17.733  32.958  11.034  0.3229 -0.2712  0.1376
 2342DOPS   D2B27481  17.530  33.050  11.423  0.1355  0.1368  0.1206
 2342DOPS   C3B27482  17.170  32.915  11.754 -0.0405 -0.0726 -0.2783
 2342DOPS   C4B27483  17.244  33.125  12.164  0.1254  0.0556 -0.0752
 2343DOPC   NC327484  17.050  33.426   9.615 -0.0917  0.2245  0.1491
 2343DOPC   PO427485  17.076  33.409  10.023  0.0244 -0.0069  0.3715
 2343DOPC   GL127486  16.935  33.377  10.344 -0.2498 -0.2006 -0.1418
 2343DOPC   GL227487  17.024  33.609  10.540 -0.0572 -0.0046 -0.1802
 2343DOPC   C1A27488  17.033  33.195  10.755 -0.3293  0.0746 -0.3554
 2343DOPC   D2A27489  17.098  33.023  11.179 -0.1236 -0.1343 -0.2044
 2343DOPC   C3A27490  16.833  33.231  11.524 -0.0602 -0.0183 -0.1377
 2343DOPC   C4A27491  16.424  33.293  11.780 -0.1575  0.1590 -0.0554
 2343DOPC   C1B27492  17.162  33.892  10.928  0.3410 -0.3583  0.2363
 2343DOPC   D2B27493  17.526  34.092  11.138  0.4351  0.0459  0.2559
 2343DOPC   C3B27494  17.506  34.034  11.578  0.1253  0.1363 -0.1617
 2343DOPC   C4B27495  17.225  33.979  11.920  0.3270  0.0055 -0.0573
 2344DOPS   CNO27496  15.284  25.637  10.344  0.1530 -0.1151 -0.2323
 2344DOPS   PO427497  15.121  25.328  10.503  0.1590 -0.5409  0.0822
 2344DOPS   GL127498  15.086  25.510  10.971  0.2220  0.0157  0.0413
 2344DOPS   GL227499  15.212  25.799  10.800 -0.3604  0.1331  0.0439
 2344DOPS   C1A27500  14.709  25.547  11.204  0.1152  0.1811  0.0733
 2344DOPS   D2A27501  14.631  25.799  11.624  0.2167 -0.0812  0.2282
 2344DOPS   C3A27502  14.583  25.881  12.092  0.0864  0.0104  0.1502
 2344DOPS   C4A27503  14.375  25.973  12.538 -0.0908 -0.2604  0.1961
 2344DOPS   C1B27504  15.158  26.282  10.943  0.0000 -0.0118  0.0164
 2344DOPS   D2B27505  15.100  26.632  11.294 -0.0899  0.0514 -0.4657
 2344DOPS   C3B27506  14.755  26.447  11.648 -0.1341 -0.1914 -0.1138
 2344DOPS   C4B27507  14.288  26.386  11.645  0.2156 -0.0165 -0.1379
 2345DOPS   CNO27508  15.235  29.791  10.409 -0.1279 -0.2367  0.0240
 2345DOPS   PO427509  15.433  29.728  10.736 -0.0973  0.0230 -0.0553
 2345DOPS   GL127510  15.078  29.642  10.925 -0.0788  0.0930 -0.0373
 2345DOPS   GL227511  14.925  29.894  10.765  0.1297 -0.2955 -0.1706
 2345DOPS   C1A27512  14.691  29.436  11.121 -0.1833  0.0868  0.2340
 2345DOPS   D2A27513  14.601  29.132  11.441 -0.2357 -0.3487  0.1716
 2345DOPS   C3A27514  15.004  29.006  11.698  0.0293 -0.0960 -0.0241
 2345DOPS   C4A27515  15.322  28.841  11.926  0.2881 -0.1268  0.1646
 2345DOPS   C1B27516  14.686  30.067  11.138  0.3945 -0.1729  0.0890
 2345DOPS   D2B27517  14.368  30.393  11.266 -0.2540 -0.0343 -0.3238
 2345DOPS   C3B27518  14.220  30.750  11.030 -0.0223  0.1244 -0.1497
 2345DOPS   C4B27519  14.239  30.723  10.591 -0.5183  0.1214 -0.2905
 2346DOPC   NC327520  13.068  30.405   9.697 -0.0533  0.2449  0.2130
 2346DOPC   PO427521  12.984  30.096   9.504 -0.0849 -0.4284 -0.0466
 2346DOPC   GL127522  12.922  29.845   9.725  0.1568 -0.5582  0.2413
 2346DOPC   GL227523  13.032  29.700  10.040 -0.0461 -0.2000  0.3003
 2346DOPC   C1A27524  12.558  29.860  10.077  0.1510  0.4353 -0.4298
 2346DOPC   D2A27525  12.278  30.048  10.346  0.1572 -0.0665  0.0886
 2346DOPC   C3A27526  12.367  30.135  10.800  0.0895 -0.0875  0.1012
 2346DOPC   C4A27527  12.337  30.295  11.239 -0.1720 -0.1800  0.0232
 2346DOPC   C1B27528  12.793  29.419  10.329 -0.0562  0.0300  0.0008
 2346DOPC   D2B27529  12.604  29.173  10.651  0.2042 -0.3143  0.0968
 2346DOPC   C3B27530  12.240  29.277  10.815  0.1479 -0.2340  0.2298
 2346DOPC   C4B27531  11.833  29.083  10.986  0.2352 -0.1791  0.3741
 2347DOPE   NH327532  19.862  22.939  10.610 -0.1160 -0.1418 -0.0174
 2347DOPE   PO427533  20.045  23.045  10.805  0.0410 -0.1069  0.3087
 2347DOPE   GL127534  19.798  23.065  11.178  0.2184  0.0589  0.3493
 2347DOPE   GL227535  19.668  22.815  11.259 -0.0067 -0.1827 -0.1180
 2347DOPE   C1A27536  20.113  22.994  11.493  0.0582  0.0108  0.2159
 2347DOPE   D2A27537  20.332  23.044  11.877  0.0117  0.2115 -0.3476
 2347DOPE   C3A27538  20.582  23.433  12.043 -0.1514  0.0724  0.0279
 2347DOPE   C4A27539  20.776  23.797  12.142 -0.0788 -0.1571 -0.0115
 2347DOPE   C1B27540  19.454  22.773  11.700  0.1518  0.2675  0.0236
 2347DOPE   D2B27541  19.460  22.783  12.190 -0.2626 -0.0528  0.1976
 2347DOPE   C3B27542  19.163  22.916  12.526 -0.1698  0.1054  0.1395
 2347DOPE   C4B27543  19.291  23.044  12.950 -0.0867 -0.3580  0.0187
 2348DOPE   NH327544  12.002  32.228  10.056  0.0272 -0.0146  0.0124
 2348DOPE   PO427545  12.171  32.133  10.305  0.2938 -0.1751 -0.0022
 2348DOPE   GL127546  12.021  31.907  10.640 -0.2956  0.2918 -0.1755
 2348DOPE   GL227547  11.722  31.779  10.669  0.0054 -0.2520  0.0150
 2348DOPE   C1A27548  12.117  32.001  11.125  0.1176 -0.1181  0.0131
 2348DOPE   D2A27549  12.114  32.008  11.586 -0.1439 -0.0529  0.2506
 2348DOPE   C3A27550  11.843  31.731  11.768 -0.2370 -0.0754  0.3889
 2348DOPE   C4A27551  11.830  31.387  12.099 -0.0423  0.2733  0.1088
 2348DOPE   C1B27552  11.625  31.790  11.141 -0.0211 -0.3742 -0.0370
 2348DOPE   D2B27553  11.464  31.892  11.551 -0.2750 -0.1520 -0.0549
 2348DOPE   C3B27554  11.373  32.292  11.723  0.3756 -0.3940 -0.2652
 2348DOPE   C4B27555  11.116  32.616  12.033 -0.0754  0.1105 -0.1084
 2349POSM   NC327556  18.253  23.921  10.211 -0.0910 -0.0028 -0.0579
 2349POSM   PO427557  18.521  24.175  10.348  0.1040  0.0704  0.1848
 2349POSM   AM127558  18.519  24.403  10.635  0.3448  0.1258  0.4047
 2349POSM   AM227559  18.355  24.654  10.717 -0.1000 -0.1383  0.1715
 2349POSM   T1A27560  18.518  24.444  11.125  0.3004 -0.3081  0.2540
 2349POSM   C2A27561  18.717  24.325  11.454 -0.3261  0.3349 -0.3885
 2349POSM   C3A27562  18.838  24.222  11.893 -0.0519 -0.1377  0.1252
 2349POSM   C1B27563  18.173  24.827  10.946  0.1115  0.1924  0.0977
 2349POSM   D2B27564  18.130  25.116  11.305 -0.0545  0.1334 -0.1406
 2349POSM   C3B27565  18.553  25.154  11.519 -0.2847 -0.0644  0.2601
 2349POSM   C4B27566  18.864  25.531  11.425 -0.0021  0.1373 -0.0390
 2350DOPS   CNO27567  20.091   0.023  10.125 -0.0108 -0.4974  0.1889
 2350DOPS   PO427568  20.230   0.386  10.203 -0.0599 -0.3380  0.3444
 2350DOPS   GL127569  20.160   0.340  10.577 -0.0074  0.3048 -0.2594
 2350DOPS   GL227570  20.156   0.549  10.683 -0.1165  0.0698  0.0080
 2350DOPS   C1A27571  19.942  -0.082  10.643  0.1137 -0.0636 -0.0389
 2350DOPS   D2A27572  19.686  -0.277  11.002  0.3061 -0.1117  0.1622
 2350DOPS   C3A27573  19.932  -0.523  11.318  0.1699 -0.0788 -0.4238
 2350DOPS   C4A27574  19.853  -0.642  11.747 -0.1615 -0.0508  0.1050
 2350DOPS   C1B27575  19.906   0.263  10.983  0.1599 -0.3926  0.1319
 2350DOPS   D2B27576  19.795   0.030  11.370 -0.0328 -0.1005  0.0765
 2350DOPS   C3B27577  20.093  -0.175  11.654 -0.0233  0.2725 -0.1270
 2350DOPS   C4B27578  20.372  -0.516  11.618  0.1916 -0.1540  0.1214
 2351DOPC   NC327579  18.337  22.016  10.407  0.1537  0.2274  0.1765
 2351DOPC   PO427580  18.682  22.109  10.283  0.2015 -0.2978 -0.0930
 2351DOPC   GL127581  18.760  21.918  10.656 -0.0729 -0.2176  0.1062
 2351DOPC   GL227582  18.671  22.131  10.818  0.1578  0.3195 -0.1414
 2351DOPC   C1A27583  18.967  21.581  10.929 -0.0819 -0.1438  0.2674
 2351DOPC   D2A27584  18.854  21.164  11.230  0.2978 -0.2082 -0.1893
 2351DOPC   C3A27585  18.573  21.299  11.569 -0.0640  0.2108 -0.0382
 2351DOPC   C4A27586  18.499  21.315  12.034  0.1492  0.0366 -0.1681
 2351DOPC   C1B27587  18.962  22.060  11.177  0.1719  0.0440  0.0625
 2351DOPC   D2B27588  18.887  21.692  11.472  0.1510  0.5332 -0.2178
 2351DOPC   C3B27589  18.518  21.797  11.727  0.1523  0.0447 -0.1108
 2351DOPC   C4B27590  18.110  21.808  11.804 -0.4399  0.0320  0.1431
 2352DOPE   NH327591  14.475  26.828  10.103 -0.0758  0.5391 -0.0603
 2352DOPE   PO427592  14.214  26.641  10.058 -0.0099  0.0405 -0.1983
 2352DOPE   GL127593  14.186  26.669  10.457  0.1464  0.3573  0.1591
 2352DOPE   GL227594  14.021  26.452  10.483 -0.3739 -0.0198 -0.1423
 2352DOPE   C1A27595  14.197  27.119  10.518  0.1092 -0.3154 -0.2286
 2352DOPE   D2A27596  13.948  27.569  10.503 -0.4288 -0.0532 -0.0589
 2352DOPE   C3A27597  13.779  27.702  10.916  0.0549 -0.0470 -0.0916
 2352DOPE   C4A27598  13.713  28.101  11.190 -0.0899 -0.0622 -0.2953
 2352DOPE   C1B27599  13.830  26.794  10.749 -0.1330 -0.0288 -0.1942
 2352DOPE   D2B27600  13.748  26.915  11.203  0.1460 -0.0012 -0.2350
 2352DOPE   C3B27601  13.819  26.646  11.593 -0.1956 -0.1472 -0.2310
 2352DOPE   C4B27602  14.003  26.656  12.012  0.1399 -0.2582 -0.1716
 2353DOPS   CNO27603  20.044  27.612  10.686  0.0068  0.0892  0.0712
 2353DOPS   PO427604  19.963  27.244  10.823  0.2929  0.2267 -0.2097
 2353DOPS   GL127605  19.750  27.370  11.096 -0.2525 -0.0578  0.2739
 2353DOPS   GL227606  19.504  27.148  11.122  0.0141  0.3033 -0.0228
 2353DOPS   C1A27607  19.847  27.633  11.495 -0.2738  0.1470 -0.2321
 2353DOPS   D2A27608  19.761  27.782  11.904  0.2460  0.1205 -0.2673
 2353DOPS   C3A27609  19.592  27.450  12.143 -0.2801  0.0369  0.1342
 2353DOPS   C4A27610  19.267  27.093  12.259 -0.2263 -0.1866  0.0679
 2353DOPS   C1B27611  19.760  27.160  11.501  0.2600  0.2662 -0.0984
 2353DOPS   D2B27612  19.811  26.973  11.927  0.4215  0.0268 -0.0923
 2353DOPS   C3B27613  19.747  26.859  12.370  0.1483 -0.1370 -0.1603
 2353DOPS   C4B27614  19.628  27.164  12.713  0.2708 -0.0533  0.0303
 2354DOPS   CNO27615  19.721  28.742  10.274  0.0673  0.3488 -0.0850
 2354DOPS   PO427616  19.898  28.643  10.596  0.0252  0.2240  0.1984
 2354DOPS   GL127617  19.746  28.993  10.783  0.3600  0.1636 -0.1701
 2354DOPS   GL227618  19.896  29.298  10.838 -0.0590 -0.4122  0.0003
 2354DOPS   C1A27619  19.608  29.063  11.241 -0.0935 -0.1350 -0.2986
 2354DOPS   D2A27620  19.405  29.029  11.630 -0.1485 -0.0664 -0.1749
 2354DOPS   C3A27621  19.609  29.054  12.079  0.0922  0.0669 -0.2123
 2354DOPS   C4A27622  19.654  29.260  12.469  0.0966  0.0135  0.3182
 2354DOPS   C1B27623  19.944  29.416  11.288 -0.0766 -0.2429  0.0738
 2354DOPS   D2B27624  19.722  29.354  11.702  0.0028  0.3584 -0.2667
 2354DOPS   C3B27625  19.799  29.570  12.103 -0.0714  0.0145  0.1455
 2354DOPS   C4B27626  19.890  29.837  12.467  0.1505  0.1932  0.3682
 2355DOPE   NH327627  13.182  33.682  10.502  0.0091  0.0980  0.1352
 2355DOPE   PO427628  12.862  33.609  10.462 -0.1429 -0.2592  0.1397
 2355DOPE   GL127629  12.714  33.702  10.763  0.1450  0.0670  0.2484
 2355DOPE   GL227630  12.707  33.377  10.878  0.1330  0.4567  0.2547
 2355DOPE   C1A27631  12.657  33.835  11.221 -0.0881 -0.1367 -0.1794
 2355DOPE   D2A27632  12.545  34.255  11.412 -0.2630 -0.0669 -0.0542
 2355DOPE   C3A27633  12.425  34.226  11.843  0.0289  0.1935 -0.1854
 2355DOPE   C4A27634  12.215  34.182  12.299 -0.3947  0.0446  0.1096
 2355DOPE   C1B27635  12.747  33.383  11.375 -0.3000  0.2455  0.2055
 2355DOPE   D2B27636  12.736  33.417  11.836  0.0658 -0.1304 -0.1219
 2355DOPE   C3B27637  12.543  33.219  12.196  0.2277 -0.3740  0.2064
 2355DOPE   C4B27638  12.049  33.371  12.288 -0.3003 -0.0202  0.1458
 2356DOPE   NH327639  16.533  30.446  10.699 -0.1430 -0.0667 -0.3037
 2356DOPE   PO427640  16.725  30.207  10.679 -0.0645 -0.2507  0.0027
 2356DOPE   GL127641  16.490  30.004  10.971  0.1229  0.2975 -0.3500
 2356DOPE   GL227642  16.280  30.118  10.955 -0.1333 -0.1878 -0.0789
 2356DOPE   C1A27643  16.408  30.044  11.439 -0.2327  0.1463 -0.0889
 2356DOPE   D2A27644  16.263  30.017  11.929  0.0420 -0.3202  0.0795
 2356DOPE   C3A27645  16.318  29.695  12.253  0.2740 -0.1389 -0.1216
 2356DOPE   C4A27646  16.344  29.252  12.438  0.3060  0.0558  0.1769
 2356DOPE   C1B27647  16.010  30.386  11.282  0.1092  0.1576  0.0849
 2356DOPE   D2B27648  15.832  30.719  11.478  0.1626 -0.1108 -0.2531
 2356DOPE   C3B27649  15.687  30.809  11.879  0.1235  0.0442  0.3570
 2356DOPE   C4B27650  15.600  30.974  12.318  0.0650  0.1446  0.1538
 2357POSM   NC327651  24.294  21.603   9.950  0.2753  0.2975 -0.1052
 2357POSM   PO427652  24.445  21.916  10.131  0.1436 -0.0274  0.1808
 2357POSM   AM127653  24.383  21.863  10.438 -0.0583 -0.1389 -0.0808
 2357POSM   AM227654  24.435  21.675  10.631 -0.0080  0.1345  0.1378
 2357POSM   T1A27655  24.260  22.025  10.918  0.1189  0.1019  0.0002
 2357POSM   C2A27656  23.998  22.216  11.229 -0.4512 -0.0065 -0.1203
 2357POSM   C3A27657  23.899  22.323  11.686 -0.1415  0.0954  0.0196
 2357POSM   C1B27658  24.721  21.603  10.834 -0.0753 -0.0289  0.3610
 2357POSM   D2B27659  25.002  21.302  11.134  0.0726 -0.0465 -0.0881
 2357POSM   C3B27660  25.095  21.262  11.617 -0.1413  0.3372 -0.0434
 2357POSM   C4B27661  25.452  21.060  11.829  0.2018  0.3650 -0.1387
 2358DOPC   NC327662  23.028  24.745  10.843 -0.0267 -0.1854 -0.1664
 2358DOPC   PO427663  22.879  25.041  10.656  0.0748 -0.1036  0.2401
 2358DOPC   GL127664  22.871  25.063  11.104  0.3216  0.2930  0.4764
 2358DOPC   GL227665  23.175  25.074  11.180  0.2424  0.0362  0.0705
 2358DOPC   C1A27666  22.832  25.327  11.540 -0.2938 -0.0312 -0.0023
 2358DOPC   D2A27667  22.906  25.578  11.943 -0.0370 -0.1276 -0.2011
 2358DOPC   C3A27668  22.594  25.561  12.242  0.1145 -0.0216 -0.2481
 2358DOPC   C4A27669  22.385  25.771  12.586  0.0570  0.0624  0.4844
 2358DOPC   C1B27670  23.644  25.132  11.333 -0.1587  0.1083 -0.3776
 2358DOPC   D2B27671  24.022  25.165  11.614  0.2239  0.2468  0.2436
 2358DOPC   C3B27672  24.015  25.264  12.066 -0.2505  0.2191  0.0246
 2358DOPC   C4B27673  23.695  25.180  12.378 -0.3248 -0.0173 -0.3459
 2359DOPC   NC327674  16.363  28.270  10.636  0.0963 -0.4464 -0.0890
 2359DOPC   PO427675  16.662  28.039  10.670  0.0653  0.1546  0.1675
 2359DOPC   GL127676  16.504  28.043  11.036 -0.6126 -0.2720 -0.0531
 2359DOPC   GL227677  16.358  27.745  11.085 -0.0607 -0.1506 -0.0112
 2359DOPC   C1A27678  16.451  28.110  11.487 -0.2099  0.0070  0.0020
 2359DOPC   D2A27679  16.532  28.360  11.854  0.1513  0.0448  0.2576
 2359DOPC   C3A27680  16.205  28.620  12.008  0.2135 -0.0585 -0.2365
 2359DOPC   C4A27681  15.764  28.732  12.100  0.0049 -0.0826  0.1504
 2359DOPC   C1B27682  16.010  27.558  11.231 -0.3061  0.2022 -0.0162
 2359DOPC   D2B27683  15.686  27.645  11.516  0.0532  0.1345 -0.3018
 2359DOPC   C3B27684  15.400  27.860  11.834  0.0985 -0.1073 -0.0078
 2359DOPC   C4B27685  15.004  27.956  11.665 -0.2838 -0.3228 -0.0845
 2360DOPE   NH327686  20.456   1.944  10.637 -0.0242 -0.2524 -0.0794
 2360DOPE   PO427687  20.474   2.242  10.768 -0.3112  0.3576 -0.0770
 2360DOPE   GL127688  20.468   2.332  11.162 -0.1474 -0.1442  0.0530
 2360DOPE   GL227689  20.191   2.387  11.230 -0.2096 -0.1546 -0.0524
 2360DOPE   C1A27690  20.710   2.355  11.569  0.2173  0.1631 -0.0473
 2360DOPE   D2A27691  20.720   2.547  12.000 -0.0519 -0.1488  0.2184
 2360DOPE   C3A27692  20.883   2.864  12.310  0.0934 -0.0512  0.2457
 2360DOPE   C4A27693  21.050   2.950  12.679 -0.0447 -0.1331 -0.0020
 2360DOPE   C1B27694  20.246   2.549  11.647  0.1865 -0.0667 -0.0540
 2360DOPE   D2B27695  20.296   2.830  11.999  0.0086  0.0943  0.0537
 2360DOPE   C3B27696  20.191   2.997  12.391 -0.2369 -0.3991  0.0358
 2360DOPE   C4B27697  20.136   2.782  12.808  0.1542 -0.2928 -0.0721
 2361POSM   NC327698  21.478   1.357  10.699  0.3087  0.1986 -0.0060
 2361POSM   PO427699  21.426   1.036  10.494 -0.1431  0.0794 -0.0109
 2361POSM   AM127700  21.326   0.907  10.765 -0.1924  0.1785  0.2807
 2361POSM   AM227701  21.296   0.667  10.834  0.2569  0.2690  0.0845
 2361POSM   T1A27702  21.226   0.991  11.298 -0.2918 -0.1044  0.1589
 2361POSM   C2A27703  21.535   1.112  11.656 -0.1448  0.2339  0.2123
 2361POSM   C3A27704  21.963   1.047  11.900 -0.0996 -0.2369  0.0495
 2361POSM   C1B27705  21.226   0.470  11.113 -0.1427  0.1044  0.2993
 2361POSM   D2B27706  21.197   0.275  11.523  0.2537 -0.1070  0.1452
 2361POSM   C3B27707  21.013   0.497  11.928 -0.1432 -0.1370  0.2274
 2361POSM   C4B27708  20.647   0.773  12.037 -0.2764 -0.0869 -0.1481
 2362DOPE   NH327709  17.308  31.444  10.848 -0.0161  0.0498 -0.1912
 2362DOPE   PO427710  17.644  31.365  10.750  0.0256 -0.2039  0.0369
 2362DOPE   GL127711  17.759  31.438  11.119 -0.0601  0.0406 -0.0134
 2362DOPE   GL227712  17.959  31.635  11.075 -0.0369  0.2149 -0.0718
 2362DOPE   C1A27713  17.633  31.402  11.564 -0.0972  0.2674  0.2268
 2362DOPE   D2A27714  17.968  31.344  11.885  0.1301  0.1298 -0.1080
 2362DOPE   C3A27715  18.220  30.953  11.953 -0.2539 -0.1334 -0.0842
 2362DOPE   C4A27716  18.062  30.553  11.752  0.0790 -0.1597 -0.1038
 2362DOPE   C1B27717  18.240  31.641  11.441  0.0124 -0.0688 -0.4364
 2362DOPE   D2B27718  18.453  31.945  11.697  0.1345 -0.2012  0.2696
 2362DOPE   C3B27719  18.691  31.866  12.067 -0.2463 -0.1395 -0.0921
 2362DOPE   C4B27720  19.079  31.920  12.396  0.0921  0.1822  0.4230
 2363DOPC   NC327721  16.971  27.686  10.563  0.3486  0.0902 -0.0607
 2363DOPC   PO427722  17.260  27.454  10.625  0.2573 -0.0233  0.3062
 2363DOPC   GL127723  17.248  27.347  11.005 -0.0798  0.2501  0.1895
 2363DOPC   GL227724  17.239  27.062  10.982  0.0996 -0.2721  0.2173
 2363DOPC   C1A27725  17.352  27.669  11.311  0.0924  0.3533  0.5496
 2363DOPC   D2A27726  17.684  27.783  11.629 -0.1592 -0.2937  0.1064
 2363DOPC   C3A27727  17.706  28.047  11.991 -0.1125 -0.0898 -0.0834
 2363DOPC   C4A27728  17.914  28.186  12.364  0.0702 -0.0892 -0.2244
 2363DOPC   C1B27729  17.556  27.127  11.347  0.1658 -0.2012 -0.3581
 2363DOPC   D2B27730  17.704  27.211  11.831 -0.1936  0.0323 -0.1115
 2363DOPC   C3B27731  17.990  27.543  11.999 -0.0080 -0.0557 -0.5460
 2363DOPC   C4B27732  18.180  27.729  12.387  0.2315 -0.0856  0.0195
 2364DOPS   CNO27733  12.096  20.089  10.168 -0.0128  0.0189  0.1622
 2364DOPS   PO427734  12.349  20.347  10.022 -0.1275 -0.1010 -0.1337
 2364DOPS   GL127735  12.207  20.505  10.372 -0.0242  0.1732 -0.1901
 2364DOPS   GL227736  12.057  20.703  10.384  0.1143 -0.2984 -0.0063
 2364DOPS   C1A27737  12.203  20.215  10.719 -0.0450 -0.3441  0.0625
 2364DOPS   D2A27738  12.046  20.312  11.161 -0.0997 -0.0064 -0.1059
 2364DOPS   C3A27739  11.711  20.549  11.279 -0.0769  0.1775  0.0169
 2364DOPS   C4A27740  11.337  20.402  11.555 -0.2974 -0.2061 -0.2620
 2364DOPS   C1B27741  12.231  20.755  10.812  0.3545  0.0176  0.1064
 2364DOPS   D2B27742  12.429  20.721  11.251 -0.0606 -0.4182 -0.0176
 2364DOPS   C3B27743  12.187  20.617  11.593  0.0312 -0.3393  0.3472
 2364DOPS   C4B27744  11.918  20.286  11.716  0.0291 -0.1050 -0.1328
 2365DOPE   NH327745  14.437  32.604  10.000 -0.1126  0.0433  0.1364
 2365DOPE   PO427746  14.162  32.688  10.160  0.0259  0.4941  0.0039
 2365DOPE   GL127747  14.112  32.477  10.494  0.2992  0.0999 -0.2692
 2365DOPE   GL227748  14.104  32.185  10.474 -0.2549 -0.2496 -0.1895
 2365DOPE   C1A27749  14.301  32.462  10.917  0.0600 -0.0807  0.0433
 2365DOPE   D2A27750  14.219  32.150  11.261 -0.0518 -0.2290 -0.3421
 2365DOPE   C3A27751  13.939  32.101  11.651 -0.1169  0.1001 -0.1154
 2365DOPE   C4A27752  13.555  31.962  11.789  0.1437  0.3214  0.4399
 2365DOPE   C1B27753  13.923  32.093  10.849  0.0732 -0.0195  0.0065
 2365DOPE   D2B27754  13.749  32.447  11.181 -0.1419  0.2229  0.2085
 2365DOPE   C3B27755  13.550  32.387  11.593  0.0910  0.0924 -0.0221
 2365DOPE   C4B27756  13.540  32.376  12.074  0.2346 -0.4285 -0.1280
 2366DOPE   NH327757  15.709  25.327  10.497 -0.2859  0.2401 -0.1157
 2366DOPE   PO427758  15.696  25.605  10.709 -0.1293  0.0318  0.1140
 2366DOPE   GL127759  15.558  25.561  11.012  0.4175  0.0264  0.3765
 2366DOPE   GL227760  15.569  25.849  11.146 -0.2198  0.1106 -0.0718
 2366DOPE   C1A27761  15.831  25.435  11.370  0.2537 -0.0242  0.1931
 2366DOPE   D2A27762  16.035  25.438  11.781 -0.0970 -0.3188  0.2439
 2366DOPE   C3A27763  15.991  25.355  12.258 -0.3824  0.3015  0.3706
 2366DOPE   C4A27764  15.599  25.337  12.492 -0.2126 -0.0660  0.0643
 2366DOPE   C1B27765  15.669  25.807  11.617 -0.0560 -0.3047 -0.1955
 2366DOPE   D2B27766  15.602  25.612  12.062  0.1825  0.1276  0.2465
 2366DOPE   C3B27767  15.807  25.789  12.460 -0.2743  0.2244  0.4059
 2366DOPE   C4B27768  15.647  25.673  12.927 -0.3546 -0.3805  0.1651
 2367DOPS   CNO27769  22.623   1.644  10.065 -0.0568  0.2079  0.3633
 2367DOPS   PO427770  22.993   1.576  10.115 -0.1035  0.0284  0.0582
 2367DOPS   GL127771  23.005   1.600  10.517 -0.3074 -0.0031  0.1723
 2367DOPS   GL227772  23.256   1.669  10.615  0.2768 -0.2109 -0.1431
 2367DOPS   C1A27773  22.812   1.911  10.845 -0.0325  0.3126  0.1887
 2367DOPS   D2A27774  22.758   2.128  11.263  0.1628 -0.2085  0.1169
 2367DOPS   C3A27775  23.008   1.929  11.552  0.1143 -0.2405 -0.3606
 2367DOPS   C4A27776  23.377   2.120  11.718  0.0445  0.2704  0.1846
 2367DOPS   C1B27777  23.272   1.692  11.068 -0.1478 -0.1977  0.1207
 2367DOPS   D2B27778  23.094   1.403  11.435 -0.2326  0.1312 -0.0950
 2367DOPS   C3B27779  22.693   1.478  11.686  0.2751  0.1186 -0.1352
 2367DOPS   C4B27780  22.230   1.484  11.796 -0.0493  0.1131  0.0282
 2368DOPE   NH327781  19.616  26.881  10.730  0.1411  0.2376 -0.0184
 2368DOPE   PO427782  19.711  26.569  10.725  0.0411  0.1405 -0.2189
 2368DOPE   GL127783  19.750  26.370  11.075  0.0047 -0.2253 -0.0505
 2368DOPE   GL227784  19.882  26.132  11.129 -0.0882  0.2305 -0.1528
 2368DOPE   C1A27785  19.744  26.513  11.536 -0.0377  0.1363 -0.1071
 2368DOPE   D2A27786  19.971  26.451  11.958 -0.0831  0.2550  0.1185
 2368DOPE   C3A27787  19.757  26.322  12.324 -0.0556  0.3142  0.1355
 2368DOPE   C4A27788  19.396  26.068  12.447  0.1400 -0.2776  0.0948
 2368DOPE   C1B27789  19.992  25.936  11.566 -0.1232 -0.1161 -0.2170
 2368DOPE   D2B27790  20.102  25.557  11.817 -0.1420  0.0115  0.0521
 2368DOPE   C3B27791  20.496  25.329  11.894 -0.1108  0.0249 -0.2191
 2368DOPE   C4B27792  20.699  25.089  12.240  0.1671 -0.0422  0.1799
 2369DOPS   CNO27793  15.790  23.636  10.587  0.1159 -0.0862 -0.1678
 2369DOPS   PO427794  15.909  23.801  10.238 -0.2301 -0.0582  0.0503
 2369DOPS   GL127795  16.174  23.801  10.663 -0.3728 -0.1535 -0.2427
 2369DOPS   GL227796  16.008  24.043  10.868 -0.3201 -0.0935 -0.1281
 2369DOPS   C1A27797  16.155  23.519  11.029  0.0341 -0.0760  0.0059
 2369DOPS   D2A27798  16.056  23.456  11.443  0.3983 -0.0671 -0.1427
 2369DOPS   C3A27799  16.041  23.052  11.461 -0.1052 -0.0085  0.1518
 2369DOPS   C4A27800  15.889  22.973  11.890  0.2248  0.0149 -0.0462
 2369DOPS   C1B27801  15.926  24.014  11.311 -0.1621  0.0612 -0.2612
 2369DOPS   D2B27802  15.869  23.930  11.745  0.1682  0.1096  0.0753
 2369DOPS   C3B27803  15.850  24.114  12.175  0.1366 -0.4151 -0.0977
 2369DOPS   C4B27804  15.752  24.321  12.594  0.0483  0.1400  0.2118
 2370DOPS   CNO27805  20.801  23.785  10.619 -0.0080  0.1993 -0.2546
 2370DOPS   PO427806  20.643  23.825  10.963 -0.1854  0.2688 -0.0580
 2370DOPS   GL127807  20.338  23.811  11.268 -0.2216  0.0811 -0.4745
 2370DOPS   GL227808  20.292  24.172  11.223 -0.0587 -0.0801  0.0202
 2370DOPS   C1A27809  20.424  24.016  11.654 -0.0703  0.3487 -0.1789
 2370DOPS   D2A27810  20.470  24.166  12.082  0.1600 -0.0733 -0.2668
 2370DOPS   C3A27811  20.759  24.203  12.468  0.3453  0.1881  0.0864
 2370DOPS   C4A27812  20.772  24.118  12.919 -0.4498  0.1654  0.0585
 2370DOPS   C1B27813  20.191  24.458  11.598 -0.2064 -0.0000  0.0142
 2370DOPS   D2B27814  20.483  24.711  11.814 -0.0884 -0.1374  0.1895
 2370DOPS   C3B27815  20.516  24.640  12.272  0.0157  0.1209 -0.1958
 2370DOPS   C4B27816  20.664  24.605  12.710 -0.0722 -0.2128  0.1762
 2371DOPC   NC327817  16.095  24.303  10.416  0.0754  0.1245  0.1317
 2371DOPC   PO427818  15.926  24.705  10.431 -0.1405 -0.0789  0.1049
 2371DOPC   GL127819  15.753  24.561  10.766  0.1145  0.1161  0.4452
 2371DOPC   GL227820  15.856  24.831  10.887  0.0397 -0.0977  0.1873
 2371DOPC   C1A27821  15.762  24.443  11.166  0.0594  0.0630  0.0247
 2371DOPC   D2A27822  15.993  24.451  11.547 -0.2392 -0.2221 -0.1695
 2371DOPC   C3A27823  16.427  24.351  11.593 -0.1497  0.0560 -0.0051
 2371DOPC   C4A27824  16.858  24.481  11.553 -0.2153 -0.0254 -0.1169
 2371DOPC   C1B27825  15.723  24.938  11.304 -0.0594  0.0621  0.2638
 2371DOPC   D2B27826  15.380  24.790  11.605  0.0219 -0.0984  0.0318
 2371DOPC   C3B27827  15.013  24.955  11.766 -0.0718 -0.0365 -0.4829
 2371DOPC   C4B27828  14.850  25.364  11.807 -0.1663  0.2872  0.0067
 2372DOPC   NC327829  21.652  28.607  10.621 -0.1641  0.2053  0.0620
 2372DOPC   PO427830  21.398  28.769  10.406  0.0503  0.0648  0.3259
 2372DOPC   GL127831  21.414  28.981  10.777 -0.2992 -0.0149  0.4287
 2372DOPC   GL227832  21.190  28.763  10.851  0.0332 -0.2110  0.0040
 2372DOPC   C1A27833  21.532  28.858  11.180 -0.1903 -0.2058 -0.1663
 2372DOPC   D2A27834  21.776  28.741  11.551  0.1792  0.0168 -0.0192
 2372DOPC   C3A27835  21.565  28.806  11.940 -0.2992 -0.0042 -0.0501
 2372DOPC   C4A27836  21.466  29.127  12.295  0.0977 -0.1119 -0.5781
 2372DOPC   C1B27837  20.997  28.939  11.241 -0.0648 -0.1440  0.2878
 2372DOPC   D2B27838  21.187  28.988  11.670  0.0955 -0.0390  0.3545
 2372DOPC   C3B27839  21.520  29.286  11.872  0.0546 -0.1042 -0.1166
 2372DOPC   C4B27840  21.533  29.603  12.198  0.1921  0.0908  0.1039
 2373DOPE   NH327841  17.834  25.789  10.819  0.3015  0.1379 -0.0024
 2373DOPE   PO427842  17.605  25.646  11.056 -0.3880  0.0068 -0.0543
 2373DOPE   GL127843  17.904  25.521  11.391 -0.4005  0.2275  0.2232
 2373DOPE   GL227844  17.795  25.343  11.668  0.3072  0.1470  0.0703
 2373DOPE   C1A27845  18.285  25.568  11.705 -0.1756 -0.1255  0.0964
 2373DOPE   D2A27846  18.469  25.690  12.165  0.0758 -0.4281 -0.0547
 2373DOPE   C3A27847  18.105  25.761  12.469  0.2695 -0.0209  0.1403
 2373DOPE   C4A27848  17.874  25.812  12.833 -0.0678 -0.0394  0.0934
 2373DOPE   C1B27849  17.531  25.560  12.002  0.2659  0.0828  0.0085
 2373DOPE   D2B27850  17.580  25.767  12.434 -0.1015  0.0352 -0.0824
 2373DOPE   C3B27851  17.802  26.169  12.492  0.0868  0.0244  0.1129
 2373DOPE   C4B27852  18.135  26.390  12.211 -0.2357 -0.0105 -0.0058
 2374DOPC   NC327853  19.736   0.399  10.400  0.1326  0.1468  0.2229
 2374DOPC   PO427854  19.419   0.580  10.534 -0.0941  0.1965  0.0460
 2374DOPC   GL127855  19.337   0.647  10.947  0.1336  0.4833  0.0962
 2374DOPC   GL227856  19.480   0.439  11.053 -0.2740 -0.0417  0.2060
 2374DOPC   C1A27857  19.590   0.919  11.230  0.1084 -0.2773  0.0386
 2374DOPC   D2A27858  19.982   0.992  11.476 -0.0153 -0.0123  0.0329
 2374DOPC   C3A27859  20.408   0.808  11.514 -0.2254  0.1143 -0.1027
 2374DOPC   C4A27860  20.763   0.626  11.512 -0.0549 -0.1332 -0.0226
 2374DOPC   C1B27861  19.417   0.379  11.511  0.3146 -0.3471 -0.4895
 2374DOPC   D2B27862  19.383   0.286  11.946  0.0857  0.1378 -0.1647
 2374DOPC   C3B27863  19.282  -0.022  12.281 -0.0150  0.1141 -0.0672
 2374DOPC   C4B27864  19.323  -0.465  12.238  0.2429 -0.0255 -0.3132
 2375POSM   NC327865  21.198  25.799  10.782 -0.0223  0.0705 -0.0284
 2375POSM   PO427866  20.821  25.679  10.816  0.2999 -0.5522  0.0145
 2375POSM   AM127867  20.734  25.782  11.138 -0.0642  0.3282 -0.0943
 2375POSM   AM227868  20.784  25.785  11.401  0.0664 -0.1359 -0.1473
 2375POSM   T1A27869  20.533  26.184  11.336 -0.0656 -0.0117  0.2023
 2375POSM   C2A27870  20.249  26.508  11.455  0.0159 -0.1116 -0.1392
 2375POSM   C3A27871  20.240  26.955  11.557  0.0422 -0.2313  0.0205
 2375POSM   C1B27872  20.507  25.807  11.618 -0.4219 -0.2301  0.1896
 2375POSM   D2B27873  20.488  25.812  12.044 -0.0056  0.0565  0.0506
 2375POSM   C3B27874  20.257  25.472  12.311 -0.3228 -0.1012  0.0963
 2375POSM   C4B27875  20.226  25.028  12.230  0.1186  0.2312  0.1932
 2376DOPC   NC327876  15.897  29.005  10.425 -0.0974  0.2928 -0.0132
 2376DOPC   PO427877  15.555  28.786  10.465  0.0558 -0.0999 -0.1883
 2376DOPC   GL127878  15.532  28.755  10.831 -0.0487 -0.1159 -0.1958
 2376DOPC   GL227879  15.817  28.874  10.919 -0.1635 -0.2360  0.1436
 2376DOPC   C1A27880  15.206  28.416  11.001 -0.2152  0.1214  0.0454
 2376DOPC   D2A27881  14.890  28.126  11.192  0.1221 -0.0279  0.2545
 2376DOPC   C3A27882  14.428  28.158  11.276  0.2541  0.2370  0.1620
 2376DOPC   C4A27883  14.086  28.319  11.569  0.0067 -0.1828 -0.0346
 2376DOPC   C1B27884  15.899  28.933  11.359  0.1459 -0.0049 -0.0241
 2376DOPC   D2B27885  16.105  29.289  11.413  0.1058  0.1271 -0.2184
 2376DOPC   C3B27886  16.341  29.498  11.796  0.0113  0.2712 -0.0865
 2376DOPC   C4B27887  16.701  29.796  11.809  0.0765  0.0594 -0.0311
 2377DOPC   NC327888  18.061   0.617  10.727  0.2390 -0.3138  0.6831
 2377DOPC   PO427889  18.427   0.520  10.567  0.2446  0.1740  0.0519
 2377DOPC   GL127890  18.502   0.368  10.865 -0.0913 -0.1143  0.0248
 2377DOPC   GL227891  18.400   0.429  11.139 -0.1105 -0.3096  0.0167
 2377DOPC   C1A27892  18.784   0.076  11.094  0.1051  0.1703 -0.4411
 2377DOPC   D2A27893  19.093   0.038  11.421 -0.1911 -0.1637 -0.1463
 2377DOPC   C3A27894  18.969  -0.023  11.878  0.0820  0.1150  0.0894
 2377DOPC   C4A27895  18.593  -0.218  12.067 -0.0542  0.1157  0.2010
 2377DOPC   C1B27896  18.783   0.491  11.330  0.0390 -0.1218 -0.0984
 2377DOPC   D2B27897  18.961   0.553  11.792 -0.3466 -0.1202 -0.0740
 2377DOPC   C3B27898  18.748   0.673  12.209  0.2150  0.0484  0.0423
 2377DOPC   C4B27899  18.426   0.673  12.612 -0.3240 -0.0415 -0.1223
 2378DOPE   NH327900  13.027  28.814   9.411  0.2344 -0.1632 -0.1672
 2378DOPE   PO427901  13.226  28.948   9.665  0.4541  0.0468 -0.2812
 2378DOPE   GL127902  13.379  28.685  10.012  0.4438 -0.3324  0.3624
 2378DOPE   GL227903  13.655  28.698   9.992  0.1342 -0.0130  0.2696
 2378DOPE   C1A27904  13.446  28.310  10.258  0.0068 -0.3425  0.0960
 2378DOPE   D2A27905  13.650  27.968  10.421  0.2240  0.4744 -0.0880
 2378DOPE   C3A27906  13.415  28.018  10.837  0.2582 -0.0383  0.0049
 2378DOPE   C4A27907  13.257  27.816  11.212  0.0418  0.3143  0.1903
 2378DOPE   C1B27908  13.503  28.939  10.373  0.0892 -0.0117  0.1020
 2378DOPE   D2B27909  13.137  29.106  10.617  0.0967  0.0875  0.1344
 2378DOPE   C3B27910  12.951  28.952  10.991  0.1703  0.0683  0.0443
 2378DOPE   C4B27911  12.776  28.844  11.405 -0.0965  0.5037  0.1078
 2379DOPE   NH327912  12.668  33.164  10.378  0.0324  0.1531  0.0932
 2379DOPE   PO427913  12.746  32.935  10.590  0.2134 -0.0443 -0.1924
 2379DOPE   GL127914  12.867  32.835  10.917  0.0369 -0.0394 -0.2404
 2379DOPE   GL227915  12.920  33.011  11.133 -0.2477 -0.1944  0.0583
 2379DOPE   C1A27916  13.283  32.731  11.060 -0.0264 -0.1601  0.1860
 2379DOPE   D2A27917  13.705  32.966  11.180 -0.0131 -0.1420  0.5244
 2379DOPE   C3A27918  13.812  32.866  11.610  0.1776  0.0941 -0.1424
 2379DOPE   C4A27919  13.960  32.590  11.904 -0.5715 -0.1961 -0.0305
 2379DOPE   C1B27920  12.964  32.823  11.544  0.0604 -0.0648 -0.1900
 2379DOPE   D2B27921  13.215  32.653  11.845  0.0919  0.0350 -0.3693
 2379DOPE   C3B27922  13.065  32.423  12.254  0.2084  0.0711  0.1723
 2379DOPE   C4B27923  12.669  32.312  12.389  0.1165 -0.1095 -0.1537
 2380DOPC   NC327924  11.840  26.127   9.253 -0.0772 -0.1665 -0.0832
 2380DOPC   PO427925  11.845  26.441   9.467 -0.3417  0.1640 -0.0039
 2380DOPC   GL127926  11.878  26.535   9.908  0.3191  0.0035  0.3534
 2380DOPC   GL227927  11.538  26.520  10.023 -0.0228  0.1265  0.2558
 2380DOPC   C1A27928  11.850  26.451  10.380 -0.0824  0.0994  0.1446
 2380DOPC   D2A27929  11.784  26.434  10.821 -0.2370  0.0794 -0.1646
 2380DOPC   C3A27930  11.591  26.050  10.941  0.4616 -0.1492  0.3945
 2380DOPC   C4A27931  11.782  25.630  10.793 -0.3576 -0.2114 -0.2973
 2380DOPC   C1B27932  11.589  26.857  10.350 -0.0397 -0.0259 -0.3203
 2380DOPC   D2B27933  11.493  26.875  10.791 -0.0018  0.2676 -0.1914
 2380DOPC   C3B27934  11.534  27.250  11.084 -0.3224  0.1282 -0.0130
 2380DOPC   C4B27935  11.797  27.526  11.302  0.2204 -0.0406 -0.1570
 2381DOPE   NH327936  19.167  29.386  10.324  0.1138 -0.2513 -0.3160
 2381DOPE   PO427937  18.931  29.374  10.504  0.2473  0.2351 -0.1124
 2381DOPE   GL127938  18.963  29.082  10.725 -0.1047  0.4350 -0.1205
 2381DOPE   GL227939  18.697  29.086  10.875  0.1777 -0.3483  0.0985
 2381DOPE   C1A27940  19.087  29.059  11.147  0.0671  0.3402  0.0254
 2381DOPE   D2A27941  19.035  29.338  11.526  0.4829  0.2494 -0.0345
 2381DOPE   C3A27942  19.270  29.461  11.857 -0.1531  0.1849 -0.0003
 2381DOPE   C4A27943  19.266  29.775  12.231  0.1386 -0.1083  0.3619
 2381DOPE   C1B27944  18.579  29.239  11.283 -0.5108 -0.1250  0.0881
 2381DOPE   D2B27945  18.423  29.053  11.686  0.0044  0.0013  0.1107
 2381DOPE   C3B27946  18.874  29.036  11.912  0.1547  0.1952 -0.1762
 2381DOPE   C4B27947  19.140  29.037  12.258  0.2453  0.2246  0.1556
 2382DOPS   CNO27948  16.689  34.321  10.181  0.3037  0.1130  0.0978
 2382DOPS   PO427949  16.518  34.626  10.330 -0.0496 -0.0401  0.0884
 2382DOPS   GL127950  16.706  34.617  10.634  0.4627 -0.1784  0.1656
 2382DOPS   GL227951  16.559  34.822  10.873 -0.1599 -0.0450  0.0201
 2382DOPS   C1A27952  17.044  34.467  10.933  0.3755  0.0228 -0.1301
 2382DOPS   D2A27953  17.138  34.244  11.359 -0.1152 -0.0356 -0.0171
 2382DOPS   C3A27954  17.178  34.439  11.774  0.1363 -0.1259 -0.0497
 2382DOPS   C4A27955  16.964  34.643  12.125 -0.0293  0.5764 -0.2021
 2382DOPS   C1B27956  17.003  34.901  11.108  0.1359 -0.1492  0.0280
 2382DOPS   D2B27957  17.270  35.278  11.333 -0.0810 -0.0551  0.2008
 2382DOPS   C3B27958  17.520  35.048  11.632 -0.2843 -0.1238 -0.0809
 2382DOPS   C4B27959  17.539  34.763  12.054  0.0393  0.0079  0.0979
 2383DOPC   NC327960  14.300  33.560  10.080 -0.3361  0.0932 -0.2118
 2383DOPC   PO427961  14.607  33.554  10.302  0.1173  0.1457 -0.2036
 2383DOPC   GL127962  14.806  33.585  10.712 -0.1835 -0.1446  0.1021
 2383DOPC   GL227963  14.782  33.865  10.729 -0.0873  0.0563 -0.3154
 2383DOPC   C1A27964  14.592  33.662  11.126  0.1792  0.1851 -0.0577
 2383DOPC   D2A27965  14.397  33.323  11.311  0.0041 -0.1257 -0.0250
 2383DOPC   C3A27966  13.942  33.354  11.479 -0.0284 -0.2078 -0.0032
 2383DOPC   C4A27967  13.686  33.395  11.838  0.1579  0.2350  0.0034
 2383DOPC   C1B27968  15.076  33.776  11.070  0.0553 -0.2900  0.3641
 2383DOPC   D2B27969  15.551  33.838  11.138 -0.0053 -0.1766 -0.1745
 2383DOPC   C3B27970  15.725  34.247  11.313 -0.1019 -0.0538 -0.0052
 2383DOPC   C4B27971  15.521  34.629  11.118 -0.3535 -0.2180  0.0581
 2384POSM   NC327972  18.683  33.638  10.229  0.1534 -0.2841 -0.1022
 2384POSM   PO427973  18.590  34.008  10.282 -0.1665 -0.4041 -0.2622
 2384POSM   AM127974  18.662  33.902  10.587 -0.1705 -0.3708 -0.1823
 2384POSM   AM227975  18.619  33.693  10.725  0.2502 -0.0315 -0.1983
 2384POSM   T1A27976  19.004  33.930  10.936  0.1123 -0.3672  0.1200
 2384POSM   C2A27977  19.017  33.891  11.446 -0.3289 -0.2574  0.1974
 2384POSM   C3A27978  18.960  34.190  11.774 -0.0504 -0.4103 -0.0412
 2384POSM   C1B27979  18.715  33.545  11.001  0.1020  0.1615  0.2071
 2384POSM   D2B27980  19.115  33.384  11.210  0.3346 -0.1317 -0.0059
 2384POSM   C3B27981  19.222  33.503  11.615 -0.0756 -0.0785 -0.2118
 2384POSM   C4B27982  19.443  33.767  11.878  0.0370 -0.0768 -0.0723
 2385DOPC   NC327983  12.458  28.114   9.663  0.0561 -0.2050 -0.0591
 2385DOPC   PO427984  12.145  27.869   9.632  0.2334 -0.0030 -0.1960
 2385DOPC   GL127985  12.259  27.868  10.060 -0.0857  0.0356  0.0961
 2385DOPC   GL227986  12.487  27.674   9.964 -0.1689  0.1168 -0.0458
 2385DOPC   C1A27987  12.016  28.235  10.254 -0.2139 -0.6647 -0.0227
 2385DOPC   D2A27988  12.040  28.563  10.648  0.0750 -0.2314 -0.0922
 2385DOPC   C3A27989  11.927  28.622  11.122  0.4109 -0.1535 -0.0093
 2385DOPC   C4A27990  11.789  28.445  11.587 -0.0370  0.0288  0.0289
 2385DOPC   C1B27991  12.716  28.055  10.140  0.2901  0.1717 -0.3543
 2385DOPC   D2B27992  12.882  28.254  10.517  0.2273 -0.0716  0.0639
 2385DOPC   C3B27993  12.703  28.623  10.751  0.0604 -0.0720  0.2188
 2385DOPC   C4B27994  12.414  28.845  11.034 -0.2394  0.1302 -0.2405
 2386POSM   NC327995  14.361  31.106   9.718 -0.0992  0.0951 -0.0387
 2386POSM   PO427996  14.340  31.322  10.057 -0.2974 -0.1634 -0.2559
 2386POSM   AM127997  14.341  31.338  10.370  0.0725 -0.4110 -0.1629
 2386POSM   AM227998  14.318  31.223  10.636  0.2329 -0.0095 -0.1811
 2386POSM   T1A27999  14.286  31.699  10.722 -0.2438  0.2069  0.1003
 2386POSM   C2A28000  14.200  31.668  11.151 -0.1784  0.1277 -0.0512
 2386POSM   C3A28001  14.408  31.784  11.567 -0.0907  0.2334 -0.1205
 2386POSM   C1B28002  14.119  31.241  10.898 -0.1602  0.2446  0.1219
 2386POSM   D2B28003  13.938  31.208  11.358 -0.0157  0.1193 -0.2710
 2386POSM   C3B28004  13.987  30.785  11.515  0.0680 -0.3009  0.2348
 2386POSM   C4B28005  14.306  30.529  11.773 -0.1901 -0.2050  0.2587
 2387DOPE   NH328006  15.167  27.402  10.160 -0.0009 -0.2074 -0.2221
 2387DOPE   PO428007  14.908  27.604  10.135 -0.1868  0.4204  0.0579
 2387DOPE   GL128008  14.775  27.634  10.466  0.0664  0.3901 -0.0847
 2387DOPE   GL228009  14.537  27.706  10.510  0.1178 -0.1282 -0.1287
 2387DOPE   C1A28010  14.755  27.716  10.922 -0.2496 -0.0256 -0.2972
 2387DOPE   D2A28011  14.681  27.711  11.353 -0.3292 -0.2048 -0.1233
 2387DOPE   C3A28012  14.444  27.319  11.398  0.1198 -0.0235  0.0824
 2387DOPE   C4A28013  14.218  26.875  11.320  0.2567 -0.0043  0.1284
 2387DOPE   C1B28014  14.257  27.826  10.913  0.2598 -0.2480  0.4116
 2387DOPE   D2B28015  14.057  27.773  11.344  0.0555 -0.0011  0.1344
 2387DOPE   C3B28016  13.653  27.739  11.522  0.1168 -0.1074 -0.0686
 2387DOPE   C4B28017  13.448  27.490  11.828  0.1634 -0.2765 -0.0943
 2388DOPE   NH328018  20.184  29.557  10.489 -0.2322 -0.1070  0.2050
 2388DOPE   PO428019  19.992  29.809  10.434 -0.4199 -0.0471 -0.0080
 2388DOPE   GL128020  19.895  29.888  10.785  0.2293 -0.0690  0.2156
 2388DOPE   GL228021  20.072  29.792  10.969  0.1294  0.0476  0.1398
 2388DOPE   C1A28022  19.818  30.253  11.059 -0.2724 -0.0014  0.0484
 2388DOPE   D2A28023  19.955  30.471  11.463  0.0546 -0.1993  0.3307
 2388DOPE   C3A28024  19.839  30.344  11.866 -0.1680 -0.0080 -0.3005
 2388DOPE   C4A28025  19.993  30.316  12.286 -0.4753 -0.0607  0.1144
 2388DOPE   C1B28026  20.389  29.744  11.308  0.1568 -0.0560 -0.2140
 2388DOPE   D2B28027  20.573  29.629  11.674 -0.1704 -0.0512  0.1142
 2388DOPE   C3B28028  20.460  29.415  12.012 -0.1190 -0.1289  0.1512
 2388DOPE   C4B28029  20.172  29.320  12.373 -0.0689 -0.0546 -0.0319
 2389DOPS   CNO28030  20.788  20.602  10.002 -0.1730 -0.2204 -0.0920
 2389DOPS   PO428031  20.694  20.942  10.113 -0.0979 -0.0381 -0.2870
 2389DOPS   GL128032  20.461  21.064  10.530  0.0384 -0.5276 -0.3318
 2389DOPS   GL228033  20.736  21.135  10.732  0.0448  0.5284  0.2621
 2389DOPS   C1A28034  20.353  20.828  10.892 -0.2372  0.1303  0.1249
 2389DOPS   D2A28035  20.626  20.613  11.138  0.1126  0.0970 -0.2164
 2389DOPS   C3A28036  20.957  20.876  11.404  0.0399 -0.1426  0.0683
 2389DOPS   C4A28037  21.416  21.090  11.305 -0.1063 -0.0216  0.3407
 2389DOPS   C1B28038  20.618  21.186  11.195 -0.1285  0.1453 -0.1387
 2389DOPS   D2B28039  20.530  21.278  11.639  0.1694 -0.0607 -0.0406
 2389DOPS   C3B28040  20.103  21.173  11.782  0.1481  0.4092 -0.1036
 2389DOPS   C4B28041  19.691  21.314  12.001 -0.0160  0.2174 -0.0878
 2390DOPE   NH328042  12.134  24.025   9.829  0.1201  0.2627 -0.3091
 2390DOPE   PO428043  12.205  23.718   9.885 -0.0857 -0.0778  0.0879
 2390DOPE   GL128044  12.116  23.608  10.169 -0.0595 -0.3459  0.1898
 2390DOPE   GL228045  12.174  23.327  10.203  0.2381  0.2382  0.0239
 2390DOPE   C1A28046  12.447  23.700  10.507  0.0965 -0.0499 -0.0952
 2390DOPE   D2A28047  12.663  23.732  10.911 -0.1496  0.0151 -0.1841
 2390DOPE   C3A28048  12.679  24.128  11.115 -0.1056 -0.1014 -0.1770
 2390DOPE   C4A28049  12.900  24.533  11.262  0.1522  0.2109  0.0106
 2390DOPE   C1B28050  12.076  23.016  10.542  0.0214 -0.1540 -0.1908
 2390DOPE   D2B28051  11.975  22.881  10.978  0.0316 -0.2205  0.0679
 2390DOPE   C3B28052  11.550  22.794  11.134 -0.1336  0.1777 -0.2418
 2390DOPE   C4B28053  11.166  22.567  11.167 -0.0096  0.4200  0.3111
 2391DOPE   NH328054  19.836  24.538  10.513 -0.1208 -0.2345  0.0604
 2391DOPE   PO428055  19.624  24.314  10.419  0.1698 -0.0618  0.3033
 2391DOPE   GL128056  19.426  24.497  10.777 -0.0585 -0.1809 -0.2644
 2391DOPE   GL228057  19.442  24.755  10.847 -0.1685 -0.0337 -0.1081
 2391DOPE   C1A28058  19.307  24.187  11.123  0.0294  0.0116  0.0425
 2391DOPE   D2A28059  19.200  24.349  11.544 -0.2454 -0.0485 -0.0039
 2391DOPE   C3A28060  19.370  24.128  11.873 -0.0686  0.3113  0.3442
 2391DOPE   C4A28061  19.597  24.219  12.258  0.1868 -0.1627 -0.0125
 2391DOPE   C1B28062  19.493  24.730  11.321 -0.0156  0.2962  0.0468
 2391DOPE   D2B28063  19.439  24.775  11.800 -0.0676 -0.0393 -0.2421
 2391DOPE   C3B28064  19.264  24.635  12.250  0.2194 -0.1239 -0.0076
 2391DOPE   C4B28065  19.236  24.329  12.594 -0.0802  0.2303 -0.1947
 2392POSM   NC328066  20.479  33.450   9.870  0.0801  0.1010  0.0640
 2392POSM   PO428067  20.714  33.759   9.860 -0.0181  0.0755 -0.1626
 2392POSM   AM128068  20.543  33.855  10.136  0.1379 -0.2184 -0.0711
 2392POSM   AM228069  20.256  33.833  10.179 -0.0759 -0.3630 -0.0805
 2392POSM   T1A28070  20.609  33.845  10.625  0.0013  0.0608  0.2956
 2392POSM   C2A28071  20.553  33.540  11.010  0.0126  0.0123 -0.1161
 2392POSM   C3A28072  20.643  33.186  11.282 -0.0278 -0.1592 -0.2986
 2392POSM   C1B28073  20.157  33.760  10.480 -0.1353 -0.0427 -0.1562
 2392POSM   D2B28074  20.070  33.746  10.965  0.0963 -0.0100 -0.0657
 2392POSM   C3B28075  20.297  33.673  11.378 -0.0589  0.1357  0.1395
 2392POSM   C4B28076  20.586  33.632  11.671  0.1535  0.0296 -0.0938
 2393DOPC   NC328077  21.526  33.155  10.710  0.0941  0.1749  0.0382
 2393DOPC   PO428078  21.408  33.442  10.434  0.2203  0.1491  0.0136
 2393DOPC   GL128079  21.248  33.488  10.832  0.0754  0.1685 -0.1130
 2393DOPC   GL228080  20.977  33.355  10.732  0.1433 -0.0719 -0.1689
 2393DOPC   C1A28081  21.445  33.341  11.228  0.2679 -0.0360 -0.3969
 2393DOPC   D2A28082  21.458  33.459  11.659 -0.0949  0.2588  0.1636
 2393DOPC   C3A28083  21.059  33.636  11.821  0.1340  0.2970 -0.1033
 2393DOPC   C4A28084  20.824  34.046  11.953 -0.1161  0.1180 -0.0932
 2393DOPC   C1B28085  21.140  33.037  11.007 -0.2030  0.0126 -0.1053
 2393DOPC   D2B28086  21.414  32.819  11.195  0.0249 -0.0062  0.0037
 2393DOPC   C3B28087  21.555  32.959  11.587  0.2859 -0.1341 -0.1126
 2393DOPC   C4B28088  21.317  32.864  12.015  0.0452 -0.0525  0.1971
 2394DOPC   NC328089  16.663  23.882  10.707 -0.0584 -0.1701 -0.0318
 2394DOPC   PO428090  16.533  24.245  10.717 -0.3526 -0.0896  0.1277
 2394DOPC   GL128091  16.437  24.021  11.094 -0.4082 -0.1695 -0.1435
 2394DOPC   GL228092  16.758  23.950  11.261  0.1559 -0.5074 -0.1310
 2394DOPC   C1A28093  16.415  23.777  11.509 -0.3236  0.0199 -0.0214
 2394DOPC   D2A28094  16.367  23.963  11.858 -0.1758 -0.0359 -0.4482
 2394DOPC   C3A28095  16.516  23.813  12.252  0.0075 -0.2681  0.3196
 2394DOPC   C4A28096  16.686  24.123  12.561  0.3484  0.1616  0.1792
 2394DOPC   C1B28097  16.764  23.486  11.289  0.0223  0.1742  0.1821
 2394DOPC   D2B28098  16.500  23.284  11.624  0.4355 -0.0503  0.1366
 2394DOPC   C3B28099  16.245  23.457  11.981 -0.3855 -0.1917  0.2539
 2394DOPC   C4B28100  16.205  23.408  12.421 -0.4106 -0.0989 -0.0228
 2395DOPE   NH328101  17.276  25.324  10.984 -0.0203 -0.1551  0.0793
 2395DOPE   PO428102  17.018  25.525  10.896  0.1820  0.2807  0.0486
 2395DOPE   GL128103  17.016  25.576  11.343 -0.0312 -0.0304  0.2784
 2395DOPE   GL228104  17.286  25.471  11.470 -0.0691 -0.0318 -0.4189
 2395DOPE   C1A28105  16.745  25.392  11.668 -0.1012  0.2109  0.3227
 2395DOPE   D2A28106  16.506  25.261  12.070  0.1623 -0.1299  0.0374
 2395DOPE   C3A28107  16.600  24.953  12.466 -0.0403  0.2282 -0.4539
 2395DOPE   C4A28108  16.820  24.680  12.744 -0.0387  0.2076  0.1502
 2395DOPE   C1B28109  17.114  25.742  11.768  0.1927 -0.0679 -0.1456
 2395DOPE   D2B28110  17.090  25.957  12.220  0.1675 -0.4377  0.0475
 2395DOPE   C3B28111  16.697  25.987  12.465  0.1601  0.0105  0.0691
 2395DOPE   C4B28112  16.472  26.231  12.778 -0.0386 -0.4311 -0.0726
 2396DOPE   NH328113  18.032  25.949  11.228 -0.4189 -0.2200  0.1615
 2396DOPE   PO428114  18.260  25.792  11.069  0.0236 -0.1246  0.0800
 2396DOPE   GL128115  18.560  25.912  11.471  0.0202 -0.2660  0.4455
 2396DOPE   GL228116  18.463  26.173  11.410 -0.1332  0.0256 -0.0616
 2396DOPE   C1A28117  18.947  25.941  11.758  0.2105  0.3093  0.0433
 2396DOPE   D2A28118  19.034  25.763  12.199  0.0032 -0.0806  0.2174
 2396DOPE   C3A28119  19.389  25.557  12.418 -0.3347  0.3081 -0.2600
 2396DOPE   C4A28120  19.465  25.198  12.712 -0.0357 -0.0246 -0.3266
 2396DOPE   C1B28121  18.502  26.172  11.906  0.1188 -0.0619 -0.0758
 2396DOPE   D2B28122  18.827  26.249  12.164  0.1615 -0.0619  0.0607
 2396DOPE   C3B28123  18.652  25.974  12.539  0.0191 -0.2048  0.1201
 2396DOPE   C4B28124  18.441  25.702  12.823 -0.1933 -0.2044 -0.3179
 2397POSM   NC328125  19.256  25.264  10.542  0.0168  0.0798  0.0575
 2397POSM   PO428126  18.956  25.085  10.744  0.1239  0.3196  0.0667
 2397POSM   AM128127  19.085  24.985  11.044  0.3360  0.4105  0.1886
 2397POSM   AM228128  19.170  25.151  11.272  0.0990 -0.0905 -0.1220
 2397POSM   T1A28129  18.946  24.772  11.481 -0.0320 -0.1906 -0.0224
 2397POSM   C2A28130  18.974  24.891  11.926  0.3267 -0.0804  0.2401
 2397POSM   C3A28131  19.294  25.143  12.137 -0.0138  0.0291  0.2549
 2397POSM   C1B28132  19.360  25.162  11.515 -0.1774 -0.0336  0.2663
 2397POSM   D2B28133  19.734  25.267  11.803 -0.0127 -0.1103 -0.1480
 2397POSM   C3B28134  19.766  25.086  12.252 -0.0191  0.0220  0.0651
 2397POSM   C4B28135  19.650  24.751  12.577 -0.1464  0.1676  0.1085
 2398POSM   NC328136  20.609  26.904  10.413  0.2378  0.2254 -0.1809
 2398POSM   PO428137  20.866  27.012  10.736 -0.0257  0.0916  0.2651
 2398POSM   AM128138  20.841  26.864  11.070  0.1708  0.2396 -0.0288
 2398POSM   AM228139  20.744  26.613  11.141 -0.0068 -0.0194 -0.2719
 2398POSM   T1A28140  20.883  27.039  11.549 -0.1222  0.1882 -0.1523
 2398POSM   C2A28141  20.812  27.019  11.999  0.1236  0.3890  0.0692
 2398POSM   C3A28142  20.701  26.918  12.433  0.1991  0.1486 -0.0014
 2398POSM   C1B28143  20.792  26.588  11.471  0.0448  0.1747 -0.0755
 2398POSM   D2B28144  20.599  26.597  11.899 -0.2901 -0.0542 -0.0644
 2398POSM   C3B28145  20.296  26.942  12.074  0.2270 -0.0101  0.0060
 2398POSM   C4B28146  20.207  27.226  12.420  0.0893  0.3630 -0.1115
 2399POSM   NC328147  10.600  27.132   9.108 -0.0058 -0.0984  0.0178
 2399POSM   PO428148  10.931  27.290   9.235  0.1100 -0.1099 -0.1858
 2399POSM   AM128149  10.902  27.511   9.481  0.2548  0.3265 -0.1002
 2399POSM   AM228150  10.795  27.741   9.537  0.0336  0.3448 -0.1515
 2399POSM   T1A28151  10.974  27.537   9.965  0.3555  0.2161 -0.1342
 2399POSM   C2A28152  10.943  27.608  10.422  0.0257  0.1714  0.0721
 2399POSM   C3A28153  10.886  27.881  10.834  0.1990 -0.1576  0.0467
 2399POSM   C1B28154  10.702  27.956   9.810  0.1990 -0.2280 -0.1123
 2399POSM   D2B28155  10.566  28.256  10.174  0.1829  0.1394  0.0219
 2399POSM   C3B28156  10.633  28.326  10.614  0.3290 -0.0104  0.0831
 2399POSM   C4B28157  10.567  28.604  10.984 -0.2808 -0.1943  0.2932
 2400POSM   NC328158  22.189  26.553  10.347 -0.1057  0.2631  0.1079
 2400POSM   PO428159  22.454  26.855  10.340 -0.1775 -0.0449 -0.0237
 2400POSM   AM128160  22.557  26.947  10.659 -0.1633 -0.0706  0.0682
 2400POSM   AM228161  22.792  27.068  10.725  0.0193  0.4284  0.2037
 2400POSM   T1A28162  22.383  27.142  11.120 -0.2194 -0.0521 -0.1002
 2400POSM   C2A28163  22.405  27.123  11.609  0.3219  0.0616  0.0305
 2400POSM   C3A28164  22.347  26.985  12.059 -0.0362 -0.1266 -0.3765
 2400POSM   C1B28165  22.901  27.196  10.990 -0.0753  0.1335  0.0204
 2400POSM   D2B28166  22.906  27.147  11.423  0.0732  0.0822 -0.1381
 2400POSM   C3B28167  23.119  27.257  11.812  0.3230 -0.0086  0.0083
 2400POSM   C4B28168  23.465  27.346  12.098 -0.2122 -0.2593 -0.0005
 2401DOPC   NC328169  17.303  30.212  10.861  0.2309  0.0043  0.0697
 2401DOPC   PO428170  17.087  30.568  10.764 -0.0118  0.0378 -0.0156
 2401DOPC   GL128171  16.833  30.586  11.085 -0.4020 -0.2380  0.0441
 2401DOPC   GL228172  16.779  30.287  11.187 -0.1931 -0.1401 -0.1022
 2401DOPC   C1A28173  16.432  30.607  11.362 -0.2615 -0.3272 -0.2230
 2401DOPC   D2A28174  16.177  30.432  11.708  0.2012  0.1109 -0.3620
 2401DOPC   C3A28175  16.244  30.601  12.089  0.0073 -0.0568 -0.1114
 2401DOPC   C4A28176  15.996  30.736  12.485  0.0171 -0.1407  0.0512
 2401DOPC   C1B28177  17.087  30.092  11.524  0.0224  0.2290  0.2670
 2401DOPC   D2B28178  17.202  30.085  11.949  0.1679  0.1040  0.0242
 2401DOPC   C3B28179  17.364  29.797  12.304  0.0319  0.0587 -0.2609
 2401DOPC   C4B28180  17.234  29.444  12.533 -0.1186  0.2242 -0.0128
 2402DOPC   NC328181  19.836  25.517  11.335  0.3409  0.0838  0.3529
 2402DOPC   PO428182  19.842  25.662  10.999  0.1814  0.0748 -0.0098
 2402DOPC   GL128183  19.551  25.873  11.273  0.0823 -0.2554 -0.1796
 2402DOPC   GL228184  19.374  25.658  11.372  0.4881  0.0676  0.1468
 2402DOPC   C1A28185  19.517  26.037  11.726  0.2361 -0.2147 -0.0221
 2402DOPC   D2A28186  19.835  25.921  12.060  0.2132 -0.2102  0.1876
 2402DOPC   C3A28187  20.236  26.121  12.285 -0.1373 -0.3907  0.0547
 2402DOPC   C4A28188  20.517  26.454  12.422  0.0669 -0.0974 -0.0240
 2402DOPC   C1B28189  19.270  25.569  11.769 -0.2336  0.3561 -0.1568
 2402DOPC   D2B28190  18.902  25.370  11.894  0.0879 -0.1864  0.2509
 2402DOPC   C3B28191  18.501  25.170  11.990  0.0264 -0.2847 -0.0456
 2402DOPC   C4B28192  18.394  24.823  12.215 -0.4073  0.0891 -0.1563
 2403DOPE   NH328193  20.052  30.223  10.147  0.1575  0.1643  0.0684
 2403DOPE   PO428194  20.295  30.297  10.279 -0.1024 -0.0550  0.0289
 2403DOPE   GL128195  19.995  30.428  10.550  0.0231  0.0524  0.0945
 2403DOPE   GL228196  20.200  30.326  10.771  0.0097  0.1610 -0.1857
 2403DOPE   C1A28197  19.643  30.681  10.801  0.0263  0.0177 -0.0793
 2403DOPE   D2A28198  19.311  30.580  11.134 -0.2185  0.1434 -0.1891
 2403DOPE   C3A28199  19.423  30.253  11.498  0.0451 -0.4350  0.1477
 2403DOPE   C4A28200  19.577  29.892  11.761 -0.1388 -0.0909 -0.1090
 2403DOPE   C1B28201  20.343  30.247  11.170 -0.0269 -0.1943  0.3328
 2403DOPE   D2B28202  20.348  30.153  11.606 -0.1367  0.3384 -0.3913
 2403DOPE   C3B28203  20.394  30.405  11.989  0.0023  0.0165 -0.0486
 2403DOPE   C4B28204  20.650  30.236  12.387 -0.0966 -0.2076  0.1347
 2404DOPC   NC328205  21.078  29.167  10.162  0.1962 -0.0755  0.0022
 2404DOPC   PO428206  21.361  29.274  10.397  0.2082  0.1670  0.1802
 2404DOPC   GL128207  21.308  29.521  10.672  0.0948 -0.2507 -0.3279
 2404DOPC   GL228208  21.341  29.398  10.927  0.2690 -0.0963 -0.0339
 2404DOPC   C1A28209  20.922  29.760  10.764 -0.2291  0.0808 -0.1338
 2404DOPC   D2A28210  20.744  30.028  11.012  0.0391  0.1887  0.0018
 2404DOPC   C3A28211  20.820  30.005  11.422  0.0788  0.1632 -0.0294
 2404DOPC   C4A28212  20.839  30.150  11.845 -0.2146  0.0067 -0.5562
 2404DOPC   C1B28213  21.104  29.445  11.320  0.0003  0.0851  0.1028
 2404DOPC   D2B28214  21.012  29.669  11.773  0.0917 -0.3092  0.0448
 2404DOPC   C3B28215  20.954  29.309  12.075  0.1150  0.0165  0.1245
 2404DOPC   C4B28216  20.736  28.941  12.177 -0.4203 -0.0548 -0.1946
 2405DOPC   NC328217  17.541   0.168  10.271  0.3093 -0.1142  0.1753
 2405DOPC   PO428218  17.609   0.526  10.438  0.2214 -0.3071 -0.0630
 2405DOPC   GL128219  17.676   0.311  10.753 -0.0520 -0.0499 -0.4056
 2405DOPC   GL228220  17.452   0.370  10.943  0.2519 -0.1296  0.1580
 2405DOPC   C1A28221  17.901   0.244  11.137  0.2924  0.0409 -0.0097
 2405DOPC   D2A28222  18.092   0.258  11.558 -0.0258  0.0654  0.0905
 2405DOPC   C3A28223  17.879   0.404  11.937 -0.0167 -0.0644  0.5161
 2405DOPC   C4A28224  17.546   0.628  12.191 -0.2632 -0.1715 -0.2856
 2405DOPC   C1B28225  17.415   0.054  11.291 -0.0641  0.2033 -0.1068
 2405DOPC   D2B28226  17.711  -0.091  11.625 -0.2801  0.1913 -0.1830
 2405DOPC   C3B28227  17.671  -0.406  11.950  0.3062 -0.1948 -0.4216
 2405DOPC   C4B28228  17.450  -0.539  12.370  0.1231 -0.1153  0.0804
 2406DOPS   CNO28229  18.295   2.747  10.095 -0.1045  0.0460 -0.1750
 2406DOPS   PO428230  18.267   2.859  10.459 -0.1058  0.1493  0.1030
 2406DOPS   GL128231  18.316   2.908  10.816 -0.2023 -0.2517  0.2794
 2406DOPS   GL228232  18.503   2.728  10.910 -0.0946  0.2578 -0.0642
 2406DOPS   C1A28233  17.980   2.818  11.123  0.0162  0.1999 -0.0682
 2406DOPS   D2A28234  17.685   2.785  11.491  0.0722  0.1045 -0.2699
 2406DOPS   C3A28235  17.288   2.611  11.530  0.0154  0.0474  0.0136
 2406DOPS   C4A28236  16.834   2.623  11.498 -0.1825  0.0262 -0.0134
 2406DOPS   C1B28237  18.391   2.548  11.306 -0.5469 -0.0819 -0.1265
 2406DOPS   D2B28238  18.119   2.338  11.627  0.2321 -0.1413 -0.0530
 2406DOPS   C3B28239  18.229   2.265  12.034  0.0514  0.0763  0.3221
 2406DOPS   C4B28240  17.997   2.060  12.396 -0.1328 -0.2376 -0.0737
 2407POSM   NC328241  21.263  26.834  10.520  0.1856 -0.0057 -0.0644
 2407POSM   PO428242  21.389  27.159  10.665 -0.0663  0.0429  0.3545
 2407POSM   AM128243  21.593  27.086  10.974 -0.0711 -0.0986 -0.2418
 2407POSM   AM228244  21.694  26.835  11.058 -0.1739 -0.1010 -0.0746
 2407POSM   T1A28245  21.776  27.227  11.420 -0.0572  0.0808 -0.0309
 2407POSM   C2A28246  22.063  27.439  11.752 -0.2581  0.0628 -0.0860
 2407POSM   C3A28247  22.222  27.465  12.202  0.2519 -0.1242 -0.3312
 2407POSM   C1B28248  21.569  26.777  11.325  0.0592 -0.0978  0.1265
 2407POSM   D2B28249  21.342  26.870  11.738 -0.3001  0.0601 -0.0063
 2407POSM   C3B28250  21.251  27.245  11.865 -0.2581 -0.3536  0.3998
 2407POSM   C4B28251  21.075  27.484  12.192 -0.0279  0.0593  0.1811
 2408DOPS   CNO28252  18.740  32.938  10.278 -0.0226  0.0460  0.0298
 2408DOPS   PO428253  18.612  33.238  10.489  0.0693  0.1170 -0.1286
 2408DOPS   GL128254  18.605  33.107  10.912  0.1877  0.1817  0.1806
 2408DOPS   GL228255  18.259  33.093  10.878  0.0207 -0.2451 -0.2962
 2408DOPS   C1A28256  18.841  32.970  11.322 -0.3132 -0.3220  0.0516
 2408DOPS   D2A28257  19.011  33.071  11.678  0.1416 -0.1883 -0.0903
 2408DOPS   C3A28258  18.989  33.401  12.025  0.1417 -0.2705  0.0521
 2408DOPS   C4A28259  18.920  33.805  12.152  0.0318 -0.2467  0.0658
 2408DOPS   C1B28260  18.421  33.188  11.327 -0.0694  0.0516 -0.0412
 2408DOPS   D2B28261  18.676  33.444  11.584  0.1368  0.0642  0.2522
 2408DOPS   C3B28262  18.550  33.845  11.833 -0.3928 -0.2864 -0.1448
 2408DOPS   C4B28263  18.213  34.097  12.060  0.2106 -0.0783 -0.1162
 2409POSM   NC328264  13.255  27.427   9.571 -0.2999 -0.1163  0.0985
 2409POSM   PO428265  13.493  27.065   9.596 -0.2608  0.2611 -0.3305
 2409POSM   AM128266  13.448  27.112   9.906 -0.1643  0.1792 -0.0492
 2409POSM   AM228267  13.278  27.081  10.143  0.1038  0.0739  0.0991
 2409POSM   T1A28268  13.670  27.206  10.383 -0.3232  0.0939 -0.0433
 2409POSM   C2A28269  13.616  27.232  10.889  0.0600  0.0893  0.1889
 2409POSM   C3A28270  13.447  27.350  11.274 -0.0353 -0.4087 -0.0790
 2409POSM   C1B28271  13.180  27.069  10.464  0.0859 -0.2727 -0.2068
 2409POSM   D2B28272  12.874  27.057  10.757 -0.1205 -0.1168  0.0162
 2409POSM   C3B28273  12.648  27.291  11.037  0.0232  0.1394  0.0271
 2409POSM   C4B28274  12.380  27.211  11.393  0.1352 -0.1066  0.2741
 2410DOPC   NC328275  15.372  30.250  10.780  0.1313 -0.0920  0.0139
 2410DOPC   PO428276  15.174  30.273  10.462 -0.1950  0.2406  0.0433
 2410DOPC   GL128277  14.920  30.346  10.674  0.2909  0.2599  0.3195
 2410DOPC   GL228278  14.668  30.518  10.635  0.0785  0.0175  0.2435
 2410DOPC   C1A28279  14.991  30.489  11.125  0.1828 -0.0109 -0.1246
 2410DOPC   D2A28280  14.906  30.442  11.611  0.2307 -0.4107  0.0159
 2410DOPC   C3A28281  15.248  30.193  11.831 -0.1984 -0.0533 -0.1801
 2410DOPC   C4A28282  15.414  29.874  12.087 -0.3777  0.3232  0.0771
 2410DOPC   C1B28283  14.268  30.246  10.807  0.0251 -0.0499 -0.0453
 2410DOPC   D2B28284  14.004  30.100  11.167  0.0538  0.4911  0.2837
 2410DOPC   C3B28285  13.839  30.288  11.535 -0.0113 -0.0786 -0.0293
 2410DOPC   C4B28286  13.836  30.474  11.954  0.0933  0.0928  0.2328
 2411DOPC   NC328287  21.783  30.102  10.103  0.2207 -0.0438  0.2274
 2411DOPC   PO428288  21.436  30.219  10.165 -0.0219  0.0672  0.1149
 2411DOPC   GL128289  21.582  30.091  10.553  0.2094  0.1333 -0.2931
 2411DOPC   GL228290  21.516  30.375  10.626  0.1186 -0.1521 -0.0494
 2411DOPC   C1A28291  21.645  29.788  10.938  0.3238  0.1544  0.1685
 2411DOPC   D2A28292  21.576  29.521  11.360  0.0786  0.1006  0.1230
 2411DOPC   C3A28293  21.828  29.637  11.714  0.3078 -0.2322 -0.1971
 2411DOPC   C4A28294  21.891  30.044  11.943 -0.1788  0.0874  0.1866
 2411DOPC   C1B28295  21.241  30.126  10.853  0.2069 -0.3152 -0.0477
 2411DOPC   D2B28296  21.316  29.907  11.236 -0.0200  0.0514  0.4173
 2411DOPC   C3B28297  21.706  30.077  11.407  0.0160 -0.0786  0.2588
 2411DOPC   C4B28298  21.604  30.450  11.668 -0.1416 -0.0487 -0.0015
 2412DOPC   NC328299  12.862  24.415  10.008  0.0886  0.0224  0.0020
 2412DOPC   PO428300  12.608  24.102  10.010  0.1237  0.1621 -0.1758
 2412DOPC   GL128301  12.342  24.144  10.241  0.6244  0.0379  0.0095
 2412DOPC   GL228302  12.021  24.091  10.291  0.0880 -0.0839  0.0982
 2412DOPC   C1A28303  12.363  24.155  10.736 -0.0252 -0.2310 -0.1268
 2412DOPC   D2A28304  12.185  24.308  11.139  0.0023 -0.3713 -0.1492
 2412DOPC   C3A28305  12.140  24.083  11.490 -0.0998 -0.1888 -0.0726
 2412DOPC   C4A28306  11.833  23.904  11.791 -0.0373 -0.1300  0.1569
 2412DOPC   C1B28307  11.834  24.124  10.767 -0.0025  0.2399 -0.4083
 2412DOPC   D2B28308  11.699  24.201  11.241  0.2500  0.2195  0.1305
 2412DOPC   C3B28309  11.493  24.608  11.241  0.2529  0.1700 -0.0179
 2412DOPC   C4B28310  11.361  25.013  11.356  0.4219 -0.1818  0.0601
 2413POSM   NC328311  21.151  33.844  10.053 -0.1790 -0.1556  0.0153
 2413POSM   PO428312  21.306  34.182  10.025  0.3590 -0.0251 -0.3157
 2413POSM   AM128313  21.256  34.385  10.242 -0.0309 -0.0920 -0.0762
 2413POSM   AM228314  21.425  34.438  10.441 -0.0454 -0.1578 -0.1937
 2413POSM   T1A28315  20.845  34.553  10.490  0.1294  0.2608  0.0538
 2413POSM   C2A28316  20.455  34.666  10.731 -0.2122  0.0536  0.0273
 2413POSM   C3A28317  20.264  34.566  11.094  0.0969 -0.1057 -0.0889
 2413POSM   C1B28318  21.316  34.392  10.763 -0.1562 -0.1020 -0.0111
 2413POSM   D2B28319  21.514  34.115  11.126 -0.2739  0.1019  0.2564
 2413POSM   C3B28320  21.360  33.970  11.513  0.4466 -0.2614 -0.2432
 2413POSM   C4B28321  21.399  34.040  11.951  0.1214  0.1161  0.0617
 2414POSM   NC328322  15.035  26.212  10.415  0.1883  0.1330  0.0472
 2414POSM   PO428323  15.271  26.468  10.200 -0.0436 -0.0250  0.2106
 2414POSM   AM128324  15.339  26.532  10.538 -0.3449 -0.1151 -0.3605
 2414POSM   AM228325  15.239  26.704  10.732 -0.0068 -0.2655 -0.2427
 2414POSM   T1A28326  15.574  26.542  10.988  0.0035 -0.0069 -0.2909
 2414POSM   C2A28327  15.682  26.701  11.432  0.1586 -0.0289  0.0469
 2414POSM   C3A28328  15.588  26.850  11.851  0.0375  0.1309  0.3964
 2414POSM   C1B28329  15.298  26.937  10.990  0.3500 -0.0173  0.1215
 2414POSM   D2B28330  15.386  27.178  11.288 -0.3191 -0.0705 -0.2235
 2414POSM   C3B28331  15.127  27.063  11.631  0.0680  0.1669 -0.2485
 2414POSM   C4B28332  14.682  26.947  11.685  0.0564  0.1280 -0.3861
 2415DOPE   NH328333  18.767  26.502  11.020  0.0459  0.4082  0.0709
 2415DOPE   PO428334  18.569  26.667  10.825 -0.1423  0.0212  0.1437
 2415DOPE   GL128335  18.463  26.845  11.133 -0.0799  0.3828  0.2095
 2415DOPE   GL228336  18.735  26.990  11.206  0.0856  0.1405  0.0807
 2415DOPE   C1A28337  18.258  26.667  11.549  0.0500 -0.2352 -0.4759
 2415DOPE   D2A28338  18.021  26.288  11.690  0.0806  0.1011 -0.0895
 2415DOPE   C3A28339  18.063  25.931  11.998  0.2122  0.0730 -0.2676
 2415DOPE   C4A28340  17.994  25.455  12.090  0.1115  0.3021  0.3657
 2415DOPE   C1B28341  18.732  26.806  11.632  0.0353 -0.3586 -0.0331
 2415DOPE   D2B28342  18.476  26.664  11.991  0.0909  0.0046  0.0157
 2415DOPE   C3B28343  18.417  26.778  12.396 -0.3938 -0.0544 -0.1744
 2415DOPE   C4B28344  18.474  26.924  12.835  0.1054  0.4131 -0.4038
 2416DOPS   CNO28345  22.577  27.694   9.942 -0.1848 -0.0537  0.2641
 2416DOPS   PO428346  22.424  27.872  10.252 -0.0671 -0.1178 -0.0637
 2416DOPS   GL128347  22.428  27.992  10.588  0.2424 -0.2275  0.3163
 2416DOPS   GL228348  22.613  27.769  10.715  0.2766  0.0311  0.1393
 2416DOPS   C1A28349  22.308  28.155  11.015 -0.1313  0.1116 -0.1206
 2416DOPS   D2A28350  22.426  28.186  11.466 -0.0791 -0.2917  0.1193
 2416DOPS   C3A28351  22.430  28.564  11.804 -0.0308  0.0854  0.0356
 2416DOPS   C4A28352  22.094  28.567  12.097  0.0212 -0.0648  0.0320
 2416DOPS   C1B28353  22.297  27.635  11.003  0.2364 -0.1358  0.1961
 2416DOPS   D2B28354  22.402  27.550  11.439 -0.1451  0.1425  0.1205
 2416DOPS   C3B28355  22.749  27.820  11.612 -0.1116 -0.3203 -0.0505
 2416DOPS   C4B28356  22.874  28.290  11.890  0.2478 -0.0281 -0.3949
 2417DOPE   NH328357  23.588   0.845  10.635  0.0903  0.3531  0.0344
 2417DOPE   PO428358  23.726   1.113  10.683  0.0352 -0.0301 -0.2683
 2417DOPE   GL128359  23.856   1.087  11.024  0.3395  0.0859 -0.0201
 2417DOPE   GL228360  24.010   0.907  11.278  0.0694  0.0720 -0.2152
 2417DOPE   C1A28361  24.058   1.385  11.361  0.0437  0.2616  0.2134
 2417DOPE   D2A28362  23.995   1.622  11.753 -0.0491  0.3400 -0.1823
 2417DOPE   C3A28363  24.056   1.575  12.223 -0.2467  0.1402 -0.0274
 2417DOPE   C4A28364  24.189   1.377  12.623  0.0936 -0.0108  0.0832
 2417DOPE   C1B28365  24.129   0.821  11.734 -0.0310 -0.0775 -0.0204
 2417DOPE   D2B28366  24.530   0.686  11.764  0.1602 -0.0416  0.2380
 2417DOPE   C3B28367  24.689   0.984  12.038  0.1626 -0.4053 -0.0566
 2417DOPE   C4B28368  25.050   1.247  11.972 -0.0482  0.1527  0.2611
 2418DOPC   NC328369  13.983  30.216   9.842 -0.1706  0.1524  0.1211
 2418DOPC   PO428370  13.816  30.516  10.011  0.1632 -0.1711 -0.2019
 2418DOPC   GL128371  13.542  30.529  10.328  0.3526  0.1184 -0.1759
 2418DOPC   GL228372  13.307  30.450  10.148 -0.0445 -0.2880 -0.0639
 2418DOPC   C1A28373  13.290  30.537  10.722 -0.1220 -0.1195 -0.1708
 2418DOPC   D2A28374  13.154  30.737  11.114  0.0731 -0.0646  0.2041
 2418DOPC   C3A28375  13.386  31.110  11.362 -0.0248  0.1020  0.0988
 2418DOPC   C4A28376  13.619  31.278  11.736  0.1500  0.1966  0.0402
 2418DOPC   C1B28377  13.304  30.133  10.436  0.2112 -0.0807 -0.2855
 2418DOPC   D2B28378  13.012  29.842  10.561 -0.0155  0.0789  0.3949
 2418DOPC   C3B28379  12.956  29.499  10.851 -0.1038 -0.1243 -0.0802
 2418DOPC   C4B28380  12.709  29.328  11.160  0.0876  0.0508  0.2511
 2419DOPC   NC328381  16.959  26.713  10.774 -0.0767  0.0195  0.1796
 2419DOPC   PO428382  16.595  26.665  10.906 -0.1690 -0.0210  0.3460
 2419DOPC   GL128383  16.554  26.932  11.226 -0.3435  0.2866  0.1078
 2419DOPC   GL228384  16.828  26.955  11.247  0.1845 -0.2455 -0.0940
 2419DOPC   C1A28385  16.409  27.317  11.455 -0.1972  0.0310 -0.0725
 2419DOPC   D2A28386  16.186  27.728  11.657  0.1299  0.0070  0.0206
 2419DOPC   C3A28387  16.385  27.900  12.076  0.0382 -0.1115 -0.2719
 2419DOPC   C4A28388  16.684  28.104  12.357  0.3173  0.0975  0.2396
 2419DOPC   C1B28389  17.093  27.177  11.456  0.3029 -0.0937  0.2768
 2419DOPC   D2B28390  17.190  27.385  11.815 -0.1089  0.3278 -0.0655
 2419DOPC   C3B28391  17.238  27.810  11.815 -0.0055 -0.3988  0.3913
 2419DOPC   C4B28392  16.873  28.022  11.886 -0.0154  0.2653  0.0010
 2420POSM   NC328393  24.609  26.896  10.875  0.3981  0.1780  0.0795
 2420POSM   PO428394  24.242  26.796  10.714 -0.0295 -0.1263 -0.2051
 2420POSM   AM128395  24.188  26.770  11.023 -0.3772 -0.0493 -0.1739
 2420POSM   AM228396  24.015  26.785  11.232 -0.1162  0.1856  0.3060
 2420POSM   T1A28397  24.267  26.359  11.303  0.0615  0.2509 -0.3005
 2420POSM   C2A28398  24.597  26.319  11.628  0.2768  0.0509  0.1304
 2420POSM   C3A28399  24.804  26.045  11.970  0.0748  0.2773 -0.1724
 2420POSM   C1B28400  23.879  26.703  11.559  0.0008  0.1764 -0.2128
 2420POSM   D2B28401  23.888  26.631  11.996 -0.1592 -0.0604 -0.2575
 2420POSM   C3B28402  24.205  26.887  12.216 -0.0564  0.2231  0.1738
 2420POSM   C4B28403  24.286  27.307  12.399 -0.0941 -0.0840  0.1087
 2421POSM   NC328404  11.169  30.781   9.141 -0.3479  0.0315 -0.0900
 2421POSM   PO428405  10.904  30.600   9.393  0.0204  0.1168 -0.2433
 2421POSM   AM128406  10.851  30.668   9.696 -0.0572 -0.1857 -0.2295
 2421POSM   AM228407  10.671  30.768   9.905  0.0251 -0.3749 -0.3622
 2421POSM   T1A28408  11.160  30.785  10.088  0.3304  0.0851  0.0293
 2421POSM   C2A28409  11.386  30.868  10.523  0.2664  0.1945 -0.1835
 2421POSM   C3A28410  11.293  30.785  10.942  0.0774  0.0224  0.1388
 2421POSM   C1B28411  10.701  30.577  10.169 -0.0966 -0.2159  0.2352
 2421POSM   D2B28412  10.903  30.605  10.553 -0.2125  0.2257 -0.0553
 2421POSM   C3B28413  10.948  31.042  10.735 -0.2077  0.0644 -0.0139
 2421POSM   C4B28414  10.666  31.435  10.709  0.1585  0.0229  0.2794
 2422DOPS   CNO28415  20.381  28.095  10.700 -0.0918 -0.0430  0.2247
 2422DOPS   PO428416  20.133  28.148  10.408  0.2559 -0.0347 -0.4215
 2422DOPS   GL128417  19.917  28.142  10.773 -0.1220  0.1080 -0.2014
 2422DOPS   GL228418  19.733  28.273  10.979  0.0814  0.0326 -0.2008
 2422DOPS   C1A28419  20.111  28.000  11.162  0.4712  0.0372 -0.2689
 2422DOPS   D2A28420  20.059  28.160  11.596  0.2997  0.0297  0.2260
 2422DOPS   C3A28421  20.390  28.257  11.926  0.1452  0.1945  0.1762
 2422DOPS   C4A28422  20.685  28.396  12.217 -0.1756  0.1222 -0.0328
 2422DOPS   C1B28423  19.549  28.178  11.417  0.1110  0.4085  0.0810
 2422DOPS   D2B28424  19.654  28.225  11.888 -0.0957 -0.0302 -0.1342
 2422DOPS   C3B28425  19.952  28.444  12.089 -0.0982  0.0168 -0.3615
 2422DOPS   C4B28426  20.235  28.341  12.470 -0.2929 -0.2432  0.0110
 2423POSM   NC328427  13.793  24.556  10.294  0.0541  0.0272 -0.2585
 2423POSM   PO428428  13.926  24.914  10.421 -0.1194  0.2265 -0.3673
 2423POSM   AM128429  13.931  25.016  10.725 -0.1046  0.0359  0.2964
 2423POSM   AM228430  13.934  25.275  10.827  0.1873 -0.1731  0.1384
 2423POSM   T1A28431  13.901  24.801  11.181  0.0601 -0.0535 -0.3222
 2423POSM   C2A28432  13.885  24.931  11.587  0.2704 -0.3234 -0.1983
 2423POSM   C3A28433  13.601  24.920  12.006 -0.0771  0.0526  0.4197
 2423POSM   C1B28434  13.923  25.393  11.114 -0.3153 -0.0040 -0.5230
 2423POSM   D2B28435  13.817  25.644  11.446 -0.1663  0.0277 -0.0033
 2423POSM   C3B28436  13.880  25.383  11.848  0.1963 -0.0726 -0.0829
 2423POSM   C4B28437  14.088  25.035  12.068  0.0550  0.0760 -0.0080
 2424DOPE   NH328438  16.571  31.888  10.682 -0.0922 -0.0063 -0.2271
 2424DOPE   PO428439  16.337  31.731  10.588  0.1914  0.1707 -0.4621
 2424DOPE   GL128440  16.040  31.834  10.823 -0.3207 -0.3428  0.0443
 2424DOPE   GL228441  15.964  31.654  11.040  0.2972 -0.0606  0.4057
 2424DOPE   C1A28442  16.188  32.147  11.102  0.2435 -0.0483  0.1698
 2424DOPE   D2A28443  16.037  32.067  11.542 -0.1195  0.1213  0.0797
 2424DOPE   C3A28444  16.171  32.333  11.933 -0.0297 -0.4167 -0.2934
 2424DOPE   C4A28445  16.568  32.405  12.109 -0.0309 -0.0776  0.2778
 2424DOPE   C1B28446  16.060  31.441  11.429  0.2633 -0.1880  0.1119
 2424DOPE   D2B28447  16.216  31.559  11.805 -0.1344 -0.2512  0.0990
 2424DOPE   C3B28448  16.007  31.847  12.076  0.1200  0.0465 -0.1238
 2424DOPE   C4B28449  15.720  32.178  12.268  0.3019  0.0284  0.0086
 2425DOPE   NH328450  11.549  25.146   9.679  0.0375  0.1039  0.0556
 2425DOPE   PO428451  11.840  25.078   9.698  0.0255 -0.1020 -0.0298
 2425DOPE   GL128452  11.906  24.904  10.077 -0.3366 -0.2501  0.0644
 2425DOPE   GL228453  11.759  25.012  10.291  0.2728  0.1880 -0.0468
 2425DOPE   C1A28454  11.979  24.606  10.413  0.1339  0.0698  0.1654
 2425DOPE   D2A28455  11.664  24.709  10.729 -0.3462  0.4125 -0.2817
 2425DOPE   C3A28456  11.588  25.114  10.903 -0.1409  0.1052  0.2621
 2425DOPE   C4A28457  11.276  25.495  10.931  0.0796  0.1964  0.0336
 2425DOPE   C1B28458  12.025  25.103  10.678 -0.0168  0.1205 -0.0593
 2425DOPE   D2B28459  12.076  25.318  11.103 -0.1194  0.0545  0.0646
 2425DOPE   C3B28460  11.666  25.382  11.282  0.0774  0.3157 -0.1040
 2425DOPE   C4B28461  11.245  25.511  11.415 -0.0158 -0.1138  0.1182
 2426DOPE   NH328462  16.716  25.349  10.526  0.0279  0.0313  0.0739
 2426DOPE   PO428463  16.544  25.472  10.755 -0.1308 -0.0853 -0.0603
 2426DOPE   GL128464  16.444  25.616  11.135 -0.0334  0.2132 -0.0205
 2426DOPE   GL228465  16.651  25.838  11.163  0.3077 -0.2301 -0.0117
 2426DOPE   C1A28466  16.137  25.815  11.428  0.1143 -0.3150 -0.0965
 2426DOPE   D2A28467  16.045  25.965  11.874  0.3185 -0.0073 -0.1518
 2426DOPE   C3A28468  15.626  26.094  12.096  0.0219  0.1351  0.0305
 2426DOPE   C4A28469  15.646  26.286  12.546 -0.2295  0.2707 -0.0654
 2426DOPE   C1B28470  16.624  25.874  11.606 -0.0891  0.0551  0.3852
 2426DOPE   D2B28471  16.624  25.720  12.037 -0.1137 -0.0044 -0.0849
 2426DOPE   C3B28472  16.261  25.767  12.287  0.2902  0.2999 -0.1579
 2426DOPE   C4B28473  16.171  25.671  12.720 -0.1582 -0.2156  0.0866
 2427DOPS   CNO28474  18.110  22.914  10.226 -0.2091 -0.1669  0.1717
 2427DOPS   PO428475  17.786  22.825  10.078 -0.0398 -0.0885  0.1493
 2427DOPS   GL128476  17.762  22.932  10.510 -0.2032  0.2805  0.0383
 2427DOPS   GL228477  17.909  22.636  10.612  0.2040  0.0080  0.0738
 2427DOPS   C1A28478  17.564  22.927  10.932  0.0671 -0.0945 -0.0519
 2427DOPS   D2A28479  17.163  23.160  11.162 -0.3174 -0.0027  0.0336
 2427DOPS   C3A28480  17.183  23.318  11.566 -0.1207 -0.2283 -0.1497
 2427DOPS   C4A28481  16.891  23.611  11.790  0.1388  0.0529  0.0444
 2427DOPS   C1B28482  18.055  22.680  11.050 -0.0941  0.2220 -0.1246
 2427DOPS   D2B28483  18.267  22.442  11.403 -0.3534  0.0222 -0.0019
 2427DOPS   C3B28484  18.274  21.997  11.339  0.3014 -0.1154 -0.1086
 2427DOPS   C4B28485  18.507  21.711  11.117  0.0790 -0.0534  0.1367
 2428POSM   NC328486  20.863  27.521  10.759  0.2607 -0.2481  0.0114
 2428POSM   PO428487  20.935  27.912  10.638  0.0519 -0.2814  0.0192
 2428POSM   AM128488  20.853  27.912  10.982 -0.0160  0.0739  0.0550
 2428POSM   AM228489  21.032  28.031  11.153  0.1297 -0.1460 -0.0195
 2428POSM   T1A28490  20.617  27.966  11.433 -0.0214 -0.0131 -0.2059
 2428POSM   C2A28491  20.606  27.783  11.881  0.3097 -0.0826  0.2441
 2428POSM   C3A28492  20.569  27.499  12.204 -0.1252 -0.0579 -0.3424
 2428POSM   C1B28493  20.946  28.387  11.253  0.2303  0.2508  0.0080
 2428POSM   D2B28494  20.540  28.610  11.267 -0.1000 -0.3163 -0.2033
 2428POSM   C3B28495  20.251  28.659  11.607 -0.1106  0.1293 -0.1496
 2428POSM   C4B28496  19.779  28.695  11.709 -0.3531 -0.0334  0.0087
 2429POSM   NC328497  18.025  26.712  10.753  0.2126 -0.0596 -0.1533
 2429POSM   PO428498  18.112  27.028  10.489  0.4041  0.0651 -0.0285
 2429POSM   AM128499  18.161  27.163  10.798 -0.0596 -0.1206  0.3373
 2429POSM   AM228500  18.073  27.052  11.094  0.0342 -0.1547 -0.0907
 2429POSM   T1A28501  18.428  27.462  11.046  0.0902  0.0323 -0.1775
 2429POSM   C2A28502  18.707  27.851  10.918  0.2366 -0.2166  0.0253
 2429POSM   C3A28503  18.576  28.308  10.792  0.0266 -0.3069 -0.1592
 2429POSM   C1B28504  18.097  27.145  11.451 -0.1033  0.1842  0.0607
 2429POSM   D2B28505  18.216  27.054  11.895  0.0715  0.1948 -0.0400
 2429POSM   C3B28506  17.996  27.168  12.294 -0.0392 -0.1513 -0.3242
 2429POSM   C4B28507  18.151  27.341  12.680 -0.0031  0.2054 -0.0871
 2430DOPE   NH328508  21.219  24.792  11.414 -0.4927  0.3003  0.3179
 2430DOPE   PO428509  20.951  24.648  11.373 -0.0188 -0.0805  0.3117
 2430DOPE   GL128510  20.855  24.957  11.655 -0.1128  0.0002 -0.1425
 2430DOPE   GL228511  21.003  24.787  11.902 -0.2021 -0.0903 -0.1419
 2430DOPE   C1A28512  21.166  25.273  11.868  0.0612  0.0256  0.1115
 2430DOPE   D2A28513  21.410  25.510  12.239  0.1716 -0.0893 -0.1239
 2430DOPE   C3A28514  21.274  25.587  12.700 -0.2210 -0.1737 -0.2464
 2430DOPE   C4A28515  21.261  26.046  12.836  0.2734 -0.1885  0.2223
 2430DOPE   C1B28516  21.082  24.639  12.311 -0.2032 -0.2094  0.2927
 2430DOPE   D2B28517  21.393  24.717  12.680  0.3381 -0.1118  0.4394
 2430DOPE   C3B28518  21.368  25.132  12.946  0.2343 -0.1778 -0.3821
 2430DOPE   C4B28519  21.707  25.196  13.179 -0.1525 -0.1368 -0.0561
 2431DOPS   CNO28520  13.124  31.918  10.103  0.1450  0.1220  0.0967
 2431DOPS   PO428521  13.196  32.287  10.209 -0.1629  0.2165 -0.0610
 2431DOPS   GL128522  13.021  32.146  10.542  0.1666 -0.0639  0.2332
 2431DOPS   GL228523  12.954  31.882  10.580 -0.3722 -0.1140 -0.0361
 2431DOPS   C1A28524  13.073  32.246  11.021  0.0622 -0.0549 -0.1699
 2431DOPS   D2A28525  13.088  32.331  11.421  0.3166  0.0532  0.0403
 2431DOPS   C3A28526  13.087  32.166  11.844  0.0674 -0.0177  0.0140
 2431DOPS   C4A28527  13.010  31.771  12.050  0.1120  0.5610  0.3622
 2431DOPS   C1B28528  12.802  31.504  10.819 -0.1152 -0.3208  0.0739
 2431DOPS   D2B28529  12.544  31.503  11.194  0.1968  0.0036  0.1482
 2431DOPS   C3B28530  12.823  31.543  11.588  0.0900  0.3859  0.0897
 2431DOPS   C4B28531  13.305  31.592  11.591  0.2531  0.1172 -0.0920
 2432DOPE   NH328532  17.874  32.151  10.780 -0.0387  0.1418 -0.1762
 2432DOPE   PO428533  17.642  31.930  10.841 -0.1542 -0.0238 -0.0822
 2432DOPE   GL128534  17.344  31.867  11.042  0.1410  0.0837  0.1639
 2432DOPE   GL228535  17.409  31.708  11.266 -0.2209 -0.1393 -0.0943
 2432DOPE   C1A28536  17.147  32.117  11.387 -0.1698  0.0338 -0.0900
 2432DOPE   D2A28537  17.008  32.335  11.747  0.0934  0.3413  0.0602
 2432DOPE   C3A28538  17.231  32.560  12.115  0.1648  0.1046  0.3745
 2432DOPE   C4A28539  17.111  32.665  12.539  0.4132 -0.1135 -0.0704
 2432DOPE   C1B28540  17.227  31.696  11.703  0.0943 -0.0883 -0.1406
 2432DOPE   D2B28541  17.559  31.704  12.028  0.1201 -0.1378  0.3386
 2432DOPE   C3B28542  17.563  31.775  12.426 -0.0524 -0.0584 -0.0582
 2432DOPE   C4B28543  17.511  31.452  12.707 -0.1736  0.1452 -0.1297
 2433POSM   NC328544  10.136  24.791   9.418  0.1885  0.1310  0.0272
 2433POSM   PO428545  10.456  24.645   9.540 -0.1038  0.1416  0.0405
 2433POSM   AM128546  10.370  24.802   9.788 -0.1383 -0.4385 -0.3450
 2433POSM   AM228547  10.138  24.971   9.899 -0.0225  0.2242 -0.0570
 2433POSM   T1A28548  10.540  24.830  10.208  0.1695 -0.1188 -0.1474
 2433POSM   C2A28549  10.469  24.768  10.606 -0.0182 -0.1071 -0.1101
 2433POSM   C3A28550  10.540  24.626  11.007  0.2181 -0.0613 -0.3046
 2433POSM   C1B28551  10.274  25.195  10.102 -0.0953  0.1272  0.2473
 2433POSM   D2B28552  10.403  25.285  10.517  0.1743  0.1995 -0.1170
 2433POSM   C3B28553  10.339  25.196  10.971  0.0542  0.1578  0.2594
 2433POSM   C4B28554  10.509  25.416  11.337  0.1727 -0.0556 -0.0856
 2434POSM   NC328555  13.622  33.025  10.404 -0.2514 -0.2242 -0.1861
 2434POSM   PO428556  13.602  33.415  10.400  0.4434 -0.0427  0.0134
 2434POSM   AM128557  13.698  33.353  10.706 -0.2227  0.0813 -0.0376
 2434POSM   AM228558  13.941  33.394  10.901 -0.0878  0.1009 -0.3124
 2434POSM   T1A28559  13.512  33.427  11.180  0.1268 -0.0251  0.1907
 2434POSM   C2A28560  13.392  33.176  11.523  0.1462 -0.2283 -0.1576
 2434POSM   C3A28561  13.173  33.110  11.907 -0.1605  0.1346 -0.0235
 2434POSM   C1B28562  14.111  33.640  11.043  0.0499  0.1679 -0.2369
 2434POSM   D2B28563  14.235  33.972  11.378 -0.2033 -0.4619 -0.0154
 2434POSM   C3B28564  14.172  33.761  11.836  0.0910 -0.0483  0.0682
 2434POSM   C4B28565  14.020  33.639  12.253  0.1415 -0.1648 -0.1208
 2435DOPC   NC328566  14.570  31.748  10.281 -0.0425  0.0947 -0.0424
 2435DOPC   PO428567  14.580  32.112  10.302 -0.0369 -0.0800 -0.0693
 2435DOPC   GL128568  14.758  32.106  10.620  0.1611 -0.1689 -0.1677
 2435DOPC   GL228569  14.589  32.110  10.913 -0.1647  0.2617  0.0211
 2435DOPC   C1A28570  14.983  31.786  10.834  0.2056 -0.0078 -0.2669
 2435DOPC   D2A28571  14.718  31.429  10.885  0.2831 -0.2599 -0.1906
 2435DOPC   C3A28572  14.558  31.335  11.380  0.0572 -0.0080  0.2205
 2435DOPC   C4A28573  14.488  31.394  11.882 -0.1055 -0.0457 -0.1502
 2435DOPC   C1B28574  14.778  31.896  11.286 -0.1665  0.1168 -0.0281
 2435DOPC   D2B28575  15.131  31.824  11.569 -0.0474 -0.1037 -0.1835
 2435DOPC   C3B28576  14.889  31.722  11.946 -0.0637 -0.0053  0.1722
 2435DOPC   C4B28577  14.727  31.592  12.339 -0.0717 -0.0150  0.0895
 2436POSM   NC328578  10.860  25.397   9.286 -0.1303  0.3436  0.1154
 2436POSM   PO428579  11.135  25.098   9.399 -0.1796  0.1520  0.5979
 2436POSM   AM128580  11.038  25.304   9.704  0.2071 -0.2325 -0.0458
 2436POSM   AM228581  10.863  25.300   9.924 -0.1175  0.0065  0.3982
 2436POSM   T1A28582  11.144  25.701  10.021 -0.1043  0.1179 -0.1225
 2436POSM   C2A28583  11.101  26.162  10.020  0.3138  0.1938 -0.0288
 2436POSM   C3A28584  11.056  26.597  10.251 -0.2552 -0.1141 -0.0279
 2436POSM   C1B28585  10.840  25.191  10.258  0.3364 -0.0228  0.0553
 2436POSM   D2B28586  10.872  25.147  10.704 -0.1837 -0.1992 -0.4001
 2436POSM   C3B28587  10.802  25.506  10.964  0.2786  0.0249 -0.2767
 2436POSM   C4B28588  10.422  25.813  11.137 -0.1151 -0.0737  0.0044
 2437DOPE   NH328589  15.307  23.966  10.427 -0.1265  0.2644 -0.3822
 2437DOPE   PO428590  15.609  24.094  10.525 -0.2102  0.4074 -0.0003
 2437DOPE   GL128591  15.552  23.947  10.964 -0.0512 -0.5692 -0.1293
 2437DOPE   GL228592  15.256  23.841  10.938  0.4374  0.0056 -0.3926
 2437DOPE   C1A28593  15.377  24.016  11.392  0.1680 -0.0112  0.1024
 2437DOPE   D2A28594  15.007  23.914  11.672 -0.4355 -0.0517  0.1617
 2437DOPE   C3A28595  14.800  23.757  12.067 -0.2979  0.2478 -0.0730
 2437DOPE   C4A28596  14.604  23.705  12.495  0.0317 -0.0038 -0.1263
 2437DOPE   C1B28597  15.090  23.578  11.323 -0.0994  0.0692  0.1872
 2437DOPE   D2B28598  14.874  23.286  11.630 -0.1427  0.0337  0.4212
 2437DOPE   C3B28599  14.452  23.240  11.879  0.3752 -0.3783 -0.2611
 2437DOPE   C4B28600  14.370  23.256  12.328  0.0212 -0.1284 -0.1294
 2438DOPS   CNO28601  15.385  26.940  10.285 -0.1741  0.1700  0.0103
 2438DOPS   PO428602  15.647  27.176  10.171  0.1643  0.0761 -0.0361
 2438DOPS   GL128603  15.582  27.188  10.622 -0.2519  0.2039 -0.1054
 2438DOPS   GL228604  15.694  26.891  10.679  0.2212 -0.2516 -0.2681
 2438DOPS   C1A28605  15.546  27.507  10.960  0.1989 -0.1921  0.2488
 2438DOPS   D2A28606  15.620  27.926  11.080  0.2022  0.0128  0.2444
 2438DOPS   C3A28607  15.959  28.064  11.361  0.0481 -0.2062  0.3387
 2438DOPS   C4A28608  15.886  28.085  11.819  0.0234  0.1199  0.1549
 2438DOPS   C1B28609  15.871  27.044  11.147 -0.1417 -0.3382  0.2703
 2438DOPS   D2B28610  15.854  27.237  11.578  0.2482  0.1133  0.1508
 2438DOPS   C3B28611  15.517  27.323  11.918 -0.2090  0.6155  0.0625
 2438DOPS   C4B28612  15.199  27.529  12.157  0.2749 -0.2190  0.1704
 2439DOPC   NC328613  14.886  28.114  10.308  0.1041 -0.1115  0.2139
 2439DOPC   PO428614  15.268  27.953  10.273 -0.0109  0.3335  0.2191
 2439DOPC   GL128615  15.146  27.774  10.553 -0.1140  0.1772  0.3375
 2439DOPC   GL228616  15.123  27.984  10.819  0.2361  0.2140 -0.0950
 2439DOPC   C1A28617  15.059  27.379  10.777 -0.1128 -0.1784  0.1028
 2439DOPC   D2A28618  14.909  27.250  11.194  0.0629  0.1716  0.1878
 2439DOPC   C3A28619  14.631  26.936  11.126 -0.4102  0.1231 -0.1706
 2439DOPC   C4A28620  14.319  26.765  10.850  0.1417  0.2364 -0.2587
 2439DOPC   C1B28621  15.170  27.723  11.232 -0.0941 -0.0284 -0.0838
 2439DOPC   D2B28622  15.171  27.515  11.619 -0.3080  0.0398  0.0161
 2439DOPC   C3B28623  14.795  27.412  11.801  0.3715 -0.0408 -0.0019
 2439DOPC   C4B28624  14.368  27.448  11.934 -0.2472 -0.0466 -0.1858
 2440DOPC   NC328625  18.669  34.590  10.157 -0.0776  0.0125 -0.4520
 2440DOPC   PO428626  18.274  34.443  10.132 -0.2081  0.0883 -0.1683
 2440DOPC   GL128627  18.350  34.368  10.535  0.1949 -0.4039 -0.2053
 2440DOPC   GL228628  18.404  34.640  10.721 -0.3427 -0.0167  0.0307
 2440DOPC   C1A28629  18.480  34.142  10.924  0.2217  0.0121  0.3126
 2440DOPC   D2A28630  18.503  33.884  11.354 -0.0632  0.0000  0.1858
 2440DOPC   C3A28631  18.085  33.833  11.609  0.1329  0.0984 -0.0355
 2440DOPC   C4A28632  17.813  33.772  11.943  0.2329  0.1530  0.1325
 2440DOPC   C1B28633  18.324  34.602  11.193  0.0265 -0.0921 -0.1114
 2440DOPC   D2B28634  18.570  34.750  11.559 -0.0542 -0.1285  0.4205
 2440DOPC   C3B28635  18.492  35.095  11.833 -0.2213 -0.0054  0.0132
 2440DOPC   C4B28636  18.260  35.415  12.070  0.3055  0.1706  0.1523
 2441DOPC   NC328637  14.724  25.552  10.659  0.1881  0.1585  0.1698
 2441DOPC   PO428638  14.795  25.773  10.324 -0.1812 -0.0452  0.1698
 2441DOPC   GL128639  14.641  26.056  10.630  0.1827  0.0643 -0.1636
 2441DOPC   GL228640  14.646  25.955  10.951 -0.3384  0.1055 -0.3472
 2441DOPC   C1A28641  14.282  26.259  10.869 -0.1376  0.3025 -0.1575
 2441DOPC   D2A28642  13.955  26.356  11.179 -0.0215  0.0467 -0.3873
 2441DOPC   C3A28643  13.718  26.159  11.502 -0.2670 -0.0025 -0.1407
 2441DOPC   C4A28644  13.616  25.846  11.853  0.1997  0.0722  0.2013
 2441DOPC   C1B28645  14.340  25.982  11.287 -0.1592  0.0689  0.0845
 2441DOPC   D2B28646  14.121  25.879  11.725  0.2297 -0.3568  0.1316
 2441DOPC   C3B28647  14.165  26.107  12.100 -0.3354  0.2463  0.0559
 2441DOPC   C4B28648  13.744  26.213  12.333 -0.0022  0.0660 -0.1915
 2442DOPS   CNO28649  16.637  31.310  10.454  0.0882  0.0040  0.0629
 2442DOPS   PO428650  16.735  31.408  10.817  0.1614 -0.0253 -0.2579
 2442DOPS   GL128651  16.491  31.352  11.138  0.4128  0.1661 -0.2998
 2442DOPS   GL228652  16.450  31.689  11.124 -0.2308  0.0608 -0.0440
 2442DOPS   C1A28653  16.567  31.340  11.619 -0.0477  0.2580  0.2897
 2442DOPS   D2A28654  16.818  31.542  11.964  0.3926  0.0885  0.0604
 2442DOPS   C3A28655  16.741  31.276  12.411 -0.1059 -0.0598 -0.0555
 2442DOPS   C4A28656  17.110  31.151  12.627  0.2905  0.0690  0.1235
 2442DOPS   C1B28657  16.626  31.861  11.527 -0.3074 -0.1429  0.0328
 2442DOPS   D2B28658  16.505  31.972  11.964  0.1813  0.1182  0.2772
 2442DOPS   C3B28659  16.514  31.686  12.354  0.0737 -0.1876  0.0644
 2442DOPS   C4B28660  16.656  31.638  12.804  0.0201 -0.2266  0.0918
 2443POSM   NC328661  12.700  21.685   9.914  0.0125 -0.1875  0.0683
 2443POSM   PO428662  12.762  21.935  10.165 -0.0713  0.0603 -0.2394
 2443POSM   AM128663  12.733  22.040  10.447  0.1952  0.2490 -0.4999
 2443POSM   AM228664  12.624  21.980  10.709  0.0468 -0.0877  0.1796
 2443POSM   T1A28665  12.665  22.443  10.750  0.0377 -0.0382  0.1153
 2443POSM   C2A28666  12.403  22.567  11.117 -0.1151 -0.3642  0.2410
 2443POSM   C3A28667  12.326  22.814  11.482  0.2230 -0.0204 -0.3451
 2443POSM   C1B28668  12.722  21.988  11.049  0.1098  0.1456  0.0100
 2443POSM   D2B28669  12.698  21.897  11.464 -0.2032  0.0290  0.2484
 2443POSM   C3B28670  12.270  21.776  11.640 -0.2997 -0.3436 -0.5123
 2443POSM   C4B28671  11.887  21.969  11.527  0.0432 -0.2171  0.1524
 2444POSM   NC328672  16.159  33.456  10.443  0.0638 -0.0296 -0.1650
 2444POSM   PO428673  15.850  33.213  10.393 -0.1828 -0.2047  0.0419
 2444POSM   AM128674  15.787  33.139  10.709  0.3112  0.0821 -0.1847
 2444POSM   AM228675  15.509  33.090  10.839  0.0621  0.1257  0.0868
 2444POSM   T1A28676  15.789  32.854  11.132  0.4806  0.0194  0.0381
 2444POSM   C2A28677  15.664  32.975  11.581 -0.1325  0.1735 -0.1239
 2444POSM   C3A28678  15.587  33.104  12.003 -0.1090  0.0326  0.1176
 2444POSM   C1B28679  15.469  33.297  11.141 -0.1013  0.0613  0.0066
 2444POSM   D2B28680  15.442  33.508  11.544 -0.1296  0.0222  0.1163
 2444POSM   C3B28681  15.178  33.758  11.849  0.1687  0.0184  0.3786
 2444POSM   C4B28682  14.846  33.822  12.141 -0.0760  0.0796 -0.1677
 2445DOPE   NH328683  12.079  25.297  10.076  0.4875 -0.0263  0.1419
 2445DOPE   PO428684  12.151  25.509   9.838  0.0746  0.1080  0.2290
 2445DOPE   GL128685  12.015  25.741  10.253 -0.0905  0.0989 -0.1510
 2445DOPE   GL228686  11.990  26.007  10.140 -0.0116  0.0049  0.1613
 2445DOPE   C1A28687  12.074  26.011  10.664 -0.0912 -0.0538  0.0913
 2445DOPE   D2A28688  12.319  26.120  11.045  0.1852 -0.4704 -0.0408
 2445DOPE   C3A28689  12.123  26.534  11.127 -0.0834 -0.2623 -0.2750
 2445DOPE   C4A28690  12.104  26.750  11.491 -0.0171  0.1031 -0.0111
 2445DOPE   C1B28691  11.621  26.011  10.437  0.3365 -0.0904  0.3614
 2445DOPE   D2B28692  11.266  26.177  10.489 -0.0474 -0.0868 -0.2528
 2445DOPE   C3B28693  11.036  26.001  10.849  0.1805  0.0297 -0.3132
 2445DOPE   C4B28694  10.934  25.971  11.270  0.1113  0.0648  0.3107
 2446DOPC   NC328695  15.748  21.141  10.457 -0.0857 -0.1763 -0.1625
 2446DOPC   PO428696  15.368  21.330  10.349  0.0939 -0.3275  0.3116
 2446DOPC   GL128697  15.388  21.606  10.610 -0.2238  0.0944  0.1327
 2446DOPC   GL228698  15.502  21.424  10.809 -0.1731  0.0694  0.1129
 2446DOPC   C1A28699  15.251  21.809  11.007  0.1003  0.0067 -0.0139
 2446DOPC   D2A28700  15.302  22.059  11.398 -0.1957  0.0923 -0.0736
 2446DOPC   C3A28701  15.682  22.092  11.593  0.0445 -0.2894  0.1311
 2446DOPC   C4A28702  16.065  21.948  11.804 -0.3792 -0.1118  0.0028
 2446DOPC   C1B28703  15.273  21.294  11.209 -0.0482  0.0877 -0.0059
 2446DOPC   D2B28704  15.264  20.985  11.601 -0.0446 -0.1307  0.0492
 2446DOPC   C3B28705  15.328  21.273  11.967  0.1293  0.0494  0.1827
 2446DOPC   C4B28706  15.044  21.445  12.301  0.0809 -0.4554  0.0657
 2447POSM   NC328707  22.675  25.579  10.503  0.0105  0.1644  0.2584
 2447POSM   PO428708  22.988  25.718  10.295  0.0044  0.1027 -0.1562
 2447POSM   AM128709  22.989  25.867  10.571 -0.0803 -0.3215 -0.1748
 2447POSM   AM228710  23.178  25.998  10.750 -0.1580 -0.0540 -0.1036
 2447POSM   T1A28711  22.747  25.927  11.033  0.3176  0.1190 -0.0159
 2447POSM   C2A28712  22.477  26.228  11.253 -0.0844  0.0672  0.0092
 2447POSM   C3A28713  22.184  26.608  11.218  0.0960  0.2295  0.1054
 2447POSM   C1B28714  23.306  25.945  11.080 -0.0680  0.0759  0.2554
 2447POSM   D2B28715  23.660  25.862  11.289 -0.0396  0.0527 -0.1386
 2447POSM   C3B28716  23.764  25.632  11.677  0.1010 -0.0889 -0.0307
 2447POSM   C4B28717  23.433  25.446  11.981 -0.1638 -0.2456 -0.0479
 2448POSM   NC328718  18.460  32.430  10.156  0.1207  0.4182  0.1408
 2448POSM   PO428719  18.336  32.311  10.496 -0.2960 -0.6097 -0.1061
 2448POSM   AM128720  18.344  32.382  10.801 -0.2128 -0.1946  0.1100
 2448POSM   AM228721  18.330  32.243  11.056 -0.0232  0.1468  0.1163
 2448POSM   T1A28722  18.392  32.713  11.211  0.1508  0.1672  0.0147
 2448POSM   C2A28723  18.536  32.687  11.665 -0.1244 -0.0873  0.1276
 2448POSM   C3A28724  18.532  33.097  11.942 -0.0863 -0.0506 -0.0582
 2448POSM   C1B28725  18.109  32.262  11.288  0.4176 -0.0450 -0.2272
 2448POSM   D2B28726  18.010  32.223  11.708  0.0206 -0.1685 -0.0019
 2448POSM   C3B28727  18.070  32.612  12.025 -0.3639 -0.0204  0.0531
 2448POSM   C4B28728  18.066  33.013  12.190  0.1894 -0.0124 -0.4163
 2449DOPC   NC328729  25.037   9.026  13.563  0.0518 -0.1444 -0.2361
 2449DOPC   PO428730  25.418   8.957  13.545  0.1129 -0.0379  0.1219
 2449DOPC   GL128731  25.331   9.098  13.173  0.3972 -0.2123  0.0951
 2449DOPC   GL228732  25.084   9.043  13.089  0.0423 -0.3269 -0.0237
 2449DOPC   C1A28733  25.590   9.149  12.792 -0.3023 -0.0797 -0.3571
 2449DOPC   D2A28734  25.968   9.048  12.486  0.1089  0.2927 -0.4672
 2449DOPC   C3A28735  25.929   8.599  12.493  0.3795  0.2457 -0.1463
 2449DOPC   C4A28736  26.193   8.272  12.523 -0.1886 -0.0054 -0.0879
 2449DOPC   C1B28737  25.266   8.814  12.688  0.1519 -0.3907  0.0657
 2449DOPC   D2B28738  25.363   8.459  12.453  0.1680  0.1315  0.0582
 2449DOPC   C3B28739  25.186   8.633  12.035  0.3690  0.3219  0.0919
 2449DOPC   C4B28740  25.306   8.937  11.706 -0.2302  0.0977  0.0215
 2450DOPC   NC328741  30.212   4.852  14.007  0.0354  0.0006 -0.0338
 2450DOPC   PO428742  30.089   4.594  13.749 -0.1780  0.0244  0.0824
 2450DOPC   GL128743  30.182   4.733  13.353 -0.0810 -0.0220  0.3678
 2450DOPC   GL228744  30.395   4.405  13.358 -0.1984  0.0748  0.2313
 2450DOPC   C1A28745  30.186   4.627  12.900  0.1007  0.1263  0.3456
 2450DOPC   D2A28746  30.489   4.416  12.639 -0.0337 -0.0979  0.1006
 2450DOPC   C3A28747  30.663   4.026  12.582  0.0030  0.3055 -0.0964
 2450DOPC   C4A28748  30.855   3.611  12.487  0.2584  0.2619 -0.1889
 2450DOPC   C1B28749  30.718   4.157  13.086  0.0321 -0.0529  0.3048
 2450DOPC   D2B28750  31.046   4.295  12.817 -0.1270  0.1880 -0.2751
 2450DOPC   C3B28751  31.089   4.485  12.384 -0.0109  0.2549 -0.4428
 2450DOPC   C4B28752  31.285   4.413  12.006  0.0040 -0.0426  0.0187
 2451DOPE   NH328753   1.542   7.859  13.562 -0.2384 -0.0605 -0.2175
 2451DOPE   PO428754   1.785   7.661  13.596 -0.2414  0.0401  0.2962
 2451DOPE   GL128755   1.741   7.372  13.436  0.0101 -0.0680 -0.1714
 2451DOPE   GL228756   2.053   7.328  13.347  0.3362 -0.0357 -0.1770
 2451DOPE   C1A28757   1.698   7.289  12.954  0.0079 -0.1439  0.0479
 2451DOPE   D2A28758   1.710   7.565  12.566  0.2282 -0.0196 -0.0240
 2451DOPE   C3A28759   1.588   8.003  12.497 -0.1785 -0.1460 -0.4516
 2451DOPE   C4A28760   1.599   8.304  12.784  0.1529  0.0384  0.0571
 2451DOPE   C1B28761   2.156   7.602  12.978  0.0085 -0.1239  0.0432
 2451DOPE   D2B28762   2.431   7.767  12.639  0.0701  0.2430  0.0155
 2451DOPE   C3B28763   2.233   7.610  12.237  0.1517  0.1267 -0.0266
 2451DOPE   C4B28764   2.268   7.195  12.046 -0.3217 -0.1034  0.1899
 2452DOPE   NH328765  25.252   9.913  14.108  0.0125  0.5295 -0.0366
 2452DOPE   PO428766  25.042   9.854  13.893  0.3564  0.1110  0.2675
 2452DOPE   GL128767  25.381   9.879  13.666  0.4879 -0.0481  0.2988
 2452DOPE   GL228768  25.446   9.942  13.376  0.0671 -0.0242  0.1987
 2452DOPE   C1A28769  25.806  10.106  13.651  0.1480 -0.0420 -0.0553
 2452DOPE   D2A28770  26.086  10.450  13.494 -0.0436  0.0143  0.2306
 2452DOPE   C3A28771  26.509  10.519  13.358 -0.1890  0.0031  0.1550
 2452DOPE   C4A28772  26.788  10.684  12.966 -0.2189 -0.0959 -0.2024
 2452DOPE   C1B28773  25.720   9.955  12.976  0.1086 -0.4294 -0.3988
 2452DOPE   D2B28774  25.963   9.990  12.607 -0.1928  0.0899  0.0231
 2452DOPE   C3B28775  26.329  10.105  12.389 -0.1797 -0.1865 -0.0666
 2452DOPE   C4B28776  26.777  10.292  12.435 -0.1703 -0.0001  0.0173
 2453DOPC   NC328777  33.926   6.521  14.408 -0.0022 -0.1903  0.0865
 2453DOPC   PO428778  34.167   6.728  14.104  0.0443  0.1030  0.0294
 2453DOPC   GL128779  34.341   6.760  13.698  0.1624  0.0194 -0.3063
 2453DOPC   GL228780  34.183   6.594  13.606  0.0663  0.0543 -0.1063
 2453DOPC   C1A28781  34.387   6.980  13.276 -0.1068 -0.2501 -0.2237
 2453DOPC   D2A28782  34.280   7.213  12.917  0.0797 -0.4084 -0.1183
 2453DOPC   C3A28783  34.449   7.185  12.491 -0.1255  0.0095 -0.1077
 2453DOPC   C4A28784  34.825   7.254  12.194  0.1900 -0.0561  0.2114
 2453DOPC   C1B28785  34.019   6.595  13.141  0.0099 -0.2705 -0.5040
 2453DOPC   D2B28786  33.954   6.738  12.663 -0.0221 -0.1835  0.1351
 2453DOPC   C3B28787  33.769   6.624  12.244  0.2663 -0.1699 -0.0605
 2453DOPC   C4B28788  33.379   6.719  12.026  0.1410  0.0075  0.3397
 2454DOPC   NC328789   0.166   5.035  14.046  0.2076  0.1031  0.0091
 2454DOPC   PO428790   0.014   4.844  13.747  0.0148  0.2204 -0.0501
 2454DOPC   GL128791   0.165   5.116  13.516  0.1404 -0.0931 -0.2794
 2454DOPC   GL228792   0.492   5.033  13.419 -0.1425 -0.1190  0.0940
 2454DOPC   C1A28793   0.170   5.563  13.414 -0.0439  0.0563 -0.0323
 2454DOPC   D2A28794   0.349   5.966  13.167  0.2617  0.1655 -0.0341
 2454DOPC   C3A28795   0.296   5.802  12.733 -0.1117  0.0605 -0.1572
 2454DOPC   C4A28796   0.119   5.560  12.409  0.1278  0.1031 -0.1384
 2454DOPC   C1B28797   0.376   4.943  12.960 -0.2356  0.0152  0.0534
 2454DOPC   D2B28798   0.130   4.971  12.569  0.0948 -0.1517 -0.0472
 2454DOPC   C3B28799   0.197   4.734  12.187 -0.3620 -0.0804 -0.1195
 2454DOPC   C4B28800   0.356   4.343  11.881  0.0057  0.2823 -0.1965
 2455POSM   NC328801  26.856   3.908  14.325  0.1102 -0.2281  0.1961
 2455POSM   PO428802  26.653   3.839  14.025  0.0721 -0.1024 -0.0005
 2455POSM   AM128803  26.700   3.977  13.696 -0.0829 -0.0126  0.1885
 2455POSM   AM228804  26.650   3.823  13.421 -0.1602  0.1130 -0.1632
 2455POSM   T1A28805  26.907   4.252  13.393  0.0445  0.1910 -0.0139
 2455POSM   C2A28806  26.955   4.499  12.957 -0.4251  0.0758 -0.1716
 2455POSM   C3A28807  26.877   4.826  12.702 -0.1991  0.0197  0.1317
 2455POSM   C1B28808  26.699   3.768  13.166  0.1327  0.1617 -0.2866
 2455POSM   D2B28809  26.465   3.688  12.754  0.3945 -0.0572 -0.1067
 2455POSM   C3B28810  26.676   3.531  12.398 -0.0783  0.3657  0.2051
 2455POSM   C4B28811  27.102   3.495  12.250  0.1179  0.2041  0.2258
 2456DOPS   CNO28812   0.572   7.230  13.730  0.4283 -0.0373 -0.0438
 2456DOPS   PO428813   0.923   7.373  13.736  0.3347  0.3924 -0.1109
 2456DOPS   GL128814   0.875   7.170  13.386  0.0366 -0.2032 -0.2547
 2456DOPS   GL228815   0.887   7.430  13.212 -0.2057 -0.3671 -0.3609
 2456DOPS   C1A28816   0.933   6.722  13.160 -0.3169  0.4126  0.1492
 2456DOPS   D2A28817   1.049   6.605  12.680  0.1975 -0.0800  0.3807
 2456DOPS   C3A28818   0.818   6.759  12.281  0.1240 -0.1709 -0.1527
 2456DOPS   C4A28819   0.507   6.973  12.006 -0.0298 -0.2689  0.1384
 2456DOPS   C1B28820   0.798   7.143  12.843 -0.1976 -0.0955 -0.0269
 2456DOPS   D2B28821   0.512   7.158  12.511 -0.0421 -0.0206  0.0979
 2456DOPS   C3B28822   0.510   7.551  12.217 -0.0798 -0.0731  0.0842
 2456DOPS   C4B28823   0.816   7.789  12.031  0.1383  0.0022  0.4301
 2457DOPC   NC328824  29.399   4.371  13.467  0.3255  0.0166  0.1609
 2457DOPC   PO428825  29.548   4.621  13.750 -0.0966  0.0129 -0.0141
 2457DOPC   GL128826  29.764   4.631  13.368  0.3908  0.3398 -0.0735
 2457DOPC   GL228827  29.724   4.505  13.130  0.5459 -0.1636  0.3497
 2457DOPC   C1A28828  29.948   5.021  13.154 -0.1610  0.2297  0.0325
 2457DOPC   D2A28829  30.326   5.153  12.902 -0.2513 -0.3722 -0.0480
 2457DOPC   C3A28830  30.278   4.905  12.510 -0.0447  0.1179 -0.1941
 2457DOPC   C4A28831  30.266   5.074  12.083  0.2944  0.1527  0.1584
 2457DOPC   C1B28832  29.705   4.508  12.650 -0.1241  0.0520 -0.0117
 2457DOPC   D2B28833  29.979   4.490  12.241 -0.2366 -0.0086 -0.0224
 2457DOPC   C3B28834  30.414   4.550  12.148 -0.0514  0.1469  0.4775
 2457DOPC   C4B28835  30.813   4.550  11.862 -0.1713  0.1771 -0.0016
 2458DOPE   NH328836  26.432   8.151  13.913 -0.2204 -0.0568  0.0983
 2458DOPE   PO428837  26.234   7.915  13.969 -0.1073  0.0892 -0.2127
 2458DOPE   GL128838  26.186   7.652  13.667  0.2866 -0.2160 -0.1032
 2458DOPE   GL228839  26.396   7.825  13.511 -0.2956  0.1409  0.2920
 2458DOPE   C1A28840  26.277   7.415  13.274 -0.1235  0.0497 -0.1978
 2458DOPE   D2A28841  25.893   7.273  12.969  0.0097  0.0531  0.1189
 2458DOPE   C3A28842  25.594   7.656  12.955 -0.0155 -0.1978 -0.1059
 2458DOPE   C4A28843  25.447   7.998  12.662 -0.1411 -0.1387  0.0987
 2458DOPE   C1B28844  26.740   7.643  13.283  0.2199 -0.1572 -0.2799
 2458DOPE   D2B28845  27.052   7.494  12.975  0.1866  0.0787 -0.1814
 2458DOPE   C3B28846  26.892   7.573  12.538  0.1106  0.4866  0.1870
 2458DOPE   C4B28847  26.681   7.336  12.249  0.0294  0.0097  0.2630
 2459POSM   NC328848  33.302   5.040  14.275 -0.1017 -0.3549 -0.1059
 2459POSM   PO428849  33.596   4.830  14.198 -0.0367  0.2461  0.1024
 2459POSM   AM128850  33.589   4.853  13.876 -0.1375 -0.2997 -0.0760
 2459POSM   AM228851  33.476   4.993  13.686  0.0326 -0.2912  0.0725
 2459POSM   T1A28852  33.840   4.854  13.437 -0.1426 -0.0274 -0.0805
 2459POSM   C2A28853  33.930   4.832  12.978 -0.0600  0.0099 -0.4058
 2459POSM   C3A28854  33.950   4.683  12.548  0.1609 -0.0582 -0.1246
 2459POSM   C1B28855  33.306   4.973  13.431  0.1105  0.2826  0.0020
 2459POSM   D2B28856  33.025   4.761  13.142 -0.0542 -0.0853 -0.2853
 2459POSM   C3B28857  33.149   4.987  12.768 -0.2396  0.1225 -0.0830
 2459POSM   C4B28858  33.020   5.171  12.354 -0.1355 -0.0936  0.1471
 2460DOPS   CNO28859  32.464   7.715  14.645  0.0572 -0.0284  0.0849
 2460DOPS   PO428860  32.420   7.688  14.300  0.0964 -0.1754  0.0430
 2460DOPS   GL128861  32.454   7.748  13.898 -0.2369  0.0266  0.0375
 2460DOPS   GL228862  32.273   7.991  13.929  0.0436 -0.4032  0.0993
 2460DOPS   C1A28863  32.247   7.783  13.465  0.0679 -0.1343  0.0303
 2460DOPS   D2A28864  31.856   7.960  13.264 -0.0776 -0.1013 -0.2715
 2460DOPS   C3A28865  31.509   7.860  12.947 -0.0750 -0.3222  0.0920
 2460DOPS   C4A28866  31.421   7.906  12.501  0.0216 -0.5789  0.0240
 2460DOPS   C1B28867  32.224   8.286  13.600  0.0601  0.3368 -0.0816
 2460DOPS   D2B28868  32.084   8.381  13.135  0.0832 -0.1556 -0.2103
 2460DOPS   C3B28869  31.972   8.099  12.739 -0.1566 -0.4077 -0.0005
 2460DOPS   C4B28870  31.918   7.897  12.344 -0.1047  0.0317 -0.0455
 2461DOPC   NC328871  34.033   1.196  13.757 -0.0515  0.0063  0.3458
 2461DOPC   PO428872  33.683   1.391  13.719 -0.1031  0.1267  0.0329
 2461DOPC   GL128873  33.601   1.569  13.366  0.3050 -0.0362  0.1296
 2461DOPC   GL228874  33.351   1.592  13.383  0.2905 -0.1758  0.0887
 2461DOPC   C1A28875  33.637   1.521  12.951 -0.0699  0.1681 -0.2340
 2461DOPC   D2A28876  33.478   1.403  12.515 -0.2570 -0.1662  0.0015
 2461DOPC   C3A28877  33.637   1.119  12.208  0.0085 -0.0901  0.0162
 2461DOPC   C4A28878  33.946   0.950  11.844  0.0676  0.1548  0.0188
 2461DOPC   C1B28879  32.991   1.592  13.015  0.2147  0.0933 -0.0364
 2461DOPC   D2B28880  32.891   1.615  12.564  0.0517 -0.1369 -0.0079
 2461DOPC   C3B28881  32.513   1.379  12.460  0.2296  0.0378  0.0562
 2461DOPC   C4B28882  32.156   1.186  12.204  0.4096 -0.3869  0.2137
 2462DOPE   NH328883  28.172   7.870  14.679  0.0484 -0.2064  0.0298
 2462DOPE   PO428884  28.338   7.869  14.391 -0.2069  0.2728 -0.1306
 2462DOPE   GL128885  28.581   7.986  14.084  0.4950 -0.0363 -0.0257
 2462DOPE   GL228886  28.853   7.945  14.157 -0.0345 -0.0689 -0.0106
 2462DOPE   C1A28887  28.640   7.670  13.737 -0.0738 -0.1001  0.0727
 2462DOPE   D2A28888  28.494   7.467  13.334  0.2162 -0.2615  0.2562
 2462DOPE   C3A28889  28.734   7.230  12.964 -0.3137 -0.1253 -0.1075
 2462DOPE   C4A28890  28.888   7.208  12.582 -0.0669  0.2594  0.1400
 2462DOPE   C1B28891  28.893   8.116  13.735  0.0836  0.2963  0.3927
 2462DOPE   D2B28892  28.882   8.357  13.340  0.0274  0.1281 -0.0561
 2462DOPE   C3B28893  28.878   8.569  12.939 -0.0098  0.0491 -0.1187
 2462DOPE   C4B28894  28.781   9.011  12.832 -0.0427 -0.3165  0.2642
 2463DOPE   NH328895  29.709   6.853  14.438 -0.1476 -0.0477 -0.1347
 2463DOPE   PO428896  29.830   7.097  14.236  0.1251  0.0011  0.1750
 2463DOPE   GL128897  29.860   7.355  13.873 -0.0081  0.0860 -0.0844
 2463DOPE   GL228898  29.922   7.286  13.589  0.1344  0.0641  0.0360
 2463DOPE   C1A28899  29.573   7.731  13.930  0.1254  0.1628 -0.1126
 2463DOPE   D2A28900  29.154   7.746  13.767 -0.3538 -0.2387  0.0262
 2463DOPE   C3A28901  29.252   7.957  13.355  0.1713  0.1171 -0.0538
 2463DOPE   C4A28902  29.361   8.274  12.974 -0.1783 -0.1052 -0.1821
 2463DOPE   C1B28903  29.605   7.593  13.484  0.0085 -0.1835  0.0139
 2463DOPE   D2B28904  29.685   8.079  13.515 -0.1477 -0.1746  0.2586
 2463DOPE   C3B28905  30.020   8.183  13.272  0.0175 -0.3158  0.3189
 2463DOPE   C4B28906  30.405   8.406  13.220 -0.3881 -0.1268 -0.0818
 2464DOPC   NC328907  33.362   5.884  13.971  0.0583 -0.0858 -0.1423
 2464DOPC   PO428908  33.213   6.276  13.978 -0.5654  0.0767 -0.0944
 2464DOPC   GL128909  33.088   6.405  13.609 -0.4984 -0.2528  0.4196
 2464DOPC   GL228910  33.304   6.619  13.644  0.2281 -0.0866  0.3466
 2464DOPC   C1A28911  33.216   6.093  13.274 -0.0468  0.2149 -0.1216
 2464DOPC   D2A28912  33.581   5.811  13.275 -0.0732  0.1218  0.2010
 2464DOPC   C3A28913  33.901   5.697  12.946 -0.0385  0.1146 -0.0327
 2464DOPC   C4A28914  34.276   5.591  12.655 -0.1685  0.3289  0.3048
 2464DOPC   C1B28915  33.345   6.608  13.192 -0.0743  0.1403 -0.1746
 2464DOPC   D2B28916  33.554   6.900  12.869 -0.0028 -0.0335 -0.0466
 2464DOPC   C3B28917  33.467   6.498  12.636 -0.4200 -0.1637  0.0161
 2464DOPC   C4B28918  33.406   6.209  12.346  0.6851 -0.1268 -0.1401
 2465POSM   NC328919   0.727   2.900  13.848  0.2314 -0.1921 -0.0810
 2465POSM   PO428920   0.626   3.164  13.553 -0.0570  0.1773  0.1207
 2465POSM   AM128921   0.562   3.293  13.247 -0.4674 -0.2215 -0.0237
 2465POSM   AM228922   0.292   3.294  13.150 -0.3815  0.0324 -0.0903
 2465POSM   T1A28923   0.555   3.598  12.851  0.0456  0.0520  0.2184
 2465POSM   C2A28924   0.511   3.998  12.575 -0.0324 -0.0036  0.0080
 2465POSM   C3A28925   0.545   4.433  12.366 -0.0957  0.1832  0.0871
 2465POSM   C1B28926   0.041   3.508  13.080  0.2511  0.0643 -0.1802
 2465POSM   D2B28927  -0.263   3.608  12.821  0.0486 -0.0719  0.2891
 2465POSM   C3B28928  -0.381   3.967  12.623 -0.4947 -0.1228 -0.0333
 2465POSM   C4B28929  -0.531   4.232  12.251 -0.3909 -0.0647 -0.0211
 2466DOPE   NH328930  23.345  11.466  13.769  0.1519  0.0347 -0.0645
 2466DOPE   PO428931  23.087  11.634  13.927 -0.1947 -0.2862  0.1135
 2466DOPE   GL128932  23.032  11.814  13.517 -0.1534  0.3736 -0.1611
 2466DOPE   GL228933  22.984  12.059  13.480 -0.0583 -0.1468 -0.0551
 2466DOPE   C1A28934  22.692  11.758  13.231 -0.1068 -0.2137 -0.2884
 2466DOPE   D2A28935  22.548  11.687  12.812  0.0635  0.1058 -0.0017
 2466DOPE   C3A28936  22.326  11.277  12.705  0.1774  0.3304 -0.1154
 2466DOPE   C4A28937  22.033  11.110  12.388 -0.1669  0.3356 -0.1601
 2466DOPE   C1B28938  23.096  11.958  13.051  0.1054 -0.0849  0.3112
 2466DOPE   D2B28939  23.041  11.963  12.582 -0.2404 -0.1619  0.0081
 2466DOPE   C3B28940  22.574  12.014  12.488  0.2231 -0.1136 -0.1348
 2466DOPE   C4B28941  22.222  12.218  12.667  0.2216 -0.0024 -0.1567
 2467DOPS   CNO28942  30.008   1.706  14.079 -0.0946  0.1193 -0.2519
 2467DOPS   PO428943  30.222   2.013  14.089 -0.2337  0.1407 -0.0094
 2467DOPS   GL128944  30.262   1.900  13.725 -0.1449  0.0503  0.1116
 2467DOPS   GL228945  29.988   1.818  13.544  0.0546 -0.3037  0.2175
 2467DOPS   C1A28946  30.502   1.601  13.446  0.0855  0.3405  0.0756
 2467DOPS   D2A28947  30.822   1.628  13.074  0.1352 -0.0402  0.0036
 2467DOPS   C3A28948  30.786   1.508  12.587  0.2912  0.0803  0.0607
 2467DOPS   C4A28949  30.819   1.391  12.124  0.1148  0.0455 -0.1241
 2467DOPS   C1B28950  30.136   1.670  13.167  0.1242  0.2125 -0.0430
 2467DOPS   D2B28951  30.292   1.760  12.698  0.2015  0.2520  0.0110
 2467DOPS   C3B28952  30.283   2.224  12.514  0.1127 -0.0899 -0.0530
 2467DOPS   C4B28953  30.139   2.192  12.093  0.0259  0.1610 -0.0478
 2468POSM   NC328954  33.906   5.222  13.912  0.2135  0.1118 -0.1412
 2468POSM   PO428955  33.552   5.389  14.003  0.0937  0.3277  0.3250
 2468POSM   AM128956  33.527   5.474  13.704  0.3106 -0.1017 -0.0175
 2468POSM   AM228957  33.721   5.385  13.465 -0.0775 -0.2999  0.2081
 2468POSM   T1A28958  33.151   5.562  13.368  0.2095 -0.0734  0.0533
 2468POSM   C2A28959  32.845   5.793  13.073 -0.2435 -0.5060  0.0226
 2468POSM   C3A28960  32.625   6.117  12.855  0.1050 -0.1588  0.2924
 2468POSM   C1B28961  33.628   5.291  13.163 -0.0845  0.0241  0.2206
 2468POSM   D2B28962  33.645   5.170  12.726  0.0112 -0.2663  0.0285
 2468POSM   C3B28963  33.537   5.548  12.491  0.2089  0.1305  0.0574
 2468POSM   C4B28964  33.215   5.797  12.249  0.1774  0.0623 -0.1012
 2469POSM   NC328965  30.753  13.049  14.427  0.4508  0.1018  0.1813
 2469POSM   PO428966  30.925  12.655  14.401  0.2652 -0.1432 -0.2171
 2469POSM   AM128967  30.994  12.656  14.067 -0.0327 -0.1787 -0.3064
 2469POSM   AM228968  31.049  12.807  13.818  0.0760 -0.0467 -0.2577
 2469POSM   T1A28969  30.789  12.462  13.686 -0.1293 -0.1703 -0.1640
 2469POSM   C2A28970  30.574  12.461  13.248 -0.4578 -0.1170  0.1982
 2469POSM   C3A28971  30.330  12.527  12.857 -0.0872 -0.0233 -0.0915
 2469POSM   C1B28972  31.011  12.855  13.483 -0.1562  0.0507  0.0690
 2469POSM   D2B28973  31.087  12.862  13.058  0.1133 -0.2328  0.0681
 2469POSM   C3B28974  31.220  12.623  12.720  0.2760  0.0734  0.1832
 2469POSM   C4B28975  31.277  12.622  12.273  0.0351 -0.1455 -0.1283
 2470DOPC   NC328976  23.950   1.175  14.340  0.0850 -0.0261  0.1836
 2470DOPC   PO428977  23.737   1.445  14.166 -0.1377  0.1017  0.2677
 2470DOPC   GL128978  23.633   1.384  13.850 -0.2113 -0.0730 -0.2073
 2470DOPC   GL228979  23.863   1.324  13.677 -0.2643  0.3012 -0.0118
 2470DOPC   C1A28980  23.431   1.586  13.489  0.4463  0.2165  0.2875
 2470DOPC   D2A28981  23.366   1.521  13.098  0.0048 -0.1802  0.2533
 2470DOPC   C3A28982  23.451   1.278  12.710  0.1354  0.3317 -0.1243
 2470DOPC   C4A28983  23.747   1.235  12.405 -0.0237  0.0280 -0.0186
 2470DOPC   C1B28984  24.072   0.994  13.397  0.0072 -0.1574 -0.3404
 2470DOPC   D2B28985  24.358   0.801  13.104 -0.1416 -0.1041  0.2364
 2470DOPC   C3B28986  24.638   0.435  13.029  0.0292 -0.0747  0.2412
 2470DOPC   C4B28987  24.590   0.103  12.786  0.0859 -0.0125  0.0139
 2471DOPS   CNO28988  28.690   6.894  14.351  0.2747 -0.0628  0.3925
 2471DOPS   PO428989  28.733   6.527  14.299  0.1719 -0.1364 -0.1181
 2471DOPS   GL128990  28.596   6.202  14.051  0.2447  0.0629  0.1684
 2471DOPS   GL228991  28.790   6.378  13.832  0.1331 -0.0270  0.2200
 2471DOPS   C1A28992  28.382   6.079  13.601 -0.0600  0.0012  0.0112
 2471DOPS   D2A28993  28.207   5.659  13.447  0.2497  0.2677  0.1526
 2471DOPS   C3A28994  28.087   5.599  13.038 -0.0568  0.0990  0.0718
 2471DOPS   C4A28995  27.857   5.333  12.728  0.0537  0.0581  0.2838
 2471DOPS   C1B28996  28.903   6.371  13.370 -0.0027  0.2066  0.0469
 2471DOPS   D2B28997  28.890   6.279  12.866 -0.2278 -0.0346  0.1388
 2471DOPS   C3B28998  29.246   6.250  12.560 -0.0198 -0.0274  0.2957
 2471DOPS   C4B28999  29.086   6.197  12.096 -0.0470  0.0411  0.1648
 2472DOPE   NH329000   0.616   6.617  14.145  0.0627 -0.1395  0.2675
 2472DOPE   PO429001   0.414   6.537  13.875 -0.2583 -0.0618  0.1632
 2472DOPE   GL129002   0.354   6.793  13.635 -0.0250 -0.0484 -0.2975
 2472DOPE   GL229003   0.116   6.741  13.407  0.1766  0.0594 -0.1372
 2472DOPE   C1A29004   0.483   6.906  13.174  0.0230 -0.0952 -0.1332
 2472DOPE   D2A29005   0.144   7.158  12.949 -0.2812  0.0243  0.1548
 2472DOPE   C3A29006   0.176   7.527  12.710  0.0422 -0.1604  0.1401
 2472DOPE   C4A29007   0.076   7.767  12.406 -0.0482  0.2183 -0.1240
 2472DOPE   C1B29008   0.310   6.466  13.116  0.2452  0.0997  0.0320
 2472DOPE   D2B29009   0.208   6.286  12.734  0.1155  0.2326 -0.1736
 2472DOPE   C3B29010  -0.125   6.001  12.589  0.3895  0.2808 -0.3962
 2472DOPE   C4B29011  -0.360   5.890  12.223 -0.0151 -0.1850 -0.0362
 2473POSM   NC329012  33.801   3.697  14.125  0.0830 -0.0218 -0.0025
 2473POSM   PO429013  34.084   3.565  13.909  0.1103  0.2163 -0.4908
 2473POSM   AM129014  33.978   3.684  13.650 -0.1273 -0.1368 -0.3259
 2473POSM   AM229015  33.746   3.759  13.494 -0.0516  0.0351 -0.1208
 2473POSM   T1A29016  34.035   3.752  13.120 -0.0933 -0.2692 -0.2689
 2473POSM   C2A29017  33.802   4.076  12.805  0.1531 -0.1150  0.3974
 2473POSM   C3A29018  33.703   4.265  12.395  0.0139 -0.0441  0.1150
 2473POSM   C1B29019  33.715   4.015  13.323 -0.2428 -0.0525  0.1014
 2473POSM   D2B29020  33.800   4.437  13.170  0.0108 -0.0850 -0.5674
 2473POSM   C3B29021  33.452   4.646  12.922  0.1789 -0.1645 -0.0420
 2473POSM   C4B29022  33.401   4.697  12.500 -0.2268  0.1055 -0.2673
 2474POSM   NC329023  32.391   0.921  13.855  0.0502 -0.0843  0.1199
 2474POSM   PO429024  32.787   0.822  13.862 -0.3328 -0.1909 -0.2404
 2474POSM   AM129025  32.751   0.732  13.522 -0.0333 -0.2761 -0.0238
 2474POSM   AM229026  32.833   0.577  13.283  0.3344  0.1178 -0.3132
 2474POSM   T1A29027  32.535   0.888  13.053  0.1588  0.0211 -0.0434
 2474POSM   C2A29028  32.407   1.264  12.911 -0.2466  0.1032  0.3317
 2474POSM   C3A29029  32.064   1.592  12.713 -0.0091 -0.0463 -0.1565
 2474POSM   C1B29030  32.863   0.524  12.982  0.0513  0.2081  0.0839
 2474POSM   D2B29031  32.918   0.625  12.611 -0.1017  0.0912  0.1913
 2474POSM   C3B29032  32.626   0.428  12.301 -0.1011 -0.0633 -0.1363
 2474POSM   C4B29033  32.827   0.338  11.892 -0.0343  0.0507  0.2242
 2475DOPC   NC329034  23.704   8.192  14.402 -0.0386 -0.3197  0.1544
 2475DOPC   PO429035  23.730   8.449  14.126  0.1571  0.1002 -0.2095
 2475DOPC   GL129036  23.639   8.656  13.816 -0.0828 -0.1538  0.1613
 2475DOPC   GL229037  23.621   8.936  13.755 -0.1536 -0.1746  0.1548
 2475DOPC   C1A29038  23.692   8.535  13.364  0.0130  0.3964  0.0966
 2475DOPC   D2A29039  23.795   8.768  13.044  0.3471  0.3574 -0.1232
 2475DOPC   C3A29040  23.821   8.435  12.730 -0.1797 -0.3168  0.0125
 2475DOPC   C4A29041  23.888   8.055  12.522  0.2669  0.1368 -0.1282
 2475DOPC   C1B29042  23.406   9.056  13.360  0.0121 -0.0150  0.0261
 2475DOPC   D2B29043  23.275   8.969  12.967  0.2442  0.0204 -0.0003
 2475DOPC   C3B29044  23.274   9.290  12.647  0.1929  0.1199  0.0872
 2475DOPC   C4B29045  23.010   9.382  12.287  0.0888  0.2470 -0.0224
 2476DOPC   NC329046  23.015   2.192  14.068  0.2616 -0.1693  0.1221
 2476DOPC   PO429047  22.824   2.458  14.111 -0.1924 -0.2726 -0.0114
 2476DOPC   GL129048  22.934   2.355  13.677 -0.0133 -0.1483 -0.1481
 2476DOPC   GL229049  22.749   2.451  13.508  0.1674 -0.1864 -0.2212
 2476DOPC   C1A29050  23.351   2.408  13.588 -0.3908  0.0682  0.0280
 2476DOPC   D2A29051  23.770   2.347  13.303  0.2373  0.0429 -0.0019
 2476DOPC   C3A29052  23.760   2.624  12.897 -0.0787  0.3604 -0.0252
 2476DOPC   C4A29053  23.763   2.721  12.438  0.1096 -0.1432 -0.1696
 2476DOPC   C1B29054  22.831   2.402  13.058  0.2120  0.3561 -0.0417
 2476DOPC   D2B29055  22.755   2.303  12.610 -0.0019 -0.2815  0.1331
 2476DOPC   C3B29056  22.871   1.953  12.370  0.2704  0.4111 -0.2148
 2476DOPC   C4B29057  22.576   1.672  12.148 -0.2412  0.0416  0.2278
 2477POSM   NC329058  27.013   0.869  14.268  0.0282 -0.2635  0.1923
 2477POSM   PO429059  27.360   0.769  14.127 -0.1348  0.0928  0.2946
 2477POSM   AM129060  27.232   0.837  13.827 -0.1655  0.1690 -0.1328
 2477POSM   AM229061  26.974   0.850  13.663  0.0411 -0.0153  0.0520
 2477POSM   T1A29062  27.396   1.040  13.398 -0.1137 -0.4046 -0.2477
 2477POSM   C2A29063  27.634   1.124  12.982  0.4772 -0.0867 -0.2046
 2477POSM   C3A29064  27.516   1.225  12.516 -0.0677  0.0803 -0.2576
 2477POSM   C1B29065  27.094   0.699  13.381 -0.0425  0.3413 -0.0946
 2477POSM   D2B29066  27.411   0.610  13.033  0.2048 -0.2966 -0.1049
 2477POSM   C3B29067  27.365   0.755  12.580  0.0420 -0.2535  0.0173
 2477POSM   C4B29068  27.058   0.752  12.262 -0.0461  0.1724  0.1781
 2478POSM   NC329069   4.392   3.183  13.917 -0.0004  0.2958  0.1130
 2478POSM   PO429070   4.113   3.416  13.791 -0.0512  0.0612  0.0842
 2478POSM   AM129071   4.187   3.612  13.511 -0.3682  0.4217 -0.0766
 2478POSM   AM229072   4.095   3.705  13.275  0.0613 -0.3829 -0.0053
 2478POSM   T1A29073   4.600   3.691  13.242 -0.1111 -0.0660 -0.0048
 2478POSM   C2A29074   5.029   3.609  13.341 -0.2793  0.0402 -0.1647
 2478POSM   C3A29075   5.450   3.788  13.177  0.0776 -0.0200  0.3046
 2478POSM   C1B29076   3.910   3.674  12.929  0.4427  0.2198  0.2364
 2478POSM   D2B29077   3.526   3.754  12.698  0.2367  0.1587  0.1130
 2478POSM   C3B29078   3.565   3.934  12.249  0.0465  0.2797 -0.1795
 2478POSM   C4B29079   3.918   4.012  11.958  0.1446 -0.3448  0.1781
 2479DOPE   NH329080   2.309   6.727  13.918 -0.0208 -0.1062 -0.0728
 2479DOPE   PO429081   2.215   6.945  13.711  0.1415 -0.0070  0.2090
 2479DOPE   GL129082   2.385   7.020  13.292 -0.2522 -0.0760  0.3888
 2479DOPE   GL229083   2.286   6.719  13.237  0.0330  0.0796 -0.5574
 2479DOPE   C1A29084   2.853   7.045  13.164 -0.0613  0.0363 -0.0678
 2479DOPE   D2A29085   3.308   7.124  13.221 -0.0104  0.0420 -0.1226
 2479DOPE   C3A29086   3.574   6.712  13.286  0.1670 -0.1941 -0.0851
 2479DOPE   C4A29087   3.770   6.411  13.013 -0.3731 -0.2302  0.1008
 2479DOPE   C1B29088   2.065   6.976  12.929 -0.1262 -0.0957  0.4142
 2479DOPE   D2B29089   2.060   7.244  12.600  0.1166  0.0617  0.0276
 2479DOPE   C3B29090   1.826   7.240  12.181  0.0230  0.0660 -0.0977
 2479DOPE   C4B29091   1.447   7.444  12.002  0.1368 -0.2662  0.1383
 2480DOPC   NC329092  32.267   4.607  14.173 -0.2319 -0.2978 -0.0944
 2480DOPC   PO429093  32.155   4.302  13.926 -0.3646 -0.1121  0.1476
 2480DOPC   GL129094  32.479   4.305  13.664 -0.2750 -0.2970 -0.3686
 2480DOPC   GL229095  32.290   4.427  13.475  0.2726  0.1268  0.2208
 2480DOPC   C1A29096  32.772   4.307  13.246  0.0011 -0.1247  0.0435
 2480DOPC   D2A29097  32.663   4.403  12.818 -0.0185 -0.0204  0.1938
 2480DOPC   C3A29098  32.593   4.251  12.392 -0.3361  0.1151  0.0228
 2480DOPC   C4A29099  32.575   4.410  12.001  0.0103  0.2629 -0.1900
 2480DOPC   C1B29100  32.498   4.748  13.205 -0.1276  0.0656 -0.0671
 2480DOPC   D2B29101  32.534   4.939  12.776  0.1085  0.2087 -0.0925
 2480DOPC   C3B29102  32.749   4.775  12.348  0.0248 -0.0052 -0.0456
 2480DOPC   C4B29103  33.032   4.611  12.122  0.0863 -0.0037  0.1029
 2481DOPE   NH329104  31.625   6.698  14.105 -0.0090 -0.2637 -0.1304
 2481DOPE   PO429105  31.528   6.417  14.012 -0.0409 -0.1123  0.0819
 2481DOPE   GL129106  31.341   6.315  13.610  0.1921 -0.1682 -0.0668
 2481DOPE   GL229107  31.049   6.350  13.704  0.0801 -0.2059 -0.4385
 2481DOPE   C1A29108  31.523   6.328  13.192 -0.1578 -0.0817 -0.3968
 2481DOPE   D2A29109  31.737   6.441  12.830  0.0223  0.0495 -0.3148
 2481DOPE   C3A29110  31.491   6.417  12.437  0.1658 -0.0881 -0.0389
 2481DOPE   C4A29111  31.485   6.310  12.038 -0.1017  0.0759 -0.0270
 2481DOPE   C1B29112  30.967   6.466  13.232 -0.1325 -0.1223 -0.1215
 2481DOPE   D2B29113  30.791   6.515  12.775  0.0266 -0.2519  0.0786
 2481DOPE   C3B29114  30.984   6.329  12.421 -0.1235 -0.0637 -0.1233
 2481DOPE   C4B29115  31.070   6.015  12.039 -0.2278 -0.0116 -0.0642
 2482DOPE   NH329116  30.862   3.728  14.014 -0.1213  0.0480  0.0071
 2482DOPE   PO429117  31.171   3.672  13.837 -0.2108  0.0684  0.0580
 2482DOPE   GL129118  31.426   3.827  13.468  0.3169  0.1826 -0.1841
 2482DOPE   GL229119  31.278   3.667  13.315  0.2314 -0.3849  0.1164
 2482DOPE   C1A29120  31.377   4.104  13.117  0.1941  0.1515 -0.0386
 2482DOPE   D2A29121  31.554   4.500  12.920  0.2017 -0.1470  0.4980
 2482DOPE   C3A29122  31.514   4.650  12.473 -0.1852  0.3388  0.1427
 2482DOPE   C4A29123  31.772   4.841  12.124 -0.0683  0.0428 -0.1049
 2482DOPE   C1B29124  31.263   3.288  13.071  0.0865 -0.2332 -0.1039
 2482DOPE   D2B29125  31.466   2.929  12.827 -0.0192 -0.0186  0.0043
 2482DOPE   C3B29126  31.749   2.943  12.468 -0.0120  0.1967 -0.0820
 2482DOPE   C4B29127  31.970   2.940  12.071 -0.0876 -0.0606  0.1164
 2483DOPE   NH329128  29.707   5.492  14.145 -0.0868 -0.1087 -0.0336
 2483DOPE   PO429129  29.868   5.735  13.978 -0.0139  0.1619 -0.0169
 2483DOPE   GL129130  29.542   5.599  13.673  0.0745 -0.3645 -0.1105
 2483DOPE   GL229131  29.687   5.484  13.476 -0.2187  0.0343  0.2066
 2483DOPE   C1A29132  29.211   5.546  13.316  0.3496  0.0203  0.2368
 2483DOPE   D2A29133  29.046   5.243  12.996  0.1150  0.0217 -0.0143
 2483DOPE   C3A29134  28.807   4.846  12.890  0.0173 -0.0572  0.1380
 2483DOPE   C4A29135  28.618   4.505  13.147  0.0606 -0.0999 -0.2725
 2483DOPE   C1B29136  29.689   5.792  13.198 -0.0488 -0.0408  0.4377
 2483DOPE   D2B29137  29.729   6.252  13.020  0.0889  0.1010  0.1400
 2483DOPE   C3B29138  29.787   6.413  12.603 -0.1643 -0.3423  0.0653
 2483DOPE   C4B29139  30.050   6.651  12.330  0.0908  0.2231 -0.0921
 2484DOPS   CNO29140  27.845   8.108  14.251 -0.1452 -0.1620 -0.2763
 2484DOPS   PO429141  28.027   7.812  14.045 -0.1640 -0.0387 -0.1588
 2484DOPS   GL129142  28.156   8.065  13.765 -0.0665  0.1381 -0.0028
 2484DOPS   GL229143  28.413   8.166  13.667  0.0545 -0.2035  0.2867
 2484DOPS   C1A29144  28.016   8.193  13.352 -0.2044  0.0978  0.3713
 2484DOPS   D2A29145  28.036   8.223  12.875 -0.0359 -0.0135 -0.1293
 2484DOPS   C3A29146  27.738   7.953  12.616  0.1479  0.0233  0.0681
 2484DOPS   C4A29147  27.420   7.797  12.385  0.0054 -0.0187  0.1911
 2484DOPS   C1B29148  28.457   7.986  13.178 -0.0709  0.0476 -0.2015
 2484DOPS   D2B29149  28.803   7.721  13.075 -0.3550  0.2998 -0.2280
 2484DOPS   C3B29150  29.036   7.966  12.772 -0.1810 -0.0454  0.1262
 2484DOPS   C4B29151  29.224   8.114  12.316  0.1692 -0.0066  0.0418
 2485DOPE   NH329152  27.130   9.286  14.543 -0.0627  0.1641  0.0938
 2485DOPE   PO429153  27.167   9.577  14.605  0.2966  0.0441  0.0865
 2485DOPE   GL129154  27.096   9.613  14.230 -0.0826  0.2308  0.0781
 2485DOPE   GL229155  27.343   9.489  14.067 -0.0366 -0.0789  0.0185
 2485DOPE   C1A29156  27.372   9.966  14.003 -0.2295 -0.3582 -0.0821
 2485DOPE   D2A29157  27.773  10.163  14.029 -0.0121  0.1764 -0.0170
 2485DOPE   C3A29158  27.970  10.427  13.783 -0.0445 -0.4309  0.2952
 2485DOPE   C4A29159  28.294  10.474  13.476 -0.2541  0.1229 -0.1289
 2485DOPE   C1B29160  27.287   9.643  13.587 -0.0850  0.4877 -0.1039
 2485DOPE   D2B29161  27.458   9.797  13.190 -0.2534  0.1409  0.1928
 2485DOPE   C3B29162  27.442   9.592  12.802  0.3680  0.2944  0.0373
 2485DOPE   C4B29163  27.436   9.731  12.366  0.3392  0.0859 -0.3742
 2486DOPE   NH329164  24.886   8.068  13.534 -0.1076  0.3669  0.0946
 2486DOPE   PO429165  24.584   7.919  13.547  0.1690 -0.0221 -0.0163
 2486DOPE   GL129166  24.566   7.964  13.169 -0.0853  0.2523 -0.0782
 2486DOPE   GL229167  24.582   8.238  13.075  0.0635  0.1605  0.2431
 2486DOPE   C1A29168  24.566   7.649  12.852 -0.1484  0.2558  0.1503
 2486DOPE   D2A29169  24.655   7.436  12.489 -0.1077  0.1454  0.3619
 2486DOPE   C3A29170  24.267   7.087  12.325 -0.1039 -0.1275 -0.0711
 2486DOPE   C4A29171  24.019   6.902  11.978 -0.2054 -0.3935  0.3097
 2486DOPE   C1B29172  24.336   8.029  12.784 -0.3385  0.4154 -0.0578
 2486DOPE   D2B29173  24.419   7.987  12.317 -0.1740  0.0670 -0.0540
 2486DOPE   C3B29174  24.140   8.118  12.005 -0.1221 -0.2457 -0.1207
 2486DOPE   C4B29175  23.981   8.441  11.691 -0.0769 -0.0584 -0.0855
 2487POSM   NC329176  30.491   2.536  14.107 -0.1942  0.0789  0.0609
 2487POSM   PO429177  30.228   2.821  13.959 -0.1810  0.1005 -0.0046
 2487POSM   AM129178  30.202   2.809  13.626  0.4016  0.1345 -0.1653
 2487POSM   AM229179  29.986   2.779  13.477  0.2251 -0.0881 -0.1925
 2487POSM   T1A29180  30.287   2.983  13.171  0.0343  0.0641 -0.0553
 2487POSM   C2A29181  30.278   3.059  12.710  0.0438 -0.0812 -0.0552
 2487POSM   C3A29182  30.318   2.801  12.326  0.1250 -0.3684 -0.0873
 2487POSM   C1B29183  30.009   2.588  13.227 -0.1961 -0.2218  0.0043
 2487POSM   D2B29184  30.030   2.173  12.925  0.4237 -0.0992  0.0639
 2487POSM   C3B29185  29.832   1.799  12.729 -0.1690  0.1076  0.1976
 2487POSM   C4B29186  29.495   1.605  12.488  0.1990  0.0452 -0.0126
 2488POSM   NC329187  28.509   7.396  14.322  0.1260 -0.0559 -0.1432
 2488POSM   PO429188  28.875   7.384  14.297 -0.1043 -0.0825 -0.0896
 2488POSM   AM129189  28.910   7.245  13.998  0.0568 -0.1829  0.0760
 2488POSM   AM229190  28.810   7.013  13.884 -0.1844 -0.1166 -0.0626
 2488POSM   T1A29191  28.989   7.373  13.502 -0.1977  0.0433 -0.0956
 2488POSM   C2A29192  29.270   7.507  13.138  0.2927 -0.1065  0.1205
 2488POSM   C3A29193  29.302   7.559  12.682  0.1350  0.2125 -0.1244
 2488POSM   C1B29194  28.556   7.029  13.662  0.1971  0.0123 -0.1485
 2488POSM   D2B29195  28.385   6.891  13.326 -0.0537 -0.2071  0.0145
 2488POSM   C3B29196  28.193   6.712  12.914 -0.3026  0.1717  0.2747
 2488POSM   C4B29197  27.820   6.546  12.705 -0.2969  0.2155  0.1380
 2489DOPC   NC329198  28.267   6.521  14.405 -0.0485  0.1126  0.1807
 2489DOPC   PO429199  27.887   6.545  14.385  0.1898 -0.1377 -0.1314
 2489DOPC   GL129200  27.851   6.237  14.153  0.1178 -0.1272  0.1932
 2489DOPC   GL229201  28.100   6.269  13.950 -0.1807  0.3874 -0.3638
 2489DOPC   C1A29202  27.626   6.065  13.859 -0.0209 -0.2301 -0.2257
 2489DOPC   D2A29203  27.256   6.121  13.552  0.2264  0.0594  0.2781
 2489DOPC   C3A29204  26.850   6.314  13.621  0.1410  0.0837 -0.0149
 2489DOPC   C4A29205  26.495   6.636  13.596 -0.0453  0.0153 -0.2919
 2489DOPC   C1B29206  28.137   6.518  13.573 -0.1947  0.0540  0.0118
 2489DOPC   D2B29207  27.862   6.771  13.268  0.3905 -0.3857  0.3197
 2489DOPC   C3B29208  27.896   7.137  12.966  0.0996 -0.0280  0.2329
 2489DOPC   C4B29209  28.306   7.299  12.833 -0.3071 -0.1820  0.2407
 2490DOPC   NC329210  29.181  11.750  14.779  0.0054  0.0677  0.2411
 2490DOPC   PO429211  29.556  11.709  14.635  0.2014 -0.2117 -0.1967
 2490DOPC   GL129212  29.771  11.688  14.283  0.0362 -0.0328 -0.5107
 2490DOPC   GL229213  29.778  11.378  14.206 -0.1626 -0.1714  0.2428
 2490DOPC   C1A29214  30.015  11.843  13.919  0.0590  0.0588 -0.1778
 2490DOPC   D2A29215  29.998  11.716  13.518 -0.1252  0.1131  0.2088
 2490DOPC   C3A29216  30.085  11.808  13.102  0.1891  0.0268  0.1303
 2490DOPC   C4A29217  30.047  11.890  12.648  0.2907 -0.1054 -0.0620
 2490DOPC   C1B29218  29.563  11.535  13.787 -0.1996  0.0046 -0.0933
 2490DOPC   D2B29219  29.488  11.672  13.382  0.2460 -0.0333 -0.1487
 2490DOPC   C3B29220  29.206  12.017  13.232  0.0935 -0.0846 -0.4436
 2490DOPC   C4B29221  28.997  12.176  12.803 -0.0305 -0.1866 -0.4310
 2491POSM   NC329222  28.608  11.777  15.259  0.1927 -0.0453 -0.4024
 2491POSM   PO429223  28.730  11.858  14.873 -0.0807 -0.3729  0.0437
 2491POSM   AM129224  28.786  11.849  14.545 -0.3958  0.2084 -0.1892
 2491POSM   AM229225  28.944  11.760  14.349 -0.3071 -0.1187  0.1153
 2491POSM   T1A29226  28.586  11.855  14.086  0.1743 -0.2083 -0.3913
 2491POSM   C2A29227  28.226  11.785  13.728  0.0956 -0.2856  0.1720
 2491POSM   C3A29228  28.281  11.384  13.451 -0.1813  0.0250  0.1050
 2491POSM   C1B29229  29.136  11.588  14.131  0.1060  0.0539 -0.0198
 2491POSM   D2B29230  29.193  11.171  13.891  0.3071  0.2613  0.2394
 2491POSM   C3B29231  29.334  11.104  13.448 -0.0614  0.2917  0.1351
 2491POSM   C4B29232  29.361  11.077  12.973  0.1512  0.2430  0.1201
 2492DOPC   NC329233  31.367  34.062  13.860  0.2133  0.2438 -0.0701
 2492DOPC   PO429234  31.361  34.296  13.551 -0.1377 -0.1282  0.0277
 2492DOPC   GL129235  31.706  34.340  13.281 -0.0727  0.0403  0.1184
 2492DOPC   GL229236  31.603  34.530  13.117 -0.0050  0.3255  0.0040
 2492DOPC   C1A29237  31.680  34.188  12.810  0.1679  0.2997  0.1122
 2492DOPC   D2A29238  31.476  34.274  12.441  0.0560 -0.2563  0.2439
 2492DOPC   C3A29239  31.132  34.340  12.184  0.2565  0.0466 -0.0131
 2492DOPC   C4A29240  30.760  34.495  11.906  0.0483  0.0869  0.0104
 2492DOPC   C1B29241  31.485  34.792  12.711 -0.1286  0.0909 -0.1740
 2492DOPC   D2B29242  31.611  35.270  12.576 -0.1074  0.0558 -0.0347
 2492DOPC   C3B29243  31.552  35.626  12.298 -0.1125  0.0773 -0.1359
 2492DOPC   C4B29244  31.414  36.086  12.100 -0.0858  0.0867 -0.0866
 2493POSM   NC329245  22.927   9.215  14.677 -0.2444  0.2492  0.1437
 2493POSM   PO429246  22.970   9.590  14.516 -0.1271 -0.3689  0.1844
 2493POSM   AM129247  22.894   9.445  14.245 -0.2710  0.1438  0.2051
 2493POSM   AM229248  22.871   9.176  14.155 -0.2917  0.0761  0.2578
 2493POSM   T1A29249  22.799   9.417  13.726  0.0029 -0.0803 -0.1692
 2493POSM   C2A29250  22.718   9.676  13.358 -0.1040  0.0917  0.1374
 2493POSM   C3A29251  22.647  10.025  13.071 -0.3784 -0.0749 -0.0702
 2493POSM   C1B29252  22.535   9.139  14.022 -0.2811  0.0539 -0.2111
 2493POSM   D2B29253  22.116   9.182  14.093 -0.2056 -0.0493  0.2767
 2493POSM   C3B29254  21.910   9.415  13.746 -0.0329 -0.1557 -0.2613
 2493POSM   C4B29255  21.884   9.502  13.289 -0.0667  0.0177  0.0499
 2494DOPC   NC329256  27.002   6.733  14.452 -0.3479  0.0731 -0.2944
 2494DOPC   PO429257  26.782   6.732  14.169 -0.3650  0.0347  0.1507
 2494DOPC   GL129258  26.899   6.767  13.802  0.3291 -0.0190 -0.0616
 2494DOPC   GL229259  27.196   6.823  13.839  0.1700 -0.0924  0.2567
 2494DOPC   C1A29260  27.077   6.728  13.334  0.0254  0.2119 -0.1253
 2494DOPC   D2A29261  27.318   6.995  13.034  0.1116  0.0885 -0.2989
 2494DOPC   C3A29262  27.548   6.943  12.626  0.2047  0.0570 -0.2107
 2494DOPC   C4A29263  27.648   6.789  12.200 -0.0318 -0.1494 -0.3732
 2494DOPC   C1B29264  27.389   7.094  13.521 -0.3186  0.0901 -0.2794
 2494DOPC   D2B29265  27.518   7.448  13.272  0.2086 -0.4283 -0.1527
 2494DOPC   C3B29266  27.503   7.448  12.799 -0.2025  0.0593 -0.0605
 2494DOPC   C4B29267  27.775   7.402  12.457  0.1492  0.2399 -0.0829
 2495POSM   NC329268  24.004  11.873  14.249  0.1222 -0.1479 -0.0278
 2495POSM   PO429269  24.290  12.118  14.060  0.0706 -0.1955  0.2445
 2495POSM   AM129270  24.443  12.062  13.744  0.3488 -0.2304  0.0951
 2495POSM   AM229271  24.637  12.132  13.525  0.0089 -0.4370  0.3074
 2495POSM   T1A29272  24.308  11.807  13.319  0.1097  0.0846 -0.2667
 2495POSM   C2A29273  24.333  11.358  13.085 -0.0957 -0.3264  0.4359
 2495POSM   C3A29274  24.234  11.339  12.643  0.2105  0.0735  0.1984
 2495POSM   C1B29275  24.785  12.198  13.268 -0.1321 -0.0851  0.2194
 2495POSM   D2B29276  24.960  12.460  12.886  0.0453 -0.1906 -0.0428
 2495POSM   C3B29277  24.541  12.578  12.647 -0.0923  0.1600 -0.1259
 2495POSM   C4B29278  24.116  12.596  12.415 -0.2844  0.1142  0.1467
 2496DOPE   NH329279  28.475  10.252  14.802 -0.1645  0.2924  0.0303
 2496DOPE   PO429280  28.338  10.529  14.693 -0.2664 -0.1275 -0.0586
 2496DOPE   GL129281  28.288  10.831  14.421 -0.0356 -0.1941  0.3457
 2496DOPE   GL229282  28.173  11.080  14.505  0.1078 -0.3727  0.1362
 2496DOPE   C1A29283  28.575  11.118  14.203 -0.1998  0.1206  0.1405
 2496DOPE   D2A29284  28.720  11.376  13.903  0.1432 -0.0034  0.1224
 2496DOPE   C3A29285  28.753  11.326  13.453 -0.0437 -0.1961  0.0898
 2496DOPE   C4A29286  28.908  10.972  13.187 -0.1295 -0.2007  0.0085
 2496DOPE   C1B29287  28.152  11.164  14.056  0.0543  0.1851 -0.0664
 2496DOPE   D2B29288  28.133  10.950  13.631 -0.2289  0.2726  0.2204
 2496DOPE   C3B29289  28.430  10.948  13.253  0.1015 -0.1247  0.0875
 2496DOPE   C4B29290  28.583  11.332  12.993 -0.4549 -0.0813  0.0783
 2497DOPC   NC329291  32.206  34.392  13.533 -0.0304 -0.0596  0.1010
 2497DOPC   PO429292  32.263  34.687  13.406 -0.2236 -0.1027 -0.0889
 2497DOPC   GL129293  32.112  34.895  13.124 -0.2520  0.3576 -0.3423
 2497DOPC   GL229294  32.082  34.676  12.910  0.0263 -0.0367  0.2212
 2497DOPC   C1A29295  31.649  35.053  13.141 -0.1463 -0.0421  0.2021
 2497DOPC   D2A29296  31.241  35.278  13.098 -0.1384  0.0633  0.3092
 2497DOPC   C3A29297  31.009  35.525  12.758  0.0827  0.2724 -0.1330
 2497DOPC   C4A29298  30.919  35.596  12.328 -0.2753  0.0664  0.0290
 2497DOPC   C1B29299  31.865  34.562  12.550  0.0325  0.1443 -0.0554
 2497DOPC   D2B29300  31.644  34.812  12.269 -0.0621 -0.0986 -0.1946
 2497DOPC   C3B29301  31.387  34.870  11.900  0.0600 -0.2171  0.1357
 2497DOPC   C4B29302  31.151  34.731  11.495 -0.2249 -0.1498  0.1585
 2498DOPC   NC329303  29.515   0.267  13.633 -0.0689  0.0769  0.1059
 2498DOPC   PO429304  29.106   0.357  13.627  0.2474 -0.1254  0.0416
 2498DOPC   GL129305  29.254  -0.032  13.360 -0.1843 -0.1035 -0.4398
 2498DOPC   GL229306  29.434   0.190  13.137 -0.3236  0.0186  0.3071
 2498DOPC   C1A29307  29.359  -0.281  12.993  0.2752 -0.1057 -0.0009
 2498DOPC   D2A29308  29.460  -0.444  12.551  0.1036 -0.1287  0.1002
 2498DOPC   C3A29309  29.516  -0.055  12.301  0.0032 -0.0228 -0.0799
 2498DOPC   C4A29310  29.906   0.212  12.308 -0.0089  0.2857 -0.0657
 2498DOPC   C1B29311  29.401   0.105  12.737 -0.1959 -0.3309  0.1484
 2498DOPC   D2B29312  29.023   0.042  12.433  0.3559  0.0154  0.2148
 2498DOPC   C3B29313  29.098  -0.040  11.995  0.2647 -0.2849  0.3515
 2498DOPC   C4B29314  29.338  -0.218  11.659  0.1445 -0.3274  0.3974
 2499DOPC   NC329315  25.755   5.577  13.683 -0.1859  0.0994  0.1094
 2499DOPC   PO429316  26.091   5.309  13.721  0.0435  0.1911 -0.1820
 2499DOPC   GL129317  26.265   5.535  13.342  0.5017 -0.3797  0.2024
 2499DOPC   GL229318  26.292   5.764  13.475  0.0921 -0.3261  0.1162
 2499DOPC   C1A29319  26.203   5.801  12.959 -0.0302 -0.2988 -0.1157
 2499DOPC   D2A29320  26.099   6.257  12.942 -0.1648 -0.0759 -0.0177
 2499DOPC   C3A29321  26.290   6.567  12.682  0.2133 -0.2407 -0.0779
 2499DOPC   C4A29322  26.604   6.830  12.406  0.3259  0.1589 -0.4129
 2499DOPC   C1B29323  26.326   6.202  13.386 -0.4110 -0.3782 -0.1080
 2499DOPC   D2B29324  26.502   6.496  13.113 -0.2253  0.0563 -0.0488
 2499DOPC   C3B29325  26.349   6.939  13.006 -0.1728 -0.1320 -0.1784
 2499DOPC   C4B29326  26.517   7.252  12.714 -0.1943  0.0101 -0.3652
 2500DOPC   NC329327   0.211   3.436  13.612  0.1161  0.1915 -0.4660
 2500DOPC   PO429328   0.181   3.806  13.731 -0.2658 -0.0693 -0.1713
 2500DOPC   GL129329  -0.041   4.167  13.585 -0.1450  0.0593 -0.1171
 2500DOPC   GL229330   0.051   4.008  13.321 -0.0294  0.1437  0.2917
 2500DOPC   C1A29331   0.052   4.488  13.187  0.4102  0.1016 -0.0582
 2500DOPC   D2A29332   0.261   4.502  12.756 -0.2717  0.0327 -0.1043
 2500DOPC   C3A29333   0.009   4.321  12.409  0.2119  0.0851 -0.1074
 2500DOPC   C4A29334  -0.140   4.052  12.055 -0.0785 -0.0068  0.0142
 2500DOPC   C1B29335   0.083   4.029  12.857 -0.0632  0.1600 -0.0668
 2500DOPC   D2B29336   0.085   3.743  12.444 -0.2242  0.2504  0.0101
 2500DOPC   C3B29337   0.206   3.356  12.618  0.0669  0.3812  0.1868
 2500DOPC   C4B29338  -0.122   3.096  12.485 -0.2164  0.0909  0.3238
 2501DOPS   CNO29339  27.649   8.874  14.479 -0.2245 -0.1101  0.1646
 2501DOPS   PO429340  27.389   8.760  14.276  0.2017  0.0412  0.4052
 2501DOPS   GL129341  27.535   9.023  13.966  0.0707  0.0471 -0.0381
 2501DOPS   GL229342  27.300   9.083  13.813 -0.1962 -0.1479  0.2734
 2501DOPS   C1A29343  27.682   9.359  13.714  0.2319 -0.2620 -0.0770
 2501DOPS   D2A29344  27.846   9.474  13.294  0.2447 -0.0459  0.5409
 2501DOPS   C3A29345  27.892   9.832  13.010 -0.1352  0.2417 -0.1957
 2501DOPS   C4A29346  27.985  10.274  13.123 -0.4708  0.3148 -0.2965
 2501DOPS   C1B29347  27.616   8.919  13.486 -0.1701 -0.1140 -0.0458
 2501DOPS   D2B29348  27.893   8.662  13.226  0.2154 -0.0891  0.0845
 2501DOPS   C3B29349  28.148   8.982  13.072  0.2074  0.2542 -0.0093
 2501DOPS   C4B29350  28.299   9.402  13.045  0.1347 -0.1837  0.0060
 2502DOPC   NC329351  30.566   6.322  14.169  0.1675 -0.0355  0.3294
 2502DOPC   PO429352  30.482   5.969  14.134 -0.0929  0.1601  0.0703
 2502DOPC   GL129353  30.202   6.099  13.817  0.0691  0.3369  0.0470
 2502DOPC   GL229354  30.158   6.337  13.738 -0.0954  0.1097 -0.0242
 2502DOPC   C1A29355  30.079   6.064  13.356 -0.2705  0.1169  0.0030
 2502DOPC   D2A29356  30.136   5.953  12.866  0.1874 -0.1854 -0.0115
 2502DOPC   C3A29357  30.250   5.686  12.506  0.2008  0.1646 -0.1425
 2502DOPC   C4A29358  30.618   5.434  12.258  0.2823  0.0508 -0.1348
 2502DOPC   C1B29359  29.929   6.569  13.379 -0.1152  0.5149 -0.5318
 2502DOPC   D2B29360  29.760   6.874  13.128 -0.0782  0.0153 -0.1729
 2502DOPC   C3B29361  29.748   7.325  13.058  0.0821 -0.0328  0.0505
 2502DOPC   C4B29362  29.656   7.825  12.994  0.0554  0.1503 -0.0421
 2503DOPS   CNO29363  34.099   5.449  14.346 -0.2057 -0.0108 -0.1917
 2503DOPS   PO429364  34.146   5.625  13.982  0.0870  0.0638 -0.1460
 2503DOPS   GL129365  34.225   5.698  13.540 -0.1491  0.0999  0.1144
 2503DOPS   GL229366  34.198   5.466  13.452 -0.0063  0.1003  0.2588
 2503DOPS   C1A29367  34.107   6.076  13.266 -0.4793 -0.1353 -0.0775
 2503DOPS   D2A29368  34.159   6.234  12.846 -0.0385  0.1659  0.0854
 2503DOPS   C3A29369  33.864   6.039  12.546 -0.0904 -0.0143 -0.0963
 2503DOPS   C4A29370  33.675   5.911  12.160 -0.0523  0.0081  0.2471
 2503DOPS   C1B29371  34.137   5.213  13.099  0.0239 -0.0317  0.2012
 2503DOPS   D2B29372  34.298   5.093  12.587  0.1123  0.1400 -0.2329
 2503DOPS   C3B29373  33.984   5.053  12.230  0.1656 -0.1349  0.0394
 2503DOPS   C4B29374  33.560   5.241  12.039 -0.2186  0.0504 -0.4814
 2504POSM   NC329375  33.037  32.626  13.571  0.0150 -0.0856  0.1382
 2504POSM   PO429376  33.053  32.218  13.588 -0.0567 -0.0352 -0.0234
 2504POSM   AM129377  32.885  32.236  13.330 -0.1347 -0.2186  0.1158
 2504POSM   AM229378  32.711  32.430  13.210 -0.0882  0.1253  0.0269
 2504POSM   T1A29379  32.536  31.974  13.056  0.2386 -0.1353  0.2505
 2504POSM   C2A29380  32.443  31.578  12.805 -0.1098 -0.0053  0.0631
 2504POSM   C3A29381  32.270  31.581  12.359  0.2497  0.4388 -0.0237
 2504POSM   C1B29382  32.587  32.419  12.868 -0.0308 -0.1643 -0.1620
 2504POSM   D2B29383  32.529  32.478  12.359 -0.2512 -0.0844  0.0691
 2504POSM   C3B29384  32.688  32.624  11.967  0.0363  0.0015 -0.2271
 2504POSM   C4B29385  32.824  32.400  11.600 -0.0507 -0.0250  0.1618
 2505DOPS   CNO29386  27.591   5.020  13.657 -0.0968 -0.2053  0.3677
 2505DOPS   PO429387  27.241   5.124  13.771 -0.0472 -0.2493 -0.0589
 2505DOPS   GL129388  27.277   5.477  13.546  0.3278 -0.4552 -0.0646
 2505DOPS   GL229389  27.608   5.560  13.631 -0.0846 -0.0175 -0.2273
 2505DOPS   C1A29390  27.208   5.786  13.092  0.0190  0.2245  0.0602
 2505DOPS   D2A29391  27.193   5.993  12.660  0.0112 -0.0815  0.0522
 2505DOPS   C3A29392  27.523   6.256  12.388  0.1296 -0.0158  0.1561
 2505DOPS   C4A29393  27.854   6.200  12.105  0.1940  0.1548  0.1116
 2505DOPS   C1B29394  27.709   5.834  13.297  0.0127 -0.2129  0.0904
 2505DOPS   D2B29395  27.705   5.944  12.829 -0.0638  0.0227  0.1427
 2505DOPS   C3B29396  28.053   6.070  12.593  0.1481  0.2196  0.2809
 2505DOPS   C4B29397  28.417   6.253  12.719 -0.1045  0.0408  0.0452
 2506DOPS   CNO29398  25.670   3.648  13.915  0.0957  0.1072  0.1549
 2506DOPS   PO429399  25.375   3.835  14.104  0.2253  0.4136  0.1163
 2506DOPS   GL129400  25.268   3.841  13.690  0.0213  0.0176 -0.0255
 2506DOPS   GL229401  24.959   3.787  13.798 -0.0198  0.0547 -0.0536
 2506DOPS   C1A29402  25.139   3.871  13.222  0.1144 -0.0472 -0.1600
 2506DOPS   D2A29403  25.182   3.930  12.793  0.1038  0.1507  0.0253
 2506DOPS   C3A29404  25.487   3.658  12.544  0.1621  0.0359  0.1212
 2506DOPS   C4A29405  25.743   3.339  12.400 -0.1682  0.3228  0.2930
 2506DOPS   C1B29406  24.917   3.486  13.450 -0.3743 -0.1803  0.1708
 2506DOPS   D2B29407  24.899   3.456  13.013  0.2034 -0.0769  0.0375
 2506DOPS   C3B29408  25.337   3.316  12.891  0.1822 -0.2186  0.1242
 2506DOPS   C4B29409  25.600   2.992  12.870 -0.3439 -0.0897 -0.2512
 2507DOPE   NH329410  26.983   3.053  14.092 -0.4227  0.0973  0.0290
 2507DOPE   PO429411  26.773   3.320  14.176  0.1682  0.1902  0.3061
 2507DOPE   GL129412  26.734   3.404  13.840 -0.0450 -0.0889 -0.0649
 2507DOPE   GL229413  27.048   3.480  13.800 -0.0201 -0.1007  0.1133
 2507DOPE   C1A29414  26.644   3.325  13.399 -0.0394 -0.2017  0.1438
 2507DOPE   D2A29415  26.717   3.213  12.984 -0.0643  0.1429  0.0097
 2507DOPE   C3A29416  26.975   3.495  12.778  0.2396  0.1825 -0.2740
 2507DOPE   C4A29417  27.419   3.545  12.753 -0.2627  0.1966 -0.0752
 2507DOPE   C1B29418  27.103   3.831  13.501  0.0791 -0.1342 -0.0472
 2507DOPE   D2B29419  27.133   3.939  13.078  0.0755 -0.4228  0.2675
 2507DOPE   C3B29420  26.821   3.939  12.663 -0.1747 -0.5432  0.2132
 2507DOPE   C4B29421  26.956   3.941  12.181 -0.2247  0.0686  0.1372
 2508DOPE   NH329422  33.218   1.111  13.774 -0.0531  0.0575 -0.3271
 2508DOPE   PO429423  32.997   1.162  13.512 -0.1931  0.1585  0.1416
 2508DOPE   GL129424  32.995   1.100  13.124 -0.0885 -0.2043  0.1292
 2508DOPE   GL229425  33.242   0.846  13.044 -0.2571 -0.2753 -0.1281
 2508DOPE   C1A29426  32.853   1.121  12.694  0.1576  0.1024 -0.3685
 2508DOPE   D2A29427  33.118   1.218  12.262  0.2583 -0.0019 -0.0890
 2508DOPE   C3A29428  32.958   1.184  11.863 -0.0413 -0.1900 -0.0468
 2508DOPE   C4A29429  32.807   1.461  11.528  0.0064 -0.3816 -0.4007
 2508DOPE   C1B29430  33.350   0.883  12.567 -0.1351 -0.1953 -0.0245
 2508DOPE   D2B29431  33.117   0.680  12.132 -0.0317  0.3298  0.0361
 2508DOPE   C3B29432  33.376   0.916  11.837 -0.0382  0.2722  0.1574
 2508DOPE   C4B29433  33.631   1.104  11.449 -0.0679 -0.1385 -0.2739
 2509DOPE   NH329434   1.239   7.047  13.727  0.0137  0.3207  0.1748
 2509DOPE   PO429435   1.386   6.781  13.713 -0.0706 -0.3465  0.3962
 2509DOPE   GL129436   1.357   6.751  13.333 -0.1521  0.2142 -0.3796
 2509DOPE   GL229437   1.374   6.990  13.164  0.4180 -0.2559 -0.0538
 2509DOPE   C1A29438   1.269   6.378  13.032  0.2385  0.3966 -0.0690
 2509DOPE   D2A29439   1.274   6.131  12.674  0.0104 -0.2003  0.3326
 2509DOPE   C3A29440   0.903   6.200  12.428  0.0182 -0.2227  0.1035
 2509DOPE   C4A29441   0.519   6.009  12.268 -0.2338 -0.0036  0.3727
 2509DOPE   C1B29442   1.361   7.046  12.702  0.0409 -0.2268 -0.2060
 2509DOPE   D2B29443   1.302   6.974  12.245 -0.1097  0.3495 -0.0613
 2509DOPE   C3B29444   1.363   6.547  12.196  0.0638 -0.1860 -0.2083
 2509DOPE   C4B29445   1.396   6.075  12.133  0.0320  0.2044  0.1721
 2510DOPC   NC329446  30.407  10.385  15.201  0.2191 -0.0409  0.0837
 2510DOPC   PO429447  30.668  10.459  14.899 -0.0758  0.0912  0.4057
 2510DOPC   GL129448  30.519  10.284  14.559 -0.1714 -0.1228  0.3739
 2510DOPC   GL229449  30.742  10.060  14.519 -0.1414  0.1150 -0.1172
 2510DOPC   C1A29450  30.200  10.249  14.248 -0.0639  0.0451 -0.0738
 2510DOPC   D2A29451  30.027  10.036  13.879  0.0890 -0.2125  0.1509
 2510DOPC   C3A29452  29.653   9.906  13.575  0.0649  0.1101  0.2454
 2510DOPC   C4A29453  29.631   9.729  13.144 -0.1014 -0.0407  0.2148
 2510DOPC   C1B29454  30.727  10.208  14.112 -0.0939 -0.0110 -0.0031
 2510DOPC   D2B29455  30.652  10.093  13.707 -0.0229 -0.0737 -0.0516
 2510DOPC   C3B29456  30.231  10.087  13.450  0.1587  0.0928  0.2182
 2510DOPC   C4B29457  29.831  10.285  13.224  0.0439  0.0554  0.1374
 2511DOPC   NC329458   0.277   1.305  13.789 -0.1820  0.1046 -0.0489
 2511DOPC   PO429459   0.482   1.354  13.419  0.1176  0.0809 -0.2025
 2511DOPC   GL129460   0.455   1.270  13.103 -0.0501 -0.1410  0.1367
 2511DOPC   GL229461   0.163   1.270  12.998 -0.1420 -0.0333 -0.1868
 2511DOPC   C1A29462   0.690   1.071  12.730  0.0989  0.0149  0.1249
 2511DOPC   D2A29463   0.872   0.988  12.361 -0.1004 -0.1039 -0.3656
 2511DOPC   C3A29464   0.730   0.681  12.033  0.1572 -0.2924  0.1269
 2511DOPC   C4A29465   0.682   0.595  11.609  0.1889  0.0692 -0.2092
 2511DOPC   C1B29466  -0.006   1.505  12.647 -0.0534 -0.1444  0.2497
 2511DOPC   D2B29467  -0.246   1.688  12.310  0.0461  0.1997 -0.4963
 2511DOPC   C3B29468   0.112   1.606  12.067  0.3551  0.3393 -0.0448
 2511DOPC   C4B29469   0.438   1.601  11.778  0.2127 -0.0229 -0.1915
 2512POSM   NC329470  26.183   7.465  14.150 -0.0316  0.1399  0.0107
 2512POSM   PO429471  26.419   7.174  14.252 -0.0312 -0.0738  0.4488
 2512POSM   AM129472  26.722   7.192  14.111  0.3598  0.6238  0.0255
 2512POSM   AM229473  26.957   7.262  14.206  0.2570  0.0236 -0.0158
 2512POSM   T1A29474  26.851   7.151  13.596 -0.1014  0.1117  0.4293
 2512POSM   C2A29475  26.810   7.078  13.096 -0.0414  0.0586 -0.1537
 2512POSM   C3A29476  26.809   6.687  12.820 -0.2329 -0.0730 -0.2609
 2512POSM   C1B29477  27.164   7.370  13.930 -0.3165 -0.0325 -0.0530
 2512POSM   D2B29478  27.309   7.663  13.625  0.0088 -0.0669  0.1941
 2512POSM   C3B29479  27.235   7.877  13.276 -0.1307  0.1206 -0.1324
 2512POSM   C4B29480  27.276   7.974  12.846  0.3426 -0.0559  0.2435
 2513POSM   NC329481  30.381   9.311  14.847  0.2024  0.1630  0.2238
 2513POSM   PO429482  30.191   9.581  15.079  0.1240  0.4824  0.0379
 2513POSM   AM129483  30.170   9.743  14.776 -0.0887  0.7115 -0.3373
 2513POSM   AM229484  30.314   9.803  14.555  0.1739 -0.1484  0.2232
 2513POSM   T1A29485  29.831   9.924  14.405 -0.0068  0.0532 -0.0689
 2513POSM   C2A29486  29.561   9.930  14.044  0.0889 -0.0149 -0.1793
 2513POSM   C3A29487  29.190   9.912  13.803 -0.0952  0.4443  0.4427
 2513POSM   C1B29488  30.351   9.777  14.221  0.1039  0.0167  0.0576
 2513POSM   D2B29489  30.419   9.663  13.781  0.1080  0.1327 -0.1172
 2513POSM   C3B29490  30.827   9.625  13.609  0.0908 -0.2258 -0.3114
 2513POSM   C4B29491  31.147   9.438  13.275 -0.0019  0.1216  0.0688
 2514DOPE   NH329492  22.682   2.077  14.590  0.3691 -0.2511  0.0425
 2514DOPE   PO429493  22.767   1.827  14.377  0.1897  0.2215 -0.1266
 2514DOPE   GL129494  22.732   1.734  13.975 -0.2265 -0.1440  0.0697
 2514DOPE   GL229495  22.554   1.957  13.844 -0.1445 -0.5288 -0.1852
 2514DOPE   C1A29496  23.038   1.414  13.818 -0.1362  0.1531  0.0524
 2514DOPE   D2A29497  23.311   1.106  13.669 -0.1005  0.0519  0.0072
 2514DOPE   C3A29498  23.557   1.110  13.297  0.0399  0.1513 -0.3385
 2514DOPE   C4A29499  23.780   1.013  12.969 -0.1241 -0.1108 -0.0118
 2514DOPE   C1B29500  22.697   1.617  13.498  0.0871 -0.3190 -0.1095
 2514DOPE   D2B29501  22.986   1.263  13.345  0.0841 -0.0425  0.2562
 2514DOPE   C3B29502  22.700   0.952  13.094  0.1709  0.0453 -0.1736
 2514DOPE   C4B29503  22.373   0.844  12.813  0.0384 -0.0325 -0.1856
 2515DOPE   NH329504  26.561   5.350  13.623 -0.1855 -0.1363  0.2862
 2515DOPE   PO429505  26.836   5.302  13.433  0.0868 -0.0911 -0.0970
 2515DOPE   GL129506  26.654   5.561  13.157 -0.1767 -0.1454  0.2764
 2515DOPE   GL229507  26.698   5.939  13.225 -0.2151  0.3280 -0.1122
 2515DOPE   C1A29508  26.722   5.844  12.768  0.0969 -0.3013  0.2315
 2515DOPE   D2A29509  26.679   6.264  12.544 -0.1311 -0.2437 -0.0016
 2515DOPE   C3A29510  26.265   6.147  12.385 -0.2492 -0.0777  0.1760
 2515DOPE   C4A29511  25.927   5.891  12.553 -0.2136  0.1003  0.0418
 2515DOPE   C1B29512  26.969   6.260  13.031  0.1064  0.1141 -0.0581
 2515DOPE   D2B29513  27.269   6.532  12.734 -0.1074 -0.1716 -0.0611
 2515DOPE   C3B29514  27.107   6.582  12.284  0.1153  0.2158 -0.2852
 2515DOPE   C4B29515  26.684   6.460  12.108 -0.2231 -0.0151  0.2271
 2516DOPE   NH329516  32.073  11.095  14.542  0.1730  0.0856 -0.1474
 2516DOPE   PO429517  32.341  11.104  14.349  0.0199 -0.1791 -0.2654
 2516DOPE   GL129518  32.300  11.046  13.937  0.1818 -0.0302  0.0484
 2516DOPE   GL229519  32.052  11.194  13.931  0.0194  0.0448  0.1930
 2516DOPE   C1A29520  32.334  10.868  13.501  0.2417 -0.1614  0.2908
 2516DOPE   D2A29521  32.341  11.130  13.091  0.3505 -0.1072  0.3193
 2516DOPE   C3A29522  31.923  11.357  12.959 -0.2044  0.1215  0.0485
 2516DOPE   C4A29523  31.713  11.792  12.746 -0.0720 -0.1223 -0.2745
 2516DOPE   C1B29524  32.067  11.303  13.471 -0.3050 -0.2343  0.2060
 2516DOPE   D2B29525  32.114  11.715  13.301  0.1548 -0.1582  0.0542
 2516DOPE   C3B29526  32.227  12.141  13.376  0.2392  0.1945 -0.3020
 2516DOPE   C4B29527  32.507  12.508  13.329 -0.1812  0.2873  0.1021
 2517DOPC   NC329528  22.371   2.657  13.900 -0.1357  0.0267  0.0694
 2517DOPC   PO429529  22.370   3.030  13.980  0.2902  0.1245 -0.2400
 2517DOPC   GL129530  22.573   2.939  13.622  0.2050 -0.0180 -0.1432
 2517DOPC   GL229531  22.410   3.012  13.378 -0.0354 -0.1711  0.3413
 2517DOPC   C1A29532  22.950   2.933  13.381 -0.2688 -0.1249 -0.0620
 2517DOPC   D2A29533  23.051   2.930  12.867  0.1172 -0.0377  0.0592
 2517DOPC   C3A29534  23.177   3.320  12.627 -0.2648 -0.0307  0.2377
 2517DOPC   C4A29535  23.200   3.689  12.347 -0.0296  0.4618 -0.1544
 2517DOPC   C1B29536  22.550   2.824  12.972  0.0155  0.2322 -0.0193
 2517DOPC   D2B29537  22.762   2.784  12.509  0.0517 -0.1529 -0.1589
 2517DOPC   C3B29538  23.071   2.512  12.321 -0.2074 -0.1990  0.1781
 2517DOPC   C4B29539  23.463   2.519  12.011  0.0700  0.2675 -0.1550
 2518DOPC   NC329540  24.105   6.422  14.034  0.0075 -0.0862  0.2215
 2518DOPC   PO429541  24.370   6.671  13.873 -0.0852  0.0321 -0.0942
 2518DOPC   GL129542  24.267   6.493  13.561 -0.0590 -0.3766  0.4976
 2518DOPC   GL229543  24.089   6.757  13.508 -0.0393 -0.0321 -0.4413
 2518DOPC   C1A29544  24.518   6.195  13.264  0.2123 -0.0020 -0.0792
 2518DOPC   D2A29545  24.526   5.935  12.849  0.2340  0.4222  0.4044
 2518DOPC   C3A29546  24.650   5.482  12.950  0.2577  0.0242  0.0401
 2518DOPC   C4A29547  24.814   5.092  12.760  0.2110 -0.0573 -0.3142
 2518DOPC   C1B29548  24.080   6.436  13.152  0.1263 -0.0752 -0.1655
 2518DOPC   D2B29549  24.212   6.314  12.768 -0.1944  0.1114  0.2214
 2518DOPC   C3B29550  24.100   6.015  12.468 -0.0724 -0.2147  0.0086
 2518DOPC   C4B29551  24.202   5.578  12.517  0.1824  0.0761 -0.0162
 2519POSM   NC329552  30.368   0.723  13.998 -0.1641  0.0706  0.2054
 2519POSM   PO429553  30.488   0.463  13.707 -0.1167  0.0353  0.1862
 2519POSM   AM129554  30.495   0.576  13.413  0.0746  0.1586  0.0199
 2519POSM   AM229555  30.303   0.658  13.205  0.0064 -0.3592 -0.1380
 2519POSM   T1A29556  30.764   0.499  13.022  0.0282  0.0568 -0.1646
 2519POSM   C2A29557  30.981   0.314  12.666 -0.0792  0.0411 -0.0587
 2519POSM   C3A29558  31.235   0.442  12.353  0.1362  0.1092  0.1191
 2519POSM   C1B29559  30.186   0.777  12.924 -0.0372 -0.0765 -0.1630
 2519POSM   D2B29560  30.105   0.799  12.451  0.0984 -0.0977  0.1889
 2519POSM   C3B29561  30.248   0.496  12.138  0.1962 -0.3218  0.0844
 2519POSM   C4B29562  30.454   0.307  11.792  0.0694 -0.1241  0.1294
 2520DOPC   NC329563  27.843  12.664  14.054 -0.1704 -0.1676  0.0808
 2520DOPC   PO429564  27.512  12.805  14.064  0.3932 -0.1733  0.0974
 2520DOPC   GL129565  27.480  12.563  13.807 -0.4422  0.1566  0.0037
 2520DOPC   GL229566  27.441  12.316  13.909 -0.3194  0.2263 -0.0702
 2520DOPC   C1A29567  27.592  12.672  13.362 -0.2856  0.2964 -0.1858
 2520DOPC   D2A29568  27.876  12.844  13.085  0.0798  0.2045 -0.3525
 2520DOPC   C3A29569  28.252  12.675  12.942  0.1521 -0.0498  0.1538
 2520DOPC   C4A29570  28.171  12.696  12.467 -0.1971 -0.4004  0.1054
 2520DOPC   C1B29571  27.748  12.140  13.615  0.0959  0.3110  0.3763
 2520DOPC   D2B29572  27.886  11.867  13.198 -0.0359 -0.0538  0.0959
 2520DOPC   C3B29573  27.683  11.844  12.815 -0.0403 -0.0980  0.1306
 2520DOPC   C4B29574  27.815  11.878  12.381 -0.2540  0.2363 -0.2909
 2521DOPE   NH329575  30.404   3.269  13.575 -0.2527  0.2818  0.0770
 2521DOPE   PO429576  30.604   3.534  13.675  0.1047 -0.1703  0.1512
 2521DOPE   GL129577  30.841   3.531  13.456 -0.1095 -0.0786  0.3231
 2521DOPE   GL229578  30.965   3.250  13.468 -0.1494  0.2717 -0.1167
 2521DOPE   C1A29579  30.934   3.691  13.030  0.2218  0.0538  0.0782
 2521DOPE   D2A29580  31.374   3.691  12.756 -0.0316 -0.0780  0.1571
 2521DOPE   C3A29581  31.278   3.278  12.532  0.1020 -0.2813  0.2440
 2521DOPE   C4A29582  31.219   2.834  12.337 -0.1526 -0.0929 -0.2261
 2521DOPE   C1B29583  30.706   3.193  13.027  0.0926  0.1089 -0.1477
 2521DOPE   D2B29584  30.775   3.070  12.614  0.2712 -0.3864 -0.0497
 2521DOPE   C3B29585  30.809   3.244  12.237 -0.1851  0.0132 -0.1070
 2521DOPE   C4B29586  30.530   3.166  11.893  0.0994 -0.2536  0.1313
 2522DOPC   NC329587  28.287   9.452  14.358  0.2309  0.0717  0.3134
 2522DOPC   PO429588  28.086   9.747  14.533  0.1981  0.2650  0.1636
 2522DOPC   GL129589  28.382   9.969  14.296  0.1511 -0.2980 -0.0375
 2522DOPC   GL229590  28.251  10.206  14.224 -0.1643 -0.0360 -0.1767
 2522DOPC   C1A29591  28.624   9.683  14.019 -0.0686  0.2778  0.2380
 2522DOPC   D2A29592  28.980   9.465  13.945 -0.2392 -0.1881 -0.0312
 2522DOPC   C3A29593  29.106   9.356  13.530 -0.1714 -0.0379  0.0514
 2522DOPC   C4A29594  29.209   9.347  13.087 -0.0285  0.2710  0.2294
 2522DOPC   C1B29595  28.270  10.033  13.807  0.2533 -0.0657  0.2140
 2522DOPC   D2B29596  28.294   9.916  13.386  0.0363  0.0715  0.0887
 2522DOPC   C3B29597  28.543  10.152  13.109 -0.0909 -0.0057  0.0046
 2522DOPC   C4B29598  28.621  10.606  13.011  0.2903  0.0474  0.3383
 2523DOPE   NH329599  24.293   9.291  13.900 -0.2600  0.1625 -0.1021
 2523DOPE   PO429600  24.074   9.158  13.747  0.2022  0.3682  0.0678
 2523DOPE   GL129601  24.150   9.134  13.288 -0.0695  0.3547  0.0923
 2523DOPE   GL229602  24.208   9.372  13.187 -0.0094  0.1074 -0.0938
 2523DOPE   C1A29603  24.185   8.963  12.861  0.0614 -0.0395  0.1649
 2523DOPE   D2A29604  24.357   9.005  12.432  0.3352  0.0923 -0.2937
 2523DOPE   C3A29605  24.621   9.332  12.318 -0.2752  0.4370  0.1236
 2523DOPE   C4A29606  24.775   9.658  11.991  0.1411  0.1147  0.0111
 2523DOPE   C1B29607  23.800   9.277  13.039 -0.2261 -0.1765 -0.0348
 2523DOPE   D2B29608  23.739   9.144  12.611 -0.3297  0.0384 -0.2342
 2523DOPE   C3B29609  23.813   8.809  12.366 -0.1361  0.0045  0.1557
 2523DOPE   C4B29610  23.770   8.414  12.228 -0.1163  0.2178 -0.2106
 2524DOPE   NH329611  32.195  33.213  13.546 -0.3268  0.3606 -0.2352
 2524DOPE   PO429612  32.433  33.164  13.732 -0.0383 -0.0322  0.0044
 2524DOPE   GL129613  32.611  32.829  13.471  0.1287  0.0577 -0.0249
 2524DOPE   GL229614  32.436  32.879  13.244 -0.0473 -0.0375  0.1735
 2524DOPE   C1A29615  32.873  32.887  13.080  0.0773  0.1164 -0.3289
 2524DOPE   D2A29616  32.966  32.702  12.614  0.0429  0.0063 -0.3000
 2524DOPE   C3A29617  32.996  32.989  12.229  0.0072  0.2992  0.0279
 2524DOPE   C4A29618  32.866  33.094  11.821  0.1760 -0.3276 -0.2038
 2524DOPE   C1B29619  32.531  32.976  12.723  0.3052  0.1775  0.1775
 2524DOPE   D2B29620  32.530  32.988  12.293 -0.1679 -0.0199  0.3478
 2524DOPE   C3B29621  32.482  33.329  12.010  0.1792 -0.1984 -0.0555
 2524DOPE   C4B29622  32.495  33.455  11.580 -0.1700 -0.3440  0.0295
 2525DOPC   NC329623  26.263   3.608  13.686 -0.0006 -0.3930 -0.0582
 2525DOPC   PO429624  26.269   3.305  13.959  0.0238  0.1598 -0.2627
 2525DOPC   GL129625  26.162   3.181  13.663  0.2674  0.1204  0.1918
 2525DOPC   GL229626  25.874   3.247  13.642 -0.2224 -0.1860 -0.2804
 2525DOPC   C1A29627  26.326   2.956  13.294  0.0592 -0.0937 -0.4104
 2525DOPC   D2A29628  26.462   2.678  12.951 -0.0148  0.0342 -0.1169
 2525DOPC   C3A29629  26.571   2.910  12.585  0.1205 -0.0421  0.0353
 2525DOPC   C4A29630  26.847   3.037  12.237 -0.4005 -0.0888 -0.2000
 2525DOPC   C1B29631  25.943   3.379  13.225  0.0785  0.0530 -0.0612
 2525DOPC   D2B29632  26.222   3.250  12.921 -0.0529  0.1936  0.1273
 2525DOPC   C3B29633  26.214   3.229  12.479 -0.1309  0.2674  0.2402
 2525DOPC   C4B29634  26.294   3.317  12.081 -0.1281 -0.0524  0.0556
 2526DOPC   NC329635  28.600   4.050  13.384  0.1157  0.0458  0.0649
 2526DOPC   PO429636  28.847   4.137  13.685 -0.1742 -0.0755  0.0229
 2526DOPC   GL129637  28.955   4.575  13.514  0.1496 -0.0782  0.4073
 2526DOPC   GL229638  28.733   4.650  13.623 -0.1180  0.2761 -0.0509
 2526DOPC   C1A29639  28.930   5.050  13.412 -0.0785 -0.0877  0.0288
 2526DOPC   D2A29640  28.651   5.400  13.357 -0.2354  0.0573 -0.1586
 2526DOPC   C3A29641  28.580   5.327  12.897  0.1541 -0.1249  0.1104
 2526DOPC   C4A29642  28.700   5.223  12.519  0.0541  0.1930  0.2638
 2526DOPC   C1B29643  28.426   4.940  13.275  0.0558  0.2292 -0.2517
 2526DOPC   D2B29644  28.277   4.971  12.809  0.1980  0.4394 -0.1079
 2526DOPC   C3B29645  28.189   4.511  12.728 -0.1193 -0.0218  0.0800
 2526DOPC   C4B29646  28.321   4.044  12.770  0.2456  0.2058  0.1377
 2527DOPC   NC329647   0.814   4.504  13.789  0.1042 -0.3856  0.0718
 2527DOPC   PO429648   1.198   4.464  13.733  0.3319 -0.0133 -0.5583
 2527DOPC   GL129649   1.292   4.590  13.383  0.0866  0.1741 -0.0685
 2527DOPC   GL229650   1.097   4.469  13.178 -0.1025  0.0353  0.0036
 2527DOPC   C1A29651   1.577   4.770  13.024 -0.0246 -0.1451 -0.1017
 2527DOPC   D2A29652   1.420   4.962  12.613  0.3318 -0.2749  0.1180
 2527DOPC   C3A29653   1.198   4.653  12.365 -0.1886  0.0022  0.3014
 2527DOPC   C4A29654   0.845   4.667  12.088 -0.1122  0.1367 -0.2485
 2527DOPC   C1B29655   1.300   4.455  12.797  0.2541  0.0283 -0.0582
 2527DOPC   D2B29656   1.560   4.326  12.434 -0.1855  0.2843 -0.2151
 2527DOPC   C3B29657   1.754   4.372  12.033 -0.0678 -0.0677  0.1706
 2527DOPC   C4B29658   1.677   4.504  11.613  0.0657 -0.0687  0.1308
 2528DOPC   NC329659  21.191   0.748  14.425 -0.2818 -0.0595 -0.0737
 2528DOPC   PO429660  21.387   0.412  14.301  0.0197  0.0212 -0.0693
 2528DOPC   GL129661  21.189   0.549  14.033  0.2274 -0.0264  0.1346
 2528DOPC   GL229662  20.869   0.533  14.019 -0.2509  0.2597  0.0537
 2528DOPC   C1A29663  21.252   0.423  13.586 -0.2273  0.0507 -0.0488
 2528DOPC   D2A29664  20.862   0.341  13.405  0.0542  0.1503 -0.4303
 2528DOPC   C3A29665  20.864   0.515  12.952 -0.2467  0.1351 -0.0365
 2528DOPC   C4A29666  20.824   0.558  12.508 -0.0123  0.1199 -0.0618
 2528DOPC   C1B29667  20.693   0.164  13.864 -0.0285 -0.1276 -0.1418
 2528DOPC   D2B29668  20.534  -0.054  13.455 -0.0097  0.1632  0.1588
 2528DOPC   C3B29669  20.691   0.013  12.996 -0.0547 -0.0609  0.0936
 2528DOPC   C4B29670  20.705   0.066  12.549 -0.1055  0.2373 -0.2052
 2529DOPC   NC329671  26.384  11.190  14.300 -0.1015  0.0001 -0.4281
 2529DOPC   PO429672  26.271  10.791  14.254  0.1986  0.2087 -0.0892
 2529DOPC   GL129673  26.581  10.663  14.068 -0.2292 -0.0213 -0.3815
 2529DOPC   GL229674  26.509  10.742  13.791  0.2637 -0.1055  0.1190
 2529DOPC   C1A29675  26.703  10.311  13.777  0.2416  0.1251 -0.0811
 2529DOPC   D2A29676  27.023  10.138  13.532  0.1770 -0.0794  0.1194
 2529DOPC   C3A29677  26.811  10.102  13.125 -0.1370 -0.1574 -0.1965
 2529DOPC   C4A29678  26.754   9.907  12.708 -0.0694 -0.1040 -0.1057
 2529DOPC   C1B29679  26.915  10.735  13.573  0.3445  0.0399 -0.0056
 2529DOPC   D2B29680  27.332  10.535  13.621 -0.0076  0.0998 -0.2392
 2529DOPC   C3B29681  27.521  10.130  13.549  0.2270 -0.1876 -0.1157
 2529DOPC   C4B29682  27.794   9.844  13.663  0.3110 -0.1039 -0.1148
 2530DOPE   NH329683  32.806   3.812  14.118 -0.1329  0.0058 -0.0066
 2530DOPE   PO429684  32.917   3.518  14.065 -0.1043  0.2373 -0.1297
 2530DOPE   GL129685  33.048   3.781  13.724  0.2169 -0.0981 -0.1457
 2530DOPE   GL229686  32.780   3.776  13.480 -0.2689  0.0234 -0.1125
 2530DOPE   C1A29687  33.298   3.642  13.351 -0.3865  0.1111 -0.0151
 2530DOPE   D2A29688  33.607   3.479  13.003 -0.1256  0.2580 -0.2449
 2530DOPE   C3A29689  33.417   3.743  12.684  0.2607  0.4641 -0.1478
 2530DOPE   C4A29690  33.328   3.612  12.187 -0.2159  0.0204 -0.3767
 2530DOPE   C1B29691  32.861   3.862  13.017  0.0351  0.0237 -0.0444
 2530DOPE   D2B29692  32.599   3.844  12.626  0.1478  0.2452 -0.1190
 2530DOPE   C3B29693  32.850   3.761  12.276 -0.0445  0.0977  0.4910
 2530DOPE   C4B29694  32.950   3.429  11.957  0.1521  0.1773 -0.0954
 2531DOPE   NH329695  32.086   6.484  13.968  0.2482  0.2268  0.0090
 2531DOPE   PO429696  32.232   6.601  13.734  0.1105  0.2985 -0.1840
 2531DOPE   GL129697  32.269   6.331  13.438  0.0063  0.3497 -0.0087
 2531DOPE   GL229698  31.954   6.189  13.506 -0.1278  0.0581 -0.3381
 2531DOPE   C1A29699  32.306   6.531  13.022 -0.2405 -0.1404  0.3097
 2531DOPE   D2A29700  32.140   6.766  12.630  0.2453  0.2731  0.2012
 2531DOPE   C3A29701  32.468   6.687  12.340  0.0332 -0.0062  0.0177
 2531DOPE   C4A29702  32.936   6.699  12.230 -0.0063  0.0439  0.0124
 2531DOPE   C1B29703  32.074   6.097  13.058 -0.2650 -0.0560 -0.0437
 2531DOPE   D2B29704  32.245   6.251  12.626  0.2207 -0.0141 -0.1563
 2531DOPE   C3B29705  32.485   5.934  12.404  0.1076 -0.2496 -0.0313
 2531DOPE   C4B29706  32.735   5.705  12.110  0.1837  0.0084 -0.2549
 2532POSM   NC329707  30.427   7.307  14.855 -0.0535 -0.3229  0.0316
 2532POSM   PO429708  30.310   7.515  14.537  0.2681 -0.3196 -0.1677
 2532POSM   AM129709  30.391   7.451  14.235  0.2116  0.6007  0.2038
 2532POSM   AM229710  30.295   7.272  14.000  0.1518  0.0501 -0.2768
 2532POSM   T1A29711  30.555   7.738  13.876 -0.1573 -0.3657  0.1497
 2532POSM   C2A29712  30.915   7.672  13.618 -0.0664 -0.0995  0.0473
 2532POSM   C3A29713  31.392   7.653  13.545  0.1069  0.1542  0.2244
 2532POSM   C1B29714  30.376   7.297  13.652  0.0072  0.0405 -0.3420
 2532POSM   D2B29715  30.545   7.507  13.281  0.3969  0.1544  0.1287
 2532POSM   C3B29716  30.364   7.460  12.817  0.2523  0.0658  0.2362
 2532POSM   C4B29717  30.315   7.355  12.391 -0.2632 -0.3265  0.2491
 2533DOPC   NC329718  29.687  34.267  14.306  0.0082  0.3179 -0.4008
 2533DOPC   PO429719  29.976  34.331  14.006  0.3013  0.2676  0.1580
 2533DOPC   GL129720  29.938  34.580  13.701  0.2395 -0.1410  0.0692
 2533DOPC   GL229721  30.020  34.849  13.628  0.0620 -0.0133 -0.0926
 2533DOPC   C1A29722  29.775  34.527  13.272 -0.0853  0.1174  0.1997
 2533DOPC   D2A29723  29.875  34.743  12.856 -0.0893 -0.1957  0.1771
 2533DOPC   C3A29724  30.197  35.004  12.676  0.1815 -0.2528 -0.2734
 2533DOPC   C4A29725  30.581  35.302  12.555  0.0238  0.1035 -0.2579
 2533DOPC   C1B29726  30.254  34.836  13.244 -0.0935  0.0345 -0.0459
 2533DOPC   D2B29727  30.578  34.761  12.884  0.1621  0.0212 -0.2151
 2533DOPC   C3B29728  30.410  34.558  12.511 -0.0131 -0.0342 -0.0390
 2533DOPC   C4B29729  30.262  34.645  12.096 -0.4158  0.0149  0.3122
 2534POSM   NC329730  24.675   1.487  14.047 -0.2256  0.1719 -0.1780
 2534POSM   PO429731  24.265   1.522  14.065  0.0917  0.0982 -0.3833
 2534POSM   AM129732  24.092   1.699  13.833  0.2179 -0.1867 -0.0135
 2534POSM   AM229733  23.893   1.864  13.876  0.0229 -0.0846  0.3034
 2534POSM   T1A29734  23.841   1.792  13.384 -0.0404 -0.0811  0.1895
 2534POSM   C2A29735  23.623   1.997  13.045 -0.2281 -0.1354  0.0603
 2534POSM   C3A29736  23.838   2.195  12.632 -0.0674 -0.1310 -0.0430
 2534POSM   C1B29737  23.563   1.956  13.777  0.2701 -0.0288 -0.1351
 2534POSM   D2B29738  23.086   1.913  13.653 -0.2782  0.0223 -0.1116
 2534POSM   C3B29739  23.078   1.955  13.230  0.3402  0.1734 -0.2117
 2534POSM   C4B29740  23.238   1.913  12.774  0.2834 -0.2369 -0.4855
 2535POSM   NC329741  25.700   9.155  13.909 -0.1738 -0.1341  0.2245
 2535POSM   PO429742  25.375   9.397  13.874  0.2046 -0.2355 -0.0633
 2535POSM   AM129743  25.278   9.441  13.561  0.0272 -0.0329  0.0143
 2535POSM   AM229744  25.022   9.482  13.371  0.2280 -0.0260 -0.1429
 2535POSM   T1A29745  25.401   9.544  13.063  0.1956 -0.1836 -0.3651
 2535POSM   C2A29746  25.468   9.725  12.679  0.1518  0.0866 -0.0188
 2535POSM   C3A29747  25.702   9.549  12.377 -0.0485  0.2674  0.0317
 2535POSM   C1B29748  24.864   9.614  13.083 -0.0623 -0.0363  0.3745
 2535POSM   D2B29749  24.879   9.785  12.668 -0.1132 -0.1201 -0.1707
 2535POSM   C3B29750  25.158   9.749  12.326  0.1433 -0.5617  0.0867
 2535POSM   C4B29751  25.433   9.648  11.983 -0.3694 -0.2738 -0.0087
 2536DOPS   CNO29752  28.251   7.007  14.563  0.0796 -0.2152  0.0142
 2536DOPS   PO429753  28.141   6.984  14.231 -0.2706  0.0828  0.0031
 2536DOPS   GL129754  28.053   6.957  13.873 -0.1759  0.1721 -0.1916
 2536DOPS   GL229755  27.769   6.879  13.828 -0.1876  0.0297 -0.3190
 2536DOPS   C1A29756  27.987   7.242  13.467  0.1824 -0.0557  0.0898
 2536DOPS   D2A29757  27.990   7.621  13.130  0.2664 -0.1562 -0.3861
 2536DOPS   C3A29758  27.678   7.912  13.074 -0.1053 -0.1916 -0.2407
 2536DOPS   C4A29759  27.532   8.352  13.040 -0.2537 -0.2707  0.3264
 2536DOPS   C1B29760  27.581   6.504  13.649 -0.0576 -0.0711 -0.2396
 2536DOPS   D2B29761  27.567   6.343  13.198 -0.1608 -0.2261 -0.3101
 2536DOPS   C3B29762  27.963   6.256  13.067  0.1249 -0.1680  0.0957
 2536DOPS   C4B29763  28.388   6.346  13.199 -0.0246 -0.3245 -0.0650
 2537DOPC   NC329764  24.925  10.007  13.418 -0.1050 -0.1559  0.0842
 2537DOPC   PO429765  24.608  10.092  13.661  0.0973  0.0709  0.0689
 2537DOPC   GL129766  24.506  10.112  13.230 -0.0751  0.3803  0.3215
 2537DOPC   GL229767  24.345   9.914  13.204  0.2812  0.0857  0.0717
 2537DOPC   C1A29768  24.837  10.268  12.952  0.2075 -0.3097 -0.1264
 2537DOPC   D2A29769  25.242  10.140  12.936  0.0362  0.1221  0.1943
 2537DOPC   C3A29770  25.517  10.295  12.654  0.2186 -0.3600 -0.4199
 2537DOPC   C4A29771  25.862  10.461  12.415 -0.2904  0.0524 -0.1536
 2537DOPC   C1B29772  24.437  10.014  12.727 -0.0326 -0.1398 -0.0925
 2537DOPC   D2B29773  24.599  10.031  12.349 -0.1116 -0.2115  0.1125
 2537DOPC   C3B29774  25.010  10.224  12.447  0.0865  0.1933  0.1170
 2537DOPC   C4B29775  25.331  10.438  12.215  0.1295  0.2363 -0.0770
 2538DOPE   NH329776  30.969  10.834  14.885 -0.2784  0.0122 -0.1643
 2538DOPE   PO429777  30.702  10.980  14.739  0.1002  0.1031  0.1049
 2538DOPE   GL129778  30.447  10.680  14.451 -0.0325 -0.1422 -0.0715
 2538DOPE   GL229779  30.291  10.942  14.397 -0.0262  0.0360 -0.2089
 2538DOPE   C1A29780  30.410  10.734  13.992 -0.0357 -0.0718  0.1238
 2538DOPE   D2A29781  30.103  10.657  13.623 -0.0233 -0.1667  0.1726
 2538DOPE   C3A29782  30.202  10.592  13.158  0.2918  0.0558 -0.1243
 2538DOPE   C4A29783  30.368  10.232  12.857  0.0685  0.1247  0.0042
 2538DOPE   C1B29784  29.874  10.876  14.187 -0.2295 -0.0703  0.0351
 2538DOPE   D2B29785  29.678  11.049  13.774  0.0090  0.1380 -0.0661
 2538DOPE   C3B29786  29.327  10.707  13.772  0.3635  0.0079 -0.2022
 2538DOPE   C4B29787  29.252  10.326  14.068  0.1608 -0.0563 -0.0294
 2539DOPE   NH329788  30.704   1.887  13.940  0.2732 -0.0325 -0.2369
 2539DOPE   PO429789  30.779   2.177  13.984  0.0120 -0.0728  0.1951
 2539DOPE   GL129790  30.597   2.288  13.663 -0.3441 -0.0050  0.1924
 2539DOPE   GL229791  30.606   2.040  13.445 -0.3024  0.0419  0.2744
 2539DOPE   C1A29792  30.528   2.588  13.305 -0.0901 -0.0655 -0.4096
 2539DOPE   D2A29793  30.423   2.611  12.861  0.0362 -0.0364  0.0263
 2539DOPE   C3A29794  29.995   2.632  12.623  0.1164 -0.1270 -0.0422
 2539DOPE   C4A29795  29.781   2.618  12.220  0.2417  0.0154 -0.0005
 2539DOPE   C1B29796  30.535   2.111  12.972 -0.1429 -0.1110 -0.0305
 2539DOPE   D2B29797  30.706   1.987  12.548 -0.0531  0.4336  0.2155
 2539DOPE   C3B29798  31.069   2.233  12.350  0.4339 -0.0540  0.1801
 2539DOPE   C4B29799  31.055   2.362  11.896  0.0366  0.1219 -0.2149
 2540DOPC   NC329800  27.866   3.801  13.889 -0.1164 -0.2210  0.0621
 2540DOPC   PO429801  27.799   3.426  13.716  0.0393 -0.1697 -0.1202
 2540DOPC   GL129802  27.944   3.236  13.404  0.0872  0.1109  0.1285
 2540DOPC   GL229803  28.235   3.159  13.505  0.1158  0.0073 -0.1182
 2540DOPC   C1A29804  28.036   3.141  12.964  0.0143  0.1304 -0.3721
 2540DOPC   D2A29805  27.966   3.229  12.514  0.0766  0.1150  0.0323
 2540DOPC   C3A29806  28.333   3.383  12.175  0.2252  0.1621  0.1047
 2540DOPC   C4A29807  28.603   3.237  11.921  0.0071 -0.1028  0.0257
 2540DOPC   C1B29808  28.685   3.351  13.491 -0.4104  0.2477 -0.0543
 2540DOPC   D2B29809  28.930   3.350  13.077 -0.0365  0.0934  0.1401
 2540DOPC   C3B29810  28.810   3.694  12.798  0.1278 -0.2495  0.3358
 2540DOPC   C4B29811  28.640   3.785  12.340  0.0766 -0.1917  0.0982
 2541POSM   NC329812  34.561   4.245  14.444  0.6415 -0.2514  0.0659
 2541POSM   PO429813  34.199   4.331  14.323  0.0232  0.1005 -0.0390
 2541POSM   AM129814  34.111   4.231  14.020  0.1018  0.3905 -0.2400
 2541POSM   AM229815  33.902   4.188  13.863  0.0486  0.0666 -0.1450
 2541POSM   T1A29816  34.196   4.089  13.510 -0.0677 -0.1461 -0.1618
 2541POSM   C2A29817  34.353   4.151  13.074 -0.1789 -0.1470  0.0718
 2541POSM   C3A29818  34.396   4.515  12.731  0.0991  0.1315  0.3244
 2541POSM   C1B29819  33.745   4.389  13.673  0.0739  0.1254  0.0059
 2541POSM   D2B29820  33.394   4.471  13.451  0.1352  0.0104  0.0093
 2541POSM   C3B29821  33.295   4.189  13.055 -0.1299  0.0737 -0.0607
 2541POSM   C4B29822  33.188   4.246  12.572 -0.0170  0.0110  0.1262
 2542POSM   NC329823  24.140  11.261  13.546 -0.3500 -0.1272 -0.0689
 2542POSM   PO429824  24.226  10.917  13.681 -0.3590  0.4660 -0.1251
 2542POSM   AM129825  24.384  10.743  13.418  0.1371  0.0243 -0.5124
 2542POSM   AM229826  24.537  10.799  13.152  0.1523  0.1548 -0.3813
 2542POSM   T1A29827  24.257  10.438  13.004  0.0766 -0.2995  0.0389
 2542POSM   C2A29828  23.985  10.160  12.728 -0.0296  0.2669 -0.0067
 2542POSM   C3A29829  24.099   9.864  12.371 -0.1729  0.1159 -0.0248
 2542POSM   C1B29830  24.637  10.993  12.885 -0.0005  0.1503  0.0679
 2542POSM   D2B29831  24.659  11.116  12.427  0.2372 -0.4208 -0.1938
 2542POSM   C3B29832  24.473  10.713  12.241  0.0775  0.2222  0.0356
 2542POSM   C4B29833  24.538  10.473  12.607 -0.1783  0.1441 -0.2144
 2543DOPC   NC329834  34.456   5.902  14.230 -0.1279  0.2614  0.2411
 2543DOPC   PO429835  34.539   5.900  13.853  0.0535  0.0039 -0.1654
 2543DOPC   GL129836  34.591   5.953  13.468  0.1422 -0.5321  0.3416
 2543DOPC   GL229837  34.766   6.254  13.460  0.1654 -0.0191 -0.0739
 2543DOPC   C1A29838  34.500   5.724  13.078  0.0201  0.1241 -0.2378
 2543DOPC   D2A29839  34.669   5.362  12.939 -0.1600  0.0247 -0.0971
 2543DOPC   C3A29840  34.535   4.937  13.005 -0.0124  0.2344  0.0948
 2543DOPC   C4A29841  34.270   4.622  13.269 -0.1620 -0.1780 -0.0875
 2543DOPC   C1B29842  34.478   6.445  13.143 -0.2002  0.3770  0.0375
 2543DOPC   D2B29843  34.478   6.730  12.764 -0.3575  0.2089  0.0647
 2543DOPC   C3B29844  34.854   6.782  12.473  0.1711 -0.1893 -0.3312
 2543DOPC   C4B29845  35.090   6.507  12.142 -0.1515  0.0181 -0.0941
 2544DOPS   CNO29846  26.298   8.747  14.605 -0.1940  0.3868  0.2600
 2544DOPS   PO429847  26.397   9.081  14.399  0.3264  0.2500  0.1131
 2544DOPS   GL129848  26.542   9.185  13.998 -0.2185 -0.3706 -0.0336
 2544DOPS   GL229849  26.550   8.876  13.822 -0.2058 -0.4244  0.0098
 2544DOPS   C1A29850  26.388   9.342  13.593  0.3190  0.1051 -0.2277
 2544DOPS   D2A29851  26.350   9.213  13.173  0.0957  0.1495  0.0377
 2544DOPS   C3A29852  26.009   8.908  13.098 -0.0706 -0.1269  0.2552
 2544DOPS   C4A29853  25.650   8.647  12.948 -0.1716 -0.0502  0.3362
 2544DOPS   C1B29854  26.893   8.989  13.513 -0.1333 -0.1112 -0.1074
 2544DOPS   D2B29855  27.278   9.214  13.275  0.1016 -0.0339  0.0657
 2544DOPS   C3B29856  27.494   9.030  12.939  0.1025 -0.1566  0.1157
 2544DOPS   C4B29857  27.497   9.195  12.492 -0.1541  0.1509  0.1029
 2545DOPE   NH329858  33.609   2.600  13.672  0.0101 -0.2100 -0.0028
 2545DOPE   PO429859  33.884   2.790  13.618  0.0540  0.0381 -0.1192
 2545DOPE   GL129860  34.116   2.867  13.248  0.0946  0.0203 -0.1295
 2545DOPE   GL229861  34.299   2.746  13.135 -0.1514 -0.2590  0.4550
 2545DOPE   C1A29862  34.099   3.200  12.877 -0.3145 -0.1468 -0.2435
 2545DOPE   D2A29863  33.950   3.616  12.674 -0.1447 -0.0341  0.1145
 2545DOPE   C3A29864  33.904   3.831  12.322  0.0627 -0.1487 -0.0207
 2545DOPE   C4A29865  33.816   3.864  11.921 -0.1095  0.1417  0.2109
 2545DOPE   C1B29866  34.638   2.996  12.938 -0.0361 -0.1491  0.0226
 2545DOPE   D2B29867  35.024   2.876  12.723  0.0740 -0.0521 -0.0572
 2545DOPE   C3B29868  35.040   2.914  12.214 -0.3519 -0.2166 -0.0903
 2545DOPE   C4B29869  35.187   3.127  11.823 -0.0316 -0.0181 -0.0661
 2546DOPS   CNO29870  27.891  10.743  14.712 -0.0041 -0.1399 -0.4141
 2546DOPS   PO429871  27.663  10.943  14.560  0.1555 -0.0183  0.1319
 2546DOPS   GL129872  27.688  10.903  14.180 -0.0553  0.2717  0.3754
 2546DOPS   GL229873  27.937  10.727  14.181 -0.0528 -0.0298 -0.2804
 2546DOPS   C1A29874  27.612  10.928  13.705  0.2380 -0.0864 -0.0305
 2546DOPS   D2A29875  27.755  10.718  13.303 -0.1386  0.0461  0.0009
 2546DOPS   C3A29876  28.067  10.735  12.938 -0.4347 -0.2846 -0.4161
 2546DOPS   C4A29877  28.433  10.983  12.708 -0.0791  0.0052  0.2549
 2546DOPS   C1B29878  28.383  10.657  13.963 -0.3347  0.1350  0.0434
 2546DOPS   D2B29879  28.746  10.342  13.923  0.0626  0.1217 -0.0168
 2546DOPS   C3B29880  28.909  10.012  14.231  0.0450 -0.0943 -0.0919
 2546DOPS   C4B29881  29.215   9.719  14.301  0.0739 -0.1337 -0.2986
 2547DOPS   CNO29882  22.231   0.570  14.433  0.1495  0.1129 -0.1296
 2547DOPS   PO429883  22.118   0.683  14.095  0.4830 -0.3700 -0.0650
 2547DOPS   GL129884  22.007   0.854  13.674  0.2171 -0.1649  0.1210
 2547DOPS   GL229885  21.957   1.104  13.729 -0.2404  0.0194 -0.1412
 2547DOPS   C1A29886  22.239   0.704  13.294 -0.1505 -0.1809 -0.0952
 2547DOPS   D2A29887  22.014   0.499  12.903 -0.1740 -0.2486  0.0334
 2547DOPS   C3A29888  21.757   0.609  12.542  0.0465 -0.0600  0.2284
 2547DOPS   C4A29889  21.339   0.657  12.314 -0.0446  0.3505 -0.2496
 2547DOPS   C1B29890  22.233   1.240  13.336  0.0607 -0.1545 -0.2178
 2547DOPS   D2B29891  22.543   1.466  13.079 -0.2018 -0.0586  0.1124
 2547DOPS   C3B29892  22.943   1.470  12.826  0.2343  0.1322  0.0308
 2547DOPS   C4B29893  23.195   1.537  12.402  0.2488 -0.0186 -0.1900
 2548POSM   NC329894  27.036   7.804  14.053 -0.1045  0.0543  0.1850
 2548POSM   PO429895  26.817   8.091  14.222 -0.2140  0.2510 -0.1111
 2548POSM   AM129896  26.880   8.338  13.981  0.0028  0.0032 -0.0442
 2548POSM   AM229897  27.030   8.562  13.900  0.3561  0.1980  0.0644
 2548POSM   T1A29898  26.658   8.514  13.548 -0.1615  0.0671 -0.0027
 2548POSM   C2A29899  26.633   8.716  13.183  0.2628 -0.0633  0.2758
 2548POSM   C3A29900  26.868   9.092  12.935  0.1455 -0.1863  0.1759
 2548POSM   C1B29901  27.208   8.630  13.615  0.1591  0.0373 -0.1385
 2548POSM   D2B29902  27.240   8.724  13.161  0.0731  0.1190  0.0130
 2548POSM   C3B29903  27.019   8.339  13.053  0.1927  0.0268 -0.2725
 2548POSM   C4B29904  26.585   8.091  13.114  0.0568 -0.1475  0.0917
 2549POSM   NC329905  30.858   4.740  14.147  0.1042  0.1730 -0.1149
 2549POSM   PO429906  30.991   5.093  14.254  0.0093  0.1160  0.0097
 2549POSM   AM129907  30.894   5.168  13.943  0.1917  0.1751  0.2139
 2549POSM   AM229908  30.660   5.062  13.785  0.1862  0.1465 -0.0790
 2549POSM   T1A29909  30.726   5.427  13.469 -0.0006  0.3402 -0.0016
 2549POSM   C2A29910  30.937   5.838  13.268  0.2189  0.2109 -0.1804
 2549POSM   C3A29911  31.178   6.153  12.927  0.0981  0.1658  0.3151
 2549POSM   C1B29912  30.542   4.957  13.465 -0.3859  0.0018  0.2313
 2549POSM   D2B29913  30.715   4.665  13.130  0.0973 -0.1730 -0.0041
 2549POSM   C3B29914  30.723   4.942  12.718 -0.0603  0.2869  0.4004
 2549POSM   C4B29915  30.735   4.968  12.307 -0.1552  0.1387 -0.0267
 2550DOPC   NC329916  24.838   3.361  14.124  0.0877  0.3088  0.2077
 2550DOPC   PO429917  24.609   3.077  14.024 -0.0420  0.2334  0.1260
 2550DOPC   GL129918  24.714   2.857  13.726 -0.0314  0.0361  0.2386
 2550DOPC   GL229919  24.698   2.991  13.474  0.0532  0.1053 -0.0541
 2550DOPC   C1A29920  24.454   2.559  13.483  0.0181  0.1462 -0.0728
 2550DOPC   D2A29921  24.214   2.437  13.088 -0.2395  0.2891  0.0573
 2550DOPC   C3A29922  24.232   2.493  12.627  0.0753  0.2647  0.0140
 2550DOPC   C4A29923  24.426   2.553  12.238  0.2355  0.0866 -0.1142
 2550DOPC   C1B29924  24.681   3.073  13.070  0.0647  0.2530  0.1112
 2550DOPC   D2B29925  24.784   3.140  12.656 -0.2357  0.1258  0.1451
 2550DOPC   C3B29926  25.050   3.438  12.444  0.5012 -0.1736  0.2004
 2550DOPC   C4B29927  25.129   3.860  12.295  0.3448  0.1121  0.0401
 2551POSM   NC329928  31.821   8.438  14.610 -0.0459 -0.1378  0.0882
 2551POSM   PO429929  32.070   8.426  14.309 -0.1037 -0.0563 -0.1713
 2551POSM   AM129930  31.865   8.253  14.106 -0.0980 -0.0141 -0.0808
 2551POSM   AM229931  31.775   8.282  13.844  0.2329 -0.2099 -0.2640
 2551POSM   T1A29932  31.820   7.781  13.889  0.1096  0.0499  0.1293
 2551POSM   C2A29933  31.833   7.478  13.509 -0.2026 -0.3941 -0.1036
 2551POSM   C3A29934  31.645   7.339  13.151 -0.3582 -0.3418  0.1934
 2551POSM   C1B29935  31.461   8.169  13.681  0.1971 -0.1499  0.1166
 2551POSM   D2B29936  31.172   8.090  13.313  0.0205 -0.7851 -0.2922
 2551POSM   C3B29937  31.110   8.486  13.167 -0.0047 -0.3104 -0.2135
 2551POSM   C4B29938  30.938   8.572  12.772 -0.1325 -0.1451 -0.1224
 2552DOPC   NC329939  31.026   8.913  14.068 -0.0357 -0.0837  0.1847
 2552DOPC   PO429940  31.303   8.645  14.135 -0.4337  0.0487 -0.1701
 2552DOPC   GL129941  31.095   8.487  13.856  0.6142 -0.0249 -0.3609
 2552DOPC   GL229942  31.177   8.658  13.616  0.5903  0.3358  0.0767
 2552DOPC   C1A29943  30.751   8.287  13.649 -0.0949 -0.1497  0.2285
 2552DOPC   D2A29944  30.453   8.007  13.432  0.1131 -0.0515  0.0883
 2552DOPC   C3A29945  30.649   7.918  12.991  0.0209  0.1436  0.0973
 2552DOPC   C4A29946  31.008   8.048  12.728  0.3440  0.0194  0.2173
 2552DOPC   C1B29947  30.759   8.708  13.407 -0.5043  0.0436  0.0099
 2552DOPC   D2B29948  30.592   8.880  12.985  0.0270  0.3843  0.3384
 2552DOPC   C3B29949  30.345   8.676  12.622 -0.3007 -0.1349 -0.1133
 2552DOPC   C4B29950  29.994   8.444  12.444 -0.0354 -0.2280  0.0444
 2553POSM   NC329951  31.433   9.666  14.049 -0.1320 -0.3137  0.0009
 2553POSM   PO429952  31.591   9.371  14.242  0.0141 -0.0621  0.1221
 2553POSM   AM129953  31.479   9.213  13.966 -0.1361 -0.1858  0.5184
 2553POSM   AM229954  31.503   9.008  13.767  0.1937 -0.0963 -0.2489
 2553POSM   T1A29955  31.050   9.182  13.679 -0.1731  0.0711 -0.1735
 2553POSM   C2A29956  30.727   9.237  13.336  0.1527  0.1410  0.1383
 2553POSM   C3A29957  30.544   9.631  13.216 -0.0360  0.0188 -0.0977
 2553POSM   C1B29958  31.455   9.012  13.373  0.1071  0.1507 -0.1258
 2553POSM   D2B29959  31.160   9.016  13.032  0.1553  0.0607 -0.0831
 2553POSM   C3B29960  31.368   8.830  12.691  0.1766 -0.0347 -0.1040
 2553POSM   C4B29961  31.828   8.900  12.532  0.2264  0.0957  0.4016
 2554POSM   NC329962  31.462   3.335  13.637 -0.3327  0.2391  0.0104
 2554POSM   PO429963  31.804   3.582  13.669 -0.0048 -0.1331  0.2694
 2554POSM   AM129964  31.783   3.553  13.364 -0.0294  0.1718 -0.1011
 2554POSM   AM229965  31.732   3.364  13.116  0.0246  0.1911  0.0438
 2554POSM   T1A29966  31.827   3.799  12.938  0.0738  0.1398 -0.0725
 2554POSM   C2A29967  31.562   4.086  12.658 -0.3622  0.2717 -0.1297
 2554POSM   C3A29968  31.227   3.995  12.389  0.1667  0.0065  0.2296
 2554POSM   C1B29969  31.724   3.332  12.797  0.2626  0.0595 -0.2712
 2554POSM   D2B29970  31.639   3.541  12.398  0.2250  0.2522  0.2875
 2554POSM   C3B29971  31.515   3.243  12.096 -0.2408  0.1983 -0.0181
 2554POSM   C4B29972  31.187   3.261  11.793 -0.2094 -0.0480  0.0678
 2555DOPC   NC329973  26.624   2.587  13.418  0.0578 -0.0946 -0.2873
 2555DOPC   PO429974  26.962   2.646  13.660 -0.0032  0.1447 -0.0206
 2555DOPC   GL129975  26.992   2.560  13.202  0.0753 -0.1567 -0.1282
 2555DOPC   GL229976  26.942   2.828  13.170  0.0464 -0.0969  0.1317
 2555DOPC   C1A29977  27.364   2.597  12.949 -0.2978  0.2161  0.4119
 2555DOPC   D2A29978  27.412   2.538  12.468 -0.5583 -0.0654 -0.1405
 2555DOPC   C3A29979  27.339   2.680  12.014  0.0139  0.0015  0.4203
 2555DOPC   C4A29980  27.061   2.822  11.654 -0.1388 -0.1579  0.1043
 2555DOPC   C1B29981  26.922   2.565  12.746 -0.0033  0.0163 -0.0872
 2555DOPC   D2B29982  26.710   2.495  12.329 -0.0985  0.0150 -0.0270
 2555DOPC   C3B29983  26.746   2.518  11.886 -0.1315 -0.2463  0.1012
 2555DOPC   C4B29984  26.674   2.592  11.456  0.2066  0.2072 -0.0644
 2556DOPE   NH329985  24.910   2.039  14.153 -0.0096 -0.1373 -0.1103
 2556DOPE   PO429986  25.045   2.036  13.839  0.2662  0.0718  0.0526
 2556DOPE   GL129987  25.038   2.028  13.499  0.1023  0.4810  0.1463
 2556DOPE   GL229988  25.173   2.141  13.270 -0.0492  0.0657 -0.1706
 2556DOPE   C1A29989  24.645   2.137  13.238  0.2830 -0.3738 -0.0208
 2556DOPE   D2A29990  24.486   2.120  12.810 -0.1590  0.1434  0.0231
 2556DOPE   C3A29991  24.150   1.805  12.843 -0.2294  0.1447 -0.2158
 2556DOPE   C4A29992  23.850   1.501  12.964 -0.1279 -0.2013  0.2639
 2556DOPE   C1B29993  25.092   2.178  12.886 -0.0801 -0.0025  0.2564
 2556DOPE   D2B29994  25.158   1.925  12.491  0.2659  0.0118  0.0445
 2556DOPE   C3B29995  25.377   1.574  12.348 -0.2103 -0.0286  0.2612
 2556DOPE   C4B29996  25.536   1.476  11.946 -0.0418 -0.1418  0.1195
 2557DOPC   NC329997  28.272   8.385  14.167 -0.0935  0.0203  0.0304
 2557DOPC   PO429998  28.219   8.559  14.495  0.0917  0.1245  0.0828
 2557DOPC   GL129999  28.253   8.902  14.207  0.0823  0.0150 -0.2141
 2557DOPC   GL230000  28.014   9.144  14.118 -0.0241  0.3060  0.1007
 2557DOPC   C1A30001  28.551   9.179  14.014  0.0920  0.2481  0.0336
 2557DOPC   D2A30002  28.595   9.335  13.584 -0.1286  0.0871  0.1164
 2557DOPC   C3A30003  28.752   9.756  13.496  0.0799  0.0089 -0.2811
 2557DOPC   C4A30004  29.022   9.968  13.242 -0.2111  0.2757  0.2667
 2557DOPC   C1B30005  27.899   8.790  13.854  0.2150  0.0336 -0.1155
 2557DOPC   D2B30006  27.759   8.402  13.848  0.0845  0.2759  0.0253
 2557DOPC   C3B30007  27.438   8.168  13.601 -0.1167  0.2238 -0.0065
 2557DOPC   C4B30008  27.011   8.196  13.610 -0.1267  0.0610  0.1348
 2558POSM   NC330009   0.457   2.817  13.274  0.0506 -0.0303 -0.4230
 2558POSM   PO430010   0.498   2.569  13.590 -0.0500  0.1036  0.0674
 2558POSM   AM130011   0.542   2.350  13.350  0.1907  0.0493 -0.1766
 2558POSM   AM230012   0.749   2.340  13.151 -0.0406  0.0172  0.0073
 2558POSM   T1A30013   0.472   1.976  13.002  0.1185  0.0004 -0.1614
 2558POSM   C2A30014   0.510   1.606  12.732  0.1556 -0.0311  0.1433
 2558POSM   C3A30015   0.428   1.278  12.401 -0.5419  0.3274  0.1059
 2558POSM   C1B30016   0.647   2.500  12.850 -0.0841 -0.0872  0.0336
 2558POSM   D2B30017   0.641   2.571  12.452  0.0925 -0.1619  0.0836
 2558POSM   C3B30018   0.856   2.250  12.181 -0.1321 -0.2610  0.0756
 2558POSM   C4B30019   1.069   1.885  11.979  0.1421 -0.0830 -0.0123
 2559POSM   NC330020  24.773  11.728  14.629  0.0004 -0.1419  0.1754
 2559POSM   PO430021  25.091  11.749  14.358 -0.0270 -0.3175  0.4304
 2559POSM   AM130022  25.020  11.673  14.032 -0.2247 -0.0093 -0.4478
 2559POSM   AM230023  24.808  11.695  13.860  0.0791  0.2266 -0.1576
 2559POSM   T1A30024  25.314  11.807  13.607 -0.1267 -0.1164  0.2956
 2559POSM   C2A30025  25.478  11.536  13.287 -0.1833  0.3438  0.0638
 2559POSM   C3A30026  25.845  11.299  13.144 -0.1258 -0.2163  0.0881
 2559POSM   C1B30027  24.852  11.682  13.505 -0.2153  0.1592  0.0951
 2559POSM   D2B30028  25.026  11.516  13.099 -0.2869 -0.3757 -0.4272
 2559POSM   C3B30029  24.747  11.515  12.751  0.0046  0.2443  0.1355
 2559POSM   C4B30030  24.625  11.620  12.344 -0.2210 -0.0383  0.0060
 2560POSM   NC330031  26.227   6.411  14.234 -0.1151 -0.4655 -0.2774
 2560POSM   PO430032  25.871   6.209  14.272  0.0021  0.0561  0.0654
 2560POSM   AM130033  25.864   6.190  13.935 -0.3548  0.0105  0.2435
 2560POSM   AM230034  25.986   5.985  13.771  0.2304  0.2027  0.3978
 2560POSM   T1A30035  25.973   6.555  13.540 -0.4069 -0.0041 -0.3415
 2560POSM   C2A30036  25.982   6.977  13.446 -0.0992 -0.2134  0.3511
 2560POSM   C3A30037  25.838   7.455  13.440  0.1959  0.2433 -0.1160
 2560POSM   C1B30038  25.847   6.059  13.441  0.0274 -0.0510 -0.0039
 2560POSM   D2B30039  25.406   6.151  13.219 -0.1071 -0.0458  0.0586
 2560POSM   C3B30040  25.567   6.281  12.881  0.0958 -0.0438 -0.2089
 2560POSM   C4B30041  25.845   6.354  12.501  0.0193  0.2625 -0.1267
 2561POSM   NC330042  28.990  12.642  14.856  0.2157 -0.0518 -0.1777
 2561POSM   PO430043  29.355  12.758  14.787  0.2515  0.2388 -0.4609
 2561POSM   AM130044  29.326  12.624  14.486  0.0220  0.2411  0.4523
 2561POSM   AM230045  29.165  12.481  14.290  0.4695  0.1328  0.0555
 2561POSM   T1A30046  29.581  12.439  14.073  0.0819  0.3263 -0.2135
 2561POSM   C2A30047  29.817  12.268  13.742  0.0235  0.1402  0.0869
 2561POSM   C3A30048  29.755  12.239  13.265 -0.3851 -0.1234  0.2077
 2561POSM   C1B30049  28.978  12.265  14.116 -0.0789  0.0094  0.0798
 2561POSM   D2B30050  28.913  12.166  13.680  0.2889 -0.3052  0.0862
 2561POSM   C3B30051  28.736  11.883  13.385 -0.0090  0.1178  0.0466
 2561POSM   C4B30052  28.372  11.767  13.104  0.2465  0.1649  0.0749
 2562DOPC   NC330053   2.021   4.495  13.381  0.0825  0.2837 -0.0634
 2562DOPC   PO430054   1.690   4.418  13.608  0.3038  0.0915  0.0803
 2562DOPC   GL130055   1.565   4.283  13.228  0.0990  0.0728 -0.3162
 2562DOPC   GL230056   1.736   4.070  13.168 -0.2032  0.0943 -0.1744
 2562DOPC   C1A30057   1.260   3.884  13.216  0.0279  0.3334 -0.0134
 2562DOPC   D2A30058   1.053   3.575  12.904 -0.1015  0.1707 -0.0402
 2562DOPC   C3A30059   1.050   3.631  12.410  0.0810 -0.1763 -0.2951
 2562DOPC   C4A30060   1.350   3.631  12.060 -0.2464 -0.2277 -0.2946
 2562DOPC   C1B30061   1.830   4.273  12.802 -0.0041  0.1772  0.0764
 2562DOPC   D2B30062   1.955   4.665  12.522 -0.2616  0.1644  0.2831
 2562DOPC   C3B30063   1.617   4.828  12.209  0.4456  0.1027  0.1030
 2562DOPC   C4B30064   1.593   5.121  11.881 -0.0593  0.3919  0.0711
 2563POSM   NC330065  34.029   1.916  13.912  0.2258 -0.0270  0.0599
 2563POSM   PO430066  34.001   2.268  13.744  0.4014  0.0117  0.2789
 2563POSM   AM130067  33.892   2.247  13.418  0.1407 -0.2141  0.0022
 2563POSM   AM230068  33.882   2.462  13.210  0.0281 -0.1379 -0.3279
 2563POSM   T1A30069  33.570   1.990  13.122  0.2950  0.1904 -0.1647
 2563POSM   C2A30070  33.571   1.908  12.660  0.0632  0.4846  0.2704
 2563POSM   C3A30071  33.317   1.852  12.318  0.2812 -0.2488 -0.1613
 2563POSM   C1B30072  33.934   2.487  12.876  0.1595  0.1377  0.3647
 2563POSM   D2B30073  34.120   2.805  12.565  0.1553  0.3580 -0.0577
 2563POSM   C3B30074  34.112   2.859  12.107  0.2213  0.0008 -0.0361
 2563POSM   C4B30075  34.285   3.196  11.905  0.1674 -0.0232 -0.4045
 2564DOPS   CNO30076  26.117   8.338  14.265 -0.2883 -0.1723  0.1259
 2564DOPS   PO430077  25.936   8.319  13.950 -0.2665  0.3719  0.0380
 2564DOPS   GL130078  26.077   8.368  13.670  0.1701  0.2387  0.0206
 2564DOPS   GL230079  25.958   8.076  13.535  0.1336  0.0731 -0.0972
 2564DOPS   C1A30080  26.191   8.490  13.244  0.0686  0.2756  0.2051
 2564DOPS   D2A30081  26.317   8.644  12.805 -0.1387 -0.0200  0.4758
 2564DOPS   C3A30082  26.750   8.603  12.654  0.1728  0.1714  0.2185
 2564DOPS   C4A30083  27.193   8.716  12.623 -0.1043  0.1607  0.3236
 2564DOPS   C1B30084  26.081   7.868  13.150  0.1052 -0.1620 -0.1527
 2564DOPS   D2B30085  26.335   7.850  12.778 -0.1866 -0.1459 -0.1726
 2564DOPS   C3B30086  26.704   8.026  12.606  0.1529 -0.0414 -0.0660
 2564DOPS   C4B30087  27.080   8.233  12.441 -0.0447 -0.2123  0.1119
 2565DOPS   CNO30088  25.748   9.920  14.449  0.1290 -0.0321  0.0437
 2565DOPS   PO430089  25.591   9.608  14.345 -0.0071  0.0812 -0.0878
 2565DOPS   GL130090  25.860   9.832  14.005  0.0227 -0.0049 -0.0990
 2565DOPS   GL230091  25.787   9.621  13.704 -0.0299  0.0432 -0.1283
 2565DOPS   C1A30092  26.275   9.795  13.794 -0.0275  0.0254  0.2180
 2565DOPS   D2A30093  26.598   9.853  13.485 -0.1342 -0.0717 -0.1219
 2565DOPS   C3A30094  26.700   9.617  13.062  0.1810  0.2867 -0.1414
 2565DOPS   C4A30095  26.968   9.509  12.696 -0.1178  0.1014 -0.1789
 2565DOPS   C1B30096  26.066   9.667  13.325  0.4239  0.0265 -0.3743
 2565DOPS   D2B30097  26.010   9.458  12.920 -0.3845  0.0159 -0.1743
 2565DOPS   C3B30098  26.230   9.579  12.535 -0.1327  0.3854  0.0574
 2565DOPS   C4B30099  26.605   9.503  12.286  0.0936  0.1280 -0.0002
 2566DOPS   CNO30100  30.502   8.666  14.612  0.0062  0.1756 -0.0343
 2566DOPS   PO430101  30.568   8.913  14.376  0.0512  0.0636 -0.2274
 2566DOPS   GL130102  30.285   9.022  14.082 -0.0750  0.3282 -0.1639
 2566DOPS   GL230103  30.160   9.270  14.157 -0.0970  0.1552 -0.1536
 2566DOPS   C1A30104  30.231   9.237  13.663  0.0013 -0.0900  0.2596
 2566DOPS   D2A30105  30.054   9.493  13.352  0.0875  0.0586  0.4489
 2566DOPS   C3A30106  30.114   9.808  13.034 -0.0796  0.1705  0.0939
 2566DOPS   C4A30107  30.256   9.714  12.643  0.0518 -0.2600 -0.2003
 2566DOPS   C1B30108  29.839   8.987  14.064  0.0000 -0.0445 -0.3607
 2566DOPS   D2B30109  29.674   8.639  13.823 -0.1323 -0.1047  0.2619
 2566DOPS   C3B30110  29.760   8.620  13.398 -0.0495 -0.0834  0.2059
 2566DOPS   C4B30111  29.868   8.581  12.942 -0.3909  0.3324  0.0612
 2567POSM   NC330112  29.143   4.881  13.842 -0.1851 -0.3513  0.0088
 2567POSM   PO430113  29.436   5.180  13.829 -0.0859 -0.3703 -0.2631
 2567POSM   AM130114  29.351   5.161  13.530  0.1138  0.2965 -0.1714
 2567POSM   AM230115  29.404   4.968  13.334  0.3567 -0.0438 -0.0958
 2567POSM   T1A30116  29.514   5.335  13.051  0.1077  0.0714  0.3386
 2567POSM   C2A30117  29.539   5.599  12.698  0.1687  0.1227 -0.2016
 2567POSM   C3A30118  29.686   5.946  12.613 -0.0834  0.2641  0.0661
 2567POSM   C1B30119  29.256   4.722  13.121 -0.2072  0.2381  0.2110
 2567POSM   D2B30120  29.183   4.524  12.737  0.1152  0.1135 -0.0703
 2567POSM   C3B30121  28.947   4.602  12.342  0.2862 -0.0102  0.0447
 2567POSM   C4B30122  28.512   4.695  12.403 -0.0271  0.0770  0.0159
 2568DOPE   NH330123  33.687   8.281  14.122 -0.1216 -0.1203 -0.0261
 2568DOPE   PO430124  33.518   8.570  14.226  0.1213  0.0582 -0.2037
 2568DOPE   GL130125  33.574   8.620  13.847 -0.0071  0.2286  0.0394
 2568DOPE   GL230126  33.689   8.893  13.714  0.1980  0.0681 -0.1188
 2568DOPE   C1A30127  33.495   8.419  13.414  0.0172 -0.0880 -0.0652
 2568DOPE   D2A30128  33.115   8.203  13.324  0.1710  0.1270  0.0577
 2568DOPE   C3A30129  33.129   7.763  13.119  0.1956 -0.0199  0.0329
 2568DOPE   C4A30130  33.320   7.393  13.288  0.3697 -0.0365  0.1592
 2568DOPE   C1B30131  33.582   8.932  13.271  0.1949  0.3746  0.0255
 2568DOPE   D2B30132  33.636   8.928  12.789  0.0410  0.2010 -0.2180
 2568DOPE   C3B30133  33.276   8.834  12.515 -0.0920  0.0724 -0.1989
 2568DOPE   C4B30134  33.028   8.807  12.108  0.2142  0.1875 -0.1812
 2569POSM   NC330135  28.870   2.446  13.851 -0.4429 -0.0737  0.2694
 2569POSM   PO430136  29.239   2.592  13.919  0.0131 -0.0792  0.3129
 2569POSM   AM130137  29.450   2.519  13.654  0.1891 -0.0007  0.0782
 2569POSM   AM230138  29.649   2.357  13.536 -0.1878 -0.1759 -0.2591
 2569POSM   T1A30139  29.502   2.627  13.161  0.0310  0.0547 -0.0956
 2569POSM   C2A30140  29.538   2.543  12.755 -0.3124  0.1181  0.3184
 2569POSM   C3A30141  29.687   2.173  12.490  0.0816  0.1724 -0.1616
 2569POSM   C1B30142  29.662   2.167  13.265 -0.1217  0.0236 -0.2823
 2569POSM   D2B30143  29.392   2.033  12.925 -0.0372  0.2315 -0.1678
 2569POSM   C3B30144  29.168   1.634  12.931 -0.2433  0.1045  0.0364
 2569POSM   C4B30145  29.130   1.198  12.706 -0.2295  0.1010 -0.1205
 2570DOPS   CNO30146  29.662   8.511  15.034  0.0949 -0.1008 -0.0653
 2570DOPS   PO430147  29.584   8.752  14.776 -0.0283 -0.1127  0.2377
 2570DOPS   GL130148  29.507   8.941  14.446 -0.2902 -0.0281 -0.1314
 2570DOPS   GL230149  29.288   8.750  14.266  0.1804 -0.1001  0.0222
 2570DOPS   C1A30150  29.579   9.378  14.299  0.0091  0.1174 -0.1117
 2570DOPS   D2A30151  29.811   9.512  13.912 -0.0773 -0.2006  0.4318
 2570DOPS   C3A30152  29.579   9.205  13.561 -0.2989 -0.1845 -0.0361
 2570DOPS   C4A30153  29.698   9.138  13.061  0.1951 -0.0982 -0.3557
 2570DOPS   C1B30154  29.299   8.982  13.918 -0.3501 -0.1548 -0.0391
 2570DOPS   D2B30155  28.921   8.962  13.772  0.0930  0.1348 -0.0876
 2570DOPS   C3B30156  28.688   8.788  13.409 -0.1689 -0.2360 -0.1329
 2570DOPS   C4B30157  28.409   8.510  13.173  0.0465 -0.4721  0.0141
 2571POSM   NC330158   1.607   3.113  13.754  0.2775 -0.1800  0.2887
 2571POSM   PO430159   1.998   3.065  13.788 -0.2076 -0.1955 -0.1757
 2571POSM   AM130160   2.065   3.080  13.464 -0.1185  0.0193 -0.2859
 2571POSM   AM230161   2.185   2.872  13.240 -0.0693 -0.1338  0.2098
 2571POSM   T1A30162   2.180   3.382  13.059 -0.2498 -0.3220 -0.0891
 2571POSM   C2A30163   2.291   3.833  12.935 -0.0478  0.0417  0.0691
 2571POSM   C3A30164   2.465   4.216  12.973  0.3582 -0.3016 -0.0637
 2571POSM   C1B30165   2.158   2.876  12.903  0.1222 -0.1216 -0.1289
 2571POSM   D2B30166   2.101   2.634  12.560 -0.1424  0.2310 -0.2005
 2571POSM   C3B30167   2.041   2.906  12.168 -0.1880  0.3459  0.0851
 2571POSM   C4B30168   2.104   3.101  11.737  0.4033  0.1058 -0.1771
 2572POSM   NC330169  30.490   8.162  14.559  0.2481 -0.1107 -0.0630
 2572POSM   PO430170  30.165   7.989  14.456 -0.0122 -0.2533 -0.2522
 2572POSM   AM130171  30.076   7.976  14.175 -0.1424  0.2482  0.1810
 2572POSM   AM230172  29.971   8.154  14.022 -0.2876 -0.3527  0.0188
 2572POSM   T1A30173  30.053   7.772  13.687 -0.3749  0.1034  0.2156
 2572POSM   C2A30174  30.106   7.702  13.232 -0.1381 -0.0011 -0.2533
 2572POSM   C3A30175  30.114   7.957  12.848 -0.2541  0.0389  0.1810
 2572POSM   C1B30176  30.066   8.340  13.754  0.1438 -0.1342 -0.1312
 2572POSM   D2B30177  30.206   8.735  13.650  0.0652 -0.0704 -0.2152
 2572POSM   C3B30178  30.153   8.943  13.234  0.0580 -0.2510  0.1065
 2572POSM   C4B30179  30.287   9.279  12.958  0.0474 -0.2308 -0.1427
 2573POSM   NC330180  23.980   8.312  13.777  0.0093 -0.0053  0.1822
 2573POSM   PO430181  24.403   8.364  13.787  0.0603 -0.0634 -0.2948
 2573POSM   AM130182  24.286   8.270  13.453  0.0079 -0.1902  0.1463
 2573POSM   AM230183  24.122   8.066  13.311 -0.1112 -0.0398 -0.2084
 2573POSM   T1A30184  24.173   8.499  13.026 -0.2220  0.2125 -0.1459
 2573POSM   C2A30185  24.325   8.439  12.581 -0.2830  0.0829  0.0373
 2573POSM   C3A30186  24.248   8.593  12.189  0.3760 -0.1510  0.2528
 2573POSM   C1B30187  23.824   8.102  13.151 -0.0904  0.0628  0.1003
 2573POSM   D2B30188  23.514   7.933  12.853  0.0892 -0.2126 -0.0082
 2573POSM   C3B30189  23.370   8.214  12.506 -0.2434 -0.2457  0.2822
 2573POSM   C4B30190  22.962   8.374  12.294 -0.0030 -0.1653  0.2246
 2574DOPE   NH330191   4.105   6.168  14.421  0.2758  0.4010 -0.0951
 2574DOPE   PO430192   4.080   6.405  14.165  0.0509 -0.0682  0.1453
 2574DOPE   GL130193   3.935   6.449  13.805  0.0212 -0.0534  0.0827
 2574DOPE   GL230194   3.942   6.708  13.699  0.0657  0.1261 -0.0176
 2574DOPE   C1A30195   4.030   6.188  13.417 -0.2346  0.1370 -0.2116
 2574DOPE   D2A30196   3.991   5.905  13.059 -0.1021  0.1092 -0.0530
 2574DOPE   C3A30197   3.750   6.031  12.689 -0.0813 -0.1277  0.1049
 2574DOPE   C4A30198   3.659   6.345  12.396  0.1255 -0.3115  0.1914
 2574DOPE   C1B30199   3.967   7.069  13.432 -0.0758  0.0675 -0.2049
 2574DOPE   D2B30200   3.829   7.324  13.071 -0.0360 -0.1343 -0.1505
 2574DOPE   C3B30201   4.082   7.677  12.901  0.2381  0.0877 -0.2409
 2574DOPE   C4B30202   4.252   7.841  12.461  0.0501 -0.4310  0.2549
 2575DOPE   NH330203  24.271   7.121  14.056 -0.3599 -0.1194  0.2269
 2575DOPE   PO430204  24.099   7.235  13.865  0.0678 -0.0098 -0.2542
 2575DOPE   GL130205  24.122   7.264  13.503  0.1432  0.0106  0.1240
 2575DOPE   GL230206  24.156   7.588  13.478  0.0036  0.3497 -0.2339
 2575DOPE   C1A30207  23.932   7.057  13.105 -0.0611  0.1367 -0.0880
 2575DOPE   D2A30208  24.081   6.817  12.740 -0.3439  0.5376  0.1290
 2575DOPE   C3A30209  23.763   6.996  12.411  0.1306  0.1211  0.0552
 2575DOPE   C4A30210  23.651   7.278  12.092  0.4198 -0.0563 -0.0944
 2575DOPE   C1B30211  24.053   7.543  13.029  0.0717  0.1999  0.0840
 2575DOPE   D2B30212  24.121   7.441  12.605  0.0858  0.2572 -0.0330
 2575DOPE   C3B30213  24.086   7.523  12.142 -0.0045  0.1863  0.0564
 2575DOPE   C4B30214  23.951   7.409  11.690  0.0164  0.2574  0.3905
 2576DOPS   CNO30215  32.845  33.549  13.826  0.3391  0.3183  0.0226
 2576DOPS   PO430216  32.578  33.661  13.570 -0.0275  0.2526  0.2230
 2576DOPS   GL130217  32.690  33.336  13.223 -0.0059  0.1233 -0.1808
 2576DOPS   GL230218  32.474  33.410  13.116 -0.0018 -0.0275 -0.0514
 2576DOPS   C1A30219  32.958  33.355  12.832 -0.1306 -0.1324  0.0053
 2576DOPS   D2A30220  33.271  33.260  12.525 -0.0963 -0.1885  0.0487
 2576DOPS   C3A30221  33.088  33.510  12.161 -0.3278 -0.2632 -0.3596
 2576DOPS   C4A30222  32.865  33.750  11.857 -0.0035  0.1072 -0.2506
 2576DOPS   C1B30223  32.509  33.683  12.734 -0.0972 -0.3632  0.2508
 2576DOPS   D2B30224  32.538  33.768  12.267 -0.0856 -0.0408 -0.2501
 2576DOPS   C3B30225  32.611  34.197  12.060 -0.0555 -0.0319 -0.1493
 2576DOPS   C4B30226  32.815  34.574  12.097 -0.3655 -0.2664  0.0669
 2577DOPS   CNO30227  25.272   5.304  13.697 -0.2029  0.2169 -0.0926
 2577DOPS   PO430228  25.594   5.115  13.726 -0.1557 -0.0482  0.0439
 2577DOPS   GL130229  25.700   5.297  13.347  0.2032 -0.2874  0.1393
 2577DOPS   GL230230  25.900   5.135  13.291  0.0823 -0.0373 -0.2429
 2577DOPS   C1A30231  25.730   5.723  13.104  0.3136 -0.0235 -0.1038
 2577DOPS   D2A30232  25.441   5.835  12.789  0.0029 -0.1919 -0.3148
 2577DOPS   C3A30233  25.116   5.785  12.575 -0.0419  0.2153  0.1123
 2577DOPS   C4A30234  24.693   5.634  12.485 -0.3372  0.1407  0.1701
 2577DOPS   C1B30235  26.196   5.278  12.935  0.0370  0.2451 -0.4810
 2577DOPS   D2B30236  26.260   5.570  12.551  0.1600 -0.1322 -0.0614
 2577DOPS   C3B30237  26.086   5.736  12.106  0.3203 -0.4626 -0.2648
 2577DOPS   C4B30238  26.103   5.766  11.605  0.0930  0.1781 -0.2362
 2578DOPE   NH330239  28.992  14.378  14.439  0.3077  0.0277 -0.0101
 2578DOPE   PO430240  29.090  14.037  14.465 -0.2209 -0.1542 -0.0089
 2578DOPE   GL130241  28.947  13.828  14.151  0.4770  0.0045  0.5358
 2578DOPE   GL230242  28.723  14.062  14.090 -0.0885  0.4205 -0.1699
 2578DOPE   C1A30243  29.100  13.511  13.793 -0.0141 -0.2666 -0.3066
 2578DOPE   D2A30244  29.345  13.270  13.477 -0.3771  0.2595  0.0145
 2578DOPE   C3A30245  29.226  13.132  13.046 -0.3143 -0.0722 -0.1731
 2578DOPE   C4A30246  29.206  13.045  12.565 -0.0234 -0.0742 -0.0719
 2578DOPE   C1B30247  29.031  14.031  13.735 -0.3664 -0.0350  0.0958
 2578DOPE   D2B30248  29.134  14.040  13.281  0.1667 -0.0979 -0.0621
 2578DOPE   C3B30249  28.962  14.253  12.915 -0.1507 -0.0588  0.1516
 2578DOPE   C4B30250  29.197  14.479  12.606  0.2108 -0.3595 -0.1097
 2579DOPC   NC330251  31.355   9.679  14.741 -0.1046 -0.2347 -0.1691
 2579DOPC   PO430252  31.216   9.948  14.448 -0.0517  0.2250  0.0343
 2579DOPC   GL130253  31.228  10.361  14.078  0.3160  0.3704 -0.2754
 2579DOPC   GL230254  31.175  10.105  13.870  0.2200 -0.3298 -0.1012
 2579DOPC   C1A30255  30.898  10.539  13.803 -0.1453  0.1476  0.1343
 2579DOPC   D2A30256  30.682  10.507  13.375  0.5827  0.0752 -0.2848
 2579DOPC   C3A30257  30.715  10.132  13.209  0.3670 -0.0622 -0.0285
 2579DOPC   C4A30258  30.767   9.876  12.788  0.0256 -0.2348  0.1828
 2579DOPC   C1B30259  31.308   9.784  13.562 -0.0459  0.2179 -0.2812
 2579DOPC   D2B30260  31.641   9.491  13.649 -0.0530  0.2051 -0.0633
 2579DOPC   C3B30261  31.848   9.245  13.261  0.1921 -0.2216  0.1383
 2579DOPC   C4B30262  31.801   8.832  13.039  0.1069 -0.0852  0.1818
 2580DOPE   NH330263  29.229   6.426  14.240  0.0129  0.2778  0.3451
 2580DOPE   PO430264  29.543   6.476  14.118  0.0540  0.1758 -0.1979
 2580DOPE   GL130265  29.769   6.658  13.779  0.0246  0.2925 -0.1725
 2580DOPE   GL230266  29.693   6.899  13.730 -0.0590  0.0244  0.0320
 2580DOPE   C1A30267  30.201   6.845  13.635 -0.1883 -0.0687 -0.2690
 2580DOPE   D2A30268  30.226   7.040  13.194  0.3181 -0.1846 -0.2490
 2580DOPE   C3A30269  30.432   6.882  12.871  0.0881 -0.1088  0.2662
 2580DOPE   C4A30270  30.556   6.874  12.460  0.4057  0.0367  0.0929
 2580DOPE   C1B30271  29.410   7.095  13.388  0.0123 -0.0579  0.0496
 2580DOPE   D2B30272  29.277   7.067  12.928 -0.3082 -0.0461  0.2185
 2580DOPE   C3B30273  29.593   6.995  12.629 -0.0590 -0.0529  0.1545
 2580DOPE   C4B30274  30.012   7.050  12.697  0.1707  0.1025 -0.0414
 2581DOPC   NC330275  25.637   4.319  13.255  0.3992 -0.0108 -0.0733
 2581DOPC   PO430276  25.760   4.427  13.621  0.2110 -0.2357  0.2646
 2581DOPC   GL130277  25.654   4.731  13.420 -0.5544  0.0968  0.0358
 2581DOPC   GL230278  25.442   4.828  13.264  0.1566 -0.2532  0.0104
 2581DOPC   C1A30279  25.821   4.731  12.960  0.2756  0.3660  0.1008
 2581DOPC   D2A30280  25.668   4.771  12.562  0.1020  0.1762 -0.2616
 2581DOPC   C3A30281  25.570   4.521  12.177  0.0688 -0.0745  0.0343
 2581DOPC   C4A30282  25.643   4.070  12.054 -0.1414  0.1304 -0.0093
 2581DOPC   C1B30283  25.276   4.947  12.819  0.2300  0.3894  0.0164
 2581DOPC   D2B30284  25.325   5.227  12.484  0.0440  0.0504 -0.0027
 2581DOPC   C3B30285  25.489   5.535  12.173  0.1899  0.1051 -0.5820
 2581DOPC   C4B30286  25.788   5.270  11.891 -0.0599 -0.1224  0.3190
 2582DOPE   NH330287   0.097   4.352  13.981  0.0482 -0.0122  0.1173
 2582DOPE   PO430288   0.362   4.547  13.999  0.1651  0.1422  0.1525
 2582DOPE   GL130289   0.375   4.550  13.608  0.3020 -0.1322  0.3881
 2582DOPE   GL230290   0.360   4.314  13.524  0.0433 -0.1548 -0.0387
 2582DOPE   C1A30291   0.618   4.640  13.241  0.0409 -0.1305  0.2090
 2582DOPE   D2A30292   0.816   4.606  12.816  0.1299  0.2027  0.0253
 2582DOPE   C3A30293   0.632   4.878  12.505  0.0486  0.1891  0.0179
 2582DOPE   C4A30294   0.467   5.301  12.656  0.1947  0.1703 -0.1670
 2582DOPE   C1B30295   0.507   4.170  13.097 -0.1122 -0.0725 -0.0528
 2582DOPE   D2B30296   0.967   4.087  12.875  0.0147 -0.0976 -0.0843
 2582DOPE   C3B30297   1.053   4.236  12.466 -0.0304 -0.0595 -0.0697
 2582DOPE   C4B30298   1.231   4.276  12.012 -0.2677  0.3827  0.0361
 2583DOPE   NH330299   2.052   5.433  13.911 -0.1432 -0.0939  0.0509
 2583DOPE   PO430300   2.297   5.647  13.885 -0.0922  0.3784  0.0383
 2583DOPE   GL130301   2.315   5.369  13.544  0.1401  0.0062  0.1822
 2583DOPE   GL230302   2.545   5.113  13.507  0.0822  0.1503 -0.1811
 2583DOPE   C1A30303   2.127   5.498  13.087  0.1125  0.0185  0.0175
 2583DOPE   D2A30304   1.773   5.513  12.797  0.0790  0.1108 -0.0661
 2583DOPE   C3A30305   1.891   5.231  12.416 -0.0606 -0.0801 -0.2726
 2583DOPE   C4A30306   2.128   5.093  12.103 -0.5341  0.1948 -0.1958
 2583DOPE   C1B30307   2.529   5.204  13.044 -0.0593 -0.1185  0.0946
 2583DOPE   D2B30308   2.782   5.349  12.699 -0.1330 -0.2895 -0.3429
 2583DOPE   C3B30309   3.024   5.121  12.323 -0.0500 -0.0086 -0.2453
 2583DOPE   C4B30310   3.223   4.946  12.001 -0.0972 -0.1696 -0.2119
 2584DOPC   NC330311  24.865  34.221  14.113 -0.1608  0.1149  0.2585
 2584DOPC   PO430312  24.585  34.420  14.279  0.2198 -0.0529  0.1034
 2584DOPC   GL130313  24.588  34.629  13.898  0.0535 -0.0459 -0.0860
 2584DOPC   GL230314  24.687  34.848  13.771 -0.2051  0.0618 -0.2513
 2584DOPC   C1A30315  24.268  34.597  13.546 -0.0166  0.2941 -0.0884
 2584DOPC   D2A30316  24.298  34.692  13.119 -0.0808  0.2235 -0.2771
 2584DOPC   C3A30317  23.963  34.598  12.815  0.0846  0.0379  0.3541
 2584DOPC   C4A30318  23.691  34.331  12.587  0.1437  0.0255 -0.0710
 2584DOPC   C1B30319  24.716  35.225  13.523  0.0463 -0.3190  0.1461
 2584DOPC   D2B30320  24.724  35.702  13.400 -0.0787 -0.1248 -0.0343
 2584DOPC   C3B30321  24.658  35.838  12.911 -0.0816 -0.1176 -0.1043
 2584DOPC   C4B30322  24.647  35.960  12.449 -0.0244  0.0366  0.2717
 2585DOPC   NC330323  34.597   2.058  13.801  0.1658 -0.0639  0.1247
 2585DOPC   PO430324  34.456   1.695  13.801  0.0803 -0.0721 -0.1770
 2585DOPC   GL130325  34.444   1.911  13.422  0.0583  0.1070 -0.3358
 2585DOPC   GL230326  34.345   2.165  13.384 -0.1006 -0.0035  0.1304
 2585DOPC   C1A30327  34.595   1.857  12.978  0.0509  0.1032 -0.1108
 2585DOPC   D2A30328  34.831   2.010  12.614 -0.0472 -0.0773  0.1038
 2585DOPC   C3A30329  34.665   2.119  12.162 -0.1091  0.1509  0.1233
 2585DOPC   C4A30330  34.733   2.014  11.754 -0.1437  0.0044 -0.1232
 2585DOPC   C1B30331  34.104   1.974  13.040  0.4267  0.1300  0.2279
 2585DOPC   D2B30332  34.086   2.009  12.558  0.1768  0.3330  0.2633
 2585DOPC   C3B30333  33.707   2.285  12.293 -0.2293  0.1031  0.2371
 2585DOPC   C4B30334  33.239   2.358  12.252  0.2073 -0.4496  0.0576
 2586DOPE   NH330335  29.835   5.032  13.662  0.0932  0.1180 -0.1637
 2586DOPE   PO430336  30.007   5.233  13.817 -0.0782  0.2276 -0.1790
 2586DOPE   GL130337  30.210   5.336  13.426 -0.2071  0.0181 -0.0107
 2586DOPE   GL230338  30.215   5.640  13.504 -0.1516  0.0316 -0.0872
 2586DOPE   C1A30339  30.026   5.478  13.029 -0.0905  0.1857  0.0434
 2586DOPE   D2A30340  29.910   5.200  12.697  0.1018  0.0712  0.0009
 2586DOPE   C3A30341  29.541   4.943  12.770  0.3934  0.0945  0.2670
 2586DOPE   C4A30342  29.161   5.134  12.554  0.0284 -0.1103  0.2592
 2586DOPE   C1B30343  30.467   5.643  13.074 -0.0454  0.1370 -0.4709
 2586DOPE   D2B30344  30.678   5.979  12.817 -0.1617 -0.2113 -0.0474
 2586DOPE   C3B30345  30.913   5.848  12.448  0.1254 -0.3279  0.1519
 2586DOPE   C4B30346  31.138   5.478  12.255 -0.1076  0.1280 -0.0837
 2587DOPE   NH330347   2.810   3.529  14.158  0.1969 -0.1755 -0.3504
 2587DOPE   PO430348   2.923   3.709  13.940  0.1824  0.0440 -0.0408
 2587DOPE   GL130349   3.033   3.698  13.505  0.0736 -0.2054 -0.6482
 2587DOPE   GL230350   2.723   3.688  13.486  0.2060 -0.0686  0.0845
 2587DOPE   C1A30351   3.360   3.668  13.174  0.1240 -0.0086  0.3190
 2587DOPE   D2A30352   3.466   3.262  12.986 -0.1207 -0.0995  0.2551
 2587DOPE   C3A30353   3.548   3.257  12.579  0.1356  0.3398 -0.1463
 2587DOPE   C4A30354   3.425   3.377  12.222  0.0638 -0.0122 -0.1379
 2587DOPE   C1B30355   2.881   4.008  13.186 -0.1410 -0.0825 -0.0650
 2587DOPE   D2B30356   3.214   4.100  12.841 -0.2677  0.0166  0.2724
 2587DOPE   C3B30357   3.110   4.147  12.384 -0.1929  0.3006 -0.2236
 2587DOPE   C4B30358   2.743   4.153  12.118  0.0218 -0.2246 -0.1466
 2588DOPS   CNO30359  24.948   8.342  14.013  0.1235 -0.0513 -0.1299
 2588DOPS   PO430360  25.072   8.540  13.736  0.1029  0.1322 -0.2599
 2588DOPS   GL130361  25.196   8.415  13.359 -0.0705  0.0658 -0.0647
 2588DOPS   GL230362  25.184   8.611  13.240 -0.0393  0.0956 -0.0017
 2588DOPS   C1A30363  25.514   8.182  13.164 -0.1769  0.2345  0.3435
 2588DOPS   D2A30364  25.849   8.173  12.865 -0.0729 -0.0185 -0.1473
 2588DOPS   C3A30365  25.909   7.791  12.687 -0.1654 -0.0534  0.1129
 2588DOPS   C4A30366  25.742   7.371  12.523  0.0711  0.0706 -0.1623
 2588DOPS   C1B30367  24.964   8.496  12.895  0.3371  0.0718  0.0964
 2588DOPS   D2B30368  24.866   8.476  12.460  0.0004 -0.0647  0.1398
 2588DOPS   C3B30369  24.788   8.863  12.248  0.0075 -0.1188  0.2070
 2588DOPS   C4B30370  24.911   9.119  11.888  0.0303 -0.0110  0.3599
 2589POSM   NC330371  32.126   9.714  14.824 -0.4117 -0.3247  0.0767
 2589POSM   PO430372  32.222   9.553  14.449 -0.0906 -0.0428  0.0373
 2589POSM   AM130373  32.138   9.500  14.142 -0.3572 -0.2327 -0.0564
 2589POSM   AM230374  32.020   9.628  13.949 -0.0159 -0.0394  0.0288
 2589POSM   T1A30375  32.045   9.135  13.769 -0.0634 -0.0989 -0.3502
 2589POSM   C2A30376  31.860   8.728  13.498  0.1805  0.2066  0.2720
 2589POSM   C3A30377  31.576   8.449  13.263  0.1337 -0.2395  0.6019
 2589POSM   C1B30378  32.139   9.595  13.648 -0.2595 -0.0913 -0.2139
 2589POSM   D2B30379  32.275   9.741  13.225  0.2253  0.2351 -0.1552
 2589POSM   C3B30380  32.207  10.203  13.100 -0.1966  0.2469  0.1274
 2589POSM   C4B30381  32.107  10.657  13.002  0.2503 -0.1901  0.0011
 2590DOPC   NC330382  23.733   6.825  14.531 -0.1007  0.4455 -0.2694
 2590DOPC   PO430383  23.483   6.656  14.325 -0.1022  0.0673  0.0397
 2590DOPC   GL130384  23.505   6.599  13.880  0.3287  0.1485 -0.0061
 2590DOPC   GL230385  23.341   6.783  13.834  0.2206  0.2131 -0.1448
 2590DOPC   C1A30386  23.620   6.619  13.457 -0.3038  0.0073 -0.0383
 2590DOPC   D2A30387  23.605   6.717  12.995 -0.1735  0.3383 -0.1634
 2590DOPC   C3A30388  23.713   6.572  12.607  0.3469 -0.1658  0.0596
 2590DOPC   C4A30389  24.040   6.546  12.273 -0.0897 -0.1104 -0.1027
 2590DOPC   C1B30390  23.130   6.995  13.485  0.2995  0.1039 -0.1747
 2590DOPC   D2B30391  22.848   7.160  13.247 -0.3826  0.1353  0.0805
 2590DOPC   C3B30392  22.873   7.268  12.812 -0.0594  0.1944  0.1882
 2590DOPC   C4B30393  22.833   7.059  12.441 -0.0063 -0.1103 -0.0001
 2591DOPC   NC330394  24.491   2.442  14.006  0.0813 -0.2592 -0.2622
 2591DOPC   PO430395  24.855   2.542  14.104  0.0927  0.1211  0.0124
 2591DOPC   GL130396  24.815   2.424  13.667 -0.0756  0.2325 -0.1326
 2591DOPC   GL230397  25.144   2.548  13.634 -0.0767  0.1355  0.1507
 2591DOPC   C1A30398  24.855   2.551  13.211  0.2825  0.0709  0.1137
 2591DOPC   D2A30399  24.662   2.584  12.837 -0.1894 -0.0590  0.0759
 2591DOPC   C3A30400  24.959   2.583  12.487 -0.1113 -0.0627  0.0724
 2591DOPC   C4A30401  25.389   2.399  12.395  0.1932 -0.1523 -0.0495
 2591DOPC   C1B30402  25.455   2.551  13.291  0.0295  0.2570  0.0348
 2591DOPC   D2B30403  25.524   2.521  12.871 -0.0676 -0.2962 -0.0079
 2591DOPC   C3B30404  25.946   2.358  12.768 -0.0485  0.1699  0.1769
 2591DOPC   C4B30405  26.268   2.398  12.507  0.0897 -0.4875 -0.0234
 2592DOPS   CNO30406  25.132   1.320  14.294  0.1998 -0.2121  0.1694
 2592DOPS   PO430407  25.178   1.571  14.015  0.0871  0.0906 -0.2359
 2592DOPS   GL130408  25.124   1.351  13.716  0.0692  0.2695 -0.1350
 2592DOPS   GL230409  24.913   1.488  13.492 -0.2049  0.0880  0.2450
 2592DOPS   C1A30410  25.367   1.240  13.317  0.0122  0.3232  0.2739
 2592DOPS   D2A30411  25.636   1.097  12.978  0.3703 -0.4158  0.1093
 2592DOPS   C3A30412  25.363   0.814  12.695  0.1209  0.0800 -0.0279
 2592DOPS   C4A30413  25.215   0.667  12.293 -0.0135 -0.0516  0.1696
 2592DOPS   C1B30414  24.818   1.666  13.120 -0.0100  0.0559 -0.3212
 2592DOPS   D2B30415  24.738   1.693  12.690  0.1725 -0.3285 -0.2586
 2592DOPS   C3B30416  24.733   2.084  12.352  0.2997 -0.2510 -0.0017
 2592DOPS   C4B30417  24.989   2.277  12.036  0.3047  0.1022 -0.0495
 2593DOPC   NC330418   2.083   9.414  13.908 -0.0877  0.0097  0.0401
 2593DOPC   PO430419   2.059   9.042  14.056  0.1119 -0.0394 -0.1347
 2593DOPC   GL130420   2.359   9.002  13.725  0.0651 -0.1023 -0.0069
 2593DOPC   GL230421   2.169   8.986  13.514 -0.0789 -0.2479  0.2806
 2593DOPC   C1A30422   2.682   8.878  13.427  0.5753 -0.0060 -0.1671
 2593DOPC   D2A30423   3.111   8.722  13.307 -0.1113 -0.3391 -0.4420
 2593DOPC   C3A30424   3.482   8.960  13.139 -0.1499 -0.1973  0.1199
 2593DOPC   C4A30425   3.671   9.158  12.729 -0.0313 -0.0480  0.0143
 2593DOPC   C1B30426   2.212   8.761  13.121  0.0888 -0.2422 -0.1521
 2593DOPC   D2B30427   2.266   8.491  12.737  0.3355  0.1869  0.0954
 2593DOPC   C3B30428   2.344   8.721  12.342  0.0784 -0.2192 -0.0057
 2593DOPC   C4B30429   2.253   8.989  11.962 -0.1312  0.1404 -0.0522
 2594POSM   NC330430  34.033   3.290  13.418 -0.2581 -0.0346 -0.3026
 2594POSM   PO430431  33.727   3.243  13.591 -0.1166 -0.0664  0.0070
 2594POSM   AM130432  33.597   3.060  13.347  0.2463  0.1760 -0.1021
 2594POSM   AM230433  33.591   2.813  13.203  0.0726 -0.1884  0.2048
 2594POSM   T1A30434  33.238   3.080  13.040  0.0138  0.1219  0.0204
 2594POSM   C2A30435  33.059   3.266  12.625 -0.3374  0.1461 -0.3729
 2594POSM   C3A30436  32.647   3.288  12.500 -0.0235  0.1536  0.3948
 2594POSM   C1B30437  33.696   2.971  12.904 -0.1534  0.0849 -0.0253
 2594POSM   D2B30438  33.606   3.255  12.560  0.0168 -0.0747  0.0981
 2594POSM   C3B30439  33.946   3.302  12.263 -0.2721 -0.2020 -0.1619
 2594POSM   C4B30440  34.310   3.619  12.199 -0.2804 -0.3534  0.1562
 2595DOPC   NC330441  31.110   1.032  14.107  0.3180  0.2330  0.0387
 2595DOPC   PO430442  31.289   0.687  13.954 -0.1504  0.3421 -0.0717
 2595DOPC   GL130443  31.401   1.006  13.817  0.0430 -0.0351  0.2640
 2595DOPC   GL230444  31.196   1.048  13.636  0.2224 -0.1287  0.0332
 2595DOPC   C1A30445  31.525   0.932  13.328 -0.0730  0.1003  0.0113
 2595DOPC   D2A30446  31.576   1.043  12.832 -0.3155 -0.0122  0.2547
 2595DOPC   C3A30447  31.982   0.985  12.658  0.0088  0.0819  0.0726
 2595DOPC   C4A30448  32.446   0.813  12.552  0.0889 -0.0301 -0.1409
 2595DOPC   C1B30449  30.889   1.032  13.271 -0.0327  0.2477 -0.0989
 2595DOPC   D2B30450  30.527   1.221  13.007  0.0302 -0.0445  0.2676
 2595DOPC   C3B30451  30.454   1.148  12.569 -0.1574 -0.1608 -0.1452
 2595DOPC   C4B30452  30.506   1.018  12.111  0.0348 -0.1381  0.2752
 2596DOPC   NC330453  32.215   2.030  13.663  0.2054  0.0436  0.0516
 2596DOPC   PO430454  32.299   1.840  13.976  0.0435 -0.0910 -0.1169
 2596DOPC   GL130455  32.273   1.546  13.639  0.0954  0.5839 -0.1644
 2596DOPC   GL230456  32.024   1.412  13.784 -0.0787  0.1773  0.1191
 2596DOPC   C1A30457  32.068   1.305  13.253 -0.0387  0.2343  0.0068
 2596DOPC   D2A30458  31.733   1.486  13.027 -0.5679 -0.1818  0.0334
 2596DOPC   C3A30459  31.648   1.482  12.527  0.0163 -0.1454 -0.4025
 2596DOPC   C4A30460  31.887   1.595  12.105  0.0005 -0.0240 -0.5128
 2596DOPC   C1B30461  31.624   1.420  13.569 -0.4029 -0.0328  0.0830
 2596DOPC   D2B30462  31.213   1.507  13.405 -0.1239 -0.0125  0.0061
 2596DOPC   C3B30463  31.190   1.366  12.961 -0.2946  0.2433  0.0862
 2596DOPC   C4B30464  31.227   1.210  12.532  0.1231 -0.0457 -0.3156
 2597DOPE   NH330465  27.214   2.278  13.895 -0.0711 -0.1365 -0.0594
 2597DOPE   PO430466  27.381   2.034  13.730 -0.1170 -0.1252 -0.1062
 2597DOPE   GL130467  27.185   2.165  13.436  0.0520 -0.1074  0.2474
 2597DOPE   GL230468  27.277   2.056  13.190 -0.0735  0.1069 -0.0517
 2597DOPE   C1A30469  26.783   2.074  13.160 -0.4029 -0.0018  0.0125
 2597DOPE   D2A30470  26.605   2.100  12.680  0.0476 -0.2282  0.2906
 2597DOPE   C3A30471  26.497   1.778  12.347  0.0837 -0.1207 -0.0354
 2597DOPE   C4A30472  26.352   1.657  11.916 -0.3559  0.1684 -0.3513
 2597DOPE   C1B30473  27.112   2.099  12.773 -0.0950 -0.1758  0.3722
 2597DOPE   D2B30474  27.004   1.887  12.399 -0.1182  0.2115 -0.1669
 2597DOPE   C3B30475  26.753   2.040  12.032  0.0121 -0.1259 -0.3233
 2597DOPE   C4B30476  26.333   2.162  11.916 -0.0155  0.2323 -0.0267
 2598POSM   NC330477  33.218  33.463  13.423 -0.1102 -0.0126 -0.0696
 2598POSM   PO430478  33.271  33.852  13.535 -0.0432  0.0178  0.2393
 2598POSM   AM130479  33.301  33.836  13.205  0.2300 -0.1653 -0.2783
 2598POSM   AM230480  33.414  34.018  13.013  0.1988 -0.1963  0.4706
 2598POSM   T1A30481  33.442  33.588  12.786 -0.0724 -0.0402  0.0497
 2598POSM   C2A30482  33.488  33.764  12.338  0.0467 -0.1374  0.0542
 2598POSM   C3A30483  33.433  33.779  11.910 -0.1812 -0.3130 -0.2729
 2598POSM   C1B30484  33.180  34.032  12.791 -0.0322  0.0264 -0.0633
 2598POSM   D2B30485  32.698  34.132  12.617 -0.0624  0.2453  0.3714
 2598POSM   C3B30486  32.388  34.463  12.571  0.0188  0.1121 -0.1526
 2598POSM   C4B30487  32.254  34.824  12.316 -0.2694  0.1010 -0.0123
 2599POSM   NC330488  23.711   7.538  13.953  0.1406  0.2561 -0.1218
 2599POSM   PO430489  23.622   7.937  14.007  0.1081 -0.2145  0.1923
 2599POSM   AM130490  23.609   7.964  13.682  0.2984  0.0006 -0.2759
 2599POSM   AM230491  23.698   7.760  13.512 -0.1437  0.0902  0.0780
 2599POSM   T1A30492  23.270   8.088  13.262  0.1597  0.1781 -0.1636
 2599POSM   C2A30493  22.954   8.252  12.872  0.0150 -0.1295 -0.0272
 2599POSM   C3A30494  22.632   8.553  12.689  0.1853  0.0411 -0.1894
 2599POSM   C1B30495  23.664   7.525  13.242  0.1135  0.4370  0.4916
 2599POSM   D2B30496  23.608   7.342  12.849  0.0259  0.1024 -0.1356
 2599POSM   C3B30497  23.628   7.606  12.417 -0.2246 -0.1248  0.2010
 2599POSM   C4B30498  23.535   7.921  12.115 -0.2237  0.1209 -0.0644
 2600DOPE   NH330499  23.216   3.319  13.955  0.2846 -0.3495 -0.0852
 2600DOPE   PO430500  23.339   3.596  13.937  0.1379  0.1914 -0.0559
 2600DOPE   GL130501  23.390   3.665  13.564  0.2164 -0.3015  0.3146
 2600DOPE   GL230502  23.248   3.628  13.325 -0.0774 -0.0884 -0.0018
 2600DOPE   C1A30503  23.633   3.881  13.219 -0.2123  0.3456  0.1317
 2600DOPE   D2A30504  23.605   4.141  12.876  0.1140  0.0021  0.1724
 2600DOPE   C3A30505  23.341   4.141  12.536 -0.1968 -0.2316 -0.0500
 2600DOPE   C4A30506  23.378   4.061  12.137 -0.0865  0.3710  0.0265
 2600DOPE   C1B30507  23.421   3.242  13.206 -0.0443 -0.3008 -0.0902
 2600DOPE   D2B30508  23.589   3.042  12.833 -0.1471 -0.5699  0.1894
 2600DOPE   C3B30509  23.699   3.236  12.420  0.0800  0.3503  0.0148
 2600DOPE   C4B30510  23.730   3.572  12.093 -0.2089  0.0288  0.3877
 2601POSM   NC330511  23.913   5.390  13.645  0.1652 -0.0741  0.4174
 2601POSM   PO430512  24.230   5.403  13.867 -0.0109  0.3657 -0.1289
 2601POSM   AM130513  24.350   5.644  13.734  0.1454  0.1532 -0.1411
 2601POSM   AM230514  24.266   5.843  13.557  0.3340  0.2158 -0.0474
 2601POSM   T1A30515  24.700   5.686  13.366 -0.0003 -0.2842  0.0587
 2601POSM   C2A30516  25.018   5.899  13.075  0.3052 -0.4298  0.1955
 2601POSM   C3A30517  24.985   6.259  12.756 -0.1831 -0.1453  0.0513
 2601POSM   C1B30518  24.233   5.722  13.241  0.0366 -0.0559 -0.0301
 2601POSM   D2B30519  24.004   5.485  12.945 -0.3496 -0.1118 -0.0262
 2601POSM   C3B30520  24.260   5.115  12.756  0.0943 -0.0102 -0.0190
 2601POSM   C4B30521  24.267   4.842  12.442 -0.0038  0.1275 -0.1097
 2602DOPE   NH330522  31.835  12.478  14.153  0.0339  0.0712  0.1249
 2602DOPE   PO430523  31.872  12.823  14.143 -0.4287  0.1845  0.0360
 2602DOPE   GL130524  31.800  12.624  13.707 -0.3023  0.0235 -0.1241
 2602DOPE   GL230525  32.100  12.539  13.687 -0.2027 -0.1992  0.1648
 2602DOPE   C1A30526  31.454  12.561  13.413 -0.0202  0.1017  0.0953
 2602DOPE   D2A30527  31.116  12.265  13.257  0.0630  0.2961  0.0481
 2602DOPE   C3A30528  30.855  12.210  12.850  0.1919  0.0132  0.2588
 2602DOPE   C4A30529  30.576  12.070  12.528 -0.0404 -0.1098 -0.1424
 2602DOPE   C1B30530  31.924  12.662  13.265 -0.0962  0.1613 -0.1031
 2602DOPE   D2B30531  32.129  12.695  12.828  0.1353  0.3526 -0.0219
 2602DOPE   C3B30532  31.837  12.463  12.557  0.0330  0.2468 -0.1482
 2602DOPE   C4B30533  31.469  12.238  12.585  0.0336 -0.1243 -0.3916
 2603POSM   NC330534  22.827   3.726  14.085 -0.0178 -0.1806  0.2450
 2603POSM   PO430535  22.828   3.780  13.652 -0.1701  0.2870  0.0011
 2603POSM   AM130536  22.711   4.051  13.481  0.1316  0.2994 -0.3345
 2603POSM   AM230537  22.545   4.030  13.267 -0.0845  0.0799 -0.2291
 2603POSM   T1A30538  22.662   4.464  13.136  0.0567  0.0456 -0.1125
 2603POSM   C2A30539  22.599   4.633  12.710  0.2566 -0.3005  0.1721
 2603POSM   C3A30540  22.479   4.542  12.264 -0.2472  0.3727  0.0152
 2603POSM   C1B30541  22.660   3.848  13.007  0.0144  0.1937  0.1375
 2603POSM   D2B30542  22.709   3.555  12.606  0.1614  0.0746  0.0443
 2603POSM   C3B30543  22.712   3.872  12.276 -0.0553  0.2274 -0.0900
 2603POSM   C4B30544  22.607   4.130  11.966 -0.1680 -0.2843  0.5743
 2604DOPS   CNO30545  33.647  33.131  13.654 -0.1460  0.1983  0.1255
 2604DOPS   PO430546  33.416  32.987  13.374  0.0133 -0.0044  0.1054
 2604DOPS   GL130547  33.402  32.967  12.945 -0.2828 -0.1996  0.4047
 2604DOPS   GL230548  33.703  33.079  12.927 -0.1232  0.2289 -0.0208
 2604DOPS   C1A30549  33.496  32.832  12.536  0.1789  0.2303 -0.0574
 2604DOPS   D2A30550  33.541  32.701  12.083  0.1259 -0.0139 -0.0419
 2604DOPS   C3A30551  33.284  32.878  11.738  0.1778 -0.1501  0.1912
 2604DOPS   C4A30552  33.091  32.927  11.350  0.1593 -0.0592  0.1621
 2604DOPS   C1B30553  33.758  33.230  12.489  0.0175  0.1580  0.1835
 2604DOPS   D2B30554  33.536  33.186  12.097 -0.0068  0.3506  0.1498
 2604DOPS   C3B30555  33.784  33.378  11.733 -0.0304  0.2323 -0.1322
 2604DOPS   C4B30556  33.640  33.445  11.327 -0.0120  0.0111  0.1146
 2605DOPC   NC330557  30.779  11.478  14.690  0.1451  0.0935  0.2956
 2605DOPC   PO430558  30.445  11.400  14.526  0.1259 -0.0884 -0.0774
 2605DOPC   GL130559  30.395  11.417  14.151  0.0903  0.0916  0.2959
 2605DOPC   GL230560  30.559  11.281  13.994 -0.0604 -0.0712  0.0763
 2605DOPC   C1A30561  30.087  11.283  13.818 -0.1957 -0.1265 -0.3131
 2605DOPC   D2A30562  29.850  11.308  13.392  0.0041  0.1524 -0.4015
 2605DOPC   C3A30563  29.698  10.845  13.313 -0.0689  0.1602 -0.1571
 2605DOPC   C4A30564  29.649  10.643  12.901 -0.1192  0.0380  0.2797
 2605DOPC   C1B30565  30.589  10.971  13.582  0.3032 -0.1264 -0.2091
 2605DOPC   D2B30566  30.705  10.905  13.120 -0.0219  0.1470  0.3040
 2605DOPC   C3B30567  30.989  10.541  12.989 -0.1856  0.0995  0.3303
 2605DOPC   C4B30568  30.887  10.352  12.592  0.0693  0.2132  0.2534
 2606DOPS   CNO30569  26.830  11.256  14.728 -0.0583  0.1879  0.2790
 2606DOPS   PO430570  26.758  11.437  14.398  0.1176  0.0873 -0.4275
 2606DOPS   GL130571  26.640  11.612  14.049 -0.0448 -0.0270 -0.2423
 2606DOPS   GL230572  26.907  11.748  14.013 -0.0852  0.0014 -0.0669
 2606DOPS   C1A30573  26.606  11.294  13.701  0.0142  0.1820 -0.1173
 2606DOPS   D2A30574  26.561  11.024  13.296  0.2711  0.1889 -0.3353
 2606DOPS   C3A30575  26.404  11.223  12.892  0.4007 -0.2317 -0.3015
 2606DOPS   C4A30576  26.043  11.334  12.642  0.2617  0.0338  0.1948
 2606DOPS   C1B30577  27.030  11.561  13.659  0.0795 -0.0663 -0.0512
 2606DOPS   D2B30578  27.237  11.197  13.522  0.0949  0.3953 -0.0730
 2606DOPS   C3B30579  27.274  10.832  13.221  0.1700 -0.0419  0.1459
 2606DOPS   C4B30580  27.374  10.383  13.127  0.0369 -0.1330  0.0543
 2607DOPE   NH330581   3.397   4.684  14.460  0.0626 -0.1658  0.1695
 2607DOPE   PO430582   3.319   4.887  14.221  0.5731 -0.4219  0.0802
 2607DOPE   GL130583   3.435   4.960  13.891  0.1357  0.4111 -0.0383
 2607DOPE   GL230584   3.269   4.809  13.665 -0.1417 -0.0920  0.3492
 2607DOPE   C1A30585   3.759   4.941  13.559  0.0186  0.0627 -0.0953
 2607DOPE   D2A30586   4.048   5.031  13.180  0.0292 -0.2175 -0.1842
 2607DOPE   C3A30587   3.808   5.149  12.799 -0.2030  0.1606 -0.4091
 2607DOPE   C4A30588   3.538   5.098  12.442  0.1174 -0.3439 -0.0875
 2607DOPE   C1B30589   2.976   4.975  13.282 -0.0607  0.0742 -0.0500
 2607DOPE   D2B30590   2.851   4.870  12.814  0.1576  0.3036 -0.0541
 2607DOPE   C3B30591   2.847   4.395  12.712 -0.0724  0.1919  0.0954
 2607DOPE   C4B30592   2.801   3.949  12.666 -0.0246  0.1915 -0.0751
 2608DOPC   NC330593  24.807   7.110  13.875  0.0587  0.0641 -0.1449
 2608DOPC   PO430594  24.556   7.066  13.592 -0.1293  0.0446 -0.0092
 2608DOPC   GL130595  24.442   6.865  13.195  0.0463  0.1550  0.0653
 2608DOPC   GL230596  24.492   7.123  13.003  0.0627  0.1920 -0.2055
 2608DOPC   C1A30597  24.594   6.624  12.815  0.2367 -0.0942  0.1398
 2608DOPC   D2A30598  24.514   6.375  12.413  0.4704 -0.0340 -0.2581
 2608DOPC   C3A30599  24.475   6.663  12.058 -0.2547  0.0492  0.2207
 2608DOPC   C4A30600  24.729   7.051  12.099 -0.0796  0.1761  0.2106
 2608DOPC   C1B30601  24.847   7.078  12.671  0.4255 -0.1214 -0.2535
 2608DOPC   D2B30602  24.977   6.709  12.387 -0.2571 -0.2310  0.0294
 2608DOPC   C3B30603  25.327   6.426  12.450 -0.1371 -0.0425  0.0363
 2608DOPC   C4B30604  25.516   6.038  12.318 -0.0271  0.2190 -0.0629
 2609DOPS   CNO30605  21.913   3.708  13.737 -0.1174  0.1645  0.0834
 2609DOPS   PO430606  21.762   3.728  14.089  0.1711  0.0706  0.1476
 2609DOPS   GL130607  21.469   3.484  13.851 -0.0686  0.0836 -0.0440
 2609DOPS   GL230608  21.612   3.295  13.800  0.1210  0.1427  0.0577
 2609DOPS   C1A30609  21.360   3.445  13.401  0.2092  0.0541 -0.0870
 2609DOPS   D2A30610  21.340   3.240  12.970 -0.1490 -0.0648 -0.0592
 2609DOPS   C3A30611  21.573   3.052  12.575 -0.1491 -0.2182 -0.0079
 2609DOPS   C4A30612  21.841   2.802  12.339  0.1063 -0.0434  0.0002
 2609DOPS   C1B30613  21.852   3.303  13.368 -0.1695 -0.3990 -0.0554
 2609DOPS   D2B30614  22.225   3.363  13.009 -0.1597 -0.0719 -0.1356
 2609DOPS   C3B30615  22.207   3.726  12.744  0.2187 -0.0179  0.1591
 2609DOPS   C4B30616  22.355   4.153  12.629  0.1678 -0.0440 -0.0692
 2610DOPC   NC330617  28.407   4.028  14.203 -0.0506 -0.0105 -0.0925
 2610DOPC   PO430618  28.311   4.054  13.832  0.1477 -0.0895 -0.0113
 2610DOPC   GL130619  28.026   4.249  13.670  0.1613 -0.0862  0.2998
 2610DOPC   GL230620  28.145   4.365  13.445  0.0477  0.3825  0.0828
 2610DOPC   C1A30621  27.653   4.027  13.448  0.2814  0.0611  0.0404
 2610DOPC   D2A30622  27.561   3.616  13.270  0.1977 -0.0558 -0.2852
 2610DOPC   C3A30623  27.215   3.372  13.178 -0.0861  0.0864  0.0094
 2610DOPC   C4A30624  27.181   3.064  12.845  0.0444  0.1060 -0.1311
 2610DOPC   C1B30625  27.864   4.278  13.065  0.0360  0.2027 -0.0629
 2610DOPC   D2B30626  27.565   4.018  12.895 -0.0180  0.2418 -0.0370
 2610DOPC   C3B30627  27.342   3.971  12.495 -0.1636 -0.2645 -0.2939
 2610DOPC   C4B30628  27.304   4.230  12.101 -0.0328  0.0387 -0.3471
 2611DOPE   NH330629   1.437   4.823  14.011  0.3148 -0.2636 -0.0716
 2611DOPE   PO430630   1.157   4.935  13.981  0.1605 -0.0751 -0.1780
 2611DOPE   GL130631   1.099   5.093  13.551 -0.0126  0.0169  0.0479
 2611DOPE   GL230632   0.972   4.879  13.470  0.0822  0.1384 -0.2203
 2611DOPE   C1A30633   0.913   5.457  13.356 -0.1454 -0.0202 -0.1166
 2611DOPE   D2A30634   0.588   5.526  13.042 -0.1928 -0.1796 -0.1888
 2611DOPE   C3A30635   0.779   5.788  12.679 -0.0371 -0.1022  0.2006
 2611DOPE   C4A30636   1.031   5.746  12.298  0.2360  0.2557  0.0419
 2611DOPE   C1B30637   1.110   4.981  13.092 -0.0527 -0.1845 -0.0181
 2611DOPE   D2B30638   0.955   5.268  12.745 -0.0862  0.1735  0.2862
 2611DOPE   C3B30639   0.988   5.140  12.331  0.1168 -0.0335  0.5346
 2611DOPE   C4B30640   0.897   5.226  11.889 -0.0577 -0.0649 -0.1981
 2612POSM   NC330641  29.117   8.521  14.674 -0.0295 -0.0818 -0.4542
 2612POSM   PO430642  29.185   8.229  14.404 -0.1638 -0.1120 -0.0282
 2612POSM   AM130643  29.048   8.348  14.148  0.2726 -0.0596  0.2085
 2612POSM   AM230644  28.868   8.523  14.083 -0.2464 -0.0733 -0.0289
 2612POSM   T1A30645  29.174   8.553  13.702 -0.1970 -0.0426 -0.2345
 2612POSM   C2A30646  29.285   8.831  13.332 -0.1002  0.1232  0.0908
 2612POSM   C3A30647  29.299   8.879  12.823 -0.0311 -0.0159 -0.3529
 2612POSM   C1B30648  28.606   8.553  13.820 -0.5894  0.1477  0.0717
 2612POSM   D2B30649  28.247   8.651  13.613  0.0957  0.0670 -0.0301
 2612POSM   C3B30650  28.112   9.113  13.555  0.1974  0.0492 -0.0142
 2612POSM   C4B30651  28.183   9.531  13.761 -0.1793  0.3264 -0.0119
 2613DOPE   NH330652  29.837   9.933  15.109 -0.1378  0.3689  0.1735
 2613DOPE   PO430653  29.673  10.155  15.068  0.0854 -0.0165 -0.4021
 2613DOPE   GL130654  29.671  10.210  14.714 -0.2252 -0.0615  0.0702
 2613DOPE   GL230655  29.719  10.490  14.718 -0.0560 -0.2476 -0.0357
 2613DOPE   C1A30656  29.269  10.162  14.509 -0.1296  0.1038  0.2858
 2613DOPE   D2A30657  28.911  10.419  14.406  0.0221  0.0027  0.1255
 2613DOPE   C3A30658  28.943  10.822  14.127 -0.0265  0.0892  0.1681
 2613DOPE   C4A30659  28.735  10.868  13.708  0.3352 -0.2407 -0.0044
 2613DOPE   C1B30660  29.708  10.392  14.276 -0.2205  0.1404  0.1837
 2613DOPE   D2B30661  29.663  10.372  13.795  0.0177  0.3608  0.2650
 2613DOPE   C3B30662  29.377  10.330  13.434 -0.0228  0.0127  0.1312
 2613DOPE   C4B30663  28.923  10.401  13.468  0.1102  0.1481  0.4899
 2614POSM   NC330664  32.149   7.343  14.042 -0.0439 -0.0392  0.1488
 2614POSM   PO430665  32.008   6.990  13.937  0.2241  0.1688 -0.3585
 2614POSM   AM130666  32.067   7.045  13.630  0.1320 -0.1921 -0.0161
 2614POSM   AM230667  32.209   7.203  13.437  0.0419 -0.0630 -0.2328
 2614POSM   T1A30668  31.970   6.856  13.170  0.2068  0.0804  0.0497
 2614POSM   C2A30669  31.760   6.987  12.810 -0.1611 -0.0560  0.2091
 2614POSM   C3A30670  31.584   6.929  12.376 -0.0078  0.0445  0.0073
 2614POSM   C1B30671  32.218   7.288  13.144  0.1835 -0.0656 -0.0115
 2614POSM   D2B30672  32.124   7.641  12.856  0.0684 -0.1824 -0.1885
 2614POSM   C3B30673  31.726   7.473  12.616  0.0978  0.1182 -0.1237
 2614POSM   C4B30674  31.733   7.386  12.142  0.2604 -0.1004  0.0599
 2615DOPC   NC330675  30.842   4.230  13.976  0.0812  0.1141 -0.1560
 2615DOPC   PO430676  31.232   4.347  13.923  0.1775 -0.2733 -0.2643
 2615DOPC   GL130677  31.158   4.423  13.486  0.0956  0.0990  0.2352
 2615DOPC   GL230678  30.988   4.673  13.565 -0.2098  0.0420 -0.2902
 2615DOPC   C1A30679  31.550   4.677  13.431  0.0941 -0.1789  0.0324
 2615DOPC   D2A30680  31.983   4.847  13.335 -0.0985  0.3307 -0.0622
 2615DOPC   C3A30681  32.215   5.218  13.140  0.2685 -0.1433  0.0865
 2615DOPC   C4A30682  32.354   5.665  13.034  0.0127  0.0557 -0.3452
 2615DOPC   C1B30683  31.203   4.966  13.274 -0.0628  0.1498  0.0403
 2615DOPC   D2B30684  31.407   4.922  12.850 -0.1002 -0.0017  0.2007
 2615DOPC   C3B30685  31.139   5.111  12.537 -0.0499  0.3556  0.1737
 2615DOPC   C4B30686  30.819   5.443  12.713  0.3320  0.3103  0.0990
 2616DOPE   NH330687  34.110   6.224  13.948  0.0923 -0.0966 -0.1328
 2616DOPE   PO430688  33.804   6.120  14.067 -0.2834 -0.0857 -0.3198
 2616DOPE   GL130689  33.643   6.436  13.919 -0.2022 -0.0890  0.0324
 2616DOPE   GL230690  33.726   6.670  13.952  0.0081  0.0468  0.1085
 2616DOPE   C1A30691  33.659   6.371  13.494  0.1911  0.2982 -0.0523
 2616DOPE   D2A30692  33.660   6.272  13.036  0.2888  0.0454  0.0371
 2616DOPE   C3A30693  33.401   5.899  12.848 -0.1835  0.0852  0.0759
 2616DOPE   C4A30694  33.247   5.496  12.899  0.1704  0.2781 -0.5518
 2616DOPE   C1B30695  33.738   6.856  13.486 -0.3747 -0.4573 -0.0950
 2616DOPE   D2B30696  33.831   7.233  13.198  0.0127 -0.1396  0.1187
 2616DOPE   C3B30697  33.635   7.444  12.810  0.1802 -0.2208  0.0620
 2616DOPE   C4B30698  33.228   7.467  12.701 -0.0984 -0.0440  0.0770
 2617POSM   NC330699  31.424   1.821  14.458 -0.2761 -0.0356  0.2524
 2617POSM   PO430700  31.286   1.912  14.100  0.0922 -0.3792 -0.2465
 2617POSM   AM130701  31.261   1.930  13.755  0.0300  0.1836 -0.0912
 2617POSM   AM230702  31.040   1.905  13.596 -0.1016 -0.1211  0.0323
 2617POSM   T1A30703  31.580   1.894  13.360  0.0040 -0.1783 -0.1919
 2617POSM   C2A30704  32.059   1.791  13.256  0.0367  0.1086 -0.0638
 2617POSM   C3A30705  32.452   1.740  13.005  0.1111  0.0192  0.2128
 2617POSM   C1B30706  31.063   2.039  13.258 -0.2068  0.0032  0.2260
 2617POSM   D2B30707  31.195   1.981  12.801  0.1098 -0.0215  0.0335
 2617POSM   C3B30708  31.183   1.755  12.394 -0.0329 -0.2859 -0.1083
 2617POSM   C4B30709  31.063   1.780  11.966  0.0634 -0.2780 -0.1070
 2618DOPE   NH330710  32.834   8.847  14.315  0.0804  0.0262 -0.0442
 2618DOPE   PO430711  32.841   8.570  14.372 -0.0028  0.0607 -0.2513
 2618DOPE   GL130712  32.725   8.586  13.935  0.0222  0.1640  0.1331
 2618DOPE   GL230713  32.568   8.340  13.944 -0.2073  0.0608  0.0910
 2618DOPE   C1A30714  33.019   8.588  13.601 -0.2693  0.2034  0.2814
 2618DOPE   D2A30715  33.184   8.676  13.166  0.2742  0.3355  0.4350
 2618DOPE   C3A30716  33.275   8.351  12.861 -0.0772 -0.1177  0.0554
 2618DOPE   C4A30717  32.953   8.053  12.683  0.2847 -0.3987 -0.1410
 2618DOPE   C1B30718  32.661   8.096  13.554  0.1441 -0.0333  0.1806
 2618DOPE   D2B30719  32.622   7.946  13.119  0.0079 -0.2731 -0.0943
 2618DOPE   C3B30720  32.440   8.217  12.800 -0.1850 -0.1029 -0.0258
 2618DOPE   C4B30721  32.385   8.274  12.347  0.0445 -0.0524 -0.2517
 2619DOPE   NH330722  26.817   4.376  13.969  0.2501 -0.3892 -0.0372
 2619DOPE   PO430723  27.099   4.289  14.070  0.0830 -0.3159 -0.0173
 2619DOPE   GL130724  27.276   4.341  13.724  0.2257  0.2503  0.3350
 2619DOPE   GL230725  27.168   4.651  13.598  0.3938  0.0418 -0.3486
 2619DOPE   C1A30726  27.382   4.394  13.251  0.2062  0.1697 -0.0908
 2619DOPE   D2A30727  27.405   4.512  12.796 -0.2847 -0.0340 -0.1902
 2619DOPE   C3A30728  27.406   5.007  12.705 -0.1156  0.0564  0.1966
 2619DOPE   C4A30729  27.441   5.200  12.299  0.2863 -0.0267 -0.0723
 2619DOPE   C1B30730  27.246   4.849  13.168  0.0573 -0.2228 -0.0554
 2619DOPE   D2B30731  27.057   5.234  13.006  0.2746  0.0800  0.0103
 2619DOPE   C3B30732  26.682   5.256  12.707  0.0900  0.0217 -0.2049
 2619DOPE   C4B30733  26.516   5.156  12.270 -0.1250  0.1732 -0.0492
 2620DOPE   NH330734  29.285   5.671  14.022  0.1562 -0.1033  0.1567
 2620DOPE   PO430735  29.218   6.004  13.912 -0.2708  0.0966 -0.2313
 2620DOPE   GL130736  29.164   5.834  13.617  0.2155  0.0427  0.4090
 2620DOPE   GL230737  29.299   6.093  13.420  0.2377  0.2184  0.1152
 2620DOPE   C1A30738  28.884   5.881  13.243 -0.1288 -0.0036 -0.0677
 2620DOPE   D2A30739  28.490   5.910  13.067  0.0769  0.1893 -0.1098
 2620DOPE   C3A30740  28.424   5.743  12.628 -0.2915  0.3720  0.1064
 2620DOPE   C4A30741  28.487   5.574  12.220 -0.1569 -0.1134 -0.0259
 2620DOPE   C1B30742  29.313   6.003  12.968  0.2764 -0.0416  0.0360
 2620DOPE   D2B30743  29.031   5.712  12.751  0.0709  0.0211  0.1120
 2620DOPE   C3B30744  28.833   5.982  12.429  0.0196  0.1986 -0.1745
 2620DOPE   C4B30745  28.728   6.523  12.357  0.0095 -0.0755 -0.1268
 2621DOPE   NH330746  25.342   2.724  14.095  0.1733 -0.0470 -0.1333
 2621DOPE   PO430747  25.081   2.940  14.040  0.2318 -0.1458 -0.1141
 2621DOPE   GL130748  25.118   3.158  13.788  0.0920  0.2539  0.0944
 2621DOPE   GL230749  25.279   3.352  13.813 -0.2413 -0.1053 -0.1344
 2621DOPE   C1A30750  25.224   2.981  13.347  0.3871 -0.0325  0.2607
 2621DOPE   D2A30751  25.120   2.844  12.881 -0.2465  0.1335 -0.1694
 2621DOPE   C3A30752  25.271   2.956  12.475  0.0128 -0.1897  0.1274
 2621DOPE   C4A30753  25.333   3.201  12.039  0.0453 -0.0910  0.1684
 2621DOPE   C1B30754  25.451   3.509  13.389  0.2702  0.0968 -0.1313
 2621DOPE   D2B30755  25.649   3.785  13.086  0.0417  0.2250  0.0140
 2621DOPE   C3B30756  25.943   3.630  12.770  0.2869 -0.1018 -0.1524
 2621DOPE   C4B30757  25.967   3.826  12.346 -0.1682  0.1430  0.0305
 2622POSM   NC330758  32.750   2.091  13.821 -0.3089 -0.1108 -0.2379
 2622POSM   PO430759  32.512   2.348  13.912 -0.0859  0.0949 -0.3634
 2622POSM   AM130760  32.597   2.471  13.587  0.0503  0.0297  0.1453
 2622POSM   AM230761  32.705   2.320  13.351  0.0551  0.0450  0.0008
 2622POSM   T1A30762  32.353   2.671  13.162 -0.0020  0.0170  0.0158
 2622POSM   C2A30763  32.176   3.074  12.921 -0.1415 -0.0930  0.0113
 2622POSM   C3A30764  32.140   3.246  12.526 -0.0653  0.1111  0.4408
 2622POSM   C1B30765  32.851   2.418  13.058 -0.0909  0.0104 -0.0509
 2622POSM   D2B30766  32.903   2.514  12.616 -0.0046  0.1104 -0.1342
 2622POSM   C3B30767  32.829   2.826  12.349 -0.0133 -0.1565 -0.4512
 2622POSM   C4B30768  32.627   3.055  12.020 -0.2016 -0.2261  0.0728
 2623DOPE   NH330769  32.152   3.831  13.912  0.2768 -0.3774 -0.0278
 2623DOPE   PO430770  32.434   3.773  13.823  0.0413  0.1066  0.0304
 2623DOPE   GL130771  32.358   3.936  13.475  0.0895  0.1388 -0.4594
 2623DOPE   GL230772  32.056   3.963  13.444 -0.1862 -0.1505 -0.1270
 2623DOPE   C1A30773  32.366   4.044  13.048  0.0709 -0.2511 -0.2748
 2623DOPE   D2A30774  32.118   4.202  12.642 -0.1816  0.1634 -0.1000
 2623DOPE   C3A30775  32.262   4.638  12.402 -0.0154  0.0071  0.0421
 2623DOPE   C4A30776  32.274   4.862  12.025 -0.0187 -0.0141 -0.0553
 2623DOPE   C1B30777  31.951   4.274  13.171 -0.0435  0.1490  0.0747
 2623DOPE   D2B30778  32.083   4.602  12.913 -0.0862  0.0950 -0.1885
 2623DOPE   C3B30779  31.862   4.970  12.663 -0.1696  0.1743  0.0488
 2623DOPE   C4B30780  31.613   5.268  12.462 -0.2106 -0.1721  0.2076
 2624DOPE   NH330781  34.594   7.063  14.128 -0.2080  0.0669  0.2627
 2624DOPE   PO430782  34.738   6.952  13.888  0.1359 -0.4273 -0.0040
 2624DOPE   GL130783  34.562   7.259  13.713  0.0287 -0.0744  0.0157
 2624DOPE   GL230784  34.777   7.258  13.448  0.4822  0.1078  0.0764
 2624DOPE   C1A30785  34.225   7.485  13.417  0.4050  0.0186  0.2486
 2624DOPE   D2A30786  34.101   7.682  13.025  0.2391 -0.0840  0.0560
 2624DOPE   C3A30787  34.130   7.612  12.546  0.0236  0.0740 -0.0079
 2624DOPE   C4A30788  34.091   7.351  12.169  0.1108 -0.3966  0.2064
 2624DOPE   C1B30789  34.641   7.578  13.169  0.0018  0.0277  0.0029
 2624DOPE   D2B30790  34.555   7.885  12.829 -0.0738 -0.2437 -0.0028
 2624DOPE   C3B30791  34.341   8.042  12.497 -0.1156 -0.0052 -0.3639
 2624DOPE   C4B30792  34.376   7.971  12.057 -0.2767  0.1414  0.0062
 2625POSM   NC330793  29.806   3.951  13.941  0.1162  0.1987 -0.4020
 2625POSM   PO430794  29.578   3.788  13.650  0.3229 -0.4902 -0.1413
 2625POSM   AM130795  29.462   3.878  13.377  0.0745  0.1107 -0.2134
 2625POSM   AM230796  29.571   3.928  13.142 -0.3956  0.0086  0.1280
 2625POSM   T1A30797  29.115   4.133  13.088 -0.2298 -0.1196  0.0843
 2625POSM   C2A30798  28.742   4.268  12.766  0.0055 -0.1208 -0.1520
 2625POSM   C3A30799  28.583   4.251  12.318 -0.0176 -0.0018  0.0194
 2625POSM   C1B30800  29.470   3.660  12.979  0.1914  0.0221  0.1150
 2625POSM   D2B30801  29.319   3.470  12.603  0.0101 -0.0035 -0.2434
 2625POSM   C3B30802  29.360   3.612  12.176  0.2816  0.0457  0.1296
 2625POSM   C4B30803  29.508   3.804  11.793  0.0440  0.0514 -0.1915
 2626DOPC   NC330804  24.659   7.460  13.417  0.2347 -0.0141 -0.0438
 2626DOPC   PO430805  24.983   7.469  13.624 -0.2735  0.0171 -0.0440
 2626DOPC   GL130806  25.210   7.557  13.215  0.3001 -0.0776 -0.1901
 2626DOPC   GL230807  25.164   7.341  13.019  0.1913 -0.1044 -0.1090
 2626DOPC   C1A30808  24.996   7.887  12.954  0.3708  0.0172 -0.0291
 2626DOPC   D2A30809  24.923   7.912  12.534  0.1037  0.0169  0.3168
 2626DOPC   C3A30810  25.054   8.122  12.162 -0.4062 -0.1457  0.0325
 2626DOPC   C4A30811  25.509   8.203  12.002 -0.0091  0.0117  0.0215
 2626DOPC   C1B30812  25.212   7.515  12.651 -0.1944 -0.1026  0.0637
 2626DOPC   D2B30813  25.433   7.650  12.257 -0.0718 -0.0112 -0.0160
 2626DOPC   C3B30814  25.895   7.742  12.209 -0.0927  0.2419  0.3369
 2626DOPC   C4B30815  26.232   7.457  12.362 -0.0291 -0.0129 -0.3079
 2627DOPE   NH330816  26.020   4.808  13.735  0.1160 -0.0094  0.0524
 2627DOPE   PO430817  26.305   4.645  13.777  0.0424  0.0929 -0.1090
 2627DOPE   GL130818  26.507   4.487  13.546 -0.0709 -0.0522  0.2728
 2627DOPE   GL230819  26.693   4.673  13.320  0.1383  0.0914 -0.3799
 2627DOPE   C1A30820  26.540   4.226  13.094 -0.1221 -0.0635 -0.2331
 2627DOPE   D2A30821  26.573   4.367  12.638 -0.0808 -0.0559 -0.1768
 2627DOPE   C3A30822  26.939   4.427  12.417 -0.0645  0.0954 -0.2331
 2627DOPE   C4A30823  27.280   4.682  12.294 -0.1757 -0.3867  0.3566
 2627DOPE   C1B30824  26.446   4.790  12.959  0.1192  0.1873 -0.0516
 2627DOPE   D2B30825  26.249   4.819  12.597  0.2426  0.0879 -0.2076
 2627DOPE   C3B30826  26.050   4.433  12.435 -0.2937  0.2903  0.0458
 2627DOPE   C4B30827  26.147   4.287  12.019 -0.2394  0.1564  0.1463
 2628DOPC   NC330828  34.330   2.645  13.668 -0.0540  0.0693 -0.1072
 2628DOPC   PO430829  34.650   2.565  13.442 -0.0748  0.1671  0.0055
 2628DOPC   GL130830  34.609   2.426  13.080  0.0766 -0.0563  0.0759
 2628DOPC   GL230831  34.881   2.398  12.985  0.1184  0.0729 -0.1986
 2628DOPC   C1A30832  34.424   2.312  12.642  0.1078  0.0833  0.3131
 2628DOPC   D2A30833  34.217   2.394  12.252  0.0297  0.2740 -0.0430
 2628DOPC   C3A30834  34.171   1.993  12.045  0.2779 -0.0101  0.3677
 2628DOPC   C4A30835  34.262   1.649  11.708  0.2928 -0.1993  0.2620
 2628DOPC   C1B30836  34.866   2.482  12.483  0.0736  0.1089 -0.1967
 2628DOPC   D2B30837  34.610   2.649  12.181 -0.0130 -0.1788  0.2892
 2628DOPC   C3B30838  34.748   2.912  11.838  0.1703  0.0602  0.2585
 2628DOPC   C4B30839  34.776   3.364  11.858 -0.0148 -0.5237  0.1995
 2629POSM   NC330840  23.809   2.422  14.585 -0.1303 -0.0389 -0.1449
 2629POSM   PO430841  24.085   2.407  14.336  0.1529  0.2428 -0.3544
 2629POSM   AM130842  24.027   2.292  14.024  0.0214 -0.1159  0.0323
 2629POSM   AM230843  23.830   2.404  13.815  0.0220 -0.1727  0.1442
 2629POSM   T1A30844  24.223   2.117  13.585 -0.1234  0.3480 -0.0408
 2629POSM   C2A30845  24.345   1.778  13.276  0.0023  0.1790 -0.1711
 2629POSM   C3A30846  24.312   1.379  13.105  0.2457  0.1802  0.0303
 2629POSM   C1B30847  23.929   2.744  13.666  0.0326  0.2573 -0.2792
 2629POSM   D2B30848  23.869   2.952  13.262  0.0815 -0.0520  0.1139
 2629POSM   C3B30849  24.194   3.018  12.952 -0.2064 -0.1179 -0.2924
 2629POSM   C4B30850  24.248   3.072  12.490  0.2389 -0.0003 -0.0617
 2630DOPE   NH330851  29.726   3.386  13.874 -0.2704 -0.1992 -0.0456
 2630DOPE   PO430852  29.963   3.242  13.767 -0.0506  0.1995 -0.2159
 2630DOPE   GL130853  29.983   3.258  13.384  0.3330 -0.2876  0.1293
 2630DOPE   GL230854  29.760   3.458  13.290 -0.2963 -0.0947  0.1562
 2630DOPE   C1A30855  29.822   2.998  13.021  0.0024 -0.1458  0.0876
 2630DOPE   D2A30856  29.750   3.055  12.600  0.0754  0.1526  0.0826
 2630DOPE   C3A30857  29.414   2.840  12.362  0.1164 -0.3038 -0.0196
 2630DOPE   C4A30858  29.311   2.739  11.946  0.1282  0.0457  0.1759
 2630DOPE   C1B30859  29.398   3.222  13.154 -0.2649 -0.0725 -0.2755
 2630DOPE   D2B30860  29.227   2.949  12.901  0.2404  0.2649  0.2302
 2630DOPE   C3B30861  28.854   2.791  12.649  0.2036 -0.2333  0.1074
 2630DOPE   C4B30862  28.791   2.733  12.187  0.1716 -0.0887  0.2270
 2631DOPE   NH330863  32.539   3.250  13.968  0.1009 -0.0779 -0.1751
 2631DOPE   PO430864  32.232   3.289  13.848 -0.0448  0.0000  0.0358
 2631DOPE   GL130865  32.478   3.384  13.513 -0.1668 -0.4098 -0.3026
 2631DOPE   GL230866  32.282   3.471  13.306  0.0487 -0.1191 -0.0996
 2631DOPE   C1A30867  32.681   3.277  13.095 -0.0612 -0.2505 -0.1296
 2631DOPE   D2A30868  32.750   2.883  12.902  0.2412 -0.1344 -0.0461
 2631DOPE   C3A30869  32.368   2.696  12.664  0.0844  0.1236 -0.2462
 2631DOPE   C4A30870  32.007   2.467  12.576  0.0836  0.0228  0.1464
 2631DOPE   C1B30871  32.227   3.596  12.862 -0.1444  0.1139  0.0421
 2631DOPE   D2B30872  32.111   3.765  12.442  0.0586 -0.0693  0.1310
 2631DOPE   C3B30873  32.065   3.507  12.029 -0.0505  0.1824 -0.0783
 2631DOPE   C4B30874  31.814   3.290  11.714  0.1086 -0.3549 -0.0840
 2632POSM   NC330875  28.223   2.887  13.980  0.1891 -0.2689 -0.1499
 2632POSM   PO430876  28.342   2.548  14.072 -0.2284  0.1849  0.1409
 2632POSM   AM130877  28.354   2.525  13.764  0.0208 -0.2925  0.1846
 2632POSM   AM230878  28.172   2.607  13.562  0.2991 -0.0530  0.1182
 2632POSM   T1A30879  28.585   2.760  13.397 -0.2063  0.0065 -0.3327
 2632POSM   C2A30880  28.502   2.981  12.937 -0.2823  0.1418  0.1401
 2632POSM   C3A30881  28.466   2.962  12.491  0.0529  0.0861 -0.3381
 2632POSM   C1B30882  28.056   2.641  13.258 -0.0972  0.0569  0.0550
 2632POSM   D2B30883  27.846   2.722  12.809  0.1088 -0.1779 -0.1613
 2632POSM   C3B30884  27.528   3.004  12.556  0.0833 -0.4566 -0.0114
 2632POSM   C4B30885  27.478   3.221  12.038  0.1377 -0.0191  0.0076
 2633DOPS   CNO30886  28.531   3.328  14.104  0.1573 -0.2395  0.0857
 2633DOPS   PO430887  28.245   3.572  14.053 -0.0807 -0.1200  0.0826
 2633DOPS   GL130888  28.370   3.670  13.576  0.1954  0.0290  0.0155
 2633DOPS   GL230889  28.150   3.775  13.405  0.0357 -0.0219  0.0577
 2633DOPS   C1A30890  28.413   3.485  13.107  0.0955 -0.4381 -0.4141
 2633DOPS   D2A30891  28.413   3.413  12.647 -0.2896  0.1959 -0.1036
 2633DOPS   C3A30892  28.835   3.350  12.484 -0.1911  0.0153  0.2955
 2633DOPS   C4A30893  29.068   3.175  12.135  0.1552  0.0525 -0.1278
 2633DOPS   C1B30894  27.987   3.690  13.005  0.1905 -0.0711  0.0288
 2633DOPS   D2B30895  27.925   3.781  12.573 -0.0988  0.2157  0.2948
 2633DOPS   C3B30896  27.743   3.615  12.169 -0.0711  0.0226  0.0422
 2633DOPS   C4B30897  27.421   3.775  11.901 -0.0749  0.0603  0.2996
 2634DOPC   NC330898  28.127  12.832  14.486  0.0850  0.2122  0.0345
 2634DOPC   PO430899  28.512  12.775  14.601  0.1351 -0.4527  0.0081
 2634DOPC   GL130900  28.607  12.636  14.285  0.4590 -0.0489 -0.2234
 2634DOPC   GL230901  28.363  12.548  14.175  0.1063 -0.0281 -0.0752
 2634DOPC   C1A30902  28.901  12.657  13.890  0.5174 -0.1249 -0.1012
 2634DOPC   D2A30903  28.993  12.880  13.501 -0.0228  0.1278 -0.0957
 2634DOPC   C3A30904  28.772  12.898  13.049 -0.2302 -0.0185  0.1090
 2634DOPC   C4A30905  28.429  13.131  12.830  0.1643 -0.0372 -0.0220
 2634DOPC   C1B30906  28.479  12.334  13.818 -0.1709 -0.0801 -0.1683
 2634DOPC   D2B30907  28.318  12.218  13.410 -0.4961  0.2849 -0.3548
 2634DOPC   C3B30908  28.499  12.235  12.986 -0.0509 -0.0680 -0.1764
 2634DOPC   C4B30909  28.583  12.376  12.572 -0.1405  0.2437  0.0215
 2635POSM   NC330910  29.341   7.272  13.914 -0.0942  0.4031 -0.1936
 2635POSM   PO430911  29.321   6.925  14.097 -0.1494  0.1821  0.2785
 2635POSM   AM130912  29.225   6.762  13.814 -0.3048 -0.3731  0.1754
 2635POSM   AM230913  29.269   6.515  13.678  0.0261  0.0101 -0.0929
 2635POSM   T1A30914  28.959   6.840  13.379 -0.1666 -0.1108  0.1529
 2635POSM   C2A30915  28.708   6.748  12.992  0.2664  0.2489  0.0530
 2635POSM   C3A30916  28.526   6.903  12.600  0.0641 -0.3519 -0.0878
 2635POSM   C1B30917  29.424   6.565  13.358  0.0018  0.0207  0.0734
 2635POSM   D2B30918  29.382   6.557  12.896 -0.1900 -0.2570  0.0210
 2635POSM   C3B30919  29.114   6.753  12.565 -0.0314  0.1038  0.0958
 2635POSM   C4B30920  29.031   6.800  12.095  0.0787 -0.0460 -0.0893
 2636DOPE   NH330921  32.269   2.804  13.932 -0.0622 -0.0223  0.3823
 2636DOPE   PO430922  31.989   2.645  13.789 -0.0058 -0.0282 -0.0957
 2636DOPE   GL130923  31.928   2.651  13.417 -0.2159  0.2155 -0.0349
 2636DOPE   GL230924  31.996   2.373  13.340  0.3329 -0.1981 -0.0680
 2636DOPE   C1A30925  31.844   2.671  12.973  0.3688 -0.0964  0.0129
 2636DOPE   D2A30926  31.514   2.492  12.667 -0.2108  0.0894  0.1474
 2636DOPE   C3A30927  31.540   2.415  12.217 -0.1043 -0.2157 -0.1676
 2636DOPE   C4A30928  31.552   2.306  11.741 -0.1392 -0.0952  0.0175
 2636DOPE   C1B30929  32.240   2.214  12.986 -0.2295  0.1827  0.3085
 2636DOPE   D2B30930  32.186   2.025  12.538 -0.0974 -0.0764  0.2403
 2636DOPE   C3B30931  32.444   1.889  12.162  0.4289  0.1977  0.1632
 2636DOPE   C4B30932  32.826   1.608  12.074 -0.2608 -0.0779  0.0001
 2637DOPS   CNO30933  29.503   0.649  14.114  0.1146 -0.0245 -0.0817
 2637DOPS   PO430934  29.850   0.589  13.913  0.0293  0.1334 -0.1386
 2637DOPS   GL130935  29.940   0.736  13.562 -0.2155 -0.3163 -0.0834
 2637DOPS   GL230936  29.713   0.914  13.364  0.0952 -0.0743 -0.1850
 2637DOPS   C1A30937  29.830   0.449  13.202  0.1535 -0.3019  0.2485
 2637DOPS   D2A30938  29.725   0.484  12.753  0.0902 -0.0643 -0.2540
 2637DOPS   C3A30939  29.561   0.889  12.607  0.0409  0.2116  0.1551
 2637DOPS   C4A30940  29.577   1.124  12.199  0.0467 -0.0722 -0.0040
 2637DOPS   C1B30941  29.384   0.792  13.072  0.0849 -0.0400  0.2039
 2637DOPS   D2B30942  29.169   0.634  12.737 -0.0375  0.2324  0.0891
 2637DOPS   C3B30943  29.393   0.452  12.304 -0.3195  0.3024 -0.1108
 2637DOPS   C4B30944  29.753   0.621  12.123 -0.1639 -0.1167  0.0370
 2638DOPS   CNO30945  31.541   7.212  13.973  0.1760  0.0996  0.0498
 2638DOPS   PO430946  31.282   7.064  14.203 -0.0646 -0.2413 -0.3247
 2638DOPS   GL130947  31.089   7.071  13.874 -0.3074 -0.5205 -0.0660
 2638DOPS   GL230948  31.225   6.827  13.738  0.2490 -0.0176 -0.0181
 2638DOPS   C1A30949  31.168   7.234  13.452 -0.3987 -0.0412 -0.1898
 2638DOPS   D2A30950  31.027   7.588  13.147  0.2475  0.2548  0.0202
 2638DOPS   C3A30951  31.142   7.572  12.721  0.0393 -0.0617  0.1782
 2638DOPS   C4A30952  31.117   7.515  12.268 -0.1506 -0.0478 -0.2034
 2638DOPS   C1B30953  31.273   6.821  13.241 -0.0202  0.0384  0.1491
 2638DOPS   D2B30954  31.327   6.699  12.795  0.1747  0.1110 -0.0615
 2638DOPS   C3B30955  31.064   6.796  12.400 -0.0931  0.0299 -0.0790
 2638DOPS   C4B30956  31.218   7.085  12.088  0.0268  0.2447 -0.0161
 2639DOPE   NH330957   2.890  34.386  13.663 -0.2844  0.3074 -0.0333
 2639DOPE   PO430958   2.734  34.112  13.683 -0.0685  0.2288 -0.1121
 2639DOPE   GL130959   2.734  33.950  13.339  0.3229  0.0473  0.0329
 2639DOPE   GL230960   2.962  34.070  13.191 -0.1228 -0.2307  0.1639
 2639DOPE   C1A30961   2.367  33.794  13.144 -0.1321  0.0081 -0.0953
 2639DOPE   D2A30962   2.103  33.926  12.751  0.0129  0.0188 -0.0891
 2639DOPE   C3A30963   1.661  33.912  12.813 -0.1025  0.3479  0.0559
 2639DOPE   C4A30964   1.186  33.740  12.772  0.2527 -0.2578  0.1861
 2639DOPE   C1B30965   2.915  34.084  12.691 -0.0521  0.3490 -0.0244
 2639DOPE   D2B30966   2.893  34.005  12.257  0.1229  0.0195  0.2684
 2639DOPE   C3B30967   3.181  34.043  11.906 -0.1768  0.0857  0.1363
 2639DOPE   C4B30968   3.598  34.220  11.837 -0.2930 -0.0239 -0.3012
 2640DOPC   NC330969  31.542   2.640  14.032  0.0249 -0.2637 -0.0105
 2640DOPC   PO430970  31.285   2.915  13.822  0.1602 -0.2573  0.0123
 2640DOPC   GL130971  31.458   2.685  13.512 -0.0078 -0.0316 -0.1700
 2640DOPC   GL230972  31.516   2.876  13.314 -0.1055  0.0188 -0.1272
 2640DOPC   C1A30973  31.506   2.354  13.164  0.1180 -0.2802 -0.0881
 2640DOPC   D2A30974  31.756   2.013  12.943 -0.4919 -0.1143  0.0637
 2640DOPC   C3A30975  31.624   1.994  12.519  0.2011  0.2090  0.1783
 2640DOPC   C4A30976  31.458   1.994  12.093  0.1228  0.0031  0.2450
 2640DOPC   C1B30977  31.151   2.764  13.155 -0.2195  0.1532 -0.1759
 2640DOPC   D2B30978  30.951   2.414  12.859  0.0047 -0.0553  0.0600
 2640DOPC   C3B30979  30.678   2.492  12.507 -0.0675 -0.1211 -0.0382
 2640DOPC   C4B30980  30.632   2.292  12.083  0.3128 -0.1042 -0.1205
 2641DOPS   CNO30981   1.336   1.938  13.656  0.0550  0.0563 -0.1596
 2641DOPS   PO430982   1.125   1.890  13.331 -0.0212 -0.3381 -0.1545
 2641DOPS   GL130983   1.097   2.066  12.960 -0.2083  0.2038 -0.1888
 2641DOPS   GL230984   1.180   1.770  12.817 -0.1115  0.2192 -0.1080
 2641DOPS   C1A30985   0.774   2.077  12.617  0.1625 -0.1914  0.0750
 2641DOPS   D2A30986   0.520   1.898  12.257  0.2779 -0.0672 -0.1584
 2641DOPS   C3A30987   0.585   2.030  11.801  0.0255 -0.0753 -0.0726
 2641DOPS   C4A30988   0.549   1.987  11.335  0.0445  0.2363  0.0962
 2641DOPS   C1B30989   1.229   2.041  12.461  0.3226  0.1685 -0.2004
 2641DOPS   D2B30990   1.370   2.418  12.231  0.0338 -0.0217  0.2408
 2641DOPS   C3B30991   1.225   2.575  11.797 -0.1010 -0.0084 -0.1178
 2641DOPS   C4B30992   1.450   2.636  11.385 -0.0222  0.3514 -0.1199
 2642DOPE   NH330993  31.949  10.561  14.979  0.3558  0.1785 -0.1540
 2642DOPE   PO430994  31.800  10.676  14.740  0.0159  0.1030 -0.0270
 2642DOPE   GL130995  31.841  10.668  14.454 -0.1090 -0.4819  0.3876
 2642DOPE   GL230996  32.124  10.639  14.338  0.0762 -0.0237  0.2791
 2642DOPE   C1A30997  31.654  10.818  14.035 -0.0977 -0.1331 -0.3554
 2642DOPE   D2A30998  31.487  10.483  13.749  0.0902 -0.1424  0.3069
 2642DOPE   C3A30999  31.678  10.459  13.300  0.1272 -0.2572  0.1550
 2642DOPE   C4A31000  31.443  10.491  12.888 -0.0241 -0.0880  0.1124
 2642DOPE   C1B31001  31.943  10.348  14.083  0.3177  0.0954 -0.2077
 2642DOPE   D2B31002  31.725  10.025  13.832 -0.1659  0.1307 -0.1533
 2642DOPE   C3B31003  31.742   9.964  13.392  0.0295 -0.0075  0.2471
 2642DOPE   C4B31004  31.561   9.657  13.105  0.0243  0.2309 -0.0037
 2643DOPE   NH331005  32.553   6.262  13.876 -0.1855 -0.0384  0.2408
 2643DOPE   PO431006  32.360   6.065  13.874  0.2828 -0.2360 -0.1897
 2643DOPE   GL131007  32.382   5.653  13.793 -0.1145  0.0092  0.0301
 2643DOPE   GL231008  32.104   5.590  13.816 -0.0681 -0.0752  0.2635
 2643DOPE   C1A31009  32.617   5.512  13.459  0.0033  0.0584  0.0631
 2643DOPE   D2A31010  32.875   5.229  13.158  0.0822  0.1701  0.0335
 2643DOPE   C3A31011  32.815   5.369  12.749  0.1040 -0.1574 -0.0584
 2643DOPE   C4A31012  32.903   5.746  12.585 -0.1524  0.0773  0.1255
 2643DOPE   C1B31013  31.907   5.675  13.423  0.1958  0.2291  0.0276
 2643DOPE   D2B31014  31.514   5.797  13.195  0.3360  0.0020  0.1515
 2643DOPE   C3B31015  31.672   5.970  12.861  0.1792 -0.2043 -0.0950
 2643DOPE   C4B31016  31.886   5.893  12.485 -0.3723 -0.2792  0.0548
 2644DOPE   NH331017  30.241   4.126  13.826 -0.2115 -0.0300 -0.1106
 2644DOPE   PO431018  30.493   4.007  13.698  0.0754 -0.2008 -0.1097
 2644DOPE   GL131019  30.418   3.906  13.319  0.3517 -0.0415 -0.0112
 2644DOPE   GL231020  30.407   3.682  13.233 -0.1088  0.0978  0.0232
 2644DOPE   C1A31021  30.123   4.115  13.024  0.0063 -0.2852  0.1910
 2644DOPE   D2A31022  29.932   4.051  12.608  0.1234 -0.0177 -0.1652
 2644DOPE   C3A31023  29.503   4.093  12.495 -0.2275  0.1940  0.1102
 2644DOPE   C4A31024  29.066   4.078  12.350 -0.2692 -0.2261 -0.2372
 2644DOPE   C1B31025  30.436   3.618  12.803  0.0093 -0.0626  0.0553
 2644DOPE   D2B31026  30.375   3.453  12.400 -0.1328 -0.2644  0.3731
 2644DOPE   C3B31027  30.469   3.805  12.132 -0.2277 -0.1641 -0.1197
 2644DOPE   C4B31028  30.798   4.141  12.142  0.1176 -0.2092  0.0507
 2645DOPC   NC331029   3.649   7.321  14.239  0.3197  0.0228 -0.2252
 2645DOPC   PO431030   3.579   7.498  13.874  0.0938 -0.2432  0.0114
 2645DOPC   GL131031   3.416   7.451  13.560 -0.1644 -0.0982 -0.2368
 2645DOPC   GL231032   3.113   7.363  13.601  0.3735 -0.3154  0.4165
 2645DOPC   C1A31033   3.342   7.877  13.394 -0.0709  0.0690 -0.1008
 2645DOPC   D2A31034   3.200   8.177  13.016 -0.3731  0.2222  0.2833
 2645DOPC   C3A31035   3.473   8.073  12.615  0.0689 -0.0694 -0.0126
 2645DOPC   C4A31036   3.678   8.062  12.159  0.0340 -0.0460 -0.1405
 2645DOPC   C1B31037   3.095   7.545  13.213 -0.1385 -0.0633  0.0619
 2645DOPC   D2B31038   3.370   7.443  12.825  0.0142  0.0620  0.2642
 2645DOPC   C3B31039   3.619   7.086  12.624  0.2422 -0.4019 -0.3455
 2645DOPC   C4B31040   3.830   6.836  12.333  0.2433  0.1321 -0.0833
 2646POSM   NC331041  24.766   6.601  13.475 -0.1937  0.0374  0.0812
 2646POSM   PO431042  25.098   6.703  13.700  0.0573 -0.1222  0.4193
 2646POSM   AM131043  25.257   6.636  13.423  0.1199 -0.1706  0.2351
 2646POSM   AM231044  25.151   6.609  13.157 -0.0200  0.2755  0.0144
 2646POSM   T1A31045  25.661   6.707  13.239 -0.2482  0.1304 -0.0143
 2646POSM   C2A31046  25.858   6.758  12.853  0.1988 -0.1176 -0.0554
 2646POSM   C3A31047  26.066   7.017  12.524  0.3373 -0.0001  0.0963
 2646POSM   C1B31048  25.289   6.837  12.958 -0.0890 -0.2531  0.0051
 2646POSM   D2B31049  25.484   6.914  12.547 -0.0038  0.2210 -0.1109
 2646POSM   C3B31050  25.701   6.766  12.159 -0.3867  0.0007  0.1493
 2646POSM   C4B31051  25.855   6.728  11.769  0.0058  0.0427 -0.1328
 2647POSM   NC331052  24.586  10.682  13.915 -0.2899 -0.1102 -0.2182
 2647POSM   PO431053  24.869  10.899  13.874  0.0912  0.2617 -0.3654
 2647POSM   AM131054  24.888  10.766  13.592 -0.1885 -0.0612 -0.1945
 2647POSM   AM231055  24.857  10.519  13.506  0.0658 -0.4184  0.0124
 2647POSM   T1A31056  25.061  11.009  13.208 -0.1661  0.1159  0.0789
 2647POSM   C2A31057  25.118  11.090  12.763  0.3502 -0.0596 -0.2512
 2647POSM   C3A31058  25.163  11.276  12.385  0.2893 -0.1987 -0.2951
 2647POSM   C1B31059  25.117  10.516  13.258  0.2025 -0.3913  0.1489
 2647POSM   D2B31060  25.133  10.611  12.816 -0.3324 -0.1404 -0.1640
 2647POSM   C3B31061  25.004  10.744  12.396 -0.1972 -0.3008  0.0964
 2647POSM   C4B31062  24.990  10.908  11.977 -0.1387  0.2490 -0.1995
 2648DOPC   NC331063  27.559   5.282  14.212 -0.0700  0.4112  0.1211
 2648DOPC   PO431064  27.893   5.293  13.986 -0.1847  0.0290  0.1732
 2648DOPC   GL131065  28.045   5.125  13.752  0.1290  0.1269 -0.1021
 2648DOPC   GL231066  28.089   4.902  13.652 -0.2305  0.0219  0.0263
 2648DOPC   C1A31067  27.937   5.232  13.328 -0.0063 -0.1699  0.5050
 2648DOPC   D2A31068  27.538   5.294  13.125  0.0573  0.0040  0.1245
 2648DOPC   C3A31069  27.379   5.517  12.740  0.1746  0.0756  0.0349
 2648DOPC   C4A31070  27.497   5.763  12.336 -0.1704  0.0864  0.1782
 2648DOPC   C1B31071  27.959   4.753  13.288  0.0714  0.0951  0.1718
 2648DOPC   D2B31072  27.813   4.833  12.892 -0.1278  0.0509  0.0569
 2648DOPC   C3B31073  27.833   4.854  12.467 -0.1192  0.0932  0.1894
 2648DOPC   C4B31074  27.759   4.677  12.042 -0.0844  0.0485  0.1159
 2649DOPC   NC331075  31.005   6.617  14.106 -0.0727 -0.2090  0.0849
 2649DOPC   PO431076  30.682   6.805  14.141  0.3697 -0.1480  0.4102
 2649DOPC   GL131077  30.739   6.877  13.730 -0.1257 -0.1905  0.0448
 2649DOPC   GL231078  30.603   6.604  13.613  0.1470 -0.0499  0.1392
 2649DOPC   C1A31079  30.733   6.956  13.257 -0.3012  0.0189 -0.0584
 2649DOPC   D2A31080  30.933   7.061  12.851 -0.0349 -0.0151  0.1985
 2649DOPC   C3A31081  30.798   7.298  12.523 -0.1636 -0.0361 -0.3231
 2649DOPC   C4A31082  30.634   7.727  12.406 -0.0819 -0.1348 -0.1583
 2649DOPC   C1B31083  30.449   6.394  13.262  0.0465 -0.0959 -0.0652
 2649DOPC   D2B31084  30.161   6.471  12.902  0.0108  0.1880 -0.0541
 2649DOPC   C3B31085  30.434   6.298  12.523  0.0871  0.2109  0.0717
 2649DOPC   C4B31086  30.536   6.062  12.182 -0.1296 -0.0446 -0.1655
 2650DOPS   CNO31087  23.011   8.729  14.389 -0.0623 -0.0026  0.0429
 2650DOPS   PO431088  23.264   8.837  14.136 -0.1004 -0.1760 -0.0399
 2650DOPS   GL131089  23.128   8.712  13.819 -0.0881 -0.2208  0.1044
 2650DOPS   GL231090  22.806   8.752  13.769 -0.0273 -0.1153  0.1698
 2650DOPS   C1A31091  23.166   8.599  13.324 -0.2276  0.0337  0.0533
 2650DOPS   D2A31092  23.404   8.436  12.961  0.1261 -0.3758  0.0992
 2650DOPS   C3A31093  23.405   8.699  12.602 -0.1241  0.0156 -0.0577
 2650DOPS   C4A31094  23.375   8.970  12.254 -0.1338 -0.0972  0.1114
 2650DOPS   C1B31095  22.814   9.002  13.365  0.2309 -0.0184 -0.0855
 2650DOPS   D2B31096  22.972   9.334  13.090 -0.2720 -0.1137  0.1565
 2650DOPS   C3B31097  22.772   9.331  12.688 -0.1840  0.1462 -0.2203
 2650DOPS   C4B31098  22.629   9.654  12.390 -0.1641  0.1404 -0.2427
 2651DOPE   NH331099  28.736  34.661  14.005  0.1248 -0.0379  0.0475
 2651DOPE   PO431100  29.031  34.591  13.868 -0.0740 -0.0757 -0.0064
 2651DOPE   GL131101  28.822  34.630  13.530  0.0602 -0.0305  0.1221
 2651DOPE   GL231102  28.621  34.843  13.341 -0.1185 -0.1460  0.1104
 2651DOPE   C1A31103  28.829  34.367  13.170 -0.1702 -0.1969 -0.1991
 2651DOPE   D2A31104  28.882  34.311  12.675  0.1953 -0.1271  0.0943
 2651DOPE   C3A31105  28.650  33.975  12.453  0.1996 -0.1107  0.1213
 2651DOPE   C4A31106  28.729  33.517  12.420  0.0284  0.0774  0.1309
 2651DOPE   C1B31107  28.616  34.729  12.902  0.0324 -0.1436  0.0006
 2651DOPE   D2B31108  28.429  34.729  12.506 -0.1199  0.1354  0.0259
 2651DOPE   C3B31109  28.633  34.432  12.266  0.2019  0.0368 -0.1384
 2651DOPE   C4B31110  29.069  34.180  12.210 -0.1163  0.2969 -0.1223
 2652DOPS   CNO31111  31.712   4.619  13.972  0.0845 -0.0502  0.0289
 2652DOPS   PO431112  31.955   4.949  14.018 -0.1505 -0.2965 -0.0346
 2652DOPS   GL131113  31.742   5.021  13.681  0.2289  0.2159 -0.1401
 2652DOPS   GL231114  31.680   5.318  13.728 -0.0663  0.2589  0.1585
 2652DOPS   C1A31115  31.643   5.218  13.257  0.3106  0.1595  0.1412
 2652DOPS   D2A31116  31.802   5.521  12.872 -0.2334 -0.2171 -0.1118
 2652DOPS   C3A31117  32.088   5.379  12.573 -0.0842  0.2336 -0.3437
 2652DOPS   C4A31118  32.502   5.235  12.324  0.0028 -0.0848  0.1478
 2652DOPS   C1B31119  31.280   5.428  13.524  0.1813 -0.5387 -0.2301
 2652DOPS   D2B31120  31.164   5.466  13.085  0.2748  0.1147  0.0144
 2652DOPS   C3B31121  31.291   5.685  12.725 -0.0036  0.0884  0.2901
 2652DOPS   C4B31122  31.462   5.835  12.318 -0.1747 -0.1639 -0.3031
 2653DOPE   NH331123  31.081   0.405   9.776 -0.0585  0.0026  0.1095
 2653DOPE   PO431124  31.149   0.193  10.030 -0.4346  0.0355  0.1514
 2653DOPE   GL131125  31.194   0.239  10.352 -0.4005 -0.2894  0.1929
 2653DOPE   GL231126  30.872   0.334  10.512  0.1172 -0.4415  0.0924
 2653DOPE   C1A31127  31.619   0.181  10.530 -0.2928 -0.4233 -0.0979
 2653DOPE   D2A31128  31.972  -0.155  10.511  0.0627 -0.1237  0.3839
 2653DOPE   C3A31129  32.242  -0.360  10.821  0.1458 -0.1850  0.0088
 2653DOPE   C4A31130  32.391  -0.656  11.150 -0.3046  0.0862 -0.1469
 2653DOPE   C1B31131  31.250   0.498  10.745 -0.0160  0.3198 -0.1304
 2653DOPE   D2B31132  31.321   0.724  11.130  0.0202  0.0303 -0.0514
 2653DOPE   C3B31133  31.379   0.469  11.516 -0.1649  0.1502  0.0565
 2653DOPE   C4B31134  31.647   0.587  11.913  0.0134  0.1667 -0.1065
 2654DOPS   CNO31135  25.202   7.457  10.006  0.0274  0.2062  0.0598
 2654DOPS   PO431136  25.586   7.489  10.082 -0.0211 -0.0062  0.3589
 2654DOPS   GL131137  25.431   7.548  10.392  0.3459  0.4103  0.1838
 2654DOPS   GL231138  25.624   7.302  10.556 -0.1645 -0.1000  0.1063
 2654DOPS   C1A31139  25.163   7.514  10.823 -0.1643  0.0309  0.0155
 2654DOPS   D2A31140  25.246   7.330  11.255  0.1408  0.1571 -0.2535
 2654DOPS   C3A31141  25.210   7.556  11.666 -0.0559  0.1480  0.3954
 2654DOPS   C4A31142  24.882   7.542  12.056  0.0678  0.1084 -0.3152
 2654DOPS   C1B31143  25.425   7.015  10.825 -0.1689 -0.0924 -0.1417
 2654DOPS   D2B31144  25.596   6.934  11.239  0.0118 -0.2183 -0.2846
 2654DOPS   C3B31145  25.628   7.228  11.614 -0.0267 -0.0706 -0.1414
 2654DOPS   C4B31146  25.656   7.247  12.021  0.0973  0.0891 -0.1816
 2655DOPE   NH331147  32.146   3.978   9.768  0.0074  0.2119  0.1049
 2655DOPE   PO431148  32.284   4.026  10.057 -0.1482 -0.0763  0.2347
 2655DOPE   GL131149  32.255   4.141  10.466  0.3040 -0.1060  0.0253
 2655DOPE   GL231150  32.015   4.337  10.469  0.1191 -0.0934  0.2580
 2655DOPE   C1A31151  32.234   3.870  10.856 -0.0996 -0.4816 -0.1605
 2655DOPE   D2A31152  32.499   3.791  11.259 -0.1337 -0.0532  0.0181
 2655DOPE   C3A31153  32.416   4.073  11.633  0.0467  0.1925  0.0623
 2655DOPE   C4A31154  32.382   3.961  12.034 -0.0879 -0.1018  0.1882
 2655DOPE   C1B31155  31.755   4.437  10.849  0.1935  0.0166  0.1275
 2655DOPE   D2B31156  31.810   4.514  11.334  0.0765  0.0307  0.1631
 2655DOPE   C3B31157  31.499   4.705  11.625  0.1178  0.0505  0.2035
 2655DOPE   C4B31158  31.084   4.899  11.593 -0.1667 -0.1298 -0.3407
 2656DOPE   NH331159  32.392   0.527   9.795  0.2011 -0.2646 -0.0771
 2656DOPE   PO431160  32.551   0.455  10.089  0.2111  0.0779 -0.2867
 2656DOPE   GL131161  32.449   0.344  10.459  0.0362 -0.1747 -0.2581
 2656DOPE   GL231162  32.476   0.626  10.579  0.0330 -0.1925 -0.0487
 2656DOPE   C1A31163  32.477   0.200  10.898 -0.1045 -0.1391 -0.1986
 2656DOPE   D2A31164  32.353   0.499  11.218  0.0957  0.2135 -0.0296
 2656DOPE   C3A31165  32.398   0.404  11.639  0.3135 -0.0995  0.0597
 2656DOPE   C4A31166  32.177   0.590  12.042  0.0634  0.3175  0.0022
 2656DOPE   C1B31167  32.631   0.822  10.968 -0.0655 -0.0526  0.1575
 2656DOPE   D2B31168  32.421   1.024  11.245 -0.2094  0.0882  0.3400
 2656DOPE   C3B31169  32.495   0.929  11.732  0.1306  0.5254  0.3337
 2656DOPE   C4B31170  32.643   0.979  12.153  0.1339 -0.0020 -0.4277
 2657DOPC   NC331171  32.582   1.269   9.385 -0.3147 -0.3258 -0.3007
 2657DOPC   PO431172  32.759   1.297   9.762 -0.0427  0.0607  0.2031
 2657DOPC   GL131173  32.853   1.238  10.109  0.3945  0.3647  0.1716
 2657DOPC   GL231174  32.830   1.473  10.288  0.0392  0.1402 -0.2402
 2657DOPC   C1A31175  32.748   1.095  10.578  0.0344  0.1017 -0.2731
 2657DOPC   D2A31176  32.950   1.294  10.930  0.1902  0.0585 -0.1306
 2657DOPC   C3A31177  33.088   1.115  11.322  0.2607 -0.2538 -0.0101
 2657DOPC   C4A31178  32.903   0.742  11.512 -0.1600 -0.0920 -0.0612
 2657DOPC   C1B31179  32.771   1.644  10.669 -0.1605 -0.0178  0.0373
 2657DOPC   D2B31180  32.847   1.805  11.081 -0.2434  0.1932  0.1019
 2657DOPC   C3B31181  33.235   1.610  11.298  0.2759  0.2055  0.0466
 2657DOPC   C4B31182  33.263   1.583  11.753  0.2442  0.2664 -0.0394
 2658DOPC   NC331183  24.008   8.713  10.238  0.1032 -0.1592 -0.1679
 2658DOPC   PO431184  24.406   8.660  10.382  0.1296 -0.0100 -0.1232
 2658DOPC   GL131185  24.149   8.698  10.663 -0.1194  0.0503 -0.0626
 2658DOPC   GL231186  24.280   8.929  10.835  0.0457  0.3111 -0.0103
 2658DOPC   C1A31187  23.870   8.762  11.021  0.3293 -0.0033 -0.3436
 2658DOPC   D2A31188  23.824   9.041  11.417 -0.0738  0.2084  0.1045
 2658DOPC   C3A31189  23.995   9.388  11.640 -0.1665 -0.1612 -0.1111
 2658DOPC   C4A31190  23.906   9.771  11.913 -0.1041  0.1959 -0.0610
 2658DOPC   C1B31191  24.401   8.548  11.080 -0.0064 -0.1582 -0.1392
 2658DOPC   D2B31192  24.407   8.294  11.446  0.1010  0.1897 -0.1655
 2658DOPC   C3B31193  24.379   8.710  11.738 -0.1100 -0.3942  0.0089
 2658DOPC   C4B31194  24.003   8.952  11.912  0.2005  0.1717  0.0518
 2659DOPE   NH331195  23.709   9.433   9.817  0.0167 -0.0347 -0.0521
 2659DOPE   PO431196  23.452   9.388  10.003 -0.5805  0.1030 -0.0503
 2659DOPE   GL131197  23.334   9.408  10.366  0.1761  0.1821 -0.0237
 2659DOPE   GL231198  23.118   9.196  10.460 -0.0861 -0.0452 -0.1046
 2659DOPE   C1A31199  23.160   9.630  10.729  0.2704 -0.0153  0.0827
 2659DOPE   D2A31200  23.101   9.323  11.090  0.0731 -0.1953  0.3063
 2659DOPE   C3A31201  22.758   9.294  10.808 -0.3255 -0.1443 -0.0074
 2659DOPE   C4A31202  22.294   9.314  10.727 -0.1070  0.2334  0.2345
 2659DOPE   C1B31203  23.188   8.813  10.744 -0.0451 -0.0535  0.0837
 2659DOPE   D2B31204  23.421   8.595  11.025  0.0038 -0.2619  0.0642
 2659DOPE   C3B31205  23.629   8.553  11.404 -0.1346  0.3641 -0.1980
 2659DOPE   C4B31206  23.561   8.733  11.871 -0.1878  0.0675  0.0949
 2660DOPE   NH331207   3.304   4.725  10.043  0.1623 -0.0723  0.0371
 2660DOPE   PO431208   3.083   4.635  10.253  0.1179 -0.1027  0.3097
 2660DOPE   GL131209   3.071   4.526  10.578  0.2007 -0.2042  0.1720
 2660DOPE   GL231210   3.087   4.205  10.509 -0.0490  0.2016 -0.1132
 2660DOPE   C1A31211   2.902   4.677  10.955  0.0013  0.0961 -0.1365
 2660DOPE   D2A31212   2.927   4.729  11.417  0.1111 -0.0464 -0.1699
 2660DOPE   C3A31213   2.978   4.462  11.787  0.0868 -0.0342  0.1592
 2660DOPE   C4A31214   3.355   4.291  11.956  0.0950  0.0755  0.0552
 2660DOPE   C1B31215   3.192   4.147  10.982 -0.2247  0.1976  0.0729
 2660DOPE   D2B31216   3.167   4.210  11.437  0.0007 -0.1370 -0.0718
 2660DOPE   C3B31217   3.093   3.856  11.573 -0.3233 -0.1565 -0.1341
 2660DOPE   C4B31218   2.697   3.805  11.747 -0.0746  0.2647  0.0735
 2661DOPE   NH331219  30.047   7.719  10.328  0.0647  0.0597 -0.2449
 2661DOPE   PO431220  29.820   7.803  10.551  0.5766 -0.2100 -0.0867
 2661DOPE   GL131221  30.099   7.860  10.819  0.2655  0.0494 -0.0343
 2661DOPE   GL231222  29.934   7.706  11.070  0.1513 -0.0586 -0.1178
 2661DOPE   C1A31223  30.490   7.892  11.107 -0.0809  0.1683  0.0745
 2661DOPE   D2A31224  30.589   7.798  11.543 -0.1801  0.1321 -0.0528
 2661DOPE   C3A31225  30.499   7.333  11.618 -0.2432 -0.0810 -0.1368
 2661DOPE   C4A31226  30.239   7.068  11.845 -0.0339  0.1595 -0.1896
 2661DOPE   C1B31227  30.081   7.951  11.379 -0.2481 -0.0681 -0.0590
 2661DOPE   D2B31228  30.329   8.285  11.506  0.0223  0.0061  0.1570
 2661DOPE   C3B31229  30.133   8.488  11.853 -0.1256 -0.2307  0.1089
 2661DOPE   C4B31230  29.997   8.832  12.118  0.1662  0.0224 -0.2743
 2662POSM   NC331231  26.609  10.270  10.344  0.0596 -0.2153  0.1288
 2662POSM   PO431232  26.270  10.098  10.360  0.0921 -0.0913 -0.1103
 2662POSM   AM131233  26.338  10.034  10.664  0.0459  0.3847  0.5399
 2662POSM   AM231234  26.422  10.215  10.865 -0.1979  0.5950 -0.1895
 2662POSM   T1A31235  26.224   9.833  11.130 -0.2068 -0.0661 -0.0307
 2662POSM   C2A31236  26.314   9.870  11.598  0.0120 -0.3821  0.0070
 2662POSM   C3A31237  26.499   9.866  11.995  0.1199  0.1005 -0.0925
 2662POSM   C1B31238  26.236  10.331  11.138  0.1457  0.1749  0.2644
 2662POSM   D2B31239  25.958  10.386  11.490  0.0538 -0.0301 -0.2368
 2662POSM   C3B31240  25.735  10.638  11.838  0.1119  0.1001 -0.1343
 2662POSM   C4B31241  25.443  10.926  12.018 -0.1404  0.0498 -0.1241
 2663DOPE   NH331242  28.315   8.486  10.685 -0.1786  0.0889 -0.0014
 2663DOPE   PO431243  28.464   8.227  10.601  0.4093  0.1469  0.2056
 2663DOPE   GL131244  28.342   8.005  10.994  0.4107 -0.0008  0.2801
 2663DOPE   GL231245  28.138   8.283  11.161 -0.1065 -0.1991  0.1967
 2663DOPE   C1A31246  28.507   7.923  11.420 -0.0528  0.1342 -0.1669
 2663DOPE   D2A31247  28.571   7.625  11.792 -0.0637 -0.2389 -0.1178
 2663DOPE   C3A31248  28.252   7.705  12.141 -0.1982  0.0639 -0.0082
 2663DOPE   C4A31249  28.191   7.755  12.634  0.2613 -0.0200 -0.1678
 2663DOPE   C1B31250  28.013   8.215  11.593 -0.1036  0.1651 -0.1549
 2663DOPE   D2B31251  27.926   8.035  12.013  0.1214  0.0058 -0.4096
 2663DOPE   C3B31252  28.220   8.277  12.365 -0.0188 -0.0380 -0.1450
 2663DOPE   C4B31253  28.255   8.639  12.689  0.2966  0.1778  0.1359
 2664POSM   NC331254  29.673   8.341  10.563  0.3590  0.1894 -0.3041
 2664POSM   PO431255  29.406   8.486  10.823  0.1861  0.0377 -0.0252
 2664POSM   AM131256  29.261   8.400  11.096 -0.1296  0.0668  0.5110
 2664POSM   AM231257  29.073   8.190  11.203  0.1130 -0.0931  0.2354
 2664POSM   T1A31258  29.271   8.388  11.591 -0.0761 -0.1227 -0.2806
 2664POSM   C2A31259  29.056   8.448  12.000 -0.0845 -0.3198  0.0546
 2664POSM   C3A31260  28.994   8.625  12.375 -0.0259 -0.3652  0.3636
 2664POSM   C1B31261  28.970   8.041  11.458  0.1031 -0.1275 -0.0315
 2664POSM   D2B31262  28.898   7.928  11.887  0.0246  0.3255 -0.0174
 2664POSM   C3B31263  29.147   7.653  12.127 -0.0851  0.0445  0.0747
 2664POSM   C4B31264  29.366   7.256  12.228  0.2207  0.0195 -0.0015
 2665POSM   NC331265  25.044   2.546  10.053  0.2159  0.0902  0.0842
 2665POSM   PO431266  24.794   2.638  10.307 -0.0338  0.0739  0.0626
 2665POSM   AM131267  24.887   2.523  10.554  0.2130 -0.0841 -0.0695
 2665POSM   AM231268  24.878   2.319  10.820 -0.0323  0.0650 -0.0161
 2665POSM   T1A31269  25.331   2.575  10.835  0.4614  0.0645  0.2390
 2665POSM   C2A31270  25.514   2.585  11.275 -0.1750 -0.0905 -0.2108
 2665POSM   C3A31271  25.334   2.456  11.678  0.1692 -0.0171  0.1200
 2665POSM   C1B31272  24.696   2.505  11.056 -0.1572 -0.1604  0.2509
 2665POSM   D2B31273  24.410   2.778  11.255  0.1427 -0.0365 -0.0387
 2665POSM   C3B31274  24.277   2.608  11.708  0.1479 -0.0218 -0.2219
 2665POSM   C4B31275  23.995   2.478  12.032  0.0006 -0.1255 -0.0859
 2666DOPC   NC331276  32.777   7.301  10.248  0.1945  0.4706  0.1753
 2666DOPC   PO431277  32.842   6.914  10.311 -0.0180 -0.0372  0.1133
 2666DOPC   GL131278  32.883   6.914  10.713 -0.0286  0.0430  0.1679
 2666DOPC   GL231279  33.162   6.853  10.736 -0.0384  0.1709  0.2884
 2666DOPC   C1A31280  32.831   6.767  11.166 -0.1889 -0.3139 -0.2909
 2666DOPC   D2A31281  32.703   6.441  11.437 -0.0467 -0.2247 -0.1468
 2666DOPC   C3A31282  32.488   5.987  11.450 -0.3421  0.0522  0.2890
 2666DOPC   C4A31283  32.424   5.677  11.752  0.1339  0.1772 -0.0486
 2666DOPC   C1B31284  33.285   6.864  11.151  0.3391 -0.0607 -0.2362
 2666DOPC   D2B31285  33.526   6.797  11.521  0.1381  0.1561 -0.0544
 2666DOPC   C3B31286  33.827   6.527  11.740  0.2950 -0.1071 -0.0082
 2666DOPC   C4B31287  34.206   6.378  12.016  0.1686 -0.0048  0.3068
 2667DOPC   NC331288  32.317   9.814  10.555  0.0346 -0.0503 -0.5066
 2667DOPC   PO431289  31.947   9.618  10.444  0.1457  0.1314  0.1828
 2667DOPC   GL131290  31.876   9.600  10.861 -0.1006  0.0260  0.2334
 2667DOPC   GL231291  32.165   9.392  10.847  0.1773 -0.0948 -0.1204
 2667DOPC   C1A31292  31.768   9.383  11.217 -0.0908 -0.0722  0.0290
 2667DOPC   D2A31293  31.399   9.150  11.383 -0.1279 -0.0773  0.1778
 2667DOPC   C3A31294  31.404   9.145  11.864 -0.2670  0.0302 -0.0525
 2667DOPC   C4A31295  31.583   8.823  12.100  0.1731 -0.2454  0.1078
 2667DOPC   C1B31296  32.301   9.035  11.117 -0.0425 -0.1955 -0.1292
 2667DOPC   D2B31297  32.393   8.962  11.562  0.1108 -0.1423  0.1507
 2667DOPC   C3B31298  32.273   9.239  11.904 -0.0423  0.0545  0.1414
 2667DOPC   C4B31299  32.362   9.468  12.310 -0.0614  0.1232  0.3164
 2668DOPC   NC331300  27.055   5.987  10.386 -0.1459  0.1226  0.0594
 2668DOPC   PO431301  26.993   5.739  10.102  0.0166  0.2765  0.0662
 2668DOPC   GL131302  26.806   5.649  10.520 -0.0294 -0.3479 -0.0808
 2668DOPC   GL231303  26.820   5.785  10.814 -0.3727  0.1321 -0.0517
 2668DOPC   C1A31304  26.516   5.395  10.830 -0.1508  0.0824  0.0876
 2668DOPC   D2A31305  26.080   5.278  10.992 -0.1670 -0.1516 -0.0597
 2668DOPC   C3A31306  26.036   5.161  11.426 -0.1336  0.3232  0.0510
 2668DOPC   C4A31307  26.299   5.208  11.812  0.1065 -0.0857  0.1033
 2668DOPC   C1B31308  26.917   5.810  11.244 -0.0866 -0.0583  0.0110
 2668DOPC   D2B31309  27.011   5.839  11.669 -0.3872  0.3033 -0.2036
 2668DOPC   C3B31310  27.060   5.603  12.039  0.0825  0.1694 -0.0601
 2668DOPC   C4B31311  26.988   5.541  12.497 -0.2958  0.1076  0.1968
 2669DOPE   NH331312  31.820   0.976   9.853 -0.1322 -0.0237  0.0400
 2669DOPE   PO431313  31.909   1.255   9.960  0.2420 -0.0025  0.2991
 2669DOPE   GL131314  31.957   1.515  10.304  0.1585  0.2772  0.0016
 2669DOPE   GL231315  31.767   1.281  10.455  0.0617 -0.2028  0.0635
 2669DOPE   C1A31316  31.951   1.627  10.731  0.0706  0.0949  0.2377
 2669DOPE   D2A31317  31.643   1.615  11.123  0.0411 -0.4719 -0.0841
 2669DOPE   C3A31318  31.262   1.427  11.378  0.0638  0.0111 -0.1370
 2669DOPE   C4A31319  31.011   1.281  11.705  0.0819  0.0201  0.1143
 2669DOPE   C1B31320  31.822   1.213  10.940 -0.3338 -0.2849  0.1809
 2669DOPE   D2B31321  31.857   0.894  11.307 -0.2438  0.2378  0.3418
 2669DOPE   C3B31322  31.484   0.964  11.555  0.0125 -0.2343 -0.2001
 2669DOPE   C4B31323  31.178   0.811  11.914 -0.1807  0.0608 -0.1219
 2670POSM   NC331324  30.275   2.422  10.052  0.4420  0.1777  0.3962
 2670POSM   PO431325  30.495   2.108   9.992  0.0128 -0.2982 -0.0894
 2670POSM   AM131326  30.681   2.254  10.207  0.2682 -0.0171 -0.1400
 2670POSM   AM231327  30.704   2.538  10.313 -0.2560 -0.0772 -0.0438
 2670POSM   T1A31328  30.818   2.255  10.694  0.0268 -0.0872  0.0145
 2670POSM   C2A31329  31.023   2.259  11.106  0.5553 -0.2323  0.2828
 2670POSM   C3A31330  31.298   2.481  11.367  0.2577 -0.1578  0.2498
 2670POSM   C1B31331  30.604   2.691  10.619  0.2244  0.0445  0.1248
 2670POSM   D2B31332  30.558   2.867  11.022  0.0229  0.3310  0.0912
 2670POSM   C3B31333  30.365   2.735  11.414 -0.1431 -0.0391  0.2195
 2670POSM   C4B31334  30.243   2.613  11.826 -0.2212 -0.2307 -0.0753
 2671DOPE   NH331335  25.822  10.990  10.204 -0.0271 -0.0668 -0.1571
 2671DOPE   PO431336  25.605  10.771  10.126 -0.0888  0.2002 -0.1979
 2671DOPE   GL131337  25.740  10.799  10.645 -0.1580 -0.1452 -0.0583
 2671DOPE   GL231338  25.625  11.033  10.692  0.0754  0.2023 -0.0551
 2671DOPE   C1A31339  25.634  10.649  11.085  0.2857 -0.0765  0.2789
 2671DOPE   D2A31340  25.415  10.392  11.371  0.1442  0.1492  0.0750
 2671DOPE   C3A31341  25.137  10.502  11.718  0.1056  0.1673 -0.0290
 2671DOPE   C4A31342  24.822  10.453  12.046  0.1033  0.1946 -0.1113
 2671DOPE   C1B31343  25.558  11.128  11.125 -0.0218 -0.0143  0.0716
 2671DOPE   D2B31344  25.286  11.379  11.377 -0.0911 -0.0244  0.1418
 2671DOPE   C3B31345  25.356  11.391  11.826 -0.0808 -0.0134  0.2599
 2671DOPE   C4B31346  25.616  11.493  12.238 -0.0372  0.1740 -0.3449
 2672DOPC   NC331347  29.524   1.231  10.519  0.5144  0.1949 -0.2253
 2672DOPC   PO431348  29.633   1.194  10.135  0.2216 -0.3229  0.0649
 2672DOPC   GL131349  29.819   0.828  10.294  0.0243 -0.1292  0.3150
 2672DOPC   GL231350  29.687   0.716  10.529  0.2947  0.1477 -0.3315
 2672DOPC   C1A31351  30.202   0.729  10.509 -0.2925 -0.2357  0.1368
 2672DOPC   D2A31352  30.422   0.411  10.814 -0.1303  0.0211 -0.0251
 2672DOPC   C3A31353  30.460   0.536  11.265 -0.0773  0.2681  0.1520
 2672DOPC   C4A31354  30.512   0.801  11.674  0.1771 -0.4341  0.1550
 2672DOPC   C1B31355  29.628   0.819  10.970 -0.0553 -0.3737  0.3879
 2672DOPC   D2B31356  29.818   1.103  11.271  0.2193  0.1800  0.1051
 2672DOPC   C3B31357  30.238   1.130  11.453  0.1146 -0.1007 -0.0200
 2672DOPC   C4B31358  30.482   1.369  11.747  0.1786 -0.2394 -0.3099
 2673POSM   NC331359  29.768  33.288   9.576  0.0008 -0.0047  0.0552
 2673POSM   PO431360  29.452  33.380   9.658  0.0674 -0.0747  0.5129
 2673POSM   AM131361  29.429  33.448   9.972 -0.1885  0.0086 -0.4271
 2673POSM   AM231362  29.272  33.354  10.183  0.0818  0.1959 -0.0008
 2673POSM   T1A31363  29.570  33.599  10.461 -0.0274 -0.1352 -0.0075
 2673POSM   C2A31364  29.652  33.284  10.791  0.0234  0.1460  0.2982
 2673POSM   C3A31365  29.422  32.898  10.829  0.1074 -0.0316 -0.5066
 2673POSM   C1B31366  29.193  33.262  10.477  0.0914 -0.2725 -0.0166
 2673POSM   D2B31367  29.090  33.388  10.957 -0.0518 -0.0775 -0.0127
 2673POSM   C3B31368  29.356  33.613  11.242 -0.0414 -0.0537 -0.0144
 2673POSM   C4B31369  29.758  33.599  11.442  0.1988  0.0237 -0.0020
 2674DOPE   NH331370  34.380   4.771  10.674 -0.1477 -0.0987  0.3393
 2674DOPE   PO431371  34.306   4.475  10.534 -0.0527 -0.1490 -0.0216
 2674DOPE   GL131372  34.015   4.359  10.835 -0.1973 -0.1431 -0.1252
 2674DOPE   GL231373  33.933   4.633  10.974 -0.2164  0.4618  0.0126
 2674DOPE   C1A31374  34.034   4.037  11.178 -0.0788  0.2051  0.0552
 2674DOPE   D2A31375  33.689   4.098  11.398  0.2864 -0.1855 -0.2221
 2674DOPE   C3A31376  33.839   4.410  11.730  0.4474  0.0872 -0.0649
 2674DOPE   C4A31377  34.075   4.783  11.828  0.3756 -0.1392 -0.1337
 2674DOPE   C1B31378  33.650   4.796  11.318  0.0681  0.2202 -0.2080
 2674DOPE   D2B31379  33.772   5.213  11.446 -0.2276  0.0708 -0.1101
 2674DOPE   C3B31380  33.972   5.357  11.792 -0.0939 -0.3778  0.1778
 2674DOPE   C4B31381  33.986   5.515  12.219  0.0991  0.0535  0.0145
 2675DOPE   NH331382  20.942   2.356  10.965  0.0637  0.1979  0.2749
 2675DOPE   PO431383  20.970   2.134  10.759  0.1468 -0.1392 -0.0205
 2675DOPE   GL131384  21.134   1.959  11.137  0.0446 -0.0154 -0.1680
 2675DOPE   GL231385  21.411   2.102  11.092 -0.2193  0.0521 -0.1279
 2675DOPE   C1A31386  20.883   1.862  11.521 -0.1040 -0.2563 -0.0008
 2675DOPE   D2A31387  20.888   2.050  11.971  0.0381 -0.1503  0.2580
 2675DOPE   C3A31388  21.010   1.716  12.242  0.3468  0.2761  0.0564
 2675DOPE   C4A31389  20.824   1.299  12.375 -0.2218 -0.0885  0.0908
 2675DOPE   C1B31390  21.721   2.277  11.434  0.3243  0.0503  0.2285
 2675DOPE   D2B31391  21.917   2.165  11.838 -0.4475  0.4003 -0.0589
 2675DOPE   C3B31392  21.626   1.987  12.096  0.0631 -0.1175  0.0750
 2675DOPE   C4B31393  21.551   1.929  12.605 -0.0709  0.0520 -0.2207
 2676DOPC   NC331394  26.816   8.980  10.151  0.4068 -0.1192  0.0564
 2676DOPC   PO431395  26.643   8.710  10.417 -0.2552 -0.0164 -0.0373
 2676DOPC   GL131396  26.513   8.767  10.851  0.0723  0.2758  0.1876
 2676DOPC   GL231397  26.730   8.910  10.974 -0.1310 -0.0883  0.2533
 2676DOPC   C1A31398  26.074   8.630  10.887 -0.0907 -0.1878 -0.0313
 2676DOPC   D2A31399  25.607   8.853  10.857  0.1880 -0.1830 -0.0666
 2676DOPC   C3A31400  25.344   9.052  11.145 -0.1494 -0.1694  0.1642
 2676DOPC   C4A31401  25.286   9.420  10.994  0.1327  0.0477 -0.1630
 2676DOPC   C1B31402  26.969   8.556  11.205  0.1702 -0.0069  0.1019
 2676DOPC   D2B31403  26.908   8.119  11.279  0.1058  0.0035 -0.2812
 2676DOPC   C3B31404  26.941   7.900  11.677 -0.1324 -0.1813 -0.1670
 2676DOPC   C4B31405  27.028   7.898  12.093 -0.0343 -0.0117 -0.0099
 2677DOPE   NH331406  22.388  10.464  10.024  0.0218 -0.0077  0.1740
 2677DOPE   PO431407  22.537  10.205  10.138  0.0290  0.2020  0.0112
 2677DOPE   GL131408  22.341  10.259  10.491  0.0661  0.4239  0.3633
 2677DOPE   GL231409  22.223  10.512  10.496 -0.0075 -0.1792 -0.0927
 2677DOPE   C1A31410  22.446  10.281  10.914 -0.5015 -0.2305  0.1001
 2677DOPE   D2A31411  22.820  10.006  10.879 -0.3819 -0.1665  0.0859
 2677DOPE   C3A31412  23.189  10.126  11.163  0.1654 -0.0823  0.0293
 2677DOPE   C4A31413  23.299  10.372  11.494  0.2249  0.0002 -0.2183
 2677DOPE   C1B31414  21.978  10.764  10.841  0.0688  0.4531  0.1538
 2677DOPE   D2B31415  21.831  11.129  11.153 -0.2705  0.0358 -0.1467
 2677DOPE   C3B31416  22.085  11.214  11.539 -0.0635 -0.1298 -0.2098
 2677DOPE   C4B31417  22.220  11.133  11.938  0.0403  0.4966  0.1008
 2678POSM   NC331418  33.173   4.902   9.890  0.1795 -0.2061 -0.0982
 2678POSM   PO431419  33.330   5.276   9.890 -0.0885  0.2151  0.5146
 2678POSM   AM131420  33.368   5.203  10.207  0.0547 -0.0267  0.2740
 2678POSM   AM231421  33.372   4.961  10.343  0.0323 -0.0483  0.0753
 2678POSM   T1A31422  33.344   5.414  10.613 -0.0089 -0.0120  0.1874
 2678POSM   C2A31423  33.511   5.357  11.037  0.0622  0.0428  0.5297
 2678POSM   C3A31424  33.276   5.298  11.432 -0.0313  0.0070 -0.0581
 2678POSM   C1B31425  33.196   4.942  10.632 -0.2895  0.0141 -0.1504
 2678POSM   D2B31426  33.208   4.977  11.085 -0.0738 -0.1814 -0.0301
 2678POSM   C3B31427  33.260   4.820  11.569 -0.3550 -0.2325  0.0262
 2678POSM   C4B31428  33.472   4.750  11.911 -0.1259 -0.0186  0.1631
 2679DOPC   NC331429   0.854   7.185  10.293 -0.1157  0.1617 -0.0309
 2679DOPC   PO431430   0.762   7.567  10.194  0.2032  0.0305 -0.3113
 2679DOPC   GL131431   0.944   7.473  10.631 -0.5462  0.1232  0.2388
 2679DOPC   GL231432   1.120   7.680  10.757 -0.0051  0.1707 -0.1320
 2679DOPC   C1A31433   0.778   7.375  11.046 -0.2821  0.2398  0.0282
 2679DOPC   D2A31434   0.378   7.285  11.229  0.4413 -0.2216 -0.0203
 2679DOPC   C3A31435   0.360   7.425  11.665 -0.0116  0.0330  0.2261
 2679DOPC   C4A31436   0.140   7.722  11.908  0.2151 -0.5691 -0.1433
 2679DOPC   C1B31437   0.995   7.964  11.151  0.2282 -0.1362  0.0148
 2679DOPC   D2B31438   0.938   8.286  11.419 -0.1615  0.2218 -0.0608
 2679DOPC   C3B31439   1.193   8.298  11.799 -0.1033  0.4898  0.0874
 2679DOPC   C4B31440   1.331   8.502  12.186  0.0253 -0.0579 -0.1360
 2680POSM   NC331441  33.750   8.907  10.522  0.0770 -0.1387  0.1083
 2680POSM   PO431442  33.799   9.251  10.346 -0.0692  0.0454 -0.2067
 2680POSM   AM131443  33.666   9.355  10.642  0.1366 -0.1244 -0.2430
 2680POSM   AM231444  33.607   9.589  10.810 -0.0945 -0.0810 -0.0731
 2680POSM   T1A31445  33.527   9.123  11.062 -0.2750  0.0973  0.1053
 2680POSM   C2A31446  33.494   8.829  11.431 -0.1177  0.4116 -0.0194
 2680POSM   C3A31447  33.496   8.883  11.920  0.1565 -0.2257  0.0386
 2680POSM   C1B31448  33.830   9.667  11.043 -0.1158 -0.1950  0.0128
 2680POSM   D2B31449  34.199   9.533  11.349  0.1815  0.0618  0.3354
 2680POSM   C3B31450  34.152   9.314  11.715 -0.1215 -0.0082 -0.0475
 2680POSM   C4B31451  33.919   9.137  12.025 -0.0391 -0.1651  0.0048
 2681DOPE   NH331452  30.916   2.797   9.696  0.1721  0.3991 -0.0438
 2681DOPE   PO431453  30.668   2.849   9.834  0.0959  0.0712 -0.0261
 2681DOPE   GL131454  30.688   3.042  10.096 -0.0531  0.0426 -0.1841
 2681DOPE   GL231455  30.953   3.077  10.151 -0.0983 -0.1933 -0.1405
 2681DOPE   C1A31456  30.685   3.222  10.536  0.3248  0.2738 -0.3148
 2681DOPE   D2A31457  30.842   3.299  10.965 -0.2634  0.1630  0.1727
 2681DOPE   C3A31458  30.818   3.140  11.379 -0.4794  0.3923 -0.1506
 2681DOPE   C4A31459  30.940   2.884  11.786 -0.1385 -0.1028 -0.3931
 2681DOPE   C1B31460  31.141   3.271  10.557 -0.0880 -0.0203  0.0029
 2681DOPE   D2B31461  31.354   3.267  10.985 -0.0545  0.0809  0.3687
 2681DOPE   C3B31462  31.312   3.014  11.356 -0.0082 -0.1026 -0.1677
 2681DOPE   C4B31463  31.487   2.790  11.739 -0.0447 -0.1742  0.0693
 2682DOPC   NC331464  32.518   2.404   9.549 -0.1422 -0.2501  0.3851
 2682DOPC   PO431465  32.304   2.140   9.764 -0.1715  0.3826  0.0418
 2682DOPC   GL131466  32.166   1.952  10.184  0.1262 -0.0509 -0.0826
 2682DOPC   GL231467  32.374   1.853  10.373 -0.0098  0.2082  0.1754
 2682DOPC   C1A31468  31.921   2.082  10.535 -0.1197 -0.0830  0.0610
 2682DOPC   D2A31469  31.935   2.464  10.726  0.0177 -0.1348 -0.3939
 2682DOPC   C3A31470  32.306   2.484  11.012  0.0351  0.3036  0.4692
 2682DOPC   C4A31471  32.459   2.680  11.406  0.1297  0.1700  0.2213
 2682DOPC   C1B31472  32.355   1.903  10.853  0.1335  0.1948 -0.3227
 2682DOPC   D2B31473  31.997   2.048  11.086 -0.1326  0.0614 -0.2032
 2682DOPC   C3B31474  32.094   2.263  11.544  0.1426 -0.5369 -0.0292
 2682DOPC   C4B31475  32.017   2.002  11.921  0.0239  0.0461  0.0325
 2683DOPE   NH331476  33.506  34.311  10.000  0.1138 -0.2202  0.0500
 2683DOPE   PO431477  33.521  34.620   9.801 -0.1780  0.4319 -0.1431
 2683DOPE   GL131478  33.875  34.458   9.831  0.5041 -0.0325  0.0407
 2683DOPE   GL231479  34.039  34.709   9.944 -0.2958  0.2769  0.0420
 2683DOPE   C1A31480  34.021  34.226  10.216 -0.1072 -0.1350 -0.0574
 2683DOPE   D2A31481  34.134  33.914  10.539 -0.1322 -0.0604 -0.4119
 2683DOPE   C3A31482  34.155  33.738  10.994  0.2165  0.0826  0.1143
 2683DOPE   C4A31483  34.096  33.752  11.437  0.1943  0.0346 -0.1353
 2683DOPE   C1B31484  34.353  34.650  10.260  0.3696  0.0420 -0.0810
 2683DOPE   D2B31485  34.530  34.593  10.723  0.0125  0.0921  0.6455
 2683DOPE   C3B31486  34.776  34.950  10.892  0.0490 -0.0579  0.0390
 2683DOPE   C4B31487  35.070  35.350  10.980 -0.2534  0.0742 -0.1228
 2684POSM   NC331488  26.008   4.988  10.071  0.0858  0.0954  0.0641
 2684POSM   PO431489  25.974   5.394  10.158  0.0792 -0.1503  0.0146
 2684POSM   AM131490  25.877   5.453  10.486 -0.3491  0.0899 -0.3646
 2684POSM   AM231491  25.665   5.411  10.723  0.1269  0.2146 -0.2127
 2684POSM   T1A31492  26.057   5.705  10.830  0.1702  0.1125 -0.0045
 2684POSM   C2A31493  26.000   6.036  11.115 -0.2109  0.2844  0.5272
 2684POSM   C3A31494  25.954   6.396  11.422  0.1649 -0.2015  0.0904
 2684POSM   C1B31495  25.381   5.473  10.923  0.0544  0.2806 -0.2010
 2684POSM   D2B31496  25.138   5.646  11.328 -0.0870  0.0374 -0.3603
 2684POSM   C3B31497  25.288   5.382  11.718  0.2352  0.1325 -0.2253
 2684POSM   C4B31498  25.386   5.005  12.035 -0.0260 -0.1157  0.0261
 2685DOPC   NC331499  30.856   7.799  10.181  0.0184  0.2906  0.0361
 2685DOPC   PO431500  30.577   7.588  10.359 -0.0338 -0.2495  0.2908
 2685DOPC   GL131501  30.433   7.492  10.669  0.2097 -0.0564  0.1434
 2685DOPC   GL231502  30.196   7.426  10.729  0.0200  0.1270  0.3499
 2685DOPC   C1A31503  30.343   7.425  11.167  0.3202 -0.0320  0.2008
 2685DOPC   D2A31504  29.996   7.388  11.550  0.0172  0.2247  0.0989
 2685DOPC   C3A31505  30.146   7.775  11.831  0.2493  0.1058  0.2006
 2685DOPC   C4A31506  30.150   8.044  12.217 -0.0955  0.1034  0.0246
 2685DOPC   C1B31507  30.310   6.892  10.718  0.1702 -0.0548 -0.0964
 2685DOPC   D2B31508  30.636   6.637  10.847 -0.2737 -0.0919  0.1218
 2685DOPC   C3B31509  30.777   6.176  10.933 -0.0132  0.4366  0.0123
 2685DOPC   C4B31510  31.014   5.815  11.184  0.0402 -0.1617 -0.0986
 2686POSM   NC331511  33.828   0.257   9.582  0.0445  0.4459  0.0710
 2686POSM   PO431512  33.510   0.457   9.700  0.1009  0.2737  0.1707
 2686POSM   AM131513  33.510   0.385  10.043 -0.1501 -0.3620  0.3356
 2686POSM   AM231514  33.430   0.520  10.312 -0.1324  0.1076 -0.0875
 2686POSM   T1A31515  33.661   0.053  10.432 -0.1424 -0.0520 -0.0440
 2686POSM   C2A31516  33.897  -0.205  10.711  0.0014 -0.1629  0.1865
 2686POSM   C3A31517  33.943  -0.164  11.130 -0.0097  0.0444  0.2487
 2686POSM   C1B31518  33.606   0.563  10.579  0.0252 -0.2814  0.2503
 2686POSM   D2B31519  33.695   0.833  10.989  0.1454  0.0720  0.0718
 2686POSM   C3B31520  33.502   1.226  10.863  0.0909  0.0493  0.0721
 2686POSM   C4B31521  33.476   1.687  10.830 -0.0695  0.0112  0.0783
 2687POSM   NC331522  24.890   8.721  10.053 -0.0102  0.2159  0.0668
 2687POSM   PO431523  24.875   9.116  10.200 -0.0494 -0.1359  0.1920
 2687POSM   AM131524  24.772   8.934  10.482 -0.2354 -0.1997  0.5350
 2687POSM   AM231525  24.899   8.734  10.651 -0.1695  0.0885 -0.1478
 2687POSM   T1A31526  24.707   8.989  10.986 -0.0819  0.2460  0.2715
 2687POSM   C2A31527  24.925   9.208  11.355  0.1149 -0.1975  0.1492
 2687POSM   C3A31528  25.142   9.501  11.633  0.6148 -0.2992  0.0917
 2687POSM   C1B31529  24.831   8.514  10.908  0.1193 -0.2466 -0.1053
 2687POSM   D2B31530  24.841   8.193  11.216 -0.0731  0.0287  0.1427
 2687POSM   C3B31531  24.829   7.856  11.573  0.0091  0.2162 -0.2930
 2687POSM   C4B31532  24.473   7.808  11.828  0.0900  0.0520 -0.0823
 2688DOPC   NC331533  29.492   3.899  10.692  0.1939  0.1642 -0.0710
 2688DOPC   PO431534  29.439   3.786  10.363  0.4058  0.0836  0.2185
 2688DOPC   GL131535  29.303   3.456  10.645 -0.2654 -0.1157  0.0528
 2688DOPC   GL231536  29.045   3.533  10.735  0.2015 -0.0641 -0.1274
 2688DOPC   C1A31537  29.490   3.108  10.832 -0.0213  0.2635  0.0669
 2688DOPC   D2A31538  29.453   3.014  11.295 -0.0242 -0.4275  0.1028
 2688DOPC   C3A31539  29.191   2.670  11.303 -0.1560 -0.3247  0.1698
 2688DOPC   C4A31540  28.804   2.569  11.584 -0.3127  0.1375  0.0656
 2688DOPC   C1B31541  28.947   3.958  10.943  0.0839 -0.0776 -0.1823
 2688DOPC   D2B31542  28.954   4.214  11.293  0.1464  0.3803  0.2218
 2688DOPC   C3B31543  29.076   4.102  11.716  0.0689  0.1695  0.0222
 2688DOPC   C4B31544  29.436   4.301  12.023  0.0273  0.0774  0.0769
 2689DOPE   NH331545  28.495   2.191  10.262  0.0575  0.2505 -0.0801
 2689DOPE   PO431546  28.163   2.199  10.173 -0.1134 -0.1705  0.3766
 2689DOPE   GL131547  28.094   2.088  10.487  0.1609  0.1569 -0.0573
 2689DOPE   GL231548  28.205   1.888  10.643  0.0282  0.0167 -0.1319
 2689DOPE   C1A31549  27.679   2.115  10.668  0.1812 -0.2632  0.0139
 2689DOPE   D2A31550  27.469   2.211  11.062 -0.1257  0.1662 -0.0444
 2689DOPE   C3A31551  27.437   1.964  11.497  0.0361  0.0010 -0.0160
 2689DOPE   C4A31552  27.709   1.722  11.765 -0.1767 -0.1776  0.2890
 2689DOPE   C1B31553  28.339   1.736  11.068 -0.0135 -0.0765 -0.1207
 2689DOPE   D2B31554  28.575   1.776  11.456 -0.1007  0.3941  0.1920
 2689DOPE   C3B31555  28.573   1.927  11.881  0.0267 -0.3237  0.3341
 2689DOPE   C4B31556  28.469   2.196  12.297 -0.1782 -0.2852  0.0237
 2690POSM   NC331557  29.583  12.155  10.644 -0.3426  0.0897  0.1946
 2690POSM   PO431558  29.435  11.846  10.828 -0.0447  0.0588 -0.1027
 2690POSM   AM131559  29.543  11.863  11.135  0.3006 -0.1709 -0.3152
 2690POSM   AM231560  29.538  11.713  11.295  0.0674  0.0332 -0.1039
 2690POSM   T1A31561  29.735  12.105  11.504  0.0909  0.0681 -0.0571
 2690POSM   C2A31562  29.780  12.111  11.980  0.0234 -0.1114 -0.2970
 2690POSM   C3A31563  29.832  12.282  12.422 -0.1517 -0.0378  0.2094
 2690POSM   C1B31564  29.405  11.737  11.650 -0.1266  0.2955 -0.2549
 2690POSM   D2B31565  29.187  11.849  12.073  0.0479  0.2494  0.0066
 2690POSM   C3B31566  28.823  11.874  12.356 -0.0831  0.0383  0.0753
 2690POSM   C4B31567  28.676  11.733  12.719  0.0689 -0.1363 -0.1475
 2691POSM   NC331568  28.642   6.699  10.560  0.3007 -0.0351 -0.0193
 2691POSM   PO431569  28.675   6.367  10.339  0.1445 -0.1304  0.0481
 2691POSM   AM131570  28.849   6.331  10.668  0.0974  0.0818 -0.2385
 2691POSM   AM231571  28.730   6.247  10.901 -0.0611  0.1243  0.0790
 2691POSM   T1A31572  28.997   6.638  11.038 -0.3545  0.1240  0.0691
 2691POSM   C2A31573  28.871   6.728  11.469 -0.2793  0.2844  0.3086
 2691POSM   C3A31574  28.628   6.690  11.861  0.1245  0.2713 -0.0623
 2691POSM   C1B31575  28.646   6.273  11.253  0.2896  0.2778 -0.4212
 2691POSM   D2B31576  28.783   6.235  11.693 -0.1107 -0.2330 -0.3238
 2691POSM   C3B31577  28.787   5.786  11.878 -0.4420  0.0516 -0.1321
 2691POSM   C4B31578  29.011   5.439  12.166 -0.1744 -0.1448 -0.0279
 2692DOPS   CNO31579  32.349   6.791  10.385  0.1301 -0.1157 -0.1839
 2692DOPS   PO431580  32.316   6.439  10.297  0.0206  0.3673  0.2746
 2692DOPS   GL131581  32.335   6.202  10.550  0.1377 -0.1550  0.0993
 2692DOPS   GL231582  32.294   5.846  10.551  0.1120 -0.1407  0.1472
 2692DOPS   C1A31583  32.229   6.182  11.039  0.0548  0.2141  0.3086
 2692DOPS   D2A31584  32.220   6.405  11.451  0.2591  0.0037 -0.3389
 2692DOPS   C3A31585  31.952   6.513  11.841  0.0021 -0.2712 -0.0295
 2692DOPS   C4A31586  31.959   6.495  12.269  0.1146 -0.0085  0.2474
 2692DOPS   C1B31587  31.884   5.982  10.694  0.0141 -0.1050 -0.0222
 2692DOPS   D2B31588  31.436   5.889  10.821  0.1821 -0.0581  0.2771
 2692DOPS   C3B31589  31.545   6.023  11.224  0.0923  0.0113  0.1808
 2692DOPS   C4B31590  31.592   6.330  11.545 -0.0369 -0.0171 -0.1166
 2693DOPC   NC331591  27.309   9.934  10.918 -0.0023  0.2185 -0.2372
 2693DOPC   PO431592  26.931  10.073  10.972  0.1269  0.1246 -0.1688
 2693DOPC   GL131593  26.668  10.149  11.322  0.3771 -0.0411  0.2167
 2693DOPC   GL231594  26.759   9.935  11.487  0.1254  0.0817 -0.2686
 2693DOPC   C1A31595  26.455  10.375  11.682  0.2034 -0.4298 -0.1844
 2693DOPC   D2A31596  26.115  10.266  11.961 -0.0731  0.2858 -0.1785
 2693DOPC   C3A31597  26.035   9.771  12.001  0.4630  0.3203 -0.1772
 2693DOPC   C4A31598  26.159   9.338  12.115 -0.1736  0.0104 -0.4295
 2693DOPC   C1B31599  26.920   9.597  11.766 -0.0716  0.1326 -0.3148
 2693DOPC   D2B31600  27.074   9.339  12.153  0.0132  0.2016 -0.1628
 2693DOPC   C3B31601  26.852   9.103  12.469  0.0532  0.1749  0.3037
 2693DOPC   C4B31602  26.446   9.139  12.706 -0.0144  0.0461  0.1014
 2694POSM   NC331603  25.255   4.993   9.765  0.1345  0.0066  0.0563
 2694POSM   PO431604  25.166   4.841  10.144 -0.2289 -0.5235 -0.2257
 2694POSM   AM131605  25.175   5.016  10.464 -0.2476  0.2629 -0.1295
 2694POSM   AM231606  25.002   5.161  10.627 -0.2801  0.1134 -0.1673
 2694POSM   T1A31607  25.471   4.897  10.861 -0.0158  0.2386 -0.0560
 2694POSM   C2A31608  25.586   5.140  11.249  0.1542 -0.1500 -0.1446
 2694POSM   C3A31609  25.733   5.560  11.331 -0.0413 -0.0634  0.2363
 2694POSM   C1B31610  25.060   5.059  10.949  0.0645 -0.3230 -0.3285
 2694POSM   D2B31611  25.101   4.973  11.388 -0.1576 -0.0435  0.0180
 2694POSM   C3B31612  24.859   5.141  11.740 -0.1265  0.0753  0.1585
 2694POSM   C4B31613  24.966   5.313  12.114 -0.0960  0.1596  0.2621
 2695DOPE   NH331614  30.430   3.434  10.120  0.0994  0.0957  0.3728
 2695DOPE   PO431615  30.313   3.691  10.012  0.2597 -0.2460  0.0239
 2695DOPE   GL131616  30.186   3.651  10.489 -0.1853  0.1603  0.1033
 2695DOPE   GL231617  30.053   3.730  10.718  0.0365 -0.2549 -0.0770
 2695DOPE   C1A31618  30.314   3.344  10.848  0.1424 -0.1407 -0.1564
 2695DOPE   D2A31619  30.344   3.333  11.320  0.1017 -0.0597  0.1509
 2695DOPE   C3A31620  30.578   3.629  11.557  0.0306 -0.1873 -0.0215
 2695DOPE   C4A31621  30.908   3.670  11.943 -0.0118 -0.1460  0.0552
 2695DOPE   C1B31622  30.054   3.781  11.195 -0.1102 -0.2290  0.0651
 2695DOPE   D2B31623  30.119   3.752  11.650 -0.1198  0.1014 -0.0798
 2695DOPE   C3B31624  29.945   3.442  11.913 -0.0317  0.1053  0.2675
 2695DOPE   C4B31625  29.908   3.071  12.090  0.0115 -0.3791  0.1989
 2696POSM   NC331626  25.271   9.423  10.232  0.0532 -0.0868  0.1107
 2696POSM   PO431627  25.035   9.732  10.063  0.1800 -0.0743 -0.4118
 2696POSM   AM131628  24.911   9.731  10.368 -0.2287 -0.2424 -0.1164
 2696POSM   AM231629  24.709   9.546  10.438 -0.2409  0.1333 -0.0447
 2696POSM   T1A31630  24.895   9.996  10.791 -0.3180  0.3096 -0.2514
 2696POSM   C2A31631  24.723  10.169  11.178 -0.3418 -0.0642  0.0208
 2696POSM   C3A31632  24.683  10.325  11.597 -0.0118 -0.0746 -0.1075
 2696POSM   C1B31633  24.785   9.457  10.751  0.3557  0.1801 -0.1069
 2696POSM   D2B31634  24.890   9.622  11.175 -0.3141  0.1558  0.4024
 2696POSM   C3B31635  24.748   9.784  11.502  0.1159  0.1834  0.0306
 2696POSM   C4B31636  24.344   9.772  11.742 -0.1063  0.1833  0.2430
 2697POSM   NC331637  27.449   9.295  10.321 -0.1130 -0.2511  0.2908
 2697POSM   PO431638  27.527   8.978  10.505  0.2875 -0.1041  0.0469
 2697POSM   AM131639  27.457   9.006  10.812  0.1105  0.1944  0.0206
 2697POSM   AM231640  27.458   8.867  11.032  0.3013 -0.3584 -0.0619
 2697POSM   T1A31641  27.079   9.207  11.128 -0.3922 -0.0181 -0.0253
 2697POSM   C2A31642  26.793   9.092  11.416  0.4076  0.0585 -0.0757
 2697POSM   C3A31643  26.693   9.091  11.885  0.0060  0.1725  0.1437
 2697POSM   C1B31644  27.351   8.822  11.369  0.0132 -0.3645 -0.1427
 2697POSM   D2B31645  27.145   8.777  11.769  0.4530 -0.2398 -0.0572
 2697POSM   C3B31646  26.892   8.377  11.754  0.0912 -0.1509 -0.3464
 2697POSM   C4B31647  26.566   8.176  11.593  0.0603  0.2021  0.1054
 2698POSM   NC331648  24.350   7.892   9.857 -0.1329  0.2899  0.0204
 2698POSM   PO431649  24.056   8.130   9.740  0.1530 -0.0951 -0.0937
 2698POSM   AM131650  23.907   7.918   9.961  0.2399  0.2134 -0.2565
 2698POSM   AM231651  23.887   7.625  10.081  0.1257 -0.1590  0.0242
 2698POSM   T1A31652  23.741   7.919  10.472  0.0907  0.2516  0.0060
 2698POSM   C2A31653  23.427   7.968  10.838 -0.2270  0.1321  0.1290
 2698POSM   C3A31654  23.316   8.189  11.229 -0.0741 -0.1149  0.3160
 2698POSM   C1B31655  24.110   7.379  10.053 -0.2344 -0.0630  0.1922
 2698POSM   D2B31656  24.318   7.118  10.378 -0.0896 -0.1432 -0.1666
 2698POSM   C3B31657  24.337   7.328  10.809  0.0757 -0.0334 -0.3049
 2698POSM   C4B31658  24.202   7.472  11.279  0.1977  0.0802 -0.3455
 2699DOPS   CNO31659  34.457   2.278   9.995 -0.3283  0.0068  0.3699
 2699DOPS   PO431660  34.784   2.331  10.213  0.2503 -0.1222  0.1111
 2699DOPS   GL131661  34.920   2.302  10.641  0.0551  0.1955 -0.3376
 2699DOPS   GL231662  34.956   2.000  10.552  0.0650 -0.0731  0.0825
 2699DOPS   C1A31663  34.756   2.097  11.034  0.1094 -0.0085  0.1527
 2699DOPS   D2A31664  34.573   1.748  11.310 -0.2136  0.1596 -0.2095
 2699DOPS   C3A31665  34.106   1.719  11.196 -0.5618 -0.2265  0.2198
 2699DOPS   C4A31666  33.706   1.666  11.236 -0.1136 -0.0046 -0.0513
 2699DOPS   C1B31667  34.925   1.622  10.883 -0.4338  0.0772 -0.1107
 2699DOPS   D2B31668  35.036   1.457  11.332  0.3093 -0.2180 -0.3523
 2699DOPS   C3B31669  34.751   1.289  11.634  0.1745 -0.2394 -0.1413
 2699DOPS   C4B31670  34.313   1.167  11.582 -0.0585  0.0466  0.0467
 2700POSM   NC331671  30.537   4.377   9.768  0.0193  0.2340 -0.0902
 2700POSM   PO431672  30.561   4.458  10.141 -0.4321  0.1192 -0.0597
 2700POSM   AM131673  30.622   4.515  10.481  0.0611 -0.0581  0.2044
 2700POSM   AM231674  30.470   4.502  10.739 -0.5478  0.2876  0.3459
 2700POSM   T1A31675  30.936   4.314  10.896  0.0211  0.0349  0.0100
 2700POSM   C2A31676  30.978   3.897  11.045  0.1765 -0.1445  0.3739
 2700POSM   C3A31677  31.029   3.602  11.330  0.1151  0.2461  0.0535
 2700POSM   C1B31678  30.416   4.517  11.084 -0.1805 -0.1076 -0.1046
 2700POSM   D2B31679  30.551   4.650  11.480  0.1076 -0.1452 -0.1210
 2700POSM   C3B31680  30.571   5.098  11.662  0.3021  0.0019  0.2582
 2700POSM   C4B31681  30.930   5.269  11.865 -0.0420  0.1393 -0.0882
 2701DOPE   NH331682   0.005   4.457  10.228 -0.3227 -0.0225  0.3846
 2701DOPE   PO431683   0.215   4.256  10.096  0.2228  0.2668  0.0026
 2701DOPE   GL131684   0.461   4.334  10.511  0.1412  0.1118  0.0733
 2701DOPE   GL231685   0.145   4.257  10.677  0.2449  0.2652  0.2359
 2701DOPE   C1A31686   0.603   4.277  10.984 -0.2209  0.1817  0.2981
 2701DOPE   D2A31687   0.494   4.361  11.394 -0.0299 -0.0995  0.1324
 2701DOPE   C3A31688   0.754   4.126  11.697  0.1331  0.0559  0.0092
 2701DOPE   C4A31689   0.818   4.043  12.132 -0.0655 -0.0943  0.2531
 2701DOPE   C1B31690   0.149   3.851  10.903  0.3461 -0.0776 -0.4037
 2701DOPE   D2B31691  -0.105   3.768  11.290 -0.1541 -0.2860  0.0800
 2701DOPE   C3B31692   0.179   3.944  11.636  0.2089 -0.2049  0.2548
 2701DOPE   C4B31693   0.336   3.842  12.018 -0.0853  0.1015  0.1053
 2702DOPE   NH331694  33.833   7.117  10.214 -0.0667  0.3971 -0.0485
 2702DOPE   PO431695  33.672   6.856  10.067  0.1669  0.2728  0.0321
 2702DOPE   GL131696  33.582   6.854  10.476  0.0618  0.0575 -0.0874
 2702DOPE   GL231697  33.551   7.154  10.593 -0.1790  0.3678 -0.1039
 2702DOPE   C1A31698  33.702   6.596  10.879  0.2231  0.3237  0.4896
 2702DOPE   D2A31699  33.968   6.650  11.256 -0.0933 -0.0939  0.0273
 2702DOPE   C3A31700  33.928   6.189  11.410  0.0704 -0.3120  0.1896
 2702DOPE   C4A31701  34.043   5.943  11.820 -0.0469  0.0730  0.2550
 2702DOPE   C1B31702  33.487   7.359  11.003  0.3721  0.2282  0.2938
 2702DOPE   D2B31703  33.558   7.569  11.392  0.0469 -0.0538 -0.2390
 2702DOPE   C3B31704  33.375   7.313  11.711 -0.0052  0.1556  0.1998
 2702DOPE   C4B31705  33.068   7.180  12.022  0.1175 -0.0136  0.3356
 2703DOPE   NH331706  28.332   7.736  10.510  0.1329 -0.0908 -0.1911
 2703DOPE   PO431707  28.505   7.454  10.618 -0.1748  0.0395  0.0011
 2703DOPE   GL131708  28.682   7.137  10.871 -0.0795  0.1461  0.0178
 2703DOPE   GL231709  28.709   7.271  11.100  0.1450 -0.1316 -0.3257
 2703DOPE   C1A31710  28.519   6.788  11.114  0.4343 -0.0736  0.0424
 2703DOPE   D2A31711  28.340   6.580  11.469 -0.3423  0.2141 -0.1228
 2703DOPE   C3A31712  28.129   6.626  11.911  0.0470 -0.4495  0.1627
 2703DOPE   C4A31713  28.143   6.548  12.344 -0.1049  0.3410  0.1977
 2703DOPE   C1B31714  28.620   7.210  11.492  0.0967 -0.1659  0.0851
 2703DOPE   D2B31715  28.377   7.138  11.886 -0.0236  0.3283 -0.3167
 2703DOPE   C3B31716  28.440   7.317  12.305  0.0903 -0.0214  0.3668
 2703DOPE   C4B31717  28.686   7.680  12.454  0.0151  0.0090  0.1616
 2704DOPE   NH331718  23.861   2.659   9.931  0.2666  0.0676 -0.0856
 2704DOPE   PO431719  23.869   2.441  10.128  0.0011 -0.1443  0.2966
 2704DOPE   GL131720  23.863   2.513  10.522 -0.0719 -0.0247  0.1195
 2704DOPE   GL231721  23.537   2.530  10.643 -0.2948 -0.2148 -0.2698
 2704DOPE   C1A31722  24.204   2.699  10.795 -0.1957  0.0971  0.2175
 2704DOPE   D2A31723  24.617   2.861  10.756  0.3267  0.0469 -0.0440
 2704DOPE   C3A31724  24.958   2.997  10.997  0.2787  0.1164 -0.0285
 2704DOPE   C4A31725  25.355   3.005  11.139  0.0757  0.2948  0.1990
 2704DOPE   C1B31726  23.173   2.404  10.874 -0.1558 -0.1900 -0.3303
 2704DOPE   D2B31727  23.303   2.221  11.232 -0.0628 -0.0919  0.0961
 2704DOPE   C3B31728  23.032   2.493  11.515  0.0531 -0.0162  0.0007
 2704DOPE   C4B31729  22.870   2.793  11.856  0.1011  0.0825  0.0519
 2705POSM   NC331730  24.564   4.184  10.819  0.1568  0.0147 -0.0074
 2705POSM   PO431731  24.659   4.099  10.495 -0.0475  0.0100  0.2945
 2705POSM   AM131732  24.934   3.968  10.661  0.2750  0.2161 -0.1321
 2705POSM   AM231733  25.189   3.892  10.591 -0.0849  0.2101  0.2644
 2705POSM   T1A31734  25.154   4.063  11.080  0.0080 -0.0367 -0.1170
 2705POSM   C2A31735  25.432   3.884  11.409 -0.0282  0.0740 -0.2346
 2705POSM   C3A31736  25.298   3.827  11.832  0.2534 -0.0377 -0.0761
 2705POSM   C1B31737  25.468   3.825  10.759  0.4400  0.0874 -0.0478
 2705POSM   D2B31738  25.818   3.884  11.092 -0.0684 -0.0127  0.1499
 2705POSM   C3B31739  25.868   3.771  11.585 -0.1176 -0.0936 -0.1527
 2705POSM   C4B31740  25.729   3.516  11.921  0.1173  0.0641 -0.1289
 2706DOPC   NC331741   1.914   4.794  10.360  0.2836  0.2006 -0.2172
 2706DOPC   PO431742   2.300   4.917  10.340 -0.4662 -0.0815  0.1281
 2706DOPC   GL131743   2.261   4.829  10.688  0.3873 -0.1782 -0.2413
 2706DOPC   GL231744   2.436   4.761  10.918 -0.4604 -0.3223 -0.2767
 2706DOPC   C1A31745   2.105   5.002  11.120  0.3157 -0.0475  0.1037
 2706DOPC   D2A31746   1.957   4.980  11.512  0.1092  0.1595  0.1737
 2706DOPC   C3A31747   2.184   4.656  11.754 -0.1225 -0.2454 -0.1561
 2706DOPC   C4A31748   2.317   4.589  12.229  0.0679  0.1689 -0.2737
 2706DOPC   C1B31749   2.479   4.513  11.307 -0.1283 -0.0450  0.1680
 2706DOPC   D2B31750   2.525   4.304  11.695  0.1105 -0.2389 -0.1430
 2706DOPC   C3B31751   2.205   4.156  12.007 -0.0957  0.0845 -0.0053
 2706DOPC   C4B31752   2.247   4.180  12.509 -0.0905  0.0697 -0.2370
 2707DOPC   NC331753  31.290   8.327  10.840 -0.1613  0.0500  0.1037
 2707DOPC   PO431754  31.314   7.913  10.661 -0.0178  0.0125 -0.0508
 2707DOPC   GL131755  31.372   7.842  11.091 -0.1147  0.0125 -0.0908
 2707DOPC   GL231756  31.059   7.986  11.141 -0.1042 -0.1278 -0.1752
 2707DOPC   C1A31757  31.451   7.862  11.510 -0.2066  0.1287 -0.4551
 2707DOPC   D2A31758  31.413   7.818  11.962 -0.2092  0.3522  0.2232
 2707DOPC   C3A31759  31.027   7.999  12.148 -0.2215  0.0911  0.1452
 2707DOPC   C4A31760  30.578   7.960  11.981  0.1084 -0.1372 -0.0356
 2707DOPC   C1B31761  31.045   8.141  11.586 -0.0070  0.2017 -0.2007
 2707DOPC   D2B31762  31.357   8.328  11.841 -0.2340  0.2131  0.0390
 2707DOPC   C3B31763  31.348   8.378  12.313  0.0313 -0.0064 -0.3502
 2707DOPC   C4B31764  31.507   8.334  12.754  0.2258 -0.0440  0.1649
 2708POSM   NC331765  26.488   4.457  10.378 -0.4193  0.0710  0.1101
 2708POSM   PO431766  26.077   4.535  10.293 -0.1720 -0.3945  0.2706
 2708POSM   AM131767  26.005   4.593  10.560 -0.3721  0.2956 -0.4243
 2708POSM   AM231768  25.814   4.491  10.707 -0.0045  0.2432  0.2663
 2708POSM   T1A31769  25.982   4.807  11.021  0.0157 -0.2167 -0.2095
 2708POSM   C2A31770  26.094   4.622  11.441  0.0964 -0.0759 -0.2113
 2708POSM   C3A31771  26.426   4.672  11.745  0.0696 -0.1776 -0.0977
 2708POSM   C1B31772  25.930   4.340  10.995  0.2821 -0.1389 -0.0404
 2708POSM   D2B31773  25.818   4.231  11.475 -0.1739  0.0875 -0.2077
 2708POSM   C3B31774  25.361   4.297  11.608 -0.3382 -0.2487  0.1655
 2708POSM   C4B31775  25.149   4.571  11.889  0.2009 -0.0910  0.0287
 2709POSM   NC331776   0.938   6.342   9.961  0.0010  0.0288  0.0937
 2709POSM   PO431777   0.917   6.668  10.206  0.1350 -0.1510  0.0157
 2709POSM   AM131778   0.915   6.728  10.536  0.2557  0.2004  0.0236
 2709POSM   AM231779   0.809   6.945  10.709 -0.0364 -0.0117  0.2754
 2709POSM   T1A31780   1.014   6.511  10.940  0.0671 -0.1346  0.0699
 2709POSM   C2A31781   1.209   6.256  11.287 -0.2061  0.2079 -0.1902
 2709POSM   C3A31782   1.336   5.884  11.533 -0.0240  0.1447  0.0849
 2709POSM   C1B31783   0.580   6.828  10.905 -0.4053 -0.2799 -0.5256
 2709POSM   D2B31784   0.342   6.504  11.198 -0.0275 -0.0789  0.0162
 2709POSM   C3B31785   0.265   6.513  11.674  0.1578  0.0251  0.0167
 2709POSM   C4B31786  -0.001   6.783  11.965 -0.1414 -0.0326  0.2203
 2710DOPS   CNO31787  31.748   4.716   9.592  0.1920  0.2798 -0.1852
 2710DOPS   PO431788  31.508   4.842   9.899  0.3619 -0.1850  0.0460
 2710DOPS   GL131789  31.493   4.529  10.209 -0.1222  0.3201 -0.1019
 2710DOPS   GL231790  31.526   4.218  10.323  0.1108  0.1919  0.1808
 2710DOPS   C1A31791  31.281   4.570  10.643 -0.0635 -0.0210 -0.1221
 2710DOPS   D2A31792  31.250   4.667  11.118  0.0418  0.0475  0.0393
 2710DOPS   C3A31793  30.999   4.427  11.423 -0.2206  0.2385 -0.1782
 2710DOPS   C4A31794  31.101   4.069  11.720  0.0606 -0.0356  0.0348
 2710DOPS   C1B31795  31.780   3.937  10.688 -0.1754  0.1901  0.1463
 2710DOPS   D2B31796  31.624   3.688  11.079  0.1598 -0.0150 -0.1566
 2710DOPS   C3B31797  31.495   3.586  11.490 -0.2492  0.0907 -0.0148
 2710DOPS   C4B31798  31.504   3.741  11.956 -0.0763  0.0500 -0.0715
 2711DOPE   NH331799  31.979   6.581  10.672 -0.0895  0.2694 -0.3621
 2711DOPE   PO431800  31.756   6.783  10.692 -0.1431 -0.1118 -0.0375
 2711DOPE   GL131801  31.600   6.861  11.037 -0.5152 -0.3266 -0.7972
 2711DOPE   GL231802  31.757   6.539  11.125 -0.2084  0.3838  0.4004
 2711DOPE   C1A31803  31.503   6.834  11.490  0.1560 -0.1283 -0.0358
 2711DOPE   D2A31804  31.638   6.932  11.919 -0.3640  0.2792  0.2462
 2711DOPE   C3A31805  32.088   6.969  12.000  0.0089  0.3458  0.1456
 2711DOPE   C4A31806  32.561   7.051  12.036 -0.4180  0.3891  0.2132
 2711DOPE   C1B31807  31.996   6.832  11.419 -0.0792  0.1938 -0.1452
 2711DOPE   D2B31808  32.422   6.870  11.497  0.2484 -0.1490 -0.3511
 2711DOPE   C3B31809  32.447   6.571  11.854  0.1319  0.4134 -0.2148
 2711DOPE   C4B31810  32.367   6.211  12.066  0.0290  0.1857 -0.2105
 2712DOPC   NC331811  29.379   7.240  10.266 -0.0653  0.2165  0.2698
 2712DOPC   PO431812  29.757   7.307  10.336  0.2114 -0.0648 -0.2292
 2712DOPC   GL131813  29.727   7.307  10.705 -0.1800  0.1141 -0.1998
 2712DOPC   GL231814  29.523   7.479  10.851  0.2107  0.2096  0.1332
 2712DOPC   C1A31815  29.894   7.154  11.098  0.1265 -0.0733  0.0867
 2712DOPC   D2A31816  29.648   6.894  11.404 -0.1411 -0.1002 -0.0528
 2712DOPC   C3A31817  29.729   6.923  11.849  0.0957  0.1713  0.0901
 2712DOPC   C4A31818  29.531   6.700  12.172 -0.1120 -0.1148 -0.2219
 2712DOPC   C1B31819  29.500   7.440  11.300  0.2362 -0.2761 -0.0415
 2712DOPC   D2B31820  29.477   7.369  11.772 -0.2414 -0.0911 -0.4997
 2712DOPC   C3B31821  29.873   7.375  12.096 -0.1123 -0.1023 -0.1279
 2712DOPC   C4B31822  29.848   7.541  12.532  0.0987  0.2013 -0.0442
 2713DOPC   NC331823  26.280   6.762  10.565  0.1189  0.3876 -0.0148
 2713DOPC   PO431824  26.609   6.505  10.511 -0.2556 -0.2980 -0.0071
 2713DOPC   GL131825  26.738   6.683  10.820 -0.0725 -0.0383  0.0584
 2713DOPC   GL231826  26.547   6.898  10.959  0.4872 -0.1419 -0.1297
 2713DOPC   C1A31827  27.073   6.585  11.127 -0.0950  0.1481  0.2429
 2713DOPC   D2A31828  27.441   6.859  11.262  0.3662 -0.1308  0.0015
 2713DOPC   C3A31829  27.648   7.321  11.358  0.2596  0.0404  0.3089
 2713DOPC   C4A31830  27.759   7.715  11.084 -0.1132 -0.0124 -0.0576
 2713DOPC   C1B31831  26.563   7.165  11.356 -0.1136 -0.1194 -0.1374
 2713DOPC   D2B31832  26.646   7.177  11.781  0.0815  0.0634 -0.2331
 2713DOPC   C3B31833  26.977   6.971  12.074 -0.0287 -0.0920  0.1564
 2713DOPC   C4B31834  27.081   6.999  12.550 -0.1482  0.0625  0.1418
 2714DOPC   NC331835  30.600   8.888  10.881  0.1309  0.0715  0.1335
 2714DOPC   PO431836  30.256   9.081  10.790  0.0693 -0.3242 -0.1156
 2714DOPC   GL131837  30.271   9.033  11.133  0.1882 -0.0636 -0.0599
 2714DOPC   GL231838  30.449   9.215  11.298 -0.2788  0.2256  0.1930
 2714DOPC   C1A31839  30.506   8.720  11.419  0.3448  0.1498 -0.0055
 2714DOPC   D2A31840  30.730   8.529  11.785  0.0474  0.1660 -0.0344
 2714DOPC   C3A31841  30.480   8.460  12.216  0.0013 -0.1368  0.2254
 2714DOPC   C4A31842  30.563   8.195  12.563 -0.2531  0.0658 -0.1991
 2714DOPC   C1B31843  30.650   9.536  11.553  0.1053  0.0437  0.3170
 2714DOPC   D2B31844  30.461   9.913  11.811  0.1376  0.1159 -0.1153
 2714DOPC   C3B31845  30.133   9.771  12.112  0.4870 -0.0406  0.0527
 2714DOPC   C4B31846  29.687   9.813  12.215 -0.0404 -0.1994 -0.0768
 2715DOPE   NH331847  33.746   4.393   9.983  0.0105 -0.1597 -0.0449
 2715DOPE   PO431848  33.623   4.645  10.023  0.0681 -0.0722 -0.3605
 2715DOPE   GL131849  33.370   4.483  10.283 -0.2136 -0.0190 -0.0897
 2715DOPE   GL231850  33.414   4.227  10.288 -0.1606  0.0456  0.0245
 2715DOPE   C1A31851  32.977   4.529  10.572  0.0930 -0.0395  0.0197
 2715DOPE   D2A31852  32.780   4.790  10.894 -0.3435 -0.0377 -0.2698
 2715DOPE   C3A31853  32.705   4.506  11.225  0.0569 -0.1151  0.1595
 2715DOPE   C4A31854  32.831   4.573  11.686 -0.1334  0.0068  0.1493
 2715DOPE   C1B31855  33.174   4.100  10.652  0.0297  0.1173 -0.2005
 2715DOPE   D2B31856  32.897   3.952  10.967  0.0312  0.2383  0.1160
 2715DOPE   C3B31857  32.873   4.023  11.419 -0.0826 -0.0769  0.0636
 2715DOPE   C4B31858  32.850   4.043  11.875 -0.0677 -0.0350  0.0463
 2716DOPC   NC331859  34.643   3.573  10.222 -0.2076 -0.1090  0.1353
 2716DOPC   PO431860  34.924   3.322  10.192 -0.0190  0.4519  0.0304
 2716DOPC   GL131861  34.952   3.138  10.567 -0.2101 -0.2129  0.0483
 2716DOPC   GL231862  34.952   3.447  10.665  0.1981  0.2229 -0.0496
 2716DOPC   C1A31863  34.893   2.768  10.816  0.2758 -0.0939 -0.1767
 2716DOPC   D2A31864  35.153   2.481  11.109  0.0781  0.1184  0.0678
 2716DOPC   C3A31865  35.123   2.543  11.543 -0.2968 -0.1429  0.2781
 2716DOPC   C4A31866  35.104   2.445  12.003  0.2625 -0.1139 -0.0069
 2716DOPC   C1B31867  35.217   3.369  11.028  0.1321  0.1382 -0.0203
 2716DOPC   D2B31868  35.575   3.395  11.300  0.2110  0.3502 -0.4114
 2716DOPC   C3B31869  35.669   3.006  11.563 -0.0277  0.2589 -0.1494
 2716DOPC   C4B31870  35.460   2.720  11.895  0.0208 -0.0970  0.2013
 2717POSM   NC331871  25.935   2.996   9.932 -0.1425 -0.2590  0.2166
 2717POSM   PO431872  25.685   3.063  10.251  0.0379 -0.1813  0.3159
 2717POSM   AM131873  25.823   3.070  10.552  0.0572 -0.1769 -0.1228
 2717POSM   AM231874  25.709   2.922  10.771 -0.1248  0.0039  0.4609
 2717POSM   T1A31875  26.232   3.106  10.789  0.1033 -0.1208  0.0510
 2717POSM   C2A31876  26.429   3.006  11.216  0.0263  0.0943  0.1962
 2717POSM   C3A31877  26.546   3.002  11.710 -0.1935  0.0024 -0.1026
 2717POSM   C1B31878  25.867   2.967  11.131  0.2706  0.0135 -0.1454
 2717POSM   D2B31879  25.711   2.958  11.537 -0.0522 -0.0296  0.1703
 2717POSM   C3B31880  25.961   2.997  11.900  0.0746 -0.2067  0.0820
 2717POSM   C4B31881  26.333   2.770  12.102  0.0716 -0.1509  0.0180
 2718DOPS   CNO31882  23.830  34.661  10.446  0.0276 -0.3714  0.1482
 2718DOPS   PO431883  24.091  34.885  10.581  0.2429  0.0803 -0.5741
 2718DOPS   GL131884  24.028  34.582  10.830 -0.1013  0.0574  0.2694
 2718DOPS   GL231885  24.234  34.611  10.997 -0.1796  0.1947  0.1055
 2718DOPS   C1A31886  23.882  34.484  11.277  0.0430  0.0431  0.0654
 2718DOPS   D2A31887  23.832  34.507  11.772  0.0755 -0.1286  0.0280
 2718DOPS   C3A31888  23.895  34.655  12.182  0.1628  0.0752 -0.0620
 2718DOPS   C4A31889  23.662  34.889  12.501 -0.1719 -0.0789  0.1170
 2718DOPS   C1B31890  24.389  34.387  11.362 -0.0517 -0.0602  0.0560
 2718DOPS   D2B31891  24.202  34.191  11.726  0.0989 -0.0211 -0.1608
 2718DOPS   C3B31892  24.408  33.775  11.895 -0.1930  0.3148  0.0976
 2718DOPS   C4B31893  24.568  33.420  12.167  0.0945  0.4495  0.0921
 2719DOPE   NH331894  24.975   4.214  10.169  0.0466 -0.0344 -0.2784
 2719DOPE   PO431895  25.213   4.324  10.405  0.3012  0.1027  0.0085
 2719DOPE   GL131896  25.257   4.395  10.799 -0.0957 -0.0269  0.3026
 2719DOPE   GL231897  24.963   4.521  10.873 -0.0773  0.1739 -0.3783
 2719DOPE   C1A31898  25.519   4.524  11.190  0.0700  0.2488 -0.1430
 2719DOPE   D2A31899  25.522   4.771  11.537 -0.0743 -0.4031 -0.1613
 2719DOPE   C3A31900  25.822   4.758  11.872 -0.0097  0.0717  0.3205
 2719DOPE   C4A31901  26.098   4.934  12.169  0.0787  0.4425 -0.0690
 2719DOPE   C1B31902  24.958   4.493  11.362  0.0156 -0.2267  0.0433
 2719DOPE   D2B31903  24.665   4.670  11.727  0.0855 -0.1392  0.1113
 2719DOPE   C3B31904  24.706   4.838  12.152  0.3221  0.3769  0.0577
 2719DOPE   C4B31905  25.094   4.715  12.393 -0.3355  0.1207  0.3412
 2720POSM   NC331906  23.489   3.017   9.930  0.0452  0.1546  0.1026
 2720POSM   PO431907  23.098   3.063   9.997 -0.2881  0.0797  0.0640
 2720POSM   AM131908  22.907   3.112  10.248  0.2578 -0.0343  0.3349
 2720POSM   AM231909  22.817   3.300  10.429 -0.0179  0.0579  0.0938
 2720POSM   T1A31910  22.661   2.908  10.646 -0.0168  0.0295 -0.1359
 2720POSM   C2A31911  22.322   2.724  10.839  0.0807  0.2473  0.2313
 2720POSM   C3A31912  21.982   2.699  11.166 -0.1563  0.2028 -0.2721
 2720POSM   C1B31913  22.933   3.354  10.731  0.0211 -0.1431  0.2292
 2720POSM   D2B31914  23.293   3.381  10.978 -0.0263  0.2587  0.0051
 2720POSM   C3B31915  23.211   3.511  11.411  0.1327  0.1705 -0.1004
 2720POSM   C4B31916  23.193   3.368  11.846  0.1434  0.0219 -0.1074
 2721DOPC   NC331917  26.197   5.800  10.325  0.1077  0.1662  0.0590
 2721DOPC   PO431918  26.506   5.996  10.434 -0.0502 -0.0544 -0.2542
 2721DOPC   GL131919  26.399   6.142  10.860 -0.1933 -0.0980  0.1628
 2721DOPC   GL231920  26.342   6.443  10.948  0.2010 -0.1994  0.2129
 2721DOPC   C1A31921  26.445   5.770  11.217  0.0643 -0.2499  0.0652
 2721DOPC   D2A31922  26.571   5.421  11.484  0.0621  0.0012 -0.0175
 2721DOPC   C3A31923  26.591   5.573  11.899  0.0684 -0.2019  0.2527
 2721DOPC   C4A31924  26.648   5.816  12.285 -0.1994  0.1346 -0.1208
 2721DOPC   C1B31925  26.596   6.252  11.256  0.1862  0.0561 -0.0442
 2721DOPC   D2B31926  26.566   6.053  11.614  0.1118 -0.1325 -0.0519
 2721DOPC   C3B31927  26.272   6.186  11.861  0.1621  0.0916  0.0248
 2721DOPC   C4B31928  25.861   6.179  11.993  0.1334 -0.1980  0.0255
 2722DOPS   CNO31929  25.211   2.107   9.968  0.1386  0.0172 -0.2329
 2722DOPS   PO431930  25.209   1.812  10.205  0.3796 -0.0989 -0.1040
 2722DOPS   GL131931  25.043   1.867  10.525 -0.5614 -0.1722  0.2298
 2722DOPS   GL231932  25.068   1.630  10.706 -0.0802  0.1412 -0.0238
 2722DOPS   C1A31933  25.250   1.998  10.906 -0.2483 -0.0410  0.0724
 2722DOPS   D2A31934  25.127   2.187  11.296 -0.0272 -0.1106  0.1756
 2722DOPS   C3A31935  24.955   2.033  11.623  0.1557  0.0065  0.0024
 2722DOPS   C4A31936  25.025   1.738  12.003 -0.1431  0.1456  0.1807
 2722DOPS   C1B31937  25.068   1.594  11.133 -0.0988  0.0384 -0.0616
 2722DOPS   D2B31938  25.195   1.551  11.582  0.0038  0.0982  0.1326
 2722DOPS   C3B31939  25.693   1.448  11.520  0.0263 -0.3653 -0.0011
 2722DOPS   C4B31940  26.062   1.781  11.513 -0.2217  0.0491  0.0158
 2723DOPC   NC331941  25.428   6.089  10.054  0.0454 -0.1367 -0.1204
 2723DOPC   PO431942  25.670   6.356  10.233  0.0472 -0.0126 -0.0304
 2723DOPC   GL131943  25.607   6.312  10.631 -0.0318 -0.3182 -0.0125
 2723DOPC   GL231944  25.328   6.338  10.777 -0.0399  0.2147 -0.0902
 2723DOPC   C1A31945  25.805   6.534  10.971  0.0520  0.0039  0.0072
 2723DOPC   D2A31946  25.949   6.980  10.936  0.1571  0.1204 -0.1503
 2723DOPC   C3A31947  26.186   6.800  11.347  0.4890 -0.1391 -0.1577
 2723DOPC   C4A31948  26.423   6.658  11.709 -0.0663  0.0513 -0.1431
 2723DOPC   C1B31949  25.390   6.466  11.227 -0.1155 -0.0987  0.2324
 2723DOPC   D2B31950  25.482   6.401  11.736 -0.1973 -0.4727  0.2496
 2723DOPC   C3B31951  25.085   6.358  11.981  0.0940 -0.2042  0.2447
 2723DOPC   C4B31952  24.904   6.147  12.307 -0.1670  0.0386  0.0167
 2724DOPC   NC331953  28.014   4.982  10.610  0.2569 -0.3030  0.0271
 2724DOPC   PO431954  27.904   4.744  10.345  0.2979 -0.1073 -0.3452
 2724DOPC   GL131955  27.815   4.491  10.685 -0.0624  0.1023  0.0593
 2724DOPC   GL231956  28.098   4.476  10.736 -0.3624 -0.1536  0.0604
 2724DOPC   C1A31957  27.712   4.807  11.018  0.0685  0.0128  0.0296
 2724DOPC   D2A31958  27.476   5.101  11.208  0.1721  0.0001 -0.0364
 2724DOPC   C3A31959  27.295   4.963  11.581 -0.0159  0.1408  0.1210
 2724DOPC   C4A31960  27.060   4.664  11.880 -0.1160 -0.1913 -0.0982
 2724DOPC   C1B31961  28.023   4.361  11.228 -0.1673  0.0786  0.1995
 2724DOPC   D2B31962  28.065   4.327  11.688  0.4033  0.0359 -0.3887
 2724DOPC   C3B31963  27.772   4.201  11.954 -0.0958 -0.0533 -0.1067
 2724DOPC   C4B31964  27.705   4.288  12.417 -0.1346  0.0474  0.1739
 2725DOPE   NH331965  28.901   5.098  10.394 -0.2827  0.1382  0.1977
 2725DOPE   PO431966  29.046   4.834  10.564  0.0202  0.0884  0.1086
 2725DOPE   GL131967  29.084   4.770  11.028 -0.0809 -0.3379  0.0983
 2725DOPE   GL231968  29.008   5.033  11.122 -0.1300  0.1345  0.4545
 2725DOPE   C1A31969  29.238   4.631  11.445 -0.2713  0.1857 -0.0339
 2725DOPE   D2A31970  29.110   4.664  11.915  0.0664 -0.0789  0.1706
 2725DOPE   C3A31971  29.415   4.750  12.260 -0.2037 -0.1660  0.1508
 2725DOPE   C4A31972  29.802   4.988  12.312 -0.1356  0.4503 -0.0484
 2725DOPE   C1B31973  29.105   5.218  11.539  0.0354  0.1070 -0.0297
 2725DOPE   D2B31974  29.370   5.139  11.917  0.1844  0.1388 -0.0352
 2725DOPE   C3B31975  29.616   4.717  11.819  0.1450 -0.0315  0.1251
 2725DOPE   C4B31976  29.795   4.643  11.402 -0.2121 -0.2609 -0.1225
 2726DOPC   NC331977  28.396   5.791   9.960 -0.2766 -0.0583  0.1301
 2726DOPC   PO431978  28.124   5.723  10.226 -0.0314  0.2100  0.2080
 2726DOPC   GL131979  27.873   5.769  10.537 -0.1499 -0.0893 -0.0628
 2726DOPC   GL231980  27.838   5.548  10.589  0.2269 -0.0043 -0.2415
 2726DOPC   C1A31981  28.046   5.769  11.008 -0.2112  0.2085  0.0799
 2726DOPC   D2A31982  28.131   6.071  11.332  0.1208 -0.3225  0.1929
 2726DOPC   C3A31983  28.265   5.991  11.790  0.2406 -0.0383  0.0251
 2726DOPC   C4A31984  28.358   6.084  12.205 -0.2201  0.0664  0.0680
 2726DOPC   C1B31985  27.816   5.335  10.988  0.2040 -0.0490  0.0173
 2726DOPC   D2B31986  27.907   5.169  11.418  0.1091  0.2210 -0.0356
 2726DOPC   C3B31987  27.758   4.774  11.494 -0.0915 -0.1453  0.0445
 2726DOPC   C4B31988  27.453   4.462  11.682 -0.0956 -0.0457  0.2572
 2727DOPC   NC331989  33.174  12.239  10.243 -0.0076 -0.3318 -0.2867
 2727DOPC   PO431990  32.904  11.943  10.244  0.1920  0.2557  0.0952
 2727DOPC   GL131991  33.028  11.858  10.664 -0.0273  0.0172 -0.1764
 2727DOPC   GL231992  32.930  12.073  10.780 -0.0404 -0.0525 -0.1578
 2727DOPC   C1A31993  32.830  11.668  11.048 -0.2509 -0.0492  0.3092
 2727DOPC   D2A31994  32.645  11.347  11.347 -0.0843 -0.0493 -0.0684
 2727DOPC   C3A31995  32.672  11.198  11.771  0.2524 -0.0721  0.0719
 2727DOPC   C4A31996  32.629  11.047  12.205 -0.1440 -0.0294  0.0605
 2727DOPC   C1B31997  32.730  12.157  11.206 -0.0979 -0.1042 -0.2067
 2727DOPC   D2B31998  32.630  12.248  11.660 -0.0967  0.2550  0.1275
 2727DOPC   C3B31999  32.554  11.962  11.995 -0.1912  0.0243 -0.0017
 2727DOPC   C4B32000  32.653  11.594  12.236  0.0103 -0.1945 -0.2495
 2728POSM   NC332001  32.427   8.998  10.516 -0.1469  0.1575 -0.0377
 2728POSM   PO432002  32.759   8.991  10.340  0.2588  0.1503  0.1504
 2728POSM   AM132003  32.831   9.203  10.577  0.3432 -0.1647  0.4665
 2728POSM   AM232004  32.719   9.446  10.660  0.1780 -0.0269  0.4095
 2728POSM   T1A32005  33.062   9.315  10.982 -0.1915  0.3741  0.1050
 2728POSM   C2A32006  33.196   9.333  11.424 -0.3529  0.0204  0.2748
 2728POSM   C3A32007  33.234   9.427  11.889 -0.0427  0.0802  0.0162
 2728POSM   C1B32008  32.595   9.460  11.013 -0.0646 -0.2185  0.0350
 2728POSM   D2B32009  32.654   9.551  11.410  0.1477  0.1071 -0.1360
 2728POSM   C3B32010  32.208   9.434  11.460  0.0720  0.1352  0.3633
 2728POSM   C4B32011  31.885   9.129  11.653 -0.2045 -0.2881 -0.3275
 2729DOPE   NH332012  27.121   7.096  10.341  0.2287  0.0938 -0.0336
 2729DOPE   PO432013  27.133   7.443  10.455 -0.2436 -0.1135 -0.0595
 2729DOPE   GL132014  27.399   7.289  10.709 -0.4022  0.0368  0.2874
 2729DOPE   GL232015  27.288   7.377  10.954 -0.3265 -0.0989 -0.2311
 2729DOPE   C1A32016  27.770   7.086  10.906  0.0838 -0.1670 -0.0764
 2729DOPE   D2A32017  27.860   6.678  11.087 -0.1783 -0.0694 -0.0935
 2729DOPE   C3A32018  27.766   6.451  11.498  0.0303 -0.0085 -0.0861
 2729DOPE   C4A32019  27.513   6.470  11.878  0.2894  0.3894  0.0163
 2729DOPE   C1B32020  27.249   7.647  11.353 -0.0864  0.0621  0.0064
 2729DOPE   D2B32021  27.596   7.810  11.659 -0.2861 -0.0857  0.1076
 2729DOPE   C3B32022  27.540   7.526  11.975  0.2261 -0.0025 -0.2865
 2729DOPE   C4B32023  27.342   7.284  12.268  0.0741  0.1383 -0.0975
 2730DOPS   CNO32024  26.655   2.970  10.432  0.0297  0.0790 -0.0886
 2730DOPS   PO432025  26.738   3.317  10.266  0.2668  0.0234 -0.2148
 2730DOPS   GL132026  26.547   3.428  10.589  0.4908  0.1355  0.0423
 2730DOPS   GL232027  26.405   3.618  10.695 -0.0443  0.1300 -0.1712
 2730DOPS   C1A32028  26.778   3.340  10.982 -0.0290  0.0419 -0.0024
 2730DOPS   D2A32029  26.863   3.294  11.453  0.1117  0.0628  0.1998
 2730DOPS   C3A32030  27.315   3.250  11.445  0.2590  0.2707  0.0112
 2730DOPS   C4A32031  27.740   3.339  11.569 -0.2880  0.0020 -0.0300
 2730DOPS   C1B32032  26.317   3.514  11.149 -0.1745 -0.0493 -0.1175
 2730DOPS   D2B32033  26.243   3.461  11.611  0.0809  0.1991 -0.1066
 2730DOPS   C3B32034  26.226   3.785  11.918 -0.0492 -0.0615  0.1500
 2730DOPS   C4B32035  26.435   3.958  12.301  0.1802 -0.1463  0.0076
 2731DOPC   NC332036  31.595  11.467  10.602 -0.0470  0.0634 -0.0498
 2731DOPC   PO432037  31.296  11.585  10.817  0.1298  0.2794 -0.3300
 2731DOPC   GL132038  31.257  11.553  11.210  0.1500 -0.0920  0.0719
 2731DOPC   GL232039  31.252  11.799  11.318 -0.3083  0.0613  0.1481
 2731DOPC   C1A32040  30.823  11.463  11.307 -0.0553 -0.0636  0.1397
 2731DOPC   D2A32041  30.386  11.428  11.459 -0.1945 -0.0860  0.0059
 2731DOPC   C3A32042  30.290  11.389  11.900  0.0954 -0.0238 -0.0030
 2731DOPC   C4A32043  30.172  11.238  12.406 -0.2493 -0.2250  0.0368
 2731DOPC   C1B32044  31.096  12.235  11.467  0.0752 -0.0352 -0.1399
 2731DOPC   D2B32045  30.821  12.395  11.777  0.0945 -0.3699  0.0055
 2731DOPC   C3B32046  31.044  12.809  11.769  0.2796 -0.1611 -0.0740
 2731DOPC   C4B32047  31.406  13.068  11.681  0.0214 -0.0029  0.1156
 2732DOPE   NH332048  26.162   3.405  10.324  0.1984  0.0193  0.1404
 2732DOPE   PO432049  25.935   3.606  10.208  0.0112  0.2295 -0.0159
 2732DOPE   GL132050  25.772   3.508  10.516 -0.1260 -0.0747  0.2439
 2732DOPE   GL232051  25.910   3.488  10.800  0.0465 -0.3273 -0.1313
 2732DOPE   C1A32052  25.349   3.350  10.695 -0.0891  0.2892 -0.1434
 2732DOPE   D2A32053  25.008   3.560  10.974 -0.2388  0.0315  0.1515
 2732DOPE   C3A32054  24.928   3.464  11.428  0.0520  0.2081 -0.0715
 2732DOPE   C4A32055  24.942   3.410  11.916  0.0751 -0.0377  0.0733
 2732DOPE   C1B32056  25.558   3.477  11.143 -0.0447 -0.0061  0.0322
 2732DOPE   D2B32057  25.414   3.380  11.558  0.0621 -0.0635 -0.0589
 2732DOPE   C3B32058  25.188   2.997  11.586 -0.1757  0.0883  0.2839
 2732DOPE   C4B32059  24.816   2.780  11.532  0.2331  0.0785  0.1348
 2733DOPE   NH332060  29.125   6.389  10.025  0.1267  0.1921 -0.0609
 2733DOPE   PO432061  29.418   6.367   9.982  0.0824 -0.0515  0.4287
 2733DOPE   GL132062  29.425   6.289  10.360  0.0294  0.2539 -0.1210
 2733DOPE   GL232063  29.615   6.071  10.502  0.3375  0.0215  0.1239
 2733DOPE   C1A32064  29.432   6.352  10.835 -0.2705  0.1394 -0.0887
 2733DOPE   D2A32065  29.377   6.465  11.313  0.3058 -0.1974  0.1363
 2733DOPE   C3A32066  29.382   6.481  11.745  0.0131  0.1081  0.0204
 2733DOPE   C4A32067  29.546   6.209  12.151 -0.2837  0.1486 -0.0640
 2733DOPE   C1B32068  29.976   6.204  10.724  0.1156 -0.0190  0.0404
 2733DOPE   D2B32069  30.284   6.332  11.044 -0.1897  0.2421  0.0564
 2733DOPE   C3B32070  30.537   6.397  11.383 -0.2778  0.3538  0.3156
 2733DOPE   C4B32071  30.701   6.177  11.734 -0.1490 -0.0619  0.0082
 2734POSM   NC332072   1.338  10.385  10.360 -0.1418 -0.1348 -0.1987
 2734POSM   PO432073   1.032  10.123  10.410  0.0268 -0.2377 -0.4075
 2734POSM   AM132074   1.067  10.015  10.714 -0.2575  0.5554  0.0796
 2734POSM   AM232075   1.158   9.782  10.794  0.2929 -0.1107 -0.1816
 2734POSM   T1A32076   0.815   9.916  11.183 -0.1362 -0.4405 -0.2473
 2734POSM   C2A32077   0.880   9.662  11.591  0.1704 -0.2257 -0.1347
 2734POSM   C3A32078   0.837   9.865  12.036  0.2485  0.1176 -0.1509
 2734POSM   C1B32079   1.193   9.567  11.083  0.1916 -0.2148 -0.0089
 2734POSM   D2B32080   1.193   9.129  11.189  0.1271 -0.1232 -0.0295
 2734POSM   C3B32081   1.288   9.197  11.651 -0.3753 -0.0983 -0.1970
 2734POSM   C4B32082   1.300   9.504  11.993  0.1854 -0.0532  0.2902
 2735POSM   NC332083   0.694   9.259   9.875 -0.2527  0.0144  0.1153
 2735POSM   PO432084   0.658   9.659   9.899  0.0218 -0.1569  0.0175
 2735POSM   AM132085   0.701   9.571  10.226  0.1203  0.2686 -0.2246
 2735POSM   AM232086   0.782   9.716  10.477  0.4965 -0.2470  0.0923
 2735POSM   T1A32087   0.462   9.264  10.530  0.2640 -0.2229 -0.1615
 2735POSM   C2A32088   0.140   9.061  10.826 -0.0629  0.0432  0.2876
 2735POSM   C3A32089  -0.231   8.839  11.010  0.1183 -0.0307 -0.0472
 2735POSM   C1B32090   0.618   9.628  10.802 -0.0341 -0.0036  0.0322
 2735POSM   D2B32091   0.322   9.517  11.127  0.2123  0.1671 -0.1387
 2735POSM   C3B32092   0.410   9.492  11.580  0.0589 -0.0102 -0.1710
 2735POSM   C4B32093   0.326   9.733  11.984  0.1001  0.1299 -0.0901
 2736DOPC   NC332094  24.730   3.144  10.305 -0.1977 -0.2677  0.0082
 2736DOPC   PO432095  24.708   3.458  10.541  0.1254 -0.2522  0.1832
 2736DOPC   GL132096  24.538   3.626  10.805 -0.2082  0.2184  0.0540
 2736DOPC   GL232097  24.258   3.766  10.893  0.4277 -0.0738 -0.0463
 2736DOPC   C1A32098  24.651   3.860  11.182  0.0751  0.0046  0.1564
 2736DOPC   D2A32099  24.896   3.924  11.581  0.2271 -0.1419  0.3529
 2736DOPC   C3A32100  24.822   4.131  11.980 -0.0838 -0.0691 -0.5144
 2736DOPC   C4A32101  24.914   4.281  12.426  0.0203 -0.0090 -0.2351
 2736DOPC   C1B32102  24.162   3.597  11.329  0.2877  0.0269 -0.0873
 2736DOPC   D2B32103  23.778   3.524  11.598  0.0214  0.1373  0.0695
 2736DOPC   C3B32104  23.576   3.147  11.408  0.1026 -0.0941 -0.2583
 2736DOPC   C4B32105  23.422   2.693  11.237 -0.3621  0.1681 -0.0351
 2737DOPC   NC332106  29.881  10.134  10.986  0.0256 -0.4814  0.0968
 2737DOPC   PO432107  29.608   9.830  11.025 -0.2513  0.1133 -0.1244
 2737DOPC   GL132108  29.251   9.849  11.292  0.1096  0.0559  0.0395
 2737DOPC   GL232109  29.018   9.651  11.230  0.0648 -0.1210  0.0434
 2737DOPC   C1A32110  29.030   9.928  11.691 -0.1133  0.3640  0.0562
 2737DOPC   D2A32111  28.781   9.943  12.068  0.0298 -0.1912 -0.1399
 2737DOPC   C3A32112  28.841   9.620  12.425 -0.0954 -0.1837  0.1189
 2737DOPC   C4A32113  28.820   9.532  12.894 -0.0132 -0.0150  0.0841
 2737DOPC   C1B32114  28.658   9.784  11.467  0.1243  0.2586 -0.1235
 2737DOPC   D2B32115  28.344   9.940  11.784  0.1806 -0.2580 -0.4984
 2737DOPC   C3B32116  28.275   9.935  12.266  0.0086 -0.1197  0.1166
 2737DOPC   C4B32117  28.275   9.707  12.621  0.3619 -0.1431  0.1233
 2738DOPC   NC332118  30.505   7.068  10.330 -0.1460  0.0284 -0.2213
 2738DOPC   PO432119  30.858   6.871  10.322 -0.1171 -0.1117  0.0662
 2738DOPC   GL132120  30.920   7.251  10.535  0.0501 -0.1737  0.2287
 2738DOPC   GL232121  30.795   7.146  10.753 -0.0551  0.3098  0.1431
 2738DOPC   C1A32122  31.283   7.305  10.853 -0.0315 -0.2565 -0.0305
 2738DOPC   D2A32123  31.498   7.345  11.230  0.0845 -0.1840  0.3964
 2738DOPC   C3A32124  31.956   7.265  11.144  0.0540 -0.3246  0.0837
 2738DOPC   C4A32125  32.449   7.287  11.185 -0.0795  0.2319  0.0439
 2738DOPC   C1B32126  30.892   7.394  11.120  0.0788 -0.2051  0.0774
 2738DOPC   D2B32127  31.091   7.593  11.415  0.2476 -0.3330  0.1237
 2738DOPC   C3B32128  30.911   7.586  11.839 -0.2421  0.0709  0.1534
 2738DOPC   C4B32129  30.723   7.188  12.019  0.0821 -0.0318 -0.1999
 2739POSM   NC332130  29.069   3.497  10.234  0.2301  0.1080 -0.2840
 2739POSM   PO432131  28.925   3.137  10.250  0.2062  0.1629 -0.1772
 2739POSM   AM132132  28.819   3.128  10.584 -0.2800 -0.3022  0.0484
 2739POSM   AM232133  28.580   3.065  10.720 -0.1374  0.1777 -0.0112
 2739POSM   T1A32134  29.017   3.116  11.032 -0.2391  0.0915  0.2520
 2739POSM   C2A32135  29.044   3.325  11.485 -0.1134  0.1268 -0.3260
 2739POSM   C3A32136  28.950   3.629  11.838 -0.1881  0.3872 -0.1516
 2739POSM   C1B32137  28.460   3.238  10.949  0.3082  0.0565  0.3532
 2739POSM   D2B32138  28.197   3.181  11.376 -0.0833 -0.0559  0.0549
 2739POSM   C3B32139  28.234   2.686  11.472 -0.0327 -0.0769  0.0682
 2739POSM   C4B32140  28.401   2.470  11.814 -0.0990  0.1998 -0.0625
 2740DOPC   NC332141  26.645  11.133  10.913 -0.1931 -0.0238 -0.1317
 2740DOPC   PO432142  26.630  11.424  10.686 -0.0682 -0.4188 -0.0040
 2740DOPC   GL132143  26.736  11.640  11.101 -0.1811 -0.3285 -0.1531
 2740DOPC   GL232144  26.889  11.840  11.008 -0.1381  0.1748  0.0357
 2740DOPC   C1A32145  26.681  11.938  11.465  0.1420 -0.2488  0.2480
 2740DOPC   D2A32146  26.610  12.215  11.837  0.5270  0.1971  0.1899
 2740DOPC   C3A32147  26.199  12.246  12.060 -0.1431 -0.0949  0.2375
 2740DOPC   C4A32148  25.841  12.255  12.339 -0.2446 -0.3265  0.0791
 2740DOPC   C1B32149  26.983  12.273  11.211 -0.2029 -0.0409 -0.0764
 2740DOPC   D2B32150  26.995  12.584  11.559 -0.0350  0.1140  0.0267
 2740DOPC   C3B32151  26.826  12.685  12.015  0.0546 -0.3017 -0.3319
 2740DOPC   C4B32152  26.660  12.934  12.424  0.1316  0.3783  0.1262
 2741POSM   NC332153  33.465   2.448   9.806  0.2740  0.3338 -0.4626
 2741POSM   PO432154  33.610   2.053   9.764  0.0667  0.2090 -0.0514
 2741POSM   AM132155  33.636   2.005  10.057 -0.0013  0.0417  0.2713
 2741POSM   AM232156  33.723   2.167  10.268  0.2277  0.1903 -0.1602
 2741POSM   T1A32157  33.914   1.786  10.471  0.1218  0.1567 -0.0641
 2741POSM   C2A32158  33.921   1.348  10.708  0.0057 -0.0733  0.3630
 2741POSM   C3A32159  34.010   1.206  11.155  0.0673  0.1110  0.1553
 2741POSM   C1B32160  33.659   2.180  10.594  0.1506 -0.2367  0.1157
 2741POSM   D2B32161  33.753   2.065  11.011  0.0298  0.1156  0.1594
 2741POSM   C3B32162  33.546   2.099  11.467  0.0813 -0.3128  0.1786
 2741POSM   C4B32163  33.542   1.975  11.891  0.3144  0.2792  0.1471
 2742DOPS   CNO32164  30.913   3.622  10.149 -0.3979  0.0494 -0.1314
 2742DOPS   PO432165  30.760   3.880   9.905  0.3854 -0.1771  0.2164
 2742DOPS   GL132166  30.736   4.073  10.323  0.4839 -0.0678  0.2272
 2742DOPS   GL232167  31.056   4.089  10.438  0.1966 -0.1360  0.0991
 2742DOPS   C1A32168  30.715   3.796  10.656 -0.1681  0.0706 -0.1102
 2742DOPS   D2A32169  30.523   3.752  11.069 -0.0178  0.1970 -0.1155
 2742DOPS   C3A32170  30.597   4.148  11.355  0.3125  0.1647 -0.1626
 2742DOPS   C4A32171  30.387   4.201  11.789 -0.2196  0.0034  0.2432
 2742DOPS   C1B32172  31.354   3.764  10.655 -0.1984 -0.1293  0.0457
 2742DOPS   D2B32173  31.685   3.461  10.615  0.0526  0.3627 -0.1404
 2742DOPS   C3B32174  31.708   3.022  10.741 -0.0238  0.1455  0.3820
 2742DOPS   C4B32175  32.095   2.910  11.010  0.0004 -0.0598 -0.1624
 2743DOPC   NC332176  27.814   6.319  10.503  0.0556 -0.1225  0.0981
 2743DOPC   PO432177  27.523   6.041  10.582  0.0652  0.0392  0.0401
 2743DOPC   GL132178  27.368   5.907  10.941 -0.1741  0.1957 -0.2734
 2743DOPC   GL232179  27.351   5.542  10.940  0.3281 -0.3237  0.1760
 2743DOPC   C1A32180  27.287   6.166  11.336  0.0591 -0.0942 -0.0811
 2743DOPC   D2A32181  26.974   6.325  11.688 -0.0909  0.0891 -0.1970
 2743DOPC   C3A32182  27.022   6.755  11.584 -0.1365  0.0454  0.0948
 2743DOPC   C4A32183  27.076   7.165  11.353  0.3216  0.3230  0.4019
 2743DOPC   C1B32184  27.626   5.684  11.315 -0.0183  0.0300 -0.0847
 2743DOPC   D2B32185  27.819   5.900  11.684 -0.0213 -0.1083  0.0954
 2743DOPC   C3B32186  27.449   5.958  11.889  0.0851  0.6068  0.1683
 2743DOPC   C4B32187  27.063   6.105  12.113  0.1484  0.2644 -0.0501
 2744DOPS   CNO32188  23.874   9.876   9.572  0.1347  0.0728 -0.0109
 2744DOPS   PO432189  23.925   9.948   9.902 -0.0579 -0.1016  0.2195
 2744DOPS   GL132190  23.674   9.725  10.208 -0.0867 -0.1779  0.0347
 2744DOPS   GL232191  23.499   9.956  10.290  0.0759  0.1883 -0.1571
 2744DOPS   C1A32192  23.684   9.564  10.664 -0.1647  0.2585 -0.2713
 2744DOPS   D2A32193  23.822   9.665  11.124 -0.2402 -0.1080  0.0051
 2744DOPS   C3A32194  23.491   9.483  11.412  0.2407  0.0868  0.1392
 2744DOPS   C4A32195  23.499   9.239  11.812 -0.1072 -0.0846 -0.0310
 2744DOPS   C1B32196  23.499  10.047  10.761  0.0283  0.3620  0.1323
 2744DOPS   D2B32197  23.530  10.485  10.967 -0.2890 -0.0607  0.2570
 2744DOPS   C3B32198  23.804  10.668  11.323 -0.2158 -0.1029 -0.0220
 2744DOPS   C4B32199  23.896  10.540  11.809  0.1913  0.4222 -0.3830
 2745DOPE   NH332200  29.745   9.125  10.873 -0.2689 -0.0186 -0.1062
 2745DOPE   PO432201  29.444   9.004  10.809 -0.0729 -0.1178 -0.2346
 2745DOPE   GL132202  29.410   8.970  11.152  0.1697  0.0735 -0.1999
 2745DOPE   GL232203  29.582   8.752  11.229 -0.1514 -0.0787  0.3266
 2745DOPE   C1A32204  29.083   8.835  11.468  0.4594  0.0001 -0.2046
 2745DOPE   D2A32205  28.825   8.957  11.869 -0.1001  0.0421  0.0335
 2745DOPE   C3A32206  28.827   9.121  12.291  0.1564  0.0033  0.0248
 2745DOPE   C4A32207  29.153   9.240  12.540 -0.2033  0.0715  0.3968
 2745DOPE   C1B32208  29.938   8.730  11.437 -0.1122  0.2412  0.2253
 2745DOPE   D2B32209  30.159   9.045  11.654  0.1640  0.2273  0.4432
 2745DOPE   C3B32210  30.423   9.266  11.951 -0.0170  0.4387 -0.3272
 2745DOPE   C4B32211  30.585   9.612  12.185 -0.0998  0.1698  0.4305
 2746DOPE   NH332212  33.656   3.376   9.787 -0.0904  0.1472 -0.2749
 2746DOPE   PO432213  33.724   3.446  10.087  0.2499 -0.1992  0.0202
 2746DOPE   GL132214  33.470   3.429  10.337 -0.2503 -0.1607  0.0348
 2746DOPE   GL232215  33.279   3.264  10.239 -0.0518 -0.0650  0.0293
 2746DOPE   C1A32216  33.304   3.617  10.734  0.1584 -0.3995  0.0204
 2746DOPE   D2A32217  33.285   3.752  11.173 -0.2330  0.0146 -0.0140
 2746DOPE   C3A32218  32.889   3.546  11.366  0.0507 -0.0949 -0.0353
 2746DOPE   C4A32219  32.583   3.639  11.756  0.2169  0.0902  0.3374
 2746DOPE   C1B32220  32.918   3.198  10.522  0.1329  0.0261  0.0669
 2746DOPE   D2B32221  32.675   3.426  10.864 -0.0741 -0.0775  0.0023
 2746DOPE   C3B32222  32.418   3.244  11.207 -0.0625  0.1550 -0.1024
 2746DOPE   C4B32223  32.324   3.174  11.635  0.0345  0.2177 -0.0204
 2747DOPE   NH332224  32.152   4.742   9.892 -0.0247  0.0598 -0.1877
 2747DOPE   PO432225  32.335   4.553  10.109  0.0970  0.1860  0.0339
 2747DOPE   GL132226  32.496   4.580  10.425 -0.0204  0.1885 -0.0037
 2747DOPE   GL232227  32.355   4.726  10.625  0.2074 -0.1431 -0.2169
 2747DOPE   C1A32228  32.569   4.323  10.809 -0.1456  0.1489  0.1934
 2747DOPE   D2A32229  32.317   4.259  11.148  0.4927  0.2877  0.0440
 2747DOPE   C3A32230  31.891   4.081  11.157  0.0024  0.1860  0.0669
 2747DOPE   C4A32231  31.434   4.127  11.308  0.1095  0.4229  0.3661
 2747DOPE   C1B32232  32.288   4.776  11.070  0.0973  0.0117  0.0981
 2747DOPE   D2B32233  32.283   4.649  11.546  0.2518  0.0779  0.0671
 2747DOPE   C3B32234  32.001   4.444  11.868 -0.1237 -0.0416 -0.1206
 2747DOPE   C4B32235  31.800   4.154  12.200 -0.0965  0.0246 -0.0582
 2748DOPC   NC332236  30.120   4.607  10.340  0.3695 -0.0817  0.2201
 2748DOPC   PO432237  30.323   4.950  10.308 -0.1505  0.2895 -0.1274
 2748DOPC   GL132238  30.455   4.956  10.626 -0.2786 -0.0269  0.1794
 2748DOPC   GL232239  30.163   4.866  10.754 -0.0426  0.0547 -0.1742
 2748DOPC   C1A32240  30.845   4.879  10.913 -0.0880  0.1742 -0.2434
 2748DOPC   D2A32241  31.207   5.153  11.000  0.0113  0.0174  0.0306
 2748DOPC   C3A32242  31.199   5.355  11.440  0.0786 -0.0140 -0.1909
 2748DOPC   C4A32243  31.392   5.690  11.716  0.4786 -0.2677  0.0489
 2748DOPC   C1B32244  30.418   4.998  11.080  0.0542  0.0313 -0.2124
 2748DOPC   D2B32245  30.758   5.269  11.220  0.0958  0.0005 -0.0127
 2748DOPC   C3B32246  30.700   5.585  11.543  0.1473  0.0998  0.2311
 2748DOPC   C4B32247  30.309   5.609  11.816 -0.0744 -0.0733  0.1832
 2749DOPS   CNO32248   1.155   4.891   9.805 -0.0838  0.3347  0.2462
 2749DOPS   PO432249   1.072   4.928  10.158  0.2840  0.0864 -0.2961
 2749DOPS   GL132250   0.913   4.658  10.340 -0.2845 -0.1661 -0.5178
 2749DOPS   GL232251   0.823   4.701  10.662  0.0273 -0.2043  0.1478
 2749DOPS   C1A32252   1.144   4.308  10.571  0.0026  0.2213  0.0257
 2749DOPS   D2A32253   1.346   3.904  10.736 -0.1206  0.1508  0.0604
 2749DOPS   C3A32254   1.677   3.643  10.509  0.4061 -0.0786 -0.2533
 2749DOPS   C4A32255   2.057   3.508  10.412 -0.1538  0.0862  0.2591
 2749DOPS   C1B32256   1.108   4.591  11.001  0.0252  0.0762 -0.0283
 2749DOPS   D2B32257   0.921   4.584  11.380  0.0691 -0.0113  0.2006
 2749DOPS   C3B32258   1.309   4.269  11.459 -0.0235 -0.1442  0.1337
 2749DOPS   C4B32259   1.610   3.999  11.699  0.0452  0.1922  0.0600
 2750DOPS   CNO32260  34.368   8.525  10.226  0.0175  0.6058 -0.4394
 2750DOPS   PO432261  34.018   8.535  10.404 -0.2430  0.0547  0.0306
 2750DOPS   GL132262  33.929   8.562  10.810  0.1120  0.1897  0.0341
 2750DOPS   GL232263  33.999   8.684  10.972 -0.1884 -0.0776  0.2720
 2750DOPS   C1A32264  33.579   8.529  11.079 -0.4182 -0.3175  0.1111
 2750DOPS   D2A32265  33.351   8.243  11.372 -0.2525  0.1429  0.1112
 2750DOPS   C3A32266  33.449   8.357  11.870  0.0485  0.1777 -0.0288
 2750DOPS   C4A32267  33.501   8.401  12.346 -0.1353 -0.3730 -0.5077
 2750DOPS   C1B32268  34.064   8.461  11.359 -0.2129  0.2649 -0.0586
 2750DOPS   D2B32269  34.287   8.345  11.735  0.2425  0.1716  0.0178
 2750DOPS   C3B32270  34.601   8.013  11.563 -0.1761 -0.0493 -0.1416
 2750DOPS   C4B32271  34.780   7.668  11.365  0.3023 -0.1520  0.1517
 2751DOPC   NC332272  31.753   8.248  10.652 -0.0999 -0.2244 -0.0152
 2751DOPC   PO432273  31.696   8.618  10.677 -0.2532  0.0916  0.0457
 2751DOPC   GL132274  31.733   8.474  11.112  0.5888  0.0749 -0.0157
 2751DOPC   GL232275  31.570   8.684  11.249  0.0158 -0.2118  0.1237
 2751DOPC   C1A32276  31.734   8.243  11.505 -0.1524 -0.2797  0.0687
 2751DOPC   D2A32277  31.792   8.197  11.980 -0.0397  0.0898  0.0502
 2751DOPC   C3A32278  31.887   8.477  12.330  0.0372 -0.1323 -0.1837
 2751DOPC   C4A32279  32.163   8.604  12.660  0.3883  0.0492 -0.1586
 2751DOPC   C1B32280  32.015   8.682  11.411  0.2060  0.1750  0.1442
 2751DOPC   D2B32281  31.990   8.617  11.859  0.0260 -0.0071  0.2823
 2751DOPC   C3B32282  32.255   8.796  12.141  0.0662 -0.2867  0.0245
 2751DOPC   C4B32283  32.651   9.020  12.321  0.0025  0.0857  0.1381
 2752DOPS   CNO32284  28.333   5.215  10.231 -0.1710  0.0834 -0.1343
 2752DOPS   PO432285  28.594   5.481  10.257 -0.0510  0.2399 -0.0952
 2752DOPS   GL132286  28.446   5.549  10.567  0.1085  0.1775 -0.2488
 2752DOPS   GL232287  28.333   5.416  10.727  0.3149  0.2628  0.0285
 2752DOPS   C1A32288  28.590   5.778  10.966 -0.0202 -0.0421  0.0382
 2752DOPS   D2A32289  28.805   5.560  11.340 -0.1511  0.0468 -0.0691
 2752DOPS   C3A32290  28.556   5.293  11.676 -0.3140 -0.3439  0.0156
 2752DOPS   C4A32291  28.768   5.055  12.063  0.0163  0.0177  0.1178
 2752DOPS   C1B32292  28.420   5.313  11.175  0.1671  0.0362 -0.2099
 2752DOPS   D2B32293  28.269   5.642  11.480  0.0729  0.1238 -0.1845
 2752DOPS   C3B32294  28.085   5.506  11.902  0.2157  0.0439  0.2225
 2752DOPS   C4B32295  28.016   5.747  12.257  0.0799 -0.1961 -0.0377
 2753DOPS   CNO32296  25.936   7.179  10.181  0.1815  0.1489  0.0345
 2753DOPS   PO432297  26.161   7.288  10.416  0.1809  0.1012  0.2196
 2753DOPS   GL132298  26.060   7.401  10.712 -0.2424 -0.4699  0.1699
 2753DOPS   GL232299  26.279   7.438  10.939  0.0457 -0.1648  0.2780
 2753DOPS   C1A32300  25.768   7.412  11.058 -0.0711 -0.0732  0.1120
 2753DOPS   D2A32301  25.633   7.758  11.321 -0.2532 -0.1301 -0.2604
 2753DOPS   C3A32302  25.961   7.803  11.698  0.0292  0.1146 -0.1490
 2753DOPS   C4A32303  26.105   8.151  11.994 -0.2714  0.1083 -0.3607
 2753DOPS   C1B32304  26.147   7.445  11.371  0.1945 -0.4063  0.3403
 2753DOPS   D2B32305  26.121   7.292  11.824 -0.1272  0.2366 -0.0783
 2753DOPS   C3B32306  26.270   6.985  12.059 -0.2314  0.0143 -0.0144
 2753DOPS   C4B32307  26.146   6.607  12.205 -0.3118 -0.0720 -0.1663
 2754DOPC   NC332308  27.402   7.822  10.653  0.3294 -0.2730 -0.0345
 2754DOPC   PO432309  27.403   8.197  10.588  0.0775  0.0989  0.2474
 2754DOPC   GL132310  27.332   8.319  10.944  0.2783 -0.2798  0.1976
 2754DOPC   GL232311  27.387   8.066  11.140  0.0721  0.0006  0.0449
 2754DOPC   C1A32312  27.682   8.469  11.241 -0.0556  0.0813  0.1937
 2754DOPC   D2A32313  27.722   8.550  11.794  0.2219  0.2320  0.0633
 2754DOPC   C3A32314  28.105   8.525  11.991  0.2029 -0.2180 -0.0166
 2754DOPC   C4A32315  28.578   8.637  12.108  0.2930 -0.1585 -0.2560
 2754DOPC   C1B32316  27.341   8.268  11.561  0.2486 -0.3043  0.1171
 2754DOPC   D2B32317  27.325   8.336  12.044 -0.2750 -0.0559 -0.0717
 2754DOPC   C3B32318  27.556   8.453  12.433 -0.3777 -0.0728 -0.0153
 2754DOPC   C4B32319  27.821   8.850  12.541  0.0654  0.2461 -0.0839
 2755DOPE   NH332320  29.192   1.406  10.085 -0.2316  0.1645  0.1541
 2755DOPE   PO432321  29.073   1.355  10.376  0.1005  0.0151 -0.0355
 2755DOPE   GL132322  29.111   1.492  10.696 -0.1773  0.4156 -0.0718
 2755DOPE   GL232323  29.073   1.819  10.630 -0.3476  0.2750 -0.0233
 2755DOPE   C1A32324  29.412   1.491  11.038 -0.1259 -0.1377  0.4072
 2755DOPE   D2A32325  29.453   1.514  11.485 -0.0046 -0.0398  0.2199
 2755DOPE   C3A32326  29.737   1.378  11.786  0.0438 -0.0962  0.2701
 2755DOPE   C4A32327  30.028   1.059  11.917  0.2459  0.1051 -0.2972
 2755DOPE   C1B32328  29.070   1.796  11.095 -0.2209  0.1317  0.0310
 2755DOPE   D2B32329  29.053   1.763  11.546  0.1168 -0.1270 -0.0771
 2755DOPE   C3B32330  29.368   1.953  11.852 -0.2305 -0.1760 -0.3029
 2755DOPE   C4B32331  29.676   2.329  11.794 -0.0646  0.0465  0.1004
 2756DOPE   NH332332  24.915  10.862   9.676  0.1117  0.0669  0.0837
 2756DOPE   PO432333  24.632  10.685   9.745  0.2550 -0.1728  0.2163
 2756DOPE   GL132334  24.536  10.622  10.109 -0.1026  0.2906  0.0441
 2756DOPE   GL232335  24.644  10.428  10.326 -0.0944  0.1137  0.1547
 2756DOPE   C1A32336  24.203  10.853  10.299 -0.0820  0.0524  0.1017
 2756DOPE   D2A32337  23.818  10.957  10.508  0.0153 -0.1515 -0.0048
 2756DOPE   C3A32338  23.603  11.017  10.897 -0.1097  0.0085 -0.2550
 2756DOPE   C4A32339  23.292  10.919  11.233  0.1119  0.1929 -0.4319
 2756DOPE   C1B32340  24.462  10.105  10.631 -0.2181  0.0692 -0.0164
 2756DOPE   D2B32341  24.404   9.861  10.944  0.2548  0.4085 -0.1385
 2756DOPE   C3B32342  24.212   9.950  11.303  0.0512  0.0397 -0.1838
 2756DOPE   C4B32343  24.228  10.372  11.471  0.0303  0.2238 -0.1870
 2757POSM   NC332344  30.027   5.828  10.424  0.1372 -0.0703 -0.0083
 2757POSM   PO432345  29.680   5.620  10.341  0.2086  0.4372 -0.0833
 2757POSM   AM132346  29.751   5.555  10.641  0.4139 -0.2249  0.2716
 2757POSM   AM232347  29.841   5.730  10.882 -0.0043 -0.1698  0.1867
 2757POSM   T1A32348  29.824   5.249  11.046 -0.1167 -0.1442  0.3297
 2757POSM   C2A32349  30.054   5.017  11.347 -0.2393  0.0111  0.2942
 2757POSM   C3A32350  30.131   4.755  11.749 -0.0369 -0.2599  0.1492
 2757POSM   C1B32351  29.761   5.962  11.106 -0.2192  0.0852  0.3333
 2757POSM   D2B32352  29.681   6.054  11.524 -0.0514 -0.2640  0.0536
 2757POSM   C3B32353  29.891   5.945  11.893 -0.1368  0.0136 -0.1014
 2757POSM   C4B32354  30.030   6.117  12.309 -0.0261  0.3559  0.1155
 2758DOPS   CNO32355   0.124  10.501   9.900 -0.4160  0.0755 -0.3255
 2758DOPS   PO432356   0.102  10.240  10.149  0.1670 -0.1425 -0.1969
 2758DOPS   GL132357   0.306  10.058  10.470  0.1558  0.3214 -0.1754
 2758DOPS   GL232358   0.318   9.759  10.395  0.0150  0.5310 -0.0823
 2758DOPS   C1A32359   0.192   9.924  10.923 -0.1720  0.2127 -0.2598
 2758DOPS   D2A32360   0.303   9.950  11.362 -0.0221 -0.0252  0.0507
 2758DOPS   C3A32361  -0.019   9.825  11.693 -0.0867  0.1490  0.0003
 2758DOPS   C4A32362  -0.172   9.836  12.109  0.0050 -0.2215  0.0344
 2758DOPS   C1B32363  -0.098   9.665  10.581  0.1209  0.0940  0.1721
 2758DOPS   D2B32364  -0.181   9.403  11.008  0.1643  0.2366  0.0578
 2758DOPS   C3B32365  -0.047   9.308  11.493  0.0005  0.2500  0.1087
 2758DOPS   C4B32366  -0.001   9.313  11.941  0.0598 -0.0261 -0.0224
 2759DOPC   NC332367  30.965   5.368  10.575 -0.0377  0.2514  0.1037
 2759DOPC   PO432368  31.258   5.507  10.326  0.0575 -0.0310  0.4664
 2759DOPC   GL132369  31.425   5.478  10.668 -0.5148 -0.3655 -0.0511
 2759DOPC   GL232370  31.635   5.285  10.600 -0.2892 -0.2384 -0.0023
 2759DOPC   C1A32371  31.601   5.508  11.054 -0.0275  0.2317 -0.5322
 2759DOPC   D2A32372  31.728   5.416  11.444  0.1508 -0.2172 -0.2535
 2759DOPC   C3A32373  31.515   5.168  11.801 -0.2264  0.1107 -0.0419
 2759DOPC   C4A32374  31.238   4.880  12.089  0.3561  0.1809  0.1860
 2759DOPC   C1B32375  31.998   5.533  10.783 -0.0400  0.1475 -0.1888
 2759DOPC   D2B32376  32.090   5.702  11.218 -0.2205  0.1371 -0.1875
 2759DOPC   C3B32377  32.029   5.930  11.581 -0.1024 -0.2408 -0.0579
 2759DOPC   C4B32378  31.829   5.977  11.948 -0.0427 -0.2088  0.1781
 2760DOPE   NH332379  22.459   3.656  10.186  0.0746 -0.2604 -0.2680
 2760DOPE   PO432380  22.636   3.777   9.984  0.1120 -0.4124  0.0149
 2760DOPE   GL132381  22.682   4.060  10.342  0.0680  0.1367  0.1601
 2760DOPE   GL232382  22.701   3.867  10.574  0.1349 -0.3002 -0.2105
 2760DOPE   C1A32383  22.294   4.152  10.516 -0.2836  0.1495 -0.0343
 2760DOPE   D2A32384  21.996   4.115  10.882 -0.1612 -0.0905 -0.0273
 2760DOPE   C3A32385  22.311   4.375  11.090  0.1325 -0.0005  0.1721
 2760DOPE   C4A32386  22.502   4.786  11.291  0.4058 -0.1728 -0.0299
 2760DOPE   C1B32387  22.847   4.274  10.800 -0.4010 -0.0174  0.0501
 2760DOPE   D2B32388  22.907   4.570  11.117  0.0517  0.2101  0.2581
 2760DOPE   C3B32389  22.639   4.372  11.451  0.2215 -0.2325 -0.3997
 2760DOPE   C4B32390  22.326   4.538  11.718  0.1767  0.0807  0.3157
 2761DOPS   CNO32391  31.244   2.192  10.171  0.1726 -0.1496  0.2683
 2761DOPS   PO432392  31.187   2.583  10.104 -0.0531 -0.2425 -0.2194
 2761DOPS   GL132393  31.179   2.534  10.506  0.2380 -0.1599 -0.0979
 2761DOPS   GL232394  31.065   2.798  10.550  0.2269  0.2936 -0.0706
 2761DOPS   C1A32395  31.500   2.612  10.852  0.0751  0.1232 -0.0106
 2761DOPS   D2A32396  31.822   2.549  11.213  0.0238 -0.2136  0.1131
 2761DOPS   C3A32397  32.002   2.762  11.597 -0.0406  0.0437 -0.1819
 2761DOPS   C4A32398  32.285   2.566  11.892 -0.0713 -0.0215  0.2945
 2761DOPS   C1B32399  31.049   2.799  10.992  0.0750 -0.2979 -0.0950
 2761DOPS   D2B32400  30.855   2.643  11.380  0.3196  0.0004 -0.0336
 2761DOPS   C3B32401  30.625   2.328  11.571 -0.0815  0.1893  0.1993
 2761DOPS   C4B32402  30.619   1.918  11.765  0.1048  0.2864 -0.0716
 2762DOPS   CNO32403   1.509   9.102   9.646 -0.1181 -0.0014  0.0228
 2762DOPS   PO432404   1.211   9.176   9.889  0.1004  0.4160  0.3459
 2762DOPS   GL132405   1.002   9.200  10.215  0.1067 -0.1329 -0.0236
 2762DOPS   GL232406   0.854   8.962  10.267  0.3320  0.1472 -0.3152
 2762DOPS   C1A32407   0.945   9.272  10.679 -0.0679 -0.1281  0.0164
 2762DOPS   D2A32408   0.635   9.092  10.987 -0.3448 -0.1103 -0.0838
 2762DOPS   C3A32409   0.786   9.187  11.442 -0.1117  0.1611 -0.0853
 2762DOPS   C4A32410   0.849   9.314  11.930 -0.2589  0.0069  0.2588
 2762DOPS   C1B32411   0.616   8.774  10.610  0.2437 -0.0254  0.0271
 2762DOPS   D2B32412   0.401   8.680  10.942 -0.0748  0.1165 -0.1505
 2762DOPS   C3B32413   0.260   8.951  11.298  0.1845 -0.0332  0.1069
 2762DOPS   C4B32414   0.394   8.998  11.776 -0.3994 -0.0683  0.0065
 2763DOPE   NH332415  24.760  11.788  10.031  0.0102 -0.1386 -0.2332
 2763DOPE   PO432416  24.521  11.574  10.116  0.3130  0.3570 -0.0139
 2763DOPE   GL132417  24.410  11.349  10.433 -0.0031  0.3547 -0.1163
 2763DOPE   GL232418  24.173  11.527  10.492 -0.1712  0.0827  0.3637
 2763DOPE   C1A32419  24.355  11.064  10.784  0.1387  0.0177  0.3317
 2763DOPE   D2A32420  24.318  11.073  11.257  0.0363  0.1787 -0.2376
 2763DOPE   C3A32421  24.262  11.428  11.584 -0.0797  0.1860  0.3407
 2763DOPE   C4A32422  24.384  11.695  11.945 -0.2538 -0.2139 -0.0722
 2763DOPE   C1B32423  23.970  11.858  10.771 -0.0493 -0.2461  0.1971
 2763DOPE   D2B32424  23.584  11.832  11.075 -0.3451 -0.5003  0.3663
 2763DOPE   C3B32425  23.248  11.976  11.344 -0.3060 -0.2500  0.0687
 2763DOPE   C4B32426  22.886  11.853  11.635  0.4722 -0.0856  0.0624
 2764DOPE   NH332427  26.351   7.768  10.600 -0.3417 -0.2169 -0.0051
 2764DOPE   PO432428  26.622   7.843  10.566  0.0110 -0.2438  0.0682
 2764DOPE   GL132429  26.599   8.016  10.994  0.0030 -0.1210  0.1187
 2764DOPE   GL232430  26.599   7.742  11.219  0.0112 -0.1198  0.1718
 2764DOPE   C1A32431  26.490   8.429  11.174 -0.2718  0.4094  0.2915
 2764DOPE   D2A32432  26.233   8.773  11.336  0.0163  0.1660  0.2164
 2764DOPE   C3A32433  26.020   8.953  11.740 -0.0346 -0.0118 -0.0347
 2764DOPE   C4A32434  25.668   9.246  11.865 -0.1278 -0.4721  0.1656
 2764DOPE   C1B32435  26.538   7.621  11.682  0.0942  0.0129 -0.2574
 2764DOPE   D2B32436  26.432   7.810  12.099  0.1248 -0.1441 -0.1214
 2764DOPE   C3B32437  26.592   8.255  12.137  0.1372 -0.1337 -0.1337
 2764DOPE   C4B32438  26.824   8.699  12.175  0.2349  0.0992  0.1578
 2765POSM   NC332439  32.178  34.001   9.750 -0.3690 -0.3376  0.3961
 2765POSM   PO432440  32.336  34.345   9.751  0.5563 -0.0461 -0.2327
 2765POSM   AM132441  32.413  34.312  10.100  0.0140  0.0920  0.0583
 2765POSM   AM232442  32.275  34.122  10.310  0.0420 -0.3366  0.2419
 2765POSM   T1A32443  32.528  34.562  10.509 -0.0183 -0.1384 -0.0143
 2765POSM   C2A32444  32.930  34.711  10.719  0.0935  0.0538  0.0143
 2765POSM   C3A32445  33.339  34.966  10.810 -0.0149 -0.0798 -0.1780
 2765POSM   C1B32446  32.486  34.070  10.554  0.1274  0.2179 -0.2551
 2765POSM   D2B32447  32.828  34.178  10.841  0.1075  0.0879 -0.2145
 2765POSM   C3B32448  32.734  34.537  11.131 -0.2787  0.1398  0.3101
 2765POSM   C4B32449  32.900  34.938  11.302 -0.5433 -0.0310  0.1697
 2766DOPC   NC332450  33.693   3.858  10.477  0.0357 -0.1745 -0.0012
 2766DOPC   PO432451  33.929   4.150  10.425  0.1212 -0.1934  0.0803
 2766DOPC   GL132452  34.137   3.929  10.639  0.3285  0.2168  0.0098
 2766DOPC   GL232453  34.384   4.069  10.851 -0.0296 -0.2289  0.3518
 2766DOPC   C1A32454  33.881   3.634  10.866 -0.0051  0.2908  0.2446
 2766DOPC   D2A32455  33.636   3.325  11.119 -0.2721 -0.0056  0.2204
 2766DOPC   C3A32456  33.753   3.121  11.493  0.1117 -0.1668 -0.0096
 2766DOPC   C4A32457  33.651   3.397  11.888 -0.3237  0.1826  0.0783
 2766DOPC   C1B32458  34.692   4.251  11.157 -0.0207  0.2580 -0.0124
 2766DOPC   D2B32459  34.752   4.573  11.464 -0.2556 -0.1182  0.1852
 2766DOPC   C3B32460  34.542   4.497  11.871  0.4049  0.0808  0.1481
 2766DOPC   C4B32461  34.410   4.712  12.267 -0.1597 -0.0646 -0.0771
 2767DOPC   NC332462  25.888   3.992  10.608 -0.1422 -0.1658  0.2138
 2767DOPC   PO432463  26.229   4.032  10.422  0.1601 -0.1887  0.2706
 2767DOPC   GL132464  26.267   4.170  10.782  0.3328  0.2056  0.2179
 2767DOPC   GL232465  26.544   4.195  10.830 -0.0912 -0.0978  0.1278
 2767DOPC   C1A32466  26.332   4.055  11.270 -0.1181 -0.1118 -0.0206
 2767DOPC   D2A32467  26.382   4.206  11.636  0.0922 -0.0069 -0.0097
 2767DOPC   C3A32468  26.670   4.277  11.974 -0.1940 -0.1000 -0.1712
 2767DOPC   C4A32469  26.637   4.713  12.208  0.0272  0.1363  0.0235
 2767DOPC   C1B32470  26.487   4.548  11.098  0.3703 -0.1158 -0.0262
 2767DOPC   D2B32471  26.549   4.961  11.191 -0.0275 -0.0590 -0.3879
 2767DOPC   C3B32472  26.793   5.009  11.576 -0.3078  0.1264  0.0212
 2767DOPC   C4B32473  26.907   5.091  12.024  0.4746  0.3152 -0.2539
 2768DOPE   NH332474  32.636  12.915  10.026 -0.2847 -0.0004 -0.0781
 2768DOPE   PO432475  32.821  12.897  10.264  0.0252  0.0152 -0.2411
 2768DOPE   GL132476  33.005  13.021  10.661 -0.3078  0.0137 -0.1055
 2768DOPE   GL232477  33.302  12.906  10.641  0.0438 -0.2920 -0.1506
 2768DOPE   C1A32478  32.937  13.015  11.116  0.0822  0.2044 -0.1526
 2768DOPE   D2A32479  33.011  12.729  11.448  0.3382 -0.2339  0.0889
 2768DOPE   C3A32480  32.875  12.656  11.885  0.1200  0.1278 -0.2440
 2768DOPE   C4A32481  32.715  12.344  12.217  0.2751 -0.3097 -0.1312
 2768DOPE   C1B32482  33.533  13.135  10.980  0.2486 -0.0406  0.2263
 2768DOPE   D2B32483  33.840  13.478  11.136  0.1689  0.2152 -0.0858
 2768DOPE   C3B32484  33.963  13.446  11.593 -0.1277  0.2555 -0.3012
 2768DOPE   C4B32485  33.799  13.497  12.056 -0.1857 -0.4012 -0.2081
 2769POSM   NC332486   1.030  11.670  10.498 -0.1248  0.1622 -0.1886
 2769POSM   PO432487   0.797  11.826  10.234  0.3035 -0.1025 -0.4211
 2769POSM   AM132488   0.871  12.084  10.381  0.3488 -0.0384 -0.2697
 2769POSM   AM232489   0.809  12.379  10.501 -0.1803  0.1639  0.0948
 2769POSM   T1A32490   1.080  12.069  10.864 -0.1543  0.0117  0.7001
 2769POSM   C2A32491   1.435  11.985  11.102  0.0642 -0.0102  0.2859
 2769POSM   C3A32492   1.638  12.009  11.548  0.3945 -0.0533 -0.0664
 2769POSM   C1B32493   0.741  12.459  10.803 -0.3543  0.3403 -0.1295
 2769POSM   D2B32494   1.005  12.624  11.192 -0.2077 -0.1291  0.1127
 2769POSM   C3B32495   1.237  12.270  11.390  0.3490 -0.2539  0.1043
 2769POSM   C4B32496   1.140  11.823  11.522 -0.0316  0.0157  0.1881
 2770DOPE   NH332497  27.831  10.241  10.454 -0.2332 -0.1857  0.1330
 2770DOPE   PO432498  27.679  10.246  10.766 -0.2436 -0.2751 -0.4651
 2770DOPE   GL132499  27.667  10.122  11.149 -0.1292  0.1162 -0.0762
 2770DOPE   GL232500  27.760   9.850  11.155  0.0719  0.0388  0.0902
 2770DOPE   C1A32501  27.333  10.157  11.486 -0.4376  0.1867 -0.2015
 2770DOPE   D2A32502  27.516  10.234  11.917  0.2827  0.0917 -0.1194
 2770DOPE   C3A32503  27.386  10.208  12.310  0.0873 -0.0502  0.0114
 2770DOPE   C4A32504  27.302  10.067  12.722 -0.0184  0.1286  0.2313
 2770DOPE   C1B32505  27.795  10.039  11.591 -0.1311 -0.1247 -0.1884
 2770DOPE   D2B32506  27.815   9.882  12.042 -0.1629  0.1441  0.1220
 2770DOPE   C3B32507  27.945   9.495  12.303 -0.1091  0.1498  0.4047
 2770DOPE   C4B32508  27.878   9.403  12.739 -0.1337  0.1222 -0.3226
 2771DOPC   NC332509  34.320   6.313  10.112 -0.1528 -0.0245  0.0587
 2771DOPC   PO432510  34.488   5.991  10.278  0.1890 -0.1489 -0.0533
 2771DOPC   GL132511  34.467   6.079  10.626  0.0504  0.0373  0.0957
 2771DOPC   GL232512  34.564   6.334  10.677 -0.1923  0.0251  0.0360
 2771DOPC   C1A32513  34.196   6.036  11.021  0.0305  0.2889  0.2459
 2771DOPC   D2A32514  34.412   5.989  11.430  0.0380  0.0916 -0.0803
 2771DOPC   C3A32515  34.574   6.122  11.834 -0.2277  0.1218 -0.1939
 2771DOPC   C4A32516  34.658   6.340  12.260  0.1074 -0.0226 -0.0306
 2771DOPC   C1B32517  34.444   6.443  11.098 -0.0210 -0.1928  0.1252
 2771DOPC   D2B32518  34.381   6.509  11.561  0.0616  0.2469  0.1080
 2771DOPC   C3B32519  34.261   6.866  11.752 -0.0278  0.2227  0.2828
 2771DOPC   C4B32520  34.240   6.827  12.216 -0.0315 -0.0092  0.3989
 2772DOPS   CNO32521  26.143   2.182  10.334 -0.0786 -0.1301 -0.3480
 2772DOPS   PO432522  26.094   1.835  10.236 -0.0884 -0.0522  0.1529
 2772DOPS   GL132523  26.226   1.913  10.714 -0.1670 -0.0916 -0.0536
 2772DOPS   GL232524  26.173   1.651  10.687  0.0651 -0.0988  0.1978
 2772DOPS   C1A32525  26.618   2.115  10.899  0.2446  0.1407 -0.0412
 2772DOPS   D2A32526  26.986   2.359  11.096 -0.0284 -0.1260  0.0161
 2772DOPS   C3A32527  27.090   2.306  11.504 -0.0470  0.1427 -0.5266
 2772DOPS   C4A32528  27.464   2.386  11.659 -0.2135 -0.0097  0.0879
 2772DOPS   C1B32529  26.344   1.693  11.072 -0.0810 -0.2623  0.0687
 2772DOPS   D2B32530  26.360   1.427  11.449  0.1843 -0.1623 -0.0419
 2772DOPS   C3B32531  26.757   1.446  11.670  0.0189 -0.0141  0.0374
 2772DOPS   C4B32532  27.122   1.698  11.861  0.0880  0.1331 -0.1022
 2773DOPE   NH332533  30.541   9.534  10.636 -0.1157  0.0972  0.1539
 2773DOPE   PO432534  30.727   9.335  10.788  0.0226  0.3513  0.0910
 2773DOPE   GL132535  30.907   9.326  11.208  0.0926  0.5200 -0.1408
 2773DOPE   GL232536  30.962   9.081  11.323  0.1675  0.2107 -0.1485
 2773DOPE   C1A32537  31.148   9.562  11.490  0.2141 -0.2033 -0.0081
 2773DOPE   D2A32538  31.019   9.774  11.868  0.0101 -0.2053 -0.0028
 2773DOPE   C3A32539  31.160   9.832  12.295  0.1607 -0.0673 -0.3604
 2773DOPE   C4A32540  31.347   9.595  12.699 -0.0183 -0.1423 -0.0390
 2773DOPE   C1B32541  30.932   9.238  11.774  0.1354 -0.1538  0.1462
 2773DOPE   D2B32542  31.027   9.349  12.218  0.2561 -0.0751  0.1158
 2773DOPE   C3B32543  31.435   9.227  12.398 -0.0568 -0.2721 -0.3149
 2773DOPE   C4B32544  31.673   9.240  12.822  0.2320 -0.2049  0.0193
 2774DOPE   NH332545  26.870   5.387   9.797  0.0206  0.1251  0.0622
 2774DOPE   PO432546  26.730   5.135   9.892 -0.0349  0.0475  0.1151
 2774DOPE   GL132547  26.732   5.232  10.310  0.1270  0.1974  0.0178
 2774DOPE   GL232548  26.415   5.356  10.330  0.0648 -0.1858  0.2532
 2774DOPE   C1A32549  26.956   5.197  10.691 -0.1719 -0.0962  0.0565
 2774DOPE   D2A32550  26.987   5.293  11.132  0.0756 -0.0655 -0.0556
 2774DOPE   C3A32551  27.201   5.436  11.501  0.0143 -0.0947 -0.0392
 2774DOPE   C4A32552  27.520   5.410  11.805  0.2666 -0.0205 -0.0647
 2774DOPE   C1B32553  26.480   4.958  10.546  0.3359  0.0613  0.0330
 2774DOPE   D2B32554  26.783   4.725  10.775 -0.0207 -0.0248 -0.1791
 2774DOPE   C3B32555  27.139   4.810  10.958 -0.0175 -0.1335 -0.0526
 2774DOPE   C4B32556  27.401   4.481  11.177  0.1260 -0.1206 -0.0889
 2775DOPS   CNO32557   1.651   5.891   9.794 -0.1968 -0.0944  0.1839
 2775DOPS   PO432558   1.485   5.632   9.979  0.0185  0.2529 -0.0852
 2775DOPS   GL132559   1.705   5.626  10.326 -0.0223 -0.0520  0.0123
 2775DOPS   GL232560   1.780   5.604  10.616 -0.0092  0.0406 -0.2671
 2775DOPS   C1A32561   1.467   5.985  10.503 -0.0890  0.1607 -0.0247
 2775DOPS   D2A32562   1.458   6.291  10.856  0.2519 -0.0804 -0.1246
 2775DOPS   C3A32563   1.677   6.188  11.313 -0.0124 -0.0704  0.1429
 2775DOPS   C4A32564   1.854   6.016  11.715  0.1185 -0.0792 -0.3214
 2775DOPS   C1B32565   1.898   5.419  11.016 -0.0965 -0.4413  0.1663
 2775DOPS   D2B32566   1.790   5.521  11.481  0.0092 -0.1343 -0.1334
 2775DOPS   C3B32567   1.801   5.569  11.936  0.1804 -0.1794  0.2050
 2775DOPS   C4B32568   1.903   5.884  12.242 -0.1285  0.0382  0.0215
 2776DOPE   NH332569   1.677   0.040   9.628 -0.2168  0.0101 -0.4416
 2776DOPE   PO432570   1.922  -0.132   9.597  0.1340 -0.2780  0.0334
 2776DOPE   GL132571   1.917  -0.215  10.029  0.2424  0.3294 -0.0494
 2776DOPE   GL232572   1.989   0.077  10.124  0.1119  0.0066 -0.2036
 2776DOPE   C1A32573   1.672  -0.303  10.399 -0.1454  0.0309  0.0650
 2776DOPE   D2A32574   1.660  -0.302  10.880  0.1010  0.1706  0.0931
 2776DOPE   C3A32575   1.636   0.068  11.089  0.1045  0.1898  0.0020
 2776DOPE   C4A32576   1.418   0.012  11.487 -0.2187  0.1102  0.1293
 2776DOPE   C1B32577   1.859   0.127  10.522  0.2333  0.0054 -0.0097
 2776DOPE   D2B32578   1.993   0.442  10.887 -0.0680  0.1393 -0.3478
 2776DOPE   C3B32579   2.124   0.286  11.275 -0.0435 -0.0517  0.4389
 2776DOPE   C4B32580   1.919  -0.098  11.482  0.0114  0.2223 -0.2834
 2777DOPS   CNO32581  28.560   1.895   9.868 -0.0886  0.1863  0.3152
 2777DOPS   PO432582  28.817   1.738  10.128 -0.0098  0.4670 -0.0345
 2777DOPS   GL132583  28.655   1.781  10.429  0.0659  0.1331 -0.3615
 2777DOPS   GL232584  28.653   1.564  10.645  0.0589  0.1110 -0.1268
 2777DOPS   C1A32585  28.597   2.086  10.802  0.0148 -0.2423 -0.2177
 2777DOPS   D2A32586  28.702   2.547  10.760 -0.2840 -0.1013  0.0113
 2777DOPS   C3A32587  28.618   2.712  11.137 -0.3645  0.3518  0.0301
 2777DOPS   C4A32588  28.638   3.037  11.499 -0.0524 -0.1188  0.1955
 2777DOPS   C1B32589  28.757   1.378  11.023  0.1426  0.0650  0.3105
 2777DOPS   D2B32590  28.779   0.929  11.135 -0.2307 -0.0106  0.2118
 2777DOPS   C3B32591  28.904   0.815  11.621  0.1272 -0.1471 -0.1357
 2777DOPS   C4B32592  28.662   0.946  11.981  0.0949  0.0792 -0.0709
 2778DOPS   CNO32593  31.928   0.632   9.439 -0.2846 -0.3822  0.0027
 2778DOPS   PO432594  31.894   0.450   9.770  0.1223  0.0996  0.2684
 2778DOPS   GL132595  31.979   0.485  10.208 -0.2307  0.4086  0.0515
 2778DOPS   GL232596  32.108   0.739  10.184 -0.2567 -0.3641  0.1530
 2778DOPS   C1A32597  32.073   0.297  10.609  0.2563  0.0856 -0.1806
 2778DOPS   D2A32598  31.992   0.053  11.055  0.2468 -0.3503  0.1782
 2778DOPS   C3A32599  32.323   0.004  11.332 -0.1558  0.1585  0.0850
 2778DOPS   C4A32600  32.418  -0.105  11.796 -0.2927  0.0058 -0.1864
 2778DOPS   C1B32601  31.760   0.781  10.482 -0.1406 -0.1106  0.1481
 2778DOPS   D2B32602  31.406   0.942  10.660 -0.0803  0.1539  0.1060
 2778DOPS   C3B32603  31.073   1.190  10.961  0.1185 -0.2198 -0.3361
 2778DOPS   C4B32604  30.776   1.073  11.275  0.0259 -0.2105  0.0001
 2779DOPC   NC332605  28.765   4.544  10.160  0.0725 -0.0092 -0.0109
 2779DOPC   PO432606  28.536   4.760  10.334  0.0033 -0.0553  0.3266
 2779DOPC   GL132607  28.444   4.825  10.716  0.1024  0.1657  0.1883
 2779DOPC   GL232608  28.611   4.994  10.808 -0.1227 -0.1501 -0.0065
 2779DOPC   C1A32609  28.175   4.914  11.093 -0.1791 -0.0221 -0.2002
 2779DOPC   D2A32610  28.248   4.783  11.546 -0.1985 -0.2179 -0.0217
 2779DOPC   C3A32611  28.254   5.016  11.979  0.0242 -0.1793 -0.1869
 2779DOPC   C4A32612  28.224   5.179  12.331  0.1668  0.2309  0.1474
 2779DOPC   C1B32613  28.613   4.670  11.143  0.0542  0.1513 -0.2203
 2779DOPC   D2B32614  28.788   4.813  11.534  0.2675 -0.1205 -0.1135
 2779DOPC   C3B32615  28.572   4.569  11.895  0.1402 -0.0949 -0.3642
 2779DOPC   C4B32616  28.166   4.480  12.126 -0.2719  0.0698  0.1514
 2780DOPC   NC332617   0.690   5.757  10.420  0.0532 -0.1039 -0.1045
 2780DOPC   PO432618   0.575   6.077  10.191 -0.0643 -0.0337  0.0111
 2780DOPC   GL132619   0.709   6.266  10.394  0.0053  0.3540  0.4251
 2780DOPC   GL232620   0.944   6.244  10.485  0.1475 -0.1002  0.4773
 2780DOPC   C1A32621   0.641   6.204  10.878  0.0273 -0.1925 -0.1366
 2780DOPC   D2A32622   0.720   6.216  11.345 -0.1518  0.1040 -0.0915
 2780DOPC   C3A32623   0.480   6.051  11.717  0.2006 -0.0144  0.1693
 2780DOPC   C4A32624   0.233   5.699  11.945 -0.0700 -0.1734  0.1054
 2780DOPC   C1B32625   1.052   6.013  10.836 -0.1935  0.1143 -0.0203
 2780DOPC   D2B32626   0.962   5.644  11.077 -0.1432  0.0559 -0.1274
 2780DOPC   C3B32627   0.518   5.793  11.086 -0.1147  0.2452 -0.2906
 2780DOPC   C4B32628   0.126   6.045  11.079  0.0604 -0.1738 -0.0217
 2781DOPE   NH332629  28.788   5.907  10.484  0.1529  0.0987 -0.1220
 2781DOPE   PO432630  29.053   5.993  10.417  0.0129  0.3255  0.0816
 2781DOPE   GL132631  29.209   5.936  10.748  0.3038  0.1833  0.1650
 2781DOPE   GL232632  29.324   5.664  10.814 -0.0793  0.0216 -0.1626
 2781DOPE   C1A32633  29.224   5.932  11.212  0.2429 -0.0172  0.0245
 2781DOPE   D2A32634  29.185   5.954  11.663 -0.1444 -0.0657  0.0912
 2781DOPE   C3A32635  29.443   5.771  12.029 -0.0700 -0.1561 -0.1985
 2781DOPE   C4A32636  29.517   5.422  12.277 -0.0759 -0.1008 -0.0275
 2781DOPE   C1B32637  29.381   5.362  11.128  0.1264  0.0596  0.0311
 2781DOPE   D2B32638  29.583   5.060  11.427 -0.2937  0.0798 -0.1811
 2781DOPE   C3B32639  29.882   5.225  11.768  0.1129  0.0204  0.1392
 2781DOPE   C4B32640  29.972   5.478  12.132 -0.0416  0.0260 -0.2167
 2782DOPC   NC332641   2.378  11.661  10.416  0.2746 -0.1147  0.3825
 2782DOPC   PO432642   2.684  11.449  10.257 -0.1476  0.2972  0.2634
 2782DOPC   GL132643   2.567  11.352  10.675  0.1040 -0.4087 -0.0853
 2782DOPC   GL232644   2.837  11.276  10.722 -0.0428  0.1426  0.0212
 2782DOPC   C1A32645   2.347  11.713  10.947 -0.1624  0.0373  0.2210
 2782DOPC   D2A32646   2.073  11.838  11.286 -0.2460 -0.1552  0.1919
 2782DOPC   C3A32647   2.378  11.885  11.625  0.4552  0.2042 -0.2959
 2782DOPC   C4A32648   2.573  11.799  12.025  0.3084 -0.1228 -0.1168
 2782DOPC   C1B32649   2.797  11.307  11.162  0.1102 -0.1121 -0.0637
 2782DOPC   D2B32650   2.522  11.362  11.496 -0.0657 -0.0623 -0.0635
 2782DOPC   C3B32651   2.082  11.245  11.424 -0.0233 -0.0294 -0.1286
 2782DOPC   C4B32652   1.892  10.832  11.356  0.0207 -0.0177  0.0525
 2783POSM   NC332653  30.900   5.868  10.518  0.1048 -0.2017  0.0051
 2783POSM   PO432654  30.646   5.804  10.225 -0.1696 -0.2034  0.1378
 2783POSM   AM132655  30.457   5.663  10.461  0.1227  0.1371 -0.3275
 2783POSM   AM232656  30.301   5.422  10.478 -0.1451  0.3132 -0.2667
 2783POSM   T1A32657  30.369   5.833  10.957  0.1937  0.1036 -0.2189
 2783POSM   C2A32658  30.231   6.008  11.392  0.1506  0.1212  0.1153
 2783POSM   C3A32659  30.062   6.353  11.705 -0.1929  0.0927 -0.0529
 2783POSM   C1B32660  30.279   5.344  10.837 -0.1634  0.1743 -0.0367
 2783POSM   D2B32661  30.292   5.447  11.255 -0.0513 -0.3810  0.1394
 2783POSM   C3B32662  29.925   5.625  11.457 -0.3071  0.2092  0.1261
 2783POSM   C4B32663  29.497   5.548  11.597  0.0116  0.0040 -0.1890
 2784DOPC   NC332664  28.444  10.441  10.969 -0.1974 -0.3499  0.1401
 2784DOPC   PO432665  28.450  10.825  10.854  0.1109 -0.1945  0.3373
 2784DOPC   GL132666  28.207  11.012  11.081 -0.1022  0.0384  0.1362
 2784DOPC   GL232667  28.260  11.262  11.069 -0.1398 -0.0302 -0.0967
 2784DOPC   C1A32668  28.063  10.882  11.533 -0.1178  0.4432 -0.2317
 2784DOPC   D2A32669  27.815  10.668  11.864 -0.2271 -0.1773 -0.1848
 2784DOPC   C3A32670  27.893  10.404  12.216 -0.1807  0.0380  0.1279
 2784DOPC   C4A32671  27.879  10.042  12.502  0.2437  0.1162 -0.0258
 2784DOPC   C1B32672  28.589  11.262  11.436  0.0138 -0.2618  0.2642
 2784DOPC   D2B32673  28.654  10.967  11.733 -0.1469  0.0533 -0.2141
 2784DOPC   C3B32674  28.327  10.975  12.100 -0.2055 -0.0548  0.3072
 2784DOPC   C4B32675  28.020  10.820  12.416  0.1604  0.0029  0.0658
 2785DOPC   NC332676  28.985   8.717  10.988  0.1039 -0.1617 -0.2181
 2785DOPC   PO432677  28.902   8.388  10.791 -0.2140 -0.1095 -0.1404
 2785DOPC   GL132678  28.654   8.292  11.087 -0.1943  0.0885 -0.3999
 2785DOPC   GL232679  28.545   8.556  11.101 -0.3458  0.2601 -0.1440
 2785DOPC   C1A32680  28.662   8.391  11.530  0.0398 -0.2191 -0.0007
 2785DOPC   D2A32681  28.476   8.148  11.914 -0.2170 -0.1946 -0.2257
 2785DOPC   C3A32682  28.710   8.186  12.297  0.0806  0.1788  0.2015
 2785DOPC   C4A32683  28.548   8.198  12.740  0.1595  0.1800  0.1267
 2785DOPC   C1B32684  28.613   8.953  11.338  0.4497 -0.0626 -0.2762
 2785DOPC   D2B32685  28.625   9.321  11.567  0.0080  0.4126  0.4097
 2785DOPC   C3B32686  28.840   9.451  11.936  0.0591  0.1114 -0.0877
 2785DOPC   C4B32687  29.309   9.542  12.061 -0.0465  0.1551  0.1788
 2786DOPE   NH332688  30.142   9.541  11.483 -0.1653 -0.2187 -0.2159
 2786DOPE   PO432689  30.039   9.854  11.375  0.2191  0.1293  0.1087
 2786DOPE   GL132690  29.845   9.818  11.694 -0.3403 -0.1834 -0.2353
 2786DOPE   GL232691  29.586   9.780  11.608 -0.1399  0.0632 -0.0086
 2786DOPE   C1A32692  29.840   9.410  11.957 -0.0015  0.4112  0.2898
 2786DOPE   D2A32693  30.089   9.362  12.374 -0.1010 -0.3135  0.1647
 2786DOPE   C3A32694  30.527   9.259  12.541  0.0785 -0.0001  0.0967
 2786DOPE   C4A32695  30.882   9.361  12.860  0.0802 -0.4097  0.0718
 2786DOPE   C1B32696  29.457  10.196  11.806 -0.4100 -0.1365  0.2439
 2786DOPE   D2B32697  29.554  10.508  12.153 -0.2696  0.1399 -0.0244
 2786DOPE   C3B32698  29.465  10.354  12.553  0.0717 -0.2866  0.1489
 2786DOPE   C4B32699  29.427  10.135  12.981 -0.0045 -0.2784 -0.1162
 2787DOPE   NH332700  26.131  11.388  10.472  0.0082 -0.0605 -0.1122
 2787DOPE   PO432701  26.153  11.198  10.745 -0.0664  0.0366 -0.0737
 2787DOPE   GL132702  26.008  11.167  11.092  0.2556 -0.0648  0.0762
 2787DOPE   GL232703  26.300  11.200  11.245 -0.0647  0.3426 -0.2178
 2787DOPE   C1A32704  26.006  10.941  11.509  0.1978  0.1695 -0.1750
 2787DOPE   D2A32705  26.215  10.760  11.946 -0.0575  0.1599  0.1904
 2787DOPE   C3A32706  26.395  10.644  12.326 -0.2841 -0.3407  0.0553
 2787DOPE   C4A32707  26.809  10.819  12.426 -0.0754 -0.1223 -0.2131
 2787DOPE   C1B32708  26.295  11.589  11.415 -0.0230 -0.3910  0.3062
 2787DOPE   D2B32709  26.234  11.954  11.680 -0.2358  0.0153  0.0576
 2787DOPE   C3B32710  25.805  11.896  11.746 -0.0467  0.1508 -0.0108
 2787DOPE   C4B32711  25.542  11.943  12.113 -0.3595  0.2150 -0.0888
 2788DOPC   NC332712  24.508   6.818   9.491  0.2088  0.0006  0.1722
 2788DOPC   PO432713  24.451   6.478   9.721  0.0940 -0.1353 -0.1387
 2788DOPC   GL132714  24.357   6.597  10.099  0.0553  0.1680  0.0925
 2788DOPC   GL232715  24.568   6.595  10.316 -0.1135  0.3316  0.2860
 2788DOPC   C1A32716  24.144   6.392  10.460  0.0384 -0.1757  0.0300
 2788DOPC   D2A32717  24.388   6.203  10.785  0.0789 -0.0911  0.0826
 2788DOPC   C3A32718  24.529   6.297  11.242 -0.1105 -0.0640 -0.1466
 2788DOPC   C4A32719  24.648   6.588  11.562  0.0161  0.0770  0.1961
 2788DOPC   C1B32720  24.462   6.785  10.700  0.0263  0.2904  0.0057
 2788DOPC   D2B32721  24.470   6.787  11.126  0.2340 -0.5178 -0.0615
 2788DOPC   C3B32722  24.199   6.802  11.530 -0.0759  0.1322  0.0587
 2788DOPC   C4B32723  24.138   6.413  11.707  0.2235  0.0057  0.0254
 2789DOPE   NH332724   0.279   6.390  10.360  0.0151 -0.0225 -0.0285
 2789DOPE   PO432725   0.020   6.525  10.219 -0.2068  0.1699 -0.3474
 2789DOPE   GL132726  -0.169   6.786  10.393 -0.1865  0.1058 -0.1500
 2789DOPE   GL232727  -0.024   7.009  10.445  0.3593  0.0431 -0.2461
 2789DOPE   C1A32728  -0.444   6.850  10.769  0.0219  0.0032 -0.0247
 2789DOPE   D2A32729  -0.789   7.081  11.008 -0.0049  0.0638  0.2120
 2789DOPE   C3A32730  -0.815   7.211  11.414  0.1110  0.2914  0.0647
 2789DOPE   C4A32731  -0.879   7.092  11.865  0.0162  0.3803  0.0161
 2789DOPE   C1B32732   0.073   6.918  10.887  0.4646  0.0801  0.0618
 2789DOPE   D2B32733   0.074   6.853  11.320  0.1407  0.2470  0.0036
 2789DOPE   C3B32734   0.511   6.913  11.511 -0.1808  0.1245 -0.0948
 2789DOPE   C4B32735   0.790   7.194  11.535  0.1231  0.1428 -0.1358
 2790DOPS   CNO32736  31.174   8.145  10.236 -0.1768  0.1257 -0.3173
 2790DOPS   PO432737  30.912   8.336  10.450 -0.4246 -0.1485  0.0023
 2790DOPS   GL132738  30.911   8.555  10.774  0.0372 -0.2482 -0.0876
 2790DOPS   GL232739  30.698   8.383  11.041  0.3080 -0.1838  0.0825
 2790DOPS   C1A32740  31.064   8.609  11.205 -0.0785 -0.2495 -0.0185
 2790DOPS   D2A32741  31.146   8.753  11.662 -0.0444 -0.1066  0.0946
 2790DOPS   C3A32742  31.008   8.816  12.091  0.0475  0.0763 -0.1264
 2790DOPS   C4A32743  30.893   8.931  12.465  0.0548  0.2255  0.0079
 2790DOPS   C1B32744  30.234   8.345  10.962  0.0780  0.1682  0.2109
 2790DOPS   D2B32745  29.778   8.256  11.134  0.2150 -0.1770  0.0530
 2790DOPS   C3B32746  29.724   8.278  11.596  0.3713 -0.0796  0.0227
 2790DOPS   C4B32747  29.675   8.320  12.026 -0.0316  0.0996 -0.1169
 2791DOPC   NC332748  32.073  10.588  10.474 -0.1171 -0.4126 -0.0295
 2791DOPC   PO432749  32.030  10.179  10.475  0.1634 -0.2351  0.4090
 2791DOPC   GL132750  32.056  10.059  10.819  0.1452  0.1339 -0.2003
 2791DOPC   GL232751  31.919  10.212  10.973  0.3183  0.3162 -0.2979
 2791DOPC   C1A32752  32.065   9.838  11.243 -0.3165  0.2213  0.0060
 2791DOPC   D2A32753  32.196   9.869  11.644 -0.1860 -0.0082  0.0043
 2791DOPC   C3A32754  32.008   9.627  11.980 -0.0308 -0.3772 -0.5210
 2791DOPC   C4A32755  31.878   9.227  12.163  0.1956 -0.1826 -0.0298
 2791DOPC   C1B32756  31.798  10.166  11.458  0.0756 -0.2675 -0.1332
 2791DOPC   D2B32757  31.696  10.038  11.938 -0.2167  0.2409 -0.0495
 2791DOPC   C3B32758  32.007  10.067  12.271 -0.1672  0.1043  0.1089
 2791DOPC   C4B32759  32.147  10.278  12.595  0.0292 -0.2105  0.0518
 2792POSM   NC332760  32.715   6.066  10.318 -0.1200 -0.2555 -0.1882
 2792POSM   PO432761  32.798   6.416  10.206  0.2449 -0.2291  0.3168
 2792POSM   AM132762  32.912   6.490  10.506  0.0544  0.1980 -0.1092
 2792POSM   AM232763  32.720   6.493  10.690  0.0747 -0.1962 -0.1640
 2792POSM   T1A32764  33.195   6.436  10.986 -0.0098  0.0875  0.0176
 2792POSM   C2A32765  33.444   6.376  11.359 -0.0775  0.1048 -0.1376
 2792POSM   C3A32766  33.424   6.268  11.790  0.2193 -0.2620 -0.2786
 2792POSM   C1B32767  32.742   6.198  10.882  0.1003  0.3544  0.3539
 2792POSM   D2B32768  32.965   6.086  11.278 -0.1907 -0.0730 -0.0785
 2792POSM   C3B32769  33.010   5.782  11.590 -0.1075  0.0430 -0.3355
 2792POSM   C4B32770  33.142   5.433  11.883  0.2736 -0.0390 -0.4416
 2793DOPC   NC332771  25.303   6.666  10.357 -0.0664  0.3470 -0.1041
 2793DOPC   PO432772  25.063   6.378  10.213 -0.3480 -0.0127  0.1248
 2793DOPC   GL132773  24.918   6.288  10.580  0.0980 -0.2170  0.0421
 2793DOPC   GL232774  24.824   6.009  10.611  0.0419 -0.4267  0.2355
 2793DOPC   C1A32775  24.894   6.579  10.976  0.3764 -0.0111  0.2373
 2793DOPC   D2A32776  25.048   6.814  11.386 -0.0251 -0.0729  0.3803
 2793DOPC   C3A32777  25.187   6.912  11.811 -0.1112  0.4690  0.0443
 2793DOPC   C4A32778  25.209   7.213  12.181 -0.1805 -0.2001 -0.1952
 2793DOPC   C1B32779  25.003   6.053  10.994 -0.1047 -0.2043 -0.0735
 2793DOPC   D2B32780  24.991   6.250  11.449  0.0710 -0.0264 -0.0703
 2793DOPC   C3B32781  24.733   6.111  11.806  0.0816  0.2439 -0.0964
 2793DOPC   C4B32782  24.498   5.897  12.108 -0.4468 -0.0905  0.0159
 2794POSM   NC332783  31.043  10.493  10.635  0.0569  0.0791 -0.3000
 2794POSM   PO432784  30.735  10.486  10.882 -0.1161 -0.1380  0.1259
 2794POSM   AM132785  30.877  10.436  11.206  0.3556  0.0992 -0.1597
 2794POSM   AM232786  31.114  10.523  11.231 -0.1081  0.2047 -0.0657
 2794POSM   T1A32787  30.795  10.201  11.646 -0.5997 -0.1379  0.2241
 2794POSM   C2A32788  30.804  10.178  12.074  0.0144  0.0720 -0.2321
 2794POSM   C3A32789  30.500  10.081  12.373 -0.0371 -0.1214 -0.3613
 2794POSM   C1B32790  31.319  10.584  11.441  0.3056  0.0882 -0.0706
 2794POSM   D2B32791  31.646  10.612  11.808 -0.0932  0.0688 -0.0282
 2794POSM   C3B32792  31.531  10.798  12.217  0.2913  0.1283  0.1222
 2794POSM   C4B32793  31.715  10.912  12.624 -0.3933 -0.3832  0.2736
 2795DOPE   NH332794  26.734   9.761  10.679 -0.1660 -0.4408  0.1660
 2795DOPE   PO432795  26.958   9.605  10.570  0.0005 -0.0303 -0.3060
 2795DOPE   GL132796  26.911   9.659  11.137  0.4391  0.1192 -0.1274
 2795DOPE   GL232797  26.656   9.595  11.132 -0.1006 -0.2307  0.1992
 2795DOPE   C1A32798  27.274   9.662  11.395  0.2630 -0.1012  0.2742
 2795DOPE   D2A32799  27.370   9.740  11.873 -0.0574  0.3266  0.4177
 2795DOPE   C3A32800  27.590   9.373  11.983  0.2191  0.1596  0.2074
 2795DOPE   C4A32801  27.513   8.886  12.058  0.1922 -0.1604  0.2575
 2795DOPE   C1B32802  26.374   9.250  11.103 -0.2119 -0.1079 -0.4239
 2795DOPE   D2B32803  25.933   9.160  11.136  0.0383 -0.0876  0.1027
 2795DOPE   C3B32804  25.741   8.816  11.402  0.2709  0.0684 -0.3302
 2795DOPE   C4B32805  25.708   8.581  11.781 -0.2000  0.1560  0.1455
 2796DOPE   NH332806   0.541   4.994  10.311 -0.0605  0.0414 -0.0954
 2796DOPE   PO432807   0.298   4.795  10.440  0.1858 -0.3022 -0.0909
 2796DOPE   GL132808   0.373   4.857  10.820 -0.1425  0.0446 -0.0518
 2796DOPE   GL232809   0.164   4.731  10.895  0.3987 -0.2815  0.0374
 2796DOPE   C1A32810   0.491   4.849  11.294  0.0951 -0.2710  0.1533
 2796DOPE   D2A32811   0.512   4.806  11.744  0.1598  0.1589  0.0410
 2796DOPE   C3A32812   0.387   5.165  12.034  0.1914 -0.0587  0.1178
 2796DOPE   C4A32813   0.633   5.491  12.159  0.0559 -0.0726  0.1072
 2796DOPE   C1B32814  -0.104   4.930  11.149  0.0842 -0.0093  0.2618
 2796DOPE   D2B32815  -0.426   5.032  11.477  0.1362  0.1407 -0.0772
 2796DOPE   C3B32816  -0.461   4.586  11.419  0.0579 -0.0977 -0.1299
 2796DOPE   C4B32817  -0.433   4.161  11.603  0.0183  0.0381  0.2917
 2797DOPS   CNO32818  32.233   1.610   9.799  0.0183 -0.0772 -0.0182
 2797DOPS   PO432819  32.354   1.427  10.117 -0.2529 -0.0034  0.1893
 2797DOPS   GL132820  32.372   1.381  10.448  0.3098  0.2196 -0.3405
 2797DOPS   GL232821  32.260   1.072  10.517 -0.1211 -0.0472 -0.0748
 2797DOPS   C1A32822  32.403   1.366  10.931 -0.0340  0.1877 -0.0715
 2797DOPS   D2A32823  32.190   1.652  11.246 -0.0961 -0.0961 -0.2003
 2797DOPS   C3A32824  31.969   1.353  11.510 -0.0875  0.0644  0.1602
 2797DOPS   C4A32825  31.824   1.140  11.897 -0.0433 -0.0595 -0.0905
 2797DOPS   C1B32826  32.116   0.771  10.885  0.0690  0.0647  0.0117
 2797DOPS   D2B32827  31.747   0.478  11.009 -0.0865 -0.0865  0.4167
 2797DOPS   C3B32828  31.874   0.339  11.460  0.5080  0.2821  0.3869
 2797DOPS   C4B32829  31.995   0.167  11.829 -0.1154 -0.1473  0.1200
 2798DOPE   NH332830  23.969   2.044  10.453 -0.2455  0.0089  0.1616
 2798DOPE   PO432831  24.192   1.971  10.251  0.3246  0.0787  0.4367
 2798DOPE   GL132832  24.446   2.001  10.594 -0.2771  0.0171  0.4425
 2798DOPE   GL232833  24.579   1.744  10.708  0.0046 -0.0491  0.2254
 2798DOPE   C1A32834  24.298   2.222  11.009  0.1261 -0.0480  0.2116
 2798DOPE   D2A32835  23.897   2.390  11.267 -0.3115 -0.3569  0.1401
 2798DOPE   C3A32836  23.768   2.670  11.645  0.0478 -0.0079  0.0384
 2798DOPE   C4A32837  23.807   3.080  11.917  0.0783 -0.3306 -0.0751
 2798DOPE   C1B32838  24.693   1.928  11.122  0.0224 -0.2643  0.1266
 2798DOPE   D2B32839  24.534   2.272  11.450 -0.0898  0.0764  0.0043
 2798DOPE   C3B32840  24.497   2.157  11.921 -0.0894  0.2899 -0.2445
 2798DOPE   C4B32841  24.267   2.039  12.293  0.2935  0.0597  0.0265
 2799DOPE   NH332842  32.710   1.785   9.909  0.1457  0.0427 -0.1313
 2799DOPE   PO432843  33.006   1.823   9.877  0.1006  0.2224  0.2232
 2799DOPE   GL132844  33.135   1.855  10.245 -0.4193 -0.3348 -0.3286
 2799DOPE   GL232845  33.406   1.781  10.317 -0.0592  0.1973  0.2964
 2799DOPE   C1A32846  33.181   2.019  10.655 -0.1360 -0.1216  0.2397
 2799DOPE   D2A32847  33.258   2.121  11.091  0.1768 -0.1133  0.0225
 2799DOPE   C3A32848  33.048   2.037  11.539 -0.0435 -0.0432 -0.1694
 2799DOPE   C4A32849  32.880   2.110  11.980  0.1684  0.3106  0.0152
 2799DOPE   C1B32850  33.289   1.409  10.487 -0.1486  0.1449 -0.0656
 2799DOPE   D2B32851  33.239   0.932  10.504 -0.2215 -0.1386 -0.0132
 2799DOPE   C3B32852  33.245   0.781  10.920  0.1792 -0.1109 -0.1944
 2799DOPE   C4B32853  33.374   0.680  11.344 -0.0286 -0.0490  0.0047
 2800POSM   NC332854   0.953   7.951  10.044 -0.0397  0.3538 -0.0558
 2800POSM   PO432855   1.264   8.130  10.177 -0.3253 -0.0717 -0.2273
 2800POSM   AM132856   1.161   8.194  10.499 -0.2031  0.1266 -0.2328
 2800POSM   AM232857   0.920   8.196  10.683 -0.0383 -0.0207 -0.1889
 2800POSM   T1A32858   1.380   8.217  10.976  0.2165 -0.1206  0.0889
 2800POSM   C2A32859   1.567   8.297  11.377 -0.1808  0.0531 -0.1959
 2800POSM   C3A32860   1.668   8.176  11.842 -0.2559  0.1780 -0.3323
 2800POSM   C1B32861   0.665   8.281  10.962  0.0286  0.0640 -0.0784
 2800POSM   D2B32862   0.334   8.158  11.345  0.2409  0.1066  0.2405
 2800POSM   C3B32863   0.360   8.493  11.713  0.0955 -0.4049 -0.0381
 2800POSM   C4B32864   0.370   8.644  12.195  0.1563 -0.0277  0.1957
 2801DOPC   NC332865   0.605  10.126  10.125  0.1630  0.2189 -0.3934
 2801DOPC   PO432866   0.635  10.450  10.351  0.2189  0.1200  0.1674
 2801DOPC   GL132867   0.654  10.550  10.743  0.4035 -0.0672 -0.0499
 2801DOPC   GL232868   0.365  10.551  10.788 -0.0552  0.0763  0.2420
 2801DOPC   C1A32869   0.635  10.589  11.238 -0.0640 -0.0793 -0.1108
 2801DOPC   D2A32870   0.969  10.751  11.439 -0.1933  0.0142 -0.1460
 2801DOPC   C3A32871   1.172  10.761  11.863  0.0574  0.2064  0.1187
 2801DOPC   C4A32872   1.097  10.616  12.286  0.0780  0.0023 -0.3697
 2801DOPC   C1B32873   0.165  10.897  11.020 -0.2648  0.1592  0.0086
 2801DOPC   D2B32874   0.017  10.978  11.410 -0.0891  0.2538  0.1906
 2801DOPC   C3B32875   0.131  11.053  11.807  0.0871  0.3545  0.2151
 2801DOPC   C4B32876   0.048  11.169  12.220 -0.2053 -0.2276  0.0931
 2802DOPC   NC332877  27.207   1.004  10.340  0.2327 -0.3119 -0.0834
 2802DOPC   PO432878  27.440   1.322  10.322 -0.1337 -0.0652 -0.0305
 2802DOPC   GL132879  27.381   1.506  10.690 -0.3468  0.1371 -0.4410
 2802DOPC   GL232880  27.330   1.254  10.804 -0.0279  0.0259 -0.4059
 2802DOPC   C1A32881  27.639   1.668  11.009  0.1425 -0.0399 -0.1887
 2802DOPC   D2A32882  27.865   1.967  11.300 -0.0880  0.2474  0.0395
 2802DOPC   C3A32883  27.858   2.395  11.328  0.1437 -0.0170  0.0582
 2802DOPC   C4A32884  27.779   2.837  11.405 -0.2125  0.2037 -0.0564
 2802DOPC   C1B32885  27.659   1.167  11.067 -0.1331  0.3537  0.1021
 2802DOPC   D2B32886  27.939   1.410  11.349 -0.1578  0.0245 -0.0694
 2802DOPC   C3B32887  28.199   1.621  11.685 -0.0034 -0.1330  0.0006
 2802DOPC   C4B32888  28.135   1.907  12.078 -0.4265  0.1313 -0.1951
 2803DOPE   NH332889  27.157   3.604  10.167 -0.1143 -0.1897  0.1197
 2803DOPE   PO432890  27.254   3.301  10.100 -0.1047 -0.1226 -0.0878
 2803DOPE   GL132891  27.304   3.379  10.572 -0.1873  0.2757  0.0757
 2803DOPE   GL232892  27.118   3.201  10.635 -0.1390  0.0209  0.1330
 2803DOPE   C1A32893  27.083   3.670  10.837 -0.2878 -0.1933  0.1192
 2803DOPE   D2A32894  26.769   3.819  11.160  0.1737 -0.0512 -0.2869
 2803DOPE   C3A32895  26.644   3.736  11.599 -0.0210 -0.0386  0.1656
 2803DOPE   C4A32896  26.802   3.453  11.914  0.1547  0.0682  0.0982
 2803DOPE   C1B32897  27.406   3.090  10.942  0.2362  0.3079 -0.1108
 2803DOPE   D2B32898  27.816   3.209  10.969 -0.0209 -0.3447  0.0913
 2803DOPE   C3B32899  28.060   3.565  11.014 -0.1159 -0.2750 -0.0504
 2803DOPE   C4B32900  28.173   3.878  11.300  0.0936 -0.1292  0.0544
 2804DOPE   NH332901  31.628   5.313  10.052  0.2357  0.1163  0.1898
 2804DOPE   PO432902  31.932   5.182   9.999  0.0278 -0.1469  0.1772
 2804DOPE   GL132903  32.056   5.174  10.436 -0.1033  0.2793 -0.1894
 2804DOPE   GL232904  32.280   5.310  10.421 -0.3699 -0.1266 -0.2339
 2804DOPE   C1A32905  31.869   4.929  10.823  0.0303  0.0053 -0.1272
 2804DOPE   D2A32906  31.677   4.955  11.255 -0.0472  0.1591  0.0920
 2804DOPE   C3A32907  31.951   4.971  11.650  0.5132  0.2613 -0.0156
 2804DOPE   C4A32908  32.039   5.313  11.936 -0.0158  0.0088 -0.1924
 2804DOPE   C1B32909  32.439   5.173  10.882 -0.1043 -0.0949  0.0052
 2804DOPE   D2B32910  32.202   5.171  11.299  0.1762  0.3073  0.4115
 2804DOPE   C3B32911  32.469   5.176  11.702  0.1095 -0.1289  0.1495
 2804DOPE   C4B32912  32.824   4.990  11.932 -0.0689 -0.1370  0.0198
 2805POSM   NC332913  29.684   0.456  10.050 -0.0591  0.1984  0.1345
 2805POSM   PO432914  29.320   0.461  10.183  0.0284  0.0635  0.0238
 2805POSM   AM132915  29.199   0.549  10.476 -0.3455  0.1349 -0.1914
 2805POSM   AM232916  29.168   0.766  10.586 -0.0493 -0.3281  0.1366
 2805POSM   T1A32917  29.398   0.402  10.923  0.2788  0.1849 -0.1450
 2805POSM   C2A32918  29.395   0.573  11.357 -0.1024 -0.1207 -0.1841
 2805POSM   C3A32919  29.594   0.807  11.687 -0.0748  0.0342 -0.0458
 2805POSM   C1B32920  29.185   0.968  10.909 -0.2453 -0.3745 -0.3022
 2805POSM   D2B32921  29.298   1.076  11.323 -0.2559 -0.2421  0.0436
 2805POSM   C3B32922  29.185   1.160  11.850 -0.2717 -0.0095  0.2923
 2805POSM   C4B32923  29.180   1.487  12.086  0.1790 -0.2773 -0.0892
 2806POSM   NC332924  33.781   5.118  10.013 -0.2174 -0.3133 -0.2438
 2806POSM   PO432925  34.095   4.874  10.108  0.0003 -0.2367  0.1200
 2806POSM   AM132926  33.954   4.819  10.354 -0.0513 -0.1032 -0.0583
 2806POSM   AM232927  33.755   4.629  10.491 -0.0203 -0.0825 -0.1483
 2806POSM   T1A32928  33.716   5.023  10.760 -0.2498 -0.2054  0.3349
 2806POSM   C2A32929  34.016   5.267  11.020 -0.3688  0.0090  0.1895
 2806POSM   C3A32930  34.003   5.672  11.296 -0.0701  0.0545  0.0643
 2806POSM   C1B32931  33.456   4.522  10.712  0.1588  0.0945  0.1417
 2806POSM   D2B32932  33.201   4.454  11.141  0.1765 -0.2505  0.2191
 2806POSM   C3B32933  33.273   4.324  11.551 -0.0856 -0.0846 -0.0899
 2806POSM   C4B32934  33.367   4.112  12.005  0.1806  0.0557 -0.0731
 2807POSM   NC332935  27.180  11.419  10.929  0.0723 -0.0340 -0.4005
 2807POSM   PO432936  27.131  11.023  10.882  0.1703  0.2800  0.0630
 2807POSM   AM132937  26.973  10.772  11.068  0.0486 -0.1262  0.0635
 2807POSM   AM232938  26.806  10.532  11.086 -0.0119  0.0289  0.3323
 2807POSM   T1A32939  26.985  10.490  11.541 -0.1965  0.1685 -0.0796
 2807POSM   C2A32940  26.871  10.197  11.877 -0.0385 -0.1025  0.1201
 2807POSM   C3A32941  26.989   9.869  12.207  0.2431  0.1238 -0.0228
 2807POSM   C1B32942  26.590  10.726  11.298  0.0066 -0.3184  0.1967
 2807POSM   D2B32943  26.570  11.006  11.670 -0.1862 -0.2432 -0.1304
 2807POSM   C3B32944  26.558  11.089  12.114 -0.1727  0.0118  0.3769
 2807POSM   C4B32945  26.551  11.427  12.444  0.2224  0.2087  0.1168
 2808POSM   NC332946  31.531   2.984  10.309 -0.0680  0.1148 -0.2790
 2808POSM   PO432947  31.852   3.192  10.132  0.0450  0.2885 -0.1557
 2808POSM   AM132948  32.056   3.224  10.376 -0.2662 -0.1862  0.2021
 2808POSM   AM232949  32.240   3.454  10.509 -0.0523 -0.3742  0.1902
 2808POSM   T1A32950  32.390   2.963  10.636 -0.1943 -0.2137 -0.0757
 2808POSM   C2A32951  32.673   2.798  10.941 -0.0588 -0.1390  0.0900
 2808POSM   C3A32952  32.902   2.542  11.314 -0.2349  0.2883 -0.0532
 2808POSM   C1B32953  32.106   3.428  10.817 -0.2549 -0.3276  0.1968
 2808POSM   D2B32954  31.902   3.290  11.252  0.1417 -0.2410 -0.1698
 2808POSM   C3B32955  32.069   3.647  11.491 -0.1086 -0.0186 -0.0732
 2808POSM   C4B32956  31.832   3.979  11.679 -0.0147  0.0427 -0.1221
 2809DOPC   NC332957  25.524   5.223  10.218 -0.0363  0.1325 -0.2023
 2809DOPC   PO432958  25.457   5.590  10.277 -0.0766 -0.2140 -0.0092
 2809DOPC   GL132959  25.141   5.652  10.523 -0.2429 -0.0053  0.0199
 2809DOPC   GL232960  25.262   5.950  10.521  0.1598  0.3011  0.2332
 2809DOPC   C1A32961  24.902   5.578  10.902 -0.1839 -0.3386 -0.0050
 2809DOPC   D2A32962  24.535   5.747  11.102  0.1967  0.1224 -0.1261
 2809DOPC   C3A32963  24.197   5.789  10.769 -0.0163 -0.1770 -0.1401
 2809DOPC   C4A32964  23.873   6.110  10.854  0.0613 -0.0118  0.0196
 2809DOPC   C1B32965  25.536   5.931  10.927  0.1848  0.3125 -0.1576
 2809DOPC   D2B32966  25.486   6.023  11.339 -0.1685 -0.0931  0.3127
 2809DOPC   C3B32967  25.474   5.887  11.750  0.1527 -0.0591 -0.1365
 2809DOPC   C4B32968  25.065   5.827  11.964 -0.2300 -0.1369  0.0173
 2810DOPC   NC332969  30.983   1.686   9.460 -0.0374  0.1026 -0.0236
 2810DOPC   PO432970  31.044   1.370   9.687  0.0139  0.0855  0.1123
 2810DOPC   GL132971  31.220   1.604   9.992 -0.0210  0.0485  0.2449
 2810DOPC   GL232972  31.485   1.501  10.094 -0.1619 -0.1823 -0.1502
 2810DOPC   C1A32973  30.958   1.753  10.382 -0.0755  0.0704  0.3000
 2810DOPC   D2A32974  30.771   1.533  10.702 -0.0011  0.1440 -0.5167
 2810DOPC   C3A32975  30.385   1.213  10.543  0.1157 -0.0347 -0.2693
 2810DOPC   C4A32976  30.028   1.132  10.761  0.1544 -0.2481  0.3660
 2810DOPC   C1B32977  31.541   1.817  10.360  0.0195  0.1581  0.2544
 2810DOPC   D2B32978  31.355   2.121  10.637  0.1157 -0.1385  0.0470
 2810DOPC   C3B32979  31.521   2.148  11.078 -0.1947  0.1475  0.4116
 2810DOPC   C4B32980  31.680   1.934  11.463  0.1237  0.2741 -0.0212
 2811DOPE   NH332981  32.772   8.048  10.432 -0.2510 -0.0636 -0.2158
 2811DOPE   PO432982  32.823   7.724  10.553  0.5807 -0.1727 -0.0257
 2811DOPE   GL132983  32.679   7.962  10.850 -0.4992 -0.1638 -0.2830
 2811DOPE   GL232984  32.636   8.230  10.940  0.0510  0.2323  0.1901
 2811DOPE   C1A32985  32.471   7.793  11.286 -0.1290  0.0816  0.0169
 2811DOPE   D2A32986  32.324   7.546  11.558 -0.2050 -0.1869 -0.3100
 2811DOPE   C3A32987  31.960   7.295  11.647 -0.0849  0.0265 -0.1804
 2811DOPE   C4A32988  31.472   7.357  11.749 -0.1482 -0.1525  0.2116
 2811DOPE   C1B32989  32.566   8.556  11.279  0.1713 -0.0395  0.0801
 2811DOPE   D2B32990  32.458   8.537  11.726 -0.2245  0.1847  0.1208
 2811DOPE   C3B32991  32.750   8.400  12.005 -0.3669 -0.3608  0.1677
 2811DOPE   C4B32992  33.008   8.121  12.172  0.0418 -0.2712  0.0278
 2812DOPC   NC332993   0.055   8.095  10.434  0.0040  0.2443  0.2024
 2812DOPC   PO432994   0.275   7.934  10.135  0.1015 -0.0810 -0.2784
 2812DOPC   GL132995   0.366   7.737  10.407 -0.0871  0.2730  0.1196
 2812DOPC   GL232996   0.512   7.914  10.591  0.1624 -0.0244 -0.2429
 2812DOPC   C1A32997   0.081   7.649  10.783  0.2997  0.1762  0.1207
 2812DOPC   D2A32998  -0.238   7.379  10.959  0.5237  0.1775  0.1350
 2812DOPC   C3A32999  -0.286   7.243  11.397 -0.0225 -0.2623  0.1956
 2812DOPC   C4A33000  -0.194   7.343  11.866  0.1902 -0.0482  0.0204
 2812DOPC   C1B33001   0.485   7.777  11.029  0.1171 -0.2304  0.1981
 2812DOPC   D2B33002   0.648   7.749  11.443  0.1447 -0.1789  0.0092
 2812DOPC   C3B33003   0.598   8.082  11.712  0.2239  0.0806  0.3283
 2812DOPC   C4B33004   0.744   8.352  12.036  0.4988  0.1415  0.0741
 2813DOPC   NC333005   1.561   9.129  10.193  0.1163 -0.0066 -0.0717
 2813DOPC   PO433006   1.791   8.829  10.095  0.0349  0.0515 -0.0917
 2813DOPC   GL133007   1.773   8.736  10.468  0.0201 -0.0678  0.1247
 2813DOPC   GL233008   2.102   8.729  10.625  0.1673 -0.1147 -0.1169
 2813DOPC   C1A33009   1.651   8.641  10.935  0.1592 -0.0536 -0.1992
 2813DOPC   D2A33010   1.302   8.659  11.274 -0.2472  0.3461  0.2387
 2813DOPC   C3A33011   1.425   8.676  11.694  0.2734 -0.0623  0.1189
 2813DOPC   C4A33012   1.745   9.033  11.837 -0.1178  0.4284 -0.1792
 2813DOPC   C1B33013   2.295   8.484  10.912  0.4767  0.2263 -0.1243
 2813DOPC   D2B33014   2.544   8.120  10.919  0.1533  0.1692 -0.0121
 2813DOPC   C3B33015   2.504   7.722  11.202 -0.0405 -0.1278  0.0252
 2813DOPC   C4B33016   2.397   7.276  11.268 -0.1719 -0.0963  0.0064
 2814DOPS   CNO33017  33.263   8.410  10.023  0.1835 -0.1848  0.2662
 2814DOPS   PO433018  33.247   8.092  10.268  0.1140  0.2269 -0.3026
 2814DOPS   GL133019  33.229   8.027  10.680  0.1231  0.1305  0.1702
 2814DOPS   GL233020  33.106   8.219  10.838  0.0629  0.2743 -0.1380
 2814DOPS   C1A33021  33.551   7.958  10.998  0.3141  0.1481  0.3015
 2814DOPS   D2A33022  33.788   8.082  11.312  0.0422 -0.2910 -0.3967
 2814DOPS   C3A33023  33.891   8.007  11.775 -0.1036  0.1694  0.1922
 2814DOPS   C4A33024  33.851   7.886  12.163 -0.0646 -0.1653 -0.0489
 2814DOPS   C1B33025  32.984   7.883  11.157 -0.1045  0.2273  0.2336
 2814DOPS   D2B33026  32.978   7.452  11.138 -0.0712  0.2532  0.2416
 2814DOPS   C3B33027  32.878   7.174  11.470  0.2963  0.1916  0.0781
 2814DOPS   C4B33028  33.033   6.793  11.658 -0.0777  0.1457 -0.3213
 2815POSM   NC333029   1.022   2.728   9.870  0.3983  0.3202 -0.1804
 2815POSM   PO433030   0.686   2.597   9.840 -0.1053 -0.1006  0.4201
 2815POSM   AM133031   0.631   2.651  10.155 -0.0201 -0.0695  0.2772
 2815POSM   AM233032   0.554   2.843  10.362 -0.2581 -0.0092 -0.2776
 2815POSM   T1A33033   0.688   2.486  10.612 -0.1166 -0.0621  0.0534
 2815POSM   C2A33034   0.908   2.237  10.991 -0.1018  0.0594 -0.1861
 2815POSM   C3A33035   1.326   2.191  11.166  0.0620 -0.2957  0.0622
 2815POSM   C1B33036   0.649   2.981  10.677  0.0204  0.0155  0.1018
 2815POSM   D2B33037   0.795   2.843  11.128 -0.0354 -0.2667  0.3947
 2815POSM   C3B33038   0.950   2.520  11.426  0.0165  0.0961  0.0162
 2815POSM   C4B33039   1.013   2.066  11.512  0.2296 -0.0267 -0.1176
 2816DOPS   CNO33040  32.215   7.686  10.674 -0.0479 -0.0516 -0.0884
 2816DOPS   PO433041  32.308   8.041  10.575 -0.2982  0.1058  0.2846
 2816DOPS   GL133042  32.201   8.044  10.911 -0.5390 -0.1475 -0.0340
 2816DOPS   GL233043  31.880   7.992  11.012  0.0219 -0.0931 -0.1298
 2816DOPS   C1A33044  32.220   8.224  11.351 -0.0915  0.0898 -0.1230
 2816DOPS   D2A33045  32.239   8.116  11.790  0.4075 -0.0299  0.0914
 2816DOPS   C3A33046  32.586   7.931  11.888  0.2138 -0.0728 -0.2819
 2816DOPS   C4A33047  32.799   7.546  11.816 -0.0118  0.1879 -0.0442
 2816DOPS   C1B33048  31.904   7.716  11.379 -0.0803 -0.1151 -0.0410
 2816DOPS   D2B33049  31.883   7.721  11.832 -0.1070  0.0556 -0.0355
 2816DOPS   C3B33050  32.253   7.568  12.046  0.3834  0.2225  0.2087
 2816DOPS   C4B33051  32.206   7.350  12.428 -0.0520 -0.0708  0.1709
 2817POSM   NC333052  25.317   7.901   9.859 -0.1718 -0.2800 -0.0667
 2817POSM   PO433053  25.313   8.212  10.084 -0.1142  0.0477 -0.0742
 2817POSM   AM133054  25.298   8.147  10.405  0.0384  0.0163 -0.1232
 2817POSM   AM233055  25.465   7.953  10.537  0.1440 -0.3216  0.0147
 2817POSM   T1A33056  25.302   8.455  10.782 -0.1018  0.1773 -0.0533
 2817POSM   C2A33057  25.244   8.601  11.236  0.0692 -0.1097 -0.1876
 2817POSM   C3A33058  24.767   8.678  11.406  0.3678  0.0456 -0.0835
 2817POSM   C1B33059  25.436   7.919  10.847 -0.0392 -0.0536 -0.1111
 2817POSM   D2B33060  25.156   7.821  11.206  0.0603  0.3109 -0.3826
 2817POSM   C3B33061  24.743   7.698  11.078  0.1968  0.0564 -0.1682
 2817POSM   C4B33062  24.365   7.925  11.100 -0.0325 -0.0844 -0.2344
 2818DOPC   NC333063  28.791  11.184  10.931 -0.1010  0.1699 -0.2435
 2818DOPC   PO433064  28.902  11.587  10.909  0.2822  0.1466  0.1386
 2818DOPC   GL133065  28.644  11.669  11.256  0.1770 -0.1405  0.0084
 2818DOPC   GL233066  28.569  11.858  11.114 -0.2273  0.1487  0.0972
 2818DOPC   C1A33067  28.755  11.670  11.692 -0.0177 -0.2855 -0.0189
 2818DOPC   D2A33068  28.539  11.592  12.067  0.1643 -0.0540  0.0120
 2818DOPC   C3A33069  28.718  11.270  12.329 -0.3242 -0.0165  0.1177
 2818DOPC   C4A33070  28.909  11.117  12.714  0.1349  0.1195  0.1505
 2818DOPC   C1B33071  28.255  11.684  11.435 -0.0877 -0.1321  0.2350
 2818DOPC   D2B33072  28.116  11.343  11.703 -0.0511 -0.1319 -0.3855
 2818DOPC   C3B33073  27.964  11.332  12.178  0.0835  0.1473  0.0696
 2818DOPC   C4B33074  27.742  11.340  12.561 -0.1054  0.2147  0.0002
 2819DOPC   NC333075  33.303   5.853   9.789  0.1456 -0.2608  0.0444
 2819DOPC   PO433076  33.137   6.120  10.008  0.1331 -0.0547 -0.0443
 2819DOPC   GL133077  33.166   5.832  10.272 -0.0684  0.2836 -0.0791
 2819DOPC   GL233078  33.051   5.601  10.191 -0.4870 -0.0242  0.0457
 2819DOPC   C1A33079  33.130   5.893  10.738 -0.0730  0.2680 -0.0469
 2819DOPC   D2A33080  33.087   5.648  11.088  0.2902 -0.1596 -0.2785
 2819DOPC   C3A33081  32.911   5.287  10.874 -0.1463 -0.0297 -0.0894
 2819DOPC   C4A33082  32.784   5.133  10.419  0.0537  0.0287  0.0470
 2819DOPC   C1B33083  32.723   5.599  10.555 -0.1723 -0.1782  0.1075
 2819DOPC   D2B33084  32.492   5.714  10.946 -0.1190  0.0682  0.0400
 2819DOPC   C3B33085  32.636   5.468  11.325 -0.3551  0.2390  0.0013
 2819DOPC   C4B33086  32.796   4.993  11.356 -0.2075 -0.0044  0.0894
 2820DOPC   NC333087  25.342   0.331  10.485 -0.0528 -0.0330  0.0097
 2820DOPC   PO433088  25.349   0.656  10.311 -0.0616  0.1460  0.0008
 2820DOPC   GL133089  25.542   0.728  10.708 -0.4453 -0.0424  0.0638
 2820DOPC   GL233090  25.739   0.971  10.683  0.0940  0.0384  0.1571
 2820DOPC   C1A33091  25.720   0.427  11.009  0.1855 -0.0389 -0.1566
 2820DOPC   D2A33092  25.641   0.022  11.262  0.0660 -0.4050 -0.1123
 2820DOPC   C3A33093  25.279   0.090  11.550  0.2457  0.1959 -0.2041
 2820DOPC   C4A33094  25.383   0.337  11.893 -0.1159  0.0272 -0.1005
 2820DOPC   C1B33095  25.760   0.918  11.127 -0.1081 -0.3417 -0.0589
 2820DOPC   D2B33096  26.009   1.070  11.423  0.0019  0.1338  0.0840
 2820DOPC   C3B33097  26.023   1.265  11.823  0.0937 -0.2857  0.0838
 2820DOPC   C4B33098  26.057   1.490  12.251 -0.0080  0.3860 -0.2524
 2821POSM   NC333099  33.595  11.040  10.312  0.2172 -0.0192  0.1690
 2821POSM   PO433100  33.200  10.947  10.428 -0.1036  0.3770 -0.2952
 2821POSM   AM133101  33.363  10.859  10.717  0.0267 -0.0873  0.0029
 2821POSM   AM233102  33.550  10.641  10.784 -0.2625  0.0294 -0.0790
 2821POSM   T1A33103  33.240  10.636  11.169 -0.1579  0.0255  0.0897
 2821POSM   C2A33104  32.939  10.310  11.377  0.1016  0.0081  0.0846
 2821POSM   C3A33105  32.556  10.056  11.375 -0.0511 -0.4609 -0.0060
 2821POSM   C1B33106  33.732  10.600  11.058 -0.2968  0.2575 -0.4079
 2821POSM   D2B33107  33.776  10.564  11.529 -0.2423 -0.1727  0.2625
 2821POSM   C3B33108  33.448  10.837  11.731 -0.1576 -0.1401 -0.0206
 2821POSM   C4B33109  32.985  10.900  11.624 -0.0972  0.4307 -0.2672
 2822POSM   NC333110  27.296   4.383   9.815 -0.0700  0.0726 -0.0149
 2822POSM   PO433111  27.446   3.997   9.879  0.0181 -0.1545  0.1233
 2822POSM   AM133112  27.454   3.946  10.218 -0.3423  0.1497  0.2514
 2822POSM   AM233113  27.580   3.745  10.405 -0.0815 -0.1257  0.0102
 2822POSM   T1A33114  27.304   4.109  10.634 -0.0388 -0.0051 -0.0977
 2822POSM   C2A33115  27.016   4.234  10.989  0.3517 -0.1603 -0.1453
 2822POSM   C3A33116  26.970   4.590  11.351  0.3516  0.2689 -0.0443
 2822POSM   C1B33117  27.632   3.657  10.725 -0.0750  0.1252  0.2805
 2822POSM   D2B33118  27.588   3.604  11.185  0.2205 -0.0864  0.0186
 2822POSM   C3B33119  27.232   3.756  11.398  0.0021 -0.2805  0.1212
 2822POSM   C4B33120  26.999   4.091  11.685  0.0578  0.0529  0.0026
 2823DOPE   NH333121  31.334   6.442  10.028 -0.2209 -0.0655 -0.0408
 2823DOPE   PO433122  31.306   6.541  10.320 -0.2267  0.0027 -0.4311
 2823DOPE   GL133123  31.195   6.665  10.669  0.0556  0.0873 -0.0380
 2823DOPE   GL233124  31.272   6.868  10.753 -0.1855 -0.0950  0.2987
 2823DOPE   C1A33125  31.183   6.349  11.047 -0.1007  0.0485  0.2136
 2823DOPE   D2A33126  31.139   6.152  11.508 -0.1282 -0.2005  0.0258
 2823DOPE   C3A33127  31.133   6.505  11.766 -0.0265  0.4431 -0.3604
 2823DOPE   C4A33128  30.850   6.646  12.019  0.1192  0.0277 -0.2668
 2823DOPE   C1B33129  31.092   6.944  11.160  0.0952  0.0270  0.2345
 2823DOPE   D2B33130  30.929   7.115  11.543  0.0946 -0.0713  0.0934
 2823DOPE   C3B33131  30.590   6.822  11.675 -0.0770 -0.2457  0.0480
 2823DOPE   C4B33132  30.400   6.596  12.022  0.4258  0.4745 -0.0736
 2824DOPS   CNO33133  34.312   1.057   9.676 -0.2503 -0.2690  0.1627
 2824DOPS   PO433134  33.955   1.180   9.742  0.3433  0.1129 -0.1954
 2824DOPS   GL133135  34.003   0.828  10.078 -0.0153 -0.4013  0.0837
 2824DOPS   GL233136  33.916   0.540  10.012 -0.0637  0.1277 -0.0041
 2824DOPS   C1A33137  34.002   0.902  10.531  0.0566  0.0783  0.1667
 2824DOPS   D2A33138  34.244   0.840  10.938 -0.1694 -0.0764  0.2332
 2824DOPS   C3A33139  34.380   0.488  11.233 -0.5605 -0.1256 -0.2462
 2824DOPS   C4A33140  34.449   0.030  11.219  0.1520 -0.2282 -0.0653
 2824DOPS   C1B33141  34.140   0.388  10.396  0.0339 -0.0891 -0.0965
 2824DOPS   D2B33142  34.153   0.237  10.819 -0.1190 -0.1586 -0.1065
 2824DOPS   C3B33143  33.814   0.362  11.051 -0.2649  0.0828 -0.2271
 2824DOPS   C4B33144  33.502   0.090  11.266 -0.2478  0.2984 -0.3480
 2825DOPE   NH333145   3.109   7.574  10.217  0.2534  0.0475 -0.2263
 2825DOPE   PO433146   3.393   7.423  10.269  0.0733 -0.1704 -0.2359
 2825DOPE   GL133147   3.328   7.467  10.643 -0.0475 -0.3821 -0.0462
 2825DOPE   GL233148   3.087   7.343  10.778  0.1849 -0.0687 -0.2678
 2825DOPE   C1A33149   3.551   7.317  11.042  0.3838  0.1690 -0.0406
 2825DOPE   D2A33150   3.375   7.227  11.449  0.0698 -0.3192 -0.0746
 2825DOPE   C3A33151   3.426   7.058  11.862 -0.1653  0.0581  0.0384
 2825DOPE   C4A33152   3.292   7.265  12.277 -0.0043 -0.0790 -0.1594
 2825DOPE   C1B33153   3.011   7.520  11.211  0.2092 -0.0285 -0.1291
 2825DOPE   D2B33154   2.780   7.720  11.585 -0.0125  0.0833 -0.0154
 2825DOPE   C3B33155   2.365   7.543  11.709 -0.0966  0.0185 -0.1527
 2825DOPE   C4B33156   1.850   7.493  11.704 -0.1956 -0.1192 -0.2536
 2826DOPC   NC333157  24.606   5.194  10.340  0.0679 -0.0214 -0.2139
 2826DOPC   PO433158  24.301   4.939  10.384  0.0541  0.0449  0.1866
 2826DOPC   GL133159  24.539   5.064  10.794 -0.0193 -0.2968 -0.0181
 2826DOPC   GL233160  24.492   5.317  10.802  0.1792  0.0075  0.1657
 2826DOPC   C1A33161  24.591   4.751  11.139  0.1177  0.1134 -0.2781
 2826DOPC   D2A33162  24.264   4.560  11.471 -0.1923 -0.0171 -0.0677
 2826DOPC   C3A33163  24.436   4.134  11.705  0.0096  0.3517 -0.0749
 2826DOPC   C4A33164  24.507   3.675  11.731 -0.1109 -0.0117 -0.0352
 2826DOPC   C1B33165  24.621   5.259  11.254  0.2881 -0.0688 -0.1950
 2826DOPC   D2B33166  24.695   5.607  11.583 -0.1149  0.1782 -0.2024
 2826DOPC   C3B33167  24.486   5.427  11.941 -0.0721  0.1116  0.0075
 2826DOPC   C4B33168  24.167   5.165  12.098 -0.1857  0.2883  0.2784
 2827DOPC   NC333169  29.263   2.726   9.960 -0.2651 -0.1982  0.4601
 2827DOPC   PO433170  29.342   2.508  10.254 -0.3009  0.1864  0.3129
 2827DOPC   GL133171  29.409   2.298  10.628  0.1698 -0.3783 -0.0448
 2827DOPC   GL233172  29.724   2.259  10.552 -0.1931 -0.2133 -0.1451
 2827DOPC   C1A33173  29.075   2.303  10.959 -0.1977 -0.0538 -0.3243
 2827DOPC   D2A33174  28.837   2.162  11.286  0.0415  0.1772 -0.0384
 2827DOPC   C3A33175  28.408   2.239  11.334  0.3253  0.1035 -0.2165
 2827DOPC   C4A33176  28.143   2.266  10.947  0.1863 -0.0332  0.1194
 2827DOPC   C1B33177  29.999   2.287  10.986  0.0347  0.2698  0.2197
 2827DOPC   D2B33178  30.431   2.312  11.102  0.1357  0.1102 -0.1143
 2827DOPC   C3B33179  30.688   1.913  11.058  0.1003 -0.0866 -0.1604
 2827DOPC   C4B33180  30.753   1.563  11.372  0.0872 -0.1167  0.0627
 2828POSM   NC333181   0.227   5.701  10.158  0.0607  0.2077  0.3008
 2828POSM   PO433182   0.328   5.425  10.373  0.5307 -0.3419 -0.0350
 2828POSM   AM133183   0.457   5.347  10.658  0.0418 -0.1968  0.2558
 2828POSM   AM233184   0.676   5.198  10.802  0.1755  0.2043 -0.4404
 2828POSM   T1A33185   0.378   5.297  11.140 -0.1003 -0.2658  0.1243
 2828POSM   C2A33186   0.152   5.166  11.515 -0.0941 -0.2073  0.1244
 2828POSM   C3A33187  -0.099   4.969  11.830  0.0087  0.0105 -0.1050
 2828POSM   C1B33188   0.865   5.052  11.039 -0.0135  0.3349  0.2800
 2828POSM   D2B33189   0.937   5.044  11.437  0.0506 -0.1204 -0.0599
 2828POSM   C3B33190   0.739   5.456  11.477  0.0270 -0.0179  0.4415
 2828POSM   C4B33191   0.292   5.637  11.496 -0.2157 -0.1176 -0.0913
 2829POSM   NC333192  21.689   9.869  10.214  0.0561 -0.2002  0.1932
 2829POSM   PO433193  21.881  10.182  10.201  0.2508  0.1832  0.2496
 2829POSM   AM133194  21.894  10.170  10.504 -0.4427  0.0049  0.0211
 2829POSM   AM233195  21.854  10.271  10.756  0.0286 -0.0147 -0.2243
 2829POSM   T1A33196  22.128   9.887  10.881 -0.3035 -0.0743  0.0699
 2829POSM   C2A33197  22.405   9.820  11.204  0.2668  0.0112 -0.1571
 2829POSM   C3A33198  22.857   9.789  11.342  0.0642  0.2317  0.4211
 2829POSM   C1B33199  21.996  10.303  11.106 -0.0754 -0.2006 -0.3263
 2829POSM   D2B33200  22.269  10.246  11.474  0.1430  0.0040  0.4181
 2829POSM   C3B33201  22.524   9.923  11.687  0.3618  0.0627 -0.2724
 2829POSM   C4B33202  22.581   9.529  11.892  0.0634 -0.0664  0.1557
 2830DOPS   CNO33203  33.263   2.787  10.094  0.1414  0.0861  0.1265
 2830DOPS   PO433204  33.590   2.903  10.004  0.1719 -0.3975  0.0050
 2830DOPS   GL133205  33.638   3.063  10.434  0.2427 -0.1005 -0.1216
 2830DOPS   GL233206  33.453   3.122  10.701  0.0266 -0.4310  0.3328
 2830DOPS   C1A33207  33.984   3.192  10.738 -0.0530 -0.1339  0.0565
 2830DOPS   D2A33208  34.120   3.012  11.162 -0.0950 -0.0273 -0.1574
 2830DOPS   C3A33209  34.208   2.847  11.572 -0.1582  0.0967  0.0413
 2830DOPS   C4A33210  34.438   2.456  11.699 -0.2241 -0.0906 -0.0823
 2830DOPS   C1B33211  33.123   3.142  11.050  0.3900  0.0177 -0.0123
 2830DOPS   D2B33212  32.838   3.029  11.416  0.1795 -0.1297 -0.3318
 2830DOPS   C3B33213  33.020   2.771  11.786  0.2719  0.0752 -0.1502
 2830DOPS   C4B33214  33.302   2.433  11.708 -0.0425  0.3958  0.0405
 2831POSM   NC333215  22.518  34.624  10.529  0.1682  0.2215 -0.2280
 2831POSM   PO433216  22.637  34.274  10.407  0.0675 -0.0012 -0.0117
 2831POSM   AM133217  22.500  34.216  10.716 -0.0618 -0.0339  0.0168
 2831POSM   AM233218  22.549  34.269  11.025  0.5939 -0.0659 -0.1415
 2831POSM   T1A33219  22.071  34.092  10.996 -0.0096 -0.0767 -0.0499
 2831POSM   C2A33220  21.960  34.096  11.462  0.1299 -0.0263 -0.1621
 2831POSM   C3A33221  21.924  34.101  11.898  0.0377  0.0830  0.2081
 2831POSM   C1B33222  22.417  34.207  11.357 -0.0672  0.0299 -0.1803
 2831POSM   D2B33223  22.380  33.856  11.687  0.1669 -0.1280 -0.1276
 2831POSM   C3B33224  22.359  33.426  11.607  0.0661  0.0106 -0.0725
 2831POSM   C4B33225  22.607  33.085  11.841  0.0623  0.1560 -0.2478
 2832DOPE   NH333226  31.596   9.858  10.679  0.0650 -0.0629 -0.1038
 2832DOPE   PO433227  31.310  10.069  10.734 -0.1527 -0.0793  0.0317
 2832DOPE   GL133228  31.408  10.092  11.153 -0.1572  0.2237 -0.2211
 2832DOPE   GL233229  31.498   9.762  11.218 -0.1527 -0.1446  0.3865
 2832DOPE   C1A33230  31.317  10.149  11.584 -0.2910  0.0357 -0.0575
 2832DOPE   D2A33231  31.285  10.262  12.068  0.1345 -0.0674  0.0275
 2832DOPE   C3A33232  31.484  10.209  12.421 -0.0770  0.1283 -0.2833
 2832DOPE   C4A33233  31.708  10.096  12.806 -0.2375 -0.3836  0.0915
 2832DOPE   C1B33234  31.704   9.646  11.621  0.1913  0.0761 -0.0820
 2832DOPE   D2B33235  31.542   9.551  12.043 -0.0699 -0.1354 -0.0918
 2832DOPE   C3B33236  31.791   9.664  12.451 -0.2302  0.2051 -0.0557
 2832DOPE   C4B33237  31.990   9.579  12.834 -0.0715 -0.0180 -0.2853
 2833DOPE   NH333238  29.868   4.072  10.374  0.3816 -0.0261  0.1193
 2833DOPE   PO433239  29.713   4.299  10.435  0.3455 -0.0112  0.0283
 2833DOPE   GL133240  29.694   4.336  10.819  0.4270  0.0616  0.0993
 2833DOPE   GL233241  30.006   4.316  10.879  0.4373  0.2464  0.1536
 2833DOPE   C1A33242  29.476   4.161  11.157  0.1286  0.3022 -0.3606
 2833DOPE   D2A33243  29.175   3.814  11.334 -0.1655  0.0124  0.0827
 2833DOPE   C3A33244  28.758   3.712  11.379 -0.0587  0.0818  0.0989
 2833DOPE   C4A33245  28.368   3.566  11.633  0.0385 -0.1264 -0.2903
 2833DOPE   C1B33246  30.069   4.265  11.344  0.2350 -0.0656  0.0142
 2833DOPE   D2B33247  29.876   4.271  11.796 -0.1369  0.0434  0.1084
 2833DOPE   C3B33248  29.956   3.960  12.118 -0.0710  0.2408  0.1376
 2833DOPE   C4B33249  29.801   3.582  12.360  0.0394 -0.0800  0.0220
 2834DOPE   NH333250  26.283   0.868  10.410  0.1484 -0.3211  0.0657
 2834DOPE   PO433251  26.639   0.870  10.338  0.0891 -0.0614  0.0131
 2834DOPE   GL133252  26.644   0.712  10.654 -0.1651  0.0574 -0.2590
 2834DOPE   GL233253  26.691   0.378  10.848 -0.3053  0.0362  0.3152
 2834DOPE   C1A33254  27.023   0.897  10.877 -0.0475 -0.1362  0.2674
 2834DOPE   D2A33255  27.047   1.089  11.282 -0.0450  0.3865 -0.2666
 2834DOPE   C3A33256  26.746   1.397  11.157 -0.0228  0.0927  0.1730
 2834DOPE   C4A33257  26.784   1.666  10.796  0.0974 -0.1608  0.0509
 2834DOPE   C1B33258  26.825   0.082  11.257  0.1961  0.1683  0.0392
 2834DOPE   D2B33259  26.749  -0.206  11.610 -0.1733 -0.0905  0.1311
 2834DOPE   C3B33260  26.649  -0.135  12.042 -0.0969  0.0863  0.1625
 2834DOPE   C4B33261  26.581   0.274  12.247 -0.0849 -0.1324  0.1826
 2835DOPS   CNO33262  27.124   0.141  10.151  0.3228 -0.0756 -0.1749
 2835DOPS   PO433263  27.389   0.243  10.403  0.1450  0.0181 -0.1080
 2835DOPS   GL133264  27.430   0.377  10.724 -0.1362 -0.3338  0.4400
 2835DOPS   GL233265  27.397   0.648  10.797  0.1547 -0.2003  0.1157
 2835DOPS   C1A33266  27.209   0.288  11.109  0.1312  0.0624 -0.2653
 2835DOPS   D2A33267  26.970   0.605  11.401  0.1597 -0.1911  0.0735
 2835DOPS   C3A33268  27.253   0.714  11.776 -0.1567 -0.0740 -0.2414
 2835DOPS   C4A33269  27.533   0.864  12.110  0.0950 -0.2265  0.0358
 2835DOPS   C1B33270  27.388   0.794  11.213 -0.2074  0.0253 -0.0493
 2835DOPS   D2B33271  27.673   0.923  11.602  0.0453 -0.3460 -0.1849
 2835DOPS   C3B33272  27.823   1.212  11.968  0.0284 -0.0090  0.1465
 2835DOPS   C4B33273  28.158   1.350  12.252  0.0087  0.0549  0.0035
 2836POSM   NC333274  29.975   6.892  10.085 -0.1408 -0.0439 -0.1079
 2836POSM   PO433275  29.604   6.879  10.067  0.0005  0.1884 -0.0827
 2836POSM   AM133276  29.600   6.826  10.399  0.1255  0.2200  0.1458
 2836POSM   AM233277  29.816   6.798  10.566  0.4669  0.0494 -0.1305
 2836POSM   T1A33278  29.396   6.984  10.798  0.2577  0.0257 -0.0680
 2836POSM   C2A33279  29.211   7.093  11.204 -0.0497  0.1604  0.0176
 2836POSM   C3A33280  29.209   6.956  11.663 -0.0732  0.1178 -0.3809
 2836POSM   C1B33281  29.847   6.674  10.870  0.2086 -0.2119 -0.0883
 2836POSM   D2B33282  29.863   6.459  11.268  0.1590 -0.0469 -0.1581
 2836POSM   C3B33283  30.192   6.776  11.394 -0.0437 -0.1224  0.1523
 2836POSM   C4B33284  30.554   6.973  11.203  0.0670 -0.0181  0.3651
 2837POSM   NC333285  34.025   3.052  10.195 -0.1343  0.3765 -0.2775
 2837POSM   PO433286  34.343   3.234  10.093  0.0191 -0.0580  0.1344
 2837POSM   AM133287  34.402   3.232  10.432  0.0131  0.1264 -0.1411
 2837POSM   AM233288  34.533   3.120  10.608 -0.0987 -0.0605 -0.1238
 2837POSM   T1A33289  34.321   3.513  10.856 -0.2041  0.0860  0.0454
 2837POSM   C2A33290  34.159   3.493  11.265 -0.2223  0.1752 -0.2021
 2837POSM   C3A33291  34.234   3.610  11.658 -0.3927 -0.2011 -0.1630
 2837POSM   C1B33292  34.622   3.145  10.925  0.1207  0.1049  0.2391
 2837POSM   D2B33293  34.640   3.298  11.356 -0.0587  0.1262 -0.0935
 2837POSM   C3B33294  35.052   3.492  11.487 -0.1465  0.0015  0.1320
 2837POSM   C4B33295  35.263   3.818  11.283 -0.0053  0.0326 -0.1074
 2838DOPE   NH333296  34.360   5.036   9.737 -0.0705  0.0749  0.2992
 2838DOPE   PO433297  34.241   5.289   9.846 -0.0920 -0.4234 -0.2217
 2838DOPE   GL133298  34.014   5.373  10.348 -0.0443 -0.1696  0.0654
 2838DOPE   GL233299  34.242   5.241  10.552 -0.2511 -0.0660 -0.4096
 2838DOPE   C1A33300  33.950   5.685  10.687 -0.0568  0.0284 -0.0661
 2838DOPE   D2A33301  33.659   5.920  10.882  0.0151 -0.1894 -0.0814
 2838DOPE   C3A33302  33.536   5.882  11.337 -0.0864  0.1004  0.1108
 2838DOPE   C4A33303  33.601   5.669  11.734  0.0250  0.1285 -0.3306
 2838DOPE   C1B33304  34.404   5.590  10.812 -0.0339  0.6063  0.2066
 2838DOPE   D2B33305  34.583   5.503  11.255 -0.0217 -0.1931 -0.1506
 2838DOPE   C3B33306  34.432   5.507  11.669  0.0667  0.0063 -0.0040
 2838DOPE   C4B33307  34.439   5.381  12.149  0.2475 -0.0851 -0.4033
 2839DOPS   CNO33308  25.180  11.308   9.539  0.1851 -0.0230  0.0680
 2839DOPS   PO433309  24.936  11.347   9.799  0.0643 -0.3183 -0.2537
 2839DOPS   GL133310  24.952  11.425  10.233 -0.0180  0.0134 -0.3624
 2839DOPS   GL233311  25.025  11.596  10.403  0.1631  0.0293  0.0554
 2839DOPS   C1A33312  24.861  11.173  10.616  0.2212 -0.0879  0.2210
 2839DOPS   D2A33313  24.912  11.133  11.066  0.1277 -0.1508  0.2457
 2839DOPS   C3A33314  25.207  10.832  11.177  0.0075 -0.0510 -0.1265
 2839DOPS   C4A33315  25.468  10.866  11.528 -0.0043 -0.1360 -0.1383
 2839DOPS   C1B33316  25.304  11.422  10.783 -0.3139  0.1066  0.1846
 2839DOPS   D2B33317  25.761  11.563  10.922 -0.0039  0.1442 -0.0396
 2839DOPS   C3B33318  25.808  11.409  11.381 -0.0891  0.1424 -0.1479
 2839DOPS   C4B33319  25.832  11.284  11.834  0.0846  0.3392  0.1313
 2840DOPE   NH333320  34.099   7.717   9.962  0.1634 -0.0557 -0.0352
 2840DOPE   PO433321  34.003   7.614  10.251 -0.1312 -0.0129  0.2450
 2840DOPE   GL133322  34.001   7.673  10.641 -0.1152 -0.1643  0.1543
 2840DOPE   GL233323  34.220   7.834  10.717  0.1093 -0.0767  0.1290
 2840DOPE   C1A33324  34.000   7.585  11.106  0.1004 -0.2222 -0.0006
 2840DOPE   D2A33325  34.166   7.651  11.510  0.1821  0.2247 -0.1864
 2840DOPE   C3A33326  33.875   7.551  11.776  0.0131 -0.2843  0.0164
 2840DOPE   C4A33327  33.566   7.475  12.127 -0.0359 -0.2032  0.0004
 2840DOPE   C1B33328  34.434   7.898  11.112  0.0091 -0.0200  0.4446
 2840DOPE   D2B33329  34.682   8.301  11.024 -0.3906  0.1386 -0.2055
 2840DOPE   C3B33330  34.624   8.552  11.389  0.0331  0.0405 -0.4326
 2840DOPE   C4B33331  34.445   8.815  11.636 -0.0317 -0.0729  0.1529
 2841POSM   NC333332  23.034   2.443  10.362 -0.1479 -0.0625 -0.1412
 2841POSM   PO433333  23.324   2.635  10.153 -0.0094  0.3867 -0.0504
 2841POSM   AM133334  23.341   2.853  10.372 -0.0042 -0.2392  0.1032
 2841POSM   AM233335  23.143   2.883  10.581 -0.1828 -0.1718  0.1035
 2841POSM   T1A33336  23.601   3.066  10.729  0.0455  0.0115 -0.1275
 2841POSM   C2A33337  23.827   2.898  11.080 -0.0800 -0.2660  0.0619
 2841POSM   C3A33338  24.079   3.057  11.501 -0.2438 -0.3055 -0.1246
 2841POSM   C1B33339  23.129   2.930  10.911 -0.1168  0.1717  0.0798
 2841POSM   D2B33340  23.106   2.994  11.393 -0.1755  0.0827 -0.0217
 2841POSM   C3B33341  23.361   2.886  11.770  0.0065 -0.0805 -0.1828
 2841POSM   C4B33342  23.262   2.917  12.281 -0.2156  0.0802 -0.1380
 2842POSM   NC333343  25.423  10.314   9.926 -0.0584  0.1397 -0.0118
 2842POSM   PO433344  25.258  10.144  10.231 -0.0449  0.1332  0.0431
 2842POSM   AM133345  25.152  10.326  10.465  0.2567 -0.0411 -0.0637
 2842POSM   AM233346  25.295  10.564  10.610 -0.2907 -0.2730  0.0203
 2842POSM   T1A33347  24.785  10.513  10.777 -0.1119  0.1201 -0.1388
 2842POSM   C2A33348  24.747  10.683  11.241  0.0315  0.0588 -0.1221
 2842POSM   C3A33349  24.819  11.035  11.539  0.0133 -0.2392 -0.0658
 2842POSM   C1B33350  25.322  10.321  10.891  0.0031 -0.1485 -0.0642
 2842POSM   D2B33351  25.275   9.945  11.113  0.0032 -0.1145 -0.0381
 2842POSM   C3B33352  25.171   9.969  11.519 -0.2740 -0.2450  0.3407
 2842POSM   C4B33353  25.091  10.058  11.958  0.2992 -0.1565  0.1324
 2843DOPC   NC333354  28.278   9.141  10.197 -0.0322  0.3999 -0.0452
 2843DOPC   PO433355  28.090   8.885  10.443 -0.0954  0.0061 -0.0726
 2843DOPC   GL133356  27.886   9.012  10.758 -0.2097 -0.3858 -0.3250
 2843DOPC   GL233357  27.980   8.867  11.019  0.1113 -0.1453 -0.0205
 2843DOPC   C1A33358  27.680   9.277  11.145 -0.4644 -0.1499 -0.2723
 2843DOPC   D2A33359  27.747   9.576  11.567  0.3226 -0.1023  0.0440
 2843DOPC   C3A33360  28.156   9.484  11.846 -0.0206 -0.1742 -0.1884
 2843DOPC   C4A33361  28.435   9.388  12.156  0.1727 -0.1116  0.4084
 2843DOPC   C1B33362  28.104   8.706  11.447 -0.0210  0.1028 -0.3384
 2843DOPC   D2B33363  28.317   8.957  11.793 -0.0983 -0.0597  0.0391
 2843DOPC   C3B33364  28.206   8.917  12.224 -0.3117 -0.2035 -0.1627
 2843DOPC   C4B33365  28.365   9.107  12.594 -0.0907 -0.3547 -0.1108
 2844POSM   NC333366  24.587   9.418   9.996 -0.1746 -0.1451 -0.5475
 2844POSM   PO433367  24.193   9.472   9.932 -0.0889 -0.0639 -0.1657
 2844POSM   AM133368  24.187   9.614  10.230 -0.6726 -0.3718 -0.0190
 2844POSM   AM233369  24.083   9.808  10.422 -0.0367 -0.0555 -0.0783
 2844POSM   T1A33370  24.134   9.493  10.728 -0.2076  0.1627 -0.2105
 2844POSM   C2A33371  24.267   9.415  11.188  0.0612 -0.0655 -0.1067
 2844POSM   C3A33372  24.387   8.996  11.336 -0.4216  0.1016 -0.0167
 2844POSM   C1B33373  23.979   9.972  10.719 -0.1057 -0.0185  0.0695
 2844POSM   D2B33374  23.887  10.214  11.119 -0.1758  0.0791 -0.1062
 2844POSM   C3B33375  23.768  10.065  11.536  0.0709 -0.0607  0.1289
 2844POSM   C4B33376  23.446   9.835  11.805 -0.1779  0.1310 -0.0253
 2845DOPE   NH333377  28.616   3.593  10.396  0.0306  0.0629 -0.1893
 2845DOPE   PO433378  28.482   3.867  10.205 -0.1405 -0.1525  0.0016
 2845DOPE   GL133379  28.479   4.011  10.573 -0.0948  0.0777 -0.1799
 2845DOPE   GL233380  28.398   3.817  10.771 -0.2011  0.1042  0.0901
 2845DOPE   C1A33381  28.476   4.236  11.007 -0.2388  0.2804  0.1638
 2845DOPE   D2A33382  28.521   4.303  11.463 -0.0444  0.1143 -0.0429
 2845DOPE   C3A33383  28.572   3.986  11.848  0.0736  0.1513  0.1967
 2845DOPE   C4A33384  28.198   3.862  12.139  0.1661 -0.3028 -0.0369
 2845DOPE   C1B33385  28.037   4.024  10.862 -0.1051  0.1100  0.4113
 2845DOPE   D2B33386  27.612   4.061  11.027 -0.0160 -0.0149 -0.0067
 2845DOPE   C3B33387  27.621   4.043  11.511 -0.3406 -0.2897 -0.1336
 2845DOPE   C4B33388  27.923   3.753  11.739 -0.3804  0.0040  0.2165
 2846DOPS   CNO33389  24.513   8.385   9.950  0.2209  0.2166 -0.0112
 2846DOPS   PO433390  24.858   8.207   9.840  0.1306 -0.0058 -0.2821
 2846DOPS   GL133391  24.897   7.837  10.037 -0.0426  0.2724  0.1249
 2846DOPS   GL233392  24.993   7.808  10.300  0.4268 -0.0242  0.4145
 2846DOPS   C1A33393  24.558   7.565  10.129 -0.1880  0.0700 -0.1898
 2846DOPS   D2A33394  24.275   7.711  10.474  0.2268 -0.0289  0.0613
 2846DOPS   C3A33395  24.533   8.036  10.658  0.2709 -0.0622 -0.0868
 2846DOPS   C4A33396  24.950   8.025  10.758  0.2778 -0.2496  0.0518
 2846DOPS   C1B33397  24.745   7.510  10.571 -0.1217  0.0660 -0.1501
 2846DOPS   D2B33398  24.826   7.215  10.955 -0.0800  0.2862  0.0307
 2846DOPS   C3B33399  24.687   7.243  11.346  0.1010  0.2115  0.0937
 2846DOPS   C4B33400  24.433   7.224  11.741  0.1532  0.1278 -0.2285
 2847DOPC   NC333401  28.337   9.701  10.582 -0.2844  0.1767  0.0103
 2847DOPC   PO433402  28.290  10.096  10.552  0.0308  0.0828 -0.1533
 2847DOPC   GL133403  28.085  10.152  10.903  0.0363  0.4040 -0.0282
 2847DOPC   GL233404  28.274   9.930  11.036 -0.1904 -0.5279  0.1028
 2847DOPC   C1A33405  27.950  10.410  11.303  0.2106 -0.0463  0.0042
 2847DOPC   D2A33406  27.575  10.573  11.457 -0.0784  0.2462 -0.1516
 2847DOPC   C3A33407  27.331  10.775  11.807  0.1157  0.0041 -0.3282
 2847DOPC   C4A33408  26.951  10.634  12.028 -0.3290  0.1717  0.0532
 2847DOPC   C1B33409  28.185   9.687  11.392  0.0420 -0.2747  0.1248
 2847DOPC   D2B33410  28.083   9.219  11.419  0.1215 -0.1365  0.2686
 2847DOPC   C3B33411  27.734   9.002  11.640 -0.1470 -0.1982  0.2155
 2847DOPC   C4B33412  27.328   9.215  11.612  0.0725  0.4254 -0.3888
 2848DOPC   NC333413   2.006   7.659   9.797  0.0123 -0.1182 -0.1526
 2848DOPC   PO433414   2.258   7.573  10.045 -0.0816 -0.1800  0.0084
 2848DOPC   GL133415   2.177   7.423  10.461 -0.1386  0.4088  0.3556
 2848DOPC   GL233416   2.258   7.116  10.530  0.0391  0.2075  0.0110
 2848DOPC   C1A33417   2.070   7.538  10.909  0.1697  0.0100  0.1409
 2848DOPC   D2A33418   2.013   7.727  11.298 -0.2331  0.1454  0.1453
 2848DOPC   C3A33419   1.532   7.824  11.299 -0.3970 -0.1974  0.1996
 2848DOPC   C4A33420   1.125   7.727  11.576  0.2356 -0.0617  0.0608
 2848DOPC   C1B33421   2.109   7.013  10.959 -0.0963 -0.1508  0.2465
 2848DOPC   D2B33422   1.958   6.643  11.185 -0.1956 -0.0602  0.1794
 2848DOPC   C3B33423   2.057   6.488  11.557 -0.1855  0.2272 -0.1697
 2848DOPC   C4B33424   2.395   6.229  11.751 -0.0968 -0.1347 -0.2633
 2849DOPC   NC333425  25.896   7.696  10.408  0.2285 -0.3672 -0.2695
 2849DOPC   PO433426  26.018   8.056  10.366 -0.0974  0.1825  0.1808
 2849DOPC   GL133427  25.875   8.093  10.759  0.2174 -0.1653 -0.1550
 2849DOPC   GL233428  25.953   7.891  10.857  0.1199 -0.0666 -0.0585
 2849DOPC   C1A33429  25.724   8.319  11.108 -0.1038 -0.4132 -0.1398
 2849DOPC   D2A33430  25.494   8.203  11.501  0.1589 -0.1199  0.1474
 2849DOPC   C3A33431  25.077   8.368  11.669  0.1682  0.3050 -0.2243
 2849DOPC   C4A33432  24.645   8.300  11.887 -0.0437 -0.0502  0.1015
 2849DOPC   C1B33433  26.164   7.989  11.263  0.2797 -0.0431  0.0277
 2849DOPC   D2B33434  26.031   8.347  11.555 -0.1238 -0.0161 -0.2279
 2849DOPC   C3B33435  26.351   8.604  11.794  0.3187 -0.1334 -0.0436
 2849DOPC   C4B33436  26.316   8.782  12.200 -0.3686 -0.1439  0.0625
 2850DOPS   CNO33437  27.980   6.736  10.262 -0.0498  0.0013 -0.1088
 2850DOPS   PO433438  28.210   6.916  10.506  0.2043 -0.1513 -0.2788
 2850DOPS   GL133439  28.256   7.135  10.891  0.0673 -0.2968 -0.1825
 2850DOPS   GL233440  28.137   7.435  10.932  0.0793  0.2144  0.0333
 2850DOPS   C1A33441  28.139   7.018  11.315 -0.0139 -0.3447  0.0230
 2850DOPS   D2A33442  27.814   6.930  11.624 -0.1070  0.2142  0.0971
 2850DOPS   C3A33443  27.397   7.057  11.739  0.1304 -0.1687  0.1794
 2850DOPS   C4A33444  27.058   7.410  11.828  0.1840  0.4430 -0.0374
 2850DOPS   C1B33445  28.231   7.511  11.374  0.0747 -0.1967  0.1286
 2850DOPS   D2B33446  27.984   7.452  11.725  0.0577 -0.0508 -0.1869
 2850DOPS   C3B33447  27.940   7.191  12.051  0.2371  0.1095 -0.2979
 2850DOPS   C4B33448  28.018   6.988  12.498  0.2314  0.0078 -0.2125
 2851POSM   NC333449  26.824   2.246  10.177  0.0940 -0.1539  0.2329
 2851POSM   PO433450  26.498   2.499  10.176 -0.3148 -0.0196  0.0545
 2851POSM   AM133451  26.449   2.509  10.519  0.1521 -0.2050  0.1969
 2851POSM   AM233452  26.274   2.491  10.753  0.1021  0.1433 -0.1683
 2851POSM   T1A33453  26.651   2.703  10.956  0.1840  0.1227 -0.2711
 2851POSM   C2A33454  26.984   2.892  11.164  0.0710 -0.1580 -0.0452
 2851POSM   C3A33455  27.377   2.704  11.262  0.2714  0.1379 -0.0077
 2851POSM   C1B33456  26.124   2.538  11.058  0.1837 -0.1131  0.4837
 2851POSM   D2B33457  26.169   2.715  11.512  0.0034  0.1722 -0.2387
 2851POSM   C3B33458  25.901   2.464  11.704  0.1486 -0.0325 -0.2426
 2851POSM   C4B33459  25.868   2.387  12.163  0.0342  0.0453 -0.0491
 2852POSM   NC333460  31.752  10.887  10.119  0.3218  0.1101 -0.0614
 2852POSM   PO433461  31.883  11.131  10.414  0.0129 -0.1282  0.0698
 2852POSM   AM133462  31.775  10.961  10.640  0.1540 -0.3191 -0.0470
 2852POSM   AM233463  31.521  11.024  10.834  0.0242 -0.0349  0.1399
 2852POSM   T1A33464  31.873  10.730  11.066  0.0276 -0.2842 -0.0398
 2852POSM   C2A33465  32.068  10.603  11.457 -0.2845 -0.0414  0.0796
 2852POSM   C3A33466  32.077  10.341  11.864 -0.0471 -0.2019 -0.0399
 2852POSM   C1B33467  31.477  10.968  11.175 -0.0020 -0.2865 -0.0195
 2852POSM   D2B33468  31.699  11.030  11.629  0.0340 -0.0301 -0.0236
 2852POSM   C3B33469  31.427  11.210  11.983  0.0240  0.1531  0.0077
 2852POSM   C4B33470  31.442  11.342  12.405  0.3566 -0.2646 -0.2267
 2853DOPE   NH333471  23.553   6.027   9.966  0.3471 -0.2221 -0.0627
 2853DOPE   PO433472  23.463   6.312  10.009 -0.0791 -0.1119  0.1125
 2853DOPE   GL133473  23.291   6.361  10.304 -0.0427 -0.0954  0.4025
 2853DOPE   GL233474  23.149   6.117  10.357 -0.0719  0.0202 -0.1380
 2853DOPE   C1A33475  23.602   6.492  10.622 -0.0868 -0.2081  0.0681
 2853DOPE   D2A33476  23.946   6.572  10.984 -0.0962 -0.0095  0.1140
 2853DOPE   C3A33477  24.037   6.201  11.277 -0.0618 -0.0156 -0.2020
 2853DOPE   C4A33478  24.257   5.968  11.586 -0.2107 -0.0630 -0.0361
 2853DOPE   C1B33479  22.899   6.106  10.769 -0.0549  0.2887  0.0165
 2853DOPE   D2B33480  22.713   6.056  11.182  0.1714  0.1383  0.1881
 2853DOPE   C3B33481  22.609   6.318  11.505  0.3612 -0.0123 -0.0633
 2853DOPE   C4B33482  22.776   6.420  11.910  0.0421  0.0684  0.0292
 2854DOPC   NC333483  25.645   1.587  10.247  0.1989  0.0220 -0.2658
 2854DOPC   PO433484  25.410   1.372  10.424  0.0458 -0.2251  0.1250
 2854DOPC   GL133485  25.577   1.399  10.761 -0.1920 -0.0650  0.1143
 2854DOPC   GL233486  25.674   1.718  10.726  0.0675 -0.2014 -0.0492
 2854DOPC   C1A33487  25.421   1.239  11.138  0.0941 -0.1590 -0.0275
 2854DOPC   D2A33488  25.387   1.091  11.510  0.1172  0.0357  0.1861
 2854DOPC   C3A33489  25.524   0.985  11.883  0.0167 -0.0013  0.4593
 2854DOPC   C4A33490  25.763   0.648  12.128 -0.0419 -0.1467  0.2689
 2854DOPC   C1B33491  25.716   2.121  10.873 -0.1402 -0.0804 -0.0934
 2854DOPC   D2B33492  25.854   2.182  11.313  0.2015 -0.1160 -0.2604
 2854DOPC   C3B33493  26.306   2.174  11.398 -0.2266  0.1215  0.1496
 2854DOPC   C4B33494  26.676   1.882  11.368  0.0967 -0.0883  0.1481
 2855POSM   NC333495  33.095  34.338   9.632  0.0621  0.0599 -0.2186
 2855POSM   PO433496  33.176  33.933   9.681  0.0554 -0.2029  0.1489
 2855POSM   AM133497  33.182  33.973  10.015 -0.5222 -0.0780  0.1945
 2855POSM   AM233498  33.383  33.819  10.160 -0.3640 -0.2723 -0.0395
 2855POSM   T1A33499  33.302  34.275  10.476  0.3976  0.0594  0.0686
 2855POSM   C2A33500  33.258  34.416  10.894  0.0299  0.0507 -0.1269
 2855POSM   C3A33501  33.124  34.216  11.294  0.0246 -0.3660 -0.1845
 2855POSM   C1B33502  33.569  33.859  10.464  0.2443 -0.1648  0.0248
 2855POSM   D2B33503  33.684  33.974  10.861 -0.0764 -0.1624 -0.0104
 2855POSM   C3B33504  33.628  33.965  11.345 -0.0523  0.1559 -0.3009
 2855POSM   C4B33505  33.901  34.121  11.686 -0.3799 -0.3780 -0.1223
 2856POSM   NC333506  28.858   7.925  10.390  0.1397  0.0824 -0.0623
 2856POSM   PO433507  29.143   8.153  10.427  0.0148 -0.3546 -0.0403
 2856POSM   AM133508  29.210   8.042  10.730  0.4039  0.0809  0.0002
 2856POSM   AM233509  29.431   7.985  10.854 -0.2995  0.2570  0.2815
 2856POSM   T1A33510  29.031   7.720  11.124 -0.0352  0.3537 -0.3027
 2856POSM   C2A33511  29.058   7.431  11.529  0.0995 -0.2230 -0.1418
 2856POSM   C3A33512  28.871   7.227  11.923  0.1572  0.0136 -0.2145
 2856POSM   C1B33513  29.474   7.885  11.168 -0.0404  0.1857  0.0680
 2856POSM   D2B33514  29.397   7.851  11.656 -0.0162  0.0136 -0.0320
 2856POSM   C3B33515  29.684   7.833  12.042 -0.3804 -0.3785 -0.0463
 2856POSM   C4B33516  29.743   8.022  12.483 -0.2610 -0.1045  0.1079
 2857DOPC   NC333517  27.348  19.831  13.697  0.3793 -0.2298  0.0945
 2857DOPC   PO433518  27.542  20.134  13.826 -0.1985  0.1005 -0.0861
 2857DOPC   GL133519  27.327  20.177  13.451  0.1183  0.1504 -0.1770
 2857DOPC   GL233520  27.429  20.472  13.439  0.4937  0.0405  0.1184
 2857DOPC   C1A33521  27.417  20.162  13.008 -0.2872 -0.1858 -0.3089
 2857DOPC   D2A33522  27.588  20.350  12.627 -0.2291  0.0661 -0.1628
 2857DOPC   C3A33523  27.921  20.703  12.522 -0.0996 -0.1144 -0.2166
 2857DOPC   C4A33524  28.155  21.123  12.528 -0.4596 -0.1284  0.1287
 2857DOPC   C1B33525  26.958  20.444  13.291 -0.2007  0.0336 -0.2950
 2857DOPC   D2B33526  26.692  20.829  13.217  0.1651  0.1992  0.1547
 2857DOPC   C3B33527  26.447  20.770  12.856 -0.1682  0.1712  0.0076
 2857DOPC   C4B33528  26.439  20.623  12.424  0.0404  0.1094  0.2727
 2858DOPC   NC333529  33.397  14.122  13.981 -0.1265 -0.0338 -0.2691
 2858DOPC   PO433530  33.355  13.984  13.623  0.1089  0.0318  0.2837
 2858DOPC   GL133531  33.209  13.907  13.314  0.0251 -0.5022  0.0611
 2858DOPC   GL233532  33.331  13.789  13.098  0.0190 -0.1279 -0.0259
 2858DOPC   C1A33533  32.814  13.777  13.135  0.0777  0.5648 -0.0231
 2858DOPC   D2A33534  32.486  13.899  12.797 -0.2737  0.3072  0.0772
 2858DOPC   C3A33535  32.272  14.221  12.521  0.0457  0.1692  0.0607
 2858DOPC   C4A33536  32.031  14.334  12.143  0.0797 -0.0146  0.1514
 2858DOPC   C1B33537  33.268  13.944  12.650 -0.1281  0.2776 -0.1306
 2858DOPC   D2B33538  33.444  13.919  12.188  0.0966  0.0597 -0.0377
 2858DOPC   C3B33539  33.792  14.013  11.961 -0.1739 -0.0436  0.2798
 2858DOPC   C4B33540  34.258  14.131  11.979 -0.1899 -0.3042 -0.0642
 2859DOPE   NH333541  31.173  24.023  13.827  0.0656  0.1244 -0.2671
 2859DOPE   PO433542  30.868  23.879  13.904  0.0900  0.1799  0.2770
 2859DOPE   GL133543  30.750  23.854  13.473 -0.0237 -0.4333 -0.0869
 2859DOPE   GL233544  30.946  23.939  13.392 -0.1841 -0.0526 -0.1811
 2859DOPE   C1A33545  30.647  23.665  13.046 -0.0808  0.0423  0.2142
 2859DOPE   D2A33546  30.668  23.373  12.693  0.0003  0.2613 -0.0559
 2859DOPE   C3A33547  30.794  23.338  12.218  0.0788 -0.0861  0.0072
 2859DOPE   C4A33548  30.922  23.536  11.800  0.1095  0.2418 -0.1437
 2859DOPE   C1B33549  31.319  24.002  13.089 -0.2188 -0.0636 -0.1918
 2859DOPE   D2B33550  31.618  23.731  12.948  0.3765 -0.3894 -0.2148
 2859DOPE   C3B33551  31.546  23.642  12.515 -0.0864  0.0742 -0.2625
 2859DOPE   C4B33552  31.512  23.916  12.168  0.2846 -0.0732  0.1472
 2860DOPE   NH333553  28.281  21.992  14.109  0.0303 -0.0756  0.1837
 2860DOPE   PO433554  28.082  21.744  14.159  0.2731 -0.0845 -0.3535
 2860DOPE   GL133555  27.988  21.763  13.745  0.0439  0.0919  0.3445
 2860DOPE   GL233556  27.761  21.922  13.665 -0.1608 -0.2277  0.0015
 2860DOPE   C1A33557  27.856  21.551  13.351 -0.0732 -0.1965 -0.1005
 2860DOPE   D2A33558  27.941  21.430  12.921 -0.2225  0.1175 -0.0612
 2860DOPE   C3A33559  27.702  21.596  12.509 -0.1687 -0.2442 -0.0082
 2860DOPE   C4A33560  27.628  21.555  12.028  0.1855  0.2207  0.2458
 2860DOPE   C1B33561  27.486  21.886  13.281 -0.1426 -0.1256 -0.5978
 2860DOPE   D2B33562  27.370  21.837  12.838  0.0816  0.0814  0.0463
 2860DOPE   C3B33563  27.350  21.926  12.369  0.0808 -0.3009  0.1890
 2860DOPE   C4B33564  27.147  21.949  11.962  0.0550  0.1023 -0.0973
 2861DOPC   NC333565  31.791  25.623  13.771  0.1206 -0.0580 -0.1058
 2861DOPC   PO433566  31.996  25.561  13.473  0.1370  0.4440 -0.3576
 2861DOPC   GL133567  31.796  25.476  13.227  0.0351  0.2617 -0.1943
 2861DOPC   GL233568  31.533  25.559  13.121  0.2327  0.0248  0.1517
 2861DOPC   C1A33569  31.915  25.310  12.826 -0.1663 -0.1235 -0.0760
 2861DOPC   D2A33570  32.130  25.109  12.478  0.0091 -0.0517  0.0306
 2861DOPC   C3A33571  31.936  24.998  12.077  0.1108  0.2472  0.1461
 2861DOPC   C4A33572  32.000  25.009  11.636 -0.1306 -0.0069 -0.0056
 2861DOPC   C1B33573  31.477  25.746  12.697 -0.2538 -0.0576 -0.3943
 2861DOPC   D2B33574  31.632  25.981  12.319 -0.0973  0.2359  0.0807
 2861DOPC   C3B33575  31.395  25.670  12.129  0.0604  0.0095  0.1759
 2861DOPC   C4B33576  31.585  25.341  11.874  0.1302 -0.1428 -0.2821
 2862DOPC   NC333577  32.771  24.470  13.254 -0.1811  0.0299 -0.0651
 2862DOPC   PO433578  33.114  24.567  13.326 -0.1265  0.1288  0.0214
 2862DOPC   GL133579  33.209  24.724  12.958  0.4283  0.2473 -0.2309
 2862DOPC   GL233580  33.492  24.580  12.947 -0.0383 -0.3961 -0.4442
 2862DOPC   C1A33581  33.311  24.884  12.546  0.3731  0.1283  0.1419
 2862DOPC   D2A33582  32.966  24.754  12.246  0.0071  0.2616 -0.2556
 2862DOPC   C3A33583  32.637  24.575  11.991  0.0299  0.2096  0.1064
 2862DOPC   C4A33584  32.312  24.315  11.868  0.1150 -0.0461 -0.0769
 2862DOPC   C1B33585  33.197  24.368  12.601 -0.0281  0.2050 -0.0585
 2862DOPC   D2B33586  32.994  23.965  12.670  0.4712 -0.4173 -0.2985
 2862DOPC   C3B33587  32.871  23.493  12.533 -0.1358 -0.0460 -0.2681
 2862DOPC   C4B33588  32.785  23.407  12.162  0.0883 -0.2342  0.4978
 2863POSM   NC333589  26.280  13.592  13.898  0.0479 -0.2620  0.2438
 2863POSM   PO433590  26.542  13.828  14.009 -0.0570 -0.0230  0.2173
 2863POSM   AM133591  26.746  13.715  13.753  0.1677  0.1903  0.2843
 2863POSM   AM233592  26.889  13.834  13.506  0.1051 -0.0843  0.1302
 2863POSM   T1A33593  26.953  13.366  13.471  0.1725  0.1229  0.0568
 2863POSM   C2A33594  26.958  12.953  13.293  0.0925 -0.0609 -0.1676
 2863POSM   C3A33595  26.631  12.592  13.273  0.0067 -0.0475 -0.0522
 2863POSM   C1B33596  27.054  13.793  13.222  0.2852 -0.0288 -0.0763
 2863POSM   D2B33597  27.299  13.939  12.910 -0.2951 -0.3174  0.2740
 2863POSM   C3B33598  26.950  13.785  12.559 -0.1493  0.0486 -0.0384
 2863POSM   C4B33599  26.694  13.453  12.438  0.0381 -0.1214  0.0293
 2864DOPS   CNO33600  32.316  23.829  14.145  0.1736 -0.0202 -0.3716
 2864DOPS   PO433601  32.470  23.652  13.869  0.3208  0.3564  0.0566
 2864DOPS   GL133602  32.707  23.578  13.467  0.1189 -0.1098  0.0771
 2864DOPS   GL233603  32.590  23.348  13.317 -0.0872 -0.0390 -0.4442
 2864DOPS   C1A33604  32.666  23.835  13.068 -0.0296  0.0002 -0.1418
 2864DOPS   D2A33605  32.470  23.756  12.676 -0.2189  0.1918  0.0318
 2864DOPS   C3A33606  32.377  23.312  12.563  0.2319  0.0092 -0.2926
 2864DOPS   C4A33607  32.297  23.092  12.128 -0.0401 -0.0772 -0.0637
 2864DOPS   C1B33608  32.279  23.477  13.052 -0.1754  0.4114 -0.0341
 2864DOPS   D2B33609  31.844  23.354  12.812 -0.0286 -0.2096 -0.0183
 2864DOPS   C3B33610  31.852  23.269  12.336 -0.1062  0.1361  0.0345
 2864DOPS   C4B33611  31.804  23.089  11.897  0.1537  0.0259  0.1065
 2865DOPC   NC333612  32.713  10.741  14.322 -0.0318 -0.0611  0.0214
 2865DOPC   PO433613  32.582  10.370  14.348 -0.0206 -0.0283 -0.0338
 2865DOPC   GL133614  32.713  10.455  13.986  0.6071  0.0100 -0.2365
 2865DOPC   GL233615  32.529  10.622  13.885 -0.5634  0.1319 -0.0588
 2865DOPC   C1A33616  32.976  10.403  13.590 -0.0710  0.0941 -0.0683
 2865DOPC   D2A33617  32.943  10.377  13.108 -0.2403 -0.0587 -0.1315
 2865DOPC   C3A33618  32.567  10.402  12.859  0.0286 -0.0020 -0.1224
 2865DOPC   C4A33619  32.447  10.731  12.607 -0.1132 -0.2667 -0.1664
 2865DOPC   C1B33620  32.538  10.431  13.425  0.2487 -0.0758  0.0854
 2865DOPC   D2B33621  32.673  10.010  13.295 -0.2675  0.0634 -0.2065
 2865DOPC   C3B33622  32.541   9.878  12.871  0.3960  0.0870 -0.2107
 2865DOPC   C4B33623  32.478   9.935  12.497  0.1435  0.0434  0.3788
 2866DOPE   NH333624  28.115  18.877  14.138 -0.1335 -0.1547 -0.3917
 2866DOPE   PO433625  28.346  19.112  14.111  0.1066 -0.1155 -0.1455
 2866DOPE   GL133626  28.315  18.977  13.683  0.5354  0.1292  0.3871
 2866DOPE   GL233627  28.004  18.843  13.639  0.2233 -0.1237 -0.0591
 2866DOPE   C1A33628  28.088  19.221  13.310 -0.3571 -0.4166 -0.2180
 2866DOPE   D2A33629  27.800  19.346  12.988 -0.2564 -0.0134 -0.0015
 2866DOPE   C3A33630  27.823  19.214  12.592 -0.1570  0.0619  0.0340
 2866DOPE   C4A33631  27.893  19.103  12.147  0.0973 -0.1828  0.3040
 2866DOPE   C1B33632  27.692  18.967  13.338 -0.0882  0.0412 -0.2739
 2866DOPE   D2B33633  27.397  18.982  12.984  0.0758  0.1433 -0.0525
 2866DOPE   C3B33634  27.508  18.692  12.646 -0.2255  0.0058 -0.0371
 2866DOPE   C4B33635  27.756  18.659  12.320 -0.0450  0.0621  0.2599
 2867POSM   NC333636  32.359  21.225  14.361 -0.3177  0.1751  0.0416
 2867POSM   PO433637  32.164  21.188  14.009  0.2665  0.2274  0.0371
 2867POSM   AM133638  32.187  21.282  13.686  0.2212 -0.1125  0.2635
 2867POSM   AM233639  32.010  21.268  13.440  0.2524  0.5064  0.0680
 2867POSM   T1A33640  32.412  21.433  13.251 -0.1839 -0.0477  0.1898
 2867POSM   C2A33641  32.400  21.605  12.787  0.0041  0.2777  0.0188
 2867POSM   C3A33642  32.207  21.594  12.359  0.1286 -0.0874  0.2074
 2867POSM   C1B33643  31.939  21.276  13.128  0.1268  0.1066  0.2476
 2867POSM   D2B33644  31.880  21.282  12.693  0.2590 -0.2541 -0.2049
 2867POSM   C3B33645  32.332  21.197  12.557  0.0692 -0.1267  0.1841
 2867POSM   C4B33646  32.568  21.021  12.205 -0.1182 -0.0469 -0.1778
 2868DOPS   CNO33647  30.989  24.828  14.111  0.0219  0.1311 -0.1895
 2868DOPS   PO433648  31.000  24.857  13.718 -0.0528 -0.1933  0.0175
 2868DOPS   GL133649  30.759  24.805  13.402  0.0585  0.1360  0.0598
 2868DOPS   GL233650  30.549  24.743  13.476  0.2238 -0.0584 -0.1086
 2868DOPS   C1A33651  30.619  24.935  12.978 -0.2805 -0.1118  0.1242
 2868DOPS   D2A33652  30.411  25.065  12.557 -0.0430  0.1201  0.0491
 2868DOPS   C3A33653  30.654  25.362  12.289  0.1175  0.2403 -0.1915
 2868DOPS   C4A33654  31.019  25.682  12.433  0.0466 -0.2560  0.2459
 2868DOPS   C1B33655  30.167  24.854  13.158 -0.1582  0.0782 -0.4042
 2868DOPS   D2B33656  29.976  25.021  12.769 -0.0655 -0.2560  0.0646
 2868DOPS   C3B33657  29.597  24.845  12.555  0.0560 -0.1217 -0.0014
 2868DOPS   C4B33658  29.270  24.719  12.211  0.0049 -0.2775  0.0571
 2869DOPC   NC333659   0.461  11.666  14.051  0.2024 -0.1110  0.4587
 2869DOPC   PO433660   0.134  11.501  13.993  0.0204 -0.2495 -0.0604
 2869DOPC   GL133661   0.083  11.478  13.699 -0.2208 -0.0423  0.3625
 2869DOPC   GL233662  -0.165  11.676  13.629  0.4319 -0.0835 -0.1220
 2869DOPC   C1A33663   0.117  11.582  13.239  0.0641 -0.0047  0.0220
 2869DOPC   D2A33664   0.185  11.485  12.787 -0.3315 -0.0581 -0.0938
 2869DOPC   C3A33665   0.484  11.240  12.555  0.0427  0.0396  0.0107
 2869DOPC   C4A33666   0.634  10.993  12.178  0.0319  0.2134  0.0594
 2869DOPC   C1B33667  -0.417  11.804  13.263 -0.1259  0.1658  0.2676
 2869DOPC   D2B33668  -0.665  11.670  12.866  0.0561  0.1713  0.0124
 2869DOPC   C3B33669  -0.988  11.417  12.676 -0.1342 -0.0118 -0.0026
 2869DOPC   C4B33670  -1.245  11.067  12.550 -0.0686  0.2499 -0.2201
 2870DOPE   NH333671  31.757  15.205  13.976 -0.0634 -0.1134  0.0414
 2870DOPE   PO433672  31.497  15.108  14.109 -0.2379 -0.0373  0.1063
 2870DOPE   GL133673  31.392  14.882  13.733  0.0079  0.1299  0.2042
 2870DOPE   GL233674  31.267  15.100  13.515 -0.0521  0.1975  0.1109
 2870DOPE   C1A33675  31.591  14.712  13.381 -0.1190  0.0315  0.0056
 2870DOPE   D2A33676  31.422  14.671  13.008  0.1423  0.0227 -0.2223
 2870DOPE   C3A33677  31.053  14.819  12.780 -0.0182  0.2310  0.0774
 2870DOPE   C4A33678  30.710  14.846  12.475 -0.2564 -0.2963  0.2618
 2870DOPE   C1B33679  31.248  15.092  13.082 -0.0450 -0.2738  0.1037
 2870DOPE   D2B33680  31.528  15.093  12.706 -0.1389 -0.2235 -0.1218
 2870DOPE   C3B33681  31.393  15.250  12.317  0.0348 -0.1245  0.2583
 2870DOPE   C4B33682  31.140  15.616  12.086  0.0612  0.0253  0.2158
 2871DOPE   NH333683  27.901  14.128  14.244  0.1968 -0.1043 -0.0961
 2871DOPE   PO433684  28.162  14.023  14.187 -0.2733 -0.0138  0.0735
 2871DOPE   GL133685  28.411  13.850  13.870  0.2379  0.1473  0.2157
 2871DOPE   GL233686  28.614  13.629  13.838  0.1413 -0.0507  0.0477
 2871DOPE   C1A33687  28.560  14.189  13.594  0.2896  0.0288  0.1492
 2871DOPE   D2A33688  28.871  14.469  13.337  0.0709  0.0149  0.0369
 2871DOPE   C3A33689  28.681  14.856  13.253 -0.2415  0.1216  0.0383
 2871DOPE   C4A33690  28.617  15.342  13.147  0.3055  0.2404 -0.1794
 2871DOPE   C1B33691  28.724  13.766  13.442  0.1262 -0.2033 -0.0287
 2871DOPE   D2B33692  28.582  14.073  13.153 -0.3372 -0.0485 -0.1271
 2871DOPE   C3B33693  28.599  13.936  12.756  0.0122  0.1441 -0.0964
 2871DOPE   C4B33694  28.287  13.826  12.477  0.0915 -0.1108 -0.1936
 2872DOPC   NC333695  28.637  24.646  13.632 -0.2832 -0.0094 -0.0819
 2872DOPC   PO433696  28.458  24.333  13.839  0.1294 -0.0525 -0.1775
 2872DOPC   GL133697  28.394  24.278  13.517  0.1152 -0.0210 -0.1048
 2872DOPC   GL233698  28.546  24.392  13.173 -0.1474  0.3396 -0.0861
 2872DOPC   C1A33699  28.063  24.404  13.231  0.0429 -0.0864 -0.0616
 2872DOPC   D2A33700  28.136  24.340  12.759  0.2060 -0.0041 -0.0766
 2872DOPC   C3A33701  27.812  24.130  12.461 -0.1644  0.1673  0.0847
 2872DOPC   C4A33702  27.428  23.832  12.498  0.0407 -0.2347 -0.0024
 2872DOPC   C1B33703  28.879  24.655  13.056 -0.2325  0.0287  0.0504
 2872DOPC   D2B33704  29.003  24.859  12.654  0.1226 -0.1664 -0.1288
 2872DOPC   C3B33705  28.769  24.688  12.231 -0.1783 -0.5768  0.0645
 2872DOPC   C4B33706  28.587  24.462  11.885  0.1792 -0.0628  0.4353
 2873POSM   NC333707  32.088  19.937  13.325  0.0646  0.2133 -0.0376
 2873POSM   PO433708  32.470  19.793  13.438 -0.1438  0.2225  0.0920
 2873POSM   AM133709  32.536  19.806  13.139  0.2443  0.1841  0.1381
 2873POSM   AM233710  32.510  20.055  12.963  0.0368  0.2625 -0.1045
 2873POSM   T1A33711  32.580  19.648  12.640 -0.0566 -0.2791  0.0029
 2873POSM   C2A33712  32.686  19.579  12.241 -0.0791 -0.1715  0.3253
 2873POSM   C3A33713  32.611  19.359  11.876 -0.0988 -0.1819  0.2555
 2873POSM   C1B33714  32.548  20.261  12.660  0.0326 -0.1523 -0.1766
 2873POSM   D2B33715  32.643  20.373  12.203 -0.2399  0.1554  0.0000
 2873POSM   C3B33716  32.366  20.574  11.921 -0.1599 -0.1840 -0.1012
 2873POSM   C4B33717  32.233  20.815  11.607 -0.2178  0.0157 -0.1639
 2874DOPE   NH333718  24.690  18.672  13.937  0.2150  0.2306 -0.0486
 2874DOPE   PO433719  24.573  18.903  13.840  0.3349 -0.2662  0.1622
 2874DOPE   GL133720  24.237  18.864  13.527  0.0503 -0.1851  0.1859
 2874DOPE   GL233721  24.493  18.893  13.318 -0.0737  0.3032 -0.2771
 2874DOPE   C1A33722  24.024  18.582  13.203 -0.2805 -0.1227  0.0210
 2874DOPE   D2A33723  23.940  18.382  12.863  0.1447  0.4162 -0.4577
 2874DOPE   C3A33724  23.776  18.452  12.426 -0.1621 -0.0236 -0.0109
 2874DOPE   C4A33725  23.709  18.407  11.960  0.1616 -0.1462 -0.3372
 2874DOPE   C1B33726  24.457  18.878  12.857  0.1201  0.0918  0.0170
 2874DOPE   D2B33727  24.229  18.632  12.504 -0.1390  0.2347 -0.2294
 2874DOPE   C3B33728  23.934  18.860  12.214 -0.1043  0.1779  0.2111
 2874DOPE   C4B33729  23.549  18.917  11.971  0.2460  0.1209  0.0457
 2875DOPS   CNO33730  30.577  12.597  14.715 -0.0973  0.1651 -0.1148
 2875DOPS   PO433731  30.320  12.761  14.472  0.0151  0.1209 -0.7441
 2875DOPS   GL133732  30.495  12.633  14.083  0.2373 -0.3202 -0.3100
 2875DOPS   GL233733  30.244  12.667  13.912  0.0759  0.1303  0.1035
 2875DOPS   C1A33734  30.415  12.227  13.873  0.0703  0.0585  0.1158
 2875DOPS   D2A33735  30.254  12.147  13.429  0.0006  0.0700  0.1256
 2875DOPS   C3A33736  30.113  12.599  13.337  0.0922 -0.3194  0.1963
 2875DOPS   C4A33737  30.139  12.977  13.049  0.1320 -0.1332  0.2450
 2875DOPS   C1B33738  30.539  12.838  13.542  0.0785  0.0595  0.1947
 2875DOPS   D2B33739  30.634  13.108  13.233  0.0845 -0.1167  0.1620
 2875DOPS   C3B33740  30.675  12.921  12.819  0.1335 -0.0192  0.2292
 2875DOPS   C4B33741  30.694  12.557  12.515 -0.2145 -0.0301  0.3059
 2876POSM   NC333742  29.357  16.971  13.898 -0.3323 -0.2899 -0.3730
 2876POSM   PO433743  29.098  17.273  13.995 -0.1707 -0.1098 -0.0946
 2876POSM   AM133744  28.963  17.093  13.756 -0.4899  0.2488 -0.0802
 2876POSM   AM233745  28.706  16.939  13.709  0.0081  0.1347  0.0173
 2876POSM   T1A33746  29.166  16.758  13.426  0.1027 -0.0611 -0.2907
 2876POSM   C2A33747  29.021  16.564  13.031 -0.0647 -0.2156  0.1239
 2876POSM   C3A33748  28.927  16.164  12.850 -0.3146 -0.1325 -0.0105
 2876POSM   C1B33749  28.721  17.039  13.388  0.1273  0.2937 -0.6086
 2876POSM   D2B33750  29.000  17.065  13.029  0.1043  0.4274 -0.0719
 2876POSM   C3B33751  28.678  16.900  12.752 -0.4629  0.0655  0.2645
 2876POSM   C4B33752  28.317  17.028  12.449  0.0350 -0.1014 -0.1791
 2877POSM   NC333753  29.104  18.323  13.912 -0.0209  0.5308  0.1451
 2877POSM   PO433754  29.439  18.137  13.909 -0.5160  0.0454 -0.0781
 2877POSM   AM133755  29.539  18.147  13.604  0.0759 -0.4546  0.1851
 2877POSM   AM233756  29.369  18.041  13.434 -0.2461  0.2693  0.0406
 2877POSM   T1A33757  29.673  18.413  13.192  0.2456  0.2713  0.0705
 2877POSM   C2A33758  29.543  18.439  12.720  0.4787 -0.0878 -0.1134
 2877POSM   C3A33759  29.520  18.477  12.249 -0.3109 -0.1726  0.0497
 2877POSM   C1B33760  29.182  18.076  13.089 -0.3888 -0.3274 -0.3395
 2877POSM   D2B33761  29.050  18.191  12.655 -0.3466  0.1467  0.0166
 2877POSM   C3B33762  28.915  17.874  12.347  0.0730 -0.0616 -0.1019
 2877POSM   C4B33763  28.887  17.660  11.947 -0.1551 -0.2593 -0.4376
 2878DOPC   NC333764  25.318  12.620  13.885 -0.2432  0.2588  0.1804
 2878DOPC   PO433765  25.702  12.496  13.991 -0.2261 -0.0632 -0.0131
 2878DOPC   GL133766  25.849  12.281  13.776 -0.1527  0.3345 -0.0749
 2878DOPC   GL233767  25.763  12.334  13.458  0.0735  0.3022  0.0033
 2878DOPC   C1A33768  26.184  11.981  13.772 -0.0211 -0.1024 -0.2125
 2878DOPC   D2A33769  26.557  11.784  13.593  0.1335  0.0562 -0.0419
 2878DOPC   C3A33770  26.715  11.513  13.202 -0.0710 -0.2640 -0.0724
 2878DOPC   C4A33771  26.872  11.353  12.816  0.1735  0.3525  0.0884
 2878DOPC   C1B33772  25.924  12.191  13.066 -0.1439  0.3795 -0.3030
 2878DOPC   D2B33773  26.058  12.000  12.722  0.2179 -0.0720 -0.0802
 2878DOPC   C3B33774  26.084  11.726  12.351 -0.0776  0.0198 -0.0737
 2878DOPC   C4B33775  26.231  11.465  12.029  0.1617  0.1297  0.2999
 2879DOPS   CNO33776  31.312  13.640  14.196 -0.0463  0.1188 -0.2094
 2879DOPS   PO433777  31.599  13.511  13.955 -0.0015 -0.0513 -0.0719
 2879DOPS   GL133778  31.494  13.507  13.595 -0.1311  0.1989  0.0519
 2879DOPS   GL233779  31.680  13.787  13.518  0.0800  0.3856  0.2273
 2879DOPS   C1A33780  31.246  13.792  13.313 -0.0657 -0.5889 -0.1221
 2879DOPS   D2A33781  31.035  13.895  12.897  0.3810 -0.0356  0.0215
 2879DOPS   C3A33782  30.706  13.934  12.586  0.2194  0.1185 -0.1377
 2879DOPS   C4A33783  30.272  13.820  12.518  0.0627  0.2429  0.3429
 2879DOPS   C1B33784  31.605  13.601  13.108 -0.0949  0.0144 -0.1323
 2879DOPS   D2B33785  31.517  13.712  12.659  0.1961  0.2463  0.0416
 2879DOPS   C3B33786  31.758  13.488  12.330  0.2838  0.0993  0.1709
 2879DOPS   C4B33787  32.027  13.239  12.134 -0.3203 -0.1783  0.0614
 2880DOPE   NH333788  32.998  25.307  13.237  0.0132  0.3120 -0.4928
 2880DOPE   PO433789  32.882  25.012  13.158  0.3097 -0.1898  0.1211
 2880DOPE   GL133790  32.913  24.954  12.740 -0.1214 -0.1129  0.0308
 2880DOPE   GL233791  32.722  24.638  12.815 -0.1956  0.0657  0.1947
 2880DOPE   C1A33792  32.966  25.279  12.406  0.0472  0.1480 -0.3313
 2880DOPE   D2A33793  33.021  25.556  12.023 -0.1496 -0.3478 -0.0859
 2880DOPE   C3A33794  32.843  25.528  11.582 -0.0474  0.0263 -0.2790
 2880DOPE   C4A33795  32.761  25.528  11.116 -0.0197 -0.0877  0.1529
 2880DOPE   C1B33796  32.552  24.307  12.488  0.1505 -0.2939  0.3755
 2880DOPE   D2B33797  32.592  23.942  12.160  0.0955 -0.2758 -0.0734
 2880DOPE   C3B33798  32.309  23.574  12.130  0.1409 -0.4523 -0.0276
 2880DOPE   C4B33799  31.880  23.630  11.994 -0.2034 -0.3048 -0.0504
 2881POSM   NC333800  33.072  18.198  13.274 -0.0069  0.1814 -0.0726
 2881POSM   PO433801  32.802  18.512  13.371  0.0194 -0.1991 -0.1776
 2881POSM   AM133802  32.751  18.594  13.062 -0.1365  0.0006 -0.1055
 2881POSM   AM233803  32.821  18.487  12.817 -0.1250 -0.1519  0.0901
 2881POSM   T1A33804  32.351  18.657  12.719 -0.0653 -0.3712  0.1887
 2881POSM   C2A33805  31.990  18.742  12.397  0.0277  0.3847 -0.1570
 2881POSM   C3A33806  31.669  18.690  12.144 -0.0650  0.0805  0.0641
 2881POSM   C1B33807  33.097  18.474  12.587 -0.2444  0.2205  0.1108
 2881POSM   D2B33808  33.348  18.808  12.372 -0.1852 -0.1260 -0.2029
 2881POSM   C3B33809  33.456  18.888  11.945  0.3285  0.0201  0.2230
 2881POSM   C4B33810  33.416  19.143  11.631  0.1405 -0.0695  0.2001
 2882POSM   NC333811   1.433  10.360  14.758 -0.0065  0.2639  0.0186
 2882POSM   PO433812   1.363  10.402  14.350 -0.0799  0.0027  0.2205
 2882POSM   AM133813   1.389  10.426  13.999  0.1545 -0.1459 -0.0828
 2882POSM   AM233814   1.207  10.538  13.777  0.3169  0.0004  0.2051
 2882POSM   T1A33815   1.610  10.319  13.570  0.2233 -0.0168  0.0488
 2882POSM   C2A33816   1.574  10.275  13.122 -0.2513 -0.1130  0.2415
 2882POSM   C3A33817   1.505  10.382  12.644  0.0705  0.2176 -0.1197
 2882POSM   C1B33818   1.207  10.613  13.436  0.1386 -0.2045 -0.0525
 2882POSM   D2B33819   1.149  10.605  12.982 -0.0368 -0.0528 -0.0025
 2882POSM   C3B33820   0.959  10.313  12.703 -0.0730  0.2790 -0.3754
 2882POSM   C4B33821   0.603  10.368  12.416  0.1707  0.1730 -0.1799
 2883DOPC   NC333822  26.146  20.895  14.414 -0.0128  0.3161  0.3403
 2883DOPC   PO433823  25.917  20.919  14.119  0.4998 -0.2480  0.1015
 2883DOPC   GL133824  25.858  20.767  13.699 -0.1161 -0.1800  0.1483
 2883DOPC   GL233825  26.027  20.979  13.560  0.0729 -0.0417 -0.3114
 2883DOPC   C1A33826  25.569  21.074  13.551  0.3066  0.0286  0.0380
 2883DOPC   D2A33827  25.147  21.292  13.378  0.1357  0.0013  0.0215
 2883DOPC   C3A33828  25.184  21.369  12.948  0.3128  0.0210 -0.2555
 2883DOPC   C4A33829  25.261  21.474  12.522  0.1399  0.1041  0.0312
 2883DOPC   C1B33830  25.900  20.829  13.129  0.0313 -0.1641  0.1941
 2883DOPC   D2B33831  25.996  20.728  12.711  0.5152  0.0594 -0.1167
 2883DOPC   C3B33832  25.870  20.435  12.290 -0.0101  0.2738  0.2069
 2883DOPC   C4B33833  25.870  20.191  11.892  0.0361 -0.1192 -0.1012
 2884DOPC   NC333834  24.774  14.820  13.803 -0.1318  0.0847 -0.1969
 2884DOPC   PO433835  24.463  14.553  13.747  0.2834  0.2154 -0.0676
 2884DOPC   GL133836  24.356  14.425  13.385 -0.0335 -0.0503  0.0915
 2884DOPC   GL233837  24.577  14.255  13.319 -0.1570  0.0299  0.1681
 2884DOPC   C1A33838  23.947  14.425  13.141  0.2185 -0.2227  0.0197
 2884DOPC   D2A33839  23.534  14.226  13.016  0.0522 -0.1350 -0.1264
 2884DOPC   C3A33840  23.369  14.125  12.622  0.2111 -0.1244 -0.1648
 2884DOPC   C4A33841  23.351  13.998  12.229  0.2104 -0.0682  0.0796
 2884DOPC   C1B33842  24.359  14.140  12.985 -0.1046  0.0692  0.0099
 2884DOPC   D2B33843  23.940  13.893  12.959  0.3233  0.0340  0.0347
 2884DOPC   C3B33844  23.797  13.874  12.530 -0.2374 -0.0353  0.0711
 2884DOPC   C4B33845  23.875  13.720  12.110  0.1110 -0.5316  0.3004
 2885POSM   NC333846  32.726   7.384  14.069 -0.0879  0.2121  0.1400
 2885POSM   PO433847  33.068   7.240  13.928  0.2206  0.0934  0.0641
 2885POSM   AM133848  32.962   7.158  13.649 -0.2345 -0.3004  0.4538
 2885POSM   AM233849  33.017   6.954  13.460  0.0380  0.1305 -0.1613
 2885POSM   T1A33850  32.814   7.380  13.203 -0.2376 -0.3166 -0.0579
 2885POSM   C2A33851  32.646   7.541  12.826 -0.0676 -0.3420  0.1787
 2885POSM   C3A33852  32.453   7.763  12.472 -0.1372  0.0149 -0.0612
 2885POSM   C1B33853  33.072   6.975  13.149  0.1320  0.1466 -0.3093
 2885POSM   D2B33854  33.041   6.759  12.753 -0.3858 -0.1107  0.0199
 2885POSM   C3B33855  33.267   7.028  12.473 -0.1314 -0.1064  0.0900
 2885POSM   C4B33856  33.715   7.137  12.430 -0.0133  0.0746 -0.1009
 2886POSM   NC333857  32.925  14.995  14.039 -0.1244  0.1861  0.1118
 2886POSM   PO433858  32.640  14.976  13.756 -0.0786  0.0928  0.0259
 2886POSM   AM133859  32.477  15.052  13.479 -0.0342  0.0001  0.0205
 2886POSM   AM233860  32.197  14.881  13.437  0.0957  0.1918  0.2043
 2886POSM   T1A33861  32.180  15.381  13.230  0.0426 -0.0476  0.0414
 2886POSM   C2A33862  31.834  15.570  13.027  0.2918  0.1258 -0.1172
 2886POSM   C3A33863  31.578  15.938  12.982  0.2649  0.0584 -0.0422
 2886POSM   C1B33864  32.075  14.646  13.209 -0.0241 -0.0145 -0.0126
 2886POSM   D2B33865  31.914  14.516  12.856 -0.1387  0.1792  0.0570
 2886POSM   C3B33866  31.740  14.686  12.454 -0.0523 -0.1353  0.1043
 2886POSM   C4B33867  31.646  14.886  12.059 -0.1260 -0.2846 -0.0980
 2887DOPE   NH333868  33.383  24.996  13.265 -0.1201  0.1204  0.3198
 2887DOPE   PO433869  33.706  24.954  13.242 -0.3349 -0.2022 -0.0472
 2887DOPE   GL133870  33.784  25.005  12.837  0.5779 -0.2846 -0.4605
 2887DOPE   GL233871  34.005  24.831  12.872  0.0956 -0.0097  0.3621
 2887DOPE   C1A33872  33.742  24.654  12.516 -0.1042 -0.2589  0.1652
 2887DOPE   D2A33873  33.456  24.617  12.153  0.3349 -0.0850  0.1313
 2887DOPE   C3A33874  33.194  24.760  11.825 -0.0976 -0.2524  0.2929
 2887DOPE   C4A33875  32.893  24.584  11.540  0.0150 -0.0183 -0.0071
 2887DOPE   C1B33876  34.231  24.691  12.469 -0.1786 -0.0621  0.1983
 2887DOPE   D2B33877  34.462  24.523  12.132  0.2494 -0.0824 -0.0204
 2887DOPE   C3B33878  34.420  24.489  11.680 -0.0808  0.2556 -0.2319
 2887DOPE   C4B33879  34.580  24.295  11.291 -0.1594 -0.1568  0.0073
 2888DOPC   NC333880  31.415  22.760  13.871 -0.0194  0.1885 -0.1960
 2888DOPC   PO433881  31.736  22.722  13.634  0.0637 -0.0620  0.3315
 2888DOPC   GL133882  31.383  23.039  13.472 -0.1376 -0.1468 -0.0809
 2888DOPC   GL233883  31.081  22.964  13.448  0.3682  0.0510 -0.0577
 2888DOPC   C1A33884  31.275  23.062  12.974  0.3749 -0.2623 -0.2372
 2888DOPC   D2A33885  31.129  23.227  12.551  0.1242 -0.3431 -0.0898
 2888DOPC   C3A33886  31.366  23.303  12.121 -0.0825 -0.1300 -0.0970
 2888DOPC   C4A33887  31.433  23.336  11.707  0.4320 -0.0226 -0.1094
 2888DOPC   C1B33888  30.722  23.139  13.207  0.3028  0.0599 -0.1460
 2888DOPC   D2B33889  30.267  23.162  13.320  0.4104 -0.0719  0.2040
 2888DOPC   C3B33890  30.157  23.263  12.902  0.0594  0.2250 -0.2355
 2888DOPC   C4B33891  30.258  23.163  12.454  0.2047  0.3697  0.1002
 2889DOPE   NH333892  31.478  16.584  13.628 -0.0720 -0.1779 -0.3060
 2889DOPE   PO433893  31.713  16.790  13.530 -0.0177  0.1045  0.2249
 2889DOPE   GL133894  31.707  16.753  13.149 -0.0226 -0.1113 -0.0133
 2889DOPE   GL233895  31.690  16.466  13.031  0.3146  0.0108 -0.1062
 2889DOPE   C1A33896  32.096  16.778  12.898  0.1359 -0.2452  0.1259
 2889DOPE   D2A33897  32.388  16.593  12.526  0.2822  0.1267 -0.0707
 2889DOPE   C3A33898  32.052  16.600  12.247 -0.0783 -0.0691  0.1175
 2889DOPE   C4A33899  31.644  16.482  12.048  0.0149  0.0038 -0.0614
 2889DOPE   C1B33900  31.768  16.246  12.599  0.3153 -0.3061 -0.1267
 2889DOPE   D2B33901  31.521  15.899  12.317  0.0228  0.0176 -0.0423
 2889DOPE   C3B33902  31.343  16.066  11.924  0.0864  0.1232  0.2895
 2889DOPE   C4B33903  30.924  16.134  11.716  0.2023 -0.1945  0.2354
 2890DOPE   NH333904  34.259  12.139  13.727 -0.1587  0.1161  0.2506
 2890DOPE   PO433905  34.487  12.379  13.735 -0.0539  0.4759 -0.1725
 2890DOPE   GL133906  34.279  12.427  13.350 -0.0628  0.3237 -0.0116
 2890DOPE   GL233907  34.505  12.480  13.260 -0.1103 -0.2014  0.5812
 2890DOPE   C1A33908  34.303  12.170  12.955  0.0720  0.1414  0.0241
 2890DOPE   D2A33909  34.496  11.832  12.807 -0.2782  0.0895  0.0091
 2890DOPE   C3A33910  34.650  11.739  12.367  0.1630 -0.1011  0.1803
 2890DOPE   C4A33911  34.615  11.735  11.916 -0.3205 -0.2321  0.2348
 2890DOPE   C1B33912  34.627  12.564  12.873  0.0771 -0.0114 -0.0139
 2890DOPE   D2B33913  34.868  12.905  12.607 -0.1836 -0.1903  0.1966
 2890DOPE   C3B33914  35.137  13.150  12.352  0.0081 -0.0390  0.1022
 2890DOPE   C4B33915  35.396  13.036  12.009  0.0519 -0.0803 -0.1719
 2891DOPE   NH333916  31.679  11.617  14.669 -0.0596  0.0428  0.0985
 2891DOPE   PO433917  31.822  11.549  14.375  0.3928  0.1572 -0.2665
 2891DOPE   GL133918  31.800  11.694  14.039  0.3720  0.0602  0.1638
 2891DOPE   GL233919  31.975  11.672  13.784  0.0422 -0.1028  0.0200
 2891DOPE   C1A33920  31.515  11.716  13.709  0.2313  0.3927  0.1501
 2891DOPE   D2A33921  31.439  11.783  13.240  0.1075 -0.0631  0.0758
 2891DOPE   C3A33922  31.407  11.430  12.943  0.2042  0.1613  0.1556
 2891DOPE   C4A33923  31.016  11.270  12.888  0.0547  0.1610  0.2466
 2891DOPE   C1B33924  32.451  11.762  13.683  0.0891 -0.0090  0.1442
 2891DOPE   D2B33925  32.810  11.942  13.475 -0.0880  0.1246 -0.1347
 2891DOPE   C3B33926  32.638  12.050  13.060 -0.3933  0.4857  0.0924
 2891DOPE   C4B33927  32.694  11.986  12.549  0.0407 -0.1992 -0.0862
 2892DOPS   CNO33928  23.052  14.314  13.124  0.1875  0.2322  0.2499
 2892DOPS   PO433929  22.965  14.669  13.250 -0.0724  0.1898 -0.3091
 2892DOPS   GL133930  23.080  14.821  12.872 -0.0297 -0.2784  0.0880
 2892DOPS   GL233931  22.843  14.919  12.764 -0.0123 -0.3687 -0.2600
 2892DOPS   C1A33932  23.239  14.605  12.538 -0.4105 -0.1001  0.0460
 2892DOPS   D2A33933  23.270  14.526  12.083 -0.1668 -0.0947  0.0029
 2892DOPS   C3A33934  23.012  14.204  11.838 -0.2132 -0.1072 -0.1890
 2892DOPS   C4A33935  22.674  13.920  11.982  0.0990  0.0906  0.1080
 2892DOPS   C1B33936  22.849  14.799  12.368  0.2042 -0.4067  0.2177
 2892DOPS   D2B33937  22.587  14.646  12.014 -0.1753  0.1758  0.3027
 2892DOPS   C3B33938  22.491  14.832  11.600  0.3799  0.5165  0.2459
 2892DOPS   C4B33939  22.551  14.820  11.168  0.0432  0.3218  0.2008
 2893DOPE   NH333940  31.458  18.649  13.591 -0.2974  0.0816 -0.1834
 2893DOPE   PO433941  31.744  18.718  13.472 -0.0145  0.3112 -0.1965
 2893DOPE   GL133942  31.591  18.438  13.159  0.3763 -0.1862  0.4457
 2893DOPE   GL233943  31.427  18.232  13.275  0.2307  0.1843 -0.2036
 2893DOPE   C1A33944  31.592  18.608  12.724  0.0121 -0.0402  0.2077
 2893DOPE   D2A33945  31.533  19.029  12.451 -0.2045  0.0206 -0.1267
 2893DOPE   C3A33946  31.439  19.308  12.123 -0.2052  0.4264 -0.1652
 2893DOPE   C4A33947  31.085  19.441  11.873 -0.2293 -0.2033 -0.2214
 2893DOPE   C1B33948  31.175  18.286  12.888 -0.4313 -0.0414  0.1122
 2893DOPE   D2B33949  30.823  18.148  12.612 -0.3066  0.0059 -0.1085
 2893DOPE   C3B33950  30.572  17.945  12.278  0.3633 -0.3620 -0.1663
 2893DOPE   C4B33951  30.185  18.173  12.094  0.3763 -0.0828 -0.0738
 2894DOPE   NH333952  28.145  15.733  13.860 -0.4410  0.1923  0.4531
 2894DOPE   PO433953  27.857  15.893  13.711 -0.2020 -0.1411 -0.1676
 2894DOPE   GL133954  27.852  15.978  13.233 -0.2212 -0.3116 -0.2309
 2894DOPE   GL233955  28.118  16.029  13.033  0.1483  0.1028  0.0493
 2894DOPE   C1A33956  27.648  15.628  12.969 -0.1588  0.0501 -0.2053
 2894DOPE   D2A33957  27.245  15.368  12.941 -0.0748  0.1367  0.0481
 2894DOPE   C3A33958  27.217  14.917  12.939 -0.0154  0.1777  0.0938
 2894DOPE   C4A33959  27.240  14.417  13.010 -0.1131 -0.0919 -0.1830
 2894DOPE   C1B33960  27.939  15.808  12.595  0.0633  0.3764 -0.3631
 2894DOPE   D2B33961  27.588  15.631  12.345 -0.1395  0.3699 -0.1394
 2894DOPE   C3B33962  27.419  15.185  12.470  0.0129 -0.1075 -0.2416
 2894DOPE   C4B33963  27.366  14.714  12.533 -0.0215 -0.0334 -0.1391
 2895POSM   NC333964  27.089  12.735  14.548  0.1233 -0.3493  0.0076
 2895POSM   PO433965  26.939  12.731  14.178 -0.0442  0.0689  0.2086
 2895POSM   AM133966  26.953  12.540  13.931  0.0384 -0.1107  0.2065
 2895POSM   AM233967  26.773  12.293  13.877  0.0632 -0.1365 -0.3066
 2895POSM   T1A33968  27.183  12.456  13.500  0.1644  0.0362 -0.1817
 2895POSM   C2A33969  27.390  12.148  13.163 -0.1979 -0.1387  0.2799
 2895POSM   C3A33970  27.207  11.781  12.913  0.1149  0.1207 -0.1127
 2895POSM   C1B33971  26.856  12.155  13.592 -0.0189  0.2715 -0.3565
 2895POSM   D2B33972  26.853  12.048  13.189  0.0621 -0.0700  0.0561
 2895POSM   C3B33973  26.892  12.235  12.772 -0.0504  0.0380  0.0765
 2895POSM   C4B33974  26.701  12.305  12.355  0.2426 -0.0299  0.0137
 2896POSM   NC333975  30.503  13.864  14.743 -0.1865  0.2392 -0.1475
 2896POSM   PO433976  30.161  13.660  14.699 -0.1260  0.1032  0.2277
 2896POSM   AM133977  30.263  13.775  14.396 -0.4003  0.3617 -0.2238
 2896POSM   AM233978  30.406  13.978  14.274  0.0141  0.2997 -0.1718
 2896POSM   T1A33979  30.380  13.588  13.962  0.1460  0.0860 -0.0364
 2896POSM   C2A33980  30.471  13.561  13.510  0.2905 -0.0633  0.0295
 2896POSM   C3A33981  30.204  13.529  13.072  0.0337 -0.1821  0.0573
 2896POSM   C1B33982  30.281  14.040  13.944 -0.0673 -0.4036  0.1351
 2896POSM   D2B33983  30.331  14.177  13.573 -0.0681  0.0846 -0.2147
 2896POSM   C3B33984  30.558  14.491  13.318  0.1872 -0.2470 -0.0517
 2896POSM   C4B33985  30.348  14.851  13.036 -0.0192 -0.0096 -0.1979
 2897DOPC   NC333986  28.855  16.119  14.212  0.0746 -0.3835 -0.1152
 2897DOPC   PO433987  28.550  15.940  14.127 -0.1357 -0.4397  0.1545
 2897DOPC   GL133988  28.594  16.032  13.702  0.1917  0.1705 -0.1005
 2897DOPC   GL233989  28.362  16.084  13.524 -0.0805  0.1376  0.0422
 2897DOPC   C1A33990  28.967  16.046  13.452 -0.0353 -0.0475  0.0639
 2897DOPC   D2A33991  29.192  15.745  13.134 -0.0230  0.1697 -0.1003
 2897DOPC   C3A33992  29.160  15.352  12.879 -0.1694  0.0865 -0.0188
 2897DOPC   C4A33993  28.945  14.880  12.848  0.1232 -0.0367  0.0955
 2897DOPC   C1B33994  28.548  15.807  13.178  0.1632  0.0486 -0.1655
 2897DOPC   D2B33995  28.810  15.697  12.865 -0.0730  0.0095  0.0153
 2897DOPC   C3B33996  28.764  15.846  12.439  0.1703 -0.1642  0.0270
 2897DOPC   C4B33997  28.467  15.996  12.131  0.1476 -0.2995  0.1491
 2898DOPC   NC333998  28.726  19.115  13.770 -0.1150  0.3434 -0.0172
 2898DOPC   PO433999  29.018  18.800  13.785  0.2282  0.0098 -0.0382
 2898DOPC   GL134000  28.893  18.801  13.397  0.0893 -0.1138  0.2076
 2898DOPC   GL234001  28.649  18.894  13.252  0.0169  0.6253  0.3166
 2898DOPC   C1A34002  29.107  18.629  12.997  0.0776  0.1109  0.1777
 2898DOPC   D2A34003  29.155  18.661  12.529 -0.0658 -0.2465  0.2323
 2898DOPC   C3A34004  29.050  18.407  12.191  0.1656 -0.1504 -0.1610
 2898DOPC   C4A34005  29.106  18.153  11.798 -0.0498  0.0573 -0.0749
 2898DOPC   C1B34006  28.207  18.717  13.196 -0.3850 -0.1417  0.2471
 2898DOPC   D2B34007  27.963  18.767  12.813 -0.0383  0.2693 -0.0248
 2898DOPC   C3B34008  28.243  18.778  12.436 -0.0837  0.1156 -0.1712
 2898DOPC   C4B34009  28.666  18.805  12.250 -0.1377  0.2110  0.0281
 2899POSM   NC334010  25.566  19.473  14.240 -0.0618  0.4834 -0.3367
 2899POSM   PO434011  25.482  19.600  13.899 -0.1578  0.1751  0.1526
 2899POSM   AM134012  25.396  19.671  13.588 -0.3642  0.0746  0.2423
 2899POSM   AM234013  25.178  19.786  13.454 -0.2732  0.1226  0.1677
 2899POSM   T1A34014  25.600  19.946  13.178  0.0273 -0.0564 -0.3758
 2899POSM   C2A34015  25.795  20.014  12.764  0.0502  0.2555  0.0251
 2899POSM   C3A34016  25.880  19.800  12.398  0.1630 -0.0856 -0.0059
 2899POSM   C1B34017  24.908  19.804  13.265  0.1416 -0.0667  0.2786
 2899POSM   D2B34018  24.678  19.723  12.860 -0.0437 -0.1125  0.1916
 2899POSM   C3B34019  24.345  19.784  12.503  0.0132 -0.2502  0.2262
 2899POSM   C4B34020  24.192  20.120  12.283  0.2752 -0.1961  0.1907
 2900DOPC   NC334021  33.738  11.516  14.085  0.2362 -0.0989 -0.1673
 2900DOPC   PO434022  34.098  11.606  13.909 -0.2095  0.0441 -0.0238
 2900DOPC   GL134023  33.874  11.774  13.550  0.3150 -0.2260 -0.0065
 2900DOPC   GL234024  33.770  12.045  13.589 -0.2087 -0.3338  0.2261
 2900DOPC   C1A34025  33.441  11.638  13.593 -0.0558 -0.0332  0.1684
 2900DOPC   D2A34026  33.056  11.528  13.410 -0.0747  0.0423  0.0909
 2900DOPC   C3A34027  33.095  11.314  13.065 -0.1658  0.2705  0.2763
 2900DOPC   C4A34028  32.769  11.281  12.666  0.1512 -0.0425  0.0327
 2900DOPC   C1B34029  33.823  12.039  13.148  0.1340  0.0336  0.0640
 2900DOPC   D2B34030  33.625  11.957  12.747  0.0006 -0.0967 -0.4940
 2900DOPC   C3B34031  33.748  12.173  12.386  0.2680  0.0259  0.0352
 2900DOPC   C4B34032  33.953  11.995  12.028  0.3109 -0.2064 -0.1208
 2901POSM   NC334033  25.363  18.998  14.213  0.0847  0.1852  0.0983
 2901POSM   PO434034  25.231  18.678  13.994  0.0340  0.2363  0.2721
 2901POSM   AM134035  25.174  18.704  13.674  0.1574 -0.2032  0.4973
 2901POSM   AM234036  24.972  18.838  13.514  0.0654  0.0828  0.2588
 2901POSM   T1A34037  25.479  18.752  13.246 -0.0465  0.2454 -0.0035
 2901POSM   C2A34038  25.847  18.477  13.097  0.1366  0.0194  0.3636
 2901POSM   C3A34039  26.247  18.259  12.958 -0.0656 -0.0528 -0.3048
 2901POSM   C1B34040  24.885  18.562  13.299  0.2086  0.3197 -0.1828
 2901POSM   D2B34041  24.993  18.391  12.917 -0.0003  0.2177  0.2531
 2901POSM   C3B34042  24.665  18.394  12.586  0.0378 -0.3331 -0.1989
 2901POSM   C4B34043  24.681  18.400  12.099 -0.0160 -0.1394 -0.2569
 2902DOPC   NC334044  27.286  17.005  13.881  0.0110 -0.2537 -0.2146
 2902DOPC   PO434045  26.970  17.090  14.034 -0.1270  0.1346 -0.1490
 2902DOPC   GL134046  26.972  17.311  13.754 -0.2061 -0.0150 -0.0435
 2902DOPC   GL234047  27.002  17.242  13.471 -0.1070  0.0234  0.0307
 2902DOPC   C1A34048  27.178  17.699  13.600 -0.3190 -0.0357 -0.1306
 2902DOPC   D2A34049  27.387  18.065  13.458 -0.2416  0.2707 -0.0726
 2902DOPC   C3A34050  27.651  17.885  13.082  0.0694  0.0136 -0.2193
 2902DOPC   C4A34051  27.497  17.595  12.726  0.1079  0.0113  0.0556
 2902DOPC   C1B34052  27.017  17.395  13.027 -0.0717 -0.2404  0.2429
 2902DOPC   D2B34053  26.976  17.696  12.669  0.0208  0.1618 -0.1589
 2902DOPC   C3B34054  27.200  17.823  12.305 -0.1954  0.0173 -0.1792
 2902DOPC   C4B34055  27.649  17.632  12.181 -0.0691  0.0464 -0.2420
 2903POSM   NC334056  24.018  21.241  14.257  0.1989  0.2562  0.0844
 2903POSM   PO434057  23.881  21.491  13.990  0.0331  0.0310 -0.1212
 2903POSM   AM134058  23.868  21.541  13.694  0.1218 -0.1431  0.2791
 2903POSM   AM234059  24.024  21.695  13.489  0.1374 -0.1638 -0.1942
 2903POSM   T1A34060  23.717  21.455  13.259  0.2599  0.1863  0.0020
 2903POSM   C2A34061  23.543  21.072  13.054  0.0100  0.2205 -0.1933
 2903POSM   C3A34062  23.176  21.041  12.729 -0.0843  0.1414  0.0081
 2903POSM   C1B34063  24.111  21.976  13.219  0.2084 -0.0235 -0.1934
 2903POSM   D2B34064  23.986  22.241  12.839  0.0839 -0.4476  0.1453
 2903POSM   C3B34065  23.784  22.647  12.761 -0.2819  0.3802 -0.1178
 2903POSM   C4B34066  24.066  23.032  12.804 -0.0568  0.0747 -0.1521
 2904DOPE   NH334067  30.649  18.111  13.868  0.1445  0.1635  0.3654
 2904DOPE   PO434068  30.360  18.110  13.714  0.0300 -0.3632  0.1605
 2904DOPE   GL134069  30.428  17.995  13.391  0.0345  0.2217 -0.3873
 2904DOPE   GL234070  30.742  18.092  13.213 -0.0009 -0.0674 -0.0607
 2904DOPE   C1A34071  30.340  18.164  12.949  0.5169 -0.0524  0.2134
 2904DOPE   D2A34072  30.287  18.212  12.540  0.0633 -0.0396  0.1165
 2904DOPE   C3A34073  29.856  18.160  12.470 -0.0364  0.0662 -0.0374
 2904DOPE   C4A34074  29.422  18.004  12.334  0.1594  0.0720  0.1249
 2904DOPE   C1B34075  30.793  17.695  12.876  0.2927  0.1378 -0.2724
 2904DOPE   D2B34076  30.640  17.426  12.502 -0.2386 -0.0182  0.2576
 2904DOPE   C3B34077  30.857  17.515  12.087 -0.0251  0.0689  0.1374
 2904DOPE   C4B34078  31.118  17.616  11.788 -0.0716  0.2787  0.0285
 2905DOPC   NC334079  30.526  12.236  14.372 -0.1035  0.2887 -0.0332
 2905DOPC   PO434080  30.680  11.996  14.608 -0.0367  0.0533  0.3145
 2905DOPC   GL134081  30.893  11.709  14.254 -0.0221 -0.2479 -0.3147
 2905DOPC   GL234082  30.614  11.787  14.081 -0.1828 -0.1047  0.1288
 2905DOPC   C1A34083  31.017  11.521  13.843 -0.1478 -0.0283  0.2247
 2905DOPC   D2A34084  30.900  11.436  13.385 -0.0299 -0.3461  0.2645
 2905DOPC   C3A34085  30.971  11.767  13.013 -0.2571 -0.2219 -0.1895
 2905DOPC   C4A34086  31.176  11.776  12.596 -0.0633  0.0749 -0.2244
 2905DOPC   C1B34087  30.489  11.608  13.656 -0.0711 -0.1090  0.2476
 2905DOPC   D2B34088  30.396  11.367  13.284  0.1135  0.0303 -0.0934
 2905DOPC   C3B34089  30.148  11.091  13.050  0.0353 -0.1203  0.0251
 2905DOPC   C4B34090  29.830  11.100  12.753 -0.0605  0.2137  0.0201
 2906DOPC   NC334091  34.448  11.352  14.224  0.1052 -0.0899 -0.0953
 2906DOPC   PO434092  34.407  10.952  14.326  0.1276 -0.3171 -0.0158
 2906DOPC   GL134093  34.255  10.742  14.057  0.3606  0.6173 -0.3158
 2906DOPC   GL234094  34.450  10.569  13.985 -0.1314  0.0685  0.3729
 2906DOPC   C1A34095  34.101  10.798  13.582 -0.2530 -0.1770  0.0850
 2906DOPC   D2A34096  33.795  10.816  13.206  0.2091 -0.0842 -0.2219
 2906DOPC   C3A34097  33.536  11.209  13.208 -0.2235 -0.0458  0.0441
 2906DOPC   C4A34098  33.575  11.627  13.081  0.1536 -0.0624 -0.0641
 2906DOPC   C1B34099  34.551  10.649  13.595  0.1027  0.1297  0.1114
 2906DOPC   D2B34100  34.756  10.710  13.183 -0.0444 -0.2020  0.0525
 2906DOPC   C3B34101  34.656  10.913  12.726 -0.0775 -0.0375  0.1164
 2906DOPC   C4B34102  34.292  10.886  12.376  0.0018 -0.0934 -0.0446
 2907DOPC   NC334103  26.527  14.719  13.557 -0.2266 -0.0679 -0.1362
 2907DOPC   PO434104  26.886  14.826  13.769 -0.1507  0.1774  0.0723
 2907DOPC   GL134105  27.056  14.783  13.340 -0.1883  0.6195  0.0696
 2907DOPC   GL234106  27.023  15.052  13.299 -0.3816  0.3018  0.1525
 2907DOPC   C1A34107  26.767  14.734  13.013 -0.1387 -0.1190 -0.2349
 2907DOPC   D2A34108  26.858  14.700  12.506  0.0481 -0.0879 -0.0243
 2907DOPC   C3A34109  27.005  14.984  12.187 -0.1821  0.4650  0.0765
 2907DOPC   C4A34110  26.932  15.266  11.799 -0.0108  0.0452  0.1295
 2907DOPC   C1B34111  27.476  15.208  13.333 -0.2387 -0.0727 -0.4081
 2907DOPC   D2B34112  27.787  15.143  13.085 -0.0075 -0.1186  0.2463
 2907DOPC   C3B34113  27.857  15.222  12.636  0.1821 -0.0424  0.0929
 2907DOPC   C4B34114  27.848  15.313  12.133  0.0006  0.1155 -0.0622
 2908DOPC   NC334115  31.989  19.114  13.520  0.2739  0.1856 -0.0551
 2908DOPC   PO434116  31.773  19.467  13.576 -0.0866  0.3106 -0.1619
 2908DOPC   GL134117  31.983  19.499  13.225  0.1098 -0.0462  0.3479
 2908DOPC   GL234118  32.267  19.434  13.158  0.0656  0.0869  0.0709
 2908DOPC   C1A34119  32.072  19.729  12.815  0.0393  0.1031  0.2886
 2908DOPC   D2A34120  32.174  19.616  12.346 -0.0525  0.0309  0.1971
 2908DOPC   C3A34121  31.853  19.610  12.019  0.0318  0.1355  0.2273
 2908DOPC   C4A34122  31.594  19.441  11.623  0.3313 -0.2576 -0.1879
 2908DOPC   C1B34123  31.967  19.237  12.852  0.0954  0.0761  0.0459
 2908DOPC   D2B34124  31.634  19.537  12.618 -0.0198 -0.1807  0.1847
 2908DOPC   C3B34125  31.739  19.936  12.393 -0.1239  0.1367  0.2872
 2908DOPC   C4B34126  32.177  20.136  12.229 -0.2396 -0.1555 -0.0898
 2909DOPS   CNO34127  30.734  18.471  13.541  0.2758  0.0125  0.0208
 2909DOPS   PO434128  31.077  18.366  13.696  0.2867 -0.0771 -0.3959
 2909DOPS   GL134129  31.056  18.526  13.271 -0.1118  0.1722 -0.2992
 2909DOPS   GL234130  31.101  18.744  13.201  0.0031  0.1966  0.1590
 2909DOPS   C1A34131  30.693  18.553  12.931 -0.4062 -0.0305  0.0265
 2909DOPS   D2A34132  30.550  18.601  12.511 -0.2172  0.1160 -0.0265
 2909DOPS   C3A34133  30.785  18.415  12.196 -0.2947 -0.1631 -0.1555
 2909DOPS   C4A34134  30.924  18.092  11.898  0.0463 -0.1767 -0.0301
 2909DOPS   C1B34135  31.104  18.728  12.734 -0.0923 -0.0880 -0.1001
 2909DOPS   D2B34136  31.218  18.546  12.289 -0.0894  0.2104 -0.2430
 2909DOPS   C3B34137  31.218  18.786  11.946 -0.0814 -0.1916 -0.0443
 2909DOPS   C4B34138  31.274  19.076  11.533 -0.1126  0.2993  0.1466
 2910DOPC   NC334139  31.001  14.401  14.336  0.0529  0.0166 -0.1593
 2910DOPC   PO434140  30.898  14.060  14.232 -0.0042 -0.0044 -0.1566
 2910DOPC   GL134141  30.829  14.168  13.871 -0.3290  0.0766  0.2950
 2910DOPC   GL234142  30.623  14.383  13.874 -0.2137 -0.0906 -0.1826
 2910DOPC   C1A34143  30.739  13.975  13.458  0.0127  0.2622 -0.2036
 2910DOPC   D2A34144  30.519  13.939  13.053  0.0065 -0.0123 -0.3210
 2910DOPC   C3A34145  30.124  14.029  12.903  0.1461 -0.1150 -0.0361
 2910DOPC   C4A34146  29.769  13.676  12.784 -0.0020  0.1681  0.3796
 2910DOPC   C1B34147  30.619  14.848  13.715 -0.2411 -0.1462 -0.0751
 2910DOPC   D2B34148  30.498  15.281  13.558 -0.1405  0.4827  0.3239
 2910DOPC   C3B34149  30.264  15.336  13.200 -0.0024  0.2180 -0.2112
 2910DOPC   C4B34150  30.251  15.351  12.769 -0.0244 -0.2470 -0.1328
 2911DOPS   CNO34151  30.452  20.322  13.393 -0.0643 -0.0023 -0.2148
 2911DOPS   PO434152  30.594  19.996  13.465 -0.2944  0.2379 -0.1914
 2911DOPS   GL134153  30.448  20.043  13.071 -0.3485  0.2140  0.2963
 2911DOPS   GL234154  30.690  20.046  12.951  0.2565 -0.3307 -0.0448
 2911DOPS   C1A34155  30.399  19.831  12.653 -0.0711  0.3900  0.4456
 2911DOPS   D2A34156  30.434  19.518  12.355  0.0119 -0.1248 -0.3933
 2911DOPS   C3A34157  30.561  19.569  11.944  0.0902  0.1372  0.1045
 2911DOPS   C4A34158  30.794  19.847  11.769 -0.0854  0.1253  0.1534
 2911DOPS   C1B34159  30.821  20.317  12.618  0.1740  0.0511  0.3785
 2911DOPS   D2B34160  30.927  20.665  12.313  0.0664  0.2390  0.1658
 2911DOPS   C3B34161  31.183  20.996  12.233 -0.0968  0.1262 -0.0694
 2911DOPS   C4B34162  31.637  20.913  12.373 -0.0632 -0.2052 -0.0061
 2912POSM   NC334163   2.501   9.126  14.279 -0.1397 -0.0270 -0.2541
 2912POSM   PO434164   2.796   9.404  14.213 -0.0343  0.0379 -0.0171
 2912POSM   AM134165   2.914   9.449  13.914  0.1133  0.0546  0.0353
 2912POSM   AM234166   2.966   9.685  13.718  0.3766  0.0708  0.0232
 2912POSM   T1A34167   3.033   9.201  13.509 -0.0507 -0.0061  0.3189
 2912POSM   C2A34168   2.908   9.253  13.065 -0.4099  0.3272 -0.1090
 2912POSM   C3A34169   2.828   9.357  12.652  0.2065 -0.3114  0.0806
 2912POSM   C1B34170   2.971   9.681  13.351  0.2705 -0.2071  0.1172
 2912POSM   D2B34171   2.939   9.901  12.882  0.0959  0.0154 -0.0919
 2912POSM   C3B34172   3.195  10.162  12.643 -0.0748 -0.1684  0.0196
 2912POSM   C4B34173   2.997  10.256  12.176 -0.1226  0.2490  0.0185
 2913DOPS   CNO34174  25.701  14.705  13.577  0.6050 -0.2116 -0.2448
 2913DOPS   PO434175  26.014  14.494  13.487  0.0050 -0.1168 -0.2059
 2913DOPS   GL134176  26.283  14.497  13.272  0.0119  0.3735 -0.1168
 2913DOPS   GL234177  26.296  14.174  13.207 -0.2737 -0.0814  0.0046
 2913DOPS   C1A34178  26.327  14.511  12.808  0.1070  0.1153 -0.0375
 2913DOPS   D2A34179  26.404  14.400  12.363 -0.3343  0.1158  0.1403
 2913DOPS   C3A34180  26.727  14.168  12.306  0.0531 -0.0292 -0.3850
 2913DOPS   C4A34181  26.962  13.845  12.047 -0.0919 -0.1848  0.0657
 2913DOPS   C1B34182  26.080  14.119  12.756 -0.0140  0.1108 -0.4089
 2913DOPS   D2B34183  26.027  14.023  12.326 -0.0440 -0.0640 -0.0087
 2913DOPS   C3B34184  26.117  13.573  12.159  0.4147 -0.0155  0.1515
 2913DOPS   C4B34185  25.819  13.254  12.010 -0.0995  0.3055 -0.2218
 2914DOPS   CNO34186  24.149  12.619  13.813 -0.1387 -0.0435 -0.0189
 2914DOPS   PO434187  24.203  12.386  13.553 -0.1693 -0.0059  0.1194
 2914DOPS   GL134188  24.292  12.279  13.129  0.2850 -0.1769 -0.0513
 2914DOPS   GL234189  24.160  12.264  12.840 -0.1239  0.1103 -0.3800
 2914DOPS   C1A34190  24.595  11.985  12.868  0.1218 -0.0022 -0.0284
 2914DOPS   D2A34191  25.043  11.940  12.793 -0.3004 -0.1464 -0.0749
 2914DOPS   C3A34192  25.166  11.741  12.399 -0.1068 -0.3156  0.3323
 2914DOPS   C4A34193  25.058  11.812  12.000 -0.1776  0.3431 -0.3078
 2914DOPS   C1B34194  24.137  11.790  12.774  0.1489 -0.1121 -0.1460
 2914DOPS   D2B34195  24.022  11.624  12.322 -0.3530  0.2282 -0.0196
 2914DOPS   C3B34196  23.895  11.787  11.902 -0.1588 -0.0717 -0.0174
 2914DOPS   C4B34197  23.829  11.638  11.507 -0.5034  0.2468  0.2138
 2915DOPE   NH334198  27.412  15.708  13.942 -0.0515 -0.3393 -0.1058
 2915DOPE   PO434199  27.669  15.612  14.121 -0.3489 -0.0944  0.0758
 2915DOPE   GL134200  27.703  15.451  13.736 -0.0301  0.4902 -0.2018
 2915DOPE   GL234201  27.808  15.533  13.434 -0.0706  0.1010 -0.0568
 2915DOPE   C1A34202  27.770  14.981  13.637  0.1330  0.2742 -0.2886
 2915DOPE   D2A34203  27.644  14.693  13.279 -0.2819  0.1303 -0.1671
 2915DOPE   C3A34204  27.796  14.723  12.854  0.1294  0.2996 -0.1087
 2915DOPE   C4A34205  28.053  14.376  12.681 -0.1225  0.1783  0.0984
 2915DOPE   C1B34206  28.147  15.552  13.040 -0.2346  0.0432 -0.1437
 2915DOPE   D2B34207  28.363  15.515  12.670  0.1951  0.0988 -0.0418
 2915DOPE   C3B34208  28.704  15.227  12.547 -0.0174  0.0584 -0.2585
 2915DOPE   C4B34209  28.976  14.881  12.315 -0.3140  0.0531 -0.1895
 2916DOPE   NH334210   0.770   8.624  13.907 -0.1333 -0.1477 -0.2067
 2916DOPE   PO434211   0.801   8.919  13.958  0.0030 -0.1112 -0.0206
 2916DOPE   GL134212   0.760   8.988  13.545  0.1849 -0.2262  0.1569
 2916DOPE   GL234213   0.749   8.776  13.395  0.3937  0.1979 -0.1093
 2916DOPE   C1A34214   0.849   9.274  13.166  0.3591  0.0393  0.0304
 2916DOPE   D2A34215   1.015   9.554  12.912  0.1852 -0.4701  0.4143
 2916DOPE   C3A34216   1.421   9.376  12.765 -0.2039  0.2468  0.1848
 2916DOPE   C4A34217   1.810   9.491  12.611  0.1222 -0.1380 -0.2035
 2916DOPE   C1B34218   0.531   8.823  13.004  0.1098 -0.0265  0.1398
 2916DOPE   D2B34219   0.533   8.952  12.565  0.1950  0.0425  0.2825
 2916DOPE   C3B34220   0.096   9.019  12.378 -0.0403 -0.2560 -0.1559
 2916DOPE   C4B34221  -0.231   8.863  12.180 -0.0395 -0.0215  0.0242
 2917DOPE   NH334222  29.690  22.266  14.256 -0.1360  0.0337  0.1492
 2917DOPE   PO434223  30.005  22.284  14.099 -0.0410  0.0494 -0.1409
 2917DOPE   GL134224  29.854  22.304  13.786 -0.0682  0.0826 -0.1016
 2917DOPE   GL234225  30.055  22.268  13.588  0.1085 -0.3411  0.0540
 2917DOPE   C1A34226  29.599  22.306  13.406  0.2779 -0.1990  0.1316
 2917DOPE   D2A34227  29.515  22.488  13.025  0.0686 -0.2644 -0.0421
 2917DOPE   C3A34228  29.239  22.658  12.720  0.0900 -0.3175 -0.0498
 2917DOPE   C4A34229  28.920  23.036  12.788 -0.0690  0.0971 -0.4836
 2917DOPE   C1B34230  30.214  21.989  13.251  0.4161 -0.1484  0.4593
 2917DOPE   D2B34231  30.314  21.803  12.796 -0.1203 -0.0456  0.0038
 2917DOPE   C3B34232  30.014  21.910  12.435  0.1227  0.3170 -0.1991
 2917DOPE   C4B34233  29.553  21.883  12.404  0.1726  0.1962  0.0451
 2918DOPC   NC334234  25.476  16.704  13.937  0.0257  0.1797  0.0429
 2918DOPC   PO434235  25.106  16.796  13.810  0.0817 -0.0307 -0.0193
 2918DOPC   GL134236  25.309  16.964  13.456 -0.0338  0.4058 -0.0720
 2918DOPC   GL234237  25.501  17.166  13.479 -0.0329 -0.3141 -0.2501
 2918DOPC   C1A34238  25.458  16.772  13.038  0.1521  0.0877 -0.0399
 2918DOPC   D2A34239  25.637  16.358  13.009  0.1396 -0.1593 -0.4460
 2918DOPC   C3A34240  25.726  16.479  12.560  0.0090 -0.3001 -0.3282
 2918DOPC   C4A34241  25.761  16.778  12.237  0.0277 -0.0053  0.0127
 2918DOPC   C1B34242  25.671  17.443  13.168  0.0066  0.2189 -0.0111
 2918DOPC   D2B34243  25.629  17.545  12.715 -0.1098 -0.0692 -0.1049
 2918DOPC   C3B34244  25.681  17.311  12.312 -0.0936 -0.2624 -0.0682
 2918DOPC   C4B34245  25.820  17.113  11.857 -0.2315 -0.5578  0.0493
 2919DOPC   NC334246  34.109  13.424  14.183 -0.2264  0.1785 -0.1942
 2919DOPC   PO434247  33.995  13.747  13.926 -0.1353 -0.0924 -0.1207
 2919DOPC   GL134248  34.234  13.725  13.645 -0.2140 -0.0533 -0.0155
 2919DOPC   GL234249  34.543  13.778  13.832 -0.0664  0.0625  0.1772
 2919DOPC   C1A34250  34.003  13.600  13.221 -0.0670  0.0422  0.3537
 2919DOPC   D2A34251  33.927  13.634  12.763 -0.2700  0.1204  0.1042
 2919DOPC   C3A34252  34.103  13.836  12.367  0.0426  0.1687 -0.2877
 2919DOPC   C4A34253  34.257  13.658  11.937  0.0449 -0.1826 -0.0824
 2919DOPC   C1B34254  34.625  13.733  13.343  0.0190 -0.0153 -0.0096
 2919DOPC   D2B34255  34.562  13.916  12.954  0.1136  0.2520  0.4043
 2919DOPC   C3B34256  34.283  14.206  12.700 -0.2008  0.0380  0.1238
 2919DOPC   C4B34257  34.214  14.716  12.679  0.0922  0.1941  0.0542
 2920POSM   NC334258  29.520  17.630  14.031 -0.1192 -0.2779 -0.1643
 2920POSM   PO434259  29.150  17.770  13.997 -0.0494  0.0725 -0.0318
 2920POSM   AM134260  29.063  17.677  13.737  0.0585  0.2729 -0.0083
 2920POSM   AM234261  29.189  17.516  13.544  0.0413  0.1634 -0.0958
 2920POSM   T1A34262  28.696  17.674  13.401 -0.1410 -0.2922  0.1000
 2920POSM   C2A34263  28.722  17.799  12.928 -0.1687  0.1907  0.0393
 2920POSM   C3A34264  28.465  17.864  12.539 -0.0098  0.1400  0.0043
 2920POSM   C1B34265  29.174  17.631  13.219 -0.0433 -0.1322  0.0075
 2920POSM   D2B34266  29.115  17.588  12.765 -0.4126 -0.1449  0.0635
 2920POSM   C3B34267  28.866  17.289  12.525  0.2633 -0.2953  0.1200
 2920POSM   C4B34268  28.605  17.300  12.168  0.2306  0.4481  0.0985
 2921POSM   NC334269  23.490  21.318  13.690  0.0655  0.1097 -0.0624
 2921POSM   PO434270  23.303  21.025  13.875  0.2693 -0.1941  0.0830
 2921POSM   AM134271  23.122  21.050  13.562  0.0933  0.1660 -0.1672
 2921POSM   AM234272  23.005  20.875  13.414  0.2606  0.0797 -0.2030
 2921POSM   T1A34273  23.088  21.299  13.121  0.0371  0.2852  0.2034
 2921POSM   C2A34274  23.084  21.636  12.705 -0.1989 -0.0390  0.1230
 2921POSM   C3A34275  22.976  21.983  12.438 -0.2253 -0.1695  0.2003
 2921POSM   C1B34276  23.023  20.720  13.131  0.0037 -0.1891  0.1357
 2921POSM   D2B34277  22.808  20.570  12.746  0.0551  0.1614  0.2586
 2921POSM   C3B34278  22.492  20.904  12.571  0.1021  0.0212  0.0293
 2921POSM   C4B34279  22.175  21.274  12.474  0.2599  0.2142  0.2304
 2922DOPE   NH334280  27.468  13.845  14.159 -0.0410 -0.0305 -0.1731
 2922DOPE   PO434281  27.635  13.746  13.931  0.4519 -0.0654 -0.0604
 2922DOPE   GL134282  27.838  13.882  13.526 -0.0534 -0.0181  0.0488
 2922DOPE   GL234283  28.012  14.011  13.738 -0.1140  0.0489 -0.0522
 2922DOPE   C1A34284  27.705  13.761  13.125  0.2389  0.2111  0.0257
 2922DOPE   D2A34285  27.382  13.471  13.029 -0.2304  0.2661 -0.0483
 2922DOPE   C3A34286  27.437  13.037  13.077  0.2078  0.0441 -0.0557
 2922DOPE   C4A34287  27.225  12.584  13.031  0.2198 -0.0828 -0.1628
 2922DOPE   C1B34288  28.248  13.810  13.429 -0.1926 -0.0144 -0.3471
 2922DOPE   D2B34289  28.444  13.532  13.123 -0.0536  0.1173  0.1619
 2922DOPE   C3B34290  28.909  13.609  13.008  0.0829  0.3306 -0.1246
 2922DOPE   C4B34291  29.342  13.585  13.052 -0.1188 -0.1404  0.0773
 2923DOPE   NH334292  25.541  14.252  13.906  0.1489  0.0534  0.2253
 2923DOPE   PO434293  25.580  13.980  13.779 -0.1242 -0.1289  0.1843
 2923DOPE   GL134294  25.645  13.911  13.390 -0.3383  0.1731  0.1518
 2923DOPE   GL234295  25.859  13.701  13.417  0.2146  0.3238 -0.0187
 2923DOPE   C1A34296  25.724  13.808  12.957  0.2023 -0.0947 -0.0837
 2923DOPE   D2A34297  25.947  13.571  12.654 -0.3652 -0.2766 -0.1620
 2923DOPE   C3A34298  26.160  13.280  12.942  0.0285  0.1310  0.3380
 2923DOPE   C4A34299  26.461  13.072  13.150 -0.0158 -0.0714  0.0009
 2923DOPE   C1B34300  26.286  13.605  13.331  0.2050  0.0434  0.1915
 2923DOPE   D2B34301  26.635  13.616  13.041 -0.0853 -0.0707 -0.1982
 2923DOPE   C3B34302  26.867  13.246  12.838  0.2345 -0.3848  0.0510
 2923DOPE   C4B34303  26.802  12.717  12.836  0.0855 -0.1004 -0.0084
 2924DOPE   NH334304  27.790  22.151  14.097 -0.1352  0.1695  0.0003
 2924DOPE   PO434305  27.555  22.350  14.041 -0.0509  0.2024 -0.1084
 2924DOPE   GL134306  27.659  22.452  13.727  0.3861 -0.3121  0.0518
 2924DOPE   GL234307  27.650  22.746  13.572 -0.1408  0.3356  0.1141
 2924DOPE   C1A34308  27.849  22.233  13.342 -0.2265 -0.1452  0.1352
 2924DOPE   D2A34309  27.878  21.931  12.999  0.0801 -0.0428 -0.2502
 2924DOPE   C3A34310  27.775  22.082  12.594 -0.3734 -0.0546  0.1405
 2924DOPE   C4A34311  27.665  22.369  12.251  0.0242 -0.2968 -0.0393
 2924DOPE   C1B34312  27.389  22.512  13.363 -0.0887  0.3037  0.0655
 2924DOPE   D2B34313  27.019  22.220  13.310  0.1021  0.1191 -0.0878
 2924DOPE   C3B34314  26.768  22.425  12.999 -0.0291 -0.0152  0.0804
 2924DOPE   C4B34315  26.817  22.571  12.602 -0.1081  0.0312  0.1340
 2925DOPC   NC334316  24.133  14.869  13.305 -0.2959  0.2080  0.1184
 2925DOPC   PO434317  24.506  14.958  13.443  0.0823  0.0123  0.0361
 2925DOPC   GL134318  24.775  14.915  13.245  0.2478 -0.2797  0.1130
 2925DOPC   GL234319  24.868  14.653  13.292 -0.1116 -0.0160  0.1501
 2925DOPC   C1A34320  24.893  15.054  12.790  0.2277 -0.2988  0.0094
 2925DOPC   D2A34321  24.904  15.055  12.313 -0.0439 -0.3096  0.0484
 2925DOPC   C3A34322  24.993  15.206  11.872  0.1210  0.0128  0.1336
 2925DOPC   C4A34323  25.302  15.385  11.514 -0.2295 -0.0658 -0.1004
 2925DOPC   C1B34324  24.605  14.579  12.931 -0.2233 -0.1119 -0.0905
 2925DOPC   D2B34325  24.563  14.384  12.524  0.2617  0.0714  0.0256
 2925DOPC   C3B34326  24.325  14.004  12.301  0.3909 -0.3804  0.2604
 2925DOPC   C4B34327  24.382  13.856  11.912  0.2597  0.1916  0.0029
 2926DOPC   NC334328  26.923  16.293  13.658  0.0517 -0.0161 -0.0522
 2926DOPC   PO434329  26.910  15.889  13.721 -0.0664 -0.0030  0.1449
 2926DOPC   GL134330  27.047  16.005  13.338  0.2256 -0.3885 -0.0246
 2926DOPC   GL234331  26.899  15.971  13.126 -0.1104 -0.3052  0.0232
 2926DOPC   C1A34332  27.413  16.089  13.055 -0.0258  0.1865  0.0101
 2926DOPC   D2A34333  27.534  16.099  12.564  0.2326 -0.2667  0.1863
 2926DOPC   C3A34334  27.674  16.347  12.206 -0.0487  0.1768  0.3960
 2926DOPC   C4A34335  27.659  16.758  12.007  0.0030 -0.0092 -0.2098
 2926DOPC   C1B34336  27.062  15.845  12.667 -0.0755 -0.3283  0.3320
 2926DOPC   D2B34337  27.078  16.032  12.239 -0.2956  0.1119 -0.0217
 2926DOPC   C3B34338  27.410  15.851  11.924  0.0476  0.0607  0.0586
 2926DOPC   C4B34339  27.589  16.035  11.534  0.1487  0.3295 -0.0594
 2927POSM   NC334340  33.921   9.234  14.436 -0.1097 -0.3290 -0.1861
 2927POSM   PO434341  33.640   9.218  14.216  0.0236  0.0125  0.3059
 2927POSM   AM134342  33.524   9.357  13.916 -0.4697  0.1221 -0.2596
 2927POSM   AM234343  33.509   9.544  13.730  0.0153 -0.0451 -0.2510
 2927POSM   T1A34344  33.166   9.248  13.552 -0.2338 -0.1648 -0.2048
 2927POSM   C2A34345  32.812   8.984  13.373 -0.0792 -0.4409 -0.1116
 2927POSM   C3A34346  32.628   8.544  13.189  0.2898  0.0372 -0.1866
 2927POSM   C1B34347  33.563   9.559  13.409  0.1071  0.1251  0.2625
 2927POSM   D2B34348  33.582   9.454  12.947 -0.0922 -0.4081 -0.0081
 2927POSM   C3B34349  33.401   9.630  12.567  0.2889  0.0224 -0.5902
 2927POSM   C4B34350  32.972   9.752  12.341  0.0188 -0.3540 -0.2095
 2928DOPC   NC334351  28.363  23.850  13.947  0.0679  0.1124 -0.1952
 2928DOPC   PO434352  28.596  23.511  14.043 -0.1660  0.1645  0.1695
 2928DOPC   GL134353  28.523  23.630  13.605  0.1417  0.3280 -0.2897
 2928DOPC   GL234354  28.562  23.344  13.559  0.0734  0.1694 -0.2137
 2928DOPC   C1A34355  28.328  23.665  13.189 -0.1152  0.0377 -0.0962
 2928DOPC   D2A34356  28.091  23.839  12.839  0.1263  0.1124  0.1145
 2928DOPC   C3A34357  27.933  23.693  12.476  0.0395  0.1178 -0.3233
 2928DOPC   C4A34358  27.877  23.656  11.985  0.0447 -0.0234  0.1654
 2928DOPC   C1B34359  28.970  23.235  13.345  0.3681  0.2786  0.0566
 2928DOPC   D2B34360  29.303  23.083  13.058 -0.2233 -0.2085  0.1090
 2928DOPC   C3B34361  29.365  23.184  12.598 -0.0506 -0.1718  0.0376
 2928DOPC   C4B34362  29.069  23.026  12.283  0.0699 -0.0692 -0.1375
 2929DOPE   NH334363  33.277  10.100  13.978 -0.0892 -0.1557 -0.2530
 2929DOPE   PO434364  33.510  10.363  14.082 -0.0795 -0.0524 -0.0586
 2929DOPE   GL134365  33.347  10.531  13.778 -0.1589 -0.1898  0.3110
 2929DOPE   GL234366  33.581  10.464  13.523 -0.1538  0.2948 -0.1380
 2929DOPE   C1A34367  33.339  10.893  13.456 -0.1756 -0.0184 -0.1310
 2929DOPE   D2A34368  33.311  10.823  13.007 -0.0583 -0.0491 -0.0961
 2929DOPE   C3A34369  33.693  10.680  12.772  0.1680  0.0030  0.1532
 2929DOPE   C4A34370  33.924  10.518  12.453  0.1301  0.0913  0.1179
 2929DOPE   C1B34371  33.780  10.323  13.144  0.1626  0.0907  0.0216
 2929DOPE   D2B34372  33.675   9.986  12.817 -0.0748  0.0674 -0.0151
 2929DOPE   C3B34373  33.830   9.827  12.445  0.0287  0.0383  0.3972
 2929DOPE   C4B34374  34.091   9.676  12.064 -0.0417  0.1376  0.0593
 2930DOPC   NC334375  27.876  17.974  14.171 -0.0185 -0.0373 -0.3545
 2930DOPC   PO434376  28.277  17.914  14.112  0.1617  0.0515 -0.1120
 2930DOPC   GL134377  28.248  17.968  13.727 -0.2073 -0.3907  0.1255
 2930DOPC   GL234378  28.185  17.741  13.632  0.0999 -0.3279  0.2034
 2930DOPC   C1A34379  27.974  18.216  13.420  0.0837 -0.1859  0.3658
 2930DOPC   D2A34380  27.643  18.474  13.255 -0.1549  0.0206 -0.3402
 2930DOPC   C3A34381  27.324  18.664  13.486 -0.0579  0.2941  0.1415
 2930DOPC   C4A34382  26.857  18.793  13.522  0.1039  0.3571  0.4321
 2930DOPC   C1B34383  27.896  17.491  13.358 -0.1158 -0.7630  0.3757
 2930DOPC   D2B34384  27.454  17.369  13.174  0.1938 -0.0120 -0.0146
 2930DOPC   C3B34385  27.371  17.079  12.827 -0.0620  0.0397  0.0195
 2930DOPC   C4B34386  27.456  16.835  12.433 -0.0713 -0.0526 -0.2769
 2931DOPE   NH334387  23.260  20.256  14.261 -0.1233  0.1013 -0.3680
 2931DOPE   PO434388  23.094  20.088  14.038 -0.0170 -0.0555  0.1753
 2931DOPE   GL134389  23.220  20.042  13.781 -0.2564  0.3414  0.1262
 2931DOPE   GL234390  23.088  19.915  13.539 -0.2100  0.2597  0.4302
 2931DOPE   C1A34391  23.570  19.959  13.455 -0.1023  0.1090  0.2233
 2931DOPE   D2A34392  24.013  19.834  13.426  0.0810  0.0749 -0.0582
 2931DOPE   C3A34393  24.186  19.725  13.022 -0.3484 -0.0340  0.2583
 2931DOPE   C4A34394  23.912  19.539  12.658  0.1257 -0.1878 -0.3985
 2931DOPE   C1B34395  23.238  19.755  13.130 -0.0351 -0.1545 -0.1026
 2931DOPE   D2B34396  23.469  19.842  12.757 -0.1337  0.0477  0.3263
 2931DOPE   C3B34397  23.894  20.037  12.769  0.2456 -0.2811  0.5451
 2931DOPE   C4B34398  24.242  20.297  12.724  0.1896 -0.1387 -0.0131
 2932DOPE   NH334399   0.637   7.774  13.898  0.0306 -0.3837  0.3446
 2932DOPE   PO434400   0.685   8.090  13.963 -0.0013  0.1984  0.0236
 2932DOPE   GL134401   0.462   8.184  13.688 -0.0876  0.1745  0.0593
 2932DOPE   GL234402   0.586   8.092  13.382  0.0611 -0.1924  0.0749
 2932DOPE   C1A34403   0.303   8.522  13.424  0.1078  0.1579 -0.1343
 2932DOPE   D2A34404  -0.152   8.632  13.375  0.0308  0.2376  0.0053
 2932DOPE   C3A34405  -0.337   8.936  13.120  0.1275  0.0947  0.0684
 2932DOPE   C4A34406  -0.727   9.194  13.095  0.2605  0.2762 -0.1252
 2932DOPE   C1B34407   0.781   8.177  13.015  0.1322  0.0732 -0.0832
 2932DOPE   D2B34408   0.682   8.365  12.617  0.0791 -0.0861  0.3327
 2932DOPE   C3B34409   0.913   8.677  12.364 -0.3743  0.2474 -0.0939
 2932DOPE   C4B34410   1.159   8.956  12.081 -0.1715 -0.0657 -0.0782
 2933DOPC   NC334411  29.694  12.391  14.965 -0.0630 -0.2132  0.0464
 2933DOPC   PO434412  29.841  12.631  14.648 -0.3302 -0.1134  0.1538
 2933DOPC   GL134413  29.908  12.963  14.373 -0.0131  0.1488 -0.0889
 2933DOPC   GL234414  29.867  12.814  14.134  0.1313 -0.1014  0.3003
 2933DOPC   C1A34415  30.065  13.173  13.942  0.0009  0.0809  0.2985
 2933DOPC   D2A34416  30.152  13.192  13.519  0.0689  0.1080  0.2281
 2933DOPC   C3A34417  29.794  13.304  13.317 -0.0549 -0.0109 -0.2576
 2933DOPC   C4A34418  29.706  13.208  12.876  0.0157  0.1396  0.3574
 2933DOPC   C1B34419  29.791  12.778  13.700 -0.1112  0.1972  0.0320
 2933DOPC   D2B34420  29.627  12.787  13.221  0.0410 -0.1894  0.0503
 2933DOPC   C3B34421  29.813  12.661  12.847 -0.2199  0.4671 -0.2120
 2933DOPC   C4B34422  30.134  12.747  12.472  0.1263 -0.0379 -0.3744
 2934DOPC   NC334423  31.261  13.952  13.816 -0.1717  0.3175  0.0013
 2934DOPC   PO434424  31.360  14.237  13.984  0.1685  0.2638 -0.0650
 2934DOPC   GL134425  31.292  14.378  13.620  0.3218 -0.0090 -0.3724
 2934DOPC   GL234426  31.472  14.263  13.450 -0.0610  0.2084 -0.1130
 2934DOPC   C1A34427  31.089  14.707  13.355  0.1810 -0.1712  0.0767
 2934DOPC   D2A34428  30.773  14.982  13.199  0.0143  0.3951 -0.0407
 2934DOPC   C3A34429  30.722  15.176  12.866  0.1320 -0.0644  0.1305
 2934DOPC   C4A34430  30.980  15.356  12.536 -0.0857  0.1916 -0.0510
 2934DOPC   C1B34431  31.035  14.253  13.208  0.3302 -0.1400 -0.3939
 2934DOPC   D2B34432  30.794  14.390  12.829 -0.2914  0.0807 -0.0033
 2934DOPC   C3B34433  30.859  14.418  12.386  0.2497 -0.1333 -0.0747
 2934DOPC   C4B34434  30.837  14.142  12.034  0.2424 -0.1061  0.1793
 2935DOPC   NC334435  33.115  22.033  13.540  0.1523 -0.0732 -0.0017
 2935DOPC   PO434436  33.088  21.675  13.708 -0.1736  0.1333 -0.2549
 2935DOPC   GL134437  33.238  21.531  13.366  0.1523  0.0211 -0.1245
 2935DOPC   GL234438  32.999  21.560  13.172 -0.0674 -0.0937 -0.1169
 2935DOPC   C1A34439  33.606  21.675  13.118  0.0425  0.1944  0.0877
 2935DOPC   D2A34440  33.959  21.526  12.875 -0.1556  0.4652  0.0129
 2935DOPC   C3A34441  34.223  21.686  12.524  0.1763 -0.0807  0.0260
 2935DOPC   C4A34442  34.196  21.840  12.090 -0.3862  0.0558  0.4417
 2935DOPC   C1B34443  33.190  21.713  12.808  0.0819 -0.0082 -0.0295
 2935DOPC   D2B34444  33.170  21.876  12.356  0.2235  0.0762 -0.1608
 2935DOPC   C3B34445  33.413  21.652  11.982  0.1751 -0.0808  0.1236
 2935DOPC   C4B34446  33.454  21.661  11.494  0.4318 -0.1344 -0.0093
 2936DOPC   NC334447  21.746  11.296  13.864  0.1398  0.1616 -0.1160
 2936DOPC   PO434448  22.155  11.258  13.882 -0.1704 -0.0689  0.2212
 2936DOPC   GL134449  22.064  11.197  13.539 -0.5144 -0.0078  0.1584
 2936DOPC   GL234450  21.874  10.939  13.499 -0.0950  0.0711 -0.0065
 2936DOPC   C1A34451  22.043  11.455  13.111 -0.1191 -0.0930 -0.3338
 2936DOPC   D2A34452  21.649  11.564  12.828  0.0679 -0.0424 -0.3418
 2936DOPC   C3A34453  21.597  11.425  12.420 -0.1069 -0.1704 -0.1396
 2936DOPC   C4A34454  21.712  11.300  12.028 -0.0640 -0.0148 -0.5161
 2936DOPC   C1B34455  21.531  10.846  13.174  0.1766  0.0983 -0.0844
 2936DOPC   D2B34456  21.286  10.620  12.898 -0.0425 -0.1187  0.2875
 2936DOPC   C3B34457  21.495  10.320  12.571 -0.0828 -0.1824 -0.1585
 2936DOPC   C4B34458  21.609   9.921  12.326  0.0366  0.0700 -0.1926
 2937DOPC   NC334459  29.841  15.294  14.036  0.2639 -0.0056  0.0842
 2937DOPC   PO434460  29.934  15.644  14.071  0.0640 -0.0705 -0.0346
 2937DOPC   GL134461  29.844  15.616  13.680  0.2817  0.3672 -0.3453
 2937DOPC   GL234462  30.061  15.670  13.565 -0.0453  0.4106  0.2245
 2937DOPC   C1A34463  29.675  15.853  13.288 -0.1301  0.0326  0.1497
 2937DOPC   D2A34464  29.601  15.869  12.847 -0.2378  0.1827 -0.1285
 2937DOPC   C3A34465  29.359  16.137  12.516  0.3216  0.3138 -0.0096
 2937DOPC   C4A34466  29.402  16.385  12.101 -0.0552 -0.1630  0.0087
 2937DOPC   C1B34467  29.914  15.197  13.504 -0.0752 -0.2059  0.0139
 2937DOPC   D2B34468  29.779  14.900  13.165 -0.1875  0.0013 -0.0580
 2937DOPC   C3B34469  29.964  14.936  12.682 -0.3091  0.0583  0.0410
 2937DOPC   C4B34470  30.247  14.935  12.327  0.1016  0.0798  0.0864
 2938DOPE   NH334471  32.449  18.168  13.605 -0.0565 -0.0410 -0.2026
 2938DOPE   PO434472  32.556  17.863  13.509 -0.1387  0.0473  0.1216
 2938DOPE   GL134473  32.675  17.803  13.186 -0.0080 -0.1360 -0.3253
 2938DOPE   GL234474  32.739  17.551  13.052 -0.1179  0.0268 -0.3787
 2938DOPE   C1A34475  32.943  17.987  12.859  0.2147 -0.1035 -0.1305
 2938DOPE   D2A34476  33.134  17.772  12.460  0.0333  0.2963 -0.1047
 2938DOPE   C3A34477  33.317  18.115  12.270  0.0726 -0.1828 -0.0755
 2938DOPE   C4A34478  33.555  18.453  12.177 -0.0604  0.0561 -0.0904
 2938DOPE   C1B34479  32.676  17.611  12.579  0.1596  0.0606  0.2120
 2938DOPE   D2B34480  32.708  17.784  12.143 -0.2678  0.0582  0.1854
 2938DOPE   C3B34481  33.061  17.975  11.817 -0.1337  0.0434 -0.0977
 2938DOPE   C4B34482  33.530  18.085  11.811 -0.0764 -0.0032  0.5083
 2939DOPE   NH334483  32.738  17.418  13.679 -0.2731 -0.2017  0.0594
 2939DOPE   PO434484  32.957  17.182  13.659  0.1932  0.0471  0.1389
 2939DOPE   GL134485  33.041  17.255  13.205 -0.2489 -0.0609  0.2188
 2939DOPE   GL234486  33.141  16.967  13.127 -0.2186  0.1341  0.0919
 2939DOPE   C1A34487  33.306  17.437  12.840 -0.1422 -0.1885  0.1827
 2939DOPE   D2A34488  33.509  17.375  12.426 -0.1821 -0.0907  0.1355
 2939DOPE   C3A34489  33.308  17.558  12.032  0.0855 -0.1131 -0.1390
 2939DOPE   C4A34490  33.182  17.396  11.631  0.0500 -0.0224  0.0483
 2939DOPE   C1B34491  32.827  17.134  12.826  0.0149  0.1630  0.0371
 2939DOPE   D2B34492  33.025  17.261  12.402  0.0999  0.0287 -0.0548
 2939DOPE   C3B34493  32.736  17.221  12.045  0.1229 -0.0944  0.0320
 2939DOPE   C4B34494  32.636  17.283  11.595 -0.1854 -0.3248  0.0717
 2940POSM   NC334495  28.431  19.998  13.823 -0.1512  0.0642 -0.0423
 2940POSM   PO434496  28.791  20.157  13.900  0.4559  0.0625  0.1490
 2940POSM   AM134497  28.802  20.221  13.591 -0.2174  0.1358  0.2145
 2940POSM   AM234498  28.614  20.197  13.366  0.2403  0.0400  0.1970
 2940POSM   T1A34499  28.949  20.427  13.193 -0.1552  0.0370  0.0869
 2940POSM   C2A34500  28.948  20.356  12.768 -0.1237  0.0435  0.1467
 2940POSM   C3A34501  29.156  20.561  12.381 -0.2993  0.0708 -0.0787
 2940POSM   C1B34502  28.803  19.942  13.116 -0.0243 -0.3137  0.2475
 2940POSM   D2B34503  29.110  19.769  12.775 -0.0802 -0.2194 -0.0987
 2940POSM   C3B34504  29.263  20.011  12.443 -0.0637  0.1989 -0.1081
 2940POSM   C4B34505  29.187  20.085  12.008  0.2082 -0.1859  0.1690
 2941DOPC   NC334506  34.604   8.269  13.790 -0.0985 -0.2148  0.2441
 2941DOPC   PO434507  34.243   8.354  13.933  0.0055  0.1437 -0.1447
 2941DOPC   GL134508  33.957   8.515  13.662  0.1145  0.1136 -0.1432
 2941DOPC   GL234509  34.127   8.736  13.561  0.2538  0.1669 -0.1816
 2941DOPC   C1A34510  33.962   8.479  13.186 -0.3263 -0.0838  0.0534
 2941DOPC   D2A34511  33.895   8.385  12.730  0.1803  0.0460  0.0094
 2941DOPC   C3A34512  34.021   8.360  12.253  0.0591 -0.0701 -0.1812
 2941DOPC   C4A34513  33.971   8.675  11.859 -0.1613 -0.2073  0.0970
 2941DOPC   C1B34514  34.279   9.189  13.579 -0.1276  0.3363  0.1513
 2941DOPC   D2B34515  34.441   9.413  13.294  0.1539 -0.2384  0.1161
 2941DOPC   C3B34516  34.822   9.519  13.055  0.2132  0.2820  0.1921
 2941DOPC   C4B34517  35.163   9.413  12.799  0.1147  0.2806 -0.1093
 2942POSM   NC334518  28.437  13.653  14.318 -0.1154 -0.0890  0.0913
 2942POSM   PO434519  28.350  13.313  14.506 -0.4768  0.0430 -0.2167
 2942POSM   AM134520  28.517  13.114  14.287  0.0026  0.1595  0.0087
 2942POSM   AM234521  28.334  13.047  14.080  0.1522 -0.0853 -0.0049
 2942POSM   T1A34522  28.798  13.176  13.914  0.1350  0.0069 -0.2723
 2942POSM   C2A34523  28.642  13.242  13.473 -0.1595 -0.0365  0.2243
 2942POSM   C3A34524  28.243  13.084  13.311  0.0377 -0.0636  0.1642
 2942POSM   C1B34525  28.423  12.850  13.778  0.0014 -0.1762 -0.2572
 2942POSM   D2B34526  28.534  12.662  13.400 -0.0218  0.0331 -0.2560
 2942POSM   C3B34527  28.916  12.421  13.243  0.1646 -0.1264 -0.0174
 2942POSM   C4B34528  29.336  12.446  13.042 -0.2544 -0.0726 -0.1957
 2943POSM   NC334529  22.196  19.631  13.938  0.0265  0.0043  0.0695
 2943POSM   PO434530  21.854  19.697  14.201 -0.0507  0.1420 -0.0379
 2943POSM   AM134531  21.705  19.714  13.895 -0.1900 -0.1817 -0.1277
 2943POSM   AM234532  21.708  19.958  13.713 -0.2162 -0.1031 -0.1335
 2943POSM   T1A34533  21.512  19.571  13.434 -0.2403 -0.3693  0.3782
 2943POSM   C2A34534  21.160  19.487  13.101  0.0816 -0.0069  0.1818
 2943POSM   C3A34535  21.012  19.534  12.670 -0.1009  0.1201 -0.1052
 2943POSM   C1B34536  21.882  20.240  13.527  0.1969  0.2496 -0.0934
 2943POSM   D2B34537  22.207  20.497  13.323  0.2369  0.0673  0.0259
 2943POSM   C3B34538  22.638  20.455  13.244 -0.2011 -0.0162 -0.0862
 2943POSM   C4B34539  23.002  20.231  13.121 -0.0243 -0.0048 -0.2404
 2944DOPS   CNO34540  26.544  20.381  13.995 -0.1318 -0.0352  0.0344
 2944DOPS   PO434541  26.413  20.675  13.764 -0.0530  0.0116 -0.0991
 2944DOPS   GL134542  26.214  20.456  13.486 -0.3024 -0.0831 -0.1386
 2944DOPS   GL234543  26.201  20.222  13.650 -0.0544 -0.0856 -0.2963
 2944DOPS   C1A34544  26.061  20.377  13.057 -0.1283 -0.1307 -0.1401
 2944DOPS   D2A34545  25.604  20.451  13.036  0.2096  0.1318  0.1753
 2944DOPS   C3A34546  25.457  20.383  12.568 -0.0734  0.4055  0.1142
 2944DOPS   C4A34547  25.409  20.576  12.124 -0.1523  0.0098 -0.1118
 2944DOPS   C1B34548  26.092  19.924  13.301 -0.0630  0.1469 -0.0838
 2944DOPS   D2B34549  26.242  19.696  12.946 -0.1001 -0.0521  0.1457
 2944DOPS   C3B34550  26.332  19.863  12.549 -0.0646  0.2230 -0.0904
 2944DOPS   C4B34551  26.318  20.016  12.097 -0.1423  0.0386  0.1915
 2945DOPC   NC334552  28.264  19.601  14.089  0.3051 -0.1057 -0.2925
 2945DOPC   PO434553  28.672  19.555  13.982  0.1945  0.3138 -0.0500
 2945DOPC   GL134554  28.450  19.436  13.665 -0.0135 -0.2274 -0.1294
 2945DOPC   GL234555  28.335  19.648  13.520  0.2912  0.0581 -0.0526
 2945DOPC   C1A34556  28.623  19.388  13.195  0.0713  0.0201 -0.2832
 2945DOPC   D2A34557  28.323  19.166  12.912 -0.0913 -0.1492  0.1759
 2945DOPC   C3A34558  28.580  18.759  12.823 -0.2780 -0.2584  0.1703
 2945DOPC   C4A34559  28.611  18.378  12.508 -0.3153 -0.2078  0.0054
 2945DOPC   C1B34560  28.301  19.736  13.087  0.1747  0.2278 -0.1108
 2945DOPC   D2B34561  28.434  20.134  12.857  0.3453 -0.0028 -0.1874
 2945DOPC   C3B34562  28.305  20.219  12.464  0.0131  0.0318  0.1615
 2945DOPC   C4B34563  28.226  20.503  12.134  0.2308  0.0003  0.1005
 2946DOPE   NH334564  30.070  16.920  14.030  0.2326  0.0089  0.1437
 2946DOPE   PO434565  29.856  17.050  13.828  0.0994 -0.1261  0.0298
 2946DOPE   GL134566  29.679  16.863  13.499  0.0753  0.2314 -0.0209
 2946DOPE   GL234567  29.484  17.128  13.428 -0.2291 -0.0590 -0.0827
 2946DOPE   C1A34568  29.475  16.828  13.020 -0.0410  0.1137 -0.1858
 2946DOPE   D2A34569  29.348  17.026  12.610  0.1634 -0.0194  0.1364
 2946DOPE   C3A34570  29.361  16.973  12.178  0.3157 -0.0147 -0.1493
 2946DOPE   C4A34571  29.031  17.201  11.834  0.2639  0.3257  0.0632
 2946DOPE   C1B34572  29.625  17.448  13.099 -0.0389  0.1427 -0.0388
 2946DOPE   D2B34573  30.000  17.663  12.973  0.1022  0.2029  0.0918
 2946DOPE   C3B34574  30.185  17.694  12.598  0.2900 -0.1956  0.0666
 2946DOPE   C4B34575  29.929  17.709  12.182 -0.2431  0.5112  0.3694
 2947DOPE   NH334576  33.137   9.357  14.161  0.0786  0.1645 -0.0531
 2947DOPE   PO434577  33.213   9.652  14.137  0.0898 -0.0534 -0.0113
 2947DOPE   GL134578  32.983   9.696  13.867 -0.3823 -0.5095 -0.3692
 2947DOPE   GL234579  33.074   9.780  13.638 -0.1094  0.2820  0.0760
 2947DOPE   C1A34580  32.624  10.031  13.804  0.0999  0.1889 -0.0694
 2947DOPE   D2A34581  32.243  10.072  13.637 -0.1145 -0.1039  0.0635
 2947DOPE   C3A34582  32.042  10.478  13.650 -0.0150 -0.3390  0.0487
 2947DOPE   C4A34583  31.848  10.898  13.563 -0.0887 -0.2507 -0.0675
 2947DOPE   C1B34584  33.132   9.577  13.203 -0.0537 -0.1779 -0.2367
 2947DOPE   D2B34585  33.190   9.186  13.013  0.0461  0.0019 -0.1916
 2947DOPE   C3B34586  32.875   8.924  12.872 -0.0596 -0.1575  0.0703
 2947DOPE   C4B34587  32.777   8.561  12.570 -0.2858 -0.0975 -0.0178
 2948DOPC   NC334588  31.350  11.735  14.180 -0.1524  0.2074  0.2032
 2948DOPC   PO434589  31.273  11.440  14.433  0.0305 -0.1716 -0.0306
 2948DOPC   GL134590  31.385  11.205  14.129  0.0066  0.0027  0.2201
 2948DOPC   GL234591  31.556  11.259  13.894 -0.0780 -0.0982 -0.2293
 2948DOPC   C1A34592  31.167  11.025  13.798  0.0238 -0.1027 -0.0125
 2948DOPC   D2A34593  31.144  10.783  13.454  0.1196 -0.3010  0.0556
 2948DOPC   C3A34594  31.153  10.267  13.397  0.4623 -0.2380  0.0106
 2948DOPC   C4A34595  31.223  10.023  13.004  0.2177 -0.1124  0.0304
 2948DOPC   C1B34596  31.505  11.266  13.432  0.0211  0.0047  0.0104
 2948DOPC   D2B34597  31.484  10.951  13.055  0.2935 -0.3432  0.0578
 2948DOPC   C3B34598  31.222  10.883  12.639 -0.0465  0.0728  0.1467
 2948DOPC   C4B34599  31.023  10.703  12.283  0.1387  0.1448  0.1117
 2949POSM   NC334600  31.560  20.972  13.431 -0.0984  0.1400 -0.2483
 2949POSM   PO434601  31.418  21.335  13.570 -0.1375 -0.0163  0.1093
 2949POSM   AM134602  31.327  21.525  13.323 -0.0011 -0.0321 -0.1736
 2949POSM   AM234603  31.115  21.591  13.175 -0.0417  0.0389 -0.0241
 2949POSM   T1A34604  31.500  21.736  12.885 -0.0970 -0.0308 -0.1784
 2949POSM   C2A34605  31.710  21.829  12.464 -0.2186  0.2289 -0.3480
 2949POSM   C3A34606  31.503  21.879  12.056 -0.4322 -0.1532  0.0758
 2949POSM   C1B34607  30.996  21.653  12.890 -0.0609 -0.4644  0.0386
 2949POSM   D2B34608  30.817  21.501  12.503 -0.1633  0.2539  0.1362
 2949POSM   C3B34609  31.085  21.520  12.137  0.0946  0.0146  0.0034
 2949POSM   C4B34610  31.188  21.547  11.684  0.2492 -0.0689 -0.0747
 2950POSM   NC334611  28.262  21.424  13.773  0.0728  0.1178  0.0867
 2950POSM   PO434612  28.568  21.229  13.765 -0.0608 -0.2366 -0.1341
 2950POSM   AM134613  28.733  21.425  13.547  0.1376 -0.1340  0.1710
 2950POSM   AM234614  28.928  21.328  13.348 -0.0482  0.1971 -0.2039
 2950POSM   T1A34615  28.793  21.816  13.275  0.0508 -0.2383 -0.0980
 2950POSM   C2A34616  28.692  21.953  12.850 -0.0810 -0.0035  0.0956
 2950POSM   C3A34617  28.609  22.192  12.456  0.1521 -0.0305 -0.3461
 2950POSM   C1B34618  28.882  21.415  13.023 -0.1317  0.0583 -0.1817
 2950POSM   D2B34619  28.573  21.497  12.704  0.4235  0.1881 -0.0331
 2950POSM   C3B34620  28.254  21.745  12.492  0.1406  0.0564 -0.0564
 2950POSM   C4B34621  28.150  22.052  12.226 -0.1621 -0.1930  0.1416
 2951DOPC   NC334622  31.676  22.242  13.691  0.2988  0.0731 -0.2028
 2951DOPC   PO434623  31.378  22.273  13.941  0.2297 -0.1550  0.0543
 2951DOPC   GL134624  31.239  22.313  13.457 -0.1143 -0.2134  0.3682
 2951DOPC   GL234625  31.360  22.580  13.380 -0.0717  0.0116  0.1220
 2951DOPC   C1A34626  31.245  22.147  13.027 -0.1308 -0.0667  0.3174
 2951DOPC   D2A34627  31.222  22.118  12.579 -0.0796  0.1158  0.0188
 2951DOPC   C3A34628  30.930  22.066  12.190  0.0810 -0.4403 -0.0362
 2951DOPC   C4A34629  30.855  22.071  11.671  0.0457  0.2956  0.1960
 2951DOPC   C1B34630  31.611  22.684  13.069 -0.3479  0.1673  0.1327
 2951DOPC   D2B34631  31.786  22.850  12.690  0.1919  0.2033 -0.1284
 2951DOPC   C3B34632  31.505  22.867  12.311 -0.0404  0.1716  0.2153
 2951DOPC   C4B34633  31.275  22.908  11.856  0.0723  0.1002 -0.0423
 2952DOPS   CNO34634  28.989  16.672  14.042 -0.4158  0.0015 -0.1036
 2952DOPS   PO434635  28.631  16.520  14.105  0.3445  0.0853 -0.0329
 2952DOPS   GL134636  28.481  16.512  13.709 -0.0295 -0.2296  0.0142
 2952DOPS   GL234637  28.768  16.490  13.521 -0.1445  0.1769 -0.2029
 2952DOPS   C1A34638  28.266  16.652  13.346  0.1842 -0.0029  0.1162
 2952DOPS   D2A34639  28.125  16.495  12.957 -0.3252  0.0390  0.0958
 2952DOPS   C3A34640  27.663  16.527  12.915  0.0374 -0.1543  0.0329
 2952DOPS   C4A34641  27.215  16.537  12.750  0.0639  0.2367 -0.0277
 2952DOPS   C1B34642  28.587  16.330  13.170  0.2641  0.0365 -0.1060
 2952DOPS   D2B34643  28.443  16.151  12.733  0.0646 -0.0396  0.0540
 2952DOPS   C3B34644  28.130  16.362  12.494 -0.1425 -0.1867  0.0750
 2952DOPS   C4B34645  27.901  16.729  12.533 -0.2571 -0.2218  0.1960
 2953DOPE   NH334646  32.084  16.498  13.349 -0.0690  0.0307 -0.2876
 2953DOPE   PO434647  32.272  16.293  13.508 -0.1305  0.0193 -0.0260
 2953DOPE   GL134648  32.380  16.087  13.159  0.1438 -0.0456  0.1774
 2953DOPE   GL234649  32.118  16.149  12.984  0.0482 -0.2295 -0.0442
 2953DOPE   C1A34650  32.311  15.746  12.853  0.2670 -0.0159 -0.2636
 2953DOPE   D2A34651  32.202  15.608  12.414  0.0446  0.0849  0.2628
 2953DOPE   C3A34652  32.380  15.431  12.066 -0.1100  0.1194  0.0883
 2953DOPE   C4A34653  32.570  15.126  11.774  0.1353 -0.0359 -0.0926
 2953DOPE   C1B34654  32.236  16.135  12.539 -0.0192  0.0733 -0.0776
 2953DOPE   D2B34655  32.088  16.060  12.086 -0.3516  0.0589  0.2370
 2953DOPE   C3B34656  31.778  15.827  11.876 -0.0088 -0.0309 -0.0884
 2953DOPE   C4B34657  31.497  15.501  11.793 -0.0747 -0.2246 -0.0793
 2954DOPS   CNO34658  29.592  21.496  13.885 -0.1584 -0.1314 -0.1679
 2954DOPS   PO434659  29.646  21.878  13.884 -0.1357  0.1322  0.2845
 2954DOPS   GL134660  29.465  21.882  13.414 -0.0831 -0.1517 -0.3909
 2954DOPS   GL234661  29.723  21.807  13.295 -0.1111 -0.1686  0.2190
 2954DOPS   C1A34662  29.297  21.754  12.976 -0.0460 -0.2063  0.0789
 2954DOPS   D2A34663  29.088  21.694  12.584  0.0743 -0.2269  0.3177
 2954DOPS   C3A34664  29.030  21.518  12.179 -0.1433  0.1341 -0.1623
 2954DOPS   C4A34665  29.206  21.195  11.886  0.1940  0.0278  0.1511
 2954DOPS   C1B34666  29.797  22.042  12.918 -0.1569  0.0121 -0.3182
 2954DOPS   D2B34667  29.679  22.311  12.600  0.1459 -0.5964  0.2164
 2954DOPS   C3B34668  29.411  22.324  12.207 -0.0641  0.0965 -0.0595
 2954DOPS   C4B34669  29.064  22.471  12.284 -0.2591  0.0040 -0.2851
 2955DOPS   CNO34670  26.079  13.209  14.640 -0.0714 -0.0028 -0.3108
 2955DOPS   PO434671  26.031  13.284  14.280  0.0144  0.2921  0.1790
 2955DOPS   GL134672  26.036  13.132  13.955 -0.3063 -0.1585 -0.1392
 2955DOPS   GL234673  26.035  12.855  13.814 -0.5658 -0.2338 -0.0828
 2955DOPS   C1A34674  25.969  13.217  13.502 -0.1349 -0.0877 -0.1442
 2955DOPS   D2A34675  25.720  13.290  13.186 -0.4021  0.1283 -0.0645
 2955DOPS   C3A34676  25.770  13.025  12.853  0.2347 -0.2924 -0.0631
 2955DOPS   C4A34677  25.808  12.569  12.830 -0.0320 -0.2309 -0.1190
 2955DOPS   C1B34678  26.253  12.465  13.683 -0.0064  0.1817 -0.1896
 2955DOPS   D2B34679  26.371  12.178  13.327  0.1900  0.3401 -0.3328
 2955DOPS   C3B34680  26.395  12.290  12.921  0.2610  0.1777 -0.2532
 2955DOPS   C4B34681  26.248  12.402  12.550 -0.2514 -0.2219  0.1094
 2956POSM   NC334682  24.861  19.556  13.740 -0.2989 -0.0947 -0.1573
 2956POSM   PO434683  24.653  19.294  13.522 -0.1260  0.1375  0.1313
 2956POSM   AM134684  24.879  19.255  13.327 -0.2372 -0.1245  0.0458
 2956POSM   AM234685  25.178  19.278  13.343 -0.0549 -0.1357  0.0979
 2956POSM   T1A34686  25.007  18.975  12.941  0.2877  0.6300 -0.2280
 2956POSM   C2A34687  25.193  19.028  12.534  0.1173  0.1811 -0.4794
 2956POSM   C3A34688  25.154  19.332  12.203  0.1288 -0.1142  0.1550
 2956POSM   C1B34689  25.408  19.195  13.091  0.0613  0.3928 -0.0700
 2956POSM   D2B34690  25.518  19.312  12.691  0.0199 -0.0012 -0.1050
 2956POSM   C3B34691  25.346  19.685  12.463 -0.0560 -0.1692 -0.2174
 2956POSM   C4B34692  25.515  20.013  12.173  0.0116  0.1018 -0.4281
 2957POSM   NC334693  32.411  18.931  13.165 -0.0358 -0.0415  0.1100
 2957POSM   PO434694  32.304  18.662  13.432  0.0900  0.1226  0.0125
 2957POSM   AM134695  32.331  18.452  13.196 -0.1312 -0.1128  0.3172
 2957POSM   AM234696  32.499  18.228  13.136 -0.0289  0.1695 -0.0446
 2957POSM   T1A34697  32.009  18.263  12.821  0.1543 -0.1296  0.1015
 2957POSM   C2A34698  31.638  17.999  12.731  0.3925 -0.0225  0.1334
 2957POSM   C3A34699  31.228  17.816  12.750 -0.0353 -0.2097 -0.0632
 2957POSM   C1B34700  32.442  18.130  12.790 -0.1309 -0.2492 -0.1591
 2957POSM   D2B34701  32.617  18.292  12.377 -0.0919  0.0771  0.2177
 2957POSM   C3B34702  32.529  18.674  12.129  0.0778  0.1569 -0.2968
 2957POSM   C4B34703  32.431  18.756  11.660  0.2587 -0.0467  0.0453
 2958DOPC   NC334704  25.106  13.091  14.119 -0.3869 -0.0732  0.1504
 2958DOPC   PO434705  25.263  13.410  13.965  0.0115  0.3716  0.3128
 2958DOPC   GL134706  25.388  13.368  13.480 -0.3984 -0.0421 -0.1908
 2958DOPC   GL234707  25.457  13.084  13.551  0.1239  0.0833 -0.0305
 2958DOPC   C1A34708  25.122  13.255  13.153  0.2365  0.1123  0.2543
 2958DOPC   D2A34709  24.870  13.425  12.738 -0.0386  0.2516 -0.0396
 2958DOPC   C3A34710  25.152  13.667  12.430  0.2858 -0.0841  0.3471
 2958DOPC   C4A34711  25.204  14.084  12.246 -0.1318 -0.1846  0.1064
 2958DOPC   C1B34712  25.713  12.797  13.327  0.3289 -0.1728 -0.0102
 2958DOPC   D2B34713  26.157  12.759  13.277  0.1099  0.1133  0.1309
 2958DOPC   C3B34714  26.252  12.803  12.808  0.1790  0.3173  0.2224
 2958DOPC   C4B34715  26.258  13.179  12.444 -0.0014  0.1836 -0.2127
 2959POSM   NC334716  28.938  22.581  13.944 -0.2296  0.0474  0.0756
 2959POSM   PO434717  28.631  22.721  14.082  0.0838  0.1417 -0.1784
 2959POSM   AM134718  28.537  22.797  13.774  0.2745  0.0732 -0.3797
 2959POSM   AM234719  28.710  22.851  13.563 -0.0348 -0.0630 -0.0942
 2959POSM   T1A34720  28.172  23.070  13.602 -0.0161  0.2245  0.0626
 2959POSM   C2A34721  28.062  23.249  13.181  0.1706  0.0483  0.0235
 2959POSM   C3A34722  28.220  23.364  12.787  0.2125  0.3273  0.1091
 2959POSM   C1B34723  28.528  22.833  13.286 -0.3438 -0.2634  0.0211
 2959POSM   D2B34724  28.384  22.872  12.858 -0.1731 -0.1954 -0.3331
 2959POSM   C3B34725  27.969  22.961  12.642 -0.0758  0.0928 -0.4080
 2959POSM   C4B34726  27.600  22.873  12.405  0.1548  0.2475  0.0002
 2960DOPC   NC334727  29.359  19.113  13.954 -0.0781  0.0210  0.1390
 2960DOPC   PO434728  29.148  19.392  13.784  0.2314  0.1995  0.1075
 2960DOPC   GL134729  29.063  19.203  13.447 -0.4683 -0.1005  0.0935
 2960DOPC   GL234730  29.263  19.084  13.381 -0.1240  0.2671  0.0027
 2960DOPC   C1A34731  29.044  19.228  12.965  0.1638  0.0741  0.1214
 2960DOPC   D2A34732  28.926  19.113  12.527 -0.1499 -0.1345  0.0400
 2960DOPC   C3A34733  28.453  19.217  12.473  0.1529  0.0297  0.3049
 2960DOPC   C4A34734  28.155  19.542  12.674 -0.0543 -0.2074  0.0355
 2960DOPC   C1B34735  29.562  18.951  13.041 -0.1725 -0.1697  0.1109
 2960DOPC   D2B34736  29.703  18.894  12.637 -0.2121 -0.0451 -0.0868
 2960DOPC   C3B34737  29.432  18.990  12.288  0.0415 -0.0991  0.0321
 2960DOPC   C4B34738  29.537  19.105  11.830  0.4805  0.0548  0.1538
 2961POSM   NC334739  30.458  17.582  13.892 -0.0923 -0.2207  0.0115
 2961POSM   PO434740  30.221  17.621  13.574 -0.0275  0.0496 -0.0248
 2961POSM   AM134741  30.129  17.378  13.384  0.0507 -0.0763 -0.4058
 2961POSM   AM234742  30.043  17.102  13.366  0.1131 -0.0678  0.0254
 2961POSM   T1A34743  30.297  17.297  12.890  0.1538  0.0548  0.0175
 2961POSM   C2A34744  30.282  17.045  12.486 -0.1076  0.0597  0.1943
 2961POSM   C3A34745  30.333  16.807  12.116  0.2912  0.1708  0.1259
 2961POSM   C1B34746  29.915  17.078  13.093  0.0966 -0.0841 -0.1544
 2961POSM   D2B34747  29.870  17.210  12.698 -0.2295  0.0752  0.0809
 2961POSM   C3B34748  29.662  17.548  12.567  0.2008  0.1488  0.3153
 2961POSM   C4B34749  29.586  17.927  12.851  0.2401  0.1685  0.0912
 2962POSM   NC334750   0.419  12.493  14.199  0.2640 -0.0435  0.1076
 2962POSM   PO434751   0.207  12.188  14.126 -0.0543 -0.4433  0.1767
 2962POSM   AM134752   0.259  12.038  13.825 -0.3017 -0.1497 -0.1752
 2962POSM   AM234753   0.147  12.083  13.560  0.6778  0.0728 -0.0273
 2962POSM   T1A34754   0.653  11.795  13.568 -0.0404 -0.1974  0.0937
 2962POSM   C2A34755   0.568  11.386  13.452 -0.1466  0.1561  0.4380
 2962POSM   C3A34756   0.460  11.054  13.109 -0.1889 -0.0260  0.0395
 2962POSM   C1B34757   0.163  12.093  13.216  0.1371  0.0375  0.2193
 2962POSM   D2B34758   0.209  12.098  12.792 -0.1632 -0.0020  0.4003
 2962POSM   C3B34759   0.446  11.785  12.508 -0.1956 -0.0734  0.0835
 2962POSM   C4B34760   0.363  11.564  12.080 -0.0207 -0.0159  0.2572
 2963DOPC   NC334761  26.646  15.551  13.412  0.1443 -0.1769 -0.0493
 2963DOPC   PO434762  26.594  15.182  13.470  0.1055  0.1141 -0.2379
 2963DOPC   GL134763  26.600  15.209  13.131 -0.1369  0.1787  0.0591
 2963DOPC   GL234764  26.762  15.341  12.974  0.7428  0.1939 -0.0467
 2963DOPC   C1A34765  26.453  15.014  12.740  0.2037 -0.1132 -0.4900
 2963DOPC   D2A34766  26.477  15.009  12.258  0.0673 -0.3002 -0.1386
 2963DOPC   C3A34767  26.678  14.614  12.011 -0.1447 -0.0465 -0.0962
 2963DOPC   C4A34768  26.795  14.238  11.742 -0.2754  0.1266 -0.1598
 2963DOPC   C1B34769  26.831  15.311  12.553  0.0612 -0.1387  0.0719
 2963DOPC   D2B34770  27.079  15.546  12.205 -0.0627  0.0217 -0.3796
 2963DOPC   C3B34771  27.376  15.269  11.974  0.0866  0.0614 -0.1662
 2963DOPC   C4B34772  27.464  14.772  12.018  0.2207 -0.1950 -0.0991
 2964DOPE   NH334773  25.560  15.909  13.229  0.2189 -0.0035 -0.2458
 2964DOPE   PO434774  25.785  15.740  13.367 -0.1962 -0.1739  0.0514
 2964DOPE   GL134775  26.176  15.688  13.152 -0.1054  0.0366 -0.2296
 2964DOPE   GL234776  26.188  15.374  13.019 -0.2171  0.0262 -0.2238
 2964DOPE   C1A34777  26.452  15.869  12.856  0.0541 -0.0657  0.0647
 2964DOPE   D2A34778  26.684  15.803  12.432  0.4788  0.1283  0.0740
 2964DOPE   C3A34779  26.608  16.079  12.138 -0.0367  0.0660  0.2342
 2964DOPE   C4A34780  26.289  16.359  12.038  0.0248  0.0776  0.2825
 2964DOPE   C1B34781  26.314  15.469  12.576  0.1325 -0.0231 -0.1403
 2964DOPE   D2B34782  26.429  15.524  12.078  0.0081 -0.0259 -0.2284
 2964DOPE   C3B34783  26.221  15.818  11.731 -0.0301 -0.2490  0.2605
 2964DOPE   C4B34784  25.916  16.126  11.496 -0.0163 -0.1900 -0.3200
 2965DOPC   NC334785  26.511  16.152  13.854  0.0402 -0.1088  0.1288
 2965DOPC   PO434786  26.451  16.503  13.676 -0.3121  0.1200  0.0904
 2965DOPC   GL134787  26.502  16.616  13.348 -0.2729  0.2347  0.0963
 2965DOPC   GL234788  26.430  16.926  13.346  0.0017 -0.0430  0.0047
 2965DOPC   C1A34789  26.404  16.345  12.939  0.2118 -0.2372 -0.0317
 2965DOPC   D2A34790  26.196  16.294  12.501  0.0101 -0.1987  0.0686
 2965DOPC   C3A34791  26.171  15.871  12.349  0.2491  0.1480 -0.3374
 2965DOPC   C4A34792  25.967  15.573  12.147 -0.1298  0.1529 -0.0131
 2965DOPC   C1B34793  26.830  16.971  13.082 -0.0103  0.4636 -0.1838
 2965DOPC   D2B34794  26.894  16.878  12.625 -0.1834 -0.0163  0.1916
 2965DOPC   C3B34795  26.737  17.106  12.193  0.1061  0.3509  0.1050
 2965DOPC   C4B34796  26.746  17.486  11.947  0.1407 -0.1862 -0.1724
 2966POSM   NC334797  33.169  19.312  13.547  0.0559 -0.0539 -0.1568
 2966POSM   PO434798  33.377  19.012  13.465  0.3225  0.1728 -0.2940
 2966POSM   AM134799  33.368  19.122  13.125 -0.2007 -0.1878 -0.1327
 2966POSM   AM234800  33.267  19.338  13.063  0.0034 -0.0343  0.2732
 2966POSM   T1A34801  33.038  18.957  12.754 -0.1816  0.0600 -0.2099
 2966POSM   C2A34802  32.804  19.066  12.388  0.0500  0.2927  0.3608
 2966POSM   C3A34803  33.055  19.106  11.972 -0.4336 -0.0080  0.0042
 2966POSM   C1B34804  33.170  19.472  12.774 -0.1722 -0.0627 -0.1998
 2966POSM   D2B34805  33.145  19.483  12.347  0.0386  0.1730 -0.3111
 2966POSM   C3B34806  33.519  19.267  12.251  0.0058  0.0394 -0.0732
 2966POSM   C4B34807  33.904  19.254  12.417 -0.0097  0.0095 -0.1752
 2967POSM   NC334808  25.625  21.905  14.566 -0.2019 -0.0905  0.1498
 2967POSM   PO434809  25.526  21.783  14.206 -0.1882  0.2991 -0.1978
 2967POSM   AM134810  25.657  21.850  13.916 -0.5472 -0.4024  0.0150
 2967POSM   AM234811  25.812  21.967  13.705  0.2357 -0.1219  0.4832
 2967POSM   T1A34812  25.660  21.556  13.529  0.0172 -0.0413  0.1322
 2967POSM   C2A34813  25.747  21.314  13.129  0.0092  0.2820 -0.1079
 2967POSM   C3A34814  25.560  21.117  12.737 -0.0573 -0.1554 -0.2697
 2967POSM   C1B34815  25.705  22.000  13.400 -0.0110 -0.5709 -0.1453
 2967POSM   D2B34816  25.538  22.324  13.091  0.1793 -0.4470 -0.0807
 2967POSM   C3B34817  25.119  22.113  12.922  0.2772 -0.1000 -0.1891
 2967POSM   C4B34818  24.932  21.898  12.544 -0.0678 -0.5739 -0.1980
 2968POSM   NC334819  27.005  14.451  14.095 -0.0306 -0.1871  0.1510
 2968POSM   PO434820  27.056  14.092  14.092 -0.3474 -0.0973  0.0465
 2968POSM   AM134821  27.123  14.128  13.768 -0.1084 -0.1160  0.2564
 2968POSM   AM234822  27.035  14.345  13.608  0.0987 -0.1434 -0.1312
 2968POSM   T1A34823  27.504  14.199  13.428 -0.0565 -0.2777  0.1739
 2968POSM   C2A34824  27.903  14.211  13.232  0.1653 -0.0620 -0.0252
 2968POSM   C3A34825  28.118  13.879  12.967 -0.1397 -0.3414 -0.0883
 2968POSM   C1B34826  26.853  14.309  13.288 -0.3275  0.1731  0.3439
 2968POSM   D2B34827  26.839  14.239  12.798  0.0657  0.0410  0.0278
 2968POSM   C3B34828  27.209  14.234  12.555 -0.2597 -0.1181 -0.2752
 2968POSM   C4B34829  27.136  14.407  12.151  0.0682 -0.0166  0.4768
 2969POSM   NC334830  28.718  22.395  14.514 -0.2043 -0.2698  0.0302
 2969POSM   PO434831  28.732  22.235  14.227  0.1106  0.0809 -0.0086
 2969POSM   AM134832  28.635  22.265  13.919 -0.0511 -0.4577 -0.0373
 2969POSM   AM234833  28.426  22.356  13.766  0.0766  0.0790 -0.0789
 2969POSM   T1A34834  28.368  21.979  13.513  0.0409  0.1566  0.2417
 2969POSM   C2A34835  28.358  21.521  13.279  0.1675 -0.1881 -0.0698
 2969POSM   C3A34836  28.410  21.154  13.035 -0.1097 -0.4286 -0.1030
 2969POSM   C1B34837  28.172  22.528  13.624 -0.1724  0.3201  0.0565
 2969POSM   D2B34838  28.010  22.704  13.224 -0.1310 -0.3393 -0.0778
 2969POSM   C3B34839  27.734  22.634  12.893  0.2323 -0.3070  0.1703
 2969POSM   C4B34840  27.386  22.340  12.791 -0.2079 -0.2013 -0.1510
 2970DOPC   NC334841   0.089  21.481  13.458 -0.5150  0.2867  0.2476
 2970DOPC   PO434842   0.305  21.612  13.769  0.0566  0.1669  0.0012
 2970DOPC   GL134843   0.586  21.714  13.503  0.0127  0.1154  0.0107
 2970DOPC   GL234844   0.595  21.478  13.259 -0.0185  0.1300 -0.1971
 2970DOPC   C1A34845   0.751  21.917  13.162 -0.1045 -0.5371 -0.4312
 2970DOPC   D2A34846   0.843  22.229  12.846 -0.1097 -0.4471 -0.1145
 2970DOPC   C3A34847   0.643  22.297  12.403  0.0465 -0.2336  0.0477
 2970DOPC   C4A34848   0.382  22.649  12.204  0.0028 -0.0240 -0.3227
 2970DOPC   C1B34849   0.567  21.264  12.832 -0.2850 -0.0401  0.1167
 2970DOPC   D2B34850   0.627  21.367  12.393 -0.0666  0.3116 -0.1366
 2970DOPC   C3B34851   0.856  21.009  12.241  0.0299  0.1178  0.0362
 2970DOPC   C4B34852   1.208  21.026  11.906 -0.1407  0.0478  0.1453
 2971POSM   NC334853  33.753  19.399  13.221  0.3399 -0.0577 -0.2413
 2971POSM   PO434854  33.614  19.472  13.565  0.0922  0.0333 -0.0506
 2971POSM   AM134855  33.617  19.790  13.529 -0.2040  0.0394  0.3934
 2971POSM   AM234856  33.394  19.957  13.439  0.2046 -0.3402 -0.0086
 2971POSM   T1A34857  33.789  20.264  13.352  0.1574 -0.0619 -0.2603
 2971POSM   C2A34858  34.110  20.407  13.020 -0.0239 -0.4184  0.0212
 2971POSM   C3A34859  34.101  20.414  12.552 -0.1839  0.0228  0.1717
 2971POSM   C1B34860  33.487  19.846  13.091 -0.1818 -0.1337 -0.2134
 2971POSM   D2B34861  33.685  19.592  12.718 -0.1425 -0.1758 -0.2335
 2971POSM   C3B34862  33.528  19.132  12.753  0.1304  0.2938  0.1680
 2971POSM   C4B34863  33.591  18.628  12.721 -0.1660  0.1424 -0.0517
 2972DOPS   CNO34864  29.624  16.714  14.235  0.2677  0.1953 -0.3858
 2972DOPS   PO434865  29.707  16.532  13.923 -0.3187  0.3589  0.3581
 2972DOPS   GL134866  29.752  16.417  13.530  0.2627 -0.0135  0.3268
 2972DOPS   GL234867  29.475  16.389  13.491 -0.0089 -0.3624  0.2248
 2972DOPS   C1A34868  29.872  16.585  13.138 -0.0519  0.1816 -0.1133
 2972DOPS   D2A34869  30.099  16.700  12.732 -0.0723  0.0757 -0.2360
 2972DOPS   C3A34870  30.463  16.516  12.574 -0.1101 -0.1646 -0.0064
 2972DOPS   C4A34871  30.726  16.483  12.181  0.1206 -0.0041 -0.0051
 2972DOPS   C1B34872  29.481  16.282  13.059  0.0555  0.1138 -0.0367
 2972DOPS   D2B34873  29.591  16.541  12.642 -0.0691 -0.1349  0.1705
 2972DOPS   C3B34874  29.138  16.595  12.483  0.1790  0.0151  0.2297
 2972DOPS   C4B34875  28.715  16.450  12.460  0.4635  0.2017  0.2612
 2973DOPS   CNO34876  23.855  17.452  13.168  0.0196  0.0143 -0.3235
 2973DOPS   PO434877  23.549  17.515  13.348  0.0646 -0.0853  0.0806
 2973DOPS   GL134878  23.331  17.577  13.094  0.0745 -0.2397 -0.2920
 2973DOPS   GL234879  23.488  17.693  12.847 -0.0009  0.0848  0.1384
 2973DOPS   C1A34880  22.993  17.945  12.929 -0.0088 -0.1155  0.0721
 2973DOPS   D2A34881  22.618  18.190  12.850  0.0269 -0.0891  0.1074
 2973DOPS   C3A34882  22.416  18.224  12.411  0.0194 -0.0023  0.0749
 2973DOPS   C4A34883  22.277  17.815  12.272 -0.1154 -0.2069  0.1810
 2973DOPS   C1B34884  23.896  17.874  12.747 -0.4944 -0.1843 -0.2663
 2973DOPS   D2B34885  24.218  18.076  12.472 -0.1522 -0.2451  0.0863
 2973DOPS   C3B34886  24.175  18.049  11.957 -0.4611 -0.0477 -0.2805
 2973DOPS   C4B34887  24.074  18.380  11.589  0.0628 -0.0013  0.3622
 2974DOPS   CNO34888  28.891  18.140  14.487  0.1221  0.0122 -0.1489
 2974DOPS   PO434889  28.624  18.252  14.262 -0.1914 -0.0421 -0.2490
 2974DOPS   GL134890  28.686  18.470  13.947  0.1571 -0.2613 -0.0248
 2974DOPS   GL234891  28.502  18.648  13.903  0.0995  0.3202  0.5678
 2974DOPS   C1A34892  28.816  18.282  13.476  0.2125  0.1772  0.0869
 2974DOPS   D2A34893  28.708  18.308  13.047  0.1379  0.2175  0.1136
 2974DOPS   C3A34894  28.290  18.257  12.840 -0.0968  0.0344  0.0319
 2974DOPS   C4A34895  27.844  18.290  12.825  0.0348  0.0308  0.1281
 2974DOPS   C1B34896  28.377  18.429  13.561  0.2081  0.1670 -0.0138
 2974DOPS   D2B34897  28.386  18.049  13.291  0.1121  0.2162 -0.0075
 2974DOPS   C3B34898  28.240  17.713  13.023 -0.0210  0.1163 -0.0304
 2974DOPS   C4B34899  28.488  17.408  12.780 -0.0737  0.1151 -0.1526
 2975POSM   NC334900  33.486  13.508  13.479 -0.0542  0.2392  0.1294
 2975POSM   PO434901  33.327  13.282  13.853 -0.1344  0.0425  0.1377
 2975POSM   AM134902  33.213  13.153  13.614 -0.2632 -0.4684 -0.1274
 2975POSM   AM234903  33.300  12.955  13.418 -0.1051 -0.1322 -0.3378
 2975POSM   T1A34904  33.004  13.289  13.201  0.0904 -0.0025  0.1851
 2975POSM   C2A34905  33.079  13.395  12.727  0.1504  0.0523  0.0027
 2975POSM   C3A34906  32.792  13.585  12.447  0.1089 -0.0023  0.3460
 2975POSM   C1B34907  33.401  12.644  13.310  0.0968  0.0550 -0.2408
 2975POSM   D2B34908  33.437  12.335  12.948  0.2024 -0.1371  0.1905
 2975POSM   C3B34909  33.213  12.374  12.571 -0.0697 -0.0615 -0.0494
 2975POSM   C4B34910  33.164  11.988  12.280  0.0493 -0.0495 -0.2263
 2976DOPE   NH334911  29.003  24.732  14.082 -0.1715  0.1838  0.0674
 2976DOPE   PO434912  28.917  24.440  13.988 -0.2951  0.2954 -0.2378
 2976DOPE   GL134913  28.943  24.241  13.661 -0.0027  0.0892  0.1874
 2976DOPE   GL234914  28.839  23.943  13.664 -0.2498 -0.1311 -0.1533
 2976DOPE   C1A34915  29.025  24.217  13.221 -0.2822 -0.1832  0.1426
 2976DOPE   D2A34916  28.980  23.931  12.861 -0.1906  0.0391  0.0418
 2976DOPE   C3A34917  29.219  23.882  12.439  0.1045 -0.2792 -0.0483
 2976DOPE   C4A34918  29.485  23.953  12.079 -0.0386 -0.2511  0.3625
 2976DOPE   C1B34919  28.888  23.735  13.302  0.1282  0.2408  0.0892
 2976DOPE   D2B34920  28.758  23.474  12.963 -0.2210 -0.3415 -0.1886
 2976DOPE   C3B34921  28.538  23.708  12.610  0.0287  0.1888 -0.1794
 2976DOPE   C4B34922  28.388  23.710  12.161 -0.2975  0.0010 -0.0726
 2977POSM   NC334923  32.657  11.508  14.417  0.0133  0.2933  0.2693
 2977POSM   PO434924  32.897  11.212  14.258  0.1079 -0.2852 -0.3451
 2977POSM   AM134925  32.833  11.080  13.981 -0.0600 -0.2028  0.1519
 2977POSM   AM234926  32.825  10.910  13.760 -0.0948 -0.2331  0.0935
 2977POSM   T1A34927  32.615  11.316  13.549  0.0195  0.2425 -0.1237
 2977POSM   C2A34928  32.682  11.525  13.100 -0.1698 -0.3667 -0.1597
 2977POSM   C3A34929  32.375  11.565  12.716  0.1284  0.2510 -0.2901
 2977POSM   C1B34930  32.868  10.908  13.428  0.0125 -0.1737 -0.3401
 2977POSM   D2B34931  32.792  10.855  12.975  0.1319  0.0097 -0.2612
 2977POSM   C3B34932  32.953  10.786  12.571  0.2554 -0.1607  0.1994
 2977POSM   C4B34933  33.087  10.828  12.121 -0.1078 -0.0605 -0.1315
 2978DOPS   CNO34934  29.583  19.644  13.589 -0.0471 -0.0571 -0.0642
 2978DOPS   PO434935  29.839  19.380  13.672 -0.0819  0.3046  0.1201
 2978DOPS   GL134936  29.882  19.269  13.330 -0.1980  0.0271  0.0864
 2978DOPS   GL234937  29.876  19.535  13.187 -0.1335 -0.0404 -0.5153
 2978DOPS   C1A34938  30.038  18.948  13.032  0.1343  0.0643 -0.0445
 2978DOPS   D2A34939  30.054  18.581  12.826  0.0239  0.1038  0.1042
 2978DOPS   C3A34940  30.067  18.579  12.351 -0.0431  0.4270  0.2482
 2978DOPS   C4A34941  29.917  18.818  12.002  0.1563 -0.1032  0.0321
 2978DOPS   C1B34942  29.496  19.460  12.940 -0.2765 -0.0680 -0.2626
 2978DOPS   D2B34943  29.380  19.408  12.495  0.1522 -0.2253 -0.4336
 2978DOPS   C3B34944  29.019  19.568  12.226  0.0921 -0.0164 -0.0411
 2978DOPS   C4B34945  28.567  19.672  12.220 -0.2326 -0.1846  0.2579
 2979POSM   NC334946  31.778  13.989  13.935 -0.2098  0.2076 -0.4036
 2979POSM   PO434947  32.092  13.751  13.924  0.1306  0.0655 -0.0373
 2979POSM   AM134948  32.208  13.597  13.679  0.0078  0.2603  0.1173
 2979POSM   AM234949  32.430  13.441  13.595 -0.2287  0.1629  0.0280
 2979POSM   T1A34950  32.109  13.700  13.148  0.0721  0.0036  0.2969
 2979POSM   C2A34951  31.965  13.844  12.792 -0.0033  0.0460  0.0715
 2979POSM   C3A34952  31.797  14.084  12.428 -0.0430  0.0796  0.2535
 2979POSM   C1B34953  32.447  13.361  13.311  0.0293  0.3282 -0.2511
 2979POSM   D2B34954  32.596  13.402  12.868  0.2651  0.2260  0.1659
 2979POSM   C3B34955  32.279  13.508  12.542 -0.1979  0.2245 -0.1562
 2979POSM   C4B34956  32.176  13.791  12.169 -0.1092 -0.1152  0.0319
 2980POSM   NC334957  31.311  12.962  14.311  0.0808 -0.2834 -0.1106
 2980POSM   PO434958  31.074  13.217  14.091 -0.2174  0.2151 -0.2554
 2980POSM   AM134959  31.170  13.283  13.778  0.1224 -0.0652  0.0558
 2980POSM   AM234960  31.019  13.361  13.545  0.1319  0.0050 -0.2531
 2980POSM   T1A34961  31.452  13.132  13.420 -0.0336 -0.0077  0.1098
 2980POSM   C2A34962  31.601  12.997  13.033  0.0245  0.3572  0.1249
 2980POSM   C3A34963  31.549  13.041  12.581  0.0164  0.2334  0.0791
 2980POSM   C1B34964  31.077  13.339  13.244 -0.2302 -0.0436  0.0110
 2980POSM   D2B34965  31.083  13.259  12.804  0.0018  0.1261  0.0251
 2980POSM   C3B34966  30.957  13.551  12.441  0.1385 -0.1140 -0.0300
 2980POSM   C4B34967  30.589  13.719  12.173 -0.0492 -0.0529  0.1954
 2981POSM   NC334968  26.682  17.457  14.188  0.1229 -0.0370 -0.1616
 2981POSM   PO434969  26.876  17.823  14.348 -0.2526  0.4294 -0.1191
 2981POSM   AM134970  26.813  17.865  14.034 -0.1772 -0.0726  0.1716
 2981POSM   AM234971  26.872  18.083  13.832  0.1389  0.3735  0.1923
 2981POSM   T1A34972  26.664  17.667  13.578  0.0627 -0.0220 -0.2526
 2981POSM   C2A34973  26.553  17.378  13.222  0.0161  0.0573  0.0588
 2981POSM   C3A34974  26.597  17.339  12.783 -0.0482  0.3951  0.0914
 2981POSM   C1B34975  27.022  18.287  13.616 -0.2240 -0.0911  0.0665
 2981POSM   D2B34976  27.125  18.377  13.147 -0.0039  0.1496 -0.1702
 2981POSM   C3B34977  27.276  18.103  12.745  0.0801 -0.3980  0.0482
 2981POSM   C4B34978  27.629  18.097  12.437  0.1544 -0.2782  0.6296
 2982DOPE   NH334979  32.838  20.130  13.427 -0.0802 -0.1785 -0.1735
 2982DOPE   PO434980  32.902  20.247  13.193 -0.2658 -0.0130 -0.0810
 2982DOPE   GL134981  32.948  19.845  13.020  0.0648  0.0566 -0.1227
 2982DOPE   GL234982  32.981  19.633  13.248 -0.1237 -0.1636 -0.3433
 2982DOPE   C1A34983  33.001  19.894  12.591  0.1312 -0.2886  0.0697
 2982DOPE   D2A34984  33.053  20.039  12.163  0.3383  0.1511 -0.1672
 2982DOPE   C3A34985  32.654  19.938  11.931 -0.1057 -0.0660 -0.4257
 2982DOPE   C4A34986  32.228  19.809  11.738 -0.1540  0.0436 -0.0661
 2982DOPE   C1B34987  32.717  19.362  12.970 -0.1957 -0.1348 -0.1039
 2982DOPE   D2B34988  32.375  19.150  12.655  0.1475  0.1402  0.2117
 2982DOPE   C3B34989  32.252  19.108  12.237  0.3702  0.0405  0.1138
 2982DOPE   C4B34990  31.935  19.121  11.906 -0.0298 -0.1300  0.0176
 2983DOPE   NH334991  26.016  18.222  14.190 -0.0054  0.1245 -0.1975
 2983DOPE   PO434992  25.908  17.949  14.043 -0.1193  0.1684  0.0346
 2983DOPE   GL134993  25.937  17.831  13.594 -0.0922  0.0349  0.0433
 2983DOPE   GL234994  25.844  18.077  13.493 -0.1555  0.1381  0.1584
 2983DOPE   C1A34995  26.167  17.638  13.252 -0.0810 -0.1702  0.1308
 2983DOPE   D2A34996  26.343  17.740  12.875 -0.0837  0.0036  0.3973
 2983DOPE   C3A34997  26.080  17.399  12.642  0.2030 -0.2672  0.0707
 2983DOPE   C4A34998  26.178  17.093  12.250 -0.0690 -0.0406 -0.0724
 2983DOPE   C1B34999  25.721  17.927  13.054  0.1508  0.6754 -0.2939
 2983DOPE   D2B35000  25.935  17.919  12.667 -0.0077  0.2764 -0.3551
 2983DOPE   C3B35001  26.292  18.063  12.497 -0.0220 -0.2517 -0.1758
 2983DOPE   C4B35002  26.690  18.077  12.776 -0.2329  0.0651  0.1449
 2984DOPS   CNO35003   0.150   7.485  13.991 -0.2076  0.0973 -0.3047
 2984DOPS   PO435004   0.177   7.862  13.983 -0.1079  0.1974 -0.2630
 2984DOPS   GL135005   0.065   7.811  13.611  0.2638 -0.0994  0.2087
 2984DOPS   GL235006   0.305   7.687  13.531 -0.1762 -0.0676  0.0129
 2984DOPS   C1A35007   0.096   8.085  13.306 -0.1128 -0.1376  0.2411
 2984DOPS   D2A35008   0.304   8.162  12.897  0.0565 -0.0175 -0.0820
 2984DOPS   C3A35009   0.150   8.339  12.536 -0.0035  0.0588  0.2797
 2984DOPS   C4A35010  -0.082   8.424  12.106 -0.0003  0.1618  0.0074
 2984DOPS   C1B35011   0.493   7.688  13.127  0.1312 -0.0957 -0.0717
 2984DOPS   D2B35012   0.749   7.633  12.705 -0.0135 -0.1880  0.2226
 2984DOPS   C3B35013   0.529   7.959  12.494 -0.0953  0.2294  0.1090
 2984DOPS   C4B35014   0.321   8.146  12.129 -0.0111 -0.1824 -0.0404
 2985DOPS   CNO35015  24.929  15.204  13.628  0.0747  0.2791 -0.0871
 2985DOPS   PO435016  25.181  15.046  13.416 -0.0656 -0.1196  0.2334
 2985DOPS   GL135017  25.335  14.900  13.155  0.1757 -0.1384  0.1749
 2985DOPS   GL235018  25.246  14.681  12.988  0.2563 -0.3163  0.0362
 2985DOPS   C1A35019  25.501  14.913  12.677 -0.4329 -0.2097  0.1059
 2985DOPS   D2A35020  25.585  14.522  12.400 -0.0512  0.0177 -0.2951
 2985DOPS   C3A35021  25.414  14.622  11.977  0.1298  0.3734  0.2592
 2985DOPS   C4A35022  25.225  14.872  11.621 -0.3718 -0.1138 -0.1634
 2985DOPS   C1B35023  25.028  14.595  12.563  0.2638 -0.3993 -0.0172
 2985DOPS   D2B35024  24.861  14.606  12.138 -0.1844 -0.1722 -0.0072
 2985DOPS   C3B35025  24.820  14.293  11.785 -0.0157 -0.1564 -0.2770
 2985DOPS   C4B35026  25.148  13.996  11.681 -0.0024 -0.5692  0.4854
 2986DOPE   NH335027  27.073  19.798  14.139 -0.1262 -0.2531 -0.1172
 2986DOPE   PO435028  26.983  20.097  14.075 -0.2455 -0.0229  0.0259
 2986DOPE   GL135029  26.903  20.043  13.644 -0.1013 -0.0382  0.3562
 2986DOPE   GL235030  26.646  20.110  13.570  0.1261  0.0821  0.0174
 2986DOPE   C1A35031  27.072  19.913  13.234 -0.0040  0.3397 -0.0460
 2986DOPE   D2A35032  27.258  19.578  12.997 -0.1483 -0.2006 -0.2455
 2986DOPE   C3A35033  27.309  19.412  12.573  0.2228  0.0382  0.0549
 2986DOPE   C4A35034  27.602  19.491  12.232  0.2633 -0.1859 -0.0320
 2986DOPE   C1B35035  26.494  20.116  13.159  0.1564 -0.2984  0.2116
 2986DOPE   D2B35036  26.489  20.266  12.779  0.1079  0.0226  0.0327
 2986DOPE   C3B35037  26.706  20.145  12.387 -0.0487 -0.1015 -0.0711
 2986DOPE   C4B35038  26.921  19.901  12.098 -0.0145  0.0364  0.0885
 2987DOPC   NC335039  30.449  24.116  13.789 -0.2319 -0.0104  0.3064
 2987DOPC   PO435040  30.217  23.910  14.034  0.1323 -0.0671  0.0231
 2987DOPC   GL135041  30.160  23.746  13.739  0.1340  0.1580 -0.0016
 2987DOPC   GL235042  30.348  23.621  13.643 -0.1523  0.4708 -0.1793
 2987DOPC   C1A35043  29.992  23.558  13.309 -0.1173  0.0192 -0.2041
 2987DOPC   D2A35044  29.710  23.456  12.961 -0.0713  0.0429  0.0779
 2987DOPC   C3A35045  29.798  23.382  12.484  0.2099  0.1237  0.1290
 2987DOPC   C4A35046  29.878  23.214  12.046  0.1232 -0.2519  0.1730
 2987DOPC   C1B35047  30.349  23.979  13.322 -0.0135 -0.1378  0.0790
 2987DOPC   D2B35048  30.554  24.374  13.130  0.1800 -0.0802  0.1138
 2987DOPC   C3B35049  30.440  24.587  12.671 -0.2767  0.0113  0.0333
 2987DOPC   C4B35050  30.620  24.350  12.299 -0.0441 -0.3136 -0.3226
 2988DOPE   NH335051  31.310  19.479  13.505  0.4698  0.2252  0.3484
 2988DOPE   PO435052  31.202  19.236  13.363  0.3021 -0.1324 -0.1106
 2988DOPE   GL135053  31.042  19.247  13.002  0.0761 -0.0630 -0.0862
 2988DOPE   GL235054  31.274  19.354  12.853  0.3071  0.2847 -0.0847
 2988DOPE   C1A35055  30.643  19.081  12.762 -0.1897 -0.2603  0.1411
 2988DOPE   D2A35056  30.272  19.039  12.413 -0.2106  0.0333 -0.3281
 2988DOPE   C3A35057  30.283  19.137  11.969  0.2057  0.1432 -0.3685
 2988DOPE   C4A35058  30.043  19.194  11.590 -0.4029  0.0373 -0.3645
 2988DOPE   C1B35059  31.075  19.178  12.480 -0.1881 -0.0384  0.2780
 2988DOPE   D2B35060  30.798  18.949  12.156  0.0649  0.0524 -0.1432
 2988DOPE   C3B35061  30.750  19.113  11.715  0.2439 -0.0013  0.3959
 2988DOPE   C4B35062  30.561  19.377  11.451  0.4282  0.0557  0.2291
 2989DOPC   NC335063  23.304  15.006  13.438 -0.3911 -0.0158  0.6671
 2989DOPC   PO435064  23.718  15.028  13.435 -0.2224 -0.0158 -0.1105
 2989DOPC   GL135065  23.750  14.856  13.082  0.0173 -0.0182  0.0081
 2989DOPC   GL235066  23.488  14.745  13.022  0.2725  0.1571 -0.3127
 2989DOPC   C1A35067  24.112  14.872  12.766 -0.1223  0.2063  0.0020
 2989DOPC   D2A35068  24.457  14.880  12.453 -0.1559  0.3828  0.3338
 2989DOPC   C3A35069  24.391  14.691  12.027 -0.0748  0.2167 -0.1407
 2989DOPC   C4A35070  24.269  14.319  11.689 -0.0239  0.0561 -0.0901
 2989DOPC   C1B35071  23.695  14.553  12.673 -0.1471 -0.0947 -0.0966
 2989DOPC   D2B35072  23.973  14.321  12.446  0.0487  0.2805  0.0401
 2989DOPC   C3B35073  23.928  14.203  12.010  0.3697  0.2746 -0.0928
 2989DOPC   C4B35074  23.975  13.952  11.655 -0.1028  0.0828  0.1700
 2990DOPE   NH335075  33.741  14.350  13.674  0.0693 -0.3091 -0.0428
 2990DOPE   PO435076  33.473  14.520  13.691  0.2587  0.1411  0.1401
 2990DOPE   GL135077  33.508  14.473  13.223  0.3359 -0.1495  0.1013
 2990DOPE   GL235078  33.209  14.385  13.260 -0.2570 -0.3229 -0.1034
 2990DOPE   C1A35079  33.327  14.433  12.803  0.0502 -0.2060 -0.1019
 2990DOPE   D2A35080  33.248  14.389  12.336  0.1544 -0.1943 -0.3450
 2990DOPE   C3A35081  33.577  14.511  12.077  0.0238  0.0133  0.2281
 2990DOPE   C4A35082  33.567  14.827  11.688  0.1754 -0.1054 -0.0550
 2990DOPE   C1B35083  32.912  14.246  12.919 -0.3096 -0.2201 -0.0308
 2990DOPE   D2B35084  32.778  14.128  12.480  0.0090  0.0335  0.1031
 2990DOPE   C3B35085  32.712  14.572  12.300  0.1739  0.0116  0.0163
 2990DOPE   C4B35086  32.790  15.044  12.308  0.1075 -0.1800  0.2576
 2991DOPE   NH335087  30.720  20.742  13.979  0.0078  0.3245 -0.0260
 2991DOPE   PO435088  30.570  20.701  13.693 -0.0689  0.2137  0.1197
 2991DOPE   GL135089  30.311  20.845  13.388  0.0257  0.2790 -0.2332
 2991DOPE   GL235090  30.280  21.129  13.361  0.1148 -0.1626  0.3542
 2991DOPE   C1A35091  30.232  20.902  12.958  0.1376 -0.2486 -0.0465
 2991DOPE   D2A35092  29.941  21.051  12.680 -0.0034 -0.2244  0.0071
 2991DOPE   C3A35093  30.131  20.986  12.276 -0.1912  0.1609 -0.1765
 2991DOPE   C4A35094  30.257  20.970  11.846 -0.0364 -0.3604 -0.1253
 2991DOPE   C1B35095  30.051  21.445  13.021 -0.1697  0.1492  0.0876
 2991DOPE   D2B35096  29.734  21.551  12.709 -0.0272  0.2624  0.1951
 2991DOPE   C3B35097  29.913  21.461  12.248 -0.1283  0.1009  0.0615
 2991DOPE   C4B35098  30.174  21.472  11.855  0.0900 -0.0754 -0.1209
 2992DOPC   NC335099  27.363  11.631  14.235  0.1437 -0.5263  0.1708
 2992DOPC   PO435100  27.516  11.933  14.418  0.2087 -0.2486 -0.4117
 2992DOPC   GL135101  27.634  11.874  13.991  0.0533  0.2348 -0.2064
 2992DOPC   GL235102  27.394  11.877  13.777 -0.0711  0.2246 -0.1239
 2992DOPC   C1A35103  27.808  11.470  13.742 -0.1918 -0.0474 -0.0433
 2992DOPC   D2A35104  27.782  11.222  13.325 -0.1225 -0.2504 -0.1967
 2992DOPC   C3A35105  28.013  11.388  12.974  0.0937 -0.0701 -0.1512
 2992DOPC   C4A35106  28.292  11.422  12.543  0.0628  0.0404 -0.1012
 2992DOPC   C1B35107  27.416  11.639  13.367 -0.0934 -0.0121 -0.1693
 2992DOPC   D2B35108  27.411  11.378  12.942 -0.0903 -0.0557 -0.0862
 2992DOPC   C3B35109  27.615  10.942  12.911 -0.2429  0.2018  0.0996
 2992DOPC   C4B35110  27.684  10.521  12.747  0.0750  0.0845 -0.2799
 2993DOPC   NC335111   1.314  15.862  13.043 -0.0509 -0.0248  0.0436
 2993DOPC   PO435112   1.601  15.764  13.271 -0.0929  0.1284  0.0995
 2993DOPC   GL135113   1.847  15.746  12.879  0.2799  0.2426  0.2083
 2993DOPC   GL235114   1.687  15.774  12.698 -0.0038  0.2406  0.1285
 2993DOPC   C1A35115   2.141  15.439  12.696 -0.0728  0.0654  0.1507
 2993DOPC   D2A35116   2.301  15.004  12.634 -0.0138 -0.2735  0.1054
 2993DOPC   C3A35117   2.440  14.790  12.270  0.0412 -0.1333  0.2574
 2993DOPC   C4A35118   2.481  14.390  12.022 -0.1025  0.0730 -0.0414
 2993DOPC   C1B35119   1.298  15.874  12.513  0.0424  0.2659  0.2601
 2993DOPC   D2B35120   0.957  16.142  12.293  0.1043 -0.2760  0.1653
 2993DOPC   C3B35121   0.880  16.534  12.038 -0.0758  0.1910 -0.0444
 2993DOPC   C4B35122   0.878  16.949  11.872  0.1144 -0.0309 -0.0999
 2994DOPE   NH335123  32.883  12.443  14.158  0.0727 -0.1316 -0.0230
 2994DOPE   PO435124  33.027  12.176  14.124 -0.0746 -0.1591  0.0428
 2994DOPE   GL135125  33.142  12.122  13.749 -0.3198 -0.0090  0.0870
 2994DOPE   GL235126  33.008  12.410  13.597 -0.1329  0.0166  0.1471
 2994DOPE   C1A35127  33.336  12.061  13.365 -0.0208 -0.0775  0.1986
 2994DOPE   D2A35128  33.194  11.919  12.949  0.3061 -0.0484  0.1408
 2994DOPE   C3A35129  33.235  11.541  12.628  0.0256  0.0036  0.2283
 2994DOPE   C4A35130  33.103  11.345  12.275 -0.2775 -0.1153  0.1615
 2994DOPE   C1B35131  32.956  12.446  13.112 -0.2353 -0.1327 -0.0075
 2994DOPE   D2B35132  32.728  12.489  12.717  0.1218  0.0537  0.4280
 2994DOPE   C3B35133  32.854  12.818  12.429  0.0928  0.1181  0.1239
 2994DOPE   C4B35134  33.263  13.046  12.410 -0.0169 -0.1778 -0.1083
 2995DOPE   NH335135  34.110  19.315  13.617 -0.0500 -0.2950  0.1193
 2995DOPE   PO435136  34.014  19.013  13.563  0.2011  0.0769  0.1708
 2995DOPE   GL135137  34.051  18.985  13.247  0.1298  0.1593 -0.2529
 2995DOPE   GL235138  33.822  18.861  13.134  0.2243  0.1372  0.3337
 2995DOPE   C1A35139  34.123  19.292  12.903 -0.2202  0.0858 -0.2777
 2995DOPE   D2A35140  34.233  19.591  12.601 -0.3140 -0.1511  0.0069
 2995DOPE   C3A35141  34.196  19.656  12.063  0.2480  0.3717  0.2580
 2995DOPE   C4A35142  33.916  19.901  11.789  0.0420 -0.5416  0.0772
 2995DOPE   C1B35143  34.027  18.763  12.674  0.1129 -0.4147  0.1120
 2995DOPE   D2B35144  33.970  18.723  12.157  0.0520  0.1833 -0.2673
 2995DOPE   C3B35145  34.094  19.115  11.939 -0.2600  0.0938  0.0906
 2995DOPE   C4B35146  34.271  19.311  11.583 -0.2664  0.1072 -0.1925
 2996DOPS   CNO35147  25.285  15.589  13.556 -0.5458  0.4051 -0.0492
 2996DOPS   PO435148  25.067  15.854  13.342 -0.1241 -0.1142  0.1860
 2996DOPS   GL135149  25.076  15.947  13.058 -0.1031  0.2742 -0.2350
 2996DOPS   GL235150  24.935  15.814  12.857  0.0650  0.0986 -0.1129
 2996DOPS   C1A35151  25.434  15.929  12.726  0.1738  0.1649 -0.2454
 2996DOPS   D2A35152  25.569  15.859  12.325  0.0912 -0.0495 -0.1247
 2996DOPS   C3A35153  25.766  16.176  12.030  0.0454 -0.2279  0.3673
 2996DOPS   C4A35154  25.448  16.324  11.688  0.1003  0.1511 -0.2658
 2996DOPS   C1B35155  25.056  15.901  12.412  0.1504  0.0156 -0.3016
 2996DOPS   D2B35156  25.221  15.941  11.951  0.0253 -0.0926 -0.2242
 2996DOPS   C3B35157  25.642  15.721  11.814  0.0744  0.3191 -0.0225
 2996DOPS   C4B35158  25.890  15.389  11.672  0.0505  0.2611 -0.0775
 2997POSM   NC335159  28.236  23.520  14.434  0.0912  0.0360  0.0391
 2997POSM   PO435160  28.007  23.493  14.120  0.1378 -0.0059  0.0729
 2997POSM   AM135161  27.992  23.465  13.779 -0.3005 -0.2991 -0.1473
 2997POSM   AM235162  28.015  23.666  13.573 -0.2437  0.2671 -0.0666
 2997POSM   T1A35163  27.700  23.238  13.463 -0.1600  0.0022 -0.2492
 2997POSM   C2A35164  27.503  23.027  13.070  0.0870 -0.0031 -0.1795
 2997POSM   C3A35165  27.239  22.825  12.746  0.0040  0.2859 -0.0815
 2997POSM   C1B35166  27.815  23.827  13.359 -0.2616 -0.1373  0.4120
 2997POSM   D2B35167  27.671  24.117  13.026 -0.0832 -0.0711 -0.0903
 2997POSM   C3B35168  27.309  24.350  12.781 -0.4972  0.1106  0.0807
 2997POSM   C4B35169  26.960  24.288  12.533  0.3412  0.2376 -0.1159
 2998DOPC   NC335170  27.201  16.262  14.291  0.1328 -0.8375 -0.0778
 2998DOPC   PO435171  27.248  16.462  13.950 -0.1667  0.0586  0.2533
 2998DOPC   GL135172  27.451  16.582  13.576 -0.1344 -0.2445 -0.2205
 2998DOPC   GL235173  27.253  16.557  13.301 -0.1360 -0.1521 -0.1208
 2998DOPC   C1A35174  27.590  16.946  13.334 -0.0560  0.3434 -0.2404
 2998DOPC   D2A35175  28.018  17.036  13.081 -0.0710 -0.0243 -0.2319
 2998DOPC   C3A35176  27.944  17.328  12.784  0.0916  0.1158  0.0339
 2998DOPC   C4A35177  28.014  17.644  12.529 -0.0414  0.1040  0.2489
 2998DOPC   C1B35178  26.869  16.453  13.105  0.1952 -0.1645 -0.0048
 2998DOPC   D2B35179  26.797  16.271  12.638 -0.2171 -0.0601 -0.2467
 2998DOPC   C3B35180  26.614  16.606  12.321  0.0737 -0.2184  0.3175
 2998DOPC   C4B35181  26.704  16.705  11.850  0.3480 -0.1898  0.0708
 2999DOPC   NC335182  28.843  14.536  13.836  0.0730 -0.0978 -0.0633
 2999DOPC   PO435183  29.183  14.742  13.807  0.0361  0.1380  0.2565
 2999DOPC   GL135184  29.435  14.826  13.457 -0.0795 -0.5367  0.1749
 2999DOPC   GL235185  29.258  14.768  13.183  0.3559 -0.3906  0.0320
 2999DOPC   C1A35186  29.539  14.402  13.232 -0.1433 -0.0353  0.0502
 2999DOPC   D2A35187  29.629  14.007  13.158 -0.3438  0.2516  0.1771
 2999DOPC   C3A35188  29.331  13.960  12.757  0.3514 -0.0239 -0.1801
 2999DOPC   C4A35189  29.326  13.586  12.509  0.1983 -0.4526  0.0775
 2999DOPC   C1B35190  29.467  14.967  12.786 -0.0828  0.0550  0.1085
 2999DOPC   D2B35191  29.413  15.147  12.404  0.5204 -0.1474 -0.1526
 2999DOPC   C3B35192  29.107  15.515  12.361 -0.0802 -0.2009 -0.0530
 2999DOPC   C4B35193  29.193  15.818  11.992  0.1479 -0.2030  0.3636
 3000DOPS   CNO35194  27.908  13.591  14.356  0.3571 -0.0833 -0.0403
 3000DOPS   PO435195  27.906  13.229  14.236 -0.0583 -0.0320 -0.4333
 3000DOPS   GL135196  27.748  13.088  13.801 -0.1711  0.0115 -0.4092
 3000DOPS   GL235197  27.968  13.030  13.726 -0.0364  0.0547 -0.1100
 3000DOPS   C1A35198  27.733  13.326  13.417  0.0134  0.0125  0.1017
 3000DOPS   D2A35199  27.930  13.406  12.944  0.0215  0.1035 -0.1056
 3000DOPS   C3A35200  27.774  13.737  12.622  0.2376 -0.0682 -0.0112
 3000DOPS   C4A35201  27.360  13.546  12.456  0.3705 -0.1466 -0.1724
 3000DOPS   C1B35202  28.050  12.611  13.497  0.0488 -0.1755  0.0719
 3000DOPS   D2B35203  27.879  12.352  13.101 -0.1212 -0.1130  0.0216
 3000DOPS   C3B35204  27.662  12.548  12.746 -0.2253  0.2670  0.4546
 3000DOPS   C4B35205  27.220  12.593  12.473 -0.0792 -0.0600 -0.0040
 3001DOPC   NC335206  31.978  26.552  13.729 -0.1681  0.2420 -0.2633
 3001DOPC   PO435207  31.913  26.927  13.805  0.0791 -0.0192  0.0052
 3001DOPC   GL135208  31.887  26.869  13.385  0.1702  0.0671  0.1644
 3001DOPC   GL235209  31.616  27.000  13.423  0.3179  0.2690  0.0214
 3001DOPC   C1A35210  31.758  26.750  12.919  0.0422 -0.1246 -0.2545
 3001DOPC   D2A35211  31.508  26.475  12.606  0.1857  0.2812 -0.0952
 3001DOPC   C3A35212  31.496  26.625  12.179  0.1308 -0.0055  0.0666
 3001DOPC   C4A35213  31.090  26.699  11.942 -0.0691  0.0542  0.0531
 3001DOPC   C1B35214  31.370  26.982  13.052 -0.2618  0.1029  0.0505
 3001DOPC   D2B35215  31.409  26.988  12.599  0.1466 -0.0414  0.0016
 3001DOPC   C3B35216  31.798  26.978  12.281  0.3226 -0.1318 -0.0398
 3001DOPC   C4B35217  32.084  26.916  11.956  0.1269  0.2035  0.3281
 3002POSM   NC335218  31.929  17.158  13.784 -0.2229  0.0129 -0.0581
 3002POSM   PO435219  32.224  17.385  13.653  0.0606  0.1838  0.1162
 3002POSM   AM135220  32.174  17.429  13.340 -0.1663 -0.5023  0.2096
 3002POSM   AM235221  32.194  17.709  13.204 -0.0039 -0.1776  0.0032
 3002POSM   T1A35222  32.343  17.238  12.850  0.1746 -0.3392  0.2583
 3002POSM   C2A35223  32.333  17.054  12.368 -0.1269 -0.0746  0.0021
 3002POSM   C3A35224  32.488  16.786  12.047 -0.2113 -0.0449  0.2114
 3002POSM   C1B35225  32.165  17.729  12.859 -0.0043 -0.0816 -0.2529
 3002POSM   D2B35226  32.122  17.923  12.460 -0.2901 -0.3611 -0.1868
 3002POSM   C3B35227  31.899  18.273  12.282  0.1956  0.1065 -0.1075
 3002POSM   C4B35228  32.069  18.505  11.891  0.1784  0.2764 -0.1531
 3003DOPC   NC335229  34.492   9.583  13.876  0.6243 -0.0450 -0.2578
 3003DOPC   PO435230  34.861   9.788  13.890 -0.0548  0.0937 -0.0675
 3003DOPC   GL135231  34.888   9.756  13.528  0.1967  0.3163  0.3411
 3003DOPC   GL235232  34.875   9.424  13.572  0.1228  0.0350 -0.3151
 3003DOPC   C1A35233  34.877  10.049  13.193  0.2492 -0.1485 -0.1541
 3003DOPC   D2A35234  34.995  10.364  12.870 -0.3237  0.2218 -0.1468
 3003DOPC   C3A35235  34.548  10.347  12.651  0.1432  0.0932  0.0381
 3003DOPC   C4A35236  34.119  10.214  12.793  0.0999  0.2179 -0.0181
 3003DOPC   C1B35237  34.908   9.004  13.305 -0.0654 -0.0729 -0.0501
 3003DOPC   D2B35238  34.761   8.835  12.845 -0.0747 -0.1284  0.0313
 3003DOPC   C3B35239  34.449   9.168  12.697  0.0691  0.2712 -0.1656
 3003DOPC   C4B35240  34.295   9.286  12.303  0.0330  0.0490  0.1437
 3004DOPC   NC335241   1.431   8.359  13.593 -0.0220 -0.0921 -0.1942
 3004DOPC   PO435242   1.037   8.303  13.625  0.1723 -0.2180 -0.0624
 3004DOPC   GL135243   1.144   8.369  13.229 -0.0341 -0.2529 -0.3927
 3004DOPC   GL235244   1.305   8.135  13.169 -0.0470 -0.1687  0.2883
 3004DOPC   C1A35245   1.142   8.492  12.799 -0.2240  0.1114 -0.2741
 3004DOPC   D2A35246   1.478   8.769  12.649 -0.0402  0.2741 -0.0152
 3004DOPC   C3A35247   1.538   9.138  12.375  0.1393  0.1043 -0.0784
 3004DOPC   C4A35248   1.845   9.394  12.118  0.0847 -0.2714 -0.0068
 3004DOPC   C1B35249   1.145   8.019  12.745  0.1836  0.2170 -0.3041
 3004DOPC   D2B35250   1.042   8.129  12.327  0.0904  0.1569  0.1973
 3004DOPC   C3B35251   1.304   7.908  12.089 -0.0087  0.1123 -0.1061
 3004DOPC   C4B35252   1.791   7.756  12.109 -0.0706 -0.0121  0.1881
 3005DOPE   NH335253  32.659   9.499  14.714 -0.1988 -0.1124  0.1160
 3005DOPE   PO435254  32.922   9.328  14.603  0.2085  0.0462  0.0494
 3005DOPE   GL135255  32.658   9.409  14.214  0.1330 -0.0165  0.0543
 3005DOPE   GL235256  32.556   9.585  13.977  0.2769 -0.0404  0.1302
 3005DOPE   C1A35257  32.703   9.060  13.852 -0.1047 -0.1927  0.1856
 3005DOPE   D2A35258  32.373   8.789  13.590  0.0746 -0.2203 -0.1329
 3005DOPE   C3A35259  32.373   8.990  13.202  0.1862  0.0867 -0.2021
 3005DOPE   C4A35260  32.324   9.071  12.740 -0.0306 -0.0481 -0.1519
 3005DOPE   C1B35261  32.716   9.475  13.544  0.0230  0.1336  0.0505
 3005DOPE   D2B35262  32.649   9.431  13.106  0.0813  0.1141 -0.0388
 3005DOPE   C3B35263  32.922   9.508  12.761  0.2368 -0.0883  0.1291
 3005DOPE   C4B35264  33.054   9.269  12.384  0.0670 -0.4404 -0.2999
 3006POSM   NC335265   1.549   9.991  14.133  0.5365 -0.0096 -0.1712
 3006POSM   PO435266   1.551   9.668  13.930  0.0099 -0.2176 -0.1394
 3006POSM   AM135267   1.826   9.724  13.728  0.0213  0.3160 -0.0227
 3006POSM   AM235268   2.005   9.866  13.553 -0.1841 -0.0699  0.0995
 3006POSM   T1A35269   2.018   9.439  13.372  0.0011 -0.0073  0.1696
 3006POSM   C2A35270   2.336   9.262  13.054 -0.1510  0.0511 -0.0173
 3006POSM   C3A35271   2.498   8.917  12.765 -0.1208  0.2408  0.1020
 3006POSM   C1B35272   1.950   9.933  13.204  0.0691  0.1993 -0.0650
 3006POSM   D2B35273   1.859   9.988  12.727  0.3289  0.2237 -0.3162
 3006POSM   C3B35274   1.909   9.821  12.284 -0.1331  0.0089  0.1197
 3006POSM   C4B35275   1.603   9.893  11.983  0.0673  0.2422 -0.0997
 3007POSM   NC335276  27.317  18.705  14.048 -0.1213 -0.1789  0.1142
 3007POSM   PO435277  27.620  18.994  14.064  0.1076  0.1327 -0.1461
 3007POSM   AM135278  27.539  19.093  13.730  0.0922  0.2465  0.0548
 3007POSM   AM235279  27.244  19.114  13.657  0.0124 -0.0567  0.1222
 3007POSM   T1A35280  27.569  19.455  13.457 -0.0044 -0.0210 -0.4330
 3007POSM   C2A35281  27.846  19.730  13.298 -0.1927  0.1383 -0.2714
 3007POSM   C3A35282  28.113  20.099  13.355 -0.0272 -0.1669  0.0436
 3007POSM   C1B35283  27.049  19.208  13.334 -0.0254  0.3484  0.0505
 3007POSM   D2B35284  26.949  19.049  12.875  0.1184 -0.2280 -0.1056
 3007POSM   C3B35285  27.055  19.012  12.410 -0.3588  0.0516 -0.2641
 3007POSM   C4B35286  27.320  19.113  12.097 -0.3324  0.0287  0.0709
 3008DOPE   NH335287  26.118  11.831  14.409 -0.0735 -0.0314  0.0540
 3008DOPE   PO435288  26.094  11.537  14.360  0.1614  0.0713  0.1492
 3008DOPE   GL135289  26.014  11.616  13.995 -0.0786  0.2547 -0.0628
 3008DOPE   GL235290  26.179  11.515  13.878 -0.3361  0.2347  0.1744
 3008DOPE   C1A35291  25.765  11.363  13.676 -0.0900  0.3181  0.1043
 3008DOPE   D2A35292  25.566  11.016  13.421  0.1536 -0.2234 -0.0304
 3008DOPE   C3A35293  25.544  10.836  13.031 -0.3885  0.1476 -0.0237
 3008DOPE   C4A35294  25.478  10.862  12.531 -0.0927  0.1331 -0.2012
 3008DOPE   C1B35295  26.196  11.450  13.432  0.1383 -0.1363 -0.1219
 3008DOPE   D2B35296  26.246  11.700  13.063 -0.1968 -0.2003  0.0733
 3008DOPE   C3B35297  26.556  11.820  12.785  0.0175  0.1292  0.2824
 3008DOPE   C4B35298  26.912  11.797  12.501  0.0272 -0.1340 -0.0119
 3009POSM   NC335299  20.807  13.134  13.793  0.0700  0.2567  0.1131
 3009POSM   PO435300  20.594  12.801  13.721  0.0094 -0.0039  0.1907
 3009POSM   AM135301  20.642  12.557  13.544  0.3068  0.4608 -0.0043
 3009POSM   AM235302  20.605  12.482  13.247 -0.0207 -0.1383 -0.1139
 3009POSM   T1A35303  20.592  12.025  13.378  0.1409  0.3246  0.1132
 3009POSM   C2A35304  20.604  11.656  13.081  0.0664 -0.1364  0.1208
 3009POSM   C3A35305  20.706  11.297  12.781  0.2982 -0.0901  0.2236
 3009POSM   C1B35306  20.682  12.558  12.965 -0.1927  0.0205 -0.1190
 3009POSM   D2B35307  20.578  12.665  12.525 -0.0345  0.1164 -0.1462
 3009POSM   C3B35308  20.286  12.818  12.183 -0.2143 -0.1131  0.0220
 3009POSM   C4B35309  20.226  12.986  11.750  0.0821 -0.0158 -0.1660
 3010DOPE   NH335310  29.607  23.580  14.284  0.6140  0.2031 -0.0028
 3010DOPE   PO435311  29.461  23.804  14.114 -0.4043 -0.1746  0.0533
 3010DOPE   GL135312  29.731  23.620  13.850 -0.3539 -0.4820  0.2226
 3010DOPE   GL235313  29.715  23.792  13.630  0.3035 -0.1674 -0.0818
 3010DOPE   C1A35314  29.468  23.293  13.611  0.2118 -0.1615 -0.1035
 3010DOPE   D2A35315  29.287  22.850  13.528 -0.2866  0.1183 -0.0741
 3010DOPE   C3A35316  29.017  22.642  13.193 -0.0529  0.2497  0.3982
 3010DOPE   C4A35317  28.702  22.487  12.844  0.0112 -0.0312  0.1645
 3010DOPE   C1B35318  29.396  23.660  13.304 -0.0263 -0.0588  0.0076
 3010DOPE   D2B35319  29.255  23.558  12.886  0.1488  0.1013  0.1773
 3010DOPE   C3B35320  28.983  23.472  12.556  0.1362 -0.1721  0.0124
 3010DOPE   C4B35321  28.611  23.245  12.468 -0.3447  0.0394 -0.0951
 3011POSM   NC335322  24.603  16.763  13.769 -0.1691  0.0501 -0.1815
 3011POSM   PO435323  24.447  16.436  13.602  0.1234  0.1415 -0.1853
 3011POSM   AM135324  24.594  16.484  13.321 -0.1748  0.0641 -0.0005
 3011POSM   AM235325  24.554  16.491  13.020  0.1686  0.0578  0.0828
 3011POSM   T1A35326  25.052  16.440  13.086  0.1684 -0.0425 -0.0243
 3011POSM   C2A35327  25.199  16.382  12.674 -0.3136  0.0870 -0.1443
 3011POSM   C3A35328  25.231  16.391  12.215 -0.0086  0.2605 -0.0713
 3011POSM   C1B35329  24.556  16.482  12.643  0.0843  0.2488 -0.1403
 3011POSM   D2B35330  24.764  16.285  12.283  0.2403 -0.1108  0.1076
 3011POSM   C3B35331  24.499  16.447  11.965 -0.1981 -0.1311 -0.0186
 3011POSM   C4B35332  24.500  16.839  11.769 -0.1004 -0.0528 -0.0311
 3012DOPS   CNO35333   1.229  11.563  14.337 -0.0038  0.1259 -0.0777
 3012DOPS   PO435334   0.987  11.383  14.117 -0.0010 -0.1497 -0.1902
 3012DOPS   GL135335   1.199  11.437  13.805  0.2710  0.1398  0.0878
 3012DOPS   GL235336   1.173  11.164  13.689  0.0148  0.0841  0.0534
 3012DOPS   C1A35337   1.075  11.519  13.373  0.0554 -0.0316 -0.0948
 3012DOPS   D2A35338   1.297  11.499  13.012 -0.2276  0.0620  0.0076
 3012DOPS   C3A35339   1.616  11.541  12.681 -0.1376 -0.2812  0.0114
 3012DOPS   C4A35340   1.944  11.567  12.360  0.2514  0.1261  0.0904
 3012DOPS   C1B35341   1.303  11.030  13.269  0.4420 -0.1023  0.1342
 3012DOPS   D2B35342   1.520  11.056  12.824  0.2172  0.0655  0.0120
 3012DOPS   C3B35343   1.822  11.049  12.453 -0.0297 -0.0892 -0.1824
 3012DOPS   C4B35344   2.189  11.026  12.171  0.1073 -0.2620 -0.1496
 3013DOPC   NC335345  29.977  20.588  14.037  0.1581  0.1722  0.1282
 3013DOPC   PO435346  30.062  20.573  13.663 -0.0810 -0.0334 -0.1834
 3013DOPC   GL135347  29.906  20.695  13.319 -0.4120  0.0814 -0.1909
 3013DOPC   GL235348  29.994  20.497  13.146  0.0332 -0.0177 -0.0455
 3013DOPC   C1A35349  29.698  21.041  13.098  0.1460 -0.4377  0.2019
 3013DOPC   D2A35350  29.317  21.251  12.856 -0.0749 -0.0612  0.0356
 3013DOPC   C3A35351  29.419  21.332  12.435  0.2100  0.1135  0.0323
 3013DOPC   C4A35352  29.487  21.553  11.977  0.1648 -0.1009 -0.1300
 3013DOPC   C1B35353  30.329  20.399  12.826 -0.0132  0.2955 -0.2069
 3013DOPC   D2B35354  30.441  20.489  12.380 -0.0873  0.0026  0.2056
 3013DOPC   C3B35355  30.005  20.542  12.247 -0.2934 -0.0808 -0.2242
 3013DOPC   C4B35356  29.571  20.350  12.158 -0.0165 -0.3756  0.1477
 3014DOPS   CNO35357  23.195  19.213  14.134  0.1507 -0.0958 -0.2007
 3014DOPS   PO435358  23.338  19.076  13.847  0.4346  0.0378 -0.2855
 3014DOPS   GL135359  23.253  19.254  13.416  0.0864 -0.1463 -0.0798
 3014DOPS   GL235360  23.013  19.316  13.531 -0.0893 -0.1718  0.1948
 3014DOPS   C1A35361  23.244  18.982  13.044  0.0416 -0.0945 -0.0737
 3014DOPS   D2A35362  23.086  19.028  12.654  0.0833  0.2214  0.1261
 3014DOPS   C3A35363  22.707  18.825  12.429 -0.1319  0.1806 -0.1369
 3014DOPS   C4A35364  22.627  18.546  12.077 -0.0354 -0.1233 -0.2334
 3014DOPS   C1B35365  22.944  19.353  13.062 -0.3040 -0.0110 -0.0350
 3014DOPS   D2B35366  23.053  19.572  12.593 -0.0510  0.0971 -0.0455
 3014DOPS   C3B35367  23.452  19.467  12.364  0.2967  0.0925 -0.0442
 3014DOPS   C4B35368  23.847  19.353  12.170  0.1537  0.1343  0.0705
 3015DOPE   NH335369  32.496  23.053  13.697 -0.1714  0.1442 -0.0625
 3015DOPE   PO435370  32.199  22.926  13.729  0.1907 -0.1394 -0.1139
 3015DOPE   GL135371  32.363  22.708  13.378  0.0553  0.3248  0.1000
 3015DOPE   GL235372  32.184  22.451  13.500  0.2549 -0.2782 -0.1799
 3015DOPE   C1A35373  32.108  22.591  13.006 -0.0017  0.0261  0.2184
 3015DOPE   D2A35374  32.266  22.809  12.539  0.1686  0.1587  0.1067
 3015DOPE   C3A35375  32.136  22.523  12.251  0.1156  0.1736  0.1383
 3015DOPE   C4A35376  31.783  22.585  11.955  0.0111  0.2918  0.1332
 3015DOPE   C1B35377  32.301  22.096  13.211  0.0068  0.2783 -0.3009
 3015DOPE   D2B35378  32.684  21.987  12.928 -0.0724  0.2642 -0.1213
 3015DOPE   C3B35379  32.725  21.998  12.518  0.0401  0.1474 -0.2854
 3015DOPE   C4B35380  32.662  22.105  12.083  0.0311  0.2132 -0.5156
 3016DOPC   NC335381  25.698  14.338  13.153  0.0533  0.2463  0.2134
 3016DOPC   PO435382  25.394  14.368  13.370  0.2649  0.0929  0.2891
 3016DOPC   GL135383  25.284  14.194  12.977 -0.3774 -0.3502  0.0351
 3016DOPC   GL235384  25.044  14.235  13.019 -0.0277 -0.0991  0.0460
 3016DOPC   C1A35385  25.522  14.041  12.621  0.0484  0.3854  0.1459
 3016DOPC   D2A35386  25.587  13.761  12.304 -0.1885  0.1825 -0.0847
 3016DOPC   C3A35387  25.335  13.429  12.011 -0.0468  0.0055 -0.0281
 3016DOPC   C4A35388  24.964  13.452  11.734 -0.1073 -0.1604 -0.0338
 3016DOPC   C1B35389  24.867  14.020  12.632 -0.2877  0.0613 -0.2333
 3016DOPC   D2B35390  24.753  13.773  12.246 -0.1162  0.0138 -0.0993
 3016DOPC   C3B35391  24.802  13.333  12.222 -0.0719  0.0742  0.2295
 3016DOPC   C4B35392  24.761  12.883  12.288  0.3592 -0.4213 -0.0056
 3017DOPS   CNO35393  21.920  11.656  14.130  0.0906 -0.0650 -0.1198
 3017DOPS   PO435394  22.226  11.782  13.898 -0.0901  0.0741 -0.1080
 3017DOPS   GL135395  22.065  11.824  13.608  0.1689  0.1434 -0.0500
 3017DOPS   GL235396  21.902  11.646  13.528  0.1955 -0.3015 -0.4404
 3017DOPS   C1A35397  21.798  12.062  13.325  0.2109 -0.0140 -0.0011
 3017DOPS   D2A35398  21.668  12.459  13.075  0.4277 -0.0502  0.1737
 3017DOPS   C3A35399  21.322  12.396  12.796  0.1419 -0.0406  0.0772
 3017DOPS   C4A35400  21.014  12.419  12.432  0.0477 -0.0101  0.0972
 3017DOPS   C1B35401  21.606  11.327  13.353  0.0047  0.0672 -0.3226
 3017DOPS   D2B35402  21.227  11.077  13.530  0.1097 -0.1610 -0.2705
 3017DOPS   C3B35403  20.942  10.845  13.239  0.2856 -0.0058 -0.0997
 3017DOPS   C4B35404  20.793  10.769  12.861  0.2435  0.0100  0.2108
 3018DOPC   NC335405  28.131  14.901  14.449  0.1954  0.2254  0.1658
 3018DOPC   PO435406  28.308  14.944  14.117  0.1635  0.0732 -0.0279
 3018DOPC   GL135407  28.183  14.836  13.765 -0.0575 -0.3832 -0.0327
 3018DOPC   GL235408  28.334  14.607  13.766  0.4805  0.1043  0.1636
 3018DOPC   C1A35409  28.264  15.096  13.370  0.2025 -0.1241  0.2163
 3018DOPC   D2A35410  28.307  15.035  12.899  0.0989  0.1277  0.0272
 3018DOPC   C3A35411  28.186  14.868  12.531 -0.0652 -0.2444 -0.5782
 3018DOPC   C4A35412  27.977  14.754  12.127  0.0433 -0.2677  0.1124
 3018DOPC   C1B35413  28.246  14.594  13.337 -0.1178  0.2268  0.0281
 3018DOPC   D2B35414  28.483  14.502  12.929 -0.3315  0.1027 -0.1045
 3018DOPC   C3B35415  28.700  14.531  12.554 -0.1351  0.3421  0.0820
 3018DOPC   C4B35416  28.927  14.396  12.174 -0.1951  0.1586  0.0509
 3019DOPE   NH335417  34.020  20.989  13.844  0.0184 -0.3559 -0.1310
 3019DOPE   PO435418  34.267  20.785  13.873  0.1015  0.1118 -0.1493
 3019DOPE   GL135419  34.325  20.849  13.503 -0.1390 -0.4964 -0.2332
 3019DOPE   GL235420  34.604  20.999  13.381  0.0983 -0.3176  0.0778
 3019DOPE   C1A35421  34.276  20.956  13.055  0.3068 -0.1641  0.0625
 3019DOPE   D2A35422  34.335  21.234  12.677 -0.0290 -0.0855  0.2936
 3019DOPE   C3A35423  34.057  21.252  12.263  0.0348  0.1248  0.1558
 3019DOPE   C4A35424  33.839  21.477  11.915  0.2280  0.2179 -0.0561
 3019DOPE   C1B35425  34.783  21.130  12.991 -0.0168 -0.1574 -0.3225
 3019DOPE   D2B35426  34.886  21.493  12.650  0.2957 -0.2022  0.1830
 3019DOPE   C3B35427  34.618  21.566  12.260  0.1257 -0.1996 -0.2054
 3019DOPE   C4B35428  34.504  21.489  11.817  0.1096  0.1150  0.2297
 3020POSM   NC335429  30.252  22.646  13.908  0.2740 -0.2192 -0.0770
 3020POSM   PO435430  30.533  22.854  13.759  0.0789 -0.4730  0.0614
 3020POSM   AM135431  30.546  22.729  13.443 -0.2951  0.3984 -0.0554
 3020POSM   AM235432  30.638  22.488  13.374  0.0252  0.1787 -0.0389
 3020POSM   T1A35433  30.375  22.792  13.006 -0.3267  0.0260  0.3426
 3020POSM   C2A35434  30.174  22.667  12.571 -0.1275  0.3401 -0.0380
 3020POSM   C3A35435  30.022  22.401  12.219 -0.2633  0.0953  0.1487
 3020POSM   C1B35436  30.885  22.587  13.177  0.2607 -0.4094 -0.3458
 3020POSM   D2B35437  31.177  22.584  12.791 -0.0741 -0.0429 -0.0169
 3020POSM   C3B35438  31.022  22.695  12.344  0.0284  0.0484  0.0793
 3020POSM   C4B35439  30.743  22.834  11.982  0.1129 -0.4480 -0.1225
 3021DOPE   NH335440  28.729  20.784  13.594 -0.1495 -0.1005 -0.1285
 3021DOPE   PO435441  28.481  20.585  13.612  0.5378 -0.3797  0.0884
 3021DOPE   GL135442  28.508  20.706  13.199  0.0028  0.0755 -0.1392
 3021DOPE   GL235443  28.316  20.536  13.075 -0.0270 -0.0812 -0.1515
 3021DOPE   C1A35444  28.844  20.909  12.905  0.1967  0.1631  0.2266
 3021DOPE   D2A35445  28.934  21.134  12.477  0.2687 -0.0444  0.2127
 3021DOPE   C3A35446  28.670  20.996  12.168  0.2170  0.0228  0.2713
 3021DOPE   C4A35447  28.552  20.786  11.794  0.2042 -0.1729 -0.0847
 3021DOPE   C1B35448  28.436  20.719  12.706 -0.2445 -0.1289 -0.0898
 3021DOPE   D2B35449  28.678  20.506  12.396  0.0172 -0.2355 -0.1379
 3021DOPE   C3B35450  28.764  20.034  12.441 -0.0108  0.0839  0.0498
 3021DOPE   C4B35451  28.635  19.670  12.706  0.0933 -0.0568 -0.0370
 3022POSM   NC335452  30.181  21.820  13.821  0.2586 -0.2267  0.1602
 3022POSM   PO435453  30.555  21.703  13.845  0.2059  0.0598 -0.2113
 3022POSM   AM135454  30.549  21.655  13.528  0.4101 -0.0244  0.2622
 3022POSM   AM235455  30.632  21.554  13.310  0.2782  0.2056 -0.2369
 3022POSM   T1A35456  30.718  21.967  13.141  0.0979 -0.0983  0.0323
 3022POSM   C2A35457  30.716  21.990  12.685 -0.0903 -0.1909  0.1901
 3022POSM   C3A35458  30.465  22.147  12.367 -0.0042 -0.2267  0.0348
 3022POSM   C1B35459  30.534  21.390  13.001  0.0573 -0.0189 -0.2258
 3022POSM   D2B35460  30.278  21.391  12.599 -0.2821  0.1893 -0.4541
 3022POSM   C3B35461  30.413  21.673  12.260 -0.2580 -0.0953  0.2724
 3022POSM   C4B35462  30.346  21.988  11.877 -0.3242 -0.0201  0.5246
 3023DOPC   NC335463  30.666  16.965  13.366  0.1301  0.3317 -0.4175
 3023DOPC   PO435464  31.020  16.823  13.541  0.2491  0.0993 -0.2074
 3023DOPC   GL135465  31.062  16.929  13.205  0.2722 -0.1460 -0.3130
 3023DOPC   GL235466  31.341  16.974  13.214 -0.0411  0.1356  0.1214
 3023DOPC   C1A35467  30.870  17.228  12.929  0.0134 -0.0522 -0.3233
 3023DOPC   D2A35468  31.100  17.359  12.556  0.0385 -0.1969  0.0534
 3023DOPC   C3A35469  31.248  17.681  12.285 -0.1348  0.1194  0.0619
 3023DOPC   C4A35470  31.414  18.107  12.302 -0.1491 -0.0290 -0.1484
 3023DOPC   C1B35471  31.316  17.007  12.750  0.1516 -0.0280  0.1897
 3023DOPC   D2B35472  31.347  17.025  12.225  0.0410  0.0815  0.0722
 3023DOPC   C3B35473  31.466  17.353  12.025  0.0362 -0.2019 -0.0754
 3023DOPC   C4B35474  31.713  17.532  11.678 -0.0487 -0.2544 -0.0749
 3024DOPE   NH335475  29.802  24.181  14.077  0.1037 -0.2321  0.1773
 3024DOPE   PO435476  29.758  24.392  13.870  0.0845  0.0194 -0.1436
 3024DOPE   GL135477  29.673  24.229  13.464  0.3214  0.4509 -0.2079
 3024DOPE   GL235478  29.688  24.481  13.294 -0.0820  0.2079 -0.3636
 3024DOPE   C1A35479  29.703  23.953  13.123  0.1443  0.1046 -0.0017
 3024DOPE   D2A35480  29.632  23.980  12.651  0.0018  0.0711 -0.2759
 3024DOPE   C3A35481  29.614  24.360  12.441 -0.0977 -0.1416  0.1792
 3024DOPE   C4A35482  29.570  24.395  11.978  0.2072  0.2485 -0.2349
 3024DOPE   C1B35483  30.008  24.304  12.991  0.0510 -0.1269  0.1402
 3024DOPE   D2B35484  30.089  24.292  12.508 -0.1433  0.1103 -0.1402
 3024DOPE   C3B35485  30.027  24.732  12.345  0.0050 -0.0661 -0.0291
 3024DOPE   C4B35486  29.705  24.900  12.041 -0.0937  0.1544 -0.1395
 3025POSM   NC335487  33.255   6.757  14.144  0.0075  0.2474  0.1820
 3025POSM   PO435488  32.939   6.671  13.918  0.0119 -0.0502  0.2093
 3025POSM   AM135489  32.742   6.639  13.650  0.3372  0.1777 -0.0323
 3025POSM   AM235490  32.669   6.471  13.436 -0.1538  0.1052 -0.2388
 3025POSM   T1A35491  32.509   6.882  13.268 -0.2288 -0.0592  0.0541
 3025POSM   C2A35492  32.612   7.027  12.831  0.2877 -0.0319  0.3019
 3025POSM   C3A35493  32.807   7.199  12.447  0.1201  0.1310 -0.0227
 3025POSM   C1B35494  32.838   6.494  13.153 -0.0698  0.1447 -0.0178
 3025POSM   D2B35495  33.065   6.234  12.773 -0.1959 -0.0355 -0.0795
 3025POSM   C3B35496  32.910   6.202  12.389 -0.0765 -0.0174  0.2226
 3025POSM   C4B35497  32.899   6.184  11.925  0.3606  0.2710 -0.2223
 3026DOPE   NH335498  32.956  23.428  13.855  0.0388 -0.1511 -0.2245
 3026DOPE   PO435499  32.959  23.232  13.620 -0.2769  0.3920  0.1239
 3026DOPE   GL135500  32.909  23.015  13.358  0.5454 -0.0774 -0.0997
 3026DOPE   GL235501  32.809  22.767  13.282 -0.1613  0.1913 -0.3460
 3026DOPE   C1A35502  32.891  23.193  12.927 -0.5139  0.0694 -0.1700
 3026DOPE   D2A35503  33.255  23.191  12.641 -0.2613  0.2001 -0.1829
 3026DOPE   C3A35504  33.258  23.392  12.248  0.1634  0.0588  0.0559
 3026DOPE   C4A35505  33.381  23.602  11.825 -0.0493  0.0797  0.2782
 3026DOPE   C1B35506  32.626  22.504  12.900  0.0787 -0.1158 -0.3956
 3026DOPE   D2B35507  32.702  22.466  12.427 -0.1567 -0.0313 -0.1840
 3026DOPE   C3B35508  32.568  22.644  12.044 -0.5288 -0.1101 -0.4259
 3026DOPE   C4B35509  32.583  22.431  11.661  0.3673 -0.0352 -0.0097
 3027DOPE   NH335510  25.653  15.202  13.460  0.1955 -0.2670 -0.1792
 3027DOPE   PO435511  25.752  15.181  13.179 -0.3428  0.0579 -0.1896
 3027DOPE   GL135512  25.671  15.565  12.975  0.1690  0.1311  0.5467
 3027DOPE   GL235513  25.835  15.585  12.682 -0.1449  0.0735 -0.2922
 3027DOPE   C1A35514  25.317  15.486  12.640  0.0452  0.0260 -0.1696
 3027DOPE   D2A35515  25.226  15.441  12.197  0.0423  0.0351 -0.0800
 3027DOPE   C3A35516  25.528  15.123  12.123  0.0995  0.0122  0.2219
 3027DOPE   C4A35517  25.973  15.060  12.062  0.2449 -0.2449  0.3101
 3027DOPE   C1B35518  25.916  15.207  12.543  0.2119  0.0784 -0.1714
 3027DOPE   D2B35519  26.007  14.765  12.478 -0.0129 -0.1078 -0.2268
 3027DOPE   C3B35520  25.985  14.520  12.079 -0.1824 -0.0468 -0.3685
 3027DOPE   C4B35521  26.151  14.253  11.888  0.0218 -0.1635  0.0746
 3028DOPE   NH335522  31.509  19.802  13.851 -0.0243 -0.0371  0.1370
 3028DOPE   PO435523  31.509  19.959  13.577 -0.0914 -0.0010  0.1805
 3028DOPE   GL135524  31.328  20.059  13.246  0.0975  0.1876  0.0679
 3028DOPE   GL235525  31.172  20.160  13.009 -0.0021  0.1300  0.0661
 3028DOPE   C1A35526  31.684  20.233  13.001  0.2605  0.0243  0.0788
 3028DOPE   D2A35527  32.093  20.366  12.837  0.0866 -0.2899  0.1103
 3028DOPE   C3A35528  32.153  20.699  12.489  0.1873  0.1307  0.0949
 3028DOPE   C4A35529  32.028  20.994  12.128  0.2147  0.0995 -0.1437
 3028DOPE   C1B35530  31.294  19.857  12.744  0.0625  0.2467  0.0577
 3028DOPE   D2B35531  31.274  19.696  12.320  0.1152 -0.0831  0.0129
 3028DOPE   C3B35532  31.479  19.898  11.962 -0.0956 -0.1236  0.1082
 3028DOPE   C4B35533  31.848  20.076  11.721  0.0119  0.0151 -0.3307
 3029DOPE   NH335534  24.619  12.500  13.852  0.1543 -0.1064  0.0456
 3029DOPE   PO435535  24.816  12.702  13.944 -0.4233  0.0166  0.0789
 3029DOPE   GL135536  24.945  12.617  13.538  0.0744 -0.1119  0.4295
 3029DOPE   GL235537  25.047  12.804  13.372 -0.1031 -0.4515  0.2948
 3029DOPE   C1A35538  25.289  12.354  13.350  0.0269  0.1832 -0.2064
 3029DOPE   D2A35539  25.496  12.190  12.933  0.2360  0.0031 -0.0945
 3029DOPE   C3A35540  25.650  11.779  12.867  0.1213  0.2517 -0.0719
 3029DOPE   C4A35541  25.549  11.338  12.682  0.2164  0.1594 -0.0023
 3029DOPE   C1B35542  25.343  12.789  12.954 -0.2096  0.2737 -0.3389
 3029DOPE   D2B35543  25.362  12.587  12.535 -0.1715  0.0890  0.3304
 3029DOPE   C3B35544  25.035  12.327  12.368 -0.0668  0.0772 -0.1700
 3029DOPE   C4B35545  24.738  12.344  12.021  0.1691  0.3468 -0.3946
 3030POSM   NC335546  32.115  15.830  13.482  0.0166 -0.1749  0.0250
 3030POSM   PO435547  31.886  15.710  13.789  0.2859  0.1108  0.0063
 3030POSM   AM135548  31.731  15.502  13.589 -0.0005 -0.2504 -0.2107
 3030POSM   AM235549  31.752  15.222  13.444  0.1317 -0.1621  0.2566
 3030POSM   T1A35550  31.386  15.523  13.219  0.1839 -0.1406  0.2077
 3030POSM   C2A35551  31.376  15.535  12.784  0.1276  0.3675 -0.0892
 3030POSM   C3A35552  31.764  15.531  12.546  0.0858 -0.2197  0.3058
 3030POSM   C1B35553  31.779  15.089  13.160 -0.0131  0.1782  0.4477
 3030POSM   D2B35554  32.022  15.078  12.782 -0.1097  0.1152  0.2177
 3030POSM   C3B35555  31.959  15.151  12.329 -0.0029  0.1859 -0.1049
 3030POSM   C4B35556  31.930  15.260  11.868  0.1341  0.2294 -0.0289
 3031DOPE   NH335557  30.436  19.453  13.458 -0.0996 -0.1715 -0.0438
 3031DOPE   PO435558  30.776  19.444  13.510  0.1408 -0.3591 -0.0217
 3031DOPE   GL135559  30.672  19.488  13.093  0.1612  0.0216  0.2156
 3031DOPE   GL235560  30.366  19.450  12.990  0.2511  0.1668 -0.1115
 3031DOPE   C1A35561  30.856  19.646  12.695  0.2356 -0.1304  0.0256
 3031DOPE   D2A35562  30.857  19.911  12.321  0.3101 -0.1377 -0.0445
 3031DOPE   C3A35563  31.169  20.190  12.310  0.1332 -0.0234  0.2967
 3031DOPE   C4A35564  31.384  20.551  12.180  0.2354 -0.2065  0.0971
 3031DOPE   C1B35565  29.958  19.329  12.733  0.1016 -0.0514  0.0844
 3031DOPE   D2B35566  29.856  19.377  12.295 -0.0784 -0.4347  0.1131
 3031DOPE   C3B35567  30.053  19.604  11.904 -0.0760  0.0521 -0.0978
 3031DOPE   C4B35568  30.323  19.858  11.651  0.1334  0.1285  0.0012
 3032DOPE   NH335569  31.783  21.534  13.822 -0.0614  0.1522 -0.0872
 3032DOPE   PO435570  31.790  21.822  13.911  0.2139 -0.3450  0.4121
 3032DOPE   GL135571  32.040  21.899  13.515  0.1196 -0.0619 -0.0292
 3032DOPE   GL235572  31.728  21.755  13.382 -0.3985  0.0522 -0.1184
 3032DOPE   C1A35573  31.788  22.177  13.192  0.1152  0.4851  0.0153
 3032DOPE   D2A35574  31.704  22.304  12.749  0.2000 -0.0512  0.1374
 3032DOPE   C3A35575  31.566  22.307  12.300  0.1137  0.2629  0.0879
 3032DOPE   C4A35576  31.273  22.392  11.981  0.1255 -0.0417  0.0348
 3032DOPE   C1B35577  32.000  21.788  12.955  0.1198 -0.2449 -0.1625
 3032DOPE   D2B35578  32.165  22.159  12.685 -0.2290  0.2471  0.0206
 3032DOPE   C3B35579  32.121  22.040  12.221  0.0041 -0.1567  0.1705
 3032DOPE   C4B35580  32.139  22.263  11.855 -0.1563 -0.3686 -0.1308
 3033POSM   NC335581  32.059  11.948  14.487  0.2080 -0.0202 -0.0837
 3033POSM   PO435582  31.687  12.059  14.369  0.1190  0.4994 -0.4701
 3033POSM   AM135583  31.516  12.113  14.064  0.0944 -0.1126  0.0143
 3033POSM   AM235584  31.679  12.139  13.805 -0.0448  0.1823  0.2381
 3033POSM   T1A35585  31.190  12.136  13.708  0.0491 -0.1380 -0.0884
 3033POSM   C2A35586  30.798  11.939  13.514 -0.1398 -0.0396 -0.0199
 3033POSM   C3A35587  30.531  11.945  13.139  0.0053  0.2198 -0.0117
 3033POSM   C1B35588  31.748  12.107  13.499 -0.1097 -0.1316 -0.1865
 3033POSM   D2B35589  31.626  12.215  13.074 -0.1772  0.1564  0.1167
 3033POSM   C3B35590  32.042  12.131  12.912  0.1234  0.0324 -0.2843
 3033POSM   C4B35591  32.169  12.031  12.496 -0.2240 -0.1302  0.2200
 3034DOPC   NC335592  27.398  20.902  14.286  0.0180 -0.0907 -0.2862
 3034DOPC   PO435593  27.298  21.272  14.086  0.3903  0.2697 -0.0087
 3034DOPC   GL135594  27.071  21.233  13.739  0.2612  0.1850 -0.0634
 3034DOPC   GL235595  26.845  21.374  13.754 -0.0435  0.2087 -0.3780
 3034DOPC   C1A35596  27.129  20.941  13.369  0.3065 -0.1211 -0.0529
 3034DOPC   D2A35597  27.084  20.825  12.897 -0.4237  0.0552 -0.2124
 3034DOPC   C3A35598  26.991  20.406  12.794  0.4864 -0.4137 -0.0361
 3034DOPC   C4A35599  27.107  19.897  12.584 -0.0660 -0.1451  0.0796
 3034DOPC   C1B35600  26.822  21.313  13.321  0.1347  0.0196 -0.0893
 3034DOPC   D2B35601  26.809  21.236  12.893 -0.0227  0.2091  0.1257
 3034DOPC   C3B35602  26.749  21.035  12.492 -0.0710 -0.0600 -0.1915
 3034DOPC   C4B35603  26.919  20.627  12.287  0.2865 -0.2700 -0.2553
 3035DOPE   NH335604  23.936  16.328  13.345  0.0926  0.2304 -0.1865
 3035DOPE   PO435605  24.168  16.222  13.169  0.1137  0.0165 -0.1026
 3035DOPE   GL135606  24.284  16.176  12.750  0.1049 -0.0776 -0.1665
 3035DOPE   GL235607  24.410  15.958  12.653  0.2233 -0.0312 -0.0989
 3035DOPE   C1A35608  23.943  16.081  12.487  0.3633 -0.1466 -0.1127
 3035DOPE   D2A35609  23.833  15.765  12.158  0.0215  0.0318 -0.1479
 3035DOPE   C3A35610  23.840  15.483  11.780 -0.1485 -0.2702 -0.0563
 3035DOPE   C4A35611  23.780  15.314  11.386 -0.3811  0.1853  0.0075
 3035DOPE   C1B35612  24.403  15.900  12.217 -0.0970 -0.2136  0.2951
 3035DOPE   D2B35613  24.294  15.628  11.908 -0.1718 -0.0045 -0.1009
 3035DOPE   C3B35614  24.071  16.056  11.782 -0.2245  0.0889  0.1197
 3035DOPE   C4B35615  23.636  16.182  11.944  0.0726  0.0131  0.0751
 3036DOPC   NC335616  32.442  14.435  13.612  0.0675 -0.2305  0.1333
 3036DOPC   PO435617  32.298  14.241  13.946 -0.0607  0.0175 -0.0879
 3036DOPC   GL135618  32.212  14.057  13.539 -0.0819 -0.0883 -0.3245
 3036DOPC   GL235619  32.483  13.948  13.535 -0.2082  0.1618 -0.0802
 3036DOPC   C1A35620  31.917  14.149  13.177  0.2889  0.2006 -0.0759
 3036DOPC   D2A35621  31.498  14.177  12.990  0.2793 -0.0931 -0.1568
 3036DOPC   C3A35622  31.346  14.403  12.619 -0.0052  0.0923 -0.0622
 3036DOPC   C4A35623  31.262  14.784  12.345  0.0428  0.1207  0.0977
 3036DOPC   C1B35624  32.471  14.251  13.151 -0.2421 -0.0409 -0.0840
 3036DOPC   D2B35625  32.511  14.531  12.790 -0.0553  0.0338  0.1852
 3036DOPC   C3B35626  32.912  14.725  12.710 -0.5220  0.1176 -0.3885
 3036DOPC   C4B35627  33.190  15.087  12.636  0.1856  0.1533  0.0165
 3037POSM   NC335628  23.797  13.740  13.837  0.0820  0.0185  0.0958
 3037POSM   PO435629  23.856  13.375  13.712  0.1587  0.3478  0.2839
 3037POSM   AM135630  23.799  13.394  13.400 -0.2452  0.1300  0.2080
 3037POSM   AM235631  23.678  13.473  13.168  0.3220 -0.0555  0.3022
 3037POSM   T1A35632  24.044  13.200  13.025 -0.1004 -0.0856 -0.1636
 3037POSM   C2A35633  24.320  13.145  12.687  0.1121  0.0173  0.1278
 3037POSM   C3A35634  24.247  13.066  12.258  0.2770  0.1146  0.3018
 3037POSM   C1B35635  23.502  13.618  12.884  0.0484 -0.0627  0.3196
 3037POSM   D2B35636  23.179  13.649  12.541 -0.1190 -0.0392  0.0633
 3037POSM   C3B35637  22.869  13.933  12.477 -0.0742 -0.1162  0.1327
 3037POSM   C4B35638  22.689  14.362  12.404  0.1428  0.1801  0.1942
 3038DOPE   NH335639   0.196  10.628  14.306 -0.1071  0.1355 -0.1957
 3038DOPE   PO435640   0.470  10.688  14.172 -0.1411  0.1409 -0.0259
 3038DOPE   GL135641   0.644  10.717  13.793  0.0875  0.0906  0.1209
 3038DOPE   GL235642   0.449  10.740  13.585  0.5781 -0.2639  0.3257
 3038DOPE   C1A35643   0.848  10.959  13.414 -0.2405 -0.0129 -0.0253
 3038DOPE   D2A35644   0.901  11.127  13.010  0.1048 -0.1285  0.1158
 3038DOPE   C3A35645   1.020  11.012  12.601 -0.1655  0.1966 -0.1055
 3038DOPE   C4A35646   1.384  11.241  12.364 -0.0393 -0.0857  0.1375
 3038DOPE   C1B35647   0.149  11.105  13.459 -0.0702 -0.0612  0.1674
 3038DOPE   D2B35648  -0.193  11.208  13.135 -0.0644  0.1017 -0.0842
 3038DOPE   C3B35649  -0.596  11.388  13.336  0.0399 -0.3276  0.0651
 3038DOPE   C4B35650  -0.938  11.209  13.616  0.2465 -0.3119  0.3956
 3039DOPE   NH335651  34.125  12.494  14.089  0.1388  0.1349 -0.2201
 3039DOPE   PO435652  33.873  12.369  13.944  0.0182  0.0693  0.2234
 3039DOPE   GL135653  33.704  12.486  13.541 -0.0931 -0.0606 -0.1195
 3039DOPE   GL235654  33.720  12.825  13.608  0.0467 -0.0482  0.1846
 3039DOPE   C1A35655  33.892  12.615  13.118 -0.1927  0.1546 -0.0399
 3039DOPE   D2A35656  34.115  12.569  12.732 -0.0238  0.3677 -0.0655
 3039DOPE   C3A35657  33.820  12.732  12.483 -0.2645  0.4560  0.1069
 3039DOPE   C4A35658  33.673  12.914  12.004 -0.1036  0.3553  0.0515
 3039DOPE   C1B35659  33.803  13.069  13.246  0.3133  0.2172 -0.0170
 3039DOPE   D2B35660  33.518  13.351  12.973  0.0144 -0.0250  0.1251
 3039DOPE   C3B35661  33.522  13.544  12.508 -0.2709 -0.1800 -0.0930
 3039DOPE   C4B35662  33.308  13.451  12.076  0.1741  0.1077  0.0963
 3040POSM   NC335663  29.609  13.194  14.734  0.1754  0.0903 -0.1702
 3040POSM   PO435664  29.299  13.365  14.630  0.3585  0.0154  0.0928
 3040POSM   AM135665  29.369  13.242  14.329  0.0393  0.0687  0.0728
 3040POSM   AM235666  29.449  13.044  14.199 -0.1044 -0.1908 -0.0348
 3040POSM   T1A35667  29.591  13.416  13.895 -0.0912  0.0138 -0.0535
 3040POSM   C2A35668  29.924  13.588  13.730 -0.1252  0.0961  0.1631
 3040POSM   C3A35669  29.999  13.880  13.401  0.2137 -0.0304 -0.1429
 3040POSM   C1B35670  29.369  12.900  13.878 -0.3474 -0.0422 -0.1549
 3040POSM   D2B35671  29.357  12.522  13.561  0.1761  0.0775 -0.0154
 3040POSM   C3B35672  29.403  12.050  13.703 -0.1096 -0.2057 -0.0259
 3040POSM   C4B35673  29.108  11.699  13.652 -0.3275  0.0981 -0.1083
 3041DOPS   CNO35674  32.277  12.820  14.438 -0.1495  0.0883 -0.0879
 3041DOPS   PO435675  32.305  12.520  14.217 -0.2379 -0.2223  0.0033
 3041DOPS   GL135676  32.339  12.827  13.981  0.0081  0.1648 -0.1117
 3041DOPS   GL235677  32.611  12.729  13.835  0.0177 -0.0724 -0.3173
 3041DOPS   C1A35678  32.308  12.961  13.499 -0.0754 -0.0094 -0.2441
 3041DOPS   D2A35679  31.963  13.264  13.348 -0.0068 -0.0159  0.1438
 3041DOPS   C3A35680  32.070  13.241  12.857  0.1990 -0.1645  0.0732
 3041DOPS   C4A35681  32.409  13.038  12.592 -0.1462 -0.2133  0.0058
 3041DOPS   C1B35682  32.809  12.922  13.483  0.0387  0.0992 -0.1572
 3041DOPS   D2B35683  32.702  12.941  13.040  0.2409  0.2369  0.2257
 3041DOPS   C3B35684  33.108  12.892  12.864 -0.1497  0.1672 -0.3378
 3041DOPS   C4B35685  33.570  12.886  12.848  0.1434  0.0875 -0.2374
 3042DOPC   NC335686  29.205  21.694  14.194  0.1169 -0.3167  0.0176
 3042DOPC   PO435687  29.173  22.074  14.035  0.0444 -0.0577  0.0098
 3042DOPC   GL135688  29.113  22.153  13.612 -0.0627 -0.2607  0.4191
 3042DOPC   GL235689  28.880  22.214  13.521  0.1461  0.1266 -0.0899
 3042DOPC   C1A35690  29.192  22.187  13.121  0.0181  0.2584 -0.3608
 3042DOPC   D2A35691  29.166  22.132  12.640 -0.3793  0.0607  0.1029
 3042DOPC   C3A35692  29.033  21.982  12.176 -0.1755 -0.3182 -0.1711
 3042DOPC   C4A35693  29.300  22.006  11.798  0.1596  0.1264 -0.0126
 3042DOPC   C1B35694  28.513  22.372  13.232  0.0885 -0.1136  0.1453
 3042DOPC   D2B35695  28.291  22.195  12.865  0.0988  0.3301  0.1634
 3042DOPC   C3B35696  28.115  22.474  12.491  0.1319 -0.0268  0.3860
 3042DOPC   C4B35697  28.237  22.777  12.119  0.1130  0.1380 -0.0752
 3043POSM   NC335698  30.218  14.680  14.681 -0.0490  0.4250 -0.1890
 3043POSM   PO435699  30.214  14.933  14.394  0.0431 -0.1457 -0.0944
 3043POSM   AM135700  30.118  14.749  14.095 -0.2044  0.2528 -0.1539
 3043POSM   AM235701  30.159  14.802  13.818 -0.2160  0.0297  0.2282
 3043POSM   T1A35702  29.910  14.373  13.857 -0.2303  0.0943  0.0482
 3043POSM   C2A35703  29.608  14.065  13.707 -0.3012  0.0974  0.0651
 3043POSM   C3A35704  29.405  13.729  13.501 -0.2819  0.1075 -0.4075
 3043POSM   C1B35705  30.147  14.716  13.482  0.2685 -0.0428 -0.2204
 3043POSM   D2B35706  30.033  14.482  13.108 -0.1019  0.0412 -0.1630
 3043POSM   C3B35707  30.324  14.444  12.738 -0.1603 -0.2519 -0.0323
 3043POSM   C4B35708  30.286  14.411  12.309  0.2740 -0.0131 -0.0918
 3044DOPE   NH335709  33.488   9.965  14.435  0.1990 -0.2698  0.0410
 3044DOPE   PO435710  33.681   9.808  14.226  0.0568 -0.1660  0.0989
 3044DOPE   GL135711  33.857   9.868  13.844  0.1164  0.1864  0.1647
 3044DOPE   GL235712  33.686  10.005  13.610 -0.3471  0.2816 -0.0966
 3044DOPE   C1A35713  34.056   9.690  13.483  0.1122 -0.2362 -0.1568
 3044DOPE   D2A35714  34.049   9.678  12.975  0.0717 -0.1522  0.2209
 3044DOPE   C3A35715  33.932   9.401  12.612  0.2359 -0.3391 -0.0265
 3044DOPE   C4A35716  33.601   9.201  12.379  0.2443  0.4859 -0.0971
 3044DOPE   C1B35717  33.353  10.005  13.245 -0.1511  0.0119  0.0843
 3044DOPE   D2B35718  33.086   9.978  12.892  0.1054 -0.1452 -0.0309
 3044DOPE   C3B35719  33.338  10.319  12.771 -0.0228 -0.1862  0.2600
 3044DOPE   C4B35720  33.422  10.599  12.405 -0.0493 -0.1677  0.2831
 3045DOPS   CNO35721  34.188   9.722  14.208 -0.2287 -0.0566  0.1677
 3045DOPS   PO435722  34.345  10.036  14.060  0.0367 -0.2139 -0.2051
 3045DOPS   GL135723  34.283  10.100  13.688 -0.0262  0.4056  0.1324
 3045DOPS   GL235724  34.528  10.078  13.610 -0.1854  0.1753 -0.2488
 3045DOPS   C1A35725  34.214  10.346  13.303 -0.0791 -0.0735 -0.0701
 3045DOPS   D2A35726  34.276  10.770  13.102 -0.1422 -0.0281  0.1854
 3045DOPS   C3A35727  34.054  11.114  12.794  0.3703  0.1305  0.0781
 3045DOPS   C4A35728  34.359  11.378  12.558  0.2174  0.2005  0.0263
 3045DOPS   C1B35729  34.409   9.942  13.156 -0.0441 -0.0476  0.0486
 3045DOPS   D2B35730  34.492   9.861  12.755  0.0072 -0.0851  0.0424
 3045DOPS   C3B35731  34.742   9.495  12.489 -0.0610  0.1272  0.0774
 3045DOPS   C4B35732  35.127   9.383  12.323 -0.0545  0.1206 -0.1072
 3046DOPS   CNO35733  29.710  23.075  14.154 -0.3037  0.0110  0.2453
 3046DOPS   PO435734  29.817  22.712  14.001 -0.1043 -0.0226  0.1204
 3046DOPS   GL135735  29.768  22.739  13.567 -0.0368 -0.0089 -0.0863
 3046DOPS   GL235736  30.101  22.731  13.485 -0.1256  0.0446  0.1769
 3046DOPS   C1A35737  29.750  22.944  13.180  0.1512 -0.0717  0.2101
 3046DOPS   D2A35738  29.742  22.879  12.715  0.1295  0.3531  0.3073
 3046DOPS   C3A35739  29.691  22.753  12.275 -0.1438  0.0825 -0.1737
 3046DOPS   C4A35740  29.836  22.789  11.794  0.5317 -0.2234  0.3324
 3046DOPS   C1B35741  29.997  22.504  13.115 -0.0335 -0.0332  0.1119
 3046DOPS   D2B35742  30.279  22.305  12.842  0.0817  0.1991  0.0548
 3046DOPS   C3B35743  30.682  22.442  12.712  0.2711  0.2022  0.0956
 3046DOPS   C4B35744  30.697  22.906  12.600  0.4489 -0.0122  0.1931
 3047DOPE   NH335745   2.415   7.892  13.905 -0.3419  0.5031  0.0556
 3047DOPE   PO435746   2.573   8.155  13.845 -0.0113  0.3180 -0.1510
 3047DOPE   GL135747   2.467   8.172  13.494  0.0532  0.0598  0.2387
 3047DOPE   GL235748   2.393   8.486  13.485 -0.1834  0.2603  0.2114
 3047DOPE   C1A35749   2.300   8.091  13.047 -0.1703  0.1736 -0.0042
 3047DOPE   D2A35750   1.980   8.081  12.752  0.0530  0.1681 -0.1723
 3047DOPE   C3A35751   2.165   8.159  12.315  0.0152 -0.0390  0.3203
 3047DOPE   C4A35752   2.115   8.041  11.824 -0.0029 -0.3794  0.1704
 3047DOPE   C1B35753   2.672   8.471  13.077  0.2609 -0.2165 -0.0142
 3047DOPE   D2B35754   2.914   8.511  12.715  0.1153 -0.0352  0.0480
 3047DOPE   C3B35755   2.688   8.307  12.354 -0.0774  0.2276 -0.1611
 3047DOPE   C4B35756   2.549   7.903  12.098  0.2551  0.0259  0.1597
 3048DOPC   NC335757  33.671   7.570  13.636  0.1300  0.1136  0.0596
 3048DOPC   PO435758  33.468   7.809  13.876  0.0537 -0.2130  0.0790
 3048DOPC   GL135759  33.561   8.036  13.554 -0.1479  0.2366 -0.1190
 3048DOPC   GL235760  33.865   8.104  13.498 -0.1069 -0.3566 -0.0457
 3048DOPC   C1A35761  33.596   7.920  13.099  0.0138 -0.3423 -0.0737
 3048DOPC   D2A35762  33.777   7.916  12.674  0.0033 -0.0082 -0.0193
 3048DOPC   C3A35763  33.397   7.835  12.437  0.2443  0.2325 -0.1577
 3048DOPC   C4A35764  33.001   7.619  12.304  0.0647 -0.0484 -0.0857
 3048DOPC   C1B35765  34.254   8.083  13.227  0.0239 -0.2105  0.1824
 3048DOPC   D2B35766  34.481   8.353  12.986  0.1454 -0.0441  0.0490
 3048DOPC   C3B35767  34.361   8.595  12.636  0.1522 -0.0571  0.2224
 3048DOPC   C4B35768  33.977   8.821  12.429 -0.1240  0.1119 -0.2177
 3049DOPS   CNO35769  33.115  15.488  14.108  0.1206 -0.2301 -0.0483
 3049DOPS   PO435770  33.144  15.475  13.741  0.2848  0.1327  0.1417
 3049DOPS   GL135771  32.913  15.369  13.475  0.1163  0.0645 -0.0392
 3049DOPS   GL235772  33.053  15.102  13.422 -0.0596  0.0793 -0.2212
 3049DOPS   C1A35773  32.842  15.381  13.026 -0.1528 -0.3087 -0.2819
 3049DOPS   D2A35774  33.147  15.588  12.735 -0.2368  0.0897 -0.0272
 3049DOPS   C3A35775  33.055  15.454  12.271  0.0005  0.1222  0.1619
 3049DOPS   C4A35776  32.897  15.469  11.858  0.0430  0.0203 -0.1988
 3049DOPS   C1B35777  33.338  14.971  13.105  0.0807  0.0892 -0.2042
 3049DOPS   D2B35778  33.641  15.167  12.790  0.0380 -0.0200 -0.0031
 3049DOPS   C3B35779  34.115  15.277  12.805 -0.1045 -0.2178 -0.2816
 3049DOPS   C4B35780  34.590  15.239  12.853 -0.1566 -0.0251  0.0489
 3050DOPE   NH335781  27.786  21.371  14.029  0.0174  0.0440 -0.0093
 3050DOPE   PO435782  27.874  21.102  13.962 -0.1791  0.3046 -0.1167
 3050DOPE   GL135783  27.922  21.151  13.565 -0.2176 -0.0773 -0.1159
 3050DOPE   GL235784  28.133  20.987  13.506  0.0040  0.1722  0.2020
 3050DOPE   C1A35785  27.653  21.061  13.181  0.1347  0.1973 -0.0740
 3050DOPE   D2A35786  27.691  21.093  12.676  0.1247  0.1474 -0.2680
 3050DOPE   C3A35787  27.799  21.090  12.203  0.0642 -0.0890  0.1702
 3050DOPE   C4A35788  28.134  21.002  11.966 -0.1062  0.0273  0.0781
 3050DOPE   C1B35789  27.892  20.630  13.471 -0.1719 -0.0849  0.0863
 3050DOPE   D2B35790  27.782  20.515  13.074 -0.1661  0.1454 -0.0672
 3050DOPE   C3B35791  27.922  20.117  12.829 -0.3250 -0.4097  0.1536
 3050DOPE   C4B35792  27.668  19.740  12.679 -0.1853  0.1211 -0.0059
 3051DOPE   NH335793  31.126  21.010  13.857  0.0179 -0.0105 -0.2037
 3051DOPE   PO435794  31.129  20.815  13.634 -0.2238 -0.0997  0.0970
 3051DOPE   GL135795  31.199  20.860  13.160 -0.0280 -0.2345 -0.2379
 3051DOPE   GL235796  31.274  20.662  13.117  0.2847  0.1062 -0.0504
 3051DOPE   C1A35797  30.985  20.962  12.758  0.1321 -0.0380 -0.0474
 3051DOPE   D2A35798  30.607  20.973  12.535  0.0375 -0.2796  0.0078
 3051DOPE   C3A35799  30.676  21.191  12.178  0.2186  0.2005 -0.2272
 3051DOPE   C4A35800  30.671  21.384  11.796 -0.1096  0.1786 -0.0675
 3051DOPE   C1B35801  31.359  20.534  12.667  0.0465 -0.0491  0.1712
 3051DOPE   D2B35802  31.740  20.399  12.502 -0.1955  0.1334  0.3269
 3051DOPE   C3B35803  31.872  20.546  12.054  0.0005 -0.2737  0.1019
 3051DOPE   C4B35804  31.582  20.542  11.677  0.0111  0.1386 -0.0897
 3052DOPE   NH335805  29.935  16.074  13.841  0.1282 -0.0825 -0.0931
 3052DOPE   PO435806  30.190  16.175  13.634 -0.0552 -0.1569  0.0315
 3052DOPE   GL135807  30.100  16.208  13.220  0.2170  0.4689 -0.0419
 3052DOPE   GL235808  30.393  16.317  13.202 -0.1220 -0.1732 -0.1289
 3052DOPE   C1A35809  29.940  16.213  12.810 -0.0390 -0.0537  0.0105
 3052DOPE   D2A35810  30.091  16.124  12.432 -0.1484 -0.0226  0.1913
 3052DOPE   C3A35811  30.075  15.794  12.103  0.0969 -0.1861  0.0369
 3052DOPE   C4A35812  30.149  15.800  11.658  0.1131 -0.0620 -0.0810
 3052DOPE   C1B35813  30.452  16.081  12.876 -0.2389  0.1489 -0.1148
 3052DOPE   D2B35814  30.599  15.700  12.635  0.1778  0.2029 -0.1808
 3052DOPE   C3B35815  30.516  15.475  12.243  0.0700 -0.0609  0.0609
 3052DOPE   C4B35816  30.796  15.121  12.063 -0.0300 -0.1473 -0.1253
 3053DOPC   NC335817  33.281  22.883  13.561 -0.0014 -0.0577  0.2688
 3053DOPC   PO435818  33.112  22.555  13.669 -0.1823 -0.0385 -0.1511
 3053DOPC   GL135819  33.178  22.437  13.192  0.0059 -0.1538 -0.2313
 3053DOPC   GL235820  33.318  22.196  13.086  0.1487  0.3443 -0.0431
 3053DOPC   C1A35821  33.060  22.741  12.838 -0.0840 -0.0716 -0.1407
 3053DOPC   D2A35822  32.802  22.987  12.488  0.2042 -0.2073 -0.1878
 3053DOPC   C3A35823  32.956  22.967  12.013  0.1587  0.1421 -0.0857
 3053DOPC   C4A35824  33.242  23.125  11.706 -0.0856 -0.0733  0.3696
 3053DOPC   C1B35825  33.178  22.293  12.695  0.1824 -0.1132 -0.2635
 3053DOPC   D2B35826  33.181  22.557  12.338 -0.0165 -0.2040  0.1542
 3053DOPC   C3B35827  33.505  22.895  12.274 -0.0146  0.2298 -0.2462
 3053DOPC   C4B35828  33.717  23.232  12.562  0.1167  0.1333 -0.0985
 3054POSM   NC335829  26.131  16.725  14.529 -0.0948  0.1804 -0.1263
 3054POSM   PO435830  25.828  16.767  14.268  0.2631 -0.0186 -0.2711
 3054POSM   AM135831  25.932  16.845  13.966  0.2314 -0.0762 -0.0221
 3054POSM   AM235832  26.007  17.019  13.819 -0.0338 -0.0998  0.1532
 3054POSM   T1A35833  25.827  16.798  13.453  0.2263  0.3504 -0.0300
 3054POSM   C2A35834  26.018  16.631  13.084 -0.2001 -0.0778 -0.1056
 3054POSM   C3A35835  26.299  16.837  12.707  0.1383  0.0795 -0.0151
 3054POSM   C1B35836  26.006  17.238  13.557  0.1766  0.1426 -0.0199
 3054POSM   D2B35837  26.101  17.179  13.118  0.1669 -0.0087  0.2027
 3054POSM   C3B35838  25.754  17.046  12.790 -0.0497  0.4862 -0.0088
 3054POSM   C4B35839  25.403  16.877  12.563  0.0853 -0.3565  0.0570
 3055POSM   NC335840  23.520  18.791  13.492 -0.2951 -0.1806 -0.0848
 3055POSM   PO435841  23.427  18.390  13.520  0.3296  0.1695 -0.1857
 3055POSM   AM135842  23.463  18.413  13.214 -0.1850 -0.1076  0.0434
 3055POSM   AM235843  23.379  18.229  13.015 -0.0065 -0.0415 -0.0771
 3055POSM   T1A35844  23.567  18.731  12.835 -0.1293  0.1063 -0.0644
 3055POSM   C2A35845  23.492  18.899  12.427 -0.0479  0.2592  0.5220
 3055POSM   C3A35846  23.148  19.135  12.144  0.2550  0.0198 -0.0217
 3055POSM   C1B35847  23.470  18.156  12.715 -0.2398 -0.0268 -0.2457
 3055POSM   D2B35848  23.671  18.002  12.291  0.3682  0.2130  0.2067
 3055POSM   C3B35849  23.684  17.522  12.266 -0.0832  0.1038  0.1074
 3055POSM   C4B35850  23.529  17.164  12.054  0.1470 -0.0904  0.0145
 3056DOPC   NC335851  31.086  15.987  14.309  0.2107 -0.0081 -0.1787
 3056DOPC   PO435852  30.955  15.794  13.971 -0.2395 -0.0339 -0.2512
 3056DOPC   GL135853  30.851  15.597  13.612  0.1299  0.1261 -0.1207
 3056DOPC   GL235854  30.926  15.490  13.385 -0.0364 -0.1124  0.0271
 3056DOPC   C1A35855  30.514  15.734  13.281  0.2567 -0.4543  0.0746
 3056DOPC   D2A35856  30.117  15.729  12.965 -0.0642 -0.2870  0.0701
 3056DOPC   C3A35857  29.759  15.428  12.948 -0.0552 -0.0938  0.1254
 3056DOPC   C4A35858  29.427  15.271  13.265  0.1672 -0.2883 -0.3533
 3056DOPC   C1B35859  30.961  15.744  13.029  0.0244  0.1842 -0.0820
 3056DOPC   D2B35860  31.124  16.001  12.691  0.1589 -0.2435 -0.0797
 3056DOPC   C3B35861  30.864  16.062  12.320  0.2281  0.1279  0.0033
 3056DOPC   C4B35862  30.477  16.062  12.082 -0.0303  0.0950  0.0403
 3057DOPC   NC335863  30.735  16.076  13.577  0.1300  0.0325  0.1321
 3057DOPC   PO435864  30.647  16.446  13.594  0.0967 -0.1115  0.0951
 3057DOPC   GL135865  30.829  16.544  13.266  0.2759 -0.0033  0.2237
 3057DOPC   GL235866  31.029  16.316  13.258  0.1449  0.0050  0.0845
 3057DOPC   C1A35867  30.698  16.768  12.905  0.2615 -0.3473 -0.1317
 3057DOPC   D2A35868  30.951  16.710  12.557  0.1731 -0.3236 -0.2696
 3057DOPC   C3A35869  30.877  16.956  12.186 -0.0800  0.1916 -0.3374
 3057DOPC   C4A35870  30.588  17.177  11.822  0.0944 -0.0448  0.1702
 3057DOPC   C1B35871  31.245  16.489  12.858 -0.0531  0.2693 -0.0459
 3057DOPC   D2B35872  31.272  16.382  12.410 -0.0452 -0.2343 -0.0768
 3057DOPC   C3B35873  31.164  16.559  12.017  0.1412  0.3579  0.0684
 3057DOPC   C4B35874  30.909  16.720  11.621 -0.1612  0.5027 -0.1037
 3058DOPS   CNO35875  26.864  19.229  14.468  0.1061  0.2274 -0.2520
 3058DOPS   PO435876  27.036  19.222  14.124  0.1630  0.1804  0.2007
 3058DOPS   GL135877  26.829  19.369  13.907 -0.3911  0.0880  0.0809
 3058DOPS   GL235878  26.912  19.578  13.712  0.1059  0.2081  0.2625
 3058DOPS   C1A35879  26.495  19.227  13.655  0.0808  0.3761  0.2551
 3058DOPS   D2A35880  26.431  18.857  13.351  0.2518  0.0734  0.2441
 3058DOPS   C3A35881  26.665  18.687  12.991  0.1373  0.1747  0.1852
 3058DOPS   C4A35882  26.973  18.559  12.623  0.3560  0.0952  0.1684
 3058DOPS   C1B35883  26.703  19.572  13.318 -0.0704  0.0249  0.0697
 3058DOPS   D2B35884  26.802  19.592  12.877  0.2346 -0.0785  0.1470
 3058DOPS   C3B35885  26.759  19.484  12.383  0.3504 -0.0968  0.1990
 3058DOPS   C4B35886  26.754  19.218  12.017  0.1300 -0.1043  0.0877
 3059DOPE   NH335887   0.192  10.328  13.885 -0.3047  0.1315  0.1396
 3059DOPE   PO435888   0.501  10.237  13.933 -0.0295 -0.1804  0.1201
 3059DOPE   GL135889   0.545  10.187  13.510 -0.0611  0.1130 -0.1249
 3059DOPE   GL235890   0.894  10.224  13.567  0.1044 -0.3177 -0.1405
 3059DOPE   C1A35891   0.741  10.533  13.194 -0.4154 -0.0585  0.0477
 3059DOPE   D2A35892   0.670  10.704  12.825 -0.1232  0.0148  0.0783
 3059DOPE   C3A35893   0.367  10.749  12.501  0.0615  0.1835 -0.0361
 3059DOPE   C4A35894   0.137  10.634  12.137  0.2463 -0.2238  0.0370
 3059DOPE   C1B35895   1.112  10.068  13.173  0.1511 -0.1460 -0.1511
 3059DOPE   D2B35896   1.428   9.792  13.036 -0.0668 -0.0931  0.1164
 3059DOPE   C3B35897   1.393   9.848  12.566 -0.1496 -0.1589 -0.2139
 3059DOPE   C4B35898   1.177  10.104  12.310  0.0610  0.0718  0.1686
 3060DOPS   CNO35899  31.314  17.787  13.406  0.1704  0.0798 -0.0680
 3060DOPS   PO435900  31.714  17.785  13.331  0.2590 -0.4052 -0.0741
 3060DOPS   GL135901  31.712  17.601  12.977 -0.0888  0.2734 -0.0614
 3060DOPS   GL235902  31.422  17.446  13.080  0.1753 -0.2708  0.1426
 3060DOPS   C1A35903  31.833  17.180  12.912  0.0170  0.1512  0.1838
 3060DOPS   D2A35904  31.745  16.879  12.568  0.1452 -0.1792 -0.2448
 3060DOPS   C3A35905  31.830  17.060  12.165  0.0859  0.3237 -0.1652
 3060DOPS   C4A35906  31.752  17.042  11.709 -0.1005  0.0221 -0.2799
 3060DOPS   C1B35907  31.605  17.461  12.576  0.2443 -0.0798 -0.0155
 3060DOPS   D2B35908  31.750  17.658  12.190  0.1306 -0.0039 -0.0355
 3060DOPS   C3B35909  31.502  17.929  11.856  0.0212 -0.0938 -0.0958
 3060DOPS   C4B35910  31.363  18.324  11.908 -0.1878  0.0657 -0.0624
 3061DOPE   NH335911  34.210  12.469  10.263  0.2788 -0.2971  0.1758
 3061DOPE   PO435912  34.364  12.499  10.517 -0.1083  0.1081 -0.4775
 3061DOPE   GL135913  34.464  12.752  10.739  0.0512 -0.2010 -0.0149
 3061DOPE   GL235914  34.268  12.900  10.911  0.0618 -0.0980 -0.2723
 3061DOPE   C1A35915  34.628  12.558  11.118  0.0462  0.1590 -0.0925
 3061DOPE   D2A35916  34.724  12.298  11.440  0.0516 -0.0816 -0.0335
 3061DOPE   C3A35917  34.805  12.415  11.913  0.2479 -0.1272  0.1497
 3061DOPE   C4A35918  34.753  12.364  12.413 -0.1879  0.0882 -0.3056
 3061DOPE   C1B35919  34.040  13.069  11.260  0.1989 -0.1044  0.0336
 3061DOPE   D2B35920  33.686  13.021  11.508  0.0921  0.1518 -0.0098
 3061DOPE   C3B35921  33.251  13.124  11.685 -0.1893  0.3458 -0.1763
 3061DOPE   C4B35922  32.928  13.154  12.057  0.0780  0.1242 -0.0584
 3062DOPS   CNO35923  27.556  12.878  10.835  0.3168 -0.0615  0.1621
 3062DOPS   PO435924  27.432  13.098  10.603 -0.0058  0.3303  0.2816
 3062DOPS   GL135925  27.325  13.336  10.819  0.1596  0.2172 -0.0331
 3062DOPS   GL235926  27.404  13.617  10.820 -0.0906  0.0749 -0.1823
 3062DOPS   C1A35927  27.526  13.326  11.231 -0.2927 -0.2488 -0.0479
 3062DOPS   D2A35928  27.423  13.767  11.354 -0.1341 -0.1039 -0.2583
 3062DOPS   C3A35929  27.703  13.980  11.628 -0.1499 -0.0122 -0.1878
 3062DOPS   C4A35930  27.726  14.369  11.853  0.2085  0.2357 -0.0153
 3062DOPS   C1B35931  27.026  13.517  11.107 -0.4055 -0.1619 -0.1846
 3062DOPS   D2B35932  26.969  13.444  11.586  0.0339 -0.1111 -0.3178
 3062DOPS   C3B35933  26.964  13.295  12.029 -0.0420  0.2121  0.0564
 3062DOPS   C4B35934  27.170  13.046  12.396  0.1151 -0.3908 -0.0182
 3063DOPE   NH335935   0.368  12.396  10.332  0.1119 -0.2800  0.2162
 3063DOPE   PO435936   0.150  12.230  10.289  0.0053  0.0727 -0.2174
 3063DOPE   GL135937   0.077  12.301  10.726 -0.4720  0.2629  0.2296
 3063DOPE   GL235938  -0.145  12.099  10.667 -0.1914 -0.0361 -0.1247
 3063DOPE   C1A35939   0.384  12.208  11.042  0.1331  0.0217  0.3529
 3063DOPE   D2A35940   0.704  12.261  11.360 -0.3558 -0.1579  0.0873
 3063DOPE   C3A35941   0.905  12.215  11.753  0.1889  0.1306 -0.3088
 3063DOPE   C4A35942   1.328  12.085  11.945 -0.0688  0.4513 -0.1016
 3063DOPE   C1B35943  -0.309  11.963  11.083  0.2842  0.3686  0.3018
 3063DOPE   D2B35944  -0.416  12.018  11.562 -0.0274  0.2054 -0.1068
 3063DOPE   C3B35945  -0.291  12.132  12.042  0.0385 -0.3476  0.1083
 3063DOPE   C4B35946  -0.489  12.160  12.439  0.0894  0.3053 -0.0487
 3064DOPE   NH335947  34.395  12.852   9.992  0.0677 -0.3329 -0.2096
 3064DOPE   PO435948  34.595  12.637  10.043  0.1504 -0.0182 -0.1979
 3064DOPE   GL135949  34.741  12.723  10.416  0.1411  0.2985  0.3083
 3064DOPE   GL235950  34.672  12.988  10.445  0.0050  0.1107 -0.1575
 3064DOPE   C1A35951  34.964  12.654  10.821  0.1300 -0.2569  0.0275
 3064DOPE   D2A35952  35.219  12.662  11.210 -0.0821 -0.0079  0.1177
 3064DOPE   C3A35953  35.359  12.963  11.473 -0.0372 -0.2410  0.2424
 3064DOPE   C4A35954  35.699  12.751  11.711 -0.1385 -0.0867 -0.1787
 3064DOPE   C1B35955  35.149  13.038  10.586 -0.2401 -0.0406 -0.0950
 3064DOPE   D2B35956  35.541  13.013  10.855  0.1563 -0.2811 -0.3395
 3064DOPE   C3B35957  35.704  13.243  11.220  0.0737  0.0647 -0.2992
 3064DOPE   C4B35958  35.991  13.548  11.454 -0.1695 -0.0390  0.1859
 3065DOPC   NC335959  34.280   9.393  10.190 -0.1179 -0.0859  0.2010
 3065DOPC   PO435960  34.058   9.707  10.180 -0.0685  0.2347 -0.1983
 3065DOPC   GL135961  34.029   9.713  10.553 -0.2936 -0.2263 -0.0198
 3065DOPC   GL235962  34.133   9.414  10.649 -0.4555  0.0511  0.0944
 3065DOPC   C1A35963  34.310   9.920  10.908 -0.0744  0.1529 -0.2003
 3065DOPC   D2A35964  34.362  10.017  11.364  0.1311 -0.1643 -0.1626
 3065DOPC   C3A35965  34.219  10.312  11.673 -0.1421  0.0110  0.0593
 3065DOPC   C4A35966  34.251  10.781  11.592 -0.0630  0.0168  0.0895
 3065DOPC   C1B35967  33.989   9.187  11.012  0.1719 -0.0753 -0.2468
 3065DOPC   D2B35968  34.014   8.973  11.407 -0.2040  0.0412  0.0078
 3065DOPC   C3B35969  33.687   9.314  11.511 -0.2538 -0.0269  0.1909
 3065DOPC   C4B35970  33.502   9.724  11.394  0.3336  0.0480  0.0329
 3066DOPC   NC335971  25.475  17.784  10.062 -0.0169 -0.0228 -0.1388
 3066DOPC   PO435972  25.770  18.077   9.973 -0.0761  0.1134 -0.1343
 3066DOPC   GL135973  25.553  18.126  10.320  0.1087 -0.0211 -0.0852
 3066DOPC   GL235974  25.404  18.358  10.510  0.0510  0.3800 -0.1053
 3066DOPC   C1A35975  25.707  17.978  10.769 -0.0497 -0.0536  0.0418
 3066DOPC   D2A35976  26.110  18.078  11.038  0.0453  0.0475  0.0190
 3066DOPC   C3A35977  26.235  18.213  11.478  0.0508  0.1342 -0.3666
 3066DOPC   C4A35978  26.013  18.011  11.847  0.1620 -0.0971  0.1044
 3066DOPC   C1B35979  24.953  18.358  10.712  0.1796 -0.1153 -0.4601
 3066DOPC   D2B35980  24.534  18.415  10.718  0.0528 -0.0563 -0.0683
 3066DOPC   C3B35981  24.436  18.389  11.199 -0.3927  0.1503 -0.1286
 3066DOPC   C4B35982  24.594  18.416  11.649 -0.0175  0.3412  0.0628
 3067DOPE   NH335983  22.419  20.015   9.973 -0.1709 -0.2964  0.1881
 3067DOPE   PO435984  22.234  20.027  10.166 -0.0672  0.2388  0.1910
 3067DOPE   GL135985  22.085  20.064  10.630  0.1545  0.0739  0.0059
 3067DOPE   GL235986  21.800  20.259  10.624  0.0483  0.0092  0.0913
 3067DOPE   C1A35987  21.806  19.725  10.800 -0.0979 -0.2201  0.1634
 3067DOPE   D2A35988  21.620  19.891  11.197  0.0858 -0.0199  0.2110
 3067DOPE   C3A35989  21.698  19.880  11.664  0.2355  0.1100 -0.1000
 3067DOPE   C4A35990  21.819  19.843  12.075 -0.1615 -0.1454  0.0174
 3067DOPE   C1B35991  21.992  20.184  11.043 -0.2079 -0.2383 -0.1190
 3067DOPE   D2B35992  22.079  19.824  11.254  0.1589 -0.2086  0.0171
 3067DOPE   C3B35993  22.254  19.800  11.671 -0.1103 -0.2046  0.0420
 3067DOPE   C4B35994  22.366  19.656  12.115 -0.0907  0.2374 -0.0196
 3068DOPE   NH335995  34.329  19.998   9.805  0.1636  0.1987 -0.0681
 3068DOPE   PO435996  34.451  20.288   9.791 -0.4757  0.2023 -0.2184
 3068DOPE   GL135997  34.244  20.308  10.177  0.3428  0.3085 -0.0587
 3068DOPE   GL235998  34.308  20.560  10.295 -0.3645 -0.2264  0.0035
 3068DOPE   C1A35999  33.897  20.311  10.507  0.0439 -0.1757 -0.3039
 3068DOPE   D2A36000  33.757  20.478  10.912 -0.2227 -0.2374 -0.0631
 3068DOPE   C3A36001  33.808  20.366  11.326 -0.1585 -0.2311 -0.1797
 3068DOPE   C4A36002  33.820  20.448  11.733 -0.3164  0.1239 -0.0665
 3068DOPE   C1B36003  34.331  20.542  10.772  0.1662 -0.3773 -0.2619
 3068DOPE   D2B36004  34.269  20.483  11.220  0.2328  0.0526  0.0160
 3068DOPE   C3B36005  34.193  20.747  11.565 -0.0538  0.1847 -0.0814
 3068DOPE   C4B36006  34.172  21.145  11.805  0.1331 -0.0603 -0.1806
 3069DOPE   NH336007  30.729  13.617  10.622 -0.0764  0.0272  0.0849
 3069DOPE   PO436008  30.663  13.928  10.576  0.4601  0.0455  0.0658
 3069DOPE   GL136009  30.410  14.029  10.945 -0.0710 -0.2002  0.1549
 3069DOPE   GL236010  30.648  14.254  11.013 -0.1891 -0.0400 -0.0498
 3069DOPE   C1A36011  30.214  14.354  11.245 -0.0124  0.1766  0.3717
 3069DOPE   D2A36012  30.224  14.367  11.718  0.0123 -0.2444  0.1313
 3069DOPE   C3A36013  30.625  14.564  11.867  0.0477 -0.0853  0.0927
 3069DOPE   C4A36014  31.069  14.719  11.893 -0.1116  0.0555  0.1123
 3069DOPE   C1B36015  30.729  14.636  11.350  0.1687  0.1333 -0.2874
 3069DOPE   D2B36016  30.760  15.030  11.608  0.0153 -0.1053 -0.0879
 3069DOPE   C3B36017  31.167  15.165  11.648 -0.1162 -0.4011 -0.0439
 3069DOPE   C4B36018  31.555  14.989  11.532 -0.0202  0.1836 -0.2488
 3070POSM   NC336019  24.480  19.315   9.809 -0.1413  0.0170 -0.1245
 3070POSM   PO436020  24.076  19.375   9.880  0.0831 -0.0511  0.1790
 3070POSM   AM136021  24.031  19.248  10.167  0.0543  0.2007 -0.3857
 3070POSM   AM236022  23.996  19.298  10.443  0.1496 -0.4163 -0.0173
 3070POSM   T1A36023  24.237  18.894  10.457  0.1319 -0.3950 -0.0734
 3070POSM   C2A36024  24.369  18.825  10.906 -0.1639 -0.0545 -0.2439
 3070POSM   C3A36025  24.211  18.894  11.355  0.1074  0.0636  0.2008
 3070POSM   C1B36026  24.076  19.351  10.740  0.1106  0.0839 -0.0645
 3070POSM   D2B36027  24.165  19.429  11.173 -0.0608 -0.2458 -0.1230
 3070POSM   C3B36028  24.469  19.489  11.570 -0.2129 -0.1757  0.0380
 3070POSM   C4B36029  24.779  19.406  11.924 -0.1313  0.2066 -0.0605
 3071DOPE   NH336030  28.776  17.571  10.015 -0.1964 -0.0682 -0.1190
 3071DOPE   PO436031  28.526  17.441  10.101  0.0327  0.1136  0.0984
 3071DOPE   GL136032  28.536  17.311  10.524  0.2025 -0.0396  0.3974
 3071DOPE   GL236033  28.843  17.257  10.514 -0.2015 -0.1553 -0.5939
 3071DOPE   C1A36034  28.541  17.587  10.937  0.1415 -0.1098 -0.1183
 3071DOPE   D2A36035  28.701  17.580  11.382 -0.2713  0.0414 -0.0165
 3071DOPE   C3A36036  28.396  17.696  11.752 -0.0648  0.0799 -0.1055
 3071DOPE   C4A36037  28.172  17.513  12.056  0.0499 -0.3760  0.0610
 3071DOPE   C1B36038  28.712  17.115  10.903  0.2288 -0.0098 -0.2426
 3071DOPE   D2B36039  28.773  17.041  11.369 -0.3335 -0.0894  0.3293
 3071DOPE   C3B36040  28.444  17.198  11.667 -0.1950 -0.0639 -0.0543
 3071DOPE   C4B36041  28.224  16.928  11.986 -0.1149 -0.4047 -0.1058
 3072POSM   NC336042  28.486  18.887  10.189  0.2765 -0.0879  0.1794
 3072POSM   PO436043  28.312  19.191  10.356 -0.0434  0.0003  0.1422
 3072POSM   AM136044  28.199  19.145  10.653 -0.1156  0.1469 -0.1186
 3072POSM   AM236045  28.365  19.170  10.853  0.0156 -0.1267 -0.0125
 3072POSM   T1A36046  27.794  18.893  10.833  0.0133  0.0467 -0.3492
 3072POSM   C2A36047  27.537  18.773  11.232  0.1466 -0.0400 -0.1867
 3072POSM   C3A36048  27.119  18.687  11.217 -0.1407 -0.3440  0.1028
 3072POSM   C1B36049  28.558  19.040  11.092  0.0488  0.0349  0.0822
 3072POSM   D2B36050  28.862  18.905  11.382 -0.2963  0.1767  0.2738
 3072POSM   C3B36051  28.708  18.626  11.749  0.1492 -0.0786 -0.2161
 3072POSM   C4B36052  28.591  18.263  12.044  0.1636  0.1193 -0.2370
 3073POSM   NC336053  25.964  12.213  10.296  0.2483 -0.0369 -0.2401
 3073POSM   PO436054  25.986  11.871  10.507  0.4290  0.1829 -0.1786
 3073POSM   AM136055  25.897  12.074  10.726  0.2488  0.0324 -0.0704
 3073POSM   AM236056  25.650  12.149  10.924 -0.0581 -0.0237 -0.2175
 3073POSM   T1A36057  25.971  12.323  11.204  0.2897  0.4739 -0.3866
 3073POSM   C2A36058  25.929  12.419  11.645 -0.2197 -0.4197  0.0974
 3073POSM   C3A36059  25.591  12.455  11.975  0.1812  0.0300  0.1699
 3073POSM   C1B36060  25.583  11.957  11.257  0.0682  0.0208  0.3230
 3073POSM   D2B36061  25.351  11.844  11.556  0.3239 -0.1522 -0.3049
 3073POSM   C3B36062  25.169  12.228  11.758  0.1688 -0.0484 -0.1381
 3073POSM   C4B36063  25.105  12.646  11.972 -0.1013 -0.0765  0.1610
 3074DOPC   NC336064  33.413  22.420  10.332  0.1025  0.0709  0.0036
 3074DOPC   PO436065  33.151  22.711  10.270 -0.0753  0.1107  0.1887
 3074DOPC   GL136066  32.870  22.792  10.493  0.0874  0.4457  0.1203
 3074DOPC   GL236067  32.947  22.602  10.722  0.2099  0.1399  0.0370
 3074DOPC   C1A36068  32.926  23.165  10.789  0.0668  0.1352 -0.2613
 3074DOPC   D2A36069  32.883  23.352  11.232  0.1282  0.2307 -0.0493
 3074DOPC   C3A36070  32.600  23.551  11.508 -0.0256  0.2851 -0.2742
 3074DOPC   C4A36071  32.297  23.861  11.565  0.0769 -0.2123  0.0864
 3074DOPC   C1B36072  32.905  22.179  10.783 -0.0149 -0.0815 -0.3683
 3074DOPC   D2B36073  32.599  21.915  10.940 -0.3589  0.0801  0.3917
 3074DOPC   C3B36074  32.543  21.929  11.370  0.1756 -0.0474  0.0804
 3074DOPC   C4B36075  32.395  21.808  11.795 -0.1612 -0.2748  0.0829
 3075DOPC   NC336076  31.658  21.092   9.916  0.1419 -0.0334 -0.2247
 3075DOPC   PO436077  31.323  20.880   9.845  0.2392 -0.0812  0.2026
 3075DOPC   GL136078  31.436  20.772  10.170  0.0630 -0.1699 -0.2442
 3075DOPC   GL236079  31.133  20.732  10.278  0.0411 -0.1130  0.3373
 3075DOPC   C1A36080  31.365  20.988  10.593 -0.2831  0.0963 -0.2607
 3075DOPC   D2A36081  31.154  21.004  11.035  0.0402 -0.0216  0.1198
 3075DOPC   C3A36082  31.397  21.110  11.451  0.0775 -0.1472  0.1806
 3075DOPC   C4A36083  31.525  21.011  11.864  0.1617  0.1644 -0.0520
 3075DOPC   C1B36084  30.851  20.912  10.610 -0.0184  0.0819 -0.1024
 3075DOPC   D2B36085  30.668  20.668  10.939  0.1395 -0.2404  0.0995
 3075DOPC   C3B36086  30.675  21.025  11.278 -0.0869 -0.0308  0.1677
 3075DOPC   C4B36087  30.342  21.352  11.403  0.4135  0.0567  0.1494
 3076DOPC   NC336088  26.229  17.875  10.642  0.1141  0.0578 -0.1213
 3076DOPC   PO436089  26.457  18.169  10.498  0.2631  0.0912  0.3495
 3076DOPC   GL136090  26.311  18.389  10.758 -0.0841  0.0198  0.2132
 3076DOPC   GL236091  26.023  18.405  10.709 -0.3767  0.0228  0.3543
 3076DOPC   C1A36092  26.116  18.603  11.178 -0.1183  0.3336 -0.0427
 3076DOPC   D2A36093  26.013  18.630  11.656  0.0343 -0.1558  0.0259
 3076DOPC   C3A36094  26.021  18.497  12.072  0.0339  0.0684  0.1204
 3076DOPC   C4A36095  25.988  18.465  12.538  0.3174 -0.1168  0.1172
 3076DOPC   C1B36096  25.696  18.381  11.030  0.0500 -0.4152 -0.1530
 3076DOPC   D2B36097  25.730  18.295  11.445  0.3388 -0.0324 -0.0946
 3076DOPC   C3B36098  25.556  18.589  11.781  0.2077  0.2553  0.0163
 3076DOPC   C4B36099  25.737  18.979  11.885  0.0904 -0.3847 -0.2580
 3077DOPE   NH336100  33.932  12.021   9.981  0.1960 -0.0680 -0.1135
 3077DOPE   PO436101  33.688  11.858  10.124 -0.1725  0.0700 -0.0911
 3077DOPE   GL136102  33.475  11.952  10.415  0.1246  0.1004 -0.3475
 3077DOPE   GL236103  33.577  11.799  10.707  0.0160  0.1873  0.0088
 3077DOPE   C1A36104  33.388  12.291  10.702 -0.2133 -0.3475 -0.0138
 3077DOPE   D2A36105  33.175  12.543  10.976  0.1768  0.4307  0.0946
 3077DOPE   C3A36106  33.171  12.291  11.340 -0.0927 -0.0863 -0.1351
 3077DOPE   C4A36107  33.053  12.190  11.849 -0.0061 -0.0633 -0.0056
 3077DOPE   C1B36108  33.285  11.849  11.085  0.2677  0.0754 -0.1122
 3077DOPE   D2B36109  33.054  11.698  11.443  0.0418 -0.0224 -0.1479
 3077DOPE   C3B36110  33.117  11.422  11.785  0.0749 -0.1881  0.0763
 3077DOPE   C4B36111  33.495  11.225  12.022  0.0208 -0.1363  0.0805
 3078POSM   NC336112  30.660  11.248  10.893  0.1674 -0.1258 -0.2044
 3078POSM   PO436113  30.367  10.943  10.869 -0.2251 -0.0832 -0.3131
 3078POSM   AM136114  30.408  10.848  11.171  0.3691 -0.2704 -0.0837
 3078POSM   AM236115  30.640  10.782  11.264 -0.0219 -0.1540  0.2684
 3078POSM   T1A36116  30.465  10.908  11.702 -0.1195 -0.0934 -0.2249
 3078POSM   C2A36117  30.566  11.098  12.140 -0.0286  0.2255 -0.3553
 3078POSM   C3A36118  30.904  11.288  12.395  0.2422 -0.1759  0.0862
 3078POSM   C1B36119  30.859  10.967  11.406 -0.2239  0.1744  0.1317
 3078POSM   D2B36120  31.242  11.213  11.505  0.0247 -0.1958  0.0155
 3078POSM   C3B36121  31.203  11.595  11.774 -0.0021 -0.3225 -0.1539
 3078POSM   C4B36122  31.396  11.742  12.145  0.0010 -0.1063  0.0083
 3079DOPE   NH336123  22.125  18.851   9.999  0.2078  0.2297 -0.2012
 3079DOPE   PO436124  22.094  18.666  10.244  0.0581  0.0169  0.0609
 3079DOPE   GL136125  22.182  18.487  10.573 -0.1579  0.3957  0.0169
 3079DOPE   GL236126  22.126  18.701  10.756 -0.0801  0.1094  0.1824
 3079DOPE   C1A36127  22.539  18.308  10.866  0.1481 -0.0537  0.0637
 3079DOPE   D2A36128  22.993  18.335  11.029 -0.2954  0.0165 -0.2466
 3079DOPE   C3A36129  23.066  18.629  11.376 -0.0680 -0.0299  0.2693
 3079DOPE   C4A36130  23.136  18.614  11.812  0.0573  0.0377  0.2388
 3079DOPE   C1B36131  22.139  18.490  11.144  0.1156 -0.0058 -0.0469
 3079DOPE   D2B36132  22.384  18.509  11.518  0.1603  0.1669  0.0977
 3079DOPE   C3B36133  22.370  18.149  11.833  0.1614  0.1834 -0.3447
 3079DOPE   C4B36134  22.255  17.716  11.745  0.1889  0.0566 -0.0321
 3080DOPC   NC336135  33.939  10.247  10.730 -0.3755  0.0763  0.5640
 3080DOPC   PO436136  34.081  10.537  10.462  0.0970 -0.0914  0.0333
 3080DOPC   GL136137  34.164  10.638  10.874 -0.0070 -0.0306  0.2514
 3080DOPC   GL236138  34.349  10.854  10.943  0.1184 -0.0726  0.0527
 3080DOPC   C1A36139  34.470  10.437  11.144 -0.0275  0.3314  0.2526
 3080DOPC   D2A36140  34.835  10.396  11.338 -0.0057  0.3729 -0.1603
 3080DOPC   C3A36141  34.749  10.285  11.812  0.1658 -0.2726  0.0180
 3080DOPC   C4A36142  34.846  10.163  12.216  0.1736 -0.0089  0.2777
 3080DOPC   C1B36143  34.216  11.124  11.266  0.3092  0.2167 -0.1302
 3080DOPC   D2B36144  34.434  11.299  11.650 -0.1844  0.1612 -0.0822
 3080DOPC   C3B36145  34.223  11.277  12.058 -0.0636  0.0852 -0.2727
 3080DOPC   C4B36146  33.864  11.154  12.325  0.2137  0.0103  0.0250
 3081POSM   NC336147   1.227  10.973  10.136  0.3728  0.1824  0.0444
 3081POSM   PO436148   0.955  11.210  10.210  0.2740 -0.0423 -0.3631
 3081POSM   AM136149   1.085  11.216  10.528 -0.0993 -0.6240 -0.2018
 3081POSM   AM236150   1.349  11.132  10.654  0.0534  0.2315  0.0313
 3081POSM   T1A36151   0.995  11.356  10.941 -0.0900  0.0873 -0.0859
 3081POSM   C2A36152   0.939  11.322  11.349 -0.0087  0.3359  0.0456
 3081POSM   C3A36153   0.793  11.222  11.754  0.3092 -0.0917 -0.0530
 3081POSM   C1B36154   1.354  10.785  10.740 -0.0691 -0.1994  0.1921
 3081POSM   D2B36155   1.081  10.497  10.894 -0.0235 -0.4978 -0.0995
 3081POSM   C3B36156   1.100  10.271  11.299  0.2142 -0.2516  0.0692
 3081POSM   C4B36157   1.154  10.173  11.732  0.1531  0.1335 -0.2804
 3082DOPE   NH336158  29.753  15.491   9.999  0.2773  0.1338  0.4515
 3082DOPE   PO436159  29.630  15.675  10.244 -0.3461  0.0633 -0.3502
 3082DOPE   GL136160  29.613  15.991  10.614  0.2535 -0.0980 -0.0366
 3082DOPE   GL236161  29.549  15.891  10.871  0.0209  0.1282 -0.3017
 3082DOPE   C1A36162  29.800  16.377  10.820  0.1105  0.1638  0.1894
 3082DOPE   D2A36163  29.577  16.746  11.079 -0.0400 -0.2077  0.1260
 3082DOPE   C3A36164  29.202  16.698  11.369 -0.1106  0.1022 -0.0282
 3082DOPE   C4A36165  29.111  16.717  11.824  0.1243  0.2539  0.2228
 3082DOPE   C1B36166  29.849  15.782  11.204 -0.1528  0.0361 -0.0326
 3082DOPE   D2B36167  29.871  15.427  11.492  0.0294 -0.0620 -0.1238
 3082DOPE   C3B36168  29.646  15.557  11.924 -0.0679  0.1436  0.2356
 3082DOPE   C4B36169  29.595  15.684  12.364  0.0541  0.2529 -0.4100
 3083DOPE   NH336170  20.626  16.485   9.534 -0.0551 -0.0306  0.0634
 3083DOPE   PO436171  20.651  16.800   9.624 -0.1137 -0.2496 -0.2357
 3083DOPE   GL136172  20.563  16.727  10.000  0.3642  0.3894  0.0350
 3083DOPE   GL236173  20.707  16.507  10.094 -0.2620 -0.0130  0.0363
 3083DOPE   C1A36174  20.288  16.896  10.345  0.0971  0.0302 -0.3203
 3083DOPE   D2A36175  20.284  17.212  10.699  0.1272  0.1715 -0.1119
 3083DOPE   C3A36176  19.981  17.536  10.714 -0.2822 -0.1312 -0.1268
 3083DOPE   C4A36177  19.809  17.830  10.980 -0.0179  0.0010 -0.3131
 3083DOPE   C1B36178  20.347  16.356  10.331 -0.2188 -0.1912 -0.2674
 3083DOPE   D2B36179  19.966  16.189  10.492  0.2413  0.1426  0.0474
 3083DOPE   C3B36180  20.082  15.973  10.860 -0.1680 -0.1521  0.0839
 3083DOPE   C4B36181  20.214  15.757  11.267  0.2048  0.4310  0.0687
 3084DOPC   NC336182  26.945  17.364  10.268 -0.0463 -0.5025 -0.2274
 3084DOPC   PO436183  27.175  17.677  10.459 -0.2498 -0.3192  0.2313
 3084DOPC   GL136184  27.069  17.621  10.780  0.3167  0.1702  0.2573
 3084DOPC   GL236185  26.747  17.544  10.698 -0.0914  0.3258  0.1953
 3084DOPC   C1A36186  26.856  17.880  11.091  0.2099 -0.0067  0.0562
 3084DOPC   D2A36187  26.705  18.007  11.514  0.0344 -0.1807 -0.0850
 3084DOPC   C3A36188  26.927  18.046  11.889 -0.4048 -0.0752  0.2482
 3084DOPC   C4A36189  26.761  18.188  12.303 -0.1197 -0.1342 -0.0660
 3084DOPC   C1B36190  26.458  17.688  11.087  0.3308 -0.0915  0.2363
 3084DOPC   D2B36191  26.340  17.718  11.498  0.2878  0.1532 -0.1748
 3084DOPC   C3B36192  26.468  17.827  11.920 -0.1941  0.2348  0.1086
 3084DOPC   C4B36193  26.498  17.625  12.327  0.3457 -0.2270  0.1634
 3085DOPE   NH336194  25.039  20.011  10.200  0.1027 -0.0673  0.1375
 3085DOPE   PO436195  24.982  19.681  10.082  0.1871 -0.0884  0.2460
 3085DOPE   GL136196  24.745  19.687  10.442  0.3691  0.4708 -0.2124
 3085DOPE   GL236197  24.870  19.815  10.609 -0.0357  0.1699 -0.1835
 3085DOPE   C1A36198  24.619  19.365  10.794  0.1991 -0.0317  0.1627
 3085DOPE   D2A36199  24.634  19.152  11.170  0.1480 -0.2382 -0.3073
 3085DOPE   C3A36200  24.820  18.704  11.229 -0.1088 -0.1606  0.0393
 3085DOPE   C4A36201  24.904  18.272  11.218  0.1312 -0.0420  0.1072
 3085DOPE   C1B36202  25.183  19.677  10.973  0.2218 -0.0360  0.2381
 3085DOPE   D2B36203  25.096  19.618  11.393 -0.0340  0.1221 -0.2789
 3085DOPE   C3B36204  25.055  19.810  11.810 -0.0393 -0.1478 -0.2471
 3085DOPE   C4B36205  25.039  20.133  12.149 -0.1061  0.1046  0.1646
 3086POSM   NC336206  30.494  18.403   9.894  0.3491 -0.1013  0.0583
 3086POSM   PO436207  30.583  18.015   9.865  0.0603  0.0714 -0.1251
 3086POSM   AM136208  30.759  17.932  10.128 -0.1677 -0.2343 -0.1323
 3086POSM   AM236209  30.812  17.696  10.282 -0.0119 -0.0853  0.2939
 3086POSM   T1A36210  31.011  18.004  10.583  0.2119  0.2018  0.2354
 3086POSM   C2A36211  31.301  18.024  10.942 -0.1520  0.2266 -0.1535
 3086POSM   C3A36212  31.368  17.603  11.147  0.0335 -0.2901 -0.3311
 3086POSM   C1B36213  30.728  17.394  10.473 -0.0397  0.0826  0.2661
 3086POSM   D2B36214  30.907  17.154  10.794 -0.3307 -0.0188 -0.1116
 3086POSM   C3B36215  30.930  17.172  11.258  0.2915 -0.0543 -0.0699
 3086POSM   C4B36216  31.087  17.155  11.693  0.3717  0.0273  0.1038
 3087DOPC   NC336217  32.221  21.340   9.528 -0.0388 -0.2004  0.3558
 3087DOPC   PO436218  32.493  21.439   9.786  0.2697 -0.0009  0.0338
 3087DOPC   GL136219  32.465  21.676  10.128  0.0716  0.0360 -0.2190
 3087DOPC   GL236220  32.586  21.906  10.342 -0.0858 -0.0922  0.1053
 3087DOPC   C1A36221  32.202  21.637  10.512  0.0121 -0.0188 -0.1915
 3087DOPC   D2A36222  32.141  21.571  10.942 -0.0968  0.0211  0.0878
 3087DOPC   C3A36223  32.074  21.760  11.408 -0.0324  0.0103 -0.1815
 3087DOPC   C4A36224  31.895  21.734  11.870  0.0932  0.0121 -0.0530
 3087DOPC   C1B36225  32.667  21.568  10.590 -0.2847  0.1064 -0.1492
 3087DOPC   D2B36226  32.672  21.418  11.024 -0.2799  0.0548 -0.0466
 3087DOPC   C3B36227  32.398  21.379  11.436  0.2703  0.0178 -0.0564
 3087DOPC   C4B36228  32.334  21.309  11.904  0.0137 -0.0882 -0.0328
 3088POSM   NC336229  29.283  20.966   9.857 -0.2062  0.2178 -0.0769
 3088POSM   PO436230  28.955  21.065   9.981 -0.1380  0.1425  0.0167
 3088POSM   AM136231  29.004  21.172  10.307  0.3401  0.1761  0.0300
 3088POSM   AM236232  29.129  21.348  10.461 -0.1292  0.0223 -0.0450
 3088POSM   T1A36233  28.729  21.115  10.660  0.2766 -0.2408 -0.2716
 3088POSM   C2A36234  28.422  21.218  11.104 -0.0046 -0.0301 -0.0127
 3088POSM   C3A36235  28.262  21.409  11.511  0.0154  0.1110  0.0276
 3088POSM   C1B36236  28.926  21.542  10.567 -0.2723 -0.0630 -0.0788
 3088POSM   D2B36237  28.576  21.545  10.746  0.0250 -0.1308 -0.1276
 3088POSM   C3B36238  28.547  21.708  11.169  0.0508 -0.1965 -0.1330
 3088POSM   C4B36239  28.654  22.057  11.439  0.0659 -0.3620  0.0214
 3089DOPE   NH336240  32.663  11.396  10.506 -0.0340  0.2128  0.3637
 3089DOPE   PO436241  32.544  11.682  10.510 -0.1198  0.0698 -0.0809
 3089DOPE   GL136242  32.345  11.735  10.850 -0.1080  0.3353  0.5023
 3089DOPE   GL236243  32.236  12.023  10.832  0.0639  0.2190  0.0296
 3089DOPE   C1A36244  32.173  11.689  11.269 -0.1438 -0.2122 -0.0771
 3089DOPE   D2A36245  32.400  11.632  11.712  0.0906 -0.0109  0.2051
 3089DOPE   C3A36246  32.260  11.359  12.057  0.0936  0.3665 -0.1174
 3089DOPE   C4A36247  32.186  11.176  12.503 -0.0142  0.0509 -0.0293
 3089DOPE   C1B36248  32.200  12.179  11.261  0.0777 -0.1599 -0.0046
 3089DOPE   D2B36249  32.064  12.016  11.683  0.0258  0.2161 -0.0588
 3089DOPE   C3B36250  32.154  12.407  11.985 -0.1020  0.0404  0.2533
 3089DOPE   C4B36251  32.300  12.604  12.370 -0.0930  0.2365 -0.2683
 3090DOPC   NC336252  32.242  12.285   9.933  0.1184  0.1872  0.1320
 3090DOPC   PO436253  31.957  12.252  10.194 -0.1861 -0.0354 -0.0130
 3090DOPC   GL136254  31.981  12.305  10.595  0.0763  0.0389  0.0177
 3090DOPC   GL236255  31.787  12.402  10.879 -0.0372  0.1697 -0.1369
 3090DOPC   C1A36256  32.296  12.497  10.906 -0.0719  0.1549 -0.1464
 3090DOPC   D2A36257  32.552  12.574  11.277  0.3188  0.0227  0.3186
 3090DOPC   C3A36258  32.427  12.693  11.659 -0.0055 -0.0348  0.0703
 3090DOPC   C4A36259  32.419  12.972  12.048 -0.2049 -0.0587  0.0863
 3090DOPC   C1B36260  31.698  12.232  11.290  0.2396 -0.0500  0.0186
 3090DOPC   D2B36261  31.551  12.010  11.677  0.1043 -0.0525 -0.0181
 3090DOPC   C3B36262  31.202  12.129  11.938 -0.1501  0.2072 -0.2575
 3090DOPC   C4B36263  31.019  12.203  12.305  0.1416  0.2312 -0.1961
 3091DOPE   NH336264   0.237  10.735  10.361  0.0023 -0.0889  0.1418
 3091DOPE   PO436265   0.446  10.971  10.265  0.2034 -0.2784 -0.2016
 3091DOPE   GL136266   0.608  11.099  10.572  0.0578 -0.1253 -0.1074
 3091DOPE   GL236267   0.567  11.439  10.575  0.2616  0.3351  0.3288
 3091DOPE   C1A36268   0.804  10.942  10.989 -0.0346 -0.1563  0.0916
 3091DOPE   D2A36269   1.286  11.024  11.162  0.2132 -0.2718  0.0912
 3091DOPE   C3A36270   1.387  11.164  11.578  0.4387  0.1282 -0.0871
 3091DOPE   C4A36271   1.290  11.498  11.898  0.0394 -0.1469  0.1735
 3091DOPE   C1B36272   0.462  11.275  10.980 -0.0420 -0.2494  0.0039
 3091DOPE   D2B36273   0.488  11.007  11.393 -0.1794 -0.1078 -0.1421
 3091DOPE   C3B36274   0.527  10.686  11.728  0.4056  0.2241  0.0308
 3091DOPE   C4B36275   0.583  10.259  11.921 -0.1178 -0.1267 -0.0880
 3092POSM   NC336276  22.510  16.855   9.331  0.1437 -0.1504  0.1269
 3092POSM   PO436277  22.135  16.848   9.485  0.1930 -0.1446 -0.0466
 3092POSM   AM136278  22.173  17.052   9.750 -0.2391 -0.2122  0.1099
 3092POSM   AM236279  22.249  16.872  10.003 -0.1476  0.5283 -0.0348
 3092POSM   T1A36280  22.574  17.203  10.029 -0.2935  0.1010  0.3316
 3092POSM   C2A36281  22.891  16.910  10.309  0.0684 -0.0967  0.0995
 3092POSM   C3A36282  23.012  16.951  10.758 -0.1353  0.2929  0.3053
 3092POSM   C1B36283  22.405  16.764  10.281 -0.2126  0.1194  0.0558
 3092POSM   D2B36284  22.633  16.484  10.583 -0.1912 -0.2489  0.4150
 3092POSM   C3B36285  22.647  16.656  11.016  0.0174 -0.0344 -0.0054
 3092POSM   C4B36286  22.753  16.896  11.396  0.0515  0.0838  0.2178
 3093DOPC   NC336287  28.446  18.195  10.603  0.3566  0.2192  0.0960
 3093DOPC   PO436288  28.339  18.527  10.466  0.1796  0.3637 -0.1446
 3093DOPC   GL136289  28.309  18.660  10.863 -0.0204  0.1643 -0.1327
 3093DOPC   GL236290  28.166  18.459  10.939  0.1354 -0.2028  0.3102
 3093DOPC   C1A36291  28.627  18.460  11.109 -0.0497  0.0346 -0.2175
 3093DOPC   D2A36292  29.044  18.373  11.262 -0.2421  0.0438  0.1558
 3093DOPC   C3A36293  29.297  17.974  11.114  0.2806  0.0180  0.0902
 3093DOPC   C4A36294  29.069  17.540  10.998 -0.1844  0.0840  0.0952
 3093DOPC   C1B36295  28.214  18.801  11.361  0.0965  0.0277  0.1373
 3093DOPC   D2B36296  27.892  18.937  11.551  0.0273  0.0444  0.1251
 3093DOPC   C3B36297  27.503  18.799  11.757 -0.1660 -0.2621  0.2162
 3093DOPC   C4B36298  27.167  18.490  11.685  0.0429  0.1975 -0.0193
 3094POSM   NC336299  33.059  14.399   9.895 -0.2413 -0.1515  0.1435
 3094POSM   PO436300  33.011  14.169  10.204 -0.1707 -0.1306  0.0632
 3094POSM   AM136301  33.141  14.255  10.513 -0.1014 -0.1969  0.2517
 3094POSM   AM236302  33.189  14.072  10.727  0.5206 -0.0610 -0.1007
 3094POSM   T1A36303  33.198  14.641  10.793 -0.2417 -0.1270  0.1134
 3094POSM   C2A36304  32.916  14.913  11.064  0.0349 -0.2456  0.3312
 3094POSM   C3A36305  32.807  15.260  11.358  0.1473 -0.1068 -0.4450
 3094POSM   C1B36306  33.030  13.826  10.971 -0.0504 -0.2039 -0.1239
 3094POSM   D2B36307  32.777  13.514  11.224  0.2233 -0.0476  0.0018
 3094POSM   C3B36308  32.961  13.547  11.670  0.0891  0.0172 -0.0409
 3094POSM   C4B36309  32.949  13.874  12.011 -0.1008 -0.0463  0.1590
 3095POSM   NC336310  20.503  18.852   9.911 -0.1823 -0.0662  0.0226
 3095POSM   PO436311  20.884  18.720   9.998  0.1097  0.2139  0.2460
 3095POSM   AM136312  21.037  18.740  10.291  0.0430 -0.2077 -0.0705
 3095POSM   AM236313  21.070  18.564  10.513  0.4109  0.3315 -0.0281
 3095POSM   T1A36314  20.912  19.031  10.734  0.3754  0.0433 -0.3582
 3095POSM   C2A36315  20.943  19.190  11.195  0.0250  0.1742 -0.2621
 3095POSM   C3A36316  20.821  19.257  11.614  0.1455  0.2471  0.1029
 3095POSM   C1B36317  21.351  18.664  10.654 -0.0744 -0.0949 -0.3212
 3095POSM   D2B36318  21.621  18.600  11.033  0.0015 -0.1685  0.1332
 3095POSM   C3B36319  21.686  18.282  11.324 -0.0995  0.2157 -0.2604
 3095POSM   C4B36320  21.945  18.010  11.549  0.1151  0.2391  0.3449
 3096DOPC   NC336321  26.523  13.752   9.736  0.1969 -0.0388  0.1652
 3096DOPC   PO436322  26.316  13.704  10.074  0.0717 -0.0461  0.0144
 3096DOPC   GL136323  26.323  14.057  10.175  0.0470  0.2052 -0.1795
 3096DOPC   GL236324  26.523  14.021  10.404 -0.1200 -0.0013  0.1270
 3096DOPC   C1A36325  26.266  14.401  10.490 -0.1254 -0.1897 -0.2862
 3096DOPC   D2A36326  25.863  14.695  10.538  0.2950  0.0878 -0.0414
 3096DOPC   C3A36327  25.790  15.122  10.655 -0.0846 -0.2175  0.1412
 3096DOPC   C4A36328  25.619  15.485  10.432 -0.1231  0.2052  0.0746
 3096DOPC   C1B36329  26.219  13.911  10.694 -0.2890 -0.4784  0.0700
 3096DOPC   D2B36330  26.070  13.675  11.065 -0.3883 -0.0130 -0.0279
 3096DOPC   C3B36331  25.655  13.751  11.294  0.1173  0.0083  0.1526
 3096DOPC   C4B36332  25.265  13.599  11.334  0.1382 -0.1885 -0.0545
 3097DOPE   NH336333  29.092  13.885  10.375  0.0379  0.4870  0.1824
 3097DOPE   PO436334  28.768  13.832  10.402  0.1179  0.3057  0.0992
 3097DOPE   GL136335  28.853  13.988  10.758 -0.1639 -0.0697 -0.1433
 3097DOPE   GL236336  28.609  14.166  10.799 -0.3342  0.1512 -0.1374
 3097DOPE   C1A36337  28.961  13.914  11.235 -0.1703 -0.4127  0.1653
 3097DOPE   D2A36338  28.753  13.746  11.629  0.1985 -0.0937 -0.1572
 3097DOPE   C3A36339  29.015  13.742  12.055 -0.1207 -0.2330  0.0885
 3097DOPE   C4A36340  28.967  13.917  12.430 -0.0174  0.0257 -0.0756
 3097DOPE   C1B36341  28.437  14.191  11.306 -0.0200  0.3581 -0.0670
 3097DOPE   D2B36342  28.134  14.266  11.656  0.0550  0.0887 -0.0551
 3097DOPE   C3B36343  28.055  14.185  12.097  0.0492 -0.1926  0.0962
 3097DOPE   C4B36344  27.690  14.338  12.391  0.3200 -0.0897  0.0759
 3098POSM   NC336345  23.652  23.189  10.644  0.5846  0.1683  0.4323
 3098POSM   PO436346  23.402  23.451  10.634 -0.2493 -0.1000 -0.0899
 3098POSM   AM136347  23.578  23.561  10.933  0.2498 -0.0083  0.2622
 3098POSM   AM236348  23.733  23.376  11.100  0.0276 -0.0505  0.2873
 3098POSM   T1A36349  23.480  23.763  11.379  0.2993 -0.2140  0.1034
 3098POSM   C2A36350  23.574  23.997  11.741  0.1815  0.3577 -0.1614
 3098POSM   C3A36351  23.861  24.251  11.934  0.0056 -0.1490  0.2923
 3098POSM   C1B36352  23.717  23.360  11.493  0.0573 -0.0697  0.0360
 3098POSM   D2B36353  23.530  23.139  11.903 -0.0196  0.0405  0.0844
 3098POSM   C3B36354  23.715  23.153  12.270 -0.3593  0.1593 -0.0696
 3098POSM   C4B36355  24.088  23.423  12.441 -0.1832  0.0867  0.1229
 3099POSM   NC336356  27.528  13.995  10.033  0.0325 -0.1727 -0.1086
 3099POSM   PO436357  27.133  13.995  10.120 -0.0172  0.0726 -0.5463
 3099POSM   AM136358  27.007  14.002  10.409  0.1610  0.0257 -0.0498
 3099POSM   AM236359  26.965  13.863  10.689  0.0436 -0.1144  0.3594
 3099POSM   T1A36360  26.712  14.270  10.805 -0.0624  0.1539 -0.0309
 3099POSM   C2A36361  26.303  14.307  11.064 -0.1832  0.0547  0.1627
 3099POSM   C3A36362  25.958  14.627  11.058  0.3330 -0.1993  0.1573
 3099POSM   C1B36363  27.050  13.981  11.009 -0.0836  0.1145 -0.0788
 3099POSM   D2B36364  26.988  13.915  11.474 -0.0523  0.3228  0.0327
 3099POSM   C3B36365  27.278  14.080  11.800 -0.1596 -0.1772 -0.0974
 3099POSM   C4B36366  27.541  13.898  12.066  0.0210  0.0613  0.0262
 3100DOPS   CNO36367  29.108  16.301   9.912  0.0498  0.0308  0.0986
 3100DOPS   PO436368  29.081  16.595  10.128 -0.2987 -0.3268  0.1888
 3100DOPS   GL136369  29.139  16.350  10.421 -0.3619 -0.1382 -0.2491
 3100DOPS   GL236370  29.407  16.377  10.433 -0.0426  0.0654 -0.0197
 3100DOPS   C1A36371  29.267  16.308  10.894 -0.0290  0.1577  0.2611
 3100DOPS   D2A36372  29.621  16.295  11.261  0.0655 -0.0404  0.0349
 3100DOPS   C3A36373  29.620  16.572  11.670  0.0778 -0.2715  0.2512
 3100DOPS   C4A36374  29.825  16.689  12.094  0.1917 -0.1213  0.2568
 3100DOPS   C1B36375  29.599  16.793  10.590 -0.0513  0.2261 -0.0081
 3100DOPS   D2B36376  29.873  17.122  10.879  0.0261  0.1106  0.1728
 3100DOPS   C3B36377  29.780  17.143  11.323 -0.5073  0.2212 -0.0432
 3100DOPS   C4B36378  29.585  17.139  11.728  0.0005  0.1360 -0.0690
 3101DOPC   NC336379  26.942  19.601  10.346 -0.1604 -0.1529  0.0837
 3101DOPC   PO436380  27.292  19.764  10.280  0.0750 -0.0555  0.1043
 3101DOPC   GL136381  27.209  19.965  10.593 -0.4940 -0.1952 -0.1503
 3101DOPC   GL236382  27.539  19.773  10.709  0.0198 -0.0549  0.0683
 3101DOPC   C1A36383  27.263  20.105  11.009  0.1372 -0.0023 -0.1790
 3101DOPC   D2A36384  27.562  20.306  11.290 -0.1385  0.0129 -0.2106
 3101DOPC   C3A36385  27.580  20.293  11.742  0.1856  0.0794  0.0567
 3101DOPC   C4A36386  27.801  20.300  12.183 -0.0404 -0.3297 -0.1103
 3101DOPC   C1B36387  27.627  19.727  11.112  0.3490  0.0644  0.2552
 3101DOPC   D2B36388  27.436  19.837  11.511  0.2326  0.1795  0.0188
 3101DOPC   C3B36389  27.447  19.878  11.995 -0.0184 -0.1973 -0.3017
 3101DOPC   C4B36390  27.296  20.220  12.233 -0.2283 -0.2289 -0.0937
 3102POSM   NC336391  26.430  17.542   9.771 -0.1049  0.0237  0.1070
 3102POSM   PO436392  26.368  17.440  10.175  0.0071 -0.1433  0.1371
 3102POSM   AM136393  26.296  17.446  10.493 -0.0267 -0.3618  0.0215
 3102POSM   AM236394  26.043  17.355  10.665  0.4497 -0.3601  0.2450
 3102POSM   T1A36395  26.461  17.205  10.911 -0.0893  0.5651 -0.2042
 3102POSM   C2A36396  26.467  16.967  11.264 -0.0477  0.0112 -0.1000
 3102POSM   C3A36397  26.333  17.069  11.711  0.1556  0.1640 -0.0911
 3102POSM   C1B36398  25.948  17.477  10.964 -0.2062  0.1176  0.0192
 3102POSM   D2B36399  26.001  17.317  11.432 -0.1093 -0.1743  0.4461
 3102POSM   C3B36400  26.131  17.483  11.864  0.0427  0.1204  0.0703
 3102POSM   C4B36401  25.898  17.722  12.221 -0.3949  0.2721  0.0334
 3103DOPE   NH336402  30.130  13.002  10.781  0.0970 -0.2875 -0.1377
 3103DOPE   PO436403  30.101  12.683  10.833  0.1738 -0.2802 -0.1035
 3103DOPE   GL136404  30.193  12.782  11.194  0.0143 -0.0995 -0.1267
 3103DOPE   GL236405  30.437  12.688  11.286  0.0309 -0.0822  0.0025
 3103DOPE   C1A36406  30.035  13.034  11.596 -0.2703 -0.1270  0.0030
 3103DOPE   D2A36407  29.680  13.120  11.904  0.2858 -0.1573 -0.1223
 3103DOPE   C3A36408  29.724  13.229  12.342 -0.1764  0.3360 -0.0320
 3103DOPE   C4A36409  30.128  13.320  12.577 -0.3713  0.0897  0.0297
 3103DOPE   C1B36410  30.289  12.559  11.679 -0.5399 -0.1809  0.1007
 3103DOPE   D2B36411  30.265  12.359  12.090 -0.1927 -0.2813  0.1732
 3103DOPE   C3B36412  30.608  12.076  12.059  0.1547  0.2046  0.6360
 3103DOPE   C4B36413  30.926  11.743  12.146  0.0495 -0.2132 -0.3881
 3104POSM   NC336414  23.890  19.894  10.569 -0.2075  0.0111 -0.3220
 3104POSM   PO436415  23.574  20.011  10.392 -0.3428 -0.2463 -0.0102
 3104POSM   AM136416  23.342  19.903  10.619  0.2602  0.1107 -0.3679
 3104POSM   AM236417  23.044  19.980  10.650  0.0541  0.1159 -0.0431
 3104POSM   T1A36418  23.149  19.600  11.009 -0.0101  0.2947  0.1212
 3104POSM   C2A36419  23.124  19.455  11.446  0.3741 -0.3483  0.1542
 3104POSM   C3A36420  23.223  19.057  11.667  0.0650 -0.1799  0.1526
 3104POSM   C1B36421  23.105  20.079  10.970  0.1093  0.0268  0.0540
 3104POSM   D2B36422  23.087  20.159  11.403 -0.2019 -0.1836 -0.0244
 3104POSM   C3B36423  23.254  19.958  11.780 -0.0037  0.4334  0.0389
 3104POSM   C4B36424  23.306  19.951  12.259  0.0926  0.1531  0.0436
 3105POSM   NC336425  27.040  18.994   9.738 -0.0736 -0.0443 -0.0071
 3105POSM   PO436426  27.104  18.719  10.028 -0.2299  0.1249  0.1515
 3105POSM   AM136427  27.080  18.801  10.327 -0.1996 -0.2151  0.0374
 3105POSM   AM236428  26.939  18.659  10.494  0.0091 -0.3071 -0.2034
 3105POSM   T1A36429  27.053  19.097  10.768  0.0136  0.1858 -0.3413
 3105POSM   C2A36430  27.108  19.187  11.200 -0.0929  0.1260  0.0890
 3105POSM   C3A36431  27.039  19.004  11.635 -0.1245  0.0667  0.2861
 3105POSM   C1B36432  26.895  18.561  10.809 -0.0685 -0.0377  0.0556
 3105POSM   D2B36433  26.634  18.288  11.095 -0.1599  0.0312  0.3273
 3105POSM   C3B36434  26.691  18.503  11.510  0.3942 -0.0007 -0.3686
 3105POSM   C4B36435  26.500  18.304  11.891 -0.3095  0.1645  0.1558
 3106POSM   NC336436  27.348  16.360   9.566  0.3559  0.0460 -0.0832
 3106POSM   PO436437  27.400  16.228   9.904 -0.0975  0.3353 -0.0845
 3106POSM   AM136438  27.265  16.188  10.189  0.2648 -0.2901 -0.0128
 3106POSM   AM236439  27.120  15.965  10.273 -0.1853  0.2726 -0.2601
 3106POSM   T1A36440  27.357  16.239  10.675  0.2009 -0.0005  0.0914
 3106POSM   C2A36441  27.775  16.235  10.873 -0.1520 -0.2434 -0.4009
 3106POSM   C3A36442  27.929  16.577  11.150  0.4471 -0.1376 -0.0753
 3106POSM   C1B36443  27.098  15.861  10.622  0.0365 -0.0692 -0.1292
 3106POSM   D2B36444  27.202  15.540  10.924  0.0034 -0.0639 -0.1808
 3106POSM   C3B36445  27.553  15.229  10.920 -0.1063 -0.2183  0.2444
 3106POSM   C4B36446  27.907  14.967  11.087  0.0702  0.1574  0.0214
 3107DOPS   CNO36447  30.765  15.930   9.850 -0.0681 -0.0606 -0.2357
 3107DOPS   PO436448  31.007  15.931  10.141 -0.3100 -0.0144 -0.1040
 3107DOPS   GL136449  31.268  16.134  10.262  0.1342 -0.1459  0.2529
 3107DOPS   GL236450  31.330  16.443  10.259 -0.3401  0.0225 -0.1698
 3107DOPS   C1A36451  31.158  16.251  10.698 -0.0780 -0.0121  0.0865
 3107DOPS   D2A36452  30.991  16.645  10.761  0.2163 -0.3613  0.1273
 3107DOPS   C3A36453  30.598  16.784  10.592  0.1279 -0.1147 -0.1440
 3107DOPS   C4A36454  30.210  16.998  10.554 -0.4845 -0.3410  0.2676
 3107DOPS   C1B36455  31.515  16.739  10.624  0.1360  0.0308 -0.1038
 3107DOPS   D2B36456  31.837  16.898  10.904 -0.0582  0.1457  0.0831
 3107DOPS   C3B36457  31.974  16.580  11.189 -0.3589  0.1974 -0.1486
 3107DOPS   C4B36458  31.805  16.247  11.493  0.1502  0.0170 -0.3802
 3108POSM   NC336459  32.649  13.828  10.267 -0.1353  0.0803  0.3259
 3108POSM   PO436460  32.673  13.431  10.166 -0.0644 -0.1799  0.2142
 3108POSM   AM136461  32.767  13.337  10.460  0.1172 -0.3024  0.0348
 3108POSM   AM236462  32.650  13.482  10.698 -0.1519  0.1267 -0.1476
 3108POSM   T1A36463  33.148  13.374  10.815 -0.0407  0.0948 -0.1318
 3108POSM   C2A36464  33.264  13.466  11.252 -0.1340  0.0599 -0.3252
 3108POSM   C3A36465  33.512  13.769  11.494 -0.0181  0.3902 -0.0352
 3108POSM   C1B36466  32.561  13.771  10.872 -0.2120  0.3429 -0.0247
 3108POSM   D2B36467  32.370  13.950  11.253  0.1113 -0.3831 -0.2893
 3108POSM   C3B36468  32.481  13.664  11.631 -0.0905 -0.1185 -0.1822
 3108POSM   C4B36469  32.529  13.416  12.039  0.0375  0.1102  0.0414
 3109DOPE   NH336470  32.131  16.079   9.981 -0.0760  0.0654 -0.0834
 3109DOPE   PO436471  32.239  15.919  10.235  0.1272  0.2071  0.2130
 3109DOPE   GL136472  32.445  15.860  10.517  0.0584  0.3425 -0.1079
 3109DOPE   GL236473  32.228  16.004  10.720 -0.0125 -0.0048 -0.0653
 3109DOPE   C1A36474  32.633  15.797  10.955 -0.0830  0.0337  0.0065
 3109DOPE   D2A36475  32.650  15.959  11.413 -0.1654 -0.2854 -0.3268
 3109DOPE   C3A36476  32.299  16.216  11.651  0.0851 -0.0023 -0.2116
 3109DOPE   C4A36477  32.084  16.633  11.728 -0.0747 -0.1510 -0.3160
 3109DOPE   C1B36478  31.850  16.203  10.904  0.0829  0.0185 -0.2103
 3109DOPE   D2B36479  31.489  16.495  10.989  0.1642  0.0787  0.1787
 3109DOPE   C3B36480  31.316  16.942  11.071  0.2212 -0.0956 -0.1110
 3109DOPE   C4B36481  31.424  17.205  11.388 -0.1782 -0.2503 -0.0809
 3110DOPE   NH336482   0.484  23.559   9.833  0.1442  0.2746  0.1185
 3110DOPE   PO436483   0.235  23.372   9.704 -0.3244  0.1380 -0.1234
 3110DOPE   GL136484   0.155  23.462  10.222  0.0992  0.1390 -0.1237
 3110DOPE   GL236485   0.355  23.199  10.236  0.0534 -0.4415 -0.1631
 3110DOPE   C1A36486   0.348  23.837  10.495  0.1348 -0.0311  0.0687
 3110DOPE   D2A36487   0.336  24.234  10.769 -0.1551 -0.2041 -0.1185
 3110DOPE   C3A36488   0.339  24.491  11.150  0.0045 -0.2104  0.0045
 3110DOPE   C4A36489   0.067  24.733  11.405  0.1183  0.0741 -0.0936
 3110DOPE   C1B36490   0.393  23.384  10.665 -0.1126 -0.0530 -0.3134
 3110DOPE   D2B36491   0.315  23.633  10.993  0.1135  0.1049 -0.0102
 3110DOPE   C3B36492  -0.052  23.906  10.908  0.1555  0.0910  0.0533
 3110DOPE   C4B36493  -0.114  23.614  10.544  0.0719  0.0202 -0.1561
 3111DOPE   NH336494  27.804  19.306  10.126  0.0626 -0.0067  0.0477
 3111DOPE   PO436495  27.716  19.535  10.336 -0.2411  0.1079  0.2556
 3111DOPE   GL136496  27.807  19.361  10.612 -0.0575 -0.2526 -0.2799
 3111DOPE   GL236497  28.013  19.566  10.742 -0.1847 -0.0011 -0.1239
 3111DOPE   C1A36498  27.499  19.266  10.953 -0.3586  0.1396  0.2877
 3111DOPE   D2A36499  27.556  19.206  11.398 -0.1101  0.2002 -0.0065
 3111DOPE   C3A36500  27.787  19.375  11.737  0.1928 -0.2064  0.0007
 3111DOPE   C4A36501  28.136  19.506  12.013 -0.2395  0.1985  0.0445
 3111DOPE   C1B36502  28.029  19.384  11.144  0.0226 -0.1550  0.1550
 3111DOPE   D2B36503  28.356  19.253  11.454 -0.0152  0.1226  0.1696
 3111DOPE   C3B36504  28.585  19.190  11.850 -0.2880  0.0355  0.1600
 3111DOPE   C4B36505  29.026  19.047  11.915  0.2262 -0.1541  0.0473
 3112DOPE   NH336506  25.948  14.546   9.049  0.1930  0.3583  0.3272
 3112DOPE   PO436507  26.138  14.649   9.295 -0.1072 -0.0578  0.0130
 3112DOPE   GL136508  26.087  14.722   9.655  0.2337 -0.1320  0.0229
 3112DOPE   GL236509  25.818  14.894   9.715 -0.1299 -0.0086  0.0546
 3112DOPE   C1A36510  25.902  14.465  10.053  0.0510 -0.0915 -0.0472
 3112DOPE   D2A36511  25.859  14.050  10.264  0.2012 -0.4551  0.1245
 3112DOPE   C3A36512  25.421  13.857  10.252 -0.2241 -0.2826 -0.0068
 3112DOPE   C4A36513  25.046  13.734  10.381 -0.0295 -0.2261 -0.1272
 3112DOPE   C1B36514  25.913  15.068  10.170 -0.0734  0.0392 -0.1461
 3112DOPE   D2B36515  26.246  15.224  10.486 -0.0306  0.1939  0.0523
 3112DOPE   C3B36516  26.254  15.078  10.892 -0.0859  0.1021  0.0496
 3112DOPE   C4B36517  26.119  15.059  11.332  0.0822 -0.4071  0.1229
 3113POSM   NC336518  24.820  16.719  10.000  0.0230 -0.0593  0.2110
 3113POSM   PO436519  24.497  16.605   9.814 -0.1663  0.2794 -0.1628
 3113POSM   AM136520  24.183  16.614   9.962 -0.1555  0.0141  0.2497
 3113POSM   AM236521  23.931  16.771   9.934 -0.1539  0.2683  0.2950
 3113POSM   T1A36522  23.982  16.587  10.429  0.2409  0.1437  0.4770
 3113POSM   C2A36523  24.105  16.233  10.640  0.1489  0.1926 -0.1077
 3113POSM   C3A36524  24.153  16.126  11.069  0.6333  0.3029  0.0278
 3113POSM   C1B36525  23.603  16.739  10.114 -0.2458 -0.2278 -0.0648
 3113POSM   D2B36526  23.462  16.860  10.502  0.0767  0.1572 -0.2852
 3113POSM   C3B36527  23.752  17.025  10.811  0.1437 -0.1204  0.1562
 3113POSM   C4B36528  23.824  16.820  11.188  0.0969 -0.0808 -0.1077
 3114DOPC   NC336529  30.632  24.006  10.156  0.1951 -0.1403  0.1522
 3114DOPC   PO436530  30.573  24.394  10.097 -0.2292 -0.0998  0.3255
 3114DOPC   GL136531  30.667  24.480  10.463 -0.3265  0.0364 -0.1074
 3114DOPC   GL236532  30.735  24.772  10.518 -0.1517 -0.1347 -0.1353
 3114DOPC   C1A36533  30.743  24.123  10.801  0.1808  0.1941 -0.2083
 3114DOPC   D2A36534  30.425  23.989  11.113 -0.3232  0.2062  0.0172
 3114DOPC   C3A36535  30.768  23.895  11.507  0.0031  0.2251  0.6143
 3114DOPC   C4A36536  31.204  23.802  11.569 -0.1227  0.3650 -0.1844
 3114DOPC   C1B36537  30.792  24.867  10.952 -0.3955  0.0665  0.0970
 3114DOPC   D2B36538  30.970  25.119  11.360  0.2608 -0.1032  0.0104
 3114DOPC   C3B36539  31.439  25.168  11.423 -0.0263  0.2727 -0.0670
 3114DOPC   C4B36540  31.841  25.406  11.407 -0.0928 -0.2748  0.0192
 3115DOPC   NC336541  28.679  16.323  10.421  0.1102  0.1240 -0.1637
 3115DOPC   PO436542  28.643  16.733  10.384 -0.4597 -0.3813  0.0742
 3115DOPC   GL136543  28.972  16.698  10.660 -0.0357  0.1258  0.0111
 3115DOPC   GL236544  28.833  16.637  10.937 -0.0166  0.3063 -0.0882
 3115DOPC   C1A36545  29.183  16.999  10.959 -0.2024  0.3053  0.1724
 3115DOPC   D2A36546  29.284  17.243  11.364  0.1536  0.0019 -0.0469
 3115DOPC   C3A36547  29.168  17.731  11.484  0.2341  0.2413  0.0540
 3115DOPC   C4A36548  28.739  18.032  11.499  0.4088  0.0321 -0.2603
 3115DOPC   C1B36549  28.384  16.723  11.039  0.1132 -0.4814 -0.1583
 3115DOPC   D2B36550  28.304  16.587  11.497 -0.0035  0.0501 -0.0026
 3115DOPC   C3B36551  28.596  16.650  11.882 -0.1870 -0.2708 -0.2574
 3115DOPC   C4B36552  28.766  16.845  12.247 -0.0557  0.2570 -0.2458
 3116POSM   NC336553  25.091  18.698  10.163 -0.0478  0.1604 -0.2271
 3116POSM   PO436554  25.240  19.058  10.217 -0.2728  0.2319 -0.2116
 3116POSM   AM136555  25.164  18.960  10.505 -0.5178  0.2753 -0.1360
 3116POSM   AM236556  25.063  19.047  10.756  0.0764 -0.1840  0.0874
 3116POSM   T1A36557  25.302  18.690  10.922  0.1776  0.0907 -0.3020
 3116POSM   C2A36558  25.241  18.540  11.400  0.1116 -0.2484  0.3418
 3116POSM   C3A36559  25.086  18.463  11.843 -0.0667  0.1440 -0.4216
 3116POSM   C1B36560  25.135  19.105  11.075 -0.0205  0.1434  0.4485
 3116POSM   D2B36561  24.987  19.130  11.541  0.0922  0.1447  0.1634
 3116POSM   C3B36562  24.564  18.987  11.663 -0.3065 -0.2045  0.0744
 3116POSM   C4B36563  24.266  18.687  11.936 -0.0865 -0.0628  0.4462
 3117POSM   NC336564  29.711  18.571  10.041 -0.1674 -0.1827 -0.1443
 3117POSM   PO436565  29.679  18.943  10.066 -0.0184  0.1086 -0.1200
 3117POSM   AM136566  29.829  18.935  10.348 -0.5450  0.0027 -0.0278
 3117POSM   AM236567  29.851  18.756  10.555  0.0782  0.2152 -0.0623
 3117POSM   T1A36568  30.031  19.207  10.686  0.1929 -0.2268  0.2947
 3117POSM   C2A36569  30.215  19.591  10.665  0.0887 -0.2134  0.2487
 3117POSM   C3A36570  30.274  20.034  10.648 -0.1161 -0.1289 -0.1049
 3117POSM   C1B36571  29.842  18.745  10.893  0.1177  0.4121  0.1733
 3117POSM   D2B36572  29.823  18.825  11.383 -0.1146  0.2842 -0.1962
 3117POSM   C3B36573  29.932  18.447  11.672 -0.0491 -0.1081  0.1841
 3117POSM   C4B36574  29.615  18.104  11.780  0.2396  0.1240  0.0442
 3118DOPS   CNO36575   0.509  13.333   9.675  0.1476  0.0331  0.2010
 3118DOPS   PO436576   0.466  13.682   9.823 -0.1445  0.2525 -0.0286
 3118DOPS   GL136577   0.499  13.840  10.191  0.0484 -0.1637 -0.3927
 3118DOPS   GL236578   0.160  13.940  10.172 -0.2132  0.1233 -0.2289
 3118DOPS   C1A36579   0.313  13.780  10.629 -0.3115 -0.2215 -0.0816
 3118DOPS   D2A36580   0.245  13.904  11.059  0.2044  0.0631 -0.2009
 3118DOPS   C3A36581   0.090  13.531  11.288 -0.1442 -0.1087  0.0530
 3118DOPS   C4A36582  -0.179  13.113  11.304 -0.0682 -0.2763 -0.0453
 3118DOPS   C1B36583  -0.133  14.209  10.433 -0.1692  0.1532 -0.0994
 3118DOPS   D2B36584  -0.414  14.565  10.574 -0.0270 -0.1384  0.4561
 3118DOPS   C3B36585  -0.648  14.634  10.975  0.2445 -0.0092 -0.1143
 3118DOPS   C4B36586  -1.079  14.750  11.017 -0.0245  0.1042  0.1770
 3119DOPE   NH336587  32.917  20.759   9.438  0.1790  0.0051 -0.2229
 3119DOPE   PO436588  33.049  20.772   9.704 -0.0338 -0.1117 -0.1578
 3119DOPE   GL136589  33.014  20.802  10.096  0.1686  0.1874 -0.0639
 3119DOPE   GL236590  32.738  20.749  10.105 -0.1386 -0.1900  0.1990
 3119DOPE   C1A36591  33.018  20.640  10.547  0.2713 -0.2895 -0.0206
 3119DOPE   D2A36592  32.688  20.594  10.856 -0.1952  0.0126  0.2840
 3119DOPE   C3A36593  32.510  20.893  11.178 -0.0034  0.0522  0.0235
 3119DOPE   C4A36594  32.763  20.973  11.541  0.1480 -0.1935 -0.1658
 3119DOPE   C1B36595  32.357  20.806  10.406  0.0700  0.0083  0.0574
 3119DOPE   D2B36596  32.193  20.693  10.813 -0.2156  0.2048 -0.0528
 3119DOPE   C3B36597  32.073  20.493  11.275  0.0382 -0.1691  0.2331
 3119DOPE   C4B36598  32.289  20.238  11.562  0.1711 -0.3102  0.1303
 3120DOPC   NC336599  30.840  16.384  10.322  0.1515  0.1980  0.2905
 3120DOPC   PO436600  30.599  16.451  10.056 -0.2071  0.0768  0.0402
 3120DOPC   GL136601  30.361  16.311  10.400 -0.2235  0.1588 -0.0573
 3120DOPC   GL236602  30.202  16.515  10.482 -0.0740 -0.2946 -0.0005
 3120DOPC   C1A36603  30.603  16.361  10.829 -0.1525 -0.0538  0.0564
 3120DOPC   D2A36604  30.938  16.242  11.126 -0.2107 -0.0705 -0.2425
 3120DOPC   C3A36605  31.265  16.341  11.435  0.2134  0.2777 -0.0357
 3120DOPC   C4A36606  31.534  16.669  11.502 -0.2367 -0.1274  0.3441
 3120DOPC   C1B36607  30.215  16.639  10.936  0.1116  0.2627 -0.0491
 3120DOPC   D2B36608  29.978  16.699  11.336  0.0388 -0.1206  0.1009
 3120DOPC   C3B36609  30.076  16.908  11.748 -0.2419  0.0042 -0.2269
 3120DOPC   C4B36610  29.878  17.222  12.105 -0.2837  0.1862  0.1048
 3121DOPC   NC336611  28.831  20.727  10.366  0.0108  0.4420  0.0969
 3121DOPC   PO436612  29.199  20.556  10.298 -0.0216  0.0730  0.0125
 3121DOPC   GL136613  29.199  20.631  10.674 -0.1076 -0.4217  0.0353
 3121DOPC   GL236614  29.170  20.920  10.711 -0.0047 -0.2373 -0.0577
 3121DOPC   C1A36615  28.778  20.504  10.861  0.1944 -0.2315  0.0231
 3121DOPC   D2A36616  28.466  20.195  10.992 -0.2360  0.2951  0.1911
 3121DOPC   C3A36617  28.447  20.162  11.475  0.2169  0.0390 -0.1790
 3121DOPC   C4A36618  28.524  19.797  11.741  0.0679 -0.0025  0.2399
 3121DOPC   C1B36619  28.943  20.869  11.086  0.1291  0.3235  0.0165
 3121DOPC   D2B36620  29.058  20.862  11.515 -0.2252  0.0145 -0.2055
 3121DOPC   C3B36621  29.008  20.582  11.840 -0.0568 -0.0000  0.0039
 3121DOPC   C4B36622  28.737  20.268  11.899  0.1209  0.1212 -0.1856
 3122DOPC   NC336623  28.322  23.174  10.683  0.0145 -0.1353 -0.1169
 3122DOPC   PO436624  28.086  23.485  10.627 -0.1092  0.0323 -0.3755
 3122DOPC   GL136625  27.977  23.394  10.960  0.0629  0.0091  0.4642
 3122DOPC   GL236626  28.231  23.552  11.146 -0.1867  0.4201  0.1504
 3122DOPC   C1A36627  28.012  23.042  11.256  0.2540  0.0413 -0.0263
 3122DOPC   D2A36628  28.195  22.724  11.506 -0.0646 -0.0110  0.2619
 3122DOPC   C3A36629  27.947  22.335  11.750  0.0026 -0.0555 -0.0022
 3122DOPC   C4A36630  27.746  22.009  11.952 -0.0421 -0.3416 -0.1464
 3122DOPC   C1B36631  28.001  23.787  11.451  0.2957 -0.0896 -0.3048
 3122DOPC   D2B36632  27.779  24.123  11.691 -0.1999  0.0090  0.0311
 3122DOPC   C3B36633  27.549  23.960  12.041  0.1154  0.1733  0.1286
 3122DOPC   C4B36634  27.122  24.098  12.105 -0.2176  0.3431  0.1634
 3123DOPE   NH336635  32.591  10.813  10.546  0.2877  0.3593 -0.1971
 3123DOPE   PO436636  32.346  10.966  10.598  0.2429 -0.1266 -0.1086
 3123DOPE   GL136637  32.308  10.684  10.966  0.0811 -0.1030 -0.0329
 3123DOPE   GL236638  32.338  10.383  10.889  0.0089 -0.1298 -0.4966
 3123DOPE   C1A36639  32.541  10.820  11.385 -0.3382  0.0796  0.0592
 3123DOPE   D2A36640  32.431  10.729  11.852  0.1187  0.3645 -0.0440
 3123DOPE   C3A36641  32.626  10.434  12.217 -0.0434 -0.0847 -0.0388
 3123DOPE   C4A36642  32.894  10.243  12.500  0.0333 -0.1025 -0.0384
 3123DOPE   C1B36643  32.722  10.066  10.898 -0.1805  0.1834 -0.1371
 3123DOPE   D2B36644  33.019   9.830  11.082  0.0279 -0.0314  0.2961
 3123DOPE   C3B36645  33.017   9.884  11.570  0.1929  0.2499  0.1345
 3123DOPE   C4B36646  33.015  10.280  11.891  0.2166  0.3229  0.0394
 3124DOPC   NC336647  31.384  24.070   9.878 -0.1525  0.1370  0.2067
 3124DOPC   PO436648  31.460  23.692   9.705 -0.0271  0.1617  0.1292
 3124DOPC   GL136649  31.643  23.669  10.040 -0.3518  0.0028 -0.0048
 3124DOPC   GL236650  31.457  23.611  10.232 -0.1753  0.1146 -0.1525
 3124DOPC   C1A36651  31.882  23.879  10.371  0.0522  0.0145  0.1014
 3124DOPC   D2A36652  31.963  23.911  10.875 -0.1052  0.0759  0.1380
 3124DOPC   C3A36653  32.145  23.535  11.072 -0.1414 -0.0806 -0.1481
 3124DOPC   C4A36654  32.387  23.200  11.167 -0.0931  0.3669 -0.2900
 3124DOPC   C1B36655  31.754  23.327  10.458 -0.0850 -0.1657  0.0713
 3124DOPC   D2B36656  31.981  23.149  10.833 -0.0988 -0.1182  0.0223
 3124DOPC   C3B36657  31.824  23.098  11.247  0.0040  0.3288 -0.1692
 3124DOPC   C4B36658  31.619  22.782  11.487 -0.1668  0.2474 -0.0820
 3125POSM   NC336659  28.257  13.996  10.510 -0.2459 -0.1215  0.1029
 3125POSM   PO436660  28.130  13.623  10.484 -0.0253  0.0444 -0.0983
 3125POSM   AM136661  27.986  13.725  10.784  0.2103 -0.0048  0.3214
 3125POSM   AM236662  27.877  13.621  11.059 -0.0361  0.1461 -0.1141
 3125POSM   T1A36663  27.601  14.018  10.954 -0.1005 -0.1326 -0.2233
 3125POSM   C2A36664  27.429  14.261  11.302 -0.2075 -0.0713  0.0724
 3125POSM   C3A36665  27.262  14.560  11.571 -0.1142  0.0932  0.3059
 3125POSM   C1B36666  28.095  13.769  11.262 -0.0662  0.0231 -0.0597
 3125POSM   D2B36667  28.276  13.826  11.650  0.2638  0.0773 -0.3626
 3125POSM   C3B36668  28.017  13.638  11.994  0.0518  0.1823 -0.0669
 3125POSM   C4B36669  27.718  13.366  12.116 -0.0880 -0.2305 -0.0272
 3126DOPS   CNO36670  27.462  11.293  10.540 -0.1620 -0.1105  0.0253
 3126DOPS   PO436671  27.758  11.348  10.729 -0.1764  0.3839 -0.0607
 3126DOPS   GL136672  27.606  11.379  11.117  0.3526 -0.0369 -0.2200
 3126DOPS   GL236673  27.818  11.217  11.282 -0.0769  0.0056 -0.0551
 3126DOPS   C1A36674  27.299  11.400  11.495  0.0367  0.2624 -0.1324
 3126DOPS   D2A36675  27.033  11.241  11.804  0.1129  0.2281  0.3890
 3126DOPS   C3A36676  26.701  11.541  11.861 -0.0335  0.1573  0.1018
 3126DOPS   C4A36677  26.527  11.850  12.164 -0.4238  0.2077  0.0217
 3126DOPS   C1B36678  27.626  11.161  11.707 -0.1470 -0.0193  0.0167
 3126DOPS   D2B36679  27.467  11.071  12.120  0.0981  0.0890  0.1139
 3126DOPS   C3B36680  27.426  10.682  12.301  0.0813 -0.3009 -0.1398
 3126DOPS   C4B36681  27.176  10.562  12.692 -0.3241  0.2215 -0.1103
 3127DOPE   NH336682  26.057  20.046  10.084  0.1253  0.0181  0.0211
 3127DOPE   PO436683  25.945  19.737  10.220  0.2674 -0.1345  0.0128
 3127DOPE   GL136684  26.075  19.518  10.562  0.0384  0.2916 -0.0032
 3127DOPE   GL236685  25.767  19.612  10.650  0.2347  0.2882 -0.0363
 3127DOPE   C1A36686  26.230  19.234  10.943  0.2751 -0.1271 -0.1843
 3127DOPE   D2A36687  26.192  19.107  11.425  0.1757 -0.0115 -0.1085
 3127DOPE   C3A36688  26.045  19.350  11.813 -0.0501  0.2860  0.1249
 3127DOPE   C4A36689  26.277  19.477  12.194 -0.1083  0.0998 -0.1825
 3127DOPE   C1B36690  26.048  19.868  10.845  0.2734  0.2888  0.4233
 3127DOPE   D2B36691  26.376  20.126  11.057 -0.1780  0.1739 -0.5260
 3127DOPE   C3B36692  26.695  19.961  11.350  0.0279  0.1937 -0.3457
 3127DOPE   C4B36693  27.076  20.174  11.521  0.1097  0.1912  0.3323
 3128POSM   NC336694  25.897  15.437   9.815  0.0259  0.2032  0.1195
 3128POSM   PO436695  26.148  15.661   9.901  0.3208 -0.0949 -0.0722
 3128POSM   AM136696  26.224  15.630  10.236  0.0479  0.0518  0.0870
 3128POSM   AM236697  26.453  15.647  10.338  0.1524  0.1519 -0.1195
 3128POSM   T1A36698  26.156  15.601  10.739 -0.2254 -0.2085  0.1621
 3128POSM   C2A36699  26.306  15.468  11.175 -0.0165  0.0315 -0.1351
 3128POSM   C3A36700  26.533  15.464  11.558 -0.1519  0.0301  0.2186
 3128POSM   C1B36701  26.499  15.857  10.597  0.2440 -0.0773 -0.4393
 3128POSM   D2B36702  26.482  15.915  11.020 -0.1643 -0.0514  0.0713
 3128POSM   C3B36703  26.872  15.698  11.274 -0.1161  0.2075  0.2489
 3128POSM   C4B36704  27.225  15.576  11.428 -0.0510  0.1046  0.0805
 3129DOPC   NC336705  30.069  14.038  10.348  0.0331  0.0228 -0.0718
 3129DOPC   PO436706  29.939  14.418  10.328  0.0792 -0.1210 -0.2002
 3129DOPC   GL136707  29.820  14.661  10.639  0.1095 -0.3645  0.0450
 3129DOPC   GL236708  30.080  14.782  10.799  0.1666 -0.2321 -0.5434
 3129DOPC   C1A36709  29.466  14.861  10.883 -0.2048  0.2965 -0.2063
 3129DOPC   D2A36710  29.243  14.841  11.324 -0.0542 -0.1278  0.2381
 3129DOPC   C3A36711  28.781  14.952  11.222  0.2813  0.1387 -0.3439
 3129DOPC   C4A36712  28.385  15.131  11.365 -0.1671  0.0720 -0.0562
 3129DOPC   C1B36713  29.841  14.637  11.162 -0.1203 -0.1825  0.1497
 3129DOPC   D2B36714  29.656  14.615  11.556  0.0086 -0.3264  0.1934
 3129DOPC   C3B36715  29.492  15.000  11.831  0.0126  0.1049  0.1342
 3129DOPC   C4B36716  29.225  15.319  11.924  0.3348 -0.4331 -0.0211
 3130DOPS   CNO36717  29.053  13.525  10.732  0.0265  0.0090  0.1197
 3130DOPS   PO436718  29.101  13.173  10.689  0.3121  0.1992  0.1448
 3130DOPS   GL136719  29.118  13.118  11.051 -0.4366  0.5262 -0.0912
 3130DOPS   GL236720  29.128  12.841  11.037  0.1737 -0.0717 -0.1487
 3130DOPS   C1A36721  28.825  13.264  11.380  0.0548 -0.0132 -0.2908
 3130DOPS   D2A36722  28.587  13.041  11.723  0.0740  0.1511  0.2729
 3130DOPS   C3A36723  28.486  13.495  11.955 -0.0725  0.0523 -0.0783
 3130DOPS   C4A36724  28.534  14.016  12.087  0.0952 -0.0828  0.1467
 3130DOPS   C1B36725  28.892  12.746  11.391 -0.2660  0.0509 -0.3591
 3130DOPS   D2B36726  28.922  12.686  11.811  0.3547 -0.2559 -0.4619
 3130DOPS   C3B36727  28.643  12.725  12.162 -0.1690  0.1186  0.0606
 3130DOPS   C4B36728  28.739  12.894  12.567 -0.3101 -0.2277 -0.0732
 3131DOPC   NC336729  28.805  14.610  10.312 -0.0234  0.1688  0.3485
 3131DOPC   PO436730  29.036  14.375  10.531 -0.1613 -0.0181 -0.1223
 3131DOPC   GL136731  29.171  14.270  10.928  0.2336  0.2445 -0.0288
 3131DOPC   GL236732  29.483  14.403  10.787  0.4503 -0.0948 -0.0282
 3131DOPC   C1A36733  28.836  14.398  11.215 -0.1280  0.1250 -0.2025
 3131DOPC   D2A36734  28.734  14.246  11.694  0.0962  0.1050 -0.1327
 3131DOPC   C3A36735  28.469  14.517  11.987 -0.1166  0.0320  0.0468
 3131DOPC   C4A36736  28.414  14.984  12.020  0.0001 -0.0106 -0.0306
 3131DOPC   C1B36737  29.522  14.261  11.199  0.2144 -0.0130 -0.0630
 3131DOPC   D2B36738  29.670  14.103  11.616  0.3014 -0.2186 -0.1214
 3131DOPC   C3B36739  29.821  14.424  11.952  0.3561  0.1504  0.0523
 3131DOPC   C4B36740  29.804  14.689  12.331  0.1641 -0.2167 -0.1021
 3132DOPC   NC336741  30.818  14.548  10.599 -0.1025 -0.3417 -0.2545
 3132DOPC   PO436742  31.039  14.249  10.445 -0.1095  0.2159 -0.0106
 3132DOPC   GL136743  31.256  14.418  10.794 -0.4013  0.1813 -0.0346
 3132DOPC   GL236744  31.104  14.430  11.016  0.0716  0.0523  0.0331
 3132DOPC   C1A36745  31.631  14.502  11.018 -0.1048  0.0138  0.0280
 3132DOPC   D2A36746  31.937  14.493  11.361  0.0834 -0.1627 -0.0826
 3132DOPC   C3A36747  32.195  14.438  11.717 -0.0036 -0.1413 -0.1677
 3132DOPC   C4A36748  32.492  14.178  11.978  0.3247  0.1156 -0.0353
 3132DOPC   C1B36749  31.331  14.545  11.410  0.0157 -0.4688  0.1782
 3132DOPC   D2B36750  31.596  14.457  11.807  0.1846  0.6208  0.3083
 3132DOPC   C3B36751  31.279  14.336  12.098 -0.1997 -0.0302 -0.0830
 3132DOPC   C4B36752  31.226  13.922  12.281 -0.4538  0.1838 -0.0320
 3133DOPE   NH336753  30.672  13.039  10.889  0.0938  0.1049 -0.1008
 3133DOPE   PO436754  30.501  13.272  10.975 -0.0856 -0.2393 -0.0015
 3133DOPE   GL136755  30.373  13.147  11.288 -0.3460 -0.0757 -0.2152
 3133DOPE   GL236756  30.373  13.454  11.405  0.2057 -0.1043  0.3183
 3133DOPE   C1A36757  30.601  12.998  11.648 -0.0006 -0.3226  0.0010
 3133DOPE   D2A36758  30.656  12.795  12.065  0.0196 -0.0144 -0.0338
 3133DOPE   C3A36759  30.945  13.003  12.318  0.2194  0.1294  0.3062
 3133DOPE   C4A36760  31.282  13.237  12.175 -0.3097  0.0115  0.1068
 3133DOPE   C1B36761  30.190  13.428  11.842  0.0775 -0.2401 -0.1660
 3133DOPE   D2B36762  30.239  13.099  12.074 -0.0362 -0.0154 -0.2047
 3133DOPE   C3B36763  30.505  13.151  12.440  0.0731  0.2782 -0.2356
 3133DOPE   C4B36764  30.629  13.448  12.810  0.0289  0.3599 -0.1802
 3134DOPC   NC336765  24.725  15.915   9.666  0.1194 -0.2346 -0.0552
 3134DOPC   PO436766  24.659  15.571   9.505  0.0017 -0.3169 -0.0170
 3134DOPC   GL136767  24.658  15.482   9.893  0.3804 -0.2089 -0.0102
 3134DOPC   GL236768  24.404  15.584  10.022 -0.0535 -0.0319  0.0162
 3134DOPC   C1A36769  24.992  15.690  10.143  0.4846 -0.0177  0.1575
 3134DOPC   D2A36770  25.405  15.804  10.137  0.1994 -0.2010 -0.2919
 3134DOPC   C3A36771  25.549  15.987  10.546 -0.3500 -0.0895 -0.0751
 3134DOPC   C4A36772  25.884  16.104  10.915 -0.2533 -0.1326 -0.1981
 3134DOPC   C1B36773  24.638  15.572  10.468  0.2628 -0.2899  0.2133
 3134DOPC   D2B36774  24.719  15.532  10.912  0.1125 -0.2269  0.2224
 3134DOPC   C3B36775  24.853  15.891  11.149 -0.1546 -0.1283  0.1595
 3134DOPC   C4B36776  25.228  15.877  11.484 -0.1973  0.4311  0.0315
 3135DOPC   NC336777  29.849  24.251   9.792  0.1894 -0.0370 -0.1698
 3135DOPC   PO436778  30.089  24.267  10.085 -0.0665 -0.2265 -0.0015
 3135DOPC   GL136779  30.225  24.122  10.418  0.0779  0.1755 -0.5660
 3135DOPC   GL236780  30.288  24.276  10.666  0.0216 -0.0894  0.2971
 3135DOPC   C1A36781  30.112  23.803  10.756 -0.0416 -0.3162 -0.1654
 3135DOPC   D2A36782  29.955  23.706  11.242 -0.1564  0.3262 -0.1899
 3135DOPC   C3A36783  30.222  23.764  11.619  0.1431 -0.3169 -0.1169
 3135DOPC   C4A36784  30.455  24.037  11.934 -0.3207 -0.0071  0.1944
 3135DOPC   C1B36785  29.995  24.178  11.028 -0.3800  0.2070  0.4051
 3135DOPC   D2B36786  30.128  24.269  11.463  0.0540 -0.2260  0.3547
 3135DOPC   C3B36787  29.789  23.963  11.640  0.2136  0.1595 -0.0334
 3135DOPC   C4B36788  29.886  23.695  11.973  0.0653  0.4387 -0.1693
 3136POSM   NC336789  27.973  22.491   9.990 -0.0649 -0.2620  0.0757
 3136POSM   PO436790  28.215  22.355  10.240 -0.0059 -0.0931  0.1623
 3136POSM   AM136791  28.055  22.147  10.428  0.0426  0.3048  0.2191
 3136POSM   AM236792  27.950  22.207  10.698 -0.2814  0.2503 -0.0360
 3136POSM   T1A36793  28.091  21.759  10.766 -0.0831 -0.2026  0.0841
 3136POSM   C2A36794  27.970  21.391  11.008 -0.3311  0.0177  0.0910
 3136POSM   C3A36795  27.969  20.952  11.076 -0.3898 -0.2534  0.0770
 3136POSM   C1B36796  27.632  22.259  10.845 -0.1922 -0.0649 -0.0486
 3136POSM   D2B36797  27.229  22.310  11.066 -0.1753  0.1213  0.0314
 3136POSM   C3B36798  27.229  22.287  11.491  0.1271  0.1034  0.1663
 3136POSM   C4B36799  27.285  22.399  11.914 -0.2050 -0.1768 -0.0196
 3137DOPE   NH336800  28.728  15.423   9.846  0.0576 -0.1660  0.0464
 3137DOPE   PO436801  28.636  15.466  10.143 -0.1020  0.1548  0.1520
 3137DOPE   GL136802  28.786  15.280  10.393 -0.0739  0.1880 -0.0019
 3137DOPE   GL236803  28.540  15.081  10.428 -0.1842 -0.1571  0.2246
 3137DOPE   C1A36804  28.907  15.301  10.893 -0.2634  0.2869  0.1040
 3137DOPE   D2A36805  28.738  15.507  11.275 -0.1352  0.0505 -0.0566
 3137DOPE   C3A36806  28.973  15.761  11.559 -0.0480 -0.0128 -0.0467
 3137DOPE   C4A36807  29.183  16.211  11.546  0.0498  0.0021 -0.1751
 3137DOPE   C1B36808  28.438  15.033  10.883 -0.0993 -0.0272  0.0530
 3137DOPE   D2B36809  28.369  14.636  11.075 -0.0408  0.0593  0.1824
 3137DOPE   C3B36810  28.527  14.700  11.509  0.0427  0.5728  0.0761
 3137DOPE   C4B36811  28.905  14.759  11.794  0.4671  0.0248 -0.2042
 3138DOPS   CNO36812  29.874  13.557  10.746 -0.0942 -0.0953  0.0781
 3138DOPS   PO436813  30.243  13.628  10.765  0.2317 -0.0648 -0.0741
 3138DOPS   GL136814  30.066  13.791  11.117  0.0038 -0.2018  0.1879
 3138DOPS   GL236815  29.762  13.750  11.206 -0.1592 -0.0010 -0.1369
 3138DOPS   C1A36816  30.168  13.880  11.578 -0.0167 -0.2612 -0.0227
 3138DOPS   D2A36817  30.107  14.003  12.007  0.0688  0.0865  0.0317
 3138DOPS   C3A36818  29.746  14.033  12.358  0.2782  0.0613 -0.0578
 3138DOPS   C4A36819  29.741  14.376  12.731  0.0542  0.1921 -0.1378
 3138DOPS   C1B36820  29.694  13.505  11.601 -0.1132  0.1865  0.0021
 3138DOPS   D2B36821  29.533  13.618  12.043  0.2088 -0.2077  0.0703
 3138DOPS   C3B36822  29.368  14.125  12.088 -0.0514 -0.0580  0.3739
 3138DOPS   C4B36823  29.372  14.574  12.142  0.0707 -0.0196  0.1793
 3139DOPC   NC336824  29.195  25.976  10.579 -0.1520  0.0460  0.2262
 3139DOPC   PO436825  29.238  25.639  10.390  0.1706  0.3933  0.2743
 3139DOPC   GL136826  29.315  25.553  10.802 -0.2631  0.0820  0.0700
 3139DOPC   GL236827  29.587  25.468  10.752  0.1669 -0.0961 -0.2090
 3139DOPC   C1A36828  29.189  25.487  11.234 -0.2617  0.1638 -0.2786
 3139DOPC   D2A36829  29.160  25.681  11.659 -0.3308 -0.3208  0.0510
 3139DOPC   C3A36830  29.515  25.866  11.868  0.0551  0.3549 -0.2181
 3139DOPC   C4A36831  29.915  25.852  11.882  0.0719  0.1153  0.0865
 3139DOPC   C1B36832  29.667  25.407  11.179 -0.0112 -0.1565  0.0658
 3139DOPC   D2B36833  29.988  25.682  11.341 -0.1358  0.0427  0.0310
 3139DOPC   C3B36834  30.368  25.596  11.558 -0.2938 -0.1891  0.0240
 3139DOPC   C4B36835  30.504  25.732  12.016 -0.2511  0.1208  0.0095
 3140DOPE   NH336836  22.795  18.277   9.785 -0.0596  0.1153 -0.1899
 3140DOPE   PO436837  22.846  18.006   9.872 -0.0724 -0.1202  0.2035
 3140DOPE   GL136838  23.132  18.148  10.121  0.2828  0.0565  0.3986
 3140DOPE   GL236839  22.998  18.286  10.399 -0.1970  0.2430 -0.1932
 3140DOPE   C1A36840  23.489  17.997  10.417 -0.2064 -0.1529  0.1223
 3140DOPE   D2A36841  23.637  17.734  10.742  0.2826 -0.2656 -0.0967
 3140DOPE   C3A36842  23.675  17.786  11.260 -0.0099 -0.2364 -0.2623
 3140DOPE   C4A36843  23.774  17.920  11.687  0.0450 -0.0243 -0.2971
 3140DOPE   C1B36844  23.071  17.931  10.653 -0.1017 -0.0929  0.3685
 3140DOPE   D2B36845  22.935  17.496  10.564 -0.1568 -0.2257  0.1406
 3140DOPE   C3B36846  22.802  17.378  10.974  0.1282  0.2505 -0.1936
 3140DOPE   C4B36847  23.060  17.256  11.335  0.1755 -0.1706 -0.1554
 3141DOPE   NH336848  28.347  16.962  10.067 -0.2125 -0.1303 -0.1621
 3141DOPE   PO436849  28.248  16.641  10.067  0.3785  0.1248  0.0007
 3141DOPE   GL136850  28.131  16.751  10.449 -0.1778 -0.3972 -0.0647
 3141DOPE   GL236851  28.203  16.485  10.592  0.2406 -0.0294  0.0271
 3141DOPE   C1A36852  28.192  17.113  10.765  0.0349  0.0731  0.1285
 3141DOPE   D2A36853  28.260  17.292  11.191 -0.0602  0.0361  0.4510
 3141DOPE   C3A36854  27.992  16.967  11.521 -0.2221 -0.0551 -0.4353
 3141DOPE   C4A36855  27.596  16.614  11.541  0.0511 -0.1114 -0.1230
 3141DOPE   C1B36856  28.500  16.296  10.867  0.0769 -0.2065  0.0526
 3141DOPE   D2B36857  28.726  16.138  11.176 -0.0291 -0.1856 -0.0932
 3141DOPE   C3B36858  28.665  16.234  11.601 -0.1924 -0.0200 -0.1049
 3141DOPE   C4B36859  28.892  16.265  12.030  0.0992 -0.0106  0.0220
 3142POSM   NC336860  33.549  19.534  10.209 -0.2194 -0.0578 -0.0991
 3142POSM   PO436861  33.211  19.547   9.979  0.0318 -0.2019 -0.2383
 3142POSM   AM136862  33.078  19.420  10.272 -0.0139 -0.0561 -0.0144
 3142POSM   AM236863  33.192  19.222  10.437  0.1215  0.3696  0.1515
 3142POSM   T1A36864  32.909  19.579  10.650 -0.1542  0.1974 -0.3552
 3142POSM   C2A36865  32.986  19.511  11.108 -0.0735  0.2614  0.0380
 3142POSM   C3A36866  33.080  19.475  11.560 -0.4041 -0.1978 -0.1780
 3142POSM   C1B36867  33.342  19.410  10.671  0.0316  0.3435  0.2975
 3142POSM   D2B36868  33.505  19.473  11.085  0.0200 -0.2315 -0.0335
 3142POSM   C3B36869  33.769  19.126  11.173  0.3499 -0.3580  0.0748
 3142POSM   C4B36870  34.066  18.894  11.496 -0.0044 -0.0754  0.2911
 3143POSM   NC336871  31.720  26.263   9.293  0.3004  0.1527  0.0633
 3143POSM   PO436872  31.417  26.220   9.574 -0.2428  0.0162  0.3016
 3143POSM   AM136873  31.404  26.141   9.916 -0.1221  0.0357  0.3292
 3143POSM   AM236874  31.537  26.265  10.120 -0.0972  0.2508  0.1076
 3143POSM   T1A36875  31.081  26.076  10.306  0.1113  0.2904  0.1597
 3143POSM   C2A36876  30.963  25.768  10.694 -0.1830  0.2123 -0.1570
 3143POSM   C3A36877  30.773  25.642  11.156 -0.0311 -0.0861  0.0445
 3143POSM   C1B36878  31.782  26.178  10.341 -0.0495  0.3321 -0.0211
 3143POSM   D2B36879  32.116  26.169  10.620  0.0392  0.1645  0.4259
 3143POSM   C3B36880  32.077  26.496  10.949 -0.1359 -0.1154  0.0780
 3143POSM   C4B36881  32.002  26.926  11.042 -0.2098 -0.0198 -0.0770
 3144DOPC   NC336882  23.520  17.962   9.873  0.1014 -0.0814 -0.0752
 3144DOPC   PO436883  23.427  17.580   9.782 -0.0789 -0.2270  0.5984
 3144DOPC   GL136884  23.580  17.526  10.140  0.1215 -0.3657 -0.2127
 3144DOPC   GL236885  23.737  17.286   9.966 -0.1051 -0.2449  0.0192
 3144DOPC   C1A36886  23.384  17.329  10.541  0.2508  0.0820  0.1451
 3144DOPC   D2A36887  23.371  17.420  11.011  0.1334  0.1001  0.0368
 3144DOPC   C3A36888  23.781  17.328  11.259 -0.1191 -0.0997  0.0118
 3144DOPC   C4A36889  24.169  17.550  11.318  0.2441  0.0873 -0.0937
 3144DOPC   C1B36890  23.878  17.109  10.363  0.0330 -0.1247  0.3769
 3144DOPC   D2B36891  24.281  16.961  10.550 -0.0047 -0.3954 -0.0734
 3144DOPC   C3B36892  24.234  16.655  10.834  0.2196 -0.1188 -0.1472
 3144DOPC   C4B36893  24.344  16.673  11.258 -0.0876 -0.1240  0.0196
 3145DOPC   NC336894  27.866  23.023  10.716  0.4752  0.0024  0.0624
 3145DOPC   PO436895  28.076  22.878  10.398  0.0262 -0.0152  0.1621
 3145DOPC   GL136896  28.254  22.621  10.693 -0.0702 -0.3335  0.2626
 3145DOPC   GL236897  28.019  22.604  10.922 -0.1787 -0.0393  0.0156
 3145DOPC   C1A36898  28.455  22.774  11.122  0.1502 -0.0395 -0.0444
 3145DOPC   D2A36899  28.480  23.157  11.433  0.1577 -0.2130  0.1980
 3145DOPC   C3A36900  28.238  23.338  11.747  0.0433  0.0914 -0.2319
 3145DOPC   C4A36901  28.143  23.316  12.220 -0.1321  0.0570  0.0047
 3145DOPC   C1B36902  27.696  22.650  11.263  0.2135  0.1905  0.0173
 3145DOPC   D2B36903  27.431  22.838  11.583 -0.0491 -0.2308  0.0042
 3145DOPC   C3B36904  27.441  23.195  11.956  0.0207  0.0699 -0.1193
 3145DOPC   C4B36905  27.579  23.375  12.383 -0.0923 -0.3908  0.2870
 3146DOPC   NC336906  29.553  17.614   9.766 -0.0133  0.1517  0.4890
 3146DOPC   PO436907  29.706  17.631  10.149 -0.2267  0.1201  0.4130
 3146DOPC   GL136908  30.035  17.675  10.366 -0.2776  0.2187  0.1026
 3146DOPC   GL236909  30.257  17.532  10.267  0.1383  0.0557 -0.0035
 3146DOPC   C1A36910  29.951  17.938  10.714 -0.0626  0.0695 -0.0606
 3146DOPC   D2A36911  29.889  18.081  11.144  0.1144 -0.2180 -0.0852
 3146DOPC   C3A36912  30.154  18.012  11.546 -0.1137 -0.1366  0.2792
 3146DOPC   C4A36913  30.480  18.206  11.668 -0.1135 -0.3227  0.0550
 3146DOPC   C1B36914  30.241  17.456  10.700  0.0305  0.1022 -0.3116
 3146DOPC   D2B36915  30.418  17.155  11.027 -0.2891  0.0192  0.1258
 3146DOPC   C3B36916  30.678  16.739  11.162 -0.2082 -0.0009 -0.0973
 3146DOPC   C4B36917  30.564  16.345  11.396  0.3076  0.2004 -0.2455
 3147POSM   NC336918  27.228  15.749   9.817  0.1289  0.0104 -0.1544
 3147POSM   PO436919  27.075  15.405   9.713 -0.0658 -0.0509 -0.1788
 3147POSM   AM136920  27.016  15.174   9.927  0.1403  0.0565 -0.0524
 3147POSM   AM236921  27.056  14.885  10.057 -0.1340 -0.0528  0.1170
 3147POSM   T1A36922  26.739  15.108  10.364 -0.1253 -0.0285 -0.0384
 3147POSM   C2A36923  26.678  14.750  10.697  0.2406 -0.3485 -0.2396
 3147POSM   C3A36924  26.673  14.750  11.122 -0.1789 -0.1427  0.2237
 3147POSM   C1B36925  27.267  14.838  10.295  0.0474 -0.1940 -0.0586
 3147POSM   D2B36926  27.556  14.796  10.655 -0.1194 -0.3248 -0.0567
 3147POSM   C3B36927  27.479  14.768  11.124 -0.0329  0.1467  0.0588
 3147POSM   C4B36928  27.466  15.009  11.531  0.0209 -0.6415 -0.2040
 3148DOPC   NC336929  23.126  20.416  10.457  0.0069  0.1835 -0.0542
 3148DOPC   PO436930  23.431  20.627  10.342  0.1838  0.3038 -0.1918
 3148DOPC   GL136931  23.424  20.797  10.734  0.1254  0.1717  0.0888
 3148DOPC   GL236932  23.158  20.971  10.691 -0.1300  0.0371 -0.1436
 3148DOPC   C1A36933  23.490  21.169  10.995 -0.1668  0.0407 -0.0034
 3148DOPC   D2A36934  23.796  21.124  11.353  0.1773 -0.0586  0.0077
 3148DOPC   C3A36935  23.862  20.740  11.667 -0.3477  0.0316  0.1151
 3148DOPC   C4A36936  23.977  20.449  11.972 -0.3285 -0.0151 -0.1402
 3148DOPC   C1B36937  23.043  20.782  11.069  0.1545  0.0749  0.1317
 3148DOPC   D2B36938  23.074  20.630  11.454  0.0544 -0.4218  0.4426
 3148DOPC   C3B36939  23.341  20.722  11.816 -0.0562 -0.2416 -0.1636
 3148DOPC   C4B36940  23.727  20.833  12.125 -0.2028  0.1566  0.0427
 3149POSM   NC336941  30.085  17.834   9.909 -0.1721  0.2165  0.0050
 3149POSM   PO436942  30.028  18.206   9.904  0.0722 -0.1750 -0.1474
 3149POSM   AM136943  30.170  18.164  10.173 -0.0003 -0.2361  0.2634
 3149POSM   AM236944  30.366  18.047  10.303 -0.2120 -0.1552  0.3224
 3149POSM   T1A36945  30.173  18.366  10.625 -0.0689  0.0494 -0.0965
 3149POSM   C2A36946  30.387  18.822  10.701 -0.0364  0.0627  0.1447
 3149POSM   C3A36947  30.784  18.914  10.736  0.2379 -0.0188  0.1352
 3149POSM   C1B36948  30.488  17.935  10.589 -0.2347 -0.2506  0.2244
 3149POSM   D2B36949  30.408  17.951  11.011 -0.0152  0.1627  0.2255
 3149POSM   C3B36950  30.204  17.609  11.203 -0.1568  0.1430  0.0995
 3149POSM   C4B36951  30.126  17.409  11.596  0.1818  0.1922 -0.0109
 3150DOPS   CNO36952  32.655  14.172   9.751  0.0687 -0.0340 -0.1109
 3150DOPS   PO436953  32.372  14.134  10.031 -0.0406  0.2248 -0.3328
 3150DOPS   GL136954  32.632  14.343  10.352 -0.0193  0.0978  0.1849
 3150DOPS   GL236955  32.556  14.576  10.370 -0.0152  0.1106  0.0907
 3150DOPS   C1A36956  32.674  14.244  10.773 -0.0202  0.1782  0.0200
 3150DOPS   D2A36957  32.961  14.337  11.129  0.0044  0.1047  0.0662
 3150DOPS   C3A36958  32.933  14.093  11.537  0.1494 -0.7226 -0.0950
 3150DOPS   C4A36959  32.947  14.383  11.905 -0.0803  0.1774 -0.2097
 3150DOPS   C1B36960  32.544  14.786  10.762  0.2408  0.1819 -0.0349
 3150DOPS   D2B36961  32.427  15.025  11.115  0.0010  0.0439  0.2578
 3150DOPS   C3B36962  32.352  15.467  11.273  0.0825 -0.2171  0.0857
 3150DOPS   C4B36963  32.258  15.648  11.674  0.1664  0.1012 -0.1419
 3151DOPC   NC336964  23.949  15.738   9.786  0.1719  0.2305  0.0640
 3151DOPC   PO436965  23.593  15.701  10.050 -0.1060  0.1879 -0.0062
 3151DOPC   GL136966  23.428  15.959  10.240  0.0273 -0.1359  0.2930
 3151DOPC   GL236967  23.144  16.047  10.244  0.0604  0.4963 -0.0132
 3151DOPC   C1A36968  23.562  16.132  10.605  0.1689 -0.1028 -0.0048
 3151DOPC   D2A36969  23.644  16.238  11.012 -0.0186  0.0047 -0.0012
 3151DOPC   C3A36970  23.854  16.275  11.409  0.0136 -0.1778  0.0873
 3151DOPC   C4A36971  23.977  16.588  11.670  0.3632 -0.1553  0.2106
 3151DOPC   C1B36972  23.100  16.368  10.578  0.0861 -0.3201  0.0101
 3151DOPC   D2B36973  23.328  16.601  10.986  0.4144  0.2060 -0.1634
 3151DOPC   C3B36974  23.202  16.426  11.366  0.2609  0.2198  0.0995
 3151DOPC   C4B36975  23.174  16.034  11.545  0.3240 -0.0796 -0.0327
 3152DOPS   CNO36976  24.137  21.319  10.305 -0.0278  0.0576 -0.2416
 3152DOPS   PO436977  24.310  21.143  10.600  0.2563 -0.0097  0.2690
 3152DOPS   GL136978  24.417  20.878  10.862  0.1440 -0.0487  0.1108
 3152DOPS   GL236979  24.696  21.033  10.935 -0.0199  0.0508  0.0243
 3152DOPS   C1A36980  24.192  20.843  11.267 -0.0290 -0.0110  0.0425
 3152DOPS   D2A36981  24.185  21.130  11.667 -0.2151 -0.3243 -0.1462
 3152DOPS   C3A36982  24.214  21.104  12.104 -0.1085 -0.2168 -0.0966
 3152DOPS   C4A36983  24.073  20.913  12.512  0.2701 -0.2274 -0.1201
 3152DOPS   C1B36984  24.750  20.970  11.411  0.2277 -0.1807  0.1573
 3152DOPS   D2B36985  24.662  21.011  11.876 -0.0130  0.3249 -0.0285
 3152DOPS   C3B36986  25.050  21.079  12.170 -0.1041 -0.1019  0.2034
 3152DOPS   C4B36987  25.488  21.010  12.303  0.1448 -0.1201  0.1102
 3153DOPE   NH336988  30.838  21.363   9.923 -0.0968 -0.2923  0.2972
 3153DOPE   PO436989  30.557  21.258   9.857  0.0891 -0.1343 -0.0598
 3153DOPE   GL136990  30.639  20.854  10.142  0.3096 -0.3668 -0.1577
 3153DOPE   GL236991  30.434  20.785  10.198  0.3456 -0.2047  0.0043
 3153DOPE   C1A36992  30.733  20.467  10.394 -0.2695  0.1414  0.1765
 3153DOPE   D2A36993  30.796  20.232  10.764  0.1243 -0.1653  0.1827
 3153DOPE   C3A36994  30.648  19.802  10.903 -0.0981 -0.1191 -0.1780
 3153DOPE   C4A36995  30.296  19.653  11.171  0.2209 -0.0198  0.1701
 3153DOPE   C1B36996  30.264  20.656  10.575 -0.2433  0.1196 -0.1628
 3153DOPE   D2B36997  30.232  20.921  10.970  0.1287 -0.2820  0.2351
 3153DOPE   C3B36998  30.197  20.677  11.391  0.0635 -0.0480  0.2364
 3153DOPE   C4B36999  29.901  20.615  11.692  0.0918  0.1417  0.2985
 3154DOPE   NH337000   0.013  13.523   9.925  0.1047 -0.0226  0.0002
 3154DOPE   PO437001  -0.220  13.309  10.043  0.1991 -0.0133 -0.0806
 3154DOPE   GL137002  -0.189  13.404  10.423 -0.3167  0.1647 -0.2051
 3154DOPE   GL237003  -0.138  13.663  10.423  0.1665  0.0562 -0.2268
 3154DOPE   C1A37004   0.013  13.258  10.824  0.2464  0.2888  0.0337
 3154DOPE   D2A37005   0.315  13.112  11.115 -0.0164  0.1815 -0.3336
 3154DOPE   C3A37006   0.190  12.823  11.497 -0.1815 -0.0680 -0.1503
 3154DOPE   C4A37007   0.150  12.923  11.968  0.0895 -0.4090  0.0260
 3154DOPE   C1B37008  -0.216  13.895  10.798 -0.1023  0.0615 -0.5605
 3154DOPE   D2B37009  -0.270  14.304  10.947 -0.1765  0.0225 -0.3790
 3154DOPE   C3B37010  -0.417  14.382  11.378  0.0087  0.2942 -0.1804
 3154DOPE   C4B37011  -0.129  14.477  11.720 -0.1826  0.1315  0.0203
 3155DOPE   NH337012  30.292  16.091  10.000 -0.0590  0.1570 -0.1123
 3155DOPE   PO437013  30.204  15.760   9.993  0.0016 -0.2030  0.3032
 3155DOPE   GL137014  30.148  15.600  10.373  0.2266 -0.1795 -0.1873
 3155DOPE   GL237015  30.284  15.387  10.534 -0.0106  0.0934 -0.0609
 3155DOPE   C1A37016  30.229  15.868  10.756  0.1362 -0.1066 -0.4019
 3155DOPE   D2A37017  30.231  16.065  11.167 -0.0065  0.0225  0.0809
 3155DOPE   C3A37018  30.577  15.782  11.370 -0.0602  0.0373 -0.0657
 3155DOPE   C4A37019  30.604  15.654  11.783 -0.4073 -0.0887 -0.0715
 3155DOPE   C1B37020  30.583  15.478  10.882 -0.2781 -0.2205  0.1979
 3155DOPE   D2B37021  30.874  15.781  10.722 -0.1117 -0.2840  0.0547
 3155DOPE   C3B37022  31.253  15.878  10.986  0.0310 -0.0375  0.1453
 3155DOPE   C4B37023  31.525  15.888  11.331  0.2799 -0.0746  0.1187
 3156DOPC   NC337024  27.987  12.764  10.408  0.2613 -0.0063 -0.1271
 3156DOPC   PO437025  28.349  12.827  10.473  0.0166 -0.0981  0.1381
 3156DOPC   GL137026  28.263  13.185  10.709  0.3931  0.2083  0.0972
 3156DOPC   GL237027  27.981  13.181  10.799  0.0309 -0.2624 -0.0901
 3156DOPC   C1A37028  28.360  13.253  11.157 -0.2026 -0.0661 -0.3038
 3156DOPC   D2A37029  28.215  13.331  11.616  0.2739 -0.0989  0.2458
 3156DOPC   C3A37030  27.788  13.456  11.610 -0.1891  0.1195 -0.2198
 3156DOPC   C4A37031  27.383  13.587  11.798 -0.1539 -0.2685 -0.0214
 3156DOPC   C1B37032  27.899  13.038  11.234 -0.1823  0.3457 -0.2397
 3156DOPC   D2B37033  27.873  12.972  11.723 -0.1349 -0.0080 -0.0319
 3156DOPC   C3B37034  28.138  13.019  12.089  0.0966  0.2630 -0.0060
 3156DOPC   C4B37035  28.290  13.312  12.372 -0.0518 -0.1600 -0.1111
 3157DOPS   CNO37036  34.187  19.684   9.339  0.0313 -0.1214 -0.0112
 3157DOPS   PO437037  33.940  19.812   9.560  0.2157  0.1340 -0.1345
 3157DOPS   GL137038  33.917  19.694  10.045 -0.0210  0.0286 -0.1888
 3157DOPS   GL237039  34.069  19.884  10.211 -0.2989  0.0675 -0.1653
 3157DOPS   C1A37040  34.092  19.482  10.429 -0.0049 -0.0291 -0.3400
 3157DOPS   D2A37041  34.013  19.090  10.718  0.0733  0.1831  0.2505
 3157DOPS   C3A37042  34.379  18.869  11.051 -0.2483 -0.1256  0.1492
 3157DOPS   C4A37043  34.614  18.597  11.316  0.2561 -0.6525 -0.1513
 3157DOPS   C1B37044  34.330  19.961  10.635  0.0908 -0.0091 -0.0232
 3157DOPS   D2B37045  34.043  20.053  11.013 -0.3607 -0.0959 -0.0157
 3157DOPS   C3B37046  33.950  19.711  11.309 -0.1695  0.0674 -0.0442
 3157DOPS   C4B37047  33.798  19.410  11.597  0.1553  0.2085  0.1939
 3158DOPS   CNO37048  32.149  20.443   9.993 -0.3911 -0.0218  0.2182
 3158DOPS   PO437049  31.836  20.548   9.819  0.0372  0.0964 -0.0452
 3158DOPS   GL137050  31.894  20.808  10.231  0.1969 -0.4079 -0.2760
 3158DOPS   GL237051  31.742  20.694  10.509  0.1646  0.1139  0.1231
 3158DOPS   C1A37052  31.828  21.189  10.477  0.1207  0.4354  0.1675
 3158DOPS   D2A37053  31.671  21.311  10.864  0.0104  0.2258 -0.1142
 3158DOPS   C3A37054  31.271  21.477  11.063  0.2847  0.0324 -0.3376
 3158DOPS   C4A37055  30.872  21.478  11.340  0.0922 -0.0451  0.1130
 3158DOPS   C1B37056  31.783  20.340  10.872  0.2069 -0.1471 -0.0006
 3158DOPS   D2B37057  31.588  20.245  11.252 -0.0652  0.0939  0.1958
 3158DOPS   C3B37058  31.260  20.167  11.588  0.2724 -0.0125  0.0875
 3158DOPS   C4B37059  30.925  20.324  11.822  0.1315 -0.3215  0.1982
 3159DOPC   NC337060  32.919  21.645  10.077 -0.1912  0.0009 -0.0090
 3159DOPC   PO437061  33.295  21.598  10.058 -0.2674  0.1648 -0.0437
 3159DOPC   GL137062  33.141  21.427  10.431  0.3367 -0.0814 -0.2550
 3159DOPC   GL237063  33.111  21.189  10.407  0.2850  0.1638 -0.3180
 3159DOPC   C1A37064  33.215  21.278  10.855  0.2908 -0.0880 -0.1532
 3159DOPC   D2A37065  33.097  21.315  11.340 -0.0089  0.0796  0.4985
 3159DOPC   C3A37066  32.940  21.505  11.754  0.1836  0.1769  0.1588
 3159DOPC   C4A37067  32.747  21.558  12.186 -0.0142 -0.0015  0.2972
 3159DOPC   C1B37068  32.816  21.062  10.694 -0.0782  0.0167 -0.2798
 3159DOPC   D2B37069  32.348  21.182  10.769  0.0338  0.3223 -0.0444
 3159DOPC   C3B37070  32.045  21.061  11.122 -0.2894 -0.2015  0.3042
 3159DOPC   C4B37071  31.630  20.817  11.145  0.2140 -0.1796 -0.1570
 3160DOPS   CNO37072  27.870  14.584   9.801  0.0882  0.4285 -0.1660
 3160DOPS   PO437073  28.239  14.522   9.884  0.0991  0.3746 -0.2755
 3160DOPS   GL137074  28.257  14.688  10.254  0.0397  0.1121  0.2745
 3160DOPS   GL237075  28.337  14.556  10.560 -0.0168 -0.3552 -0.0667
 3160DOPS   C1A37076  28.040  14.997  10.571  0.1012  0.0092 -0.0575
 3160DOPS   D2A37077  27.727  15.320  10.452 -0.0680  0.1398 -0.1102
 3160DOPS   C3A37078  27.606  15.725  10.665  0.0237  0.1052 -0.1848
 3160DOPS   C4A37079  27.413  15.910  11.081  0.0172 -0.0522  0.2713
 3160DOPS   C1B37080  28.004  14.443  10.782  0.3832  0.4508  0.0062
 3160DOPS   D2B37081  27.870  14.482  11.176  0.2206 -0.1698 -0.0337
 3160DOPS   C3B37082  27.909  14.713  11.562  0.0627  0.3318 -0.0412
 3160DOPS   C4B37083  27.965  15.167  11.669 -0.0846 -0.0103  0.0232
 3161DOPS   CNO37084  26.120  20.434   9.645  0.3942 -0.0970  0.1906
 3161DOPS   PO437085  26.321  20.425   9.952 -0.0829 -0.0203 -0.1943
 3161DOPS   GL137086  26.204  20.308  10.407  0.0122 -0.0184 -0.0855
 3161DOPS   GL237087  26.379  20.099  10.549 -0.1747 -0.0463  0.0393
 3161DOPS   C1A37088  25.990  20.359  10.802  0.1652  0.0860 -0.3415
 3161DOPS   D2A37089  25.975  20.695  11.177 -0.3137  0.2933  0.1237
 3161DOPS   C3A37090  26.212  20.632  11.492 -0.3208  0.1596 -0.0139
 3161DOPS   C4A37091  26.368  20.554  11.947  0.1198  0.2899  0.3892
 3161DOPS   C1B37092  26.782  19.939  10.707 -0.0360 -0.1991  0.0978
 3161DOPS   D2B37093  27.067  19.661  10.867 -0.1780  0.3395  0.1230
 3161DOPS   C3B37094  27.013  19.598  11.369  0.0678  0.3163 -0.1730
 3161DOPS   C4B37095  27.107  19.510  11.833 -0.1218 -0.0717  0.3037
 3162DOPC   NC337096  23.799  18.560   9.834 -0.0256 -0.0433  0.0645
 3162DOPC   PO437097  23.457  18.430   9.954  0.0841 -0.0173 -0.3814
 3162DOPC   GL137098  23.394  18.562  10.226  0.1248 -0.1243 -0.0454
 3162DOPC   GL237099  23.621  18.442  10.422 -0.1204 -0.3869  0.0072
 3162DOPC   C1A37100  23.234  18.743  10.591 -0.0248  0.1831 -0.2767
 3162DOPC   D2A37101  22.792  18.787  10.664  0.0101  0.0916 -0.0021
 3162DOPC   C3A37102  22.724  18.718  11.093  0.1518 -0.3060 -0.0101
 3162DOPC   C4A37103  22.343  18.938  11.166 -0.1759 -0.2234 -0.1280
 3162DOPC   C1B37104  23.879  18.655  10.702  0.4279  0.1080  0.0377
 3162DOPC   D2B37105  23.939  18.449  11.096 -0.0888  0.2096 -0.1612
 3162DOPC   C3B37106  23.612  18.322  11.364 -0.2802 -0.0661  0.1309
 3162DOPC   C4B37107  23.255  18.122  11.483  0.0182  0.0430 -0.3998
 3163DOPE   NH337108   2.574   8.783  10.144 -0.0889 -0.1699 -0.1444
 3163DOPE   PO437109   2.333   8.983  10.213  0.0359  0.1265 -0.2333
 3163DOPE   GL137110   2.146   9.119  10.478 -0.4800 -0.1564 -0.1941
 3163DOPE   GL237111   2.295   9.372  10.573  0.1036 -0.0057 -0.0568
 3163DOPE   C1A37112   1.779   9.101  10.748  0.2485 -0.2225  0.2325
 3163DOPE   D2A37113   1.745   9.138  11.194  0.3388 -0.0130 -0.4441
 3163DOPE   C3A37114   1.826   8.739  11.406 -0.1586 -0.2366 -0.0482
 3163DOPE   C4A37115   1.968   8.575  11.812  0.1159 -0.1743 -0.2441
 3163DOPE   C1B37116   2.293   9.631  10.929 -0.0236  0.1702  0.2136
 3163DOPE   D2B37117   2.397   9.964  11.175  0.0616  0.1140 -0.0380
 3163DOPE   C3B37118   2.688  10.080  11.468  0.0227 -0.1271  0.1924
 3163DOPE   C4B37119   2.687  10.405  11.813 -0.0980  0.2390 -0.0739
 3164DOPE   NH337120  24.338  22.749  10.677 -0.2459 -0.2080  0.2709
 3164DOPE   PO437121  24.023  22.830  10.589  0.1418 -0.0197  0.0335
 3164DOPE   GL137122  24.016  22.497  10.864  0.1064  0.0644  0.1198
 3164DOPE   GL237123  23.953  22.709  11.064 -0.2623  0.0782 -0.1743
 3164DOPE   C1A37124  24.392  22.496  11.117 -0.2110  0.1728 -0.0071
 3164DOPE   D2A37125  24.484  22.292  11.500 -0.2521  0.1607 -0.2100
 3164DOPE   C3A37126  24.580  21.919  11.324 -0.2299  0.1195 -0.1591
 3164DOPE   C4A37127  24.602  21.484  11.331 -0.0885  0.3176 -0.0939
 3164DOPE   C1B37128  24.198  22.718  11.514 -0.0563 -0.0167  0.0682
 3164DOPE   D2B37129  24.536  22.604  11.902  0.1379  0.1568  0.1613
 3164DOPE   C3B37130  24.816  22.802  12.244  0.1071 -0.0958  0.2963
 3164DOPE   C4B37131  25.211  23.038  12.298 -0.0052  0.0111  0.3494
 3165POSM   NC337132  31.381  12.041  10.814 -0.1351  0.2258 -0.5376
 3165POSM   PO437133  31.757  11.910  10.726  0.0439  0.1026 -0.0601
 3165POSM   AM137134  31.773  11.726  11.004  0.2154 -0.3928 -0.0531
 3165POSM   AM237135  31.746  11.429  11.075  0.5642  0.0824 -0.0044
 3165POSM   T1A37136  31.671  11.570  11.512 -0.0512  0.2264 -0.4074
 3165POSM   C2A37137  31.790  11.595  11.979  0.2021 -0.2111  0.0646
 3165POSM   C3A37138  31.999  11.591  12.375 -0.0487 -0.3269  0.0272
 3165POSM   C1B37139  31.964  11.216  11.185  0.1236  0.2876 -0.2155
 3165POSM   D2B37140  32.181  11.088  11.577  0.2272  0.1227  0.1106
 3165POSM   C3B37141  32.013  10.925  11.985  0.0120 -0.0287  0.2325
 3165POSM   C4B37142  32.043  10.611  12.256  0.1001  0.0040  0.1575
 3166DOPS   CNO37143  29.295  21.927   9.430 -0.0840  0.2428  0.1737
 3166DOPS   PO437144  29.209  21.840   9.797 -0.2752 -0.2226 -0.0498
 3166DOPS   GL137145  29.149  21.953  10.254  0.0443  0.0796  0.2336
 3166DOPS   GL237146  29.311  21.832  10.377  0.2717 -0.1093 -0.0622
 3166DOPS   C1A37147  29.250  22.273  10.582 -0.0332 -0.0055  0.2576
 3166DOPS   D2A37148  29.395  22.577  10.908  0.2769 -0.0712  0.2887
 3166DOPS   C3A37149  29.239  22.601  11.389 -0.0473  0.1699  0.1350
 3166DOPS   C4A37150  29.006  22.388  11.799 -0.1911  0.2382 -0.0142
 3166DOPS   C1B37151  29.380  21.661  10.816 -0.0225 -0.0216 -0.0556
 3166DOPS   D2B37152  29.052  21.448  11.028 -0.2040 -0.0988  0.1699
 3166DOPS   C3B37153  28.860  21.288  11.384 -0.3470 -0.0777 -0.1968
 3166DOPS   C4B37154  28.618  21.272  11.782  0.0992 -0.0162  0.0029
 3167DOPC   NC337155  30.418  12.218  10.897 -0.1901  0.1512 -0.1052
 3167DOPC   PO437156  30.569  12.561  10.760 -0.3129  0.1759  0.3191
 3167DOPC   GL137157  30.762  12.403  11.130  0.3707  0.3524  0.0840
 3167DOPC   GL237158  30.630  12.211  11.337 -0.0414 -0.1028  0.3763
 3167DOPC   C1A37159  30.979  12.831  11.294 -0.0595  0.0108 -0.1947
 3167DOPC   D2A37160  30.991  13.279  11.422 -0.1084 -0.0563 -0.0009
 3167DOPC   C3A37161  30.798  13.649  11.630  0.0479  0.0653  0.0250
 3167DOPC   C4A37162  30.681  14.118  11.485 -0.1140  0.0028 -0.2730
 3167DOPC   C1B37163  30.835  11.855  11.596 -0.0648 -0.0099 -0.5682
 3167DOPC   D2B37164  30.787  11.471  11.795 -0.0039  0.1590  0.0189
 3167DOPC   C3B37165  31.006  11.060  11.937 -0.3623 -0.1698  0.1403
 3167DOPC   C4B37166  30.947  10.607  11.806  0.1430 -0.0255  0.0765
 3168DOPE   NH337167  24.285  14.476   9.667 -0.2123  0.1791  0.0357
 3168DOPE   PO437168  24.300  14.806   9.619  0.1644  0.1451 -0.0326
 3168DOPE   GL137169  24.364  14.939  10.016  0.5293  0.2159 -0.1424
 3168DOPE   GL237170  24.385  14.776  10.246  0.2236  0.0057  0.2156
 3168DOPE   C1A37171  24.278  15.258  10.343 -0.0186  0.3183 -0.2619
 3168DOPE   D2A37172  24.103  15.213  10.751  0.2276 -0.0080  0.1470
 3168DOPE   C3A37173  23.719  14.973  10.885  0.2731  0.0014 -0.2515
 3168DOPE   C4A37174  23.471  14.618  11.129  0.0034 -0.2070 -0.1661
 3168DOPE   C1B37175  24.297  14.777  10.723  0.0436  0.2293 -0.0588
 3168DOPE   D2B37176  24.412  14.949  11.161 -0.3775 -0.0548 -0.2031
 3168DOPE   C3B37177  24.448  15.212  11.618 -0.1088 -0.2171  0.3556
 3168DOPE   C4B37178  24.497  15.176  12.063  0.2149  0.0234 -0.0547
 3169DOPS   CNO37179  29.818  11.641  10.582  0.0558  0.0720  0.0079
 3169DOPS   PO437180  29.942  11.833  10.860 -0.1559  0.0895 -0.0105
 3169DOPS   GL137181  30.007  11.814  11.252  0.2656  0.0017 -0.0551
 3169DOPS   GL237182  30.277  11.883  11.269  0.2384  0.1267  0.1891
 3169DOPS   C1A37183  29.907  11.612  11.654 -0.1019 -0.1616 -0.1644
 3169DOPS   D2A37184  29.693  11.654  12.050 -0.0620 -0.2685  0.2164
 3169DOPS   C3A37185  29.696  11.494  12.513 -0.1013  0.0088  0.0569
 3169DOPS   C4A37186  29.548  11.549  12.887 -0.0668 -0.2106 -0.1879
 3169DOPS   C1B37187  30.268  12.072  11.663  0.3843  0.1589 -0.0066
 3169DOPS   D2B37188  30.187  11.800  12.090  0.2492 -0.0098 -0.3281
 3169DOPS   C3B37189  30.522  11.604  12.372 -0.0621  0.3049  0.0161
 3169DOPS   C4B37190  30.582  11.497  12.835  0.2435  0.1639  0.0905
 3170DOPS   CNO37191  31.141  22.824   9.805  0.1593  0.0010  0.0979
 3170DOPS   PO437192  31.458  22.668   9.955 -0.1862 -0.2013  0.0465
 3170DOPS   GL137193  31.319  22.646  10.326 -0.4860 -0.0851  0.1833
 3170DOPS   GL237194  31.233  22.920  10.315  0.0765  0.0146 -0.3615
 3170DOPS   C1A37195  31.649  22.736  10.659 -0.1659  0.1513 -0.2175
 3170DOPS   D2A37196  32.067  22.614  10.828  0.1825 -0.0988  0.1186
 3170DOPS   C3A37197  32.094  22.588  11.240 -0.1811 -0.2077 -0.1423
 3170DOPS   C4A37198  32.150  22.779  11.671 -0.1299 -0.1916  0.1938
 3170DOPS   C1B37199  31.131  22.889  10.728 -0.1385 -0.0980  0.0904
 3170DOPS   D2B37200  30.874  23.224  10.944 -0.1413 -0.2693  0.0887
 3170DOPS   C3B37201  30.945  23.580  11.151  0.2657  0.2003 -0.3692
 3170DOPS   C4B37202  31.139  24.008  11.125 -0.1475  0.4350 -0.2195
 3171DOPE   NH337203  23.201  21.767   9.960 -0.0027 -0.1081  0.1191
 3171DOPE   PO437204  23.388  21.625  10.145 -0.0816  0.1685  0.1403
 3171DOPE   GL137205  23.374  21.730  10.558  0.0035 -0.1305 -0.2884
 3171DOPE   GL237206  23.293  21.453  10.668 -0.3163 -0.2326 -0.0439
 3171DOPE   C1A37207  23.388  21.877  11.037 -0.1469  0.4215 -0.0891
 3171DOPE   D2A37208  23.641  21.727  11.422  0.1082 -0.1733 -0.1696
 3171DOPE   C3A37209  23.542  21.659  11.921  0.0018 -0.2448  0.3461
 3171DOPE   C4A37210  23.430  21.755  12.355 -0.0531 -0.1812  0.2225
 3171DOPE   C1B37211  23.757  21.534  10.815  0.3371  0.1981  0.1753
 3171DOPE   D2B37212  24.114  21.521  11.045 -0.2709 -0.0044 -0.1598
 3171DOPE   C3B37213  24.160  21.684  11.500 -0.0942 -0.0775  0.0182
 3171DOPE   C4B37214  24.138  21.766  11.960 -0.3005 -0.0445  0.2504
 3172DOPE   NH337215  27.322  16.662  10.244  0.0638  0.0321  0.1393
 3172DOPE   PO437216  27.339  16.839  10.497 -0.0825 -0.1062 -0.0112
 3172DOPE   GL137217  27.530  16.698  10.843 -0.4098  0.1811  0.3607
 3172DOPE   GL237218  27.785  16.736  10.719  0.0599 -0.0395 -0.2720
 3172DOPE   C1A37219  27.380  16.387  11.158  0.1301 -0.3092 -0.0660
 3172DOPE   D2A37220  27.079  16.135  11.367  0.0472  0.0976 -0.0440
 3172DOPE   C3A37221  27.092  16.377  11.820 -0.3062 -0.3287  0.2915
 3172DOPE   C4A37222  27.069  16.539  12.266 -0.1718  0.2214  0.1680
 3172DOPE   C1B37223  27.745  17.033  11.081  0.0794  0.0017  0.2340
 3172DOPE   D2B37224  27.758  17.419  11.327 -0.3997  0.1460 -0.0734
 3172DOPE   C3B37225  27.811  17.402  11.767  0.5116  0.1475  0.1341
 3172DOPE   C4B37226  27.854  17.182  12.195  0.5128  0.2222  0.1463
 3173POSM   NC337227   2.092   8.003  10.183 -0.0973 -0.1798 -0.1193
 3173POSM   PO437228   1.742   7.841  10.188 -0.0865  0.0194  0.0256
 3173POSM   AM137229   1.730   7.754  10.517  0.1895 -0.2209  0.2147
 3173POSM   AM237230   1.831   7.893  10.703 -0.0433 -0.0515 -0.6917
 3173POSM   T1A37231   1.572   7.510  10.908  0.0016  0.2665 -0.0355
 3173POSM   C2A37232   1.252   7.392  11.169  0.1223  0.2239  0.1770
 3173POSM   C3A37233   1.043   6.968  11.148 -0.0380  0.0168 -0.1104
 3173POSM   C1B37234   1.876   8.141  10.962  0.0061 -0.1452 -0.0334
 3173POSM   D2B37235   2.107   8.292  11.369 -0.2878  0.0037 -0.1670
 3173POSM   C3B37236   2.577   8.206  11.415 -0.4788 -0.2321  0.1504
 3173POSM   C4B37237   2.930   8.004  11.253  0.2368  0.1688 -0.3938
 3174DOPC   NC337238  31.942  17.043   9.817 -0.2540  0.0926 -0.2020
 3174DOPC   PO437239  31.720  17.288  10.018  0.0180  0.0461 -0.0808
 3174DOPC   GL137240  31.635  17.372  10.437 -0.2993  0.1023  0.2135
 3174DOPC   GL237241  31.513  17.233  10.573 -0.0101  0.1882 -0.0309
 3174DOPC   C1A37242  31.774  17.460  10.907  0.0745 -0.0041  0.2606
 3174DOPC   D2A37243  32.087  17.418  11.260  0.0309 -0.1467 -0.0901
 3174DOPC   C3A37244  32.300  17.693  11.627  0.1782 -0.2120  0.1010
 3174DOPC   C4A37245  32.685  17.801  11.568  0.0401 -0.1583 -0.3007
 3174DOPC   C1B37246  31.229  17.531  10.669  0.1618  0.1420  0.0874
 3174DOPC   D2B37247  30.841  17.697  10.969 -0.0922  0.0387 -0.1353
 3174DOPC   C3B37248  30.669  17.690  11.464 -0.2450 -0.3128  0.1378
 3174DOPC   C4B37249  30.430  17.689  11.879  0.2917 -0.0390 -0.0328
 3175DOPC   NC337250  26.039  19.035  10.524  0.3246  0.2093  0.0367
 3175DOPC   PO437251  26.102  18.894  10.104  0.1395  0.1075 -0.0714
 3175DOPC   GL137252  26.434  18.959  10.334  0.3219  0.2509 -0.0460
 3175DOPC   GL237253  26.474  18.715  10.449  0.0288 -0.0928 -0.1509
 3175DOPC   C1A37254  26.539  19.338  10.563 -0.1901 -0.0818 -0.2022
 3175DOPC   D2A37255  26.557  19.587  10.921  0.0149  0.0218 -0.0851
 3175DOPC   C3A37256  26.225  19.670  11.236  0.0113 -0.0453  0.2130
 3175DOPC   C4A37257  26.001  19.768  11.622 -0.1111 -0.0864 -0.0984
 3175DOPC   C1B37258  26.418  18.811  10.850 -0.1762  0.6888 -0.0242
 3175DOPC   D2B37259  26.650  18.963  11.195 -0.1140  0.0276 -0.2284
 3175DOPC   C3B37260  26.653  19.348  11.424  0.0796  0.0904 -0.0791
 3175DOPC   C4B37261  26.476  19.656  11.673 -0.1814 -0.1608 -0.4292
 3176DOPE   NH337262  30.612  24.880  10.027 -0.2859 -0.0389  0.0751
 3176DOPE   PO437263  30.698  25.151  10.156 -0.1415  0.1534  0.2309
 3176DOPE   GL137264  30.468  25.199  10.456 -0.0698 -0.0859 -0.0918
 3176DOPE   GL237265  30.683  25.359  10.679  0.2798  0.1058 -0.1684
 3176DOPE   C1A37266  30.338  24.899  10.816  0.2223 -0.1826  0.1481
 3176DOPE   D2A37267  30.494  24.515  11.124  0.1379  0.0469  0.0059
 3176DOPE   C3A37268  30.661  24.344  11.530  0.3924  0.1444  0.1194
 3176DOPE   C4A37269  30.930  24.170  11.878 -0.3000 -0.1297 -0.1350
 3176DOPE   C1B37270  30.464  25.729  10.817  0.1134 -0.0114  0.1395
 3176DOPE   D2B37271  30.344  25.961  11.232 -0.2614  0.0559  0.0387
 3176DOPE   C3B37272  30.344  26.083  11.693  0.0264  0.0737  0.0359
 3176DOPE   C4B37273  30.230  26.545  11.795 -0.0844 -0.1818  0.0550
 3177POSM   NC337274  33.503  25.347   9.088 -0.1701  0.0156 -0.0983
 3177POSM   PO437275  33.237  25.148   9.318 -0.0672 -0.0172  0.1445
 3177POSM   AM137276  33.087  25.223   9.578 -0.4428 -0.0003  0.2341
 3177POSM   AM237277  33.057  25.409   9.781  0.0075  0.2461  0.2543
 3177POSM   T1A37278  32.940  24.958   9.997 -0.1406 -0.0984  0.1709
 3177POSM   C2A37279  32.813  24.505  10.050 -0.1029  0.2281  0.0788
 3177POSM   C3A37280  32.427  24.363   9.877 -0.3015 -0.0490 -0.4557
 3177POSM   C1B37281  33.197  25.547  10.016 -0.1731  0.1394 -0.0438
 3177POSM   D2B37282  33.245  25.714  10.432 -0.0462 -0.1568  0.1115
 3177POSM   C3B37283  33.151  25.447  10.781  0.0469 -0.0817 -0.1332
 3177POSM   C4B37284  33.222  25.057  10.959 -0.1709  0.0428  0.3315
 3178DOPE   NH337285  29.220  15.936  10.272  0.0060  0.0746  0.2236
 3178DOPE   PO437286  28.934  15.883  10.201  0.1464  0.1373 -0.1578
 3178DOPE   GL137287  28.694  15.799  10.528 -0.2344  0.1883  0.0948
 3178DOPE   GL237288  28.917  15.998  10.709 -0.0672  0.1559 -0.0058
 3178DOPE   C1A37289  28.521  15.750  10.929  0.1724  0.0805 -0.4740
 3178DOPE   D2A37290  28.244  15.654  11.338  0.0606  0.0633 -0.0181
 3178DOPE   C3A37291  28.394  15.576  11.773 -0.3006  0.2938 -0.3391
 3178DOPE   C4A37292  28.253  15.548  12.215  0.1193 -0.0578 -0.0987
 3178DOPE   C1B37293  29.156  15.867  11.134 -0.0195 -0.0549  0.2725
 3178DOPE   D2B37294  29.452  15.806  11.481 -0.5128 -0.1703 -0.2125
 3178DOPE   C3B37295  29.734  16.057  11.810 -0.0293 -0.0600 -0.1804
 3178DOPE   C4B37296  30.173  16.333  11.810  0.0876  0.2248  0.0106
 3179DOPC   NC337297  31.923  15.552  10.403 -0.4564  0.0595  0.1688
 3179DOPC   PO437298  31.843  15.187  10.274  0.0735  0.0753  0.6081
 3179DOPC   GL137299  31.769  14.913  10.548  0.0548  0.0448  0.1490
 3179DOPC   GL237300  31.727  15.114  10.780 -0.1244 -0.0208  0.1984
 3179DOPC   C1A37301  32.068  14.703  10.878  0.1771  0.1147 -0.0146
 3179DOPC   D2A37302  32.399  14.462  11.148 -0.1673  0.4293 -0.0636
 3179DOPC   C3A37303  32.751  14.660  11.422  0.0885 -0.0643  0.1452
 3179DOPC   C4A37304  33.029  14.875  11.678 -0.0761  0.2933  0.1019
 3179DOPC   C1B37305  31.908  15.057  11.206 -0.0702 -0.1492 -0.0275
 3179DOPC   D2B37306  32.157  14.914  11.585  0.2638 -0.2197 -0.2008
 3179DOPC   C3B37307  32.160  14.800  12.036 -0.0589  0.0360 -0.2142
 3179DOPC   C4B37308  32.282  14.772  12.479 -0.0491  0.1042 -0.0579
 3180DOPS   CNO37309  25.380  15.143   9.225 -0.2542  0.2562 -0.1188
 3180DOPS   PO437310  25.548  15.288   9.537  0.1499 -0.0835 -0.0147
 3180DOPS   GL137311  25.427  15.086   9.853 -0.1818 -0.0827  0.0567
 3180DOPS   GL237312  25.324  15.211  10.102  0.4000 -0.2904 -0.0838
 3180DOPS   C1A37313  25.501  14.783  10.200  0.3016 -0.2389 -0.1296
 3180DOPS   D2A37314  25.408  14.334  10.244 -0.2258  0.0966  0.2281
 3180DOPS   C3A37315  24.953  14.254  10.282 -0.0769 -0.2712 -0.2463
 3180DOPS   C4A37316  24.648  14.486  10.556  0.2729 -0.3537  0.0472
 3180DOPS   C1B37317  25.157  15.233  10.516 -0.0561 -0.2192  0.1324
 3180DOPS   D2B37318  25.153  15.153  10.989 -0.2916  0.3605  0.3255
 3180DOPS   C3B37319  24.876  15.037  11.316  0.0459 -0.0693 -0.1910
 3180DOPS   C4B37320  24.720  14.779  11.656 -0.1225 -0.1862  0.2451
 3181DOPE   NH337321  26.536  22.865  10.042  0.1480  0.0295 -0.1493
 3181DOPE   PO437322  26.214  22.791  10.166 -0.0124  0.2381 -0.2086
 3181DOPE   GL137323  26.349  22.674  10.508  0.1210 -0.2285  0.0364
 3181DOPE   GL237324  26.580  22.961  10.498  0.1240  0.4674 -0.1271
 3181DOPE   C1A37325  26.791  22.502  10.701  0.2992 -0.1092  0.1435
 3181DOPE   D2A37326  27.218  22.522  10.481 -0.1271  0.0967 -0.0317
 3181DOPE   C3A37327  27.506  22.729  10.819  0.2133  0.2329 -0.0687
 3181DOPE   C4A37328  27.481  23.068  11.164 -0.2052 -0.0575 -0.2042
 3181DOPE   C1B37329  26.510  22.894  10.968  0.1281 -0.2496  0.0949
 3181DOPE   D2B37330  26.674  23.022  11.342 -0.3116  0.0607 -0.0446
 3181DOPE   C3B37331  26.892  22.723  11.668 -0.1197  0.1328  0.2535
 3181DOPE   C4B37332  26.945  22.760  12.142  0.1146 -0.0638  0.2341
 3182DOPE   NH337333  26.580  17.028  10.364  0.0210  0.0704  0.1174
 3182DOPE   PO437334  26.883  16.876  10.224  0.3584 -0.0157  0.2308
 3182DOPE   GL137335  26.909  17.101  10.674 -0.1461  0.0392 -0.0941
 3182DOPE   GL237336  26.935  16.807  10.827  0.1866 -0.0099  0.1618
 3182DOPE   C1A37337  26.905  17.254  11.113  0.3477 -0.3998  0.0133
 3182DOPE   D2A37338  26.691  17.379  11.473  0.2215 -0.0322  0.0904
 3182DOPE   C3A37339  26.921  17.091  11.655  0.0614 -0.1096 -0.2473
 3182DOPE   C4A37340  27.212  16.954  11.952 -0.0993 -0.0992  0.2915
 3182DOPE   C1B37341  26.514  16.742  10.805  0.0837  0.1799  0.0876
 3182DOPE   D2B37342  26.084  16.910  10.956 -0.0083  0.1715 -0.2113
 3182DOPE   C3B37343  25.898  16.837  11.403  0.0767  0.1629  0.0570
 3182DOPE   C4B37344  25.837  16.588  11.728 -0.2937  0.0120 -0.4318
 3183DOPS   CNO37345  30.883  23.844   9.505  0.1075  0.1560 -0.0995
 3183DOPS   PO437346  30.921  24.167   9.727 -0.2038  0.1362 -0.2212
 3183DOPS   GL137347  31.043  24.240  10.181 -0.0669  0.0168 -0.0959
 3183DOPS   GL237348  31.301  24.327  10.278  0.2285  0.0784 -0.1007
 3183DOPS   C1A37349  31.147  23.896  10.527  0.0926 -0.0211  0.1410
 3183DOPS   D2A37350  31.508  23.779  10.806  0.0006  0.2823 -0.0082
 3183DOPS   C3A37351  31.547  23.651  11.229 -0.0789  0.3012 -0.1873
 3183DOPS   C4A37352  31.870  23.499  11.540 -0.2347 -0.1881 -0.0876
 3183DOPS   C1B37353  31.262  24.320  10.736  0.0461  0.1197 -0.0528
 3183DOPS   D2B37354  31.063  24.496  11.024  0.1416  0.1285 -0.2609
 3183DOPS   C3B37355  31.124  24.596  11.457  0.1875 -0.0914  0.0313
 3183DOPS   C4B37356  31.320  24.838  11.777 -0.0323 -0.0492  0.0401
 3184DOPE   NH337357   0.557  14.180   9.882  0.0289  0.0325  0.0772
 3184DOPE   PO437358   0.452  14.455   9.917  0.2672  0.0178  0.2361
 3184DOPE   GL137359   0.277  14.473  10.217  0.1033 -0.1385  0.1026
 3184DOPE   GL237360   0.392  14.353  10.409 -0.2114  0.0381  0.1109
 3184DOPE   C1A37361   0.072  14.752  10.521  0.0261 -0.0836  0.2240
 3184DOPE   D2A37362  -0.242  14.996  10.722 -0.0195  0.0643  0.1461
 3184DOPE   C3A37363  -0.140  14.776  11.162 -0.0182  0.3157 -0.2467
 3184DOPE   C4A37364  -0.233  14.972  11.584  0.1507  0.0994  0.1823
 3184DOPE   C1B37365   0.320  14.403  10.900  0.0139 -0.0655  0.3263
 3184DOPE   D2B37366   0.067  14.375  11.278  0.0182 -0.2437  0.1132
 3184DOPE   C3B37367   0.255  14.033  11.518 -0.2457  0.1339 -0.1977
 3184DOPE   C4B37368   0.090  13.740  11.869 -0.0244 -0.3224 -0.0845
 3185DOPS   CNO37369  29.404  11.364  10.650 -0.0690  0.0635  0.1317
 3185DOPS   PO437370  29.327  11.293  10.972 -0.2804 -0.2308 -0.1268
 3185DOPS   GL137371  29.293  11.330  11.364  0.1528  0.0804 -0.1217
 3185DOPS   GL237372  29.024  11.379  11.411  0.1861 -0.0546  0.0886
 3185DOPS   C1A37373  29.571  11.266  11.776  0.1005  0.1218 -0.1794
 3185DOPS   D2A37374  29.650  11.043  12.199 -0.0685 -0.1573 -0.0853
 3185DOPS   C3A37375  29.342  10.888  12.519 -0.0150  0.0060 -0.1689
 3185DOPS   C4A37376  29.128  10.630  12.807  0.0190 -0.0746 -0.0071
 3185DOPS   C1B37377  29.079  11.337  11.862  0.1441 -0.0898  0.2333
 3185DOPS   D2B37378  29.275  11.371  12.239 -0.0857  0.0463  0.1261
 3185DOPS   C3B37379  29.172  11.592  12.583 -0.0848 -0.3833 -0.3202
 3185DOPS   C4B37380  29.075  11.523  13.068 -0.0481 -0.2947 -0.1077
 3186DOPS   CNO37381  34.127  11.564   9.974  0.0385  0.1834  0.2624
 3186DOPS   PO437382  34.389  11.425  10.242  0.3245 -0.2179 -0.4348
 3186DOPS   GL137383  34.494  11.617  10.642  0.2741 -0.0221 -0.1270
 3186DOPS   GL237384  34.396  11.379  10.801  0.2060  0.0574 -0.0779
 3186DOPS   C1A37385  34.881  11.738  10.862  0.1697  0.3303 -0.1684
 3186DOPS   D2A37386  35.369  11.766  10.948 -0.0980 -0.0976  0.0166
 3186DOPS   C3A37387  35.331  11.702  11.378 -0.2996  0.2601 -0.0877
 3186DOPS   C4A37388  35.039  11.431  11.642  0.2165  0.0902  0.0748
 3186DOPS   C1B37389  34.685  11.432  11.190 -0.0446  0.1571 -0.1815
 3186DOPS   D2B37390  34.843  11.793  11.367  0.1215 -0.1598  0.1911
 3186DOPS   C3B37391  35.017  11.941  11.738  0.0940 -0.1623 -0.0987
 3186DOPS   C4B37392  35.179  12.120  12.104  0.0437  0.0937 -0.0447
 3187DOPC   NC337393  29.431  10.788  11.198 -0.0181  0.1670  0.1898
 3187DOPC   PO437394  29.087  10.921  11.207 -0.0733 -0.2798  0.0493
 3187DOPC   GL137395  29.241  10.949  11.600 -0.3797 -0.0559  0.2831
 3187DOPC   GL237396  29.164  10.644  11.602  0.0730  0.4603  0.2516
 3187DOPC   C1A37397  29.121  10.905  12.072  0.1339 -0.0286  0.4062
 3187DOPC   D2A37398  28.811  10.786  12.377  0.1270  0.1909 -0.0400
 3187DOPC   C3A37399  28.826  10.363  12.534  0.0142 -0.0112 -0.1487
 3187DOPC   C4A37400  28.907   9.995  12.709  0.4041  0.2397 -0.0733
 3187DOPC   C1B37401  29.571  10.720  11.733 -0.1614 -0.0414 -0.1938
 3187DOPC   D2B37402  29.964  10.918  11.861  0.1586 -0.2347  0.0324
 3187DOPC   C3B37403  30.101  10.790  12.247 -0.0363 -0.1656  0.1065
 3187DOPC   C4B37404  30.100  10.687  12.656  0.2097  0.2119  0.2729
 3188DOPC   NC337405  31.482  19.339   9.843  0.0520 -0.3034  0.4032
 3188DOPC   PO437406  31.679  19.020   9.816 -0.0480  0.1683  0.0249
 3188DOPC   GL137407  31.587  18.964  10.162  0.1122 -0.0768 -0.4482
 3188DOPC   GL237408  31.566  18.674  10.205 -0.0871  0.1270 -0.0257
 3188DOPC   C1A37409  31.908  19.018  10.526  0.1596 -0.0161  0.0314
 3188DOPC   D2A37410  32.319  19.219  10.598  0.1938  0.0223 -0.1096
 3188DOPC   C3A37411  32.678  19.153  10.862 -0.0599  0.2834  0.0154
 3188DOPC   C4A37412  32.774  19.098  11.300  0.0575  0.0975 -0.1462
 3188DOPC   C1B37413  31.410  18.849  10.591  0.0916 -0.0437  0.5037
 3188DOPC   D2B37414  31.495  18.850  11.049 -0.1382 -0.1079 -0.0720
 3188DOPC   C3B37415  31.815  19.092  11.330  0.1913  0.2690 -0.0726
 3188DOPC   C4B37416  32.171  19.350  11.531  0.1767 -0.1769 -0.2472
 3189DOPE   NH337417  31.690  14.710  10.044  0.1524 -0.1251 -0.0622
 3189DOPE   PO437418  31.589  14.431  10.135 -0.1908  0.2384  0.3041
 3189DOPE   GL137419  31.586  14.516  10.563  0.2047  0.0232  0.2214
 3189DOPE   GL237420  31.667  14.241  10.632  0.0810 -0.2607 -0.2097
 3189DOPE   C1A37421  31.274  14.810  10.778 -0.1908  0.2507 -0.4089
 3189DOPE   D2A37422  31.028  14.904  11.098 -0.0173 -0.1298 -0.1216
 3189DOPE   C3A37423  30.889  15.382  11.286 -0.1183  0.0832  0.2825
 3189DOPE   C4A37424  31.072  15.744  11.485  0.1406  0.0865  0.3465
 3189DOPE   C1B37425  31.980  14.155  10.913  0.0259  0.1895 -0.5288
 3189DOPE   D2B37426  32.032  13.728  11.013  0.2635  0.3450 -0.3848
 3189DOPE   C3B37427  32.316  13.423  11.113 -0.1989 -0.1911 -0.1709
 3189DOPE   C4B37428  32.355  13.018  11.294  0.1133 -0.1512 -0.2370
 3190DOPC   NC337429  32.997  22.285   9.449  0.0415 -0.2295  0.1853
 3190DOPC   PO437430  32.855  22.512   9.720 -0.5470  0.1365 -0.2305
 3190DOPC   GL137431  32.669  22.870  10.030 -0.3255  0.1640  0.2988
 3190DOPC   GL237432  32.469  22.710  10.189 -0.2967  0.1061 -0.3481
 3190DOPC   C1A37433  32.689  23.234  10.351 -0.2269 -0.7428 -0.2078
 3190DOPC   D2A37434  32.890  23.623  10.460 -0.3600  0.1057  0.5558
 3190DOPC   C3A37435  32.713  24.000  10.676  0.0987 -0.3501  0.1868
 3190DOPC   C4A37436  32.684  24.409  10.611  0.4588  0.3644 -0.0296
 3190DOPC   C1B37437  32.208  23.086  10.343 -0.1209  0.2020 -0.1392
 3190DOPC   D2B37438  32.256  23.509  10.581 -0.4922 -0.0738 -0.0393
 3190DOPC   C3B37439  32.584  23.568  10.884  0.2219 -0.0491 -0.1638
 3190DOPC   C4B37440  33.008  23.671  10.903 -0.1896 -0.4016  0.1094
 3191POSM   NC337441  29.487  13.389  10.959 -0.0407  0.0355  0.2256
 3191POSM   PO437442  29.637  13.067  10.731  0.3333  0.0123 -0.1134
 3191POSM   AM137443  29.665  12.975  11.065  0.0903  0.0614 -0.0367
 3191POSM   AM237444  29.570  13.000  11.324 -0.1072  0.2908  0.1071
 3191POSM   T1A37445  29.854  12.606  11.445  0.1010  0.1719  0.3354
 3191POSM   C2A37446  29.825  12.605  11.909 -0.0478 -0.0121 -0.2005
 3191POSM   C3A37447  29.631  12.706  12.335 -0.1539  0.1864  0.4891
 3191POSM   C1B37448  29.307  13.173  11.437 -0.1320  0.1617  0.2380
 3191POSM   D2B37449  29.199  13.487  11.685 -0.1625  0.0064 -0.1987
 3191POSM   C3B37450  29.227  13.914  11.640  0.3727 -0.0401 -0.1005
 3191POSM   C4B37451  29.212  14.402  11.692 -0.1547  0.0186  0.1738
 3192DOPC   NC337452  27.915  19.972  10.208  0.3640  0.1100 -0.1421
 3192DOPC   PO437453  27.993  20.314   9.971 -0.1218 -0.1388  0.4164
 3192DOPC   GL137454  27.808  20.364  10.399 -0.1236 -0.3099  0.2517
 3192DOPC   GL237455  27.703  20.625  10.394  0.0836 -0.2322 -0.0296
 3192DOPC   C1A37456  27.810  20.140  10.860  0.0804 -0.0732 -0.1239
 3192DOPC   D2A37457  28.033  19.947  11.196  0.1348 -0.0291 -0.1693
 3192DOPC   C3A37458  27.962  19.953  11.646 -0.2301 -0.1937 -0.0531
 3192DOPC   C4A37459  28.195  19.978  12.082 -0.1782  0.0554  0.0164
 3192DOPC   C1B37460  27.559  20.918  10.748  0.1573 -0.1900 -0.2350
 3192DOPC   D2B37461  27.533  20.757  11.159 -0.0400 -0.0439 -0.0321
 3192DOPC   C3B37462  27.641  20.807  11.636  0.0219  0.3775  0.1512
 3192DOPC   C4B37463  27.518  20.692  12.165  0.1358 -0.2600  0.0017
 3193DOPC   NC337464  31.941  22.482   9.944  0.1220 -0.0932  0.0614
 3193DOPC   PO437465  32.190  22.299   9.747  0.1156 -0.0596 -0.2223
 3193DOPC   GL137466  32.341  22.236  10.088  0.1035 -0.2926 -0.2898
 3193DOPC   GL237467  32.128  22.019  10.178  0.2086 -0.0792 -0.2203
 3193DOPC   C1A37468  32.473  22.354  10.537  0.2405  0.1769  0.0166
 3193DOPC   D2A37469  32.502  22.848  10.738 -0.2812 -0.1740 -0.0535
 3193DOPC   C3A37470  32.747  22.856  11.201  0.1257  0.0917  0.0334
 3193DOPC   C4A37471  32.609  23.038  11.643 -0.0658 -0.0274 -0.0542
 3193DOPC   C1B37472  32.001  22.108  10.631  0.1119  0.2240 -0.1773
 3193DOPC   D2B37473  32.157  22.138  11.077  0.0444 -0.1447  0.2610
 3193DOPC   C3B37474  32.523  22.425  11.119 -0.1332  0.1398 -0.0682
 3193DOPC   C4B37475  32.958  22.341  11.241  0.1751  0.2866  0.2501
 3194DOPE   NH337476  25.029  22.426  10.477 -0.0553  0.1890 -0.0252
 3194DOPE   PO437477  24.854  22.718  10.535 -0.1047 -0.0750 -0.1223
 3194DOPE   GL137478  24.724  22.563  10.833  0.1113  0.0386  0.0637
 3194DOPE   GL237479  25.041  22.448  10.971 -0.2294  0.3100  0.3010
 3194DOPE   C1A37480  24.738  22.066  10.896  0.3712  0.3201 -0.0244
 3194DOPE   D2A37481  25.066  21.827  11.090 -0.3233  0.2003  0.3378
 3194DOPE   C3A37482  24.968  21.753  11.588 -0.2054 -0.2920 -0.0545
 3194DOPE   C4A37483  24.984  21.576  12.044 -0.1080 -0.3006 -0.0881
 3194DOPE   C1B37484  25.046  22.231  11.371  0.0488  0.2274 -0.0209
 3194DOPE   D2B37485  24.970  22.309  11.850 -0.4936 -0.1670 -0.1403
 3194DOPE   C3B37486  25.238  22.028  12.108 -0.1329  0.2633  0.1721
 3194DOPE   C4B37487  25.529  22.016  12.462  0.0628 -0.0165 -0.2293
 3195DOPE   NH337488  23.954  24.123  10.624  0.0426 -0.0178 -0.0072
 3195DOPE   PO437489  23.882  24.377  10.812 -0.0227 -0.1927 -0.2082
 3195DOPE   GL137490  24.021  24.289  11.113 -0.1217 -0.0712 -0.0228
 3195DOPE   GL237491  23.725  24.231  11.299 -0.3437  0.1036 -0.0600
 3195DOPE   C1A37492  24.130  24.411  11.564  0.1036  0.0825  0.0013
 3195DOPE   D2A37493  24.344  24.560  11.970 -0.2864  0.2239 -0.1157
 3195DOPE   C3A37494  24.342  24.429  12.407 -0.1527 -0.3383 -0.2129
 3195DOPE   C4A37495  24.126  24.476  12.788 -0.0496  0.2760  0.0000
 3195DOPE   C1B37496  23.997  23.883  11.520  0.1359  0.0550 -0.0487
 3195DOPE   D2B37497  23.835  23.583  11.931  0.2447  0.3523  0.0989
 3195DOPE   C3B37498  24.024  23.179  11.898  0.1590 -0.1290  0.0642
 3195DOPE   C4B37499  24.116  22.783  12.064 -0.0690  0.0873  0.0606
 3196DOPC   NC337500  21.381  20.104  10.833 -0.3296  0.0915 -0.1174
 3196DOPC   PO437501  21.190  20.120  10.520  0.2408  0.0075  0.0381
 3196DOPC   GL137502  20.808  19.994  10.620  0.2165 -0.1569 -0.0026
 3196DOPC   GL237503  20.808  20.032  11.003  0.1037  0.1129 -0.2815
 3196DOPC   C1A37504  20.447  20.240  10.780 -0.2482 -0.0247  0.1932
 3196DOPC   D2A37505  20.041  20.400  11.032 -0.0245  0.0561  0.0558
 3196DOPC   C3A37506  20.127  20.549  11.422  0.1068 -0.0264 -0.1566
 3196DOPC   C4A37507  19.966  20.677  11.830  0.0214  0.2116  0.3338
 3196DOPC   C1B37508  21.164  19.782  11.182  0.0280  0.1955  0.1798
 3196DOPC   D2B37509  21.217  19.698  11.629  0.1949  0.0855 -0.2435
 3196DOPC   C3B37510  20.775  19.745  11.753 -0.0924 -0.0810  0.0853
 3196DOPC   C4B37511  20.353  19.935  11.891 -0.2216  0.0399  0.0349
 3197DOPE   NH337512  32.227  18.944   9.692 -0.1527 -0.2069  0.1113
 3197DOPE   PO437513  32.363  19.252   9.629  0.2244 -0.0759  0.0240
 3197DOPE   GL137514  32.385  19.283  10.019  0.2154  0.3964 -0.1862
 3197DOPE   GL237515  32.134  19.247  10.056  0.0796  0.0812  0.3820
 3197DOPE   C1A37516  32.634  19.044  10.330  0.0523  0.1879  0.0857
 3197DOPE   D2A37517  33.010  18.801  10.293 -0.0476  0.2844  0.0390
 3197DOPE   C3A37518  33.144  18.697  10.733 -0.0107 -0.1094  0.0193
 3197DOPE   C4A37519  33.098  18.594  11.173  0.0290  0.0453 -0.1968
 3197DOPE   C1B37520  31.910  19.506  10.295  0.0997 -0.0846 -0.0296
 3197DOPE   D2B37521  31.821  19.864  10.596  0.0412 -0.1703  0.3808
 3197DOPE   C3B37522  31.521  19.750  10.853  0.0333  0.0455 -0.0582
 3197DOPE   C4B37523  31.483  19.404  11.130 -0.0671  0.0934  0.0569
 3198DOPS   CNO37524  30.672  22.164  10.100 -0.3177  0.0054  0.3150
 3198DOPS   PO437525  30.875  21.985   9.865  0.1053  0.0208  0.1220
 3198DOPS   GL137526  31.256  21.925  10.200  0.2565  0.0576  0.2272
 3198DOPS   GL237527  31.168  22.225  10.368 -0.1198  0.0415 -0.1315
 3198DOPS   C1A37528  31.515  21.769  10.551 -0.0047 -0.1778  0.1240
 3198DOPS   D2A37529  31.730  21.841  11.008 -0.0481 -0.3269 -0.0320
 3198DOPS   C3A37530  31.641  21.578  11.408 -0.1345 -0.2140  0.3694
 3198DOPS   C4A37531  31.923  21.204  11.656 -0.0248  0.0759  0.1560
 3198DOPS   C1B37532  31.170  22.385  10.788  0.1525  0.5681  0.0163
 3198DOPS   D2B37533  31.065  22.636  11.099 -0.0826 -0.1667 -0.2156
 3198DOPS   C3B37534  31.213  22.448  11.496  0.0227 -0.1616 -0.1190
 3198DOPS   C4B37535  31.624  22.214  11.661  0.0158 -0.4739 -0.1023
 3199DOPC   NC337536  29.312  23.227  10.413 -0.1293 -0.2757 -0.2178
 3199DOPC   PO437537  29.117  22.959  10.183 -0.0034 -0.1854 -0.0768
 3199DOPC   GL137538  29.177  22.727  10.503 -0.0229 -0.2216 -0.0058
 3199DOPC   GL237539  29.045  22.951  10.735  0.0511  0.0645  0.1622
 3199DOPC   C1A37540  28.798  22.548  10.719 -0.2855  0.1480 -0.0969
 3199DOPC   D2A37541  28.855  22.403  11.140  0.2264  0.3787 -0.3525
 3199DOPC   C3A37542  28.636  22.542  11.529 -0.0824 -0.3379 -0.1134
 3199DOPC   C4A37543  28.491  22.372  11.952  0.2329 -0.2015 -0.0652
 3199DOPC   C1B37544  29.085  23.087  11.201 -0.1033  0.3690  0.0918
 3199DOPC   D2B37545  28.934  23.038  11.645  0.0642 -0.1401 -0.3316
 3199DOPC   C3B37546  28.745  22.861  11.958  0.0102 -0.1239 -0.1232
 3199DOPC   C4B37547  28.700  22.727  12.437  0.2962 -0.0995 -0.1500
 3200POSM   NC337548  30.148  20.966   9.816  0.1072  0.1241 -0.1303
 3200POSM   PO437549  30.001  20.610   9.833 -0.0647  0.0615 -0.2328
 3200POSM   AM137550  29.970  20.685  10.209 -0.0849  0.2166  0.2159
 3200POSM   AM237551  29.716  20.607  10.374 -0.0642 -0.0312  0.1504
 3200POSM   T1A37552  29.925  21.043  10.575 -0.0025 -0.1270  0.4085
 3200POSM   C2A37553  29.596  21.127  10.916 -0.0428  0.1141  0.0405
 3200POSM   C3A37554  29.408  21.284  11.318 -0.2480 -0.0469  0.1877
 3200POSM   C1B37555  29.713  20.609  10.682 -0.2405  0.4035  0.4552
 3200POSM   D2B37556  29.900  20.484  11.051  0.1251 -0.1822  0.1112
 3200POSM   C3B37557  30.329  20.258  11.057  0.0246 -0.2047  0.0253
 3200POSM   C4B37558  30.730  20.121  11.351 -0.1440 -0.0566 -0.2667
 3201DOPC   NC337559  25.843  17.201  10.224 -0.2198  0.0821  0.1271
 3201DOPC   PO437560  25.502  17.363  10.359 -0.2391  0.1181 -0.0969
 3201DOPC   GL137561  25.467  17.645  10.599  0.2054  0.2249  0.2404
 3201DOPC   GL237562  25.264  17.823  10.506 -0.1489 -0.0824 -0.0491
 3201DOPC   C1A37563  25.439  17.593  11.071  0.4033 -0.0815 -0.2014
 3201DOPC   D2A37564  25.775  17.772  11.325 -0.2773 -0.4445  0.0171
 3201DOPC   C3A37565  25.714  17.618  11.749  0.1308  0.1524  0.2252
 3201DOPC   C4A37566  25.352  17.646  12.089  0.1478  0.1113  0.1149
 3201DOPC   C1B37567  25.249  18.024  10.898  0.2506 -0.0804  0.1825
 3201DOPC   D2B37568  25.310  18.052  11.313  0.0111 -0.2014 -0.0780
 3201DOPC   C3B37569  25.210  17.648  11.510  0.0217 -0.3362  0.3560
 3201DOPC   C4B37570  25.397  17.200  11.617  0.1135 -0.2196  0.0673
 3202POSM   NC337571  27.826  18.382  10.592 -0.2760  0.0718  0.1906
 3202POSM   PO437572  28.005  18.014  10.715  0.3120 -0.0411 -0.0010
 3202POSM   AM137573  27.912  18.044  11.016 -0.1633  0.0521 -0.0479
 3202POSM   AM237574  27.758  18.237  11.153 -0.0765 -0.0036 -0.2938
 3202POSM   T1A37575  28.000  17.813  11.433  0.0378  0.1827  0.1471
 3202POSM   C2A37576  28.058  17.991  11.857 -0.2624  0.0167  0.0406
 3202POSM   C3A37577  28.106  18.288  12.242 -0.1753 -0.0370 -0.1602
 3202POSM   C1B37578  27.697  18.368  11.490 -0.3012 -0.0673 -0.1105
 3202POSM   D2B37579  27.636  18.290  11.960  0.1393  0.0359 -0.0405
 3202POSM   C3B37580  27.254  18.503  12.158  0.3303  0.1757 -0.2472
 3202POSM   C4B37581  26.870  18.734  12.042 -0.0905 -0.0312  0.4625
 3203DOPE   NH337582  26.496  16.557   9.998  0.0912 -0.0285 -0.0699
 3203DOPE   PO437583  26.197  16.507  10.203 -0.0771  0.1016  0.3123
 3203DOPE   GL137584  26.484  16.267  10.497  0.1942  0.1041 -0.4695
 3203DOPE   GL237585  26.287  16.298  10.702 -0.0523 -0.0111  0.1588
 3203DOPE   C1A37586  26.802  16.263  10.829 -0.4090 -0.1731  0.1185
 3203DOPE   D2A37587  26.682  16.480  11.206  0.1024  0.2157  0.1183
 3203DOPE   C3A37588  27.045  16.724  11.360 -0.1409  0.0858  0.0563
 3203DOPE   C4A37589  27.365  17.053  11.436  0.1305 -0.1436 -0.4651
 3203DOPE   C1B37590  26.163  16.467  11.139 -0.2219  0.2210 -0.0346
 3203DOPE   D2B37591  26.301  16.571  11.553  0.1380  0.0156  0.1702
 3203DOPE   C3B37592  26.645  16.251  11.625  0.0667  0.2299 -0.1925
 3203DOPE   C4B37593  26.789  15.827  11.771  0.1263  0.2376  0.0480
 3204DOPE   NH337594  30.231  22.382   9.958 -0.0118  0.0072  0.2759
 3204DOPE   PO437595  29.935  22.362  10.009 -0.2254  0.0831 -0.1669
 3204DOPE   GL137596  29.984  22.268  10.484  0.3214 -0.4597 -0.1740
 3204DOPE   GL237597  30.288  22.332  10.501 -0.1995 -0.0993 -0.2566
 3204DOPE   C1A37598  29.881  22.512  10.855  0.0946 -0.0017  0.0949
 3204DOPE   D2A37599  29.684  22.260  11.196  0.0458 -0.1534  0.0583
 3204DOPE   C3A37600  29.855  22.221  11.650 -0.0241  0.0770 -0.0159
 3204DOPE   C4A37601  29.770  21.909  11.981  0.4883 -0.0525 -0.0411
 3204DOPE   C1B37602  30.675  22.110  10.655 -0.0054 -0.0910 -0.3284
 3204DOPE   D2B37603  31.003  21.880  10.828  0.0003 -0.1446  0.0092
 3204DOPE   C3B37604  31.233  21.973  11.182  0.3083 -0.2609  0.3684
 3204DOPE   C4B37605  31.563  22.371  11.181 -0.0393 -0.0523 -0.0607
 3205DOPS   CNO37606  33.057   8.517  10.476 -0.0336  0.0697  0.1513
 3205DOPS   PO437607  32.655   8.527  10.531 -0.0169  0.0713 -0.0964
 3205DOPS   GL137608  32.805   8.714  10.821  0.0926 -0.0706  0.4980
 3205DOPS   GL237609  32.753   8.962  10.911  0.0266 -0.1327 -0.0548
 3205DOPS   C1A37610  33.035   8.577  11.156  0.2027 -0.0343  0.1382
 3205DOPS   D2A37611  33.011   8.624  11.597 -0.0413  0.0375  0.1308
 3205DOPS   C3A37612  32.996   8.145  11.695  0.1322 -0.0382  0.0558
 3205DOPS   C4A37613  33.306   7.820  11.889 -0.0341 -0.1657  0.4490
 3205DOPS   C1B37614  32.811   8.996  11.340  0.1577  0.3382  0.0724
 3205DOPS   D2B37615  32.814   9.228  11.787 -0.1683  0.0817  0.1851
 3205DOPS   C3B37616  32.687   9.665  11.900  0.0904  0.2299 -0.1237
 3205DOPS   C4B37617  32.500  10.047  11.968 -0.0581 -0.0234 -0.2036
 3206DOPE   NH337618  27.266  12.043  10.728  0.2885  0.0806 -0.2731
 3206DOPE   PO437619  27.504  11.806  10.732 -0.0723 -0.5015  0.0557
 3206DOPE   GL137620  27.333  11.765  11.123 -0.0078  0.0874  0.2586
 3206DOPE   GL237621  27.603  11.824  11.235 -0.0099 -0.0060  0.4282
 3206DOPE   C1A37622  27.187  11.886  11.578  0.1844 -0.0172  0.1440
 3206DOPE   D2A37623  27.100  11.742  12.035 -0.2682  0.2646  0.0825
 3206DOPE   C3A37624  27.064  11.356  12.283  0.0657 -0.1663 -0.0916
 3206DOPE   C4A37625  27.201  11.040  12.577 -0.0353  0.0373 -0.1220
 3206DOPE   C1B37626  27.731  11.683  11.591  0.1987 -0.1162 -0.2104
 3206DOPE   D2B37627  27.579  11.549  12.011  0.2661  0.3414  0.1873
 3206DOPE   C3B37628  27.397  11.677  12.434 -0.1963 -0.2246  0.0952
 3206DOPE   C4B37629  27.295  12.102  12.478 -0.0625 -0.1552  0.3329
 3207DOPE   NH337630  34.115  11.827  10.637 -0.0596 -0.3107 -0.1159
 3207DOPE   PO437631  33.969  12.064  10.487  0.2258  0.0632  0.0550
 3207DOPE   GL137632  33.902  12.295  10.735  0.4488 -0.0892  0.2298
 3207DOPE   GL237633  34.148  12.367  10.899  0.0695 -0.1632 -0.1109
 3207DOPE   C1A37634  33.733  12.067  11.103 -0.0009  0.1453  0.2225
 3207DOPE   D2A37635  33.644  12.111  11.545  0.3468  0.1945 -0.3116
 3207DOPE   C3A37636  33.464  11.906  11.891  0.2404 -0.0193  0.3815
 3207DOPE   C4A37637  33.583  11.654  12.269  0.1840 -0.0703 -0.0950
 3207DOPE   C1B37638  34.085  12.510  11.279  0.2689  0.0106  0.1398
 3207DOPE   D2B37639  33.918  12.555  11.704  0.1710  0.0882  0.2781
 3207DOPE   C3B37640  34.176  12.542  12.074  0.0962 -0.1718 -0.2328
 3207DOPE   C4B37641  34.453  12.811  12.358 -0.0197  0.1010  0.1568
 3208POSM   NC337642  31.870  25.167   9.675  0.3297  0.0918  0.0490
 3208POSM   PO437643  31.576  25.385   9.510 -0.1952  0.0591 -0.1209
 3208POSM   AM137644  31.532  25.419   9.838  0.2571 -0.5967 -0.0569
 3208POSM   AM237645  31.585  25.304  10.082  0.1265  0.1205 -0.2323
 3208POSM   T1A37646  31.511  25.771  10.202 -0.0644  0.0130  0.2624
 3208POSM   C2A37647  31.475  25.819  10.640  0.0852 -0.1075  0.1465
 3208POSM   C3A37648  31.254  26.021  11.009  0.1338  0.2536 -0.1352
 3208POSM   C1B37649  31.545  25.280  10.407  0.1553 -0.1462 -0.1045
 3208POSM   D2B37650  31.669  25.250  10.826  0.0791 -0.1361 -0.0510
 3208POSM   C3B37651  31.988  25.043  11.129 -0.0148  0.2560 -0.1081
 3208POSM   C4B37652  32.382  25.228  11.355  0.0080  0.2147 -0.1573
 3209DOPC   NC337653  30.343  23.612   9.563 -0.3934  0.2547  0.0332
 3209DOPC   PO437654  30.589  23.583   9.891 -0.0095  0.0758  0.3759
 3209DOPC   GL137655  30.667  23.478  10.206 -0.2091  0.1842 -0.1714
 3209DOPC   GL237656  30.882  23.268  10.330 -0.0853 -0.4055  0.1807
 3209DOPC   C1A37657  30.620  23.592  10.659 -0.0378 -0.0680  0.4883
 3209DOPC   D2A37658  30.468  23.487  11.089  0.1103 -0.2152  0.1077
 3209DOPC   C3A37659  30.507  23.431  11.506  0.1873 -0.1524  0.0535
 3209DOPC   C4A37660  30.406  23.381  11.961 -0.2155  0.0882 -0.0672
 3209DOPC   C1B37661  31.192  23.394  10.611 -0.2497  0.1435  0.0680
 3209DOPC   D2B37662  31.522  23.231  10.878  0.1228 -0.1228  0.0260
 3209DOPC   C3B37663  31.330  23.096  11.237 -0.3287 -0.1517 -0.0233
 3209DOPC   C4B37664  30.952  23.069  11.426 -0.1925 -0.0560  0.3203
 3210DOPC   NC337665  29.115  10.026  10.883  0.2318 -0.2308  0.0436
 3210DOPC   PO437666  28.746  10.068  10.784 -0.2261 -0.1328 -0.0036
 3210DOPC   GL137667  28.715  10.073  11.146 -0.0076 -0.2557 -0.5521
 3210DOPC   GL237668  28.917  10.269  11.280  0.0452  0.0611  0.2367
 3210DOPC   C1A37669  28.404  10.253  11.435 -0.0038  0.0408 -0.2295
 3210DOPC   D2A37670  28.292  10.498  11.758  0.4174 -0.2940  0.1850
 3210DOPC   C3A37671  28.438  10.465  12.197 -0.3319  0.0552  0.1577
 3210DOPC   C4A37672  28.353  10.406  12.679 -0.0386  0.2877  0.2803
 3210DOPC   C1B37673  28.792  10.357  11.731  0.2115  0.3801 -0.3137
 3210DOPC   D2B37674  29.040  10.348  12.103  0.4110 -0.2354 -0.1210
 3210DOPC   C3B37675  29.249   9.963  12.304 -0.1908  0.0380 -0.0152
 3210DOPC   C4B37676  29.312   9.708  12.719 -0.0349  0.1377 -0.0438
 3211DOPE   NH337677  28.976  12.049  10.784  0.1393 -0.0237  0.0712
 3211DOPE   PO437678  29.128  12.301  10.895  0.1294  0.1202 -0.2590
 3211DOPE   GL137679  29.135  12.353  11.222  0.1219  0.2039  0.0632
 3211DOPE   GL237680  29.420  12.438  11.269 -0.0262  0.1519 -0.1338
 3211DOPE   C1A37681  29.158  12.161  11.667 -0.1747 -0.1574 -0.2116
 3211DOPE   D2A37682  29.339  12.395  12.041 -0.0497  0.0378 -0.0404
 3211DOPE   C3A37683  29.351  12.176  12.465  0.0177 -0.0275 -0.2498
 3211DOPE   C4A37684  29.565  12.064  12.820 -0.2112 -0.1297  0.2637
 3211DOPE   C1B37685  29.406  12.680  11.678 -0.2470 -0.0681  0.3131
 3211DOPE   D2B37686  29.254  12.917  12.053  0.4343 -0.1598 -0.2933
 3211DOPE   C3B37687  28.897  13.229  12.146 -0.2411 -0.0454  0.0934
 3211DOPE   C4B37688  28.760  13.439  12.539  0.1364  0.1303 -0.1984
 3212DOPE   NH337689  31.836  12.720  10.377  0.0462  0.1255  0.0721
 3212DOPE   PO437690  31.695  12.972  10.265  0.0355  0.0095  0.0752
 3212DOPE   GL137691  31.880  13.115  10.567 -0.4167 -0.0847  0.1786
 3212DOPE   GL237692  31.860  13.299  10.673  0.2929 -0.3986 -0.2044
 3212DOPE   C1A37693  32.042  12.907  10.937 -0.0815  0.0293 -0.2317
 3212DOPE   D2A37694  31.992  12.678  11.350 -0.1532  0.0353  0.0036
 3212DOPE   C3A37695  31.927  12.831  11.767 -0.2915  0.2692 -0.5662
 3212DOPE   C4A37696  31.706  12.856  12.175 -0.0028  0.1122 -0.1983
 3212DOPE   C1B37697  31.628  13.494  11.039 -0.2275  0.0271 -0.1417
 3212DOPE   D2B37698  31.441  13.661  11.433  0.0625  0.0769  0.0279
 3212DOPE   C3B37699  31.220  13.539  11.835 -0.2733 -0.0551 -0.0021
 3212DOPE   C4B37700  30.804  13.287  11.976 -0.1014  0.0724 -0.0314
 3213POSM   NC337701  30.237  10.495  10.974  0.1437 -0.0312  0.1098
 3213POSM   PO437702  29.935  10.681  11.071 -0.1332 -0.1838 -0.0232
 3213POSM   AM137703  30.075  10.523  11.390  0.0863 -0.1386  0.4465
 3213POSM   AM237704  29.934  10.321  11.565 -0.0712  0.1453 -0.1085
 3213POSM   T1A37705  30.396  10.451  11.744  0.0830  0.0413 -0.1867
 3213POSM   C2A37706  30.560  10.597  12.182 -0.2199  0.0643 -0.2159
 3213POSM   C3A37707  30.627  10.747  12.616 -0.1040  0.0644  0.1729
 3213POSM   C1B37708  29.955  10.228  11.919  0.0558  0.0863  0.0039
 3213POSM   D2B37709  30.063  10.274  12.359 -0.0001 -0.2646 -0.1132
 3213POSM   C3B37710  29.853   9.989  12.626  0.0514  0.0935 -0.1210
 3213POSM   C4B37711  29.800   9.520  12.742  0.1351  0.1188 -0.2495
 3214POSM   NC337712  29.245  19.174   9.984  0.1121  0.0475 -0.0255
 3214POSM   PO437713  28.999  18.956  10.206  0.0718 -0.4210 -0.3071
 3214POSM   AM137714  29.139  19.020  10.496 -0.0650  0.1533 -0.0502
 3214POSM   AM237715  29.444  19.041  10.569  0.1771 -0.0198 -0.2284
 3214POSM   T1A37716  29.000  19.208  10.963 -0.1142  0.0792  0.2006
 3214POSM   C2A37717  28.694  19.511  11.062  0.1863 -0.0743  0.0264
 3214POSM   C3A37718  28.506  19.742  10.775 -0.2151  0.0085 -0.3415
 3214POSM   C1B37719  29.573  19.177  10.832 -0.1624  0.2781 -0.1607
 3214POSM   D2B37720  29.912  19.402  11.133  0.4447  0.1153 -0.0489
 3214POSM   C3B37721  29.774  19.572  11.520 -0.0817  0.0416  0.1106
 3214POSM   C4B37722  29.428  19.736  11.816  0.1505 -0.0442 -0.1193
 3215POSM   NC337723  25.236  19.495  10.461  0.3620  0.2880  0.1199
 3215POSM   PO437724  25.450  19.736  10.231  0.3536  0.0547  0.2458
 3215POSM   AM137725  25.363  19.935  10.506 -0.0298 -0.5111  0.1677
 3215POSM   AM237726  25.289  20.251  10.555 -0.2397 -0.2170  0.1209
 3215POSM   T1A37727  25.581  20.011  10.936 -0.0387 -0.3097 -0.2661
 3215POSM   C2A37728  25.873  20.136  11.271 -0.2469 -0.0892 -0.2773
 3215POSM   C3A37729  26.234  20.171  11.584 -0.0244 -0.1458  0.0537
 3215POSM   C1B37730  25.047  20.266  10.776 -0.1109 -0.0580 -0.1397
 3215POSM   D2B37731  24.741  20.507  11.052 -0.2724  0.0477  0.0171
 3215POSM   C3B37732  24.387  20.340  11.257 -0.0580 -0.3996 -0.1983
 3215POSM   C4B37733  23.962  20.328  11.342  0.1487 -0.4447  0.0723
 3216POSM   NC337734  34.521  15.310   9.446 -0.1373  0.2160  0.5227
 3216POSM   PO437735  34.399  15.587   9.701  0.1590 -0.0716 -0.2704
 3216POSM   AM137736  34.451  15.385   9.972  0.1972  0.0689  0.0342
 3216POSM   AM237737  34.250  15.244  10.135 -0.3029  0.0393 -0.2306
 3216POSM   T1A37738  34.768  15.328  10.339  0.1322 -0.1147  0.0317
 3216POSM   C2A37739  34.697  15.428  10.791  0.1283  0.2767 -0.0157
 3216POSM   C3A37740  34.693  15.329  11.239  0.3194 -0.0809 -0.0511
 3216POSM   C1B37741  34.186  15.433  10.420 -0.1177 -0.3686 -0.0404
 3216POSM   D2B37742  34.200  15.670  10.812  0.1975 -0.0895 -0.2675
 3216POSM   C3B37743  33.966  16.003  11.010 -0.0650 -0.0446 -0.0177
 3216POSM   C4B37744  33.726  15.896  11.422  0.2508  0.2134 -0.1636
 3217DOPC   NC337745  25.563  21.147   9.988 -0.3712  0.0006 -0.0425
 3217DOPC   PO437746  25.269  20.883   9.918  0.0933  0.2016 -0.3784
 3217DOPC   GL137747  25.242  20.959  10.363 -0.3576  0.0049 -0.1553
 3217DOPC   GL237748  25.452  20.761  10.417 -0.0260 -0.1456  0.1109
 3217DOPC   C1A37749  25.211  21.025  10.841  0.1832  0.2340  0.0919
 3217DOPC   D2A37750  25.233  20.939  11.307  0.1636 -0.0639  0.1800
 3217DOPC   C3A37751  25.187  20.633  11.612  0.0731  0.0392  0.5730
 3217DOPC   C4A37752  25.366  20.244  11.776 -0.1986  0.0158  0.2235
 3217DOPC   C1B37753  25.596  20.584  10.829 -0.1506  0.0081 -0.1655
 3217DOPC   D2B37754  25.491  20.467  11.268 -0.5226 -0.0197  0.0119
 3217DOPC   C3B37755  25.744  20.666  11.625  0.1677  0.4677 -0.2843
 3217DOPC   C4B37756  25.996  20.855  12.019  0.0224  0.1992  0.0834
 3218DOPC   NC337757  31.435  15.970   9.867  0.0365  0.0872  0.1119
 3218DOPC   PO437758  31.690  16.291   9.794 -0.1072  0.1213 -0.0808
 3218DOPC   GL137759  31.745  16.240  10.173  0.0979  0.1922  0.0005
 3218DOPC   GL237760  31.816  16.444  10.416 -0.1499  0.1011  0.1897
 3218DOPC   C1A37761  31.631  15.938  10.536  0.1459  0.1971 -0.1634
 3218DOPC   D2A37762  31.752  15.712  10.905  0.1522  0.0274  0.1921
 3218DOPC   C3A37763  32.156  15.450  10.844  0.2775 -0.1333 -0.3155
 3218DOPC   C4A37764  32.546  15.394  10.606  0.0071  0.0227 -0.2412
 3218DOPC   C1B37765  32.143  16.540  10.701  0.0888 -0.0743 -0.1734
 3218DOPC   D2B37766  32.403  16.385  11.054  0.0794 -0.0194  0.0773
 3218DOPC   C3B37767  32.687  16.500  11.399  0.1871  0.2112 -0.0615
 3218DOPC   C4B37768  32.735  16.426  11.824  0.0343  0.1455  0.0768
 3219DOPE   NH337769  28.811  18.361  10.252 -0.0570  0.0162  0.0647
 3219DOPE   PO437770  29.063  18.240  10.201 -0.0832  0.2759 -0.1035
 3219DOPE   GL137771  29.099  18.219  10.617  0.2696  0.1449  0.0627
 3219DOPE   GL237772  28.957  18.476  10.699  0.0146  0.0398 -0.1437
 3219DOPE   C1A37773  28.840  17.989  10.976 -0.0253  0.2255  0.0301
 3219DOPE   D2A37774  28.390  17.977  11.134 -0.2897 -0.0245 -0.2147
 3219DOPE   C3A37775  28.240  18.253  11.483 -0.2833 -0.1899 -0.1402
 3219DOPE   C4A37776  28.075  18.514  11.819  0.0931 -0.0949 -0.0213
 3219DOPE   C1B37777  29.217  18.747  10.962  0.0605  0.0884 -0.2818
 3219DOPE   D2B37778  29.346  18.989  11.308 -0.1932 -0.0089 -0.1437
 3219DOPE   C3B37779  29.038  19.333  11.494 -0.0767  0.0574 -0.0071
 3219DOPE   C4B37780  28.997  19.785  11.640 -0.0218 -0.0974  0.0996
 3220DOPC   NC337781  30.923  15.048   9.898 -0.2921  0.1102  0.2388
 3220DOPC   PO437782  30.760  14.728  10.011  0.1226 -0.1806  0.1042
 3220DOPC   GL137783  30.730  15.062  10.356 -0.0965 -0.2703 -0.3117
 3220DOPC   GL237784  31.000  15.179  10.387 -0.1622 -0.3222 -0.0158
 3220DOPC   C1A37785  30.542  14.988  10.751  0.1905  0.2648 -0.4411
 3220DOPC   D2A37786  30.419  14.941  11.172  0.4109 -0.0368 -0.0339
 3220DOPC   C3A37787  30.277  14.858  11.565  0.1636  0.1317 -0.1732
 3220DOPC   C4A37788  29.983  14.929  11.932  0.1293 -0.0194 -0.0770
 3220DOPC   C1B37789  31.233  15.342  10.802  0.1528 -0.1795 -0.1795
 3220DOPC   D2B37790  31.410  15.415  11.230  0.1671  0.0413 -0.0486
 3220DOPC   C3B37791  31.844  15.547  11.366 -0.2129 -0.0039  0.0137
 3220DOPC   C4B37792  32.079  15.907  11.229  0.0552  0.2248  0.3073
 3221DOPC   NC337793   0.157  22.576   9.794 -0.2634 -0.2404  0.2290
 3221DOPC   PO437794  -0.214  22.471   9.847 -0.0101  0.0751  0.0834
 3221DOPC   GL137795  -0.483  22.495  10.139  0.4621  0.1793 -0.0269
 3221DOPC   GL237796  -0.297  22.697  10.334 -0.1756  0.1549  0.0058
 3221DOPC   C1A37797  -0.377  22.198  10.488 -0.3073 -0.0538 -0.3893
 3221DOPC   D2A37798  -0.493  22.192  10.936  0.0679 -0.1885  0.3925
 3221DOPC   C3A37799  -0.090  22.201  11.225  0.0404  0.4213  0.1984
 3221DOPC   C4A37800   0.028  22.524  11.516  0.0303 -0.2461 -0.2078
 3221DOPC   C1B37801  -0.488  22.829  10.757  0.0889  0.1123  0.3108
 3221DOPC   D2B37802  -0.234  22.802  11.116 -0.0936  0.0000  0.3132
 3221DOPC   C3B37803  -0.014  23.110  11.429  0.1059 -0.2132  0.2334
 3221DOPC   C4B37804   0.023  23.557  11.447 -0.0365 -0.0914 -0.1714
 3222DOPS   CNO37805  29.850  25.647  10.052  0.1465  0.0467 -0.2497
 3222DOPS   PO437806  29.725  25.386  10.223 -0.0808 -0.1335  0.1564
 3222DOPS   GL137807  30.033  25.264  10.474  0.1297  0.1491 -0.1228
 3222DOPS   GL237808  30.113  25.449  10.672  0.1883 -0.3956  0.1657
 3222DOPS   C1A37809  29.863  25.090  10.881 -0.0385 -0.0722  0.1383
 3222DOPS   D2A37810  29.504  24.972  11.109 -0.0157 -0.0194 -0.1189
 3222DOPS   C3A37811  29.491  25.170  11.547 -0.1402 -0.2096 -0.1956
 3222DOPS   C4A37812  29.522  25.402  11.951  0.0449  0.1196 -0.0584
 3222DOPS   C1B37813  30.270  25.328  11.156  0.1211  0.0471  0.1264
 3222DOPS   D2B37814  30.469  24.951  11.401  0.1831 -0.1115  0.3504
 3222DOPS   C3B37815  30.354  24.676  11.802 -0.0670 -0.1364 -0.0739
 3222DOPS   C4B37816  30.040  24.366  11.924 -0.0060 -0.0115 -0.3400
 3223POSM   NC337817  33.009  16.271   9.807  0.0267 -0.1094  0.1089
 3223POSM   PO437818  32.677  16.065   9.884 -0.0495  0.0700 -0.2404
 3223POSM   AM137819  32.619  16.182  10.201  0.0540  0.2415  0.0296
 3223POSM   AM237820  32.421  16.341  10.317  0.0654 -0.4669 -0.1255
 3223POSM   T1A37821  32.722  16.182  10.722  0.2982  0.1895 -0.1224
 3223POSM   C2A37822  33.035  16.102  11.032  0.1113 -0.1468 -0.1668
 3223POSM   C3A37823  33.471  16.226  11.197 -0.2530 -0.2353 -0.0865
 3223POSM   C1B37824  32.558  16.569  10.515 -0.2039  0.1074 -0.0915
 3223POSM   D2B37825  32.865  16.713  10.799  0.0260 -0.2488 -0.0370
 3223POSM   C3B37826  32.791  16.918  11.222 -0.1080  0.1017  0.0313
 3223POSM   C4B37827  32.889  16.886  11.666 -0.1904  0.2223 -0.3620
 3224DOPS   CNO37828  28.766  20.232  10.111  0.2948 -0.0177 -0.0091
 3224DOPS   PO437829  28.846  19.861  10.081 -0.0263 -0.3252 -0.2399
 3224DOPS   GL137830  28.861  19.839  10.446 -0.3546 -0.2948  0.0408
 3224DOPS   GL237831  28.947  20.080  10.593 -0.0612  0.2328  0.2297
 3224DOPS   C1A37832  29.203  19.676  10.711 -0.1042  0.0513 -0.2430
 3224DOPS   D2A37833  29.482  19.633  11.042 -0.0646  0.0189  0.0495
 3224DOPS   C3A37834  29.486  19.949  11.321 -0.0360 -0.0032  0.1695
 3224DOPS   C4A37835  29.463  20.347  11.574  0.1027  0.1043  0.1508
 3224DOPS   C1B37836  28.946  20.092  11.012 -0.1370 -0.0692  0.1469
 3224DOPS   D2B37837  28.870  20.400  11.408 -0.2090  0.2740  0.1797
 3224DOPS   C3B37838  28.507  20.670  11.275  0.3262 -0.0411 -0.2539
 3224DOPS   C4B37839  28.157  20.905  11.490 -0.0149  0.0864  0.1869
 3225POSM   NC337840  25.416  16.777   9.508 -0.0325 -0.1476 -0.0983
 3225POSM   PO437841  25.331  16.639   9.868 -0.2547  0.1956  0.1443
 3225POSM   AM137842  25.186  16.489  10.101  0.3967 -0.2766  0.1441
 3225POSM   AM237843  25.242  16.357  10.364 -0.0769  0.1392  0.4141
 3225POSM   T1A37844  24.856  16.540  10.519 -0.4175  0.0454 -0.0943
 3225POSM   C2A37845  24.823  16.336  10.909  0.1596  0.2813  0.1344
 3225POSM   C3A37846  25.283  16.335  11.145  0.1552  0.3475  0.0028
 3225POSM   C1B37847  25.356  16.448  10.665  0.4444  0.2079  0.1752
 3225POSM   D2B37848  25.658  16.584  11.028 -0.0459 -0.3931 -0.0887
 3225POSM   C3B37849  25.416  16.714  11.429 -0.5878 -0.1200  0.1387
 3225POSM   C4B37850  25.398  16.790  11.891  0.3900 -0.0419  0.0360
 3226DOPC   NC337851  26.727  20.643  10.186  0.1646  0.1787  0.0317
 3226DOPC   PO437852  27.120  20.593  10.225 -0.0921 -0.0066 -0.0248
 3226DOPC   GL137853  26.955  20.686  10.567  0.1935 -0.0776  0.1823
 3226DOPC   GL237854  26.889  20.441  10.726  0.3867 -0.1995  0.1263
 3226DOPC   C1A37855  26.942  20.971  10.947  0.3268  0.0170  0.0715
 3226DOPC   D2A37856  26.767  21.248  11.336  0.1873 -0.1002  0.2970
 3226DOPC   C3A37857  27.053  21.401  11.698 -0.0385  0.2696 -0.0289
 3226DOPC   C4A37858  27.383  21.158  11.895 -0.0625  0.1055 -0.3939
 3226DOPC   C1B37859  27.049  20.527  11.091  0.2537  0.1507  0.1770
 3226DOPC   D2B37860  27.120  20.662  11.493  0.1420  0.1926 -0.2115
 3226DOPC   C3B37861  26.716  20.819  11.627  0.0679 -0.0064  0.3244
 3226DOPC   C4B37862  26.288  21.100  11.665  0.4480  0.2230  0.3445
 3227DOPC   NC337863  32.512  17.255  10.224  0.0933  0.1897  0.0578
 3227DOPC   PO437864  32.372  16.970  10.050  0.0490 -0.0691  0.0746
 3227DOPC   GL137865  32.265  16.933  10.476  0.0568 -0.0452  0.0908
 3227DOPC   GL237866  31.929  16.969  10.360 -0.1354  0.3476  0.2859
 3227DOPC   C1A37867  32.429  16.989  10.890 -0.1080  0.0093  0.1998
 3227DOPC   D2A37868  32.295  16.958  11.376  0.0449  0.2011 -0.1094
 3227DOPC   C3A37869  32.237  17.187  11.857 -0.2031  0.2222  0.2738
 3227DOPC   C4A37870  32.265  17.545  12.161 -0.0625 -0.1182  0.1847
 3227DOPC   C1B37871  32.075  17.383  10.518  0.0143 -0.2609 -0.3169
 3227DOPC   D2B37872  32.429  17.576  10.747  0.0168  0.0776 -0.2348
 3227DOPC   C3B37873  32.747  17.440  11.065  0.0335 -0.2732  0.0911
 3227DOPC   C4B37874  33.152  17.222  11.169  0.0889 -0.3053 -0.0595
 3228DOPC   NC337875  27.879  12.190  10.874  0.0348 -0.1318  0.1300
 3228DOPC   PO437876  27.709  12.447  10.643  0.2463  0.1207 -0.2152
 3228DOPC   GL137877  27.943  12.645  10.935 -0.0647  0.0242  0.3184
 3228DOPC   GL237878  28.283  12.643  10.930  0.0077 -0.0847  0.0877
 3228DOPC   C1A37879  27.865  12.539  11.364  0.2887 -0.0482  0.1384
 3228DOPC   D2A37880  27.894  12.447  11.828  0.1845 -0.0294 -0.0101
 3228DOPC   C3A37881  27.447  12.570  11.975  0.1312  0.0521  0.0815
 3228DOPC   C4A37882  27.108  12.263  12.026  0.2631  0.0934 -0.0417
 3228DOPC   C1B37883  28.359  12.659  11.354 -0.0267  0.0676 -0.0585
 3228DOPC   D2B37884  28.339  12.613  11.809 -0.1916 -0.2227 -0.3743
 3228DOPC   C3B37885  28.332  12.246  12.098 -0.1752 -0.1546 -0.1189
 3228DOPC   C4B37886  28.294  11.938  12.444 -0.0194  0.1955 -0.0737
 3229POSM   NC337887  29.672  22.110   9.696 -0.0125  0.2027 -0.3184
 3229POSM   PO437888  30.025  21.980   9.692  0.0744  0.1136  0.0187
 3229POSM   AM137889  30.028  21.887  10.026 -0.2424 -0.1574 -0.2707
 3229POSM   AM237890  29.782  21.718  10.110 -0.1296 -0.3147 -0.0158
 3229POSM   T1A37891  30.283  21.795  10.418  0.1556  0.1402 -0.0427
 3229POSM   C2A37892  30.707  21.643  10.533 -0.1183 -0.1268  0.3159
 3229POSM   C3A37893  31.107  21.391  10.590  0.0009 -0.0208 -0.1029
 3229POSM   C1B37894  29.802  21.879  10.383 -0.0926 -0.1546  0.0350
 3229POSM   D2B37895  29.937  21.964  10.850 -0.0701  0.3427 -0.0312
 3229POSM   C3B37896  30.338  22.167  10.991  0.1253  0.0293 -0.4157
 3229POSM   C4B37897  30.809  22.191  11.192  0.0956 -0.2906  0.0325
 3230POSM   NC337898  26.577  15.322   9.929  0.3669  0.0663 -0.1402
 3230POSM   PO437899  26.713  15.661   9.894 -0.0075 -0.2425  0.0341
 3230POSM   AM137900  26.841  15.590  10.141 -0.3946  0.2837  0.1026
 3230POSM   AM237901  27.104  15.492  10.210  0.0056  0.0273  0.2369
 3230POSM   T1A37902  26.788  15.480  10.626  0.1355 -0.0753  0.1975
 3230POSM   C2A37903  26.724  15.225  11.048  0.3335  0.2128 -0.1834
 3230POSM   C3A37904  26.996  15.042  11.347 -0.1261 -0.1105 -0.0370
 3230POSM   C1B37905  27.179  15.266  10.481 -0.3302 -0.0986  0.0637
 3230POSM   D2B37906  27.105  14.987  10.829  0.1297  0.0290 -0.1102
 3230POSM   C3B37907  27.095  14.576  10.915 -0.0500  0.2457 -0.2027
 3230POSM   C4B37908  26.884  14.372  11.255 -0.0093  0.1107 -0.1916
 3231DOPE   NH337909  29.244  17.049  10.282  0.2391  0.0502  0.0076
 3231DOPE   PO437910  29.218  17.301  10.151  0.0904 -0.0448  0.2834
 3231DOPE   GL137911  29.311  17.483  10.480  0.1521  0.0255 -0.2262
 3231DOPE   GL237912  29.431  17.392  10.733 -0.2695  0.3690 -0.0192
 3231DOPE   C1A37913  29.378  17.896  10.651 -0.4235 -0.0272 -0.2107
 3231DOPE   D2A37914  29.503  18.366  10.846 -0.1178 -0.0718  0.1070
 3231DOPE   C3A37915  29.483  18.457  11.333  0.2206 -0.0802 -0.1999
 3231DOPE   C4A37916  29.284  18.609  11.762 -0.1901  0.0472 -0.0754
 3231DOPE   C1B37917  29.600  17.549  11.135 -0.0188 -0.1892  0.0208
 3231DOPE   D2B37918  29.744  17.619  11.563  0.1036 -0.0219 -0.0484
 3231DOPE   C3B37919  29.421  17.643  11.912  0.0250 -0.0780 -0.0717
 3231DOPE   C4B37920  29.256  17.444  12.257 -0.0374  0.1301  0.0285
 3232DOPS   CNO37921  32.260  18.020   9.576  0.3376  0.0437  0.3656
 3232DOPS   PO437922  32.553  17.867   9.757 -0.1251 -0.0630 -0.1619
 3232DOPS   GL137923  32.706  17.721  10.173  0.0030  0.0105 -0.3267
 3232DOPS   GL237924  32.388  17.771  10.299  0.3665  0.0662 -0.1749
 3232DOPS   C1A37925  32.796  17.909  10.599  0.0085 -0.1115 -0.0295
 3232DOPS   D2A37926  32.734  17.908  11.075 -0.0799  0.0845 -0.0013
 3232DOPS   C3A37927  32.300  17.850  11.114 -0.1399 -0.0609 -0.1069
 3232DOPS   C4A37928  31.833  17.825  11.297 -0.1667 -0.0562  0.0500
 3232DOPS   C1B37929  32.259  18.114  10.572  0.1470 -0.2245  0.1586
 3232DOPS   D2B37930  32.225  18.323  10.986 -0.0935 -0.0304  0.1214
 3232DOPS   C3B37931  32.303  18.195  11.462  0.3756  0.0925  0.1341
 3232DOPS   C4B37932  32.499  18.160  11.880 -0.1668 -0.1463  0.0564
 3233DOPE   NH337933  34.164  22.858   9.848  0.0695 -0.0666 -0.1406
 3233DOPE   PO437934  34.048  23.156   9.743  0.3515  0.0879 -0.1475
 3233DOPE   GL137935  33.890  23.300  10.136  0.0137  0.1310 -0.1196
 3233DOPE   GL237936  33.943  23.558   9.997  0.0066 -0.0517  0.1664
 3233DOPE   C1A37937  33.689  23.101  10.509 -0.1503 -0.1762  0.0252
 3233DOPE   D2A37938  33.355  22.951  10.755 -0.1246  0.2743  0.0179
 3233DOPE   C3A37939  33.267  22.679  11.079  0.3300 -0.3496  0.0745
 3233DOPE   C4A37940  33.212  22.694  11.545 -0.0356 -0.1409  0.2434
 3233DOPE   C1B37941  33.743  23.617  10.400  0.3002  0.0445  0.1316
 3233DOPE   D2B37942  33.870  23.703  10.873  0.0142 -0.2626 -0.2525
 3233DOPE   C3B37943  34.180  23.891  11.164 -0.1986 -0.0884  0.1486
 3233DOPE   C4B37944  34.393  23.910  11.571 -0.2790 -0.2908  0.3218
 3234DOPC   NC337945  21.741  16.571   9.342  0.1784 -0.3999 -0.2666
 3234DOPC   PO437946  21.501  16.442   9.617  0.2566  0.0925 -0.2938
 3234DOPC   GL137947  21.302  16.482  10.048 -0.1253 -0.1587  0.0661
 3234DOPC   GL237948  21.120  16.280  10.048  0.0882 -0.0610  0.0316
 3234DOPC   C1A37949  21.268  16.844  10.300  0.0284 -0.0127 -0.0563
 3234DOPC   D2A37950  21.102  17.262  10.469 -0.1720 -0.0489  0.0812
 3234DOPC   C3A37951  20.930  17.224  10.926  0.0066  0.0568 -0.1200
 3234DOPC   C4A37952  20.987  17.417  11.348  0.2401 -0.0585 -0.2795
 3234DOPC   C1B37953  21.214  16.305  10.482 -0.1603 -0.0606 -0.0760
 3234DOPC   D2B37954  21.322  16.130  10.906 -0.0172 -0.0906 -0.3840
 3234DOPC   C3B37955  21.521  15.703  10.910 -0.0797  0.1360  0.2261
 3234DOPC   C4B37956  21.461  15.294  11.180  0.0840 -0.0464  0.1458
 3235DOPC   NC337957  28.265  15.095  10.023 -0.4233  0.1664 -0.4001
 3235DOPC   PO437958  28.074  15.425   9.973  0.0226  0.2006  0.5411
 3235DOPC   GL137959  28.172  15.656  10.405 -0.2973  0.0283  0.3922
 3235DOPC   GL237960  28.282  15.458  10.526 -0.2251  0.1360 -0.0869
 3235DOPC   C1A37961  28.082  15.948  10.695 -0.0271  0.2217  0.3989
 3235DOPC   D2A37962  28.157  16.080  11.161 -0.0325  0.1447  0.1392
 3235DOPC   C3A37963  28.120  16.143  11.608  0.0825  0.0055  0.0262
 3235DOPC   C4A37964  28.127  16.412  11.975 -0.1643 -0.2203 -0.1716
 3235DOPC   C1B37965  28.011  15.517  10.915  0.3622  0.1340 -0.0664
 3235DOPC   D2B37966  27.783  15.534  11.285  0.0577 -0.0979 -0.3539
 3235DOPC   C3B37967  27.853  15.662  11.701 -0.0009  0.0743  0.1896
 3235DOPC   C4B37968  27.976  15.929  12.042  0.1436  0.1806 -0.1898
 3236POSM   NC337969  34.077  17.548   9.265  0.1142 -0.0862 -0.1871
 3236POSM   PO437970  34.388  17.663   9.495  0.0200  0.0072  0.0223
 3236POSM   AM137971  34.327  17.797   9.794 -0.1835 -0.3517  0.2707
 3236POSM   AM237972  34.210  18.027   9.834 -0.2075  0.2622  0.1043
 3236POSM   T1A37973  34.532  17.665  10.233 -0.0495  0.0870 -0.0151
 3236POSM   C2A37974  34.468  17.586  10.715  0.0157 -0.0377  0.0315
 3236POSM   C3A37975  34.652  17.188  10.978 -0.0132  0.1754 -0.2763
 3236POSM   C1B37976  34.024  17.969  10.076 -0.0768  0.2216 -0.1088
 3236POSM   D2B37977  33.748  18.080  10.458  0.0765  0.2342  0.3057
 3236POSM   C3B37978  33.621  18.374  10.819 -0.3284  0.0878 -0.0631
 3236POSM   C4B37979  33.710  18.599  11.229 -0.1905  0.0188 -0.2545
 3237POSM   NC337980  25.845  18.485  10.203 -0.1577 -0.2925 -0.2109
 3237POSM   PO437981  25.635  18.737  10.372  0.1199 -0.0005 -0.4558
 3237POSM   AM137982  25.631  18.925  10.658 -0.1570  0.0634  0.2603
 3237POSM   AM237983  25.526  19.195  10.710 -0.1042 -0.1424  0.0271
 3237POSM   T1A37984  25.709  18.886  11.181  0.2672  0.2664  0.1830
 3237POSM   C2A37985  25.434  19.007  11.512  0.0143 -0.4914  0.2791
 3237POSM   C3A37986  25.249  18.940  11.957  0.3509 -0.0183 -0.0726
 3237POSM   C1B37987  25.601  19.364  11.004 -0.2441 -0.1520 -0.2359
 3237POSM   D2B37988  25.592  19.645  11.357  0.0044  0.1492 -0.1614
 3237POSM   C3B37989  25.533  19.460  11.811  0.0695  0.0927 -0.0332
 3237POSM   C4B37990  25.692  19.352  12.234 -0.0882  0.3210 -0.0313
 3238DOPS   CNO37991  33.633  12.381  10.253  0.0467 -0.0295 -0.1743
 3238DOPS   PO437992  33.800  12.623   9.996 -0.0191 -0.0865  0.1644
 3238DOPS   GL137993  33.828  12.742  10.404  0.0826 -0.0676  0.2899
 3238DOPS   GL237994  33.706  13.004  10.341 -0.3304  0.0235 -0.0515
 3238DOPS   C1A37995  33.738  12.677  10.847  0.1602  0.2697  0.1170
 3238DOPS   D2A37996  33.606  12.619  11.276  0.3501 -0.2260 -0.0485
 3238DOPS   C3A37997  33.414  12.581  11.710  0.0597 -0.1292  0.3612
 3238DOPS   C4A37998  33.268  12.545  12.127  0.3825  0.0456 -0.2404
 3238DOPS   C1B37999  33.858  13.285  10.670 -0.0071  0.2968  0.1408
 3238DOPS   D2B38000  34.233  13.456  10.806 -0.0321  0.0212  0.2336
 3238DOPS   C3B38001  34.304  13.606  11.251  0.1063  0.0567  0.1021
 3238DOPS   C4B38002  34.488  13.958  11.495 -0.3102 -0.0962 -0.1618
 3239POSM   NC338003  24.011  12.054   9.776  0.0848  0.0533 -0.1636
 3239POSM   PO438004  24.330  12.072   9.973  0.0043  0.0760  0.0944
 3239POSM   AM138005  24.422  12.056  10.286 -0.1234  0.0005 -0.3041
 3239POSM   AM238006  24.548  11.901  10.520 -0.3222  0.0627 -0.0843
 3239POSM   T1A38007  24.297  12.207  10.725  0.1642 -0.0149  0.0406
 3239POSM   C2A38008  24.460  12.359  11.183 -0.3815 -0.0405 -0.0288
 3239POSM   C3A38009  24.540  12.162  11.570  0.0088 -0.0426 -0.1811
 3239POSM   C1B38010  24.743  11.749  10.785  0.1704 -0.1429  0.0233
 3239POSM   D2B38011  25.030  11.686  11.112  0.2401  0.1641 -0.0292
 3239POSM   C3B38012  24.788  11.705  11.555  0.1317 -0.2575 -0.1125
 3239POSM   C4B38013  24.856  11.360  11.883  0.1703 -0.4480  0.1417
 3240DOPE   NH338014  29.320  20.102  10.086  0.1376  0.0342  0.4699
 3240DOPE   PO438015  29.532  19.828  10.110 -0.0037  0.0937 -0.0156
 3240DOPE   GL138016  29.467  19.922  10.455 -0.1854 -0.0125  0.2254
 3240DOPE   GL238017  29.728  19.782  10.581 -0.0793  0.0425 -0.0419
 3240DOPE   C1A38018  29.466  20.118  10.839 -0.2401 -0.0164 -0.1160
 3240DOPE   D2A38019  29.312  20.472  11.107 -0.1248  0.0030 -0.2130
 3240DOPE   C3A38020  29.591  20.790  11.334 -0.1604 -0.2321 -0.0144
 3240DOPE   C4A38021  29.863  21.124  11.547  0.3081  0.0653  0.0002
 3240DOPE   C1B38022  29.890  19.867  10.987  0.1989 -0.1185 -0.3567
 3240DOPE   D2B38023  29.981  20.016  11.401  0.1461 -0.0559 -0.0052
 3240DOPE   C3B38024  29.815  20.034  11.771 -0.3289 -0.1675  0.1284
 3240DOPE   C4B38025  29.679  19.831  12.191 -0.0968  0.0948 -0.2443
 3241DOPE   NH338026  26.571  12.630  10.280  0.0409 -0.3109  0.0464
 3241DOPE   PO438027  26.520  12.657  10.575 -0.0982  0.0907  0.0814
 3241DOPE   GL138028  26.554  12.709  10.989 -0.3119 -0.1747  0.0943
 3241DOPE   GL238029  26.813  12.671  11.032 -0.1805 -0.2336 -0.2224
 3241DOPE   C1A38030  26.181  12.786  11.276  0.1907 -0.1096 -0.4848
 3241DOPE   D2A38031  25.987  12.893  11.711  0.0825 -0.2513  0.2563
 3241DOPE   C3A38032  25.534  12.843  11.701  0.1567 -0.1281  0.1458
 3241DOPE   C4A38033  25.171  12.942  11.442 -0.1400  0.1847 -0.0368
 3241DOPE   C1B38034  26.660  12.977  11.389  0.0654  0.1754 -0.2484
 3241DOPE   D2B38035  26.557  13.120  11.887 -0.0967  0.3067 -0.3246
 3241DOPE   C3B38036  26.528  13.558  11.829  0.0568  0.3070  0.1184
 3241DOPE   C4B38037  26.474  13.934  11.996  0.2909 -0.2087 -0.2092
 3242DOPE   NH338038  26.520  11.846  10.477 -0.2831 -0.1687 -0.0660
 3242DOPE   PO438039  26.457  12.153  10.396  0.0851 -0.0681  0.1465
 3242DOPE   GL138040  26.218  12.364  10.704  0.0459 -0.1223  0.4161
 3242DOPE   GL238041  26.306  12.138  10.891  0.0673 -0.0663 -0.1058
 3242DOPE   C1A38042  25.918  12.690  10.863 -0.0911  0.2132  0.1354
 3242DOPE   D2A38043  25.653  12.725  11.217 -0.3153 -0.1759  0.0010
 3242DOPE   C3A38044  25.362  12.387  11.329  0.2107  0.0899 -0.3019
 3242DOPE   C4A38045  24.943  12.173  11.285  0.0995 -0.1687 -0.2300
 3242DOPE   C1B38046  26.507  12.359  11.282 -0.4375 -0.1643 -0.0185
 3242DOPE   D2B38047  26.412  12.597  11.650 -0.1909  0.1428 -0.1059
 3242DOPE   C3B38048  26.275  12.731  12.117 -0.3136  0.3424  0.1271
 3242DOPE   C4B38049  25.889  12.810  12.303 -0.3661  0.0776 -0.2364
 3243DOPS   CNO38050  29.040   9.201  10.625  0.0765 -0.0480  0.1376
 3243DOPS   PO438051  29.243   9.473  10.827 -0.1804 -0.0854  0.0037
 3243DOPS   GL138052  29.408   9.430  11.279 -0.0353  0.2046 -0.0512
 3243DOPS   GL238053  29.741   9.402  11.279 -0.0839 -0.1927 -0.0547
 3243DOPS   C1A38054  29.204   9.276  11.648  0.1136 -0.3089  0.0274
 3243DOPS   D2A38055  29.294   9.074  12.021  0.0484 -0.0541 -0.2479
 3243DOPS   C3A38056  29.614   9.202  12.347 -0.1941 -0.0546  0.1283
 3243DOPS   C4A38057  29.900   8.948  12.599 -0.0729 -0.0103  0.1726
 3243DOPS   C1B38058  29.645   9.145  11.620  0.1297 -0.0836  0.0912
 3243DOPS   D2B38059  29.523   8.736  11.773  0.1716 -0.1894 -0.0091
 3243DOPS   C3B38060  29.529   8.704  12.250  0.2379 -0.1331  0.1791
 3243DOPS   C4B38061  29.524   8.488  12.601  0.2118  0.1996  0.0531
 3244POSM   NC338062  31.376  13.943  10.169 -0.1814 -0.1757  0.1458
 3244POSM   PO438063  31.172  13.717  10.402  0.2840 -0.1774  0.0784
 3244POSM   AM138064  31.207  13.802  10.731 -0.1356  0.0563 -0.1395
 3244POSM   AM238065  31.065  13.980  10.885 -0.1888  0.1543 -0.2728
 3244POSM   T1A38066  31.545  14.039  11.060  0.3404 -0.2320 -0.3377
 3244POSM   C2A38067  31.811  14.007  11.374 -0.0066  0.1992  0.2928
 3244POSM   C3A38068  32.044  14.005  11.708 -0.1321 -0.0464 -0.0323
 3244POSM   C1B38069  31.064  13.903  11.218  0.6346 -0.1492 -0.1318
 3244POSM   D2B38070  31.174  14.061  11.665  0.0139 -0.0452  0.0239
 3244POSM   C3B38071  31.557  13.947  11.875  0.1963 -0.1923 -0.3086
 3244POSM   C4B38072  31.760  13.544  11.832 -0.0615  0.1507 -0.0209
 3245POSM   NC338073  30.802  18.001   9.357 -0.0266  0.2541  0.1477
 3245POSM   PO438074  30.966  18.246   9.574 -0.4015 -0.0532  0.1040
 3245POSM   AM138075  31.036  18.252   9.887  0.0502 -0.4468 -0.0196
 3245POSM   AM238076  30.977  18.458  10.126 -0.1774  0.0617 -0.4243
 3245POSM   T1A38077  31.338  17.931  10.153  0.0803  0.1060  0.1222
 3245POSM   C2A38078  31.615  17.831  10.491  0.0693 -0.2045 -0.3218
 3245POSM   C3A38079  31.852  18.014  10.817  0.1323  0.0391  0.0843
 3245POSM   C1B38080  30.781  18.403  10.378 -0.1761  0.0738 -0.1350
 3245POSM   D2B38081  30.713  18.350  10.854  0.2907  0.2334 -0.3617
 3245POSM   C3B38082  30.918  18.155  11.252 -0.2116  0.1540 -0.1643
 3245POSM   C4B38083  31.251  17.951  11.460  0.2895  0.2248 -0.0808
 3246DOPE   NH338084  31.370  13.255  10.594 -0.0126 -0.4670 -0.0055
 3246DOPE   PO438085  31.075  13.161  10.603 -0.2160  0.0861 -0.1990
 3246DOPE   GL138086  31.169  12.957  10.908 -0.0643 -0.0097  0.2631
 3246DOPE   GL238087  31.072  12.692  10.773  0.1812 -0.2160 -0.0621
 3246DOPE   C1A38088  31.489  13.041  11.203  0.3709  0.0585  0.2190
 3246DOPE   D2A38089  31.928  13.195  11.340 -0.1971  0.0112 -0.0800
 3246DOPE   C3A38090  32.187  13.248  11.648 -0.0957  0.0146 -0.1737
 3246DOPE   C4A38091  32.680  13.129  11.636  0.1990 -0.2987 -0.2585
 3246DOPE   C1B38092  31.315  12.494  11.093 -0.1071  0.0728 -0.0998
 3246DOPE   D2B38093  31.494  12.639  11.484  0.0816 -0.1637 -0.0863
 3246DOPE   C3B38094  31.579  12.464  11.847  0.0872 -0.1193 -0.0779
 3246DOPE   C4B38095  31.742  12.153  12.157  0.0347 -0.0583  0.0548
 3247DOPS   CNO38096  24.112  23.258  10.292 -0.0978  0.0932  0.3456
 3247DOPS   PO438097  24.461  23.189  10.452 -0.0171  0.4231  0.3671
 3247DOPS   GL138098  24.110  23.324  10.790  0.0944 -0.0251  0.2200
 3247DOPS   GL238099  24.202  23.145  10.985 -0.2272  0.2484 -0.0779
 3247DOPS   C1A38100  24.363  23.580  11.118 -0.4055  0.2503 -0.3742
 3247DOPS   D2A38101  24.550  24.021  11.292 -0.0973 -0.0075 -0.0311
 3247DOPS   C3A38102  24.455  24.043  11.742 -0.2401  0.0457 -0.0256
 3247DOPS   C4A38103  24.330  23.938  12.146  0.0587 -0.0722  0.0307
 3247DOPS   C1B38104  24.340  23.135  11.391  0.1229  0.0038  0.1557
 3247DOPS   D2B38105  24.407  23.524  11.660 -0.2536 -0.3993  0.1923
 3247DOPS   C3B38106  24.701  23.535  12.097  0.2534  0.0839 -0.1228
 3247DOPS   C4B38107  24.805  23.321  12.441 -0.2471 -0.2654 -0.2226
 3248DOPE   NH338108  29.953  14.889  10.118  0.2188  0.1009 -0.0294
 3248DOPE   PO438109  29.826  15.097  10.352  0.1199  0.0343  0.0924
 3248DOPE   GL138110  29.789  15.138  10.699 -0.2149 -0.0760  0.3595
 3248DOPE   GL238111  29.789  15.469  10.671 -0.0655  0.0080 -0.2639
 3248DOPE   C1A38112  30.127  15.335  11.010 -0.1037 -0.2741 -0.1559
 3248DOPE   D2A38113  30.362  15.352  11.430 -0.0846  0.0734 -0.0152
 3248DOPE   C3A38114  30.259  15.299  11.886  0.3072  0.0032 -0.3462
 3248DOPE   C4A38115  29.925  15.255  12.278 -0.0797  0.0193 -0.2165
 3248DOPE   C1B38116  29.515  15.374  11.046  0.0475 -0.0819 -0.1486
 3248DOPE   D2B38117  29.227  15.327  11.406  0.1320 -0.4041 -0.0417
 3248DOPE   C3B38118  28.849  15.223  11.685  0.0359 -0.0794 -0.1138
 3248DOPE   C4B38119  28.749  15.377  12.093 -0.0695 -0.0685 -0.0287
 3249POSM   NC338120  23.314  13.379   9.333 -0.0617  0.3008  0.3245
 3249POSM   PO438121  23.071  13.174   9.556  0.1543 -0.3124 -0.0677
 3249POSM   AM138122  22.962  13.414   9.749  0.3535 -0.0609 -0.0925
 3249POSM   AM238123  22.737  13.484   9.957  0.1762  0.1644  0.0972
 3249POSM   T1A38124  23.120  13.709  10.158 -0.1354  0.0556 -0.1456
 3249POSM   C2A38125  23.250  14.008  10.448  0.0429  0.0261 -0.1176
 3249POSM   C3A38126  23.487  14.196  10.816 -0.0210  0.0107 -0.2621
 3249POSM   C1B38127  22.734  13.368  10.292  0.2630 -0.0753 -0.2007
 3249POSM   D2B38128  22.978  13.314  10.717 -0.0406 -0.0045  0.0970
 3249POSM   C3B38129  22.887  13.357  11.177  0.1622  0.0214  0.0197
 3249POSM   C4B38130  22.566  13.327  11.452 -0.4028  0.2160 -0.4045
 3250POSM   NC338131  23.868  20.769  10.521 -0.1719 -0.0346 -0.3594
 3250POSM   PO438132  24.090  20.465  10.614  0.0528  0.1510  0.0745
 3250POSM   AM138133  23.844  20.328  10.705  0.0897 -0.1574  0.0350
 3250POSM   AM238134  23.519  20.358  10.782  0.1189 -0.1309  0.0721
 3250POSM   T1A38135  23.701  19.975  11.060 -0.0062 -0.3416 -0.0614
 3250POSM   C2A38136  23.721  19.779  11.448 -0.1664  0.0052  0.1836
 3250POSM   C3A38137  24.045  19.667  11.796  0.3066  0.0670 -0.0317
 3250POSM   C1B38138  23.519  20.404  11.177 -0.1544  0.0385  0.0839
 3250POSM   D2B38139  23.547  20.317  11.632  0.0156 -0.2457 -0.0946
 3250POSM   C3B38140  23.730  20.051  11.861 -0.0763 -0.0437 -0.0609
 3250POSM   C4B38141  23.784  19.863  12.287 -0.0115 -0.1990  0.0691
 3251DOPC   NC338142  24.873  21.892  10.431  0.6295  0.1299  0.1658
 3251DOPC   PO438143  25.229  21.800  10.296  0.1926  0.0421 -0.2375
 3251DOPC   GL138144  25.364  21.836  10.641  0.1460  0.0600 -0.0254
 3251DOPC   GL238145  25.469  22.082  10.856 -0.0708 -0.0663 -0.0549
 3251DOPC   C1A38146  25.506  21.523  10.941 -0.2278 -0.0830 -0.1205
 3251DOPC   D2A38147  25.484  21.432  11.369  0.3648 -0.0818  0.4095
 3251DOPC   C3A38148  25.478  21.633  11.754  0.2118 -0.0670  0.3179
 3251DOPC   C4A38149  25.601  21.663  12.172 -0.0168  0.1609 -0.3665
 3251DOPC   C1B38150  25.595  21.976  11.284 -0.0045 -0.0674  0.0320
 3251DOPC   D2B38151  25.967  21.693  11.483 -0.0020 -0.0342  0.1158
 3251DOPC   C3B38152  26.201  21.722  11.872 -0.2169 -0.2959  0.3486
 3251DOPC   C4B38153  26.524  21.962  12.158 -0.0139  0.0292  0.1879
 3252POSM   NC338154  21.556  17.538   9.786  0.2018  0.1879  0.0070
 3252POSM   PO438155  21.462  17.931   9.789  0.0121 -0.0611  0.0383
 3252POSM   AM138156  21.560  17.970  10.099 -0.1354 -0.0788 -0.1565
 3252POSM   AM238157  21.662  18.209  10.242 -0.1021 -0.0307  0.3958
 3252POSM   T1A38158  21.536  17.766  10.547 -0.2253  0.0088  0.2117
 3252POSM   C2A38159  21.632  17.861  10.994 -0.1009  0.1805  0.0736
 3252POSM   C3A38160  21.233  17.767  11.199 -0.0324  0.0502  0.1135
 3252POSM   C1B38161  21.800  18.196  10.560 -0.1502  0.2492  0.0285
 3252POSM   D2B38162  22.114  18.079  10.882  0.0165 -0.1603  0.0396
 3252POSM   C3B38163  22.387  18.045  11.307  0.2062 -0.2328 -0.0454
 3252POSM   C4B38164  22.774  18.269  11.548 -0.1706  0.2507  0.0679
 3253DOPE   NH338165  27.013  12.824  10.598  0.2031 -0.1843 -0.1398
 3253DOPE   PO438166  27.198  12.574  10.689  0.0013  0.1401  0.3162
 3253DOPE   GL138167  27.397  12.570  11.095  0.3225 -0.1046  0.2047
 3253DOPE   GL238168  27.465  12.288  11.118  0.0880  0.0492  0.2315
 3253DOPE   C1A38169  27.464  12.824  11.465  0.1389  0.0887 -0.1560
 3253DOPE   D2A38170  27.364  13.082  11.861  0.1007  0.2149  0.0759
 3253DOPE   C3A38171  27.643  12.913  12.228 -0.2090 -0.0053 -0.0482
 3253DOPE   C4A38172  27.838  13.019  12.610  0.2512 -0.0725 -0.2028
 3253DOPE   C1B38173  27.571  12.195  11.578 -0.0147 -0.3723  0.3670
 3253DOPE   D2B38174  27.548  12.029  12.028 -0.1018 -0.0586 -0.2069
 3253DOPE   C3B38175  27.730  12.355  12.327  0.2560  0.0861  0.0012
 3253DOPE   C4B38176  28.026  12.252  12.709  0.0584  0.0839 -0.0674
 3254DOPS   CNO38177  25.016  17.555   9.869 -0.2123 -0.0294  0.0648
 3254DOPS   PO438178  24.794  17.759  10.097  0.0094 -0.1747 -0.3352
 3254DOPS   GL138179  24.737  17.687  10.512 -0.3543  0.3158  0.2776
 3254DOPS   GL238180  24.509  17.917  10.534  0.0337 -0.4056 -0.0787
 3254DOPS   C1A38181  24.615  17.306  10.692 -0.1701 -0.1965  0.1877
 3254DOPS   D2A38182  24.750  16.883  10.861  0.0379  0.1683 -0.1296
 3254DOPS   C3A38183  25.223  16.908  10.832  0.1296  0.0304  0.0054
 3254DOPS   C4A38184  25.589  17.126  11.102 -0.1594 -0.0457  0.1572
 3254DOPS   C1B38185  24.644  17.828  10.940  0.1536 -0.0126  0.0028
 3254DOPS   D2B38186  24.744  17.589  11.329  0.2269  0.0439 -0.1316
 3254DOPS   C3B38187  25.052  17.238  11.233 -0.0843 -0.1120 -0.1196
 3254DOPS   C4B38188  24.955  16.746  11.299  0.1826 -0.0573  0.1159
 3255DOPC   NC338189  27.668  21.282   9.771  0.0976  0.0237  0.1550
 3255DOPC   PO438190  27.986  21.460   9.926 -0.2564 -0.1973 -0.0505
 3255DOPC   GL138191  27.931  21.568  10.348 -0.3362  0.0921  0.1289
 3255DOPC   GL238192  28.183  21.423  10.438 -0.2588  0.2101 -0.2147
 3255DOPC   C1A38193  27.567  21.477  10.632  0.0958  0.1993  0.0214
 3255DOPC   D2A38194  27.219  21.404  10.949  0.0139 -0.0493 -0.0745
 3255DOPC   C3A38195  27.352  21.225  11.310  0.2430  0.1931  0.1524
 3255DOPC   C4A38196  27.730  21.293  11.593  0.0592  0.0843 -0.2437
 3255DOPC   C1B38197  28.184  21.033  10.649 -0.2750  0.1787  0.0294
 3255DOPC   D2B38198  28.219  20.585  10.813  0.1821  0.0747 -0.2656
 3255DOPC   C3B38199  28.029  20.478  11.214 -0.0093 -0.1783  0.0316
 3255DOPC   C4B38200  28.056  20.493  11.657 -0.2477 -0.2201 -0.4657
 3256DOPC   NC338201  32.497  20.057   9.568  0.0135 -0.0163  0.0981
 3256DOPC   PO438202  32.574  20.368   9.729  0.0918 -0.1276 -0.0114
 3256DOPC   GL138203  32.640  20.311  10.212  0.2955 -0.1365  0.2928
 3256DOPC   GL238204  32.513  20.027  10.174  0.2387 -0.1308  0.1242
 3256DOPC   C1A38205  32.352  20.296  10.551 -0.2955 -0.1546  0.0063
 3256DOPC   D2A38206  32.306  20.099  10.933 -0.2467 -0.1137  0.1243
 3256DOPC   C3A38207  32.087  19.737  11.252 -0.1044 -0.2422  0.0165
 3256DOPC   C4A38208  31.941  19.382  10.941 -0.0518  0.1181 -0.2308
 3256DOPC   C1B38209  32.378  19.772  10.527  0.0139  0.0711 -0.1051
 3256DOPC   D2B38210  32.483  19.611  10.940 -0.0625  0.1575 -0.0364
 3256DOPC   C3B38211  32.598  19.759  11.382  0.2056 -0.0578  0.2956
 3256DOPC   C4B38212  33.010  20.026  11.546  0.0719  0.0931  0.0614
 3257DOPC   NC338213  24.411  18.036  10.039 -0.1894  0.0148  0.0065
 3257DOPC   PO438214  24.031  18.119   9.941  0.1224 -0.1776  0.2106
 3257DOPC   GL138215  23.996  18.008  10.318 -0.1293 -0.0901 -0.3932
 3257DOPC   GL238216  23.968  17.757  10.357  0.1746  0.2630  0.1666
 3257DOPC   C1A38217  24.101  18.110  10.748 -0.1005  0.0628 -0.1137
 3257DOPC   D2A38218  24.115  18.028  11.201 -0.0586 -0.2700  0.3327
 3257DOPC   C3A38219  24.489  17.993  11.421 -0.0659 -0.1929  0.0279
 3257DOPC   C4A38220  24.825  17.976  11.726  0.0505 -0.1419 -0.1163
 3257DOPC   C1B38221  24.160  17.523  10.766 -0.1559 -0.4122 -0.2211
 3257DOPC   D2B38222  24.214  17.136  10.969  0.0315  0.1853 -0.0463
 3257DOPC   C3B38223  24.528  17.138  11.326 -0.1398 -0.1865 -0.0190
 3257DOPC   C4B38224  24.533  17.309  11.781 -0.0052 -0.0736  0.0981
 3258DOPS   CNO38225  30.897  22.426   9.648  0.3559  0.1690  0.2030
 3258DOPS   PO438226  30.664  22.641   9.902  0.3015 -0.2105  0.0802
 3258DOPS   GL138227  30.726  22.761  10.220  0.0395 -0.0893 -0.1624
 3258DOPS   GL238228  30.734  22.610  10.420  0.0905 -0.0478  0.1458
 3258DOPS   C1A38229  30.483  23.070  10.516 -0.2726 -0.1042 -0.0171
 3258DOPS   D2A38230  30.130  22.924  10.759 -0.4506 -0.0132  0.1205
 3258DOPS   C3A38231  30.056  23.159  11.144 -0.1698  0.0162 -0.0653
 3258DOPS   C4A38232  30.002  23.287  11.571  0.2157 -0.0655 -0.0431
 3258DOPS   C1B38233  30.669  22.605  10.862 -0.1077 -0.0204  0.2289
 3258DOPS   D2B38234  30.419  22.813  11.177 -0.3211 -0.1416  0.2239
 3258DOPS   C3B38235  30.404  22.983  11.627 -0.2994 -0.0508  0.0957
 3258DOPS   C4B38236  30.217  22.779  12.058 -0.2609  0.0366  0.0981
 3259POSM   NC338237  28.734  12.795  10.771  0.0186 -0.1044 -0.2259
 3259POSM   PO438238  28.733  12.467  10.602  0.0333  0.0951  0.0864
 3259POSM   AM138239  28.596  12.291  10.875 -0.3748  0.0931  0.0133
 3259POSM   AM238240  28.662  12.333  11.113  0.1918  0.3451  0.1357
 3259POSM   T1A38241  28.240  12.181  11.189 -0.0879  0.1960  0.1040
 3259POSM   C2A38242  28.156  12.136  11.585 -0.0163 -0.2214 -0.1495
 3259POSM   C3A38243  28.116  11.807  11.892  0.1321  0.0277 -0.0209
 3259POSM   C1B38244  28.690  12.280  11.469 -0.0939  0.0482 -0.1913
 3259POSM   D2B38245  28.723  12.119  11.902 -0.2619 -0.3063  0.0466
 3259POSM   C3B38246  28.912  12.364  12.253  0.4321  0.1381 -0.0836
 3259POSM   C4B38247  29.081  12.599  12.562 -0.4014 -0.1115  0.0252
 3260POSM   NC338248  29.414  21.419  10.001 -0.1992  0.1887  0.1207
 3260POSM   PO438249  29.748  21.204   9.963  0.0364  0.3123  0.1261
 3260POSM   AM138250  29.937  21.280  10.200 -0.2539 -0.4097 -0.0473
 3260POSM   AM238251  30.212  21.324  10.212 -0.2744 -0.1476  0.1386
 3260POSM   T1A38252  29.963  21.511  10.654  0.0555  0.0277  0.3150
 3260POSM   C2A38253  29.868  21.460  11.109 -0.1258 -0.0299  0.2691
 3260POSM   C3A38254  29.665  21.719  11.504  0.1334  0.2122 -0.1458
 3260POSM   C1B38255  30.443  21.207  10.530  0.0052 -0.0326 -0.2775
 3260POSM   D2B38256  30.668  21.357  10.891  0.1128 -0.0591 -0.0729
 3260POSM   C3B38257  30.385  21.649  10.989 -0.4138  0.3125 -0.2124
 3260POSM   C4B38258  30.124  21.842  11.364 -0.2393 -0.0011 -0.2553
 3261DOPE   NH338259  22.284  18.207  10.027 -0.0068  0.2635  0.0443
 3261DOPE   PO438260  22.503  18.373  10.209  0.1542  0.0584  0.3275
 3261DOPE   GL138261  22.437  18.085  10.433 -0.0856  0.4850 -0.1669
 3261DOPE   GL238262  22.645  17.877  10.345 -0.0089 -0.1521 -0.0117
 3261DOPE   C1A38263  22.629  17.855  10.808 -0.0529 -0.2927  0.1901
 3261DOPE   D2A38264  22.970  17.809  11.123 -0.2228 -0.1464  0.5174
 3261DOPE   C3A38265  22.970  17.707  11.526  0.0594 -0.2107 -0.0487
 3261DOPE   C4A38266  22.725  17.791  11.922  0.0713  0.1918 -0.1517
 3261DOPE   C1B38267  22.427  17.461  10.428 -0.0550  0.0755  0.2098
 3261DOPE   D2B38268  22.518  17.074  10.630 -0.0256 -0.0405  0.2231
 3261DOPE   C3B38269  22.406  17.086  11.064  0.1430 -0.1111 -0.1556
 3261DOPE   C4B38270  22.416  17.337  11.465 -0.4378  0.1188  0.2215
 3262DOPC   NC338271  33.809  10.128  10.267 -0.1207 -0.4171  0.0123
 3262DOPC   PO438272  33.535  10.018  10.516 -0.1359 -0.2463  0.0641
 3262DOPC   GL138273  33.576  10.037  10.949 -0.1423  0.0283 -0.2243
 3262DOPC   GL238274  33.383  10.168  10.998  0.1759 -0.2143  0.0804
 3262DOPC   C1A38275  33.871  10.131  11.278  0.3345  0.0564 -0.2484
 3262DOPC   D2A38276  33.907   9.877  11.678  0.1152  0.2719  0.1354
 3262DOPC   C3A38277  33.513   9.825  11.918  0.2029 -0.0534 -0.0618
 3262DOPC   C4A38278  33.358  10.098  12.241 -0.1485 -0.3764 -0.0749
 3262DOPC   C1B38279  33.400  10.209  11.452  0.1921  0.1249  0.0377
 3262DOPC   D2B38280  33.514  10.352  11.854 -0.0206  0.1690 -0.0131
 3262DOPC   C3B38281  33.945  10.187  12.026 -0.1751  0.2196  0.0636
 3262DOPC   C4B38282  34.321  10.375  12.181  0.2244  0.0505  0.3304
 3263POSM   NC338283  33.957  13.894   9.982 -0.0684  0.0669 -0.2171
 3263POSM   PO438284  33.995  14.294   9.980 -0.1151 -0.3454 -0.1077
 3263POSM   AM138285  34.050  14.264  10.290 -0.2023 -0.1387 -0.2231
 3263POSM   AM238286  34.104  14.018  10.422  0.1013 -0.0102  0.1605
 3263POSM   T1A38287  33.853  14.277  10.707  0.2273  0.0306 -0.3994
 3263POSM   C2A38288  33.995  14.079  11.075  0.0739  0.3269  0.0670
 3263POSM   C3A38289  34.002  13.972  11.535 -0.1798  0.0042 -0.0798
 3263POSM   C1B38290  33.965  13.830  10.622 -0.0251  0.0629 -0.0170
 3263POSM   D2B38291  33.575  13.806  10.870 -0.0735  0.3738 -0.0175
 3263POSM   C3B38292  33.505  14.176  11.152  0.1356 -0.2351 -0.3279
 3263POSM   C4B38293  33.782  14.442  11.396  0.0985 -0.0317 -0.0753
 3264POSM   NC338294  27.754  17.754  10.356 -0.0735  0.0174  0.0748
 3264POSM   PO438295  27.544  18.070  10.243  0.0793  0.0259 -0.0490
 3264POSM   AM138296  27.448  18.153  10.560 -0.0358 -0.3762  0.1402
 3264POSM   AM238297  27.494  17.946  10.752  0.1099  0.0220  0.0932
 3264POSM   T1A38298  27.202  18.243  10.989 -0.1854  0.3057 -0.0582
 3264POSM   C2A38299  27.210  18.112  11.436 -0.1471  0.1914  0.0977
 3264POSM   C3A38300  27.478  17.876  11.775  0.3034  0.1809 -0.2025
 3264POSM   C1B38301  27.417  17.816  11.090  0.3102 -0.0469 -0.1046
 3264POSM   D2B38302  27.175  17.543  11.438 -0.0537  0.2381  0.1925
 3264POSM   C3B38303  27.259  17.414  11.883 -0.1001 -0.1127  0.0725
 3264POSM   C4B38304  27.286  17.287  12.343 -0.3720 -0.0010  0.0175
 3265DOPC   NC338305  26.323  33.752  15.050 -0.2389  0.0293  0.1030
 3265DOPC   PO438306  26.335  33.571  14.681  0.2763 -0.0242 -0.2089
 3265DOPC   GL138307  26.353  33.812  14.310 -0.1453 -0.1967  0.3437
 3265DOPC   GL238308  26.587  33.797  14.239  0.1415  0.2202 -0.1711
 3265DOPC   C1A38309  26.148  33.814  13.884 -0.3779  0.2096  0.2192
 3265DOPC   D2A38310  26.181  33.434  13.663  0.1719  0.1598  0.2257
 3265DOPC   C3A38311  26.101  33.250  13.266  0.1221 -0.1632  0.1210
 3265DOPC   C4A38312  26.156  33.074  12.823 -0.2206  0.1903 -0.0013
 3265DOPC   C1B38313  26.699  33.671  13.793 -0.3428 -0.0313  0.1227
 3265DOPC   D2B38314  26.485  33.703  13.342 -0.1217  0.3917 -0.0474
 3265DOPC   C3B38315  26.488  33.579  12.847 -0.2528 -0.2157 -0.0834
 3265DOPC   C4B38316  26.443  33.729  12.433  0.1420 -0.0663  0.2122
 3266DOPC   NC338317  29.859  26.307  14.245 -0.0418  0.3566 -0.0132
 3266DOPC   PO438318  29.521  26.110  14.085 -0.2530 -0.0564 -0.1232
 3266DOPC   GL138319  29.485  26.067  13.704 -0.0085 -0.0567 -0.3108
 3266DOPC   GL238320  29.523  26.331  13.498  0.1398 -0.2361 -0.2211
 3266DOPC   C1A38321  29.076  26.047  13.420 -0.4129  0.1181  0.0798
 3266DOPC   D2A38322  28.654  25.971  13.307 -0.0481  0.1151 -0.1518
 3266DOPC   C3A38323  28.397  25.630  13.287 -0.1941  0.0653  0.1377
 3266DOPC   C4A38324  28.146  25.248  13.116 -0.3577 -0.0064  0.1755
 3266DOPC   C1B38325  29.717  26.326  13.104  0.2945 -0.1062 -0.1966
 3266DOPC   D2B38326  29.928  26.502  12.711 -0.2445  0.2555 -0.0868
 3266DOPC   C3B38327  30.164  26.807  12.947 -0.0358  0.3747 -0.0797
 3266DOPC   C4B38328  30.327  27.013  13.363 -0.0405  0.0652 -0.2238
 3267DOPE   NH338329  30.576  33.246  13.964  0.0555  0.3214  0.3597
 3267DOPE   PO438330  30.843  33.334  13.776  0.0686  0.0932 -0.0061
 3267DOPE   GL138331  30.894  33.274  13.394  0.0273 -0.4012  0.2660
 3267DOPE   GL238332  31.120  33.189  13.198  0.1801 -0.2779 -0.3158
 3267DOPE   C1A38333  30.738  33.097  12.968  0.2316  0.0777 -0.2158
 3267DOPE   D2A38334  30.532  33.219  12.587  0.0685  0.2086  0.0336
 3267DOPE   C3A38335  30.833  33.326  12.243 -0.1408  0.0236 -0.2863
 3267DOPE   C4A38336  30.911  33.726  12.024 -0.2233 -0.0416 -0.1880
 3267DOPE   C1B38337  31.469  33.377  12.972  0.0411  0.1139  0.2252
 3267DOPE   D2B38338  31.583  33.341  12.511 -0.2737 -0.3530 -0.2946
 3267DOPE   C3B38339  31.313  33.333  12.197  0.1108 -0.1503 -0.1563
 3267DOPE   C4B38340  31.196  33.363  11.761  0.0428  0.1140 -0.2322
 3268DOPE   NH338341  25.329  31.879  14.037 -0.0375  0.0388 -0.0591
 3268DOPE   PO438342  25.134  31.999  14.249  0.1292  0.1423  0.0650
 3268DOPE   GL138343  24.940  32.111  13.902  0.2851 -0.1019  0.1005
 3268DOPE   GL238344  25.139  32.272  13.770  0.1297  0.0509 -0.1048
 3268DOPE   C1A38345  24.794  31.835  13.589  0.0163  0.0534  0.1110
 3268DOPE   D2A38346  24.757  31.631  13.224 -0.2706 -0.1861  0.2326
 3268DOPE   C3A38347  24.347  31.771  13.217 -0.1045 -0.0658 -0.0931
 3268DOPE   C4A38348  23.923  31.784  13.332 -0.1988 -0.2738 -0.1391
 3268DOPE   C1B38349  25.261  32.002  13.432 -0.0974 -0.1731 -0.0421
 3268DOPE   D2B38350  25.245  31.618  13.153  0.2441  0.2075  0.0746
 3268DOPE   C3B38351  25.441  31.536  12.743  0.2524  0.0559 -0.0487
 3268DOPE   C4B38352  25.758  31.651  12.397 -0.0548  0.0255 -0.0010
 3269DOPC   NC338353  31.599  33.878  13.186  0.2672 -0.0337  0.0015
 3269DOPC   PO438354  31.723  33.897  13.577 -0.1947  0.0350 -0.2698
 3269DOPC   GL138355  32.017  33.980  13.381 -0.1506 -0.1771  0.3026
 3269DOPC   GL238356  32.090  33.776  13.210 -0.0857  0.1824  0.1002
 3269DOPC   C1A38357  32.143  34.209  12.946  0.1450  0.3246  0.4118
 3269DOPC   D2A38358  32.199  34.053  12.527 -0.1698  0.0043 -0.0516
 3269DOPC   C3A38359  32.024  34.258  12.156 -0.3419  0.0622 -0.2496
 3269DOPC   C4A38360  31.658  34.422  11.903  0.1105  0.0387 -0.0625
 3269DOPC   C1B38361  31.847  33.691  12.834  0.0601  0.1892  0.2699
 3269DOPC   D2B38362  31.736  33.827  12.419  0.0569  0.2548 -0.2301
 3269DOPC   C3B38363  32.043  33.737  12.136 -0.1518 -0.2451 -0.1591
 3269DOPC   C4B38364  32.331  33.845  11.787  0.3291 -0.1873  0.0307
 3270DOPC   NC338365  31.015  30.740  13.438 -0.2399  0.0605 -0.0745
 3270DOPC   PO438366  31.395  30.723  13.568 -0.0231  0.0658 -0.1589
 3270DOPC   GL138367  31.378  30.836  13.160  0.4285  0.3573 -0.2605
 3270DOPC   GL238368  31.679  30.831  13.164 -0.3094  0.0741 -0.1475
 3270DOPC   C1A38369  31.547  31.235  12.894 -0.2408 -0.0643  0.1364
 3270DOPC   D2A38370  31.371  31.542  12.548  0.2910 -0.1851  0.2906
 3270DOPC   C3A38371  31.405  31.452  12.092 -0.2691  0.0162 -0.2330
 3270DOPC   C4A38372  31.419  31.163  11.729 -0.1705  0.0767  0.2591
 3270DOPC   C1B38373  31.605  30.609  12.793  0.2381 -0.2084 -0.0632
 3270DOPC   D2B38374  31.168  30.503  12.507 -0.4635  0.1694  0.1615
 3270DOPC   C3B38375  31.005  30.788  12.249  0.2142 -0.1241 -0.1880
 3270DOPC   C4B38376  30.970  30.823  11.848 -0.0449  0.2524  0.1209
 3271POSM   NC338377  25.440  24.266  14.609 -0.1453  0.1289 -0.1745
 3271POSM   PO438378  25.785  24.439  14.550  0.2347 -0.0302 -0.1781
 3271POSM   AM138379  25.715  24.502  14.249 -0.2934 -0.0100 -0.3410
 3271POSM   AM238380  25.819  24.441  13.972 -0.1240  0.1246 -0.0975
 3271POSM   T1A38381  25.456  24.742  13.898 -0.0285  0.2520 -0.0360
 3271POSM   C2A38382  25.013  25.001  13.818  0.0752 -0.1328 -0.1362
 3271POSM   C3A38383  24.755  25.233  13.577  0.2482  0.2497 -0.0704
 3271POSM   C1B38384  25.628  24.327  13.726  0.0282  0.4282  0.1204
 3271POSM   D2B38385  25.452  24.163  13.324 -0.0745 -0.0037  0.3650
 3271POSM   C3B38386  25.696  24.287  13.008 -0.0258  0.1388 -0.0376
 3271POSM   C4B38387  25.711  24.312  12.510 -0.2543 -0.1249  0.3697
 3272DOPS   CNO38388  31.902  33.073  13.960  0.2038  0.1644  0.0975
 3272DOPS   PO438389  31.715  33.009  13.666 -0.2106 -0.2188  0.0307
 3272DOPS   GL138390  31.885  32.922  13.260 -0.2465 -0.0177 -0.0102
 3272DOPS   GL238391  31.611  32.902  13.127  0.1586  0.0043  0.1140
 3272DOPS   C1A38392  32.023  33.197  12.929  0.0673 -0.1585 -0.2157
 3272DOPS   D2A38393  32.142  33.395  12.546 -0.1487  0.0677  0.2063
 3272DOPS   C3A38394  31.947  33.159  12.208 -0.0383 -0.0161  0.0493
 3272DOPS   C4A38395  32.045  33.281  11.794 -0.2789 -0.0380 -0.1882
 3272DOPS   C1B38396  31.558  32.474  12.965  0.2891  0.2047  0.2753
 3272DOPS   D2B38397  31.750  32.374  12.534 -0.0125  0.0201 -0.1061
 3272DOPS   C3B38398  31.691  32.226  12.057 -0.2147  0.1845  0.0032
 3272DOPS   C4B38399  31.848  32.117  11.633 -0.1234  0.2129 -0.3287
 3273DOPC   NC338400  26.192  24.204  14.414 -0.2919 -0.0337  0.0391
 3273DOPC   PO438401  26.211  24.146  14.024 -0.0334 -0.0955  0.1541
 3273DOPC   GL138402  26.227  24.176  13.686  0.1362 -0.0282 -0.3056
 3273DOPC   GL238403  26.501  24.207  13.562 -0.1639 -0.3108  0.0243
 3273DOPC   C1A38404  25.982  23.974  13.297  0.1750  0.2338 -0.0908
 3273DOPC   D2A38405  25.661  23.731  13.165 -0.0362 -0.0846  0.1494
 3273DOPC   C3A38406  25.376  23.831  12.790  0.2310  0.1879  0.0022
 3273DOPC   C4A38407  25.264  24.107  12.422  0.1880  0.2904 -0.1246
 3273DOPC   C1B38408  26.451  23.976  13.144 -0.2145 -0.1037  0.2461
 3273DOPC   D2B38409  26.578  23.990  12.653  0.0395 -0.3148  0.1735
 3273DOPC   C3B38410  26.916  23.723  12.450  0.1565 -0.1357  0.1322
 3273DOPC   C4B38411  27.172  23.577  12.105 -0.0128  0.1485 -0.0972
 3274DOPE   NH338412  22.893  28.300  13.771  0.2792  0.1207 -0.0929
 3274DOPE   PO438413  23.143  28.263  13.669 -0.0380 -0.2474  0.1277
 3274DOPE   GL138414  22.871  28.302  13.292 -0.0769  0.1186  0.1398
 3274DOPE   GL238415  22.626  28.411  13.345 -0.0372 -0.0475 -0.1504
 3274DOPE   C1A38416  22.825  28.451  12.835 -0.4171 -0.0197  0.0470
 3274DOPE   D2A38417  22.952  28.329  12.399 -0.2195 -0.1356  0.0353
 3274DOPE   C3A38418  23.180  28.717  12.263  0.2287  0.2575  0.1470
 3274DOPE   C4A38419  23.293  29.042  11.956  0.0874 -0.0375  0.0182
 3274DOPE   C1B38420  22.341  28.493  12.988 -0.0046  0.1611  0.0123
 3274DOPE   D2B38421  22.116  28.352  12.616  0.0507  0.0406 -0.1798
 3274DOPE   C3B38422  21.906  27.989  12.464  0.0030  0.1392  0.1294
 3274DOPE   C4B38423  21.471  27.804  12.438 -0.4063  0.1675  0.0177
 3275POSM   NC338424  29.623  33.511  13.737 -0.2264  0.4469 -0.2711
 3275POSM   PO438425  29.360  33.642  13.515  0.2344 -0.1275  0.0932
 3275POSM   AM138426  29.253  33.408  13.291  0.1457  0.3231 -0.0375
 3275POSM   AM238427  29.011  33.327  13.206  0.1801 -0.3183 -0.0960
 3275POSM   T1A38428  29.245  33.302  12.780  0.2991 -0.0185 -0.1760
 3275POSM   C2A38429  28.947  33.007  12.597 -0.0191 -0.0030 -0.0790
 3275POSM   C3A38430  28.712  32.793  12.273 -0.1031  0.0990 -0.0703
 3275POSM   C1B38431  28.770  33.429  12.943  0.2967 -0.1428 -0.1699
 3275POSM   D2B38432  28.380  33.571  12.799 -0.4027  0.0926  0.1460
 3275POSM   C3B38433  28.144  33.596  12.411 -0.0440 -0.0493 -0.0193
 3275POSM   C4B38434  27.703  33.529  12.246  0.1119 -0.1230  0.0825
 3276DOPS   CNO38435  28.419  34.294  14.003 -0.1938 -0.1824 -0.2033
 3276DOPS   PO438436  28.080  34.447  14.004  0.0409  0.2683 -0.1538
 3276DOPS   GL138437  28.294  34.602  13.712 -0.4600  0.3237  0.2344
 3276DOPS   GL238438  28.352  34.423  13.498 -0.2100  0.0789 -0.0734
 3276DOPS   C1A38439  28.150  34.966  13.457 -0.1119  0.0714 -0.1562
 3276DOPS   D2A38440  27.889  35.387  13.342  0.0142 -0.1692  0.2942
 3276DOPS   C3A38441  27.930  35.414  12.839  0.1719 -0.1749 -0.2080
 3276DOPS   C4A38442  27.940  35.645  12.464 -0.1964 -0.3940  0.3624
 3276DOPS   C1B38443  28.093  34.565  13.143  0.1939  0.0824 -0.1609
 3276DOPS   D2B38444  27.964  34.580  12.677  0.3244  0.0219  0.1838
 3276DOPS   C3B38445  27.607  34.715  12.342  0.2135  0.2488  0.3348
 3276DOPS   C4B38446  27.516  35.068  12.132  0.0623  0.0775 -0.1850
 3277DOPC   NC338447  30.361  27.452  13.602 -0.2117 -0.3634  0.3800
 3277DOPC   PO438448  30.114  27.347  13.876  0.0970  0.0098  0.2118
 3277DOPC   GL138449  29.854  27.280  13.605 -0.2675  0.2411  0.0218
 3277DOPC   GL238450  29.954  27.359  13.313  0.1538  0.0670  0.1264
 3277DOPC   C1A38451  29.736  26.926  13.300 -0.1405 -0.0587 -0.0409
 3277DOPC   D2A38452  29.631  26.830  12.911  0.2670  0.2578 -0.0560
 3277DOPC   C3A38453  29.406  26.614  12.606  0.1379 -0.0099  0.0262
 3277DOPC   C4A38454  29.256  26.474  12.156 -0.1530  0.1179 -0.0242
 3277DOPC   C1B38455  29.724  27.359  12.916  0.2049 -0.4743 -0.0581
 3277DOPC   D2B38456  29.398  27.118  12.643 -0.0366 -0.1197 -0.0583
 3277DOPC   C3B38457  29.157  27.235  12.313 -0.0581  0.1058  0.1808
 3277DOPC   C4B38458  28.983  27.138  11.882  0.0720  0.0470  0.0646
 3278DOPE   NH338459  25.729  27.833  14.118 -0.0171  0.1002 -0.2961
 3278DOPE   PO438460  25.606  27.730  13.824 -0.1200 -0.0347 -0.3190
 3278DOPE   GL138461  25.521  27.824  13.440  0.2769 -0.4229  0.0980
 3278DOPE   GL238462  25.392  28.086  13.423 -0.2847  0.0648  0.1200
 3278DOPE   C1A38463  25.621  27.985  13.007 -0.3906  0.0698  0.2379
 3278DOPE   D2A38464  25.704  28.061  12.555  0.1742  0.1589 -0.0516
 3278DOPE   C3A38465  25.864  27.709  12.231 -0.0943 -0.1233 -0.0583
 3278DOPE   C4A38466  26.102  27.320  12.034 -0.1963  0.1738  0.3411
 3278DOPE   C1B38467  25.424  28.429  13.220  0.0670 -0.0859  0.2302
 3278DOPE   D2B38468  25.349  28.796  12.961  0.1448 -0.1273  0.1473
 3278DOPE   C3B38469  25.032  28.819  12.595 -0.0793  0.4293  0.2321
 3278DOPE   C4B38470  24.805  28.528  12.331  0.0028 -0.0967 -0.1446
 3279DOPE   NH338471  26.613  27.410  13.896  0.0231 -0.1847 -0.1769
 3279DOPE   PO438472  26.813  27.135  13.952  0.0668  0.3283  0.2626
 3279DOPE   GL138473  26.993  27.349  13.608  0.0955 -0.5193  0.0048
 3279DOPE   GL238474  27.077  27.632  13.676 -0.0538 -0.1462  0.0223
 3279DOPE   C1A38475  26.970  27.324  13.196 -0.0922 -0.1285  0.2739
 3279DOPE   D2A38476  26.768  27.195  12.783  0.0868 -0.0455 -0.2008
 3279DOPE   C3A38477  26.689  27.421  12.441 -0.1373  0.2769  0.0993
 3279DOPE   C4A38478  26.463  27.685  12.152 -0.0927 -0.2531 -0.0877
 3279DOPE   C1B38479  26.749  27.768  13.361 -0.1086  0.3119 -0.1521
 3279DOPE   D2B38480  26.708  28.108  13.063  0.0046 -0.0224 -0.0040
 3279DOPE   C3B38481  26.472  27.972  12.646 -0.0492 -0.0007 -0.1162
 3279DOPE   C4B38482  26.204  28.050  12.305 -0.3412  0.1039 -0.0552
 3280DOPC   NC338483  27.453  32.893  13.833  0.0114 -0.1997 -0.2833
 3280DOPC   PO438484  27.823  32.953  14.005 -0.0034 -0.0036  0.0026
 3280DOPC   GL138485  27.893  33.121  13.616  0.1042  0.1926  0.3028
 3280DOPC   GL238486  27.611  33.331  13.491 -0.2372  0.1627  0.1741
 3280DOPC   C1A38487  27.867  32.975  13.198  0.0496  0.2664  0.0548
 3280DOPC   D2A38488  27.897  33.173  12.753 -0.0090  0.1634 -0.0256
 3280DOPC   C3A38489  27.878  33.066  12.307 -0.2507  0.1892 -0.4980
 3280DOPC   C4A38490  27.681  33.044  11.921  0.2663  0.0347 -0.1170
 3280DOPC   C1B38491  27.517  33.296  13.084 -0.0740 -0.0319  0.2177
 3280DOPC   D2B38492  27.397  33.263  12.662 -0.2359  0.1218 -0.0874
 3280DOPC   C3B38493  27.275  32.860  12.476 -0.2058  0.1009 -0.1280
 3280DOPC   C4B38494  26.981  32.528  12.250 -0.0984  0.1440  0.2336
 3281POSM   NC338495  34.409  32.264  13.582  0.1082 -0.2470 -0.0133
 3281POSM   PO438496  34.383  31.887  13.487 -0.1164  0.0450 -0.0613
 3281POSM   AM138497  34.403  31.845  13.169 -0.4489  0.2203 -0.3357
 3281POSM   AM238498  34.545  32.010  12.999  0.2153  0.1887 -0.0360
 3281POSM   T1A38499  34.517  31.524  12.803 -0.1042 -0.2062 -0.0563
 3281POSM   C2A38500  34.707  31.567  12.396 -0.3317  0.1335 -0.1561
 3281POSM   C3A38501  34.646  31.492  11.954 -0.2406  0.1702 -0.0125
 3281POSM   C1B38502  34.765  32.047  12.707  0.1477 -0.0125  0.0323
 3281POSM   D2B38503  34.934  31.971  12.332  0.0869  0.2187 -0.0959
 3281POSM   C3B38504  35.151  31.675  11.977  0.0109  0.0699 -0.3528
 3281POSM   C4B38505  35.274  31.523  11.588 -0.1754 -0.1135 -0.1292
 3282DOPE   NH338506  23.272  34.331  14.274 -0.3238  0.2034  0.2317
 3282DOPE   PO438507  23.022  34.150  14.369  0.0575  0.3042  0.3092
 3282DOPE   GL138508  22.815  34.146  13.932 -0.1981 -0.1074 -0.1579
 3282DOPE   GL238509  22.989  34.413  13.902  0.0178 -0.1283 -0.1053
 3282DOPE   C1A38510  22.645  34.129  13.495  0.0342 -0.0084  0.1448
 3282DOPE   D2A38511  22.595  33.993  13.076  0.0058 -0.0547 -0.0781
 3282DOPE   C3A38512  22.617  34.219  12.619 -0.1743  0.0237 -0.1933
 3282DOPE   C4A38513  22.859  34.397  12.259  0.0189 -0.0862  0.2206
 3282DOPE   C1B38514  23.206  34.476  13.488  0.0262  0.0118  0.0180
 3282DOPE   D2B38515  23.258  34.933  13.311 -0.0839  0.0391 -0.0917
 3282DOPE   C3B38516  22.987  35.000  12.964 -0.2915  0.0791 -0.1897
 3282DOPE   C4B38517  22.772  35.061  12.548  0.0774  0.0885  0.2051
 3283DOPS   CNO38518  26.753  22.682  13.703 -0.0160 -0.1065 -0.0262
 3283DOPS   PO438519  26.761  22.286  13.771  0.2072 -0.1587 -0.0695
 3283DOPS   GL138520  26.583  22.226  13.488 -0.3486 -0.0889  0.0178
 3283DOPS   GL238521  26.398  22.430  13.468  0.0082  0.1218  0.0132
 3283DOPS   C1A38522  26.558  22.005  13.088  0.1440  0.0373 -0.2301
 3283DOPS   D2A38523  26.457  21.715  12.726 -0.2262 -0.1840  0.0025
 3283DOPS   C3A38524  26.727  21.504  12.438 -0.3409  0.0063 -0.1935
 3283DOPS   C4A38525  27.138  21.497  12.156  0.4348  0.1067 -0.1577
 3283DOPS   C1B38526  26.114  22.276  13.112  0.0697  0.0898 -0.2684
 3283DOPS   D2B38527  25.841  22.424  12.727 -0.0274  0.3547 -0.0372
 3283DOPS   C3B38528  25.790  22.353  12.270  0.1893  0.2639  0.2006
 3283DOPS   C4B38529  25.661  22.103  11.900 -0.0831 -0.0314  0.0228
 3284POSM   NC338530  30.026  32.230  14.215  0.1508  0.1021 -0.2383
 3284POSM   PO438531  29.876  32.095  13.882 -0.0758  0.1132 -0.1272
 3284POSM   AM138532  29.988  32.121  13.591  0.2024  0.1182  0.1733
 3284POSM   AM238533  29.911  31.987  13.370 -0.0056  0.0121  0.2648
 3284POSM   T1A38534  30.354  32.300  13.273  0.3122  0.1167 -0.3402
 3284POSM   C2A38535  30.690  32.471  13.129  0.2906 -0.0945  0.2096
 3284POSM   C3A38536  30.709  32.573  12.700  0.1873  0.1795 -0.1197
 3284POSM   C1B38537  29.957  32.121  13.067  0.0000  0.3429 -0.0822
 3284POSM   D2B38538  29.830  32.101  12.617  0.2262  0.3816  0.0932
 3284POSM   C3B38539  29.755  31.893  12.187 -0.1483 -0.0657 -0.2785
 3284POSM   C4B38540  29.653  31.917  11.790  0.2798  0.0551 -0.2021
 3285POSM   NC338541  25.819  30.048  14.345  0.0209  0.2108 -0.0118
 3285POSM   PO438542  25.855  29.984  13.953  0.0906  0.1413 -0.1989
 3285POSM   AM138543  25.769  30.146  13.721 -0.3200 -0.0597 -0.1765
 3285POSM   AM238544  25.822  30.032  13.448  0.0838  0.3374 -0.3474
 3285POSM   T1A38545  25.463  30.415  13.446 -0.0995 -0.1392  0.0515
 3285POSM   C2A38546  25.252  30.647  13.103 -0.1139  0.0793  0.0243
 3285POSM   C3A38547  25.233  30.951  12.779 -0.3279  0.0490 -0.0209
 3285POSM   C1B38548  25.839  30.239  13.157 -0.2434 -0.0193 -0.1899
 3285POSM   D2B38549  26.114  30.400  12.876  0.1659  0.5238  0.0467
 3285POSM   C3B38550  26.124  30.798  12.677  0.0205  0.4075  0.0732
 3285POSM   C4B38551  26.095  30.924  12.270 -0.0612  0.0243  0.2179
 3286DOPC   NC338552  24.369  21.793  13.884 -0.3349 -0.1231 -0.0818
 3286DOPC   PO438553  24.702  21.975  13.799  0.0220 -0.0305  0.1363
 3286DOPC   GL138554  24.832  21.964  13.517 -0.2031  0.1663  0.0626
 3286DOPC   GL238555  24.667  22.172  13.318 -0.2956  0.0069 -0.2316
 3286DOPC   C1A38556  24.804  21.769  13.083  0.0398  0.0375  0.1702
 3286DOPC   D2A38557  24.680  21.517  12.705  0.0661  0.0210  0.1279
 3286DOPC   C3A38558  24.562  21.536  12.269  0.1049 -0.0239 -0.0239
 3286DOPC   C4A38559  24.537  21.505  11.804  0.3259  0.0986 -0.3232
 3286DOPC   C1B38560  24.491  22.121  12.921 -0.1924 -0.3059  0.0736
 3286DOPC   D2B38561  24.338  21.989  12.520  0.0341  0.1056  0.2644
 3286DOPC   C3B38562  23.917  21.776  12.538 -0.0017 -0.1925 -0.0176
 3286DOPC   C4B38563  23.615  21.485  12.729  0.2534 -0.0421  0.2243
 3287DOPS   CNO38564  29.733  28.968  14.003 -0.1672 -0.3120 -0.2133
 3287DOPS   PO438565  29.757  28.860  13.650 -0.0346  0.1622  0.0452
 3287DOPS   GL138566  29.520  29.000  13.303  0.1545  0.0136  0.1964
 3287DOPS   GL238567  29.623  28.748  13.206 -0.0668 -0.0883 -0.0654
 3287DOPS   C1A38568  29.175  29.167  12.984  0.2582 -0.1886 -0.2079
 3287DOPS   D2A38569  28.987  29.037  12.559 -0.1288 -0.2198  0.0783
 3287DOPS   C3A38570  29.298  29.197  12.234  0.1672 -0.1890  0.1876
 3287DOPS   C4A38571  29.260  29.164  11.769  0.1042  0.3067  0.0672
 3287DOPS   C1B38572  29.604  28.354  13.006 -0.3007 -0.2949 -0.2174
 3287DOPS   D2B38573  29.377  28.111  12.783  0.1802  0.1760  0.1430
 3287DOPS   C3B38574  29.337  27.703  12.977 -0.0268  0.0190 -0.2616
 3287DOPS   C4B38575  29.249  27.225  13.082  0.0898 -0.0220 -0.1507
 3288DOPE   NH338576  29.155  33.118  13.627 -0.0825  0.1255 -0.2492
 3288DOPE   PO438577  28.851  33.215  13.711 -0.3039  0.0437  0.2706
 3288DOPE   GL138578  28.642  33.107  13.423 -0.1576 -0.2977  0.3523
 3288DOPE   GL238579  28.309  32.991  13.448 -0.0122  0.0249 -0.2581
 3288DOPE   C1A38580  28.770  32.908  13.060  0.1393 -0.0259 -0.1468
 3288DOPE   D2A38581  28.633  32.600  12.702 -0.0028  0.0241 -0.0850
 3288DOPE   C3A38582  28.168  32.679  12.692  0.0054  0.0039 -0.1460
 3288DOPE   C4A38583  27.777  32.563  12.489  0.1411 -0.0842 -0.1360
 3288DOPE   C1B38584  28.300  33.006  13.003 -0.0882  0.0917 -0.0099
 3288DOPE   D2B38585  28.439  33.119  12.596  0.3108  0.1925  0.0483
 3288DOPE   C3B38586  28.332  33.168  12.187 -0.0865  0.2491  0.0825
 3288DOPE   C4B38587  28.615  33.412  11.888 -0.2470  0.1434  0.3255
 3289POSM   NC338588  30.850  30.113  13.949 -0.1280 -0.1707 -0.1796
 3289POSM   PO438589  30.555  30.307  13.763 -0.0077 -0.0011  0.1836
 3289POSM   AM138590  30.498  30.446  13.478  0.0221 -0.2109  0.1154
 3289POSM   AM238591  30.471  30.728  13.382  0.1699  0.0659  0.3013
 3289POSM   T1A38592  30.434  30.401  13.027 -0.1969 -0.1505  0.1786
 3289POSM   C2A38593  30.203  30.606  12.682 -0.0104 -0.2822  0.0513
 3289POSM   C3A38594  29.800  30.738  12.628  0.2243  0.0453  0.0136
 3289POSM   C1B38595  30.263  30.887  13.123  0.0924  0.0827  0.2335
 3289POSM   D2B38596  30.366  31.091  12.702  0.0830  0.2898 -0.0593
 3289POSM   C3B38597  30.406  31.225  12.243 -0.3264  0.0109  0.1921
 3289POSM   C4B38598  30.409  31.043  11.819  0.1666 -0.1280  0.0679
 3290POSM   NC338599  30.227  25.931  14.102 -0.2009  0.1420 -0.0420
 3290POSM   PO438600  30.330  26.315  14.113  0.2011  0.0950  0.3636
 3290POSM   AM138601  30.278  26.493  13.839  0.0606 -0.0601  0.0575
 3290POSM   AM238602  30.088  26.733  13.730  0.0141 -0.1059 -0.1108
 3290POSM   T1A38603  30.608  26.576  13.477  0.1003  0.0493 -0.0377
 3290POSM   C2A38604  30.702  26.842  13.046  0.0585  0.0205 -0.0804
 3290POSM   C3A38605  30.934  27.061  12.711  0.0013 -0.0581  0.0334
 3290POSM   C1B38606  30.093  26.558  13.411  0.1375 -0.4186  0.0917
 3290POSM   D2B38607  30.250  26.313  13.096  0.0148  0.0791  0.0316
 3290POSM   C3B38608  30.092  25.972  12.825 -0.0440 -0.2892  0.0496
 3290POSM   C4B38609  29.942  25.820  12.427  0.0291  0.0716 -0.2042
 3291DOPC   NC338610  24.725  30.767  13.929  0.2220  0.2654  0.1227
 3291DOPC   PO438611  24.856  31.149  13.991  0.3335 -0.0458  0.3648
 3291DOPC   GL138612  24.829  30.998  13.577 -0.0775 -0.1861 -0.3507
 3291DOPC   GL238613  24.619  30.933  13.406  0.1306 -0.1900  0.1507
 3291DOPC   C1A38614  24.997  31.196  13.232 -0.2440  0.2577  0.2090
 3291DOPC   D2A38615  24.911  31.366  12.815 -0.2985 -0.0282  0.1759
 3291DOPC   C3A38616  24.817  31.365  12.425 -0.2067 -0.0038 -0.2447
 3291DOPC   C4A38617  24.785  31.253  11.992  0.2774 -0.0136 -0.1162
 3291DOPC   C1B38618  24.739  30.862  13.016  0.1101 -0.3369 -0.1544
 3291DOPC   D2B38619  24.836  30.518  12.758  0.0582 -0.1212  0.1830
 3291DOPC   C3B38620  24.674  30.454  12.314 -0.1550  0.1159  0.0569
 3291DOPC   C4B38621  24.300  30.578  12.075 -0.1256 -0.2775 -0.0912
 3292DOPC   NC338622  24.352  22.773  13.870 -0.0872  0.1134 -0.1671
 3292DOPC   PO438623  24.366  23.167  13.962  0.0534  0.2854 -0.0154
 3292DOPC   GL138624  24.676  23.189  13.701 -0.1893  0.0571 -0.0315
 3292DOPC   GL238625  24.662  23.455  13.722 -0.2730 -0.2496 -0.1558
 3292DOPC   C1A38626  25.053  23.204  13.458  0.2692 -0.1236  0.0901
 3292DOPC   D2A38627  25.223  23.403  13.124  0.2173 -0.1139 -0.0805
 3292DOPC   C3A38628  24.889  23.619  12.919  0.1101  0.1299  0.3317
 3292DOPC   C4A38629  24.475  23.682  12.785 -0.2058 -0.2076 -0.0760
 3292DOPC   C1B38630  24.611  23.405  13.295  0.2330 -0.0044 -0.6138
 3292DOPC   D2B38631  24.540  23.099  13.000 -0.0429  0.0195  0.2170
 3292DOPC   C3B38632  24.986  23.083  12.820 -0.2141 -0.2878 -0.3086
 3292DOPC   C4B38633  25.379  23.327  12.679  0.0587 -0.2122 -0.6892
 3293POSM   NC338634  26.658  25.161  14.235  0.3313 -0.0555 -0.1429
 3293POSM   PO438635  26.893  24.814  14.376  0.1317 -0.3881  0.1674
 3293POSM   AM138636  26.932  24.743  14.064  0.1863  0.3594  0.0738
 3293POSM   AM238637  26.820  24.893  13.833 -0.0596  0.1434  0.0381
 3293POSM   T1A38638  26.961  24.312  13.801 -0.1289 -0.2874 -0.1576
 3293POSM   C2A38639  26.921  23.839  13.670  0.1481 -0.1415 -0.1249
 3293POSM   C3A38640  26.899  23.588  13.286 -0.4531 -0.2402  0.0140
 3293POSM   C1B38641  26.960  24.726  13.585  0.2149 -0.1659 -0.1870
 3293POSM   D2B38642  26.828  24.426  13.269 -0.0826  0.1989 -0.0168
 3293POSM   C3B38643  26.795  24.628  12.834  0.1048  0.1029 -0.2982
 3293POSM   C4B38644  26.476  24.793  12.498  0.4058 -0.0945 -0.0494
 3294POSM   NC338645  33.294  29.591  13.011 -0.3332  0.0964 -0.1619
 3294POSM   PO438646  33.062  29.306  12.956  0.2233  0.1736 -0.0176
 3294POSM   AM138647  33.063  29.409  12.634  0.0100 -0.1272  0.1859
 3294POSM   AM238648  33.066  29.676  12.514 -0.1902 -0.0058 -0.0259
 3294POSM   T1A38649  33.281  29.226  12.247  0.3493  0.3570  0.0267
 3294POSM   C2A38650  33.438  29.191  11.811 -0.0110 -0.2739  0.2087
 3294POSM   C3A38651  33.824  29.033  11.587 -0.1290  0.3067  0.3900
 3294POSM   C1B38652  33.426  29.782  12.428 -0.2000 -0.0183  0.2640
 3294POSM   D2B38653  33.655  29.889  12.013 -0.0675  0.0617 -0.0366
 3294POSM   C3B38654  34.111  29.866  11.932  0.0107 -0.0282  0.2900
 3294POSM   C4B38655  34.576  29.992  11.908  0.2065  0.0406  0.1650
 3295DOPE   NH338656  32.328  30.809  13.329  0.0588  0.4431 -0.1387
 3295DOPE   PO438657  32.128  30.598  13.188  0.0614  0.1428  0.2580
 3295DOPE   GL138658  32.105  30.901  12.973  0.2597  0.0835  0.4503
 3295DOPE   GL238659  32.342  30.845  12.734 -0.1666  0.0463  0.1480
 3295DOPE   C1A38660  31.888  31.101  12.659 -0.0757 -0.0559  0.1476
 3295DOPE   D2A38661  31.893  31.319  12.271 -0.0619 -0.2207  0.1796
 3295DOPE   C3A38662  31.819  31.598  11.901 -0.0731  0.0753 -0.1498
 3295DOPE   C4A38663  32.132  31.719  11.529  0.0221 -0.2937  0.0993
 3295DOPE   C1B38664  32.221  30.923  12.295 -0.0666  0.1144  0.2455
 3295DOPE   D2B38665  32.320  30.815  11.829 -0.0519  0.2111 -0.0898
 3295DOPE   C3B38666  32.707  30.768  11.626  0.0321  0.0118 -0.2173
 3295DOPE   C4B38667  32.999  30.668  11.229 -0.5217  0.3107  0.0456
 3296DOPC   NC338668  28.513  33.580  13.382  0.0443 -0.2735  0.0041
 3296DOPC   PO438669  28.355  33.443  13.748  0.0971 -0.0569  0.0076
 3296DOPC   GL138670  28.046  33.624  13.457  0.4619  0.2715  0.0829
 3296DOPC   GL238671  28.053  33.396  13.249  0.1459  0.0185  0.0146
 3296DOPC   C1A38672  27.612  33.824  13.353 -0.0546  0.0236  0.0330
 3296DOPC   D2A38673  27.274  33.982  13.020 -0.0489 -0.0962 -0.2677
 3296DOPC   C3A38674  27.012  33.971  12.655 -0.1430  0.0698  0.0568
 3296DOPC   C4A38675  26.613  34.172  12.468 -0.0203  0.2678 -0.1722
 3296DOPC   C1B38676  27.864  33.631  12.897 -0.1539 -0.0041  0.1112
 3296DOPC   D2B38677  27.454  33.731  12.669  0.1998  0.2263  0.0597
 3296DOPC   C3B38678  27.180  33.562  12.325 -0.4235  0.0192 -0.2256
 3296DOPC   C4B38679  26.929  33.691  12.011 -0.0627 -0.2701 -0.0744
 3297DOPE   NH338680  30.196  30.647  13.737  0.1235 -0.0440 -0.2772
 3297DOPE   PO438681  30.022  30.392  13.819 -0.0339  0.0600 -0.0852
 3297DOPE   GL138682  30.099  30.262  13.397  0.2334  0.1428  0.2234
 3297DOPE   GL238683  30.007  30.485  13.290 -0.0230  0.1316 -0.0235
 3297DOPE   C1A38684  30.085  29.962  13.095 -0.0650  0.0463  0.5382
 3297DOPE   D2A38685  30.104  29.648  12.799  0.3594  0.1031 -0.1603
 3297DOPE   C3A38686  30.146  29.521  12.339  0.3961  0.0794  0.4540
 3297DOPE   C4A38687  29.794  29.348  12.012  0.1943  0.2779 -0.1536
 3297DOPE   C1B38688  29.741  30.311  13.010 -0.2089  0.0419 -0.0581
 3297DOPE   D2B38689  29.355  30.415  12.729 -0.0899 -0.1400  0.0750
 3297DOPE   C3B38690  29.057  30.119  12.623 -0.1442  0.0018 -0.1648
 3297DOPE   C4B38691  28.775  30.017  12.277  0.0347  0.3283  0.0344
 3298DOPE   NH338692  31.438  28.074  13.500  0.0444  0.2902  0.1106
 3298DOPE   PO438693  31.213  27.817  13.408 -0.3317  0.1059 -0.0198
 3298DOPE   GL138694  31.212  27.999  13.123  0.1194 -0.2242 -0.0702
 3298DOPE   GL238695  30.950  27.814  13.001 -0.1954  0.1191  0.1976
 3298DOPE   C1A38696  31.324  27.899  12.676  0.1938 -0.2177  0.0383
 3298DOPE   D2A38697  31.198  27.937  12.307  0.2131  0.0705  0.0478
 3298DOPE   C3A38698  30.802  28.087  12.288 -0.2964 -0.2625 -0.0534
 3298DOPE   C4A38699  30.388  28.311  12.353  0.1133  0.2387 -0.0746
 3298DOPE   C1B38700  30.862  27.592  12.607  0.0047 -0.0740 -0.0260
 3298DOPE   D2B38701  30.748  27.603  12.156  0.0392  0.0157  0.2091
 3298DOPE   C3B38702  30.936  27.272  11.856 -0.2085  0.4403  0.1785
 3298DOPE   C4B38703  31.089  26.949  11.512 -0.1230 -0.0048 -0.0539
 3299DOPE   NH338704  27.296  27.191  13.862  0.1005  0.3174  0.1405
 3299DOPE   PO438705  27.507  27.478  13.851  0.2675  0.1287  0.0522
 3299DOPE   GL138706  27.513  27.492  13.467  0.0762 -0.1209 -0.1928
 3299DOPE   GL238707  27.432  27.208  13.336 -0.2121 -0.1637 -0.0989
 3299DOPE   C1A38708  27.314  27.670  13.070 -0.0928  0.0986  0.1589
 3299DOPE   D2A38709  26.974  27.710  12.766 -0.1806 -0.1824  0.1745
 3299DOPE   C3A38710  27.051  27.711  12.312  0.1798  0.2647  0.0622
 3299DOPE   C4A38711  27.000  27.392  11.984 -0.3034 -0.2814  0.1228
 3299DOPE   C1B38712  27.416  26.835  13.019 -0.0336 -0.0281  0.1237
 3299DOPE   D2B38713  27.463  26.671  12.595 -0.1122 -0.0380 -0.1451
 3299DOPE   C3B38714  27.353  26.189  12.490  0.1473  0.1295 -0.0005
 3299DOPE   C4B38715  27.284  25.912  12.064 -0.1741  0.1575  0.0828
 3300DOPS   CNO38716  23.605  29.254  14.140 -0.3374  0.2709  0.2170
 3300DOPS   PO438717  23.381  29.007  13.973  0.3223  0.2714  0.1380
 3300DOPS   GL138718  23.201  28.796  13.731  0.0027 -0.4590 -0.0485
 3300DOPS   GL238719  22.866  28.803  13.726  0.0162  0.0666  0.1788
 3300DOPS   C1A38720  23.051  28.756  13.275 -0.5489  0.1019 -0.1978
 3300DOPS   D2A38721  22.710  28.882  13.003  0.1033 -0.0695  0.3608
 3300DOPS   C3A38722  22.777  28.947  12.548 -0.0278  0.2465 -0.0304
 3300DOPS   C4A38723  22.765  28.952  12.109  0.0090  0.0392 -0.0136
 3300DOPS   C1B38724  22.688  29.164  13.556  0.0947  0.1560  0.0047
 3300DOPS   D2B38725  22.698  29.449  13.199  0.1518  0.2823  0.0421
 3300DOPS   C3B38726  22.756  29.401  12.740  0.1108 -0.0356  0.1005
 3300DOPS   C4B38727  22.405  29.321  12.489 -0.3330 -0.2814  0.1668
 3301DOPE   NH338728  26.713  31.930  14.383 -0.0458 -0.1518 -0.2673
 3301DOPE   PO438729  26.957  31.928  14.212 -0.3426 -0.0739  0.3800
 3301DOPE   GL138730  26.792  32.043  13.812  0.0184 -0.1517 -0.6056
 3301DOPE   GL238731  26.567  31.809  13.776  0.2716 -0.4224  0.2945
 3301DOPE   C1A38732  26.966  32.079  13.433 -0.6457 -0.2467  0.0899
 3301DOPE   D2A38733  27.158  32.274  13.072  0.1335 -0.1405 -0.2237
 3301DOPE   C3A38734  26.904  32.507  12.768 -0.0129  0.0927  0.1328
 3301DOPE   C4A38735  26.648  32.865  12.672  0.1348  0.2719  0.0577
 3301DOPE   C1B38736  26.881  31.508  13.683  0.1309  0.2750  0.1143
 3301DOPE   D2B38737  27.297  31.623  13.495  0.0564  0.0069  0.1957
 3301DOPE   C3B38738  27.163  31.570  13.018  0.0709 -0.1210  0.1593
 3301DOPE   C4B38739  26.964  31.209  12.796 -0.0912  0.0621  0.2260
 3302DOPE   NH338740  24.183  28.230  13.554 -0.0330 -0.0343 -0.1167
 3302DOPE   PO438741  24.503  28.218  13.536  0.2777 -0.0532 -0.1599
 3302DOPE   GL138742  24.412  28.343  13.196  0.1564  0.2207  0.2740
 3302DOPE   GL238743  24.297  28.147  13.077 -0.3816 -0.2318  0.2423
 3302DOPE   C1A38744  24.743  28.454  12.844 -0.2517  0.0953  0.1008
 3302DOPE   D2A38745  25.195  28.360  12.730  0.0902  0.2358 -0.3864
 3302DOPE   C3A38746  25.259  28.311  12.304  0.2357 -0.0994  0.1028
 3302DOPE   C4A38747  25.143  28.398  11.892  0.0997 -0.2551  0.4844
 3302DOPE   C1B38748  23.890  28.083  12.797 -0.0797  0.2307 -0.0010
 3302DOPE   D2B38749  23.769  28.296  12.412 -0.2675  0.0378 -0.0771
 3302DOPE   C3B38750  23.380  28.132  12.190  0.1281  0.0037  0.1752
 3302DOPE   C4B38751  23.006  27.805  12.060 -0.0222  0.2839 -0.2222
 3303POSM   NC338752  26.819  21.366  14.247 -0.1484 -0.2217 -0.1258
 3303POSM   PO438753  26.485  21.601  14.342  0.0035  0.0285 -0.0531
 3303POSM   AM138754  26.477  21.598  14.010  0.2000 -0.3272 -0.1076
 3303POSM   AM238755  26.438  21.808  13.823  0.1921 -0.1555 -0.3219
 3303POSM   T1A38756  26.357  21.378  13.566  0.1088 -0.0026  0.1016
 3303POSM   C2A38757  26.331  21.132  13.205 -0.2472 -0.1093  0.1842
 3303POSM   C3A38758  26.248  21.233  12.771 -0.2571 -0.0086  0.2461
 3303POSM   C1B38759  26.284  21.900  13.587  0.1254 -0.2183  0.3012
 3303POSM   D2B38760  26.115  21.740  13.135 -0.0748  0.1811  0.0555
 3303POSM   C3B38761  26.017  21.954  12.745  0.0367  0.1717 -0.1940
 3303POSM   C4B38762  26.093  21.963  12.337 -0.2016  0.2715 -0.5963
 3304POSM   NC338763  24.738  29.172  13.527 -0.0470  0.2780 -0.0845
 3304POSM   PO438764  24.445  29.444  13.676  0.1257 -0.1057  0.0683
 3304POSM   AM138765  24.449  29.479  13.343  0.1087  0.2012 -0.2327
 3304POSM   AM238766  24.527  29.359  13.109 -0.1402  0.0422 -0.0790
 3304POSM   T1A38767  24.138  29.615  12.936 -0.0346  0.0460 -0.1732
 3304POSM   C2A38768  23.968  29.712  12.478  0.0211  0.0643 -0.0738
 3304POSM   C3A38769  24.124  30.074  12.284 -0.0355  0.1767 -0.0401
 3304POSM   C1B38770  24.644  29.280  12.835  0.2052  0.0316  0.0404
 3304POSM   D2B38771  24.582  28.921  12.530  0.1645 -0.0281 -0.0555
 3304POSM   C3B38772  24.274  28.722  12.270 -0.5140 -0.0746  0.1138
 3304POSM   C4B38773  24.105  28.364  11.897 -0.0017  0.0794 -0.0717
 3305DOPC   NC338774  27.072  33.611  14.244  0.1228  0.0560  0.0386
 3305DOPC   PO438775  26.834  33.392  14.464  0.1078 -0.1169 -0.0761
 3305DOPC   GL138776  26.929  33.176  14.118 -0.1099  0.0087  0.0673
 3305DOPC   GL238777  27.035  33.232  13.851 -0.2014  0.0883  0.0113
 3305DOPC   C1A38778  26.934  32.752  13.879  0.2433 -0.1224 -0.0541
 3305DOPC   D2A38779  26.976  32.579  13.479  0.1917  0.0520 -0.2068
 3305DOPC   C3A38780  26.705  32.754  13.210  0.1924  0.2691 -0.0710
 3305DOPC   C4A38781  26.590  33.231  13.133 -0.0335  0.0980  0.1101
 3305DOPC   C1B38782  27.055  33.165  13.392 -0.0743 -0.1490  0.1463
 3305DOPC   D2B38783  27.037  33.032  12.963 -0.0824 -0.0757  0.2238
 3305DOPC   C3B38784  27.455  32.770  12.973  0.0995  0.2162 -0.0611
 3305DOPC   C4B38785  27.601  32.593  13.426 -0.1767 -0.1833 -0.0093
 3306DOPC   NC338786  26.601  28.794  13.894  0.0186 -0.1260 -0.0966
 3306DOPC   PO438787  26.269  28.760  14.111 -0.1677  0.0191  0.2781
 3306DOPC   GL138788  26.076  28.833  13.741 -0.2487 -0.2651  0.3031
 3306DOPC   GL238789  26.226  29.086  13.691  0.1149  0.0880  0.2402
 3306DOPC   C1A38790  26.162  28.482  13.410  0.0373  0.0768  0.2331
 3306DOPC   D2A38791  26.165  28.230  13.027 -0.3146 -0.2179  0.2286
 3306DOPC   C3A38792  25.879  28.463  12.696 -0.0003 -0.0167  0.1003
 3306DOPC   C4A38793  25.543  28.684  12.473 -0.0864  0.0605 -0.1685
 3306DOPC   C1B38794  26.292  29.098  13.244  0.0726  0.2152 -0.0440
 3306DOPC   D2B38795  26.602  29.230  12.842  0.4089 -0.2095 -0.1309
 3306DOPC   C3B38796  26.717  29.051  12.436 -0.0812  0.0398  0.3640
 3306DOPC   C4B38797  26.942  28.720  12.262  0.0445 -0.0487 -0.3309
 3307POSM   NC338798  27.232   0.241  14.777 -0.1193 -0.0372  0.1292
 3307POSM   PO438799  27.050   0.397  14.485 -0.2108 -0.3543  0.2236
 3307POSM   AM138800  27.023   0.267  14.168 -0.1337 -0.1251  0.0699
 3307POSM   AM238801  27.038   0.378  13.919 -0.0023 -0.0357 -0.0529
 3307POSM   T1A38802  26.756  -0.091  13.984 -0.0771  0.0262  0.1724
 3307POSM   C2A38803  26.399  -0.403  13.912  0.1360 -0.0043  0.1279
 3307POSM   C3A38804  26.237  -0.554  13.517  0.2136  0.3971 -0.0131
 3307POSM   C1B38805  26.933   0.218  13.607 -0.1768 -0.1025 -0.0801
 3307POSM   D2B38806  26.722   0.238  13.180  0.0331 -0.2142 -0.1280
 3307POSM   C3B38807  26.376   0.461  13.019  0.2182  0.0751  0.0862
 3307POSM   C4B38808  26.020   0.756  12.872 -0.0718 -0.0831  0.0514
 3308DOPC   NC338809  30.598  25.098  13.930 -0.2850 -0.0080 -0.0939
 3308DOPC   PO438810  30.247  25.218  13.809 -0.0683  0.2682 -0.2131
 3308DOPC   GL138811  30.261  25.329  13.497  0.3877  0.1677  0.0949
 3308DOPC   GL238812  29.927  25.372  13.478 -0.0999  0.2111  0.0140
 3308DOPC   C1A38813  30.343  25.358  13.018  0.0523  0.0058  0.2064
 3308DOPC   D2A38814  30.195  25.476  12.596  0.2211 -0.1333 -0.0613
 3308DOPC   C3A38815  30.116  25.219  12.216 -0.0787  0.1296  0.3430
 3308DOPC   C4A38816  30.380  25.148  11.860 -0.1422 -0.0564  0.0616
 3308DOPC   C1B38817  29.806  25.534  13.042  0.1889  0.1609  0.1845
 3308DOPC   D2B38818  29.659  25.418  12.598 -0.2253 -0.2443  0.0107
 3308DOPC   C3B38819  29.368  25.176  12.355 -0.0942  0.3896  0.0394
 3308DOPC   C4B38820  29.044  25.100  11.974  0.0123  0.1244  0.0891
 3309POSM   NC338821  26.000  33.137  14.079  0.1724  0.0703  0.2751
 3309POSM   PO438822  25.671  32.956  14.287 -0.0243 -0.0391 -0.0196
 3309POSM   AM138823  25.619  32.811  13.980  0.4544 -0.0238  0.2498
 3309POSM   AM238824  25.516  32.568  13.825  0.0787 -0.2521  0.0409
 3309POSM   T1A38825  25.883  32.818  13.556 -0.0067 -0.0260 -0.0549
 3309POSM   C2A38826  26.322  32.806  13.493 -0.0667 -0.3061 -0.1368
 3309POSM   C3A38827  26.624  33.175  13.662 -0.0933 -0.0331 -0.2877
 3309POSM   C1B38828  25.472  32.514  13.498 -0.1238  0.0021 -0.3289
 3309POSM   D2B38829  25.536  32.326  13.063 -0.1479  0.0597 -0.0429
 3309POSM   C3B38830  25.234  32.495  12.752 -0.1781 -0.1201  0.1707
 3309POSM   C4B38831  24.799  32.351  12.543  0.1856 -0.0272 -0.0811
 3310DOPC   NC338832  24.220  26.488  14.493 -0.1073  0.3402 -0.0984
 3310DOPC   PO438833  24.564  26.258  14.481 -0.2111  0.0641  0.1127
 3310DOPC   GL138834  24.708  26.063  14.131  0.0932  0.0445  0.2728
 3310DOPC   GL238835  24.848  26.339  14.042  0.1839  0.0096 -0.3231
 3310DOPC   C1A38836  24.465  25.776  13.824 -0.1489 -0.1152  0.1699
 3310DOPC   D2A38837  24.404  25.537  13.394 -0.0507  0.1111  0.1054
 3310DOPC   C3A38838  24.729  25.343  13.082 -0.0024  0.0403  0.3063
 3310DOPC   C4A38839  25.152  25.542  12.979  0.2529  0.3903  0.0450
 3310DOPC   C1B38840  24.529  26.278  13.754 -0.0519 -0.0201  0.1636
 3310DOPC   D2B38841  24.087  26.132  13.574 -0.0515 -0.1031 -0.3126
 3310DOPC   C3B38842  23.991  25.783  13.265 -0.0019  0.2606 -0.1968
 3310DOPC   C4B38843  23.779  25.497  12.958 -0.0894  0.0997  0.0434
 3311POSM   NC338844  22.543  34.663  13.798  0.0888 -0.1732 -0.0246
 3311POSM   PO438845  22.260  34.720  14.064  0.2205 -0.1557  0.5591
 3311POSM   AM138846  22.065  34.649  13.813 -0.0189 -0.0536 -0.0423
 3311POSM   AM238847  21.949  34.461  13.701 -0.1118 -0.1635 -0.2069
 3311POSM   T1A38848  21.972  34.764  13.293  0.1495 -0.1604  0.1878
 3311POSM   C2A38849  21.896  34.694  12.820  0.2561  0.0762  0.1254
 3311POSM   C3A38850  21.830  34.780  12.381 -0.1427 -0.1092 -0.3074
 3311POSM   C1B38851  22.247  34.399  13.499 -0.2355 -0.0595 -0.3331
 3311POSM   D2B38852  22.586  34.635  13.299  0.0246  0.0230  0.1133
 3311POSM   C3B38853  22.859  34.394  13.047  0.0092  0.0512 -0.2093
 3311POSM   C4B38854  23.212  34.187  12.772  0.1483 -0.4535  0.0289
 3312DOPE   NH338855  27.312  28.361  14.165  0.0363 -0.1823 -0.0549
 3312DOPE   PO438856  27.178  28.587  14.341 -0.0186  0.3933 -0.1416
 3312DOPE   GL138857  27.066  28.685  14.021 -0.0562  0.1991  0.0649
 3312DOPE   GL238858  27.110  28.994  14.018 -0.2912  0.1686 -0.0977
 3312DOPE   C1A38859  27.036  28.632  13.553  0.1070 -0.0390 -0.0879
 3312DOPE   D2A38860  26.694  28.753  13.296 -0.1405 -0.4239 -0.0241
 3312DOPE   C3A38861  26.435  28.643  12.903  0.1952  0.2688  0.3069
 3312DOPE   C4A38862  26.327  28.481  12.475  0.1622 -0.1022  0.1505
 3312DOPE   C1B38863  27.436  29.103  13.648 -0.0619  0.2413  0.1243
 3312DOPE   D2B38864  27.590  29.480  13.501  0.5517  0.0836 -0.0261
 3312DOPE   C3B38865  27.926  29.695  13.262  0.0725  0.1420 -0.0831
 3312DOPE   C4B38866  28.176  29.877  12.979  0.1852 -0.0034 -0.2171
 3313DOPC   NC338867  33.170  26.238  13.131  0.0011  0.2276 -0.2148
 3313DOPC   PO438868  33.263  25.843  13.260 -0.0899 -0.0427 -0.2073
 3313DOPC   GL138869  33.337  25.693  12.825  0.2115  0.0090  0.0979
 3313DOPC   GL238870  33.060  25.547  12.794 -0.3140 -0.3979  0.1350
 3313DOPC   C1A38871  33.434  25.473  12.394 -0.0814 -0.0568 -0.1312
 3313DOPC   D2A38872  33.325  25.132  12.093 -0.2163  0.0312  0.2432
 3313DOPC   C3A38873  33.233  25.262  11.668 -0.0574 -0.0479 -0.1850
 3313DOPC   C4A38874  33.276  25.447  11.269  0.0814  0.2301 -0.2023
 3313DOPC   C1B38875  32.870  25.779  12.481  0.3577  0.0292  0.2346
 3313DOPC   D2B38876  32.575  25.672  12.103 -0.2029  0.0926 -0.0286
 3313DOPC   C3B38877  32.545  25.904  11.672  0.1801 -0.0194 -0.0725
 3313DOPC   C4B38878  32.612  26.075  11.229 -0.1583 -0.2474 -0.3570
 3314DOPC   NC338879  31.717  24.249  13.899  0.0943 -0.1538 -0.1327
 3314DOPC   PO438880  31.378  24.477  13.957  0.0154 -0.0982  0.1772
 3314DOPC   GL138881  31.306  24.444  13.484  0.0109 -0.0936  0.2368
 3314DOPC   GL238882  31.401  24.727  13.464 -0.1162 -0.2614  0.2421
 3314DOPC   C1A38883  31.025  24.419  13.115 -0.1582 -0.0232  0.3986
 3314DOPC   D2A38884  30.991  24.272  12.716 -0.1850 -0.1071 -0.0144
 3314DOPC   C3A38885  30.599  24.065  12.737  0.2343 -0.3097  0.1518
 3314DOPC   C4A38886  30.164  23.879  12.851  0.1544  0.0243 -0.3066
 3314DOPC   C1B38887  31.555  24.492  13.060 -0.0628  0.3161 -0.1338
 3314DOPC   D2B38888  31.689  24.259  12.674 -0.0259 -0.1409 -0.0736
 3314DOPC   C3B38889  31.507  24.400  12.318  0.1251  0.1064  0.1701
 3314DOPC   C4B38890  31.108  24.509  12.199 -0.2157 -0.0048  0.0105
 3315DOPC   NC338891  24.298  27.290  13.763  0.1570 -0.0210  0.1268
 3315DOPC   PO438892  24.705  27.285  13.687  0.3345 -0.2409  0.1160
 3315DOPC   GL138893  24.424  27.166  13.351 -0.2565  0.2386  0.0976
 3315DOPC   GL238894  24.375  26.871  13.505 -0.0409 -0.1700  0.2097
 3315DOPC   C1A38895  24.461  27.201  12.915 -0.1854 -0.0402  0.2356
 3315DOPC   D2A38896  24.555  26.863  12.649 -0.3491  0.1038 -0.0123
 3315DOPC   C3A38897  24.768  26.992  12.265  0.2310  0.0807  0.2841
 3315DOPC   C4A38898  25.166  27.015  12.023  0.2611  0.2042 -0.1791
 3315DOPC   C1B38899  24.164  26.725  13.156 -0.4455  0.0828  0.0729
 3315DOPC   D2B38900  23.970  26.310  13.063 -0.0131  0.2477  0.0625
 3315DOPC   C3B38901  23.832  25.986  12.773 -0.1348  0.1917 -0.2133
 3315DOPC   C4B38902  23.803  25.646  12.451 -0.1133  0.1389 -0.2189
 3316DOPC   NC338903  31.913  28.655  13.384  0.1247 -0.0794  0.3753
 3316DOPC   PO438904  31.551  28.561  13.525  0.1113  0.0552 -0.1649
 3316DOPC   GL138905  31.452  28.627  13.188  0.2125 -0.1748  0.1360
 3316DOPC   GL238906  31.424  28.376  13.076  0.0585 -0.0121 -0.0145
 3316DOPC   C1A38907  31.323  28.840  12.824 -0.2572 -0.1079 -0.2140
 3316DOPC   D2A38908  31.450  28.855  12.385 -0.0348 -0.1206 -0.1467
 3316DOPC   C3A38909  31.844  28.757  12.176  0.0779 -0.0100  0.1875
 3316DOPC   C4A38910  32.093  28.392  12.123  0.1707  0.2843  0.0246
 3316DOPC   C1B38911  31.550  28.466  12.654  0.2349 -0.0106 -0.3596
 3316DOPC   D2B38912  31.509  28.414  12.185  0.0986 -0.0944 -0.0039
 3316DOPC   C3B38913  31.659  28.228  11.771 -0.0594  0.1660 -0.2086
 3316DOPC   C4B38914  31.958  28.228  11.435  0.1874 -0.0570  0.2221
 3317DOPS   CNO38915  28.609  29.647  13.713 -0.2712 -0.1353 -0.1391
 3317DOPS   PO438916  28.714  29.288  13.642  0.1469 -0.1028 -0.0971
 3317DOPS   GL138917  28.507  29.111  13.264 -0.2199 -0.2319 -0.2229
 3317DOPS   GL238918  28.539  29.423  13.213  0.1192 -0.0296 -0.1178
 3317DOPS   C1A38919  28.108  29.239  13.035 -0.2373 -0.4090  0.1546
 3317DOPS   D2A38920  27.823  29.062  12.713  0.3314  0.0313  0.0859
 3317DOPS   C3A38921  27.761  29.294  12.300  0.0857  0.5298  0.0264
 3317DOPS   C4A38922  27.507  29.262  11.894  0.0331 -0.2147 -0.0851
 3317DOPS   C1B38923  28.613  29.241  12.810 -0.2618  0.0063 -0.2200
 3317DOPS   D2B38924  28.303  29.207  12.476  0.3018 -0.1072 -0.1983
 3317DOPS   C3B38925  28.095  28.913  12.221  0.1139 -0.0136  0.0228
 3317DOPS   C4B38926  27.781  28.774  11.893  0.0627 -0.1143  0.2500
 3318DOPC   NC338927  28.455  29.232  14.062  0.0409 -0.0865 -0.0170
 3318DOPC   PO438928  28.478  28.847  13.985  0.1999 -0.2839  0.0355
 3318DOPC   GL138929  28.565  28.764  13.637  0.5594  0.2394  0.1497
 3318DOPC   GL238930  28.817  28.807  13.514  0.0704  0.0648  0.1428
 3318DOPC   C1A38931  28.554  28.484  13.212  0.0023 -0.4346  0.1168
 3318DOPC   D2A38932  28.430  28.319  12.756 -0.3479  0.1504  0.2891
 3318DOPC   C3A38933  28.226  28.161  12.341  0.2838 -0.1222 -0.5632
 3318DOPC   C4A38934  28.294  28.032  11.891 -0.1611 -0.2329 -0.1132
 3318DOPC   C1B38935  29.049  28.741  13.187 -0.1037  0.1114 -0.2851
 3318DOPC   D2B38936  28.908  28.588  12.806  0.0032 -0.3331  0.0160
 3318DOPC   C3B38937  28.599  28.737  12.488  0.3556 -0.0454 -0.1154
 3318DOPC   C4B38938  28.411  28.572  12.168 -0.0189  0.0928  0.0358
 3319DOPS   CNO38939  29.366  32.342  13.837  0.0347  0.1746  0.1483
 3319DOPS   PO438940  29.363  32.706  13.731 -0.1900  0.2604 -0.0352
 3319DOPS   GL138941  29.341  32.410  13.367  0.1872  0.0980  0.3919
 3319DOPS   GL238942  29.615  32.356  13.424  0.1063  0.0672  0.2079
 3319DOPS   C1A38943  29.116  32.455  12.909  0.1270 -0.0680 -0.0839
 3319DOPS   D2A38944  29.099  32.463  12.410  0.3889  0.0873  0.0646
 3319DOPS   C3A38945  29.109  32.250  11.981 -0.2121 -0.0069 -0.2539
 3319DOPS   C4A38946  29.251  32.400  11.568  0.0096 -0.1366  0.2162
 3319DOPS   C1B38947  29.714  32.600  13.083 -0.0680  0.1807 -0.0306
 3319DOPS   D2B38948  29.943  32.917  12.817  0.0098  0.1401  0.1934
 3319DOPS   C3B38949  30.093  33.023  12.338 -0.2340 -0.0339  0.3718
 3319DOPS   C4B38950  30.439  32.743  12.145 -0.1110 -0.0217 -0.3945
 3320POSM   NC338951  33.661  23.728  13.739  0.1237  0.2403  0.3316
 3320POSM   PO438952  33.471  23.380  13.771 -0.2738 -0.1503  0.0325
 3320POSM   AM138953  33.438  23.313  13.436 -0.0037 -0.0408 -0.2237
 3320POSM   AM238954  33.260  23.393  13.201 -0.1843  0.0883 -0.0127
 3320POSM   T1A38955  33.420  22.947  13.071 -0.0578  0.2541 -0.0130
 3320POSM   C2A38956  33.560  22.676  12.716 -0.0929  0.1619  0.2857
 3320POSM   C3A38957  33.721  22.387  12.397 -0.1246 -0.1441 -0.1647
 3320POSM   C1B38958  33.183  23.600  13.025 -0.1334 -0.0908  0.2254
 3320POSM   D2B38959  33.400  23.687  12.594 -0.3499 -0.3188 -0.1337
 3320POSM   C3B38960  33.258  23.926  12.225 -0.0039 -0.2211 -0.1739
 3320POSM   C4B38961  33.046  24.273  11.987  0.0739  0.2936  0.0353
 3321DOPS   CNO38962  26.657  27.950  13.917  0.2613  0.0414 -0.1920
 3321DOPS   PO438963  27.010  28.053  13.970  0.1854 -0.0136  0.3257
 3321DOPS   GL138964  26.926  28.194  13.640 -0.1218  0.0655 -0.2519
 3321DOPS   GL238965  26.657  28.325  13.614 -0.0140 -0.3035  0.2327
 3321DOPS   C1A38966  27.163  28.186  13.253 -0.5199  0.2443 -0.4145
 3321DOPS   D2A38967  27.397  28.133  12.898 -0.2251 -0.0372 -0.2583
 3321DOPS   C3A38968  27.459  27.759  12.611 -0.0775 -0.1708  0.0674
 3321DOPS   C4A38969  27.498  27.459  12.258 -0.0185 -0.1882 -0.0253
 3321DOPS   C1B38970  26.367  28.038  13.429  0.1257  0.0674 -0.2275
 3321DOPS   D2B38971  25.956  27.765  13.296 -0.0744  0.2283  0.1486
 3321DOPS   C3B38972  25.886  27.380  13.152 -0.0226 -0.0074  0.0931
 3321DOPS   C4B38973  26.210  27.150  12.896  0.0202 -0.1869 -0.1728
 3322DOPS   CNO38974  24.462  21.411  14.312  0.1632  0.1586 -0.1079
 3322DOPS   PO438975  24.723  21.480  14.063  0.1291  0.0556  0.1811
 3322DOPS   GL138976  24.656  21.507  13.594 -0.2470 -0.0469  0.2535
 3322DOPS   GL238977  24.515  21.639  13.467 -0.0581 -0.1616  0.0736
 3322DOPS   C1A38978  24.641  21.281  13.180 -0.2368 -0.1078 -0.0112
 3322DOPS   D2A38979  24.834  21.047  12.797 -0.1265  0.0838 -0.1006
 3322DOPS   C3A38980  24.550  20.987  12.466 -0.2591 -0.0631  0.0044
 3322DOPS   C4A38981  24.335  20.608  12.292  0.1695  0.0265 -0.2266
 3322DOPS   C1B38982  24.273  21.580  13.030  0.0138 -0.1162  0.0469
 3322DOPS   D2B38983  24.176  21.372  12.593  0.1118  0.2772 -0.0165
 3322DOPS   C3B38984  23.755  21.314  12.287 -0.2022  0.1967 -0.2467
 3322DOPS   C4B38985  23.686  21.195  11.834  0.1075 -0.1214 -0.1042
 3323DOPE   NH338986  24.462  27.739  13.672 -0.0371  0.0849 -0.1593
 3323DOPE   PO438987  24.140  27.752  13.745  0.1323  0.2101  0.1075
 3323DOPE   GL138988  24.138  27.494  13.382 -0.1117  0.5191 -0.5935
 3323DOPE   GL238989  24.351  27.603  13.201 -0.0522  0.5349 -0.3890
 3323DOPE   C1A38990  23.966  27.211  13.084  0.0750 -0.0294  0.1016
 3323DOPE   D2A38991  23.958  27.032  12.675 -0.3083  0.2223 -0.2484
 3323DOPE   C3A38992  23.569  26.936  12.355 -0.1543  0.2672 -0.1794
 3323DOPE   C4A38993  23.142  26.769  12.163 -0.0858 -0.0718 -0.0581
 3323DOPE   C1B38994  24.158  27.695  12.790 -0.0322  0.3181 -0.1009
 3323DOPE   D2B38995  24.148  27.847  12.339 -0.4434 -0.2311  0.2524
 3323DOPE   C3B38996  23.870  27.925  12.040  0.2428 -0.2751  0.1594
 3323DOPE   C4B38997  23.655  27.704  11.695 -0.0662 -0.0130 -0.1312
 3324DOPE   NH338998  31.449  24.996  13.929 -0.1959 -0.0120 -0.1588
 3324DOPE   PO438999  31.467  25.288  13.879 -0.0476  0.1081  0.1361
 3324DOPE   GL139000  31.494  25.250  13.489  0.0383  0.2693  0.1677
 3324DOPE   GL239001  31.202  25.274  13.334 -0.1094 -0.4496  0.3180
 3324DOPE   C1A39002  31.593  25.014  13.108  0.1697 -0.0975  0.2386
 3324DOPE   D2A39003  31.688  24.838  12.654  0.0092  0.0750 -0.0459
 3324DOPE   C3A39004  31.457  24.906  12.269  0.1392  0.1092  0.0537
 3324DOPE   C4A39005  31.120  25.243  12.093  0.1746 -0.4252  0.0983
 3324DOPE   C1B39006  31.097  24.921  13.089 -0.0665  0.0672 -0.0203
 3324DOPE   D2B39007  31.170  24.772  12.686 -0.0627  0.1058 -0.1193
 3324DOPE   C3B39008  30.883  24.877  12.345 -0.0866  0.0424 -0.2662
 3324DOPE   C4B39009  30.822  24.932  11.834  0.0826  0.0262 -0.0838
 3325DOPE   NH339010  28.739  33.740  13.836  0.0318 -0.0496 -0.3961
 3325DOPE   PO439011  28.902  33.696  13.580  0.3163 -0.0478 -0.0887
 3325DOPE   GL139012  28.814  33.913  13.354  0.1638  0.1089  0.1629
 3325DOPE   GL239013  29.076  33.897  13.123  0.3125 -0.1832 -0.0531
 3325DOPE   C1A39014  28.572  33.947  12.996 -0.2921  0.0424 -0.0614
 3325DOPE   D2A39015  28.344  34.217  12.733 -0.2455 -0.0795 -0.1353
 3325DOPE   C3A39016  28.208  34.237  12.276  0.0023 -0.0516 -0.4115
 3325DOPE   C4A39017  27.830  34.107  12.032 -0.2159  0.1867 -0.0418
 3325DOPE   C1B39018  29.112  33.832  12.673 -0.0261  0.0509 -0.1301
 3325DOPE   D2B39019  29.293  33.667  12.321  0.0551 -0.0695 -0.1742
 3325DOPE   C3B39020  29.210  33.257  12.188  0.2376  0.1477 -0.3363
 3325DOPE   C4B39021  29.114  32.784  12.005  0.1720 -0.2207 -0.0806
 3326DOPC   NC339022  26.261  29.231  14.143  0.0913  0.0430 -0.2833
 3326DOPC   PO439023  26.628  29.247  14.038  0.0248  0.0341  0.1171
 3326DOPC   GL139024  26.653  29.311  13.657 -0.0383 -0.1328  0.3419
 3326DOPC   GL239025  26.864  29.185  13.583  0.2846 -0.0662 -0.2349
 3326DOPC   C1A39026  26.622  29.599  13.286  0.2225 -0.1432  0.0601
 3326DOPC   D2A39027  26.586  29.701  12.856 -0.0161 -0.2144 -0.2575
 3326DOPC   C3A39028  26.879  29.938  12.578  0.0351 -0.0365  0.0490
 3326DOPC   C4A39029  27.139  30.351  12.510 -0.1456 -0.1776  0.0811
 3326DOPC   C1B39030  27.140  29.134  13.260 -0.0449 -0.3135  0.2811
 3326DOPC   D2B39031  27.485  29.326  13.050  0.2612 -0.1145 -0.1220
 3326DOPC   C3B39032  27.352  29.158  12.676  0.3638  0.0314  0.2312
 3326DOPC   C4B39033  27.461  28.932  12.305 -0.0742 -0.1203 -0.0365
 3327DOPC   NC339034  32.596  28.341  12.950  0.1037 -0.0183 -0.2343
 3327DOPC   PO439035  32.282  28.409  13.138 -0.0345 -0.1831 -0.0613
 3327DOPC   GL139036  32.033  28.294  12.797  0.2177 -0.2090 -0.1563
 3327DOPC   GL239037  32.154  28.534  12.646  0.1953  0.0691  0.3498
 3327DOPC   C1A39038  31.830  28.097  12.430  0.1298  0.0801  0.0445
 3327DOPC   D2A39039  31.739  27.778  12.079 -0.1312  0.0182  0.1021
 3327DOPC   C3A39040  31.790  27.772  11.629  0.1209 -0.0958  0.1975
 3327DOPC   C4A39041  31.537  27.946  11.264 -0.0411 -0.1293  0.3757
 3327DOPC   C1B39042  31.850  28.958  12.661  0.0943  0.1583 -0.4139
 3327DOPC   D2B39043  31.544  29.273  12.639  0.0721 -0.4405  0.0061
 3327DOPC   C3B39044  31.576  29.322  12.150 -0.0404  0.2349 -0.0673
 3327DOPC   C4B39045  31.471  29.313  11.709  0.1295 -0.3232  0.1997
 3328POSM   NC339046  25.027  26.090  14.494 -0.3118  0.1120 -0.2663
 3328POSM   PO439047  25.019  25.774  14.235 -0.0990  0.1240 -0.3697
 3328POSM   AM139048  25.013  25.796  13.917 -0.0300 -0.1968  0.5897
 3328POSM   AM239049  24.921  25.985  13.686 -0.2659 -0.1050 -0.0505
 3328POSM   T1A39050  25.116  25.566  13.484 -0.1036  0.1400  0.0369
 3328POSM   C2A39051  25.179  25.148  13.257 -0.2262 -0.0935 -0.0071
 3328POSM   C3A39052  25.002  25.040  12.764 -0.2593  0.0660  0.1592
 3328POSM   C1B39053  24.802  25.976  13.402  0.1160 -0.1690  0.2435
 3328POSM   D2B39054  24.679  25.832  12.971  0.4655 -0.0809 -0.0922
 3328POSM   C3B39055  24.287  25.630  12.879  0.2130 -0.0381  0.1715
 3328POSM   C4B39056  24.184  25.294  12.550 -0.0638 -0.2646  0.0164
 3329POSM   NC339057  22.639  34.456  14.320  0.1836  0.1291  0.1692
 3329POSM   PO439058  22.842  34.775  14.236  0.0595 -0.0386  0.0204
 3329POSM   AM139059  22.957  34.842  13.943  0.1608 -0.0191  0.0299
 3329POSM   AM239060  22.917  34.974  13.665 -0.0576 -0.0323  0.0044
 3329POSM   T1A39061  23.437  34.757  13.804 -0.0716 -0.2822 -0.1889
 3329POSM   C2A39062  23.679  34.369  13.690  0.0391 -0.2532 -0.1027
 3329POSM   C3A39063  23.936  34.008  13.790  0.0567 -0.0419  0.0329
 3329POSM   C1B39064  22.753  35.113  13.397  0.1235 -0.0698 -0.0999
 3329POSM   D2B39065  22.508  35.069  12.994  0.2659 -0.0289  0.0253
 3329POSM   C3B39066  22.442  34.697  12.809  0.2447 -0.1844  0.1976
 3329POSM   C4B39067  22.387  34.712  12.330 -0.0554  0.1264 -0.0787
 3330DOPE   NH339068  24.864  24.605  14.566  0.3348  0.2163 -0.1824
 3330DOPE   PO439069  24.931  24.272  14.453  0.0359 -0.1967  0.2403
 3330DOPE   GL139070  24.751  24.180  14.191 -0.0835 -0.0862  0.1201
 3330DOPE   GL239071  24.910  23.931  14.005 -0.1091  0.0193 -0.0556
 3330DOPE   C1A39072  24.456  24.170  13.820 -0.1693 -0.0843 -0.0157
 3330DOPE   D2A39073  24.623  24.039  13.378 -0.2481 -0.1921 -0.0319
 3330DOPE   C3A39074  24.613  24.349  13.068  0.1937  0.2475 -0.4921
 3330DOPE   C4A39075  24.730  24.574  12.708 -0.0824 -0.1037  0.1266
 3330DOPE   C1B39076  25.084  24.242  13.669  0.1883  0.3231  0.0517
 3330DOPE   D2B39077  25.113  24.569  13.404  0.3046 -0.0027  0.0187
 3330DOPE   C3B39078  25.504  24.683  13.307 -0.2279  0.0678  0.1879
 3330DOPE   C4B39079  25.942  24.543  13.418  0.4203 -0.2862  0.1897
 3331DOPE   NH339080  23.633  24.695  14.687 -0.0755  0.0718  0.0172
 3331DOPE   PO439081  23.975  24.789  14.648  0.2225 -0.1304  0.3590
 3331DOPE   GL139082  24.027  24.793  14.314 -0.0165  0.0053  0.1290
 3331DOPE   GL239083  23.898  24.554  14.191 -0.2261  0.0175 -0.0527
 3331DOPE   C1A39084  24.284  24.677  13.900  0.0885  0.0119 -0.3584
 3331DOPE   D2A39085  24.242  24.523  13.458 -0.0185  0.1045 -0.0663
 3331DOPE   C3A39086  23.858  24.790  13.308 -0.0498 -0.0499 -0.1141
 3331DOPE   C4A39087  23.519  24.993  13.061  0.3116 -0.3072  0.1620
 3331DOPE   C1B39088  23.835  24.425  13.730  0.1738 -0.0649 -0.1525
 3331DOPE   D2B39089  23.793  24.327  13.255 -0.3115  0.3718 -0.0286
 3331DOPE   C3B39090  23.487  24.530  12.913 -0.0632 -0.2650  0.0034
 3331DOPE   C4B39091  23.578  24.678  12.526 -0.1113  0.0341  0.0454
 3332DOPE   NH339092  28.144   1.512  13.669 -0.0769  0.0439  0.1027
 3332DOPE   PO439093  28.357   1.711  13.596 -0.3093  0.2740 -0.1767
 3332DOPE   GL139094  28.201   1.918  13.345 -0.1760 -0.4441 -0.1678
 3332DOPE   GL239095  28.337   1.812  13.051 -0.1282 -0.2672 -0.1388
 3332DOPE   C1A39096  27.979   2.218  13.037  0.0215  0.1589  0.3051
 3332DOPE   D2A39097  27.592   2.150  12.774 -0.0770  0.1133  0.1774
 3332DOPE   C3A39098  27.408   1.700  12.690 -0.1318  0.2589  0.1152
 3332DOPE   C4A39099  27.006   1.430  12.540  0.0817  0.0611  0.0514
 3332DOPE   C1B39100  28.245   1.858  12.570 -0.2592  0.0683 -0.1815
 3332DOPE   D2B39101  27.980   2.176  12.446  0.2009  0.1611  0.3746
 3332DOPE   C3B39102  27.739   2.259  12.106  0.0116 -0.2603  0.1693
 3332DOPE   C4B39103  27.266   2.184  12.068  0.0193 -0.0734 -0.0262
 3333DOPC   NC339104  24.088  19.736  13.950 -0.0713  0.1492 -0.0648
 3333DOPC   PO439105  24.231  20.085  13.857  0.0473 -0.2902  0.0933
 3333DOPC   GL139106  24.334  20.256  13.544 -0.2026  0.0601 -0.0829
 3333DOPC   GL239107  24.516  20.474  13.523  0.2437  0.0728 -0.1979
 3333DOPC   C1A39108  24.035  20.344  13.202 -0.0713  0.0394 -0.0041
 3333DOPC   D2A39109  23.867  20.643  12.898  0.0351  0.2685  0.0831
 3333DOPC   C3A39110  23.806  20.457  12.480 -0.0410  0.2779  0.2173
 3333DOPC   C4A39111  23.492  20.369  12.113 -0.1526  0.2262  0.2254
 3333DOPC   C1B39112  24.742  20.334  13.181 -0.1513  0.1952 -0.1633
 3333DOPC   D2B39113  25.103  20.366  12.918  0.0732  0.1813  0.0677
 3333DOPC   C3B39114  25.235  19.930  12.874 -0.2459 -0.0193  0.1537
 3333DOPC   C4B39115  25.084  19.479  12.872  0.1350 -0.1633  0.0397
 3334DOPC   NC339116  24.992  30.568  13.548 -0.1356  0.0771 -0.1332
 3334DOPC   PO439117  24.874  30.285  13.779 -0.2122  0.1101  0.1552
 3334DOPC   GL139118  24.835  30.110  13.397 -0.1331 -0.0296 -0.2502
 3334DOPC   GL239119  24.714  30.306  13.185  0.0487 -0.1078 -0.1075
 3334DOPC   C1A39120  25.204  30.145  13.104 -0.2117  0.0342  0.0115
 3334DOPC   D2A39121  25.370  30.177  12.732 -0.2129  0.4587 -0.0362
 3334DOPC   C3A39122  25.815  30.193  12.475  0.1495 -0.2145  0.2133
 3334DOPC   C4A39123  25.905  30.470  12.127 -0.2728  0.1029 -0.2229
 3334DOPC   C1B39124  24.557  29.869  13.039  0.0653  0.1569  0.2212
 3334DOPC   D2B39125  24.450  29.722  12.543  0.2207 -0.0352  0.1423
 3334DOPC   C3B39126  24.763  29.502  12.285 -0.1774  0.0939  0.1155
 3334DOPC   C4B39127  24.751  29.320  11.883 -0.1836 -0.1574  0.4113
 3335POSM   NC339128  27.534  22.904  14.328 -0.1625  0.0363 -0.0485
 3335POSM   PO439129  27.539  23.301  14.402  0.1012  0.2410 -0.1929
 3335POSM   AM139130  27.453  23.371  14.094  0.0083  0.3528  0.0292
 3335POSM   AM239131  27.286  23.203  13.917  0.1208 -0.1666 -0.0775
 3335POSM   T1A39132  27.412  23.621  13.658 -0.1385  0.0493 -0.1159
 3335POSM   C2A39133  27.399  23.547  13.248  0.2881  0.1812 -0.0220
 3335POSM   C3A39134  27.604  23.590  12.873 -0.3083 -0.2476  0.0279
 3335POSM   C1B39135  27.271  23.140  13.570  0.1278 -0.1908  0.0527
 3335POSM   D2B39136  27.023  22.881  13.271  0.1016  0.0122 -0.2526
 3335POSM   C3B39137  26.752  23.087  12.988 -0.3015  0.1266 -0.2215
 3335POSM   C4B39138  26.621  23.503  12.847 -0.0421 -0.2118  0.2265
 3336DOPC   NC339139  24.438  33.428  14.355  0.0608 -0.2599  0.2082
 3336DOPC   PO439140  24.126  33.232  14.235 -0.3456 -0.0622 -0.1260
 3336DOPC   GL139141  23.909  33.311  13.945  0.0861  0.1691  0.0954
 3336DOPC   GL239142  23.901  33.079  13.747 -0.0865 -0.1374  0.3709
 3336DOPC   C1A39143  23.999  33.558  13.579  0.2537  0.0022  0.0680
 3336DOPC   D2A39144  24.255  34.003  13.411  0.1184 -0.4092  0.1164
 3336DOPC   C3A39145  24.441  34.226  13.102  0.0363  0.2418 -0.0646
 3336DOPC   C4A39146  24.376  34.326  12.675  0.0042 -0.0949 -0.3909
 3336DOPC   C1B39147  24.057  33.150  13.301 -0.0729 -0.1204 -0.1570
 3336DOPC   D2B39148  24.059  33.580  13.035  0.1854  0.2374  0.0195
 3336DOPC   C3B39149  24.448  33.711  12.947 -0.3956  0.0338 -0.0882
 3336DOPC   C4B39150  24.851  33.552  13.010  0.0779 -0.0499  0.3955
 3337DOPE   NH339151  27.863  24.654  13.747 -0.2066  0.2879 -0.0922
 3337DOPE   PO439152  28.144  24.718  13.823 -0.0374  0.0339  0.0804
 3337DOPE   GL139153  28.245  24.854  13.447  0.0060 -0.0584  0.2452
 3337DOPE   GL239154  28.164  25.118  13.585  0.0723  0.0338 -0.1587
 3337DOPE   C1A39155  28.392  24.805  13.048  0.1257 -0.2896  0.2914
 3337DOPE   D2A39156  28.496  24.748  12.639 -0.0777 -0.2442 -0.2769
 3337DOPE   C3A39157  28.280  24.594  12.294  0.1315 -0.1102  0.1857
 3337DOPE   C4A39158  28.163  24.188  12.010 -0.1036 -0.2659 -0.0333
 3337DOPE   C1B39159  27.782  24.990  13.338 -0.2077  0.1746 -0.0154
 3337DOPE   D2B39160  27.749  24.644  13.010  0.3072  0.0355  0.0084
 3337DOPE   C3B39161  27.838  24.754  12.568 -0.3178  0.2729  0.0051
 3337DOPE   C4B39162  27.956  25.039  12.215 -0.0696  0.0436  0.0037
 3338DOPC   NC339163  25.149  27.643  13.722 -0.1986 -0.4345  0.0059
 3338DOPC   PO439164  24.940  27.980  13.757  0.0135  0.3413 -0.1982
 3338DOPC   GL139165  24.872  27.842  13.377 -0.1835  0.0717 -0.1051
 3338DOPC   GL239166  24.745  28.027  13.143  0.0894  0.3027 -0.0712
 3338DOPC   C1A39167  24.795  27.466  13.101 -0.1625 -0.2764 -0.1119
 3338DOPC   D2A39168  24.817  27.010  13.255  0.0676 -0.0686 -0.2061
 3338DOPC   C3A39169  24.884  26.727  12.916 -0.3091 -0.5134  0.2602
 3338DOPC   C4A39170  25.056  26.628  12.503 -0.3056 -0.2662  0.1026
 3338DOPC   C1B39171  24.645  27.840  12.722 -0.0781  0.2203  0.2687
 3338DOPC   D2B39172  24.756  27.383  12.574 -0.1061  0.3164  0.1691
 3338DOPC   C3B39173  25.177  27.384  12.329  0.2793 -0.0791  0.1001
 3338DOPC   C4B39174  25.586  27.281  12.207  0.0518  0.1964  0.0785
 3339DOPE   NH339175  23.658  33.506  14.344 -0.2442  0.0209 -0.2740
 3339DOPE   PO439176  23.392  33.302  14.248  0.0352 -0.1910  0.4294
 3339DOPE   GL139177  23.332  33.430  13.876 -0.1082  0.3784  0.5066
 3339DOPE   GL239178  23.557  33.529  13.786  0.1595  0.0221 -0.1787
 3339DOPE   C1A39179  23.372  33.283  13.398 -0.0063  0.0876 -0.0489
 3339DOPE   D2A39180  23.475  33.288  12.964  0.3381 -0.1950 -0.0148
 3339DOPE   C3A39181  23.207  33.491  12.687 -0.0072  0.2916  0.0363
 3339DOPE   C4A39182  23.010  33.778  12.349 -0.1145 -0.0058  0.1020
 3339DOPE   C1B39183  23.629  33.745  13.348 -0.0658  0.0057 -0.1884
 3339DOPE   D2B39184  23.658  33.778  12.876  0.1904 -0.0545  0.1359
 3339DOPE   C3B39185  24.068  33.783  12.576  0.0338 -0.1205 -0.1439
 3339DOPE   C4B39186  24.494  33.875  12.417 -0.0670  0.1294 -0.0969
 3340DOPE   NH339187  31.847  27.361  13.671 -0.0627 -0.1474 -0.0310
 3340DOPE   PO439188  31.619  27.532  13.485 -0.2738 -0.0190 -0.0974
 3340DOPE   GL139189  31.355  27.397  13.279 -0.1122  0.2243 -0.0068
 3340DOPE   GL239190  31.113  27.268  13.419  0.1236 -0.0381  0.2638
 3340DOPE   C1A39191  31.291  27.458  12.856  0.3220 -0.1789  0.1637
 3340DOPE   D2A39192  31.447  27.515  12.406  0.0258  0.1865 -0.0322
 3340DOPE   C3A39193  31.414  27.191  12.067  0.2129 -0.4056  0.1938
 3340DOPE   C4A39194  31.579  26.938  11.736  0.1433 -0.0323  0.1745
 3340DOPE   C1B39195  30.825  27.368  13.161  0.0384 -0.0476  0.3963
 3340DOPE   D2B39196  30.393  27.283  12.911 -0.0178 -0.1856 -0.0494
 3340DOPE   C3B39197  30.421  27.108  12.489  0.5072  0.1729 -0.0235
 3340DOPE   C4B39198  30.609  26.996  12.095  0.2232  0.4067  0.2680
 3341DOPC   NC339199  25.787  25.517  14.536  0.0800 -0.1120  0.3907
 3341DOPC   PO439200  25.490  25.753  14.416  0.1469  0.1019  0.1106
 3341DOPC   GL139201  25.629  25.820  14.071  0.0471  0.1695  0.4582
 3341DOPC   GL239202  25.917  25.672  14.018  0.0088  0.1176 -0.1092
 3341DOPC   C1A39203  25.449  25.949  13.621 -0.0264  0.0400  0.1472
 3341DOPC   D2A39204  25.263  26.119  13.199 -0.1008  0.0014  0.1008
 3341DOPC   C3A39205  25.438  25.946  12.803 -0.3094  0.1681  0.0477
 3341DOPC   C4A39206  25.465  25.764  12.386  0.1330  0.0119 -0.0001
 3341DOPC   C1B39207  25.742  25.501  13.614 -0.1542 -0.1144  0.0448
 3341DOPC   D2B39208  25.563  25.634  13.196 -0.0825  0.2163  0.0672
 3341DOPC   C3B39209  25.583  25.435  12.736 -0.0590 -0.2029 -0.0227
 3341DOPC   C4B39210  25.252  25.316  12.418 -0.1630 -0.0078 -0.0307
 3342DOPC   NC339211  27.475  28.092  13.796  0.0589  0.0016  0.0720
 3342DOPC   PO439212  27.776  28.304  13.963  0.0169 -0.1598  0.1177
 3342DOPC   GL139213  27.720  28.378  13.559 -0.0341 -0.5298 -0.1132
 3342DOPC   GL239214  27.573  28.597  13.570  0.1003  0.0720 -0.2015
 3342DOPC   C1A39215  27.686  27.915  13.343 -0.3068  0.0372 -0.0967
 3342DOPC   D2A39216  27.779  27.557  13.001  0.3329  0.5216 -0.1272
 3342DOPC   C3A39217  27.494  27.288  12.721 -0.0530  0.1087 -0.0479
 3342DOPC   C4A39218  27.132  27.150  12.450 -0.1955 -0.3678 -0.1045
 3342DOPC   C1B39219  27.331  28.671  13.157 -0.2147  0.0839  0.2410
 3342DOPC   D2B39220  26.986  28.833  12.879 -0.3962 -0.1417 -0.0606
 3342DOPC   C3B39221  26.931  28.438  12.672 -0.0900 -0.1074 -0.1898
 3342DOPC   C4B39222  27.178  28.207  12.418 -0.3524  0.1207  0.0469
 3343DOPC   NC339223  33.989  31.632  13.516 -0.0165 -0.1049  0.1823
 3343DOPC   PO439224  33.905  31.263  13.492  0.0266  0.3953  0.0694
 3343DOPC   GL139225  33.850  31.121  13.130 -0.0904 -0.0689 -0.1130
 3343DOPC   GL239226  33.608  31.056  12.932  0.4742 -0.0659 -0.0060
 3343DOPC   C1A39227  34.091  31.166  12.718 -0.3756  0.1330  0.0190
 3343DOPC   D2A39228  34.400  31.177  12.395  0.0676 -0.0916  0.0899
 3343DOPC   C3A39229  34.204  30.982  12.038  0.0347  0.0319 -0.0704
 3343DOPC   C4A39230  34.171  30.784  11.551  0.2714  0.0067  0.2260
 3343DOPC   C1B39231  33.628  31.319  12.595 -0.0354  0.0642 -0.1597
 3343DOPC   D2B39232  33.487  31.729  12.444  0.0844 -0.1177 -0.2161
 3343DOPC   C3B39233  33.510  31.811  12.014  0.0293  0.2970  0.1103
 3343DOPC   C4B39234  33.925  31.701  11.740  0.2266  0.1235  0.2229
 3344DOPC   NC339235  20.904  21.101  13.673 -0.0481  0.4309 -0.3955
 3344DOPC   PO439236  20.990  20.703  13.683  0.1013  0.2556  0.1288
 3344DOPC   GL139237  20.933  20.800  13.271  0.0191 -0.2474  0.0170
 3344DOPC   GL239238  20.701  21.055  13.214  0.0495  0.1256 -0.1987
 3344DOPC   C1A39239  21.274  20.979  12.944 -0.4387  0.0558 -0.1161
 3344DOPC   D2A39240  21.626  20.717  12.775 -0.0345 -0.0064 -0.4483
 3344DOPC   C3A39241  21.949  20.794  12.454 -0.0979 -0.3781  0.2282
 3344DOPC   C4A39242  22.278  20.737  12.119  0.0523  0.1843  0.2271
 3344DOPC   C1B39243  20.730  20.839  12.797 -0.0814  0.0357  0.1427
 3344DOPC   D2B39244  20.688  20.737  12.350  0.1587 -0.2050  0.1116
 3344DOPC   C3B39245  20.588  21.044  12.083 -0.0604 -0.1101  0.2666
 3344DOPC   C4B39246  20.827  21.402  12.059  0.2859  0.1183 -0.1634
 3345DOPC   NC339247  26.367  26.075  13.976  0.2020  0.0041  0.0120
 3345DOPC   PO439248  26.234  26.452  13.989  0.0601 -0.1219 -0.2687
 3345DOPC   GL139249  26.031  26.709  13.724  0.1568 -0.1889 -0.0889
 3345DOPC   GL239250  26.193  26.755  13.559  0.2446  0.1115 -0.0565
 3345DOPC   C1A39251  25.797  26.947  13.313  0.1959 -0.1891 -0.0595
 3345DOPC   D2A39252  25.693  27.040  12.889 -0.2383 -0.1163 -0.2338
 3345DOPC   C3A39253  25.523  26.792  12.544 -0.0107 -0.0191  0.0702
 3345DOPC   C4A39254  25.593  26.778  12.091 -0.0814 -0.0757 -0.5392
 3345DOPC   C1B39255  26.123  26.630  13.143  0.0972 -0.1359  0.1283
 3345DOPC   D2B39256  26.445  26.703  12.806 -0.4861  0.0319 -0.0397
 3345DOPC   C3B39257  26.512  26.940  12.463  0.0342 -0.2092  0.0412
 3345DOPC   C4B39258  26.586  27.108  11.977  0.2087 -0.0729 -0.3002
 3346DOPE   NH339259  33.609  29.792  13.876 -0.0003 -0.0048  0.2786
 3346DOPE   PO439260  33.826  30.035  13.785  0.1082 -0.0997  0.2342
 3346DOPE   GL139261  33.944  30.306  13.483 -0.1647 -0.4045 -0.0690
 3346DOPE   GL239262  33.984  30.244  13.177  0.1464 -0.1866  0.0998
 3346DOPE   C1A39263  34.393  30.396  13.328 -0.1110 -0.2957 -0.0709
 3346DOPE   D2A39264  34.699  30.678  13.428 -0.1908  0.2996  0.1119
 3346DOPE   C3A39265  34.970  30.627  13.062 -0.0180  0.1596  0.1654
 3346DOPE   C4A39266  35.286  30.341  12.948  0.0604  0.2128  0.0140
 3346DOPE   C1B39267  34.182  30.189  12.740  0.1134 -0.0102  0.1103
 3346DOPE   D2B39268  34.383  30.084  12.346  0.2749 -0.2612 -0.2522
 3346DOPE   C3B39269  34.767  30.336  12.262 -0.2094 -0.2348  0.2112
 3346DOPE   C4B39270  35.267  30.248  12.284 -0.3752  0.3130  0.0761
 3347DOPE   NH339271  31.435  29.613  13.831  0.0158 -0.1608 -0.0270
 3347DOPE   PO439272  31.428  29.538  13.531  0.2897 -0.1991  0.0150
 3347DOPE   GL139273  31.393  29.466  13.116  0.2516 -0.5586  0.1157
 3347DOPE   GL239274  31.195  29.271  13.087 -0.2453 -0.0295 -0.2008
 3347DOPE   C1A39275  31.096  29.601  12.748  0.0238  0.1968  0.0650
 3347DOPE   D2A39276  31.116  29.482  12.292  0.2169 -0.1902  0.1436
 3347DOPE   C3A39277  31.104  29.062  12.098 -0.0227  0.4286 -0.1453
 3347DOPE   C4A39278  30.945  28.859  11.703  0.0200 -0.0764 -0.0228
 3347DOPE   C1B39279  30.876  29.175  12.758 -0.2886  0.1777  0.3587
 3347DOPE   D2B39280  30.590  29.470  12.576 -0.0211  0.1267  0.0067
 3347DOPE   C3B39281  30.659  29.776  12.298  0.1762  0.1784  0.1154
 3347DOPE   C4B39282  30.739  29.990  11.899  0.4026  0.0735 -0.0319
 3348POSM   NC339283  24.691   0.205  14.269 -0.0590  0.2488 -0.1710
 3348POSM   PO439284  25.035   0.079  14.212  0.0742  0.0821  0.0046
 3348POSM   AM139285  25.037  -0.089  13.933  0.0996  0.4824  0.0257
 3348POSM   AM239286  25.168  -0.308  13.764  0.1105 -0.2347  0.3245
 3348POSM   T1A39287  25.156   0.096  13.523 -0.0470 -0.3089 -0.0273
 3348POSM   C2A39288  25.117   0.366  13.164  0.1212  0.1600  0.1856
 3348POSM   C3A39289  25.196   0.335  12.673  0.0066  0.0032  0.1283
 3348POSM   C1B39290  25.415  -0.396  13.556 -0.1381 -0.0353 -0.3382
 3348POSM   D2B39291  25.774  -0.469  13.350  0.1705  0.0535 -0.2383
 3348POSM   C3B39292  25.876  -0.243  12.921  0.0403 -0.0883  0.0385
 3348POSM   C4B39293  25.793  -0.154  12.512  0.0151 -0.4734 -0.3122
 3349DOPC   NC339294  29.221  24.646  13.483  0.0439 -0.0348 -0.0344
 3349DOPC   PO439295  29.038  24.980  13.646 -0.1304  0.0309  0.0439
 3349DOPC   GL139296  29.157  25.112  13.256 -0.1876 -0.0212  0.4663
 3349DOPC   GL239297  29.492  25.107  13.250  0.1115 -0.0471  0.1548
 3349DOPC   C1A39298  29.244  25.355  12.857  0.1964  0.0719  0.0806
 3349DOPC   D2A39299  29.090  25.715  12.579 -0.0235 -0.0346  0.1907
 3349DOPC   C3A39300  28.741  25.471  12.397 -0.0449 -0.0756  0.0521
 3349DOPC   C4A39301  28.528  25.112  12.199  0.0198  0.3350  0.1678
 3349DOPC   C1B39302  29.393  24.781  13.028 -0.1306  0.5591 -0.2913
 3349DOPC   D2B39303  29.397  24.339  12.908  0.1802  0.2414  0.0787
 3349DOPC   C3B39304  29.132  24.406  12.587 -0.1397 -0.2482  0.1447
 3349DOPC   C4B39305  28.754  24.183  12.363 -0.0234 -0.0242 -0.1234
 3350POSM   NC339306  25.016  20.943  14.345 -0.0049  0.0372  0.2938
 3350POSM   PO439307  24.642  20.942  14.188 -0.2629  0.0627  0.1124
 3350POSM   AM139308  24.680  20.819  13.886 -0.0759 -0.1421  0.2371
 3350POSM   AM239309  24.680  20.919  13.597  0.2143 -0.1000 -0.1023
 3350POSM   T1A39310  25.016  20.542  13.605  0.2931 -0.1943  0.1258
 3350POSM   C2A39311  25.308  20.239  13.332 -0.0304 -0.3893  0.1541
 3350POSM   C3A39312  25.764  20.329  13.491 -0.1218  0.0593  0.0009
 3350POSM   C1B39313  24.856  20.841  13.293 -0.0004  0.3085  0.1111
 3350POSM   D2B39314  25.249  20.884  13.012  0.0274 -0.2624  0.0638
 3350POSM   C3B39315  25.128  20.771  12.569 -0.0234  0.1734 -0.1469
 3350POSM   C4B39316  24.887  20.613  12.241 -0.0783  0.2271  0.2377
 3351POSM   NC339317  23.882   0.522  14.533  0.0720  0.0841  0.0811
 3351POSM   PO439318  24.094   0.667  14.279 -0.0991  0.2736 -0.0120
 3351POSM   AM139319  24.044   0.569  13.978 -0.4986 -0.2447 -0.2977
 3351POSM   AM239320  24.175   0.588  13.694  0.1604 -0.0043 -0.1591
 3351POSM   T1A39321  23.872   0.198  13.684  0.3051 -0.0367 -0.0228
 3351POSM   C2A39322  23.744  -0.023  13.336 -0.3170  0.1799 -0.0749
 3351POSM   C3A39323  23.478  -0.006  12.928  0.2593  0.0936 -0.0774
 3351POSM   C1B39324  24.176   0.480  13.382  0.1555  0.4694  0.0132
 3351POSM   D2B39325  24.015   0.447  12.961  0.0728 -0.1141 -0.3905
 3351POSM   C3B39326  24.221   0.337  12.505  0.4728 -0.1610 -0.0368
 3351POSM   C4B39327  24.217   0.433  12.061  0.0482 -0.0211 -0.1467
 3352DOPS   CNO39328  30.551  32.770  14.184  0.0252 -0.0473  0.0741
 3352DOPS   PO439329  30.333  32.842  13.845 -0.2829  0.0431  0.2565
 3352DOPS   GL139330  30.522  32.907  13.511 -0.1455  0.2368  0.1386
 3352DOPS   GL239331  30.459  33.160  13.455  0.2017 -0.1369 -0.1334
 3352DOPS   C1A39332  30.311  32.790  13.084 -0.1458  0.1873 -0.3359
 3352DOPS   D2A39333  30.240  32.451  12.810 -0.0783 -0.2332  0.0966
 3352DOPS   C3A39334  29.954  32.556  12.438  0.1955  0.0539 -0.4033
 3352DOPS   C4A39335  29.610  32.437  12.126  0.1176 -0.3934  0.2523
 3352DOPS   C1B39336  30.265  33.278  13.045  0.0200 -0.2722  0.0513
 3352DOPS   D2B39337  30.115  33.536  12.727 -0.0871 -0.2452 -0.0383
 3352DOPS   C3B39338  30.303  34.014  12.614 -0.2577  0.0064 -0.1107
 3352DOPS   C4B39339  30.616  34.191  12.876  0.0673 -0.0461  0.0779
 3353DOPC   NC339340  25.247  33.219  14.462  0.0040  0.0101 -0.0455
 3353DOPC   PO439341  25.425  33.542  14.354 -0.0325  0.1225  0.0615
 3353DOPC   GL139342  25.587  33.343  14.024  0.0828 -0.0073 -0.2543
 3353DOPC   GL239343  25.294  33.280  13.944  0.1511  0.0044  0.0447
 3353DOPC   C1A39344  25.693  33.336  13.539  0.5436 -0.1400  0.4379
 3353DOPC   D2A39345  25.638  33.138  13.173  0.0051  0.2952 -0.1135
 3353DOPC   C3A39346  25.471  33.309  12.730  0.0296 -0.1186 -0.0808
 3353DOPC   C4A39347  25.452  33.544  12.255  0.1251  0.0144 -0.2106
 3353DOPC   C1B39348  25.336  32.998  13.581  0.1934 -0.0239 -0.0280
 3353DOPC   D2B39349  25.083  32.738  13.221  0.0307  0.1534 -0.0248
 3353DOPC   C3B39350  24.722  32.591  12.980  0.0795 -0.2418 -0.2474
 3353DOPC   C4B39351  24.591  32.752  12.582 -0.0362 -0.1715 -0.1232
 3354DOPE   NH339352  27.306  30.626  14.104 -0.1440  0.0469  0.0091
 3354DOPE   PO439353  27.580  30.530  14.017  0.0465  0.0659  0.0249
 3354DOPE   GL139354  27.739  30.539  13.703 -0.3902  0.4702  0.0556
 3354DOPE   GL239355  27.814  30.777  13.657 -0.1795 -0.3837  0.2144
 3354DOPE   C1A39356  27.600  30.550  13.273 -0.0708  0.3423 -0.0358
 3354DOPE   D2A39357  27.403  30.364  12.927 -0.1218  0.2422  0.0408
 3354DOPE   C3A39358  27.700  30.030  12.703 -0.1754  0.0093 -0.1386
 3354DOPE   C4A39359  27.842  29.591  12.743  0.0260  0.1229 -0.0102
 3354DOPE   C1B39360  28.002  31.123  13.340 -0.0919  0.2547  0.1975
 3354DOPE   D2B39361  28.273  31.380  13.010 -0.0865 -0.1884 -0.3197
 3354DOPE   C3B39362  27.956  31.514  12.730  0.2284  0.0371  0.0331
 3354DOPE   C4B39363  27.750  31.488  12.311  0.1737  0.0185 -0.1024
 3355DOPE   NH339364  25.289  27.042  14.385  0.1575 -0.1876 -0.0409
 3355DOPE   PO439365  25.345  26.845  14.117  0.6182 -0.1587  0.1826
 3355DOPE   GL139366  25.321  26.605  13.776 -0.2168  0.1596 -0.0109
 3355DOPE   GL239367  25.600  26.715  13.693 -0.1962 -0.2132 -0.1472
 3355DOPE   C1A39368  24.961  26.515  13.502 -0.1705 -0.1146 -0.0289
 3355DOPE   D2A39369  24.562  26.446  13.281  0.0487 -0.1733  0.0883
 3355DOPE   C3A39370  24.442  26.282  12.881  0.0408  0.1232  0.1363
 3355DOPE   C4A39371  24.530  26.382  12.428 -0.1889  0.0314  0.0236
 3355DOPE   C1B39372  25.668  26.426  13.317 -0.1121 -0.1048  0.3780
 3355DOPE   D2B39373  25.798  26.283  12.885 -0.1566 -0.4327 -0.0326
 3355DOPE   C3B39374  26.019  26.582  12.617  0.1371  0.2964  0.0310
 3355DOPE   C4B39375  26.024  26.969  12.426 -0.1135 -0.2085 -0.0791
 3356DOPC   NC339376  26.600  26.774  14.185 -0.0361 -0.0010 -0.2678
 3356DOPC   PO439377  26.297  27.004  13.968  0.0857 -0.2032 -0.1245
 3356DOPC   GL139378  26.411  27.153  13.575  0.2676 -0.1771  0.0069
 3356DOPC   GL239379  26.365  27.414  13.459 -0.1371  0.1266  0.1104
 3356DOPC   C1A39380  26.539  26.953  13.194 -0.0940  0.1038 -0.2697
 3356DOPC   D2A39381  26.951  26.782  13.024 -0.3929  0.1131  0.0506
 3356DOPC   C3A39382  26.915  26.663  12.575  0.0428 -0.5320  0.1929
 3356DOPC   C4A39383  26.962  26.816  12.165 -0.0886  0.2159  0.0482
 3356DOPC   C1B39384  26.344  27.655  13.033 -0.0089 -0.2284  0.0685
 3356DOPC   D2B39385  26.084  27.713  12.677  0.3015 -0.3607  0.2042
 3356DOPC   C3B39386  25.625  27.558  12.639 -0.2305 -0.0410  0.0425
 3356DOPC   C4B39387  25.258  27.316  12.801 -0.2018  0.2206 -0.0054
 3357POSM   NC339388  29.355  31.004  13.909 -0.1259 -0.0989  0.1683
 3357POSM   PO439389  29.235  31.369  13.764 -0.1451  0.0486  0.0663
 3357POSM   AM139390  29.179  31.453  13.453 -0.2156  0.1557 -0.1055
 3357POSM   AM239391  28.943  31.475  13.284  0.0623 -0.1168  0.2188
 3357POSM   T1A39392  29.239  31.476  12.926  0.1191 -0.0294 -0.0072
 3357POSM   C2A39393  29.147  31.481  12.490 -0.0441 -0.0676  0.2587
 3357POSM   C3A39394  28.971  31.411  12.050 -0.2058 -0.0458  0.2423
 3357POSM   C1B39395  28.776  31.314  12.981  0.0989 -0.1089 -0.3533
 3357POSM   D2B39396  28.626  31.246  12.585  0.0711  0.2040  0.1372
 3357POSM   C3B39397  28.899  30.971  12.304 -0.2592 -0.0328 -0.2554
 3357POSM   C4B39398  29.294  30.951  12.035 -0.0913  0.0493  0.1217
 3358POSM   NC339399  27.720   1.009  13.893  0.1388  0.1209 -0.1240
 3358POSM   PO439400  27.707   1.362  13.907  0.0549  0.0513  0.1869
 3358POSM   AM139401  27.639   1.492  13.618  0.0318  0.3811  0.1742
 3358POSM   AM239402  27.718   1.693  13.421 -0.3681  0.2972 -0.5389
 3358POSM   T1A39403  27.352   1.571  13.166 -0.0205  0.3153  0.2131
 3358POSM   C2A39404  26.916   1.651  13.040  0.5752 -0.1967  0.0713
 3358POSM   C3A39405  26.560   1.551  12.749  0.1829  0.0241 -0.0711
 3358POSM   C1B39406  27.857   1.665  13.117 -0.2135  0.1720  0.2225
 3358POSM   D2B39407  28.008   1.425  12.757  0.1756 -0.0150  0.0827
 3358POSM   C3B39408  27.811   1.653  12.386  0.0447 -0.0840  0.1957
 3358POSM   C4B39409  27.414   1.505  12.162 -0.0303  0.2802 -0.1655
 3359DOPC   NC339410  28.701   1.426  13.820 -0.2347 -0.4256  0.3912
 3359DOPC   PO439411  28.987   1.188  13.694 -0.0645 -0.0944  0.0049
 3359DOPC   GL139412  28.755   1.201  13.408  0.3283 -0.0589 -0.0099
 3359DOPC   GL239413  28.697   1.456  13.252  0.0875 -0.0624  0.0978
 3359DOPC   C1A39414  28.781   1.016  12.986  0.3308  0.0044 -0.5225
 3359DOPC   D2A39415  28.759   0.957  12.524 -0.3626  0.0195  0.0938
 3359DOPC   C3A39416  29.062   0.829  12.229  0.2546 -0.0243  0.0334
 3359DOPC   C4A39417  29.094   0.456  11.927 -0.1443 -0.1390 -0.0884
 3359DOPC   C1B39418  28.556   1.464  12.810  0.0843 -0.1453 -0.2310
 3359DOPC   D2B39419  28.772   1.458  12.385  0.1382  0.3544  0.2243
 3359DOPC   C3B39420  28.620   1.406  11.916  0.0227  0.0051  0.0099
 3359DOPC   C4B39421  28.865   1.314  11.524  0.0432  0.0411 -0.4454
 3360DOPS   CNO39422  26.283  30.237  14.400  0.2394  0.0645 -0.0371
 3360DOPS   PO439423  26.524  30.189  14.102 -0.0322 -0.0662  0.0196
 3360DOPS   GL139424  26.343  30.263  13.785  0.0876 -0.0420  0.3255
 3360DOPS   GL239425  26.257  30.002  13.656 -0.3578 -0.0604  0.0861
 3360DOPS   C1A39426  26.343  30.436  13.347  0.0646  0.1569 -0.1052
 3360DOPS   D2A39427  26.553  30.719  13.038  0.2025  0.2095 -0.1901
 3360DOPS   C3A39428  26.602  30.627  12.568 -0.1236 -0.3415  0.1891
 3360DOPS   C4A39429  26.699  30.312  12.244 -0.0088  0.1238  0.0312
 3360DOPS   C1B39430  26.659  30.094  13.380 -0.4410 -0.1343  0.1789
 3360DOPS   D2B39431  26.871  30.527  13.335 -0.3126  0.1045  0.3657
 3360DOPS   C3B39432  26.991  30.699  12.912  0.1889  0.0525 -0.0561
 3360DOPS   C4B39433  27.299  30.891  12.687  0.0415  0.3318  0.1016
 3361DOPE   NH339434  31.636  30.318  13.301  0.3042 -0.2600 -0.0381
 3361DOPE   PO439435  31.429  30.036  13.353 -0.1271 -0.0456  0.1269
 3361DOPE   GL139436  31.413  29.919  12.985  0.2414  0.0723  0.1614
 3361DOPE   GL239437  31.374  30.067  12.794  0.0351  0.2865  0.1832
 3361DOPE   C1A39438  31.734  29.678  12.776  0.0767  0.0544 -0.0771
 3361DOPE   D2A39439  32.050  29.404  12.606 -0.2306  0.2124 -0.2263
 3361DOPE   C3A39440  32.103  29.403  12.194  0.3283  0.2952  0.0974
 3361DOPE   C4A39441  31.924  29.141  11.851  0.1716 -0.0067 -0.0693
 3361DOPE   C1B39442  31.060  30.003  12.423  0.1131  0.1427 -0.0213
 3361DOPE   D2B39443  30.715  30.328  12.363  0.1309 -0.0465  0.0161
 3361DOPE   C3B39444  30.266  30.216  12.181  0.0254  0.1270  0.0439
 3361DOPE   C4B39445  29.929  29.954  12.038  0.2974  0.0493  0.2782
 3362DOPS   CNO39446  26.514   2.230  14.198  0.1337 -0.4078 -0.1184
 3362DOPS   PO439447  26.504   2.457  13.928 -0.1454  0.1935  0.0384
 3362DOPS   GL139448  26.336   2.189  13.562  0.3821 -0.3514  0.1788
 3362DOPS   GL239449  26.047   2.382  13.436 -0.1674 -0.0417 -0.3581
 3362DOPS   C1A39450  26.316   2.176  13.066  0.2462 -0.4028  0.0785
 3362DOPS   D2A39451  26.091   1.878  12.806  0.4610  0.1283 -0.1995
 3362DOPS   C3A39452  25.951   1.954  12.357 -0.1237 -0.1951  0.1858
 3362DOPS   C4A39453  25.880   1.855  11.933 -0.2554  0.0999 -0.2581
 3362DOPS   C1B39454  25.907   2.685  13.115  0.1474  0.2171  0.2303
 3362DOPS   D2B39455  26.044   2.840  12.726 -0.3913 -0.0866  0.1641
 3362DOPS   C3B39456  25.761   2.787  12.416 -0.0278  0.0527  0.2409
 3362DOPS   C4B39457  25.545   2.701  12.021  0.1332  0.0362  0.0345
 3363DOPS   CNO39458  25.245  22.177  14.363 -0.2248 -0.1044  0.0530
 3363DOPS   PO439459  24.928  22.319  14.170 -0.1038 -0.3027  0.2215
 3363DOPS   GL139460  24.947  22.317  13.760  0.0023 -0.3144 -0.3730
 3363DOPS   GL239461  24.731  22.457  13.726 -0.0263  0.3501 -0.1204
 3363DOPS   C1A39462  25.200  22.231  13.411 -0.0916 -0.4458 -0.0439
 3363DOPS   D2A39463  25.237  21.776  13.253 -0.1639 -0.2962 -0.4327
 3363DOPS   C3A39464  25.526  21.750  12.931 -0.0200 -0.1255  0.1235
 3363DOPS   C4A39465  25.830  21.526  12.596  0.2482  0.1674  0.3097
 3363DOPS   C1B39466  24.783  22.795  13.425  0.4275  0.0172 -0.0540
 3363DOPS   D2B39467  24.380  23.014  13.438  0.0570 -0.1880  0.3109
 3363DOPS   C3B39468  24.149  23.392  13.246  0.3419  0.0328 -0.0299
 3363DOPS   C4B39469  23.843  23.526  12.940 -0.1010 -0.0839  0.1033
 3364POSM   NC339470  24.794  28.519  13.953 -0.0921  0.1772  0.0486
 3364POSM   PO439471  24.984  28.809  13.826  0.1721  0.1777 -0.1787
 3364POSM   AM139472  25.035  28.851  13.481 -0.2711  0.2161  0.2059
 3364POSM   AM239473  24.934  28.791  13.205 -0.2347  0.0361 -0.0352
 3364POSM   T1A39474  25.134  29.210  13.060 -0.3909  0.3076 -0.2614
 3364POSM   C2A39475  25.164  29.235  12.599  0.0541 -0.1917  0.2334
 3364POSM   C3A39476  25.238  29.440  12.166  0.0379 -0.0445 -0.4657
 3364POSM   C1B39477  24.607  28.830  13.088  0.1727  0.2619 -0.0061
 3364POSM   D2B39478  24.175  29.034  12.953  0.1433  0.0944  0.1529
 3364POSM   C3B39479  24.168  29.254  12.546 -0.0140  0.1089  0.2288
 3364POSM   C4B39480  24.390  29.195  12.182 -0.0341  0.1143 -0.2200
 3365POSM   NC339481  28.949  32.726  13.455 -0.0014  0.2051  0.2115
 3365POSM   PO439482  28.938  32.360  13.606  0.0882 -0.1067 -0.2731
 3365POSM   AM139483  28.831  32.131  13.405  0.2031 -0.2001  0.2201
 3365POSM   AM239484  28.879  32.011  13.149 -0.0573 -0.0297  0.0883
 3365POSM   T1A39485  28.468  31.795  13.266 -0.1630 -0.0006  0.0179
 3365POSM   C2A39486  28.068  31.882  13.029 -0.0516 -0.1476  0.3233
 3365POSM   C3A39487  28.083  32.191  12.698 -0.0037 -0.0748 -0.1645
 3365POSM   C1B39488  28.836  31.893  12.842  0.3585  0.0414  0.1011
 3365POSM   D2B39489  28.816  32.004  12.372 -0.1173  0.0698 -0.0260
 3365POSM   C3B39490  28.486  32.335  12.302  0.1388  0.2330  0.1111
 3365POSM   C4B39491  28.178  32.638  12.192 -0.0447  0.4495  0.0467
 3366DOPC   NC339492  21.817  21.639  14.483  0.0390 -0.1640 -0.0421
 3366DOPC   PO439493  22.119  21.906  14.317 -0.0891 -0.0061 -0.4979
 3366DOPC   GL139494  22.296  22.039  13.988  0.0142  0.4712 -0.3583
 3366DOPC   GL239495  22.292  22.242  13.683 -0.1399 -0.0092  0.0550
 3366DOPC   C1A39496  22.257  21.762  13.586  0.0349  0.2271 -0.0396
 3366DOPC   D2A39497  22.180  21.761  13.150  0.0849 -0.0358 -0.1612
 3366DOPC   C3A39498  22.191  21.318  13.054 -0.0926  0.2422  0.0308
 3366DOPC   C4A39499  22.117  20.821  12.957 -0.0178 -0.2321  0.0345
 3366DOPC   C1B39500  22.702  22.342  13.565  0.3067 -0.0904  0.2684
 3366DOPC   D2B39501  22.791  22.608  13.131 -0.2483 -0.0612 -0.1394
 3366DOPC   C3B39502  22.684  22.818  12.716  0.2185 -0.1009 -0.1364
 3366DOPC   C4B39503  22.886  22.867  12.260 -0.0759 -0.1578 -0.1595
 3367POSM   NC339504  28.957   0.732  13.906  0.0382 -0.0305 -0.1263
 3367POSM   PO439505  28.633   0.914  13.997  0.0283 -0.3698 -0.1315
 3367POSM   AM139506  28.512   0.914  13.697  0.2185 -0.1435  0.2067
 3367POSM   AM239507  28.354   1.099  13.553  0.2126  0.1542 -0.0202
 3367POSM   T1A39508  28.420   0.679  13.246  0.2069  0.5099  0.0485
 3367POSM   C2A39509  28.669   0.561  12.907 -0.0751 -0.0600 -0.0633
 3367POSM   C3A39510  28.749   0.441  12.478  0.1900  0.1215 -0.0520
 3367POSM   C1B39511  28.355   1.178  13.235 -0.0009  0.0752 -0.1430
 3367POSM   D2B39512  28.336   1.023  12.804  0.0736 -0.1736 -0.3530
 3367POSM   C3B39513  28.284   0.661  12.498 -0.0747  0.1452  0.1856
 3367POSM   C4B39514  28.035   0.314  12.415 -0.1251  0.0024 -0.1431
 3368DOPC   NC339515  26.970  30.270  13.928  0.0971  0.0038  0.0655
 3368DOPC   PO439516  26.806  30.602  13.878  0.0555 -0.3587 -0.2448
 3368DOPC   GL139517  26.678  30.799  13.621 -0.4194  0.1047 -0.5206
 3368DOPC   GL239518  26.374  30.763  13.697 -0.3485 -0.0044  0.3457
 3368DOPC   C1A39519  26.923  31.065  13.315 -0.2569 -0.2555  0.0367
 3368DOPC   D2A39520  27.422  31.048  13.234  0.3155  0.0151  0.0576
 3368DOPC   C3A39521  27.740  30.927  12.930  0.1720 -0.0847  0.1836
 3368DOPC   C4A39522  27.747  31.028  12.436  0.2089  0.4449  0.0874
 3368DOPC   C1B39523  26.197  30.878  13.303  0.0458  0.3538  0.1180
 3368DOPC   D2B39524  26.379  31.124  12.981  0.0556  0.3462  0.2798
 3368DOPC   C3B39525  26.505  31.089  12.525 -0.4634  0.2869  0.1289
 3368DOPC   C4B39526  26.864  30.924  12.243 -0.0118 -0.0294  0.0126
 3369POSM   NC339527  28.228  28.188  14.170 -0.3579 -0.0753  0.0760
 3369POSM   PO439528  28.347  28.360  13.842  0.0725  0.1402 -0.2838
 3369POSM   AM139529  28.198  28.250  13.565 -0.1644 -0.0316  0.0062
 3369POSM   AM239530  28.234  27.980  13.393 -0.0050  0.0350 -0.1118
 3369POSM   T1A39531  28.094  28.322  13.081 -0.0641 -0.0115 -0.0446
 3369POSM   C2A39532  27.839  28.243  12.665 -0.1821  0.1083 -0.2200
 3369POSM   C3A39533  27.770  27.950  12.256  0.0821  0.0769 -0.0745
 3369POSM   C1B39534  28.192  27.863  13.027  0.1629  0.0540 -0.2288
 3369POSM   D2B39535  28.030  27.814  12.629  0.0429 -0.1236  0.0681
 3369POSM   C3B39536  28.208  27.602  12.249 -0.1522 -0.2343  0.4516
 3369POSM   C4B39537  27.949  27.664  11.860  0.3409  0.2790 -0.0531
 3370POSM   NC339538  32.442  24.167  13.805 -0.1697 -0.0698  0.1703
 3370POSM   PO439539  32.351  24.391  13.474 -0.0005 -0.1005 -0.0752
 3370POSM   AM139540  32.227  24.376  13.183 -0.2444 -0.2273  0.3230
 3370POSM   AM239541  32.353  24.237  12.965 -0.0582  0.0773  0.2414
 3370POSM   T1A39542  32.106  24.514  12.719  0.3317  0.0675  0.0437
 3370POSM   C2A39543  32.048  24.556  12.264 -0.1807 -0.1099  0.0541
 3370POSM   C3A39544  31.749  24.581  11.904 -0.0520 -0.0769 -0.0285
 3370POSM   C1B39545  32.171  23.985  12.938 -0.0264 -0.0153 -0.0205
 3370POSM   D2B39546  32.022  23.761  12.586  0.0338 -0.3539  0.1027
 3370POSM   C3B39547  32.000  24.040  12.267  0.0822  0.2249 -0.1276
 3370POSM   C4B39548  31.863  24.083  11.765 -0.0262  0.2783  0.0154
 3371DOPC   NC339549  23.551  23.677  14.555  0.0161 -0.1675  0.1035
 3371DOPC   PO439550  23.211  23.714  14.632  0.1270 -0.2528 -0.3558
 3371DOPC   GL139551  23.238  23.660  14.208 -0.1523 -0.1556 -0.2171
 3371DOPC   GL239552  23.047  23.883  14.106 -0.3651  0.0093  0.0482
 3371DOPC   C1A39553  22.954  23.474  13.913 -0.2178  0.0780 -0.2045
 3371DOPC   D2A39554  22.708  23.544  13.510 -0.3658  0.3101  0.1640
 3371DOPC   C3A39555  22.815  23.553  13.032  0.0777 -0.3521  0.0967
 3371DOPC   C4A39556  22.964  23.816  12.639 -0.1327 -0.4017  0.3248
 3371DOPC   C1B39557  22.964  23.908  13.682  0.0253  0.1170  0.1807
 3371DOPC   D2B39558  23.150  23.984  13.289 -0.1960  0.0457  0.1251
 3371DOPC   C3B39559  23.040  24.226  12.913 -0.0010 -0.0201  0.1626
 3371DOPC   C4B39560  23.025  24.524  12.535 -0.2446  0.1265  0.0129
 3372DOPE   NH339561  23.011  23.989  14.960 -0.1754 -0.1094 -0.0559
 3372DOPE   PO439562  22.831  24.199  14.862 -0.1689 -0.0262  0.2652
 3372DOPE   GL139563  22.841  24.044  14.466 -0.1123  0.1840  0.1131
 3372DOPE   GL239564  22.557  23.902  14.458  0.0003 -0.4036  0.5157
 3372DOPE   C1A39565  22.683  24.145  14.036  0.0095  0.3443  0.3979
 3372DOPE   D2A39566  22.852  24.379  13.642  0.1633 -0.2273 -0.3210
 3372DOPE   C3A39567  23.039  24.797  13.747  0.0498 -0.3011 -0.0534
 3372DOPE   C4A39568  22.968  25.227  13.889  0.2849  0.3581  0.0235
 3372DOPE   C1B39569  22.502  23.670  13.971 -0.1644  0.0944  0.1306
 3372DOPE   D2B39570  22.210  23.476  13.617 -0.1150 -0.4143  0.2137
 3372DOPE   C3B39571  22.287  23.650  13.197  0.2400 -0.0475  0.1702
 3372DOPE   C4B39572  22.279  23.531  12.742 -0.2453 -0.0891  0.0428
 3373DOPC   NC339573  21.134  26.618  14.495 -0.0008  0.0392  0.1176
 3373DOPC   PO439574  21.502  26.740  14.486  0.0048 -0.0297 -0.0515
 3373DOPC   GL139575  21.501  26.582  14.127 -0.0220 -0.1711 -0.4039
 3373DOPC   GL239576  21.278  26.739  14.024 -0.0183  0.0150 -0.0726
 3373DOPC   C1A39577  21.832  26.524  13.787 -0.1903  0.0618  0.3652
 3373DOPC   D2A39578  22.156  26.300  13.581  0.2448  0.0770  0.1329
 3373DOPC   C3A39579  22.142  26.077  13.176 -0.0669  0.1705  0.0475
 3373DOPC   C4A39580  22.470  26.184  12.867  0.0051  0.2497  0.2139
 3373DOPC   C1B39581  20.933  26.825  13.772 -0.1004  0.0257  0.0947
 3373DOPC   D2B39582  21.040  27.159  13.414  0.2247  0.0830 -0.0092
 3373DOPC   C3B39583  21.005  27.154  13.009 -0.1368  0.3547 -0.0890
 3373DOPC   C4B39584  20.829  27.339  12.604 -0.3905  0.0840 -0.3853
 3374POSM   NC339585  30.563  31.337  13.097 -0.1015  0.1532  0.1608
 3374POSM   PO439586  30.771  31.173  13.423  0.4241  0.0779 -0.1806
 3374POSM   AM139587  30.885  31.056  13.134 -0.0982  0.2829 -0.2614
 3374POSM   AM239588  30.787  30.819  12.988  0.0335  0.0406 -0.1502
 3374POSM   T1A39589  31.212  30.892  12.782 -0.2344 -0.3814  0.0433
 3374POSM   C2A39590  31.467  31.011  12.379  0.0825  0.1481 -0.4569
 3374POSM   C3A39591  31.703  30.938  11.993  0.3696 -0.0940  0.0440
 3374POSM   C1B39592  30.697  30.710  12.687  0.0002 -0.0423  0.0354
 3374POSM   D2B39593  30.472  30.751  12.261 -0.0073 -0.0201 -0.0823
 3374POSM   C3B39594  30.516  30.560  11.883 -0.0823  0.3712  0.3250
 3374POSM   C4B39595  30.372  30.198  11.577 -0.1184 -0.2846  0.2074
 3375POSM   NC339596  23.352   1.082  14.721 -0.0330 -0.2586  0.2527
 3375POSM   PO439597  23.552   0.839  14.449  0.0542  0.1903 -0.2364
 3375POSM   AM139598  23.521   0.814  14.158 -0.2927 -0.2479 -0.1440
 3375POSM   AM239599  23.680   0.850  13.949 -0.0098 -0.1410  0.2348
 3375POSM   T1A39600  23.305   0.547  13.767  0.0553  0.1738  0.0509
 3375POSM   C2A39601  23.164   0.711  13.383 -0.1679 -0.1233  0.0178
 3375POSM   C3A39602  23.214   0.957  12.997 -0.0630  0.1990  0.1148
 3375POSM   C1B39603  23.720   0.777  13.638 -0.4344  0.1044 -0.2310
 3375POSM   D2B39604  23.668   0.487  13.315 -0.0625 -0.0319  0.3805
 3375POSM   C3B39605  23.476   0.543  12.939  0.0615  0.0732  0.1472
 3375POSM   C4B39606  23.240   0.459  12.605  0.1931  0.2144  0.1974
 3376POSM   NC339607  23.293  27.567  14.286 -0.0468  0.0676  0.1388
 3376POSM   PO439608  22.969  27.330  14.264  0.0281 -0.0121 -0.0411
 3376POSM   AM139609  22.913  27.255  13.941 -0.2308 -0.2965 -0.0267
 3376POSM   AM239610  22.812  27.381  13.685 -0.0878  0.1297  0.0922
 3376POSM   T1A39611  23.003  26.887  13.601 -0.0680  0.0366 -0.1183
 3376POSM   C2A39612  23.050  26.493  13.384  0.0666  0.2586  0.3167
 3376POSM   C3A39613  22.896  26.032  13.169  0.1260 -0.1724 -0.0235
 3376POSM   C1B39614  22.800  27.437  13.373  0.2253  0.2713  0.1514
 3376POSM   D2B39615  23.105  27.474  12.974 -0.4515 -0.1454  0.2745
 3376POSM   C3B39616  23.118  27.277  12.591  0.0875 -0.0769 -0.3466
 3376POSM   C4B39617  22.884  27.160  12.308  0.0444  0.0221 -0.1176
 3377POSM   NC339618  28.289   2.084  13.861  0.2617  0.0553 -0.0757
 3377POSM   PO439619  28.680   1.978  13.892 -0.0726 -0.1428 -0.3329
 3377POSM   AM139620  28.699   2.044  13.541  0.2590 -0.2924 -0.0082
 3377POSM   AM239621  28.630   2.286  13.413  0.2130  0.0808  0.0291
 3377POSM   T1A39622  28.824   1.939  13.056  0.0768 -0.1138 -0.1941
 3377POSM   C2A39623  28.736   1.942  12.583  0.1857 -0.2251 -0.0168
 3377POSM   C3A39624  29.015   1.904  12.250 -0.0201  0.2285 -0.0444
 3377POSM   C1B39625  28.428   2.300  13.158  0.2124  0.1873  0.1953
 3377POSM   D2B39626  28.236   2.470  12.725  0.0469 -0.0586 -0.0249
 3377POSM   C3B39627  28.050   2.668  12.303 -0.2778 -0.0187  0.0431
 3377POSM   C4B39628  27.981   2.941  11.931 -0.0992 -0.4812 -0.1565
 3378DOPC   NC339629  33.561  30.515  13.219  0.1394 -0.0530 -0.0845
 3378DOPC   PO439630  33.802  30.772  13.412  0.0389  0.1403  0.1139
 3378DOPC   GL139631  33.910  30.713  13.022  0.0011  0.0670 -0.0720
 3378DOPC   GL239632  34.218  30.671  13.001 -0.0575 -0.1902 -0.0441
 3378DOPC   C1A39633  33.825  30.513  12.621 -0.0550  0.1271 -0.0070
 3378DOPC   D2A39634  33.909  30.254  12.271 -0.1359  0.0908  0.0680
 3378DOPC   C3A39635  34.295  30.439  12.045 -0.0521 -0.2592  0.3935
 3378DOPC   C4A39636  34.623  30.476  11.680 -0.0346  0.1750 -0.0883
 3378DOPC   C1B39637  34.499  31.004  12.913  0.0359  0.3293  0.1387
 3378DOPC   D2B39638  34.792  31.009  12.581 -0.2094  0.1530 -0.1585
 3378DOPC   C3B39639  34.715  30.833  12.168  0.2332 -0.1360  0.0587
 3378DOPC   C4B39640  34.568  30.991  11.745 -0.1949  0.1089 -0.0964
 3379POSM   NC339641  32.217  29.040  13.498 -0.0376 -0.1926 -0.0728
 3379POSM   PO439642  32.272  29.296  13.246  0.0945  0.1091  0.1641
 3379POSM   AM139643  32.378  29.295  12.954 -0.1435  0.0739 -0.0599
 3379POSM   AM239644  32.611  29.434  12.769 -0.0902 -0.0232 -0.3931
 3379POSM   T1A39645  32.375  29.040  12.521  0.2150  0.0090  0.1110
 3379POSM   C2A39646  32.314  28.919  12.112 -0.2246 -0.0348 -0.0120
 3379POSM   C3A39647  32.395  29.045  11.690 -0.0904  0.0908  0.0309
 3379POSM   C1B39648  32.559  29.489  12.426 -0.1053  0.1246 -0.3467
 3379POSM   D2B39649  32.531  29.543  11.975 -0.1788 -0.3598  0.1198
 3379POSM   C3B39650  32.722  29.926  11.828  0.1069  0.0994 -0.3066
 3379POSM   C4B39651  32.877  30.254  11.591  0.2306 -0.1975  0.1369
 3380DOPS   CNO39652  27.441  30.068  14.600 -0.0950  0.0635  0.0372
 3380DOPS   PO439653  27.333  30.078  14.220 -0.0937 -0.1281  0.2302
 3380DOPS   GL139654  27.396  30.133  13.849 -0.1049  0.1288 -0.0634
 3380DOPS   GL239655  27.307  29.821  13.772  0.1710  0.0828  0.1437
 3380DOPS   C1A39656  27.222  30.243  13.450 -0.0075  0.1169 -0.1253
 3380DOPS   D2A39657  27.008  30.068  13.018  0.2833 -0.0374  0.3005
 3380DOPS   C3A39658  26.603  30.192  12.917 -0.2926 -0.1176  0.1295
 3380DOPS   C4A39659  26.319  30.027  12.588 -0.0881  0.0851 -0.0551
 3380DOPS   C1B39660  27.089  29.621  13.498  0.0154  0.0594  0.3231
 3380DOPS   D2B39661  27.027  29.554  13.012 -0.1511 -0.3283 -0.3638
 3380DOPS   C3B39662  26.967  29.459  12.574 -0.1629  0.0324  0.2724
 3380DOPS   C4B39663  26.597  29.486  12.285 -0.2146 -0.1976  0.1552
 3381DOPS   CNO39664  23.824  29.006  13.641  0.0909  0.1867 -0.1422
 3381DOPS   PO439665  24.010  28.692  13.580 -0.1312 -0.1381  0.2529
 3381DOPS   GL139666  24.023  28.700  13.196  0.0997  0.1565  0.1060
 3381DOPS   GL239667  23.890  28.433  13.139  0.1410  0.1763 -0.2486
 3381DOPS   C1A39668  24.223  28.545  12.798 -0.4330  0.1644 -0.2719
 3381DOPS   D2A39669  24.408  28.245  12.494  0.3104 -0.0920  0.0640
 3381DOPS   C3A39670  24.796  28.034  12.257 -0.0583 -0.0622  0.0341
 3381DOPS   C4A39671  24.927  27.972  11.823 -0.0672  0.1963 -0.2170
 3381DOPS   C1B39672  23.772  28.655  12.799  0.1592 -0.1164 -0.0699
 3381DOPS   D2B39673  23.625  28.801  12.389  0.0084 -0.2413  0.0493
 3381DOPS   C3B39674  23.635  28.560  11.961 -0.2455  0.1541 -0.0414
 3381DOPS   C4B39675  23.736  28.431  11.558 -0.0432  0.0080 -0.0968
 3382DOPS   CNO39676  27.730  31.404  14.376  0.0216 -0.3935 -0.3450
 3382DOPS   PO439677  27.857  31.535  14.035 -0.0028 -0.3082 -0.1296
 3382DOPS   GL139678  27.690  31.772  13.671 -0.0392  0.3558 -0.2496
 3382DOPS   GL239679  27.892  31.670  13.493  0.0717 -0.1417 -0.0727
 3382DOPS   C1A39680  27.555  31.953  13.265 -0.0225 -0.1083 -0.1531
 3382DOPS   D2A39681  27.555  31.836  12.815 -0.3140 -0.1906 -0.0898
 3382DOPS   C3A39682  27.069  31.942  12.722 -0.2821  0.2602 -0.4343
 3382DOPS   C4A39683  26.697  31.656  12.669  0.0491  0.2388 -0.1937
 3382DOPS   C1B39684  27.692  31.442  13.129 -0.0889  0.0190 -0.1116
 3382DOPS   D2B39685  27.445  31.305  12.764  0.1481  0.3985 -0.1900
 3382DOPS   C3B39686  27.238  31.588  12.444 -0.1012  0.1971  0.2809
 3382DOPS   C4B39687  27.331  31.595  11.948 -0.1340  0.1774 -0.0726
 3383POSM   NC339688  27.307  26.322  14.327 -0.0248  0.0999  0.1304
 3383POSM   PO439689  27.268  25.966  14.191 -0.1455  0.0696  0.2262
 3383POSM   AM139690  27.161  25.904  13.847  0.0548  0.0008 -0.4648
 3383POSM   AM239691  26.922  25.820  13.712  0.0921  0.0124  0.0591
 3383POSM   T1A39692  27.272  25.885  13.377 -0.2834 -0.0546 -0.0908
 3383POSM   C2A39693  27.573  25.942  12.961  0.0088  0.0065 -0.0515
 3383POSM   C3A39694  27.714  25.847  12.527  0.2627 -0.0116 -0.1644
 3383POSM   C1B39695  26.791  26.000  13.373 -0.0580 -0.0639 -0.3213
 3383POSM   D2B39696  26.487  26.341  13.228 -0.1300  0.1900 -0.1454
 3383POSM   C3B39697  26.296  26.241  12.845  0.1060  0.1462 -0.1760
 3383POSM   C4B39698  26.404  26.155  12.417 -0.1180 -0.2485 -0.2035
 3384DOPE   NH339699  29.455   1.343  13.710  0.0588  0.0332  0.2055
 3384DOPE   PO439700  29.536   1.637  13.782 -0.0322  0.2408  0.0571
 3384DOPE   GL139701  29.459   1.891  13.494 -0.4213  0.0645 -0.2482
 3384DOPE   GL239702  29.581   1.704  13.300 -0.3844  0.1489  0.1354
 3384DOPE   C1A39703  29.151   2.206  13.348  0.0306 -0.0061  0.0038
 3384DOPE   D2A39704  28.928   2.458  13.003  0.4501  0.1840 -0.0206
 3384DOPE   C3A39705  29.012   2.349  12.568  0.2269 -0.1097  0.0261
 3384DOPE   C4A39706  29.328   2.366  12.252 -0.2228 -0.0627  0.0643
 3384DOPE   C1B39707  29.658   1.325  13.044 -0.0758 -0.0046  0.0282
 3384DOPE   D2B39708  29.999   1.199  12.723 -0.3082  0.2672 -0.1296
 3384DOPE   C3B39709  29.926   1.427  12.322  0.2995 -0.1805  0.0599
 3384DOPE   C4B39710  29.761   1.858  12.163 -0.0691 -0.1047 -0.0696
 3385POSM   NC339711  22.684  21.867  13.885 -0.3013  0.2372 -0.2389
 3385POSM   PO439712  22.972  21.969  14.134 -0.0604 -0.2358  0.3207
 3385POSM   AM139713  23.075  22.167  13.897  0.2313 -0.2828 -0.0856
 3385POSM   AM239714  23.207  22.118  13.663  0.2171 -0.0188  0.2059
 3385POSM   T1A39715  23.122  22.654  13.678  0.0330  0.1988  0.0411
 3385POSM   C2A39716  23.443  22.936  13.589 -0.1695  0.1959 -0.1929
 3385POSM   C3A39717  23.713  23.319  13.498  0.0199  0.0869  0.1017
 3385POSM   C1B39718  23.185  22.230  13.397  0.2010  0.1365  0.2510
 3385POSM   D2B39719  23.167  22.142  12.929  0.3758 -0.2638 -0.0346
 3385POSM   C3B39720  23.033  22.461  12.655  0.3944 -0.4502 -0.3300
 3385POSM   C4B39721  22.747  22.387  12.262  0.0060 -0.0257  0.0488
 3386DOPS   CNO39722  29.837  32.609  13.939 -0.2194 -0.0774  0.1233
 3386DOPS   PO439723  29.853  32.984  13.846 -0.0246  0.0514  0.1450
 3386DOPS   GL139724  29.577  33.108  13.518 -0.2066 -0.1267  0.0933
 3386DOPS   GL239725  29.823  33.081  13.334 -0.2729  0.1936  0.1901
 3386DOPS   C1A39726  29.378  32.929  13.142  0.1644 -0.2385 -0.0254
 3386DOPS   D2A39727  29.408  32.790  12.708 -0.0576 -0.0111  0.1406
 3386DOPS   C3A39728  29.559  32.890  12.299  0.1163 -0.2494  0.2050
 3386DOPS   C4A39729  29.883  32.829  11.981  0.4361 -0.1560 -0.3338
 3386DOPS   C1B39730  29.721  33.357  13.011 -0.0078  0.0597  0.0765
 3386DOPS   D2B39731  29.691  33.273  12.570  0.0067 -0.1488  0.0734
 3386DOPS   C3B39732  29.711  33.347  12.108  0.1849  0.1270 -0.1092
 3386DOPS   C4B39733  29.319  33.439  11.755 -0.0257  0.2721 -0.1566
 3387POSM   NC339734  27.921  29.077  14.382  0.0089  0.3125 -0.0340
 3387POSM   PO439735  27.926  29.137  14.006  0.3139  0.3277  0.3107
 3387POSM   AM139736  27.888  28.963  13.740 -0.1811  0.1875  0.2401
 3387POSM   AM239737  28.041  28.740  13.635 -0.0393 -0.0498 -0.1488
 3387POSM   T1A39738  27.774  28.901  13.258  0.1652  0.2103  0.3407
 3387POSM   C2A39739  27.772  28.647  12.936  0.0353 -0.1457  0.2433
 3387POSM   C3A39740  27.410  28.583  12.665  0.1847 -0.0814  0.1435
 3387POSM   C1B39741  28.222  28.766  13.343 -0.0270 -0.0465 -0.0005
 3387POSM   D2B39742  28.328  28.815  12.875 -0.1774  0.0960 -0.1512
 3387POSM   C3B39743  28.068  28.614  12.585  0.0907  0.0341  0.0894
 3387POSM   C4B39744  27.784  28.450  12.265  0.2740 -0.0617 -0.2298
 3388POSM   NC339745  25.812  26.998  14.085 -0.2447  0.1238  0.0884
 3388POSM   PO439746  25.539  27.284  14.062  0.1970 -0.2950  0.1304
 3388POSM   AM139747  25.457  27.222  13.740  0.2115 -0.0764  0.0494
 3388POSM   AM239748  25.201  27.056  13.624  0.0416 -0.3487 -0.0313
 3388POSM   T1A39749  25.345  27.402  13.300 -0.4216 -0.0576  0.0766
 3388POSM   C2A39750  25.214  27.777  13.050 -0.0477 -0.1393  0.0560
 3388POSM   C3A39751  25.204  27.829  12.597 -0.3114 -0.1151 -0.1306
 3388POSM   C1B39752  25.281  26.883  13.348 -0.0647  0.1072 -0.0403
 3388POSM   D2B39753  25.315  26.541  12.934 -0.0283  0.0561 -0.2447
 3388POSM   C3B39754  24.966  26.249  12.781 -0.4645  0.1085  0.2406
 3388POSM   C4B39755  24.976  25.867  12.553 -0.3624  0.0691 -0.1364
 3389POSM   NC339756  25.410   0.050  14.459  0.2424  0.1061 -0.0910
 3389POSM   PO439757  25.465  -0.307  14.268  0.2819  0.1378  0.4165
 3389POSM   AM139758  25.592  -0.410  13.965 -0.2284 -0.2690  0.2655
 3389POSM   AM239759  25.854  -0.359  13.894 -0.0869 -0.0553  0.0512
 3389POSM   T1A39760  25.697  -0.792  13.715  0.0348  0.0055 -0.0689
 3389POSM   C2A39761  25.984  -0.943  13.361 -0.0060  0.1743  0.1739
 3389POSM   C3A39762  26.176  -0.754  12.977 -0.0423  0.2338 -0.0759
 3389POSM   C1B39763  26.014  -0.130  13.684 -0.1733 -0.0596  0.0914
 3389POSM   D2B39764  26.137  -0.003  13.267 -0.3184 -0.1143  0.1039
 3389POSM   C3B39765  26.437  -0.289  13.022  0.3668 -0.1266 -0.0664
 3389POSM   C4B39766  26.800  -0.548  13.129 -0.0858 -0.1763 -0.0446
 3390DOPE   NH339767   1.125  29.187  13.347 -0.1428 -0.1402 -0.1715
 3390DOPE   PO439768   1.052  28.974  13.125  0.1160  0.2397  0.0711
 3390DOPE   GL139769   1.096  29.101  12.762 -0.1280  0.0295 -0.0373
 3390DOPE   GL239770   1.348  29.113  12.704  0.2554  0.1170 -0.2047
 3390DOPE   C1A39771   0.794  29.423  12.583  0.2333  0.0104  0.1183
 3390DOPE   D2A39772   0.621  29.673  12.235 -0.2428 -0.0831  0.1273
 3390DOPE   C3A39773   0.303  29.460  11.931  0.0179  0.1413  0.0183
 3390DOPE   C4A39774   0.142  29.701  11.548 -0.0351  0.0134 -0.1615
 3390DOPE   C1B39775   1.101  28.929  12.315 -0.0913  0.3125  0.2367
 3390DOPE   D2B39776   0.746  28.679  12.192 -0.2628  0.1205  0.1163
 3390DOPE   C3B39777   0.497  28.792  11.869 -0.0851  0.2112  0.0876
 3390DOPE   C4B39778   0.249  28.556  11.565 -0.0351  0.0505 -0.3987
 3391DOPE   NH339779  25.927  31.158  13.871 -0.2651 -0.0083 -0.0283
 3391DOPE   PO439780  25.724  30.893  13.873  0.0092  0.2039 -0.0955
 3391DOPE   GL139781  25.709  30.943  13.472  0.1901 -0.2437  0.3045
 3391DOPE   GL239782  25.376  30.964  13.489  0.1265  0.0757  0.3516
 3391DOPE   C1A39783  25.757  30.722  13.029 -0.0535  0.0765 -0.1822
 3391DOPE   D2A39784  25.597  30.612  12.622 -0.2097 -0.1327 -0.0016
 3391DOPE   C3A39785  25.228  30.592  12.382 -0.1030  0.1779  0.0676
 3391DOPE   C4A39786  24.892  30.873  12.353  0.1707  0.0771  0.2240
 3391DOPE   C1B39787  25.553  31.196  13.114 -0.2249 -0.0827 -0.2249
 3391DOPE   D2B39788  25.765  31.165  12.703 -0.1222  0.5120 -0.1474
 3391DOPE   C3B39789  25.558  31.114  12.292 -0.1090  0.2240 -0.1903
 3391DOPE   C4B39790  25.239  30.963  12.027  0.0104  0.0976  0.0666
 3392DOPS   CNO39791  34.110  25.944  13.084  0.1446 -0.1249  0.0128
 3392DOPS   PO439792  33.991  25.599  13.194 -0.2742  0.0109  0.0962
 3392DOPS   GL139793  33.820  25.405  12.903  0.3209  0.3147  0.1514
 3392DOPS   GL239794  33.755  25.649  12.705 -0.1011 -0.1580 -0.3145
 3392DOPS   C1A39795  33.861  25.208  12.473  0.3436  0.3196  0.0962
 3392DOPS   D2A39796  33.813  24.954  12.067  0.1787 -0.0387 -0.0111
 3392DOPS   C3A39797  33.993  24.581  11.925  0.0674  0.0772  0.0181
 3392DOPS   C4A39798  33.978  24.287  11.567  0.1203 -0.1924 -0.1878
 3392DOPS   C1B39799  33.824  25.668  12.205 -0.1392  0.0968  0.2545
 3392DOPS   D2B39800  33.928  25.441  11.774  0.1334 -0.2636  0.0625
 3392DOPS   C3B39801  33.747  25.746  11.452 -0.2140 -0.0032 -0.1584
 3392DOPS   C4B39802  33.838  26.125  11.144  0.0877 -0.2358  0.0240
 3393DOPS   CNO39803  22.270  26.272  14.893  0.0363  0.0272 -0.3561
 3393DOPS   PO439804  22.387  26.306  14.550 -0.0830 -0.1774 -0.3045
 3393DOPS   GL139805  22.685  26.256  14.342 -0.0156  0.3059  0.2856
 3393DOPS   GL239806  22.944  26.346  14.442 -0.0869 -0.1000 -0.1409
 3393DOPS   C1A39807  22.699  26.291  13.853  0.0266  0.2570  0.1544
 3393DOPS   D2A39808  22.608  26.575  13.504  0.3537 -0.3486  0.1451
 3393DOPS   C3A39809  22.640  26.616  13.033  0.1355  0.0113  0.2636
 3393DOPS   C4A39810  22.353  26.674  12.634 -0.1836  0.0319  0.0096
 3393DOPS   C1B39811  23.198  26.131  14.174  0.1279  0.0127 -0.0179
 3393DOPS   D2B39812  23.305  25.738  14.043  0.1149  0.1924  0.2526
 3393DOPS   C3B39813  23.466  25.343  13.895 -0.1962 -0.1938 -0.0777
 3393DOPS   C4B39814  23.446  24.961  13.560  0.2338 -0.1439 -0.0883
 3394DOPE   NH339815  25.486  32.362  14.253  0.0457  0.0618 -0.0518
 3394DOPE   PO439816  25.733  32.151  14.271 -0.0174 -0.1182 -0.0731
 3394DOPE   GL139817  25.861  32.069  13.933 -0.0231 -0.0393 -0.0368
 3394DOPE   GL239818  25.679  32.125  13.750  0.3688  0.1647 -0.0597
 3394DOPE   C1A39819  26.287  32.236  13.770  0.0462  0.1423  0.0725
 3394DOPE   D2A39820  26.523  32.283  13.356  0.0063  0.0046 -0.2454
 3394DOPE   C3A39821  26.458  32.501  12.912 -0.0181 -0.0639  0.0944
 3394DOPE   C4A39822  26.235  32.584  12.506  0.0500  0.1624 -0.0117
 3394DOPE   C1B39823  25.937  32.310  13.441  0.2066 -0.2939 -0.1077
 3394DOPE   D2B39824  26.038  32.618  13.103 -0.0881  0.0764  0.1121
 3394DOPE   C3B39825  25.732  32.784  12.828  0.0307  0.1973 -0.0165
 3394DOPE   C4B39826  25.376  32.865  12.522 -0.1810  0.1049 -0.1394
 3395DOPC   NC339827  26.186   0.622  13.929 -0.0839 -0.1167 -0.2042
 3395DOPC   PO439828  25.854   0.398  14.078 -0.2453 -0.2065  0.1135
 3395DOPC   GL139829  25.702   0.502  13.622  0.1148  0.0290  0.4480
 3395DOPC   GL239830  25.948   0.362  13.540 -0.1779 -0.1113 -0.1567
 3395DOPC   C1A39831  25.264   0.703  13.491 -0.1407 -0.5726 -0.0894
 3395DOPC   D2A39832  25.079   0.891  13.113  0.0824  0.0873  0.1654
 3395DOPC   C3A39833  24.876   0.726  12.705 -0.3116 -0.0707 -0.0840
 3395DOPC   C4A39834  24.539   0.777  12.466 -0.1660  0.2215  0.2994
 3395DOPC   C1B39835  25.645   0.073  13.372 -0.1115 -0.0697 -0.0734
 3395DOPC   D2B39836  25.377  -0.041  13.001  0.1652  0.3535 -0.0057
 3395DOPC   C3B39837  25.322  -0.477  13.075 -0.2650 -0.0421  0.0556
 3395DOPC   C4B39838  24.997  -0.703  13.270 -0.0944  0.2903  0.0696
 3396DOPE   NH339839  27.910   0.067  14.425  0.2181 -0.2030  0.0972
 3396DOPE   PO439840  27.708  -0.225  14.458 -0.0741 -0.1360  0.1557
 3396DOPE   GL139841  27.547  -0.214  14.153 -0.3198 -0.0174 -0.2801
 3396DOPE   GL239842  27.486  -0.405  14.000  0.0278 -0.0328  0.1952
 3396DOPE   C1A39843  27.307  -0.005  13.797 -0.2058  0.0520  0.1442
 3396DOPE   D2A39844  27.526   0.164  13.405 -0.1524  0.0896 -0.2171
 3396DOPE   C3A39845  27.751   0.241  12.991  0.4084  0.0195 -0.1727
 3396DOPE   C4A39846  28.210   0.320  12.972 -0.0623 -0.3521 -0.0979
 3396DOPE   C1B39847  27.024  -0.494  13.971 -0.2805 -0.0061  0.1313
 3396DOPE   D2B39848  26.770  -0.573  13.615 -0.0802 -0.1169  0.1820
 3396DOPE   C3B39849  26.583  -0.174  13.487 -0.5804 -0.1641  0.1778
 3396DOPE   C4B39850  26.440   0.282  13.573  0.2387 -0.4228  0.5070
 3397DOPC   NC339851  23.673  22.821  14.585  0.0627 -0.1224 -0.1972
 3397DOPC   PO439852  23.768  23.180  14.435  0.2568 -0.0878 -0.1129
 3397DOPC   GL139853  23.759  23.488  14.189 -0.1110  0.4246 -0.1898
 3397DOPC   GL239854  24.032  23.514  13.951  0.0194 -0.0598 -0.0442
 3397DOPC   C1A39855  23.433  23.511  13.880  0.1623  0.1421  0.1843
 3397DOPC   D2A39856  23.216  23.428  13.458 -0.0744 -0.0601  0.2158
 3397DOPC   C3A39857  23.311  23.543  12.986 -0.1563  0.2892 -0.3801
 3397DOPC   C4A39858  23.463  23.517  12.547 -0.0922 -0.1440  0.2823
 3397DOPC   C1B39859  24.172  23.764  13.523 -0.1556  0.0547 -0.2077
 3397DOPC   D2B39860  24.197  23.889  13.097  0.2377  0.2508  0.0750
 3397DOPC   C3B39861  24.032  23.887  12.663  0.0940 -0.1001  0.0570
 3397DOPC   C4B39862  23.789  23.912  12.294 -0.0019  0.2767  0.2180
 3398DOPE   NH339863  29.833  28.314  13.524  0.1956 -0.2771 -0.1151
 3398DOPE   PO439864  30.133  28.170  13.483  0.0784  0.0216 -0.3366
 3398DOPE   GL139865  30.027  28.154  13.135  0.0775  0.2044  0.0608
 3398DOPE   GL239866  29.811  27.884  13.042 -0.1224 -0.2263 -0.0681
 3398DOPE   C1A39867  30.017  28.348  12.739 -0.1367  0.3432  0.1428
 3398DOPE   D2A39868  29.707  28.412  12.460  0.0547  0.0171  0.2358
 3398DOPE   C3A39869  30.031  28.492  12.077  0.0945  0.0375  0.4603
 3398DOPE   C4A39870  30.164  28.349  11.668  0.1698  0.0232 -0.0282
 3398DOPE   C1B39871  29.840  27.860  12.620  0.3455  0.0002  0.1676
 3398DOPE   D2B39872  30.055  28.004  12.215  0.1383 -0.4915  0.1983
 3398DOPE   C3B39873  30.309  27.756  11.921  0.0406 -0.2836  0.1146
 3398DOPE   C4B39874  30.331  27.298  11.845 -0.0636  0.0528 -0.1751
 3399DOPE   NH339875  29.463  31.832  13.766  0.1801 -0.2957  0.2715
 3399DOPE   PO439876  29.268  31.966  13.504 -0.1118  0.1969 -0.2420
 3399DOPE   GL139877  29.516  31.951  13.200  0.1675 -0.0141  0.0438
 3399DOPE   GL239878  29.352  32.026  12.994 -0.1297  0.1812  0.0340
 3399DOPE   C1A39879  29.737  31.692  12.880  0.1850 -0.3200 -0.1034
 3399DOPE   D2A39880  29.639  31.518  12.470 -0.3020  0.3263  0.2251
 3399DOPE   C3A39881  29.950  31.184  12.455  0.2084 -0.2593  0.1548
 3399DOPE   C4A39882  30.012  30.861  12.124  0.2989  0.5504 -0.0118
 3399DOPE   C1B39883  29.366  32.067  12.521  0.2423  0.0382  0.0309
 3399DOPE   D2B39884  29.243  31.830  12.131  0.2052  0.1088 -0.0553
 3399DOPE   C3B39885  29.202  31.786  11.659  0.0879 -0.0023 -0.2760
 3399DOPE   C4B39886  29.174  31.788  11.262 -0.0200  0.0795  0.1040
 3400DOPC   NC339887  23.910  20.379  13.695  0.1663 -0.0237 -0.4277
 3400DOPC   PO439888  23.900  20.463  14.086  0.2310 -0.1120 -0.0592
 3400DOPC   GL139889  23.711  20.766  13.777  0.0952 -0.2128  0.0340
 3400DOPC   GL239890  23.853  21.009  13.705  0.0466 -0.1651  0.0250
 3400DOPC   C1A39891  23.596  20.657  13.398  0.1180 -0.2226 -0.1291
 3400DOPC   D2A39892  23.541  20.339  13.094  0.1550  0.0773 -0.0154
 3400DOPC   C3A39893  23.293  20.380  12.625  0.0652  0.1343 -0.1576
 3400DOPC   C4A39894  23.124  20.734  12.350 -0.0647 -0.1036  0.2133
 3400DOPC   C1B39895  24.204  20.975  13.372  0.1627 -0.0048 -0.2208
 3400DOPC   D2B39896  24.365  20.909  12.964  0.0169  0.0691 -0.2042
 3400DOPC   C3B39897  24.647  20.595  12.694  0.1356  0.0664 -0.1103
 3400DOPC   C4B39898  24.713  20.189  12.492  0.2951  0.0305 -0.0034
 3401DOPC   NC339899  30.683  28.794  13.596  0.0987  0.0762 -0.0545
 3401DOPC   PO439900  30.609  28.493  13.326  0.3307 -0.1932 -0.2931
 3401DOPC   GL139901  30.837  28.268  13.002  0.1656 -0.1106  0.2093
 3401DOPC   GL239902  30.589  28.222  12.883 -0.1103 -0.2511 -0.0075
 3401DOPC   C1A39903  31.095  28.358  12.644  0.1414 -0.1978  0.2663
 3401DOPC   D2A39904  30.957  28.537  12.293  0.1686 -0.0861  0.1127
 3401DOPC   C3A39905  31.072  28.353  11.869  0.1376 -0.3207 -0.1333
 3401DOPC   C4A39906  31.262  27.950  11.797 -0.1425 -0.4747 -0.0964
 3401DOPC   C1B39907  30.377  27.855  12.674  0.2092 -0.2883 -0.1110
 3401DOPC   D2B39908  30.138  27.505  12.493 -0.3006  0.0889 -0.1952
 3401DOPC   C3B39909  29.917  27.046  12.537 -0.3499  0.2341  0.0464
 3401DOPC   C4B39910  29.742  26.710  12.277  0.0014  0.0945  0.2713
 3402DOPE   NH339911  29.205  26.813  14.032 -0.0110 -0.1999  0.0897
 3402DOPE   PO439912  28.926  26.931  13.907 -0.0052 -0.0057 -0.2204
 3402DOPE   GL139913  28.965  26.669  13.623  0.1146 -0.1119  0.1155
 3402DOPE   GL239914  29.264  26.790  13.516 -0.1671  0.1243 -0.1689
 3402DOPE   C1A39915  28.716  26.500  13.243 -0.0548  0.2371 -0.0372
 3402DOPE   D2A39916  28.368  26.238  13.025  0.3148  0.0747  0.0093
 3402DOPE   C3A39917  28.206  26.224  12.645  0.1655  0.0790  0.1492
 3402DOPE   C4A39918  27.827  26.299  12.391 -0.0586 -0.2768  0.2518
 3402DOPE   C1B39919  29.201  26.611  13.103  0.2151  0.1523  0.0603
 3402DOPE   D2B39920  29.045  26.233  12.879 -0.0939 -0.2284 -0.0975
 3402DOPE   C3B39921  28.955  26.389  12.526  0.1221 -0.1812 -0.5645
 3402DOPE   C4B39922  28.746  26.423  12.076 -0.2127  0.1876 -0.1114
 3403DOPE   NH339923  33.940  29.073  13.450  0.0784 -0.2488  0.0879
 3403DOPE   PO439924  34.193  29.224  13.298  0.3845  0.2232 -0.1216
 3403DOPE   GL139925  34.309  29.414  12.920  0.0092  0.0400 -0.1155
 3403DOPE   GL239926  34.507  29.152  12.858 -0.0723 -0.0304 -0.0948
 3403DOPE   C1A39927  34.530  29.803  12.761 -0.1863 -0.0038 -0.0129
 3403DOPE   D2A39928  34.842  30.157  12.707  0.1197 -0.0822  0.0620
 3403DOPE   C3A39929  34.586  30.531  12.745 -0.1124  0.1278  0.0215
 3403DOPE   C4A39930  34.242  30.761  12.485 -0.0323 -0.0227 -0.1354
 3403DOPE   C1B39931  34.682  29.103  12.479  0.0890 -0.0850 -0.0056
 3403DOPE   D2B39932  34.763  28.920  12.066 -0.1400  0.1965  0.0062
 3403DOPE   C3B39933  34.720  29.125  11.621 -0.3940  0.1325 -0.0160
 3403DOPE   C4B39934  34.644  29.364  11.232  0.1736  0.1637  0.1832
 3404DOPS   CNO39935  23.978  26.233  14.887  0.1393 -0.2834 -0.0045
 3404DOPS   PO439936  24.119  25.998  14.608 -0.1327 -0.1860 -0.0289
 3404DOPS   GL139937  24.034  25.797  14.083 -0.1079  0.1254  0.2636
 3404DOPS   GL239938  23.768  25.929  14.011  0.2940 -0.0368  0.1365
 3404DOPS   C1A39939  24.010  25.427  13.808 -0.2078  0.0695 -0.2623
 3404DOPS   D2A39940  23.776  25.348  13.422 -0.1040 -0.1734  0.0316
 3404DOPS   C3A39941  23.349  25.366  13.334 -0.1444 -0.4861 -0.0036
 3404DOPS   C4A39942  23.193  25.367  12.921 -0.0801 -0.3073  0.2102
 3404DOPS   C1B39943  23.631  25.808  13.581  0.2049 -0.0835 -0.0336
 3404DOPS   D2B39944  23.348  25.865  13.199 -0.0024  0.3434  0.0340
 3404DOPS   C3B39945  23.385  25.801  12.752 -0.2343 -0.1400  0.3715
 3404DOPS   C4B39946  23.273  25.743  12.302  0.0723  0.3731 -0.0959
 3405POSM   NC339947  26.361   1.880  13.930  0.1087 -0.1169  0.5802
 3405POSM   PO439948  26.521   1.540  13.995  0.1688  0.3647  0.2927
 3405POSM   AM139949  26.621   1.560  13.685  0.0723 -0.0934  0.0283
 3405POSM   AM239950  26.574   1.714  13.451  0.0664  0.1809 -0.1243
 3405POSM   T1A39951  26.817   1.254  13.280  0.2935 -0.0364  0.2422
 3405POSM   C2A39952  27.099   1.081  12.959 -0.0524 -0.1736  0.0181
 3405POSM   C3A39953  26.908   0.640  12.845 -0.0057  0.0491  0.2444
 3405POSM   C1B39954  26.303   1.675  13.215 -0.0849 -0.1410 -0.0917
 3405POSM   D2B39955  26.117   1.316  13.014 -0.1436 -0.0251 -0.1301
 3405POSM   C3B39956  26.115   1.186  12.598 -0.2475 -0.0524  0.3501
 3405POSM   C4B39957  26.301   0.997  12.224  0.0913  0.0041 -0.1917
 3406DOPC   NC339958  24.850  29.759  13.787  0.1539 -0.2422 -0.0466
 3406DOPC   PO439959  25.049  29.406  13.864  0.1310  0.0785 -0.1331
 3406DOPC   GL139960  25.070  29.520  13.416 -0.0171  0.3015 -0.2832
 3406DOPC   GL239961  24.887  29.677  13.286  0.0134  0.2012 -0.0824
 3406DOPC   C1A39962  25.516  29.500  13.146  0.0429 -0.1237  0.1367
 3406DOPC   D2A39963  25.727  29.230  12.881  0.1976 -0.1346  0.0700
 3406DOPC   C3A39964  25.629  29.163  12.458 -0.1668 -0.0282  0.0668
 3406DOPC   C4A39965  25.400  28.945  12.111 -0.0793  0.1044  0.2002
 3406DOPC   C1B39966  25.067  29.644  12.848  0.0351 -0.0278 -0.1504
 3406DOPC   D2B39967  25.449  29.638  12.654 -0.0507 -0.3581  0.0728
 3406DOPC   C3B39968  25.793  29.872  12.845 -0.1848  0.1136 -0.1029
 3406DOPC   C4B39969  26.175  29.950  13.066 -0.0904  0.2097  0.1658
 3407DOPC   NC339970  26.260  22.794  13.794 -0.1177 -0.4142  0.0614
 3407DOPC   PO439971  25.910  22.848  13.943 -0.0208  0.0716 -0.0479
 3407DOPC   GL139972  25.802  22.867  13.605 -0.2201 -0.1262 -0.4035
 3407DOPC   GL239973  25.530  22.886  13.471  0.1242 -0.0277 -0.1121
 3407DOPC   C1A39974  25.971  22.781  13.171  0.3437 -0.0472  0.0521
 3407DOPC   D2A39975  25.960  22.932  12.789 -0.0622 -0.2540 -0.0922
 3407DOPC   C3A39976  26.210  22.688  12.498 -0.1487 -0.2271 -0.1237
 3407DOPC   C4A39977  26.375  22.318  12.650 -0.1104 -0.2089 -0.0967
 3407DOPC   C1B39978  25.228  22.736  13.200  0.0858 -0.0335  0.0042
 3407DOPC   D2B39979  24.831  22.535  12.950 -0.0828  0.1843  0.1459
 3407DOPC   C3B39980  24.774  22.343  12.482  0.1300 -0.0709  0.0605
 3407DOPC   C4B39981  24.614  22.058  12.138  0.0693  0.2409 -0.0356
 3408DOPS   CNO39982  23.628  22.446  13.731  0.1140  0.0300 -0.2808
 3408DOPS   PO439983  23.961  22.509  13.875 -0.0262  0.0500  0.0342
 3408DOPS   GL139984  23.943  22.762  13.533  0.0944  0.0750  0.1672
 3408DOPS   GL239985  24.055  22.627  13.361 -0.0406  0.0110 -0.3230
 3408DOPS   C1A39986  23.764  22.975  13.164  0.1332  0.0062 -0.0067
 3408DOPS   D2A39987  23.490  23.091  12.769 -0.0812 -0.3921 -0.0928
 3408DOPS   C3A39988  23.121  23.191  12.661  0.1746  0.3072  0.1213
 3408DOPS   C4A39989  22.732  23.276  12.505 -0.1861 -0.0677  0.0160
 3408DOPS   C1B39990  24.347  22.624  13.005  0.1649 -0.0666  0.1064
 3408DOPS   D2B39991  24.325  22.572  12.580 -0.0877 -0.2371  0.1270
 3408DOPS   C3B39992  24.034  22.336  12.290  0.0713 -0.0879  0.0506
 3408DOPS   C4B39993  23.745  22.078  12.076  0.0914 -0.0984  0.0190
 3409DOPC   NC339994  30.847  34.060  13.347 -0.0735  0.1824 -0.0885
 3409DOPC   PO439995  30.867  34.421  13.527 -0.0039 -0.0297 -0.0429
 3409DOPC   GL139996  31.159  34.449  13.178 -0.1399  0.2647  0.2220
 3409DOPC   GL239997  31.019  34.570  12.974 -0.0093 -0.1916  0.2370
 3409DOPC   C1A39998  31.149  34.117  12.835  0.0415 -0.1464 -0.2159
 3409DOPC   D2A39999  31.235  33.862  12.382 -0.1677 -0.1426 -0.1055
 3409DOPC   C3A40000  31.355  33.890  11.944 -0.0670  0.1498  0.2094
 3409DOPC   C4A40001  31.736  33.978  11.719  0.0847  0.0041  0.0245
 3409DOPC   C1B40002  30.936  34.550  12.565  0.1038 -0.0009 -0.0997
 3409DOPC   D2B40003  30.716  34.849  12.280 -0.1591  0.1956  0.3470
 3409DOPC   C3B40004  30.824  35.190  12.009  0.2477 -0.0690  0.1994
 3409DOPC   C4B40005  30.909  35.231  11.507 -0.3403  0.2335  0.0917
 3410POSM   NC340006  27.976  25.661  14.213  0.0193  0.0475 -0.1385
 3410POSM   PO440007  28.246  25.938  14.143 -0.4486  0.1214  0.2475
 3410POSM   AM140008  28.128  25.929  13.819 -0.2234  0.3088  0.1678
 3410POSM   AM240009  28.239  26.053  13.580 -0.2261  0.1326  0.3265
 3410POSM   T1A40010  27.913  25.548  13.604  0.1883  0.0143  0.2010
 3410POSM   C2A40011  27.568  25.425  13.364  0.0497 -0.0596  0.1486
 3410POSM   C3A40012  27.623  25.216  12.933 -0.1744  0.3495  0.0097
 3410POSM   C1B40013  28.019  25.954  13.321  0.2876  0.0255  0.0910
 3410POSM   D2B40014  28.000  25.744  12.935  0.0156  0.1280  0.0130
 3410POSM   C3B40015  28.230  25.672  12.560 -0.0652  0.2235 -0.2593
 3410POSM   C4B40016  28.305  25.553  12.099 -0.0753 -0.0403  0.1324
 3411DOPC   NC340017  27.384  25.500  14.049 -0.1455  0.4454 -0.0125
 3411DOPC   PO440018  27.104  25.343  13.854 -0.3065  0.1218 -0.2773
 3411DOPC   GL140019  26.932  25.304  13.536 -0.1418 -0.0147 -0.0260
 3411DOPC   GL240020  27.106  25.433  13.336 -0.1274  0.0442  0.1439
 3411DOPC   C1A40021  26.667  25.005  13.294  0.0937  0.1757  0.0710
 3411DOPC   D2A40022  26.304  24.821  13.110  0.0605 -0.1332  0.4004
 3411DOPC   C3A40023  26.340  24.407  13.024 -0.4377  0.0496 -0.1187
 3411DOPC   C4A40024  26.074  24.034  12.856 -0.1032 -0.2105  0.2494
 3411DOPC   C1B40025  27.073  25.720  12.937  0.3077 -0.0392  0.0345
 3411DOPC   D2B40026  27.217  25.699  12.481  0.2332 -0.3243 -0.0927
 3411DOPC   C3B40027  27.042  25.341  12.333  0.1803  0.3953 -0.0779
 3411DOPC   C4B40028  26.750  25.131  12.036  0.0328  0.0780  0.2034
 3412DOPC   NC340029  29.699  25.233  13.939  0.1847 -0.0440 -0.2520
 3412DOPC   PO440030  29.434  25.349  13.677 -0.0606 -0.3105  0.1667
 3412DOPC   GL140031  29.458  25.537  13.322 -0.0786  0.0054 -0.1350
 3412DOPC   GL240032  29.600  25.777  13.413 -0.3974 -0.1923  0.1453
 3412DOPC   C1A40033  29.404  25.878  12.987  0.0252  0.3564  0.0227
 3412DOPC   D2A40034  29.391  26.096  12.532  0.1839 -0.0440 -0.1329
 3412DOPC   C3A40035  29.685  26.183  12.185  0.2243  0.0124  0.1242
 3412DOPC   C4A40036  30.158  26.197  12.162 -0.1762  0.0190  0.2928
 3412DOPC   C1B40037  30.025  25.916  13.466 -0.0195 -0.1427 -0.1214
 3412DOPC   D2B40038  30.421  25.839  13.233  0.1863  0.4597  0.1198
 3412DOPC   C3B40039  30.570  25.790  12.797 -0.1475  0.4203  0.1398
 3412DOPC   C4B40040  30.689  26.014  12.399  0.0055 -0.2010  0.0065
 3413DOPE   NH340041  30.102  19.809  13.547 -0.1753  0.0931 -0.1246
 3413DOPE   PO440042  30.020  20.042  13.371  0.4153  0.0215 -0.1600
 3413DOPE   GL140043  29.924  19.923  13.012 -0.0134  0.3058  0.2041
 3413DOPE   GL240044  29.627  19.964  13.062  0.1984  0.0907  0.1087
 3413DOPE   C1A40045  29.986  20.035  12.549 -0.0931  0.1174 -0.3770
 3413DOPE   D2A40046  30.246  19.992  12.208  0.4004  0.3936  0.1004
 3413DOPE   C3A40047  30.423  20.266  11.927  0.0016 -0.2352  0.3675
 3413DOPE   C4A40048  30.589  20.598  11.664  0.1978 -0.0977  0.2324
 3413DOPE   C1B40049  29.503  20.392  13.089 -0.0981 -0.0111  0.1703
 3413DOPE   D2B40050  29.300  20.717  12.814  0.2252 -0.3806 -0.1730
 3413DOPE   C3B40051  29.538  20.874  12.404 -0.0108  0.1369 -0.1263
 3413DOPE   C4B40052  29.713  21.065  12.052 -0.0029 -0.0701  0.3706
 3414POSM   NC340053  31.214  25.698  14.081 -0.1919  0.1416  0.0536
 3414POSM   PO440054  30.852  25.931  13.967  0.0904 -0.3043 -0.0430
 3414POSM   AM140055  30.885  25.921  13.638 -0.1759 -0.2267 -0.0402
 3414POSM   AM240056  30.887  25.728  13.427  0.1516 -0.2276 -0.1211
 3414POSM   T1A40057  30.808  26.164  13.217 -0.1103  0.1551  0.0324
 3414POSM   C2A40058  30.610  26.272  12.797  0.0885 -0.1184 -0.1246
 3414POSM   C3A40059  30.405  26.641  12.559 -0.0622  0.0955  0.0516
 3414POSM   C1B40060  30.897  25.629  13.091 -0.2977  0.1336 -0.1429
 3414POSM   D2B40061  30.830  25.299  12.794  0.0894 -0.1891 -0.1710
 3414POSM   C3B40062  31.238  25.258  12.553 -0.0443  0.0404  0.0794
 3414POSM   C4B40063  31.680  25.340  12.386  0.0942  0.0716  0.3203
 3415POSM   NC340064  23.764  27.416  14.417  0.0292 -0.1202  0.0044
 3415POSM   PO440065  23.748  27.569  14.075 -0.0824 -0.2409 -0.2549
 3415POSM   AM140066  23.793  27.424  13.777 -0.0098 -0.1612 -0.0109
 3415POSM   AM240067  23.661  27.430  13.498  0.3116  0.1403  0.2538
 3415POSM   T1A40068  23.885  27.012  13.554 -0.1446  0.0197 -0.1814
 3415POSM   C2A40069  23.864  26.569  13.504 -0.0817 -0.2595  0.1379
 3415POSM   C3A40070  23.534  26.336  13.275 -0.1055  0.1830  0.1007
 3415POSM   C1B40071  23.365  27.318  13.359  0.0371 -0.1279  0.0649
 3415POSM   D2B40072  23.079  26.984  13.127 -0.0274 -0.2618 -0.0088
 3415POSM   C3B40073  23.195  26.583  12.898  0.1350  0.0350  0.0705
 3415POSM   C4B40074  23.530  26.329  12.762  0.3157 -0.4501  0.1355
 3416DOPE   NH340075  21.016  18.637  13.469  0.0350  0.2006 -0.1697
 3416DOPE   PO440076  20.767  18.705  13.267  0.0611  0.0644  0.0937
 3416DOPE   GL140077  20.974  18.902  13.063 -0.1027 -0.3311 -0.1512
 3416DOPE   GL240078  20.826  19.105  12.925 -0.1560  0.1618  0.1172
 3416DOPE   C1A40079  21.335  19.101  12.870 -0.0679 -0.0779 -0.0796
 3416DOPE   D2A40080  21.679  19.347  12.892  0.1182 -0.0801  0.4347
 3416DOPE   C3A40081  21.870  19.820  12.934 -0.0291  0.0772 -0.0364
 3416DOPE   C4A40082  21.726  20.245  12.933  0.1257 -0.1644 -0.0275
 3416DOPE   C1B40083  20.712  19.023  12.474  0.1447 -0.2253  0.0864
 3416DOPE   D2B40084  20.824  18.914  12.045  0.1299  0.2348  0.2269
 3416DOPE   C3B40085  21.198  19.112  11.887  0.1134  0.3027  0.0842
 3416DOPE   C4B40086  21.414  19.497  12.026 -0.2097 -0.0093 -0.1811
 3417POSM   NC340087  25.742  22.938  14.393 -0.2084  0.0324 -0.1960
 3417POSM   PO440088  25.737  23.323  14.328 -0.0831  0.0641  0.3335
 3417POSM   AM140089  25.645  23.499  14.021 -0.0458 -0.0676  0.3184
 3417POSM   AM240090  25.468  23.715  13.958 -0.0006 -0.2027  0.2167
 3417POSM   T1A40091  25.681  23.449  13.534  0.4598  0.3573 -0.2013
 3417POSM   C2A40092  25.675  23.184  13.090 -0.3105  0.2314 -0.2057
 3417POSM   C3A40093  25.478  22.854  12.784  0.1655  0.2291 -0.0835
 3417POSM   C1B40094  25.300  23.776  13.701 -0.1491  0.2640 -0.0571
 3417POSM   D2B40095  25.026  23.760  13.337 -0.0580  0.0855  0.2079
 3417POSM   C3B40096  25.056  24.109  13.025 -0.1630 -0.0344  0.0401
 3417POSM   C4B40097  25.278  24.498  12.859 -0.0672  0.0494 -0.0287
 3418DOPE   NH340098  25.642   1.803  14.052  0.1607 -0.0865 -0.1808
 3418DOPE   PO440099  25.962   1.679  14.044 -0.0660  0.0614  0.1542
 3418DOPE   GL140100  26.016   1.587  13.662 -0.2132  0.0791  0.2928
 3418DOPE   GL240101  25.963   1.915  13.592  0.0763 -0.2360  0.1786
 3418DOPE   C1A40102  25.796   1.603  13.226 -0.0853  0.2609 -0.0790
 3418DOPE   D2A40103  25.313   1.659  13.080 -0.0209 -0.0595  0.0317
 3418DOPE   C3A40104  25.119   1.337  12.833  0.3153 -0.4154 -0.1614
 3418DOPE   C4A40105  25.125   1.131  12.461 -0.0236 -0.0611  0.1665
 3418DOPE   C1B40106  25.705   2.092  13.262 -0.0922  0.1559  0.1296
 3418DOPE   D2B40107  25.596   1.961  12.834  0.0733 -0.0059  0.3055
 3418DOPE   C3B40108  25.670   1.500  12.719  0.0387  0.1628 -0.3404
 3418DOPE   C4B40109  25.651   1.111  12.406 -0.2506  0.2349 -0.2050
 3419POSM   NC340110  23.787  29.704  14.186  0.2396 -0.3072  0.0188
 3419POSM   PO440111  23.550  29.679  13.927  0.2879 -0.1328  0.1174
 3419POSM   AM140112  23.599  29.617  13.607 -0.2163 -0.1161 -0.2471
 3419POSM   AM240113  23.599  29.391  13.473  0.1528  0.1583  0.0758
 3419POSM   T1A40114  23.663  29.675  13.055 -0.0560  0.2562  0.0148
 3419POSM   C2A40115  23.409  29.534  12.690  0.0006  0.0711  0.3826
 3419POSM   C3A40116  23.219  29.172  12.502 -0.0879  0.0483  0.1486
 3419POSM   C1B40117  23.691  29.218  13.209 -0.1225  0.0027  0.0251
 3419POSM   D2B40118  23.642  29.129  12.726 -0.3135  0.1432 -0.1571
 3419POSM   C3B40119  23.684  29.328  12.316 -0.1712  0.1037 -0.0793
 3419POSM   C4B40120  23.632  29.386  11.824 -0.0248  0.0166 -0.5127
 3420DOPS   CNO40121  33.261  28.021  13.207  0.1466  0.0506  0.0933
 3420DOPS   PO440122  32.916  27.894  13.038 -0.0640 -0.2096  0.2124
 3420DOPS   GL140123  32.856  27.706  12.680 -0.2490 -0.0699  0.4160
 3420DOPS   GL240124  32.600  27.733  12.699  0.2146 -0.0630  0.4561
 3420DOPS   C1A40125  32.758  27.719  12.217 -0.0144  0.1529  0.3255
 3420DOPS   D2A40126  32.692  27.619  11.785 -0.0442  0.0410 -0.3714
 3420DOPS   C3A40127  32.367  27.356  11.847 -0.2531 -0.0409  0.1379
 3420DOPS   C4A40128  31.868  27.331  11.879  0.1755  0.0640  0.0988
 3420DOPS   C1B40129  32.504  27.344  12.468  0.1171  0.0072 -0.1793
 3420DOPS   D2B40130  32.366  26.921  12.449  0.0609 -0.2767 -0.0149
 3420DOPS   C3B40131  32.441  26.568  12.141 -0.1128 -0.0298 -0.1066
 3420DOPS   C4B40132  32.395  26.434  11.744 -0.0464 -0.0423 -0.3200
 3421DOPC   NC340133  27.927  33.742  14.367  0.1796  0.0766  0.0882
 3421DOPC   PO440134  27.542  33.804  14.241 -0.1274  0.2281 -0.2531
 3421DOPC   GL140135  27.527  33.768  13.782 -0.2382 -0.2358 -0.2652
 3421DOPC   GL240136  27.260  33.646  13.765  0.0280  0.1229  0.1769
 3421DOPC   C1A40137  27.294  34.157  13.546  0.3519 -0.1963 -0.1716
 3421DOPC   D2A40138  27.090  34.508  13.295 -0.2632  0.1093 -0.4251
 3421DOPC   C3A40139  27.190  34.819  12.996  0.2550  0.0876  0.4650
 3421DOPC   C4A40140  27.243  34.984  12.574 -0.0039  0.0716  0.0147
 3421DOPC   C1B40141  26.987  33.681  13.376  0.2989  0.0059  0.0804
 3421DOPC   D2B40142  27.007  33.542  12.907  0.2046  0.1311 -0.2086
 3421DOPC   C3B40143  26.814  33.369  12.508  0.3008  0.3117 -0.0781
 3421DOPC   C4B40144  26.744  33.040  12.182  0.3616  0.0665 -0.0886
 3422DOPS   CNO40145  24.803  32.862  14.591 -0.0190 -0.1797 -0.2063
 3422DOPS   PO440146  24.782  33.100  14.282  0.2445 -0.2241 -0.1851
 3422DOPS   GL140147  24.668  33.382  13.961 -0.0802  0.3531  0.1642
 3422DOPS   GL240148  24.401  33.337  13.791 -0.2464  0.2088  0.0137
 3422DOPS   C1A40149  24.859  33.257  13.545  0.0152 -0.0576 -0.2339
 3422DOPS   D2A40150  25.145  33.233  13.179 -0.1760  0.0160 -0.2146
 3422DOPS   C3A40151  24.940  33.038  12.769  0.0633  0.2677  0.4276
 3422DOPS   C4A40152  24.895  33.003  12.278  0.0000  0.3747  0.1007
 3422DOPS   C1B40153  24.453  33.494  13.398  0.1082 -0.0558  0.2538
 3422DOPS   D2B40154  24.540  33.145  13.071 -0.1886  0.2709 -0.0736
 3422DOPS   C3B40155  24.499  33.259  12.614  0.0643 -0.0095  0.0211
 3422DOPS   C4B40156  24.140  33.280  12.326  0.1161  0.2098 -0.1833
 3423DOPE   NH340157  30.373  34.144  13.679  0.1435 -0.3932  0.1786
 3423DOPE   PO440158  30.109  33.936  13.625 -0.1882 -0.0121  0.0144
 3423DOPE   GL140159  29.948  34.064  13.257  0.1623 -0.1862  0.2755
 3423DOPE   GL240160  29.576  33.958  13.182  0.3791  0.3809 -0.1146
 3423DOPE   C1A40161  29.921  34.233  12.816  0.0762  0.2369 -0.0053
 3423DOPE   D2A40162  29.918  34.253  12.377  0.2371  0.1709 -0.0486
 3423DOPE   C3A40163  30.279  34.156  12.118 -0.1067  0.1510  0.0123
 3423DOPE   C4A40164  30.734  34.099  12.265  0.0108 -0.0959 -0.0344
 3423DOPE   C1B40165  29.678  33.797  12.759 -0.2315 -0.0711 -0.1961
 3423DOPE   D2B40166  29.925  33.789  12.345  0.0855  0.2364  0.1665
 3423DOPE   C3B40167  30.007  33.707  11.925  0.1229  0.1516 -0.3055
 3423DOPE   C4B40168  30.305  33.550  11.575 -0.0511  0.2150 -0.2790
 3424DOPC   NC340169  22.561  26.751  14.440  0.0490  0.2091 -0.0170
 3424DOPC   PO440170  22.535  27.064  14.188 -0.1421  0.1960  0.0974
 3424DOPC   GL140171  22.493  26.936  13.822 -0.1385  0.2209 -0.3215
 3424DOPC   GL240172  22.153  26.931  13.725  0.3195 -0.0400 -0.1072
 3424DOPC   C1A40173  22.571  27.050  13.367  0.2067 -0.1630  0.1086
 3424DOPC   D2A40174  22.665  27.101  12.899  0.0284 -0.3081  0.1239
 3424DOPC   C3A40175  22.287  27.172  12.598  0.2410 -0.1247 -0.0413
 3424DOPC   C4A40176  21.929  27.477  12.599 -0.0597 -0.1969 -0.2289
 3424DOPC   C1B40177  22.147  26.716  13.316 -0.0998  0.4164 -0.1527
 3424DOPC   D2B40178  21.793  26.484  13.223 -0.0042  0.0941 -0.4031
 3424DOPC   C3B40179  21.811  26.215  12.814 -0.2716 -0.0822 -0.0781
 3424DOPC   C4B40180  21.739  25.917  12.437  0.2221  0.1178  0.0963
 3425DOPS   CNO40181  21.052  21.835  14.329 -0.1945 -0.2115 -0.1489
 3425DOPS   PO440182  20.760  22.062  14.324  0.2406 -0.1431  0.1553
 3425DOPS   GL140183  20.831  22.100  13.891  0.0186 -0.0431  0.2399
 3425DOPS   GL240184  21.147  22.111  13.933  0.1772  0.2502 -0.0237
 3425DOPS   C1A40185  20.564  21.830  13.610 -0.1948 -0.4915 -0.2490
 3425DOPS   D2A40186  20.642  21.877  13.206  0.0754 -0.1535 -0.0809
 3425DOPS   C3A40187  20.812  21.915  12.765  0.0668 -0.2700  0.2649
 3425DOPS   C4A40188  21.016  21.762  12.402  0.0065  0.1651  0.2982
 3425DOPS   C1B40189  21.073  21.986  13.498  0.0158 -0.2674  0.0665
 3425DOPS   D2B40190  21.201  21.938  13.124 -0.2701 -0.0653  0.0699
 3425DOPS   C3B40191  21.424  21.555  12.919 -0.2871  0.0302 -0.2468
 3425DOPS   C4B40192  21.773  21.268  12.765  0.0307 -0.0295 -0.1305
 3426DOPC   NC340193  23.191  24.399  14.574 -0.0708 -0.1717 -0.0712
 3426DOPC   PO440194  23.471  24.198  14.696 -0.2485 -0.1878  0.2917
 3426DOPC   GL140195  23.439  24.091  14.358  0.0198 -0.1814  0.5300
 3426DOPC   GL240196  23.634  24.117  14.175 -0.4066  0.2395 -0.2642
 3426DOPC   C1A40197  23.248  24.365  14.033  0.1157 -0.0567 -0.1302
 3426DOPC   D2A40198  23.336  24.392  13.532 -0.1053  0.0343 -0.2231
 3426DOPC   C3A40199  23.171  24.627  13.254 -0.1673 -0.0828 -0.1674
 3426DOPC   C4A40200  23.069  24.866  12.846 -0.0526  0.0630 -0.2723
 3426DOPC   C1B40201  23.483  23.969  13.735  0.1718 -0.4843  0.2384
 3426DOPC   D2B40202  23.682  23.795  13.320  0.0672 -0.0746 -0.0336
 3426DOPC   C3B40203  23.513  24.020  12.959 -0.1249  0.0593 -0.0794
 3426DOPC   C4B40204  23.394  24.155  12.562  0.0349  0.0933 -0.1233
 3427DOPE   NH340205  32.485  30.020  13.341  0.0662  0.4106  0.1490
 3427DOPE   PO440206  32.172  30.110  13.368 -0.1084 -0.0329 -0.0760
 3427DOPE   GL140207  32.131  30.225  12.921  0.1053 -0.1993 -0.2049
 3427DOPE   GL240208  31.875  30.142  12.861  0.2124 -0.1113  0.0331
 3427DOPE   C1A40209  31.997  30.465  12.515  0.0124  0.0623  0.2645
 3427DOPE   D2A40210  32.036  30.489  12.086  0.1357 -0.0282  0.1521
 3427DOPE   C3A40211  31.790  30.210  11.709 -0.1717  0.1343  0.0622
 3427DOPE   C4A40212  31.306  30.115  11.587  0.0022  0.1417 -0.0709
 3427DOPE   C1B40213  31.629  30.126  12.422  0.2669 -0.2200  0.0103
 3427DOPE   D2B40214  31.549  30.452  12.117 -0.0126 -0.3961  0.1897
 3427DOPE   C3B40215  31.116  30.364  11.981 -0.3209 -0.1990 -0.2664
 3427DOPE   C4B40216  30.905  30.382  11.473 -0.0521  0.1280 -0.1211
 3428POSM   NC340217  28.303  32.957  13.949  0.2135  0.0209  0.0919
 3428POSM   PO440218  28.519  32.668  13.721 -0.0023 -0.0860 -0.0158
 3428POSM   AM140219  28.445  32.538  13.400  0.2407 -0.0906  0.3179
 3428POSM   AM240220  28.542  32.445  13.175 -0.0378  0.0535  0.0668
 3428POSM   T1A40221  28.041  32.358  13.172  0.0537  0.0730 -0.1068
 3428POSM   C2A40222  27.684  32.343  12.922  0.1062  0.1850 -0.2813
 3428POSM   C3A40223  27.349  32.323  12.567 -0.0279 -0.2637  0.0887
 3428POSM   C1B40224  28.493  32.227  12.929  0.2244  0.0737  0.1754
 3428POSM   D2B40225  28.394  31.834  12.675 -0.0752 -0.1515 -0.1771
 3428POSM   C3B40226  28.113  31.840  12.286 -0.1358  0.0557 -0.0335
 3428POSM   C4B40227  27.706  32.024  12.313  0.0751 -0.2901 -0.1154
 3429DOPE   NH340228  25.526  29.374  14.253 -0.0393 -0.1057  0.5232
 3429DOPE   PO440229  25.805  29.513  14.198  0.4117  0.0609 -0.1249
 3429DOPE   GL140230  25.872  29.371  13.841 -0.0677  0.2818  0.0425
 3429DOPE   GL240231  26.056  29.576  13.692  0.2313  0.1146 -0.0688
 3429DOPE   C1A40232  25.794  29.165  13.403  0.1314  0.1119  0.2446
 3429DOPE   D2A40233  25.849  28.782  13.096  0.0029 -0.0098 -0.0092
 3429DOPE   C3A40234  26.083  28.946  12.667 -0.0998 -0.3942  0.1777
 3429DOPE   C4A40235  26.184  29.206  12.260 -0.1052 -0.2268  0.3565
 3429DOPE   C1B40236  26.033  29.532  13.257 -0.1387  0.1557  0.1147
 3429DOPE   D2B40237  26.166  29.441  12.822 -0.0543 -0.1253 -0.1886
 3429DOPE   C3B40238  25.982  29.623  12.438  0.1808  0.1117  0.1722
 3429DOPE   C4B40239  26.193  29.639  12.001  0.2051  0.0982 -0.2000
 3430POSM   NC340240  31.644  32.478  13.535 -0.0850  0.2394  0.0867
 3430POSM   PO440241  31.923  32.197  13.693  0.1457 -0.0841  0.0977
 3430POSM   AM140242  32.059  32.248  13.425 -0.0684  0.2444  0.1799
 3430POSM   AM240243  32.123  32.494  13.275  0.1680 -0.1330 -0.0135
 3430POSM   T1A40244  32.021  32.090  12.966 -0.3491  0.1335  0.0141
 3430POSM   C2A40245  32.182  32.165  12.529  0.2306  0.1674  0.1217
 3430POSM   C3A40246  32.568  31.908  12.403 -0.2097 -0.1353  0.0442
 3430POSM   C1B40247  32.040  32.609  12.958 -0.0446  0.1716 -0.0585
 3430POSM   D2B40248  31.933  32.842  12.617  0.0348  0.0757 -0.1650
 3430POSM   C3B40249  32.070  32.626  12.230  0.1177 -0.2498  0.1366
 3430POSM   C4B40250  32.263  32.826  11.907 -0.2770 -0.1775 -0.1404
 3431DOPC   NC340251  29.966  29.135  13.290 -0.0900  0.1333 -0.1884
 3431DOPC   PO440252  30.272  29.078  13.523 -0.1047  0.2444  0.1407
 3431DOPC   GL140253  30.475  28.887  13.178  0.2798 -0.1879  0.1360
 3431DOPC   GL240254  30.340  29.058  12.939 -0.0612 -0.1740 -0.0353
 3431DOPC   C1A40255  30.628  28.737  12.705  0.0456  0.2083  0.0686
 3431DOPC   D2A40256  30.696  28.936  12.331 -0.0869 -0.0025  0.3301
 3431DOPC   C3A40257  30.551  28.593  11.994  0.1510 -0.2240  0.3108
 3431DOPC   C4A40258  30.603  28.196  11.855 -0.1226 -0.1526 -0.0829
 3431DOPC   C1B40259  29.923  28.838  12.815 -0.0321 -0.2596  0.0329
 3431DOPC   D2B40260  29.442  28.808  12.714  0.0505  0.0262  0.2306
 3431DOPC   C3B40261  29.225  28.466  12.412  0.0110 -0.0308  0.3739
 3431DOPC   C4B40262  29.216  28.029  12.319  0.0120 -0.3789 -0.2459
 3432DOPE   NH340263  29.725  31.433  13.814 -0.0816 -0.0387  0.1777
 3432DOPE   PO440264  29.977  31.595  13.709 -0.0546  0.2897 -0.0691
 3432DOPE   GL140265  30.083  31.439  13.405 -0.0049 -0.1672  0.2724
 3432DOPE   GL240266  30.030  31.367  13.162  0.3241  0.0331  0.1551
 3432DOPE   C1A40267  30.256  31.758  13.034 -0.0584  0.2334  0.1390
 3432DOPE   D2A40268  30.140  31.659  12.641  0.0942 -0.0182  0.2394
 3432DOPE   C3A40269  30.248  31.697  12.200 -0.2810 -0.3816  0.1491
 3432DOPE   C4A40270  30.477  31.590  11.807 -0.1849  0.2978 -0.0713
 3432DOPE   C1B40271  29.734  31.180  12.900  0.2442 -0.0195 -0.1101
 3432DOPE   D2B40272  29.361  31.049  12.637 -0.2701 -0.2786  0.3163
 3432DOPE   C3B40273  28.976  30.855  12.766 -0.3073  0.2163 -0.1393
 3432DOPE   C4B40274  28.716  30.565  12.511 -0.0624  0.0247 -0.0617
 3433POSM   NC340275  30.811  23.412  13.629 -0.2107 -0.2280  0.0788
 3433POSM   PO440276  31.153  23.491  13.789  0.1125  0.1212 -0.3964
 3433POSM   AM140277  31.252  23.449  13.461  0.1021  0.1685  0.1509
 3433POSM   AM240278  31.124  23.523  13.183 -0.2804 -0.0088  0.1203
 3433POSM   T1A40279  31.637  23.315  13.275 -0.1768  0.2087 -0.4802
 3433POSM   C2A40280  32.046  23.061  13.178  0.2571  0.1018  0.2969
 3433POSM   C3A40281  32.484  22.995  12.946 -0.0009  0.3093  0.2874
 3433POSM   C1B40282  31.161  23.603  12.832 -0.1715 -0.1097  0.3012
 3433POSM   D2B40283  31.117  23.854  12.424  0.1116  0.2957  0.1212
 3433POSM   C3B40284  30.608  23.824  12.305 -0.2782  0.1732 -0.2806
 3433POSM   C4B40285  30.155  23.709  12.407  0.0820 -0.0798  0.0783
 3434DOPE   NH340286  31.841  31.689  13.783  0.5129  0.1479 -0.2048
 3434DOPE   PO440287  31.709  31.614  13.539 -0.0633 -0.1533  0.0659
 3434DOPE   GL140288  31.696  31.602  13.131  0.2850  0.2542  0.1870
 3434DOPE   GL240289  31.413  31.678  13.097  0.0277 -0.1518  0.0982
 3434DOPE   C1A40290  31.912  31.639  12.743  0.2726  0.0231  0.0359
 3434DOPE   D2A40291  31.786  31.821  12.326 -0.2025 -0.3859 -0.1207
 3434DOPE   C3A40292  32.117  31.957  12.066  0.1948  0.0474 -0.0423
 3434DOPE   C4A40293  32.376  32.328  11.868  0.0407  0.0916  0.1655
 3434DOPE   C1B40294  31.497  31.969  12.755 -0.5941  0.2110 -0.2086
 3434DOPE   D2B40295  31.351  31.998  12.292  0.1729  0.1980  0.2181
 3434DOPE   C3B40296  30.925  31.785  12.239  0.0322 -0.1004 -0.1252
 3434DOPE   C4B40297  30.638  31.574  12.621 -0.1007  0.1320  0.1620
 3435DOPE   NH340298  23.534  28.528  13.810 -0.2813 -0.1842  0.1473
 3435DOPE   PO440299  23.659  28.325  13.561  0.1456  0.3377 -0.1806
 3435DOPE   GL140300  23.458  28.123  13.328  0.0171 -0.1014 -0.0584
 3435DOPE   GL240301  23.321  28.317  13.227  0.3543  0.1665 -0.1336
 3435DOPE   C1A40302  23.529  27.729  13.083 -0.1230 -0.1248  0.1159
 3435DOPE   D2A40303  23.563  27.409  12.794 -0.1019 -0.0434 -0.1270
 3435DOPE   C3A40304  23.821  27.480  12.401  0.0378 -0.0659  0.0489
 3435DOPE   C4A40305  24.001  27.324  11.964  0.1980 -0.0103 -0.2140
 3435DOPE   C1B40306  23.071  28.035  12.950  0.0165  0.0453 -0.1311
 3435DOPE   D2B40307  23.050  27.837  12.551 -0.1398 -0.1322  0.2861
 3435DOPE   C3B40308  22.671  27.651  12.348 -0.0912  0.2553  0.2710
 3435DOPE   C4B40309  22.649  27.464  11.921 -0.0537 -0.1052 -0.1641
 3436DOPE   NH340310  33.384  31.071  13.358  0.0124  0.1499  0.0993
 3436DOPE   PO440311  33.211  30.852  13.190 -0.2017 -0.1197  0.1373
 3436DOPE   GL140312  33.248  30.696  12.794 -0.2032  0.1797 -0.0877
 3436DOPE   GL240313  33.039  30.587  12.579 -0.2164 -0.1149 -0.1908
 3436DOPE   C1A40314  33.508  30.834  12.402 -0.1807 -0.2127  0.0590
 3436DOPE   D2A40315  33.763  30.729  12.024 -0.0136  0.0400  0.1141
 3436DOPE   C3A40316  33.744  31.073  11.671 -0.0294 -0.0124  0.1952
 3436DOPE   C4A40317  34.067  31.279  11.412  0.1146 -0.2324 -0.0372
 3436DOPE   C1B40318  32.599  30.550  12.325 -0.0685 -0.3433  0.0663
 3436DOPE   D2B40319  32.476  30.345  11.991 -0.4033  0.0302 -0.3371
 3436DOPE   C3B40320  32.228  29.990  11.953  0.0811  0.6345  0.0784
 3436DOPE   C4B40321  31.968  29.644  11.717 -0.0916 -0.0126  0.1994
 3437DOPE   NH340322  22.005  20.917  14.206 -0.0234 -0.1531 -0.1876
 3437DOPE   PO440323  21.767  21.090  14.036 -0.0178  0.0224 -0.2049
 3437DOPE   GL140324  21.474  21.295  13.777  0.0251 -0.2360 -0.1443
 3437DOPE   GL240325  21.373  21.216  13.547 -0.0422  0.3377  0.1096
 3437DOPE   C1A40326  21.534  21.753  13.683 -0.0497 -0.0908  0.0177
 3437DOPE   D2A40327  21.780  22.116  13.783 -0.0030  0.1135 -0.0873
 3437DOPE   C3A40328  21.642  22.441  13.587 -0.1328  0.2255 -0.0404
 3437DOPE   C4A40329  21.433  22.823  13.368  0.3680  0.1902  0.1134
 3437DOPE   C1B40330  21.044  21.477  13.330  0.1413  0.2731 -0.0734
 3437DOPE   D2B40331  20.903  21.416  12.893 -0.0104 -0.1973 -0.2017
 3437DOPE   C3B40332  21.131  21.285  12.546  0.0585  0.0285 -0.2318
 3437DOPE   C4B40333  21.516  21.099  12.329 -0.1822 -0.1534 -0.0370
 3438POSM   NC340334  29.200  25.743  13.806 -0.0098  0.1877  0.0570
 3438POSM   PO440335  28.860  25.527  13.901  0.0877  0.1379  0.0271
 3438POSM   AM140336  28.813  25.425  13.596 -0.3038  0.0108  0.0449
 3438POSM   AM240337  28.674  25.200  13.419 -0.1309 -0.1746 -0.0701
 3438POSM   T1A40338  28.911  25.617  13.138  0.2630  0.1448 -0.0494
 3438POSM   C2A40339  28.698  25.867  12.805  0.1357 -0.2555 -0.1370
 3438POSM   C3A40340  28.612  25.992  12.420  0.0074 -0.3772 -0.1802
 3438POSM   C1B40341  28.658  25.231  13.088  0.4580  0.2041  0.1195
 3438POSM   D2B40342  28.442  25.246  12.697  0.0363 -0.0948 -0.0168
 3438POSM   C3B40343  27.973  25.297  12.574  0.1221 -0.1836 -0.0821
 3438POSM   C4B40344  27.527  25.335  12.469  0.1145 -0.0459 -0.2680
 3439DOPE   NH340345  31.283  31.533  13.784  0.0840  0.1055  0.0307
 3439DOPE   PO440346  30.948  31.568  13.752  0.3349  0.0052  0.0852
 3439DOPE   GL140347  30.981  31.576  13.347 -0.4277  0.3057  0.3291
 3439DOPE   GL240348  30.783  31.807  13.238  0.1942  0.0048  0.1381
 3439DOPE   C1A40349  31.033  31.415  12.933  0.0932  0.3749  0.3795
 3439DOPE   D2A40350  30.895  31.167  12.574  0.0696 -0.3630 -0.0196
 3439DOPE   C3A40351  30.905  31.314  12.120 -0.1905  0.1928  0.4627
 3439DOPE   C4A40352  30.955  31.497  11.740  0.0632 -0.3325 -0.2284
 3439DOPE   C1B40353  30.570  32.065  12.796 -0.2136  0.0320  0.2125
 3439DOPE   D2B40354  30.282  32.186  12.402 -0.0435 -0.0450  0.3218
 3439DOPE   C3B40355  30.062  32.304  12.013 -0.1303  0.2021  0.0017
 3439DOPE   C4B40356  29.956  32.495  11.628  0.0626 -0.2495  0.1993
 3440DOPE   NH340357  31.385  33.481  13.626 -0.1104 -0.2654 -0.1429
 3440DOPE   PO440358  31.228  33.723  13.488 -0.0478 -0.0598  0.1030
 3440DOPE   GL140359  31.113  33.666  13.068  0.2121  0.2452  0.1019
 3440DOPE   GL240360  30.878  33.633  13.049 -0.4038  0.1233  0.0843
 3440DOPE   C1A40361  31.072  33.332  12.709 -0.1925 -0.4106  0.0330
 3440DOPE   D2A40362  30.957  32.929  12.495  0.1759  0.0518  0.1638
 3440DOPE   C3A40363  31.082  32.912  12.036 -0.0968  0.0304  0.1825
 3440DOPE   C4A40364  31.207  32.936  11.556  0.5833  0.0358  0.2824
 3440DOPE   C1B40365  30.751  33.718  12.654  0.1916 -0.0618  0.0901
 3440DOPE   D2B40366  30.417  33.638  12.323 -0.3016  0.0656  0.3895
 3440DOPE   C3B40367  30.365  33.326  12.053 -0.3288 -0.1715  0.1872
 3440DOPE   C4B40368  30.664  33.099  11.829 -0.0155  0.1251  0.3978
 3441POSM   NC340369  28.483  31.282  13.971 -0.1230 -0.0336 -0.1157
 3441POSM   PO440370  28.532  30.886  14.010  0.1736  0.0593 -0.5164
 3441POSM   AM140371  28.465  30.769  13.751 -0.0381 -0.0026 -0.0357
 3441POSM   AM240372  28.385  30.803  13.500  0.1091  0.0127  0.2479
 3441POSM   T1A40373  28.577  30.382  13.442 -0.0968 -0.2365 -0.2039
 3441POSM   C2A40374  28.635  29.982  13.170  0.2118  0.0761  0.0703
 3441POSM   C3A40375  28.679  29.745  12.741  0.1424  0.4946 -0.3137
 3441POSM   C1B40376  28.288  30.794  13.164  0.1543 -0.0035  0.1619
 3441POSM   D2B40377  28.181  30.905  12.734 -0.0099  0.0725 -0.0443
 3441POSM   C3B40378  28.206  31.220  12.330  0.0420 -0.2147 -0.3895
 3441POSM   C4B40379  28.512  31.576  12.223 -0.4574  0.1401  0.1985
 3442DOPC   NC340380  26.003  31.458  14.453 -0.1116 -0.0896 -0.0548
 3442DOPC   PO440381  26.310  31.594  14.261  0.1778  0.1270  0.1690
 3442DOPC   GL140382  26.275  31.453  13.825  0.2973 -0.2520  0.1586
 3442DOPC   GL240383  26.113  31.661  13.705 -0.0711  0.0759 -0.1148
 3442DOPC   C1A40384  26.425  31.425  13.372 -0.1170  0.2043  0.0307
 3442DOPC   D2A40385  26.681  31.699  13.168  0.1854 -0.0459  0.0364
 3442DOPC   C3A40386  26.600  32.057  12.893  0.1781  0.0661 -0.1965
 3442DOPC   C4A40387  26.643  32.196  12.457 -0.0736 -0.0056  0.4470
 3442DOPC   C1B40388  26.231  31.924  13.348  0.0528  0.2192 -0.1342
 3442DOPC   D2B40389  26.109  32.116  12.960 -0.4644 -0.0125  0.1847
 3442DOPC   C3B40390  26.241  31.930  12.546 -0.0419  0.0615 -0.1891
 3442DOPC   C4B40391  26.357  31.797  12.111  0.2071  0.5954 -0.2325
 3443DOPE   NH340392  21.980  22.385  14.148 -0.2948 -0.2718 -0.0044
 3443DOPE   PO440393  22.302  22.527  14.213 -0.0105 -0.0395  0.1251
 3443DOPE   GL140394  22.472  22.736  13.873  0.1439  0.5860 -0.4578
 3443DOPE   GL240395  22.478  23.055  13.824 -0.1087 -0.1985 -0.0463
 3443DOPE   C1A40396  22.299  22.667  13.418  0.1421 -0.0780 -0.2396
 3443DOPE   D2A40397  22.088  22.235  13.260 -0.0519 -0.0108 -0.1926
 3443DOPE   C3A40398  21.994  22.095  12.820 -0.4790 -0.0747  0.1555
 3443DOPE   C4A40399  21.963  21.722  12.507 -0.1310 -0.0756 -0.1679
 3443DOPE   C1B40400  22.691  23.071  13.407  0.0916  0.0015  0.1165
 3443DOPE   D2B40401  23.095  23.061  13.154  0.1336  0.2589 -0.1710
 3443DOPE   C3B40402  23.290  22.628  13.118  0.0364 -0.0784 -0.2754
 3443DOPE   C4B40403  23.642  22.416  13.197 -0.2984  0.1544 -0.1038
 3444DOPC   NC340404  34.023  29.773  13.379 -0.2942 -0.1741  0.0530
 3444DOPC   PO440405  33.652  29.876  13.305 -0.1468 -0.3180 -0.0677
 3444DOPC   GL140406  33.838  29.907  12.928 -0.0290 -0.0312 -0.2691
 3444DOPC   GL240407  33.636  30.081  12.773  0.2364  0.1065  0.0988
 3444DOPC   C1A40408  34.053  29.727  12.597  0.2896  0.0340  0.1006
 3444DOPC   D2A40409  34.361  29.440  12.367 -0.3447  0.1141  0.2114
 3444DOPC   C3A40410  34.441  29.447  11.914 -0.0483 -0.0975 -0.0720
 3444DOPC   C4A40411  34.221  29.390  11.537 -0.1243  0.0774  0.1056
 3444DOPC   C1B40412  33.419  30.272  12.382  0.2145  0.0283  0.0521
 3444DOPC   D2B40413  33.488  30.335  11.937 -0.2471  0.1525 -0.2411
 3444DOPC   C3B40414  33.909  30.354  11.719 -0.0276  0.1939  0.1683
 3444DOPC   C4B40415  34.240  30.164  11.495  0.1162  0.2894 -0.2511
 3445POSM   NC340416  23.414  21.751  13.915 -0.3575  0.2328 -0.0278
 3445POSM   PO440417  23.107  21.524  13.986 -0.0987 -0.0453 -0.1673
 3445POSM   AM140418  23.022  21.590  13.692 -0.4858 -0.1924  0.0713
 3445POSM   AM240419  23.176  21.640  13.454  0.0962 -0.4520  0.1458
 3445POSM   T1A40420  22.774  21.923  13.346  0.2189 -0.3253 -0.1951
 3445POSM   C2A40421  22.511  22.193  13.115  0.0167 -0.0009 -0.1014
 3445POSM   C3A40422  22.295  22.550  12.851  0.1306 -0.1362  0.1621
 3445POSM   C1B40423  23.303  21.741  13.156 -0.0903  0.3415 -0.0666
 3445POSM   D2B40424  23.624  21.987  12.942 -0.0270 -0.0312 -0.3696
 3445POSM   C3B40425  23.581  22.204  12.548  0.3494 -0.0512  0.0014
 3445POSM   C4B40426  23.301  22.298  12.140 -0.2424 -0.0461 -0.1071
 3446DOPE   NH340427  27.753  26.425  13.814  0.1685  0.0082 -0.0979
 3446DOPE   PO440428  27.459  26.532  13.860 -0.1618  0.2756 -0.0357
 3446DOPE   GL140429  27.454  26.509  13.421 -0.3227  0.1900  0.2052
 3446DOPE   GL240430  27.553  26.237  13.394  0.0420  0.2452 -0.0074
 3446DOPE   C1A40431  27.165  26.384  13.063 -0.1792  0.3136  0.0795
 3446DOPE   D2A40432  26.838  26.244  12.828  0.0748  0.5358 -0.2233
 3446DOPE   C3A40433  26.884  26.163  12.370 -0.3440 -0.0133 -0.0783
 3446DOPE   C4A40434  27.178  26.362  12.040  0.1189 -0.2704  0.0906
 3446DOPE   C1B40435  27.738  26.411  13.031  0.1952  0.1168 -0.1558
 3446DOPE   D2B40436  27.972  26.648  12.708  0.0547 -0.0851 -0.0473
 3446DOPE   C3B40437  28.267  26.946  12.504  0.1827  0.0166 -0.1285
 3446DOPE   C4B40438  28.529  27.262  12.313  0.1849  0.1935  0.0614
 3447DOPE   NH340439  29.178  28.280  14.038  0.1509  0.0574 -0.1493
 3447DOPE   PO440440  28.934  28.359  13.823  0.1100 -0.3325  0.4200
 3447DOPE   GL140441  28.712  28.023  13.580 -0.0398 -0.4172 -0.0904
 3447DOPE   GL240442  28.909  27.773  13.458 -0.0118 -0.2550 -0.1593
 3447DOPE   C1A40443  28.623  28.031  13.124  0.0088 -0.1916  0.0883
 3447DOPE   D2A40444  28.842  28.041  12.729 -0.0530 -0.0866 -0.1451
 3447DOPE   C3A40445  28.744  28.275  12.351  0.1085  0.1472 -0.2451
 3447DOPE   C4A40446  28.764  28.234  11.817  0.2349 -0.0003 -0.1088
 3447DOPE   C1B40447  28.789  27.572  13.060 -0.2404 -0.0100 -0.1066
 3447DOPE   D2B40448  29.013  27.445  12.708 -0.1004 -0.1710  0.2365
 3447DOPE   C3B40449  29.425  27.619  12.445  0.2130 -0.0139 -0.4188
 3447DOPE   C4B40450  29.758  27.538  12.155  0.0079  0.2033 -0.3456
 3448POSM   NC340451  26.345  23.407  14.643 -0.0106  0.0183 -0.4262
 3448POSM   PO440452  26.578  23.458  14.334  0.0477  0.3026 -0.1408
 3448POSM   AM140453  26.610  23.534  14.001  0.3176  0.1262  0.2298
 3448POSM   AM240454  26.442  23.693  13.779 -0.0486  0.1364  0.2181
 3448POSM   T1A40455  26.684  23.281  13.560 -0.1604  0.6042 -0.4079
 3448POSM   C2A40456  26.369  22.984  13.334 -0.1652  0.2069  0.2096
 3448POSM   C3A40457  26.396  22.706  13.051  0.0206 -0.0130 -0.3415
 3448POSM   C1B40458  26.265  23.591  13.459  0.3000  0.1143  0.2082
 3448POSM   D2B40459  26.127  23.323  13.049 -0.1364  0.0870 -0.0683
 3448POSM   C3B40460  25.978  23.492  12.730 -0.0238 -0.2162  0.0323
 3448POSM   C4B40461  25.744  23.777  12.455 -0.1597  0.0990 -0.2463
 3449DOPS   CNO40462  26.123  25.121  14.500 -0.0705 -0.1527  0.0791
 3449DOPS   PO440463  26.270  25.445  14.325 -0.2069 -0.2608  0.1411
 3449DOPS   GL140464  26.416  25.616  14.022  0.0333 -0.0229 -0.2670
 3449DOPS   GL240465  26.590  25.439  13.843  0.0016  0.1011  0.1468
 3449DOPS   C1A40466  26.186  25.755  13.659  0.1779 -0.0679 -0.0403
 3449DOPS   D2A40467  25.949  25.918  13.302  0.1286  0.2024 -0.0106
 3449DOPS   C3A40468  25.964  25.811  12.823  0.0571 -0.0959 -0.0001
 3449DOPS   C4A40469  25.933  26.009  12.469  0.2287  0.1176 -0.0592
 3449DOPS   C1B40470  26.590  25.571  13.417  0.0366 -0.5398  0.4266
 3449DOPS   D2B40471  26.432  25.824  13.055 -0.0137 -0.1155 -0.2264
 3449DOPS   C3B40472  26.632  25.779  12.638 -0.0136  0.1532 -0.1196
 3449DOPS   C4B40473  26.679  25.714  12.194  0.3970 -0.1859  0.2157
 3450DOPC   NC340474  25.283   0.944  13.999 -0.1327 -0.0859 -0.0699
 3450DOPC   PO440475  25.661   0.899  13.976 -0.0149  0.1268  0.0610
 3450DOPC   GL140476  25.687   0.923  13.509 -0.0650  0.3151  0.3802
 3450DOPC   GL240477  25.900   1.111  13.475  0.0284 -0.3064  0.2828
 3450DOPC   C1A40478  25.611   0.571  13.179 -0.1735  0.1647  0.0682
 3450DOPC   D2A40479  25.700   0.308  12.788  0.0719  0.2534  0.1438
 3450DOPC   C3A40480  26.153   0.168  12.740 -0.1225  0.0545  0.0477
 3450DOPC   C4A40481  26.299  -0.179  12.446 -0.1025  0.0127  0.1000
 3450DOPC   C1B40482  26.181   0.851  13.287 -0.2292 -0.0099  0.3016
 3450DOPC   D2B40483  26.511   0.911  12.999  0.1522  0.3852 -0.2432
 3450DOPC   C3B40484  26.671   1.099  12.620 -0.0422 -0.2548  0.3562
 3450DOPC   C4B40485  26.687   1.335  12.194  0.0953 -0.1628 -0.0420
 3451POSM   NC340486  28.353  30.058  14.311  0.3164  0.1070 -0.0737
 3451POSM   PO440487  28.331  29.950  13.949  0.2250 -0.3019  0.0893
 3451POSM   AM140488  28.083  30.141  13.814  0.7118  0.1293 -0.2565
 3451POSM   AM240489  28.131  30.372  13.666  0.1695  0.2931 -0.1635
 3451POSM   T1A40490  27.658  30.083  13.543 -0.1328  0.0043 -0.0305
 3451POSM   C2A40491  27.405  29.814  13.195  0.4340 -0.0871  0.1361
 3451POSM   C3A40492  27.347  29.717  12.678  0.1168 -0.0592  0.0567
 3451POSM   C1B40493  28.074  30.426  13.335  0.1271  0.3934 -0.0520
 3451POSM   D2B40494  27.918  30.474  12.891 -0.2864 -0.2772  0.0880
 3451POSM   C3B40495  27.739  30.539  12.546 -0.5017  0.0282 -0.0215
 3451POSM   C4B40496  27.508  30.647  12.194  0.1114  0.0340 -0.0726
 3452DOPE   NH340497  26.406  24.688  14.464  0.2789  0.1564  0.2138
 3452DOPE   PO440498  26.170  24.664  14.261  0.1637 -0.1412  0.4510
 3452DOPE   GL140499  26.272  24.995  14.035 -0.2623  0.1864 -0.1954
 3452DOPE   GL240500  26.005  25.137  14.022  0.2238  0.0338 -0.2585
 3452DOPE   C1A40501  26.250  25.125  13.572 -0.2215 -0.0509 -0.3632
 3452DOPE   D2A40502  26.179  25.354  13.149  0.1188  0.1945 -0.2747
 3452DOPE   C3A40503  26.090  25.158  12.732 -0.1959  0.0993 -0.0639
 3452DOPE   C4A40504  25.798  25.189  12.370  0.0450  0.0071 -0.1052
 3452DOPE   C1B40505  25.789  25.026  13.680 -0.0013  0.0596  0.0954
 3452DOPE   D2B40506  25.763  25.105  13.227 -0.2691  0.3672 -0.0018
 3452DOPE   C3B40507  25.533  24.917  12.811  0.0075  0.2235 -0.0022
 3452DOPE   C4B40508  25.262  24.736  12.442  0.0337 -0.1199 -0.2489
 3453DOPS   CNO40509  27.624  21.708  14.379  0.1910 -0.0740 -0.1277
 3453DOPS   PO440510  27.465  21.738  14.055 -0.0461  0.1428 -0.0848
 3453DOPS   GL140511  27.317  21.671  13.731  0.0716 -0.0549  0.0297
 3453DOPS   GL240512  27.430  21.543  13.564  0.2051 -0.3326  0.0963
 3453DOPS   C1A40513  26.992  21.740  13.454  0.0058  0.2582  0.0224
 3453DOPS   D2A40514  26.961  21.765  13.060 -0.1152  0.1142  0.2754
 3453DOPS   C3A40515  26.851  22.038  12.674 -0.0578  0.1159  0.0157
 3453DOPS   C4A40516  27.046  22.267  12.318  0.3682 -0.0532 -0.0682
 3453DOPS   C1B40517  27.347  21.418  13.153 -0.0025  0.1890  0.1987
 3453DOPS   D2B40518  27.272  21.320  12.702  0.1492  0.0306  0.3606
 3453DOPS   C3B40519  27.254  21.030  12.386  0.0486  0.1161 -0.3984
 3453DOPS   C4B40520  26.909  21.044  12.041  0.2460 -0.1142  0.0072
 3454DOPS   CNO40521  27.947  33.963  13.843 -0.2635  0.2424 -0.0058
 3454DOPS   PO440522  28.302  33.957  13.653  0.2535 -0.1267 -0.1674
 3454DOPS   GL140523  27.954  34.159  13.477 -0.2917  0.0288  0.3460
 3454DOPS   GL240524  27.805  34.406  13.566 -0.0047  0.2744  0.1647
 3454DOPS   C1A40525  27.922  34.113  13.009  0.1125 -0.0003 -0.0248
 3454DOPS   D2A40526  27.796  34.017  12.550 -0.1168 -0.0294 -0.0760
 3454DOPS   C3A40527  27.425  34.169  12.350 -0.4087  0.4225  0.1429
 3454DOPS   C4A40528  27.014  34.170  12.139 -0.0344 -0.3342  0.1537
 3454DOPS   C1B40529  27.551  34.411  13.188 -0.2270  0.1048 -0.0839
 3454DOPS   D2B40530  27.489  34.399  12.767 -0.1888 -0.1781 -0.1660
 3454DOPS   C3B40531  27.000  34.437  12.756  0.2028  0.0035  0.2146
 3454DOPS   C4B40532  26.760  34.832  12.658  0.1683  0.3014 -0.1196
 3455DOPE   NH340533  34.380  24.375  13.247  0.1312 -0.0931  0.1291
 3455DOPE   PO440534  34.463  24.696  13.189 -0.2883 -0.4256  0.2808
 3455DOPE   GL140535  34.580  24.678  12.878 -0.0756  0.4546  0.5851
 3455DOPE   GL240536  34.602  24.397  12.791  0.2361 -0.3152 -0.0893
 3455DOPE   C1A40537  34.722  24.792  12.454 -0.1175 -0.0060 -0.0999
 3455DOPE   D2A40538  34.894  24.641  11.985 -0.1176  0.0624  0.0965
 3455DOPE   C3A40539  34.911  24.279  11.693 -0.1470 -0.2077 -0.0058
 3455DOPE   C4A40540  35.052  24.010  11.416  0.0408 -0.0060  0.1427
 3455DOPE   C1B40541  34.660  24.150  12.405 -0.2012  0.3404  0.2649
 3455DOPE   D2B40542  34.594  24.011  12.000 -0.0528  0.2231  0.0476
 3455DOPE   C3B40543  34.456  23.548  11.908 -0.0119 -0.1434  0.1890
 3455DOPE   C4B40544  34.155  23.261  11.802  0.1508  0.1236  0.0031
 3456DOPC   NC340545  28.523  26.961  13.616  0.2593 -0.2107  0.0000
 3456DOPC   PO440546  28.183  26.878  13.803  0.0948 -0.5546 -0.6130
 3456DOPC   GL140547  27.996  26.844  13.407 -0.1729 -0.0841  0.1051
 3456DOPC   GL240548  28.088  26.499  13.348 -0.0400  0.0913  0.0123
 3456DOPC   C1A40549  27.913  27.062  12.996  0.3000  0.0983  0.1374
 3456DOPC   D2A40550  27.985  27.326  12.624  0.1965 -0.0450 -0.1732
 3456DOPC   C3A40551  27.753  27.021  12.359  0.1936 -0.0213 -0.2666
 3456DOPC   C4A40552  27.775  26.686  12.048  0.0715  0.0176  0.2305
 3456DOPC   C1B40553  28.340  26.749  13.025  0.0027  0.0016  0.1811
 3456DOPC   D2B40554  28.547  26.578  12.666 -0.2141  0.0580  0.2100
 3456DOPC   C3B40555  28.267  26.514  12.268 -0.1512 -0.0895 -0.2336
 3456DOPC   C4B40556  28.193  26.432  11.821 -0.0384  0.1120  0.2406
 3457DOPS   CNO40557  33.201  30.141  13.044  0.0085  0.1023  0.0871
 3457DOPS   PO440558  32.860  29.952  13.006  0.1286  0.5871  0.2307
 3457DOPS   GL140559  32.640  29.903  12.655  0.1962 -0.1868 -0.1628
 3457DOPS   GL240560  32.458  30.149  12.592 -0.0866 -0.1371 -0.2227
 3457DOPS   C1A40561  32.914  30.124  12.364  0.2475  0.2069 -0.1976
 3457DOPS   D2A40562  32.953  30.465  12.046 -0.1713 -0.5554  0.4589
 3457DOPS   C3A40563  32.970  30.894  12.159  0.0697  0.0898 -0.0931
 3457DOPS   C4A40564  32.669  31.161  12.389 -0.1797 -0.1359 -0.0528
 3457DOPS   C1B40565  32.146  29.861  12.441  0.2866  0.1434 -0.1140
 3457DOPS   D2B40566  31.796  29.774  12.144  0.0153  0.0186  0.1303
 3457DOPS   C3B40567  31.377  29.800  11.948  0.1167 -0.0996 -0.1915
 3457DOPS   C4B40568  31.008  29.546  11.795  0.2649 -0.0468  0.0675
 3458DOPE   NH340569  24.953  33.991  14.535  0.1123  0.0419 -0.0484
 3458DOPE   PO440570  24.652  33.854  14.466 -0.1697  0.4566  0.1263
 3458DOPE   GL140571  24.539  33.797  14.081  0.0502  0.0393  0.0238
 3458DOPE   GL240572  24.415  33.982  13.961  0.1678 -0.0672 -0.1556
 3458DOPE   C1A40573  24.844  33.792  13.732 -0.2712 -0.0242  0.0193
 3458DOPE   D2A40574  25.273  33.614  13.609 -0.2830 -0.1818  0.1277
 3458DOPE   C3A40575  25.503  33.648  13.234  0.2243 -0.2710 -0.1133
 3458DOPE   C4A40576  25.875  33.512  12.957 -0.2690 -0.0587 -0.1238
 3458DOPE   C1B40577  24.678  34.237  13.647  0.1020 -0.1258 -0.0625
 3458DOPE   D2B40578  24.713  34.561  13.360  0.2033 -0.0310 -0.1175
 3458DOPE   C3B40579  24.880  34.456  12.992 -0.0567  0.0814  0.4135
 3458DOPE   C4B40580  24.875  34.089  12.687 -0.2447  0.2697  0.1653
 3459DOPE   NH340581  30.784  32.596  13.757 -0.0410  0.1497  0.1481
 3459DOPE   PO440582  31.039  32.428  13.842  0.1568  0.1793  0.0976
 3459DOPE   GL140583  31.044  32.329  13.475  0.3041  0.1671  0.0613
 3459DOPE   GL240584  31.136  32.587  13.376 -0.1110 -0.1059 -0.2759
 3459DOPE   C1A40585  31.124  32.156  13.032  0.2518  0.0182 -0.0514
 3459DOPE   D2A40586  31.187  32.370  12.621  0.1721  0.0747  0.3660
 3459DOPE   C3A40587  30.933  32.298  12.253 -0.3338 -0.0443  0.1923
 3459DOPE   C4A40588  30.630  32.065  11.988 -0.0008 -0.2797  0.0311
 3459DOPE   C1B40589  31.137  32.741  12.942 -0.0882  0.0530  0.2090
 3459DOPE   D2B40590  31.444  32.849  12.602 -0.3878  0.0856 -0.3638
 3459DOPE   C3B40591  31.515  32.869  12.172  0.1077  0.0341 -0.1816
 3459DOPE   C4B40592  31.676  32.673  11.768  0.0601 -0.0211 -0.2956
 3460DOPE   NH340593  29.380  30.347  13.874  0.0618  0.1137  0.0084
 3460DOPE   PO440594  29.472  30.568  13.644  0.1943  0.0860 -0.1093
 3460DOPE   GL140595  29.341  30.410  13.239  0.0052  0.0978 -0.1309
 3460DOPE   GL240596  29.199  30.112  13.366  0.1666  0.0613  0.0346
 3460DOPE   C1A40597  28.928  30.420  13.025  0.1667  0.0808 -0.3683
 3460DOPE   D2A40598  28.445  30.352  12.904  0.2236  0.1486  0.1694
 3460DOPE   C3A40599  28.292  30.263  12.456 -0.0955  0.1370  0.2163
 3460DOPE   C4A40600  28.280  30.239  12.021 -0.2690 -0.2903 -0.0342
 3460DOPE   C1B40601  29.084  29.855  13.044  0.0550 -0.1451 -0.1443
 3460DOPE   D2B40602  29.145  29.540  12.674  0.2448  0.2269  0.0095
 3460DOPE   C3B40603  28.853  29.479  12.363  0.1390  0.2078  0.0352
 3460DOPE   C4B40604  28.550  29.149  12.110 -0.1931 -0.2554 -0.1212
 3461DOPC   NC340605  33.872   0.031  13.350  0.0289 -0.0317 -0.0083
 3461DOPC   PO440606  33.542  -0.214  13.256  0.2252 -0.3385 -0.0815
 3461DOPC   GL140607  33.797  -0.356  12.989  0.3598 -0.1790  0.3059
 3461DOPC   GL240608  33.857  -0.111  12.818  0.1216 -0.1592  0.2124
 3461DOPC   C1A40609  33.674  -0.570  12.590 -0.0582  0.0560 -0.2346
 3461DOPC   D2A40610  33.697  -0.546  12.114  0.2807  0.0279 -0.0079
 3461DOPC   C3A40611  33.500  -0.276  11.816  0.1067  0.0972  0.0456
 3461DOPC   C4A40612  33.165   0.002  11.665  0.1772 -0.0452  0.2198
 3461DOPC   C1B40613  34.225   0.071  12.601  0.0480 -0.2722 -0.2242
 3461DOPC   D2B40614  34.673   0.025  12.521 -0.1307  0.4585 -0.1231
 3461DOPC   C3B40615  34.672   0.040  12.064  0.2880  0.0477 -0.0163
 3461DOPC   C4B40616  34.582  -0.182  11.664 -0.1392 -0.0595  0.4355
 3462POSM   NC340617  23.681  26.615  14.754  0.1511  0.0570  0.0427
 3462POSM   PO440618  23.816  26.773  14.411  0.0790  0.1434 -0.0917
 3462POSM   AM140619  23.815  26.674  14.097  0.1909 -0.3211  0.2822
 3462POSM   AM240620  23.846  26.405  13.981 -0.0382  0.0976 -0.0977
 3462POSM   T1A40621  23.374  26.709  13.819 -0.0498  0.0362  0.0637
 3462POSM   C2A40622  23.464  26.817  13.350 -0.0032 -0.1081 -0.1665
 3462POSM   C3A40623  23.528  26.931  12.921 -0.0592 -0.0252  0.1053
 3462POSM   C1B40624  23.568  26.243  13.771  0.0834 -0.0177 -0.3387
 3462POSM   D2B40625  23.105  26.063  13.643 -0.1535 -0.1537  0.2001
 3462POSM   C3B40626  22.921  25.639  13.505 -0.0949 -0.2756 -0.2839
 3462POSM   C4B40627  22.841  25.194  13.246 -0.3622  0.2512  0.1186
 3463POSM   NC340628  22.910  31.658  14.398  0.0518  0.1203 -0.2482
 3463POSM   PO440629  22.545  31.826  14.305  0.3413 -0.0482  0.3356
 3463POSM   AM140630  22.677  31.790  13.995  0.2051 -0.1169 -0.1640
 3463POSM   AM240631  22.955  31.681  13.874  0.2016  0.0704 -0.0767
 3463POSM   T1A40632  22.508  31.945  13.550 -0.0303 -0.1774 -0.2577
 3463POSM   C2A40633  22.375  32.003  13.130 -0.0409 -0.1585 -0.1535
 3463POSM   C3A40634  22.264  32.193  12.724  0.2118 -0.0348 -0.0391
 3463POSM   C1B40635  22.953  31.667  13.536  0.0075 -0.4396 -0.0852
 3463POSM   D2B40636  23.028  31.723  13.109 -0.0480  0.0228 -0.0347
 3463POSM   C3B40637  22.975  31.690  12.642 -0.0481 -0.1614 -0.0185
 3463POSM   C4B40638  23.103  31.936  12.322 -0.0182 -0.0449 -0.0122
 3464DOPC   NC340639  24.434  25.053  14.709 -0.0212 -0.0962  0.1118
 3464DOPC   PO440640  24.603  24.998  14.380  0.1356  0.3434  0.1450
 3464DOPC   GL140641  24.642  24.946  14.036  0.1696 -0.1667 -0.2297
 3464DOPC   GL240642  24.395  25.161  13.944  0.0247  0.5707  0.1784
 3464DOPC   C1A40643  24.693  24.685  13.637 -0.0707 -0.0443  0.0494
 3464DOPC   D2A40644  24.701  24.822  13.166  0.1558  0.1150 -0.1861
 3464DOPC   C3A40645  24.510  24.986  12.778 -0.2010  0.1701  0.0170
 3464DOPC   C4A40646  24.724  25.007  12.355  0.1068  0.0732 -0.0727
 3464DOPC   C1B40647  24.230  25.046  13.543  0.1564 -0.0006 -0.1167
 3464DOPC   D2B40648  24.182  25.184  13.128  0.2594 -0.1571  0.1230
 3464DOPC   C3B40649  23.991  24.946  12.805 -0.1896 -0.0706 -0.4058
 3464DOPC   C4B40650  24.083  24.849  12.337 -0.2489  0.3093  0.0459
 3465DOPC   NC340651  29.064  29.568  13.459 -0.0995 -0.1955  0.4777
 3465DOPC   PO440652  29.357  29.728  13.717 -0.1544  0.0528  0.0313
 3465DOPC   GL140653  29.451  29.736  13.352 -0.2944  0.1954  0.1128
 3465DOPC   GL240654  29.619  29.566  13.260 -0.0933 -0.3005 -0.0964
 3465DOPC   C1A40655  29.537  29.919  12.896 -0.0080  0.3166 -0.0227
 3465DOPC   D2A40656  29.919  30.097  12.602 -0.0906  0.0711  0.0121
 3465DOPC   C3A40657  30.393  30.074  12.681  0.2528 -0.2086 -0.1346
 3465DOPC   C4A40658  30.802  30.178  12.850  0.0586 -0.1646 -0.0423
 3465DOPC   C1B40659  29.682  29.356  12.853 -0.1052 -0.1198  0.3081
 3465DOPC   D2B40660  29.637  29.616  12.499 -0.1523 -0.1715 -0.0350
 3465DOPC   C3B40661  29.310  29.697  12.169  0.0765 -0.2093  0.3754
 3465DOPC   C4B40662  28.958  29.785  11.851  0.1251 -0.2331 -0.1927
 3466DOPS   CNO40663  22.085  31.545  14.537  0.0626  0.0735 -0.0029
 3466DOPS   PO440664  21.943  31.295  14.266  0.0702  0.0419 -0.2530
 3466DOPS   GL140665  21.885  31.426  13.881  0.0153  0.1142 -0.1558
 3466DOPS   GL240666  22.023  31.217  13.763  0.0782  0.0492 -0.1934
 3466DOPS   C1A40667  21.685  31.423  13.465  0.2580 -0.0282 -0.0033
 3466DOPS   D2A40668  21.507  31.181  13.083  0.1462 -0.0440  0.1791
 3466DOPS   C3A40669  21.748  31.324  12.750  0.1940  0.1626  0.0041
 3466DOPS   C4A40670  22.009  31.240  12.319 -0.0226 -0.0684  0.0472
 3466DOPS   C1B40671  22.117  31.643  13.610 -0.2870  0.0760  0.0726
 3466DOPS   D2B40672  21.827  31.831  13.332  0.0424  0.1301 -0.1363
 3466DOPS   C3B40673  21.926  31.843  12.894 -0.1052  0.0367  0.1583
 3466DOPS   C4B40674  21.867  31.692  12.434 -0.0868 -0.1222 -0.1162
 3467DOPE   NH340675  27.256  25.025  14.168 -0.2594 -0.1053 -0.1189
 3467DOPE   PO440676  27.428  24.798  14.014  0.1017  0.1944  0.1804
 3467DOPE   GL140677  27.422  24.775  13.600 -0.1962 -0.3803  0.1568
 3467DOPE   GL240678  27.350  25.025  13.565  0.3296  0.4402 -0.2406
 3467DOPE   C1A40679  27.401  24.401  13.378 -0.2058  0.0832 -0.2049
 3467DOPE   D2A40680  27.175  24.025  13.259 -0.0604  0.0606 -0.1342
 3467DOPE   C3A40681  27.136  23.796  12.896  0.1430 -0.1426  0.3952
 3467DOPE   C4A40682  27.166  23.369  12.753 -0.1474  0.1245 -0.0546
 3467DOPE   C1B40683  27.201  24.815  13.134  0.1948  0.0867  0.3185
 3467DOPE   D2B40684  27.377  24.898  12.669  0.1291 -0.1663 -0.2023
 3467DOPE   C3B40685  27.082  25.213  12.850  0.1536 -0.0892  0.3530
 3467DOPE   C4B40686  26.624  25.313  12.829  0.0952  0.4178 -0.0073
 3468DOPS   CNO40687  29.114  27.750  13.922  0.0628  0.0887 -0.1709
 3468DOPS   PO440688  29.148  27.366  13.947  0.0148  0.5315 -0.0551
 3468DOPS   GL140689  28.842  27.402  13.681  0.1174 -0.0754 -0.5339
 3468DOPS   GL240690  28.991  27.219  13.515 -0.0055  0.3102  0.1921
 3468DOPS   C1A40691  28.471  27.443  13.375  0.0207  0.0964  0.0763
 3468DOPS   D2A40692  28.341  27.343  12.922 -0.1499  0.0075 -0.1389
 3468DOPS   C3A40693  28.570  27.629  12.648  0.3455 -0.1538 -0.1232
 3468DOPS   C4A40694  28.727  27.812  12.232  0.0859 -0.0349  0.0302
 3468DOPS   C1B40695  28.823  26.966  13.192 -0.0659 -0.0895 -0.2413
 3468DOPS   D2B40696  28.948  26.891  12.744  0.3220 -0.0125  0.0141
 3468DOPS   C3B40697  28.807  26.869  12.283 -0.4797 -0.2336  0.1054
 3468DOPS   C4B40698  28.466  26.936  12.000  0.0753 -0.2831  0.0525
 3469DOPE   NH340699  32.111  28.299   9.353 -0.2258 -0.0009 -0.0973
 3469DOPE   PO440700  31.819  28.363   9.495 -0.2793  0.2860 -0.3613
 3469DOPE   GL140701  31.877  28.482   9.855  0.0723  0.0240  0.0846
 3469DOPE   GL240702  32.165  28.374   9.882 -0.0630 -0.1293 -0.0355
 3469DOPE   C1A40703  31.868  28.142  10.149 -0.0862  0.3112  0.0579
 3469DOPE   D2A40704  32.150  27.865  10.291  0.0010 -0.1472  0.1489
 3469DOPE   C3A40705  32.334  27.938  10.771  0.3651  0.1714 -0.2247
 3469DOPE   C4A40706  32.399  28.123  11.186  0.1288 -0.3293 -0.2380
 3469DOPE   C1B40707  32.404  28.300  10.261  0.0228 -0.2156 -0.1839
 3469DOPE   D2B40708  32.627  28.434  10.609  0.3383 -0.0546 -0.0069
 3469DOPE   C3B40709  32.900  28.802  10.644 -0.1044  0.0029 -0.0526
 3469DOPE   C4B40710  33.160  29.014  10.318  0.0348 -0.0884 -0.1012
 3470DOPS   CNO40711  25.483  23.959  10.376  0.1087 -0.3892 -0.1825
 3470DOPS   PO440712  25.260  23.776  10.552 -0.0300 -0.3015 -0.0674
 3470DOPS   GL140713  25.041  23.438  10.794  0.1769  0.1261  0.4111
 3470DOPS   GL240714  24.749  23.595  10.864 -0.0002  0.2611 -0.1023
 3470DOPS   C1A40715  24.924  23.092  11.093  0.0007  0.0836 -0.2381
 3470DOPS   D2A40716  24.775  22.705  11.398 -0.1353 -0.2481 -0.0365
 3470DOPS   C3A40717  25.045  22.774  11.751  0.2354  0.1717  0.1000
 3470DOPS   C4A40718  25.451  22.994  11.827 -0.1697 -0.1027  0.5105
 3470DOPS   C1B40719  24.791  23.539  11.366 -0.0208 -0.0303  0.4162
 3470DOPS   D2B40720  24.829  23.144  11.567 -0.0552 -0.0859 -0.0953
 3470DOPS   C3B40721  24.504  23.104  11.972  0.4643 -0.1948  0.1145
 3470DOPS   C4B40722  24.391  23.049  12.432 -0.0622  0.2187  0.2817
 3471DOPE   NH340723  30.199  26.768   9.799 -0.2059 -0.1624  0.2467
 3471DOPE   PO440724  30.280  27.019  10.023  0.1451  0.1564  0.0312
 3471DOPE   GL140725  30.367  26.895  10.367 -0.2589 -0.0769  0.3497
 3471DOPE   GL240726  30.190  27.111  10.516  0.0790 -0.0454  0.0122
 3471DOPE   C1A40727  30.360  26.768  10.801  0.2444 -0.0526  0.0350
 3471DOPE   D2A40728  30.282  26.521  11.262  0.0594 -0.3687  0.1328
 3471DOPE   C3A40729  30.637  26.451  11.538 -0.1781 -0.1704  0.0890
 3471DOPE   C4A40730  31.048  26.382  11.538  0.2044  0.4511  0.2239
 3471DOPE   C1B40731  30.331  27.585  10.524 -0.1481  0.0945 -0.4467
 3471DOPE   D2B40732  30.512  27.999  10.585  0.0599  0.0709  0.2423
 3471DOPE   C3B40733  30.908  28.202  10.687  0.4382  0.2297 -0.0340
 3471DOPE   C4B40734  31.309  28.282  10.901 -0.0533  0.2291  0.5098
 3472DOPE   NH340735  29.116  27.432   9.948  0.1467 -0.0625 -0.1959
 3472DOPE   PO440736  29.394  27.380   9.834 -0.0344 -0.0047  0.2194
 3472DOPE   GL140737  29.609  27.427  10.171  0.1912  0.0623  0.2771
 3472DOPE   GL240738  29.411  27.339  10.376 -0.2544 -0.2184  0.0913
 3472DOPE   C1A40739  29.785  27.371  10.619 -0.0087 -0.1998 -0.3788
 3472DOPE   D2A40740  29.896  27.138  11.022  0.2749 -0.0334 -0.1941
 3472DOPE   C3A40741  30.109  26.935  11.429 -0.3066  0.2222 -0.0694
 3472DOPE   C4A40742  30.004  26.965  11.894 -0.1228 -0.3724 -0.1230
 3472DOPE   C1B40743  29.481  26.944  10.560  0.3619 -0.1110  0.0645
 3472DOPE   D2B40744  29.812  26.690  10.787  0.0453 -0.0120  0.0980
 3472DOPE   C3B40745  29.738  26.501  11.226  0.0380 -0.3229  0.0613
 3472DOPE   C4B40746  29.924  26.186  11.500  0.0154 -0.0447  0.0633
 3473DOPC   NC340747  32.179  27.490   9.777 -0.0431  0.2507 -0.0539
 3473DOPC   PO440748  32.116  27.857   9.589  0.1867  0.0953 -0.1543
 3473DOPC   GL140749  32.402  27.953   9.848  0.2036  0.4023  0.0337
 3473DOPC   GL240750  32.566  28.071   9.707 -0.0076  0.3192 -0.2208
 3473DOPC   C1A40751  32.498  27.563  10.145  0.1278 -0.2537  0.1556
 3473DOPC   D2A40752  32.452  27.426  10.534 -0.3250  0.2203 -0.1024
 3473DOPC   C3A40753  32.706  27.535  10.882 -0.1897 -0.1398 -0.1332
 3473DOPC   C4A40754  32.682  27.737  11.261 -0.2061 -0.1781  0.0998
 3473DOPC   C1B40755  32.794  28.149  10.058  0.0438  0.1042 -0.2287
 3473DOPC   D2B40756  32.783  27.948  10.498 -0.0640  0.1231 -0.1309
 3473DOPC   C3B40757  32.859  28.094  10.949 -0.2394 -0.0581  0.0201
 3473DOPC   C4B40758  33.028  28.386  11.216 -0.1529 -0.1201 -0.3607
 3474DOPC   NC340759  22.330  31.958  10.648 -0.1264  0.0303 -0.0271
 3474DOPC   PO440760  22.765  31.956  10.667 -0.3896 -0.2114 -0.1936
 3474DOPC   GL140761  22.863  31.926  11.081  0.1839  0.1705  0.1092
 3474DOPC   GL240762  22.632  31.988  11.134 -0.2145  0.3033 -0.0332
 3474DOPC   C1A40763  23.201  31.664  11.287 -0.3681  0.2016 -0.0191
 3474DOPC   D2A40764  23.230  31.499  11.716  0.1444  0.1343  0.3310
 3474DOPC   C3A40765  23.681  31.263  11.756  0.1615 -0.0373  0.1658
 3474DOPC   C4A40766  23.786  30.842  11.918  0.2541  0.0985  0.2343
 3474DOPC   C1B40767  22.309  31.848  11.432  0.1926  0.3663 -0.2266
 3474DOPC   D2B40768  22.140  31.637  11.773 -0.0848  0.1090  0.0453
 3474DOPC   C3B40769  22.281  31.184  11.921 -0.3983 -0.0408 -0.1108
 3474DOPC   C4B40770  21.953  30.812  12.035 -0.0443  0.0695 -0.2148
 3475DOPE   NH340771  23.349  31.096  10.008 -0.1545 -0.0732 -0.1476
 3475DOPE   PO440772  23.245  30.902  10.237  0.0428  0.0432  0.0867
 3475DOPE   GL140773  23.329  31.152  10.564  0.1692  0.4097 -0.0528
 3475DOPE   GL240774  23.488  30.936  10.727 -0.1402  0.1196  0.2051
 3475DOPE   C1A40775  23.118  31.316  10.952 -0.0613  0.5467 -0.0333
 3475DOPE   D2A40776  22.752  31.483  11.235  0.0431 -0.0077  0.0245
 3475DOPE   C3A40777  22.799  31.742  11.591  0.0056 -0.1549 -0.2172
 3475DOPE   C4A40778  22.595  32.050  11.883  0.1158  0.2293 -0.0835
 3475DOPE   C1B40779  23.813  30.947  11.068  0.1331 -0.0130 -0.1863
 3475DOPE   D2B40780  24.026  31.230  11.398 -0.0704 -0.0048 -0.1641
 3475DOPE   C3B40781  24.188  31.146  11.866 -0.0964  0.0666  0.1556
 3475DOPE   C4B40782  24.382  31.036  12.277  0.1767  0.1557  0.1945
 3476DOPE   NH340783  31.582  33.611   9.874 -0.0090  0.0816  0.1326
 3476DOPE   PO440784  31.714  33.865   9.776  0.1236  0.0221 -0.2482
 3476DOPE   GL140785  31.863  33.958  10.129 -0.0563 -0.2398  0.0367
 3476DOPE   GL240786  32.001  33.727  10.198 -0.0029  0.3940 -0.1966
 3476DOPE   C1A40787  31.764  34.099  10.485  0.0574 -0.1346 -0.1501
 3476DOPE   D2A40788  31.751  34.286  10.912  0.0056  0.1623 -0.3087
 3476DOPE   C3A40789  31.954  33.965  11.142 -0.0219 -0.0126 -0.3713
 3476DOPE   C4A40790  32.018  33.635  11.443  0.0707  0.0736 -0.2039
 3476DOPE   C1B40791  32.057  33.577  10.654 -0.0843  0.1654  0.0451
 3476DOPE   D2B40792  32.280  33.473  11.030  0.2813 -0.0764 -0.1872
 3476DOPE   C3B40793  32.193  33.159  11.263  0.0155 -0.0647  0.2358
 3476DOPE   C4B40794  32.026  32.765  11.363  0.3581 -0.0373  0.1784
 3477DOPE   NH340795  28.054  30.340  10.337  0.2511  0.1431  0.1789
 3477DOPE   PO440796  27.723  30.368  10.377  0.1447  0.0307  0.2229
 3477DOPE   GL140797  27.646  30.529  10.696  0.1565 -0.3156 -0.0350
 3477DOPE   GL240798  28.004  30.664  10.783  0.2204  0.1143  0.3772
 3477DOPE   C1A40799  27.662  30.445  11.125  0.1569 -0.0233 -0.3065
 3477DOPE   D2A40800  27.667  30.057  11.406  0.1686 -0.0570  0.4091
 3477DOPE   C3A40801  27.754  30.273  11.844 -0.3003  0.0770 -0.2381
 3477DOPE   C4A40802  27.853  30.150  12.279  0.1463  0.0295  0.0240
 3477DOPE   C1B40803  28.116  30.842  11.162  0.0803 -0.1810 -0.2378
 3477DOPE   D2B40804  27.876  30.760  11.539 -0.1013  0.0691 -0.0860
 3477DOPE   C3B40805  27.903  30.893  11.976  0.1873  0.1237 -0.1952
 3477DOPE   C4B40806  28.234  30.742  12.226  0.1505 -0.2188  0.0110
 3478POSM   NC340807  22.799  30.109  10.439 -0.0071 -0.4073  0.2335
 3478POSM   PO440808  22.839  30.494  10.428 -0.4432  0.0790  0.0401
 3478POSM   AM140809  22.843  30.718  10.697  0.2973  0.0552  0.0319
 3478POSM   AM240810  23.046  30.793  10.828 -0.2700  0.1033 -0.0537
 3478POSM   T1A40811  22.808  30.669  11.210 -0.0387  0.2423 -0.2011
 3478POSM   C2A40812  23.080  30.630  11.575 -0.1246  0.3162 -0.1750
 3478POSM   C3A40813  23.255  30.769  11.946 -0.1634 -0.2209  0.1904
 3478POSM   C1B40814  23.261  30.791  11.110  0.0467  0.2140  0.2755
 3478POSM   D2B40815  23.590  30.733  11.474  0.0163 -0.3599  0.0662
 3478POSM   C3B40816  23.533  30.351  11.733 -0.1095  0.2767 -0.1415
 3478POSM   C4B40817  23.840  30.387  12.053  0.2035 -0.0993 -0.0077
 3479DOPE   NH340818  23.790  32.602  10.504 -0.2526  0.1135 -0.0555
 3479DOPE   PO440819  23.828  32.357  10.350  0.1060 -0.2433  0.0112
 3479DOPE   GL140820  24.106  32.229  10.507 -0.1845  0.2067 -0.1244
 3479DOPE   GL240821  24.317  32.374  10.597  0.1213  0.3457  0.0844
 3479DOPE   C1A40822  24.085  32.080  10.915  0.0807  0.2265  0.3111
 3479DOPE   D2A40823  23.757  32.100  11.205 -0.1209  0.3816  0.0916
 3479DOPE   C3A40824  23.864  32.179  11.617 -0.2743 -0.1645  0.0893
 3479DOPE   C4A40825  23.972  32.422  11.990  0.0727  0.0739  0.1686
 3479DOPE   C1B40826  24.494  32.303  10.988 -0.2012 -0.1164  0.1587
 3479DOPE   D2B40827  24.744  32.365  11.370  0.1054 -0.0526 -0.1660
 3479DOPE   C3B40828  24.846  32.076  11.766 -0.1679 -0.1978  0.2122
 3479DOPE   C4B40829  24.815  31.836  12.182 -0.0065 -0.0412  0.0552
 3480POSM   NC340830  30.661  33.157   9.716 -0.1844 -0.0077 -0.1139
 3480POSM   PO440831  30.553  32.782   9.585 -0.2682  0.0676  0.1819
 3480POSM   AM140832  30.538  32.749   9.942  0.2771  0.0206 -0.0140
 3480POSM   AM240833  30.550  32.923  10.192 -0.1988 -0.1771 -0.1661
 3480POSM   T1A40834  30.697  32.414  10.267 -0.0496  0.0393 -0.2735
 3480POSM   C2A40835  30.857  31.945  10.376  0.2937  0.1300 -0.2118
 3480POSM   C3A40836  31.015  31.634  10.714  0.1361 -0.0705 -0.0474
 3480POSM   C1B40837  30.519  32.810  10.500 -0.4264 -0.0613 -0.0123
 3480POSM   D2B40838  30.639  32.680  10.903  0.3007  0.1133 -0.0015
 3480POSM   C3B40839  30.748  32.885  11.279 -0.0060 -0.2263  0.0422
 3480POSM   C4B40840  30.684  33.270  11.397 -0.0708 -0.3195 -0.0296
 3481POSM   NC340841  22.450  24.139  10.434 -0.0664 -0.0791  0.1894
 3481POSM   PO440842  22.432  24.379  10.780  0.1659 -0.0258 -0.2031
 3481POSM   AM140843  22.488  24.492  11.088  0.3266 -0.1858  0.1255
 3481POSM   AM240844  22.723  24.567  11.203 -0.2037  0.1339 -0.1839
 3481POSM   T1A40845  22.432  24.530  11.590 -0.3576 -0.2092  0.2448
 3481POSM   C2A40846  22.609  24.499  12.031 -0.1344 -0.0655 -0.2096
 3481POSM   C3A40847  22.832  24.132  12.211  0.5212  0.1446  0.1160
 3481POSM   C1B40848  22.880  24.744  11.422  0.0385 -0.1420  0.0646
 3481POSM   D2B40849  23.219  24.934  11.635 -0.0343  0.1242 -0.1079
 3481POSM   C3B40850  23.210  24.971  12.099 -0.0139 -0.0478  0.0412
 3481POSM   C4B40851  23.158  25.183  12.455  0.2103 -0.0950 -0.0218
 3482DOPC   NC340852  31.350  32.081   9.934  0.0762 -0.0048 -0.1345
 3482DOPC   PO440853  31.731  32.046  10.099 -0.0861 -0.0172  0.4362
 3482DOPC   GL140854  31.917  31.990  10.478  0.2041  0.1374 -0.0786
 3482DOPC   GL240855  31.702  32.127  10.657 -0.2367  0.1500 -0.4854
 3482DOPC   C1A40856  32.185  32.078  10.793 -0.1350  0.0213  0.0010
 3482DOPC   D2A40857  32.583  32.110  11.030 -0.0819 -0.0984 -0.0675
 3482DOPC   C3A40858  32.631  31.836  11.410  0.0208 -0.0979  0.1788
 3482DOPC   C4A40859  32.598  31.739  11.917 -0.3210  0.1854  0.3616
 3482DOPC   C1B40860  31.368  32.186  10.926  0.1140 -0.1346  0.3491
 3482DOPC   D2B40861  30.946  32.287  10.864  0.1840  0.5428 -0.3387
 3482DOPC   C3B40862  30.676  32.366  11.233 -0.1957  0.2124  0.0260
 3482DOPC   C4B40863  30.456  32.634  11.548  0.0989  0.1359  0.1121
 3483DOPC   NC340864  31.938  31.399   9.895 -0.3671 -0.0866 -0.0640
 3483DOPC   PO440865  32.269  31.266  10.019  0.1641 -0.0140 -0.0638
 3483DOPC   GL140866  32.281  31.364  10.400 -0.1843 -0.0541 -0.0336
 3483DOPC   GL240867  32.257  31.577  10.579  0.1276  0.0452 -0.1409
 3483DOPC   C1A40868  32.605  31.271  10.718  0.0432 -0.1044  0.0025
 3483DOPC   D2A40869  32.618  31.121  11.211 -0.1850 -0.0997  0.3751
 3483DOPC   C3A40870  32.472  31.341  11.557 -0.0290 -0.0020 -0.0023
 3483DOPC   C4A40871  32.219  31.284  11.911  0.0848 -0.0120  0.0370
 3483DOPC   C1B40872  32.231  31.399  11.012  0.1024  0.0704  0.0024
 3483DOPC   D2B40873  32.152  30.982  11.181 -0.0729 -0.0264  0.1724
 3483DOPC   C3B40874  31.802  30.898  11.477 -0.4512 -0.0211 -0.1142
 3483DOPC   C4B40875  31.421  30.664  11.654  0.1621 -0.0309  0.0827
 3484DOPC   NC340876  23.228  28.378  10.077  0.0411  0.2695  0.0470
 3484DOPC   PO440877  23.631  28.395  10.155  0.1556  0.0524 -0.0950
 3484DOPC   GL140878  23.861  28.366  10.571  0.1084 -0.0368  0.1385
 3484DOPC   GL240879  23.602  28.457  10.736  0.1932  0.0027  0.0519
 3484DOPC   C1A40880  23.874  28.232  11.052 -0.1233 -0.1194  0.1073
 3484DOPC   D2A40881  24.084  28.027  11.429 -0.1868 -0.2335 -0.2292
 3484DOPC   C3A40882  24.141  27.597  11.501  0.3559 -0.0092  0.1228
 3484DOPC   C4A40883  24.053  27.183  11.506 -0.2425 -0.1019  0.0391
 3484DOPC   C1B40884  23.267  28.405  11.101 -0.2397  0.0114 -0.3289
 3484DOPC   D2B40885  23.187  28.529  11.532 -0.0521  0.2360  0.2028
 3484DOPC   C3B40886  23.324  28.944  11.495 -0.2856  0.1613  0.1839
 3484DOPC   C4B40887  23.633  29.265  11.300 -0.2011 -0.0706 -0.1950
 3485DOPE   NH340888  27.193  26.880  10.284 -0.1769  0.1037  0.2370
 3485DOPE   PO440889  27.354  26.720  10.080  0.3139 -0.1109  0.0882
 3485DOPE   GL140890  27.660  26.735  10.312 -0.4309 -0.1584  0.5590
 3485DOPE   GL240891  27.672  27.007  10.461  0.0441  0.1522 -0.0931
 3485DOPE   C1A40892  27.854  26.564  10.744  0.1434 -0.3268 -0.0444
 3485DOPE   D2A40893  28.247  26.475  11.034  0.1817 -0.1931  0.0132
 3485DOPE   C3A40894  28.449  26.181  11.362  0.1227  0.0333  0.0231
 3485DOPE   C4A40895  28.440  25.985  11.813 -0.0072 -0.1343  0.3746
 3485DOPE   C1B40896  27.681  27.197  10.885  0.1548  0.1167  0.2093
 3485DOPE   D2B40897  27.567  27.495  11.216 -0.0268 -0.2302 -0.1043
 3485DOPE   C3B40898  27.738  27.909  11.426 -0.1260 -0.1382  0.1583
 3485DOPE   C4B40899  27.714  28.235  11.763 -0.0272 -0.1875  0.1642
 3486POSM   NC340900  29.030  24.300  10.085  0.3303 -0.1513  0.1224
 3486POSM   PO440901  29.404  24.233  10.008 -0.4049 -0.0934  0.2712
 3486POSM   AM140902  29.598  24.349  10.261  0.0065 -0.1606  0.0254
 3486POSM   AM240903  29.837  24.430  10.462  0.0251  0.1102 -0.0406
 3486POSM   T1A40904  29.470  24.540  10.775  0.0836  0.0616  0.0704
 3486POSM   C2A40905  29.624  24.454  11.212  0.0050  0.2179  0.1812
 3486POSM   C3A40906  29.640  24.673  11.574  0.0746 -0.1520  0.1157
 3486POSM   C1B40907  29.931  24.594  10.755  0.0349  0.2156 -0.0518
 3486POSM   D2B40908  30.032  24.691  11.197  0.1372 -0.1169 -0.0258
 3486POSM   C3B40909  29.977  25.027  11.472 -0.0110  0.0453  0.2958
 3486POSM   C4B40910  29.945  25.382  11.713  0.2913  0.0133 -0.0432
 3487DOPE   NH340911  20.811  32.483  10.283  0.2133 -0.1376  0.0857
 3487DOPE   PO440912  20.538  32.413  10.346 -0.0758  0.3957  0.1287
 3487DOPE   GL140913  20.504  32.637  10.765  0.0064 -0.0277  0.5609
 3487DOPE   GL240914  20.277  32.776  10.883 -0.1231  0.3060  0.0000
 3487DOPE   C1A40915  20.762  32.594  11.153 -0.2762  0.0164  0.3598
 3487DOPE   D2A40916  20.925  32.713  11.602 -0.0070  0.0682  0.0191
 3487DOPE   C3A40917  21.046  33.177  11.621 -0.1768  0.0064  0.0504
 3487DOPE   C4A40918  21.003  33.540  11.336  0.1435 -0.2841 -0.3591
 3487DOPE   C1B40919  20.332  32.778  11.358 -0.0333  0.1287  0.0769
 3487DOPE   D2B40920  20.410  32.546  11.732  0.0574  0.0798 -0.1318
 3487DOPE   C3B40921  20.238  32.154  11.920  0.0459  0.2254  0.1028
 3487DOPE   C4B40922  20.010  31.802  12.147 -0.3992 -0.0147 -0.2139
 3488DOPC   NC340923  30.679  26.658   9.529 -0.0966  0.0100  0.2393
 3488DOPC   PO440924  30.845  26.964   9.728  0.3512 -0.2244 -0.2934
 3488DOPC   GL140925  31.196  27.070  10.105  0.1020  0.2770  0.2889
 3488DOPC   GL240926  30.908  26.931  10.227 -0.0616 -0.2533 -0.2471
 3488DOPC   C1A40927  31.137  27.339  10.480 -0.0622 -0.1938 -0.1129
 3488DOPC   D2A40928  31.326  27.606  10.805 -0.1659  0.2791  0.1572
 3488DOPC   C3A40929  31.661  27.501  11.145  0.0138  0.2450  0.3149
 3488DOPC   C4A40930  31.953  27.269  11.420 -0.0755  0.2112 -0.1545
 3488DOPC   C1B40931  30.676  27.148  10.612  0.2421  0.0146 -0.0495
 3488DOPC   D2B40932  30.387  27.323  10.924 -0.0140  0.3082  0.0637
 3488DOPC   C3B40933  30.385  27.786  10.993 -0.0440 -0.0092 -0.1269
 3488DOPC   C4B40934  30.502  28.097  11.300 -0.1171  0.1822 -0.1833
 3489POSM   NC340935  28.743  25.199   9.822  0.3632 -0.1273  0.3513
 3489POSM   PO440936  28.921  25.188  10.139  0.0093 -0.2524 -0.0050
 3489POSM   AM140937  28.879  25.198  10.469  0.2528 -0.1652 -0.1776
 3489POSM   AM240938  28.858  25.419  10.694  0.0782  0.0890  0.1133
 3489POSM   T1A40939  28.938  25.015  10.952  0.0089  0.2202  0.0915
 3489POSM   C2A40940  29.010  25.024  11.464  0.1544  0.1535  0.0908
 3489POSM   C3A40941  28.604  25.019  11.677  0.0634  0.2505  0.1279
 3489POSM   C1B40942  28.731  25.445  11.035 -0.0517  0.0530  0.3055
 3489POSM   D2B40943  28.361  25.282  11.315  0.0631 -0.2673  0.0018
 3489POSM   C3B40944  27.920  25.461  11.205  0.0148  0.2172 -0.2628
 3489POSM   C4B40945  27.590  25.463  11.546 -0.0685 -0.3376  0.0235
 3490DOPE   NH340946  29.052  31.362   9.904 -0.3762 -0.1045 -0.2490
 3490DOPE   PO440947  28.751  31.424   9.919  0.2122 -0.2902 -0.1531
 3490DOPE   GL140948  28.780  31.465  10.291 -0.1316  0.2608 -0.1274
 3490DOPE   GL240949  28.923  31.211  10.367  0.1819 -0.0700  0.0673
 3490DOPE   C1A40950  28.801  31.747  10.708  0.0878  0.2610 -0.2750
 3490DOPE   D2A40951  28.692  31.642  11.123 -0.1822  0.2480 -0.0610
 3490DOPE   C3A40952  28.389  31.784  11.404 -0.3069 -0.0722 -0.2401
 3490DOPE   C4A40953  27.956  31.758  11.286 -0.0148  0.1884 -0.1034
 3490DOPE   C1B40954  29.099  31.339  10.774  0.2217  0.2208 -0.1323
 3490DOPE   D2B40955  29.025  31.266  11.255 -0.2822 -0.3146  0.0964
 3490DOPE   C3B40956  29.245  31.246  11.608 -0.0670 -0.1215 -0.1236
 3490DOPE   C4B40957  29.481  31.392  11.993 -0.0436 -0.3655 -0.1091
 3491DOPE   NH340958  23.328  30.511  10.478  0.1587 -0.2585  0.4212
 3491DOPE   PO440959  23.471  30.215  10.561 -0.1181  0.0345 -0.0438
 3491DOPE   GL140960  23.243  30.054  10.862 -0.3131 -0.0976 -0.7572
 3491DOPE   GL240961  23.030  30.248  10.867 -0.1109 -0.6031 -0.1855
 3491DOPE   C1A40962  23.011  29.744  10.985  0.2009  0.0511 -0.0564
 3491DOPE   D2A40963  23.264  29.738  11.375 -0.0678  0.2377  0.0266
 3491DOPE   C3A40964  23.003  29.475  11.671  0.0911 -0.1369  0.2295
 3491DOPE   C4A40965  22.785  29.481  12.110 -0.3829  0.3791  0.0975
 3491DOPE   C1B40966  23.203  30.258  11.294  0.0202 -0.1339  0.1166
 3491DOPE   D2B40967  23.101  30.065  11.700  0.1347  0.0122 -0.1565
 3491DOPE   C3B40968  22.719  29.890  11.701 -0.0990 -0.0850  0.0533
 3491DOPE   C4B40969  22.379  29.710  11.930 -0.2003  0.1761  0.0587
 3492DOPC   NC340970  25.011  32.528  10.081  0.0732  0.2034 -0.1248
 3492DOPC   PO440971  25.241  32.843  10.092  0.3441 -0.0592 -0.1991
 3492DOPC   GL140972  25.327  32.696  10.471 -0.0521  0.5421  0.0027
 3492DOPC   GL240973  25.076  32.821  10.571  0.2065  0.0995 -0.0358
 3492DOPC   C1A40974  25.236  32.245  10.586 -0.0220  0.3865 -0.0371
 3492DOPC   D2A40975  25.061  32.010  10.920 -0.2024 -0.1052  0.1543
 3492DOPC   C3A40976  24.648  31.865  11.193 -0.1486  0.1703  0.1383
 3492DOPC   C4A40977  24.358  32.038  11.492 -0.0826  0.1052 -0.3462
 3492DOPC   C1B40978  24.995  33.087  10.873  0.0826  0.1976  0.1517
 3492DOPC   D2B40979  24.564  33.314  11.055 -0.1123  0.0867 -0.0477
 3492DOPC   C3B40980  24.539  33.423  11.475 -0.1664  0.0807  0.0451
 3492DOPC   C4B40981  24.248  33.262  11.834  0.1918  0.2299 -0.1302
 3493DOPE   NH340982  21.886  31.361  10.057  0.0403  0.0246  0.0924
 3493DOPE   PO440983  21.597  31.261  10.162  0.1652 -0.0795 -0.0883
 3493DOPE   GL140984  21.571  31.159  10.444  0.3315  0.0597  0.0442
 3493DOPE   GL240985  21.520  31.389  10.621 -0.1670 -0.0070  0.2499
 3493DOPE   C1A40986  21.437  30.974  10.829  0.4011  0.1456 -0.0552
 3493DOPE   D2A40987  21.051  30.606  10.871  0.1144  0.0009 -0.2002
 3493DOPE   C3A40988  20.673  30.586  11.223 -0.0799 -0.3212 -0.0316
 3493DOPE   C4A40989  20.554  30.724  11.617 -0.0535 -0.0710  0.0389
 3493DOPE   C1B40990  21.599  31.502  11.068  0.0142  0.4051 -0.1441
 3493DOPE   D2B40991  21.788  31.576  11.460 -0.2020  0.1696 -0.1219
 3493DOPE   C3B40992  21.800  31.236  11.827  0.3199 -0.5188 -0.0575
 3493DOPE   C4B40993  21.487  30.929  11.872 -0.1319 -0.0114  0.1093
 3494POSM   NC340994  29.677  28.981   9.936 -0.2647 -0.0047 -0.2338
 3494POSM   PO440995  29.856  29.250  10.183  0.2793  0.2062  0.2513
 3494POSM   AM140996  29.842  29.029  10.444 -0.1019 -0.1852  0.3388
 3494POSM   AM240997  29.785  28.787  10.504  0.2407  0.0977  0.1337
 3494POSM   T1A40998  29.880  29.098  10.951  0.3156 -0.1741  0.1247
 3494POSM   C2A40999  30.227  29.136  11.317 -0.3622 -0.2813 -0.0745
 3494POSM   C3A41000  30.506  29.035  11.614 -0.0637  0.0014  0.2169
 3494POSM   C1B41001  29.962  28.496  10.507  0.3297  0.0825  0.1462
 3494POSM   D2B41002  30.003  28.068  10.792 -0.1487 -0.0251  0.2217
 3494POSM   C3B41003  29.951  28.118  11.277 -0.2546  0.0301  0.1988
 3494POSM   C4B41004  29.920  27.958  11.696  0.1589  0.0648  0.1166
 3495DOPC   NC341005   0.500  32.386  10.036 -0.5139  0.0927  0.1527
 3495DOPC   PO441006   0.294  32.148   9.791  0.2033 -0.0571 -0.2071
 3495DOPC   GL141007   0.032  32.050  10.023  0.1250  0.0352  0.1440
 3495DOPC   GL241008   0.017  32.185  10.292  0.0159  0.1902  0.2389
 3495DOPC   C1A41009   0.003  31.590  10.099 -0.2641 -0.1794  0.1955
 3495DOPC   D2A41010   0.070  31.316  10.446 -0.2740  0.0609  0.1701
 3495DOPC   C3A41011   0.074  31.350  10.907  0.1175  0.3021  0.0014
 3495DOPC   C4A41012   0.288  31.719  11.175  0.2870 -0.0552  0.0111
 3495DOPC   C1B41013   0.015  32.443  10.681 -0.0965 -0.3838  0.0104
 3495DOPC   D2B41014   0.076  32.631  11.076 -0.3517 -0.1782 -0.1983
 3495DOPC   C3B41015  -0.107  32.962  11.309  0.1177  0.0764  0.0156
 3495DOPC   C4B41016  -0.489  33.253  11.470 -0.0296  0.1696  0.0613
 3496POSM   NC341017  28.825  33.890   9.931  0.2745  0.1628 -0.1273
 3496POSM   PO441018  28.940  33.525   9.860 -0.1695 -0.0290 -0.1626
 3496POSM   AM141019  28.845  33.474  10.140 -0.0798  0.1428  0.2382
 3496POSM   AM241020  28.610  33.383  10.279  0.3348  0.0065  0.1056
 3496POSM   T1A41021  28.889  33.749  10.494 -0.0023 -0.1890  0.1771
 3496POSM   C2A41022  29.140  33.866  10.846  0.3731  0.0923 -0.0877
 3496POSM   C3A41023  29.348  34.106  11.109  0.1715  0.0946  0.2016
 3496POSM   C1B41024  28.729  33.260  10.618  0.1923 -0.0701  0.0926
 3496POSM   D2B41025  28.741  33.032  10.977  0.0326  0.0659  0.2399
 3496POSM   C3B41026  28.577  33.051  11.416 -0.3036  0.0828 -0.2193
 3496POSM   C4B41027  28.260  32.907  11.725 -0.2285 -0.2261  0.0537
 3497DOPE   NH341028  27.726  26.343  10.124  0.1559  0.0673  0.0432
 3497DOPE   PO441029  27.448  26.196  10.077  0.0676  0.0774 -0.0252
 3497DOPE   GL141030  27.627  26.013  10.460  0.2748 -0.0108 -0.3098
 3497DOPE   GL241031  27.439  25.993  10.732 -0.0961  0.0225  0.0114
 3497DOPE   C1A41032  27.858  25.644  10.639 -0.1300 -0.0549 -0.0337
 3497DOPE   D2A41033  27.911  25.211  10.774  0.2190  0.0052 -0.1494
 3497DOPE   C3A41034  27.590  24.919  10.890 -0.0293  0.1790  0.0644
 3497DOPE   C4A41035  27.609  24.529  11.222 -0.0171  0.0236  0.0214
 3497DOPE   C1B41036  27.429  26.248  11.121  0.2290  0.1074  0.1053
 3497DOPE   D2B41037  27.563  26.403  11.587 -0.2384 -0.3751 -0.1470
 3497DOPE   C3B41038  27.777  26.190  11.887 -0.2422  0.2977 -0.0611
 3497DOPE   C4B41039  28.112  25.986  12.177  0.2958  0.1671 -0.1726
 3498DOPC   NC341040  30.668  28.085   9.492 -0.0786  0.1085 -0.0826
 3498DOPC   PO441041  30.856  28.389   9.678 -0.1739  0.0214  0.0622
 3498DOPC   GL141042  30.751  28.546  10.006 -0.1451  0.0240 -0.4377
 3498DOPC   GL241043  30.926  28.461  10.198  0.1471 -0.1726  0.0503
 3498DOPC   C1A41044  30.369  28.824  10.122 -0.1745 -0.0092  0.1222
 3498DOPC   D2A41045  30.428  29.075  10.447  0.0290  0.0139  0.3289
 3498DOPC   C3A41046  30.305  28.944  10.873 -0.3046  0.1631  0.2248
 3498DOPC   C4A41047  30.150  28.616  11.235 -0.0916 -0.3198 -0.2307
 3498DOPC   C1B41048  31.140  28.679  10.571 -0.2424  0.1158  0.1518
 3498DOPC   D2B41049  31.130  28.707  11.048  0.2397 -0.2698  0.0686
 3498DOPC   C3B41050  31.419  28.627  11.389  0.1446  0.4198 -0.1309
 3498DOPC   C4B41051  31.492  28.809  11.869  0.2781 -0.1159 -0.1110
 3499DOPE   NH341052  32.079  24.174   9.474  0.0995 -0.3552  0.0821
 3499DOPE   PO441053  31.887  23.955   9.686 -0.1413 -0.0506 -0.0720
 3499DOPE   GL141054  31.863  24.176  10.020 -0.0043  0.0536  0.0276
 3499DOPE   GL241055  31.943  24.397   9.958  0.3498  0.0838 -0.0951
 3499DOPE   C1A41056  31.772  24.338  10.489 -0.2485 -0.0052  0.0973
 3499DOPE   D2A41057  31.648  24.472  10.936  0.0387  0.0736  0.3146
 3499DOPE   C3A41058  31.581  24.188  11.301 -0.1654  0.0703  0.0134
 3499DOPE   C4A41059  31.388  24.260  11.728  0.0066  0.0358  0.5540
 3499DOPE   C1B41060  32.147  24.591  10.275 -0.2379  0.0270  0.0419
 3499DOPE   D2B41061  32.046  24.744  10.721  0.0684 -0.1006 -0.2180
 3499DOPE   C3B41062  32.389  24.698  10.963  0.1724  0.0512 -0.2300
 3499DOPE   C4B41063  32.429  24.680  11.432  0.3928  0.0904  0.1075
 3500POSM   NC341064  21.575  24.295  10.785  0.1112  0.0220 -0.1320
 3500POSM   PO441065  21.568  24.704  10.921  0.1422  0.0132  0.1797
 3500POSM   AM141066  21.650  24.758  11.218  0.0373  0.1141 -0.0597
 3500POSM   AM241067  21.840  24.958  11.319  0.1297  0.2894 -0.0952
 3500POSM   T1A41068  21.635  24.615  11.685  0.0491  0.1279  0.0620
 3500POSM   C2A41069  21.598  24.503  12.149  0.0311 -0.0543  0.5350
 3500POSM   C3A41070  21.799  24.357  12.544  0.1171 -0.2836 -0.2078
 3500POSM   C1B41071  22.029  24.858  11.577 -0.1147  0.0978 -0.0021
 3500POSM   D2B41072  22.074  24.794  12.022  0.0368  0.1955 -0.0642
 3500POSM   C3B41073  22.214  24.674  12.423 -0.1733 -0.5531 -0.0180
 3500POSM   C4B41074  22.201  24.490  12.876  0.0615 -0.1380 -0.0149
 3501DOPC   NC341075  28.039  32.168   9.873  0.1312  0.2198 -0.1144
 3501DOPC   PO441076  27.944  31.885  10.140  0.1023  0.2285  0.1917
 3501DOPC   GL141077  27.767  31.889  10.444  0.0517 -0.0722 -0.3741
 3501DOPC   GL241078  27.903  32.078  10.621  0.1952  0.1771  0.0464
 3501DOPC   C1A41079  27.806  31.606  10.828  0.1273  0.0446 -0.1758
 3501DOPC   D2A41080  28.048  31.318  11.084  0.1749 -0.0192  0.0344
 3501DOPC   C3A41081  28.423  31.325  11.422 -0.2384 -0.1049  0.4717
 3501DOPC   C4A41082  28.815  31.494  11.606  0.0406 -0.0002  0.1373
 3501DOPC   C1B41083  28.064  32.392  10.932 -0.1941  0.2000  0.2436
 3501DOPC   D2B41084  28.418  32.680  10.886  0.0206  0.0040  0.2297
 3501DOPC   C3B41085  28.702  32.624  11.267 -0.2847 -0.1871 -0.2741
 3501DOPC   C4B41086  28.682  32.580  11.715  0.0529  0.1143  0.2505
 3502POSM   NC341087  31.361  24.987   9.669  0.1662  0.2183 -0.1707
 3502POSM   PO441088  31.112  25.269   9.872 -0.1911 -0.2111  0.1296
 3502POSM   AM141089  31.132  25.154  10.167 -0.1595 -0.0436 -0.2711
 3502POSM   AM241090  31.152  24.870  10.310  0.1584  0.3745  0.0785
 3502POSM   T1A41091  31.164  25.230  10.674 -0.3028  0.0464 -0.3065
 3502POSM   C2A41092  31.281  25.513  10.995 -0.1358 -0.0203 -0.0975
 3502POSM   C3A41093  31.318  25.692  11.444  0.0406  0.0779  0.1760
 3502POSM   C1B41094  31.373  24.774  10.562  0.2285  0.0020 -0.0776
 3502POSM   D2B41095  31.318  24.924  11.020  0.0611  0.0963  0.1694
 3502POSM   C3B41096  31.615  24.709  11.376 -0.0695 -0.0244  0.1443
 3502POSM   C4B41097  31.996  24.497  11.267  0.0829 -0.2207 -0.0414
 3503POSM   NC341098  22.929  29.830   9.891 -0.2580 -0.1516  0.0686
 3503POSM   PO441099  22.620  29.825  10.115  0.0647  0.0867 -0.1522
 3503POSM   AM141100  22.545  29.732  10.419 -0.1423  0.0354  0.2220
 3503POSM   AM241101  22.594  29.496  10.544 -0.0218  0.0647  0.2624
 3503POSM   T1A41102  22.526  29.887  10.884 -0.0390 -0.0713 -0.0374
 3503POSM   C2A41103  22.638  30.187  11.214  0.2566  0.0971 -0.1754
 3503POSM   C3A41104  22.594  30.398  11.587  0.2625 -0.1300 -0.2465
 3503POSM   C1B41105  22.534  29.309  10.847 -0.0540 -0.0517  0.0304
 3503POSM   D2B41106  22.450  29.073  11.273 -0.2086 -0.0934  0.0390
 3503POSM   C3B41107  22.292  28.664  11.315 -0.1885  0.2445  0.1371
 3503POSM   C4B41108  21.901  28.444  11.188 -0.0992 -0.0197  0.1469
 3504DOPC   NC341109  25.637  25.490  10.524 -0.0999 -0.0863  0.1734
 3504DOPC   PO441110  25.586  25.116  10.542 -0.0708 -0.2185 -0.2951
 3504DOPC   GL141111  25.598  25.176  10.998 -0.1916 -0.0906  0.0164
 3504DOPC   GL241112  25.447  24.949  11.051  0.0235 -0.2509 -0.1374
 3504DOPC   C1A41113  25.732  25.450  11.343 -0.2942 -0.0188  0.0103
 3504DOPC   D2A41114  25.941  25.734  11.568  0.0875 -0.2881 -0.1440
 3504DOPC   C3A41115  26.174  25.704  11.990  0.0985  0.0252  0.0655
 3504DOPC   C4A41116  26.245  25.610  12.432 -0.1107 -0.0892  0.1310
 3504DOPC   C1B41117  25.567  24.991  11.515 -0.0295 -0.1072 -0.0211
 3504DOPC   D2B41118  25.830  24.813  11.869  0.0244 -0.0764 -0.1299
 3504DOPC   C3B41119  25.879  24.713  12.356  0.1487 -0.1114  0.1825
 3504DOPC   C4B41120  25.975  24.670  12.787 -0.1200  0.0943 -0.2837
 3505DOPE   NH341121  27.250  21.062  10.310 -0.3035 -0.4345  0.1089
 3505DOPE   PO441122  26.996  21.105  10.110  0.0799  0.0189  0.0740
 3505DOPE   GL141123  26.734  21.262  10.432  0.1225  0.3113 -0.4229
 3505DOPE   GL241124  26.654  21.006  10.494  0.1598  0.1900  0.0869
 3505DOPE   C1A41125  26.667  21.539  10.822  0.2706  0.2218 -0.2729
 3505DOPE   D2A41126  26.441  21.648  11.206 -0.4716  0.1135 -0.1636
 3505DOPE   C3A41127  26.354  22.042  11.461 -0.0586  0.2290  0.1120
 3505DOPE   C4A41128  26.148  22.205  11.871  0.1099 -0.0434 -0.3201
 3505DOPE   C1B41129  26.335  21.148  10.824  0.3054  0.1519 -0.1239
 3505DOPE   D2B41130  26.018  21.482  11.002 -0.1190 -0.0502  0.2623
 3505DOPE   C3B41131  26.068  21.973  11.044 -0.3313 -0.3626 -0.1413
 3505DOPE   C4B41132  26.234  22.419  11.069 -0.0790  0.3881 -0.1577
 3506POSM   NC341133  26.961   2.805  10.058  0.1015  0.1686  0.2727
 3506POSM   PO441134  27.170   2.509   9.927 -0.0912  0.0993  0.1935
 3506POSM   AM141135  27.310   2.410  10.235  0.0437  0.4613 -0.1584
 3506POSM   AM241136  27.345   2.140  10.331  0.2618 -0.0019  0.2078
 3506POSM   T1A41137  27.385   2.693  10.606 -0.0641 -0.0094  0.0282
 3506POSM   C2A41138  27.729   2.661  10.872  0.1686 -0.1419  0.1196
 3506POSM   C3A41139  28.158   2.784  10.982  0.0895 -0.1704 -0.1321
 3506POSM   C1B41140  27.157   2.079  10.622 -0.2326  0.0817 -0.0311
 3506POSM   D2B41141  27.129   1.886  11.011  0.0056 -0.1651 -0.0182
 3506POSM   C3B41142  27.216   1.543  11.270  0.3983 -0.1954  0.0989
 3506POSM   C4B41143  27.395   1.328  11.629  0.4495 -0.2010  0.1670
 3507POSM   NC341144  26.175  23.999  10.488  0.2619  0.0695  0.2861
 3507POSM   PO441145  25.899  24.283  10.451 -0.0401 -0.3769 -0.0176
 3507POSM   AM141146  25.889  24.263  10.755  0.1353 -0.3478 -0.0906
 3507POSM   AM241147  26.093  24.138  10.954 -0.0267 -0.1992 -0.0052
 3507POSM   T1A41148  25.718  24.469  11.209 -0.0552 -0.0536  0.0045
 3507POSM   C2A41149  25.572  24.528  11.608 -0.0375  0.1422  0.2835
 3507POSM   C3A41150  25.608  24.374  12.048 -0.0156  0.1133  0.0113
 3507POSM   C1B41151  26.245  24.242  11.278  0.3906  0.1216 -0.0183
 3507POSM   D2B41152  26.536  24.462  11.605 -0.0575 -0.1822  0.3160
 3507POSM   C3B41153  26.842  24.160  11.655  0.1450 -0.3513 -0.2139
 3507POSM   C4B41154  26.848  23.723  11.702 -0.1548  0.0840 -0.0318
 3508DOPS   CNO41155  26.451  29.671  10.308 -0.1673  0.0958  0.0620
 3508DOPS   PO441156  26.538  29.836   9.987  0.2535  0.1234  0.0134
 3508DOPS   GL141157  26.723  30.061  10.366 -0.2814  0.1848 -0.0730
 3508DOPS   GL241158  26.873  29.831  10.503  0.0221  0.0351  0.1176
 3508DOPS   C1A41159  26.466  30.090  10.751  0.2729  0.0311 -0.2927
 3508DOPS   D2A41160  26.358  29.918  11.193  0.1495 -0.1337  0.1541
 3508DOPS   C3A41161  26.566  29.871  11.638 -0.3065 -0.1016 -0.1649
 3508DOPS   C4A41162  26.761  29.835  12.016  0.4396 -0.0802  0.2205
 3508DOPS   C1B41163  26.937  30.018  10.887 -0.3212 -0.0105  0.3329
 3508DOPS   D2B41164  27.231  30.220  11.128 -0.2461  0.2850  0.1452
 3508DOPS   C3B41165  27.185  30.202  11.561  0.0577 -0.0892  0.0594
 3508DOPS   C4B41166  27.247  30.260  11.991  0.1762 -0.0224  0.1539
 3509DOPC   NC341167  24.870   0.828  10.256  0.2607  0.0141 -0.2334
 3509DOPC   PO441168  24.893   0.456  10.445 -0.2523 -0.0039 -0.2076
 3509DOPC   GL141169  25.023   0.624  10.758 -0.0970 -0.0942 -0.1244
 3509DOPC   GL241170  24.879   0.657  10.955 -0.1549 -0.3108 -0.0996
 3509DOPC   C1A41171  25.308   0.737  11.112  0.3527 -0.2741 -0.2438
 3509DOPC   D2A41172  25.522   0.542  11.469  0.2294 -0.0007 -0.1233
 3509DOPC   C3A41173  25.893   0.647  11.636 -0.6123  0.1847  0.1264
 3509DOPC   C4A41174  26.279   0.572  11.901 -0.2454 -0.2062 -0.3400
 3509DOPC   C1B41175  24.862   0.489  11.385 -0.0768 -0.1497 -0.0250
 3509DOPC   D2B41176  24.770   0.081  11.692  0.0483 -0.2181 -0.0788
 3509DOPC   C3B41177  25.065  -0.049  12.034 -0.2007 -0.0607  0.1320
 3509DOPC   C4B41178  25.445   0.066  12.324 -0.2486  0.0786  0.1235
 3510POSM   NC341179  22.867  26.593  10.479  0.2533  0.3249 -0.1824
 3510POSM   PO441180  23.183  26.536  10.651  0.1786  0.0332  0.1340
 3510POSM   AM141181  22.986  26.547  10.927  0.0916 -0.0127  0.0394
 3510POSM   AM241182  22.950  26.384  11.111  0.0327  0.2179 -0.1701
 3510POSM   T1A41183  22.679  26.724  11.304  0.0888  0.1433  0.1679
 3510POSM   C2A41184  22.414  26.560  11.689  0.1582 -0.3185 -0.4741
 3510POSM   C3A41185  22.105  26.405  11.994 -0.0251  0.3721  0.0638
 3510POSM   C1B41186  22.957  26.303  11.500 -0.1623 -0.0863  0.0517
 3510POSM   D2B41187  22.925  26.293  11.934 -0.3143  0.1206 -0.0805
 3510POSM   C3B41188  22.815  25.982  12.257 -0.0846 -0.1113  0.2388
 3510POSM   C4B41189  22.880  25.805  12.645 -0.1871 -0.2886  0.1760
 3511DOPE   NH341190  27.291  29.321  10.239  0.3280  0.0886 -0.1681
 3511DOPE   PO441191  27.601  29.275  10.156  0.2591  0.0518  0.2807
 3511DOPE   GL141192  27.580  29.245  10.617  0.3540 -0.1956 -0.2020
 3511DOPE   GL241193  27.647  29.531  10.727 -0.0485 -0.2494  0.1790
 3511DOPE   C1A41194  27.431  29.190  11.053 -0.1386  0.2161 -0.0737
 3511DOPE   D2A41195  27.214  29.271  11.473 -0.0493  0.0170 -0.3394
 3511DOPE   C3A41196  27.115  28.907  11.689 -0.0195  0.1699 -0.1849
 3511DOPE   C4A41197  27.302  28.547  11.940  0.2668 -0.0213 -0.0759
 3511DOPE   C1B41198  27.870  29.782  11.079  0.2356  0.1077  0.3260
 3511DOPE   D2B41199  28.184  29.904  11.382 -0.3735 -0.1611 -0.1206
 3511DOPE   C3B41200  28.024  29.829  11.776  0.1758 -0.3173 -0.5888
 3511DOPE   C4B41201  27.662  29.771  12.039 -0.1086  0.2855  0.5445
 3512POSM   NC341202  23.098  32.792   9.961  0.1428  0.1019  0.2719
 3512POSM   PO441203  23.302  32.606  10.278  0.0580  0.0882 -0.3418
 3512POSM   AM141204  23.322  32.456  10.600  0.0150  0.1462  0.3403
 3512POSM   AM241205  23.204  32.253  10.741 -0.0595 -0.1884  0.0262
 3512POSM   T1A41206  23.570  32.491  11.006  0.1147  0.1826  0.1110
 3512POSM   C2A41207  23.455  32.479  11.451  0.1285 -0.0506 -0.2693
 3512POSM   C3A41208  23.474  32.615  11.846  0.0359  0.0718 -0.1523
 3512POSM   C1B41209  23.230  32.144  11.074 -0.0407 -0.0152  0.3498
 3512POSM   D2B41210  23.306  32.034  11.573 -0.1786  0.3290  0.0936
 3512POSM   C3B41211  23.045  32.320  11.871 -0.4545 -0.0805 -0.1068
 3512POSM   C4B41212  22.967  32.720  12.042 -0.2135 -0.0565 -0.1582
 3513POSM   NC341213  23.820  34.182  10.643  0.1342 -0.2212  0.0434
 3513POSM   PO441214  23.998  33.850  10.468  0.0308 -0.2752  0.0033
 3513POSM   AM141215  24.015  33.556  10.685  0.1879 -0.0408 -0.2949
 3513POSM   AM241216  23.918  33.632  10.960 -0.0414 -0.3586  0.2153
 3513POSM   T1A41217  24.151  33.095  10.806  0.3271  0.0144  0.0743
 3513POSM   C2A41218  24.058  32.674  10.977  0.1603  0.1423 -0.1226
 3513POSM   C3A41219  24.201  32.517  11.345  0.2060 -0.0221  0.2472
 3513POSM   C1B41220  24.079  33.438  11.170  0.0023  0.1224  0.1696
 3513POSM   D2B41221  24.137  33.015  11.350 -0.1875 -0.2790 -0.0840
 3513POSM   C3B41222  23.897  32.877  11.649 -0.0061 -0.0942 -0.4816
 3513POSM   C4B41223  23.683  32.936  12.157 -0.0965  0.2208  0.3504
 3514POSM   NC341224  21.789  32.264   9.962  0.0486 -0.0544  0.0357
 3514POSM   PO441225  21.440  32.319  10.132 -0.3608  0.0341 -0.1835
 3514POSM   AM141226  21.470  32.233  10.454  0.4275 -0.1112 -0.1056
 3514POSM   AM241227  21.449  32.341  10.706  0.1074 -0.0581 -0.0021
 3514POSM   T1A41228  21.738  31.961  10.746  0.0608 -0.1003 -0.0498
 3514POSM   C2A41229  22.020  32.082  11.081  0.1396  0.2763  0.0256
 3514POSM   C3A41230  22.343  32.325  11.316 -0.0855 -0.2752  0.1353
 3514POSM   C1B41231  21.559  32.358  10.973 -0.1422 -0.0166 -0.1250
 3514POSM   D2B41232  21.790  32.381  11.388  0.1847  0.0467 -0.3499
 3514POSM   C3B41233  21.614  32.484  11.827 -0.2583 -0.1829  0.2832
 3514POSM   C4B41234  21.776  32.631  12.241 -0.1214  0.0433  0.0168
 3515DOPS   CNO41235  29.785  30.876   9.865 -0.1180  0.2430 -0.1384
 3515DOPS   PO441236  29.894  30.576  10.009 -0.0160  0.0252  0.0136
 3515DOPS   GL141237  29.925  30.787  10.345 -0.0248 -0.1443 -0.0848
 3515DOPS   GL241238  30.004  31.090  10.273  0.2653 -0.2654  0.0439
 3515DOPS   C1A41239  30.004  30.811  10.816  0.1158 -0.2178 -0.0230
 3515DOPS   D2A41240  29.888  30.909  11.243  0.2177 -0.4372 -0.0506
 3515DOPS   C3A41241  29.764  31.096  11.647 -0.3328  0.0464 -0.1620
 3515DOPS   C4A41242  29.967  31.350  11.997 -0.0072 -0.0203  0.0764
 3515DOPS   C1B41243  30.380  31.021  10.476 -0.4253  0.4457  0.0905
 3515DOPS   D2B41244  30.832  31.210  10.546 -0.6776 -0.0653  0.4432
 3515DOPS   C3B41245  30.959  31.196  11.017 -0.4202  0.1711  0.1623
 3515DOPS   C4B41246  30.868  31.002  11.407  0.2047  0.0914 -0.0162
 3516POSM   NC341247  26.797  27.429   9.857  0.0486 -0.3744 -0.1111
 3516POSM   PO441248  26.876  27.326  10.224 -0.1061 -0.0439  0.1394
 3516POSM   AM141249  26.841  27.376  10.566  0.1154  0.1958 -0.2229
 3516POSM   AM241250  26.712  27.266  10.769  0.1083 -0.2626  0.2191
 3516POSM   T1A41251  27.173  27.236  10.959 -0.0495 -0.0884  0.0440
 3516POSM   C2A41252  27.125  26.946  11.354 -0.0034 -0.2638 -0.0891
 3516POSM   C3A41253  26.935  26.656  11.682  0.0510  0.3128 -0.0487
 3516POSM   C1B41254  26.645  27.082  11.026 -0.1386  0.0932 -0.0917
 3516POSM   D2B41255  26.235  26.988  11.218 -0.3008 -0.1143  0.0702
 3516POSM   C3B41256  25.785  26.921  11.188  0.2097  0.1062  0.0033
 3516POSM   C4B41257  25.418  26.954  10.912  0.0367  0.1179  0.1986
 3517DOPE   NH341258  31.843  30.634   9.600  0.1791  0.1345 -0.1047
 3517DOPE   PO441259  31.867  30.441   9.851  0.1261 -0.0058 -0.1765
 3517DOPE   GL141260  32.035  30.481  10.233 -0.2069  0.4044  0.1302
 3517DOPE   GL241261  31.850  30.532  10.460 -0.0193  0.0949 -0.3001
 3517DOPE   C1A41262  32.106  30.084  10.474 -0.1740 -0.3928  0.2099
 3517DOPE   D2A41263  32.156  29.702  10.690  0.0713 -0.4902 -0.0028
 3517DOPE   C3A41264  32.230  29.328  10.394  0.0510 -0.2167 -0.1103
 3517DOPE   C4A41265  32.078  29.126   9.979 -0.0233  0.0100 -0.0330
 3517DOPE   C1B41266  31.649  30.223  10.778 -0.0643 -0.0194 -0.1992
 3517DOPE   D2B41267  31.744  30.064  11.188 -0.1318  0.2819  0.1463
 3517DOPE   C3B41268  31.998  29.725  11.160  0.0116 -0.0066 -0.0125
 3517DOPE   C4B41269  32.444  29.597  11.118 -0.0586 -0.2168 -0.2033
 3518DOPE   NH341270  29.817  33.886   9.493  0.0494 -0.1375 -0.0526
 3518DOPE   PO441271  29.709  33.786   9.783 -0.0049  0.0141 -0.0087
 3518DOPE   GL141272  29.874  33.737  10.085  0.0582 -0.5826 -0.4207
 3518DOPE   GL241273  29.842  33.942  10.244 -0.0273  0.0996 -0.2271
 3518DOPE   C1A41274  30.065  33.512  10.460 -0.2895  0.2522  0.1930
 3518DOPE   D2A41275  30.076  33.044  10.465 -0.2629 -0.1870  0.0409
 3518DOPE   C3A41276  29.886  32.819  10.802 -0.0823 -0.2320 -0.0571
 3518DOPE   C4A41277  29.693  32.651  11.179 -0.2085  0.1729 -0.0192
 3518DOPE   C1B41278  30.135  34.006  10.572  0.0544 -0.1115 -0.1752
 3518DOPE   D2B41279  30.420  33.683  10.802  0.0922 -0.0962 -0.2323
 3518DOPE   C3B41280  30.560  33.761  11.207  0.0003  0.1713  0.0128
 3518DOPE   C4B41281  30.967  33.704  11.444  0.2078  0.0464  0.0956
 3519DOPE   NH341282  23.588  29.222  10.445 -0.1933  0.2253  0.0434
 3519DOPE   PO441283  23.305  29.319  10.303 -0.1460  0.3314  0.0566
 3519DOPE   GL141284  23.170  29.175  10.600 -0.0870 -0.0441 -0.0652
 3519DOPE   GL241285  23.307  29.335  10.824 -0.1672  0.0098 -0.0280
 3519DOPE   C1A41286  23.356  28.866  10.926  0.2192  0.0435 -0.0057
 3519DOPE   D2A41287  23.765  28.780  11.214  0.0760  0.2668  0.0596
 3519DOPE   C3A41288  23.865  28.912  11.594  0.0579 -0.2857 -0.0434
 3519DOPE   C4A41289  23.948  28.997  12.018 -0.0970 -0.0526 -0.1446
 3519DOPE   C1B41290  23.614  29.674  10.964 -0.0527 -0.1157 -0.0570
 3519DOPE   D2B41291  23.661  30.072  11.232  0.2245  0.0449 -0.2926
 3519DOPE   C3B41292  24.027  30.363  11.356 -0.1611 -0.2898  0.1083
 3519DOPE   C4B41293  24.170  30.733  11.587  0.1151 -0.0456 -0.0100
 3520DOPE   NH341294  26.349  23.268  10.199 -0.0020 -0.3035  0.2389
 3520DOPE   PO441295  26.214  23.508  10.418  0.0522 -0.4168 -0.1405
 3520DOPE   GL141296  26.131  23.317  10.688  0.2361  0.1882 -0.4946
 3520DOPE   GL241297  26.079  23.066  10.599 -0.0006 -0.2922  0.0207
 3520DOPE   C1A41298  26.208  23.310  11.155  0.1794 -0.1100  0.1918
 3520DOPE   D2A41299  26.478  23.420  11.481 -0.0277  0.1381  0.0015
 3520DOPE   C3A41300  26.381  23.525  11.880  0.0611 -0.1414  0.2094
 3520DOPE   C4A41301  26.380  23.636  12.368 -0.1555  0.1002 -0.2162
 3520DOPE   C1B41302  26.037  22.848  10.993 -0.1119 -0.0254  0.1030
 3520DOPE   D2B41303  26.187  22.870  11.417 -0.2524 -0.1741 -0.0059
 3520DOPE   C3B41304  26.446  22.560  11.652  0.1468  0.2144 -0.0743
 3520DOPE   C4B41305  26.799  22.257  11.821  0.0282 -0.0620  0.1369
 3521POSM   NC341306  24.764  24.870  10.598 -0.0574 -0.2466 -0.1364
 3521POSM   PO441307  25.149  24.802  10.664 -0.1296  0.0362  0.2169
 3521POSM   AM141308  25.155  24.645  10.968  0.0680  0.3241  0.5413
 3521POSM   AM241309  25.205  24.385  11.129 -0.2489 -0.1961  0.3363
 3521POSM   T1A41310  25.114  24.735  11.459 -0.1198  0.1226 -0.3904
 3521POSM   C2A41311  24.947  24.751  11.858 -0.1617 -0.0485  0.0884
 3521POSM   C3A41312  24.766  24.517  12.182 -0.1468  0.0356  0.2312
 3521POSM   C1B41313  25.197  24.182  11.368 -0.0841  0.1665  0.3787
 3521POSM   D2B41314  25.000  23.888  11.672  0.2782  0.2598  0.2647
 3521POSM   C3B41315  24.849  24.022  12.112  0.0013 -0.3926 -0.1763
 3521POSM   C4B41316  24.700  24.090  12.566  0.0966  0.1020 -0.1254
 3522DOPC   NC341317  32.479  33.240   9.958  0.1293  0.1129 -0.1160
 3522DOPC   PO441318  32.449  33.573  10.069 -0.3966 -0.0712 -0.1996
 3522DOPC   GL141319  32.565  33.401  10.399 -0.2250 -0.1700 -0.2491
 3522DOPC   GL241320  32.783  33.283  10.393  0.1412  0.2772  0.2224
 3522DOPC   C1A41321  32.481  33.087  10.719  0.1110  0.0251  0.1376
 3522DOPC   D2A41322  32.553  32.703  10.999  0.2574  0.2604 -0.3923
 3522DOPC   C3A41323  32.946  32.528  11.088 -0.0245  0.1537 -0.1364
 3522DOPC   C4A41324  33.300  32.427  11.349  0.2036  0.3183 -0.1805
 3522DOPC   C1B41325  32.778  33.486  10.801 -0.0937 -0.0572 -0.0776
 3522DOPC   D2B41326  32.778  33.741  11.232 -0.2080  0.0715  0.0247
 3522DOPC   C3B41327  33.148  33.751  11.483  0.1794  0.1712  0.0062
 3522DOPC   C4B41328  33.268  33.337  11.602 -0.2442  0.0893 -0.2077
 3523DOPC   NC341329  28.074  33.607  10.119  0.4418 -0.2033  0.1603
 3523DOPC   PO441330  28.372  33.698   9.900 -0.0428  0.0578  0.0531
 3523DOPC   GL141331  28.493  33.810  10.325  0.4288  0.1070  0.0636
 3523DOPC   GL241332  28.256  33.970  10.415 -0.0046  0.1254 -0.0371
 3523DOPC   C1A41333  28.331  33.628  10.741 -0.0310  0.2173  0.0847
 3523DOPC   D2A41334  28.175  33.754  11.128  0.3231 -0.1831  0.0730
 3523DOPC   C3A41335  28.267  33.479  11.459  0.3712 -0.1041 -0.0257
 3523DOPC   C4A41336  28.049  33.374  11.826  0.3583 -0.1377  0.0204
 3523DOPC   C1B41337  28.153  34.143  10.850 -0.2878  0.3139  0.0303
 3523DOPC   D2B41338  28.370  34.258  11.240 -0.1128 -0.0970  0.0435
 3523DOPC   C3B41339  28.477  33.956  11.575  0.3581 -0.1757 -0.1217
 3523DOPC   C4B41340  28.776  33.875  11.949  0.0747  0.0306  0.0134
 3524POSM   NC341341  25.593  31.421  10.115  0.1483 -0.0550 -0.3073
 3524POSM   PO441342  25.245  31.221  10.248  0.1047 -0.0099  0.1413
 3524POSM   AM141343  25.201  31.110  10.587  0.0990  0.1615  0.3681
 3524POSM   AM241344  25.064  31.021  10.842  0.0649  0.1078  0.3982
 3524POSM   T1A41345  25.478  30.818  10.918 -0.1438 -0.0481  0.2144
 3524POSM   C2A41346  25.892  30.850  11.121 -0.0252  0.0111  0.2204
 3524POSM   C3A41347  26.341  30.947  11.218 -0.0554 -0.3542  0.0583
 3524POSM   C1B41348  24.795  30.946  11.034  0.5164 -0.1740 -0.0411
 3524POSM   D2B41349  24.618  30.987  11.508  0.0554  0.4119  0.1255
 3524POSM   C3B41350  24.788  30.714  11.888  0.2309 -0.1564 -0.3031
 3524POSM   C4B41351  25.076  30.357  11.909 -0.1744 -0.2950  0.3074
 3525POSM   NC341352  30.464  30.487   9.679  0.0946 -0.1407  0.2184
 3525POSM   PO441353  30.833  30.499   9.710 -0.0435  0.1429  0.1501
 3525POSM   AM141354  30.932  30.545  10.002 -0.2440  0.3571  0.2689
 3525POSM   AM241355  30.796  30.554  10.256  0.1831  0.0177  0.1680
 3525POSM   T1A41356  31.164  30.834  10.367 -0.1681 -0.1966  0.3528
 3525POSM   C2A41357  31.468  30.753  10.692  0.2432  0.0356 -0.3654
 3525POSM   C3A41358  31.845  30.596  11.015 -0.0982  0.2339  0.2868
 3525POSM   C1B41359  30.664  30.492  10.571  0.1417 -0.0480  0.2818
 3525POSM   D2B41360  30.650  30.519  11.034  0.0166  0.1299 -0.0506
 3525POSM   C3B41361  30.438  30.683  11.424 -0.2460 -0.1282  0.2341
 3525POSM   C4B41362  30.071  30.667  11.699  0.0880  0.4329 -0.1926
 3526DOPS   CNO41363  31.327  27.570   9.292  0.0924 -0.1752 -0.1829
 3526DOPS   PO441364  30.993  27.719   9.464  0.1241  0.3087  0.2750
 3526DOPS   GL141365  30.910  27.856   9.875 -0.0763  0.4930 -0.0057
 3526DOPS   GL241366  31.129  28.016   9.856 -0.1739 -0.1456 -0.2206
 3526DOPS   C1A41367  30.869  27.731  10.324 -0.2762  0.2512 -0.0080
 3526DOPS   D2A41368  30.835  27.662  10.758 -0.0095  0.0355 -0.2700
 3526DOPS   C3A41369  30.956  27.919  11.125  0.0229  0.2226 -0.4029
 3526DOPS   C4A41370  31.022  28.317  11.352  0.0737  0.2054 -0.0853
 3526DOPS   C1B41371  31.338  28.162  10.203  0.0066  0.1770 -0.0848
 3526DOPS   D2B41372  31.610  28.463  10.474 -0.2770 -0.0115 -0.3181
 3526DOPS   C3B41373  31.585  28.737  10.847 -0.0322  0.2015  0.2158
 3526DOPS   C4B41374  32.035  28.778  11.037  0.0235 -0.0377  0.0206
 3527DOPE   NH341375  28.388  31.048  10.209  0.0420 -0.0133 -0.0456
 3527DOPE   PO441376  28.414  30.737  10.316 -0.0742  0.0217  0.2674
 3527DOPE   GL141377  28.603  30.866  10.652 -0.4683  0.3941  0.2585
 3527DOPE   GL241378  28.503  30.584  10.799 -0.0817  0.1021  0.0258
 3527DOPE   C1A41379  29.013  30.802  10.847 -0.1014 -0.3583  0.1643
 3527DOPE   D2A41380  29.220  30.820  11.236 -0.0310 -0.0750  0.1534
 3527DOPE   C3A41381  29.418  30.670  11.628 -0.1096 -0.0057 -0.1419
 3527DOPE   C4A41382  29.605  30.558  12.003  0.0324 -0.0123  0.0383
 3527DOPE   C1B41383  28.555  30.465  11.273  0.2007  0.0875  0.4720
 3527DOPE   D2B41384  28.643  30.162  11.632  0.1514 -0.0106 -0.0639
 3527DOPE   C3B41385  28.751  30.526  11.962  0.0143 -0.3671  0.2229
 3527DOPE   C4B41386  29.182  30.540  12.223  0.1197  0.2077 -0.1295
 3528DOPC   NC341387  28.176  32.894   9.515 -0.4263 -0.2199 -0.0844
 3528DOPC   PO441388  28.112  32.672   9.856  0.1779  0.2483  0.0813
 3528DOPC   GL141389  28.006  32.510  10.191 -0.1490 -0.1507 -0.1023
 3528DOPC   GL241390  28.280  32.283  10.331  0.1002 -0.0093 -0.0415
 3528DOPC   C1A41391  27.690  32.564  10.509  0.2022  0.0387 -0.1009
 3528DOPC   D2A41392  27.379  32.806  10.570  0.1365 -0.1516  0.1265
 3528DOPC   C3A41393  27.200  32.787  10.964  0.4003 -0.2816 -0.0609
 3528DOPC   C4A41394  27.203  32.672  11.410 -0.0992 -0.1568  0.2411
 3528DOPC   C1B41395  28.552  32.207  10.667 -0.5182  0.2799  0.0160
 3528DOPC   D2B41396  28.896  32.196  11.012 -0.0434 -0.1483  0.1577
 3528DOPC   C3B41397  28.872  32.139  11.466  0.0431  0.0680  0.2636
 3528DOPC   C4B41398  28.626  31.925  11.812 -0.2407  0.2181  0.0752
 3529DOPC   NC341399  26.238  30.278   9.751 -0.2763 -0.2860  0.1741
 3529DOPC   PO441400  26.179  30.563   9.994 -0.0760  0.0425  0.0725
 3529DOPC   GL141401  26.363  30.561  10.362 -0.1828 -0.1713 -0.0301
 3529DOPC   GL241402  26.286  30.827  10.498  0.2415  0.0470 -0.1799
 3529DOPC   C1A41403  26.814  30.593  10.499 -0.0918 -0.2134 -0.1253
 3529DOPC   D2A41404  27.213  30.620  10.816 -0.0427 -0.0202 -0.4967
 3529DOPC   C3A41405  27.185  30.682  11.285 -0.3178  0.2355 -0.0473
 3529DOPC   C4A41406  27.447  30.616  11.672 -0.0289 -0.0340  0.3224
 3529DOPC   C1B41407  26.283  30.560  10.881 -0.0479  0.2490  0.1619
 3529DOPC   D2B41408  26.156  30.414  11.320 -0.0498  0.0524 -0.0302
 3529DOPC   C3B41409  26.200  30.519  11.718 -0.0565 -0.0594 -0.1211
 3529DOPC   C4B41410  26.502  30.684  12.022  0.2858  0.1796  0.0359
 3530DOPC   NC341411  27.080  34.687  10.749  0.3308  0.0356  0.0422
 3530DOPC   PO441412  27.006  34.335  10.529 -0.2758 -0.0574 -0.0147
 3530DOPC   GL141413  26.951  34.338  10.982  0.0471  0.0370  0.2793
 3530DOPC   GL241414  26.612  34.395  10.875 -0.1726  0.1111 -0.4884
 3530DOPC   C1A41415  27.103  34.090  11.394 -0.4388 -0.1337 -0.3546
 3530DOPC   D2A41416  27.459  34.160  11.699  0.0270 -0.0057 -0.2994
 3530DOPC   C3A41417  27.406  34.535  11.920  0.1238 -0.1633  0.3298
 3530DOPC   C4A41418  27.046  34.679  12.233  0.1958  0.2775  0.1220
 3530DOPC   C1B41419  26.624  34.166  11.216 -0.2411  0.1498 -0.0944
 3530DOPC   D2B41420  26.723  33.816  11.548  0.1635 -0.0202 -0.2298
 3530DOPC   C3B41421  26.765  33.397  11.471  0.1552  0.1870 -0.2666
 3530DOPC   C4B41422  26.689  32.981  11.669  0.0556 -0.3564 -0.2445
 3531DOPE   NH341423  28.097  26.346   9.748 -0.0404  0.1699  0.2351
 3531DOPE   PO441424  28.267  26.298  10.029 -0.2425  0.0338  0.1127
 3531DOPE   GL141425  28.117  26.326  10.384 -0.1545  0.1676 -0.3276
 3531DOPE   GL241426  28.327  26.378  10.566  0.1539  0.2980  0.3228
 3531DOPE   C1A41427  28.016  26.090  10.755  0.1620  0.3691 -0.4370
 3531DOPE   D2A41428  27.884  26.110  11.227 -0.1258 -0.3293 -0.0806
 3531DOPE   C3A41429  27.994  25.820  11.591  0.0885 -0.0302  0.1629
 3531DOPE   C4A41430  27.783  25.622  12.022 -0.1752  0.2273 -0.3744
 3531DOPE   C1B41431  28.692  26.240  10.911  0.1115  0.0876  0.3955
 3531DOPE   D2B41432  28.979  26.000  11.136  0.3000  0.0090 -0.2068
 3531DOPE   C3B41433  28.937  26.158  11.633  0.0838  0.2453  0.0625
 3531DOPE   C4B41434  28.997  26.018  12.120 -0.0312 -0.0370  0.2047
 3532DOPC   NC341435   2.104  32.402   9.821  0.0107 -0.0642 -0.1916
 3532DOPC   PO441436   2.241  32.062   9.715 -0.1385 -0.2175  0.1969
 3532DOPC   GL141437   2.182  31.974  10.029  0.2458 -0.3618  0.1874
 3532DOPC   GL241438   2.271  31.661  10.152 -0.3108 -0.1640  0.0201
 3532DOPC   C1A41439   2.322  32.133  10.448  0.3227 -0.0470  0.1254
 3532DOPC   D2A41440   2.270  32.136  10.932 -0.1321 -0.1352  0.1727
 3532DOPC   C3A41441   2.463  32.236  11.360  0.0597  0.0525 -0.0091
 3532DOPC   C4A41442   2.561  32.376  11.794  0.1754 -0.0085  0.1087
 3532DOPC   C1B41443   2.620  31.774  10.432 -0.3152  0.1605 -0.0386
 3532DOPC   D2B41444   2.877  31.723  10.828 -0.1720  0.0400 -0.2988
 3532DOPC   C3B41445   2.845  32.032  11.124  0.1752 -0.0912 -0.2190
 3532DOPC   C4B41446   3.091  32.293  11.338  0.0011 -0.1020  0.1107
 3533POSM   NC341447  25.156  29.492  10.714 -0.1111 -0.0416  0.3740
 3533POSM   PO441448  25.171  29.215  10.456 -0.0497 -0.1833  0.0583
 3533POSM   AM141449  25.390  29.063  10.623 -0.2744 -0.1216 -0.0899
 3533POSM   AM241450  25.309  29.036  10.908  0.1860 -0.1760  0.4237
 3533POSM   T1A41451  25.698  28.689  10.724 -0.1670 -0.1281 -0.1141
 3533POSM   C2A41452  25.961  28.517  11.105  0.1254  0.1406 -0.0073
 3533POSM   C3A41453  25.973  28.504  11.563 -0.1565 -0.1421 -0.0514
 3533POSM   C1B41454  25.105  29.214  11.113 -0.2954 -0.0846  0.0979
 3533POSM   D2B41455  24.723  29.217  11.390  0.1362  0.0564 -0.0240
 3533POSM   C3B41456  24.486  28.871  11.271  0.2305  0.0414  0.0546
 3533POSM   C4B41457  24.280  28.486  11.356 -0.0771 -0.0708  0.5099
 3534DOPS   CNO41458  27.555  22.002  10.325 -0.3267  0.2430 -0.1173
 3534DOPS   PO441459  27.178  22.012  10.380  0.2640 -0.1195  0.1285
 3534DOPS   GL141460  27.344  21.895  10.748 -0.3250  0.6636  0.1580
 3534DOPS   GL241461  27.099  21.831  10.850 -0.1071  0.1337  0.0731
 3534DOPS   C1A41462  27.617  21.767  11.126 -0.1610 -0.1618 -0.1878
 3534DOPS   D2A41463  28.058  21.824  11.299 -0.0989  0.0877 -0.0952
 3534DOPS   C3A41464  28.143  21.821  11.713 -0.1329 -0.0676 -0.0232
 3534DOPS   C4A41465  28.245  21.495  12.074  0.0084  0.0881 -0.3373
 3534DOPS   C1B41466  26.978  21.744  11.327  0.1998 -0.0956  0.0951
 3534DOPS   D2B41467  26.724  21.724  11.647  0.1809 -0.1083  0.0895
 3534DOPS   C3B41468  26.580  21.458  11.940 -0.2763 -0.1155 -0.0200
 3534DOPS   C4B41469  26.312  21.144  12.233 -0.2740  0.0459 -0.0125
 3535DOPE   NH341470  24.100  31.738  10.552 -0.1701  0.0282 -0.0092
 3535DOPE   PO441471  24.214  31.506  10.420 -0.1157 -0.0439 -0.4363
 3535DOPE   GL141472  24.098  31.170  10.751 -0.1880  0.0545  0.0814
 3535DOPE   GL241473  24.185  31.411  10.955  0.3247  0.0676 -0.1231
 3535DOPE   C1A41474  24.302  30.881  11.003 -0.2272 -0.4070  0.0446
 3535DOPE   D2A41475  24.453  30.427  11.147 -0.0630 -0.0641 -0.0451
 3535DOPE   C3A41476  24.771  30.139  11.260  0.2198 -0.3899  0.0060
 3535DOPE   C4A41477  24.774  29.696  11.317  0.2338 -0.0510  0.1818
 3535DOPE   C1B41478  24.092  31.711  11.297 -0.2047 -0.0465  0.0422
 3535DOPE   D2B41479  23.994  31.750  11.795  0.2029 -0.1998  0.1299
 3535DOPE   C3B41480  24.247  31.976  12.153 -0.1994 -0.1063 -0.0623
 3535DOPE   C4B41481  24.235  32.179  12.573 -0.0875 -0.1398  0.0906
 3536POSM   NC341482  23.057  22.585  10.315  0.1514  0.2140  0.3490
 3536POSM   PO441483  22.920  22.305  10.049  0.0152 -0.4633  0.0301
 3536POSM   AM141484  23.050  22.126  10.274 -0.1053 -0.2370  0.1127
 3536POSM   AM241485  22.995  21.922  10.448 -0.2273  0.3335  0.3205
 3536POSM   T1A41486  23.353  22.229  10.649 -0.2197  0.3155 -0.0557
 3536POSM   C2A41487  23.408  22.343  11.080  0.0241  0.2295  0.3661
 3536POSM   C3A41488  23.465  22.268  11.515 -0.2851 -0.0725 -0.1129
 3536POSM   C1B41489  22.939  21.971  10.822  0.0802 -0.1616 -0.1098
 3536POSM   D2B41490  22.976  22.157  11.235  0.0934 -0.0917  0.0763
 3536POSM   C3B41491  23.053  22.566  11.440  0.0986  0.0713  0.0562
 3536POSM   C4B41492  23.222  22.701  11.814 -0.0434 -0.1816 -0.2560
 3537DOPC   NC341493  26.465  29.233  10.043 -0.2263  0.0394 -0.2251
 3537DOPC   PO441494  26.818  29.356  10.229  0.3076  0.1204 -0.1385
 3537DOPC   GL141495  26.700  29.330  10.545 -0.1417  0.4115 -0.4107
 3537DOPC   GL241496  26.653  29.058  10.628  0.1774  0.0986  0.1680
 3537DOPC   C1A41497  26.615  29.580  10.897 -0.0489 -0.3454 -0.1276
 3537DOPC   D2A41498  26.493  29.446  11.359 -0.1378  0.2156  0.3692
 3537DOPC   C3A41499  26.783  29.398  11.748  0.0181  0.1197  0.1947
 3537DOPC   C4A41500  27.002  29.238  12.115 -0.0208 -0.1816 -0.1961
 3537DOPC   C1B41501  26.399  29.144  10.968  0.1803  0.3268 -0.0389
 3537DOPC   D2B41502  26.163  29.017  11.317 -0.0451  0.0990  0.2802
 3537DOPC   C3B41503  26.091  29.116  11.738 -0.0076  0.0026  0.3142
 3537DOPC   C4B41504  25.766  29.371  12.022 -0.0271  0.0279  0.2317
 3538DOPS   CNO41505  26.848  23.415  10.072 -0.0302 -0.0637 -0.0874
 3538DOPS   PO441506  26.724  23.633  10.340 -0.3843 -0.1839  0.1299
 3538DOPS   GL141507  26.818  23.419  10.672  0.1914  0.0436 -0.2232
 3538DOPS   GL241508  26.567  23.377  10.794  0.1854  0.0237 -0.0965
 3538DOPS   C1A41509  27.014  23.004  10.844  0.4550  0.0232 -0.2374
 3538DOPS   D2A41510  27.058  22.737  11.201  0.0912 -0.1035 -0.0242
 3538DOPS   C3A41511  26.770  22.421  11.221  0.3085  0.0409  0.0329
 3538DOPS   C4A41512  26.593  22.080  10.955 -0.0361 -0.2792 -0.4152
 3538DOPS   C1B41513  26.792  23.421  11.147 -0.1176 -0.0957  0.1031
 3538DOPS   D2B41514  27.084  23.217  11.500 -0.1898 -0.0119  0.1023
 3538DOPS   C3B41515  26.837  23.211  11.834 -0.0715 -0.1684  0.0780
 3538DOPS   C4B41516  26.797  23.244  12.312  0.0311  0.0593  0.1031
 3539DOPC   NC341517  25.170  26.208  10.742 -0.1853 -0.3330  0.0275
 3539DOPC   PO441518  24.945  26.532  10.724 -0.1313  0.2865  0.1021
 3539DOPC   GL141519  24.711  26.500  11.045 -0.2461  0.0393  0.5209
 3539DOPC   GL241520  24.843  26.255  11.182  0.1916 -0.0088 -0.0215
 3539DOPC   C1A41521  24.563  26.759  11.391  0.1315  0.3146  0.0696
 3539DOPC   D2A41522  24.278  26.826  11.741 -0.1164 -0.1243 -0.1048
 3539DOPC   C3A41523  24.439  27.203  11.893  0.0485 -0.2532 -0.0902
 3539DOPC   C4A41524  24.667  27.549  12.104  0.2313 -0.0677 -0.0220
 3539DOPC   C1B41525  24.735  25.929  11.413  0.0039  0.2986 -0.1897
 3539DOPC   D2B41526  24.932  25.617  11.648 -0.2330  0.3298  0.1294
 3539DOPC   C3B41527  25.381  25.475  11.724 -0.2494 -0.0826 -0.0229
 3539DOPC   C4B41528  25.719  25.531  12.032 -0.1411 -0.2161 -0.5125
 3540DOPC   NC341529  23.682  26.657  10.754  0.0907  0.0542 -0.0023
 3540DOPC   PO441530  23.631  26.278  10.627 -0.0548 -0.0671  0.3416
 3540DOPC   GL141531  23.708  26.229  10.966 -0.1509  0.0608 -0.0442
 3540DOPC   GL241532  23.843  26.313  11.145 -0.0595 -0.0441 -0.0929
 3540DOPC   C1A41533  23.411  26.467  11.283  0.4159  0.1583 -0.1072
 3540DOPC   D2A41534  23.156  26.730  11.564  0.0362 -0.0783 -0.3100
 3540DOPC   C3A41535  22.776  26.830  11.860  0.0761  0.0114  0.0527
 3540DOPC   C4A41536  22.516  26.585  12.182 -0.0991 -0.1008 -0.1831
 3540DOPC   C1B41537  23.785  26.199  11.644 -0.0370  0.3457  0.0042
 3540DOPC   D2B41538  23.669  26.039  12.089 -0.2824 -0.2830  0.0725
 3540DOPC   C3B41539  23.309  26.267  12.286  0.1607 -0.0235 -0.1815
 3540DOPC   C4B41540  22.909  26.388  12.544  0.1911 -0.1441  0.0777
 3541DOPE   NH341541  26.427  28.243  10.329 -0.0248 -0.0674  0.0038
 3541DOPE   PO441542  26.727  28.327  10.199  0.1184 -0.2445  0.0926
 3541DOPE   GL141543  26.668  28.589  10.622  0.0381 -0.5249 -0.1567
 3541DOPE   GL241544  26.912  28.652  10.757  0.1514  0.0279  0.2998
 3541DOPE   C1A41545  26.607  28.770  11.113  0.2858 -0.0067  0.1154
 3541DOPE   D2A41546  26.647  28.994  11.512 -0.1490 -0.1635  0.1530
 3541DOPE   C3A41547  26.589  28.805  11.918  0.4085  0.1486  0.0234
 3541DOPE   C4A41548  26.322  28.369  11.937  0.0796 -0.0102 -0.2595
 3541DOPE   C1B41549  26.948  28.362  11.093 -0.2179 -0.1776 -0.0056
 3541DOPE   D2B41550  26.726  27.954  11.228 -0.0289 -0.3343  0.1912
 3541DOPE   C3B41551  26.753  27.973  11.719  0.1117  0.0222  0.1321
 3541DOPE   C4B41552  26.734  28.168  12.127 -0.0322 -0.0295 -0.1943
 3542DOPC   NC341553  24.604  25.983  10.828  0.0347  0.0995 -0.1843
 3542DOPC   PO441554  24.231  25.836  10.827 -0.0356 -0.1957  0.0930
 3542DOPC   GL141555  24.408  25.803  11.153  0.3041 -0.0533  0.1906
 3542DOPC   GL241556  24.451  25.543  11.304  0.3427  0.0107  0.1140
 3542DOPC   C1A41557  24.211  25.962  11.531 -0.0320  0.2919  0.0749
 3542DOPC   D2A41558  24.214  26.239  11.940  0.2227 -0.1257 -0.3330
 3542DOPC   C3A41559  24.006  26.290  12.369 -0.2052  0.0156 -0.3130
 3542DOPC   C4A41560  24.117  26.617  12.676  0.1485  0.1450 -0.1045
 3542DOPC   C1B41561  24.318  25.531  11.712  0.1308  0.0788 -0.2053
 3542DOPC   D2B41562  24.112  25.748  12.073 -0.0100  0.0633  0.2914
 3542DOPC   C3B41563  24.430  25.830  12.372  0.1537 -0.0914 -0.1655
 3542DOPC   C4B41564  24.715  25.473  12.574 -0.0323 -0.4694  0.0331
 3543DOPC   NC341565  29.405   3.178  10.214 -0.2902  0.0165 -0.0295
 3543DOPC   PO441566  29.645   3.052   9.960  0.2341  0.0632 -0.1429
 3543DOPC   GL141567  29.816   2.981  10.249  0.0798 -0.0729 -0.1284
 3543DOPC   GL241568  29.741   2.778  10.468 -0.0705  0.0956  0.0872
 3543DOPC   C1A41569  29.875   3.305  10.580  0.1855 -0.1092 -0.1553
 3543DOPC   D2A41570  29.677   3.529  10.979  0.0188  0.3495 -0.1155
 3543DOPC   C3A41571  29.686   3.452  11.436  0.0784  0.1075  0.2129
 3543DOPC   C4A41572  29.451   3.230  11.760 -0.0786  0.2137 -0.0632
 3543DOPC   C1B41573  29.633   2.627  10.939 -0.0634  0.1895  0.0252
 3543DOPC   D2B41574  29.847   2.579  11.382  0.1083  0.1306  0.0833
 3543DOPC   C3B41575  30.132   2.268  11.513 -0.0876 -0.0348  0.0432
 3543DOPC   C4B41576  30.289   1.862  11.299  0.0493  0.0824 -0.2984
 3544POSM   NC341577  29.255   0.009  10.007 -0.2088 -0.1622  0.0521
 3544POSM   PO441578  29.053  -0.325  10.004  0.0093  0.1659  0.1557
 3544POSM   AM141579  29.139  -0.369  10.306  0.4136  0.1361 -0.0903
 3544POSM   AM241580  29.425  -0.370  10.408  0.0829 -0.1123  0.1033
 3544POSM   T1A41581  29.056  -0.292  10.805 -0.0042  0.1710 -0.2151
 3544POSM   C2A41582  29.283  -0.067  11.163  0.0745  0.2190 -0.1557
 3544POSM   C3A41583  29.651   0.109  11.331 -0.1083 -0.0731  0.1952
 3544POSM   C1B41584  29.560  -0.603  10.656  0.2706  0.1264  0.1504
 3544POSM   D2B41585  29.806  -0.911  10.928  0.2013 -0.2779 -0.3393
 3544POSM   C3B41586  30.104  -0.775  11.320  0.0188  0.2210 -0.4286
 3544POSM   C4B41587  30.185  -0.409  11.607  0.2252  0.2070  0.1528
 3545DOPE   NH341588  27.579  31.529  10.013 -0.3510 -0.0450  0.0696
 3545DOPE   PO441589  27.457  31.569  10.297  0.0838  0.0709  0.0780
 3545DOPE   GL141590  27.287  31.521  10.623  0.1171 -0.0572 -0.1699
 3545DOPE   GL241591  27.028  31.468  10.599 -0.1377  0.0461 -0.1388
 3545DOPE   C1A41592  27.402  31.485  11.089 -0.0897 -0.0845 -0.0606
 3545DOPE   D2A41593  27.236  31.291  11.510  0.0792  0.0574 -0.0909
 3545DOPE   C3A41594  27.057  30.926  11.796 -0.2460  0.1117  0.2119
 3545DOPE   C4A41595  26.866  30.531  11.783 -0.0148 -0.2518  0.2774
 3545DOPE   C1B41596  26.952  31.734  10.972  0.1607  0.0076 -0.1095
 3545DOPE   D2B41597  26.943  31.721  11.413 -0.0474  0.2180 -0.0549
 3545DOPE   C3B41598  26.821  31.498  11.759 -0.1121  0.1145 -0.2100
 3545DOPE   C4B41599  26.839  31.457  12.218 -0.1559  0.0880  0.0351
 3546DOPS   CNO41600  26.043  29.027   9.904  0.2440 -0.1171 -0.0950
 3546DOPS   PO441601  25.925  29.355  10.092 -0.2108  0.4751 -0.0644
 3546DOPS   GL141602  26.065  29.479  10.424 -0.1149 -0.1982  0.0095
 3546DOPS   GL241603  26.183  29.326  10.606 -0.2821  0.0848 -0.0334
 3546DOPS   C1A41604  25.939  29.906  10.546 -0.1549 -0.1855  0.0170
 3546DOPS   D2A41605  25.966  30.144  10.915  0.1416 -0.0061 -0.0555
 3546DOPS   C3A41606  25.738  30.011  11.288  0.0209  0.3575  0.1230
 3546DOPS   C4A41607  25.660  30.283  11.668  0.0040  0.1561 -0.0438
 3546DOPS   C1B41608  26.075  29.573  11.034  0.0447  0.2212 -0.2914
 3546DOPS   D2B41609  26.040  29.603  11.508  0.1687  0.0198  0.0577
 3546DOPS   C3B41610  26.101  30.031  11.695  0.0997 -0.0108 -0.1182
 3546DOPS   C4B41611  26.269  30.113  12.079  0.1376 -0.1760  0.4565
 3547DOPC   NC341612  26.142   0.068  10.136  0.0912 -0.1129 -0.0544
 3547DOPC   PO441613  26.306   0.330  10.352 -0.1807 -0.2219  0.2578
 3547DOPC   GL141614  26.141   0.412  10.668  0.0655  0.0134  0.0137
 3547DOPC   GL241615  26.190   0.649  10.826 -0.1114  0.1052 -0.0275
 3547DOPC   C1A41616  26.124   0.059  10.983 -0.0808  0.3682  0.3560
 3547DOPC   D2A41617  26.348  -0.056  11.327 -0.1571  0.2348  0.2111
 3547DOPC   C3A41618  26.545   0.261  11.623  0.2417  0.0031 -0.4663
 3547DOPC   C4A41619  26.954   0.324  11.843  0.1360 -0.0172  0.2787
 3547DOPC   C1B41620  26.227   0.483  11.267 -0.1302 -0.2278 -0.4414
 3547DOPC   D2B41621  26.079   0.227  11.610  0.1014  0.0768  0.0825
 3547DOPC   C3B41622  26.005   0.216  12.112  0.2557  0.2008 -0.1320
 3547DOPC   C4B41623  26.155   0.552  12.416  0.0890  0.5017  0.3031
 3548DOPE   NH341624  21.068  25.193  10.735  0.1602  0.2584  0.0139
 3548DOPE   PO441625  21.197  25.047  10.988  0.1805 -0.6021 -0.0029
 3548DOPE   GL141626  21.362  25.469  11.117  0.1156 -0.2396  0.1209
 3548DOPE   GL241627  21.483  25.292  11.393 -0.0152  0.4958 -0.0058
 3548DOPE   C1A41628  21.275  25.663  11.533 -0.2334 -0.0964  0.0808
 3548DOPE   D2A41629  21.023  25.742  11.876  0.1143  0.1453 -0.1813
 3548DOPE   C3A41630  20.796  26.138  11.753 -0.1207  0.1240 -0.2287
 3548DOPE   C4A41631  20.345  26.204  11.801  0.2891 -0.0919  0.1468
 3548DOPE   C1B41632  21.659  25.135  11.796 -0.1728  0.0092  0.0271
 3548DOPE   D2B41633  21.621  25.066  12.227 -0.1667  0.0341  0.1223
 3548DOPE   C3B41634  21.179  25.133  12.441 -0.0649  0.0806 -0.1744
 3548DOPE   C4B41635  20.832  25.463  12.477  0.1216 -0.1314  0.2330
 3549DOPE   NH341636  27.131  33.324   9.874  0.0059  0.1909  0.1457
 3549DOPE   PO441637  27.118  33.459  10.115  0.0292 -0.2021 -0.3445
 3549DOPE   GL141638  27.294  33.351  10.433 -0.2039  0.1213  0.1930
 3549DOPE   GL241639  27.201  33.607  10.588 -0.1961 -0.4429  0.5151
 3549DOPE   C1A41640  27.406  33.277  10.915 -0.2955 -0.0470  0.1790
 3549DOPE   D2A41641  27.432  33.088  11.334  0.0276 -0.1212 -0.2679
 3549DOPE   C3A41642  27.857  32.972  11.434 -0.1279  0.1562  0.2144
 3549DOPE   C4A41643  28.197  32.764  11.272  0.0392 -0.2202 -0.3086
 3549DOPE   C1B41644  27.358  33.821  10.960 -0.1313  0.0758  0.4209
 3549DOPE   D2B41645  27.652  33.881  11.241  0.2949 -0.0125 -0.3219
 3549DOPE   C3B41646  27.959  33.938  11.615 -0.2471 -0.0737  0.1433
 3549DOPE   C4B41647  28.250  33.807  11.937 -0.0970 -0.2353 -0.0404
 3550POSM   NC341648  32.351  29.944   9.205 -0.0713 -0.1242 -0.4790
 3550POSM   PO441649  32.544  29.700   9.446  0.2040  0.0880 -0.1125
 3550POSM   AM141650  32.427  29.779   9.740 -0.2718  0.3806  0.0711
 3550POSM   AM241651  32.255  29.981   9.792 -0.2526  0.0709  0.1453
 3550POSM   T1A41652  32.543  29.874  10.237  0.0600 -0.2566  0.0382
 3550POSM   C2A41653  32.684  29.982  10.690 -0.0056 -0.2166 -0.0744
 3550POSM   C3A41654  32.760  30.068  11.155 -0.1722  0.4080  0.3672
 3550POSM   C1B41655  31.979  29.831  10.014  0.2029 -0.2050 -0.1386
 3550POSM   D2B41656  31.734  29.619  10.386  0.0871  0.0076 -0.2243
 3550POSM   C3B41657  31.577  29.711  10.850  0.0223 -0.0318  0.0098
 3550POSM   C4B41658  31.505  29.642  11.282 -0.0731 -0.0749 -0.0043
 3551POSM   NC341659  30.342  33.851   9.546  0.3942 -0.2133 -0.3496
 3551POSM   PO441660  30.714  33.700   9.605  0.0872 -0.3016  0.0266
 3551POSM   AM141661  30.688  33.614   9.933  0.0734 -0.2374  0.0142
 3551POSM   AM241662  30.565  33.420  10.088 -0.1647  0.3333 -0.2598
 3551POSM   T1A41663  30.695  33.810  10.386  0.1804 -0.0535  0.0237
 3551POSM   C2A41664  30.653  34.115  10.709  0.3180 -0.3888  0.2183
 3551POSM   C3A41665  30.307  34.240  11.033 -0.1558 -0.0003  0.2489
 3551POSM   C1B41666  30.508  33.325  10.478 -0.3041 -0.0116  0.0103
 3551POSM   D2B41667  30.385  33.142  10.895 -0.0123  0.1099  0.0938
 3551POSM   C3B41668  30.072  33.352  11.139 -0.1920  0.1620 -0.1016
 3551POSM   C4B41669  29.622  33.147  11.218  0.2428 -0.2673  0.1201
 3552DOPC   NC341670  25.551  24.536  10.725 -0.2418 -0.1846  0.0341
 3552DOPC   PO441671  25.230  24.316  10.586  0.0981  0.2217 -0.0898
 3552DOPC   GL141672  25.359  23.996  10.886 -0.1336  0.1608 -0.3319
 3552DOPC   GL241673  25.598  23.988  11.048 -0.0368 -0.0446 -0.2208
 3552DOPC   C1A41674  25.252  23.710  11.228  0.2629  0.2452 -0.3701
 3552DOPC   D2A41675  25.301  23.262  11.408 -0.0047  0.1460 -0.1695
 3552DOPC   C3A41676  25.210  23.461  11.827  0.0788  0.1466 -0.3896
 3552DOPC   C4A41677  25.217  23.620  12.292 -0.1225 -0.4283 -0.2060
 3552DOPC   C1B41678  25.728  24.062  11.446  0.0483  0.2840 -0.1829
 3552DOPC   D2B41679  25.920  23.861  11.831 -0.6265  0.0393 -0.0865
 3552DOPC   C3B41680  26.069  24.140  12.204  0.0515  0.0507  0.4803
 3552DOPC   C4B41681  26.285  24.382  12.512  0.2393 -0.1943  0.0898
 3553DOPC   NC341682  27.843   0.487  10.578 -0.1415 -0.0193 -0.0833
 3553DOPC   PO441683  27.686   0.817  10.433 -0.2190  0.0031  0.0971
 3553DOPC   GL141684  27.841   0.868  10.813 -0.0338  0.4933  0.1750
 3553DOPC   GL241685  27.797   0.607  11.036 -0.0569 -0.1162 -0.2298
 3553DOPC   C1A41686  28.133   0.918  11.214 -0.0068 -0.0873 -0.0358
 3553DOPC   D2A41687  28.475   0.767  11.444 -0.5259 -0.5212 -0.0449
 3553DOPC   C3A41688  28.344   0.470  11.739  0.0065  0.2016  0.0399
 3553DOPC   C4A41689  28.650   0.226  11.980  0.0642  0.1867  0.1760
 3553DOPC   C1B41690  27.688   0.154  10.999 -0.0325 -0.0316 -0.0034
 3553DOPC   D2B41691  27.891  -0.260  11.245 -0.2678  0.4180  0.1988
 3553DOPC   C3B41692  27.851  -0.221  11.684  0.0398 -0.0236 -0.2451
 3553DOPC   C4B41693  28.018   0.095  12.000  0.2733  0.1179  0.1275
 3554DOPC   NC341694  25.109  33.385  10.413  0.0302  0.2663  0.0452
 3554DOPC   PO441695  25.418  33.574  10.439 -0.4812  0.2332  0.1160
 3554DOPC   GL141696  25.309  33.429  10.813  0.3575  0.0175 -0.1802
 3554DOPC   GL241697  25.420  33.575  11.062 -0.2114  0.1530  0.3042
 3554DOPC   C1A41698  25.406  33.137  11.158  0.0898  0.0692 -0.2548
 3554DOPC   D2A41699  25.485  32.849  11.489 -0.0349  0.0868 -0.3503
 3554DOPC   C3A41700  25.894  32.660  11.485 -0.3539  0.1560 -0.0016
 3554DOPC   C4A41701  26.077  32.338  11.746 -0.1191 -0.1920  0.1923
 3554DOPC   C1B41702  25.716  33.905  11.220 -0.1464  0.0121  0.1155
 3554DOPC   D2B41703  25.974  34.295  11.296 -0.2001 -0.1853 -0.1387
 3554DOPC   C3B41704  26.162  34.357  11.677  0.0462  0.0142  0.1399
 3554DOPC   C4B41705  26.413  34.051  11.947  0.1230 -0.2240  0.0820
 3555POSM   NC341706  25.854  25.664  10.921  0.0189 -0.2306  0.0514
 3555POSM   PO441707  25.713  25.969  10.664  0.1797 -0.1871  0.4212
 3555POSM   AM141708  25.689  26.128  10.929 -0.3510 -0.3162  0.3091
 3555POSM   AM241709  25.593  26.413  10.981 -0.0348 -0.0615 -0.1527
 3555POSM   T1A41710  25.950  26.409  11.300 -0.3340 -0.1669  0.1735
 3555POSM   C2A41711  26.147  26.206  11.656 -0.3236  0.0104  0.3328
 3555POSM   C3A41712  26.018  26.304  12.113 -0.1544 -0.3110 -0.2900
 3555POSM   C1B41713  25.404  26.315  11.224  0.0265  0.0693  0.1187
 3555POSM   D2B41714  25.161  26.260  11.617 -0.0253  0.2016  0.1357
 3555POSM   C3B41715  25.230  26.262  12.083  0.2406  0.0430 -0.0818
 3555POSM   C4B41716  25.540  26.336  12.386 -0.1941  0.1542  0.0915
 3556DOPC   NC341717  25.801  34.371  10.863 -0.0741  0.1999 -0.1775
 3556DOPC   PO441718  25.418  34.419  10.721 -0.0058  0.2152  0.0627
 3556DOPC   GL141719  25.443  34.172  10.984  0.2711  0.1935 -0.0610
 3556DOPC   GL241720  25.209  34.205  11.123  0.0042 -0.0765  0.3323
 3556DOPC   C1A41721  25.526  34.302  11.449 -0.1171 -0.0113 -0.1749
 3556DOPC   D2A41722  25.689  34.455  11.840 -0.2760  0.3797  0.1748
 3556DOPC   C3A41723  25.960  34.307  12.158  0.3869 -0.2905  0.0705
 3556DOPC   C4A41724  26.032  34.102  12.557 -0.0732 -0.1474  0.2109
 3556DOPC   C1B41725  24.895  34.279  11.448 -0.1941 -0.0949  0.1387
 3556DOPC   D2B41726  24.666  34.225  11.864 -0.1744  0.0020 -0.0393
 3556DOPC   C3B41727  24.898  33.988  12.163  0.0261 -0.1416  0.0994
 3556DOPC   C4B41728  24.893  33.590  12.411  0.2373 -0.3141 -0.0353
 3557POSM   NC341729  31.669  29.360   9.637  0.3435  0.1280  0.2167
 3557POSM   PO441730  31.622  29.709   9.496 -0.4982 -0.1868 -0.1416
 3557POSM   AM141731  31.516  29.763   9.784 -0.0484 -0.4401 -0.2302
 3557POSM   AM241732  31.329  29.629   9.917 -0.2763  0.0222 -0.0065
 3557POSM   T1A41733  31.475  30.072  10.197  0.2080 -0.1479 -0.0475
 3557POSM   C2A41734  31.231  30.352  10.456  0.1547 -0.0328  0.2857
 3557POSM   C3A41735  31.071  30.554  10.822 -0.0149  0.0215 -0.0123
 3557POSM   C1B41736  31.399  29.343  10.109  0.1131 -0.0746  0.0128
 3557POSM   D2B41737  31.335  29.177  10.538  0.0084 -0.0684  0.3436
 3557POSM   C3B41738  31.467  29.219  10.973  0.2109 -0.1495  0.1354
 3557POSM   C4B41739  31.604  29.081  11.307 -0.5227 -0.0683  0.1181
 3558DOPS   CNO41740  28.461  27.303  10.260 -0.0184  0.0691 -0.1578
 3558DOPS   PO441741  28.670  27.611  10.135 -0.0274 -0.2878 -0.1685
 3558DOPS   GL141742  28.612  27.686  10.528 -0.0373  0.0719  0.1664
 3558DOPS   GL241743  28.319  27.675  10.590 -0.0316  0.0168  0.0064
 3558DOPS   C1A41744  28.660  27.358  10.814  0.2358 -0.0233 -0.0664
 3558DOPS   D2A41745  28.865  27.180  11.172  0.0118  0.1528 -0.0457
 3558DOPS   C3A41746  29.183  27.347  11.485 -0.0125 -0.2330  0.2066
 3558DOPS   C4A41747  29.642  27.458  11.531  0.0122  0.1883 -0.3271
 3558DOPS   C1B41748  28.479  27.895  10.905  0.1660 -0.0208 -0.1458
 3558DOPS   D2B41749  28.619  28.119  11.211 -0.1413  0.1167 -0.4835
 3558DOPS   C3B41750  29.017  28.132  11.387 -0.0526 -0.1457 -0.1021
 3558DOPS   C4B41751  29.463  28.086  11.300  0.1000  0.1147  0.4056
 3559DOPC   NC341752  26.890  32.487  10.492  0.0237 -0.0106  0.0847
 3559DOPC   PO441753  27.084  32.440  10.192 -0.1495 -0.0437  0.0056
 3559DOPC   GL141754  27.326  32.319  10.627 -0.1245 -0.1367 -0.0477
 3559DOPC   GL241755  27.347  31.996  10.634  0.2079  0.0121 -0.2289
 3559DOPC   C1A41756  27.099  32.308  11.034  0.2399  0.2148 -0.1920
 3559DOPC   D2A41757  26.920  32.270  11.455 -0.0327 -0.0593 -0.1556
 3559DOPC   C3A41758  27.206  32.230  11.774 -0.0455  0.0563 -0.0229
 3559DOPC   C4A41759  27.480  32.455  12.082 -0.4098 -0.1161 -0.1913
 3559DOPC   C1B41760  27.534  31.987  11.048 -0.1124 -0.0068 -0.1153
 3559DOPC   D2B41761  27.413  31.881  11.450 -0.1146  0.2733  0.1503
 3559DOPC   C3B41762  27.762  31.733  11.729  0.0278  0.1334  0.0788
 3559DOPC   C4B41763  28.208  31.506  11.800  0.0194  0.0744  0.0567
 3560DOPS   CNO41764  23.161   0.078  10.632  0.0523  0.0336 -0.0057
 3560DOPS   PO441765  22.963  -0.218  10.745 -0.1141  0.0702 -0.1306
 3560DOPS   GL141766  23.042  -0.100  11.107  0.1414 -0.2209  0.4307
 3560DOPS   GL241767  22.831  -0.024  11.247  0.0474  0.0015  0.3633
 3560DOPS   C1A41768  23.334  -0.157  11.455  0.1323  0.3061 -0.3985
 3560DOPS   D2A41769  23.438   0.113  11.828  0.2482 -0.0698 -0.2318
 3560DOPS   C3A41770  23.340  -0.060  12.190 -0.2322  0.0725 -0.0992
 3560DOPS   C4A41771  23.080  -0.048  12.612  0.0327  0.0085  0.1433
 3560DOPS   C1B41772  22.895  -0.328  11.557 -0.0850  0.4003 -0.0269
 3560DOPS   D2B41773  22.835  -0.695  11.822  0.1539  0.1542  0.2039
 3560DOPS   C3B41774  22.742  -1.107  11.980  0.1697 -0.1964  0.0235
 3560DOPS   C4B41775  22.402  -1.260  12.206  0.1352 -0.1571  0.0126
 3561DOPE   NH341776  24.202  32.457   9.973  0.0691  0.1213 -0.2131
 3561DOPE   PO441777  24.497  32.473  10.121 -0.1273 -0.1500 -0.0023
 3561DOPE   GL141778  24.692  32.581  10.447  0.3090  0.0532 -0.5169
 3561DOPE   GL241779  24.586  32.816  10.647 -0.4219  0.1082  0.1195
 3561DOPE   C1A41780  24.933  32.489  10.866 -0.1428 -0.2305 -0.0039
 3561DOPE   D2A41781  25.077  32.721  11.246 -0.0840 -0.2678 -0.0735
 3561DOPE   C3A41782  25.031  32.573  11.678  0.1169 -0.2091  0.0273
 3561DOPE   C4A41783  24.779  32.510  12.032  0.2614  0.1217 -0.2579
 3561DOPE   C1B41784  24.596  32.782  11.096 -0.0710 -0.0608 -0.1298
 3561DOPE   D2B41785  24.615  32.904  11.541  0.2111 -0.1232  0.0177
 3561DOPE   C3B41786  24.353  32.782  11.929 -0.1241  0.0659 -0.0045
 3561DOPE   C4B41787  24.167  32.750  12.351  0.0505 -0.0102  0.1292
 3562DOPE   NH341788   1.231  26.514   9.492 -0.0749 -0.4350 -0.1292
 3562DOPE   PO441789   1.026  26.276   9.540  0.0236 -0.0682  0.0419
 3562DOPE   GL141790   0.771  26.095   9.674  0.0099  0.0167  0.1109
 3562DOPE   GL241791   0.794  25.840   9.886 -0.1356  0.4997  0.0145
 3562DOPE   C1A41792   0.312  26.092   9.804 -0.0766 -0.3333 -0.0076
 3562DOPE   D2A41793  -0.044  25.969  10.020 -0.0245  0.0219 -0.0298
 3562DOPE   C3A41794  -0.297  26.119  10.362 -0.1801 -0.1669  0.2694
 3562DOPE   C4A41795  -0.439  26.076  10.767  0.2743  0.3826 -0.1454
 3562DOPE   C1B41796   0.860  26.060  10.245 -0.0303  0.2345 -0.2371
 3562DOPE   D2B41797   0.746  26.202  10.665 -0.0640 -0.2982 -0.1490
 3562DOPE   C3B41798   0.833  26.684  10.628 -0.1391 -0.0335 -0.0086
 3562DOPE   C4B41799   0.729  27.109  10.673  0.1041  0.1103 -0.1060
 3563DOPE   NH341800  25.570  28.468  10.226 -0.1083  0.3214  0.0771
 3563DOPE   PO441801  25.471  28.178  10.321  0.0409 -0.0279  0.4679
 3563DOPE   GL141802  25.293  28.356  10.703 -0.3357 -0.0345 -0.4461
 3563DOPE   GL241803  25.407  28.097  10.899  0.1042  0.2109 -0.3427
 3563DOPE   C1A41804  25.379  28.523  11.114 -0.0693 -0.0046  0.1809
 3563DOPE   D2A41805  25.476  28.594  11.605  0.1037  0.2893 -0.0747
 3563DOPE   C3A41806  25.166  28.909  11.692  0.0011  0.2444 -0.0684
 3563DOPE   C4A41807  24.906  28.941  12.121 -0.0868 -0.1997 -0.3715
 3563DOPE   C1B41808  25.660  28.173  11.312  0.1466 -0.1881  0.2155
 3563DOPE   D2B41809  25.524  28.121  11.701  0.1073 -0.3018  0.2177
 3563DOPE   C3B41810  25.746  28.457  12.007 -0.2006  0.3024 -0.1394
 3563DOPE   C4B41811  26.003  28.791  12.131 -0.0637  0.0628 -0.1395
 3564DOPC   NC341812  26.593  25.546  10.270  0.0975 -0.1328 -0.2557
 3564DOPC   PO441813  26.457  25.186  10.317 -0.1609 -0.0496  0.3618
 3564DOPC   GL141814  26.697  25.153  10.571 -0.1379  0.3779  0.0442
 3564DOPC   GL241815  26.557  24.942  10.761  0.0084  0.0412  0.1022
 3564DOPC   C1A41816  27.043  25.271  10.917 -0.1007  0.1470 -0.1009
 3564DOPC   D2A41817  27.462  25.372  11.022 -0.0701  0.2493  0.1622
 3564DOPC   C3A41818  27.520  25.761  11.164 -0.2960  0.1532 -0.2642
 3564DOPC   C4A41819  27.461  25.930  11.558  0.0605  0.0434  0.3375
 3564DOPC   C1B41820  26.745  24.946  11.211 -0.1815 -0.2690 -0.0259
 3564DOPC   D2B41821  26.964  24.609  11.466  0.1077  0.0199  0.0965
 3564DOPC   C3B41822  26.891  24.515  11.954  0.2030 -0.0052 -0.0239
 3564DOPC   C4B41823  26.924  24.741  12.365 -0.0621 -0.1847  0.1321
 3565DOPS   CNO41824   1.027  31.558   9.714 -0.0611 -0.2932 -0.2604
 3565DOPS   PO441825   0.711  31.343   9.750  0.0312 -0.0315  0.2784
 3565DOPS   GL141826   0.807  31.348  10.148  0.2628 -0.1929  0.0578
 3565DOPS   GL241827   1.069  31.196  10.183 -0.3693 -0.1518  0.0204
 3565DOPS   C1A41828   0.616  31.329  10.620 -0.2362  0.2180 -0.0213
 3565DOPS   D2A41829   0.652  31.297  11.076 -0.0242  0.1747  0.0223
 3565DOPS   C3A41830   0.885  31.141  11.503 -0.0367  0.3348 -0.3000
 3565DOPS   C4A41831   0.836  31.325  11.943  0.1664  0.0737 -0.0308
 3565DOPS   C1B41832   0.673  30.934  10.325  0.1122 -0.0131  0.3512
 3565DOPS   D2B41833   0.304  30.817  10.530  0.0566 -0.0250 -0.2198
 3565DOPS   C3B41834   0.382  30.895  10.940  0.2304 -0.0582 -0.0086
 3565DOPS   C4B41835   0.253  31.110  11.329  0.1383 -0.0528  0.0038
 3566DOPS   CNO41836  28.872   0.345   9.941 -0.1576  0.2560  0.3888
 3566DOPS   PO441837  28.657   0.053  10.066  0.1302 -0.2610  0.2607
 3566DOPS   GL141838  28.754  -0.080  10.426  0.4249  0.1864  0.2688
 3566DOPS   GL241839  29.021   0.053  10.424 -0.1816  0.0633  0.0681
 3566DOPS   C1A41840  28.652  -0.488  10.628  0.1176 -0.1127 -0.0750
 3566DOPS   D2A41841  28.663  -0.778  10.949  0.0414  0.1405 -0.0417
 3566DOPS   C3A41842  28.899  -0.672  11.300 -0.0796 -0.1798  0.2645
 3566DOPS   C4A41843  29.227  -0.723  11.646  0.0292 -0.1910 -0.1922
 3566DOPS   C1B41844  28.900   0.344  10.787  0.4390  0.2274 -0.0096
 3566DOPS   D2B41845  28.878   0.431  11.257 -0.1610 -0.0966 -0.2083
 3566DOPS   C3B41846  29.188   0.212  11.545 -0.0428  0.0854 -0.0327
 3566DOPS   C4B41847  29.570   0.146  11.823  0.1043 -0.0090  0.0808
 3567DOPC   NC341848  28.964  33.043  10.013  0.1074  0.0190 -0.0521
 3567DOPC   PO441849  29.034  32.650   9.950  0.2512 -0.1293  0.1642
 3567DOPC   GL141850  28.725  32.657  10.274  0.0637 -0.1022  0.4937
 3567DOPC   GL241851  28.485  32.878  10.181  0.0632 -0.0316  0.2287
 3567DOPC   C1A41852  28.849  32.627  10.702  0.0269 -0.1132  0.1384
 3567DOPC   D2A41853  29.150  32.610  11.082 -0.0550  0.3119  0.1546
 3567DOPC   C3A41854  29.134  32.940  11.397  0.1588 -0.0846 -0.3061
 3567DOPC   C4A41855  29.518  32.870  11.657  0.0915 -0.1875 -0.1250
 3567DOPC   C1B41856  28.231  32.951  10.558  0.1454 -0.0023 -0.0049
 3567DOPC   D2B41857  28.255  33.153  10.955 -0.0204 -0.1432 -0.1449
 3567DOPC   C3B41858  28.625  33.473  11.108 -0.1947 -0.1450 -0.2788
 3567DOPC   C4B41859  28.893  33.490  11.440 -0.1811 -0.0975  0.0193
 3568DOPS   CNO41860  25.825  26.812  10.600 -0.2161 -0.3332  0.2193
 3568DOPS   PO441861  25.845  26.446  10.497  0.0024 -0.1461  0.1193
 3568DOPS   GL141862  26.068  26.435  10.846  0.2010 -0.0980 -0.0927
 3568DOPS   GL241863  26.132  26.123  10.891  0.1561  0.0009  0.0206
 3568DOPS   C1A41864  26.495  26.519  11.029  0.0510  0.1703  0.1530
 3568DOPS   D2A41865  26.496  26.664  11.518  0.0564 -0.0440  0.1889
 3568DOPS   C3A41866  26.679  27.092  11.498 -0.1204  0.1724 -0.1499
 3568DOPS   C4A41867  26.572  27.498  11.639 -0.2162 -0.1809 -0.0201
 3568DOPS   C1B41868  26.251  25.920  11.227 -0.0861 -0.0999  0.1358
 3568DOPS   D2B41869  26.508  25.821  11.631 -0.1814 -0.0064 -0.0337
 3568DOPS   C3B41870  26.949  25.784  11.731 -0.0272  0.0641  0.1939
 3568DOPS   C4B41871  27.184  25.430  11.907 -0.1199  0.2330 -0.1651
 3569DOPS   CNO41872  24.193  30.037   9.955  0.0327 -0.1808 -0.4800
 3569DOPS   PO441873  24.209  29.676  10.070 -0.2335 -0.1693  0.2032
 3569DOPS   GL141874  24.192  29.804  10.491  0.1898 -0.2164 -0.2206
 3569DOPS   GL241875  24.026  29.546  10.579 -0.0829  0.0990 -0.0682
 3569DOPS   C1A41876  24.449  29.718  10.912  0.2194 -0.1333 -0.1277
 3569DOPS   D2A41877  24.321  29.929  11.321 -0.0160 -0.1244  0.1106
 3569DOPS   C3A41878  24.411  29.640  11.610  0.1007 -0.0601 -0.0119
 3569DOPS   C4A41879  24.231  29.239  11.697  0.0183  0.0928 -0.1702
 3569DOPS   C1B41880  24.357  29.188  10.740 -0.0307  0.1836  0.1211
 3569DOPS   D2B41881  24.750  29.199  10.832 -0.1476 -0.0192  0.1341
 3569DOPS   C3B41882  24.882  28.759  10.924  0.0692  0.3223  0.3487
 3569DOPS   C4B41883  24.872  28.556  11.352 -0.1171  0.0789 -0.0630
 3570DOPC   NC341884  23.277  32.953  10.627 -0.0745  0.3402 -0.2052
 3570DOPC   PO441885  22.930  32.941  10.438  0.0031 -0.1201  0.0301
 3570DOPC   GL141886  22.842  32.823  10.749  0.1346 -0.1954  0.1194
 3570DOPC   GL241887  22.777  33.060  10.886  0.2002  0.3695 -0.1521
 3570DOPC   C1A41888  23.032  32.637  11.111  0.0126  0.0972 -0.0244
 3570DOPC   D2A41889  22.892  32.291  11.424  0.0608  0.0612  0.0732
 3570DOPC   C3A41890  22.594  32.522  11.720 -0.0009 -0.0410 -0.0325
 3570DOPC   C4A41891  22.157  32.529  11.892  0.2649  0.0521  0.0980
 3570DOPC   C1B41892  22.344  33.240  10.956 -0.3309  0.1300 -0.0734
 3570DOPC   D2B41893  21.872  33.139  11.078 -0.2527 -0.5419 -0.1786
 3570DOPC   C3B41894  21.900  33.344  11.494  0.1589 -0.1459  0.1046
 3570DOPC   C4B41895  21.995  33.611  11.909  0.0446 -0.0807 -0.1638
 3571DOPE   NH341896  32.770  25.231   9.237 -0.0551  0.0370 -0.0697
 3571DOPE   PO441897  32.592  25.428   9.439  0.2946  0.1897  0.0176
 3571DOPE   GL141898  32.445  25.502   9.804  0.1901 -0.3160  0.1027
 3571DOPE   GL241899  32.661  25.567  10.005  0.0765  0.0606  0.0697
 3571DOPE   C1A41900  32.059  25.580  10.058 -0.1078  0.1901 -0.2894
 3571DOPE   D2A41901  31.942  25.652  10.463 -0.1146  0.0480  0.0932
 3571DOPE   C3A41902  31.928  25.709  10.890 -0.1426  0.0622  0.2327
 3571DOPE   C4A41903  32.216  25.708  11.296 -0.1204 -0.1144 -0.1595
 3571DOPE   C1B41904  32.827  25.346  10.371 -0.2876  0.4516  0.0858
 3571DOPE   D2B41905  32.732  25.161  10.768  0.0212  0.1183 -0.0663
 3571DOPE   C3B41906  32.871  24.757  10.929  0.0566  0.0599 -0.1027
 3571DOPE   C4B41907  33.014  24.314  11.055 -0.0288  0.2328 -0.0138
 3572DOPE   NH341908  22.259   2.102   9.830 -0.0030 -0.1739 -0.5228
 3572DOPE   PO441909  22.447   2.179  10.062  0.1322 -0.1460  0.4342
 3572DOPE   GL141910  22.623   2.092  10.388  0.1001 -0.2257 -0.0895
 3572DOPE   GL241911  22.426   1.920  10.514  0.0387 -0.2715 -0.1054
 3572DOPE   C1A41912  22.664   2.401  10.773  0.1085  0.0696 -0.0108
 3572DOPE   D2A41913  22.715   2.676  11.169  0.2252  0.2522  0.1318
 3572DOPE   C3A41914  22.434   2.902  11.456  0.0800  0.0342 -0.1997
 3572DOPE   C4A41915  22.226   2.752  11.880  0.1266 -0.1924  0.0013
 3572DOPE   C1B41916  22.371   2.049  10.968  0.0730 -0.2609  0.1003
 3572DOPE   D2B41917  22.305   2.328  11.332 -0.2164 -0.0007  0.0034
 3572DOPE   C3B41918  22.589   2.430  11.675  0.2260 -0.0528  0.1282
 3572DOPE   C4B41919  22.902   2.220  11.941 -0.1193 -0.1154  0.0359
 3573POSM   NC341920  27.262  28.545   9.964  0.2660 -0.0725 -0.0627
 3573POSM   PO441921  27.597  28.380  10.051 -0.1253 -0.1389 -0.0335
 3573POSM   AM141922  27.443  28.290  10.304 -0.1721  0.1935  0.1264
 3573POSM   AM241923  27.277  28.428  10.483 -0.1820  0.1573  0.0969
 3573POSM   T1A41924  27.191  27.958  10.549  0.1960  0.1696  0.0747
 3573POSM   C2A41925  26.988  27.664  10.864 -0.0729  0.1482 -0.2886
 3573POSM   C3A41926  27.037  27.540  11.333 -0.1669 -0.1871  0.1743
 3573POSM   C1B41927  27.402  28.558  10.739  0.0577  0.0264 -0.2057
 3573POSM   D2B41928  27.639  28.745  11.045 -0.0038  0.0386 -0.4403
 3573POSM   C3B41929  27.701  29.008  11.415 -0.0293  0.1270 -0.1380
 3573POSM   C4B41930  27.771  29.423  11.501 -0.0617  0.0701  0.0270
 3574DOPS   CNO41931  31.029  32.918  10.084  0.0944 -0.1828 -0.1886
 3574DOPS   PO441932  31.317  33.182   9.986 -0.2018  0.0842 -0.1084
 3574DOPS   GL141933  31.360  33.327  10.298  0.1619  0.1701 -0.0854
 3574DOPS   GL241934  31.681  33.326  10.272 -0.3929  0.0892 -0.4019
 3574DOPS   C1A41935  30.979  33.266  10.526  0.5108 -0.0636 -0.1540
 3574DOPS   D2A41936  30.773  33.373  10.930  0.4454  0.1217 -0.0838
 3574DOPS   C3A41937  31.153  33.316  11.198  0.2249  0.4419  0.0744
 3574DOPS   C4A41938  31.433  33.609  11.335  0.0131 -0.1411 -0.0628
 3574DOPS   C1B41939  31.499  33.135  10.690 -0.1159 -0.1920 -0.0228
 3574DOPS   D2B41940  31.518  32.953  11.140 -0.1634  0.0462  0.0655
 3574DOPS   C3B41941  31.701  33.205  11.485  0.1654  0.0085  0.1450
 3574DOPS   C4B41942  31.635  33.487  11.908 -0.2080  0.3820 -0.1653
 3575DOPC   NC341943  28.698  26.631  10.085 -0.0453  0.1194 -0.1803
 3575DOPC   PO441944  28.738  26.969  10.004  0.0204  0.0398 -0.3980
 3575DOPC   GL141945  28.831  27.012  10.410 -0.0338 -0.2471 -0.3040
 3575DOPC   GL241946  28.925  27.268  10.420 -0.1620 -0.3416  0.0225
 3575DOPC   C1A41947  29.068  26.872  10.821 -0.0374  0.2093  0.2298
 3575DOPC   D2A41948  29.379  27.053  11.145 -0.2129 -0.0661  0.1518
 3575DOPC   C3A41949  29.552  26.959  11.566 -0.0227  0.2397 -0.0034
 3575DOPC   C4A41950  29.475  27.027  12.003  0.0422  0.3707  0.2878
 3575DOPC   C1B41951  29.168  27.406  10.794  0.2695 -0.3582 -0.0924
 3575DOPC   D2B41952  29.443  27.641  11.101 -0.0955  0.0682  0.1519
 3575DOPC   C3B41953  29.928  27.630  11.090 -0.2251  0.1174  0.0428
 3575DOPC   C4B41954  30.236  27.631  11.448 -0.0627  0.2523 -0.1160
 3576DOPE   NH341955  22.026  22.796  10.726 -0.0723  0.1661  0.3247
 3576DOPE   PO441956  21.994  23.065  10.907  0.2122 -0.0751 -0.3786
 3576DOPE   GL141957  21.874  23.154  11.255  0.1439 -0.1408  0.0525
 3576DOPE   GL241958  22.027  23.393  11.308 -0.0927 -0.0907 -0.2358
 3576DOPE   C1A41959  21.499  22.920  11.453  0.0280 -0.0762 -0.0672
 3576DOPE   D2A41960  21.294  22.638  11.771  0.1795 -0.0844  0.1190
 3576DOPE   C3A41961  21.663  22.466  11.992  0.1588 -0.1588  0.1119
 3576DOPE   C4A41962  21.872  22.091  12.187  0.2117 -0.0455  0.1737
 3576DOPE   C1B41963  22.376  23.159  11.457 -0.1715  0.0899  0.2621
 3576DOPE   D2B41964  22.519  22.763  11.409  0.1332  0.0117  0.0656
 3576DOPE   C3B41965  22.692  22.509  11.750 -0.0292 -0.0610  0.0710
 3576DOPE   C4B41966  22.946  22.177  11.825  0.0124  0.0654  0.1207
 3577DOPS   CNO41967  26.618  26.888   9.991  0.0889  0.0888 -0.1074
 3577DOPS   PO441968  26.689  26.769  10.350 -0.0755 -0.2173  0.0177
 3577DOPS   GL141969  26.812  26.603  10.727  0.2868 -0.2879 -0.1568
 3577DOPS   GL241970  26.954  26.848  10.746 -0.0653 -0.0320  0.3258
 3577DOPS   C1A41971  26.928  26.471  11.190  0.0775 -0.0261  0.1688
 3577DOPS   D2A41972  26.711  26.200  11.475 -0.2672 -0.0443 -0.0093
 3577DOPS   C3A41973  26.650  26.266  11.925 -0.2551  0.3209 -0.1478
 3577DOPS   C4A41974  26.382  26.671  12.114  0.3503 -0.0391  0.2505
 3577DOPS   C1B41975  27.368  26.722  10.940  0.1073  0.0029 -0.0544
 3577DOPS   D2B41976  27.772  26.682  11.215 -0.0001  0.2219  0.0585
 3577DOPS   C3B41977  27.858  26.899  11.602  0.0703 -0.0775 -0.3493
 3577DOPS   C4B41978  28.013  27.127  11.989  0.0941 -0.0110  0.1399
 3578DOPS   CNO41979  28.690  29.889   9.931  0.0438  0.1394 -0.2319
 3578DOPS   PO441980  28.467  29.993  10.248 -0.0200 -0.0085  0.1701
 3578DOPS   GL141981  28.343  30.135  10.605 -0.1033  0.1109 -0.2449
 3578DOPS   GL241982  28.107  30.001  10.738  0.1288  0.1614 -0.0964
 3578DOPS   C1A41983  28.486  29.979  11.029  0.0596 -0.0055 -0.2746
 3578DOPS   D2A41984  28.889  29.950  11.257  0.1206 -0.1061 -0.1335
 3578DOPS   C3A41985  29.382  30.069  11.356  0.3621  0.3303 -0.0368
 3578DOPS   C4A41986  29.730  30.187  11.623 -0.1426  0.0291  0.3614
 3578DOPS   C1B41987  28.110  30.305  11.105  0.0103 -0.1008  0.1440
 3578DOPS   D2B41988  28.111  30.375  11.557 -0.0603 -0.2804  0.2575
 3578DOPS   C3B41989  28.340  30.764  11.696 -0.1493  0.1915  0.1423
 3578DOPS   C4B41990  28.500  31.153  11.884 -0.1074 -0.0467  0.3116
 3579DOPE   NH341991  23.189  34.277  10.348 -0.1265  0.1547 -0.5465
 3579DOPE   PO441992  23.426  34.368  10.470 -0.0741  0.1169  0.0479
 3579DOPE   GL141993  23.306  34.223  10.876 -0.1098  0.1265  0.2042
 3579DOPE   GL241994  23.535  34.034  11.013 -0.2193 -0.0340 -0.0799
 3579DOPE   C1A41995  22.953  34.009  11.131  0.0472 -0.1143  0.0302
 3579DOPE   D2A41996  22.598  33.681  11.157 -0.1994 -0.2522 -0.0477
 3579DOPE   C3A41997  22.162  33.668  11.221  0.1251 -0.0564 -0.1624
 3579DOPE   C4A41998  21.736  33.674  11.078 -0.0940  0.0983 -0.2449
 3579DOPE   C1B41999  23.318  33.940  11.486  0.1109  0.0520 -0.4782
 3579DOPE   D2B42000  23.261  34.210  11.853 -0.0342 -0.0938  0.0320
 3579DOPE   C3B42001  23.639  34.191  12.103  0.3317  0.4163 -0.2868
 3579DOPE   C4B42002  24.099  34.175  12.271  0.1922  0.0356  0.0781
 3580DOPE   NH342003  25.484  29.210   9.921  0.1341  0.0863  0.2299
 3580DOPE   PO442004  25.555  28.974  10.109 -0.0650  0.0798 -0.0669
 3580DOPE   GL142005  25.773  29.033  10.404 -0.0313  0.2345 -0.0605
 3580DOPE   GL242006  26.017  28.918  10.354 -0.1356  0.1635  0.1700
 3580DOPE   C1A42007  25.790  29.139  10.907  0.0791  0.0048 -0.1262
 3580DOPE   D2A42008  25.625  28.943  11.288 -0.0359 -0.2677 -0.1266
 3580DOPE   C3A42009  25.585  29.203  11.610  0.0540  0.1390 -0.0024
 3580DOPE   C4A42010  25.177  29.470  11.639  0.3012  0.0791  0.2040
 3580DOPE   C1B42011  26.252  28.653  10.599  0.0391 -0.0406  0.1643
 3580DOPE   D2B42012  26.372  28.338  10.977  0.1158 -0.2991 -0.0275
 3580DOPE   C3B42013  26.496  28.420  11.422 -0.0008 -0.3997  0.2750
 3580DOPE   C4B42014  26.902  28.412  11.590 -0.2006 -0.0457 -0.0481
 3581POSM   NC342015   0.419  24.349   9.629  0.2673 -0.3207  0.0667
 3581POSM   PO442016   0.254  24.665   9.523 -0.1341  0.1075  0.4513
 3581POSM   AM142017   0.124  24.662   9.840 -0.3034 -0.0751  0.2387
 3581POSM   AM242018   0.166  24.462  10.033  0.6027 -0.3537 -0.0135
 3581POSM   T1A42019   0.013  24.871  10.277 -0.2630 -0.1126  0.0088
 3581POSM   C2A42020  -0.075  25.141  10.640  0.2442  0.0334 -0.1190
 3581POSM   C3A42021  -0.174  25.168  11.095 -0.0057  0.3765 -0.0839
 3581POSM   C1B42022   0.357  24.385  10.284  0.1020  0.2266 -0.1072
 3581POSM   D2B42023   0.754  24.209  10.507 -0.0891 -0.5267 -0.0233
 3581POSM   C3B42024   0.793  24.399  10.917  0.1287 -0.2184 -0.2179
 3581POSM   C4B42025   0.783  24.265  11.329  0.0983  0.0020  0.1166
 3582DOPC   NC342026  27.591  27.839  10.262  0.0206 -0.2012 -0.0221
 3582DOPC   PO442027  27.901  28.043  10.307 -0.1609  0.2942  0.1731
 3582DOPC   GL142028  27.945  27.916  10.677  0.1717 -0.1069  0.1903
 3582DOPC   GL242029  27.776  28.136  10.784  0.0892 -0.1625  0.1788
 3582DOPC   C1A42030  28.042  27.637  11.034 -0.1505 -0.0879 -0.0855
 3582DOPC   D2A42031  28.020  27.408  11.453 -0.1701 -0.0625  0.3723
 3582DOPC   C3A42032  27.596  27.366  11.749 -0.2267  0.0560  0.4631
 3582DOPC   C4A42033  27.379  27.005  12.019  0.0727 -0.2547 -0.2912
 3582DOPC   C1B42034  28.089  28.156  11.169  0.0191  0.2200 -0.0471
 3582DOPC   D2B42035  28.259  27.815  11.432  0.0696  0.0431  0.0751
 3582DOPC   C3B42036  28.687  27.790  11.622 -0.2120 -0.3554 -0.1718
 3582DOPC   C4B42037  29.116  27.738  11.895  0.1223  0.6590 -0.0100
 3583DOPC   NC342038  27.429  32.057  10.181 -0.0923 -0.2691  0.3007
 3583DOPC   PO442039  27.054  31.902  10.194  0.0411  0.0667 -0.0203
 3583DOPC   GL142040  26.729  31.919  10.457 -0.3673  0.2434  0.0088
 3583DOPC   GL242041  26.831  32.016  10.606 -0.1645  0.2971 -0.4700
 3583DOPC   C1A42042  26.439  31.794  10.818 -0.0605  0.3062  0.1324
 3583DOPC   D2A42043  26.555  31.481  11.145 -0.0141 -0.0310  0.2352
 3583DOPC   C3A42044  26.397  31.505  11.554  0.3821 -0.0439 -0.0622
 3583DOPC   C4A42045  26.188  31.355  11.958 -0.3324  0.0458  0.0301
 3583DOPC   C1B42046  26.594  32.212  11.002 -0.0381 -0.1021 -0.0002
 3583DOPC   D2B42047  26.374  32.076  11.359 -0.1865  0.4768 -0.0773
 3583DOPC   C3B42048  26.644  32.104  11.798  0.1899 -0.3443 -0.4359
 3583DOPC   C4B42049  26.996  31.941  12.133  0.3203 -0.0399 -0.0364
 3584DOPE   NH342050  29.357   1.965  10.210 -0.0296  0.2679  0.0078
 3584DOPE   PO442051  29.453   1.693  10.369 -0.0214 -0.0043  0.2672
 3584DOPE   GL142052  29.492   1.758  10.646  0.0244  0.0366 -0.0755
 3584DOPE   GL242053  29.790   1.695  10.723  0.1094  0.1298  0.0791
 3584DOPE   C1A42054  29.540   2.038  10.949  0.2316  0.0474 -0.0049
 3584DOPE   D2A42055  29.520   2.252  11.336 -0.1976 -0.0379  0.1314
 3584DOPE   C3A42056  29.221   2.342  11.650  0.1692  0.1242 -0.2445
 3584DOPE   C4A42057  28.943   2.243  11.978  0.0582 -0.6247  0.2037
 3584DOPE   C1B42058  29.883   1.707  11.139 -0.0140  0.1899 -0.1089
 3584DOPE   D2B42059  29.823   1.881  11.604 -0.0201 -0.0798 -0.2760
 3584DOPE   C3B42060  30.129   1.703  11.874 -0.0512 -0.1233 -0.0271
 3584DOPE   C4B42061  30.467   1.759  12.191 -0.3239  0.1153 -0.0864
 3585POSM   NC342062  30.118   1.805   9.869 -0.0120  0.0048 -0.0066
 3585POSM   PO442063  29.898   2.038  10.114 -0.1433  0.0416  0.0061
 3585POSM   AM142064  30.115   2.007  10.331  0.5939 -0.1651  0.1385
 3585POSM   AM242065  30.315   2.125  10.456  0.0126 -0.3347 -0.2367
 3585POSM   T1A42066  30.294   1.819  10.768 -0.3318 -0.1800  0.1908
 3585POSM   C2A42067  30.376   1.401  11.038  0.0129 -0.2030 -0.0965
 3585POSM   C3A42068  30.396   0.890  10.958 -0.1076 -0.2700 -0.0541
 3585POSM   C1B42069  30.187   2.436  10.579 -0.1064 -0.0050  0.1858
 3585POSM   D2B42070  30.141   2.898  10.733  0.4338 -0.1713  0.1833
 3585POSM   C3B42071  29.961   3.011  11.115 -0.1368 -0.0101  0.0807
 3585POSM   C4B42072  30.030   3.024  11.587  0.0178 -0.4915  0.0000
 3586DOPE   NH342073  27.368  34.422  10.177  0.1411  0.1374  0.0070
 3586DOPE   PO442074  27.674  34.493  10.167  0.2062 -0.2430  0.5065
 3586DOPE   GL142075  27.736  34.705  10.537 -0.6128  0.0896 -0.3221
 3586DOPE   GL242076  27.557  34.507  10.654 -0.0476  0.0365 -0.1530
 3586DOPE   C1A42077  28.085  34.618  10.809 -0.2659  0.0555  0.0567
 3586DOPE   D2A42078  28.541  34.659  10.979 -0.1448 -0.1247  0.2044
 3586DOPE   C3A42079  28.830  34.522  11.285 -0.0359 -0.0656  0.4533
 3586DOPE   C4A42080  28.867  34.291  11.705 -0.0077 -0.2187  0.0530
 3586DOPE   C1B42081  27.398  34.373  11.096  0.0903 -0.0802 -0.3725
 3586DOPE   D2B42082  27.256  34.594  11.452  0.1995  0.3117  0.0919
 3586DOPE   C3B42083  27.532  34.944  11.610  0.0312  0.2802 -0.1698
 3586DOPE   C4B42084  27.856  35.168  11.767 -0.1180 -0.1550 -0.0949
 3587DOPC   NC342085  29.120  30.489   9.994  0.0964 -0.2095 -0.2261
 3587DOPC   PO442086  29.337  30.341  10.259  0.0110 -0.0338  0.0800
 3587DOPC   GL142087  29.379  30.290  10.636  0.3644  0.0757  0.3760
 3587DOPC   GL242088  29.624  30.520  10.634 -0.1009 -0.1061  0.2422
 3587DOPC   C1A42089  29.151  30.335  11.015 -0.1745 -0.2217  0.3062
 3587DOPC   D2A42090  29.027  30.419  11.490 -0.2545 -0.0251 -0.2211
 3587DOPC   C3A42091  29.225  30.206  11.785 -0.0747  0.1601 -0.2155
 3587DOPC   C4A42092  29.529  30.148  12.179 -0.1129  0.0810  0.2357
 3587DOPC   C1B42093  29.526  30.923  10.730  0.1081  0.1160  0.0956
 3587DOPC   D2B42094  29.499  31.304  11.011  0.2059 -0.1987  0.0454
 3587DOPC   C3B42095  29.596  31.539  11.396 -0.0691 -0.0631 -0.2582
 3587DOPC   C4B42096  30.018  31.673  11.615  0.0332 -0.2415 -0.0143
 3588DOPS   CNO42097  25.278  25.858  10.379 -0.3051  0.0516 -0.3633
 3588DOPS   PO442098  24.937  25.810  10.550 -0.1931  0.0080 -0.4307
 3588DOPS   GL142099  25.015  25.845  11.026  0.0658  0.2079 -0.3365
 3588DOPS   GL242100  25.275  25.753  10.890  0.2107  0.2995  0.0142
 3588DOPS   C1A42101  25.023  25.416  11.227 -0.1505  0.1353  0.3255
 3588DOPS   D2A42102  24.877  25.142  11.545  0.2685 -0.0748 -0.2076
 3588DOPS   C3A42103  25.052  25.198  11.989 -0.1296 -0.1848 -0.2164
 3588DOPS   C4A42104  25.424  24.947  12.029 -0.2987 -0.1561 -0.1747
 3588DOPS   C1B42105  25.380  25.827  11.292  0.1838  0.0158  0.3206
 3588DOPS   D2B42106  25.500  25.955  11.734 -0.1271 -0.1984 -0.3837
 3588DOPS   C3B42107  25.646  26.366  11.714  0.1023 -0.0874  0.0463
 3588DOPS   C4B42108  25.550  26.747  11.583  0.1465 -0.0864 -0.4001
 3589DOPE   NH342109  24.678  31.551  10.265  0.2645  0.0316  0.0292
 3589DOPE   PO442110  24.976  31.595  10.340 -0.0994  0.4023 -0.0685
 3589DOPE   GL142111  25.141  31.517  10.738  0.1499 -0.0549  0.1417
 3589DOPE   GL242112  25.444  31.586  10.585 -0.0686 -0.0283  0.0822
 3589DOPE   C1A42113  24.967  31.480  11.145 -0.0041 -0.0421  0.1176
 3589DOPE   D2A42114  24.570  31.421  11.347 -0.2564  0.3376 -0.1155
 3589DOPE   C3A42115  24.478  31.649  11.763  0.0190  0.2781 -0.0114
 3589DOPE   C4A42116  24.391  31.514  12.258 -0.0483 -0.1926 -0.0889
 3589DOPE   C1B42117  25.567  31.364  10.984 -0.1692 -0.0086 -0.0965
 3589DOPE   D2B42118  25.454  31.101  11.326  0.3023  0.3269 -0.0552
 3589DOPE   C3B42119  25.111  31.199  11.551 -0.0226  0.2798  0.0498
 3589DOPE   C4B42120  25.007  31.617  11.703 -0.0751  0.2852  0.0225
 3590DOPE   NH342121  28.014  29.017  10.368  0.2631  0.1087 -0.1598
 3590DOPE   PO442122  28.062  29.342  10.410 -0.0129 -0.1686  0.3507
 3590DOPE   GL142123  28.184  29.432  10.764  0.0192  0.0835  0.2970
 3590DOPE   GL242124  28.471  29.594  10.683 -0.1505 -0.1559 -0.1227
 3590DOPE   C1A42125  28.271  29.467  11.214 -0.4078  0.0743  0.0891
 3590DOPE   D2A42126  28.501  29.478  11.643 -0.0864  0.0447 -0.2554
 3590DOPE   C3A42127  28.480  29.802  12.001 -0.0570 -0.1799  0.0280
 3590DOPE   C4A42128  28.178  29.757  12.370  0.0501 -0.1040  0.1559
 3590DOPE   C1B42129  28.737  29.493  11.051  0.2107 -0.0698  0.0828
 3590DOPE   D2B42130  29.170  29.340  11.145 -0.0649  0.0335  0.2152
 3590DOPE   C3B42131  29.244  29.619  11.494 -0.0541  0.0358  0.0437
 3590DOPE   C4B42132  29.592  29.718  11.703  0.1113 -0.0869  0.1686
 3591DOPS   CNO42133  30.931   0.904   9.723 -0.0423  0.3237 -0.0649
 3591DOPS   PO442134  30.593   0.762   9.795  0.0975  0.0285  0.0846
 3591DOPS   GL142135  30.525   0.950  10.168 -0.0293  0.3241  0.1856
 3591DOPS   GL242136  30.726   1.158  10.162  0.1193 -0.2290 -0.1038
 3591DOPS   C1A42137  30.766   0.861  10.557 -0.3791  0.2595 -0.0331
 3591DOPS   D2A42138  30.870   0.684  10.940  0.1359 -0.0245 -0.1609
 3591DOPS   C3A42139  30.906   0.263  11.119  0.0057  0.0520 -0.0234
 3591DOPS   C4A42140  30.631   0.045  11.412  0.1661 -0.2400  0.0644
 3591DOPS   C1B42141  31.112   1.266  10.400 -0.2314  0.0160  0.3401
 3591DOPS   D2B42142  31.356   1.532  10.708  0.2679  0.2613 -0.2026
 3591DOPS   C3B42143  31.144   1.765  11.089  0.0524 -0.1927 -0.1794
 3591DOPS   C4B42144  31.172   2.004  11.539  0.0525  0.1223 -0.2443
 3592DOPE   NH342145  31.849  23.350   9.806 -0.3019 -0.4569  0.0610
 3592DOPE   PO442146  32.100  23.468   9.907  0.0525  0.1557  0.0671
 3592DOPE   GL142147  32.283  23.867   9.948 -0.3668 -0.0243  0.0377
 3592DOPE   GL242148  32.549  23.764   9.913  0.1946 -0.0736 -0.2388
 3592DOPE   C1A42149  32.305  24.107  10.300  0.1189  0.2702 -0.2457
 3592DOPE   D2A42150  32.240  24.295  10.675  0.4057  0.0593  0.2192
 3592DOPE   C3A42151  32.506  24.165  11.065 -0.1671  0.2960  0.3682
 3592DOPE   C4A42152  32.766  24.008  11.442  0.0497  0.1929  0.1137
 3592DOPE   C1B42153  32.878  24.008  10.009  0.0497 -0.2443 -0.0129
 3592DOPE   D2B42154  33.293  24.229   9.930  0.0684  0.0323  0.0511
 3592DOPE   C3B42155  33.412  24.514  10.325  0.0078 -0.4760  0.0607
 3592DOPE   C4B42156  33.337  24.561  10.781  0.1843 -0.0053 -0.1692
 3593DOPS   CNO42157  25.420  22.986  10.078 -0.2917  0.2941 -0.3148
 3593DOPS   PO442158  25.386  22.702  10.298 -0.2183  0.1710 -0.1860
 3593DOPS   GL142159  25.399  22.631  10.711 -0.1758  0.0346  0.2128
 3593DOPS   GL242160  25.302  22.864  10.876 -0.0730 -0.0517  0.1045
 3593DOPS   C1A42161  25.685  22.439  11.089 -0.1679 -0.2007 -0.0485
 3593DOPS   D2A42162  25.900  22.365  11.448  0.0155  0.1277 -0.4180
 3593DOPS   C3A42163  25.872  22.633  11.812 -0.1645  0.2710 -0.1434
 3593DOPS   C4A42164  25.753  22.839  12.292  0.4241  0.1285 -0.0576
 3593DOPS   C1B42165  25.347  22.810  11.325  0.0853 -0.2239  0.0447
 3593DOPS   D2B42166  25.453  22.442  11.610  0.0797  0.1199 -0.1630
 3593DOPS   C3B42167  25.348  22.507  12.063 -0.3284 -0.0665 -0.0388
 3593DOPS   C4B42168  25.342  22.467  12.494  0.0595 -0.0772  0.0422
 3594DOPS   CNO42169  31.561  24.476   9.571 -0.0675  0.0726 -0.1240
 3594DOPS   PO442170  31.474  24.595   9.914  0.1890  0.1000 -0.0871
 3594DOPS   GL142171  31.753  24.803   9.950 -0.1252 -0.0158  0.1294
 3594DOPS   GL242172  31.763  24.854  10.277 -0.2232  0.2371 -0.1933
 3594DOPS   C1A42173  32.182  25.041  10.016  0.0548 -0.4151 -0.2399
 3594DOPS   D2A42174  32.526  24.923  10.288 -0.1183 -0.2063 -0.0882
 3594DOPS   C3A42175  32.980  24.848  10.426  0.2684  0.2034 -0.1476
 3594DOPS   C4A42176  33.313  25.100  10.313 -0.0704 -0.0940 -0.0538
 3594DOPS   C1B42177  32.056  25.146  10.463  0.0738 -0.1897  0.1840
 3594DOPS   D2B42178  32.312  25.321  10.845 -0.4317 -0.3750  0.2072
 3594DOPS   C3B42179  32.459  25.741  10.784  0.2678  0.0189 -0.1548
 3594DOPS   C4B42180  32.651  25.939  10.426  0.1636  0.2344  0.1587
 3595DOPC   NC342181  27.849  24.332  10.329  0.1467 -0.0891 -0.2446
 3595DOPC   PO442182  28.159  24.527  10.206  0.1218 -0.2235  0.1376
 3595DOPC   GL142183  28.204  24.460  10.557  0.0627  0.2414  0.3489
 3595DOPC   GL242184  28.090  24.653  10.730 -0.3185 -0.1788 -0.0505
 3595DOPC   C1A42185  28.549  24.412  10.922  0.1509  0.0677 -0.1250
 3595DOPC   D2A42186  28.964  24.322  10.923 -0.0841 -0.1184 -0.0494
 3595DOPC   C3A42187  29.144  24.541  11.262  0.3174  0.0851 -0.1030
 3595DOPC   C4A42188  29.117  24.638  11.754 -0.0323  0.1862  0.1310
 3595DOPC   C1B42189  27.986  24.859  11.197 -0.1724  0.1749 -0.1521
 3595DOPC   D2B42190  27.692  25.004  11.547  0.3822  0.2007 -0.0269
 3595DOPC   C3B42191  27.753  24.696  11.920 -0.4984 -0.1750 -0.0514
 3595DOPC   C4B42192  27.501  24.456  12.293  0.0492  0.0114  0.1760
 3596DOPC   NC342193  34.321  30.522   9.525  0.1297 -0.0437  0.3026
 3596DOPC   PO442194  34.336  30.710   9.849 -0.4384 -0.0564 -0.0854
 3596DOPC   GL142195  34.193  30.763  10.202  0.0229  0.0089 -0.0238
 3596DOPC   GL242196  34.309  31.077  10.205  0.1323  0.1707  0.0028
 3596DOPC   C1A42197  34.202  30.586  10.650  0.2310  0.0259  0.1091
 3596DOPC   D2A42198  34.218  30.453  11.101 -0.1332  0.3015 -0.2002
 3596DOPC   C3A42199  33.783  30.470  11.220 -0.0110  0.0447 -0.2413
 3596DOPC   C4A42200  33.332  30.322  11.291  0.0174  0.0187  0.2708
 3596DOPC   C1B42201  34.353  31.083  10.707 -0.0106 -0.1896 -0.0465
 3596DOPC   D2B42202  34.452  31.086  11.155 -0.0570  0.1083 -0.1465
 3596DOPC   C3B42203  34.519  31.503  11.394 -0.0834 -0.1477 -0.3248
 3596DOPC   C4B42204  34.611  31.882  11.595 -0.0893 -0.3232  0.1091
 3597DOPE   NH342205  27.856  29.864  10.296 -0.0834  0.0092 -0.1060
 3597DOPE   PO442206  27.564  29.828  10.256  0.2655 -0.1894 -0.2142
 3597DOPE   GL142207  27.338  29.833  10.559 -0.1234  0.0577  0.2982
 3597DOPE   GL242208  27.470  30.029  10.745 -0.2388  0.0736  0.3970
 3597DOPE   C1A42209  27.102  29.479  10.777  0.0011 -0.2255  0.2474
 3597DOPE   D2A42210  26.923  29.195  11.059  0.1446 -0.1879 -0.1180
 3597DOPE   C3A42211  27.132  28.828  11.231  0.1704  0.0861  0.0330
 3597DOPE   C4A42212  27.360  28.522  11.436 -0.1471  0.0330  0.0031
 3597DOPE   C1B42213  27.337  29.743  11.097  0.1604 -0.0555 -0.1970
 3597DOPE   D2B42214  26.970  29.728  11.373  0.1587  0.0158  0.2823
 3597DOPE   C3B42215  27.267  29.733  11.724  0.3670 -0.0063  0.1218
 3597DOPE   C4B42216  27.172  29.732  12.185 -0.2211 -0.2567  0.1741
 3598DOPC   NC342217  31.825  32.512  10.026  0.0155 -0.0375  0.1656
 3598DOPC   PO442218  31.472  32.547   9.908  0.2344  0.3425 -0.0440
 3598DOPC   GL142219  31.472  32.361  10.337 -0.2592  0.0660  0.0792
 3598DOPC   GL242220  31.270  32.260  10.412  0.2188 -0.0621  0.0946
 3598DOPC   C1A42221  31.600  32.600  10.757  0.2261 -0.1648 -0.4063
 3598DOPC   D2A42222  31.593  32.476  11.207 -0.2794 -0.0824 -0.1604
 3598DOPC   C3A42223  31.353  32.098  11.421  0.3414  0.2257  0.1097
 3598DOPC   C4A42224  31.173  31.955  11.794 -0.1353 -0.1674  0.0902
 3598DOPC   C1B42225  31.107  32.670  10.560  0.2433 -0.0202  0.2032
 3598DOPC   D2B42226  31.099  32.927  10.910 -0.0707  0.0372 -0.1414
 3598DOPC   C3B42227  31.101  32.559  11.232 -0.0662  0.0161 -0.1564
 3598DOPC   C4B42228  31.014  32.450  11.718  0.1865  0.0983 -0.2963
 3599POSM   NC342229  25.573  27.707  10.172 -0.3791 -0.1073 -0.2904
 3599POSM   PO442230  25.279  27.479  10.160  0.1794  0.0398 -0.1620
 3599POSM   AM142231  25.249  27.536  10.453 -0.3395  0.1938 -0.1259
 3599POSM   AM242232  25.177  27.786  10.596  0.1699 -0.1755  0.1722
 3599POSM   T1A42233  25.423  27.503  10.934  0.1727  0.1630 -0.0294
 3599POSM   C2A42234  25.709  27.658  11.331 -0.2617  0.0789  0.0936
 3599POSM   C3A42235  25.597  27.593  11.698  0.1966  0.1658 -0.1760
 3599POSM   C1B42236  25.003  27.747  10.854 -0.1187  0.0597  0.1922
 3599POSM   D2B42237  24.730  27.684  11.189  0.0644  0.2132  0.1290
 3599POSM   C3B42238  24.577  27.640  11.633  0.3753 -0.1920 -0.2704
 3599POSM   C4B42239  24.371  27.984  11.896 -0.0790 -0.1568  0.1564
 3600DOPC   NC342240  24.636  30.685  10.640  0.3539 -0.3033 -0.1279
 3600DOPC   PO442241  24.793  30.507  10.346  0.0353  0.1809  0.0571
 3600DOPC   GL142242  24.939  30.283  10.597 -0.4837 -0.3465 -0.2213
 3600DOPC   GL242243  24.802  30.093  10.755  0.2621  0.2807  0.1190
 3600DOPC   C1A42244  25.037  30.470  11.011  0.0208 -0.2980  0.2433
 3600DOPC   D2A42245  24.891  30.525  11.466  0.2940 -0.1067 -0.4113
 3600DOPC   C3A42246  24.505  30.307  11.676  0.0676 -0.3175  0.2608
 3600DOPC   C4A42247  24.130  30.115  11.785  0.1132 -0.1690  0.2620
 3600DOPC   C1B42248  25.146  29.945  10.999  0.0923 -0.2456  0.1709
 3600DOPC   D2B42249  25.227  30.020  11.411  0.2892  0.1234 -0.0014
 3600DOPC   C3B42250  24.904  29.886  11.754  0.1868 -0.1155  0.2885
 3600DOPC   C4B42251  24.626  29.984  12.139 -0.1670  0.0797  0.4326
 3601DOPC   NC342252  25.913  33.516  10.446 -0.1810  0.1114 -0.0668
 3601DOPC   PO442253  26.217  33.270  10.574  0.2034 -0.0668 -0.0100
 3601DOPC   GL142254  26.053  33.218  10.996  0.0634 -0.0591  0.0872
 3601DOPC   GL242255  26.001  33.479  10.935  0.0647  0.1252  0.1412
 3601DOPC   C1A42256  25.827  32.825  11.033 -0.1176  0.0508  0.1153
 3601DOPC   D2A42257  25.444  32.697  10.891  0.0314  0.0663 -0.1044
 3601DOPC   C3A42258  25.431  32.364  11.140  0.0512 -0.2653  0.2287
 3601DOPC   C4A42259  25.165  32.080  11.377 -0.2305  0.1139 -0.1285
 3601DOPC   C1B42260  25.751  33.431  11.363  0.1410  0.0999 -0.0664
 3601DOPC   D2B42261  25.576  33.455  11.773  0.1146  0.2133  0.0244
 3601DOPC   C3B42262  25.937  33.268  11.921 -0.0536  0.0200 -0.1504
 3601DOPC   C4B42263  26.194  32.908  11.829 -0.2833 -0.0176 -0.2565
 3602DOPE   NH342264  25.183  33.879  10.732 -0.1824 -0.0624  0.0744
 3602DOPE   PO442265  24.901  33.770  10.613 -0.3098  0.2534  0.0793
 3602DOPE   GL142266  24.854  33.633  11.012 -0.2107  0.3711  0.2680
 3602DOPE   GL242267  24.990  33.787  11.163  0.3136 -0.1304 -0.0521
 3602DOPE   C1A42268  25.053  33.361  11.353 -0.2080 -0.1434 -0.0941
 3602DOPE   D2A42269  25.057  33.070  11.785 -0.0532  0.0037 -0.2073
 3602DOPE   C3A42270  25.483  33.045  11.975 -0.1686 -0.2253 -0.1125
 3602DOPE   C4A42271  25.786  33.071  12.361  0.0153 -0.1797 -0.0048
 3602DOPE   C1B42272  25.284  33.856  11.497 -0.4156  0.1040 -0.3534
 3602DOPE   D2B42273  25.212  34.199  11.822  0.0100  0.0493  0.4808
 3602DOPE   C3B42274  25.477  34.217  12.209  0.4337  0.1223  0.1572
 3602DOPE   C4B42275  25.546  34.062  12.653  0.1972  0.2240  0.0452
 3603DOPE   NH342276  26.379   1.518  10.002 -0.0434  0.2709 -0.0809
 3603DOPE   PO442277  26.441   1.344  10.254  0.0390 -0.0096 -0.2671
 3603DOPE   GL142278  26.398   1.204  10.712  0.2404 -0.0097  0.1345
 3603DOPE   GL242279  26.181   1.177  10.848 -0.3271 -0.1024 -0.0796
 3603DOPE   C1A42280  26.563   0.923  11.018  0.2230  0.1442 -0.0105
 3603DOPE   D2A42281  26.551   0.904  11.482  0.0157  0.1376 -0.0020
 3603DOPE   C3A42282  26.773   0.862  11.873  0.0178 -0.1168 -0.2808
 3603DOPE   C4A42283  27.109   1.142  11.991 -0.0506  0.2310 -0.0029
 3603DOPE   C1B42284  25.864   1.468  11.090 -0.0643 -0.0740  0.0414
 3603DOPE   D2B42285  25.543   1.761  11.215  0.0536 -0.0553  0.1235
 3603DOPE   C3B42286  25.476   1.981  11.652  0.1105  0.0675 -0.0015
 3603DOPE   C4B42287  25.492   2.008  12.119  0.5191 -0.1290  0.0179
 3604DOPC   NC342288  20.957  29.203  10.681  0.4157  0.0453 -0.1888
 3604DOPC   PO442289  20.624  29.108  10.466  0.1102 -0.2301  0.1173
 3604DOPC   GL142290  20.643  28.977  10.929  0.1088  0.1395  0.0390
 3604DOPC   GL242291  20.327  29.026  10.837  0.1582 -0.1415  0.0710
 3604DOPC   C1A42292  20.593  29.228  11.316 -0.2590  0.2465 -0.1372
 3604DOPC   D2A42293  20.659  29.044  11.706  0.0056  0.0466  0.2666
 3604DOPC   C3A42294  20.735  28.643  11.805  0.2204 -0.3339  0.1928
 3604DOPC   C4A42295  21.138  28.585  12.034  0.0603 -0.0416  0.0780
 3604DOPC   C1B42296  20.192  28.954  11.257 -0.0646 -0.0453  0.1382
 3604DOPC   D2B42297  20.183  29.170  11.669 -0.0462  0.3223  0.0286
 3604DOPC   C3B42298  20.071  28.903  12.000  0.3887 -0.0809  0.1927
 3604DOPC   C4B42299  19.991  28.857  12.497  0.2421 -0.0446 -0.0049
 3605DOPE   NH342300  34.354  29.417   9.634  0.2524  0.1468 -0.3483
 3605DOPE   PO442301  34.634  29.572   9.689  0.3005 -0.0272  0.0011
 3605DOPE   GL142302  34.458  29.831   9.937  0.3388 -0.1475 -0.1123
 3605DOPE   GL242303  34.354  29.662  10.231  0.2620  0.0039 -0.0362
 3605DOPE   C1A42304  34.724  29.940  10.285  0.0584 -0.1298 -0.1462
 3605DOPE   D2A42305  34.782  29.789  10.752 -0.2110  0.0979  0.3049
 3605DOPE   C3A42306  35.070  29.773  11.140 -0.1309  0.1931  0.0748
 3605DOPE   C4A42307  35.321  29.770  11.525  0.0785 -0.4306 -0.2647
 3605DOPE   C1B42308  34.247  30.101  10.349  0.2515  0.0695  0.3466
 3605DOPE   D2B42309  33.927  30.413  10.236 -0.2005  0.0750  0.2560
 3605DOPE   C3B42310  33.490  30.428  10.416 -0.2113 -0.1703  0.2604
 3605DOPE   C4B42311  33.359  30.179  10.748  0.0867 -0.2636 -0.1007
 3606DOPS   CNO42312  27.566  33.530   9.503  0.2942 -0.0287 -0.0013
 3606DOPS   PO442313  27.608  33.445   9.871 -0.2398 -0.0826  0.0123
 3606DOPS   GL142314  27.645  33.474  10.158 -0.2065  0.0554 -0.2073
 3606DOPS   GL242315  27.657  33.622  10.373 -0.0476  0.3421 -0.0680
 3606DOPS   C1A42316  27.747  33.156  10.471 -0.0809 -0.0531  0.0089
 3606DOPS   D2A42317  27.796  32.958  10.935  0.0851 -0.1192  0.0283
 3606DOPS   C3A42318  27.593  32.540  11.049 -0.1300 -0.0695  0.1308
 3606DOPS   C4A42319  27.726  32.359  11.391 -0.3643  0.1478  0.0604
 3606DOPS   C1B42320  27.823  33.627  10.799  0.0098 -0.0971  0.1177
 3606DOPS   D2B42321  27.848  33.401  11.190  0.0508  0.1748  0.0027
 3606DOPS   C3B42322  27.657  33.493  11.590  0.1088  0.0066 -0.4104
 3606DOPS   C4B42323  27.431  33.749  11.894 -0.1467 -0.1569  0.0413
 3607DOPC   NC342324  23.953   0.386  11.037 -0.4502 -0.1143  0.1356
 3607DOPC   PO442325  24.121   0.678  10.825  0.0056  0.2759  0.2121
 3607DOPC   GL142326  24.398   0.702  11.202 -0.2419 -0.0949 -0.0724
 3607DOPC   GL242327  24.294   0.502  11.383 -0.2576  0.0912  0.2393
 3607DOPC   C1A42328  24.462   1.073  11.512  0.1310  0.1434 -0.3342
 3607DOPC   D2A42329  24.346   1.293  11.898  0.0398  0.2458 -0.0252
 3607DOPC   C3A42330  24.203   0.978  12.234 -0.1686 -0.0093 -0.2205
 3607DOPC   C4A42331  24.136   0.829  12.658  0.0247  0.1417  0.0215
 3607DOPC   C1B42332  24.256   0.116  11.586 -0.2243 -0.1714  0.1949
 3607DOPC   D2B42333  24.350  -0.097  11.983 -0.2621  0.3538  0.1233
 3607DOPC   C3B42334  24.700  -0.236  12.306  0.0131  0.3686 -0.1756
 3607DOPC   C4B42335  25.027  -0.064  12.537 -0.0129 -0.0887  0.0542
 3608POSM   NC342336  31.010  30.055   9.986  0.0991  0.0305  0.2470
 3608POSM   PO442337  30.610  30.133   9.999 -0.2337  0.1256  0.3240
 3608POSM   AM142338  30.650  30.143  10.325 -0.2578  0.3373  0.5300
 3608POSM   AM242339  30.822  29.999  10.494 -0.2428  0.2816  0.1570
 3608POSM   T1A42340  30.444  30.001  10.769  0.0600 -0.0954 -0.1811
 3608POSM   C2A42341  30.161  30.303  11.062 -0.1506  0.3093  0.0680
 3608POSM   C3A42342  29.686  30.467  11.076  0.0053  0.0738  0.0649
 3608POSM   C1B42343  30.938  30.098  10.768  0.0551  0.5270  0.1437
 3608POSM   D2B42344  31.208  30.035  11.120 -0.0418 -0.2273  0.0663
 3608POSM   C3B42345  31.419  30.470  11.178 -0.0682 -0.0962 -0.0220
 3608POSM   C4B42346  31.369  30.937  11.176  0.4019  0.1270 -0.2311
 3609DOPC   NC342347  21.795  30.765  10.601  0.0274 -0.1374  0.1741
 3609DOPC   PO442348  21.907  30.508  10.388  0.0745 -0.2032 -0.1728
 3609DOPC   GL142349  21.978  30.278  10.767 -0.2639 -0.1925  0.1088
 3609DOPC   GL242350  21.876  30.458  11.017  0.2553 -0.0558  0.0185
 3609DOPC   C1A42351  22.099  30.040  11.127  0.1147 -0.1774 -0.3290
 3609DOPC   D2A42352  22.230  30.043  11.591 -0.1257  0.0498 -0.0101
 3609DOPC   C3A42353  22.096  30.412  11.702 -0.2584  0.0768 -0.1833
 3609DOPC   C4A42354  22.288  30.746  11.690  0.0406  0.3436  0.1720
 3609DOPC   C1B42355  21.457  30.446  11.162  0.1477 -0.2819 -0.1748
 3609DOPC   D2B42356  21.158  30.352  11.529  0.0148  0.2400  0.0101
 3609DOPC   C3B42357  21.131  30.588  11.867 -0.0483  0.0532 -0.2821
 3609DOPC   C4B42358  21.001  31.058  11.853  0.1864  0.1040 -0.1002
 3610POSM   NC342359  24.455  34.573  10.528  0.3289  0.1548  0.1404
 3610POSM   PO442360  24.423  34.167  10.579  0.1008 -0.1685  0.0551
 3610POSM   AM142361  24.375  34.181  10.897 -0.1387  0.3173 -0.0696
 3610POSM   AM242362  24.150  34.088  11.028 -0.1518 -0.3686 -0.1728
 3610POSM   T1A42363  24.548  33.936  11.303  0.2137 -0.0719 -0.3959
 3610POSM   C2A42364  24.794  33.807  11.620 -0.0329 -0.1639  0.3576
 3610POSM   C3A42365  25.114  33.560  11.885  0.0194  0.3677  0.1799
 3610POSM   C1B42366  24.040  33.931  11.307 -0.1603 -0.2081 -0.2774
 3610POSM   D2B42367  23.817  33.893  11.722 -0.1003  0.1896 -0.1159
 3610POSM   C3B42368  23.861  33.651  12.127 -0.0181  0.2449 -0.0350
 3610POSM   C4B42369  23.611  33.376  12.389  0.1096  0.2583 -0.1474
 3611DOPE   NH342370  26.257  31.836  10.305 -0.1663 -0.3234  0.2700
 3611DOPE   PO442371  26.016  31.642  10.151  0.3450 -0.0675  0.3383
 3611DOPE   GL142372  25.922  31.554  10.471  0.0551  0.0863 -0.0343
 3611DOPE   GL242373  25.902  31.704  10.722 -0.2257 -0.1008  0.0023
 3611DOPE   C1A42374  26.133  31.223  10.803  0.3982 -0.1353  0.1293
 3611DOPE   D2A42375  26.581  31.091  10.826  0.3412  0.0419 -0.1108
 3611DOPE   C3A42376  26.735  30.647  11.009  0.1388  0.0231  0.0528
 3611DOPE   C4A42377  26.674  30.280  11.350 -0.1706  0.1656  0.1616
 3611DOPE   C1B42378  26.026  31.539  11.142 -0.2759 -0.0676  0.0968
 3611DOPE   D2B42379  25.867  31.386  11.472  0.0846  0.0919 -0.0591
 3611DOPE   C3B42380  25.623  31.470  11.864  0.2997  0.0321 -0.0711
 3611DOPE   C4B42381  25.273  31.515  12.187  0.2014  0.1947  0.0781
 3612DOPE   NH342382  32.802  30.924   9.766 -0.3055  0.1562  0.2132
 3612DOPE   PO442383  32.780  30.646   9.661  0.0695  0.0439  0.0936
 3612DOPE   GL142384  32.842  30.546  10.063 -0.0567 -0.3967  0.2542
 3612DOPE   GL242385  33.054  30.434  10.099  0.1735  0.1958 -0.2841
 3612DOPE   C1A42386  32.534  30.391  10.417 -0.3573 -0.0934 -0.2085
 3612DOPE   D2A42387  32.247  30.483  10.785 -0.0370  0.4235  0.4872
 3612DOPE   C3A42388  32.235  30.176  11.113  0.1099  0.0999 -0.1150
 3612DOPE   C4A42389  32.410  29.998  11.455 -0.3208  0.0544  0.1410
 3612DOPE   C1B42390  32.971  30.465  10.590  0.0052 -0.0255  0.1183
 3612DOPE   D2B42391  32.671  30.744  10.814  0.1992 -0.0239  0.0852
 3612DOPE   C3B42392  32.509  30.581  11.231 -0.0138 -0.1660 -0.1301
 3612DOPE   C4B42393  32.175  30.514  11.472  0.1952  0.0676  0.2003
 3613DOPS   CNO42394  29.889  23.128  10.284 -0.0573  0.1447 -0.0063
 3613DOPS   PO442395  29.753  23.468  10.170  0.0056 -0.1335 -0.2664
 3613DOPS   GL142396  29.633  23.559  10.522 -0.0078  0.0808 -0.0217
 3613DOPS   GL242397  29.899  23.415  10.705  0.0929  0.1049  0.0160
 3613DOPS   C1A42398  29.566  23.927  10.816  0.3351 -0.0295 -0.0602
 3613DOPS   D2A42399  29.460  23.949  11.253  0.3071  0.2004  0.1201
 3613DOPS   C3A42400  29.317  24.205  11.586  0.1206  0.0871  0.0769
 3613DOPS   C4A42401  29.025  24.188  11.949 -0.0447  0.1793 -0.0649
 3613DOPS   C1B42402  29.613  23.019  10.807  0.2388  0.2924 -0.3277
 3613DOPS   D2B42403  29.665  22.875  11.258 -0.1140 -0.1603 -0.2424
 3613DOPS   C3B42404  29.979  22.638  11.311 -0.0876 -0.0594 -0.6298
 3613DOPS   C4B42405  30.295  22.439  11.575  0.0462  0.0222 -0.0123
 3614DOPE   NH342406  22.449  24.870  10.861  0.0286 -0.0697  0.2840
 3614DOPE   PO442407  22.246  25.021  11.031  0.2436 -0.0335 -0.4557
 3614DOPE   GL142408  22.424  24.961  11.379 -0.1198  0.3703  0.2875
 3614DOPE   GL242409  22.384  25.262  11.419  0.0453 -0.1254  0.0241
 3614DOPE   C1A42410  22.588  24.973  11.806 -0.2152  0.0883  0.2559
 3614DOPE   D2A42411  22.711  25.047  12.267  0.0100  0.0096  0.2001
 3614DOPE   C3A42412  22.726  25.274  12.705  0.0822  0.1664  0.1602
 3614DOPE   C4A42413  22.611  25.593  13.057  0.4399  0.3019  0.0922
 3614DOPE   C1B42414  22.540  25.689  11.406 -0.0281 -0.2577  0.1190
 3614DOPE   D2B42415  22.570  26.058  11.709 -0.0497  0.1889 -0.2684
 3614DOPE   C3B42416  22.327  26.022  12.129  0.0116 -0.0410  0.0035
 3614DOPE   C4B42417  22.164  26.200  12.506 -0.1929 -0.0946 -0.0001
 3615DOPE   NH342418  32.723  28.950   9.112 -0.3114  0.0249  0.2086
 3615DOPE   PO442419  32.487  28.741   9.197  0.0757 -0.1097  0.1849
 3615DOPE   GL142420  32.690  28.803   9.518 -0.1895  0.7009 -0.4737
 3615DOPE   GL242421  32.647  28.567   9.723 -0.0490 -0.0831  0.1440
 3615DOPE   C1A42422  32.586  29.039   9.903 -0.0574  0.2397 -0.1143
 3615DOPE   D2A42423  32.466  28.782  10.246 -0.0645  0.2266  0.0640
 3615DOPE   C3A42424  32.121  28.606  10.528  0.0033 -0.1413 -0.4400
 3615DOPE   C4A42425  32.071  28.327  10.880  0.0940  0.1480 -0.1451
 3615DOPE   C1B42426  32.895  28.630  10.096  0.0035 -0.1794  0.0810
 3615DOPE   D2B42427  33.201  28.348  10.275 -0.1384  0.2086 -0.4286
 3615DOPE   C3B42428  33.291  28.313  10.742 -0.2315 -0.0529 -0.0782
 3615DOPE   C4B42429  33.491  28.349  11.160 -0.0385  0.1463  0.4066
 3616POSM   NC342430   0.027  32.576   9.821  0.0557 -0.2207 -0.1192
 3616POSM   PO442431  -0.259  32.318   9.708 -0.0961 -0.2867  0.1751
 3616POSM   AM142432  -0.329  32.367  10.041 -0.0567  0.5533  0.1380
 3616POSM   AM242433  -0.436  32.548  10.194  0.1454  0.0264 -0.0925
 3616POSM   T1A42434  -0.455  32.150  10.488  0.3496  0.2090 -0.0904
 3616POSM   C2A42435  -0.471  32.309  10.916 -0.0476 -0.0939 -0.1458
 3616POSM   C3A42436  -0.156  32.288  11.312  0.2241 -0.1773  0.3632
 3616POSM   C1B42437  -0.472  32.656  10.484 -0.1263  0.2693  0.5402
 3616POSM   D2B42438  -0.433  32.865  10.938 -0.3175 -0.1338  0.0797
 3616POSM   C3B42439  -0.235  33.300  11.011  0.0343  0.2501  0.0336
 3616POSM   C4B42440  -0.123  33.605  11.337 -0.0789 -0.2653 -0.5477
 3617DOPC   NC342441   0.348  31.225  10.076 -0.0198 -0.1254 -0.1073
 3617DOPC   PO442442   0.069  30.914  10.039 -0.1882  0.1496  0.0159
 3617DOPC   GL142443  -0.148  30.772  10.394  0.5066 -0.1729  0.2895
 3617DOPC   GL242444  -0.120  30.498  10.309  0.1513  0.0952 -0.1709
 3617DOPC   C1A42445  -0.052  30.743  10.853  0.2287  0.2939 -0.2418
 3617DOPC   D2A42446   0.051  30.617  11.264  0.0636 -0.1888  0.0767
 3617DOPC   C3A42447   0.507  30.626  11.476  0.0607  0.0149  0.0821
 3617DOPC   C4A42448   0.762  30.380  11.695 -0.0260 -0.3541  0.0408
 3617DOPC   C1B42449  -0.112  30.243  10.726 -0.0858 -0.4381  0.2323
 3617DOPC   D2B42450  -0.047  30.117  11.162  0.1351  0.2904 -0.2536
 3617DOPC   C3B42451  -0.315  29.760  11.147  0.0487  0.0751  0.3479
 3617DOPC   C4B42452  -0.617  29.402  11.045 -0.2981 -0.0408 -0.2893
 3618DOPC   NC342453  28.479  23.735  10.469  0.1810  0.2051 -0.1549
 3618DOPC   PO442454  28.665  23.414  10.430  0.0357  0.0988  0.0424
 3618DOPC   GL142455  29.078  23.606  10.583 -0.0963 -0.0444 -0.0164
 3618DOPC   GL242456  28.908  23.872  10.578  0.2485  0.0410 -0.1182
 3618DOPC   C1A42457  29.410  23.441  10.858  0.0245 -0.0985  0.2169
 3618DOPC   D2A42458  29.561  23.356  11.282  0.1033  0.1079 -0.2243
 3618DOPC   C3A42459  29.387  23.118  11.620 -0.0720 -0.6035  0.0733
 3618DOPC   C4A42460  29.343  22.774  11.924  0.0808  0.2612 -0.0205
 3618DOPC   C1B42461  28.999  23.839  11.076 -0.0742  0.0465  0.2604
 3618DOPC   D2B42462  29.095  23.519  11.406  0.1530  0.1631  0.1768
 3618DOPC   C3B42463  29.318  23.657  11.749 -0.1131 -0.0740 -0.1710
 3618DOPC   C4B42464  29.424  23.377  12.071  0.1067  0.1694 -0.0980
 3619DOPE   NH342465  29.045  25.914   9.954 -0.2916 -0.0080 -0.1412
 3619DOPE   PO442466  28.837  25.650   9.990 -0.2400 -0.1159  0.2064
 3619DOPE   GL142467  28.678  25.632  10.346 -0.2259 -0.1294 -0.1399
 3619DOPE   GL242468  28.439  25.568  10.248 -0.0368 -0.0029  0.1454
 3619DOPE   C1A42469  28.502  25.857  10.700 -0.1460 -0.0899  0.0516
 3619DOPE   D2A42470  28.293  25.752  11.066  0.3848  0.3695  0.0011
 3619DOPE   C3A42471  28.630  25.705  11.416 -0.0409  0.2390 -0.4232
 3619DOPE   C4A42472  28.723  25.541  11.803 -0.3266  0.0941  0.2343
 3619DOPE   C1B42473  28.391  25.321  10.667  0.0590 -0.3090 -0.0667
 3619DOPE   D2B42474  28.449  24.979  10.913 -0.1904 -0.0092 -0.0572
 3619DOPE   C3B42475  28.639  24.725  11.245 -0.1044  0.0984 -0.0982
 3619DOPE   C4B42476  28.736  24.342  11.382  0.1328  0.0309  0.0088
 3620DOPE   NH342477  29.430  26.899   9.604 -0.0655  0.1737  0.2447
 3620DOPE   PO442478  29.646  26.706   9.735  0.2797 -0.0281 -0.1587
 3620DOPE   GL142479  29.485  26.526   9.992  0.4490  0.0129  0.2549
 3620DOPE   GL242480  29.181  26.421  10.074 -0.0164  0.2669  0.1368
 3620DOPE   C1A42481  29.508  26.356  10.451  0.3097 -0.0479 -0.1931
 3620DOPE   D2A42482  29.348  26.472  10.878  0.1442  0.2353 -0.0727
 3620DOPE   C3A42483  29.082  26.610  11.279 -0.0508  0.1038 -0.1055
 3620DOPE   C4A42484  29.155  26.672  11.721  0.1790 -0.1305 -0.0547
 3620DOPE   C1B42485  28.977  26.469  10.489  0.3387  0.0344  0.0916
 3620DOPE   D2B42486  28.618  26.710  10.672  0.3580 -0.2532 -0.3409
 3620DOPE   C3B42487  28.597  26.742  11.183  0.1021 -0.1904 -0.1860
 3620DOPE   C4B42488  28.651  26.617  11.625 -0.1957 -0.0671  0.0898
 3621POSM   NC342489  26.361  27.276  10.450 -0.0393 -0.2120  0.2594
 3621POSM   PO442490  26.035  27.489  10.319  0.2078  0.2327 -0.2247
 3621POSM   AM142491  26.199  27.733  10.518  0.2691  0.1244  0.1230
 3621POSM   AM242492  26.401  27.777  10.698 -0.0148  0.0830 -0.2643
 3621POSM   T1A42493  26.019  27.936  10.938  0.0047 -0.5241  0.2760
 3621POSM   C2A42494  26.159  27.975  11.378  0.0779 -0.2760  0.2387
 3621POSM   C3A42495  26.103  27.765  11.763  0.3853  0.4886  0.4935
 3621POSM   C1B42496  26.370  27.528  10.937  0.1129  0.1008 -0.1790
 3621POSM   D2B42497  26.157  27.472  11.304 -0.0907 -0.2458 -0.0931
 3621POSM   C3B42498  25.898  27.204  11.600  0.0453  0.1717 -0.0119
 3621POSM   C4B42499  26.014  26.749  11.768  0.2172  0.0069  0.0526
 3622POSM   NC342500  28.729  28.446  10.011 -0.2534  0.3986 -0.1010
 3622POSM   PO442501  29.079  28.387  10.219  0.0883 -0.0440  0.0636
 3622POSM   AM142502  29.169  28.325  10.543  0.1417  0.1352  0.0062
 3622POSM   AM242503  29.146  28.517  10.733  0.3090 -0.0879 -0.2171
 3622POSM   T1A42504  29.112  27.996  10.875 -0.1766 -0.2156  0.2318
 3622POSM   C2A42505  28.861  27.679  11.146  0.1252  0.0373 -0.2513
 3622POSM   C3A42506  28.452  27.430  11.218 -0.1632  0.3799  0.0263
 3622POSM   C1B42507  29.112  28.474  11.070 -0.2964 -0.0425  0.4096
 3622POSM   D2B42508  29.090  28.596  11.494 -0.0685 -0.1483  0.2067
 3622POSM   C3B42509  29.346  28.268  11.758 -0.0237 -0.1190  0.1168
 3622POSM   C4B42510  29.619  28.042  12.048  0.0789 -0.0341  0.1666
 3623POSM   NC342511  20.680  31.918  10.450 -0.2981  0.2458  0.5571
 3623POSM   PO442512  21.054  32.085  10.443  0.1426  0.1825  0.1739
 3623POSM   AM142513  21.117  32.036  10.753  0.1057 -0.2876 -0.1937
 3623POSM   AM242514  21.291  31.889  10.896 -0.2359  0.0366  0.0930
 3623POSM   T1A42515  21.109  32.228  11.222 -0.0921  0.1767 -0.1696
 3623POSM   C2A42516  21.109  32.267  11.697 -0.2017  0.0086  0.1891
 3623POSM   C3A42517  21.205  32.399  12.098  0.1533 -0.2941 -0.0098
 3623POSM   C1B42518  21.498  31.940  11.168  0.2315 -0.1223 -0.2126
 3623POSM   D2B42519  21.566  31.967  11.585 -0.1014  0.1392  0.0520
 3623POSM   C3B42520  21.985  32.082  11.811 -0.1384  0.0555 -0.1198
 3623POSM   C4B42521  22.137  32.184  12.237 -0.4112 -0.2165 -0.3855
 3624POSM   NC342522  31.178  28.592   9.327 -0.1174 -0.1617  0.2432
 3624POSM   PO442523  31.139  28.832   9.587 -0.0016  0.0910  0.0135
 3624POSM   AM142524  31.138  28.782   9.923  0.1195 -0.0750  0.1875
 3624POSM   AM242525  31.352  28.732  10.064 -0.2126  0.1761  0.1371
 3624POSM   T1A42526  30.900  28.957  10.289 -0.0864 -0.0289 -0.1105
 3624POSM   C2A42527  30.920  29.130  10.820  0.1353  0.0369  0.0985
 3624POSM   C3A42528  30.699  29.014  11.176 -0.0531 -0.0231 -0.1108
 3624POSM   C1B42529  31.556  28.876  10.250  0.2854 -0.0013  0.1331
 3624POSM   D2B42530  31.862  29.031  10.551  0.0079  0.0028 -0.0575
 3624POSM   C3B42531  31.936  29.288  10.906  0.0065 -0.1104 -0.0234
 3624POSM   C4B42532  32.096  29.291  11.366 -0.1915 -0.1087 -0.0596
 3625DOPC   NC342533  24.527  27.942  10.074  0.2909  0.0050 -0.6652
 3625DOPC   PO442534  24.222  27.758  10.234 -0.0171 -0.1574 -0.0685
 3625DOPC   GL142535  24.249  27.811  10.572  0.1269 -0.0795  0.5780
 3625DOPC   GL242536  24.192  28.065  10.634  0.0552  0.2303 -0.3105
 3625DOPC   C1A42537  23.950  27.732  10.966 -0.0015 -0.2350 -0.1221
 3625DOPC   D2A42538  23.674  27.508  11.205  0.4069 -0.0228  0.0683
 3625DOPC   C3A42539  23.206  27.502  11.388  0.2236 -0.1796 -0.1340
 3625DOPC   C4A42540  22.929  27.713  11.107 -0.1756 -0.2077 -0.4064
 3625DOPC   C1B42541  24.383  28.092  11.031 -0.2218 -0.0247 -0.0924
 3625DOPC   D2B42542  24.656  28.094  11.420  0.1781 -0.2604  0.0720
 3625DOPC   C3B42543  24.660  28.418  11.790 -0.1412  0.2532  0.0413
 3625DOPC   C4B42544  24.486  28.819  11.862  0.2324 -0.1060  0.2129
 3626DOPC   NC342545  30.366  25.620  10.230  0.0201 -0.2689 -0.4155
 3626DOPC   PO442546  30.182  26.000  10.209  0.2408 -0.0410  0.0524
 3626DOPC   GL142547  30.160  25.973  10.601 -0.2384  0.3357 -0.0308
 3626DOPC   GL242548  30.020  26.309  10.587 -0.3600  0.1522 -0.0335
 3626DOPC   C1A42549  30.435  26.247  10.870 -0.2824 -0.0587 -0.0041
 3626DOPC   D2A42550  30.793  26.196  11.110  0.0385 -0.0610  0.3222
 3626DOPC   C3A42551  30.798  25.926  11.509 -0.0846  0.2499 -0.1094
 3626DOPC   C4A42552  30.897  25.516  11.664 -0.2515  0.2233  0.1902
 3626DOPC   C1B42553  29.883  26.115  10.995  0.4354 -0.2163 -0.1741
 3626DOPC   D2B42554  29.457  25.949  11.141 -0.0755  0.0088 -0.1598
 3626DOPC   C3B42555  29.418  26.236  11.538  0.3460 -0.0169 -0.0410
 3626DOPC   C4B42556  29.649  26.568  11.781 -0.2012 -0.0316  0.1443
 3627DOPE   NH342557  32.131  33.196  10.266  0.1491  0.0821  0.2480
 3627DOPE   PO442558  32.077  32.960  10.042 -0.0534 -0.1934  0.0602
 3627DOPE   GL142559  32.026  32.795  10.348  0.2048  0.3976  0.0881
 3627DOPE   GL242560  32.103  32.531  10.459  0.2465 -0.1886 -0.3219
 3627DOPE   C1A42561  31.995  33.028  10.789  0.2372  0.1213  0.3978
 3627DOPE   D2A42562  31.815  33.392  11.015  0.1555 -0.0438 -0.0010
 3627DOPE   C3A42563  31.638  33.762  10.864  0.1459 -0.0450  0.3671
 3627DOPE   C4A42564  31.465  33.747  10.453  0.0377  0.1878  0.1534
 3627DOPE   C1B42565  32.062  32.518  10.910 -0.1529 -0.0251 -0.0197
 3627DOPE   D2B42566  32.290  32.400  11.342 -0.0428  0.1351  0.0585
 3627DOPE   C3B42567  32.505  32.831  11.485  0.0688  0.3145  0.2023
 3627DOPE   C4B42568  32.701  33.153  11.215  0.0815 -0.3236 -0.0092
 3628DOPC   NC342569  29.113  32.127   9.860 -0.0508  0.1463  0.2288
 3628DOPC   PO442570  28.955  31.855  10.061  0.1868  0.0773 -0.0079
 3628DOPC   GL142571  29.150  31.724  10.352  0.0409  0.1519  0.0225
 3628DOPC   GL242572  29.281  31.591  10.289  0.0660 -0.1342 -0.1451
 3628DOPC   C1A42573  29.353  31.724  10.752  0.0507 -0.0778 -0.3652
 3628DOPC   D2A42574  29.692  31.779  11.014 -0.1630  0.2137  0.0680
 3628DOPC   C3A42575  30.126  31.984  11.175  0.0841 -0.0159  0.2216
 3628DOPC   C4A42576  30.355  32.087  11.559 -0.0136  0.0957  0.0156
 3628DOPC   C1B42577  29.582  31.331  10.469  0.2115 -0.3904 -0.0073
 3628DOPC   D2B42578  30.027  31.308  10.688  0.2236  0.0333 -0.1270
 3628DOPC   C3B42579  29.989  31.388  11.109  0.1350  0.5640  0.0572
 3628DOPC   C4B42580  30.215  31.177  11.427  0.0283 -0.0103  0.0319
 3629DOPC   NC342581  34.466  31.239   9.786 -0.0373  0.2225  0.1251
 3629DOPC   PO442582  34.083  31.114   9.763 -0.0268 -0.1178  0.1391
 3629DOPC   GL142583  33.830  31.187  10.048 -0.1617  0.2056  0.0235
 3629DOPC   GL242584  33.656  30.929  10.100 -0.1315 -0.2544  0.5466
 3629DOPC   C1A42585  33.574  31.334  10.380  0.2150  0.1252 -0.1793
 3629DOPC   D2A42586  33.523  31.252  10.860  0.0029 -0.0377  0.0335
 3629DOPC   C3A42587  33.314  31.664  10.953 -0.1094 -0.0278  0.1678
 3629DOPC   C4A42588  33.156  31.992  11.213 -0.1172 -0.0282  0.0570
 3629DOPC   C1B42589  33.816  30.913  10.543 -0.2808  0.0119 -0.2091
 3629DOPC   D2B42590  33.932  31.004  10.985 -0.3342 -0.2925  0.1708
 3629DOPC   C3B42591  34.175  31.460  10.987  0.0380 -0.1142  0.0380
 3629DOPC   C4B42592  34.131  31.848  11.236 -0.0800  0.0001 -0.3113
 3630DOPS   CNO42593  32.720   2.936   9.811  0.1016  0.0379  0.0680
 3630DOPS   PO442594  32.664   2.676  10.118 -0.0797 -0.1915  0.1137
 3630DOPS   GL142595  32.798   2.554  10.514  0.1123 -0.0013 -0.0820
 3630DOPS   GL242596  33.045   2.686  10.574  0.2047  0.0161  0.0716
 3630DOPS   C1A42597  32.816   2.218  10.880 -0.2092  0.0296 -0.0669
 3630DOPS   D2A42598  32.574   2.197  11.312  0.3480  0.1548  0.2660
 3630DOPS   C3A42599  32.545   1.868  11.672  0.0574  0.2047  0.3015
 3630DOPS   C4A42600  32.281   1.511  11.824 -0.2452 -0.0255 -0.4355
 3630DOPS   C1B42601  33.288   2.689  10.927  0.3783 -0.1047 -0.0787
 3630DOPS   D2B42602  33.336   2.836  11.367  0.1080 -0.0912 -0.0826
 3630DOPS   C3B42603  33.281   3.224  11.599 -0.0797 -0.2319 -0.2048
 3630DOPS   C4B42604  33.259   3.699  11.661 -0.0876  0.2627  0.2519
 3631POSM   NC342605   1.228  29.184   9.368  0.1813  0.0945  0.0259
 3631POSM   PO442606   0.928  29.063   9.529 -0.0880 -0.2383 -0.1843
 3631POSM   AM142607   0.924  28.946   9.803  0.2375 -0.3344  0.3695
 3631POSM   AM242608   0.745  28.931  10.055  0.4438 -0.1028  0.0750
 3631POSM   T1A42609   1.231  28.726  10.094 -0.0737  0.1039  0.0727
 3631POSM   C2A42610   1.546  28.602  10.455 -0.1071  0.5410  0.3127
 3631POSM   C3A42611   1.688  28.327  10.804  0.0018  0.0674 -0.2360
 3631POSM   C1B42612   0.416  28.981  10.170 -0.3451  0.2833 -0.5047
 3631POSM   D2B42613   0.026  29.105  10.434  0.0019  0.0266 -0.5305
 3631POSM   C3B42614  -0.153  28.922  10.782 -0.0806 -0.1362 -0.2634
 3631POSM   C4B42615  -0.161  28.507  11.021 -0.0944 -0.0588 -0.1348
 3632DOPS   CNO42616  26.247  32.701  10.300 -0.0015  0.1543  0.0251
 3632DOPS   PO442617  26.577  32.800  10.328  0.2502 -0.1884 -0.0862
 3632DOPS   GL142618  26.595  33.036  10.713  0.0643  0.4154  0.0027
 3632DOPS   GL242619  26.852  33.062  10.717 -0.1979 -0.1592 -0.0757
 3632DOPS   C1A42620  26.469  33.133  11.164 -0.2907 -0.0726 -0.2475
 3632DOPS   D2A42621  26.267  33.355  11.514 -0.0967  0.2619 -0.3209
 3632DOPS   C3A42622  26.440  33.433  11.899 -0.0396  0.1220  0.2852
 3632DOPS   C4A42623  26.285  33.243  12.311  0.0788  0.0268  0.0058
 3632DOPS   C1B42624  26.670  32.692  10.960  0.4052  0.1382 -0.0992
 3632DOPS   D2B42625  26.340  32.546  11.255 -0.0535 -0.0859 -0.0050
 3632DOPS   C3B42626  26.496  32.513  11.635  0.4411 -0.5303 -0.2130
 3632DOPS   C4B42627  26.521  32.587  12.099 -0.0494  0.0594 -0.3205
 3633POSM   NC342628  23.178  29.034   9.906  0.2481  0.1189 -0.0313
 3633POSM   PO442629  22.897  28.767   9.898 -0.1504 -0.2734  0.2671
 3633POSM   AM142630  22.918  28.733  10.253  0.0576  0.2184  0.2861
 3633POSM   AM242631  22.831  28.897  10.495 -0.2273 -0.3625  0.2298
 3633POSM   T1A42632  23.082  28.453  10.599  0.1576  0.0454 -0.1307
 3633POSM   C2A42633  22.819  28.248  10.892 -0.2972  0.0459 -0.1003
 3633POSM   C3A42634  22.922  28.177  11.365 -0.0395  0.0476 -0.1355
 3633POSM   C1B42635  22.917  28.926  10.813  0.2790 -0.0496 -0.1524
 3633POSM   D2B42636  22.938  29.174  11.155  0.2110 -0.0397 -0.1594
 3633POSM   C3B42637  22.672  29.540  11.237 -0.1279 -0.0852 -0.0441
 3633POSM   C4B42638  22.304  29.595  11.497  0.3651  0.2489 -0.0312
 3634DOPC   NC342639  23.650  33.580  10.324  0.0228 -0.0838  0.2944
 3634DOPC   PO442640  23.485  33.866  10.554  0.0924 -0.0197  0.0718
 3634DOPC   GL142641  23.269  33.696  10.794  0.1639  0.0789  0.0681
 3634DOPC   GL242642  23.403  33.411  10.791 -0.1528  0.0241 -0.2514
 3634DOPC   C1A42643  23.016  33.472  11.119 -0.0301  0.2515  0.2686
 3634DOPC   D2A42644  23.062  33.547  11.587  0.1910 -0.2199 -0.0376
 3634DOPC   C3A42645  23.294  33.694  11.981 -0.1144 -0.2479  0.1153
 3634DOPC   C4A42646  23.471  33.848  12.370  0.1516  0.2082 -0.0221
 3634DOPC   C1B42647  23.520  33.535  11.227  0.0030 -0.2935 -0.0696
 3634DOPC   D2B42648  23.632  33.339  11.666 -0.1322 -0.2073 -0.2695
 3634DOPC   C3B42649  23.303  33.194  11.898 -0.1521  0.0421  0.0367
 3634DOPC   C4B42650  22.984  33.184  12.247 -0.0825  0.2204  0.2557
 3635DOPC   NC342651  29.122  29.622  10.688  0.0097 -0.1874 -0.1283
 3635DOPC   PO442652  29.267  29.388  10.389  0.1159  0.0420  0.1841
 3635DOPC   GL142653  29.278  29.090  10.669 -0.1600  0.2093 -0.1809
 3635DOPC   GL242654  29.445  28.932  10.823 -0.0014 -0.1471  0.2870
 3635DOPC   C1A42655  28.955  28.899  10.999  0.0512  0.1395 -0.0652
 3635DOPC   D2A42656  28.804  29.067  11.399  0.2175  0.0314  0.0719
 3635DOPC   C3A42657  28.652  28.809  11.727 -0.1868  0.0113  0.0355
 3635DOPC   C4A42658  28.917  28.738  12.079 -0.1447 -0.1319 -0.0859
 3635DOPC   C1B42659  29.452  28.923  11.294 -0.2914  0.0630 -0.3512
 3635DOPC   D2B42660  29.609  28.691  11.642  0.0913 -0.0059 -0.1982
 3635DOPC   C3B42661  29.624  28.735  12.089  0.3513  0.1788 -0.2256
 3635DOPC   C4B42662  29.736  29.036  12.402  0.1136  0.2544  0.0187
 3636DOPC   NC342663  27.124  24.003  10.348 -0.2190  0.2324  0.1257
 3636DOPC   PO442664  27.509  23.966  10.435  0.1165  0.4041  0.1524
 3636DOPC   GL142665  27.464  24.007  10.777  0.0268  0.0324 -0.0063
 3636DOPC   GL242666  27.498  24.343  10.734 -0.1206  0.2652 -0.3203
 3636DOPC   C1A42667  27.625  23.869  11.155  0.0300 -0.1129 -0.0115
 3636DOPC   D2A42668  27.528  23.645  11.599 -0.1950  0.1556  0.0603
 3636DOPC   C3A42669  27.718  23.262  11.580 -0.1281 -0.1704  0.0238
 3636DOPC   C4A42670  27.842  22.898  11.884  0.1321 -0.1912  0.1364
 3636DOPC   C1B42671  27.222  24.342  11.056 -0.1303  0.2749 -0.0396
 3636DOPC   D2B42672  26.752  24.354  11.123 -0.1118  0.3008  0.0968
 3636DOPC   C3B42673  26.625  23.925  11.245  0.0447 -0.1068  0.0769
 3636DOPC   C4B42674  26.205  23.749  11.351 -0.0125  0.0345 -0.0414
 3637POSM   NC342675  29.753  32.121   9.642  0.0400  0.1566  0.2037
 3637POSM   PO442676  29.880  31.964   9.943  0.4605  0.2937  0.1704
 3637POSM   AM142677  30.093  32.004  10.216  0.0821  0.0758 -0.2495
 3637POSM   AM242678  29.952  32.059  10.489  0.0262 -0.1301  0.1045
 3637POSM   T1A42679  30.373  31.806  10.537  0.0453 -0.0815  0.1468
 3637POSM   C2A42680  30.446  31.438  10.841 -0.0078  0.0023 -0.0352
 3637POSM   C3A42681  30.527  31.017  11.060  0.1588  0.1497  0.0626
 3637POSM   C1B42682  29.915  32.269  10.780 -0.2157  0.0971  0.2048
 3637POSM   D2B42683  30.168  32.490  11.083 -0.1660  0.0276 -0.3069
 3637POSM   C3B42684  30.080  32.902  11.341 -0.1094  0.0842  0.3497
 3637POSM   C4B42685  29.986  33.197  11.712 -0.0244 -0.2015 -0.1493
 3638POSM   NC342686  25.990  26.069  10.283  0.0262  0.1083 -0.1052
 3638POSM   PO442687  26.077  25.698  10.386 -0.0895  0.1378 -0.0227
 3638POSM   AM142688  26.291  25.761  10.618 -0.2375 -0.0235  0.2774
 3638POSM   AM242689  26.475  25.528  10.775 -0.2817  0.0627  0.3453
 3638POSM   T1A42690  26.648  25.942  10.902 -0.3912 -0.3822  0.0858
 3638POSM   C2A42691  26.966  25.849  11.188 -0.1139  0.1501 -0.1729
 3638POSM   C3A42692  27.150  25.456  11.387 -0.2406 -0.1932  0.0912
 3638POSM   C1B42693  26.659  25.447  11.083  0.1080 -0.1183 -0.3058
 3638POSM   D2B42694  26.711  25.324  11.515 -0.2207  0.0458 -0.1807
 3638POSM   C3B42695  26.454  24.927  11.709  0.1103 -0.3037 -0.1510
 3638POSM   C4B42696  26.318  24.624  12.071 -0.1131  0.0485  0.0551
 3639DOPE   NH342697  30.148  30.229  10.380  0.3234  0.2811 -0.1818
 3639DOPE   PO442698  29.865  30.205  10.326  0.2101 -0.0055 -0.0728
 3639DOPE   GL142699  29.756  30.089  10.768 -0.2282 -0.3445  0.1066
 3639DOPE   GL242700  29.569  29.926  10.903  0.0333  0.3364 -0.0160
 3639DOPE   C1A42701  30.027  29.775  10.953  0.0901 -0.1048  0.1754
 3639DOPE   D2A42702  30.010  29.732  11.443 -0.0865 -0.1843  0.1306
 3639DOPE   C3A42703  30.247  29.459  11.813  0.0523 -0.0995 -0.1667
 3639DOPE   C4A42704  30.615  29.357  12.079 -0.3984 -0.1000 -0.1260
 3639DOPE   C1B42705  29.674  29.536  11.123  0.0581 -0.3085  0.0632
 3639DOPE   D2B42706  29.717  29.252  11.526 -0.0454 -0.0266 -0.2538
 3639DOPE   C3B42707  30.007  28.944  11.674  0.0739 -0.0008 -0.0306
 3639DOPE   C4B42708  30.231  28.962  12.096 -0.0729  0.1635  0.0429
 3640DOPS   CNO42709  33.564  29.808   9.175  0.0242 -0.0073  0.1090
 3640DOPS   PO442710  33.515  29.802   9.553 -0.0423 -0.0368 -0.1407
 3640DOPS   GL142711  33.300  29.628   9.809 -0.2235  0.1554 -0.1193
 3640DOPS   GL242712  33.010  29.745   9.856  0.0746  0.0210 -0.0982
 3640DOPS   C1A42713  33.461  29.422  10.192  0.1541  0.0711 -0.0036
 3640DOPS   D2A42714  33.567  29.325  10.648  0.0421  0.2929 -0.0647
 3640DOPS   C3A42715  33.126  29.221  10.798 -0.2887 -0.0655  0.0588
 3640DOPS   C4A42716  32.759  29.187  11.070 -0.1988  0.4549 -0.1676
 3640DOPS   C1B42717  32.868  29.380  10.154  0.0349  0.0065 -0.1390
 3640DOPS   D2B42718  32.712  29.289  10.570  0.2507 -0.1435  0.1789
 3640DOPS   C3B42719  32.403  28.983  10.710 -0.6028  0.1209 -0.2422
 3640DOPS   C4B42720  32.482  28.627  11.041 -0.1556  0.0260  0.1303
 3641DOPE   NH342721  30.679   0.083   9.906  0.2712  0.0258 -0.0798
 3641DOPE   PO442722  30.617   0.339  10.076 -0.0659  0.0601  0.2306
 3641DOPE   GL142723  30.450   0.197  10.405 -0.3097 -0.2129  0.1142
 3641DOPE   GL242724  30.197   0.165  10.310  0.1412 -0.2486 -0.1780
 3641DOPE   C1A42725  30.663  -0.035  10.768 -0.0376  0.1294  0.0821
 3641DOPE   D2A42726  30.898  -0.236  11.050  0.0024 -0.3009  0.0139
 3641DOPE   C3A42727  30.767  -0.497  11.429  0.0446 -0.3220 -0.0567
 3641DOPE   C4A42728  30.556  -0.765  11.723  0.0964 -0.0577 -0.0893
 3641DOPE   C1B42729  30.130  -0.042  10.742  0.0456  0.2026  0.0653
 3641DOPE   D2B42730  30.115  -0.015  11.215  0.0767 -0.3638  0.1476
 3641DOPE   C3B42731  29.974   0.052  11.660  0.0813 -0.1637  0.0202
 3641DOPE   C4B42732  29.848  -0.263  11.959 -0.0435  0.1370  0.0559
 3642DOPC   NC342733  25.012  28.149  10.272  0.0723  0.1271  0.1139
 3642DOPC   PO442734  24.765  28.429  10.207 -0.1010  0.1065 -0.1799
 3642DOPC   GL142735  24.712  28.379  10.605  0.0428  0.1759 -0.1888
 3642DOPC   GL242736  24.464  28.494  10.635  0.0451  0.1521 -0.1076
 3642DOPC   C1A42737  24.922  28.189  11.013  0.1268 -0.3146 -0.0932
 3642DOPC   D2A42738  25.146  28.103  11.392  0.1242  0.0446  0.0384
 3642DOPC   C3A42739  25.208  27.658  11.386  0.2387 -0.1780 -0.0910
 3642DOPC   C4A42740  25.349  27.182  11.426 -0.4166  0.0333  0.0596
 3642DOPC   C1B42741  24.096  28.680  10.801 -0.1554  0.0817 -0.0644
 3642DOPC   D2B42742  23.881  29.113  10.846 -0.0499 -0.1641  0.3418
 3642DOPC   C3B42743  24.048  29.460  11.114  0.3163 -0.2999  0.0813
 3642DOPC   C4B42744  23.915  29.632  11.501 -0.1430  0.0462  0.3215
 3643DOPC   NC342745  27.338  24.602  10.277  0.2811  0.0301 -0.0338
 3643DOPC   PO442746  27.087  24.407  10.075  0.0784  0.1832  0.0113
 3643DOPC   GL142747  26.898  24.444  10.456  0.1875  0.2381 -0.0359
 3643DOPC   GL242748  26.891  24.274  10.668  0.1184  0.1012 -0.0202
 3643DOPC   C1A42749  27.043  24.776  10.819 -0.3167  0.1309  0.0275
 3643DOPC   D2A42750  27.271  24.978  11.262  0.0822  0.2253  0.0154
 3643DOPC   C3A42751  27.080  24.994  11.670  0.4708  0.0972 -0.0902
 3643DOPC   C4A42752  27.329  24.972  12.055  0.0813  0.0068 -0.1689
 3643DOPC   C1B42753  27.061  23.886  10.891 -0.1476  0.1583  0.2113
 3643DOPC   D2B42754  27.155  23.721  11.310 -0.0919  0.2492 -0.1144
 3643DOPC   C3B42755  27.304  24.085  11.530  0.0600 -0.0337 -0.0918
 3643DOPC   C4B42756  27.353  24.505  11.723  0.2368 -0.1434 -0.1104
 3644POSM   NC342757  32.419  30.416   9.946  0.3227 -0.3972 -0.1337
 3644POSM   PO442758  32.318  30.748   9.832  0.0712 -0.0812  0.1273
 3644POSM   AM142759  32.480  30.838  10.134  0.3900  0.2676  0.1656
 3644POSM   AM242760  32.412  30.876  10.396  0.4399 -0.1367  0.0251
 3644POSM   T1A42761  32.891  30.907  10.377 -0.2576 -0.1042 -0.1390
 3644POSM   C2A42762  33.264  30.843  10.539  0.1070 -0.1793 -0.0154
 3644POSM   C3A42763  33.506  30.665  10.862 -0.0910  0.0738  0.3017
 3644POSM   C1B42764  32.171  30.943  10.642  0.4870  0.3612 -0.0172
 3644POSM   D2B42765  31.781  31.126  10.861  0.3975  0.0231 -0.1632
 3644POSM   C3B42766  31.785  31.373  11.281  0.1745  0.1435  0.0949
 3644POSM   C4B42767  31.489  31.607  11.505  0.3666  0.0780 -0.0025
 3645POSM   NC342768  22.387   0.178  10.154 -0.1195  0.0428 -0.0766
 3645POSM   PO442769  22.427   0.450  10.421  0.0332  0.2402 -0.4149
 3645POSM   AM142770  22.324   0.567  10.736 -0.0550 -0.1306 -0.0601
 3645POSM   AM242771  22.185   0.408  10.902 -0.0480 -0.0764  0.0011
 3645POSM   T1A42772  22.525   0.611  11.213  0.1715 -0.0643 -0.0633
 3645POSM   C2A42773  22.790   0.467  11.608  0.1303  0.0373 -0.0383
 3645POSM   C3A42774  22.895   0.144  11.880 -0.1917 -0.2376  0.1006
 3645POSM   C1B42775  21.989   0.348  11.140 -0.3034  0.3504 -0.1326
 3645POSM   D2B42776  21.745   0.243  11.566 -0.0575  0.2135  0.0828
 3645POSM   C3B42777  21.975  -0.064  11.730 -0.2011 -0.0348  0.1504
 3645POSM   C4B42778  22.448  -0.233  11.824  0.1424  0.0732  0.1702
 3646DOPS   CNO42779  30.473  27.326   9.654  0.0846  0.1466 -0.1911
 3646DOPS   PO442780  30.505  27.696   9.750  0.0124  0.1986  0.1364
 3646DOPS   GL142781  30.452  27.836  10.157  0.1460 -0.2652 -0.2493
 3646DOPS   GL242782  30.504  28.135  10.047  0.0893  0.0713  0.2794
 3646DOPS   C1A42783  30.016  27.952  10.328 -0.4850  0.0350  0.2215
 3646DOPS   D2A42784  29.601  27.859  10.554  0.1291  0.3945 -0.2995
 3646DOPS   C3A42785  29.535  28.227  10.760 -0.1254  0.0813  0.1430
 3646DOPS   C4A42786  29.709  28.566  11.017 -0.0485  0.2602 -0.0444
 3646DOPS   C1B42787  30.459  28.438  10.379 -0.1139  0.2184 -0.0306
 3646DOPS   D2B42788  30.681  28.708  10.625  0.1579  0.0579  0.0686
 3646DOPS   C3B42789  30.657  28.542  11.031  0.0725  0.2688  0.4690
 3646DOPS   C4B42790  30.608  28.586  11.491  0.2709 -0.0430  0.1511
 3647POSM   NC342791  24.917  24.041  10.857  0.0052 -0.0877 -0.1577
 3647POSM   PO442792  24.746  24.418  10.778  0.0363  0.1786  0.0390
 3647POSM   AM142793  24.696  24.553  11.072 -0.1150  0.0462 -0.0239
 3647POSM   AM242794  24.491  24.625  11.207  0.0439  0.1033  0.0182
 3647POSM   T1A42795  24.802  24.369  11.531  0.0726 -0.2422  0.0201
 3647POSM   C2A42796  25.205  24.276  11.856 -0.2472  0.1398  0.1451
 3647POSM   C3A42797  25.459  23.897  11.959  0.1633 -0.0851  0.0450
 3647POSM   C1B42798  24.466  24.776  11.517 -0.2407 -0.1109 -0.1923
 3647POSM   D2B42799  24.448  25.081  11.888 -0.0523 -0.0080 -0.3249
 3647POSM   C3B42800  24.657  25.475  12.064  0.0757  0.2074 -0.0730
 3647POSM   C4B42801  25.063  25.650  12.103  0.0916 -0.0410 -0.1006
 3648DOPE   NH342802  28.612   1.290  10.196  0.0398 -0.0124 -0.1007
 3648DOPE   PO442803  28.446   1.021  10.092 -0.0760 -0.0665 -0.1382
 3648DOPE   GL142804  28.193   1.079  10.442  0.2409  0.1741 -0.1394
 3648DOPE   GL242805  28.252   0.821  10.572  0.0485 -0.0128  0.4698
 3648DOPE   C1A42806  28.266   1.257  10.903 -0.1328  0.2571 -0.2121
 3648DOPE   D2A42807  28.422   1.325  11.362  0.3643 -0.0367 -0.0499
 3648DOPE   C3A42808  28.211   1.124  11.693  0.1291  0.5259  0.2503
 3648DOPE   C4A42809  28.108   0.845  12.023  0.3367  0.4067  0.1549
 3648DOPE   C1B42810  28.395   0.554  10.911  0.0810  0.2401 -0.0953
 3648DOPE   D2B42811  28.133   0.293  11.263 -0.2742  0.1050 -0.0230
 3648DOPE   C3B42812  28.375   0.011  11.493 -0.1962  0.3596  0.2477
 3648DOPE   C4B42813  28.338  -0.312  11.830 -0.1942 -0.2123 -0.2400
 3649DOPE   NH342814  26.377  24.570  10.433  0.2165 -0.0359 -0.3635
 3649DOPE   PO442815  26.409  24.384  10.672 -0.2819  0.1581  0.1618
 3649DOPE   GL142816  26.203  24.653  10.996 -0.0832 -0.0804 -0.1727
 3649DOPE   GL242817  25.999  24.721  10.920 -0.2339 -0.2004  0.2288
 3649DOPE   C1A42818  26.060  24.705  11.420 -0.2202 -0.0165 -0.3745
 3649DOPE   D2A42819  26.061  24.365  11.739 -0.4414  0.2995  0.1122
 3649DOPE   C3A42820  26.363  24.044  11.765 -0.0738 -0.1237 -0.1930
 3649DOPE   C4A42821  26.638  23.978  12.092 -0.1290 -0.0036 -0.1530
 3649DOPE   C1B42822  26.263  25.052  11.146 -0.0753  0.3318 -0.0742
 3649DOPE   D2B42823  26.211  25.468  11.315  0.1231  0.1166 -0.1822
 3649DOPE   C3B42824  26.075  25.228  11.696 -0.0558  0.2368  0.2013
 3649DOPE   C4B42825  26.204  25.157  12.110  0.0234  0.0819  0.2311
 3650DOPE   NH342826  25.665  23.420  10.560 -0.0208 -0.2102  0.2235
 3650DOPE   PO442827  25.583  23.096  10.592 -0.2246  0.0868 -0.1696
 3650DOPE   GL142828  25.824  23.267  10.950  0.0124 -0.1632 -0.1583
 3650DOPE   GL242829  25.636  23.425  11.070  0.0511 -0.0990 -0.1359
 3650DOPE   C1A42830  25.777  23.072  11.395 -0.2368  0.0028 -0.0649
 3650DOPE   D2A42831  26.042  23.207  11.798  0.2459 -0.1281 -0.0237
 3650DOPE   C3A42832  26.369  22.955  11.900 -0.0531  0.1086  0.3179
 3650DOPE   C4A42833  26.511  22.555  12.136  0.4079 -0.0063  0.2491
 3650DOPE   C1B42834  25.674  23.504  11.599 -0.0294  0.1913  0.0423
 3650DOPE   D2B42835  25.674  23.462  12.055 -0.0897 -0.3455 -0.1709
 3650DOPE   C3B42836  26.046  23.224  12.266 -0.3187  0.1853 -0.2880
 3650DOPE   C4B42837  26.346  23.173  12.638 -0.0262 -0.0659 -0.0271
 3651DOPS   CNO42838  27.950  23.799  10.189 -0.1238 -0.0722 -0.0934
 3651DOPS   PO442839  28.240  24.041  10.178  0.2564 -0.0722 -0.0572
 3651DOPS   GL142840  28.178  24.034  10.586  0.1200  0.0381  0.1480
 3651DOPS   GL242841  27.911  24.001  10.723 -0.1590  0.3885  0.2179
 3651DOPS   C1A42842  28.450  23.913  10.955  0.0799  0.2790 -0.1513
 3651DOPS   D2A42843  28.475  23.970  11.429 -0.3063 -0.2504 -0.0647
 3651DOPS   C3A42844  28.795  23.811  11.696 -0.1257  0.1369  0.1231
 3651DOPS   C4A42845  28.892  23.485  12.022  0.0607 -0.2068  0.1634
 3651DOPS   C1B42846  28.049  24.253  11.138  0.0417 -0.2399 -0.2732
 3651DOPS   D2B42847  28.241  24.430  11.491  0.1323 -0.0080 -0.2080
 3651DOPS   C3B42848  28.165  24.841  11.721 -0.2570  0.3245  0.1377
 3651DOPS   C4B42849  28.074  25.273  11.697 -0.0666  0.1408 -0.0271
 3652POSM   NC342850  28.496  31.855  10.249 -0.3028 -0.1099  0.1350
 3652POSM   PO442851  28.292  31.528  10.186 -0.0597  0.0734  0.1560
 3652POSM   AM142852  28.390  31.486  10.492  0.0866 -0.1203 -0.3268
 3652POSM   AM242853  28.324  31.659  10.742  0.0615  0.2036 -0.1926
 3652POSM   T1A42854  28.604  31.235  10.906  0.0586  0.0590 -0.0681
 3652POSM   C2A42855  28.705  30.949  11.255  0.0080  0.0740 -0.4230
 3652POSM   C3A42856  28.888  30.920  11.679 -0.0953  0.2395  0.0882
 3652POSM   C1B42857  28.230  31.944  10.936 -0.0404 -0.0651 -0.1494
 3652POSM   D2B42858  28.386  32.233  11.276 -0.1924 -0.1523  0.1117
 3652POSM   C3B42859  28.286  32.244  11.738  0.0200 -0.2797 -0.0815
 3652POSM   C4B42860  27.910  32.331  11.930 -0.0918 -0.0114 -0.2502
 3653POSM   NC342861  31.110  31.104   9.840  0.0102 -0.0441 -0.0342
 3653POSM   PO442862  31.535  31.067   9.800 -0.4043 -0.1187  0.0512
 3653POSM   AM142863  31.565  31.130  10.098 -0.1142 -0.1063  0.0386
 3653POSM   AM242864  31.392  31.227  10.316 -0.2140 -0.2100 -0.2409
 3653POSM   T1A42865  31.814  31.379  10.475  0.0254  0.0693  0.0467
 3653POSM   C2A42866  31.837  31.647  10.846 -0.0086 -0.0659  0.1533
 3653POSM   C3A42867  31.843  31.971  11.155 -0.3200 -0.1194  0.0865
 3653POSM   C1B42868  31.340  31.260  10.630 -0.0203  0.4502 -0.0523
 3653POSM   D2B42869  31.401  31.516  11.028 -0.1454  0.0202  0.0148
 3653POSM   C3B42870  31.066  31.761  11.160 -0.3685  0.2071  0.0878
 3653POSM   C4B42871  30.808  31.970  11.508  0.0201 -0.0968  0.1545
 3654DOPE   NH342872  28.139  27.228   9.902 -0.1381  0.2103  0.1027
 3654DOPE   PO442873  27.848  27.255  10.069 -0.2569 -0.0235 -0.1086
 3654DOPE   GL142874  28.021  27.338  10.362  0.4183  0.1696 -0.2179
 3654DOPE   GL242875  27.836  27.478  10.546 -0.0919 -0.3201  0.2325
 3654DOPE   C1A42876  28.194  27.079  10.705 -0.0363  0.2176  0.0246
 3654DOPE   D2A42877  28.221  27.006  11.128  0.0512 -0.1488 -0.0103
 3654DOPE   C3A42878  28.392  27.040  11.532 -0.1817  0.1927  0.1046
 3654DOPE   C4A42879  28.387  27.365  11.783 -0.0347  0.1904 -0.0679
 3654DOPE   C1B42880  27.553  27.733  10.737 -0.4367 -0.0057 -0.0707
 3654DOPE   D2B42881  27.354  28.011  11.070 -0.1629  0.2647 -0.0353
 3654DOPE   C3B42882  27.240  28.052  11.557  0.3104  0.1542  0.0479
 3654DOPE   C4B42883  27.302  27.845  11.904  0.2442  0.2154  0.0680
 3655DOPS   CNO42884  22.612   0.954  10.375 -0.2557 -0.0319 -0.1028
 3655DOPS   PO442885  22.630   1.336  10.481  0.0172 -0.3246 -0.0466
 3655DOPS   GL142886  22.667   1.476  10.804  0.1655  0.4016  0.0154
 3655DOPS   GL242887  22.799   1.256  10.973  0.0421 -0.0010  0.3037
 3655DOPS   C1A42888  22.385   1.573  11.139 -0.0308 -0.0658  0.1528
 3655DOPS   D2A42889  21.995   1.440  11.337  0.1281 -0.2664 -0.1783
 3655DOPS   C3A42890  21.719   1.713  11.561 -0.1359  0.1312 -0.0767
 3655DOPS   C4A42891  21.322   2.028  11.642 -0.0441 -0.0759  0.2479
 3655DOPS   C1B42892  22.544   1.098  11.326  0.0962 -0.0073 -0.2248
 3655DOPS   D2B42893  22.465   0.881  11.694 -0.3060 -0.3089  0.2256
 3655DOPS   C3B42894  22.525   1.159  12.089 -0.0399  0.2186  0.1725
 3655DOPS   C4B42895  22.753   1.140  12.490  0.0195  0.2408 -0.2364
 3656DOPE   NH342896  25.839  32.189   9.860 -0.1152 -0.2283  0.1410
 3656DOPE   PO442897  25.975  32.234  10.150 -0.1204  0.2590 -0.0930
 3656DOPE   GL142898  25.985  32.120  10.535  0.0984  0.0698  0.1397
 3656DOPE   GL242899  25.673  32.070  10.580  0.2532  0.1177  0.2790
 3656DOPE   C1A42900  25.929  32.112  10.999  0.0833  0.0371 -0.0923
 3656DOPE   D2A42901  25.890  31.986  11.457  0.1478  0.3314 -0.1470
 3656DOPE   C3A42902  25.935  31.893  11.900 -0.0130 -0.0871  0.0597
 3656DOPE   C4A42903  25.834  32.111  12.236 -0.2589 -0.0482 -0.0576
 3656DOPE   C1B42904  25.502  31.848  10.973  0.0300  0.1963  0.2720
 3656DOPE   D2B42905  25.365  31.628  11.361 -0.2212 -0.0354  0.1082
 3656DOPE   C3B42906  25.447  31.923  11.738 -0.0116 -0.0838  0.0399
 3656DOPE   C4B42907  25.391  32.394  11.959 -0.0815 -0.0490  0.0873
 3657POSM   NC342908  20.340  25.584  10.776  0.1392 -0.0254 -0.2629
 3657POSM   PO442909  20.198  25.203  10.901  0.1093 -0.0449  0.0503
 3657POSM   AM142910  20.086  24.992  11.123  0.1778  0.0560 -0.1305
 3657POSM   AM242911  19.874  24.992  11.359  0.1573  0.0300  0.2772
 3657POSM   T1A42912  19.886  24.496  11.165  0.1521 -0.1733 -0.0087
 3657POSM   C2A42913  19.696  24.306  11.565 -0.0019  0.3130 -0.1007
 3657POSM   C3A42914  19.916  24.109  11.895 -0.0910 -0.1914  0.1552
 3657POSM   C1B42915  19.957  24.871  11.700  0.0361  0.0153 -0.1532
 3657POSM   D2B42916  19.825  24.639  12.040 -0.0782  0.1982 -0.3826
 3657POSM   C3B42917  20.067  24.482  12.382  0.0516 -0.1490 -0.1340
 3657POSM   C4B42918  20.327  24.318  12.759 -0.0681  0.1785 -0.2182
 3658POSM   NC342919  25.072   1.075  10.680  0.1696  0.2206  0.1719
 3658POSM   PO442920  24.745   1.246  10.513  0.1805  0.1362  0.0739
 3658POSM   AM142921  24.666   1.305  10.840 -0.0127  0.1296 -0.0041
 3658POSM   AM242922  24.740   1.124  11.046 -0.1531  0.0973 -0.2340
 3658POSM   T1A42923  24.575   1.499  11.258  0.0404  0.2017  0.0639
 3658POSM   C2A42924  24.622   1.646  11.702 -0.2051 -0.2111  0.2992
 3658POSM   C3A42925  24.548   1.678  12.137 -0.0192 -0.1777  0.3580
 3658POSM   C1B42926  24.900   1.012  11.359  0.2048  0.0622 -0.1437
 3658POSM   D2B42927  25.103   0.762  11.700  0.1711 -0.0547 -0.2289
 3658POSM   C3B42928  24.924   0.438  11.961 -0.0857 -0.0090 -0.0555
 3658POSM   C4B42929  24.726   0.255  12.335  0.0138  0.0982  0.2556
 3659DOPC   NC342930  25.283  30.315  10.169  0.1625  0.0879  0.3189
 3659DOPC   PO442931  25.076  29.998  10.250  0.0688  0.2236 -0.0675
 3659DOPC   GL142932  25.318  30.016  10.520  0.1796  0.4577 -0.0647
 3659DOPC   GL242933  25.543  30.194  10.604 -0.0867  0.0811  0.0190
 3659DOPC   C1A42934  25.541  29.771  10.853 -0.3252  0.1928  0.2891
 3659DOPC   D2A42935  25.506  29.552  11.224  0.4691 -0.2837  0.0094
 3659DOPC   C3A42936  25.575  29.711  11.671 -0.0734  0.2572 -0.2261
 3659DOPC   C4A42937  25.770  29.924  12.022  0.4483  0.0665 -0.1451
 3659DOPC   C1B42938  25.508  30.317  11.018  0.2299  0.4903  0.0122
 3659DOPC   D2B42939  25.444  30.594  11.381 -0.1477  0.1152 -0.1517
 3659DOPC   C3B42940  25.718  30.809  11.590  0.0390 -0.1231 -0.0221
 3659DOPC   C4B42941  26.136  31.043  11.621  0.1289  0.0061 -0.0554
 3660POSM   NC342942  20.597  31.106  10.229 -0.0650 -0.1566  0.1746
 3660POSM   PO442943  20.566  31.486  10.265 -0.0703  0.0091 -0.0606
 3660POSM   AM142944  20.699  31.463  10.561 -0.1223 -0.0008  0.0274
 3660POSM   AM242945  20.879  31.561  10.727 -0.2116 -0.1111 -0.1008
 3660POSM   T1A42946  20.482  31.374  11.005  0.1354 -0.1130  0.2654
 3660POSM   C2A42947  20.233  31.340  11.404 -0.0394 -0.0433 -0.0138
 3660POSM   C3A42948  19.804  31.235  11.572 -0.2909 -0.2493  0.0824
 3660POSM   C1B42949  21.009  31.537  11.053 -0.1721  0.0786 -0.0126
 3660POSM   D2B42950  21.178  31.591  11.455 -0.0773 -0.2055 -0.1275
 3660POSM   C3B42951  21.378  31.434  11.865  0.1967 -0.0165  0.1614
 3660POSM   C4B42952  21.456  31.325  12.320  0.1018  0.3018 -0.1453
 3661DOPE   NH342953  24.787  27.425  10.207 -0.1984 -0.3149  0.1076
 3661DOPE   PO442954  24.559  27.358  10.432  0.1265  0.0915  0.1914
 3661DOPE   GL142955  24.623  27.409  10.862  0.2052 -0.1622  0.6991
 3661DOPE   GL242956  24.326  27.315  10.919 -0.3163 -0.2255  0.2140
 3661DOPE   C1A42957  24.983  27.236  11.074 -0.2338 -0.0512 -0.0121
 3661DOPE   D2A42958  25.071  26.803  11.210 -0.1125 -0.0226  0.0370
 3661DOPE   C3A42959  25.000  26.725  11.625 -0.2667 -0.1234 -0.0074
 3661DOPE   C4A42960  24.823  26.572  12.057 -0.0759  0.1467  0.1754
 3661DOPE   C1B42961  24.514  27.231  11.306 -0.3023 -0.0725  0.1758
 3661DOPE   D2B42962  24.861  27.210  11.623 -0.0375  0.2726  0.3482
 3661DOPE   C3B42963  25.092  27.539  11.872  0.1834 -0.0034 -0.1386
 3661DOPE   C4B42964  25.388  27.854  12.075 -0.0042 -0.2142 -0.0760
 3662DOPS   CNO42965  28.040  28.609   9.948 -0.4615 -0.1107  0.0369
 3662DOPS   PO442966  28.341  28.716  10.184  0.0417  0.2774  0.0397
 3662DOPS   GL142967  28.405  28.415  10.494 -0.3322 -0.0942 -0.0683
 3662DOPS   GL242968  28.278  28.229  10.699  0.1292  0.2366 -0.2506
 3662DOPS   C1A42969  28.648  28.452  10.837 -0.0402 -0.0714  0.0045
 3662DOPS   D2A42970  28.645  28.612  11.267  0.1541 -0.0597 -0.0124
 3662DOPS   C3A42971  28.329  28.490  11.543 -0.2673  0.1950 -0.0703
 3662DOPS   C4A42972  27.921  28.599  11.441  0.0609 -0.2466  0.0801
 3662DOPS   C1B42973  28.139  28.633  10.892  0.1230 -0.0043 -0.3759
 3662DOPS   D2B42974  28.357  28.983  11.186 -0.1600  0.1937  0.1022
 3662DOPS   C3B42975  28.174  28.998  11.572 -0.0925  0.3720 -0.0870
 3662DOPS   C4B42976  28.034  29.338  11.909 -0.0648 -0.1016 -0.3786
 3663DOPC   NC342977  23.779  31.097  10.367 -0.2509 -0.0008  0.1591
 3663DOPC   PO442978  23.719  31.399  10.584  0.0889 -0.2957  0.1719
 3663DOPC   GL142979  23.538  31.340  10.900 -0.1814 -0.1318  0.2527
 3663DOPC   GL242980  23.742  31.453  11.091 -0.0615 -0.3697  0.1027
 3663DOPC   C1A42981  23.377  31.219  11.367  0.0682  0.1961 -0.2403
 3663DOPC   D2A42982  22.955  31.109  11.476  0.3461  0.0387 -0.0209
 3663DOPC   C3A42983  22.739  30.829  11.854  0.1282  0.2091  0.0987
 3663DOPC   C4A42984  22.482  30.712  12.191  0.0501 -0.0611 -0.1301
 3663DOPC   C1B42985  23.633  31.680  11.452 -0.0693 -0.1336  0.4559
 3663DOPC   D2B42986  23.516  31.821  11.954 -0.0842 -0.0789  0.2797
 3663DOPC   C3B42987  23.516  32.245  12.156 -0.0710 -0.2705 -0.0478
 3663DOPC   C4B42988  23.658  32.574  12.451 -0.0471  0.0890  0.1249
 3664DOPC   NC342989  30.450  32.290   9.788 -0.2445  0.1566  0.0952
 3664DOPC   PO442990  30.130  32.500   9.652  0.0562 -0.0615 -0.0583
 3664DOPC   GL142991  29.948  32.408   9.945 -0.1734 -0.0983  0.0480
 3664DOPC   GL242992  29.888  32.703  10.030  0.1533 -0.0094 -0.1844
 3664DOPC   C1A42993  30.192  32.466  10.343 -0.2796  0.0968  0.1010
 3664DOPC   D2A42994  30.474  32.286  10.673  0.0881 -0.0450 -0.0666
 3664DOPC   C3A42995  30.588  31.932  10.962 -0.0118  0.2574 -0.0556
 3664DOPC   C4A42996  30.476  31.624  11.301  0.0081 -0.0440 -0.1174
 3664DOPC   C1B42997  29.723  32.616  10.421 -0.1935 -0.0221 -0.4553
 3664DOPC   D2B42998  29.447  32.423  10.659  0.0511  0.0876 -0.5874
 3664DOPC   C3B42999  29.491  32.223  11.060  0.0452 -0.1450  0.0358
 3664DOPC   C4B43000  29.729  32.184  11.386  0.3802 -0.0586 -0.0121
 3665DOPC   NC343001  24.114  27.402   9.918  0.0116  0.3135 -0.0574
 3665DOPC   PO443002  23.742  27.408   9.959  0.0215 -0.0757 -0.0356
 3665DOPC   GL143003  23.810  27.583  10.350 -0.2102  0.0087 -0.1830
 3665DOPC   GL243004  24.022  27.429  10.521 -0.1024 -0.2199 -0.1750
 3665DOPC   C1A43005  23.718  27.941  10.611  0.0278  0.1782  0.0199
 3665DOPC   D2A43006  23.310  28.014  10.769 -0.1060  0.0523  0.1218
 3665DOPC   C3A43007  23.426  27.942  11.181 -0.0303 -0.0002  0.3252
 3665DOPC   C4A43008  23.281  27.959  11.680  0.2079 -0.0498  0.1076
 3665DOPC   C1B43009  23.564  27.414  10.710  0.1536 -0.0055  0.3636
 3665DOPC   D2B43010  23.393  27.008  10.933 -0.2033  0.0819  0.0259
 3665DOPC   C3B43011  23.495  27.024  11.406 -0.4156  0.1328  0.0211
 3665DOPC   C4B43012  23.516  26.931  11.851  0.2368 -0.0130 -0.1621
 3666DOPS   CNO43013  26.163  34.005  10.922  0.1474 -0.0436 -0.0043
 3666DOPS   PO443014  26.305  33.770  10.652 -0.1361  0.1865  0.1829
 3666DOPS   GL143015  26.509  33.515  10.845  0.0026 -0.1300  0.0432
 3666DOPS   GL243016  26.475  33.652  11.128 -0.1774  0.2961 -0.0902
 3666DOPS   C1A43017  26.943  33.507  11.072 -0.3306 -0.2930 -0.1642
 3666DOPS   D2A43018  27.202  33.639  11.431 -0.1847  0.0996  0.0945
 3666DOPS   C3A43019  27.217  33.267  11.735 -0.1889 -0.0356  0.3860
 3666DOPS   C4A43020  27.215  32.897  11.996  0.0359  0.0516 -0.1777
 3666DOPS   C1B43021  26.225  33.869  11.431 -0.0516 -0.0760  0.3029
 3666DOPS   D2B43022  25.816  33.979  11.667 -0.1752  0.2276  0.0464
 3666DOPS   C3B43023  25.943  33.755  12.062 -0.1979  0.2920  0.0898
 3666DOPS   C4B43024  25.948  33.605  12.492 -0.0188  0.0638 -0.3358
 3667POSM   NC343025  23.936  25.541  10.587 -0.0348 -0.1853 -0.1248
 3667POSM   PO443026  23.814  25.167  10.694 -0.1385 -0.3334 -0.3227
 3667POSM   AM143027  23.808  24.915  10.944  0.0201 -0.0491 -0.0472
 3667POSM   AM243028  23.934  24.744  11.174 -0.1016  0.2394  0.1985
 3667POSM   T1A43029  23.422  24.606  11.150 -0.3646  0.2033 -0.2198
 3667POSM   C2A43030  23.236  24.330  11.415 -0.0944  0.0681 -0.3599
 3667POSM   C3A43031  23.041  24.517  11.843 -0.3390  0.1372 -0.1264
 3667POSM   C1B43032  23.753  24.706  11.470  0.0666 -0.1081 -0.1938
 3667POSM   D2B43033  23.574  24.685  11.884  0.0927  0.1668  0.5068
 3667POSM   C3B43034  23.381  24.325  12.100 -0.2582 -0.1205 -0.2157
 3667POSM   C4B43035  23.295  23.846  12.143 -0.3383 -0.1557 -0.2476
 3668POSM   NC343036  29.903  34.427  10.380  0.1382 -0.0266 -0.2916
 3668POSM   PO443037  29.781  34.686  10.147  0.2182  0.3839 -0.3610
 3668POSM   AM143038  29.705  34.863  10.416  0.1562  0.0676 -0.1895
 3668POSM   AM243039  29.500  34.805  10.603 -0.0957  0.1030 -0.1586
 3668POSM   T1A43040  29.928  35.096  10.777 -0.0836 -0.1114 -0.1058
 3668POSM   C2A43041  29.946  35.249  11.227  0.0997  0.0100  0.1236
 3668POSM   C3A43042  30.019  35.266  11.646 -0.5023 -0.2618 -0.0869
 3668POSM   C1B43043  29.675  34.623  10.844  0.0435  0.1930 -0.0070
 3668POSM   D2B43044  29.807  34.329  11.147 -0.1627 -0.0923  0.0129
 3668POSM   C3B43045  29.724  34.135  11.575  0.0256 -0.1100  0.1044
 3668POSM   C4B43046  29.538  34.045  12.054 -0.5126 -0.2705 -0.1208
 3669DOPE   NH343047  22.716  30.981  10.373 -0.0716 -0.0768 -0.0790
 3669DOPE   PO443048  22.489  31.169  10.300 -0.0201  0.0808 -0.2238
 3669DOPE   GL143049  22.194  31.302  10.575 -0.0729 -0.0358  0.1646
 3669DOPE   GL243050  22.037  31.535  10.478 -0.0119 -0.0842 -0.0997
 3669DOPE   C1A43051  22.004  31.057  10.937 -0.2428 -0.0503  0.0435
 3669DOPE   D2A43052  21.888  30.950  11.366  0.0278  0.1570 -0.0409
 3669DOPE   C3A43053  21.443  31.130  11.416  0.2464 -0.0174  0.1889
 3669DOPE   C4A43054  21.134  30.824  11.392  0.1611 -0.1992 -0.2171
 3669DOPE   C1B43055  22.116  31.543  10.950  0.3136 -0.0787  0.1931
 3669DOPE   D2B43056  22.273  31.353  11.341 -0.2062 -0.1772  0.1932
 3669DOPE   C3B43057  22.430  30.949  11.243  0.2797  0.1895 -0.1775
 3669DOPE   C4B43058  22.306  30.531  11.222 -0.1820 -0.2689 -0.1250
 3670DOPC   NC343059  29.006  22.469  10.206  0.0337 -0.0445  0.2231
 3670DOPC   PO443060  28.797  22.101  10.046 -0.4264 -0.0256  0.2410
 3670DOPC   GL143061  28.809  22.113  10.476  0.1162 -0.1528  0.1846
 3670DOPC   GL243062  28.550  22.019  10.532 -0.1152  0.1381  0.0006
 3670DOPC   C1A43063  28.923  21.932  10.917 -0.0027 -0.4225  0.1339
 3670DOPC   D2A43064  29.206  21.866  11.313  0.2388 -0.2108 -0.2077
 3670DOPC   C3A43065  28.928  21.716  11.702  0.0257  0.1202 -0.0359
 3670DOPC   C4A43066  28.600  21.813  12.096  0.1105  0.0915  0.1069
 3670DOPC   C1B43067  28.400  22.182  10.948 -0.1440 -0.2462 -0.1335
 3670DOPC   D2B43068  28.166  22.289  11.287  0.3374 -0.0790 -0.1490
 3670DOPC   C3B43069  27.683  22.161  11.383  0.1123 -0.0035 -0.0140
 3670DOPC   C4B43070  27.472  21.764  11.620 -0.1837  0.1429  0.0446
 3671POSM   NC343071  30.849  29.158   9.815 -0.1480 -0.0097 -0.1644
 3671POSM   PO443072  30.785  29.560   9.815 -0.2087 -0.5164  0.0496
 3671POSM   AM143073  30.828  29.571  10.148  0.0861  0.0222  0.3082
 3671POSM   AM243074  30.800  29.421  10.360  0.0370 -0.0183 -0.0134
 3671POSM   T1A43075  31.188  29.657  10.467 -0.3108  0.0199  0.0957
 3671POSM   C2A43076  31.048  29.586  10.932 -0.1641  0.1571 -0.0492
 3671POSM   C3A43077  31.102  29.304  11.324 -0.0015 -0.0729  0.1576
 3671POSM   C1B43078  30.672  29.516  10.616 -0.0383  0.1404  0.2826
 3671POSM   D2B43079  30.393  29.434  10.952  0.3115  0.3782  0.0941
 3671POSM   C3B43080  30.541  29.514  11.350  0.0584 -0.0502 -0.1847
 3671POSM   C4B43081  30.817  29.876  11.403  0.0876 -0.0661 -0.2651
 3672POSM   NC343082  27.357  30.716  10.292 -0.1837 -0.1336 -0.3401
 3672POSM   PO443083  27.458  31.081  10.237 -0.0365 -0.2148 -0.0274
 3672POSM   AM143084  27.412  31.119  10.555 -0.0548 -0.1901 -0.1204
 3672POSM   AM243085  27.603  31.103  10.767  0.3174 -0.2123  0.0301
 3672POSM   T1A43086  27.064  31.139  10.964 -0.1938 -0.3628  0.0621
 3672POSM   C2A43087  26.797  31.062  11.373  0.2295 -0.0408  0.0817
 3672POSM   C3A43088  26.605  31.082  11.764  0.4042  0.2068 -0.1594
 3672POSM   C1B43089  27.646  31.017  11.147 -0.0503  0.1379  0.2419
 3672POSM   D2B43090  27.860  31.226  11.528 -0.1357 -0.0393  0.0015
 3672POSM   C3B43091  27.563  31.169  11.822 -0.2027  0.1045 -0.4241
 3672POSM   C4B43092  27.316  31.109  12.225  0.1109  0.0480  0.0036
 3673G1HFO Head43093  18.460  13.635  17.183 -0.0840  0.4246  0.2709
 3673G1HFO Head43094  18.184  13.616  17.030  0.3218  0.0018 -0.0101
 3673G1HFO Head43095  17.635  13.701  16.683  0.2023  0.1694 -0.0606
 3673G1HFO Head43096  17.835  13.807  16.887  0.1013 -0.2063  0.1247
 3673G1HFO link43097  18.087  13.820  16.865 -0.0822 -0.2810  0.3235
 3673G1HFO link43098  18.230  14.050  16.751  0.1374 -0.2644 -0.0797
 3673G1HFO Tail43099  18.114  14.362  16.730  0.0207  0.2684  0.1670
 3673G1HFO Tail43100  17.843  14.284  16.928  0.1564  0.1359  0.2073
 3673G1HFO Tail43101  17.553  14.411  16.989 -0.0782  0.3354 -0.1478
 3673G1HFO Tail43102  17.368  14.812  17.038  0.3076 -0.0203 -0.3390
 3673G1HFO Tail43103  18.302  14.562  16.943 -0.3127  0.0180 -0.2023
 3673G1HFO Tail43104  18.190  14.755  17.087  0.0299 -0.1571 -0.2797
 3673G1HFO Tail43105  17.988  14.688  17.231  0.0757 -0.2244 -0.0145
 3673G1HFO Tail43106  17.806  14.588  17.370  0.1437 -0.1294 -0.2271
 3673G1HFO Tail43107  17.596  14.534  17.449  0.0798 -0.0230 -0.1995
 3674G1HFO Head43108  21.213  17.077  16.653 -0.2644  0.3760 -0.1319
 3674G1HFO Head43109  21.239  17.285  16.890  0.4237  0.0835  0.1660
 3674G1HFO Head43110  21.389  17.913  17.112 -0.1203  0.0688  0.1102
 3674G1HFO Head43111  21.194  17.645  17.103 -0.0747 -0.5101  0.1969
 3674G1HFO link43112  21.114  17.531  16.890 -0.6198 -0.0730  0.2642
 3674G1HFO link43113  20.920  17.623  16.698 -0.2699 -0.0035 -0.0861
 3674G1HFO Tail43114  20.761  17.406  16.506 -0.0648 -0.0017  0.4191
 3674G1HFO Tail43115  20.424  17.400  16.650 -0.2358  0.0430  0.3792
 3674G1HFO Tail43116  20.224  17.587  16.816  0.4048  0.1716 -0.2334
 3674G1HFO Tail43117  19.822  17.594  16.978 -0.1385 -0.1026 -0.1061
 3674G1HFO Tail43118  20.675  17.571  16.200 -0.0810 -0.0431 -0.0099
 3674G1HFO Tail43119  20.452  17.538  16.064 -0.0021 -0.0033  0.2408
 3674G1HFO Tail43120  20.274  17.376  16.146  0.3162 -0.2658 -0.4002
 3674G1HFO Tail43121  20.093  17.241  16.269  0.1968  0.0687 -0.0968
 3674G1HFO Tail43122  19.921  17.088  16.316 -0.0540  0.0146  0.2028
 3675G1HFO Head43123  15.397  19.199  16.202  0.3152  0.0804 -0.1559
 3675G1HFO Head43124  15.442  19.513  16.247 -0.2947 -0.5969  0.2241
 3675G1HFO Head43125  15.375  19.898  16.591 -0.0580  0.0715  0.2487
 3675G1HFO Head43126  15.597  19.706  16.600 -0.2179  0.1919  0.3754
 3675G1HFO link43127  15.673  19.597  16.369 -0.0936  0.3189  0.2231
 3675G1HFO link43128  15.931  19.463  16.324  0.0558  0.0081 -0.0240
 3675G1HFO Tail43129  16.064  19.274  16.569 -0.1213  0.1333 -0.2820
 3675G1HFO Tail43130  16.319  19.462  16.663  0.1307  0.1516  0.1228
 3675G1HFO Tail43131  16.573  19.431  16.848 -0.3665  0.0429 -0.5655
 3675G1HFO Tail43132  16.906  19.630  17.032 -0.1140  0.0334  0.2311
 3675G1HFO Tail43133  15.832  19.347  16.817 -0.1601  0.0075 -0.0274
 3675G1HFO Tail43134  15.628  19.196  16.862  0.3498  0.0548 -0.2425
 3675G1HFO Tail43135  15.433  19.280  17.008 -0.3256 -0.0164  0.0430
 3675G1HFO Tail43136  15.253  19.334  17.166  0.1736  0.1257  0.2091
 3675G1HFO Tail43137  15.090  19.449  17.289 -0.0109 -0.1978  0.0248
 3676G1HFO Head43138  19.087  17.868  22.448  0.1282  0.3358 -0.1358
 3676G1HFO Head43139  19.046  17.704  22.184  0.1306 -0.0178  0.2464
 3676G1HFO Head43140  19.353  18.119  21.995  0.0975 -0.0369 -0.2589
 3676G1HFO Head43141  19.068  18.076  21.974 -0.2625  0.2166  0.1583
 3676G1HFO link43142  18.966  17.825  21.983 -0.3576  0.0843 -0.5769
 3676G1HFO link43143  18.790  17.752  21.784  0.0041 -0.2463 -0.0662
 3676G1HFO Tail43144  18.473  17.675  21.850  0.1210 -0.4197 -0.0442
 3676G1HFO Tail43145  18.320  17.706  21.531 -0.2602  0.3984 -0.1504
 3676G1HFO Tail43146  18.121  17.910  21.418 -0.1747 -0.5071 -0.2949
 3676G1HFO Tail43147  17.885  18.022  21.073  0.1473 -0.1403 -0.4708
 3676G1HFO Tail43148  18.503  17.327  21.829 -0.2024  0.0780  0.2833
 3676G1HFO Tail43149  18.367  17.151  21.963  0.4418 -0.0494  0.1211
 3676G1HFO Tail43150  18.426  16.912  21.916 -0.3210 -0.0548  0.0864
 3676G1HFO Tail43151  18.527  16.691  21.823  0.0492 -0.1085 -0.0870
 3676G1HFO Tail43152  18.660  16.512  21.764  0.2305 -0.2346 -0.0034
 3677G1HFO Head43153  19.875  16.514  20.651  0.2084  0.0354 -0.2094
 3677G1HFO Head43154  19.559  16.533  20.680  0.4030  0.3349  0.0984
 3677G1HFO Head43155  19.732  16.887  21.149 -0.4309  0.1144 -0.2245
 3677G1HFO Head43156  19.566  16.858  20.905  0.1679  0.5228 -0.4112
 3677G1HFO link43157  19.435  16.651  20.881  0.0751  0.4821  0.2521
 3677G1HFO link43158  19.150  16.649  20.940 -0.2044  0.4028  0.1299
 3677G1HFO Tail43159  18.954  16.806  20.723  0.2811  0.0158  0.0741
 3677G1HFO Tail43160  19.198  17.024  20.600 -0.2658 -0.0460 -0.1913
 3677G1HFO Tail43161  19.307  17.093  20.314 -0.1693 -0.4584  0.4052
 3677G1HFO Tail43162  19.233  17.390  19.999  0.3326  0.0592  0.2244
 3677G1HFO Tail43163  18.947  16.578  20.458  0.1030  0.1512  0.1053
 3677G1HFO Tail43164  19.060  16.629  20.232 -0.1472 -0.1078 -0.1119
 3677G1HFO Tail43165  19.324  16.649  20.231 -0.0848 -0.2557  0.0620
 3677G1HFO Tail43166  19.566  16.710  20.249 -0.0392 -0.0655  0.1944
 3677G1HFO Tail43167  19.799  16.710  20.295  0.1494 -0.2413 -0.0477
 3678G1HFO Head43168  16.576  15.448  20.102 -0.2516  0.1053  0.0215
 3678G1HFO Head43169  16.820  15.298  20.127  0.0281  0.1285 -0.1725
 3678G1HFO Head43170  16.907  15.802  20.285 -0.0532  0.2925  0.1732
 3678G1HFO Head43171  17.115  15.589  20.214  0.1661 -0.2395  0.1198
 3678G1HFO link43172  17.050  15.375  20.059 -0.0048  0.0196  0.3533
 3678G1HFO link43173  17.239  15.210  19.923  0.0738 -0.0331  0.0926
 3678G1HFO Tail43174  17.559  15.184  20.028  0.3015 -0.0091  0.0239
 3678G1HFO Tail43175  17.556  15.479  20.225  0.0925  0.1201 -0.2360
 3678G1HFO Tail43176  17.736  15.601  20.444 -0.1767 -0.1298  0.0432
 3678G1HFO Tail43177  17.958  15.959  20.561  0.0386  0.0391  0.1498
 3678G1HFO Tail43178  17.524  14.971  20.296 -0.2579  0.0821  0.3523
 3678G1HFO Tail43179  17.305  14.936  20.432  0.3141  0.0651 -0.2330
 3678G1HFO Tail43180  17.097  14.918  20.277  0.0565 -0.0079 -0.1700
 3678G1HFO Tail43181  16.908  14.849  20.127 -0.0104 -0.0178  0.1063
 3678G1HFO Tail43182  16.700  14.843  20.022  0.1980 -0.0478  0.1243
 3679G1HFO Head43183  14.092  19.520  20.060 -0.3887 -0.1943  0.0730
 3679G1HFO Head43184  14.319  19.690  19.917 -0.0690 -0.3406 -0.6307
 3679G1HFO Head43185  14.387  19.980  20.275 -0.0231 -0.3331  0.3160
 3679G1HFO Head43186  14.585  19.751  20.235  0.2902  0.0205 -0.1054
 3679G1HFO link43187  14.578  19.662  19.991  0.2063  0.2689  0.0228
 3679G1HFO link43188  14.746  19.467  19.874 -0.2405  0.2910  0.2379
 3679G1HFO Tail43189  15.041  19.513  19.720  0.0008 -0.0499 -0.1732
 3679G1HFO Tail43190  15.102  19.843  19.793  0.2858  0.2222 -0.2637
 3679G1HFO Tail43191  15.288  20.034  19.679 -0.1708 -0.2603 -0.2209
 3679G1HFO Tail43192  15.683  20.202  19.747 -0.0003  0.0447  0.1741
 3679G1HFO Tail43193  15.253  19.358  19.932 -0.4171  0.2220 -0.0730
 3679G1HFO Tail43194  15.320  19.110  19.941 -0.1919 -0.3529 -0.0191
 3679G1HFO Tail43195  15.296  18.974  20.159  0.2055  0.2063 -0.2842
 3679G1HFO Tail43196  15.250  18.820  20.362  0.1021 -0.0601  0.1899
 3679G1HFO Tail43197  15.158  18.648  20.491  0.0423 -0.4237  0.0337
 3680G1HFO Head43198  16.271  17.659  18.640 -0.3177 -0.3062  0.0731
 3680G1HFO Head43199  15.998  17.670  18.497  0.2226  0.2779  0.2035
 3680G1HFO Head43200  15.875  17.977  19.144 -0.1215 -0.2299 -0.3464
 3680G1HFO Head43201  15.951  17.925  18.786 -0.2050 -0.3186  0.1147
 3680G1HFO link43202  15.799  17.801  18.609  0.3447 -0.1752  0.0768
 3680G1HFO link43203  15.597  17.924  18.443  0.3754  0.2131 -0.1426
 3680G1HFO Tail43204  15.519  17.805  18.145 -0.1906 -0.5453  0.1383
 3680G1HFO Tail43205  15.196  17.696  18.210 -0.2152 -0.4366 -0.1799
 3680G1HFO Tail43206  14.991  17.495  18.085  0.0554 -0.0177 -0.1571
 3680G1HFO Tail43207  14.693  17.212  18.234 -0.0593  0.1622 -0.1796
 3680G1HFO Tail43208  15.490  18.113  17.987  0.1163 -0.1616 -0.1141
 3680G1HFO Tail43209  15.348  18.153  17.771 -0.0453  0.3472 -0.0176
 3680G1HFO Tail43210  15.454  18.065  17.548  0.0525 -0.0535  0.2848
 3680G1HFO Tail43211  15.554  18.016  17.321 -0.1818 -0.2639 -0.1704
 3680G1HFO Tail43212  15.685  18.019  17.128  0.1019 -0.0490 -0.3424
 3681G1HFO Head43213  18.496  20.516  20.616  0.1159  0.0893  0.0254
 3681G1HFO Head43214  18.267  20.325  20.574  0.1387 -0.4051  0.0429
 3681G1HFO Head43215  18.224  20.680  21.020  0.1079  0.0480 -0.4241
 3681G1HFO Head43216  18.073  20.396  20.935 -0.0184 -0.1856 -0.3673
 3681G1HFO link43217  18.197  20.217  20.795  0.0654  0.3124  0.6877
 3681G1HFO link43218  18.282  19.964  20.881 -0.1784  0.3616 -0.1334
 3681G1HFO Tail43219  18.276  19.652  20.731  0.1843 -0.4376  0.3754
 3681G1HFO Tail43220  17.922  19.624  20.651  0.2670 -0.3241  0.2868
 3681G1HFO Tail43221  17.730  19.406  20.499  0.4641 -0.1328 -0.2223
 3681G1HFO Tail43222  17.776  18.991  20.378 -0.1368 -0.0114  0.1185
 3681G1HFO Tail43223  18.361  19.749  20.391 -0.0650 -0.2104 -0.1054
 3681G1HFO Tail43224  18.238  19.949  20.284  0.1642 -0.2887  0.0815
 3681G1HFO Tail43225  18.025  20.026  20.404 -0.1573  0.0925  0.4202
 3681G1HFO Tail43226  17.841  20.121  20.551 -0.0627 -0.0519  0.0322
 3681G1HFO Tail43227  17.693  20.273  20.658 -0.1301  0.3707  0.0179
 3682G1HFO Head43228  15.200  13.427  18.924  0.0053  0.0585  0.3653
 3682G1HFO Head43229  15.465  13.484  19.072 -0.0095 -0.1878 -0.0342
 3682G1HFO Head43230  14.922  13.608  19.437  0.2547  0.3960 -0.1911
 3682G1HFO Head43231  15.212  13.430  19.384 -0.3109 -0.3757  0.4725
 3682G1HFO link43232  15.438  13.549  19.327 -0.0643 -0.0285 -0.4442
 3682G1HFO link43233  15.546  13.772  19.435 -0.3816  0.1179 -0.2693
 3682G1HFO Tail43234  15.862  13.835  19.368 -0.0990  0.1825  0.1424
 3682G1HFO Tail43235  16.014  13.526  19.327  0.1924 -0.0237  0.2164
 3682G1HFO Tail43236  16.080  13.301  19.528  0.2254 -0.1786 -0.5672
 3682G1HFO Tail43237  16.432  13.137  19.732 -0.0439  0.0389 -0.2615
 3682G1HFO Tail43238  15.849  13.961  19.037  0.2000 -0.0084  0.4245
 3682G1HFO Tail43239  16.076  13.993  18.922  0.1477  0.0261  0.1475
 3682G1HFO Tail43240  16.123  13.871  18.701 -0.0606  0.1149 -0.1018
 3682G1HFO Tail43241  16.202  13.728  18.508 -0.1930  0.1635 -0.1691
 3682G1HFO Tail43242  16.304  13.577  18.348 -0.0709  0.4048 -0.2957
 3683G1HFO Head43243  17.055  15.422  22.639  0.1577 -0.2504 -0.0488
 3683G1HFO Head43244  16.980  15.167  22.534  0.3341 -0.0016  0.0899
 3683G1HFO Head43245  16.605  15.457  22.407  0.1749  0.0318  0.0324
 3683G1HFO Head43246  16.682  15.208  22.255  0.0059  0.0715 -0.5015
 3683G1HFO link43247  16.925  15.151  22.258  0.4831  0.2375 -0.1020
 3683G1HFO link43248  17.109  15.171  22.035 -0.2906  0.2169 -0.1784
 3683G1HFO Tail43249  17.022  15.110  21.715  0.0426  0.1602 -0.0611
 3683G1HFO Tail43250  17.279  15.292  21.532  0.2855 -0.0317  0.1856
 3683G1HFO Tail43251  17.314  15.428  21.237  0.3459 -0.0865 -0.4467
 3683G1HFO Tail43252  17.604  15.582  20.974  0.1768 -0.0119 -0.0546
 3683G1HFO Tail43253  17.165  14.801  21.680 -0.0091  0.2555 -0.2192
 3683G1HFO Tail43254  17.074  14.616  21.516 -0.2264  0.2948 -0.0000
 3683G1HFO Tail43255  16.850  14.664  21.383 -0.1147  0.0224 -0.1176
 3683G1HFO Tail43256  16.623  14.737  21.293 -0.0204 -0.0857 -0.1565
 3683G1HFO Tail43257  16.435  14.780  21.153  0.1054 -0.0543 -0.4306
 3684G1HFO Head43258  16.835  16.233  20.068  0.0652  0.1733 -0.0745
 3684G1HFO Head43259  16.719  16.325  20.302 -0.1412 -0.3825 -0.5812
 3684G1HFO Head43260  16.088  16.098  20.408 -0.3014 -0.2254  0.3049
 3684G1HFO Head43261  16.353  16.250  20.467 -0.1055  0.3779 -0.3157
 3684G1HFO link43262  16.612  16.146  20.479 -0.1835  0.0941  0.5950
 3684G1HFO link43263  16.727  16.023  20.713  0.2447 -0.4822  0.0706
 3684G1HFO Tail43264  16.827  15.715  20.734 -0.1270 -0.1885  0.2042
 3684G1HFO Tail43265  17.131  15.779  20.898 -0.0024  0.0914 -0.3046
 3684G1HFO Tail43266  17.227  15.968  21.121  0.2494 -0.4329  0.0549
 3684G1HFO Tail43267  17.403  16.350  21.204  0.2945  0.0137 -0.0765
 3684G1HFO Tail43268  16.603  15.607  20.999 -0.0640 -0.1068  0.2064
 3684G1HFO Tail43269  16.614  15.378  21.111  0.0622  0.0181  0.1371
 3684G1HFO Tail43270  16.820  15.219  21.109  0.0086  0.0381  0.2483
 3684G1HFO Tail43271  17.022  15.075  21.140  0.0381  0.2372 -0.1727
 3684G1HFO Tail43272  17.166  14.919  21.231  0.3110  0.4928 -0.0509
 3685G1HFO Head43273  13.663  17.725  17.461  0.0107 -0.6016  0.0201
 3685G1HFO Head43274  13.824  17.466  17.450  0.1699 -0.2635  0.1649
 3685G1HFO Head43275  13.647  17.055  17.812  0.2519  0.2691 -0.2279
 3685G1HFO Head43276  13.804  17.319  17.843  0.2435  0.3797 -0.0544
 3685G1HFO link43277  13.984  17.401  17.648 -0.2349 -0.6256 -0.4211
 3685G1HFO link43278  14.214  17.548  17.728 -0.1734  0.0151  0.0424
 3685G1HFO Tail43279  14.198  17.885  17.714 -0.1728 -0.0937  0.1735
 3685G1HFO Tail43280  14.273  17.971  18.049  0.2872  0.1398 -0.1801
 3685G1HFO Tail43281  14.346  17.811  18.307  0.5049 -0.2600 -0.0913
 3685G1HFO Tail43282  14.253  17.439  18.540 -0.0779 -0.0196 -0.2942
 3685G1HFO Tail43283  14.498  17.965  17.570  0.0243 -0.1550 -0.3204
 3685G1HFO Tail43284  14.594  18.205  17.578 -0.2561  0.1447  0.1607
 3685G1HFO Tail43285  14.840  18.256  17.505 -0.0460  0.1855 -0.1159
 3685G1HFO Tail43286  15.062  18.359  17.433  0.0513  0.0440 -0.0164
 3685G1HFO Tail43287  15.283  18.430  17.402 -0.1033  0.3555  0.1001
 3686G1HFO Head43288  18.642  18.869  16.086 -0.2598 -0.0308  0.4811
 3686G1HFO Head43289  18.647  18.905  15.748 -0.3864  0.3790  0.0323
 3686G1HFO Head43290  19.017  19.153  15.983  0.3699 -0.1750 -0.0260
 3686G1HFO Head43291  19.059  18.922  15.816  0.4377 -0.0117 -0.1816
 3686G1HFO link43292  18.890  18.829  15.647  0.0342  0.5033  0.1694
 3686G1HFO link43293  18.918  18.569  15.550 -0.1224  0.2017  0.4062
 3686G1HFO Tail43294  18.798  18.334  15.730 -0.2711 -0.0826  0.3243
 3686G1HFO Tail43295  18.989  18.411  16.024 -0.0301  0.2236  0.0658
 3686G1HFO Tail43296  19.211  18.235  16.186 -0.2911 -0.3002 -0.0345
 3686G1HFO Tail43297  19.568  18.282  16.419 -0.1808 -0.2051 -0.2984
 3686G1HFO Tail43298  18.490  18.498  15.822 -0.3065  0.0001 -0.2556
 3686G1HFO Tail43299  18.367  18.423  16.036  0.4321 -0.1710 -0.6073
 3686G1HFO Tail43300  18.517  18.425  16.252 -0.1799  0.1105 -0.0383
 3686G1HFO Tail43301  18.692  18.444  16.432 -0.0127  0.0725  0.2139
 3686G1HFO Tail43302  18.812  18.422  16.624 -0.1013 -0.1007  0.4066
 3687G1HFO Head43303  17.347  13.461  20.381 -0.0612  0.0218 -0.2162
 3687G1HFO Head43304  17.630  13.418  20.324 -0.0237 -0.1969  0.1849
 3687G1HFO Head43305  18.018  13.094  20.237  0.2343 -0.1257  0.2176
 3687G1HFO Head43306  17.896  13.259  20.009  0.0940  0.0666  0.2833
 3687G1HFO link43307  17.716  13.452  20.069  0.7560 -0.0834  0.2362
 3687G1HFO link43308  17.668  13.696  19.898  0.0847  0.0039 -0.0715
 3687G1HFO Tail43309  17.417  13.907  19.910 -0.4042 -0.1420 -0.6337
 3687G1HFO Tail43310  17.145  13.697  19.902  0.2177  0.0508 -0.0759
 3687G1HFO Tail43311  16.985  13.505  20.072  0.4083 -0.4593 -0.3602
 3687G1HFO Tail43312  16.559  13.419  20.175 -0.1623 -0.0823 -0.1696
 3687G1HFO Tail43313  17.438  13.976  20.249  0.3151  0.1319  0.0516
 3687G1HFO Tail43314  17.650  13.946  20.392  0.0512  0.0290  0.0459
 3687G1HFO Tail43315  17.848  14.109  20.334 -0.0634  0.0659  0.1301
 3687G1HFO Tail43316  18.060  14.243  20.283  0.0888  0.0445  0.1077
 3687G1HFO Tail43317  18.254  14.313  20.201 -0.0689 -0.2052  0.1175
 3688G1HFO Head43318  21.225  17.729  19.359 -0.1353 -0.3632 -0.0879
 3688G1HFO Head43319  21.005  17.877  19.242 -0.2523 -0.0995  0.3256
 3688G1HFO Head43320  21.314  17.590  18.890 -0.1090  0.3242 -0.1419
 3688G1HFO Head43321  21.043  17.735  18.828 -0.1723  0.0364  0.1963
 3688G1HFO link43322  20.870  17.770  19.043 -0.1293 -0.0054 -0.2281
 3688G1HFO link43323  20.585  17.696  19.048 -0.0641  0.0496  0.4894
 3688G1HFO Tail43324  20.402  17.608  19.309  0.0708  0.0173 -0.2966
 3688G1HFO Tail43325  20.310  17.294  19.203  0.1699 -0.2704  0.1524
 3688G1HFO Tail43326  20.067  17.099  19.249  0.1168  0.2558  0.0446
 3688G1HFO Tail43327  19.744  17.027  19.514  0.0582  0.0864 -0.0106
 3688G1HFO Tail43328  20.636  17.497  19.538  0.0594 -0.1372 -0.0060
 3688G1HFO Tail43329  20.872  17.426  19.472 -0.0210 -0.1466  0.1164
 3688G1HFO Tail43330  20.896  17.365  19.215 -0.0037 -0.0197 -0.1413
 3688G1HFO Tail43331  20.868  17.317  18.965 -0.1405 -0.0684  0.1139
 3688G1HFO Tail43332  20.784  17.303  18.752  0.0529 -0.0406  0.1033
 3689G1HFO Head43333  18.831  20.612  17.120 -0.3412  0.0350  0.0460
 3689G1HFO Head43334  18.832  20.513  16.832 -0.2195 -0.0839 -0.1299
 3689G1HFO Head43335  19.334  20.896  16.959 -0.0694 -0.2598 -0.4004
 3689G1HFO Head43336  19.116  20.847  16.769  0.0420 -0.0052  0.0233
 3689G1HFO link43337  19.037  20.618  16.673  0.1534  0.0693 -0.0948
 3689G1HFO link43338  19.167  20.459  16.469  0.0933 -0.1398  0.1715
 3689G1HFO Tail43339  19.211  20.142  16.502  0.2246 -0.2242  0.4703
 3689G1HFO Tail43340  18.907  20.092  16.672  0.0504  0.1492 -0.0036
 3689G1HFO Tail43341  18.717  19.826  16.718  0.1927  0.0540  0.2136
 3689G1HFO Tail43342  18.716  19.389  16.746 -0.1469 -0.3151 -0.3173
 3689G1HFO Tail43343  19.089  20.014  16.187 -0.0091 -0.2302 -0.1263
 3689G1HFO Tail43344  18.839  20.070  16.093 -0.6377  0.3271 -0.3406
 3689G1HFO Tail43345  18.680  20.174  16.276  0.0391  0.1117 -0.0850
 3689G1HFO Tail43346  18.488  20.300  16.404 -0.1564 -0.1604  0.0883
 3689G1HFO Tail43347  18.284  20.427  16.449 -0.2514  0.1931  0.0011
 3690G1HFO Head43348  14.838  18.781  19.251  0.2855  0.4335 -0.2951
 3690G1HFO Head43349  15.056  18.653  19.052 -0.2267  0.2247  0.0913
 3690G1HFO Head43350  15.538  18.219  18.869  0.1264 -0.2276  0.0147
 3690G1HFO Head43351  15.247  18.279  18.963 -0.1492 -0.1192 -0.0779
 3690G1HFO link43352  15.214  18.469  19.158 -0.5424 -0.1953 -0.3282
 3690G1HFO link43353  15.416  18.521  19.369 -0.0017 -0.4035  0.3657
 3690G1HFO Tail43354  15.630  18.271  19.444 -0.1001 -0.0009  0.2143
 3690G1HFO Tail43355  15.607  18.289  19.785  0.1730 -0.0112 -0.0409
 3690G1HFO Tail43356  15.401  18.172  19.987  0.0974  0.1584 -0.3038
 3690G1HFO Tail43357  15.306  17.813  20.178 -0.1031  0.2581  0.1616
 3690G1HFO Tail43358  15.435  17.995  19.394 -0.4746 -0.0932 -0.4460
 3690G1HFO Tail43359  15.369  17.858  19.609  0.2964 -0.1664  0.1387
 3690G1HFO Tail43360  15.544  17.765  19.766  0.0369  0.0450  0.0772
 3690G1HFO Tail43361  15.688  17.646  19.945  0.1528 -0.1719  0.3033
 3690G1HFO Tail43362  15.783  17.584  20.143 -0.2292 -0.0915  0.0401
 3691G1HFO Head43363  14.604  14.860  20.156 -0.1685 -0.2506 -0.1960
 3691G1HFO Head43364  14.909  14.911  20.195 -0.1490 -0.1574 -0.1071
 3691G1HFO Head43365  14.618  14.435  20.445 -0.1989 -0.2375 -0.1250
 3691G1HFO Head43366  14.908  14.513  20.309  0.0320  0.0505 -0.2629
 3691G1HFO link43367  15.033  14.729  20.350  0.1860  0.4739  0.1947
 3691G1HFO link43368  15.315  14.728  20.392  0.2472  0.4326  0.3721
 3691G1HFO Tail43369  15.477  14.440  20.336 -0.0837  0.1108  0.0186
 3691G1HFO Tail43370  15.602  14.482  20.025  0.1101 -0.3028 -0.0795
 3691G1HFO Tail43371  15.488  14.461  19.730  0.4173  0.0378  0.2264
 3691G1HFO Tail43372  15.543  14.254  19.359  0.2885  0.3098 -0.0909
 3691G1HFO Tail43373  15.760  14.510  20.545  0.0759 -0.3667  0.0253
 3691G1HFO Tail43374  15.944  14.678  20.459 -0.3422  0.1129  0.1612
 3691G1HFO Tail43375  15.902  14.859  20.292  0.2269 -0.1737  0.0084
 3691G1HFO Tail43376  15.820  15.046  20.145 -0.1320  0.1220 -0.1019
 3691G1HFO Tail43377  15.796  15.248  20.031 -0.2211  0.0614  0.2921
 3692G1HFO Head43378  15.688  16.304  22.703  0.3127  0.0481 -0.1947
 3692G1HFO Head43379  15.449  16.303  22.474 -0.3557 -0.3730 -0.3421
 3692G1HFO Head43380  15.616  15.856  22.312  0.4024  0.0017 -0.4817
 3692G1HFO Head43381  15.439  16.075  22.177  0.0631 -0.3369 -0.1998
 3692G1HFO link43382  15.521  16.327  22.226  0.3072  0.1312  0.5156
 3692G1HFO link43383  15.456  16.549  22.067  0.1168 -0.1537  0.2002
 3692G1HFO Tail43384  15.353  16.499  21.763 -0.0106 -0.0329  0.4401
 3692G1HFO Tail43385  15.667  16.502  21.611  0.6370  0.1230 -0.0734
 3692G1HFO Tail43386  15.879  16.708  21.544  0.4336  0.1495 -0.6780
 3692G1HFO Tail43387  16.296  16.751  21.623  0.1914 -0.1085  0.0291
 3692G1HFO Tail43388  15.290  16.148  21.782  0.1613 -0.1384  0.0495
 3692G1HFO Tail43389  15.422  15.953  21.664 -0.1165  0.0694 -0.0574
 3692G1HFO Tail43390  15.449  15.739  21.804  0.1714  0.1457  0.4806
 3692G1HFO Tail43391  15.488  15.551  21.968 -0.1670  0.1525 -0.0896
 3692G1HFO Tail43392  15.479  15.352  22.078 -0.0144 -0.1514 -0.0649
 3693G1HFO Head43393  19.556  20.237  17.806  0.0149  0.2750 -0.0323
 3693G1HFO Head43394  19.520  19.901  17.868  0.2215  0.1081  0.0184
 3693G1HFO Head43395  19.968  19.989  17.533 -0.0503  0.3046  0.1285
 3693G1HFO Head43396  19.688  19.820  17.473 -0.0708  0.0804  0.1233
 3693G1HFO link43397  19.518  19.743  17.652 -0.2944  0.1858  0.2116
 3693G1HFO link43398  19.407  19.482  17.643 -0.3139 -0.1307  0.1286
 3693G1HFO Tail43399  19.080  19.411  17.667  0.3154 -0.0922 -0.0261
 3693G1HFO Tail43400  19.090  19.219  17.356 -0.0750 -0.0618 -0.1347
 3693G1HFO Tail43401  19.328  19.030  17.258 -0.2279  0.0343 -0.2515
 3693G1HFO Tail43402  19.556  18.907  16.914  0.0299  0.1195 -0.2637
 3693G1HFO Tail43403  19.059  19.152  17.914  0.1239 -0.2065 -0.3531
 3693G1HFO Tail43404  19.105  19.205  18.166 -0.0982 -0.2471 -0.0556
 3693G1HFO Tail43405  19.086  19.022  18.349  0.0120 -0.3120  0.1047
 3693G1HFO Tail43406  19.104  18.825  18.517  0.0544 -0.3369  0.2161
 3693G1HFO Tail43407  19.077  18.698  18.711 -0.0641 -0.2481 -0.0106
 3694G1HFO Head43408  20.442  17.736  20.422  0.1876  0.1819 -0.0359
 3694G1HFO Head43409  20.274  17.600  20.194  0.0563 -0.1845  0.1806
 3694G1HFO Head43410  20.409  18.240  19.828  0.0235  0.1232 -0.0936
 3694G1HFO Head43411  20.377  17.993  20.036  0.3283 -0.1032  0.3137
 3694G1HFO link43412  20.259  17.761  19.973  0.2241 -0.3297 -0.0384
 3694G1HFO link43413  20.198  17.693  19.704  0.1767  0.0372 -0.2748
 3694G1HFO Tail43414  20.089  17.394  19.630 -0.5993 -0.1838 -0.1372
 3694G1HFO Tail43415  19.862  17.303  19.888 -0.0991  0.2590  0.3283
 3694G1HFO Tail43416  19.576  17.146  19.938  0.3346  0.1981 -0.1485
 3694G1HFO Tail43417  19.236  16.933  19.754 -0.2172  0.0523  0.4393
 3694G1HFO Tail43418  19.878  17.473  19.371 -0.0548 -0.4309 -0.1406
 3694G1HFO Tail43419  19.825  17.714  19.275 -0.2542  0.3500 -0.1058
 3694G1HFO Tail43420  20.020  17.848  19.151 -0.1517  0.0097  0.1033
 3694G1HFO Tail43421  20.179  18.003  19.024 -0.0230 -0.3864  0.1366
 3694G1HFO Tail43422  20.368  18.104  18.929 -0.0938 -0.2788 -0.0252
 3695G1HFO Head43423  18.331  15.969  15.822  0.1539 -0.0843  0.2845
 3695G1HFO Head43424  18.022  15.943  15.731  0.1829  0.1506  0.1845
 3695G1HFO Head43425  18.101  15.516  15.483 -0.1467  0.1004  0.2157
 3695G1HFO Head43426  17.983  15.548  15.761 -0.0448  0.0815 -0.2515
 3695G1HFO link43427  17.864  15.750  15.834 -0.3446 -0.1120 -0.2595
 3695G1HFO link43428  17.583  15.763  15.901  0.0741  0.0722  0.2149
 3695G1HFO Tail43429  17.463  15.713  16.201  0.0475 -0.1966  0.1956
 3695G1HFO Tail43430  17.343  16.018  16.266  0.1893 -0.3685  0.1096
 3695G1HFO Tail43431  17.377  16.225  16.507 -0.2582  0.2921  0.0607
 3695G1HFO Tail43432  17.128  16.450  16.770  0.4026  0.1048  0.0971
 3695G1HFO Tail43433  17.194  15.507  16.134  0.0094 -0.0030 -0.3374
 3695G1HFO Tail43434  17.205  15.250  16.071  0.1649  0.1249  0.2132
 3695G1HFO Tail43435  17.425  15.172  15.967 -0.2574  0.0899  0.1788
 3695G1HFO Tail43436  17.662  15.118  15.882  0.1011  0.4054 -0.2504
 3695G1HFO Tail43437  17.864  15.116  15.770 -0.2285 -0.1282 -0.1028
 3696G1HFO Head43438  17.595  15.549  19.029 -0.0833 -0.0939  0.1432
 3696G1HFO Head43439  17.834  15.348  19.060 -0.1860 -0.0341  0.2870
 3696G1HFO Head43440  17.342  15.069  18.981  0.0994 -0.3570 -0.0442
 3696G1HFO Head43441  17.566  15.043  19.169 -0.2497 -0.0921  0.1056
 3696G1HFO link43442  17.805  15.092  19.113  0.2044  0.4632  0.3495
 3696G1HFO link43443  17.996  14.907  19.005 -0.1127  0.0271 -0.0759
 3696G1HFO Tail43444  17.974  14.583  19.070  0.1655  0.0031  0.1000
 3696G1HFO Tail43445  18.040  14.568  19.426  0.2262  0.0315  0.0964
 3696G1HFO Tail43446  18.084  14.787  19.635  0.1383  0.1835  0.2143
 3696G1HFO Tail43447  18.367  15.102  19.688 -0.0508  0.5213  0.3133
 3696G1HFO Tail43448  17.632  14.548  19.080 -0.0575  0.1039  0.4342
 3696G1HFO Tail43449  17.518  14.506  19.309  0.0963 -0.1068  0.0764
 3696G1HFO Tail43450  17.304  14.362  19.331  0.0406 -0.1166 -0.0143
 3696G1HFO Tail43451  17.076  14.258  19.345 -0.0073  0.1564 -0.0598
 3696G1HFO Tail43452  16.877  14.160  19.417 -0.3514  0.0272  0.0270
 3697G1HFO Head43453  20.232  16.486  20.322  0.1168  0.1912  0.4148
 3697G1HFO Head43454  20.063  16.279  20.147  0.0014 -0.2399 -0.2828
 3697G1HFO Head43455  20.279  15.996  20.522  0.0262 -0.1175 -0.0599
 3697G1HFO Head43456  19.974  16.082  20.513 -0.1441  0.1821 -0.1631
 3697G1HFO link43457  19.869  16.155  20.291 -0.7093 -0.2235 -0.2120
 3697G1HFO link43458  19.604  16.226  20.243 -0.1516  0.2152  0.1789
 3697G1HFO Tail43459  19.376  15.979  20.273  0.0786  0.0370 -0.0397
 3697G1HFO Tail43460  19.081  16.162  20.212 -0.2830 -0.1523 -0.1927
 3697G1HFO Tail43461  18.785  16.156  20.334  0.2584 -0.1199  0.1822
 3697G1HFO Tail43462  18.366  16.125  20.213  0.0926  0.1109  0.6286
 3697G1HFO Tail43463  19.428  15.832  19.965  0.0145 -0.2267  0.2519
 3697G1HFO Tail43464  19.397  15.570  19.918  0.1529  0.2850  0.0490
 3697G1HFO Tail43465  19.612  15.431  19.944 -0.1136  0.2099 -0.0323
 3697G1HFO Tail43466  19.845  15.336  19.931  0.1050  0.0575  0.0149
 3697G1HFO Tail43467  20.031  15.236  19.846  0.0133  0.5163 -0.3239
 3698G1HFO Head43468  15.412  20.620  20.745  0.2969 -0.1780 -0.0192
 3698G1HFO Head43469  15.714  20.527  20.774 -0.2123 -0.0423 -0.2864
 3698G1HFO Head43470  16.332  20.767  20.515  0.1933 -0.0008 -0.4476
 3698G1HFO Head43471  16.122  20.577  20.680 -0.1268 -0.1324  0.1074
 3698G1HFO link43472  15.889  20.567  20.574 -0.2955  0.2441 -0.2737
 3698G1HFO link43473  15.833  20.520  20.302  0.2249  0.1220 -0.0680
 3698G1HFO Tail43474  15.801  20.212  20.155 -0.3050  0.0603 -0.6282
 3698G1HFO Tail43475  16.109  20.222  19.993 -0.2710 -0.1522  0.0373
 3698G1HFO Tail43476  16.201  20.355  19.707  0.2419  0.3380  0.3047
 3698G1HFO Tail43477  16.455  20.319  19.345  0.0985  0.5464 -0.0415
 3698G1HFO Tail43478  15.895  20.022  20.423  0.0316 -0.1447  0.2404
 3698G1HFO Tail43479  15.875  20.124  20.668 -0.4245  0.1363  0.2427
 3698G1HFO Tail43480  16.091  20.112  20.800  0.2609  0.2599  0.0767
 3698G1HFO Tail43481  16.292  20.128  20.956  0.0073  0.0538  0.0060
 3698G1HFO Tail43482  16.447  20.132  21.128  0.2876  0.1088 -0.0675
 3699G1HFO Head43483  14.333  14.711  19.593  0.1966  0.0694 -0.1857
 3699G1HFO Head43484  14.085  14.662  19.400 -0.0127  0.2056  0.7429
 3699G1HFO Head43485  13.614  14.826  19.027  0.2277  0.5551 -0.2096
 3699G1HFO Head43486  13.766  14.868  19.270  0.5884  0.2784 -0.3290
 3699G1HFO link43487  14.009  14.867  19.254  0.3364 -0.1134 -0.6677
 3699G1HFO link43488  14.182  15.049  19.120  0.2300  0.2089 -0.1037
 3699G1HFO Tail43489  14.206  15.374  19.222  0.0968  0.0480 -0.0189
 3699G1HFO Tail43490  14.526  15.448  19.055  0.0480 -0.0148 -0.2268
 3699G1HFO Tail43491  14.806  15.328  19.027 -0.2541  0.2049  0.1438
 3699G1HFO Tail43492  15.219  15.408  18.914 -0.0225  0.3571 -0.0782
 3699G1HFO Tail43493  13.941  15.530  19.053  0.0400  0.0895  0.5714
 3699G1HFO Tail43494  13.957  15.762  18.921 -0.2772 -0.2002 -0.3126
 3699G1HFO Tail43495  14.180  15.910  18.935 -0.1311  0.2542 -0.1339
 3699G1HFO Tail43496  14.372  16.084  18.949  0.1977 -0.2159  0.1513
 3699G1HFO Tail43497  14.511  16.271  18.990  0.1760  0.0589 -0.0725
 3700G1HFO Head43498  13.772  19.734  18.008 -0.0573 -0.1879  0.0739
 3700G1HFO Head43499  14.115  19.686  17.921 -0.3862 -0.1192 -0.1647
 3700G1HFO Head43500  13.928  19.404  18.333  0.0347 -0.2139  0.2334
 3700G1HFO Head43501  14.051  19.296  18.086 -0.2113  0.0131  0.0400
 3700G1HFO link43502  14.227  19.446  17.939  0.0177  0.0340  0.4027
 3700G1HFO link43503  14.488  19.361  17.843 -0.0611 -0.0652  0.2518
 3700G1HFO Tail43504  14.496  19.212  17.555  0.1379  0.0935  0.1244
 3700G1HFO Tail43505  14.796  19.030  17.595 -0.2007 -0.0484 -0.3873
 3700G1HFO Tail43506  15.108  19.129  17.695 -0.0309  0.2449  0.0927
 3700G1HFO Tail43507  15.288  19.446  17.939 -0.1193  0.1761  0.0468
 3700G1HFO Tail43508  14.269  18.967  17.640 -0.0396  0.0279  0.0861
 3700G1HFO Tail43509  14.175  18.936  17.880  0.2691  0.1207  0.2121
 3700G1HFO Tail43510  14.191  18.707  18.006 -0.0626  0.2502  0.1985
 3700G1HFO Tail43511  14.192  18.511  18.171  0.0923  0.0143  0.0491
 3700G1HFO Tail43512  14.244  18.371  18.356  0.0530  0.2472 -0.2101
 3701G1HFO Head43513  13.544  14.907  20.397  0.0612  0.3869 -0.1023
 3701G1HFO Head43514  13.803  15.047  20.465 -0.0594 -0.0721  0.0900
 3701G1HFO Head43515  14.022  15.166  20.935 -0.0617  0.1288 -0.2456
 3701G1HFO Head43516  13.781  15.272  20.826 -0.2919 -0.0131  0.1400
 3701G1HFO link43517  13.803  15.304  20.577 -0.1653 -0.1905  0.7611
 3701G1HFO link43518  13.831  15.551  20.417  0.0404 -0.1464 -0.4027
 3701G1HFO Tail43519  14.015  15.821  20.478  0.4468 -0.0622 -0.1222
 3701G1HFO Tail43520  14.193  15.806  20.184  0.0698  0.2194  0.1202
 3701G1HFO Tail43521  14.415  15.615  20.061  0.0902  0.0467 -0.3724
 3701G1HFO Tail43522  14.731  15.349  20.217  0.1428  0.1699 -0.2174
 3701G1HFO Tail43523  13.776  16.058  20.455  0.2782  0.3459  0.2245
 3701G1HFO Tail43524  13.723  16.251  20.625  0.1437 -0.0981 -0.4323
 3701G1HFO Tail43525  13.885  16.454  20.613  0.1197 -0.0206 -0.1845
 3701G1HFO Tail43526  14.065  16.623  20.602  0.1557 -0.2817  0.0319
 3701G1HFO Tail43527  14.219  16.789  20.661 -0.4112  0.0791  0.2168
 3702G1HFO Head43528  19.996  16.962  20.681 -0.0104 -0.2080  0.3642
 3702G1HFO Head43529  19.758  17.074  20.561 -0.1298 -0.3024  0.0124
 3702G1HFO Head43530  20.296  17.317  20.583  0.1663 -0.0220 -0.5933
 3702G1HFO Head43531  19.974  17.437  20.618 -0.0228  0.2546  0.0827
 3702G1HFO link43532  19.767  17.326  20.487  0.4118  0.6666 -0.1637
 3702G1HFO link43533  19.546  17.464  20.379 -0.1813  0.0131 -0.0509
 3702G1HFO Tail43534  19.591  17.789  20.344  0.3428  0.0267 -0.2229
 3702G1HFO Tail43535  19.470  17.829  20.015  0.3752 -0.0756 -0.0272
 3702G1HFO Tail43536  19.518  17.682  19.751 -0.2136  0.1344  0.1525
 3702G1HFO Tail43537  19.377  17.409  19.444 -0.2162 -0.2138 -0.4934
 3702G1HFO Tail43538  19.318  17.943  20.503 -0.0208 -0.0340 -0.1108
 3702G1HFO Tail43539  19.210  17.852  20.739  0.1378 -0.3557  0.2499
 3702G1HFO Tail43540  19.095  17.617  20.765 -0.1321 -0.1128 -0.2265
 3702G1HFO Tail43541  18.953  17.415  20.810 -0.2206 -0.0524 -0.0698
 3702G1HFO Tail43542  18.877  17.201  20.862 -0.0805 -0.0722  0.3435
 3703G1HFO Head43543  15.578  14.308  16.825  0.2038  0.2031 -0.1000
 3703G1HFO Head43544  15.302  14.201  16.939 -0.5660 -0.4101  0.0511
 3703G1HFO Head43545  14.966  13.924  17.157 -0.3047 -0.2086 -0.0333
 3703G1HFO Head43546  15.052  14.176  17.266  0.2064 -0.2190 -0.1507
 3703G1HFO link43547  15.165  14.355  17.102 -0.3915  0.3092  0.4783
 3703G1HFO link43548  15.287  14.600  17.183  0.2522 -0.0323  0.0219
 3703G1HFO Tail43549  15.601  14.667  17.162 -0.3184  0.0857  0.7472
 3703G1HFO Tail43550  15.654  14.954  17.345  0.1744 -0.2231  0.3588
 3703G1HFO Tail43551  15.775  15.225  17.250 -0.0477  0.1576  0.0351
 3703G1HFO Tail43552  15.858  15.453  16.891 -0.0992  0.2521 -0.4004
 3703G1HFO Tail43553  15.726  14.396  17.354  0.0376  0.0796  0.1810
 3703G1HFO Tail43554  15.637  14.342  17.591  0.0384 -0.1390  0.2374
 3703G1HFO Tail43555  15.379  14.343  17.609  0.0409  0.0335  0.2787
 3703G1HFO Tail43556  15.140  14.384  17.646  0.1226  0.0320  0.1210
 3703G1HFO Tail43557  14.921  14.400  17.733  0.1266 -0.2333  0.3321
 3704G1HFO Head43558  14.435  19.928  17.615 -0.2012 -0.2240  0.0620
 3704G1HFO Head43559  14.596  20.199  17.752 -0.4825  0.2664 -0.3822
 3704G1HFO Head43560  14.580  20.170  18.214 -0.2590 -0.0328 -0.0567
 3704G1HFO Head43561  14.818  20.231  18.099 -0.0895 -0.2460  0.2138
 3704G1HFO link43562  14.845  20.193  17.836 -0.2186 -0.2557 -0.0863
 3704G1HFO link43563  15.070  20.106  17.681 -0.0726 -0.3271 -0.4340
 3704G1HFO Tail43564  15.048  19.842  17.487 -0.1385  0.0316  0.3042
 3704G1HFO Tail43565  15.373  19.710  17.536  0.0290  0.1815  0.0576
 3704G1HFO Tail43566  15.559  19.430  17.540  0.0568 -0.0574  0.2652
 3704G1HFO Tail43567  15.515  18.983  17.529 -0.3124 -0.2437 -0.0547
 3704G1HFO Tail43568  14.878  19.654  17.693 -0.0385 -0.0467  0.4192
 3704G1HFO Tail43569  14.842  19.727  17.951  0.1046 -0.0197 -0.0729
 3704G1HFO Tail43570  15.029  19.838  18.084  0.0021  0.0516  0.1230
 3704G1HFO Tail43571  15.212  19.929  18.230 -0.1467 -0.2234 -0.1029
 3704G1HFO Tail43572  15.340  20.060  18.373 -0.1181 -0.1859 -0.2060
 3705G1HFO Head43573  17.973  16.260  22.569 -0.1648 -0.2730 -0.0099
 3705G1HFO Head43574  17.814  16.310  22.270  0.1428  0.1196  0.2230
 3705G1HFO Head43575  17.759  15.771  22.531  0.0543  0.0149  0.0639
 3705G1HFO Head43576  17.812  15.852  22.233  0.2173 -0.1946  0.1811
 3705G1HFO link43577  17.712  16.074  22.140 -0.0885 -0.0620  0.0049
 3705G1HFO link43578  17.519  16.110  21.922  0.1984  0.2630  0.0386
 3705G1HFO Tail43579  17.540  16.365  21.719 -0.0221  0.1232 -0.0785
 3705G1HFO Tail43580  17.187  16.422  21.671  0.0754 -0.2632  0.0046
 3705G1HFO Tail43581  16.997  16.352  21.445 -0.2025 -0.0542 -0.2124
 3705G1HFO Tail43582  16.609  16.467  21.292  0.4823  0.0556  0.1533
 3705G1HFO Tail43583  17.613  16.616  21.942 -0.1128 -0.0591 -0.0533
 3705G1HFO Tail43584  17.486  16.621  22.160 -0.2376  0.1743 -0.0402
 3705G1HFO Tail43585  17.604  16.684  22.387 -0.1276  0.0412  0.1055
 3705G1HFO Tail43586  17.745  16.767  22.582 -0.0856  0.1886  0.1443
 3705G1HFO Tail43587  17.880  16.906  22.716 -0.0919  0.2906 -0.1524
 3706G1HFO Head43588  16.962  17.043  18.645  0.1461  0.1335 -0.2035
 3706G1HFO Head43589  17.108  16.888  18.435  0.1042 -0.3099 -0.0971
 3706G1HFO Head43590  16.829  16.454  18.425  0.1050 -0.0391  0.1483
 3706G1HFO Head43591  16.794  16.707  18.247  0.1162  0.3227 -0.5513
 3706G1HFO link43592  16.984  16.863  18.210 -0.0997  0.0128  0.0812
 3706G1HFO link43593  17.076  16.935  17.945  0.0030  0.0663  0.1090
 3706G1HFO Tail43594  16.938  17.169  17.763 -0.4228  0.0735 -0.0344
 3706G1HFO Tail43595  17.194  17.300  17.584 -0.0432 -0.1615  0.3089
 3706G1HFO Tail43596  17.413  17.217  17.379  0.1958 -0.1987 -0.3106
 3706G1HFO Tail43597  17.711  16.901  17.302 -0.0555  0.0736 -0.2361
 3706G1HFO Tail43598  16.756  16.984  17.532 -0.1225 -0.1372  0.1693
 3706G1HFO Tail43599  16.824  17.023  17.290 -0.2692 -0.0973  0.0309
 3706G1HFO Tail43600  17.028  16.893  17.193 -0.3496 -0.0963 -0.0838
 3706G1HFO Tail43601  17.231  16.766  17.152  0.0330 -0.0162  0.0319
 3706G1HFO Tail43602  17.384  16.587  17.103  0.1785 -0.0822 -0.2196
 3707G1HFO Head43603  18.111  18.371  15.420  0.1387  0.3286  0.0226
 3707G1HFO Head43604  18.126  18.293  15.690  0.0111 -0.1643 -0.0025
 3707G1HFO Head43605  18.097  18.781  15.764 -0.1938  0.0804  0.1087
 3707G1HFO Head43606  17.866  18.599  15.794  0.1811  0.0702  0.0592
 3707G1HFO link43607  17.912  18.350  15.840 -0.1513  0.0688  0.1523
 3707G1HFO link43608  17.716  18.173  15.944 -0.0659  0.2290 -0.0776
 3707G1HFO Tail43609  17.731  18.056  16.244  0.2451 -0.0328  0.0083
 3707G1HFO Tail43610  17.767  17.723  16.163 -0.2328 -0.0022 -0.1830
 3707G1HFO Tail43611  17.980  17.513  16.248 -0.0018  0.0398  0.2518
 3707G1HFO Tail43612  18.294  17.485  16.549  0.1528 -0.1786 -0.3569
 3707G1HFO Tail43613  18.071  18.138  16.311  0.5333  0.1991  0.1421
 3707G1HFO Tail43614  18.229  17.930  16.278 -0.0872 -0.2158  0.2040
 3707G1HFO Tail43615  18.334  17.912  16.040  0.0273 -0.0059  0.0093
 3707G1HFO Tail43616  18.408  17.897  15.794 -0.0340  0.2189  0.0457
 3707G1HFO Tail43617  18.415  17.890  15.562 -0.1990  0.0820 -0.3565
 3708G1HFO Head43618  15.975  14.510  16.587 -0.1411  0.5289 -0.0496
 3708G1HFO Head43619  15.994  14.461  16.870 -0.0649  0.1248 -0.1940
 3708G1HFO Head43620  15.632  14.806  16.758 -0.0865 -0.1165 -0.3329
 3708G1HFO Head43621  15.907  14.858  16.902  0.8297 -0.3108 -0.0672
 3708G1HFO link43622  16.040  14.663  17.019 -0.1239 -0.3211 -0.1220
 3708G1HFO link43623  16.109  14.690  17.291  0.1724 -0.3147  0.3200
 3708G1HFO Tail43624  16.368  14.861  17.411 -0.0888  0.0852 -0.1981
 3708G1HFO Tail43625  16.616  14.801  17.174  0.0815 -0.3739  0.2011
 3708G1HFO Tail43626  16.932  14.777  17.194  0.0946 -0.1536 -0.0970
 3708G1HFO Tail43627  17.256  14.846  17.480 -0.0286  0.3237 -0.1410
 3708G1HFO Tail43628  16.275  15.180  17.320 -0.0788  0.1340  0.1040
 3708G1HFO Tail43629  16.208  15.219  17.065  0.3492 -0.0252 -0.0048
 3708G1HFO Tail43630  16.341  15.082  16.890 -0.1932  0.1707 -0.1433
 3708G1HFO Tail43631  16.435  14.936  16.699 -0.2050  0.0275 -0.1460
 3708G1HFO Tail43632  16.523  14.751  16.574  0.0574  0.0996  0.0117
 3709G1HFO Head43633  16.266  15.153  22.112 -0.2032  0.2034 -0.2905
 3709G1HFO Head43634  16.321  14.958  21.915  0.0526  0.1491 -0.0150
 3709G1HFO Head43635  16.782  14.748  22.071  0.0045 -0.0028 -0.1826
 3709G1HFO Head43636  16.716  14.837  21.795  0.2166  0.4252 -0.1986
 3709G1HFO link43637  16.512  14.991  21.744 -0.5314 -0.1208 -0.5118
 3709G1HFO link43638  16.515  15.180  21.537 -0.1678  0.0216 -0.1809
 3709G1HFO Tail43639  16.711  15.448  21.541 -0.2817  0.0308 -0.3642
 3709G1HFO Tail43640  16.458  15.693  21.497  0.1402 -0.0736  0.1475
 3709G1HFO Tail43641  16.457  16.001  21.477 -0.3074 -0.4789 -0.1356
 3709G1HFO Tail43642  16.206  16.314  21.648 -0.1962  0.1802 -0.1937
 3709G1HFO Tail43643  16.770  15.453  21.886 -0.1411 -0.2788 -0.0522
 3709G1HFO Tail43644  16.699  15.640  22.048 -0.1575  0.0805 -0.0197
 3709G1HFO Tail43645  16.731  15.883  21.961  0.0024 -0.1409 -0.2571
 3709G1HFO Tail43646  16.724  16.119  21.865  0.0343 -0.0141  0.0240
 3709G1HFO Tail43647  16.762  16.341  21.833  0.1601  0.1242 -0.0604
 3710G1HFO Head43648  20.651  16.404  19.695  0.0890 -0.0638 -0.0441
 3710G1HFO Head43649  20.319  16.411  19.760 -0.0106  0.6202 -0.0967
 3710G1HFO Head43650  20.409  17.100  19.759  0.0912  0.0472 -0.0322
 3710G1HFO Head43651  20.395  16.806  19.923 -0.0227 -0.0804 -0.0994
 3710G1HFO link43652  20.206  16.639  19.867  0.4038 -0.5116 -0.1178
 3710G1HFO link43653  19.932  16.717  19.854 -0.0191  0.2081  0.0049
 3710G1HFO Tail43654  19.672  16.517  19.829 -0.1109 -0.5380 -0.0997
 3710G1HFO Tail43655  19.535  16.562  19.512  0.2025 -0.1059  0.1424
 3710G1HFO Tail43656  19.596  16.399  19.234 -0.2073 -0.2905  0.0451
 3710G1HFO Tail43657  19.444  16.243  18.857 -0.0340 -0.2335  0.1609
 3710G1HFO Tail43658  19.857  16.235  19.740 -0.0211 -0.3132 -0.0030
 3710G1HFO Tail43659  19.796  15.992  19.782 -0.1986 -0.2722 -0.1354
 3710G1HFO Tail43660  19.905  15.880  19.988 -0.1018  0.0162 -0.0216
 3710G1HFO Tail43661  20.027  15.739  20.157  0.2864 -0.1214  0.0743
 3710G1HFO Tail43662  20.180  15.597  20.263  0.3408  0.0611 -0.1399
 3711G1HFO Head43663  17.692  18.646  19.039  0.2370  0.1932  0.0131
 3711G1HFO Head43664  17.620  18.884  19.233 -0.1716  0.3460  0.4069
 3711G1HFO Head43665  17.192  18.583  19.126  0.1597  0.0206  0.2068
 3711G1HFO Head43666  17.190  18.883  19.193 -0.5447  0.0001 -0.1140
 3711G1HFO link43667  17.429  19.041  19.137  0.1933  0.3693  0.1161
 3711G1HFO link43668  17.404  19.321  19.144 -0.0271  0.1233 -0.1169
 3711G1HFO Tail43669  17.572  19.536  18.960  0.2801  0.1395 -0.3956
 3711G1HFO Tail43670  17.350  19.791  19.008 -0.1165 -0.2024  0.1966
 3711G1HFO Tail43671  17.226  19.975  18.780 -0.2691 -0.1932 -0.1216
 3711G1HFO Tail43672  16.875  20.211  18.704 -0.1573  0.3486  0.3084
 3711G1HFO Tail43673  17.811  19.645  19.196  0.2723 -0.5180  0.0258
 3711G1HFO Tail43674  17.786  19.600  19.444  0.0417 -0.3909  0.0022
 3711G1HFO Tail43675  17.798  19.354  19.532 -0.0940 -0.0304 -0.1166
 3711G1HFO Tail43676  17.805  19.096  19.581 -0.0765  0.0604 -0.1356
 3711G1HFO Tail43677  17.860  18.863  19.571 -0.3945 -0.2168  0.0572
 3712G1HFO Head43678  18.066  17.177  22.396  0.2569  0.0880  0.0473
 3712G1HFO Head43679  17.827  17.092  22.269  0.0797 -0.2350  0.1370
 3712G1HFO Head43680  17.549  17.263  22.852  0.1468  0.0295 -0.0910
 3712G1HFO Head43681  17.666  17.333  22.596 -0.1657  0.7177 -0.0301
 3712G1HFO link43682  17.612  17.197  22.369 -0.3423  0.1506  0.3169
 3712G1HFO link43683  17.366  17.193  22.228 -0.1186 -0.2153 -0.2934
 3712G1HFO Tail43684  17.354  17.261  21.908 -0.3594 -0.0696 -0.3069
 3712G1HFO Tail43685  17.296  16.959  21.754  0.2611 -0.1116 -0.2121
 3712G1HFO Tail43686  17.074  16.868  21.537 -0.2751  0.3321 -0.1942
 3712G1HFO Tail43687  17.005  16.786  21.125 -0.1743  0.2643 -0.1259
 3712G1HFO Tail43688  17.017  17.325  21.903 -0.0967 -0.1627  0.0522
 3712G1HFO Tail43689  16.873  17.353  22.115  0.2645  0.2256 -0.2552
 3712G1HFO Tail43690  16.722  17.558  22.153  0.0882 -0.2187 -0.1031
 3712G1HFO Tail43691  16.599  17.777  22.137 -0.0256 -0.1709  0.0678
 3712G1HFO Tail43692  16.425  17.936  22.147 -0.0544  0.0422  0.1065
 3713G1HFO Head43693  17.248  21.072  20.862  0.3951  0.0258  0.0277
 3713G1HFO Head43694  17.220  21.031  20.578 -0.3826 -0.4699  0.1749
 3713G1HFO Head43695  16.802  21.253  20.881  0.0986 -0.1707  0.2499
 3713G1HFO Head43696  16.931  21.299  20.594 -0.1151 -0.0572 -0.1258
 3713G1HFO link43697  16.980  21.078  20.447 -0.0794 -0.4345  0.1330
 3713G1HFO link43698  16.793  20.876  20.410 -0.3020  0.4084  0.1714
 3713G1HFO Tail43699  16.854  20.557  20.406  0.2599  0.4998 -0.0213
 3713G1HFO Tail43700  16.734  20.482  20.084 -0.0967 -0.5386 -0.0881
 3713G1HFO Tail43701  16.599  20.265  19.899  0.1590  0.3978  0.1277
 3713G1HFO Tail43702  16.436  19.874  19.908  0.1754  0.3716 -0.0881
 3713G1HFO Tail43703  17.211  20.566  20.369 -0.0852 -0.0150  0.4688
 3713G1HFO Tail43704  17.370  20.519  20.574 -0.3200 -0.1771  0.1835
 3713G1HFO Tail43705  17.291  20.612  20.805 -0.0044 -0.0935  0.0355
 3713G1HFO Tail43706  17.233  20.663  21.045 -0.3882 -0.0092 -0.1937
 3713G1HFO Tail43707  17.235  20.727  21.268 -0.0043 -0.2025 -0.2014
 3714G1HFO Head43708  20.459  16.060  20.031  0.2578  0.1409  0.1479
 3714G1HFO Head43709  20.251  15.990  19.816 -0.5218  0.2911 -0.3417
 3714G1HFO Head43710  20.624  15.556  19.871  0.1497 -0.4303  0.1063
 3714G1HFO Head43711  20.500  15.681  19.636  0.2838 -0.0258  0.1591
 3714G1HFO link43712  20.257  15.771  19.652  0.3134 -0.1928  0.2696
 3714G1HFO link43713  20.019  15.646  19.556  0.0694  0.3508  0.0101
 3714G1HFO Tail43714  20.058  15.362  19.385  0.1600  0.1538  0.0229
 3714G1HFO Tail43715  19.843  15.459  19.125 -0.3076 -0.0251  0.4382
 3714G1HFO Tail43716  19.571  15.356  18.986  0.1756  0.3391 -0.2826
 3714G1HFO Tail43717  19.290  15.011  19.044  0.0273 -0.1411  0.0240
 3714G1HFO Tail43718  20.399  15.419  19.302  0.0532 -0.0057  0.2719
 3714G1HFO Tail43719  20.472  15.620  19.160  0.0167  0.0645  0.4493
 3714G1HFO Tail43720  20.298  15.811  19.108  0.1658  0.0902  0.1133
 3714G1HFO Tail43721  20.119  15.954  19.001 -0.1579 -0.0548 -0.1537
 3714G1HFO Tail43722  19.921  16.051  18.917  0.1553 -0.0949 -0.2737
 3715G1HFO Head43723  18.271  17.445  17.822  0.1303  0.2701 -0.2041
 3715G1HFO Head43724  18.344  17.172  17.751  0.2320  0.1066 -0.1167
 3715G1HFO Head43725  17.792  17.380  17.607  0.0848  0.0253  0.0826
 3715G1HFO Head43726  18.044  17.218  17.504 -0.0123 -0.4513 -0.0058
 3715G1HFO link43727  18.168  17.028  17.608 -0.0998  0.3505  0.2129
 3715G1HFO link43728  18.208  16.777  17.462 -0.2486  0.1472 -0.0958
 3715G1HFO Tail43729  18.332  16.508  17.609  0.2977  0.2765  0.2710
 3715G1HFO Tail43730  18.240  16.254  17.384 -0.1320 -0.0657 -0.3800
 3715G1HFO Tail43731  18.277  16.215  17.062 -0.2824  0.1734  0.3029
 3715G1HFO Tail43732  18.298  15.921  16.745  0.3304 -0.1040 -0.3397
 3715G1HFO Tail43733  18.665  16.543  17.558  0.1248 -0.0731  0.5603
 3715G1HFO Tail43734  18.807  16.761  17.504  0.1164 -0.4243 -0.1943
 3715G1HFO Tail43735  18.684  16.980  17.419 -0.0667 -0.0257  0.1842
 3715G1HFO Tail43736  18.556  17.202  17.359 -0.1008 -0.0069 -0.1198
 3715G1HFO Tail43737  18.427  17.402  17.370 -0.0148  0.0774  0.0592
 3716G1HFO Head43738  16.717  16.038  18.194  0.1143 -0.3233 -0.2610
 3716G1HFO Head43739  16.559  15.894  18.021  0.5561  0.0871  0.0232
 3716G1HFO Head43740  16.470  15.386  18.378  0.2710 -0.0825  0.1674
 3716G1HFO Head43741  16.401  15.513  18.103 -0.4754 -0.2115  0.2965
 3716G1HFO link43742  16.583  15.648  17.956 -0.3328  0.0336  0.0261
 3716G1HFO link43743  16.692  15.547  17.717  0.2426 -0.4156 -0.0182
 3716G1HFO Tail43744  16.694  15.738  17.455  0.4942  0.0910  0.3130
 3716G1HFO Tail43745  16.416  15.634  17.260  0.0065  0.5252 -0.4673
 3716G1HFO Tail43746  16.236  15.709  17.016 -0.4376 -0.4490 -0.0588
 3716G1HFO Tail43747  15.902  15.987  16.948 -0.0391  0.0071 -0.2214
 3716G1HFO Tail43748  16.555  16.039  17.593 -0.1111 -0.2318  0.0598
 3716G1HFO Tail43749  16.671  16.191  17.787 -0.0999  0.1765  0.0138
 3716G1HFO Tail43750  16.593  16.435  17.808 -0.0173 -0.0073  0.3166
 3716G1HFO Tail43751  16.478  16.660  17.859 -0.1368  0.0296  0.0199
 3716G1HFO Tail43752  16.443  16.875  17.934  0.0664  0.0053  0.2738
 3717G1HFO Head43753  15.138  21.059  17.950  0.2756  0.0410  0.1149
 3717G1HFO Head43754  15.381  20.953  17.801  0.2190 -0.1185 -0.2534
 3717G1HFO Head43755  14.866  20.984  17.540  0.1205 -0.1599 -0.1968
 3717G1HFO Head43756  15.125  20.736  17.567 -0.2612  0.3116 -0.0088
 3717G1HFO link43757  15.358  20.828  17.571  0.0142 -0.0760  0.5497
 3717G1HFO link43758  15.587  20.716  17.432  0.0995 -0.1002 -0.0860
 3717G1HFO Tail43759  15.881  20.692  17.573 -0.0481  0.5528 -0.1023
 3717G1HFO Tail43760  15.914  20.361  17.630  0.0709 -0.3144  0.5365
 3717G1HFO Tail43761  15.992  20.225  17.921 -0.0215  0.4101 -0.1847
 3717G1HFO Tail43762  15.849  20.110  18.322  0.3528  0.2844 -0.4233
 3717G1HFO Tail43763  15.776  20.795  17.896 -0.1488 -0.1256  0.0820
 3717G1HFO Tail43764  15.795  21.043  17.949 -0.1101 -0.5604 -0.0530
 3717G1HFO Tail43765  15.985  21.120  18.115  0.0246 -0.1279  0.0681
 3717G1HFO Tail43766  16.144  21.227  18.275  0.1509 -0.1408  0.2104
 3717G1HFO Tail43767  16.291  21.372  18.396 -0.0665 -0.1066  0.0868
 3718G1HFO Head43768  20.770  19.372  17.179 -0.0533 -0.1339  0.0968
 3718G1HFO Head43769  20.607  19.582  17.288 -0.5205 -0.0243 -0.3923
 3718G1HFO Head43770  20.938  19.913  17.293 -0.0893  0.0849 -0.0401
 3718G1HFO Head43771  20.663  19.971  17.147  0.2255 -0.3736 -0.1933
 3718G1HFO link43772  20.490  19.770  17.137  0.0241  0.3492 -0.3352
 3718G1HFO link43773  20.210  19.824  17.099 -0.0199 -0.0488 -0.0693
 3718G1HFO Tail43774  19.979  19.606  17.173  0.1375  0.0262 -0.1277
 3718G1HFO Tail43775  19.891  19.468  16.856  0.1898  0.0515  0.1929
 3718G1HFO Tail43776  19.637  19.343  16.718  0.2976 -0.4183  0.0171
 3718G1HFO Tail43777  19.222  19.249  16.824  0.0245  0.0338 -0.2317
 3718G1HFO Tail43778  20.194  19.352  17.261 -0.2503  0.2063 -0.1534
 3718G1HFO Tail43779  20.166  19.145  17.420 -0.2475  0.1693  0.1730
 3718G1HFO Tail43780  19.994  18.959  17.343 -0.1173 -0.0643  0.1011
 3718G1HFO Tail43781  19.811  18.800  17.297  0.0058  0.2156  0.1169
 3718G1HFO Tail43782  19.628  18.647  17.316  0.0570  0.2485  0.2909
 3719G1HFO Head43783  14.681  19.680  18.409  0.0694 -0.0459  0.1221
 3719G1HFO Head43784  14.495  19.450  18.278  0.0350 -0.0356  0.0895
 3719G1HFO Head43785  14.358  19.510  18.736  0.3122  0.4632 -0.4610
 3719G1HFO Head43786  14.489  19.279  18.649  0.2534 -0.2069  0.3546
 3719G1HFO link43787  14.465  19.237  18.408 -0.2571 -0.1606  0.0772
 3719G1HFO link43788  14.310  19.020  18.334 -0.4380 -0.1938 -0.1433
 3719G1HFO Tail43789  14.351  18.726  18.494  0.0399  0.3154  0.4730
 3719G1HFO Tail43790  14.612  18.603  18.319 -0.1004  0.1955 -0.5025
 3719G1HFO Tail43791  14.645  18.358  18.116 -0.1524 -0.1105 -0.3190
 3719G1HFO Tail43792  14.919  18.041  17.972  0.0351 -0.0850 -0.2214
 3719G1HFO Tail43793  14.524  18.822  18.795 -0.1212  0.0995  0.2892
 3719G1HFO Tail43794  14.759  18.937  18.794  0.2284  0.1348 -0.0562
 3719G1HFO Tail43795  14.883  18.956  18.573  0.0858 -0.4457  0.2495
 3719G1HFO Tail43796  15.036  19.000  18.375  0.1267 -0.0091  0.1635
 3719G1HFO Tail43797  15.138  19.019  18.166  0.0544  0.1378  0.0953
 3720G1HFO Head43798  19.777  16.204  16.084  0.0278 -0.0703  0.0922
 3720G1HFO Head43799  19.510  16.333  15.944 -0.2560  0.1374  0.0312
 3720G1HFO Head43800  19.359  15.777  15.668  0.0418  0.0718  0.1054
 3720G1HFO Head43801  19.402  15.933  15.954  0.0695  0.3238 -0.0082
 3720G1HFO link43802  19.306  16.194  15.970  0.2481  0.1446  0.1202
 3720G1HFO link43803  19.053  16.297  16.053 -0.0349  0.0566  0.1525
 3720G1HFO Tail43804  18.967  16.355  16.385 -0.2027  0.5163  0.0330
 3720G1HFO Tail43805  18.859  16.683  16.345 -0.4398  0.0346 -0.1214
 3720G1HFO Tail43806  18.590  16.817  16.378  0.0165  0.0324 -0.2204
 3720G1HFO Tail43807  18.244  16.885  16.629  0.0823 -0.2597 -0.0364
 3720G1HFO Tail43808  18.676  16.165  16.381  0.1671 -0.1028  0.2186
 3720G1HFO Tail43809  18.607  16.036  16.161 -0.2086  0.2513  0.0329
 3720G1HFO Tail43810  18.800  15.897  16.041  0.0537  0.1105 -0.0513
 3720G1HFO Tail43811  18.933  15.731  15.902 -0.4023 -0.0672 -0.0100
 3720G1HFO Tail43812  19.048  15.540  15.823 -0.2106 -0.1769 -0.1184
 3721G1HFO Head43813  17.092  16.334  18.005  0.3516 -0.2077 -0.0843
 3721G1HFO Head43814  17.273  16.490  17.849  0.3131 -0.1404 -0.2446
 3721G1HFO Head43815  17.470  16.930  17.708 -0.1880  0.2080  0.0660
 3721G1HFO Head43816  17.426  16.686  17.533  0.0154 -0.1852 -0.0769
 3721G1HFO link43817  17.224  16.538  17.604 -0.5487 -0.4011  0.1851
 3721G1HFO link43818  16.985  16.489  17.478 -0.1851 -0.0124  0.2704
 3721G1HFO Tail43819  16.925  16.192  17.334 -0.1224  0.1857 -0.2212
 3721G1HFO Tail43820  17.204  16.188  17.132  0.0300  0.4156 -0.0652
 3721G1HFO Tail43821  17.470  16.006  17.117  0.0250 -0.0195  0.3827
 3721G1HFO Tail43822  17.885  15.911  17.039  0.0696  0.1372  0.0263
 3721G1HFO Tail43823  17.059  15.988  17.598  0.2366 -0.2956  0.2021
 3721G1HFO Tail43824  17.315  15.994  17.646 -0.1394 -0.0606 -0.3689
 3721G1HFO Tail43825  17.476  16.182  17.541 -0.0450 -0.0971 -0.0510
 3721G1HFO Tail43826  17.667  16.321  17.454  0.2926  0.2505 -0.2154
 3721G1HFO Tail43827  17.827  16.414  17.297  0.0160 -0.3066 -0.3613
 3722G1HFO Head43828  15.517  16.303  18.654 -0.0901  0.0932  0.0248
 3722G1HFO Head43829  15.498  16.034  18.560  0.0386 -0.1681  0.7043
 3722G1HFO Head43830  16.058  15.758  18.827  0.0400 -0.1357 -0.0715
 3722G1HFO Head43831  15.798  15.742  18.624  0.3708 -0.2648 -0.3517
 3722G1HFO link43832  15.560  15.828  18.712 -0.0859 -0.2967  0.2806
 3722G1HFO link43833  15.513  15.870  18.988 -0.0811  0.1118  0.1811
 3722G1HFO Tail43834  15.192  15.897  19.076  0.0020  0.0982 -0.3610
 3722G1HFO Tail43835  15.211  15.963  19.424 -0.2756  0.0535  0.2323
 3722G1HFO Tail43836  15.002  15.955  19.693  0.0891  0.3273 -0.3089
 3722G1HFO Tail43837  14.567  15.922  19.752 -0.2097 -0.3444  0.1000
 3722G1HFO Tail43838  15.135  16.231  18.971  0.2844 -0.0384  0.0074
 3722G1HFO Tail43839  14.902  16.351  19.037 -0.0469  0.1899  0.2097
 3722G1HFO Tail43840  14.830  16.557  18.884 -0.2527  0.0683  0.2903
 3722G1HFO Tail43841  14.808  16.765  18.742 -0.2579  0.0651  0.0469
 3722G1HFO Tail43842  14.849  16.932  18.578  0.1241 -0.0189 -0.2399
 3723G1HFO Head43843  17.732  19.376  18.031  0.4395  0.4110  0.1178
 3723G1HFO Head43844  17.931  19.478  18.180  0.2717  0.2621  0.0129
 3723G1HFO Head43845  18.405  19.923  17.937 -0.1763 -0.0915  0.1114
 3723G1HFO Head43846  18.106  19.801  17.934  0.1433  0.1352  0.0632
 3723G1HFO link43847  18.003  19.726  18.179 -0.3160 -0.1804  0.1593
 3723G1HFO link43848  18.034  19.858  18.427 -0.0848  0.0456 -0.2459
 3723G1HFO Tail43849  17.900  19.734  18.698  0.2036 -0.0694 -0.0410
 3723G1HFO Tail43850  17.672  19.992  18.770  0.0876 -0.0166 -0.2334
 3723G1HFO Tail43851  17.592  20.231  18.975  0.0544  0.0727  0.0319
 3723G1HFO Tail43852  17.548  20.672  18.992 -0.1041  0.1387 -0.0745
 3723G1HFO Tail43853  17.661  19.528  18.535 -0.3123  0.3046 -0.0084
 3723G1HFO Tail43854  17.419  19.580  18.541 -0.4818  0.5912  0.0827
 3723G1HFO Tail43855  17.262  19.384  18.634  0.0642 -0.0086  0.3835
 3723G1HFO Tail43856  17.082  19.233  18.756 -0.2430 -0.1355 -0.1449
 3723G1HFO Tail43857  16.968  19.050  18.847 -0.0500  0.0922  0.3526
 3724G1HFO Head43858  16.861  21.605  20.260 -0.2967  0.1727 -0.1881
 3724G1HFO Head43859  16.752  21.578  20.009 -0.0300 -0.1889 -0.1782
 3724G1HFO Head43860  16.831  22.049  19.994 -0.2779 -0.1776  0.1081
 3724G1HFO Head43861  16.892  21.894  19.776 -0.2199  0.0776  0.1902
 3724G1HFO link43862  16.910  21.631  19.804  0.1817  0.1173  0.0072
 3724G1HFO link43863  17.132  21.465  19.722  0.0119 -0.2011  0.0899
 3724G1HFO Tail43864  17.217  21.516  19.408 -0.2026  0.2449  0.1094
 3724G1HFO Tail43865  17.116  21.193  19.283  0.1146  0.0579  0.0407
 3724G1HFO Tail43866  17.217  20.953  19.100  0.0998 -0.7556 -0.3100
 3724G1HFO Tail43867  17.065  20.660  18.837 -0.1292 -0.0707  0.1422
 3724G1HFO Tail43868  16.958  21.701  19.300 -0.2182 -0.1675 -0.1512
 3724G1HFO Tail43869  16.709  21.603  19.306  0.0680 -0.1450  0.1020
 3724G1HFO Tail43870  16.670  21.430  19.496  0.0453 -0.0269 -0.0114
 3724G1HFO Tail43871  16.636  21.269  19.695 -0.0709  0.2017  0.1958
 3724G1HFO Tail43872  16.667  21.113  19.870 -0.1654 -0.3257 -0.2224
 3725G1HFO Head43873  16.069  16.510  15.780  0.3929 -0.1836  0.1112
 3725G1HFO Head43874  16.216  16.414  15.994 -0.2826  0.2492  0.2371
 3725G1HFO Head43875  15.946  16.302  16.402  0.1730 -0.0515 -0.3767
 3725G1HFO Head43876  16.046  16.575  16.315  0.1375  0.3068 -0.2388
 3725G1HFO link43877  16.266  16.575  16.184 -0.0408  0.0858  0.1586
 3725G1HFO link43878  16.538  16.602  16.299 -0.1794 -0.0208 -0.2710
 3725G1HFO Tail43879  16.807  16.532  16.136  0.2497 -0.0589  0.2280
 3725G1HFO Tail43880  16.959  16.299  16.359 -0.3400 -0.1593  0.1433
 3725G1HFO Tail43881  16.897  16.115  16.600 -0.0237  0.2915  0.2384
 3725G1HFO Tail43882  17.078  15.791  16.810  0.0843 -0.2697  0.0153
 3725G1HFO Tail43883  16.688  16.319  15.887  0.0585 -0.2781  0.0372
 3725G1HFO Tail43884  16.510  16.127  15.954  0.2760 -0.1014  0.2509
 3725G1HFO Tail43885  16.465  16.095  16.193  0.1149 -0.0790 -0.1297
 3725G1HFO Tail43886  16.440  16.047  16.439  0.0127  0.2499  0.1297
 3725G1HFO Tail43887  16.380  15.975  16.651 -0.1708 -0.0203  0.0821
 3726G1HFO Head43888  13.258  15.578  18.840  0.3323  0.0273 -0.1229
 3726G1HFO Head43889  13.538  15.661  18.796  0.1305 -0.5183 -0.4131
 3726G1HFO Head43890  13.875  15.152  18.676 -0.0798  0.0218  0.2350
 3726G1HFO Head43891  13.635  15.313  18.681 -0.2787 -0.0638 -0.1473
 3726G1HFO link43892  13.655  15.543  18.608  0.0400 -0.4260  0.5172
 3726G1HFO link43893  13.798  15.674  18.405 -0.1897  0.0012  0.3693
 3726G1HFO Tail43894  14.016  15.903  18.484  0.3080 -0.3154  0.1254
 3726G1HFO Tail43895  14.278  15.843  18.287 -0.3649  0.1811 -0.0096
 3726G1HFO Tail43896  14.594  15.742  18.359  0.0482  0.0197  0.0858
 3726G1HFO Tail43897  14.811  15.428  18.571 -0.1011  0.0944  0.0825
 3726G1HFO Tail43898  13.855  16.189  18.359 -0.1433  0.2848  0.1504
 3726G1HFO Tail43899  14.026  16.381  18.300 -0.0338  0.0124 -0.1995
 3726G1HFO Tail43900  14.265  16.318  18.205 -0.2507  0.1402 -0.3135
 3726G1HFO Tail43901  14.495  16.308  18.104  0.0719  0.0371 -0.0521
 3726G1HFO Tail43902  14.680  16.246  17.979  0.1084  0.2920  0.0820
 3727G1HFO Head43903  16.412  18.526  19.558  0.1625 -0.0629 -0.3950
 3727G1HFO Head43904  16.397  18.807  19.372  0.1284  0.0237  0.4006
 3727G1HFO Head43905  16.164  18.375  19.150  0.3602  0.0104 -0.2938
 3727G1HFO Head43906  16.236  18.672  19.042 -0.1605  0.1480 -0.2557
 3727G1HFO link43907  16.211  18.864  19.206 -0.1211  0.0383  0.4030
 3727G1HFO link43908  16.007  19.075  19.186  0.0191  0.3558 -0.2256
 3727G1HFO Tail43909  16.104  19.368  19.071  0.0925 -0.0743  0.3299
 3727G1HFO Tail43910  15.811  19.563  19.096 -0.0463  0.2635  0.0001
 3727G1HFO Tail43911  15.720  19.826  19.238 -0.1395 -0.1229 -0.3329
 3727G1HFO Tail43912  15.386  20.115  19.250 -0.1863  0.2392  0.1584
 3727G1HFO Tail43913  16.262  19.487  19.342  0.0354 -0.1566  0.3431
 3727G1HFO Tail43914  16.529  19.546  19.348  0.2913 -0.1269 -0.1210
 3727G1HFO Tail43915  16.636  19.495  19.576 -0.0046  0.0002 -0.1497
 3727G1HFO Tail43916  16.695  19.460  19.822  0.3143  0.2926  0.1766
 3727G1HFO Tail43917  16.718  19.490  20.053 -0.0925 -0.0907  0.0659
 3728G1HFO Head43918  17.471  12.558  18.108 -0.3271 -0.2143  0.0032
 3728G1HFO Head43919  17.509  12.843  17.964 -0.5041 -0.0003 -0.3343
 3728G1HFO Head43920  17.104  12.585  17.779  0.0506  0.3300  0.1368
 3728G1HFO Head43921  17.106  12.888  17.807  0.1574 -0.2727  0.2798
 3728G1HFO link43922  17.301  13.010  17.936  0.9081  0.0145 -0.4728
 3728G1HFO link43923  17.299  13.306  17.962 -0.2766 -0.0018  0.1315
 3728G1HFO Tail43924  17.518  13.508  17.840 -0.0192 -0.2663 -0.1303
 3728G1HFO Tail43925  17.305  13.671  17.620  0.1036 -0.3492  0.0433
 3728G1HFO Tail43926  17.136  13.951  17.606 -0.0475 -0.0729 -0.1158
 3728G1HFO Tail43927  16.960  14.226  17.892 -0.6046  0.1113  0.2187
 3728G1HFO Tail43928  17.537  13.706  18.112 -0.2018 -0.2097 -0.0864
 3728G1HFO Tail43929  17.648  13.942  18.139  0.1960 -0.1213 -0.0981
 3728G1HFO Tail43930  17.886  13.978  18.249  0.1542 -0.0668  0.1873
 3728G1HFO Tail43931  18.123  13.963  18.334  0.2834 -0.1031 -0.0344
 3728G1HFO Tail43932  18.321  13.885  18.432 -0.0141  0.1504  0.0017
 3729G1HFO Head43933  20.661  14.858  17.499  0.0581  0.0522  0.1108
 3729G1HFO Head43934  20.494  15.121  17.574  0.0683 -0.0241 -0.2824
 3729G1HFO Head43935  20.935  15.465  17.758  0.5162 -0.4193 -0.1451
 3729G1HFO Head43936  20.833  15.390  17.506  0.4660  0.0259  0.2178
 3729G1HFO link43937  20.574  15.355  17.481  0.2265  0.1225  0.1218
 3729G1HFO link43938  20.406  15.556  17.370  0.2299 -0.1329  0.2435
 3729G1HFO Tail43939  20.096  15.554  17.244  0.0278  0.0755 -0.6336
 3729G1HFO Tail43940  19.930  15.504  17.543 -0.1552 -0.3070  0.2000
 3729G1HFO Tail43941  19.873  15.223  17.678 -0.0365 -0.0402  0.2616
 3729G1HFO Tail43942  19.589  14.940  17.820 -0.1371 -0.0168 -0.3676
 3729G1HFO Tail43943  20.058  15.895  17.199  0.1044  0.0587 -0.1797
 3729G1HFO Tail43944  20.273  16.040  17.237 -0.3050 -0.0105 -0.0424
 3729G1HFO Tail43945  20.395  16.048  17.462 -0.0514 -0.1899  0.0221
 3729G1HFO Tail43946  20.539  16.087  17.666 -0.0480 -0.0176 -0.3076
 3729G1HFO Tail43947  20.709  16.095  17.831 -0.0722  0.2653 -0.0235
 3730G1HFO Head43948  15.281  16.178  17.592 -0.2580 -0.3976 -0.3551
 3730G1HFO Head43949  15.229  16.429  17.740  0.1050 -0.1384  0.0625
 3730G1HFO Head43950  14.694  16.360  17.413  0.1871 -0.4621  0.2852
 3730G1HFO Head43951  14.927  16.533  17.491 -0.0386 -0.1031  0.0325
 3730G1HFO link43952  15.010  16.537  17.737  0.4965  0.0271 -0.1340
 3730G1HFO link43953  14.871  16.692  17.930 -0.0144 -0.0726  0.4487
 3730G1HFO Tail43954  14.996  16.756  18.225 -0.3314 -0.0453  0.0607
 3730G1HFO Tail43955  14.915  16.441  18.368 -0.0262 -0.0781 -0.0364
 3730G1HFO Tail43956  15.102  16.260  18.553 -0.3311  0.1618 -0.1805
 3730G1HFO Tail43957  15.135  15.833  18.622  0.0923  0.0330  0.0028
 3730G1HFO Tail43958  15.329  16.693  18.150 -0.0889 -0.0548  0.2192
 3730G1HFO Tail43959  15.437  16.454  18.157  0.0375 -0.1155 -0.0883
 3730G1HFO Tail43960  15.278  16.240  18.131 -0.0532  0.1720  0.0336
 3730G1HFO Tail43961  15.086  16.072  18.128  0.0190 -0.1629 -0.1455
 3730G1HFO Tail43962  14.880  15.969  18.165 -0.0639 -0.0033 -0.1857
 3731G1HFO Head43963  16.264  16.470  22.826 -0.1359  0.0041 -0.0493
 3731G1HFO Head43964  16.045  16.583  22.612  0.2503  0.2112  0.0756
 3731G1HFO Head43965  15.533  16.817  22.461 -0.0349  0.1463  0.2018
 3731G1HFO Head43966  15.789  16.907  22.618 -0.4094  0.2110 -0.2770
 3731G1HFO link43967  16.022  16.826  22.541  0.2447 -0.0400  0.2214
 3731G1HFO link43968  16.229  17.007  22.477 -0.2970 -0.0543 -0.2102
 3731G1HFO Tail43969  16.497  16.916  22.297 -0.5320 -0.3061  0.3487
 3731G1HFO Tail43970  16.410  17.098  22.003 -0.1859  0.0330 -0.3775
 3731G1HFO Tail43971  16.502  17.174  21.697 -0.3281  0.0153  0.1285
 3731G1HFO Tail43972  16.542  17.016  21.298 -0.2760 -0.1066 -0.0637
 3731G1HFO Tail43973  16.767  17.101  22.456 -0.1990 -0.2651  0.1728
 3731G1HFO Tail43974  17.025  17.026  22.403 -0.0855 -0.0221  0.2135
 3731G1HFO Tail43975  17.069  16.797  22.283  0.0658  0.0136  0.0905
 3731G1HFO Tail43976  17.069  16.567  22.179  0.0539  0.1206  0.1695
 3731G1HFO Tail43977  17.103  16.355  22.102  0.3339  0.3688 -0.2972
 3732G1HFO Head43978  19.066  14.294  19.659 -0.1271 -0.0090  0.1645
 3732G1HFO Head43979  18.852  14.326  19.428 -0.0311  0.0539 -0.0927
 3732G1HFO Head43980  18.714  13.944  19.679  0.2006  0.0115  0.0334
 3732G1HFO Head43981  18.743  13.958  19.343 -0.1321 -0.2611  0.1868
 3732G1HFO link43982  18.877  14.151  19.236  0.4349  0.1279  0.1094
 3732G1HFO link43983  18.804  14.255  18.969 -0.2704  0.3445 -0.0082
 3732G1HFO Tail43984  19.037  14.325  18.735  0.1680  0.1464 -0.0682
 3732G1HFO Tail43985  19.130  14.636  18.810  0.0781 -0.1373  0.0851
 3732G1HFO Tail43986  19.092  14.900  18.661 -0.4086  0.1913  0.3763
 3732G1HFO Tail43987  19.251  15.297  18.578 -0.3569  0.0686 -0.0094
 3732G1HFO Tail43988  19.309  14.144  18.842  0.0083  0.1013  0.4068
 3732G1HFO Tail43989  19.485  14.228  19.020 -0.1306  0.2811 -0.0799
 3732G1HFO Tail43990  19.409  14.414  19.179 -0.2569  0.0386 -0.0008
 3732G1HFO Tail43991  19.301  14.590  19.322  0.1944  0.0734 -0.0136
 3732G1HFO Tail43992  19.251  14.754  19.483 -0.1519 -0.0260 -0.0343
 3733G1HFO Head43993  20.579  17.808  15.694 -0.0601  0.3524 -0.2974
 3733G1HFO Head43994  20.299  17.918  15.551 -0.4223 -0.3181 -0.1561
 3733G1HFO Head43995  19.853  17.520  15.899 -0.0069  0.1183 -0.3460
 3733G1HFO Head43996  20.080  17.763  15.848  0.0963 -0.2052  0.0877
 3733G1HFO link43997  20.050  17.935  15.669  0.5757  0.4984  0.0767
 3733G1HFO link43998  19.876  18.152  15.675  0.0630  0.0730  0.0890
 3733G1HFO Tail43999  19.754  18.243  15.970 -0.2160  0.0125 -0.1059
 3733G1HFO Tail44000  19.531  17.962  16.012  0.4389  0.1851  0.0618
 3733G1HFO Tail44001  19.400  17.790  16.258 -0.1423  0.0649  0.2446
 3733G1HFO Tail44002  19.016  17.665  16.405  0.0938  0.0968 -0.2753
 3733G1HFO Tail44003  20.002  18.156  16.203 -0.2245 -0.3016  0.1601
 3733G1HFO Tail44004  20.077  17.914  16.247 -0.0236 -0.3040  0.0036
 3733G1HFO Tail44005  19.909  17.763  16.367 -0.2626 -0.2852 -0.1240
 3733G1HFO Tail44006  19.758  17.577  16.451 -0.0858  0.0282 -0.0651
 3733G1HFO Tail44007  19.662  17.408  16.575  0.1837 -0.0328  0.0688
 3734G1HFO Head44008  19.592  20.497  19.477  0.1126  0.4108  0.1730
 3734G1HFO Head44009  19.665  20.183  19.559 -0.0526 -0.1548 -0.0521
 3734G1HFO Head44010  19.362  20.434  19.897  0.0950 -0.0041  0.1525
 3734G1HFO Head44011  19.635  20.246  19.957 -0.1517 -0.3655 -0.5463
 3734G1HFO link44012  19.722  20.076  19.804 -0.0896  0.1502 -0.1484
 3734G1HFO link44013  19.807  19.810  19.864 -0.4154 -0.2115 -0.0354
 3734G1HFO Tail44014  19.862  19.582  19.623 -0.1935  0.1007  0.3244
 3734G1HFO Tail44015  19.968  19.291  19.818 -0.1150  0.1545  0.2042
 3734G1HFO Tail44016  20.128  19.013  19.824 -0.6277 -0.1974 -0.1886
 3734G1HFO Tail44017  20.063  18.572  19.868  0.0215 -0.3765  0.0736
 3734G1HFO Tail44018  19.547  19.461  19.578  0.3273  0.1959  0.0326
 3734G1HFO Tail44019  19.512  19.202  19.633  0.1509 -0.0254 -0.0691
 3734G1HFO Tail44020  19.347  19.065  19.488  0.0014  0.0954  0.0138
 3734G1HFO Tail44021  19.217  18.889  19.353 -0.3186  0.1941 -0.1373
 3734G1HFO Tail44022  19.077  18.784  19.195 -0.2305 -0.2403  0.0291
 3735G1HFO Head44023  16.277  17.720  22.990 -0.0758  0.0187  0.0733
 3735G1HFO Head44024  16.089  17.752  22.785 -0.2366 -0.4376 -0.3325
 3735G1HFO Head44025  15.682  17.348  22.390  0.0332  0.0456  0.2668
 3735G1HFO Head44026  15.807  17.548  22.566 -0.3751 -0.3473  0.3462
 3735G1HFO link44027  16.068  17.560  22.597  0.3843 -0.5055  0.1702
 3735G1HFO link44028  16.261  17.485  22.406  0.0883 -0.2095 -0.1071
 3735G1HFO Tail44029  16.221  17.479  22.078  0.0205 -0.1292  0.3007
 3735G1HFO Tail44030  16.004  17.241  22.013  0.1880  0.1248  0.0969
 3735G1HFO Tail44031  15.726  17.252  21.868 -0.3677  0.2196  0.1241
 3735G1HFO Tail44032  15.497  16.996  21.607  0.0945 -0.1793 -0.1129
 3735G1HFO Tail44033  16.001  17.718  22.037  0.0269 -0.1355  0.0763
 3735G1HFO Tail44034  15.760  17.677  21.993 -0.0142  0.4017  0.2526
 3735G1HFO Tail44035  15.579  17.780  22.151  0.0322  0.0067  0.3167
 3735G1HFO Tail44036  15.399  17.854  22.314 -0.1405 -0.0281 -0.2527
 3735G1HFO Tail44037  15.217  17.944  22.408  0.2954  0.3983 -0.0819
 3736G1HFO Head44038  17.006  17.268  15.969 -0.2900 -0.0917 -0.1051
 3736G1HFO Head44039  16.879  17.183  16.278 -0.0888  0.0111  0.0258
 3736G1HFO Head44040  16.392  16.870  15.879 -0.1004  0.2899  0.1845
 3736G1HFO Head44041  16.674  16.925  16.057 -0.0561 -0.0726  0.1136
 3736G1HFO link44042  16.660  17.029  16.295 -0.2029 -0.4299  0.2446
 3736G1HFO link44043  16.434  17.050  16.458  0.0727  0.0356 -0.2654
 3736G1HFO Tail44044  16.346  16.784  16.638 -0.5062 -0.0073 -0.4207
 3736G1HFO Tail44045  16.644  16.676  16.781  0.1434 -0.0848  0.3314
 3736G1HFO Tail44046  16.744  16.425  16.976 -0.1957 -0.0424 -0.1267
 3736G1HFO Tail44047  16.651  16.003  17.046  0.2364 -0.1985 -0.2854
 3736G1HFO Tail44048  16.225  16.958  16.930  0.1422 -0.3331  0.3952
 3736G1HFO Tail44049  16.264  17.220  16.942 -0.1855  0.2058  0.1201
 3736G1HFO Tail44050  16.413  17.301  17.139 -0.1573  0.1194 -0.1289
 3736G1HFO Tail44051  16.586  17.391  17.294  0.0536  0.0119  0.2513
 3736G1HFO Tail44052  16.768  17.414  17.443 -0.0476  0.4013 -0.0567
 3737G1HFO Head44053  15.867  12.394  19.247 -0.0159 -0.2572 -0.1941
 3737G1HFO Head44054  15.981  12.497  19.460  0.0996 -0.0592 -0.0309
 3737G1HFO Head44055  15.815  13.023  19.843  0.0847 -0.4031 -0.5584
 3737G1HFO Head44056  15.967  12.816  19.743  0.2145 -0.3081  0.2939
 3737G1HFO link44057  15.943  12.756  19.478 -0.2725  0.4560 -0.2131
 3737G1HFO link44058  15.991  12.933  19.257  0.0615  0.2119  0.3335
 3737G1HFO Tail44059  16.317  12.928  19.148  0.3263  0.2515 -0.1372
 3737G1HFO Tail44060  16.432  13.232  19.267  0.1171 -0.0550 -0.0140
 3737G1HFO Tail44061  16.448  13.530  19.178  0.6741  0.1664  0.0836
 3737G1HFO Tail44062  16.325  13.910  19.347  0.2175  0.0108 -0.1996
 3737G1HFO Tail44063  16.267  13.011  18.831 -0.2883 -0.0671 -0.2793
 3737G1HFO Tail44064  16.050  12.959  18.708 -0.0367 -0.2676 -0.0963
 3737G1HFO Tail44065  16.004  13.111  18.502  0.0408  0.0997 -0.1764
 3737G1HFO Tail44066  15.983  13.296  18.334  0.1253  0.2437  0.2784
 3737G1HFO Tail44067  15.912  13.478  18.211 -0.1625 -0.3469  0.1407
 3738G1HFO Head44068  15.869  15.427  22.254 -0.0016  0.0723 -0.1352
 3738G1HFO Head44069  16.145  15.573  22.369  0.0011 -0.0091  0.1238
 3738G1HFO Head44070  16.466  15.873  22.648  0.3228  0.2430 -0.2616
 3738G1HFO Head44071  16.468  15.893  22.345 -0.0714 -0.2781  0.0611
 3738G1HFO link44072  16.298  15.750  22.216  0.2852  0.1769 -0.2579
 3738G1HFO link44073  16.236  15.811  21.949 -0.2849  0.1556 -0.0272
 3738G1HFO Tail44074  15.941  15.797  21.827  0.1003  0.3255  0.1172
 3738G1HFO Tail44075  15.804  16.099  21.910  0.2219 -0.1224  0.3952
 3738G1HFO Tail44076  15.859  16.339  22.065 -0.1778 -0.3903 -0.2062
 3738G1HFO Tail44077  15.861  16.776  22.011  0.0601  0.1324 -0.0530
 3738G1HFO Tail44078  15.994  15.854  21.497  0.0820 -0.2113 -0.4367
 3738G1HFO Tail44079  15.886  15.693  21.310  0.1080 -0.1084  0.0461
 3738G1HFO Tail44080  15.629  15.668  21.309 -0.0791  0.3231 -0.1379
 3738G1HFO Tail44081  15.376  15.676  21.290  0.2078 -0.0757  0.0353
 3738G1HFO Tail44082  15.148  15.637  21.254 -0.0074 -0.0128 -0.0483
 3739G1HFO Head44083  21.412  16.140  18.258  0.1268  0.0197 -0.2531
 3739G1HFO Head44084  21.174  16.046  18.425  0.0698  0.1132 -0.0938
 3739G1HFO Head44085  21.405  15.772  18.674  0.1664  0.2310  0.2123
 3739G1HFO Head44086  21.145  15.670  18.586  0.0004 -0.1692 -0.0346
 3739G1HFO link44087  21.056  15.812  18.383  0.2273  0.4951  0.5021
 3739G1HFO link44088  20.817  15.795  18.242  0.2022  0.0782  0.0378
 3739G1HFO Tail44089  20.568  15.638  18.379  0.1900 -0.0640 -0.1105
 3739G1HFO Tail44090  20.296  15.746  18.203 -0.2019 -0.2445  0.1614
 3739G1HFO Tail44091  19.992  15.721  18.255  0.3177 -0.2528 -0.1568
 3739G1HFO Tail44092  19.669  15.905  18.500  0.0187 -0.0073 -0.0045
 3739G1HFO Tail44093  20.611  15.325  18.234  0.0550  0.3593  0.3084
 3739G1HFO Tail44094  20.837  15.238  18.135 -0.0193  0.0878  0.4196
 3739G1HFO Tail44095  21.061  15.291  18.263  0.0754  0.1323  0.2131
 3739G1HFO Tail44096  21.296  15.356  18.348  0.2247 -0.0029  0.2456
 3739G1HFO Tail44097  21.518  15.383  18.391  0.3008 -0.0393  0.3657
 3740G1HFO Head44098  20.370  14.393  18.339  0.2373  0.0311 -0.2586
 3740G1HFO Head44099  20.540  14.604  18.483  0.2065  0.3958  0.1660
 3740G1HFO Head44100  20.810  15.100  18.674  0.3928 -0.2562  0.2895
 3740G1HFO Head44101  20.571  15.010  18.563  0.2474  0.1161 -0.1534
 3740G1HFO link44102  20.545  14.834  18.365 -0.0712 -0.3367  0.1539
 3740G1HFO link44103  20.484  14.879  18.097 -0.0193  0.0936  0.2201
 3740G1HFO Tail44104  20.185  14.991  18.013 -0.1380  0.2809  0.1311
 3740G1HFO Tail44105  20.179  14.825  17.703 -0.1597  0.2213 -0.2957
 3740G1HFO Tail44106  20.055  14.905  17.420  0.0590 -0.0531 -0.1882
 3740G1HFO Tail44107  19.700  15.098  17.250 -0.1919 -0.1546  0.3333
 3740G1HFO Tail44108  19.984  14.760  18.195  0.1245 -0.2647  0.0946
 3740G1HFO Tail44109  20.006  14.703  18.446  0.0066 -0.3026  0.1323
 3740G1HFO Tail44110  20.101  14.892  18.598 -0.1595  0.1040  0.1336
 3740G1HFO Tail44111  20.172  15.042  18.788 -0.0345 -0.1850 -0.1932
 3740G1HFO Tail44112  20.165  15.183  18.975 -0.2330 -0.1010  0.1459
 3741G1HFO Head44113  13.334  15.099  20.036  0.0418 -0.1903  0.0779
 3741G1HFO Head44114  13.494  15.255  19.816 -0.0719  0.0607 -0.2855
 3741G1HFO Head44115  13.848  14.679  19.778  0.1138 -0.1229  0.1236
 3741G1HFO Head44116  13.743  14.934  19.886  0.2413  0.0650 -0.0828
 3741G1HFO link44117  13.707  15.143  19.732 -0.3329 -0.2026  0.1071
 3741G1HFO link44118  13.907  15.243  19.546 -0.6924 -0.4317  0.1481
 3741G1HFO Tail44119  14.218  15.155  19.617  0.2622  0.1292 -0.0244
 3741G1HFO Tail44120  14.399  15.443  19.637 -0.4144  0.0229 -0.1321
 3741G1HFO Tail44121  14.692  15.492  19.591 -0.1117 -0.2561 -0.3272
 3741G1HFO Tail44122  15.061  15.531  19.364  0.3584 -0.2880 -0.1197
 3741G1HFO Tail44123  14.195  15.013  19.932  0.1312  0.0106 -0.0625
 3741G1HFO Tail44124  14.085  15.170  20.114  0.1930 -0.2333  0.0519
 3741G1HFO Tail44125  13.962  15.372  20.024 -0.0725  0.0713  0.0843
 3741G1HFO Tail44126  13.869  15.579  19.906 -0.0755 -0.1385 -0.1588
 3741G1HFO Tail44127  13.794  15.731  19.741 -0.0096  0.0906 -0.0376
 3742G1HFO Head44128  18.175  19.217  22.440  0.2794 -0.2923 -0.0959
 3742G1HFO Head44129  17.971  19.075  22.236  0.3161 -0.1409 -0.2885
 3742G1HFO Head44130  17.512  19.251  22.569  0.1427  0.2867  0.1916
 3742G1HFO Head44131  17.721  19.069  22.563  0.1813  0.0406 -0.2133
 3742G1HFO link44132  17.779  18.930  22.332 -0.2207 -0.6309  0.0892
 3742G1HFO link44133  17.726  18.669  22.312  0.0073 -0.2736  0.2709
 3742G1HFO Tail44134  17.873  18.498  22.068  0.6162  0.1669 -0.2807
 3742G1HFO Tail44135  17.640  18.519  21.840  0.1432 -0.0285  0.2507
 3742G1HFO Tail44136  17.583  18.665  21.560 -0.4461 -0.2722 -0.1882
 3742G1HFO Tail44137  17.734  18.700  21.167 -0.2562 -0.2643  0.2375
 3742G1HFO Tail44138  18.121  18.710  21.958 -0.2477 -0.2510  0.0467
 3742G1HFO Tail44139  18.361  18.613  21.903 -0.0257  0.1345  0.1246
 3742G1HFO Tail44140  18.453  18.686  21.668 -0.1835  0.0850  0.0322
 3742G1HFO Tail44141  18.555  18.743  21.440  0.1678 -0.0302 -0.2120
 3742G1HFO Tail44142  18.690  18.815  21.264 -0.2833 -0.0004 -0.0725
 3743G1HFO Head44143  15.835  13.119  17.827  0.0516 -0.3408 -0.0197
 3743G1HFO Head44144  15.799  12.955  18.075  0.5553  0.0956  0.2263
 3743G1HFO Head44145  15.341  12.797  18.525 -0.2155 -0.1469  0.5918
 3743G1HFO Head44146  15.639  12.858  18.445 -0.1159 -0.1274  0.2229
 3743G1HFO link44147  15.683  13.051  18.253  0.3747  0.4669 -0.0187
 3743G1HFO link44148  15.529  13.295  18.236 -0.1271 -0.4686  0.2259
 3743G1HFO Tail44149  15.436  13.432  18.521 -0.0259 -0.3398 -0.0874
 3743G1HFO Tail44150  15.608  13.212  18.736  0.1911 -0.1493 -0.1906
 3743G1HFO Tail44151  15.737  13.222  19.037  0.2080  0.4373  0.0572
 3743G1HFO Tail44152  15.598  13.214  19.457  0.3178 -0.0781 -0.6664
 3743G1HFO Tail44153  15.635  13.713  18.541 -0.1658 -0.2062 -0.2665
 3743G1HFO Tail44154  15.704  13.876  18.362  0.0037 -0.3794  0.1006
 3743G1HFO Tail44155  15.800  14.103  18.463  0.0178 -0.0388 -0.0163
 3743G1HFO Tail44156  15.917  14.286  18.586 -0.3810 -0.1620 -0.0834
 3743G1HFO Tail44157  16.056  14.483  18.650  0.2659 -0.0504 -0.1207
 3744G1HFO Head44158  17.404  20.271  16.154 -0.2063  0.0119  0.2603
 3744G1HFO Head44159  17.253  20.108  16.342 -0.0140  0.1037  0.3301
 3744G1HFO Head44160  17.306  19.871  15.882  0.0453  0.0785 -0.4615
 3744G1HFO Head44161  17.150  19.784  16.114 -0.1924 -0.2583  0.2136
 3744G1HFO link44162  17.053  19.969  16.264 -0.7795  0.2053  0.3450
 3744G1HFO link44163  16.768  20.016  16.303  0.3381 -0.1093 -0.0310
 3744G1HFO Tail44164  16.668  20.161  16.591  0.0414  0.1288 -0.3431
 3744G1HFO Tail44165  16.549  19.878  16.755 -0.1243  0.0822  0.1707
 3744G1HFO Tail44166  16.421  19.786  17.014  0.0041  0.1204  0.1547
 3744G1HFO Tail44167  16.429  19.461  17.298 -0.1025  0.0360  0.0548
 3744G1HFO Tail44168  16.989  20.195  16.735 -0.0490  0.2508  0.0281
 3744G1HFO Tail44169  17.144  19.991  16.746 -0.1754  0.1959  0.2497
 3744G1HFO Tail44170  17.065  19.775  16.617  0.0083  0.0873 -0.1250
 3744G1HFO Tail44171  16.960  19.571  16.520  0.1794  0.3232 -0.0085
 3744G1HFO Tail44172  16.822  19.380  16.479 -0.0276 -0.0484  0.1860
 3745G1HFO Head44173  16.394  15.046  18.784  0.0392  0.1323 -0.0541
 3745G1HFO Head44174  16.348  14.821  18.983 -0.1106  0.0875 -0.2054
 3745G1HFO Head44175  16.869  15.171  19.049  0.0736 -0.5676  0.1738
 3745G1HFO Head44176  16.726  14.939  19.229  0.1307  0.3632 -0.0916
 3745G1HFO link44177  16.556  14.743  19.126  0.1351  0.2205  0.3998
 3745G1HFO link44178  16.651  14.465  19.073 -0.3396  0.0261 -0.3373
 3745G1HFO Tail44179  16.432  14.229  18.994  0.1132  0.3852 -0.0340
 3745G1HFO Tail44180  16.130  14.381  19.092  0.2122 -0.2971  0.1721
 3745G1HFO Tail44181  15.968  14.342  19.361 -0.0458  0.0825 -0.0781
 3745G1HFO Tail44182  15.862  14.084  19.710  0.3273  0.0569  0.0154
 3745G1HFO Tail44183  16.412  14.266  18.642 -0.0766  0.1044  0.4613
 3745G1HFO Tail44184  16.536  14.110  18.472 -0.0206  0.1686  0.2436
 3745G1HFO Tail44185  16.680  13.907  18.553 -0.0919  0.0382  0.1973
 3745G1HFO Tail44186  16.791  13.690  18.635 -0.0507 -0.1043 -0.3296
 3745G1HFO Tail44187  16.896  13.483  18.658 -0.0852  0.1912 -0.3017
 3746G1HFO Head44188  19.311  20.770  17.481  0.1446 -0.0418  0.0678
 3746G1HFO Head44189  19.194  20.463  17.485  0.3561 -0.1466 -0.0903
 3746G1HFO Head44190  18.843  20.810  17.539  0.1604 -0.0336 -0.2001
 3746G1HFO Head44191  18.821  20.572  17.677  0.3118 -0.0425  0.1555
 3746G1HFO link44192  19.028  20.410  17.695  0.2320  0.0146 -0.1139
 3746G1HFO link44193  19.064  20.177  17.857  0.2341 -0.1602  0.3959
 3746G1HFO Tail44194  19.112  19.890  17.739 -0.2148  0.2217  0.4371
 3746G1HFO Tail44195  18.786  19.792  17.679 -0.2949  0.0662  0.2293
 3746G1HFO Tail44196  18.640  19.509  17.693  0.0153  0.2100  0.3793
 3746G1HFO Tail44197  18.429  19.257  17.984 -0.1824  0.1245  0.2774
 3746G1HFO Tail44198  19.269  19.967  17.444 -0.0854  0.2309  0.1730
 3746G1HFO Tail44199  19.210  19.794  17.254 -0.4470  0.0711  0.0281
 3746G1HFO Tail44200  19.390  19.613  17.211 -0.4698 -0.0970  0.1541
 3746G1HFO Tail44201  19.546  19.415  17.192 -0.0599  0.0140  0.2463
 3746G1HFO Tail44202  19.729  19.269  17.214 -0.3609  0.1764  0.0704
 3747G1HFO Head44203  17.981  16.194  15.298 -0.2367  0.1353 -0.2510
 3747G1HFO Head44204  18.213  16.223  15.479  0.0352 -0.0588 -0.1379
 3747G1HFO Head44205  18.275  16.844  15.614  0.2710  0.3557 -0.3036
 3747G1HFO Head44206  18.355  16.544  15.682 -0.2243  0.0651 -0.1276
 3747G1HFO link44207  18.173  16.368  15.692  0.7530 -0.3375 -0.0952
 3747G1HFO link44208  17.909  16.438  15.794  0.1205  0.2211 -0.3747
 3747G1HFO Tail44209  17.706  16.193  15.897  0.0233  0.1536 -0.2352
 3747G1HFO Tail44210  17.874  16.081  16.188 -0.0858  0.0640  0.0922
 3747G1HFO Tail44211  17.881  16.151  16.493  0.5065  0.0140  0.1247
 3747G1HFO Tail44212  17.640  16.295  16.823  0.6225 -0.0117 -0.1940
 3747G1HFO Tail44213  17.483  16.412  16.056  0.1778 -0.1346 -0.0380
 3747G1HFO Tail44214  17.228  16.441  15.979 -0.1799 -0.0927  0.2450
 3747G1HFO Tail44215  17.169  16.640  15.814 -0.0773 -0.0985  0.1707
 3747G1HFO Tail44216  17.117  16.837  15.655 -0.2122 -0.0357 -0.0136
 3747G1HFO Tail44217  17.098  17.060  15.576  0.4297  0.0209  0.1043
 3748G1HFO Head44218  15.746  20.177  16.385  0.0228  0.3379 -0.0344
 3748G1HFO Head44219  15.744  20.189  16.683 -0.3218  0.1175 -0.2225
 3748G1HFO Head44220  16.159  20.436  16.445 -0.1414  0.1162 -0.0666
 3748G1HFO Head44221  15.924  20.558  16.631 -0.1459 -0.0063 -0.0452
 3748G1HFO link44222  15.813  20.418  16.802  0.3058 -0.4995 -0.0944
 3748G1HFO link44223  15.846  20.441  17.083 -0.3511 -0.2961 -0.2957
 3748G1HFO Tail44224  16.134  20.410  17.230  0.2456  0.3175 -0.5361
 3748G1HFO Tail44225  16.135  20.057  17.289  0.0926 -0.1330 -0.2804
 3748G1HFO Tail44226  16.250  19.881  17.540 -0.4882 -0.1755  0.5176
 3748G1HFO Tail44227  16.198  19.826  17.965  0.2479 -0.2226  0.1281
 3748G1HFO Tail44228  16.346  20.397  16.954 -0.3635 -0.1036  0.0284
 3748G1HFO Tail44229  16.586  20.330  16.980 -0.0456 -0.6680 -0.0075
 3748G1HFO Tail44230  16.657  20.168  17.179  0.3670  0.1428 -0.1154
 3748G1HFO Tail44231  16.734  19.989  17.345 -0.2411  0.0112  0.1569
 3748G1HFO Tail44232  16.852  19.806  17.446  0.2257  0.0717  0.2065
 3749G1HFO Head44233  17.395  12.358  18.571  0.3133  0.0340 -0.2188
 3749G1HFO Head44234  17.198  12.601  18.522 -0.1966  0.2999 -0.0568
 3749G1HFO Head44235  16.978  12.082  18.520  0.0701 -0.4278  0.0603
 3749G1HFO Head44236  16.835  12.350  18.437 -0.2799 -0.0234 -0.3017
 3749G1HFO link44237  16.987  12.556  18.342 -0.2630  0.5460 -0.5419
 3749G1HFO link44238  16.877  12.766  18.185  0.0356  0.1897 -0.1015
 3749G1HFO Tail44239  16.980  13.067  18.243  0.0625 -0.0170  0.2486
 3749G1HFO Tail44240  16.697  13.244  18.215  0.2017  0.1019  0.0299
 3749G1HFO Tail44241  16.469  13.283  18.001 -0.1906  0.4459 -0.3202
 3749G1HFO Tail44242  16.201  13.612  17.893  0.2109  0.4158 -0.2168
 3749G1HFO Tail44243  16.998  13.034  18.586  0.0313 -0.2125  0.2579
 3749G1HFO Tail44244  17.219  13.020  18.745 -0.0500 -0.2100 -0.2021
 3749G1HFO Tail44245  17.291  13.253  18.852 -0.0972 -0.3429 -0.2184
 3749G1HFO Tail44246  17.366  13.450  18.991 -0.1564  0.1871  0.1649
 3749G1HFO Tail44247  17.495  13.597  19.118 -0.0252 -0.0678 -0.1591
 3750G1HFO Head44248  16.183  17.689  19.726  0.0270  0.1881  0.1249
 3750G1HFO Head44249  15.962  17.654  19.469 -0.1165 -0.3803  0.2877
 3750G1HFO Head44250  15.915  17.038  19.533 -0.1669  0.3293 -0.0860
 3750G1HFO Head44251  15.791  17.302  19.626  0.1099 -0.1785  0.2421
 3750G1HFO link44252  15.768  17.500  19.451  0.0525 -0.4427 -0.1906
 3750G1HFO link44253  15.573  17.532  19.251  0.1925  0.1394  0.1852
 3750G1HFO Tail44254  15.622  17.714  18.994 -0.2169 -0.1801 -0.1108
 3750G1HFO Tail44255  15.659  17.456  18.768  0.2996 -0.1754 -0.2630
 3750G1HFO Tail44256  15.487  17.409  18.527 -0.0822  0.2936  0.0657
 3750G1HFO Tail44257  15.193  17.135  18.362  0.0165 -0.0737 -0.0590
 3750G1HFO Tail44258  15.301  17.801  18.904  0.0669  0.2229 -0.0960
 3750G1HFO Tail44259  15.238  17.864  18.659 -0.0434 -0.0233  0.0011
 3750G1HFO Tail44260  15.060  18.059  18.619  0.2456  0.1159  0.1721
 3750G1HFO Tail44261  14.928  18.284  18.606  0.1368  0.0907 -0.0881
 3750G1HFO Tail44262  14.847  18.500  18.653 -0.1182  0.2898 -0.2618
 3751G1HFO Head44263  17.890  20.282  16.264 -0.0320  0.3144 -0.0860
 3751G1HFO Head44264  17.733  20.057  16.398  0.1175 -0.2731 -0.0892
 3751G1HFO Head44265  17.458  20.554  16.856 -0.1407 -0.1675  0.3986
 3751G1HFO Head44266  17.503  20.358  16.603 -0.0322  0.0836 -0.1277
 3751G1HFO link44267  17.607  20.107  16.633  0.1387  0.4086  0.0777
 3751G1HFO link44268  17.680  19.972  16.872 -0.0670  0.0881 -0.1228
 3751G1HFO Tail44269  17.723  19.647  16.873  0.2333  0.0586 -0.1361
 3751G1HFO Tail44270  17.417  19.550  16.946  0.3065  0.0563 -0.0023
 3751G1HFO Tail44271  17.214  19.377  16.789  0.0582  0.0712  0.1654
 3751G1HFO Tail44272  16.884  19.104  16.883 -0.1942  0.1139  0.2192
 3751G1HFO Tail44273  17.723  19.610  16.528 -0.0222  0.0041 -0.1468
 3751G1HFO Tail44274  17.488  19.625  16.405 -0.0152 -0.1151 -0.0340
 3751G1HFO Tail44275  17.379  19.404  16.342 -0.0050  0.2604 -0.1474
 3751G1HFO Tail44276  17.278  19.185  16.286  0.0995 -0.0714  0.0313
 3751G1HFO Tail44277  17.236  18.970  16.200 -0.0775  0.1466  0.1907
 3752G1HFO Head44278  14.900  20.503  19.181  0.2045 -0.2951 -0.0424
 3752G1HFO Head44279  14.846  20.373  18.869  0.1225 -0.3850 -0.1028
 3752G1HFO Head44280  14.561  19.975  18.922  0.1646  0.2430  0.3361
 3752G1HFO Head44281  14.512  20.236  18.705 -0.3573 -0.0227 -0.0594
 3752G1HFO link44282  14.646  20.441  18.742 -0.1508 -0.6735 -0.3392
 3752G1HFO link44283  14.640  20.676  18.588  0.2127 -0.0333 -0.1054
 3752G1HFO Tail44284  14.897  20.762  18.400 -0.0538 -0.0408 -0.2166
 3752G1HFO Tail44285  15.093  20.467  18.467 -0.0717  0.0065  0.1371
 3752G1HFO Tail44286  15.276  20.368  18.692 -0.1012 -0.1390  0.4159
 3752G1HFO Tail44287  15.513  20.510  19.024 -0.0443 -0.0044  0.1410
 3752G1HFO Tail44288  14.757  20.677  18.098  0.3331 -0.3586  0.0841
 3752G1HFO Tail44289  14.907  20.598  17.899  0.3890  0.0523 -0.0680
 3752G1HFO Tail44290  15.143  20.517  17.963  0.0234 -0.1170 -0.0171
 3752G1HFO Tail44291  15.392  20.486  18.015 -0.2102  0.1773 -0.0103
 3752G1HFO Tail44292  15.600  20.393  18.094  0.1982  0.4745  0.0365
 3753G1HFO Head44293  15.009  15.225  21.463 -0.0935  0.2403 -0.0214
 3753G1HFO Head44294  15.114  15.414  21.696 -0.2137 -0.4954 -0.2318
 3753G1HFO Head44295  14.957  15.942  22.145  0.1608  0.5085 -0.1700
 3753G1HFO Head44296  15.053  15.670  22.017 -0.2402 -0.2548  0.2290
 3753G1HFO link44297  14.992  15.645  21.751  0.2672  0.2624 -0.0220
 3753G1HFO link44298  14.923  15.850  21.566 -0.0029  0.1043  0.2242
 3753G1HFO Tail44299  14.673  15.843  21.358 -0.2538 -0.6679  0.0434
 3753G1HFO Tail44300  14.538  16.160  21.376 -0.3237 -0.0869 -0.0362
 3753G1HFO Tail44301  14.503  16.396  21.591 -0.1614  0.2913 -0.1653
 3753G1HFO Tail44302  14.621  16.795  21.626 -0.3691 -0.3282 -0.0837
 3753G1HFO Tail44303  14.833  15.900  21.051 -0.0981 -0.0728 -0.0413
 3753G1HFO Tail44304  14.694  15.986  20.849 -0.1051  0.1355  0.5431
 3753G1HFO Tail44305  14.561  15.801  20.709  0.0281 -0.1554 -0.0460
 3753G1HFO Tail44306  14.461  15.593  20.603 -0.1131 -0.1180 -0.1284
 3753G1HFO Tail44307  14.335  15.453  20.462 -0.0079 -0.1365  0.1691
 3754G1HFO Head44308  20.303  18.284  18.523 -0.1803  0.1759 -0.2383
 3754G1HFO Head44309  20.149  18.037  18.513  0.0702  0.2331  0.0451
 3754G1HFO Head44310  20.707  17.648  18.399  0.1357  0.1020 -0.1082
 3754G1HFO Head44311  20.512  17.831  18.579  0.8280  0.0824 -0.4525
 3754G1HFO link44312  20.256  17.799  18.580 -0.3638 -0.7098  0.1030
 3754G1HFO link44313  20.145  17.555  18.528  0.1483  0.0361 -0.0142
 3754G1HFO Tail44314  20.351  17.321  18.421  0.4200 -0.1432 -0.0468
 3754G1HFO Tail44315  20.153  17.030  18.426  0.1594  0.2882 -0.0042
 3754G1HFO Tail44316  20.092  16.807  18.651 -0.0383  0.3177 -0.1584
 3754G1HFO Tail44317  20.230  16.426  18.854  0.3966 -0.0287  0.1138
 3754G1HFO Tail44318  20.367  17.398  18.079 -0.0308 -0.0555 -0.0804
 3754G1HFO Tail44319  20.181  17.296  17.906 -0.0939 -0.3187 -0.3919
 3754G1HFO Tail44320  19.945  17.258  18.008  0.1610 -0.1847  0.2092
 3754G1HFO Tail44321  19.701  17.246  18.084  0.0993 -0.1113  0.1935
 3754G1HFO Tail44322  19.503  17.274  18.200 -0.2164  0.2527  0.1126
 3755G1HFO Head44323  16.753  19.485  16.009  0.1725 -0.4080  0.0387
 3755G1HFO Head44324  16.877  19.245  15.986 -0.0276  0.2609  0.3107
 3755G1HFO Head44325  16.575  19.045  15.681 -0.0562  0.1441  0.1233
 3755G1HFO Head44326  16.668  18.889  15.889 -0.2756  0.2361 -0.0366
 3755G1HFO link44327  16.788  19.018  16.085  0.1848 -0.2133 -0.0327
 3755G1HFO link44328  16.808  18.940  16.357 -0.1887  0.0632  0.0121
 3755G1HFO Tail44329  16.958  18.660  16.472 -0.1680  0.5085  0.5221
 3755G1HFO Tail44330  17.228  18.779  16.640  0.0511 -0.2391  0.1681
 3755G1HFO Tail44331  17.482  18.975  16.609  0.2992  0.1908  0.3474
 3755G1HFO Tail44332  17.904  19.013  16.674 -0.0909  0.1046 -0.2819
 3755G1HFO Tail44333  16.780  18.549  16.742 -0.0137 -0.0761 -0.0429
 3755G1HFO Tail44334  16.718  18.291  16.795  0.1952 -0.0509 -0.3392
 3755G1HFO Tail44335  16.488  18.258  16.917  0.0525  0.0387 -0.4387
 3755G1HFO Tail44336  16.267  18.181  17.026 -0.0897 -0.2335 -0.1779
 3755G1HFO Tail44337  16.096  18.135  17.185 -0.1959  0.2114  0.0513
 3756G1HFO Head44338  16.478  12.840  16.737  0.0381  0.0213  0.2826
 3756G1HFO Head44339  16.508  12.763  17.034 -0.2382  0.0619 -0.2360
 3756G1HFO Head44340  16.251  12.541  17.421 -0.2919  0.1753 -0.2485
 3756G1HFO Head44341  16.314  12.830  17.407 -0.1479 -0.0810 -0.0090
 3756G1HFO link44342  16.444  12.937  17.211 -0.3611  0.5158 -0.0222
 3756G1HFO link44343  16.517  13.212  17.175  0.0371  0.2115 -0.3685
 3756G1HFO Tail44344  16.722  13.298  16.936 -0.2026 -0.2033 -0.0053
 3756G1HFO Tail44345  16.937  13.531  17.138  0.2356  0.0395 -0.2640
 3756G1HFO Tail44346  16.883  13.722  17.380  0.0953  0.0730 -0.2391
 3756G1HFO Tail44347  16.690  14.096  17.479  0.0564 -0.0565  0.1334
 3756G1HFO Tail44348  16.935  13.027  16.946 -0.2170 -0.1665  0.0754
 3756G1HFO Tail44349  17.093  12.994  17.148  0.0774  0.1058 -0.1840
 3756G1HFO Tail44350  17.042  13.128  17.367 -0.1992  0.2865  0.0978
 3756G1HFO Tail44351  16.994  13.281  17.556 -0.1015  0.0039 -0.1138
 3756G1HFO Tail44352  16.899  13.364  17.763 -0.0940  0.2242  0.0590
 3757G1HFO Head44353  17.203  13.963  16.736  0.2983 -0.1818  0.3830
 3757G1HFO Head44354  17.435  14.073  16.624 -0.0744  0.0565  0.0683
 3757G1HFO Head44355  17.348  14.340  16.037 -0.2351  0.0534 -0.2857
 3757G1HFO Head44356  17.521  14.297  16.315 -0.1733 -0.0302  0.2872
 3757G1HFO link44357  17.389  14.301  16.549 -0.0568 -0.0988 -0.1066
 3757G1HFO link44358  17.263  14.534  16.671 -0.2969  0.0829 -0.1737
 3757G1HFO Tail44359  16.956  14.648  16.610 -0.6129  0.6367 -0.0898
 3757G1HFO Tail44360  16.960  14.955  16.718 -0.1756 -0.0097  0.2012
 3757G1HFO Tail44361  16.960  15.170  16.969 -0.0037  0.3354  0.5838
 3757G1HFO Tail44362  16.766  15.211  17.358 -0.0953  0.1048  0.3034
 3757G1HFO Tail44363  16.791  14.489  16.891 -0.1976  0.3625  0.2908
 3757G1HFO Tail44364  16.526  14.498  16.895  0.0799 -0.1575 -0.3430
 3757G1HFO Tail44365  16.391  14.332  17.052 -0.1068  0.0122 -0.1488
 3757G1HFO Tail44366  16.241  14.159  17.163  0.1768 -0.1194 -0.2287
 3757G1HFO Tail44367  16.061  14.034  17.249  0.2454  0.3759  0.2831
 3758G1HFO Head44368  15.073  19.540  16.501  0.5549  0.0772 -0.3415
 3758G1HFO Head44369  15.173  19.574  16.815 -0.3188  0.2067  0.3201
 3758G1HFO Head44370  14.671  19.554  17.231  0.0388 -0.3250  0.3354
 3758G1HFO Head44371  14.815  19.649  16.985 -0.3145 -0.1723 -0.5152
 3758G1HFO link44372  15.076  19.701  17.004  0.3620 -0.7336 -0.0462
 3758G1HFO link44373  15.179  19.966  17.085 -0.1400 -0.0211 -0.1638
 3758G1HFO Tail44374  15.498  20.050  17.060  0.1737 -0.1487  0.0603
 3758G1HFO Tail44375  15.529  20.178  17.371 -0.0957 -0.0062 -0.4853
 3758G1HFO Tail44376  15.552  20.096  17.675 -0.0321  0.2009 -0.1359
 3758G1HFO Tail44377  15.695  19.753  17.899  0.3918 -0.2271  0.0436
 3758G1HFO Tail44378  15.665  19.744  17.115 -0.1644  0.0633 -0.1422
 3758G1HFO Tail44379  15.925  19.705  17.047  0.2574 -0.1840 -0.1500
 3758G1HFO Tail44380  16.008  19.814  16.829  0.1498 -0.1051  0.0751
 3758G1HFO Tail44381  16.062  19.885  16.595  0.2105 -0.1596 -0.1388
 3758G1HFO Tail44382  16.163  19.919  16.381  0.2853 -0.0150  0.0616
 3759G1HFO Head44383  18.926  15.141  15.715  0.2769 -0.2145 -0.0882
 3759G1HFO Head44384  18.781  14.977  16.016 -0.2010  0.0596 -0.3204
 3759G1HFO Head44385  18.402  14.601  15.903  0.3812  0.0395  0.2150
 3759G1HFO Head44386  18.435  14.774  16.123  0.2565 -0.1378  0.1556
 3759G1HFO link44387  18.545  15.019  16.104  0.3344  0.2834 -0.0572
 3759G1HFO link44388  18.487  15.236  16.282  0.3520  0.1575  0.1272
 3759G1HFO Tail44389  18.550  15.542  16.191  0.3489  0.3856  0.6948
 3759G1HFO Tail44390  18.243  15.693  16.256  0.1969 -0.3139  0.2332
 3759G1HFO Tail44391  17.930  15.596  16.234 -0.0238  0.1234 -0.2570
 3759G1HFO Tail44392  17.653  15.347  16.448 -0.1209  0.0981  0.2240
 3759G1HFO Tail44393  18.714  15.636  16.496 -0.3935  0.2597  0.0075
 3759G1HFO Tail44394  18.586  15.595  16.731 -0.0481  0.1607  0.1211
 3759G1HFO Tail44395  18.581  15.345  16.822  0.4266 -0.2785 -0.0198
 3759G1HFO Tail44396  18.622  15.114  16.900 -0.2341 -0.0202  0.1251
 3759G1HFO Tail44397  18.622  14.907  16.998  0.1003  0.0578  0.0298
 3760G1HFO Head44398  14.251  15.119  17.457 -0.1699  0.0857 -0.0914
 3760G1HFO Head44399  14.542  14.986  17.454  0.1453 -0.0707 -0.0234
 3760G1HFO Head44400  14.507  14.570  17.717  0.0693 -0.4641 -0.1489
 3760G1HFO Head44401  14.724  14.813  17.790  0.0362  0.1880  0.1154
 3760G1HFO link44402  14.682  15.043  17.666  0.5800 -0.0168 -0.6547
 3760G1HFO link44403  14.822  15.294  17.680 -0.3170 -0.1393  0.1884
 3760G1HFO Tail44404  14.739  15.554  17.862  0.1052  0.0474 -0.0630
 3760G1HFO Tail44405  14.425  15.438  17.978  0.4282 -0.2000  0.1516
 3760G1HFO Tail44406  14.304  15.344  18.257  0.0860 -0.2507 -0.0311
 3760G1HFO Tail44407  14.278  15.477  18.674  0.1679 -0.1290  0.1782
 3760G1HFO Tail44408  14.950  15.485  18.126  0.0360  0.0202  0.0151
 3760G1HFO Tail44409  15.178  15.610  18.137  0.1539 -0.0321  0.0594
 3760G1HFO Tail44410  15.382  15.522  18.274 -0.1652 -0.1047  0.1696
 3760G1HFO Tail44411  15.565  15.401  18.407  0.3065  0.1175 -0.1844
 3760G1HFO Tail44412  15.680  15.257  18.562  0.0661 -0.1749  0.1777
 3761G1HFO Head44413  18.803  15.859  22.298 -0.0406  0.0087 -0.0381
 3761G1HFO Head44414  18.896  16.034  22.047  0.0965  0.2308  0.1774
 3761G1HFO Head44415  18.465  16.395  22.197 -0.0148 -0.0225  0.2415
 3761G1HFO Head44416  18.505  16.103  22.018  0.3186 -0.0925 -0.1470
 3761G1HFO link44417  18.728  16.089  21.876  0.1486  0.1067  0.2546
 3761G1HFO link44418  18.775  16.019  21.609  0.0591 -0.0552  0.1971
 3761G1HFO Tail44419  18.630  15.763  21.485 -0.0185 -0.1765  0.3749
 3761G1HFO Tail44420  18.619  15.825  21.136 -0.1562 -0.1138  0.0115
 3761G1HFO Tail44421  18.414  15.973  20.938 -0.3353 -0.0376  0.0556
 3761G1HFO Tail44422  18.034  16.202  20.979  0.2566  0.2119 -0.0692
 3761G1HFO Tail44423  18.863  15.506  21.531  0.1934  0.0672 -0.2814
 3761G1HFO Tail44424  19.098  15.525  21.407  0.2162  0.0639 -0.2107
 3761G1HFO Tail44425  19.138  15.756  21.290 -0.3285 -0.0073 -0.1687
 3761G1HFO Tail44426  19.139  15.986  21.184 -0.0467  0.1629  0.2873
 3761G1HFO Tail44427  19.134  16.216  21.129 -0.0095 -0.0996  0.4377
 3762G1HFO Head44428  17.467  13.002  19.222  0.1235 -0.2990  0.1587
 3762G1HFO Head44429  17.438  12.908  19.528 -0.2743  0.1675  0.3952
 3762G1HFO Head44430  17.386  12.511  19.888  0.0891  0.2279 -0.4047
 3762G1HFO Head44431  17.205  12.700  19.810 -0.1887  0.0602  0.5300
 3762G1HFO link44432  17.182  12.826  19.579 -0.1508  0.4067 -0.3476
 3762G1HFO link44433  16.996  12.737  19.379 -0.1435  0.0767 -0.1451
 3762G1HFO Tail44434  16.724  12.897  19.244  0.1256 -0.1651  0.2461
 3762G1HFO Tail44435  16.850  13.163  19.065  0.0839 -0.2281 -0.2112
 3762G1HFO Tail44436  16.917  13.494  19.108  0.0312  0.4231  0.2063
 3762G1HFO Tail44437  16.718  13.874  19.070  0.2969 -0.0430  0.1074
 3762G1HFO Tail44438  16.646  12.669  18.986 -0.3349  0.1813  0.1175
 3762G1HFO Tail44439  16.743  12.688  18.742 -0.3980 -0.5279 -0.0853
 3762G1HFO Tail44440  16.584  12.736  18.558 -0.3331  0.0883 -0.0833
 3762G1HFO Tail44441  16.418  12.829  18.388  0.1370 -0.0793  0.0761
 3762G1HFO Tail44442  16.299  12.956  18.223 -0.1772 -0.1838  0.5674
 3763G1HFO Head44443  18.535  20.273  17.671  0.0047 -0.1151  0.1158
 3763G1HFO Head44444  18.293  20.352  17.812 -0.3419  0.1924  0.5372
 3763G1HFO Head44445  17.918  20.848  17.564 -0.4367 -0.0293  0.0279
 3763G1HFO Head44446  18.024  20.536  17.514  0.0232  0.1822 -0.2515
 3763G1HFO link44447  18.057  20.353  17.712 -0.0857 -0.1911 -0.0909
 3763G1HFO link44448  17.861  20.166  17.767  0.0426 -0.0039  0.1013
 3763G1HFO Tail44449  17.552  20.208  17.640  0.5078  0.0149 -0.4070
 3763G1HFO Tail44450  17.489  20.483  17.852 -0.1124 -0.1387 -0.1058
 3763G1HFO Tail44451  17.322  20.535  18.133 -0.0223  0.4414  0.3126
 3763G1HFO Tail44452  17.294  20.379  18.537 -0.0768  0.3907 -0.0892
 3763G1HFO Tail44453  17.650  20.366  17.351  0.2205 -0.2025  0.0325
 3763G1HFO Tail44454  17.822  20.246  17.198 -0.0489 -0.1028  0.0046
 3763G1HFO Tail44455  18.006  20.086  17.290 -0.1628 -0.3063 -0.3200
 3763G1HFO Tail44456  18.158  19.927  17.422 -0.3562 -0.1511 -0.0181
 3763G1HFO Tail44457  18.336  19.817  17.536 -0.3985 -0.0477 -0.1821
 3764G1HFO Head44458  17.916  15.731  19.400  0.4107 -0.0465  0.0049
 3764G1HFO Head44459  18.200  15.795  19.509 -0.0508 -0.1958 -0.1629
 3764G1HFO Head44460  18.732  16.007  19.861  0.2570  0.0225 -0.0815
 3764G1HFO Head44461  18.524  16.006  19.628  0.3863  0.0461  0.1726
 3764G1HFO link44462  18.257  15.986  19.687 -0.5750  0.3719  0.3485
 3764G1HFO link44463  18.076  16.170  19.799 -0.1833  0.0218  0.0555
 3764G1HFO Tail44464  18.161  16.476  19.860 -0.4240  0.2790  0.1151
 3764G1HFO Tail44465  18.070  16.495  20.196 -0.1991  0.3245  0.0547
 3764G1HFO Tail44466  17.838  16.369  20.344  0.0226 -0.4526  0.0755
 3764G1HFO Tail44467  17.641  16.429  20.724 -0.1242  0.3275 -0.0719
 3764G1HFO Tail44468  18.515  16.465  19.878  0.0248  0.0878 -0.1655
 3764G1HFO Tail44469  18.609  16.502  20.124  0.2041  0.1623 -0.1069
 3764G1HFO Tail44470  18.584  16.735  20.228 -0.1291  0.0588  0.0344
 3764G1HFO Tail44471  18.581  16.949  20.373 -0.0216 -0.2449 -0.3348
 3764G1HFO Tail44472  18.605  17.109  20.552  0.0480 -0.1973  0.2854
 3765G1HFO Head44473  20.434  19.170  15.774 -0.0675 -0.0636 -0.0463
 3765G1HFO Head44474  20.366  18.945  15.972 -0.1674 -0.1804  0.3294
 3765G1HFO Head44475  20.674  18.799  15.575  0.3196 -0.3587  0.0369
 3765G1HFO Head44476  20.340  18.662  15.658  0.0314  0.0976 -0.2021
 3765G1HFO link44477  20.228  18.726  15.877 -0.0792 -0.1315 -0.6128
 3765G1HFO link44478  19.970  18.646  15.994 -0.0018 -0.1364  0.0456
 3765G1HFO Tail44479  19.752  18.862  16.122 -0.1740 -0.0185  0.2762
 3765G1HFO Tail44480  19.440  18.716  16.087  0.1297  0.1599  0.1110
 3765G1HFO Tail44481  19.142  18.795  16.207 -0.4040  0.2856 -0.2212
 3765G1HFO Tail44482  18.953  19.105  16.453  0.0787 -0.1291 -0.0025
 3765G1HFO Tail44483  19.825  18.830  16.479 -0.1605  0.0120  0.0229
 3765G1HFO Tail44484  19.887  19.029  16.636  0.0055 -0.5024  0.0935
 3765G1HFO Tail44485  20.087  19.012  16.790  0.0151  0.1969 -0.0110
 3765G1HFO Tail44486  20.296  19.035  16.930 -0.0869  0.1019 -0.0488
 3765G1HFO Tail44487  20.470  18.993  17.087 -0.1294  0.0364 -0.2293
 3766G1HFO Head44488  18.858  20.195  17.335 -0.2151  0.0991  0.1932
 3766G1HFO Head44489  18.832  20.008  17.105 -0.2860  0.0346 -0.1159
 3766G1HFO Head44490  18.433  20.250  17.151 -0.4266  0.0282  0.2259
 3766G1HFO Head44491  18.443  19.952  17.103 -0.0978  0.3561 -0.0735
 3766G1HFO link44492  18.674  19.819  17.123  0.3288  0.2694 -0.1172
 3766G1HFO link44493  18.689  19.560  17.247  0.2205 -0.2564 -0.0566
 3766G1HFO Tail44494  18.450  19.336  17.292  0.1916  0.3033  0.1540
 3766G1HFO Tail44495  18.252  19.416  17.553  0.2775  0.1895  0.0322
 3766G1HFO Tail44496  18.023  19.294  17.738 -0.3084 -0.0292 -0.1904
 3766G1HFO Tail44497  17.886  18.895  17.831  0.0113 -0.4285  0.0144
 3766G1HFO Tail44498  18.221  19.405  17.037 -0.2179 -0.4870 -0.4190
 3766G1HFO Tail44499  18.154  19.655  16.999  0.0004 -0.0416 -0.4041
 3766G1HFO Tail44500  18.194  19.749  16.751  0.1401  0.1939 -0.0435
 3766G1HFO Tail44501  18.193  19.823  16.503 -0.1730 -0.1631 -0.1351
 3766G1HFO Tail44502  18.178  19.948  16.319 -0.0523 -0.0576  0.2206
 3767G1HFO Head44503  18.569  17.579  22.430 -0.1527  0.2174 -0.0118
 3767G1HFO Head44504  18.377  17.478  22.229  0.1389  0.1008  0.2015
 3767G1HFO Head44505  18.235  17.918  22.458  0.2791 -0.2678  0.2240
 3767G1HFO Head44506  18.229  17.867  22.162 -0.1047  0.0379  0.6467
 3767G1HFO link44507  18.208  17.617  22.091  0.3296  0.4108  0.1092
 3767G1HFO link44508  18.066  17.494  21.887  0.0169 -0.0338  0.0904
 3767G1HFO Tail44509  17.774  17.364  21.940  0.0536  0.1113  0.0442
 3767G1HFO Tail44510  17.597  17.501  21.669 -0.0373 -0.2020 -0.4770
 3767G1HFO Tail44511  17.323  17.665  21.676  0.0124  0.1099 -0.3615
 3767G1HFO Tail44512  17.109  17.942  21.411 -0.5367 -0.2960 -0.1027
 3767G1HFO Tail44513  17.831  17.022  21.851  0.0073 -0.4178 -0.2008
 3767G1HFO Tail44514  18.010  16.956  21.666 -0.1814  0.0368 -0.1487
 3767G1HFO Tail44515  18.030  16.711  21.616  0.2229 -0.0742 -0.0578
 3767G1HFO Tail44516  18.003  16.466  21.537  0.1586 -0.0983  0.1643
 3767G1HFO Tail44517  17.911  16.257  21.466  0.0528 -0.0056  0.1607
 3768G1HFO Head44518  18.864  14.507  16.188  0.0459  0.1183  0.2547
 3768G1HFO Head44519  18.809  14.780  16.358 -0.2331 -0.1579 -0.0782
 3768G1HFO Head44520  18.796  14.322  16.689 -0.0132  0.2118 -0.0591
 3768G1HFO Head44521  18.741  14.639  16.717  0.0149  0.0728 -0.0722
 3768G1HFO link44522  18.613  14.784  16.555  0.2028  0.0018 -0.1723
 3768G1HFO link44523  18.329  14.850  16.570  0.2169  0.1064 -0.0833
 3768G1HFO Tail44524  18.195  15.047  16.788 -0.0669 -0.2719 -0.0354
 3768G1HFO Tail44525  18.143  15.351  16.593  0.0626  0.1951 -0.3620
 3768G1HFO Tail44526  17.977  15.612  16.627  0.0872  0.0054  0.0992
 3768G1HFO Tail44527  17.576  15.747  16.692  0.0362 -0.2123 -0.1304
 3768G1HFO Tail44528  17.870  14.913  16.783 -0.1514 -0.0478  0.2307
 3768G1HFO Tail44529  17.820  14.666  16.715 -0.0398 -0.0923 -0.0536
 3768G1HFO Tail44530  17.835  14.616  16.458 -0.1058  0.2939 -0.2140
 3768G1HFO Tail44531  17.859  14.525  16.222 -0.1670  0.0740 -0.1225
 3768G1HFO Tail44532  17.928  14.456  16.009  0.1548 -0.1022 -0.0678
 3769G1HFO Head44533  20.662  18.612  18.216  0.4820  0.0296 -0.0488
 3769G1HFO Head44534  20.427  18.808  18.340 -0.0931 -0.3576 -0.4107
 3769G1HFO Head44535  20.804  18.985  17.950 -0.3762  0.1266 -0.0282
 3769G1HFO Head44536  20.474  18.985  17.969  0.2509  0.1780 -0.0974
 3769G1HFO link44537  20.360  19.038  18.225 -0.0029  0.5289  0.3006
 3769G1HFO link44538  20.144  19.182  18.300 -0.2204 -0.2663  0.1438
 3769G1HFO Tail44539  20.010  19.141  18.604 -0.0586  0.4643 -0.4034
 3769G1HFO Tail44540  19.736  19.345  18.564 -0.0010 -0.0346  0.2373
 3769G1HFO Tail44541  19.428  19.335  18.521  0.2409 -0.1065  0.1075
 3769G1HFO Tail44542  19.037  19.511  18.646  0.0395 -0.1521 -0.1420
 3769G1HFO Tail44543  19.875  18.843  18.529  0.2632 -0.1886  0.1856
 3769G1HFO Tail44544  19.677  18.769  18.670 -0.0450  0.2469  0.0619
 3769G1HFO Tail44545  19.494  18.950  18.758  0.0384  0.1618  0.2288
 3769G1HFO Tail44546  19.290  19.077  18.847  0.2302  0.0195 -0.0271
 3769G1HFO Tail44547  19.076  19.134  18.890 -0.1267 -0.1648 -0.1864
 3770G1HFO Head44548  20.992  16.112  16.336  0.0870 -0.1562 -0.1789
 3770G1HFO Head44549  20.930  15.919  16.544 -0.0510 -0.4625  0.2587
 3770G1HFO Head44550  21.053  15.392  16.627  0.0840  0.1788  0.2207
 3770G1HFO Head44551  20.795  15.551  16.704  0.0266 -0.2490 -0.1269
 3770G1HFO link44552  20.722  15.764  16.551 -0.3304  0.6908  0.0754
 3770G1HFO link44553  20.527  15.737  16.350 -0.0674  0.1175 -0.0406
 3770G1HFO Tail44554  20.215  15.686  16.441 -0.2600  0.1061  0.5186
 3770G1HFO Tail44555  20.226  15.625  16.782 -0.3469 -0.0712 -0.0174
 3770G1HFO Tail44556  20.415  15.435  16.948  0.1118 -0.5026  0.0816
 3770G1HFO Tail44557  20.388  15.056  17.139  0.0045  0.1974 -0.4944
 3770G1HFO Tail44558  20.122  16.012  16.428 -0.4135 -0.1162 -0.4723
 3770G1HFO Tail44559  20.271  16.187  16.567 -0.0985  0.2522  0.0275
 3770G1HFO Tail44560  20.445  16.079  16.723  0.0659  0.0317 -0.0678
 3770G1HFO Tail44561  20.591  15.977  16.910  0.2167  0.1791 -0.0359
 3770G1HFO Tail44562  20.700  15.812  17.044 -0.0411 -0.3025  0.1680
 3771G1HFO Head44563  16.650  20.716  20.882 -0.0074 -0.1951  0.1057
 3771G1HFO Head44564  16.536  20.446  20.862 -0.1314 -0.5264  0.5552
 3771G1HFO Head44565  16.341  20.304  20.421  0.0105 -0.2347 -0.3263
 3771G1HFO Head44566  16.513  20.138  20.575  0.3387 -0.0140 -0.1298
 3771G1HFO link44567  16.679  20.252  20.747  0.1775  0.1379 -0.5431
 3771G1HFO link44568  16.962  20.261  20.728  0.1896  0.2441  0.0031
 3771G1HFO Tail44569  17.127  19.981  20.703 -0.3829 -0.1397  0.0142
 3771G1HFO Tail44570  17.319  20.071  20.429 -0.3057  0.1804 -0.1838
 3771G1HFO Tail44571  17.537  19.917  20.248  0.1606  0.3393  0.0433
 3771G1HFO Tail44572  17.600  19.823  19.835  0.0048  0.0776  0.3750
 3771G1HFO Tail44573  17.355  20.014  20.940 -0.0420 -0.0718 -0.5585
 3771G1HFO Tail44574  17.575  19.891  20.897  0.0124  0.0571 -0.0337
 3771G1HFO Tail44575  17.771  19.936  21.046  0.1400  0.0034  0.0474
 3771G1HFO Tail44576  17.946  19.989  21.209  0.0152 -0.1036 -0.0604
 3771G1HFO Tail44577  18.151  20.035  21.318  0.2694  0.2001  0.0821
 3772G1HFO Head44578  21.053  19.063  16.838  0.2144  0.1049 -0.3211
 3772G1HFO Head44579  20.769  18.877  16.829 -0.5559  0.0059  0.3030
 3772G1HFO Head44580  21.124  18.306  16.977 -0.3196 -0.3041 -0.0502
 3772G1HFO Head44581  21.038  18.570  16.856  0.0476  0.1824  0.1325
 3772G1HFO link44582  20.783  18.611  16.804 -0.5401 -0.2700  0.1132
 3772G1HFO link44583  20.596  18.462  16.661 -0.1702 -0.2005 -0.3302
 3772G1HFO Tail44584  20.366  18.288  16.818  0.2072  0.3048 -0.1563
 3772G1HFO Tail44585  20.079  18.429  16.690 -0.2083 -0.1314  0.3862
 3772G1HFO Tail44586  19.825  18.538  16.861 -0.2226  0.2161  0.4555
 3772G1HFO Tail44587  19.418  18.437  16.957  0.3724  0.3003  0.1046
 3772G1HFO Tail44588  20.377  17.967  16.703  0.2240 -0.2256 -0.1511
 3772G1HFO Tail44589  20.538  17.896  16.503 -0.3930 -0.2591  0.3882
 3772G1HFO Tail44590  20.519  18.014  16.272 -0.1395  0.0261  0.0516
 3772G1HFO Tail44591  20.462  18.113  16.044  0.1659  0.0177 -0.1557
 3772G1HFO Tail44592  20.343  18.218  15.869 -0.0405  0.1948 -0.1654
 3773G1HFO Head44593  17.119  17.663  17.276  0.4036 -0.3117  0.0585
 3773G1HFO Head44594  17.093  17.374  17.145  0.2319  0.2013  0.1288
 3773G1HFO Head44595  16.789  17.235  16.785  0.0595 -0.0188  0.2914
 3773G1HFO Head44596  17.082  17.329  16.752  0.0593  0.2746 -0.2435
 3773G1HFO link44597  17.225  17.285  16.959  0.0134  0.3607  0.1403
 3773G1HFO link44598  17.516  17.317  16.959  0.0504 -0.1226 -0.0151
 3773G1HFO Tail44599  17.666  17.526  17.183  0.0864  0.3699  0.1071
 3773G1HFO Tail44600  18.001  17.489  17.086  0.1978 -0.1564  0.1985
 3773G1HFO Tail44601  18.237  17.694  16.979  0.4329 -0.2778 -0.1038
 3773G1HFO Tail44602  18.214  18.067  16.757 -0.0304  0.3287  0.1958
 3773G1HFO Tail44603  17.541  17.824  17.039 -0.1292  0.1292  0.0475
 3773G1HFO Tail44604  17.322  17.821  16.904 -0.0876 -0.1595  0.0385
 3773G1HFO Tail44605  17.325  17.683  16.683 -0.0057  0.0030  0.2140
 3773G1HFO Tail44606  17.383  17.539  16.494  0.0352  0.1103  0.0005
 3773G1HFO Tail44607  17.382  17.356  16.345 -0.3128 -0.1606  0.0558
 3774G1HFO Head44608  19.350  20.954  20.028 -0.1194 -0.2012  0.1989
 3774G1HFO Head44609  19.125  20.800  19.954 -0.3857 -0.1917 -0.1295
 3774G1HFO Head44610  18.957  21.252  19.402 -0.0307 -0.2737 -0.0621
 3774G1HFO Head44611  19.083  21.102  19.669 -0.1309 -0.1456 -0.0694
 3774G1HFO link44612  18.961  20.894  19.766 -0.0672  0.1174  0.4724
 3774G1HFO link44613  18.709  20.780  19.673  0.1950 -0.1759  0.5461
 3774G1HFO Tail44614  18.617  20.475  19.730  0.2255  0.3291  0.0050
 3774G1HFO Tail44615  18.530  20.393  19.388 -0.0352 -0.4751  0.0842
 3774G1HFO Tail44616  18.255  20.391  19.232 -0.3349 -0.3499 -0.2245
 3774G1HFO Tail44617  18.046  20.201  18.909  0.1850  0.3811  0.2557
 3774G1HFO Tail44618  18.924  20.327  19.749 -0.0709  0.0993 -0.1493
 3774G1HFO Tail44619  18.973  20.098  19.636 -0.2869  0.0632 -0.0716
 3774G1HFO Tail44620  18.794  19.983  19.480  0.0794 -0.0915  0.0006
 3774G1HFO Tail44621  18.653  19.824  19.343  0.1921 -0.0441 -0.0328
 3774G1HFO Tail44622  18.576  19.660  19.200  0.3239  0.1523  0.3621
 3775G1HFO Head44623  19.053  20.704  18.536  0.0081 -0.2794  0.3370
 3775G1HFO Head44624  18.901  20.451  18.632 -0.2005 -0.0051 -0.0590
 3775G1HFO Head44625  19.376  20.312  18.297  0.0150  0.5651  0.1791
 3775G1HFO Head44626  19.198  20.196  18.548  0.0034 -0.0346  0.1236
 3775G1HFO link44627  18.947  20.188  18.540  0.2550  0.6182  0.0196
 3775G1HFO link44628  18.781  20.058  18.348  0.3753  0.4129  0.0602
 3775G1HFO Tail44629  18.464  20.025  18.418  0.0784 -0.0826  0.2943
 3775G1HFO Tail44630  18.475  20.166  18.734 -0.1187  0.2805  0.0768
 3775G1HFO Tail44631  18.432  20.030  19.019 -0.1574  0.0947  0.0119
 3775G1HFO Tail44632  18.204  19.969  19.382 -0.3079  0.1662  0.1716
 3775G1HFO Tail44633  18.319  20.307  18.288 -0.1825  0.0780 -0.4037
 3775G1HFO Tail44634  18.385  20.555  18.344  0.1275  0.0744 -0.2153
 3775G1HFO Tail44635  18.207  20.711  18.444 -0.2595  0.0856 -0.0598
 3775G1HFO Tail44636  18.018  20.873  18.496 -0.0095 -0.1541  0.1465
 3775G1HFO Tail44637  17.875  21.021  18.615 -0.1715 -0.4013 -0.1406
 3776G1HFO Head44638  17.693  18.453  18.014 -0.1892 -0.1078 -0.2239
 3776G1HFO Head44639  17.499  18.675  17.883  0.0293  0.0548  0.1484
 3776G1HFO Head44640  17.224  18.143  17.787  0.0826  0.1591  0.2711
 3776G1HFO Head44641  17.202  18.440  17.704 -0.2482 -0.0219  0.3205
 3776G1HFO link44642  17.246  18.638  17.855  0.2061 -0.1853  0.3672
 3776G1HFO link44643  17.031  18.749  17.998  0.3166 -0.0438 -0.0588
 3776G1HFO Tail44644  16.722  18.810  17.889 -0.0711  0.1547  0.4680
 3776G1HFO Tail44645  16.761  19.151  17.822 -0.0009  0.0195 -0.5144
 3776G1HFO Tail44646  17.007  19.344  17.740 -0.1108 -0.0355  0.1692
 3776G1HFO Tail44647  17.242  19.449  17.392  0.0575 -0.2386  0.0315
 3776G1HFO Tail44648  16.772  18.699  17.577 -0.1912  0.0371 -0.4255
 3776G1HFO Tail44649  16.993  18.718  17.439  0.1787  0.2872  0.1432
 3776G1HFO Tail44650  17.168  18.893  17.533  0.1971 -0.3208  0.1608
 3776G1HFO Tail44651  17.348  19.028  17.653 -0.0177 -0.0701 -0.0215
 3776G1HFO Tail44652  17.516  19.184  17.705 -0.0761 -0.1910  0.1617
 3777G1HFO Head44653  18.423  18.162  18.044 -0.2097  0.0776 -0.0861
 3777G1HFO Head44654  18.307  18.035  17.775 -0.1796 -0.5398  0.2809
 3777G1HFO Head44655  18.061  17.778  17.459 -0.1185  0.1141  0.0065
 3777G1HFO Head44656  18.056  18.054  17.448  0.5111 -0.0693  0.2647
 3777G1HFO link44657  18.193  18.218  17.610 -0.5229 -0.0697  0.1724
 3777G1HFO link44658  18.114  18.490  17.682 -0.0668 -0.0042  0.3194
 3777G1HFO Tail44659  18.341  18.722  17.751  0.0883  0.3260 -0.1974
 3777G1HFO Tail44660  18.616  18.541  17.642 -0.1079 -0.2463  0.1114
 3777G1HFO Tail44661  18.773  18.282  17.708 -0.0824  0.1145  0.1046
 3777G1HFO Tail44662  19.079  18.020  17.535  0.2348 -0.1062 -0.0739
 3777G1HFO Tail44663  18.301  18.917  17.474 -0.0230  0.2890  0.0786
 3777G1HFO Tail44664  18.084  19.023  17.404  0.1676 -0.2034 -0.2647
 3777G1HFO Tail44665  17.865  18.881  17.388  0.0699 -0.0447  0.3306
 3777G1HFO Tail44666  17.649  18.749  17.396  0.0150 -0.1275  0.2123
 3777G1HFO Tail44667  17.482  18.581  17.407 -0.4137 -0.1138  0.2338
 3778G1HFO Head44668  20.263  19.466  20.206  0.1351  0.2904 -0.0968
 3778G1HFO Head44669  19.980  19.388  20.267 -0.0709  0.0381 -0.3270
 3778G1HFO Head44670  19.657  20.010  20.315 -0.0684 -0.2919 -0.0788
 3778G1HFO Head44671  19.813  19.751  20.356 -0.1090  0.1630 -0.3833
 3778G1HFO link44672  19.764  19.556  20.209  0.2590  0.1136 -0.0853
 3778G1HFO link44673  19.526  19.454  20.108 -0.0752  0.1071 -0.3169
 3778G1HFO Tail44674  19.408  19.152  20.174  0.3942 -0.3087 -0.1540
 3778G1HFO Tail44675  19.174  19.155  19.942  0.3065 -0.0707  0.3280
 3778G1HFO Tail44676  18.871  19.061  19.904  0.1593  0.0331 -0.0947
 3778G1HFO Tail44677  18.522  18.932  20.159 -0.2217 -0.3292  0.2622
 3778G1HFO Tail44678  19.652  18.948  20.024  0.1945  0.0873  0.4446
 3778G1HFO Tail44679  19.575  18.774  19.816 -0.1385  0.1881 -0.0971
 3778G1HFO Tail44680  19.320  18.696  19.833 -0.0474  0.3445 -0.1305
 3778G1HFO Tail44681  19.068  18.654  19.843 -0.0405  0.0655 -0.0558
 3778G1HFO Tail44682  18.840  18.658  19.904  0.1564  0.0960  0.2420
 3779G1HFO Head44683  18.951  19.528  21.727 -0.1275 -0.2732  0.1989
 3779G1HFO Head44684  18.796  19.328  21.572  0.0415  0.2301 -0.2500
 3779G1HFO Head44685  18.990  19.117  21.992  0.2508 -0.2089 -0.1165
 3779G1HFO Head44686  18.935  18.964  21.736 -0.0738 -0.2954 -0.1739
 3779G1HFO link44687  18.904  19.091  21.511  0.1653 -0.4516  0.0163
 3779G1HFO link44688  19.075  19.069  21.280 -0.1418  0.2471 -0.1363
 3779G1HFO Tail44689  18.968  19.155  20.983 -0.1986 -0.1371 -0.3999
 3779G1HFO Tail44690  18.844  18.865  20.867  0.4017 -0.1100 -0.2551
 3779G1HFO Tail44691  18.622  18.795  20.638 -0.4733 -0.0289 -0.7142
 3779G1HFO Tail44692  18.197  18.750  20.579 -0.0811 -0.2420  0.3850
 3779G1HFO Tail44693  18.687  19.331  21.066  0.0790  0.2963 -0.2053
 3779G1HFO Tail44694  18.426  19.266  21.026 -0.3440 -0.0630  0.0757
 3779G1HFO Tail44695  18.368  19.001  21.002 -0.0192  0.0373 -0.1745
 3779G1HFO Tail44696  18.293  18.756  21.024  0.0343  0.0807  0.3245
 3779G1HFO Tail44697  18.202  18.546  20.970 -0.0506  0.1113  0.0688
 3780G1HFO Head44698  16.698  13.568  20.674 -0.1617 -0.1622  0.1930
 3780G1HFO Head44699  16.951  13.623  20.486  0.1805  0.3391  0.5118
 3780G1HFO Head44700  17.203  13.963  20.759  0.0617 -0.1947 -0.3675
 3780G1HFO Head44701  17.062  14.020  20.500  0.3207  0.2012 -0.1036
 3780G1HFO link44702  16.953  13.841  20.336  0.1362  0.2903  0.1883
 3780G1HFO link44703  16.751  13.909  20.148  0.0861 -0.0765 -0.1771
 3780G1HFO Tail44704  16.788  13.959  19.832  0.0185  0.0689 -0.0019
 3780G1HFO Tail44705  16.531  14.190  19.756 -0.3128  0.3128  0.0228
 3780G1HFO Tail44706  16.463  14.402  19.509  0.0563  0.0969  0.3523
 3780G1HFO Tail44707  16.267  14.757  19.393  0.1650  0.3344 -0.1691
 3780G1HFO Tail44708  17.057  14.176  19.829 -0.0428  0.0811 -0.2152
 3780G1HFO Tail44709  17.103  14.354  20.028 -0.1705  0.2637 -0.0338
 3780G1HFO Tail44710  17.291  14.545  20.000  0.2551  0.1105  0.1418
 3780G1HFO Tail44711  17.465  14.715  19.925  0.2710 -0.1012  0.1889
 3780G1HFO Tail44712  17.634  14.819  19.799 -0.1787  0.0933 -0.1987
 3781G1HFO Head44713  20.021  16.935  15.787 -0.3129  0.2940 -0.1816
 3781G1HFO Head44714  20.047  16.727  16.052 -0.1944 -0.3527 -0.2603
 3781G1HFO Head44715  19.403  16.641  16.269 -0.3617  0.3331 -0.1820
 3781G1HFO Head44716  19.652  16.794  16.196 -0.1133  0.4257 -0.1646
 3781G1HFO link44717  19.876  16.692  16.265  0.1782  0.2147 -0.0014
 3781G1HFO link44718  19.913  16.486  16.465  0.0522 -0.0801 -0.1346
 3781G1HFO Tail44719  19.816  16.504  16.777 -0.1560 -0.0670 -0.2299
 3781G1HFO Tail44720  19.595  16.769  16.717  0.2833 -0.4057  0.1117
 3781G1HFO Tail44721  19.393  16.961  16.872  0.3887  0.1200 -0.0603
 3781G1HFO Tail44722  19.056  16.926  17.131  0.1325 -0.1566 -0.1574
 3781G1HFO Tail44723  19.564  16.277  16.721  0.0538 -0.1003  0.1536
 3781G1HFO Tail44724  19.437  16.158  16.918  0.0399 -0.2852 -0.4177
 3781G1HFO Tail44725  19.298  16.303  17.076  0.2370  0.1953 -0.1314
 3781G1HFO Tail44726  19.180  16.440  17.263 -0.1936 -0.0441  0.0394
 3781G1HFO Tail44727  19.130  16.531  17.468  0.3085 -0.1315 -0.1775
 3782G1HFO Head44728  13.403  17.358  19.125 -0.0846  0.0350 -0.1840
 3782G1HFO Head44729  13.426  17.150  19.325  0.0345 -0.2664 -0.1511
 3782G1HFO Head44730  13.292  17.565  19.620 -0.0521  0.1677  0.0388
 3782G1HFO Head44731  13.561  17.451  19.564 -0.1215 -0.0990 -0.0294
 3782G1HFO link44732  13.568  17.187  19.562 -0.7322  0.4271  0.4211
 3782G1HFO link44733  13.809  17.044  19.622  0.0203  0.2940  0.1566
 3782G1HFO Tail44734  14.088  17.069  19.444 -0.0264  0.2453  0.5396
 3782G1HFO Tail44735  14.318  16.862  19.602 -0.1340  0.0228 -0.3276
 3782G1HFO Tail44736  14.587  16.873  19.758  0.5926 -0.0216  0.3723
 3782G1HFO Tail44737  14.942  17.097  19.815  0.0768 -0.0501 -0.0883
 3782G1HFO Tail44738  14.021  16.861  19.165  0.1756 -0.2113 -0.1470
 3782G1HFO Tail44739  14.213  16.719  19.070  0.0207 -0.0673 -0.0101
 3782G1HFO Tail44740  14.456  16.797  19.137 -0.0295 -0.0161 -0.0036
 3782G1HFO Tail44741  14.672  16.920  19.187  0.2438 -0.2263 -0.0200
 3782G1HFO Tail44742  14.893  17.002  19.175 -0.0310  0.0974  0.1793
 3783G1HFO Head44743  18.963  13.779  17.184 -0.1178 -0.1562 -0.1535
 3783G1HFO Head44744  18.899  13.744  17.473  0.1199 -0.3409  0.0470
 3783G1HFO Head44745  18.594  14.172  17.184  0.4412 -0.3077  0.1322
 3783G1HFO Head44746  18.689  14.129  17.502 -0.1380  0.1344 -0.2728
 3783G1HFO link44747  18.695  13.875  17.603 -0.1899 -0.3450  0.0473
 3783G1HFO link44748  18.449  13.739  17.677 -0.2713  0.0966 -0.2558
 3783G1HFO Tail44749  18.256  13.836  17.928 -0.2465 -0.3195 -0.1558
 3783G1HFO Tail44750  18.137  14.143  17.811 -0.2459  0.3112  0.1029
 3783G1HFO Tail44751  17.946  14.231  17.592 -0.2795 -0.5000 -0.0171
 3783G1HFO Tail44752  17.626  14.108  17.316 -0.0402  0.0810  0.0055
 3783G1HFO Tail44753  17.989  13.620  17.872 -0.2320 -0.2958 -0.2071
 3783G1HFO Tail44754  17.903  13.596  17.625  0.0183  0.1532 -0.0296
 3783G1HFO Tail44755  17.999  13.762  17.444 -0.0656 -0.0227  0.1794
 3783G1HFO Tail44756  18.101  13.953  17.307  0.1597  0.1532  0.0407
 3783G1HFO Tail44757  18.143  14.152  17.194  0.0196  0.1706  0.0243
 3784G1HFO Head44758  14.887  19.994  19.372 -0.5529  0.1315  0.0954
 3784G1HFO Head44759  14.974  19.692  19.267 -0.3621  0.2265  0.3597
 3784G1HFO Head44760  14.494  19.559  19.498 -0.1708 -0.1641  0.1320
 3784G1HFO Head44761  14.556  19.620  19.223  0.2161 -0.1594 -0.0032
 3784G1HFO link44762  14.790  19.585  19.113  0.0336 -0.1648 -0.6105
 3784G1HFO link44763  14.844  19.500  18.847 -0.0127 -0.1747  0.1666
 3784G1HFO Tail44764  15.124  19.330  18.766  0.1089 -0.0300  0.2600
 3784G1HFO Tail44765  15.223  19.463  18.463  0.0164  0.0856  0.2593
 3784G1HFO Tail44766  15.508  19.444  18.324  0.2035 -0.0344 -0.2553
 3784G1HFO Tail44767  15.727  19.243  17.991  0.1797 -0.0786 -0.1647
 3784G1HFO Tail44768  15.342  19.487  18.988 -0.4119  0.2119  0.2522
 3784G1HFO Tail44769  15.372  19.744  18.954 -0.3978  0.0668 -0.3329
 3784G1HFO Tail44770  15.198  19.881  18.824  0.0666  0.1637  0.0413
 3784G1HFO Tail44771  14.998  19.973  18.702  0.0452  0.0290 -0.1791
 3784G1HFO Tail44772  14.866  20.081  18.546  0.0808  0.2836  0.2204
 3785G1HFO Head44773  13.007  17.364  18.731  0.0978  0.2279  0.4888
 3785G1HFO Head44774  13.300  17.424  18.620 -0.0024  0.2442 -0.2319
 3785G1HFO Head44775  13.080  17.194  18.123 -0.0354  0.1456 -0.3030
 3785G1HFO Head44776  13.210  17.093  18.396 -0.1032 -0.0541 -0.0195
 3785G1HFO link44777  13.431  17.229  18.482  0.5990 -0.1730  0.5250
 3785G1HFO link44778  13.702  17.155  18.503  0.0888  0.3274  0.3342
 3785G1HFO Tail44779  13.813  17.014  18.771 -0.1229 -0.0604  0.0204
 3785G1HFO Tail44780  14.110  16.913  18.633 -0.0495  0.1145 -0.1968
 3785G1HFO Tail44781  14.438  16.994  18.661  0.0191 -0.0799  0.2669
 3785G1HFO Tail44782  14.722  17.260  18.854 -0.1589  0.1656 -0.0498
 3785G1HFO Tail44783  13.908  17.307  18.939 -0.0184  0.2353 -0.1624
 3785G1HFO Tail44784  13.820  17.334  19.191 -0.2745 -0.3242  0.0647
 3785G1HFO Tail44785  13.915  17.500  19.351 -0.0511 -0.0052 -0.0328
 3785G1HFO Tail44786  14.051  17.671  19.475  0.0163  0.0207 -0.0386
 3785G1HFO Tail44787  14.214  17.797  19.578 -0.0316  0.1719  0.2068
 3786G1HFO Head44788  18.728  18.172  19.706  0.2430 -0.1109 -0.1615
 3786G1HFO Head44789  18.714  17.945  19.958  0.0234  0.1658  0.0252
 3786G1HFO Head44790  18.244  18.118  20.132 -0.0079 -0.0687 -0.1980
 3786G1HFO Head44791  18.315  17.853  20.076  0.3320 -0.1668 -0.1591
 3786G1HFO link44792  18.530  17.756  19.940  0.4114  0.0465 -0.1611
 3786G1HFO link44793  18.552  17.527  19.792  0.0856  0.1295  0.4642
 3786G1HFO Tail44794  18.700  17.528  19.484  0.1828 -0.0891 -0.5354
 3786G1HFO Tail44795  18.931  17.782  19.555  0.0432  0.0826  0.2673
 3786G1HFO Tail44796  19.087  17.895  19.808  0.1056 -0.2019  0.1784
 3786G1HFO Tail44797  19.060  18.199  20.097  0.2227 -0.2807  0.1777
 3786G1HFO Tail44798  18.914  17.266  19.536 -0.2570  0.1519 -0.1046
 3786G1HFO Tail44799  18.807  17.022  19.589  0.1786 -0.3296  0.1179
 3786G1HFO Tail44800  18.582  17.011  19.719 -0.0411  0.0113  0.2222
 3786G1HFO Tail44801  18.380  17.023  19.870  0.1803 -0.0688 -0.0158
 3786G1HFO Tail44802  18.188  16.982  20.000  0.0845  0.1179  0.2151
 3787G1HFO Head44803  13.743  17.725  18.770  0.1538 -0.1634  0.3634
 3787G1HFO Head44804  13.834  17.825  19.051 -0.2568  0.2933 -0.0123
 3787G1HFO Head44805  14.030  18.427  18.806 -0.1129 -0.1982  0.2214
 3787G1HFO Head44806  13.951  18.144  18.857 -0.4380  0.1593 -0.2850
 3787G1HFO link44807  14.001  18.018  19.063 -0.0805 -0.1324 -0.3177
 3787G1HFO link44808  14.244  18.006  19.197  0.2437  0.2612 -0.2609
 3787G1HFO Tail44809  14.326  18.264  19.366 -0.3426 -0.1475 -0.6187
 3787G1HFO Tail44810  14.585  18.141  19.572 -0.0662  0.0154 -0.2514
 3787G1HFO Tail44811  14.637  17.869  19.715 -0.2341 -0.1384 -0.0540
 3787G1HFO Tail44812  14.990  17.650  19.825  0.3043  0.0996  0.3932
 3787G1HFO Tail44813  14.482  18.453  19.132  0.1422 -0.0002  0.1327
 3787G1HFO Tail44814  14.729  18.399  19.086 -0.3296 -0.0625 -0.1185
 3787G1HFO Tail44815  14.826  18.159  19.133 -0.2485 -0.0864  0.0146
 3787G1HFO Tail44816  14.935  17.943  19.209  0.1816  0.1010  0.0845
 3787G1HFO Tail44817  15.052  17.779  19.327 -0.4383  0.0306 -0.0702
 3788G1HFO Head44818  19.787  13.929  18.049  0.0196  0.3231  0.3779
 3788G1HFO Head44819  19.802  14.177  18.258  0.4626 -0.0408 -0.2991
 3788G1HFO Head44820  19.899  13.814  18.581  0.3282 -0.1535 -0.0259
 3788G1HFO Head44821  19.677  14.014  18.604  0.3184 -0.0345  0.1087
 3788G1HFO link44822  19.624  14.199  18.434 -0.1953  0.3446 -0.0309
 3788G1HFO link44823  19.472  14.445  18.463  0.0001  0.3574  0.1966
 3788G1HFO Tail44824  19.565  14.724  18.308  0.2111  0.1189 -0.4696
 3788G1HFO Tail44825  19.258  14.809  18.196 -0.0965 -0.4741 -0.2687
 3788G1HFO Tail44826  19.130  15.089  18.126 -0.0596 -0.4211 -0.4554
 3788G1HFO Tail44827  18.764  15.236  17.957  0.0942 -0.0480  0.2162
 3788G1HFO Tail44828  19.553  14.925  18.619  0.2600  0.4080 -0.2021
 3788G1HFO Tail44829  19.628  14.808  18.849  0.1058 -0.2058  0.2781
 3788G1HFO Tail44830  19.773  14.594  18.821  0.1757 -0.1800 -0.1369
 3788G1HFO Tail44831  19.924  14.396  18.757 -0.1886  0.0223  0.1179
 3788G1HFO Tail44832  20.042  14.233  18.633 -0.2655 -0.1200 -0.1230
 3789G1HFO Head44833  15.009  15.186  17.239 -0.0083 -0.0952  0.0101
 3789G1HFO Head44834  15.246  15.179  17.450 -0.1655 -0.0956 -0.2106
 3789G1HFO Head44835  14.931  14.752  17.422  0.1312 -0.0440 -0.1107
 3789G1HFO Head44836  15.189  14.836  17.644  0.2080 -0.3601 -0.1374
 3789G1HFO link44837  15.213  15.082  17.691 -0.2651 -0.5332 -0.0571
 3789G1HFO link44838  15.302  15.186  17.932 -0.3232 -0.3274  0.0859
 3789G1HFO Tail44839  15.521  15.031  18.142 -0.1209 -0.1882 -0.4283
 3789G1HFO Tail44840  15.322  14.973  18.437  0.1059  0.0866  0.1335
 3789G1HFO Tail44841  15.366  14.873  18.711 -0.0494 -0.6001  0.0070
 3789G1HFO Tail44842  15.233  14.590  19.014  0.2920  0.0164  0.2849
 3789G1HFO Tail44843  15.530  14.736  17.975  0.0925  0.1372  0.1279
 3789G1HFO Tail44844  15.666  14.708  17.766 -0.2282  0.1562  0.3117
 3789G1HFO Tail44845  15.919  14.687  17.761  0.0053  0.1159  0.0119
 3789G1HFO Tail44846  16.168  14.701  17.792  0.0234 -0.0044 -0.1250
 3789G1HFO Tail44847  16.380  14.730  17.896 -0.0548 -0.0777  0.2648
 3790G1HFO Head44848  15.776  17.116  20.056 -0.3306 -0.0711  0.0239
 3790G1HFO Head44849  15.902  17.214  20.348  0.1972  0.1330  0.3987
 3790G1HFO Head44850  16.480  17.474  20.026  0.1787  0.0600  0.1279
 3790G1HFO Head44851  16.201  17.425  20.129  0.1125 -0.3340  0.3117
 3790G1HFO link44852  16.170  17.267  20.324  0.5999 -0.0709 -0.3850
 3790G1HFO link44853  16.352  17.107  20.452  0.2904 -0.0245 -0.2949
 3790G1HFO Tail44854  16.418  16.780  20.377  0.2101 -0.3935 -0.1713
 3790G1HFO Tail44855  16.492  16.701  20.677  0.0961 -0.2318 -0.2181
 3790G1HFO Tail44856  16.690  16.502  20.813  0.3588 -0.2696  0.0308
 3790G1HFO Tail44857  17.072  16.347  20.750 -0.2137  0.0955  0.1780
 3790G1HFO Tail44858  16.079  16.685  20.342 -0.1054  0.3440 -0.1026
 3790G1HFO Tail44859  15.955  16.523  20.509 -0.1503 -0.2607 -0.0763
 3790G1HFO Tail44860  15.996  16.529  20.769  0.1227 -0.1028  0.0447
 3790G1HFO Tail44861  16.063  16.492  21.017  0.1066 -0.1552 -0.0165
 3790G1HFO Tail44862  16.164  16.526  21.229 -0.1085  0.1754 -0.0177
 3791G1HFO Head44863  14.169  18.839  20.801 -0.0883 -0.2040  0.0032
 3791G1HFO Head44864  14.343  18.874  20.573 -0.4766 -0.5294  0.0438
 3791G1HFO Head44865  13.995  19.317  20.678 -0.0167  0.1234 -0.0086
 3791G1HFO Head44866  14.058  19.149  20.426  0.3042  0.0502  0.4618
 3791G1HFO link44867  14.300  19.053  20.383  0.0986  0.4442 -0.2900
 3791G1HFO link44868  14.484  19.145  20.178 -0.0519  0.2268  0.1561
 3791G1HFO Tail44869  14.794  19.063  20.158  0.3143 -0.2060  0.1960
 3791G1HFO Tail44870  14.810  18.725  20.214 -0.0892  0.0277 -0.3081
 3791G1HFO Tail44871  14.883  18.444  20.087 -0.1692 -0.4032  0.0957
 3791G1HFO Tail44872  14.828  18.017  20.124  0.1014 -0.2138 -0.2567
 3791G1HFO Tail44873  14.852  19.034  19.828  0.4252 -0.2957 -0.0936
 3791G1HFO Tail44874  15.044  18.917  19.705  0.0120  0.3620  0.2336
 3791G1HFO Tail44875  15.017  18.662  19.667  0.2713  0.0365  0.0864
 3791G1HFO Tail44876  15.015  18.410  19.623  0.1921 -0.0997 -0.0969
 3791G1HFO Tail44877  15.079  18.183  19.612  0.3374  0.0391  0.0983
 3792G1HFO Head44878  20.251  19.459  18.798 -0.2608 -0.1077 -0.1260
 3792G1HFO Head44879  19.972  19.652  18.710 -0.3339 -0.1164 -0.0158
 3792G1HFO Head44880  19.890  19.896  19.324 -0.1880  0.0072  0.0187
 3792G1HFO Head44881  20.041  19.868  19.062  0.3282 -0.2243  0.2864
 3792G1HFO link44882  19.909  19.872  18.826 -0.0810 -0.1778  0.1618
 3792G1HFO link44883  19.677  20.042  18.795 -0.1539  0.1975  0.1988
 3792G1HFO Tail44884  19.393  19.896  18.740  0.1048  0.1159  0.1692
 3792G1HFO Tail44885  19.439  19.787  18.390  0.2891 -0.1485 -0.1400
 3792G1HFO Tail44886  19.235  19.662  18.180  0.1805 -0.1472  0.1130
 3792G1HFO Tail44887  18.814  19.580  18.134 -0.1843  0.4199  0.0891
 3792G1HFO Tail44888  19.458  19.591  18.898 -0.1120 -0.0369 -0.0996
 3792G1HFO Tail44889  19.677  19.561  19.020 -0.4216  0.0534 -0.1773
 3792G1HFO Tail44890  19.721  19.345  19.152 -0.1224  0.2061 -0.3941
 3792G1HFO Tail44891  19.793  19.127  19.268 -0.1773  0.1126 -0.0863
 3792G1HFO Tail44892  19.897  18.952  19.395 -0.0354  0.0194  0.2203
 3793G1HFO Head44893  17.627  16.408  19.976  0.2925 -0.0072  0.1589
 3793G1HFO Head44894  17.673  16.057  19.930 -0.0981 -0.1844  0.4276
 3793G1HFO Head44895  17.237  16.150  20.293 -0.0356 -0.2659 -0.1691
 3793G1HFO Head44896  17.387  15.920  20.202 -0.2728 -0.0806 -0.7180
 3793G1HFO link44897  17.463  15.880  19.958  0.3457 -0.2093 -0.4271
 3793G1HFO link44898  17.406  15.649  19.802 -0.1491  0.0665 -0.3668
 3793G1HFO Tail44899  17.504  15.607  19.494  0.3866  0.0153  0.0004
 3793G1HFO Tail44900  17.690  15.320  19.527 -0.0713 -0.1931 -0.0294
 3793G1HFO Tail44901  17.988  15.267  19.528 -0.2116  0.2090  0.2074
 3793G1HFO Tail44902  18.335  15.387  19.290 -0.3068 -0.0175  0.1275
 3793G1HFO Tail44903  17.244  15.422  19.346  0.1399 -0.3530 -0.2292
 3793G1HFO Tail44904  17.185  15.196  19.438  0.0058  0.2510 -0.0452
 3793G1HFO Tail44905  16.946  15.154  19.530 -0.0989  0.0710  0.0975
 3793G1HFO Tail44906  16.700  15.163  19.603 -0.1971 -0.2212  0.1545
 3793G1HFO Tail44907  16.473  15.125  19.625  0.1736  0.1508 -0.0437
 3794G1HFO Head44908  16.599  21.159  17.020 -0.0921 -0.0914 -0.1630
 3794G1HFO Head44909  16.855  21.025  17.094  0.5899 -0.0669 -0.0122
 3794G1HFO Head44910  17.049  20.641  16.566 -0.0723 -0.1039 -0.1709
 3794G1HFO Head44911  17.012  20.861  16.738  0.3347 -0.3765 -0.4106
 3794G1HFO link44912  16.902  20.794  16.972  0.2445 -0.8645 -0.8061
 3794G1HFO link44913  16.940  20.549  17.106 -0.1546 -0.2018 -0.2111
 3794G1HFO Tail44914  17.213  20.474  17.278  0.1469 -0.2105  0.2991
 3794G1HFO Tail44915  17.071  20.381  17.568 -0.2563  0.3895 -0.0648
 3794G1HFO Tail44916  16.835  20.241  17.689  0.1952 -0.0373 -0.1336
 3794G1HFO Tail44917  16.721  19.878  17.899 -0.2290  0.1582  0.1222
 3794G1HFO Tail44918  17.255  20.162  17.126  0.0247 -0.1182 -0.2253
 3794G1HFO Tail44919  17.216  19.963  17.288 -0.0633 -0.0344 -0.0626
 3794G1HFO Tail44920  17.436  19.888  17.414 -0.2149 -0.1836  0.0192
 3794G1HFO Tail44921  17.660  19.800  17.506  0.2308  0.1863 -0.1164
 3794G1HFO Tail44922  17.814  19.687  17.633  0.1395  0.0158 -0.0995
 3795G1HFO Head44923  15.480  21.823  18.897  0.1169  0.0234 -0.0035
 3795G1HFO Head44924  15.518  21.601  19.176 -0.3376 -0.3196 -0.2622
 3795G1HFO Head44925  15.459  21.360  19.615 -0.1273  0.0428 -0.0621
 3795G1HFO Head44926  15.744  21.472  19.475 -0.4646  0.0181  0.1028
 3795G1HFO link44927  15.760  21.497  19.222 -0.1309 -0.3679  0.4447
 3795G1HFO link44928  15.916  21.334  19.037  0.2574 -0.0937 -0.2212
 3795G1HFO Tail44929  16.244  21.338  18.981 -0.1231  0.0237 -0.4123
 3795G1HFO Tail44930  16.253  21.046  18.776 -0.2135 -0.3304 -0.0434
 3795G1HFO Tail44931  16.040  20.880  18.594  0.1606 -0.0985 -0.2705
 3795G1HFO Tail44932  16.015  20.574  18.282 -0.1304  0.0431 -0.2361
 3795G1HFO Tail44933  16.262  21.608  18.761 -0.0653 -0.1102  0.2256
 3795G1HFO Tail44934  16.464  21.691  18.625  0.1610  0.3941 -0.1746
 3795G1HFO Tail44935  16.696  21.614  18.726 -0.4075  0.1594  0.1273
 3795G1HFO Tail44936  16.893  21.496  18.833 -0.0777  0.1696  0.0199
 3795G1HFO Tail44937  17.107  21.431  18.910  0.2629 -0.1400  0.3172
 3796G1HFO Head44938  19.099  17.172  18.401  0.0393  0.0196  0.1843
 3796G1HFO Head44939  19.011  16.888  18.415 -0.4913  0.1607  0.0852
 3796G1HFO Head44940  18.373  16.904  18.399 -0.1110 -0.0845  0.2407
 3796G1HFO Head44941  18.631  16.969  18.264  0.1768  0.3462  0.3078
 3796G1HFO link44942  18.835  16.787  18.232 -0.1930  0.1491 -0.1693
 3796G1HFO link44943  18.880  16.591  18.029  0.0672  0.1231  0.1061
 3796G1HFO Tail44944  19.178  16.513  17.902 -0.0634  0.4298 -0.2041
 3796G1HFO Tail44945  19.352  16.598  18.180 -0.1197 -0.2722 -0.0740
 3796G1HFO Tail44946  19.537  16.839  18.258 -0.3099 -0.5900 -0.2431
 3796G1HFO Tail44947  19.696  17.012  18.630  0.1545 -0.0608 -0.0008
 3796G1HFO Tail44948  19.120  16.174  17.964 -0.0848 -0.3354 -0.0771
 3796G1HFO Tail44949  18.894  16.104  18.082  0.1106 -0.3648  0.0115
 3796G1HFO Tail44950  18.766  15.901  17.993 -0.0464 -0.1990 -0.0917
 3796G1HFO Tail44951  18.606  15.728  17.889 -0.0401 -0.0955 -0.0762
 3796G1HFO Tail44952  18.471  15.536  17.851 -0.0239 -0.0457 -0.3197
 3797G1HFO Head44953  16.312  15.575  16.136 -0.0841  0.1571 -0.1746
 3797G1HFO Head44954  16.434  15.313  16.017 -0.1032  0.3214 -0.2214
 3797G1HFO Head44955  16.708  15.587  15.737 -0.0983 -0.3506  0.0072
 3797G1HFO Head44956  16.801  15.335  15.868 -0.2549  0.0944  0.1049
 3797G1HFO link44957  16.673  15.250  16.083  0.1283  0.4074  0.3635
 3797G1HFO link44958  16.775  15.183  16.335  0.1203 -0.4888  0.2959
 3797G1HFO Tail44959  16.820  15.394  16.576 -0.4626 -0.0590  0.3091
 3797G1HFO Tail44960  17.165  15.380  16.606 -0.0043  0.1803  0.2293
 3797G1HFO Tail44961  17.347  15.372  16.844 -0.2691 -0.1680 -0.0959
 3797G1HFO Tail44962  17.763  15.392  16.991  0.0097  0.4842 -0.0868
 3797G1HFO Tail44963  16.807  15.698  16.412  0.1707  0.2829  0.1102
 3797G1HFO Tail44964  16.786  15.719  16.151  0.0705 -0.0855 -0.3024
 3797G1HFO Tail44965  16.930  15.893  16.017 -0.0496  0.1691  0.0728
 3797G1HFO Tail44966  17.076  16.029  15.855 -0.1039 -0.1300 -0.0245
 3797G1HFO Tail44967  17.253  16.097  15.713  0.1724 -0.0168  0.0159
 3798G1HFO Head44968  18.604  21.271  19.731 -0.3162  0.5084  0.0453
 3798G1HFO Head44969  18.567  21.362  20.095 -0.1427 -0.5034  0.3348
 3798G1HFO Head44970  18.612  21.010  20.585 -0.1629  0.3321 -0.0267
 3798G1HFO Head44971  18.434  21.258  20.467  0.4050  0.1776 -0.1472
 3798G1HFO link44972  18.378  21.260  20.232 -0.4420 -0.2638  0.5616
 3798G1HFO link44973  18.170  21.090  20.146  0.2769  0.0500  0.2695
 3798G1HFO Tail44974  18.073  21.043  19.822  0.1280 -0.1402 -0.1398
 3798G1HFO Tail44975  18.220  20.728  19.795  0.1611 -0.0363  0.0385
 3798G1HFO Tail44976  18.137  20.441  19.671  0.4434 -0.0535 -0.2386
 3798G1HFO Tail44977  17.818  20.278  19.428 -0.2002 -0.1516 -0.1710
 3798G1HFO Tail44978  17.739  20.939  19.842  0.1917 -0.4196  0.2245
 3798G1HFO Tail44979  17.584  21.028  20.036 -0.1188 -0.0353 -0.2282
 3798G1HFO Tail44980  17.643  20.938  20.270  0.0518 -0.3024  0.0286
 3798G1HFO Tail44981  17.689  20.895  20.518  0.2550 -0.1567  0.0564
 3798G1HFO Tail44982  17.766  20.806  20.713 -0.0077 -0.0458 -0.1195
 3799G1HFO Head44983  18.585  15.675  21.953 -0.0504 -0.1306  0.1711
 3799G1HFO Head44984  18.339  15.789  21.841 -0.1288 -0.2890 -0.1200
 3799G1HFO Head44985  18.457  15.251  21.691 -0.3036 -0.1032 -0.4647
 3799G1HFO Head44986  18.221  15.449  21.645  0.2603 -0.0222  0.1048
 3799G1HFO link44987  18.127  15.606  21.814  0.3016  0.1948 -0.0730
 3799G1HFO link44988  17.848  15.695  21.798 -0.1082 -0.0794 -0.1908
 3799G1HFO Tail44989  17.640  15.584  21.582 -0.5064 -0.0765 -0.0734
 3799G1HFO Tail44990  17.585  15.879  21.401 -0.2820 -0.0612 -0.2298
 3799G1HFO Tail44991  17.662  15.963  21.104 -0.4600  0.3922  0.1083
 3799G1HFO Tail44992  17.504  15.986  20.695 -0.2399 -0.2036 -0.0989
 3799G1HFO Tail44993  17.856  15.426  21.342 -0.0658 -0.2026  0.2831
 3799G1HFO Tail44994  18.027  15.569  21.218 -0.0493 -0.1564  0.0121
 3799G1HFO Tail44995  18.143  15.757  21.349  0.2804 -0.0165  0.3503
 3799G1HFO Tail44996  18.244  15.971  21.441 -0.0032  0.3956  0.0511
 3799G1HFO Tail44997  18.374  16.126  21.559  0.3625 -0.0995 -0.3476
 3800G1HFO Head44998  17.859  18.143  22.725  0.2594  0.0322 -0.2510
 3800G1HFO Head44999  17.760  18.117  22.419  0.0958  0.1297  0.0346
 3800G1HFO Head45000  17.530  17.785  22.701 -0.1529 -0.2904  0.4378
 3800G1HFO Head45001  17.399  18.019  22.566 -0.1219  0.0375 -0.0457
 3800G1HFO link45002  17.493  18.101  22.341 -0.3407 -0.2521  0.0710
 3800G1HFO link45003  17.368  18.293  22.176  0.3877  0.0508  0.2594
 3800G1HFO Tail45004  17.235  18.215  21.879 -0.0772 -0.0076  0.0910
 3800G1HFO Tail45005  17.524  18.054  21.734 -0.1359  0.2212 -0.3354
 3800G1HFO Tail45006  17.628  17.940  21.432  0.1093 -0.3577  0.0386
 3800G1HFO Tail45007  17.517  17.613  21.171 -0.0202 -0.0696 -0.3205
 3800G1HFO Tail45008  17.099  17.895  21.969  0.1863 -0.2189 -0.1364
 3800G1HFO Tail45009  17.156  17.720  22.162 -0.2934 -0.2748  0.0624
 3800G1HFO Tail45010  17.406  17.683  22.220 -0.1444 -0.1135  0.3496
 3800G1HFO Tail45011  17.659  17.660  22.241  0.1777  0.0975 -0.1104
 3800G1HFO Tail45012  17.869  17.631  22.318 -0.1886  0.0223  0.2033
 3801G1HFO Head45013  19.674  17.761  20.923 -0.2945 -0.3938 -0.0894
 3801G1HFO Head45014  19.694  18.035  20.769 -0.3336 -0.0334 -0.1085
 3801G1HFO Head45015  19.956  18.212  21.196  0.0472  0.0764  0.0908
 3801G1HFO Head45016  20.024  18.273  20.857 -0.3565 -0.3371  0.3138
 3801G1HFO link45017  19.903  18.124  20.658  0.2843  0.0245 -0.3380
 3801G1HFO link45018  20.021  18.058  20.411  0.2181  0.0326  0.1639
 3801G1HFO Tail45019  19.938  18.262  20.162  0.1555  0.1133  0.2025
 3801G1HFO Tail45020  19.916  18.020  19.888 -0.1747 -0.3567  0.1704
 3801G1HFO Tail45021  19.806  17.960  19.605  0.1001 -0.0939  0.2720
 3801G1HFO Tail45022  19.457  17.936  19.336 -0.0433  0.0818 -0.2513
 3801G1HFO Tail45023  19.598  18.351  20.230  0.0642  0.1154  0.3287
 3801G1HFO Tail45024  19.549  18.605  20.289 -0.1536  0.2908  0.1890
 3801G1HFO Tail45025  19.312  18.695  20.315 -0.0341  0.0005  0.1007
 3801G1HFO Tail45026  19.098  18.825  20.339  0.2313  0.0182  0.1241
 3801G1HFO Tail45027  18.878  18.899  20.332 -0.0636 -0.0914  0.1104
 3802G1HFO Head45028  16.256  18.671  15.739  0.0187 -0.0721 -0.1417
 3802G1HFO Head45029  16.202  18.893  15.944  0.0955  0.0569  0.1117
 3802G1HFO Head45030  15.761  18.901  16.489 -0.0071 -0.0488 -0.0996
 3802G1HFO Head45031  15.923  18.770  16.226 -0.0913 -0.4136  0.5250
 3802G1HFO link45032  16.179  18.825  16.196  0.0391 -0.3914 -0.2247
 3802G1HFO link45033  16.380  18.717  16.362  0.0745 -0.3944 -0.1497
 3802G1HFO Tail45034  16.371  18.665  16.685  0.1305 -0.0827  0.0944
 3802G1HFO Tail45035  16.403  18.991  16.820  0.2712  0.1553 -0.0281
 3802G1HFO Tail45036  16.498  19.075  17.111 -0.4683 -0.4701  0.0860
 3802G1HFO Tail45037  16.840  19.167  17.346 -0.1322 -0.2000 -0.0174
 3802G1HFO Tail45038  16.050  18.617  16.737 -0.0300  0.2364 -0.3616
 3802G1HFO Tail45039  15.941  18.396  16.815 -0.2661  0.3781  0.1941
 3802G1HFO Tail45040  15.695  18.396  16.892 -0.1650  0.1852 -0.3065
 3802G1HFO Tail45041  15.437  18.397  16.916 -0.3582 -0.0701  0.0956
 3802G1HFO Tail45042  15.223  18.482  16.935  0.0245 -0.0125 -0.0820
 3803G1HFO Head45043  20.398  19.482  16.808  0.2913 -0.2235  0.0756
 3803G1HFO Head45044  20.274  19.333  16.542  0.0206  0.0454  0.3221
 3803G1HFO Head45045  20.053  19.920  16.553  0.0891 -0.2211  0.1115
 3803G1HFO Head45046  20.167  19.682  16.411  0.1845 -0.3173  0.3605
 3803G1HFO link45047  20.054  19.440  16.429 -0.2061  0.0578 -0.1532
 3803G1HFO link45048  19.940  19.282  16.214  0.2808 -0.2615 -0.0782
 3803G1HFO Tail45049  19.663  19.380  16.068 -0.3485  0.3238 -0.3938
 3803G1HFO Tail45050  19.437  19.279  16.306 -0.2506 -0.1880 -0.0763
 3803G1HFO Tail45051  19.436  19.046  16.518  0.1119  0.1227 -0.3478
 3803G1HFO Tail45052  19.312  18.639  16.585 -0.0072  0.1137  0.2792
 3803G1HFO Tail45053  19.690  19.732  16.187 -0.3371 -0.1880 -0.0999
 3803G1HFO Tail45054  19.688  19.751  16.451  0.1304 -0.1754  0.2875
 3803G1HFO Tail45055  19.461  19.763  16.580  0.0549  0.1544  0.0026
 3803G1HFO Tail45056  19.267  19.728  16.727 -0.0977 -0.0705 -0.0303
 3803G1HFO Tail45057  19.097  19.758  16.877 -0.0793 -0.0600 -0.1127
 3804G1HFO Head45058  14.754  17.833  21.478  0.2476 -0.1583  0.0045
 3804G1HFO Head45059  14.537  17.643  21.378  0.1372 -0.0806  0.4278
 3804G1HFO Head45060  14.314  17.263  21.619  0.0103  0.2796 -0.3554
 3804G1HFO Head45061  14.527  17.204  21.423 -0.1937 -0.2513  0.0533
 3804G1HFO link45062  14.619  17.415  21.261 -0.3474  0.6156 -0.4649
 3804G1HFO link45063  14.847  17.413  21.105 -0.0253 -0.0774  0.0972
 3804G1HFO Tail45064  14.967  17.119  20.994  0.3596 -0.2490 -0.3755
 3804G1HFO Tail45065  15.064  17.168  20.666 -0.0679  0.0123 -0.2194
 3804G1HFO Tail45066  15.003  17.049  20.372  0.0595  0.1205 -0.1657
 3804G1HFO Tail45067  14.931  16.667  20.185  0.1215 -0.1080  0.2577
 3804G1HFO Tail45068  15.285  17.063  21.184 -0.0737  0.0467  0.1183
 3804G1HFO Tail45069  15.536  17.128  21.110 -0.1135 -0.0404  0.2002
 3804G1HFO Tail45070  15.611  17.049  20.873  0.0226  0.2691  0.1482
 3804G1HFO Tail45071  15.635  16.970  20.633  0.0553  0.0688 -0.0647
 3804G1HFO Tail45072  15.659  16.862  20.425 -0.1957  0.1813  0.0396
 3805G1HFO Head45073  13.581  16.788  20.357  0.2907 -0.3880  0.2269
 3805G1HFO Head45074  13.813  16.954  20.447  0.4213 -0.0732  0.2752
 3805G1HFO Head45075  13.874  17.373  19.913  0.0074 -0.0004  0.0915
 3805G1HFO Head45076  13.806  17.131  20.077 -0.3470 -0.1738 -0.0317
 3805G1HFO link45077  13.946  17.108  20.292 -0.0464  0.6546 -0.1998
 3805G1HFO link45078  14.204  17.229  20.343 -0.0116 -0.2994 -0.0464
 3805G1HFO Tail45079  14.340  17.460  20.136 -0.4451  0.2564  0.1281
 3805G1HFO Tail45080  14.680  17.453  20.172  0.3279 -0.3765 -0.0994
 3805G1HFO Tail45081  14.938  17.507  20.359 -0.2668  0.3269 -0.1059
 3805G1HFO Tail45082  15.081  17.734  20.693  0.0258  0.0472  0.0857
 3805G1HFO Tail45083  14.328  17.293  19.827 -0.1566  0.1524  0.0058
 3805G1HFO Tail45084  14.516  17.308  19.650 -0.0344  0.0735 -0.0188
 3805G1HFO Tail45085  14.445  17.309  19.397 -0.1983 -0.0157  0.1083
 3805G1HFO Tail45086  14.377  17.369  19.157 -0.2579  0.0226 -0.0060
 3805G1HFO Tail45087  14.355  17.387  18.928 -0.0406  0.2705  0.1377
 3806G1HFO Head45088  14.318  19.219  19.093 -0.2067 -0.0226 -0.0081
 3806G1HFO Head45089  14.626  19.208  19.102 -0.2790  0.0233  0.0005
 3806G1HFO Head45090  14.356  19.177  19.684 -0.1229  0.0830 -0.3977
 3806G1HFO Head45091  14.603  19.044  19.475  0.1418 -0.0259  0.1128
 3806G1HFO link45092  14.735  19.218  19.331  0.3638 -0.3510 -0.7711
 3806G1HFO link45093  15.016  19.244  19.360  0.1459  0.3133  0.1022
 3806G1HFO Tail45094  15.211  18.973  19.331  0.4499 -0.2832 -0.3652
 3806G1HFO Tail45095  15.327  19.008  19.009  0.0433 -0.0747 -0.4185
 3806G1HFO Tail45096  15.617  19.118  18.916 -0.0407  0.1152 -0.2168
 3806G1HFO Tail45097  15.849  19.398  18.682  0.0431  0.1960  0.1224
 3806G1HFO Tail45098  15.490  19.036  19.502  0.0606  0.1063 -0.0171
 3806G1HFO Tail45099  15.553  19.261  19.616  0.2648 -0.1147 -0.3691
 3806G1HFO Tail45100  15.789  19.297  19.695 -0.2452 -0.1352  0.1963
 3806G1HFO Tail45101  16.042  19.345  19.727  0.3075  0.5140 -0.1767
 3806G1HFO Tail45102  16.247  19.430  19.791 -0.4107  0.0639  0.1917
 3807G1HFO Head45103  17.644  18.952  18.303  0.1273 -0.1366  0.3841
 3807G1HFO Head45104  17.412  19.024  18.108 -0.3713  0.3603 -0.1295
 3807G1HFO Head45105  16.761  18.992  18.315  0.2394  0.0484  0.0650
 3807G1HFO Head45106  17.080  19.078  18.363 -0.0141 -0.3082  0.2962
 3807G1HFO link45107  17.231  19.204  18.188  0.1331  0.0332  0.4944
 3807G1HFO link45108  17.246  19.491  18.129  0.2993  0.1937 -0.2043
 3807G1HFO Tail45109  17.426  19.636  17.918 -0.1622 -0.2602  0.1514
 3807G1HFO Tail45110  17.201  19.870  17.817  0.1175  0.1409 -0.5116
 3807G1HFO Tail45111  17.142  20.128  17.966  0.0792  0.0924  0.1786
 3807G1HFO Tail45112  16.794  20.312  18.145  0.2552 -0.1191 -0.2026
 3807G1HFO Tail45113  17.619  19.859  18.130  0.0656  0.1949 -0.0230
 3807G1HFO Tail45114  17.576  20.118  18.113 -0.2401 -0.0960 -0.1290
 3807G1HFO Tail45115  17.695  20.267  18.293  0.0373  0.0435  0.0009
 3807G1HFO Tail45116  17.799  20.379  18.502 -0.0914 -0.0124  0.0708
 3807G1HFO Tail45117  17.873  20.537  18.667  0.3612  0.2141  0.0914
 3808G1HFO Head45118  20.039  15.138  16.828 -0.0568  0.1576  0.2086
 3808G1HFO Head45119  19.824  14.962  16.696 -0.0090  0.3607  0.0334
 3808G1HFO Head45120  19.242  14.668  16.505  0.0504  0.1557 -0.0092
 3808G1HFO Head45121  19.476  14.874  16.484  0.1093  0.0637  0.3540
 3808G1HFO link45122  19.555  15.020  16.687  0.0220  0.3546  0.4973
 3808G1HFO link45123  19.425  15.241  16.808 -0.0917  0.0732  0.0000
 3808G1HFO Tail45124  19.107  15.291  16.824  0.5428  0.3615 -0.2518
 3808G1HFO Tail45125  19.092  15.624  16.826 -0.0484  0.3011 -0.0386
 3808G1HFO Tail45126  18.987  15.835  17.051 -0.1991  0.1402  0.5959
 3808G1HFO Tail45127  18.701  15.887  17.380 -0.2764  0.0801 -0.0303
 3808G1HFO Tail45128  19.034  15.225  16.480  0.1689 -0.4745  0.0126
 3808G1HFO Tail45129  19.094  15.399  16.291 -0.0906  0.1379  0.0756
 3808G1HFO Tail45130  19.282  15.575  16.328  0.1419  0.1631 -0.0637
 3808G1HFO Tail45131  19.467  15.745  16.379  0.1010  0.1831 -0.1011
 3808G1HFO Tail45132  19.595  15.950  16.385 -0.2254  0.0756 -0.2700
 3809G1HFO Head45133  19.091  16.289  18.480  0.0481  0.0419  0.1300
 3809G1HFO Head45134  19.153  16.014  18.677 -0.3152 -0.0470  0.0884
 3809G1HFO Head45135  18.648  15.918  18.476  0.2545  0.0775 -0.0995
 3809G1HFO Head45136  18.836  15.763  18.651  0.6770 -0.0983 -0.2015
 3809G1HFO link45137  18.944  15.918  18.836  0.3260  0.2263  0.1859
 3809G1HFO link45138  18.812  16.102  18.997  0.0341  0.3517 -0.0708
 3809G1HFO Tail45139  18.584  16.003  19.206 -0.3133  0.2470  0.4379
 3809G1HFO Tail45140  18.425  15.767  18.982 -0.1965 -0.1013  0.1447
 3809G1HFO Tail45141  18.509  15.561  18.766  0.1223  0.1899 -0.1945
 3809G1HFO Tail45142  18.444  15.475  18.336 -0.2968 -0.1320 -0.3585
 3809G1HFO Tail45143  18.798  15.790  19.373 -0.1322 -0.2401 -0.1386
 3809G1HFO Tail45144  19.048  15.865  19.416  0.0087  0.0346  0.0910
 3809G1HFO Tail45145  19.212  15.824  19.211  0.0055 -0.1104 -0.0903
 3809G1HFO Tail45146  19.378  15.739  19.041 -0.0287 -0.1193  0.0219
 3809G1HFO Tail45147  19.497  15.716  18.836  0.1488 -0.1256 -0.0827
 3810G1HFO Head45148  14.941  14.521  20.795 -0.0067 -0.2999 -0.1682
 3810G1HFO Head45149  15.258  14.504  20.855  0.0295  0.3596 -0.3002
 3810G1HFO Head45150  14.893  14.904  21.115 -0.0168  0.0789 -0.0399
 3810G1HFO Head45151  15.214  14.791  21.155 -0.0352 -0.3368  0.2243
 3810G1HFO link45152  15.384  14.722  20.956  0.2809  0.2228  0.2515
 3810G1HFO link45153  15.527  14.911  20.799  0.2150  0.3367 -0.7280
 3810G1HFO Tail45154  15.661  15.154  20.948 -0.3400  0.2284  0.1506
 3810G1HFO Tail45155  15.528  15.425  20.766 -0.4446 -0.2003 -0.1667
 3810G1HFO Tail45156  15.452  15.703  20.871 -0.0206  0.5725  0.1260
 3810G1HFO Tail45157  15.282  16.077  20.756 -0.2357  0.2548 -0.4899
 3810G1HFO Tail45158  15.440  15.195  21.233  0.1435  0.1346 -0.0208
 3810G1HFO Tail45159  15.542  15.147  21.467  0.0646  0.1884 -0.0034
 3810G1HFO Tail45160  15.759  15.271  21.556 -0.1036 -0.2087  0.1955
 3810G1HFO Tail45161  15.980  15.346  21.662  0.0654  0.1654  0.0923
 3810G1HFO Tail45162  16.192  15.440  21.711 -0.0883 -0.0350 -0.0638
 3811G1HFO Head45163  13.755  17.185  21.454  0.1774  0.1257 -0.1663
 3811G1HFO Head45164  13.892  16.970  21.300 -0.1784  0.3961  0.0895
 3811G1HFO Head45165  13.931  16.608  21.617 -0.0838 -0.2014  0.1054
 3811G1HFO Head45166  14.179  16.767  21.510  0.0251  0.1923 -0.0225
 3811G1HFO link45167  14.159  16.933  21.307  0.1195 -0.1304  0.3920
 3811G1HFO link45168  14.333  16.916  21.096  0.1292 -0.0262  0.1381
 3811G1HFO Tail45169  14.519  17.146  20.944 -0.2023  0.1784 -0.3036
 3811G1HFO Tail45170  14.634  16.964  20.663  0.4418 -0.2320 -0.1904
 3811G1HFO Tail45171  14.829  16.725  20.655 -0.0838  0.3348  0.4650
 3811G1HFO Tail45172  14.838  16.295  20.564  0.0008 -0.1301 -0.0496
 3811G1HFO Tail45173  14.279  17.337  20.790  0.2447  0.1502 -0.3332
 3811G1HFO Tail45174  14.245  17.592  20.852  0.3174  0.3245  0.0919
 3811G1HFO Tail45175  14.462  17.725  20.903  0.0163  0.0592  0.1527
 3811G1HFO Tail45176  14.649  17.893  20.951  0.1186  0.0006  0.1716
 3811G1HFO Tail45177  14.856  17.986  20.995 -0.1797 -0.1820 -0.6227
 3812G1HFO Head45178  14.962  20.143  20.973 -0.2088 -0.2342 -0.2478
 3812G1HFO Head45179  15.078  20.087  20.757  0.2316 -0.3586  0.3039
 3812G1HFO Head45180  15.666  20.201  21.086  0.1316 -0.2631  0.3834
 3812G1HFO Head45181  15.407  20.247  20.970  0.2420 -0.0961  0.3086
 3812G1HFO link45182  15.344  20.167  20.723  0.0598 -0.1451  0.1552
 3812G1HFO link45183  15.472  20.199  20.467  0.3843 -0.1901  0.0425
 3812G1HFO Tail45184  15.331  20.098  20.184 -0.3470 -0.0397 -0.5378
 3812G1HFO Tail45185  15.572  19.880  20.087 -0.3991  0.0731  0.0159
 3812G1HFO Tail45186  15.593  19.683  19.821  0.0819  0.0907 -0.3406
 3812G1HFO Tail45187  15.392  19.651  19.450 -0.1986  0.0375  0.3092
 3812G1HFO Tail45188  15.084  19.900  20.320  0.3694  0.0336 -0.1070
 3812G1HFO Tail45189  15.010  19.666  20.206  0.3288 -0.1590  0.1429
 3812G1HFO Tail45190  15.008  19.464  20.355 -0.1573  0.2395 -0.4704
 3812G1HFO Tail45191  15.059  19.276  20.524 -0.0201  0.1314 -0.1203
 3812G1HFO Tail45192  15.050  19.134  20.713 -0.0601 -0.1134 -0.0725
 3813G1HFO Head45193  16.002  18.035  22.404 -0.1528  0.1481 -0.3765
 3813G1HFO Head45194  15.848  18.173  22.195  0.4010 -0.0592  0.1096
 3813G1HFO Head45195  15.577  17.898  21.617  0.0626 -0.0827 -0.1322
 3813G1HFO Head45196  15.664  18.091  21.851 -0.2326  0.0172  0.1437
 3813G1HFO link45197  15.913  18.111  21.935  0.0625 -0.3674  0.0770
 3813G1HFO link45198  16.150  18.149  21.783  0.0584 -0.1634  0.0348
 3813G1HFO Tail45199  16.293  17.940  21.568  0.1519 -0.3084  0.1679
 3813G1HFO Tail45200  16.052  17.683  21.549  0.1874 -0.0449  0.1863
 3813G1HFO Tail45201  16.064  17.360  21.531  0.2280  0.3629 -0.1900
 3813G1HFO Tail45202  16.041  17.040  21.243  0.1231 -0.2621 -0.0013
 3813G1HFO Tail45203  16.270  18.141  21.288 -0.0611  0.0571 -0.4998
 3813G1HFO Tail45204  16.220  18.039  21.049  0.0906  0.2360  0.2484
 3813G1HFO Tail45205  16.243  18.202  20.852 -0.0203  0.2194 -0.0760
 3813G1HFO Tail45206  16.227  18.380  20.673 -0.0163 -0.2439  0.2228
 3813G1HFO Tail45207  16.156  18.539  20.519 -0.1482  0.5795 -0.0713
 3814G1HFO Head45208  13.255  15.587  19.887  0.0566  0.3145  0.4319
 3814G1HFO Head45209  13.358  15.802  19.671 -0.3675 -0.2103  0.3602
 3814G1HFO Head45210  13.517  15.340  19.192  0.1938 -0.1188  0.4357
 3814G1HFO Head45211  13.502  15.482  19.450 -0.0079 -0.3974  0.0797
 3814G1HFO link45212  13.467  15.741  19.444  0.3351 -0.2699  0.4209
 3814G1HFO link45213  13.628  15.916  19.284  0.2070 -0.2510  0.2600
 3814G1HFO Tail45214  13.866  16.127  19.396 -0.0886  0.0829 -0.6925
 3814G1HFO Tail45215  14.110  15.901  19.459  0.1518  0.0319  0.0002
 3814G1HFO Tail45216  14.384  15.780  19.363 -0.1713  0.1150  0.0364
 3814G1HFO Tail45217  14.781  15.953  19.301 -0.4238 -0.1079  0.2090
 3814G1HFO Tail45218  13.975  16.319  19.111 -0.0713 -0.1132  0.2036
 3814G1HFO Tail45219  13.851  16.253  18.885 -0.1430 -0.1304  0.4141
 3814G1HFO Tail45220  13.737  16.458  18.758 -0.0677  0.0135 -0.1447
 3814G1HFO Tail45221  13.605  16.618  18.600  0.1997  0.1344 -0.0550
 3814G1HFO Tail45222  13.517  16.716  18.409  0.1468  0.1188 -0.0856
 3815G1HFO Head45223  19.241  16.732  15.233  0.0632 -0.2050  0.2949
 3815G1HFO Head45224  18.940  16.917  15.352 -0.0311  0.1651  0.2357
 3815G1HFO Head45225  19.337  17.201  15.347  0.1947 -0.3603  0.1008
 3815G1HFO Head45226  19.163  17.148  15.624 -0.1087  0.1099  0.2087
 3815G1HFO link45227  18.920  17.036  15.572 -0.0039 -0.1375  0.2970
 3815G1HFO link45228  18.689  17.017  15.760 -0.2052 -0.0813  0.1697
 3815G1HFO Tail45229  18.772  17.063  16.064 -0.0786 -0.2817  0.2585
 3815G1HFO Tail45230  19.071  17.225  16.086 -0.1813 -0.0617 -0.1064
 3815G1HFO Tail45231  19.163  17.507  16.008 -0.1489 -0.0063  0.0011
 3815G1HFO Tail45232  18.985  17.886  15.930  0.0063 -0.0062  0.0609
 3815G1HFO Tail45233  18.570  17.322  16.148 -0.2914 -0.0823 -0.2654
 3815G1HFO Tail45234  18.545  17.507  15.977  0.0204  0.2204 -0.2181
 3815G1HFO Tail45235  18.708  17.513  15.771  0.0803 -0.3019 -0.0531
 3815G1HFO Tail45236  18.861  17.466  15.563  0.2429 -0.2831  0.0960
 3815G1HFO Tail45237  18.947  17.459  15.349  0.0652  0.0510  0.1240
 3816G1HFO Head45238  16.706  12.369  20.099  0.1773 -0.0989  0.1222
 3816G1HFO Head45239  16.701  12.663  20.057 -0.3050  0.1864 -0.0148
 3816G1HFO Head45240  16.356  12.568  19.809 -0.0352 -0.0063  0.0204
 3816G1HFO Head45241  16.601  12.685  19.672  0.0879 -0.2398  0.0537
 3816G1HFO link45242  16.812  12.776  19.821  0.2140  0.4053 -0.0277
 3816G1HFO link45243  16.897  13.043  19.794 -0.3090 -0.0673  0.3185
 3816G1HFO Tail45244  16.845  13.206  19.515 -0.5030 -0.3064  0.1223
 3816G1HFO Tail45245  16.760  13.492  19.683  0.0644 -0.0293 -0.4956
 3816G1HFO Tail45246  16.491  13.636  19.705  0.0495 -0.2654 -0.1533
 3816G1HFO Tail45247  16.261  13.803  20.021  0.2929 -0.0804 -0.0019
 3816G1HFO Tail45248  17.181  13.292  19.429  0.1488  0.1332 -0.5214
 3816G1HFO Tail45249  17.322  13.372  19.624 -0.2519  0.1340 -0.1305
 3816G1HFO Tail45250  17.362  13.214  19.837 -0.0426 -0.2352  0.0266
 3816G1HFO Tail45251  17.435  13.075  20.035 -0.0144  0.0244 -0.2392
 3816G1HFO Tail45252  17.479  12.999  20.250  0.2506  0.0863 -0.2855
 3817G1HFO Head45253  15.368  19.276  21.102 -0.1884  0.1654  0.1806
 3817G1HFO Head45254  15.525  19.282  20.875 -0.4388 -0.0921  0.1014
 3817G1HFO Head45255  15.737  18.952  21.167 -0.1320 -0.2699 -0.1751
 3817G1HFO Head45256  15.874  19.235  21.107  0.1598  0.2209  0.1788
 3817G1HFO link45257  15.771  19.388  20.899 -0.1308  0.3179  0.0213
 3817G1HFO link45258  15.952  19.510  20.708  0.3625 -0.1522  0.3570
 3817G1HFO Tail45259  16.267  19.612  20.776 -0.0088 -0.2059 -0.0909
 3817G1HFO Tail45260  16.442  19.324  20.777  0.1012 -0.1080 -0.1736
 3817G1HFO Tail45261  16.589  19.114  20.590  0.2447 -0.1152 -0.1353
 3817G1HFO Tail45262  16.629  18.687  20.533  0.1034 -0.3203 -0.0446
 3817G1HFO Tail45263  16.329  19.742  20.462  0.2002 -0.1607 -0.0481
 3817G1HFO Tail45264  16.327  19.606  20.242  0.0506 -0.0150  0.0601
 3817G1HFO Tail45265  16.313  19.347  20.234 -0.2770  0.1253  0.1791
 3817G1HFO Tail45266  16.275  19.102  20.272  0.1078  0.1280  0.0107
 3817G1HFO Tail45267  16.275  18.864  20.254 -0.1164 -0.2134 -0.0750
 3818G1HFO Head45268  20.836  16.935  19.527 -0.1643 -0.1140  0.0463
 3818G1HFO Head45269  20.656  17.014  19.252 -0.2352  0.0404 -0.5589
 3818G1HFO Head45270  20.575  16.948  18.750 -0.2369 -0.0309 -0.1093
 3818G1HFO Head45271  20.360  16.924  18.981 -0.1000  0.2616 -0.0992
 3818G1HFO link45272  20.443  16.860  19.215  0.0419  0.2642  0.2376
 3818G1HFO link45273  20.292  16.759  19.427 -0.1727  0.2099  0.0731
 3818G1HFO Tail45274  19.988  16.628  19.386 -0.1728 -0.2296 -0.0324
 3818G1HFO Tail45275  19.897  16.726  19.044  0.2298  0.2723  0.2527
 3818G1HFO Tail45276  19.685  16.616  18.825  0.1549 -0.0098  0.3181
 3818G1HFO Tail45277  19.266  16.672  18.702  0.4622  0.4993  0.1725
 3818G1HFO Tail45278  20.058  16.303  19.313  0.3493 -0.0846  0.0301
 3818G1HFO Tail45279  20.281  16.194  19.363 -0.3537  0.2120 -0.3077
 3818G1HFO Tail45280  20.492  16.302  19.262  0.0389 -0.0071  0.0627
 3818G1HFO Tail45281  20.674  16.428  19.157  0.0014 -0.1379  0.1421
 3818G1HFO Tail45282  20.800  16.552  18.994 -0.0880  0.0771 -0.1931
 3819G1HFO Head45283  14.626  15.776  16.547  0.0943 -0.0099  0.6080
 3819G1HFO Head45284  14.728  16.051  16.655  0.1357  0.0670 -0.0754
 3819G1HFO Head45285  14.514  16.558  16.448 -0.0835 -0.1030 -0.0866
 3819G1HFO Head45286  14.730  16.307  16.351 -0.2181  0.0746  0.3372
 3819G1HFO link45287  14.888  16.204  16.529  0.0199 -0.0078  0.5486
 3819G1HFO link45288  15.115  16.341  16.625  0.0347 -0.0998 -0.0715
 3819G1HFO Tail45289  15.424  16.323  16.484  0.2641 -0.1283 -0.0535
 3819G1HFO Tail45290  15.604  16.585  16.659 -0.2680 -0.2207  0.8985
 3819G1HFO Tail45291  15.924  16.605  16.738 -0.0963  0.1915  0.2564
 3819G1HFO Tail45292  16.271  16.370  16.865  0.0117  0.2742 -0.2986
 3819G1HFO Tail45293  15.505  16.044  16.664  0.1776  0.1214  0.4064
 3819G1HFO Tail45294  15.481  16.022  16.925 -0.0367  0.0316 -0.0278
 3819G1HFO Tail45295  15.453  16.241  17.060 -0.1392 -0.0727  0.0244
 3819G1HFO Tail45296  15.469  16.460  17.192 -0.0946  0.0342  0.0324
 3819G1HFO Tail45297  15.461  16.624  17.364 -0.2353 -0.0672  0.3124
 3820G1HFO Head45298  18.413  13.643  19.471 -0.0211 -0.3591  0.2076
 3820G1HFO Head45299  18.087  13.630  19.573 -0.1458 -0.0577 -0.0019
 3820G1HFO Head45300  17.769  13.235  19.544  0.2147 -0.0487 -0.0908
 3820G1HFO Head45301  17.692  13.483  19.471 -0.4340  0.2381 -0.2505
 3820G1HFO link45302  17.879  13.669  19.410  0.0371  0.6752 -0.1092
 3820G1HFO link45303  17.894  13.805  19.161  0.0848  0.0167  0.1476
 3820G1HFO Tail45304  17.922  14.131  19.164  0.4319  0.0439 -0.4381
 3820G1HFO Tail45305  18.277  14.124  19.244 -0.2018 -0.0693 -0.3837
 3820G1HFO Tail45306  18.457  14.380  19.215  0.1700 -0.1125 -0.5746
 3820G1HFO Tail45307  18.402  14.807  19.206 -0.1307 -0.3497 -0.2754
 3820G1HFO Tail45308  17.942  14.216  18.814 -0.0065  0.2793 -0.1715
 3820G1HFO Tail45309  17.837  14.423  18.706  0.0706 -0.3872 -0.0937
 3820G1HFO Tail45310  17.655  14.379  18.532  0.1650  0.0586  0.2244
 3820G1HFO Tail45311  17.455  14.316  18.391  0.0460 -0.0153  0.1396
 3820G1HFO Tail45312  17.312  14.256  18.213  0.0309  0.1898 -0.2407
 3821G1HFO Head45313  20.512  19.859  17.677  0.0479  0.0942 -0.0646
 3821G1HFO Head45314  20.276  19.696  17.553 -0.2836 -0.2204 -0.0508
 3821G1HFO Head45315  20.638  19.471  17.892  0.1989  0.1071 -0.0875
 3821G1HFO Head45316  20.330  19.355  17.792 -0.0170 -0.4632  0.2444
 3821G1HFO link45317  20.149  19.511  17.673  0.3540 -0.4160  0.0624
 3821G1HFO link45318  19.865  19.447  17.670 -0.1000 -0.1901  0.1729
 3821G1HFO Tail45319  19.750  19.182  17.850 -0.3603 -0.1204 -0.0156
 3821G1HFO Tail45320  19.532  19.024  17.614 -0.0862 -0.3627 -0.1126
 3821G1HFO Tail45321  19.346  18.772  17.660  0.3474  0.0504  0.0697
 3821G1HFO Tail45322  19.098  18.520  17.402  0.3224  0.0110  0.4589
 3821G1HFO Tail45323  20.006  18.967  17.850  0.2108 -0.4189 -0.0816
 3821G1HFO Tail45324  20.038  18.740  17.740  0.2334 -0.0491  0.1887
 3821G1HFO Tail45325  20.290  18.697  17.681  0.0888 -0.3042 -0.0314
 3821G1HFO Tail45326  20.539  18.627  17.643  0.0400  0.2740 -0.1103
 3821G1HFO Tail45327  20.740  18.514  17.668  0.0509  0.0729  0.1359
 3822G1HFO Head45328  14.567  18.645  17.326  0.1375  0.3799 -0.0461
 3822G1HFO Head45329  14.758  18.504  17.137  0.0582  0.2462  0.3998
 3822G1HFO Head45330  14.340  18.586  16.835 -0.0500  0.2448 -0.0334
 3822G1HFO Head45331  14.467  18.309  16.883 -0.2902 -0.5978  0.1494
 3822G1HFO link45332  14.700  18.287  17.004 -0.4057  0.0161 -0.2200
 3822G1HFO link45333  14.918  18.121  16.925  0.0779  0.0200 -0.0949
 3822G1HFO Tail45334  15.193  18.060  17.100  0.1350  0.1636 -0.0861
 3822G1HFO Tail45335  15.081  17.797  17.326  0.1242 -0.1173 -0.0054
 3822G1HFO Tail45336  14.936  17.828  17.593  0.2597 -0.0436 -0.1692
 3822G1HFO Tail45337  14.644  17.576  17.799 -0.3772 -0.0470 -0.1656
 3822G1HFO Tail45338  15.373  17.858  16.880  0.1244 -0.2567 -0.3338
 3822G1HFO Tail45339  15.498  17.974  16.678 -0.0279 -0.2494 -0.2324
 3822G1HFO Tail45340  15.767  17.960  16.660 -0.1271  0.1072  0.1552
 3822G1HFO Tail45341  16.016  17.994  16.646 -0.3748  0.0197  0.0233
 3822G1HFO Tail45342  16.256  17.995  16.648  0.1117  0.3208 -0.2732
 3823G1HFO Head45343  15.158  13.697  20.546 -0.0905 -0.2164 -0.0443
 3823G1HFO Head45344  15.123  13.856  20.269 -0.4104  0.2332  0.1355
 3823G1HFO Head45345  14.677  13.783  20.632  0.0337 -0.2656  0.1168
 3823G1HFO Head45346  14.757  14.003  20.400  0.0897  0.4952 -0.1002
 3823G1HFO link45347  14.867  13.919  20.191 -0.0976  0.0398  0.2528
 3823G1HFO link45348  14.758  13.896  19.934 -0.0789 -0.1205  0.3545
 3823G1HFO Tail45349  14.508  14.083  19.837 -0.0670 -0.1362  0.2865
 3823G1HFO Tail45350  14.633  14.404  19.878  0.2128  0.4294 -0.1585
 3823G1HFO Tail45351  14.773  14.654  19.709 -0.0122 -0.0447  0.1927
 3823G1HFO Tail45352  14.866  15.086  19.771  0.1945  0.3209 -0.0468
 3823G1HFO Tail45353  14.539  14.034  19.476 -0.0396  0.4019 -0.2832
 3823G1HFO Tail45354  14.756  14.052  19.327 -0.0030 -0.2959 -0.1595
 3823G1HFO Tail45355  14.938  14.241  19.397  0.1367  0.1857  0.2411
 3823G1HFO Tail45356  15.071  14.445  19.474 -0.1150  0.1009  0.1731
 3823G1HFO Tail45357  15.219  14.622  19.485  0.2800  0.2234 -0.0028
 3824G1HFO Head45358  18.136  21.185  20.895  0.1578 -0.0144  0.2074
 3824G1HFO Head45359  18.006  21.168  20.597 -0.0270 -0.1918 -0.0274
 3824G1HFO Head45360  17.652  21.345  20.955  0.2954 -0.0343  0.1489
 3824G1HFO Head45361  17.632  21.303  20.661 -0.5249  0.0073  0.3210
 3824G1HFO link45362  17.845  21.359  20.513  0.1124  0.3248 -0.7107
 3824G1HFO link45363  17.861  21.467  20.253 -0.1800 -0.0676  0.3252
 3824G1HFO Tail45364  17.630  21.583  20.077  0.2996  0.2527 -0.2376
 3824G1HFO Tail45365  17.678  21.427  19.768 -0.1874  0.1711  0.2077
 3824G1HFO Tail45366  17.496  21.249  19.563 -0.1475  0.2896  0.0256
 3824G1HFO Tail45367  17.467  20.818  19.514 -0.1520 -0.2960 -0.0519
 3824G1HFO Tail45368  17.410  21.374  20.243 -0.4970 -0.2038  0.2418
 3824G1HFO Tail45369  17.166  21.297  20.147 -0.1762  0.0703  0.0966
 3824G1HFO Tail45370  17.121  21.056  20.066 -0.4274  0.0313 -0.0951
 3824G1HFO Tail45371  17.079  20.837  19.946 -0.1742 -0.2522  0.2455
 3824G1HFO Tail45372  17.105  20.651  19.808 -0.0398  0.0330  0.0243
 3825G1HFO Head45373  16.786  19.111  22.153 -0.2424  0.0751 -0.1919
 3825G1HFO Head45374  16.594  18.893  22.048  0.1599  0.1186 -0.1760
 3825G1HFO Head45375  16.391  18.343  22.248 -0.0637  0.2155 -0.0676
 3825G1HFO Head45376  16.474  18.521  22.012 -0.2396 -0.0027  0.1064
 3825G1HFO link45377  16.690  18.656  21.999 -0.3426  0.0149  0.1011
 3825G1HFO link45378  16.955  18.589  22.049 -0.1003  0.2367  0.2018
 3825G1HFO Tail45379  17.187  18.679  21.835 -0.2480 -0.0304  0.1973
 3825G1HFO Tail45380  17.109  18.510  21.549  0.0035  0.0416 -0.3218
 3825G1HFO Tail45381  17.330  18.367  21.375  0.1104  0.3215 -0.0831
 3825G1HFO Tail45382  17.340  18.119  21.021 -0.5423 -0.0321 -0.1193
 3825G1HFO Tail45383  17.074  18.991  21.745 -0.0341  0.2073  0.0791
 3825G1HFO Tail45384  16.893  18.997  21.549 -0.3513 -0.2725  0.3190
 3825G1HFO Tail45385  16.690  18.845  21.564 -0.1894  0.0168 -0.1626
 3825G1HFO Tail45386  16.463  18.739  21.568 -0.2116  0.1601 -0.1362
 3825G1HFO Tail45387  16.291  18.577  21.592 -0.2332  0.2824  0.0806
 3826G1HFO Head45388  18.783  13.977  18.528  0.4399 -0.3068  0.2940
 3826G1HFO Head45389  19.040  14.005  18.353 -0.2568  0.3452  0.0260
 3826G1HFO Head45390  19.334  14.033  17.884 -0.1000 -0.1155  0.3955
 3826G1HFO Head45391  19.317  14.179  18.123  0.0764 -0.5493  0.0561
 3826G1HFO link45392  19.095  14.217  18.232 -0.5557 -0.3563  0.1493
 3826G1HFO link45393  18.946  14.466  18.212  0.2300  0.1902  0.3563
 3826G1HFO Tail45394  18.779  14.571  18.457  0.1291 -0.0202  0.0574
 3826G1HFO Tail45395  18.689  14.900  18.373 -0.1912 -0.2295  0.1494
 3826G1HFO Tail45396  18.789  15.186  18.472 -0.0034 -0.1522  0.3975
 3826G1HFO Tail45397  18.903  15.562  18.297 -0.2224 -0.2157 -0.0069
 3826G1HFO Tail45398  18.474  14.401  18.415 -0.1100 -0.1514 -0.0645
 3826G1HFO Tail45399  18.415  14.275  18.187  0.2721 -0.1803 -0.2048
 3826G1HFO Tail45400  18.587  14.098  18.107  0.1967 -0.0940  0.1200
 3826G1HFO Tail45401  18.734  13.905  18.036  0.0910 -0.1160  0.1611
 3826G1HFO Tail45402  18.910  13.781  17.945 -0.1545  0.0342  0.0422
 3827G1HFO Head45403  18.312  21.828  18.569  0.1040  0.1100  0.1733
 3827G1HFO Head45404  18.138  21.583  18.503  0.4530 -0.2276  0.2555
 3827G1HFO Head45405  18.072  21.146  18.111 -0.3800  0.0209 -0.1484
 3827G1HFO Head45406  18.295  21.267  18.262 -0.2612  0.0961  0.5619
 3827G1HFO link45407  18.254  21.337  18.504 -0.0245 -0.2297 -0.0278
 3827G1HFO link45408  18.320  21.177  18.723 -0.2162 -0.1478  0.1377
 3827G1HFO Tail45409  18.613  21.133  18.855  0.1763  0.0127  0.2159
 3827G1HFO Tail45410  18.509  21.173  19.190 -0.2666 -0.2927  0.3134
 3827G1HFO Tail45411  18.333  20.977  19.399  0.0440 -0.0530 -0.1729
 3827G1HFO Tail45412  17.966  20.748  19.383 -0.0354 -0.0093 -0.1519
 3827G1HFO Tail45413  18.601  20.788  18.808  0.2481 -0.0189 -0.2497
 3827G1HFO Tail45414  18.694  20.618  19.001  0.2416 -0.2028 -0.0822
 3827G1HFO Tail45415  18.897  20.680  19.151  0.0851 -0.0668 -0.0481
 3827G1HFO Tail45416  19.081  20.784  19.292  0.0383 -0.1979  0.2901
 3827G1HFO Tail45417  19.265  20.819  19.422  0.0677  0.2560 -0.0804
 3828G1HFO Head45418  20.734  18.145  18.176 -0.2126 -0.3151 -0.1283
 3828G1HFO Head45419  20.729  17.881  18.012 -0.0597  0.0965 -0.3662
 3828G1HFO Head45420  21.064  17.640  17.576  0.1211  0.3653 -0.0234
 3828G1HFO Head45421  20.743  17.663  17.635  0.2472 -0.4761 -0.0436
 3828G1HFO link45422  20.656  17.878  17.758 -0.2642  0.3084 -0.2470
 3828G1HFO link45423  20.440  18.040  17.677 -0.1688  0.0963  0.5596
 3828G1HFO Tail45424  20.251  18.178  17.903  0.4209  0.4195 -0.0162
 3828G1HFO Tail45425  19.939  18.171  17.769 -0.2279  0.0299  0.1850
 3828G1HFO Tail45426  19.674  18.362  17.787 -0.7127  0.2428  0.1432
 3828G1HFO Tail45427  19.248  18.336  17.864  0.4088 -0.1076  0.3024
 3828G1HFO Tail45428  20.229  17.903  18.108 -0.2388 -0.1118 -0.0533
 3828G1HFO Tail45429  20.050  17.704  18.076  0.1425 -0.1000  0.0956
 3828G1HFO Tail45430  19.811  17.791  18.017  0.0432  0.1824  0.0185
 3828G1HFO Tail45431  19.577  17.840  17.921 -0.1551  0.2313 -0.0756
 3828G1HFO Tail45432  19.404  17.880  17.783  0.2119  0.3271  0.4043
 3829G1HFO Head45433  21.276  17.861  18.383 -0.1598  0.0026 -0.4140
 3829G1HFO Head45434  21.258  17.540  18.398  0.1757 -0.0234 -0.2841
 3829G1HFO Head45435  21.327  17.187  18.700 -0.1821 -0.0387  0.0636
 3829G1HFO Head45436  21.080  17.183  18.451 -0.1562 -0.0275 -0.3484
 3829G1HFO link45437  21.031  17.416  18.313  0.4473  0.1030 -0.1182
 3829G1HFO link45438  20.926  17.421  18.045  0.5193  0.0172  0.2576
 3829G1HFO Tail45439  20.884  17.141  17.871  0.1914  0.0261 -0.3304
 3829G1HFO Tail45440  20.610  17.242  17.654 -0.5045  0.1015 -0.0610
 3829G1HFO Tail45441  20.356  17.066  17.573  0.5136  0.0890 -0.0950
 3829G1HFO Tail45442  19.928  17.099  17.521  0.1091 -0.1581 -0.0321
 3829G1HFO Tail45443  21.175  17.148  17.688  0.0734  0.0765  0.1287
 3829G1HFO Tail45444  21.160  17.098  17.427  0.0401 -0.1589 -0.0036
 3829G1HFO Tail45445  20.996  17.252  17.287  0.2871 -0.1189  0.1960
 3829G1HFO Tail45446  20.814  17.405  17.184 -0.2341  0.3594  0.0392
 3829G1HFO Tail45447  20.695  17.591  17.101 -0.3989  0.0039  0.2534
 3830G1HFO Head45448  16.099  18.960  20.751 -0.0749 -0.0731  0.1179
 3830G1HFO Head45449  16.129  18.783  20.954 -0.2218  0.2494  0.3503
 3830G1HFO Head45450  15.879  18.410  21.486  0.0036  0.4438 -0.1687
 3830G1HFO Head45451  16.034  18.499  21.218 -0.3344 -0.1171  0.4010
 3830G1HFO link45452  15.925  18.627  21.031 -0.5776  0.4293 -0.1663
 3830G1HFO link45453  15.738  18.502  20.857  0.3099 -0.5272  0.3083
 3830G1HFO Tail45454  15.427  18.419  20.947 -0.1386  0.1862 -0.2153
 3830G1HFO Tail45455  15.317  18.204  20.683 -0.0621  0.1678  0.1564
 3830G1HFO Tail45456  15.041  18.158  20.524 -0.0572 -0.7249  0.3096
 3830G1HFO Tail45457  14.647  18.312  20.525  0.3623 -0.4647  0.0981
 3830G1HFO Tail45458  15.523  18.173  21.179 -0.0990 -0.1836 -0.0333
 3830G1HFO Tail45459  15.732  18.028  21.104 -0.3010 -0.2175 -0.1188
 3830G1HFO Tail45460  15.742  17.950  20.862 -0.0423  0.0412  0.2364
 3830G1HFO Tail45461  15.725  17.902  20.613  0.0034 -0.1808  0.0651
 3830G1HFO Tail45462  15.733  17.901  20.381 -0.1875  0.4010  0.1371
 3831G1HFO Head45463  18.567  13.663  20.587 -0.1117  0.2310  0.0640
 3831G1HFO Head45464  18.428  13.645  20.321 -0.4535  0.0089  0.0569
 3831G1HFO Head45465  18.721  14.224  20.094  0.1193 -0.0565 -0.1447
 3831G1HFO Head45466  18.626  14.014  20.266  0.0840  0.0662  0.0517
 3831G1HFO link45467  18.449  13.858  20.171 -0.2669  0.1569 -0.1830
 3831G1HFO link45468  18.293  13.884  19.940  0.1185  0.2743  0.2098
 3831G1HFO Tail45469  18.144  14.155  19.854  0.3769  0.0228  0.1332
 3831G1HFO Tail45470  18.382  14.327  19.719  0.1756  0.1178 -0.1071
 3831G1HFO Tail45471  18.497  14.619  19.745 -0.1300 -0.0560 -0.1276
 3831G1HFO Tail45472  18.818  14.813  19.966  0.0560 -0.2067 -0.0895
 3831G1HFO Tail45473  17.962  14.036  19.580 -0.0574 -0.1720 -0.0278
 3831G1HFO Tail45474  17.728  14.135  19.514  0.1767  0.0042 -0.1752
 3831G1HFO Tail45475  17.532  13.962  19.480 -0.2179 -0.1630  0.3603
 3831G1HFO Tail45476  17.317  13.832  19.457  0.0206  0.2760 -0.0033
 3831G1HFO Tail45477  17.099  13.771  19.409  0.1722 -0.4425  0.3230
 3832G1HFO Head45478  19.332  18.128  21.096  0.4208  0.2764 -0.1467
 3832G1HFO Head45479  19.025  18.142  21.044 -0.1524 -0.3327  0.2502
 3832G1HFO Head45480  19.037  18.625  21.449 -0.1695  0.2454  0.2905
 3832G1HFO Head45481  19.084  18.536  21.112  0.1417  0.5126  0.2506
 3832G1HFO link45482  18.921  18.376  20.996 -0.1432  0.7799  0.0886
 3832G1HFO link45483  18.635  18.407  21.017 -0.2490 -0.2500  0.1018
 3832G1HFO Tail45484  18.445  18.265  21.244 -0.3009  0.0489  0.0914
 3832G1HFO Tail45485  18.492  17.928  21.133  0.1430 -0.2462  0.3559
 3832G1HFO Tail45486  18.635  17.797  20.867  0.1979  0.0922 -0.0336
 3832G1HFO Tail45487  18.735  17.916  20.460  0.3527 -0.1333  0.3290
 3832G1HFO Tail45488  18.692  18.272  21.494  0.1764 -0.0105 -0.2059
 3832G1HFO Tail45489  18.627  18.205  21.746 -0.1925 -0.0115 -0.3643
 3832G1HFO Tail45490  18.371  18.180  21.787  0.2997 -0.1302  0.1017
 3832G1HFO Tail45491  18.128  18.152  21.840 -0.0510  0.2434  0.1505
 3832G1HFO Tail45492  17.921  18.048  21.889 -0.4739 -0.0941 -0.5329
 3833G1HFO Head45493  20.875  17.075  16.175 -0.0212 -0.0623  0.0146
 3833G1HFO Head45494  20.605  17.119  16.267  0.2956  0.2078 -0.1091
 3833G1HFO Head45495  20.499  17.011  15.818 -0.1393 -0.3206 -0.0735
 3833G1HFO Head45496  20.430  16.841  16.027  0.1642  0.1620  0.0600
 3833G1HFO link45497  20.404  16.935  16.261 -0.1753 -0.4720 -0.2688
 3833G1HFO link45498  20.245  16.851  16.485  0.2889 -0.1388  0.0893
 3833G1HFO Tail45499  20.291  16.983  16.788 -0.2151 -0.0228  0.2844
 3833G1HFO Tail45500  19.972  17.111  16.827  0.1516 -0.1655 -0.0162
 3833G1HFO Tail45501  19.779  17.098  17.077  0.2991 -0.0160 -0.2111
 3833G1HFO Tail45502  19.571  16.799  17.316 -0.2352  0.0261  0.1541
 3833G1HFO Tail45503  20.294  16.695  16.971 -0.0998 -0.3020 -0.0219
 3833G1HFO Tail45504  20.437  16.472  16.918  0.0080 -0.3025  0.1759
 3833G1HFO Tail45505  20.597  16.405  17.110  0.0555  0.0279  0.0050
 3833G1HFO Tail45506  20.773  16.303  17.272  0.0082 -0.0883  0.1235
 3833G1HFO Tail45507  20.918  16.269  17.444  0.0499 -0.4051 -0.2219
 3834G1HFO Head45508  17.766  19.132  18.839  0.2459 -0.1266  0.1119
 3834G1HFO Head45509  17.844  19.201  19.143 -0.0491 -0.5012 -0.3825
 3834G1HFO Head45510  18.217  19.443  18.834  0.0411 -0.0350  0.2040
 3834G1HFO Head45511  18.232  19.384  19.133  0.0299 -0.0543  0.5167
 3834G1HFO link45512  18.112  19.172  19.251  0.2928 -0.0670  0.3355
 3834G1HFO link45513  18.213  18.914  19.332  0.3830 -0.2037  0.2152
 3834G1HFO Tail45514  18.476  18.805  19.179 -0.2454  0.5138  0.1382
 3834G1HFO Tail45515  18.564  19.070  18.977  0.1662  0.2978 -0.1177
 3834G1HFO Tail45516  18.708  19.356  18.967  0.0467  0.4600  0.4321
 3834G1HFO Tail45517  19.034  19.549  19.185 -0.0274 -0.0798 -0.0699
 3834G1HFO Tail45518  18.681  18.840  19.463 -0.0089  0.1800  0.0497
 3834G1HFO Tail45519  18.544  18.888  19.686 -0.1399  0.0616  0.0992
 3834G1HFO Tail45520  18.423  19.129  19.697 -0.2249 -0.0252  0.0305
 3834G1HFO Tail45521  18.295  19.345  19.660 -0.1592 -0.1626  0.1057
 3834G1HFO Tail45522  18.228  19.560  19.599 -0.0168  0.0046  0.0431
 3835G1HFO Head45523  17.659  17.296  15.681  0.4526  0.0489  0.2447
 3835G1HFO Head45524  17.763  17.346  15.932 -0.0725  0.0468 -0.3438
 3835G1HFO Head45525  17.917  17.721  15.639 -0.2849  0.1385 -0.1529
 3835G1HFO Head45526  18.118  17.501  15.764  0.0252  0.4466  0.2272
 3835G1HFO link45527  18.034  17.335  15.957 -0.1399 -0.1608 -0.1829
 3835G1HFO link45528  18.167  17.096  16.043  0.2336  0.0181  0.3589
 3835G1HFO Tail45529  17.977  16.871  16.193 -0.2432  0.0449  0.0858
 3835G1HFO Tail45530  17.814  17.081  16.405 -0.0442  0.2261 -0.0040
 3835G1HFO Tail45531  17.896  17.287  16.623  0.0399  0.1642 -0.0495
 3835G1HFO Tail45532  17.848  17.722  16.681  0.0778 -0.0080  0.0045
 3835G1HFO Tail45533  17.713  16.840  15.972 -0.1606 -0.1718  0.2362
 3835G1HFO Tail45534  17.496  16.994  16.000  0.0071 -0.3334  0.3222
 3835G1HFO Tail45535  17.317  16.921  16.168 -0.0401 -0.0680 -0.1172
 3835G1HFO Tail45536  17.144  16.814  16.334 -0.1313  0.0183  0.0771
 3835G1HFO Tail45537  16.958  16.747  16.459 -0.1741 -0.2195 -0.3351
 3836G1HFO Head45538  15.270  17.027  22.039 -0.1920 -0.1504  0.0184
 3836G1HFO Head45539  15.084  16.852  21.910 -0.0494 -0.3511 -0.1608
 3836G1HFO Head45540  14.780  17.361  21.806 -0.0736 -0.1889 -0.5780
 3836G1HFO Head45541  14.984  17.163  21.617  0.4750  0.4578 -0.2777
 3836G1HFO link45542  15.021  16.891  21.658 -0.1603 -0.0427 -0.2540
 3836G1HFO link45543  15.082  16.706  21.451  0.0847  0.0718 -0.1674
 3836G1HFO Tail45544  14.907  16.443  21.377 -0.2302 -0.4013  0.0148
 3836G1HFO Tail45545  14.749  16.548  21.089 -0.0791  0.2910  0.1922
 3836G1HFO Tail45546  14.486  16.467  20.939 -0.3360 -0.2040 -0.0545
 3836G1HFO Tail45547  14.175  16.165  20.923 -0.0367  0.2542  0.2095
 3836G1HFO Tail45548  15.157  16.217  21.273  0.1775 -0.0453  0.0356
 3836G1HFO Tail45549  15.405  16.225  21.343 -0.4214 -0.1666  0.0710
 3836G1HFO Tail45550  15.581  16.162  21.161  0.1545 -0.0796  0.0281
 3836G1HFO Tail45551  15.748  16.057  21.003 -0.0389  0.0033  0.1957
 3836G1HFO Tail45552  15.844  15.962  20.810  0.2222 -0.3647  0.1495
 3837G1HFO Head45553  14.599  15.421  21.069  0.0108  0.2386 -0.0212
 3837G1HFO Head45554  14.485  15.165  20.887  0.1698 -0.5274  0.3244
 3837G1HFO Head45555  14.309  14.780  21.144  0.1150  0.0808  0.2096
 3837G1HFO Head45556  14.504  14.757  20.907 -0.0364  0.2539 -0.4227
 3837G1HFO link45557  14.638  14.972  20.826 -0.1140  0.5018 -0.3213
 3837G1HFO link45558  14.817  15.001  20.613 -0.0820 -0.2352 -0.0428
 3837G1HFO Tail45559  15.121  15.054  20.687  0.0076 -0.2115 -0.0491
 3837G1HFO Tail45560  15.240  15.215  20.392 -0.1286  0.0017 -0.2981
 3837G1HFO Tail45561  15.476  15.375  20.288  0.2935 -0.0607 -0.1442
 3837G1HFO Tail45562  15.700  15.733  20.371  0.3519  0.2032 -0.2306
 3837G1HFO Tail45563  15.071  15.309  20.907 -0.0052  0.1620 -0.1887
 3837G1HFO Tail45564  14.954  15.537  20.815  0.2859  0.1343  0.0141
 3837G1HFO Tail45565  15.043  15.656  20.611 -0.0793  0.1422  0.1163
 3837G1HFO Tail45566  15.144  15.736  20.393  0.0988  0.1747  0.0361
 3837G1HFO Tail45567  15.264  15.760  20.191  0.0541  0.1653  0.1020
 3838G1HFO Head45568  17.786  16.881  20.016  0.2206 -0.2337 -0.0827
 3838G1HFO Head45569  17.779  17.110  19.895  0.1336 -0.3068  0.1781
 3838G1HFO Head45570  17.569  17.718  20.166  0.2298  0.3091 -0.0495
 3838G1HFO Head45571  17.610  17.441  20.052  0.3068  0.0205 -0.4538
 3838G1HFO link45572  17.832  17.341  20.044  0.2097  0.2768 -0.0365
 3838G1HFO link45573  18.087  17.461  20.116  0.2094  0.3445  0.0073
 3838G1HFO Tail45574  18.326  17.306  20.272  0.4304  0.1182 -0.4294
 3838G1HFO Tail45575  18.417  17.569  20.476  0.0719  0.0056  0.0622
 3838G1HFO Tail45576  18.302  17.841  20.592 -0.1151 -0.5860  0.2989
 3838G1HFO Tail45577  18.414  18.258  20.648 -0.2104 -0.2198  0.1193
 3838G1HFO Tail45578  18.133  17.121  20.515  0.1776  0.0905  0.2861
 3838G1HFO Tail45579  18.165  17.154  20.776 -0.3919  0.2417  0.1598
 3838G1HFO Tail45580  18.361  17.031  20.892  0.0992 -0.0431 -0.0361
 3838G1HFO Tail45581  18.579  16.925  20.980 -0.0304  0.0510 -0.0218
 3838G1HFO Tail45582  18.731  16.815  21.103 -0.2578  0.2746  0.2939
 3839G1HFO Head45583  17.889  12.708  17.657  0.0037 -0.0191 -0.1470
 3839G1HFO Head45584  17.867  12.948  17.480  0.1165 -0.0506 -0.3088
 3839G1HFO Head45585  18.086  13.112  17.951  0.2029  0.1692  0.1290
 3839G1HFO Head45586  17.817  13.195  17.817 -0.3119  0.1032  0.2104
 3839G1HFO link45587  17.767  13.174  17.554  0.1440  0.5911 -0.0193
 3839G1HFO link45588  17.537  13.273  17.420  0.1733 -0.1646 -0.0209
 3839G1HFO Tail45589  17.486  13.350  17.096  0.2407 -0.0354 -0.1600
 3839G1HFO Tail45590  17.411  13.698  17.113 -0.4420 -0.2368  0.1801
 3839G1HFO Tail45591  17.197  13.917  17.194  0.3440 -0.6428 -0.2678
 3839G1HFO Tail45592  17.176  14.337  17.295 -0.1709 -0.3701  0.0157
 3839G1HFO Tail45593  17.807  13.351  16.978 -0.5840 -0.0268  0.1919
 3839G1HFO Tail45594  17.993  13.195  17.062  0.3979 -0.0835 -0.4182
 3839G1HFO Tail45595  18.117  13.263  17.293  0.2549  0.0948  0.1530
 3839G1HFO Tail45596  18.223  13.298  17.520 -0.0230  0.2068 -0.0059
 3839G1HFO Tail45597  18.365  13.289  17.705 -0.1613  0.0595  0.3858
 3840G1HFO Head45598  13.388  16.208  19.779  0.1591  0.1171  0.0185
 3840G1HFO Head45599  13.607  16.428  19.855 -0.3939  0.4150  0.0073
 3840G1HFO Head45600  13.516  16.411  19.266  0.0291  0.0188  0.0069
 3840G1HFO Head45601  13.538  16.604  19.510  0.0580  0.0466  0.1274
 3840G1HFO link45602  13.714  16.574  19.678 -0.1643 -0.1102  0.4453
 3840G1HFO link45603  13.985  16.570  19.601  0.2721  0.2294 -0.1283
 3840G1HFO Tail45604  14.169  16.296  19.653 -0.2340 -0.2503  0.0435
 3840G1HFO Tail45605  14.404  16.420  19.915  0.0328  0.0077 -0.2552
 3840G1HFO Tail45606  14.608  16.273  20.093  0.1224 -0.2330 -0.1149
 3840G1HFO Tail45607  14.689  15.886  20.234  0.0664  0.0228  0.3640
 3840G1HFO Tail45608  13.958  16.127  19.867 -0.1472 -0.1089 -0.0060
 3840G1HFO Tail45609  13.914  16.250  20.093 -0.0251  0.1028  0.1356
 3840G1HFO Tail45610  13.988  16.494  20.099  0.0139 -0.3438  0.0198
 3840G1HFO Tail45611  14.089  16.730  20.085  0.0464 -0.0806 -0.2275
 3840G1HFO Tail45612  14.161  16.944  20.004 -0.5623  0.1060 -0.1142
 3841G1HFO Head45613  20.886  16.320  18.201 -0.1185 -0.0041 -0.1236
 3841G1HFO Head45614  20.582  16.177  18.197 -0.0312  0.0593 -0.0704
 3841G1HFO Head45615  20.554  16.508  18.538  0.1220  0.1173 -0.0742
 3841G1HFO Head45616  20.337  16.488  18.312  0.2237  0.2301  0.0226
 3841G1HFO link45617  20.357  16.304  18.121 -0.3646 -0.0198  0.1500
 3841G1HFO link45618  20.161  16.202  17.956 -0.0498 -0.0060 -0.4134
 3841G1HFO Tail45619  19.907  16.384  17.872  0.0946  0.6401  0.1533
 3841G1HFO Tail45620  19.650  16.229  18.041 -0.1023 -0.1147 -0.3558
 3841G1HFO Tail45621  19.535  15.920  18.050 -0.1659 -0.1645 -0.4093
 3841G1HFO Tail45622  19.481  15.583  17.796  0.2254 -0.0549  0.1330
 3841G1HFO Tail45623  19.979  16.690  18.036 -0.0303 -0.2157  0.0961
 3841G1HFO Tail45624  20.144  16.871  17.925  0.2708  0.3261  0.1881
 3841G1HFO Tail45625  20.375  16.910  18.048  0.3339 -0.0768 -0.0534
 3841G1HFO Tail45626  20.586  16.910  18.186  0.1945 -0.0551  0.1053
 3841G1HFO Tail45627  20.807  16.891  18.253  0.0251 -0.2002  0.4137
 3842G1HFO Head45628  19.586  16.320  21.646 -0.1498 -0.0328  0.1230
 3842G1HFO Head45629  19.332  16.264  21.514 -0.0755  0.1091  0.3633
 3842G1HFO Head45630  19.015  16.733  21.909 -0.3399 -0.0130  0.1076
 3842G1HFO Head45631  19.148  16.463  21.825 -0.3487 -0.2229  0.3154
 3842G1HFO link45632  19.087  16.379  21.584 -0.3140  0.5058 -0.1503
 3842G1HFO link45633  18.904  16.486  21.394  0.1666  0.1284 -0.3117
 3842G1HFO Tail45634  18.669  16.291  21.259 -0.1213  0.1471  0.1932
 3842G1HFO Tail45635  18.420  16.519  21.314 -0.2053 -0.2369  0.4619
 3842G1HFO Tail45636  18.199  16.667  21.151  0.1226  0.2949 -0.1233
 3842G1HFO Tail45637  17.770  16.703  21.174 -0.1386  0.1077 -0.2104
 3842G1HFO Tail45638  18.711  16.380  20.927 -0.2690  0.0395 -0.1768
 3842G1HFO Tail45639  18.791  16.210  20.735 -0.1891  0.1718 -0.0784
 3842G1HFO Tail45640  19.048  16.193  20.701 -0.1279  0.0817  0.0003
 3842G1HFO Tail45641  19.296  16.143  20.672  0.0476 -0.2395  0.2139
 3842G1HFO Tail45642  19.510  16.036  20.671  0.2574 -0.0946 -0.0540
 3843G1HFO Head45643  16.602  20.711  19.662 -0.2230  0.1379 -0.1029
 3843G1HFO Head45644  16.771  20.804  19.408 -0.1859  0.0943 -0.1356
 3843G1HFO Head45645  16.921  20.341  19.532  0.1034 -0.0424  0.1347
 3843G1HFO Head45646  16.925  20.444  19.246 -0.1597  0.0436  0.0691
 3843G1HFO link45647  16.782  20.656  19.184 -0.2296  0.3492 -0.0531
 3843G1HFO link45648  16.613  20.662  18.971 -0.0018 -0.2889  0.1260
 3843G1HFO Tail45649  16.481  20.412  18.779  0.4208 -0.3486 -0.4124
 3843G1HFO Tail45650  16.148  20.495  18.855 -0.1750  0.1425 -0.3061
 3843G1HFO Tail45651  15.889  20.430  18.701 -0.5839  0.1676  0.1688
 3843G1HFO Tail45652  15.583  20.637  18.469  0.1652  0.2867  0.0919
 3843G1HFO Tail45653  16.513  20.565  18.475 -0.1896  0.0333 -0.0785
 3843G1HFO Tail45654  16.432  20.818  18.437 -0.0674  0.1583 -0.0273
 3843G1HFO Tail45655  16.549  20.993  18.281 -0.0559  0.1177 -0.0916
 3843G1HFO Tail45656  16.668  21.183  18.170 -0.1086 -0.1758  0.0662
 3843G1HFO Tail45657  16.779  21.307  18.003  0.3048  0.1123  0.0170
 3844G1HFO Head45658  15.914  13.869  21.068  0.0745 -0.0857 -0.0975
 3844G1HFO Head45659  15.956  14.120  20.904  0.2034  0.1776  0.0670
 3844G1HFO Head45660  16.102  14.429  21.224  0.3736 -0.0828 -0.1185
 3844G1HFO Head45661  16.292  14.286  21.044 -0.3878 -0.2981  0.0444
 3844G1HFO link45662  16.193  14.184  20.813  0.3202  0.0618 -0.0740
 3844G1HFO link45663  16.237  14.336  20.580 -0.0022  0.0750 -0.2467
 3844G1HFO Tail45664  16.337  14.224  20.286  0.3979  0.2234 -0.1897
 3844G1HFO Tail45665  16.099  14.398  20.098  0.0013  0.2232 -0.1303
 3844G1HFO Tail45666  16.054  14.496  19.803 -0.4776  0.0231  0.2201
 3844G1HFO Tail45667  15.781  14.731  19.568  0.3292 -0.1460 -0.2141
 3844G1HFO Tail45668  16.623  14.408  20.241  0.1589 -0.0759  0.0335
 3844G1HFO Tail45669  16.739  14.525  20.439 -0.0238  0.2025  0.0225
 3844G1HFO Tail45670  16.993  14.480  20.476  0.1362  0.1093  0.0754
 3844G1HFO Tail45671  17.245  14.475  20.493 -0.0177  0.1129  0.0387
 3844G1HFO Tail45672  17.468  14.427  20.465 -0.2018  0.1577 -0.2289
 3845G1HFO Head45673  18.674  14.272  21.233  0.1089 -0.2059  0.3980
 3845G1HFO Head45674  18.921  14.294  21.075  0.3257 -0.3143 -0.1339
 3845G1HFO Head45675  19.386  14.580  20.699 -0.6787 -0.5900  0.5171
 3845G1HFO Head45676  19.133  14.474  20.782  0.0053  0.1589 -0.1377
 3845G1HFO link45677  18.993  14.520  20.993  0.0957 -0.1626 -0.0249
 3845G1HFO link45678  18.815  14.740  21.025 -0.1126  0.0996 -0.0233
 3845G1HFO Tail45679  18.601  14.817  20.796 -0.0200 -0.4799 -0.3351
 3845G1HFO Tail45680  18.661  14.568  20.569  0.0595 -0.2468 -0.0159
 3845G1HFO Tail45681  18.863  14.540  20.318 -0.0224  0.2055 -0.2009
 3845G1HFO Tail45682  19.242  14.671  20.172 -0.2626  0.0350  0.0666
 3845G1HFO Tail45683  18.299  14.737  20.978 -0.1456  0.2055 -0.1269
 3845G1HFO Tail45684  18.052  14.781  20.873 -0.1711  0.2325 -0.2837
 3845G1HFO Tail45685  17.865  14.839  21.044  0.1024 -0.1998 -0.1055
 3845G1HFO Tail45686  17.720  14.910  21.235 -0.1361  0.2693 -0.0286
 3845G1HFO Tail45687  17.585  15.029  21.381  0.1095  0.4361 -0.2097
 3846G1HFO Head45688  17.582  21.190  17.768  0.0695 -0.1309  0.2830
 3846G1HFO Head45689  17.682  20.972  17.913  0.1242 -0.1586 -0.3130
 3846G1HFO Head45690  17.725  21.384  18.511  0.0044  0.0825 -0.0199
 3846G1HFO Head45691  17.643  21.265  18.222 -0.0854  0.0098  0.1557
 3846G1HFO link45692  17.669  20.997  18.178 -0.1799  0.5161 -0.5150
 3846G1HFO link45693  17.564  20.812  18.367 -0.0280  0.1348 -0.0724
 3846G1HFO Tail45694  17.251  20.882  18.451 -0.2871  0.0163  0.3720
 3846G1HFO Tail45695  17.329  21.146  18.659  0.0269 -0.0026  0.3567
 3846G1HFO Tail45696  17.535  21.176  18.871  0.2547  0.4104 -0.3400
 3846G1HFO Tail45697  17.593  21.465  19.194  0.3101  0.1943 -0.0129
 3846G1HFO Tail45698  17.132  21.073  18.167  0.0404 -0.2063  0.2945
 3846G1HFO Tail45699  17.190  21.333  18.137 -0.2848 -0.1971 -0.0996
 3846G1HFO Tail45700  17.232  21.500  18.344  0.0847 -0.2212  0.0717
 3846G1HFO Tail45701  17.315  21.649  18.531 -0.2762 -0.2159  0.1408
 3846G1HFO Tail45702  17.379  21.826  18.665 -0.0288  0.1481  0.0176
 3847G1HFO Head45703  18.126  13.317  19.161 -0.1323 -0.0845  0.1780
 3847G1HFO Head45704  17.799  13.321  19.014 -0.4045  0.2187  0.1932
 3847G1HFO Head45705  17.803  13.347  18.325  0.1628 -0.0410 -0.3396
 3847G1HFO Head45706  17.753  13.253  18.605  0.0684 -0.2527 -0.2070
 3847G1HFO link45707  17.742  13.433  18.788 -0.1410 -0.6168 -0.2874
 3847G1HFO link45708  17.795  13.717  18.744 -0.3626  0.0254  0.0507
 3847G1HFO Tail45709  17.569  13.935  18.660 -0.1108 -0.2255 -0.3658
 3847G1HFO Tail45710  17.307  13.719  18.546  0.6960 -0.1328 -0.0995
 3847G1HFO Tail45711  17.252  13.434  18.422 -0.2172 -0.0046  0.4166
 3847G1HFO Tail45712  17.453  13.060  18.365  0.2132  0.0953  0.1470
 3847G1HFO Tail45713  17.416  14.032  18.955  0.0119  0.2993  0.3246
 3847G1HFO Tail45714  17.171  14.117  18.954  0.1805  0.0153 -0.2273
 3847G1HFO Tail45715  17.067  14.195  18.740 -0.1578  0.1008  0.1722
 3847G1HFO Tail45716  16.964  14.306  18.542  0.1457  0.0183 -0.4093
 3847G1HFO Tail45717  16.902  14.385  18.330  0.0709  0.2367  0.0495
 3848G1HFO Head45718  17.015  17.044  22.894  0.0938  0.2244 -0.1715
 3848G1HFO Head45719  17.060  16.760  22.908 -0.0840  0.2880  0.3855
 3848G1HFO Head45720  17.435  16.391  22.789 -0.0722  0.1431  0.2725
 3848G1HFO Head45721  17.208  16.525  22.605  0.2305 -0.2922  0.1524
 3848G1HFO link45722  16.991  16.619  22.694  0.4048 -0.0714 -0.0714
 3848G1HFO link45723  16.724  16.607  22.615  0.3337  0.2148  0.2822
 3848G1HFO Tail45724  16.589  16.306  22.554  0.2030 -0.0680 -0.2970
 3848G1HFO Tail45725  16.406  16.382  22.282  0.1432  0.4320  0.1816
 3848G1HFO Tail45726  16.443  16.557  22.010  0.1772  0.4234 -0.0412
 3848G1HFO Tail45727  16.749  16.793  21.796  0.1030  0.2901 -0.0465
 3848G1HFO Tail45728  16.854  16.121  22.402  0.1550 -0.1259  0.2084
 3848G1HFO Tail45729  16.916  15.881  22.460  0.3957  0.4208  0.0224
 3848G1HFO Tail45730  17.105  15.771  22.334  0.1628 -0.1793  0.1252
 3848G1HFO Tail45731  17.296  15.699  22.178 -0.0943 -0.0393 -0.1340
 3848G1HFO Tail45732  17.420  15.589  22.002  0.1946  0.2186 -0.0135
 3849G1HFO Head45733  14.913  13.940  17.732  0.0711 -0.3914  0.0002
 3849G1HFO Head45734  15.195  13.943  17.849  0.2439 -0.0664  0.0948
 3849G1HFO Head45735  14.897  13.673  18.136  0.2096 -0.0570 -0.1947
 3849G1HFO Head45736  15.189  13.598  18.095  0.3040 -0.3022  0.1492
 3849G1HFO link45737  15.321  13.726  17.934 -0.4092 -0.7840  0.4574
 3849G1HFO link45738  15.600  13.680  17.902 -0.0506  0.1142 -0.2077
 3849G1HFO Tail45739  15.828  13.907  17.961  0.0370 -0.3763 -0.4468
 3849G1HFO Tail45740  15.969  13.920  17.645 -0.2096  0.1403 -0.2285
 3849G1HFO Tail45741  16.254  13.846  17.532  0.1317  0.2973  0.1963
 3849G1HFO Tail45742  16.439  13.716  17.174  0.4684 -0.0850 -0.0482
 3849G1HFO Tail45743  15.655  14.214  17.986  0.0110  0.2276  0.0346
 3849G1HFO Tail45744  15.413  14.243  18.100  0.3617 -0.0658 -0.0770
 3849G1HFO Tail45745  15.324  14.063  18.257 -0.1580  0.1051 -0.2040
 3849G1HFO Tail45746  15.205  13.925  18.436 -0.4854  0.2285  0.1458
 3849G1HFO Tail45747  15.118  13.752  18.562  0.2338 -0.3409 -0.1078
 3850G1HFO Head45748  20.052  14.306  19.256  0.0105 -0.0163  0.1368
 3850G1HFO Head45749  19.843  14.582  19.286  0.5230  0.4975  0.3526
 3850G1HFO Head45750  20.225  14.992  19.515  0.1445  0.0176  0.0163
 3850G1HFO Head45751  20.131  14.861  19.236 -0.3296  0.3387  0.0738
 3850G1HFO link45752  19.874  14.816  19.211 -0.5962  0.1005  0.2893
 3850G1HFO link45753  19.704  15.030  19.249 -0.0313 -0.0140  0.0610
 3850G1HFO Tail45754  19.686  15.215  19.519 -0.1762 -0.3195 -0.0757
 3850G1HFO Tail45755  19.408  15.393  19.425 -0.3421  0.1179  0.3176
 3850G1HFO Tail45756  19.102  15.310  19.319 -0.3877  0.2256  0.2906
 3850G1HFO Tail45757  18.879  15.404  18.966 -0.1011 -0.1864 -0.3807
 3850G1HFO Tail45758  19.533  14.978  19.725 -0.2635 -0.2323  0.3248
 3850G1HFO Tail45759  19.352  15.035  19.910  0.1518  0.2786 -0.0960
 3850G1HFO Tail45760  19.173  15.208  19.825  0.2915  0.2426  0.1747
 3850G1HFO Tail45761  19.037  15.401  19.743 -0.0515 -0.0898  0.2409
 3850G1HFO Tail45762  18.942  15.611  19.732 -0.1630 -0.2452  0.0896
 3851G1HFO Head45763  21.437  16.516  19.137  0.0907 -0.1616  0.0476
 3851G1HFO Head45764  21.227  16.492  18.910 -0.4013  0.1174 -0.0433
 3851G1HFO Head45765  21.149  15.818  19.073 -0.0448  0.4519  0.0103
 3851G1HFO Head45766  21.170  16.100  19.100  0.3037 -0.2497 -0.0381
 3851G1HFO link45767  21.089  16.264  18.911 -0.0696  0.7107  0.2265
 3851G1HFO link45768  20.878  16.192  18.744 -0.2661 -0.1397 -0.1132
 3851G1HFO Tail45769  20.614  16.026  18.866  0.0933 -0.1582 -0.0363
 3851G1HFO Tail45770  20.406  16.052  18.596 -0.0473  0.2941 -0.1142
 3851G1HFO Tail45771  20.102  16.080  18.491 -0.0461  0.1770  0.0532
 3851G1HFO Tail45772  19.794  16.386  18.488  0.0667 -0.1027 -0.0081
 3851G1HFO Tail45773  20.725  15.709  18.804 -0.4397 -0.0698 -0.0227
 3851G1HFO Tail45774  20.569  15.508  18.766  0.4883  0.1353  0.1905
 3851G1HFO Tail45775  20.318  15.556  18.698 -0.0301 -0.0017 -0.2155
 3851G1HFO Tail45776  20.070  15.572  18.671 -0.0619  0.0226  0.0942
 3851G1HFO Tail45777  19.840  15.539  18.694  0.3299  0.1971 -0.0450
 3852G1HFO Head45778  21.180  16.170  17.819  0.1557 -0.2612 -0.5025
 3852G1HFO Head45779  21.354  16.371  17.837  0.3115  0.2127  0.1518
 3852G1HFO Head45780  21.862  16.382  17.720 -0.0199 -0.3680 -0.5388
 3852G1HFO Head45781  21.613  16.479  17.530 -0.0698  0.3616  0.1694
 3852G1HFO link45782  21.377  16.539  17.619 -0.4217 -0.1514  0.2842
 3852G1HFO link45783  21.163  16.635  17.472 -0.0210 -0.2875  0.2266
 3852G1HFO Tail45784  20.902  16.800  17.605  0.0918  0.0072  0.2266
 3852G1HFO Tail45785  20.692  16.827  17.326  0.1434 -0.0614 -0.0471
 3852G1HFO Tail45786  20.546  17.047  17.161  0.2061  0.1427 -0.4023
 3852G1HFO Tail45787  20.234  17.350  17.179 -0.0374 -0.0319  0.3019
 3852G1HFO Tail45788  20.756  16.516  17.762  0.2607 -0.2312  0.1163
 3852G1HFO Tail45789  20.508  16.504  17.833  0.0324 -0.0375 -0.1698
 3852G1HFO Tail45790  20.327  16.585  17.666  0.0058  0.0969  0.1809
 3852G1HFO Tail45791  20.134  16.647  17.506 -0.0145 -0.0716  0.1867
 3852G1HFO Tail45792  20.018  16.721  17.315 -0.0359  0.1305 -0.0418
 3853G1HFO Head45793  18.817  20.142  20.697 -0.0137  0.0620 -0.1055
 3853G1HFO Head45794  18.917  19.919  20.883 -0.1588 -0.0426 -0.1071
 3853G1HFO Head45795  19.115  19.578  21.274  0.0361  0.0577 -0.1900
 3853G1HFO Head45796  19.110  19.555  20.961 -0.0463 -0.2596 -0.1870
 3853G1HFO link45797  18.940  19.681  20.801  0.1339  0.2532 -0.3174
 3853G1HFO link45798  18.717  19.571  20.654 -0.2897 -0.2596 -0.0063
 3853G1HFO Tail45799  18.684  19.266  20.542  0.0535  0.0423  0.0972
 3853G1HFO Tail45800  18.340  19.249  20.503  0.4566  0.1595  0.0222
 3853G1HFO Tail45801  18.140  19.341  20.275  0.3124  0.2640  0.0913
 3853G1HFO Tail45802  18.026  19.662  20.003 -0.0904 -0.2561  0.1110
 3853G1HFO Tail45803  18.728  19.332  20.228  0.0326 -0.4970  0.1316
 3853G1HFO Tail45804  18.526  19.393  20.061  0.2551 -0.1215 -0.0318
 3853G1HFO Tail45805  18.512  19.625  19.951 -0.0619  0.0066 -0.1590
 3853G1HFO Tail45806  18.444  19.853  19.853  0.2779 -0.1924  0.0559
 3853G1HFO Tail45807  18.445  20.062  19.748 -0.3141  0.2485 -0.0376
 3854G1HFO Head45808  21.407  18.511  17.464  0.0084 -0.1816 -0.0168
 3854G1HFO Head45809  21.107  18.438  17.430 -0.0617  0.0367 -0.2336
 3854G1HFO Head45810  21.189  18.372  17.880 -0.0849 -0.2978 -0.2714
 3854G1HFO Head45811  21.000  18.177  17.710 -0.2236  0.2127 -0.2349
 3854G1HFO link45812  21.023  18.183  17.455  0.5348 -0.1419 -0.1019
 3854G1HFO link45813  20.908  18.020  17.275 -0.1686  0.0711  0.0564
 3854G1HFO Tail45814  20.679  18.124  17.045 -0.1302  0.1276 -0.0551
 3854G1HFO Tail45815  20.399  17.991  17.217 -0.0014 -0.4624  0.2602
 3854G1HFO Tail45816  20.090  17.991  17.092 -0.1034  0.1246  0.0715
 3854G1HFO Tail45817  19.831  18.025  16.743  0.0903 -0.2425  0.0514
 3854G1HFO Tail45818  20.668  18.458  17.127 -0.0124  0.2996  0.1540
 3854G1HFO Tail45819  20.457  18.598  17.171  0.0329 -0.1960 -0.1554
 3854G1HFO Tail45820  20.249  18.466  17.241  0.0235  0.1650 -0.0447
 3854G1HFO Tail45821  20.015  18.363  17.294  0.1566  0.0205 -0.0606
 3854G1HFO Tail45822  19.812  18.290  17.384 -0.1453 -0.2150 -0.0157
 3855G1HFO Head45823  16.827  20.430  21.260 -0.2604  0.6396  0.1942
 3855G1HFO Head45824  17.087  20.259  21.242  0.1275  0.4453  0.1402
 3855G1HFO Head45825  17.115  20.571  21.657 -0.0052  0.3084 -0.0924
 3855G1HFO Head45826  17.132  20.276  21.662 -0.0556 -0.3194  0.2004
 3855G1HFO link45827  17.196  20.149  21.450 -0.3231  0.3896 -0.1469
 3855G1HFO link45828  17.402  19.966  21.440  0.0095  0.2061  0.1579
 3855G1HFO Tail45829  17.508  19.780  21.699  0.1167 -0.2323 -0.0895
 3855G1HFO Tail45830  17.261  19.552  21.700 -0.2214  0.1401 -0.1788
 3855G1HFO Tail45831  17.171  19.335  21.481  0.1020  0.0789  0.4420
 3855G1HFO Tail45832  17.317  18.958  21.335 -0.2165  0.0593 -0.1076
 3855G1HFO Tail45833  17.759  19.594  21.516 -0.3262 -0.0762 -0.0526
 3855G1HFO Tail45834  17.751  19.336  21.488  0.1728  0.0438  0.2405
 3855G1HFO Tail45835  17.646  19.198  21.685  0.3093  0.1379  0.1555
 3855G1HFO Tail45836  17.547  19.108  21.894  0.3154  0.0525 -0.1007
 3855G1HFO Tail45837  17.445  18.994  22.073 -0.0903  0.1223 -0.0002
 3856G1HFO Head45838  14.936  17.345  16.844 -0.0720 -0.0631  0.0161
 3856G1HFO Head45839  15.253  17.313  16.775 -0.2124 -0.4026  0.0779
 3856G1HFO Head45840  14.964  16.883  16.635 -0.1307 -0.3668 -0.2090
 3856G1HFO Head45841  15.274  16.887  16.765 -0.0129  0.2352  0.1518
 3856G1HFO link45842  15.406  17.090  16.829  0.2950 -0.2441 -0.0913
 3856G1HFO link45843  15.666  17.092  16.938 -0.4496 -0.0105 -0.0997
 3856G1HFO Tail45844  15.711  16.954  17.239  0.3880  0.2299  0.2145
 3856G1HFO Tail45845  15.898  16.674  17.148 -0.0537 -0.4189  0.1448
 3856G1HFO Tail45846  15.917  16.394  17.272  0.8782 -0.1203  0.2047
 3856G1HFO Tail45847  16.202  16.074  17.292 -0.0133 -0.0884 -0.1854
 3856G1HFO Tail45848  15.939  17.191  17.369 -0.2291 -0.2708  0.1444
 3856G1HFO Tail45849  16.150  17.102  17.515  0.0817 -0.1468 -0.1337
 3856G1HFO Tail45850  16.270  16.894  17.435 -0.0422 -0.0747  0.2162
 3856G1HFO Tail45851  16.358  16.665  17.364  0.2833 -0.0300 -0.2166
 3856G1HFO Tail45852  16.438  16.444  17.350 -0.1211  0.2255  0.2970
 3857G1HFO Head45853  19.413  19.748  20.667  0.3412  0.2679  0.1357
 3857G1HFO Head45854  19.183  19.852  20.554  0.0570 -0.4424 -0.2074
 3857G1HFO Head45855  19.143  19.275  20.600 -0.0487  0.0116  0.1401
 3857G1HFO Head45856  19.162  19.462  20.390 -0.0197  0.3522 -0.1272
 3857G1HFO link45857  19.026  19.700  20.418 -0.3964  0.1127  0.3016
 3857G1HFO link45858  18.831  19.825  20.246 -0.0216  0.4728 -0.1319
 3857G1HFO Tail45859  18.871  20.109  20.096  0.3568 -0.1538 -0.2986
 3857G1HFO Tail45860  18.581  20.275  20.209  0.6366  0.1244  0.0037
 3857G1HFO Tail45861  18.308  20.382  20.092  0.2451 -0.0747  0.1433
 3857G1HFO Tail45862  17.950  20.173  19.938 -0.4448  0.0446  0.0699
 3857G1HFO Tail45863  19.107  20.262  20.308 -0.1684 -0.3150 -0.0331
 3857G1HFO Tail45864  19.022  20.467  20.442 -0.1564  0.1037 -0.4815
 3857G1HFO Tail45865  18.881  20.650  20.317 -0.0498  0.0104  0.0975
 3857G1HFO Tail45866  18.697  20.783  20.197 -0.1339 -0.1770  0.2955
 3857G1HFO Tail45867  18.576  20.905  20.045  0.1587 -0.5197  0.1888
 3858G1HFO Head45868  20.009  20.326  19.166 -0.0330 -0.0076 -0.1491
 3858G1HFO Head45869  19.813  20.552  19.064  0.1125 -0.2474 -0.0116
 3858G1HFO Head45870  20.063  20.480  18.598  0.0735 -0.0228 -0.1433
 3858G1HFO Head45871  19.757  20.516  18.640 -0.4855  0.3200 -0.1661
 3858G1HFO link45872  19.639  20.510  18.876  0.2382  0.1233 -0.0317
 3858G1HFO link45873  19.355  20.509  18.922 -0.2271  0.3379  0.1567
 3858G1HFO Tail45874  19.204  20.356  19.174 -0.3177 -0.3070 -0.0923
 3858G1HFO Tail45875  18.956  20.191  18.986 -0.2162 -0.0534 -0.1307
 3858G1HFO Tail45876  18.902  19.904  18.888 -0.1488 -0.2798  0.2263
 3858G1HFO Tail45877  18.579  19.688  18.710 -0.1332  0.0101  0.2834
 3858G1HFO Tail45878  19.409  20.056  19.190  0.0127 -0.4995  0.2884
 3858G1HFO Tail45879  19.329  19.855  19.337  0.0834  0.2339 -0.0299
 3858G1HFO Tail45880  19.348  19.881  19.596 -0.2636 -0.1318 -0.1417
 3858G1HFO Tail45881  19.310  19.890  19.852 -0.0564  0.2165 -0.0373
 3858G1HFO Tail45882  19.224  19.880  20.072 -0.2747 -0.0861 -0.1137
 3859G1HFO Head45883  14.633  16.885  17.314 -0.0239  0.2171  0.3060
 3859G1HFO Head45884  14.756  16.938  17.050  0.4577  0.2982 -0.1356
 3859G1HFO Head45885  14.787  16.473  16.930  0.0102 -0.0395  0.1953
 3859G1HFO Head45886  15.015  16.638  17.050 -0.3231  0.0617 -0.0172
 3859G1HFO link45887  15.005  16.882  17.044  0.1103  0.2137  0.3130
 3859G1HFO link45888  15.196  17.047  17.170 -0.1653 -0.2183  0.4301
 3859G1HFO Tail45889  15.142  17.363  17.236  0.0089  0.0641 -0.1200
 3859G1HFO Tail45890  15.064  17.344  17.566 -0.3164  0.0210 -0.1227
 3859G1HFO Tail45891  14.907  17.131  17.746 -0.3389 -0.0010 -0.5397
 3859G1HFO Tail45892  14.508  16.982  17.830  0.1040 -0.0625 -0.0160
 3859G1HFO Tail45893  15.461  17.497  17.240 -0.0008  0.0432 -0.0148
 3859G1HFO Tail45894  15.611  17.538  17.027  0.1261 -0.0771  0.3512
 3859G1HFO Tail45895  15.865  17.601  17.053 -0.2548 -0.2838 -0.1315
 3859G1HFO Tail45896  16.118  17.654  17.039 -0.1283  0.1430 -0.0153
 3859G1HFO Tail45897  16.325  17.752  17.056  0.0628 -0.2188  0.1187
 3860G1HFO Head45898  15.916  17.176  16.481 -0.1672 -0.0825  0.1954
 3860G1HFO Head45899  15.964  17.450  16.581 -0.5592 -0.6435  0.2374
 3860G1HFO Head45900  16.032  17.424  16.032  0.4179 -0.0148 -0.2536
 3860G1HFO Head45901  16.097  17.678  16.258 -0.1835 -0.1055 -0.2218
 3860G1HFO link45902  16.155  17.590  16.510  0.0465 -0.2579  0.0765
 3860G1HFO link45903  16.420  17.564  16.607  0.4580  0.0222 -0.0207
 3860G1HFO Tail45904  16.652  17.803  16.565 -0.0737  0.3664 -0.1080
 3860G1HFO Tail45905  16.804  17.781  16.881  0.0152  0.0128  0.2015
 3860G1HFO Tail45906  16.937  18.010  17.064  0.2563 -0.0205 -0.0815
 3860G1HFO Tail45907  17.273  18.119  17.315  0.0687 -0.3992  0.1338
 3860G1HFO Tail45908  16.861  17.586  16.399  0.5917  0.1165 -0.5386
 3860G1HFO Tail45909  17.022  17.655  16.201  0.5119 -0.1004 -0.1061
 3860G1HFO Tail45910  16.925  17.803  16.018 -0.1232 -0.0272  0.2984
 3860G1HFO Tail45911  16.870  17.952  15.826 -0.0827 -0.0383 -0.0030
 3860G1HFO Tail45912  16.846  18.032  15.606 -0.0337 -0.1899  0.1075
 3861G1HFO Head45913  16.924  18.830  19.599  0.0291  0.0078  0.0730
 3861G1HFO Head45914  16.703  19.044  19.499  0.0199 -0.2948 -0.2405
 3861G1HFO Head45915  16.456  19.023  18.867 -0.3560 -0.0058  0.1438
 3861G1HFO Head45916  16.492  19.168  19.158  0.2606  0.1529  0.3778
 3861G1HFO link45917  16.729  19.181  19.273 -0.0941 -0.2060  0.4952
 3861G1HFO link45918  16.908  19.387  19.199 -0.1367 -0.2308 -0.2085
 3861G1HFO Tail45919  16.853  19.595  18.960 -0.1795  0.0336  0.1003
 3861G1HFO Tail45920  16.526  19.527  18.910  0.1791 -0.0705  0.0167
 3861G1HFO Tail45921  16.299  19.662  18.747  0.1209  0.1396  0.1565
 3861G1HFO Tail45922  16.208  20.072  18.670  0.0632 -0.0220 -0.1257
 3861G1HFO Tail45923  16.816  19.894  19.166  0.2895  0.1192  0.3014
 3861G1HFO Tail45924  16.882  19.927  19.407 -0.0386  0.0939 -0.0110
 3861G1HFO Tail45925  17.075  19.767  19.491 -0.2092 -0.2536  0.2357
 3861G1HFO Tail45926  17.219  19.582  19.578 -0.0210  0.2046  0.2180
 3861G1HFO Tail45927  17.388  19.431  19.622  0.0040  0.1045  0.2127
 3862G1HFO Head45928  15.796  12.730  17.573 -0.0740 -0.1295 -0.1250
 3862G1HFO Head45929  15.774  12.959  17.373  0.5324  0.0560  0.0127
 3862G1HFO Head45930  15.094  13.069  17.409 -0.1582  0.1207 -0.1630
 3862G1HFO Head45931  15.362  13.015  17.285 -0.1917  0.0777  0.0762
 3862G1HFO link45932  15.577  13.133  17.397  0.1188 -0.3455 -0.0134
 3862G1HFO link45933  15.592  13.425  17.413  0.0916  0.0849  0.0884
 3862G1HFO Tail45934  15.891  13.564  17.417  0.0839  0.1378  0.4499
 3862G1HFO Tail45935  16.118  13.305  17.472 -0.1557 -0.0537  0.0981
 3862G1HFO Tail45936  16.404  13.271  17.579  0.0227 -0.3705  0.4793
 3862G1HFO Tail45937  16.633  12.950  17.750  0.2070  0.1919 -0.0296
 3862G1HFO Tail45938  15.927  13.586  17.063  0.0207 -0.0797  0.1309
 3862G1HFO Tail45939  16.109  13.453  16.929  0.3478  0.1338  0.2377
 3862G1HFO Tail45940  16.114  13.192  16.968 -0.0648  0.2498 -0.1387
 3862G1HFO Tail45941  16.075  12.953  17.039 -0.0002 -0.3110 -0.0302
 3862G1HFO Tail45942  16.066  12.720  17.047 -0.0793 -0.2804  0.3198
 3863G1HFO Head45943  19.858  14.518  17.434 -0.1183  0.2861  0.3010
 3863G1HFO Head45944  19.647  14.426  17.295 -0.0456  0.8195 -0.0603
 3863G1HFO Head45945  19.333  14.019  17.349  0.1025  0.0881  0.0038
 3863G1HFO Head45946  19.276  14.309  17.468 -0.2541  0.1701 -0.1753
 3863G1HFO link45947  19.409  14.505  17.385  0.0444  0.1606 -0.0857
 3863G1HFO link45948  19.322  14.774  17.400  0.1292 -0.2945  0.0335
 3863G1HFO Tail45949  19.147  14.891  17.656 -0.0937 -0.2631  0.0711
 3863G1HFO Tail45950  19.236  15.218  17.594 -0.0758 -0.0815 -0.2692
 3863G1HFO Tail45951  19.124  15.508  17.501  0.1894  0.0234  0.2182
 3863G1HFO Tail45952  19.207  15.912  17.523 -0.1321 -0.1323 -0.0717
 3863G1HFO Tail45953  18.819  14.904  17.516  0.2473  0.1979  0.0289
 3863G1HFO Tail45954  18.683  15.130  17.536 -0.0227  0.0828  0.3416
 3863G1HFO Tail45955  18.461  15.154  17.411  0.0091 -0.0515 -0.2102
 3863G1HFO Tail45956  18.246  15.172  17.286  0.0829 -0.0220  0.0104
 3863G1HFO Tail45957  18.021  15.130  17.200 -0.0430 -0.0944  0.2567
 3864G1HFO Head45958  15.740  19.693  21.153 -0.4737 -0.1636 -0.1866
 3864G1HFO Head45959  15.451  19.777  21.010  0.1999  0.3465  0.5483
 3864G1HFO Head45960  14.923  19.466  21.018  0.0428  0.1473  0.3510
 3864G1HFO Head45961  15.115  19.645  20.821  0.4535  0.0353  0.0116
 3864G1HFO link45962  15.378  19.619  20.816  0.3111 -0.1220  0.1963
 3864G1HFO link45963  15.485  19.667  20.549  0.1582  0.0375  0.2341
 3864G1HFO Tail45964  15.542  19.438  20.328  0.4432 -0.3586  0.0363
 3864G1HFO Tail45965  15.861  19.514  20.193 -0.0363 -0.1129 -0.5668
 3864G1HFO Tail45966  16.008  19.727  19.989  0.0175 -0.5054 -0.1134
 3864G1HFO Tail45967  16.027  19.895  19.583  0.0973  0.0543  0.0052
 3864G1HFO Tail45968  15.636  19.157  20.496  0.1015 -0.4489 -0.0456
 3864G1HFO Tail45969  15.832  19.001  20.395 -0.1915  0.2209  0.2017
 3864G1HFO Tail45970  15.747  18.751  20.356  0.1337 -0.1785  0.1600
 3864G1HFO Tail45971  15.662  18.512  20.370  0.0751 -0.1754 -0.0034
 3864G1HFO Tail45972  15.597  18.297  20.312 -0.1385  0.4454 -0.0829
 3865G1HFO Head45973  17.067  14.686  18.959 -0.2272  0.2965  0.0904
 3865G1HFO Head45974  17.219  14.668  18.693 -0.1840 -0.0513 -0.0779
 3865G1HFO Head45975  17.840  15.069  18.545  0.0914  0.1632  0.1891
 3865G1HFO Head45976  17.605  14.816  18.605  0.2397  0.3470 -0.1066
 3865G1HFO link45977  17.333  14.893  18.619  0.1819  0.5750  0.0728
 3865G1HFO link45978  17.196  15.097  18.475 -0.2337 -0.1422  0.2985
 3865G1HFO Tail45979  16.869  15.115  18.443  0.3222  0.3046 -0.0289
 3865G1HFO Tail45980  16.842  14.986  18.117  0.0290 -0.0109 -0.2220
 3865G1HFO Tail45981  16.786  14.710  18.021 -0.1774  0.2855 -0.3772
 3865G1HFO Tail45982  16.522  14.375  18.109  0.0958 -0.1082  0.0203
 3865G1HFO Tail45983  16.780  14.792  18.572 -0.3433  0.0333  0.0584
 3865G1HFO Tail45984  16.586  14.636  18.505  0.3095  0.1327 -0.0220
 3865G1HFO Tail45985  16.380  14.754  18.387 -0.0862 -0.1187  0.3070
 3865G1HFO Tail45986  16.220  14.903  18.257  0.1454 -0.2106 -0.0641
 3865G1HFO Tail45987  16.089  15.090  18.202  0.0810  0.3389  0.2438
 3866G1HFO Head45988  19.038  14.936  20.527 -0.3182  0.1421  0.1419
 3866G1HFO Head45989  19.024  15.143  20.264  0.0314 -0.3691 -0.0968
 3866G1HFO Head45990  19.550  15.560  20.432  0.0310 -0.2860  0.2921
 3866G1HFO Head45991  19.394  15.318  20.332 -0.0414 -0.3256 -0.1421
 3866G1HFO link45992  19.142  15.381  20.262 -0.1564  0.2836 -0.0233
 3866G1HFO link45993  19.018  15.628  20.195 -0.0837 -0.2381 -0.3503
 3866G1HFO Tail45994  18.705  15.632  20.101 -0.1802 -0.1050  0.2500
 3866G1HFO Tail45995  18.645  15.288  20.096  0.1149 -0.1728 -0.0195
 3866G1HFO Tail45996  18.399  15.116  20.149  0.0286  0.2235  0.1511
 3866G1HFO Tail45997  18.011  15.057  19.957 -0.0287 -0.0433 -0.5234
 3866G1HFO Tail45998  18.556  15.689  20.422  0.0444  0.0017  0.2635
 3866G1HFO Tail45999  18.671  15.809  20.633  0.1262 -0.1342 -0.0310
 3866G1HFO Tail46000  18.914  15.777  20.694  0.0359 -0.2177 -0.1071
 3866G1HFO Tail46001  19.144  15.687  20.751  0.0827 -0.3239  0.0575
 3866G1HFO Tail46002  19.335  15.606  20.867 -0.1413 -0.3271 -0.1368
 3867G1HFO Head46003  14.156  14.543  18.862  0.4441  0.1678  0.0057
 3867G1HFO Head46004  14.383  14.401  18.815 -0.2474 -0.3305  0.0338
 3867G1HFO Head46005  14.731  14.027  18.474  0.1379  0.0300 -0.1044
 3867G1HFO Head46006  14.490  14.135  18.541  0.0291 -0.1429 -0.0459
 3867G1HFO link46007  14.467  14.388  18.555 -0.0425 -0.0960  0.2870
 3867G1HFO link46008  14.447  14.587  18.343  0.2875  0.1104 -0.1435
 3867G1HFO Tail46009  14.396  14.905  18.323  0.5376 -0.2108 -0.0178
 3867G1HFO Tail46010  14.395  14.988  18.669 -0.2530  0.3848 -0.0318
 3867G1HFO Tail46011  14.565  14.914  18.932 -0.0191  0.2309  0.1377
 3867G1HFO Tail46012  14.615  15.038  19.355  0.6061 -0.3485  0.1087
 3867G1HFO Tail46013  14.705  15.023  18.209  0.2891 -0.1711 -0.2715
 3867G1HFO Tail46014  14.918  14.889  18.197 -0.3412  0.0667  0.0264
 3867G1HFO Tail46015  14.922  14.630  18.187  0.1446 -0.0566  0.1423
 3867G1HFO Tail46016  14.942  14.376  18.157  0.1364  0.1577 -0.1823
 3867G1HFO Tail46017  14.887  14.147  18.117  0.2045 -0.2534 -0.0771
 3868G1HFO Head46018  16.045  17.225  18.635 -0.3977 -0.0410 -0.2477
 3868G1HFO Head46019  15.877  17.059  18.841  0.0881  0.1703 -0.2274
 3868G1HFO Head46020  16.139  17.510  19.063  0.0967 -0.1391  0.0623
 3868G1HFO Head46021  15.921  17.287  19.172  0.0825 -0.0843 -0.4167
 3868G1HFO link46022  15.756  17.138  19.043  0.1173  0.4466 -0.4928
 3868G1HFO link46023  15.513  17.025  19.143  0.0400  0.0888  0.2486
 3868G1HFO Tail46024  15.263  16.993  18.937 -0.2434  0.1303  0.0242
 3868G1HFO Tail46025  15.173  17.328  18.854 -0.0364 -0.1215  0.2534
 3868G1HFO Tail46026  15.056  17.454  18.594 -0.4409 -0.2722  0.1256
 3868G1HFO Tail46027  14.716  17.674  18.449 -0.1481 -0.0756  0.1639
 3868G1HFO Tail46028  15.396  16.797  18.662 -0.1099 -0.2001  0.3739
 3868G1HFO Tail46029  15.644  16.823  18.558 -0.1180  0.3115  0.0467
 3868G1HFO Tail46030  15.685  17.026  18.407  0.0537  0.0410 -0.2113
 3868G1HFO Tail46031  15.771  17.217  18.262 -0.2376  0.0524  0.0725
 3868G1HFO Tail46032  15.802  17.403  18.122  0.0730 -0.0974 -0.3650
 3869G1HFO Head46033  14.694  13.511  18.743 -0.2077  0.0442  0.4139
 3869G1HFO Head46034  14.850  13.744  18.891 -0.0361 -0.1459  0.2881
 3869G1HFO Head46035  14.304  13.871  18.829 -0.0375 -0.6196  0.1800
 3869G1HFO Head46036  14.516  14.001  18.979  0.0973  0.1213 -0.3240
 3869G1HFO link46037  14.752  14.001  18.895  0.5225  0.1001 -0.6053
 3869G1HFO link46038  14.904  14.240  18.893 -0.2865 -0.0648 -0.1099
 3869G1HFO Tail46039  14.950  14.415  18.604  0.0921  0.3044  0.2802
 3869G1HFO Tail46040  14.879  14.743  18.690  0.4755  0.1718  0.2151
 3869G1HFO Tail46041  14.976  14.985  18.855  0.3451  0.0879 -0.5018
 3869G1HFO Tail46042  15.139  15.065  19.250  0.3718  0.1164  0.1458
 3869G1HFO Tail46043  15.284  14.427  18.555 -0.3317 -0.1143  0.5795
 3869G1HFO Tail46044  15.474  14.291  18.670  0.0177  0.1059 -0.0486
 3869G1HFO Tail46045  15.401  14.115  18.860 -0.2036 -0.0310 -0.0981
 3869G1HFO Tail46046  15.320  13.960  19.036 -0.0929 -0.2033  0.0117
 3869G1HFO Tail46047  15.190  13.865  19.203 -0.0957 -0.0196  0.1592
 3870G1HFO Head46048  19.437  14.951  21.377  0.1735 -0.2704  0.0796
 3870G1HFO Head46049  19.171  14.863  21.377 -0.2837 -0.0251  0.0995
 3870G1HFO Head46050  18.601  14.799  21.541  0.0198  0.1448  0.0792
 3870G1HFO Head46051  18.771  15.052  21.440  0.1790  0.1341 -0.4193
 3870G1HFO link46052  18.997  15.042  21.309  0.0368 -0.6202 -0.1290
 3870G1HFO link46053  19.027  15.221  21.092 -0.3164 -0.1614  0.0407
 3870G1HFO Tail46054  18.804  15.421  20.947  0.7551  0.1815  0.2003
 3870G1HFO Tail46055  18.670  15.216  20.696 -0.1558  0.1152  0.1038
 3870G1HFO Tail46056  18.401  15.133  20.561  0.0470 -0.1842  0.0742
 3870G1HFO Tail46057  18.091  15.361  20.346  0.3157 -0.2024 -0.2469
 3870G1HFO Tail46058  18.526  15.368  21.164 -0.7658 -0.1944 -0.2091
 3870G1HFO Tail46059  18.306  15.214  21.112  0.0042 -0.1562 -0.0489
 3870G1HFO Tail46060  18.194  15.092  21.309  0.1084 -0.1969  0.2460
 3870G1HFO Tail46061  18.107  15.000  21.526 -0.1253  0.0858  0.2596
 3870G1HFO Tail46062  18.066  14.863  21.716 -0.0752 -0.1053  0.3173
 3871G1HFO Head46063  17.107  14.205  21.218  0.3169 -0.0029  0.2056
 3871G1HFO Head46064  17.129  14.392  20.960 -0.3139 -0.1003 -0.1598
 3871G1HFO Head46065  17.612  14.331  21.196 -0.1291  0.1362 -0.2440
 3871G1HFO Head46066  17.427  14.542  21.221  0.3376 -0.2288 -0.3358
 3871G1HFO link46067  17.261  14.612  21.020 -0.0037 -0.6029  0.3190
 3871G1HFO link46068  17.338  14.809  20.823  0.2057  0.0233  0.2543
 3871G1HFO Tail46069  17.360  15.131  20.892  0.0129  0.0199  0.0502
 3871G1HFO Tail46070  17.684  15.185  20.726 -0.5101  0.3573  0.1667
 3871G1HFO Tail46071  17.972  15.232  20.819 -0.4288  0.1246 -0.5319
 3871G1HFO Tail46072  18.257  15.562  20.800  0.0635  0.2533 -0.0419
 3871G1HFO Tail46073  17.133  15.266  20.667 -0.0629 -0.4069  0.1616
 3871G1HFO Tail46074  16.911  15.145  20.609  0.2271  0.0278  0.3382
 3871G1HFO Tail46075  16.878  14.907  20.713 -0.0539 -0.0173  0.0136
 3871G1HFO Tail46076  16.800  14.686  20.818  0.0623  0.1339  0.0413
 3871G1HFO Tail46077  16.690  14.482  20.870  0.0908  0.0372 -0.0299
 3872G1HFO Head46078  15.228  17.777  21.277 -0.1605 -0.2436  0.3148
 3872G1HFO Head46079  15.159  17.497  21.430 -0.2360  0.0157 -0.2585
 3872G1HFO Head46080  15.148  17.759  21.833 -0.0657  0.2204  0.2581
 3872G1HFO Head46081  15.324  17.471  21.804  0.2601 -0.0997  0.1169
 3872G1HFO link46082  15.365  17.390  21.564  0.2268  0.3306  0.7443
 3872G1HFO link46083  15.617  17.400  21.446 -0.0813 -0.2928  0.1662
 3872G1HFO Tail46084  15.692  17.637  21.229  0.2817 -0.4883 -0.1085
 3872G1HFO Tail46085  16.001  17.541  21.096  0.1485  0.1367 -0.1597
 3872G1HFO Tail46086  16.301  17.536  21.131  0.3910  0.1643 -0.2164
 3872G1HFO Tail46087  16.665  17.369  20.952  0.4201 -0.4179  0.6247
 3872G1HFO Tail46088  15.491  17.541  20.943 -0.1832 -0.0853 -0.1164
 3872G1HFO Tail46089  15.609  17.425  20.747  0.0953  0.0866 -0.0739
 3872G1HFO Tail46090  15.496  17.405  20.508 -0.0949  0.0966  0.1693
 3872G1HFO Tail46091  15.392  17.340  20.281  0.0251 -0.0792  0.0064
 3872G1HFO Tail46092  15.352  17.317  20.050  0.1211 -0.1824 -0.4176
 3873G1HFO Head46093  18.092  19.370  16.132  0.0380  0.0197  0.4174
 3873G1HFO Head46094  18.177  19.126  16.289 -0.4766 -0.4085 -0.2409
 3873G1HFO Head46095  17.676  19.112  15.963 -0.1923 -0.4154  0.0265
 3873G1HFO Head46096  17.786  19.026  16.232 -0.2668 -0.4664 -0.6049
 3873G1HFO link46097  18.018  18.920  16.250 -0.4641  0.4005  0.0959
 3873G1HFO link46098  18.082  18.643  16.259  0.1502  0.1976 -0.2527
 3873G1HFO Tail46099  18.219  18.509  16.520 -0.0745 -0.2071  0.2101
 3873G1HFO Tail46100  18.383  18.783  16.669  0.1213  0.1402  0.4195
 3873G1HFO Tail46101  18.684  18.854  16.732 -0.0975  0.0481  0.0663
 3873G1HFO Tail46102  19.009  18.730  16.986  0.0636  0.0749  0.0785
 3873G1HFO Tail46103  17.966  18.477  16.747  0.0868  0.0269 -0.1837
 3873G1HFO Tail46104  17.731  18.593  16.689 -0.1830 -0.1231  0.1112
 3873G1HFO Tail46105  17.637  18.590  16.439 -0.2494 -0.0412 -0.1510
 3873G1HFO Tail46106  17.589  18.622  16.187 -0.0072 -0.1666 -0.1983
 3873G1HFO Tail46107  17.508  18.708  15.986 -0.1321  0.2774 -0.0619
 3874G1HFO Head46108  15.984  18.198  15.606 -0.2722  0.0097 -0.0002
 3874G1HFO Head46109  16.081  18.094  15.889  0.4017  0.6134 -0.2313
 3874G1HFO Head46110  16.396  18.205  15.438  0.0486 -0.2094 -0.0548
 3874G1HFO Head46111  16.447  18.250  15.783  0.1704  0.4037 -0.0044
 3874G1HFO link46112  16.330  18.060  15.948  0.2112 -0.6487  0.6411
 3874G1HFO link46113  16.461  17.998  16.190  0.2531 -0.1321 -0.0752
 3874G1HFO Tail46114  16.592  18.240  16.380 -0.2003 -0.0118  0.1181
 3874G1HFO Tail46115  16.930  18.125  16.465 -0.0155  0.2332  0.0213
 3874G1HFO Tail46116  17.212  18.261  16.540  0.2774  0.4243  0.4377
 3874G1HFO Tail46117  17.597  18.189  16.736 -0.1476 -0.1444 -0.0143
 3874G1HFO Tail46118  16.687  18.451  16.111 -0.1949 -0.4648  0.0655
 3874G1HFO Tail46119  16.929  18.537  16.059 -0.4921 -0.0123  0.1601
 3874G1HFO Tail46120  17.130  18.377  16.101  0.3256 -0.1892  0.0508
 3874G1HFO Tail46121  17.285  18.181  16.130 -0.2394  0.0063  0.1409
 3874G1HFO Tail46122  17.357  17.962  16.172  0.0934  0.0094  0.1579
 3875G1HFO Head46123  17.783  19.522  22.288 -0.3790 -0.2061 -0.2120
 3875G1HFO Head46124  17.755  19.641  22.020 -0.8773  0.2442 -0.0694
 3875G1HFO Head46125  17.820  20.073  21.725 -0.2239  0.4959 -0.2977
 3875G1HFO Head46126  18.024  19.833  21.777 -0.0727  0.2313 -0.0267
 3875G1HFO link46127  17.949  19.612  21.855  0.2208  0.3109 -0.1875
 3875G1HFO link46128  18.093  19.374  21.819  0.0388 -0.2539 -0.0259
 3875G1HFO Tail46129  18.278  19.340  21.559  0.0700 -0.0219 -0.4311
 3875G1HFO Tail46130  18.124  19.075  21.403  0.1858  0.0193 -0.1811
 3875G1HFO Tail46131  17.982  18.806  21.504  0.0552  0.0421 -0.0242
 3875G1HFO Tail46132  18.000  18.373  21.441  0.1544  0.2501  0.3523
 3875G1HFO Tail46133  18.206  19.607  21.349 -0.0596 -0.3771 -0.0302
 3875G1HFO Tail46134  18.101  19.585  21.108  0.1284 -0.0097  0.0620
 3875G1HFO Tail46135  17.957  19.381  21.058  0.0899 -0.0843  0.0957
 3875G1HFO Tail46136  17.780  19.204  21.007 -0.0773  0.2174  0.2216
 3875G1HFO Tail46137  17.620  19.072  20.897  0.0656 -0.1242  0.1314
 3876G1HFO Head46138  16.150  18.553  20.011 -0.1105  0.0015 -0.0202
 3876G1HFO Head46139  16.339  18.319  20.060 -0.0094 -0.0721 -0.5592
 3876G1HFO Head46140  16.724  18.674  20.030  0.3386  0.0815  0.3030
 3876G1HFO Head46141  16.738  18.410  20.174 -0.2564  0.2242 -0.1054
 3876G1HFO link46142  16.514  18.309  20.254 -0.0560  0.4048 -0.6185
 3876G1HFO link46143  16.515  18.086  20.436  0.0755  0.1266  0.0474
 3876G1HFO Tail46144  16.773  17.993  20.626  0.2222 -0.0947 -0.3101
 3876G1HFO Tail46145  16.956  18.287  20.698  0.2186 -0.2571  0.1578
 3876G1HFO Tail46146  17.061  18.524  20.508 -0.2157  0.3448  0.3721
 3876G1HFO Tail46147  17.226  18.543  20.117  0.2590 -0.1758 -0.2223
 3876G1HFO Tail46148  16.606  17.907  20.927  0.0610  0.3671  0.1770
 3876G1HFO Tail46149  16.704  17.929  21.165 -0.1436 -0.0626  0.1304
 3876G1HFO Tail46150  16.638  17.758  21.345 -0.1007 -0.0985  0.2334
 3876G1HFO Tail46151  16.555  17.616  21.535  0.0892  0.0409 -0.0184
 3876G1HFO Tail46152  16.468  17.550  21.739  0.2527 -0.2228  0.1355
 3877G1HFO Head46153  14.962  21.283  19.253  0.0262  0.3402  0.1535
 3877G1HFO Head46154  15.268  21.251  19.251 -0.1530  0.6187  0.2191
 3877G1HFO Head46155  14.995  20.954  18.833 -0.1257  0.2363 -0.0847
 3877G1HFO Head46156  15.284  20.897  18.955  0.1444 -0.0259  0.4094
 3877G1HFO link46157  15.392  21.018  19.176 -0.3865  0.1354 -0.1924
 3877G1HFO link46158  15.633  20.915  19.273  0.1521 -0.0829  0.2335
 3877G1HFO Tail46159  15.644  20.661  19.501  0.3088 -0.3938  0.1796
 3877G1HFO Tail46160  15.886  20.439  19.351  0.1156  0.0514 -0.1802
 3877G1HFO Tail46161  15.955  20.172  19.216  0.3124  0.0158 -0.0038
 3877G1HFO Tail46162  16.303  19.935  19.124 -0.1552 -0.1008 -0.0157
 3877G1HFO Tail46163  15.878  20.799  19.720 -0.0790 -0.3268  0.2249
 3877G1HFO Tail46164  16.122  20.858  19.601  0.0568  0.0798 -0.2380
 3877G1HFO Tail46165  16.160  21.101  19.509  0.1050 -0.1319 -0.2382
 3877G1HFO Tail46166  16.167  21.349  19.459  0.3594 -0.1274 -0.0096
 3877G1HFO Tail46167  16.240  21.571  19.451  0.1721 -0.0682 -0.1373
 3878G1HFO Head46168  15.833  13.578  19.884  0.1591 -0.2607  0.4718
 3878G1HFO Head46169  15.568  13.413  19.857 -0.3339  0.2158  0.1146
 3878G1HFO Head46170  15.302  13.048  19.896 -0.1068 -0.2557  0.1135
 3878G1HFO Head46171  15.193  13.281  19.758  0.5372  0.0031  0.2583
 3878G1HFO link46172  15.346  13.506  19.754 -0.1716 -0.0934 -0.1435
 3878G1HFO link46173  15.251  13.766  19.820  0.4943  0.0718 -0.0698
 3878G1HFO Tail46174  15.446  14.038  19.849 -0.2446 -0.0892  0.3585
 3878G1HFO Tail46175  15.179  14.258  19.949 -0.1256  0.2249  0.4475
 3878G1HFO Tail46176  15.132  14.563  19.971  0.5317  0.1242 -0.2179
 3878G1HFO Tail46177  15.366  14.926  19.961 -0.1040  0.0230 -0.0976
 3878G1HFO Tail46178  15.589  14.013  20.152 -0.0970 -0.3459 -0.0488
 3878G1HFO Tail46179  15.804  14.137  20.241  0.1473  0.2257  0.1640
 3878G1HFO Tail46180  15.972  13.977  20.379 -0.3274 -0.0247 -0.0911
 3878G1HFO Tail46181  16.133  13.866  20.539 -0.0646  0.1787 -0.0348
 3878G1HFO Tail46182  16.287  13.720  20.640 -0.2091 -0.1894  0.2167
 3879G1HFO Head46183  15.846  14.946  22.094 -0.0219  0.1417 -0.0563
 3879G1HFO Head46184  15.830  14.854  21.815  0.0316 -0.1662 -0.0384
 3879G1HFO Head46185  15.974  14.335  21.850  0.0725 -0.2143  0.2681
 3879G1HFO Head46186  15.945  14.497  21.646  0.3623  0.4190 -0.2157
 3879G1HFO link46187  16.015  14.743  21.658  0.2867  0.0074  0.0736
 3879G1HFO link46188  16.145  14.887  21.443 -0.0591  0.2309 -0.1274
 3879G1HFO Tail46189  15.948  15.028  21.219 -0.3906 -0.5439  0.1185
 3879G1HFO Tail46190  16.134  15.293  21.138 -0.3891  0.3075 -0.0601
 3879G1HFO Tail46191  16.131  15.572  20.985 -0.3126 -0.3242 -0.4240
 3879G1HFO Tail46192  16.247  15.983  21.045 -0.1576  0.1940  0.1197
 3879G1HFO Tail46193  15.998  14.806  20.934  0.0337  0.2618 -0.0198
 3879G1HFO Tail46194  16.230  14.774  20.795 -0.1216  0.0237  0.1327
 3879G1HFO Tail46195  16.360  14.989  20.746  0.0111 -0.2878  0.0725
 3879G1HFO Tail46196  16.433  15.231  20.706 -0.2359 -0.0389 -0.1628
 3879G1HFO Tail46197  16.533  15.426  20.600 -0.1866 -0.0955  0.0350
 3880G1HFO Head46198  19.016  17.888  21.396  0.0128  0.1131 -0.0652
 3880G1HFO Head46199  19.186  17.656  21.207  0.2596 -0.0297 -0.2040
 3880G1HFO Head46200  19.487  17.342  20.902  0.0104  0.0649  0.3268
 3880G1HFO Head46201  19.488  17.372  21.182  0.1315 -0.1548 -0.1078
 3880G1HFO link46202  19.276  17.432  21.296 -0.1851  0.1336  0.0625
 3880G1HFO link46203  19.157  17.291  21.514 -0.1338  0.0747 -0.2148
 3880G1HFO Tail46204  18.845  17.321  21.566  0.5809 -0.0652 -0.0370
 3880G1HFO Tail46205  18.746  17.486  21.274  0.1847 -0.0392  0.1051
 3880G1HFO Tail46206  18.487  17.401  21.102 -0.1962  0.1547 -0.4563
 3880G1HFO Tail46207  18.076  17.540  20.994 -0.0830 -0.2131 -0.2059
 3880G1HFO Tail46208  18.759  16.991  21.486 -0.2686 -0.0900  0.0176
 3880G1HFO Tail46209  18.508  16.935  21.420 -0.0432 -0.0616  0.1148
 3880G1HFO Tail46210  18.331  17.129  21.422  0.1818  0.0427  0.0412
 3880G1HFO Tail46211  18.130  17.283  21.392  0.2083 -0.0336 -0.3576
 3880G1HFO Tail46212  17.968  17.459  21.415 -0.0786  0.1393  0.1279
 3881G1HFO Head46213  16.127  17.493  17.744  0.0247  0.2256  0.2674
 3881G1HFO Head46214  16.303  17.650  17.528  0.0292 -0.2182 -0.4326
 3881G1HFO Head46215  16.506  18.294  17.482  0.0690 -0.1995  0.0562
 3881G1HFO Head46216  16.454  18.014  17.424  0.0299 -0.2167  0.0204
 3881G1HFO link46217  16.226  17.903  17.503  0.4020 -0.2169  0.2110
 3881G1HFO link46218  15.987  18.005  17.605  0.0537 -0.1877  0.0080
 3881G1HFO Tail46219  15.906  18.197  17.864 -0.1021 -0.1191 -0.3529
 3881G1HFO Tail46220  16.222  18.346  17.888 -0.0372 -0.0531  0.0080
 3881G1HFO Tail46221  16.304  18.653  17.813 -0.0294  0.6666  0.0340
 3881G1HFO Tail46222  16.222  18.951  17.510  0.0426  0.0541 -0.0260
 3881G1HFO Tail46223  15.712  18.471  17.714 -0.2439  0.1181  0.0202
 3881G1HFO Tail46224  15.690  18.485  17.458 -0.0943 -0.4144 -0.0052
 3881G1HFO Tail46225  15.904  18.539  17.312  0.0531 -0.1909  0.0617
 3881G1HFO Tail46226  16.125  18.605  17.195  0.0860 -0.0726  0.0576
 3881G1HFO Tail46227  16.344  18.654  17.147 -0.0490  0.1458 -0.0996
 3882G1HFO Head46228  16.285  19.196  21.803 -0.4821 -0.0197  0.2908
 3882G1HFO Head46229  16.121  19.243  21.513 -0.3976  0.1536 -0.1596
 3882G1HFO Head46230  15.801  18.910  21.653 -0.1141  0.2444 -0.3648
 3882G1HFO Head46231  16.075  18.875  21.438  0.1150 -0.0439 -0.1378
 3882G1HFO link46232  16.189  19.080  21.321  0.0936 -0.1475  0.3143
 3882G1HFO link46233  16.444  19.074  21.199  0.1163 -0.2480  0.0071
 3882G1HFO Tail46234  16.554  18.848  20.973 -0.0875 -0.2286 -0.3035
 3882G1HFO Tail46235  16.903  18.811  21.102  0.3367  0.3640  0.4998
 3882G1HFO Tail46236  17.148  18.640  20.994 -0.4589 -0.3343  0.2787
 3882G1HFO Tail46237  17.443  18.711  20.676 -0.0419 -0.0453 -0.0861
 3882G1HFO Tail46238  16.471  18.544  21.105 -0.1523  0.3196 -0.2245
 3882G1HFO Tail46239  16.650  18.377  21.187 -0.1114 -0.3410  0.1075
 3882G1HFO Tail46240  16.650  18.297  21.435  0.1811 -0.2769  0.0949
 3882G1HFO Tail46241  16.694  18.243  21.678  0.1038 -0.0067  0.1042
 3882G1HFO Tail46242  16.793  18.195  21.886  0.1349 -0.1231  0.0629
 3883G1HFO Head46243  15.977  21.421  17.752  0.2026  0.2351 -0.2118
 3883G1HFO Head46244  16.073  21.122  17.606  0.1779 -0.0662  0.2596
 3883G1HFO Head46245  16.447  21.488  17.576 -0.4571 -0.0507 -0.2330
 3883G1HFO Head46246  16.470  21.208  17.756 -0.3997  0.2489 -0.0281
 3883G1HFO link46247  16.292  21.001  17.710  0.3065 -0.0094  0.1306
 3883G1HFO link46248  16.316  20.781  17.880  0.1648  0.5070 -0.0862
 3883G1HFO Tail46249  16.554  20.563  17.831 -0.0315 -0.0011  0.1141
 3883G1HFO Tail46250  16.389  20.284  17.928 -0.0367 -0.3074 -0.0417
 3883G1HFO Tail46251  16.364  20.136  18.222  0.0355 -0.0598 -0.0371
 3883G1HFO Tail46252  16.611  19.881  18.487 -0.2175  0.2674 -0.3922
 3883G1HFO Tail46253  16.528  20.531  17.475  0.1283  0.2982 -0.0682
 3883G1HFO Tail46254  16.534  20.728  17.309 -0.0827 -0.1632  0.0779
 3883G1HFO Tail46255  16.303  20.842  17.256  0.1273 -0.0423  0.1518
 3883G1HFO Tail46256  16.057  20.916  17.225  0.1885  0.1877  0.0420
 3883G1HFO Tail46257  15.836  20.995  17.256 -0.0674  0.2151  0.0635
 3884G1HFO Head46258  13.832  17.513  20.524 -0.1594 -0.0855 -0.3871
 3884G1HFO Head46259  13.638  17.603  20.258  0.0223  0.0265  0.2110
 3884G1HFO Head46260  13.729  18.003  19.650  0.1199  0.2253  0.1963
 3884G1HFO Head46261  13.676  17.786  19.850  0.1050 -0.8258  0.2532
 3884G1HFO link46262  13.718  17.813  20.113 -0.2388 -0.5025 -0.2435
 3884G1HFO link46263  13.838  18.038  20.235  0.1552 -0.0329 -0.0506
 3884G1HFO Tail46264  14.131  18.175  20.146  0.0238 -0.0357 -0.4372
 3884G1HFO Tail46265  14.118  18.215  19.809 -0.2017  0.1114  0.0416
 3884G1HFO Tail46266  14.023  18.456  19.610  0.1146  0.2066  0.0910
 3884G1HFO Tail46267  14.181  18.818  19.406 -0.1268 -0.1209  0.1799
 3884G1HFO Tail46268  14.077  18.455  20.322 -0.1224 -0.3616 -0.2624
 3884G1HFO Tail46269  14.194  18.675  20.242  0.0560 -0.2820  0.3101
 3884G1HFO Tail46270  14.338  18.676  20.023  0.0468  0.3198  0.1337
 3884G1HFO Tail46271  14.498  18.654  19.818  0.2543  0.0029 -0.2128
 3884G1HFO Tail46272  14.579  18.622  19.601  0.2810 -0.0243 -0.0154
 3885G1HFO Head46273  15.052  15.996  17.059  0.0332  0.0973  0.2887
 3885G1HFO Head46274  14.963  15.786  17.311 -0.0945 -0.0350  0.0190
 3885G1HFO Head46275  14.562  15.900  17.581 -0.0589  0.2151 -0.1466
 3885G1HFO Head46276  14.864  15.937  17.696 -0.2914 -0.0077 -0.1273
 3885G1HFO link46277  15.049  15.820  17.537  0.3460  0.3768 -0.3092
 3885G1HFO link46278  15.222  15.624  17.656 -0.0379 -0.1706  0.4715
 3885G1HFO Tail46279  15.493  15.538  17.483  0.4610  0.2543  0.1531
 3885G1HFO Tail46280  15.616  15.833  17.369 -0.2516  0.0106 -0.0835
 3885G1HFO Tail46281  15.762  16.069  17.503 -0.2336 -0.1097 -0.2486
 3885G1HFO Tail46282  15.704  16.392  17.771  0.1627  0.2188 -0.2129
 3885G1HFO Tail46283  15.694  15.445  17.742 -0.2399  0.0627  0.1838
 3885G1HFO Tail46284  15.801  15.194  17.771  0.0975 -0.2815 -0.2179
 3885G1HFO Tail46285  16.060  15.185  17.765  0.0653  0.5023 -0.0083
 3885G1HFO Tail46286  16.312  15.149  17.796  0.3749 -0.1414  0.1952
 3885G1HFO Tail46287  16.539  15.096  17.760  0.0305 -0.1673  0.0563
 3886G1HFO Head46288  19.878  19.076  21.284 -0.0728  0.3166  0.0643
 3886G1HFO Head46289  19.755  19.077  20.996 -0.2699  0.0640 -0.1054
 3886G1HFO Head46290  19.603  19.525  21.117 -0.1053 -0.0072 -0.2490
 3886G1HFO Head46291  19.415  19.300  21.065  0.2327 -0.2824  0.0296
 3886G1HFO link46292  19.497  19.075  20.969 -0.1283  0.4678 -0.1317
 3886G1HFO link46293  19.358  18.873  20.835  0.4010 -0.2901 -0.3844
 3886G1HFO Tail46294  19.403  18.550  20.887  0.0402  0.0469  0.4245
 3886G1HFO Tail46295  19.172  18.404  20.653 -0.0158 -0.1028  0.2602
 3886G1HFO Tail46296  18.872  18.465  20.598 -0.2163 -0.3297 -0.0220
 3886G1HFO Tail46297  18.608  18.443  20.258  0.0032 -0.3664  0.4048
 3886G1HFO Tail46298  19.674  18.489  20.704 -0.3169  0.1818 -0.1978
 3886G1HFO Tail46299  19.824  18.669  20.581 -0.0510 -0.1178 -0.0595
 3886G1HFO Tail46300  19.723  18.915  20.554  0.0877  0.0367  0.1816
 3886G1HFO Tail46301  19.676  19.163  20.522 -0.2909  0.0163 -0.2055
 3886G1HFO Tail46302  19.614  19.382  20.559  0.3113  0.3324 -0.1372
 3887G1HFO Head46303  16.184  19.793  21.730 -0.1947  0.2407  0.2344
 3887G1HFO Head46304  16.490  19.774  21.727  0.0287  0.0608 -0.0424
 3887G1HFO Head46305  16.627  20.331  21.718 -0.0268 -0.1985 -0.2592
 3887G1HFO Head46306  16.495  20.125  21.537  0.1094  0.0895 -0.0221
 3887G1HFO link46307  16.625  19.901  21.549  0.0681 -0.6746 -0.0795
 3887G1HFO link46308  16.899  19.875  21.504  0.2779  0.2446  0.3147
 3887G1HFO Tail46309  17.026  19.735  21.247  0.2474 -0.1993  0.1571
 3887G1HFO Tail46310  16.832  19.454  21.222  0.0417  0.1699  0.0042
 3887G1HFO Tail46311  16.803  19.264  20.996 -0.5524  0.0302  0.1596
 3887G1HFO Tail46312  17.050  19.051  20.696 -0.0217 -0.2063 -0.4154
 3887G1HFO Tail46313  16.831  19.932  21.031  0.0076  0.0364 -0.4469
 3887G1HFO Tail46314  16.661  19.806  20.878  0.1328 -0.4161  0.7004
 3887G1HFO Tail46315  16.770  19.653  20.687 -0.0060  0.0360 -0.0713
 3887G1HFO Tail46316  16.892  19.487  20.542  0.1134  0.1029  0.0635
 3887G1HFO Tail46317  17.009  19.389  20.358  0.0085  0.1021 -0.0319
 3888G1HFO Head46318  18.776  17.070  17.868  0.1624 -0.1618 -0.0513
 3888G1HFO Head46319  18.770  17.362  17.709 -0.1671 -0.0051 -0.0761
 3888G1HFO Head46320  19.122  17.491  18.022 -0.0647  0.1345 -0.2391
 3888G1HFO Head46321  19.175  17.480  17.749  0.4990  0.2625 -0.2283
 3888G1HFO link46322  18.970  17.466  17.560 -0.2103  0.2041  0.1757
 3888G1HFO link46323  19.014  17.394  17.285 -0.3406  0.0098  0.4157
 3888G1HFO Tail46324  19.328  17.319  17.195  0.2345 -0.4872 -0.1791
 3888G1HFO Tail46325  19.291  17.440  16.865  0.2447  0.0936 -0.1124
 3888G1HFO Tail46326  19.360  17.714  16.734  0.3975  0.2517 -0.0720
 3888G1HFO Tail46327  19.131  18.074  16.657 -0.3079 -0.4121  0.2812
 3888G1HFO Tail46328  19.490  17.578  17.358 -0.3003  0.2488  0.4922
 3888G1HFO Tail46329  19.633  17.520  17.565  0.0665  0.0756 -0.0064
 3888G1HFO Tail46330  19.878  17.560  17.543 -0.1340  0.0839  0.0377
 3888G1HFO Tail46331  20.119  17.626  17.566  0.3688  0.1782 -0.1599
 3888G1HFO Tail46332  20.346  17.604  17.616 -0.2560 -0.1188 -0.0993
 3889LEFLG Drug46333  16.602  21.270  18.558  0.2282  0.1054  0.1672
 3889LEFLG Drug46334  16.878  21.293  18.457  0.2414 -0.2060  0.1296
 3889LEFLG Drug46335  16.934  21.145  18.571  0.1980  0.0558  0.4992
 3889LEFLG Drug46336  16.800  20.984  18.695 -0.0052 -0.1903  0.0231
 3889LEFLG Drug46337  16.820  20.996  18.966 -0.0475 -0.3011  0.0720
 3889LEFLG Drug46338  16.621  21.209  18.915  0.2412 -0.0673 -0.0959
 3889LEFLG Drug46339  16.715  21.054  19.149 -0.1888 -0.2350 -0.0288
 3889LEFLG Drug46340  16.530  21.125  19.257  0.8240 -1.0324 -0.7083
 3890LEFLG Drug46341  17.464  15.210  17.185  0.1204  0.1468 -0.0493
 3890LEFLG Drug46342  17.677  15.205  17.388 -0.3235  0.0186  0.4239
 3890LEFLG Drug46343  17.548  15.242  17.529 -0.6065  0.1492  0.1359
 3890LEFLG Drug46344  17.339  15.353  17.518  0.1151 -0.1180 -0.1485
 3890LEFLG Drug46345  17.309  15.538  17.315  0.1863 -0.0640  0.0289
 3890LEFLG Drug46346  17.058  15.585  17.465  0.3989 -0.1551  0.4186
 3890LEFLG Drug46347  17.207  15.719  17.247 -0.0154 -0.1330  0.1453
 3890LEFLG Drug46348  17.023  15.847  17.224 -0.5214  0.4335 -0.0848
 3891LEFLG Drug46349  14.969  16.308  19.848  0.5319 -0.2085  0.1747
 3891LEFLG Drug46350  15.114  16.561  19.811  0.0199  0.0752  0.0671
 3891LEFLG Drug46351  15.285  16.470  19.831  0.2058  0.4432  0.1991
 3891LEFLG Drug46352  15.340  16.255  19.908 -0.0305  0.0322  0.1266
 3891LEFLG Drug46353  15.474  16.086  19.750 -0.0384 -0.1179 -0.2015
 3891LEFLG Drug46354  15.521  15.964  20.016 -0.0223  0.0245 -0.1388
 3891LEFLG Drug46355  15.565  15.888  19.733  0.4388  0.0847 -0.0868
 3891LEFLG Drug46356  15.657  15.692  19.828  0.4213  0.0008  0.2648
 3892LEFLG Drug46357  17.784  19.263  17.466  0.0133 -0.1788 -0.3727
 3892LEFLG Drug46358  17.920  19.475  17.314 -0.1396  0.1241 -0.0927
 3892LEFLG Drug46359  17.841  19.411  17.148 -0.1103  0.2996 -0.1748
 3892LEFLG Drug46360  17.818  19.191  17.080 -0.1102 -0.3092  0.4447
 3892LEFLG Drug46361  17.575  19.138  16.974  0.3625 -0.0392 -0.0142
 3892LEFLG Drug46362  17.514  19.140  17.263 -0.4623  0.5403 -0.1741
 3892LEFLG Drug46363  17.361  19.114  17.012  0.1710  0.6287 -0.5802
 3892LEFLG Drug46364  17.199  19.056  17.158 -0.1441 -0.0875 -0.1876
 3893LEFLG Drug46365  16.565  14.021  17.847 -0.0119 -0.4534  0.0092
 3893LEFLG Drug46366  16.629  13.948  18.124 -0.1749 -0.1439  0.1302
 3893LEFLG Drug46367  16.446  13.892  18.156 -0.1805 -0.1590  0.0687
 3893LEFLG Drug46368  16.247  13.998  18.065  0.0719 -0.1936 -0.1280
 3893LEFLG Drug46369  16.154  14.184  18.234 -0.4679  0.1281  0.1566
 3893LEFLG Drug46370  16.103  14.303  17.968  0.1034 -0.2027 -0.1098
 3893LEFLG Drug46371  16.088  14.392  18.250 -0.3217  0.2101 -0.2570
 3893LEFLG Drug46372  15.999  14.577  18.150  0.0413 -0.0160  0.0228
 3894LEFLG Drug46373  14.480  16.468  18.599  0.0515  0.2848 -0.4083
 3894LEFLG Drug46374  14.224  16.324  18.623  0.3223 -0.1845 -0.2698
 3894LEFLG Drug46375  14.310  16.156  18.575  0.6878 -0.1146  0.1148
 3894LEFLG Drug46376  14.534  16.102  18.518 -0.1372 -0.0436 -0.0346
 3894LEFLG Drug46377  14.755  16.056  18.699  0.3367  0.2206  0.3421
 3894LEFLG Drug46378  14.608  15.800  18.722  0.4679  0.1291  0.1732
 3894LEFLG Drug46379  14.819  15.942  18.873  0.3028  0.1984  0.3403
 3894LEFLG Drug46380  14.842  15.737  18.984 -0.8429  0.0682  0.0128
 3895LEFLG Drug46381  18.634  17.769  16.262  0.3009  0.1208 -0.2076
 3895LEFLG Drug46382  18.753  18.033  16.209  0.1957  0.2364  0.1184
 3895LEFLG Drug46383  18.776  18.064  16.399 -0.3923  0.2786  0.1911
 3895LEFLG Drug46384  18.633  17.989  16.578  0.0242 -0.1661 -0.0899
 3895LEFLG Drug46385  18.608  17.742  16.637 -0.0240 -0.0108  0.1334
 3895LEFLG Drug46386  18.871  17.800  16.760 -0.1547 -0.1544  0.4883
 3895LEFLG Drug46387  18.686  17.569  16.747  0.0124 -0.2608 -0.2743
 3895LEFLG Drug46388  18.871  17.451  16.840  0.1307 -0.2670  0.3086
 3896LEFLG Drug46389  17.667  21.021  19.248  0.1003 -0.1991  0.1299
 3896LEFLG Drug46390  17.825  21.108  19.480  0.1974 -0.2538  0.0848
 3896LEFLG Drug46391  17.983  21.128  19.369 -0.0071  0.4002 -0.1050
 3896LEFLG Drug46392  18.018  21.141  19.133  0.3261 -0.4202  0.1599
 3896LEFLG Drug46393  17.975  20.896  19.019 -0.0085 -0.2457  0.2120
 3896LEFLG Drug46394  18.267  20.883  19.064 -0.0291 -0.4399  0.2945
 3896LEFLG Drug46395  18.061  20.712  18.939  0.0088  0.0385 -0.4508
 3896LEFLG Drug46396  18.244  20.564  18.909  0.3511 -0.3479 -0.1579
 3897LEFLG Drug46397  16.117  15.272  18.554 -0.0481 -0.2149 -0.1144
 3897LEFLG Drug46398  15.965  15.270  18.806 -0.0402  0.2833 -0.1014
 3897LEFLG Drug46399  15.993  15.078  18.824 -0.3877  0.2461  0.0652
 3897LEFLG Drug46400  15.997  14.923  18.648 -0.0152 -0.1202  0.0924
 3897LEFLG Drug46401  15.767  14.787  18.626 -0.1881  0.0974 -0.0240
 3897LEFLG Drug46402  15.830  14.828  18.340  0.3423 -0.5194 -0.0053
 3897LEFLG Drug46403  15.656  14.648  18.498  0.2544 -0.3618  0.0779
 3897LEFLG Drug46404  15.633  14.519  18.301  0.3561  0.2677  0.3701
 3898LEFLG Drug46405  17.944  16.793  20.397 -0.1144 -0.0494 -0.2019
 3898LEFLG Drug46406  17.719  16.870  20.570  0.1482 -0.2685  0.2465
 3898LEFLG Drug46407  17.802  16.782  20.723  0.3095 -0.6020 -0.0279
 3898LEFLG Drug46408  18.036  16.750  20.756 -0.1347 -0.1353  0.1994
 3898LEFLG Drug46409  18.127  16.525  20.662 -0.0773  0.0669  0.1660
 3898LEFLG Drug46410  18.374  16.686  20.640 -0.0724  0.0384  0.0092
 3898LEFLG Drug46411  18.300  16.401  20.612 -0.1020  0.0293  0.1735
 3898LEFLG Drug46412  18.519  16.376  20.526  0.0349  0.2112 -0.1035
 3899LEFLG Drug46413  19.321  16.170  16.349 -0.0460  0.2641 -0.4287
 3899LEFLG Drug46414  19.135  15.958  16.267  0.2417 -0.2966  0.3140
 3899LEFLG Drug46415  19.057  15.953  16.445  0.4446  0.0185  0.4150
 3899LEFLG Drug46416  19.128  16.045  16.638 -0.2657  0.1940 -0.1949
 3899LEFLG Drug46417  18.978  16.246  16.758 -0.3662  0.4390 -0.4677
 3899LEFLG Drug46418  19.206  16.409  16.664 -0.1621  0.3758 -0.0922
 3899LEFLG Drug46419  18.946  16.460  16.794 -0.1147  0.4045 -0.0086
 3899LEFLG Drug46420  18.975  16.681  16.737  0.1152 -0.7508  0.0329
 3900LEFLG Drug46421  17.091  14.707  18.235  0.1136  0.1494 -0.2655
 3900LEFLG Drug46422  17.381  14.693  18.286  0.0411 -0.7159 -0.0144
 3900LEFLG Drug46423  17.411  14.611  18.112 -0.0261 -0.5496 -0.1050
 3900LEFLG Drug46424  17.302  14.660  17.906 -0.2665  0.0114  0.1282
 3900LEFLG Drug46425  17.281  14.463  17.737 -0.0101  0.1753  0.4317
 3900LEFLG Drug46426  17.533  14.395  17.876 -0.3397 -1.0166  0.5007
 3900LEFLG Drug46427  17.351  14.262  17.685 -0.5238  0.1379 -0.1703
 3900LEFLG Drug46428  17.508  14.087  17.692  0.3117 -0.4411 -0.3329
 3901LEFLG Drug46429  16.719  19.810  20.234 -0.0236  0.1436 -0.3057
 3901LEFLG Drug46430  16.811  20.055  20.370 -0.0966  0.2499 -0.4475
 3901LEFLG Drug46431  16.918  20.104  20.215 -0.1750  0.2336 -0.5072
 3901LEFLG Drug46432  16.906  20.023  19.994 -0.0631 -0.2225  0.1278
 3901LEFLG Drug46433  16.960  19.751  19.975  0.2619  0.1597  0.5415
 3901LEFLG Drug46434  17.232  19.860  19.931  0.1122  0.3965  0.1904
 3901LEFLG Drug46435  17.113  19.596  19.992  0.3938  0.2161 -0.0283
 3901LEFLG Drug46436  17.331  19.521  20.025 -0.4105  0.1821  0.0154
 3902LEFLG Drug46437  15.138  18.809  17.352 -0.2183  0.1796  0.2478
 3902LEFLG Drug46438  15.139  18.900  17.072 -0.2223 -0.2538  0.1032
 3902LEFLG Drug46439  15.333  18.901  17.070 -0.2174  0.1600  0.2419
 3902LEFLG Drug46440  15.482  18.756  17.189  0.0344 -0.1477  0.3082
 3902LEFLG Drug46441  15.716  18.889  17.189  0.4874  0.1891 -0.0182
 3902LEFLG Drug46442  15.678  18.836  16.901 -0.1826  0.5451 -0.0036
 3902LEFLG Drug46443  15.878  18.975  17.070  0.2125  0.3338 -0.2908
 3902LEFLG Drug46444  16.003  18.975  16.871 -0.6020  0.7892 -0.4711
 3903LEFLG Drug46445  20.064  16.222  16.912  0.0908 -0.3781  0.0582
 3903LEFLG Drug46446  20.151  16.379  17.146 -0.4554  0.1997 -0.1123
 3903LEFLG Drug46447  19.995  16.320  17.247 -0.4738  0.1111 -0.1911
 3903LEFLG Drug46448  19.786  16.261  17.163  0.1200  0.3914  0.2572
 3903LEFLG Drug46449  19.588  16.190  17.335 -0.3564 -0.2649 -0.1442
 3903LEFLG Drug46450  19.728  16.398  17.492 -0.3677 -0.3184 -0.0632
 3903LEFLG Drug46451  19.479  16.239  17.518 -0.3347 -0.3765 -0.1009
 3903LEFLG Drug46452  19.457  16.382  17.714 -0.9129  0.6410 -0.6108
 3904LEFLG Drug46453  16.335  14.739  20.398 -0.3861  0.1585 -0.1207
 3904LEFLG Drug46454  16.597  14.871  20.419 -0.1654 -0.2489 -0.2615
 3904LEFLG Drug46455  16.527  15.029  20.331 -0.1443  0.1103  0.3402
 3904LEFLG Drug46456  16.308  15.122  20.306 -0.1013  0.3115 -0.0730
 3904LEFLG Drug46457  16.246  15.175  20.049 -0.1182  0.0051  0.2850
 3904LEFLG Drug46458  16.212  14.881  20.055 -0.2196  0.0155  0.2284
 3904LEFLG Drug46459  16.134  15.103  19.876  0.2097  0.0322  0.0564
 3904LEFLG Drug46460  16.087  14.932  19.717 -0.7126  0.1270 -0.1796
 3905LEFLG Drug46461  19.823  15.883  16.750 -0.3608  0.1745 -0.6178
 3905LEFLG Drug46462  19.879  15.631  16.608  0.2056 -0.1396  0.1340
 3905LEFLG Drug46463  19.743  15.539  16.713  0.1870 -0.0528  0.1874
 3905LEFLG Drug46464  19.558  15.635  16.835  0.1016  0.3320  0.2789
 3905LEFLG Drug46465  19.626  15.797  17.028 -0.2056  0.1640 -0.0914
 3905LEFLG Drug46466  19.638  15.535  17.165 -0.4769 -0.0874 -0.5383
 3905LEFLG Drug46467  19.648  15.819  17.245  0.0624 -0.2272 -0.0721
 3905LEFLG Drug46468  19.620  15.734  17.458  0.3224 -0.4886 -0.0301
 3906LEFLG Drug46469  16.082  19.273  18.337  0.2313  0.2039  0.4561
 3906LEFLG Drug46470  16.306  19.126  18.457  0.4497  0.2498  0.1126
 3906LEFLG Drug46471  16.342  19.036  18.289  0.1163  0.1480  0.0933
 3906LEFLG Drug46472  16.194  18.966  18.132 -0.0106  0.0926 -0.3561
 3906LEFLG Drug46473  16.157  19.098  17.908  0.1123 -0.1077  0.3010
 3906LEFLG Drug46474  16.343  19.288  18.037 -0.1246  0.1036  0.3345
 3906LEFLG Drug46475  16.178  19.283  17.792 -0.1492 -0.0436  0.3541
 3906LEFLG Drug46476  16.312  19.448  17.713 -0.3664 -0.5335  0.4064
 3907LEFLG Drug46477  19.361  17.149  17.588 -0.0205 -0.0548 -0.1538
 3907LEFLG Drug46478  19.171  16.942  17.497 -0.2500  0.1432 -0.1297
 3907LEFLG Drug46479  19.121  16.903  17.681 -0.1742  0.1086 -0.1161
 3907LEFLG Drug46480  19.230  16.958  17.887  0.0004  0.1388 -0.1006
 3907LEFLG Drug46481  19.492  16.921  17.911  0.3103  0.1335  0.1088
 3907LEFLG Drug46482  19.435  16.729  17.693  0.4938  0.0939  0.0947
 3907LEFLG Drug46483  19.674  16.861  17.807  0.3774  0.2538  0.1558
 3907LEFLG Drug46484  19.795  16.703  17.680  0.8482 -0.6010 -0.1080
 3908LEFLG Drug46485  15.685  19.146  20.044 -0.0918  0.0807  0.2251
 3908LEFLG Drug46486  15.979  19.127  20.042 -0.0985 -0.0480  0.4089
 3908LEFLG Drug46487  15.969  18.939  19.990 -0.1478 -0.0324  0.3617
 3908LEFLG Drug46488  15.807  18.834  19.845  0.1489  0.0886  0.1194
 3908LEFLG Drug46489  15.661  18.650  19.971  0.0018 -0.3150 -0.0122
 3908LEFLG Drug46490  15.453  18.785  19.811  0.0939 -0.2827 -0.1057
 3908LEFLG Drug46491  15.461  18.579  20.023 -0.0268 -0.3433 -0.1592
 3908LEFLG Drug46492  15.230  18.593  20.006 -0.5930  0.7109  0.1258
 3909LEFLG Drug46493  15.616  16.555  20.906 -0.1196 -0.1858  0.2583
 3909LEFLG Drug46494  15.602  16.564  21.200 -0.1793  0.8633  0.2396
 3909LEFLG Drug46495  15.409  16.588  21.193 -0.3393 -0.2361  0.1071
 3909LEFLG Drug46496  15.257  16.529  21.018 -0.3814 -0.1848  0.1479
 3909LEFLG Drug46497  15.214  16.742  20.857  0.2293  0.3281  0.2956
 3909LEFLG Drug46498  15.219  16.519  20.663 -0.0606  0.2589  0.3652
 3909LEFLG Drug46499  15.234  16.815  20.652  0.0234  0.2506  0.2471
 3909LEFLG Drug46500  15.251  16.782  20.421 -0.2403  0.1077  0.3322
 3910LEFLG Drug46501  18.255  15.282  18.878 -0.3232 -0.3065 -0.0563
 3910LEFLG Drug46502  18.537  15.207  18.843 -0.2183  0.0793 -0.0556
 3910LEFLG Drug46503  18.492  15.096  18.690 -0.0418  0.1496 -0.1611
 3910LEFLG Drug46504  18.293  15.021  18.606  0.5137  0.0648 -0.0200
 3910LEFLG Drug46505  18.189  14.785  18.702  0.0566 -0.3244  0.0052
 3910LEFLG Drug46506  18.469  14.714  18.639  0.1768  0.0961  0.0501
 3910LEFLG Drug46507  18.223  14.570  18.718  0.4212 -0.2576  0.1756
 3910LEFLG Drug46508  18.356  14.394  18.809 -0.0749  0.2224 -0.1347
 3911LEFLG Drug46509  16.858  21.208  17.655 -0.1558  0.2301 -0.1886
 3911LEFLG Drug46510  16.714  21.089  17.427 -0.2114 -0.4909  0.2087
 3911LEFLG Drug46511  16.807  20.920  17.453  0.2306 -0.2336  0.3605
 3911LEFLG Drug46512  16.938  20.841  17.633  0.2859 -0.2061  0.1951
 3911LEFLG Drug46513  16.803  20.812  17.861  0.2579  0.2201 -0.2000
 3911LEFLG Drug46514  17.074  20.725  17.940  0.1581  0.3925  0.3505
 3911LEFLG Drug46515  16.806  20.734  18.065 -0.1101  0.2062 -0.1971
 3911LEFLG Drug46516  16.923  20.671  18.267 -0.3462  0.3504  0.5140
 3912LEFLG Drug46517  19.428  18.565  18.959 -0.3164  0.4183  0.0230
 3912LEFLG Drug46518  19.570  18.746  19.143 -0.3233 -0.1404  0.5975
 3912LEFLG Drug46519  19.705  18.610  19.177 -0.0992 -0.1217 -0.1328
 3912LEFLG Drug46520  19.666  18.362  19.166  0.0974 -0.2163  0.3475
 3912LEFLG Drug46521  19.860  18.190  19.263 -0.0692 -0.6826  0.2245
 3912LEFLG Drug46522  19.881  18.413  19.455 -0.3431 -0.3989 -0.0701
 3912LEFLG Drug46523  20.051  18.187  19.370  0.1332 -0.0394 -0.0936
 3912LEFLG Drug46524  20.209  18.269  19.505 -0.0183 -0.0362 -0.3183
 3913LEFLG Drug46525  17.438  19.682  21.176 -0.1088 -0.0482 -0.1298
 3913LEFLG Drug46526  17.466  19.394  21.230 -0.1734  0.0975  0.7385
 3913LEFLG Drug46527  17.326  19.354  21.101 -0.2362 -0.2578  0.9117
 3913LEFLG Drug46528  17.208  19.504  20.950 -0.1083  0.1700 -0.2503
 3913LEFLG Drug46529  17.362  19.633  20.768  0.0380  0.2423  0.0764
 3913LEFLG Drug46530  17.344  19.370  20.634 -0.4926  0.5039 -0.3874
 3913LEFLG Drug46531  17.404  19.649  20.554  0.1145  0.5274  0.1104
 3913LEFLG Drug46532  17.422  19.558  20.331  0.0546 -0.1846 -0.6258
 3914LEFLG Drug46533  15.459  17.208  17.525 -0.0427  0.2508 -0.0247
 3914LEFLG Drug46534  15.306  16.972  17.610  0.0686  0.0524 -0.3670
 3914LEFLG Drug46535  15.469  16.880  17.660  0.0794  0.2746  0.0240
 3914LEFLG Drug46536  15.691  16.956  17.718 -0.2497  0.0345 -0.2796
 3914LEFLG Drug46537  15.886  16.828  17.580 -0.4739 -0.0070  0.1358
 3914LEFLG Drug46538  15.922  16.704  17.846 -0.1925 -0.0017  0.1008
 3914LEFLG Drug46539  16.004  16.644  17.569 -0.0875  0.2411  0.0781
 3914LEFLG Drug46540  16.135  16.496  17.673  0.1415  1.4759  0.1720
 3915LEFLG Drug46541  18.965  19.575  19.997  0.5362 -0.4912 -0.3526
 3915LEFLG Drug46542  18.932  19.796  19.806 -0.1327 -0.1274  0.1658
 3915LEFLG Drug46543  18.944  19.672  19.656 -0.2668  0.1980 -0.1199
 3915LEFLG Drug46544  19.043  19.457  19.659  0.2796  0.0857 -0.2134
 3915LEFLG Drug46545  18.922  19.277  19.494 -0.2300  0.3679 -0.4925
 3915LEFLG Drug46546  18.687  19.431  19.587 -0.1403  0.1910  0.0441
 3915LEFLG Drug46547  18.745  19.235  19.373 -0.6963 -0.3602  0.3832
 3915LEFLG Drug46548  18.518  19.266  19.322 -0.2335  0.3045  0.1453
 3916LEFLG Drug46549  19.004  14.220  17.882 -0.5412  0.4658  0.7667
 3916LEFLG Drug46550  19.188  14.449  17.854 -0.0360  0.0074  0.2105
 3916LEFLG Drug46551  19.071  14.530  17.722 -0.2043  0.2626  0.5084
 3916LEFLG Drug46552  18.879  14.451  17.606 -0.2906 -0.4048  0.2331
 3916LEFLG Drug46553  18.632  14.450  17.733 -0.3088 -0.0834 -0.2899
 3916LEFLG Drug46554  18.764  14.682  17.861  0.0847  0.0457 -0.9108
 3916LEFLG Drug46555  18.517  14.525  17.904  0.2690 -0.0045  0.0768
 3916LEFLG Drug46556  18.497  14.647  18.101 -0.6539  0.0872 -0.1488
 3917LEFLG Drug46557  19.260  15.441  17.158 -0.1295  0.0548 -0.4218
 3917LEFLG Drug46558  19.144  15.171  17.182  0.1213 -0.0184  0.0292
 3917LEFLG Drug46559  18.966  15.242  17.147  0.0738 -0.2603 -0.2362
 3917LEFLG Drug46560  18.883  15.456  17.215  0.0179 -0.3326  0.2813
 3917LEFLG Drug46561  18.615  15.480  17.224 -0.3296  0.0077 -0.2169
 3917LEFLG Drug46562  18.681  15.495  17.512 -0.0761  0.4829 -0.2968
 3917LEFLG Drug46563  18.450  15.563  17.340 -0.1688  0.3469 -0.2258
 3917LEFLG Drug46564  18.335  15.576  17.532  0.0353 -0.1056 -0.3063
 3918LEFLG Drug46565  15.443  15.034  19.602  0.0251  0.0652  0.2808
 3918LEFLG Drug46566  15.686  15.200  19.599  0.0094  0.0857 -0.0624
 3918LEFLG Drug46567  15.590  15.347  19.683  0.1067  0.0898  0.0432
 3918LEFLG Drug46568  15.394  15.342  19.822 -0.1095 -0.1951 -0.1292
 3918LEFLG Drug46569  15.221  15.546  19.803 -0.2396 -0.0665  0.1593
 3918LEFLG Drug46570  15.097  15.408  20.033 -0.0448 -0.3086  0.1208
 3918LEFLG Drug46571  15.013  15.608  19.832 -0.2243 -0.1151  0.3844
 3918LEFLG Drug46572  14.840  15.652  19.969 -0.9906  0.1881 -0.2264
 3919LEFLG Drug46573  20.661  16.284  16.435  0.0293 -0.2217 -0.0452
 3919LEFLG Drug46574  20.785  16.294  16.701 -0.0013 -0.4250 -0.0228
 3919LEFLG Drug46575  20.770  16.488  16.704  0.0124 -0.4259  0.1173
 3919LEFLG Drug46576  20.607  16.624  16.575 -0.4830 -0.3251 -0.0857
 3919LEFLG Drug46577  20.668  16.880  16.567 -0.1336  0.1605  0.1022
 3919LEFLG Drug46578  20.666  16.835  16.859  0.3785  0.1765  0.1119
 3919LEFLG Drug46579  20.746  17.053  16.675 -0.4695  0.3922 -0.0192
 3919LEFLG Drug46580  20.840  17.144  16.873  0.5645 -0.4117  0.3943
 3920LEFLG Drug46581  17.242  20.269  20.025 -0.1422 -0.6466 -0.3714
 3920LEFLG Drug46582  17.533  20.229  20.004  0.0244  0.2842 -0.0442
 3920LEFLG Drug46583  17.524  20.246  19.810  0.1790  0.2040 -0.0589
 3920LEFLG Drug46584  17.344  20.235  19.658 -0.7156  0.5227 -0.5595
 3920LEFLG Drug46585  17.366  20.384  19.429  0.2385  0.6416 -0.4075
 3920LEFLG Drug46586  17.284  20.120  19.324 -0.4923  0.5008  0.4624
 3920LEFLG Drug46587  17.308  20.395  19.219 -0.2528  0.1982 -0.3057
 3920LEFLG Drug46588  17.209  20.303  19.044  0.7712 -0.5587  0.3004
 3921LEFLG Drug46589  19.461  18.099  17.461  0.1825 -0.1169 -0.2646
 3921LEFLG Drug46590  19.712  17.946  17.441  0.2617  0.0572 -0.6472
 3921LEFLG Drug46591  19.714  17.969  17.248  0.0095  0.1540 -0.6406
 3921LEFLG Drug46592  19.549  18.045  17.107 -0.1238  0.2508 -0.0966
 3921LEFLG Drug46593  19.367  17.856  17.086  0.1890  0.0826  0.4098
 3921LEFLG Drug46594  19.208  18.087  17.180  0.2794  0.3756 -0.1379
 3921LEFLG Drug46595  19.153  17.824  17.056  0.2046  0.3119  0.0277
 3921LEFLG Drug46596  18.931  17.866  17.118 -0.3265  0.1951  0.1122
 3922LEFLG Drug46597  20.552  15.533  17.951 -0.3981 -0.0396  0.0148
 3922LEFLG Drug46598  20.326  15.356  17.886 -0.1136 -0.2495 -0.4294
 3922LEFLG Drug46599  20.216  15.509  17.839 -0.3927 -0.2930  0.0526
 3922LEFLG Drug46600  20.286  15.734  17.768 -0.0198 -0.1461 -0.3976
 3922LEFLG Drug46601  20.106  15.864  17.626  0.2473  0.5680  0.2492
 3922LEFLG Drug46602  19.961  15.805  17.877 -0.3510 -0.0302 -0.2193
 3922LEFLG Drug46603  19.917  15.971  17.636  0.1001  0.3445 -0.0514
 3922LEFLG Drug46604  19.707  15.998  17.710 -0.0126  0.1732 -0.5771
 3923LEFLG Drug46605  18.328  14.226  20.985 -0.3680 -0.1314 -0.2068
 3923LEFLG Drug46606  18.436  14.292  20.720 -0.2853 -0.3081 -0.2178
 3923LEFLG Drug46607  18.261  14.353  20.660 -0.1383  0.2443 -0.1105
 3923LEFLG Drug46608  18.055  14.376  20.790  0.1761  0.5208  0.1846
 3923LEFLG Drug46609  17.869  14.513  20.654  0.2626  0.3696  0.8534
 3923LEFLG Drug46610  18.114  14.620  20.525 -0.0085  0.0506  0.0477
 3923LEFLG Drug46611  17.834  14.709  20.564 -0.0709 -0.0898 -0.0742
 3923LEFLG Drug46612  17.915  14.929  20.521 -0.2902  0.1000  0.2633
 3924LEFLG Drug46613  18.862  18.139  19.343  0.2903 -0.1758  0.2941
 3924LEFLG Drug46614  19.092  18.066  19.175 -0.0257  0.1608 -0.2970
 3924LEFLG Drug46615  19.193  18.218  19.241  0.4193 -0.4419  0.4981
 3924LEFLG Drug46616  19.163  18.345  19.429  0.0632 -0.0737  0.3271
 3924LEFLG Drug46617  19.296  18.247  19.640  0.0138 -0.5185 -0.0969
 3924LEFLG Drug46618  19.485  18.456  19.549 -0.3692  0.0634  0.4080
 3924LEFLG Drug46619  19.485  18.238  19.750 -0.1776 -0.0485  0.2877
 3924LEFLG Drug46620  19.692  18.331  19.823  0.3562 -0.0884  1.6045
 3925LEFLG Drug46621  17.593  14.263  19.996 -0.1115 -0.3075 -0.1811
 3925LEFLG Drug46622  17.605  14.382  19.727 -0.0774  0.1613  0.0243
 3925LEFLG Drug46623  17.788  14.440  19.758  0.1162 -0.3809 -0.0502
 3925LEFLG Drug46624  17.903  14.468  19.963  0.0215  0.0254  0.3730
 3925LEFLG Drug46625  18.117  14.634  19.978  0.4000 -0.2459  0.2858
 3925LEFLG Drug46626  17.980  14.682  20.235  0.0656  0.2713  0.0189
 3925LEFLG Drug46627  18.238  14.758  20.112  0.2285  0.0181  0.1993
 3925LEFLG Drug46628  18.299  14.829  20.324 -0.3694  0.1976  0.2207
 3926LEFLG Drug46629  18.287  20.711  20.250 -0.3973 -0.1333 -0.6028
 3926LEFLG Drug46630  18.154  20.798  20.498  0.3534 -0.4441 -0.0734
 3926LEFLG Drug46631  18.018  20.660  20.476 -0.0060 -0.0899 -0.1202
 3926LEFLG Drug46632  17.960  20.519  20.296 -0.4986 -0.2225 -0.4211
 3926LEFLG Drug46633  17.700  20.527  20.237  0.0815  0.1412  0.0681
 3926LEFLG Drug46634  17.820  20.527  19.967 -0.1643 -0.4726 -0.0495
 3926LEFLG Drug46635  17.553  20.576  20.083  0.1252  0.6647  0.1876
 3926LEFLG Drug46636  17.504  20.607  19.853  0.7571 -0.8194  0.1171
 3927LEFLG Drug46637  17.146  16.936  16.797 -0.0924  0.3443 -0.4698
 3927LEFLG Drug46638  17.314  17.101  16.620  0.3494  0.2867 -0.1121
 3927LEFLG Drug46639  17.464  16.979  16.644  0.1797  0.0987  0.0142
 3927LEFLG Drug46640  17.451  16.741  16.654  0.1675  0.2060 -0.1408
 3927LEFLG Drug46641  17.562  16.573  16.454  0.0335  0.4947 -0.6097
 3927LEFLG Drug46642  17.810  16.654  16.593 -0.0213 -0.1826 -0.0949
 3927LEFLG Drug46643  17.740  16.508  16.345  0.0888  0.0836 -0.2848
 3927LEFLG Drug46644  17.966  16.492  16.326  0.6757 -0.4893  0.3290
 3928LEFLG Drug46645  19.906  15.442  18.022 -0.0421  0.1454  0.1739
 3928LEFLG Drug46646  20.121  15.339  18.196  0.1958 -0.3778 -0.4129
 3928LEFLG Drug46647  19.990  15.252  18.311  0.2421  0.3362  0.2180
 3928LEFLG Drug46648  19.764  15.260  18.312  0.4211  0.3529 -0.1339
 3928LEFLG Drug46649  19.635  15.490  18.320  0.2746  0.0777  0.2618
 3928LEFLG Drug46650  19.474  15.351  18.115  0.4458  0.5199 -0.1820
 3928LEFLG Drug46651  19.454  15.602  18.271  0.4043  0.2723  0.2167
 3928LEFLG Drug46652  19.275  15.658  18.123 -0.0873 -0.2220 -0.2771
 3929LEFLG Drug46653  19.386  17.405  16.274  0.5875 -0.1708 -0.2212
 3929LEFLG Drug46654  19.480  17.131  16.330  0.2088 -0.2552  0.0229
 3929LEFLG Drug46655  19.309  17.086  16.412 -0.0957 -0.1483 -0.5310
 3929LEFLG Drug46656  19.157  17.234  16.506  0.0265 -0.3975 -0.0838
 3929LEFLG Drug46657  18.958  17.108  16.640 -0.2115 -0.0086 -0.3812
 3929LEFLG Drug46658  18.816  17.284  16.449  0.2226  0.4293 -0.3108
 3929LEFLG Drug46659  18.742  17.098  16.667 -0.2377  0.7248 -0.2080
 3929LEFLG Drug46660  18.538  17.173  16.622  0.4438 -0.2799  0.2892
 3930LEFLG Drug46661  18.571  16.996  17.006 -0.1199 -0.2046  0.0617
 3930LEFLG Drug46662  18.519  17.281  16.954 -0.0966 -0.1610  0.2756
 3930LEFLG Drug46663  18.327  17.248  16.950 -0.0817 -0.2158 -0.1610
 3930LEFLG Drug46664  18.202  17.078  17.053  0.0564 -0.3009  0.1729
 3930LEFLG Drug46665  17.965  17.019  16.933  0.2224  0.2485  0.1184
 3930LEFLG Drug46666  18.019  16.771  17.085  0.0059  0.2490  0.1973
 3930LEFLG Drug46667  17.810  16.868  16.900 -0.0143  0.4443  0.3218
 3930LEFLG Drug46668  17.705  16.665  16.951 -0.8039  0.4560 -0.0926
 3931LEFLG Drug46669  15.838  19.958  18.902 -0.1053  0.0359  0.3463
 3931LEFLG Drug46670  15.611  20.132  18.832  0.0643  0.0972 -0.0691
 3931LEFLG Drug46671  15.562  20.015  18.685  0.5077  0.2972 -0.3861
 3931LEFLG Drug46672  15.629  19.798  18.619  0.3876 -0.1247 -0.1960
 3931LEFLG Drug46673  15.894  19.795  18.572  0.3665 -0.5027 -0.0638
 3931LEFLG Drug46674  15.786  19.708  18.311  0.0335 -0.2373 -0.0181
 3931LEFLG Drug46675  16.052  19.722  18.440  0.2135 -0.2801 -0.3771
 3931LEFLG Drug46676  16.110  19.583  18.263 -0.0286 -0.6093 -0.3284
 3932LEFLG Drug46677  14.392  16.165  20.575  0.0429 -0.3764 -0.1821
 3932LEFLG Drug46678  14.226  16.181  20.333  0.0953  0.1527 -0.1893
 3932LEFLG Drug46679  14.290  16.361  20.297  0.1106  0.2319  0.2122
 3932LEFLG Drug46680  14.442  16.506  20.414  0.0233  0.4183 -0.1182
 3932LEFLG Drug46681  14.551  16.644  20.227  0.2529 -0.0904  0.3010
 3932LEFLG Drug46682  14.392  16.855  20.360  0.0013 -0.0473 -0.0610
 3932LEFLG Drug46683  14.577  16.837  20.129  0.2929 -0.1577  0.1775
 3932LEFLG Drug46684  14.550  17.068  20.126 -1.0447  0.1027 -0.4967
 3933LEFLG Drug46685  16.221  16.178  17.714  0.5427  0.1941  0.5253
 3933LEFLG Drug46686  16.114  16.237  17.981 -0.4108  0.1036  0.1780
 3933LEFLG Drug46687  16.055  16.052  18.001 -0.2667  0.0372  0.0036
 3933LEFLG Drug46688  16.125  15.856  17.890  0.5883  0.3574 -0.2762
 3933LEFLG Drug46689  16.022  15.844  17.643  0.6200  0.2451 -0.0638
 3933LEFLG Drug46690  16.139  15.573  17.672  0.4089  0.2057  0.4724
 3933LEFLG Drug46691  16.012  15.731  17.456  0.3302 -0.2041  0.2151
 3933LEFLG Drug46692  15.995  15.534  17.347  0.0897  0.0595 -0.0378
 3934LEFLG Drug46693  16.938  14.534  16.113 -0.2395 -0.0043 -0.2213
 3934LEFLG Drug46694  16.827  14.779  16.232 -0.2357 -0.3074  0.4254
 3934LEFLG Drug46695  17.006  14.851  16.259 -0.2462 -0.1290  0.0544
 3934LEFLG Drug46696  17.213  14.751  16.204  0.2908 -0.0766 -0.0458
 3934LEFLG Drug46697  17.434  14.842  16.334 -0.0621 -0.1396  0.2944
 3934LEFLG Drug46698  17.233  15.041  16.420 -0.3987 -0.4144  0.1550
 3934LEFLG Drug46699  17.501  14.953  16.509 -0.1125  0.3076  0.0365
 3934LEFLG Drug46700  17.442  15.045  16.705 -0.1725 -0.4488 -0.0206
 3935LEFLG Drug46701  14.369  17.871  20.045 -0.1787 -0.0341  0.0309
 3935LEFLG Drug46702  14.138  17.782  20.204 -0.0468  0.2236  0.3732
 3935LEFLG Drug46703  14.236  17.813  20.369  0.0270  0.6761  0.2518
 3935LEFLG Drug46704  14.441  17.916  20.403 -0.2103  0.1313 -0.2472
 3935LEFLG Drug46705  14.635  17.786  20.526  0.1853 -0.3349 -0.4186
 3935LEFLG Drug46706  14.449  17.564  20.467 -0.5016  0.0584  0.1940
 3935LEFLG Drug46707  14.696  17.601  20.625 -0.1968 -0.3391 -0.1804
 3935LEFLG Drug46708  14.689  17.374  20.627  0.5653  0.2799 -0.3200
 3936LEFLG Drug46709  18.584  16.668  16.814  0.0062  0.4002  0.2852
 3936LEFLG Drug46710  18.375  16.631  17.017 -0.0413 -0.4619  0.0963
 3936LEFLG Drug46711  18.507  16.646  17.160 -0.1972 -0.1462  0.2099
 3936LEFLG Drug46712  18.747  16.590  17.135  0.2102 -0.0772 -0.1902
 3936LEFLG Drug46713  18.776  16.328  17.119 -0.3102 -0.0536  0.1584
 3936LEFLG Drug46714  18.577  16.370  16.906 -0.1974 -0.1531  0.0328
 3936LEFLG Drug46715  18.759  16.153  16.989 -0.0145  0.0031  0.0406
 3936LEFLG Drug46716  18.682  16.055  16.784 -0.9206  0.2878 -0.2201
 3937LEFLG Drug46717  16.194  15.744  20.709  0.1084  0.1041 -0.1620
 3937LEFLG Drug46718  16.434  15.819  20.556 -0.0538  0.2665 -0.3402
 3937LEFLG Drug46719  16.385  15.697  20.413  0.2250 -0.2131 -0.0378
 3937LEFLG Drug46720  16.189  15.577  20.377  0.1997  0.0866  0.4435
 3937LEFLG Drug46721  16.093  15.447  20.579  0.1796 -0.1051 -0.3021
 3937LEFLG Drug46722  15.915  15.357  20.361  0.2413 -0.0847 -0.3611
 3937LEFLG Drug46723  15.958  15.289  20.645 -0.1606  0.2133 -0.2253
 3937LEFLG Drug46724  15.811  15.117  20.598 -0.4017 -0.1710  0.0301
 3938LEFLG Drug46725  16.430  19.477  18.419 -0.2381 -0.3409 -0.6021
 3938LEFLG Drug46726  16.609  19.297  18.568 -0.2342  0.2678  0.1560
 3938LEFLG Drug46727  16.765  19.373  18.478 -0.2231  0.0015 -0.0554
 3938LEFLG Drug46728  16.768  19.485  18.266  0.0383 -0.0914 -0.5830
 3938LEFLG Drug46729  16.900  19.719  18.246  0.0057 -0.0731  0.1028
 3938LEFLG Drug46730  17.012  19.628  18.504  0.1229  0.3095  0.1885
 3938LEFLG Drug46731  17.076  19.834  18.302 -0.0030  0.0506 -0.1202
 3938LEFLG Drug46732  17.242  19.888  18.443 -0.4677 -0.5817  0.0708
 3939LEFLG Drug46733  17.416  16.743  21.353  0.0840 -0.3445 -0.0918
 3939LEFLG Drug46734  17.621  16.815  21.553 -0.0660 -0.5221  0.1278
 3939LEFLG Drug46735  17.610  17.002  21.501  0.2311 -0.5275  0.0390
 3939LEFLG Drug46736  17.477  17.119  21.346 -0.0264  0.3536  0.3209
 3939LEFLG Drug46737  17.265  17.246  21.467 -0.5257 -0.2688 -0.0916
 3939LEFLG Drug46738  17.164  17.212  21.191 -0.2687  0.2620 -0.2559
 3939LEFLG Drug46739  17.082  17.360  21.434 -0.5055 -0.2201 -0.0368
 3939LEFLG Drug46740  16.921  17.446  21.290 -0.2215 -0.0610 -0.4084
 3940LEFLG Drug46741  19.319  18.658  18.072  0.1567  0.0847 -0.4275
 3940LEFLG Drug46742  19.446  18.443  18.227 -0.3338  0.0752 -0.0271
 3940LEFLG Drug46743  19.612  18.544  18.238 -0.0644 -0.3200 -0.3100
 3940LEFLG Drug46744  19.682  18.733  18.105  0.3125  0.1494 -0.4600
 3940LEFLG Drug46745  19.516  18.943  18.088 -0.0713  0.5104 -0.3425
 3940LEFLG Drug46746  19.743  19.059  18.238 -0.1876  0.2961  0.0056
 3940LEFLG Drug46747  19.501  19.160  18.100 -0.0182  0.5039 -0.1421
 3940LEFLG Drug46748  19.594  19.374  18.137 -0.9506  0.6227  0.5668
 3941LEFLG Drug46749  17.059  19.211  19.746 -0.1640 -0.2931  0.0075
 3941LEFLG Drug46750  17.124  19.182  19.461 -0.2026  0.1494 -0.0494
 3941LEFLG Drug46751  17.271  19.063  19.503 -0.2564  0.0063 -0.2589
 3941LEFLG Drug46752  17.349  18.978  19.710 -0.0891 -0.0887 -0.2796
 3941LEFLG Drug46753  17.363  19.169  19.908  0.6427  0.2843 -0.0025
 3941LEFLG Drug46754  17.421  18.932  20.075  0.0022  0.3455  0.3184
 3941LEFLG Drug46755  17.311  19.203  20.117  0.1419  0.4802 -0.1540
 3941LEFLG Drug46756  17.336  19.144  20.340 -0.5143 -0.2396 -0.2482
 3942LEFLG Drug46757  18.448  14.921  17.951 -0.2611 -0.3665  0.3512
 3942LEFLG Drug46758  18.288  15.152  17.866  0.1492 -0.2811 -0.2140
 3942LEFLG Drug46759  18.204  15.163  18.041  0.1427  0.2795 -0.2422
 3942LEFLG Drug46760  18.162  14.985  18.213 -0.2432  0.6837  0.5958
 3942LEFLG Drug46761  18.141  14.733  18.107 -0.4119  0.4090 -0.2995
 3942LEFLG Drug46762  18.107  14.688  18.397  0.0365  0.0921 -0.2925
 3942LEFLG Drug46763  18.087  14.526  18.150 -0.1155  0.3044 -0.4213
 3942LEFLG Drug46764  18.024  14.362  18.303 -0.5479 -0.3667  0.2184
 3943LEFLG Drug46765  15.759  18.581  18.366  0.1385  0.0339  0.1326
 3943LEFLG Drug46766  15.953  18.439  18.195 -0.2562 -0.2242 -0.1109
 3943LEFLG Drug46767  15.919  18.563  18.049 -0.2120 -0.1259 -0.0389
 3943LEFLG Drug46768  15.782  18.760  18.038  0.0688  0.6013 -0.0157
 3943LEFLG Drug46769  15.793  18.917  18.262 -0.5320 -0.1465 -0.1477
 3943LEFLG Drug46770  15.500  18.896  18.228 -0.5909 -0.0213  0.2543
 3943LEFLG Drug46771  15.685  19.020  18.422 -0.2696 -0.2100  0.0729
 3943LEFLG Drug46772  15.486  19.096  18.532  0.8263  0.7850  0.0106
 3944LEFLG Drug46773  15.100  16.361  19.370 -0.3856  0.2123 -0.2559
 3944LEFLG Drug46774  15.206  16.627  19.302 -0.1590  0.2171  0.1049
 3944LEFLG Drug46775  15.059  16.713  19.395  0.0297  0.2215  0.4058
 3944LEFLG Drug46776  14.888  16.619  19.521 -0.4977 -0.0424  0.2943
 3944LEFLG Drug46777  14.697  16.517  19.372 -0.2373  0.4774  0.4406
 3944LEFLG Drug46778  14.709  16.314  19.587 -0.1549 -0.2473 -0.2295
 3944LEFLG Drug46779  14.529  16.377  19.360 -0.2378  0.5076  0.0328
 3944LEFLG Drug46780  14.425  16.192  19.430  0.3380  0.2778  0.4203
 3945LEFLG Drug46781  17.007  14.585  17.577  0.1200  0.1259 -0.1637
 3945LEFLG Drug46782  16.862  14.841  17.583 -0.0318  0.0370 -0.0080
 3945LEFLG Drug46783  16.692  14.748  17.564 -0.0185 -0.0847  0.4203
 3945LEFLG Drug46784  16.654  14.511  17.564  0.2221  0.1493 -0.3794
 3945LEFLG Drug46785  16.411  14.437  17.461 -0.2586  0.1733  0.1752
 3945LEFLG Drug46786  16.396  14.294  17.720 -0.4558 -0.1003  0.0141
 3945LEFLG Drug46787  16.206  14.379  17.509 -0.2344 -0.3007 -0.2683
 3945LEFLG Drug46788  16.057  14.283  17.655  0.0319  0.1499  0.6639
 3946LEFLG Drug46789  19.511  17.683  18.989  0.1845 -0.1584  0.0827
 3946LEFLG Drug46790  19.384  17.418  18.997 -0.3428  0.0654 -0.4563
 3946LEFLG Drug46791  19.554  17.332  18.956 -0.2850 -0.2446  0.3479
 3946LEFLG Drug46792  19.755  17.430  18.860 -0.2436  0.1000 -0.1890
 3946LEFLG Drug46793  19.949  17.250  18.820  0.1821  0.4222  0.0748
 3946LEFLG Drug46794  20.105  17.488  18.902  0.5299  0.1228  0.2937
 3946LEFLG Drug46795  20.164  17.210  18.819  0.1180  0.0641  0.1895
 3946LEFLG Drug46796  20.381  17.289  18.821 -0.4435  0.4839  0.6756
 3947LEFLG Drug46797  16.321  19.107  19.584 -0.4050  0.4162  0.1927
 3947LEFLG Drug46798  16.190  18.896  19.742  0.0565 -0.1824 -0.2056
 3947LEFLG Drug46799  16.318  18.921  19.887  0.1641 -0.3668 -0.2676
 3947LEFLG Drug46800  16.514  19.056  19.896  0.2653  0.0731  0.0434
 3947LEFLG Drug46801  16.636  19.081  20.140  0.0060  0.1718  0.0918
 3947LEFLG Drug46802  16.871  19.022  19.971 -0.0779 -0.3833  0.1621
 3947LEFLG Drug46803  16.808  19.018  20.259 -0.1108 -0.0140  0.1625
 3947LEFLG Drug46804  17.023  18.936  20.274 -0.6279  0.3522 -0.1563
 3948LEFLG Drug46805  17.179  16.033  21.511 -0.1287  0.2645  0.1155
 3948LEFLG Drug46806  17.116  16.081  21.795  0.1179  0.2393  0.1746
 3948LEFLG Drug46807  17.081  15.891  21.822  0.0907  0.2450  0.1766
 3948LEFLG Drug46808  17.152  15.706  21.696 -0.0098 -0.4796  0.1231
 3948LEFLG Drug46809  17.063  15.685  21.447 -0.1604 -0.0767  0.4765
 3948LEFLG Drug46810  16.853  15.863  21.554 -0.2081  0.0170  0.2281
 3948LEFLG Drug46811  16.944  15.773  21.287 -0.1958 -0.3452  0.3522
 3948LEFLG Drug46812  16.799  15.944  21.218 -0.2001  0.2250  0.1911
 3949LEFLG Drug46813  18.645  19.099  17.584 -0.0825  0.0945  0.1007
 3949LEFLG Drug46814  18.833  18.872  17.585 -0.4752 -0.2371  0.1075
 3949LEFLG Drug46815  18.862  18.891  17.394 -0.0031  0.0831  0.2036
 3949LEFLG Drug46816  18.695  18.945  17.219 -0.1191  0.1702 -0.1281
 3949LEFLG Drug46817  18.519  18.763  17.155  0.1063 -0.4898 -0.1650
 3949LEFLG Drug46818  18.389  19.010  17.057  0.5270 -0.4114 -0.5406
 3949LEFLG Drug46819  18.305  18.733  17.117 -0.0094 -0.1132  0.1570
 3949LEFLG Drug46820  18.121  18.783  16.984  0.7950  0.0903  0.1280
 3950LEFLG Drug46821  15.977  14.808  19.058 -0.0756 -0.3843  0.7337
 3950LEFLG Drug46822  16.002  15.068  19.194  0.0098 -0.0100  0.0218
 3950LEFLG Drug46823  15.810  15.099  19.176  0.0337  0.0483 -0.1436
 3950LEFLG Drug46824  15.622  14.944  19.154 -0.4732 -0.4475 -0.1926
 3950LEFLG Drug46825  15.624  14.774  18.954  0.3825  0.3404  0.3214
 3950LEFLG Drug46826  15.692  14.599  19.182  0.2971  0.1090  0.1715
 3950LEFLG Drug46827  15.644  14.565  18.892 -0.2976  0.2876  0.2424
 3950LEFLG Drug46828  15.721  14.359  18.941 -0.3484  0.3545 -0.3503
 3951LEFLG Drug46829  18.198  15.983  18.303 -0.4579  0.3586 -0.1428
 3951LEFLG Drug46830  18.161  15.739  18.143 -0.2717  0.1687  0.0991
 3951LEFLG Drug46831  18.155  15.843  17.979 -0.5196  0.0190  0.0092
 3951LEFLG Drug46832  18.202  16.075  17.936 -0.0179 -0.2072  0.1291
 3951LEFLG Drug46833  18.447  16.181  17.956 -0.4049  0.1572 -0.2607
 3951LEFLG Drug46834  18.464  16.050  17.691  0.1127 -0.2387 -0.0393
 3951LEFLG Drug46835  18.621  16.250  17.842 -0.3582  0.2251 -0.1489
 3951LEFLG Drug46836  18.771  16.206  17.669 -0.9088  0.5116 -0.2174
 3952LEFLG Drug46837  16.381  13.237  18.484  0.0223 -0.2410 -0.1652
 3952LEFLG Drug46838  16.617  13.130  18.622 -0.1696 -0.4286  0.0200
 3952LEFLG Drug46839  16.602  13.266  18.760 -0.0602 -0.3018 -0.0927
 3952LEFLG Drug46840  16.439  13.433  18.797  0.1644 -0.2872 -0.0535
 3952LEFLG Drug46841  16.188  13.381  18.739  0.3010  0.3278  0.2510
 3952LEFLG Drug46842  16.151  13.555  18.974 -0.1089  0.3594  0.1682
 3952LEFLG Drug46843  15.984  13.458  18.751  0.1278 -0.1041  0.1859
 3952LEFLG Drug46844  15.809  13.558  18.868  0.3767 -0.6396 -0.1009
 3953LEFLG Drug46845  18.629  19.772  16.365 -0.3173 -0.0332  0.3831
 3953LEFLG Drug46846  18.446  19.732  16.138  0.1547  0.2456 -0.0561
 3953LEFLG Drug46847  18.452  19.539  16.163 -0.1863  0.2334 -0.0461
 3953LEFLG Drug46848  18.641  19.415  16.220 -0.1672  0.1102  0.3380
 3953LEFLG Drug46849  18.582  19.220  16.394 -0.0252  0.1053 -0.2074
 3953LEFLG Drug46850  18.375  19.424  16.451  0.0208  0.0998 -0.0190
 3953LEFLG Drug46851  18.438  19.150  16.543  0.0169  0.0385 -0.1982
 3953LEFLG Drug46852  18.267  19.195  16.694 -0.0991  0.5684  0.1027
 3954LEFLG Drug46853  19.151  16.366  19.208  0.3489  0.2579  0.0293
 3954LEFLG Drug46854  19.009  16.533  19.012  0.1003  0.0648  0.0425
 3954LEFLG Drug46855  18.984  16.673  19.145  0.0829  0.1076 -0.0055
 3954LEFLG Drug46856  19.105  16.708  19.349 -0.1064  0.1936  0.5812
 3954LEFLG Drug46857  19.269  16.917  19.342 -0.0967  0.3426 -0.3713
 3954LEFLG Drug46858  19.391  16.737  19.142  0.4240 -0.1315  0.3495
 3954LEFLG Drug46859  19.453  17.001  19.260  0.3452 -0.0425  0.1943
 3954LEFLG Drug46860  19.608  17.013  19.089  0.6025  0.6925  0.0018
 3955LEFLG Drug46861  18.233  18.700  19.674 -0.0815  0.0272  0.0672
 3955LEFLG Drug46862  18.181  18.545  19.918  0.1927 -0.2307 -0.0349
 3955LEFLG Drug46863  18.205  18.704  20.028 -0.3980 -0.1864  0.0460
 3955LEFLG Drug46864  18.139  18.929  19.962 -0.4486  0.3768  0.1105
 3955LEFLG Drug46865  17.879  18.993  19.966  0.0169 -0.1370 -0.2081
 3955LEFLG Drug46866  17.997  19.259  19.909 -0.0366 -0.0061  0.2699
 3955LEFLG Drug46867  17.739  19.155  20.011  0.0778 -0.2277  0.3369
 3955LEFLG Drug46868  17.665  19.374  19.961  0.4428 -0.5346  0.0579
 3956LEFLG Drug46869  15.136  18.293  18.207  0.3037 -0.1180  0.3508
 3956LEFLG Drug46870  15.370  18.277  18.386  0.3536 -0.0863  0.2890
 3956LEFLG Drug46871  15.469  18.401  18.273  0.2677  0.0121  0.3205
 3956LEFLG Drug46872  15.387  18.564  18.139  0.0632  0.1253  0.2452
 3956LEFLG Drug46873  15.203  18.476  17.960  0.0502 -0.0423  0.0098
 3956LEFLG Drug46874  15.288  18.733  17.841  0.1879 -0.2119 -0.2625
 3956LEFLG Drug46875  15.068  18.540  17.800  0.1268 -0.1752 -0.1090
 3956LEFLG Drug46876  14.992  18.698  17.651 -0.8395  0.2374 -0.1044
 3957LEFLG Drug46877  16.845  18.731  17.082  0.3944  0.2278  0.1272
 3957LEFLG Drug46878  16.716  18.502  17.215  0.0149  0.3592 -0.0092
 3957LEFLG Drug46879  16.887  18.412  17.232 -0.1513  0.0020 -0.1842
 3957LEFLG Drug46880  17.069  18.423  17.085 -0.1138 -0.1197  0.0393
 3957LEFLG Drug46881  17.194  18.658  17.089 -0.4041 -0.1545 -0.0210
 3957LEFLG Drug46882  17.419  18.467  17.070 -0.2541  0.0133  0.0611
 3957LEFLG Drug46883  17.384  18.761  17.057 -0.4051  0.0178  0.4766
 3957LEFLG Drug46884  17.587  18.764  16.953 -0.1572  0.3996 -0.1763
 3958LEFLG Drug46885  17.301  14.927  19.603  0.2372  0.3554 -0.2964
 3958LEFLG Drug46886  17.274  14.846  19.321 -0.2957  0.3331 -0.2448
 3958LEFLG Drug46887  17.089  14.794  19.350 -0.1452  0.0153  0.1940
 3958LEFLG Drug46888  17.005  14.689  19.551  0.1264  0.1994 -0.2233
 3958LEFLG Drug46889  16.739  14.754  19.587  0.0305 -0.0733 -0.1573
 3958LEFLG Drug46890  16.753  14.505  19.746  0.2118 -0.1211 -0.2472
 3958LEFLG Drug46891  16.552  14.715  19.692  0.1432 -0.1144  0.0295
 3958LEFLG Drug46892  16.432  14.614  19.857 -0.1800 -0.2037 -0.1132
 3959LEFLG Drug46893  14.576  18.159  18.497  0.0316  0.3227 -0.0652
 3959LEFLG Drug46894  14.469  18.331  18.710  0.0551 -0.0392  0.2425
 3959LEFLG Drug46895  14.366  18.183  18.782  0.2437 -0.2217  0.1415
 3959LEFLG Drug46896  14.286  17.981  18.678 -0.0027  0.2065  0.3618
 3959LEFLG Drug46897  14.441  17.762  18.746 -0.1103  0.0096 -0.0365
 3959LEFLG Drug46898  14.622  17.983  18.822  0.0800 -0.1071 -0.1476
 3959LEFLG Drug46899  14.614  17.689  18.857  0.0099 -0.1247 -0.3069
 3959LEFLG Drug46900  14.822  17.722  18.932  0.2341  0.2947  0.6533
 3960LEFLG Drug46901  18.513  16.738  15.991  0.0833 -0.1303  0.1859
 3960LEFLG Drug46902  18.732  16.550  15.935  0.3763  0.2130  0.1678
 3960LEFLG Drug46903  18.609  16.400  15.939  0.5617  0.0482 -0.1229
 3960LEFLG Drug46904  18.396  16.384  16.055  0.0936  0.1492  0.3632
 3960LEFLG Drug46905  18.392  16.488  16.301  0.3193  0.2089  0.4126
 3960LEFLG Drug46906  18.257  16.228  16.342  0.2311  0.1803 -0.0347
 3960LEFLG Drug46907  18.318  16.468  16.505 -0.2076  0.1222  0.2197
 3960LEFLG Drug46908  18.179  16.365  16.648 -0.5630 -0.4711 -0.5518
 3961LEFLG Drug46909  18.773  14.633  19.192 -0.6014  0.1665  0.0812
 3961LEFLG Drug46910  18.698  14.656  18.909  0.1028  0.3145 -0.1016
 3961LEFLG Drug46911  18.713  14.849  18.917  0.0145  0.3153  0.0573
 3961LEFLG Drug46912  18.850  14.986  19.052  0.5468 -0.0540 -0.5979
 3961LEFLG Drug46913  18.758  15.133  19.257  0.2160  0.1373  0.2433
 3961LEFLG Drug46914  18.965  14.984  19.405 -0.1205 -0.3261  0.2581
 3961LEFLG Drug46915  18.718  15.132  19.472 -0.0945 -0.2518  0.1889
 3961LEFLG Drug46916  18.801  15.108  19.679  0.7011 -0.0368 -0.1366
 3962LEFLG Drug46917  17.856  15.736  19.765  0.1292 -0.2223 -0.6922
 3962LEFLG Drug46918  17.811  15.469  19.879  0.1126  0.1489  0.2065
 3962LEFLG Drug46919  17.923  15.512  20.032  0.3757  0.5480 -0.0906
 3962LEFLG Drug46920  18.059  15.706  20.082  0.0891 -0.0823  0.0907
 3962LEFLG Drug46921  18.281  15.740  19.946  0.6830  0.1608  0.0305
 3962LEFLG Drug46922  18.282  15.446  19.975 -0.1098  0.1666  0.2395
 3962LEFLG Drug46923  18.415  15.646  19.802  0.1008 -0.3429 -0.2004
 3962LEFLG Drug46924  18.558  15.461  19.753 -0.3107  0.3871  0.1133
 3963LEFLG Drug46925  15.515  16.518  20.559 -0.3333 -0.0587  0.4138
 3963LEFLG Drug46926  15.635  16.292  20.705  0.4243 -0.0913 -0.2241
 3963LEFLG Drug46927  15.649  16.189  20.541 -0.0375  0.0957 -0.3888
 3963LEFLG Drug46928  15.558  16.220  20.335  0.1109  0.0941 -0.5238
 3963LEFLG Drug46929  15.616  16.447  20.227  0.3754 -0.1516 -0.1108
 3963LEFLG Drug46930  15.326  16.474  20.277  0.4222 -0.2388  0.2251
 3963LEFLG Drug46931  15.532  16.617  20.119  0.2372 -0.0490  0.1530
 3963LEFLG Drug46932  15.346  16.755  20.047 -0.5836  0.0019  0.0129
 3964LEFLG Drug46933  18.596  17.656  17.085 -0.1659 -0.3663  0.0004
 3964LEFLG Drug46934  18.699  17.671  17.360 -0.0079  0.2345 -0.0865
 3964LEFLG Drug46935  18.557  17.795  17.409 -0.3059 -0.0799 -0.1381
 3964LEFLG Drug46936  18.465  17.969  17.279 -0.1442  0.3796  0.2148
 3964LEFLG Drug46937  18.639  18.025  17.074  0.3201 -0.0936 -0.0009
 3964LEFLG Drug46938  18.779  18.169  17.290  0.5582  0.0570 -0.2526
 3964LEFLG Drug46939  18.787  18.166  16.995  0.1140 -0.0231 -0.2657
 3964LEFLG Drug46940  18.959  18.321  17.030  0.8937 -0.2542 -0.1821
 3965LEFLG Drug46941  19.728  15.940  19.311  0.2111 -0.1853  0.0164
 3965LEFLG Drug46942  19.606  15.736  19.484 -0.0959  0.0634  0.0968
 3965LEFLG Drug46943  19.479  15.866  19.554  0.2669  0.3445  0.2408
 3965LEFLG Drug46944  19.460  16.101  19.527 -0.0543  0.0834 -0.1920
 3965LEFLG Drug46945  19.233  16.236  19.579  0.5956  0.0111  0.2001
 3965LEFLG Drug46946  19.371  16.272  19.838  0.0491 -0.1122  0.5142
 3965LEFLG Drug46947  19.113  16.355  19.718  0.0435 -0.5438  0.2179
 3965LEFLG Drug46948  19.098  16.529  19.897 -0.0886  0.3658 -0.7977
 3966LEFLG Drug46949  16.999  13.991  18.295  0.2945  0.2791  0.3713
 3966LEFLG Drug46950  17.198  13.910  18.094  0.0969  0.3595  0.1412
 3966LEFLG Drug46951  17.121  13.731  18.085 -0.2905  0.5374 -0.3091
 3966LEFLG Drug46952  16.937  13.641  18.205  0.1242  0.0923 -0.0715
 3966LEFLG Drug46953  16.714  13.609  18.065  0.2892 -0.1894  0.4781
 3966LEFLG Drug46954  16.881  13.733  17.854  0.4361 -0.1092  0.6404
 3966LEFLG Drug46955  16.625  13.584  17.866  0.1713  0.3214  0.4590
 3966LEFLG Drug46956  16.642  13.589  17.628 -0.0710 -0.5552 -0.4394
 3967LEFLG Drug46957  16.092  15.294  16.567  0.0126 -0.0664  0.4196
 3967LEFLG Drug46958  16.328  15.231  16.404  0.0941 -0.0680  0.5378
 3967LEFLG Drug46959  16.434  15.363  16.500  0.0139  0.0166  0.5107
 3967LEFLG Drug46960  16.393  15.517  16.689 -0.2990  0.2485 -0.1414
 3967LEFLG Drug46961  16.621  15.630  16.793  0.2063 -0.7162 -0.3608
 3967LEFLG Drug46962  16.598  15.398  16.974 -0.2874 -0.2039  0.2540
 3967LEFLG Drug46963  16.762  15.643  16.959 -0.1819 -0.2910 -0.0525
 3967LEFLG Drug46964  16.864  15.554  17.144 -0.6642  0.0411  0.3191
 3968LEFLG Drug46965  14.828  19.330  18.334 -0.6386 -0.0461 -0.1120
 3968LEFLG Drug46966  14.933  19.397  18.068 -0.3114 -0.1251 -0.0054
 3968LEFLG Drug46967  14.859  19.233  17.994 -0.2410 -0.1360 -0.0523
 3968LEFLG Drug46968  14.699  19.079  18.085 -0.0370 -0.0960  0.0492
 3968LEFLG Drug46969  14.593  18.909  17.926  0.0288  0.0156  0.5599
 3968LEFLG Drug46970  14.838  18.760  18.002  0.2042  0.0133  0.0082
 3968LEFLG Drug46971  14.594  18.706  17.843  0.3429  0.3575 -0.3294
 3968LEFLG Drug46972  14.701  18.517  17.772 -0.1835  0.2674  0.4400
 3969LEFLG Drug46973  16.226  17.795  20.766  0.4308 -0.0888 -0.0627
 3969LEFLG Drug46974  16.158  17.855  20.486 -0.0928  0.3921  0.1592
 3969LEFLG Drug46975  16.046  17.696  20.476  0.2947  0.1246 -0.0522
 3969LEFLG Drug46976  16.004  17.527  20.624 -0.2193  0.0904  0.1699
 3969LEFLG Drug46977  16.211  17.400  20.760  0.4257  0.0234  0.0495
 3969LEFLG Drug46978  15.989  17.207  20.789  0.2003  0.2973  0.1641
 3969LEFLG Drug46979  16.275  17.219  20.864  0.0316  0.3141  0.8375
 3969LEFLG Drug46980  16.244  16.983  20.902 -0.3775 -0.2524  0.6390
 3970LEFLG Drug46981  17.692  15.569  17.426 -0.4087  0.0851  0.2221
 3970LEFLG Drug46982  17.575  15.839  17.407 -0.0306  0.2347 -0.0417
 3970LEFLG Drug46983  17.750  15.920  17.436  0.1155  0.0208 -0.3056
 3970LEFLG Drug46984  17.954  15.820  17.517  0.1333 -0.2010  0.1489
 3970LEFLG Drug46985  18.025  15.607  17.354  0.1977 -0.0815  0.2960
 3970LEFLG Drug46986  18.217  15.815  17.267  0.2537 -0.1066  0.3597
 3970LEFLG Drug46987  18.142  15.542  17.181 -0.2120  0.1508 -0.0814
 3970LEFLG Drug46988  18.267  15.579  16.991  0.2419  0.1957  0.1636
 3971LEFLG Drug46989  19.108  17.485  20.374  0.1618 -0.0008 -0.2833
 3971LEFLG Drug46990  19.107  17.730  20.210  0.0158  0.2350  0.0645
 3971LEFLG Drug46991  18.937  17.678  20.129  0.1218  0.1714 -0.1199
 3971LEFLG Drug46992  18.771  17.510  20.192 -0.1397 -0.4187  0.0914
 3971LEFLG Drug46993  18.847  17.246  20.241  0.0492 -0.1252  0.0358
 3971LEFLG Drug46994  18.836  17.244  19.945  0.0347 -0.4605  0.0368
 3971LEFLG Drug46995  18.903  17.051  20.159 -0.2880 -0.3218  0.2660
 3971LEFLG Drug46996  18.883  16.890  19.992  0.3701 -0.4110 -0.7972
 3972LEFLG Drug46997  17.883  18.082  17.079 -0.3687 -0.1014 -0.1288
 3972LEFLG Drug46998  17.687  18.285  17.162 -0.5054 -0.0991 -0.4541
 3972LEFLG Drug46999  17.825  18.421  17.167 -0.3325 -0.2760  0.5972
 3972LEFLG Drug47000  18.052  18.405  17.215 -0.0829 -0.2474  0.0995
 3972LEFLG Drug47001  18.241  18.393  17.028 -0.2277 -0.1490  0.0416
 3972LEFLG Drug47002  18.408  18.358  17.270 -0.0316 -0.0105 -0.0716
 3972LEFLG Drug47003  18.452  18.438  16.988 -0.3757  0.5930  0.0388
 3972LEFLG Drug47004  18.673  18.488  17.062  0.7829 -0.7247  0.1666
 3973LEFLG Drug47005  15.360  17.126  19.507  0.2555  0.2498 -0.1598
 3973LEFLG Drug47006  15.400  17.376  19.657 -0.1753  0.1196  0.1807
 3973LEFLG Drug47007  15.249  17.459  19.565 -0.0316  0.1352 -0.0441
 3973LEFLG Drug47008  15.062  17.356  19.464 -0.1666 -0.1984  0.0999
 3973LEFLG Drug47009  14.830  17.477  19.500  0.1043  0.5356  0.1276
 3973LEFLG Drug47010  14.853  17.498  19.206 -0.1086  0.0878  0.0752
 3973LEFLG Drug47011  14.688  17.622  19.418 -0.3721 -0.0192 -0.0641
 3973LEFLG Drug47012  14.571  17.724  19.248 -0.0689  0.0125  0.5366
 3974LEFLG Drug47013  15.173  17.169  17.986  0.0124  0.1924 -0.1934
 3974LEFLG Drug47014  15.452  17.081  17.954  0.0795  0.2258  0.2755
 3974LEFLG Drug47015  15.510  17.265  17.928  0.0153  0.1851 -0.1890
 3974LEFLG Drug47016  15.397  17.460  17.871 -0.1978  0.0130  0.3114
 3974LEFLG Drug47017  15.488  17.603  17.655 -0.0905  0.2302  0.3162
 3974LEFLG Drug47018  15.732  17.455  17.733 -0.0182  0.2240  0.0817
 3974LEFLG Drug47019  15.664  17.676  17.548 -0.2068  0.1618  0.0757
 3974LEFLG Drug47020  15.869  17.629  17.456  0.2650 -0.0918  0.3713
 3975LEFLG Drug47021  17.776  14.633  17.852  0.1779 -0.3036 -0.1599
 3975LEFLG Drug47022  17.903  14.893  17.797 -0.0041 -0.0444  0.5868
 3975LEFLG Drug47023  18.033  14.807  17.680 -0.3915  0.4648 -0.2606
 3975LEFLG Drug47024  18.133  14.590  17.709 -0.4086 -0.2825 -0.0422
 3975LEFLG Drug47025  18.284  14.485  17.509  0.1508  0.1050 -0.4366
 3975LEFLG Drug47026  18.428  14.741  17.547  0.2971 -0.0502  0.1081
 3975LEFLG Drug47027  18.416  14.529  17.341  0.3179  0.2999 -0.2584
 3975LEFLG Drug47028  18.599  14.617  17.253 -0.4140 -0.4350  0.5998
 3976W        W47029   7.638  33.100  15.519 -0.0203  0.3263  0.1600
 3977W        W47030  32.004  31.733  24.899 -0.3269 -0.0741  0.1067
 3978W        W47031  14.734   5.860   6.162  0.2665  0.0812 -0.0701
 3979W        W47032  23.343  13.031   0.191 -0.0846  0.0091 -0.3323
 3980W        W47033  13.200   1.194  14.284 -0.1111  0.0019 -0.0909
 3981W        W47034   9.909   1.871  19.926 -0.0628 -0.3561  0.0343
 3982W        W47035  13.138   1.705  22.123  0.5233 -0.0322  0.1520
 3983W        W47036   4.103  25.997   5.409  0.2765  0.0574  0.1498
 3984W        W47037  12.457   9.992   3.323 -0.2855  0.3292 -0.1239
 3985W        W47038   5.038  34.156  24.301 -0.0292  0.2106  0.0074
 3986W        W47039   1.042  17.567  15.511  0.0269  0.1362 -0.1642
 3987W        W47040   0.807  24.671  22.799 -0.4145 -0.1260  0.2332
 3988W        W47041  23.786  34.595  17.774 -0.1414 -0.2994 -0.1078
 3989W        W47042  24.965  32.054  24.296  0.3919 -0.3297  0.4284
 3990W        W47043  34.061   7.979   0.952 -0.3000  0.2015  0.1182
 3991W        W47044   9.981   5.353  16.175  0.0388  0.0923  0.1779
 3992W        W47045   3.569  31.281  14.045 -0.1415  0.1281 -0.0259
 3993W        W47046  19.678  21.994   7.156 -0.1432 -0.0311 -0.1704
 3994W        W47047   2.550   3.571  23.070 -0.1938 -0.1489 -0.0315
 3995W        W47048  14.029   3.255   5.434  0.1298 -0.1207  0.1620
 3996W        W47049  32.264  14.222   1.902 -0.1033 -0.0343 -0.2097
 3997W        W47050  13.912  12.282  14.105 -0.0838 -0.0234 -0.3945
 3998W        W47051  17.570   0.236  16.927 -0.2586  0.2129  0.1458
 3999W        W47052   6.484  19.120  24.312  0.0680 -0.1625  0.0742
 4000W        W47053   3.519  10.737  20.529 -0.1755  0.0979  0.0008
 4001W        W47054  26.435   5.188  14.913  0.3013  0.0142  0.1186
 4002W        W47055  33.379  11.774  23.480 -0.0431  0.0218 -0.1479
 4003W        W47056  10.504  30.033  19.796  0.0046  0.2999 -0.0127
 4004W        W47057  33.997   4.515  20.777  0.3408 -0.2368 -0.0506
 4005W        W47058   9.744  21.423   4.207  0.2170  0.1972  0.2501
 4006W        W47059   8.107  31.207   2.011 -0.2505 -0.4107  0.5376
 4007W        W47060  28.718  15.249  28.483 -0.0584 -0.0912  0.0482
 4008W        W47061  31.136   9.108   7.307  0.0209 -0.0454 -0.2557
 4009W        W47062  32.453  22.922  19.319 -0.2241  0.0592  0.1556
 4010W        W47063   2.515   9.874  17.654  0.0282 -0.1556 -0.0061
 4011W        W47064  13.512  14.203  19.737 -0.3043 -0.2878 -0.1100
 4012W        W47065  23.091  30.383  21.673  0.2514  0.0971  0.0684
 4013W        W47066  10.823   5.833  25.514 -0.0373  0.0049  0.1034
 4014W        W47067   2.128   3.013  14.324  0.0606  0.0673 -0.2459
 4015W        W47068   8.881  22.089  24.786 -0.0506 -0.1611  0.0458
 4016W        W47069   4.727   2.318  26.091 -0.1402  0.0794  0.0867
 4017W        W47070   6.439  29.940  24.331 -0.0208  0.1579  0.2561
 4018W        W47071  16.638  22.847  24.056 -0.2551 -0.0974  0.0419
 4019W        W47072  10.109   3.510  16.882 -0.1165 -0.0921  0.1463
 4020W        W47073   0.243   0.713  23.743  0.1335 -0.1823 -0.0561
 4021W        W47074  31.268   3.395  16.906  0.0337 -0.1043 -0.1532
 4022W        W47075   6.661  32.393  25.047 -0.0556 -0.1098  0.2131
 4023W        W47076  31.917  33.545  13.829 -0.0632  0.1482  0.0870
 4024W        W47077  14.576  31.185  15.586 -0.1925  0.2654 -0.0002
 4025W        W47078  26.123   6.625  16.572 -0.0401  0.2926 -0.1220
 4026W        W47079  14.606   3.851  22.526  0.0911  0.3753  0.1065
 4027W        W47080  11.521  32.474  28.117  0.1820 -0.0183  0.2249
 4028W        W47081  26.883  27.944  14.977 -0.1929  0.1488  0.0387
 4029W        W47082  29.792  13.618  26.455  0.1783  0.0114  0.3458
 4030W        W47083  16.583  23.738  18.441  0.2826 -0.1445  0.1652
 4031W        W47084   1.637   7.947  25.927 -0.0746 -0.0233 -0.2393
 4032W        W47085   0.314  12.587   2.023 -0.3603 -0.0158 -0.1169
 4033W        W47086   2.452  11.574  16.764  0.1228 -0.1197  0.3300
 4034W        W47087  23.793   6.068  14.889 -0.1750 -0.2529  0.0098
 4035W        W47088   4.830  22.105  20.262 -0.0961  0.2712 -0.1518
 4036W        W47089   9.858  26.700  21.695 -0.2300  0.1588  0.2317
 4037W        W47090  32.935   4.651   2.632 -0.2117 -0.0497 -0.1280
 4038W        W47091   8.928   6.046  15.011 -0.1784 -0.1045 -0.1070
 4039W        W47092  15.733   7.221  15.901  0.0096 -0.0748  0.0102
 4040W        W47093   2.921  15.427  21.611 -0.0375 -0.1272  0.2774
 4041W        W47094  19.350  34.264  16.775  0.1619  0.0375  0.0924
 4042W        W47095   2.311  12.466   0.579  0.0751 -0.0230 -0.2036
 4043W        W47096   1.314  33.046  16.053  0.0445  0.1236  0.1449
 4044W        W47097  10.238   3.717  19.082  0.0806  0.2617 -0.3710
 4045W        W47098  16.967   2.621  20.097 -0.1150 -0.2557  0.4247
 4046W        W47099  16.627  19.863  15.114 -0.1450 -0.3453 -0.1675
 4047W        W47100  30.590  31.807  18.622 -0.0936  0.2247  0.1027
 4048W        W47101  12.726  27.725  17.923  0.3499 -0.0905  0.1597
 4049W        W47102   4.889   3.720  16.167  0.0581 -0.1225  0.0640
 4050W        W47103  17.666   1.395  15.367 -0.0733 -0.0254  0.4533
 4051W        W47104   6.627   5.336  19.681  0.0709  0.1504 -0.1098
 4052W        W47105   8.000   8.998  20.377  0.1234  0.4501 -0.1243
 4053W        W47106  32.407   8.073   3.281  0.3474 -0.2628  0.0913
 4054W        W47107   3.511   4.957  15.719 -0.0731 -0.3826  0.1900
 4055W        W47108   1.982   8.961   6.529 -0.1752  0.0528  0.1848
 4056W        W47109   1.490   4.007  25.574  0.1123 -0.4211  0.0359
 4057W        W47110  32.932  31.514  15.794  0.2031  0.1132 -0.3486
 4058W        W47111   6.066  11.323  15.269  0.4142  0.2777 -0.1717
 4059W        W47112  34.282  34.086  16.719  0.2555  0.0001  0.1830
 4060W        W47113   6.234  28.009  18.781 -0.2792 -0.1332  0.0739
 4061W        W47114   9.073  16.723  13.833 -0.1702  0.0980 -0.3293
 4062W        W47115  29.346   2.827  21.488 -0.1635  0.1039 -0.4176
 4063W        W47116  11.690   2.121  24.635  0.0628 -0.0558  0.0284
 4064W        W47117   7.905  11.874  18.835 -0.3466  0.1723  0.0544
 4065W        W47118  12.626  34.477  25.991  0.2868 -0.0020 -0.1718
 4066W        W47119  30.159  11.444  22.147  0.1113  0.2514 -0.3547
 4067W        W47120  19.379  10.638  21.856 -0.1616  0.1004  0.1627
 4068W        W47121  33.173  31.196   3.857 -0.1581 -0.4444 -0.0937
 4069W        W47122  16.089  14.444  23.873  0.0764 -0.1805  0.0159
 4070W        W47123  11.259  32.228  16.190 -0.1025 -0.0219 -0.0617
 4071W        W47124   6.524  17.859  14.676  0.0531  0.0362 -0.0231
 4072W        W47125  33.970  17.534  19.987  0.0795  0.0056  0.0055
 4073W        W47126  23.709  14.340  24.974  0.0112  0.1456 -0.0891
 4074W        W47127   4.645   2.500  20.065  0.4171 -0.0350  0.0641
 4075W        W47128   6.847   5.911  21.112  0.0516  0.2936 -0.1347
 4076W        W47129  23.833  10.561  24.259 -0.0755 -0.1701 -0.0485
 4077W        W47130   4.479  13.301  21.968  0.0965 -0.2015 -0.0603
 4078W        W47131  28.897  33.355  23.209  0.0783 -0.1596  0.0901
 4079W        W47132   1.306  12.962  15.017 -0.6010  0.2000  0.3832
 4080W        W47133  24.694  12.464  18.950 -0.1674  0.0223 -0.1801
 4081W        W47134   6.158   4.202  17.954  0.1077  0.1474  0.0602
 4082W        W47135  11.652  30.575  20.413 -0.0465  0.4521 -0.1717
 4083W        W47136  32.677  26.934  24.565 -0.0599 -0.1722 -0.2880
 4084W        W47137   7.972   7.794  19.362  0.0067 -0.2848  0.1379
 4085W        W47138  25.072  33.275  17.056  0.0732 -0.0067  0.1276
 4086W        W47139  12.013   5.673  17.090 -0.0922 -0.0224 -0.0708
 4087W        W47140  14.653  26.875  27.935  0.0560 -0.0631 -0.0480
 4088W        W47141  31.952   0.660  21.304 -0.1950 -0.0732 -0.0394
 4089W        W47142  13.712  15.749  17.628 -0.0897  0.0065  0.0781
 4090W        W47143  12.910   8.083  24.775  0.0067  0.0368  0.0525
 4091W        W47144  12.063   1.446  27.676 -0.0551 -0.1204 -0.0146
 4092W        W47145   0.793   3.948  16.539 -0.0622 -0.1493  0.1091
 4093W        W47146  12.240   7.754  17.629  0.1809  0.2831  0.0777
 4094W        W47147   6.344  32.360  20.050 -0.0521 -0.2888  0.1114
 4095W        W47148  20.939   8.696  22.329 -0.1576 -0.2737 -0.2384
 4096W        W47149   7.641  29.491  19.240  0.2617 -0.0264 -0.0241
 4097W        W47150  11.275  34.438  22.719 -0.0477 -0.3704 -0.0575
 4098W        W47151  32.862  28.239  13.370 -0.1683 -0.0383  0.2964
 4099W        W47152   2.174  31.954  25.016  0.2378 -0.1057 -0.0228
 4100W        W47153   8.467  19.466  27.641  0.0834 -0.1720 -0.0945
 4101W        W47154  21.328   9.907  21.370  0.0060  0.0395 -0.4000
 4102W        W47155   3.698   8.010  13.801 -0.1402  0.2853 -0.1379
 4103W        W47156  16.978  34.090  15.751  0.0418  0.0602  0.1797
 4104W        W47157  32.337  10.246  15.118 -0.3718  0.0117  0.2186
 4105W        W47158   7.537   3.757  16.347 -0.1143 -0.1730  0.1846
 4106W        W47159   3.049   6.954  26.280  0.2438  0.0997  0.1134
 4107W        W47160  17.625  32.636  20.762 -0.2731  0.1248  0.2061
 4108W        W47161   3.167  14.465  13.974 -0.0191  0.0876  0.2500
 4109W        W47162  13.432   3.361   4.568  0.0173 -0.3372 -0.1792
 4110W        W47163  27.173   7.213  17.355  0.0116  0.1341 -0.3002
 4111W        W47164  15.026  34.353  15.182 -0.0237  0.2215  0.0419
 4112W        W47165  17.468   0.089  17.865 -0.1160  0.0831  0.2522
 4113W        W47166  32.295   5.247  22.406 -0.1001 -0.0407  0.2574
 4114W        W47167  23.898   1.679  21.521 -0.2698 -0.0487  0.1407
 4115W        W47168  10.488   5.501  25.312  0.0634 -0.1925  0.0574
 4116W        W47169  10.002  15.696  26.072 -0.0140  0.2886 -0.0134
 4117W        W47170   6.439   0.763  15.105  0.0101 -0.1917 -0.1334
 4118W        W47171  17.507  33.003  21.636  0.1242 -0.3659  0.2078
 4119W        W47172  31.978   1.295  23.208 -0.0361  0.0508  0.0170
 4120W        W47173   1.711   9.416  16.219  0.0556 -0.1293  0.2816
 4121W        W47174   0.037   1.061  24.754 -0.2186  0.4903  0.3059
 4122W        W47175  26.945  27.851  20.040 -0.1891 -0.3298 -0.1133
 4123W        W47176   3.926   2.233  25.043  0.0890  0.0919  0.2071
 4124W        W47177   2.485   6.171   1.521  0.1529 -0.0586  0.0827
 4125W        W47178  32.391  28.629  14.043 -0.2506  0.0490  0.0486
 4126W        W47179   7.952   9.715  14.252 -0.1066 -0.0286 -0.0155
 4127W        W47180  34.684   7.338  19.673 -0.1587 -0.3181  0.1850
 4128W        W47181  14.837   4.133  14.623 -0.0304  0.0447 -0.1495
 4129W        W47182  10.957   2.241   6.086  0.1096 -0.1008 -0.0558
 4130W        W47183   3.623  22.555  13.696  0.0342  0.0417  0.1851
 4131W        W47184   5.277   8.028  16.668  0.0295  0.1628 -0.0441
 4132W        W47185  10.687  24.928  23.780  0.0246 -0.2395  0.1202
 4133W        W47186  32.575   0.190  17.626  0.1859 -0.0655  0.2484
 4134W        W47187  26.220   3.424  18.201 -0.1018 -0.2914  0.0477
 4135W        W47188  21.718   1.102  25.820 -0.0408 -0.2075  0.1132
 4136W        W47189   6.527   7.710   0.355 -0.1695  0.1625  0.2864
 4137W        W47190  17.323  14.468   1.925 -0.0976  0.0824  0.1216
 4138W        W47191   0.895   0.784   3.649 -0.0941 -0.3237 -0.1648
 4139W        W47192  21.178   5.577  18.560  0.0468 -0.0961 -0.1983
 4140W        W47193   8.070  33.278  14.287  0.1326 -0.1090  0.3172
 4141W        W47194   6.928   6.942  16.805  0.0286 -0.0277 -0.1147
 4142W        W47195   6.708  28.820  24.773  0.1731 -0.2381 -0.5301
 4143W        W47196   0.621  11.145  18.374 -0.0557 -0.4354 -0.1624
 4144W        W47197  33.180   7.309  22.530  0.2619  0.2122  0.1208
 4145W        W47198  26.037   4.103   4.038  0.1383 -0.2458  0.1549
 4146W        W47199  32.670  29.347   2.614  0.0149  0.4404 -0.2251
 4147W        W47200   7.530   6.258   1.737 -0.1710 -0.0148 -0.5576
 4148W        W47201  14.622   4.301  15.173  0.0718  0.1072  0.0273
 4149W        W47202  19.277  31.538  18.663 -0.0417  0.2154  0.1962
 4150W        W47203  18.981   4.283  14.840 -0.3365 -0.0292 -0.1965
 4151W        W47204   7.769  34.562   6.860 -0.3631 -0.0278 -0.0483
 4152W        W47205   1.105  21.415  18.314 -0.0383  0.0856  0.0560
 4153W        W47206  31.309   7.422  21.183 -0.1846  0.1664  0.0593
 4154W        W47207   1.002  22.149  20.677  0.4182 -0.2216 -0.1428
 4155W        W47208  11.195   4.528  18.977 -0.2994 -0.0557 -0.1300
 4156W        W47209  11.936  10.321  29.082  0.0780  0.0249 -0.0898
 4157W        W47210  13.089   8.690  16.408  0.0431 -0.0532  0.0168
 4158W        W47211   1.479  34.530  18.157 -0.0300 -0.0995 -0.2697
 4159W        W47212  29.881   0.330  19.025  0.2157  0.1055  0.4318
 4160W        W47213  26.525   2.188  23.463 -0.2120 -0.0319  0.0320
 4161W        W47214  14.818  27.322  18.795  0.1353  0.0875  0.0938
 4162W        W47215  22.671  26.610  14.916  0.2817 -0.0101  0.0879
 4163W        W47216   2.447  23.547  28.011 -0.3123  0.1092 -0.0049
 4164W        W47217  28.516  33.904  14.670 -0.1372  0.0538  0.1248
 4165W        W47218  16.735   2.318  21.172  0.0165  0.3170 -0.2368
 4166W        W47219  14.148  22.956  21.541  0.0816 -0.1332  0.0529
 4167W        W47220   6.138   0.072  28.467 -0.3427 -0.0697 -0.4311
 4168W        W47221  22.900  33.952  18.274 -0.2985 -0.3259  0.2827
 4169W        W47222   7.357  19.245  13.008  0.1732 -0.0465  0.1222
 4170W        W47223  10.410  33.649   3.473  0.0907  0.1827 -0.1748
 4171W        W47224  13.840   0.981  18.413  0.4327 -0.0974 -0.2058
 4172W        W47225  34.267   4.988  15.584  0.0699  0.2200  0.0230
 4173W        W47226   6.908   1.694  16.016 -0.0626  0.1787 -0.0234
 4174W        W47227  19.609   2.332  16.568 -0.0506  0.2825  0.2000
 4175W        W47228   4.151  29.448  24.798  0.0014 -0.1135  0.1939
 4176W        W47229   6.545   4.306  27.134 -0.4350 -0.1778  0.2190
 4177W        W47230   9.638  29.232  26.863  0.5021  0.0685  0.0794
 4178W        W47231   7.338   4.000  19.419  0.0099 -0.2703 -0.2814
 4179W        W47232   4.544  23.788  21.850 -0.0737 -0.1751  0.2117
 4180W        W47233   2.560  10.144  16.877 -0.0749  0.3467 -0.4300
 4181W        W47234  32.250   7.304  21.268  0.1239 -0.1166 -0.1074
 4182W        W47235   7.409  31.298  15.244 -0.1492 -0.0380 -0.5840
 4183W        W47236   8.696  22.374  28.912  0.2387 -0.1168  0.1824
 4184W        W47237   0.540  17.853  16.754 -0.2087 -0.0663  0.1197
 4185W        W47238   2.892   3.049  28.930  0.0904  0.0595  0.0830
 4186W        W47239  31.978  30.509   8.535 -0.2406  0.0077 -0.0355
 4187W        W47240  30.889  11.668   7.916  0.0037 -0.1540  0.0218
 4188W        W47241  22.716  19.365  17.698 -0.1793  0.0313 -0.0178
 4189W        W47242   0.203   7.446  27.179 -0.1315 -0.4574 -0.0605
 4190W        W47243  17.428  32.441  26.452  0.0519 -0.2684  0.1339
 4191W        W47244  33.139   0.813  15.501  0.2029 -0.1426 -0.1347
 4192W        W47245  33.228   4.493  24.612  0.0213  0.1781 -0.3899
 4193W        W47246  16.183   9.509  19.117 -0.1884 -0.1268  0.1737
 4194W        W47247  30.629  13.039  25.747 -0.0183 -0.3860 -0.0522
 4195W        W47248   4.708   9.290  16.659 -0.0789 -0.1306 -0.2219
 4196W        W47249  11.496  28.323  15.236 -0.0540 -0.3502  0.1214
 4197W        W47250   0.599  13.197   3.382  0.0657 -0.2086 -0.1538
 4198W        W47251  30.062  28.986   2.256 -0.0302 -0.0549 -0.1257
 4199W        W47252   0.718  26.641  15.636  0.0919 -0.2482 -0.1987
 4200W        W47253  14.491  23.580  16.977 -0.4633 -0.2148  0.2011
 4201W        W47254   9.964   7.939  15.003  0.0367 -0.1583 -0.0079
 4202W        W47255   3.926  25.861   4.521  0.0580  0.4732  0.0104
 4203W        W47256  23.722   3.445  15.600  0.0815  0.0983  0.1368
 4204W        W47257  12.449  12.924  26.637 -0.1775  0.3882  0.0696
 4205W        W47258  13.056  18.128  21.452  0.0330 -0.0545 -0.0467
 4206W        W47259   5.387  10.184  18.614  0.1695 -0.1763 -0.0807
 4207W        W47260   2.968  33.884  18.130 -0.0902  0.1755 -0.1831
 4208W        W47261   4.826  34.294  14.581  0.0618 -0.2291 -0.0992
 4209W        W47262   8.354   0.283  19.546 -0.1754  0.2827  0.1854
 4210W        W47263   6.850  26.107  28.470  0.1516 -0.0722 -0.1032
 4211W        W47264   4.510  32.983  17.546  0.1936 -0.2481  0.2867
 4212W        W47265  33.386   1.130  15.183 -0.1481  0.0709 -0.0915
 4213W        W47266  18.950  33.744   8.531  0.1806 -0.1347 -0.1925
 4214W        W47267   5.623   0.336  22.341  0.1064 -0.3550 -0.0550
 4215W        W47268  11.783  33.510  24.020 -0.2108 -0.1122  0.0313
 4216W        W47269  28.908  13.112  25.539  0.0337  0.0122 -0.3494
 4217W        W47270  24.337   8.096  23.846  0.0094 -0.1523 -0.0518
 4218W        W47271  14.540   6.418  17.272  0.0520  0.0768  0.2027
 4219W        W47272   3.910   1.215  20.017  0.0428  0.1865 -0.1796
 4220W        W47273   7.587  33.841  25.352 -0.2015 -0.1770 -0.1709
 4221W        W47274   4.771   0.696  16.046 -0.1655 -0.0764 -0.0174
 4222W        W47275   4.683  22.557  20.083  0.2503  0.1937  0.0373
 4223W        W47276  17.010  12.452  14.056  0.0417  0.2207  0.1058
 4224W        W47277  30.734   7.638   7.025 -0.0391 -0.3060 -0.0447
 4225W        W47278  10.425  23.051  24.428  0.0014 -0.0070  0.1483
 4226W        W47279  10.558  33.110  18.245  0.3804  0.0820 -0.1805
 4227W        W47280  27.733   4.748  19.962 -0.2271  0.0165  0.2126
 4228W        W47281  29.243  29.384  24.473 -0.2071  0.5004 -0.2947
 4229W        W47282  18.563   8.321  14.314  0.1552  0.1668 -0.2722
 4230W        W47283  27.269   2.527  14.579 -0.0286  0.0224  0.2102
 4231W        W47284  29.143   6.035  14.594 -0.2829  0.1616 -0.0589
 4232W        W47285  15.534  33.583  18.365 -0.2257 -0.3171  0.2443
 4233W        W47286  10.289   4.196  25.154  0.2173 -0.0910  0.0562
 4234W        W47287   0.460  32.908  14.249  0.1356  0.3625  0.0160
 4235W        W47288   8.884  32.471  17.004 -0.0866  0.2295  0.1316
 4236W        W47289  33.491   8.034  26.053  0.0701  0.0436  0.1689
 4237W        W47290   6.629  11.929  21.900  0.0188  0.3428 -0.0354
 4238W        W47291  10.635  31.867  19.402  0.0016  0.0187  0.1072
 4239W        W47292   4.176  20.999  15.995 -0.1529 -0.0841 -0.1505
 4240W        W47293   4.458  33.068  18.079  0.2983 -0.0493 -0.0636
 4241W        W47294  26.387  12.933  22.542  0.1670 -0.1050 -0.2410
 4242W        W47295   7.163   8.852  18.749 -0.1031 -0.0234  0.0118
 4243W        W47296   3.239  17.721  15.954  0.1979  0.0810  0.1710
 4244W        W47297  22.768   4.658  25.626 -0.3043  0.0660  0.1525
 4245W        W47298   9.002  12.122  27.916 -0.0121 -0.1270 -0.0353
 4246W        W47299  12.149  22.388   4.158 -0.1847  0.0402 -0.1081
 4247W        W47300  13.132  10.170  24.775 -0.2576 -0.1374 -0.1585
 4248W        W47301   0.598  29.809  15.852  0.0883  0.2219 -0.1982
 4249W        W47302   0.733   2.999  23.400 -0.2552 -0.0053  0.1945
 4250W        W47303   8.391   2.504  20.484  0.4102  0.0754  0.1731
 4251W        W47304  10.195  13.102  20.532  0.1195 -0.2850 -0.1598
 4252W        W47305   3.675  27.505  17.278  0.0074 -0.2761 -0.1789
 4253W        W47306   1.938  14.339  18.276 -0.2544  0.0710 -0.1974
 4254W        W47307  13.163  24.004  13.652 -0.1212 -0.1294 -0.0318
 4255W        W47308  30.206  13.018  27.092 -0.1142  0.0864 -0.1011
 4256W        W47309   5.406   4.994  20.852  0.0516  0.3991 -0.0754
 4257W        W47310   1.223  22.096  14.621  0.0248 -0.4631 -0.0855
 4258W        W47311  14.807  20.517  24.067  0.1414 -0.0603 -0.3090
 4259W        W47312  13.196  31.763   2.093 -0.1787 -0.3378  0.3874
 4260W        W47313  18.485  21.209  17.464 -0.2118 -0.0670  0.1034
 4261W        W47314  16.503   5.904  16.666  0.1599  0.3451  0.0142
 4262W        W47315   9.203  18.522  24.571 -0.0691  0.0928  0.0705
 4263W        W47316  24.488   2.306  16.154 -0.1357 -0.0488  0.2640
 4264W        W47317   3.125   0.576  29.000 -0.0047  0.2295 -0.0866
 4265W        W47318  33.883   1.903  24.561 -0.1375  0.4065  0.0632
 4266W        W47319  31.863  34.257  14.429  0.2787 -0.2229 -0.2154
 4267W        W47320   9.252  11.293  15.562 -0.1423  0.2312 -0.3246
 4268W        W47321   4.316   9.006  22.500 -0.3165  0.2062  0.0800
 4269W        W47322  12.729  30.167  28.248 -0.0193 -0.0285  0.1472
 4270W        W47323  33.658   1.258  24.918 -0.0889  0.0659  0.0301
 4271W        W47324   1.833  28.074   5.643 -0.0095 -0.1652 -0.2226
 4272W        W47325  29.249   5.940  21.063 -0.1436 -0.0882  0.0560
 4273W        W47326  12.524   6.249  26.601  0.2646 -0.0112  0.0160
 4274W        W47327   5.969   8.989   4.200 -0.3009  0.2461 -0.1075
 4275W        W47328  33.607  15.554   5.966  0.1659 -0.0245  0.0636
 4276W        W47329  29.718  28.849  20.598 -0.4590  0.0719 -0.0303
 4277W        W47330   7.983   7.132  17.877 -0.1362 -0.3915 -0.1439
 4278W        W47331   7.574   8.026  17.628  0.1619 -0.1687 -0.2093
 4279W        W47332  10.710  31.232  28.004 -0.4284 -0.1187  0.2267
 4280W        W47333   3.177  30.080  27.289 -0.0653  0.0626 -0.2120
 4281W        W47334   2.172   5.604  25.478 -0.1738 -0.0074 -0.0558
 4282W        W47335   5.139  26.164  15.407  0.1791 -0.0330 -0.2757
 4283W        W47336  24.687  31.787  22.555 -0.0955 -0.1624 -0.0739
 4284W        W47337  11.010   4.211  23.634 -0.2587  0.4129 -0.0252
 4285W        W47338   9.669  15.386  17.169 -0.0955 -0.0868  0.1456
 4286W        W47339   3.984  24.515  15.004  0.0088 -0.0689  0.1921
 4287W        W47340  34.512   3.941  15.915  0.1196  0.2644  0.0675
 4288W        W47341   7.278   4.596   6.847 -0.3559 -0.0499 -0.1384
 4289W        W47342  34.428  32.344  24.904  0.1693  0.1032  0.2585
 4290W        W47343  29.965   2.704  16.782 -0.1387 -0.2006 -0.0561
 4291W        W47344  33.761  24.655   7.025  0.0063  0.0452  0.0722
 4292W        W47345   9.203   2.808  21.476  0.1514 -0.3319  0.0668
 4293W        W47346  30.213   2.378  15.443 -0.1648  0.0540 -0.0533
 4294W        W47347  25.541  32.427  19.156  0.0836 -0.0693  0.0564
 4295W        W47348   3.399   4.179  20.766 -0.1084 -0.0703 -0.1344
 4296W        W47349  10.988  11.075  18.881 -0.0368  0.0572  0.5304
 4297W        W47350  28.598  15.698  24.627 -0.0591  0.0980 -0.2323
 4298W        W47351  32.683  12.116  17.296 -0.1510 -0.0309 -0.0681
 4299W        W47352   1.355   5.173  15.924  0.1506  0.0152 -0.1744
 4300W        W47353   4.600   2.697  22.381 -0.3067  0.0655 -0.0950
 4301W        W47354   7.284  14.590  17.116 -0.0021 -0.0806 -0.2476
 4302W        W47355   0.909  15.895  15.225 -0.2261  0.0911  0.1068
 4303W        W47356  31.521   4.820  18.028  0.3185 -0.2705 -0.5377
 4304W        W47357   6.762  11.843  15.671  0.0710 -0.0353  0.2478
 4305W        W47358  12.457  32.295  25.719  0.3912 -0.0863  0.2122
 4306W        W47359  21.496  33.545  21.758 -0.2266  0.0115 -0.1340
 4307W        W47360   9.485   5.742  14.258  0.1060  0.0415  0.0167
 4308W        W47361   7.171   3.911   1.008 -0.0527 -0.2397 -0.0047
 4309W        W47362   0.127  11.255  22.111  0.1144  0.2841 -0.2796
 4310W        W47363  11.443  30.623  22.137 -0.0407  0.1747 -0.0399
 4311W        W47364  17.786   7.941  16.895 -0.1130  0.1065  0.2367
 4312W        W47365   8.334  32.618  15.619 -0.3274  0.2177  0.0114
 4313W        W47366  29.507   0.749  15.892 -0.2988  0.1878 -0.0028
 4314W        W47367  34.531  14.635  17.746  0.2377 -0.2934  0.0958
 4315W        W47368   8.706   4.374  27.306 -0.0592 -0.0017  0.4202
 4316W        W47369  30.266  21.463  21.254 -0.1525 -0.0564 -0.1937
 4317W        W47370   7.089   6.079   8.812 -0.1397  0.2288 -0.4098
 4318W        W47371  29.607   8.237  21.964 -0.0671  0.2665  0.1927
 4319W        W47372   2.603  26.569  14.123 -0.0273 -0.2531 -0.1673
 4320W        W47373   9.840   5.995  23.796 -0.1169  0.1994 -0.0487
 4321W        W47374   7.077   4.470  17.062 -0.1396 -0.2879  0.0747
 4322W        W47375   1.287  12.035  19.480  0.3455 -0.0776 -0.0562
 4323W        W47376   0.546   7.899  14.974  0.2766 -0.3369  0.2166
 4324W        W47377   9.890  15.031  27.106  0.0455  0.0220 -0.0110
 4325W        W47378   9.601  30.578  19.452  0.3150 -0.1392  0.2930
 4326W        W47379  32.945  31.123  23.252  0.2472 -0.2481 -0.0725
 4327W        W47380  11.521  15.901  17.596 -0.0478  0.2077 -0.2044
 4328W        W47381  33.515   8.828  16.761 -0.0897  0.1388  0.0575
 4329W        W47382   3.422   9.034  17.382 -0.1613  0.0950 -0.2402
 4330W        W47383   4.982   0.218  13.368  0.2083  0.3267 -0.0580
 4331W        W47384  27.968  28.940  22.505 -0.0021 -0.4075  0.0876
 4332W        W47385  34.619  30.818  16.610  0.0105 -0.1420  0.2208
 4333W        W47386  32.041   9.703  18.720  0.2085  0.0579 -0.3066
 4334W        W47387   6.711   1.655  19.992 -0.0890  0.2081 -0.1643
 4335W        W47388   6.447  20.050  18.789 -0.2186  0.0730 -0.2626
 4336W        W47389   3.832  19.799  27.240  0.3084 -0.3294 -0.1573
 4337W        W47390   5.392  32.449  23.482  0.1289  0.0123 -0.1632
 4338W        W47391   1.523  30.181  28.294 -0.0457 -0.0588 -0.0038
 4339W        W47392   5.585   1.471  13.590  0.1347 -0.2056 -0.1497
 4340W        W47393  34.076   0.344  15.644 -0.0911  0.0288 -0.1638
 4341W        W47394   8.219  10.479  16.132 -0.0404  0.3097 -0.0903
 4342W        W47395  10.268   5.846   2.355  0.0544 -0.0950 -0.1392
 4343W        W47396  11.132   2.531  27.620  0.2773 -0.0750  0.0687
 4344W        W47397  26.665  13.734  26.852 -0.0227 -0.2525 -0.0119
 4345W        W47398  13.580  33.586  25.849  0.4068 -0.1452 -0.1422
 4346W        W47399   0.900  28.355  27.487  0.0260  0.2818 -0.2633
 4347W        W47400  26.049   8.034  29.145  0.2914  0.1608 -0.0485
 4348W        W47401   4.202  11.865  19.096 -0.2114  0.0117  0.0357
 4349W        W47402   2.346   8.481  17.435  0.2990 -0.0420  0.2469
 4350W        W47403   2.478  23.423   8.788  0.3104  0.0204  0.0880
 4351W        W47404   4.861   5.343  21.816 -0.2228 -0.3100  0.0644
 4352W        W47405  14.666   1.163  26.956 -0.1765 -0.0130 -0.4345
 4353W        W47406  25.151  12.123  18.892  0.1384 -0.0856 -0.2242
 4354W        W47407   1.372  33.595  19.351 -0.4082 -0.1202  0.0593
 4355W        W47408   5.882   0.646  23.380 -0.2565  0.0064 -0.3245
 4356W        W47409   0.079   9.163  19.618  0.0896 -0.2091  0.0341
 4357W        W47410  13.441   1.696  15.353 -0.1197  0.1147 -0.1772
 4358W        W47411  32.475   0.292  15.185  0.0559 -0.4211  0.0358
 4359W        W47412  10.217   5.599  27.616 -0.0729  0.0330 -0.3339
 4360W        W47413  32.940  12.686  17.176 -0.2256  0.0633  0.1069
 4361W        W47414  30.856  27.405   5.463 -0.1854  0.1389  0.3769
 4362W        W47415   2.548   3.589  16.924  0.0711  0.1592  0.0469
 4363W        W47416   6.320   4.842  26.680 -0.0953 -0.0377 -0.3180
 4364W        W47417  12.026   1.014  17.141  0.0310  0.2467 -0.2999
 4365W        W47418  32.768  28.295  22.246 -0.1210  0.1063  0.2768
 4366W        W47419  21.706  28.432   8.542 -0.0687  0.1077 -0.0160
 4367W        W47420  26.382  16.536  22.734 -0.2853  0.1797 -0.0141
 4368W        W47421  19.866   6.861  14.966  0.0365  0.0868  0.0101
 4369W        W47422  32.624  31.336  21.561  0.0955  0.0291 -0.3136
 4370W        W47423  25.136  28.469  18.789  0.2035 -0.0422 -0.3725
 4371W        W47424  19.531  17.111  28.664  0.2474  0.1958 -0.0862
 4372W        W47425   4.768  17.267  26.675  0.1341 -0.1125  0.0580
 4373W        W47426   4.059  32.962  19.073  0.0065  0.0941 -0.1211
 4374W        W47427  27.576   4.002  21.821  0.3223  0.0880  0.0291
 4375W        W47428  10.535  30.477  17.544  0.2359 -0.0227  0.1579
 4376W        W47429   8.963  16.961  27.861  0.1331 -0.1120  0.1728
 4377W        W47430   2.294   3.113  20.852 -0.2074  0.2120  0.0775
 4378W        W47431  28.769  11.070  22.549  0.0849 -0.2999 -0.0965
 4379W        W47432   5.054  14.244   2.840 -0.0405  0.1037  0.1051
 4380W        W47433   2.302  12.220  21.923 -0.1841 -0.1809  0.0820
 4381W        W47434  21.944   6.566  16.467  0.0440 -0.0217 -0.2876
 4382W        W47435   9.560  29.892   0.531 -0.0278 -0.1721  0.2357
 4383W        W47436   4.619   9.754  21.907  0.0208  0.1585  0.4371
 4384W        W47437  17.158  29.839   3.841  0.0483  0.1880 -0.0358
 4385W        W47438  32.150   6.421  21.567 -0.1190 -0.0450  0.0877
 4386W        W47439   0.475   8.279  15.372 -0.1546 -0.0483 -0.1861
 4387W        W47440   4.297  10.228   2.319  0.0798 -0.3577  0.3710
 4388W        W47441  11.750  22.158  19.042  0.2848  0.3266  0.2154
 4389W        W47442  24.270   9.043  15.553 -0.1887  0.1131  0.0285
 4390W        W47443  11.187   7.903  26.145  0.1313  0.0001  0.2340
 4391W        W47444  28.121  34.146  19.984  0.1232 -0.0539  0.1262
 4392W        W47445  11.440   9.858  19.619 -0.0054 -0.2284 -0.1984
 4393W        W47446   4.861   3.343   8.883  0.0335 -0.3564 -0.1120
 4394W        W47447   2.049  21.461  20.042 -0.1170 -0.1555 -0.1035
 4395W        W47448  31.199  29.758  20.798  0.2053 -0.1873  0.1849
 4396W        W47449   6.166  16.869  22.793  0.3325  0.0890  0.0253
 4397W        W47450   1.616   6.100  23.572 -0.0413 -0.0265  0.0453
 4398W        W47451  27.141  25.815  17.970  0.0017  0.4400 -0.0834
 4399W        W47452  13.965  11.723  27.193 -0.0445 -0.0866  0.4997
 4400W        W47453   5.118   1.953  15.720 -0.2181 -0.1326  0.1769
 4401W        W47454  28.305  22.753  20.622  0.0870 -0.1347 -0.3331
 4402W        W47455  23.074  15.019  15.544  0.4284 -0.2653  0.0270
 4403W        W47456   1.374   9.127  21.046  0.3930  0.2257  0.1773
 4404W        W47457  26.810  14.611  21.965  0.0344 -0.1660  0.1863
 4405W        W47458  23.738  14.030  23.693  0.2543 -0.1214 -0.2571
 4406W        W47459  28.042  34.622  19.934 -0.1285  0.5076 -0.1591
 4407W        W47460  27.377   2.111  22.034 -0.0434 -0.2032  0.0248
 4408W        W47461  11.407  30.688  18.436  0.1338  0.0465 -0.2706
 4409W        W47462  23.054  14.031  17.013  0.2383  0.0266  0.0966
 4410W        W47463   5.739  33.132   7.653  0.1220 -0.0422  0.0417
 4411W        W47464  31.227  31.389  16.861  0.0406  0.2987  0.1559
 4412W        W47465   4.709  23.488  19.056 -0.0968  0.2419  0.1559
 4413W        W47466  32.034  33.104   8.557 -0.4262  0.0726 -0.0889
 4414W        W47467   6.882  15.648   9.907  0.2853  0.1768  0.2348
 4415W        W47468  16.252   1.857  19.946 -0.0006 -0.2461  0.1186
 4416W        W47469  32.555  32.074  24.140  0.0724  0.1689  0.2907
 4417W        W47470  17.886   1.960  20.017 -0.1427 -0.0431  0.0251
 4418W        W47471   2.759  30.644   7.156 -0.1032 -0.0999 -0.0349
 4419W        W47472   4.108   4.024  27.050 -0.0833  0.1754 -0.3045
 4420W        W47473  11.129   3.187   2.803  0.2133  0.1522 -0.3412
 4421W        W47474  27.333  11.053   0.566 -0.0958  0.2702 -0.2070
 4422W        W47475  13.143   3.034  16.860 -0.0415  0.3629 -0.0706
 4423W        W47476  28.223   5.037  19.386  0.2082  0.1696 -0.0070
 4424W        W47477   5.602  25.849  26.350  0.1336  0.1920 -0.1605
 4425W        W47478  20.894   2.714  14.900 -0.1082  0.1153 -0.1833
 4426W        W47479   1.431  33.347  24.423 -0.1051  0.0045  0.2646
 4427W        W47480  21.056  21.335  19.225  0.2119  0.4114  0.0255
 4428W        W47481  24.461   2.486  20.575  0.3146  0.2339 -0.1916
 4429W        W47482  15.948  10.083  25.124 -0.2291 -0.2037 -0.3059
 4430W        W47483  26.211  31.927  16.391  0.2562  0.5247  0.2714
 4431W        W47484  24.579  12.597  27.882  0.3784  0.2175 -0.0493
 4432W        W47485   1.035  28.046  19.831  0.1320  0.1165  0.0022
 4433W        W47486  29.156  33.410  20.733 -0.3089 -0.0791 -0.0607
 4434W        W47487   0.443  31.432  23.881 -0.0228  0.3609 -0.1667
 4435W        W47488  33.406   9.710  20.148  0.2326  0.3635  0.0735
 4436W        W47489  33.387   4.223  14.741  0.0059 -0.1334  0.2122
 4437W        W47490  18.396   1.870   7.543 -0.0836  0.0853 -0.2206
 4438W        W47491  11.380  26.582   0.514  0.4500 -0.0869 -0.0703
 4439W        W47492  21.085   4.258  18.180  0.2923 -0.0847  0.2680
 4440W        W47493  31.003  27.380  19.273 -0.2150 -0.0942 -0.0233
 4441W        W47494  30.645   8.220  18.647 -0.0989 -0.0261 -0.3087
 4442W        W47495  31.895   5.044  17.196 -0.0184 -0.0123  0.2008
 4443W        W47496   2.609   1.299  25.740 -0.5863  0.3514  0.1126
 4444W        W47497  21.289  30.031  18.070  0.2346 -0.0766  0.0776
 4445W        W47498   8.184  29.082  17.212  0.3306 -0.1207 -0.3258
 4446W        W47499  11.292  33.615  19.137 -0.1367  0.1710 -0.3425
 4447W        W47500   6.963   7.040  18.045 -0.1159  0.3476 -0.1826
 4448W        W47501  15.500   8.737   1.285 -0.1102 -0.0058 -0.1194
 4449W        W47502   0.676  25.513  17.424 -0.2377 -0.0205  0.0406
 4450W        W47503   7.210  23.734  16.925  0.3486  0.0132 -0.0651
 4451W        W47504   7.557  34.338  15.751  0.3954 -0.0350 -0.2635
 4452W        W47505   0.604   7.952  24.588 -0.2003 -0.0058 -0.0415
 4453W        W47506  33.952  13.003   2.392  0.2645 -0.1128 -0.1719
 4454W        W47507  25.698   3.692  14.992  0.1484 -0.0064 -0.0383
 4455W        W47508   3.120   8.092  16.108 -0.1196  0.1653  0.4122
 4456W        W47509   6.469  30.927  16.184  0.0242 -0.2620  0.0741
 4457W        W47510   2.948  28.035  26.833 -0.1396  0.1081 -0.1154
 4458W        W47511   5.357  27.703  24.265 -0.0684  0.1015 -0.0871
 4459W        W47512   8.476   5.878  16.894 -0.1348 -0.0151 -0.0301
 4460W        W47513  16.578   3.106  23.882  0.2816  0.0502  0.0794
 4461W        W47514  32.350  31.199  16.990 -0.2342 -0.3882  0.3201
 4462W        W47515  31.375   6.390  20.980 -0.2099 -0.3769 -0.1239
 4463W        W47516   9.904  18.624   7.205  0.0316  0.3163  0.3274
 4464W        W47517  26.884  11.665  20.703 -0.2219  0.0676  0.0928
 4465W        W47518   4.765  10.404  17.394  0.0320  0.0597  0.0047
 4466W        W47519  28.199   5.904  23.311  0.0448  0.1643 -0.0248
 4467W        W47520  15.099  24.063   9.929  0.1218  0.0863  0.2855
 4468W        W47521  25.466   7.382  17.671  0.1082  0.0683 -0.0315
 4469W        W47522   4.454   0.477  18.245  0.0039 -0.0925 -0.0400
 4470W        W47523   8.951  11.590  19.350 -0.1122 -0.1154 -0.3114
 4471W        W47524  20.664  27.555  23.354  0.2903 -0.4993 -0.1839
 4472W        W47525   0.178  18.873  29.152  0.1786  0.0171 -0.0638
 4473W        W47526  33.775  16.597  19.034  0.2344 -0.0008 -0.1216
 4474W        W47527  30.510  24.170  15.601 -0.3176 -0.0491 -0.1050
 4475W        W47528  32.575  30.056  20.158  0.1825  0.1186  0.0998
 4476W        W47529   4.103  25.672  18.323 -0.1601 -0.0392 -0.0473
 4477W        W47530   1.382   6.828  17.390 -0.4270 -0.0791 -0.1902
 4478W        W47531  10.628  29.044  23.925  0.0798 -0.0033 -0.0276
 4479W        W47532  13.105  11.983  24.226 -0.0256  0.3423  0.0136
 4480W        W47533   9.022  11.140   2.749  0.0404 -0.0723  0.0066
 4481W        W47534   7.745   7.554  16.324  0.0042  0.0129 -0.1371
 4482W        W47535  32.642  22.114  21.324 -0.0675 -0.0473 -0.0904
 4483W        W47536   5.282  34.656   2.875  0.2308 -0.1000 -0.3435
 4484W        W47537   0.552   1.983  22.376  0.2185 -0.0236  0.1337
 4485W        W47538  33.438  32.013   8.055  0.2226 -0.0578 -0.1870
 4486W        W47539  24.740   4.975  20.353  0.1964 -0.1087  0.0088
 4487W        W47540  26.182   5.703  16.457 -0.1592  0.1111  0.3553
 4488W        W47541  11.184  34.112  18.073 -0.1859  0.1603  0.1379
 4489W        W47542   9.293   3.223  27.340  0.1342 -0.1935  0.3231
 4490W        W47543   4.998   2.646   3.419  0.0626 -0.1456  0.2597
 4491W        W47544  27.696   9.597  26.476 -0.1105 -0.0355 -0.2798
 4492W        W47545  20.614   4.968  20.746  0.0312 -0.0375 -0.2834
 4493W        W47546   6.874   2.298  16.611  0.2260  0.1226  0.2794
 4494W        W47547   4.379   3.618  14.206  0.0711 -0.3582 -0.2212
 4495W        W47548   5.049  13.361  23.317 -0.0709  0.0613 -0.0650
 4496W        W47549  13.781  29.349  16.342 -0.0553 -0.0658  0.1625
 4497W        W47550   2.446   8.037  27.092  0.1923  0.0137 -0.2080
 4498W        W47551   3.847   6.303  15.714 -0.2107 -0.0162  0.0490
 4499W        W47552  27.818  10.596  20.615 -0.1335  0.2311  0.0267
 4500W        W47553  15.018   2.868  22.667 -0.1693 -0.0734 -0.3272
 4501W        W47554  13.531   1.200  19.299  0.0974  0.0874 -0.1364
 4502W        W47555  28.773  25.057  17.572  0.0412 -0.0695 -0.0691
 4503W        W47556  32.086  29.500  15.629  0.0603 -0.2261 -0.1900
 4504W        W47557   6.580  25.979   4.438  0.2528 -0.2441 -0.1658
 4505W        W47558   1.797   5.494  13.428 -0.0143 -0.0560 -0.0866
 4506W        W47559  25.999  11.351   1.930  0.1529  0.0685 -0.3756
 4507W        W47560   2.246  31.339  14.614  0.1951  0.0495 -0.0602
 4508W        W47561  31.913  31.493  14.607 -0.3985  0.0516  0.0400
 4509W        W47562   3.418  19.393  28.109 -0.0874  0.1031  0.2418
 4510W        W47563   0.673   4.168  26.648  0.3718  0.3173 -0.2996
 4511W        W47564  31.503   6.831   5.875 -0.0099 -0.0855  0.0904
 4512W        W47565  14.938  22.387  23.578 -0.1958  0.0027  0.1413
 4513W        W47566  18.568   5.089  26.407 -0.0808  0.1388 -0.2258
 4514W        W47567  32.878   8.944  23.143  0.0954 -0.0616  0.1228
 4515W        W47568   7.931   6.131  27.559  0.3621 -0.1116 -0.2076
 4516W        W47569   4.585  26.606  19.555  0.2100  0.0228  0.1671
 4517W        W47570  31.862  31.170  17.920 -0.2106 -0.3128 -0.1721
 4518W        W47571   1.744  34.627   9.159  0.0524  0.0761 -0.0987
 4519W        W47572   4.830  14.290  16.285 -0.0733 -0.0552  0.1561
 4520W        W47573   6.318  16.628  28.255 -0.0827  0.0031 -0.4757
 4521W        W47574  30.358  33.004  20.903 -0.1147  0.3847  0.2000
 4522W        W47575  34.508  28.329  14.621  0.0841  0.2023  0.0565
 4523W        W47576   9.036  31.358  16.041 -0.0623  0.2970 -0.0435
 4524W        W47577  33.218  26.755  25.540 -0.0127  0.1727 -0.0649
 4525W        W47578   2.492  12.914  14.519 -0.0420 -0.1585 -0.0157
 4526W        W47579  33.458  25.452  14.175 -0.2246 -0.1720  0.0918
 4527W        W47580   7.417   8.401   3.185 -0.1497 -0.3868  0.3913
 4528W        W47581  25.134   8.982  20.712 -0.2407 -0.3631 -0.2371
 4529W        W47582  31.767   5.387  25.196 -0.3298  0.0893  0.2865
 4530W        W47583   2.887  13.918  14.745  0.0497  0.2271 -0.1122
 4531W        W47584   2.487  28.629  15.506  0.0031 -0.1133  0.0312
 4532W        W47585  29.887  23.245  17.978  0.1818 -0.0938 -0.2895
 4533W        W47586  17.741  34.098  21.010  0.1192  0.1050 -0.1220
 4534W        W47587  23.097  12.616  25.508  0.0415  0.0700 -0.4387
 4535W        W47588  28.741  23.332   1.130  0.2375 -0.1285  0.1606
 4536W        W47589  33.701   2.675  18.723  0.2395  0.0079 -0.0291
 4537W        W47590  31.228  21.847  21.484  0.3709 -0.1301 -0.3387
 4538W        W47591  11.634   8.626  21.101  0.2188 -0.1578 -0.0964
 4539W        W47592  12.088  19.957  15.433 -0.1973  0.4246 -0.3977
 4540W        W47593  23.326  28.117  26.770  0.1900  0.1943  0.2172
 4541W        W47594   5.631  26.204  16.731  0.1476  0.0145 -0.2441
 4542W        W47595  10.568  28.381  13.667  0.0495  0.0067  0.0974
 4543W        W47596  17.064   6.117  14.930 -0.0986 -0.1413  0.0186
 4544W        W47597  29.151   4.963  22.351 -0.2571 -0.1147  0.1884
 4545W        W47598  15.259  20.154  25.479  0.0870 -0.1029 -0.0154
 4546W        W47599   5.397  15.359  21.920  0.2164 -0.0813  0.1016
 4547W        W47600  23.729  14.904  16.244 -0.0588  0.1378 -0.1571
 4548W        W47601  12.880  30.121  22.990  0.1243 -0.0531 -0.1935
 4549W        W47602   5.322  31.445  25.877  0.0790 -0.0519 -0.0259
 4550W        W47603  33.125   4.685   5.452  0.0127  0.0658 -0.2527
 4551W        W47604  33.379  34.373  19.491  0.0877 -0.3068  0.1269
 4552W        W47605   9.207   5.328  20.791 -0.2632 -0.2705 -0.0002
 4553W        W47606   6.620   2.593   1.180  0.0031  0.1725  0.0201
 4554W        W47607   3.634  25.806  16.741 -0.0191  0.1626  0.1583
 4555W        W47608   9.074   9.437  22.810 -0.0590  0.1218 -0.0275
 4556W        W47609  19.002   1.866  23.422 -0.1144 -0.1005  0.1552
 4557W        W47610   5.300  33.163  24.765 -0.1204  0.0321 -0.0812
 4558W        W47611   4.838  11.354  15.060 -0.1208  0.3337 -0.2117
 4559W        W47612   5.687   5.390  29.138  0.0568  0.1088  0.3858
 4560W        W47613   5.383  13.973  26.004  0.0036 -0.0616 -0.0671
 4561W        W47614   7.754  33.113  15.031  0.0430 -0.1294  0.1661
 4562W        W47615  31.892   2.658  18.137 -0.0395  0.2010 -0.3242
 4563W        W47616  11.116  32.739  16.400 -0.0265  0.0268 -0.2958
 4564W        W47617   4.301   4.605  19.282  0.0955 -0.1329 -0.1055
 4565W        W47618  28.779   1.253  17.501 -0.4370 -0.2831 -0.0171
 4566W        W47619  25.071  30.819  16.979  0.1308 -0.0146 -0.2573
 4567W        W47620   4.768  18.378  17.745 -0.1331 -0.1567  0.1144
 4568W        W47621   1.493  31.301   1.677  0.2352 -0.1853 -0.4137
 4569W        W47622   5.362  28.944  20.676  0.1931  0.2389 -0.3896
 4570W        W47623   7.199  33.368  19.786  0.0847  0.0662 -0.1695
 4571W        W47624   0.489  29.540   4.067 -0.0041 -0.0778 -0.0565
 4572W        W47625  26.174   2.649  24.201  0.2304 -0.1171 -0.0620
 4573W        W47626   1.743   9.580  14.391  0.0887 -0.2846 -0.1020
 4574W        W47627  27.434  11.762  17.348  0.2195 -0.2626  0.0259
 4575W        W47628   1.590   0.391  15.151 -0.0933 -0.0141 -0.1964
 4576W        W47629  14.562  26.996  19.728  0.0647  0.0776 -0.0249
 4577W        W47630  33.163  33.732  16.519  0.1582  0.0437  0.1488
 4578W        W47631   6.861  32.285  19.289  0.1605 -0.4030  0.1613
 4579W        W47632  28.313  16.930  25.612 -0.1964 -0.1002  0.0470
 4580W        W47633   0.748  16.649  26.750 -0.3816  0.0631 -0.2221
 4581W        W47634  27.417   4.832  26.553  0.1431  0.1143  0.4222
 4582W        W47635   9.398   9.326  15.262 -0.2746  0.0312 -0.1221
 4583W        W47636  33.228  23.435  21.141 -0.4976  0.2130 -0.0074
 4584W        W47637   4.528  33.253  25.735 -0.3167 -0.2511  0.3310
 4585W        W47638   5.059   1.104  17.649  0.0564  0.1783  0.0864
 4586W        W47639  12.995  16.200  25.441  0.2029 -0.1469 -0.0006
 4587W        W47640   8.664   3.067  24.211 -0.3990 -0.2507  0.1859
 4588W        W47641   1.097  11.702  21.324 -0.2716  0.3240 -0.1156
 4589W        W47642  30.290   7.942  27.438  0.3251 -0.2485  0.1595
 4590W        W47643  30.884  28.143  24.966  0.2254  0.2083 -0.0284
 4591W        W47644  26.419  19.271   3.187 -0.1758  0.0560  0.0820
 4592W        W47645  22.631   5.803  20.928  0.1516 -0.0004  0.2300
 4593W        W47646  21.171  23.942   3.206 -0.3006 -0.0340 -0.0755
 4594W        W47647   1.650   0.779  20.578  0.1964 -0.0775 -0.0277
 4595W        W47648  33.869   4.391  27.979  0.0547  0.0182  0.0254
 4596W        W47649  30.234   5.797  14.969 -0.2330  0.0227  0.4091
 4597W        W47650  24.572  29.983  25.996 -0.1274  0.1450  0.0857
 4598W        W47651  26.329  16.369  25.053  0.3090 -0.2318  0.0064
 4599W        W47652  29.549   4.106  22.905  0.0432  0.1572 -0.1673
 4600W        W47653  29.390   2.637  16.772 -0.2135  0.0684 -0.0832
 4601W        W47654  10.393   2.666  21.966 -0.0212  0.0069  0.2189
 4602W        W47655   1.086   2.223  20.757 -0.1489 -0.3022  0.0262
 4603W        W47656  33.344  31.866  18.542  0.1955 -0.0176 -0.1025
 4604W        W47657   4.677  26.133  26.071 -0.1402  0.2000 -0.3539
 4605W        W47658   3.381   5.416  15.344 -0.0685  0.2474  0.4572
 4606W        W47659  32.169  34.104  19.155 -0.0435  0.0952 -0.3803
 4607W        W47660  22.322   8.053  15.777  0.0411 -0.2445  0.2529
 4608W        W47661   7.258  12.979  15.527  0.2880  0.0697 -0.1668
 4609W        W47662   2.854   7.446  28.306  0.0602  0.3887  0.1259
 4610W        W47663  31.335  28.709  25.576 -0.0736  0.1131 -0.2592
 4611W        W47664  28.818  27.581   3.224  0.2947 -0.0563 -0.0224
 4612W        W47665  30.361  26.844  14.103 -0.1036 -0.2861 -0.0681
 4613W        W47666  29.376  23.479  25.915  0.1139  0.0739  0.0240
 4614W        W47667   9.451  34.676  16.328  0.1049  0.1031  0.1637
 4615W        W47668   5.771   7.559   8.210  0.1386  0.1629 -0.0397
 4616W        W47669  32.975  18.655   5.986  0.0987  0.1054 -0.2184
 4617W        W47670  30.978  31.829   0.553  0.0625 -0.3040  0.2879
 4618W        W47671  24.791  16.143  17.168 -0.0280 -0.2673  0.2480
 4619W        W47672  34.602  24.670  18.717  0.1519  0.3930 -0.0475
 4620W        W47673  32.168  17.636  25.602  0.3694  0.0612 -0.1022
 4621W        W47674  15.126   2.811  13.872 -0.2359 -0.0024  0.0460
 4622W        W47675  33.735   4.806   2.078 -0.1622  0.4210  0.1154
 4623W        W47676  26.294  25.569  23.788 -0.0392 -0.1750 -0.1671
 4624W        W47677  13.143   2.421  21.730 -0.0614  0.2269 -0.3032
 4625W        W47678   3.448  15.552  20.180 -0.0414  0.1995  0.0542
 4626W        W47679   4.035  15.492   2.570 -0.5539  0.1551 -0.1883
 4627W        W47680  12.084  13.563  16.400  0.0777 -0.0305 -0.0058
 4628W        W47681   7.394   0.653  22.962  0.1960 -0.2864 -0.0762
 4629W        W47682  18.823  10.933  28.662 -0.3538 -0.1979  0.2125
 4630W        W47683   5.290  11.133  17.455 -0.2603  0.0919 -0.2269
 4631W        W47684   0.172  34.591  23.098 -0.0408  0.2184  0.1447
 4632W        W47685   1.396   7.179   2.583  0.2448 -0.1802  0.0297
 4633W        W47686   5.756  20.770  13.590  0.0925 -0.0664 -0.1930
 4634W        W47687   6.622  12.416  20.430 -0.2498 -0.0042 -0.1082
 4635W        W47688  32.117  28.057  14.147 -0.1641 -0.1428  0.1646
 4636W        W47689   0.638   1.488  19.653  0.1769 -0.0371 -0.0371
 4637W        W47690   4.537  33.788  18.553 -0.1804  0.1338  0.0383
 4638W        W47691  28.674   9.694  15.094  0.2698  0.0018 -0.0287
 4639W        W47692   3.211  22.219  20.281 -0.0802  0.0864  0.0921
 4640W        W47693  21.449  31.109  14.408 -0.2379 -0.1205 -0.2175
 4641W        W47694   9.104   3.096  15.812 -0.2723 -0.2026  0.1809
 4642W        W47695  29.907  12.999  27.876  0.1071  0.0653  0.0187
 4643W        W47696   5.807  26.416   6.512  0.1238  0.0516  0.0872
 4644W        W47697  21.818  29.005  15.471 -0.0199  0.1242  0.0275
 4645W        W47698   2.849   3.200  22.165 -0.1432  0.1063  0.0649
 4646W        W47699  32.548  21.350   4.863  0.2137 -0.0335 -0.3381
 4647W        W47700  29.342   4.690  18.061 -0.0427  0.1263  0.2626
 4648W        W47701  22.526  32.263  15.345 -0.1826 -0.0675 -0.2346
 4649W        W47702  11.450  24.721   8.897  0.0969 -0.1982  0.0766
 4650W        W47703   4.063  11.933   1.223 -0.3773 -0.2024  0.0796
 4651W        W47704   0.330   6.813  15.152 -0.1449 -0.2261 -0.0541
 4652W        W47705  31.874  30.436  17.378  0.0537  0.0426 -0.0836
 4653W        W47706  31.652   4.669  25.143  0.1243 -0.2061  0.1107
 4654W        W47707   2.946   4.635   6.182 -0.2175 -0.0172  0.1597
 4655W        W47708  26.595   7.558  13.841 -0.0510  0.0374  0.1789
 4656W        W47709  26.760  25.178  17.280 -0.1522 -0.0116 -0.0012
 4657W        W47710   1.727   5.064  26.122 -0.0615 -0.2090 -0.1376
 4658W        W47711  27.147   5.892  15.644 -0.1190 -0.1558 -0.0440
 4659W        W47712  13.399   6.324  17.990 -0.1672 -0.1656  0.1575
 4660W        W47713   2.365  32.466  14.527  0.3501  0.0386 -0.0969
 4661W        W47714   5.621   7.883  23.888  0.0540  0.0295 -0.4073
 4662W        W47715   6.089  14.477  19.402 -0.0093  0.0548 -0.1462
 4663W        W47716   2.680  31.112  14.474 -0.2243 -0.1401  0.0255
 4664W        W47717   4.480  18.239  16.902  0.1703  0.1330 -0.1008
 4665W        W47718   7.715  29.454   3.848  0.1496  0.1981  0.0868
 4666W        W47719   0.799   3.450  28.334  0.0250 -0.1343  0.2107
 4667W        W47720  31.595  13.441  16.947  0.0596  0.2632  0.0388
 4668W        W47721  11.820  27.931  23.389 -0.1472  0.0167  0.1535
 4669W        W47722  30.886  27.945  21.637  0.0009  0.1627  0.0221
 4670W        W47723  26.515  18.069  18.154  0.1247  0.0601 -0.1304
 4671W        W47724   6.933   2.794  25.255 -0.2267  0.1775  0.1590
 4672W        W47725  31.159  24.144  18.976 -0.1116 -0.2108  0.0008
 4673W        W47726  29.545   2.807  21.078  0.0352 -0.1292  0.1022
 4674W        W47727   4.087   2.888  26.209 -0.0035 -0.1336 -0.0109
 4675W        W47728  32.122  17.905  26.628 -0.1143  0.2646 -0.5809
 4676W        W47729   0.545  13.567  21.605  0.3385  0.0360  0.2410
 4677W        W47730  25.022   5.554  14.430 -0.1095  0.0463 -0.0221
 4678W        W47731   0.065  30.176  19.276 -0.3346 -0.2675 -0.0650
 4679W        W47732  30.223  26.307  23.344  0.0866 -0.0648 -0.0815
 4680W        W47733   8.128  26.170  18.883 -0.0452  0.1819  0.1420
 4681W        W47734   2.596  16.082   4.836  0.1366  0.3538 -0.1937
 4682W        W47735  28.551  27.259  21.862  0.3485 -0.1710 -0.0631
 4683W        W47736  29.703  30.256  28.342 -0.2491  0.3654  0.1930
 4684W        W47737   6.075  32.710  26.868 -0.3048  0.2643 -0.2211
 4685W        W47738   2.395   7.823  16.296 -0.1853  0.3886  0.0898
 4686W        W47739  29.728   6.596   3.880 -0.1428 -0.0537 -0.0630
 4687W        W47740  25.574   6.811  22.018  0.2216 -0.2163 -0.0075
 4688W        W47741   9.565  18.624  25.026  0.1979 -0.3122  0.2040
 4689W        W47742   3.544   4.718  16.145 -0.0380 -0.0711 -0.1422
 4690W        W47743   9.166   7.767   5.794 -0.0451 -0.1238  0.0714
 4691W        W47744  19.720   0.201  19.205  0.2905 -0.0429  0.0812
 4692W        W47745  32.453  23.963  21.741  0.1072  0.2026  0.2822
 4693W        W47746   1.756  33.708   4.624  0.0593 -0.2206  0.1921
 4694W        W47747  24.987  10.594  25.131 -0.3666 -0.0355 -0.1234
 4695W        W47748   5.528  26.468   8.198  0.1538 -0.2702 -0.0842
 4696W        W47749   2.381  16.752  13.983  0.0145 -0.0141 -0.0026
 4697W        W47750   2.607  29.834  28.268 -0.0584 -0.0931 -0.1981
 4698W        W47751  17.535   1.280  27.358 -0.1851 -0.1087  0.1421
 4699W        W47752   8.237  26.210   3.393 -0.0078 -0.0139 -0.0769
 4700W        W47753   3.032   7.983  25.418 -0.0476  0.2974 -0.0475
 4701W        W47754   4.136  10.768  24.185 -0.2163 -0.1585 -0.0713
 4702W        W47755  22.487   9.191   6.178  0.2254 -0.5093  0.1615
 4703W        W47756   8.006  11.296  16.945  0.1450  0.0611 -0.2791
 4704W        W47757   5.660  30.415  28.211  0.2000  0.1458 -0.1776
 4705W        W47758   3.340  21.037   8.055 -0.1212 -0.5651 -0.1051
 4706W        W47759  15.511  16.905  16.264 -0.0935  0.1942 -0.0472
 4707W        W47760  11.349  22.610  19.299  0.1389  0.0465  0.1310
 4708W        W47761  19.222  28.184  27.246 -0.0545  0.2138  0.4073
 4709W        W47762  29.705   8.535  14.318 -0.1297 -0.0628 -0.4112
 4710W        W47763  28.075   1.668   0.592 -0.3131 -0.0079 -0.0142
 4711W        W47764   6.033  11.851  25.230 -0.1159  0.2214  0.4371
 4712W        W47765   9.156   8.172  18.069 -0.2560  0.1651 -0.3137
 4713W        W47766   4.654   4.245  22.458 -0.0594  0.1324 -0.1359
 4714W        W47767  22.939  15.367  23.501 -0.1061 -0.2282  0.1327
 4715W        W47768  30.634   2.297  15.090 -0.0864 -0.1174 -0.2575
 4716W        W47769  34.105  26.299  17.198  0.3238  0.1108  0.0865
 4717W        W47770  15.076   8.994  16.894  0.0979  0.0402  0.1059
 4718W        W47771  27.131   4.700  27.581  0.0059  0.2390 -0.1162
 4719W        W47772  24.253   9.759  21.578  0.1442 -0.0478  0.0898
 4720W        W47773  12.366  32.522  20.655 -0.1854  0.2796  0.2030
 4721W        W47774   1.555  26.418  25.319 -0.1950  0.1808  0.2118
 4722W        W47775  31.716   3.890  14.936 -0.1549  0.2433 -0.1307
 4723W        W47776   3.475  30.517  18.840  0.0517  0.0895 -0.1106
 4724W        W47777  25.798   5.807  24.847 -0.1159  0.2802  0.1848
 4725W        W47778   2.633  19.854  14.544 -0.0985  0.1315 -0.0252
 4726W        W47779  29.590  29.670  18.246  0.4006 -0.2570 -0.2496
 4727W        W47780   5.088   1.360  28.024  0.0822  0.1883  0.1502
 4728W        W47781  25.331  29.133  21.578 -0.2449  0.3893 -0.0268
 4729W        W47782   6.168  29.526  28.177 -0.0669 -0.0201 -0.0204
 4730W        W47783   7.875   1.646  16.025 -0.1542  0.1418  0.2280
 4731W        W47784  26.488  26.267  18.706  0.0289 -0.1354  0.0164
 4732W        W47785  32.098  18.515  21.164  0.0647  0.0646  0.1370
 4733W        W47786  13.363  11.987  19.743 -0.0617 -0.2360  0.1934
 4734W        W47787  33.460  23.241  16.733 -0.1483  0.0649  0.0415
 4735W        W47788  33.815  14.150  20.692  0.2089 -0.0496 -0.0236
 4736W        W47789  24.660  18.622  19.467 -0.1958  0.1750 -0.2384
 4737W        W47790  13.748  32.134  15.098 -0.1447 -0.0633 -0.0475
 4738W        W47791  23.573  34.471  28.575  0.1858  0.0148 -0.2470
 4739W        W47792   4.774   8.244  16.525  0.2234 -0.0242  0.1008
 4740W        W47793  29.637   0.843  15.339  0.1657  0.0925 -0.0239
 4741W        W47794  16.861   3.551  18.684 -0.0060 -0.1433 -0.0646
 4742W        W47795  33.228   7.561  14.297 -0.0230  0.4123 -0.1536
 4743W        W47796  24.243  13.470  22.969 -0.1937 -0.1642 -0.0071
 4744W        W47797  30.412   6.211  22.432  0.0697 -0.0518 -0.3990
 4745W        W47798   0.151   7.567  25.739 -0.0792  0.2476  0.0733
 4746W        W47799  14.010   1.520  20.589 -0.1403 -0.1000 -0.1112
 4747W        W47800  28.179  14.212  15.563 -0.2687 -0.1016  0.1338
 4748W        W47801  34.501  16.489  25.569 -0.0329  0.0571  0.0909
 4749W        W47802   4.623  12.253   8.205  0.0770 -0.1056 -0.0400
 4750W        W47803  31.829  14.329  15.180 -0.2996  0.2732  0.0115
 4751W        W47804  15.365   3.419   6.932 -0.2375  0.0664 -0.1467
 4752W        W47805   1.768  16.107   1.581  0.0557 -0.0299  0.2337
 4753W        W47806  30.963   3.246  18.158  0.1891  0.1975 -0.2450
 4754W        W47807  10.256  31.853  14.123  0.0661 -0.1429  0.0475
 4755W        W47808  23.541  32.189  15.946  0.1560  0.0653 -0.2784
 4756W        W47809  19.355   1.835  17.519  0.1768  0.1591 -0.1529
 4757W        W47810  22.264   1.251  27.658  0.2463 -0.0735  0.0011
 4758W        W47811  17.440  30.484  18.468  0.0125  0.3265 -0.1705
 4759W        W47812  34.062   0.064  16.215 -0.1693 -0.0987 -0.0045
 4760W        W47813   5.911  30.348  21.187 -0.1557 -0.0022  0.0782
 4761W        W47814  31.365   8.782  28.492 -0.0565 -0.4185 -0.1277
 4762W        W47815   7.383  18.330  26.700  0.2622  0.0655 -0.0453
 4763W        W47816  11.383   4.768   4.476 -0.2678 -0.0499 -0.1124
 4764W        W47817  33.328   1.095   5.789 -0.0766 -0.0593  0.2192
 4765W        W47818  11.909  32.978  16.775  0.0708 -0.2795  0.1011
 4766W        W47819   6.132  20.771  19.783 -0.0604 -0.2769  0.0209
 4767W        W47820   0.538  13.360  17.176  0.1800 -0.1269  0.0362
 4768W        W47821   9.830  31.856  17.449 -0.1075  0.1968 -0.2679
 4769W        W47822  23.878   3.509   5.055 -0.1116 -0.0835  0.1037
 4770W        W47823  33.788   1.773  20.618  0.0493  0.1743  0.2078
 4771W        W47824  31.751  34.334  20.556 -0.4596 -0.3707 -0.1958
 4772W        W47825   8.724   2.553  23.762  0.0296 -0.2876  0.0394
 4773W        W47826   5.232  27.213  27.063  0.1092  0.2136  0.0848
 4774W        W47827  17.150   8.380   8.762  0.2964  0.2094 -0.0863
 4775W        W47828  14.545  32.560  17.947 -0.2405 -0.0562 -0.0604
 4776W        W47829   2.590  12.068   2.025 -0.1685 -0.0290  0.4165
 4777W        W47830  12.622  18.756  23.456 -0.0999 -0.2321 -0.0220
 4778W        W47831   0.291   1.253  16.500 -0.0950 -0.2494  0.2940
 4779W        W47832  28.850  25.080   4.494  0.0649 -0.1866  0.2127
 4780W        W47833  32.017  32.558   7.405  0.0964  0.0947  0.4587
 4781W        W47834  12.509  34.503  24.900 -0.0019  0.0928 -0.0827
 4782W        W47835   4.605   7.481  23.293  0.0483  0.1670  0.0061
 4783W        W47836   1.478  29.180   6.088 -0.1391  0.0317  0.3020
 4784W        W47837   0.420  10.992  26.622  0.3454  0.2145  0.0257
 4785W        W47838  24.849   8.021  25.256 -0.0611  0.1937 -0.1984
 4786W        W47839   8.226   8.954  24.479 -0.0908 -0.2822  0.0566
 4787W        W47840  11.788  32.513  24.130 -0.1719  0.1516 -0.3550
 4788W        W47841  11.423  28.274  22.744  0.3069  0.3880  0.0487
 4789W        W47842  30.263   8.449   2.419 -0.0193  0.2389 -0.0859
 4790W        W47843   3.981  24.906   1.204 -0.0997  0.0078 -0.3581
 4791W        W47844  31.237   6.231   0.091  0.1040 -0.1449  0.0355
 4792W        W47845  31.258  18.065  19.574  0.2367 -0.0968  0.1339
 4793W        W47846   2.889  12.160  15.795 -0.2720  0.0198 -0.1608
 4794W        W47847  33.466  33.657  25.627  0.1230 -0.0840  0.0150
 4795W        W47848   4.183  16.913   5.916 -0.0453  0.0035 -0.0767
 4796W        W47849  32.547   2.082   1.883 -0.0236 -0.1154  0.0193
 4797W        W47850  34.188   7.934  25.491  0.1024 -0.0651  0.0242
 4798W        W47851  12.509  30.916  19.893 -0.0236  0.1319  0.0636
 4799W        W47852   0.363  25.189  13.615  0.0656 -0.1108 -0.2314
 4800W        W47853   8.757  30.032  14.193  0.1783  0.1201  0.0421
 4801W        W47854   6.596  18.343  14.034  0.0419  0.0639  0.2166
 4802W        W47855  22.546  26.257  20.141  0.0475  0.0849 -0.2424
 4803W        W47856  11.561  24.837  16.879 -0.2073 -0.2523 -0.0004
 4804W        W47857  19.591   3.459  25.808  0.1676 -0.0965  0.1182
 4805W        W47858  11.023   3.783   8.071 -0.3522 -0.2397 -0.3039
 4806W        W47859  24.634  18.133  13.998 -0.0569  0.2308 -0.1082
 4807W        W47860   0.491  10.104  24.523 -0.2115 -0.0571 -0.0507
 4808W        W47861   9.467  25.015  13.648  0.0256  0.0143 -0.0554
 4809W        W47862   5.227   0.654   6.236  0.3716 -0.0993  0.1464
 4810W        W47863  10.929  14.776  24.365  0.0937  0.3095  0.0445
 4811W        W47864  32.280  22.959   4.945 -0.1897 -0.0557  0.0894
 4812W        W47865  32.851   7.889  14.005 -0.2008  0.0124 -0.1662
 4813W        W47866  11.795   5.116  16.532 -0.1916  0.0113  0.1236
 4814W        W47867  32.176   2.990  16.719 -0.1354  0.3197 -0.1152
 4815W        W47868  12.435   5.864  25.323  0.0567 -0.1687  0.0201
 4816W        W47869  20.869   0.938  22.642  0.5511  0.0944  0.2819
 4817W        W47870  25.318  28.077  20.669 -0.1366 -0.0161 -0.0494
 4818W        W47871  34.367  29.327  24.940  0.2801  0.0322 -0.0415
 4819W        W47872  26.201  20.939  18.904 -0.0825 -0.0459  0.1004
 4820W        W47873  14.149   4.442  15.226 -0.1139 -0.0099 -0.3066
 4821W        W47874   7.765   2.442   4.973 -0.1114 -0.1955  0.0363
 4822W        W47875   7.216  29.448  17.026  0.0486  0.0902 -0.0029
 4823W        W47876  22.342   8.546   9.613 -0.2891  0.1330  0.1163
 4824W        W47877   2.275   9.878  28.643  0.2633 -0.0508  0.0948
 4825W        W47878  15.678  26.782  15.891  0.0851 -0.2947  0.0594
 4826W        W47879  19.562  12.296   8.394  0.1261 -0.2112  0.0966
 4827W        W47880   6.627  33.384   3.006  0.1907 -0.1346  0.2170
 4828W        W47881   5.910  11.947  17.720 -0.1306 -0.1658  0.0189
 4829W        W47882  12.111   2.048  16.655 -0.0730 -0.0639 -0.2045
 4830W        W47883   5.136  32.411  16.966  0.2283  0.0792  0.0577
 4831W        W47884  10.652   7.688   8.643  0.1454  0.0078  0.1588
 4832W        W47885  17.148   8.428   5.765  0.0588 -0.0664 -0.0749
 4833W        W47886  28.255  34.337  15.344 -0.2391  0.1929 -0.3544
 4834W        W47887   3.287   3.041  14.921 -0.0351  0.3390 -0.1870
 4835W        W47888  11.804  16.741  28.268 -0.3797 -0.0190  0.3157
 4836W        W47889   7.711  15.434  29.120 -0.1148 -0.0120 -0.2226
 4837W        W47890   5.177   5.345  18.444  0.0043 -0.1033  0.1844
 4838W        W47891  32.944  34.563  19.175  0.0650  0.0066 -0.0009
 4839W        W47892  23.719   3.182   3.023  0.0921 -0.1012  0.0626
 4840W        W47893   1.822   3.008  20.319 -0.1718 -0.1017  0.0587
 4841W        W47894   6.461  14.385   1.749 -0.0692 -0.2531 -0.3774
 4842W        W47895  20.878   4.797   5.730 -0.2462 -0.1548  0.1795
 4843W        W47896  19.131   5.626   9.984  0.2476  0.1156 -0.0473
 4844W        W47897  19.354  28.720  16.035  0.1318  0.0297 -0.0896
 4845W        W47898  30.778  19.658  18.923  0.1930 -0.2157 -0.0351
 4846W        W47899  20.845   0.097   2.420 -0.4611 -0.2555  0.0888
 4847W        W47900  30.294   8.547   0.527 -0.0222 -0.1078 -0.2894
 4848W        W47901   1.103  24.070   2.006  0.2045  0.0322 -0.2052
 4849W        W47902  23.474  16.220   4.163 -0.1017  0.1611  0.0945
 4850W        W47903  27.277   2.323  25.127  0.2361  0.0091 -0.2166
 4851W        W47904   5.051  22.246   4.825 -0.1625  0.1382 -0.1482
 4852W        W47905   7.264   0.617  18.315  0.1185 -0.0811  0.1357
 4853W        W47906  31.329   7.745  15.956  0.1250 -0.0993  0.0946
 4854W        W47907   9.014  23.410   8.624  0.1589 -0.2334 -0.2775
 4855W        W47908  31.890  24.102  19.615 -0.1717  0.0882  0.2412
 4856W        W47909   0.676   5.057  26.594  0.0233 -0.1329 -0.0033
 4857W        W47910  25.598  31.597  16.906  0.3693  0.4098 -0.2308
 4858W        W47911  34.288  33.870  15.805 -0.1242  0.2230 -0.1992
 4859W        W47912  28.906   5.887  17.074 -0.0811  0.0817 -0.0982
 4860W        W47913   1.328  25.074  25.663 -0.1963 -0.1537  0.0362
 4861W        W47914  19.566  32.699  24.364  0.0876 -0.1689 -0.0815
 4862W        W47915   1.578  15.754  22.808  0.2085  0.3210  0.2869
 4863W        W47916   6.207  33.893   8.401 -0.1960  0.3052 -0.1417
 4864W        W47917  12.260   9.530  22.445  0.0675 -0.5607 -0.2687
 4865W        W47918  22.547  33.939  19.810  0.0966  0.0036 -0.1671
 4866W        W47919   9.382   1.969  15.131 -0.0461  0.1609 -0.1401
 4867W        W47920  20.273  11.030  22.357 -0.0500 -0.1679  0.0019
 4868W        W47921  20.822  10.287   4.900  0.0887 -0.0822 -0.2004
 4869W        W47922  17.949  27.110  26.288 -0.0082 -0.2432  0.0733
 4870W        W47923  22.052  11.420  25.030  0.2189 -0.1206 -0.1613
 4871W        W47924  27.989  26.223  19.738  0.1776  0.1186 -0.2774
 4872W        W47925   5.355  10.173  27.300  0.1085 -0.1492 -0.1450
 4873W        W47926   3.279  29.972  13.372 -0.2583 -0.3722  0.0773
 4874W        W47927   1.331   6.855   4.471 -0.3070 -0.0033 -0.0511
 4875W        W47928  29.178  16.440   7.141 -0.1238 -0.0319  0.1727
 4876W        W47929  30.930   8.983  19.120  0.0950 -0.1985 -0.0617
 4877W        W47930  33.353  31.762  28.420 -0.0722  0.2456  0.0891
 4878W        W47931  29.598  26.605  19.309 -0.3028 -0.0708  0.3112
 4879W        W47932  31.909  34.233  20.004 -0.0003 -0.2503  0.0955
 4880W        W47933   5.509  10.262  19.283 -0.0768 -0.0062  0.0242
 4881W        W47934  33.242   3.750  19.463  0.1104  0.0698 -0.2150
 4882W        W47935   2.992   4.287   7.498 -0.1664  0.3198 -0.0023
 4883W        W47936  31.434  13.083  21.429 -0.0656  0.3393  0.0061
 4884W        W47937  12.624   3.094  29.068  0.2378 -0.1404 -0.4461
 4885W        W47938  11.957   9.185  17.965  0.0076 -0.1222  0.1572
 4886W        W47939  17.431  27.493   2.029  0.1708 -0.2270 -0.1357
 4887W        W47940  28.411   2.042   7.984 -0.0001  0.2065 -0.0377
 4888W        W47941  11.052   1.961   0.928  0.2277  0.4421  0.1045
 4889W        W47942   2.163  32.916  20.223  0.3457  0.1394 -0.0387
 4890W        W47943  33.509   9.505  24.870  0.1354 -0.1700 -0.0108
 4891W        W47944  28.481   5.571  19.761  0.1159  0.4610 -0.0685
 4892W        W47945  33.675   8.306  17.114  0.0790  0.0850 -0.0357
 4893W        W47946  32.231  14.078  17.353  0.0452 -0.3789  0.0660
 4894W        W47947   4.909   0.880  28.745  0.0065  0.0650  0.3298
 4895W        W47948  22.376  33.140  14.942 -0.1745 -0.0683  0.0648
 4896W        W47949  13.004  30.971  26.688 -0.2348  0.0860  0.2211
 4897W        W47950  34.561  30.436  22.510 -0.1235 -0.2514  0.1120
 4898W        W47951   2.435   0.189  22.886  0.0587  0.2285  0.0011
 4899W        W47952  10.479  33.256   5.381 -0.0853  0.1587  0.0838
 4900W        W47953  20.531  11.890  19.086 -0.0365 -0.0494 -0.0747
 4901W        W47954   1.423  16.258  14.166 -0.0649  0.1484  0.1422
 4902W        W47955  26.738  12.523  26.146  0.0977 -0.2022 -0.0462
 4903W        W47956  11.220  24.988  24.400 -0.1928 -0.1135 -0.0725
 4904W        W47957  29.410   8.119   2.138 -0.1534  0.0540 -0.1063
 4905W        W47958  33.824   7.103  17.955 -0.3951  0.3195  0.4284
 4906W        W47959   9.800   5.233  27.736  0.2609  0.0819  0.0398
 4907W        W47960   4.820  15.349   5.692  0.0548  0.0575  0.0226
 4908W        W47961  20.558  18.287  13.000 -0.0416  0.1574  0.2327
 4909W        W47962   5.195  32.150  18.912 -0.2681 -0.1983  0.0338
 4910W        W47963   5.299  23.380  22.924  0.0714  0.1323 -0.1154
 4911W        W47964  21.845  19.695  22.684 -0.1802 -0.3030 -0.0877
 4912W        W47965  27.021  30.254  28.370 -0.0657  0.0552 -0.1289
 4913W        W47966   4.451  16.743  15.251  0.1138 -0.0343  0.0374
 4914W        W47967   5.416  28.891  21.259 -0.0151  0.2811 -0.0485
 4915W        W47968  12.776  34.221  24.597  0.2347  0.0250 -0.2831
 4916W        W47969  32.043  18.588  22.375 -0.3669 -0.0716  0.0198
 4917W        W47970   7.030   1.455  18.889 -0.0255 -0.0168 -0.2456
 4918W        W47971   5.754   7.402  26.911  0.0882  0.1219  0.0837
 4919W        W47972  33.904  27.988  15.278 -0.0423  0.0496  0.0901
 4920W        W47973   2.907  27.319  16.961  0.1502  0.1253  0.1182
 4921W        W47974  17.240  11.496  28.885 -0.1030  0.0708  0.5338
 4922W        W47975   7.563   5.426   6.528  0.0748  0.0441  0.1964
 4923W        W47976  34.271  33.060  15.853  0.1337 -0.2310 -0.2339
 4924W        W47977   6.453  30.730  26.276 -0.0366  0.1602  0.0926
 4925W        W47978   2.218  27.993  21.802  0.3913 -0.4537  0.1329
 4926W        W47979   0.810  31.592   5.004  0.0633 -0.1351 -0.1376
 4927W        W47980   8.204   3.589  26.745  0.4199 -0.1164 -0.1967
 4928W        W47981  19.028  11.233   1.941 -0.0434 -0.0820 -0.0659
 4929W        W47982  17.252  32.674  15.421  0.0284 -0.0303  0.1578
 4930W        W47983  32.724  10.396  28.216  0.1175 -0.3282  0.2643
 4931W        W47984  15.685  29.607  27.745  0.1212 -0.0892 -0.0199
 4932W        W47985   6.152   1.549  22.940 -0.0763 -0.0351 -0.0715
 4933W        W47986   3.068   2.255   3.425 -0.0040 -0.1673 -0.2403
 4934W        W47987  25.695  34.211  26.914  0.0002 -0.1028  0.0023
 4935W        W47988   7.747   0.240  27.110 -0.2436  0.0983  0.0822
 4936W        W47989   6.749  33.852  26.277  0.0726 -0.0752  0.0991
 4937W        W47990   7.886   1.197  27.198  0.0472 -0.2136  0.3652
 4938W        W47991   5.142  32.741   4.233 -0.1325 -0.0173 -0.3729
 4939W        W47992  21.524   5.141  22.368 -0.1626  0.0762  0.2697
 4940W        W47993  15.146  14.027  23.081  0.1598  0.0867  0.0598
 4941W        W47994  10.502   2.404  24.303 -0.1007 -0.1407  0.0013
 4942W        W47995   7.649  13.213  19.366  0.0175 -0.0103 -0.1557
 4943W        W47996   7.935  24.885  14.211 -0.1769  0.0234 -0.2648
 4944W        W47997  19.113   0.516  16.918 -0.2098 -0.1109 -0.2139
 4945W        W47998   5.290   2.186  26.082 -0.0435 -0.1821 -0.0062
 4946W        W47999  17.220   9.023   2.517 -0.2904 -0.1004 -0.3449
 4947W        W48000  33.276  32.374  25.747  0.0619  0.1562 -0.2180
 4948W        W48001  10.685   5.956  22.610 -0.1281  0.2790  0.2519
 4949W        W48002  17.285   0.169  25.549 -0.1605  0.1603  0.3180
 4950W        W48003  13.877  16.865  25.183  0.1082  0.1233 -0.1564
 4951W        W48004   2.022  21.964   0.404  0.1222 -0.1246  0.2396
 4952W        W48005  21.086  17.791  28.008  0.1527 -0.3669 -0.1560
 4953W        W48006   2.381   4.455  20.782  0.2379 -0.2021  0.4311
 4954W        W48007  23.036   0.365   7.714  0.0510 -0.1359  0.1963
 4955W        W48008   4.837   9.528   7.683  0.1510 -0.1056  0.0570
 4956W        W48009  34.050   6.005  26.535  0.3190 -0.0823 -0.1656
 4957W        W48010   8.873  22.872  27.534 -0.1501 -0.0332 -0.0448
 4958W        W48011  31.521  17.404  24.150 -0.0252  0.1336 -0.0827
 4959W        W48012  24.215   2.791  21.561 -0.1001 -0.0347 -0.0941
 4960W        W48013   9.877   1.155   3.044  0.0042 -0.0212 -0.0811
 4961W        W48014  20.289   8.780  18.180 -0.0255 -0.2170  0.1775
 4962W        W48015  34.029   4.129  16.270  0.0649 -0.0264 -0.1774
 4963W        W48016   4.814  23.789  17.241  0.7093  0.3480 -0.0325
 4964W        W48017   0.190   0.443   8.279 -0.0093  0.1886 -0.0344
 4965W        W48018   8.801   1.964   7.302  0.0119  0.2632  0.0691
 4966W        W48019   4.190   8.784  16.858 -0.1144 -0.3097 -0.0594
 4967W        W48020   7.852  23.023  17.990 -0.0523  0.0363  0.1728
 4968W        W48021  33.227   5.166  27.807  0.1803 -0.1445  0.0566
 4969W        W48022   0.142  20.572  26.720 -0.1794 -0.0745 -0.0927
 4970W        W48023  23.802  33.090  16.163 -0.2924 -0.2631 -0.3614
 4971W        W48024   3.115   4.959  23.460  0.2060  0.3657  0.0785
 4972W        W48025   0.690   9.562  28.311  0.1599 -0.0724 -0.4133
 4973W        W48026   0.904  32.282  21.148  0.3140  0.0127 -0.0332
 4974W        W48027   6.708  33.694  20.627 -0.1335 -0.2411  0.1882
 4975W        W48028   5.624  14.342   6.330 -0.2491  0.0009 -0.1429
 4976W        W48029   5.798   2.506   7.801 -0.1941 -0.0463 -0.0806
 4977W        W48030  30.569  13.198  23.859 -0.1601  0.0345  0.3649
 4978W        W48031   6.368  10.951   0.048  0.0257  0.0786 -0.1762
 4979W        W48032  24.834   0.962  17.739 -0.1906 -0.0131  0.0936
 4980W        W48033   0.472   6.041   2.328  0.0084  0.1012 -0.1772
 4981W        W48034  22.750  30.715  22.224 -0.1831 -0.0231  0.0200
 4982W        W48035  30.358  34.397  13.266 -0.0417  0.3194 -0.0222
 4983W        W48036   5.318  28.846  18.933  0.0069  0.1211 -0.2004
 4984W        W48037  31.771   3.323  15.639  0.0424 -0.0220 -0.1500
 4985W        W48038  22.412   3.916   7.603 -0.1694 -0.0777  0.0580
 4986W        W48039  24.249  34.481  21.465 -0.2200  0.2546  0.2755
 4987W        W48040  32.565  33.268  26.731 -0.0165  0.3584 -0.1973
 4988W        W48041  10.905   2.378   4.399 -0.1418  0.2370  0.1120
 4989W        W48042   0.823   6.883  28.240  0.0194 -0.0547  0.3505
 4990W        W48043   6.648  29.391   3.385 -0.0125 -0.1095  0.0545
 4991W        W48044  15.942  30.369  17.617  0.0610  0.0967 -0.3204
 4992W        W48045   1.752  14.738  17.326  0.0401 -0.0321  0.0041
 4993W        W48046  33.959  28.316  16.517 -0.0799 -0.3182 -0.0744
 4994W        W48047  16.136  24.527  20.885 -0.1682 -0.1365 -0.0277
 4995W        W48048  13.485  28.947  23.960 -0.0746 -0.2512  0.0796
 4996W        W48049   8.547  30.745  21.948  0.3552 -0.2518 -0.1413
 4997W        W48050  11.001  30.477  21.961 -0.2014  0.3206  0.0318
 4998W        W48051  25.263  12.638  20.163 -0.0990 -0.2090 -0.2243
 4999W        W48052  12.734   3.219   8.533  0.1002  0.0206  0.1164
 5000W        W48053   9.506  33.317  22.658  0.0460  0.1645 -0.0501
 5001W        W48054   8.224   9.828   1.506 -0.2367  0.1024 -0.3157
 5002W        W48055  10.165   5.802  15.770  0.0556  0.1150 -0.0350
 5003W        W48056   7.762  12.078  19.347  0.1542  0.2473  0.0816
 5004W        W48057   2.570   5.672  20.787 -0.0672  0.0664 -0.2361
 5005W        W48058   0.643   0.170  22.004  0.1761 -0.0103  0.0548
 5006W        W48059  32.732   1.949   4.953 -0.1835 -0.0160  0.1468
 5007W        W48060  18.722  34.432   2.426 -0.1941  0.2110  0.2313
 5008W        W48061  15.552   5.672   6.235 -0.1097  0.0616  0.2834
 5009W        W48062  28.153  31.665  21.677  0.1796 -0.0309 -0.0748
 5010W        W48063  11.309   3.161   6.251  0.0688 -0.1460  0.0781
 5011W        W48064   5.132   6.556  17.926  0.0186  0.1482  0.0958
 5012W        W48065  26.297  23.216  22.113  0.2156 -0.1058  0.0272
 5013W        W48066  29.579   0.374   6.815  0.2087 -0.2225  0.0521
 5014W        W48067  31.084   9.708  22.912  0.0876 -0.0723 -0.0971
 5015W        W48068   5.542   4.455  15.490  0.0698  0.0900  0.4069
 5016W        W48069  27.046   0.051  15.674  0.1370  0.0936 -0.0599
 5017W        W48070  26.532  25.728   1.179 -0.2615 -0.0361  0.1037
 5018W        W48071   7.741  28.708  22.379  0.2788  0.0488  0.0988
 5019W        W48072   4.133   4.265  15.352 -0.3187 -0.2933 -0.1502
 5020W        W48073   4.677  29.798  19.788 -0.1608 -0.2059 -0.0822
 5021W        W48074  24.264   5.743  17.758  0.1429  0.2550  0.0985
 5022W        W48075   6.433  30.003  22.101 -0.0797  0.0807 -0.0149
 5023W        W48076  34.666  10.140  16.573 -0.1491 -0.1492  0.3886
 5024W        W48077   3.410  10.936  16.102 -0.2565 -0.1549 -0.2534
 5025W        W48078  18.373  13.966  27.045  0.1477 -0.5367  0.1995
 5026W        W48079  27.874  32.763  25.070  0.0818 -0.1227 -0.1357
 5027W        W48080  33.462  34.548  14.087 -0.0722  0.0439 -0.2619
 5028W        W48081   7.145  22.313  18.959  0.1549 -0.0245  0.0512
 5029W        W48082   4.200   9.707   3.782 -0.1375  0.1213  0.0345
 5030W        W48083  33.478   5.311  19.799 -0.3216 -0.2158 -0.0565
 5031W        W48084   3.671   3.921   8.904 -0.0769  0.2457  0.1980
 5032W        W48085  10.565   3.380   2.533  0.0463 -0.1510  0.0124
 5033W        W48086   1.560   6.139  28.492 -0.0439  0.5428  0.1826
 5034W        W48087  32.774   7.811   4.043 -0.2864  0.0416 -0.0920
 5035W        W48088   4.242   2.321  26.000 -0.0329 -0.0908  0.0256
 5036W        W48089   3.135  32.642   3.010  0.3330  0.2561 -0.2484
 5037W        W48090  13.705  32.234  19.311  0.0811  0.0664 -0.2571
 5038W        W48091   5.586  12.169  17.294  0.2102  0.1529 -0.0316
 5039W        W48092  33.106   0.723   0.133 -0.1232  0.2048 -0.0563
 5040W        W48093  28.548  19.464  14.513 -0.1717 -0.0916  0.0079
 5041W        W48094   7.091  15.926   2.361  0.0971  0.1111 -0.1163
 5042W        W48095  32.275   4.166  15.431 -0.5130  0.2726  0.0855
 5043W        W48096  13.419  34.133  20.686 -0.1649 -0.1936 -0.0662
 5044W        W48097  10.398  29.800   7.663  0.0856  0.3113  0.1503
 5045W        W48098  33.199   0.084  14.485  0.2225 -0.4870  0.1044
 5046W        W48099   5.717   8.845   1.006 -0.1601 -0.2789  0.0321
 5047W        W48100  18.236  24.000  14.085  0.1781  0.1535 -0.0147
 5048W        W48101  33.085   0.995  22.564 -0.1468 -0.0285  0.1270
 5049W        W48102   3.992  27.915  17.032 -0.0117 -0.1409 -0.2682
 5050W        W48103   8.910   9.324   0.565  0.2628 -0.2088  0.0949
 5051W        W48104  12.949  32.172   1.943 -0.3089 -0.0602 -0.0275
 5052W        W48105   4.137  21.539   3.079  0.0121  0.1944  0.1157
 5053W        W48106  23.460  15.331  28.860 -0.1081  0.2258 -0.2119
 5054W        W48107  28.716   3.521   3.475 -0.4060 -0.0064  0.0405
 5055W        W48108   2.070  29.285  17.698 -0.1413 -0.2162 -0.0054
 5056W        W48109  13.654  27.900   5.810 -0.2073 -0.0443  0.1631
 5057W        W48110   0.680   1.728   7.116 -0.1477  0.0204 -0.3343
 5058W        W48111   8.355   3.799  17.758  0.1906 -0.2204 -0.3565
 5059W        W48112  27.807   1.738  18.795  0.0985 -0.0608  0.2430
 5060W        W48113  24.624   5.237   2.904 -0.2098 -0.0546  0.1370
 5061W        W48114  17.566  22.163  22.034 -0.0677 -0.0736 -0.1049
 5062W        W48115  24.932  15.969  14.377 -0.0766 -0.2044 -0.0823
 5063W        W48116  27.750   0.313  25.257 -0.1362  0.0403 -0.2128
 5064W        W48117   0.628   5.673   5.971  0.1387  0.1728 -0.3245
 5065W        W48118   2.090  29.657  15.712  0.2858 -0.3377  0.4988
 5066W        W48119  10.864  19.102  14.331  0.0427 -0.1166  0.2951
 5067W        W48120  26.863  27.951  22.979  0.2399  0.1335  0.1399
 5068W        W48121  30.464  16.059  19.708 -0.3118  0.0162 -0.0762
 5069W        W48122  27.089  27.303   0.239  0.0018 -0.1840  0.0722
 5070W        W48123  22.982  10.547  13.725  0.0341  0.1924 -0.0304
 5071W        W48124   0.421   9.668  19.393  0.2221 -0.3055  0.3577
 5072W        W48125  12.493  32.933   5.300 -0.0742  0.1148  0.1769
 5073W        W48126  28.295  12.839   8.592  0.0367 -0.3069 -0.0837
 5074W        W48127   5.007   9.552  19.364 -0.3703  0.0755 -0.0173
 5075W        W48128  10.591  13.541  16.509  0.1455  0.1425 -0.1827
 5076W        W48129  28.366   4.582  28.493 -0.1773 -0.2368  0.0952
 5077W        W48130  18.341   5.013  15.718 -0.1195 -0.0457 -0.3605
 5078W        W48131  11.684  30.920  28.769 -0.0765 -0.0935  0.0942
 5079W        W48132  13.692  23.030  27.288 -0.1856 -0.2569 -0.2247
 5080W        W48133   5.824   4.476  27.847  0.1592 -0.0485  0.1057
 5081W        W48134   5.507  15.365  23.362 -0.1267 -0.5910  0.0344
 5082W        W48135  29.364  23.357  17.633 -0.0691  0.2480 -0.0691
 5083W        W48136   8.870  32.584  25.792 -0.0093 -0.3185 -0.2293
 5084W        W48137   9.103   9.251  21.202  0.0777  0.0142 -0.1226
 5085W        W48138   2.923   5.985  14.569 -0.1070 -0.2373 -0.2339
 5086W        W48139   2.241   1.428  16.132  0.1127  0.1172 -0.2892
 5087W        W48140   8.816  14.083   0.722  0.0732  0.0260  0.1036
 5088W        W48141   0.891  31.372  18.859 -0.0152  0.2176  0.1838
 5089W        W48142  22.036  20.689  19.341  0.0646 -0.0003 -0.4130
 5090W        W48143   5.138  23.363  20.119  0.0245  0.1448  0.3149
 5091W        W48144  34.192  31.442  18.557  0.1346 -0.0498 -0.1776
 5092W        W48145  25.616  22.725  26.745 -0.0494  0.2413 -0.3091
 5093W        W48146  20.029  26.637   1.611 -0.0765  0.1274 -0.0564
 5094W        W48147  31.907   3.827  18.812  0.1494  0.2137 -0.3066
 5095W        W48148   6.681   6.586   7.889 -0.0655 -0.0526  0.0757
 5096W        W48149  31.418  34.642  15.192  0.0820  0.0573 -0.2840
 5097W        W48150  18.968  29.314  14.218  0.0283  0.2321 -0.1465
 5098W        W48151   4.967  16.800  23.541 -0.2962  0.2343 -0.2664
 5099W        W48152  10.670  24.810  19.323  0.0861 -0.6421 -0.0395
 5100W        W48153   1.325   1.494  27.940 -0.3739  0.2349 -0.0223
 5101W        W48154  19.604  25.839   5.065 -0.1178  0.0182  0.1211
 5102W        W48155  30.282   0.255  15.888  0.0111 -0.1361 -0.1434
 5103W        W48156   3.614  23.156   2.113  0.1178  0.0611  0.0043
 5104W        W48157  30.168  12.271  14.752  0.0073 -0.0802 -0.0252
 5105W        W48158  12.287  19.713   8.451  0.1815  0.1795 -0.0731
 5106W        W48159  25.164   8.151  20.886 -0.2498  0.1046 -0.3186
 5107W        W48160   0.418   7.630   9.777 -0.1187  0.0699  0.1056
 5108W        W48161   0.542  32.239  20.011 -0.3642  0.1674 -0.2901
 5109W        W48162   4.751   6.506   3.828  0.1523 -0.0071  0.1770
 5110W        W48163   2.298   9.784  18.416  0.1678  0.3777 -0.0519
 5111W        W48164  13.940   2.305  16.356 -0.2034 -0.1411  0.0318
 5112W        W48165  23.719  20.264   3.321  0.1169 -0.0896  0.0650
 5113W        W48166  27.592   1.477   4.117 -0.0536 -0.3233  0.3597
 5114W        W48167  33.012  17.027  23.857  0.1608  0.1558 -0.3848
 5115W        W48168  16.837  14.121   5.294  0.0359  0.2487 -0.0217
 5116W        W48169  32.002   6.679   1.575 -0.1319  0.0127  0.3475
 5117W        W48170   6.694   2.064   8.229 -0.2659  0.2392  0.3044
 5118W        W48171   3.165   1.547   1.734  0.0457  0.2669  0.1745
 5119W        W48172   4.021  33.751  16.259 -0.0606  0.0052 -0.2316
 5120W        W48173   5.240  34.033  17.842 -0.0750 -0.0099 -0.1103
 5121W        W48174  30.909  28.324  17.547 -0.0077  0.0447  0.0254
 5122W        W48175  30.371   9.170  24.386 -0.2821 -0.0502  0.1890
 5123W        W48176   8.513  21.522  15.308  0.0536 -0.0271  0.0674
 5124W        W48177  32.299   0.182  21.744 -0.1844 -0.1158  0.3437
 5125W        W48178  24.454   7.800  23.423  0.1865 -0.2123  0.0029
 5126W        W48179   1.942  23.783   1.253  0.1024  0.2763  0.2614
 5127W        W48180  30.233   7.476  27.203  0.2221  0.3547 -0.1229
 5128W        W48181   0.775   2.800  17.056  0.0096 -0.1382  0.3479
 5129W        W48182  31.551  10.021  21.031  0.0188 -0.0638  0.1488
 5130W        W48183  23.409   5.291  20.745  0.0080  0.1457  0.0620
 5131W        W48184   3.591  19.112  23.445  0.2278  0.2428 -0.0761
 5132W        W48185  28.783  12.306  14.541  0.0610 -0.1339 -0.2313
 5133W        W48186   8.374   0.607  14.266 -0.1335  0.0065  0.0852
 5134W        W48187  25.642   4.770   8.767  0.3334 -0.3203  0.0141
 5135W        W48188  34.044  13.673   7.830 -0.0155 -0.0582  0.1022
 5136W        W48189  24.478  15.627  19.786  0.0411 -0.0789 -0.0605
 5137W        W48190  12.418   3.689   9.795 -0.0748  0.1357  0.0566
 5138W        W48191  34.291   3.761  18.075 -0.1265  0.4611  0.1828
 5139W        W48192  27.042  31.743   8.371  0.0298 -0.1192  0.0600
 5140W        W48193  13.002  27.136   4.653  0.0240 -0.0885 -0.1597
 5141W        W48194   0.748  30.707  29.159  0.0830 -0.0530  0.2831
 5142W        W48195  24.721  23.036  24.689 -0.0885  0.0614  0.0156
 5143W        W48196   9.032  10.725  24.570  0.5718 -0.0726  0.2612
 5144W        W48197   7.677  16.723   6.808 -0.2386  0.0337  0.0299
 5145W        W48198   0.957   5.662  17.311 -0.0966 -0.1385  0.1274
 5146W        W48199   1.179  14.668  26.076  0.1550  0.0083 -0.1240
 5147W        W48200   2.044   4.742  23.222 -0.0358 -0.1360 -0.0082
 5148W        W48201   1.652  10.021   0.245  0.3123 -0.1537 -0.0005
 5149W        W48202  16.238  30.320  18.792  0.2423 -0.4453  0.0100
 5150W        W48203   0.503  24.293  15.813  0.2365  0.0533 -0.3411
 5151W        W48204  13.743  28.643   0.113 -0.2906  0.0592  0.1069
 5152W        W48205  29.662  31.168   1.217  0.2975  0.1544  0.1368
 5153W        W48206   0.383   6.051   3.399  0.1134 -0.0487  0.0716
 5154W        W48207   5.575   1.859  14.403  0.1291  0.0335 -0.0069
 5155W        W48208  32.847   0.134  22.874 -0.1499  0.1154 -0.1387
 5156W        W48209  10.683   2.123  15.427 -0.1566 -0.2078 -0.2339
 5157W        W48210  28.545   9.467   6.256  0.2486  0.0546 -0.2105
 5158W        W48211  33.268   4.812  20.756  0.1692 -0.1508 -0.1753
 5159W        W48212  26.624  27.649   5.627  0.0957 -0.0111  0.1817
 5160W        W48213  12.386  33.176  26.674 -0.2442  0.3683 -0.0711
 5161W        W48214   3.235   5.105   2.600 -0.1575 -0.0816 -0.0204
 5162W        W48215  12.672  30.492  23.317  0.2956  0.3883 -0.4873
 5163W        W48216   0.576   9.839  15.732 -0.0512 -0.1189 -0.0422
 5164W        W48217  14.532  13.941  10.848  0.1498 -0.0681 -0.2159
 5165W        W48218  11.041  28.362  20.721  0.0784 -0.3228  0.2028
 5166W        W48219  13.026  34.252   2.538 -0.0043 -0.0046 -0.3837
 5167W        W48220  31.021   3.646  18.931 -0.0732 -0.2916 -0.0633
 5168W        W48221   8.059  32.249  19.278 -0.0935  0.3026 -0.2274
 5169W        W48222  14.981   4.525  19.050 -0.2142  0.0042 -0.1602
 5170W        W48223   7.168  33.360   8.804  0.0851  0.1301  0.0062
 5171W        W48224  17.805   3.137  25.680  0.1265  0.0503  0.0109
 5172W        W48225   5.360  16.259  21.189 -0.2508  0.1372 -0.3005
 5173W        W48226  29.885  19.047  28.291  0.2079 -0.3229 -0.2670
 5174W        W48227  32.676  30.811  24.247  0.0939  0.2457  0.0263
 5175W        W48228  27.365   6.754  21.480 -0.0288 -0.1321  0.1201
 5176W        W48229  23.642  22.774  25.609 -0.1333 -0.0704  0.2720
 5177W        W48230  24.112   2.855  18.345  0.3482 -0.4284 -0.1862
 5178W        W48231   3.013  32.728  25.927 -0.2082  0.1441  0.1331
 5179W        W48232  21.948   5.919  21.026  0.1218  0.1142 -0.0396
 5180W        W48233   1.351   1.386  18.930 -0.2651 -0.0046 -0.1846
 5181W        W48234  29.296   1.392   8.598  0.0065  0.1899 -0.0443
 5182W        W48235   8.678  33.918   3.246  0.2096  0.1462 -0.1403
 5183W        W48236   0.360   4.854   0.826  0.0942  0.1532 -0.0473
 5184W        W48237  27.535   8.453  21.145  0.1437 -0.1507  0.2179
 5185W        W48238  23.543  17.066   0.718 -0.1948  0.1786 -0.1109
 5186W        W48239  32.672   4.182  15.142 -0.1942  0.0357  0.0833
 5187W        W48240  24.651   1.334  25.278 -0.1428  0.0195 -0.1897
 5188W        W48241  15.002  24.550  24.930  0.1258 -0.3007 -0.0150
 5189W        W48242   9.597  11.003  17.445  0.0975 -0.0381 -0.2413
 5190W        W48243  13.110  12.806  17.190 -0.0274 -0.0745 -0.0460
 5191W        W48244  25.850  12.533  24.595  0.0241  0.1509 -0.0824
 5192W        W48245   4.436  17.615   8.117 -0.0790 -0.0946 -0.1693
 5193W        W48246  17.301   0.412   6.622 -0.0084 -0.1232  0.3262
 5194W        W48247   2.504  15.153  28.959  0.0420 -0.1753 -0.0528
 5195W        W48248   0.931  30.497  17.728 -0.0324  0.0794  0.1006
 5196W        W48249  29.699  24.745   4.564 -0.1443 -0.2206  0.2497
 5197W        W48250  13.539   5.850  16.919 -0.2194  0.0950 -0.0392
 5198W        W48251  27.698  34.140  28.154  0.1334 -0.1614  0.1730
 5199W        W48252   1.715   7.105  26.946  0.0475 -0.1853 -0.2614
 5200W        W48253  25.266   2.569   0.648 -0.1583  0.1198  0.1725
 5201W        W48254  31.472  29.585  15.606 -0.2433 -0.0460 -0.0709
 5202W        W48255   7.372   7.403   1.256 -0.1656 -0.1925  0.2426
 5203W        W48256   3.716  19.839  26.453 -0.1517 -0.2976  0.0769
 5204W        W48257  22.869  22.573   2.460 -0.0052  0.1435  0.0539
 5205W        W48258  30.855   7.704  24.106  0.0228 -0.0802 -0.1146
 5206W        W48259  33.134   9.754  29.166 -0.0488  0.0495  0.0981
 5207W        W48260   8.317  23.240   6.408 -0.1170  0.0012 -0.1032
 5208W        W48261   8.180  30.408  17.915 -0.2316 -0.1282  0.0305
 5209W        W48262  31.354  20.382   4.298 -0.2083  0.0258 -0.2942
 5210W        W48263  30.358  27.416  21.295 -0.0240 -0.1433  0.0036
 5211W        W48264  27.971  34.475   2.786  0.0877 -0.0595 -0.0799
 5212W        W48265  30.547  19.175  22.017  0.0864 -0.0676  0.3565
 5213W        W48266  13.022   7.235   9.911  0.0016 -0.4130 -0.2305
 5214W        W48267  29.755  13.688   3.697 -0.2095 -0.1517 -0.2714
 5215W        W48268  17.425  30.154   2.852  0.4291 -0.1529  0.2606
 5216W        W48269  16.859  18.374  27.067 -0.1119 -0.0215 -0.4433
 5217W        W48270   5.989   8.066   4.860 -0.0295 -0.1001  0.1451
 5218W        W48271  23.321  24.121  25.135 -0.2337  0.1211  0.0824
 5219W        W48272  10.482  28.453  22.510 -0.0589 -0.2654  0.0938
 5220W        W48273  21.186  34.181  15.096  0.1658  0.1168  0.2155
 5221W        W48274  14.947   3.368  18.132  0.0504 -0.1086 -0.1269
 5222W        W48275  30.063  31.628   2.424  0.3608 -0.1472 -0.1444
 5223W        W48276  25.310  22.638  22.761 -0.1969  0.4053  0.5652
 5224W        W48277  21.647  31.870  10.233 -0.1613  0.0253  0.1890
 5225W        W48278  21.743  17.387  20.653 -0.0450  0.1633 -0.1060
 5226W        W48279   0.697  27.688  21.085 -0.1744  0.1078  0.1617
 5227W        W48280  18.371   9.836  26.774  0.3672  0.0999  0.0372
 5228W        W48281  12.141   3.201   7.272  0.1415  0.1062 -0.5331
 5229W        W48282   2.726   2.280   8.943  0.0265 -0.0774 -0.3916
 5230W        W48283   0.023   8.187  19.986  0.0097  0.1241 -0.0895
 5231W        W48284  26.117  10.999   9.143  0.0776 -0.1884  0.2393
 5232W        W48285   1.876  11.710   4.595  0.0038 -0.2337  0.2303
 5233W        W48286  30.945  33.958  22.049 -0.0144  0.0960 -0.2737
 5234W        W48287  33.568   7.540   7.199 -0.0090  0.1578  0.0889
 5235W        W48288   9.133   2.863  23.768 -0.2693  0.0338  0.0447
 5236W        W48289  25.147  26.124   6.898 -0.0120  0.0013  0.0001
 5237W        W48290   0.742  29.061  17.292 -0.1609  0.3858  0.1453
 5238W        W48291  28.079   8.784   0.014 -0.2145 -0.0100 -0.2852
 5239W        W48292  30.298   6.102  10.100 -0.1685 -0.0702 -0.0562
 5240W        W48293   6.576  16.130  24.674  0.1249 -0.1076  0.1853
 5241W        W48294   5.942   9.421   2.540  0.2144 -0.0379  0.1432
 5242W        W48295   7.936   1.064   1.426  0.1243  0.0088  0.0795
 5243W        W48296   8.997   9.801   9.292 -0.0179 -0.1757  0.0731
 5244W        W48297  11.403   2.523  16.003  0.1312 -0.1157 -0.0388
 5245W        W48298   1.498  15.070  26.959  0.1627  0.0830 -0.0390
 5246W        W48299  18.021  32.550   9.479 -0.1365 -0.1835  0.0759
 5247W        W48300  18.003  11.032  24.827 -0.2648  0.1133  0.3151
 5248W        W48301   4.148   4.045   6.511 -0.1121  0.1640 -0.1391
 5249W        W48302   3.037  31.163   8.313 -0.1568  0.0050  0.0081
 5250W        W48303  13.165  29.510  26.395 -0.1792  0.3966 -0.2532
 5251W        W48304  29.975  26.103  21.027 -0.1273  0.3549 -0.2330
 5252W        W48305  13.922  18.962  23.491  0.2814  0.3845 -0.2072
 5253W        W48306  28.315   5.757  28.188 -0.0389 -0.0427 -0.0874
 5254W        W48307   9.806  32.920   3.495 -0.3206 -0.0345 -0.3077
 5255W        W48308  17.657   3.183  18.870  0.0888  0.1731 -0.0136
 5256W        W48309   6.466  13.475  26.915  0.0902  0.0620 -0.0175
 5257W        W48310  21.584  22.293  15.478 -0.0743 -0.0019 -0.0782
 5258W        W48311  21.246   3.512  22.740  0.0126  0.0333  0.1034
 5259W        W48312   2.740  20.379  24.831 -0.1626  0.1668 -0.0840
 5260W        W48313   5.114   5.021   9.848  0.1851  0.3273 -0.1563
 5261W        W48314  16.381  32.894   4.147 -0.3170 -0.1288 -0.2415
 5262W        W48315   6.116   2.731  23.851  0.2119  0.0631  0.2109
 5263W        W48316   0.299   5.006  21.061 -0.0997 -0.1090  0.4839
 5264W        W48317   8.246  29.838  25.555 -0.1130  0.2174 -0.0740
 5265W        W48318  31.145  24.742   2.269 -0.1144  0.2185 -0.1891
 5266W        W48319  11.065   4.519  21.787  0.1175  0.2699  0.1587
 5267W        W48320  18.925   2.245  28.554  0.0774  0.1290 -0.2260
 5268W        W48321  18.595  34.683   1.877 -0.1443  0.0981 -0.1661
 5269W        W48322  20.441   1.426  15.394 -0.1703 -0.2922  0.1487
 5270W        W48323  26.817  23.409  14.826 -0.1348 -0.0101 -0.2051
 5271W        W48324  33.100   3.529  15.789 -0.3579 -0.1230  0.0779
 5272W        W48325   0.814   9.487  29.155 -0.0903 -0.0054 -0.0212
 5273W        W48326  24.420  14.706  14.714  0.2000 -0.1205  0.2615
 5274W        W48327  29.930  33.736   4.554 -0.0480 -0.0007  0.0390
 5275W        W48328  21.591   3.370   0.042  0.3205 -0.1519 -0.4282
 5276W        W48329  15.255  14.973   2.781  0.1428  0.0980  0.1699
 5277W        W48330  26.620   9.708   4.429 -0.1088 -0.5028  0.3147
 5278W        W48331  30.357  14.593   0.101 -0.0389 -0.1859  0.2846
 5279W        W48332  21.170  30.539  24.342 -0.1826  0.2089  0.2413
 5280W        W48333  29.670  15.027  24.890 -0.0106  0.0236 -0.1046
 5281W        W48334  28.847  10.971   3.753  0.2026 -0.0849 -0.2053
 5282W        W48335  33.536   4.554  21.360 -0.2560  0.3413  0.0146
 5283W        W48336  28.477   4.569   2.676  0.0611 -0.1248  0.0478
 5284W        W48337   4.489  34.183  22.614  0.0180  0.1917  0.1653
 5285W        W48338   2.715  10.423  29.004  0.0201 -0.3187  0.0148
 5286W        W48339  13.780   3.347  25.972 -0.0603  0.0777 -0.2684
 5287W        W48340  21.911   2.464  25.101 -0.1750 -0.2036 -0.1884
 5288W        W48341  22.768  21.805  14.733 -0.2362 -0.2869 -0.1221
 5289W        W48342   3.256   3.068  22.760 -0.1018  0.0514  0.1903
 5290W        W48343   8.380   5.895   8.624 -0.2499  0.3232 -0.0582
 5291W        W48344  25.561  18.328  13.854  0.1073 -0.3387 -0.1172
 5292W        W48345  20.286  25.103  18.851  0.0389 -0.0366 -0.2967
 5293W        W48346  32.571   0.214  27.403 -0.2415  0.1421  0.0826
 5294W        W48347   4.379   6.927  15.635  0.0274  0.1938  0.1858
 5295W        W48348  33.565   6.862  15.586  0.1540 -0.0724 -0.0972
 5296W        W48349  32.248   5.981  10.035  0.0430  0.1201 -0.0414
 5297W        W48350   8.244   8.433  20.476 -0.3144  0.1564 -0.1041
 5298W        W48351  24.582  19.866   5.316 -0.0555  0.3240  0.3995
 5299W        W48352  28.367  32.343  27.422 -0.1682 -0.3011  0.0753
 5300W        W48353   8.026  21.380   4.008 -0.1013 -0.0036 -0.4540
 5301W        W48354  31.741   3.521  21.842 -0.0594  0.0100  0.0168
 5302W        W48355  32.536  11.578   0.025 -0.3392 -0.1920 -0.0391
 5303W        W48356  15.381  29.844  28.242 -0.1783  0.1629 -0.0376
 5304W        W48357  30.948  23.021  14.017 -0.1053  0.1480 -0.2563
 5305W        W48358  24.677   2.024  23.023  0.2384 -0.0375 -0.1256
 5306W        W48359   9.104   6.162   9.661 -0.0719  0.0723 -0.2179
 5307W        W48360  19.646   3.412   6.181  0.3154  0.3439 -0.1327
 5308W        W48361   6.975   3.577  17.570 -0.0039  0.0418 -0.0629
 5309W        W48362  28.472   2.061   2.726 -0.2397 -0.0224 -0.1176
 5310W        W48363   3.396   8.794  22.740 -0.0660  0.0375 -0.1219
 5311W        W48364   8.514   4.684   6.388 -0.1448 -0.4698 -0.1293
 5312W        W48365   6.472  34.166   2.220  0.1129 -0.1032 -0.1066
 5313W        W48366  31.794  26.460  25.763  0.1754  0.0558 -0.3503
 5314W        W48367   8.120   1.300   2.963 -0.4102  0.2186 -0.0160
 5315W        W48368   8.370  32.900   9.945 -0.0681 -0.1033 -0.2034
 5316W        W48369  24.501  28.200   2.255  0.1433 -0.1816  0.1889
 5317W        W48370   0.573  26.209  18.178  0.3438 -0.1117 -0.2598
 5318W        W48371  33.511  12.699  27.135 -0.0968 -0.1625  0.1526
 5319W        W48372  11.290   0.603   7.088  0.1843 -0.0253 -0.1540
 5320W        W48373  23.388  34.517   8.491 -0.0194  0.0230 -0.2794
 5321W        W48374   0.424   9.854  25.521  0.0698  0.0577 -0.1108
 5322W        W48375  33.712   1.894   5.469  0.0430 -0.2370  0.1550
 5323W        W48376  13.064  18.610   1.740  0.0994  0.2372 -0.1757
 5324W        W48377  17.443  10.209   9.222 -0.1214  0.1500 -0.2590
 5325W        W48378  23.794   5.042  21.138  0.2328 -0.2277  0.4938
 5326W        W48379  31.265  24.866  21.572  0.2006 -0.1915 -0.0648
 5327W        W48380  14.241  31.749   2.133 -0.0963 -0.1112 -0.1383
 5328W        W48381  26.290   2.078  16.024  0.0874 -0.3600 -0.0230
 5329W        W48382   0.749   2.834   3.461 -0.1830  0.1591 -0.1794
 5330W        W48383   8.806   5.328  26.174  0.3231  0.0854 -0.0791
 5331W        W48384  11.147  21.909   3.334 -0.1401  0.2477 -0.0493
 5332W        W48385   2.373   5.944  25.073  0.1417 -0.2341  0.2955
 5333W        W48386   0.365  24.803  25.538  0.0859 -0.0994 -0.0439
 5334W        W48387   2.417   0.189   3.232  0.0237 -0.6102 -0.1868
 5335W        W48388  32.586   6.653  25.995  0.2448 -0.1645  0.0588
 5336W        W48389  32.911   3.136  20.879  0.0680  0.2506  0.1940
 5337W        W48390  23.090  13.099   1.060  0.1459 -0.2407  0.0505
 5338W        W48391   0.845  11.415   5.146 -0.2219 -0.1851  0.0513
 5339W        W48392  15.201  23.912   0.256 -0.0082  0.0753 -0.1094
 5340W        W48393  19.255   6.177   6.960  0.0966 -0.1978  0.1877
 5341W        W48394  20.014  23.160  21.882  0.2193 -0.0741 -0.0252
 5342W        W48395   5.652   7.977  24.925 -0.1248 -0.1153  0.1337
 5343W        W48396  31.732  14.594  24.290  0.1844  0.0258  0.0149
 5344W        W48397  25.290  23.463  27.400 -0.0260  0.0381  0.1470
 5345W        W48398   8.403  32.641  25.123 -0.0009 -0.0287  0.3225
 5346W        W48399  10.551   7.041   7.475  0.0684  0.0009  0.1668
 5347W        W48400  30.853  27.925  17.160  0.1550  0.0470  0.0591
 5348W        W48401   1.432  34.473  21.615  0.0349  0.1207 -0.0471
 5349W        W48402   2.922   0.715   5.274  0.1318  0.0404  0.4573
 5350W        W48403   9.972  15.588   6.256  0.3157 -0.0536  0.1445
 5351W        W48404   1.799   1.427  28.777 -0.0547  0.0943  0.2200
 5352W        W48405  21.500  31.419   3.758 -0.2076 -0.0030  0.4139
 5353W        W48406  19.305  21.107  13.442 -0.2974 -0.0307 -0.0890
 5354W        W48407  13.048   0.336  28.813  0.5509  0.3599  0.0172
 5355W        W48408   3.382  32.017   6.280  0.0139  0.0830  0.2134
 5356W        W48409  24.826   3.714  16.196  0.1932 -0.0247 -0.0051
 5357W        W48410   3.365  23.936  21.745 -0.2342 -0.1277 -0.0644
 5358W        W48411   2.949   3.605   9.202  0.1130 -0.1793 -0.0344
 5359W        W48412  33.319  23.458  27.977  0.0100  0.0879 -0.1748
 5360W        W48413  30.380  12.071  19.233  0.4306 -0.1040 -0.0262
 5361W        W48414   1.320  10.117   4.555 -0.2555  0.2309 -0.0002
 5362W        W48415  33.884  32.021   3.901 -0.3310 -0.0298 -0.0771
 5363W        W48416   2.551  17.339  20.127  0.0274  0.0792 -0.2124
 5364W        W48417  31.474  27.821  21.375  0.3691  0.3430 -0.1616
 5365W        W48418   6.159  23.567  21.457  0.0623 -0.2141 -0.0165
 5366W        W48419   7.443   0.920   1.386  0.0604  0.0955 -0.0596
 5367W        W48420  15.544   9.200   2.937 -0.0873 -0.1017 -0.0491
 5368W        W48421  24.042  15.078  26.608 -0.0121 -0.0777  0.0753
 5369W        W48422  28.373   9.433   0.275 -0.1805  0.1045  0.2045
 5370W        W48423  30.753  12.841   5.382 -0.1528  0.1488 -0.1957
 5371W        W48424   4.996  34.300   9.174  0.1432  0.0031  0.2652
 5372W        W48425  32.468   5.112   4.847 -0.1712  0.1327 -0.0304
 5373W        W48426   1.984  30.383  27.497  0.1611  0.2968  0.0250
 5374W        W48427  32.853  32.368  29.027 -0.0431 -0.0080 -0.0768
 5375W        W48428  21.686  31.350  26.593 -0.1888  0.1745  0.0277
 5376W        W48429  18.045   5.846  26.943 -0.0407  0.2179  0.3611
 5377W        W48430   3.401   9.961   5.346 -0.2123  0.0837 -0.1095
 5378W        W48431   1.732  31.924  29.028  0.1302 -0.2806 -0.0116
 5379W        W48432   8.744  30.572   8.148 -0.1549 -0.2800 -0.0191
 5380W        W48433  26.661  31.143  15.034  0.0478  0.1804 -0.1154
 5381W        W48434  28.863  20.023   0.696 -0.1458  0.3741  0.3456
 5382W        W48435  26.314   5.436  14.477 -0.1798  0.1972  0.3844
 5383W        W48436  32.817  26.747   3.933 -0.4515  0.1421 -0.3721
 5384W        W48437  19.098   2.766   1.389  0.2468  0.1198 -0.0657
 5385W        W48438  29.053  32.597  19.266  0.3334  0.1277  0.3883
 5386W        W48439   0.509  17.605  25.821  0.1411 -0.3044  0.0679
 5387W        W48440  19.476  21.326   1.299 -0.1117  0.0259  0.3218
 5388W        W48441  20.005  28.985  16.870  0.2302 -0.2882  0.0546
 5389W        W48442   8.457  30.291  18.335 -0.1564  0.2670 -0.1317
 5390W        W48443  11.228  21.716  26.922 -0.4047 -0.0427  0.0999
 5391W        W48444  32.341  18.872   1.334  0.0937  0.4104  0.0382
 5392W        W48445  22.736   1.578   4.742 -0.1184 -0.0101  0.2240
 5393W        W48446  11.134   4.759  24.423  0.2112  0.0121 -0.1514
 5394W        W48447  21.807   6.049  17.499  0.2084  0.0911 -0.0624
 5395W        W48448   3.520   5.395  18.709  0.2602  0.0168  0.0805
 5396W        W48449  27.834   9.211  23.537  0.3934 -0.0156 -0.2529
 5397W        W48450   8.376  20.950  24.749 -0.0953 -0.0436  0.1255
 5398W        W48451   6.137   9.496   3.037  0.1350  0.2374  0.3847
 5399W        W48452  32.131  17.963  20.231  0.0031  0.0263 -0.1203
 5400W        W48453   8.514   8.185   5.116  0.0937  0.1750  0.1762
 5401W        W48454  26.042  29.218   1.243 -0.2171  0.0108  0.2000
 5402W        W48455   5.689  24.200  22.751 -0.1388 -0.1760 -0.2103
 5403W        W48456  33.591   4.603  22.059  0.1274 -0.1667  0.1300
 5404W        W48457  34.002  10.463  17.996 -0.0320  0.0315 -0.1183
 5405W        W48458  25.980  11.253  28.904 -0.2576 -0.0116  0.0783
 5406W        W48459  34.164  11.984   6.203  0.0994  0.0138 -0.4139
 5407W        W48460  15.287   4.705  17.625 -0.2301 -0.2050 -0.5249
 5408W        W48461  26.246   0.569  25.759  0.1259 -0.1586 -0.0990
 5409W        W48462   9.920  30.558  14.573 -0.0892  0.1433 -0.0885
 5410W        W48463  10.204   6.924   2.266  0.2714  0.1860 -0.1746
 5411W        W48464   6.284   0.594  17.763  0.0330 -0.0307 -0.0372
 5412W        W48465  33.667  19.126  13.927  0.1936 -0.1862  0.0805
 5413W        W48466   9.173  15.351   8.017  0.0468  0.3662  0.4481
 5414W        W48467   2.611   8.956   4.225  0.1177 -0.0872 -0.1959
 5415W        W48468  10.798   3.574   1.477 -0.0056  0.4088  0.2244
 5416W        W48469   4.463   2.647   7.117 -0.1077  0.0257 -0.2255
 5417W        W48470  26.756   4.712   8.580 -0.1340  0.3976 -0.1187
 5418W        W48471  29.896  31.974   0.803  0.2553 -0.2487 -0.2443
 5419W        W48472   5.869  31.120   5.457  0.0449 -0.2256  0.0739
 5420W        W48473   7.174  10.108  16.255  0.4095  0.2374 -0.0438
 5421W        W48474  13.977   2.297  21.240  0.2640  0.0139  0.0758
 5422W        W48475  22.026   1.428  20.584  0.0829  0.0684 -0.2371
 5423W        W48476  14.686   1.255   5.247  0.0272  0.0410 -0.1675
 5424W        W48477  26.390  24.817   7.297 -0.1943  0.2853  0.0147
 5425W        W48478  15.854   4.444   3.635  0.2841 -0.0440  0.0764
 5426W        W48479   8.820   1.003   7.604  0.1803  0.1315  0.0750
 5427W        W48480  31.860   2.277   1.827  0.5119 -0.1595 -0.1933
 5428W        W48481  33.347  32.403  26.232 -0.2489  0.2612  0.2521
 5429W        W48482   0.112  21.202  25.835 -0.1832 -0.2197 -0.3739
 5430W        W48483   3.245  31.650  13.971 -0.1868 -0.0738 -0.3145
 5431W        W48484   4.560  21.143   3.845  0.0697  0.1383 -0.2243
 5432W        W48485  27.023  28.603   8.881  0.1958  0.2134 -0.1360
 5433W        W48486  32.249   0.060   3.040 -0.0154 -0.1074 -0.0453
 5434W        W48487  21.280   2.454   6.499 -0.0000  0.2546 -0.1653
 5435W        W48488  25.483   4.003  26.210 -0.2028 -0.1803  0.1530
 5436W        W48489  14.784  26.623   8.221  0.0420 -0.2244 -0.0371
 5437W        W48490  34.142   2.487  19.008  0.2393  0.0610 -0.1550
 5438W        W48491   7.866  34.395  23.202 -0.1481 -0.1640  0.3108
 5439W        W48492  24.073   3.551  28.767  0.0081 -0.1801 -0.0740
 5440W        W48493  18.504   0.578  25.284  0.0565 -0.1568 -0.0726
 5441W        W48494  27.093   9.127   8.588 -0.0034  0.0200  0.0843
 5442W        W48495   8.004  28.222  28.138 -0.1803  0.0345 -0.0387
 5443W        W48496   9.560  24.522  25.119  0.3271 -0.0518  0.3590
 5444W        W48497  17.580  33.837   3.801  0.2790 -0.2849  0.2767
 5445W        W48498   4.437  28.004  13.926 -0.3941 -0.3218 -0.0387
 5446W        W48499  32.216  34.459  29.019  0.1660 -0.0279  0.1097
 5447W        W48500  17.442   0.061   9.726  0.0131 -0.5323  0.1773
 5448W        W48501   7.546  22.587   5.428  0.0860  0.0604  0.0857
 5449W        W48502  30.845   3.694  16.588  0.0370  0.2843  0.1296
 5450W        W48503  34.538  34.510   7.898  0.1836  0.3218 -0.0114
 5451W        W48504  31.204   9.929  24.673  0.2703  0.0405 -0.0285
 5452W        W48505  26.651   7.086   7.712 -0.0333 -0.0825 -0.0759
 5453W        W48506   2.148  32.192  16.886  0.0148 -0.1097 -0.2774
 5454W        W48507  16.407  24.345   4.687  0.1133  0.0379  0.1868
 5455W        W48508   2.895  28.677  27.523 -0.0562 -0.1952 -0.2194
 5456W        W48509   1.282  31.974  22.292  0.0485  0.0136 -0.1316
 5457W        W48510  28.111  34.160   3.181 -0.3737 -0.0527 -0.1005
 5458W        W48511  23.678   1.509   7.155 -0.0333  0.3627 -0.0425
 5459W        W48512  29.515  22.742  15.982 -0.4313  0.0654 -0.0018
 5460W        W48513  23.466   0.050  25.152  0.0833 -0.0171 -0.2580
 5461W        W48514   7.611   7.190  28.530 -0.1038 -0.0583 -0.0017
 5462W        W48515  13.890  15.377  15.254  0.3048  0.2055  0.0520
 5463W        W48516  29.837  27.156   0.391 -0.0889  0.1353 -0.2430
 5464W        W48517   8.436  32.215  18.000  0.3113 -0.1387 -0.2584
 5465W        W48518  33.941  26.454  27.880  0.2330 -0.1515 -0.1617
 5466W        W48519  32.791  27.755  29.184 -0.0501  0.1768 -0.0809
 5467W        W48520  18.203   1.553   5.054 -0.0687  0.0186  0.0398
 5468W        W48521  22.395  31.011  20.357 -0.0801 -0.0350 -0.2028
 5469W        W48522   9.266  21.503   1.576  0.2292  0.2575  0.1184
 5470W        W48523   2.205  27.584   0.482 -0.0190  0.0824 -0.0851
 5471W        W48524  10.229   4.597  25.462 -0.0048  0.1121 -0.2228
 5472W        W48525  12.017  31.411  17.064 -0.1571  0.0176  0.0397
 5473W        W48526  30.897   4.511  20.415  0.3442  0.2059  0.0385
 5474W        W48527  26.038  24.332   4.409  0.0761 -0.4127  0.0499
 5475W        W48528  28.435   7.632   6.318 -0.0748 -0.3533  0.2309
 5476W        W48529  19.750  34.491  23.458 -0.1488  0.2227 -0.1235
 5477W        W48530   5.837   3.600   0.757  0.0037 -0.0621 -0.1870
 5478W        W48531  19.129   7.933  20.919 -0.0548  0.0330  0.0319
 5479W        W48532   8.634   5.670  26.508  0.2413  0.1565  0.5618
 5480W        W48533   0.136  32.029   6.896 -0.1733 -0.0562  0.2004
 5481W        W48534   7.857   3.144   0.981  0.2407  0.0747 -0.0681
 5482W        W48535   0.151   0.913  24.273 -0.1760 -0.0033 -0.3559
 5483W        W48536  19.546   2.031  20.535 -0.0015  0.0012 -0.0000
 5484W        W48537  27.160   6.589  28.092  0.0823 -0.1061 -0.0454
 5485W        W48538  31.600  25.405   1.491 -0.0270 -0.1552  0.0242
 5486W        W48539  12.420  30.428  19.198  0.5388  0.0837  0.1497
 5487W        W48540   5.420  13.104  10.313  0.0651  0.0566 -0.1233
 5488W        W48541   5.134  34.006   4.689  0.0062  0.0261  0.1015
 5489W        W48542  10.788   9.867  29.033  0.1970 -0.2072  0.0016
 5490W        W48543  10.828   7.884  16.580 -0.2691 -0.1949  0.0243
 5491W        W48544  20.983   4.303   9.270  0.1711 -0.0690 -0.1545
 5492W        W48545  31.332  27.170   6.707  0.0379 -0.2799  0.2464
 5493W        W48546   3.286  13.280  24.545 -0.1685 -0.1118 -0.1232
 5494W        W48547  33.224   7.114   6.891 -0.0702  0.0490 -0.2686
 5495W        W48548   9.418   8.314   3.213  0.1601 -0.0717 -0.0074
 5496W        W48549  33.582  33.453  25.016  0.0207 -0.2581  0.2235
 5497W        W48550  11.135   6.680   3.273 -0.2746  0.0516 -0.1197
 5498W        W48551  16.143   4.827   3.930  0.1139  0.0307  0.2486
 5499W        W48552  26.288   0.064  24.223 -0.6152  0.0223  0.0652
 5500W        W48553  18.199  29.639  27.663  0.1955 -0.1163 -0.0753
 5501W        W48554  12.613  10.624   4.021  0.1929 -0.0607 -0.0517
 5502W        W48555   1.333   6.550   9.734  0.1177  0.0536  0.1202
 5503W        W48556   8.712  32.162   1.242 -0.1790 -0.0337 -0.2125
 5504W        W48557   5.333  33.908   5.171  0.0420 -0.2411  0.1208
 5505W        W48558  19.380   4.109   3.205  0.0145 -0.0187 -0.0681
 5506W        W48559  13.561   1.735  22.365 -0.2603  0.0827  0.1604
 5507W        W48560  11.266   4.091  20.456 -0.1767 -0.0001  0.2117
 5508W        W48561   1.274  31.355  20.623 -0.0020 -0.4355 -0.2519
 5509W        W48562  25.176  33.541  26.736  0.1525 -0.3758  0.1557
 5510W        W48563  24.914  26.713   6.361 -0.2955 -0.2205 -0.2463
 5511W        W48564  32.761   6.014  24.358  0.1738  0.0119 -0.0905
 5512W        W48565  25.799  10.399  25.898  0.0995 -0.1182  0.1144
 5513W        W48566   5.035   5.221  23.343  0.2061 -0.0244  0.0174
 5514W        W48567   8.256   0.904  20.193  0.3137 -0.0424  0.1619
 5515W        W48568  10.809  21.886   2.206 -0.3771  0.1118  0.2999
 5516W        W48569   0.242   0.806  26.158  0.1388 -0.0855  0.1027
 5517W        W48570  20.314  25.418   1.823 -0.1071 -0.0402  0.0297
 5518W        W48571   2.449  21.534  15.758 -0.1921 -0.2061  0.4419
 5519W        W48572   5.817   4.717   1.658 -0.0144  0.1843 -0.1701
 5520W        W48573  33.179  34.394   9.141  0.2087 -0.0605  0.0546
 5521W        W48574   5.270  10.085   0.829  0.0982 -0.2003  0.1944
 5522W        W48575   7.247  11.655  27.697  0.0933  0.1032  0.1892
 5523W        W48576  18.442  32.284   5.005 -0.0191  0.1701 -0.1623
 5524W        W48577  11.323  29.552  24.428  0.1408  0.0754 -0.1513
 5525W        W48578  11.859  25.711   5.729 -0.0145 -0.2844  0.0118
 5526W        W48579   2.924   3.415   5.472  0.1065 -0.0697 -0.1676
 5527W        W48580  18.344  10.750  15.049  0.2108  0.2749 -0.2437
 5528W        W48581   8.917  34.046  28.585  0.0062  0.1509 -0.0355
 5529W        W48582  32.850  30.566  26.863  0.4662 -0.0401  0.2987
 5530W        W48583   4.070  24.880  26.508  0.2363  0.0808  0.0304
 5531W        W48584   9.950  23.700  23.223  0.0161 -0.0005  0.1649
 5532W        W48585  20.350  26.385  10.434  0.0840 -0.0761  0.1085
 5533W        W48586   0.696   0.256   5.231 -0.0763  0.1882  0.0991
 5534W        W48587  31.718   4.240   9.025 -0.0450 -0.3620 -0.2213
 5535W        W48588  13.456  17.752  28.135  0.1038 -0.2983  0.2170
 5536W        W48589  31.797  30.469  23.489  0.2356 -0.1109 -0.1336
 5537W        W48590   1.593  16.046   2.431  0.0555 -0.0816  0.0483
 5538W        W48591  27.188  13.745  26.800 -0.0755 -0.2646  0.1997
 5539W        W48592   8.380  21.631  14.336  0.1476 -0.0389  0.1496
 5540W        W48593  19.651   5.235   5.754  0.1806  0.2674 -0.0496
 5541W        W48594   2.205  10.803   0.875  0.2707  0.2145 -0.3071
 5542W        W48595   0.444  24.360  20.314  0.0827 -0.1094 -0.1999
 5543W        W48596   5.097  34.036  14.186  0.2472  0.2102  0.0712
 5544W        W48597  34.252   8.522   4.616 -0.2437  0.0770 -0.2395
 5545W        W48598  29.304  11.854   4.173 -0.2707 -0.0311  0.3769
 5546W        W48599  10.368   7.852  25.357 -0.0957 -0.2561 -0.0549
 5547W        W48600  28.823   5.329   9.287 -0.2732 -0.0030 -0.1668
 5548W        W48601  13.743  29.540   4.068  0.0497  0.0906  0.0537
 5549W        W48602   5.646  10.492  27.526 -0.4679 -0.3882 -0.0620
 5550W        W48603  15.191  14.771   4.619 -0.1402 -0.3269  0.0047
 5551W        W48604   4.779  32.989  14.023 -0.1190  0.1223  0.2528
 5552W        W48605  10.185  24.214  23.868 -0.0092  0.0866 -0.2244
 5553W        W48606   1.912  21.085   2.090  0.2640 -0.1154 -0.0087
 5554W        W48607  33.085  29.098  17.960  0.2427 -0.0431 -0.1510
 5555W        W48608  33.618  33.961   4.062  0.1315  0.0107  0.0803
 5556W        W48609  31.109  30.164  26.504 -0.3808 -0.2239  0.2301
 5557W        W48610  33.920  15.065  16.179  0.1602  0.0806  0.2419
 5558W        W48611   9.976   9.717  14.740 -0.0371  0.2194  0.2593
 5559W        W48612  24.935   8.216  14.486  0.3099  0.0336 -0.3501
 5560W        W48613  30.313  32.562  25.535  0.1721  0.1657  0.2244
 5561W        W48614   4.313   8.741   3.302 -0.3297 -0.3972 -0.1474
 5562W        W48615  12.273  17.363   5.226 -0.1166 -0.1916  0.1999
 5563W        W48616   6.754   9.275  28.139  0.0758  0.1775 -0.0587
 5564W        W48617  13.040   2.770  29.162 -0.3552 -0.0660 -0.1989
 5565W        W48618   7.622  11.630  18.123 -0.0983  0.0405 -0.1707
 5566W        W48619  19.729  10.010   6.594 -0.0027  0.3756 -0.0992
 5567W        W48620   0.586   4.692   2.226 -0.1250 -0.2089  0.2153
 5568W        W48621   6.300  33.327   5.372  0.2741  0.4000 -0.1731
 5569W        W48622  21.253  15.572   5.314 -0.0879 -0.1828 -0.0365
 5570W        W48623   3.718   0.377   8.731 -0.0686  0.1122 -0.1703
 5571W        W48624   5.973   5.755   0.181  0.1373  0.4434  0.1797
 5572W        W48625   2.624   2.131  22.722 -0.0790  0.1442  0.1663
 5573W        W48626  29.134  29.549   9.427  0.1435 -0.1779 -0.1965
 5574W        W48627   2.831  27.580  20.063  0.1538 -0.2040 -0.2505
 5575W        W48628   6.874  30.693  21.652 -0.1650 -0.2208  0.0074
 5576W        W48629  22.189   9.207  16.690 -0.0091  0.2124 -0.0778
 5577W        W48630  27.040  13.217  18.023  0.2385  0.0553  0.1660
 5578W        W48631  11.809   5.627   7.741 -0.0282  0.1780  0.0713
 5579W        W48632  12.319  23.233   6.170  0.2889 -0.1367 -0.2548
 5580W        W48633   4.284  32.941  24.507  0.0413  0.0534 -0.0784
 5581W        W48634   4.518  11.512   6.293  0.1079 -0.1819  0.0205
 5582W        W48635  22.212   9.808   7.776 -0.1752 -0.0915  0.0105
 5583W        W48636  19.108  29.622  21.241  0.1420 -0.1458 -0.2063
 5584W        W48637  11.296   4.537   9.886 -0.2061  0.0198  0.1085
 5585W        W48638  33.926   8.507   6.822 -0.2127 -0.3231 -0.2473
 5586W        W48639  31.583  14.041  23.386  0.2296 -0.0217 -0.0665
 5587W        W48640  31.474  16.446   3.637  0.1736  0.0138 -0.0952
 5588W        W48641  15.172   6.146   1.473 -0.0442  0.2403 -0.2410
 5589W        W48642  18.396   3.716   1.028  0.0856 -0.0117 -0.1985
 5590W        W48643  18.189  31.336   7.432  0.0284  0.0196  0.0733
 5591W        W48644   7.272   5.753   3.285  0.2033 -0.1508  0.2127
 5592W        W48645  32.983  15.092  10.575 -0.0391 -0.2437  0.0974
 5593W        W48646  15.127  19.950   7.846 -0.0817  0.1539  0.1943
 5594W        W48647  25.127  31.522  28.851 -0.0108 -0.0674 -0.1081
 5595W        W48648   9.354  32.903  26.884  0.1013  0.2242 -0.1617
 5596W        W48649  22.871  33.271   1.989 -0.0126  0.3729  0.0475
 5597W        W48650   3.556   2.053  25.509 -0.2132 -0.0109  0.2535
 5598W        W48651  14.375  33.916  25.648  0.1143 -0.0889  0.5257
 5599W        W48652  31.330  27.327  18.884 -0.0483  0.1431 -0.0841
 5600W        W48653  24.523   5.232   4.596 -0.3813  0.3793 -0.1562
 5601W        W48654  19.905   7.871  27.016 -0.0154  0.2195  0.0675
 5602W        W48655  29.834   4.512   7.609  0.0917 -0.1430  0.1268
 5603W        W48656  15.127   8.033  28.511 -0.3628  0.3376 -0.0952
 5604W        W48657  32.664  31.733  16.893 -0.0362 -0.3220  0.1917
 5605W        W48658  27.762   5.139  26.897 -0.1018  0.0297  0.1587
 5606W        W48659  15.878  22.568  24.327 -0.0518  0.1526 -0.2021
 5607W        W48660  33.324   1.604   5.786 -0.0424 -0.2995 -0.1014
 5608W        W48661  13.926   7.061  10.314 -0.0388  0.0401  0.1212
 5609W        W48662  23.288  19.232   5.160 -0.2441  0.0078 -0.4612
 5610W        W48663  31.209  15.080  28.922  0.1663 -0.0546  0.0344
 5611W        W48664  14.288   9.140  11.076  0.1093 -0.0186  0.0012
 5612W        W48665  30.141   4.221   9.991  0.0582  0.0628  0.0764
 5613W        W48666   0.748  27.902   4.502  0.2724 -0.1814 -0.2521
 5614W        W48667  33.820  34.526  27.320  0.2638  0.0740  0.0837
 5615W        W48668   0.539  13.491   9.236  0.1301  0.2428 -0.0785
 5616W        W48669  31.341  21.275   8.867  0.1727  0.1628  0.0375
 5617W        W48670  27.710  33.263  25.926 -0.1404 -0.0398  0.0057
 5618W        W48671  34.439  34.457   3.593 -0.0048  0.0636  0.0335
 5619W        W48672  31.330  23.630  28.188  0.1544 -0.0732 -0.2715
 5620W        W48673   7.468   8.407   7.261 -0.3303  0.0920  0.3979
 5621W        W48674   2.849   6.927  10.620  0.2422 -0.2793 -0.1845
 5622W        W48675   0.948   7.034  14.119  0.1706  0.1268 -0.2740
 5623W        W48676  16.145  22.219  21.954  0.0679 -0.3078  0.2377
 5624W        W48677  17.003   8.241   0.825  0.0768  0.0545  0.0899
 5625W        W48678   0.409   5.449  21.825  0.3929 -0.2062 -0.2504
 5626W        W48679  11.383   1.854   2.673  0.4455  0.0448 -0.1381
 5627W        W48680  20.274   7.905   2.761 -0.2033  0.1048  0.1241
 5628W        W48681  18.924   2.153  24.923  0.1501 -0.0670 -0.1469
 5629W        W48682  32.794   3.318  25.030 -0.1120 -0.3354  0.1796
 5630W        W48683  33.881   2.848  27.039 -0.3161 -0.0131 -0.0556
 5631W        W48684  15.910  26.129  18.132  0.3109  0.1506 -0.0884
 5632W        W48685  34.249  21.424  19.893 -0.0386  0.0167 -0.2409
 5633W        W48686   9.426  30.738  25.563 -0.2084 -0.2491  0.2270
 5634W        W48687   3.222  19.086   7.151  0.1607  0.2465 -0.3845
 5635W        W48688  24.001  10.086   2.232 -0.1275 -0.0392  0.3507
 5636W        W48689  17.901  29.314  27.880  0.1843  0.2771  0.1846
 5637W        W48690  20.454  32.646   4.131  0.1246 -0.1065  0.3199
 5638W        W48691   3.363   9.026  25.893 -0.1212 -0.1828 -0.0613
 5639W        W48692  22.369  26.991   6.243 -0.1513 -0.1908 -0.1640
 5640W        W48693  13.509   4.643   8.504  0.0544 -0.1195 -0.3011
 5641W        W48694  31.872   2.052  27.407 -0.0069  0.0884  0.4263
 5642W        W48695   0.844  18.356  17.260  0.2150  0.0639  0.1052
 5643W        W48696  21.560  21.529  22.811 -0.3015  0.2843  0.0267
 5644W        W48697  29.941   8.254   1.193 -0.0057 -0.1527 -0.0839
 5645W        W48698   1.852  12.683  19.631 -0.2726  0.3868  0.0217
 5646W        W48699  18.439  29.618  24.841 -0.2666 -0.0400 -0.1193
 5647W        W48700   3.969  12.870  18.282 -0.0601 -0.1052  0.4747
 5648W        W48701   7.302   1.300  17.537 -0.0029  0.1621  0.2338
 5649W        W48702  19.611  25.802  16.189  0.0824 -0.0297  0.1710
 5650W        W48703  33.731  33.742  15.893 -0.1493  0.0517 -0.2227
 5651W        W48704  13.654   7.138  18.176 -0.1942  0.0446  0.1632
 5652W        W48705  20.494   4.275  19.777 -0.3597 -0.0034 -0.3243
 5653W        W48706   1.087   3.109  19.815 -0.2142 -0.2850  0.3695
 5654W        W48707   2.374   4.353  21.346  0.0573 -0.1570 -0.0098
 5655W        W48708  13.101  11.977  24.929 -0.0945 -0.2992 -0.1719
 5656W        W48709   4.389   8.039  18.388  0.1836  0.4979  0.1067
 5657W        W48710   4.198   7.814  21.348  0.0533  0.1674  0.1329
 5658W        W48711  33.585  33.695  17.762  0.2068 -0.0128  0.1026
 5659W        W48712  19.493   1.681  16.516 -0.2814 -0.1316  0.0006
 5660W        W48713   7.286  29.024  16.128  0.1374 -0.2300 -0.0329
 5661W        W48714  21.702  26.894  15.452 -0.3531 -0.3455 -0.1072
 5662W        W48715   2.034  11.525  14.822  0.0364 -0.1471 -0.2060
 5663W        W48716  27.350   4.422  22.761  0.0665 -0.0449 -0.1218
 5664W        W48717  34.049   4.377   0.494 -0.0666  0.1412  0.1566
 5665W        W48718   2.397  22.942  21.432 -0.0884  0.4114 -0.2511
 5666W        W48719   6.370   8.775  20.413  0.0608  0.3482 -0.3169
 5667W        W48720  32.248  29.744  12.938 -0.2568 -0.0257 -0.1409
 5668W        W48721  21.312   6.310   2.299 -0.1341  0.1270  0.1868
 5669W        W48722   4.425  25.430   2.206  0.1561 -0.1116 -0.2328
 5670W        W48723   6.655  33.238  15.584 -0.0518  0.0022  0.1062
 5671W        W48724  14.112  32.770   0.643  0.1989 -0.1490 -0.0775
 5672W        W48725  28.799   5.796  16.388 -0.0138 -0.1468 -0.1215
 5673W        W48726   6.712   6.249   5.268  0.2811  0.0436  0.1083
 5674W        W48727  25.685   9.549  28.119  0.1136 -0.2739  0.1150
 5675W        W48728  14.000   4.322  25.562  0.0357 -0.0856  0.1115
 5676W        W48729   4.306   9.861  18.025  0.1147  0.2815 -0.1849
 5677W        W48730  31.445   1.969   4.250 -0.0803 -0.2634  0.3220
 5678W        W48731  22.464   9.675  27.583  0.2875 -0.1217  0.2777
 5679W        W48732   1.133  19.146  21.675  0.0877 -0.0073 -0.2699
 5680W        W48733  30.624  26.949  19.993  0.1059  0.0406  0.0524
 5681W        W48734   8.370  15.395  18.187 -0.1162  0.3382 -0.1819
 5682W        W48735  29.258  32.098  17.872  0.0110 -0.1607  0.0238
 5683W        W48736  29.465  26.877  26.498  0.2440  0.1253  0.2879
 5684W        W48737  17.971   8.752  19.191 -0.0515 -0.0838 -0.1238
 5685W        W48738   3.651   4.019   0.357 -0.1284  0.2106 -0.2955
 5686W        W48739  14.283  31.125  28.356 -0.2724  0.0913  0.0147
 5687W        W48740  33.876   2.937  17.173 -0.0748 -0.0539 -0.0725
 5688W        W48741   5.407   8.819  19.103  0.0375 -0.0224  0.0089
 5689W        W48742  32.622  13.584  17.197 -0.0648  0.0757  0.1594
 5690W        W48743   1.879   3.191  22.285 -0.5315  0.0175 -0.0328
 5691W        W48744  28.154  26.374  17.239  0.2608 -0.3388 -0.0359
 5692W        W48745   4.126   2.116  15.450  0.2403 -0.3603 -0.0303
 5693W        W48746  30.173   7.874  20.815  0.2469  0.5269 -0.0892
 5694W        W48747   8.310  33.830  15.461  0.0762  0.0866 -0.0025
 5695W        W48748   3.519  27.959   8.075  0.1715  0.0116  0.1577
 5696W        W48749  32.665   5.417  18.715 -0.1990 -0.1788 -0.0619
 5697W        W48750  31.915  18.482  28.443  0.0374  0.1328  0.2314
 5698W        W48751   1.795  34.559  19.268  0.0543 -0.2757  0.1675
 5699W        W48752  33.505   4.400  20.792 -0.0515 -0.2340  0.0798
 5700W        W48753   1.972  22.410  24.113 -0.0353 -0.1090  0.1744
 5701W        W48754  23.673  17.182  14.774 -0.0501 -0.1281 -0.0760
 5702W        W48755   5.562  17.219  13.990  0.2017 -0.1037  0.1282
 5703W        W48756   8.138  12.758  26.521  0.0247  0.2970 -0.2108
 5704W        W48757   1.783  33.973  22.656  0.1126 -0.2883  0.1259
 5705W        W48758  18.219   7.997  21.711 -0.1546 -0.0431  0.0912
 5706W        W48759  26.041  16.183  13.305 -0.0063 -0.2197  0.0488
 5707W        W48760  28.435  10.261  16.462 -0.1673 -0.0362 -0.0833
 5708W        W48761   4.926  21.426  26.377  0.1010 -0.0117 -0.0073
 5709W        W48762  26.994   6.811  16.916  0.1694 -0.3052 -0.0704
 5710W        W48763  17.957  29.474  15.856 -0.0196  0.1139 -0.1755
 5711W        W48764  32.456   6.921  17.103 -0.0123  0.1195  0.1106
 5712W        W48765   8.611   9.032  16.149  0.1159 -0.1351  0.2153
 5713W        W48766  16.821   6.857  24.876 -0.1896 -0.5020 -0.1221
 5714W        W48767  26.770   7.238  19.702  0.0561  0.0707  0.2096
 5715W        W48768   5.180   1.821  16.466  0.0740 -0.1722  0.0527
 5716W        W48769   4.278  28.940  19.137 -0.1269 -0.0472  0.0736
 5717W        W48770  10.499  10.714  22.511 -0.0356 -0.0480 -0.1174
 5718W        W48771  32.353   1.982  25.661  0.0761 -0.1686  0.3261
 5719W        W48772   9.865   1.434  28.424 -0.2248  0.2371  0.0210
 5720W        W48773  10.737   1.256  27.106  0.3205  0.3272  0.1913
 5721W        W48774  12.736   3.664  20.880  0.1078 -0.0845 -0.0615
 5722W        W48775  30.320  19.785  14.852  0.0271  0.0841  0.0390
 5723W        W48776  32.497   8.979   6.010 -0.0218  0.0420 -0.0566
 5724W        W48777  27.853   7.432  21.810  0.3333 -0.1563 -0.4027
 5725W        W48778   7.916   3.327  20.535  0.0178 -0.0877  0.1757
 5726W        W48779   5.221   8.550  14.300 -0.1303 -0.0713  0.0491
 5727W        W48780  23.654  11.789  14.627 -0.1469 -0.0187 -0.2903
 5728W        W48781  32.118  10.551  18.665 -0.0003 -0.1021  0.0260
 5729W        W48782   4.503  27.794   0.772  0.0203  0.0937  0.1679
 5730W        W48783   0.988  25.223  20.509  0.3274 -0.2451 -0.0300
 5731W        W48784  29.635  17.136  18.793  0.0325  0.1677  0.2499
 5732W        W48785  14.216   4.541  21.885 -0.1076  0.2184  0.0291
 5733W        W48786  34.299  32.535  14.063 -0.0535 -0.2987  0.0503
 5734W        W48787   3.080  27.906  23.014 -0.1835 -0.1798 -0.0590
 5735W        W48788  25.600  31.429  15.612  0.0516 -0.5528  0.1383
 5736W        W48789  22.140   8.157  25.682  0.0310  0.1732  0.1767
 5737W        W48790  21.498  13.531   7.110 -0.0299 -0.3325 -0.0406
 5738W        W48791   7.829  34.357   1.391 -0.1513  0.2435  0.0163
 5739W        W48792   7.825   4.471  24.825  0.1242 -0.1259  0.3028
 5740W        W48793   9.406   0.122  15.413 -0.1661 -0.1009 -0.0907
 5741W        W48794   2.923  13.983  16.950 -0.1638  0.1577  0.1638
 5742W        W48795  32.394   8.622  14.652  0.3995 -0.1331 -0.0761
 5743W        W48796  33.641   1.341  14.487 -0.0599  0.0591  0.1590
 5744W        W48797   1.272  11.339  16.574  0.0094 -0.3279  0.1388
 5745W        W48798  25.903   5.174  20.243 -0.3061  0.0422  0.0265
 5746W        W48799  11.318  12.206  19.758 -0.0093 -0.1438 -0.0162
 5747W        W48800   5.488  27.353  23.809  0.1760  0.0082  0.1917
 5748W        W48801  34.421   5.467  16.425  0.0178 -0.0065  0.0899
 5749W        W48802   1.779   9.127  18.711 -0.1436  0.2995 -0.0207
 5750W        W48803   1.653   3.561  14.663  0.2994  0.1846 -0.0272
 5751W        W48804   1.721   6.435  22.363 -0.0256  0.2322  0.1902
 5752W        W48805   7.049   4.933  27.472 -0.1499 -0.1742 -0.2270
 5753W        W48806  17.412   2.368  20.437 -0.1813 -0.1101  0.1000
 5754W        W48807  17.440  28.637  27.275 -0.1254  0.0251  0.1995
 5755W        W48808   1.258   9.647  14.386 -0.1924 -0.0013  0.0838
 5756W        W48809   8.196   4.589  17.299 -0.0680  0.0893 -0.1481
 5757W        W48810  32.177  27.611  18.229  0.1290  0.0716  0.2964
 5758W        W48811   5.701   2.636  19.286  0.1694 -0.1301 -0.1564
 5759W        W48812  29.601   8.634   1.211 -0.0521 -0.0071 -0.2071
 5760W        W48813  25.431  30.348  13.934  0.1664  0.1247 -0.0060
 5761W        W48814  12.644  15.975  22.719 -0.2775 -0.2007  0.0462
 5762W        W48815   7.153  31.725  22.936  0.2079 -0.0127  0.1180
 5763W        W48816   6.037   6.533  24.092 -0.2135  0.2975  0.2132
 5764W        W48817   4.000   4.460  18.290 -0.1865  0.0284 -0.0608
 5765W        W48818  21.156  24.857  24.951  0.1793  0.2583 -0.1008
 5766W        W48819  34.446  26.019  17.898  0.1303 -0.2846 -0.1320
 5767W        W48820  27.473   8.458  19.471 -0.2567 -0.0448  0.0275
 5768W        W48821  33.452  10.442  21.424  0.2354 -0.0819 -0.2283
 5769W        W48822   1.984  13.461  15.397 -0.4214  0.0079  0.0792
 5770W        W48823   3.419  30.244  12.949  0.1444 -0.0229 -0.1187
 5771W        W48824  17.298  18.270  14.291 -0.3345  0.2504 -0.0857
 5772W        W48825   5.000  13.988  15.336  0.2151  0.0670 -0.1081
 5773W        W48826  31.655  22.014  21.724 -0.2601 -0.0253 -0.0590
 5774W        W48827  34.371  32.894  22.287 -0.1678 -0.1805 -0.1395
 5775W        W48828  32.227  12.768   2.817 -0.0365 -0.0031 -0.0999
 5776W        W48829   9.080  12.661  27.805  0.2960 -0.0339 -0.1670
 5777W        W48830  32.493  30.733  25.075  0.0557 -0.0208 -0.3249
 5778W        W48831   6.457   6.379  14.814 -0.1876 -0.1716  0.5526
 5779W        W48832  24.264   5.909  14.897 -0.3174  0.2640  0.2738
 5780W        W48833  34.070  11.527  22.557  0.1984  0.2086 -0.3638
 5781W        W48834  30.437   1.820  26.023  0.0754  0.0370  0.0370
 5782W        W48835  13.277   2.796  13.882 -0.2737 -0.1559 -0.1953
 5783W        W48836  29.043   6.280  21.330  0.1837 -0.1178 -0.1843
 5784W        W48837  29.635  33.777   3.347 -0.0047 -0.2550 -0.0236
 5785W        W48838  11.599   4.446  26.644  0.3023  0.2218  0.0641
 5786W        W48839  18.083  12.093  25.896 -0.0092 -0.2150  0.0111
 5787W        W48840  11.595   2.371  21.250  0.0910  0.0274 -0.0213
 5788W        W48841  16.757  26.480  25.660  0.3429  0.2119  0.0144
 5789W        W48842   1.520   1.400  14.547  0.1066 -0.0783  0.2015
 5790W        W48843  19.449   4.185  22.269  0.3869 -0.1139 -0.0610
 5791W        W48844   0.237   1.689  15.172 -0.0397 -0.0103 -0.0426
 5792W        W48845  34.598  32.647   0.339  0.1336 -0.0283  0.3393
 5793W        W48846  30.149  28.191  16.407  0.0453  0.2550  0.1970
 5794W        W48847   5.761   0.724  15.453 -0.0576  0.0175 -0.4145
 5795W        W48848  22.923  30.588  15.747  0.2714  0.0307 -0.0923
 5796W        W48849  11.260  16.719  16.062  0.3712  0.0066  0.0231
 5797W        W48850  32.840  34.638  18.644 -0.0213  0.3609 -0.0917
 5798W        W48851  34.363   6.997  17.966  0.0604 -0.2121  0.1133
 5799W        W48852   7.474  21.885  19.430 -0.2187  0.2551  0.2786
 5800W        W48853   2.916   4.491  23.294  0.0430  0.0011 -0.1577
 5801W        W48854  12.733  29.921  22.109 -0.1045  0.1248  0.1299
 5802W        W48855   6.048   8.894   2.078  0.2007  0.3752  0.4151
 5803W        W48856  20.690   3.435  21.759 -0.2647  0.1201 -0.1707
 5804W        W48857   2.836  11.281  26.236 -0.0556  0.1330  0.2666
 5805W        W48858   3.558  10.874   0.325 -0.1366  0.2209  0.2273
 5806W        W48859  33.093  22.042  15.425  0.1079  0.2479  0.3057
 5807W        W48860  11.037  19.956  22.973 -0.0468  0.0500 -0.0340
 5808W        W48861  12.993  30.538  22.395  0.2300  0.1000  0.0440
 5809W        W48862  29.708  12.342  28.581  0.0931 -0.2720 -0.1556
 5810W        W48863  23.164  32.534  21.449  0.2207 -0.1180 -0.1221
 5811W        W48864  32.084  30.148  20.144 -0.1937  0.0351  0.1446
 5812W        W48865   2.478  21.873  17.795 -0.1268  0.3066  0.0097
 5813W        W48866  10.699   5.715  15.846 -0.1532 -0.1063  0.2695
 5814W        W48867  32.876  10.390  17.031 -0.0134 -0.0923  0.0658
 5815W        W48868  31.924  11.956  24.354 -0.2687  0.1014  0.0875
 5816W        W48869  17.855   0.122  16.525 -0.1123 -0.0808 -0.2893
 5817W        W48870   2.960  18.565  14.197 -0.0176 -0.0577 -0.1682
 5818W        W48871  13.667  31.332   4.320 -0.2527 -0.0683 -0.1294
 5819W        W48872  26.549   3.936  21.208  0.2176 -0.1263  0.4351
 5820W        W48873   8.432  30.472  19.799 -0.0393  0.2738 -0.2855
 5821W        W48874  31.112  31.203  19.991 -0.1372  0.0144  0.4172
 5822W        W48875  34.272  19.249  15.474  0.0756 -0.1771 -0.0895
 5823W        W48876   3.717  31.398  13.447  0.1163  0.0427  0.0659
 5824W        W48877  34.037   9.755  27.453  0.0396 -0.2111  0.1261
 5825W        W48878   1.359  32.852   7.846 -0.1214  0.0470  0.2270
 5826W        W48879  11.723   2.927  18.132  0.0969  0.2233  0.1194
 5827W        W48880   2.761   1.367  23.916  0.1973 -0.0588 -0.0249
 5828W        W48881  23.547  12.160  25.362 -0.0613  0.0920 -0.3928
 5829W        W48882  33.935  31.034  19.937 -0.1161  0.1104  0.0960
 5830W        W48883   3.284   1.582  22.684 -0.0737 -0.3404 -0.3203
 5831W        W48884  32.655  32.892  17.506  0.0685  0.0281 -0.2823
 5832W        W48885  31.858   6.775  22.724 -0.1210  0.0647  0.1840
 5833W        W48886   6.144   3.003  17.270 -0.0785 -0.2429  0.0320
 5834W        W48887   0.167  28.610  21.124  0.2980 -0.1087  0.0608
 5835W        W48888  14.312   7.112  15.784  0.0371  0.0170 -0.3344
 5836W        W48889   6.367  25.974  20.343  0.0961  0.1189 -0.3511
 5837W        W48890  10.937  13.478   2.889 -0.2789 -0.1866 -0.2762
 5838W        W48891  23.392   5.601  26.482 -0.0835 -0.1459  0.1051
 5839W        W48892  31.894  13.570  15.096 -0.1273 -0.1035 -0.1098
 5840W        W48893   7.075   3.065  25.667 -0.4520  0.0129  0.0113
 5841W        W48894  33.901  12.064  18.608  0.2419  0.1700  0.1972
 5842W        W48895   3.100   9.241  15.005 -0.1152 -0.3603  0.1005
 5843W        W48896  11.371   7.382  17.261  0.2269  0.0218 -0.1333
 5844W        W48897   0.268  30.197   2.856  0.4117  0.1950  0.1945
 5845W        W48898   4.374  33.168  24.921  0.1330  0.0588 -0.0724
 5846W        W48899  21.993   6.491  17.776  0.0148  0.1653 -0.2102
 5847W        W48900  31.809   7.366  21.959 -0.2520  0.1015  0.4468
 5848W        W48901   3.268  32.029  19.913 -0.2242 -0.1873  0.1044
 5849W        W48902   5.669   4.446  18.048  0.0732 -0.2253  0.2637
 5850W        W48903  32.446   1.160  17.895  0.0344 -0.1906 -0.0824
 5851W        W48904  13.213  15.833  20.475  0.0114  0.1491  0.1178
 5852W        W48905  32.065   0.402  27.405  0.0957 -0.1179  0.0147
 5853W        W48906   4.857   5.092  18.905  0.0847 -0.2620  0.2170
 5854W        W48907   2.032   2.602  14.562 -0.1618  0.0442 -0.0735
 5855W        W48908  17.524  10.865  21.099 -0.1466 -0.3111  0.2966
 5856W        W48909   2.134  28.418  15.840 -0.1010  0.0370  0.1334
 5857W        W48910  26.173  14.149  24.717 -0.0981  0.0486  0.2417
 5858W        W48911   8.360   1.117   3.967  0.0814  0.0818 -0.0384
 5859W        W48912   0.343   1.814  13.827  0.2681 -0.1011  0.0077
 5860W        W48913   3.338  15.189  20.871 -0.2204 -0.3622  0.1514
 5861W        W48914  20.806  10.977  22.363 -0.0791  0.2016 -0.0428
 5862W        W48915   7.045   5.987  15.244  0.2200  0.1570 -0.1760
 5863W        W48916  30.521   6.582  14.580  0.2824  0.1736  0.2747
 5864W        W48917   9.121   8.908  15.324  0.1383 -0.0885  0.2800
 5865W        W48918  23.213  22.451  15.770 -0.2308  0.1123 -0.1618
 5866W        W48919  24.035  11.980  15.068 -0.0578 -0.1437 -0.0300
 5867W        W48920  11.665   0.689  28.263 -0.0317  0.1639  0.2478
 5868W        W48921   4.126  11.102  28.990  0.1579 -0.1903  0.1479
 5869W        W48922   7.823   2.051  27.631  0.0978 -0.0132 -0.1682
 5870W        W48923  11.897   4.777  22.521 -0.1105  0.0359 -0.1481
 5871W        W48924  16.502   2.735  20.304  0.0848  0.0919  0.1096
 5872W        W48925   6.803   1.405   4.250  0.1580  0.1903 -0.0511
 5873W        W48926   5.200   5.433  27.835  0.2355 -0.1523 -0.1751
 5874W        W48927   8.883  26.912  26.748 -0.1545  0.1952 -0.1353
 5875W        W48928  12.800   4.570  24.113 -0.1997  0.2824 -0.2746
 5876W        W48929   0.888  21.316  15.806 -0.1848 -0.1991 -0.0001
 5877W        W48930  28.417   5.347  13.809 -0.3368  0.0240  0.0368
 5878W        W48931  22.780  16.267  18.485 -0.2805 -0.1804 -0.0203
 5879W        W48932  28.185  32.039   1.885 -0.0651  0.6075  0.3173
 5880W        W48933   4.248   5.732  23.357 -0.3550 -0.2024 -0.3442
 5881W        W48934  11.241  12.134  18.711 -0.1291  0.2528 -0.1192
 5882W        W48935  21.030   2.794  15.919  0.2824  0.0049 -0.1264
 5883W        W48936  31.521  10.900  23.142  0.0666 -0.2232  0.0807
 5884W        W48937   7.873   7.561  25.661  0.1310  0.0593  0.1339
 5885W        W48938   4.750  33.580  18.041  0.1103  0.0711  0.2640
 5886W        W48939  31.524   6.210  20.513  0.1739  0.0961 -0.1638
 5887W        W48940  19.666  28.580  22.485 -0.0461 -0.2384  0.4485
 5888W        W48941  34.557   2.638  27.518  0.3282  0.1391 -0.1243
 5889W        W48942   5.574   0.532  18.237 -0.0813  0.1018 -0.0033
 5890W        W48943   3.765  32.071  15.520 -0.0782  0.1581 -0.1435
 5891W        W48944  28.512  33.520  22.009 -0.2156 -0.3847  0.1068
 5892W        W48945   5.035  34.342   1.662 -0.3027 -0.0297 -0.1063
 5893W        W48946   0.415   1.614  22.807 -0.1078  0.1209 -0.1680
 5894W        W48947  27.684   3.167  26.115  0.2473 -0.1305 -0.0047
 5895W        W48948   7.832  26.196  15.861 -0.1218 -0.0872 -0.1735
 5896W        W48949   9.983   9.242  22.676 -0.5407  0.0624  0.0409
 5897W        W48950  22.637  22.536  16.951 -0.1327  0.1147  0.0300
 5898W        W48951   4.100  12.257  14.096 -0.0345 -0.1596  0.0473
 5899W        W48952   9.415   8.646  26.940 -0.1428 -0.0795 -0.0657
 5900W        W48953  30.742  10.782  28.275  0.2759 -0.1003  0.1094
 5901W        W48954  24.339   8.038  17.242  0.1397  0.0755  0.0770
 5902W        W48955   7.165  23.387  24.188 -0.1935 -0.2736  0.0387
 5903W        W48956  33.304  32.308  15.786  0.0749  0.2232 -0.0254
 5904W        W48957  16.294  15.045   6.603 -0.2608 -0.0277  0.1592
 5905W        W48958  28.221  19.521  24.821 -0.0218 -0.1663 -0.1248
 5906W        W48959  28.342  11.443  15.021 -0.1143  0.1707 -0.1636
 5907W        W48960  29.203  30.241  22.948 -0.2481  0.1183 -0.0168
 5908W        W48961  20.292  16.807  21.874 -0.1731  0.5113 -0.0533
 5909W        W48962  15.045   1.955  20.268 -0.1079  0.0816 -0.1818
 5910W        W48963  13.188  34.311  20.304 -0.0645 -0.1247 -0.1005
 5911W        W48964   6.628   3.612  19.470  0.0738  0.1540  0.4368
 5912W        W48965  15.601   4.125  25.992 -0.0989  0.4534 -0.2573
 5913W        W48966  23.179  10.991  13.691 -0.1779  0.2556 -0.1666
 5914W        W48967   6.555  23.680  19.105 -0.2197 -0.0730  0.0572
 5915W        W48968   5.547  30.792  15.011  0.2452 -0.1047 -0.2308
 5916W        W48969  13.552  34.145  16.250  0.0929  0.1523 -0.0504
 5917W        W48970   4.725   4.342  14.532 -0.1463 -0.0672 -0.0185
 5918W        W48971  27.077   8.965  20.219  0.1325 -0.2672 -0.0100
 5919W        W48972  25.607   8.986  16.602  0.2751 -0.0527  0.0606
 5920W        W48973  29.606  27.453  16.826 -0.0700 -0.0542 -0.0958
 5921W        W48974  16.694  18.702  23.255  0.0990 -0.1845 -0.3550
 5922W        W48975   7.163   8.432  28.948  0.5951  0.3537  0.1274
 5923W        W48976   0.084  31.476  28.945  0.1728  0.1465 -0.0817
 5924W        W48977  13.716  18.829  14.192 -0.0216  0.2259 -0.1868
 5925W        W48978  19.901  13.448  18.185  0.4820  0.1692  0.3051
 5926W        W48979  11.267   6.261   8.953 -0.0415  0.1964  0.1441
 5927W        W48980  11.581  12.177  25.056  0.2799 -0.2708  0.1270
 5928W        W48981  30.375   9.890  23.866 -0.0269  0.1186 -0.1904
 5929W        W48982  28.880   3.959  23.284 -0.1691  0.0340  0.2029
 5930W        W48983   9.242  10.539  18.744 -0.0487  0.0915 -0.0882
 5931W        W48984  33.763  19.857  17.732 -0.0614 -0.1601 -0.1926
 5932W        W48985  22.944  13.809  21.225  0.2951  0.0846 -0.1173
 5933W        W48986  27.862  14.682  14.126  0.3766 -0.1578  0.1313
 5934W        W48987   1.011   8.856  14.354  0.1634 -0.2238 -0.0194
 5935W        W48988  33.773  15.511  16.431  0.0568  0.1273 -0.5650
 5936W        W48989  31.363   7.930  15.464 -0.1260 -0.0425  0.3121
 5937W        W48990  34.451   3.307  18.532 -0.3477  0.2788  0.0958
 5938W        W48991  19.001  20.822  13.716 -0.2893 -0.2423  0.3269
 5939W        W48992   2.502  29.707  19.459 -0.1045  0.0311  0.2626
 5940W        W48993  13.066   2.967  17.866 -0.1050  0.2396  0.3491
 5941W        W48994   4.394  31.162  19.317  0.2543  0.2519  0.4879
 5942W        W48995  14.573  30.278  17.324 -0.0291 -0.2664  0.3682
 5943W        W48996   9.960   7.664  18.282 -0.2285  0.2452 -0.1827
 5944W        W48997  12.045   4.013  17.840 -0.2911  0.2393  0.0276
 5945W        W48998  29.831  20.994  18.118 -0.2093 -0.0177 -0.0312
 5946W        W48999   2.122   8.461  22.023 -0.1383  0.0161  0.0792
 5947W        W49000   0.084   2.959  20.241  0.1184 -0.1683  0.2656
 5948W        W49001  18.676   8.048  27.887 -0.2588 -0.1758 -0.2414
 5949W        W49002  30.671  16.785  13.947 -0.2175 -0.2214  0.0304
 5950W        W49003  14.932  27.848  17.580 -0.0241 -0.1671  0.1334
 5951W        W49004  31.342   1.649   3.710 -0.1557 -0.0536  0.1818
 5952W        W49005   7.971  21.519  13.109  0.0448 -0.3492 -0.0365
 5953W        W49006   0.520   7.548  14.303  0.0184 -0.1496  0.0255
 5954W        W49007  25.335   7.759  16.537 -0.1425 -0.1613 -0.2633
 5955W        W49008  30.689  34.294  23.375 -0.0170  0.3534  0.0412
 5956W        W49009  30.433  11.370  17.118  0.0433  0.0437  0.0303
 5957W        W49010   9.228   4.019  20.641  0.0118  0.1030  0.1180
 5958W        W49011  11.911   2.557  27.447  0.0551 -0.1006  0.0747
 5959W        W49012  33.389  12.613   1.644 -0.2674 -0.0894 -0.1924
 5960W        W49013   5.714  34.211  19.734  0.1479  0.0721  0.2306
 5961W        W49014   6.509  20.358   1.106  0.1511 -0.0514 -0.1619
 5962W        W49015   8.865  27.466  27.631 -0.1836  0.2117 -0.0280
 5963W        W49016   3.638  33.724   5.456 -0.1405  0.2255  0.2114
 5964W        W49017   8.325  32.449  28.758 -0.1075  0.3018 -0.0908
 5965W        W49018  11.171   8.404  15.286 -0.0625 -0.0434  0.1563
 5966W        W49019   3.754   7.311   1.919 -0.1101 -0.2989 -0.0084
 5967W        W49020   8.851  12.176  22.107  0.2468  0.3997  0.0369
 5968W        W49021   7.737  12.221  15.800 -0.2928  0.0100 -0.1693
 5969W        W49022   3.427   0.429  22.318 -0.3833  0.0051  0.2384
 5970W        W49023   3.234  23.551  23.494  0.0076 -0.0122  0.0209
 5971W        W49024   1.995  12.518   2.512 -0.2552 -0.0773 -0.2316
 5972W        W49025   4.995  32.446  10.006  0.0892  0.0495  0.2341
 5973W        W49026   3.920  10.547  20.189 -0.0822  0.3361 -0.1270
 5974W        W49027   9.807   9.403  24.009  0.0797 -0.4055 -0.1088
 5975W        W49028  12.860  34.660  17.960  0.3545 -0.1201  0.4259
 5976W        W49029  28.954  27.577  22.133  0.0566  0.3048 -0.0477
 5977W        W49030   0.340  13.116  17.658  0.2273  0.2011  0.1931
 5978W        W49031   0.919   7.729  17.686 -0.0351 -0.1958  0.3715
 5979W        W49032  10.831  30.482  19.344  0.1269 -0.4080  0.0373
 5980W        W49033  29.026   7.302   2.028  0.0690  0.0708 -0.2706
 5981W        W49034  11.356  10.483  22.955  0.1455 -0.0078  0.0582
 5982W        W49035   3.886  28.094  14.155 -0.0611 -0.2118 -0.3488
 5983W        W49036  32.680  34.538  13.762 -0.0321 -0.3722 -0.3924
 5984W        W49037   5.124  34.249  15.198 -0.0304 -0.3278  0.1842
 5985W        W49038  19.050  22.013  23.084 -0.1018  0.1392 -0.0141
 5986W        W49039   1.206  31.067  28.831 -0.4350 -0.2354  0.1526
 5987W        W49040  32.695   5.614  17.804 -0.2095  0.0666  0.1672
 5988W        W49041  31.265   5.232  19.716 -0.2191 -0.3453 -0.3829
 5989W        W49042  10.021  16.342   0.809  0.1782  0.1569  0.2344
 5990W        W49043  10.637  25.497  20.185  0.0936 -0.3150  0.2689
 5991W        W49044   1.585  29.266  17.471 -0.1205  0.0143  0.1594
 5992W        W49045  31.904  33.977  21.518  0.0193  0.4795  0.1742
 5993W        W49046  32.540   4.932  18.949 -0.3227  0.1725 -0.0126
 5994W        W49047  15.025   3.887  20.112  0.1469  0.2786 -0.2324
 5995W        W49048  32.855  13.892  18.140  0.3191 -0.1730 -0.0840
 5996W        W49049   5.034  27.125  23.691  0.2674  0.0028  0.0062
 5997W        W49050  30.487   2.408  20.175  0.5358 -0.1153 -0.1013
 5998W        W49051   9.170   8.595  17.675  0.5727  0.0613 -0.2275
 5999W        W49052  11.682  29.866  16.949 -0.2582  0.1934  0.0110
 6000W        W49053  14.934  10.615  23.554  0.1445  0.2333  0.2057
 6001W        W49054  32.949  33.606  19.748  0.0956 -0.1265 -0.2112
 6002W        W49055  15.366   1.244  26.183 -0.4552  0.0785 -0.3465
 6003W        W49056  31.617   7.978   6.312  0.0081  0.1077  0.1924
 6004W        W49057   3.256  21.508   5.575  0.2843  0.6062 -0.1133
 6005W        W49058  29.102  10.688  19.422 -0.1291 -0.2013 -0.0793
 6006W        W49059   6.155  21.584  24.864 -0.0463  0.0220 -0.3290
 6007W        W49060  27.259   3.638  22.610  0.2340  0.3037 -0.0693
 6008W        W49061   7.208   2.496  14.956  0.0370 -0.1131  0.0268
 6009W        W49062  13.441  13.945  21.854  0.1194 -0.1038  0.0671
 6010W        W49063  31.844  13.803  19.831 -0.1459  0.1057 -0.2606
 6011W        W49064  33.279   9.638  16.466  0.0902 -0.0234 -0.4842
 6012W        W49065  29.755  10.646  16.185  0.3291 -0.0997  0.1627
 6013W        W49066  23.412  31.193  23.464  0.3064  0.2670  0.2081
 6014W        W49067  10.302   8.709   4.410 -0.4048 -0.1331 -0.0155
 6015W        W49068  17.711   9.015  24.805 -0.1334 -0.1501 -0.1593
 6016W        W49069  24.812  29.548  15.545 -0.2200 -0.1393  0.1258
 6017W        W49070  19.013  25.351  26.798  0.0746 -0.2084 -0.1410
 6018W        W49071  23.878  20.434  22.156  0.0186 -0.1630 -0.0667
 6019W        W49072  18.050   6.207  18.072  0.0904  0.0337  0.1035
 6020W        W49073  22.344  13.143  14.758  0.0102  0.1306  0.1682
 6021W        W49074   2.341   6.524  16.991 -0.0039 -0.0642 -0.1164
 6022W        W49075  33.252  31.174  16.031  0.0549 -0.1720 -0.3429
 6023W        W49076  30.337  33.186   1.160  0.1144  0.1023 -0.0720
 6024W        W49077  18.111  17.157  13.496 -0.3790 -0.1484  0.3370
 6025W        W49078   7.396   8.145  22.342  0.2309  0.0962 -0.0129
 6026W        W49079   7.822   3.421  14.590  0.0455  0.0539 -0.1425
 6027W        W49080  24.624  10.151  23.213  0.1271  0.3879  0.3793
 6028W        W49081  30.534  12.042  21.462  0.0134 -0.3545  0.4453
 6029W        W49082  26.965   1.761  21.950  0.4708 -0.0442  0.0525
 6030W        W49083   8.989   1.656  22.793 -0.1868 -0.1785 -0.0311
 6031W        W49084   1.384   0.920  20.161 -0.1893  0.0908 -0.1738
 6032W        W49085  13.025  22.451   0.499 -0.2802  0.0205  0.1219
 6033W        W49086   2.216   5.376   3.167  0.0002 -0.4008 -0.2351
 6034W        W49087   4.723  29.814  20.341  0.1630  0.0264  0.1503
 6035W        W49088  10.165   1.685   6.393  0.1302 -0.2110 -0.3147
 6036W        W49089  22.856  33.162   2.815  0.1247 -0.2413 -0.0136
 6037W        W49090  26.378  11.776  26.186  0.2391 -0.0047  0.1049
 6038W        W49091  16.073   5.972   6.868 -0.0283  0.0032  0.1132
 6039W        W49092   3.006  10.677  17.588 -0.0671 -0.2080 -0.3074
 6040W        W49093   5.220  32.193  27.033 -0.0181 -0.0051 -0.2925
 6041W        W49094  26.436  20.374  22.613  0.3328 -0.2207  0.2067
 6042W        W49095  29.679  13.323  25.887  0.1472 -0.4353 -0.1398
 6043W        W49096  34.529  13.638  14.342 -0.3961  0.0151 -0.2226
 6044W        W49097   1.468   9.673   2.210  0.5851  0.0194  0.0434
 6045W        W49098  25.453  25.579  21.254  0.0636 -0.1167  0.0028
 6046W        W49099   2.143  34.455  22.708  0.1162 -0.2285  0.2924
 6047W        W49100  28.018  29.401  26.827 -0.1624 -0.1553  0.0465
 6048W        W49101  34.054   9.282   4.982  0.0267  0.2710  0.2094
 6049W        W49102   1.892  17.528  14.038 -0.0832  0.2127  0.1801
 6050W        W49103  19.351   6.705  21.290 -0.1078 -0.0322  0.2355
 6051W        W49104  19.190  10.115  18.848 -0.1228  0.0885 -0.3536
 6052W        W49105   4.015  26.925  26.108 -0.1348 -0.0925 -0.0734
 6053W        W49106   4.123   3.216  28.567 -0.0616 -0.0375  0.3031
 6054W        W49107   0.415   5.132  14.512 -0.1797 -0.0232  0.3158
 6055W        W49108   4.490   3.330  16.429 -0.1122  0.2413  0.3068
 6056W        W49109   5.861  11.771  17.014 -0.5946 -0.2226 -0.1335
 6057W        W49110   9.777  29.603  23.887 -0.0861 -0.0196  0.0738
 6058W        W49111  13.588   1.157  18.767  0.0911  0.1346  0.1564
 6059W        W49112   6.212  10.608  26.454  0.1808 -0.0067 -0.0097
 6060W        W49113   4.955   4.108  24.985  0.2504  0.3219  0.0697
 6061W        W49114  33.428  17.198  16.554 -0.1900 -0.0909  0.0058
 6062W        W49115  10.327  21.584  25.856 -0.2101 -0.0488  0.2060
 6063W        W49116  31.049   7.313  25.282  0.1671  0.2346 -0.0683
 6064W        W49117  29.317  21.106  15.613  0.2301 -0.1763  0.2198
 6065W        W49118   7.853  13.672  15.319  0.1692  0.1536  0.1029
 6066W        W49119   0.947   3.428  20.152 -0.2354 -0.0369  0.3276
 6067W        W49120   8.687  32.742  24.717  0.0032  0.1438  0.1851
 6068W        W49121  24.794   5.860  16.041  0.1628 -0.1225 -0.0562
 6069W        W49122   4.877  32.603  15.612 -0.0999 -0.2201  0.2665
 6070W        W49123  24.150  32.543  24.535  0.5290 -0.2235  0.0493
 6071W        W49124   9.677   4.970   1.898  0.2606 -0.0221  0.0828
 6072W        W49125   7.815   8.801  15.698 -0.1413 -0.0942 -0.1280
 6073W        W49126   3.207  23.943  16.623 -0.2055  0.0772 -0.3734
 6074W        W49127  29.610   5.995  17.747  0.2989  0.2066 -0.0115
 6075W        W49128  12.569   8.170  28.762  0.1393 -0.2538  0.0573
 6076W        W49129  23.546  10.520  25.252 -0.1890 -0.0892  0.0404
 6077W        W49130   9.477   2.656  27.288  0.2016 -0.1378  0.0483
 6078W        W49131   8.938   9.177  23.706 -0.2595  0.3476  0.1213
 6079W        W49132  30.214  34.075  18.341 -0.2593 -0.1424 -0.0901
 6080W        W49133   6.966  14.081   8.102 -0.1213 -0.0170  0.0289
 6081W        W49134  30.223   6.288  18.355 -0.0904  0.0935  0.0334
 6082W        W49135   6.146  28.552  23.808 -0.4753  0.3234 -0.0946
 6083W        W49136  11.880   2.052  18.946 -0.2698 -0.2039  0.3038
 6084W        W49137  14.183  31.391  17.296  0.1045 -0.0456 -0.0599
 6085W        W49138  31.429  32.807  25.996 -0.1620  0.1870  0.1518
 6086W        W49139  33.755  18.220   3.522 -0.2630  0.0669  0.0124
 6087W        W49140   3.153  29.801  22.207  0.2319 -0.0495  0.2641
 6088W        W49141   6.620  30.288  19.838 -0.3716 -0.1568  0.1829
 6089W        W49142   3.746   6.104   4.559 -0.0183 -0.2829 -0.0475
 6090W        W49143   8.512   0.343   6.548  0.0232  0.0388 -0.0086
 6091W        W49144   7.514  33.640   7.530  0.2387 -0.1695  0.0842
 6092W        W49145  30.200   6.039   7.026 -0.1494  0.1862 -0.3439
 6093W        W49146   8.118  15.451   9.382  0.0606 -0.0232  0.0463
 6094W        W49147   2.295  10.641  19.201  0.0827  0.1078  0.3420
 6095W        W49148   0.145   1.031  22.597  0.0616 -0.1202 -0.0981
 6096W        W49149  13.590  32.457  24.550 -0.1028  0.0810 -0.0761
 6097W        W49150  23.632  32.104  17.762  0.1225  0.0683 -0.0067
 6098W        W49151  31.225  11.410   4.734 -0.1863  0.2415 -0.0702
 6099W        W49152  25.921  28.216  14.445  0.2108  0.0433  0.1571
 6100W        W49153   7.866  25.184   5.838  0.0166 -0.1929 -0.4634
 6101W        W49154   4.502  23.722   3.944 -0.0840  0.0484 -0.4648
 6102W        W49155  16.326  34.324  22.966 -0.0722 -0.1017  0.0170
 6103W        W49156   1.561   3.038  17.619  0.0226  0.3767 -0.2254
 6104W        W49157  33.719  34.455   4.936 -0.1075 -0.1234  0.2254
 6105W        W49158   8.161   7.068   0.491 -0.1992 -0.2693  0.0225
 6106W        W49159   9.218  34.355   2.934  0.0230 -0.0024 -0.0444
 6107W        W49160   8.197  10.816  26.278 -0.0837  0.1895 -0.2653
 6108W        W49161   7.636   6.506  21.809  0.0576  0.0426  0.1335
 6109W        W49162   4.815  12.002   6.055  0.1719 -0.3343 -0.1001
 6110W        W49163   4.019   8.411  27.903  0.0093  0.4212 -0.3191
 6111W        W49164   8.883  16.733  16.884  0.0206 -0.0046  0.2134
 6112W        W49165   3.639  20.267  20.226  0.1333  0.2396  0.1774
 6113W        W49166  24.494  33.730  10.334  0.2499 -0.1796  0.1742
 6114W        W49167  33.447  15.003  25.236 -0.0500  0.1180 -0.1652
 6115W        W49168   8.618   0.377  14.714 -0.0400  0.1048 -0.2405
 6116W        W49169   4.065  32.345  15.215 -0.1250 -0.0418  0.0918
 6117W        W49170  32.544   6.269  14.944  0.0635 -0.0054 -0.0465
 6118W        W49171  33.119  12.293   3.730 -0.2484  0.0401  0.0661
 6119W        W49172  33.806  15.918  14.614  0.1701 -0.1744 -0.1739
 6120W        W49173   8.200   1.117   7.692 -0.1313 -0.0043 -0.2771
 6121W        W49174  25.959   5.774  14.635  0.1063  0.3399  0.1494
 6122W        W49175  16.531   7.203   1.268  0.0965 -0.2530 -0.1716
 6123W        W49176  31.693  13.472  20.150  0.1611  0.2754 -0.0400
 6124W        W49177  23.524  22.540  22.533  0.1163  0.0051  0.0003
 6125W        W49178  25.896  30.672   4.614  0.3428 -0.1897 -0.1144
 6126W        W49179  23.752  33.952   5.937  0.1274  0.1730 -0.0962
 6127W        W49180   2.765   7.769   5.885  0.2692 -0.1068 -0.0475
 6128W        W49181   5.658   6.547  26.796 -0.3261  0.4341 -0.1497
 6129W        W49182  28.663   5.172  22.060 -0.1372 -0.0602 -0.1916
 6130W        W49183   5.324  11.432   4.264 -0.4359  0.0899  0.0486
 6131W        W49184   4.576   8.228  24.333 -0.2268  0.2552  0.1103
 6132W        W49185  29.010  32.579  17.957  0.1047 -0.1171 -0.1227
 6133W        W49186  28.827   7.865  27.300  0.0759 -0.2552 -0.1962
 6134W        W49187   1.966  22.190  15.108 -0.3734 -0.0397 -0.1581
 6135W        W49188   6.970  15.691  17.916  0.1607 -0.3258 -0.0275
 6136W        W49189  23.506  13.337   3.259 -0.2381  0.0188  0.1531
 6137W        W49190   3.738  16.589  17.211 -0.1618 -0.2271 -0.2002
 6138W        W49191  13.291  20.004   4.285  0.2025  0.2218 -0.0388
 6139W        W49192  28.936  15.778  23.090 -0.0977  0.1361  0.2112
 6140W        W49193  12.040  19.019   0.739 -0.3229 -0.0479  0.1587
 6141W        W49194  25.545   0.468  20.567  0.1163 -0.0269 -0.1299
 6142W        W49195  33.327  32.672  15.467  0.2978  0.1452 -0.0882
 6143W        W49196  33.653  31.452  18.408 -0.2030 -0.3070 -0.2348
 6144W        W49197  26.011  32.862  25.589 -0.2559  0.0633 -0.0200
 6145W        W49198  12.372   9.982  17.075  0.1922  0.0202 -0.3172
 6146W        W49199  12.019  10.563   1.331 -0.0485  0.0896 -0.0506
 6147W        W49200   1.039  21.814  16.008 -0.1318 -0.4201  0.1254
 6148W        W49201   3.671  34.445   1.073  0.4046  0.1238 -0.0163
 6149W        W49202   8.837   3.985  14.219  0.0785 -0.0272 -0.1262
 6150W        W49203   7.613  28.848  23.784 -0.1242 -0.2768 -0.0581
 6151W        W49204   1.359   4.341   0.537  0.1316 -0.0773 -0.1703
 6152W        W49205  26.324  31.791  19.333 -0.1358 -0.2667 -0.2077
 6153W        W49206  10.904  33.598  15.050 -0.1965  0.1588  0.1996
 6154W        W49207  32.629   1.000  24.651 -0.0048  0.2974  0.2911
 6155W        W49208  30.855  33.906   8.573 -0.1943 -0.2658 -0.0280
 6156W        W49209   2.105  11.491  14.279 -0.2148  0.0339 -0.0164
 6157W        W49210   3.239   4.399  21.900 -0.2879 -0.0031  0.0355
 6158W        W49211  11.088   6.412   8.113 -0.0592  0.2149  0.0284
 6159W        W49212   6.359  10.328  18.882  0.1904  0.1715  0.2234
 6160W        W49213  25.494   7.369  16.910  0.0891  0.1773  0.2420
 6161W        W49214  31.588  16.553  15.290 -0.2513 -0.1152 -0.1120
 6162W        W49215  16.783  26.833  17.912  0.0524  0.1096 -0.0823
 6163W        W49216  19.346   1.934  13.968 -0.2050 -0.0245  0.0153
 6164W        W49217   7.187  11.280  18.227  0.0366 -0.2048  0.0724
 6165W        W49218   2.891   6.607  27.983  0.2188  0.0045 -0.0348
 6166W        W49219  28.776  17.453  16.879 -0.0217 -0.2352  0.4078
 6167W        W49220   6.886  31.564  19.930 -0.1476 -0.2483 -0.2110
 6168W        W49221  11.661   8.431  25.353  0.2937 -0.1858  0.0224
 6169W        W49222  11.962  33.880  25.050  0.0383 -0.0055 -0.0673
 6170W        W49223   1.901   2.336   2.091  0.2443 -0.1729  0.0270
 6171W        W49224  32.011  25.841   1.654 -0.6150 -0.1866  0.0664
 6172W        W49225   4.395  14.520  14.673 -0.1621  0.2597 -0.0585
 6173W        W49226  22.438  13.511  20.994  0.0553  0.1792  0.2354
 6174W        W49227  30.522  27.782  18.453 -0.0711 -0.0357 -0.0669
 6175W        W49228  34.651  14.196   1.586  0.1615  0.0691  0.2316
 6176W        W49229   0.281   9.745  24.274 -0.0652 -0.1806 -0.0247
 6177W        W49230   0.717   8.822   4.532  0.0545  0.4042  0.1578
 6178W        W49231  20.261   4.548  21.442 -0.3791 -0.0882 -0.0646
 6179W        W49232  13.950  26.124  17.878  0.1661  0.0243  0.1920
 6180W        W49233  33.524  16.017  22.741 -0.1372 -0.2499 -0.0407
 6181W        W49234  14.427  11.321  17.194 -0.0193  0.3184  0.0732
 6182W        W49235  29.014   9.629  25.763  0.3004 -0.0799 -0.0237
 6183W        W49236   9.729   0.828  15.059  0.0193 -0.0809  0.0856
 6184W        W49237   0.257  14.309  16.820  0.0395  0.2745 -0.3670
 6185W        W49238   0.511  17.657  28.531  0.1571  0.1525  0.1301
 6186W        W49239  18.077  33.830  22.309  0.1611 -0.1727 -0.0337
 6187W        W49240  24.377   9.851  22.872 -0.1096  0.2165  0.0671
 6188W        W49241  16.322   4.410   2.518  0.3697  0.0795 -0.1235
 6189W        W49242   8.016   0.361   6.599 -0.2631 -0.0742 -0.1605
 6190W        W49243  32.548   5.651  19.149  0.0711 -0.5468  0.0256
 6191W        W49244  17.532  34.529  24.609 -0.3054 -0.0900 -0.0364
 6192W        W49245  21.665   3.818   9.050 -0.0169 -0.1275  0.0509
 6193W        W49246   2.748   8.728  20.224 -0.1259  0.1514  0.1194
 6194W        W49247   0.019   1.745  20.565  0.2560  0.1896  0.1585
 6195W        W49248   2.377  29.708  21.794 -0.3660  0.1510 -0.0483
 6196W        W49249  27.696   7.939  15.167 -0.0851  0.0673 -0.0809
 6197W        W49250  17.640  32.479  21.257 -0.2926 -0.1399 -0.2282
 6198W        W49251  31.871  10.046  23.481  0.1527 -0.0545  0.1634
 6199W        W49252   9.398  13.770  20.185 -0.0789 -0.0788  0.0891
 6200W        W49253  29.125  21.598  15.443  0.3020 -0.0258 -0.4232
 6201W        W49254   3.659  34.540   9.878  0.2925 -0.0291  0.0348
 6202W        W49255  33.561   1.985  13.611 -0.2331 -0.4035 -0.0718
 6203W        W49256   1.364   5.570  15.507 -0.0396  0.3970  0.2612
 6204W        W49257  25.269  12.985  14.989 -0.1896  0.1658  0.0551
 6205W        W49258  19.103  13.880  14.259 -0.3620  0.2142  0.2199
 6206W        W49259   9.313  27.092  24.117 -0.1756 -0.2241 -0.0161
 6207W        W49260  31.353   8.018   0.866 -0.1809  0.3018 -0.0140
 6208W        W49261   5.719  13.341  20.570  0.0525  0.1150  0.1964
 6209W        W49262  11.870  23.897   0.542  0.2212 -0.0922 -0.0881
 6210W        W49263   3.845   4.654  22.822 -0.2647  0.0289 -0.0454
 6211W        W49264   9.341  17.803  16.081  0.3687 -0.0411  0.0489
 6212W        W49265   3.076   1.247  16.736 -0.0754  0.1860 -0.0805
 6213W        W49266   5.840   7.217  29.173 -0.1403  0.0677  0.1035
 6214W        W49267  29.752  27.122  15.594  0.0605 -0.0971 -0.1022
 6215W        W49268  30.227   2.770  23.981 -0.1848 -0.2929  0.0593
 6216W        W49269   1.522   4.685  15.933  0.0905 -0.2409 -0.2831
 6217W        W49270  22.725   5.498  19.897 -0.1960  0.5856  0.2714
 6218W        W49271  28.897  20.655  14.037 -0.1542 -0.1166 -0.0101
 6219W        W49272   7.262   9.620  16.567 -0.0335 -0.0695 -0.1333
 6220W        W49273   8.375  34.180   2.585  0.2511  0.5367 -0.0799
 6221W        W49274  32.212  12.586  28.158 -0.2416 -0.0174 -0.1903
 6222W        W49275  14.159  10.263  21.187  0.0133  0.0350 -0.0046
 6223W        W49276  27.433   9.702  20.714  0.4101 -0.1230 -0.1302
 6224W        W49277  29.270  15.896  16.868 -0.2681  0.0635 -0.0640
 6225W        W49278  24.389  15.235  18.125  0.2922  0.2835 -0.0845
 6226W        W49279  29.399   5.731   2.214  0.1259  0.0687  0.1717
 6227W        W49280   7.280  29.348  24.399 -0.0936  0.2453  0.0521
 6228W        W49281  31.999  31.108  27.705  0.0839 -0.2000  0.1971
 6229W        W49282  12.155   2.364  10.450  0.2339 -0.1108  0.3722
 6230W        W49283  14.231  29.545  27.151  0.3658  0.1440 -0.0069
 6231W        W49284   5.197  30.332  21.481  0.1110 -0.1342 -0.0752
 6232W        W49285  23.352   5.285  15.674  0.0751  0.2925  0.1758
 6233W        W49286  12.861   7.613  15.751  0.0391  0.2480  0.3672
 6234W        W49287  29.471   5.610  15.413 -0.0839 -0.0538 -0.0565
 6235W        W49288   1.509   3.762   3.748  0.0355 -0.1882 -0.0345
 6236W        W49289  34.068   6.553  28.464 -0.0179 -0.0530  0.0899
 6237W        W49290   6.139  11.194  23.042  0.1313 -0.1366 -0.4004
 6238W        W49291   0.258  28.404  28.882  0.2703 -0.0429 -0.3017
 6239W        W49292   6.775  14.763  17.182  0.0816 -0.1518  0.0853
 6240W        W49293  29.902   7.443  20.885 -0.0151  0.1110 -0.2994
 6241W        W49294  16.201  16.601  23.879  0.0071  0.0458 -0.3522
 6242W        W49295  34.520  31.010  15.152 -0.0093 -0.1122 -0.0875
 6243W        W49296  33.503  34.121  18.595 -0.1249  0.0502 -0.0708
 6244W        W49297  21.621  12.430  18.089 -0.3270  0.0132 -0.1208
 6245W        W49298  32.655  33.291   7.276  0.0620 -0.0552  0.1216
 6246W        W49299  33.012   2.276  16.219  0.1379  0.0946 -0.1086
 6247W        W49300  12.168   9.090  17.039  0.0173  0.0310  0.1517
 6248W        W49301   4.378  28.085  21.605 -0.3985 -0.2217  0.3575
 6249W        W49302  34.569  16.867  27.141 -0.1187  0.2144 -0.2923
 6250W        W49303  16.977   6.127  24.676 -0.1192 -0.2540 -0.0402
 6251W        W49304  30.655  19.711  20.604  0.0174 -0.0826  0.3150
 6252W        W49305  26.840  29.676  22.724  0.4937  0.2443 -0.1423
 6253W        W49306   1.911  32.265  14.419 -0.2295  0.1908  0.0899
 6254W        W49307  22.854  26.902  24.095 -0.0259  0.1662  0.0637
 6255W        W49308  34.259  17.415  20.946 -0.1282 -0.1798 -0.3022
 6256W        W49309  33.017  29.821  19.321 -0.0116  0.1387  0.0809
 6257W        W49310   0.589  17.812  18.861  0.0678 -0.1770  0.0790
 6258W        W49311   9.876   8.295   0.444  0.0183 -0.3809 -0.1147
 6259W        W49312  24.112  12.616   0.648 -0.1465 -0.1150  0.1659
 6260W        W49313  27.186  24.234  23.489  0.5381 -0.2652 -0.2762
 6261W        W49314   4.778  22.118  19.739 -0.1173  0.2129  0.1294
 6262W        W49315  16.937  15.203  24.653 -0.1933 -0.1794  0.2620
 6263W        W49316   4.201  13.971  22.365  0.1387 -0.2824 -0.0868
 6264W        W49317   9.131  18.093  17.398 -0.0187  0.0130  0.0180
 6265W        W49318  14.760  34.608  16.098  0.1642 -0.1156 -0.2025
 6266W        W49319  15.497  18.196   0.702 -0.2826  0.0558 -0.3782
 6267W        W49320  22.896   1.353   6.280 -0.1142 -0.2300  0.1450
 6268W        W49321   1.659  32.084   4.835 -0.1682  0.0066  0.1066
 6269W        W49322   4.076   3.439  20.984  0.0674 -0.1142 -0.0847
 6270W        W49323  30.694  12.221  18.588 -0.0925  0.3695  0.4276
 6271W        W49324   6.193  14.678  13.550 -0.0881 -0.1565 -0.1125
 6272W        W49325   6.746   6.934   0.935  0.0675  0.1419  0.1063
 6273W        W49326  33.929  22.282   4.669 -0.1538  0.0304 -0.1490
 6274W        W49327  29.903  30.932  17.347 -0.1286  0.0378 -0.0328
 6275W        W49328   6.833   3.744  25.420 -0.0893 -0.3222 -0.3297
 6276W        W49329  10.738   9.156  21.269  0.2191  0.1717  0.1264
 6277W        W49330  11.235   6.630  19.579 -0.1049  0.2616 -0.0911
 6278W        W49331  32.640  34.517  14.965  0.4069 -0.0420  0.0420
 6279W        W49332  23.215  12.882   8.479 -0.0302  0.0606 -0.1153
 6280W        W49333  34.392   5.179  18.825  0.0365 -0.0199  0.4567
 6281W        W49334  26.521  15.482  27.877 -0.1311 -0.1730 -0.1383
 6282W        W49335  30.057  31.376  15.694 -0.0217  0.2516 -0.2019
 6283W        W49336  25.722   2.712  22.791  0.1758 -0.1726 -0.2383
 6284W        W49337  34.571   4.331  26.738 -0.2984  0.1048 -0.0164
 6285W        W49338  27.285   2.037  17.601  0.0164 -0.1127  0.0532
 6286W        W49339  22.985   2.342  25.403 -0.0080 -0.1523  0.2710
 6287W        W49340  28.761   8.613   2.859 -0.0107  0.0598  0.1291
 6288W        W49341   3.044  34.326  20.203 -0.0331  0.0165 -0.3266
 6289W        W49342   9.297  13.260  16.006 -0.0838  0.2632  0.0183
 6290W        W49343  34.390   5.597  19.144  0.1608  0.1339 -0.2312
 6291W        W49344  10.957  32.232  19.492 -0.2617 -0.0987 -0.1813
 6292W        W49345  30.347   3.582  20.197 -0.0219 -0.2869  0.1136
 6293W        W49346  33.495   4.283   4.274 -0.2135 -0.3387 -0.0663
 6294W        W49347   8.915  29.311  23.461 -0.0369  0.0581  0.0699
 6295W        W49348   9.209  10.404  22.210 -0.2712 -0.1358 -0.1083
 6296W        W49349  25.464  34.332   6.767  0.1656  0.0134  0.0413
 6297W        W49350  12.982   0.918   0.911 -0.1762  0.0224  0.1836
 6298W        W49351   2.069   1.788  18.147  0.0254  0.1301  0.1476
 6299W        W49352  29.642   4.447  20.921 -0.2251  0.0259 -0.1341
 6300W        W49353  34.348  32.466  25.622  0.0024  0.0524  0.5154
 6301W        W49354  10.601  29.990   7.240  0.1020 -0.3091 -0.1674
 6302W        W49355   7.009   5.527  22.536 -0.2323 -0.3240  0.1147
 6303W        W49356   9.395   8.177  17.118 -0.3413  0.0451  0.1235
 6304W        W49357  28.879  11.910  21.451  0.0471  0.1084  0.0430
 6305W        W49358  22.083   6.140  24.859  0.1480 -0.0729 -0.1896
 6306W        W49359   2.948   4.471  14.607 -0.0409 -0.1098  0.1165
 6307W        W49360  12.043   0.656  19.574  0.2053 -0.1296  0.0868
 6308W        W49361   3.405  24.949  21.504 -0.3568  0.2648  0.0914
 6309W        W49362   3.165  27.507  23.388  0.0648  0.2387  0.1078
 6310W        W49363  26.463   9.403  27.500  0.0281 -0.0549 -0.3311
 6311W        W49364   9.666  12.756  16.443  0.1459  0.1512  0.1487
 6312W        W49365  12.534  12.972  24.473  0.2159  0.0566  0.1498
 6313W        W49366  24.197  25.236   0.752  0.2068  0.0788 -0.1874
 6314W        W49367  25.577  30.014  27.009 -0.0224 -0.0320  0.1230
 6315W        W49368  21.961   0.245  27.088 -0.0135 -0.0150 -0.0697
 6316W        W49369   2.655   5.825  17.708  0.4048  0.2697 -0.1048
 6317W        W49370  21.747   7.806  17.332  0.2480  0.0372 -0.2062
 6318W        W49371   1.291   9.238  26.659 -0.1656  0.1102 -0.0242
 6319W        W49372  27.052   4.350  28.219 -0.2456 -0.2470  0.0817
 6320W        W49373   3.839  26.492  22.749 -0.2401  0.0419  0.0638
 6321W        W49374   0.731  27.396  14.934  0.3215  0.0702 -0.0230
 6322W        W49375   9.208  15.190  28.369  0.2771 -0.0753  0.0456
 6323W        W49376  17.109  27.609  18.921 -0.1473  0.5414 -0.0970
 6324W        W49377  33.343   8.371  15.462  0.1291 -0.0853  0.4154
 6325W        W49378   4.457   1.409  18.755 -0.1226 -0.0947  0.1858
 6326W        W49379  21.973   0.831  24.032 -0.0314  0.0669 -0.1417
 6327W        W49380  19.221   5.965  18.227 -0.1533  0.1379 -0.2498
 6328W        W49381   7.439  18.827  18.706 -0.0141  0.0118 -0.1311
 6329W        W49382   7.964   2.951  22.521 -0.3535  0.0479 -0.0998
 6330W        W49383  30.311   6.553  28.208 -0.2260  0.1734 -0.1698
 6331W        W49384   2.865   7.535  21.058 -0.0128 -0.2102  0.1457
 6332W        W49385   9.016   4.751  21.993 -0.5968  0.1205 -0.2066
 6333W        W49386   9.131  11.653   9.904 -0.0949 -0.1255  0.3593
 6334W        W49387   5.717  19.637  18.522 -0.0933 -0.1363 -0.1676
 6335W        W49388   7.903   7.415  25.175 -0.0329 -0.2348 -0.0851
 6336W        W49389  30.815   6.770  19.471 -0.0389 -0.5005  0.1540
 6337W        W49390   7.112  20.576  20.147  0.2267 -0.1595  0.0040
 6338W        W49391  31.001  15.803  17.719 -0.1284 -0.2085  0.1027
 6339W        W49392  10.017  33.380   3.489  0.1353  0.2375 -0.1414
 6340W        W49393  28.660  11.150  28.100 -0.0078  0.0587  0.4599
 6341W        W49394  11.269   7.450   6.176 -0.4125 -0.1102  0.0033
 6342W        W49395  10.549  25.033  22.042 -0.0368  0.1129  0.0295
 6343W        W49396  21.050  32.425  25.347  0.0628 -0.0571  0.1380
 6344W        W49397  32.232   5.919  22.576  0.1105  0.1199  0.2517
 6345W        W49398  13.298   1.482  20.435 -0.2239 -0.1243 -0.0684
 6346W        W49399  30.972  25.418  13.789  0.2296 -0.1006 -0.2637
 6347W        W49400  33.242   7.839  17.817 -0.1757  0.0734 -0.0493
 6348W        W49401   5.083  19.332  20.418 -0.0372  0.1764  0.0015
 6349W        W49402  10.635  12.286  27.420 -0.0570 -0.3490  0.1732
 6350W        W49403  26.944  10.777   0.695 -0.3668  0.2557  0.1398
 6351W        W49404  29.608  33.708  26.328 -0.1546  0.1124 -0.3167
 6352W        W49405  16.034  15.953  13.635  0.0380  0.2447 -0.1523
 6353W        W49406   4.309   2.753  27.459  0.2298 -0.0543 -0.0911
 6354W        W49407  25.180   3.796  15.042 -0.0557 -0.3610  0.3361
 6355W        W49408  32.955  10.795  21.399  0.0992 -0.3712 -0.1924
 6356W        W49409  32.746  29.492  13.295  0.0259  0.3902  0.0106
 6357W        W49410  16.659   8.755   5.486  0.0132  0.3272 -0.2305
 6358W        W49411  27.695   6.109   0.092 -0.0362 -0.3412 -0.2866
 6359W        W49412   3.060   9.680  28.391  0.0214 -0.3278 -0.1004
 6360W        W49413  28.964  33.261  17.209 -0.0699 -0.0722 -0.2643
 6361W        W49414  13.355  14.508  26.248  0.1770 -0.1268  0.1414
 6362W        W49415  10.968   4.872  17.615 -0.0636 -0.0819 -0.0822
 6363W        W49416  31.597  27.316  28.613 -0.0776 -0.1453 -0.3926
 6364W        W49417  33.825   5.700  20.722 -0.0175 -0.2078 -0.2243
 6365W        W49418   1.742  10.801  14.183 -0.2865 -0.1177  0.1975
 6366W        W49419  30.144  29.111  24.796 -0.0033 -0.2272  0.0377
 6367W        W49420  34.578   9.440  25.467 -0.1974  0.1184 -0.0817
 6368W        W49421  29.248  31.350  25.919 -0.1195 -0.1539  0.0728
 6369W        W49422   0.304   9.448  14.665 -0.0686  0.0866 -0.0309
 6370W        W49423  34.596   2.806  22.808 -0.0478  0.1814  0.1615
 6371W        W49424  28.225  12.302  20.252  0.1582  0.0570  0.0596
 6372W        W49425  11.865  34.516  24.177 -0.1105  0.3016 -0.2428
 6373W        W49426   8.845  12.043  15.517  0.1498 -0.0951 -0.0760
 6374W        W49427  16.642  12.785  26.918  0.0250  0.0573 -0.0434
 6375W        W49428   5.263  20.919  17.726 -0.1610  0.3078 -0.2024
 6376W        W49429  33.495  34.682  17.998 -0.1727  0.0419 -0.2859
 6377W        W49430  10.727  10.366  27.419 -0.4360 -0.0076 -0.2702
 6378W        W49431  26.537  25.262  15.747  0.0209  0.2912 -0.1435
 6379W        W49432   5.090  34.514  17.858 -0.2778  0.0504 -0.2447
 6380W        W49433  15.369  24.274   5.845  0.2229 -0.2892 -0.2693
 6381W        W49434  25.406   3.791  21.631  0.2075 -0.2506 -0.2598
 6382W        W49435  23.157  11.581  21.044  0.1455  0.1140  0.0201
 6383W        W49436   8.006  11.044   2.920  0.2981 -0.0185 -0.0622
 6384W        W49437   0.533  16.220  19.914 -0.3142  0.2059 -0.3624
 6385W        W49438  32.936  13.615  16.770  0.1982 -0.0609 -0.0218
 6386W        W49439   9.367  16.869  16.971 -0.0060 -0.0247  0.2788
 6387W        W49440  25.862   9.264  19.438  0.2858  0.1123  0.2155
 6388W        W49441  19.851   0.670  15.860  0.2343 -0.1931 -0.1426
 6389W        W49442  33.137  26.430  19.308 -0.1239 -0.0211  0.4912
 6390W        W49443  26.744   0.531  26.795 -0.3769 -0.1720 -0.0709
 6391W        W49444  20.515   9.950  18.975 -0.0614  0.0913  0.0617
 6392W        W49445   2.220  10.115   6.650  0.0872 -0.0400  0.2530
 6393W        W49446  33.820   8.386  17.886 -0.2337  0.1073  0.2959
 6394W        W49447  34.205  14.290  28.012 -0.0890  0.0096  0.1873
 6395W        W49448  33.367   0.625  15.090 -0.1884  0.0415 -0.0066
 6396W        W49449   8.982  32.113  18.451 -0.2757  0.1417 -0.0487
 6397W        W49450  16.021  20.268  14.054 -0.2387 -0.0085  0.1401
 6398W        W49451   4.373  11.407  15.306 -0.2517 -0.1614  0.0946
 6399W        W49452   0.627   0.792   9.353  0.0788 -0.2908  0.1507
 6400W        W49453  22.606   1.183  20.452  0.0324 -0.2732 -0.2039
 6401W        W49454  15.922  28.854  19.132 -0.1093  0.1545  0.1559
 6402W        W49455  34.609  15.220  22.258 -0.0769  0.0653 -0.1503
 6403W        W49456  24.744  25.296  25.101  0.2314 -0.0150  0.0095
 6404W        W49457   1.801  24.855  25.680  0.2535  0.1449 -0.3109
 6405W        W49458   1.438  12.941  18.204  0.1132  0.1457  0.1590
 6406W        W49459   4.021   4.308  17.741  0.0708  0.0352 -0.0504
 6407W        W49460   9.700  22.395  23.348 -0.0947  0.2855  0.1457
 6408W        W49461   2.604   0.126  16.783  0.1648 -0.2218 -0.2520
 6409W        W49462  28.219  11.698  20.283  0.1030  0.2275  0.2496
 6410W        W49463  31.793  21.318  14.304 -0.2027 -0.0574 -0.0070
 6411W        W49464   9.645  14.016   6.075  0.0278 -0.1232 -0.1687
 6412W        W49465  34.608  13.952  18.250 -0.1420 -0.2734  0.4785
 6413W        W49466   3.634  26.972  26.461 -0.2200  0.0769 -0.0818
 6414W        W49467  24.849   4.281  15.192 -0.1228 -0.1989 -0.2493
 6415W        W49468  32.058  24.569  17.158 -0.0614  0.1243  0.2008
 6416W        W49469   6.244  25.043  17.444 -0.2489  0.0815  0.0882
 6417W        W49470  20.810  32.954  25.167 -0.1106 -0.1424 -0.0076
 6418W        W49471   6.524  26.393  17.187  0.0710  0.0630  0.0731
 6419W        W49472  21.129  26.276  16.684 -0.2289  0.2359 -0.1510
 6420W        W49473   3.067  19.198  19.060 -0.3999 -0.2095  0.1452
 6421W        W49474   7.130  21.125  14.108 -0.0469 -0.0734 -0.1028
 6422W        W49475   5.037  10.826  17.704  0.0907  0.0068 -0.0105
 6423W        W49476   9.013   6.404  26.090 -0.2626 -0.1132 -0.0535
 6424W        W49477  30.066   3.390  15.670 -0.2237 -0.4251  0.1889
 6425W        W49478  28.375   1.023  17.349 -0.0721  0.0114 -0.1557
 6426W        W49479  11.473  34.045  14.862 -0.1031 -0.1900  0.2530
 6427W        W49480   4.087  27.178  17.349 -0.0109 -0.0820 -0.0623
 6428W        W49481   1.869  16.254  17.578  0.0366 -0.1062 -0.2473
 6429W        W49482  19.810  11.349  24.703  0.0639 -0.2873 -0.0884
 6430W        W49483  33.680  13.383  18.320  0.2324  0.1048 -0.1365
 6431W        W49484   7.680   5.688  23.771  0.1108  0.0326  0.0687
 6432W        W49485   5.808  33.274  27.044 -0.1954 -0.2356  0.0193
 6433W        W49486  24.748   0.772  23.844  0.1548  0.0964 -0.1619
 6434W        W49487   5.120  25.641  16.389  0.0538  0.1705  0.0643
 6435W        W49488  32.261   7.480  24.031  0.3134 -0.1790 -0.1293
 6436W        W49489   2.320   8.048  17.710 -0.2061 -0.0557 -0.0330
 6437W        W49490  28.580  20.488  22.949 -0.0644 -0.1524  0.2249
 6438W        W49491  33.159  30.069  20.963  0.1569  0.1048  0.3971
 6439W        W49492   1.985   5.557  19.914  0.1671 -0.3696 -0.0758
 6440W        W49493  31.418  18.493   7.737  0.2248  0.0249  0.2408
 6441W        W49494  34.081   4.670  23.479  0.2029  0.1752 -0.0176
 6442W        W49495   2.553  18.655   8.385  0.0280  0.2126 -0.2258
 6443W        W49496   7.466  11.347  26.996 -0.3320 -0.1946  0.0983
 6444W        W49497  13.576   4.679   7.867 -0.3206  0.0302  0.0692
 6445W        W49498   6.787  12.708  15.959  0.2803 -0.0976 -0.0143
 6446W        W49499  32.823   6.286  27.229  0.3735 -0.1232 -0.0763
 6447W        W49500  29.889   2.366   0.058 -0.1120 -0.0501 -0.1345
 6448W        W49501   5.393   4.024   4.996  0.0418 -0.1685  0.1707
 6449W        W49502   9.066  31.855   0.294 -0.0424  0.1282  0.3007
 6450W        W49503   7.025   0.662   4.927 -0.3306 -0.0442  0.2811
 6451W        W49504  16.866  30.363  21.357  0.1577 -0.2866 -0.0826
 6452W        W49505  31.427   9.344   7.780 -0.0487 -0.1308 -0.0851
 6453W        W49506  10.640  33.567   9.011 -0.1312 -0.1121 -0.1690
 6454W        W49507  33.119  15.357  14.963  0.1675  0.0289 -0.0182
 6455W        W49508  15.983  32.428  27.652  0.0387 -0.0822 -0.0968
 6456W        W49509   1.063   4.314  26.274 -0.0364 -0.1026  0.2052
 6457W        W49510   2.564  16.317   7.122 -0.0730 -0.0310 -0.0878
 6458W        W49511  22.360  32.190  26.566  0.1851 -0.2173 -0.0151
 6459W        W49512  13.384  13.718   5.996 -0.4263 -0.4533 -0.2520
 6460W        W49513  32.722  10.048  24.746 -0.1148  0.0413 -0.3413
 6461W        W49514  10.193   9.744   2.699 -0.0968 -0.0460  0.1746
 6462W        W49515  32.964   6.184  28.998 -0.3735 -0.0906  0.1610
 6463W        W49516   5.927  32.379   7.020 -0.0415  0.0617  0.0123
 6464W        W49517   6.444   0.421  14.263  0.0719  0.0489  0.0543
 6465W        W49518   2.450   6.952  14.432  0.2458 -0.2977  0.1047
 6466W        W49519   4.806   0.416  18.586  0.0161 -0.1084 -0.2117
 6467W        W49520   4.389  23.679  19.730 -0.0050 -0.0166  0.1777
 6468W        W49521   5.860  22.582   0.759 -0.0463  0.2171  0.1802
 6469W        W49522   6.063  21.300  28.497  0.1296 -0.2328  0.1524
 6470W        W49523   4.917  19.109  13.156 -0.3698  0.0518 -0.4046
 6471W        W49524  11.929  30.249   0.236 -0.1633 -0.1605  0.0011
 6472W        W49525  34.662  32.460   1.728 -0.0910  0.0173  0.3701
 6473W        W49526  34.088  33.441   3.247  0.1715  0.3953  0.1924
 6474W        W49527   4.164  13.873   6.644 -0.1636 -0.2082 -0.1479
 6475W        W49528  29.232  31.693  14.200  0.3137  0.0837  0.2096
 6476W        W49529   4.519   6.072   3.793  0.1061  0.0854  0.1491
 6477W        W49530  12.899  11.647  22.097 -0.0206 -0.3219  0.2297
 6478W        W49531  34.592   3.929   3.264 -0.0732 -0.0317  0.1960
 6479W        W49532  32.662  18.815   9.457 -0.0591 -0.4130 -0.0636
 6480W        W49533   6.041  26.046  24.556  0.0845 -0.1428 -0.1160
 6481W        W49534   7.833   9.776  20.029 -0.3000  0.1565  0.1558
 6482W        W49535  23.973  29.228  18.561 -0.0928  0.4001 -0.2622
 6483W        W49536   2.638  33.734  22.167  0.0538 -0.2189  0.3516
 6484W        W49537   9.790  11.352  14.936 -0.0185  0.0615 -0.1327
 6485W        W49538   2.155   6.936  20.753  0.0639  0.0161 -0.2561
 6486W        W49539   8.729  34.500   0.415 -0.2549  0.1126 -0.0443
 6487W        W49540  26.532  19.667  18.521 -0.2158  0.1888 -0.0755
 6488W        W49541  27.884  31.397  10.420  0.0207 -0.0881 -0.0904
 6489W        W49542  12.396  25.595  23.522 -0.3293  0.2404  0.1063
 6490W        W49543   2.617   7.393  15.892 -0.1136  0.1216 -0.0048
 6491W        W49544   0.863   6.351  21.599 -0.0855  0.0549 -0.2913
 6492W        W49545  11.855  23.277  25.538 -0.2568 -0.2619 -0.2346
 6493W        W49546   4.766  17.382  24.830  0.1105 -0.2266 -0.1472
 6494W        W49547  24.092   3.914   1.291  0.1863 -0.1845 -0.1438
 6495W        W49548  34.033  11.984   0.654  0.2260  0.1072  0.0073
 6496W        W49549   3.504  15.762  14.374  0.0779  0.3380 -0.2156
 6497W        W49550  10.154  32.318  27.039  0.3823  0.0102  0.1901
 6498W        W49551  26.663  14.795   1.767  0.0131  0.2111  0.1882
 6499W        W49552  26.265  32.507  16.820 -0.2055 -0.1808 -0.1243
 6500W        W49553  23.317   3.057   0.424  0.0422  0.2465  0.0754
 6501W        W49554  33.748   6.460  18.728  0.0518  0.2772  0.2073
 6502W        W49555  12.242  32.572  27.640 -0.2266 -0.0835  0.1199
 6503W        W49556  16.846   9.061  19.512 -0.0017  0.0527 -0.2501
 6504W        W49557  20.553  27.355  17.074 -0.0538  0.4712  0.1120
 6505W        W49558  30.293  17.075  15.031  0.2509  0.2108 -0.0604
 6506W        W49559   5.831   0.248   6.922 -0.1199  0.1181 -0.2039
 6507W        W49560  19.649  30.779  18.478 -0.0097 -0.1652  0.0847
 6508W        W49561  29.836  24.919  20.274  0.2947  0.0211 -0.0637
 6509W        W49562  21.334   3.356  18.266 -0.4190  0.0897  0.0615
 6510W        W49563   0.824  24.584  25.493  0.3870 -0.1997  0.2545
 6511W        W49564   2.411  26.574   2.727 -0.1973  0.1797 -0.0913
 6512W        W49565  28.406   3.360  17.709 -0.2851  0.1917 -0.3340
 6513W        W49566  29.673  10.939  23.397 -0.1413  0.2081 -0.2537
 6514W        W49567  32.152  13.532   0.903 -0.1529 -0.2384 -0.2031
 6515W        W49568   6.525  30.059  17.949 -0.2724 -0.1494  0.1105
 6516W        W49569   5.042  23.312  23.362  0.2663 -0.0213  0.1921
 6517W        W49570  24.800  11.288   0.709  0.0314  0.0531 -0.2238
 6518W        W49571  31.678  27.947  23.821 -0.0157  0.0331 -0.0004
 6519W        W49572   5.090   1.804  21.292  0.3562 -0.0095 -0.2167
 6520W        W49573   5.927  11.589  10.258 -0.1060 -0.0040 -0.0418
 6521W        W49574  32.368  26.056   5.935 -0.0294  0.0568 -0.2513
 6522W        W49575  31.691  10.207  28.150 -0.5303  0.0656  0.2338
 6523W        W49576   4.761   4.478  19.380  0.0225 -0.0028 -0.2262
 6524W        W49577  25.585  11.521   5.969 -0.1004 -0.1024  0.1499
 6525W        W49578  10.432  22.436  16.409  0.1616  0.2211  0.2246
 6526W        W49579  27.869  26.220   8.441 -0.2574 -0.0336 -0.1469
 6527W        W49580  32.022  14.304   7.479  0.2033  0.0402 -0.2403
 6528W        W49581  18.724   5.347  27.435 -0.1828  0.1075  0.1840
 6529W        W49582  13.200  31.209  28.023  0.1808 -0.1903 -0.0361
 6530W        W49583  17.194  29.917   8.328  0.0898  0.1879  0.1372
 6531W        W49584   1.233  25.940   0.986 -0.0017 -0.0329 -0.1934
 6532W        W49585   2.887   5.800  16.051 -0.1301 -0.1281  0.0476
 6533W        W49586   1.201   5.404  23.179 -0.1759  0.0343  0.1542
 6534W        W49587   5.509  14.750   8.443 -0.0881  0.2330 -0.3275
 6535W        W49588   9.434   4.519   8.000  0.0669 -0.0130  0.0838
 6536W        W49589   5.092   4.399  22.596 -0.3387 -0.1988  0.0100
 6537W        W49590   2.133  19.197   7.934 -0.0520 -0.0911 -0.1613
 6538W        W49591  19.940   1.401  16.425  0.0601 -0.2942  0.1500
 6539W        W49592  33.540   6.489  22.903 -0.0342 -0.1535  0.0758
 6540W        W49593   3.361   5.586  25.044 -0.1571  0.0010 -0.0402
 6541W        W49594  18.187   8.578  17.212 -0.2149  0.1882 -0.0453
 6542W        W49595   0.429  20.762  18.648 -0.2812  0.2402 -0.2563
 6543W        W49596   0.116  17.449   9.394 -0.0039  0.2237 -0.1289
 6544W        W49597  25.536  34.240  17.873  0.0498 -0.0703  0.2099
 6545W        W49598   5.893  29.820  20.992  0.2447 -0.2106 -0.1097
 6546W        W49599   8.787  14.960  24.807 -0.6256 -0.0370  0.0351
 6547W        W49600  14.743   1.112  28.949  0.1326 -0.1561 -0.1159
 6548W        W49601  33.343  20.354  17.745 -0.3504 -0.2749  0.0913
 6549W        W49602  11.940   1.726  23.895 -0.2217  0.2936 -0.3218
 6550W        W49603  12.984   3.107  18.365 -0.1223 -0.1898 -0.3553
 6551W        W49604  12.158   9.076  28.431  0.1590 -0.3222 -0.4076
 6552W        W49605   5.136   8.171   4.952 -0.0251 -0.0850  0.1568
 6553W        W49606  14.521   5.183  25.462  0.1187 -0.3481  0.2691
 6554W        W49607   8.892   6.730  21.567  0.1580 -0.1618 -0.1286
 6555W        W49608   6.560   1.154  18.773  0.0781 -0.1858 -0.1009
 6556W        W49609  17.487   6.825   2.569  0.0627  0.4401 -0.1701
 6557W        W49610  32.317   0.622  17.796  0.0402 -0.0721  0.1488
 6558W        W49611  20.609  25.503  23.158  0.2022 -0.0345  0.0790
 6559W        W49612  13.137   6.139  24.783  0.1618  0.0897  0.2701
 6560W        W49613  27.200  26.798   4.466 -0.1607 -0.1408 -0.1325
 6561W        W49614  33.348  16.907  18.067 -0.2289  0.0653 -0.0925
 6562W        W49615   9.470   1.033  22.961 -0.1015  0.1862  0.1489
 6563W        W49616   2.587  33.050  20.908  0.1420 -0.0044  0.1947
 6564W        W49617   7.867   5.072  25.994  0.1841 -0.1560 -0.0512
 6565W        W49618  33.961  14.948   0.877 -0.0302  0.0701  0.2247
 6566W        W49619   8.792   1.098  24.439  0.0205  0.0204  0.1243
 6567W        W49620   0.587  21.415  22.014 -0.1271 -0.2065 -0.0302
 6568W        W49621   1.351  34.071  27.060  0.2116 -0.0537 -0.2712
 6569W        W49622  34.363   6.519  24.948 -0.1883  0.0608  0.0999
 6570W        W49623  11.665  17.068  18.830 -0.5258 -0.0116  0.2970
 6571W        W49624  20.338  23.986  24.524 -0.0360 -0.1322 -0.0255
 6572W        W49625  11.531   8.894  20.743  0.2278  0.1513 -0.2288
 6573W        W49626   3.465  29.957   2.045 -0.0419  0.0679  0.0061
 6574W        W49627  23.776  12.476  26.764 -0.2092 -0.2040 -0.1381
 6575W        W49628  31.131  13.097  15.241  0.0514  0.0557  0.1629
 6576W        W49629  17.681  31.022  20.310 -0.2227  0.0524  0.0623
 6577W        W49630   8.860  17.843   1.046 -0.4358 -0.0309  0.1274
 6578W        W49631   3.292  11.192  18.268  0.0631 -0.0607 -0.1310
 6579W        W49632  27.681   7.848  14.670 -0.2908  0.1326  0.0681
 6580W        W49633   6.820  14.334   7.192 -0.1062  0.1725  0.2538
 6581W        W49634  16.115  22.066  26.109 -0.2123  0.0087  0.1318
 6582W        W49635  30.556   4.184  27.614 -0.1038 -0.0251  0.2537
 6583W        W49636  32.181  12.204  27.743  0.2380 -0.2171  0.0942
 6584W        W49637  14.606  30.318   5.601 -0.1822  0.3212 -0.2294
 6585W        W49638  12.156   3.191   1.742 -0.1734  0.0907 -0.2262
 6586W        W49639  25.534  33.384   0.875 -0.0687 -0.0029 -0.0363
 6587W        W49640   7.547  33.080   3.995 -0.2562 -0.0489  0.1280
 6588W        W49641   6.290   7.691  28.094  0.3810 -0.0614  0.2925
 6589W        W49642   2.598   0.606   2.922  0.0645  0.0053 -0.0915
 6590W        W49643  16.834   5.720  19.462  0.0437  0.0439 -0.1349
 6591W        W49644  34.468  32.257  23.259  0.2528  0.0028  0.2441
 6592W        W49645  20.531   6.997   4.758 -0.2622 -0.1405 -0.0902
 6593W        W49646   4.585  20.625  14.648  0.0975  0.2049  0.0929
 6594W        W49647  11.836  34.429   8.027  0.0940  0.2330  0.1236
 6595W        W49648  23.022   7.169   9.366  0.3006 -0.1746  0.0542
 6596W        W49649   1.767   6.543   1.966 -0.2944 -0.0239 -0.0855
 6597W        W49650   2.662   2.284   1.616 -0.0988  0.1785 -0.0297
 6598W        W49651   5.129   2.214  17.682 -0.0492 -0.2994  0.1954
 6599W        W49652   8.285  10.815  21.000 -0.0946  0.0066 -0.3904
 6600W        W49653   1.779   9.969  24.762  0.1837  0.2799 -0.0618
 6601W        W49654   5.616  11.273  19.552 -0.1323  0.0591  0.0736
 6602W        W49655  23.223  10.501  14.563  0.1548  0.0431  0.2788
 6603W        W49656   0.564  11.598  25.023 -0.0065  0.0037 -0.5213
 6604W        W49657   8.136  17.060  20.607  0.0244 -0.1778  0.5987
 6605W        W49658  34.568   5.535  21.771  0.1154  0.0775  0.0138
 6606W        W49659   9.602   4.849   4.973 -0.0370  0.0018  0.1369
 6607W        W49660  30.525  20.821  21.847 -0.1615  0.0844 -0.0001
 6608W        W49661   0.531  16.972   5.881  0.0451 -0.0435  0.1044
 6609W        W49662   5.836  34.617   6.419  0.2766 -0.0176 -0.1734
 6610W        W49663  30.331   8.857  18.668 -0.0560  0.0210 -0.3220
 6611W        W49664   2.774  15.386  14.948 -0.3646  0.2863  0.4809
 6612W        W49665   5.591   7.669   0.948 -0.0685 -0.1651  0.0901
 6613W        W49666  17.066   5.743  27.669 -0.1825  0.2165  0.1115
 6614W        W49667  16.865  11.068  20.591  0.1945 -0.2627 -0.2011
 6615W        W49668  13.850  16.775  27.151 -0.1097 -0.2887 -0.0413
 6616W        W49669  12.791  31.175   6.312 -0.2961  0.1652 -0.2253
 6617W        W49670  32.745  30.590  18.695 -0.0344  0.1623 -0.1850
 6618W        W49671  26.050  24.084  29.029  0.2979  0.1439  0.3959
 6619W        W49672   7.210  31.332   2.015  0.1854 -0.3921  0.0567
 6620W        W49673  30.849  30.326  21.437  0.2130 -0.1359 -0.0287
 6621W        W49674   1.170   1.322  19.890 -0.0118 -0.0584  0.2782
 6622W        W49675  24.288  29.005  13.905  0.0521 -0.1957  0.0772
 6623W        W49676  30.563  10.837  15.304  0.0582  0.0493  0.1989
 6624W        W49677  31.199  15.879  25.003  0.0637 -0.0722  0.2459
 6625W        W49678   8.244   6.683  20.191  0.0511  0.0927 -0.0417
 6626W        W49679   8.126   2.734  21.497  0.5037  0.0301  0.0963
 6627W        W49680   2.356   3.100  22.478 -0.1437 -0.2744 -0.0542
 6628W        W49681  30.769  10.770  22.034 -0.2569 -0.1675  0.1713
 6629W        W49682   1.537  15.201  27.527  0.0655 -0.0846  0.0117
 6630W        W49683   2.044  28.961  23.342  0.3683  0.1032  0.1207
 6631W        W49684  32.862   7.907   3.525 -0.3029  0.1161 -0.1504
 6632W        W49685  10.161  11.274  16.240 -0.2672  0.0782 -0.0780
 6633W        W49686  27.738   7.659  23.672  0.1169  0.4995  0.0750
 6634W        W49687  34.141  27.358  14.976 -0.1009  0.3371 -0.0353
 6635W        W49688   6.016  30.309  21.991  0.1895 -0.2408 -0.0308
 6636W        W49689   0.638   3.013  19.960 -0.0677 -0.0167 -0.0157
 6637W        W49690  28.671  10.243   4.704  0.1178 -0.2866 -0.0068
 6638W        W49691  23.274   3.110  20.033 -0.2860  0.0415  0.1978
 6639W        W49692  21.021   1.431  18.117  0.1058 -0.4649  0.0761
 6640W        W49693  32.697  22.845   1.915  0.3906 -0.1226 -0.4590
 6641W        W49694  32.896  19.029  13.237  0.0437  0.3679 -0.3957
 6642W        W49695  19.497   2.643  25.595 -0.1493 -0.0828  0.0529
 6643W        W49696  30.257   0.249   5.011  0.0695  0.0825  0.0678
 6644W        W49697  24.276  19.222  27.390 -0.0075  0.0089  0.1265
 6645W        W49698  34.017   6.783   1.768  0.1601  0.3495  0.3996
 6646W        W49699   3.287   4.838  26.459  0.0827 -0.1314 -0.0715
 6647W        W49700   6.360  34.434  22.315 -0.4134  0.1455 -0.0583
 6648W        W49701  19.633  10.772  21.467  0.0088 -0.3003 -0.3057
 6649W        W49702  30.770  30.759  28.233  0.0060  0.3082  0.0053
 6650W        W49703  12.858  13.474  22.257  0.0124  0.0703  0.1500
 6651W        W49704  13.203   0.658   4.768  0.1210 -0.1434 -0.0911
 6652W        W49705   1.692  29.448  20.205 -0.2959  0.2030  0.0363
 6653W        W49706  23.980  32.723   4.377  0.0147  0.0948  0.0965
 6654W        W49707  23.251  30.512  25.291 -0.0725 -0.0521  0.0180
 6655W        W49708   6.252  13.084   6.087  0.3292  0.0552  0.0012
 6656W        W49709  16.643  11.789  17.071 -0.0965  0.1016 -0.4123
 6657W        W49710   3.776  29.742  20.188  0.2246  0.0358 -0.0864
 6658W        W49711   1.569   3.247   9.526  0.0408 -0.0305 -0.1485
 6659W        W49712  33.010   9.793  10.513 -0.0057 -0.0860  0.0010
 6660W        W49713  10.665   8.238  17.082 -0.1391 -0.0722  0.1326
 6661W        W49714   1.820  33.184   0.645  0.0684 -0.2325  0.0934
 6662W        W49715   2.829  15.348   6.973  0.2455  0.0768 -0.0138
 6663W        W49716  30.970   1.020  28.022 -0.1181  0.0663 -0.2562
 6664W        W49717   0.324  13.634  14.054  0.2675  0.0753  0.0352
 6665W        W49718  21.442   2.092  19.196 -0.0571  0.0636 -0.0741
 6666W        W49719  10.515   6.527  24.967 -0.2345 -0.2916  0.2784
 6667W        W49720  20.299  11.429   3.671 -0.3120 -0.0174  0.0197
 6668W        W49721   6.270  16.234  14.772 -0.2211 -0.1138 -0.1327
 6669W        W49722   3.821   5.817  18.849 -0.1385 -0.0865  0.0212
 6670W        W49723   7.517   7.914   7.424 -0.2035 -0.1610 -0.1332
 6671W        W49724  18.051   1.791  24.354 -0.1629  0.0966  0.2974
 6672W        W49725   7.131   0.202  29.179  0.0955 -0.0575 -0.1250
 6673W        W49726  23.739   9.624  26.729 -0.3578  0.0591  0.0829
 6674W        W49727  33.731  24.732  23.850  0.0202 -0.1078  0.0640
 6675W        W49728   8.492  33.327  18.518 -0.2473 -0.3807  0.1842
 6676W        W49729  13.028   3.529   2.493  0.1835 -0.1343 -0.2083
 6677W        W49730   6.369  33.671   1.881  0.0290 -0.3706 -0.2357
 6678W        W49731   5.740  12.911  22.053  0.1998  0.0587 -0.2623
 6679W        W49732  29.053   3.470   9.404 -0.1323  0.1298  0.3016
 6680W        W49733   4.073   6.125  28.542  0.3774  0.2183  0.4263
 6681W        W49734  31.142  18.256  17.018 -0.0360  0.0684 -0.0593
 6682W        W49735  33.007  28.508   6.070  0.0483 -0.2709 -0.1098
 6683W        W49736  12.871  29.705  17.062  0.4089  0.1513  0.2790
 6684W        W49737   5.183  17.122  27.889 -0.2507  0.1285  0.2413
 6685W        W49738   2.817  22.403  14.574 -0.0207 -0.0055  0.1721
 6686W        W49739   0.784  13.626   5.580  0.2676  0.0338  0.0223
 6687W        W49740  15.789  13.102   7.429  0.2930  0.3138  0.1271
 6688W        W49741   0.563   5.329  23.810  0.1554 -0.1915  0.0954
 6689W        W49742   9.411  33.953  14.889 -0.2589  0.1450  0.3509
 6690W        W49743   2.040   7.024   0.886 -0.0826 -0.2153  0.0769
 6691W        W49744  33.634  14.621   4.332  0.0757  0.2453  0.3541
 6692W        W49745  29.487  31.146  27.983  0.1167  0.1942 -0.1671
 6693W        W49746   7.819  26.006  23.319  0.1497 -0.2424  0.2254
 6694W        W49747  32.182  11.540  14.733 -0.1457 -0.3740  0.3664
 6695W        W49748  12.815  34.580   5.351  0.1091  0.3019  0.1171
 6696W        W49749  31.354   0.814   4.128 -0.0736 -0.0985 -0.1494
 6697W        W49750  29.577  29.256   8.595 -0.0896 -0.0423 -0.2005
 6698W        W49751   5.431   1.720  29.085 -0.1293  0.2291 -0.0035
 6699W        W49752   4.982  11.914  18.010  0.2578 -0.1311  0.1532
 6700W        W49753   4.150   8.332  29.103 -0.0611 -0.2350  0.3094
 6701W        W49754   6.545   9.080  17.571 -0.1826  0.0366  0.1391
 6702W        W49755  29.997   4.956  19.605  0.2314 -0.2786  0.0259
 6703W        W49756  25.778   3.136   6.654 -0.1557 -0.0317 -0.2383
 6704W        W49757  19.247  10.242  25.812 -0.1004 -0.2126  0.1886
 6705W        W49758  15.953  12.146   2.382 -0.0026 -0.2838  0.2581
 6706W        W49759  29.496  29.414   0.959 -0.1822  0.1019  0.2130
 6707W        W49760   8.067   8.217  24.119 -0.4651  0.1370 -0.4525
 6708W        W49761  14.350   7.747  26.468 -0.1730  0.1649 -0.1024
 6709W        W49762   2.063   8.872  26.053  0.2222 -0.1872 -0.0698
 6710W        W49763  22.778  19.266  29.040 -0.1149  0.1846 -0.1843
 6711W        W49764   3.124   4.741   2.223  0.3884 -0.3350  0.1222
 6712W        W49765  26.074  34.032   2.847  0.3504 -0.1256  0.0605
 6713W        W49766   3.455   2.898  15.731 -0.4198  0.1596  0.3451
 6714W        W49767   7.935   6.606  19.809 -0.1451  0.0412  0.1065
 6715W        W49768   2.018  23.652  27.857 -0.1166 -0.2693  0.0039
 6716W        W49769   8.635  24.014  19.233  0.0537 -0.0968 -0.1806
 6717W        W49770  28.437   4.756  16.328  0.0375 -0.2613  0.2868
 6718W        W49771  16.387  31.371  22.415 -0.1550 -0.0758  0.1400
 6719W        W49772  13.388  13.581   1.744  0.0408 -0.0100 -0.4445
 6720W        W49773  25.714   4.738  20.056  0.0584  0.2216 -0.0087
 6721W        W49774   6.229  27.737  15.487  0.1447 -0.0059 -0.4313
 6722W        W49775   4.824  26.714   9.782 -0.0837 -0.3248  0.2597
 6723W        W49776  32.577  15.782  19.206  0.5464 -0.0277  0.1368
 6724W        W49777  12.688   7.587  10.074  0.3150 -0.1053 -0.0367
 6725W        W49778   7.635  22.893  17.065 -0.0806  0.0800 -0.2432
 6726W        W49779   6.565   2.413  23.811  0.4123 -0.1637 -0.0220
 6727W        W49780  25.648   4.248  20.092  0.1450 -0.2913  0.0811
 6728W        W49781  32.282   3.524  19.005 -0.1669  0.1331 -0.1848
 6729W        W49782  31.226  31.838  28.601  0.1149  0.3123  0.0377
 6730W        W49783   0.390  16.505   0.501  0.1020 -0.1426 -0.1256
 6731W        W49784  31.467   5.860  14.323 -0.1111 -0.0147  0.0098
 6732W        W49785   3.062   2.710  26.677 -0.1254 -0.0157  0.2970
 6733W        W49786  32.852  25.589   6.924 -0.3746 -0.0416  0.0787
 6734W        W49787  20.456   4.486  15.738 -0.0319  0.3019  0.1609
 6735W        W49788   3.257  30.344   0.272  0.1633  0.2039  0.2849
 6736W        W49789  32.873   8.447  15.840  0.2482 -0.2659 -0.1218
 6737W        W49790  14.083  14.840  14.268  0.2523 -0.0840  0.1889
 6738W        W49791   3.258  19.776  22.742  0.0019 -0.0200  0.0527
 6739W        W49792  20.094  11.147   5.757 -0.0980 -0.3861  0.2457
 6740W        W49793  28.087   6.169  15.178 -0.0999 -0.0207  0.2610
 6741W        W49794   3.503  29.420   4.298 -0.0254  0.0209 -0.2463
 6742W        W49795   3.150   8.622   6.235  0.0972 -0.1515  0.3124
 6743W        W49796  13.513   0.055  16.007  0.3826  0.0106  0.3528
 6744W        W49797   9.826  26.832  13.743  0.1126 -0.0668  0.1501
 6745W        W49798  29.777  24.110  18.441 -0.3948  0.2262 -0.1122
 6746W        W49799  25.534  18.026   4.187 -0.1746 -0.0282  0.1666
 6747W        W49800  13.822   0.929  16.000  0.2088  0.0515 -0.0080
 6748W        W49801   4.209   0.784   6.767 -0.0502  0.1400 -0.1325
 6749W        W49802   3.577  30.055   7.009 -0.0472 -0.1022  0.0872
 6750W        W49803  11.063  27.438  27.338 -0.3015 -0.3423 -0.1463
 6751W        W49804   5.221   7.729  27.561 -0.0981  0.1110 -0.2353
 6752W        W49805  34.043   3.964   7.547  0.0942  0.3215 -0.3045
 6753W        W49806  13.194   7.611  27.455 -0.1847  0.2093  0.1359
 6754W        W49807   5.757   0.068  17.512  0.0810 -0.2700 -0.3610
 6755W        W49808  34.225  11.419  23.505 -0.0671  0.0013  0.2209
 6756W        W49809  34.333   3.189   1.286 -0.3656  0.2994 -0.0790
 6757W        W49810  18.774  33.220  20.625  0.4078 -0.1094 -0.0759
 6758W        W49811   4.513  34.440  10.348 -0.0262 -0.0028  0.0288
 6759W        W49812  26.343  16.519  26.757 -0.1700 -0.1034  0.1351
 6760W        W49813   4.492   6.678   9.781 -0.1475 -0.0678 -0.0546
 6761W        W49814  33.596  13.260  16.349  0.0875 -0.1162 -0.1954
 6762W        W49815  34.427   3.677  23.246  0.1568 -0.2330 -0.0850
 6763W        W49816  25.503  28.803  20.294  0.0969 -0.1497 -0.2538
 6764W        W49817   9.972  20.230  15.175  0.0110  0.1453  0.1277
 6765W        W49818  33.948  11.907  21.246  0.1114 -0.2425  0.0742
 6766W        W49819  30.956  32.309  15.263 -0.0155 -0.1679 -0.0937
 6767W        W49820   9.393   9.131  16.201 -0.2974 -0.3411  0.0924
 6768W        W49821  24.402   7.295   2.789 -0.0180  0.2354  0.0641
 6769W        W49822  11.537  31.519  22.294 -0.0454 -0.1112  0.3806
 6770W        W49823  26.035   4.646  14.241 -0.1724  0.1040  0.1120
 6771W        W49824  29.966   1.757  17.231  0.1886 -0.2370 -0.2304
 6772W        W49825  25.961  30.449  14.066  0.0780  0.0510 -0.1792
 6773W        W49826   5.775  20.912  17.452 -0.1567 -0.1916  0.3040
 6774W        W49827   2.311  20.473  26.330  0.1762 -0.1043  0.0146
 6775W        W49828   2.232   3.891   7.395 -0.1440  0.1627 -0.1165
 6776W        W49829   0.617   5.793   9.233  0.3143  0.0448  0.1609
 6777W        W49830  18.222  19.564  12.967  0.1468 -0.2380  0.0264
 6778W        W49831  11.659   8.097  24.462 -0.0382 -0.0527  0.2708
 6779W        W49832  14.215  19.879  17.114 -0.1871 -0.1495 -0.2851
 6780W        W49833  29.923   0.997  21.422  0.3131  0.1250  0.0502
 6781W        W49834  29.285  21.273  25.069  0.1501  0.4203 -0.1822
 6782W        W49835  12.430  29.619   1.959 -0.3673 -0.1587  0.1712
 6783W        W49836   6.163   0.050  26.202  0.1361 -0.2055  0.2313
 6784W        W49837  28.936   2.796  25.333 -0.0734 -0.3183  0.1166
 6785W        W49838   4.619   6.549  18.173 -0.4113  0.1308  0.0037
 6786W        W49839  33.182  17.154   9.396 -0.0385 -0.1203 -0.0313
 6787W        W49840  13.178  12.567  26.406  0.0790  0.0067  0.0078
 6788W        W49841  25.253  14.109  24.039  0.0163  0.0171  0.5727
 6789W        W49842  34.383  10.642  16.656 -0.1920  0.1181  0.2827
 6790W        W49843  23.888  32.378  18.179 -0.1950  0.1753 -0.0706
 6791W        W49844   8.936   4.915  25.613  0.1798 -0.0155  0.0952
 6792W        W49845   7.440   4.264  22.394 -0.0243 -0.0162 -0.0167
 6793W        W49846  24.797   6.012  18.912 -0.1193  0.1720  0.0239
 6794W        W49847   2.549   9.333  17.547 -0.1209 -0.2677  0.0085
 6795W        W49848   3.673  26.411  20.327  0.0027  0.1224 -0.0712
 6796W        W49849   4.063  32.834  17.400  0.0222 -0.1612 -0.0572
 6797W        W49850   4.850  15.306   4.531  0.1768  0.2261 -0.1474
 6798W        W49851  32.460  12.619   9.644 -0.1902  0.1965 -0.0831
 6799W        W49852   8.465   8.815  21.960 -0.0453  0.1750  0.2502
 6800W        W49853  34.185  31.830  24.837 -0.0338 -0.0942  0.0223
 6801W        W49854   3.110  23.388  20.628 -0.1513 -0.0700  0.0340
 6802W        W49855   1.201   3.574  25.550  0.0035 -0.4051 -0.3062
 6803W        W49856   0.391   1.562   6.377  0.1071 -0.0059 -0.0958
 6804W        W49857  20.037  21.296   3.340 -0.1656 -0.1773  0.4344
 6805W        W49858  33.211  18.200  16.435  0.0146  0.3470 -0.0896
 6806W        W49859   2.229  31.761  21.835  0.0896  0.0823  0.0089
 6807W        W49860  27.901  14.717  16.441 -0.0244  0.1012 -0.2858
 6808W        W49861   3.133  25.744   8.655  0.3537  0.0332 -0.4963
 6809W        W49862   5.523  31.314  15.392 -0.1928 -0.1071  0.0423
 6810W        W49863  10.013  20.841  24.553  0.1352 -0.1986 -0.0017
 6811W        W49864   1.011  17.655  16.044  0.0367 -0.3943  0.0405
 6812W        W49865  33.344   1.494  28.795  0.4930  0.0909 -0.0747
 6813W        W49866  10.329   5.950  26.612 -0.0602  0.2934  0.0871
 6814W        W49867  25.626   5.471  15.720 -0.0397  0.1825 -0.1524
 6815W        W49868   3.543  12.079  17.320 -0.2446 -0.2046  0.5110
 6816W        W49869  33.326   4.225   5.253  0.1436 -0.0075 -0.3208
 6817W        W49870  30.802  31.730  21.242  0.3286 -0.0288 -0.0486
 6818W        W49871   3.517  29.745   8.194 -0.3079  0.1438 -0.0244
 6819W        W49872  32.355  10.072   2.325  0.0639 -0.1129  0.0357
 6820W        W49873   3.966  15.365   8.985 -0.0990 -0.1039 -0.1951
 6821W        W49874  27.900   6.013  17.362  0.0755 -0.3930  0.0586
 6822W        W49875   9.242  19.562  26.563  0.0056 -0.1274  0.2094
 6823W        W49876  26.630  29.005  28.716 -0.1479  0.1024 -0.0033
 6824W        W49877  30.235  23.423   5.731 -0.3407  0.0842 -0.0842
 6825W        W49878  11.089  18.699  22.431 -0.0006  0.1810 -0.1442
 6826W        W49879  34.549  14.860  15.210  0.1864 -0.1029  0.0039
 6827W        W49880   1.738   1.907  27.696 -0.1891 -0.0074  0.3469
 6828W        W49881  31.450  13.851  18.294 -0.0147 -0.2293  0.1061
 6829W        W49882  26.888   9.429  13.882  0.1668 -0.0900 -0.1705
 6830W        W49883  27.978   1.518  26.693 -0.1244 -0.3398 -0.0267
 6831W        W49884  19.754   5.294  18.513  0.1275  0.0007 -0.0435
 6832W        W49885   1.630  19.138  16.799  0.1013 -0.1198 -0.2523
 6833W        W49886  30.906   1.408  20.681  0.4768  0.1132 -0.2847
 6834W        W49887  32.430  10.559   7.765 -0.1508  0.0933 -0.2221
 6835W        W49888   5.829   2.387  14.369  0.0433  0.1286  0.0055
 6836W        W49889  34.234   8.013  27.951  0.0155  0.0854 -0.0545
 6837W        W49890  25.643  26.680  23.360  0.3420 -0.1692 -0.2758
 6838W        W49891  10.403  14.195  28.554  0.4845 -0.0604 -0.0525
 6839W        W49892  30.142   4.620   1.330 -0.1506  0.2461 -0.1164
 6840W        W49893   1.286   8.415  17.093 -0.1373 -0.1417  0.3219
 6841W        W49894  27.438   1.406  26.129 -0.1005  0.4034  0.0418
 6842W        W49895  13.146  30.600  14.421 -0.0413  0.1008 -0.0823
 6843W        W49896   6.322  20.053  14.457  0.0766  0.2242 -0.1695
 6844W        W49897  22.463  13.066  19.535  0.1514 -0.1300 -0.1065
 6845W        W49898   7.458  31.024   7.413 -0.2195  0.2863 -0.1566
 6846W        W49899   2.360   0.553  13.835 -0.1971  0.1373  0.0466
 6847W        W49900   5.283   3.304  24.521  0.0446 -0.0504 -0.1949
 6848W        W49901  25.071   1.285   6.660  0.0826 -0.0158  0.0023
 6849W        W49902  22.391   4.942  16.486 -0.0022  0.2267 -0.2646
 6850W        W49903   4.337   1.860   0.406  0.2480  0.0458 -0.1076
 6851W        W49904   2.675  34.466  24.411 -0.0298  0.0461  0.0569
 6852W        W49905  26.629   0.223  14.872 -0.1205 -0.0044  0.1135
 6853W        W49906  27.005   0.588   6.780  0.1769 -0.1455 -0.0943
 6854W        W49907  27.237  19.479   3.693  0.0352 -0.0908  0.1405
 6855W        W49908   8.046  10.705   6.693 -0.0384  0.1781 -0.0862
 6856W        W49909  13.263  25.622  19.274  0.0629  0.4695 -0.4228
 6857W        W49910  31.245  23.477  26.971 -0.0668 -0.0107  0.0720
 6858W        W49911   5.919   6.460  28.428  0.2608 -0.0277 -0.1774
 6859W        W49912  29.261   8.799  22.744 -0.2437  0.1129 -0.1929
 6860W        W49913  32.428  17.317  17.259 -0.3188 -0.1177  0.1670
 6861W        W49914  29.210  16.318  24.449 -0.0810  0.0419  0.1568
 6862W        W49915   7.199   1.310  21.887 -0.0038 -0.3677  0.1618
 6863W        W49916   3.986   6.108   3.714  0.3441  0.3216 -0.1090
 6864W        W49917  24.445   1.017   0.485  0.1014  0.2265 -0.0200
 6865W        W49918   2.798  10.098  22.197 -0.0337 -0.0215  0.2118
 6866W        W49919  22.692  13.986   1.223 -0.3137  0.0820  0.2510
 6867W        W49920  30.034  11.354  23.577  0.0878 -0.4648  0.1746
 6868W        W49921  20.839   7.572   1.059 -0.1227 -0.1176 -0.1113
 6869W        W49922  25.089  30.799  26.927 -0.0258  0.1200  0.2134
 6870W        W49923  29.973  27.387  17.116  0.1830 -0.0337 -0.4628
 6871W        W49924   2.088  13.511   0.784 -0.2812 -0.1161  0.1349
 6872W        W49925   7.289   9.430   0.365 -0.0201 -0.0866 -0.1600
 6873W        W49926  28.992   6.163  20.668 -0.2129 -0.0434  0.1882
 6874W        W49927  24.607   2.435   1.906  0.3743  0.0286  0.1989
 6875W        W49928  16.610   5.098  16.250 -0.0816 -0.0843 -0.1905
 6876W        W49929  27.581  11.697   5.035  0.1077 -0.0855  0.3132
 6877W        W49930  17.175   1.343  28.570 -0.0010 -0.1070 -0.1003
 6878W        W49931   5.688  18.096  16.470  0.1576  0.0763  0.1446
 6879W        W49932   1.327  13.177   1.752 -0.2481 -0.0736  0.0815
 6880W        W49933  31.660  32.049  13.313 -0.0344  0.0181 -0.1208
 6881W        W49934   0.057   6.418  28.855  0.1176  0.2641  0.0605
 6882W        W49935  24.998  27.801   1.606 -0.0448 -0.2800  0.1396
 6883W        W49936  34.013   9.061  20.576  0.0803 -0.1922 -0.3760
 6884W        W49937  30.061   2.821  18.558  0.0257 -0.0251  0.0247
 6885W        W49938  25.225  33.031   1.130 -0.0686 -0.0944  0.4345
 6886W        W49939  34.678  25.095  18.402 -0.1182  0.2077 -0.0214
 6887W        W49940   5.936  29.856   7.993  0.3454  0.0331  0.0825
 6888W        W49941   2.939   3.829  27.657  0.0681  0.2807 -0.0027
 6889W        W49942  23.156  17.542   7.827  0.0457 -0.0822 -0.2262
 6890W        W49943   7.399   9.513   6.305 -0.0243 -0.0436 -0.1528
 6891W        W49944   9.185   7.927  25.757  0.1246 -0.1469 -0.3298
 6892W        W49945  34.518   4.612  25.495  0.0027 -0.1287 -0.1441
 6893W        W49946   2.535   9.347   0.429 -0.2516 -0.0898  0.1006
 6894W        W49947  21.703  17.040  22.311 -0.1197 -0.2009 -0.1651
 6895W        W49948  12.190  12.872  24.866 -0.2704 -0.3326  0.2391
 6896W        W49949  11.833  32.366  23.331 -0.3339 -0.4619 -0.1275
 6897W        W49950   5.690  34.686  26.774  0.0952 -0.0780  0.0563
 6898W        W49951  11.397  29.078  21.298  0.1080 -0.2005 -0.2208
 6899W        W49952  19.292  33.294  27.017 -0.1048 -0.1766  0.1057
 6900W        W49953  34.120  24.850  15.554 -0.0462  0.0431 -0.1933
 6901W        W49954  25.490   1.218  22.312 -0.0303 -0.1989  0.2004
 6902W        W49955  28.264  12.781   4.268  0.1053 -0.0246  0.3344
 6903W        W49956  12.483   5.176  21.447 -0.0964  0.0891 -0.2759
 6904W        W49957   0.291   2.797  27.944  0.0999  0.0828 -0.1407
 6905W        W49958  33.681   5.494  26.984 -0.1223  0.0675 -0.1868
 6906W        W49959  31.114  14.839   0.672 -0.0877 -0.0931 -0.2775
 6907W        W49960  10.646  27.452  26.782  0.1816 -0.0695 -0.0667
 6908W        W49961  17.003  19.856   1.016  0.2487  0.1609  0.2199
 6909W        W49962   2.035  25.609   3.401  0.1277 -0.0912  0.4251
 6910W        W49963  28.686   9.345  23.520  0.2037  0.2301 -0.2596
 6911W        W49964   2.104   3.757  17.050 -0.0101  0.0858  0.0677
 6912W        W49965   0.743  13.986  21.348  0.1316  0.0490  0.1691
 6913W        W49966   8.114   7.632   6.924  0.1317 -0.2915  0.0152
 6914W        W49967   1.019  32.348   7.017  0.2588 -0.3037  0.1832
 6915W        W49968   3.826   7.007  28.939  0.4691  0.2668 -0.0881
 6916W        W49969   0.663  16.443   2.254 -0.0183  0.0015  0.1805
 6917W        W49970   9.792  18.856   8.137 -0.0236 -0.2561 -0.0983
 6918W        W49971  30.497  21.333  23.365  0.1877  0.1000 -0.1372
 6919W        W49972  34.153  12.937  27.536  0.0047 -0.0444 -0.0794
 6920W        W49973  27.200  31.410   5.398  0.0382 -0.1342  0.1160
 6921W        W49974  33.356  15.530  17.276 -0.4188 -0.1574  0.0935
 6922W        W49975  26.112   4.404   3.377 -0.2479 -0.1345 -0.0853
 6923W        W49976  18.606  23.616  22.961  0.1022  0.2525  0.1155
 6924W        W49977  29.644   5.635  24.930  0.2168 -0.0015  0.3923
 6925W        W49978   0.391  11.902   8.596 -0.1819 -0.1630 -0.0071
 6926W        W49979  30.313  12.098  20.569 -0.2900  0.1705 -0.1387
 6927W        W49980  30.927   7.668  21.487 -0.2744 -0.1180 -0.0312
 6928W        W49981   0.734  32.761  26.600  0.0904 -0.1284 -0.2812
 6929W        W49982  26.617  14.547  16.389  0.2020 -0.2670 -0.2419
 6930W        W49983   2.763   2.880  19.435  0.1484  0.4414  0.0731
 6931W        W49984  33.432  13.833   4.787 -0.2186  0.1697  0.1369
 6932W        W49985  28.536   4.091   8.388  0.0128  0.1054  0.0211
 6933W        W49986  28.266  21.847   4.536 -0.2048  0.0366 -0.1067
 6934W        W49987   6.543   5.427  18.440  0.0728 -0.2033  0.1193
 6935W        W49988  28.390  18.544  21.029 -0.2460  0.1110  0.0188
 6936W        W49989  18.082  24.672   8.433 -0.0274  0.0006  0.0828
 6937W        W49990  29.376   6.430  24.390  0.1388  0.0677  0.1440
 6938W        W49991   8.103  19.628   4.754 -0.4038  0.1662 -0.2938
 6939W        W49992  34.284  11.112   7.694  0.2126 -0.0866  0.0477
 6940W        W49993   0.213  33.393  24.690  0.0645 -0.2003 -0.1839
 6941W        W49994   5.606  14.209  26.502 -0.2099  0.1505 -0.0521
 6942W        W49995   3.858  27.082   8.582 -0.2202  0.0746  0.1323
 6943W        W49996  28.473  33.170  27.175  0.0437  0.3021 -0.1765
 6944W        W49997   0.124  17.206  18.846  0.0390  0.1521 -0.0422
 6945W        W49998  33.002   6.327  26.777  0.1148  0.1021 -0.0990
 6946W        W49999   7.431   3.985   6.085 -0.0505 -0.0970 -0.0429
 6947W        W50000   6.724   5.116   3.739 -0.0720  0.0272 -0.1944
 6948W        W50001   5.264   6.018  18.776 -0.2332  0.1991 -0.1805
 6949W        W50002  31.005  25.877  19.024  0.1761  0.0020 -0.2555
 6950W        W50003  15.457  19.811   9.380 -0.2503 -0.0169  0.1743
 6951W        W50004   9.708  10.501  27.933 -0.0450 -0.0497  0.1952
 6952W        W50005  14.910   6.820  26.135  0.3428  0.2494 -0.1799
 6953W        W50006  15.255   5.340   0.518 -0.2276  0.1677 -0.2866
 6954W        W50007   0.269  34.117   9.162 -0.0944 -0.1874 -0.0862
 6955W        W50008   5.290  11.280  27.489 -0.1808 -0.0910 -0.0309
 6956W        W50009  18.139  13.136  28.933 -0.0965  0.0814  0.1534
 6957W        W50010   4.884   9.107  22.303 -0.0637  0.1851 -0.0115
 6958W        W50011   6.461   0.448  16.359  0.0550 -0.0609 -0.0390
 6959W        W50012   4.162  33.510   2.737  0.1114  0.0906  0.2004
 6960W        W50013  21.648  25.083  22.407  0.1283  0.2908  0.0115
 6961W        W50014  24.932  32.772  26.281  0.4097 -0.1442 -0.1422
 6962W        W50015  29.502   1.473   6.290  0.1350  0.1526 -0.0509
 6963W        W50016   0.325   1.888   7.478  0.0279  0.1456  0.2715
 6964W        W50017  11.096  31.953   8.685 -0.0779  0.0882 -0.1476
 6965W        W50018   1.576  14.885  14.733  0.5558  0.0832  0.3547
 6966W        W50019  20.436   5.775  28.399 -0.2538  0.2974 -0.1918
 6967W        W50020  33.793   2.476  29.095 -0.4270  0.0319  0.1889
 6968W        W50021   5.717  13.272   3.390  0.0363 -0.1861  0.1288
 6969W        W50022  33.217  14.728   1.314 -0.0605  0.0600  0.0255
 6970W        W50023   5.524   5.335   2.169  0.0743 -0.0367 -0.2473
 6971W        W50024   1.161  31.268  26.603 -0.0193 -0.0209 -0.1632
 6972W        W50025  33.701  13.224   0.913  0.1067  0.0813  0.2750
 6973W        W50026  33.757   0.782  24.806 -0.1448  0.0955  0.1296
 6974W        W50027   9.398  25.266  14.845  0.0301 -0.4112  0.0969
 6975W        W50028   0.156  15.816  24.515 -0.0590 -0.3452  0.0897
 6976W        W50029   5.845  29.137   0.722 -0.0275 -0.0524 -0.0290
 6977W        W50030  31.176  17.741  26.250  0.1572  0.0466  0.1809
 6978W        W50031  33.772  14.288  15.142 -0.1590 -0.1153  0.1440
 6979W        W50032  29.213   9.303   7.086 -0.0504  0.0357 -0.2469
 6980W        W50033  29.108   5.555  16.723 -0.0747 -0.4715  0.3550
 6981W        W50034   0.034   2.099   8.369  0.1367  0.0466 -0.0740
 6982W        W50035   3.465  33.517  22.865 -0.1953  0.1345 -0.0472
 6983W        W50036  25.830  11.228   3.674 -0.0871  0.1119  0.1890
 6984W        W50037   4.400   9.605  15.141 -0.1902 -0.0227 -0.2040
 6985W        W50038   8.210  20.246   5.776  0.0131  0.0493  0.1624
 6986W        W50039  22.022  26.500   4.063 -0.0261  0.0108  0.0395
 6987W        W50040  15.351   3.792  25.739  0.1632 -0.0012  0.0287
 6988W        W50041   3.300  29.545  14.612 -0.0041  0.1699  0.0029
 6989W        W50042   7.644  31.294   4.237  0.1684  0.0371 -0.1203
 6990W        W50043  33.893   3.951   4.176 -0.0259  0.3177  0.0391
 6991W        W50044  12.984  13.795  25.639  0.0294 -0.1085 -0.0226
 6992W        W50045   1.733  10.564   8.572 -0.0228 -0.0152  0.3094
 6993W        W50046   9.139   8.580  16.860 -0.1305  0.1839 -0.1291
 6994W        W50047  14.740   8.371  25.351 -0.0982 -0.0487 -0.2680
 6995W        W50048  31.715  34.639  26.424 -0.2357  0.3127  0.2284
 6996W        W50049  27.380  11.997  28.750 -0.1992  0.0181 -0.1385
 6997W        W50050  34.116   5.700   7.205  0.0208  0.0159 -0.3315
 6998W        W50051  12.488   7.883   3.602  0.1557  0.1375  0.0036
 6999W        W50052  31.550   2.690   6.063  0.0417 -0.0607  0.1637
 7000W        W50053   0.966   4.363   2.737 -0.0583  0.3395 -0.0063
 7001W        W50054   3.228  11.114  22.124  0.3008  0.0622 -0.0866
 7002W        W50055  34.625  30.346   8.679  0.0183  0.0270  0.3285
 7003W        W50056  25.839  17.986  27.135 -0.2287 -0.3842  0.1162
 7004W        W50057  31.403   9.008  25.136  0.1261 -0.2610  0.0177
 7005W        W50058   6.404   1.322  25.340 -0.0372  0.1113 -0.2494
 7006W        W50059   6.546  33.202  16.099  0.2705 -0.1339 -0.2192
 7007W        W50060  21.592  11.072   2.516  0.2839 -0.0087 -0.0960
 7008W        W50061   7.041  31.772   8.922 -0.2271 -0.2758 -0.1164
 7009W        W50062  25.287  12.557   4.493  0.1786 -0.1325  0.1953
 7010W        W50063   0.389  15.764  19.145 -0.2082  0.1167  0.0999
 7011W        W50064  34.331   7.124   4.874  0.1390 -0.0058 -0.0019
 7012W        W50065  24.387  33.588  27.805 -0.1868  0.0166  0.3842
 7013W        W50066   0.709  19.337   3.033 -0.4365 -0.0319 -0.2282
 7014W        W50067   1.191  10.840   2.768 -0.3065  0.0510  0.0460
 7015W        W50068  11.366   1.109  24.261  0.0969  0.0083  0.1480
 7016W        W50069  25.118  18.228  22.252 -0.0464  0.0369  0.0803
 7017W        W50070  24.373   3.298   7.064  0.0733 -0.1608  0.1013
 7018W        W50071   6.869   6.121  27.301 -0.0362 -0.0088  0.0535
 7019W        W50072  23.180   4.656  16.410 -0.0565 -0.0949  0.1084
 7020W        W50073  26.185   7.234   7.651 -0.4583 -0.1076 -0.0045
 7021W        W50074  27.908  29.491  18.233  0.0275 -0.2798  0.2433
 7022W        W50075  30.639  13.727   7.475  0.2387  0.3767 -0.1492
 7023W        W50076  25.453  14.001   9.321 -0.0774 -0.0903 -0.0387
 7024W        W50077   5.766  11.577  14.965 -0.0866 -0.1057  0.1304
 7025W        W50078  28.603  13.312  27.867  0.1697  0.1410  0.0573
 7026W        W50079  28.615  18.856   4.450  0.0013  0.1162  0.1568
 7027W        W50080   3.842  14.710   4.149  0.3740 -0.1405  0.3006
 7028W        W50081   2.058  16.069   8.235  0.0390  0.1025 -0.0154
 7029W        W50082   4.424   6.316  18.531 -0.2642 -0.1907  0.3513
 7030W        W50083  26.374  10.397  18.668 -0.0668 -0.1218  0.0329
 7031W        W50084   5.761   8.890  22.966  0.1460  0.1013  0.0609
 7032W        W50085  31.901  11.050   0.507  0.1839 -0.0501  0.0197
 7033W        W50086   4.094  26.714  27.775 -0.0288 -0.1595 -0.0792
 7034W        W50087  24.452  15.320   2.084 -0.2526  0.1731 -0.2452
 7035W        W50088  15.866  14.166   2.919  0.0790 -0.0599  0.0231
 7036W        W50089  28.935   5.351   2.521 -0.1717  0.2306  0.0364
 7037W        W50090   8.908   8.300   2.374  0.3164 -0.1243 -0.1303
 7038W        W50091   8.100   0.598  28.662 -0.0984 -0.0368  0.0266
 7039W        W50092  23.561  14.881   4.346  0.1553 -0.1645 -0.1859
 7040W        W50093  32.286  17.862   5.808 -0.1710  0.2196 -0.1341
 7041W        W50094  10.665  15.767   5.464 -0.0891  0.2508 -0.1325
 7042W        W50095  33.552  11.898  20.384 -0.2228 -0.1110 -0.0390
 7043W        W50096  21.087  22.738  10.964 -0.2173 -0.3687 -0.0378
 7044W        W50097  17.584  32.550  27.933  0.1161 -0.2390 -0.2670
 7045W        W50098  18.272   9.880  22.194  0.0232 -0.1648 -0.2188
 7046W        W50099   3.145  32.838  27.352 -0.4548  0.2982 -0.3445
 7047W        W50100  24.723  21.331  21.709  0.2860 -0.0215 -0.0238
 7048W        W50101  19.043  30.841   9.051 -0.3634 -0.0835  0.1738
 7049W        W50102  29.835  11.853   9.407  0.0478 -0.0157  0.1062
 7050W        W50103   9.536   6.632   8.772 -0.0839  0.1638  0.1888
 7051W        W50104   4.547  32.313   4.830 -0.3840 -0.1288  0.1359
 7052W        W50105   1.141  27.913  19.283  0.1403  0.0684  0.0265
 7053W        W50106   1.909  15.268   2.316 -0.1062 -0.0034  0.1265
 7054W        W50107   3.543   4.531  13.996 -0.1273  0.0996 -0.3897
 7055W        W50108  23.296   8.760  22.847  0.0241 -0.4062 -0.0741
 7056W        W50109  29.637   6.576   5.468 -0.0307  0.2033  0.0018
 7057W        W50110  32.403  34.111  15.263  0.1377  0.0401  0.3162
 7058W        W50111  24.278   1.600  27.299 -0.2704 -0.2247  0.1245
 7059W        W50112  31.814   2.720  22.160  0.2933 -0.1939  0.4757
 7060W        W50113  21.259   3.231   1.475  0.0808  0.1437  0.0686
 7061W        W50114   1.773  30.185   1.087 -0.2292 -0.1192 -0.0645
 7062W        W50115   3.016   6.423   3.694  0.1403 -0.0681  0.1836
 7063W        W50116  29.620   1.845  21.285  0.0310  0.0374 -0.0180
 7064W        W50117  18.306   9.199  17.951  0.1264  0.1672  0.1263
 7065W        W50118  20.335  30.058   8.460 -0.0771 -0.0561  0.1409
 7066W        W50119  25.215   6.950  15.595 -0.1897 -0.0681  0.1137
 7067W        W50120   2.882  20.212   1.495  0.3296 -0.3744  0.0702
 7068W        W50121  34.256   1.006  14.876 -0.2662  0.1184  0.0102
 7069W        W50122   4.956  14.389   9.693  0.0356 -0.1303  0.0509
 7070W        W50123   9.038   2.938  24.473  0.0616  0.1037  0.0245
 7071W        W50124   3.707  31.575  22.911 -0.0162 -0.0919  0.1075
 7072W        W50125  16.980   3.472  10.099  0.1491  0.0831  0.0750
 7073W        W50126  26.020   9.630  29.099  0.0832  0.0011  0.0202
 7074W        W50127   0.228  15.491  28.880 -0.3715  0.0343  0.1379
 7075W        W50128   9.194  14.275  18.692  0.1180 -0.1081 -0.2495
 7076W        W50129   8.463   4.407  22.558 -0.1706  0.1226 -0.3198
 7077W        W50130   7.619   2.177   0.312 -0.2440  0.0821 -0.1348
 7078W        W50131  32.757   4.613  27.117  0.0229 -0.1349 -0.0978
 7079W        W50132   5.050  32.061  26.413  0.0988 -0.0230 -0.0910
 7080W        W50133   3.008  34.383   5.342 -0.1401  0.0121 -0.1670
 7081W        W50134  18.605  25.251   2.003 -0.1829  0.0494  0.0855
 7082W        W50135  15.114   4.101   8.584 -0.1733  0.2385 -0.1518
 7083W        W50136  27.294   6.696   2.647 -0.2221 -0.3355 -0.1567
 7084W        W50137   2.470  10.440  15.877 -0.1313  0.0036  0.0022
 7085W        W50138   3.692  31.095   1.945 -0.1384  0.0215  0.2696
 7086W        W50139  24.294  14.363  15.622 -0.0623  0.0098 -0.0018
 7087W        W50140   0.216  30.202  22.127 -0.2390 -0.2836 -0.1108
 7088W        W50141  15.024  28.794  20.528  0.1829  0.0027 -0.0259
 7089W        W50142  21.865   6.750  19.086 -0.0104 -0.1776 -0.1069
 7090W        W50143   5.045   1.752  20.447 -0.1683 -0.0389 -0.2230
 7091W        W50144   9.704   0.011   8.996  0.0045 -0.1481  0.0161
 7092W        W50145  30.726   2.369  17.554 -0.0807  0.0931  0.3670
 7093W        W50146  32.138   9.018   6.755  0.2013 -0.0284  0.0555
 7094W        W50147   5.160   4.420  25.347  0.1347 -0.1613 -0.3440
 7095W        W50148  16.631  34.426  26.314 -0.0052  0.1016  0.0985
 7096W        W50149   3.237  32.334   8.519 -0.6051 -0.0485 -0.0481
 7097W        W50150   4.016   9.506  10.302  0.0594 -0.0200 -0.1386
 7098W        W50151   4.616   9.302   8.599 -0.1904  0.0780 -0.1343
 7099W        W50152   3.675   5.525   3.685  0.1953  0.0680  0.1266
 7100W        W50153   5.132  19.162  17.844  0.1849 -0.2441 -0.0797
 7101W        W50154  25.684   6.212   3.863 -0.2418 -0.3217 -0.1064
 7102W        W50155   0.329   7.529   4.444  0.1713 -0.3619  0.0124
 7103W        W50156   8.350   5.791  29.165  0.1367  0.0788 -0.2190
 7104W        W50157  31.127  25.951  15.240 -0.1126  0.1330  0.0469
 7105W        W50158  21.519   8.616  17.214 -0.1188 -0.1882 -0.1228
 7106W        W50159   2.260   5.118  23.681 -0.0378 -0.1668 -0.0967
 7107W        W50160   3.920  10.158  18.007  0.0495  0.3135 -0.0732
 7108W        W50161  30.826   1.992  15.808 -0.1309 -0.0681 -0.2062
 7109W        W50162   7.044   2.040   9.882  0.1888 -0.0104 -0.1167
 7110W        W50163   5.250  34.214  20.523  0.0762 -0.1697  0.0572
 7111W        W50164  25.543  30.611  21.501  0.3103  0.1992  0.0860
 7112W        W50165  15.963  28.652  26.235  0.1696 -0.0050  0.0483
 7113W        W50166   6.058  21.881   0.735 -0.1067 -0.0008  0.1566
 7114W        W50167   2.628  15.202  20.802 -0.2234 -0.0225 -0.0551
 7115W        W50168   3.555  22.532   9.045  0.0388 -0.0297 -0.0993
 7116W        W50169   7.502  29.818  22.869 -0.0754 -0.0037 -0.2006
 7117W        W50170  15.554  23.616  17.283 -0.1883  0.2339  0.2542
 7118W        W50171   4.254  20.572  24.671 -0.3003  0.4331  0.3415
 7119W        W50172   4.985  16.528  17.578 -0.0548  0.0190  0.1565
 7120W        W50173  26.040  16.264  22.504 -0.1264  0.0343  0.1352
 7121W        W50174   0.548  17.593   8.020 -0.1083  0.1957 -0.0989
 7122W        W50175  16.238   1.949  22.779  0.3367 -0.1394 -0.0831
 7123W        W50176  16.638   0.589   6.420  0.1211 -0.0766 -0.3294
 7124W        W50177  15.621  20.975  15.810  0.3442 -0.1577  0.0721
 7125W        W50178   1.993   6.792   5.832  0.0203  0.0145 -0.0194
 7126W        W50179   8.392   5.284   0.989  0.0942 -0.2082  0.0260
 7127W        W50180  26.770   4.530  17.432 -0.2770 -0.0057  0.3482
 7128W        W50181  34.664  15.622  25.006 -0.2500  0.0084 -0.4028
 7129W        W50182   5.909  31.867  26.181  0.0995 -0.1712  0.3055
 7130W        W50183   6.909   7.399  22.828  0.2905  0.2973 -0.2786
 7131W        W50184  17.738   4.172  23.621  0.0552  0.3134  0.0057
 7132W        W50185  25.771  11.642   1.628  0.1032 -0.0249  0.0378
 7133W        W50186  29.974  11.106  24.425  0.2691  0.1252  0.1172
 7134W        W50187  34.526  29.389  19.417 -0.1426 -0.0381  0.0206
 7135W        W50188  34.185   3.434  24.797 -0.2198 -0.2616 -0.5659
 7136W        W50189  31.178  29.820   5.922  0.2419 -0.0893 -0.0971
 7137W        W50190  20.432   5.419  15.769 -0.2100 -0.2020 -0.1612
 7138W        W50191   3.833   6.560  23.320 -0.1396 -0.1681 -0.2399
 7139W        W50192  23.113  27.467   1.418 -0.1106  0.1811  0.2240
 7140W        W50193  32.537   9.194   9.763 -0.0751 -0.1628  0.1133
 7141W        W50194  13.048   5.094  25.604 -0.0214 -0.3440  0.0635
 7142W        W50195  24.903   9.645  20.518  0.2458  0.3223 -0.0906
 7143W        W50196  23.404   4.447  27.873 -0.0569 -0.0315  0.2538
 7144W        W50197  10.563   4.164   1.839  0.1972  0.0108 -0.0566
 7145W        W50198  13.565   6.849   2.774 -0.0604 -0.3381  0.0128
 7146W        W50199   7.852  11.792   9.321  0.1508  0.2896 -0.0934
 7147W        W50200  14.815  28.519  22.400 -0.1308  0.0925  0.0634
 7148W        W50201  12.975  25.687   5.057  0.2971  0.0925 -0.1013
 7149W        W50202   9.312   1.309   8.959  0.2573 -0.3063 -0.1292
 7150W        W50203   8.188  18.630  28.447  0.3081  0.0572 -0.4723
 7151W        W50204   6.874   5.281   0.824  0.0504  0.0696  0.0197
 7152W        W50205  34.444   4.803   3.304  0.0600  0.1109  0.2551
 7153W        W50206  26.495   5.791  28.706  0.1294  0.3736 -0.1697
 7154W        W50207  22.963  13.686  22.090  0.0120  0.1656  0.3261
 7155W        W50208  13.015   6.452   7.473  0.0399 -0.2413 -0.1667
 7156W        W50209   6.810  11.937  17.119  0.0277 -0.0735 -0.1864
 7157W        W50210  22.445   1.653  27.401 -0.2598  0.2073  0.0298
 7158W        W50211   0.299   7.730   5.586  0.0289 -0.3944  0.4990
 7159W        W50212  28.425  13.512   3.284 -0.1445  0.0213  0.2984
 7160W        W50213  33.764  13.101  28.288  0.0157  0.2166  0.1822
 7161W        W50214  34.324  12.157   5.735  0.0058  0.1139  0.1851
 7162W        W50215  30.611   2.531  26.586  0.3243 -0.0519  0.3861
 7163W        W50216   5.294   9.312   5.183 -0.5236  0.0994  0.2801
 7164W        W50217   9.133   2.144  17.880  0.0315 -0.0079  0.0295
 7165W        W50218   1.642   1.696   8.095 -0.0622 -0.1145 -0.3068
 7166W        W50219  11.746   7.022  15.001  0.2071  0.1176 -0.1003
 7167W        W50220   5.004   4.515  13.572 -0.0889  0.3485 -0.3546
 7168W        W50221   9.699  29.439  17.175  0.4260  0.0250 -0.1727
 7169W        W50222  31.883  23.354  20.720 -0.1216 -0.1997  0.2389
 7170W        W50223  17.316  10.365  26.318  0.0203 -0.5431  0.2139
 7171W        W50224   0.535  14.340  14.649 -0.3255 -0.0681 -0.1564
 7172W        W50225   7.218  13.589  25.944  0.1599 -0.0266 -0.0558
 7173W        W50226   1.017   7.040  25.665 -0.0984 -0.0861 -0.1860
 7174W        W50227  19.047   6.989  26.645 -0.1312 -0.4628  0.0207
 7175W        W50228  21.970   7.812  18.371  0.2708  0.1188 -0.2194
 7176W        W50229   2.117   7.652   7.585 -0.0534  0.1309  0.3190
 7177W        W50230   0.660  23.939   2.326  0.3247  0.2021 -0.1124
 7178W        W50231   4.833  10.221  15.878  0.2163 -0.0877  0.2452
 7179W        W50232   5.695  13.757  28.647  0.1665  0.0239  0.4359
 7180W        W50233  27.005   9.403   4.671 -0.0089  0.0611 -0.2331
 7181W        W50234  32.241  14.094   9.097 -0.2762  0.1586 -0.0435
 7182W        W50235  33.858   2.461   4.833 -0.2919 -0.0296 -0.0419
 7183W        W50236   5.220  17.192   7.658  0.2188  0.0334  0.0371
 7184W        W50237   7.223  28.439  25.670 -0.1482  0.0396  0.2409
 7185W        W50238   4.114  27.517  20.056  0.0260  0.2249  0.4687
 7186W        W50239  16.882  15.843  26.621 -0.0177  0.0015  0.1397
 7187W        W50240  22.174  13.146   1.033  0.0102 -0.3304  0.0498
 7188W        W50241  33.609   4.120  10.875  0.4857  0.1212 -0.1696
 7189W        W50242  32.208  19.088   0.341  0.0291  0.1617 -0.1532
 7190W        W50243   2.073   0.435  21.838 -0.0401  0.4456 -0.1292
 7191W        W50244  25.520   9.022  25.903 -0.0660  0.0113 -0.1824
 7192W        W50245   3.277   9.867   3.888 -0.1437  0.0609  0.2247
 7193W        W50246   4.237   0.429  29.184  0.0124 -0.1248 -0.1294
 7194W        W50247  28.450   7.816   6.920  0.2614 -0.2985  0.2209
 7195W        W50248  18.996   5.184   0.784 -0.0281 -0.2352 -0.0109
 7196W        W50249  10.127   1.989  24.298  0.1543  0.1364 -0.0860
 7197W        W50250   1.219  11.349  15.831  0.4807  0.2137 -0.0139
 7198W        W50251  33.766   5.547   7.626  0.0385  0.2431  0.1230
 7199W        W50252   7.571  29.486  18.718  0.0123 -0.1879  0.0859
 7200W        W50253  27.795   5.979  27.800  0.2918 -0.1408 -0.0225
 7201W        W50254  17.272  26.851  27.064  0.0290  0.1666  0.1710
 7202W        W50255   6.315   7.218   1.770  0.0705  0.1495 -0.1589
 7203W        W50256   5.220  16.359  26.669 -0.2536 -0.0486  0.1571
 7204W        W50257  11.555   5.561  27.493  0.0127 -0.0226 -0.0609
 7205W        W50258  13.569  27.828  25.001 -0.0947  0.0599  0.0829
 7206W        W50259   1.119   4.361  19.254 -0.1749 -0.2927  0.0476
 7207W        W50260   1.663   2.599   7.441  0.2720 -0.0471 -0.1299
 7208W        W50261  33.313  33.658   7.976  0.3158 -0.4779  0.0675
 7209W        W50262  24.124   4.935   1.692 -0.1603 -0.0612  0.1458
 7210W        W50263  20.722   4.026  25.915 -0.1374  0.1611  0.0315
 7211W        W50264   3.424   4.542  23.503  0.2603  0.1091 -0.0069
 7212W        W50265  23.686   5.419   7.635  0.3576  0.0839 -0.2018
 7213W        W50266  33.108  11.747  16.145  0.2687  0.0912  0.1217
 7214W        W50267  22.213   7.940  24.276  0.0641  0.2569  0.3401
 7215W        W50268   3.976   6.840   4.348  0.1497 -0.0722  0.1120
 7216W        W50269  25.201  16.980   1.797 -0.2690 -0.1399 -0.1135
 7217W        W50270  11.287   5.358   9.355 -0.0301 -0.1089  0.2638
 7218W        W50271   1.954  19.813   4.306  0.2370  0.2217  0.0245
 7219W        W50272  11.544   7.792  22.467 -0.0163  0.5312 -0.1351
 7220W        W50273   2.589   8.446   7.155 -0.2959 -0.1477  0.1396
 7221W        W50274  30.174   4.136  19.940  0.0048 -0.2552  0.1313
 7222W        W50275  19.102   3.010   3.269  0.0860 -0.1051  0.1381
 7223W        W50276   0.984  22.893   0.154  0.1623 -0.0738 -0.0483
 7224W        W50277  13.751   5.893  26.768  0.0946 -0.1487 -0.1745
 7225W        W50278   1.514   8.480  24.569 -0.0528 -0.0060  0.0797
 7226W        W50279  10.788   0.598   8.059  0.2327 -0.2230  0.0659
 7227W        W50280  28.656   7.122  10.278 -0.0334 -0.0127  0.0008
 7228W        W50281  27.511  10.244  18.292  0.1153  0.3105  0.0195
 7229W        W50282  29.951  30.506  24.504  0.3393 -0.0039 -0.1550
 7230W        W50283  29.512  18.826  22.022  0.2667  0.0324  0.0721
 7231W        W50284  11.444   4.450   0.743 -0.2381 -0.3749  0.1642
 7232W        W50285   1.862   2.826  15.166 -0.1160  0.0691  0.1208
 7233W        W50286  21.023   3.327  16.098 -0.1639 -0.4109  0.1298
 7234W        W50287  26.759   1.157   0.899 -0.3312 -0.3933 -0.1326
 7235W        W50288  24.739  27.275  29.154  0.2347  0.2336 -0.0800
 7236W        W50289  10.173  19.490  25.475 -0.0706  0.1552 -0.1192
 7237W        W50290  19.901  22.879   0.258  0.0648  0.0626 -0.2175
 7238W        W50291   4.800   3.707   7.334  0.0075 -0.0012  0.3642
 7239W        W50292  14.616  34.570  14.844  0.0228 -0.1450 -0.0136
 7240W        W50293   1.579  17.395   0.836  0.2739  0.0990 -0.0448
 7241W        W50294  19.760  25.863  25.327 -0.0057  0.1917 -0.0410
 7242W        W50295  25.442   9.143  17.147  0.2168 -0.1599  0.0652
 7243W        W50296  32.082  15.993   4.434  0.0015 -0.0062  0.0214
 7244W        W50297  29.744   9.740   7.939  0.1765  0.0307 -0.0653
 7245W        W50298   2.408  33.795   1.879 -0.2026 -0.1131 -0.0305
 7246W        W50299  20.121   8.395   5.376 -0.5118  0.2682  0.0460
 7247W        W50300  10.772   5.054   7.852 -0.0902 -0.0746  0.0758
 7248W        W50301   8.871  11.043   6.659 -0.2024  0.1487  0.0998
 7249W        W50302  19.964   9.057   0.889 -0.0116 -0.1327  0.0161
 7250W        W50303  15.872   2.101   9.541 -0.1235 -0.1357 -0.1700
 7251W        W50304  16.877  31.175  15.332  0.0971 -0.2304  0.1008
 7252W        W50305  32.776  26.832  27.477  0.0727  0.0281 -0.0353
 7253W        W50306   5.567  10.038   1.278  0.0997 -0.2388  0.3219
 7254W        W50307  33.040  20.588   2.347 -0.1495  0.1839  0.0502
 7255W        W50308  25.228  10.604  25.963  0.1407  0.2225 -0.1447
 7256W        W50309   3.449  24.513  16.873 -0.2843  0.2589  0.0399
 7257W        W50310  30.576  25.190  28.550 -0.0211  0.0215  0.0212
 7258W        W50311  22.167   9.381   9.096  0.0364  0.1301 -0.3000
 7259W        W50312  19.385  20.038  26.936 -0.0249 -0.1139 -0.2546
 7260W        W50313  28.294   8.053   7.525  0.2680 -0.1561  0.2385
 7261W        W50314  25.314  18.591  21.888 -0.2017  0.4311 -0.4723
 7262W        W50315  25.298   6.863  24.783  0.1308  0.1197  0.2913
 7263W        W50316  17.341  21.858  24.660 -0.2061 -0.0104 -0.2162
 7264W        W50317  18.106   3.858  10.299  0.2428 -0.0115  0.1445
 7265W        W50318  34.493   3.786   7.859 -0.0286  0.2984  0.1364
 7266W        W50319   7.852   1.820  28.159 -0.0095 -0.0560 -0.0380
 7267W        W50320   6.437  29.390  13.468  0.0976  0.1185 -0.1865
 7268W        W50321  20.919  22.368  15.867  0.0208 -0.1313  0.0963
 7269W        W50322  31.430   0.254   8.751 -0.1372  0.1706 -0.0153
 7270W        W50323  19.285  27.188  22.127 -0.0964 -0.3023  0.1176
 7271W        W50324  14.471  20.299  25.471  0.2460  0.1277  0.2375
 7272W        W50325  24.234  31.778  25.982 -0.2365 -0.2934  0.4242
 7273W        W50326   7.060   2.232  27.201  0.1774 -0.1145 -0.2245
 7274W        W50327  33.917  12.150   4.365 -0.0297 -0.1420 -0.0986
 7275W        W50328   9.331   6.416  22.351 -0.1178  0.0276  0.0297
 7276W        W50329  10.656  23.401   4.933 -0.1049  0.3334  0.2267
 7277W        W50330  18.871  12.794  13.033 -0.1026 -0.1863 -0.3308
 7278W        W50331  22.804   1.764   7.693 -0.0494 -0.0212  0.4019
 7279W        W50332  27.548  15.591  25.554  0.3668 -0.3439 -0.1902
 7280W        W50333   4.520  33.291   0.176  0.5215 -0.0764  0.1953
 7281W        W50334   5.464  10.418  22.191 -0.0046  0.1041  0.1725
 7282W        W50335  10.025   5.645  26.859  0.0273  0.0650 -0.2999
 7283W        W50336   0.618   4.159   8.167 -0.0318  0.0342  0.1271
 7284W        W50337  33.913  25.890   8.735  0.1563  0.1982  0.1396
 7285W        W50338   3.507  29.761   5.608  0.1877 -0.1214  0.1014
 7286W        W50339   8.054   5.524   8.392  0.0082  0.1367  0.1186
 7287W        W50340   0.816  30.930   5.134  0.4646 -0.0457  0.1968
 7288W        W50341  13.954   9.343  23.214 -0.1030  0.1783  0.0287
 7289W        W50342  32.417   7.337   4.210 -0.2291 -0.0098  0.0830
 7290W        W50343  11.032   9.324   5.464 -0.3752  0.0128  0.0242
 7291W        W50344  22.800  31.364  14.916  0.0948 -0.1631  0.0781
 7292W        W50345  30.780   5.054   9.340  0.0167 -0.1246  0.2028
 7293W        W50346   5.675  14.405  15.244 -0.1716  0.0146 -0.0481
 7294W        W50347  13.129  18.701  10.138 -0.0964 -0.1894  0.0811
 7295W        W50348  28.668  21.671  28.178 -0.1176 -0.0181  0.0831
 7296W        W50349  11.531   4.007   4.935  0.0424 -0.0265 -0.2156
 7297W        W50350  29.705  10.543   6.204  0.2354  0.0526  0.1273
 7298W        W50351  14.221   5.664   3.381  0.0173 -0.1202 -0.1565
 7299W        W50352   5.409  10.500   9.432 -0.2312  0.3108 -0.1953
 7300W        W50353   0.969  31.646  23.838  0.0920  0.3264  0.0360
 7301W        W50354   8.195  33.853  10.044  0.0940  0.1727  0.1239
 7302W        W50355  28.888  14.424   2.313 -0.0607 -0.1169  0.1966
 7303W        W50356  23.732   2.690   7.765 -0.3124 -0.1002  0.1210
 7304W        W50357   2.637   4.318   1.792 -0.0382 -0.1804 -0.0131
 7305W        W50358  27.776  25.477  25.752  0.0385 -0.0220  0.1874
 7306W        W50359  26.459   2.002   0.308 -0.0453  0.1425  0.0072
 7307W        W50360  34.167   1.384   6.735  0.1806 -0.2938 -0.0362
 7308W        W50361  32.874   4.055   2.447 -0.0437 -0.0074 -0.2325
 7309W        W50362   5.658  11.227   4.597 -0.2629  0.1515 -0.3048
 7310W        W50363  13.432   9.830   6.427 -0.2463 -0.2283 -0.0260
 7311W        W50364  21.500  15.544  16.364 -0.1491  0.0272  0.1263
 7312W        W50365   5.043   5.288  25.732 -0.1161 -0.1771 -0.0722
 7313W        W50366  10.666   1.028  17.886 -0.0773 -0.0299 -0.4914
 7314W        W50367  31.357  23.226  22.380  0.0766 -0.1335 -0.4109
 7315W        W50368   4.827  33.046  17.165  0.2027  0.1734 -0.1525
 7316W        W50369   0.826  32.358  18.359 -0.0546 -0.3425  0.0245
 7317W        W50370  32.424  11.180   3.656  0.2631  0.1618  0.0574
 7318W        W50371   9.822   6.506  27.720  0.4454 -0.0758 -0.0087
 7319W        W50372  23.389  11.286  17.551  0.1435 -0.0748  0.0730
 7320W        W50373   7.507   9.599  18.258  0.0109 -0.1699  0.0974
 7321W        W50374  24.641  34.346   4.533  0.2683  0.2244 -0.1726
 7322W        W50375   5.299  16.791  16.387  0.0251 -0.2117  0.3743
 7323W        W50376  30.009  12.977  28.404  0.3666 -0.1006  0.3860
 7324W        W50377   1.493  15.026   0.976  0.1385  0.2736  0.0641
 7325W        W50378  31.690   9.247  27.988  0.2921 -0.1164 -0.0828
 7326W        W50379  24.736   1.469  15.490  0.2459 -0.0655 -0.0449
 7327W        W50380   7.795  11.995  22.386 -0.2616 -0.3118 -0.0796
 7328W        W50381   7.881   3.958  24.160  0.3095  0.1447  0.0439
 7329W        W50382   0.523   4.204   2.516  0.3587  0.3749  0.3238
 7330W        W50383  14.664   9.440  27.760  0.0130 -0.0255 -0.2738
 7331W        W50384  22.107  26.695  15.729  0.4212  0.1419  0.0861
 7332W        W50385   4.094   4.015  16.423 -0.1575  0.0866  0.1885
 7333W        W50386   7.044  29.642  22.856 -0.0959 -0.2062 -0.0396
 7334W        W50387  32.318   3.783  20.931 -0.0886 -0.1692 -0.2431
 7335W        W50388  33.244   9.885   8.401 -0.1434 -0.1044  0.0649
 7336W        W50389  18.924  26.238  22.133  0.0514 -0.0587 -0.2273
 7337W        W50390  12.134  12.109   6.099 -0.1731  0.1990  0.1956
 7338W        W50391  32.190  16.001  22.808 -0.2865  0.0224 -0.0207
 7339W        W50392  31.782   4.666  24.362 -0.0815 -0.0849 -0.2256
 7340W        W50393   2.277  15.920  13.064 -0.3336 -0.1517  0.3674
 7341W        W50394  27.493  23.927  22.455 -0.2428 -0.1809  0.0016
 7342W        W50395   5.938  22.426  13.342 -0.3677  0.1163 -0.0639
 7343W        W50396   4.460  28.746  21.227  0.2037 -0.0031  0.2394
 7344W        W50397  10.878   3.013  21.304 -0.0273 -0.0641  0.0342
 7345W        W50398   5.128  15.716  23.260  0.3077 -0.0147  0.0712
 7346W        W50399   5.693  20.271  18.311 -0.0661 -0.2222  0.1489
 7347W        W50400   6.005   9.505  27.043 -0.3307 -0.1155 -0.1776
 7348W        W50401  32.133  11.037  15.055  0.3032  0.2471  0.0110
 7349W        W50402   0.624   3.725  14.886 -0.1000  0.0454 -0.1571
 7350W        W50403  18.161   6.971  14.720 -0.4298 -0.1505 -0.1882
 7351W        W50404   3.987   7.587  22.287  0.2016 -0.0659  0.1264
 7352W        W50405  27.182   3.305  26.256 -0.0498  0.0649  0.0052
 7353W        W50406   5.180   4.797  20.385  0.1655 -0.1012 -0.1092
 7354W        W50407   5.920  19.181  14.021 -0.3330  0.0242  0.0061
 7355W        W50408  20.868  32.013  15.687 -0.0495  0.1493  0.0855
 7356W        W50409  27.680   7.021  15.193 -0.0966  0.4324  0.5932
 7357W        W50410   2.606   3.122  26.039  0.2849 -0.4163  0.1584
 7358W        W50411  13.793   0.671  26.775  0.2483  0.0592 -0.0793
 7359W        W50412  21.963  28.105  19.928 -0.1726 -0.1769  0.1522
 7360W        W50413   2.545  21.916  25.262 -0.0245  0.1573 -0.3289
 7361W        W50414  23.820  10.549   0.458 -0.0356 -0.0374 -0.0112
 7362W        W50415   4.436   2.926  19.222  0.1667 -0.0689 -0.0271
 7363W        W50416  20.841   9.732  21.364  0.0941 -0.1711 -0.0274
 7364W        W50417  14.740  34.666  28.537 -0.0481 -0.1917  0.2659
 7365W        W50418  11.797   7.912  23.343  0.0804 -0.1007 -0.0395
 7366W        W50419  32.603  24.129  18.609 -0.2131  0.2129 -0.2312
 7367W        W50420   9.982  21.281  22.776  0.0294 -0.0408 -0.0622
 7368W        W50421  32.693  18.877  27.435  0.0738  0.0204 -0.1237
 7369W        W50422  10.167   5.664  19.171  0.2727  0.1686  0.3018
 7370W        W50423  13.373   1.959  15.876 -0.1107 -0.2068  0.2081
 7371W        W50424  25.083  31.302  19.360  0.3148 -0.2217  0.1193
 7372W        W50425   3.128  11.957  16.611  0.0879 -0.1530 -0.1756
 7373W        W50426   0.721  18.408   5.662  0.3293  0.0086 -0.2405
 7374W        W50427  23.718   9.726  24.800 -0.2238 -0.3739 -0.0497
 7375W        W50428   3.760   6.148  27.640 -0.0657 -0.2232 -0.1959
 7376W        W50429   6.080  11.354  19.609  0.0075  0.1179 -0.4405
 7377W        W50430   5.323   6.706   6.723  0.1861  0.2340  0.0328
 7378W        W50431   8.630   3.960  28.570  0.1058  0.2055 -0.0794
 7379W        W50432   1.685  34.448  25.482 -0.1950  0.0202  0.2426
 7380W        W50433  22.597   9.061  15.784  0.0113 -0.2617 -0.0438
 7381W        W50434  34.578  19.381   2.997 -0.0144 -0.1445  0.1202
 7382W        W50435  33.793  13.134  15.871 -0.1288  0.2693 -0.2204
 7383W        W50436  19.361   1.667  16.999 -0.3321 -0.1833  0.0164
 7384W        W50437  28.648   7.510   1.311  0.0044  0.1909  0.2325
 7385W        W50438  31.643  18.836   8.034 -0.1659 -0.3551  0.3083
 7386W        W50439   1.009  13.991  20.262 -0.0388 -0.3158  0.2849
 7387W        W50440   5.330  19.033  14.053  0.1471 -0.3005 -0.2585
 7388W        W50441  30.255  10.787  14.860 -0.1418 -0.2497  0.5339
 7389W        W50442  31.033   8.050  13.994  0.0080 -0.0481  0.1034
 7390W        W50443  14.004  24.444   6.400  0.1585 -0.0286  0.1335
 7391W        W50444   4.822  34.250  16.788 -0.1840 -0.0765 -0.3475
 7392W        W50445  19.249   4.394  18.542 -0.2142  0.0358 -0.0261
 7393W        W50446  27.110  13.183  14.361 -0.2271 -0.0827 -0.3202
 7394W        W50447   7.103   7.914  22.763 -0.1503 -0.0639 -0.0556
 7395W        W50448   9.097  13.946  27.537  0.1467 -0.1660 -0.2998
 7396W        W50449  16.228  25.129  25.844  0.0808  0.0919  0.2940
 7397W        W50450  30.370   3.019   3.675  0.0301  0.1607 -0.0792
 7398W        W50451   0.381   9.249  18.567 -0.0075 -0.0305  0.1630
 7399W        W50452  20.112  15.310  21.174 -0.1703 -0.1528 -0.1530
 7400W        W50453   5.351  12.505   0.339 -0.0892 -0.0632 -0.0109
 7401W        W50454  34.249  14.789  19.609 -0.3537  0.1999  0.1469
 7402W        W50455  10.968   1.708  22.532  0.3223  0.0405  0.1383
 7403W        W50456   4.035   7.284  15.419  0.1400 -0.1503  0.2341
 7404W        W50457  34.428   1.339  19.934  0.3171 -0.0407 -0.0275
 7405W        W50458  34.370   5.108  25.415  0.3072 -0.0721  0.4673
 7406W        W50459  10.987  18.019  27.508  0.0578  0.2935  0.3639
 7407W        W50460  30.111  14.739  26.656 -0.1003  0.0613 -0.1113
 7408W        W50461  23.983   8.299  23.539 -0.0146  0.0511 -0.1763
 7409W        W50462  33.085  17.105  26.408  0.0746  0.0801  0.1016
 7410W        W50463  23.453  25.322  16.283 -0.2071  0.1403  0.1990
 7411W        W50464  26.733  32.882  22.111 -0.0428  0.2446 -0.0055
 7412W        W50465   5.264   8.285  15.674  0.3126 -0.0715  0.0441
 7413W        W50466   7.480  28.574  21.309  0.1121 -0.0787 -0.0422
 7414W        W50467  23.880   0.730  26.845  0.1922  0.0645 -0.0278
 7415W        W50468  29.693  18.159  15.057 -0.1230 -0.0490 -0.0971
 7416W        W50469   3.026  17.822  20.939  0.1188  0.0792  0.5229
 7417W        W50470   4.025  32.703   8.041 -0.0532  0.0791  0.0788
 7418W        W50471   2.162   9.995  20.408  0.0480 -0.1024  0.1112
 7419W        W50472  29.578   9.142  23.028  0.1148  0.0501  0.0976
 7420W        W50473   8.743   3.524  16.371 -0.0281 -0.1740 -0.0651
 7421W        W50474  29.107  28.933  18.531  0.0264  0.0246 -0.0498
 7422W        W50475  30.250   4.447  17.192  0.1533 -0.0385  0.1668
 7423W        W50476  10.309  32.468  21.796 -0.3106  0.0235 -0.0919
 7424W        W50477  20.767  13.318  18.755  0.4582 -0.0349 -0.0133
 7425W        W50478  30.768  10.732  15.771  0.2231 -0.1444  0.0186
 7426W        W50479  10.224  16.096  17.437 -0.1921  0.1110 -0.0076
 7427W        W50480   1.359  12.313  22.973  0.1205  0.2188  0.0551
 7428W        W50481  25.633  22.546  15.263  0.0739  0.1287  0.4343
 7429W        W50482   8.882   9.331   2.161 -0.0021  0.0171 -0.1409
 7430W        W50483  28.875  34.530  21.771  0.0380  0.1414 -0.1578
 7431W        W50484  30.582   5.319  19.196 -0.0852 -0.1808 -0.1009
 7432W        W50485  13.978   3.758   0.508 -0.2200  0.1088  0.2556
 7433W        W50486  12.558   9.853   0.166  0.2237 -0.1897  0.1231
 7434W        W50487   8.698   4.470  19.668 -0.0544 -0.5305  0.3688
 7435W        W50488   3.250  22.785  28.956 -0.0948  0.1107  0.0554
 7436W        W50489   8.287  27.900  17.899  0.0274  0.0963 -0.3617
 7437W        W50490   7.560   8.223  28.668  0.1414  0.0059  0.1912
 7438W        W50491  32.941  28.882  15.206  0.1001  0.4594 -0.0655
 7439W        W50492  32.662   0.835  17.451  0.2409  0.2514  0.1284
 7440W        W50493   6.375  29.952   7.102  0.2741 -0.2492 -0.1635
 7441W        W50494  34.047  22.179  19.345  0.1625 -0.4089  0.0870
 7442W        W50495   7.621  34.446  28.446 -0.1134 -0.1141 -0.0929
 7443W        W50496  33.437   7.463  16.078 -0.0851  0.0569 -0.0764
 7444W        W50497  24.054  12.256  19.706  0.0909 -0.3049 -0.0997
 7445W        W50498   4.136   6.066  26.435 -0.0995 -0.0947  0.0389
 7446W        W50499  23.371   8.785  23.390  0.3112 -0.3407  0.1222
 7447W        W50500   3.384   9.957  26.470  0.1372 -0.0347 -0.0493
 7448W        W50501  15.617   5.213  24.106 -0.1576  0.0567 -0.2504
 7449W        W50502   2.146   0.526   1.066  0.0073  0.1115  0.2742
 7450W        W50503  16.481  30.221  14.592 -0.1924 -0.1635 -0.3569
 7451W        W50504  29.702  25.169  21.138  0.1572  0.0822  0.2227
 7452W        W50505   6.424  14.049  23.624 -0.0283  0.1039 -0.0310
 7453W        W50506  13.548   0.752   6.338 -0.0779 -0.1523  0.2660
 7454W        W50507   5.661  14.554  18.713  0.1474 -0.1548  0.0429
 7455W        W50508  32.962  12.954  22.194  0.1692 -0.1608 -0.0413
 7456W        W50509  22.083  30.835  22.953 -0.2111  0.1022 -0.0556
 7457W        W50510   0.834  14.024  16.960 -0.0640  0.0817  0.1837
 7458W        W50511   9.253   3.493  26.896  0.2298  0.2711 -0.0977
 7459W        W50512  31.466  21.059   6.362  0.0571  0.4212  0.1632
 7460W        W50513  22.925   9.649   8.033 -0.4194  0.1616  0.1502
 7461W        W50514  21.467  31.773   4.189  0.1030  0.1099  0.0106
 7462W        W50515   5.041   2.885  28.072 -0.0539 -0.1244  0.1691
 7463W        W50516  31.544  10.303  14.395  0.3748  0.1152  0.0901
 7464W        W50517  18.262   7.676  16.715 -0.2204 -0.0440  0.3089
 7465W        W50518   7.941  32.579  21.936 -0.0403  0.0319 -0.3016
 7466W        W50519  27.192  11.139  14.417  0.1547 -0.2386 -0.1648
 7467W        W50520   9.846  10.651  19.888  0.0947 -0.3272 -0.3094
 7468W        W50521   8.303  12.793  15.257 -0.1318 -0.1639 -0.1520
 7469W        W50522  30.958   4.639  24.337  0.2969  0.2025 -0.3652
 7470W        W50523   6.287  33.534  28.113 -0.1833  0.4035  0.0298
 7471W        W50524  23.544   0.253  16.183  0.0443  0.2685 -0.2686
 7472W        W50525   9.225   3.999  22.296 -0.2399 -0.0881  0.0796
 7473W        W50526  25.376   4.378  21.501  0.0545 -0.0719  0.2355
 7474W        W50527   1.280   1.997  16.995 -0.0232  0.1973 -0.0697
 7475W        W50528   5.052  12.002  18.925 -0.2414  0.2623 -0.0926
 7476W        W50529   7.475  24.697  22.322 -0.0770  0.0667 -0.1437
 7477W        W50530  31.670  10.548  22.799 -0.2115 -0.1404  0.0780
 7478W        W50531  32.850   9.360  22.540  0.0425 -0.0542 -0.0145
 7479W        W50532   2.599  32.553   3.406 -0.3722  0.0162 -0.1543
 7480W        W50533  11.439  19.950  15.586 -0.0415  0.0561  0.0086
 7481W        W50534   7.293   6.078  28.537  0.3486 -0.0088 -0.0960
 7482W        W50535   0.829  24.379   7.156 -0.1007  0.1704  0.1220
 7483W        W50536  33.331  25.969  21.540 -0.0215 -0.2381 -0.2038
 7484W        W50537   1.923  23.340  19.974 -0.1135  0.1700 -0.0506
 7485W        W50538   7.845  31.653   4.572 -0.0936  0.2298 -0.1363
 7486W        W50539  27.426  27.144  19.471  0.1918  0.2392  0.0766
 7487W        W50540   9.321  15.116  23.979  0.0569  0.0360  0.0571
 7488W        W50541  32.724   2.268  16.740 -0.2027 -0.3452 -0.1095
 7489W        W50542   1.840  21.263  13.667  0.1514 -0.0923  0.2470
 7490W        W50543  31.399  14.473   0.847 -0.1363 -0.0574  0.2609
 7491W        W50544  33.828  19.160  19.206  0.0678  0.1404  0.2833
 7492W        W50545  33.651  25.704  18.348  0.1901  0.0962  0.0491
 7493W        W50546   0.908  16.091  14.270  0.1312 -0.0432  0.1161
 7494W        W50547   6.900  19.204  18.547 -0.1017  0.2717 -0.1664
 7495W        W50548  30.227   0.205  19.756  0.2138 -0.0321  0.3738
 7496W        W50549  32.342  31.879   0.583 -0.2776  0.2758  0.2148
 7497W        W50550   3.131  21.915  20.726  0.0753  0.1033  0.2140
 7498W        W50551   5.974  20.622  17.084 -0.0505  0.4905  0.1770
 7499W        W50552  27.215  12.181   9.795  0.2365 -0.1318 -0.3173
 7500W        W50553   7.017  33.282  21.368  0.0707 -0.0914  0.0020
 7501W        W50554  30.624  13.976  16.490  0.1556  0.3300  0.2195
 7502W        W50555  28.757  17.656  17.314 -0.1774  0.0791 -0.0252
 7503W        W50556  28.632   4.808  28.101  0.1055  0.0103 -0.1813
 7504W        W50557   8.391  15.247  28.134  0.0141  0.0848 -0.1299
 7505W        W50558  34.629  18.877  19.366 -0.0643 -0.1264  0.1181
 7506W        W50559  29.811   8.834  24.985 -0.0408 -0.1575 -0.2670
 7507W        W50560  33.322  17.559  25.861  0.0240  0.0718 -0.1628
 7508W        W50561   0.968  11.425  14.927  0.0933 -0.2981  0.0407
 7509W        W50562   4.666   7.615  17.069 -0.3550  0.0273 -0.0833
 7510W        W50563   3.475  26.637  15.377 -0.0070 -0.3233 -0.2797
 7511W        W50564   0.237   6.924  22.314  0.3385 -0.0123 -0.2973
 7512W        W50565   5.803   6.641  15.348 -0.1418  0.1461 -0.1306
 7513W        W50566   9.872  31.774  20.176  0.2084 -0.0898  0.1449
 7514W        W50567   1.733   9.506   2.741  0.0650 -0.0258 -0.1074
 7515W        W50568  32.570   5.679  24.868 -0.1836 -0.2332  0.0517
 7516W        W50569  12.840  15.376  28.333 -0.2295 -0.0647 -0.2485
 7517W        W50570  18.071   3.891  25.278  0.0065  0.0041 -0.1783
 7518W        W50571  10.236   9.651  22.647  0.3327 -0.2847 -0.0453
 7519W        W50572  33.494  10.517  14.654  0.4097 -0.1045 -0.0403
 7520W        W50573  34.238   8.624   1.462  0.2332 -0.2030 -0.0462
 7521W        W50574  23.563  28.714  18.161  0.0198 -0.0730 -0.0284
 7522W        W50575  12.959  26.968  15.855  0.1709 -0.0654  0.0189
 7523W        W50576   7.853  30.307  18.315  0.1200 -0.3637  0.0528
 7524W        W50577   0.026   9.582  28.782  0.5200  0.0633 -0.1048
 7525W        W50578  30.915   3.534  14.443  0.3388 -0.0098 -0.0812
 7526W        W50579   8.583   8.742  23.564 -0.2384 -0.1498 -0.0822
 7527W        W50580  33.628  13.099  20.645 -0.2469 -0.1993 -0.0862
 7528W        W50581   0.713   2.913  18.978 -0.0897  0.1122  0.0793
 7529W        W50582   6.418  10.780  17.289  0.1086 -0.2466 -0.2969
 7530W        W50583   1.394  16.739  14.140  0.3357  0.2210 -0.1544
 7531W        W50584  22.226  16.376  16.698 -0.1106  0.0960 -0.0693
 7532W        W50585  12.627   8.092  16.451  0.2172  0.0369 -0.1345
 7533W        W50586   0.918   5.978  16.951  0.2732 -0.1954 -0.1951
 7534W        W50587   3.830  11.826  14.173  0.0834 -0.0346  0.0553
 7535W        W50588  15.863  13.246  21.750 -0.2631 -0.2598  0.1969
 7536W        W50589   4.109  10.893   0.328  0.0237 -0.3080 -0.2989
 7537W        W50590   8.075  30.162  19.637  0.0177 -0.0743 -0.0258
 7538W        W50591  27.615  11.754  16.603 -0.1425 -0.0272 -0.1103
 7539W        W50592  25.605  20.082  25.133  0.1983  0.1388 -0.3698
 7540W        W50593  12.091   1.936  24.341 -0.0438  0.2937  0.0978
 7541W        W50594   5.727  24.795  15.313 -0.1123  0.1813  0.1408
 7542W        W50595  26.611   7.657  14.332  0.0005 -0.1241  0.1750
 7543W        W50596   7.484  17.231   0.773 -0.1071  0.1516  0.1926
 7544W        W50597  13.561  19.140  24.698  0.2456  0.1637 -0.3367
 7545W        W50598  12.952  23.704  17.638 -0.2460  0.4755  0.1310
 7546W        W50599  31.539  11.660   7.065 -0.0982  0.1171 -0.0889
 7547W        W50600  10.071  25.178  24.803 -0.1781  0.0492  0.3625
 7548W        W50601   1.453  31.400  21.814 -0.3957  0.0431  0.1226
 7549W        W50602   1.712   6.074  15.570 -0.0554 -0.3613 -0.3342
 7550W        W50603  34.123  17.787   2.251  0.1157  0.0703 -0.1645
 7551W        W50604   4.254   1.193  25.169 -0.0873  0.1131 -0.0059
 7552W        W50605   7.938  16.318  17.827 -0.0902 -0.1291  0.0911
 7553W        W50606   2.089   4.206  27.364  0.0318  0.0869  0.3879
 7554W        W50607  31.197  11.211  24.698 -0.2701 -0.2286  0.3074
 7555W        W50608  32.227  19.633  20.961 -0.1348 -0.1039 -0.0192
 7556W        W50609  34.669   6.689  26.013  0.0287  0.2014  0.0948
 7557W        W50610  20.927   8.082  15.776  0.3743 -0.0951 -0.3616
 7558W        W50611  16.903   9.393  27.548 -0.1028  0.0659  0.2187
 7559W        W50612  21.513  16.050  14.816 -0.0885  0.2814 -0.2119
 7560W        W50613   8.068   9.989  16.922 -0.1090 -0.0442  0.2951
 7561W        W50614  10.604  20.474  14.128 -0.1714 -0.0999  0.0419
 7562W        W50615  22.665  15.237  19.828  0.0503  0.1873 -0.1170
 7563W        W50616   2.746   4.482  19.547  0.3830 -0.0364 -0.0612
 7564W        W50617   3.352  22.480  21.475 -0.1631  0.1436  0.1614
 7565W        W50618   3.530  10.082  21.385  0.1058  0.2975  0.1944
 7566W        W50619  31.407   8.370  19.683 -0.0600 -0.1082 -0.1328
 7567W        W50620  32.362   4.499  20.287  0.2090 -0.1499  0.0000
 7568W        W50621  30.125  11.154  17.670  0.1529  0.1214  0.2311
 7569W        W50622  30.230  31.154  23.309  0.1075  0.2329 -0.0072
 7570W        W50623  13.075  14.905  21.120  0.1154  0.0137  0.1316
 7571W        W50624  16.584  32.280  15.939 -0.1585  0.1023 -0.1436
 7572W        W50625   6.654   9.963  24.199  0.0256  0.0315 -0.2343
 7573W        W50626  34.188  12.410  24.795 -0.1387 -0.1734 -0.1505
 7574W        W50627   5.894   1.608  21.954 -0.1935 -0.2029  0.0364
 7575W        W50628   9.094  10.509  26.281 -0.2319 -0.1925 -0.2692
 7576W        W50629   2.127   9.352  24.661  0.3793  0.0963  0.0296
 7577W        W50630  14.689   3.205  15.890  0.3551 -0.1003 -0.2118
 7578W        W50631  31.431   5.155  16.487 -0.0344  0.2465  0.1647
 7579W        W50632   8.186   0.586  21.256 -0.1279  0.0548  0.3553
 7580W        W50633  28.540  30.764  26.380  0.0421  0.0086 -0.0310
 7581W        W50634   3.180  10.362  15.236  0.3028  0.2692  0.3917
 7582W        W50635  14.790  30.911  25.221 -0.2166  0.1930  0.1971
 7583W        W50636  34.139  17.174  20.480  0.3043 -0.2689  0.0877
 7584W        W50637  21.431  10.300  13.962 -0.0255  0.0806 -0.1782
 7585W        W50638   6.899  12.264  20.932  0.0084 -0.0897  0.1291
 7586W        W50639   1.459  15.679   3.462  0.2489 -0.0206  0.0014
 7587W        W50640  26.651  32.066  18.197 -0.1774 -0.0405 -0.0802
 7588W        W50641  16.907  22.172  19.431 -0.1089  0.0223 -0.2089
 7589W        W50642  23.850  15.528  18.252  0.1937 -0.0729  0.0341
 7590W        W50643  25.931  29.800  23.646  0.0130  0.2514  0.0182
 7591W        W50644   4.052   9.837  19.437 -0.1570  0.0926  0.0277
 7592W        W50645  10.011  12.803  15.124 -0.0167 -0.1984  0.0115
 7593W        W50646  14.871  19.247  16.866  0.1909 -0.0859  0.0436
 7594W        W50647   5.465   0.892  19.600 -0.0475  0.0021  0.2686
 7595W        W50648  27.412  13.378  27.040 -0.3267 -0.0915 -0.2017
 7596W        W50649   9.392   9.937  22.463 -0.0315  0.0442  0.1488
 7597W        W50650   8.649   4.955  14.136  0.2014  0.0837  0.0631
 7598W        W50651  10.937   3.435  19.842 -0.0971  0.2168 -0.1224
 7599W        W50652  12.815  20.094   0.631 -0.0319 -0.1069 -0.4357
 7600W        W50653   4.221  13.398  20.584 -0.0307  0.3697  0.2599
 7601W        W50654  17.821  21.187  16.282  0.1500  0.0299 -0.1200
 7602W        W50655  30.437   7.050  24.126 -0.1299 -0.2681 -0.0396
 7603W        W50656   5.548   6.538  18.995 -0.2322 -0.1655 -0.2082
 7604W        W50657  29.251  33.760  20.238 -0.2172 -0.2036 -0.0372
 7605W        W50658   7.826  12.908  24.113  0.0322  0.5665 -0.1106
 7606W        W50659  33.813   7.630  20.510 -0.1582 -0.1503 -0.0631
 7607W        W50660  10.162  32.782  18.441  0.0683  0.0169 -0.0861
 7608W        W50661   7.336   7.619  17.502  0.0247  0.1057  0.0616
 7609W        W50662  24.558   8.059  20.119  0.1663 -0.2363 -0.1168
 7610W        W50663   8.690   2.029  24.393  0.0700  0.3172  0.0110
 7611W        W50664   3.445  20.888  20.766  0.0054 -0.0315  0.2113
 7612W        W50665   4.907   4.984  19.402  0.0636 -0.1280  0.3792
 7613W        W50666   0.253  13.062  23.797  0.2324  0.0859 -0.3684
 7614W        W50667   1.983  33.675  21.232 -0.0835 -0.1512 -0.2954
 7615W        W50668   3.257   1.575  15.350 -0.1560 -0.1440 -0.0311
 7616W        W50669   9.220  27.300  14.325 -0.0212  0.1014  0.2088
 7617W        W50670  14.331   8.921  15.205 -0.4258 -0.0026  0.2611
 7618W        W50671   6.158   2.032   6.307  0.2794  0.0130  0.1476
 7619W        W50672  10.146   4.809   0.143  0.1139  0.1250 -0.0920
 7620W        W50673  28.627  22.497  23.079  0.0205 -0.0402  0.2665
 7621W        W50674  10.060  21.723  27.835  0.0727  0.1138 -0.0621
 7622W        W50675   7.021   5.371  21.187  0.0166 -0.2652  0.3221
 7623W        W50676  29.760  19.696  20.747  0.1406 -0.1133 -0.1229
 7624W        W50677   3.502  20.927  18.598  0.1327 -0.1158 -0.4374
 7625W        W50678  10.528   5.462  15.330  0.0517 -0.2924 -0.2819
 7626W        W50679  13.101   0.935  14.758  0.0795 -0.3576 -0.2570
 7627W        W50680  33.539  10.704   2.138  0.1426  0.2813 -0.0748
 7628W        W50681  15.357  26.745  21.167 -0.2244 -0.1849 -0.0385
 7629W        W50682   2.061  33.465  20.066  0.0123  0.2068  0.2633
 7630W        W50683   6.603   7.367  28.392  0.1233 -0.2512  0.1467
 7631W        W50684  33.550  33.497  18.308  0.1832  0.1711  0.3428
 7632W        W50685  31.375   4.994  23.988 -0.0467  0.2667  0.1205
 7633W        W50686   0.202  11.533   8.838 -0.1929  0.1434  0.4311
 7634W        W50687  34.047   8.095  18.276 -0.0717  0.0618  0.2381
 7635W        W50688  12.451   7.012  17.723 -0.1200  0.0884 -0.4580
 7636W        W50689  11.844   4.892  26.415  0.0259  0.1111  0.0014
 7637W        W50690  11.162   3.553  13.892 -0.1780  0.0549  0.0350
 7638W        W50691   0.349  13.829  17.020  0.0784 -0.0143  0.1075
 7639W        W50692   0.074  24.670  15.279 -0.0644 -0.1806  0.1121
 7640W        W50693   7.135   4.468  28.207 -0.0730  0.0611 -0.0881
 7641W        W50694  17.152  12.432   0.683  0.0947  0.0865  0.3183
 7642W        W50695   4.579   1.556   3.802 -0.1457 -0.3721  0.0695
 7643W        W50696  33.266   4.286   0.389 -0.0436  0.2156  0.0535
 7644W        W50697   1.378   7.129  25.136  0.1318  0.0177 -0.1231
 7645W        W50698   1.485  15.665  18.648 -0.1717 -0.0621  0.1412
 7646W        W50699  31.285  12.134  19.762 -0.0102 -0.2072 -0.0587
 7647W        W50700   3.935  16.919  22.313  0.0871 -0.0473 -0.0076
 7648W        W50701  33.633   4.359  16.951 -0.0046  0.1386 -0.0293
 7649W        W50702   9.173  14.459  23.314  0.0631  0.2407  0.3405
 7650W        W50703  33.744  19.311  15.263 -0.0068  0.2920  0.2618
 7651W        W50704  12.818   4.227  16.957  0.0192 -0.0171  0.0144
 7652W        W50705  29.072  21.156  13.838 -0.1648 -0.1982 -0.3767
 7653W        W50706   1.897  32.282  15.896 -0.1375  0.0786 -0.2753
 7654W        W50707   1.235  15.109  17.680  0.1932 -0.2662  0.3406
 7655W        W50708   4.577  14.912  21.644  0.1701  0.0993 -0.0184
 7656W        W50709   2.864   6.179  19.524 -0.1952 -0.0137  0.2414
 7657W        W50710   5.739  12.870  20.456 -0.2240 -0.0436  0.1071
 7658W        W50711  30.182   5.124   1.297 -0.0186 -0.0206  0.0745
 7659W        W50712   3.978  17.791   5.906  0.1209 -0.0513 -0.0759
 7660W        W50713   4.145   1.537  23.102  0.3748  0.0323 -0.0394
 7661W        W50714  10.422  10.482  15.405 -0.1763 -0.3877 -0.2134
 7662W        W50715   0.114   6.218   0.826 -0.2928  0.1462  0.2896
 7663W        W50716   3.313   0.739  28.144 -0.0983  0.2525  0.2184
 7664W        W50717  30.815  26.200  17.114 -0.0167 -0.1499 -0.0361
 7665W        W50718   1.526   9.932  23.594 -0.2006 -0.0660  0.0784
 7666W        W50719   4.116  25.097  13.875 -0.0361 -0.2051 -0.1021
 7667W        W50720  23.588  14.081  18.543 -0.1176  0.1199 -0.0275
 7668W        W50721   0.656  32.194  18.777 -0.1813 -0.0287  0.2553
 7669W        W50722  18.433   2.371   0.308  0.1472 -0.1246 -0.0262
 7670W        W50723  34.421  20.168  18.178  0.2933 -0.0915  0.0056
 7671W        W50724  27.601   1.786   0.856 -0.3390 -0.1943 -0.4001
 7672W        W50725  16.264  23.000  15.707 -0.1491 -0.1380  0.0009
 7673W        W50726   6.857  33.181  21.845 -0.0168  0.1771  0.0918
 7674W        W50727   3.412  34.103  17.322 -0.0825  0.3140 -0.0260
 7675W        W50728  18.752  14.422  13.300 -0.1575 -0.3597 -0.1598
 7676W        W50729   8.386  15.103  15.218 -0.1857  0.2317 -0.1434
 7677W        W50730   7.170  11.779  27.152 -0.0446 -0.1896  0.3829
 7678W        W50731  12.055   0.210  22.388 -0.1176  0.0761  0.1205
 7679W        W50732  21.611   8.794  27.244 -0.1271 -0.0347 -0.2698
 7680W        W50733   1.382   7.453  13.972  0.0086 -0.3288 -0.1560
 7681W        W50734   8.290  11.630  23.206 -0.2178  0.0144  0.1957
 7682W        W50735  10.842  15.304  24.624  0.3095 -0.2499  0.1837
 7683W        W50736   6.002   2.021  14.741  0.1910 -0.2580 -0.0969
 7684W        W50737  14.684   6.380  20.521  0.1027  0.1647 -0.1643
 7685W        W50738   6.239  18.397  18.603 -0.2723  0.0812  0.0333
 7686W        W50739   5.056  33.494   6.397 -0.1716  0.0397  0.2285
 7687W        W50740  27.360  30.454  22.924  0.1091  0.1647  0.1648
 7688W        W50741   6.923   9.200  23.615  0.0705  0.0506 -0.1036
 7689W        W50742  28.857   4.246   4.989 -0.1782  0.1293  0.0181
 7690W        W50743  25.089  31.402  25.491 -0.0160  0.0971  0.1483
 7691W        W50744   2.674   3.040  24.998 -0.0791  0.0725  0.0201
 7692W        W50745   2.083   1.582  14.363  0.3261 -0.2378 -0.3133
 7693W        W50746   9.493  32.202  26.520  0.1147  0.3024 -0.3353
 7694W        W50747  12.003   3.216   9.009  0.1348 -0.0503 -0.0402
 7695W        W50748   2.885   7.786  16.399  0.0102  0.2490  0.1872
 7696W        W50749  25.278  22.340  29.135  0.2450 -0.1631  0.1019
 7697W        W50750   8.280  27.218  19.274 -0.0051 -0.1784  0.0539
 7698W        W50751  14.782   3.026  21.048 -0.0181 -0.0910  0.5299
 7699W        W50752  32.387  11.279  24.866 -0.1056  0.1168 -0.0110
 7700W        W50753  13.691   9.676  24.048  0.0536 -0.0804 -0.1299
 7701W        W50754   7.630   2.478  17.830  0.1259  0.4856 -0.2246
 7702W        W50755   1.625   3.091  24.238  0.2170  0.2807  0.0496
 7703W        W50756  27.539  24.547  15.028 -0.1041 -0.0945  0.1859
 7704W        W50757   5.167   8.517  26.796 -0.0496 -0.1536  0.0329
 7705W        W50758   0.412  22.175  13.469 -0.1101  0.0351  0.0370
 7706W        W50759  25.736   6.399  16.932 -0.2555  0.2280  0.0051
 7707W        W50760  33.212  16.638  25.597  0.0435 -0.0056 -0.1846
 7708W        W50761  30.358   7.185   5.195 -0.1022  0.0320 -0.1270
 7709W        W50762   5.444   8.498  22.898  0.0992 -0.2091 -0.2450
 7710W        W50763   1.793   9.131  19.665 -0.3387  0.0119 -0.1854
 7711W        W50764   0.308  13.065  15.791 -0.3362  0.0233 -0.0041
 7712W        W50765  33.494   6.576  24.550 -0.1259  0.2326 -0.3126
 7713W        W50766  22.824   8.349  16.527 -0.1866  0.1225  0.2062
 7714W        W50767   3.708   7.295  16.832  0.2101 -0.1790  0.0963
 7715W        W50768   1.642   5.294   2.899  0.1598  0.0732 -0.2322
 7716W        W50769  19.245   6.718  23.717  0.1258  0.1803 -0.2951
 7717W        W50770  18.959  10.790   2.782 -0.1359 -0.0536  0.1984
 7718W        W50771   7.714  28.953   2.925 -0.2001 -0.0701 -0.2595
 7719W        W50772  10.310   8.837  28.978 -0.1999  0.1719 -0.2341
 7720W        W50773  16.239   4.457  18.743  0.1158  0.3127  0.3188
 7721W        W50774   6.390   2.060  24.984  0.0390  0.1391  0.0444
 7722W        W50775  27.659  14.640  21.567  0.1372  0.1058  0.1645
 7723W        W50776  31.821  32.040  14.173  0.0879  0.1046 -0.0915
 7724W        W50777  26.744   6.288  22.016  0.2485 -0.0525 -0.2787
 7725W        W50778   3.940  30.973   6.076  0.1991 -0.0945  0.0293
 7726W        W50779   9.023   9.847  17.174 -0.0996  0.1516  0.3376
 7727W        W50780  24.663   9.861  20.160 -0.0039  0.0380  0.0241
 7728W        W50781  10.677  11.018  19.319 -0.0279 -0.3190  0.3110
 7729W        W50782  11.973  28.556  21.765  0.1861 -0.1457 -0.1523
 7730W        W50783   5.830  30.006   3.781 -0.0498 -0.1506  0.1543
 7731W        W50784   1.163   3.713  24.915  0.3952 -0.1589 -0.1005
 7732W        W50785   6.733   8.735  22.407 -0.0947 -0.0347  0.0425
 7733W        W50786   3.161   0.294   2.322 -0.5857  0.0930 -0.0525
 7734W        W50787  16.828  12.800  25.058 -0.1468 -0.1332  0.0336
 7735W        W50788   3.061  18.877  18.576  0.1692  0.1048  0.1010
 7736W        W50789   4.261  34.359  15.512  0.2321  0.1240  0.2946
 7737W        W50790  15.510   7.116  21.293  0.2418  0.2812 -0.0613
 7738W        W50791   7.990  17.329  22.526  0.0692  0.0136  0.1304
 7739W        W50792   0.334   3.726  16.711  0.0883  0.1811 -0.0085
 7740W        W50793  23.120   8.617  24.437  0.1092 -0.2035 -0.0154
 7741W        W50794  10.504   9.503  25.614  0.2722 -0.2450  0.1823
 7742W        W50795   2.614  14.880  26.268  0.0744  0.1055  0.2033
 7743W        W50796   5.508  23.163  21.805  0.1027  0.1955 -0.1730
 7744W        W50797   5.224   6.635  13.978  0.0065  0.1434 -0.1756
 7745W        W50798   0.281  16.823  20.804 -0.0902  0.1253 -0.2399
 7746W        W50799  31.790  18.540  20.789  0.0520  0.0809  0.0812
 7747W        W50800   4.483  13.893  15.338 -0.2145 -0.2347  0.1536
 7748W        W50801   1.740   4.333  15.234 -0.0400  0.0326 -0.0195
 7749W        W50802   5.080  14.475  22.465  0.1331 -0.0891  0.1589
 7750W        W50803   7.369  15.625  20.048  0.2004 -0.0965 -0.1227
 7751W        W50804  22.867  27.099  14.685 -0.0250 -0.0144  0.0348
 7752W        W50805   8.687  34.072  15.765 -0.1139 -0.0558  0.1650
 7753W        W50806  14.858   0.719  26.878  0.0423 -0.0603  0.5164
 7754W        W50807  30.730  31.919  17.582 -0.0119 -0.0584  0.3884
 7755W        W50808   5.869   5.419  23.698  0.1483  0.0241  0.0083
 7756W        W50809  29.847  11.605  25.325 -0.1143  0.1145 -0.0379
 7757W        W50810   6.684  17.839  22.371  0.2320  0.1639  0.1479
 7758W        W50811  16.626   0.450  16.686  0.1033 -0.0999  0.3030
 7759W        W50812   3.738  33.737  25.376 -0.0962  0.2997  0.3039
 7760W        W50813  12.923  14.787  15.539  0.1735  0.1389 -0.0124
 7761W        W50814   5.865  12.071  21.969  0.3013  0.3055 -0.1415
 7762W        W50815   0.185  13.205  25.941 -0.3904 -0.0129  0.0344
 7763W        W50816  23.672  34.200  15.624  0.4722  0.1690  0.2558
 7764W        W50817   9.069   5.781   1.770 -0.0254 -0.2532  0.3607
 7765W        W50818  18.379   0.218  22.416  0.1997 -0.0374 -0.2498
 7766W        W50819   6.102  31.672  24.333 -0.0711  0.3550  0.3361
 7767W        W50820  29.814  13.794   1.077  0.2833  0.0678  0.0428
 7768W        W50821  29.300  15.828  22.569 -0.0966 -0.2433 -0.0562
 7769W        W50822  14.768  13.224  19.727 -0.0205 -0.0309  0.0341
 7770W        W50823  31.645  10.868   8.852  0.2552 -0.2055 -0.1580
 7771W        W50824   5.756  20.559  20.689 -0.3230 -0.0070  0.1752
 7772W        W50825   2.456   7.645  19.383 -0.3757 -0.2459 -0.1723
 7773W        W50826   1.252   1.493  13.620  0.2528 -0.1346  0.2156
 7774W        W50827   4.933   7.433  29.044 -0.0212  0.2704 -0.0504
 7775W        W50828  26.393  10.556   9.994 -0.0456 -0.0629 -0.0480
 7776W        W50829  27.324   8.053  16.722 -0.0766 -0.0442  0.2508
 7777W        W50830  31.246   8.229   2.956  0.3094  0.1534 -0.0151
 7778W        W50831   6.114  24.584  21.915  0.1241  0.2835 -0.4002
 7779W        W50832   3.503   7.896   2.468 -0.2754 -0.1024  0.0367
 7780W        W50833   4.619   7.236  14.790 -0.1614 -0.0567 -0.1388
 7781W        W50834  24.279   0.896  25.332  0.2455 -0.1299  0.3079
 7782W        W50835  13.833  11.190  28.715  0.0494  0.1939 -0.4477
 7783W        W50836  13.164  19.440  22.981 -0.0288  0.1302  0.0784
 7784W        W50837  10.884  18.027  17.447 -0.1532  0.1482 -0.0455
 7785W        W50838  10.638   1.598  28.770  0.5662  0.1676  0.0353
 7786W        W50839  14.280  12.858  18.430 -0.3679  0.0629 -0.3593
 7787W        W50840  34.185  24.895  19.740  0.0966 -0.1805 -0.1792
 7788W        W50841  12.303  34.152  20.211 -0.0080 -0.1253 -0.1459
 7789W        W50842   5.311   5.543  17.562 -0.0281  0.1584  0.1032
 7790W        W50843   7.587  15.071  17.926 -0.0457 -0.1401  0.1252
 7791W        W50844  28.476  14.111  28.916  0.0286 -0.0038 -0.2966
 7792W        W50845   5.365   1.477   5.813 -0.1201  0.2041 -0.2798
 7793W        W50846   0.366   9.248  24.507  0.0935  0.0024 -0.0289
 7794W        W50847  32.383  16.983  17.672  0.0167 -0.1351 -0.0145
 7795W        W50848   8.064   1.983  15.069 -0.0652  0.1501  0.2379
 7796W        W50849   5.409   8.305   6.628 -0.3107 -0.0477  0.1275
 7797W        W50850  16.098  17.704  28.467  0.2891  0.1318  0.2129
 7798W        W50851   9.834  18.382  26.289 -0.1143  0.2756 -0.0197
 7799W        W50852   3.385  13.619  24.180  0.0467  0.0444  0.0000
 7800W        W50853   6.061   0.533  20.341 -0.1804 -0.0408 -0.1710
 7801W        W50854   7.289   4.172  16.244  0.2434 -0.2752 -0.0261
 7802W        W50855   1.387  21.377  17.486  0.3175 -0.1131 -0.0082
 7803W        W50856  28.747  14.824  19.216 -0.0711  0.0193  0.2203
 7804W        W50857  26.779  16.533  14.122 -0.1749 -0.0141 -0.2120
 7805W        W50858   9.872  22.499  17.256 -0.2182  0.1408  0.0519
 7806W        W50859   6.330   4.865   1.894  0.2166 -0.2962 -0.2038
 7807W        W50860   1.110   0.944  22.300 -0.3098 -0.0455  0.1594
 7808W        W50861   9.340   5.408  18.844  0.0550  0.0083  0.1106
 7809W        W50862   1.168   6.740  19.327  0.1952  0.0809 -0.1418
 7810W        W50863  29.042   3.887  28.812 -0.0209 -0.0157  0.0281
 7811W        W50864  17.824  10.918  16.282 -0.3039 -0.1416  0.0430
 7812W        W50865   1.123  16.446  13.818  0.0300  0.0949  0.2366
 7813W        W50866  13.414  31.133   4.938  0.0878 -0.0442  0.1839
 7814W        W50867  32.194  20.059  29.136  0.2555 -0.1112 -0.2462
 7815W        W50868   8.134   1.544  28.527 -0.1806  0.2726 -0.2094
 7816W        W50869  29.958   0.821  14.842 -0.2331 -0.2128  0.0113
 7817W        W50870  15.205  19.622  24.309  0.0209 -0.0552 -0.2332
 7818W        W50871  15.178  19.262  14.111  0.1964 -0.0201 -0.2283
 7819W        W50872   3.824  11.180   0.640  0.3507  0.0247  0.1567
 7820W        W50873   5.291  32.012  16.610  0.0668 -0.1400 -0.1899
 7821W        W50874  19.592   2.259  21.014  0.0841 -0.2255 -0.1854
 7822W        W50875  31.542  22.197  20.320  0.2474  0.5025  0.1616
 7823W        W50876  10.520  30.743  18.050 -0.1643 -0.0317 -0.2160
 7824W        W50877   3.480  10.602  25.794 -0.2186 -0.2304  0.1940
 7825W        W50878  29.833   4.381  14.711 -0.1143  0.1163 -0.2860
 7826W        W50879   9.966  30.795  20.626 -0.0310  0.0089 -0.1483
 7827W        W50880   6.827  25.389   5.296  0.0122 -0.1773  0.1858
 7828W        W50881   7.121  10.286  18.346 -0.0241  0.1325  0.1308
 7829W        W50882   4.438   2.006  16.046 -0.1790  0.0843 -0.2004
 7830W        W50883   1.515  16.057  17.956 -0.0851  0.2296  0.2259
 7831W        W50884  11.020  10.690   6.125 -0.0555 -0.0860 -0.0625
 7832W        W50885  29.946   9.531  20.152  0.1018 -0.0426 -0.2165
 7833W        W50886  29.940  34.484  23.917  0.6310  0.2288 -0.1446
 7834W        W50887  18.796  23.461   0.437  0.0922 -0.0723  0.0054
 7835W        W50888   4.507   5.860   9.111 -0.0732  0.0198  0.1425
 7836W        W50889   9.815  34.060  22.968  0.1871 -0.2262  0.0199
 7837W        W50890   2.536   7.348  16.384  0.1802 -0.0667  0.0901
 7838W        W50891  16.636  25.376  18.949 -0.0071 -0.1032 -0.0431
 7839W        W50892   0.352  18.137  22.841 -0.0381 -0.2109 -0.0105
 7840W        W50893   0.445  10.977   4.511  0.0248  0.1789  0.2088
 7841W        W50894  10.743   0.820  16.331  0.0010 -0.1168  0.2689
 7842W        W50895   1.988  15.386   6.303 -0.2479 -0.1545 -0.1637
 7843W        W50896  10.087   6.851  19.817 -0.1546 -0.0886  0.1659
 7844W        W50897   6.471   4.645  18.374 -0.1741  0.1636 -0.0191
 7845W        W50898   3.496   5.945  22.488  0.0328  0.0990 -0.1293
 7846W        W50899  17.063  25.164  15.993 -0.1151 -0.3965 -0.2372
 7847W        W50900   7.737   0.239   8.936 -0.0212 -0.1708 -0.2471
 7848W        W50901  22.929  17.235  24.144 -0.1159 -0.0942 -0.2398
 7849W        W50902  13.064  11.289  17.300 -0.2181 -0.0381  0.0838
 7850W        W50903  29.048  15.255  14.106 -0.4045 -0.0299 -0.0964
 7851W        W50904  13.960   3.007  14.694  0.2274  0.1161  0.4387
 7852W        W50905   0.347   3.778   9.897 -0.0670  0.0919  0.0090
 7853W        W50906  23.048   8.368   1.471  0.0035  0.0902  0.1830
 7854W        W50907  32.310  20.340  27.523 -0.2887 -0.2228  0.0339
 7855W        W50908  28.975   2.109  28.012 -0.3424  0.2557  0.2060
 7856W        W50909  14.261   4.093  19.482 -0.1380 -0.3270  0.2384
 7857W        W50910   2.763  17.873  15.342 -0.2613  0.1300  0.1569
 7858W        W50911   8.723   7.387   8.821 -0.1846 -0.1007 -0.1371
 7859W        W50912  10.085  23.185  25.975  0.2039 -0.0542  0.1586
 7860W        W50913  26.812   7.107  22.645  0.0018 -0.0491  0.0879
 7861W        W50914  30.864   3.292   3.571  0.2692 -0.1278  0.2447
 7862W        W50915   5.820  33.834   5.164 -0.1826  0.3717  0.0415
 7863W        W50916  33.522   8.517   1.863 -0.1230 -0.1977 -0.1608
 7864W        W50917  31.951  17.018  20.525 -0.1867 -0.0327  0.5185
 7865W        W50918  13.255  17.984  19.920  0.0888  0.2959 -0.1130
 7866W        W50919  34.246  11.706   2.683  0.0418  0.1469  0.1271
 7867W        W50920  32.693  11.594  22.689  0.0806 -0.1102  0.0038
 7868W        W50921   2.805   6.822  16.235  0.1116 -0.1576  0.3189
 7869W        W50922   1.429  14.240  16.256 -0.1163  0.2100 -0.0882
 7870W        W50923   4.973   2.829  18.926  0.0693  0.1700  0.1152
 7871W        W50924   0.732  16.682  18.115 -0.0575 -0.4238  0.0290
 7872W        W50925   4.835   7.228   0.314  0.0440 -0.2689 -0.0353
 7873W        W50926   7.146   3.599   3.094  0.2303 -0.2232 -0.1774
 7874W        W50927   9.208  14.507  17.532 -0.2322  0.0178 -0.2001
 7875W        W50928  27.015   7.949  27.997  0.3445  0.0214 -0.3809
 7876W        W50929  29.189  18.268  26.373  0.0317  0.1008 -0.1721
 7877W        W50930  25.404   2.923  14.572 -0.1560 -0.1395 -0.2414
 7878W        W50931   0.361   8.408  20.656  0.3439 -0.0765 -0.0319
 7879W        W50932   6.818   4.481   0.223 -0.2512 -0.0587  0.1344
 7880W        W50933  15.766  20.092  23.850 -0.1410  0.1944  0.1170
 7881W        W50934   4.623  34.577   3.618 -0.0675 -0.1882 -0.0245
 7882W        W50935   5.457  33.806  25.317 -0.0295  0.0032  0.1443
 7883W        W50936   1.697  19.774  19.797  0.2321  0.0197 -0.2024
 7884W        W50937   1.667  28.800  28.415  0.0203  0.0479  0.3351
 7885W        W50938   7.097  11.687  16.510  0.2596  0.2337 -0.6890
 7886W        W50939  14.605   7.000  29.149  0.0167  0.0286  0.0728
 7887W        W50940   7.241  27.758  14.329  0.2961 -0.1991  0.0656
 7888W        W50941   1.744  31.550  18.858  0.2241 -0.0022  0.1908
 7889W        W50942  33.029  14.324  20.105 -0.0788  0.1720  0.1855
 7890W        W50943   4.908  32.841  27.024 -0.1329  0.2268  0.1195
 7891W        W50944  18.106  20.110  26.003  0.0571  0.1354  0.3924
 7892W        W50945  21.879   3.204  18.672  0.2581  0.0014  0.0002
 7893W        W50946   6.072  17.715  21.980  0.1397 -0.1206 -0.2166
 7894W        W50947   4.529  12.186   4.039 -0.0578  0.1971 -0.1129
 7895W        W50948   2.719   7.007  13.686  0.2797  0.1173 -0.3550
 7896W        W50949   9.925   2.685  15.749  0.1215  0.1267 -0.0249
 7897W        W50950   2.156  34.497  17.462 -0.1569 -0.0441 -0.1396
 7898W        W50951   0.804  13.174   1.640  0.0769 -0.1526  0.1358
 7899W        W50952  26.703  11.939  28.112 -0.1934  0.1125  0.0329
 7900W        W50953   3.688   5.001  22.410 -0.0844 -0.3640  0.1473
 7901W        W50954  33.507  11.328  16.148 -0.1530 -0.2548  0.0223
 7902W        W50955  34.487   9.465  23.972  0.0435 -0.1035  0.1034
 7903W        W50956  12.869   1.454  29.130 -0.0551 -0.0296 -0.0291
 7904W        W50957  12.316   7.326  22.212  0.0587  0.4010  0.1445
 7905W        W50958  27.437  16.698  24.750 -0.0934  0.1768  0.2705
 7906W        W50959  23.381   8.718  17.341 -0.0366 -0.0896 -0.0322
 7907W        W50960  13.816   8.073  15.429  0.1244  0.1612 -0.1462
 7908W        W50961  10.992   8.277  23.150  0.0733  0.1693 -0.0514
 7909W        W50962   8.469   7.467  26.389 -0.4568 -0.1883 -0.2782
 7910W        W50963  14.181   8.830  17.083 -0.0690  0.1330  0.2523
 7911W        W50964  15.428   9.180   5.286  0.0650 -0.2847  0.1366
 7912W        W50965  33.724  16.245  16.852 -0.3215  0.1628  0.0389
 7913W        W50966  34.135  25.969  19.328  0.2869 -0.0145 -0.0184
 7914W        W50967  27.622  16.031  22.260 -0.0887 -0.0062 -0.1781
 7915W        W50968   0.721   6.631   7.151 -0.0872  0.1263 -0.0686
 7916W        W50969   7.789   8.617   6.971 -0.0611  0.0685 -0.1707
 7917W        W50970  18.635   3.608  19.771 -0.0369  0.1658  0.2096
 7918W        W50971   2.022  13.065   3.522 -0.1647  0.2187  0.2827
 7919W        W50972  18.681   9.075  24.177  0.0083  0.0119 -0.0905
 7920W        W50973  22.029   9.031  25.171 -0.1132 -0.1099  0.2540
 7921W        W50974  15.549   5.850  17.857  0.0278 -0.0376  0.3047
 7922W        W50975  15.076  18.968  15.232 -0.1717 -0.1588 -0.4842
 7923W        W50976   5.188   9.804  20.025  0.0430  0.0376 -0.0521
 7924W        W50977   2.289  16.666  28.294  0.0983  0.1503  0.0486
 7925W        W50978   4.505  25.466   8.182  0.2263  0.1771 -0.0440
 7926W        W50979  14.556  34.437   9.181 -0.1505  0.0039 -0.0948
 7927W        W50980   0.185   7.732  19.950  0.3340  0.1794  0.4404
 7928W        W50981   1.774   9.619  21.747 -0.2549 -0.1408 -0.0675
 7929W        W50982  18.858  34.621  27.068  0.1878  0.3628 -0.0450
 7930W        W50983  33.901  14.630   9.633  0.0228  0.0113 -0.4489
 7931W        W50984  10.743  27.856  27.432 -0.1107 -0.2138 -0.2196
 7932W        W50985  31.711   2.615  28.143  0.4011 -0.2294  0.1687
 7933W        W50986  15.755   2.332  18.647  0.3831  0.0346 -0.1453
 7934W        W50987  29.781  15.201  14.581 -0.2700 -0.0669 -0.0614
 7935W        W50988   6.494  34.191  20.207  0.5435 -0.2934 -0.0416
 7936W        W50989  13.807  29.154  25.611 -0.4815  0.2906  0.2563
 7937W        W50990  10.884   7.163  18.562 -0.1701 -0.2213  0.1734
 7938W        W50991  16.089  12.991  14.444  0.3341 -0.1324 -0.0155
 7939W        W50992   7.618  10.464  26.058  0.1235 -0.0799 -0.2465
 7940W        W50993  10.088  15.115   2.334 -0.0352 -0.0684  0.1879
 7941W        W50994  11.319   0.291   0.643 -0.1839 -0.1460 -0.3745
 7942W        W50995   2.876   2.832  17.953 -0.0762  0.2235  0.3687
 7943W        W50996   3.994   1.758  23.844  0.1072 -0.0405 -0.0655
 7944W        W50997   2.326   5.430  19.463 -0.0575  0.0487  0.2148
 7945W        W50998   1.502  16.484  14.785 -0.2290  0.1236  0.0308
 7946W        W50999  30.220  34.547  25.072 -0.0343  0.1452 -0.0991
 7947W        W51000   1.551   5.538   0.023  0.0136  0.2546  0.0098
 7948W        W51001  21.791   5.279  27.455  0.1721 -0.5101 -0.1033
 7949W        W51002  22.170  27.168  15.560  0.2400 -0.1759 -0.0265
 7950W        W51003  24.730  18.384  15.385  0.1541  0.2315 -0.2016
 7951W        W51004   6.625   3.445  27.552 -0.1583 -0.0114 -0.1416
 7952W        W51005  33.977   7.155  15.741  0.5413  0.1525 -0.1015
 7953W        W51006  30.089   4.025  14.327 -0.2797 -0.1789 -0.5425
 7954W        W51007  31.923  19.211  17.767 -0.2546 -0.0146  0.2319
 7955W        W51008  29.763   5.088  18.727  0.4481 -0.0690  0.0930
 7956W        W51009   3.397  18.983  19.965  0.1703  0.2410  0.0072
 7957W        W51010   4.173   9.407  18.032  0.0322 -0.1831 -0.1182
 7958W        W51011   9.940   3.054  22.041  0.0493  0.1955  0.0389
 7959W        W51012   2.420   9.829  27.914 -0.1482  0.1040  0.2225
 7960W        W51013   8.071  12.305   6.114 -0.2276 -0.0746 -0.5363
 7961W        W51014  34.352  16.071  19.188  0.2889  0.1646  0.2437
 7962W        W51015  13.107   5.371  24.188  0.0800  0.3405 -0.1489
 7963W        W51016  24.594   7.806  15.558  0.0601 -0.2488 -0.1579
 7964W        W51017  32.583  12.469  19.660  0.0642 -0.1186  0.2054
 7965W        W51018   2.103   8.311  18.857  0.0489  0.2799  0.3444
 7966W        W51019  33.303  12.884  17.552  0.1966 -0.1561 -0.1179
 7967W        W51020   7.686  23.139  14.735  0.1041 -0.0063  0.0188
 7968W        W51021  10.170   7.037  16.348  0.0041  0.2311  0.0623
 7969W        W51022  27.264  22.324  15.674  0.0003  0.1955  0.2610
 7970W        W51023  26.852  20.923  28.897 -0.2702  0.1784 -0.3532
 7971W        W51024  25.524  30.562  26.956 -0.0275 -0.1744 -0.1094
 7972W        W51025   4.325   2.890  16.219  0.3117 -0.0892  0.2180
 7973W        W51026   7.785   5.831  17.055  0.2367  0.0688  0.2212
 7974W        W51027  11.318   6.790  21.842 -0.1627  0.2862  0.1092
 7975W        W51028  33.902   4.765   3.049 -0.0847  0.1489 -0.2791
 7976W        W51029  10.042  12.650  17.299 -0.0109  0.2083  0.1363
 7977W        W51030  29.001  29.262   2.401  0.0609 -0.2678  0.3239
 7978W        W51031  32.312   6.796  27.268 -0.2052  0.2334 -0.2117
 7979W        W51032  32.685   5.089  15.328  0.2691  0.2901  0.2082
 7980W        W51033  11.589  29.211   0.084  0.1417  0.0328  0.0184
 7981W        W51034   3.120  14.253   9.080  0.5359 -0.2337  0.3177
 7982W        W51035  32.367  20.459  13.299 -0.0301  0.0395 -0.3067
 7983W        W51036   8.888  16.314  22.242 -0.0494  0.1272 -0.1180
 7984W        W51037   4.454  13.586   6.307 -0.1913 -0.0776 -0.2115
 7985W        W51038   2.061   5.548   2.730 -0.0806  0.3121  0.1874
 7986W        W51039   4.586   3.600  13.739  0.2656  0.1624 -0.0057
 7987W        W51040   7.608  31.247   5.940  0.3776 -0.1738  0.0935
 7988W        W51041   2.110  13.846  29.074 -0.0405  0.2554  0.3064
 7989W        W51042  32.666  22.054  28.191  0.3527  0.2093 -0.0235
 7990W        W51043  32.772  19.747  26.987 -0.0493  0.0216  0.0162
 7991W        W51044  32.795  14.731  26.433 -0.0885  0.0567  0.0646
 7992W        W51045   2.441  23.031  18.736  0.2844 -0.2365  0.0749
 7993W        W51046   9.124   8.396  15.119 -0.1130 -0.0544  0.0564
 7994W        W51047  18.004  11.592  19.880  0.3317 -0.0756 -0.0637
 7995W        W51048  20.072  11.672  18.786  0.0013  0.0926 -0.3682
 7996W        W51049   9.859  24.689  18.230 -0.0473  0.3320  0.0804
 7997W        W51050  31.898  16.859  14.562  0.0765 -0.1078  0.0743
 7998W        W51051   9.125  27.543  19.654  0.0939  0.3190 -0.0825
 7999W        W51052   4.973   9.692  24.931  0.1143 -0.1831  0.0089
 8000W        W51053  30.367   8.711   4.263  0.3163 -0.3209  0.0411
 8001W        W51054   3.503   7.073  19.416 -0.0706 -0.3122  0.0725
 8002W        W51055  31.149  25.767   0.768 -0.0492 -0.0499  0.1887
 8003W        W51056  31.045   4.869  18.276 -0.0816  0.1386 -0.3576
 8004W        W51057  16.292   8.904  25.967  0.1450  0.3333 -0.0643
 8005W        W51058   1.411  13.869  14.748  0.1014  0.2935 -0.3346
 8006W        W51059   1.115  14.817  23.643  0.2016  0.1164 -0.0790
 8007W        W51060  26.023   5.949   4.277  0.1604 -0.0680  0.1845
 8008W        W51061  14.057   9.946  29.090  0.0528 -0.2951  0.0575
 8009W        W51062   4.361  18.421   5.420  0.4248 -0.4872  0.0855
 8010W        W51063  32.412   4.099  14.289  0.2866  0.1398  0.0694
 8011W        W51064  12.404  28.792  14.789  0.1870 -0.3326  0.0484
 8012W        W51065   1.191   5.207  24.399  0.1995 -0.2475  0.1569
 8013W        W51066   8.084   9.921  18.107 -0.1006  0.1080 -0.0254
 8014W        W51067  27.206   7.370   3.064  0.1364 -0.1115  0.0344
 8015W        W51068  25.970  26.471  23.645  0.1274  0.1779 -0.2004
 8016W        W51069  25.249   0.257  15.419 -0.0134  0.2337  0.0458
 8017W        W51070  33.996   2.093  22.947 -0.5491 -0.2545  0.0226
 8018W        W51071  23.574  31.219  14.815  0.3450 -0.0063 -0.0331
 8019W        W51072  31.467  34.472  14.147 -0.0336 -0.2605  0.2069
 8020W        W51073  33.985   3.609  14.986 -0.1093  0.1286 -0.0561
 8021W        W51074   6.889   4.362   5.349  0.1017  0.0755 -0.2520
 8022W        W51075  32.125   8.520  24.267 -0.1672  0.0586 -0.0711
 8023W        W51076   5.147  33.259   6.860 -0.0441  0.1477 -0.3158
 8024W        W51077  30.157   4.298   0.327 -0.1568 -0.1686  0.2541
 8025W        W51078   7.450  25.500  22.478 -0.0621  0.1525 -0.0428
 8026W        W51079  30.291  20.653  18.754  0.4296  0.0491  0.1549
 8027W        W51080  21.779   4.341  24.531 -0.0767  0.0799 -0.0321
 8028W        W51081  20.009   3.538   4.560 -0.2123  0.1010 -0.0390
 8029W        W51082  32.789   2.604   0.884  0.1037  0.0363 -0.0748
 8030W        W51083   3.179  12.861  21.413  0.2615 -0.0719 -0.0980
 8031W        W51084  11.027   8.085  21.722  0.3907 -0.0527  0.0768
 8032W        W51085   8.887   8.604  27.666 -0.1081  0.0870  0.0419
 8033W        W51086  29.908  31.921  24.922 -0.2759  0.2140  0.1730
 8034W        W51087   6.574   8.685   3.933 -0.1384  0.2056  0.0745
 8035W        W51088   5.403  15.445  28.679 -0.1599 -0.0140  0.1731
 8036W        W51089   1.290  26.936  23.274  0.1132 -0.0856  0.1257
 8037W        W51090  29.585  19.519   3.715  0.1836  0.5149  0.0072
 8038W        W51091   9.256   5.078  19.698  0.0158 -0.1305 -0.0036
 8039W        W51092  25.694  14.957  29.046 -0.2031 -0.2751 -0.0613
 8040W        W51093  10.879   6.125   5.534 -0.1720 -0.0668  0.1053
 8041W        W51094   0.688   9.663   8.578 -0.0035  0.0792  0.2550
 8042W        W51095   0.726   7.347  23.444 -0.1950  0.0850  0.0896
 8043W        W51096  32.603  17.263  14.110 -0.1787 -0.1774  0.0117
 8044W        W51097  32.645  13.748   2.991  0.2170  0.0920  0.0154
 8045W        W51098   3.821  16.408  21.915 -0.1775 -0.2426  0.1979
 8046W        W51099   3.564  13.265   1.821 -0.0760 -0.1212  0.1861
 8047W        W51100  27.048   9.327  21.881  0.1936  0.0096 -0.2156
 8048W        W51101  32.472   9.571  22.752 -0.2730  0.0055  0.0405
 8049W        W51102  33.922   6.115   0.070  0.0841  0.0046 -0.0479
 8050W        W51103  24.048   0.985  14.756  0.0114  0.1320  0.1130
 8051W        W51104   2.744  12.285  14.040  0.4182 -0.1184  0.3773
 8052W        W51105   3.367  26.820  20.442 -0.2553  0.0972  0.1398
 8053W        W51106  25.567  31.709  19.614  0.1435 -0.1970 -0.0716
 8054W        W51107  27.597  20.431   6.259  0.1665 -0.3343  0.1970
 8055W        W51108  10.238  18.761   1.694  0.0649  0.0305 -0.0585
 8056W        W51109   1.643   8.171  22.124 -0.2487  0.4083  0.1224
 8057W        W51110  29.603   8.930  16.233 -0.1757  0.0222  0.3641
 8058W        W51111   1.697  18.769  17.114  0.2711  0.3588 -0.0783
 8059W        W51112   6.299  14.744   5.818 -0.0082  0.0409  0.3210
 8060W        W51113  13.862  34.497   6.121  0.2110  0.0583 -0.1355
 8061W        W51114   5.717  30.863  22.772 -0.1780  0.1132  0.1816
 8062W        W51115   0.227  12.265  14.680  0.0083  0.3136  0.2104
 8063W        W51116  34.236  15.248  18.576  0.0987  0.3256 -0.1755
 8064W        W51117   8.512   9.130  26.544 -0.0157  0.1044 -0.1998
 8065W        W51118  10.354  32.808  17.693  0.0695  0.0322  0.0378
 8066W        W51119  12.407  20.957  16.329 -0.3918  0.0192  0.0386
 8067W        W51120  32.545  14.051  26.792  0.0431  0.3085 -0.1266
 8068W        W51121  11.421  16.208  15.291  0.1482 -0.2378 -0.1133
 8069W        W51122  13.340  10.959  17.485 -0.0439  0.0876  0.2824
 8070W        W51123   5.978  17.033  28.014  0.2819 -0.1430  0.1814
 8071W        W51124   5.513  12.649   6.566  0.0988  0.0908 -0.1012
 8072W        W51125   9.498  14.146   2.199 -0.0244  0.1571  0.0957
 8073W        W51126  32.960   8.928  20.288  0.0255  0.1587  0.0038
 8074W        W51127  30.065   0.203  28.024  0.3077 -0.0321  0.0706
 8075W        W51128  21.401  19.872  21.804 -0.1324  0.0838 -0.1769
 8076W        W51129   2.620  13.663   5.106  0.0656  0.1642  0.1029
 8077W        W51130   0.523   4.896  22.114 -0.0118 -0.0044  0.1874
 8078W        W51131   6.676   4.433  20.752 -0.0199  0.0048 -0.1527
 8079W        W51132  32.822  11.308   9.567  0.0371  0.1415  0.0672
 8080W        W51133   1.089  19.917  27.155 -0.0767  0.1426 -0.0011
 8081W        W51134   4.341  30.755  21.484 -0.0435 -0.2368  0.1539
 8082W        W51135   3.990  17.393  17.025 -0.0231  0.1164 -0.5251
 8083W        W51136  15.879   5.780  14.658 -0.0499 -0.1649 -0.0946
 8084W        W51137  15.513   1.000  15.012 -0.1954  0.1086 -0.0278
 8085W        W51138  30.963   9.811   8.510 -0.2209  0.3724  0.4180
 8086W        W51139  15.222  15.641  25.410  0.1861 -0.0602 -0.2237
 8087W        W51140   8.840   1.224  20.987 -0.1263 -0.1804 -0.3334
 8088W        W51141  29.522   1.230   7.177 -0.1695  0.0640 -0.0903
 8089W        W51142   3.395   1.850  18.828  0.0305  0.1127 -0.0917
 8090W        W51143  14.150  18.422   3.032  0.1583 -0.0072 -0.1902
 8091W        W51144  33.027  10.245   3.473 -0.2555  0.0932 -0.0734
 8092W        W51145  27.237   6.811  22.371  0.1684 -0.1566  0.3006
 8093W        W51146  21.564  10.943   3.993 -0.0779  0.0011 -0.1770
 8094W        W51147   1.514   3.578  15.702  0.3477  0.1172  0.1090
 8095W        W51148   9.367  17.826  23.088  0.1784 -0.0943 -0.1954
 8096W        W51149  33.500   6.370   5.723  0.1557  0.0047  0.0652
 8097W        W51150   3.331  17.561  14.332  0.2644  0.3298  0.1863
 8098W        W51151   4.301  33.594  15.710 -0.0491  0.1666 -0.0066
 8099W        W51152  13.336  21.489  17.530 -0.0314 -0.0940  0.1099
 8100W        W51153   1.735  18.460  24.112  0.0820 -0.1184 -0.0072
 8101W        W51154   8.010   4.138  18.429  0.0140  0.4752 -0.5651
 8102W        W51155  27.364  31.536  21.299 -0.1533  0.0067 -0.1764
 8103W        W51156  21.443  10.931  13.926  0.1832  0.0256  0.1690
 8104W        W51157   8.777  21.034  13.885  0.0180  0.0846  0.2458
 8105W        W51158  32.646  12.622  19.176 -0.0923 -0.1116  0.2519
 8106W        W51159   1.396  13.459   9.448  0.1040  0.3919 -0.3123
 8107W        W51160  26.949  11.447  28.170 -0.1694  0.1327 -0.0748
 8108W        W51161   1.319  26.065  20.352  0.0350  0.1356  0.1692
 8109W        W51162  34.427   2.907  19.066  0.1552  0.1807  0.1009
 8110W        W51163  20.410  21.140  18.082 -0.0342  0.1076 -0.0978
 8111W        W51164  24.489  13.442  14.537  0.2410 -0.0799 -0.0004
 8112W        W51165  10.483  18.020  15.112  0.0887 -0.1972  0.2399
 8113W        W51166  10.907   5.382  16.166 -0.0243  0.1013 -0.1012
 8114W        W51167  20.131   3.514  20.115 -0.1098  0.0615  0.1863
 8115W        W51168   0.793   2.433   6.162 -0.2072 -0.0634  0.1530
 8116W        W51169  10.549  19.020  25.622  0.1144 -0.2564 -0.1650
 8117W        W51170  10.265   6.562  21.011  0.0905  0.0453 -0.0055
 8118W        W51171   4.429  30.352  16.720  0.1996  0.2138  0.1016
 8119W        W51172  11.152  17.636  16.415 -0.0319  0.0803 -0.2582
 8120W        W51173  10.378   6.493   8.994  0.1000 -0.1534 -0.0674
 8121W        W51174  14.884  18.770  24.335 -0.1403  0.3068 -0.3597
 8122W        W51175   1.330  20.779  20.206  0.1568 -0.6318 -0.2921
 8123W        W51176   5.808   9.534  27.457 -0.1085 -0.1967  0.0734
 8124W        W51177   3.516  15.484   1.790 -0.0469 -0.0236  0.0857
 8125W        W51178  29.470  23.835   1.215 -0.0381 -0.3983  0.0958
 8126W        W51179   1.134  17.083  23.571  0.2318  0.2491  0.1845
 8127W        W51180   4.988  17.841  24.530 -0.1782 -0.2111 -0.0547
 8128W        W51181   9.252  17.592  24.070  0.3502  0.1856 -0.1029
 8129W        W51182   6.005  13.489  21.036  0.2239  0.3997 -0.0803
 8130W        W51183  34.168   9.218  25.233  0.1217  0.0171  0.2853
 8131W        W51184  15.523   5.390  18.092  0.2756 -0.1500 -0.1077
 8132W        W51185  33.187  31.947  26.012  0.4411 -0.1600  0.2676
 8133W        W51186   7.366  18.036   2.476  0.0273  0.0128 -0.1903
 8134W        W51187   1.142  21.181  19.887 -0.0068  0.2114  0.1127
 8135W        W51188  27.177   9.444  18.271 -0.2476  0.2271 -0.2026
 8136W        W51189   8.537   0.294  16.807 -0.1700  0.1777  0.1411
 8137W        W51190  32.076   1.703  27.118 -0.0572  0.0926 -0.3315
 8138W        W51191   3.711   8.499   3.977 -0.0727  0.1659  0.0173
 8139W        W51192  29.586  30.807   6.906  0.2082 -0.0586 -0.0874
 8140W        W51193   1.770  33.834  21.661  0.1705 -0.0734 -0.0680
 8141W        W51194   8.854  11.319  26.673  0.0443 -0.4818  0.0843
 8142W        W51195   5.426  20.223  26.945  0.2755 -0.0763 -0.0718
 8143W        W51196  33.849  11.227  24.611  0.0756 -0.0576  0.2776
 8144W        W51197   5.735  12.855  28.772 -0.1861  0.0863 -0.3443
 8145W        W51198  20.820  14.269  16.757 -0.1658  0.0216 -0.3092
 8146W        W51199  27.622  33.404  22.870 -0.1795  0.0268 -0.1693
 8147W        W51200  13.902   1.684   4.911 -0.0725 -0.2162 -0.3748
 8148W        W51201  26.623   6.476  16.906 -0.0461  0.1831 -0.0284
 8149W        W51202   0.242   7.251  20.220 -0.0561 -0.3373  0.2489
 8150W        W51203  28.782  33.140   6.285 -0.2458 -0.0889 -0.0791
 8151W        W51204  17.511  32.239  19.483 -0.2130 -0.1640 -0.2635
 8152W        W51205   2.667  21.296  23.184  0.1175 -0.2785  0.0063
 8153W        W51206  21.901   0.191  22.187  0.0065  0.0024 -0.2711
 8154W        W51207  31.389  11.556   0.246  0.0480  0.2636  0.0857
 8155W        W51208   3.382   1.819  21.061  0.2333  0.0986 -0.1389
 8156W        W51209  34.277   9.603  18.086 -0.5126 -0.0153 -0.0336
 8157W        W51210   1.102  20.889  23.717 -0.1518  0.1538  0.0457
 8158W        W51211   6.682   5.020  25.608 -0.2191  0.1651 -0.0364
 8159W        W51212   3.477  16.766  23.237  0.0465  0.1590  0.0944
 8160W        W51213  15.226   5.235  19.753 -0.2409  0.1661  0.2283
 8161W        W51214  31.267  30.168  25.916  0.1967 -0.0892 -0.0966
 8162W        W51215  33.350   3.325   7.539  0.2180 -0.1197 -0.1238
 8163W        W51216  31.274  32.667   6.282 -0.0710  0.1882  0.1630
 8164W        W51217   7.672   4.922  22.583  0.0272  0.1625 -0.2371
 8165W        W51218   5.827  16.696   5.139  0.1498 -0.4670  0.0897
 8166W        W51219   1.952  31.966   5.863 -0.2444 -0.1270 -0.0648
 8167W        W51220  32.140   7.641   8.698 -0.1000 -0.1603 -0.1518
 8168W        W51221   3.938  12.742  26.723  0.2025  0.0014 -0.1149
 8169W        W51222  27.419  11.765  18.633 -0.1140 -0.0222  0.1220
 8170W        W51223   1.982  21.596  26.495  0.1196 -0.2076 -0.2919
 8171W        W51224  31.470  10.919  15.091 -0.0987 -0.0584 -0.0676
 8172W        W51225  30.415   4.226   4.270 -0.0097 -0.0776  0.0868
 8173W        W51226   6.970  19.336   5.459 -0.0130 -0.0780 -0.2095
 8174W        W51227  25.280  34.404  25.661 -0.0618 -0.2199 -0.0508
 8175W        W51228  33.999   6.991  29.121 -0.0261  0.0953  0.0609
 8176W        W51229   7.180  30.730  15.088 -0.0215 -0.0360 -0.3076
 8177W        W51230  33.890  29.530  27.079 -0.0677  0.1700  0.2757
 8178W        W51231   4.679   3.638  15.163 -0.1839  0.2447 -0.1553
 8179W        W51232   6.744  26.802   7.809  0.1201 -0.1008 -0.2309
 8180W        W51233  24.371  31.586   8.096 -0.2730  0.0996  0.2594
 8181W        W51234  28.254  26.127  15.305  0.0569 -0.2035 -0.0404
 8182W        W51235   2.860  21.182   5.252  0.0049  0.0419  0.3641
 8183W        W51236  14.946  15.842  24.999 -0.0184 -0.2591  0.0783
 8184W        W51237   3.058  32.580  19.768 -0.1295  0.0126  0.0035
 8185W        W51238  16.033   1.521  22.525  0.0786  0.0345  0.0552
 8186W        W51239  12.963   2.852   6.331 -0.0296  0.0773  0.2246
 8187W        W51240  33.477  28.410   6.637 -0.1101 -0.2596  0.1620
 8188W        W51241  20.268  12.205  23.422  0.1669 -0.5016  0.0737
 8189W        W51242   9.859   2.155  21.717  0.1052  0.2781  0.0983
 8190W        W51243  32.160   8.068  17.512  0.0040  0.0849  0.0248
 8191W        W51244   6.075   6.892  15.652 -0.0163 -0.1454 -0.0202
 8192W        W51245  33.023  20.878  14.834  0.2775 -0.3522 -0.0754
 8193W        W51246   1.643  22.564  24.661  0.1398  0.2222 -0.0046
 8194W        W51247   4.561  23.142  18.041  0.0278  0.1049 -0.2295
 8195W        W51248  20.533   3.331  28.528  0.0109  0.1358  0.2734
 8196W        W51249  29.935  34.599  15.595 -0.1872  0.0006 -0.0330
 8197W        W51250  29.158  13.609  22.149  0.3267 -0.1076  0.0569
 8198W        W51251   2.495  14.722   4.733  0.1005 -0.2200 -0.3219
 8199W        W51252   2.577  31.931  13.488 -0.2713 -0.0928  0.1089
 8200W        W51253  26.222   2.833   2.684  0.1364 -0.0267  0.2614
 8201W        W51254  29.537   8.569   5.133 -0.2586 -0.0070  0.1787
 8202W        W51255  33.402  29.060  12.695  0.0401 -0.1792  0.0029
 8203W        W51256   5.998   9.720  24.737  0.0457 -0.0769 -0.1049
 8204W        W51257  28.011  15.942  14.385 -0.2286 -0.1776  0.4220
 8205W        W51258  33.375   1.928  20.922 -0.0101  0.2279  0.2158
 8206W        W51259  22.691  21.231  14.781 -0.0466  0.3569  0.2688
 8207W        W51260  13.313   4.486   0.427 -0.2026 -0.1611  0.4390
 8208W        W51261   3.676  15.006  21.206 -0.3560 -0.0716  0.0247
 8209W        W51262  31.862  18.948  15.918  0.0817 -0.0531 -0.0426
 8210W        W51263   8.197   6.462   5.134  0.1004  0.2445 -0.0329
 8211W        W51264  28.739   4.231  20.810 -0.2301  0.1015  0.2754
 8212W        W51265  11.467  18.012  18.843 -0.0198 -0.2445  0.0021
 8213W        W51266  31.665  32.095  21.057 -0.0147 -0.0546 -0.0587
 8214W        W51267  33.741  16.460  28.133 -0.1637  0.0095  0.0597
 8215W        W51268   2.166   8.984   1.042  0.1379 -0.3654 -0.2449
 8216W        W51269   1.604  11.140  15.578  0.1992  0.2193 -0.2233
 8217W        W51270  19.443   9.512  15.632 -0.3434  0.1595 -0.2072
 8218W        W51271  14.214  11.428  28.805 -0.1478  0.0139  0.1938
 8219W        W51272  23.860  20.207  24.056 -0.1246 -0.0125  0.2374
 8220W        W51273  21.939  14.862  14.434 -0.1540  0.1496 -0.1403
 8221W        W51274  17.714   7.710   2.749 -0.1172  0.1376  0.1095
 8222W        W51275   2.617  11.502  19.472  0.1839 -0.2223  0.0395
 8223W        W51276  23.971  14.932   2.173 -0.2428 -0.1639 -0.1667
 8224W        W51277  34.496   1.503  26.942 -0.1051 -0.1040  0.1376
 8225W        W51278   0.236  19.377  26.392  0.1306  0.0491  0.0984
 8226W        W51279   1.324  27.963   3.334  0.1014  0.0210 -0.2407
 8227W        W51280  17.692  25.103  28.219 -0.0810 -0.2806 -0.0225
 8228W        W51281  26.113  33.230  15.007  0.2753 -0.2644  0.2251
 8229W        W51282  14.732  10.044  17.930 -0.0827 -0.2106 -0.2046
 8230W        W51283  10.471   9.870  27.421  0.1215  0.2652 -0.1803
 8231W        W51284  29.024  19.668  14.290 -0.2137 -0.3598  0.0340
 8232W        W51285   8.571   7.124  24.969  0.0047 -0.1602 -0.4239
 8233W        W51286   7.965   5.208   1.318  0.2486 -0.2008 -0.2205
 8234W        W51287  33.140   5.355  17.919  0.1576 -0.2307 -0.1024
 8235W        W51288   7.406  15.878  15.863  0.0898  0.1038  0.3082
 8236W        W51289   4.301  34.586   7.023 -0.1277  0.0214  0.0648
 8237W        W51290   4.377  22.801  26.014 -0.1671  0.0391 -0.0003
 8238W        W51291   5.918  12.725  25.260  0.1667 -0.0270 -0.2494
 8239W        W51292  14.050   2.798   5.055  0.2744 -0.0147  0.3941
 8240W        W51293   4.629  16.814  17.458 -0.0928 -0.1172 -0.2070
 8241W        W51294   4.472   3.751   2.461 -0.0634 -0.0982  0.2835
 8242W        W51295  27.591  17.729  20.327  0.1807 -0.4124 -0.1600
 8243W        W51296  24.760  10.991   3.891 -0.1674  0.0678 -0.0109
 8244W        W51297   2.962  32.860  15.277  0.0953  0.1502 -0.0034
 8245W        W51298  33.224  11.969  22.517 -0.0595  0.0135  0.2320
 8246W        W51299   5.947  22.190  21.674 -0.0761  0.0579 -0.1024
 8247W        W51300  31.953  27.594  19.201  0.1355  0.0447 -0.3586
 8248W        W51301  28.848  16.076  18.068  0.1553  0.2496 -0.0207
 8249W        W51302  34.593  19.208   8.357 -0.1524  0.0800 -0.1269
 8250W        W51303  26.824  13.286  28.066  0.1997 -0.2539 -0.1481
 8251W        W51304  19.298  33.455  22.709  0.0669 -0.1002 -0.0861
 8252W        W51305   6.129   7.928  21.931 -0.3861  0.2302 -0.1603
 8253W        W51306  14.845   8.844  21.059 -0.0788  0.0684  0.4058
 8254W        W51307  33.986  12.217   5.331  0.0067 -0.0697  0.0859
 8255W        W51308   1.445  26.686  21.597 -0.2496 -0.2827  0.2828
 8256W        W51309  33.257  31.510  21.883  0.0564  0.0939  0.2977
 8257W        W51310   8.365   6.003   1.073  0.0738 -0.0446  0.2805
 8258W        W51311  13.982   9.313   3.815  0.2332 -0.2232  0.1289
 8259W        W51312  29.894  20.499  15.574 -0.0326  0.0208  0.2153
 8260W        W51313  30.271  13.416  16.721  0.0338 -0.1808  0.1009
 8261W        W51314  30.448  14.372  15.154 -0.0223  0.1698  0.0572
 8262W        W51315   4.573  15.674  25.035  0.0841 -0.0136 -0.2298
 8263W        W51316  32.409  12.521   6.152 -0.1428 -0.0824  0.1213
 8264W        W51317  13.410  16.469   3.604 -0.0321 -0.2916 -0.1955
 8265W        W51318   1.005  26.863  20.701  0.1896 -0.2004  0.2178
 8266W        W51319   5.771   3.284  22.579  0.2438 -0.0241  0.1067
 8267W        W51320   3.829  20.940  16.442  0.0439 -0.0922  0.1638
 8268W        W51321   3.830  32.748   1.396  0.1421  0.0845 -0.2409
 8269W        W51322   8.393  12.249  15.173  0.0039 -0.0037 -0.0312
 8270W        W51323   5.976  29.687   0.785  0.0223 -0.1510 -0.1808
 8271W        W51324  18.536   3.853  25.464  0.0476 -0.0946  0.1373
 8272W        W51325   4.413  34.126  19.180 -0.0287 -0.0159  0.1048
 8273W        W51326   0.557  13.724  22.093  0.1573  0.1088 -0.2337
 8274W        W51327  31.750   3.027  21.797  0.0240 -0.0799  0.1303
 8275W        W51328   7.043   3.742   6.263  0.2380  0.0679 -0.0135
 8276W        W51329   6.072  20.561   2.020 -0.0039  0.0513 -0.0893
 8277W        W51330  31.817  14.941  15.870  0.0528 -0.0256 -0.1227
 8278W        W51331  30.871   4.148   3.906 -0.1042 -0.0660  0.0567
 8279W        W51332  33.371   5.097  24.612  0.1548  0.0430 -0.0315
 8280W        W51333  25.556  34.538   0.879  0.0991 -0.2350 -0.1140
 8281W        W51334   9.340  33.855  26.763 -0.1043 -0.3832  0.1479
 8282W        W51335  31.973   4.934  24.822 -0.4291 -0.2182 -0.0449
 8283W        W51336  21.368  23.621  22.926  0.0761 -0.0686 -0.1027
 8284W        W51337   2.922  33.153   5.142 -0.0719  0.4757 -0.0568
 8285W        W51338   1.823  28.759  27.959 -0.1934  0.0720 -0.1978
 8286W        W51339   6.658  22.833   9.073  0.2046  0.2133 -0.0064
 8287W        W51340  34.339  18.371   4.713  0.1340 -0.0040 -0.0806
 8288W        W51341   6.903   2.697  27.072  0.1598  0.2721 -0.0715
 8289W        W51342  31.660  34.151  27.904  0.3494 -0.0840  0.0294
 8290W        W51343  26.256  12.313  27.956 -0.1147 -0.1276 -0.0225
 8291W        W51344  25.931  13.634  18.817  0.2061  0.1704  0.0986
 8292W        W51345  30.598  10.318  27.512  0.1838  0.1421  0.0471
 8293W        W51346   0.246  19.956  18.104  0.3288 -0.6433 -0.1953
 8294W        W51347   4.488  32.586  13.171 -0.0309  0.0243 -0.1285
 8295W        W51348   1.850  16.863   6.542  0.0873  0.1934 -0.2117
 8296W        W51349  10.606  14.694  25.090  0.1345  0.2199 -0.2022
 8297W        W51350   5.569   8.055   5.268  0.0484  0.2186  0.0264
 8298W        W51351  31.133   3.444   0.884 -0.1769  0.0853  0.2831
 8299W        W51352   0.860   7.427   6.968 -0.0927  0.1297  0.0703
 8300W        W51353  14.409  33.264  21.236  0.1612  0.0334  0.0399
 8301W        W51354  28.073  30.110  20.247 -0.1068 -0.1740 -0.2138
 8302W        W51355   6.899   8.864  21.524  0.0369  0.0649 -0.0976
 8303W        W51356  33.895   2.023  18.193  0.1476 -0.1753 -0.0293
 8304W        W51357  12.364   9.989  17.992  0.2261 -0.0329 -0.0105
 8305W        W51358  13.037  13.276  20.393  0.0562  0.1484  0.0073
 8306W        W51359   7.260   7.943  18.501 -0.0949  0.2189  0.3249
 8307W        W51360  30.370  17.951  14.764  0.1902  0.0462  0.1978
 8308W        W51361  18.666  31.028  21.077  0.1457  0.3478 -0.1119
 8309W        W51362  24.206  21.095  23.465  0.4218 -0.1504 -0.2161
 8310W        W51363  20.373  33.182  19.564  0.3584  0.0771  0.0101
 8311W        W51364  20.570   2.549  28.608 -0.0935 -0.3843 -0.0731
 8312W        W51365  20.821   4.023  22.538 -0.4180 -0.1345 -0.2446
 8313W        W51366  22.190   6.903  23.401 -0.0383 -0.4663  0.2594
 8314W        W51367   2.174   0.492  24.818 -0.3678 -0.1724 -0.3191
 8315W        W51368  11.824  13.410  27.084  0.0710  0.1140  0.2873
 8316W        W51369   8.864   3.574  19.365 -0.0370 -0.2751 -0.0224
 8317W        W51370  30.182   2.744   7.914  0.2139  0.0788 -0.0095
 8318W        W51371  34.483  30.086   9.483 -0.1860  0.1135  0.1476
 8319W        W51372  30.816   5.433  20.490  0.1109 -0.0942 -0.1932
 8320W        W51373  25.639   8.897  21.151 -0.2084 -0.1635  0.0323
 8321W        W51374  33.242   6.916  22.241  0.1881 -0.4280 -0.0375
 8322W        W51375  19.856   4.329  15.831  0.1685 -0.1661  0.1938
 8323W        W51376   9.859   2.046  25.645  0.0083 -0.3670  0.0160
 8324W        W51377  30.893  10.103  22.616 -0.1475 -0.1301 -0.2537
 8325W        W51378  12.107   7.373  19.530 -0.2347 -0.0366 -0.0217
 8326W        W51379   2.499  28.325  16.163  0.1312 -0.1605 -0.1793
 8327W        W51380   5.782  11.493  19.015 -0.0767 -0.0301 -0.0330
 8328W        W51381   4.619  10.939  15.272  0.1730 -0.2318 -0.1212
 8329W        W51382   3.092  10.185   5.007 -0.0890  0.2393 -0.2072
 8330W        W51383   2.081   2.381  27.355 -0.0646 -0.1522 -0.0595
 8331W        W51384  34.077  23.436  26.176  0.1621 -0.0780 -0.0606
 8332W        W51385   7.458   7.443   8.167 -0.5292 -0.1040  0.0283
 8333W        W51386   3.518  20.817  15.050  0.1130 -0.1727 -0.0492
 8334W        W51387   7.979  12.380  10.433  0.3205 -0.3628  0.0655
 8335W        W51388  32.472  27.964  27.870 -0.0352 -0.0973 -0.0836
 8336W        W51389  13.994  33.793  19.860 -0.1720 -0.2879  0.3358
 8337W        W51390  32.688   3.586  26.946  0.0746  0.0903 -0.2311
 8338W        W51391  33.665  26.822  21.211 -0.0886  0.1570  0.1539
 8339W        W51392   2.056  11.075  19.527  0.0952  0.2700  0.4175
 8340W        W51393   0.998  17.996   9.262  0.0817  0.3927 -0.2255
 8341W        W51394   5.692  14.482  22.304 -0.0605 -0.1004 -0.4606
 8342W        W51395   3.893   1.536   1.164 -0.0343  0.2119 -0.0922
 8343W        W51396   8.103  25.638  21.821  0.2730  0.2774  0.0178
 8344W        W51397   2.781   9.932  25.840  0.0603 -0.1383 -0.1077
 8345W        W51398  28.326   9.556  27.972 -0.0816  0.1206 -0.0638
 8346W        W51399  15.530   2.716   8.352 -0.0602  0.1309  0.0382
 8347W        W51400   1.524  13.345  14.632  0.2179 -0.1091  0.1434
 8348W        W51401   3.528   5.983  15.569  0.1505 -0.1790 -0.0752
 8349W        W51402  29.767  11.840   6.204 -0.1121 -0.0119  0.0364
 8350W        W51403   1.713  23.438  26.149 -0.1570 -0.0450 -0.1959
 8351W        W51404   1.935  22.255  16.095  0.2899  0.0584  0.1425
 8352W        W51405   9.051  13.623   8.725  0.0097  0.2658  0.1182
 8353W        W51406  29.723  26.964   1.699  0.1355 -0.0586 -0.3421
 8354W        W51407  14.435  10.873  23.720 -0.3476 -0.1533 -0.3739
 8355W        W51408   2.628   9.705  22.908  0.2698 -0.4534 -0.0533
 8356W        W51409   7.477  16.463  14.795 -0.0348  0.1056 -0.0195
 8357W        W51410  26.255   1.197   1.105  0.1793  0.1157 -0.0123
 8358W        W51411  33.959   9.417  13.901  0.0774  0.1830  0.1709
 8359W        W51412   1.341  11.216   0.044  0.0540 -0.0340 -0.2130
 8360W        W51413  12.275  11.423  19.470  0.0546  0.0117 -0.0432
 8361W        W51414  25.687  32.967  27.376  0.2913 -0.0206 -0.1724
 8362W        W51415  14.806   3.354  14.931  0.1988  0.0089  0.4280
 8363W        W51416  29.473   7.883  27.020  0.0545  0.3696  0.2332
 8364W        W51417  32.664   6.463   5.577  0.0536  0.1409 -0.2261
 8365W        W51418  25.343   6.006  15.777 -0.0603 -0.0490  0.2313
 8366W        W51419  28.557  11.288  15.434 -0.2943  0.1299 -0.1527
 8367W        W51420   0.713  10.349  28.959  0.3797  0.2990 -0.0656
 8368W        W51421  33.077  11.327  14.750 -0.2224 -0.0697  0.1437
 8369W        W51422   6.061  14.333  14.864 -0.0348  0.0137 -0.0653
 8370W        W51423   4.762  17.634  20.329 -0.3157 -0.0120  0.1401
 8371W        W51424  18.296   5.851  19.511 -0.0080  0.1863 -0.0478
 8372W        W51425  24.325  23.092  17.460  0.2373 -0.0395  0.0158
 8373W        W51426   7.735  11.209  17.535 -0.0156  0.5259 -0.1003
 8374W        W51427  26.012  11.128  18.510  0.0797  0.0335  0.0774
 8375W        W51428   4.771   1.196   2.490  0.1718  0.0376  0.2302
 8376W        W51429   6.936  16.494  20.251 -0.0866  0.1954  0.1495
 8377W        W51430   8.491  27.981  18.710 -0.3855 -0.3088  0.2430
 8378W        W51431  31.336  15.259  27.957 -0.1742 -0.1077 -0.0120
 8379W        W51432  21.375   6.765  15.653  0.0304 -0.3191  0.0434
 8380W        W51433   5.470  24.922  20.679  0.1552 -0.2225  0.0447
 8381W        W51434   1.473  25.149  26.757  0.1646 -0.3447 -0.0188
 8382W        W51435   3.345  12.061  14.915  0.3056 -0.2489 -0.2059
 8383W        W51436   0.421  26.735  25.478  0.1975 -0.2018  0.0277
 8384W        W51437  30.748   9.728  16.730  0.0877  0.1775  0.0126
 8385W        W51438  30.920  33.421  22.013 -0.1589 -0.0368  0.3376
 8386W        W51439   1.814   4.215   0.734 -0.0207  0.0218  0.2208
 8387W        W51440   8.550  14.568  23.839  0.0057  0.3558  0.2478
 8388W        W51441  27.543   4.823   5.347 -0.1017  0.1701  0.0130
 8389W        W51442   7.835  10.000  25.718 -0.1639 -0.2355  0.3002
 8390W        W51443   3.339  13.550   6.440 -0.3835  0.0313  0.1795
 8391W        W51444   3.893  28.875   1.523 -0.0367  0.0189 -0.2189
 8392W        W51445   9.495  22.052   1.666 -0.5034 -0.0751  0.1364
 8393W        W51446  26.322  12.583  23.042 -0.0383  0.2339  0.2352
 8394W        W51447   6.576  10.758   0.854  0.0102  0.0161 -0.0014
 8395W        W51448  24.621   8.740  24.043 -0.2989 -0.0393 -0.2232
 8396W        W51449  33.358  10.460  16.952 -0.1796  0.3427  0.0853
 8397W        W51450   5.064   6.825  22.673  0.1242 -0.2316 -0.0944
 8398W        W51451   7.572  22.019  29.169  0.1018  0.3427 -0.3072
 8399W        W51452  19.952   1.076  17.578  0.2490 -0.1355 -0.1220
 8400W        W51453  16.540   5.468  26.959  0.0202  0.0123  0.0954
 8401W        W51454  30.611  29.862  24.508 -0.0432 -0.2119 -0.1771
 8402W        W51455  32.027  20.165  21.053 -0.1592 -0.1801 -0.2043
 8403W        W51456  30.377   8.569  18.296  0.2478 -0.6539  0.1250
 8404W        W51457  22.861   9.133   2.454 -0.1504 -0.2671  0.0404
 8405W        W51458   6.703  11.221  23.869  0.0663  0.0629 -0.1412
 8406W        W51459   5.741   5.199  24.077  0.1159 -0.1360  0.2431
 8407W        W51460   7.879   1.790   0.600 -0.1351  0.0158  0.0249
 8408W        W51461  14.858   1.261  14.216 -0.1759 -0.0033  0.2727
 8409W        W51462  30.160  10.666  23.690 -0.2011  0.1522  0.1044
 8410W        W51463   4.136  10.273  19.213 -0.2268 -0.3804  0.0268
 8411W        W51464   5.103   6.392  15.642  0.2834  0.1268 -0.0199
 8412W        W51465  18.178   3.144  22.276  0.0842 -0.0313 -0.0909
 8413W        W51466  15.174  19.841  25.826 -0.2050 -0.0643  0.1474
 8414W        W51467  31.272  25.003  15.899  0.2568  0.2725  0.1632
 8415W        W51468   3.058   6.413   1.688  0.1988  0.1523  0.1157
 8416W        W51469  34.365   0.361  19.028  0.0334 -0.0547  0.3048
 8417W        W51470  21.788  15.055  24.163 -0.2384  0.0024 -0.1569
 8418W        W51471   5.808  10.789   1.806 -0.0351  0.0285 -0.3829
 8419W        W51472  29.197  27.140  20.994 -0.0963  0.0861 -0.1546
 8420W        W51473   8.214   9.345  13.960 -0.1799  0.0080 -0.0432
 8421W        W51474   7.514   4.291  21.888 -0.0567 -0.2548  0.2516
 8422W        W51475  30.132  11.367  19.866  0.0785 -0.3552  0.2942
 8423W        W51476  23.049  24.001  19.044 -0.0115  0.4957  0.1123
 8424W        W51477   6.909  18.594  25.237  0.1737  0.1149 -0.0155
 8425W        W51478   9.031  31.808  21.660 -0.0542 -0.2414 -0.2424
 8426W        W51479  28.992  28.589   7.040  0.0804 -0.0934 -0.1284
 8427W        W51480  30.550  13.926  23.388  0.0245 -0.1603 -0.1090
 8428W        W51481   0.998   8.736   8.122 -0.2357 -0.2552 -0.2454
 8429W        W51482   2.885   9.123   0.690  0.0970  0.1524 -0.2676
 8430W        W51483   2.898  13.749  24.037  0.1013 -0.0102 -0.2311
 8431W        W51484  23.936  18.046  19.758 -0.1107 -0.0981 -0.0940
 8432W        W51485  11.296   5.668  25.586 -0.1557  0.3173  0.0101
 8433W        W51486  32.804   7.845  17.118 -0.2110  0.3410 -0.2963
 8434W        W51487  25.899   4.004  22.208 -0.3902 -0.0872 -0.0336
 8435W        W51488  13.783  23.369  13.536  0.1537 -0.0378  0.0362
 8436W        W51489  28.631  17.589   6.622  0.2609  0.0888  0.1658
 8437W        W51490  15.816  28.943  26.676 -0.2390  0.2483 -0.0418
 8438W        W51491  27.412  20.858  15.322  0.1088  0.1251  0.2915
 8439W        W51492  32.599  11.767   0.903 -0.2210 -0.0556 -0.2766
 8440W        W51493  14.154   1.877   7.122  0.2575 -0.1737 -0.1649
 8441W        W51494  11.712  22.895  19.604  0.2360 -0.1576 -0.1159
 8442W        W51495  27.933   4.601   2.759 -0.2715  0.1501  0.1373
 8443W        W51496  10.020  11.686  24.586 -0.1652 -0.1552 -0.0397
 8444W        W51497  26.882   8.125  22.432  0.2881  0.2494  0.0902
 8445W        W51498  16.638  27.849  15.674  0.2358 -0.0542 -0.0081
 8446W        W51499   2.996  14.271  16.471 -0.3558  0.0973  0.0997
 8447W        W51500   0.052   5.603  20.359 -0.0290 -0.1315 -0.1753
 8448W        W51501   1.163  15.247  16.679  0.2688 -0.0627 -0.1291
 8449W        W51502   2.638  31.804  25.284  0.0282  0.3117 -0.3643
 8450W        W51503   7.069   8.047  16.294 -0.0340  0.1278 -0.1861
 8451W        W51504   6.519  26.992  13.689  0.0021  0.2987  0.2786
 8452W        W51505  13.919  14.823   8.982  0.0961 -0.2992  0.0466
 8453W        W51506  20.644   8.277  27.697  0.0757  0.1556 -0.1628
 8454W        W51507   0.470   0.031   3.087  0.2967 -0.0794 -0.0240
 8455W        W51508   1.315  32.584  25.433 -0.0023  0.0908 -0.1983
 8456W        W51509  33.204  24.426   2.096 -0.0780 -0.0694  0.1057
 8457W        W51510   8.547  13.430  21.466  0.4298 -0.3155  0.1206
 8458W        W51511   4.270  12.756  24.994 -0.0475  0.1215 -0.0347
 8459W        W51512  19.289   2.837  14.457  0.1600  0.1049  0.0909
 8460W        W51513  16.571  31.505  20.854  0.2438 -0.2866  0.3559
 8461W        W51514   3.646  10.729  26.229  0.1154 -0.0146  0.0387
 8462W        W51515  10.160   8.712  21.826 -0.1038  0.0678  0.0456
 8463W        W51516   1.426   0.231  26.535 -0.3150 -0.1460  0.3477
 8464W        W51517  24.778  23.042  15.730 -0.0210 -0.1910 -0.1859
 8465W        W51518   2.462   2.101  23.296 -0.3130 -0.0139  0.0707
 8466W        W51519  30.710   4.499   6.932  0.0181 -0.2033 -0.0522
 8467W        W51520   5.560  14.896  17.123 -0.0112 -0.0722  0.4050
 8468W        W51521   7.907  14.164  27.020 -0.0276  0.1248  0.1454
 8469W        W51522  24.724  34.651  11.097 -0.1315  0.0966 -0.1628
 8470W        W51523   7.265  30.031  26.710  0.2140  0.3473  0.0393
 8471W        W51524  14.145  22.372  26.373  0.1223  0.1748 -0.0458
 8472W        W51525  22.888  31.098  27.230  0.0527 -0.2061 -0.3729
 8473W        W51526  33.068  34.534  17.682  0.1820 -0.2084  0.1189
 8474W        W51527   5.751  11.361   5.696 -0.2132  0.0359  0.0295
 8475W        W51528   1.811  19.451  25.981  0.2122  0.1087 -0.3557
 8476W        W51529  29.099  26.247  16.787  0.0224  0.0258 -0.0422
 8477W        W51530  32.525   7.980  24.772  0.1793 -0.2918  0.1930
 8478W        W51531  21.161   4.213  26.101 -0.3230 -0.0619  0.2189
 8479W        W51532  34.424   7.471   5.695  0.1839  0.2095  0.2612
 8480W        W51533  29.097  19.838  27.679 -0.3007 -0.2144  0.0200
 8481W        W51534   5.895   3.684   3.675 -0.2108 -0.3619 -0.3427
 8482W        W51535   1.479  29.606  27.646  0.0485 -0.0942 -0.0071
 8483W        W51536  21.617  31.574  15.201 -0.3254 -0.0074 -0.0173
 8484W        W51537   9.506   4.742   0.992 -0.3865 -0.0484  0.1161
 8485W        W51538  27.757  17.661  27.555  0.2473  0.0141  0.0811
 8486W        W51539   8.549  20.331   1.927  0.1054  0.0143  0.1178
 8487W        W51540  33.561  27.411   4.041 -0.0661 -0.0428  0.0597
 8488W        W51541   6.520  27.084  25.609  0.0620 -0.2548  0.2360
 8489W        W51542   2.917   7.364   5.637  0.1645  0.0815 -0.1425
 8490W        W51543  26.282   7.326  26.128  0.0469  0.3759 -0.1922
 8491W        W51544   3.537   7.941   5.620  0.3156 -0.1158  0.3381
 8492W        W51545  25.385  20.733  25.458 -0.1817  0.0447  0.0134
 8493W        W51546   6.076  16.285   4.862  0.0108  0.2508 -0.4004
 8494W        W51547   6.186  17.542   4.044 -0.0316  0.0394  0.0381
 8495W        W51548  33.377  33.164   9.995 -0.0738 -0.1914  0.1564
 8496W        W51549  11.670  22.138  10.295 -0.2957  0.1631 -0.3230
 8497W        W51550  21.513  23.820   2.287  0.1818 -0.2675 -0.2065
 8498W        W51551   7.732  18.406  23.686  0.0112 -0.2054  0.0899
 8499W        W51552   3.638  25.913  14.600 -0.0405  0.2740 -0.0382
 8500W        W51553  11.784  12.480  20.472  0.0644 -0.3962 -0.0375
 8501W        W51554  21.197   8.217   6.161  0.1844  0.0273 -0.0505
 8502W        W51555  13.930  23.060  20.033 -0.3385  0.1104  0.2540
 8503W        W51556   7.873   9.574  28.319  0.2169  0.4377 -0.2615
 8504W        W51557   3.512  11.065  24.167 -0.1112 -0.2493  0.0844
 8505W        W51558  22.791   3.151  22.776 -0.0345 -0.0054  0.1294
 8506W        W51559  21.133   2.475   5.361 -0.2051  0.3038 -0.1224
 8507W        W51560  34.679   9.217  16.254 -0.4668 -0.0386 -0.0304
 8508W        W51561   5.543  20.164   2.758  0.2885  0.0691 -0.4197
 8509W        W51562   5.792  31.059  23.760 -0.2055 -0.0290  0.0482
 8510W        W51563   1.969  28.042  26.044 -0.0092  0.0185 -0.0738
 8511W        W51564  29.409  15.514  28.388  0.2936  0.1772  0.2848
 8512W        W51565  26.649   6.674   3.385 -0.2050  0.1932  0.0675
 8513W        W51566  27.553  30.400   8.038 -0.1943  0.0312 -0.3343
 8514W        W51567  25.221  13.085  25.710  0.0083 -0.1468  0.1237
 8515W        W51568   0.246   5.459  16.419  0.2182 -0.2318  0.4360
 8516W        W51569  33.322  12.945   6.444 -0.2585 -0.0016  0.2600
 8517W        W51570  32.205  17.711   2.478 -0.0052 -0.1801 -0.0108
 8518W        W51571  23.650   9.849  24.321  0.2063 -0.2598 -0.1672
 8519W        W51572  11.218   6.811  28.231 -0.0112 -0.0996 -0.0542
 8520W        W51573  14.240  20.618  17.961 -0.1489 -0.1664  0.1361
 8521W        W51574   3.349  22.180  24.246  0.1560 -0.2530 -0.2579
 8522W        W51575   8.012  13.759  25.580 -0.0937 -0.1690 -0.1800
 8523W        W51576  11.404  24.932  14.471 -0.0524  0.1360 -0.2916
 8524W        W51577   6.866   8.094   0.224  0.0100 -0.3155 -0.1600
 8525W        W51578  22.510  15.259  28.891 -0.1984 -0.2171  0.4400
 8526W        W51579  34.420  10.699  26.954 -0.0887  0.1486 -0.1960
 8527W        W51580   3.489   7.833   8.432 -0.1419 -0.1064 -0.0174
 8528W        W51581  12.813  14.663  19.770  0.0224  0.1088  0.3136
 8529W        W51582   9.088  14.130  21.707  0.2649  0.2975  0.1024
 8530W        W51583   3.491  31.933  23.476 -0.1083 -0.0601 -0.1384
 8531W        W51584  24.469  27.623  20.989 -0.2210 -0.1166  0.1407
 8532W        W51585   7.802   9.309  23.070  0.1761  0.2048 -0.4554
 8533W        W51586  14.576   7.262  17.758 -0.0316 -0.1049  0.0994
 8534W        W51587  31.607  18.425   2.344  0.1113 -0.0680  0.0951
 8535W        W51588  18.971   8.417   3.626 -0.1117  0.2493  0.1000
 8536W        W51589   5.813   3.072  19.598 -0.1357 -0.1752  0.2396
 8537W        W51590  32.064  20.050   1.421  0.0619  0.1064 -0.1254
 8538W        W51591  26.685  26.448  27.758  0.1093 -0.1903  0.0965
 8539W        W51592  24.444  14.241  24.648 -0.1363  0.1211  0.1682
 8540W        W51593  32.960  25.377  25.759  0.2147  0.0870 -0.2166
 8541W        W51594  30.459  21.192   2.865  0.0244 -0.3509 -0.0883
 8542W        W51595  25.417  27.678  15.144  0.0522  0.2708 -0.2653
 8543W        W51596  11.794  13.045  25.799  0.4465 -0.1886  0.1563
 8544W        W51597  29.190   3.769  19.358 -0.0801  0.0856 -0.0140
 8545W        W51598  26.002  18.879  18.994 -0.0763  0.0534  0.0043
 8546W        W51599   0.850   5.898   4.269  0.4173  0.1230 -0.3457
 8547W        W51600  11.430   9.307   4.611 -0.2301  0.1790 -0.0725
 8548W        W51601  23.340  30.941  26.385 -0.0122 -0.0800  0.4388
 8549W        W51602  18.454   8.972   9.984  0.2768  0.3748 -0.0278
 8550W        W51603  12.225   4.885  21.045  0.0907  0.0787  0.1155
 8551W        W51604  27.642   8.372  23.026 -0.0344  0.0955 -0.2454
 8552W        W51605  23.347   0.833  10.176 -0.2895 -0.0655 -0.4703
 8553W        W51606  32.372   5.279  17.425  0.0036  0.2916  0.5601
 8554W        W51607  15.148  29.406  17.868 -0.2732  0.0803 -0.0977
 8555W        W51608   7.228  21.271  14.589 -0.2696  0.1700  0.0031
 8556W        W51609  26.036   7.739  22.315 -0.0163  0.2337 -0.2068
 8557W        W51610  15.365   4.330   7.260 -0.2313  0.1524 -0.1811
 8558W        W51611  21.908   7.471  15.366  0.0606 -0.3376 -0.0016
 8559W        W51612  27.524  17.325  10.445  0.2456  0.0423 -0.0151
 8560W        W51613   6.933   7.242  25.300  0.0316 -0.0714 -0.0557
 8561W        W51614  24.493  20.904  19.077  0.1662 -0.0870  0.1321
 8562W        W51615   1.926  12.766   2.969 -0.0591 -0.2528  0.1734
 8563W        W51616  32.928  15.332  24.466  0.0169 -0.1697  0.1811
 8564W        W51617  10.374   0.556   8.483  0.0357  0.0376  0.0611
 8565W        W51618  15.911   9.524  25.319  0.2451 -0.1916  0.1859
 8566W        W51619  21.768  23.575  21.951 -0.2226  0.1516 -0.2412
 8567W        W51620   2.563  23.675   4.224  0.0348  0.1226  0.2178
 8568W        W51621  30.478   8.644   9.523  0.2602  0.2765  0.0845
 8569W        W51622   1.585  17.003  15.099 -0.2576 -0.1389 -0.2848
 8570W        W51623   1.623   3.999   0.321  0.2211  0.0894  0.1078
 8571W        W51624  31.778  31.717   7.010 -0.0962 -0.1579  0.1089
 8572W        W51625  32.946  15.126  25.273 -0.5950 -0.2787 -0.0216
 8573W        W51626  16.066   9.026  16.040 -0.1296  0.0047 -0.0825
 8574W        W51627  33.646  31.006  19.211  0.0178 -0.2668  0.0042
 8575W        W51628  10.744  13.250  23.812 -0.0019  0.2373  0.1821
 8576W        W51629   0.350  27.997  24.272  0.0634 -0.2206 -0.1548
 8577W        W51630  24.856  10.749   3.051  0.1522 -0.1510  0.0694
 8578W        W51631   1.188  30.082   1.773  0.1297 -0.2967 -0.1483
 8579W        W51632  19.141  16.121  26.168  0.0740  0.0962  0.2002
 8580W        W51633   7.373   6.495  15.347  0.2576  0.1338  0.0091
 8581W        W51634  12.990  13.439   5.878  0.1272  0.0333 -0.2050
 8582W        W51635  10.444  31.728   2.172  0.1538  0.2475 -0.2390
 8583W        W51636  31.418  11.078  27.579 -0.4000 -0.1442 -0.1122
 8584W        W51637  10.577  14.559  27.666  0.1614 -0.0619 -0.0766
 8585W        W51638   0.836   3.389  22.194  0.3483  0.1531  0.2767
 8586W        W51639   0.052   3.063  27.644 -0.2052 -0.1438  0.2830
 8587W        W51640  20.912  16.987  23.052 -0.1330 -0.3344  0.1167
 8588W        W51641  30.775  32.022   6.473  0.1655  0.3723 -0.1271
 8589W        W51642  23.146   7.719  18.975  0.1081  0.0824  0.2984
 8590W        W51643   3.835  15.255  20.434 -0.1283  0.0964  0.4407
 8591W        W51644  27.174  11.083   9.262  0.0170  0.0169 -0.0494
 8592W        W51645  24.819  19.218  23.907 -0.1230  0.0094  0.2951
 8593W        W51646  25.101   9.278  26.446 -0.1745  0.0894  0.0435
 8594W        W51647   6.526   9.838  28.931  0.0773  0.0268  0.0211
 8595W        W51648  13.794  11.331  26.501 -0.1410  0.1021  0.5134
 8596W        W51649   7.420   5.419  27.807 -0.0572 -0.2746 -0.4207
 8597W        W51650  10.343   0.971   3.187  0.0750  0.0321  0.2010
 8598W        W51651  20.377  13.179  17.829 -0.0514  0.1893 -0.2467
 8599W        W51652  31.458  14.843   0.303 -0.4519  0.0956 -0.1511
 8600W        W51653   9.158   2.142   7.578  0.2068 -0.1323  0.1736
 8601W        W51654  20.334  12.141  17.917  0.1354  0.0692  0.0737
 8602W        W51655  32.392  16.567  21.213 -0.0390 -0.3937  0.0070
 8603W        W51656  25.668   0.786   3.181  0.3098  0.0130  0.0312
 8604W        W51657  30.426   7.118   6.506  0.0882  0.0800  0.1241
 8605W        W51658   6.429  10.862   7.308  0.0606 -0.1144 -0.1750
 8606W        W51659   2.185   5.629  18.552 -0.0175 -0.0499 -0.2915
 8607W        W51660  26.346  15.428   1.062  0.0557 -0.0093 -0.2353
 8608W        W51661  28.194   8.176  27.142 -0.1847 -0.1877 -0.0144
 8609W        W51662  22.646  25.794  18.019  0.0260 -0.0754  0.3293
 8610W        W51663  28.598  11.040  20.643  0.0802  0.1311 -0.0167
 8611W        W51664  31.179   2.969  28.473  0.0004  0.1170 -0.0692
 8612W        W51665   9.474  16.832  15.482 -0.0039 -0.0508 -0.2988
 8613W        W51666  31.658  27.472   8.595  0.3996  0.0763  0.4662
 8614W        W51667  34.408  13.209  21.931 -0.2733  0.0014 -0.3450
 8615W        W51668  12.827  23.389  20.443 -0.0680  0.0574  0.2119
 8616W        W51669  18.274  12.610  28.348  0.1593  0.0072 -0.1067
 8617W        W51670  11.449  13.463   6.411 -0.0218  0.1227 -0.0799
 8618W        W51671  21.580  12.856  28.702  0.1058 -0.0596  0.2833
 8619W        W51672  33.008  27.671   8.485  0.2669  0.0039 -0.1366
 8620W        W51673  25.128  21.386   2.874  0.0830 -0.3376 -0.0369
 8621W        W51674   5.153   9.099  27.954 -0.0832  0.5033  0.3544
 8622W        W51675   0.139  14.924  21.934  0.0908  0.1529 -0.1420
 8623W        W51676   1.698  17.730   8.911 -0.1652 -0.2248  0.1890
 8624W        W51677   2.984  28.348   0.101  0.0099 -0.1049  0.0030
 8625W        W51678   6.593  17.371  21.288  0.1284 -0.0084 -0.2681
 8626W        W51679   7.705  26.879   4.714  0.0249  0.1557  0.0105
 8627W        W51680  12.522   3.240  25.013 -0.0304  0.3187 -0.0908
 8628W        W51681  23.852  17.150  15.286  0.0182  0.1075 -0.0290
 8629W        W51682  11.762   4.576   2.109  0.1764 -0.0060 -0.0194
 8630W        W51683  11.684  14.347  19.676 -0.0153  0.0161  0.2714
 8631W        W51684   6.881  31.415   2.433  0.1071 -0.2965  0.1026
 8632W        W51685  30.801  19.726   7.933 -0.1434  0.1429 -0.1071
 8633W        W51686  17.362   2.940  14.613  0.3007  0.0286  0.4041
 8634W        W51687   3.432  29.261  23.845 -0.5656  0.1022 -0.1327
 8635W        W51688   5.258   1.885  25.603  0.1962 -0.2178  0.0429
 8636W        W51689   0.925   6.567  26.935 -0.1339 -0.0651  0.0082
 8637W        W51690   7.357  14.124   6.481  0.3248 -0.0391  0.3954
 8638W        W51691  31.497  14.290  24.665  0.1518  0.0758  0.3180
 8639W        W51692   2.437   5.786  19.905  0.0055 -0.0568 -0.0007
 8640W        W51693  14.553  15.880  25.931 -0.0411  0.1015 -0.3208
 8641W        W51694  11.117  17.397   6.469 -0.0058  0.0721  0.0454
 8642W        W51695  25.999   9.765  22.731  0.0372 -0.2091  0.0481
 8643W        W51696  25.117   3.296  23.023 -0.0165  0.0035  0.2703
 8644W        W51697  13.588  23.901   4.074  0.3263  0.0748 -0.1139
 8645W        W51698  25.808  21.104  24.274  0.0117 -0.0335 -0.0816
 8646W        W51699   0.335   4.657   8.089  0.0294  0.0171 -0.3960
 8647W        W51700  29.954   2.447   4.548 -0.0253 -0.0725 -0.1608
 8648W        W51701  24.182   5.438   5.539 -0.0692  0.3549 -0.0946
 8649W        W51702  17.994  15.242  14.538  0.1149  0.0376  0.0150
 8650W        W51703  31.551  33.676  17.535  0.1886 -0.0259 -0.0096
 8651W        W51704  19.894   9.039  20.094  0.3178  0.2283 -0.0937
 8652W        W51705  30.398  13.915  21.436  0.4306  0.0769  0.0311
 8653W        W51706   6.156   9.517   4.251  0.0981  0.1717 -0.0063
 8654W        W51707   7.172  14.078   5.972 -0.0831  0.3060  0.0623
 8655W        W51708   2.780  27.470   5.165 -0.0929  0.1306 -0.1915
 8656W        W51709  10.391   7.951  14.558  0.0590 -0.1624  0.0042
 8657W        W51710   8.080  13.055   7.654 -0.0049 -0.0261 -0.2827
 8658W        W51711  10.835  10.393  20.090 -0.0800 -0.0242  0.1509
 8659W        W51712  10.077   1.535  15.702 -0.1935 -0.0411 -0.0294
 8660W        W51713   0.073  19.149  14.095  0.1487 -0.0807 -0.1304
 8661W        W51714  27.441  13.319  18.389  0.2171  0.1557 -0.3760
 8662W        W51715  31.263  18.530   5.113  0.0019  0.1794  0.0118
 8663W        W51716  20.022  24.183   6.815 -0.0072 -0.2822 -0.0317
 8664W        W51717  17.344  15.500  27.746 -0.1387 -0.3831  0.1094
 8665W        W51718  25.728  16.358  19.770  0.1066  0.0549  0.1345
 8666W        W51719   2.550  15.286  10.245 -0.1160 -0.1083 -0.1262
 8667W        W51720   4.932  16.911   8.307  0.1393  0.0977  0.2515
 8668W        W51721   3.686   5.013   7.214 -0.0262 -0.0353 -0.1636
 8669W        W51722  20.700  30.259  28.340 -0.1407 -0.3652 -0.1127
 8670W        W51723   5.366  26.649   1.007 -0.0480 -0.0409 -0.0866
 8671W        W51724  28.182  34.380   5.568  0.1892  0.1880  0.0882
 8672W        W51725   8.446   3.443   0.116  0.1591  0.0133  0.4385
 8673W        W51726   7.864  19.318  15.553  0.1697 -0.1409 -0.0724
 8674W        W51727   8.156   5.790  16.129  0.0963 -0.0686 -0.1710
 8675W        W51728   5.838  22.041  27.857  0.2640 -0.1092 -0.0021
 8676W        W51729   0.443  22.377  22.798 -0.2413  0.0008  0.2626
 8677W        W51730   0.748   3.590  21.677  0.0480  0.3155  0.0334
 8678W        W51731  11.239  10.995  22.792  0.0888  0.3557  0.1948
 8679W        W51732  18.687   0.025   4.834  0.1891  0.0184 -0.0001
 8680W        W51733   0.439  18.473  27.651  0.1627  0.0683  0.1063
 8681W        W51734  21.890  18.396  13.172 -0.1380  0.1333 -0.3180
 8682W        W51735  33.898   8.914   1.044  0.2855  0.1611 -0.0688
 8683W        W51736  32.727  10.060  23.890 -0.1286  0.0735 -0.3236
 8684W        W51737  11.916  32.810   1.207  0.0697 -0.3279  0.0039
 8685W        W51738   3.125  30.960   0.635 -0.2373  0.1562  0.2195
 8686W        W51739   0.814  14.551   2.995  0.1182  0.0133  0.0753
 8687W        W51740  32.224  27.869  28.975  0.1472  0.0497  0.0399
 8688W        W51741  23.075   6.297  22.608 -0.1586  0.3482  0.1437
 8689W        W51742   2.262  27.793  25.684 -0.1682 -0.1102  0.1811
 8690W        W51743  12.031   7.928   1.758 -0.1113 -0.0785  0.0410
 8691W        W51744  11.227  11.619  19.481  0.2839  0.0033  0.0257
 8692W        W51745  13.419   3.931  21.706 -0.0451 -0.3063 -0.0726
 8693W        W51746   0.714   5.961   8.594  0.4291  0.0068 -0.0043
 8694W        W51747   8.318  33.260   0.977 -0.0344  0.0693 -0.0210
 8695W        W51748   9.113   7.252  22.543  0.1776  0.4111  0.3950
 8696W        W51749  26.993  20.708  15.196 -0.1085 -0.0041 -0.0243
 8697W        W51750  22.742   6.548  16.446 -0.0328 -0.0577 -0.1770
 8698W        W51751  33.298  20.469  22.118 -0.0689  0.0341 -0.1202
 8699W        W51752  18.598   7.927  19.572 -0.2624 -0.3039 -0.3137
 8700W        W51753   3.886  27.885  27.289 -0.1398  0.3166  0.2289
 8701W        W51754  30.499   3.308  14.877  0.1907 -0.2471 -0.2681
 8702W        W51755  14.555  22.096   2.174  0.0520  0.0942  0.0744
 8703W        W51756   3.019   4.181   3.074 -0.0247 -0.0663 -0.1417
 8704W        W51757  33.359   3.352  19.730 -0.1521  0.0183 -0.1427
 8705W        W51758   9.160  18.626   6.022 -0.3224  0.2150 -0.0874
 8706W        W51759  25.167   9.426  25.918  0.1409  0.1316 -0.1437
 8707W        W51760  20.734   5.069   4.081 -0.3031  0.0712 -0.0238
 8708W        W51761  11.535   4.155  19.575  0.1178 -0.3517  0.1494
 8709W        W51762  13.658   3.675   8.790  0.1276  0.2920  0.0154
 8710W        W51763   5.244   8.757  28.632  0.1782 -0.3414 -0.0178
 8711W        W51764   6.048  23.900   7.591  0.1752 -0.1926  0.1396
 8712W        W51765   3.671  23.726  24.394 -0.0074 -0.0093  0.1532
 8713W        W51766  34.271   5.971  17.013  0.0528 -0.0681 -0.1343
 8714W        W51767  31.393   6.095  27.924 -0.1330 -0.1776  0.0031
 8715W        W51768   9.810  32.111   1.027  0.1593  0.0350 -0.1879
 8716W        W51769  18.411  31.798   9.543 -0.1339 -0.0723 -0.0130
 8717W        W51770  34.123   1.297  26.611  0.3119  0.0721 -0.0394
 8718W        W51771   8.310  18.436   8.294 -0.2820 -0.0239 -0.1120
 8719W        W51772   0.202  23.361  19.969  0.1861  0.2531 -0.1125
 8720W        W51773  29.231  18.094   3.653 -0.1295 -0.0797  0.1550
 8721W        W51774  19.152  13.518  20.442 -0.0846  0.1334  0.2130
 8722W        W51775  27.065  14.329   3.472 -0.3446 -0.1177  0.0506
 8723W        W51776   0.628  18.323  21.292  0.0902  0.0399 -0.1600
 8724W        W51777  31.344  18.116   5.354 -0.5165  0.3377 -0.0394
 8725W        W51778  31.510   2.185   8.013  0.0039  0.0562 -0.1239
 8726W        W51779   6.088   6.558   3.063  0.2197 -0.0290  0.4738
 8727W        W51780  28.539  29.196  10.167 -0.0817 -0.3282  0.0838
 8728W        W51781  32.867   7.640  20.532 -0.2289  0.4706 -0.3428
 8729W        W51782  34.655  28.965  22.366  0.2205 -0.0670  0.1951
 8730W        W51783  23.994   7.010  19.157  0.1464  0.0047  0.2935
 8731W        W51784   9.746  12.567  27.437 -0.1388  0.3227  0.0930
 8732W        W51785  27.414  30.304   0.550 -0.1773 -0.0876  0.0286
 8733W        W51786  16.876   8.461  24.294 -0.0674  0.3504  0.2507
 8734W        W51787   2.588  24.780  25.524  0.3644 -0.1313 -0.1312
 8735W        W51788  21.529  32.022   6.155 -0.1112 -0.1597 -0.0862
 8736W        W51789   4.598  33.010  19.985  0.2399  0.5917 -0.1285
 8737W        W51790  24.652   4.371  19.655  0.1620  0.2488 -0.0415
 8738W        W51791  34.139   1.193   0.515  0.2477  0.0079  0.1628
 8739W        W51792  33.012   1.034   4.513 -0.1624 -0.1388  0.0259
 8740W        W51793   3.217   8.365   5.787  0.1497  0.0142 -0.2235
 8741W        W51794   0.910  11.054  28.865 -0.1408 -0.3920  0.1848
 8742W        W51795  18.174   9.401  10.134 -0.0558  0.2322 -0.0019
 8743W        W51796  20.366   2.557   5.801 -0.0242  0.6158  0.0297
 8744W        W51797  22.875  10.026   2.882  0.0979  0.0780  0.2264
 8745W        W51798  15.855  29.993  23.612 -0.0375  0.0569  0.1165
 8746W        W51799  33.644  14.548   3.692 -0.1471 -0.2934 -0.0625
 8747W        W51800   1.594  17.276  23.533 -0.5283  0.0178  0.3345
 8748W        W51801   4.284  29.819  21.906 -0.0712  0.1504 -0.0509
 8749W        W51802   1.560   6.899  28.219  0.0613 -0.0309  0.3124
 8750W        W51803   0.508  10.153   7.117 -0.2293 -0.2540  0.0561
 8751W        W51804   2.618  19.105   5.451  0.0379  0.0898 -0.0401
 8752W        W51805  31.119   6.861   9.818 -0.1910 -0.1680 -0.0507
 8753W        W51806   8.286  31.717  25.368  0.1978 -0.0263 -0.2090
 8754W        W51807  22.366  12.714   4.923 -0.5851  0.0602  0.0164
 8755W        W51808  24.964   9.841   2.719  0.0374  0.1376  0.0073
 8756W        W51809   0.981   5.994   2.597 -0.2279  0.0273  0.0007
 8757W        W51810  21.331  21.326  15.090  0.0506  0.1347 -0.0911
 8758W        W51811  29.796   8.577   4.095  0.3100 -0.0937 -0.2400
 8759W        W51812  13.691   2.146  27.497 -0.2888 -0.2341 -0.6077
 8760W        W51813   4.908  32.558  17.426  0.0766 -0.1618 -0.0567
 8761W        W51814   2.648  16.480   0.498 -0.0485 -0.0822 -0.1036
 8762W        W51815  23.585  10.121  14.610 -0.1845  0.1444 -0.3291
 8763W        W51816  22.213  20.539  10.395 -0.0552  0.0161 -0.1212
 8764W        W51817  16.881  27.337  19.669 -0.0264  0.0049  0.3197
 8765W        W51818  30.240  14.140  25.287  0.0664 -0.1925  0.2603
 8766W        W51819  11.365  18.533  18.181  0.0063  0.0309  0.0209
 8767W        W51820   3.341   4.410   0.380  0.3276 -0.1985  0.3364
 8768W        W51821   2.975  25.680  16.576 -0.0328  0.1281 -0.3318
 8769W        W51822   2.990   9.360   8.862 -0.2058 -0.1662  0.0388
 8770W        W51823   3.850  18.576  27.978 -0.0996  0.1092 -0.2586
 8771W        W51824  28.962  26.507  27.863  0.0859 -0.1315 -0.0454
 8772W        W51825  24.728  31.641   2.364  0.1354 -0.1613 -0.1161
 8773W        W51826   1.320   2.281  19.565  0.0179  0.1452 -0.1324
 8774W        W51827  30.430  33.632  21.984 -0.1836  0.1267  0.0235
 8775W        W51828   3.562   9.210  22.344 -0.2609  0.3511  0.0384
 8776W        W51829  26.482   1.116  22.984 -0.2980 -0.1225 -0.0606
 8777W        W51830  15.317   3.496   5.251  0.3287 -0.0246 -0.0902
 8778W        W51831   9.796   1.538  21.181  0.1622 -0.0625 -0.4217
 8779W        W51832  30.503  10.763  27.850  0.1699 -0.1288 -0.2704
 8780W        W51833   4.193  21.375   9.221 -0.1216 -0.0884  0.1136
 8781W        W51834   7.864  22.855  23.061 -0.2485  0.2807 -0.1338
 8782W        W51835  22.839  33.929  22.786 -0.2050  0.1186  0.1932
 8783W        W51836  20.957  22.366   1.437 -0.1728 -0.0193  0.3061
 8784W        W51837   8.049   4.787  28.583 -0.0145 -0.1189 -0.1754
 8785W        W51838  33.437  13.329  15.205  0.1038  0.2294  0.0729
 8786W        W51839  19.465  15.148  20.745  0.3267 -0.1974 -0.0993
 8787W        W51840   1.140   7.147  22.697 -0.3952  0.0742 -0.0775
 8788W        W51841   2.076   6.416  16.563 -0.1793 -0.0198  0.0238
 8789W        W51842  29.215  33.157  23.569 -0.3582  0.0755 -0.0050
 8790W        W51843  23.755  10.748  19.003 -0.3708  0.0889  0.2753
 8791W        W51844  15.033  10.259  17.466  0.2553 -0.0432 -0.3073
 8792W        W51845   9.976  15.048  17.965 -0.0345 -0.0008  0.2265
 8793W        W51846  32.463   4.898  24.939 -0.0560  0.1085  0.1316
 8794W        W51847  11.460  33.978  25.040  0.2410 -0.1595  0.0091
 8795W        W51848  23.152  15.824  15.373  0.0942 -0.1548 -0.2428
 8796W        W51849   4.197  13.019  19.916  0.1061 -0.0460 -0.1000
 8797W        W51850   0.514  23.075  28.822 -0.1393 -0.0116 -0.5501
 8798W        W51851   0.779  22.590   6.252 -0.0585  0.0904  0.2070
 8799W        W51852  31.011  25.642   2.260 -0.0940  0.0560  0.0135
 8800W        W51853  29.554  23.874  27.648  0.0687 -0.1486 -0.1916
 8801W        W51854   0.857   8.059  25.270 -0.3743  0.1819 -0.3167
 8802W        W51855   5.817  23.915  19.670  0.1894  0.1221 -0.2192
 8803W        W51856  22.763   6.209  18.682  0.1224 -0.0677  0.1386
 8804W        W51857  13.081   1.675   2.676  0.1122 -0.3606  0.3252
 8805W        W51858  11.830  10.904  16.220  0.1061  0.0348 -0.0398
 8806W        W51859  24.701  31.994  27.094 -0.3584  0.0209 -0.0244
 8807W        W51860  29.335  24.331  18.621 -0.3359  0.0024 -0.2443
 8808W        W51861   6.806   9.257   1.349 -0.0179  0.0714  0.3688
 8809W        W51862  30.826   7.655  14.955  0.3462  0.0902  0.0837
 8810W        W51863  18.923   4.879  22.154  0.1481  0.1855 -0.0797
 8811W        W51864   5.989  12.784   6.841 -0.2686  0.0352  0.0258
 8812W        W51865   5.322  32.971  15.145 -0.0874 -0.0398  0.0626
 8813W        W51866  27.708   2.696  26.604 -0.2855  0.0459 -0.0563
 8814W        W51867  11.655   6.023   9.685  0.1227  0.3680 -0.0767
 8815W        W51868   3.747   7.973  16.023  0.0212 -0.1496 -0.0589
 8816W        W51869   7.046   6.835   0.056  0.4224  0.1572  0.1564
 8817W        W51870  24.228  17.162  22.233  0.1488 -0.0566 -0.3870
 8818W        W51871  33.990  10.759  28.085 -0.1003 -0.0969  0.1009
 8819W        W51872  26.901   1.158   4.062 -0.2773 -0.2067 -0.4785
 8820W        W51873   3.801   9.756   1.162 -0.0628  0.1580  0.0002
 8821W        W51874  26.168  15.723  18.588  0.2698 -0.0049  0.1397
 8822W        W51875   1.118  25.403   0.993 -0.1175 -0.0786 -0.0659
 8823W        W51876  27.241  19.304   6.924 -0.1550  0.2837  0.2267
 8824W        W51877  25.832  11.026   5.256  0.2449 -0.2311 -0.2778
 8825W        W51878  13.810  18.378  19.227 -0.1421 -0.1475  0.1561
 8826W        W51879  11.418  18.489   2.157  0.1665 -0.2873 -0.2319
 8827W        W51880  13.930  19.719   2.324 -0.0645 -0.1553  0.1192
 8828W        W51881   4.146  17.304  19.464 -0.3960 -0.1806 -0.0857
 8829W        W51882  11.311   5.681  22.793  0.1992  0.0774 -0.1137
 8830W        W51883  19.598  13.058   0.725  0.1214 -0.0269 -0.3456
 8831W        W51884   4.221   1.133   2.379 -0.1269  0.1866 -0.0838
 8832W        W51885   7.222  18.036  17.987 -0.3796  0.2531  0.1100
 8833W        W51886  12.345   7.731  28.592  0.0624 -0.1362 -0.3435
 8834W        W51887   6.758   9.937  21.401  0.3084  0.0545  0.0802
 8835W        W51888   7.488  21.888   0.488  0.2169  0.0248 -0.0154
 8836W        W51889   9.607   6.372   9.653  0.0163  0.0926  0.1598
 8837W        W51890  28.560  14.294  15.264  0.0645  0.0394 -0.0691
 8838W        W51891   0.179  14.928   8.418 -0.1891 -0.1432  0.1344
 8839W        W51892  25.324   4.633  17.904  0.4239  0.1736  0.0634
 8840W        W51893  24.033  12.477  15.191 -0.0532 -0.2615  0.0680
 8841W        W51894   8.306  21.026  28.317 -0.0490 -0.1363  0.2489
 8842W        W51895   7.362  14.838  26.620  0.1267 -0.1163 -0.0153
 8843W        W51896  15.499   4.397  26.388 -0.2753 -0.0163  0.0540
 8844W        W51897  25.450  12.690  25.943  0.2286 -0.1188  0.2181
 8845W        W51898  16.182   8.023   5.616 -0.0609 -0.1270  0.1101
 8846W        W51899  11.829  12.128  20.093  0.2272  0.1428  0.0311
 8847W        W51900  33.715  14.751  23.777  0.0744 -0.2174  0.2016
 8848W        W51901  19.904   6.044  18.968  0.3229  0.3572 -0.0949
 8849W        W51902  13.399   7.004  23.851 -0.1137  0.1760 -0.2184
 8850W        W51903  29.457   7.390   0.916  0.1233  0.0725 -0.4350
 8851W        W51904  34.010  30.741  24.412 -0.1704  0.1247  0.1972
 8852W        W51905  28.785  30.817  17.425  0.1804  0.1374 -0.1201
 8853W        W51906   7.227   5.413   5.375  0.0027  0.1389 -0.2813
 8854W        W51907  33.169  20.995  15.696 -0.0696  0.0802  0.1856
 8855W        W51908  17.265   6.697   5.119 -0.1698  0.1370 -0.1386
 8856W        W51909  16.729  12.073  21.875  0.1750 -0.0875 -0.1212
 8857W        W51910   4.222   0.575   0.450  0.2122 -0.0313  0.1524
 8858W        W51911   5.197  28.347   8.121  0.0599 -0.0006 -0.0675
 8859W        W51912  13.870  10.775  14.617 -0.1350  0.2064 -0.0900
 8860W        W51913  33.420  11.073  22.226 -0.1213  0.0576  0.0286
 8861W        W51914  26.740   6.627  22.426  0.1671 -0.1785 -0.1910
 8862W        W51915   3.491   6.496   4.549  0.0196  0.0729 -0.1164
 8863W        W51916   2.006  28.953   2.398 -0.3770 -0.0270  0.0546
 8864W        W51917  30.656  21.327   0.721  0.2773 -0.3194 -0.1543
 8865W        W51918  23.074  17.387  23.005  0.0781  0.2205  0.5834
 8866W        W51919  27.900  10.895  22.606 -0.1716 -0.1198 -0.0445
 8867W        W51920   1.673   7.884  28.513  0.0257 -0.0644  0.1089
 8868W        W51921   2.024   6.216  27.528  0.1042 -0.3002  0.1551
 8869W        W51922   7.439   5.751  18.341  0.2759 -0.0191 -0.0467
 8870W        W51923  18.976   6.096  17.514  0.2172  0.1603 -0.2643
 8871W        W51924   6.884   8.163  23.189  0.0621 -0.0080  0.1972
 8872W        W51925  16.013   9.302  28.573 -0.1814  0.0025 -0.0866
 8873W        W51926   8.322  14.471  18.012  0.2908  0.1764  0.2211
 8874W        W51927   5.639  13.003   4.202 -0.3439 -0.0301  0.0668
 8875W        W51928  33.486  28.286  27.797 -0.1785 -0.3464 -0.2454
 8876W        W51929   5.746  13.525  26.341 -0.2072  0.0423  0.1980
 8877W        W51930  33.835  24.534   4.328  0.3036 -0.1004 -0.1819
 8878W        W51931  19.153  18.316   1.215  0.1792  0.3839  0.0499
 8879W        W51932  31.202  13.264  23.338 -0.0013 -0.1784 -0.3094
 8880W        W51933  27.171  18.873  27.140  0.0129  0.1207 -0.0415
 8881W        W51934  31.768   7.264  21.102  0.0793 -0.0546  0.1733
 8882W        W51935  33.006  20.005  19.439 -0.3580  0.0340  0.1195
 8883W        W51936  26.977  12.365   4.140 -0.1621  0.2451  0.0020
 8884W        W51937  11.830  10.060  15.764 -0.1661 -0.0322 -0.0267
 8885W        W51938  24.961  16.485  26.730  0.0264 -0.0915  0.1407
 8886W        W51939  33.728  23.138  27.761 -0.0272  0.1590  0.1257
 8887W        W51940   3.682  29.774  16.562  0.2317  0.4136 -0.4234
 8888W        W51941  17.144  10.415  17.629 -0.0414  0.1577  0.0869
 8889W        W51942  27.164   8.484   0.395 -0.3652  0.1476 -0.1755
 8890W        W51943  31.934  25.284  14.119 -0.2249 -0.2064 -0.4235
 8891W        W51944   8.361   6.882   7.600 -0.1609  0.2973 -0.3285
 8892W        W51945  21.821   0.984  26.261 -0.2993 -0.1103 -0.2097
 8893W        W51946  30.356  19.036  22.469  0.1820 -0.1994 -0.1284
 8894W        W51947  25.219  29.919   1.144 -0.0152  0.2298 -0.0873
 8895W        W51948  32.134   3.326  18.508 -0.1626  0.1340 -0.2506
 8896W        W51949   0.148   8.246  23.130  0.1142  0.0976 -0.2768
 8897W        W51950   5.601  17.791  20.996  0.0619  0.1127  0.0297
 8898W        W51951   1.256   2.713  26.144  0.3925 -0.2774  0.1201
 8899W        W51952  34.612  21.896  28.075 -0.0328 -0.1669 -0.0994
 8900W        W51953  26.907  18.277  16.854 -0.1616  0.1465 -0.2172
 8901W        W51954   8.154  13.305  17.920  0.0448  0.1493  0.0920
 8902W        W51955   0.965  20.688   8.053  0.2189 -0.0756 -0.2783
 8903W        W51956  18.464  33.763  18.062 -0.1466 -0.1699 -0.0995
 8904W        W51957   9.305  15.554  20.519  0.0605 -0.0904 -0.1098
 8905W        W51958  17.455  30.683   8.977  0.1220  0.1017  0.1470
 8906W        W51959  16.631  12.372  17.714 -0.0662  0.1293 -0.0147
 8907W        W51960   9.308  10.415   8.022 -0.2563  0.1278  0.0433
 8908W        W51961  33.580  27.084  13.756  0.0972 -0.0473  0.0575
 8909W        W51962   4.788  16.783   2.790  0.0100 -0.1935 -0.3856
 8910W        W51963  29.858   3.300   2.590 -0.3415  0.2316  0.2890
 8911W        W51964   0.259   6.646   9.025 -0.0807 -0.1227  0.2954
 8912W        W51965  33.490   8.602   0.937 -0.2229  0.1724 -0.1755
 8913W        W51966  26.849  12.073   2.656  0.2518  0.0906  0.1143
 8914W        W51967  12.590  17.898  23.897 -0.1492  0.0302 -0.1717
 8915W        W51968   5.579   9.610  14.455  0.0299 -0.0293  0.2078
 8916W        W51969   4.498   2.985  26.966  0.3203 -0.2369 -0.0649
 8917W        W51970  23.143  30.828  28.231 -0.2692  0.2617 -0.1246
 8918W        W51971  12.691  15.471  15.430 -0.0908  0.2212  0.0627
 8919W        W51972   9.218  15.147  19.187 -0.1201  0.1258 -0.0747
 8920W        W51973  14.948  11.214   9.743 -0.0252  0.1569  0.0396
 8921W        W51974   3.299  12.286  28.678  0.0939 -0.3238 -0.1934
 8922W        W51975  17.572  23.750  21.938 -0.0631 -0.0237 -0.0152
 8923W        W51976  19.076  11.884   6.991 -0.1327  0.0434  0.1300
 8924W        W51977   3.393  11.272  22.895  0.1024 -0.1055 -0.2158
 8925W        W51978   4.661  19.236  21.259  0.0337 -0.0940  0.0906
 8926W        W51979  26.651  20.482   3.792 -0.1266  0.1955 -0.2396
 8927W        W51980  28.522  16.544   1.059 -0.0670 -0.1435  0.1236
 8928W        W51981  28.488  11.183  26.120  0.1030  0.0668  0.2917
 8929W        W51982   3.406   2.019   2.705 -0.2869  0.0496  0.1059
 8930W        W51983  18.968  21.100  17.169  0.2152 -0.0290  0.2950
 8931W        W51984  29.502  21.758  20.580 -0.0023  0.1014  0.0034
 8932W        W51985  29.217  32.091  26.375  0.1507  0.1954 -0.1728
 8933W        W51986  33.716   6.613  18.238 -0.1213  0.0493  0.2289
 8934W        W51987  25.589  17.520   3.273 -0.1140 -0.1405  0.0010
 8935W        W51988  21.273  19.427  26.433 -0.1196 -0.2115  0.1614
 8936W        W51989   0.673  14.451  25.771  0.0260  0.1110  0.1647
 8937W        W51990  11.968  12.404  11.833  0.0652  0.1886  0.0154
 8938W        W51991  26.301  23.801  23.159 -0.2303  0.1225 -0.0015
 8939W        W51992   3.067  26.341  23.786 -0.0771  0.0603 -0.3839
 8940W        W51993  13.538   3.182   4.145  0.0915 -0.1667  0.3207
 8941W        W51994   3.023   6.041   5.999 -0.1723  0.3451  0.2240
 8942W        W51995   2.266   2.655  27.716 -0.0847 -0.0920  0.3665
 8943W        W51996   6.589  20.682   4.928  0.1000 -0.0475  0.2533
 8944W        W51997   1.715  31.833  18.185 -0.0112  0.2208 -0.1738
 8945W        W51998  26.064   6.731  27.959 -0.1297 -0.0379 -0.2988
 8946W        W51999  20.630   4.211   2.196 -0.2145 -0.0929 -0.1823
 8947W        W52000  31.934  31.055   3.598  0.4246 -0.0588  0.0036
 8948W        W52001  13.930  13.086  24.189  0.0654  0.1472 -0.0905
 8949W        W52002  12.645   4.471  21.958 -0.0154 -0.2000  0.0391
 8950W        W52003   5.993  27.712  25.936 -0.0524 -0.1624  0.1201
 8951W        W52004  24.978  16.460   0.545  0.0897  0.0875 -0.0679
 8952W        W52005  31.702   6.579   4.228  0.1876 -0.0382 -0.1589
 8953W        W52006   1.302  12.883   8.554  0.0421  0.0405 -0.2003
 8954W        W52007   0.381  18.357  16.628  0.0505 -0.0182 -0.1773
 8955W        W52008   4.945  21.758  18.363  0.1827  0.1886 -0.0985
 8956W        W52009  29.547  21.484   0.820  0.2122 -0.1150  0.0403
 8957W        W52010  33.607  13.375  19.799 -0.1094  0.2622  0.1604
 8958W        W52011  17.818  16.777  15.085  0.1563  0.1077 -0.2804
 8959W        W52012   5.353   6.269   4.364 -0.0861 -0.0161 -0.1250
 8960W        W52013  13.260   4.501   8.955  0.0985  0.0991  0.3865
 8961W        W52014   2.641   4.079  20.977  0.0239 -0.1522 -0.0019
 8962W        W52015  12.417  11.740  26.858  0.0871 -0.1146  0.1859
 8963W        W52016   9.184   3.239  14.918  0.0606  0.1018 -0.0844
 8964W        W52017   5.353   7.963   1.819 -0.2193 -0.0287  0.5235
 8965W        W52018  33.953  32.160  17.192  0.0361  0.2798 -0.0589
 8966W        W52019   4.199  29.932  15.446  0.0573  0.0496 -0.0481
 8967W        W52020  25.212   4.770  13.719  0.0313  0.0727 -0.0451
 8968W        W52021  10.878   8.619  18.677  0.0436 -0.0955  0.3273
 8969W        W52022  21.798  16.165  27.537 -0.1346  0.0947  0.0064
 8970W        W52023  30.367  20.898  19.250 -0.0959  0.0233  0.2885
 8971W        W52024  30.734  13.245   7.405  0.3705 -0.1080  0.1689
 8972W        W52025  33.003  22.235   0.174  0.1960 -0.0119  0.0680
 8973W        W52026  14.454  19.126  27.198  0.0063 -0.1640  0.0647
 8974W        W52027   1.569  19.191  25.341 -0.1735  0.4558 -0.1397
 8975W        W52028   7.467   2.488  20.511  0.3220 -0.2121 -0.1830
 8976W        W52029  30.245  10.336  21.452  0.1230  0.2422 -0.0176
 8977W        W52030  11.848   3.392  15.759  0.2358 -0.0641  0.1165
 8978W        W52031   1.513   7.664  23.160  0.0450 -0.0033  0.2232
 8979W        W52032  27.186  11.875  23.011 -0.0491 -0.1429 -0.3501
 8980W        W52033   2.244  23.859  14.570  0.1006  0.1469 -0.2025
 8981W        W52034   1.726   5.334  25.363  0.2889  0.0029  0.0336
 8982W        W52035  25.625  14.482  21.421 -0.0139  0.1167  0.0709
 8983W        W52036   4.459  14.649  17.936  0.2284  0.0046 -0.5146
 8984W        W52037  11.406  10.587  19.231  0.3780 -0.0443 -0.0880
 8985W        W52038  27.560  23.071  21.382 -0.0112  0.2389  0.1070
 8986W        W52039   4.917  16.990  15.060 -0.2430 -0.1516  0.1876
 8987W        W52040  31.948   4.247  19.744 -0.0151 -0.1266  0.0310
 8988W        W52041   9.010  14.500  24.764  0.1220  0.2740  0.0418
 8989W        W52042  27.451   3.029  14.441  0.1234 -0.1412  0.1587
 8990W        W52043   1.100  13.459  20.460 -0.2877  0.1297  0.0914
 8991W        W52044  11.540  10.849  17.178 -0.0988  0.1482  0.2840
 8992W        W52045  28.167  15.350  18.043 -0.1160  0.1074 -0.3158
 8993W        W52046   1.467  24.160  21.730  0.2654  0.1215  0.0046
 8994W        W52047  26.258  14.973  23.361 -0.0256 -0.0353 -0.2419
 8995W        W52048  33.050  22.052  27.204 -0.1445 -0.1611 -0.1374
 8996W        W52049   0.098   6.643  14.308 -0.1530  0.2794 -0.2495
 8997W        W52050   7.345  19.943  27.710  0.0673 -0.0147  0.0545
 8998W        W52051   8.576   5.366  16.742  0.1292 -0.2636  0.0107
 8999W        W52052   5.774   8.504  15.380  0.0477 -0.1682 -0.1853
 9000W        W52053   8.398   6.195  16.241 -0.1903 -0.2206  0.1031
 9001W        W52054   1.678  13.271  23.968 -0.1124  0.3995 -0.2750
 9002W        W52055  27.687  20.448  18.213  0.1346 -0.0980 -0.3125
 9003W        W52056   6.746   9.550  23.322  0.0480 -0.2334  0.0353
 9004W        W52057   6.893  34.677  17.793  0.1401  0.0233 -0.0213
 9005W        W52058  28.448  12.753  20.424  0.1078  0.0127 -0.2182
 9006W        W52059   9.818  26.144  26.474  0.1168 -0.1789 -0.2976
 9007W        W52060   3.426   9.398  14.018 -0.1656  0.1487  0.0667
 9008W        W52061  29.204  13.078  15.164 -0.2741 -0.1888  0.1118
 9009W        W52062  30.336  12.850  28.874  0.0325  0.0931 -0.1213
 9010W        W52063   9.568  13.436  17.405 -0.2051 -0.1936  0.2773
 9011W        W52064  33.546  13.253  16.907 -0.1083 -0.1682  0.1252
 9012W        W52065  26.109  10.290  23.965 -0.0997 -0.0324 -0.2368
 9013W        W52066   3.976  12.826  16.130 -0.2290 -0.0696 -0.0908
 9014W        W52067  33.110  19.810  22.887 -0.1323  0.0446  0.0416
 9015W        W52068  12.512   5.446  15.318 -0.0472  0.0060 -0.2668
 9016W        W52069  31.743  26.580  26.509 -0.2540 -0.3282 -0.0474
 9017W        W52070   4.624   0.660  16.986 -0.1418  0.3877  0.0825
 9018W        W52071  22.245  33.528  17.036 -0.3432  0.3512 -0.2849
 9019W        W52072   0.550  16.335  15.361  0.1400 -0.0307  0.1568
 9020W        W52073   7.098  22.573  20.210  0.1212  0.1058 -0.2852
 9021W        W52074  33.679  10.038  19.746  0.2134  0.1819 -0.1449
 9022W        W52075  33.180   8.476  27.410  0.2776  0.0257 -0.0258
 9023W        W52076  32.459  30.969   1.420  0.3416 -0.1687 -0.1148
 9024W        W52077  30.356  28.386  23.028 -0.0099 -0.2149 -0.0289
 9025W        W52078   5.344  29.651  23.334  0.1319 -0.0689  0.0684
 9026W        W52079  33.943  11.215  21.330 -0.0284 -0.1707  0.0294
 9027W        W52080  34.440  14.164   0.816 -0.0466 -0.2333 -0.3187
 9028W        W52081   0.592  25.827  25.648  0.0712 -0.0030  0.0348
 9029W        W52082  32.550  16.213  15.470  0.2209  0.2437 -0.0702
 9030W        W52083   2.907  21.545  28.519  0.1117  0.1808 -0.2249
 9031W        W52084  11.198  24.166  22.857  0.0517 -0.0033 -0.1016
 9032W        W52085  11.639  14.675  28.900  0.0328  0.0191 -0.2324
 9033W        W52086   8.624   7.666  17.974 -0.0838 -0.0433  0.2788
 9034W        W52087   6.281   7.507  17.887 -0.0604  0.0493 -0.1735
 9035W        W52088   3.044  23.112  18.146  0.1301 -0.0248  0.1736
 9036W        W52089  18.499   5.548  19.156  0.1174 -0.0327  0.1808
 9037W        W52090  10.890   2.142  16.065 -0.1888  0.1320 -0.0428
 9038W        W52091  14.219   0.625  18.410  0.0822  0.1654 -0.0302
 9039W        W52092   5.914   2.890  21.452 -0.1342  0.0662 -0.2411
 9040W        W52093  11.330  34.164   5.156  0.0729  0.3970  0.1386
 9041W        W52094   5.172   2.632  25.198 -0.1128  0.1085  0.0180
 9042W        W52095   9.222  11.297   3.256 -0.0266 -0.4578 -0.0778
 9043W        W52096   6.411  24.341  15.812 -0.1889 -0.3840  0.0168
 9044W        W52097  29.557   7.302  19.673 -0.2198  0.2904  0.2193
 9045W        W52098   6.872   4.043  17.372 -0.0326  0.1772  0.0275
 9046W        W52099   5.726   2.721   1.404 -0.0205  0.2328  0.3333
 9047W        W52100  33.811  31.141  16.617 -0.2875  0.1302  0.0420
 9048W        W52101  24.099  30.561   0.340 -0.1453  0.0800 -0.2016
 9049W        W52102   7.850   1.943  16.481 -0.1318 -0.0463  0.0588
 9050W        W52103  27.096   4.450  17.044 -0.4850 -0.0826  0.1442
 9051W        W52104  22.470  10.907  23.517 -0.1917  0.3292 -0.2033
 9052W        W52105  17.513  13.674  15.827  0.0848  0.0778  0.1324
 9053W        W52106   3.383   8.544  18.325 -0.1294  0.3652 -0.0471
 9054W        W52107  25.690  26.216  22.201 -0.1220  0.1451 -0.0818
 9055W        W52108  21.636   9.311  20.802  0.0380 -0.1906  0.3164
 9056W        W52109  10.240  31.736  22.613 -0.1152 -0.1436 -0.2828
 9057W        W52110   7.910   1.643  19.269  0.1519  0.3396 -0.4940
 9058W        W52111   2.489  14.939  24.982  0.0911  0.0672 -0.0390
 9059W        W52112  18.512   9.456  22.708  0.1288  0.1746  0.3091
 9060W        W52113  31.847  11.831  27.945  0.3536 -0.1325 -0.1476
 9061W        W52114   3.279  25.029  16.896  0.0120  0.0521  0.1459
 9062W        W52115   2.289  19.166  18.103  0.1589  0.2546  0.1240
 9063W        W52116  15.173   3.925  17.008  0.1504  0.0271  0.4006
 9064W        W52117   4.444   3.873  20.567 -0.0786 -0.1497  0.0904
 9065W        W52118  27.933  20.999  19.350 -0.1009 -0.0878  0.2260
 9066W        W52119  19.474  25.209  15.303 -0.1211  0.1355 -0.3662
 9067W        W52120   5.852  17.380  13.572  0.1397 -0.1173  0.1216
 9068W        W52121  28.884  17.249  14.671 -0.1818 -0.2954  0.2165
 9069W        W52122  22.579   4.985  24.802 -0.0664  0.0805  0.2333
 9070W        W52123  28.412   9.472  16.734  0.2174  0.1074  0.0883
 9071W        W52124  25.881  18.640  14.752 -0.0642  0.2355 -0.3322
 9072W        W52125   2.582   6.091  15.664  0.1147  0.0944  0.2037
 9073W        W52126  32.906  11.869   0.193 -0.1169 -0.3474 -0.0895
 9074W        W52127  25.002   2.761  20.620  0.2627  0.0284 -0.0590
 9075W        W52128   9.955   8.192  18.251  0.0421  0.0135 -0.3488
 9076W        W52129  26.448  24.061  18.088 -0.0492 -0.2829  0.0495
 9077W        W52130   2.564  18.515  17.191 -0.0308  0.1463  0.1740
 9078W        W52131  28.512  16.363  23.928 -0.1649 -0.1189  0.4767
 9079W        W52132  27.926  12.249  26.028 -0.0392 -0.1160 -0.1237
 9080W        W52133   0.137   2.580   8.594 -0.3033  0.0883  0.0617
 9081W        W52134  33.528  32.705  16.473  0.2283 -0.1912 -0.2535
 9082W        W52135   9.344  13.114  24.207 -0.0356  0.0437 -0.0066
 9083W        W52136  25.570   5.842  20.848  0.3019 -0.3263 -0.0462
 9084W        W52137  27.692  10.612  19.129 -0.0105  0.0310 -0.0880
 9085W        W52138   8.745  18.230  17.167  0.0465  0.1105  0.1232
 9086W        W52139   7.998  10.943   1.294  0.2425 -0.0658  0.0371
 9087W        W52140   0.854  18.936  27.039 -0.0427  0.1492  0.2500
 9088W        W52141  14.146   2.061  23.673  0.0229 -0.0467 -0.0090
 9089W        W52142  10.742   8.640  19.204 -0.0525 -0.0523  0.3210
 9090W        W52143   4.862  15.428  20.425  0.0516 -0.0900 -0.0976
 9091W        W52144   0.854  16.279  18.630 -0.0030 -0.2746  0.2567
 9092W        W52145   4.158   8.851   6.314  0.0353  0.1486 -0.3307
 9093W        W52146   2.001  23.012  26.038 -0.0659 -0.2330 -0.2191
 9094W        W52147  10.388  11.803  22.408  0.2379 -0.2816  0.0730
 9095W        W52148  32.660   8.205  19.229 -0.0567  0.1334 -0.0496
 9096W        W52149  23.684   6.680  23.146  0.1512  0.0909  0.1326
 9097W        W52150  11.021   5.980   2.963  0.0061 -0.0966 -0.1590
 9098W        W52151  32.971  22.511  14.151  0.1432  0.0430 -0.1900
 9099W        W52152  34.186   7.254  19.721 -0.0167 -0.1832  0.0270
 9100W        W52153   9.605  17.209  16.778 -0.4163 -0.0517  0.3650
 9101W        W52154   7.602  33.454  19.486  0.2388 -0.0037 -0.4414
 9102W        W52155   2.853   5.872  19.130 -0.1177 -0.0862  0.0653
 9103W        W52156  14.543  15.684  22.328 -0.1902 -0.2395  0.0608
 9104W        W52157   8.951  22.968  18.766  0.3066  0.1014 -0.0044
 9105W        W52158  29.638  18.725  15.699  0.1593 -0.2203 -0.0844
 9106W        W52159  33.279  11.752  14.903  0.0253  0.2159  0.4744
 9107W        W52160  24.599   4.070  23.919  0.1429  0.2178  0.2304
 9108W        W52161   6.507   2.228  20.879 -0.0787 -0.1164  0.0826
 9109W        W52162   7.766  18.414  15.056 -0.1290 -0.0277 -0.1119
 9110W        W52163   3.605  12.323  24.850  0.1546  0.0272  0.1526
 9111W        W52164   4.112  26.338  18.055 -0.1280 -0.3531  0.2089
 9112W        W52165   4.496   3.499  17.834  0.0277 -0.1986  0.2441
 9113W        W52166  10.188   5.493  20.738  0.1977 -0.1455  0.0102
 9114W        W52167  30.404  15.608  15.830 -0.0489  0.0692 -0.1908
 9115W        W52168  31.547  23.280  21.635 -0.0586  0.0434 -0.2036
 9116W        W52169   2.401  32.963  19.143  0.2649  0.1997 -0.0156
 9117W        W52170   4.629  10.892  18.165  0.0056  0.0162  0.3846
 9118W        W52171  29.604  21.921  27.494  0.2008  0.1470 -0.0994
 9119W        W52172  30.461  25.364  16.334  0.2565 -0.1163  0.2227
 9120W        W52173  29.272   6.431   2.355 -0.1024  0.0897  0.0417
 9121W        W52174  28.118  12.534  15.207 -0.2007 -0.1560 -0.0781
 9122W        W52175   3.609  17.291  13.949  0.0984  0.1794 -0.0695
 9123W        W52176   2.534  21.119   1.406 -0.0708 -0.0419 -0.1076
 9124W        W52177   6.417   2.508  26.881  0.2699 -0.1223 -0.0179
 9125W        W52178   5.678   7.733  14.812  0.2618  0.0593 -0.1229
 9126W        W52179  31.080  13.188  15.718  0.1607 -0.2108 -0.2365
 9127W        W52180  18.618  12.568  22.916  0.1682 -0.2505 -0.2466
 9128W        W52181  33.707  20.823   2.837  0.2593  0.3681  0.1512
 9129W        W52182   5.622  17.869  23.903  0.4742 -0.0625  0.0467
 9130W        W52183  31.789  14.873  26.538 -0.0687 -0.0982  0.1153
 9131W        W52184   9.386  19.901  26.969  0.3334 -0.1560  0.0405
 9132W        W52185   1.434  10.602   3.191 -0.1608  0.0992 -0.1267
 9133W        W52186  33.564  10.879  15.560  0.0735  0.0560 -0.2665
 9134W        W52187   0.606   5.691  22.677 -0.2377  0.0132  0.0263
 9135W        W52188  28.766   4.268  15.616 -0.2450 -0.2903  0.3102
 9136W        W52189   0.448  26.074  15.790  0.0753  0.2641 -0.1903
 9137W        W52190   3.072  16.408  23.679  0.1940  0.2588  0.1347
 9138W        W52191   0.672  15.311  24.246  0.1190  0.3492  0.2112
 9139W        W52192  12.537   0.572  20.818 -0.0527 -0.4090  0.2513
 9140W        W52193  27.854   6.541   8.509 -0.0102 -0.1669  0.0665
 9141W        W52194  29.677   7.967  21.029  0.0971 -0.1675  0.0789
 9142W        W52195   1.320   0.233  18.603  0.0449 -0.0349 -0.2705
 9143W        W52196  21.200  13.034  18.783  0.1906  0.2884 -0.1295
 9144W        W52197  25.979   7.421  24.922 -0.0762  0.1500 -0.3661
 9145W        W52198  33.439  11.883  21.308 -0.0579 -0.0102  0.0406
 9146W        W52199   3.721  23.150   1.455  0.1946 -0.1735  0.2524
 9147W        W52200   1.069  19.175  25.008 -0.2521 -0.2761  0.2912
 9148W        W52201   1.594  15.167   1.877  0.3016  0.0101 -0.0054
 9149W        W52202  12.617   2.895  17.160 -0.0471  0.0239 -0.1573
 9150W        W52203   2.447  11.747  26.378  0.0581 -0.0795 -0.0970
 9151W        W52204  13.854  21.148   5.165  0.0900  0.1129 -0.1253
 9152W        W52205  14.268  15.004  17.904 -0.1701  0.2710  0.2089
 9153W        W52206   3.945  28.075  19.786 -0.0468  0.3207 -0.1685
 9154W        W52207   6.959  34.632  20.302  0.0537  0.1208 -0.0133
 9155W        W52208  22.730  14.012  22.364  0.2788 -0.3258  0.0030
 9156W        W52209   0.037  10.372  14.822 -0.3832 -0.0370 -0.3326
 9157W        W52210   2.365   4.628   0.530  0.2296  0.1646 -0.1868
 9158W        W52211   3.428  17.361  17.114 -0.1487 -0.0697 -0.0759
 9159W        W52212   4.809  19.608  23.778 -0.0122  0.0156  0.0088
 9160W        W52213   1.163   9.862  15.819  0.0999  0.1138  0.1153
 9161W        W52214  16.920  20.511  23.157  0.2804  0.0220  0.2191
 9162W        W52215   2.552  13.111  20.064  0.1232  0.0745 -0.0186
 9163W        W52216  33.049  19.160  27.695 -0.0924 -0.0639 -0.0142
 9164W        W52217  11.325   0.570  27.051  0.3120  0.0143 -0.0822
 9165W        W52218   1.393   8.866  26.372 -0.3092  0.2894 -0.1835
 9166W        W52219  24.743  10.738  15.377  0.3482  0.0743  0.3085
 9167W        W52220   1.814  15.544   4.313  0.0978 -0.2089  0.0046
 9168W        W52221   5.916  11.740  28.628 -0.0904 -0.1386  0.0489
 9169W        W52222   8.945   4.557  29.162  0.0518  0.0181 -0.0792
 9170W        W52223   1.052   9.238  14.725 -0.0449  0.1243  0.0495
 9171W        W52224   2.258  13.679  28.554  0.2024 -0.3294  0.1039
 9172W        W52225  24.556   0.398  24.687  0.0027 -0.0934  0.0938
 9173W        W52226   7.884   8.561  25.712 -0.0587 -0.2544  0.1969
 9174W        W52227   1.878  21.932  23.766 -0.0297 -0.0273  0.0636
 9175W        W52228  28.172   9.267  18.157  0.0885  0.2727  0.0455
 9176W        W52229   0.414  19.385  21.143 -0.0093 -0.3446 -0.0697
 9177W        W52230  13.069  13.979   0.772  0.2262 -0.0292  0.1033
 9178W        W52231   9.332  21.501  20.718  0.4964 -0.0825  0.3686
 9179W        W52232  19.243  16.728  14.219  0.1812  0.0577 -0.1150
 9180W        W52233  33.513  19.378  17.565 -0.0365 -0.0789 -0.0511
 9181W        W52234  14.565   0.769  16.584 -0.3762  0.1974  0.1696
 9182W        W52235   6.723  25.882  24.474  0.0469 -0.0392  0.1483
 9183W        W52236  15.232  10.293  14.974 -0.1080 -0.2821 -0.0091
 9184W        W52237   4.827  12.371  24.037 -0.2030 -0.2608 -0.0323
 9185W        W52238  29.544   4.191  28.048 -0.0965 -0.2317 -0.1369
 9186W        W52239   0.051  13.160  28.299  0.2088  0.1177  0.0623
 9187W        W52240   3.128  14.508  27.503 -0.0972 -0.3292 -0.1898
 9188W        W52241   1.330  10.559  16.183  0.0516 -0.1725  0.0605
 9189W        W52242  21.289  28.775  26.702  0.3847  0.2401 -0.3559
 9190W        W52243  34.085  34.327  20.758  0.1063 -0.0137 -0.0614
 9191W        W52244  10.883   2.951  28.600 -0.0617 -0.1686  0.1426
 9192W        W52245   8.657   6.051  18.243  0.0559  0.0856  0.0966
 9193W        W52246   7.590  15.817  20.465 -0.1429 -0.1779 -0.0935
 9194W        W52247   0.979   1.556  25.584 -0.0645 -0.1744  0.1513
 9195W        W52248   4.216   5.297   9.252 -0.0308 -0.1181 -0.2755
 9196W        W52249   2.529  16.152  16.435 -0.3159 -0.0489  0.0329
 9197W        W52250  13.773   9.274  25.332  0.2774  0.0136  0.0263
 9198W        W52251  14.264   3.464  27.888  0.3366 -0.0218  0.3737
 9199W        W52252   7.593   5.773  28.942  0.1645  0.0305  0.2274
 9200W        W52253  33.101  17.986  20.358  0.2946 -0.1908  0.0061
 9201W        W52254  27.035  29.940  26.718  0.1381 -0.2190 -0.3185
 9202W        W52255  24.650  12.635  17.528  0.0714  0.3113  0.1444
 9203W        W52256  28.567  12.708   9.478  0.3374 -0.0764  0.0361
 9204W        W52257   3.816  18.398  14.036 -0.0494 -0.0439 -0.0522
 9205W        W52258   1.323  14.741  13.340  0.2968 -0.2677 -0.1336
 9206W        W52259   5.270  26.286  27.131 -0.2003 -0.0670 -0.0852
 9207W        W52260  26.343  34.043  16.807  0.0689 -0.0430  0.4433
 9208W        W52261  29.989   7.470  15.194 -0.2867 -0.2565  0.1265
 9209W        W52262  32.316  18.158  22.418  0.0151  0.1093 -0.3176
 9210W        W52263  22.275   9.785  21.019 -0.4084 -0.3223 -0.0408
 9211W        W52264  25.698  28.042  16.465  0.1237 -0.1478  0.3331
 9212W        W52265  32.897  22.953  16.937  0.0599  0.1575  0.1497
 9213W        W52266  13.307  10.176  22.794 -0.2275 -0.0544  0.0401
 9214W        W52267   1.971  11.389  18.498 -0.0445  0.1952  0.1341
 9215W        W52268  33.935   6.891  14.783 -0.0899  0.1602  0.2147
 9216W        W52269  27.436  20.987  25.569  0.1329 -0.1667  0.0887
 9217W        W52270  17.188  30.027  19.088  0.1768 -0.0954 -0.2082
 9218W        W52271   3.995   8.957  22.151  0.2308  0.1279 -0.0090
 9219W        W52272  11.086   1.765  21.805  0.1789  0.2663 -0.0218
 9220W        W52273   0.739  24.757  18.405 -0.2319  0.4080 -0.0923
 9221W        W52274   4.938  23.801  20.331 -0.0304  0.0609  0.0883
 9222W        W52275  30.611  10.225  19.930  0.0608  0.1936  0.0500
 9223W        W52276   6.985  10.915  18.892 -0.0350 -0.1790 -0.0692
 9224W        W52277  15.822  22.780  17.415 -0.0620 -0.3045 -0.0624
 9225W        W52278   4.581   1.900  15.516  0.2148 -0.0016  0.0381
 9226W        W52279  30.185   6.662  14.099  0.1135  0.2032  0.1546
 9227W        W52280   2.643  28.942  13.727 -0.0364 -0.0001 -0.0909
 9228W        W52281  11.269  16.157  10.000 -0.2487  0.1358  0.1838
 9229W        W52282   0.963   8.037  21.891  0.1365  0.1346 -0.1246
 9230W        W52283   3.093  19.667  18.178  0.1308 -0.0216 -0.0641
 9231W        W52284  11.776  24.216   9.496  0.0697  0.0637  0.0247
 9232W        W52285   0.039  10.947  13.941 -0.0989  0.0364 -0.1668
 9233W        W52286  27.022  16.022  14.664  0.1853 -0.1182 -0.2243
 9234W        W52287  19.937  10.112  23.867  0.0423 -0.1151  0.1014
 9235W        W52288  25.664  33.077  18.153 -0.0009  0.0258  0.0338
 9236W        W52289   8.516   5.178  24.810  0.0448 -0.1305  0.2908
 9237W        W52290  31.630  20.491  22.583  0.1107  0.2222 -0.0235
 9238W        W52291  13.552  19.084   0.938 -0.0751  0.3538 -0.0833
 9239W        W52292  10.016   4.743  16.966  0.0660  0.0586  0.0026
 9240W        W52293   8.714  29.433   1.510 -0.1548  0.1264 -0.1585
 9241W        W52294  17.448  18.135  23.040  0.0443 -0.2191 -0.2810
 9242W        W52295   5.823  30.889  16.938 -0.0786  0.2213  0.0132
 9243W        W52296  21.591  15.064  23.359  0.0531  0.1652 -0.1318
 9244W        W52297  27.558  15.022  29.183  0.0434  0.0835 -0.2257
 9245W        W52298  26.761   6.632  18.342  0.1055 -0.0454 -0.2026
 9246W        W52299  33.731  25.749  15.283  0.0597  0.1937 -0.1478
 9247W        W52300  26.979  33.161  15.453  0.2090 -0.2336 -0.1930
 9248W        W52301  28.438  28.811  14.490 -0.1604  0.1311  0.0443
 9249W        W52302  16.098   8.491  23.564  0.1016  0.1260 -0.1844
 9250W        W52303   1.794  13.014  26.043  0.1570 -0.0038 -0.1927
 9251W        W52304   8.657   7.308  16.312  0.1618  0.5331  0.1356
 9252W        W52305   7.332  17.238  15.488  0.2421  0.1471  0.2668
 9253W        W52306  30.228  21.027  20.875 -0.2268  0.0254 -0.1461
 9254W        W52307  30.279   6.875  22.008 -0.4269  0.1977  0.2407
 9255W        W52308   4.424  13.040  22.441  0.0572  0.0286 -0.0868
 9256W        W52309  31.636  10.967  24.664 -0.1478 -0.2290 -0.0655
 9257W        W52310   5.175  31.846  25.182  0.0360 -0.0526 -0.0617
 9258W        W52311  30.374  21.842  20.618 -0.1067  0.2678 -0.0739
 9259W        W52312  33.903  13.730  20.085 -0.1995 -0.0966  0.0061
 9260W        W52313  12.031   7.173  24.205 -0.1094 -0.0201  0.0978
 9261W        W52314   3.950  24.683  28.915  0.0895 -0.0411 -0.3194
 9262W        W52315   1.857  14.540  24.352  0.0353  0.1397 -0.1377
 9263W        W52316  18.714  30.630  15.687  0.2760  0.2140 -0.1600
 9264W        W52317  11.284   5.811  21.741 -0.2042 -0.2895  0.3807
 9265W        W52318  26.156  21.465  28.317 -0.0688  0.2756 -0.1233
 9266W        W52319  32.819  15.137   4.394  0.0235  0.2779  0.3108
 9267W        W52320   8.860   7.511  15.301 -0.0349  0.0221  0.0418
 9268W        W52321  26.180   5.961  21.838 -0.0093 -0.1593 -0.2569
 9269W        W52322   2.890  16.310  14.729 -0.0500  0.1430 -0.5073
 9270W        W52323   7.118  11.171  24.917  0.0508  0.0463 -0.2073
 9271W        W52324  23.291   5.751  15.509  0.1303 -0.1196  0.0028
 9272W        W52325  32.504  19.916   5.026  0.0852  0.1947  0.0383
 9273W        W52326  14.091  13.689  23.028 -0.3114  0.1773  0.0245
 9274W        W52327   1.858   8.192  18.466 -0.0654  0.0301  0.4961
 9275W        W52328  25.472  21.796  15.959 -0.0632 -0.4005  0.1736
 9276W        W52329  33.703  26.811  22.220  0.0844 -0.0477  0.0072
 9277W        W52330  27.992  11.370  22.020 -0.0635  0.1754  0.0018
 9278W        W52331   0.153  25.191  22.383 -0.0815 -0.1395  0.1673
 9279W        W52332  27.756  14.820  10.197 -0.1452 -0.0994  0.1522
 9280W        W52333  11.655   9.168  24.556  0.0904 -0.0548 -0.3346
 9281W        W52334  12.487   8.844  21.119  0.0841 -0.2223 -0.1337
 9282W        W52335  29.420   1.127   9.702  0.2271  0.0377  0.2161
 9283W        W52336   4.451   7.675  20.509 -0.3939 -0.1193 -0.1250
 9284W        W52337  28.404  31.356  27.586  0.0368  0.2645 -0.0042
 9285W        W52338  18.751  25.004  25.351  0.0651  0.1223  0.1534
 9286W        W52339   2.397  17.231  14.241  0.2216  0.0331 -0.1967
 9287W        W52340  30.305  25.540  14.600 -0.1700  0.2296  0.1498
 9288W        W52341  18.006  26.187  16.255  0.3769  0.1911  0.2066
 9289W        W52342  15.270   3.633  26.917  0.0760  0.3693 -0.0262
 9290W        W52343   7.405  18.300  26.092  0.0136 -0.3044  0.3591
 9291W        W52344  25.114   7.048  17.826 -0.2278  0.3878  0.0783
 9292W        W52345  33.742  20.289  18.018 -0.1377  0.2607  0.1036
 9293W        W52346  26.215   7.847  14.543  0.0889 -0.1322  0.0690
 9294W        W52347  28.250   9.135  18.634 -0.0107  0.6156  0.0892
 9295W        W52348   5.219  15.584  15.540  0.0118 -0.0499 -0.0477
 9296W        W52349  26.987   9.274   5.956 -0.0179 -0.2340 -0.1439
 9297W        W52350  32.516   0.290   6.542  0.1241 -0.2089  0.1888
 9298W        W52351   9.540  17.416  19.956 -0.0660 -0.0258 -0.4657
 9299W        W52352  18.691   9.624   0.934  0.1030  0.2086  0.0408
 9300W        W52353   5.055  22.348  16.662 -0.1562 -0.1460  0.0118
 9301W        W52354  20.345  10.893  14.464 -0.4251 -0.0658 -0.4936
 9302W        W52355  15.345  12.392  19.125  0.2088  0.1201  0.2666
 9303W        W52356  11.278   4.048  27.236  0.2791  0.1399 -0.1421
 9304W        W52357  29.927   5.641  15.646  0.1376 -0.1579  0.0946
 9305W        W52358   2.752  18.312  21.602 -0.0191  0.0345 -0.1280
 9306W        W52359   0.225  16.167  22.775  0.1291  0.1355  0.0476
 9307W        W52360  29.070   5.263  15.343  0.1657 -0.0077 -0.0467
 9308W        W52361  23.971  19.018  24.033 -0.0277 -0.4078 -0.0874
 9309W        W52362  10.080   9.514  22.197 -0.1582 -0.2720  0.3646
 9310W        W52363   4.918  16.232  14.568 -0.2632 -0.1134 -0.2444
 9311W        W52364  33.383   9.996  21.444  0.1841  0.0858  0.2023
 9312W        W52365   8.395  34.633  20.159  0.2425 -0.1045 -0.1675
 9313W        W52366  27.084  10.056  20.737  0.1207  0.0359  0.3628
 9314W        W52367  32.803   5.940  14.203  0.0463 -0.3501 -0.0887
 9315W        W52368   1.744  29.733  14.362 -0.2024  0.1873 -0.1978
 9316W        W52369  33.826   9.965  15.486  0.0449 -0.0757 -0.2354
 9317W        W52370  30.878  10.269  25.217  0.0408 -0.0975  0.2397
 9318W        W52371   9.666   3.507  18.270 -0.0652 -0.1303  0.0524
 9319W        W52372  20.759   9.591  15.836 -0.0466 -0.0618  0.0438
 9320W        W52373  12.740  16.347  21.954 -0.2585  0.2707 -0.1254
 9321W        W52374  27.739  15.118  26.392 -0.0396  0.2129 -0.0038
 9322W        W52375  29.892   3.944   6.985 -0.1225 -0.0489 -0.0915
 9323W        W52376  29.869  31.725  14.224 -0.2136  0.0010 -0.1337
 9324W        W52377   4.212  25.244  19.689  0.1042  0.1782 -0.2480
 9325W        W52378  18.669  17.924  14.438  0.1238  0.0601  0.0455
 9326W        W52379   7.765  30.484  26.286 -0.2195  0.0980  0.2882
 9327W        W52380   9.316   2.428   1.903 -0.0162 -0.4986  0.0097
 9328W        W52381   1.185  17.193  19.727  0.2917 -0.1997 -0.3172
 9329W        W52382  22.573  34.370  25.118 -0.4672  0.1486 -0.0792
 9330W        W52383   9.112  22.496  20.104  0.2278  0.1043  0.1267
 9331W        W52384  23.502  19.280  14.541 -0.2517 -0.3450 -0.3180
 9332W        W52385   4.963   4.069  19.736 -0.3326 -0.1109 -0.0424
 9333W        W52386  10.384  13.058  22.903 -0.1813 -0.1156 -0.3923
 9334W        W52387   2.594  15.866   0.453  0.1454 -0.1362  0.3567
 9335W        W52388  24.244  16.286  14.040 -0.4716  0.0812 -0.0597
 9336W        W52389  31.009  27.585  18.583 -0.0223 -0.2416  0.0489
 9337W        W52390   9.516   6.400  28.808 -0.0306 -0.1952 -0.1839
 9338W        W52391   3.742  15.401   5.744 -0.2496  0.0828 -0.0343
 9339W        W52392  14.597  13.855  26.071  0.0935  0.2571 -0.0022
 9340W        W52393   1.909   9.127  14.570  0.0570 -0.0452 -0.0559
 9341W        W52394  10.660  16.304  22.864  0.0614  0.1918  0.1487
 9342W        W52395   4.528   3.477  23.631  0.1059  0.0692  0.1475
 9343W        W52396   0.307  12.922  17.183  0.0060 -0.0496  0.5062
 9344W        W52397   3.344  18.661   8.712 -0.0629 -0.0201  0.3056
 9345W        W52398  25.257  29.397  28.561 -0.0156 -0.0185 -0.2740
 9346W        W52399   7.606  14.863  23.055  0.0978  0.0720  0.0906
 9347W        W52400   0.866  12.414  17.638  0.2633 -0.0292 -0.2986
 9348W        W52401   1.509  23.613  19.874  0.2171  0.1716  0.3235
 9349W        W52402   4.454   7.704   1.791  0.0522 -0.0006 -0.0996
 9350W        W52403   1.532  22.185  27.406 -0.1138  0.2120 -0.1488
 9351W        W52404  31.762   9.287   0.032  0.4627  0.0375  0.3299
 9352W        W52405   9.089   8.942  28.749  0.1812 -0.0954 -0.1016
 9353W        W52406  32.434  17.201  20.565 -0.1470  0.0828  0.2617
 9354W        W52407  29.185  26.982  19.506 -0.0632  0.0725  0.1201
 9355W        W52408   5.224   9.746  25.420  0.1729  0.0230  0.4206
 9356W        W52409  30.931   3.069  15.218 -0.2386 -0.2200  0.3006
 9357W        W52410   7.560  10.343  20.743 -0.0042 -0.2062 -0.0540
 9358W        W52411   0.791   1.419  13.816 -0.1762  0.2821  0.1746
 9359W        W52412  27.569  25.188  21.449 -0.1215  0.2032 -0.0025
 9360W        W52413   8.260   3.148  14.571 -0.2289 -0.0128 -0.1928
 9361W        W52414   8.603   2.238  21.102  0.1135  0.1660  0.1610
 9362W        W52415  23.737  11.449  17.177  0.1596  0.3518 -0.2722
 9363W        W52416   3.692  26.450  19.712  0.1588  0.0074  0.1502
 9364W        W52417   1.840  14.266   0.620  0.4349  0.1965  0.3159
 9365W        W52418  18.070  18.686  23.714 -0.1290 -0.0123  0.1747
 9366W        W52419  21.500   6.493  16.123  0.0233  0.0381  0.1938
 9367W        W52420   4.611  20.533  18.900  0.2884  0.0327 -0.1628
 9368W        W52421  34.308  23.886  23.913 -0.0083 -0.1874  0.1305
 9369W        W52422  23.264  18.012  22.972 -0.2744  0.2082  0.0786
 9370W        W52423  29.819  21.921  15.512  0.2003 -0.0711  0.2749
 9371W        W52424   4.757  11.770  14.676  0.0970  0.2834  0.1936
 9372W        W52425  13.531  16.280  21.494 -0.1664  0.0275  0.1290
 9373W        W52426  34.139  10.509  17.525 -0.0209  0.0133  0.1783
 9374W        W52427  33.991  12.094  21.738  0.2056 -0.0787 -0.0106
 9375W        W52428  33.178  30.761  17.030 -0.0048 -0.0487  0.1920
 9376W        W52429  26.491  19.243  25.772  0.0942 -0.2241 -0.0764
 9377W        W52430  32.321  11.225  17.283 -0.1419  0.0013 -0.1397
 9378W        W52431   0.200  16.644   4.652  0.5786 -0.1741  0.1139
 9379W        W52432   6.316   9.807  26.147 -0.0290  0.3615 -0.2068
 9380W        W52433  10.558  12.430  25.418 -0.3206  0.1468  0.0716
 9381W        W52434  12.319   5.990  21.495  0.2607 -0.1556 -0.0506
 9382W        W52435   3.420   8.316   0.411 -0.1370  0.0637  0.3097
 9383W        W52436  12.021  22.365  24.171 -0.2645 -0.3535  0.2953
 9384W        W52437  33.996   5.654  18.763  0.1276  0.0433  0.0094
 9385W        W52438   0.988  33.532  14.690  0.0738 -0.0828 -0.1171
 9386W        W52439  20.249  25.818  14.150  0.0405 -0.1067  0.1191
 9387W        W52440  24.450   8.755  17.110  0.1232  0.2332  0.0640
 9388W        W52441  21.356   6.153  17.259  0.1151  0.1923 -0.5191
 9389W        W52442   1.640   0.220  15.885  0.0340 -0.0916 -0.0210
 9390W        W52443   5.088  21.725  13.176  0.0773  0.1435 -0.3110
 9391W        W52444   6.677  19.705  16.746 -0.0200  0.1844  0.1410
 9392W        W52445  24.574  23.808  20.342 -0.0178  0.2962  0.2894
 9393W        W52446  22.758   9.518   2.171 -0.1497 -0.3459 -0.0436
 9394W        W52447   3.285   9.721  14.848 -0.0388 -0.1632  0.1498
 9395W        W52448   5.575  17.432  26.140 -0.1058  0.0557  0.0311
 9396W        W52449  30.657  31.264  17.279  0.1463  0.2750  0.0296
 9397W        W52450   9.073   8.365  24.301 -0.1834 -0.0376 -0.3723
 9398W        W52451  15.088  12.491  25.351  0.0335  0.2695 -0.0903
 9399W        W52452   8.421  29.579  24.307 -0.4983 -0.1095  0.0949
 9400W        W52453  23.743  21.432  20.909  0.0055 -0.1629 -0.1132
 9401W        W52454   5.787  33.726  27.286  0.1225 -0.2543 -0.0367
 9402W        W52455  13.741  33.675  22.646  0.1164  0.1198 -0.0793
 9403W        W52456   3.826  13.131  16.497  0.1504  0.1614 -0.2696
 9404W        W52457  26.827  12.305  18.820  0.1095 -0.2158 -0.2585
 9405W        W52458   4.618  12.289   6.423 -0.2472  0.2385  0.0257
 9406W        W52459   9.971  23.586  29.179  0.0669  0.0574  0.0996
 9407W        W52460  24.967  26.938  15.378 -0.2205  0.0775  0.1158
 9408W        W52461  32.683   4.929  17.224 -0.4389 -0.0252 -0.0816
 9409W        W52462  32.281   1.811  16.487 -0.0509 -0.0406  0.0752
 9410W        W52463  33.459  30.510   0.274 -0.2849  0.3871  0.1600
 9411W        W52464  14.173   2.984  13.555  0.1526  0.0967  0.2294
 9412W        W52465  33.819  28.918  22.815  0.1381 -0.0877  0.0042
 9413W        W52466  23.038   3.122  17.725 -0.0515 -0.0537  0.1760
 9414W        W52467   5.203  20.903   1.372 -0.1098  0.1867  0.2168
 9415W        W52468   2.261  12.118  24.178 -0.0025 -0.3296 -0.2569
 9416W        W52469  26.854   1.394  23.979 -0.2132 -0.1468 -0.0920
 9417W        W52470  32.440  19.146   3.868 -0.0760 -0.1010  0.1871
 9418W        W52471  32.048  31.939  18.514  0.1263 -0.0991  0.1233
 9419W        W52472   7.591  21.144  17.303  0.0171 -0.1087 -0.1297
 9420W        W52473  33.882  12.725  22.981 -0.0139 -0.4324 -0.1835
 9421W        W52474  34.218  16.870   3.224 -0.1201  0.1885 -0.2169
 9422W        W52475  29.395  23.824  18.576  0.3395  0.3005 -0.0404
 9423W        W52476  24.460   9.455  17.917 -0.2183 -0.2020  0.1559
 9424W        W52477  11.554   6.710  24.939 -0.2935 -0.3204 -0.1666
 9425W        W52478   2.608  33.653  17.315  0.0010 -0.1435 -0.2423
 9426W        W52479   5.830  33.533   3.232 -0.0583 -0.1209  0.1880
 9427W        W52480   0.308  26.745  20.106 -0.1244  0.2552  0.0838
 9428W        W52481  18.623  20.972  18.328 -0.1436 -0.1038  0.0707
 9429W        W52482  32.944  13.145  28.088 -0.0428  0.0147  0.0117
 9430W        W52483   5.059  17.386  22.635  0.1955 -0.0301 -0.3634
 9431W        W52484  28.720   2.738   7.579 -0.3394 -0.1006 -0.7492
 9432W        W52485  30.878  18.363  15.525 -0.2629 -0.0628 -0.3224
 9433W        W52486  18.956  13.115  20.674  0.2596 -0.0561 -0.2570
 9434W        W52487  34.631  34.102   6.174 -0.4361 -0.1547  0.3179
 9435W        W52488   6.106  10.005   1.152 -0.0448 -0.0898  0.2426
 9436W        W52489   6.160  21.753  13.573  0.3414  0.1640 -0.1568
 9437W        W52490  22.407  31.159  23.228 -0.0902 -0.3483 -0.0681
 9438W        W52491   3.196  18.048  16.983 -0.1614 -0.0606 -0.1704
 9439W        W52492  24.988   5.748  28.285  0.1049 -0.2053  0.0153
 9440W        W52493   9.109   7.298  16.145 -0.0253 -0.0679 -0.1935
 9441W        W52494  22.703  16.411  19.400  0.1388 -0.2403 -0.2077
 9442W        W52495  31.562   5.619  19.734  0.0465  0.2645 -0.1574
 9443W        W52496   0.670  22.407  24.483  0.0037  0.1091 -0.0878
 9444W        W52497  33.915  29.118  17.717  0.0266 -0.0864 -0.2259
 9445W        W52498   3.707  14.235  20.048  0.2476  0.0116  0.0880
 9446W        W52499   6.105  33.919  23.911  0.0101 -0.1283  0.4034
 9447W        W52500   4.845  18.105  15.943 -0.0205 -0.3245  0.1244
 9448W        W52501  27.446  12.635  18.362  0.0534 -0.3483 -0.0699
 9449W        W52502  26.723   9.931   7.199  0.0253  0.0848 -0.0403
 9450W        W52503  15.836   4.655  19.054 -0.0684  0.1083  0.3462
 9451W        W52504  10.048  18.398  21.587  0.0552 -0.2812 -0.3110
 9452W        W52505  21.903   3.572  24.404  0.2890  0.2855 -0.0423
 9453W        W52506   1.508  13.776   3.641  0.0617  0.0192  0.1069
 9454W        W52507  16.438  10.385  21.108  0.4263 -0.1188  0.0693
 9455W        W52508  31.013  22.348  19.143  0.3021 -0.1020 -0.0244
 9456W        W52509  26.435  20.604  25.319  0.1122  0.0809 -0.1047
 9457W        W52510   7.442  25.780  18.870 -0.1233  0.4246 -0.2800
 9458W        W52511  25.020   9.874  29.054 -0.2392 -0.0249 -0.0305
 9459W        W52512   9.325  10.900  27.395  0.0666 -0.1871 -0.1250
 9460W        W52513  12.610   5.389   3.162 -0.1056 -0.0599  0.3279
 9461W        W52514   1.036  14.962  20.848 -0.1373  0.1990 -0.2807
 9462W        W52515  31.625  14.042  25.392 -0.2035  0.1716  0.1780
 9463W        W52516   7.603   5.656   5.109  0.3486  0.0316  0.1783
 9464W        W52517   3.552   8.023  16.465 -0.1081 -0.0897  0.1497
 9465W        W52518   5.383   4.531  15.017 -0.3210 -0.0368 -0.3845
 9466W        W52519  13.779  14.243  20.953  0.1275 -0.0078 -0.0807
 9467W        W52520   8.277  17.267  24.518 -0.3157 -0.1004  0.2593
 9468W        W52521  15.881  23.648  26.724 -0.0234  0.1975  0.0615
 9469W        W52522   0.264  23.495  28.054 -0.0151 -0.1537  0.0663
 9470W        W52523  17.347  10.845  16.077  0.1638 -0.0512  0.0078
 9471W        W52524  23.773  30.135  18.403 -0.3973  0.0274 -0.0365
 9472W        W52525  32.604   9.605   4.624 -0.0349 -0.0365  0.0329
 9473W        W52526   8.344   0.012  17.180  0.1737  0.1963 -0.0942
 9474W        W52527   4.263  11.774   0.237 -0.0322  0.1466 -0.1320
 9475W        W52528  33.064   7.044  15.952 -0.0572  0.1775 -0.1547
 9476W        W52529   4.711  17.652  28.645  0.2407  0.1740  0.0248
 9477W        W52530  31.195  10.787  19.534 -0.1236  0.2510  0.2533
 9478W        W52531  11.085  30.648   3.126  0.0215 -0.0437  0.0279
 9479W        W52532   9.058   3.583  21.192  0.0057  0.0058 -0.1207
 9480W        W52533   1.793   8.701  13.739 -0.0182  0.0564  0.1220
 9481W        W52534   1.088  28.710  16.053 -0.2098  0.0071 -0.1578
 9482W        W52535   8.435   7.133  27.429  0.1758 -0.4027 -0.0608
 9483W        W52536  31.875  17.586  28.928  0.1098 -0.0305  0.1600
 9484W        W52537   3.350   3.654  14.327  0.0241  0.2318  0.1920
 9485W        W52538  30.711  22.297  15.623 -0.1179 -0.0399 -0.0584
 9486W        W52539   8.128  28.673  23.799  0.1266  0.0709 -0.1216
 9487W        W52540  34.377  15.957  13.763  0.2354  0.0495 -0.1762
 9488W        W52541   3.651  14.959  17.700  0.2908 -0.1862  0.1727
 9489W        W52542   2.009   1.261   5.851 -0.0817 -0.1591 -0.2388
 9490W        W52543  15.091  17.061  24.343  0.1414 -0.1660  0.0972
 9491W        W52544  10.531  17.347  15.702  0.1692 -0.1173  0.0015
 9492W        W52545   0.835  21.005  21.929 -0.1343  0.1108  0.2165
 9493W        W52546   5.531  21.724  23.834  0.2959 -0.2008  0.0050
 9494W        W52547   9.978  16.371  23.416 -0.0224 -0.2967 -0.3225
 9495W        W52548  27.756  11.620  15.753  0.3604  0.0888 -0.1988
 9496W        W52549   7.389   2.832  22.212  0.1138 -0.0249 -0.0740
 9497W        W52550  19.092   4.446   4.029 -0.0466  0.1764  0.1017
 9498W        W52551   2.519   7.725   5.351 -0.0929  0.0576  0.1871
 9499W        W52552   8.371  11.368  18.261 -0.3040  0.0285 -0.1004
 9500W        W52553  29.401  32.598  17.616 -0.2190  0.2936 -0.1003
 9501W        W52554   4.943   1.855  15.041 -0.1331 -0.3670  0.0481
 9502W        W52555  16.610   9.701  16.120  0.0965  0.0740 -0.0203
 9503W        W52556  33.312   2.097  22.295  0.2119 -0.2826  0.1730
 9504W        W52557   0.802  11.800  24.174 -0.2795  0.3303 -0.0565
 9505W        W52558  18.657   1.081  19.689 -0.2493  0.3225  0.0223
 9506W        W52559   7.681  33.740   0.015 -0.0386 -0.3686 -0.0556
 9507W        W52560   0.222  26.703  28.424  0.1484 -0.0885 -0.0215
 9508W        W52561  13.461  10.048  27.945  0.0730  0.3049 -0.2011
 9509W        W52562  15.782   9.340  21.300 -0.0343 -0.1281  0.1658
 9510W        W52563   2.760  23.340  24.668  0.1142  0.0958 -0.0299
 9511W        W52564  20.958  34.360  17.299  0.0461  0.1270 -0.0329
 9512W        W52565  30.833  10.024  21.274 -0.2700  0.0559 -0.1132
 9513W        W52566   9.532  15.025  16.354 -0.0443  0.1666 -0.1286
 9514W        W52567  14.363  17.203  28.672  0.2007 -0.0316 -0.2722
 9515W        W52568   3.974  28.990  21.558  0.2195 -0.1853 -0.1534
 9516W        W52569   7.297  23.013  16.255  0.3365 -0.3768  0.2792
 9517W        W52570   2.142  22.605  23.661 -0.1343 -0.0328  0.0961
 9518W        W52571   5.615  12.454  23.503 -0.2779 -0.2676  0.0335
 9519W        W52572   0.195  20.502  15.636 -0.3108  0.1694  0.0553
 9520W        W52573   5.086   9.508  18.308 -0.1500  0.0220  0.0427
 9521W        W52574  23.893  14.282  23.293 -0.0402 -0.3270  0.0630
 9522W        W52575  32.221  24.133  16.830 -0.0771  0.3761 -0.3636
 9523W        W52576  27.581  25.827  14.582  0.2144  0.0528 -0.1807
 9524W        W52577   5.915  20.109   1.062 -0.0661 -0.0403  0.0446
 9525W        W52578  29.292  15.711  17.342 -0.0462 -0.0488 -0.0088
 9526W        W52579  19.187  15.409  15.377 -0.1832 -0.1842  0.0882
 9527W        W52580  27.945  19.829  13.806 -0.1147 -0.0216  0.0450
 9528W        W52581  33.189  18.226  23.180  0.0451  0.1267 -0.0080
 9529W        W52582   1.453  17.068  16.200 -0.1659 -0.1283  0.0901
 9530W        W52583   0.729   7.386   5.155 -0.0363 -0.1051  0.2035
 9531W        W52584   5.765   9.087  26.021 -0.0832 -0.1008  0.1142
 9532W        W52585   1.452  15.212  18.167  0.0488 -0.1544  0.2791
 9533W        W52586   3.048  23.903  18.542  0.0944 -0.2076 -0.1142
 9534W        W52587   0.528  24.238   2.798 -0.0013 -0.2072 -0.1296
 9535W        W52588   6.166   7.358  24.290 -0.1279 -0.0364  0.0109
 9536W        W52589   2.876   1.874  14.055  0.0351 -0.0253  0.1175
 9537W        W52590  27.537  14.289  13.927 -0.1492 -0.2400 -0.0873
 9538W        W52591   1.927   8.395  15.232 -0.2549 -0.0617  0.2191
 9539W        W52592   3.460  25.166  18.038  0.0637 -0.0171 -0.3460
 9540W        W52593   5.633   8.500  15.991  0.1185  0.2282 -0.0327
 9541W        W52594   3.102  23.820  14.331  0.1445 -0.2072  0.0742
 9542W        W52595   1.913   5.114  21.207  0.1363 -0.2759 -0.2640
 9543W        W52596  32.034  17.469  24.543 -0.1852 -0.1399 -0.0690
 9544W        W52597   5.622  14.084  20.120  0.0878 -0.1318  0.0504
 9545W        W52598  32.741  25.115  18.255  0.2596 -0.0695 -0.0234
 9546W        W52599  17.553   4.155  26.867  0.0580 -0.3180 -0.0095
 9547W        W52600  15.185  23.630  19.597  0.1969 -0.1098  0.0164
 9548W        W52601  31.974  29.677  26.543 -0.1233  0.0249 -0.0559
 9549W        W52602  10.886   9.065  18.973 -0.1874  0.2868  0.1928
 9550W        W52603  29.891  10.972  19.020 -0.0188 -0.0716 -0.1190
 9551W        W52604  16.338  20.126  25.161  0.0495  0.1598  0.2231
 9552W        W52605  15.010   0.743  24.170  0.0526  0.0065  0.1822
 9553W        W52606   6.583  26.113  21.583 -0.0193  0.1716  0.1088
 9554W        W52607  16.265  24.072  18.866  0.1982  0.3895 -0.0012
 9555W        W52608  30.295  30.033  18.112  0.1031  0.1292 -0.3081
 9556W        W52609   2.992  27.704  15.600  0.1972  0.0593 -0.1068
 9557W        W52610  25.123  15.102  18.033  0.0757  0.0502 -0.1978
 9558W        W52611  12.494  31.239   1.205 -0.1733  0.3709 -0.0067
 9559W        W52612  12.709  22.766   9.798  0.2923 -0.0790  0.1193
 9560W        W52613   5.503  13.085   6.926 -0.3265 -0.1967  0.0428
 9561W        W52614   4.487  27.452  13.823 -0.0572  0.0626  0.3795
 9562W        W52615   0.581  27.526  14.288 -0.0336  0.0723 -0.1141
 9563W        W52616  15.009  10.316  25.112  0.3474 -0.2150  0.2015
 9564W        W52617  31.237   5.670  17.271  0.2281  0.0490 -0.0222
 9565W        W52618  32.234   5.648   1.688 -0.3366 -0.3394 -0.0524
 9566W        W52619   2.473  24.938  13.796 -0.0541 -0.0226 -0.1131
 9567W        W52620  17.170  32.025  26.289 -0.0165  0.0597  0.1097
 9568W        W52621  10.229   1.013   0.447  0.1423  0.0759  0.1398
 9569W        W52622  10.364   7.895  16.878 -0.1356  0.0340  0.2152
 9570W        W52623  33.468   1.322  19.735  0.3294  0.0198 -0.1005
 9571W        W52624  12.621  11.524  15.661  0.1127  0.0119 -0.3761
 9572W        W52625   4.899   8.983  28.981  0.1146 -0.0794 -0.0829
 9573W        W52626  11.283   4.436  24.864  0.0173  0.2758  0.2835
 9574W        W52627  34.036  21.374   3.536 -0.0702  0.1369 -0.0157
 9575W        W52628   3.746  12.310   1.447  0.2263  0.0959  0.3747
 9576W        W52629   9.831  19.834  21.584  0.0324  0.1218 -0.1075
 9577W        W52630   2.578  18.626  24.169 -0.0334  0.0111 -0.1339
 9578W        W52631  33.344  23.689  20.760  0.0839 -0.3239 -0.0768
 9579W        W52632   0.704  27.976  14.050  0.2224  0.3322 -0.1145
 9580W        W52633  33.264  29.935  18.400 -0.3724  0.0750 -0.1561
 9581W        W52634   0.291  19.668  24.228 -0.4662 -0.0121 -0.1119
 9582W        W52635   2.278  19.001  27.318  0.1210 -0.1479 -0.3062
 9583W        W52636  17.338   0.752  18.575 -0.0382 -0.1880  0.2602
 9584W        W52637   1.631  19.825  27.766  0.2809 -0.1239 -0.0181
 9585W        W52638  22.532  11.636  22.661  0.0874  0.0357 -0.1160
 9586W        W52639  12.635   4.631  26.315 -0.0258 -0.0140 -0.0569
 9587W        W52640  10.657  31.942  16.341  0.0538 -0.1315  0.2179
 9588W        W52641   0.148  20.263  24.236 -0.0975 -0.0788  0.0680
 9589W        W52642   2.777  12.974  25.019 -0.2499 -0.0666 -0.0201
 9590W        W52643   2.935  17.555  23.438  0.3666  0.0854  0.2482
 9591W        W52644  10.813  15.318  20.579  0.0466  0.1041 -0.1334
 9592W        W52645   8.481  18.689  19.515 -0.0218 -0.2639  0.1252
 9593W        W52646  28.029   6.980   3.178 -0.2965 -0.0968  0.1819
 9594W        W52647  10.731  14.561   0.468 -0.2839  0.4256  0.1189
 9595W        W52648  14.481   9.289   3.497  0.2484 -0.1571 -0.1716
 9596W        W52649  24.804   9.807  17.716 -0.0628 -0.0815 -0.3101
 9597W        W52650  25.684  11.632  17.284  0.3810 -0.3283 -0.5431
 9598W        W52651   1.092  18.980  20.563 -0.0454  0.1314  0.1213
 9599W        W52652  19.681  21.131  22.882  0.3358  0.0009  0.0865
 9600W        W52653  12.800   5.564  25.510 -0.0719 -0.1726  0.0095
 9601W        W52654   0.973  17.313   8.217 -0.1674  0.2590  0.1951
 9602W        W52655   7.199  23.686  15.684 -0.3394  0.0461 -0.0996
 9603W        W52656  23.518  28.536  28.386 -0.0928  0.1686  0.2437
 9604W        W52657  31.525  21.446  21.651 -0.1510 -0.1993  0.1876
 9605W        W52658  32.307  30.811  18.773 -0.3335  0.2796  0.0768
 9606W        W52659  23.085   3.911  28.387  0.4341 -0.1050  0.2709
 9607W        W52660  26.766  19.030  15.390  0.3043  0.0873  0.1200
 9608W        W52661  22.778  15.944  16.365  0.1249  0.1806  0.0868
 9609W        W52662  12.147  34.363   2.023 -0.1537  0.4365 -0.1236
 9610W        W52663   4.786  24.099  15.933  0.0780 -0.1532 -0.3076
 9611W        W52664  33.900   9.740  16.990  0.2008  0.0877 -0.1918
 9612W        W52665  23.577   5.108  26.164 -0.0418  0.0614  0.0280
 9613W        W52666   7.862   2.313   8.412 -0.3766  0.2185 -0.1709
 9614W        W52667  22.680   9.654  20.704  0.0727  0.1198  0.1576
 9615W        W52668   0.273   4.003  15.183 -0.0477 -0.2773 -0.1516
 9616W        W52669  16.157  33.234  21.448  0.1003 -0.0028 -0.3220
 9617W        W52670  29.593   9.742  15.940 -0.0104  0.2554  0.1518
 9618W        W52671  32.603  26.176  20.600 -0.2121  0.0960 -0.1093
 9619W        W52672  34.382  12.839  22.296 -0.0288  0.0944 -0.1008
 9620W        W52673   8.192  13.245  29.083 -0.3466 -0.1012  0.0817
 9621W        W52674   6.787  25.789   0.360  0.1767 -0.0883  0.1940
 9622W        W52675  10.905   2.379  24.669  0.0188  0.0169 -0.0167
 9623W        W52676  22.611  22.823  15.074  0.0475 -0.0935  0.3129
 9624W        W52677  34.543  16.478  14.134  0.0757 -0.0227  0.0445
 9625W        W52678  31.045  15.030  24.415 -0.0189  0.0394  0.2695
 9626W        W52679   3.392  12.462   3.689  0.3277 -0.1308 -0.0285
 9627W        W52680  21.681  24.594  24.940  0.0447  0.1056  0.0383
 9628W        W52681  14.599  18.865  15.396 -0.2111  0.3121  0.0498
 9629W        W52682   8.770   5.201   0.718 -0.2891 -0.3809  0.0999
 9630W        W52683   5.472  27.555  18.377 -0.3632 -0.0361 -0.6254
 9631W        W52684  25.159   5.124  17.081  0.0271  0.0761  0.1535
 9632W        W52685  26.671  29.497  21.063  0.2091 -0.0831 -0.2120
 9633W        W52686  24.200  28.085  20.804 -0.1545  0.0115  0.0770
 9634W        W52687  33.493   6.719   6.054  0.3620 -0.0197 -0.1473
 9635W        W52688   4.221  13.202  17.926 -0.2655 -0.0496 -0.1263
 9636W        W52689  34.391   4.459   6.153 -0.3946  0.1241 -0.2464
 9637W        W52690  12.466  11.679  15.201  0.3542  0.2353 -0.1491
 9638W        W52691  12.162   2.689  15.414 -0.1708  0.1976  0.3226
 9639W        W52692  31.223   9.206  19.927 -0.1086 -0.0471  0.0116
 9640W        W52693  10.491   3.296  21.218 -0.1930 -0.0760 -0.1613
 9641W        W52694   6.853  14.291  20.538  0.0851  0.2252 -0.0035
 9642W        W52695  32.239  33.495   1.004  0.0432 -0.0449  0.0040
 9643W        W52696  28.423  26.588  24.908 -0.1359  0.0634 -0.0771
 9644W        W52697  34.506  26.963  20.649 -0.1648 -0.0523  0.0678
 9645W        W52698   8.554  15.595  15.004 -0.2637 -0.3356 -0.0098
 9646W        W52699   0.849  14.337  26.444  0.2733  0.4211  0.2343
 9647W        W52700   2.421  16.026  24.625 -0.0189 -0.0498 -0.0367
 9648W        W52701  27.755  26.055  19.342  0.2416  0.1324  0.1963
 9649W        W52702  32.740   8.977  25.506  0.1804 -0.1778 -0.2733
 9650W        W52703  32.246  26.749  27.474 -0.2949  0.1429  0.0185
 9651W        W52704  13.868   1.288   1.726  0.0452  0.1339 -0.2577
 9652W        W52705  34.460  24.842   8.883  0.1284 -0.0086  0.0335
 9653W        W52706   2.202  18.518  15.724 -0.2317 -0.0023 -0.0337
 9654W        W52707  10.056   5.756  25.720  0.0870 -0.1386 -0.1053
 9655W        W52708  33.868  16.526  28.968  0.2166 -0.2821  0.1534
 9656W        W52709   0.556  30.698   5.640 -0.0583 -0.0513  0.1389
 9657W        W52710  10.664  17.431  22.121  0.0577 -0.0778 -0.2639
 9658W        W52711   7.545  25.902  15.568  0.3201  0.2057  0.0143
 9659W        W52712   0.805   9.592  16.082  0.0498  0.0236 -0.2000
 9660W        W52713   4.757  11.616  14.143 -0.1641 -0.3392  0.0357
 9661W        W52714   3.316  25.550  17.009  0.1215 -0.0082  0.0968
 9662W        W52715   7.499  28.041  13.420 -0.1282 -0.0248 -0.0026
 9663W        W52716   8.901  13.743  22.446 -0.0963  0.2270  0.1373
 9664W        W52717   8.514  11.374   2.246 -0.0784  0.1151  0.0355
 9665W        W52718   1.651  18.705  16.506 -0.0709 -0.0396 -0.0326
 9666W        W52719  26.892  28.416  26.570 -0.1501  0.2248 -0.0635
 9667W        W52720  31.443   8.526  22.370  0.0326  0.2164 -0.0841
 9668W        W52721   5.661  21.106  20.409 -0.0007 -0.2766  0.0414
 9669W        W52722  29.066   7.298  17.660  0.0846 -0.1824 -0.0008
 9670W        W52723  31.118  18.318   0.854  0.1015 -0.1002  0.2762
 9671W        W52724  13.429  25.345  24.307 -0.0476 -0.2338 -0.0547
 9672W        W52725   2.949  10.762  15.682 -0.1897 -0.1817 -0.0498
 9673W        W52726  30.180   9.343   5.902 -0.1844  0.3205 -0.0328
 9674W        W52727  23.699  18.711  16.334 -0.2037  0.0977 -0.1396
 9675W        W52728  10.163   2.307  26.145  0.1099 -0.2294  0.2920
 9676W        W52729   5.687  13.983  16.964  0.1266 -0.2566  0.1410
 9677W        W52730   5.542  16.731  22.190  0.0485  0.0387  0.0472
 9678W        W52731  12.900  23.252  25.369 -0.1903  0.0623  0.0021
 9679W        W52732  30.321  11.749  20.221  0.0428 -0.0530  0.2079
 9680W        W52733   6.702  11.982  20.017 -0.0825 -0.1888 -0.2092
 9681W        W52734  27.312  24.137  16.825  0.0795  0.0747  0.0706
 9682W        W52735  33.036   5.735  17.457 -0.0996 -0.2025 -0.0046
 9683W        W52736   2.802   4.052  24.105  0.2668  0.3285  0.1605
 9684W        W52737  27.095  11.382  10.102 -0.0923  0.1376 -0.0460
 9685W        W52738  30.392  19.182  20.961  0.2037 -0.3360 -0.0939
 9686W        W52739  33.099  20.405  16.158  0.1406  0.0677  0.1365
 9687W        W52740   6.592  19.108  15.054 -0.0037  0.2612  0.0089
 9688W        W52741  23.164  15.854   5.335  0.1717 -0.2480 -0.1177
 9689W        W52742  11.289   0.567  25.121  0.1185  0.3346  0.0840
 9690W        W52743   8.525  13.109  16.628 -0.3458 -0.1612 -0.3289
 9691W        W52744   9.521  32.765  14.636 -0.2008  0.1581 -0.0068
 9692W        W52745  25.301  23.366  21.494 -0.0248  0.2153 -0.1239
 9693W        W52746   6.892   2.237   1.509 -0.3875 -0.1223  0.1210
 9694W        W52747   8.587  31.387  16.391 -0.2673 -0.1605  0.2894
 9695W        W52748   4.757  19.646  27.292 -0.1800  0.3547  0.1508
 9696W        W52749   8.149  28.627  18.698  0.0965  0.0713 -0.0012
 9697W        W52750  33.663  13.531  17.811  0.1132 -0.0299  0.2117
 9698W        W52751   5.886  18.627  14.681  0.2596 -0.0399  0.1575
 9699W        W52752   8.100  27.184  17.095 -0.0349 -0.0188 -0.2273
 9700W        W52753  11.504  28.827   3.226  0.1911 -0.0278  0.2109
 9701W        W52754   3.327  17.719  19.182 -0.0497 -0.0087 -0.1004
 9702W        W52755  17.248   5.724  17.634 -0.1877  0.3020  0.1340
 9703W        W52756   8.879   2.450  17.341  0.0847 -0.1697  0.0368
 9704W        W52757   6.076   8.217  17.368  0.1443  0.0786 -0.1472
 9705W        W52758   7.495  30.703  21.092 -0.1706  0.0550  0.2280
 9706W        W52759   7.431  21.544   7.080 -0.1048 -0.0703  0.1108
 9707W        W52760  14.014   4.635  24.794 -0.0934 -0.0091  0.0768
 9708W        W52761  19.909   9.636   4.909 -0.0424  0.0830 -0.2599
 9709W        W52762  14.519  33.299  16.297  0.0884  0.1074  0.1216
 9710W        W52763   6.035  13.857  26.774  0.0788  0.0627  0.0710
 9711W        W52764   1.376  25.586  13.662 -0.1939  0.0329 -0.0659
 9712W        W52765   0.195  10.394  16.053 -0.1182  0.2355 -0.1200
 9713W        W52766   5.645  13.963  17.474  0.1621  0.1368 -0.0010
 9714W        W52767  30.628  21.159  25.772  0.0730  0.0075 -0.0946
 9715W        W52768  29.237  27.212  20.424 -0.2958 -0.1606  0.1019
 9716W        W52769  22.643  20.502  28.046  0.0169 -0.0380 -0.1540
 9717W        W52770   0.217  15.003  26.539 -0.0746  0.3006  0.1023
 9718W        W52771  11.398  16.976  21.206  0.4093 -0.0766 -0.0004
 9719W        W52772   2.110  13.225  22.376  0.0786 -0.4388  0.0162
 9720W        W52773  13.743  14.231  26.013  0.0415  0.0445  0.2875
 9721W        W52774   3.610  27.207  23.408  0.0926 -0.1755 -0.0448
 9722W        W52775   4.269  13.325   6.675  0.3070  0.2339  0.3729
 9723W        W52776   3.047  20.164   0.084 -0.1583  0.0561  0.0379
 9724W        W52777  11.306  28.511  27.195  0.0427 -0.2515 -0.0272
 9725W        W52778  10.634   2.505  27.403  0.7047 -0.1568 -0.1241
 9726W        W52779   3.731  17.084  17.404  0.3650 -0.3246 -0.3530
 9727W        W52780   7.659  15.155  21.328 -0.1765 -0.3487  0.2111
 9728W        W52781  32.718  34.037  18.414 -0.0422  0.0764  0.1083
 9729W        W52782  19.530  21.798  15.271  0.3206 -0.2806  0.0544
 9730W        W52783  15.893   9.875  27.274  0.1402  0.0333  0.1491
 9731W        W52784   9.185   8.593  19.111  0.0715 -0.1583  0.3634
 9732W        W52785  12.515   9.065  21.583  0.3692 -0.0439 -0.2774
 9733W        W52786  12.780   9.355  21.217  0.0032  0.0428  0.1470
 9734W        W52787   5.358   0.281   3.446 -0.1955  0.1955 -0.3003
 9735W        W52788  28.969  11.501  21.853 -0.2107  0.0354  0.1203
 9736W        W52789  33.408  31.160  23.049 -0.2826 -0.2546 -0.2088
 9737W        W52790  10.124  18.537  16.849 -0.0230  0.1716  0.1037
 9738W        W52791  33.321   3.822  16.757 -0.1544  0.2976 -0.0131
 9739W        W52792  25.790  31.992  19.015 -0.1261  0.3015  0.1700
 9740W        W52793  27.630  13.518  17.915 -0.1547  0.1035 -0.2593
 9741W        W52794  33.969   2.495  20.455 -0.6305 -0.1705 -0.0643
 9742W        W52795   5.673  12.209  24.045  0.0417 -0.0266 -0.2208
 9743W        W52796  29.113  22.202   2.572  0.0874 -0.0326  0.1430
 9744W        W52797  31.262  17.069  22.348  0.3026 -0.1597 -0.1559
 9745W        W52798   7.817  11.092  28.829 -0.2511 -0.0938 -0.5414
 9746W        W52799  10.688  14.107   0.311 -0.2677 -0.1947  0.0950
 9747W        W52800   1.255  22.982   3.620  0.1469  0.0813 -0.2345
 9748W        W52801  31.177  18.873  24.686 -0.1674 -0.1589 -0.2737
 9749W        W52802   7.298  12.778  16.652 -0.0952 -0.2594 -0.3795
 9750W        W52803  34.468   8.459   0.440  0.0021 -0.2835  0.1239
 9751W        W52804   5.336   1.406   2.604 -0.0136 -0.3477  0.3530
 9752W        W52805  28.944  13.011  20.438  0.2563 -0.1296  0.2322
 9753W        W52806  34.628  10.077   4.908 -0.1933  0.1828  0.0023
 9754W        W52807   7.354  17.530   2.526 -0.2962  0.0682  0.0086
 9755W        W52808  29.881   6.380  15.083  0.0108  0.3859 -0.1056
 9756W        W52809  22.358  15.979  14.013  0.0556 -0.4332 -0.2439
 9757W        W52810   5.721  18.368  13.601 -0.2810 -0.1595 -0.1878
 9758W        W52811  11.278   5.202  24.292 -0.0461  0.1543  0.3007
 9759W        W52812  29.333  30.484  18.968  0.0267  0.2824  0.2444
 9760W        W52813  26.226  28.132  16.521  0.1104  0.1162  0.0724
 9761W        W52814   7.023  26.439  19.286 -0.0188 -0.1711  0.0203
 9762W        W52815  15.983  27.953  26.296 -0.0295 -0.0672  0.2282
 9763W        W52816  30.941  10.664  26.015  0.2620  0.0133  0.2584
 9764W        W52817  13.541  30.022  16.652  0.0757 -0.1725  0.5704
 9765W        W52818   1.555  25.607  28.471  0.1070  0.0030  0.0288
 9766W        W52819  30.177  25.759   7.527 -0.0448  0.0060  0.2082
 9767W        W52820   9.031  23.791   5.575  0.1792  0.2215 -0.2509
 9768W        W52821   6.182  16.091  16.217 -0.0517  0.1566 -0.2596
 9769W        W52822   3.727  17.965   3.287  0.4518 -0.3287  0.0130
 9770W        W52823  27.604  21.344  16.759 -0.1799 -0.0821 -0.0227
 9771W        W52824   1.577  22.482  19.973  0.2930 -0.1379 -0.2826
 9772W        W52825  14.637  19.228   5.468 -0.1580  0.1596 -0.0008
 9773W        W52826  10.005   2.827  26.749 -0.2067  0.1150 -0.0193
 9774W        W52827  13.799  24.190  17.414  0.2274  0.3698 -0.2209
 9775W        W52828  33.401  23.310  23.573 -0.2219 -0.1200 -0.0014
 9776W        W52829   0.958  20.185  13.108  0.1659  0.2188  0.1015
 9777W        W52830  18.481  12.612  25.091  0.1886  0.0268 -0.0878
 9778W        W52831  17.186  17.306  12.242 -0.1104  0.0389  0.1823
 9779W        W52832   2.416  16.306   0.957  0.1291  0.1258  0.0878
 9780W        W52833   7.663  28.492  15.196  0.1496 -0.3044 -0.2588
 9781W        W52834  12.150  11.049  17.831 -0.0073 -0.0498  0.0553
 9782W        W52835  34.444  19.347  17.333  0.4006 -0.0753 -0.0081
 9783W        W52836  32.766   8.247  27.237  0.1500 -0.0030 -0.1136
 9784W        W52837  16.568  21.162  15.389  0.2524 -0.1730  0.0755
 9785W        W52838  33.294  12.740  15.803 -0.1721  0.0294  0.3473
 9786W        W52839  32.001   7.799  22.860 -0.2170  0.2807  0.3476
 9787W        W52840  28.036  18.837  21.233  0.1772  0.3042  0.0011
 9788W        W52841   3.436  18.155  26.988 -0.1165 -0.3167  0.1403
 9789W        W52842  24.335  14.727  22.232  0.0523  0.0034  0.4794
 9790W        W52843   2.636  21.571  24.844  0.1808  0.2467  0.0712
 9791W        W52844  30.107  34.440  16.685  0.3694  0.0921 -0.1834
 9792W        W52845  32.566  28.713  28.733  0.0169  0.1085 -0.0429
 9793W        W52846   2.237  21.913  19.795 -0.3043  0.3737  0.1192
 9794W        W52847  32.152  27.598  16.117 -0.0276 -0.0711 -0.0817
 9795W        W52848  25.711  22.502   0.176 -0.1482 -0.0590 -0.1378
 9796W        W52849   6.726   2.579  15.938  0.1740  0.1666 -0.1149
 9797W        W52850  32.177  17.193   1.152  0.2535  0.0803  0.1171
 9798W        W52851   7.270   3.804  23.791  0.0191 -0.1681 -0.1031
 9799W        W52852  11.553  27.317  19.624  0.2541 -0.0350  0.0754
 9800W        W52853  13.270  16.181  20.884  0.0084  0.2721  0.1373
 9801W        W52854  32.179  13.552  17.542  0.2522  0.0225 -0.0196
 9802W        W52855  30.847   6.733   3.807  0.0584  0.0503 -0.1019
 9803W        W52856  29.081  30.695  22.734 -0.1858  0.2150 -0.0522
 9804W        W52857  11.626  24.681   0.360  0.1523 -0.1864 -0.0833
 9805W        W52858   5.384  10.115  25.715 -0.3375 -0.0576  0.0790
 9806W        W52859  34.218   8.293   0.034  0.4310 -0.2837  0.0783
 9807W        W52860   4.779  23.228  17.123  0.0101 -0.2495  0.1335
 9808W        W52861  10.826  27.012  14.995  0.0659 -0.2239  0.0212
 9809W        W52862   2.207   0.135  21.301 -0.0269  0.1028  0.0046
 9810W        W52863  21.365   2.887   3.989 -0.0127  0.2684  0.1070
 9811W        W52864  26.659  15.975   6.819 -0.1583  0.2458  0.0152
 9812W        W52865   7.182  15.960   8.956  0.1715  0.4283  0.2317
 9813W        W52866   7.461  16.923  20.958 -0.0670  0.2808  0.0017
 9814W        W52867   7.638  30.081  24.381  0.1212  0.0789  0.1318
 9815W        W52868  12.379   0.209  17.724  0.0842  0.0297  0.1444
 9816W        W52869   3.844  26.929   5.551 -0.0250 -0.0890  0.4603
 9817W        W52870  15.949   0.906  17.137  0.0489  0.0760  0.0038
 9818W        W52871   2.111  24.304  26.184  0.0285  0.1150  0.1105
 9819W        W52872   9.976   9.973  15.698 -0.3098 -0.1221  0.0636
 9820W        W52873  11.528   4.758  25.561 -0.2974  0.1495 -0.1067
 9821W        W52874   2.676  19.017  24.903 -0.0759 -0.0152 -0.0438
 9822W        W52875  29.970   7.902  18.436  0.0369 -0.0519 -0.2072
 9823W        W52876  10.117  24.242   2.884 -0.1826  0.2776  0.2501
 9824W        W52877   9.773  12.385   2.931  0.2176 -0.1805  0.1285
 9825W        W52878  31.782  13.391   5.247  0.1217  0.1853 -0.1941
 9826W        W52879  30.341   6.750  20.383 -0.0047  0.1173 -0.1234
 9827W        W52880  19.494  24.596   7.939  0.0495 -0.2197  0.2219
 9828W        W52881   1.788  17.967   7.410  0.1954 -0.1801 -0.2020
 9829W        W52882  30.692   9.177  22.881  0.3489  0.1103  0.0699
 9830W        W52883  14.476  18.493  15.763  0.2344  0.0148  0.1589
 9831W        W52884   2.282   5.515  28.722  0.0770  0.1205 -0.0194
 9832W        W52885  14.688  31.021  26.552  0.2194 -0.2878  0.0802
 9833W        W52886  15.065  13.030  14.541 -0.1462 -0.2111  0.2804
 9834W        W52887   0.053  25.468   5.789 -0.0916  0.0894 -0.0078
 9835W        W52888   8.244   4.142  19.591  0.0395 -0.1207 -0.1542
 9836W        W52889  22.847  27.549  21.756  0.1387 -0.0157  0.1934
 9837W        W52890  17.857   3.644  19.091  0.0487  0.2011  0.3348
 9838W        W52891   8.100  13.253  19.724 -0.3745 -0.1628 -0.0545
 9839W        W52892   3.672  29.220  13.270  0.1101 -0.2161 -0.2341
 9840W        W52893   2.738  14.437  20.328  0.3833  0.1655 -0.0734
 9841W        W52894  26.322  33.559  17.738 -0.0361 -0.0309 -0.0291
 9842W        W52895   8.921  11.052   2.047  0.1031  0.0221 -0.2245
 9843W        W52896   2.497  10.792  18.246 -0.0911  0.0051  0.0898
 9844W        W52897   4.105  31.767  21.510  0.1864  0.0775  0.1716
 9845W        W52898  30.839  16.910   8.861 -0.2786  0.1036  0.0089
 9846W        W52899   3.314  11.936  25.114  0.1319  0.3030 -0.0687
 9847W        W52900  17.282  22.360  23.267  0.1470  0.2718  0.1035
 9848W        W52901  24.928   7.298   1.087  0.2451  0.1183  0.2897
 9849W        W52902  30.900  23.280   6.615  0.1243  0.1631  0.1743
 9850W        W52903  21.744  20.985  22.949 -0.1807 -0.3028 -0.0468
 9851W        W52904  20.069  15.739  24.580  0.0060  0.0013  0.3850
 9852W        W52905  33.393  23.939  25.630  0.0443  0.2404  0.0734
 9853W        W52906   2.118  17.651  24.587 -0.1884 -0.3126  0.3250
 9854W        W52907  32.057  22.992  18.311  0.0323 -0.0596  0.1191
 9855W        W52908   1.692  21.402  25.560  0.0210  0.1803 -0.2483
 9856W        W52909  15.922  18.356  14.684  0.2539  0.0610 -0.0729
 9857W        W52910   8.811  28.555  20.878  0.0826  0.0544 -0.0661
 9858W        W52911  24.573  24.462   4.290  0.1974 -0.2112 -0.0028
 9859W        W52912  26.522  13.990  24.316 -0.0176 -0.3789 -0.1952
 9860W        W52913  22.328   8.054  19.305 -0.1343 -0.2952  0.2575
 9861W        W52914   6.489  12.387  21.532  0.0606  0.0492  0.0502
 9862W        W52915   6.694  33.824   7.173 -0.0260 -0.2083 -0.0934
 9863W        W52916  27.545  14.281  26.249  0.1640  0.1142 -0.3044
 9864W        W52917  10.509   6.422  23.503  0.2172 -0.3058 -0.0618
 9865W        W52918   7.488  22.210  21.825 -0.1873  0.1182  0.1981
 9866W        W52919   1.854  32.163  17.737  0.2513  0.0902 -0.0082
 9867W        W52920  28.074  13.383   1.576  0.1042 -0.1664 -0.1545
 9868W        W52921   4.732   9.751  20.990  0.3421 -0.0627  0.0650
 9869W        W52922   7.338  24.793  25.576  0.0963 -0.1266 -0.2553
 9870W        W52923   3.854  11.727  29.138  0.0314  0.4732  0.1992
 9871W        W52924  12.086   4.943  24.958  0.2047  0.1226 -0.1175
 9872W        W52925  22.180  18.108   0.110 -0.4129 -0.0333  0.0132
 9873W        W52926   2.533  23.202  22.282  0.0029 -0.1865 -0.3858
 9874W        W52927   2.592  10.967   1.198  0.1155 -0.0754  0.1311
 9875W        W52928  10.395  11.904  16.526 -0.0512 -0.0756  0.0443
 9876W        W52929   8.162   7.033  22.953  0.1530 -0.1583 -0.2744
 9877W        W52930  33.023   2.369   1.668  0.1449 -0.0640 -0.0009
 9878W        W52931   6.350   2.505  28.446 -0.0134  0.0511  0.2783
 9879W        W52932   1.419  33.342  27.166  0.1796 -0.2690 -0.1929
 9880W        W52933   2.838   4.245  29.056 -0.2422  0.3946  0.0995
 9881W        W52934  24.752  25.203  18.303 -0.2146  0.2761 -0.3572
 9882W        W52935   8.987  34.273   4.932  0.0897  0.1873  0.2462
 9883W        W52936  29.324  18.057   8.568  0.3188  0.1145 -0.1690
 9884W        W52937   4.479  23.172  27.108  0.1801  0.0067  0.0388
 9885W        W52938  16.004  13.520  24.048  0.1405 -0.0620  0.0367
 9886W        W52939  31.685   4.982  19.119  0.1244 -0.0200 -0.0790
 9887W        W52940  27.943  27.854  25.401 -0.1256 -0.3310 -0.2774
 9888W        W52941   9.154  18.492  13.541  0.2107 -0.0516  0.0283
 9889W        W52942   2.909  23.847  19.044  0.3142 -0.0288 -0.2084
 9890W        W52943   4.397   6.651   5.124  0.1335  0.0093 -0.0624
 9891W        W52944   8.230  20.531   5.091 -0.3628  0.0819 -0.4199
 9892W        W52945  29.093   0.382  20.579 -0.0459  0.1622 -0.0187
 9893W        W52946  30.704  22.338   9.179 -0.1152 -0.0398 -0.1268
 9894W        W52947   7.956  11.995  15.434 -0.0987 -0.1034 -0.1392
 9895W        W52948   1.630   3.710  27.489  0.1053  0.0290 -0.1406
 9896W        W52949  26.351  24.425   8.473 -0.0183 -0.0344  0.0103
 9897W        W52950   8.381  25.236  28.325  0.2356 -0.0881 -0.3203
 9898W        W52951  28.757  28.270  24.122  0.0611 -0.2178  0.1088
 9899W        W52952  32.123  18.328  18.246  0.1663  0.1113 -0.3929
 9900W        W52953   0.015  21.845  19.575  0.0384  0.4172 -0.2124
 9901W        W52954   8.454  14.757  15.728  0.3935 -0.1612  0.1995
 9902W        W52955  18.199  32.321   5.461  0.2042 -0.0176 -0.0500
 9903W        W52956  34.603  26.110  18.354 -0.0983 -0.0741  0.1624
 9904W        W52957  14.124   3.204  16.516 -0.1651  0.3651 -0.1205
 9905W        W52958  19.050  30.455   3.273 -0.0541  0.2433 -0.0144
 9906W        W52959   8.652  14.454   6.987 -0.1189 -0.1198 -0.0430
 9907W        W52960  30.665   2.073  26.412 -0.4877  0.1304  0.1492
 9908W        W52961  14.181   0.745  16.896 -0.1305 -0.0319  0.0032
 9909W        W52962  31.543  12.906  27.977 -0.2439 -0.0369  0.1044
 9910W        W52963  29.883  22.627  24.888 -0.1828 -0.1610  0.0820
 9911W        W52964  33.681  12.718   6.791  0.1300  0.2284  0.0176
 9912W        W52965  31.744   0.159  26.979 -0.1390 -0.2033  0.2354
 9913W        W52966  16.143  18.481  23.310  0.4754  0.1474 -0.2083
 9914W        W52967  27.910   7.744   8.067  0.2165 -0.0410  0.0624
 9915W        W52968  23.192   6.487  16.192  0.2506 -0.4588  0.2553
 9916W        W52969   3.323  16.219  21.906  0.0534  0.3969 -0.0162
 9917W        W52970  31.810  16.678  29.149 -0.1988  0.0010  0.0842
 9918W        W52971  25.084  13.459  18.412 -0.3318 -0.0628 -0.1617
 9919W        W52972  28.324   4.598   9.869 -0.1535  0.0764 -0.1324
 9920W        W52973  33.878  10.575   4.615 -0.5281 -0.0171  0.2873
 9921W        W52974  34.544  28.211   5.632 -0.2032 -0.0399 -0.2678
 9922W        W52975  32.065  25.467  27.261 -0.3549 -0.2694  0.0659
 9923W        W52976  33.120   0.576   8.459  0.0014 -0.1016 -0.0483
 9924W        W52977  13.913  19.584   4.259  0.1176  0.0836 -0.1442
 9925W        W52978  26.502   5.321  18.354  0.0371 -0.1635 -0.0453
 9926W        W52979  31.933  14.246  20.069  0.0445  0.2940  0.0057
 9927W        W52980  20.637  11.537  22.399 -0.3104 -0.2472  0.1731
 9928W        W52981   3.372   6.377  25.080  0.0574 -0.2510 -0.2180
 9929W        W52982  32.402   8.665  19.062 -0.0507  0.0994 -0.0623
 9930W        W52983   5.916  15.190  16.976 -0.1432  0.1362  0.3573
 9931W        W52984  29.464   8.265   3.816  0.0940 -0.2766  0.3952
 9932W        W52985  31.229  13.749  20.284  0.0384 -0.4079  0.3809
 9933W        W52986  29.698  11.249  20.573  0.0871 -0.0274  0.0422
 9934W        W52987  23.979  27.764   8.636 -0.0062 -0.1783 -0.1412
 9935W        W52988   7.609  18.342  21.056  0.0232  0.3345 -0.1765
 9936W        W52989  25.758   0.347  19.345 -0.3485 -0.1245 -0.3490
 9937W        W52990  13.307   9.831  16.128  0.0402  0.0870  0.0727
 9938W        W52991  14.335  25.006   1.494  0.1190 -0.0994 -0.0086
 9939W        W52992   7.950  20.625  23.755  0.4220  0.1745 -0.0671
 9940W        W52993   3.531  20.100   8.001 -0.1368 -0.0604 -0.3442
 9941W        W52994   4.388  28.223   7.578 -0.1492 -0.2365  0.1617
 9942W        W52995  16.910  33.154  22.184  0.0202 -0.1624 -0.1956
 9943W        W52996  24.222  18.455  19.929 -0.0059 -0.0939 -0.1343
 9944W        W52997  26.536  14.609  19.126  0.0566 -0.1755 -0.0747
 9945W        W52998   6.398   5.193  20.644 -0.4542  0.0953 -0.0056
 9946W        W52999  28.607   7.407  19.067  0.0766  0.1552  0.0211
 9947W        W53000  24.931  13.567   5.444 -0.2677  0.1748 -0.2661
 9948W        W53001   4.652  26.863  15.826  0.1606  0.0473 -0.2073
 9949W        W53002  31.870   0.387  15.661 -0.0373 -0.3436  0.0386
 9950W        W53003  31.608   2.530   2.465  0.3299  0.2102 -0.2396
 9951W        W53004   8.997  10.587  16.714 -0.0930 -0.0127 -0.2156
 9952W        W53005  14.300  29.254   8.680 -0.1599 -0.3232 -0.1030
 9953W        W53006   5.417  12.620   8.560 -0.1436 -0.0752  0.0846
 9954W        W53007  25.043   5.974  22.454 -0.1331 -0.1280  0.0445
 9955W        W53008   1.552  17.281  22.927  0.2279  0.0465 -0.4434
 9956W        W53009   4.031  10.481  15.673 -0.0705  0.2929  0.2570
 9957W        W53010  21.965  30.373  14.328 -0.0044  0.1356  0.0501
 9958W        W53011   3.131   8.965  10.251 -0.2106  0.0088  0.1272
 9959W        W53012  26.366  17.964  25.721  0.2740  0.0009  0.2269
 9960W        W53013  30.208  30.498  16.945 -0.0950  0.0068  0.4108
 9961W        W53014   4.149   5.674  17.508 -0.2269  0.1821 -0.1221
 9962W        W53015  29.379  10.650   9.912 -0.1796  0.1148  0.1603
 9963W        W53016  27.516  26.255  19.992  0.0037 -0.3174 -0.1397
 9964W        W53017  30.471  19.817  21.541  0.0176 -0.0280 -0.1512
 9965W        W53018   3.513  12.443  27.760  0.0693 -0.2230 -0.2971
 9966W        W53019   5.191  33.213  20.506  0.3583  0.0817  0.2351
 9967W        W53020  24.315  19.623  18.288 -0.0707  0.1749 -0.1386
 9968W        W53021  10.369   7.227   6.036 -0.0259 -0.2334  0.0147
 9969W        W53022   6.568  11.432  21.778  0.1509  0.0054 -0.0053
 9970W        W53023  27.331   0.581  22.733  0.0318 -0.0327  0.0804
 9971W        W53024   2.873  17.411   9.120 -0.2190  0.0105  0.2150
 9972W        W53025  21.467  19.072   0.016  0.0675  0.1437  0.0668
 9973W        W53026  20.878  18.317  20.060  0.2281  0.0868  0.0322
 9974W        W53027  23.435  18.390   5.163 -0.0767 -0.3102  0.1383
 9975W        W53028  29.594  17.989  25.268  0.2082  0.1378 -0.1303
 9976W        W53029   8.473  14.312  21.558 -0.1820 -0.2436  0.0562
 9977W        W53030   4.475  16.373  22.834  0.1136  0.4453 -0.1820
 9978W        W53031  30.438  31.236  20.708 -0.4575 -0.1192  0.0553
 9979W        W53032   8.355   6.939  18.653 -0.2174 -0.2276  0.1780
 9980W        W53033   6.446   3.685  15.563 -0.2243  0.0192  0.4796
 9981W        W53034  22.001  32.755   3.775 -0.0990  0.2127 -0.4908
 9982W        W53035  24.470  11.654  14.267 -0.1433 -0.2642 -0.0677
 9983W        W53036  20.206   8.389   2.924  0.2130 -0.1283  0.0195
 9984W        W53037   0.558  15.105  20.705  0.2312 -0.3065  0.1756
 9985W        W53038  15.689   5.111  20.650 -0.0006 -0.0565 -0.0555
 9986W        W53039  15.498  33.579  14.809  0.0336  0.2571  0.0009
 9987W        W53040  33.720  17.166  17.823 -0.0674  0.2481  0.0688
 9988W        W53041  22.715  18.611  22.792 -0.2224 -0.0068  0.1066
 9989W        W53042   8.347  12.741  18.763  0.3070  0.1223  0.1037
 9990W        W53043  14.751  14.120   5.821 -0.0486  0.0380 -0.2069
 9991W        W53044  10.649   6.252   1.502  0.0531 -0.0171  0.1532
 9992W        W53045  34.103  15.627  25.047  0.0847 -0.0440  0.2372
 9993W        W53046  20.992   6.149   7.443  0.2423  0.2219  0.0631
 9994W        W53047  10.121  14.379   3.841 -0.1429 -0.0443  0.1150
 9995W        W53048   0.421  24.044  21.729  0.1193 -0.2881 -0.0239
 9996W        W53049   3.908  34.484   0.662 -0.0726  0.2298 -0.2691
 9997W        W53050  30.873  14.177  21.589  0.0592  0.3842  0.0431
 9998W        W53051  31.258  22.991   4.199 -0.4401  0.2143  0.0492
 9999W        W53052  30.934  16.119  24.265 -0.0315 -0.0999 -0.0327
10000W        W53053   3.623  20.776  17.713  0.1771 -0.0653  0.1378
10001W        W53054   2.220  18.129  16.033 -0.0819  0.1573  0.2706
10002W        W53055  31.538  24.906   3.435 -0.0476 -0.0109  0.2117
10003W        W53056   2.095  11.984  14.593  0.3012  0.0264  0.5981
10004W        W53057  25.510  25.148   2.079  0.0902  0.0827  0.2322
10005W        W53058  16.744  29.008   9.633  0.0580  0.0504  0.2074
10006W        W53059  13.704  27.642  21.919 -0.1631 -0.2234  0.1954
10007W        W53060   0.616   9.633  20.620 -0.0500  0.2017  0.4967
10008W        W53061  29.473   3.318  18.108  0.0968  0.0548  0.1349
10009W        W53062  34.174  15.792  19.604 -0.0296 -0.0671 -0.0870
10010W        W53063   8.524   4.180  18.448  0.1764  0.1014 -0.1583
10011W        W53064  31.129  15.678   5.966 -0.0509 -0.1691  0.1676
10012W        W53065  27.979  15.538  17.544  0.0235 -0.1225 -0.1689
10013W        W53066   0.407  22.232   2.750  0.3881  0.1070 -0.0806
10014W        W53067  27.373  15.276   7.780  0.0640  0.2081 -0.1153
10015W        W53068   7.667   4.868   6.952  0.1609 -0.0113  0.0102
10016W        W53069  33.769  15.515  17.709  0.0404  0.0889  0.0825
10017W        W53070   1.273   6.538  27.431 -0.2580 -0.4208 -0.2148
10018W        W53071   2.764   7.615   3.275 -0.1012 -0.1260  0.3965
10019W        W53072  10.759  21.249  15.094 -0.0089  0.0129  0.2504
10020W        W53073  33.124  24.364  14.303 -0.1215 -0.1341 -0.2945
10021W        W53074  26.774  26.767   4.030  0.0190 -0.0246 -0.0378
10022W        W53075   5.350  27.194  19.738 -0.3274  0.4271 -0.1070
10023W        W53076   4.872   5.006  20.695  0.3380 -0.2771 -0.0656
10024W        W53077  11.148   2.528  14.729  0.1805 -0.1290 -0.0331
10025W        W53078  13.409   1.141  21.282 -0.5584  0.1218  0.3594
10026W        W53079   8.089  29.690  27.506  0.2401 -0.2083 -0.2542
10027W        W53080  29.861   9.181  21.654 -0.0612  0.1246 -0.3017
10028W        W53081  30.126   1.853  17.770  0.1272  0.1083 -0.1269
10029W        W53082   6.801  10.084   9.161 -0.0332  0.1807  0.0372
10030W        W53083   5.799  25.656  25.814 -0.3201  0.0479  0.0727
10031W        W53084   7.495  26.017  16.911 -0.0633  0.0433 -0.0822
10032W        W53085  18.296  25.511   0.205  0.3859 -0.3088  0.2921
10033W        W53086   7.748  19.259  17.035  0.0041 -0.0765  0.1583
10034W        W53087  13.722   6.839  27.806  0.0154 -0.3149 -0.1272
10035W        W53088   8.967  25.617   5.406  0.2810 -0.3610 -0.2029
10036W        W53089  32.209  20.241   1.002 -0.2411 -0.2310 -0.1047
10037W        W53090  11.227   8.738   2.993 -0.0746  0.0086  0.0457
10038W        W53091  31.848  30.045  25.095  0.3558 -0.0674  0.0426
10039W        W53092  24.122  21.468  27.031 -0.1902  0.4352 -0.0316
10040W        W53093  23.729  16.640  23.543 -0.1926 -0.2590 -0.0228
10041W        W53094  28.536  20.055   8.384 -0.0373  0.4035 -0.0310
10042W        W53095  33.395  22.081  16.845 -0.3619 -0.1214 -0.0060
10043W        W53096  24.973  12.788  26.115 -0.1114 -0.0855  0.0824
10044W        W53097  13.415  34.482   8.296  0.2708 -0.0870  0.1576
10045W        W53098   6.677   7.226  21.704 -0.0725 -0.3204  0.0315
10046W        W53099  25.007  29.375  18.057 -0.0959 -0.0762 -0.4951
10047W        W53100  28.706   7.680   5.328 -0.3351  0.0243 -0.0934
10048W        W53101   1.810  10.993   2.301 -0.0405 -0.1573  0.0107
10049W        W53102   9.761  24.650  13.825  0.0171  0.0590 -0.1111
10050W        W53103  14.116  23.873  21.688  0.0731  0.1287  0.0682
10051W        W53104  33.244  19.819  28.273  0.0603 -0.0411 -0.3212
10052W        W53105   5.117   9.989  21.999  0.3170  0.2334 -0.1169
10053W        W53106  24.053  24.140  18.280  0.2283  0.1317 -0.2403
10054W        W53107  29.721   5.522  18.950  0.0449 -0.2265  0.1432
10055W        W53108  28.192  12.637  18.724  0.3773  0.1848  0.1855
10056W        W53109  18.502  31.448  16.525 -0.0239 -0.0353 -0.1708
10057W        W53110  28.254   9.063  17.683  0.3702 -0.0661  0.0559
10058W        W53111  31.950   0.718   8.702  0.1774 -0.0340  0.2037
10059W        W53112  27.117  11.404  18.761 -0.1535  0.1246 -0.0465
10060W        W53113   4.660  10.120  26.099 -0.2710  0.1825  0.1235
10061W        W53114  24.440  10.184  16.786 -0.0590  0.1002 -0.1358
10062W        W53115   7.054   9.717  28.297  0.2000  0.4000 -0.2411
10063W        W53116   8.034  18.624  16.476 -0.1921 -0.0598 -0.2358
10064W        W53117   7.552   6.295  17.194 -0.1140 -0.1854 -0.0016
10065W        W53118  13.201   9.285   0.539 -0.1356  0.0429 -0.0719
10066W        W53119   3.111   9.662   1.779 -0.1060  0.0849  0.1893
10067W        W53120  33.608  10.834   9.828  0.2420 -0.0124 -0.1234
10068W        W53121   5.397  21.331  21.892  0.1135 -0.0854  0.2303
10069W        W53122   7.063   2.990  26.519 -0.1028 -0.1713 -0.1370
10070W        W53123  30.673  15.160  23.091  0.1442  0.0510  0.1019
10071W        W53124   8.378  29.470   4.988 -0.0409 -0.0756 -0.1311
10072W        W53125  26.498  19.252  23.939  0.0104 -0.3054  0.0254
10073W        W53126   0.342   5.011   4.110 -0.2477 -0.3070  0.1139
10074W        W53127   0.364  33.811   7.269  0.1571 -0.0587 -0.2498
10075W        W53128   5.831   9.047  21.995 -0.0400  0.1913 -0.0669
10076W        W53129   4.603  20.403  28.535 -0.0290  0.0973  0.2561
10077W        W53130  18.548   9.810   8.270 -0.1165 -0.0982 -0.0671
10078W        W53131  34.153   3.246  14.444  0.7187  0.2814  0.0366
10079W        W53132  31.971  30.943  14.362  0.1415 -0.1183  0.0010
10080W        W53133  25.445  23.803   3.628  0.0127  0.1779  0.0892
10081W        W53134  19.390   9.512   0.048 -0.2940 -0.1650 -0.3042
10082W        W53135  32.203  17.656  18.767  0.0499  0.2618 -0.0739
10083W        W53136  23.217  13.611  26.669 -0.0384 -0.1735 -0.0706
10084W        W53137  12.171  21.721  15.039 -0.3175  0.1489  0.3658
10085W        W53138   4.749  17.773  29.182 -0.2809  0.2175  0.3240
10086W        W53139  32.931  15.426  23.470 -0.2498 -0.1871  0.0111
10087W        W53140   9.212  32.341   3.045  0.4439 -0.2273  0.2139
10088W        W53141   2.656   7.923  23.152 -0.0742  0.2403 -0.0590
10089W        W53142  31.503  26.559   1.419 -0.2391 -0.1794 -0.0717
10090W        W53143  27.055  28.261  15.868 -0.2670  0.0576  0.1692
10091W        W53144  23.051  10.354  20.632  0.0204  0.2396 -0.0420
10092W        W53145   3.045   7.734   4.123 -0.0277  0.0197 -0.0811
10093W        W53146  31.467   4.759  17.518 -0.2445  0.0873 -0.0209
10094W        W53147  33.555  21.524   9.129  0.0113 -0.1699  0.2830
10095W        W53148   0.791  18.995  16.007  0.1449  0.0746  0.3212
10096W        W53149   0.476   6.113   7.001  0.1641  0.0813 -0.1863
10097W        W53150  12.093  17.455   2.158  0.0477  0.0210 -0.2222
10098W        W53151  12.389   8.583  11.367 -0.0720 -0.2152  0.1809
10099W        W53152   9.667  29.458  16.057 -0.2847  0.1740  0.2006
10100W        W53153  33.071  12.456  14.689 -0.0205  0.0522  0.1939
10101W        W53154   3.837  32.014  22.699 -0.0517 -0.0661 -0.0395
10102W        W53155  31.726  10.434  17.456 -0.0847  0.0101 -0.1389
10103W        W53156   3.380  11.255  23.747  0.4376  0.0393  0.1285
10104W        W53157  34.287  30.254  25.160 -0.0505  0.0916 -0.4526
10105W        W53158  31.503  30.955  15.612  0.1501 -0.1627  0.1692
10106W        W53159   0.154   8.775  24.825  0.0192 -0.0300 -0.1777
10107W        W53160  11.453   3.983  16.799  0.2047 -0.3299 -0.1709
10108W        W53161   3.358  31.711   2.212  0.2348 -0.0257 -0.0284
10109W        W53162  10.233  11.329  25.872 -0.1766  0.2060 -0.3816
10110W        W53163  33.627   8.943  17.772  0.1871 -0.1927 -0.6252
10111W        W53164   5.254  19.640  24.024 -0.0738 -0.0664  0.0328
10112W        W53165  32.428  12.061  27.329  0.0142 -0.1848  0.1455
10113W        W53166   6.715   5.158  21.539 -0.0586 -0.0248 -0.1153
10114W        W53167  15.661  13.233  15.272  0.3591 -0.2390 -0.2110
10115W        W53168  32.273   6.909  22.383  0.0072 -0.0594  0.0866
10116W        W53169  24.849  11.678  28.393 -0.2130 -0.1548 -0.0056
10117W        W53170  29.423  21.711  25.423 -0.2563  0.2799  0.1108
10118W        W53171  30.628  24.321  25.903 -0.1015  0.0384 -0.4280
10119W        W53172  33.188   6.162  22.369  0.1162 -0.1701  0.1567
10120W        W53173  29.999  33.784  17.409 -0.0046 -0.2656 -0.2988
10121W        W53174   3.100  21.916   4.291  0.3875 -0.1905 -0.0879
10122W        W53175   4.861  16.284  23.286  0.0319  0.1806 -0.1248
10123W        W53176   4.118  29.594  21.510 -0.1377  0.1014  0.0146
10124W        W53177   0.186  24.445   4.078 -0.1582  0.0120  0.2274
10125W        W53178   0.747  11.214  16.739  0.1708 -0.1991  0.2003
10126W        W53179  10.151  22.527  16.829 -0.0774 -0.1900 -0.1008
10127W        W53180  13.827  32.044  20.453 -0.2913 -0.3371 -0.2048
10128W        W53181   8.750  23.152  23.100 -0.2147 -0.1910 -0.1940
10129W        W53182   7.988   0.823  20.709 -0.4088 -0.1501 -0.0210
10130W        W53183  16.615  16.003   3.494  0.1133 -0.0115 -0.4315
10131W        W53184  17.845   4.841   6.438 -0.3077  0.0144  0.0395
10132W        W53185   0.801  15.863   5.467 -0.2344 -0.0484 -0.1303
10133W        W53186   6.313  16.926   5.749 -0.0189  0.2761  0.2717
10134W        W53187   8.159  34.142   1.930  0.0361  0.2871 -0.0525
10135W        W53188  24.914  25.078  24.663  0.0003  0.1128  0.1386
10136W        W53189   6.362   4.129  22.512 -0.4574  0.0760 -0.2410
10137W        W53190  33.821  16.748   5.387 -0.2667  0.2773 -0.0155
10138W        W53191  29.828   9.668   6.118 -0.1381 -0.0571  0.0246
10139W        W53192  34.307  17.611  16.249 -0.3147 -0.0213  0.2155
10140W        W53193  11.856  13.497  24.887  0.0902  0.0713  0.1246
10141W        W53194   2.031   6.544  23.560 -0.0856 -0.2768  0.3589
10142W        W53195   9.405  22.131  23.796  0.0197 -0.0514  0.3636
10143W        W53196   4.347   2.374   4.799 -0.0288 -0.1706 -0.0401
10144W        W53197  31.646  11.022  28.584  0.4718 -0.1417  0.1159
10145W        W53198  18.268  14.361  27.674 -0.0085 -0.1785  0.0297
10146W        W53199   4.044  16.496  14.108 -0.1270  0.0712  0.0089
10147W        W53200   3.625   2.517  25.972  0.0825 -0.0993  0.1833
10148W        W53201  33.490  12.278  22.842 -0.3502 -0.2074  0.1686
10149W        W53202  32.685  21.873  25.519  0.0759  0.1757  0.1405
10150W        W53203  10.521   5.068  26.132 -0.3352 -0.4211  0.2365
10151W        W53204  34.195   8.364  17.273 -0.3415  0.0763 -0.1346
10152W        W53205  28.677  20.042   3.137  0.0598 -0.0209  0.1327
10153W        W53206   7.621   3.921   1.207  0.0672 -0.2057  0.1193
10154W        W53207  28.408   6.701   1.913 -0.0264 -0.1142 -0.0746
10155W        W53208   2.010   5.830   1.452  0.2130 -0.1514  0.1314
10156W        W53209  10.164  12.622  16.556  0.0587  0.0384  0.1797
10157W        W53210  20.411  21.275  13.904  0.0884 -0.3211 -0.2687
10158W        W53211   1.911   5.246  16.500 -0.1170 -0.2031  0.1473
10159W        W53212   9.646  10.120   0.104 -0.0668  0.0230  0.3575
10160W        W53213  28.023  22.108  24.223 -0.2165 -0.0111  0.1011
10161W        W53214  10.018  31.625  21.212  0.0164 -0.3774  0.1806
10162W        W53215  20.348  28.115  24.090 -0.0496  0.0480 -0.5375
10163W        W53216   3.510  32.424  17.866  0.1435  0.1434 -0.0580
10164W        W53217  25.148   4.156   3.736  0.1842  0.0324 -0.1507
10165W        W53218   2.531  32.607   9.552  0.0975 -0.1250  0.1003
10166W        W53219   1.015  18.979  13.764  0.0593  0.1932 -0.1203
10167W        W53220  10.574  15.305  16.939  0.2157 -0.3670 -0.1426
10168W        W53221   3.364  30.468  26.421 -0.2769 -0.1255  0.0630
10169W        W53222  12.813  13.743  21.816  0.1624 -0.1248 -0.1620
10170W        W53223   2.719  20.575  26.982  0.4427  0.0548  0.0966
10171W        W53224   1.262  10.749  15.020  0.2526  0.2077  0.1892
10172W        W53225   6.165  11.665  22.128  0.2392 -0.1592 -0.0536
10173W        W53226  32.813  11.024   9.118  0.0527 -0.0679 -0.0975
10174W        W53227  15.254  29.307  19.132  0.1634 -0.2729 -0.0876
10175W        W53228  30.551   3.991   5.265  0.0325 -0.0122  0.1259
10176W        W53229   8.569  24.345  24.182  0.0160  0.0117  0.3330
10177W        W53230   5.279  12.753  29.108  0.1696 -0.0265 -0.2379
10178W        W53231  29.053  14.630  27.177  0.2389 -0.0240  0.3597
10179W        W53232  23.504   6.159  22.423  0.1670  0.1193 -0.2387
10180W        W53233   0.990   4.478  14.741 -0.2257  0.1304 -0.1646
10181W        W53234  13.919   1.892  20.985  0.0818  0.0702  0.0817
10182W        W53235  12.092  10.955  17.303 -0.1717  0.1645 -0.0409
10183W        W53236   3.056   5.132   7.634  0.0911  0.3571 -0.2405
10184W        W53237  26.608   9.724   3.464  0.4570 -0.2153  0.0484
10185W        W53238   9.193  18.379  25.619  0.1276 -0.2092 -0.1351
10186W        W53239  33.440  17.060  17.073 -0.1141 -0.0669 -0.0208
10187W        W53240   9.646   1.905   4.699  0.0889 -0.1133 -0.0810
10188W        W53241  10.734  15.306  23.101  0.0686 -0.3635  0.4182
10189W        W53242  18.109   2.367  18.632  0.1412 -0.0641 -0.0518
10190W        W53243  32.500  12.943  25.651  0.2678 -0.1781 -0.2095
10191W        W53244  32.184  19.637  23.558  0.3995 -0.3130  0.0159
10192W        W53245  32.883  24.678   3.789  0.3271  0.1119 -0.1760
10193W        W53246   0.862  23.367   2.227 -0.0954 -0.0407 -0.0227
10194W        W53247  20.855  30.541   0.825 -0.1309  0.0433  0.1208
10195W        W53248  14.496  13.707  27.349 -0.0101  0.1548 -0.1641
10196W        W53249   8.555   8.964   2.385 -0.0296  0.0400  0.1803
10197W        W53250   3.585   8.506  29.176  0.2333 -0.0779 -0.0134
10198W        W53251  32.209  19.846   2.929  0.1342 -0.1754  0.3412
10199W        W53252   6.430  13.459   2.511 -0.1058 -0.5073  0.0167
10200W        W53253   5.557  34.528   3.367 -0.0589  0.1300  0.0016
10201W        W53254  21.201  26.361  24.898 -0.0909  0.1340 -0.2065
10202W        W53255  12.825  12.582  26.792 -0.0192  0.1711 -0.0592
10203W        W53256  34.143   9.139   2.353 -0.1279  0.1172  0.1282
10204W        W53257  27.975  20.913  26.885  0.0919  0.0219  0.1699
10205W        W53258  24.606   5.998  21.186  0.0766  0.2754 -0.0265
10206W        W53259   3.219  16.114  22.398  0.1061 -0.2148 -0.2263
10207W        W53260  28.209   3.685   9.099  0.1551 -0.0412 -0.2742
10208W        W53261  10.983  10.122  25.089 -0.1215 -0.1971  0.0881
10209W        W53262  10.911  11.342  18.271  0.0907  0.2053  0.2401
10210W        W53263   3.161  23.144   2.859  0.2785 -0.1536  0.0233
10211W        W53264   4.413  21.587  16.299  0.3114  0.6631 -0.0196
10212W        W53265  28.236  17.751   0.468  0.0450 -0.2928  0.1640
10213W        W53266   2.195  33.212   6.344  0.2222 -0.2518 -0.0224
10214W        W53267  24.491  15.982  16.067 -0.0537  0.0348  0.0099
10215W        W53268   0.696  16.587  14.098  0.0935  0.1136  0.1324
10216W        W53269  32.788  21.259  21.745  0.2250 -0.3513  0.2929
10217W        W53270   4.996  17.246  27.079 -0.1931  0.2153 -0.2825
10218W        W53271  11.002   9.967  27.397  0.3777 -0.2736  0.1766
10219W        W53272  32.216  10.378  24.737  0.0958  0.2625 -0.1321
10220W        W53273  33.893  17.008  25.792  0.0874  0.0984 -0.1142
10221W        W53274   6.641  12.757  25.610  0.1777 -0.0494  0.1835
10222W        W53275   9.159  11.935  25.613  0.2007 -0.0393 -0.0277
10223W        W53276  15.480  30.448  25.311  0.0272 -0.3041 -0.1606
10224W        W53277  34.069   3.892  26.783  0.0595  0.1842  0.3966
10225W        W53278   1.934  11.349  23.590 -0.0528  0.1760  0.2429
10226W        W53279   0.107   5.518  23.861 -0.1910 -0.2566  0.1887
10227W        W53280  12.987  30.414  18.602  0.3931  0.0323 -0.0673
10228W        W53281   6.158   0.761   6.339 -0.0615 -0.1625  0.0286
10229W        W53282  27.201  17.652  24.628 -0.0262 -0.0313 -0.1081
10230W        W53283   3.719  25.246  26.093 -0.0376 -0.1408  0.1553
10231W        W53284   5.418  12.864   5.532 -0.0675  0.1911 -0.0408
10232W        W53285  10.831  34.643  25.283  0.0667 -0.0140  0.3270
10233W        W53286   9.071  15.346  27.531  0.2138 -0.1523  0.0451
10234W        W53287  22.517   8.751  20.920 -0.5121 -0.1913 -0.3236
10235W        W53288   9.279  31.120   7.657 -0.0899 -0.2007 -0.1989
10236W        W53289  25.658  11.904  18.400  0.4157  0.0737  0.4495
10237W        W53290  13.987  27.197  21.977  0.1797  0.2716  0.2312
10238W        W53291   2.964  20.182  27.641 -0.0975  0.2264 -0.0134
10239W        W53292  31.917  22.007   8.418 -0.1170 -0.0840 -0.0938
10240W        W53293   0.007  28.061  23.856 -0.0124 -0.0899 -0.1572
10241W        W53294  18.651  29.893  28.468 -0.2321 -0.3346 -0.1419
10242W        W53295   1.983   6.423  28.875  0.2447 -0.0777 -0.0136
10243W        W53296   6.302  21.537   7.261 -0.0459 -0.1416  0.1562
10244W        W53297  16.926  10.756   4.471  0.1463 -0.1826 -0.0623
10245W        W53298  25.815  10.728   2.061  0.1969 -0.2053 -0.1890
10246W        W53299  33.459  21.120  10.071 -0.0154  0.1582  0.0516
10247W        W53300  12.873  30.959  17.574  0.1622  0.0196 -0.1250
10248W        W53301  30.246   8.184   6.390  0.2968 -0.1700 -0.0391
10249W        W53302  26.740  16.260  15.048 -0.3805 -0.1628 -0.2187
10250W        W53303   8.794  19.232  25.728  0.1946 -0.0612  0.2095
10251W        W53304  22.312  13.264   5.176 -0.0925 -0.2128  0.2229
10252W        W53305  15.713   9.440   7.864  0.1981 -0.0041  0.2116
10253W        W53306  26.222  31.866   4.308  0.0251  0.0111 -0.2703
10254W        W53307  20.078  18.191  28.823 -0.0987  0.0808 -0.4005
10255W        W53308   4.697  18.105  22.178  0.2702  0.0086  0.1016
10256W        W53309  22.935   5.244  10.160  0.1387  0.2563  0.1901
10257W        W53310  33.531  21.331  18.113  0.0636 -0.2682  0.1131
10258W        W53311   1.294  21.875  18.379  0.0247 -0.0390 -0.0384
10259W        W53312   5.075  23.860  15.572  0.1369  0.2353 -0.0104
10260W        W53313  16.678  23.075   2.833 -0.1389 -0.0700 -0.0566
10261W        W53314   9.099  15.519   1.602 -0.2597 -0.1384  0.2318
10262W        W53315  30.956  13.830   8.927 -0.0106  0.0849  0.0670
10263W        W53316  13.291  15.181  20.691  0.2460  0.3162 -0.0383
10264W        W53317  15.210   2.622   3.309 -0.1073  0.0052 -0.1265
10265W        W53318   4.367  21.080  22.914  0.0775  0.1225  0.0913
10266W        W53319  31.453  22.998  26.050 -0.0485  0.0252 -0.3226
10267W        W53320   0.671  12.020  27.497 -0.0455 -0.0460 -0.2006
10268W        W53321  26.343   5.457   4.515  0.0218  0.2181  0.1723
10269W        W53322  16.876  16.604   2.231 -0.1839  0.1816  0.1595
10270W        W53323  18.228  19.303   6.504 -0.3094 -0.0868  0.0244
10271W        W53324  28.414   8.682   8.550  0.2515  0.1539 -0.2721
10272W        W53325   2.544  11.007  13.653 -0.2920  0.0762 -0.2243
10273W        W53326  32.492  24.322  27.531 -0.0501 -0.3249  0.1875
10274W        W53327  11.436  12.413  17.540 -0.1515  0.1402 -0.1679
10275W        W53328   7.233   6.562   7.907  0.3867 -0.4102  0.1335
10276W        W53329   2.820  27.291  25.670  0.0942 -0.1083 -0.0901
10277W        W53330  30.033  17.591   8.207 -0.1678  0.0363 -0.0238
10278W        W53331  30.479  24.232  28.413  0.0320  0.2792  0.0135
10279W        W53332   9.546  11.758  25.326 -0.0823  0.0220 -0.1335
10280W        W53333  10.013  28.347  24.526 -0.1554 -0.1867 -0.2015
10281W        W53334  32.196  19.842   2.349  0.3275 -0.0586 -0.1160
10282W        W53335   7.273  29.592   1.112  0.1276 -0.0465  0.1883
10283W        W53336  29.926  13.243   3.439  0.0042 -0.0195  0.1001
10284W        W53337   6.874   5.615  18.937  0.1195 -0.1316  0.0983
10285W        W53338  27.169  24.647  16.753 -0.1672  0.0527 -0.3141
10286W        W53339  19.263   8.771   3.913 -0.0078  0.3060 -0.0882
10287W        W53340   7.704  22.505   8.296  0.2005 -0.0601 -0.0964
10288W        W53341  22.147  16.919   5.946  0.4372 -0.3100  0.0576
10289W        W53342  23.034   4.245  25.914 -0.4290  0.4717  0.2075
10290W        W53343  27.155  10.702   6.066  0.0022 -0.0958  0.1068
10291W        W53344  26.906   2.933  25.398  0.1302 -0.0866  0.0651
10292W        W53345   4.725   2.376  15.642  0.0466  0.1425  0.1993
10293W        W53346  34.426  27.606  23.161 -0.3513  0.4412  0.3441
10294W        W53347  18.521  34.565  28.356  0.2392 -0.3113 -0.0716
10295W        W53348  31.099  14.837  23.020 -0.2562  0.0136 -0.1907
10296W        W53349   4.302  14.854  22.036 -0.0959  0.0312  0.3316
10297W        W53350   8.562  21.299   8.982 -0.3392 -0.2402  0.0349
10298W        W53351   1.283  15.959  23.136 -0.2859  0.0529 -0.2578
10299W        W53352  16.961  10.674   2.595  0.0716 -0.2018 -0.1068
10300W        W53353   0.649   7.329  28.150 -0.1527 -0.2878  0.0366
10301W        W53354  15.833   8.027  27.022  0.1469  0.0889 -0.1070
10302W        W53355   9.559   1.691   6.247 -0.1506 -0.4550 -0.0016
10303W        W53356  31.549  22.548   5.139  0.3954  0.2973 -0.0501
10304W        W53357  16.066   4.237  22.142 -0.1397  0.0898  0.1119
10305W        W53358   8.862  16.509   5.372  0.1603 -0.0151 -0.0518
10306W        W53359  11.595  31.582   3.805  0.0988  0.1308 -0.1270
10307W        W53360   2.192  18.619  18.084  0.2405  0.1207  0.0227
10308W        W53361  28.362  32.776  15.265  0.0575  0.1205 -0.0405
10309W        W53362   1.300  13.732   5.277  0.0718  0.2000  0.2261
10310W        W53363   8.581  20.889   2.380  0.3557  0.0505  0.2601
10311W        W53364   3.960  11.287  19.584 -0.1197  0.1075 -0.0156
10312W        W53365  34.236   6.755   9.346  0.0574  0.1583 -0.1155
10313W        W53366   2.836   8.280   7.570  0.0260  0.0625 -0.1218
10314W        W53367  29.562  15.530   3.937 -0.0702 -0.1765 -0.3375
10315W        W53368  31.378  33.522  22.110  0.2047  0.4636  0.0019
10316W        W53369  24.735  14.340  18.994 -0.1791 -0.1988 -0.3584
10317W        W53370   9.913  21.260   4.920 -0.2839 -0.1424  0.0882
10318W        W53371  33.844  24.325  14.907 -0.0123 -0.0803 -0.0676
10319W        W53372   1.945   8.877  25.429 -0.0396  0.0987  0.5829
10320W        W53373  33.760  27.711   6.321  0.0209  0.2080 -0.1272
10321W        W53374  30.144   4.143  21.406  0.1192 -0.2940 -0.3555
10322W        W53375   3.041  13.785   2.951 -0.1033  0.3032  0.1203
10323W        W53376  31.195   6.507  21.938  0.0994 -0.3324 -0.2089
10324W        W53377   1.170  12.296   0.364 -0.2729  0.1410 -0.0492
10325W        W53378  30.512   3.209  14.249  0.0892 -0.0375 -0.0129
10326W        W53379  28.295  23.947   2.970  0.1527 -0.2416  0.4660
10327W        W53380   9.473  31.513  21.119  0.5186 -0.0763  0.1744
10328W        W53381  24.892  22.953  17.981  0.2086 -0.1186  0.2232
10329W        W53382   3.469   6.878  16.787 -0.0596  0.0794  0.2081
10330W        W53383   6.347   1.036   0.491  0.1212  0.0504 -0.3504
10331W        W53384   2.253   1.000  26.633 -0.0905 -0.2930 -0.1316
10332W        W53385   9.317  27.504  19.181 -0.2618 -0.4210  0.1822
10333W        W53386   3.994  24.263  25.058  0.1729 -0.0947  0.0436
10334W        W53387  25.407   9.689  22.285  0.0701 -0.0026 -0.2175
10335W        W53388  14.553  33.729  27.491 -0.0306 -0.1229 -0.1061
10336W        W53389   0.102  24.469   6.233 -0.2492 -0.2429 -0.3338
10337W        W53390   5.406  33.833   6.293 -0.1857 -0.0580  0.0443
10338W        W53391  14.206  13.571   1.288 -0.1328  0.3710  0.1320
10339W        W53392   4.472  15.228  14.337 -0.0623  0.2350  0.0318
10340W        W53393  26.242  18.371  27.077 -0.0136 -0.0501  0.5015
10341W        W53394  18.960   2.792   8.295 -0.0261  0.1564 -0.4754
10342W        W53395  20.001  13.558  13.738  0.0318  0.0240  0.3971
10343W        W53396   3.237   7.395   0.397 -0.3309 -0.1517  0.0789
10344W        W53397   4.171  11.367  24.712  0.3376 -0.0219 -0.2986
10345W        W53398  10.815  21.967  16.538 -0.0288  0.2555 -0.0601
10346W        W53399   0.880  18.290   7.650  0.0451 -0.2636 -0.1267
10347W        W53400   9.977  10.833  28.217  0.2588 -0.0758  0.0566
10348W        W53401   3.602  26.384  20.838 -0.0883 -0.1112  0.3882
10349W        W53402  11.272  22.325   6.687  0.0934  0.3051  0.1887
10350W        W53403   1.452  12.610  23.348  0.2725 -0.1118 -0.3058
10351W        W53404  12.166   5.333  26.178 -0.1488 -0.2333 -0.2264
10352W        W53405  13.436  27.826  22.357  0.0952 -0.0946 -0.2460
10353W        W53406  20.132   7.317   0.078 -0.2185 -0.1016  0.1096
10354W        W53407   1.133  33.893   1.105  0.2157 -0.0077 -0.2122
10355W        W53408  24.632   7.093  19.198 -0.0959  0.0456  0.2845
10356W        W53409  32.741   2.155   1.099 -0.0801  0.0014 -0.3176
10357W        W53410  21.518  24.947   0.288  0.1293 -0.0880  0.3659
10358W        W53411   4.576   6.198   9.533  0.0743 -0.1337 -0.0058
10359W        W53412  32.888  14.584  28.086  0.2147 -0.1871  0.1143
10360W        W53413   3.428  10.450   4.602 -0.0176 -0.1655  0.2046
10361W        W53414   6.182  33.222   5.847  0.0867  0.0622  0.1316
10362W        W53415  24.951  19.010  27.071  0.0719 -0.1415 -0.0377
10363W        W53416  34.248   9.398  27.252  0.1774  0.0497 -0.1360
10364W        W53417   2.783   8.692   5.623  0.0575 -0.1320  0.0849
10365W        W53418  28.812  28.246  17.938 -0.0430  0.0340 -0.2209
10366W        W53419  17.335   9.348  17.004  0.2175  0.0791  0.1137
10367W        W53420   0.651   8.398  24.845 -0.0095 -0.2747 -0.0573
10368W        W53421  19.717  13.839  22.176  0.0386  0.0329  0.0048
10369W        W53422  27.616  31.106   3.223  0.0070  0.3482 -0.0973
10370W        W53423  12.169  21.357  14.647  0.2544  0.0055 -0.1240
10371W        W53424   4.484  26.147   5.731  0.1169 -0.1936 -0.0984
10372W        W53425  29.115  11.947   5.141  0.0063 -0.1338  0.0111
10373W        W53426   2.497  12.456   6.190 -0.1337  0.0027 -0.3980
10374W        W53427  30.641  22.776  15.176 -0.2213 -0.0189 -0.3162
10375W        W53428   7.176  20.100  17.634 -0.0025  0.1231 -0.0127
10376W        W53429  16.049  23.761   5.563 -0.2384  0.0389 -0.1723
10377W        W53430   4.878  29.747  25.977  0.1808  0.2696 -0.3247
10378W        W53431   5.895   0.302   1.429 -0.1700  0.1655 -0.2368
10379W        W53432  28.634   6.902  18.954 -0.1313 -0.1698  0.0603
10380W        W53433  27.370  15.362  27.816  0.2597 -0.0129 -0.0599
10381W        W53434   0.844   9.309   4.383 -0.1515  0.2394 -0.0456
10382W        W53435   2.521  20.728  20.743  0.1251 -0.1651  0.0237
10383W        W53436   6.184  10.630   0.390  0.2380 -0.1119  0.0910
10384W        W53437  29.335  13.578  15.942  0.0575 -0.1750 -0.0399
10385W        W53438   1.783  19.883  22.311 -0.0753  0.0820  0.0688
10386W        W53439  12.091  33.080  27.660  0.1981 -0.1881 -0.0375
10387W        W53440  18.456   5.868  14.333  0.1759  0.0833 -0.0294
10388W        W53441  33.838  14.043  23.335  0.1340 -0.1761 -0.1131
10389W        W53442   9.176  22.168   4.449 -0.1551  0.2223  0.3568
10390W        W53443   0.899  16.419  24.074 -0.1060 -0.0562  0.0331
10391W        W53444  18.053  12.777  23.401 -0.0182 -0.0902 -0.0486
10392W        W53445   0.329  27.184  25.672 -0.0381  0.5585  0.2013
10393W        W53446  17.967   2.277  24.443  0.0586  0.0531  0.0247
10394W        W53447   2.906  33.471  19.753  0.2017  0.0431 -0.0055
10395W        W53448   3.535  19.685  20.515 -0.0290 -0.1101 -0.2612
10396W        W53449  28.409   6.674  13.946  0.1540  0.0057 -0.1030
10397W        W53450   8.144  16.077   1.526  0.0187 -0.1421  0.0458
10398W        W53451  10.363   3.309  28.825  0.2667 -0.1567  0.0735
10399W        W53452  34.191   3.750  28.612 -0.1109  0.1759  0.1242
10400W        W53453  29.786  20.319  26.080 -0.1275  0.0146 -0.1972
10401W        W53454  23.040  14.724   5.222  0.0966  0.0703 -0.1785
10402W        W53455   0.854   1.546  13.088  0.2139 -0.2912 -0.0373
10403W        W53456  29.194  32.986  18.229 -0.0116  0.1428  0.0772
10404W        W53457   6.752  31.844  25.860  0.2184 -0.0937 -0.1477
10405W        W53458   4.479   3.279  27.357 -0.2329  0.0360  0.0770
10406W        W53459  34.246  16.219   7.223  0.1711  0.1771 -0.1769
10407W        W53460   7.877  14.545   6.138 -0.2868 -0.2648  0.0751
10408W        W53461   3.129   7.381  24.673 -0.1340  0.1274  0.0166
10409W        W53462   8.192  12.401  20.173 -0.0024 -0.2601  0.0588
10410W        W53463  21.650  14.203  25.005  0.1182  0.0722  0.1526
10411W        W53464  11.165   8.637  23.881 -0.2213 -0.0066 -0.0122
10412W        W53465  33.667   2.668  24.926  0.0964 -0.3465 -0.0664
10413W        W53466  32.250  20.274   2.666  0.0444 -0.0758  0.2616
10414W        W53467   9.528   8.823  14.469  0.4063 -0.0473 -0.0592
10415W        W53468  11.346   1.889  28.351 -0.0196  0.1747  0.2056
10416W        W53469  12.068  31.612  19.405 -0.0413 -0.0963 -0.1111
10417W        W53470  22.882   1.812  24.329 -0.0416 -0.3365 -0.0022
10418W        W53471  10.205  30.374  28.022 -0.1837 -0.0613  0.0258
10419W        W53472  29.756   9.322   5.069  0.0010  0.1854 -0.0520
10420W        W53473   6.785   5.517  25.425 -0.2830 -0.1376  0.1866
10421W        W53474  17.293  26.951   9.722  0.1605 -0.1570  0.2078
10422W        W53475  30.811  10.941  26.645  0.0839 -0.2898 -0.3565
10423W        W53476  28.638  25.670   4.896  0.2732  0.0179 -0.3363
10424W        W53477  23.996  11.640   8.234  0.1769  0.0336 -0.0361
10425W        W53478   2.156   8.271  23.964  0.4081  0.0504  0.1225
10426W        W53479  32.549   4.600  17.868 -0.2672  0.3605 -0.2440
10427W        W53480  21.700  33.724   8.691  0.2478 -0.1389 -0.3010
10428W        W53481   0.630  32.192  24.255  0.0265  0.2126  0.1289
10429W        W53482  26.269  27.160  24.535 -0.0014  0.4133 -0.0653
10430W        W53483   9.223  33.497  16.064 -0.1081  0.0696  0.1232
10431W        W53484  22.695  16.863  23.774 -0.1313  0.0839 -0.1301
10432W        W53485   8.362  13.866  11.089 -0.0547  0.0944 -0.0558
10433W        W53486  16.864  16.726   3.963  0.3590 -0.0790  0.0918
10434W        W53487   7.845  11.847  23.320 -0.1478  0.1654  0.0950
10435W        W53488  15.868  10.377  21.005 -0.1248  0.1336 -0.0962
10436W        W53489  18.602  21.305  17.951  0.0850  0.0531  0.0455
10437W        W53490  11.828  18.803   9.975 -0.2020  0.2484  0.1018
10438W        W53491  19.727  33.530  16.218 -0.0361 -0.3085 -0.0224
10439W        W53492  23.062  32.943   7.588 -0.0142 -0.1995 -0.2109
10440W        W53493  19.149   9.086   1.448  0.0733  0.1035  0.0590
10441W        W53494   2.062  33.652  17.272  0.0762 -0.2384 -0.2804
10442W        W53495  23.038  18.187   7.221 -0.3151 -0.2336  0.2085
10443W        W53496  28.110  26.496  26.126  0.1217 -0.1172 -0.1501
10444W        W53497  33.841  19.613  13.973 -0.1751  0.1957 -0.1149
10445W        W53498  32.076  31.323   1.347  0.0208 -0.2388 -0.2850
10446W        W53499  29.539  28.115  22.244 -0.5254 -0.0093  0.0433
10447W        W53500   6.893  19.486  22.778 -0.0690 -0.2623  0.2612
10448W        W53501   2.699   9.872   3.923  0.2058  0.2850 -0.1226
10449W        W53502   8.532   7.323  24.060  0.0111 -0.1792 -0.3530
10450W        W53503   2.935  18.915   1.856  0.4028 -0.1339  0.0228
10451W        W53504   7.117  24.233   9.351  0.2746  0.0447  0.0203
10452W        W53505  32.580  21.014   3.606  0.1714  0.1137 -0.1137
10453W        W53506  32.395  10.350  26.042 -0.0296 -0.0631 -0.1861
10454W        W53507   3.050   6.708   9.900 -0.0690 -0.1040  0.1813
10455W        W53508   7.141  28.744  16.613 -0.1795  0.2127  0.1162
10456W        W53509   2.978  34.144   7.204 -0.0630  0.0526  0.2364
10457W        W53510   1.239  13.410   2.583  0.0986 -0.0984  0.2409
10458W        W53511  27.870  10.007   5.624 -0.1482  0.1701 -0.2388
10459W        W53512  13.288  19.262   7.384 -0.1255  0.1978  0.1564
10460W        W53513  14.185   0.391   0.672  0.0853  0.0408  0.0113
10461W        W53514   7.349  12.825  20.252  0.1108 -0.2097  0.0428
10462W        W53515   7.124   2.231   5.523  0.0102  0.2937 -0.2095
10463W        W53516  15.025   8.578  16.617  0.0911 -0.1993  0.0778
10464W        W53517  10.686  13.510   0.719 -0.0956  0.0851  0.0431
10465W        W53518  24.230  12.917  22.272 -0.0944  0.0072  0.0959
10466W        W53519  25.620   0.373   1.672 -0.0829 -0.1779 -0.1783
10467W        W53520  28.569  25.211  23.222 -0.3436 -0.1307  0.0025
10468W        W53521   4.314  27.950  27.617  0.1053 -0.0207 -0.3671
10469W        W53522   6.866  21.746  15.246 -0.3425  0.2885 -0.0803
10470W        W53523   9.396  23.741  15.841 -0.0658 -0.1051 -0.1076
10471W        W53524   5.211   3.634  14.518 -0.0286 -0.1364 -0.1725
10472W        W53525   4.382  16.386  28.755  0.1189  0.2731  0.0439
10473W        W53526  18.976  11.322  16.887  0.0037  0.0857 -0.1765
10474W        W53527  26.595  19.291  17.359  0.0775  0.2383 -0.1411
10475W        W53528   6.890  11.560   6.868 -0.3064  0.1228 -0.0659
10476W        W53529  11.122  18.132  16.303  0.0144 -0.1364 -0.2332
10477W        W53530  25.976   1.426  28.994 -0.0482  0.2222 -0.1579
10478W        W53531   4.433  15.548  26.945  0.1296  0.0929  0.0189
10479W        W53532   9.834  32.813   8.064 -0.2388 -0.2509  0.0031
10480W        W53533   1.033  15.804  26.441  0.1764 -0.2143  0.0083
10481W        W53534  30.449  25.369   6.174 -0.1622  0.1612 -0.0029
10482W        W53535  20.478  18.470  27.178 -0.1404  0.1151  0.0000
10483W        W53536  10.415  16.258  25.252 -0.3083 -0.1086 -0.2949
10484W        W53537  30.827  29.704  24.026 -0.2123 -0.1608 -0.0085
10485W        W53538  16.194  12.254  24.046  0.1120  0.2153 -0.1664
10486W        W53539  28.936  16.994   8.035  0.2102  0.1797  0.1457
10487W        W53540   8.795   4.201   8.636  0.2306 -0.1254 -0.0252
10488W        W53541   0.478  25.758  19.179 -0.3399  0.2032 -0.1068
10489W        W53542  21.236   6.268   3.897 -0.0286 -0.4385 -0.0192
10490W        W53543   6.519  12.014  26.552  0.0282 -0.0324 -0.3323
10491W        W53544   0.141  11.688  10.293  0.3556  0.0096  0.1838
10492W        W53545   4.051  17.364  21.703 -0.4148 -0.0283 -0.2225
10493W        W53546   9.066  32.836   7.451  0.0487  0.3387 -0.1782
10494W        W53547  34.606  31.678   7.118  0.0994 -0.0815  0.2660
10495W        W53548   2.815  15.160  26.721 -0.0913 -0.2625 -0.0910
10496W        W53549   5.853  10.042  20.745 -0.3375  0.1874 -0.1386
10497W        W53550  15.934  17.615  25.603 -0.1053 -0.2022  0.0891
10498W        W53551  26.358  19.932   9.570  0.3892  0.3001  0.1164
10499W        W53552  31.321  10.375  16.581  0.0252 -0.0797  0.1064
10500W        W53553  12.633  13.998  26.541  0.0164 -0.0966  0.1769
10501W        W53554  30.543   9.643   7.360  0.2069  0.0836  0.0654
10502W        W53555  24.373  26.817  23.319  0.0526 -0.2496 -0.0264
10503W        W53556  12.701  12.530   8.787 -0.3874  0.0349 -0.1694
10504W        W53557  15.379  15.207  27.022 -0.4978 -0.2856 -0.0130
10505W        W53558   6.849  22.620  15.284 -0.0058 -0.1079 -0.0994
10506W        W53559   4.150   4.594  21.418  0.2901 -0.0464 -0.0467
10507W        W53560   7.793  27.149  23.424  0.1127 -0.0116  0.1047
10508W        W53561   3.016  22.832   7.158 -0.0733  0.1023 -0.3062
10509W        W53562   3.698   2.994  23.077  0.0357  0.2257 -0.3562
10510W        W53563   4.738  25.692   7.007  0.1181 -0.3015 -0.2058
10511W        W53564   0.806  11.066   0.142  0.1608  0.2355  0.2429
10512W        W53565  32.749  23.625   3.621  0.1789  0.0252 -0.1208
10513W        W53566  27.363  21.182  17.702 -0.0107  0.1836 -0.0458
10514W        W53567   7.481  22.009   2.562 -0.4241  0.2877  0.3868
10515W        W53568  31.332   7.081  22.469  0.0815  0.1861 -0.1883
10516W        W53569  13.017  33.804   7.138 -0.4092 -0.0248  0.0077
10517W        W53570  32.094  20.258  27.049 -0.4471  0.0014 -0.0931
10518W        W53571   5.785  34.378  24.563  0.1544  0.2821  0.2548
10519W        W53572  18.041  21.861   1.717  0.2084 -0.1956  0.1153
10520W        W53573   9.442   0.406   3.323 -0.0464 -0.2463  0.1134
10521W        W53574  12.850   0.168  20.978  0.0652 -0.2655  0.1385
10522W        W53575  29.684  13.340  18.490 -0.3412 -0.2501 -0.2413
10523W        W53576  27.023  16.186  18.801 -0.1310 -0.0445 -0.0648
10524W        W53577   8.757  10.994  16.597  0.0624  0.0279 -0.0496
10525W        W53578   0.825  25.973  24.842  0.3579 -0.0967  0.0470
10526W        W53579   1.443  15.200   5.532  0.0468  0.0874  0.1182
10527W        W53580  30.072  23.781  26.327 -0.0091 -0.0232 -0.2357
10528W        W53581  19.215  25.089  23.462 -0.1678 -0.4641  0.2831
10529W        W53582   8.837   5.531   2.180  0.3018  0.1007 -0.0478
10530W        W53583  12.101  15.812  27.136 -0.1709 -0.1602 -0.1617
10531W        W53584  21.760   2.835  23.837  0.1944  0.1780 -0.3386
10532W        W53585  10.653  19.170   8.056  0.2336  0.2958  0.3071
10533W        W53586   3.052  27.195  14.745  0.0708  0.1691  0.2923
10534W        W53587   4.606  20.061  21.206  0.1838 -0.0821  0.2548
10535W        W53588  23.898  11.196  19.786  0.1101 -0.0889 -0.0906
10536W        W53589  17.806  31.531   2.405 -0.1162  0.1601  0.1567
10537W        W53590  24.941  17.364  19.230 -0.4177  0.0407  0.2316
10538W        W53591   3.460   1.279   3.242 -0.1800 -0.1854 -0.2009
10539W        W53592  21.185  14.333   3.127 -0.3310  0.0898 -0.0701
10540W        W53593  10.238  10.697  18.144  0.1602  0.0749  0.0927
10541W        W53594  28.625  30.392  26.914  0.0294 -0.1606  0.0554
10542W        W53595  16.429   7.882  18.134 -0.1406  0.5154 -0.0799
10543W        W53596   2.296  10.120   3.692 -0.0827  0.1463  0.2148
10544W        W53597   2.858   9.648  24.777 -0.1054 -0.1839  0.0773
10545W        W53598  26.470  26.583  19.122 -0.2508  0.2631  0.1318
10546W        W53599  19.427   1.557   4.320  0.1003 -0.2758  0.0522
10547W        W53600   2.078   6.551  18.541  0.0170 -0.2374  0.3115
10548W        W53601  10.391  32.167   3.944 -0.0017 -0.0857 -0.2884
10549W        W53602  22.237   8.293  27.822  0.1186  0.1780  0.0470
10550W        W53603  29.195  31.365  14.545 -0.0803  0.0982  0.3487
10551W        W53604  29.939  15.359  17.085  0.1404  0.1690  0.0929
10552W        W53605   4.578   2.595   0.542  0.2280 -0.2072  0.3422
10553W        W53606   4.819  12.624   7.286 -0.0409  0.2401  0.1219
10554W        W53607   9.695   3.100  16.633 -0.0190 -0.0381  0.0013
10555W        W53608  32.178  17.635   3.230  0.0230  0.1667  0.0689
10556W        W53609   3.739  12.589  28.473 -0.1605  0.0274 -0.2608
10557W        W53610  22.768   6.230  21.139  0.1539 -0.0474  0.0323
10558W        W53611   9.409  15.759  22.214 -0.0143  0.1507 -0.0503
10559W        W53612  14.479   1.145  21.454 -0.1895 -0.0028 -0.1998
10560W        W53613  10.853  19.227  16.537 -0.1382 -0.1551 -0.0061
10561W        W53614  33.410   3.396  25.965  0.1842  0.1907 -0.2771
10562W        W53615  26.264   4.404   7.211  0.1721  0.0576 -0.0518
10563W        W53616  23.796  21.178   8.129  0.1341 -0.0664  0.0382
10564W        W53617  15.481  15.000  13.638 -0.3506  0.0653 -0.2089
10565W        W53618  22.724  11.598   6.384 -0.1564 -0.2806 -0.1004
10566W        W53619  34.490  20.498   3.320 -0.0498  0.1457 -0.2750
10567W        W53620   8.690  14.716  16.142  0.2891 -0.0114  0.0327
10568W        W53621  19.414  31.998  22.905 -0.2939 -0.0395 -0.2993
10569W        W53622   3.870  34.558  21.540 -0.0402  0.3178  0.1780
10570W        W53623  32.230  22.668   0.477  0.4298  0.5684  0.2472
10571W        W53624  27.307   7.525  29.192  0.1551 -0.3974  0.0365
10572W        W53625  31.497  16.672   9.024  0.0506  0.2201  0.4984
10573W        W53626   7.831   2.920  15.326 -0.0322 -0.3619  0.0547
10574W        W53627   1.033   8.626   6.328 -0.1308 -0.1578  0.0414
10575W        W53628   2.432  20.363  23.088  0.0975  0.0091 -0.2103
10576W        W53629  31.340  20.497  16.498 -0.0148 -0.2475 -0.1822
10577W        W53630  20.588  11.813  24.702 -0.0397 -0.1452  0.3385
10578W        W53631  21.714  22.093  15.952  0.2895  0.0078  0.2477
10579W        W53632  34.296  13.828  28.711  0.1807 -0.1164  0.2649
10580W        W53633  32.494   0.527   3.024 -0.0737  0.2975  0.2880
10581W        W53634   1.016   5.098  23.982  0.1977  0.2737  0.0959
10582W        W53635   4.863   9.367   7.177 -0.1734  0.0316  0.1429
10583W        W53636  31.744  33.010  21.594 -0.0394  0.0353 -0.1486
10584W        W53637  32.384  13.648  28.540  0.0046  0.0132 -0.0785
10585W        W53638   8.035  29.534  28.183  0.0161 -0.1501 -0.0320
10586W        W53639  18.226  28.265  22.842  0.0066  0.2976 -0.1278
10587W        W53640  30.252  24.487  20.204  0.1114  0.1713 -0.1209
10588W        W53641   4.966   5.509   5.917  0.0798  0.0399  0.2265
10589W        W53642   1.629  23.251   3.257 -0.0865  0.0063 -0.1113
10590W        W53643  29.487  11.893  21.645  0.0043 -0.1715  0.0444
10591W        W53644  24.149   1.132   8.163 -0.0788 -0.1944  0.5132
10592W        W53645  14.359   8.410  22.892 -0.0544 -0.2206 -0.2065
10593W        W53646  34.208  10.197  24.471  0.3376  0.1838 -0.1204
10594W        W53647  16.508  14.627   4.977  0.0436  0.2284 -0.5236
10595W        W53648  13.206  14.572   2.213  0.0159  0.0834  0.1606
10596W        W53649  30.407   7.880  27.988  0.1386  0.2818 -0.2876
10597W        W53650  11.096   8.975   0.811 -0.1536 -0.2425 -0.4117
10598W        W53651  17.942  16.490  25.792  0.0101  0.0363 -0.1765
10599W        W53652   5.536  18.028  15.890  0.1350  0.3390  0.1843
10600W        W53653   2.180   9.304  18.470 -0.0593  0.1523  0.2294
10601W        W53654  29.781  17.196  14.922 -0.0756 -0.0314  0.1967
10602W        W53655   3.396  15.240   7.059 -0.2263 -0.0370  0.0875
10603W        W53656  34.287  13.466   7.359 -0.1064  0.2076  0.0798
10604W        W53657  22.999  21.761  28.179  0.2067 -0.1363 -0.1505
10605W        W53658  31.297  10.980   4.183  0.1404  0.1380 -0.1968
10606W        W53659  20.244  11.391  26.414  0.2770 -0.0263 -0.0630
10607W        W53660   6.886  12.495  24.266  0.0047 -0.1881  0.0966
10608W        W53661   2.997  28.554  23.609  0.0606 -0.0704  0.3761
10609W        W53662   7.925  34.436   2.985 -0.0569  0.0686  0.0084
10610W        W53663  13.792   6.064  10.729  0.6432  0.0634 -0.0647
10611W        W53664   3.574   9.642  22.068 -0.1607 -0.0941 -0.2791
10612W        W53665   5.121  11.831  20.755 -0.1209  0.1107 -0.2649
10613W        W53666  31.704  24.088  14.877  0.1662 -0.0577 -0.0299
10614W        W53667  25.150  30.572   0.245  0.0286  0.0762  0.0257
10615W        W53668   3.647  19.915   0.962 -0.0891  0.1839 -0.0420
10616W        W53669  18.898  21.031  15.483  0.0577  0.1603 -0.1310
10617W        W53670   9.355  11.913   8.148 -0.2646 -0.1349 -0.2364
10618W        W53671   7.466  25.247   0.513 -0.0669 -0.0474 -0.0845
10619W        W53672  32.644  21.775  13.498 -0.1971  0.2634 -0.1533
10620W        W53673  22.465  22.156  18.254 -0.0009 -0.0938 -0.3268
10621W        W53674  23.608  16.968   7.203  0.1740  0.0679  0.1373
10622W        W53675   6.299   6.639   9.158  0.2245 -0.0805  0.0352
10623W        W53676   6.644  33.664   8.633  0.1356  0.2736 -0.4273
10624W        W53677   0.789   9.743   3.514  0.1356  0.0845 -0.1248
10625W        W53678  21.520   3.535  26.203 -0.3303  0.1649  0.0067
10626W        W53679   1.279  13.241  23.435 -0.2510  0.1076 -0.0231
10627W        W53680  27.695  19.740  20.093  0.1238  0.2435 -0.2023
10628W        W53681  19.877   3.917  22.478  0.2446 -0.3496 -0.0915
10629W        W53682   9.666  16.353  16.212  0.2302 -0.3057 -0.1297
10630W        W53683  27.663  18.944   7.237  0.2111 -0.0192 -0.1147
10631W        W53684  34.657  13.267   3.237  0.0715  0.0615  0.1668
10632W        W53685  11.097   9.461   4.269 -0.0965  0.1611 -0.0597
10633W        W53686  25.422   1.382   4.114 -0.0757  0.2794 -0.3140
10634W        W53687   2.614   0.306   6.682  0.0046  0.0365 -0.1258
10635W        W53688  33.081   6.298  27.650  0.2582 -0.0884 -0.1169
10636W        W53689   5.062  15.509   5.322  0.0102 -0.2870  0.3479
10637W        W53690  27.509  16.622   0.743  0.0492  0.2144  0.0608
10638W        W53691  31.822  16.298  13.822 -0.1240  0.3144  0.0306
10639W        W53692   5.983   8.133   0.929  0.2857  0.1383  0.1034
10640W        W53693  29.217  25.324   8.486  0.2661 -0.1740  0.1170
10641W        W53694   8.987  16.960   5.771 -0.1565  0.0711 -0.0007
10642W        W53695  18.696  31.102  24.910  0.3163  0.4047 -0.0405
10643W        W53696  33.643  32.375  21.021  0.0860 -0.0604  0.1838
10644W        W53697   6.685  24.838  13.781  0.3048 -0.3184  0.0872
10645W        W53698   9.476   7.451  15.901 -0.2580 -0.0422 -0.0293
10646W        W53699  34.309  20.617  15.723  0.0233 -0.1409  0.2185
10647W        W53700   9.485   7.201  22.901 -0.0522  0.0593 -0.2342
10648W        W53701  30.380   8.237   3.177 -0.1407  0.0042 -0.2423
10649W        W53702  28.811   4.716  22.141 -0.1410 -0.0914 -0.0067
10650W        W53703  29.768  32.560  14.545 -0.1201 -0.0568  0.0911
10651W        W53704  10.788  20.096  20.918 -0.1368  0.1347 -0.2921
10652W        W53705   6.217  25.688  15.819  0.1597  0.4726 -0.0947
10653W        W53706  32.612   2.449  20.842 -0.2424 -0.0558 -0.0345
10654W        W53707   1.531  12.921  21.488 -0.0129  0.0706 -0.2353
10655W        W53708  22.192  10.212  19.540 -0.2042  0.2942  0.0714
10656W        W53709  33.917  17.137  21.288 -0.1290  0.5808  0.1712
10657W        W53710  11.154  18.993  18.262 -0.1037  0.0669 -0.1723
10658W        W53711   9.741  10.048  21.926  0.2362  0.1542  0.0832
10659W        W53712   1.246  17.444  24.982 -0.0730  0.0544  0.2140
10660W        W53713  30.757  19.187   1.068  0.1673  0.2118 -0.2028
10661W        W53714  22.923  18.766  21.608  0.1227  0.0839 -0.0155
10662W        W53715  31.766  21.477  18.396  0.0451 -0.1121  0.0718
10663W        W53716   7.804  20.141  19.047 -0.1814  0.4622  0.2880
10664W        W53717  32.543  24.192   1.474 -0.1057  0.1024 -0.2420
10665W        W53718   6.025  33.513   2.457  0.1165 -0.1675  0.0229
10666W        W53719  32.332   2.876  18.374 -0.3520 -0.0507 -0.1767
10667W        W53720  33.862   6.231  20.903  0.0932  0.1579  0.0547
10668W        W53721  27.098  29.270   0.319 -0.0286  0.3420  0.2479
10669W        W53722  29.402  30.168  20.890 -0.0727  0.2442  0.3576
10670W        W53723   5.579   9.645  18.446  0.0298 -0.1010  0.2968
10671W        W53724   0.557  25.412  21.779  0.4908  0.0525  0.4131
10672W        W53725  11.321   8.594  16.060  0.3237  0.0340 -0.0830
10673W        W53726   3.779  10.050  23.912  0.2249  0.1370 -0.1911
10674W        W53727  29.585  24.275  15.377  0.2624 -0.1040 -0.2260
10675W        W53728  26.810   0.404  15.947 -0.1621 -0.3650 -0.3013
10676W        W53729   8.630  26.319  15.421 -0.4322  0.3706  0.2250
10677W        W53730  24.774   5.542  22.687  0.2168  0.2109  0.3410
10678W        W53731  17.627  31.606  27.680  0.0925 -0.1174  0.4266
10679W        W53732   1.432  19.008  14.568  0.0670  0.0599  0.2401
10680W        W53733  21.458  11.705  14.377  0.2327 -0.2257 -0.3663
10681W        W53734   2.359  15.656  14.224  0.2895 -0.0906 -0.0350
10682W        W53735  14.838  18.472  16.075 -0.0137 -0.0686  0.1615
10683W        W53736  34.630  28.824  27.509  0.0147 -0.2832 -0.2955
10684W        W53737  25.776  12.254  27.070 -0.1385 -0.1992 -0.2564
10685W        W53738   6.156  25.975  14.074 -0.4996  0.1622  0.0961
10686W        W53739   1.371  16.149  15.121  0.1970  0.1106 -0.1771
10687W        W53740  13.708  17.029  26.373  0.0795  0.2792  0.1725
10688W        W53741  22.210  27.028  23.856  0.0411 -0.1082 -0.0141
10689W        W53742  16.393  22.319  16.289  0.2284 -0.3193  0.2774
10690W        W53743   1.890  16.047  22.395  0.1185  0.0919 -0.1289
10691W        W53744   1.057   8.372  20.709 -0.0415 -0.0628  0.0780
10692W        W53745   6.419  15.046  16.142 -0.4664  0.0279  0.2788
10693W        W53746  29.412  13.793   9.988 -0.0316  0.3019  0.2736
10694W        W53747  33.980  21.881  21.160 -0.0817  0.4155  0.0100
10695W        W53748   4.437  30.813  13.095 -0.0027  0.1609 -0.0137
10696W        W53749   5.785  22.415  26.137 -0.2270 -0.0712 -0.0936
10697W        W53750   6.734  19.933  14.606 -0.0788 -0.0461  0.0167
10698W        W53751   6.099  14.779  23.139  0.2094  0.0577  0.1794
10699W        W53752  19.421   2.076   2.544  0.0344 -0.1015 -0.0885
10700W        W53753  29.685  17.303  22.654  0.0252  0.1795  0.1418
10701W        W53754  28.800  13.683  28.105  0.2624 -0.0721  0.1460
10702W        W53755   2.113  14.315  20.059 -0.3437  0.2914 -0.1735
10703W        W53756  10.303  14.952  21.242 -0.4089 -0.1722 -0.0393
10704W        W53757  29.216  25.128  17.780 -0.3143 -0.3511  0.2046
10705W        W53758  33.901   8.093  27.523 -0.0380 -0.0222  0.0464
10706W        W53759   5.091  15.065   8.141  0.2551  0.1735  0.0122
10707W        W53760   7.594  27.059  13.738  0.1728 -0.0341  0.0733
10708W        W53761  29.613   4.661  15.119 -0.2055 -0.0149 -0.1162
10709W        W53762   9.791  19.995  14.727  0.0618  0.0098  0.0487
10710W        W53763   3.841  21.340   0.032 -0.0404 -0.1289  0.6456
10711W        W53764  31.289  20.865  17.265  0.0871 -0.0382  0.0046
10712W        W53765  25.064  25.149  26.600  0.1120  0.1521  0.1462
10713W        W53766   2.167  19.772  20.680 -0.2401 -0.1622  0.2723
10714W        W53767  26.328  10.005  15.462  0.0675 -0.0543  0.1160
10715W        W53768  31.836  23.290  15.818 -0.3824  0.1338 -0.1788
10716W        W53769  31.883  17.253  18.513  0.0673 -0.1686 -0.2224
10717W        W53770   7.435  19.307  17.447 -0.0402 -0.2277 -0.0129
10718W        W53771  30.804   7.739  20.191  0.0466  0.0927  0.2043
10719W        W53772   9.193  16.071  14.927 -0.0257 -0.4274 -0.0328
10720W        W53773   5.596  25.291  18.920 -0.0253 -0.0218  0.0232
10721W        W53774  27.290  10.344  19.766 -0.1284 -0.0845  0.2263
10722W        W53775  15.195  11.367  21.810 -0.1171  0.1491 -0.0995
10723W        W53776  31.674  16.444  17.926 -0.0790  0.0167  0.2584
10724W        W53777   7.722   8.152  21.592 -0.0038  0.1699 -0.1366
10725W        W53778   2.663  26.818  16.017 -0.0112 -0.0359 -0.0895
10726W        W53779  32.981   2.824  16.402 -0.0997 -0.3684 -0.2927
10727W        W53780  12.412   8.241  14.779 -0.1866  0.3006 -0.1590
10728W        W53781  28.908  12.944  10.306 -0.2030  0.0930  0.3131
10729W        W53782   6.383  14.266  16.361 -0.1090 -0.0647 -0.0162
10730W        W53783   3.454  10.602  15.705 -0.0837 -0.0776 -0.1444
10731W        W53784  22.756  13.813  25.086 -0.0149 -0.3314  0.2754
10732W        W53785  31.505  32.929  18.767 -0.1021  0.2995 -0.0799
10733W        W53786  23.943   1.551  15.001  0.2406  0.0242  0.0854
10734W        W53787   1.179  16.369   1.341  0.1035  0.1320 -0.1985
10735W        W53788  20.391  16.552  22.353  0.3353  0.0327  0.2006
10736W        W53789   3.446   6.419  10.022  0.1044  0.1213  0.0547
10737W        W53790  21.681  21.127  26.189  0.1425 -0.1861  0.2668
10738W        W53791   3.160  24.934  15.306  0.0215 -0.0393 -0.0077
10739W        W53792   9.707   1.769  22.261  0.1943  0.0480  0.1425
10740W        W53793   0.200  11.154  14.406  0.1314  0.3224 -0.0801
10741W        W53794  33.149   6.192  22.883  0.1637  0.2039  0.2471
10742W        W53795  10.789  26.452  17.039 -0.0446  0.2261 -0.1180
10743W        W53796  30.002  12.871   1.335 -0.1610  0.2040 -0.0384
10744W        W53797  13.384  10.442  18.127  0.1718 -0.1109 -0.2309
10745W        W53798  24.887  23.451  15.392  0.0139 -0.0095 -0.0146
10746W        W53799   6.206   4.308  20.940 -0.0008  0.0741 -0.0195
10747W        W53800   7.289  25.182  15.362 -0.0189  0.0323 -0.1669
10748W        W53801  27.860  27.490   8.252  0.1476  0.1633 -0.2176
10749W        W53802  28.648  17.199  17.579 -0.0469 -0.1140  0.0021
10750W        W53803  10.171  19.598   2.171  0.0472 -0.2836  0.2347
10751W        W53804   8.232  34.492  19.562  0.0131  0.0240  0.1385
10752W        W53805   7.648   2.919  20.302 -0.3020  0.0197  0.0069
10753W        W53806  30.067  22.736  17.828  0.0299 -0.2731  0.1932
10754W        W53807  13.206  13.681  27.998  0.1226  0.0851  0.1057
10755W        W53808  24.150   9.820  19.692  0.0914 -0.3632  0.1680
10756W        W53809   2.665  14.507  13.300 -0.0656  0.1143 -0.1652
10757W        W53810  28.692   1.890  18.749  0.1474  0.0025  0.2121
10758W        W53811  23.121  22.028  17.609 -0.0413  0.0609 -0.0809
10759W        W53812  11.218   5.865   1.060  0.1622 -0.1377  0.0743
10760W        W53813  33.130  26.151  14.002 -0.0647 -0.3216  0.0051
10761W        W53814   6.289  20.772  13.829  0.0781  0.1853 -0.0292
10762W        W53815   0.286  17.712  21.883  0.0735  0.0697 -0.0595
10763W        W53816  24.145   7.077  14.658  0.0670 -0.1195 -0.2057
10764W        W53817  15.867  24.820  16.774 -0.0719  0.3006  0.0285
10765W        W53818   7.271   3.252   2.381  0.1730  0.0656 -0.2299
10766W        W53819  13.536   2.546  21.260 -0.0108  0.0670  0.2211
10767W        W53820   1.014   6.025  28.688  0.2518 -0.0910  0.3083
10768W        W53821  32.489   9.682  15.147 -0.3869  0.0712  0.0582
10769W        W53822   7.402  23.634  27.721  0.1036  0.2182 -0.1834
10770W        W53823   9.657  12.120  15.512 -0.1912 -0.1510 -0.0992
10771W        W53824  26.451  23.875  17.528  0.2899 -0.0405 -0.0102
10772W        W53825  31.605   5.786  26.993  0.1185 -0.1556  0.0512
10773W        W53826  30.678  17.242  22.525  0.2800  0.1360  0.1747
10774W        W53827  34.450  31.881  14.873 -0.0696  0.0334  0.4741
10775W        W53828   1.459  19.705  17.943 -0.1059 -0.4409  0.1142
10776W        W53829  29.120   5.465  20.685  0.0588  0.0257 -0.0179
10777W        W53830   8.727   3.578  15.064  0.1451  0.0741 -0.4105
10778W        W53831  13.755  33.361  20.139  0.0143  0.1652  0.1615
10779W        W53832  31.645  24.895  17.214 -0.0297 -0.0474 -0.4142
10780W        W53833  34.639  19.778  17.747  0.3155  0.0642  0.1366
10781W        W53834  29.771  20.312  25.537 -0.2943 -0.0586 -0.0329
10782W        W53835  34.219  26.029  27.726  0.1003 -0.0912  0.0534
10783W        W53836  34.062  15.705  18.183 -0.1193  0.1976  0.1693
10784W        W53837   8.908   2.915  23.233  0.0457 -0.1870  0.2112
10785W        W53838  15.761   7.267  17.475 -0.0065  0.1010 -0.0502
10786W        W53839  30.753   3.347  22.443 -0.0855  0.1051  0.1129
10787W        W53840   0.177  22.320  23.209  0.1250  0.1700 -0.1347
10788W        W53841  15.263  11.060  15.770 -0.0155 -0.0933  0.0866
10789W        W53842  24.550  15.746  14.173 -0.0479  0.0696  0.0073
10790W        W53843   5.913  33.621  14.846 -0.0939  0.1628 -0.1633
10791W        W53844  10.331   7.288  24.694 -0.1688  0.0364  0.0794
10792W        W53845  28.151  27.871  14.821  0.1003  0.1242 -0.2786
10793W        W53846  30.430  31.807  19.556  0.0207  0.0874  0.0450
10794W        W53847  11.987   5.132   1.165 -0.1265 -0.1821 -0.1732
10795W        W53848   9.712   5.163  20.002  0.2452  0.1183  0.0787
10796W        W53849   0.853  18.464  13.992  0.0285 -0.1738 -0.1611
10797W        W53850   4.267  14.743  14.233 -0.1086 -0.0783 -0.2189
10798W        W53851   2.946   4.077  23.633 -0.3362 -0.0338 -0.0175
10799W        W53852  17.303  16.240  14.404 -0.0069  0.0556 -0.0212
10800W        W53853   0.030  22.521  14.966  0.2139 -0.0898 -0.3222
10801W        W53854  24.372  11.955  27.144 -0.3076  0.2581  0.2107
10802W        W53855   8.231  22.791  16.236 -0.1463 -0.0184  0.0871
10803W        W53856   4.907  16.784  19.145 -0.2761  0.1631 -0.0506
10804W        W53857   8.324  21.257  19.243  0.0552 -0.1785 -0.1761
10805W        W53858  25.899  19.061  22.562 -0.1239 -0.3176 -0.0062
10806W        W53859  22.169  27.812  24.459 -0.0317  0.0305  0.3343
10807W        W53860  34.387   9.227  22.303  0.1447  0.0797  0.2300
10808W        W53861  27.969   5.463  14.500  0.0432  0.1766 -0.3087
10809W        W53862   2.369  25.550  21.151 -0.0676  0.0658  0.0568
10810W        W53863   0.611   9.703  18.414 -0.0515  0.1466 -0.1365
10811W        W53864   4.972  20.249  14.627  0.2454  0.0340  0.1749
10812W        W53865   1.472  12.513  16.763  0.0985  0.1571 -0.0525
10813W        W53866  29.378  17.746  27.024  0.1369 -0.0759 -0.3887
10814W        W53867  26.587  27.714  16.127 -0.0784  0.0886 -0.1492
10815W        W53868  10.549  27.726  22.921 -0.2007  0.0246  0.1810
10816W        W53869  32.156  19.361  17.291  0.0794  0.2902  0.1356
10817W        W53870   4.376  24.612  14.136  0.1137 -0.2942  0.1234
10818W        W53871   5.962   8.360  18.347 -0.0668  0.2823  0.4362
10819W        W53872   3.537   0.958  15.656  0.2742 -0.0903  0.1046
10820W        W53873  23.823  18.148  21.104 -0.0696  0.4256 -0.3415
10821W        W53874  30.299  26.483   4.001 -0.3182 -0.2147 -0.3925
10822W        W53875  13.812  20.170  22.173  0.3440  0.1653  0.0294
10823W        W53876   2.248  26.075  15.543  0.0143 -0.1476 -0.2450
10824W        W53877   0.294   8.778  14.987 -0.2324  0.1865 -0.0529
10825W        W53878  24.719  12.754  19.435  0.0516 -0.1050  0.0809
10826W        W53879  32.368  18.350  17.746  0.0816 -0.0204  0.1694
10827W        W53880  31.383  14.033  27.666  0.0999 -0.0935  0.3521
10828W        W53881  30.463   6.946  19.774 -0.0664  0.2499 -0.0913
10829W        W53882  18.577   1.108  15.804 -0.1013  0.1672 -0.1712
10830W        W53883  26.842  13.686  16.485 -0.2326 -0.4783 -0.3620
10831W        W53884  28.938   8.984  27.730 -0.1129 -0.0486 -0.3905
10832W        W53885   7.902  20.715  17.296  0.0347 -0.2305  0.0933
10833W        W53886  25.957  10.983  26.614 -0.0287 -0.1421 -0.2769
10834W        W53887  17.337  27.757  22.003 -0.2190  0.0337 -0.0158
10835W        W53888   7.862  25.778  27.640 -0.0262 -0.4436  0.0402
10836W        W53889  29.149  16.503  18.545  0.1805  0.0737 -0.1905
10837W        W53890  33.722  18.536  19.078  0.0808  0.0345 -0.4991
10838W        W53891   3.045  31.046  20.034 -0.1555 -0.1995 -0.1975
10839W        W53892  27.005  24.836  20.437 -0.0385  0.1071  0.0057
10840W        W53893  33.398  17.149  13.894  0.3487 -0.1921 -0.3193
10841W        W53894  18.046   8.817  20.216 -0.1182  0.0392 -0.1524
10842W        W53895  13.280  22.369  18.068  0.3054 -0.2196  0.1485
10843W        W53896  29.374  12.420  17.983 -0.1262 -0.4555  0.1393
10844W        W53897  21.527  12.086  17.674  0.0607 -0.0871 -0.3041
10845W        W53898  21.827  21.138  21.733  0.0944 -0.1007  0.2896
10846W        W53899  26.849  29.755  19.472  0.2417 -0.2448 -0.1152
10847W        W53900   6.509  18.638  18.219  0.3876  0.0228  0.0662
10848W        W53901   1.448  22.829  20.290 -0.3375  0.1226 -0.0752
10849W        W53902   9.340  34.182  15.304 -0.0515  0.3377  0.3157
10850W        W53903   4.760  12.436  17.355  0.0253  0.2439 -0.3470
10851W        W53904  24.791  12.365  23.567 -0.2586 -0.1530 -0.1467
10852W        W53905  29.162  17.313   2.036  0.1884 -0.1684 -0.1367
10853W        W53906   5.537  18.561  17.309 -0.0871 -0.1795  0.1617
10854W        W53907  26.057  19.519  18.296  0.0043 -0.3112 -0.1542
10855W        W53908  12.681  23.967  21.588  0.1417 -0.1304  0.0228
10856W        W53909  33.774  20.895  20.119  0.0582 -0.1045 -0.1292
10857W        W53910  27.987   6.525  23.809  0.0219 -0.1108 -0.0572
10858W        W53911  32.140  18.420  14.680 -0.0390 -0.1893  0.1644
10859W        W53912  33.723   3.086  18.439 -0.0813 -0.0232 -0.0627
10860W        W53913  25.153   0.549  28.048 -0.1501  0.1425  0.0347
10861W        W53914   3.863   2.816  16.039  0.2272 -0.1114  0.1672
10862W        W53915  30.740  27.814  20.580 -0.1240 -0.3770 -0.2291
10863W        W53916  32.653  19.599  25.936 -0.3204  0.0988 -0.0397
10864W        W53917   4.555  16.869  22.023 -0.0158  0.0247  0.1276
10865W        W53918  34.478  16.813  16.657 -0.1733 -0.1547  0.1831
10866W        W53919   7.099  20.916   9.237  0.2132  0.0592 -0.4719
10867W        W53920   0.915  20.884  19.426 -0.2766 -0.0812 -0.0612
10868W        W53921   2.453  14.852   4.234  0.0002  0.0209  0.0023
10869W        W53922  26.367  21.206   8.219  0.0021  0.3093 -0.2228
10870W        W53923   6.498  11.599  26.250  0.1455  0.0346  0.1606
10871W        W53924   6.554   7.214  25.634 -0.1446  0.1789  0.1925
10872W        W53925  32.481  26.168  16.660  0.0908  0.0081  0.2445
10873W        W53926  21.649  19.083  19.169  0.0216 -0.1197  0.0684
10874W        W53927   6.000  19.858  20.187 -0.3170 -0.3076 -0.2695
10875W        W53928   6.154  20.783  17.640 -0.0550 -0.0432  0.0623
10876W        W53929  28.611  14.889   8.530  0.2204 -0.0988  0.0839
10877W        W53930   4.076  12.195  14.647 -0.2204  0.1761 -0.1735
10878W        W53931  21.643  30.283  21.712  0.1338  0.1655  0.0854
10879W        W53932   8.886  19.378  24.048 -0.4063  0.3178 -0.0774
10880W        W53933  15.309   4.714  18.700 -0.3184  0.1441  0.2333
10881W        W53934   4.702  30.247  14.837 -0.1856 -0.0083  0.0952
10882W        W53935  11.431  18.153  17.360  0.1961  0.1183  0.1021
10883W        W53936  11.131  10.471  26.576  0.1810  0.1311  0.0498
10884W        W53937  29.769  23.444  26.200  0.1894  0.0275 -0.2327
10885W        W53938  30.845  18.360  20.778 -0.0402  0.1264  0.2777
10886W        W53939   0.348   8.310  21.206 -0.1083 -0.3371  0.4054
10887W        W53940  25.802  10.280  24.991  0.0155  0.1962  0.1205
10888W        W53941   6.436  28.944  25.498 -0.3038  0.1472 -0.1171
10889W        W53942   9.872  26.846  24.836  0.0862 -0.0389  0.2773
10890W        W53943   9.412  32.016  20.281 -0.2721  0.0226 -0.1612
10891W        W53944  26.034  28.471   0.113  0.0798 -0.0257  0.2916
10892W        W53945  28.307   3.031  14.471  0.0830  0.1245  0.0105
10893W        W53946  15.606  30.901   3.831  0.0137 -0.1688  0.0085
10894W        W53947   6.386   3.205   7.642 -0.2208 -0.1106 -0.1178
10895W        W53948   5.563  12.533   4.276 -0.1160 -0.0814 -0.1808
10896W        W53949   5.923  22.371  17.155 -0.0396 -0.0465 -0.2727
10897W        W53950  26.252  21.730  21.984 -0.1989 -0.1314  0.0463
10898W        W53951   7.771  13.381  16.571 -0.0974 -0.1842  0.1136
10899W        W53952  16.823  25.122   2.743  0.0956 -0.0993 -0.1397
10900W        W53953  23.531  13.066  23.417  0.0480 -0.1794 -0.0109
10901W        W53954  10.600  12.293  17.106 -0.0646  0.0666 -0.0763
10902W        W53955   3.855  23.686  18.550 -0.0554 -0.0660  0.3474
10903W        W53956  17.899   4.209  28.131  0.0863  0.2196 -0.1834
10904W        W53957  31.610  21.927  22.941  0.2120  0.1747  0.1443
10905W        W53958  23.493  30.755  14.587 -0.1980  0.1118  0.2851
10906W        W53959   0.766  13.742  26.332 -0.0971  0.1498 -0.0806
10907W        W53960  11.926  18.898  14.452  0.1428  0.3621 -0.0345
10908W        W53961  23.174  28.404  19.979 -0.1448  0.3858 -0.3056
10909W        W53962  33.454  27.786  16.658  0.0675  0.1477  0.2975
10910W        W53963  26.425  22.326  18.238 -0.0471 -0.0005 -0.3504
10911W        W53964   5.455  11.494  15.334  0.0572 -0.3187 -0.1776
10912W        W53965   2.082  23.795  19.286 -0.2168 -0.0434 -0.1807
10913W        W53966  33.137  23.267  14.323  0.1556 -0.1916 -0.2957
10914W        W53967  21.340  25.287  18.780 -0.2400 -0.0846  0.1952
10915W        W53968  23.581  12.725  22.670  0.0733 -0.2716 -0.0274
10916W        W53969  33.560  10.501  15.165  0.2054 -0.0697 -0.3876
10917W        W53970   5.117  18.133   0.174 -0.0173  0.0765 -0.0725
10918W        W53971   1.760  18.879  15.535 -0.2298 -0.0192  0.1717
10919W        W53972  23.888  24.497  22.210  0.1610  0.2273 -0.0395
10920W        W53973  32.822  11.055  19.097 -0.0502 -0.1972  0.2552
10921W        W53974  32.595  14.614  14.061  0.1661  0.1718 -0.4731
10922W        W53975  31.889   9.982  19.104  0.1407  0.1659 -0.1767
10923W        W53976  31.765   6.144  21.343 -0.1858  0.0237  0.2123
10924W        W53977  25.952   1.765   0.088 -0.2036  0.0384 -0.3532
10925W        W53978  29.650  22.487  27.696 -0.1083  0.0525 -0.4866
10926W        W53979   7.047  11.535   1.096  0.0793 -0.1414  0.1956
10927W        W53980   2.262  22.548  19.566  0.3281  0.0096  0.2669
10928W        W53981  21.780  11.830  20.988 -0.0798 -0.0588  0.1626
10929W        W53982   4.290   7.958   6.610 -0.0823  0.2353  0.0580
10930W        W53983  12.098  12.860  15.621  0.0397  0.1174  0.0411
10931W        W53984  11.819  29.309  23.827 -0.1533  0.3956 -0.1081
10932W        W53985  25.134  30.455  19.553 -0.0964  0.0682 -0.0068
10933W        W53986  19.313  14.640  15.506  0.1543 -0.1030 -0.0043
10934W        W53987  30.949  19.740  15.323 -0.0455  0.0326 -0.1102
10935W        W53988   2.624  14.076  14.245 -0.1461 -0.0585  0.1936
10936W        W53989  17.966  17.606  23.583  0.0658  0.2050  0.1850
10937W        W53990   1.224  19.544  28.124  0.2003  0.2683  0.0543
10938W        W53991  34.247   4.881  22.287  0.2447 -0.3413 -0.1349
10939W        W53992  12.980  21.800  16.545  0.0991  0.0252  0.0318
10940W        W53993  10.688  25.775  21.126  0.0596  0.0566  0.0061
10941W        W53994  23.046  19.590  18.936 -0.0055 -0.2695  0.2007
10942W        W53995  23.249  26.848  28.586  0.4830  0.0448 -0.1780
10943W        W53996  31.495  23.609  17.856  0.1541  0.0747  0.2813
10944W        W53997  22.832  22.045  15.870  0.2146 -0.2035 -0.0045
10945W        W53998  11.496  19.281  16.718  0.2272  0.2809 -0.2032
10946W        W53999  29.753  22.754  22.128 -0.0105 -0.0186  0.0696
10947W        W54000  19.122  26.770  25.651  0.0435  0.3142 -0.1746
10948W        W54001  24.005  20.115  14.976  0.2434 -0.1861 -0.0295
10949W        W54002   7.598  28.766  25.678  0.0235 -0.0582  0.2714
10950W        W54003  17.632  17.830  14.654  0.0609 -0.2740  0.2273
10951W        W54004  29.861  16.120  19.054  0.0412  0.1653  0.0032
10952W        W54005  17.210  30.455  15.172 -0.2518  0.0082  0.4022
10953W        W54006  31.432  17.837  14.846  0.3438 -0.0030  0.0736
10954W        W54007   9.028  15.845  18.679 -0.0697  0.1406  0.4202
10955W        W54008  32.100  18.483  21.737  0.0667 -0.1510 -0.1971
10956W        W54009   5.624  31.210  16.626 -0.1652  0.0796 -0.0797
10957W        W54010   2.960   8.257  14.662 -0.0132  0.2189 -0.0637
10958W        W54011   5.789  17.064  18.397  0.2052 -0.3308  0.0368
10959W        W54012  30.318  16.464  28.726  0.2100  0.1014  0.2539
10960W        W54013  31.371  28.627   2.828  0.2677  0.0505  0.0752
10961W        W54014  18.655   4.589  20.372  0.1259 -0.1650  0.1233
10962W        W54015  19.685  24.401  21.540  0.0493 -0.1211  0.2750
10963W        W54016   0.945  22.277  22.760 -0.2478 -0.0220 -0.4900
10964W        W54017  28.647   5.647  28.543 -0.1503  0.1696  0.0086
10965W        W54018  33.560  32.445  14.582  0.1273  0.3429 -0.0680
10966W        W54019   9.176  15.521  25.450 -0.0212  0.2466  0.0301
10967W        W54020   2.131  21.096  21.905 -0.0078  0.1339 -0.0804
10968W        W54021   6.386  22.545  14.779  0.0862  0.1859 -0.0667
10969W        W54022  11.951  29.541  14.901 -0.1465 -0.2376 -0.4316
10970W        W54023  15.181  13.442  14.251 -0.1546 -0.0049 -0.1873
10971W        W54024   6.002   4.661   0.002 -0.0911  0.2463 -0.0993
10972W        W54025   2.395  13.929  19.810 -0.3197  0.0727  0.3075
10973W        W54026   3.674  15.948  21.282  0.0864  0.0677 -0.1086
10974W        W54027  11.441  19.630  24.863 -0.2713  0.1769 -0.2302
10975W        W54028   2.586   6.969  14.929  0.1085  0.1580  0.2302
10976W        W54029   4.653  23.298  15.074 -0.2562  0.2793  0.0664
10977W        W54030   6.670  21.306  28.429 -0.4557  0.1369  0.3142
10978W        W54031   4.435  10.457  22.511 -0.1979 -0.1453 -0.2838
10979W        W54032  14.722  30.407   0.706  0.0598  0.1000  0.0386
10980W        W54033   4.649  20.616  16.288  0.1163 -0.1459 -0.3167
10981W        W54034  14.711  26.366  19.866  0.2550  0.0366 -0.0963
10982W        W54035   5.095   8.143  21.777  0.0413  0.1835  0.2432
10983W        W54036  26.140  27.849   0.823 -0.1459 -0.1152  0.1303
10984W        W54037   6.307  32.245  19.173  0.4427 -0.1091 -0.0030
10985W        W54038  29.435  31.085  22.660  0.1740  0.1191  0.2440
10986W        W54039  24.561   9.965  16.336 -0.1640  0.0045 -0.0176
10987W        W54040  12.534   7.602  19.644  0.2218 -0.2801 -0.1226
10988W        W54041  15.688  28.570  24.765 -0.0920  0.0624  0.0715
10989W        W54042  31.213  14.842  15.308  0.2114 -0.1006 -0.6111
10990W        W54043  26.470   7.472  20.778 -0.1099 -0.1436  0.4673
10991W        W54044  19.279  34.497  19.071 -0.2252 -0.2036 -0.1295
10992W        W54045  26.446  15.179  26.030 -0.2810 -0.0629 -0.0204
10993W        W54046   2.576  15.786  26.413 -0.0859 -0.0171  0.0312
10994W        W54047  30.675  10.829   0.438  0.2470 -0.3514  0.0737
10995W        W54048   9.694   8.314  16.722 -0.1167  0.1590  0.1157
10996W        W54049  33.660  20.155  19.337  0.0943  0.3900  0.2356
10997W        W54050  32.683  33.837  14.960  0.1365  0.0172 -0.2051
10998W        W54051   5.098   5.863   4.413  0.1455  0.3706 -0.1875
10999W        W54052  27.832  15.680  23.384 -0.0571 -0.1192 -0.0479
11000W        W54053  13.446   8.563  16.775 -0.0459 -0.0897  0.0890
11001W        W54054   7.180  30.997  17.217 -0.1187 -0.1505  0.1508
11002W        W54055   1.995  22.867  17.293 -0.2906 -0.0782 -0.0904
11003W        W54056   0.495  29.667  23.919  0.1538 -0.3507 -0.1965
11004W        W54057   4.365  16.405  21.667  0.0565 -0.2629  0.1497
11005W        W54058  17.730  26.575  25.047 -0.2392 -0.1879 -0.0372
11006W        W54059   9.195  28.244   1.802 -0.1260 -0.0589 -0.2683
11007W        W54060   9.340  11.642  21.459  0.2452 -0.3274  0.0246
11008W        W54061  32.076   7.641  17.742 -0.1674 -0.2122 -0.0437
11009W        W54062  30.165  16.520  22.326  0.0221  0.0248  0.0321
11010W        W54063   2.384  14.713   0.103  0.0697 -0.3454 -0.0696
11011W        W54064  12.705  22.074  13.431  0.1399 -0.5140 -0.2237
11012W        W54065  12.182  11.816  28.699  0.3232  0.0901 -0.2868
11013W        W54066   4.178  10.354  21.738 -0.2138  0.0003  0.0143
11014W        W54067  31.353  26.615  20.210  0.0175 -0.0388 -0.1468
11015W        W54068  29.532  13.076  24.673 -0.0135 -0.3207  0.0796
11016W        W54069   8.237   2.642   8.088  0.0068  0.1355 -0.2430
11017W        W54070  33.835  10.427  16.802 -0.1317  0.1000  0.0092
11018W        W54071  31.900  20.114  28.737 -0.0701 -0.0729 -0.0035
11019W        W54072   3.572   8.603  27.832 -0.3730  0.0879 -0.1162
11020W        W54073  11.270  19.385  17.932 -0.1500  0.0917  0.0725
11021W        W54074   3.183   1.751   8.794  0.4221  0.0151 -0.1317
11022W        W54075   4.016  26.788  19.613  0.0924  0.2625  0.1222
11023W        W54076  12.489   7.794  26.655 -0.0339  0.1918 -0.0424
11024W        W54077   8.447  14.096  14.736  0.1184 -0.3446  0.1311
11025W        W54078  30.380  21.818  23.259 -0.2843 -0.0244  0.3342
11026W        W54079   8.365   7.023  14.749 -0.0153 -0.1749 -0.0457
11027W        W54080   9.850  25.186   3.108 -0.1958 -0.0948 -0.3001
11028W        W54081  12.897   5.822  15.432 -0.0980 -0.3068  0.1904
11029W        W54082   0.473  21.604  27.878 -0.2107 -0.0347 -0.1459
11030W        W54083  30.100   0.377  23.166 -0.1098 -0.0506 -0.2522
11031W        W54084   8.051  19.672  19.114 -0.1571  0.4101  0.2294
11032W        W54085   5.517  26.971   2.820 -0.2554 -0.1293 -0.2672
11033W        W54086   6.977  15.537  28.608 -0.2214  0.1569 -0.2914
11034W        W54087   8.741   4.041   5.127 -0.2256 -0.0502  0.0088
11035W        W54088   6.576  26.718  25.982 -0.1104  0.1909  0.2430
11036W        W54089   8.260   6.644  10.873 -0.2006 -0.4246  0.0001
11037W        W54090  30.130   6.914  27.005 -0.0031 -0.1724 -0.1221
11038W        W54091  29.911   8.348  20.376  0.3053  0.0422 -0.3515
11039W        W54092  10.797  30.079  15.266 -0.2117 -0.0423  0.0752
11040W        W54093  21.798  14.468  18.672 -0.1591  0.0194 -0.2468
11041W        W54094  32.222  31.927  21.200 -0.1933  0.1402  0.1503
11042W        W54095  23.003   1.699  28.426 -0.0947  0.1174 -0.4218
11043W        W54096   6.376   2.389  27.336 -0.2693 -0.1060 -0.1245
11044W        W54097  28.541   1.794  28.401 -0.0588  0.1575 -0.0024
11045W        W54098  26.744  32.054  25.200 -0.2377 -0.2515  0.0325
11046W        W54099   3.522  12.164  20.634  0.1570  0.0047  0.1092
11047W        W54100   5.686  10.645  19.855  0.0022 -0.2273 -0.0229
11048W        W54101  18.245   5.314  18.105  0.0757 -0.0740 -0.0471
11049W        W54102  29.939  22.994  20.277  0.0714  0.3493  0.0119
11050W        W54103  30.458  16.739  16.983 -0.0379  0.1497 -0.4190
11051W        W54104  24.508  27.209  23.035 -0.2468 -0.0726  0.4017
11052W        W54105  24.980  11.165  26.227 -0.0989  0.1545  0.0316
11053W        W54106  10.457  33.655  22.124 -0.3011  0.0925  0.2377
11054W        W54107   8.575  20.132  24.761 -0.0419  0.0617 -0.0394
11055W        W54108  25.626  26.957  16.734 -0.1528 -0.3701  0.0594
11056W        W54109  22.874  19.851  20.340 -0.3521  0.0272 -0.0488
11057W        W54110  17.334   5.378  21.325  0.0629  0.0980 -0.4882
11058W        W54111  31.071  25.374   7.248 -0.0966 -0.1693 -0.3914
11059W        W54112  23.981  21.401  21.804 -0.1344 -0.1596  0.2973
11060W        W54113  26.958   4.546  16.232  0.0540 -0.3407 -0.2704
11061W        W54114  15.756  34.058   5.869  0.2599 -0.0020 -0.0706
11062W        W54115  32.768  23.414  20.559  0.2890  0.1027 -0.0696
11063W        W54116  13.892  14.084  20.464 -0.2919  0.1853  0.0420
11064W        W54117  26.736  10.759  18.088  0.1086  0.1554 -0.0180
11065W        W54118   6.255   9.329  15.779 -0.1471 -0.4357 -0.2867
11066W        W54119   5.624  33.711  27.878  0.1874  0.0480 -0.2410
11067W        W54120  23.974  14.068  15.805  0.2476 -0.0484 -0.0439
11068W        W54121  29.023   1.482  23.802  0.4029 -0.1700  0.0332
11069W        W54122   9.469  28.761   5.691 -0.0183  0.1064  0.1585
11070W        W54123  34.681   5.889  15.299  0.0825 -0.0515 -0.2211
11071W        W54124   1.017  21.274  25.724  0.0448 -0.3229  0.0342
11072W        W54125   3.523   7.623  22.073  0.2138 -0.1814 -0.0774
11073W        W54126  32.351  22.944  14.191  0.1667 -0.1236  0.0282
11074W        W54127  13.416   8.279   0.604 -0.1040  0.2049 -0.1631
11075W        W54128   6.192   9.702   0.824 -0.2659  0.2865  0.4311
11076W        W54129   7.041  12.333  20.080 -0.0042 -0.0401 -0.1358
11077W        W54130   5.245  13.772   4.064  0.1705 -0.1183  0.0088
11078W        W54131  24.459  18.217  19.298 -0.0122 -0.0089  0.0645
11079W        W54132   7.872  21.276  21.348 -0.1772  0.1116 -0.0134
11080W        W54133   7.447  15.033  16.978 -0.0413 -0.2470  0.2282
11081W        W54134   0.334  14.741  19.471  0.0614  0.0400 -0.0634
11082W        W54135  10.729  27.742  17.499 -0.0300 -0.0799 -0.2302
11083W        W54136   8.266  24.730  27.562 -0.0560 -0.1574 -0.0373
11084W        W54137  16.239  26.776  22.033 -0.1261 -0.0327 -0.0882
11085W        W54138   7.668  20.715  26.668 -0.1760 -0.1496  0.4573
11086W        W54139  32.732  24.030  27.860 -0.0833 -0.3054 -0.2388
11087W        W54140  31.402  20.711  14.162  0.0123 -0.0592  0.2091
11088W        W54141   8.088  15.368  17.787 -0.2318  0.1621 -0.2495
11089W        W54142  10.135  19.617   6.418  0.0002 -0.1237 -0.3686
11090W        W54143  33.566   7.379  15.527  0.0559  0.2561 -0.1597
11091W        W54144   6.623  11.323   0.832 -0.2409 -0.1388  0.2189
11092W        W54145   7.358  11.617   6.774  0.1340 -0.2060 -0.2864
11093W        W54146  34.216  11.269  28.798  0.1055 -0.2333 -0.1038
11094W        W54147  34.310   5.909  20.826  0.1990  0.1349 -0.0698
11095W        W54148  16.109  11.744  26.114 -0.2413  0.2059 -0.1141
11096W        W54149  10.559   0.411  20.129  0.0203 -0.0900  0.2786
11097W        W54150   6.475  17.774  17.393  0.0828  0.3585  0.0144
11098W        W54151  34.213  14.569  18.978 -0.3415 -0.0742  0.0812
11099W        W54152  26.827  17.797  25.587 -0.0307 -0.0594 -0.0182
11100W        W54153   4.569  24.311  14.488  0.2931 -0.3092  0.2197
11101W        W54154  32.346  21.182  19.055 -0.0868 -0.1106  0.3240
11102W        W54155  31.266  15.655  24.476  0.1945 -0.2848  0.2301
11103W        W54156  27.877  19.393  20.946  0.0499 -0.1426  0.0985
11104W        W54157   1.118  28.988  13.943  0.2675  0.1585  0.1541
11105W        W54158  23.558  22.598  16.098  0.1486 -0.1290  0.1077
11106W        W54159  15.420  28.143  24.655 -0.0474  0.3413  0.1102
11107W        W54160  14.767  20.411  26.813 -0.0997  0.3768  0.0589
11108W        W54161   1.306  18.242  18.066  0.0453 -0.0231  0.2219
11109W        W54162   7.598   3.139  28.670 -0.4152 -0.1240 -0.2236
11110W        W54163  23.281  15.219  18.816 -0.0843 -0.0911  0.3525
11111W        W54164   2.368   9.754  16.645  0.1763  0.0447  0.2564
11112W        W54165  10.909  21.223  20.359 -0.0882 -0.2068 -0.1394
11113W        W54166  10.014  25.677   0.413  0.0403 -0.0298 -0.1169
11114W        W54167   5.828  17.357  20.801  0.2111 -0.1003 -0.1043
11115W        W54168  27.827   8.322  14.716  0.2181 -0.2751 -0.0254
11116W        W54169  24.348  12.870  20.284  0.1195  0.1359  0.0852
11117W        W54170  10.978  11.225  28.297 -0.2191 -0.0172 -0.0573
11118W        W54171  34.226   1.751   5.427 -0.0343  0.2269  0.0267
11119W        W54172  11.197   4.342  23.138 -0.0945 -0.0701 -0.0499
11120W        W54173  26.653  31.781  24.107  0.3031  0.0386  0.2759
11121W        W54174   6.969  20.433  18.839 -0.2499 -0.4018 -0.0221
11122W        W54175   1.151  20.338  20.335 -0.2476  0.2509  0.1994
11123W        W54176  12.268  16.948  16.184 -0.1341 -0.3198 -0.2668
11124W        W54177  18.555   7.686  17.903 -0.1045 -0.3541  0.1561
11125W        W54178  32.353  24.917  20.047  0.0787  0.0981  0.3321
11126W        W54179  30.310  19.170  17.793 -0.1929 -0.0586  0.1162
11127W        W54180  11.421  27.464  16.939  0.1056 -0.2308 -0.3425
11128W        W54181   8.641   9.805  21.117  0.0118 -0.0875  0.1773
11129W        W54182  10.873  23.802  17.316  0.0710 -0.0189  0.2484
11130W        W54183  29.751  12.786  28.847  0.1717 -0.2815  0.1788
11131W        W54184   5.343  33.348  14.720 -0.2573  0.1026  0.3846
11132W        W54185  24.195  20.114   6.025  0.2358  0.0965 -0.0108
11133W        W54186  10.152  29.127  21.843 -0.3672  0.0151  0.0563
11134W        W54187  29.667  24.286  26.549 -0.0279  0.0447 -0.2007
11135W        W54188   1.385  24.914  20.482 -0.0392  0.3461 -0.3160
11136W        W54189   6.347  16.514  21.054 -0.2822 -0.0891 -0.2155
11137W        W54190  17.134  25.727  22.621 -0.2702 -0.4364  0.0946
11138W        W54191   0.542   6.140   2.845  0.2485  0.0786 -0.0334
11139W        W54192   0.772  32.451  28.892  0.2126 -0.2932  0.1744
11140W        W54193  26.223  21.045  21.995 -0.1306 -0.2818  0.1437
11141W        W54194   8.598  31.210   8.450  0.0529  0.0896 -0.0913
11142W        W54195   5.537  27.170  13.970  0.1138 -0.0819 -0.5312
11143W        W54196  32.386  24.711  13.822 -0.0311 -0.1417 -0.1141
11144W        W54197  26.655  17.197  17.031 -0.1166 -0.1335 -0.0622
11145W        W54198   5.775  10.165  28.358 -0.0186 -0.0159 -0.1037
11146W        W54199   9.628  33.238  27.729  0.1859 -0.0677 -0.2069
11147W        W54200  24.235  33.488   0.333 -0.1352  0.1429 -0.0724
11148W        W54201   5.243  20.680  25.932  0.3237  0.0500  0.1010
11149W        W54202  32.537  30.304  16.069  0.0428  0.1536 -0.1015
11150W        W54203   5.727  15.946  16.063  0.0799  0.0390 -0.0961
11151W        W54204   8.381  29.634  21.343 -0.2763 -0.0973 -0.0202
11152W        W54205  31.103   1.198  15.447  0.0545 -0.1227 -0.1522
11153W        W54206  28.418  17.874  14.633 -0.2920 -0.1085  0.0815
11154W        W54207  33.937  19.099  17.407  0.1523 -0.1275 -0.0702
11155W        W54208   1.850  25.083  20.403  0.1563  0.1429  0.2400
11156W        W54209  16.831  19.925  15.595 -0.2049 -0.1067  0.0987
11157W        W54210  33.763  21.010  19.621  0.1598 -0.0818  0.0820
11158W        W54211  26.422  23.770  27.523  0.2891 -0.2834  0.0496
11159W        W54212  27.264  16.958  15.781  0.1175  0.2458  0.0795
11160W        W54213  33.036  18.998  21.413  0.0484  0.0678 -0.1876
11161W        W54214   3.817  15.085   0.824 -0.2951 -0.4882  0.0494
11162W        W54215  33.434  16.602  22.597 -0.0369 -0.0156  0.3335
11163W        W54216  34.246  23.612  24.360  0.0085 -0.3304  0.0381
11164W        W54217  29.425  23.292  24.506 -0.1796 -0.3008 -0.1930
11165W        W54218  33.633  16.524  25.835  0.1063  0.0438 -0.1240
11166W        W54219   6.133  10.827  19.726 -0.1222 -0.2601  0.0038
11167W        W54220   5.410  16.815  26.968  0.1786  0.1322 -0.1174
11168W        W54221   7.871  31.214   2.841  0.0675  0.0852 -0.0101
11169W        W54222   5.895  14.034  22.275  0.1780 -0.0050 -0.1863
11170W        W54223  14.385   6.015   0.243  0.4553  0.0445  0.1087
11171W        W54224  13.506  19.699  15.097  0.0800 -0.0196 -0.0150
11172W        W54225   7.695  17.743  14.534 -0.1605  0.0760  0.0912
11173W        W54226  12.677   6.049  14.456 -0.0428 -0.0934  0.1891
11174W        W54227  12.301  22.817  19.685  0.3734  0.1637  0.0244
11175W        W54228   5.287   2.701  17.960  0.1309 -0.2417  0.0191
11176W        W54229  22.944  11.641   4.277 -0.0289 -0.0176 -0.3026
11177W        W54230   3.318  17.298  23.117  0.0711 -0.1733  0.3911
11178W        W54231  11.032  22.215  27.648  0.3648  0.1216  0.1527
11179W        W54232  28.040  16.703  16.983 -0.1231  0.1215 -0.1676
11180W        W54233  14.125  19.408  27.637 -0.1125  0.1225 -0.0585
11181W        W54234   3.766   2.987  23.689 -0.0056  0.1484 -0.0045
11182W        W54235  33.318  16.242  26.493 -0.1071 -0.0433 -0.1030
11183W        W54236   1.916  27.651  26.688 -0.2389 -0.4588 -0.1090
11184W        W54237  19.429  22.521  14.893  0.0645  0.0413  0.0082
11185W        W54238  31.792  18.620  15.054  0.0006  0.1600 -0.0426
11186W        W54239  15.144  16.670  25.239 -0.0125  0.2037 -0.2337
11187W        W54240   0.376  16.799  16.595  0.0468  0.1601 -0.2127
11188W        W54241  21.990   8.825   2.003 -0.2290  0.1685 -0.1418
11189W        W54242  29.412  13.589  22.832 -0.0816 -0.3752 -0.1558
11190W        W54243  27.767  11.480  20.404 -0.0630 -0.2012  0.4975
11191W        W54244  23.216  26.016  19.227 -0.1849  0.1329 -0.6511
11192W        W54245   8.508  18.189  19.301 -0.1785 -0.1313 -0.0620
11193W        W54246   3.138  24.978  20.471  0.0418  0.1772 -0.1017
11194W        W54247  34.205  20.057  23.932 -0.3391  0.1736 -0.3393
11195W        W54248   7.935  20.380  16.248 -0.1667  0.0650  0.0915
11196W        W54249  11.752   7.993  17.646 -0.0062  0.0567  0.1434
11197W        W54250  21.707  31.197  23.101 -0.1197  0.0131  0.0314
11198W        W54251   6.728   6.426   0.188 -0.0821 -0.1893 -0.0144
11199W        W54252   1.340  21.298  22.663  0.3423  0.1646  0.3238
11200W        W54253   7.428  11.009  17.156 -0.1277 -0.1038  0.3131
11201W        W54254  21.707  17.342  16.735  0.1213  0.1282 -0.0275
11202W        W54255   2.068  18.983  16.712 -0.2550 -0.0084  0.2260
11203W        W54256  18.150  25.346  15.828 -0.2665  0.0173 -0.1461
11204W        W54257  32.551   5.508  20.197  0.1086 -0.0382 -0.0818
11205W        W54258  18.935   9.811  20.804  0.0498 -0.0703  0.1810
11206W        W54259  29.004   9.521  18.117 -0.3181 -0.0848  0.2162
11207W        W54260  11.233   4.955   2.860 -0.1542 -0.1052 -0.0137
11208W        W54261  28.266  18.184  18.592 -0.3103 -0.0604 -0.0931
11209W        W54262  23.406   0.930  19.524  0.0165 -0.1386 -0.0726
11210W        W54263   7.852  27.555  20.873  0.0133  0.1878 -0.0058
11211W        W54264   2.609  30.019  27.327  0.2941 -0.3227 -0.1779
11212W        W54265  33.551  16.467   2.228 -0.2397  0.0620  0.5322
11213W        W54266   5.761  10.630   5.248  0.0632 -0.1590 -0.1275
11214W        W54267  29.427  34.155  20.552 -0.0959  0.1123  0.0974
11215W        W54268  27.966  16.896  15.012 -0.0733  0.0134 -0.0704
11216W        W54269  32.914  19.121  19.144 -0.2580  0.2831  0.0462
11217W        W54270  11.185  13.536   1.294 -0.0747  0.0416 -0.1291
11218W        W54271   9.011  33.696  18.631  0.0928  0.1880  0.1135
11219W        W54272   2.962  23.868  17.418  0.3768 -0.1096 -0.3578
11220W        W54273   8.264  20.372  13.877 -0.4010 -0.0027  0.2032
11221W        W54274  31.604  20.432   7.677  0.0304 -0.0890  0.1752
11222W        W54275  25.955  18.224   4.428  0.1768  0.1272  0.2035
11223W        W54276  20.936  13.445  22.442 -0.1684 -0.2393  0.0346
11224W        W54277   5.990   0.979  27.194  0.3602 -0.1124 -0.1035
11225W        W54278   4.851  34.576  24.535  0.4160 -0.2028  0.1438
11226W        W54279  16.272   3.711  15.912 -0.2336  0.0347 -0.1299
11227W        W54280  12.103  34.657  25.970 -0.1209 -0.0674 -0.2685
11228W        W54281  22.521   8.647   1.750 -0.1647  0.1264  0.1966
11229W        W54282  17.757   1.017  16.444 -0.1537  0.1511 -0.2955
11230W        W54283   9.703  15.458   7.856 -0.1265  0.1243 -0.0032
11231W        W54284  11.449  24.426  14.548  0.0842 -0.0620 -0.1608
11232W        W54285   1.168  22.724  23.841  0.1538  0.1020  0.3137
11233W        W54286  27.336  11.355  15.796 -0.1592 -0.0917  0.0423
11234W        W54287  32.444  25.738  21.845  0.0276  0.1383  0.0418
11235W        W54288   8.182  14.369  20.273  0.2497  0.0181 -0.2147
11236W        W54289   8.080  24.632  16.158  0.1343 -0.1852 -0.2595
11237W        W54290  18.353  30.500  22.776  0.2103  0.0123 -0.0926
11238W        W54291  21.973  33.856   7.682 -0.0017  0.0302  0.2594
11239W        W54292  31.340  23.259   2.445 -0.1383  0.2434  0.5358
11240W        W54293  25.596  12.618  23.215  0.1145 -0.1643 -0.3525
11241W        W54294  29.026  28.681  17.583 -0.4295  0.0339 -0.1281
11242W        W54295  31.448  12.368  16.098 -0.2222 -0.0479  0.1328
11243W        W54296   3.057  20.348  15.929  0.2102  0.4819  0.2143
11244W        W54297  23.392  14.452  17.024  0.0462  0.2224  0.0096
11245W        W54298   2.936  17.163  14.435 -0.2859 -0.3722 -0.1417
11246W        W54299  28.214  16.931   3.067  0.2443 -0.2209 -0.0679
11247W        W54300  34.571  14.426  14.978 -0.1102  0.2521  0.1172
11248W        W54301  31.225  32.799   0.681  0.0231 -0.0764 -0.1002
11249W        W54302  22.884  10.667  23.572  0.0835  0.1731 -0.1709
11250W        W54303   4.250   7.316  16.369  0.1916  0.1237 -0.0453
11251W        W54304  18.528   2.058  21.244  0.1316 -0.2835 -0.2273
11252W        W54305   6.198   8.117  15.337 -0.1666 -0.1587  0.1606
11253W        W54306  20.159  17.498   3.869  0.1195 -0.0596  0.0055
11254W        W54307  26.130  27.865  25.490 -0.3567  0.0184 -0.3771
11255W        W54308   6.402  24.562   4.334  0.1518  0.1203 -0.2529
11256W        W54309  31.887  18.805  26.445  0.1601 -0.5180 -0.2613
11257W        W54310  20.926  20.348  28.493 -0.2143  0.4143  0.1249
11258W        W54311   5.138  11.188  20.340  0.0765  0.3212  0.2800
11259W        W54312   1.498  15.878  24.905 -0.1188 -0.2633  0.1077
11260W        W54313   1.692  13.844  15.489  0.0274 -0.4030  0.0870
11261W        W54314  26.252  20.183   1.265  0.1714 -0.0058 -0.1441
11262W        W54315  33.158  30.551   2.119 -0.0439 -0.1286  0.0532
11263W        W54316  24.211  15.847  15.556 -0.1166  0.0716 -0.2197
11264W        W54317  14.004   8.510  16.583  0.0556 -0.1048  0.0595
11265W        W54318   3.999  23.606  20.142  0.0866  0.0974 -0.0058
11266W        W54319  10.885   1.304  20.392 -0.0347  0.0114 -0.1824
11267W        W54320  11.088  27.134  16.169  0.1430  0.2040  0.1057
11268W        W54321   2.677  29.756  14.013  0.0933  0.3406 -0.0598
11269W        W54322   0.463  25.284  14.083 -0.3167  0.0251  0.1076
11270W        W54323  33.716   6.380  15.664 -0.1584 -0.1391 -0.0952
11271W        W54324   0.677  23.217   4.554 -0.0269 -0.0917  0.1701
11272W        W54325   1.277  26.984  15.511 -0.5245  0.0438 -0.0271
11273W        W54326   9.465  11.372  20.972  0.2167  0.0151  0.3150
11274W        W54327  27.770   2.355  17.546 -0.5117 -0.1542 -0.0461
11275W        W54328  25.129  15.690  14.009  0.1385  0.1567 -0.3250
11276W        W54329   6.339  33.729   0.218  0.1694  0.0818  0.0100
11277W        W54330  23.059  15.975  21.514 -0.1897  0.3201 -0.0571
11278W        W54331   7.996  20.802  14.123 -0.0398 -0.2083 -0.1335
11279W        W54332  33.311  17.614  14.566 -0.3675  0.4001  0.0583
11280W        W54333  15.362   9.602   2.767 -0.2219  0.1106  0.2107
11281W        W54334   7.886  21.090  27.448 -0.3648  0.1460 -0.1998
11282W        W54335   0.950   7.848  18.559  0.0734  0.3150  0.2009
11283W        W54336   1.731  14.911  25.475  0.0552  0.2177  0.2356
11284W        W54337  14.364   5.625  17.610  0.2301 -0.1532  0.0583
11285W        W54338  22.058  27.335  23.541  0.1057  0.1386 -0.4475
11286W        W54339   2.540  26.017  16.532  0.0062  0.0117 -0.0260
11287W        W54340   4.664  16.398  27.623  0.0328  0.1066  0.1437
11288W        W54341  27.874  27.933  18.231  0.0669 -0.1130  0.2077
11289W        W54342   3.870   9.518  15.214 -0.1846  0.0284 -0.1855
11290W        W54343   4.649  20.206  16.940 -0.0343  0.4454 -0.0562
11291W        W54344  33.628  20.252  27.649 -0.0647 -0.1214  0.1930
11292W        W54345   9.920  33.524  19.072  0.1564 -0.1305  0.2450
11293W        W54346   8.118  15.480  24.196 -0.0670 -0.0890 -0.0218
11294W        W54347   9.163  18.836  21.444 -0.4271  0.0571  0.1844
11295W        W54348   4.483  23.577  16.909  0.0008  0.0951  0.0631
11296W        W54349  32.109  15.370  23.904 -0.0798  0.2023  0.1634
11297W        W54350   7.158  21.841  13.193  0.2588 -0.4536  0.0569
11298W        W54351  24.057  26.054   8.324  0.2299  0.0509 -0.2363
11299W        W54352  26.753  34.139  15.746 -0.1555 -0.0643  0.0541
11300W        W54353  11.817   7.956  27.220 -0.0639 -0.2331 -0.0776
11301W        W54354   1.121   0.638  25.828 -0.0314 -0.2529  0.0878
11302W        W54355   7.606   2.428   5.578  0.0455 -0.1591  0.0859
11303W        W54356  28.069  20.537  28.773 -0.3139 -0.0103 -0.2304
11304W        W54357  33.509   0.187  13.654  0.2633 -0.0154  0.0108
11305W        W54358  32.662  16.307   7.946  0.3318  0.0414 -0.0606
11306W        W54359  13.642  15.706   2.923 -0.3054 -0.1855 -0.0367
11307W        W54360  33.211  16.629   1.172 -0.3745 -0.0682  0.0650
11308W        W54361   9.625   6.074  22.060 -0.4491  0.3322  0.2984
11309W        W54362  28.314   8.252  25.613  0.1970 -0.0735  0.0134
11310W        W54363  29.750  16.102  16.635 -0.1291  0.0582 -0.0959
11311W        W54364  29.369   1.527   4.101 -0.0703 -0.0724  0.0097
11312W        W54365  20.922  25.967  27.699  0.0872 -0.0708 -0.2048
11313W        W54366   9.041  27.880  14.067 -0.2352 -0.5927  0.0068
11314W        W54367  26.502  11.891  20.999 -0.2290  0.1350 -0.4101
11315W        W54368   7.937  15.963   3.452  0.0623 -0.1493 -0.1858
11316W        W54369  32.687   9.393  23.223 -0.1533  0.4213  0.2213
11317W        W54370  26.628  18.581  16.379  0.2606 -0.1515 -0.0226
11318W        W54371  19.059   5.654  21.177  0.0784  0.2535 -0.0613
11319W        W54372   4.415  30.245  19.485 -0.1006  0.2073  0.3528
11320W        W54373   1.008  17.639  14.786 -0.0703 -0.0478 -0.0285
11321W        W54374   7.741  21.696  13.784  0.1216  0.1175 -0.0497
11322W        W54375  11.018   1.588  19.119 -0.2517  0.0367 -0.0064
11323W        W54376  24.481  12.627  18.500  0.2673  0.2283  0.0320
11324W        W54377  28.209   3.825  25.174 -0.3722 -0.2660  0.0981
11325W        W54378  34.208  22.919   7.068 -0.3565 -0.1340 -0.2944
11326W        W54379  31.666  16.013  21.272 -0.0624  0.0453 -0.1867
11327W        W54380  31.011   2.904  21.546 -0.0788  0.0792 -0.0128
11328W        W54381   9.833   4.976  26.222 -0.0767 -0.0774 -0.2312
11329W        W54382   6.397  25.799  24.898  0.0129 -0.1403 -0.4241
11330W        W54383  32.888   3.793  24.006  0.1831 -0.0881  0.2727
11331W        W54384   4.304  23.784  15.818  0.2231  0.1704  0.0111
11332W        W54385  14.287  28.252  28.684 -0.2272  0.0852 -0.0286
11333W        W54386  20.408  12.590  21.989 -0.0680  0.0673 -0.2312
11334W        W54387   1.702  26.934  15.282  0.1293 -0.1954 -0.0160
11335W        W54388   6.068  24.627  18.209  0.1038 -0.3262  0.2145
11336W        W54389  28.569  32.183  19.522 -0.0125  0.2710  0.1203
11337W        W54390   7.703  16.234  21.627  0.0970 -0.1371  0.2091
11338W        W54391  10.093  33.267  27.617  0.2830 -0.0767  0.1010
11339W        W54392   3.450  14.647   2.490 -0.1744  0.2671  0.0849
11340W        W54393   8.178  15.615  17.119 -0.1847 -0.3058 -0.0058
11341W        W54394  10.755  16.433  20.124  0.1696  0.2192  0.0049
11342W        W54395  28.673  15.198  17.931  0.2901  0.4392 -0.0475
11343W        W54396   9.642  18.101  16.790 -0.2907 -0.1025 -0.0993
11344W        W54397   6.438  26.207  26.092  0.0649 -0.0985  0.1514
11345W        W54398  25.402  18.528  20.780 -0.2697  0.0245  0.1361
11346W        W54399   6.991  13.741  28.785  0.1271  0.0819  0.1868
11347W        W54400   5.324  13.120  19.287  0.1868  0.1422  0.0660
11348W        W54401   2.380  10.567  22.790  0.0056  0.0888  0.0100
11349W        W54402  28.600  11.778  24.595  0.0549  0.1258 -0.0144
11350W        W54403  28.700   0.426   8.510 -0.2564  0.1295  0.3768
11351W        W54404   3.267  25.175  14.891 -0.1555  0.1862 -0.0001
11352W        W54405  30.153  21.395  29.112 -0.1774  0.2016 -0.0205
11353W        W54406   2.749  10.738  21.909 -0.2338  0.2710 -0.0256
11354W        W54407   5.114  12.155  14.505  0.3409 -0.1168  0.1290
11355W        W54408  23.310   5.220  29.197 -0.2575 -0.0985 -0.1869
11356W        W54409   2.898   4.842  29.179  0.0089 -0.0168 -0.3050
11357W        W54410   6.260  22.170  28.099  0.1720  0.1592 -0.2098
11358W        W54411   9.234  16.822  24.694 -0.0612 -0.1911 -0.1723
11359W        W54412   5.761  24.305  18.022  0.3576  0.0608  0.1536
11360W        W54413   6.480  29.954  26.268 -0.3523  0.0680 -0.2138
11361W        W54414  32.920  20.221  19.905  0.0922 -0.0816 -0.0142
11362W        W54415   5.787  17.720  18.921 -0.4299  0.0936  0.0654
11363W        W54416  11.883  30.322  22.017 -0.1035  0.1119 -0.1092
11364W        W54417  25.285  15.213  20.986  0.2860  0.0861 -0.2987
11365W        W54418  30.336  23.745  19.028  0.0890 -0.0215  0.2234
11366W        W54419  10.031   6.743  16.723  0.2161 -0.3755 -0.3033
11367W        W54420   7.504  18.026  16.078  0.0208  0.1780 -0.3928
11368W        W54421  15.692  28.812  18.146 -0.1008  0.1876 -0.2373
11369W        W54422  29.438   6.872  18.389 -0.0014 -0.1842  0.0670
11370W        W54423  21.191  13.774  22.138  0.0244 -0.0886 -0.1611
11371W        W54424  18.907  20.054  15.090 -0.1320  0.0601 -0.0244
11372W        W54425  14.643  23.489  26.336  0.0690 -0.1947  0.1749
11373W        W54426   6.009  22.995  18.266 -0.2456  0.2428 -0.0169
11374W        W54427  15.686  30.251  20.145 -0.2313  0.0442 -0.0726
11375W        W54428   3.971  20.248  15.639 -0.2124  0.2994  0.3751
11376W        W54429   5.362   6.188  14.019 -0.2455 -0.2183  0.0120
11377W        W54430   0.162  12.376  23.412  0.2687 -0.0410 -0.0046
11378W        W54431  17.266  28.961  28.615 -0.0254 -0.0041 -0.0925
11379W        W54432  25.881  12.499  15.176 -0.3233 -0.1522  0.4542
11380W        W54433  23.012  23.154  23.125  0.2175  0.0940  0.3851
11381W        W54434   9.191  16.013  15.431  0.1405  0.1134  0.2710
11382W        W54435  33.084  17.286  19.965  0.3209  0.2277  0.1372
11383W        W54436  22.227  23.115  19.691  0.1008 -0.0030 -0.1595
11384W        W54437  27.671   0.211  14.931 -0.0904 -0.1856 -0.2146
11385W        W54438  31.486  28.261  13.986 -0.1764  0.2319  0.3483
11386W        W54439  30.773  12.816  20.274  0.0568 -0.0201  0.0441
11387W        W54440  28.861  12.883  26.561  0.0703 -0.1408  0.3342
11388W        W54441  23.273  14.170  23.498 -0.0820 -0.0051  0.1816
11389W        W54442  28.703  20.695  28.531  0.3870  0.0230  0.3059
11390W        W54443  14.060  13.827  15.601  0.0247 -0.2405  0.1937
11391W        W54444   5.866   5.751  20.016  0.0162  0.1099 -0.1443
11392W        W54445  14.126  16.036  26.183 -0.1389 -0.1363  0.1669
11393W        W54446   3.096  17.309  24.964 -0.3689  0.3202 -0.0055
11394W        W54447   8.893   8.129   7.547 -0.1936  0.0172  0.1283
11395W        W54448  30.732   5.225  23.357  0.2164  0.0921  0.0329
11396W        W54449  12.155  10.808  18.887 -0.0136 -0.2567 -0.2058
11397W        W54450   4.740  22.882  16.389 -0.4200 -0.0479  0.0907
11398W        W54451   6.302  12.057   1.462  0.0745 -0.1637 -0.1187
11399W        W54452  10.842  19.607  26.861  0.1687 -0.0995 -0.2569
11400W        W54453   3.185  23.776  14.917 -0.1061 -0.2178 -0.0629
11401W        W54454   7.937  23.238  17.397  0.0806  0.1691 -0.0432
11402W        W54455  33.711  31.720  15.222  0.0364 -0.2977 -0.0743
11403W        W54456   2.456   0.282  13.276 -0.1260 -0.2718  0.1969
11404W        W54457  31.159  11.490  20.599  0.0521 -0.0624  0.0381
11405W        W54458  31.017  27.475  16.795 -0.5162 -0.3796 -0.1893
11406W        W54459  24.431   9.780  21.088 -0.1864  0.0121  0.1510
11407W        W54460  32.567   9.610  18.651 -0.3193 -0.0262  0.3162
11408W        W54461   5.152  30.947  17.746  0.0265 -0.1654  0.1643
11409W        W54462   8.327  16.357  22.387  0.0770 -0.0867 -0.1454
11410W        W54463  18.664   6.411  17.178 -0.1564  0.1773 -0.1846
11411W        W54464  10.702  21.961  15.375  0.0195 -0.0311 -0.2553
11412W        W54465  34.503   2.993  15.814 -0.1007  0.1653  0.0277
11413W        W54466   7.274  29.673  25.524 -0.2177  0.0418  0.0487
11414W        W54467   1.544  13.222   1.282 -0.3398  0.2504 -0.3439
11415W        W54468  31.741  30.528  22.683  0.0861  0.2930 -0.3437
11416W        W54469   6.236  15.096  14.331  0.1436  0.0656 -0.0166
11417W        W54470  34.581  14.622  19.347  0.1722 -0.2766  0.0307
11418W        W54471  23.097  13.948  18.549 -0.0271  0.2638 -0.3428
11419W        W54472  30.184  18.038  22.209  0.3639 -0.1871 -0.3765
11420W        W54473  32.871  12.647  16.658 -0.0217 -0.0859 -0.1168
11421W        W54474   2.442  12.842  20.518 -0.2019 -0.0484  0.5266
11422W        W54475   5.266   1.736  17.702  0.2134 -0.0912 -0.2380
11423W        W54476  15.534  30.784  21.131  0.0632 -0.2002  0.1251
11424W        W54477  33.513  21.858  22.863 -0.1841  0.0578 -0.4377
11425W        W54478  10.298  10.000  17.479  0.0418  0.1352 -0.0131
11426W        W54479   7.707   8.929   4.767 -0.1381 -0.0074  0.0423
11427W        W54480  14.616  25.032  19.310  0.1204 -0.2545 -0.0421
11428W        W54481  29.169  19.364  22.377  0.0859 -0.4662  0.1753
11429W        W54482   3.993  27.712   0.650 -0.0508 -0.0195 -0.1934
11430W        W54483   9.185  15.028  20.856  0.2089  0.1254 -0.0473
11431W        W54484   3.813  19.742  13.723 -0.0933  0.0632  0.3555
11432W        W54485  16.546  25.870  18.908  0.0163 -0.1199 -0.4158
11433W        W54486   5.375  21.957  22.712  0.2554  0.0831 -0.1097
11434W        W54487  31.151  25.704  22.458 -0.0539 -0.0590  0.0645
11435W        W54488   5.291   6.832  14.752 -0.0352  0.0552  0.0039
11436W        W54489  27.369  25.992  17.259  0.0521  0.3341 -0.0633
11437W        W54490  32.399  16.832  19.268 -0.0388 -0.1417  0.1644
11438W        W54491   2.907  14.433   9.540  0.3158 -0.2996  0.2159
11439W        W54492   2.832   7.324   7.809 -0.0932  0.2662 -0.0303
11440W        W54493  27.804  26.536  26.981  0.0024 -0.0066  0.1472
11441W        W54494  10.978  14.384  21.283  0.1216 -0.0509  0.1315
11442W        W54495  14.729  18.928   1.034  0.2446  0.0169 -0.0721
11443W        W54496   1.183  11.085  14.593  0.2964  0.1293  0.4092
11444W        W54497   3.501  10.863  17.924 -0.0385 -0.1104  0.0146
11445W        W54498  12.316  18.602   8.719 -0.0672  0.0096  0.2217
11446W        W54499   8.381   3.504  19.514  0.1356  0.1724  0.1661
11447W        W54500  25.739  24.947   3.166  0.1110  0.1078 -0.3157
11448W        W54501   8.537  25.407  14.943  0.1832  0.0042  0.0209
11449W        W54502  18.645  21.413  20.865 -0.2142 -0.2106 -0.1851
11450W        W54503   0.199  16.988  17.132  0.0644 -0.1133 -0.1298
11451W        W54504  22.978  27.367  20.910  0.1866  0.1767  0.1595
11452W        W54505   0.129  23.605   8.642 -0.0223  0.0675  0.2028
11453W        W54506   2.799  15.547   9.117 -0.0190 -0.1016  0.1099
11454W        W54507   1.411  21.297   9.184  0.4082  0.0403  0.0348
11455W        W54508  16.005  32.223   2.630 -0.0645  0.0547 -0.1627
11456W        W54509   4.282  16.211  15.210  0.2046 -0.0801  0.0297
11457W        W54510   8.901  25.977  20.204 -0.0145 -0.1689  0.0568
11458W        W54511  29.644  10.586  21.401  0.1732  0.2314  0.0704
11459W        W54512  10.757  16.663   0.464  0.1017  0.1127  0.0606
11460W        W54513   9.630  20.908  24.149  0.2554  0.0749  0.2362
11461W        W54514  30.307  19.112  25.803 -0.0292  0.2009  0.0512
11462W        W54515  34.523  24.695  22.281 -0.1291 -0.1965  0.3945
11463W        W54516  23.296  25.294  21.595 -0.0313 -0.0640  0.0983
11464W        W54517  11.794  24.605  15.263 -0.3110 -0.3551  0.1212
11465W        W54518  33.861  22.723   0.143  0.1411 -0.1328  0.2612
11466W        W54519  28.645  28.637  17.053 -0.2371 -0.1168  0.2364
11467W        W54520   3.708  26.104  26.023 -0.2531 -0.0197  0.2057
11468W        W54521   3.491  13.781  21.189  0.1439  0.0904 -0.1932
11469W        W54522   7.892   4.444  22.200 -0.6190  0.2890  0.4165
11470W        W54523  32.947  29.700  26.680 -0.0592 -0.1129  0.0823
11471W        W54524   2.266  14.891  16.631 -0.1525 -0.1377 -0.1304
11472W        W54525   7.616  16.223   1.510 -0.0454 -0.0682  0.1444
11473W        W54526   2.482  24.800  14.899  0.1065  0.3639 -0.0940
11474W        W54527  26.373  30.770  17.233  0.1679 -0.3180 -0.0723
11475W        W54528   7.376   7.757  18.008  0.4050 -0.0268 -0.1502
11476W        W54529  34.141   3.649  16.993  0.0021  0.3543 -0.1803
11477W        W54530   1.062   1.995  28.105 -0.0778  0.2435 -0.0295
11478W        W54531   9.125   9.975  21.982 -0.0675 -0.1253  0.0548
11479W        W54532   0.095   6.527  27.485 -0.1010  0.0812  0.0388
11480W        W54533  34.364  27.053  18.734  0.2451 -0.1267  0.0306
11481W        W54534   9.028   8.834   5.170  0.3083 -0.2770  0.0356
11482W        W54535   7.726  19.390  25.259  0.2318  0.0503  0.3678
11483W        W54536  27.187  10.545   9.229  0.3642 -0.0474 -0.1941
11484W        W54537  32.999  17.773  19.851  0.3878 -0.0891 -0.1705
11485W        W54538  34.629  34.159  23.098  0.1045  0.1613  0.2002
11486W        W54539   7.625   3.672  16.875  0.0665  0.1340  0.1214
11487W        W54540  29.660  32.850   2.239  0.2672  0.0950  0.0944
11488W        W54541   1.168  19.950   1.175  0.0514  0.0787 -0.0641
11489W        W54542   0.062  14.139   6.095 -0.2103 -0.1874  0.0244
11490W        W54543   8.260   7.536  16.495  0.1730  0.2645 -0.0674
11491W        W54544  15.233  21.533   5.980  0.2182  0.2047 -0.2423
11492W        W54545   6.798   4.669  23.804 -0.0805 -0.0346  0.1230
11493W        W54546  19.835   6.412   1.104 -0.2002 -0.3003  0.4196
11494W        W54547   5.112  17.774  21.131 -0.1032  0.2455 -0.0440
11495W        W54548  28.996  18.457   2.783  0.0712  0.0756  0.0898
11496W        W54549   5.768  10.830   0.592  0.3051 -0.3317  0.1505
11497W        W54550   1.879  23.969   7.548  0.1772  0.1055 -0.1719
11498W        W54551  13.451  14.986  27.531  0.2775 -0.1084 -0.0746
11499W        W54552  33.224  31.189  10.069 -0.2188 -0.1863  0.2787
11500W        W54553  22.262  12.684  22.518 -0.0042  0.2797  0.2306
11501W        W54554   1.033   6.161  22.061  0.2765  0.2276 -0.2182
11502W        W54555  28.964  10.194   8.205  0.2518  0.0366  0.0632
11503W        W54556  10.178  15.859  18.448 -0.3263  0.1414 -0.1703
11504W        W54557   7.557  18.421   0.612 -0.1194  0.3149 -0.0637
11505W        W54558  12.803  27.263  23.005 -0.2151 -0.1628  0.0097
11506W        W54559  31.379  13.390  26.280  0.2090  0.1026 -0.1480
11507W        W54560   6.649  17.319  16.567  0.2367 -0.1515  0.1518
11508W        W54561   1.345  24.599  14.004  0.0375  0.0295 -0.1875
11509W        W54562  14.623  14.235  17.406  0.1669 -0.0599  0.0731
11510W        W54563  32.283   8.609   0.225 -0.2255  0.2601 -0.0908
11511W        W54564  34.478  11.836   8.496  0.3292 -0.1079 -0.3097
11512W        W54565  26.801  30.915  22.987  0.0154 -0.1361  0.1825
11513W        W54566   8.366  10.991  20.543 -0.3206  0.0211  0.1667
11514W        W54567  33.700  20.080   5.019 -0.0383 -0.3877 -0.0674
11515W        W54568   9.507   1.954  14.642  0.1842  0.1452  0.0699
11516W        W54569   9.675  24.993  15.642  0.0515 -0.1893 -0.1645
11517W        W54570  26.706  33.689  26.806 -0.2206 -0.1874  0.1478
11518W        W54571   3.231  11.375  26.887 -0.2235  0.0718  0.0033
11519W        W54572  29.736   5.688   8.577  0.0376 -0.0446 -0.0099
11520W        W54573  14.530  21.621  23.579 -0.1527  0.0980 -0.1707
11521W        W54574  29.111  16.835  24.266 -0.0295  0.1431 -0.1754
11522W        W54575   7.550  29.834  28.411 -0.0997  0.0524 -0.0386
11523W        W54576   6.857  32.633  14.173  0.1498  0.3127  0.0026
11524W        W54577   4.463  11.801  17.984 -0.0446  0.0533 -0.0111
11525W        W54578   2.639   1.815  18.726 -0.0319  0.0354 -0.0155
11526W        W54579  25.397   7.078  13.474  0.1832 -0.2649  0.5414
11527W        W54580   9.571  31.259  16.953  0.2589  0.3830 -0.2143
11528W        W54581   3.341  14.096  27.631 -0.2777 -0.0113  0.1543
11529W        W54582   9.158   1.519   6.617  0.0526 -0.1191 -0.2592
11530W        W54583   9.596  16.718  19.789 -0.0882 -0.0983  0.3336
11531W        W54584  28.747  25.767   0.908 -0.0898  0.0887 -0.0287
11532W        W54585  16.175  15.120   0.255  0.0157 -0.3881  0.2839
11533W        W54586  30.468  20.686   1.799 -0.0793  0.1892 -0.3842
11534W        W54587   3.058   0.790  22.420  0.1025  0.0111  0.0490
11535W        W54588   3.300  15.167  22.799  0.2087 -0.2303  0.1965
11536W        W54589  25.713  14.334  18.913 -0.1361 -0.0254  0.0772
11537W        W54590  10.924  12.389  24.171 -0.2079  0.1849 -0.0912
11538W        W54591   5.869   5.588  25.259 -0.1657  0.3812 -0.5706
11539W        W54592  26.665  18.629  19.657 -0.2379  0.2353 -0.2673
11540W        W54593  22.778  24.050  16.313  0.5061  0.0147  0.1525
11541W        W54594  21.152  17.264  20.321  0.1429  0.1904 -0.2388
11542W        W54595   7.963  13.338  25.208 -0.1070 -0.3301  0.0745
11543W        W54596  29.621   0.093  27.733 -0.0477 -0.0693  0.3904
11544W        W54597   6.808  24.037  28.220 -0.0998  0.4929  0.0678
11545W        W54598  23.154  21.635  22.593 -0.0192 -0.0715 -0.1089
11546W        W54599  28.451  19.728  18.794  0.2814 -0.3539 -0.1984
11547W        W54600   3.988  23.053   5.757 -0.1958  0.1157 -0.1295
11548W        W54601   4.536   4.293  16.307 -0.1362 -0.2120  0.0302
11549W        W54602  33.178  32.754   3.188 -0.1210  0.0066 -0.3006
11550W        W54603   6.488  16.963  18.909 -0.2476  0.0013  0.1535
11551W        W54604   2.810  20.757   0.197 -0.3645 -0.0856  0.2920
11552W        W54605   1.715  28.096   2.213  0.2366 -0.0015 -0.0482
11553W        W54606  19.088  28.684  19.896 -0.0579 -0.0964 -0.1820
11554W        W54607   4.579  20.101  26.366 -0.1596  0.2099 -0.0832
11555W        W54608   3.473   0.499  18.488  0.1309 -0.2952 -0.0090
11556W        W54609   6.785  10.995   7.649 -0.1415  0.1515  0.1523
11557W        W54610  17.378   9.054  27.504  0.1245  0.0150 -0.0099
11558W        W54611   0.304  25.868  27.240  0.2773  0.0808  0.0485
11559W        W54612  19.205  18.860  24.812  0.1624  0.0032 -0.2937
11560W        W54613  13.854  10.979  23.652  0.0080 -0.1102  0.5167
11561W        W54614  27.460  22.499  28.115  0.3777  0.3474  0.1310
11562W        W54615   2.496  26.865   7.419 -0.2764 -0.2187  0.1951
11563W        W54616  27.362  12.323  21.985  0.2863 -0.2491  0.0799
11564W        W54617  22.210  26.302  24.493 -0.2785 -0.0131 -0.0834
11565W        W54618   6.888   7.647  25.583 -0.0533 -0.1148 -0.0480
11566W        W54619   7.339   3.353  15.557  0.2511  0.1316  0.2945
11567W        W54620  12.328   4.988  26.497 -0.0158 -0.2289 -0.4012
11568W        W54621  28.489  10.606   7.301  0.0291 -0.3751  0.1709
11569W        W54622   2.118  13.430   6.866 -0.0369  0.1568 -0.2799
11570W        W54623  27.712  23.908  14.986 -0.3181 -0.0698 -0.1919
11571W        W54624  32.570  14.244  21.149  0.2249  0.0383 -0.0104
11572W        W54625   3.323   8.096  27.908 -0.1437  0.2092  0.2086
11573W        W54626  30.238  26.164  28.177 -0.3008  0.0677  0.0648
11574W        W54627   1.999  24.997  18.893  0.3906 -0.0659  0.3628
11575W        W54628  28.886  17.758   5.822  0.0194  0.1159  0.0990
11576W        W54629  32.478  31.586  17.338  0.0601  0.0277 -0.2290
11577W        W54630  22.361  17.080  21.230  0.3187 -0.2494 -0.1232
11578W        W54631   8.433  15.625  21.099 -0.2139  0.1024 -0.0749
11579W        W54632   4.574  17.571  18.177  0.1134 -0.0292  0.1475
11580W        W54633  31.182  11.624  19.680 -0.1441 -0.2969 -0.1672
11581W        W54634   7.798  12.510   3.417  0.0451  0.0717 -0.0657
11582W        W54635   3.349   6.922   0.705 -0.1388 -0.2176 -0.1836
11583W        W54636  20.372   2.226  23.994  0.2723 -0.0608 -0.0839
11584W        W54637  30.430  21.150  16.212  0.1148 -0.0298  0.3724
11585W        W54638  21.357   1.633  24.438 -0.2456 -0.3555  0.1813
11586W        W54639  24.643  14.923  17.815 -0.1114 -0.0749  0.2378
11587W        W54640   7.331  17.771  21.584  0.0445 -0.0128  0.0123
11588W        W54641  13.130  13.464  22.751 -0.7766  0.2741 -0.1165
11589W        W54642   6.537  14.665  20.313  0.0682 -0.0078 -0.0399
11590W        W54643  27.371  18.552   5.835 -0.0166  0.0722 -0.0944
11591W        W54644  13.846  21.455  22.275 -0.1975  0.1351 -0.0717
11592W        W54645  33.017   0.410   9.896  0.1328 -0.2070 -0.2151
11593W        W54646   5.568   4.105   0.570 -0.0459  0.0141  0.1020
11594W        W54647   0.220  16.608  15.645 -0.4400 -0.1493  0.0261
11595W        W54648   3.598   4.296  24.488 -0.1103 -0.1067 -0.1740
11596W        W54649   5.262   3.124  10.129 -0.2611 -0.1906  0.1157
11597W        W54650  22.680  26.230  26.260 -0.0474  0.3312 -0.1254
11598W        W54651  15.440  21.723  18.337 -0.3438  0.1874 -0.3200
11599W        W54652   6.145  16.497  16.692  0.1444  0.1280  0.1633
11600W        W54653  28.516  21.704   0.400 -0.0819  0.0251  0.0844
11601W        W54654   2.256  34.057  13.676  0.0245 -0.1752  0.1627
11602W        W54655  12.786  15.793  18.938  0.2070 -0.3133 -0.1116
11603W        W54656  14.462   3.714  19.289  0.1128 -0.1074 -0.1589
11604W        W54657   7.970  11.064  19.196 -0.1399 -0.3043  0.1619
11605W        W54658   2.084  17.100  22.224  0.2750  0.3517  0.0334
11606W        W54659  27.926  27.255  16.233 -0.2198  0.0229 -0.0125
11607W        W54660   9.608  34.578  17.199  0.2325  0.0181  0.1904
11608W        W54661  21.048   0.054  18.539  0.0386  0.0751  0.2795
11609W        W54662   3.194  22.558  25.279 -0.2194 -0.0920 -0.1400
11610W        W54663   5.349  34.320   1.287 -0.0219 -0.1748 -0.1045
11611W        W54664   2.893   6.881  22.408 -0.2746 -0.0570 -0.1612
11612W        W54665  29.138  29.897  15.019 -0.1946  0.1972 -0.0448
11613W        W54666   7.230   4.996  17.802  0.3497 -0.1229 -0.4101
11614W        W54667   9.369  23.765  25.228 -0.0515 -0.1069 -0.0116
11615W        W54668  25.014  17.593   1.164 -0.0287 -0.2043 -0.0820
11616W        W54669  20.560   4.484   1.288  0.5613 -0.0228 -0.2147
11617W        W54670  18.584  10.427  27.993  0.1090  0.0896 -0.2370
11618W        W54671  31.792  20.106  16.228  0.4741  0.5119 -0.0237
11619W        W54672  17.939  25.452  21.638 -0.1559 -0.2255 -0.0076
11620W        W54673  27.929  30.952  19.260  0.1074  0.0720 -0.0412
11621W        W54674  22.716  11.902  28.787  0.1955 -0.1977 -0.2009
11622W        W54675  24.107  33.388  28.290 -0.2041 -0.6018  0.3093
11623W        W54676   7.104   6.108  29.018 -0.3561  0.2756  0.0867
11624W        W54677  27.343   0.513  19.702 -0.0306 -0.0264  0.1967
11625W        W54678   9.273  26.181  20.914 -0.2168  0.1535 -0.3134
11626W        W54679   4.959   4.727  19.899 -0.1863 -0.2076 -0.0400
11627W        W54680   6.925  29.937  18.240  0.2672 -0.1332  0.3210
11628W        W54681   3.756  21.718  14.346 -0.1299 -0.0134 -0.2212
11629W        W54682  29.832  10.897   9.942  0.1339 -0.2006 -0.0310
11630W        W54683   2.910   1.203  24.456 -0.2614 -0.1002  0.3363
11631W        W54684  31.134  34.086   5.599  0.0856  0.2363  0.0018
11632W        W54685   0.045  22.628  16.572  0.1913 -0.1343  0.0258
11633W        W54686   9.310  21.299  24.516  0.0939 -0.1989 -0.1281
11634W        W54687   0.514  20.279  20.029  0.0012  0.2076 -0.1436
11635W        W54688  34.519  30.478  21.913 -0.0498 -0.1294 -0.0040
11636W        W54689  29.813  17.973  16.353 -0.0738 -0.1708  0.2188
11637W        W54690  33.822  18.031  17.510 -0.0772  0.0068  0.3605
11638W        W54691   5.763  21.117  20.901  0.0607 -0.0840 -0.0680
11639W        W54692  16.684   7.231  26.276 -0.3819  0.1439  0.2906
11640W        W54693   5.724   6.535  27.353  0.1025  0.3194 -0.2438
11641W        W54694   6.521  15.528  23.978  0.2620 -0.1761  0.0931
11642W        W54695   2.370  29.630   3.509  0.0360 -0.1494 -0.0558
11643W        W54696   4.023  14.678  18.220  0.5163  0.2201 -0.1080
11644W        W54697  32.710  12.144  16.371 -0.1245  0.0557  0.1140
11645W        W54698  22.442  16.497  24.879  0.1205 -0.0082  0.0759
11646W        W54699   8.164  26.973  17.568 -0.0658  0.0392 -0.0123
11647W        W54700  14.997   7.793  26.744  0.0660  0.0660 -0.0909
11648W        W54701  11.765  28.198   7.317 -0.0459 -0.3037 -0.2204
11649W        W54702   3.384  12.257  15.773  0.1979  0.2339 -0.0918
11650W        W54703  19.300  13.898   1.362  0.0121 -0.1992 -0.1804
11651W        W54704   2.091  30.191  19.544  0.0841  0.0062  0.1074
11652W        W54705  27.165  34.657  19.070 -0.2622  0.2475 -0.2208
11653W        W54706   8.146  26.175  26.855  0.0168 -0.0397  0.3642
11654W        W54707   8.931  12.818  17.561  0.0431  0.0516  0.0417
11655W        W54708   0.276  31.438   2.810 -0.0315 -0.0083  0.1793
11656W        W54709   8.462  16.832   3.039 -0.3774  0.2553 -0.1689
11657W        W54710  32.967  17.938  24.145 -0.0270 -0.0984  0.1990
11658W        W54711  33.427   3.866  26.051  0.0860  0.0187  0.2109
11659W        W54712   8.871  22.746  17.146 -0.2009  0.3618 -0.1166
11660W        W54713   7.793  21.179  22.398  0.1924  0.0656  0.0019
11661W        W54714   4.504  29.420  27.903 -0.1827  0.0755  0.1535
11662W        W54715  24.759   2.725  19.693 -0.0641 -0.2512  0.2637
11663W        W54716   0.924  29.753   3.240  0.1176 -0.0624  0.3269
11664W        W54717   6.634   8.940  27.434  0.3832  0.1489  0.2281
11665W        W54718   1.343  32.227  26.065  0.2163  0.1690  0.1931
11666W        W54719  31.585  16.106  19.880  0.0551 -0.0726  0.1062
11667W        W54720  34.123  29.089  18.679  0.3798 -0.0507  0.1901
11668W        W54721   6.317  25.966  17.253 -0.1526 -0.0936 -0.1250
11669W        W54722   6.847  31.047  13.932 -0.3795  0.0207  0.1594
11670W        W54723  32.642  22.792  19.726  0.1842  0.0749 -0.0039
11671W        W54724  10.170  26.832   4.037 -0.0719  0.0914  0.1529
11672W        W54725  33.739   0.890   3.823 -0.0395  0.1787  0.1593
11673W        W54726   0.843  18.018  15.756 -0.1150  0.0557 -0.0014
11674W        W54727  33.402  18.371   0.352 -0.0895  0.1020 -0.0037
11675W        W54728   9.658   5.463   7.588 -0.1630  0.1681  0.4384
11676W        W54729  17.220   4.340  17.626  0.0391 -0.0569  0.1453
11677W        W54730  16.183  14.792  15.196 -0.1338 -0.0378  0.1160
11678W        W54731  25.860   9.779  18.886 -0.0073 -0.0339  0.1807
11679W        W54732  13.556  20.280  20.206 -0.1954 -0.0687  0.1185
11680W        W54733  26.338  11.102  18.101  0.0748 -0.1266  0.1061
11681W        W54734   6.748   6.533   4.868 -0.3243 -0.1711  0.1900
11682W        W54735  25.645   3.334  21.370 -0.1521 -0.1187 -0.1796
11683W        W54736   3.001  18.250  23.324 -0.2470 -0.2138 -0.2408
11684W        W54737  30.323  27.438  20.729  0.0546  0.1104 -0.0639
11685W        W54738  28.590  29.451  18.919  0.1510 -0.1064  0.2916
11686W        W54739   6.810  11.934  20.503  0.2412 -0.0003  0.2920
11687W        W54740  29.834  23.504   4.007  0.1254 -0.0828 -0.1682
11688W        W54741  24.438  21.825   0.070 -0.2742  0.0432 -0.3100
11689W        W54742   1.016  18.166  19.514 -0.0152 -0.3224 -0.1445
11690W        W54743  14.566   8.367   1.320 -0.1892  0.2712 -0.3931
11691W        W54744  26.934  15.269  23.053 -0.2232  0.0815  0.1700
11692W        W54745  28.979  23.195  26.372  0.2813  0.4928  0.0969
11693W        W54746  25.877  21.022  26.401 -0.1813  0.1686 -0.2685
11694W        W54747  19.669  32.765  22.599  0.2028  0.3166  0.2331
11695W        W54748   7.418   8.291  16.566 -0.1637  0.1783 -0.0066
11696W        W54749  13.125  14.109  21.477  0.1168 -0.0007  0.3132
11697W        W54750  33.199  31.472   1.951  0.0061  0.2210 -0.0942
11698W        W54751   2.238   6.582  22.681 -0.0724 -0.3725 -0.2343
11699W        W54752   0.019   6.883  18.638  0.0045  0.0171  0.1412
11700W        W54753  26.515  16.421  22.276  0.0049  0.0390  0.1858
11701W        W54754  15.043  17.840   6.978  0.3028 -0.0249 -0.1350
11702W        W54755   1.297  10.056  22.486 -0.0030  0.0558  0.1436
11703W        W54756   4.574  23.527  23.380 -0.4835 -0.0716  0.2969
11704W        W54757  12.769  15.672   8.257  0.2488  0.1809 -0.0596
11705W        W54758  23.505  11.496  28.352  0.1257  0.1662 -0.1417
11706W        W54759   8.414  20.558  22.735  0.4477 -0.1103  0.0550
11707W        W54760  13.760  19.139   5.990  0.0824  0.0699  0.0827
11708W        W54761  11.666  14.739  16.382 -0.0503  0.1779 -0.0022
11709W        W54762   6.593  14.443  28.106  0.1983  0.4052  0.1145
11710W        W54763   4.417  17.212  20.764 -0.0656  0.1246  0.1556
11711W        W54764  17.246   3.178  21.285  0.0184 -0.1964  0.5276
11712W        W54765   7.865   7.822  23.286  0.2768  0.5790 -0.0480
11713W        W54766  34.416  15.109   4.249  0.1140  0.2099 -0.2364
11714W        W54767   0.506   7.380  19.829 -0.1622  0.3561 -0.2215
11715W        W54768   3.415  15.985   6.434  0.3382  0.0662  0.0787
11716W        W54769   6.543  12.242  25.347 -0.1303  0.2284 -0.2111
11717W        W54770  29.300   8.471  16.375  0.1740 -0.2678 -0.0388
11718W        W54771  29.715  31.125  14.870 -0.0519 -0.1458  0.2556
11719W        W54772  27.552  30.259   1.468  0.0066  0.1910 -0.2653
11720W        W54773  13.738  20.224  23.277  0.1233 -0.2511  0.1616
11721W        W54774  18.773  24.648   3.824 -0.1483  0.0768 -0.1477
11722W        W54775  28.143  33.125  21.917 -0.0767  0.3797 -0.0169
11723W        W54776  13.289  14.465  27.821  0.2290  0.1681  0.1382
11724W        W54777  21.498   9.072  15.871  0.0611  0.1512  0.0041
11725W        W54778   0.998  17.040  21.374 -0.1117  0.1167  0.2138
11726W        W54779  17.341  23.477   2.547 -0.0502  0.0989 -0.4429
11727W        W54780  33.175  28.273  24.687 -0.0745  0.3568  0.2172
11728W        W54781   0.317  20.255   2.395 -0.0325 -0.0606 -0.3173
11729W        W54782  10.752  11.558  11.192 -0.1305 -0.2162  0.0205
11730W        W54783  25.545  20.113  29.000  0.1469 -0.3069 -0.1523
11731W        W54784  29.477  21.182  23.948  0.0201  0.0040  0.0706
11732W        W54785  21.076  24.969   2.178  0.2663  0.0450  0.1437
11733W        W54786   3.055  17.970  16.422 -0.1231  0.2778  0.3933
11734W        W54787  10.249  21.693  20.492 -0.0233 -0.0247  0.1703
11735W        W54788  25.681  12.093  21.208  0.0410  0.0931 -0.1045
11736W        W54789  17.467   8.982  22.802  0.3083 -0.0263  0.2472
11737W        W54790   3.862  20.259   0.655  0.3964 -0.0122 -0.0572
11738W        W54791   0.179  23.453   9.186 -0.1813  0.1823 -0.2097
11739W        W54792  29.699  27.023  20.164 -0.0910  0.0096 -0.2101
11740W        W54793   5.400  28.921  18.439  0.0273 -0.0096  0.0367
11741W        W54794  28.806  10.808  18.781  0.0572 -0.1302 -0.0995
11742W        W54795  14.131  34.270  15.392  0.0744  0.1271 -0.1193
11743W        W54796  24.621  17.538  17.664 -0.0729  0.0538  0.1271
11744W        W54797  11.733  17.422  27.398  0.0346  0.0347 -0.0122
11745W        W54798  12.276  21.958  22.204 -0.0230  0.0327  0.0369
11746W        W54799   7.353  19.680  22.717 -0.2281 -0.2220 -0.1037
11747W        W54800   6.666   8.365  27.459 -0.0490  0.0276 -0.1240
11748W        W54801   1.412  13.395  16.882  0.0369 -0.2614  0.0430
11749W        W54802  26.170  15.163  28.702  0.3021 -0.2494  0.0682
11750W        W54803  17.124  27.610  17.560 -0.1533 -0.2299 -0.1197
11751W        W54804  13.000  27.089  28.433 -0.0970 -0.0351  0.1446
11752W        W54805  15.768   4.171   6.610 -0.0534  0.3047  0.3022
11753W        W54806  24.617  22.411  24.047 -0.0407 -0.0864 -0.1651
11754W        W54807   4.172   7.247  25.373  0.0491  0.1025 -0.0220
11755W        W54808  13.579  11.674   0.536 -0.1304 -0.1238 -0.1453
11756W        W54809   6.838  23.212   6.902  0.0308  0.0501  0.0221
11757W        W54810  13.133  29.101  18.640  0.1949  0.1089  0.6790
11758W        W54811   1.716  25.211  15.360 -0.3284 -0.1416  0.0841
11759W        W54812  10.942   2.630  24.183 -0.0527  0.0233 -0.1125
11760W        W54813   4.866   7.867  23.458 -0.1110 -0.1814 -0.2741
11761W        W54814   3.442  25.950  16.253  0.2920  0.0554  0.0061
11762W        W54815  15.969  13.759  14.844 -0.1154  0.0129 -0.4355
11763W        W54816   1.983  26.625   8.710  0.0462  0.2368  0.4073
11764W        W54817   5.713  14.073  14.723 -0.1251 -0.0934  0.1757
11765W        W54818  23.611   1.322  16.646 -0.0819  0.1176 -0.0764
11766W        W54819   2.987   6.075  22.704  0.1528 -0.2172  0.0879
11767W        W54820   4.322  26.623   4.674 -0.2495  0.0337  0.0205
11768W        W54821   8.213  19.110  19.559 -0.2495 -0.2814 -0.1894
11769W        W54822   1.888  17.021  17.192 -0.0660 -0.1405 -0.1595
11770W        W54823  29.033   3.832  17.572 -0.0567 -0.0036  0.1627
11771W        W54824   3.475  27.075  19.495 -0.0151  0.0950 -0.0534
11772W        W54825  30.026  10.371  27.792 -0.3713 -0.1888  0.0154
11773W        W54826   9.265  34.073   1.148 -0.4680 -0.2226  0.0417
11774W        W54827  31.544  26.077  13.907 -0.0081 -0.1905  0.1106
11775W        W54828  32.921   3.499  23.607  0.2128 -0.0603  0.2203
11776W        W54829  17.126  22.644  15.838 -0.0838  0.0475 -0.3285
11777W        W54830   0.007  11.569  19.919  0.1635 -0.2300  0.0434
11778W        W54831   8.027  32.978   6.205  0.3046  0.3882 -0.0589
11779W        W54832   0.732  29.684  27.152  0.0540 -0.2683  0.0253
11780W        W54833  28.481  29.935  18.825 -0.0018 -0.1140  0.0801
11781W        W54834   1.760   7.737  23.605  0.0907 -0.1071 -0.3696
11782W        W54835  21.483   6.520  20.475 -0.1601  0.3350 -0.0006
11783W        W54836   2.842  17.334   3.220  0.0119 -0.1210 -0.0346
11784W        W54837   9.463   4.320  15.235 -0.1213  0.0648  0.1204
11785W        W54838  13.934  25.715  19.776 -0.2367  0.0995  0.0050
11786W        W54839   2.469   6.275  18.278 -0.1204  0.1062  0.4256
11787W        W54840   2.574   6.554  21.276  0.1228  0.2210 -0.1563
11788W        W54841  33.332  21.365  21.687 -0.1929  0.1232 -0.0416
11789W        W54842  12.309   9.148   4.454 -0.0209 -0.1437  0.0262
11790W        W54843  30.878  28.550   6.785  0.0037  0.1344 -0.1500
11791W        W54844  26.975  27.463  24.072  0.2989  0.0126  0.0010
11792W        W54845  14.967  13.552   1.770  0.3213  0.3376  0.2303
11793W        W54846   3.017   3.770  18.285 -0.1074  0.1632  0.2354
11794W        W54847   9.375   4.860  14.886 -0.2637  0.0670 -0.1276
11795W        W54848  34.644  16.539  19.504 -0.2211  0.0948  0.0359
11796W        W54849  33.281  23.048  22.704 -0.4230  0.0042 -0.2180
11797W        W54850  26.677  10.997   1.046  0.0970 -0.0109 -0.3435
11798W        W54851   6.193  12.954  23.870 -0.0005 -0.3220 -0.2634
11799W        W54852  26.285   8.001  14.999 -0.1782  0.0061  0.1781
11800W        W54853   8.556  22.476  15.365 -0.0523  0.1601  0.0891
11801W        W54854   4.653  22.432  21.637 -0.0079 -0.5541 -0.1982
11802W        W54855  31.341  21.141  14.409 -0.1118 -0.1329  0.0925
11803W        W54856  13.038  12.967  24.138 -0.0668 -0.0818  0.4304
11804W        W54857  31.176  32.281  20.092 -0.0326  0.1012  0.0380
11805W        W54858  12.165   6.548  16.959  0.2027  0.0989  0.2677
11806W        W54859   3.415  21.805   6.635 -0.0494  0.0412  0.0026
11807W        W54860  31.482  29.055  17.527 -0.1329  0.1575  0.0646
11808W        W54861  33.793  10.388  20.578 -0.3144 -0.0073  0.1858
11809W        W54862   0.807  19.816  15.840  0.0591 -0.0535  0.0970
11810W        W54863   5.584  17.175  16.635 -0.0763 -0.2337 -0.0061
11811W        W54864  10.258  20.433  26.739  0.3808  0.0864  0.3312
11812W        W54865   6.410  28.219  22.047 -0.1010  0.3347 -0.1656
11813W        W54866  11.332   2.481  26.761  0.1530  0.2647 -0.0838
11814W        W54867  27.082  22.165  21.671  0.4506 -0.2590 -0.3686
11815W        W54868  30.340  12.544  18.331  0.4236 -0.0532 -0.0046
11816W        W54869  22.451  20.785  15.772 -0.0673  0.1569  0.2196
11817W        W54870  21.322  32.260  23.491 -0.1156  0.0728 -0.2782
11818W        W54871  33.698   9.943  26.949 -0.1143 -0.2181  0.0870
11819W        W54872   8.555   9.412   8.600 -0.2206 -0.1343  0.0456
11820W        W54873  32.281  18.108   1.574  0.0570  0.0364 -0.2214
11821W        W54874  23.940  12.404  28.318 -0.0238 -0.2209 -0.4569
11822W        W54875  17.695  12.762   3.710 -0.0985  0.0052  0.0952
11823W        W54876   9.106  15.867  10.049 -0.2043 -0.3242  0.0978
11824W        W54877   0.954  23.307  13.944 -0.2269  0.2532 -0.0099
11825W        W54878   3.117  18.982  16.069  0.1445  0.0689 -0.2432
11826W        W54879  34.045  17.835   4.473 -0.0939 -0.2946  0.2145
11827W        W54880   0.348   8.893   8.470  0.0149  0.0077  0.1153
11828W        W54881  30.519   7.845   8.356 -0.0824 -0.1013  0.0870
11829W        W54882   8.135  22.491  17.097 -0.2443  0.1026 -0.0068
11830W        W54883   0.684  16.255  25.467  0.5062 -0.0383  0.3776
11831W        W54884   2.703   6.499  14.313  0.1650  0.2100 -0.1321
11832W        W54885  13.733  18.071   0.116 -0.0300  0.4173 -0.0151
11833W        W54886   5.244  17.981  13.078 -0.1209  0.0595 -0.0468
11834W        W54887  25.862  33.103   0.494  0.1589  0.0846 -0.3133
11835W        W54888  31.008  17.229  15.743  0.3391 -0.1660  0.2624
11836W        W54889  30.320  13.914   9.853 -0.0571  0.3638 -0.0476
11837W        W54890  14.260   5.766   3.959  0.0043  0.3420  0.0838
11838W        W54891  14.976  33.346  26.925 -0.2181 -0.1513  0.3869
11839W        W54892  34.189   8.842  19.616  0.3290  0.0925  0.1146
11840W        W54893  20.948   3.207  15.098  0.3039  0.1453  0.2183
11841W        W54894  14.477  18.578  22.810  0.0152  0.1056 -0.0422
11842W        W54895  27.787   8.762  14.944  0.2935 -0.2360 -0.0349
11843W        W54896  24.416   2.814   5.614 -0.0263  0.0210 -0.2261
11844W        W54897  15.191   0.884   9.597 -0.1880  0.1670  0.1948
11845W        W54898  27.187  16.271  26.442 -0.0782 -0.2244  0.1328
11846W        W54899  11.680  14.360  23.943 -0.0933 -0.0880 -0.2137
11847W        W54900  11.418  10.925  22.325 -0.2215 -0.1292 -0.0661
11848W        W54901  18.101  24.212   1.038 -0.1960 -0.1101 -0.0795
11849W        W54902  11.462  12.713  18.133  0.0602  0.2099 -0.0195
11850W        W54903  13.560  33.496   9.089  0.2691 -0.2450  0.1689
11851W        W54904  31.644  11.410  16.349  0.1527 -0.1644 -0.3003
11852W        W54905  12.695  19.213   1.042  0.1366 -0.0599 -0.4500
11853W        W54906   6.469   0.173  17.174 -0.1490  0.1961 -0.6017
11854W        W54907  12.208  13.702   8.177  0.1211  0.0365  0.0988
11855W        W54908  12.754  20.813  23.368 -0.3805 -0.1367  0.2604
11856W        W54909  31.009  20.437  25.435 -0.3220 -0.2200 -0.0017
11857W        W54910  33.048  31.120  19.961 -0.1847 -0.1876  0.0965
11858W        W54911  34.181  12.740  19.961  0.0395  0.1421  0.1218
11859W        W54912  34.184  23.580  17.969 -0.2051 -0.1333  0.1394
11860W        W54913  22.097  14.626  27.732  0.0420  0.0603  0.0731
11861W        W54914  31.553  25.813  27.594  0.1638  0.0441  0.0129
11862W        W54915  21.927  16.952  19.840  0.2393 -0.1992 -0.3842
11863W        W54916  30.273  16.004   5.704  0.0168  0.0694 -0.1033
11864W        W54917   1.894  12.011  24.906 -0.4872  0.1738  0.0671
11865W        W54918   5.612  11.557   2.161  0.0505  0.1963  0.1811
11866W        W54919   3.394  20.127   0.568 -0.2796 -0.0996  0.1674
11867W        W54920   8.723  13.806  23.587  0.0791 -0.0871 -0.0357
11868W        W54921   4.699   0.970  22.099 -0.0050 -0.1147  0.0908
11869W        W54922   3.973  19.459  14.127 -0.2446 -0.2311  0.0064
11870W        W54923  10.945  16.489  21.998  0.1700 -0.2998  0.1604
11871W        W54924  29.507  10.374   8.827 -0.1593 -0.2711  0.0919
11872W        W54925   1.422  25.267  12.816 -0.0703 -0.0927 -0.1676
11873W        W54926  22.372  23.897  28.138  0.0187  0.3491  0.1925
11874W        W54927  27.192   9.446  16.727 -0.2411 -0.2149 -0.4634
11875W        W54928  10.942  20.636  14.852 -0.0008  0.0058  0.1935
11876W        W54929   5.434  18.209  10.058  0.3376  0.1192 -0.3660
11877W        W54930  10.460  22.145  23.130 -0.0209  0.0912 -0.0124
11878W        W54931   3.029  16.876   1.568  0.1421  0.0390  0.0065
11879W        W54932  22.638  17.001   7.941 -0.1359 -0.0098  0.0328
11880W        W54933   2.210   5.932   9.806  0.1009 -0.1383  0.2442
11881W        W54934   0.989   0.840  23.278 -0.2311  0.1895  0.1514
11882W        W54935   1.275   6.126  18.707 -0.1330  0.1818 -0.1497
11883W        W54936  21.929  15.921  22.066  0.2234 -0.0886 -0.4197
11884W        W54937  22.408   6.782   7.849 -0.1535 -0.0143 -0.1293
11885W        W54938  10.939   5.903   4.522 -0.0195  0.1413 -0.0121
11886W        W54939   3.334  15.816  24.126 -0.0849  0.0119 -0.0524
11887W        W54940   8.695  17.472   6.582 -0.2274  0.0866  0.1059
11888W        W54941  25.351  10.925   5.667 -0.2431 -0.1866 -0.2122
11889W        W54942   2.044  12.074  27.667  0.0368 -0.4631  0.0554
11890W        W54943  24.835  24.019   5.616  0.0464  0.1834  0.1344
11891W        W54944   4.880  27.280  19.587 -0.1502  0.1247  0.0434
11892W        W54945   7.600   0.098   0.941  0.2067  0.3208 -0.0355
11893W        W54946  20.634  17.804  22.990 -0.0077  0.1622 -0.0096
11894W        W54947   8.176  11.766  25.011 -0.3582  0.1132 -0.0837
11895W        W54948  17.812  26.550   3.863  0.2527 -0.0489 -0.0285
11896W        W54949   8.245  12.432  15.588 -0.0016  0.0328  0.0499
11897W        W54950  20.440  15.592   7.363 -0.1734  0.3297 -0.0588
11898W        W54951  13.467  15.125   1.699 -0.3311 -0.1451 -0.1752
11899W        W54952   8.055   4.277   1.258 -0.0579 -0.3277 -0.1481
11900W        W54953  23.991  28.836  16.092  0.1536  0.0311  0.3092
11901W        W54954  33.450   7.568  23.005 -0.0493  0.3162 -0.0644
11902W        W54955   1.842   0.892   1.153 -0.1475  0.0720 -0.1530
11903W        W54956  16.578  15.011  25.588 -0.0827  0.1192 -0.0804
11904W        W54957  10.211   2.874  29.169  0.2195  0.0871 -0.2785
11905W        W54958  14.309  12.870   4.281 -0.0532  0.2038  0.0452
11906W        W54959   3.419   2.960  26.393 -0.3103 -0.1859 -0.0500
11907W        W54960   6.620  11.172   1.314  0.1493  0.0609  0.0696
11908W        W54961  19.740  27.995  26.082  0.1687 -0.1320  0.1337
11909W        W54962   1.520   3.124  15.516 -0.2926 -0.0602 -0.1519
11910W        W54963  31.173  30.029  27.015  0.2421  0.1345 -0.0727
11911W        W54964  16.546  13.372  29.056  0.1867 -0.0691  0.0327
11912W        W54965   4.162  14.243  14.246 -0.0662 -0.0610 -0.0973
11913W        W54966  10.352  19.357  28.583 -0.0809  0.0530  0.1630
11914W        W54967  28.972  12.481   9.875 -0.1483  0.0259  0.5991
11915W        W54968   1.789  19.588  13.835  0.1234 -0.0154 -0.1390
11916W        W54969  27.718  14.580  27.596 -0.0599  0.0879 -0.0227
11917W        W54970  26.543  18.259   6.425  0.0585  0.2872 -0.1278
11918W        W54971   6.169   5.055  23.820  0.0030 -0.0011  0.4774
11919W        W54972  14.933  34.095  27.445 -0.1939 -0.1739 -0.3411
11920W        W54973   8.584  10.519   8.530  0.0252 -0.0450  0.0594
11921W        W54974   9.908  18.725   2.851  0.2922  0.1701 -0.1790
11922W        W54975   6.476  28.485   0.809 -0.2282 -0.1518  0.3596
11923W        W54976   2.498  21.857  27.430  0.1068  0.0077  0.1700
11924W        W54977  28.281  15.416  24.849 -0.0586 -0.0097 -0.1167
11925W        W54978   9.383  25.758  14.948  0.0968  0.1841 -0.0837
11926W        W54979   7.771   5.795   8.074  0.0207 -0.0086  0.0555
11927W        W54980  27.483   6.086   6.829  0.0299  0.0977 -0.0340
11928W        W54981  27.813  29.904  21.034  0.0306  0.2161  0.1957
11929W        W54982  11.309   3.118  28.869  0.2110  0.0035  0.3014
11930W        W54983  34.508   5.494  10.278 -0.0434  0.0940 -0.0714
11931W        W54984  13.407  16.151   4.860 -0.1859  0.1106  0.3189
11932W        W54985  30.207  18.553   8.346  0.2648 -0.0977  0.1538
11933W        W54986  32.628  18.929   5.767 -0.0100  0.1604 -0.1243
11934W        W54987   8.600   8.021   4.035 -0.1218 -0.1932 -0.0044
11935W        W54988  34.222   8.531  15.599 -0.1562  0.0492 -0.0577
11936W        W54989  33.470   5.074   6.913  0.0746  0.1080  0.1802
11937W        W54990  32.745  27.290   6.625 -0.0052 -0.0240  0.0200
11938W        W54991   3.642  12.965  17.614  0.0112  0.2304 -0.3791
11939W        W54992  12.281   7.592  27.268  0.0614  0.0334 -0.3908
11940W        W54993   8.776   5.187  24.381  0.3447 -0.1099  0.0671
11941W        W54994  12.716   2.704  17.697  0.1856  0.0657 -0.2567
11942W        W54995  27.274   0.311  21.698 -0.0327 -0.0028  0.0082
11943W        W54996  10.848  14.366  19.233  0.1432  0.1053  0.2316
11944W        W54997  31.517   1.658  17.647  0.0292  0.0377  0.1285
11945W        W54998  24.273  21.068   4.006  0.1066  0.1935 -0.2144
11946W        W54999  12.338   7.218  16.323 -0.0280 -0.5889 -0.1114
11947W        W55000  29.933   8.867   9.422 -0.0733 -0.4027  0.0060
11948W        W55001  34.224  22.162  15.797  0.4182  0.1259  0.1834
11949W        W55002   7.954   5.194   6.121  0.2717  0.1887  0.2940
11950W        W55003   4.041  14.420  20.634 -0.3583  0.0479  0.0180
11951W        W55004   1.310  25.520  16.677  0.1549 -0.1473 -0.3647
11952W        W55005   2.472  21.014  18.483  0.2016 -0.0163 -0.2447
11953W        W55006  31.700  33.763  28.327 -0.2763  0.1551  0.0798
11954W        W55007   8.553  14.290   5.158 -0.0635  0.0449 -0.0568
11955W        W55008   3.694   3.894  24.024  0.1601  0.2153  0.2954
11956W        W55009  32.089  31.091  26.193 -0.0859 -0.1771  0.2032
11957W        W55010   3.721  10.189   2.049  0.1372 -0.0827  0.0655
11958W        W55011   3.134  18.510   4.799 -0.1743 -0.0257 -0.0250
11959W        W55012   2.246  18.253  16.637 -0.2279  0.3819 -0.1188
11960W        W55013  17.341   7.544  22.187  0.0253 -0.1874  0.2545
11961W        W55014   3.880   0.611  15.667 -0.1819 -0.0132 -0.0973
11962W        W55015  20.897  16.347  28.367 -0.3614  0.1142  0.1427
11963W        W55016  16.809  31.193  27.827 -0.1639 -0.1291 -0.1252
11964W        W55017   7.597  20.977   2.591 -0.2300 -0.0343  0.0322
11965W        W55018   8.311  14.416  22.573  0.1994  0.1011  0.0416
11966W        W55019  16.121  19.877  23.593 -0.1233 -0.1887  0.0517
11967W        W55020  25.812  21.834  28.296  0.4340  0.2867  0.2603
11968W        W55021  34.408  32.956  16.744 -0.1704  0.0899  0.1943
11969W        W55022  26.797  15.769   0.966 -0.1611 -0.0204 -0.0067
11970W        W55023  24.180  18.817   1.859  0.2140 -0.0344  0.0240
11971W        W55024   2.889  25.084  14.087  0.0009  0.0841  0.0696
11972W        W55025   1.255  12.828  28.588  0.2295 -0.0640 -0.2477
11973W        W55026  12.938   3.469  23.376 -0.2257 -0.0616  0.1920
11974W        W55027   7.772  23.770   6.942 -0.0436 -0.3924  0.1830
11975W        W55028   4.391  21.239  18.927 -0.2002  0.2453  0.1750
11976W        W55029   1.420  10.169  27.091 -0.2320  0.2500 -0.2871
11977W        W55030  29.062  21.987   3.522 -0.0612 -0.2243  0.2328
11978W        W55031  29.258  15.876  24.074  0.1549 -0.0220  0.0355
11979W        W55032  10.675  28.558  26.814 -0.0648 -0.1945 -0.1419
11980W        W55033  32.197  19.942  18.541 -0.0651 -0.3066 -0.1811
11981W        W55034   0.549  24.642  28.646  0.0981 -0.0390  0.1436
11982W        W55035  23.227   6.834   8.228 -0.1229  0.2670  0.1822
11983W        W55036  10.757   1.716   6.761  0.0607 -0.1497  0.1515
11984W        W55037  34.680  15.879  21.049 -0.0725 -0.2835  0.1311
11985W        W55038   9.966  21.024  18.787  0.0204 -0.0640  0.3650
11986W        W55039  24.522  24.285  27.197 -0.1602 -0.0226  0.2141
11987W        W55040   3.768  11.083  16.495 -0.0382  0.0888  0.1934
11988W        W55041   6.082  21.654   1.185 -0.0597  0.0490  0.0969
11989W        W55042  32.382   4.295   3.872  0.0427  0.1196  0.1796
11990W        W55043  20.401   8.688  16.892  0.1571  0.0891 -0.1186
11991W        W55044   2.088  24.890  10.016  0.0158 -0.4710  0.1034
11992W        W55045   3.207  10.129  14.539 -0.1240 -0.1322  0.1403
11993W        W55046  33.601   0.186  17.203  0.0714  0.1327 -0.2621
11994W        W55047  22.358  25.688  28.163  0.1588 -0.3314  0.0244
11995W        W55048  34.453  25.101  27.676 -0.1283  0.0724 -0.1044
11996W        W55049   3.551  10.106  25.994 -0.1807  0.0067  0.2060
11997W        W55050   6.900   2.854   3.199 -0.1359 -0.0189  0.1362
11998W        W55051  19.226  26.267   5.857  0.1024  0.0230  0.2400
11999W        W55052  23.750  11.404  24.625 -0.0539  0.0658 -0.1149
12000W        W55053   7.041  18.597   7.193  0.0597  0.1043 -0.0553
12001W        W55054   6.392  21.340  22.640  0.0386  0.3156 -0.1012
12002W        W55055  21.248  20.737  24.258  0.0507 -0.0408  0.4305
12003W        W55056   0.544   0.404   9.710  0.0570  0.3014  0.0209
12004W        W55057  26.379  16.220   3.586 -0.1024 -0.0917 -0.0173
12005W        W55058  10.063   7.761  28.000 -0.1158  0.1296 -0.0405
12006W        W55059  34.570  28.976   0.856  0.1364  0.2514 -0.2429
12007W        W55060  32.916  30.154   4.184  0.0157  0.1150 -0.0238
12008W        W55061   6.677   9.791  17.514 -0.0167 -0.1537 -0.7905
12009W        W55062   4.770  17.661  26.364  0.1079 -0.2314  0.1132
12010W        W55063   3.953  20.117  16.256  0.0708  0.3041 -0.0876
12011W        W55064  26.477   5.570  16.988  0.1615  0.2762 -0.1102
12012W        W55065   3.466   6.458  19.625 -0.0037  0.3156 -0.1795
12013W        W55066   4.613  13.136   4.250 -0.6876 -0.0617 -0.1325
12014W        W55067   6.413   7.377   8.704 -0.0241 -0.3194  0.1732
12015W        W55068  29.361  32.357   5.543 -0.2006  0.2004 -0.1385
12016W        W55069  18.830  12.860  26.359  0.2155 -0.0360  0.2247
12017W        W55070  32.016  18.990  19.111  0.2353 -0.1947  0.3033
12018W        W55071   6.388   6.089   3.638  0.0343 -0.0355  0.2715
12019W        W55072   2.344   6.028   8.538  0.1810  0.1511  0.2050
12020W        W55073   1.653  21.978   4.415  0.2718  0.3135 -0.0598
12021W        W55074   6.328  32.495  29.106 -0.0049  0.0247 -0.0660
12022W        W55075  19.572  15.069  25.079  0.1742  0.0175 -0.1013
12023W        W55076   0.375  19.999  25.954  0.0190  0.2654 -0.0191
12024W        W55077  30.093  20.613   5.801 -0.2353 -0.0900  0.1010
12025W        W55078  20.011  23.523  20.061  0.4778 -0.1400 -0.0652
12026W        W55079  31.747  32.406   4.072 -0.0788  0.1908  0.0004
12027W        W55080   4.627  12.726  22.736 -0.2489 -0.1098  0.0357
12028W        W55081   9.486  25.288  28.366  0.1978  0.3358  0.1040
12029W        W55082  30.083  18.633  29.120  0.0499  0.0864 -0.0052
12030W        W55083  10.805  16.833  18.628 -0.1915  0.0904  0.0259
12031W        W55084  32.236  11.742  28.266  0.1644  0.2249 -0.1612
12032W        W55085   5.833  32.223  27.036  0.2032  0.0777 -0.1368
12033W        W55086   6.300   9.529  15.241 -0.0154  0.2644 -0.0861
12034W        W55087  31.285  10.417  24.672  0.2820 -0.0877 -0.1226
12035W        W55088   3.050  12.394   1.696 -0.0471  0.0614  0.1598
12036W        W55089  17.705   8.177  25.434 -0.1208 -0.1085  0.0208
12037W        W55090   1.549  34.115   0.703 -0.1977 -0.0325  0.0339
12038W        W55091  17.016   2.169   6.344 -0.1889 -0.0106 -0.0945
12039W        W55092  25.396   7.303   1.087  0.0761  0.1336 -0.0939
12040W        W55093   7.832  25.652  21.281 -0.0118  0.3154 -0.2058
12041W        W55094   5.055  16.541  10.256  0.0657  0.1016 -0.0023
12042W        W55095  12.515   9.670  22.985 -0.0829  0.3910 -0.2205
12043W        W55096   4.259  19.079   2.593  0.3347 -0.0486  0.0015
12044W        W55097   9.257  22.134   6.540 -0.1376 -0.3835  0.0099
12045W        W55098   8.209  20.882   7.786  0.2145 -0.0327  0.1346
12046W        W55099  10.585   4.342  22.272  0.2552  0.1869 -0.1531
12047W        W55100  34.049   9.645  26.447 -0.0480 -0.0008  0.0038
12048W        W55101  32.625   9.908  25.511 -0.0616  0.0729  0.0757
12049W        W55102   0.846   7.123  16.873 -0.1052  0.1606 -0.0725
12050W        W55103   2.470  22.739  25.657 -0.0771  0.0435 -0.1453
12051W        W55104  30.100  11.306  28.030  0.0026  0.1577 -0.0768
12052W        W55105   7.536  19.043  27.226 -0.2304  0.1046 -0.0355
12053W        W55106   3.604  10.937   9.850 -0.0959 -0.2466  0.0144
12054W        W55107  34.199   2.278   4.161  0.1124 -0.3266  0.1128
12055W        W55108   9.643  23.988   5.735 -0.0729 -0.2403 -0.0345
12056W        W55109   0.066  23.657  23.458 -0.1867  0.0117 -0.0693
12057W        W55110  25.629  23.583  28.977  0.0341 -0.0182 -0.1618
12058W        W55111  14.728  20.263  25.861 -0.1271 -0.1745 -0.0066
12059W        W55112   7.261  26.319  27.732 -0.0511  0.0097 -0.0715
12060W        W55113  24.701  15.126  19.762  0.0971  0.5571 -0.0730
12061W        W55114   1.170  22.123   6.277  0.3206  0.0922 -0.2530
12062W        W55115  31.303  30.850   0.865  0.0078  0.2330  0.1425
12063W        W55116  13.414  19.676  22.050  0.1208  0.0103  0.0117
12064W        W55117  19.937  34.580   3.099  0.1830  0.0071 -0.4634
12065W        W55118   6.826   2.517  27.512 -0.0107  0.0403  0.3662
12066W        W55119   3.419  22.635  19.857  0.1172 -0.3229 -0.0285
12067W        W55120   5.701  13.578  14.983  0.0370  0.0586  0.0975
12068W        W55121   6.890  11.004  17.137  0.0169  0.0628 -0.0556
12069W        W55122  25.956  21.689   1.585 -0.0793  0.1268 -0.1877
12070W        W55123  19.007   1.263  22.623 -0.1684 -0.0474 -0.0726
12071W        W55124   8.177  12.648   6.855  0.1260  0.1084  0.0263
12072W        W55125  25.226  13.661  21.899 -0.1713 -0.2856 -0.0433
12073W        W55126   8.148  13.678   6.340  0.1124 -0.0490  0.1587
12074W        W55127  30.672   1.419   1.109  0.1105 -0.0908  0.0086
12075W        W55128  32.596  20.765  19.077  0.1191 -0.0036  0.0829
12076W        W55129  26.415  17.498  23.082  0.0388 -0.2094 -0.0863
12077W        W55130  13.204  15.691   5.003  0.0121 -0.2690  0.0961
12078W        W55131  30.576  11.125  20.105 -0.0304  0.0889 -0.2404
12079W        W55132  14.122  13.373  29.029  0.1682  0.0430  0.0758
12080W        W55133   3.008  18.605  23.725  0.1815 -0.1127  0.2747
12081W        W55134   2.805  25.686  21.977 -0.2090 -0.0311  0.0554
12082W        W55135  33.223  20.131  27.381 -0.3697 -0.0710  0.2462
12083W        W55136  33.093   8.183  17.468  0.3798  0.0357  0.0698
12084W        W55137  32.933  33.136  27.460 -0.1518  0.2447  0.0247
12085W        W55138  33.666  10.036  16.430 -0.2394 -0.2394 -0.1317
12086W        W55139  28.073   4.164   2.043 -0.0251 -0.0724  0.1443
12087W        W55140  12.154  20.091   4.869 -0.0212 -0.1022 -0.1206
12088W        W55141   7.017   2.898   8.678  0.3121 -0.3112  0.3588
12089W        W55142  15.399  13.442   4.349  0.2383 -0.0592  0.2312
12090W        W55143  17.946  25.943   2.304 -0.0170 -0.1376 -0.4018
12091W        W55144  28.208  21.338  15.241  0.0417 -0.0828  0.2871
12092W        W55145  10.820   7.891   3.849  0.0096 -0.0082 -0.1249
12093W        W55146   2.254  30.442  27.091  0.0861 -0.0981 -0.0218
12094W        W55147   0.464   6.471  18.043  0.0418  0.0968  0.1601
12095W        W55148   1.139  11.016   9.040  0.1317  0.1042 -0.3055
12096W        W55149  29.536   5.415  22.740  0.4204  0.0242 -0.0079
12097W        W55150   2.682   5.262  19.140 -0.2863 -0.0273  0.0844
12098W        W55151   0.214   6.535  16.063 -0.0814 -0.1397  0.0865
12099W        W55152   6.658  15.848  26.872 -0.2229  0.0268  0.2315
12100W        W55153   0.471  29.942  21.150  0.3421  0.1354  0.0703
12101W        W55154  30.998   1.599   4.819 -0.0404  0.3541 -0.1180
12102W        W55155  31.700  29.350   2.111  0.3810 -0.1776 -0.0377
12103W        W55156   6.163  12.832  22.778  0.3282  0.2409  0.3143
12104W        W55157  27.713  24.986   5.655  0.1078  0.0156 -0.0528
12105W        W55158  13.839  13.886  19.452  0.0103  0.1062 -0.2892
12106W        W55159   3.150   9.834  10.553  0.1109  0.1879 -0.1021
12107W        W55160   5.319  20.146  24.219  0.1141  0.1483  0.1145
12108W        W55161  26.158   9.472  27.023 -0.1298 -0.1548  0.1675
12109W        W55162  26.452  16.288   8.508  0.1086 -0.3905  0.0564
12110W        W55163  34.269  28.290   0.084 -0.0678  0.5228  0.1522
12111W        W55164  30.583  11.870  29.048  0.2944  0.0448 -0.1766
12112W        W55165   2.679  22.014  14.280 -0.1417 -0.0451 -0.2023
12113W        W55166   1.638  16.896   0.626  0.1961 -0.2647  0.0351
12114W        W55167   6.493  22.786  22.031 -0.0321  0.0746 -0.0649
12115W        W55168   5.074   6.416  25.950  0.4336 -0.1505  0.1651
12116W        W55169  31.824   2.965   8.038 -0.0601 -0.3352 -0.1102
12117W        W55170   0.126   9.255  26.396  0.0790 -0.1472 -0.3444
12118W        W55171  26.636  16.008  19.664  0.0130 -0.1944 -0.3247
12119W        W55172  34.082  19.552   2.292 -0.2335 -0.0468  0.0305
12120W        W55173   8.830  18.283  25.939 -0.1215  0.1575 -0.0600
12121W        W55174   2.572  16.972  20.484  0.3050  0.0826 -0.2506
12122W        W55175   5.018   7.504   0.754 -0.2027 -0.0476  0.1289
12123W        W55176  11.215   9.568  27.622  0.1461 -0.1531  0.0610
12124W        W55177  27.680   3.885   0.699 -0.0175 -0.2236 -0.1058
12125W        W55178   4.174   8.040   9.869 -0.2071  0.1845  0.0638
12126W        W55179   5.402   6.197  22.027  0.1612  0.2528 -0.1594
12127W        W55180  30.558   9.920  19.434  0.0360 -0.1350  0.0964
12128W        W55181  34.596   9.510  18.538  0.0954 -0.1627  0.2163
12129W        W55182  13.971   9.117   1.671 -0.4797 -0.0888  0.0790
12130W        W55183   4.535  17.145   7.032  0.1197  0.0112 -0.0874
12131W        W55184   1.257   8.996  28.012  0.1574 -0.1257  0.0177
12132W        W55185  33.762  15.621  25.972 -0.1365  0.4573  0.0651
12133W        W55186  30.015   3.666  22.309  0.1271 -0.0477  0.1630
12134W        W55187  27.194  18.417  21.053 -0.2437 -0.0492 -0.2350
12135W        W55188  24.764  20.299   1.836  0.0705 -0.3226  0.0345
12136W        W55189   4.936  21.232   8.133  0.1616  0.0998  0.0938
12137W        W55190  16.369  29.811  19.575 -0.0931 -0.2371  0.2039
12138W        W55191  12.680  15.377  26.953 -0.1868  0.3177 -0.0876
12139W        W55192  25.847  12.152  25.463 -0.1577  0.1171 -0.1196
12140W        W55193   9.802   4.213  14.158  0.1177  0.3034 -0.0429
12141W        W55194   2.205   0.155  17.072  0.1500  0.1403  0.2142
12142W        W55195  34.300  27.499   6.331 -0.1823 -0.0358  0.0642
12143W        W55196   2.532  29.315  16.326  0.2310 -0.2002 -0.2575
12144W        W55197  16.352   2.558  16.580 -0.1494 -0.0752  0.0569
12145W        W55198  30.049  29.144   6.346  0.1724 -0.0599 -0.1478
12146W        W55199   4.229  11.825  21.129  0.0122  0.1570 -0.2477
12147W        W55200  34.230  15.226   3.146  0.1183  0.1748 -0.0827
12148W        W55201   8.359  14.819  21.789 -0.0295 -0.1883  0.4260
12149W        W55202   1.342   7.716  28.038 -0.1127 -0.1123 -0.1022
12150W        W55203   5.299  12.957   1.408 -0.0827 -0.1542 -0.0132
12151W        W55204  21.016  10.374   7.956 -0.3287 -0.0026  0.1515
12152W        W55205   7.664  27.753  18.995  0.0645 -0.1036 -0.0035
12153W        W55206  13.191  10.053   3.125  0.0714 -0.0428 -0.0218
12154W        W55207  23.785  29.793  16.130 -0.1437 -0.0717  0.0492
12155W        W55208  16.647  13.357  15.908 -0.0336  0.0034  0.0576
12156W        W55209  30.377  21.715  24.887  0.1050 -0.0838  0.1996
12157W        W55210  20.300  24.877  26.927  0.2859 -0.2317 -0.0079
12158W        W55211   4.124  14.780  26.601  0.2475 -0.0405 -0.0291
12159W        W55212  15.513  13.527   8.172  0.1014 -0.0676  0.1181
12160W        W55213  11.705   1.622   6.443  0.0285  0.1807  0.2138
12161W        W55214   0.895  14.034  27.965  0.2723 -0.2225 -0.2185
12162W        W55215  10.291   0.897  15.024  0.0921 -0.3383  0.4070
12163W        W55216   1.760   7.774  25.479  0.0708  0.1004  0.0690
12164W        W55217  23.436  25.460  17.068  0.1301 -0.2334  0.0322
12165W        W55218  34.657   6.688   4.515 -0.5482 -0.1526 -0.0459
12166W        W55219  11.474  30.248   4.977  0.1706 -0.0019 -0.1183
12167W        W55220   6.647  11.266  28.752  0.3276  0.1173  0.1983
12168W        W55221  13.634  17.308  28.342  0.1671  0.2455  0.2165
12169W        W55222  25.980  28.946  17.102 -0.0932 -0.0810 -0.0987
12170W        W55223  10.371  21.300  22.151 -0.0377  0.0435  0.0510
12171W        W55224   2.957   3.491  16.284  0.1346  0.0907  0.0758
12172W        W55225   5.184  17.216  20.971  0.0331  0.0848 -0.4879
12173W        W55226   1.839  11.495   7.569  0.0644  0.1780  0.1991
12174W        W55227  23.872  20.159  17.611 -0.1623 -0.2009  0.2058
12175W        W55228  15.120  10.124  25.628  0.0394  0.1993 -0.2046
12176W        W55229  31.443  10.647  27.925 -0.0494  0.1632 -0.2707
12177W        W55230   2.507  15.467  25.715 -0.1889  0.0415 -0.1722
12178W        W55231   0.393   8.038   7.211 -0.0453 -0.0421  0.1494
12179W        W55232   4.919  14.380  24.874  0.1780 -0.2408 -0.0196
12180W        W55233  26.342  17.841  14.250  0.0197 -0.3779 -0.2501
12181W        W55234  12.651  28.869  22.924  0.3422  0.0764 -0.0816
12182W        W55235   1.112  23.980  15.059  0.1063 -0.0134 -0.2633
12183W        W55236   6.914  16.816  27.176  0.3407 -0.2592 -0.0089
12184W        W55237   3.539  13.327  22.236 -0.0052 -0.1921  0.1559
12185W        W55238  15.409  14.736  26.638  0.1735 -0.0465  0.1310
12186W        W55239   6.525  10.959  26.907 -0.1726 -0.4544 -0.1471
12187W        W55240  33.212  13.386   1.191 -0.1143 -0.2422  0.2415
12188W        W55241  30.677  20.921  24.332  0.1552 -0.1707 -0.2591
12189W        W55242   5.298  26.123  16.376  0.3326  0.0755  0.1519
12190W        W55243   0.895  13.046   4.207  0.1357 -0.1087 -0.2662
12191W        W55244  20.911   9.850   5.060 -0.0617  0.1771  0.1648
12192W        W55245   1.663   8.592  18.735 -0.1288  0.0325 -0.0964
12193W        W55246  10.016  10.783   8.742  0.1889  0.0607  0.0828
12194W        W55247   9.461  15.492   6.190 -0.0374  0.1723 -0.2743
12195W        W55248  29.685  23.212   9.025 -0.0384  0.0025  0.0022
12196W        W55249  30.095   9.925   2.332 -0.3252  0.1955 -0.0485
12197W        W55250   5.092  11.122   1.219 -0.2559  0.0274 -0.1052
12198W        W55251  10.502  15.086  19.776  0.1340  0.2483 -0.0291
12199W        W55252   2.389  26.698  24.625 -0.0705 -0.1924  0.0035
12200W        W55253  30.557  22.157  27.511 -0.3085  0.1081 -0.2481
12201W        W55254   3.533  29.383  19.490 -0.1404 -0.3608 -0.1799
12202W        W55255   5.648  33.408  26.584  0.1845  0.0853 -0.2458
12203W        W55256   2.320  29.526  10.076  0.2892 -0.0032  0.0010
12204W        W55257   7.724  28.585  28.036  0.2888 -0.1575 -0.1578
12205W        W55258  18.531  30.901  18.317 -0.2193 -0.0017 -0.0637
12206W        W55259   1.977   6.161  22.727  0.0526 -0.1094 -0.3238
12207W        W55260  29.521   5.556  14.584  0.2816  0.1117  0.1504
12208W        W55261  32.744  25.381   5.433  0.0069  0.0182 -0.0895
12209W        W55262   8.167   8.589   4.722  0.0931  0.2256 -0.0721
12210W        W55263  33.582  16.731  20.375  0.1096 -0.3615  0.2799
12211W        W55264  31.983  11.525  21.956  0.0547 -0.1104 -0.1590
12212W        W55265  21.960  24.527  23.656 -0.3774 -0.1734  0.2114
12213W        W55266   4.821  30.013  27.946 -0.0253  0.1817  0.0120
12214W        W55267  24.559  26.901  22.597 -0.2873 -0.1085 -0.0264
12215W        W55268  34.597   5.049   1.135 -0.1615 -0.1298  0.2277
12216W        W55269   4.455  30.395   9.278  0.2273 -0.1666 -0.3005
12217W        W55270  13.690  33.928   5.487 -0.1224 -0.1099  0.0829
12218W        W55271  28.796  33.936  26.216  0.1776 -0.0863 -0.1438
12219W        W55272  34.218  17.358   3.170 -0.0292 -0.2552 -0.2549
12220W        W55273  14.877  29.463   8.720  0.3511 -0.0325 -0.1724
12221W        W55274  24.075   2.887   9.490  0.0678 -0.0145 -0.1966
12222W        W55275  16.016   5.225  18.110 -0.0053 -0.0466 -0.0321
12223W        W55276  21.930  21.569  20.560  0.2810  0.2043 -0.0270
12224W        W55277  10.370   7.838  23.018  0.0341  0.0345 -0.0936
12225W        W55278   5.841   2.187  16.799  0.1815  0.0039 -0.0733
12226W        W55279  30.226  28.275   0.409 -0.3526 -0.0518  0.1959
12227W        W55280   1.205  18.432  25.301 -0.3554  0.0860  0.1282
12228W        W55281  17.887  19.480   1.199 -0.1688  0.1168  0.2472
12229W        W55282  11.065  17.329  26.869 -0.0120  0.1647  0.1674
12230W        W55283  11.557  16.162  26.586 -0.0121  0.3909  0.0500
12231W        W55284  30.819  30.377   0.807 -0.0913 -0.0833 -0.1515
12232W        W55285  10.508  29.187   1.866 -0.0486  0.0600 -0.1590
12233W        W55286  33.664  18.381  20.909 -0.2110 -0.0044 -0.1666
12234W        W55287  25.089  17.051  25.076 -0.0441 -0.3077 -0.2842
12235W        W55288   3.645   4.154   5.703  0.1746 -0.2983 -0.2010
12236W        W55289  17.803  22.638   6.870 -0.1902 -0.1294 -0.2865
12237W        W55290  23.318  14.141  15.047  0.2654  0.0427  0.0945
12238W        W55291  21.792  16.121  23.205  0.0317  0.1292  0.2238
12239W        W55292  13.946  21.350  21.271 -0.1901 -0.1217 -0.0835
12240W        W55293   4.140  27.108   4.671 -0.2162 -0.1808  0.3194
12241W        W55294  14.682   7.433  19.074  0.0425  0.2356  0.3386
12242W        W55295  33.111  27.365  17.845  0.0218  0.2827 -0.2420
12243W        W55296  29.243  19.483  21.001 -0.2320 -0.0033  0.2608
12244W        W55297  27.280   0.853  21.957 -0.2119 -0.1073  0.2024
12245W        W55298  27.405  28.488   5.945 -0.2195 -0.0193 -0.1107
12246W        W55299  10.083  19.908  23.784  0.2655 -0.2207 -0.2314
12247W        W55300   3.305  17.574  28.839  0.0133  0.1290 -0.1987
12248W        W55301   2.185   1.625  20.541  0.0430  0.0747 -0.1824
12249W        W55302   5.929  15.268   7.001 -0.0834 -0.1948 -0.0973
12250W        W55303  23.922  27.434  26.586 -0.1191 -0.2830  0.1953
12251W        W55304   5.783  21.261   4.430  0.0771  0.0490  0.0482
12252W        W55305  30.401  14.132   1.531 -0.3299 -0.1820 -0.0262
12253W        W55306   2.489   1.922  23.848  0.0354 -0.0371 -0.1034
12254W        W55307   9.185  10.372  24.213 -0.0782 -0.0511 -0.2035
12255W        W55308   9.031  18.192  26.461  0.0147  0.1061 -0.2847
12256W        W55309   9.507  20.479  19.490  0.4822  0.2436  0.0698
12257W        W55310   4.373  25.225  26.646  0.1609  0.1286 -0.0304
12258W        W55311  25.482   8.293  26.263  0.1327  0.1879 -0.0035
12259W        W55312   6.409  22.811  23.883 -0.0492 -0.2223  0.1292
12260W        W55313  29.120  11.835   1.484 -0.2271  0.3999 -0.0324
12261W        W55314   1.501  22.388  22.965  0.1285  0.3166 -0.0759
12262W        W55315   5.528   7.057  27.996  0.2268 -0.2703 -0.1136
12263W        W55316  30.328  12.164  27.786  0.3096 -0.4312  0.0664
12264W        W55317   5.222  10.672  26.399 -0.2467  0.1766 -0.0671
12265W        W55318   4.729   0.263   4.009  0.4775  0.2468  0.0981
12266W        W55319  23.132  21.956   5.006 -0.0706  0.1798 -0.3374
12267W        W55320   5.411  12.955  24.456 -0.0337  0.2496  0.0665
12268W        W55321  20.157   2.480   7.615  0.2572 -0.0307  0.1592
12269W        W55322  31.198   9.700   9.935  0.2302  0.2718 -0.1783
12270W        W55323  21.604   6.107  27.438 -0.1266 -0.2207  0.2018
12271W        W55324   0.533  22.971  16.655 -0.1855  0.0405  0.0431
12272W        W55325  30.340  13.835  28.897 -0.1311  0.0424 -0.0844
12273W        W55326  20.214  21.323   2.383 -0.1208  0.2169 -0.4257
12274W        W55327  14.444  15.451   7.294  0.0011 -0.0638  0.4104
12275W        W55328  24.060   8.813  16.648  0.0317  0.0843  0.1894
12276W        W55329   5.320  20.818   5.226  0.1198 -0.0804 -0.2132
12277W        W55330   9.734   4.030   2.241 -0.2291 -0.0286 -0.2270
12278W        W55331   3.939   5.221  28.103 -0.1758  0.1079 -0.4232
12279W        W55332   7.446   3.153   3.178  0.1653  0.1233 -0.1491
12280W        W55333  34.662  24.529  20.507 -0.0694  0.5081 -0.0536
12281W        W55334  23.332   6.242  25.726 -0.1082  0.2078 -0.1694
12282W        W55335  17.769  24.412  16.394  0.0914 -0.2410  0.3008
12283W        W55336  12.241   7.578  15.654  0.3775 -0.2779  0.0669
12284W        W55337   5.760  25.136  28.558  0.1069 -0.0149 -0.0534
12285W        W55338  13.410   1.763  19.427  0.1178  0.1354 -0.2192
12286W        W55339   0.149  14.752  23.289 -0.0926  0.2267 -0.0266
12287W        W55340   3.798  25.777  21.533 -0.4308  0.0159  0.1312
12288W        W55341  29.396   1.080  27.487 -0.1399  0.0002  0.0583
12289W        W55342   5.225   8.197  20.638 -0.0391  0.2971 -0.0956
12290W        W55343  30.674  17.548   9.578 -0.0988 -0.0920  0.0537
12291W        W55344   8.250  19.486   0.446 -0.1159 -0.2260  0.0074
12292W        W55345   6.291  16.432  25.613 -0.1466  0.0132 -0.3846
12293W        W55346   5.232  31.618   3.212  0.0882 -0.0895  0.1162
12294W        W55347  14.003  23.831   3.786 -0.0903 -0.1358  0.1486
12295W        W55348  29.287  19.980  17.480 -0.1405  0.1643  0.3340
12296W        W55349  33.877  15.407   4.944  0.0536  0.0172  0.0891
12297W        W55350  12.637  26.415   8.236  0.1350 -0.0570  0.1788
12298W        W55351   7.295   1.242   2.799  0.1385 -0.3142 -0.0846
12299W        W55352  19.007   4.287  28.919  0.0689 -0.3882 -0.1469
12300W        W55353  26.700  22.523   2.024  0.4367 -0.2023  0.0660
12301W        W55354   4.361  33.776  20.561 -0.0420 -0.1330  0.0092
12302W        W55355  28.857  17.847  10.473  0.0792 -0.1988  0.0271
12303W        W55356  14.281  17.052  24.468 -0.0592 -0.1568  0.2224
12304W        W55357  30.657  15.827  28.329  0.2410  0.1677  0.3186
12305W        W55358  21.914  17.884  27.058 -0.2732 -0.0417 -0.1050
12306W        W55359   8.548  15.395  23.402 -0.1547  0.2947  0.0739
12307W        W55360  18.876  23.366  28.317  0.1238  0.0244  0.3644
12308W        W55361  28.264  20.673  20.519 -0.0533  0.1467 -0.3947
12309W        W55362  15.091  14.324  14.267 -0.0881 -0.0846  0.0963
12310W        W55363  22.132   4.769  28.470  0.3458  0.2524 -0.0453
12311W        W55364  27.396  18.226  16.956 -0.0226 -0.3745 -0.1237
12312W        W55365  30.832  16.557  20.563 -0.3378 -0.1055  0.1447
12313W        W55366  25.544  12.994  14.543 -0.0274 -0.1015  0.1690
12314W        W55367  16.542   9.969  19.057  0.1129  0.1760 -0.1677
12315W        W55368  34.357  21.779  16.222  0.0243  0.1682 -0.0319
12316W        W55369  16.363   8.386  14.817  0.0081 -0.0506  0.0056
12317W        W55370  14.368   9.898  16.176 -0.0669  0.0544  0.2163
12318W        W55371  29.319   8.942  25.463  0.0676 -0.1146  0.0715
12319W        W55372  31.225  18.995  16.409  0.1575 -0.0701  0.2661
12320W        W55373   5.947   5.723   6.409  0.0438 -0.0958  0.0934
12321W        W55374  33.201   7.804  15.348  0.0263 -0.1096 -0.1935
12322W        W55375   2.571  24.041  18.613  0.0279 -0.0379 -0.0165
12323W        W55376  28.512  30.229  25.583  0.0591  0.0904 -0.1059
12324W        W55377  14.416  23.278  15.234 -0.0244 -0.0198  0.1856
12325W        W55378  33.617  16.912   1.178 -0.2269  0.1452  0.0682
12326W        W55379  34.054  21.037  15.713 -0.0921 -0.0674  0.0886
12327W        W55380  15.423  22.355   0.287 -0.0401 -0.0156 -0.1770
12328W        W55381  32.738  30.939  13.030  0.2829 -0.2573 -0.0277
12329W        W55382   2.264  10.061  14.428  0.0848  0.1691 -0.0883
12330W        W55383   5.671  22.866  27.838 -0.0282  0.3198  0.2830
12331W        W55384   2.747  23.918  16.374 -0.1062 -0.1669  0.1401
12332W        W55385  21.341  29.985  15.186  0.0264 -0.0631  0.2748
12333W        W55386  32.620  22.942  14.577 -0.3038 -0.2649  0.0505
12334W        W55387  12.339  24.099  23.205  0.1920  0.3905 -0.1249
12335W        W55388  33.629   9.454  19.420 -0.3896 -0.0047  0.4312
12336W        W55389  19.728   0.683  18.235 -0.1069 -0.1674 -0.2680
12337W        W55390  29.026  18.312  15.360  0.2309 -0.0321 -0.1207
12338W        W55391  10.990   0.100  25.720 -0.0932  0.0564 -0.0405
12339W        W55392   7.380  22.283  19.875  0.2544 -0.2301 -0.0591
12340W        W55393   3.767  24.284  19.234  0.0458 -0.2878 -0.0654
12341W        W55394  34.509   0.824  15.737 -0.2901 -0.1328  0.2097
12342W        W55395   8.001  14.400   0.318  0.4139  0.1280 -0.0453
12343W        W55396  22.833   9.632   0.299 -0.0087 -0.0929  0.4325
12344W        W55397   1.566  10.008   6.025 -0.0807 -0.1257 -0.0452
12345W        W55398   0.102  14.390  15.798 -0.1525  0.1257 -0.2649
12346W        W55399   3.829   4.183  15.876 -0.0208 -0.1584  0.0940
12347W        W55400   4.003  34.159  25.483  0.0413 -0.0616 -0.0579
12348W        W55401   7.655  27.705  13.063  0.0489 -0.1592 -0.3565
12349W        W55402  10.175  27.351  20.778  0.1143 -0.2826 -0.0620
12350W        W55403  34.665  28.896  24.214  0.0161  0.2674  0.0816
12351W        W55404   5.344  12.767  15.022 -0.0369 -0.2128  0.3937
12352W        W55405  23.049  27.527  24.682 -0.0510 -0.1422  0.0170
12353W        W55406  16.243  18.941  25.207  0.2745  0.2064 -0.5547
12354W        W55407  15.042  33.226  23.524 -0.0752 -0.1687 -0.0565
12355W        W55408   5.082  15.943  25.091  0.1070 -0.2384  0.4000
12356W        W55409   7.254   7.408   5.075  0.0580 -0.2981  0.1451
12357W        W55410   3.738  25.277  17.006  0.0545 -0.0350 -0.2475
12358W        W55411   2.149   1.047  16.592 -0.4813 -0.1221 -0.1411
12359W        W55412  24.104  16.900  14.804 -0.1461  0.0335  0.0112
12360W        W55413   1.492   4.248  14.067  0.2111 -0.2422  0.1491
12361W        W55414   8.733  10.415  19.195 -0.1594  0.1482  0.0439
12362W        W55415  20.893  15.313  25.696  0.1831  0.1190 -0.0514
12363W        W55416   7.295   9.874  18.639  0.0861  0.0255 -0.0395
12364W        W55417   0.125  28.956  18.525 -0.0533  0.0937 -0.0216
12365W        W55418   5.495  19.298  22.221 -0.0769 -0.4536 -0.0596
12366W        W55419   3.368  28.610  27.331  0.2154 -0.1594  0.4125
12367W        W55420  16.478  27.716  19.798 -0.2860  0.0675 -0.1169
12368W        W55421  32.596  32.343  16.984  0.2697 -0.2029 -0.2195
12369W        W55422  27.280  11.996  17.770  0.0096 -0.1689 -0.0524
12370W        W55423  19.164  29.484  27.130  0.0647 -0.1059 -0.2644
12371W        W55424  19.490  29.875   0.109  0.0031  0.2772 -0.1919
12372W        W55425  30.092  33.270  22.601  0.1322  0.1899 -0.0151
12373W        W55426   1.592  13.361  20.391  0.3297  0.1170 -0.1773
12374W        W55427   9.573   9.133  28.777 -0.1332  0.4203 -0.1577
12375W        W55428   1.952  26.779  21.540 -0.1146  0.3340 -0.0118
12376W        W55429  20.167  24.876  23.611 -0.0338 -0.0203  0.1006
12377W        W55430   7.729  22.912   3.331  0.0072 -0.0924  0.0808
12378W        W55431   1.680  14.667  18.788  0.0796 -0.1348 -0.0337
12379W        W55432   5.438   1.222  21.496 -0.1174 -0.1597  0.0233
12380W        W55433   4.725  25.743  15.427 -0.0774  0.0158  0.3332
12381W        W55434  15.332   4.475  21.518 -0.1026 -0.1034  0.2584
12382W        W55435   4.316   8.207   4.533 -0.0913 -0.2603  0.3696
12383W        W55436  10.390  15.622   5.887  0.2118 -0.2709 -0.2838
12384W        W55437   6.072  29.500  18.453 -0.0444  0.1630  0.0932
12385W        W55438  34.446  24.068  16.761  0.1068  0.1771 -0.1000
12386W        W55439  23.296   3.041  21.349  0.0993 -0.1555  0.2181
12387W        W55440   2.993  19.471  14.014 -0.1245  0.4699  0.1545
12388W        W55441  20.858  15.661   2.943  0.0576  0.1875 -0.2901
12389W        W55442  16.811  18.169  26.059  0.0956  0.0611 -0.1217
12390W        W55443  28.109   5.602  22.522 -0.2730 -0.0916 -0.1392
12391W        W55444   5.722  25.574  15.888  0.1945 -0.0699  0.0289
12392W        W55445   5.524   4.014  15.017 -0.2660 -0.2182  0.3140
12393W        W55446   1.880  19.379  17.894 -0.0128 -0.1070  0.3650
12394W        W55447  31.991  24.085  17.380  0.0173 -0.1210 -0.2035
12395W        W55448  32.864  11.426  17.932  0.2404  0.0154 -0.0203
12396W        W55449  33.291  33.390  21.449  0.0518  0.0453 -0.2049
12397W        W55450  10.338   7.156  15.146 -0.2033  0.2084 -0.1375
12398W        W55451   5.949   2.101  16.238  0.2304 -0.1257  0.1079
12399W        W55452  33.089  25.544  23.034  0.2154  0.0586  0.1328
12400W        W55453  33.838   0.750  16.333  0.1902 -0.0128 -0.0248
12401W        W55454   2.641   6.992  24.159  0.0264  0.1616 -0.0400
12402W        W55455  10.554  20.439  19.224  0.0101 -0.0330  0.3872
12403W        W55456  29.872  22.297  20.777 -0.0101  0.0845 -0.1040
12404W        W55457  28.999  20.616  14.739 -0.1450 -0.0365  0.1191
12405W        W55458   1.194  22.889  16.010 -0.1880 -0.0833 -0.1041
12406W        W55459   6.862  25.913   3.656  0.0832 -0.0441  0.1454
12407W        W55460  11.859  14.930   8.929 -0.0773  0.0600 -0.3565
12408W        W55461   6.514  17.079  20.718 -0.0231 -0.3957  0.0899
12409W        W55462  13.590  29.084  16.836 -0.0166  0.2125  0.1518
12410W        W55463  26.054  24.137  17.263 -0.1665 -0.2063  0.2324
12411W        W55464  32.631  20.754  21.446  0.3646 -0.1340  0.0232
12412W        W55465   1.769  24.958  13.191 -0.1083 -0.0208  0.0591
12413W        W55466  26.735  22.045  24.236 -0.0719  0.1386 -0.1499
12414W        W55467  22.908  13.485  15.412 -0.0338  0.0798 -0.1533
12415W        W55468  28.744  28.814   1.169 -0.0207 -0.1228 -0.2307
12416W        W55469   2.824  29.346  19.263 -0.1591  0.0336  0.3719
12417W        W55470  14.684  18.262   2.968  0.0716 -0.1964 -0.1556
12418W        W55471  25.873  19.202  26.677  0.1717 -0.0357  0.1985
12419W        W55472   7.189  19.484  25.342 -0.3296  0.0404 -0.0829
12420W        W55473  20.118   9.045  23.042 -0.1694 -0.0054 -0.1237
12421W        W55474   4.022  26.144   2.292 -0.5756  0.1170  0.0131
12422W        W55475   4.604  20.349  23.108 -0.3065 -0.0280  0.0403
12423W        W55476   1.221  15.316  20.082  0.2245  0.0809 -0.1184
12424W        W55477   2.244  25.348  22.116 -0.0340 -0.0426 -0.0479
12425W        W55478   2.511  29.329  17.351 -0.0856 -0.2109 -0.1846
12426W        W55479  30.714  25.958  21.599  0.0804 -0.0350 -0.2594
12427W        W55480  22.365  18.266  21.058 -0.4989  0.3233  0.0015
12428W        W55481   5.422  14.517  21.385  0.5739 -0.2609 -0.1042
12429W        W55482  12.020  27.233  20.740 -0.1676 -0.0347  0.2008
12430W        W55483  33.519  11.879   4.568 -0.4046 -0.1721 -0.0264
12431W        W55484  30.517  22.112  19.322 -0.2705  0.5369 -0.0699
12432W        W55485  34.538  11.272  17.733  0.1173 -0.2099  0.0185
12433W        W55486   8.734  27.445  16.091 -0.1807 -0.3297  0.2887
12434W        W55487   8.339  31.573   8.272  0.0564 -0.0956  0.0834
12435W        W55488  11.081   9.220  24.814  0.1090 -0.0636  0.0785
12436W        W55489  31.375  28.756  15.938 -0.3420  0.1839 -0.0374
12437W        W55490  17.605  17.024  13.458 -0.0536 -0.0818  0.3753
12438W        W55491  17.094  19.694  15.280 -0.1146 -0.3743 -0.1079
12439W        W55492  10.143  27.008  14.113  0.0299 -0.0095  0.1539
12440W        W55493  34.115  16.507  20.479 -0.1816 -0.1604  0.3764
12441W        W55494  16.558  20.733  13.380 -0.1419 -0.0548  0.2428
12442W        W55495   2.757  18.261  13.918  0.1881  0.2439 -0.3134
12443W        W55496  27.987  24.564  15.861 -0.1300 -0.1517 -0.1256
12444W        W55497   3.209  16.375  13.907  0.2457 -0.0516  0.1515
12445W        W55498  33.275  18.499  13.605 -0.0088 -0.0232  0.3919
12446W        W55499  29.911  29.525  19.787  0.0032  0.0421 -0.2099
12447W        W55500   6.212  15.188  23.778  0.0505  0.1529 -0.1122
12448W        W55501  33.783   2.091  15.639 -0.3050  0.1075  0.0513
12449W        W55502  10.154  26.156  13.955  0.1827 -0.1405  0.2211
12450W        W55503  25.465  26.129  23.695 -0.0550 -0.4739 -0.5184
12451W        W55504   4.390   6.359  19.933 -0.0225 -0.2622 -0.0870
12452W        W55505   5.603  12.462  18.369  0.0145 -0.1505 -0.0646
12453W        W55506  10.779  11.623  25.417  0.2964  0.1163 -0.1576
12454W        W55507   0.857  15.975  13.719 -0.3173 -0.1816  0.1451
12455W        W55508  30.914   9.358   5.459 -0.4471  0.1447 -0.1273
12456W        W55509   0.761   9.000  24.101  0.1736 -0.0466 -0.1165
12457W        W55510   3.292  15.968  23.626 -0.0023  0.1888 -0.1091
12458W        W55511   7.872  16.842  27.010  0.0702  0.0285  0.1050
12459W        W55512   3.153  19.202   6.054  0.0789  0.0493  0.0843
12460W        W55513   1.248  21.018  24.147 -0.2691 -0.0782 -0.0692
12461W        W55514  34.496  19.569  27.203  0.2252 -0.0460 -0.2962
12462W        W55515   7.005  20.276  18.243 -0.0286  0.1849  0.2204
12463W        W55516   1.389  26.317  16.113 -0.0642 -0.3541  0.1379
12464W        W55517   1.156  22.204  14.139  0.0478  0.1102 -0.0206
12465W        W55518  21.652  25.147  24.113 -0.4541  0.1146  0.1056
12466W        W55519   7.456  19.957  18.491  0.0278 -0.3866  0.1071
12467W        W55520   2.779  17.460  16.218 -0.3372 -0.1095  0.0120
12468W        W55521   1.926  22.958  19.583 -0.0154 -0.2381  0.1814
12469W        W55522   2.622  18.397  17.698 -0.1600  0.1369  0.2814
12470W        W55523  23.846  10.976  22.523  0.1404  0.0116 -0.0866
12471W        W55524  28.906  23.554  15.191 -0.1005 -0.1060  0.0318
12472W        W55525   2.712  10.321  14.588  0.0195  0.1214  0.0593
12473W        W55526  32.391  18.999  15.239  0.1104 -0.3207 -0.0726
12474W        W55527   0.982  19.841  17.934  0.1867 -0.0452 -0.0491
12475W        W55528  25.022  19.339  21.219  0.2989  0.1968  0.2520
12476W        W55529   6.026  24.334  23.266  0.2905  0.1618 -0.0841
12477W        W55530  25.671  21.878   2.472 -0.0564  0.1736 -0.0037
12478W        W55531  13.468  22.822  14.413  0.0595 -0.1996 -0.0966
12479W        W55532   9.263   0.339  20.937 -0.2200 -0.0702 -0.0818
12480W        W55533  24.615  26.999  25.630  0.1844  0.1611 -0.0846
12481W        W55534   9.630  11.588  21.923 -0.2927  0.4710  0.2830
12482W        W55535   0.639   3.511   7.031 -0.2977 -0.1136 -0.0178
12483W        W55536  25.682  29.459  15.411 -0.2376  0.1896 -0.4719
12484W        W55537  26.528  28.105  20.189  0.2521  0.0369 -0.0566
12485W        W55538   8.739  27.222  19.608 -0.0072 -0.3432 -0.2139
12486W        W55539  33.992  10.942  22.700 -0.0381 -0.0683 -0.0121
12487W        W55540   5.865  13.763  16.496 -0.0551  0.1045  0.1462
12488W        W55541  31.822  30.380  15.217  0.0184  0.1803  0.1059
12489W        W55542  17.155  20.723  27.484 -0.1786 -0.2162 -0.2036
12490W        W55543  12.503  25.335  19.579  0.0580 -0.1305  0.0706
12491W        W55544   6.847   6.602  19.401 -0.1818  0.0583 -0.3799
12492W        W55545   5.565  18.755  26.187  0.1322  0.1285  0.3446
12493W        W55546  15.956  30.582  27.832 -0.0372 -0.1089  0.4393
12494W        W55547   4.162  22.499  15.135 -0.0389 -0.1601 -0.3003
12495W        W55548   2.171   8.226  19.890  0.1456 -0.1376  0.0546
12496W        W55549   2.051   7.383  19.443 -0.2732 -0.3177 -0.1765
12497W        W55550  24.807  11.778  20.963 -0.2767 -0.2062  0.0251
12498W        W55551  31.909   8.559  19.673 -0.0059 -0.1964 -0.0943
12499W        W55552   5.129  19.194  15.175 -0.2771 -0.3289 -0.1165
12500W        W55553  22.448   7.749  16.198  0.3095  0.0643  0.1865
12501W        W55554  32.744  10.148   1.079 -0.1140  0.1489  0.3695
12502W        W55555  29.442  31.968  17.351  0.0044  0.1682 -0.0132
12503W        W55556  33.991  23.269  16.914  0.1397  0.0536  0.1450
12504W        W55557  31.059  20.321  27.859  0.0439 -0.0877 -0.2873
12505W        W55558   1.836  23.044  21.510 -0.0883 -0.2660 -0.3085
12506W        W55559  26.635   2.226  16.416  0.3623  0.0520  0.1875
12507W        W55560  30.395  13.986  21.889  0.0177  0.0266 -0.0943
12508W        W55561  18.641  12.156  25.864  0.1160  0.0299  0.3682
12509W        W55562  31.110   8.374  18.715  0.1674 -0.1917  0.0512
12510W        W55563  18.388  28.363  21.056 -0.1316 -0.0713  0.0548
12511W        W55564  17.294  25.525  15.008 -0.0334 -0.2002 -0.1390
12512W        W55565  31.755  22.494   2.331 -0.0538 -0.1195 -0.1464
12513W        W55566   1.629   5.607  22.994 -0.0203 -0.0058 -0.1000
12514W        W55567   1.244  14.859  19.111  0.0630  0.3468  0.0724
12515W        W55568   6.922  33.839  20.165  0.1706 -0.0793  0.4333
12516W        W55569  34.101  34.586  14.256  0.0186  0.2024  0.2442
12517W        W55570   3.334   6.732  14.902 -0.1762  0.1999 -0.1146
12518W        W55571  31.318  26.181  16.918  0.0419  0.2660 -0.0493
12519W        W55572   8.164  17.396  16.588 -0.1594  0.2542  0.3173
12520W        W55573  11.491  17.041  19.401 -0.2250  0.3157 -0.1094
12521W        W55574   6.693  13.872  17.187  0.1051 -0.1218 -0.1794
12522W        W55575   5.561   0.025  19.105 -0.3646 -0.2040  0.2489
12523W        W55576   1.136  34.088  19.538  0.3973  0.1401  0.0998
12524W        W55577   8.208  33.656  26.060  0.2057 -0.3060 -0.2405
12525W        W55578   4.803  12.401  27.202  0.0008  0.0117 -0.1002
12526W        W55579   9.133   4.048   2.840 -0.1259  0.1913  0.0040
12527W        W55580  30.663  10.073  18.526  0.2854 -0.2930 -0.0619
12528W        W55581   9.704  22.133  15.231  0.4059  0.0167  0.4023
12529W        W55582  27.674  17.553  14.156 -0.1246  0.0568  0.1066
12530W        W55583  13.722  20.573  21.274 -0.0997 -0.1937 -0.2775
12531W        W55584  31.131  18.230  14.715  0.0085  0.1336  0.0052
12532W        W55585  20.450  12.125  22.083  0.0797  0.2937  0.2912
12533W        W55586  32.573  12.256  23.266 -0.0028  0.1059  0.1467
12534W        W55587   3.878  19.950  14.528  0.0286  0.0098 -0.0042
12535W        W55588   7.490  28.793  13.953  0.4000 -0.1042  0.2091
12536W        W55589   4.601  25.470  27.147 -0.2645  0.1414 -0.1188
12537W        W55590   2.148  18.005  27.580  0.0811 -0.1588 -0.2262
12538W        W55591   0.279  25.793  18.212  0.1139  0.1055  0.0039
12539W        W55592  26.951  21.618  15.540 -0.0932 -0.3032 -0.1690
12540W        W55593   1.020  14.231  15.554 -0.1652 -0.3522 -0.1406
12541W        W55594  26.442  22.537  23.216  0.1460 -0.0778  0.1020
12542W        W55595   2.609  25.959  28.383 -0.2042  0.1426 -0.1779
12543W        W55596   6.658  21.176  16.707  0.0842  0.1955  0.0288
12544W        W55597  23.460  16.181  15.056 -0.0143 -0.1028 -0.3016
12545W        W55598  11.437  18.526  22.080  0.0847  0.0056  0.2107
12546W        W55599  30.140  16.972  16.697 -0.1778 -0.0534  0.0627
12547W        W55600  26.764  23.582  24.801 -0.2249  0.3132 -0.2778
12548W        W55601   5.003   5.688  26.173 -0.0204 -0.0337  0.0649
12549W        W55602  29.489  16.487  17.613 -0.0228  0.1347  0.0072
12550W        W55603  27.544  28.440  15.776 -0.4357 -0.1542 -0.2258
12551W        W55604   5.301   0.426  28.908  0.1182 -0.0292 -0.0084
12552W        W55605  28.685  25.462  18.489  0.3441 -0.1545  0.4028
12553W        W55606   7.241  14.829  17.577  0.0078 -0.0576 -0.2721
12554W        W55607  28.125  33.357  24.253  0.0079 -0.0402 -0.0190
12555W        W55608  23.810   8.452  19.183 -0.3560 -0.2097 -0.2114
12556W        W55609  11.550  12.066  23.734  0.2546 -0.2863 -0.0408
12557W        W55610  30.127  14.464  18.657 -0.4468 -0.0348  0.0934
12558W        W55611  30.160  30.503  15.382 -0.3278 -0.0924  0.0022
12559W        W55612   3.284  32.885  25.547  0.1170  0.1986 -0.0013
12560W        W55613   5.367  17.126  27.382 -0.1342 -0.1445 -0.0692
12561W        W55614  29.551  23.889  26.216  0.0515  0.0945 -0.2374
12562W        W55615  23.998  32.114   0.425 -0.2572  0.0944  0.0356
12563W        W55616   9.923  22.106  20.099 -0.0641  0.1520  0.0738
12564W        W55617   2.200  25.753  27.041  0.0729 -0.0569 -0.1520
12565W        W55618  28.394  10.718  18.458  0.0036  0.2032  0.0025
12566W        W55619   2.650  24.644  21.088  0.3758  0.1414  0.0821
12567W        W55620   0.489  25.230  28.799 -0.1145  0.2423 -0.0644
12568W        W55621   2.778  33.171  13.489 -0.0906 -0.1445 -0.1056
12569W        W55622   9.043   8.183  23.007 -0.0100  0.0432 -0.1637
12570W        W55623  15.262  24.832  15.383  0.0677  0.1480 -0.2096
12571W        W55624  25.625  18.644  24.588  0.2387  0.0437  0.2443
12572W        W55625  12.155   7.766  22.729  0.1936  0.3758  0.1399
12573W        W55626  24.960  27.684  17.298 -0.1656 -0.2334  0.0129
12574W        W55627   7.731  23.526  21.709 -0.0093 -0.0826  0.0738
12575W        W55628   4.188   4.017  20.059 -0.1662  0.2953 -0.3045
12576W        W55629  13.491  19.802  17.512  0.3724  0.3940 -0.2033
12577W        W55630  26.492  24.599  21.185 -0.3340  0.3870 -0.1780
12578W        W55631  13.942  15.305  16.177  0.1022 -0.0804  0.0234
12579W        W55632   4.861  21.287  18.448  0.4910  0.0574 -0.1955
12580W        W55633  31.459  11.218   0.679  0.1905  0.0985  0.2147
12581W        W55634   2.390   9.253  21.094  0.0949  0.0641  0.0102
12582W        W55635  31.071  22.017  14.748 -0.4107  0.2119 -0.2164
12583W        W55636  31.613  30.610  17.896 -0.2572  0.1234 -0.3346
12584W        W55637   3.879  14.908  19.280 -0.0509 -0.0506 -0.2896
12585W        W55638   7.151  21.619  19.738 -0.1876 -0.1287 -0.0373
12586W        W55639   2.235  15.524  18.806 -0.0525 -0.0282 -0.1432
12587W        W55640  33.209  23.550  22.901  0.4263  0.3130  0.0173
12588W        W55641  32.753  14.309  18.948 -0.2247 -0.0918 -0.2711
12589W        W55642  13.976   6.550  27.403 -0.2539 -0.4399 -0.1366
12590W        W55643   4.097  13.137  15.615  0.0649  0.4852  0.3219
12591W        W55644   8.611  20.802  20.019 -0.2390 -0.1349 -0.0859
12592W        W55645  31.434  16.253  25.643  0.0674  0.0043 -0.0467
12593W        W55646   5.366  18.011  28.966 -0.1464  0.0640 -0.0850
12594W        W55647   9.144  16.439  14.592  0.2093 -0.0996 -0.0253
12595W        W55648  28.198  25.312  15.618  0.0382  0.1495  0.2025
12596W        W55649  33.057  13.520  20.693 -0.1497 -0.1541  0.0392
12597W        W55650  13.595  19.139   4.469 -0.0037 -0.1943 -0.0163
12598W        W55651   7.725  17.993  18.258  0.0894  0.0045  0.3586
12599W        W55652  32.161  19.272  14.304  0.0084 -0.0939 -0.0747
12600W        W55653   4.434   5.734   1.565  0.1246 -0.1114  0.1041
12601W        W55654  20.046  17.755  26.058 -0.1861 -0.1391 -0.2393
12602W        W55655  30.223  26.083  18.211 -0.1247  0.1738  0.0324
12603W        W55656   5.247  21.995  27.235 -0.0633  0.0001  0.2897
12604W        W55657  14.661   1.040  24.519  0.1148  0.2755  0.2274
12605W        W55658   7.946   0.276  19.294 -0.0910 -0.1258 -0.0075
12606W        W55659  19.509  20.180  23.670  0.2033  0.1776 -0.1792
12607W        W55660   9.205  19.845  24.499  0.0395 -0.0553  0.0237
12608W        W55661   6.740  12.770  15.400  0.5569  0.1210 -0.0659
12609W        W55662  31.163   0.023  24.375 -0.1514  0.1258 -0.1567
12610W        W55663   0.865  25.050  21.812 -0.2556  0.1422 -0.2805
12611W        W55664   0.824  23.712  16.043 -0.1740 -0.2757  0.1317
12612W        W55665   1.850  16.274  21.706  0.0680 -0.1523  0.2663
12613W        W55666  33.000  20.864  25.601 -0.0993 -0.3366  0.0907
12614W        W55667   6.737  23.968  15.481  0.1805 -0.2228 -0.3360
12615W        W55668   0.147  33.744  17.279 -0.3889 -0.1150 -0.0430
12616W        W55669   7.403  24.137  19.227  0.0099  0.0076 -0.3823
12617W        W55670   4.390  12.111  23.870  0.2097  0.0207  0.1074
12618W        W55671  30.327  30.230  14.290  0.0060  0.0561  0.1539
12619W        W55672  12.903   3.280  27.380 -0.2080 -0.0432 -0.1779
12620W        W55673   0.825  32.513  19.171  0.3749 -0.1246  0.3611
12621W        W55674  26.299  33.917  15.553 -0.0460 -0.0311 -0.1681
12622W        W55675  25.625  12.942  21.852  0.3061  0.0895  0.1311
12623W        W55676  19.048  25.227  24.585 -0.1910  0.0369 -0.1021
12624W        W55677  13.674  13.958  16.959  0.4487  0.4051 -0.0231
12625W        W55678  12.545  29.172  15.655 -0.1830 -0.1763  0.0154
12626W        W55679   3.049  33.501  22.534  0.2998 -0.0033 -0.0057
12627W        W55680  33.071  16.604   7.446 -0.2790 -0.0454  0.2942
12628W        W55681   5.413  17.323  25.255  0.0681 -0.2067  0.4467
12629W        W55682  24.933   6.329  15.919 -0.0136 -0.1725 -0.0068
12630W        W55683  34.585  12.334  22.546 -0.0993 -0.1264  0.1150
12631W        W55684   3.320  20.849  23.170  0.1864 -0.0524  0.0216
12632W        W55685  18.310  12.470  18.628  0.1243  0.0202 -0.1238
12633W        W55686  19.001   9.631  17.497 -0.0916  0.1323  0.3897
12634W        W55687   7.120  29.580  19.160  0.0125  0.0326 -0.0105
12635W        W55688   7.959  20.058  13.125 -0.0566 -0.1205  0.2264
12636W        W55689   5.579  22.170  16.279  0.1632  0.0004 -0.2142
12637W        W55690   4.390   9.687  14.168  0.0375  0.0155  0.3236
12638W        W55691   8.224  32.926  19.789  0.1331  0.1445 -0.0699
12639W        W55692  10.296  11.429  20.634  0.1923 -0.3117  0.2141
12640W        W55693   2.312  21.397  13.873 -0.0198 -0.1746  0.1063
12641W        W55694   1.242  14.662  17.470  0.1957  0.1684 -0.2904
12642W        W55695  24.507  29.216  14.675 -0.0441 -0.2325 -0.0052
12643W        W55696   4.675  15.747  16.155 -0.0489  0.0547 -0.1762
12644W        W55697  25.850  22.876  23.675  0.2578 -0.0851  0.0237
12645W        W55698   6.660  22.065  20.987 -0.0616  0.2156  0.2210
12646W        W55699  27.848  22.727  26.461  0.0145  0.3495  0.2455
12647W        W55700  32.332   8.333   0.780  0.6528  0.2571  0.2116
12648W        W55701   0.654  25.561  20.794 -0.1291 -0.2688  0.2363
12649W        W55702  26.773  33.913  14.704  0.1651  0.2543 -0.0291
12650W        W55703  10.796  17.242  25.324  0.0011  0.0823  0.0378
12651W        W55704  11.957  29.743  19.099 -0.0186 -0.0796 -0.1474
12652W        W55705   6.032  13.255  22.440  0.1003 -0.3122  0.0140
12653W        W55706   7.003  10.955  10.220  0.2221  0.1550  0.0492
12654W        W55707   8.620  23.107  13.792  0.1929 -0.1774 -0.1061
12655W        W55708  29.905  21.151  14.941 -0.2769 -0.0129 -0.1265
12656W        W55709  33.150   9.824  24.805  0.1105  0.0734  0.2445
12657W        W55710  30.341  26.407  17.231  0.0671 -0.1141  0.1497
12658W        W55711  30.795  21.529  23.042  0.0496  0.2211  0.1459
12659W        W55712   5.279  31.869  18.440  0.1912  0.1842 -0.2203
12660W        W55713   2.506  12.219  17.682  0.0548 -0.0305  0.0585
12661W        W55714  30.891  19.560  17.401 -0.0263 -0.2289  0.1881
12662W        W55715   9.775  21.028  14.756 -0.0866  0.1430  0.0613
12663W        W55716   6.578  20.012  18.176  0.1242  0.1174  0.1431
12664W        W55717  11.610  14.228  28.676 -0.0820 -0.1361  0.1627
12665W        W55718   2.507   3.662  20.180  0.1753  0.1849  0.2676
12666W        W55719  12.660  28.810  26.391  0.2069  0.0153 -0.1208
12667W        W55720   6.005  11.645   2.457  0.2000  0.2635 -0.0591
12668W        W55721  32.150  18.501  24.774  0.2274  0.1943 -0.1442
12669W        W55722   2.400  26.990  21.220  0.0220 -0.1435 -0.0043
12670W        W55723   2.113  11.845  28.141  0.1726 -0.1177 -0.2933
12671W        W55724  30.533   4.193  15.770 -0.0486  0.0116  0.1500
12672W        W55725   7.334  18.644  23.452  0.1342  0.0855  0.1039
12673W        W55726   0.280  10.506  26.864 -0.3351 -0.0956 -0.4197
12674W        W55727  11.401  22.848  16.741  0.0413  0.0887  0.3592
12675W        W55728   2.604  32.584  19.513  0.0049 -0.3202  0.0104
12676W        W55729  20.712  23.679  20.462 -0.0093  0.1642 -0.0062
12677W        W55730  29.383  19.554   4.723 -0.2860 -0.2258 -0.0436
12678W        W55731  24.790  32.091  14.898  0.0145  0.0863  0.3426
12679W        W55732  23.275   4.121  15.001 -0.0027  0.0178 -0.2820
12680W        W55733  20.113  30.515  21.295  0.1936 -0.1738  0.2491
12681W        W55734  25.019  25.447  18.714  0.1028 -0.0831 -0.1150
12682W        W55735  13.853  16.318  16.405 -0.1461 -0.1323 -0.0008
12683W        W55736  31.448  22.632  16.461 -0.0913  0.0915  0.1936
12684W        W55737  29.106   2.791  13.450  0.1718  0.0233 -0.1041
12685W        W55738  15.734  16.703  28.014  0.2454 -0.0592 -0.1894
12686W        W55739   4.631  17.592  23.960  0.2075  0.3028  0.0064
12687W        W55740  31.884  11.741  21.244 -0.1251  0.1289  0.1712
12688W        W55741   7.106  18.646  20.323 -0.0795  0.1018  0.0692
12689W        W55742   1.404  23.771  22.408  0.0237  0.0204  0.1627
12690W        W55743   1.009  17.599  21.329  0.1006 -0.1894  0.0659
12691W        W55744  11.060  16.674  17.687 -0.2821 -0.0377 -0.3089
12692W        W55745  30.521  29.986  13.382  0.3353 -0.1524 -0.0531
12693W        W55746   7.729  22.596  16.154 -0.0505 -0.1228  0.2133
12694W        W55747   5.092  24.856  13.748 -0.1844 -0.0127  0.0092
12695W        W55748   0.217  21.514  21.323  0.1270 -0.0639 -0.0220
12696W        W55749  11.823  16.500  21.503  0.0168  0.1082 -0.5008
12697W        W55750   3.604  18.784   3.872 -0.1173  0.0168 -0.1844
12698W        W55751  31.247  16.515  18.690  0.0470  0.1936 -0.2876
12699W        W55752   5.476  13.658  25.521 -0.0051 -0.1611  0.1983
12700W        W55753   4.059  20.437  27.868  0.4057  0.0928 -0.2268
12701W        W55754  10.077  17.841  25.348  0.3255  0.4032  0.2487
12702W        W55755   8.720  17.050  26.690  0.0826  0.0072 -0.1044
12703W        W55756  33.963  27.287  20.916  0.0673  0.0369  0.1050
12704W        W55757  23.852  18.072  16.039  0.1670  0.0144  0.1976
12705W        W55758  23.464  21.231  19.856 -0.0402 -0.0511 -0.0326
12706W        W55759  30.548  13.083  14.904 -0.0385  0.2277  0.0552
12707W        W55760   5.635  29.342  17.184 -0.0029  0.2205 -0.1342
12708W        W55761  22.711  13.502  23.128  0.2990 -0.1360 -0.3441
12709W        W55762   5.169  21.693  19.394  0.1358  0.1002 -0.0991
12710W        W55763  11.504  11.890  27.841  0.1628 -0.3471  0.4837
12711W        W55764  24.081  20.505  24.413  0.0784  0.0687  0.0510
12712W        W55765  22.542  24.040  25.226 -0.0486  0.0070 -0.0619
12713W        W55766  31.224   6.254  16.219  0.3004 -0.0638  0.2236
12714W        W55767  10.095   2.786  13.867  0.0314  0.0065  0.1756
12715W        W55768   0.496   7.851   1.639 -0.2313  0.0706 -0.0523
12716W        W55769   4.515  16.326   2.706  0.1017 -0.4031  0.1071
12717W        W55770  28.663  29.744  16.517  0.0986 -0.0442  0.2119
12718W        W55771  11.067   0.102  23.754 -0.2341  0.0803 -0.1992
12719W        W55772  34.464  13.155  27.180  0.0621 -0.0723 -0.1915
12720W        W55773  28.200  17.503  28.756  0.0754 -0.0118  0.2697
12721W        W55774  12.200   0.944  27.932 -0.1499  0.0704  0.1479
12722W        W55775   1.731   2.386  17.117 -0.1022  0.0263 -0.1951
12723W        W55776  26.425  27.208  25.032 -0.0532 -0.0762  0.2044
12724W        W55777   8.560  17.790  23.544  0.0028  0.0748 -0.0075
12725W        W55778   7.472  19.721  17.805 -0.1308 -0.2187  0.0870
12726W        W55779   7.494  21.416  24.861  0.1015 -0.3598 -0.2380
12727W        W55780   7.885  21.606  17.093 -0.3884 -0.3544 -0.1419
12728W        W55781  12.553   4.902  18.476  0.0844  0.0980 -0.1071
12729W        W55782  30.307  15.175  22.756 -0.1844 -0.2166  0.1132
12730W        W55783  22.880  10.001  15.806 -0.0084 -0.0105  0.2545
12731W        W55784   6.283  30.970  21.949 -0.2358  0.2069 -0.0190
12732W        W55785  27.072   0.050  20.530  0.1587  0.2139 -0.0154
12733W        W55786  10.004  10.449  20.562 -0.1215  0.2914 -0.2472
12734W        W55787   9.715   3.914  27.544  0.0417  0.1441  0.0284
12735W        W55788   4.532  22.928   1.813  0.1011 -0.1061  0.0044
12736W        W55789  22.227  25.174  15.657 -0.4759 -0.1633  0.1111
12737W        W55790  33.744  10.061   7.986  0.4354 -0.1820 -0.0025
12738W        W55791  33.994  24.699  14.103 -0.0517 -0.2557  0.2095
12739W        W55792   9.910  21.758  24.686  0.4840  0.2008  0.1414
12740W        W55793  10.259  22.941  23.959  0.0831  0.2514  0.2230
12741W        W55794   0.113  20.390   6.388  0.0871  0.1512  0.1430
12742W        W55795   0.615  23.956  22.750  0.0306  0.1443  0.3481
12743W        W55796  17.352  26.141  16.144 -0.1275 -0.0501 -0.4298
12744W        W55797  10.970  28.415  19.135  0.1564  0.0039  0.2413
12745W        W55798  27.885  20.420  24.854  0.0337 -0.2074  0.2420
12746W        W55799   0.713  31.647  16.003  0.1083  0.1607 -0.1286
12747W        W55800   8.578  22.323  14.862 -0.1715 -0.0941  0.0122
12748W        W55801  32.946  25.317  24.180 -0.0129  0.1042  0.0155
12749W        W55802  22.231  18.330   3.166 -0.0768 -0.0214 -0.0522
12750W        W55803  28.282  24.393  19.569  0.1225  0.0152  0.1139
12751W        W55804  12.726  31.171  18.368 -0.2714  0.1707  0.3214
12752W        W55805   6.366  12.174  16.879 -0.2124  0.0447  0.0718
12753W        W55806  10.032  23.672  17.016  0.1491 -0.0573 -0.1741
12754W        W55807  13.375   2.635  16.559  0.0911 -0.0297  0.0534
12755W        W55808   4.020  26.903  22.477 -0.0998 -0.2061  0.1653
12756W        W55809  19.231  13.072  25.517  0.0858  0.1249  0.1496
12757W        W55810   3.884  15.435  22.461 -0.3996 -0.0115  0.0256
12758W        W55811   3.570  27.594  19.180 -0.2008 -0.1578  0.0753
12759W        W55812   6.485   1.738  14.666  0.0724  0.0647  0.1100
12760W        W55813  12.966  24.493  27.284  0.2521 -0.0258 -0.1812
12761W        W55814  24.465  27.277  14.870  0.3589  0.3414 -0.0517
12762W        W55815  27.179  26.733  25.214  0.0288 -0.0549 -0.1269
12763W        W55816  29.631  29.033   6.768 -0.0345 -0.1938 -0.0269
12764W        W55817  18.103   7.639  18.845  0.2625  0.1381 -0.1267
12765W        W55818   6.559  15.039  19.080  0.2418 -0.2319 -0.1914
12766W        W55819  10.111  20.401  14.006  0.0171  0.1029 -0.1355
12767W        W55820  34.576  32.992   1.369 -0.1218 -0.0210  0.0525
12768W        W55821   6.893  17.511  10.348 -0.0716  0.0816 -0.4951
12769W        W55822  11.613   0.099  23.795  0.0498 -0.1660  0.0103
12770W        W55823   8.099   3.692  21.384  0.1054  0.2101  0.1035
12771W        W55824   1.232  20.507  21.158 -0.2349 -0.1348 -0.2950
12772W        W55825   7.773   3.026  24.844 -0.0490 -0.3413 -0.3975
12773W        W55826  30.703  31.220  14.011 -0.0297 -0.0368 -0.1309
12774W        W55827  28.250  22.169  17.367 -0.2355 -0.2284 -0.0154
12775W        W55828  22.363  27.358  20.523  0.0240  0.0778  0.0817
12776W        W55829   5.458  28.143   3.803  0.2259  0.1305 -0.1577
12777W        W55830   3.002  30.420  14.233  0.2141 -0.0612  0.2237
12778W        W55831   8.686  28.004   4.395  0.1503 -0.2896  0.2291
12779W        W55832   4.930  19.726  18.621 -0.3892  0.0308  0.1255
12780W        W55833   0.909  10.395  27.170 -0.1491  0.2571 -0.2793
12781W        W55834  10.112  12.927  24.599 -0.3518  0.0401 -0.1473
12782W        W55835  32.824  14.047  22.444 -0.0297  0.1407  0.1363
12783W        W55836  25.117  13.162  25.263 -0.2537  0.0042  0.2524
12784W        W55837  14.622  21.123  17.135  0.0268 -0.1191  0.2299
12785W        W55838   5.885  21.682  27.522 -0.0804  0.2763  0.1203
12786W        W55839   8.057  18.983  14.598 -0.1281 -0.2102 -0.0167
12787W        W55840  30.954  26.555  19.234 -0.1261 -0.0825 -0.0176
12788W        W55841  28.307  30.204  24.443  0.2038 -0.1572 -0.0792
12789W        W55842  33.906  21.636  27.832 -0.0251 -0.1293 -0.1108
12790W        W55843   4.861  13.848  24.806 -0.0958  0.2961  0.1094
12791W        W55844  33.728  14.303  18.310  0.0712 -0.1302  0.2056
12792W        W55845   3.391  24.345  20.379 -0.2035 -0.2407 -0.0692
12793W        W55846   0.337  23.792  15.836  0.0310 -0.0594  0.1094
12794W        W55847  32.675  18.555  25.046  0.2271 -0.0780  0.1825
12795W        W55848  12.784  29.054  14.407 -0.0751 -0.2345 -0.1356
12796W        W55849  34.432  30.318   2.933  0.1214  0.1830 -0.1195
12797W        W55850  10.701   3.854  18.964 -0.1980 -0.1486 -0.2532
12798W        W55851   2.060  10.484  18.220  0.0508  0.0817 -0.4107
12799W        W55852   4.062  16.615  19.478 -0.2229 -0.0433  0.0515
12800W        W55853  32.319   0.558  20.140 -0.2023 -0.0982 -0.1010
12801W        W55854   7.480  15.331  26.019  0.1499  0.3558  0.2041
12802W        W55855   8.780  21.208  16.583  0.0468  0.1041 -0.1132
12803W        W55856  21.829  33.724  18.788  0.3948 -0.2945 -0.1336
12804W        W55857  31.706  11.121  17.100  0.2618 -0.0260  0.1803
12805W        W55858   4.648   1.567  24.451 -0.0860  0.1664  0.1522
12806W        W55859  23.531  23.133  26.011  0.1269 -0.4001 -0.1462
12807W        W55860  10.074  14.598  23.483 -0.2655  0.3511  0.1899
12808W        W55861  32.702   0.353  16.639 -0.0550  0.0451  0.0372
12809W        W55862   6.646  27.359  24.325  0.3767  0.0302  0.1875
12810W        W55863  33.451  33.550  20.972  0.1286 -0.0585 -0.2284
12811W        W55864  27.269  33.148  17.183  0.0174  0.1282  0.1505
12812W        W55865  18.354  17.491  12.631 -0.1248 -0.0273 -0.3662
12813W        W55866   9.856  10.083  26.253 -0.2471 -0.1917 -0.1540
12814W        W55867   1.414  23.004  19.740  0.0237 -0.1201 -0.1576
12815W        W55868  26.260  12.745  14.723 -0.0893  0.2064 -0.0717
12816W        W55869  34.602  20.932  16.228 -0.2335  0.2060  0.3048
12817W        W55870  18.795  30.586  24.032  0.0084  0.0127  0.0719
12818W        W55871   4.628  25.553  16.518 -0.0688 -0.0446 -0.0530
12819W        W55872  33.247  22.015  17.375 -0.0549 -0.1422 -0.1343
12820W        W55873   1.143  23.955  18.494  0.0069  0.1245 -0.4319
12821W        W55874  27.265   9.291  20.951  0.3352 -0.3340 -0.0384
12822W        W55875  29.562  15.317  23.844 -0.0409 -0.0204 -0.1390
12823W        W55876  23.069  30.909  16.411  0.2755 -0.2841  0.1875
12824W        W55877   1.415  13.864  22.620 -0.3860 -0.2008 -0.0817
12825W        W55878   5.777  12.819  23.175  0.2911  0.1149  0.1704
12826W        W55879  27.337  10.224  28.788 -0.1367 -0.0327 -0.3349
12827W        W55880   7.184  23.872  22.470 -0.0377  0.0693 -0.0376
12828W        W55881   3.880  25.297  24.862  0.0649  0.0282  0.1915
12829W        W55882   7.904  19.437  28.341  0.1955  0.0028  0.0005
12830W        W55883   1.047  19.523  25.919  0.0415  0.1896  0.0999
12831W        W55884   4.567  29.594  15.518 -0.2934  0.2710 -0.0632
12832W        W55885   3.062  27.951  27.819  0.1210  0.0216 -0.1425
12833W        W55886   0.468   9.651  18.894 -0.0733  0.1182 -0.0096
12834W        W55887   7.153  24.792  18.022 -0.2419  0.3503 -0.0297
12835W        W55888  13.062  33.206  21.658  0.1486 -0.0116  0.0402
12836W        W55889   3.242  24.836   8.386 -0.1030  0.1914  0.0282
12837W        W55890  14.770  32.432  23.825  0.1562 -0.2100  0.1045
12838W        W55891   3.689   4.694  21.853  0.0242  0.1780 -0.1787
12839W        W55892  24.784   5.894   5.923 -0.3075 -0.0704 -0.0278
12840W        W55893  28.763  24.058  17.078 -0.2350 -0.4945  0.0768
12841W        W55894  30.949  25.715  20.085 -0.4044  0.0122  0.0448
12842W        W55895  14.323  22.081   5.002 -0.1084 -0.0099 -0.2226
12843W        W55896  12.146   8.774   0.887  0.0210  0.1416  0.2842
12844W        W55897   3.166   1.192   1.236  0.1497 -0.0223 -0.2614
12845W        W55898  33.607  21.149  15.834 -0.0062 -0.0869 -0.0933
12846W        W55899  31.243  16.809  20.503  0.1130 -0.0673  0.4855
12847W        W55900  13.686  10.780  16.128 -0.1337  0.0752 -0.0643
12848W        W55901  32.581  21.609  18.023  0.0457 -0.2275 -0.2186
12849W        W55902  26.021  30.164  23.955 -0.0278  0.3661 -0.1490
12850W        W55903   4.310  11.295  16.548  0.0322  0.0066 -0.2028
12851W        W55904  26.866  11.415   5.410  0.0799 -0.1088 -0.2502
12852W        W55905   5.159  21.474   0.815 -0.0454 -0.1198  0.2387
12853W        W55906  34.317  18.134  13.164  0.3166  0.1981 -0.0939
12854W        W55907   2.750   6.497  22.730  0.2056 -0.2671  0.1720
12855W        W55908  20.841  15.632  14.680 -0.2171 -0.0545 -0.0843
12856W        W55909   0.937  10.454  21.142  0.2175 -0.1922 -0.2099
12857W        W55910  31.611  21.604  20.640 -0.0251 -0.1468  0.1729
12858W        W55911   2.979  10.840   6.251 -0.0247  0.2416 -0.2877
12859W        W55912  32.948  20.722  20.723  0.0579 -0.2496 -0.0775
12860W        W55913  31.148  11.158  20.990  0.2568  0.0972 -0.0314
12861W        W55914   8.105  18.125  18.595  0.2010 -0.2514  0.0823
12862W        W55915   2.748  32.326  18.143 -0.3367  0.1314 -0.0805
12863W        W55916  33.460   7.180   4.362  0.1659 -0.1097  0.0869
12864W        W55917   6.769  34.025  17.265 -0.2336 -0.1124  0.2048
12865W        W55918  33.739  21.951  17.400 -0.1119 -0.0956  0.0296
12866W        W55919  32.566  19.940  15.088 -0.2417  0.1361 -0.0273
12867W        W55920  18.515   1.609  23.878  0.1750  0.1822  0.0719
12868W        W55921  33.017   5.137  18.995 -0.1299 -0.0180  0.0072
12869W        W55922  30.356  21.174   2.341  0.1050  0.0022  0.0068
12870W        W55923   8.028   5.081  17.011  0.0701  0.0110  0.2387
12871W        W55924  34.512  31.400  23.709 -0.2515 -0.0704  0.2633
12872W        W55925  14.097  29.561  15.966 -0.0170 -0.0272  0.1460
12873W        W55926   2.667  16.267  15.353 -0.1127 -0.0543  0.1807
12874W        W55927  13.906   5.630  17.249 -0.0655  0.4802 -0.0930
12875W        W55928  10.645  10.280  23.971  0.1962 -0.1043  0.1895
12876W        W55929  28.186  14.178  14.926  0.0899  0.2251  0.2005
12877W        W55930  32.882  18.433   4.083  0.1039  0.1592  0.0900
12878W        W55931  29.375  10.970  19.845 -0.3126  0.1220  0.0505
12879W        W55932   2.405  17.732  14.096 -0.0851 -0.0128 -0.2672
12880W        W55933  14.969  14.122   7.684  0.1352 -0.1199 -0.1031
12881W        W55934  22.290  34.228  14.006  0.0888  0.1111 -0.0163
12882W        W55935   4.613  22.690  25.076  0.0232  0.0787 -0.0777
12883W        W55936   0.083   7.958  20.956  0.0174  0.3795  0.1511
12884W        W55937  18.234  26.536  20.989  0.4065  0.3376  0.2289
12885W        W55938  32.703  26.038  19.523 -0.2381  0.3365  0.3306
12886W        W55939  18.540   7.491  26.147  0.2575  0.1426  0.0775
12887W        W55940   9.875  21.102  19.257  0.2061 -0.1961  0.1036
12888W        W55941   3.310  22.759   9.825  0.4492  0.0611  0.2404
12889W        W55942   8.790  11.702  27.663  0.3815 -0.0334  0.0087
12890W        W55943  28.232  15.536  15.132 -0.1322 -0.4403 -0.2232
12891W        W55944   2.431  16.412   8.059 -0.0365  0.3161  0.0807
12892W        W55945  28.796  25.546  18.972 -0.2046 -0.1602  0.1214
12893W        W55946  11.516  12.757  21.469  0.4359 -0.2006  0.1452
12894W        W55947  21.909  26.912  14.222 -0.1428  0.2217  0.1894
12895W        W55948  10.381  30.067  25.096  0.2629  0.0817  0.3151
12896W        W55949   7.958  15.693  15.829 -0.1978  0.1271  0.2301
12897W        W55950   9.127   8.079  20.475  0.3592  0.2019 -0.3781
12898W        W55951  15.649   3.928   5.257  0.0267 -0.0129 -0.1094
12899W        W55952  33.391  18.493   2.492 -0.1817  0.0911  0.1830
12900W        W55953   5.778  22.313  20.920 -0.2515  0.2175  0.2070
12901W        W55954   2.157  20.994   5.136  0.0963  0.2504  0.3164
12902W        W55955  33.233  28.635  13.473 -0.3737 -0.1532 -0.1034
12903W        W55956  32.987  23.194  28.760 -0.0590  0.0663  0.2316
12904W        W55957   2.590   7.372   6.775 -0.1367  0.0012 -0.0786
12905W        W55958   7.445  29.191  17.495 -0.2621  0.5168  0.1786
12906W        W55959   6.916  20.912  17.146  0.0021 -0.0638  0.0302
12907W        W55960   7.190  11.168  25.883  0.3953 -0.1897  0.1204
12908W        W55961  24.415  34.342  20.652 -0.1166  0.0647 -0.0435
12909W        W55962  25.671  22.183  21.002  0.2494  0.0432 -0.0952
12910W        W55963  33.322  21.121   1.341  0.3019  0.0431 -0.2966
12911W        W55964  17.497  23.505  22.952  0.0589 -0.1288  0.1164
12912W        W55965  33.704  32.794  24.378  0.0099 -0.0422 -0.0640
12913W        W55966   0.154  16.151  24.979  0.5128  0.3141 -0.3230
12914W        W55967  18.091  13.935  13.769 -0.0339  0.1296 -0.0111
12915W        W55968  33.248  30.174   3.400 -0.0117 -0.3129  0.2777
12916W        W55969  21.804  30.589  21.291  0.1657  0.0836  0.0059
12917W        W55970   0.154  15.412  17.031  0.1549 -0.2960 -0.0114
12918W        W55971  33.183  21.155  13.904  0.0732  0.1691  0.2262
12919W        W55972  14.857   7.022  19.896  0.0025  0.0226  0.0478
12920W        W55973   1.649  17.275  27.945  0.3188 -0.0605 -0.0217
12921W        W55974  34.403  26.291  16.818  0.2286 -0.3051  0.0865
12922W        W55975   1.733  28.314  24.486 -0.0418  0.1362  0.0908
12923W        W55976   4.352  19.583  23.487 -0.2698 -0.1961 -0.1652
12924W        W55977   2.069  24.512  21.086  0.0925 -0.1800  0.2117
12925W        W55978   9.113  28.726  14.949  0.1044 -0.1114 -0.0144
12926W        W55979   4.322  20.837  14.034 -0.0409  0.1574 -0.0348
12927W        W55980  14.119  28.573  18.665 -0.1883  0.2886 -0.0466
12928W        W55981   5.000  19.086  25.478 -0.0760  0.1355  0.0644
12929W        W55982   4.595  22.330  16.333  0.2470  0.2541  0.0381
12930W        W55983   0.083   8.904   0.834 -0.1635  0.2913  0.1365
12931W        W55984   4.773  22.643  17.861 -0.4883  0.0832 -0.0701
12932W        W55985   7.841  25.570  18.089 -0.1093 -0.0505 -0.0704
12933W        W55986  27.920  14.696  15.034  0.1079  0.2761 -0.1957
12934W        W55987  31.421  22.277  19.817 -0.0869 -0.2331 -0.5794
12935W        W55988  26.285   0.447  20.016  0.0589  0.0280  0.3757
12936W        W55989   7.681  21.533  17.982 -0.0296 -0.2870  0.1140
12937W        W55990  32.149  24.913  26.131 -0.1922  0.1664  0.0665
12938W        W55991   2.648  20.625  15.522 -0.0447 -0.2718  0.1826
12939W        W55992   0.695  25.701  23.565 -0.2561  0.2313  0.1599
12940W        W55993   2.640  19.139  21.379  0.0466  0.1989 -0.1947
12941W        W55994   7.223  26.255  14.639  0.0605  0.1002  0.1812
12942W        W55995   0.135  29.651  18.980  0.0221  0.2772 -0.0250
12943W        W55996  20.921  32.644  14.727 -0.1817 -0.1438  0.1398
12944W        W55997   0.714  21.383  19.325 -0.0045 -0.3078 -0.1206
12945W        W55998  28.708  30.235   4.432  0.0847  0.1816  0.1666
12946W        W55999  25.654  15.378  19.398 -0.3345  0.0321 -0.2232
12947W        W56000   8.921  12.156  18.470 -0.0432  0.2829  0.1012
12948W        W56001   3.162  31.433  14.949  0.1891 -0.0091  0.0568
12949W        W56002  31.640   5.130  28.986  0.3101 -0.1295 -0.0865
12950W        W56003   0.927  22.061  26.176  0.2708 -0.1195  0.1020
12951W        W56004  30.839  32.522  22.790  0.1934 -0.1656 -0.2661
12952W        W56005   4.810   0.746  24.765  0.1391 -0.0380 -0.2468
12953W        W56006   8.536  22.132  22.011  0.0001 -0.2407 -0.1027
12954W        W56007  29.396  14.775  14.872 -0.0625 -0.0017  0.0921
12955W        W56008   6.321  21.062  17.171 -0.1435 -0.1059  0.1676
12956W        W56009  31.658  25.974  28.581 -0.0792  0.2200  0.0267
12957W        W56010   3.333  20.604  16.336 -0.2533  0.0139  0.1720
12958W        W56011  33.766  27.431  16.564  0.3227  0.1324 -0.0638
12959W        W56012  14.364  10.183  15.317  0.2115  0.1222 -0.4688
12960W        W56013  11.774  30.294  16.742 -0.1055 -0.2978  0.0395
12961W        W56014   7.473  10.881  21.691 -0.4941 -0.2874  0.2609
12962W        W56015   5.956  20.549  15.075  0.0822  0.1299 -0.2903
12963W        W56016  31.384  22.569  19.342 -0.0076  0.1922 -0.1425
12964W        W56017   1.379  28.544  20.606  0.3645 -0.0258  0.2325
12965W        W56018   3.657  19.674  23.007 -0.1179  0.1759 -0.1562
12966W        W56019  31.887  15.264  22.696  0.3645  0.1524 -0.0103
12967W        W56020   1.608  30.800   4.277  0.0312 -0.0082  0.3088
12968W        W56021  18.658  13.247  13.774 -0.0730 -0.2971  0.1207
12969W        W56022  10.134   0.538  26.728  0.0569 -0.1777  0.0661
12970W        W56023  31.214  30.895   7.929 -0.1624 -0.6890 -0.1245
12971W        W56024  34.617  12.297  28.433  0.2173 -0.0054 -0.1541
12972W        W56025   5.806  33.755  22.045  0.0302 -0.0502 -0.6692
12973W        W56026  10.961  22.983  26.650  0.1969  0.0547  0.0368
12974W        W56027  10.655  19.318  13.906  0.0721  0.1304 -0.1675
12975W        W56028  30.797  26.389  18.803 -0.1730  0.3340 -0.3593
12976W        W56029  34.307  25.386  14.740  0.0213  0.2384  0.1478
12977W        W56030  19.168   2.918  21.550  0.0495  0.1291 -0.2315
12978W        W56031  32.174  28.476  14.739  0.0032  0.0205 -0.0249
12979W        W56032   7.852  20.608  24.600 -0.2617 -0.0389 -0.0033
12980W        W56033  16.375   9.412   7.651  0.2638  0.0368 -0.0159
12981W        W56034  24.205  30.388  18.285 -0.2214 -0.0960  0.1215
12982W        W56035   7.822   1.702  16.922  0.1489 -0.1378 -0.0973
12983W        W56036  11.605  27.852  25.199  0.2116  0.0004  0.1381
12984W        W56037  22.928  18.458  23.214  0.1841 -0.0260 -0.1949
12985W        W56038  34.491   1.651  15.605 -0.0405 -0.3045  0.1486
12986W        W56039   7.166  22.025  14.594 -0.1399 -0.0083  0.0722
12987W        W56040  31.498  23.840  13.554 -0.1568  0.0628 -0.0461
12988W        W56041   3.534  23.602  19.235  0.0725 -0.0610 -0.5453
12989W        W56042   3.864   1.720  22.033 -0.0504  0.0169 -0.0201
12990W        W56043  34.448  23.646   0.710 -0.1366  0.0235  0.1930
12991W        W56044  13.858   5.476  16.591 -0.2870  0.0165 -0.2592
12992W        W56045   4.623  12.257  14.752 -0.0814  0.0749  0.1516
12993W        W56046   6.735  22.274  20.556 -0.1383 -0.2932  0.3312
12994W        W56047   0.475  22.357  16.555  0.5093  0.1728 -0.1520
12995W        W56048  29.015  14.937  25.519 -0.3077 -0.1250 -0.0689
12996W        W56049  25.685  15.690  16.735  0.1379 -0.1880  0.2786
12997W        W56050  32.000   6.967   6.167 -0.3683  0.1069 -0.1781
12998W        W56051   6.537  19.710  16.188  0.0004  0.0181 -0.0393
12999W        W56052  30.978  13.553  20.653 -0.2722 -0.0481 -0.0022
13000W        W56053  28.057  17.539  27.956  0.4431 -0.1019 -0.0272
13001W        W56054  30.073  27.011   2.478 -0.0804  0.1334  0.0558
13002W        W56055  14.694   6.825  17.563 -0.0922  0.0679 -0.1573
13003W        W56056   9.127  11.637  18.442  0.0516  0.1459  0.1165
13004W        W56057   4.924  23.431  14.577  0.0494 -0.0146  0.0774
13005W        W56058  15.609  23.063  19.320  0.3521 -0.1108 -0.2027
13006W        W56059   0.714  23.380  20.658  0.1939 -0.2113  0.4398
13007W        W56060   6.522   6.076  15.265 -0.5575  0.1656  0.1923
13008W        W56061  26.971  14.718   0.809  0.2089 -0.1896  0.0182
13009W        W56062  29.289   6.926  22.255  0.1188 -0.2855  0.2014
13010W        W56063  32.806  10.305  22.709  0.2229  0.0751  0.0811
13011W        W56064  29.874  18.115  19.607  0.0372 -0.3654 -0.0211
13012W        W56065   5.723  24.908  21.832  0.0394 -0.0101  0.3281
13013W        W56066  24.550  20.377  23.151 -0.0363 -0.0076 -0.0978
13014W        W56067  14.695  33.901  14.299 -0.0939  0.3231  0.0149
13015W        W56068  25.937  16.425  26.407  0.0518  0.1623 -0.5952
13016W        W56069   5.164  13.857   1.352  0.4336  0.0832  0.1244
13017W        W56070   4.377  20.464  18.479 -0.1705  0.2194  0.1973
13018W        W56071  27.970  15.848  23.957  0.0052  0.2974  0.1924
13019W        W56072   1.447  15.888  16.108  0.0247  0.2548 -0.0261
13020W        W56073  21.832   0.836  28.829 -0.0876  0.3263 -0.1191
13021W        W56074   7.819  22.797  25.062  0.0165  0.3107  0.0272
13022W        W56075  27.414  31.114  15.321 -0.2285 -0.2461 -0.1396
13023W        W56076  23.883  24.046  22.865  0.1725  0.1417  0.1271
13024W        W56077  29.343  11.879  23.546  0.1969  0.0122 -0.1531
13025W        W56078  20.876  10.797  28.658  0.0037  0.3885 -0.1099
13026W        W56079  12.737  26.988  27.337 -0.2028 -0.0410  0.2426
13027W        W56080  29.148   5.705  21.471 -0.1921  0.0375  0.3954
13028W        W56081  31.403  15.713  15.399  0.1592 -0.1147 -0.0170
13029W        W56082   0.901  24.455  17.382 -0.2282  0.0933  0.0209
13030W        W56083   9.814  20.849  23.720  0.0472  0.0294 -0.2444
13031W        W56084   2.010  33.803  14.834 -0.1599  0.1024  0.0959
13032W        W56085  21.406  20.452  16.632  0.0104 -0.0246  0.3261
13033W        W56086  34.530  25.048  17.816 -0.0266 -0.4796  0.1314
13034W        W56087   4.958  30.477  27.908 -0.3661 -0.4396  0.2002
13035W        W56088  26.652  32.587  22.542 -0.1550  0.2617  0.0277
13036W        W56089   7.673  15.319  15.673 -0.1175 -0.0139  0.1046
13037W        W56090  31.233  15.443  16.529  0.0178  0.0967  0.1438
13038W        W56091  18.139  19.774   2.955 -0.1659 -0.0764 -0.2206
13039W        W56092  10.310  27.478  21.356  0.0684 -0.0419  0.3652
13040W        W56093  25.079   3.072  17.358 -0.1496 -0.4103 -0.0919
13041W        W56094  13.553   0.202  26.244  0.1922 -0.0164 -0.0923
13042W        W56095  30.329  25.756  27.188  0.0479 -0.1972 -0.0336
13043W        W56096  25.742  17.661  26.777  0.2015 -0.0067  0.1802
13044W        W56097   5.806  21.776   9.015 -0.1115 -0.2963  0.2411
13045W        W56098   1.945  28.857  25.638 -0.0438  0.0637 -0.1301
13046W        W56099   7.062  10.072  16.727 -0.1647 -0.2603  0.3222
13047W        W56100   0.311   6.126  14.274 -0.2147  0.2195  0.0999
13048W        W56101  22.316  25.462  25.870 -0.1865  0.2212 -0.1637
13049W        W56102   9.959  22.203  19.543 -0.0283 -0.0112 -0.0305
13050W        W56103   9.408  27.949  17.871  0.1826  0.0923  0.0150
13051W        W56104   9.072  11.317  17.894 -0.1317 -0.0531  0.2632
13052W        W56105   6.794  20.026  21.459 -0.1829  0.2326  0.2536
13053W        W56106  25.224  21.769  17.595  0.0866 -0.1693  0.3599
13054W        W56107   3.407  21.432  18.833  0.0109  0.0879  0.1388
13055W        W56108  33.098  13.062  14.849 -0.1856  0.0393 -0.3073
13056W        W56109  17.385  22.144  15.606 -0.0486 -0.3491 -0.1214
13057W        W56110   4.959  15.459  25.231 -0.0382 -0.1537 -0.2016
13058W        W56111   2.995  10.315  16.641 -0.0281 -0.1249  0.1931
13059W        W56112   5.464  18.508  21.133 -0.1213 -0.2239  0.0063
13060W        W56113  27.051  11.566  16.955  0.1061  0.3268  0.0235
13061W        W56114  23.708  18.878   3.067 -0.2462 -0.3348  0.2194
13062W        W56115   2.187  27.609  18.375 -0.0011 -0.1132  0.5233
13063W        W56116   0.337  24.578  17.505 -0.0477 -0.0912 -0.4458
13064W        W56117  30.634   7.365  27.957 -0.0636  0.1103  0.4357
13065W        W56118   0.562  27.627  12.810 -0.1443 -0.0530  0.0770
13066W        W56119   3.675  22.727  20.979  0.0059 -0.0923 -0.0303
13067W        W56120   5.442  25.635  28.682 -0.1307  0.0595 -0.1018
13068W        W56121  33.489  34.346   7.206 -0.2375 -0.1865 -0.0857
13069W        W56122   5.155  13.553  20.513  0.2635 -0.1071  0.0533
13070W        W56123  26.821   0.139   0.862 -0.0956  0.0900  0.1040
13071W        W56124  12.231  31.107  22.446  0.3123  0.2158  0.3139
13072W        W56125   0.513  17.151  17.891  0.0051 -0.1449 -0.3638
13073W        W56126  34.180  31.160  28.214 -0.0608 -0.2208 -0.0070
13074W        W56127   4.668  13.083  14.736 -0.3551  0.2003 -0.1402
13075W        W56128   1.727  31.195  21.463  0.0793  0.1539  0.2033
13076W        W56129  12.965  27.871  16.121 -0.2834  0.0363  0.1377
13077W        W56130   5.686  21.618  20.250  0.0213 -0.0100  0.1163
13078W        W56131   4.208  14.951  20.532 -0.1532 -0.2614 -0.0917
13079W        W56132   0.116   1.571  19.518  0.0181  0.3149 -0.0375
13080W        W56133  30.285  22.188  21.042 -0.1204  0.0404  0.1524
13081W        W56134  32.629  25.490  24.602  0.4453 -0.0857  0.2664
13082W        W56135  15.088   8.544  20.385 -0.2173 -0.1033 -0.0916
13083W        W56136  24.222  26.297  26.467  0.1084  0.0517 -0.2856
13084W        W56137  34.592  17.142  16.202  0.0498  0.0202 -0.0183
13085W        W56138  31.448  26.136  20.567 -0.1796  0.0332  0.0193
13086W        W56139  32.159  13.102  21.785  0.2769  0.0793  0.2331
13087W        W56140  34.525  25.839  21.627  0.1105 -0.4438  0.0689
13088W        W56141  31.650  24.198  16.216  0.0445  0.2301  0.0886
13089W        W56142   7.756  13.211  10.145  0.1748  0.0121 -0.1161
13090W        W56143  31.100  16.041  16.378 -0.2633 -0.2378 -0.1438
13091W        W56144   5.831  18.109  21.486 -0.1163  0.0422  0.0260
13092W        W56145  12.292  21.011  24.861  0.1740 -0.0753  0.2742
13093W        W56146  32.703  29.622  20.409 -0.3177  0.0500  0.0198
13094W        W56147  18.627   7.267  25.747 -0.1979 -0.2384  0.0419
13095W        W56148  31.529  22.843  21.960 -0.0725  0.1488  0.5004
13096W        W56149   6.320  31.571  28.667  0.0709  0.2858 -0.1874
13097W        W56150   8.921  13.675  20.020 -0.3386 -0.2299 -0.0244
13098W        W56151   8.025  28.497  19.196  0.0397  0.1125 -0.3708
13099W        W56152  30.576  21.044  17.005 -0.2178  0.2703  0.0641
13100W        W56153   7.573  15.962   4.221  0.0137 -0.0903  0.0328
13101W        W56154   2.386  27.614   2.077 -0.2182 -0.0014  0.1588
13102W        W56155   0.924  26.158  27.411  0.0834  0.1624 -0.0372
13103W        W56156  27.031  12.590   6.393  0.2264  0.0627 -0.2189
13104W        W56157   9.768  25.489  21.035 -0.2960 -0.1639 -0.0577
13105W        W56158  26.223  11.582  18.076 -0.0829  0.3512 -0.4783
13106W        W56159   8.653  12.049  27.312  0.0973  0.2527 -0.0264
13107W        W56160  24.669  34.479  21.751 -0.0495  0.1443  0.2528
13108W        W56161  18.086  16.407  23.796  0.0283  0.2311  0.0181
13109W        W56162  30.456  19.587  16.928 -0.3193 -0.2317  0.2196
13110W        W56163  27.658  20.972  20.351  0.0888  0.2246  0.0022
13111W        W56164  30.495   7.693  19.304  0.1795 -0.3136  0.2062
13112W        W56165  26.649  29.702  21.954  0.1133  0.1404 -0.4049
13113W        W56166  17.206  22.592  16.504  0.0444  0.0147 -0.0466
13114W        W56167   3.564  18.935   0.397  0.1483 -0.1567  0.4091
13115W        W56168   1.164  12.670  13.488 -0.2137  0.2008 -0.1535
13116W        W56169  11.135  14.890   0.583  0.2680  0.0670 -0.1042
13117W        W56170  18.090   0.286  25.395 -0.4703 -0.0506 -0.0161
13118W        W56171  33.599  13.198  21.670 -0.1784  0.0263  0.0049
13119W        W56172  32.256  29.925  20.565  0.1662  0.1048 -0.2618
13120W        W56173  33.586   5.803  14.964  0.0037  0.1974  0.1639
13121W        W56174  19.157   8.541   0.504 -0.0942 -0.1343 -0.0863
13122W        W56175  27.039  20.550  19.726 -0.0566 -0.2768  0.1921
13123W        W56176   8.844  26.878  23.869  0.1413 -0.0222 -0.1212
13124W        W56177   3.582  18.432   4.246  0.0673 -0.0458 -0.0090
13125W        W56178   8.572  29.201  14.064 -0.0605  0.3091 -0.3294
13126W        W56179  27.371  13.175  23.734  0.0879  0.1431 -0.1879
13127W        W56180  26.480  13.016   5.873  0.2244 -0.3856 -0.2413
13128W        W56181   1.968  21.092  29.185  0.2395  0.2088  0.1829
13129W        W56182  31.983  28.641  17.375 -0.1776 -0.1496  0.0457
13130W        W56183  14.792  31.495  20.957 -0.2106 -0.2403 -0.0038
13131W        W56184  16.100   3.349  27.036  0.3753 -0.1750  0.0990
13132W        W56185   2.639  18.502  14.575  0.2444  0.1957 -0.0755
13133W        W56186  30.979  23.679   3.492 -0.1556  0.1459 -0.0974
13134W        W56187   6.169  25.398  14.261 -0.0863  0.0853 -0.2287
13135W        W56188   7.581  20.295   4.400 -0.0554 -0.0582  0.0950
13136W        W56189  14.724  14.003  26.795 -0.4181  0.0288 -0.3134
13137W        W56190   6.262  12.846  22.260  0.0384  0.0584 -0.0311
13138W        W56191  34.191  15.225  19.940  0.2521  0.0410  0.0888
13139W        W56192  17.095   0.851   7.999 -0.0073  0.0495 -0.0931
13140W        W56193  29.824  14.473  25.128  0.0529  0.0812  0.0234
13141W        W56194   6.056  25.399  21.245 -0.0161 -0.0565  0.2956
13142W        W56195   2.540  19.883   1.729 -0.0341  0.2236  0.2349
13143W        W56196   4.801  26.336  23.501 -0.0183 -0.0396 -0.0790
13144W        W56197   2.968   7.849  19.353 -0.0992  0.1672  0.2685
13145W        W56198   0.525   8.349  14.831 -0.0314  0.1121  0.1384
13146W        W56199  20.959  17.467  23.001  0.2639 -0.3834 -0.1934
13147W        W56200  24.526  24.376  26.612 -0.6364  0.0249  0.0704
13148W        W56201  24.257  24.828  24.025 -0.0318  0.0844 -0.1414
13149W        W56202  26.811  15.704  23.343 -0.1321 -0.1142  0.2318
13150W        W56203   2.230  23.437   6.916  0.1454  0.1954 -0.1466
13151W        W56204  17.875  32.891   6.789 -0.0246 -0.0200  0.0920
13152W        W56205   0.675  24.596  26.382 -0.4385 -0.1024  0.1908
13153W        W56206   8.779  18.839   3.118 -0.1070 -0.0990  0.1377
13154W        W56207   0.578  19.099  23.519  0.3775 -0.1972  0.1146
13155W        W56208  28.221  17.853  27.548 -0.1344  0.0865 -0.0465
13156W        W56209   6.070  23.577   7.177 -0.0481  0.1785 -0.2519
13157W        W56210  28.227  22.368  21.788  0.3846 -0.0862 -0.0041
13158W        W56211   4.183   0.382  28.091  0.1299  0.2775 -0.1863
13159W        W56212  28.274  30.323  17.324  0.0661  0.2035 -0.0510
13160W        W56213   7.161  12.137  17.362 -0.1952 -0.2744  0.0369
13161W        W56214  18.185  17.718   9.626 -0.1240  0.1224  0.3576
13162W        W56215  26.129  11.485   5.530  0.0548  0.0245  0.0120
13163W        W56216  20.029  27.675  28.296 -0.1816  0.0026  0.1413
13164W        W56217   6.301  30.898   4.728  0.1014  0.2349  0.1512
13165W        W56218  16.952  20.891   6.467  0.1594 -0.1955  0.0456
13166W        W56219   0.819  23.187  16.081 -0.1559 -0.1404 -0.1142
13167W        W56220   1.585  20.673  23.975 -0.0355 -0.1579 -0.1188
13168W        W56221  30.101  24.346  24.983 -0.2111  0.2007  0.0271
13169W        W56222   7.477  10.852  14.604 -0.1936  0.0823  0.0192
13170W        W56223  14.414  13.029  21.561 -0.0514 -0.1061 -0.2407
13171W        W56224   9.877  26.198  16.251 -0.0639  0.2353  0.2677
13172W        W56225   0.651  26.549  17.713  0.1817 -0.3245 -0.3605
13173W        W56226  31.882  22.170   1.091 -0.1269  0.0915  0.2378
13174W        W56227  21.418  24.046  15.301  0.1970 -0.0444 -0.0085
13175W        W56228  29.885  13.305  28.790 -0.2080  0.2030  0.2063
13176W        W56229   5.947  18.268  22.834 -0.0602  0.0953 -0.1482
13177W        W56230  34.255   5.124   3.586 -0.4739 -0.0654  0.0843
13178W        W56231  13.978   9.959   5.603  0.0569  0.2185 -0.2761
13179W        W56232  29.654  25.214  28.247 -0.2502  0.2655 -0.1651
13180W        W56233   4.538  16.489   0.001  0.1605 -0.0509 -0.0970
13181W        W56234  33.781  12.619  18.734  0.1162 -0.3068 -0.0567
13182W        W56235   6.055  23.876  19.216 -0.1642 -0.0783 -0.2625
13183W        W56236  26.696  11.928   2.195  0.1081  0.2384 -0.1750
13184W        W56237   1.392   6.258  25.603  0.1386  0.2556 -0.1265
13185W        W56238   7.163  15.610  18.645  0.1297 -0.1362 -0.2025
13186W        W56239  16.168  25.756   2.514  0.4307 -0.2016 -0.1550
13187W        W56240  26.599  21.425  15.258 -0.0348  0.1508  0.1578
13188W        W56241   1.115  27.806  25.481  0.3582 -0.0100  0.0762
13189W        W56242  30.134  10.083  25.549  0.3230 -0.0079  0.3326
13190W        W56243   6.797  24.992  15.493  0.0997 -0.2565  0.1781
13191W        W56244  26.640  20.528  26.663  0.0518 -0.0874  0.0107
13192W        W56245  28.302   2.654   4.761  0.0325 -0.0256 -0.0729
13193W        W56246  27.968   0.045  17.930 -0.3496 -0.2072 -0.1144
13194W        W56247  11.547  22.931  27.523 -0.1158 -0.0053 -0.3288
13195W        W56248  12.278   8.679   5.215 -0.0387  0.1539 -0.0471
13196W        W56249   4.061  19.395  16.723  0.0254  0.0563 -0.2522
13197W        W56250   8.857  19.506   6.824 -0.3960 -0.1543 -0.0246
13198W        W56251   6.933  23.992  19.685  0.0396 -0.0984 -0.1611
13199W        W56252  33.701  24.441  23.163 -0.0468  0.1813 -0.3537
13200W        W56253   1.623  15.238  15.317 -0.0230 -0.3019  0.1660
13201W        W56254   8.142  28.283  23.241  0.0632 -0.1384  0.1146
13202W        W56255  16.286   7.651  27.081 -0.2167  0.1418  0.0212
13203W        W56256   3.787  13.562   4.312 -0.4012  0.1324  0.0931
13204W        W56257  11.964  22.978  27.220 -0.2008  0.2443 -0.1898
13205W        W56258  27.073   6.945  19.300 -0.2185 -0.2075  0.0849
13206W        W56259  25.648  10.817  26.230  0.1938 -0.2211 -0.0274
13207W        W56260  24.525  23.758   7.909 -0.1976 -0.1012  0.1957
13208W        W56261  33.331  25.165  15.267  0.2557 -0.0397 -0.0980
13209W        W56262   8.345  15.219  14.730  0.1781  0.1899  0.1716
13210W        W56263  28.662   8.655  14.901  0.1324 -0.0131 -0.0884
13211W        W56264   9.480  30.985  24.013 -0.2774  0.2258  0.1696
13212W        W56265   6.877  27.579   9.671  0.0091  0.0062  0.2129
13213W        W56266  31.753  28.461  27.476 -0.0597  0.1837  0.2752
13214W        W56267   6.099  13.532   0.810 -0.2804 -0.1567 -0.0060
13215W        W56268  28.051  23.005   1.075 -0.0454  0.0627  0.0496
13216W        W56269  29.206  13.993  26.278  0.2398 -0.0405 -0.1698
13217W        W56270  32.170   0.737  15.937  0.0462 -0.0418 -0.2017
13218W        W56271  25.048  21.291  26.564  0.0307  0.0601 -0.0772
13219W        W56272   5.862  24.107   2.694  0.0853 -0.1011 -0.0316
13220W        W56273  32.223  18.218  15.629  0.1536 -0.0337 -0.1205
13221W        W56274  32.356  20.593  26.647 -0.0483 -0.0208 -0.1442
13222W        W56275  14.315  19.349  28.678  0.0713  0.0837  0.1953
13223W        W56276  13.063  11.029  28.489  0.1167  0.1759 -0.2153
13224W        W56277   3.734   9.490   5.867 -0.3058 -0.2590  0.2375
13225W        W56278  27.117  34.288   2.089 -0.0902  0.0125 -0.1754
13226W        W56279   8.884  30.359  20.740 -0.1318 -0.0613  0.2985
13227W        W56280   3.534  32.209  20.876 -0.0214 -0.0860 -0.1717
13228W        W56281   4.258  19.410  15.282 -0.0640 -0.2460  0.4254
13229W        W56282  32.530  17.806  20.489 -0.0946 -0.0361 -0.1121
13230W        W56283   5.799  21.631  16.756 -0.0231 -0.1343  0.2432
13231W        W56284  31.853  23.566  19.711  0.0845  0.4810 -0.1746
13232W        W56285   6.113  17.549  27.192 -0.1100  0.2890 -0.0255
13233W        W56286   8.093  21.509  26.601 -0.0023  0.1346  0.1941
13234W        W56287  12.226  15.716   8.912  0.1604  0.1931  0.0631
13235W        W56288  26.842  18.409  22.937  0.0882  0.2763  0.2218
13236W        W56289   0.382  22.990  14.845  0.2017  0.1470 -0.0733
13237W        W56290   2.289  24.519  15.342  0.1196  0.1045  0.0664
13238W        W56291  19.420  25.147  27.903 -0.3652  0.1332  0.3206
13239W        W56292   2.054   9.209  28.529 -0.1176  0.0835  0.3560
13240W        W56293  32.741  22.123  23.551  0.0545  0.1250  0.0328
13241W        W56294   5.531   7.939  27.989  0.2774 -0.0887 -0.0589
13242W        W56295  16.290  19.828  26.573 -0.3106 -0.1185  0.1417
13243W        W56296   9.670  34.097  17.352  0.1401 -0.1351 -0.1137
13244W        W56297  32.461   0.054  26.013  0.0139  0.0876 -0.0262
13245W        W56298  24.481  18.217   2.097  0.2489  0.2727 -0.0534
13246W        W56299  25.325  15.505   8.120  0.1605 -0.1515  0.1800
13247W        W56300   4.463  13.994   4.141 -0.1299 -0.0508  0.0013
13248W        W56301   5.744  19.542  27.694  0.2874 -0.1875  0.3121
13249W        W56302  16.113  26.820  23.670  0.0920  0.0785  0.0599
13250W        W56303  11.996   6.507  19.768  0.1689 -0.0080 -0.1267
13251W        W56304  30.482  13.129  10.453  0.1235 -0.2282 -0.1894
13252W        W56305   1.430  19.549  14.792  0.2969 -0.3274  0.1567
13253W        W56306   0.664  28.366  18.313  0.2350  0.0816  0.3237
13254W        W56307   0.251  29.561   0.261  0.2725 -0.1122 -0.2961
13255W        W56308  28.025  29.154   9.849 -0.1763  0.2075  0.0068
13256W        W56309   2.696  20.823  18.992 -0.0755 -0.2033 -0.0933
13257W        W56310   7.332  19.992  26.127  0.0156  0.0375 -0.1904
13258W        W56311  30.457  23.574  20.785  0.0451 -0.1437 -0.1732
13259W        W56312  31.187  17.862  15.289  0.0352  0.1499  0.1590
13260W        W56313  26.594  14.493  23.101 -0.4945 -0.3457  0.1537
13261W        W56314  30.563   6.600  18.001  0.0055 -0.0678  0.3933
13262W        W56315  29.440   9.263  15.571 -0.4468 -0.0435  0.1892
13263W        W56316  13.511  23.328  14.517 -0.2431  0.0403  0.1164
13264W        W56317   0.862  22.719  15.310 -0.0388  0.1674 -0.3589
13265W        W56318   3.531  23.711  14.109 -0.0141  0.0393 -0.0074
13266W        W56319   8.019  32.341  23.095 -0.1001  0.2437 -0.0801
13267W        W56320  16.706   5.107  25.575 -0.0174  0.2030 -0.0742
13268W        W56321  14.149  25.359  17.212  0.0149 -0.0533 -0.3851
13269W        W56322  30.852  14.383   5.324  0.2192  0.1968 -0.1382
13270W        W56323  31.422  20.262  19.377 -0.1297 -0.1254  0.0727
13271W        W56324  30.569  27.373   8.375 -0.0052 -0.0492  0.0418
13272W        W56325   8.277  16.002  10.096  0.0609 -0.2301  0.1855
13273W        W56326  27.725   9.256  24.759  0.0894 -0.1419 -0.0099
13274W        W56327   7.245  13.647  19.044  0.0397  0.1936  0.2139
13275W        W56328  33.599  18.695  25.727 -0.0455 -0.0786 -0.1741
13276W        W56329  31.096   9.504  20.329  0.0544 -0.1072 -0.0990
13277W        W56330  18.016  14.983  16.222 -0.0202  0.3590 -0.2802
13278W        W56331   2.335  18.671   3.472  0.2913  0.1073 -0.0594
13279W        W56332  19.520  16.802  14.636  0.1195  0.0930 -0.0448
13280W        W56333   8.739  17.584   9.357 -0.0644  0.0941  0.0372
13281W        W56334   7.099  28.177  28.319  0.1776 -0.1301 -0.2080
13282W        W56335   6.667  25.352  22.834 -0.0495  0.0980 -0.1544
13283W        W56336   6.448   1.497  18.059  0.0811  0.1806 -0.0495
13284W        W56337   7.931   4.540  25.332 -0.2111 -0.0681 -0.1179
13285W        W56338  33.707  26.001  27.624 -0.0384  0.0136  0.2917
13286W        W56339   1.049  31.900   2.324 -0.1256 -0.2406 -0.1196
13287W        W56340   3.478  28.083  17.251  0.2174  0.1836 -0.0202
13288W        W56341  12.153  16.057  16.502  0.0701 -0.0195  0.1347
13289W        W56342   1.715  31.995  26.287  0.0905 -0.1473  0.1900
13290W        W56343   0.022  20.983  15.723 -0.3899  0.1750  0.0142
13291W        W56344   9.934  10.288  25.804 -0.3054  0.0220 -0.1287
13292W        W56345   9.074  15.228   9.972 -0.0748  0.2451  0.1052
13293W        W56346   8.543  21.292  18.731 -0.2275 -0.1034  0.3080
13294W        W56347   2.483  17.580   8.556  0.1297  0.0036  0.3049
13295W        W56348  13.490   9.034  20.811 -0.2367 -0.2974 -0.1636
13296W        W56349  27.726  14.435  19.837  0.0157 -0.1945 -0.0690
13297W        W56350   2.474  12.417  29.006  0.3252  0.0297  0.2795
13298W        W56351   3.837  22.737  20.092 -0.1182  0.0009  0.1634
13299W        W56352  26.295  30.096  23.489 -0.1542  0.0768  0.0451
13300W        W56353  30.758  21.412  18.147  0.2213  0.1695  0.1869
13301W        W56354  26.844  31.137  23.462  0.3327 -0.0520 -0.1801
13302W        W56355  20.688  22.751   5.030 -0.0861  0.1338  0.1439
13303W        W56356   1.957  25.666   4.284  0.1500 -0.0306 -0.2298
13304W        W56357  33.545  17.232  15.925 -0.3518 -0.0549 -0.2367
13305W        W56358  10.834   7.852  19.318 -0.1426  0.1871 -0.0855
13306W        W56359  30.523  32.378   4.745 -0.1504 -0.2782  0.2034
13307W        W56360   2.127  25.892  18.600 -0.4572  0.3754 -0.0110
13308W        W56361  34.648   8.610  24.242  0.1829 -0.2399  0.2841
13309W        W56362   6.474  11.897  17.561 -0.0674 -0.1997  0.3487
13310W        W56363   9.235  21.988  14.193 -0.1544  0.2980  0.0727
13311W        W56364  12.761  16.757  24.606  0.0312  0.0603  0.0332
13312W        W56365   6.274  10.985  24.020  0.0704  0.1929 -0.2038
13313W        W56366   1.504  31.432  14.063 -0.1676 -0.1589  0.1264
13314W        W56367  10.054  23.002  16.510 -0.1609 -0.0366  0.0161
13315W        W56368   2.802  25.938  26.143 -0.2564 -0.2015 -0.1386
13316W        W56369  23.644  16.650  27.499 -0.0310  0.0330  0.1976
13317W        W56370   3.272   6.707  18.196 -0.0017 -0.0860  0.1299
13318W        W56371  26.510  28.479   7.171  0.2474  0.2017  0.1086
13319W        W56372  31.071   9.288  26.712 -0.1390 -0.2262  0.0891
13320W        W56373  14.387   9.575  26.840  0.3847  0.1585 -0.0073
13321W        W56374  17.291  34.129  23.159 -0.0565 -0.0603  0.2615
13322W        W56375  29.026  30.687  14.145  0.0272  0.0771 -0.0154
13323W        W56376   4.182  32.585  16.655 -0.1884 -0.0988  0.3014
13324W        W56377  20.353  16.807  23.347 -0.1545  0.4770  0.2145
13325W        W56378  12.633  20.898  20.941  0.0576 -0.1112 -0.0439
13326W        W56379  30.204  21.008  21.490 -0.1640  0.3843 -0.1678
13327W        W56380   4.517  21.453  20.203  0.0177 -0.0823  0.0219
13328W        W56381   4.247  25.104  23.634 -0.0936  0.1721 -0.1355
13329W        W56382  24.652  14.935   3.435  0.1870 -0.0267 -0.0166
13330W        W56383   5.402  26.701  17.061 -0.2530  0.1481 -0.0747
13331W        W56384  34.525   8.942   0.231 -0.1691 -0.1385  0.2945
13332W        W56385  31.638   3.486  19.923 -0.0688 -0.2937 -0.2642
13333W        W56386   2.165  26.051   2.620 -0.1024 -0.2389  0.1784
13334W        W56387  30.782  17.312  17.702 -0.1235  0.5512 -0.3008
13335W        W56388  31.871  29.023  27.269  0.2694 -0.2827 -0.2967
13336W        W56389   1.279  13.874   2.382 -0.1435  0.0473  0.0798
13337W        W56390   2.855  25.492  20.375  0.0734  0.1645 -0.1306
13338W        W56391   4.455  15.928  15.630  0.0113  0.0091 -0.0879
13339W        W56392  15.426  33.634  22.020 -0.2198 -0.0451 -0.0883
13340W        W56393   4.377  18.325   4.547  0.0360  0.0534  0.0435
13341W        W56394  25.602  26.448  16.604 -0.1357 -0.0608  0.0380
13342W        W56395  30.319  22.090   0.979 -0.1314  0.0957 -0.0810
13343W        W56396  34.493  21.420   0.313  0.2548 -0.0162 -0.2770
13344W        W56397  11.653  34.351   8.531 -0.0580 -0.0241  0.2714
13345W        W56398  20.173  23.040  15.792 -0.3064  0.0952  0.0946
13346W        W56399  18.306  10.860  24.251 -0.0914 -0.3364  0.1975
13347W        W56400  22.653  14.234  17.412  0.1939 -0.0492 -0.2780
13348W        W56401   6.631  20.690   3.324 -0.1793  0.0059  0.2367
13349W        W56402  28.154  28.056  20.578  0.0732 -0.1458 -0.0873
13350W        W56403   0.311  20.675  25.349  0.0107 -0.2345  0.0434
13351W        W56404  19.390   0.053  19.643 -0.1237  0.0348 -0.1383
13352W        W56405  22.987  26.788  17.294  0.4157 -0.2309  0.0396
13353W        W56406  31.139  12.875  28.268  0.0439  0.1052  0.0114
13354W        W56407   1.849  25.511   5.423  0.0285 -0.0155  0.1204
13355W        W56408  24.841  19.905  22.609  0.2894  0.1059  0.1350
13356W        W56409   2.699   3.715   3.000 -0.0300 -0.0381  0.0652
13357W        W56410   0.968  13.689   4.921  0.3884 -0.0259  0.3279
13358W        W56411  28.851  19.727   5.620  0.0186  0.0411 -0.0785
13359W        W56412  33.762  17.470  16.337  0.2675  0.1049 -0.1069
13360W        W56413  31.609  16.607  22.732  0.0196  0.2573 -0.2098
13361W        W56414   0.764  23.469  17.935  0.1681 -0.2109  0.0262
13362W        W56415  29.792  17.066  24.500 -0.4004  0.0677  0.1382
13363W        W56416  14.067  31.055  23.957  0.3423  0.1122 -0.0292
13364W        W56417  30.319  15.271  14.091  0.1527 -0.1444 -0.1549
13365W        W56418  31.434  27.358  18.331  0.0473 -0.2034  0.0152
13366W        W56419   4.808  26.075  23.052 -0.2112 -0.0483 -0.1530
13367W        W56420   4.580  18.167  16.393 -0.3030  0.0702 -0.0085
13368W        W56421   2.142  10.811  17.860 -0.1824  0.0646  0.1222
13369W        W56422  25.847  28.314   5.253  0.1379  0.6446 -0.3786
13370W        W56423  11.535  16.024  28.020  0.1431  0.0962  0.3224
13371W        W56424   2.061  10.066   2.095  0.0101 -0.2874  0.2480
13372W        W56425  24.691  34.487  20.254 -0.1407 -0.0458  0.0623
13373W        W56426  24.652  27.391  24.031  0.2586  0.1316 -0.0568
13374W        W56427   7.306  27.081   5.766 -0.2673 -0.3737 -0.3558
13375W        W56428  20.752  12.622  24.610 -0.3640  0.0769  0.1083
13376W        W56429   8.828  12.123  19.259  0.0688 -0.0672 -0.2808
13377W        W56430  15.532  34.650   0.095 -0.4013  0.3101  0.3370
13378W        W56431  16.918  21.989  26.661 -0.4555 -0.5102 -0.4696
13379W        W56432  34.192   2.696  21.438 -0.2162  0.0210  0.1062
13380W        W56433   8.126  10.284  27.522  0.0019  0.1299 -0.1073
13381W        W56434   5.964  19.180  23.805  0.2675  0.0252  0.2929
13382W        W56435   7.072   6.114   4.883  0.0615 -0.3565 -0.0811
13383W        W56436   7.129  18.184  22.072  0.2191 -0.2865  0.1643
13384W        W56437  30.189   5.371  17.471  0.2136 -0.3780 -0.4091
13385W        W56438   1.121  28.561  22.391  0.1067 -0.1001 -0.4112
13386W        W56439   9.725  24.739  23.267  0.0649 -0.1867 -0.0813
13387W        W56440  10.223  15.482  26.895 -0.0718 -0.1335 -0.2909
13388W        W56441  30.645  16.910   2.778 -0.0436  0.4025  0.2755
13389W        W56442  23.629   8.087  16.571 -0.2120 -0.1228 -0.1137
13390W        W56443  29.721  24.863  14.812  0.0616 -0.0710 -0.1050
13391W        W56444   5.736  27.783  22.965  0.0371  0.2155  0.0859
13392W        W56445  20.832  22.159  20.263  0.1568 -0.2681 -0.0542
13393W        W56446   5.753   2.289  24.067  0.2524  0.2128  0.0686
13394W        W56447  14.989  31.418   6.640 -0.0423 -0.4254 -0.1794
13395W        W56448   0.054  14.561  21.498  0.1095 -0.0709  0.1846
13396W        W56449  31.324   9.774   3.842  0.2172 -0.3870 -0.0522
13397W        W56450  34.482  28.181  20.628 -0.4402  0.0176  0.1547
13398W        W56451  31.800   8.728  14.040  0.1861  0.1013 -0.0058
13399W        W56452   7.461  25.249   4.028  0.1040 -0.0113 -0.1455
13400W        W56453  33.902  22.203  20.674 -0.1332  0.4104  0.1093
13401W        W56454   6.041  21.943  27.107  0.2643  0.1212  0.0025
13402W        W56455  22.173  24.711  16.842  0.1211 -0.2164  0.2527
13403W        W56456  31.958  14.228   4.148  0.0664  0.5126  0.2115
13404W        W56457   1.264  23.411  16.027  0.2540  0.0650  0.0402
13405W        W56458  32.751   8.597  23.637 -0.0828  0.1124  0.0653
13406W        W56459  30.886  33.366  28.974 -0.2345 -0.0958 -0.1982
13407W        W56460  30.008  29.810  20.448 -0.2586 -0.0601  0.0890
13408W        W56461  16.758  13.967  16.926  0.0584  0.0465  0.1323
13409W        W56462   6.841  15.902  28.947  0.4046 -0.2322 -0.1374
13410W        W56463  11.204  20.126  27.586  0.1884 -0.0442 -0.2340
13411W        W56464  28.286  22.542  18.537  0.0419  0.2170 -0.3018
13412W        W56465  32.874  15.461  18.910 -0.3659  0.0225 -0.1334
13413W        W56466   8.228   8.859  14.039  0.0013  0.0774  0.1197
13414W        W56467  18.699  17.252  22.806  0.1203 -0.0104  0.0197
13415W        W56468   0.317  19.420  22.544 -0.1675  0.0208  0.0231
13416W        W56469   8.028  19.029   5.301 -0.1186 -0.0728  0.1011
13417W        W56470   3.832   7.475  17.514  0.2249 -0.5059 -0.0402
13418W        W56471  28.131  12.107   2.850  0.2253  0.2807  0.2062
13419W        W56472   8.721   2.713  16.883  0.3659  0.1005 -0.0511
13420W        W56473  26.947  25.189  23.809 -0.2122 -0.2288  0.2124
13421W        W56474   7.979  19.145   2.933 -0.2056  0.0244  0.0932
13422W        W56475   1.361  21.087  25.384  0.3072 -0.2430 -0.0828
13423W        W56476   2.259   0.943   9.098  0.2204 -0.4726  0.5648
13424W        W56477   3.090  20.588  20.882  0.2911  0.0249  0.1028
13425W        W56478  29.089  18.173   1.564  0.2862 -0.2474 -0.1905
13426W        W56479  13.381  12.438  14.808 -0.3634 -0.1723  0.3212
13427W        W56480  33.711  33.921   8.154 -0.1034 -0.0195  0.3601
13428W        W56481   4.105  19.194   6.524  0.0707 -0.1394  0.0166
13429W        W56482   7.984  16.628  18.255  0.2366 -0.0431  0.1479
13430W        W56483  12.863  28.178  24.244  0.1407 -0.0880  0.2591
13431W        W56484  14.071  29.994  21.590  0.3005 -0.0287  0.0376
13432W        W56485  10.372  15.684  28.320  0.0634 -0.2383  0.0353
13433W        W56486  28.445  15.817   7.338 -0.0844 -0.3512 -0.0025
13434W        W56487  26.287   9.023  14.998  0.1569 -0.2768  0.1687
13435W        W56488  23.637   4.117  21.627 -0.2007 -0.2415  0.1578
13436W        W56489  24.895   5.815  20.778  0.1664  0.0904  0.2921
13437W        W56490   9.266   7.441   3.878  0.2267 -0.1404 -0.0260
13438W        W56491  15.359  22.201  28.873 -0.0674 -0.1400 -0.2842
13439W        W56492  30.428  19.651  16.324  0.2102  0.3247  0.2914
13440W        W56493  25.802  23.553  15.383 -0.2387  0.2168 -0.0999
13441W        W56494  28.162  16.853  16.175  0.2028  0.0080  0.2792
13442W        W56495   8.395  31.155  15.059 -0.1210 -0.1467 -0.0239
13443W        W56496  11.692  15.469  16.873 -0.0244 -0.0553  0.2055
13444W        W56497  28.769  14.891  17.541  0.0251 -0.0429 -0.1832
13445W        W56498   9.002   6.174  21.968 -0.0956 -0.4829  0.2780
13446W        W56499  27.561  13.317  26.030  0.3150  0.0189 -0.0411
13447W        W56500  23.619  16.865  27.907  0.0890 -0.2125 -0.0712
13448W        W56501  13.729  25.288  15.680 -0.3026 -0.1298  0.0654
13449W        W56502  30.140  15.542   9.097  0.0050  0.2449 -0.2822
13450W        W56503   7.691   4.804  14.948 -0.0452  0.1889 -0.2272
13451W        W56504  33.206   8.040  19.225 -0.2114 -0.2540 -0.1318
13452W        W56505  25.040  27.278  14.024 -0.4701 -0.1366 -0.0928
13453W        W56506   5.248  17.665   5.227 -0.0059  0.1196  0.2620
13454W        W56507   7.839  12.609  23.133  0.2339 -0.2998 -0.2990
13455W        W56508  19.733  29.585  22.631  0.1020 -0.5327 -0.0060
13456W        W56509  26.979  11.853  16.013  0.1426 -0.0896 -0.2173
13457W        W56510  20.954  20.459  21.040  0.1064 -0.0413 -0.0447
13458W        W56511   5.459  27.411  14.481  0.2284 -0.1044  0.0815
13459W        W56512  15.680  14.824  24.273  0.0579 -0.1964  0.1138
13460W        W56513   1.577  31.220   7.553  0.1433  0.3148  0.0759
13461W        W56514  28.103   2.933   5.358  0.0999  0.3134  0.0313
13462W        W56515  18.137  22.019   4.499  0.4248 -0.0228  0.1027
13463W        W56516   5.125   9.977  19.591 -0.0365  0.0788  0.0520
13464W        W56517  20.003   1.945   1.510 -0.1967 -0.1215  0.0384
13465W        W56518   1.912  18.322  22.702 -0.1898  0.1029  0.0002
13466W        W56519   1.953  24.449  18.455  0.2724  0.3270  0.0349
13467W        W56520   8.355  21.945  21.586 -0.4622 -0.1361  0.0287
13468W        W56521  27.873  11.827  17.671  0.1755  0.1458 -0.1860
13469W        W56522  34.522  23.720   1.737  0.0934  0.1104 -0.1779
13470W        W56523  14.440  20.043   8.379  0.1061  0.1233  0.1642
13471W        W56524   2.280  20.852  28.213  0.1603 -0.0198  0.3712
13472W        W56525  19.377  32.951   9.270  0.1120 -0.5122 -0.2111
13473W        W56526  20.197  24.948  24.130  0.0557 -0.2756  0.0876
13474W        W56527  11.414  20.183   4.577  0.3972  0.0634  0.1499
13475W        W56528  33.760  28.126  13.302  0.1849  0.0862  0.0794
13476W        W56529  26.305  27.195  15.201 -0.0507 -0.1016 -0.2825
13477W        W56530  30.745   0.174  13.358 -0.1605  0.0951  0.4583
13478W        W56531  19.856   4.581  21.845  0.2379 -0.2118 -0.2061
13479W        W56532   3.679  30.312   5.411 -0.2993  0.0703 -0.0223
13480W        W56533  26.935  30.978  27.883 -0.0479  0.1419 -0.3033
13481W        W56534  29.606  19.781   8.099 -0.1078  0.0513  0.1614
13482W        W56535  33.604  20.936  15.395  0.1288 -0.0415  0.1396
13483W        W56536   2.669  17.381  25.850  0.1774  0.1668 -0.0283
13484W        W56537  28.564  19.190  28.196  0.0813  0.1090 -0.0306
13485W        W56538   9.596  12.258   9.084 -0.3379  0.1243 -0.1049
13486W        W56539  25.251   4.437   7.056 -0.1122 -0.1893  0.0891
13487W        W56540  11.138   0.778  24.000  0.3422 -0.1047  0.2339
13488W        W56541  11.387   8.896  21.828 -0.0864 -0.1285 -0.1345
13489W        W56542  31.403  25.460   4.064 -0.0920  0.3119  0.0078
13490W        W56543  28.809  16.742  14.589  0.0309 -0.3529 -0.1645
13491W        W56544   6.376  27.109   7.735 -0.0059  0.3452 -0.1452
13492W        W56545   6.477  19.570  14.888 -0.0536  0.2024  0.0930
13493W        W56546  29.774  24.649  22.450  0.0007  0.0953  0.0588
13494W        W56547   7.244  24.104  27.870  0.0801 -0.4497  0.2051
13495W        W56548  30.602  32.834   4.944 -0.0450  0.2501 -0.0399
13496W        W56549  20.381  13.235  19.158 -0.2459 -0.3885  0.1444
13497W        W56550  31.013  24.044  18.493 -0.3116  0.1879  0.3730
13498W        W56551  27.305   8.759  14.766 -0.2041  0.0005  0.0757
13499W        W56552   8.043  12.247  25.343  0.0952  0.0462  0.0483
13500W        W56553  18.125  17.348   5.211 -0.1051  0.2001 -0.0684
13501W        W56554  20.001   0.837  22.031  0.0267 -0.0057  0.1368
13502W        W56555   2.739  27.483  26.126 -0.3012 -0.1992  0.2205
13503W        W56556   2.045   5.349  29.175  0.1556 -0.0780  0.0196
13504W        W56557  18.197  25.756  22.536  0.1321  0.2740  0.0613
13505W        W56558  31.537  27.965  24.309 -0.5219  0.0759 -0.3555
13506W        W56559   7.240  11.289   9.845 -0.0112 -0.2384  0.2312
13507W        W56560   4.877   9.851  17.496  0.0243  0.1381 -0.2850
13508W        W56561  30.371  19.875  14.319  0.0870 -0.1463  0.0458
13509W        W56562  13.936  28.864  28.068  0.0250 -0.1186 -0.0543
13510W        W56563  28.075  25.482   2.966 -0.0613 -0.2264 -0.1342
13511W        W56564  31.432   4.011  26.902  0.1326 -0.2607  0.0363
13512W        W56565  22.814   0.386   4.653 -0.0318  0.1632  0.3924
13513W        W56566   8.706  22.184   4.148  0.0045  0.1213 -0.3488
13514W        W56567   5.842  14.824   7.896 -0.0993  0.0008 -0.2132
13515W        W56568  27.690  28.458  25.342 -0.1095  0.3882 -0.0414
13516W        W56569  34.374  18.245   4.206 -0.0600 -0.2962 -0.1241
13517W        W56570  26.192  15.925   2.502 -0.0098  0.0027  0.1319
13518W        W56571  14.816  26.483  26.540  0.0581 -0.0365 -0.1770
13519W        W56572   3.855   4.232  23.668  0.2150 -0.4205  0.0829
13520W        W56573   7.786  15.882  19.902 -0.4117 -0.0208  0.0367
13521W        W56574  26.363   1.107  28.696  0.0268  0.0222 -0.1170
13522W        W56575  10.618  34.306   5.490  0.0394 -0.1708 -0.1195
13523W        W56576  30.085  21.566  15.778 -0.3354 -0.0173  0.1444
13524W        W56577   3.724   7.773  19.933  0.1089 -0.1300  0.1613
13525W        W56578  22.020  21.399  25.925  0.1524 -0.0863  0.1055
13526W        W56579   3.941  23.139   0.272  0.1473  0.0088 -0.0349
13527W        W56580  25.453  30.827  27.352  0.1816 -0.1087  0.0163
13528W        W56581  27.272  12.467   7.953  0.0776 -0.1136 -0.1323
13529W        W56582  32.778  27.904  24.760 -0.1718 -0.1038  0.2388
13530W        W56583  19.408   6.788  20.490  0.2311 -0.2025 -0.0233
13531W        W56584  14.502  27.396   0.012 -0.1899  0.1559  0.1227
13532W        W56585  32.492  19.551  16.468  0.0051 -0.0606 -0.0773
13533W        W56586  29.737   2.483  18.411 -0.1747 -0.0550 -0.0743
13534W        W56587   8.362  17.281   1.266 -0.1909  0.3517 -0.1003
13535W        W56588  32.906  18.534  16.663 -0.1669 -0.1213  0.2402
13536W        W56589   3.751   3.948   8.325  0.0825  0.0517 -0.1590
13537W        W56590  25.641  30.866  24.041 -0.2347  0.1716  0.0262
13538W        W56591  12.239  21.604  20.451  0.2419 -0.1595 -0.1080
13539W        W56592  17.440  28.363  22.745 -0.2465  0.1514  0.0659
13540W        W56593  30.063  25.576  28.609  0.0633  0.3866 -0.0396
13541W        W56594   0.918   6.090   7.377  0.0674 -0.3393 -0.1590
13542W        W56595   1.271  34.224  19.065 -0.0140 -0.0564 -0.1405
13543W        W56596   0.136  29.308  27.512  0.0861  0.3230 -0.3857
13544W        W56597  31.700  27.384  15.974  0.0513 -0.1898  0.0211
13545W        W56598  17.406  30.808  28.734  0.1089 -0.0727 -0.2077
13546W        W56599  29.070  31.149  15.619  0.0597 -0.0484 -0.0841
13547W        W56600  34.264  29.022  15.790  0.2947 -0.3008 -0.1493
13548W        W56601  28.909  14.606  15.202  0.1214  0.1387  0.2604
13549W        W56602   6.740   5.200  23.762 -0.0900  0.0088 -0.0585
13550W        W56603  20.985  13.980   3.587 -0.0363  0.0709 -0.2044
13551W        W56604  22.371  24.772  17.973  0.2452 -0.1709  0.2412
13552W        W56605   4.384  12.676  19.076 -0.0495  0.1379 -0.1949
13553W        W56606  26.464   9.634   8.863  0.0036 -0.0263 -0.0544
13554W        W56607  32.146   7.713   0.756  0.2171 -0.2215 -0.1044
13555W        W56608  26.929  30.840  26.639 -0.1325  0.4764 -0.1666
13556W        W56609   1.684  24.296   5.806 -0.2224 -0.1989 -0.1402
13557W        W56610  34.090  25.128  25.400  0.0767  0.0281  0.1620
13558W        W56611   0.418  14.240   3.184  0.1596 -0.1599  0.0113
13559W        W56612  31.990  25.557  28.778 -0.0926 -0.1896 -0.4721
13560W        W56613  18.533  29.651   2.218 -0.1125 -0.0454 -0.1105
13561W        W56614  34.449  25.529  26.569  0.1542  0.0046 -0.0554
13562W        W56615  19.235  28.201   6.892  0.0462  0.0046  0.1067
13563W        W56616  33.247  31.613  18.102 -0.0796 -0.3784 -0.1779
13564W        W56617  17.548  33.695  27.539 -0.2336  0.1711  0.1277
13565W        W56618   5.853   9.571  24.250 -0.2137 -0.0541 -0.2933
13566W        W56619  23.051   4.496  17.841  0.1499 -0.1125  0.3398
13567W        W56620  17.963  23.380  21.923 -0.0694 -0.0657  0.1063
13568W        W56621  10.279  19.088   6.430 -0.0198 -0.0759 -0.2944
13569W        W56622  20.238  21.246   1.256  0.2674  0.2753  0.0645
13570W        W56623  33.421  14.607  15.388 -0.0524 -0.0025 -0.2869
13571W        W56624   7.822  23.226  16.262 -0.1348 -0.0921 -0.0483
13572W        W56625  20.847  29.755  26.731  0.0268 -0.0932 -0.1791
13573W        W56626  29.301  30.951   9.732 -0.1542  0.2148 -0.2416
13574W        W56627  27.971  20.555  26.061 -0.2822  0.0625 -0.1346
13575W        W56628  20.482  20.366  21.268  0.5039 -0.3528 -0.2562
13576W        W56629   4.238  15.078   4.244 -0.0318 -0.1803  0.3243
13577W        W56630  10.283  31.477  20.249  0.2527  0.2769  0.2361
13578W        W56631  27.213  22.127   4.364  0.1946  0.0401 -0.4125
13579W        W56632  28.576  30.379  13.897  0.2972  0.1090 -0.2515
13580W        W56633   0.165   1.847   3.591 -0.0269  0.2760  0.1686
13581W        W56634  33.637  27.850   4.962  0.1883 -0.0533 -0.0752
13582W        W56635  16.536  29.354  22.033 -0.5824  0.0507  0.0944
13583W        W56636   5.770  12.789   3.754  0.0648  0.1856  0.2102
13584W        W56637  12.055  16.193   1.647  0.1546  0.1008  0.0986
13585W        W56638   0.773  28.346  15.759  0.0900 -0.2042  0.0842
13586W        W56639   5.810   2.351  27.349  0.0604  0.2333 -0.0925
13587W        W56640   4.496  26.008  25.172 -0.0558  0.0142 -0.0051
13588W        W56641  12.243  23.237  24.860  0.1886  0.1101 -0.1780
13589W        W56642  23.756  27.065  27.186  0.1394 -0.1180  0.0184
13590W        W56643   3.887   5.870  25.610 -0.1674  0.1143 -0.1888
13591W        W56644  31.612  18.701  17.628  0.0299 -0.1358  0.1334
13592W        W56645  12.492  24.993   1.289 -0.1234 -0.1125 -0.0585
13593W        W56646   3.149  19.746   0.810  0.1901  0.1604  0.0596
13594W        W56647   7.035   4.056   0.558  0.0372 -0.0723  0.2247
13595W        W56648   6.845  11.425  24.360  0.1324  0.1589  0.3145
13596W        W56649  12.409  11.088  16.940  0.2384  0.1486  0.2801
13597W        W56650   2.805  31.839  19.833 -0.1345  0.0968 -0.0687
13598W        W56651  28.017  25.960  22.681  0.1445  0.0424 -0.0487
13599W        W56652  34.399  32.375  24.009  0.2306 -0.0439 -0.0722
13600W        W56653  25.617  24.179  16.056  0.0849 -0.0432 -0.0695
13601W        W56654  22.348  25.859  15.120  0.0712 -0.2741 -0.0411
13602W        W56655  26.731  13.906   4.216 -0.2460  0.0968  0.0124
13603W        W56656  29.127  24.671  26.548 -0.3661  0.3965  0.2501
13604W        W56657  22.572  26.742   3.509 -0.1935  0.1574  0.2424
13605W        W56658   9.161  17.836   7.189  0.0538  0.1169  0.1623
13606W        W56659  34.653  26.654  27.076 -0.0984 -0.0191  0.0456
13607W        W56660  18.201   2.746  27.478  0.2773  0.2134 -0.1928
13608W        W56661   4.735  14.602   7.237 -0.0838 -0.2468  0.2580
13609W        W56662   4.071  34.284  17.852  0.0777  0.0734 -0.1824
13610W        W56663  10.814  10.241   2.711  0.1818  0.0103 -0.2584
13611W        W56664  21.456  20.677  28.992 -0.1627 -0.0980  0.1171
13612W        W56665  29.473  25.383   6.176 -0.2067 -0.3284  0.0217
13613W        W56666   0.004  16.408  14.670  0.1270 -0.0844  0.0192
13614W        W56667  11.501  31.186  28.112 -0.1303  0.2349 -0.0732
13615W        W56668   9.884  13.509   2.834  0.3450  0.0450 -0.0964
13616W        W56669  29.308  14.604  28.161  0.0291  0.2505  0.0968
13617W        W56670  15.878  30.293   1.108  0.0209  0.1333 -0.2183
13618W        W56671   1.414  20.647  17.561 -0.0396  0.1814  0.1644
13619W        W56672   2.303  24.054   4.604  0.2943  0.1354 -0.0605
13620W        W56673   5.795  33.336  22.798 -0.1760 -0.2480  0.1611
13621W        W56674   0.556  20.486   3.629  0.1547 -0.0042  0.0029
13622W        W56675  11.288  13.418   9.631  0.0318 -0.1897 -0.1073
13623W        W56676  13.721  21.217  28.318 -0.0404  0.0085 -0.3061
13624W        W56677  31.538  10.187  19.846  0.1717  0.1308  0.0307
13625W        W56678  11.549  16.679  16.715  0.0464  0.0276 -0.4376
13626W        W56679  32.285   2.959  25.866 -0.0442  0.0867  0.1965
13627W        W56680  10.889  12.510   5.641 -0.2132  0.1357 -0.2181
13628W        W56681   5.134  31.996  15.695  0.2972  0.0163  0.0853
13629W        W56682  33.667  22.809   3.916  0.2623  0.0337  0.0151
13630W        W56683  14.582  17.699   3.235  0.1991  0.2000 -0.1305
13631W        W56684  32.636  26.633   7.700  0.2694  0.1569 -0.4307
13632W        W56685   2.845  10.300   2.210  0.3421  0.1544 -0.1707
13633W        W56686  13.671   8.654   3.177 -0.0372  0.2035  0.0494
13634W        W56687  25.059  18.024   7.467 -0.1449 -0.3924  0.1131
13635W        W56688   8.654  11.673  17.249  0.0817  0.2287 -0.0994
13636W        W56689   1.513  14.996   9.343  0.0516  0.0867  0.2502
13637W        W56690  32.847  20.896  27.541  0.0159 -0.0708  0.0055
13638W        W56691  10.206   9.806  24.741 -0.1505 -0.2413 -0.1185
13639W        W56692   6.285  22.421   2.925 -0.3898  0.1574  0.2056
13640W        W56693  14.659  22.345  24.011  0.1274 -0.1694 -0.1011
13641W        W56694   4.497  17.450  22.682 -0.0675  0.3546  0.3011
13642W        W56695  34.258  14.559   3.308 -0.2253  0.2518 -0.0056
13643W        W56696  32.372  17.158   3.081 -0.0474  0.0756 -0.1173
13644W        W56697  20.324  14.128   1.299  0.1438  0.0770  0.2397
13645W        W56698  27.999   4.262  24.992 -0.2615  0.0917  0.0073
13646W        W56699  10.221  16.486  21.947  0.4210 -0.3011  0.1549
13647W        W56700   0.092  29.209  20.907 -0.1277 -0.0300  0.1710
13648W        W56701  33.143  28.170   4.863  0.0970 -0.0809 -0.1973
13649W        W56702   1.059   4.383  21.230  0.3339 -0.0288  0.7022
13650W        W56703  25.095  30.145   1.591  0.1691  0.0404  0.2250
13651W        W56704  22.076  27.186   0.257 -0.1160 -0.1512  0.1225
13652W        W56705  20.668  24.102  20.685  0.3981 -0.2796  0.1866
13653W        W56706   4.302  17.826  17.663 -0.2318 -0.1792  0.2359
13654W        W56707   1.281  21.199   5.163 -0.0069 -0.0469  0.0443
13655W        W56708   1.944  11.538  10.143 -0.0068  0.0203 -0.0828
13656W        W56709   2.617  20.745  14.664  0.0098 -0.1769  0.0806
13657W        W56710   0.180  15.125  18.528 -0.0829  0.0833  0.1224
13658W        W56711   6.068  18.869  19.006 -0.0770  0.1701 -0.0429
13659W        W56712  20.251  12.391  23.906 -0.0983  0.0685  0.0355
13660W        W56713  16.881  24.237  25.329  0.4471  0.0009 -0.1501
13661W        W56714   0.255  21.257  25.161  0.0346  0.0456  0.0558
13662W        W56715   6.963  28.898  21.170 -0.0622  0.3406 -0.3988
13663W        W56716   6.570   6.367   8.809 -0.0423 -0.1311  0.0892
13664W        W56717   2.348  22.753  26.955 -0.0114  0.1103  0.2372
13665W        W56718  22.633  26.652  27.529 -0.4472 -0.2623  0.1037
13666W        W56719  11.881  33.037  19.955  0.4113 -0.0765  0.1427
13667W        W56720  30.127  25.472   9.335  0.1731  0.0149  0.4331
13668W        W56721  30.142   6.300  26.325 -0.1799  0.1540  0.2588
13669W        W56722  29.904   9.905  17.961 -0.1755  0.4411  0.0345
13670W        W56723  28.969  17.309  26.436 -0.0574 -0.1480 -0.4415
13671W        W56724  32.526  18.083   2.600  0.0519 -0.3932  0.1063
13672W        W56725   6.003  13.769  10.167 -0.3666 -0.0010 -0.1257
13673W        W56726   2.423  30.853   0.806  0.2683  0.0036  0.1165
13674W        W56727   3.231  19.048  23.940 -0.2190 -0.0520  0.0893
13675W        W56728  16.617   1.917  24.083 -0.2686 -0.2925  0.1304
13676W        W56729  10.085  13.865  28.406  0.1137  0.3865  0.3681
13677W        W56730  13.643  27.882   8.779 -0.1391  0.0693  0.0818
13678W        W56731  28.294  26.716  16.781  0.0350  0.1657  0.4122
13679W        W56732   4.579  22.280  26.658 -0.0438  0.1654  0.1586
13680W        W56733  14.012  15.243   3.041  0.1453  0.0088  0.2003
13681W        W56734  26.337  15.060  17.352 -0.2088  0.0744 -0.0828
13682W        W56735   0.815  29.288  28.619 -0.3077  0.0990 -0.1178
13683W        W56736  21.018   8.810  27.512 -0.0057  0.0447 -0.3009
13684W        W56737  32.161  31.398  24.520  0.3176 -0.2680 -0.0290
13685W        W56738  31.628  10.923  19.310  0.1900 -0.2554 -0.0472
13686W        W56739   8.283  15.862  27.391 -0.0834 -0.1852 -0.1197
13687W        W56740   4.163   4.666  20.429  0.4723 -0.2423 -0.3408
13688W        W56741  25.355  26.172  21.065  0.0695 -0.2102 -0.0293
13689W        W56742  33.803   0.020  23.817 -0.1847 -0.2759  0.2359
13690W        W56743  12.142  15.950  20.069 -0.1100 -0.1054 -0.1969
13691W        W56744   9.308   4.925   5.868 -0.0345  0.0730 -0.3045
13692W        W56745   6.730  26.477   4.982  0.4162 -0.1929  0.0980
13693W        W56746   1.616  26.056   8.241  0.1340 -0.0776 -0.0362
13694W        W56747   1.312  11.227  17.556  0.1445  0.1769 -0.2015
13695W        W56748   3.544  15.104  25.919 -0.0742  0.1728 -0.1290
13696W        W56749  32.946   5.669   4.170 -0.0587  0.0007 -0.1185
13697W        W56750  22.515  20.517  24.365 -0.5294 -0.2178  0.0834
13698W        W56751   2.452  33.158  19.651 -0.1684 -0.0235  0.0998
13699W        W56752  30.553  18.871  15.102 -0.2215 -0.1268  0.4051
13700W        W56753   2.142  20.610  29.200  0.0333  0.1803  0.4674
13701W        W56754  33.085   5.727   1.589 -0.2929  0.1109 -0.1618
13702W        W56755   2.167  14.119   7.596  0.1208 -0.2598 -0.1073
13703W        W56756  31.266  34.656  29.100  0.0163  0.0355 -0.0798
13704W        W56757   3.971  17.987  26.894  0.0177 -0.3346  0.1298
13705W        W56758  30.515  27.045  24.296  0.4913 -0.2505 -0.2173
13706W        W56759  17.779  20.821  14.332 -0.0355 -0.2444 -0.2801
13707W        W56760   4.342   0.471  17.355  0.1415  0.1115 -0.0916
13708W        W56761  27.148  23.308  27.869 -0.0570  0.2675 -0.3110
13709W        W56762  19.254   7.365   0.453 -0.4630  0.1130 -0.1442
13710W        W56763  21.651  18.242  26.036  0.0226 -0.3022  0.0772
13711W        W56764  29.054  10.845   5.838  0.1533 -0.1050  0.1518
13712W        W56765  29.234  14.143   4.211  0.2496  0.0423 -0.0313
13713W        W56766  14.257  24.270   5.890 -0.1681 -0.1691  0.1808
13714W        W56767   3.932  19.281  23.122 -0.3946  0.1007 -0.1157
13715W        W56768  13.952  15.333  24.062 -0.0555  0.1044  0.3818
13716W        W56769  29.115  32.684  20.495 -0.0704 -0.0184  0.2023
13717W        W56770  31.267   0.286   0.963  0.3351 -0.1357  0.1198
13718W        W56771   0.474  20.134  25.497  0.1639 -0.1041  0.1976
13719W        W56772  12.802   8.162   5.546 -0.2271 -0.0347  0.0872
13720W        W56773   4.274  23.764  17.793 -0.0742  0.2649 -0.0088
13721W        W56774  25.739  12.201  20.578  0.0766  0.2034 -0.4241
13722W        W56775   2.655  20.877   5.595  0.0567  0.0933 -0.0776
13723W        W56776  33.296  23.295  15.693  0.1867  0.0514  0.0140
13724W        W56777   8.723  25.605  19.969  0.0777  0.1570  0.3849
13725W        W56778   4.071   8.000   2.835  0.0841 -0.1239 -0.2440
13726W        W56779  31.534  19.002  20.732  0.0132 -0.0603  0.0124
13727W        W56780  22.361  33.786   0.331 -0.0493  0.1465 -0.5196
13728W        W56781  34.450  28.919  26.147 -0.1138 -0.0033  0.2825
13729W        W56782   6.392  27.875  21.289 -0.0624  0.0443 -0.0692
13730W        W56783  10.304  12.276   9.900 -0.0546  0.1823  0.0465
13731W        W56784   3.585  34.459   0.176  0.1012  0.0948 -0.0408
13732W        W56785  29.567  25.365  20.705  0.1514 -0.1600  0.2433
13733W        W56786   5.217  13.516  28.651  0.0854 -0.2010 -0.3846
13734W        W56787  29.790  13.408  20.155  0.2496 -0.1119 -0.2338
13735W        W56788  32.582  23.475  24.300 -0.0195 -0.1622  0.2050
13736W        W56789  13.918  18.993  22.325  0.3329  0.0575 -0.0389
13737W        W56790  33.876  26.917   7.628 -0.0134  0.0174 -0.3416
13738W        W56791  31.939  27.871   6.219  0.0067  0.1586 -0.0405
13739W        W56792  11.138  24.135  14.139 -0.0759  0.0260 -0.0495
13740W        W56793   8.812  28.227  26.543 -0.5500  0.1235 -0.2157
13741W        W56794  33.285  15.494  28.257  0.0448  0.2033 -0.0326
13742W        W56795   7.308  15.919  17.157  0.0117  0.0113  0.2058
13743W        W56796   8.459  22.176  18.136  0.0560  0.2237 -0.3174
13744W        W56797  16.750  25.055  23.707 -0.0692 -0.2406  0.1196
13745W        W56798  29.042  26.266  18.416  0.0706  0.0804 -0.1279
13746W        W56799   0.072  26.932   4.188 -0.1865 -0.1028 -0.2192
13747W        W56800  10.307  22.663   7.396 -0.0247 -0.1455  0.2170
13748W        W56801   9.607  17.621  10.225  0.4088  0.0480  0.0767
13749W        W56802  33.493   7.114   3.107 -0.2050  0.0288 -0.0332
13750W        W56803   6.373  23.436   0.142 -0.0464 -0.4524  0.0749
13751W        W56804   6.436  26.844  15.281  0.0009  0.3576 -0.0813
13752W        W56805  28.282  33.263   1.124 -0.0190 -0.1931  0.1546
13753W        W56806  24.481   7.513  13.904 -0.0935  0.0295 -0.4256
13754W        W56807  31.984   0.374  16.200 -0.1292 -0.2358  0.2278
13755W        W56808   3.960  15.995   4.366  0.1508 -0.2064 -0.1950
13756W        W56809  31.195   9.107  27.338 -0.2429  0.1786  0.3508
13757W        W56810  32.524  14.233  20.079  0.3220 -0.0212  0.0879
13758W        W56811  24.255  13.457  21.684  0.1860 -0.1959  0.0498
13759W        W56812   8.572  11.338  25.744 -0.1394  0.1579  0.2202
13760W        W56813   1.391  12.948  20.556  0.0981 -0.2042  0.1938
13761W        W56814   4.639   3.684   2.002 -0.5776 -0.0938  0.4871
13762W        W56815  21.275  26.960  15.809 -0.1493  0.1688 -0.0853
13763W        W56816   4.374  14.134   5.466  0.2280 -0.2378 -0.1026
13764W        W56817   7.178  23.227   4.690 -0.0903  0.1303 -0.1106
13765W        W56818  13.450  11.087  25.556  0.1180 -0.0076 -0.1313
13766W        W56819  29.319   5.751   3.799  0.3298  0.0861  0.1294
13767W        W56820  32.936  29.160  28.239  0.0404  0.1073 -0.1257
13768W        W56821  34.405   5.020  27.946 -0.0333  0.1860 -0.3598
13769W        W56822   5.079  30.978   9.848  0.1979 -0.2540  0.1548
13770W        W56823   5.050  24.672  27.542 -0.0782  0.2375 -0.3034
13771W        W56824   3.067  30.608  24.029 -0.1882  0.1714 -0.0561
13772W        W56825  32.014  23.747  19.152  0.0916 -0.3117 -0.0797
13773W        W56826  10.498  25.223   1.895  0.2507  0.2893  0.2938
13774W        W56827  29.614   9.350   8.700 -0.2670 -0.0369  0.2787
13775W        W56828   6.349  25.631  13.690 -0.2765  0.0291 -0.0761
13776W        W56829  32.595  24.899  20.838  0.0969  0.0003  0.0159
13777W        W56830  18.806  28.762   2.326  0.1929 -0.0594 -0.1568
13778W        W56831  10.730  30.704  18.889  0.1074 -0.2316 -0.0900
13779W        W56832   1.192   1.315   6.894  0.0560  0.1008  0.1162
13780W        W56833  28.138   7.273  28.668 -0.2782  0.1400  0.3625
13781W        W56834   8.082  16.419   2.516  0.2047 -0.2201  0.0362
13782W        W56835  22.008  30.734  24.035 -0.1805 -0.2362  0.1054
13783W        W56836   4.130  23.232  23.075  0.3068  0.2587  0.0401
13784W        W56837  24.008  21.188  22.662  0.3171 -0.1990 -0.0601
13785W        W56838  33.395  22.881  29.133 -0.3200  0.1078 -0.0002
13786W        W56839   6.575  22.436  23.575  0.3376  0.3421 -0.2323
13787W        W56840  10.259   4.198  29.104 -0.1702 -0.0937  0.0999
13788W        W56841  27.321  24.966  17.831 -0.0813  0.0490 -0.1762
13789W        W56842  24.049  21.536  19.751 -0.0469  0.1463 -0.2178
13790W        W56843  26.973  21.089  19.652 -0.2115  0.2235 -0.2161
13791W        W56844  25.437  22.649   5.356  0.0768  0.1151  0.2064
13792W        W56845   1.093  31.724   7.309 -0.1323  0.3665 -0.3363
13793W        W56846  34.498  16.846  15.701  0.0316 -0.0060  0.1422
13794W        W56847  33.648  22.616  18.171  0.0627 -0.2533  0.1491
13795W        W56848   2.273   6.506  20.379 -0.3870  0.0495  0.1070
13796W        W56849  23.247  22.676   9.798  0.1574 -0.0728  0.0150
13797W        W56850  17.742  20.913  13.800  0.1587 -0.2292 -0.4030
13798W        W56851  23.200  19.511  17.586 -0.4110  0.4218 -0.2028
13799W        W56852  10.400  28.475  14.306 -0.0634  0.1975 -0.0369
13800W        W56853   2.280   7.365  20.976 -0.2445  0.1350  0.0819
13801W        W56854  32.851   4.079   1.750 -0.0620  0.0040 -0.1334
13802W        W56855  26.109  30.190  22.176 -0.1010  0.0620  0.2366
13803W        W56856   2.927  23.597   5.134  0.2360 -0.1173 -0.2938
13804W        W56857  28.070  24.479  25.798 -0.0833 -0.5082  0.0244
13805W        W56858   3.289  19.915  18.565 -0.0311 -0.0024 -0.3449
13806W        W56859  11.995  22.320  22.015  0.1761  0.1606  0.0047
13807W        W56860  17.235   1.439   6.833  0.0099  0.2495  0.1490
13808W        W56861  33.971   6.390   9.822  0.0030  0.1009  0.0758
13809W        W56862  11.014   3.257   8.831 -0.3519 -0.1220 -0.1101
13810W        W56863   7.746  23.559   0.712 -0.3599 -0.1346 -0.2109
13811W        W56864  28.994  15.417  13.514 -0.2090  0.1550  0.0027
13812W        W56865   8.026   5.432  10.374  0.1055 -0.0009 -0.2488
13813W        W56866  24.987  25.376   1.732  0.0053  0.1459 -0.1093
13814W        W56867  21.706  18.875   3.580 -0.0791  0.1402  0.1301
13815W        W56868   7.788  31.230   0.937 -0.0449 -0.2899 -0.1789
13816W        W56869  26.745  25.659  24.405 -0.4642  0.0699  0.2363
13817W        W56870  34.417  21.276   0.799  0.0596 -0.2035 -0.2059
13818W        W56871  24.612  28.215  26.338 -0.1616  0.1433  0.4570
13819W        W56872  23.954  24.994   6.357 -0.0558  0.0349 -0.0884
13820W        W56873  22.821  17.151  20.753 -0.0164 -0.0786 -0.0094
13821W        W56874  27.629  22.332  19.280 -0.4414  0.2616 -0.1901
13822W        W56875  31.173  21.038  23.140  0.0303  0.0645 -0.1699
13823W        W56876  11.514  13.833   3.554 -0.1571  0.1373 -0.1486
13824W        W56877  28.848  26.076   9.482  0.1157 -0.5070  0.2075
13825W        W56878   7.837  12.584  19.521  0.3793 -0.1985 -0.0789
13826W        W56879   6.370  27.279  15.765 -0.3358  0.2128 -0.0077
13827W        W56880  29.154  25.667   0.559  0.0111  0.1810  0.2770
13828W        W56881   5.004  29.572  28.094  0.4294 -0.0763  0.4455
13829W        W56882   3.752   0.494  17.025  0.1036 -0.0851 -0.0108
13830W        W56883  28.119  16.067   9.184  0.0469 -0.1838 -0.1947
13831W        W56884  30.006  19.657  17.289  0.1910 -0.3073  0.1076
13832W        W56885  23.564  24.971  25.430 -0.2471 -0.1057 -0.0309
13833W        W56886  28.838  13.936   2.139 -0.1246 -0.3908  0.0735
13834W        W56887  31.076  18.851   1.631 -0.2072  0.0368  0.0507
13835W        W56888   5.755  10.760  24.047 -0.1199  0.1054 -0.2283
13836W        W56889  34.625  30.178   3.372  0.2161 -0.4580 -0.1492
13837W        W56890   3.000  26.790  15.582  0.1288  0.1880  0.2588
13838W        W56891  25.286  20.658  29.080  0.0075  0.0720  0.0252
13839W        W56892  22.248  20.342  16.832  0.0705  0.0791 -0.0315
13840W        W56893   4.140  23.382  26.015  0.1093 -0.1970  0.0703
13841W        W56894   2.145  26.260  28.750  0.1753 -0.0489  0.0340
13842W        W56895  19.032  32.569  24.905 -0.1208 -0.0711 -0.2274
13843W        W56896  29.785  25.750   4.925  0.2217 -0.1826 -0.0213
13844W        W56897  26.211  24.057   2.232  0.1944  0.0565 -0.0882
13845W        W56898  30.799  12.737   5.912 -0.1991 -0.1791  0.3833
13846W        W56899  27.400  20.374  10.664  0.4250  0.0929 -0.1330
13847W        W56900   3.228  27.487   4.603  0.2632  0.3783 -0.0482
13848W        W56901  15.697  27.493  15.323  0.0783  0.0103 -0.0538
13849W        W56902   7.539  26.520  15.532  0.0762 -0.1778  0.1677
13850W        W56903   0.822  23.063  17.513 -0.2282 -0.1400  0.1766
13851W        W56904  32.366  23.556  28.952 -0.2475  0.1746 -0.4028
13852W        W56905   9.395  18.712  28.267  0.2577 -0.1011 -0.1786
13853W        W56906  22.061  28.129  27.626 -0.3607  0.2218  0.1575
13854W        W56907  26.286   2.619  15.589 -0.1037 -0.1365  0.0165
13855W        W56908   0.751  19.809  13.967  0.0422 -0.4432 -0.2329
13856W        W56909   3.425   0.328  23.885 -0.1036  0.1262 -0.0548
13857W        W56910  18.898   9.488   6.394  0.0525 -0.0596 -0.1006
13858W        W56911  28.375  25.805  14.916  0.1621  0.1425  0.0104
13859W        W56912  27.291  21.570  21.382 -0.1523  0.0785 -0.0732
13860W        W56913  30.121  13.758  19.243 -0.2488  0.1500 -0.2063
13861W        W56914   1.814   7.136   9.140  0.1144 -0.3467 -0.3063
13862W        W56915  23.316  25.864   9.870 -0.0273 -0.0318  0.0514
13863W        W56916  10.371  23.083  26.380 -0.1048 -0.2170 -0.2177
13864W        W56917  11.274  20.530   2.228 -0.3967  0.0041  0.0859
13865W        W56918   9.143   0.382   9.082  0.1510  0.0106 -0.0560
13866W        W56919   7.173  12.981  23.343  0.1863 -0.2581 -0.0316
13867W        W56920  33.414  25.475  21.265  0.1122  0.2195 -0.0445
13868W        W56921   3.997  17.201   1.572  0.0738 -0.1081 -0.1403
13869W        W56922   5.608  20.926   5.724  0.3425  0.1122  0.2965
13870W        W56923   3.931  28.162  14.758 -0.1724 -0.0651  0.0339
13871W        W56924  29.249  15.150  19.790 -0.1994 -0.0515 -0.0129
13872W        W56925   0.603  28.304  21.160 -0.2231 -0.1742  0.0694
13873W        W56926   7.805  29.427   8.504 -0.1309  0.1377 -0.2206
13874W        W56927  24.645  31.377  25.322 -0.0864 -0.1832 -0.1992
13875W        W56928  30.007  29.114   7.664  0.2691 -0.1515  0.1823
13876W        W56929  32.746  29.851   8.905  0.1454  0.0794  0.0993
13877W        W56930   8.107   8.958  11.142 -0.0497  0.3322  0.0172
13878W        W56931  21.017  24.380   5.894 -0.0493  0.2296 -0.0135
13879W        W56932   5.796  21.568  29.013  0.0968 -0.3975  0.0039
13880W        W56933   0.655  16.960  14.455 -0.0784  0.0634 -0.3209
13881W        W56934  31.778  27.950  28.757  0.2838 -0.0584  0.1960
13882W        W56935  33.204  31.680   7.645  0.1999 -0.2270  0.1863
13883W        W56936   5.569   1.624  20.729 -0.1619  0.0368 -0.1546
13884W        W56937  25.574  18.831   1.679  0.1413  0.0059  0.0260
13885W        W56938   2.522  25.677  22.419 -0.1268 -0.1027 -0.3078
13886W        W56939   2.902  18.397  20.768  0.1471  0.1177 -0.1059
13887W        W56940  23.979  30.544  28.689  0.0581  0.3213 -0.3062
13888W        W56941   6.178   6.444  27.838  0.3298 -0.1466 -0.5331
13889W        W56942  27.378  18.503  21.863 -0.1796  0.0975 -0.0220
13890W        W56943  15.036  21.051   5.714  0.1120  0.2798 -0.0029
13891W        W56944   9.573  17.251  15.873  0.2380  0.1137  0.0159
13892W        W56945  23.166  25.882   6.853 -0.1661 -0.0262 -0.1577
13893W        W56946   1.355  12.484  19.698 -0.0352  0.0089  0.4282
13894W        W56947  24.682  11.332  25.772  0.1092  0.1460 -0.2037
13895W        W56948  34.043  25.931  21.790 -0.2711 -0.0316 -0.1228
13896W        W56949   8.219  13.268  26.824  0.1560  0.2561  0.0213
13897W        W56950   5.478  16.073  23.174  0.3156 -0.1905 -0.0270
13898W        W56951  33.810  19.123  10.235  0.0630  0.1016  0.1580
13899W        W56952  15.516  15.957   9.017  0.0112  0.2033  0.1316
13900W        W56953  26.980  13.565  14.678  0.0515 -0.1047 -0.1640
13901W        W56954  29.337  20.004  16.504  0.1411 -0.0282  0.2141
13902W        W56955   3.325  32.712  22.433  0.0756  0.2787 -0.0842
13903W        W56956  31.810  21.645  22.037  0.0433 -0.2471 -0.1953
13904W        W56957  34.211  25.869   7.434  0.1098  0.0469  0.0512
13905W        W56958  11.480  17.020  25.058  0.8808 -0.1085  0.1841
13906W        W56959   4.092  15.604   4.126 -0.2302  0.3078  0.1127
13907W        W56960  29.989  28.886   7.175 -0.2474 -0.2956  0.0018
13908W        W56961  14.588   9.127  28.831 -0.0836  0.0234  0.0934
13909W        W56962   6.837  28.358   7.284 -0.0467  0.1344  0.0403
13910W        W56963  20.530  26.098  10.849 -0.0539 -0.0345  0.0118
13911W        W56964  20.349  24.618  17.670 -0.2653  0.1615  0.2686
13912W        W56965  30.634  28.520  22.264 -0.0603  0.0096  0.0478
13913W        W56966   3.828  32.250  23.655 -0.2436 -0.2522 -0.3077
13914W        W56967  15.324   0.889   8.980 -0.0782  0.1592 -0.0164
13915W        W56968  11.129  29.291  17.991 -0.4814 -0.1312  0.1456
13916W        W56969   3.814  26.581   0.809  0.0380  0.0412  0.1453
13917W        W56970  29.361  18.612   7.355  0.0496  0.2057  0.1618
13918W        W56971   2.230   9.561  15.781  0.1593  0.5524  0.0563
13919W        W56972  30.962  24.219   0.954  0.0519 -0.1176 -0.0761
13920W        W56973   4.835  14.657  21.995  0.2188  0.3413  0.0036
13921W        W56974  31.481   2.725  24.811  0.2343  0.3850  0.0652
13922W        W56975  12.754  29.711  18.334 -0.4070  0.0025  0.0804
13923W        W56976   8.003  22.114  24.487 -0.0618 -0.3577  0.0888
13924W        W56977  30.577  19.944  26.147 -0.0152  0.1338 -0.1028
13925W        W56978   3.818   5.985  26.799  0.0363  0.0232 -0.1746
13926W        W56979  32.845  21.294   0.711 -0.0803 -0.1191  0.1466
13927W        W56980   4.108  22.057  23.477  0.0950  0.2072  0.0221
13928W        W56981  28.438  27.232  16.084  0.1423 -0.2161 -0.1859
13929W        W56982  16.437  15.667  23.204 -0.1657  0.3319  0.1864
13930W        W56983  20.042  15.279  25.348 -0.2965  0.4649  0.3158
13931W        W56984   1.497  22.411  28.202  0.1763 -0.3980  0.2770
13932W        W56985  26.709  11.557   7.459 -0.3185  0.0581  0.1227
13933W        W56986   1.912  22.488  27.276  0.1815  0.0754 -0.3150
13934W        W56987  31.575  15.318  24.735  0.1955  0.0038 -0.2022
13935W        W56988  34.177  31.552  27.641  0.0564  0.1937 -0.1033
13936W        W56989   2.687  21.548  14.103 -0.2515  0.1498  0.0092
13937W        W56990   7.954  20.659  28.161  0.2679  0.3847  0.3189
13938W        W56991   8.659  24.670  19.922 -0.2738  0.0418  0.1515
13939W        W56992   8.064   9.543   1.133 -0.3658  0.0248  0.0938
13940W        W56993  23.083  24.809  27.823  0.3069 -0.2388  0.0532
13941W        W56994   4.936  10.734  29.070  0.0438  0.1706  0.1698
13942W        W56995   8.017  18.956   4.770 -0.2799 -0.4145  0.1098
13943W        W56996  24.131  26.343  19.541  0.0436 -0.1454 -0.0364
13944W        W56997   8.044  13.695   3.770  0.2090 -0.3035 -0.2556
13945W        W56998  16.568   8.116  27.621  0.1725  0.4517 -0.0593
13946W        W56999  26.622  32.093   8.461  0.5197  0.1248 -0.1151
13947W        W57000  10.108  17.335  21.400  0.0432 -0.2314  0.1333
13948W        W57001  22.167  21.435   3.623 -0.0363 -0.1574 -0.2327
13949W        W57002  33.183  24.961   5.800 -0.1230 -0.2139 -0.0961
13950W        W57003   6.230   0.360  28.885  0.1477  0.0019 -0.6175
13951W        W57004  15.269  12.450  27.603 -0.3498 -0.2936 -0.2694
13952W        W57005  12.755  15.938  22.196 -0.0615 -0.0326 -0.0109
13953W        W57006  33.025  22.888  26.621 -0.2542 -0.2974  0.0939
13954W        W57007  18.408   8.329  10.203 -0.1035  0.1714  0.0223
13955W        W57008  27.609  25.499   2.630 -0.0827  0.6994  0.0968
13956W        W57009   6.463  27.737  14.886  0.1011 -0.2991  0.0964
13957W        W57010   6.761  30.368   3.880 -0.0285 -0.0861 -0.0510
13958W        W57011  33.351  10.672   7.772  0.3879 -0.1047  0.0381
13959W        W57012  14.811  21.263  15.109 -0.0396  0.1560 -0.1568
13960W        W57013   3.704   3.244  28.040 -0.4049  0.2659 -0.2059
13961W        W57014  11.465  21.640  28.529 -0.1317 -0.1935 -0.1472
13962W        W57015  16.956   9.466  29.001 -0.0693 -0.1660 -0.3451
13963W        W57016   4.830   5.073  28.808  0.0380 -0.1785  0.2035
13964W        W57017  11.534  21.187  23.059 -0.2708 -0.2003 -0.0926
13965W        W57018  27.793  20.914   1.855 -0.0590 -0.0175  0.0840
13966W        W57019   6.516  22.653  28.915  0.1349  0.0074  0.0066
13967W        W57020  11.006  20.785   1.892  0.1512 -0.2738 -0.0889
13968W        W57021  21.309   9.274  21.216 -0.2359 -0.0462  0.0345
13969W        W57022   3.766  34.377   6.120 -0.0083 -0.0535 -0.0026
13970W        W57023  30.065  33.651  25.743 -0.0167 -0.2070  0.0586
13971W        W57024  34.256  11.156  20.751 -0.1867 -0.5311  0.0755
13972W        W57025   2.516   0.638  23.196  0.0853 -0.0304  0.0938
13973W        W57026   1.217  14.076   6.594  0.1915 -0.1787 -0.2525
13974W        W57027  25.934  26.060  14.303  0.1239  0.2325  0.1812
13975W        W57028   6.248  29.941   7.617 -0.2530  0.1845 -0.2983
13976W        W57029   7.214   5.329   8.347 -0.2091 -0.1264  0.2535
13977W        W57030  28.690  19.430  17.574 -0.3804  0.0573 -0.0462
13978W        W57031   9.836  20.368   8.997 -0.0790 -0.3355  0.2818
13979W        W57032  13.717   8.926  17.136 -0.1140 -0.0315  0.1349
13980W        W57033  29.105  26.036  17.633  0.1329  0.2061 -0.1931
13981W        W57034  24.344  32.948  14.585 -0.1245 -0.0063  0.0278
13982W        W57035  28.900  30.196  23.742 -0.2222  0.0204 -0.0201
13983W        W57036   3.778   0.190   3.997  0.0811 -0.0432 -0.2356
13984W        W57037   5.676  20.242  19.879 -0.1335  0.4169 -0.1437
13985W        W57038   9.218  21.099  16.404 -0.2839 -0.0775  0.0798
13986W        W57039  30.930  26.923  24.527 -0.2165 -0.0540 -0.3219
13987W        W57040   4.833  12.775  25.191 -0.1768  0.0836 -0.0063
13988W        W57041   8.554  27.244  27.228 -0.0246 -0.2534 -0.3127
13989W        W57042   6.672  30.691  20.170  0.1130 -0.0450  0.1357
13990W        W57043  16.521  20.056   2.478  0.6650 -0.1836  0.2610
13991W        W57044  26.553  24.382  20.156 -0.3127 -0.3323 -0.1369
13992W        W57045   0.804  24.699  17.770 -0.0125 -0.1031 -0.0223
13993W        W57046  29.298  20.696  27.160 -0.4046  0.1032  0.0553
13994W        W57047  34.682  31.926  22.915  0.0209  0.0171  0.1114
13995W        W57048   2.241   2.792  25.334 -0.2707  0.1374  0.5381
13996W        W57049  16.946   3.155  25.913 -0.0192  0.1060  0.1320
13997W        W57050  32.786  32.771  14.423 -0.1731  0.2766  0.0034
13998W        W57051   3.987  21.617  18.048  0.0241  0.0116 -0.1427
13999W        W57052  11.033  24.234  17.651 -0.3214  0.2237 -0.1051
14000W        W57053  32.866  28.017  16.589 -0.0829 -0.0181 -0.2403
14001W        W57054  12.812  31.795  14.997 -0.1702  0.0278  0.0042
14002W        W57055  13.811  26.156  17.417  0.1194 -0.1746 -0.0376
14003W        W57056   6.936  32.827  17.039  0.0816  0.1974  0.2169
14004W        W57057   5.236  28.237  27.684  0.1060  0.1040 -0.2216
14005W        W57058  32.118  24.406  16.361  0.1795 -0.0096  0.0467
14006W        W57059  28.952   1.168  17.971 -0.2160  0.2292 -0.2365
14007W        W57060  31.444   4.310  20.606 -0.0756  0.1518 -0.0476
14008W        W57061   6.975  33.218  24.101 -0.3153  0.1184  0.2390
14009W        W57062   5.990  30.598  17.966 -0.1399 -0.1818  0.3554
14010W        W57063  31.617  25.160  14.937  0.0543 -0.0763 -0.3495
14011W        W57064   4.645  29.303  24.925 -0.0430 -0.0067  0.0310
14012W        W57065   3.044  27.177   4.905 -0.0507  0.0053 -0.1712
14013W        W57066  11.134  30.555  20.403  0.1738 -0.1240 -0.0329
14014W        W57067  21.816  22.467  21.843 -0.0039 -0.0181  0.1159
14015W        W57068   6.344  26.336  23.645  0.3075  0.0674 -0.0980
14016W        W57069   6.342  33.268  28.587 -0.0273 -0.1168 -0.1422
14017W        W57070   3.674  28.405  15.689  0.2071  0.2316  0.2555
14018W        W57071  28.987  30.394   0.263  0.0213  0.1055  0.0777
14019W        W57072  33.356   2.249  22.994  0.2494 -0.0092  0.0384
14020W        W57073   0.071  31.908  17.369  0.1323  0.0885 -0.2812
14021W        W57074  11.087  29.307  20.131 -0.1736 -0.1075  0.0136
14022W        W57075   1.362   8.773  17.840 -0.0342  0.1878  0.5015
14023W        W57076   2.734  23.139  20.266  0.0857 -0.0295 -0.1092
14024W        W57077  17.647   7.355  24.267  0.1640  0.3376 -0.0463
14025W        W57078  14.289  15.166  27.195  0.1162  0.1823 -0.1071
14026W        W57079   3.421  18.832  28.200  0.1213 -0.0206  0.2683
14027W        W57080  25.380  14.021  19.622 -0.1007  0.1593 -0.1345
14028W        W57081   6.081  31.546  25.301 -0.0364 -0.0951 -0.1885
14029W        W57082  32.108  25.382  21.093  0.1409  0.0338  0.0111
14030W        W57083   0.910  25.751  16.926  0.2968 -0.0208  0.2990
14031W        W57084  16.048  24.095  17.832  0.1733  0.0758  0.0201
14032W        W57085  31.535  34.022  24.166 -0.1533  0.4288  0.2969
14033W        W57086  28.701  20.331  17.873 -0.4012 -0.1262  0.2658
14034W        W57087  25.439   4.748  14.967 -0.0683 -0.0893  0.0528
14035W        W57088  15.156  22.476  14.237 -0.2475  0.2514  0.0524
14036W        W57089   5.430  29.111  22.690 -0.0644 -0.3595 -0.1509
14037W        W57090   2.703   8.926  18.354  0.0940  0.0358  0.2156
14038W        W57091  23.817   3.525  24.227 -0.2387  0.2181  0.3013
14039W        W57092   2.052  24.825  19.398 -0.1173  0.2651  0.2009
14040W        W57093  23.236   3.012  28.391 -0.0832 -0.0263  0.0329
14041W        W57094  16.299  11.188  22.421  0.0851 -0.1491 -0.2047
14042W        W57095  32.527  22.951  18.271 -0.0069  0.3164  0.0053
14043W        W57096  29.190  19.405  17.762 -0.1313 -0.3582 -0.0826
14044W        W57097   3.174   8.625  18.779 -0.1204 -0.2588 -0.0352
14045W        W57098  29.539  25.204  19.964  0.0941 -0.4494  0.0762
14046W        W57099  25.772  28.434  14.041 -0.3412  0.1982  0.2093
14047W        W57100   4.757  27.582  16.550  0.0749 -0.2344  0.2276
14048W        W57101   2.645  28.493  21.185 -0.1662  0.1493  0.0983
14049W        W57102  30.933  30.739  15.569 -0.0722 -0.3190 -0.1032
14050W        W57103  28.618  19.464  15.010 -0.1212 -0.3087 -0.2310
14051W        W57104   3.058  28.075  15.238 -0.2271  0.2085 -0.2000
14052W        W57105   4.096  31.021  14.571  0.0435 -0.1027  0.0958
14053W        W57106   6.767  25.481  27.248  0.0186  0.1644 -0.3964
14054W        W57107   4.059   9.742  25.269  0.0232 -0.0314 -0.3286
14055W        W57108   3.696  27.853  25.087 -0.1591  0.3099 -0.2354
14056W        W57109  28.136  18.155  14.997 -0.3875  0.0988 -0.2136
14057W        W57110  27.693  21.531  17.201 -0.1997 -0.4030  0.0523
14058W        W57111  33.716   0.344  17.681 -0.1086  0.1079 -0.0488
14059W        W57112  23.748  15.494  22.287 -0.0453  0.1704 -0.2098
14060W        W57113  21.776   7.301  16.765 -0.1880 -0.2525  0.1419
14061W        W57114  10.865  16.002  25.270  0.1617 -0.0487  0.1439
14062W        W57115  10.940  34.503  16.356  0.0256 -0.0343  0.0824
14063W        W57116  13.723  21.398  17.842  0.0328  0.0789  0.2105
14064W        W57117  14.465  15.804  22.838 -0.0928  0.2445  0.0492
14065W        W57118  15.116  31.827  20.704  0.1292  0.2015 -0.1124
14066W        W57119  13.176  18.274  22.238  0.1134 -0.0973  0.0406
14067W        W57120  14.109   3.120  22.155 -0.1965  0.0169  0.0785
14068W        W57121  28.431   8.971  23.903 -0.0377  0.1806  0.1823
14069W        W57122  30.746  33.690  16.911 -0.0247  0.0340  0.1419
14070W        W57123   1.548  25.131  19.013  0.1833 -0.2418  0.2828
14071W        W57124  34.058  21.045  26.493 -0.1197 -0.0229 -0.0586
14072W        W57125  19.939  25.862  28.904  0.0532  0.2607  0.2681
14073W        W57126  34.075  30.345  21.272  0.0771 -0.1301  0.0535
14074W        W57127  21.450  26.312  17.084  0.0596 -0.0969  0.1093
14075W        W57128   5.013  23.725  26.581 -0.1750 -0.1246 -0.0998
14076W        W57129   4.759  23.160  14.040  0.1135 -0.2058  0.1649
14077W        W57130  10.490  27.149  21.794  0.0846 -0.4171  0.0785
14078W        W57131  28.869  15.646  16.764 -0.0622  0.3795 -0.0845
14079W        W57132  18.318  23.510  21.659  0.0919  0.2052 -0.1477
14080W        W57133  10.286  22.018  14.515 -0.4662  0.1772 -0.0089
14081W        W57134  21.457   6.951  10.178 -0.0674 -0.0189  0.1675
14082W        W57135  33.835  27.033   1.472  0.1922  0.1498  0.2189
14083W        W57136   4.845   6.908  16.197 -0.4065 -0.1194 -0.4503
14084W        W57137  31.126  20.950  19.666 -0.1509 -0.1675 -0.0857
14085W        W57138  14.259   1.047  27.247 -0.0341  0.1920 -0.1985
14086W        W57139  23.458  32.148   6.080  0.1579 -0.0479  0.0779
14087W        W57140   6.277  28.993  25.014  0.0156  0.0693  0.2589
14088W        W57141   1.017  34.516  25.365 -0.2171 -0.1759 -0.1853
14089W        W57142  17.901   1.982  16.699 -0.3574  0.0593 -0.0175
14090W        W57143   9.823   0.246  23.574 -0.1822  0.3297 -0.0438
14091W        W57144  27.295  21.601  18.557  0.2552 -0.2123 -0.2294
14092W        W57145   7.015  29.466  14.417 -0.0345  0.1727  0.0995
14093W        W57146  24.027   1.919  15.814 -0.0250  0.1031  0.0240
14094W        W57147   7.831  31.866  17.851 -0.0956 -0.0188  0.1419
14095W        W57148  34.289  31.406  25.779  0.0212  0.0785 -0.1973
14096W        W57149   2.262  17.328  25.092 -0.1820  0.0145 -0.1275
14097W        W57150   3.770  21.918  18.379  0.3145 -0.1857 -0.2052
14098W        W57151  15.801  34.283  20.076 -0.1224 -0.1826  0.2552
14099W        W57152  27.469   7.470  24.915 -0.3808  0.2665 -0.0562
14100W        W57153  34.621   0.245  28.569 -0.0712 -0.2001 -0.0693
14101W        W57154  10.851  26.876  22.060  0.3307 -0.0767 -0.1968
14102W        W57155   4.177  12.985  19.389  0.0829 -0.1352 -0.1680
14103W        W57156  27.668  26.698  15.029  0.0209  0.1706  0.3546
14104W        W57157  12.330  32.428  15.063  0.3259  0.1546 -0.0373
14105W        W57158   3.711   4.294  21.457 -0.1542 -0.0497  0.0114
14106W        W57159  10.677  34.316  17.159 -0.2093  0.1266 -0.4086
14107W        W57160  16.694  13.103  14.459  0.0775  0.2064  0.0479
14108W        W57161  33.718  31.368  20.206  0.1565 -0.1550 -0.2700
14109W        W57162  25.974  30.389  24.402 -0.1228  0.2148  0.2552
14110W        W57163   1.754  34.515  17.009  0.1358  0.0405  0.0282
14111W        W57164  28.237  17.353  14.854  0.1896  0.2172 -0.2604
14112W        W57165   0.182  18.042  18.910  0.2354  0.3428  0.1657
14113W        W57166   4.319  24.275  28.668  0.0059  0.1144  0.0899
14114W        W57167  11.292  28.646  16.664  0.2054  0.0441 -0.0764
14115W        W57168   7.380  22.836  24.114 -0.1459 -0.0080  0.1378
14116W        W57169  28.394   5.005  25.403  0.0350  0.0796 -0.1096
14117W        W57170   5.962  33.605  20.058  0.1383  0.0342  0.1979
14118W        W57171   1.840  18.040  14.026 -0.1818  0.1513  0.2020
14119W        W57172  22.707  32.113  20.699 -0.1980 -0.0694  0.0954
14120W        W57173   8.903   5.640  25.741  0.4768  0.2754 -0.3455
14121W        W57174  10.725   2.921  23.772  0.0676  0.2532  0.1552
14122W        W57175  31.920  22.061  23.890 -0.4209 -0.1329  0.0247
14123W        W57176   4.381  16.777  15.777  0.0361  0.4714  0.2913
14124W        W57177  32.758  15.537  25.455 -0.2931 -0.0080  0.0526
14125W        W57178  30.570  28.120  17.969 -0.3454 -0.1974  0.2763
14126W        W57179  28.235   9.486  21.046 -0.0656 -0.4634 -0.0682
14127W        W57180   7.692  12.521  27.723  0.0219 -0.2410  0.0124
14128W        W57181  31.455  25.852  20.120  0.2778  0.2884 -0.1684
14129W        W57182  13.420  11.387  20.696  0.2541 -0.1746 -0.0465
14130W        W57183   9.298   0.519  20.372 -0.1597  0.0293 -0.0017
14131W        W57184  30.007  34.402  20.176 -0.2031  0.0893  0.2494
14132W        W57185  32.555  13.479  24.590 -0.1516  0.1739  0.0113
14133W        W57186  17.266  33.271  23.099 -0.1965  0.1117  0.2028
14134W        W57187  27.235  20.095  18.276  0.0411 -0.1067 -0.1493
14135W        W57188   0.541  27.381  20.009  0.1789 -0.0648  0.2883
14136W        W57189   1.519  22.038   0.250  0.1498  0.0727  0.1046
14137W        W57190  29.158  19.569  22.883 -0.1583 -0.0776  0.0683
14138W        W57191  26.587   2.271  17.335 -0.0597  0.0590 -0.0584
14139W        W57192   0.284   8.398  27.283  0.1484  0.3115  0.1860
14140W        W57193  12.404  21.130  17.364  0.0333  0.0116  0.2014
14141W        W57194  31.454  18.933  21.216  0.0380  0.2009 -0.2270
14142W        W57195  28.397   0.912   4.361 -0.0370 -0.1047  0.0422
14143W        W57196  19.895  24.590  23.232 -0.5021 -0.3238 -0.0190
14144W        W57197   4.142  14.319  17.740 -0.0222 -0.0377 -0.0540
14145W        W57198  15.584  25.783  27.936 -0.0749  0.4090  0.3023
14146W        W57199  12.559   0.080  19.866 -0.0867 -0.2250 -0.2398
14147W        W57200  15.753  24.922  21.001 -0.1441  0.3460 -0.0412
14148W        W57201  19.544  13.880  20.477  0.5164 -0.1530  0.2473
14149W        W57202   4.869  28.106  15.870 -0.1193  0.1804 -0.1571
14150W        W57203   3.027  24.416  21.816  0.3520  0.0076 -0.1692
14151W        W57204   7.207   2.392  28.250 -0.1157  0.0453  0.1266
14152W        W57205  27.752  31.460  23.826 -0.1220  0.2195  0.0401
14153W        W57206  20.069   5.514  23.823 -0.0070 -0.1680 -0.0348
14154W        W57207  30.316  22.491  25.807 -0.0977  0.0069 -0.2547
14155W        W57208  24.361  26.681  13.988 -0.1465 -0.1505 -0.1204
14156W        W57209  27.055  14.963  16.347 -0.0090 -0.0992  0.1195
14157W        W57210  21.248   6.807  26.756  0.3278 -0.4444 -0.0831
14158W        W57211  33.732  19.483  23.752 -0.0076  0.3912  0.1009
14159W        W57212  17.527  30.339  14.769 -0.0176 -0.1054 -0.2322
14160W        W57213   0.929  19.544  14.604  0.0817  0.0616 -0.0431
14161W        W57214  33.055  12.185  15.113 -0.0541 -0.1225 -0.0203
14162W        W57215  33.942   6.851  24.076  0.1434  0.0676 -0.2847
14163W        W57216  12.109  22.110   6.721 -0.1477 -0.1832  0.1818
14164W        W57217  23.694  33.351  24.296 -0.1961  0.0070  0.1690
14165W        W57218   8.058  25.145  17.944  0.3462  0.2738 -0.1850
14166W        W57219   2.262   1.985  16.634 -0.1763  0.0504 -0.0191
14167W        W57220  30.850  23.855  22.123  0.1478  0.3696  0.2244
14168W        W57221  27.259   9.947  25.993 -0.1707  0.1798 -0.1588
14169W        W57222  20.821  24.617  19.604 -0.1145 -0.0198  0.1615
14170W        W57223   0.202   2.824   1.887 -0.1839  0.1200  0.0884
14171W        W57224  33.909   9.788  17.560 -0.0173  0.2595 -0.1396
14172W        W57225  26.933   0.904   7.701 -0.0858 -0.1402  0.2297
14173W        W57226  30.432  31.042  18.726 -0.0283 -0.2017 -0.0225
14174W        W57227   2.006  26.948  14.867  0.0131  0.3787  0.0140
14175W        W57228  10.190  24.815  18.946 -0.1142 -0.4477  0.0334
14176W        W57229  24.520  23.812  16.755 -0.1688 -0.1002  0.0864
14177W        W57230  26.934  20.094  24.042 -0.1546  0.0214 -0.0526
14178W        W57231  11.311  17.832  15.454 -0.2027 -0.3823  0.0434
14179W        W57232  30.451  24.822  18.200 -0.1297 -0.1008  0.0786
14180W        W57233  30.560  29.614  17.965 -0.1671  0.0136  0.1970
14181W        W57234   0.578   8.326  22.777 -0.2375 -0.0722  0.3765
14182W        W57235   1.233  15.974  24.042 -0.1432 -0.3506  0.0610
14183W        W57236  17.863   9.284  19.553 -0.2432  0.1126  0.0833
14184W        W57237   9.168  13.094  16.499  0.0714 -0.4768 -0.2606
14185W        W57238   8.004  18.334  13.321  0.1581 -0.0812  0.1346
14186W        W57239   3.971   9.173  15.787 -0.2108 -0.1633  0.3883
14187W        W57240   5.213  19.459  28.236  0.3299 -0.0489 -0.5581
14188W        W57241  30.908  16.937  17.377 -0.0606  0.0134 -0.1747
14189W        W57242  28.154   1.810  14.678  0.2964  0.0845 -0.1380
14190W        W57243  33.211  26.789  25.014  0.1761 -0.1758 -0.0122
14191W        W57244   7.404  19.306  24.843  0.2374  0.1462 -0.2593
14192W        W57245   9.335  33.760   0.765  0.0832 -0.1395 -0.2690
14193W        W57246  32.651  11.749  25.265 -0.1801 -0.2199  0.0847
14194W        W57247  24.221  10.403  18.686  0.1238  0.3039  0.0109
14195W        W57248   9.147  23.557  16.844  0.1284 -0.2415 -0.2064
14196W        W57249  26.726  31.899  28.894  0.0954  0.0888  0.0238
14197W        W57250   3.147  30.049  27.802  0.1628 -0.3659  0.2348
14198W        W57251  13.688  31.213  22.954  0.2700 -0.0510 -0.0783
14199W        W57252  10.066  25.341  26.067 -0.1342  0.1899 -0.0748
14200W        W57253   1.016  22.971  16.470 -0.1580 -0.0263  0.0779
14201W        W57254   9.844  15.225  16.742  0.1615 -0.2425 -0.1393
14202W        W57255   5.311   7.726  19.974 -0.0268  0.2076  0.0230
14203W        W57256  16.515  32.466  18.757  0.2542  0.0130 -0.2106
14204W        W57257  12.750  19.686  23.146  0.1735  0.1477  0.5395
14205W        W57258   4.585  18.016  18.062 -0.1312  0.3177  0.2312
14206W        W57259  27.310  26.306  19.459 -0.2712 -0.0497 -0.0491
14207W        W57260   0.378  25.611  22.772 -0.0053 -0.1555  0.2169
14208W        W57261  27.289   0.470  17.553 -0.4324 -0.1754  0.0344
14209W        W57262   9.042  24.094  22.801 -0.2090  0.0723  0.0546
14210W        W57263  14.223  21.665  15.862  0.1140 -0.1009  0.1346
14211W        W57264  13.639  22.166   5.117  0.0803 -0.0270  0.1658
14212W        W57265  24.486  23.734  14.074 -0.0491 -0.1822 -0.1091
14213W        W57266  14.583  24.992  22.036 -0.1440  0.0207  0.2450
14214W        W57267  31.340  32.087  15.457  0.2893  0.1003  0.0052
14215W        W57268   3.472   1.216  24.675 -0.0011  0.1138 -0.4379
14216W        W57269  12.946  20.451  22.380 -0.2336  0.1061  0.2460
14217W        W57270   1.822  19.875  17.005  0.1598 -0.0647 -0.2612
14218W        W57271   0.330   4.062  25.193  0.1364 -0.3255  0.1045
14219W        W57272  32.389  31.328  21.139 -0.1252 -0.2249 -0.4145
14220W        W57273  28.227  16.008  22.709 -0.4095  0.0861 -0.0926
14221W        W57274  24.807  26.429  18.014  0.0979  0.0560 -0.2062
14222W        W57275  23.955  27.786  27.932  0.1523 -0.2256 -0.0051
14223W        W57276   3.543  28.092  15.107  0.2096 -0.3267 -0.0688
14224W        W57277   6.319  21.181  17.966  0.0464  0.3857  0.0223
14225W        W57278  29.802  22.390  20.120 -0.0527  0.2952 -0.0544
14226W        W57279  18.277  21.120  16.989 -0.0192  0.0002 -0.0240
14227W        W57280  11.519   4.564  18.252  0.0713  0.1221 -0.0593
14228W        W57281  22.366  14.284   7.707  0.0174 -0.0427 -0.0211
14229W        W57282   0.616  32.809  18.322 -0.2648 -0.1307  0.3919
14230W        W57283  10.302  26.452  23.479 -0.0453  0.1287 -0.0855
14231W        W57284   5.199  28.689  27.530  0.0229 -0.0373  0.4133
14232W        W57285  26.877  29.966   2.717 -0.2131  0.0620  0.0653
14233W        W57286   5.616   3.721  24.472  0.1395 -0.0424  0.5053
14234W        W57287   7.845  24.718  23.617  0.1993 -0.0694  0.0781
14235W        W57288   1.573   1.588  17.712 -0.1886  0.2027  0.0750
14236W        W57289  30.239  24.691  14.738 -0.0855  0.1661 -0.0345
14237W        W57290  30.477   8.814   8.172  0.0889 -0.1249  0.3581
14238W        W57291  19.510  13.245  14.524  0.2085 -0.3129 -0.0564
14239W        W57292  34.624  30.936  22.371  0.1173 -0.2656 -0.0898
14240W        W57293   4.987  27.035  17.257  0.1000  0.0080  0.0143
14241W        W57294  18.475  31.382  28.241  0.1178 -0.0796 -0.0153
14242W        W57295   5.446  28.600  14.368  0.0244  0.0363  0.2890
14243W        W57296  34.357  27.952  17.128  0.2099  0.0972 -0.2328
14244W        W57297   1.153  21.265  24.767 -0.1541 -0.0450  0.0758
14245W        W57298  32.942  26.757  19.679 -0.0795 -0.3071 -0.1206
14246W        W57299  31.086  19.531  19.797 -0.3046 -0.1213  0.1747
14247W        W57300  29.756  10.053  17.477  0.2339  0.2092  0.0137
14248W        W57301  26.537  22.002   1.214 -0.0509 -0.1072  0.2756
14249W        W57302   6.808  29.745  16.641 -0.2841  0.2542  0.1117
14250W        W57303   1.490   8.207  16.051  0.3930 -0.1073  0.1262
14251W        W57304   5.583  25.241  24.200 -0.0872  0.1174  0.0163
14252W        W57305   1.360   2.205  26.020  0.0013  0.0324 -0.1037
14253W        W57306  12.408  15.850  18.609  0.0636 -0.1779 -0.2205
14254W        W57307  15.031  31.131  24.454  0.1285  0.0271 -0.4038
14255W        W57308  34.055  19.920  20.347  0.0128 -0.0069 -0.2741
14256W        W57309   6.323  32.056  16.611 -0.1649 -0.0045  0.0642
14257W        W57310   3.821  17.692  19.248 -0.0312 -0.1022 -0.1755
14258W        W57311  31.364   3.984  15.685 -0.1091 -0.3312 -0.1439
14259W        W57312  20.945  23.419  21.433  0.0530 -0.1150  0.3114
14260W        W57313   0.497  22.430  21.841  0.3497  0.0964  0.1686
14261W        W57314   1.212   5.704  15.010 -0.0742 -0.0627  0.0055
14262W        W57315   7.479  19.396  23.253 -0.1001 -0.0055 -0.1735
14263W        W57316  28.320  22.220  14.770 -0.2697  0.0378  0.1670
14264W        W57317   9.090  14.302  16.898  0.0588 -0.5507  0.0734
14265W        W57318   5.147  18.533  15.874 -0.3429  0.1116 -0.1502
14266W        W57319  34.204  30.270   4.806 -0.0621 -0.0418 -0.3318
14267W        W57320  31.204  15.920  13.507  0.0310 -0.0247  0.1375
14268W        W57321   0.716  19.803  26.804 -0.0502  0.2833  0.2645
14269W        W57322   2.966  22.041  25.943  0.1224 -0.1724 -0.0516
14270W        W57323   7.348  26.804  22.313  0.0276  0.1164 -0.0586
14271W        W57324  21.781  20.337  19.625  0.0727  0.2690  0.0626
14272W        W57325  10.246   1.455  19.105 -0.2192 -0.0703  0.2567
14273W        W57326   9.311  19.482  15.502 -0.2788  0.0234  0.3080
14274W        W57327   2.741  16.092  22.222  0.2977  0.0435  0.0486
14275W        W57328   0.848   8.252   1.803  0.1154  0.3317 -0.2462
14276W        W57329   1.071  19.269  15.008 -0.1493  0.1116  0.0918
14277W        W57330   4.841  24.594   0.020 -0.0148 -0.0649  0.6236
14278W        W57331   5.681   4.848  17.596 -0.0251  0.0359  0.1752
14279W        W57332  27.805  29.012  18.167  0.0097  0.1918 -0.2278
14280W        W57333  34.286  21.614  22.307  0.2638  0.1669  0.2745
14281W        W57334   2.309  15.879   1.777 -0.0144 -0.0171  0.1422
14282W        W57335  23.210  17.119  21.164 -0.2790 -0.2087  0.1421
14283W        W57336  28.450  24.326  20.591 -0.3763  0.1757 -0.0073
14284W        W57337   7.701  25.320  14.911 -0.2460 -0.2962 -0.0676
14285W        W57338  22.686  26.241   9.334  0.0666 -0.0558  0.0571
14286W        W57339   4.357   0.255  18.732 -0.0450 -0.0593  0.1216
14287W        W57340   1.131  25.046  17.547  0.1227  0.1462 -0.0263
14288W        W57341  17.016  13.176  25.816  0.0323  0.0859  0.0063
14289W        W57342   7.322   3.328  21.967  0.0765 -0.3572  0.1229
14290W        W57343   1.773  22.301  15.598 -0.0829  0.1669 -0.4529
14291W        W57344  13.858   5.479  15.011 -0.0624 -0.2055 -0.1660
14292W        W57345   7.054  19.307  15.507 -0.0124 -0.2759  0.2188
14293W        W57346   3.567  28.677   2.834  0.2466  0.1512 -0.1087
14294W        W57347  21.751  26.107  19.315  0.0954  0.1789  0.0204
14295W        W57348   3.887  18.683  14.569 -0.0568  0.1585  0.1557
14296W        W57349  12.122  12.874  20.631  0.3010  0.0145  0.0411
14297W        W57350  31.352   8.641  26.067 -0.2037 -0.2257  0.0782
14298W        W57351  19.308  29.838  15.429 -0.0796  0.0673  0.0600
14299W        W57352  27.870  34.673  27.730 -0.0979 -0.0183 -0.1221
14300W        W57353  30.862  34.183  19.511 -0.2149 -0.1371 -0.0054
14301W        W57354  32.939  22.945  21.393  0.2189  0.1011 -0.0997
14302W        W57355   7.250  22.483  21.481  0.2725 -0.1356  0.0146
14303W        W57356  24.731  28.309  25.214 -0.0669 -0.0158  0.0325
14304W        W57357  32.944   8.130  20.751 -0.2953  0.0420  0.3696
14305W        W57358   3.658  11.595   0.417 -0.1477  0.1915  0.3334
14306W        W57359   0.851  24.453  13.978 -0.1481  0.1444 -0.1493
14307W        W57360  30.485  19.291  18.660 -0.2559  0.0298  0.1422
14308W        W57361  21.987  26.364  17.815 -0.0680 -0.1574  0.0829
14309W        W57362   4.200  33.388  20.263 -0.1533  0.1508 -0.1578
14310W        W57363  33.914  28.580  15.602  0.0892  0.1873  0.0123
14311W        W57364  29.119  32.878   8.200  0.1492 -0.0473 -0.2054
14312W        W57365  26.590   7.667  28.530  0.0415 -0.0224  0.0959
14313W        W57366  11.083  16.849  16.558 -0.0043 -0.0874  0.5643
14314W        W57367  23.327  33.444  20.618  0.0234 -0.1252 -0.0164
14315W        W57368  34.059   0.772  22.595  0.2579 -0.2043  0.2032
14316W        W57369   7.669  28.269  20.852  0.1073  0.0153 -0.0521
14317W        W57370   3.553   1.170  17.427 -0.1022 -0.0011  0.2812
14318W        W57371   6.820   5.260   8.082 -0.1392  0.2804 -0.0715
14319W        W57372  17.464   3.647  21.522  0.1296  0.0728 -0.0819
14320W        W57373  29.200  14.559  19.934  0.0095 -0.1516  0.2210
14321W        W57374  22.177  28.262  14.992 -0.1160 -0.1121  0.0072
14322W        W57375   5.857   0.865  19.119 -0.1396  0.0024 -0.0072
14323W        W57376  33.576  18.042  22.376  0.3097 -0.0690 -0.3868
14324W        W57377   5.872   2.378  22.179 -0.2354  0.0386  0.3001
14325W        W57378   3.720  29.101  16.466 -0.1214  0.1850  0.1020
14326W        W57379  27.713   1.518  24.000 -0.1696 -0.1037  0.0234
14327W        W57380  14.425  21.815  25.515 -0.0543  0.2528 -0.1470
14328W        W57381  10.710  30.301  16.146  0.0887 -0.3534 -0.1437
14329W        W57382   0.668  28.394  14.375 -0.0177 -0.1196  0.2502
14330W        W57383  16.119  30.410  17.119  0.1509 -0.3438 -0.0430
14331W        W57384   1.820  25.010  21.974  0.1128 -0.1103  0.1258
14332W        W57385  18.443  18.820  24.145  0.0347 -0.2383  0.0454
14333W        W57386  19.814  21.506  25.870  0.0653 -0.0186  0.3707
14334W        W57387  16.264  23.623  21.985  0.0812  0.2672 -0.2192
14335W        W57388  14.003   7.380  27.554  0.0488  0.1389  0.2012
14336W        W57389   4.757   5.508  20.356  0.3457  0.3294 -0.0787
14337W        W57390   3.190  18.851  27.262  0.2570  0.1945 -0.3613
14338W        W57391  11.142  24.312  23.920  0.1587 -0.1428 -0.2180
14339W        W57392   3.932  18.208  21.650  0.0248  0.2975  0.2567
14340W        W57393   1.868  19.473  18.948 -0.2002  0.1207 -0.2338
14341W        W57394   0.060   3.574  23.839  0.1307 -0.1729  0.1114
14342W        W57395   6.265  33.230  22.317 -0.2322  0.1873  0.0057
14343W        W57396  14.857  20.792  20.020 -0.0354 -0.3950  0.0412
14344W        W57397   7.427   0.231  18.642  0.1487  0.2325  0.0554
14345W        W57398   6.605   4.578  17.906 -0.0829 -0.0391  0.2475
14346W        W57399  31.940  14.819  14.931 -0.1940 -0.2760  0.1596
14347W        W57400   6.537   4.551  19.298  0.0792 -0.0865 -0.2612
14348W        W57401  34.600  29.323  16.626  0.1310  0.1321 -0.1331
14349W        W57402  27.318   8.777   6.576 -0.0761  0.3040  0.3262
14350W        W57403  20.942   0.362  14.578 -0.2022 -0.1358  0.3199
14351W        W57404   6.249  32.087  25.077  0.2837  0.1944 -0.0460
14352W        W57405   9.897   4.739   3.630 -0.4004 -0.2164 -0.0863
14353W        W57406   5.395  28.662   5.535 -0.0510  0.1303  0.0287
14354W        W57407   1.456  33.740  17.016 -0.0947 -0.1909 -0.1937
14355W        W57408   3.953  27.858  23.868 -0.4218 -0.2060  0.0384
14356W        W57409  23.708  23.514   8.420 -0.5276 -0.0421  0.1338
14357W        W57410   0.733  20.871  14.084  0.0265 -0.0717 -0.2918
14358W        W57411   1.947  25.610  27.719 -0.0718 -0.1391 -0.0846
14359W        W57412   2.433  24.480  20.639 -0.2302  0.0888 -0.0631
14360W        W57413   4.758  31.766  20.112 -0.4494  0.4596  0.1132
14361W        W57414   7.498  29.399  20.481 -0.0272 -0.0257  0.1806
14362W        W57415  16.935  22.132  20.434  0.0196  0.1583 -0.0033
14363W        W57416  15.376  31.251  27.617 -0.0431  0.0259  0.0072
14364W        W57417  24.419  11.461  28.284  0.0163 -0.0686 -0.1412
14365W        W57418  26.395  21.439  18.980 -0.2783  0.0948  0.2234
14366W        W57419  13.237  32.716  13.854  0.2189 -0.1153 -0.0998
14367W        W57420  33.893  17.147  23.540  0.0479  0.1781 -0.1310
14368W        W57421   5.892  17.513  16.481 -0.0194 -0.3906 -0.2376
14369W        W57422  27.300  16.963   2.742 -0.1623  0.0468  0.0393
14370W        W57423   2.552  26.225  27.875 -0.2955  0.0541 -0.0184
14371W        W57424   0.554  24.076  26.385  0.0854  0.0169 -0.1377
14372W        W57425  31.358  24.116  14.291 -0.0698  0.0173  0.0171
14373W        W57426  27.580   2.260  21.135 -0.0496  0.3212 -0.0015
14374W        W57427  33.801  28.997  14.655 -0.1523  0.1247  0.1431
14375W        W57428  26.741  31.609  17.969  0.0508  0.2664 -0.4389
14376W        W57429   5.113  26.293  17.031  0.1038  0.1805  0.4354
14377W        W57430   1.725  18.783  23.727 -0.3051 -0.0657  0.0908
14378W        W57431  29.043   6.818  18.015 -0.1803 -0.1673  0.0070
14379W        W57432  10.849  29.307  22.679 -0.3642  0.0046 -0.1458
14380W        W57433  30.987  26.232   4.804  0.1315 -0.2802 -0.0946
14381W        W57434  12.338   1.960  18.821  0.0598  0.0088 -0.2901
14382W        W57435   8.445  19.137   2.789  0.3921 -0.1536 -0.3237
14383W        W57436   5.783  10.304  17.860 -0.3092 -0.2295  0.1423
14384W        W57437  27.820  11.774  15.259 -0.5091 -0.0494 -0.0667
14385W        W57438  23.023  25.462  19.939 -0.0418 -0.1775 -0.0392
14386W        W57439  27.887  24.580  19.824 -0.0119 -0.1295 -0.5672
14387W        W57440   4.912  27.933  16.841  0.0272  0.0337 -0.1582
14388W        W57441  27.352  25.069  16.371  0.1274  0.2536  0.1954
14389W        W57442   4.124  31.014  19.741 -0.1605  0.2073  0.2019
14390W        W57443   2.092  16.700   4.733 -0.3956  0.2152  0.0204
14391W        W57444   4.979  20.529  17.231 -0.1034  0.1158 -0.0447
14392W        W57445  11.035   2.120  18.453  0.3701 -0.1322  0.4412
14393W        W57446  30.042  27.166  24.412  0.1522  0.3952 -0.0667
14394W        W57447  33.359  18.291  28.563  0.2522  0.2073 -0.2121
14395W        W57448   4.896  22.084  20.809  0.1134  0.1348 -0.2231
14396W        W57449  31.022  10.156   6.155  0.0228 -0.0516  0.0607
14397W        W57450  18.569  32.913  17.779 -0.0750  0.1916 -0.1247
14398W        W57451  31.859  15.995  17.231 -0.0662 -0.2265  0.0037
14399W        W57452   0.213  28.165  17.299 -0.1515  0.2473  0.0438
14400W        W57453   0.211  29.510  18.548 -0.1055  0.3638 -0.1086
14401W        W57454  27.462  24.801  21.153  0.0195  0.0628 -0.0976
14402W        W57455  19.493  27.043  27.653 -0.2624 -0.4490 -0.1298
14403W        W57456  27.562  25.372  16.085  0.2007 -0.1860 -0.0907
14404W        W57457  32.528   1.186  13.381  0.1475 -0.2442 -0.4418
14405W        W57458   3.757  27.305  21.318  0.0689  0.3066 -0.1640
14406W        W57459  24.001   5.558   8.604 -0.2115 -0.2638 -0.1681
14407W        W57460  11.708  10.511   2.823 -0.0713 -0.2056  0.1265
14408W        W57461   4.491  20.937  18.436  0.0850 -0.1598 -0.2860
14409W        W57462  34.348  24.963  16.543  0.0677  0.1082  0.0728
14410W        W57463  19.236  34.218  24.974 -0.0261 -0.2853  0.1065
14411W        W57464  25.162  29.718  21.287  0.2176  0.1383 -0.0827
14412W        W57465   0.479  22.380  15.091 -0.1258  0.1207 -0.0389
14413W        W57466  32.935  23.147   0.078  0.1391  0.1292 -0.0179
14414W        W57467  26.897  14.711  26.585  0.0700 -0.1750 -0.1780
14415W        W57468   0.418   9.164  21.476 -0.0537 -0.1963  0.1761
14416W        W57469   2.959  25.677   6.742  0.1113  0.1393 -0.0879
14417W        W57470   0.388  21.565  27.360  0.1591 -0.1168  0.0120
14418W        W57471   2.574  26.342  23.509  0.1662  0.0817 -0.0000
14419W        W57472  34.152  26.682  16.561  0.0671 -0.3003 -0.1857
14420W        W57473  16.424  23.085  24.994  0.1771  0.0772  0.0417
14421W        W57474   3.682  21.402  18.454 -0.0775  0.1367  0.3538
14422W        W57475  21.307  19.819  22.578  0.2651  0.1075 -0.0067
14423W        W57476   0.037   2.618  17.721 -0.3785 -0.0442  0.1373
14424W        W57477  34.317  17.895   4.957  0.1672 -0.3557  0.0286
14425W        W57478   6.419  33.907  17.677  0.0005 -0.3697 -0.1944
14426W        W57479  32.032   4.298  22.289  0.1418 -0.6230  0.1559
14427W        W57480  30.695  14.724  18.981  0.0497 -0.0137 -0.1727
14428W        W57481  27.920   0.443  20.566 -0.0926 -0.0819 -0.0946
14429W        W57482  30.881  25.538   1.591  0.4090 -0.1413  0.1465
14430W        W57483   6.576  32.247  17.267 -0.0921 -0.0938  0.0256
14431W        W57484   4.621  34.438  26.216  0.0870 -0.0787  0.0434
14432W        W57485   2.688  31.127   4.428 -0.0788 -0.2241  0.0201
14433W        W57486  18.508   9.801  24.194 -0.2973  0.3451 -0.1785
14434W        W57487   8.356  33.107  23.402 -0.4049 -0.1146 -0.0919
14435W        W57488   0.762  15.247  16.997  0.2223 -0.1297 -0.3533
14436W        W57489   3.363  21.814  19.816 -0.2378 -0.0830 -0.0044
14437W        W57490  12.040   6.221  15.695 -0.1454  0.1555 -0.0961
14438W        W57491   8.154  33.852  28.117  0.1115  0.0545 -0.0545
14439W        W57492  10.383  10.456  25.380 -0.0642 -0.2512 -0.1932
14440W        W57493  33.108  24.674  16.901  0.0473  0.2441  0.1059
14441W        W57494   8.723  27.110  29.115  0.0516  0.1708 -0.0007
14442W        W57495  27.780  32.399   9.547  0.0396 -0.0254 -0.2339
14443W        W57496   5.273  25.912  14.482  0.0270  0.3700 -0.0751
14444W        W57497   9.110   4.224  18.414 -0.1176  0.2363 -0.0192
14445W        W57498  20.955  31.429  22.325  0.2128 -0.0397 -0.2105
14446W        W57499   2.294  27.462  13.712  0.2669 -0.1424 -0.0236
14447W        W57500   6.477   1.861  28.822  0.1496  0.2902  0.0607
14448W        W57501  32.194  22.973  18.783 -0.2020  0.3782 -0.1313
14449W        W57502  12.677  34.371  29.058 -0.2464 -0.3553  0.1931
14450W        W57503  33.455  21.628  17.639 -0.3859 -0.1568  0.2064
14451W        W57504  14.105   6.262   4.758 -0.0923  0.4324  0.0444
14452W        W57505  30.841   0.555  14.181 -0.0168  0.0115 -0.2281
14453W        W57506  33.424  32.020  14.978 -0.0690 -0.0690 -0.1494
14454W        W57507  16.487   4.659  17.223 -0.1019 -0.1690  0.1796
14455W        W57508  30.647  33.791  20.694 -0.1473  0.0415 -0.0320
14456W        W57509   0.097  18.115   3.149  0.0654  0.1254  0.3219
14457W        W57510  34.075   6.772  18.953 -0.0314 -0.0375  0.1153
14458W        W57511  26.708  24.814  19.498  0.1543  0.2190 -0.0299
14459W        W57512  17.021  24.556  22.080  0.1363  0.5367  0.0889
14460W        W57513   3.030  18.118  18.243 -0.1302  0.3284  0.0118
14461W        W57514  23.159  29.014  20.851  0.4496 -0.3622  0.0955
14462W        W57515   0.166  17.863  24.999 -0.0175 -0.0556 -0.2180
14463W        W57516  34.226   0.417  16.540 -0.4339  0.0267 -0.1813
14464W        W57517  21.020   3.109  21.568  0.1253 -0.0305 -0.2601
14465W        W57518   3.673  21.204   3.752 -0.0538  0.2435  0.0844
14466W        W57519  28.617  32.621  17.672 -0.3631 -0.0260 -0.1626
14467W        W57520   0.077  27.827  18.588 -0.0180  0.0724 -0.0729
14468W        W57521  11.632  34.431  24.955  0.0081 -0.3347  0.0490
14469W        W57522   3.591  27.850  28.028 -0.1035 -0.1337 -0.1075
14470W        W57523   2.206  32.945   5.775  0.0854  0.1414 -0.0292
14471W        W57524  14.644  33.880  19.404 -0.1248  0.1237  0.0625
14472W        W57525  16.525  20.676  16.639 -0.3107 -0.2500 -0.1735
14473W        W57526   1.141  23.052  15.134 -0.0026  0.2032  0.1228
14474W        W57527  31.975  27.179  16.329  0.2559 -0.2266 -0.2613
14475W        W57528   0.277  19.082   3.229 -0.5314 -0.0515 -0.3614
14476W        W57529   4.827  18.987  19.149  0.4316 -0.0332 -0.1922
14477W        W57530   9.585  33.325  18.677 -0.0604  0.2262  0.3846
14478W        W57531   4.881  17.837  15.374 -0.1741  0.0082 -0.0219
14479W        W57532  33.050  22.050  24.046  0.1878  0.2127  0.4000
14480W        W57533   3.791   6.745   3.186  0.1556  0.0536 -0.2235
14481W        W57534  30.510  19.695   2.203  0.0068 -0.0392 -0.1838
14482W        W57535  33.291   1.115  23.118 -0.1158 -0.1718  0.2225
14483W        W57536   4.168  33.335  17.283  0.5494 -0.2044  0.0435
14484W        W57537   3.838  16.446  26.252  0.0084  0.4652  0.1128
14485W        W57538  34.321  13.234  26.697  0.2331 -0.2216 -0.0650
14486W        W57539  34.544  23.206  24.384 -0.0296 -0.2070  0.0942
14487W        W57540  27.809  26.735  28.551  0.0557  0.1471  0.0253
14488W        W57541  33.486  19.874  18.138  0.4315  0.0489 -0.0136
14489W        W57542   3.037  26.349  13.940 -0.0987 -0.1610  0.1137
14490W        W57543  31.217  13.990   0.882  0.3808 -0.0162  0.0007
14491W        W57544  11.468  27.847  22.437 -0.0358  0.0358 -0.0321
14492W        W57545  15.229  33.224  24.856  0.0543  0.0765  0.1313
14493W        W57546  16.629  24.843   9.138  0.3439 -0.2630  0.0821
14494W        W57547  18.404  21.186  24.781 -0.3893  0.3378 -0.1886
14495W        W57548  33.988  26.733  24.264  0.3064 -0.0593  0.1182
14496W        W57549   7.623  27.946  20.369  0.0464  0.5427 -0.0982
14497W        W57550   3.033  13.262  16.078  0.2665 -0.1465 -0.3730
14498W        W57551  26.573  22.609  14.156 -0.0147 -0.3088 -0.0119
14499W        W57552  30.381  12.018  18.217 -0.0164  0.2376 -0.0451
14500W        W57553  24.672  28.552  18.570 -0.0557  0.0414 -0.0255
14501W        W57554  19.092  24.056  17.826  0.0207 -0.1364  0.2859
14502W        W57555  29.820  25.333  14.558 -0.0225 -0.0780  0.2018
14503W        W57556  14.846  29.231  26.093  0.1663  0.1220 -0.0479
14504W        W57557   0.007  24.563  17.950  0.1861 -0.1378 -0.3347
14505W        W57558  11.346  32.895  18.470  0.3108  0.0095 -0.0796
14506W        W57559  34.559  22.576  20.111 -0.1472 -0.1784  0.0272
14507W        W57560  18.818   8.049  18.355 -0.2551 -0.0748 -0.0794
14508W        W57561  10.752  27.760   2.248  0.3404 -0.0638  0.0336
14509W        W57562  22.502  15.609  20.688  0.0138  0.3026  0.0252
14510W        W57563  26.883  32.367   2.413 -0.0603 -0.1333 -0.2207
14511W        W57564  19.952  29.231  19.630  0.1081 -0.0101 -0.2179
14512W        W57565   2.915  25.609  21.477 -0.1776  0.1339  0.1116
14513W        W57566   2.640   6.812  17.516 -0.1056 -0.3675 -0.2624
14514W        W57567  18.518  15.463  13.461  0.0031  0.2193 -0.1024
14515W        W57568  10.592  28.135  19.322  0.0051 -0.0502  0.0258
14516W        W57569  25.875  11.860   7.007 -0.0101 -0.0540 -0.0497
14517W        W57570  21.933  22.797  22.866  0.2830  0.2807 -0.2584
14518W        W57571  30.339  18.595  13.850 -0.1833  0.0378 -0.0836
14519W        W57572  27.461  10.775  28.910  0.2086 -0.0111  0.2022
14520W        W57573  16.192  25.975  17.400 -0.2558 -0.2895 -0.2143
14521W        W57574  15.213  12.472  21.865 -0.2813  0.2530  0.2582
14522W        W57575   8.746  33.826  23.026 -0.0796  0.0568  0.0506
14523W        W57576  22.837   3.300  13.684 -0.0211  0.0754 -0.2040
14524W        W57577  11.121  19.248  22.198 -0.0957  0.1249  0.0297
14525W        W57578   4.985  12.586  24.504  0.1257 -0.1034 -0.1879
14526W        W57579  31.800   4.511  19.172  0.2928  0.1175  0.1063
14527W        W57580  15.322   5.876  18.374 -0.0787  0.0257  0.0922
14528W        W57581   4.599  13.497  24.517  0.0420 -0.0314  0.0975
14529W        W57582  11.493  13.027  10.826  0.2427 -0.3803 -0.2731
14530W        W57583   5.992   2.004  19.527 -0.0324 -0.1966 -0.3173
14531W        W57584   8.444   5.124  27.908  0.0227  0.0086  0.3190
14532W        W57585   3.702   1.400  23.002  0.0429 -0.0003 -0.1116
14533W        W57586  33.496  32.163   3.022  0.3759  0.2599  0.1473
14534W        W57587  26.575  15.916  18.007  0.0679 -0.1867  0.1159
14535W        W57588   7.023  24.704  16.884  0.0989  0.0991  0.1054
14536W        W57589  25.353  22.559  19.744  0.0373  0.3426  0.0958
14537W        W57590   0.085  15.436  17.710  0.1532  0.0587  0.2376
14538W        W57591   9.352  32.932  23.537 -0.2641  0.0075 -0.0957
14539W        W57592  10.784  34.051  19.205  0.0646  0.3135  0.2112
14540W        W57593  26.236  34.553  20.132  0.2041  0.2133  0.4293
14541W        W57594  31.587  19.589  17.932  0.1115 -0.2618 -0.1373
14542W        W57595  34.571  27.461  13.628  0.0208  0.3397 -0.0002
14543W        W57596  31.685   6.725  24.572  0.1094 -0.0337 -0.0871
14544W        W57597   8.842  28.172   0.405  0.2886 -0.0461  0.0379
14545W        W57598  27.622  27.195   7.803 -0.1758  0.0902 -0.1918
14546W        W57599   1.357  31.592  29.049 -0.0223  0.1549  0.0133
14547W        W57600  16.227  31.871  22.206  0.1910  0.0756  0.1261
14548W        W57601   3.494  30.508  17.051 -0.0001  0.0449  0.2194
14549W        W57602   2.050  25.937   5.170  0.1122  0.3168  0.4380
14550W        W57603   4.604  19.026  15.249  0.0159  0.0532 -0.0180
14551W        W57604  25.921  17.839   1.139 -0.1369  0.1999  0.1996
14552W        W57605  13.518   2.487  28.167  0.1657 -0.1322 -0.2163
14553W        W57606   6.989  13.975  19.333 -0.1377 -0.0824 -0.2215
14554W        W57607   0.097  34.683   6.979  0.3703  0.0168  0.0753
14555W        W57608  34.144  15.394  22.257  0.2259  0.3634  0.1806
14556W        W57609  25.476   0.188  23.799  0.1167  0.1172  0.2314
14557W        W57610  29.187  27.308  18.195 -0.1137 -0.1578 -0.2131
14558W        W57611   3.516  29.140   7.986 -0.0025 -0.0991 -0.0972
14559W        W57612  27.956  24.128   3.267 -0.1841  0.3241 -0.1531
14560W        W57613   9.328  23.905  13.651  0.0243  0.0203  0.3475
14561W        W57614  21.847  29.198  18.016 -0.0248 -0.0652  0.0239
14562W        W57615  23.726  21.754   1.967  0.0635  0.0158 -0.1278
14563W        W57616  28.895  23.127  13.866 -0.2820 -0.1611 -0.3328
14564W        W57617  34.030  33.294  26.657 -0.0688 -0.0467  0.1397
14565W        W57618  19.983  13.029   2.000 -0.1782  0.0890 -0.0742
14566W        W57619  19.369  31.201  28.347 -0.0562 -0.1975  0.1827
14567W        W57620  11.624  29.211  17.266 -0.0579  0.4781 -0.1987
14568W        W57621  32.338  19.677   1.587  0.0381  0.1696  0.0438
14569W        W57622  13.766  29.669  24.849  0.0511 -0.1932 -0.1145
14570W        W57623  33.338  16.202  23.900  0.1059 -0.1534 -0.4510
14571W        W57624   2.485   3.023  13.973  0.1413  0.2120 -0.1057
14572W        W57625   6.141  13.925  18.416 -0.1112  0.0976  0.3892
14573W        W57626  29.796  28.396  15.559 -0.1678 -0.1083 -0.0267
14574W        W57627   6.588  31.579  17.796 -0.2580 -0.1127 -0.0321
14575W        W57628  26.119  23.155   7.703 -0.0597  0.1695  0.0111
14576W        W57629   0.856   5.213  14.311 -0.0765  0.1553  0.4456
14577W        W57630   8.432  14.928  19.630  0.2729 -0.1675  0.3350
14578W        W57631  23.791  23.291  25.535  0.1176  0.1451  0.1138
14579W        W57632  20.348   0.696  24.363  0.0532  0.2573 -0.2732
14580W        W57633  26.453  26.984  21.867 -0.5218 -0.1381 -0.3220
14581W        W57634  32.781  29.036  26.756  0.0131 -0.1808  0.0597
14582W        W57635   0.472  11.372  26.263 -0.4274  0.0331 -0.0157
14583W        W57636  20.202  17.728   5.022 -0.0799  0.2050  0.3459
14584W        W57637   6.178  17.758  17.817  0.2539  0.4638 -0.0430
14585W        W57638  30.459  32.216  21.755  0.0810 -0.3110  0.3115
14586W        W57639  18.675  25.102  23.612  0.3219 -0.2596  0.2726
14587W        W57640   0.950  17.388   0.976 -0.3648 -0.2586 -0.0611
14588W        W57641   6.105   8.397   7.787  0.0182 -0.0464 -0.1068
14589W        W57642  26.052  19.326  25.596 -0.0053 -0.0775  0.0437
14590W        W57643  33.568  27.658  15.630 -0.3003 -0.0718  0.1466
14591W        W57644   1.687  33.621  14.406 -0.0823 -0.0626 -0.0886
14592W        W57645  33.420  24.407   3.095 -0.1987 -0.0382 -0.0868
14593W        W57646  12.377  15.415  16.170 -0.2616 -0.0546  0.0476
14594W        W57647   4.467  22.985  23.303  0.1815 -0.1970  0.1199
14595W        W57648  16.909  17.733  27.774 -0.2860  0.0243 -0.3892
14596W        W57649  23.217  27.802  15.010  0.0462  0.1765 -0.0322
14597W        W57650  32.770  12.612   1.493 -0.0639 -0.0897  0.3002
14598W        W57651  31.838  26.919  14.644 -0.0976 -0.0120  0.0998
14599W        W57652  29.189  14.156  22.019 -0.0488 -0.3071 -0.1554
14600W        W57653  15.663   8.033  10.521  0.0885  0.0232  0.1568
14601W        W57654  34.257  21.431   4.935  0.1896 -0.1495 -0.2577
14602W        W57655  24.828   1.026  13.879 -0.0644  0.3678  0.0980
14603W        W57656  14.022  32.465  21.217 -0.0777 -0.0320 -0.2717
14604W        W57657  28.879  31.756  13.715  0.0595  0.0891 -0.1162
14605W        W57658   2.719  24.776  21.590  0.2793 -0.0071  0.2575
14606W        W57659  13.309  22.840  26.958  0.3723 -0.0533  0.1777
14607W        W57660  31.050  26.002  25.837  0.1256  0.0077 -0.1622
14608W        W57661  17.575  26.279   1.302  0.2075  0.0047  0.0370
14609W        W57662  26.549  33.158  28.536 -0.0289 -0.2378 -0.0552
14610W        W57663  11.563  25.868  22.112 -0.1255 -0.1115 -0.3894
14611W        W57664   9.376  19.810  28.189 -0.2018  0.1099  0.1002
14612W        W57665   8.741  20.161   4.829  0.0045 -0.2018  0.2471
14613W        W57666  30.397   5.767  27.182  0.3948  0.0227  0.2706
14614W        W57667   1.437  27.856  23.704  0.1043  0.1976  0.0489
14615W        W57668   9.605  20.992  20.728 -0.2370 -0.2821  0.2421
14616W        W57669   2.467   6.095  14.600 -0.2725 -0.3656 -0.1191
14617W        W57670   5.896  11.720  20.367 -0.2741 -0.0540  0.0374
14618W        W57671  13.078   2.454  26.361 -0.2982 -0.2665 -0.1875
14619W        W57672  30.702  30.786  13.820 -0.2717  0.1868  0.2953
14620W        W57673  21.337  29.491  16.641 -0.0039  0.0541 -0.2496
14621W        W57674   3.442  23.738  15.315 -0.0236 -0.3182  0.0462
14622W        W57675  28.367  34.454   1.104  0.1728  0.1119 -0.1741
14623W        W57676   2.817  33.688  27.188  0.1984 -0.3446 -0.0921
14624W        W57677   1.646  16.924  24.039 -0.1244  0.1903  0.2671
14625W        W57678  28.392   0.250   5.621  0.0101  0.0808  0.3692
14626W        W57679   1.158  12.217  24.435  0.2555 -0.4140  0.2285
14627W        W57680  20.613   6.082  18.436 -0.1848 -0.0105 -0.0074
14628W        W57681  25.712  28.109  26.811  0.2062 -0.0182 -0.0926
14629W        W57682  23.626  28.878  18.614  0.2656 -0.2497  0.1067
14630W        W57683   6.136  22.218   3.993  0.0101 -0.2569  0.1201
14631W        W57684  24.641  27.220  24.756 -0.0150 -0.1641 -0.2818
14632W        W57685  28.394  27.965  25.057  0.2963 -0.0481 -0.1196
14633W        W57686   0.438  24.979  15.284 -0.3778  0.0444 -0.1965
14634W        W57687  28.464  23.761  23.398 -0.1528 -0.0733 -0.1717
14635W        W57688   0.289  12.127  21.500 -0.1199  0.0842  0.0058
14636W        W57689   3.722  22.448   2.208  0.0347  0.1533  0.3944
14637W        W57690   9.875  24.195  19.736 -0.2149  0.0540  0.2183
14638W        W57691  32.714  29.932  15.288 -0.0544  0.2373 -0.1397
14639W        W57692  29.450  17.536  19.971  0.1895 -0.0391 -0.0735
14640W        W57693  27.574  26.949  22.330 -0.1698  0.1021  0.1741
14641W        W57694  22.962  19.102  18.947  0.4279  0.0981 -0.1387
14642W        W57695   5.280  25.177  25.062  0.1745 -0.1066 -0.0279
14643W        W57696  11.343  25.007   4.213  0.0245 -0.3978  0.2125
14644W        W57697  34.498  18.920  18.361 -0.1162  0.5090  0.2136
14645W        W57698   4.258   9.578  15.620 -0.2447  0.2383  0.1229
14646W        W57699  32.779  22.497  22.629  0.0147  0.0155 -0.0451
14647W        W57700   8.201  25.790   6.810  0.1215 -0.0389 -0.2191
14648W        W57701  20.933  11.951  17.774 -0.0903 -0.1605  0.1539
14649W        W57702  10.523  22.917  13.727  0.0558  0.1537 -0.1948
14650W        W57703  23.401   1.196  22.665 -0.0076 -0.3340 -0.2088
14651W        W57704  29.245   5.599  25.178 -0.2370 -0.0155 -0.1957
14652W        W57705  31.755  18.658  25.422 -0.3649  0.1832  0.0086
14653W        W57706   8.090   4.217  18.955  0.0050  0.0632 -0.1705
14654W        W57707   8.609  14.502  19.967  0.1449 -0.0543  0.1233
14655W        W57708   1.411  34.444  24.136  0.0028  0.0354 -0.3091
14656W        W57709   2.653  28.221  22.077  0.0361 -0.2928  0.3325
14657W        W57710   4.280   1.350  20.935  0.1119  0.1417  0.0813
14658W        W57711  19.148  20.021  24.993 -0.2617  0.0296 -0.0516
14659W        W57712   1.743  16.661  16.008 -0.5040 -0.6130 -0.2405
14660W        W57713   7.368   4.390  27.744  0.2298  0.3989  0.1725
14661W        W57714  31.060   9.326  14.363  0.2278  0.2669  0.0663
14662W        W57715  33.398  24.259  16.730 -0.0413 -0.0630  0.0069
14663W        W57716   6.399   9.334  26.771  0.1336  0.0336 -0.0525
14664W        W57717  32.002  29.003  17.791 -0.1150  0.0601  0.1832
14665W        W57718  16.954  23.555  16.575  0.0680  0.0555  0.1415
14666W        W57719   4.973   0.708   4.949 -0.1387  0.1778 -0.2027
14667W        W57720   0.300   8.742  19.457  0.3116 -0.1279 -0.1265
14668W        W57721   8.000   7.099  20.389 -0.0473  0.2646  0.3068
14669W        W57722  11.381  32.762  16.827  0.1256  0.1278  0.1070
14670W        W57723  10.349  24.846  15.715 -0.0542  0.1866  0.1418
14671W        W57724   2.621  23.601  20.430  0.0641 -0.3290 -0.1798
14672W        W57725  33.990  29.298  16.315 -0.2095 -0.2773 -0.0547
14673W        W57726   5.316  22.409  28.429  0.2607  0.2215 -0.0601
14674W        W57727   4.463   5.135   3.925 -0.2319 -0.1507  0.0390
14675W        W57728   3.901  31.855  18.755 -0.0043  0.2681 -0.3574
14676W        W57729   1.736  31.562  25.020 -0.0513  0.1550  0.0467
14677W        W57730   4.866  24.602  16.717  0.0201 -0.0100  0.2826
14678W        W57731   8.453  24.870  14.064 -0.1723 -0.0234  0.1446
14679W        W57732   3.951  13.441   7.559  0.1605  0.2971 -0.2157
14680W        W57733  31.499  21.359  14.863  0.1211 -0.0223  0.1904
14681W        W57734   5.512   7.196  24.914  0.1541  0.0205 -0.1670
14682W        W57735   0.946   5.431  25.157  0.0313  0.0607  0.3125
14683W        W57736  15.909  31.486  27.818 -0.2349  0.0578  0.0236
14684W        W57737   2.303  24.402  13.979 -0.4030 -0.1026 -0.3441
14685W        W57738  28.149  19.019  17.560 -0.0718  0.3709  0.0825
14686W        W57739  13.869  17.356  13.848 -0.4094 -0.3138  0.0331
14687W        W57740  25.706  18.227  27.957  0.3624 -0.0476  0.0823
14688W        W57741  23.392  13.399  13.675 -0.0220  0.1371 -0.0584
14689W        W57742   9.613   5.248  17.451 -0.3878 -0.1555 -0.1547
14690W        W57743  15.084   3.595   1.519  0.0333  0.0129  0.0957
14691W        W57744   8.533  15.674  16.534  0.4554  0.1816 -0.2925
14692W        W57745  32.956  10.722  16.299  0.1096  0.1868 -0.1014
14693W        W57746  28.505  12.350   4.196  0.1489  0.0189  0.0796
14694W        W57747   7.095  24.056  17.794  0.3624  0.1089  0.1136
14695W        W57748   9.374   3.031  26.414  0.0689  0.0333 -0.0750
14696W        W57749   1.670  34.405   2.460 -0.2668 -0.1436 -0.0829
14697W        W57750  24.543  17.521  27.015  0.3131 -0.2034  0.0280
14698W        W57751  31.754   3.824  15.457  0.0150 -0.3257 -0.0749
14699W        W57752   6.437  29.170  21.364  0.0801 -0.0841  0.1737
14700W        W57753  11.940  25.662   1.432 -0.0709 -0.4800  0.0074
14701W        W57754  30.646  30.084   9.463 -0.1886  0.0656 -0.3322
14702W        W57755  22.879  11.153  16.623  0.1370  0.0750  0.1017
14703W        W57756  10.372  27.645  27.950  0.5497  0.0759 -0.2519
14704W        W57757  32.517  10.353  25.254  0.2810  0.1268 -0.0074
14705W        W57758  28.866  25.450   4.157 -0.1246  0.0254  0.0467
14706W        W57759  22.555  26.623   4.037  0.1595  0.2476  0.2674
14707W        W57760  12.967  31.554  16.744 -0.2233  0.2232  0.0823
14708W        W57761  19.305  18.408  24.581  0.3793 -0.2484  0.3175
14709W        W57762   2.790  27.863  25.700 -0.1354  0.0575 -0.1331
14710W        W57763   0.958  27.147  17.299  0.0430  0.3578 -0.1718
14711W        W57764  29.320  28.361  16.323 -0.1913  0.2906  0.0567
14712W        W57765   4.165  14.868   3.721  0.0518  0.1346  0.0660
14713W        W57766  10.852  31.157  17.909 -0.2901  0.0659  0.2037
14714W        W57767   2.152  21.240  22.652 -0.0729  0.1324  0.2257
14715W        W57768   8.392  21.000  18.346  0.1283  0.1245 -0.2667
14716W        W57769  34.445  26.486  22.368 -0.1619  0.1731 -0.0472
14717W        W57770  32.948  27.331  25.952 -0.0662 -0.2146  0.0447
14718W        W57771  17.714  15.422  14.957 -0.1275 -0.2351 -0.0217
14719W        W57772   6.239  27.533  25.386 -0.1337 -0.4337  0.1908
14720W        W57773   7.904  25.050  20.020  0.1132 -0.0360 -0.3526
14721W        W57774   0.014  12.319  24.960  0.3436 -0.0983 -0.1187
14722W        W57775   0.103  20.868  19.469  0.0578 -0.1208  0.1564
14723W        W57776   2.474  17.205  19.089  0.1635  0.2185 -0.2497
14724W        W57777  34.373  25.635  22.117  0.1962 -0.0790  0.3120
14725W        W57778  31.993  10.379   2.399 -0.0948 -0.0439 -0.1728
14726W        W57779   3.250  24.373  26.051 -0.0850  0.0454  0.4600
14727W        W57780   2.696  24.679  23.173  0.2251 -0.1069 -0.1678
14728W        W57781   6.041  18.256  17.755  0.0645  0.0877  0.4861
14729W        W57782  27.711  16.813  19.407 -0.0637 -0.1115  0.2588
14730W        W57783  20.280  24.780  15.153 -0.1354 -0.1908 -0.1534
14731W        W57784  16.527   0.868  15.154 -0.0669  0.1738 -0.0968
14732W        W57785  34.560  16.438  13.646  0.0086 -0.4797 -0.1683
14733W        W57786  13.843  14.389   4.185  0.1108 -0.0359  0.1318
14734W        W57787   0.730  22.613  17.337  0.3370  0.0556 -0.0893
14735W        W57788  12.176  33.452  22.134 -0.0010 -0.1312 -0.1073
14736W        W57789   6.397  31.096  27.128 -0.2680 -0.0586 -0.0973
14737W        W57790   2.337   0.374   1.905 -0.0673 -0.1293 -0.0933
14738W        W57791   0.112  22.159   4.223 -0.2378 -0.2355 -0.2168
14739W        W57792  33.248  14.744  19.948 -0.0685  0.0270  0.2789
14740W        W57793   1.099  27.272  22.119 -0.0579 -0.2077  0.1753
14741W        W57794   7.271  15.542  14.852  0.1359 -0.0217 -0.1758
14742W        W57795   7.833  17.511  14.037 -0.4316 -0.1525  0.0521
14743W        W57796   9.520  29.993  18.644  0.1339 -0.3085 -0.0040
14744W        W57797   2.840   5.789  27.677  0.3025 -0.0593  0.2170
14745W        W57798   0.364  32.314  21.193 -0.1581  0.0994 -0.1587
14746W        W57799  12.600  33.110  21.963  0.2912 -0.0735 -0.0900
14747W        W57800  28.709  19.906  17.395  0.2131 -0.1309 -0.0005
14748W        W57801  24.193   3.709  22.638  0.3585 -0.1651 -0.0798
14749W        W57802  32.725  21.612  15.251  0.1924  0.0861 -0.0345
14750W        W57803   0.955  33.336  16.498  0.0750 -0.2687  0.2454
14751W        W57804   6.686  31.448  22.790  0.1549  0.1547  0.0131
14752W        W57805  25.400  19.930  17.860  0.5032 -0.0649  0.0072
14753W        W57806  28.500   6.719  21.050 -0.1635  0.1585 -0.2452
14754W        W57807   7.207  14.703  23.540  0.0427  0.2021  0.1243
14755W        W57808  27.084  16.031  17.320  0.0397  0.1227 -0.1459
14756W        W57809  10.636  20.813  20.470 -0.0796 -0.1613  0.1342
14757W        W57810  17.413  19.103  13.027  0.1570 -0.1713 -0.0925
14758W        W57811  33.976  13.077  19.671 -0.1233  0.1759  0.0035
14759W        W57812  23.480  31.839   3.525  0.0569  0.0271  0.1159
14760W        W57813  18.654   1.230  22.330  0.0118 -0.1553 -0.0481
14761W        W57814  31.363  23.895  20.338  0.0300  0.0069 -0.0254
14762W        W57815  10.345  26.872  15.043 -0.1884  0.1324  0.1544
14763W        W57816   6.390  15.139   7.352  0.0117  0.1494 -0.0797
14764W        W57817   3.916  24.207  17.923 -0.1807 -0.0693  0.1353
14765W        W57818  32.706  23.410  17.911  0.1378 -0.2292  0.0454
14766W        W57819  30.076   1.169  22.522  0.0182  0.1624  0.0956
14767W        W57820  22.152  34.368  19.716 -0.1619 -0.1840 -0.0406
14768W        W57821  17.086  20.116  24.682 -0.0270  0.0628 -0.1388
14769W        W57822  30.171   8.066  22.825  0.1326 -0.0635 -0.3279
14770W        W57823  22.703  29.746  15.556 -0.1855  0.2336  0.2249
14771W        W57824  29.758  31.490  16.916  0.2214  0.0025 -0.0453
14772W        W57825   5.900   5.223   3.189  0.0500  0.1197  0.0490
14773W        W57826   7.685  20.378  25.129  0.3638  0.0151 -0.2506
14774W        W57827   4.881   6.047  19.499 -0.0607 -0.0497 -0.0877
14775W        W57828   4.732   0.388  20.755 -0.1849  0.0155 -0.1813
14776W        W57829   5.632  24.066  21.300  0.1257  0.0594  0.0140
14777W        W57830  13.662   5.544  24.184  0.1623 -0.1831 -0.0080
14778W        W57831  28.409  17.323  27.613 -0.0791 -0.3539 -0.1570
14779W        W57832   3.010   4.380   0.830 -0.1817  0.0091 -0.0894
14780W        W57833  26.464  28.881  26.891  0.1017  0.3316 -0.6254
14781W        W57834   0.654  27.480  17.873  0.0617  0.2431 -0.1315
14782W        W57835   3.038  28.999  19.564 -0.1245  0.0409  0.0256
14783W        W57836  26.613  25.283  21.129 -0.1014  0.2578  0.1207
14784W        W57837   7.044  26.720  16.365  0.1248 -0.3152 -0.2606
14785W        W57838  17.906   9.459  14.744 -0.2260 -0.1274  0.0057
14786W        W57839  34.542  18.474  28.990  0.1209  0.1432  0.4174
14787W        W57840  30.208  21.887  22.624  0.2747 -0.1961 -0.1123
14788W        W57841   3.902  31.196  18.938 -0.1021  0.1132  0.2111
14789W        W57842  31.467  22.970  15.886  0.0076  0.1334  0.1288
14790W        W57843  22.329  31.742  15.284 -0.0367 -0.1863 -0.0788
14791W        W57844   0.369  28.177  26.553 -0.0416  0.1249 -0.1298
14792W        W57845  27.423  28.782   1.865 -0.0739  0.0973 -0.0616
14793W        W57846  31.677  24.984  19.201 -0.3959 -0.1148 -0.3321
14794W        W57847   5.496   1.957  24.357 -0.0149 -0.1897 -0.4362
14795W        W57848  27.511  23.806  19.709  0.0951 -0.1555 -0.0705
14796W        W57849  27.307  31.157  16.387 -0.0771 -0.0817  0.0405
14797W        W57850  24.004  25.829  22.342  0.0041 -0.0644 -0.0505
14798W        W57851  10.077  25.671  27.089 -0.2184 -0.1021  0.2555
14799W        W57852   4.140  20.078  13.509  0.1013  0.0260 -0.0926
14800W        W57853  34.137  16.230  14.915  0.1867 -0.0227 -0.0711
14801W        W57854   4.134  32.716  25.431 -0.2395 -0.0723 -0.0842
14802W        W57855   6.734  24.635   1.169  0.0026 -0.1516 -0.0089
14803W        W57856  26.145  32.556  26.568  0.2823 -0.0495 -0.2082
14804W        W57857  29.687  22.690  14.454  0.2666  0.0612 -0.2587
14805W        W57858  28.492  27.425  26.112  0.1182 -0.1028 -0.1496
14806W        W57859  29.861  32.645  16.102 -0.2874 -0.1768  0.2818
14807W        W57860  25.574  10.965   6.150 -0.3314  0.0698 -0.0729
14808W        W57861   0.446  24.608   5.599  0.0151 -0.1147 -0.1813
14809W        W57862   3.971  15.902  13.422  0.1302 -0.0699  0.1349
14810W        W57863   1.248  15.265  17.188  0.0304  0.0536 -0.1633
14811W        W57864   2.505  26.042  19.729 -0.1721  0.1444  0.0578
14812W        W57865   9.254  15.680   0.105 -0.0867  0.0490  0.3318
14813W        W57866   3.135  11.854  26.964 -0.0760 -0.1130  0.1199
14814W        W57867   7.106  27.164  13.664 -0.1653 -0.1771 -0.1193
14815W        W57868  11.762  30.895  23.117  0.0262 -0.2197  0.1218
14816W        W57869   3.663  25.727   3.153 -0.0708 -0.0485 -0.0296
14817W        W57870   6.465   0.820   1.830 -0.3703 -0.3686  0.1475
14818W        W57871  11.033  15.835  17.430  0.0785  0.1106 -0.1891
14819W        W57872   1.893  20.240  19.428  0.2652  0.2930  0.0776
14820W        W57873  24.969  34.039  22.670 -0.0224  0.1783 -0.0682
14821W        W57874   1.678  21.345  14.132  0.0146  0.1507  0.1382
14822W        W57875  14.209  34.148  20.231 -0.2550 -0.0986  0.2275
14823W        W57876  20.862  21.585  26.680 -0.1048  0.0674 -0.0061
14824W        W57877   8.016  10.702  25.794 -0.0045 -0.0314  0.0897
14825W        W57878   3.950  34.290  19.288  0.2455 -0.1234  0.2521
14826W        W57879  22.795   8.046  18.715 -0.1498  0.1673  0.1841
14827W        W57880   1.068  18.070  21.247 -0.0453 -0.0581 -0.0413
14828W        W57881   3.460  26.597  29.175 -0.0369 -0.3100  0.0740
14829W        W57882  33.995  12.162  17.573  0.2186  0.0882 -0.1023
14830W        W57883  23.184  20.568  18.485 -0.1242  0.2719 -0.3408
14831W        W57884  11.335  33.608   3.182 -0.1514  0.1392 -0.0201
14832W        W57885  20.420  29.223  16.575 -0.1319 -0.0989  0.1807
14833W        W57886  32.093   6.130   2.936 -0.0774 -0.2882  0.1646
14834W        W57887  12.836  28.884  25.071 -0.2670 -0.2140 -0.1587
14835W        W57888  27.195  16.569   5.368  0.2346 -0.0397 -0.0288
14836W        W57889  23.235  31.282  13.791  0.0540  0.0121 -0.4092
14837W        W57890  25.937   4.048  27.148 -0.1351 -0.0796  0.0825
14838W        W57891  30.332  23.883  22.278  0.1800 -0.2617  0.0395
14839W        W57892   5.788  20.312  23.965  0.1667  0.0099  0.2787
14840W        W57893  33.371  30.820   3.587  0.1291  0.1791 -0.0644
14841W        W57894  12.441   1.151  28.327  0.1368 -0.0633  0.1297
14842W        W57895   2.641  22.501  14.092  0.1359  0.2569 -0.3460
14843W        W57896  33.777  29.500  14.226  0.0608 -0.1285  0.0866
14844W        W57897  24.940  31.997   1.981 -0.1889  0.1867  0.1117
14845W        W57898   0.977   0.353  15.359  0.2378  0.0054  0.2845
14846W        W57899   7.320  13.432  27.762  0.1910  0.0551 -0.1633
14847W        W57900  29.273  27.838  18.436  0.0716  0.1711  0.1451
14848W        W57901  26.283  27.116  14.731  0.0005 -0.2369  0.1614
14849W        W57902   5.259  33.821  23.972 -0.1496 -0.0491  0.3537
14850W        W57903   2.610  28.465   6.206  0.0641  0.1163  0.2354
14851W        W57904  27.607   4.434  20.359  0.3742  0.2409  0.0965
14852W        W57905  10.335  12.044  24.476 -0.0034 -0.2518 -0.1198
14853W        W57906  22.509  28.991  26.103 -0.2077  0.1296  0.0791
14854W        W57907  33.664  21.390  19.188 -0.0193 -0.0208  0.1591
14855W        W57908   5.095   6.108  17.694  0.1332 -0.0777 -0.0048
14856W        W57909  22.069  10.506  27.931 -0.1447 -0.1230  0.0162
14857W        W57910  31.177  15.303  20.919 -0.0931 -0.0403  0.2418
14858W        W57911  33.193  30.665  17.564 -0.1246  0.0218  0.2585
14859W        W57912  13.502   2.371  25.507  0.2642  0.0522 -0.0348
14860W        W57913   0.916  29.153  27.190 -0.2503  0.1016  0.3351
14861W        W57914  14.239   3.173   0.594  0.2174 -0.0036  0.0193
14862W        W57915  26.006  24.433  28.093  0.1850  0.2200  0.2241
14863W        W57916  31.617  20.606  18.672  0.0278 -0.0374 -0.0763
14864W        W57917  10.402  28.896  17.123 -0.3572 -0.1586 -0.3655
14865W        W57918  17.848  24.432   6.546  0.0799  0.0791 -0.2211
14866W        W57919   8.433  28.720  12.604  0.4463 -0.0574 -0.0456
14867W        W57920   0.518  30.983  20.170 -0.0989 -0.0091 -0.2618
14868W        W57921  11.678  24.923  22.913  0.3481  0.0631 -0.4141
14869W        W57922  23.531  33.445  17.600  0.1306 -0.0747 -0.5424
14870W        W57923  31.071   2.641  24.525 -0.0792  0.0241  0.1434
14871W        W57924   6.373  28.137   6.846  0.1042 -0.2773 -0.1553
14872W        W57925  33.078  26.347  27.357  0.0440 -0.0696 -0.2648
14873W        W57926  29.585  12.797   8.482  0.0323  0.2899 -0.3910
14874W        W57927   4.015  15.437  21.327 -0.0106  0.3015 -0.1386
14875W        W57928   2.091  26.026  25.538  0.3432  0.1448 -0.2236
14876W        W57929   6.848  30.442   0.432  0.2196 -0.1480  0.0620
14877W        W57930  24.870  32.699  18.842  0.0199  0.1027 -0.3156
14878W        W57931   9.685  26.797   3.961 -0.1571 -0.0347  0.0176
14879W        W57932  32.562  31.081  14.860  0.0218 -0.0999 -0.0293
14880W        W57933   4.088  25.373   3.778  0.0105  0.0459  0.1002
14881W        W57934  12.861   6.981  24.506  0.1609  0.3113  0.0774
14882W        W57935   5.674  26.621  20.533  0.2524 -0.2086 -0.2357
14883W        W57936  20.135   8.504  19.993 -0.2377 -0.0517 -0.3422
14884W        W57937  11.033  30.260   7.341 -0.4310 -0.4157  0.3051
14885W        W57938   3.001   8.415  26.070  0.1147 -0.0273 -0.1610
14886W        W57939   7.159  19.518  21.781 -0.2613 -0.0312  0.3462
14887W        W57940   2.446   8.513   0.143  0.0946  0.0445  0.0829
14888W        W57941  16.944   2.179  18.016  0.1634  0.1727 -0.0334
14889W        W57942   3.225  18.694  22.657  0.1587  0.0974  0.2714
14890W        W57943   4.586   5.667   3.069  0.0198  0.2427  0.0006
14891W        W57944   1.091   0.213  19.800  0.1802 -0.3079  0.1711
14892W        W57945   0.517  17.823  20.097  0.1753 -0.0260  0.0306
14893W        W57946  10.575   5.066   6.423 -0.0238 -0.2966  0.0440
14894W        W57947   4.586   4.929   1.776 -0.1712 -0.1131 -0.5253
14895W        W57948  31.330  26.211  23.947  0.0368 -0.3344 -0.1089
14896W        W57949   8.666  31.631  20.862 -0.2208 -0.0886  0.0464
14897W        W57950   0.657   4.792  28.106  0.1418 -0.0031 -0.2272
14898W        W57951  34.515  27.137  25.725  0.0687  0.0737 -0.2966
14899W        W57952  29.336  18.243  24.452 -0.1726  0.1036  0.0843
14900W        W57953  22.877  26.262   6.526  0.0521 -0.0930 -0.1380
14901W        W57954  12.124  24.413  14.077 -0.2051 -0.1672  0.4407
14902W        W57955  22.465  32.861  21.163 -0.0708 -0.1070  0.2117
14903W        W57956   2.568  14.547   0.921 -0.0123 -0.0188 -0.0874
14904W        W57957  25.848   4.671  28.896  0.2083 -0.1665  0.2273
14905W        W57958   6.019  26.864   2.566 -0.1520 -0.1561  0.3598
14906W        W57959  29.402  23.795   4.003  0.2099  0.0620 -0.3087
14907W        W57960   8.282  20.418  21.251  0.0410 -0.1869 -0.1108
14908W        W57961   3.820  29.770   1.748  0.2750  0.3122 -0.2907
14909W        W57962  25.022  19.317   0.224 -0.4806 -0.2175  0.1756
14910W        W57963  20.628  27.976  18.644  0.1916 -0.2644 -0.0823
14911W        W57964  23.180  21.037  18.627  0.0236  0.2110 -0.1084
14912W        W57965   9.635  19.304   3.010  0.1497 -0.1639 -0.2654
14913W        W57966  15.111   5.311  14.847  0.1762 -0.1224  0.1455
14914W        W57967  34.375  20.066  15.078 -0.0430  0.0628 -0.1439
14915W        W57968   0.676  17.703  19.533  0.1521  0.0064  0.1128
14916W        W57969  31.171   5.537   1.880  0.0365  0.2245  0.1328
14917W        W57970   3.663  16.651  14.586 -0.0384 -0.1451 -0.1305
14918W        W57971   8.773  34.157   2.046 -0.3358  0.3449  0.2005
14919W        W57972  23.771  16.008  24.505 -0.0024 -0.3069  0.3621
14920W        W57973   6.314  15.814  18.549 -0.0083  0.0406 -0.1136
14921W        W57974  21.203  23.919  20.629 -0.1375  0.3131 -0.0747
14922W        W57975   4.327  16.818  28.373 -0.1180  0.0456 -0.3410
14923W        W57976   7.985  14.050  22.749 -0.0533 -0.1611 -0.2293
14924W        W57977  25.536  23.993   2.918  0.1125 -0.0582 -0.2683
14925W        W57978  12.695   1.605   5.757  0.2543 -0.0588  0.1989
14926W        W57979  21.732  12.647  20.868 -0.0753  0.1358 -0.0653
14927W        W57980   2.903   8.357  18.316 -0.0284  0.1456 -0.0390
14928W        W57981  31.385  11.934  16.338 -0.0963  0.1145 -0.1357
14929W        W57982   1.913   3.824  20.025 -0.1805 -0.1682 -0.2561
14930W        W57983   6.664  21.164  25.028  0.2814  0.2641 -0.2353
14931W        W57984  10.272  23.204  14.606  0.3337  0.0032 -0.1677
14932W        W57985   3.719  23.513  26.295 -0.0945  0.1040  0.1686
14933W        W57986  25.412  30.248  17.275 -0.2934 -0.2420 -0.1943
14934W        W57987  24.192  31.166  16.294  0.0410 -0.0652 -0.0666
14935W        W57988  32.439  21.735  16.169  0.2876 -0.2359 -0.0262
14936W        W57989  27.591  26.148  24.052  0.1168 -0.0368  0.1014
14937W        W57990  13.756  26.080   2.765  0.1124  0.0285 -0.1516
14938W        W57991  27.619  27.854  15.019  0.0193  0.0010  0.2963
14939W        W57992  10.266  10.574   0.419 -0.2668 -0.2677  0.2712
14940W        W57993  33.143  30.615  24.256 -0.0820 -0.0478 -0.0482
14941W        W57994  11.498  19.428  17.200 -0.2280 -0.0375 -0.1504
14942W        W57995  32.613  29.981  27.141 -0.0034 -0.2856 -0.0888
14943W        W57996  25.987  30.917  21.977 -0.0229  0.0658 -0.0181
14944W        W57997  34.225  26.587  23.852  0.1643 -0.2260  0.2027
14945W        W57998  10.380  20.201  18.808 -0.5175  0.1904  0.0510
14946W        W57999  15.814  27.562  17.058 -0.2093  0.0144 -0.0122
14947W        W58000   0.823  14.068  24.471  0.1684  0.0445  0.0324
14948W        W58001   5.929  14.374  23.399  0.0595 -0.1846 -0.0818
14949W        W58002   9.674  29.409  21.604 -0.1266 -0.0902  0.0149
14950W        W58003  11.420  20.628  17.412 -0.2859 -0.2071 -0.0739
14951W        W58004  12.851  19.749   2.088 -0.0091 -0.0944 -0.3045
14952W        W58005  32.533  26.441  15.835  0.0999  0.1371  0.3717
14953W        W58006   6.124  12.636  23.517 -0.0707  0.0904 -0.0618
14954W        W58007  10.187  16.150   4.453 -0.2247  0.3182 -0.2937
14955W        W58008  29.192  17.963  22.093 -0.1034 -0.0067 -0.0307
14956W        W58009   4.922  26.488   0.718  0.0468 -0.3341  0.0564
14957W        W58010  26.714  28.389  14.228  0.0281 -0.2075  0.1585
14958W        W58011   3.533  23.759   3.013 -0.0780 -0.1433  0.1200
14959W        W58012   5.053  20.750  19.371 -0.0587  0.2199 -0.3631
14960W        W58013   0.422  15.793  15.692  0.0243 -0.1062 -0.0238
14961W        W58014  16.186  16.770  14.124  0.1073 -0.0098 -0.0019
14962W        W58015   0.295  22.248  19.724 -0.1436  0.1635  0.2330
14963W        W58016   7.468  23.645  22.766  0.2205 -0.0779 -0.0613
14964W        W58017  21.785  22.219  25.462 -0.0765 -0.0383 -0.1202
14965W        W58018   6.882  22.446  14.451 -0.1973  0.1062  0.0019
14966W        W58019  33.559  30.008   1.734  0.1036  0.0879 -0.0892
14967W        W58020  26.329  24.750  18.964  0.0558 -0.1005  0.0479
14968W        W58021  30.576   3.170  25.734  0.0550 -0.0695  0.0056
14969W        W58022  14.159  16.391  26.860 -0.4726  0.3685  0.0305
14970W        W58023  23.505  27.802  21.173 -0.3723 -0.3598  0.1355
14971W        W58024   0.344  16.409  20.391 -0.1135  0.2146  0.1236
14972W        W58025  31.963  30.828  17.050 -0.1586  0.0371 -0.3895
14973W        W58026  29.325   3.710  14.075  0.0276 -0.5369  0.1905
14974W        W58027   3.481  23.927   0.449 -0.3349  0.1175  0.1208
14975W        W58028   3.110  29.084  14.385  0.2481  0.3433 -0.0899
14976W        W58029   1.735  18.752  16.049 -0.0330 -0.1568 -0.4180
14977W        W58030  15.658   5.541  15.581 -0.1189 -0.2643 -0.1856
14978W        W58031  26.743  21.275  22.724 -0.0433 -0.0063 -0.1480
14979W        W58032  13.651   4.370  21.763  0.0012  0.0853 -0.1744
14980W        W58033  33.270  16.302  13.571  0.2685  0.2669  0.2506
14981W        W58034  19.693   1.463  15.603 -0.0637  0.2023  0.0727
14982W        W58035  29.161  19.517   2.118 -0.3100 -0.2689 -0.0334
14983W        W58036   2.585  30.268  13.875 -0.0612  0.1547  0.0800
14984W        W58037   5.697   9.261   2.999  0.2616 -0.1097  0.0549
14985W        W58038  15.904  21.195  14.178  0.2207  0.1048 -0.2238
14986W        W58039   4.880   9.308  24.012  0.2589  0.1409 -0.1065
14987W        W58040   0.619  19.351   6.216 -0.0458  0.0427  0.2301
14988W        W58041  34.481   1.276  21.276 -0.1242  0.1609  0.1609
14989W        W58042   1.643  23.050  20.680  0.1151 -0.0041 -0.1592
14990W        W58043  29.572  16.173  19.987 -0.2055  0.0091  0.1739
14991W        W58044   9.154  16.820  15.048 -0.0938  0.1966 -0.0733
14992W        W58045   0.490  10.310   3.489  0.0049 -0.1240 -0.0802
14993W        W58046   0.665   8.064  20.882 -0.0517 -0.2008  0.0306
14994W        W58047   2.537  22.842   5.201  0.1898 -0.0074 -0.1866
14995W        W58048   7.822   2.012   2.460 -0.2176  0.3110 -0.5139
14996W        W58049  26.452  25.159  16.809 -0.0507  0.0332 -0.1826
14997W        W58050  27.897  18.668   0.281  0.0143  0.1397 -0.1342
14998W        W58051   5.096  21.939  28.556 -0.3186  0.2682 -0.0434
14999W        W58052  10.102   7.066  26.308  0.0559 -0.0435 -0.0865
15000W        W58053  24.524  28.689   1.466  0.1012 -0.2593  0.1853
15001W        W58054  30.922  10.381   0.651  0.0691 -0.3506 -0.2219
15002W        W58055   4.666  12.413  24.846 -0.0780 -0.0290 -0.2795
15003W        W58056  11.372  30.506  23.005  0.1523 -0.1880 -0.0101
15004W        W58057   1.403  16.709  17.338 -0.3839  0.0383  0.2194
15005W        W58058  27.277  31.704  17.575 -0.3280  0.1797 -0.3098
15006W        W58059   4.929  32.161  15.281  0.0887  0.0645 -0.1592
15007W        W58060  21.181  23.982   0.453 -0.2748  0.3351  0.1032
15008W        W58061   2.495  24.861   7.428  0.0528  0.0297  0.1627
15009W        W58062   4.885  14.715  15.312 -0.3126 -0.2880 -0.1237
15010W        W58063  30.531   6.103  18.877  0.0547 -0.0390  0.1883
15011W        W58064  13.397  21.161  17.057  0.1418  0.2882 -0.1976
15012W        W58065  28.861  29.271  19.378  0.0655  0.3266  0.1407
15013W        W58066   7.479  33.427  23.616  0.0208 -0.0763 -0.1714
15014W        W58067   5.776  26.536  13.607  0.1039  0.1166  0.1444
15015W        W58068   5.116  33.679  13.196 -0.0417 -0.2122  0.1337
15016W        W58069   9.507  20.582   1.765 -0.0933 -0.2031  0.0660
15017W        W58070  29.464   7.457  21.743 -0.1293 -0.1248  0.3232
15018W        W58071   4.939  33.251  22.269 -0.1360  0.2531  0.1475
15019W        W58072   4.681  27.831  17.279  0.1565  0.1172 -0.0486
15020W        W58073  15.285  20.359  25.955  0.0785 -0.1087  0.0583
15021W        W58074  34.101  30.446  14.220  0.3186 -0.1429 -0.0098
15022W        W58075   9.751  32.072  26.898 -0.3193 -0.2717 -0.1115
15023W        W58076   3.587  11.226  26.213 -0.0400 -0.1465  0.0464
15024W        W58077  33.229  19.004   7.821 -0.0960 -0.1113  0.0794
15025W        W58078   6.896  33.604  15.393 -0.0443 -0.0584  0.1555
15026W        W58079  21.884  26.022  14.755 -0.0629 -0.0950  0.0035
15027W        W58080   5.618   2.817  14.447 -0.0205  0.1265 -0.3061
15028W        W58081   5.279  15.231  18.503  0.0007  0.0252 -0.3995
15029W        W58082  12.126  22.484  17.717  0.0062  0.1250 -0.1078
15030W        W58083  34.355  33.166  21.457  0.1324 -0.0130  0.1798
15031W        W58084  20.444  23.358  14.826 -0.0359  0.4154  0.1668
15032W        W58085  32.032   0.287  23.348 -0.1310  0.1802  0.0015
15033W        W58086  32.900  18.457  21.355  0.0685  0.0013 -0.1324
15034W        W58087   4.782  23.273   0.156  0.1831  0.0651 -0.0732
15035W        W58088  32.115  32.076  25.432 -0.1317 -0.1443 -0.0029
15036W        W58089  26.178  16.341   4.646 -0.0853  0.0018  0.1538
15037W        W58090  25.596  22.792  16.495 -0.1757  0.1728 -0.2395
15038W        W58091  17.457  10.884  22.101  0.1858 -0.3013  0.1640
15039W        W58092  26.510  28.490  25.776 -0.1654 -0.0580  0.0704
15040W        W58093   7.128  31.907  16.045  0.1186  0.2458 -0.2082
15041W        W58094  30.924  13.501  27.218 -0.0033 -0.0957 -0.1645
15042W        W58095  30.655  27.061  16.745 -0.2828  0.1400 -0.0389
15043W        W58096  33.972  27.321  27.736 -0.2312  0.1274 -0.0288
15044W        W58097  33.816  18.569  22.453  0.1447  0.2862  0.0847
15045W        W58098   1.333   0.455   1.553  0.0951 -0.2883 -0.2359
15046W        W58099  26.010   0.857  20.898 -0.2861 -0.0678  0.1422
15047W        W58100   2.496  32.726   1.507 -0.0880  0.1819 -0.0917
15048W        W58101  26.380  32.966   2.164  0.1532 -0.1989  0.0990
15049W        W58102   3.484  23.198   3.762  0.0063 -0.2118 -0.2026
15050W        W58103  25.597  10.082  17.478 -0.3913 -0.0774 -0.1116
15051W        W58104  17.034  24.118  18.135  0.2084 -0.0797  0.2500
15052W        W58105   4.969  29.428   6.280  0.0981 -0.1802  0.0046
15053W        W58106   0.502  13.272  26.350 -0.2045 -0.1203  0.1972
15054W        W58107  11.877  33.996   8.269 -0.3079  0.2038  0.1706
15055W        W58108  11.187  16.691  23.587  0.0474 -0.1271  0.2737
15056W        W58109  21.921  31.676  22.152 -0.1585  0.1583  0.0928
15057W        W58110   7.391  10.321  19.229  0.0258 -0.1039 -0.1627
15058W        W58111   2.294  26.954   3.015  0.1147  0.0240 -0.0938
15059W        W58112   0.270  12.314  18.287 -0.0857 -0.0352  0.1732
15060W        W58113  31.004   9.883  25.475 -0.3588 -0.0548 -0.4065
15061W        W58114  31.671  24.545  20.918  0.1417 -0.3685 -0.0448
15062W        W58115   7.510  25.181  18.197  0.0193 -0.1124 -0.1691
15063W        W58116   5.024  21.513   1.855 -0.0824 -0.5463  0.0853
15064W        W58117  32.404  28.103  16.310  0.0379  0.0676  0.1494
15065W        W58118   6.429  13.657  17.609 -0.0632 -0.1413 -0.1029
15066W        W58119  16.032   3.680  21.336 -0.0761  0.0728 -0.2696
15067W        W58120  11.368  13.917  28.414 -0.0949  0.2974 -0.1073
15068W        W58121   7.558  19.743  25.540  0.0013 -0.4983  0.0302
15069W        W58122   8.676  14.824  28.363  0.0088  0.0583  0.2916
15070W        W58123   2.826  21.936  19.910  0.0464 -0.4048 -0.0197
15071W        W58124  27.122  26.547  23.915 -0.0336  0.1468 -0.1471
15072W        W58125  30.942  33.593  18.701  0.5149 -0.0023 -0.0171
15073W        W58126   5.780  29.420  23.535 -0.1998  0.1295  0.2042
15074W        W58127   4.916  32.866  18.467  0.0608  0.0796  0.1275
15075W        W58128   4.969   2.796  14.424  0.0794 -0.0475  0.0177
15076W        W58129  22.365  19.478  21.280 -0.3851  0.0676 -0.0693
15077W        W58130  18.062  26.818   4.992 -0.4111  0.1923 -0.2103
15078W        W58131  17.791  33.616  18.010 -0.0633 -0.2199  0.1736
15079W        W58132   3.814  22.499  21.964 -0.3191 -0.2834  0.0772
15080W        W58133  14.899  34.119  14.720  0.1074 -0.0482 -0.0256
15081W        W58134  33.365  16.282  19.171 -0.0546  0.0402 -0.2748
15082W        W58135  27.578  18.779  22.239 -0.1612 -0.1155  0.2629
15083W        W58136   3.949   9.354  19.312 -0.0577 -0.0364 -0.2609
15084W        W58137   7.702  30.395   3.597 -0.1070  0.2839 -0.2083
15085W        W58138  24.715  10.966   4.976 -0.0964 -0.1133  0.3005
15086W        W58139   0.586  20.649  19.158  0.0957  0.1564  0.0854
15087W        W58140   6.708   5.098  16.582 -0.0006 -0.3057  0.0494
15088W        W58141  23.232  23.047  28.640  0.1676 -0.0991 -0.0142
15089W        W58142  22.761  25.786  25.532 -0.1103 -0.1394 -0.0873
15090W        W58143   4.460   4.206   6.095  0.0876 -0.0263 -0.1564
15091W        W58144  10.644  23.699  27.885  0.0581  0.0614 -0.2213
15092W        W58145  28.260  15.185  22.035  0.0192  0.1151 -0.2209
15093W        W58146   1.781  18.375  25.190  0.0030  0.1612 -0.4807
15094W        W58147   9.543  26.558  26.282  0.0175  0.2124  0.1715
15095W        W58148   0.885  26.999  27.901  0.0290 -0.2239  0.0119
15096W        W58149  12.268  12.638  18.712 -0.2429 -0.0910 -0.3686
15097W        W58150  13.025  24.210  28.371 -0.0309  0.1993  0.2329
15098W        W58151  31.903  21.793  28.959 -0.1803 -0.4134  0.2328
15099W        W58152  28.940  27.996  15.660  0.0447  0.0729 -0.0610
15100W        W58153  24.091  25.706  24.668 -0.0321  0.1674  0.0362
15101W        W58154   1.296  20.120  15.569 -0.0800 -0.2109  0.1196
15102W        W58155  32.185  26.214  24.665 -0.2423  0.0526 -0.1369
15103W        W58156  34.672  16.296   3.393  0.2292 -0.2299  0.0045
15104W        W58157  15.730  22.205  19.902  0.2345 -0.2823 -0.0185
15105W        W58158   1.333  24.821   7.862  0.1916 -0.2927  0.1036
15106W        W58159  25.744  18.127  16.951 -0.0324  0.1547 -0.1131
15107W        W58160  26.755  33.162  24.067 -0.0342  0.0782  0.0219
15108W        W58161  32.608  23.866   4.563  0.6281 -0.1286  0.0356
15109W        W58162   6.701  28.305  26.949 -0.1119 -0.2229  0.0957
15110W        W58163   5.853  16.682  21.283  0.2327 -0.1545  0.0924
15111W        W58164  27.262  32.290  19.421  0.1165  0.0836 -0.0839
15112W        W58165  16.274   5.843   4.962 -0.2437 -0.2000  0.0473
15113W        W58166  17.336  22.493  17.530 -0.1026 -0.0654  0.3720
15114W        W58167  17.250  25.673  17.651 -0.2835  0.1426  0.3291
15115W        W58168   8.404  21.084   5.924  0.2199 -0.2234 -0.1634
15116W        W58169  21.964  33.056  20.496  0.5420  0.0136 -0.2176
15117W        W58170  11.088  17.486   7.067 -0.3685  0.0017  0.0109
15118W        W58171   3.833   0.223  19.165 -0.3196 -0.1970  0.1260
15119W        W58172   4.054   6.337  21.291 -0.0026  0.2233  0.0157
15120W        W58173  12.081  22.896  22.780 -0.0352 -0.1218  0.0656
15121W        W58174   5.467   3.592  27.550  0.0434 -0.0129  0.0768
15122W        W58175  23.261   9.979  24.607  0.2242 -0.0419  0.0743
15123W        W58176  24.433   8.600   7.884 -0.1253  0.0640 -0.1433
15124W        W58177  25.727  23.377  25.756  0.0386  0.1719 -0.1863
15125W        W58178  10.032   1.091  28.815 -0.3071  0.1317 -0.0937
15126W        W58179  12.638  25.163  14.654 -0.1653  0.0831  0.2581
15127W        W58180  22.244  33.961  28.443 -0.1819  0.1124  0.0347
15128W        W58181  10.180   2.102   3.032  0.0441  0.0353  0.0515
15129W        W58182   1.024  14.492   1.151 -0.2234  0.1132  0.1366
15130W        W58183  33.242  11.254  19.652  0.0580 -0.2139 -0.1414
15131W        W58184   8.682  27.974  15.428  0.0356  0.0793  0.1605
15132W        W58185   2.346  11.319  25.412  0.1777 -0.1301  0.1343
15133W        W58186  33.627  34.582   3.102 -0.0691  0.3483  0.4219
15134W        W58187  19.085  15.261  12.919 -0.1037  0.3297  0.1298
15135W        W58188  14.201  21.026  24.987 -0.1244  0.0978 -0.5090
15136W        W58189   8.514  14.142  26.300  0.2134  0.2071  0.1411
15137W        W58190  11.308  30.708  19.351  0.1214 -0.1502 -0.3195
15138W        W58191  10.386   6.121   8.561  0.1794  0.2677 -0.0318
15139W        W58192   0.525  32.323   9.331 -0.1803  0.0262  0.1521
15140W        W58193  29.130  34.222  25.779 -0.0224 -0.1977 -0.1524
15141W        W58194  10.919  33.958  18.734  0.1709  0.4950  0.1487
15142W        W58195  12.003   1.339  28.134  0.0119  0.3063 -0.2216
15143W        W58196  30.876  31.256  20.942 -0.3463 -0.0345 -0.1116
15144W        W58197  23.117  28.768  17.953 -0.1060  0.0540 -0.1396
15145W        W58198  33.068  21.313   0.222  0.0751  0.0187  0.2623
15146W        W58199   2.182  29.418   2.146 -0.1177  0.2065  0.1575
15147W        W58200  15.655  21.484  14.543 -0.0172 -0.0497 -0.1808
15148W        W58201   0.287  25.409  20.066  0.1078 -0.1761 -0.1613
15149W        W58202  33.372  32.673  14.993 -0.0060 -0.0470 -0.1968
15150W        W58203  29.950  19.398  25.007 -0.0656  0.0679 -0.2938
15151W        W58204  14.858  23.096   2.916 -0.2036  0.1636 -0.2957
15152W        W58205  34.641   5.776  27.511 -0.3740 -0.1021 -0.2183
15153W        W58206  12.934   0.102   0.573  0.0726  0.3871  0.0984
15154W        W58207   2.058  14.129   5.348 -0.1035 -0.1281  0.3580
15155W        W58208   4.981  30.277  19.456 -0.0591 -0.0470 -0.1056
15156W        W58209  30.051  17.497  15.445 -0.1916  0.1299 -0.0897
15157W        W58210  11.806  12.598   0.526 -0.1074 -0.1880  0.1278
15158W        W58211  30.605  29.466  25.169 -0.1377 -0.0973  0.0623
15159W        W58212   0.707  22.530  19.863 -0.0695 -0.1210 -0.0108
15160W        W58213   9.762  25.189  16.244  0.1221 -0.1349  0.0202
15161W        W58214   2.214   0.190   2.797 -0.0462  0.1419  0.0910
15162W        W58215  15.441  29.194  28.401  0.2392  0.2360  0.0109
15163W        W58216  25.777  29.795   4.641 -0.2502  0.1109  0.1428
15164W        W58217  25.620  19.643  18.166 -0.1502 -0.3200 -0.0314
15165W        W58218  34.636  18.394  18.576  0.3024  0.1012  0.1349
15166W        W58219  29.854  27.344  22.031  0.2740  0.1273  0.0201
15167W        W58220   7.931  29.325   3.434 -0.0526 -0.2272 -0.1169
15168W        W58221   4.577  26.480   0.290  0.1653  0.0510  0.0830
15169W        W58222   2.655  33.963  18.525 -0.0429  0.0470 -0.2874
15170W        W58223  12.366  23.549  15.810  0.0806  0.1694 -0.1844
15171W        W58224  32.364  26.183  23.382 -0.2481  0.1290 -0.1847
15172W        W58225  16.129  10.451  25.679  0.1710  0.1048  0.0225
15173W        W58226   0.775  25.252  17.883 -0.0337  0.1692 -0.3536
15174W        W58227   1.583  14.011  19.208 -0.1145  0.0357 -0.0189
15175W        W58228   9.527   2.584  17.929 -0.5025  0.2212 -0.2578
15176W        W58229  29.524  29.358  23.426  0.0039  0.5020  0.0982
15177W        W58230   0.949   0.471   7.169 -0.0790 -0.1754 -0.1594
15178W        W58231  34.104  28.518  25.015  0.2815 -0.1096 -0.1775
15179W        W58232  27.804   4.633  21.220 -0.3023 -0.0049 -0.2698
15180W        W58233   1.918   0.108  14.939 -0.5014  0.0609  0.2161
15181W        W58234  28.103  23.879  15.314 -0.3963  0.3607  0.0787
15182W        W58235  33.430  17.815   8.046 -0.0817 -0.1034 -0.0900
15183W        W58236  18.412  22.997   3.383 -0.0988  0.1089  0.1690
15184W        W58237   5.628  28.331   5.857  0.0733  0.1240  0.3846
15185W        W58238   3.364  10.412   1.116 -0.0922  0.0212  0.0141
15186W        W58239   7.465  29.471  24.997 -0.0217  0.0658 -0.3299
15187W        W58240  12.079  23.197  28.869  0.0428  0.0887 -0.2350
15188W        W58241   7.670   9.472  15.186 -0.2194 -0.2079 -0.2785
15189W        W58242  34.057  17.215  24.797  0.1186 -0.1797 -0.1010
15190W        W58243  31.803  26.371  21.027 -0.1724  0.0207  0.0881
15191W        W58244   1.958  17.073  27.563  0.0199 -0.2691 -0.0178
15192W        W58245  27.317  20.863   4.554 -0.0665 -0.1012  0.2670
15193W        W58246   0.598  34.070  22.143  0.2551 -0.0864 -0.0024
15194W        W58247  16.624  27.709  26.153  0.0288 -0.0952 -0.1122
15195W        W58248  32.579  21.377   1.969 -0.3955 -0.1147  0.0467
15196W        W58249   5.462   2.589   2.213  0.1529  0.0790  0.2820
15197W        W58250   1.561  27.538  20.609 -0.1147 -0.1768  0.0688
15198W        W58251  25.813  17.301  25.279 -0.0539 -0.3077  0.2193
15199W        W58252   3.017  22.401   2.829 -0.1438  0.1127 -0.0719
15200W        W58253  16.257  31.400   2.587 -0.1079  0.2534  0.1066
15201W        W58254  33.053  20.755  18.563  0.1285 -0.1046 -0.0874
15202W        W58255  23.359  19.047   3.945 -0.1273 -0.0158  0.0598
15203W        W58256  32.660  19.723  23.122 -0.3073  0.1499 -0.0553
15204W        W58257  20.363  20.219   8.397 -0.1828  0.0197 -0.2206
15205W        W58258  33.826  20.404  25.711  0.0633 -0.0519  0.1367
15206W        W58259  32.869  15.977  23.610 -0.0500  0.1127  0.3315
15207W        W58260  34.674  29.001  25.231 -0.0459 -0.0529 -0.1386
15208W        W58261   4.787  32.286  14.766 -0.0953  0.1998  0.1132
15209W        W58262   1.253  25.047   1.398 -0.0249  0.2542  0.2174
15210W        W58263   7.503  25.686   2.626  0.2010 -0.1432 -0.0174
15211W        W58264   1.371  34.214  25.000 -0.2058 -0.0264  0.1302
15212W        W58265   3.129   2.786  16.705  0.2349  0.1693 -0.0213
15213W        W58266  24.168  19.928  28.514  0.6017  0.0369 -0.2881
15214W        W58267  10.058  24.309  15.779  0.1129 -0.0455  0.1194
15215W        W58268  33.253   0.644   0.667  0.3315  0.0259  0.0789
15216W        W58269  15.733  20.812   6.276 -0.0930 -0.0434  0.4012
15217W        W58270   0.984  33.014   1.734  0.0780 -0.0690  0.1021
15218W        W58271  14.467   2.195   7.488 -0.0560  0.1126  0.0038
15219W        W58272  23.709   1.256  19.088 -0.0962  0.1194 -0.1914
15220W        W58273  33.611   7.295  27.756  0.3042 -0.0888  0.2053
15221W        W58274  28.909  32.624   5.702  0.1456 -0.0494 -0.0848
15222W        W58275   3.247  26.183   3.319  0.0290  0.0065 -0.1517
15223W        W58276   2.439  22.233   6.794  0.1649 -0.0946  0.0525
15224W        W58277   5.302  25.373  15.970  0.0707 -0.0997  0.2700
15225W        W58278  11.271   6.947  15.484  0.2319 -0.1038 -0.1490
15226W        W58279  16.832  14.041  14.167  0.0618 -0.3288  0.1556
15227W        W58280  21.079  25.576   0.854  0.0058  0.1070 -0.1224
15228W        W58281  21.850  22.065  27.448 -0.2575  0.1419  0.1625
15229W        W58282   3.268  11.665   4.459 -0.2259  0.0934 -0.0487
15230W        W58283  33.233  20.404   0.132  0.0127 -0.3225 -0.3742
15231W        W58284  33.420   4.837   0.024  0.0170  0.1844  0.2765
15232W        W58285   1.754  31.177  28.167  0.1470 -0.0508  0.2488
15233W        W58286  18.340   1.789  26.991  0.1275  0.1488 -0.0117
15234W        W58287  34.092  15.891   0.556 -0.3105  0.0361  0.0782
15235W        W58288  34.206  28.962  17.278 -0.0542  0.1352 -0.1378
15236W        W58289   9.447  13.742   6.438 -0.0023 -0.3991 -0.3699
15237W        W58290   3.782  12.783  23.609  0.0650 -0.0166 -0.2741
15238W        W58291  33.404  27.423  27.998 -0.0361  0.1761 -0.0778
15239W        W58292  31.789  27.305  17.947  0.1897 -0.0094 -0.0447
15240W        W58293   0.185  27.080  24.481  0.1790 -0.1109  0.2631
15241W        W58294  21.625  28.660   5.279 -0.0211 -0.0078  0.1508
15242W        W58295   3.228  20.429  17.396 -0.4044  0.0562 -0.2286
15243W        W58296  34.600  30.348  22.962  0.0636  0.0731 -0.0234
15244W        W58297  11.624  22.088  24.129 -0.0012 -0.1222 -0.3624
15245W        W58298  22.101  32.026  21.820  0.0996 -0.0242 -0.2728
15246W        W58299   1.790  12.996   4.686  0.2276 -0.4735  0.0592
15247W        W58300  23.621  10.993   5.221  0.2766  0.1588  0.1148
15248W        W58301   6.487  23.815  19.575  0.2782  0.3352 -0.5001
15249W        W58302  27.857   7.661   4.342 -0.0840  0.2180  0.0570
15250W        W58303   5.564  21.801   0.776 -0.2254 -0.2650 -0.1377
15251W        W58304  12.433  21.617   8.848 -0.0246 -0.0432 -0.0161
15252W        W58305   5.395  17.264   6.859  0.0820 -0.1946 -0.2238
15253W        W58306   4.625  22.402   7.249  0.4665 -0.1920 -0.0859
15254W        W58307  13.141  25.703   0.335  0.3514  0.5466  0.2954
15255W        W58308  29.675  34.314   6.607 -0.3404  0.0559 -0.4436
15256W        W58309  13.595  24.997   9.366  0.0302 -0.0086 -0.0220
15257W        W58310  30.273  16.135   2.067  0.2625  0.2703 -0.0351
15258W        W58311   5.093  33.212   3.916 -0.0931  0.1244 -0.0685
15259W        W58312  18.293  20.097  25.474  0.3115  0.2460 -0.4267
15260W        W58313  27.485   5.378   2.165 -0.0616  0.1701  0.0827
15261W        W58314  16.149  19.144   0.985 -0.2799  0.1710  0.0252
15262W        W58315  26.992  23.875   9.897  0.0181  0.3201  0.0618
15263W        W58316   9.970   0.597  26.039  0.2160  0.0572  0.0824
15264W        W58317  20.316  24.236  15.208 -0.1230  0.0795  0.1461
15265W        W58318  19.232  27.010  24.936 -0.0408 -0.2686  0.1018
15266W        W58319  31.757  14.110  26.993  0.0987 -0.1927 -0.3252
15267W        W58320  18.649  22.192  25.038 -0.0974  0.4217 -0.0531
15268W        W58321   8.665   6.349  20.299  0.0009  0.1867  0.0148
15269W        W58322  13.341  30.960  17.836 -0.0158 -0.1651 -0.3144
15270W        W58323  10.237  29.821   3.636  0.2061 -0.1731  0.0726
15271W        W58324  31.956  16.683  27.045  0.0405  0.0094 -0.0836
15272W        W58325  18.166  13.003   7.124 -0.1230  0.0692 -0.0186
15273W        W58326  34.577  34.312   4.758  0.1880  0.2785  0.0123
15274W        W58327   1.406   5.807   6.549 -0.2895 -0.2730  0.1042
15275W        W58328  21.114  26.615   7.095 -0.2778 -0.1120  0.1008
15276W        W58329   2.148   0.456  16.083 -0.0702 -0.0031 -0.3555
15277W        W58330   9.337  26.650  20.720 -0.1376  0.1845 -0.0997
15278W        W58331   2.272  14.120  22.933 -0.1373  0.2549 -0.0465
15279W        W58332  34.014  22.036  28.798 -0.0469 -0.1137  0.4062
15280W        W58333  15.945  33.141  14.025 -0.3204  0.1825 -0.0105
15281W        W58334  32.956  33.152   4.047  0.0107 -0.0425 -0.3215
15282W        W58335  12.337   7.951  29.107  0.1965  0.3130  0.0009
15283W        W58336  27.065  16.484  25.998 -0.3055  0.0061  0.0486
15284W        W58337  29.627   3.564  19.554  0.0878 -0.2540 -0.1272
15285W        W58338  21.373  29.060  28.800  0.0499  0.1543  0.0802
15286W        W58339  32.362  23.502  19.440 -0.1195 -0.0469  0.1305
15287W        W58340  32.480   9.195  16.075 -0.0247 -0.0729  0.2808
15288W        W58341  20.680   4.118  23.109  0.3480 -0.0403  0.1630
15289W        W58342  33.474  22.140   6.774 -0.4886 -0.0632 -0.2966
15290W        W58343   9.946  32.326   3.787 -0.1643  0.1246  0.1717
15291W        W58344  11.368   9.086  26.520  0.1245 -0.2923 -0.2639
15292W        W58345  12.724  17.100  14.023 -0.0406  0.1839  0.1695
15293W        W58346   3.133  23.457  15.536 -0.1476 -0.2108  0.2247
15294W        W58347  23.614  13.726  19.435 -0.3145  0.1828  0.1508
15295W        W58348  31.822  21.531   7.643 -0.2935 -0.3966  0.2614
15296W        W58349  33.719   0.832  21.602 -0.0609 -0.1161 -0.0906
15297W        W58350  31.935   6.444   5.220  0.0771  0.0180  0.1933
15298W        W58351  31.102   2.370   0.770  0.0495 -0.3883  0.3777
15299W        W58352  19.627   0.374  16.820  0.3068  0.2343 -0.0912
15300W        W58353   1.362  28.032  24.288 -0.1125  0.0324 -0.0460
15301W        W58354   7.617   4.960  17.472  0.2159  0.2329  0.1264
15302W        W58355  34.024  31.581  21.341 -0.1163 -0.0329 -0.1956
15303W        W58356   1.065  25.451   3.490 -0.0187 -0.1291 -0.1648
15304W        W58357   0.666  29.294   3.022 -0.1252  0.0162  0.3459
15305W        W58358  13.698  24.008  24.116  0.0198 -0.3177  0.0644
15306W        W58359   2.300  18.376   2.940  0.1202  0.0744 -0.0589
15307W        W58360  12.395   5.991  28.019  0.2315 -0.1344 -0.4236
15308W        W58361   6.269  24.103   2.293 -0.0515  0.0406  0.1486
15309W        W58362  18.749  12.251   2.603  0.0128  0.2893 -0.0739
15310W        W58363  29.776   2.668  28.828 -0.0783 -0.0830 -0.1077
15311W        W58364  25.500  12.662  27.501  0.0995 -0.1365  0.2502
15312W        W58365   3.435  12.927   0.750 -0.1050 -0.1381 -0.2195
15313W        W58366  33.584  27.922   2.432 -0.2242  0.0399  0.2125
15314W        W58367  11.176   0.817  26.051 -0.1239  0.4928 -0.2722
15315W        W58368  31.311  27.397  20.751  0.3366  0.1461  0.0750
15316W        W58369  25.853  27.892   2.564 -0.1290  0.0133  0.2322
15317W        W58370  10.900  15.411  10.373 -0.0813  0.0990  0.0765
15318W        W58371   0.365  19.790  22.138 -0.0506 -0.1440 -0.1244
15319W        W58372   6.332  34.118  25.635  0.2424  0.1446 -0.0184
15320W        W58373   9.450  13.153  16.899 -0.0685  0.2388  0.0152
15321W        W58374  27.638  31.649  17.864  0.0843 -0.0109  0.2866
15322W        W58375  11.758  16.522  27.440 -0.4455  0.3073 -0.2333
15323W        W58376  30.581  26.027  10.471  0.0296 -0.0736  0.0536
15324W        W58377  30.485  18.306  21.135  0.0106  0.2071 -0.3675
15325W        W58378  12.420  11.164   2.303  0.0429 -0.0483 -0.5761
15326W        W58379   5.265  12.960  28.630 -0.1090  0.1335  0.2224
15327W        W58380   0.030  25.253  22.890  0.2767  0.1160 -0.2185
15328W        W58381  10.511   5.661   6.314  0.0098 -0.1930  0.0938
15329W        W58382   0.109  32.651  20.914 -0.0840 -0.0355  0.0635
15330W        W58383   5.154  25.017   9.965  0.1732 -0.0946  0.0372
15331W        W58384  34.281  21.702  19.320 -0.3390  0.2768  0.1141
15332W        W58385   5.250   2.356   2.691 -0.3968 -0.2225 -0.0049
15333W        W58386  34.275  26.686  28.249  0.1758 -0.0093 -0.0735
15334W        W58387   5.573  15.234   8.078  0.0128  0.0593  0.2669
15335W        W58388   6.167  33.308   7.856 -0.1164  0.1196 -0.0465
15336W        W58389   0.312  22.228   8.562 -0.1719  0.0102 -0.2666
15337W        W58390   4.222  18.007   8.408  0.2605 -0.0150  0.4320
15338W        W58391  25.472  20.917  23.285  0.3698 -0.2176 -0.2621
15339W        W58392   5.998  23.477   8.532 -0.0807 -0.0393 -0.1628
15340W        W58393  33.637  22.266  28.492  0.0088 -0.0405 -0.2017
15341W        W58394  29.863  27.190  23.660  0.1965  0.1993 -0.2936
15342W        W58395  26.488  33.366  15.366  0.1874 -0.1565  0.2216
15343W        W58396   3.540  23.172  28.974 -0.0882 -0.1259 -0.0218
15344W        W58397  34.465  22.514   7.064 -0.1127  0.1264 -0.0863
15345W        W58398   8.762  30.309  24.529 -0.3979 -0.0947 -0.0753
15346W        W58399  26.666   8.330  23.570  0.2126  0.0273  0.2969
15347W        W58400   0.605   5.605  14.195  0.0365 -0.1643  0.1276
15348W        W58401  10.819  24.362   1.277  0.0566 -0.0065 -0.0036
15349W        W58402   4.566  31.166   6.594  0.0881  0.1903  0.3667
15350W        W58403  33.707  10.156  22.753 -0.0600 -0.0533 -0.0269
15351W        W58404  19.792  14.181   3.717  0.2917  0.0408 -0.1311
15352W        W58405  30.878  20.989  19.109 -0.3052  0.2846  0.2091
15353W        W58406  11.682  25.457  26.894 -0.0777 -0.1238 -0.0443
15354W        W58407  30.731  32.674  21.702 -0.2635 -0.2874 -0.1054
15355W        W58408   0.120  24.038  20.570 -0.1044 -0.3923  0.0086
15356W        W58409  27.031  23.530  20.076 -0.3814  0.2589  0.3135
15357W        W58410  33.120  32.455  22.787  0.0758 -0.2986 -0.0679
15358W        W58411  28.338   1.939  27.158  0.1485  0.0138  0.1679
15359W        W58412   8.328  17.485  28.333 -0.1659 -0.0610  0.0853
15360W        W58413  31.507  30.738  21.906  0.0442  0.1991 -0.0596
15361W        W58414  23.677  26.743  28.790 -0.1103 -0.1582 -0.1277
15362W        W58415   1.960  22.321  25.567 -0.3510 -0.2485 -0.0071
15363W        W58416  18.568  16.531  14.621  0.0580 -0.1127  0.0270
15364W        W58417  11.685  11.709  28.766  0.0729 -0.3201 -0.0556
15365W        W58418  30.988  29.783  15.562  0.0112  0.0318  0.1658
15366W        W58419   7.076  24.489  13.854  0.0202 -0.3061 -0.0981
15367W        W58420  31.958  23.746  28.726 -0.1141 -0.0485  0.1024
15368W        W58421   5.058  27.837  18.330 -0.0131 -0.0514 -0.2420
15369W        W58422   7.630  10.979  26.068  0.1068  0.2830  0.2723
15370W        W58423  10.599   4.682   3.419  0.3027 -0.3836  0.0989
15371W        W58424  23.469  32.960   1.477  0.0152 -0.1122 -0.1133
15372W        W58425  16.082  31.756   4.563  0.3900  0.1223 -0.1694
15373W        W58426   1.853  21.360   9.413  0.0683 -0.0119 -0.1310
15374W        W58427  15.664  33.321   1.249  0.2329  0.1780  0.1872
15375W        W58428   5.758  18.735  26.654 -0.1403  0.0955  0.0687
15376W        W58429  33.069  32.882   9.581  0.1276 -0.2531 -0.1121
15377W        W58430  24.211  30.133   8.745  0.2797 -0.0704  0.0281
15378W        W58431  32.811  30.195  14.810 -0.1780  0.0011 -0.1204
15379W        W58432  32.882  17.581  28.755 -0.5475 -0.0062  0.1668
15380W        W58433  29.333  32.891  28.541  0.1147 -0.1513 -0.0603
15381W        W58434   8.381   5.049   4.728  0.1307 -0.2323  0.0590
15382W        W58435  25.961  26.486   3.085 -0.0955  0.0012 -0.3866
15383W        W58436  10.932   1.153  28.535  0.2130 -0.0127 -0.3165
15384W        W58437  13.073  21.952  22.018  0.1159 -0.3057 -0.3728
15385W        W58438   0.529  26.686  14.193  0.1480 -0.3092 -0.0344
15386W        W58439  11.829   9.444  27.288 -0.3743 -0.1265 -0.1645
15387W        W58440  28.039  32.643  13.619 -0.0158 -0.0232 -0.4720
15388W        W58441   5.558   3.924  23.708  0.1702 -0.3849 -0.1428
15389W        W58442  20.876  21.990  23.844 -0.5522  0.0405 -0.3437
15390W        W58443   8.644  19.339  24.885  0.0941  0.2527 -0.4631
15391W        W58444   3.915  31.608  29.028 -0.1027 -0.2231 -0.1488
15392W        W58445  15.240  10.393  28.356 -0.3912  0.4169 -0.4557
15393W        W58446  33.781  13.836  16.292 -0.0915 -0.1537 -0.3184
15394W        W58447  28.375  29.766   5.839 -0.3457  0.0129  0.1155
15395W        W58448  27.366   6.685  25.948  0.0703  0.2776 -0.3652
15396W        W58449   1.424  34.482  19.636  0.0495 -0.3493 -0.0497
15397W        W58450  25.588  29.919  25.688 -0.2854  0.1625 -0.1775
15398W        W58451   4.070  22.888  26.890  0.2348  0.1074  0.3780
15399W        W58452  30.183  32.387  17.924 -0.0775 -0.0030 -0.2076
15400W        W58453  30.325  22.874  19.984  0.0186  0.0281 -0.2247
15401W        W58454   8.606  22.293  13.240 -0.2255 -0.0590 -0.1491
15402W        W58455  25.310  20.124   5.601 -0.1396 -0.2253  0.0245
15403W        W58456  28.860  18.443  25.240 -0.0247 -0.2902  0.0220
15404W        W58457  29.675  26.038  28.748 -0.1223  0.0970 -0.2504
15405W        W58458  32.248  11.672  15.784 -0.0188  0.1631  0.0115
15406W        W58459  23.979  14.248  29.075 -0.5814 -0.2597 -0.1391
15407W        W58460  12.210  19.435  21.659  0.1475 -0.1156  0.2847
15408W        W58461   1.172   0.823   9.249  0.2881  0.0539  0.2800
15409W        W58462   5.602  29.637   2.590 -0.0437 -0.1226 -0.1682
15410W        W58463   8.490  16.590  25.288  0.1648 -0.1328 -0.4963
15411W        W58464  28.079  32.345   0.940  0.2204  0.1568 -0.2420
15412W        W58465   5.338  28.492  20.976  0.3976 -0.1502  0.0218
15413W        W58466   5.396   9.455   1.073  0.2614 -0.3503 -0.0809
15414W        W58467   9.967   0.781  24.760 -0.1147  0.0720  0.0009
15415W        W58468  31.904  16.965   9.275 -0.0873 -0.1795 -0.0849
15416W        W58469   2.948  12.009   4.824 -0.3087 -0.4764 -0.0884
15417W        W58470   8.815  19.307  16.320  0.3116  0.1899 -0.3310
15418W        W58471  31.999  15.339  29.145  0.1641 -0.2231  0.0497
15419W        W58472  17.846   0.555  18.148 -0.0949 -0.1216 -0.0400
15420W        W58473   6.000   0.718  19.597  0.0444  0.1053 -0.2018
15421W        W58474  13.602  21.573  22.704  0.5743  0.2921 -0.1370
15422W        W58475  27.230  30.007  15.964 -0.1379  0.1165 -0.3258
15423W        W58476  31.913  31.761  18.074  0.1216  0.0719 -0.0866
15424W        W58477  33.982  21.257   0.319  0.2445 -0.1171 -0.3904
15425W        W58478   0.719   5.750   1.250  0.0162 -0.0760 -0.0624
15426W        W58479  34.490  29.481  13.624  0.0705 -0.0548 -0.1734
15427W        W58480  26.570  28.877   4.354 -0.0123 -0.0311  0.0975
15428W        W58481  31.560  18.432  26.710  0.0812  0.1351  0.3691
15429W        W58482  22.111  19.934  17.123 -0.0211 -0.1239 -0.1019
15430W        W58483  20.798   2.813  22.383 -0.1461  0.1782  0.1974
15431W        W58484  28.614  15.525  27.888  0.1303 -0.2853 -0.0913
15432W        W58485  13.366  24.172   0.295 -0.1746  0.2621 -0.0693
15433W        W58486  23.511  27.658  24.422  0.1934 -0.0303 -0.1633
15434W        W58487   8.222  23.330  16.526 -0.0727 -0.0439 -0.0225
15435W        W58488  34.479   4.043  10.341  0.3739 -0.1970  0.0584
15436W        W58489   0.002  26.691  15.179  0.1954 -0.2368 -0.1596
15437W        W58490  18.083  28.867   9.582  0.2789  0.0383 -0.0752
15438W        W58491   0.278  19.812  24.714 -0.0329  0.0638 -0.0260
15439W        W58492   1.507  26.657  28.979 -0.2082 -0.1447  0.0861
15440W        W58493   0.586  28.135   1.091 -0.2524 -0.2233 -0.1404
15441W        W58494   7.799  32.228  18.209  0.1585 -0.1808  0.1114
15442W        W58495  17.231  19.902   3.019 -0.0591 -0.0136  0.0763
15443W        W58496  19.665  19.744   0.314 -0.0117  0.2539 -0.0298
15444W        W58497  29.581  11.230   0.011  0.1194  0.0616  0.2331
15445W        W58498   0.800  33.027  16.931  0.0988 -0.2399 -0.0830
15446W        W58499  15.628  17.517  25.231  0.2947 -0.3031  0.0772
15447W        W58500  31.226   0.322   9.236  0.5312 -0.3361  0.0177
15448W        W58501  29.886  26.412  18.324 -0.0025 -0.0148  0.0401
15449W        W58502   9.315  21.430   7.521  0.0073  0.0328 -0.1473
15450W        W58503  33.945  26.677  15.087  0.0136  0.3588 -0.1555
15451W        W58504  31.517  28.230  14.535 -0.1730 -0.1958  0.0065
15452W        W58505   0.949  20.923  18.327  0.1596  0.3502 -0.0805
15453W        W58506  13.482  26.186  28.173  0.0640 -0.0034 -0.0761
15454W        W58507  24.141   0.676  24.904  0.3671  0.1691  0.1913
15455W        W58508  31.361   2.762  18.807 -0.1121  0.0402 -0.6221
15456W        W58509  25.260  18.896   5.328  0.0952 -0.0940  0.0877
15457W        W58510   9.588  11.489  22.856 -0.1720  0.1352  0.1550
15458W        W58511   0.787  19.795  21.795  0.2492  0.0233 -0.0379
15459W        W58512   2.416  31.586   4.389  0.1503 -0.2638 -0.4220
15460W        W58513   5.938  21.751  22.596  0.0581  0.0258 -0.2141
15461W        W58514  10.316   3.833  25.483  0.0419 -0.1751 -0.0359
15462W        W58515  16.774  30.830  19.563 -0.0063 -0.3236  0.1688
15463W        W58516   3.481  34.216  25.247  0.0195  0.1113 -0.3952
15464W        W58517   0.610   0.857   0.991 -0.2531 -0.1149 -0.2347
15465W        W58518   2.802  30.092  13.412  0.0468  0.1987 -0.0470
15466W        W58519  30.756  32.484  27.847  0.1554  0.2337  0.0933
15467W        W58520   7.824  15.012  21.813  0.2768  0.2071  0.0604
15468W        W58521  21.538  12.335   5.726  0.2536 -0.3460 -0.1248
15469W        W58522   9.992  33.399  23.369  0.4585 -0.2232 -0.2082
15470W        W58523  31.315  34.118   4.528  0.3525  0.2878  0.0765
15471W        W58524   0.788  32.721   2.188 -0.0343 -0.1603 -0.0282
15472W        W58525  28.114  18.515  17.515  0.2320 -0.0076 -0.1755
15473W        W58526  33.462  30.411   4.578  0.2831  0.1375 -0.0750
15474W        W58527  23.402  23.002   7.446  0.1421  0.0253  0.0278
15475W        W58528   7.697  17.032  18.036  0.0198  0.0325  0.1199
15476W        W58529   7.093  31.039  25.083 -0.0176 -0.1277  0.1299
15477W        W58530   2.819  34.442  23.379  0.3462 -0.0363  0.4868
15478W        W58531   6.724  12.196   8.620 -0.1431 -0.0396 -0.1033
15479W        W58532   6.806  32.881  21.387  0.1045 -0.2616 -0.1311
15480W        W58533   1.966  34.048   8.570  0.1600  0.2846  0.1078
15481W        W58534  27.349  18.893  25.224  0.1432 -0.3341  0.2729
15482W        W58535  10.248   5.233  26.594 -0.2577 -0.1878  0.0132
15483W        W58536  19.781  23.809  26.667  0.1583  0.1743  0.1236
15484W        W58537   0.104  11.725  17.565  0.0415  0.2601 -0.1072
15485W        W58538  27.253  23.447  16.134  0.1534 -0.1537  0.1593
15486W        W58539  27.344   6.486   0.211  0.1998 -0.0704 -0.1056
15487W        W58540  31.175  16.811  14.010  0.0029  0.1911 -0.0572
15488W        W58541  33.152  16.967  25.182 -0.4925 -0.1349  0.1487
15489W        W58542   0.908  26.253  16.114 -0.0491 -0.2541 -0.0707
15490W        W58543  31.442  16.731  28.136 -0.1664  0.0214 -0.2385
15491W        W58544  29.304  24.123   6.346 -0.0388 -0.1795 -0.1727
15492W        W58545   8.469  12.904   9.044  0.3754 -0.0020 -0.2157
15493W        W58546  16.904  23.909  17.474  0.1243 -0.0346 -0.1499
15494W        W58547   4.258   0.383   8.271  0.0484  0.2800  0.2562
15495W        W58548   8.909  31.842  28.239  0.3015 -0.0089  0.2144
15496W        W58549  22.960  33.241  21.173 -0.0660 -0.0953 -0.2418
15497W        W58550  34.595  27.377   7.763 -0.1358  0.0282  0.1590
15498W        W58551   6.021  28.288   6.257 -0.0017 -0.0683 -0.0760
15499W        W58552  15.525  28.399  18.478  0.1287 -0.0234 -0.0168
15500W        W58553  23.088  25.823   5.610 -0.1354  0.0137 -0.0638
15501W        W58554  24.612  17.394   1.491 -0.0928 -0.0630 -0.1195
15502W        W58555   7.644  23.988  16.905 -0.0113  0.1484 -0.0314
15503W        W58556  22.376   0.828  18.571 -0.3439 -0.0494 -0.3343
15504W        W58557  31.801  12.823  21.575  0.2166  0.2754 -0.0818
15505W        W58558  24.276  26.127   5.748 -0.1041 -0.0012  0.1442
15506W        W58559  32.460  10.408   4.097 -0.0745 -0.2931 -0.1652
15507W        W58560  14.972  28.105  28.824  0.1309 -0.0779  0.1632
15508W        W58561  29.386  18.817  17.984 -0.1171  0.0744  0.2065
15509W        W58562   3.947  34.158  24.967 -0.0389  0.0525 -0.1688
15510W        W58563  26.571  29.833   0.082 -0.1300 -0.1495 -0.2704
15511W        W58564  17.175  25.558  26.146 -0.3232 -0.0470 -0.1082
15512W        W58565   6.031  12.580  21.759  0.1046 -0.2284 -0.0963
15513W        W58566  30.007  13.319  11.142  0.1425  0.3027  0.1007
15514W        W58567  21.043  22.156   3.219  0.2573 -0.0286 -0.3194
15515W        W58568  28.477  19.683   6.270 -0.0506  0.0853 -0.2261
15516W        W58569   3.973   4.966  18.145  0.0782 -0.1796  0.0113
15517W        W58570  15.697  11.241  27.636 -0.0156 -0.0246 -0.0001
15518W        W58571  30.283  30.692   2.195 -0.0077  0.2208 -0.2277
15519W        W58572  12.135   3.815  14.131  0.1829 -0.0449  0.0360
15520W        W58573   4.597  27.597   5.955 -0.3019 -0.0813 -0.1959
15521W        W58574   5.443  33.354  23.638 -0.0077  0.0463 -0.0517
15522W        W58575  31.980  25.344  19.591 -0.1906 -0.0032 -0.3863
15523W        W58576   6.224  33.099   3.179 -0.0244  0.0003 -0.0300
15524W        W58577  24.630  26.414   6.026 -0.3059  0.0591 -0.0276
15525W        W58578  12.914   0.741   5.548 -0.2894  0.0973 -0.1208
15526W        W58579   4.691  18.932   1.923 -0.1669  0.0598  0.1094
15527W        W58580  21.296  24.586   8.343  0.0609 -0.0416  0.1239
15528W        W58581   2.018   7.562  17.169 -0.0848  0.0265  0.1266
15529W        W58582  19.435   6.609   2.047 -0.0754  0.2957 -0.0752
15530W        W58583  12.411  34.200  16.156  0.0286 -0.0616  0.1301
15531W        W58584  22.723  13.872  20.671 -0.0064  0.1407  0.0291
15532W        W58585  24.300  12.169  23.515  0.1709 -0.1654 -0.0778
15533W        W58586   9.677  30.550  27.021  0.0741  0.0058  0.0755
15534W        W58587  20.191  20.872  15.049 -0.1792  0.2353  0.2605
15535W        W58588  11.426  24.239  16.198  0.0003 -0.1542  0.1442
15536W        W58589   7.028  22.804  21.178  0.2382 -0.1988 -0.2450
15537W        W58590  15.197  26.592  26.974 -0.0426 -0.3642  0.0743
15538W        W58591   1.353  29.181  20.708 -0.2445 -0.1000  0.1024
15539W        W58592   4.246  29.362   8.210  0.0916  0.2614  0.2157
15540W        W58593  24.738  29.261   7.399  0.1740 -0.0132 -0.1047
15541W        W58594   2.865   0.439  28.024  0.0646 -0.0904  0.0558
15542W        W58595   4.964  32.380  13.254  0.1796 -0.0814  0.2831
15543W        W58596  34.036  17.649  21.377 -0.2870 -0.1803 -0.0279
15544W        W58597  22.633  26.992  18.122  0.3784  0.2300  0.1291
15545W        W58598  26.076  22.150   1.501 -0.3401 -0.0529  0.1206
15546W        W58599  30.969  16.900   9.769 -0.2179 -0.1306 -0.0819
15547W        W58600  33.170   4.570   3.458  0.0443  0.1850  0.0413
15548W        W58601  31.845  33.166   6.967  0.0529 -0.0236  0.0655
15549W        W58602   7.753  23.468  21.191 -0.4915  0.0843  0.1642
15550W        W58603   1.704  23.884  17.198 -0.0878  0.1040 -0.1955
15551W        W58604  18.319  11.130  26.399  0.1572  0.1936  0.2003
15552W        W58605  32.117  30.995  22.651 -0.0263 -0.4617  0.3092
15553W        W58606  17.193  30.399  27.177 -0.2554 -0.0591  0.0018
15554W        W58607  15.473  25.843   7.920  0.0251  0.0156 -0.1981
15555W        W58608   0.637  24.720  25.009 -0.0917 -0.2076  0.1362
15556W        W58609   3.251  23.477  24.715 -0.1463 -0.0082  0.4587
15557W        W58610  15.083  14.335   7.234  0.1332 -0.0166 -0.0169
15558W        W58611  21.024  23.655   6.021  0.0182  0.0673  0.2734
15559W        W58612  24.851  22.769  20.781  0.0455  0.0715 -0.0268
15560W        W58613  33.410  24.386   1.592  0.3166  0.1782  0.1840
15561W        W58614  30.346  33.609   3.785  0.1869  0.0314 -0.0035
15562W        W58615  33.325  21.256  21.188 -0.1565  0.1445 -0.0265
15563W        W58616  32.125  26.778   7.012  0.1587 -0.3879  0.0045
15564W        W58617  29.861  25.233  25.420 -0.0442 -0.0147  0.4460
15565W        W58618  11.585   0.078  27.749 -0.1753  0.0326 -0.3736
15566W        W58619  31.401   9.712  20.662  0.0293  0.0520 -0.0767
15567W        W58620  22.343  29.522   6.048  0.2852  0.0587 -0.0131
15568W        W58621   0.317  23.446  27.488 -0.2334  0.2363  0.0157
15569W        W58622   4.778  19.426  25.128 -0.0972 -0.0165 -0.0170
15570W        W58623  33.132  34.649  29.179 -0.1289 -0.0407 -0.1078
15571W        W58624  27.854  11.797   0.278  0.0499 -0.0082  0.1542
15572W        W58625   1.620  34.369  14.992 -0.0152 -0.2827  0.3139
15573W        W58626  30.789  16.169   4.392 -0.1830 -0.1110 -0.0215
15574W        W58627  16.791  28.141  16.909  0.0787  0.2811  0.1329
15575W        W58628  32.967   1.030   9.141  0.1726  0.0845 -0.0896
15576W        W58629   0.358  29.686  18.092  0.0261  0.0898 -0.3576
15577W        W58630  22.013   4.239  25.966  0.3279 -0.1380 -0.0042
15578W        W58631   6.554  34.643   8.410  0.1197  0.0349 -0.0641
15579W        W58632   9.749  25.903   4.332 -0.2585  0.0213 -0.0810
15580W        W58633  18.428  13.226  16.921  0.2744  0.2493  0.1627
15581W        W58634  29.434  24.118  22.737  0.2472 -0.1101  0.1970
15582W        W58635  33.565  22.689  19.855 -0.1690  0.1612 -0.0160
15583W        W58636   2.693  27.947   5.824 -0.2783 -0.0151 -0.0267
15584W        W58637   4.981  17.365  15.560 -0.0147 -0.0045 -0.1270
15585W        W58638   4.258  10.905  24.724  0.1020 -0.2032 -0.0538
15586W        W58639  31.649  12.565  18.839 -0.0864  0.3088  0.0602
15587W        W58640  34.460   7.048  19.305 -0.1137 -0.0209 -0.3445
15588W        W58641  27.433  14.971   7.008  0.1114 -0.1114 -0.0519
15589W        W58642  10.366  18.067   0.518 -0.2035 -0.1193 -0.3227
15590W        W58643  23.466  29.176  26.326 -0.2125  0.3323  0.1710
15591W        W58644  32.254  18.089   0.145 -0.0936  0.0456  0.0599
15592W        W58645  15.235  26.805   4.227 -0.1641 -0.0934 -0.0847
15593W        W58646  26.447  16.138  23.776  0.0012 -0.0991  0.1237
15594W        W58647  34.491  17.001   6.514  0.2480 -0.0683 -0.0936
15595W        W58648  32.866  25.401   0.205  0.0726  0.0751  0.0742
15596W        W58649   0.445  22.261   4.647 -0.1168  0.0289  0.1439
15597W        W58650  13.581  10.609   6.064  0.0124  0.1263 -0.0859
15598W        W58651  15.612   9.188  24.885  0.4386 -0.0371 -0.0089
15599W        W58652  16.648  11.078  14.382  0.1827 -0.0342 -0.0477
15600W        W58653   6.583  26.448  21.948  0.2536 -0.0696  0.1529
15601W        W58654   0.438  31.091  24.906 -0.4790 -0.2313 -0.0493
15602W        W58655  13.289   4.141   6.199 -0.3320  0.1598 -0.0917
15603W        W58656   6.962  27.365   8.470  0.2168 -0.2840 -0.2010
15604W        W58657   2.567  24.428  27.510 -0.2188 -0.0529 -0.2833
15605W        W58658  26.567  24.076  25.294  0.1572 -0.2973  0.0083
15606W        W58659  24.297   6.925  28.167  0.0261  0.2483  0.0270
15607W        W58660   0.364   6.416   2.020 -0.0961 -0.0392 -0.5536
15608W        W58661  12.217   2.764  25.187 -0.3340  0.1355 -0.1206
15609W        W58662  33.750  33.361   0.304  0.0978  0.2749 -0.2240
15610W        W58663  22.267  12.437   0.717 -0.2214  0.1115 -0.0270
15611W        W58664   7.181   7.603   6.408 -0.0898  0.0104  0.0303
15612W        W58665  29.675  14.603   1.133  0.0590 -0.1243  0.1598
15613W        W58666   0.103  34.466   5.222  0.0485  0.0837 -0.0459
15614W        W58667  28.832  22.700  24.748  0.0613  0.1858 -0.0655
15615W        W58668  29.012  25.879   6.483  0.2098  0.0812 -0.0021
15616W        W58669  31.708  29.220   1.605 -0.0623 -0.2062  0.0356
15617W        W58670  33.727   5.829   5.380 -0.1181  0.1192  0.2575
15618W        W58671  11.906  10.027  21.922  0.3709  0.1687  0.1991
15619W        W58672   5.509  22.171  25.576  0.3081  0.3909 -0.0428
15620W        W58673  18.772   2.254  29.036  0.2572 -0.1892 -0.1099
15621W        W58674  13.039  22.389  16.513 -0.2161  0.0873 -0.0771
15622W        W58675  29.986  17.583   3.104  0.2826  0.1304  0.0555
15623W        W58676  14.312  23.601   5.496 -0.1692  0.0626 -0.1093
15624W        W58677   4.774  25.104   5.274  0.0222  0.1157 -0.4389
15625W        W58678   6.407  26.668   4.327  0.0191  0.2988  0.1734
15626W        W58679   6.423   2.916   8.886 -0.2129 -0.1010 -0.2127
15627W        W58680   5.662  15.796   7.105  0.0384 -0.2736 -0.0690
15628W        W58681  30.385  30.086  15.126  0.0135 -0.0841 -0.0349
15629W        W58682  29.452   3.974  21.781  0.1042 -0.0782 -0.4399
15630W        W58683  28.388   9.845   1.903  0.5334 -0.1162  0.0136
15631W        W58684   0.770  18.745  23.083  0.0179  0.0368  0.2473
15632W        W58685  30.295  16.113  18.828 -0.0113 -0.0463  0.0215
15633W        W58686  33.181  27.430  24.403  0.1729 -0.0830 -0.3424
15634W        W58687  23.060  30.692   9.098 -0.1389 -0.2911 -0.0571
15635W        W58688  11.423  31.583  21.766 -0.0014 -0.0053 -0.1697
15636W        W58689  25.924  13.385  24.977  0.0399 -0.2273  0.1861
15637W        W58690  34.002  20.885   7.506 -0.0375  0.0660 -0.0713
15638W        W58691   5.722  31.355  22.975  0.1158  0.3274  0.1343
15639W        W58692  30.104  12.300  22.816 -0.0740  0.0387 -0.1622
15640W        W58693   1.857  15.857  23.372 -0.1528 -0.0558  0.3837
15641W        W58694   4.088  19.517   7.424  0.2197 -0.3052  0.0602
15642W        W58695  33.500   6.999   9.650  0.0733 -0.2050  0.3193
15643W        W58696   1.690  32.940  13.762 -0.1482 -0.2384 -0.0763
15644W        W58697  15.125   4.715  10.816  0.0830 -0.0318  0.1357
15645W        W58698  34.605  33.505  21.769  0.2159 -0.1795 -0.0281
15646W        W58699   6.450   3.028  28.594  0.3535  0.0892 -0.0474
15647W        W58700   1.354  31.724  19.177  0.3569  0.1567  0.0086
15648W        W58701  32.730  12.780  14.990  0.1820  0.3853 -0.0945
15649W        W58702  32.982  14.628  13.659  0.2044  0.1566  0.0007
15650W        W58703   3.166   1.913  15.020  0.0708 -0.1794 -0.3098
15651W        W58704  25.006   4.622  16.905  0.2186  0.1817  0.1949
15652W        W58705   6.100  30.805  19.273 -0.2688  0.1644 -0.2159
15653W        W58706  34.681  34.222  15.885 -0.1857  0.0396  0.1933
15654W        W58707  32.905  32.275  27.659  0.1781  0.0550  0.0375
15655W        W58708   7.887   1.927   3.039  0.3566 -0.1074 -0.4271
15656W        W58709   6.966  25.068  21.515  0.1559  0.6218 -0.1331
15657W        W58710  32.163  14.208  15.836 -0.4715  0.0172 -0.0191
15658W        W58711  28.673  22.331  15.772 -0.0855 -0.0190  0.2799
15659W        W58712  29.450  31.901  24.683 -0.1655 -0.1158  0.0742
15660W        W58713  11.279  30.799  21.521 -0.1208  0.0383 -0.4194
15661W        W58714  20.071  18.397  24.005  0.0768  0.2626  0.0567
15662W        W58715   2.198  12.860   5.945  0.0719  0.2618  0.0176
15663W        W58716  31.178  29.527  19.759  0.2792  0.1860  0.0052
15664W        W58717  15.795  30.212  21.067  0.0302 -0.0536  0.1754
15665W        W58718   7.040  12.998  27.704 -0.0950 -0.0287 -0.1399
15666W        W58719  34.070   8.195  14.394  0.3362  0.1103  0.0839
15667W        W58720  12.421  31.351  14.195 -0.0312  0.0256  0.0593
15668W        W58721   3.484   2.797   0.556 -0.0847  0.0915 -0.1430
15669W        W58722  14.270  24.816  19.684 -0.3460  0.0423 -0.3865
15670W        W58723  19.543  21.441  18.666 -0.3139 -0.0554  0.1775
15671W        W58724  33.291   0.544  18.088  0.0517 -0.1958 -0.2435
15672W        W58725  30.897  30.262  24.885 -0.1159 -0.1480 -0.2426
15673W        W58726   6.479  13.587   1.201 -0.2086 -0.1132  0.0504
15674W        W58727  25.726  25.390  19.587  0.0865 -0.1943 -0.0722
15675W        W58728   4.037   1.877  17.011  0.1346  0.0160 -0.1847
15676W        W58729  30.306  29.089   0.602 -0.2625 -0.2927  0.0799
15677W        W58730  22.087  28.630  16.722 -0.2230  0.1160 -0.1542
15678W        W58731  34.101  19.575  23.480  0.2313  0.0835 -0.1639
15679W        W58732  29.150   5.168  19.489 -0.1409  0.2180  0.2444
15680W        W58733   0.398  10.965  17.157 -0.2135 -0.0664  0.1627
15681W        W58734   0.269  31.795  13.927  0.2435 -0.1158 -0.2848
15682W        W58735  28.538  27.716  15.966 -0.1208 -0.0939 -0.1781
15683W        W58736   1.427   6.340  17.166  0.0412 -0.0995  0.0074
15684W        W58737  24.928   4.303  22.497  0.1769 -0.1687 -0.1229
15685W        W58738   5.676   4.925  23.648 -0.0177 -0.0890  0.2604
15686W        W58739   8.738  33.510  27.578 -0.1634 -0.2112 -0.0163
15687W        W58740  25.295  14.615  25.846  0.0168 -0.1271  0.1013
15688W        W58741  24.533  17.998  24.012  0.1803 -0.1002  0.0447
15689W        W58742   0.430   0.407  21.256  0.2147 -0.3624 -0.0314
15690W        W58743  16.356  14.556  13.532  0.2460  0.0299 -0.0222
15691W        W58744  21.700  21.956  24.292 -0.0128 -0.2364 -0.2994
15692W        W58745   5.589  19.468  21.235  0.4479  0.1524  0.2551
15693W        W58746   0.117  22.054  13.910 -0.1628  0.2384  0.6069
15694W        W58747  14.351   3.027  21.287 -0.0267  0.0775 -0.2618
15695W        W58748  10.149  25.926  28.208 -0.2442  0.1262  0.1231
15696W        W58749  32.188   5.193  13.596  0.1152 -0.2375  0.3713
15697W        W58750  24.347   1.999  14.186 -0.0668 -0.2024  0.1290
15698W        W58751  19.261  21.020  24.952 -0.1381  0.1063 -0.1284
15699W        W58752   0.732  33.211  15.472 -0.0497  0.1084  0.2280
15700W        W58753   7.002  26.104  23.067  0.3079 -0.2045  0.1046
15701W        W58754  30.710  27.090  27.600 -0.2734  0.0987  0.1518
15702W        W58755  12.017  16.075  15.113  0.0116  0.2033 -0.0944
15703W        W58756  11.619   2.684  27.908  0.1511  0.0444  0.1232
15704W        W58757   2.972  32.622  25.197  0.1855 -0.0612 -0.0564
15705W        W58758   5.575  30.340  15.246 -0.1637  0.0088 -0.0316
15706W        W58759   8.492  21.325  17.860  0.1489 -0.1026  0.1089
15707W        W58760  31.560  30.272  16.265 -0.2041 -0.0311  0.1392
15708W        W58761  18.696  28.619  22.155  0.0532  0.1845 -0.1118
15709W        W58762   8.577  32.294  17.457 -0.0351 -0.0319 -0.0377
15710W        W58763  11.934  33.604  18.341  0.0769  0.0124 -0.0255
15711W        W58764  24.679  29.561  17.641  0.0294  0.0355  0.3079
15712W        W58765  32.480  18.053  16.761  0.0389  0.2096  0.0991
15713W        W58766   0.287  20.928  14.425 -0.1062  0.2095 -0.3256
15714W        W58767   7.124  27.244  25.430 -0.1548 -0.1871 -0.0147
15715W        W58768  26.432  29.714  17.513  0.2899 -0.0206  0.1010
15716W        W58769  18.517  21.692  19.545 -0.0498 -0.1297  0.2325
15717W        W58770  23.921   8.671  27.024  0.1350 -0.4060  0.0620
15718W        W58771  21.665   9.442  25.258  0.0955 -0.1169 -0.0159
15719W        W58772   7.002  25.774   2.382 -0.0359 -0.1628  0.1847
15720W        W58773  27.756   6.314  18.885 -0.0137 -0.2464 -0.1214
15721W        W58774  30.657  30.161  15.576  0.0630  0.0338  0.0476
15722W        W58775  19.664   4.082   0.462  0.1627 -0.3038  0.0055
15723W        W58776  28.038   8.922  15.943  0.1410 -0.2079 -0.2458
15724W        W58777  26.910  26.107  17.221  0.0802  0.1417 -0.2994
15725W        W58778   0.232  27.947   0.623  0.1570  0.1868  0.5375
15726W        W58779  17.227  20.251  25.571 -0.1091  0.3818 -0.3306
15727W        W58780  29.137  22.548  20.656 -0.4044 -0.0193 -0.2741
15728W        W58781   6.200  11.614  23.401  0.3411  0.1221 -0.1710
15729W        W58782  25.143   4.685  23.400 -0.2330  0.2276 -0.1477
15730W        W58783  25.169   6.883  20.589  0.0104 -0.1201 -0.1023
15731W        W58784  29.665  12.656   4.645 -0.1878 -0.0776 -0.0401
15732W        W58785   6.200  13.092  17.672  0.2006  0.1743 -0.0243
15733W        W58786   2.809  33.126  17.940  0.0274  0.1879  0.1448
15734W        W58787   9.795  24.380   7.601  0.3460 -0.2068 -0.2191
15735W        W58788  28.685  30.304  21.499  0.0271  0.0929 -0.0142
15736W        W58789  24.931  29.387  16.617 -0.1873  0.2857 -0.2779
15737W        W58790   5.465   7.121  25.483  0.1751 -0.1489 -0.2761
15738W        W58791   4.799  12.441  27.949  0.2033  0.1433  0.1490
15739W        W58792  16.224   1.443  19.035 -0.1363 -0.0890 -0.1974
15740W        W58793  33.388   6.612  15.159  0.0795  0.1782 -0.1959
15741W        W58794  27.601  11.492  26.343 -0.1397 -0.0201 -0.2420
15742W        W58795  30.894  12.647  18.339 -0.2120  0.0410  0.1670
15743W        W58796   6.221  26.179  16.805 -0.1067 -0.1217 -0.2198
15744W        W58797  32.965  32.917  15.804 -0.4097 -0.2306  0.0815
15745W        W58798  20.601  31.164  15.079  0.2999  0.2436  0.1273
15746W        W58799   3.550  33.252   8.948 -0.0236 -0.1666  0.0927
15747W        W58800  29.690   3.466  21.409 -0.1366  0.0081  0.1514
15748W        W58801   6.434   6.299   2.089 -0.2507  0.0944  0.0425
15749W        W58802  30.822   2.927  22.919 -0.0792 -0.1516 -0.2800
15750W        W58803  23.247  19.316  16.603 -0.1273  0.1070 -0.1260
15751W        W58804  19.990   8.871  14.734  0.0182 -0.1355 -0.3962
15752W        W58805  13.276  27.748  24.170  0.2419  0.0781 -0.0007
15753W        W58806  26.968  31.373  14.726 -0.3518  0.1910  0.0585
15754W        W58807   0.535  31.832  18.287  0.2577  0.3479  0.0290
15755W        W58808  15.018   7.811  23.946  0.0303  0.3237  0.0355
15756W        W58809  33.299  32.008   0.662 -0.0372  0.2757 -0.0596
15757W        W58810  16.043   5.470  20.732 -0.1029  0.4092  0.1878
15758W        W58811  30.846  22.163  21.338  0.4501  0.3429  0.5833
15759W        W58812   9.866  26.303  13.106 -0.1559 -0.3978  0.0587
15760W        W58813   7.154   3.380  27.407 -0.0032  0.0172 -0.2326
15761W        W58814  27.075  27.765  16.240  0.1719 -0.0236  0.2493
15762W        W58815  30.703  29.740  15.150 -0.2161  0.0275 -0.2351
15763W        W58816   1.706  24.297  23.627  0.0448  0.2386  0.3030
15764W        W58817  31.210  34.236  27.001 -0.2301  0.1823  0.3776
15765W        W58818  33.192   5.286  22.673  0.1265 -0.3137  0.2098
15766W        W58819   7.012  28.715  23.139  0.0552 -0.3029  0.3605
15767W        W58820   1.932  32.979  25.117  0.0976  0.1383  0.1236
15768W        W58821  31.670  31.410  16.489 -0.1814 -0.0982 -0.0708
15769W        W58822  34.210   6.415  24.198  0.1643 -0.0525 -0.0479
15770W        W58823  10.434  31.978  21.830 -0.0240 -0.2079  0.0683
15771W        W58824  33.126  22.877   3.249  0.4261  0.0356 -0.2613
15772W        W58825   2.141  12.692  21.918  0.2585  0.3470  0.0847
15773W        W58826   1.521  23.401  20.358  0.2528  0.0136 -0.0327
15774W        W58827  22.108  24.162   0.876  0.3929  0.0809 -0.3432
15775W        W58828   3.107  27.297  20.473  0.1874  0.1385  0.0694
15776W        W58829  31.085  30.796  22.167  0.1620  0.1079 -0.0830
15777W        W58830  17.438   1.432  25.156  0.0020  0.2066 -0.2912
15778W        W58831  32.362  24.178  20.669 -0.1587  0.1765  0.1699
15779W        W58832   5.684  27.218  14.997  0.1240  0.0619  0.3236
15780W        W58833  32.201  15.483  20.220  0.2600  0.0113 -0.0379
15781W        W58834  31.072   6.508  20.567  0.0178 -0.0727  0.0814
15782W        W58835  25.034  32.788   5.449 -0.2200 -0.1381 -0.0434
15783W        W58836  34.505   1.223  13.929 -0.3296 -0.0612  0.2778
15784W        W58837   0.681  27.134  20.954  0.0266  0.1533  0.0663
15785W        W58838   0.977  28.390  20.852 -0.0640  0.0789  0.0401
15786W        W58839  29.239  13.542  23.322 -0.1067  0.1892  0.0604
15787W        W58840   5.945   6.399  25.904  0.0154  0.1091  0.0336
15788W        W58841   0.563  14.772   1.306 -0.2443  0.0310 -0.0235
15789W        W58842  14.263  30.678   6.603 -0.0229 -0.1568  0.0100
15790W        W58843   6.704  20.784  16.403 -0.0132 -0.1543 -0.0176
15791W        W58844  15.671  21.233  24.927 -0.4428 -0.0627  0.1814
15792W        W58845   2.204  18.108  19.201 -0.1125 -0.1199  0.0300
15793W        W58846  25.763  26.563  26.653  0.1005  0.0934 -0.0520
15794W        W58847   8.080  31.910  21.717 -0.1635 -0.2119  0.0203
15795W        W58848   0.056   5.693  17.020  0.2757  0.1776  0.1534
15796W        W58849   3.225  25.380  23.787 -0.1807 -0.0060  0.2562
15797W        W58850  31.767  19.920   5.687  0.0482  0.3305  0.1140
15798W        W58851   3.142   8.518  15.683  0.3201 -0.0061 -0.2547
15799W        W58852  23.103   7.298  18.658  0.1433  0.2708 -0.3952
15800W        W58853  30.724  32.904  23.109 -0.2607  0.2881 -0.2096
15801W        W58854   5.085  29.698  16.307  0.0468  0.3334 -0.1671
15802W        W58855  13.267  23.641  18.119  0.2530 -0.2483  0.0942
15803W        W58856  32.033  30.540  21.987 -0.1222  0.1592  0.1645
15804W        W58857  27.203  30.680  15.670  0.1364 -0.0261  0.1268
15805W        W58858   5.477  25.256  13.773 -0.0320 -0.0296 -0.1232
15806W        W58859  27.250  19.421  16.309  0.2774 -0.0776  0.0102
15807W        W58860  26.143   8.420  24.630 -0.0279 -0.3415  0.1381
15808W        W58861  30.167   5.778   2.056  0.3413  0.0486 -0.1007
15809W        W58862   3.169  17.143  15.299  0.2869 -0.0740  0.0199
15810W        W58863   5.298  25.677  14.983 -0.1265 -0.3245 -0.1890
15811W        W58864  23.494  33.386  23.828  0.1303  0.3485 -0.2329
15812W        W58865  19.237  31.994  18.415 -0.1583  0.0029 -0.3729
15813W        W58866  33.218   1.844  26.226  0.3089  0.1617  0.1536
15814W        W58867   0.994  32.566  14.829  0.0847 -0.2417  0.0229
15815W        W58868  34.415  21.983  26.918 -0.2982  0.0494  0.2005
15816W        W58869   9.999  18.925  14.845 -0.1416 -0.0634  0.1136
15817W        W58870  25.898  18.751  22.078  0.0149  0.2344  0.2620
15818W        W58871   5.222  11.575  19.932 -0.0059  0.1217 -0.3967
15819W        W58872   5.521  33.210  17.185 -0.1972  0.0990 -0.3289
15820W        W58873  26.119  22.180  14.671  0.0645 -0.2207 -0.1726
15821W        W58874  11.830  31.160  17.868 -0.1111 -0.1637  0.2042
15822W        W58875  28.432  33.764  25.820 -0.0236  0.2025  0.0953
15823W        W58876  10.922   4.128   7.725 -0.0164  0.3128  0.1087
15824W        W58877  12.728  17.067  22.625 -0.0427 -0.2082 -0.1185
15825W        W58878   6.045  28.076  14.870  0.0666  0.2213 -0.0730
15826W        W58879   3.490   5.592  26.557  0.1095  0.0615 -0.1529
15827W        W58880  10.482  18.954  24.769  0.4080  0.5104  0.2328
15828W        W58881   1.888  16.097  27.384  0.0042  0.0371  0.0168
15829W        W58882  29.791   6.228  19.647  0.0908  0.4583  0.0614
15830W        W58883  11.231  29.159   8.196 -0.0521 -0.1058 -0.0230
15831W        W58884   3.247  21.251  25.643  0.1736  0.1024 -0.2470
15832W        W58885  10.849  20.918  26.502  0.0122 -0.4609 -0.1774
15833W        W58886   1.095  27.968  23.379 -0.1539  0.0875  0.0857
15834W        W58887  18.674  32.441  23.130 -0.1005 -0.0751 -0.1363
15835W        W58888  11.309  26.073  26.357 -0.0182  0.1125 -0.3185
15836W        W58889   5.089  29.718  24.397 -0.3515  0.0422  0.0871
15837W        W58890  13.505  32.196  24.953 -0.0520  0.2629 -0.2549
15838W        W58891  15.988  12.725  13.765  0.0421  0.0719  0.2894
15839W        W58892   3.851  32.776  15.455  0.0587  0.2468  0.4904
15840W        W58893   9.628  15.251   2.410  0.0204  0.0537 -0.0638
15841W        W58894  14.917  13.172  24.298 -0.2608  0.0831 -0.1194
15842W        W58895  33.152   6.192  16.314 -0.0141  0.1463  0.2847
15843W        W58896  32.880  28.863  20.266  0.0962  0.0502  0.1138
15844W        W58897   1.737  21.070  24.322 -0.0455  0.2474 -0.3989
15845W        W58898  32.622  28.890  19.719  0.0358  0.4147  0.2197
15846W        W58899  30.044   2.144  18.709  0.2199  0.0461 -0.2803
15847W        W58900  25.207  26.715  19.266  0.1608 -0.2316  0.2749
15848W        W58901   1.313  30.391  18.057  0.1119  0.0590  0.1221
15849W        W58902  23.335   0.920  16.884 -0.2875 -0.1207  0.0122
15850W        W58903  11.444   5.311  21.006 -0.1569  0.1575  0.0752
15851W        W58904  33.470   8.112  18.180  0.0323 -0.2965  0.1335
15852W        W58905   1.066  23.483  18.375 -0.1366 -0.0298 -0.0071
15853W        W58906  13.945  26.606  27.393  0.2955  0.2362  0.3916
15854W        W58907  30.414  29.328  23.869  0.0349  0.0751 -0.0121
15855W        W58908  12.810  29.327  23.186 -0.1719  0.1305  0.0844
15856W        W58909   8.833  28.446  29.147 -0.1743 -0.3009 -0.0917
15857W        W58910  14.663  31.076  24.123 -0.3534  0.1802  0.1529
15858W        W58911  27.002  25.115   5.055  0.2486 -0.2121  0.3489
15859W        W58912   4.645  31.861  21.645  0.2395  0.2176 -0.2466
15860W        W58913   0.865   3.570  23.535 -0.4530 -0.2100  0.1796
15861W        W58914  33.459  24.335  26.892  0.0358 -0.0465 -0.2060
15862W        W58915  30.031   6.029  18.785 -0.0979 -0.0196  0.0203
15863W        W58916  19.476  28.795  14.658  0.2439  0.1378  0.0703
15864W        W58917   7.391  28.961  15.279  0.0581 -0.2739  0.2486
15865W        W58918  26.041  25.894  18.601 -0.1706  0.0021 -0.2182
15866W        W58919  33.481   1.651  18.375 -0.2828 -0.3783  0.0731
15867W        W58920   3.210  23.563  26.578  0.0470  0.0356  0.0550
15868W        W58921  16.198   4.180  16.133 -0.2057 -0.0710  0.0188
15869W        W58922   1.331  12.058  24.958  0.3852  0.0206 -0.1377
15870W        W58923   7.694  28.267  14.301  0.1649 -0.3664 -0.1881
15871W        W58924   1.669   5.143  28.918  0.1387  0.3966  0.0302
15872W        W58925   6.935  26.052  14.038  0.0088  0.0249  0.0356
15873W        W58926  29.450  28.432  21.542 -0.1463 -0.0442  0.0079
15874W        W58927   8.296  19.306  17.803  0.2546  0.1683  0.1115
15875W        W58928  31.907   3.062  19.626 -0.0984 -0.2345 -0.3158
15876W        W58929  22.417  27.450  18.410 -0.0499  0.0606 -0.2509
15877W        W58930   9.175  26.397  20.028 -0.0159  0.1448  0.1887
15878W        W58931  15.252  28.000  13.632  0.1016  0.2074  0.1733
15879W        W58932   9.676   6.622  14.903  0.0701  0.0093  0.2485
15880W        W58933   5.204  27.154  14.893 -0.0070 -0.0198  0.0687
15881W        W58934   1.014   3.537  26.078  0.0035 -0.3746 -0.1410
15882W        W58935  18.679  33.142  15.044 -0.2311 -0.1253  0.0235
15883W        W58936   0.616   4.717  18.430  0.0867  0.2805 -0.3569
15884W        W58937   9.066  19.539  23.630 -0.1321 -0.0904  0.2656
15885W        W58938  22.305  21.582  16.595  0.0890 -0.2244  0.1492
15886W        W58939  22.134  15.960  20.499  0.0603 -0.2046  0.0235
15887W        W58940  27.166  32.526  14.237 -0.0210  0.1563  0.0234
15888W        W58941  25.890  23.887  21.016  0.0421  0.0355  0.2772
15889W        W58942   4.237   3.857  15.097 -0.2707 -0.0368  0.1987
15890W        W58943  34.035   4.879  17.538  0.3306 -0.1345 -0.0856
15891W        W58944   3.854  21.921  21.937  0.0666 -0.0355 -0.0549
15892W        W58945   4.737  18.608  16.166 -0.3948 -0.0761 -0.1671
15893W        W58946   1.375   3.199  26.121  0.0135 -0.3266  0.2064
15894W        W58947   7.443  18.512  19.504 -0.0429  0.1315  0.2494
15895W        W58948   1.793  22.263  20.440 -0.1101 -0.0006  0.2439
15896W        W58949   3.657  32.960  15.943  0.4103  0.0759 -0.0392
15897W        W58950  32.566  18.309   1.140  0.0840 -0.1438  0.0105
15898W        W58951  33.261  30.907  18.976 -0.1519  0.0729  0.0637
15899W        W58952   5.315  19.684  20.913  0.3064 -0.3310 -0.0247
15900W        W58953   4.859   2.472  22.804 -0.1885  0.0277  0.0956
15901W        W58954   7.660  11.576  20.613  0.0658 -0.1105  0.1834
15902W        W58955   2.457   7.412  21.730 -0.3064  0.0181 -0.2777
15903W        W58956  23.022   0.300  25.440 -0.2450 -0.1698 -0.1781
15904W        W58957   3.838  23.545  21.261 -0.2932 -0.1122  0.2884
15905W        W58958  23.390  27.310  22.026  0.2728  0.1634 -0.3051
15906W        W58959   2.691  19.275  24.423  0.0663  0.1468  0.0867
15907W        W58960  31.844  27.892  13.764  0.0708 -0.2293 -0.0467
15908W        W58961  34.070  33.942   1.698 -0.0608  0.0036 -0.0843
15909W        W58962  30.103  32.734  23.271  0.3354  0.0836  0.2258
15910W        W58963   4.403  32.435  20.983 -0.2225  0.2682  0.0194
15911W        W58964   8.538  27.835  14.117 -0.2987 -0.0553  0.1669
15912W        W58965   8.409  24.667  23.830 -0.1110  0.1174 -0.1808
15913W        W58966   2.716  27.112  22.870 -0.3042  0.1728  0.2520
15914W        W58967   2.963  16.955  15.737 -0.2701  0.0071  0.1973
15915W        W58968  31.037  28.358  25.363 -0.0286 -0.2332  0.2985
15916W        W58969   3.863   4.881  20.782 -0.1638  0.2816  0.1966
15917W        W58970   5.694  32.817  18.569 -0.1873 -0.0597 -0.2776
15918W        W58971   7.498  20.158  18.021 -0.1916  0.1636 -0.1253
15919W        W58972   7.621  32.573  18.953  0.0182  0.1805  0.1222
15920W        W58973  15.938  28.251  18.073  0.1051 -0.0376  0.2201
15921W        W58974  19.970  22.100  14.750  0.2860 -0.1977 -0.0580
15922W        W58975   3.676  17.829  16.811 -0.4585  0.0651  0.1312
15923W        W58976  31.050  28.312  20.762 -0.0446 -0.1478 -0.0057
15924W        W58977  10.320  29.692   0.022 -0.1844  0.0257 -0.1556
15925W        W58978   9.648  32.076  23.201  0.0490  0.2960  0.0614
15926W        W58979  10.421   1.773  22.505 -0.2694 -0.0867 -0.2836
15927W        W58980  26.254  20.033  18.232  0.0333  0.1705 -0.0943
15928W        W58981  20.483  26.777  24.625  0.0278  0.1638 -0.1018
15929W        W58982  28.951  30.241  15.396  0.3090 -0.2505 -0.1004
15930W        W58983  14.694  32.284  27.171 -0.3126 -0.0075  0.3868
15931W        W58984  24.712  29.086  23.394  0.2779 -0.1715 -0.3070
15932W        W58985  32.699  15.799  15.702 -0.1652  0.1708  0.1581
15933W        W58986  34.045  20.182  22.707  0.1861 -0.0248 -0.3004
15934W        W58987  26.033  26.048  15.802  0.1684 -0.0589 -0.0207
15935W        W58988   3.091   3.433  21.423 -0.2639  0.0515 -0.1230
15936W        W58989   0.690   3.591  13.864 -0.0684 -0.0254  0.5257
15937W        W58990  18.982   2.741  19.512 -0.0056  0.2274  0.0852
15938W        W58991   5.841  33.763  21.073  0.4365  0.0736  0.1474
15939W        W58992   7.832  17.436  17.273  0.4773  0.2593  0.1961
15940W        W58993  15.281  33.077  20.072  0.3697  0.0081  0.0124
15941W        W58994   9.246  29.655  20.202 -0.3056  0.1192  0.1830
15942W        W58995  10.587   7.960   2.466 -0.3438  0.1882 -0.1146
15943W        W58996  29.170  20.200  15.734  0.0353 -0.3841 -0.1057
15944W        W58997   5.758  22.329  12.868 -0.1761 -0.0937 -0.4035
15945W        W58998   5.636  10.939  16.588  0.2166  0.0782  0.0476
15946W        W58999  34.335   8.046  19.125 -0.0354  0.3983 -0.1349
15947W        W59000  21.224  18.277  19.367 -0.1621 -0.0815  0.2061
15948W        W59001  34.098  33.573  17.677  0.0610 -0.0261  0.0213
15949W        W59002   1.412  23.157  23.454 -0.2416  0.2965 -0.1380
15950W        W59003  30.319  32.372  13.844 -0.1137  0.2616  0.0054
15951W        W59004  27.129   6.564  22.790 -0.0276  0.0660 -0.1599
15952W        W59005   5.609  23.842   7.249  0.3814 -0.4175  0.0413
15953W        W59006   3.433  10.009  14.079 -0.2418 -0.1846  0.2310
15954W        W59007   6.121  29.436  22.203  0.3085  0.2878  0.2021
15955W        W59008   8.655  15.850  24.769  0.2758  0.0164  0.0810
15956W        W59009  12.829  32.665   0.125  0.1644 -0.2294  0.2836
15957W        W59010   4.774  34.615  18.749  0.2319  0.1012 -0.1028
15958W        W59011   5.120   9.190  20.228 -0.0386 -0.0339  0.0092
15959W        W59012  10.560  25.397  23.957 -0.0609 -0.2107  0.2497
15960W        W59013  29.465   6.449  16.770 -0.0846 -0.0364  0.0040
15961W        W59014  32.138  23.987   5.274  0.1964 -0.2342 -0.0734
15962W        W59015   0.338  28.360  22.806 -0.1428 -0.4165  0.3097
15963W        W59016  15.155  23.027  21.394  0.0171 -0.1059  0.3133
15964W        W59017  18.297  18.408  22.756  0.2541 -0.1482  0.2029
15965W        W59018   3.397   4.905  27.380 -0.3453 -0.1059 -0.0427
15966W        W59019  23.539  22.970  23.369 -0.0213  0.1193 -0.0060
15967W        W59020  18.277   6.457  25.777 -0.1392 -0.0659  0.4940
15968W        W59021  19.904  18.996  21.814 -0.0595 -0.0678 -0.2508
15969W        W59022  14.361  19.470  25.097 -0.1568  0.1320  0.1483
15970W        W59023   3.902  31.440  19.999  0.0930 -0.0270 -0.0430
15971W        W59024   5.318   0.328  18.623  0.0325 -0.1274  0.1251
15972W        W59025  33.693  14.528  19.899 -0.0818 -0.1891 -0.0376
15973W        W59026  11.553   2.938  27.462 -0.1834 -0.3401  0.2112
15974W        W59027   1.768  27.417  27.557 -0.1992  0.4121  0.0629
15975W        W59028  11.610  27.711  26.716 -0.0332  0.3158  0.1446
15976W        W59029   6.581  28.818  16.545 -0.1049 -0.2095  0.4504
15977W        W59030  10.978   3.230  19.408 -0.0683  0.4185  0.3847
15978W        W59031   3.395  20.015  15.469 -0.3453  0.0727  0.2376
15979W        W59032  29.014  28.161  27.836  0.0068  0.1869  0.2247
15980W        W59033   5.886   1.088  21.866  0.0051  0.0583 -0.0293
15981W        W59034  16.153  10.102  16.714  0.5197 -0.1195 -0.1588
15982W        W59035   9.820  32.535  23.053 -0.0885 -0.0190 -0.1348
15983W        W59036   2.098  19.800   5.847 -0.1784  0.1286  0.2643
15984W        W59037  11.639   8.185  26.601  0.2347  0.0004  0.3942
15985W        W59038   4.977  25.596  24.493  0.3244 -0.0321  0.1471
15986W        W59039   8.057  24.250  14.550 -0.1314  0.0402  0.1108
15987W        W59040  20.749  16.149   6.918  0.2943  0.3749 -0.0696
15988W        W59041  29.458   1.571  18.935  0.0674  0.2995  0.3448
15989W        W59042  27.643  27.878  16.523  0.0711  0.7886 -0.3189
15990W        W59043  31.489   8.505  23.606 -0.3241  0.1927  0.1333
15991W        W59044  32.209  23.676   9.399  0.0243 -0.1261 -0.0639
15992W        W59045   3.230  16.269  21.150  0.0243  0.1810  0.1632
15993W        W59046  32.671   6.697  15.742  0.1159 -0.0746 -0.2255
15994W        W59047   4.735  25.102  22.884 -0.0710 -0.0486 -0.1457
15995W        W59048  28.910   0.831  25.418  0.2311 -0.0772  0.4547
15996W        W59049  30.946  32.916  20.258 -0.2825 -0.0208 -0.0017
15997W        W59050   6.375  29.603  20.377  0.0976  0.0912 -0.5751
15998W        W59051   1.602  25.202  22.518 -0.1330  0.3488  0.0505
15999W        W59052   1.173  32.541  23.492 -0.1362 -0.1791 -0.3823
16000W        W59053  31.491  30.437  23.973  0.0540 -0.1550  0.0301
16001W        W59054  17.402  28.131   6.334  0.0216 -0.2487  0.1931
16002W        W59055  11.067  18.839  21.879  0.1779 -0.0139  0.3770
16003W        W59056  15.097  26.233  29.034 -0.1360  0.0400 -0.1613
16004W        W59057  28.156  26.488  19.326  0.1590  0.2586  0.0071
16005W        W59058  14.398  32.361  26.332  0.2707 -0.3067  0.0388
16006W        W59059   5.225   2.676  28.513 -0.1066 -0.3460 -0.0566
16007W        W59060  33.081   2.596  19.997 -0.2005 -0.3081  0.0558
16008W        W59061  23.361  28.161  17.811 -0.0683  0.3909 -0.1841
16009W        W59062  23.318   2.192  27.931 -0.0637 -0.1676  0.0654
16010W        W59063   8.023  30.565  17.319 -0.1754 -0.1025 -0.2690
16011W        W59064  26.275   8.977  17.022 -0.4149 -0.2270  0.0542
16012W        W59065   5.987   4.655  16.110 -0.1160 -0.0099  0.0097
16013W        W59066  10.739   5.070  15.149 -0.1346 -0.0428 -0.2020
16014W        W59067  27.904   7.475  14.960  0.1903 -0.0760 -0.1709
16015W        W59068  26.675  28.984  15.330 -0.3287 -0.0947 -0.0213
16016W        W59069  28.418   2.632  24.740 -0.0329  0.2821 -0.1040
16017W        W59070   2.917  18.334  22.689 -0.2852  0.1636 -0.3234
16018W        W59071  11.307  20.094  21.283  0.1949  0.0791 -0.4842
16019W        W59072  27.028  19.832  18.691  0.1584  0.0208  0.1572
16020W        W59073  26.813  24.942  18.868 -0.2695  0.1567 -0.0916
16021W        W59074  11.741  33.531  19.970  0.0195  0.3021 -0.1417
16022W        W59075  18.760  33.003  14.542  0.0856 -0.0135 -0.5044
16023W        W59076  16.347  17.784  15.651  0.1809 -0.1857  0.0208
16024W        W59077   0.648  11.732  22.654 -0.1341  0.1381 -0.1720
16025W        W59078   5.782   5.721  16.470 -0.4869  0.0032  0.0760
16026W        W59079  31.181  17.697  19.202 -0.1947  0.2542  0.0681
16027W        W59080   6.046  22.875  16.884  0.3790 -0.1859  0.4140
16028W        W59081   2.439  29.303  14.122  0.0577  0.3103  0.0467
16029W        W59082   5.836  16.932  19.396 -0.2011  0.1753  0.0591
16030W        W59083  13.049  19.120   2.481  0.1912  0.1113  0.2317
16031W        W59084   5.369  33.343  18.063  0.2603  0.0666 -0.2134
16032W        W59085   4.783  23.914  26.970 -0.1668  0.2326  0.3835
16033W        W59086   3.381  17.583  16.527  0.0925 -0.1572 -0.0804
16034W        W59087  11.323   9.581  26.465 -0.1999  0.3568  0.1682
16035W        W59088  18.251  24.006  21.483  0.2585  0.1952  0.2891
16036W        W59089   4.967  12.766  20.891 -0.1432  0.1122 -0.0271
16037W        W59090  18.727  31.389  16.917  0.0943  0.0843  0.1454
16038W        W59091  29.748   5.163  17.489 -0.0472  0.1171  0.0300
16039W        W59092  34.158  20.774  20.600  0.0243 -0.2494  0.3026
16040W        W59093  31.966  21.150   6.364  0.0377 -0.2379  0.1180
16041W        W59094  33.225  27.892  18.858 -0.0160  0.1506  0.0426
16042W        W59095  10.196  16.553  20.954  0.1521 -0.0857  0.2560
16043W        W59096  11.311   0.796  21.715 -0.1504 -0.2003  0.1203
16044W        W59097   4.245  23.977  29.059 -0.0458  0.0194 -0.3300
16045W        W59098  12.947  29.179  29.025  0.0408  0.0867 -0.1287
16046W        W59099  29.286  20.176  14.822  0.0872  0.0050  0.2442
16047W        W59100   4.705  26.494  28.461  0.3058  0.0600  0.1478
16048W        W59101   2.102  23.997  26.949 -0.0536  0.1482  0.2131
16049W        W59102  20.801  29.669  29.031  0.2297 -0.1182 -0.1461
16050W        W59103  31.690  21.173  23.093 -0.1537 -0.2008 -0.0142
16051W        W59104  10.620   5.550  18.130 -0.0955 -0.1583  0.1400
16052W        W59105   6.129  26.886  20.819 -0.0704 -0.3064  0.0828
16053W        W59106  10.277  33.710  23.732  0.1684  0.2518 -0.1689
16054W        W59107  21.608  29.366  14.560 -0.0399  0.0556  0.1610
16055W        W59108   9.265  23.643  22.700  0.1420 -0.2279  0.3103
16056W        W59109  16.731  30.515  24.796 -0.1673 -0.2621 -0.1641
16057W        W59110  19.357  22.899   1.379 -0.1763 -0.2561  0.1338
16058W        W59111  31.153   3.125  16.485 -0.0044  0.0737 -0.2717
16059W        W59112   9.939  29.089  16.293  0.1501 -0.2822 -0.2651
16060W        W59113   1.967  30.066  21.662  0.2124 -0.2511 -0.1662
16061W        W59114  30.108  30.363  16.001 -0.0600  0.0963 -0.0748
16062W        W59115   5.726  15.915  14.396  0.3596  0.0563  0.3419
16063W        W59116   0.035  33.346  24.195 -0.2235 -0.2013 -0.1886
16064W        W59117   4.988  17.851   2.988  0.1652 -0.0381 -0.0446
16065W        W59118   6.539   2.775  25.606  0.2170  0.4369 -0.1333
16066W        W59119   5.416  28.463  18.539  0.2913 -0.0297 -0.0883
16067W        W59120  15.595   1.487  23.617 -0.0032  0.2372  0.2485
16068W        W59121   3.752  30.889  22.540 -0.0496 -0.0228  0.5030
16069W        W59122  26.060  32.770  19.322 -0.0452 -0.0870  0.2562
16070W        W59123   5.466   1.363  19.887 -0.0218  0.6010 -0.1168
16071W        W59124   3.144  30.328   4.315  0.2226 -0.0001  0.0545
16072W        W59125   8.429   6.505  25.760 -0.0090 -0.0211 -0.0855
16073W        W59126   6.431  24.041  23.180 -0.0157  0.1123  0.1220
16074W        W59127  30.067  20.601   2.991  0.2074  0.1707  0.1227
16075W        W59128   9.624  31.975  26.085  0.1445  0.0082 -0.1193
16076W        W59129   5.221  31.553  14.583  0.2418  0.2338  0.0128
16077W        W59130   6.142  16.680  18.516 -0.2673 -0.1078 -0.1188
16078W        W59131   5.413  19.859  17.291 -0.1125 -0.1115 -0.1611
16079W        W59132  30.222  16.390  19.309  0.0774 -0.0665 -0.1159
16080W        W59133  28.661   2.336  17.277  0.0790 -0.3020 -0.1558
16081W        W59134   8.254  26.236  19.392  0.1915  0.1018 -0.2562
16082W        W59135   2.527  28.986  19.011  0.1101  0.0065 -0.1286
16083W        W59136  33.886  22.166  24.154 -0.4529  0.0777  0.2094
16084W        W59137  14.245  18.195  22.031  0.2973 -0.0115  0.5275
16085W        W59138  34.498  32.830  26.071 -0.1091  0.0057  0.1197
16086W        W59139   1.853  28.147  23.667  0.3912  0.1459  0.5789
16087W        W59140  33.613  15.814  15.980  0.1537 -0.0188 -0.0009
16088W        W59141  33.974  34.335  25.064 -0.3396 -0.1861  0.3395
16089W        W59142   0.088  18.317  21.138 -0.2375 -0.1444 -0.1509
16090W        W59143  33.652  23.058   7.658 -0.3816 -0.2464 -0.0847
16091W        W59144   0.511  20.505  27.285  0.0786 -0.2414 -0.1705
16092W        W59145  11.530  30.198  19.817 -0.0683 -0.0496 -0.1850
16093W        W59146  15.827  14.991  14.335 -0.2680  0.0678  0.0426
16094W        W59147  27.869  29.665  13.822 -0.1684  0.0883 -0.1196
16095W        W59148   6.206  32.942  18.605 -0.1514 -0.0730  0.0722
16096W        W59149  20.721  33.370  24.658 -0.1602  0.0017 -0.0281
16097W        W59150   8.443  30.705  20.709  0.2004  0.2108  0.0961
16098W        W59151  14.568   0.053  20.191 -0.1839 -0.0128 -0.1332
16099W        W59152  31.393  28.124  21.751 -0.2091 -0.1509 -0.0863
16100W        W59153  29.478   5.062   2.665 -0.1916 -0.0278  0.2340
16101W        W59154  16.152  28.515  21.792 -0.2273 -0.0103  0.0325
16102W        W59155  29.639  31.671  21.192  0.0992 -0.0234 -0.2537
16103W        W59156   1.378   4.694  27.668 -0.2422 -0.2752 -0.2009
16104W        W59157  19.330  30.693  27.625  0.3616  0.1405  0.1002
16105W        W59158   1.684  27.540  14.297 -0.0800 -0.0896  0.0410
16106W        W59159  31.014  15.789   0.871  0.1914  0.1406  0.3312
16107W        W59160   6.960  25.408  27.766 -0.2415 -0.2785 -0.2315
16108W        W59161  30.702  24.968  25.325 -0.2549  0.3325  0.1813
16109W        W59162  31.864  31.294  16.961  0.0826  0.3308 -0.1116
16110W        W59163  32.592  34.172  16.463 -0.0094 -0.2574 -0.0524
16111W        W59164   5.910   0.051  17.058 -0.1391 -0.0855 -0.1006
16112W        W59165  31.226  20.079  19.815 -0.0314  0.1289  0.0326
16113W        W59166  27.842  33.419  16.402  0.0747  0.0204  0.3836
16114W        W59167   2.170  23.435   3.721  0.0025 -0.0968 -0.2708
16115W        W59168  33.120  32.266  15.267 -0.1201 -0.1808  0.0501
16116W        W59169  10.807   0.442  18.178  0.3281  0.0943 -0.0101
16117W        W59170  33.568  30.760   5.508 -0.0324  0.2855  0.1481
16118W        W59171  23.760  12.214  24.390 -0.0376  0.0972  0.0512
16119W        W59172   6.354   0.190   3.670 -0.1862  0.1964 -0.2629
16120W        W59173   6.364  28.649   4.262  0.0686 -0.0053  0.0040
16121W        W59174  14.429  23.437  22.484  0.4096 -0.3875  0.0100
16122W        W59175  15.921  27.065  22.220 -0.0405  0.2629 -0.0356
16123W        W59176  26.301  27.724  15.170  0.0824 -0.2154 -0.0539
16124W        W59177  29.513  20.213  15.350  0.0094  0.0959  0.2142
16125W        W59178  27.276  31.104  22.292 -0.3338 -0.0562  0.2526
16126W        W59179  13.522  17.139   0.225 -0.3776 -0.0833  0.0798
16127W        W59180  33.427  28.748  24.583  0.1906  0.0579 -0.0178
16128W        W59181  34.293  18.832  24.129  0.0955 -0.1479  0.1338
16129W        W59182  20.172  30.975  26.309  0.0392  0.1080 -0.1536
16130W        W59183   9.160  19.724  25.499 -0.1334  0.2426  0.0238
16131W        W59184  10.042  33.385  24.092 -0.1048  0.2914  0.0244
16132W        W59185  30.171  32.789  14.866  0.2571  0.2205 -0.4125
16133W        W59186  32.427  10.218  19.815  0.0023  0.0908  0.2907
16134W        W59187  18.066  28.287  26.664  0.1641  0.1135  0.1894
16135W        W59188  32.078   9.295  23.119  0.1243  0.0949 -0.2953
16136W        W59189  10.122  20.097   4.129 -0.1651  0.0415  0.2373
16137W        W59190  32.046   2.240  14.152  0.0175 -0.1077 -0.0586
16138W        W59191   1.067  16.214  18.053 -0.0117  0.0810 -0.0563
16139W        W59192   6.833  26.347   5.585  0.0233  0.0762  0.3389
16140W        W59193   4.462  28.088   3.029  0.1509  0.0543 -0.1546
16141W        W59194   6.297  19.398  19.742 -0.3121  0.3335 -0.2748
16142W        W59195  24.857  27.758   0.071 -0.0831 -0.1588  0.1119
16143W        W59196  30.379   2.012  17.287  0.0279 -0.1471  0.0737
16144W        W59197   4.135  27.265  17.891  0.1689  0.0591  0.0336
16145W        W59198   4.395  28.257  15.650  0.0383 -0.1770  0.2038
16146W        W59199  30.868  14.949  20.563  0.1192  0.2336 -0.0908
16147W        W59200   8.594  21.646  23.680 -0.0287 -0.4141 -0.0809
16148W        W59201   5.362  24.291  23.999 -0.0044  0.1375 -0.0130
16149W        W59202  15.716   0.876  21.844 -0.0253  0.1956 -0.1516
16150W        W59203   6.470  27.183   0.323  0.1024  0.3105 -0.2144
16151W        W59204  29.264  21.593  17.931  0.2568 -0.0279 -0.1851
16152W        W59205  17.810  22.569  20.438 -0.2095 -0.1311  0.2733
16153W        W59206  29.488   5.052  19.800 -0.3958  0.1442 -0.0122
16154W        W59207  13.440  24.273  19.565  0.1305  0.2942 -0.2152
16155W        W59208  25.426  31.243   2.062  0.0609  0.1238 -0.0175
16156W        W59209  27.670  20.707  27.199  0.1024 -0.3548 -0.0512
16157W        W59210   5.935   0.277  18.030  0.0684 -0.0595 -0.1159
16158W        W59211  13.134   2.161  18.159  0.2077  0.0267  0.0560
16159W        W59212   6.488  13.714   5.222 -0.0434  0.0401  0.0123
16160W        W59213  29.242  28.425  21.956  0.0579  0.3090  0.0415
16161W        W59214  31.519  28.038   6.432  0.2263  0.2148 -0.1918
16162W        W59215  33.713   6.064  23.145 -0.0133  0.0361  0.1260
16163W        W59216   3.568  23.948  16.954  0.1322 -0.1781  0.0593
16164W        W59217  17.082  11.049  22.990  0.0328 -0.3271 -0.2709
16165W        W59218  17.092  23.980  19.467 -0.2181 -0.2227 -0.1313
16166W        W59219  10.515  19.940  15.891  0.3581  0.0015 -0.2113
16167W        W59220  18.141   2.818  19.341  0.4233 -0.1141 -0.0276
16168W        W59221   3.055  16.598  26.627 -0.1218  0.3680 -0.0341
16169W        W59222  31.211  31.248  16.330  0.0018 -0.1603 -0.1158
16170W        W59223  24.548  30.857  23.836 -0.1574 -0.1519 -0.1313
16171W        W59224  32.271  23.144  17.479  0.0329 -0.1175  0.0447
16172W        W59225  30.081  32.333   8.881 -0.0425  0.0671 -0.0272
16173W        W59226  29.787  26.386   7.923  0.1637  0.0081 -0.0536
16174W        W59227  34.224  34.162  18.478 -0.0486 -0.0692 -0.1174
16175W        W59228  25.394   7.868   1.609  0.0568  0.0625  0.0963
16176W        W59229   4.458  23.869   6.920  0.1517  0.3600  0.1027
16177W        W59230   2.064   4.694  24.278 -0.1622 -0.2503  0.4144
16178W        W59231  32.189   5.154  27.123 -0.2516 -0.0805 -0.2457
16179W        W59232   7.749  27.974  21.978  0.0159 -0.0717 -0.3064
16180W        W59233  32.285  18.215  28.855  0.2893 -0.0782 -0.1135
16181W        W59234  15.138  24.390  18.810  0.0621  0.3078  0.0113
16182W        W59235  29.366  33.447  19.868 -0.0344 -0.0648 -0.2090
16183W        W59236   2.814  27.193  23.413 -0.1503  0.0250 -0.0361
16184W        W59237  29.005  21.951  14.532  0.2396 -0.2280  0.0611
16185W        W59238  18.710  22.911  23.123  0.1175 -0.2300  0.2747
16186W        W59239  28.031  25.991  17.640 -0.2548 -0.0878 -0.1638
16187W        W59240  10.478  20.412  21.233 -0.4659 -0.2453 -0.1623
16188W        W59241  10.746  16.200  17.631 -0.1123  0.1585 -0.2092
16189W        W59242   0.698  18.251  23.897  0.0779 -0.3759  0.1181
16190W        W59243   4.335  23.243  20.769 -0.1904  0.0464  0.1076
16191W        W59244   9.057   3.832  25.807  0.1497 -0.0114 -0.0016
16192W        W59245  10.459  22.478  14.481  0.2959 -0.0472 -0.0058
16193W        W59246  11.699  27.776   5.153  0.4271 -0.1943  0.1526
16194W        W59247  24.535  28.471  20.665 -0.1517  0.1438 -0.1290
16195W        W59248  12.194  23.755  22.856 -0.1164  0.0185 -0.0944
16196W        W59249   5.677  26.358   1.258  0.2482 -0.2316  0.3128
16197W        W59250  21.336  32.804   1.852 -0.0957  0.2702  0.2331
16198W        W59251   3.178  28.435  15.513 -0.0577 -0.0722 -0.2626
16199W        W59252   3.654  14.284  25.631 -0.1096 -0.0798  0.3129
16200W        W59253   7.195   2.353  25.198  0.4390  0.3054 -0.0660
16201W        W59254   1.260   8.383  16.490  0.2297  0.4562 -0.2177
16202W        W59255   3.241   1.142  26.354 -0.0110  0.0215  0.1261
16203W        W59256   1.551  17.938   7.960  0.0945  0.3101  0.0486
16204W        W59257  31.123  14.039  16.441 -0.2475  0.2738  0.1832
16205W        W59258  33.644  29.672  16.100 -0.0685  0.0080 -0.1860
16206W        W59259  30.748  31.770  15.301  0.0446  0.1425  0.2360
16207W        W59260  17.840  28.604  24.624 -0.0237 -0.0804 -0.0625
16208W        W59261  33.236   1.548  14.906 -0.1919  0.0092  0.1235
16209W        W59262  26.588  27.820  21.150 -0.1834 -0.0101 -0.0573
16210W        W59263  12.879  19.195  18.454 -0.4712 -0.0791 -0.0714
16211W        W59264  15.463  18.243  13.220  0.0146 -0.0959 -0.2084
16212W        W59265  33.599   0.752   0.132 -0.3240 -0.0311  0.0864
16213W        W59266   2.517  26.959   6.859  0.2068 -0.1116 -0.1500
16214W        W59267   9.395   3.009  18.213 -0.1289 -0.1745 -0.0251
16215W        W59268  17.882  20.168  23.970 -0.0739 -0.2308 -0.1402
16216W        W59269   2.227  28.069   0.384 -0.1588  0.0573  0.0345
16217W        W59270   7.594  30.783  18.250 -0.2178  0.2418 -0.3669
16218W        W59271  21.704  34.479  21.335 -0.3048  0.1960 -0.1792
16219W        W59272  31.048   0.607  21.756 -0.1629  0.0665  0.0817
16220W        W59273   6.519  33.628  22.064  0.2981 -0.0317  0.0063
16221W        W59274  23.677  16.464  24.072  0.4231 -0.0378 -0.3007
16222W        W59275  33.554  21.112   9.534 -0.0756  0.1037 -0.0586
16223W        W59276  17.028   0.768  27.825  0.0082  0.3046 -0.0821
16224W        W59277  12.198   0.584  25.309 -0.3328 -0.0069  0.3035
16225W        W59278  32.160  25.088  15.875 -0.0861  0.2578 -0.0019
16226W        W59279  13.617  29.154  27.661 -0.0846  0.4358  0.2217
16227W        W59280   0.817  20.809  16.056 -0.0193 -0.0025  0.0741
16228W        W59281  33.378   0.644  14.538 -0.0061  0.0471 -0.0811
16229W        W59282   3.125  19.946  19.716 -0.1048  0.1253 -0.2463
16230W        W59283  18.946  13.678  21.641 -0.0621  0.1696 -0.0282
16231W        W59284   8.828  18.863  24.819 -0.0455  0.1236 -0.0278
16232W        W59285   7.992  30.342  22.903 -0.0445  0.0286 -0.2908
16233W        W59286  28.896  19.162  14.244 -0.4879  0.1425 -0.1893
16234W        W59287  26.683  24.302  14.574 -0.2807  0.1178 -0.1937
16235W        W59288  26.082  23.368  19.229  0.0997 -0.1223 -0.2702
16236W        W59289  33.421   2.395  17.507 -0.2313 -0.3239 -0.0753
16237W        W59290  32.532   2.133  23.910  0.0627 -0.0449 -0.2666
16238W        W59291  26.383   5.351  20.434  0.1442 -0.6015 -0.0440
16239W        W59292   8.042  32.192  15.336  0.0840  0.2918 -0.0674
16240W        W59293   3.982  19.953  19.578 -0.2130  0.1902  0.1415
16241W        W59294  34.360  31.131  23.307 -0.3521  0.0097 -0.1556
16242W        W59295  15.334  31.074   8.623 -0.2067  0.1205 -0.0289
16243W        W59296  26.907  25.600  14.220  0.1652  0.2080  0.0106
16244W        W59297   1.009   1.060  23.708 -0.2061 -0.1617 -0.0894
16245W        W59298  20.197  12.541  20.347 -0.2691  0.1125 -0.1773
16246W        W59299  32.268   1.487  21.522 -0.2178  0.3310  0.1134
16247W        W59300  34.648  19.222   0.973 -0.0426 -0.5414 -0.0629
16248W        W59301   6.072  29.231  20.291 -0.0584 -0.1720 -0.1375
16249W        W59302  30.639  28.104  16.200 -0.0130  0.2515 -0.1019
16250W        W59303   8.275  15.745  25.486  0.0868 -0.2442 -0.1579
16251W        W59304  29.433  20.403  23.056 -0.1481 -0.2569  0.1206
16252W        W59305   0.859  34.005   4.794 -0.0949 -0.0471  0.0206
16253W        W59306  17.589   3.665  22.636 -0.0542  0.2127 -0.2908
16254W        W59307  26.667  11.361  19.570 -0.3491 -0.3054 -0.1772
16255W        W59308   6.477  12.939  16.840  0.4703 -0.0636  0.5675
16256W        W59309   4.135  22.388  19.792 -0.0265 -0.0959 -0.1087
16257W        W59310  32.225   4.259  17.665 -0.2397  0.4236 -0.0603
16258W        W59311   8.022   2.149  18.363  0.4642  0.0367  0.0026
16259W        W59312   2.600  26.002  21.151 -0.0848  0.0285 -0.1878
16260W        W59313  33.607  25.159  18.234 -0.0341 -0.0968 -0.3113
16261W        W59314  26.382   4.104  17.811  0.1905  0.1171  0.0784
16262W        W59315  34.665  17.083   4.586  0.2132 -0.0447  0.1796
16263W        W59316   8.974  25.481  27.067 -0.0200 -0.0450  0.0476
16264W        W59317   5.614   1.663  22.908 -0.1584  0.0958 -0.0229
16265W        W59318  34.563  26.906  15.710 -0.0303 -0.2658  0.3266
16266W        W59319   9.160  14.301  25.245  0.2560  0.1435  0.0321
16267W        W59320  11.579  22.777  20.887  0.0049  0.0990  0.0923
16268W        W59321  10.920  30.549  14.972  0.0481 -0.2471 -0.1130
16269W        W59322  29.935  16.570   9.043 -0.1080  0.0490 -0.0262
16270W        W59323   9.264  17.234  20.354  0.1257 -0.2035  0.4507
16271W        W59324   7.090  34.586  16.564 -0.3113  0.1928  0.2292
16272W        W59325  28.604  12.607  18.171 -0.1961 -0.0705 -0.0363
16273W        W59326   5.168  15.586  15.064 -0.3630  0.2413  0.0033
16274W        W59327  33.415  24.128  21.722 -0.0189 -0.1204  0.0443
16275W        W59328  32.398  27.029  15.219  0.0938 -0.2490 -0.1266
16276W        W59329  34.506  16.914  23.072 -0.0078  0.0248 -0.2342
16277W        W59330   7.199  10.936  17.652 -0.0596  0.1387 -0.1648
16278W        W59331  32.294  27.480  23.947  0.2148 -0.2151  0.0202
16279W        W59332   8.327   1.364  23.561 -0.1434 -0.2126  0.0538
16280W        W59333   6.176  21.423  15.863  0.1010  0.0680 -0.1965
16281W        W59334  27.657  21.811  18.198 -0.2067 -0.1240 -0.0026
16282W        W59335   3.529  12.545  23.998  0.3062 -0.2403 -0.2422
16283W        W59336  18.886   0.810  23.602 -0.5220 -0.0521 -0.1272
16284W        W59337   3.168   2.643  15.260 -0.1602 -0.2007  0.1333
16285W        W59338  16.543  22.169  21.146  0.1560 -0.1139 -0.3449
16286W        W59339  17.949  30.239  23.627 -0.1905 -0.0848 -0.0183
16287W        W59340  23.910   6.408  22.749  0.1906  0.2236 -0.0719
16288W        W59341  30.116   3.713  23.782  0.0156  0.0243  0.2475
16289W        W59342   4.153  25.946  17.767 -0.0866  0.1867  0.0925
16290W        W59343   9.330   5.565  17.235  0.0615 -0.1872 -0.1031
16291W        W59344  31.062  30.817  21.655 -0.2325 -0.1152  0.1994
16292W        W59345  12.488  16.196  25.872 -0.0904  0.2431 -0.1416
16293W        W59346   4.980  26.574  16.124 -0.1655  0.0085  0.0664
16294W        W59347   3.646  26.362   0.371 -0.0425 -0.1195 -0.0600
16295W        W59348   3.886   1.933  24.695  0.0331 -0.1588  0.0166
16296W        W59349  33.381  13.590  14.691 -0.2743  0.0686  0.0329
16297W        W59350   0.676  31.871  14.201  0.0480  0.0901  0.1264
16298W        W59351   4.466  25.325  18.396 -0.2158  0.2681  0.1194
16299W        W59352  31.207  27.849  18.203 -0.0536 -0.0899 -0.1871
16300W        W59353  33.684  29.280   6.399 -0.1622 -0.2939  0.0538
16301W        W59354  33.975  32.250  13.776 -0.2487 -0.0801  0.3158
16302W        W59355   1.591   1.100  24.529 -0.0939  0.0937 -0.0516
16303W        W59356  25.557  18.411  16.210  0.0131 -0.0715  0.2532
16304W        W59357  33.874  26.190  15.892 -0.2356 -0.3029  0.2981
16305W        W59358  26.080  18.355   1.066 -0.0517 -0.2715  0.0809
16306W        W59359   6.728   0.173  16.726  0.0955 -0.0802  0.0900
16307W        W59360   2.189   7.399   7.143 -0.1433  0.1682  0.2115
16308W        W59361   0.230  19.645  13.930 -0.1933 -0.1635 -0.0684
16309W        W59362   8.332  34.109  20.807  0.0666  0.2740 -0.2415
16310W        W59363  10.608   6.182   7.212  0.5171 -0.1899  0.1768
16311W        W59364  16.150   8.504  23.003 -0.0775 -0.1353  0.1132
16312W        W59365   2.225   1.259  21.025 -0.2120 -0.1200  0.0058
16313W        W59366  29.197  33.681  17.435 -0.0822 -0.1953  0.1383
16314W        W59367  30.761  19.730  17.942  0.2094  0.0906  0.0600
16315W        W59368  13.347  15.407  26.971  0.2198  0.0579  0.2167
16316W        W59369  14.609  32.333  20.349  0.1008  0.0475 -0.1568
16317W        W59370   5.230  26.072  17.755 -0.0754  0.0155 -0.1851
16318W        W59371   1.904  34.073  15.275  0.0112  0.0061  0.0969
16319W        W59372   2.971   7.242  15.530  0.1551 -0.0964  0.1094
16320W        W59373  10.964  23.157  16.069 -0.0860 -0.2572 -0.1968
16321W        W59374  14.129  19.280  21.587 -0.0321  0.0870 -0.2211
16322W        W59375  23.942  31.741  18.416 -0.2392  0.0318 -0.1553
16323W        W59376  28.012  22.980  14.420 -0.0317 -0.0845 -0.1559
16324W        W59377   2.125  32.074  16.366 -0.2626  0.1217  0.2847
16325W        W59378   2.989  32.296  28.134  0.0153 -0.0073 -0.3191
16326W        W59379  27.995   1.291  20.758  0.1609 -0.1937 -0.0340
16327W        W59380  30.391  23.346  16.458  0.1036  0.0031  0.1199
16328W        W59381  31.147  11.140  27.073  0.3513  0.2089  0.0312
16329W        W59382   1.299  20.669  16.533  0.0203 -0.3069  0.2109
16330W        W59383  29.540   8.987  19.082 -0.0320  0.1692 -0.1272
16331W        W59384  31.966  25.705  25.008  0.0987 -0.0668  0.1090
16332W        W59385  26.906  15.812  21.703 -0.1406  0.2562  0.0867
16333W        W59386   7.786   1.352  25.217  0.0540 -0.3478 -0.1906
16334W        W59387   0.237  20.621   1.679 -0.0720  0.1644 -0.0384
16335W        W59388   6.139   5.931  21.462  0.0898  0.1821 -0.0663
16336W        W59389   5.296  11.787  16.084 -0.2402 -0.1051 -0.0564
16337W        W59390  29.190   6.303  23.756 -0.2486 -0.1306 -0.0055
16338W        W59391   7.436  16.279  14.291  0.0569  0.1995  0.3545
16339W        W59392   4.598  11.078  16.899  0.0743  0.2929 -0.1033
16340W        W59393  22.651  31.183  22.338  0.0723 -0.2292  0.0698
16341W        W59394  21.193  12.137  24.790  0.2923 -0.0749 -0.0563
16342W        W59395  29.852  24.652  18.214  0.1245  0.0376  0.0057
16343W        W59396  22.861  32.480   3.441  0.3570  0.0190 -0.1736
16344W        W59397  27.566  29.608  14.221 -0.0775  0.0981  0.0490
16345W        W59398   4.796  25.448  16.069  0.0041  0.1297  0.3041
16346W        W59399   7.868  17.838  13.541 -0.0205 -0.0806  0.0032
16347W        W59400  30.966   8.419  22.446 -0.0537 -0.3230  0.1100
16348W        W59401   8.525  12.760  14.325  0.1912  0.1131  0.0035
16349W        W59402  34.061  29.199  25.970  0.3594  0.1264  0.1619
16350W        W59403   6.247  27.280  16.727 -0.0701 -0.0338  0.1596
16351W        W59404  22.782  33.406  17.446 -0.3418 -0.3296  0.0729
16352W        W59405  31.890  26.282  28.917 -0.0788  0.0265 -0.0928
16353W        W59406  33.013  14.288  22.835 -0.2414  0.0983  0.1400
16354W        W59407  31.608   8.807  19.215 -0.1739  0.1152 -0.1604
16355W        W59408   7.403  34.207  23.417 -0.1717 -0.2564  0.0293
16356W        W59409   7.545   1.556  18.918 -0.0826 -0.3443 -0.0389
16357W        W59410   8.192   8.781   7.221  0.2514 -0.0148  0.2147
16358W        W59411   6.934  31.065  19.936  0.2180 -0.1673  0.1176
16359W        W59412  29.845  18.809   3.796 -0.1438 -0.1565 -0.0575
16360W        W59413  31.905  29.408  13.704  0.2749 -0.3056 -0.0512
16361W        W59414  26.393   5.651  14.024 -0.1885 -0.0820 -0.0937
16362W        W59415   6.238  27.522  26.605 -0.4770 -0.1524 -0.3743
16363W        W59416   3.416  24.120  18.818 -0.0209 -0.1579 -0.1012
16364W        W59417  23.072   4.107  24.824 -0.1927  0.0368 -0.0584
16365W        W59418  17.637   0.186  14.742  0.0276 -0.1116  0.1198
16366W        W59419  20.450  27.602  21.322 -0.1690  0.0569 -0.0283
16367W        W59420  15.741  27.398  18.535  0.0737 -0.1735  0.2242
16368W        W59421   1.327   8.984  16.894  0.0028 -0.0217  0.0621
16369W        W59422   8.971  33.585   1.923 -0.1164 -0.1572 -0.0136
16370W        W59423   9.999  11.294  27.940 -0.3603  0.3067 -0.0175
16371W        W59424   8.080  23.754  21.491 -0.0142  0.1436  0.2362
16372W        W59425   0.152  19.138  22.945  0.1257  0.0297 -0.1581
16373W        W59426  10.397   3.594  26.432  0.2308  0.0150 -0.1586
16374W        W59427  32.159  24.799  15.116  0.0481 -0.1469 -0.1911
16375W        W59428  26.252  32.116  14.286 -0.0490 -0.1144 -0.1794
16376W        W59429   3.668  31.933  21.322 -0.1590 -0.0174 -0.0779
16377W        W59430  10.923  20.323   1.889 -0.1334  0.2500 -0.0928
16378W        W59431   5.838   8.186  15.017 -0.0398  0.1253 -0.0673
16379W        W59432   7.210  34.610  22.204 -0.0754 -0.1476  0.1199
16380W        W59433  32.597   2.286   2.547 -0.1290  0.0554 -0.1005
16381W        W59434   3.278  11.072   1.926  0.2339 -0.1012  0.1374
16382W        W59435   3.286  25.188  18.600  0.1299  0.1167 -0.0960
16383W        W59436   4.590  20.340  17.728  0.1000 -0.3110  0.0164
16384W        W59437  34.133   5.746  22.538  0.0928  0.2139  0.0191
16385W        W59438   3.779  26.729  17.914 -0.0071  0.1327  0.0215
16386W        W59439  22.397   9.720   3.103  0.0786  0.0915  0.0354
16387W        W59440  28.869  32.792  24.762 -0.2929 -0.0517 -0.0478
16388W        W59441  30.080  28.917  20.207 -0.0878  0.0778  0.0216
16389W        W59442   2.032  26.544  24.938 -0.1267  0.2314 -0.0785
16390W        W59443   4.343   0.245  23.628 -0.1189  0.0397  0.0836
16391W        W59444  21.384  10.027  22.011  0.1121 -0.1075  0.3987
16392W        W59445  15.245  12.023  25.498 -0.0075  0.1444 -0.3425
16393W        W59446   5.140  22.284  23.478 -0.0502  0.0604  0.0421
16394W        W59447  33.347  17.379  23.001 -0.3469 -0.0878 -0.1694
16395W        W59448   0.100   4.896  25.134 -0.1058 -0.1232 -0.0126
16396W        W59449  10.208  15.868  15.136 -0.2895 -0.2165  0.1314
16397W        W59450  28.730  24.799  20.132  0.0405  0.0705 -0.2164
16398W        W59451   2.155  18.992  21.474 -0.1011  0.1139  0.0880
16399W        W59452  33.373  19.521  14.974  0.0539  0.2487 -0.1185
16400W        W59453  17.267   3.098  15.944  0.2301  0.0474  0.0841
16401W        W59454   8.751  11.063  21.652  0.1485  0.1511 -0.1792
16402W        W59455   5.479  24.106   1.679  0.0989 -0.0594  0.0485
16403W        W59456  27.869  23.402  28.602 -0.0165  0.1920  0.1468
16404W        W59457  15.614   0.317  18.225  0.3737  0.3078  0.3967
16405W        W59458   2.586  31.446   8.311  0.0602  0.3580 -0.1583
16406W        W59459   9.772  18.795  17.581 -0.0090  0.0254  0.1493
16407W        W59460   0.837  17.372  21.745  0.0511  0.0162  0.1385
16408W        W59461   0.013  27.082  13.939 -0.1057  0.0010  0.1387
16409W        W59462  30.946  18.028  21.699  0.0218 -0.0304 -0.0016
16410W        W59463  30.376   0.740  19.708 -0.1809  0.0086  0.0781
16411W        W59464   8.958   2.031   1.624  0.2398 -0.0736  0.0465
16412W        W59465   0.843  21.877  18.107  0.1439  0.2417 -0.3323
16413W        W59466   2.799  23.869  21.663 -0.0542 -0.1250  0.1878
16414W        W59467   5.532  24.045  19.239 -0.0038 -0.3047  0.1912
16415W        W59468   4.987  34.001  21.291  0.1957  0.0285 -0.0630
16416W        W59469  31.192  33.127  25.563  0.0647  0.0955 -0.0373
16417W        W59470   2.445  25.530  19.459 -0.0757  0.0811  0.0019
16418W        W59471  32.427  34.428  18.466 -0.1417 -0.0680  0.0023
16419W        W59472  23.856  21.620  24.288  0.0064 -0.0626 -0.0583
16420W        W59473  28.812   6.068  15.138  0.0968  0.1199 -0.0901
16421W        W59474  25.122  30.797  22.276  0.1536  0.0585  0.2625
16422W        W59475   1.881  16.024  14.397 -0.0728  0.0714 -0.0529
16423W        W59476  24.746   1.987  19.849  0.1820  0.3100  0.0885
16424W        W59477   6.592  33.330  13.858 -0.1571  0.2590  0.0784
16425W        W59478   5.749  19.964  20.965  0.2873  0.1245 -0.0385
16426W        W59479  19.834   0.916  18.637  0.0222 -0.2096  0.1868
16427W        W59480   9.784  25.867  19.866 -0.2533  0.0593  0.1043
16428W        W59481   5.463  14.516  14.568  0.0962  0.1432 -0.0116
16429W        W59482  28.090  27.429  21.698  0.1457 -0.3871 -0.1439
16430W        W59483  17.624  31.303   0.025  0.1461  0.0240 -0.1841
16431W        W59484   2.491   6.233  24.620  0.2395 -0.0730  0.1722
16432W        W59485  31.537   2.724  15.890  0.1304 -0.1316 -0.1547
16433W        W59486   9.360  24.236  14.739  0.2063  0.2182 -0.1344
16434W        W59487   7.887   7.216  18.718 -0.2595 -0.1208 -0.0438
16435W        W59488  28.097  17.045   0.279  0.1124 -0.1287 -0.1791
16436W        W59489   1.868   1.191  23.666  0.0263  0.1378 -0.2538
16437W        W59490  28.062   2.667  25.046 -0.2624  0.2074  0.3679
16438W        W59491  12.970  33.066  18.078  0.0807  0.0998 -0.0633
16439W        W59492   0.040  21.477   1.147 -0.1575  0.0109 -0.3786
16440W        W59493  29.082  25.098  20.328 -0.1273 -0.1108 -0.1344
16441W        W59494  26.417  10.577   0.021  0.1598 -0.1859  0.0493
16442W        W59495  34.131   9.162  17.769 -0.1674  0.3626 -0.0832
16443W        W59496  11.669   7.761  22.009  0.0459 -0.1882 -0.1822
16444W        W59497   1.393   5.174   3.878 -0.2762  0.0875  0.0314
16445W        W59498  15.739  26.754   0.501  0.0772  0.3734 -0.0487
16446W        W59499  28.696  28.339   1.114  0.0290 -0.0885 -0.1191
16447W        W59500   5.958  18.349  16.000  0.1933 -0.2429 -0.2548
16448W        W59501  13.430   3.348  24.063  0.0145 -0.2072  0.1208
16449W        W59502  21.013  33.788  23.136 -0.2127  0.1123  0.0316
16450W        W59503  30.752  26.470  28.571  0.0277  0.2093 -0.1103
16451W        W59504  24.538  20.789  25.809 -0.2060 -0.0551 -0.1338
16452W        W59505  32.368   7.505  16.257  0.0702  0.2951  0.0946
16453W        W59506   1.833  31.576  14.806  0.0217  0.0536  0.0529
16454W        W59507   4.286  27.378  27.717  0.1427  0.0339 -0.0978
16455W        W59508  11.633   1.470   5.507  0.0173  0.0946  0.1020
16456W        W59509  34.557  33.936   6.685 -0.1138 -0.0618 -0.0788
16457W        W59510   3.475  29.784  26.068 -0.0896 -0.1957  0.2163
16458W        W59511   8.187  29.129  19.901  0.0033 -0.0325  0.2710
16459W        W59512  12.698  18.768  18.774 -0.2862  0.2039 -0.0537
16460W        W59513   6.808   5.780   3.419 -0.0927  0.1947 -0.2495
16461W        W59514  10.354   6.053  24.906 -0.0808 -0.0797  0.0040
16462W        W59515  23.087  13.468  25.882  0.1935  0.1497 -0.4559
16463W        W59516   0.145  18.802  23.395 -0.0312 -0.0170  0.3707
16464W        W59517  22.558  22.110  14.369 -0.1189  0.4794 -0.1971
16465W        W59518   9.626  16.840   6.837 -0.1571  0.1022  0.1732
16466W        W59519  19.021  31.018   0.575  0.1106 -0.0026 -0.1414
16467W        W59520  30.813  32.264  21.393  0.2548  0.0195  0.0670
16468W        W59521  26.369  32.009  15.926 -0.1803 -0.1180 -0.1650
16469W        W59522  22.875   4.615   0.521  0.2171 -0.0637 -0.1415
16470W        W59523   8.887  29.800  24.324  0.5164 -0.1082 -0.3818
16471W        W59524   1.866  31.013  15.598  0.3275  0.3507  0.2523
16472W        W59525   9.138  28.000  19.919 -0.4771  0.1617  0.0754
16473W        W59526  11.176  31.935  22.157 -0.1113  0.0916  0.0311
16474W        W59527   0.002  16.184   4.707 -0.1910  0.2155  0.2780
16475W        W59528  20.249  34.142   4.106 -0.0047 -0.2766  0.4431
16476W        W59529   0.307   8.856   0.225  0.1752  0.0075 -0.1693
16477W        W59530  33.177  26.252  22.456  0.0601  0.2237 -0.0110
16478W        W59531  21.846   0.450  23.397 -0.2193 -0.0054  0.4692
16479W        W59532  26.168  33.079  26.485 -0.1456 -0.3525  0.0504
16480W        W59533  19.284  25.352  21.601 -0.1226 -0.0416 -0.2738
16481W        W59534  12.821   2.438  14.794 -0.0423 -0.1193  0.0046
16482W        W59535   8.332  26.695  23.190  0.1490  0.1762  0.3475
16483W        W59536  16.554   0.844   1.795  0.0070  0.3234 -0.3142
16484W        W59537  25.878   8.441  23.211  0.1473 -0.0362 -0.2624
16485W        W59538   1.907  30.223  25.924 -0.1200  0.0943 -0.3911
16486W        W59539  13.058  22.668  22.729 -0.0676  0.0269 -0.0971
16487W        W59540  23.571   2.111  20.178  0.4208  0.0342  0.0207
16488W        W59541  31.183   4.505  25.097  0.2142 -0.1377 -0.1253
16489W        W59542  27.250  31.701  17.044 -0.0179 -0.3697  0.1589
16490W        W59543  32.748  30.968  16.820 -0.3204 -0.2522  0.0123
16491W        W59544   1.073  26.483  24.665 -0.1201  0.3998 -0.0057
16492W        W59545   6.280  25.918  14.985  0.2580 -0.0784 -0.2985
16493W        W59546  25.900  28.765  22.788 -0.0878 -0.1374  0.0910
16494W        W59547   5.974  13.103  20.104 -0.0442  0.0244  0.1063
16495W        W59548   8.978  16.033   7.083  0.0565  0.0029 -0.1098
16496W        W59549  11.799   5.466   1.611 -0.0473 -0.0431 -0.0011
16497W        W59550   9.575  28.066  19.750  0.0604  0.1595 -0.0241
16498W        W59551  33.324  10.344   8.173  0.0016  0.0469 -0.0266
16499W        W59552   9.339  26.739  15.870 -0.0305 -0.3796 -0.3763
16500W        W59553   9.684  34.079  24.283 -0.0233 -0.3972 -0.1036
16501W        W59554  31.715   6.390   3.230  0.0175  0.0563  0.1753
16502W        W59555  32.493  11.174  22.509 -0.0328  0.0267  0.0192
16503W        W59556  25.875   4.576  24.888  0.0491 -0.0712  0.2673
16504W        W59557  19.783  24.797  20.729  0.1193  0.0766  0.0551
16505W        W59558   8.816  29.097   8.130 -0.4036 -0.2800 -0.0807
16506W        W59559   1.152  26.509  12.791 -0.1627 -0.0406 -0.0091
16507W        W59560  23.326  27.428   0.953  0.2325 -0.0362 -0.2575
16508W        W59561  33.077   3.943  16.110 -0.0439  0.0551  0.2668
16509W        W59562   1.292   1.239  26.499 -0.0596  0.0058 -0.0211
16510W        W59563  30.858  22.411  25.770 -0.2315 -0.0011 -0.1016
16511W        W59564  20.677   5.658  26.192 -0.0217 -0.1189 -0.2077
16512W        W59565   7.745  23.674  29.190 -0.2212  0.1061 -0.1210
16513W        W59566  20.889  25.245  24.705  0.1964 -0.0031  0.0826
16514W        W59567   9.855  29.334  13.804  0.1185 -0.0292  0.1199
16515W        W59568  26.306   3.321  24.434  0.1970 -0.3408  0.0641
16516W        W59569   5.115  29.164   1.910 -0.3001  0.2133 -0.1494
16517W        W59570   3.846   6.764  15.573  0.1343  0.1589  0.2126
16518W        W59571   8.778  31.033  13.140  0.0892 -0.0512 -0.1508
16519W        W59572  30.927  20.636  15.197 -0.0613  0.0984  0.2471
16520W        W59573  30.885  18.730   1.201 -0.0205 -0.0477 -0.2760
16521W        W59574  29.094  31.254  19.451 -0.3005 -0.0541  0.0087
16522W        W59575  32.060   3.169  18.028  0.1624 -0.1171  0.0937
16523W        W59576  34.535  26.783   7.480 -0.0273 -0.3782  0.0779
16524W        W59577  12.802  17.846   0.567  0.2835  0.1194 -0.1433
16525W        W59578  25.364  14.745  21.811  0.2169 -0.1131  0.1382
16526W        W59579  32.922  25.305   0.716 -0.1923 -0.4147 -0.1222
16527W        W59580  31.763  16.608  21.715  0.0956  0.0459 -0.0607
16528W        W59581  22.415  22.088  16.244 -0.0119  0.1340  0.2423
16529W        W59582  10.300  26.487   7.044  0.0051 -0.3718  0.3367
16530W        W59583  33.696  22.361  23.223 -0.2462 -0.0720  0.1323
16531W        W59584   3.413  29.125  21.870  0.0588 -0.2523  0.1499
16532W        W59585  23.527  32.512  22.318  0.3911  0.3270  0.3925
16533W        W59586  26.989  22.679   1.420  0.3867  0.0769  0.0777
16534W        W59587  17.658   1.906  25.649 -0.0318  0.0807 -0.1019
16535W        W59588   8.486   4.924   6.820  0.0910 -0.0320  0.3632
16536W        W59589  30.117  27.994  18.170  0.0133  0.0623 -0.0739
16537W        W59590  28.671   5.916  20.070 -0.0527 -0.0324 -0.0085
16538W        W59591   1.153  34.659   3.291  0.1543 -0.0001 -0.2586
16539W        W59592  25.369  13.232  15.682  0.0415  0.0669  0.0250
16540W        W59593   8.027  21.316  14.047  0.2798 -0.1226 -0.0179
16541W        W59594  30.235   5.830  28.522  0.2935 -0.4768  0.0485
16542W        W59595  12.274  23.576  19.675 -0.2441  0.0043  0.0238
16543W        W59596  16.234  11.134  27.454 -0.3135 -0.0027 -0.1035
16544W        W59597  33.416  33.184  27.262  0.0679  0.0500 -0.0732
16545W        W59598  22.855  24.413  23.603  0.1437 -0.1584  0.1293
16546W        W59599   4.726  19.654   3.775  0.2436  0.4009  0.1395
16547W        W59600  13.835   3.656   2.862  0.0941  0.1478  0.0691
16548W        W59601  12.146  23.065  26.364  0.0962  0.2670 -0.2659
16549W        W59602  13.348  27.227  23.898  0.1881 -0.1367 -0.2246
16550W        W59603  33.803  32.529  25.068 -0.1555 -0.1603 -0.1049
16551W        W59604  10.870  29.755  28.324 -0.1971  0.1215  0.1881
16552W        W59605  33.128  11.524  22.224  0.0821  0.2572 -0.1333
16553W        W59606   3.645  10.088  18.400  0.1466  0.1977  0.3579
16554W        W59607   8.332  16.755  22.772 -0.0134  0.0759  0.0407
16555W        W59608  10.892   7.088  23.934 -0.2415 -0.1107 -0.0337
16556W        W59609  24.946  11.566  16.004 -0.1485  0.0906 -0.3897
16557W        W59610  31.875  20.258  16.705  0.0182 -0.3421  0.1519
16558W        W59611   4.289  26.525  26.114 -0.0987 -0.3982  0.0490
16559W        W59612  26.534  12.646   7.653  0.1079 -0.0680 -0.1703
16560W        W59613   5.418   7.739  26.986  0.4191 -0.0747  0.0314
16561W        W59614  23.747   0.048   1.025 -0.0331 -0.1318 -0.1658
16562W        W59615  13.306  24.923  22.993  0.2973  0.3699 -0.1884
16563W        W59616   4.769  20.320  24.650 -0.0298 -0.2944 -0.1685
16564W        W59617   4.169  27.955   5.705 -0.4000  0.1491 -0.2007
16565W        W59618   0.005  14.986  26.986  0.0976 -0.2817  0.1882
16566W        W59619  13.626  26.245  20.422 -0.1139  0.3445  0.1552
16567W        W59620  11.795  23.346   6.187 -0.0944  0.0642 -0.1111
16568W        W59621   2.777  28.682  20.210 -0.3647 -0.0034 -0.0945
16569W        W59622  21.569  29.296  24.686 -0.1848 -0.3071  0.0621
16570W        W59623  19.618  34.480  25.186  0.2726  0.1694  0.0315
16571W        W59624   3.128  27.301  28.711  0.1372 -0.2226  0.2052
16572W        W59625  28.857  25.601   2.166 -0.3043 -0.0244 -0.3094
16573W        W59626   5.445  31.008  14.513  0.0828  0.1936  0.0813
16574W        W59627  20.236  34.272  28.234  0.0072 -0.0756 -0.1488
16575W        W59628   6.382  19.669   7.643  0.4332  0.2381  0.0428
16576W        W59629   1.445   2.143  20.148  0.1544  0.0525 -0.0387
16577W        W59630   5.627  20.550  17.873 -0.0922  0.1286  0.1427
16578W        W59631  13.820  30.730  15.506 -0.0251  0.2132  0.1273
16579W        W59632  31.964  14.986  24.575 -0.1149  0.0539  0.0137
16580W        W59633   5.816   0.355   3.676 -0.0212  0.0288 -0.4452
16581W        W59634   1.752   5.462  25.845 -0.0127 -0.0886  0.1642
16582W        W59635  13.735  25.937  22.619 -0.1746  0.2267 -0.0065
16583W        W59636   5.403  33.592  19.899  0.0540 -0.0877 -0.3713
16584W        W59637  32.699  13.192  16.591  0.1783 -0.1912 -0.1847
16585W        W59638   6.720  29.664  28.068 -0.0223 -0.0296  0.1446
16586W        W59639   8.527  25.486  15.579  0.1087  0.0155 -0.2356
16587W        W59640  24.516  16.744  18.020  0.0034 -0.2312 -0.0352
16588W        W59641   1.280  32.862   5.313  0.1147  0.0704  0.0145
16589W        W59642   5.563  13.207   2.891 -0.0759 -0.3313 -0.0063
16590W        W59643  23.753  29.605  20.996  0.1375 -0.2219 -0.4623
16591W        W59644  13.280  24.293  26.067  0.0459 -0.2423  0.0042
16592W        W59645   7.513   9.838  22.965  0.2883  0.1580  0.0161
16593W        W59646   4.095  19.700   4.811  0.0437  0.0067 -0.0357
16594W        W59647  27.482  27.785  17.956  0.0874 -0.1995 -0.1143
16595W        W59648  18.424  23.885  17.236 -0.0716 -0.0304 -0.0405
16596W        W59649  34.147  27.400   1.370 -0.1345  0.0503  0.0927
16597W        W59650   0.388   6.393  21.332 -0.2156  0.1504 -0.2373
16598W        W59651  11.655  30.979  15.092 -0.0026  0.1524  0.0309
16599W        W59652  30.926   8.600   3.721 -0.2228 -0.0287 -0.2454
16600W        W59653   8.268  16.665  23.672  0.1589 -0.1342  0.2256
16601W        W59654  34.432  31.560  20.852  0.1004 -0.0506 -0.1395
16602W        W59655  28.673  22.219  17.641 -0.0580  0.3476 -0.0301
16603W        W59656   4.127  17.594  15.683 -0.3307  0.0574 -0.0516
16604W        W59657   5.923   4.703  18.529  0.1902  0.2339  0.2951
16605W        W59658   5.147  12.290  18.483  0.0156 -0.0629  0.2013
16606W        W59659  28.567  28.567  27.529  0.0651 -0.0836 -0.4341
16607W        W59660   7.563   2.482  18.336 -0.0149  0.3265 -0.1310
16608W        W59661  33.683   7.442  21.378 -0.0300 -0.0124  0.0291
16609W        W59662   4.934  32.406  22.473 -0.0541  0.2640 -0.2271
16610W        W59663   4.408  24.472  18.733  0.0398 -0.0124 -0.0954
16611W        W59664  11.140  28.503  13.861  0.0348  0.3699  0.0756
16612W        W59665   2.458  30.509  17.240  0.1173  0.0797  0.0304
16613W        W59666  33.851  28.258  20.469 -0.0081 -0.2228 -0.1429
16614W        W59667  27.986  33.599  18.653  0.0704  0.0897  0.1274
16615W        W59668   5.800   4.074  27.528  0.2521 -0.2658  0.0438
16616W        W59669  23.193  17.662  27.565  0.0117  0.1691  0.1309
16617W        W59670   3.627   6.378  22.701  0.1769  0.1455  0.0929
16618W        W59671   7.846  33.443  17.745 -0.2906  0.1245 -0.2472
16619W        W59672  17.772  32.484  22.935  0.0795  0.2745  0.3399
16620W        W59673  22.536  24.840  15.405 -0.0792 -0.0763 -0.1304
16621W        W59674   8.019  15.916  26.962  0.1197  0.2407 -0.1415
16622W        W59675  16.806  29.896  18.270 -0.0166 -0.1410 -0.0183
16623W        W59676   9.996  19.453  26.368  0.1496 -0.0045 -0.1886
16624W        W59677  34.329   1.143  24.281  0.2485 -0.0398  0.3077
16625W        W59678   6.812   2.530  24.835 -0.0124 -0.0633 -0.0921
16626W        W59679   2.715  24.552  17.945 -0.0710  0.0969  0.0359
16627W        W59680  33.406  22.551   6.550  0.2180 -0.3750 -0.2481
16628W        W59681  21.766   3.795  23.685 -0.0487  0.0025 -0.2944
16629W        W59682  31.399   0.018  27.962  0.2357 -0.1704 -0.3399
16630W        W59683  32.864  27.231   1.534 -0.1716  0.2274  0.1312
16631W        W59684  34.183  32.493  20.924 -0.2867 -0.0131  0.3216
16632W        W59685   6.847  21.316  18.360  0.2537  0.0632 -0.2000
16633W        W59686   1.310   2.073   4.512  0.1158  0.0600 -0.0119
16634W        W59687  29.571  16.301  25.686  0.0255  0.1065 -0.0541
16635W        W59688  32.074  27.164   8.825  0.0132 -0.0023 -0.2630
16636W        W59689  22.409   0.668  22.203 -0.1298  0.0436  0.4856
16637W        W59690  14.935  25.316  19.818  0.1787  0.2211  0.0084
16638W        W59691  27.244  17.027  14.819  0.0669  0.5044  0.3041
16639W        W59692  23.861   2.419  17.006  0.3074 -0.0131  0.0079
16640W        W59693  33.349  26.434  21.368 -0.0384  0.2213 -0.0225
16641W        W59694  26.772  27.926  15.691  0.2637  0.3867  0.2955
16642W        W59695  11.226  19.106   1.088 -0.1279 -0.3155  0.2168
16643W        W59696   7.793  23.766  23.561  0.0977 -0.1897 -0.0861
16644W        W59697  31.912  22.805   3.370  0.1802  0.2869  0.1105
16645W        W59698   0.077  18.311  27.247 -0.0832 -0.3047 -0.0790
16646W        W59699  10.606  27.192  19.770  0.1058 -0.1715  0.3017
16647W        W59700  33.287  26.965  24.531  0.3060 -0.2130  0.1620
16648W        W59701  13.253  18.398  25.639  0.0901 -0.1273 -0.1718
16649W        W59702  14.163  10.157  20.598 -0.1573 -0.0444 -0.2426
16650W        W59703  31.376   3.730   2.180  0.2321 -0.0505 -0.1880
16651W        W59704   0.797  24.949   1.152 -0.0651 -0.0214  0.3810
16652W        W59705  33.967  15.520  15.377  0.1799 -0.0520  0.2456
16653W        W59706   0.528  26.649  13.301 -0.1606  0.0933 -0.1308
16654W        W59707  16.907   7.155  22.249  0.0912  0.2236 -0.0141
16655W        W59708   9.212  23.508   1.130 -0.0883 -0.2219 -0.1166
16656W        W59709  33.286   6.994  26.293 -0.0466 -0.0223  0.1846
16657W        W59710  19.922  31.728   5.760  0.1361  0.3986  0.2299
16658W        W59711  21.369  32.304  26.207 -0.0366  0.1204  0.2154
16659W        W59712   0.345   7.373   2.539  0.3313  0.0097  0.1527
16660W        W59713  25.695  30.421  21.980 -0.2823 -0.0519  0.1380
16661W        W59714  28.823  18.124  26.612  0.0292 -0.1005  0.0619
16662W        W59715   1.704   9.907  17.500 -0.1209 -0.0629 -0.1366
16663W        W59716  13.820  28.891  14.959  0.3991 -0.2825 -0.3375
16664W        W59717  16.789  31.187  23.556 -0.0654  0.0722  0.3067
16665W        W59718   7.886  31.301  19.735 -0.1718 -0.0734  0.2584
16666W        W59719   0.130  13.861   6.661  0.1275  0.2429  0.1845
16667W        W59720  22.534  31.538  18.284  0.0623 -0.1660  0.0995
16668W        W59721   0.788   0.669  23.908 -0.1951  0.0051  0.3082
16669W        W59722   9.284  23.609  16.332 -0.0369  0.1852  0.2278
16670W        W59723   9.194   1.269  18.320  0.0910 -0.2975  0.2466
16671W        W59724  32.356  26.380  22.284  0.0232  0.3521 -0.2012
16672W        W59725   1.641  32.991   3.636 -0.0829 -0.2262 -0.0265
16673W        W59726  10.402  24.893   2.907  0.0906 -0.2642  0.4401
16674W        W59727   6.817  29.334  20.110  0.0569  0.1447  0.1203
16675W        W59728  14.969  26.933   4.705 -0.1348  0.4725 -0.3746
16676W        W59729  22.979  16.998  16.701 -0.0838 -0.0242  0.1865
16677W        W59730  23.398   0.018  25.644  0.1419  0.0221 -0.1494
16678W        W59731  34.081   1.471  23.436 -0.1936  0.0031  0.1924
16679W        W59732  18.080  13.011  16.217  0.0915 -0.0071 -0.1550
16680W        W59733  14.640  22.188   0.548 -0.3299 -0.1146 -0.0458
16681W        W59734  18.449   8.553  24.473  0.2883  0.0543 -0.0809
16682W        W59735  15.477   8.181  20.496 -0.5238  0.1191  0.2675
16683W        W59736  32.789  34.556  16.729 -0.0464 -0.2792 -0.0489
16684W        W59737   5.391  28.447  15.638 -0.3627 -0.1997 -0.1406
16685W        W59738  31.096   6.790   6.162  0.0230 -0.1081 -0.0294
16686W        W59739   5.529  15.206   6.274 -0.2663  0.1668  0.1717
16687W        W59740   3.582   6.192   8.137 -0.1494  0.2233 -0.0862
16688W        W59741  33.922  25.077   8.920  0.0682  0.1218  0.1662
16689W        W59742   4.546  27.700  20.785 -0.0475 -0.1592 -0.2316
16690W        W59743   4.292  28.277   8.627 -0.1204  0.2570  0.0306
16691W        W59744   5.124  28.408  21.944  0.0738  0.0271 -0.1038
16692W        W59745  12.346  24.799  27.594  0.0300  0.2621  0.1523
16693W        W59746  12.157  15.624  18.972  0.0541 -0.2833 -0.3164
16694W        W59747  15.789  25.499  21.088 -0.0202 -0.1472 -0.1139
16695W        W59748  13.081  22.649  24.714 -0.0612  0.0522  0.2303
16696W        W59749  30.448  11.923  22.937 -0.2831  0.0259  0.3844
16697W        W59750  21.112  30.257  15.848  0.2161 -0.2263  0.2223
16698W        W59751   0.131  21.574   4.967  0.1276  0.2238 -0.0084
16699W        W59752  12.739  22.378  23.067 -0.0825 -0.1802  0.0394
16700W        W59753  27.869  27.790  14.033  0.2287  0.1475  0.2332
16701W        W59754   8.732  24.969  25.756  0.0191 -0.2366 -0.0491
16702W        W59755  30.276  22.589   1.725 -0.2550  0.2458  0.2518
16703W        W59756   2.196  20.052  13.392  0.0411 -0.3358 -0.0381
16704W        W59757  20.523  29.016  25.582  0.3478  0.0842  0.0577
16705W        W59758  21.330  22.917  23.434  0.0453 -0.0876 -0.0620
16706W        W59759  24.968  28.993   1.696  0.1389  0.0529 -0.0273
16707W        W59760  33.610  34.533   9.362  0.2151 -0.2588  0.2066
16708W        W59761  32.658  34.450  18.021  0.2511  0.0544  0.1292
16709W        W59762   4.363  26.346  27.272 -0.0467 -0.1913  0.2339
16710W        W59763   0.339  27.888   4.167  0.3335 -0.1151  0.0380
16711W        W59764  30.450  31.495  25.779 -0.1574 -0.1274 -0.1364
16712W        W59765   9.060  27.900  28.267 -0.1602  0.0159  0.1727
16713W        W59766  15.724  26.138  25.842 -0.0308  0.0539  0.1555
16714W        W59767  18.960  32.768  20.593 -0.1943  0.0439 -0.1288
16715W        W59768  32.356  33.470  22.909  0.1395 -0.0075  0.1218
16716W        W59769   9.795   9.333  19.169  0.2044 -0.1573  0.2293
16717W        W59770  34.065  25.394  18.473  0.0318  0.1578 -0.3007
16718W        W59771  19.166  26.015  19.828  0.0563  0.0248  0.2230
16719W        W59772   0.583  33.723  14.103 -0.1596  0.3830  0.1575
16720W        W59773  33.302   3.943  23.713 -0.1096 -0.1984  0.1206
16721W        W59774   0.273   4.233  28.778 -0.3343  0.1631 -0.2859
16722W        W59775  13.669   0.857  21.963 -0.2790 -0.0928 -0.1913
16723W        W59776   0.002   6.149  18.578 -0.2571 -0.2779  0.1030
16724W        W59777   8.066  24.082  26.598 -0.1383  0.1025  0.0717
16725W        W59778   8.959  26.588  24.713 -0.3128 -0.0528  0.0668
16726W        W59779   8.227   1.739  23.177 -0.2030  0.2162  0.1850
16727W        W59780   9.599  28.371  15.717  0.0942  0.1689  0.0566
16728W        W59781  12.008  28.788   2.897  0.1159  0.2971  0.0904
16729W        W59782   8.978  16.816  27.093 -0.0953  0.0419  0.0825
16730W        W59783   9.704  33.569  27.357  0.0899  0.2543 -0.0822
16731W        W59784  15.609  20.722  26.161  0.1050  0.3155  0.2179
16732W        W59785  31.331   3.102  23.492 -0.4117  0.1442  0.1771
16733W        W59786  33.416   6.643   2.757  0.0270 -0.1109  0.1724
16734W        W59787  23.592   0.491  26.509  0.0770 -0.1905 -0.1357
16735W        W59788  19.418  31.342   6.505  0.2596 -0.1838  0.0480
16736W        W59789   8.437  27.021  20.849 -0.1136 -0.1391 -0.0993
16737W        W59790   7.520  26.129  17.934  0.0177  0.0778  0.0387
16738W        W59791  33.311  21.522  15.534 -0.1249 -0.2071 -0.1641
16739W        W59792  12.178  25.126  28.561  0.1180  0.1373 -0.0960
16740W        W59793   7.341  29.023   4.609 -0.0628 -0.2074  0.1961
16741W        W59794  24.681   3.435   2.997  0.0516 -0.1202  0.3671
16742W        W59795  32.097  23.397  13.506  0.0059  0.0155 -0.1724
16743W        W59796  34.398  17.602  21.790  0.0171 -0.0695  0.0398
16744W        W59797  31.455  27.194  17.487 -0.0587  0.4393 -0.1921
16745W        W59798  28.684   4.680  18.098 -0.2689 -0.1170  0.3058
16746W        W59799  23.081  27.014   3.488 -0.0447 -0.0294  0.1886
16747W        W59800  29.835   1.377  28.758  0.0231  0.0839  0.2965
16748W        W59801  31.641   8.975  23.167 -0.0901 -0.0218 -0.0296
16749W        W59802  18.413  25.236  22.259  0.0946  0.2001 -0.0597
16750W        W59803  28.947  16.629   8.335 -0.0786  0.0491 -0.0991
16751W        W59804   3.876   3.304   6.801  0.0227  0.0998  0.2271
16752W        W59805  30.275  21.643   2.167 -0.1502 -0.1752  0.1468
16753W        W59806   0.170  20.496  23.527 -0.3003  0.2496  0.2004
16754W        W59807  29.737   0.151  14.648 -0.3727  0.0863  0.2194
16755W        W59808  30.853   0.191  13.844 -0.1030 -0.1764  0.0131
16756W        W59809   5.241  13.064  16.350  0.1414  0.1914  0.0032
16757W        W59810   0.113  13.419  16.302 -0.1708  0.0764  0.1521
16758W        W59811   3.197   4.104  18.680  0.0732 -0.0122 -0.3356
16759W        W59812   2.024  26.393   5.288  0.1793  0.0900 -0.1079
16760W        W59813  12.413  27.883  18.741  0.1316 -0.4057 -0.0811
16761W        W59814   5.069  25.565  27.768 -0.0047 -0.1981  0.3105
16762W        W59815   9.860  34.396  20.183  0.0572  0.2783 -0.1957
16763W        W59816  19.012  23.903  26.256 -0.1471 -0.0868  0.0116
16764W        W59817  16.366  20.877  14.194  0.5346  0.3985  0.0734
16765W        W59818  24.457  34.482  18.707  0.0730 -0.1075 -0.4159
16766W        W59819   1.554   5.246  26.629 -0.0948 -0.0217 -0.1178
16767W        W59820  28.541  13.297  26.616 -0.0866  0.1923 -0.3554
16768W        W59821  33.062  25.619  22.273  0.1172  0.3037 -0.0622
16769W        W59822  27.132  22.364  23.801 -0.1312  0.1431  0.0643
16770W        W59823  12.745  33.064  25.457  0.0064  0.0588 -0.1381
16771W        W59824  20.254  20.638  25.679 -0.1981 -0.0769 -0.1476
16772W        W59825  22.369   7.543   7.383 -0.0621  0.2503 -0.0036
16773W        W59826  16.896  20.904  26.062  0.5132  0.1570 -0.0218
16774W        W59827  11.933  33.051   6.743  0.1141 -0.3607  0.1792
16775W        W59828  22.679  22.253  26.663 -0.3258  0.2661  0.1973
16776W        W59829  11.635  33.713  21.294 -0.1302 -0.1228 -0.2473
16777W        W59830  20.021  24.176  25.886 -0.2277 -0.1067 -0.1051
16778W        W59831  16.056  33.401   2.803 -0.0132  0.0999 -0.0335
16779W        W59832   0.144   5.335  27.036  0.2290 -0.3286  0.3945
16780W        W59833   7.838  32.809  14.470 -0.2308  0.3361  0.0311
16781W        W59834  14.049  34.028   3.260 -0.0216  0.1156  0.0133
16782W        W59835  29.307  23.683  15.890 -0.0541  0.0229 -0.1959
16783W        W59836  14.556  30.273   6.077  0.1902  0.1817 -0.3265
16784W        W59837   8.517  16.144  16.234  0.1189 -0.0323  0.2643
16785W        W59838  12.205  33.696  25.971  0.0967 -0.1594  0.0378
16786W        W59839  18.063  29.036  18.028 -0.1604  0.0970 -0.3083
16787W        W59840   0.555  17.362  15.325 -0.2105  0.1674 -0.0372
16788W        W59841   9.729   0.224  17.844 -0.3534 -0.1521 -0.1111
16789W        W59842   2.327  26.945  17.373  0.1393  0.0519 -0.0658
16790W        W59843   9.274  14.680  16.097  0.3449  0.2417  0.3072
16791W        W59844  25.577   6.940  28.035  0.1318 -0.1059  0.0327
16792W        W59845   5.987  12.926   7.881  0.4443  0.0393  0.0696
16793W        W59846   1.909  16.876  15.513  0.2289  0.0639 -0.0108
16794W        W59847  26.648  18.741  20.770  0.0457 -0.0956  0.1451
16795W        W59848  28.034  15.891  26.473 -0.1235  0.1970 -0.0301
16796W        W59849   6.701   1.703  24.609 -0.0317  0.1740  0.0872
16797W        W59850   7.003  31.598  27.469 -0.1481  0.0304  0.0509
16798W        W59851   1.532   2.479  16.717  0.3390  0.1007 -0.0316
16799W        W59852   0.173  29.226  18.033 -0.1293  0.0477 -0.0586
16800W        W59853   1.492  23.572   1.373 -0.0998  0.3107  0.1320
16801W        W59854  22.452  13.571   3.005 -0.1441  0.2556 -0.3200
16802W        W59855   5.528   7.826  23.393 -0.2589  0.3486  0.2608
16803W        W59856  23.618  24.235  16.108 -0.1216  0.1839 -0.0642
16804W        W59857   8.511  26.770  26.367 -0.2803  0.0973  0.2671
16805W        W59858   8.497   3.494  22.468  0.0102  0.1703  0.5027
16806W        W59859  34.371  11.730   0.057 -0.3904 -0.1768  0.2680
16807W        W59860  25.999  17.359  15.384  0.0051 -0.3713 -0.1111
16808W        W59861  21.319  13.296  26.092  0.1718  0.2880  0.0244
16809W        W59862  24.687  15.554  14.670  0.1566  0.2616 -0.2042
16810W        W59863  29.745  24.826  17.665 -0.0079  0.1601 -0.1157
16811W        W59864   2.824  12.654  14.343  0.1749  0.0033  0.1067
16812W        W59865   4.899   6.402   0.373  0.3790  0.1733  0.2381
16813W        W59866   3.458  26.601  13.947  0.0326  0.0154 -0.1552
16814W        W59867  34.425   7.860  18.023  0.1086  0.0201  0.0125
16815W        W59868  32.293  22.888  22.563  0.1688  0.1760 -0.1797
16816W        W59869  31.174  20.500  20.433  0.1206  0.1007  0.2295
16817W        W59870   3.297  11.122  28.737 -0.1086 -0.0639 -0.3642
16818W        W59871  25.597  21.486  17.484 -0.0293 -0.0570 -0.2652
16819W        W59872  32.092  10.938  28.467  0.0179  0.0256  0.1575
16820W        W59873  14.161   2.217   1.776 -0.1297 -0.2613 -0.1549
16821W        W59874   8.969  24.600  18.137 -0.1877  0.1907  0.2894
16822W        W59875  25.471   9.936  19.800 -0.0851 -0.0198 -0.0708
16823W        W59876   6.741  33.859   3.140 -0.0762 -0.0478  0.1721
16824W        W59877  18.592  22.888   5.700  0.2772 -0.0211  0.2180
16825W        W59878   9.127  14.811  23.665  0.0412 -0.1364  0.0531
16826W        W59879  13.017  12.057  21.675 -0.1561 -0.0806  0.0293
16827W        W59880   2.954   6.466   4.710 -0.0352 -0.1085 -0.0612
16828W        W59881   1.413   6.387  17.672  0.1233  0.1910  0.1270
16829W        W59882  28.583   6.476  21.559  0.3755  0.2270  0.2621
16830W        W59883   3.192  13.515  16.850 -0.0037  0.0650 -0.1322
16831W        W59884  29.374  32.332  20.128  0.2140 -0.2700  0.2843
16832W        W59885   4.895  27.154   5.683 -0.0744 -0.0264  0.2270
16833W        W59886   8.586  13.768   1.089 -0.2354  0.1056 -0.0758
16834W        W59887   6.430  33.210   2.087  0.1061  0.1271  0.0614
16835W        W59888  33.260   1.102   3.055 -0.1541 -0.5689 -0.0431
16836W        W59889   1.455  25.575  25.801 -0.3071  0.1317 -0.0525
16837W        W59890  33.880  24.275  22.043  0.0946  0.1845  0.2611
16838W        W59891  34.410  25.043  19.263  0.1544 -0.0583 -0.1622
16839W        W59892   8.285   2.175   7.873 -0.0043 -0.2162 -0.0682
16840W        W59893  31.404   6.574  16.620 -0.0262 -0.1186 -0.0454
16841W        W59894  24.771  20.201   6.067 -0.1513 -0.3057 -0.0219
16842W        W59895   6.811   0.401  15.049 -0.0406 -0.2419 -0.1017
16843W        W59896  34.570   1.168   9.277 -0.1220  0.0516  0.0465
16844W        W59897   2.398  20.151   4.966 -0.0079  0.3423 -0.0663
16845W        W59898  26.930  18.825  18.335 -0.2123  0.1166  0.1397
16846W        W59899  30.838   6.151  25.663 -0.4461  0.0051 -0.4065
16847W        W59900   4.777   4.202  24.084  0.4422 -0.0610 -0.2123
16848W        W59901   7.159  21.767  18.720  0.1257  0.0908  0.1417
16849W        W59902   1.851  27.292  18.302  0.0041 -0.0218  0.1408
16850W        W59903  33.095  33.332  18.224 -0.1297 -0.0606 -0.0218
16851W        W59904  30.130  34.118   5.322 -0.1388  0.2468 -0.1642
16852W        W59905  15.727   2.614  27.883  0.0471 -0.1673 -0.2398
16853W        W59906  30.994  11.956  24.550  0.2549 -0.1125 -0.0620
16854W        W59907  22.649  19.530   9.926 -0.4313 -0.2702 -0.2303
16855W        W59908   9.226  33.658  15.405 -0.1118 -0.3136 -0.0364
16856W        W59909   0.161   5.180   3.423  0.1876  0.0806  0.2016
16857W        W59910  29.709  34.239  27.525  0.0254  0.2290 -0.4248
16858W        W59911   7.821  16.681   7.870  0.1781 -0.3133 -0.2250
16859W        W59912  26.081  24.361  15.776  0.1254  0.0210 -0.2606
16860W        W59913   5.188  19.804  25.515  0.0622 -0.2921  0.1555
16861W        W59914  13.236  14.257  25.800 -0.2772 -0.2079  0.1966
16862W        W59915  31.095   8.782  20.247 -0.0338 -0.0231 -0.0131
16863W        W59916  25.868  12.379  22.697  0.2838 -0.0400  0.2172
16864W        W59917  32.759  25.165   5.965  0.0055 -0.2669 -0.2702
16865W        W59918  18.411  24.122   9.345 -0.1418  0.1642 -0.3084
16866W        W59919   8.370   1.709  18.337 -0.0175 -0.0498  0.0514
16867W        W59920   8.440  32.389   8.809  0.2484 -0.1181  0.0517
16868W        W59921  16.424  18.879  15.219 -0.1510  0.3453 -0.4076
16869W        W59922  25.131  26.308  27.410 -0.2363  0.1629  0.1628
16870W        W59923  27.569  15.858   1.244 -0.3430  0.3877  0.0051
16871W        W59924   0.720  21.798  20.539  0.0031 -0.0407 -0.4440
16872W        W59925  31.584  19.764  24.965  0.2609 -0.1558 -0.0771
16873W        W59926  26.105  22.881  14.724 -0.1854 -0.0612  0.1728
16874W        W59927   5.486  29.809   7.353  0.0545 -0.0305 -0.1259
16875W        W59928   6.425   2.684   3.166 -0.0119  0.1721  0.2459
16876W        W59929  18.756  23.279  21.641  0.2860 -0.4116  0.1787
16877W        W59930  16.837  32.371  15.142 -0.0551 -0.1068  0.2940
16878W        W59931   4.664  20.802  24.412  0.0046 -0.1585 -0.1480
16879W        W59932  32.383  10.124  22.838  0.0518 -0.0815  0.0932
16880W        W59933  31.732  17.223  14.213 -0.0701 -0.1399 -0.0742
16881W        W59934  21.411  26.317  27.617  0.3366 -0.1986  0.1754
16882W        W59935   1.641  12.866  26.738  0.0747 -0.0215  0.0325
16883W        W59936  11.986  32.246  20.375  0.0696  0.2754 -0.3029
16884W        W59937  13.707  25.779  25.813 -0.3261  0.0663  0.0520
16885W        W59938   5.583  18.990  22.791 -0.2596 -0.1087  0.3114
16886W        W59939  29.031  14.302   4.945  0.1140 -0.1277 -0.0100
16887W        W59940   5.214   4.384  26.605 -0.0415  0.0748 -0.1673
16888W        W59941  29.935  30.223  20.940  0.0516 -0.1653 -0.0555
16889W        W59942  22.293   2.180   8.795  0.2648  0.1756 -0.2148
16890W        W59943   2.513  29.342  25.807  0.1030  0.0469  0.0984
16891W        W59944  31.572  31.601  18.828  0.0667  0.0856 -0.1679
16892W        W59945   2.995  23.584  19.542  0.2581  0.0582  0.1789
16893W        W59946  23.502   1.980  20.703  0.0346  0.0517  0.0800
16894W        W59947  28.843  34.268  23.207 -0.1034 -0.0662  0.1341
16895W        W59948   0.466  21.052  27.486 -0.4155  0.1309  0.1308
16896W        W59949  28.682  18.032  13.831 -0.0156  0.3548 -0.0741
16897W        W59950   5.895  31.312   4.015  0.0239  0.0812  0.2554
16898W        W59951  11.021   4.065   5.774  0.2070 -0.1829 -0.0127
16899W        W59952  28.493  13.828  17.902  0.0817 -0.5882 -0.2442
16900W        W59953   6.268   8.595  15.187  0.2896 -0.1494  0.0998
16901W        W59954  24.885   5.408   9.137  0.1062 -0.0124  0.0304
16902W        W59955   1.971   6.987  21.878 -0.1561  0.0867 -0.0518
16903W        W59956   6.224  31.846   8.125  0.1499 -0.2596  0.0099
16904W        W59957  34.501  26.157  22.719 -0.3215 -0.0036  0.1940
16905W        W59958  28.903   2.823  27.177 -0.0375 -0.1495 -0.1833
16906W        W59959  16.512   4.052  20.734 -0.2145  0.1600 -0.0492
16907W        W59960  26.440   2.134   7.588 -0.0370 -0.0253  0.0290
16908W        W59961  29.197  15.600  10.653  0.0373 -0.0048 -0.3417
16909W        W59962   6.333  16.420   1.869  0.3721 -0.1651  0.0133
16910W        W59963  27.546   4.167   3.500 -0.0214 -0.0523 -0.0054
16911W        W59964  27.322  33.113   6.083  0.1807  0.0813 -0.0744
16912W        W59965  19.122  27.212   5.335 -0.2598  0.0292 -0.1664
16913W        W59966   4.466  28.105  23.251 -0.1284 -0.2702 -0.1081
16914W        W59967  15.837   2.658  19.721 -0.3672 -0.0983  0.0083
16915W        W59968   0.956  30.407  27.751 -0.1349  0.1845  0.1390
16916W        W59969  13.773  15.699  26.305  0.0752  0.0364 -0.0507
16917W        W59970   9.901  32.211  19.973  0.1598  0.0027  0.1853
16918W        W59971  33.919  25.864   6.834  0.2537 -0.0231  0.0097
16919W        W59972  33.693  28.246  23.287  0.1103 -0.1332  0.1025
16920W        W59973  10.671  28.720  20.643 -0.2555 -0.0025  0.1309
16921W        W59974  16.970  20.054   9.380  0.2600  0.1219  0.2612
16922W        W59975  28.126  34.514   8.834 -0.0115  0.0547 -0.0401
16923W        W59976   3.420  14.999   3.247 -0.0968  0.1304  0.3073
16924W        W59977  34.490  30.602   1.644  0.0834 -0.0814  0.1473
16925W        W59978  17.977  22.830  21.964 -0.2833  0.2241 -0.2073
16926W        W59979  30.689   1.397  25.995 -0.3057  0.1564 -0.0606
16927W        W59980   9.158  29.160   4.250 -0.0397  0.2605 -0.0682
16928W        W59981   8.224   3.218   4.838  0.0200  0.2525 -0.0699
16929W        W59982  16.943  26.944  28.455  0.0422  0.2225  0.0827
16930W        W59983  16.483  17.306  15.145  0.0104  0.3499  0.1577
16931W        W59984  10.593  26.355   7.454  0.0100  0.1873  0.0527
16932W        W59985  10.954  13.682  26.655  0.0307  0.1278  0.0033
16933W        W59986  25.484  25.443   0.267  0.2025 -0.2428  0.0469
16934W        W59987   5.277  33.305  19.512  0.2451 -0.1153 -0.2363
16935W        W59988  23.894  30.507  16.664  0.1458 -0.3077  0.0779
16936W        W59989   6.090  14.132   3.077  0.0511 -0.0950  0.0714
16937W        W59990  31.355  21.932   2.810  0.0719  0.1834 -0.1898
16938W        W59991  30.776  29.077  18.224  0.2342 -0.3250  0.0489
16939W        W59992   8.749   8.429  26.196  0.2709 -0.1583 -0.1603
16940W        W59993   2.075   0.834   9.650 -0.0575  0.0434  0.3187
16941W        W59994   6.664  11.854  25.109 -0.0907 -0.0492 -0.0468
16942W        W59995   1.052  24.639  27.515 -0.1355 -0.3414 -0.3515
16943W        W59996  10.135   5.097  15.353 -0.1353 -0.3172 -0.0464
16944W        W59997   7.614   0.520  28.429  0.1979  0.3539 -0.1728
16945W        W59998  30.902   0.092  28.607 -0.3497  0.0400 -0.2140
16946W        W59999  32.285  29.877   8.658  0.0562 -0.1743 -0.0717
16947W        W60000  13.424  13.155   1.350  0.0274 -0.2974  0.1704
16948W        W60001  11.569  32.638   6.134 -0.1793  0.0766 -0.2966
16949W        W60002  29.579  18.567  26.642  0.3213 -0.0286  0.2656
16950W        W60003   7.280  10.299  22.845 -0.0530 -0.0244  0.2471
16951W        W60004  23.303  24.625   6.210 -0.3865 -0.2392 -0.0920
16952W        W60005  11.765  13.487   2.501 -0.2424 -0.4390 -0.0090
16953W        W60006  29.897  23.970   4.001  0.2615 -0.1537 -0.0094
16954W        W60007   1.134  34.339  20.537  0.1270 -0.2512  0.1546
16955W        W60008  12.223  18.778  28.082  0.3247 -0.0186 -0.0872
16956W        W60009   0.731  31.030  28.781 -0.3254  0.0226 -0.0389
16957W        W60010   5.122  14.680  23.512 -0.0881 -0.1866  0.1824
16958W        W60011  20.746  25.279  18.696  0.2499 -0.0403 -0.3835
16959W        W60012  10.713   3.177   0.045  0.1998 -0.0751  0.1622
16960W        W60013  34.099  13.469  24.794  0.2708  0.0876  0.1127
16961W        W60014  34.319  23.834  20.729  0.1937  0.2389  0.0455
16962W        W60015  27.835  10.446  25.425  0.0674  0.1033  0.3495
16963W        W60016   5.207  26.498  19.061  0.0330  0.1914  0.1132
16964W        W60017  26.366  11.008  14.814  0.2191 -0.0979 -0.1379
16965W        W60018   3.578  27.667  18.280  0.0352 -0.1665 -0.1288
16966W        W60019   5.269  28.097  19.921  0.0254 -0.0077 -0.3599
16967W        W60020  26.795  10.308   9.509  0.2724  0.0513  0.0291
16968W        W60021  24.305  25.691   5.980  0.1989  0.2145  0.3068
16969W        W60022   0.634  19.214  16.476 -0.2226  0.0280 -0.2183
16970W        W60023   3.471  19.999  24.840 -0.0158 -0.4075  0.0684
16971W        W60024  26.280  11.881   3.099 -0.0573  0.3653  0.0056
16972W        W60025   1.877  25.565  20.282  0.0191 -0.0836  0.3374
16973W        W60026  22.461   3.522  20.069 -0.0366  0.0843  0.0194
16974W        W60027  32.276  12.267  22.835  0.0757 -0.3812 -0.0678
16975W        W60028   3.915  16.565  22.721 -0.2309 -0.0002  0.2313
16976W        W60029  26.959  23.928   5.244  0.4147  0.1403  0.1755
16977W        W60030  17.255  19.576  23.086 -0.1073  0.1534 -0.1278
16978W        W60031  33.966  26.997   2.392 -0.0944  0.0077  0.0820
16979W        W60032  33.256  16.963  24.278  0.1542  0.2909  0.0819
16980W        W60033   3.192  12.492  15.280  0.0839 -0.0690 -0.3200
16981W        W60034   2.694   2.599   3.328 -0.0305  0.0344  0.1502
16982W        W60035   9.537  11.129  28.498 -0.3476  0.0641  0.1360
16983W        W60036   4.423  28.830   2.737  0.3889  0.2488 -0.0726
16984W        W60037   6.250   9.217   7.229 -0.0412 -0.1933  0.1466
16985W        W60038   6.735  30.243   6.817  0.2156 -0.1761 -0.0911
16986W        W60039   1.346  30.881  27.278 -0.0706  0.1064 -0.2653
16987W        W60040  34.593  32.181  21.030 -0.2997  0.0460  0.0282
16988W        W60041  29.425  31.525  23.726 -0.2119 -0.4925 -0.2381
16989W        W60042  13.960  14.550  15.078  0.6035 -0.2337 -0.2406
16990W        W60043  31.882   5.511   4.981 -0.0204  0.1195 -0.0068
16991W        W60044   3.144  14.737  18.577  0.1817 -0.3755 -0.2094
16992W        W60045  13.904   1.500   9.356  0.3033  0.1260 -0.0509
16993W        W60046   2.229  24.638  25.874  0.3520 -0.0025  0.3800
16994W        W60047  15.843  22.595  14.725 -0.0377 -0.0189  0.1675
16995W        W60048  31.884  10.428  24.309  0.0328 -0.4142 -0.2069
16996W        W60049   9.131  26.185  18.213  0.1950 -0.0996 -0.1597
16997W        W60050  25.624  26.578  23.995 -0.0173 -0.1835  0.2708
16998W        W60051  33.316   1.362  19.252  0.1129  0.3820  0.1959
16999W        W60052  27.951  29.128  29.148 -0.0561  0.3901 -0.1028
17000W        W60053   4.091   3.038  20.021  0.2350  0.2153 -0.3358
17001W        W60054  10.353  25.639   0.031 -0.1323  0.1711 -0.1587
17002W        W60055   1.171  24.874  18.089  0.3622  0.0102 -0.2304
17003W        W60056   7.957  22.470   1.863  0.2460 -0.1757 -0.2243
17004W        W60057  33.780   3.980  14.572  0.0470 -0.0530 -0.0217
17005W        W60058   4.272  20.004  27.238  0.1497 -0.1802  0.0723
17006W        W60059  30.544  32.344  26.846  0.1996 -0.1741  0.2103
17007W        W60060   6.665   7.624  26.003  0.0428 -0.1009  0.0757
17008W        W60061  14.001   4.099  26.375  0.1492 -0.1056 -0.0536
17009W        W60062  21.891   8.651  14.242  0.0028 -0.1415 -0.3501
17010W        W60063  29.220  21.316  16.772  0.2334  0.0416  0.1069
17011W        W60064   2.941  28.863   6.462 -0.0614 -0.1231  0.0032
17012W        W60065  34.100   4.264  25.299 -0.0638  0.1610  0.3800
17013W        W60066  16.359   4.413   4.980  0.2104 -0.1506 -0.1912
17014W        W60067  31.293  24.990  27.243  0.0324 -0.0446  0.0301
17015W        W60068  33.932  33.598  16.738 -0.1041  0.4318 -0.1198
17016W        W60069  27.075  16.696  29.078  0.0528  0.0287 -0.1140
17017W        W60070   1.176   1.108  16.904 -0.0410  0.1064  0.2197
17018W        W60071  24.246  26.873   0.598 -0.0374  0.2228  0.1377
17019W        W60072  32.202  21.861   4.291 -0.0565  0.0565 -0.3929
17020W        W60073  34.001   6.322   5.456  0.3195  0.0985 -0.1397
17021W        W60074  23.170  28.757  22.290 -0.1726 -0.0874 -0.0675
17022W        W60075  34.320  15.478  16.671  0.1522  0.1835  0.0552
17023W        W60076   2.151  29.509  24.958 -0.3203  0.2074 -0.2267
17024W        W60077  16.852  15.414   1.782 -0.3257 -0.2037 -0.0292
17025W        W60078   4.056  27.827  20.809  0.2893 -0.1816  0.3432
17026W        W60079  33.425  18.448   3.984  0.3783 -0.0388  0.3033
17027W        W60080  29.637  28.060  27.810 -0.3905  0.2151 -0.1888
17028W        W60081   8.710  19.331  14.323  0.0359 -0.0233 -0.1113
17029W        W60082  12.989  16.518   3.274 -0.0230 -0.0421  0.1739
17030W        W60083   0.760  28.622  27.079  0.1855 -0.1899  0.1551
17031W        W60084  32.095  24.542   1.930 -0.1886  0.0770 -0.2311
17032W        W60085  14.148  27.552   2.409 -0.1053  0.0470  0.6210
17033W        W60086   0.437  29.862   6.454  0.1195 -0.3605  0.2724
17034W        W60087   0.608  13.390  19.098  0.0245  0.1842 -0.1328
17035W        W60088   7.972  13.211   2.916  0.1317  0.4138  0.2116
17036W        W60089   8.044  25.630   3.472 -0.0567  0.1087 -0.0788
17037W        W60090  34.526   6.624  17.248 -0.3079  0.0485  0.1486
17038W        W60091  23.535  24.280  21.934 -0.1751  0.4067  0.0205
17039W        W60092   9.643  33.883   7.199 -0.0102  0.0702  0.1011
17040W        W60093   2.876   4.077  14.960 -0.1211 -0.2147 -0.1062
17041W        W60094   5.750  11.793   3.847  0.0850  0.0756  0.1098
17042W        W60095   9.687  20.907   3.989  0.2756  0.0257  0.1219
17043W        W60096  28.320  30.037  23.187 -0.1595 -0.2185  0.0415
17044W        W60097  26.352  19.775  14.714 -0.1840 -0.0685 -0.0522
17045W        W60098   2.229  33.797  27.454 -0.3566  0.0704 -0.0475
17046W        W60099   2.313  26.875  14.459 -0.0760  0.0608  0.1018
17047W        W60100   3.541  13.584  15.405 -0.0429 -0.0438 -0.0259
17048W        W60101  32.373  27.095  12.912  0.2234 -0.2244  0.0575
17049W        W60102  30.521  12.225   0.214 -0.3565  0.1974  0.3474
17050W        W60103   8.941   3.594  29.123 -0.0551 -0.0135  0.0530
17051W        W60104  10.467  24.708  22.773 -0.0992  0.0003  0.0332
17052W        W60105  12.924  30.409  13.682 -0.2225  0.1113  0.0104
17053W        W60106  21.008   6.796   0.230 -0.2194  0.2728  0.0597
17054W        W60107  12.293  30.419  26.119 -0.2244  0.2803  0.0973
17055W        W60108  23.770  11.694  25.500  0.1038  0.0463  0.1269
17056W        W60109   5.522  29.955  23.688 -0.0175  0.3300 -0.1198
17057W        W60110  17.378  13.156   9.908  0.1254 -0.3533  0.1932
17058W        W60111   6.302   6.375  20.724  0.0298  0.1860  0.0002
17059W        W60112  14.192  32.164  18.482 -0.1608 -0.0855  0.0936
17060W        W60113  13.264  27.066  18.380  0.0071 -0.1455  0.0535
17061W        W60114  11.966  30.268   7.591 -0.1414  0.4525 -0.1878
17062W        W60115  31.021  29.291  17.771  0.0498 -0.1244  0.2847
17063W        W60116   1.025  32.714  28.171  0.0482 -0.1479  0.1802
17064W        W60117   4.378  32.851   3.449 -0.0793  0.4247 -0.2241
17065W        W60118  30.845   4.444  22.123  0.2484  0.2115 -0.2580
17066W        W60119  23.736  27.085  14.804  0.2219  0.1378  0.2938
17067W        W60120  18.071  17.873  27.470 -0.1108 -0.2707 -0.1344
17068W        W60121   9.995  29.853  19.767 -0.3032 -0.3847 -0.0499
17069W        W60122  20.986  14.116  15.813 -0.0567  0.1791 -0.1579
17070W        W60123  33.210  27.348  20.098  0.0918 -0.1897 -0.0092
17071W        W60124  28.778   1.306  21.346 -0.4859 -0.1851  0.1777
17072W        W60125  19.207  29.198  18.574 -0.0873 -0.0626 -0.0394
17073W        W60126  32.816   9.596   8.309  0.1393  0.0987  0.1133
17074W        W60127  10.847   5.639  14.977  0.3475 -0.0330 -0.2159
17075W        W60128  34.439  19.675   0.323 -0.0070 -0.1189  0.1485
17076W        W60129   0.929  24.815   5.784 -0.1048 -0.0349  0.2029
17077W        W60130   2.037  31.306  29.191  0.2085  0.2938 -0.0789
17078W        W60131  16.319   9.927  17.156 -0.0143 -0.0975  0.0277
17079W        W60132  27.151   2.321  26.204  0.0416 -0.2055 -0.2063
17080W        W60133  30.202  32.944  26.741  0.1699 -0.1010 -0.1750
17081W        W60134  25.814  17.336  24.275 -0.1521  0.1155 -0.0848
17082W        W60135   0.724  26.140  15.315  0.0203 -0.0489 -0.1899
17083W        W60136  28.021  31.701   0.282  0.0941 -0.1572  0.1035
17084W        W60137  10.781  19.974  27.292  0.1657 -0.3759 -0.1102
17085W        W60138  20.579  20.730  23.408 -0.0776 -0.2802  0.0122
17086W        W60139  10.908   1.660  29.173 -0.0462  0.1213  0.2623
17087W        W60140  20.511  30.429  19.434  0.1226  0.0544  0.0682
17088W        W60141  27.282  12.646  23.404  0.2121 -0.0221 -0.1930
17089W        W60142  34.178   6.089  25.097  0.1530  0.2036 -0.2966
17090W        W60143   0.569  25.068   6.370 -0.1857 -0.0192  0.1622
17091W        W60144  32.893  14.147  13.624 -0.3079  0.0955  0.4481
17092W        W60145   3.644  16.158  18.926 -0.0245  0.3126  0.2112
17093W        W60146  24.650  25.735   4.091  0.0089  0.3223  0.0979
17094W        W60147  29.936   6.347  25.521 -0.0050  0.2170 -0.2288
17095W        W60148   2.489  27.776  14.610 -0.2049  0.0333 -0.2343
17096W        W60149  31.458  30.306  14.907  0.0267  0.3885  0.1172
17097W        W60150  23.816   0.003  24.277 -0.0035 -0.2571  0.2814
17098W        W60151  27.035  24.539  28.941 -0.0378  0.2712 -0.2183
17099W        W60152   5.667  32.310  28.749 -0.0528  0.1452  0.0510
17100W        W60153  30.649   7.616  28.385 -0.0304  0.0226  0.1101
17101W        W60154   6.440   7.474  18.489  0.1424 -0.0751 -0.3697
17102W        W60155  26.889   3.989   6.831 -0.0210 -0.3090 -0.0365
17103W        W60156  16.171  10.673  22.633 -0.2444  0.0793  0.1541
17104W        W60157   4.173   7.271  14.401 -0.0495  0.0120  0.1347
17105W        W60158   5.989   6.668   2.205 -0.2761 -0.0653  0.2254
17106W        W60159  27.468  15.728  22.638 -0.2087 -0.2015 -0.2051
17107W        W60160  31.194  24.336  22.279 -0.1352 -0.2752 -0.3040
17108W        W60161   8.899  27.720  26.437 -0.2634  0.4274 -0.3847
17109W        W60162   3.567  23.333  13.696  0.0703  0.2322  0.0360
17110W        W60163  34.422   5.380   9.398 -0.1075 -0.0018  0.3952
17111W        W60164  17.537   8.590   2.456  0.1762  0.0597 -0.0897
17112W        W60165  20.355  29.140  28.519 -0.0371  0.0092 -0.2213
17113W        W60166  28.051  25.504  26.202  0.1349 -0.3604  0.0073
17114W        W60167  23.196  15.020  24.661 -0.2855 -0.2291 -0.0134
17115W        W60168   3.120  25.086   1.356  0.0135 -0.1717  0.2105
17116W        W60169  23.244  20.880  24.820  0.2141  0.1100 -0.1390
17117W        W60170   9.525   6.033   0.533 -0.1922 -0.1170  0.1124
17118W        W60171  17.810  30.791  28.003 -0.2850  0.1303  0.1935
17119W        W60172  24.177  29.910  26.580 -0.1718  0.2124 -0.4005
17120W        W60173  13.423   5.666  28.341 -0.1088 -0.1334  0.2225
17121W        W60174  26.580  30.621  17.770 -0.3595  0.0576  0.2454
17122W        W60175   1.009  21.037   1.059  0.0580 -0.1905 -0.4437
17123W        W60176  10.661  27.946   5.251 -0.0066 -0.0774  0.1617
17124W        W60177   5.855  32.393  26.465 -0.0916 -0.1773 -0.1618
17125W        W60178  23.116  26.461  23.824 -0.1706 -0.0831  0.1541
17126W        W60179   8.988  31.370   1.825  0.1291 -0.0847  0.0216
17127W        W60180   6.451  16.963  20.198 -0.2611  0.0408  0.0405
17128W        W60181   0.843  21.865  27.792 -0.1696 -0.0487  0.0752
17129W        W60182  27.154  31.439  27.992 -0.1067 -0.0194  0.1527
17130W        W60183  19.010  16.596   0.102 -0.1526  0.3978 -0.0204
17131W        W60184  29.704  11.477  17.663 -0.0827 -0.1420 -0.1206
17132W        W60185  12.663  24.623  25.492  0.0088  0.2448  0.0792
17133W        W60186   8.659   4.551   0.691  0.1553  0.0779 -0.1996
17134W        W60187  30.573  26.974   0.430  0.1687  0.1146  0.2540
17135W        W60188  34.470  31.692  26.151 -0.3272 -0.0720 -0.0083
17136W        W60189   3.775  17.122   2.859  0.1015  0.0453 -0.1805
17137W        W60190  24.968  28.046  18.688 -0.0928 -0.0438 -0.1489
17138W        W60191  16.041  32.195  15.693 -0.2874 -0.0753 -0.2101
17139W        W60192   6.254   8.053  24.572  0.0782 -0.1975 -0.0809
17140W        W60193  19.460  34.579  27.920  0.0796 -0.2024 -0.1637
17141W        W60194  20.057  21.840   4.063 -0.2402  0.3159  0.0541
17142W        W60195  10.921  24.298  17.094 -0.0879  0.2946 -0.0529
17143W        W60196  30.745  30.979   9.435  0.0537 -0.0917 -0.2314
17144W        W60197  16.177  23.394  26.203  0.0595  0.0380 -0.0233
17145W        W60198  26.581  24.499  21.904  0.2491  0.0239 -0.1147
17146W        W60199   3.615  34.055  23.145  0.0877 -0.3363  0.1166
17147W        W60200  22.200   8.707  22.819  0.1647  0.1788  0.2400
17148W        W60201  28.500  16.239  14.544 -0.0471  0.0609 -0.0394
17149W        W60202  22.939  25.298   5.260 -0.1108 -0.2139 -0.0442
17150W        W60203  22.031  25.242  22.817  0.0128 -0.0560 -0.1364
17151W        W60204   1.222   7.922   3.777  0.2603 -0.0799 -0.0678
17152W        W60205  28.567  27.951   3.444  0.2532  0.1388  0.0267
17153W        W60206   9.762   4.708  15.124 -0.2590 -0.1617 -0.0312
17154W        W60207  15.713   0.425   6.904 -0.0516  0.0413  0.2922
17155W        W60208  28.898  27.117  27.027 -0.0253 -0.0644 -0.0484
17156W        W60209   3.042  24.843  27.518  0.1948 -0.2399  0.0067
17157W        W60210  29.386  29.529  26.139  0.0663 -0.1805 -0.1682
17158W        W60211  22.656  33.595  26.413 -0.0116 -0.0783  0.0492
17159W        W60212  25.746   7.887  21.190 -0.0810 -0.1025 -0.0819
17160W        W60213  17.791   3.284  18.399 -0.2719 -0.0540  0.1535
17161W        W60214  10.284  30.387  24.402 -0.1538  0.2432 -0.0952
17162W        W60215  27.005  10.864  25.985 -0.0620 -0.0765 -0.3086
17163W        W60216   5.940   3.709  26.018 -0.0623  0.0699 -0.0880
17164W        W60217   9.398  20.739  25.236  0.2798 -0.2334 -0.1900
17165W        W60218  22.735   0.501  21.105 -0.0333  0.0445  0.2765
17166W        W60219   5.786   5.186   1.395 -0.0080  0.4124  0.2745
17167W        W60220   8.365  10.122   3.212 -0.0401 -0.0626  0.1037
17168W        W60221  17.762   8.960   8.261 -0.0873 -0.0252 -0.0854
17169W        W60222   5.885  34.553  21.598  0.0148  0.0062 -0.0506
17170W        W60223   0.496  31.473  22.927  0.0074  0.0193  0.0185
17171W        W60224   9.119   4.220   3.423 -0.2820 -0.1618 -0.0584
17172W        W60225  30.740   1.313  27.199 -0.0750 -0.1390  0.0873
17173W        W60226  11.880  23.552   4.725  0.0158  0.3130 -0.1090
17174W        W60227   3.414  22.944   5.159  0.0671 -0.1040  0.1472
17175W        W60228   3.240  18.766   9.198 -0.0980  0.2174 -0.1527
17176W        W60229  12.042   8.092  28.055 -0.1901  0.1678  0.0658
17177W        W60230  34.500  33.421   4.323 -0.1802  0.5879 -0.1089
17178W        W60231  28.473  26.656  23.278 -0.2295 -0.2626 -0.2343
17179W        W60232  16.905  14.670   5.271  0.1581 -0.0280  0.3990
17180W        W60233  32.858  17.368  28.305  0.0743  0.2122  0.0876
17181W        W60234  23.192  29.460  24.364 -0.1044 -0.4102  0.2807
17182W        W60235  25.970   1.910   1.486  0.3064 -0.0346 -0.1844
17183W        W60236  31.859   4.472  20.205  0.1511  0.1273  0.0892
17184W        W60237  12.878  29.130  25.957  0.1864 -0.0604  0.0318
17185W        W60238  33.100   1.972  14.701  0.1025 -0.0258 -0.0532
17186W        W60239  32.970  31.037  15.651  0.0072  0.1925 -0.1580
17187W        W60240   7.554  19.355   2.773  0.0803  0.0490 -0.2011
17188W        W60241  27.569  21.574  14.975  0.1543  0.0039  0.0392
17189W        W60242  31.717  30.577   3.831 -0.0236  0.0403 -0.4323
17190W        W60243  24.661  10.118  24.339  0.1939 -0.0652 -0.2339
17191W        W60244   6.973  34.433   5.592 -0.0051  0.0151  0.0027
17192W        W60245  12.438   4.694  14.677 -0.0684 -0.0666 -0.2142
17193W        W60246  30.822  17.013  26.191 -0.2612 -0.0480 -0.3454
17194W        W60247   0.525  29.910   0.590 -0.2422  0.1235 -0.0464
17195W        W60248   4.043  22.125  28.081 -0.1607  0.4570  0.5906
17196W        W60249   3.883  29.338   1.508  0.1737  0.0579 -0.1300
17197W        W60250  12.655   0.096  19.030  0.0954 -0.0479  0.1097
17198W        W60251   1.057   6.036  16.425  0.2168 -0.0945 -0.3289
17199W        W60252  33.598   9.588   0.171 -0.0427 -0.0743 -0.0101
17200W        W60253  17.537  29.743   8.640  0.0050 -0.0554 -0.4216
17201W        W60254  14.662  34.551   1.818  0.1694  0.0825  0.0001
17202W        W60255   6.492  12.642   5.269  0.0910 -0.1805 -0.4379
17203W        W60256   2.777   0.991   4.845  0.0106 -0.0730 -0.0539
17204W        W60257  32.087  12.747  28.613 -0.0604 -0.5510  0.3029
17205W        W60258  31.070  23.416  20.356 -0.1597 -0.2493  0.2677
17206W        W60259  31.611  25.087   4.404 -0.1628  0.0799  0.0433
17207W        W60260  21.493  32.895   5.672 -0.0159 -0.2669  0.0156
17208W        W60261  32.087  32.921  27.547 -0.1785 -0.1434 -0.2926
17209W        W60262  31.644  15.298   1.602  0.4468 -0.2432  0.0697
17210W        W60263  34.590  34.229  24.944  0.1452  0.2122 -0.2846
17211W        W60264  14.254  13.821  23.783  0.3459 -0.2738 -0.1248
17212W        W60265  30.922  17.764  18.252 -0.1199  0.2269  0.1568
17213W        W60266   3.421  33.688  17.716 -0.0981 -0.2015 -0.1454
17214W        W60267  23.599   7.098  27.844  0.0269  0.3819  0.1236
17215W        W60268  19.398   4.138  14.523 -0.2304  0.1000 -0.1216
17216W        W60269  17.283   2.870  17.601 -0.0329 -0.1474 -0.2773
17217W        W60270  10.752  25.036  26.464  0.1192  0.0771  0.0922
17218W        W60271   9.864  15.640   0.225 -0.1884 -0.0548 -0.0516
17219W        W60272   7.362  33.306  27.959 -0.0753  0.1588 -0.0886
17220W        W60273   4.520  18.310  15.069 -0.4922 -0.0017  0.0340
17221W        W60274  32.092  24.086   2.297 -0.0854  0.0957 -0.1714
17222W        W60275  12.022   7.170  10.405 -0.2018  0.1520 -0.0016
17223W        W60276   0.924  34.093   8.067 -0.1052 -0.0353  0.1295
17224W        W60277  24.329  25.675  28.630  0.2058 -0.2116  0.2021
17225W        W60278  29.034  31.863  14.784 -0.1441 -0.0080 -0.0097
17226W        W60279  13.165   1.857  21.664 -0.2996  0.0407  0.0805
17227W        W60280  14.648  27.281  25.963  0.1369  0.1404  0.1057
17228W        W60281  29.809  24.309  17.550 -0.0826  0.2237  0.3411
17229W        W60282  33.150  24.664  24.735 -0.4118 -0.0046 -0.1691
17230W        W60283   0.741  34.124  19.229 -0.2877  0.0278  0.1120
17231W        W60284   9.439   6.140  15.089 -0.1894  0.0455  0.2991
17232W        W60285  18.331  30.063  20.033  0.1212  0.1697 -0.2184
17233W        W60286   2.680  19.761  23.452 -0.2230  0.0517 -0.0056
17234W        W60287  33.859  10.476   7.093  0.0012  0.1187  0.0929
17235W        W60288   6.867  32.169  21.462  0.6953 -0.1261  0.2369
17236W        W60289   9.390  32.961  18.962  0.3140  0.0498  0.0920
17237W        W60290   3.634  23.976   6.138 -0.2728  0.0256 -0.1004
17238W        W60291  33.470  29.074  20.175  0.2471  0.0169  0.1869
17239W        W60292  16.136   5.900  20.509  0.1961  0.3666 -0.2108
17240W        W60293   9.232  21.290  18.537 -0.1512  0.0442  0.4145
17241W        W60294   1.889   1.588  21.073  0.2346 -0.1137  0.0014
17242W        W60295   9.496   4.749  17.788 -0.1040  0.0818  0.0460
17243W        W60296  31.496  25.108  26.104  0.0422 -0.0127 -0.0420
17244W        W60297  33.825   1.311  24.428 -0.0583 -0.1709  0.0158
17245W        W60298  31.001  15.122   0.252 -0.0780 -0.0483  0.3191
17246W        W60299  30.782  23.727  17.243  0.0155 -0.1909 -0.1130
17247W        W60300  12.007   7.579   9.153 -0.0018 -0.0695 -0.1210
17248W        W60301  34.501   6.757   8.648 -0.2221 -0.0348 -0.0865
17249W        W60302  33.245  32.876  21.605 -0.1205 -0.0707  0.0083
17250W        W60303  24.803  32.557  25.800 -0.2727 -0.1462 -0.0102
17251W        W60304  15.173  31.468  14.231  0.1923 -0.3537 -0.0041
17252W        W60305  32.105  33.043   0.282 -0.3227  0.2460  0.0743
17253W        W60306  12.434  21.637   6.730 -0.1859 -0.0892 -0.0873
17254W        W60307   6.966  14.664  18.849  0.0380 -0.0405 -0.1363
17255W        W60308  33.904  23.505   8.341 -0.2356 -0.0616 -0.1452
17256W        W60309  27.641  26.281   3.505 -0.0319 -0.0267  0.4271
17257W        W60310  33.005  21.046  24.286  0.1423 -0.2688 -0.1240
17258W        W60311   9.491  23.788  14.508 -0.3938  0.0926  0.0277
17259W        W60312  29.026   1.636  24.935 -0.0187  0.1126 -0.3403
17260W        W60313  29.681  34.342   5.462  0.0337  0.0324 -0.1845
17261W        W60314  17.832  26.638   5.438 -0.1160  0.0253 -0.2229
17262W        W60315   5.765   1.667  17.530  0.0501 -0.0037  0.1178
17263W        W60316  10.714   2.973   9.187  0.2166  0.1931  0.0337
17264W        W60317   1.199  21.400  21.499 -0.0975  0.1473  0.0151
17265W        W60318  19.962   9.342  24.370  0.1236  0.0087  0.1706
17266W        W60319  26.250  20.985   7.654  0.3364 -0.0321  0.3093
17267W        W60320   0.002  13.954   0.288  0.3585 -0.1400 -0.3098
17268W        W60321  27.509  26.355  25.306  0.2933  0.0416  0.1049
17269W        W60322   6.704   7.407  26.950  0.0261 -0.1304  0.1969
17270W        W60323  23.238  24.146  16.580  0.1403  0.2688 -0.1387
17271W        W60324  23.835  26.338   5.569  0.1251  0.2633  0.2130
17272W        W60325  24.246  15.019  26.075  0.0398 -0.1298  0.0400
17273W        W60326  34.357  15.260   0.993 -0.1420  0.0756 -0.0740
17274W        W60327  32.965  29.609  28.621  0.2716  0.2751  0.2043
17275W        W60328  15.180  19.494  28.561 -0.1179  0.0169  0.1755
17276W        W60329   7.989  26.513  26.418  0.0048 -0.0330  0.0124
17277W        W60330  33.638  33.133   4.737 -0.1057 -0.0221 -0.1824
17278W        W60331  10.145  28.247  15.638 -0.0038 -0.0719 -0.0115
17279W        W60332   8.923  18.571   4.409  0.2989  0.1369 -0.0915
17280W        W60333  14.891  34.203   8.112 -0.0170 -0.1272  0.0890
17281W        W60334   0.847  33.023   7.816 -0.0210 -0.0442  0.1100
17282W        W60335  33.232  28.354  25.956 -0.2719 -0.0059  0.0502
17283W        W60336  23.173  29.477  20.603  0.0214  0.0676  0.0410
17284W        W60337   3.450  30.044  21.932 -0.0791 -0.0104 -0.0604
17285W        W60338  17.412   4.216   3.537  0.1769 -0.0463 -0.2466
17286W        W60339   9.561  26.085   1.424  0.4520  0.0722  0.0559
17287W        W60340  31.507  32.321   0.910 -0.1331 -0.1042  0.0329
17288W        W60341  16.092   8.607   7.639  0.1046  0.3438 -0.1650
17289W        W60342  23.722   3.202   3.954  0.0418 -0.1227 -0.1237
17290W        W60343  14.896   0.365   3.027  0.1674  0.0359  0.0634
17291W        W60344  17.079  19.956   8.333  0.2752  0.0886 -0.3260
17292W        W60345  29.767  15.888  25.214 -0.0712 -0.0191 -0.2143
17293W        W60346  26.663  33.820   2.798 -0.0774  0.0319  0.0317
17294W        W60347   2.079  31.832  18.539 -0.0695 -0.0491 -0.0601
17295W        W60348  14.656   3.843   3.780 -0.0999  0.3634 -0.2019
17296W        W60349  11.483  30.465   6.522  0.0011 -0.0233  0.1810
17297W        W60350  13.933  16.862  25.994 -0.0133  0.0101 -0.2968
17298W        W60351  12.605  15.345   1.858 -0.0546  0.2049 -0.3388
17299W        W60352  32.415  16.238  25.016 -0.1550 -0.0028  0.1020
17300W        W60353  34.409   8.173  27.416 -0.2241 -0.2976  0.1525
17301W        W60354  20.991  24.303   7.616  0.2869  0.1063 -0.0658
17302W        W60355   1.400  14.267   2.831 -0.1983 -0.1443  0.0321
17303W        W60356  32.706   4.043  21.138 -0.1393 -0.1758 -0.0064
17304W        W60357   0.913   9.977   1.218 -0.0857 -0.1335 -0.3269
17305W        W60358   1.075  17.226  25.415  0.2602  0.2105  0.0697
17306W        W60359   2.701  15.806  27.277 -0.0423 -0.0829 -0.0307
17307W        W60360  29.470  19.412  25.297 -0.0326  0.0497  0.1760
17308W        W60361  33.610  31.016  26.327  0.1096  0.0328  0.0719
17309W        W60362   4.417   1.356  14.810 -0.0741 -0.0719 -0.2750
17310W        W60363  33.052  30.191  26.099  0.0262 -0.0597 -0.0370
17311W        W60364  29.554  26.128  25.306 -0.1085  0.0695  0.0492
17312W        W60365  10.510   5.635  24.351  0.0905 -0.2216  0.1346
17313W        W60366  23.552  30.679  19.423  0.1647  0.2489  0.0603
17314W        W60367  17.049   3.435  28.253 -0.1107  0.1454  0.0805
17315W        W60368  31.830   1.301  19.522  0.4591 -0.2529  0.1035
17316W        W60369   4.451   0.216  26.234  0.1362  0.1579  0.0805
17317W        W60370  34.170  24.918  18.398 -0.0270 -0.0203  0.6323
17318W        W60371  16.161  29.586  16.759  0.0180 -0.0865 -0.2876
17319W        W60372  32.942  32.029  16.179  0.2775 -0.3435  0.0690
17320W        W60373   2.933  31.910  25.719 -0.1876 -0.1944  0.0383
17321W        W60374   2.615  29.826  19.973 -0.2187 -0.1649 -0.1062
17322W        W60375  18.899  30.147  24.412 -0.1334 -0.1482  0.1639
17323W        W60376   5.765  33.291  18.680  0.2023 -0.1556 -0.1833
17324W        W60377  30.381  26.642  15.952 -0.1488 -0.1167 -0.1415
17325W        W60378   8.493   9.479  29.033  0.0064  0.0636 -0.0690
17326W        W60379  23.958  33.809  24.276  0.0895 -0.0016  0.0746
17327W        W60380  32.726  26.580   2.737  0.1620 -0.1743 -0.1399
17328W        W60381   4.582  20.790  23.294 -0.0384 -0.1058  0.1680
17329W        W60382  12.609   6.332  14.949 -0.1986  0.1261 -0.2336
17330W        W60383  10.838   4.634  24.967 -0.0057 -0.0618 -0.1127
17331W        W60384  13.328  33.434  21.196  0.0649 -0.4653 -0.0273
17332W        W60385  27.416  24.294  19.904  0.1690 -0.0538 -0.0890
17333W        W60386   8.136  25.476  15.223 -0.3826  0.1601  0.1429
17334W        W60387  28.848  24.343  19.807  0.0284  0.0102  0.1537
17335W        W60388  28.887  30.741  16.836  0.0361 -0.1359  0.1534
17336W        W60389  13.478  27.275  22.226 -0.0071  0.0863 -0.1379
17337W        W60390  18.023   2.767  21.649 -0.0287 -0.1354  0.1280
17338W        W60391   4.732   4.873  17.984  0.0233 -0.0145 -0.1057
17339W        W60392  33.067  26.241   0.102  0.0016  0.0157 -0.0806
17340W        W60393   7.460   0.141  28.794  0.2424  0.1155  0.1299
17341W        W60394  31.137  32.665  15.570 -0.2639  0.2891  0.2859
17342W        W60395   0.676   0.538  25.990 -0.0825 -0.5381 -0.3813
17343W        W60396  31.523   6.093  19.123 -0.1879  0.0211 -0.2130
17344W        W60397   1.370  22.601  16.582 -0.2876  0.2403  0.3337
17345W        W60398  34.008  27.600  21.275 -0.3595 -0.2676  0.3311
17346W        W60399  18.761  26.550  17.558 -0.1609 -0.1309 -0.1754
17347W        W60400  11.168   9.718   1.422 -0.1662 -0.1617  0.2640
17348W        W60401  31.180   4.019  14.803  0.0734 -0.3716 -0.1080
17349W        W60402   8.197   7.850  18.220  0.1683 -0.0021 -0.1620
17350W        W60403  34.009   3.308   7.074 -0.2081 -0.1902  0.0967
17351W        W60404  31.736  28.814  16.517  0.0779  0.0612  0.3064
17352W        W60405  20.348  27.228  28.476  0.3563  0.2409 -0.1061
17353W        W60406  32.702  22.014  22.390 -0.1043 -0.1544  0.0027
17354W        W60407   7.327  12.335  16.839 -0.0925  0.0390 -0.2226
17355W        W60408  12.049  22.202  16.236  0.0448 -0.0184  0.0856
17356W        W60409  20.447  13.599  26.214 -0.0538 -0.1663 -0.1519
17357W        W60410  14.902  31.933   9.950 -0.3419  0.1822  0.0801
17358W        W60411  23.642  34.131  16.117 -0.0521  0.0937 -0.1328
17359W        W60412  29.173   9.807  19.732 -0.2533 -0.2165  0.0173
17360W        W60413  31.073  17.570  21.521  0.3021 -0.2780  0.0985
17361W        W60414  32.714   0.847  14.730  0.2917  0.2282 -0.1525
17362W        W60415   8.003   5.805  19.822  0.0037  0.0098  0.1305
17363W        W60416  33.084   9.819  14.581  0.0783 -0.1830  0.0326
17364W        W60417  29.011  19.398  16.013 -0.2173  0.1161 -0.0432
17365W        W60418   2.856  32.017  20.357  0.1545  0.3084 -0.1079
17366W        W60419   3.932  26.672  17.400  0.1548 -0.2123 -0.3471
17367W        W60420  23.740  32.997  17.637  0.1638 -0.2194 -0.0494
17368W        W60421  12.967  22.191  22.466  0.0136  0.1086  0.0577
17369W        W60422  10.027   1.957  22.844 -0.2072 -0.1118  0.1615
17370W        W60423   5.587  30.745  20.809 -0.1983  0.1764  0.0029
17371W        W60424  19.706  29.146  15.847 -0.1063 -0.0019 -0.0219
17372W        W60425  29.196  29.916  22.356  0.0038 -0.0193  0.1951
17373W        W60426   5.534  32.105  18.085 -0.1159  0.1433 -0.3040
17374W        W60427  31.973   5.037  26.398  0.1145 -0.0877 -0.1382
17375W        W60428  33.188  26.528   3.605 -0.0630 -0.0735 -0.2106
17376W        W60429   8.686  10.886  26.485  0.1809 -0.1161  0.0524
17377W        W60430  29.125  22.454  21.759  0.1708 -0.2208  0.2995
17378W        W60431  33.669   2.054   0.177  0.0402 -0.1544  0.1674
17379W        W60432  17.998   7.422   3.047  0.0386 -0.0771  0.2365
17380W        W60433  10.650   9.340  15.239  0.2245 -0.2394  0.1266
17381W        W60434   3.339   7.355   4.938  0.6175 -0.0033  0.0063
17382W        W60435   2.208  21.338  23.805 -0.2050  0.2033 -0.0068
17383W        W60436   7.293  23.946  18.808 -0.1053  0.1778 -0.0760
17384W        W60437   2.763  27.744  13.065  0.0063  0.0515  0.0162
17385W        W60438  28.103  12.280   0.371 -0.0487  0.2317  0.1026
17386W        W60439   9.999  26.984  25.321 -0.1409 -0.1632 -0.1458
17387W        W60440   2.009  13.693  23.828  0.0565  0.2145  0.0365
17388W        W60441   3.581   4.556  19.435 -0.3863  0.2750 -0.0523
17389W        W60442   6.429  30.201  23.806  0.0718 -0.0700  0.4379
17390W        W60443  31.774  21.289  26.156  0.1290  0.0388  0.5499
17391W        W60444  23.377  24.541  27.535 -0.1528  0.3236  0.3527
17392W        W60445  33.263  30.272  26.543  0.0154  0.1521  0.0986
17393W        W60446  12.005  31.486  21.928 -0.2146 -0.0900  0.0085
17394W        W60447   9.913  29.297  18.157 -0.0418  0.1135 -0.1975
17395W        W60448  23.559  24.337  18.266 -0.3037 -0.2585 -0.2388
17396W        W60449  28.846  15.280  21.827  0.1772  0.3375  0.3167
17397W        W60450   2.529  27.277  15.058  0.2093  0.0158 -0.0172
17398W        W60451  16.191  15.403  15.236  0.0634  0.0100 -0.0599
17399W        W60452   6.547  33.440  21.523 -0.1791 -0.3744  0.1967
17400W        W60453  33.623  26.970  25.346  0.1310 -0.0742  0.4544
17401W        W60454  32.936  23.263  28.257 -0.3093  0.1845 -0.1110
17402W        W60455   8.455  24.620  22.415 -0.0063 -0.0566  0.0171
17403W        W60456   9.095  22.316  17.308  0.2484  0.0231 -0.0682
17404W        W60457  25.236  25.311  23.163 -0.0730 -0.1404  0.0646
17405W        W60458  34.340   4.194  21.077 -0.1243  0.1253 -0.0659
17406W        W60459  24.839   6.668  18.833 -0.1290  0.2041 -0.0849
17407W        W60460   7.698  21.672  26.317  0.0370  0.0928  0.2201
17408W        W60461  18.433  27.958  24.240  0.1223  0.1723 -0.0828
17409W        W60462  22.927  29.996  13.952  0.1959 -0.1965  0.1815
17410W        W60463   6.692  22.325  19.189  0.3749 -0.0698 -0.0115
17411W        W60464  28.417  33.254  19.607  0.0350  0.0911  0.1873
17412W        W60465  33.825  26.409  20.886  0.0512  0.2056 -0.0461
17413W        W60466   6.179  26.097  14.564 -0.0281  0.2565 -0.2219
17414W        W60467  32.450   7.190  28.724  0.0766 -0.0246  0.1497
17415W        W60468   8.924   9.011  16.536  0.0025  0.1151  0.0817
17416W        W60469  11.501  32.483  21.082 -0.3251  0.1321 -0.1216
17417W        W60470  33.503  27.432  23.092  0.1744  0.1472  0.0645
17418W        W60471  19.368  22.742  18.367  0.0289  0.4004  0.3861
17419W        W60472  30.950   8.667   1.255  0.3054  0.1067  0.0259
17420W        W60473   7.903  12.840   5.375  0.1356 -0.0504  0.2224
17421W        W60474   2.913  31.865  15.025  0.1478  0.1098  0.2395
17422W        W60475  28.125  28.963  17.662 -0.0601  0.1060 -0.0285
17423W        W60476   4.257  22.527  23.364 -0.2522  0.1715 -0.1873
17424W        W60477  26.433  12.955  14.235  0.0208  0.1173  0.0032
17425W        W60478   6.802  16.955  21.669  0.1055 -0.1995  0.2323
17426W        W60479  14.324  29.734  18.923 -0.2045 -0.0602 -0.3449
17427W        W60480   0.897  30.672  25.600 -0.0618 -0.0544 -0.1006
17428W        W60481   8.187   0.207  26.055  0.0163 -0.1637 -0.0160
17429W        W60482  14.367  33.371  16.904 -0.0677  0.2992  0.1595
17430W        W60483   0.046  10.086  15.248 -0.0480  0.1085  0.0022
17431W        W60484   4.226  27.890  22.258 -0.0113  0.2295  0.2207
17432W        W60485  13.964   2.838  18.091  0.0748  0.2505 -0.1994
17433W        W60486   2.714   7.183  23.595  0.4208  0.0351  0.0883
17434W        W60487   2.639   8.867  16.220  0.0808 -0.1669  0.1326
17435W        W60488   1.328  11.064  21.737  0.0388 -0.1388 -0.0903
17436W        W60489  26.128  17.071  20.499 -0.0317 -0.1215  0.1343
17437W        W60490  25.892  22.440  19.636  0.1236  0.1620  0.1852
17438W        W60491  33.769  22.917  15.195  0.1213 -0.0327  0.0599
17439W        W60492  32.712   4.646  19.428 -0.1782 -0.2233 -0.0116
17440W        W60493   7.175  16.947  21.372 -0.0818  0.0497 -0.0312
17441W        W60494  18.367   6.758  18.727 -0.1596 -0.1795  0.2079
17442W        W60495   3.018  31.101  15.304 -0.0994  0.2126  0.2065
17443W        W60496   7.747   5.693   3.396 -0.2956  0.0019 -0.0878
17444W        W60497   2.416  26.519  17.608 -0.1657  0.0062  0.0609
17445W        W60498   5.952  27.799   2.447 -0.1086 -0.1141  0.1007
17446W        W60499   2.157  16.843  16.763 -0.0137 -0.1509  0.3142
17447W        W60500  34.038  26.757  15.831  0.0136  0.2603 -0.0758
17448W        W60501  19.257  32.304  26.639  0.0950 -0.0790  0.1569
17449W        W60502  30.995  23.915  28.426  0.0848 -0.1500  0.1218
17450W        W60503  23.293   6.487  28.472  0.1963  0.1853  0.1695
17451W        W60504  33.095  26.358  26.399  0.3540  0.1465  0.3089
17452W        W60505  28.470   2.529  27.146 -0.1524  0.1953 -0.1034
17453W        W60506  34.489  27.216   4.508  0.0766 -0.1985 -0.1431
17454W        W60507  10.283  20.199  17.738 -0.1638 -0.0042  0.3122
17455W        W60508  27.183  31.432  25.451  0.2708 -0.1945 -0.4615
17456W        W60509   2.422   4.979  15.401  0.0621 -0.1395  0.0185
17457W        W60510  30.640  20.033   8.733  0.0277  0.2647 -0.2355
17458W        W60511  29.413  31.935  22.404  0.0222 -0.2495 -0.1812
17459W        W60512  19.812  18.614  12.778 -0.2218 -0.1586  0.1689
17460W        W60513  25.811   4.120  14.080 -0.0978 -0.2473  0.2831
17461W        W60514  11.334   2.404   0.472  0.0491 -0.6124  0.0349
17462W        W60515  32.967   1.675  15.369  0.1200 -0.1739 -0.3612
17463W        W60516  12.644  30.530  21.532 -0.4165  0.3224  0.1679
17464W        W60517  20.205  30.458  18.467 -0.1407 -0.2945 -0.0018
17465W        W60518   0.740  24.003  15.430 -0.0081 -0.0101  0.3016
17466W        W60519   9.752   2.754   0.255  0.2098 -0.0273 -0.2230
17467W        W60520  34.181   7.176  18.783  0.1646  0.0461 -0.0874
17468W        W60521  11.178   9.866  17.530 -0.1327 -0.1893  0.2098
17469W        W60522   8.159  25.869  18.442 -0.0948 -0.2341  0.1175
17470W        W60523  33.400  27.813   8.854  0.0918 -0.0148 -0.0693
17471W        W60524  19.629  28.752  15.571  0.1375  0.0589 -0.0058
17472W        W60525  24.726  30.544  16.645  0.1334 -0.2778  0.1770
17473W        W60526   6.133   0.109  18.434 -0.1144  0.0341 -0.1995
17474W        W60527  20.709  33.446  18.835 -0.1440 -0.4291 -0.2542
17475W        W60528   9.153  21.184  16.922 -0.1831 -0.1397 -0.0769
17476W        W60529  25.689   7.961  16.885 -0.0133  0.4193  0.1141
17477W        W60530  34.528  13.762  19.411 -0.1367  0.0284  0.2335
17478W        W60531  31.742  32.720  21.163  0.2331 -0.0800 -0.0200
17479W        W60532  15.330   0.051   3.079 -0.1157 -0.0488 -0.1433
17480W        W60533  28.198  30.614  15.683  0.0336  0.1374  0.2205
17481W        W60534  30.888   6.325  21.095 -0.0596 -0.2153 -0.1184
17482W        W60535  15.406  34.264  16.836 -0.0651 -0.1843  0.3060
17483W        W60536   1.598  11.018  16.762  0.0032  0.2852 -0.0800
17484W        W60537   6.443   2.077  15.051 -0.2635  0.0220  0.2282
17485W        W60538  10.367  28.131  21.198  0.0452 -0.1302  0.2382
17486W        W60539  14.066  33.216  10.347 -0.1238  0.0441 -0.0324
17487W        W60540  33.742  25.625  14.758 -0.0086  0.1491 -0.0854
17488W        W60541  28.385   0.084  22.127  0.1103  0.0592 -0.1250
17489W        W60542  28.814   6.939   6.337  0.1384  0.1902 -0.4526
17490W        W60543  30.253  29.938  19.159  0.0030  0.1885 -0.0228
17491W        W60544  27.581   6.556   1.535 -0.2702  0.2724  0.1362
17492W        W60545   8.141  10.425  18.322 -0.4021 -0.0063  0.1481
17493W        W60546  10.461   4.236  24.643 -0.2615 -0.1269 -0.1007
17494W        W60547   6.815  30.017  20.663 -0.3029 -0.0217  0.1551
17495W        W60548   1.167  23.998  19.942 -0.2076  0.1248 -0.1468
17496W        W60549   3.953  33.531  19.854 -0.0368 -0.1316  0.0812
17497W        W60550  19.546   1.786   1.663  0.1110  0.1548  0.0912
17498W        W60551  32.430   0.318  18.178  0.0146 -0.1599 -0.0779
17499W        W60552   2.622  34.456  22.580 -0.0628 -0.1349  0.1106
17500W        W60553  13.166  23.650  28.445  0.0062  0.1864 -0.0167
17501W        W60554   5.371  30.937  18.231  0.0798 -0.0484  0.0707
17502W        W60555  12.518  33.203  15.376  0.0449  0.0137 -0.0896
17503W        W60556  18.354   4.401  20.857  0.1882  0.2386  0.0961
17504W        W60557  12.295   9.249  22.892  0.2463  0.0413 -0.0886
17505W        W60558  11.385  28.118  26.839  0.1158 -0.0629 -0.1119
17506W        W60559   7.101   2.975  15.896  0.0337 -0.0154 -0.1894
17507W        W60560   8.085   6.506  24.009  0.0346  0.0436  0.5015
17508W        W60561   1.521  27.896  17.878 -0.0386  0.0702  0.0171
17509W        W60562   3.683  22.654   0.336  0.2550  0.1812 -0.2202
17510W        W60563  30.437  27.353  23.835 -0.1315 -0.1073  0.2079
17511W        W60564  12.487  28.265  15.493 -0.2910  0.2463  0.2072
17512W        W60565  26.962   8.107   2.243 -0.0773 -0.0653 -0.0568
17513W        W60566  30.397  32.193  19.245  0.0255 -0.0110 -0.0681
17514W        W60567  34.546  10.363  23.686 -0.0741  0.1892 -0.1621
17515W        W60568   2.678  25.755  18.580  0.0786 -0.1811 -0.3963
17516W        W60569   6.765  22.467  16.274  0.2935 -0.2660 -0.4025
17517W        W60570   9.570   8.624  23.608 -0.0135 -0.0480 -0.0837
17518W        W60571  10.521  22.445  15.470  0.1455  0.1439 -0.0613
17519W        W60572   8.884   5.010  15.635  0.2658 -0.1383  0.1207
17520W        W60573  29.783  27.303   2.135  0.1131 -0.0624  0.0171
17521W        W60574   0.555  20.917  15.646  0.1363  0.1492  0.0188
17522W        W60575  28.856   0.709  19.462 -0.1260 -0.1147  0.0330
17523W        W60576  12.925  31.639  15.943  0.2047  0.0770  0.0656
17524W        W60577  33.971  26.565  22.541 -0.1987  0.4089  0.0660
17525W        W60578   4.288   4.094  14.354  0.1135  0.0526 -0.2464
17526W        W60579  16.526  27.825  18.827 -0.1308  0.0176  0.1054
17527W        W60580   1.746   3.137  20.830  0.1104  0.1097  0.1113
17528W        W60581   5.206  31.883  17.141 -0.2298  0.0768 -0.1963
17529W        W60582  21.397   1.173  17.676 -0.0997 -0.1234  0.0786
17530W        W60583  11.572   1.962  14.241 -0.0763 -0.4288 -0.2117
17531W        W60584  12.764  34.665   2.678 -0.1441  0.0966  0.0574
17532W        W60585  32.683  16.262   0.467 -0.0745  0.2635  0.2306
17533W        W60586  16.690  31.060  20.548  0.1425  0.0413 -0.0044
17534W        W60587  28.804  32.911  15.472 -0.1584 -0.1441  0.0575
17535W        W60588  17.447  24.767  17.621 -0.1395 -0.4423  0.1172
17536W        W60589  33.776   0.905  14.926 -0.0952 -0.1314 -0.3458
17537W        W60590   8.641  22.752  25.442  0.0206 -0.0646  0.1603
17538W        W60591  23.410  33.562  23.354 -0.2405 -0.1444 -0.1339
17539W        W60592  27.905  29.661  28.714  0.0110 -0.0246 -0.0529
17540W        W60593   8.104  20.727  18.022  0.2577 -0.2733  0.4269
17541W        W60594  12.975  28.688  17.229 -0.3643 -0.0698  0.0934
17542W        W60595  29.268  20.432  21.027  0.1527 -0.2999  0.1929
17543W        W60596   8.695  26.381  18.130 -0.1713 -0.0958  0.1509
17544W        W60597  12.078   1.634  20.972  0.1128 -0.2487  0.1697
17545W        W60598  23.118   4.519  18.367 -0.1406  0.0008 -0.4076
17546W        W60599  32.122   5.787  24.969 -0.0485  0.0066 -0.1363
17547W        W60600   6.392  19.915  24.098 -0.0867  0.1061 -0.0652
17548W        W60601   1.431  33.537  21.918  0.6747 -0.2748 -0.1056
17549W        W60602   2.528  29.835  15.650  0.1191  0.1445 -0.0709
17550W        W60603  18.352   4.036   2.166  0.1740 -0.0366 -0.1421
17551W        W60604   2.062   7.636   0.990  0.1172  0.0427 -0.1757
17552W        W60605  10.878   6.225  27.726  0.1126  0.0881 -0.1062
17553W        W60606   4.888  27.736  19.536  0.0093  0.1101  0.0704
17554W        W60607  12.441  33.509   0.505  0.1540 -0.0556 -0.0611
17555W        W60608  32.481   6.924   2.373  0.0931 -0.1593 -0.0882
17556W        W60609  22.781  31.575  25.867 -0.0801  0.0957  0.0624
17557W        W60610  32.246   4.800  27.892  0.3236  0.1043 -0.2414
17558W        W60611  33.298  26.532  20.916  0.2428 -0.1229  0.4618
17559W        W60612  15.430  30.551  21.558 -0.0941 -0.2794 -0.0498
17560W        W60613   6.040  23.193   2.414 -0.0123  0.2244 -0.1476
17561W        W60614  28.903  26.460  19.805 -0.2587  0.0884 -0.0907
17562W        W60615  12.861  10.721  17.207 -0.1554  0.1228  0.0240
17563W        W60616  33.389   5.859  20.882 -0.1466  0.0122 -0.3183
17564W        W60617  12.984  28.821  13.585  0.1443  0.2912 -0.1364
17565W        W60618  27.222  23.685  17.100  0.1304 -0.3904 -0.0622
17566W        W60619  30.389  29.473  21.521 -0.1316  0.5484  0.2248
17567W        W60620  15.510  29.929  15.043 -0.0584 -0.2454  0.2089
17568W        W60621  30.913  27.383  21.397  0.1383 -0.0119  0.2011
17569W        W60622   1.668  28.913  22.161 -0.3705 -0.2177 -0.0547
17570W        W60623   1.752  26.155  15.769  0.0003  0.5620 -0.0382
17571W        W60624  33.340  31.022   0.027 -0.1614  0.3036  0.0918
17572W        W60625  11.638  21.650  22.969 -0.4184  0.2303  0.0681
17573W        W60626  33.584  10.353  15.700 -0.1417  0.1108 -0.1310
17574W        W60627   0.657   6.720  19.234  0.1185 -0.6530  0.0115
17575W        W60628   8.510   3.359  27.657  0.1161 -0.0580  0.0819
17576W        W60629   7.794   8.404  20.687 -0.2677  0.2786 -0.3075
17577W        W60630  26.194  34.333  16.443  0.1744 -0.1671 -0.0893
17578W        W60631  29.434  31.824  20.203 -0.0248  0.2649  0.0294
17579W        W60632   7.186  34.610  23.650 -0.0792  0.1173  0.2702
17580W        W60633  23.889  25.576  20.272 -0.0697  0.1716  0.1054
17581W        W60634   0.362  20.624  16.085  0.1258  0.2457  0.1699
17582W        W60635  29.671   1.853  18.560  0.2197 -0.0146  0.1107
17583W        W60636   7.198   5.284  15.236 -0.1359  0.2240 -0.2265
17584W        W60637   7.944   0.242  20.413  0.2690  0.0215  0.1957
17585W        W60638  31.770   3.717  22.349 -0.0237  0.0680  0.1955
17586W        W60639  32.050  28.757  16.863 -0.1846 -0.0893 -0.2315
17587W        W60640   6.122   9.261  21.224  0.1610 -0.0967 -0.1691
17588W        W60641   8.485   1.112  23.965 -0.1491  0.3463 -0.1039
17589W        W60642  17.871  16.901  14.443  0.1461  0.0701  0.2125
17590W        W60643   2.307  15.326  14.639  0.4498  0.0392 -0.1286
17591W        W60644   2.053  26.211  19.843 -0.4407 -0.0954  0.0928
17592W        W60645   9.306  34.676  20.541  0.1319  0.5281  0.2989
17593W        W60646   8.638   4.050   3.424 -0.1675 -0.2015 -0.3531
17594W        W60647  34.649  25.609  16.421  0.0145  0.1047  0.0900
17595W        W60648  31.383  29.873  16.552 -0.1524  0.0323  0.0056
17596W        W60649   1.425  30.434  14.726 -0.1133 -0.4593  0.0772
17597W        W60650   2.868  33.950  20.516 -0.4843  0.0960 -0.2882
17598W        W60651   4.423  22.284  18.932  0.2737 -0.3432 -0.0827
17599W        W60652  23.491  28.039  19.093  0.0752  0.4047 -0.2371
17600W        W60653   1.294  22.994  22.780 -0.2043 -0.1817 -0.0120
17601W        W60654  14.597  15.217  28.470 -0.1700  0.1276 -0.1144
17602W        W60655   3.510   6.826   7.596 -0.1723  0.2426  0.1339
17603W        W60656  27.996  12.250  19.468  0.1394  0.0063  0.4179
17604W        W60657  28.772  32.122  21.237  0.0040 -0.1193  0.3763
17605W        W60658   6.401   0.913  16.290 -0.2724 -0.1135  0.1204
17606W        W60659  11.731  10.742  27.995 -0.0087  0.1687 -0.0994
17607W        W60660   3.563  31.460  18.525 -0.5281 -0.0218 -0.4809
17608W        W60661  22.591  23.015   7.375 -0.0301  0.2557  0.5519
17609W        W60662   4.494   0.159  15.479 -0.1343  0.1902  0.0702
17610W        W60663  30.417  33.157  16.265  0.2897  0.0377 -0.2998
17611W        W60664   2.323   7.179  25.711  0.0806  0.0191 -0.3355
17612W        W60665  12.270  13.714  15.800  0.1470  0.1313 -0.3955
17613W        W60666   8.472   5.163  16.298 -0.0908  0.0968 -0.4018
17614W        W60667  27.468  33.047  24.876 -0.0144  0.0403 -0.1707
17615W        W60668  31.505  34.066  22.269 -0.0862  0.1221 -0.6008
17616W        W60669  31.275  23.699  18.270  0.1162  0.3173  0.2743
17617W        W60670  16.428   9.014   2.162  0.0002  0.0933 -0.1235
17618W        W60671   6.957  25.541  24.152 -0.1131  0.0952 -0.0388
17619W        W60672   3.119  31.201  29.019  0.0854 -0.2362 -0.0214
17620W        W60673  10.434  32.072  17.938  0.1341 -0.0521 -0.0129
17621W        W60674  29.574  33.419  22.178  0.1084 -0.1689  0.1811
17622W        W60675  30.918   7.246  19.718  0.2971 -0.0882  0.1470
17623W        W60676   7.411   1.476  21.067 -0.0865 -0.1986 -0.1524
17624W        W60677   0.802  24.325  18.658  0.0013  0.2015 -0.0490
17625W        W60678  14.900   2.856  23.400  0.1813 -0.0280  0.0608
17626W        W60679  29.989  31.505   1.088 -0.1048 -0.3568  0.1339
17627W        W60680  13.934   6.753  15.070 -0.1878  0.0754  0.1105
17628W        W60681  10.138  34.165  17.129 -0.1897  0.2885  0.1024
17629W        W60682  33.278  23.586  21.620 -0.5414 -0.0236  0.2520
17630W        W60683  33.585  32.886  26.730  0.2376 -0.0995  0.0818
17631W        W60684   5.518  16.346  25.240 -0.2784  0.2570 -0.0077
17632W        W60685  31.375  33.114  20.309  0.2065 -0.1182 -0.1052
17633W        W60686  19.842  29.835  22.144  0.0718 -0.3335 -0.2687
17634W        W60687  34.527   7.700  22.378  0.2622 -0.2371  0.3354
17635W        W60688  30.718  21.589  18.721  0.0239 -0.0783  0.1201
17636W        W60689   4.767  31.745  19.313 -0.0159 -0.1499 -0.0605
17637W        W60690   4.217   1.253  26.493 -0.0931  0.2759  0.2438
17638W        W60691   5.537  32.251   0.357  0.0134  0.0415 -0.1188
17639W        W60692  34.550  31.409  17.189 -0.0417 -0.1507  0.2900
17640W        W60693  14.125   7.078   0.082 -0.0112  0.2599  0.2144
17641W        W60694  34.182  33.318  22.455  0.0268  0.2638 -0.1095
17642W        W60695   7.553   3.382   2.765 -0.1678 -0.4476 -0.2581
17643W        W60696  28.444   8.660  20.557 -0.0870  0.1572  0.0542
17644W        W60697  21.765   4.047  16.456  0.1541  0.2230 -0.1011
17645W        W60698   9.216  25.306  19.125 -0.3852 -0.0911  0.0596
17646W        W60699  14.083  31.584  23.897  0.0240 -0.1141  0.0943
17647W        W60700  31.689  20.922  14.700 -0.3881 -0.0073 -0.1491
17648W        W60701  30.724   3.846  20.373  0.2983  0.0632 -0.0250
17649W        W60702   0.009  32.730  29.007  0.0778  0.0802  0.1270
17650W        W60703   1.265  22.691  27.790  0.0777 -0.3929 -0.4833
17651W        W60704  29.041  15.267  28.093 -0.1352  0.0483  0.0417
17652W        W60705   4.996  17.410  24.295  0.1048 -0.2342  0.2530
17653W        W60706   9.395  29.080  22.502  0.2774  0.0099  0.1876
17654W        W60707  34.100   8.689  17.650 -0.0487 -0.0973  0.0452
17655W        W60708  34.596  32.087  22.439  0.1824  0.0834  0.0741
17656W        W60709  28.790   3.241  15.824  0.1310  0.2143 -0.3122
17657W        W60710   8.108   8.352  26.097  0.2485  0.2764  0.2477
17658W        W60711   2.056  33.736  18.585 -0.3451  0.3099 -0.3819
17659W        W60712   8.584  13.497  18.338  0.0885 -0.0280 -0.0238
17660W        W60713  13.498  18.601  17.946 -0.2206 -0.3050 -0.3315
17661W        W60714   0.389  28.549  28.375 -0.2311  0.1984 -0.2229
17662W        W60715   1.553  22.521  16.103  0.1620  0.1582  0.0556
17663W        W60716  28.645  24.667  23.767 -0.0333  0.2042 -0.0705
17664W        W60717   5.469  30.253  18.810 -0.1043 -0.1704  0.2851
17665W        W60718  13.634   2.739  14.948  0.0206  0.0814 -0.1021
17666W        W60719   9.715  23.079  18.408  0.2678  0.2733  0.0544
17667W        W60720   0.796  33.022  20.073 -0.0127  0.1066  0.0204
17668W        W60721   4.423  15.978  14.709 -0.1539  0.0627 -0.0333
17669W        W60722   3.113   2.583  26.039  0.0508  0.1300  0.0479
17670W        W60723  31.390  33.342  26.096  0.1206  0.1094 -0.2007
17671W        W60724  10.850  21.596  21.986  0.1680  0.0326 -0.2043
17672W        W60725   0.002  33.101  21.115 -0.0848 -0.3096  0.1267
17673W        W60726  31.244  19.742  19.276 -0.2967 -0.0448  0.1574
17674W        W60727  24.405   6.666  27.555 -0.0416 -0.2365 -0.1059
17675W        W60728  25.850  31.339  22.975  0.1015 -0.1488 -0.0565
17676W        W60729   4.023  17.874  25.148  0.0870  0.1715  0.0928
17677W        W60730  20.461  11.234   0.509  0.0039  0.0252  0.0786
17678W        W60731  25.046  30.330  28.220 -0.1758 -0.1890  0.2249
17679W        W60732  33.909  10.512  22.995 -0.0142  0.0940  0.0067
17680W        W60733  28.048  17.103   4.483 -0.0372 -0.0201 -0.1465
17681W        W60734  27.131  32.870  23.919 -0.0189 -0.3654  0.0859
17682W        W60735  33.354  17.796  25.417  0.0783  0.3592 -0.0069
17683W        W60736   0.833  27.131  15.392  0.1397  0.0084  0.1481
17684W        W60737  31.785   4.431  16.936  0.1258 -0.0124 -0.1863
17685W        W60738   1.242   6.133  26.286  0.3255  0.0472 -0.1937
17686W        W60739  14.791  34.091  21.433 -0.0179 -0.0976  0.0088
17687W        W60740  18.885  13.684  13.873 -0.2320 -0.1363  0.2011
17688W        W60741   9.702   2.283  24.142 -0.3361  0.0983 -0.0750
17689W        W60742   8.353  32.380  16.096 -0.0236 -0.1504 -0.1479
17690W        W60743  29.004  32.144   5.950  0.0205 -0.0874 -0.1295
17691W        W60744   8.375  16.853  26.260 -0.2836 -0.0345  0.0843
17692W        W60745  18.250  22.595  19.712  0.1301  0.1022 -0.0083
17693W        W60746   4.572   1.225  16.974 -0.2719 -0.0448 -0.0451
17694W        W60747  28.142  24.067  17.782  0.0525 -0.0036 -0.0321
17695W        W60748  32.854   7.977  27.967  0.2044  0.0864 -0.0891
17696W        W60749  32.520  30.690  15.740  0.0116  0.0036 -0.5671
17697W        W60750  26.506  30.690  27.551  0.0840 -0.2130 -0.5672
17698W        W60751   2.397   4.680  13.667  0.1403  0.2372 -0.0038
17699W        W60752  31.655   3.686  15.978  0.1644  0.3130 -0.2669
17700W        W60753  32.558   4.177  15.878 -0.1693 -0.1574  0.2152
17701W        W60754   8.694   5.555  23.396  0.4911 -0.0753 -0.0749
17702W        W60755  11.740   1.265  24.587  0.0132 -0.0361 -0.0276
17703W        W60756  31.090  30.281  15.748  0.0624  0.1593 -0.2985
17704W        W60757   7.974   7.354  22.185  0.2138 -0.0612 -0.3342
17705W        W60758   5.684   6.542   1.010 -0.0428  0.0487 -0.0041
17706W        W60759  33.226  25.551  18.886 -0.0176 -0.0610  0.2629
17707W        W60760  34.004  27.049  14.535 -0.3391  0.1555 -0.1270
17708W        W60761  22.226  24.843  18.560 -0.1726  0.2290  0.0414
17709W        W60762   6.220   8.295  14.756  0.0695  0.1682 -0.3915
17710W        W60763   6.014  28.221  21.697  0.3807 -0.4224 -0.3114
17711W        W60764  20.052  26.578  17.194  0.0052 -0.1265 -0.1934
17712W        W60765   7.004  32.104  24.226  0.2916 -0.0624  0.4969
17713W        W60766   0.343  19.903  21.163  0.2382 -0.2276  0.1012
17714W        W60767  10.996  30.613  17.052  0.1641  0.0188  0.3025
17715W        W60768  12.827  31.165  18.940 -0.1277 -0.1377  0.0169
17716W        W60769  30.306  19.358   2.566 -0.0246  0.0183  0.2114
17717W        W60770   6.070   4.070  23.687 -0.1297 -0.0459 -0.0105
17718W        W60771  34.222  32.734  25.188  0.1525 -0.4728  0.0658
17719W        W60772  24.040  14.557  25.902  0.0535 -0.0286 -0.0291
17720W        W60773   2.216   7.877  14.808  0.0604 -0.0135  0.1797
17721W        W60774  23.588   6.248  18.495 -0.4347 -0.2767 -0.0082
17722W        W60775   8.166  28.198  28.612  0.0708  0.2594 -0.1485
17723W        W60776  11.249  13.107   4.542 -0.1622  0.1104  0.1986
17724W        W60777  11.608  15.827  22.774  0.2092 -0.2352 -0.0024
17725W        W60778  30.220  17.933  16.702 -0.2898  0.0007 -0.0498
17726W        W60779  32.738  30.802  19.138  0.2038  0.1265  0.0678
17727W        W60780   1.536  28.718   5.305  0.1617  0.1740  0.3051
17728W        W60781  26.937   5.032  24.007 -0.2009 -0.1208  0.1219
17729W        W60782  11.148   1.080  20.027 -0.1865 -0.1372 -0.1171
17730W        W60783   4.314  29.069  15.307  0.0400 -0.0104 -0.0135
17731W        W60784  34.316  23.985  26.842  0.1162 -0.1670 -0.2677
17732W        W60785  29.641  11.512  23.334 -0.0980 -0.3667  0.0451
17733W        W60786   7.223  30.769  13.811  0.1765  0.0083 -0.0539
17734W        W60787  30.598  32.216  14.214 -0.0111  0.3590  0.2862
17735W        W60788   8.625  31.117  26.082 -0.0336  0.2428  0.3753
17736W        W60789   6.929  26.425  15.972 -0.2076  0.0486 -0.1340
17737W        W60790  29.965  30.257  23.632 -0.2339 -0.0894  0.1199
17738W        W60791   4.683  16.360   1.803 -0.1084 -0.2308  0.2616
17739W        W60792  31.635  26.513   5.553 -0.3074 -0.0512 -0.0800
17740W        W60793  15.397  22.771  17.653  0.2627  0.0307  0.2160
17741W        W60794  27.321  25.890  15.773  0.0008  0.1878  0.2335
17742W        W60795  33.054  29.210  21.540 -0.2255  0.0939  0.2644
17743W        W60796  30.154  14.718  15.974  0.1047  0.2361  0.1961
17744W        W60797   1.226  17.689  19.539 -0.0980 -0.0229  0.0517
17745W        W60798  31.858  26.040  23.746 -0.0489 -0.3100  0.0014
17746W        W60799   0.641   0.633  17.201 -0.1372  0.3552 -0.0086
17747W        W60800   3.443  25.431  15.493 -0.0725 -0.0879 -0.1658
17748W        W60801  28.659   7.955  26.390 -0.3071 -0.0731  0.1733
17749W        W60802  34.482   2.857  18.298 -0.3834 -0.0144  0.0094
17750W        W60803   2.289   0.461  26.725 -0.2167 -0.1763 -0.1431
17751W        W60804   6.894  28.648  22.641  0.1648  0.1596  0.3063
17752W        W60805  33.633  32.695  15.964  0.0204  0.1262 -0.1735
17753W        W60806   9.459  28.200  22.497 -0.1391  0.1272 -0.2363
17754W        W60807  17.418  28.862  15.811 -0.1309 -0.0490 -0.0684
17755W        W60808  25.388   0.910  17.453 -0.1524  0.0538  0.1518
17756W        W60809   9.641   3.510  19.008 -0.0693  0.1181  0.1414
17757W        W60810   0.612  26.510  22.359 -0.1047  0.0543  0.0446
17758W        W60811  21.419  12.417  21.791 -0.1177  0.1123 -0.4529
17759W        W60812  21.344  26.289  18.998  0.1032 -0.2580 -0.2846
17760W        W60813  13.610  33.921  15.217 -0.1003  0.0167  0.0756
17761W        W60814   8.231  13.762  18.086  0.1652 -0.1769  0.0509
17762W        W60815   8.859   7.994  26.464 -0.0244 -0.3296  0.0335
17763W        W60816  28.069  31.625  14.871  0.0648  0.0388  0.0422
17764W        W60817  15.246   9.447  21.059  0.0346 -0.0070  0.0244
17765W        W60818   1.260  25.167  28.203 -0.0082 -0.0692  0.1681
17766W        W60819  11.300   3.351  20.537  0.4391  0.6122  0.0863
17767W        W60820  14.497  22.262  21.779  0.0897 -0.0828 -0.2303
17768W        W60821  26.209   4.016  21.723  0.1525  0.0709  0.2400
17769W        W60822  14.204  22.468  28.934 -0.0865 -0.1248  0.0773
17770W        W60823   5.511   8.799  29.130  0.1503 -0.1609  0.1266
17771W        W60824  28.537  34.616  19.299 -0.2790  0.0466  0.1819
17772W        W60825  11.575  29.080  17.766  0.3369 -0.1166  0.0987
17773W        W60826  15.533  29.373  26.749  0.0192  0.2652  0.0532
17774W        W60827  12.448  19.947   2.416 -0.0235 -0.0276 -0.1081
17775W        W60828   8.195  31.862  18.846  0.2926 -0.0829 -0.0621
17776W        W60829   6.454   5.080  14.875 -0.0258  0.1200 -0.0094
17777W        W60830  24.890  33.965  16.179  0.4129 -0.1549 -0.2763
17778W        W60831  33.006  13.379  20.179  0.2128 -0.2321  0.1474
17779W        W60832  19.543  28.895  24.969 -0.1181 -0.1351 -0.1041
17780W        W60833   2.730  25.155  19.582  0.3048  0.4030  0.0070
17781W        W60834  34.236  27.709  22.646  0.1758 -0.0179  0.1916
17782W        W60835  14.405  18.379  25.877 -0.2182  0.0303  0.3140
17783W        W60836   5.128  20.528   0.441 -0.0270 -0.1873  0.0405
17784W        W60837  31.387   2.930   6.481  0.2663 -0.1483  0.0825
17785W        W60838  29.370  27.528  16.411 -0.2298 -0.0502  0.2044
17786W        W60839   1.192  16.965   0.824 -0.3496  0.1593 -0.2015
17787W        W60840  20.270  17.927  13.303  0.0168  0.0768 -0.1038
17788W        W60841  12.319  30.260  29.065 -0.1545 -0.1553  0.0468
17789W        W60842   4.764  30.611  20.777 -0.1546 -0.2051 -0.0245
17790W        W60843   7.610  16.209  16.611  0.0184  0.2181 -0.2394
17791W        W60844   9.304  23.265  28.863  0.2717  0.1856 -0.0310
17792W        W60845   2.756   1.332  26.414 -0.0471 -0.1712 -0.2210
17793W        W60846   1.477  32.574  18.136  0.4507 -0.0753 -0.2358
17794W        W60847  26.849  26.964  18.361 -0.1193  0.1619  0.0525
17795W        W60848  27.684  13.855  16.509 -0.1069  0.1883  0.0833
17796W        W60849   4.978   6.618  28.572 -0.1744 -0.1023 -0.4447
17797W        W60850  25.341  15.759  28.648 -0.0153 -0.1521  0.1139
17798W        W60851   7.314  23.209  18.293 -0.0481  0.0568 -0.3851
17799W        W60852   3.626  10.159  17.067 -0.1814 -0.1176 -0.1447
17800W        W60853   3.944  22.452  26.089 -0.1363  0.0620  0.1120
17801W        W60854  20.166  30.933  24.397  0.1035 -0.0780 -0.0112
17802W        W60855  22.025  31.203  19.089  0.0252 -0.0388  0.1237
17803W        W60856   7.072  30.992  28.116 -0.2282 -0.3149 -0.2066
17804W        W60857   2.755  30.639  15.117  0.0071  0.0736 -0.3270
17805W        W60858  12.572   6.813  19.120  0.0673  0.0609  0.1634
17806W        W60859   6.585  33.421  21.022  0.0727  0.2887  0.1726
17807W        W60860  25.953  23.240  18.746 -0.1070 -0.0632  0.2424
17808W        W60861  33.209   4.224  23.309 -0.2087  0.0890 -0.1948
17809W        W60862   2.374  33.208  13.257  0.1660 -0.1998  0.1410
17810W        W60863   5.332   3.568   3.232  0.0245 -0.1710 -0.1442
17811W        W60864   2.440  22.741  17.525  0.0185  0.3026  0.4451
17812W        W60865   0.074  32.944  19.645  0.0091  0.1550 -0.0463
17813W        W60866   8.671  27.937   7.587 -0.3478  0.2405  0.0051
17814W        W60867   1.014  34.544   5.377 -0.0208 -0.0045 -0.0810
17815W        W60868  16.400   2.706  15.990  0.2207  0.1477 -0.0544
17816W        W60869  21.579  28.344  21.594 -0.3616  0.2396  0.2796
17817W        W60870  22.708  13.404  14.420  0.1899  0.1476  0.1816
17818W        W60871  13.241  28.767  14.416  0.1166  0.0433  0.1848
17819W        W60872   1.622   0.057   2.926 -0.1693 -0.1158 -0.1620
17820W        W60873  33.434  27.236  24.931  0.2044 -0.2723  0.2213
17821W        W60874  33.114  13.466  19.622  0.0795 -0.1472 -0.1982
17822W        W60875  31.102  19.259  26.918  0.1064  0.1986 -0.3618
17823W        W60876  12.923  16.103  26.954  0.0424  0.3333 -0.1253
17824W        W60877   7.700  30.823  28.947  0.0324 -0.4717 -0.0502
17825W        W60878  32.043  30.692  25.821  0.0480  0.2027 -0.3915
17826W        W60879   0.971  31.976  19.976 -0.0359  0.0370 -0.1968
17827W        W60880   0.423   2.402  17.436 -0.1981 -0.2478 -0.3321
17828W        W60881  33.818   1.354   7.979 -0.1240  0.1621  0.2511
17829W        W60882  31.888   5.490  17.398 -0.0615 -0.1615  0.0741
17830W        W60883  32.790  22.794  28.487 -0.0450 -0.0327 -0.2281
17831W        W60884  30.921   1.780   6.288 -0.1010  0.1392  0.0193
17832W        W60885  29.069   9.976  15.281 -0.0734 -0.2229 -0.3061
17833W        W60886  11.214  23.118  17.123  0.3190  0.0713 -0.0351
17834W        W60887  27.409  29.056  18.905  0.0605  0.1312  0.2215
17835W        W60888  22.321  28.890  27.382  0.1203  0.0640  0.2242
17836W        W60889  11.281  28.715  22.699  0.0986  0.0951  0.1532
17837W        W60890  27.438   0.360  19.218  0.3125  0.0113  0.3421
17838W        W60891  13.659  26.789  19.897 -0.1432  0.0549  0.0971
17839W        W60892   8.412  29.962  15.251 -0.1798 -0.0673 -0.0373
17840W        W60893  33.873   4.066  26.154 -0.1121  0.1214  0.1936
17841W        W60894  33.079   9.882  25.642  0.1089  0.2700  0.2119
17842W        W60895  34.552  22.802   8.425  0.1033 -0.0848 -0.1586
17843W        W60896  15.453  26.789  16.754  0.3932  0.0335  0.1415
17844W        W60897  30.997  19.583  28.550  0.1761  0.0173 -0.0633
17845W        W60898  13.776   2.887  28.780  0.2543 -0.1692 -0.3996
17846W        W60899   4.625   8.118  14.251  0.2153 -0.2029 -0.1051
17847W        W60900  26.295   1.389   3.705  0.1827  0.1369 -0.2133
17848W        W60901   6.777  34.326  18.934  0.2505 -0.0339  0.3264
17849W        W60902  29.560   0.781  25.437  0.0531  0.0940 -0.1312
17850W        W60903  13.046   4.956  16.242  0.1057 -0.2731 -0.0433
17851W        W60904  34.197   2.313  16.999 -0.0271 -0.0855  0.1104
17852W        W60905   3.582   5.710   2.793  0.0361  0.1221 -0.1541
17853W        W60906   0.438  27.502  27.903  0.1733 -0.1745 -0.0435
17854W        W60907   9.923  17.035  17.660  0.0593 -0.3258  0.0103
17855W        W60908  27.770  24.828  19.191  0.2035 -0.0193  0.1183
17856W        W60909  12.302  16.262   0.874  0.3772  0.0991  0.0688
17857W        W60910   8.812  18.694  23.124  0.2213  0.3839  0.0829
17858W        W60911  27.756  13.209   7.846  0.1178  0.0228 -0.2151
17859W        W60912   2.212  11.785  25.200 -0.3679  0.0316 -0.0578
17860W        W60913  10.668  27.553  18.043  0.1744  0.1674  0.0411
17861W        W60914   0.302  25.492  17.808  0.1916 -0.1067 -0.1603
17862W        W60915   8.133  29.762  21.768  0.1129  0.2212 -0.3396
17863W        W60916   7.312  16.736  19.914  0.2752 -0.2213  0.1483
17864W        W60917  14.428  33.665   1.877 -0.0849  0.4093 -0.0571
17865W        W60918   3.267   6.024  24.797 -0.1345  0.1718  0.0723
17866W        W60919   7.889   7.812  22.319 -0.2514 -0.0075 -0.1615
17867W        W60920  33.077  31.584  24.782  0.1394  0.1421  0.0862
17868W        W60921   5.835  16.100  14.951 -0.0215  0.2785 -0.2102
17869W        W60922   6.097  30.916  25.909  0.0669  0.3496 -0.0956
17870W        W60923   2.349  32.225  21.757  0.0569  0.1522  0.2305
17871W        W60924  33.835   0.539  14.542  0.1553  0.0792  0.0502
17872W        W60925  33.070  27.053  18.308  0.0395  0.3283 -0.0000
17873W        W60926   3.090  10.337  23.609  0.2173 -0.1603  0.1924
17874W        W60927  23.871   2.343   0.892 -0.2934  0.1427  0.1764
17875W        W60928  30.256  29.529  19.421 -0.2996  0.1971 -0.0969
17876W        W60929   0.358  23.662  24.747 -0.1652 -0.0679  0.0504
17877W        W60930   8.258  28.690  27.240  0.4291 -0.1388 -0.1408
17878W        W60931  15.101  13.533  23.880 -0.0324  0.0539  0.0563
17879W        W60932  34.008  20.090  15.405 -0.3248 -0.0402 -0.0865
17880W        W60933   2.472  20.481  16.626 -0.0418 -0.1992 -0.1403
17881W        W60934   3.979  34.590  18.283 -0.0027 -0.2187  0.0564
17882W        W60935   0.457  25.794  16.610  0.1332  0.2762 -0.1701
17883W        W60936  30.072  23.778   2.793  0.1796 -0.0055  0.2252
17884W        W60937   3.678   7.153   0.215 -0.0627  0.0931 -0.1619
17885W        W60938   4.165  21.397  21.153  0.0958  0.1382  0.0331
17886W        W60939  34.503  31.655  26.684  0.0069 -0.0377 -0.0784
17887W        W60940   3.659  19.570  21.022 -0.0460 -0.0433  0.3101
17888W        W60941   1.992  32.166  14.895  0.0952 -0.0644 -0.0283
17889W        W60942   2.355   1.670  28.196 -0.0251  0.0294 -0.0491
17890W        W60943  12.113   2.010  16.069 -0.1619  0.1744 -0.2548
17891W        W60944   3.591  34.118  17.972 -0.3072 -0.1446 -0.2727
17892W        W60945  20.413   3.481  20.525  0.0780 -0.0864  0.1652
17893W        W60946   6.325  29.179  23.693 -0.0315 -0.3338 -0.0737
17894W        W60947   7.151   0.378  16.851 -0.0933  0.1254 -0.0670
17895W        W60948  29.628  26.970  28.754  0.1326  0.1851 -0.0577
17896W        W60949  27.809   4.702  25.242  0.1474 -0.3090 -0.0838
17897W        W60950  14.035  24.153  13.875  0.3133  0.1300  0.5002
17898W        W60951   6.234  33.699  19.355 -0.0649  0.1329  0.1616
17899W        W60952  30.356  23.911  19.502 -0.0225  0.1744 -0.0505
17900W        W60953  28.936  25.895   1.430  0.1961  0.0753 -0.0132
17901W        W60954   6.785  30.300   1.115 -0.3287  0.2004  0.0054
17902W        W60955   2.296  25.057   0.504 -0.1269  0.1378 -0.2723
17903W        W60956  23.042  10.766  18.743 -0.1361 -0.0494 -0.2274
17904W        W60957   5.301  28.522  15.131  0.0026 -0.3813  0.0049
17905W        W60958   4.537  21.605  13.831 -0.3135 -0.0495  0.2581
17906W        W60959   5.229  27.117  20.824 -0.0664  0.3127 -0.1993
17907W        W60960   1.817  26.038  17.209  0.0316 -0.0347 -0.1230
17908W        W60961  29.109  21.797  18.372  0.2358 -0.1361  0.1419
17909W        W60962  32.496  32.021  20.320  0.1691  0.0429  0.0592
17910W        W60963  33.057   3.220  16.738 -0.3260  0.1058 -0.1986
17911W        W60964   1.899  28.403  13.953 -0.2404  0.1843 -0.1757
17912W        W60965  22.186   9.830  23.624  0.1151 -0.0915 -0.0552
17913W        W60966  14.197  33.186  14.279 -0.1311  0.0732  0.3296
17914W        W60967  33.978   5.633  20.126  0.1755 -0.1089  0.1321
17915W        W60968   2.936  33.095  28.570  0.2851 -0.0516  0.0955
17916W        W60969  13.786  19.316  14.393  0.2543  0.3810  0.2288
17917W        W60970  33.081  30.591  20.950 -0.3852 -0.2012  0.2453
17918W        W60971  13.628   7.425  27.154  0.0499 -0.1047  0.0051
17919W        W60972   1.751   4.771   2.802 -0.0171  0.0245  0.0272
17920W        W60973  30.353   8.773   7.475 -0.0758  0.0908  0.2040
17921W        W60974  12.329  23.443  25.306  0.0023  0.1601 -0.0915
17922W        W60975   5.044  28.176  25.245  0.1390  0.0100  0.0369
17923W        W60976   5.132  21.716  25.172  0.0582 -0.0528  0.1376
17924W        W60977   3.607  30.232   4.822  0.2398 -0.0669  0.0309
17925W        W60978  34.373   3.566   7.365  0.1095 -0.0472 -0.0473
17926W        W60979   9.839   3.061  17.869  0.2675  0.1811 -0.3321
17927W        W60980  11.272  15.658  18.604  0.2341  0.0688 -0.4251
17928W        W60981  15.467  24.542  18.492  0.0302 -0.0354 -0.0369
17929W        W60982   9.172  11.843  24.615 -0.0900  0.1271  0.0229
17930W        W60983   8.205   5.083  20.096  0.0622 -0.0460 -0.0946
17931W        W60984   6.977  10.434  20.086 -0.2100 -0.0093  0.0531
17932W        W60985   1.954  13.593   3.354  0.1159  0.0108  0.0619
17933W        W60986  15.667  26.480  26.317 -0.0159  0.2843 -0.1968
17934W        W60987  21.100  22.261  28.915 -0.0134 -0.0252 -0.1057
17935W        W60988   2.738   2.309  24.839 -0.1157 -0.1374  0.0135
17936W        W60989  32.207  23.864  18.706 -0.1297  0.3026 -0.0389
17937W        W60990   1.057  14.332   3.815 -0.2175  0.1647 -0.0581
17938W        W60991  10.275  33.700  18.098 -0.0705 -0.1795 -0.0476
17939W        W60992   4.823  33.943  22.974 -0.0217 -0.3384 -0.1447
17940W        W60993   2.470  34.237   0.758  0.1636  0.0285  0.2421
17941W        W60994  28.445   2.683  22.756  0.2470 -0.1778  0.1356
17942W        W60995  31.770   2.321   3.180 -0.0658 -0.1812 -0.0248
17943W        W60996   4.161  22.264   1.831  0.0910 -0.0028 -0.0358
17944W        W60997  26.875   6.289  23.149  0.1207 -0.0784  0.0855
17945W        W60998   8.412  26.250  20.250  0.1650 -0.3668 -0.1332
17946W        W60999  18.014  33.990  17.008 -0.0073  0.3527 -0.2210
17947W        W61000   6.484  26.045  18.079 -0.0299 -0.1487 -0.1407
17948W        W61001   8.845  30.543  22.990  0.0083 -0.1353  0.1723
17949W        W61002  29.285  27.843  19.817 -0.4470 -0.1495 -0.0319
17950W        W61003  23.096  21.932  20.576  0.1857  0.0318 -0.3182
17951W        W61004  10.036  32.299  18.326  0.0796 -0.0231 -0.1593
17952W        W61005  33.163  29.512   2.677 -0.2200 -0.1875 -0.0159
17953W        W61006   2.342  33.878   1.178  0.1647  0.0546 -0.0732
17954W        W61007   4.408  18.764  14.818  0.0394  0.0941  0.0545
17955W        W61008  32.878  23.903  16.112 -0.1868  0.3104 -0.2479
17956W        W61009   2.540  16.718   6.201 -0.0617  0.1432  0.6094
17957W        W61010   9.163  20.270  28.367 -0.0243 -0.2354  0.0093
17958W        W61011  21.340  21.227   9.012  0.1066 -0.0647  0.1034
17959W        W61012  30.119   9.626   7.661  0.1944  0.2276 -0.0403
17960W        W61013   2.691  34.419  18.338  0.2291  0.0673 -0.1498
17961W        W61014  28.316  17.635  24.592 -0.0409 -0.1398  0.2517
17962W        W61015   5.318   4.536   0.430  0.0543 -0.1339  0.0857
17963W        W61016  30.543  28.331  15.777  0.0949  0.1028  0.4031
17964W        W61017   1.691   0.603  24.351  0.2186 -0.0102 -0.2109
17965W        W61018  13.176  19.103  18.947  0.0009 -0.1994  0.0884
17966W        W61019   7.176   6.346  16.432 -0.3475  0.2390  0.3866
17967W        W61020  27.423  15.572  24.054 -0.2613  0.1405 -0.2194
17968W        W61021  14.164  23.883  23.049  0.0126  0.2136 -0.0843
17969W        W61022   3.051  33.564  20.233  0.1224 -0.1115 -0.1045
17970W        W61023  12.629  28.970  19.416  0.5204 -0.1924 -0.0287
17971W        W61024   9.889  33.879  15.933  0.0884  0.0733  0.1099
17972W        W61025  26.333  24.907   5.713 -0.3253 -0.3219 -0.2239
17973W        W61026  27.088  27.638  18.716 -0.1270  0.0079  0.1823
17974W        W61027  25.006   4.577  27.114 -0.2475  0.3761 -0.0178
17975W        W61028  14.255  22.080  20.485  0.1031  0.2246 -0.1122
17976W        W61029  12.404   1.445  17.134  0.1285  0.0481  0.1464
17977W        W61030   0.102  30.863   8.717 -0.0988  0.0320 -0.0156
17978W        W61031  20.631  29.820   3.210 -0.0180  0.0092  0.1899
17979W        W61032   2.828  14.304  19.856 -0.1549 -0.0647 -0.0484
17980W        W61033  28.858  12.596  24.239 -0.4337  0.0456 -0.0247
17981W        W61034   9.369  22.905  20.440  0.0718  0.0248  0.0353
17982W        W61035  11.726   1.108  20.972  0.0039 -0.3072  0.3779
17983W        W61036  32.750  10.116  20.473  0.1624 -0.1447  0.0247
17984W        W61037   9.004  29.448  25.527 -0.3457 -0.1221 -0.0442
17985W        W61038  19.065   0.741  15.331 -0.3326  0.1258 -0.1540
17986W        W61039   1.417  15.258   0.516  0.1041  0.2702  0.0756
17987W        W61040   0.696  29.581  14.655  0.2081 -0.1764 -0.1862
17988W        W61041   9.284  12.846   8.579  0.2052  0.0034  0.0507
17989W        W61042   4.563  30.174  23.331  0.2641  0.4718  0.1816
17990W        W61043   8.397  23.395  15.121  0.1642  0.0670  0.0692
17991W        W61044  22.615   0.047  16.787 -0.1876 -0.3351  0.0728
17992W        W61045   7.015  24.496  14.655 -0.1064 -0.3436  0.0944
17993W        W61046   0.786   2.826   4.538 -0.0535  0.0462  0.3775
17994W        W61047  31.639   5.781  18.744 -0.1482  0.1758 -0.3630
17995W        W61048  30.966  25.278  20.887  0.4088  0.0667 -0.2051
17996W        W61049  12.299   1.304  23.241 -0.0330  0.2438  0.1538
17997W        W61050   2.426   4.868  25.194  0.2517  0.1733 -0.1241
17998W        W61051   6.640  29.593  17.906 -0.1992  0.1647  0.1538
17999W        W61052  32.935   9.132  26.739 -0.0457  0.1735 -0.0786
18000W        W61053  31.557  11.049   0.154 -0.1023 -0.0128  0.1655
18001W        W61054  22.704   6.039  15.271  0.2443  0.0102  0.0986
18002W        W61055  19.902  23.611  28.883  0.0665  0.2901  0.0623
18003W        W61056  17.348   6.337  17.380 -0.1230 -0.3840  0.0841
18004W        W61057  14.393  27.512  20.316  0.5619 -0.0906 -0.0587
18005W        W61058  31.369   1.091  21.640  0.1079  0.1737  0.0968
18006W        W61059  14.366  27.973  21.342 -0.2419  0.1921  0.1528
18007W        W61060   5.853   7.680  14.312 -0.2001 -0.3095 -0.0959
18008W        W61061  12.314  28.532   0.015  0.1097 -0.6290  0.2094
18009W        W61062   4.461  33.507  22.141 -0.2038  0.2649 -0.0008
18010W        W61063   2.171  14.319  17.215  0.0491 -0.0653  0.1837
18011W        W61064  29.531  32.050  19.078 -0.2139 -0.0088 -0.1428
18012W        W61065   4.790  28.364  21.125 -0.2297 -0.1851 -0.1582
18013W        W61066  13.381  29.411  29.169  0.2002  0.1470 -0.2092
18014W        W61067  32.421   7.685  20.345 -0.2267 -0.1079 -0.1694
18015W        W61068   4.783  13.585  15.059 -0.0574 -0.0162 -0.1016
18016W        W61069  31.924  15.698  20.900  0.2125 -0.2464 -0.2031
18017W        W61070  12.457   1.758  18.097 -0.0702 -0.0163  0.1164
18018W        W61071  31.888  22.730  19.121  0.3666  0.2375 -0.0825
18019W        W61072   0.131   4.800  22.953  0.1089 -0.1771  0.0157
18020W        W61073  34.332  28.719  14.344 -0.0955  0.0533  0.1854
18021W        W61074  34.424   4.176  17.757  0.4164 -0.1433 -0.0543
18022W        W61075  29.102  28.032  14.506 -0.0208  0.0820 -0.2316
18023W        W61076  18.882   2.558  28.178  0.3998 -0.3142  0.1106
18024W        W61077   4.129  10.185  24.248 -0.3143 -0.0410 -0.0450
18025W        W61078  25.344  23.332  15.287  0.0282  0.0252 -0.0634
18026W        W61079  14.932  30.633  24.159 -0.3253  0.0871  0.0918
18027W        W61080  24.127  21.308  24.776  0.2266  0.0348  0.1720
18028W        W61081   4.017  18.005  28.149  0.0789 -0.2244  0.1077
18029W        W61082  34.553  22.887  15.654 -0.1617  0.2971  0.0852
18030W        W61083  13.241   8.726   0.606  0.0846 -0.2184 -0.1210
18031W        W61084   3.142  28.721  21.457  0.1013 -0.0530 -0.2449
18032W        W61085  34.607  18.312  22.642 -0.0783 -0.0320 -0.1906
18033W        W61086   5.383  34.441  14.187 -0.1266  0.1840  0.1141
18034W        W61087   4.816  33.357  27.997  0.2476  0.0134  0.4121
18035W        W61088  19.860  33.629   9.032  0.2228  0.2717  0.1524
18036W        W61089   7.268   2.186  27.673 -0.1424 -0.0992  0.0576
18037W        W61090  17.762  31.144  23.114 -0.0459 -0.2862 -0.2324
18038W        W61091   9.935  33.473  26.357 -0.0587  0.2583 -0.1587
18039W        W61092  31.795  18.739  16.426 -0.1510  0.1288 -0.0401
18040W        W61093  22.980  22.596   1.078 -0.2577 -0.0721 -0.0572
18041W        W61094   4.763  23.894  19.370  0.0519 -0.2820  0.2185
18042W        W61095   2.542  28.185  14.973  0.0786 -0.0750 -0.6075
18043W        W61096   1.278   5.432  25.515  0.1360  0.2546 -0.2694
18044W        W61097  26.043   6.771  19.397 -0.0242  0.4054 -0.1409
18045W        W61098  26.124  25.621   1.439  0.2544  0.0645  0.0719
18046W        W61099  28.237  12.286  22.884 -0.1362  0.2041  0.0450
18047W        W61100   3.993   3.317  16.489  0.3220 -0.1827 -0.1011
18048W        W61101   1.484   4.527  16.807 -0.1300 -0.1450 -0.1839
18049W        W61102   7.992  14.380  29.030  0.0406  0.0317  0.1254
18050W        W61103  20.281   6.545  27.145  0.2525  0.5480  0.3013
18051W        W61104  26.524  30.627  26.245 -0.2371 -0.0512  0.0039
18052W        W61105  21.668  31.769  19.973  0.3055  0.0935 -0.1172
18053W        W61106  20.857  23.286  28.938  0.0386 -0.1626  0.3960
18054W        W61107  10.231   8.959  23.036 -0.0082 -0.0279 -0.3415
18055W        W61108   3.440  31.489  23.309  0.2027  0.0388  0.0370
18056W        W61109   7.636  32.466  26.656 -0.1982 -0.1864 -0.0993
18057W        W61110  32.362  11.173  19.931  0.0147  0.1381 -0.5072
18058W        W61111  28.386  34.544  16.805 -0.0400 -0.3243  0.3476
18059W        W61112  27.357   6.823  28.915 -0.0594 -0.1525 -0.0876
18060W        W61113   0.365   4.363  28.235 -0.1585  0.0709  0.0880
18061W        W61114   0.431  23.384  17.610  0.0367 -0.2783 -0.3818
18062W        W61115  31.332   9.490  16.481 -0.0170 -0.0980  0.3446
18063W        W61116   3.920  25.660  22.978  0.5075  0.2005  0.0577
18064W        W61117  33.376  13.687  15.925  0.1581  0.2130  0.2754
18065W        W61118  28.765   0.762  21.437 -0.2590 -0.2207 -0.1561
18066W        W61119   4.379  28.945  26.395 -0.2688  0.2038  0.0621
18067W        W61120  24.172  31.760  13.763 -0.0374 -0.3310  0.0029
18068W        W61121  10.045  24.437  25.731  0.0258  0.2368 -0.0115
18069W        W61122   1.799  19.876   7.790 -0.2426 -0.3069 -0.1422
18070W        W61123   3.518   2.678   9.553 -0.3113 -0.4747 -0.1008
18071W        W61124  14.561  23.090  17.137  0.0010  0.3037  0.3277
18072W        W61125   3.616  34.409  15.329  0.1949  0.2974  0.1648
18073W        W61126  12.555   6.791  16.328 -0.0139  0.0562 -0.0140
18074W        W61127   3.857  13.868  15.950  0.0752 -0.1403 -0.0436
18075W        W61128  33.421   8.814   3.722 -0.0751  0.0551 -0.2648
18076W        W61129   5.302  18.409  26.814 -0.2084  0.2729  0.0584
18077W        W61130  34.123  29.865  14.172  0.3661 -0.3159 -0.0813
18078W        W61131   2.693  26.143  23.972 -0.0592  0.2969  0.3397
18079W        W61132   5.992   9.283   6.808 -0.0933  0.3488 -0.0026
18080W        W61133  30.675  13.029  27.393 -0.0416 -0.2885  0.4012
18081W        W61134  34.518  26.058  18.922 -0.3605 -0.1298 -0.0338
18082W        W61135  23.386   2.386   2.194 -0.2688 -0.2624  0.0376
18083W        W61136  32.570   9.634  16.960  0.0624 -0.2325  0.0212
18084W        W61137  14.843  31.506  14.701  0.3335  0.1419  0.3425
18085W        W61138  10.595  13.834  14.748 -0.3690  0.0984  0.1072
18086W        W61139  10.129  33.690   7.121  0.0280  0.1719  0.0637
18087W        W61140   5.659  28.229  24.484  0.2369 -0.2078 -0.2140
18088W        W61141   5.421  27.457  15.905 -0.0663  0.2845  0.1516
18089W        W61142   9.930   3.172  15.367  0.1380 -0.1862  0.0376
18090W        W61143   2.237   9.821  24.797 -0.2656  0.1570  0.1109
18091W        W61144   6.813  22.029  27.775  0.2893  0.0185 -0.1240
18092W        W61145   9.712  24.850  22.784 -0.1735  0.3147  0.1451
18093W        W61146   1.322  26.541  25.795 -0.0232 -0.1640 -0.1168
18094W        W61147   3.833  34.264  18.614 -0.2981 -0.1591 -0.2804
18095W        W61148  17.692   6.955  22.892 -0.3207  0.0091  0.1083
18096W        W61149   1.734  23.010  24.806  0.2230 -0.1499 -0.2645
18097W        W61150  33.680  30.508  15.791 -0.1564 -0.1087  0.0464
18098W        W61151  27.022  30.793  22.006  0.0780  0.2433 -0.2837
18099W        W61152  11.035  23.858  22.471  0.0742 -0.0866  0.0478
18100W        W61153  14.078  18.395  27.591  0.1686  0.2977 -0.3256
18101W        W61154  29.342  24.567   5.664  0.1390 -0.2457 -0.0327
18102W        W61155  26.793  21.478  19.340 -0.2926  0.1899 -0.0083
18103W        W61156  29.866   7.545  25.694  0.3281 -0.1380 -0.1329
18104W        W61157  15.685   0.645  24.279 -0.2835 -0.0395 -0.2195
18105W        W61158  11.714  30.764  21.783  0.1704  0.1298 -0.0597
18106W        W61159  30.703   3.813  19.824  0.0847 -0.1169  0.0306
18107W        W61160   6.796  26.727   9.229 -0.1933 -0.5894 -0.1110
18108W        W61161  34.327  17.807  18.416 -0.0198 -0.1158  0.0213
18109W        W61162  16.826   0.110  19.315  0.2663 -0.1396  0.1355
18110W        W61163   0.258   9.096   6.309  0.1609 -0.0973 -0.2162
18111W        W61164   4.053  25.149  18.193 -0.1264  0.0274  0.3404
18112W        W61165   3.335   2.188   9.047  0.0406  0.3009 -0.0378
18113W        W61166  30.482  23.577   4.105 -0.0231  0.2097  0.2705
18114W        W61167  12.983  31.890   6.188  0.0348  0.0785  0.0026
18115W        W61168   9.768  28.639   1.285  0.0958  0.1787 -0.0223
18116W        W61169  23.283  32.787  26.639  0.0226 -0.0709 -0.0938
18117W        W61170   3.389  16.336   1.957 -0.1628  0.0001 -0.2160
18118W        W61171  12.002  32.987  22.327 -0.1927 -0.0455 -0.3593
18119W        W61172  32.846  27.544  27.961  0.0026  0.2204 -0.1051
18120W        W61173   7.899  23.464  20.102  0.2062 -0.0653  0.0833
18121W        W61174  17.553   5.651  16.048 -0.0383 -0.0443 -0.0843
18122W        W61175  17.845  10.454  23.106 -0.2497 -0.1595  0.1386
18123W        W61176   1.854  25.793  21.331 -0.1093  0.2699  0.1648
18124W        W61177   3.633  29.685   1.114  0.2031  0.2102  0.2476
18125W        W61178  25.207  18.535   1.400  0.3305 -0.0719  0.1237
18126W        W61179   6.028   2.672  17.715  0.1038  0.1354  0.1546
18127W        W61180   8.617  11.178  19.259  0.0985 -0.0964 -0.0012
18128W        W61181   4.103  15.766  20.956 -0.0164 -0.1568  0.0991
18129W        W61182  12.333  31.938  21.277  0.1553  0.0350 -0.3084
18130W        W61183   2.638   0.409   2.409 -0.1515 -0.2416  0.0781
18131W        W61184  12.091   5.260   2.499 -0.0838 -0.0777 -0.1785
18132W        W61185  33.198   7.660  17.343  0.3569  0.0972  0.2351
18133W        W61186  20.428  30.541  16.020 -0.1759 -0.1070  0.1735
18134W        W61187  33.768  31.375  28.139 -0.0126 -0.1778  0.2443
18135W        W61188   0.170  24.527  26.336  0.0142  0.1493 -0.3306
18136W        W61189   6.275  23.970  25.263 -0.0736 -0.1110 -0.0127
18137W        W61190   9.989  14.595   7.784  0.1519 -0.1581 -0.1004
18138W        W61191  11.115   2.503  28.344  0.0642  0.3384  0.0458
18139W        W61192  33.673  26.444  25.436  0.0965  0.1417 -0.1027
18140W        W61193   4.002  17.018   8.409  0.1567  0.2741 -0.2232
18141W        W61194   9.504  16.295  15.672 -0.0729  0.3678 -0.1344
18142W        W61195   3.786  18.456  20.599  0.0902 -0.1449  0.1047
18143W        W61196  17.321  30.688  10.259 -0.1002 -0.1403 -0.3253
18144W        W61197  12.520  29.314  17.922  0.2352 -0.0505  0.0190
18145W        W61198  10.499  32.115  23.104  0.0399  0.2644 -0.0096
18146W        W61199   8.696  28.650   4.025 -0.2402 -0.0289 -0.0293
18147W        W61200   0.998  25.862  13.826  0.0929 -0.5974  0.0182
18148W        W61201   8.657  34.439  27.731 -0.4791 -0.2057  0.2809
18149W        W61202  29.286   3.155  22.287 -0.1004  0.1081  0.0804
18150W        W61203  12.631  29.621  25.240  0.0703 -0.2320  0.0379
18151W        W61204  19.535   7.708   4.105  0.1805 -0.1236  0.0569
18152W        W61205  25.370   2.221  14.185  0.3084  0.0771  0.2834
18153W        W61206  10.617   6.394   8.162  0.0374 -0.0301 -0.0892
18154W        W61207   8.629  29.326  24.665  0.1229  0.1196  0.3846
18155W        W61208  13.033  22.292   3.583  0.0364  0.0540  0.1024
18156W        W61209   1.986   5.075   0.534  0.3854 -0.2004 -0.0670
18157W        W61210  16.364  11.916   2.537 -0.0177  0.2022 -0.2350
18158W        W61211   7.061  26.173   3.243  0.1509  0.1339  0.0411
18159W        W61212  14.581  21.502  14.627 -0.1123  0.1033  0.2259
18160W        W61213  27.945   7.716  20.676 -0.0084  0.4768 -0.4157
18161W        W61214   9.022  31.066  27.227  0.3200  0.0610 -0.2967
18162W        W61215   6.021  12.902   9.620  0.1072  0.3212  0.1602
18163W        W61216  25.807  16.869  26.878 -0.1851 -0.1882 -0.2065
18164W        W61217  27.345  33.822  20.057  0.0281  0.1167  0.1748
18165W        W61218  34.635   4.362  25.057  0.0652 -0.1429  0.1956
18166W        W61219   1.318  24.052  28.001 -0.1321  0.1058  0.0835
18167W        W61220  13.193  27.520  18.941  0.0148  0.0670 -0.0541
18168W        W61221   3.328   9.441  17.751  0.0495  0.1113  0.0327
18169W        W61222   8.047  28.670  24.769 -0.0226  0.1391 -0.0115
18170W        W61223  27.453  34.208  19.298 -0.0638 -0.1179  0.0486
18171W        W61224  12.520  21.990   0.108  0.0703  0.0903  0.0599
18172W        W61225  27.797  28.084  14.456 -0.1635 -0.2914  0.0357
18173W        W61226  13.939  34.078  20.878 -0.0495 -0.3421 -0.1802
18174W        W61227  14.552  11.026  26.892  0.0858  0.0342  0.2647
18175W        W61228  10.246  26.247   8.924 -0.0798  0.2132  0.4828
18176W        W61229   3.145  33.913  25.024  0.0616 -0.1179  0.1884
18177W        W61230  10.984  13.703   0.277  0.0406 -0.2141  0.1482
18178W        W61231  28.151  29.059  15.599  0.1177  0.2709  0.1195
18179W        W61232  21.713   3.015   0.815 -0.1308  0.0441 -0.0035
18180W        W61233  34.247  11.276  16.476 -0.0928 -0.1924 -0.0334
18181W        W61234  28.192   8.062  15.423 -0.1848 -0.0972  0.0325
18182W        W61235   2.149  20.075  20.252 -0.1380 -0.2260  0.2239
18183W        W61236   6.662  26.480  16.630  0.2492 -0.0904 -0.0351
18184W        W61237   9.102  16.540  15.642  0.2523  0.3161 -0.0405
18185W        W61238  12.593  32.606  14.622  0.1147  0.0050  0.0642
18186W        W61239  32.802   4.437  17.416  0.1891  0.0845  0.0662
18187W        W61240  18.813  24.829  28.305 -0.1911  0.1194 -0.2229
18188W        W61241   7.612  26.052   4.684  0.1596  0.2090  0.0896
18189W        W61242  17.002  12.230  23.633  0.2811 -0.0851  0.2154
18190W        W61243  23.056  21.508  15.033 -0.2935  0.2409 -0.2242
18191W        W61244  31.505  24.479  15.728  0.0728 -0.2438  0.2621
18192W        W61245   4.024   3.328  23.367 -0.1544  0.3485 -0.4733
18193W        W61246   1.159  26.459  23.161  0.2166  0.1756 -0.1409
18194W        W61247  27.327  27.834  19.156 -0.0426 -0.0514 -0.0839
18195W        W61248  12.888  18.020  17.010 -0.2408  0.0728 -0.1625
18196W        W61249  10.252  17.584  19.716  0.4260  0.2026 -0.0488
18197W        W61250   9.686  32.676   0.213 -0.0356  0.2085  0.0417
18198W        W61251   7.662  31.858  17.239  0.2602  0.0200  0.1707
18199W        W61252  34.380  34.594  21.176  0.2788 -0.2015  0.1882
18200W        W61253  19.825   3.654   0.913 -0.0339  0.0296  0.1480
18201W        W61254  14.622  33.381  14.385  0.0997 -0.2128 -0.0403
18202W        W61255  30.395   1.765   7.495 -0.0072 -0.0104  0.0628
18203W        W61256  32.627  10.252  16.180 -0.3477  0.3215  0.0066
18204W        W61257   8.704  25.138  21.833  0.3604  0.0921  0.1196
18205W        W61258  29.808  14.104  21.108  0.1126  0.0756 -0.0002
18206W        W61259   5.349  24.604   1.780 -0.1126  0.0447  0.4653
18207W        W61260  12.981   4.811  18.813 -0.1455  0.2213 -0.2909
18208W        W61261  18.557  21.934  16.434 -0.3510 -0.0411 -0.3041
18209W        W61262  12.616  27.047  19.580 -0.2510 -0.3664 -0.2072
18210W        W61263   7.319  22.267   0.773 -0.1929 -0.1430 -0.2632
18211W        W61264  31.204  32.673  21.438 -0.1020 -0.0294  0.1605
18212W        W61265  27.480  13.461   5.849 -0.1694 -0.0346  0.3133
18213W        W61266  13.402  23.729  25.910 -0.0122  0.1388  0.0719
18214W        W61267  18.781  34.080  23.438 -0.3751 -0.0910 -0.0596
18215W        W61268  26.928  10.033  19.670  0.2124 -0.2320  0.1209
18216W        W61269  11.908   6.687  26.708 -0.1089 -0.0569  0.0420
18217W        W61270  32.271  26.344  23.845 -0.1890 -0.4392  0.1213
18218W        W61271   6.026  21.194  27.658 -0.0327 -0.1671  0.0404
18219W        W61272  18.795   4.263  15.877 -0.4153 -0.0408  0.0767
18220W        W61273  27.724  22.519  17.918  0.1301 -0.1207 -0.3240
18221W        W61274  21.073  25.753   5.761  0.0114 -0.0118  0.0324
18222W        W61275  33.025   4.723   1.249 -0.0349  0.3212  0.3041
18223W        W61276  31.470   3.162  22.231  0.1060 -0.1203  0.3935
18224W        W61277  19.126  13.148   9.466  0.1555 -0.0629  0.3421
18225W        W61278   6.306  29.085   2.994 -0.2218  0.3235 -0.2445
18226W        W61279  28.262  31.151   3.626  0.0729  0.0031  0.0044
18227W        W61280   7.014  21.560  24.920 -0.2495  0.0856 -0.2165
18228W        W61281   8.081   0.482  20.011 -0.1031  0.2382  0.1274
18229W        W61282   1.243  28.654  13.531  0.1151  0.1553 -0.2120
18230W        W61283   3.303   0.606  21.798  0.0754  0.2771 -0.2103
18231W        W61284  19.498   1.420  19.340  0.1413  0.1502  0.2815
18232W        W61285  30.586  20.941  23.039 -0.0780  0.1076 -0.1407
18233W        W61286  25.007  29.648  19.778  0.0368  0.2249 -0.1350
18234W        W61287   0.313  27.001  20.612  0.1145 -0.0190  0.1694
18235W        W61288   5.013  13.281  17.780  0.0153  0.2042  0.3342
18236W        W61289  15.766  28.289  14.840 -0.0391 -0.2724  0.3974
18237W        W61290  24.619  32.132  23.319  0.1112 -0.2222  0.4519
18238W        W61291   5.246  24.253  23.043  0.2738 -0.1892 -0.0996
18239W        W61292  28.762  10.219  20.179 -0.0212  0.3252 -0.1288
18240W        W61293  17.721   5.326   0.901  0.0749  0.0943  0.0976
18241W        W61294   1.761   0.572  17.743 -0.2746  0.0096  0.1908
18242W        W61295   0.167   9.742   0.221  0.2846 -0.0642 -0.0495
18243W        W61296   2.646   4.999   4.548 -0.0110  0.2981 -0.0065
18244W        W61297  32.425  33.760   6.610 -0.1315 -0.0451 -0.1771
18245W        W61298  27.483   0.207  15.892  0.2901 -0.0494 -0.0938
18246W        W61299   3.074  23.252   1.405 -0.0752  0.0150  0.1866
18247W        W61300  25.797   2.671  18.923  0.3836 -0.1134 -0.3743
18248W        W61301  21.959   9.816  27.141 -0.1964 -0.0055 -0.0402
18249W        W61302  25.307  26.276  22.567  0.0606 -0.1475  0.2260
18250W        W61303   5.979  33.591   7.339 -0.1469 -0.0321  0.0313
18251W        W61304  11.013  23.753   5.733  0.0173 -0.0008  0.1708
18252W        W61305   1.583   2.774  22.571 -0.0879 -0.2092  0.1428
18253W        W61306  32.384  13.439  15.188 -0.1117  0.0182  0.0245
18254W        W61307  32.330   2.816   3.814  0.2021  0.0447 -0.0222
18255W        W61308  32.970   4.945  14.593 -0.0437  0.2171  0.0531
18256W        W61309  11.365  25.889  25.902 -0.0163  0.1683  0.2716
18257W        W61310  34.378   0.650  25.409  0.0358 -0.1415 -0.0929
18258W        W61311   8.699   1.918   5.357 -0.4188 -0.1076 -0.1616
18259W        W61312   8.062  34.428  21.599  0.0040  0.2446  0.1252
18260W        W61313  23.073  16.252  25.823 -0.2244  0.0217  0.2386
18261W        W61314   6.102   2.884  28.230  0.1888  0.1168  0.1991
18262W        W61315   3.005  17.736  25.708 -0.0045  0.2336 -0.1842
18263W        W61316   8.486  33.318  16.579  0.0798  0.0529  0.2387
18264W        W61317  30.258  28.117  23.429  0.2909 -0.2229  0.2877
18265W        W61318  13.514   2.870  23.834  0.0403 -0.2505  0.0773
18266W        W61319  24.809   5.830  21.676 -0.0856 -0.3819  0.2063
18267W        W61320  16.177  34.343  22.447  0.0919  0.0831  0.1230
18268W        W61321  10.163  34.570  23.521  0.0277  0.0724  0.3566
18269W        W61322  16.666  11.850   2.059 -0.3127  0.3200  0.0401
18270W        W61323   3.405   7.857   1.829 -0.2377 -0.0602 -0.0352
18271W        W61324  31.175  34.541  22.440 -0.0615 -0.0319 -0.3352
18272W        W61325  31.174  33.003  13.628 -0.0680  0.2252 -0.0967
18273W        W61326  14.446  23.630  18.950 -0.0739  0.1177  0.1125
18274W        W61327  24.048  15.178  20.512  0.0375  0.3240 -0.2356
18275W        W61328  15.559   0.412   3.342 -0.2885  0.2391  0.2117
18276W        W61329   9.584  32.731   2.607 -0.0362 -0.1249  0.0822
18277W        W61330  31.781  28.887   2.574 -0.0348 -0.1408  0.1780
18278W        W61331  29.346   2.601  24.347  0.1009  0.5071 -0.1816
18279W        W61332   5.885  25.610  24.358 -0.1481  0.0071  0.2503
18280W        W61333   0.155  22.367  16.063  0.1390  0.1823 -0.0771
18281W        W61334  27.428  23.951  23.800  0.0231  0.3126  0.0206
18282W        W61335  20.694  34.511  19.498  0.0946  0.1774 -0.2077
18283W        W61336  33.381  14.587  28.147 -0.0825 -0.0883 -0.0210
18284W        W61337  11.990  31.542  15.034  0.2517  0.0496  0.1111
18285W        W61338  32.336  14.458   3.309 -0.0566  0.2258 -0.0061
18286W        W61339   4.755  20.002   2.348 -0.2072 -0.2955 -0.0118
18287W        W61340  14.172  30.552   0.103 -0.0790 -0.0509 -0.0742
18288W        W61341  31.679   9.382   1.605 -0.2137  0.1202  0.2658
18289W        W61342   8.133  14.484  17.555 -0.2121 -0.0131 -0.0814
18290W        W61343  12.134  33.952  21.894  0.1605 -0.1761 -0.1616
18291W        W61344  30.748  34.541   4.842 -0.3030  0.0592 -0.2523
18292W        W61345   9.183   6.263  19.138  0.2168  0.2005 -0.0563
18293W        W61346   3.755  32.743  14.929  0.1109  0.4247 -0.1722
18294W        W61347  11.899  10.509  25.060 -0.0829 -0.0339 -0.0499
18295W        W61348  27.605   4.927   4.700 -0.0527 -0.4068  0.1400
18296W        W61349  12.189  13.931   4.321  0.1251 -0.2420  0.2901
18297W        W61350  10.854   2.421   2.251  0.4598 -0.0644  0.2480
18298W        W61351   7.530  17.651   7.609 -0.1356 -0.1243  0.0151
18299W        W61352   0.168  29.658  16.342  0.2804  0.0865  0.0097
18300W        W61353  27.350  34.298  21.133  0.3170 -0.2780  0.3771
18301W        W61354  30.474   6.599   9.232 -0.0984 -0.0199 -0.0852
18302W        W61355  11.100  27.762  25.246  0.0216 -0.1232 -0.1769
18303W        W61356  17.691  31.529  24.819 -0.2143 -0.1015 -0.0190
18304W        W61357  29.204   4.871  10.090 -0.0085 -0.2877  0.1986
18305W        W61358  34.399   4.962  16.598  0.0326 -0.1602 -0.2305
18306W        W61359  29.900  14.399  28.655  0.0947 -0.1479  0.1998
18307W        W61360  11.451  19.730  28.835  0.2281 -0.0921  0.2627
18308W        W61361  31.328   0.305  28.725 -0.0248  0.1809 -0.2676
18309W        W61362  30.174  33.661  25.281 -0.2908  0.2390 -0.1743
18310W        W61363  33.018  12.776  28.943  0.2331 -0.2845 -0.0502
18311W        W61364  20.023   8.181  17.008 -0.1838  0.2539  0.1537
18312W        W61365  31.019  30.345  16.238  0.1297 -0.2249  0.0628
18313W        W61366   4.922  19.161  24.136 -0.3723  0.1716  0.1772
18314W        W61367   9.195  27.307  16.166  0.1419  0.0140 -0.2735
18315W        W61368   3.183  30.488  16.445 -0.2063  0.0266 -0.2217
18316W        W61369   1.163  24.407  20.759  0.0602 -0.0843 -0.0360
18317W        W61370  15.865  27.112  20.941 -0.1460  0.1888  0.0310
18318W        W61371   5.026  31.643  13.624  0.1687  0.3463 -0.2715
18319W        W61372  13.356   3.334  21.142 -0.0996 -0.2174 -0.0940
18320W        W61373  21.202  28.366  27.179 -0.0069 -0.1669 -0.1008
18321W        W61374   0.683  19.477  27.383 -0.1244  0.0172  0.0209
18322W        W61375  15.328  32.692  22.329  0.0180 -0.1050  0.2577
18323W        W61376  28.113  22.634  19.653  0.2782  0.3416  0.2702
18324W        W61377  16.588  13.733  25.373  0.1438  0.2715 -0.1727
18325W        W61378  13.965  31.118   3.351  0.0771  0.3904  0.1634
18326W        W61379   3.818   5.120  22.950  0.1367  0.1708 -0.2157
18327W        W61380   2.520  23.464  21.674  0.0072  0.2306  0.2032
18328W        W61381  25.118  27.703  24.002  0.3370 -0.1527  0.1738
18329W        W61382   2.302  23.838  20.715  0.0602 -0.0608  0.1907
18330W        W61383  30.295  24.353  23.373  0.3857 -0.3293  0.1668
18331W        W61384  33.352   6.041  17.633  0.2278  0.1950 -0.1830
18332W        W61385  26.008   3.440   1.753  0.1874 -0.2823  0.0044
18333W        W61386  27.037  31.026  13.819  0.0514  0.0538 -0.0908
18334W        W61387  10.795  10.208   4.576  0.0549  0.1503  0.0833
18335W        W61388  32.384  20.254  15.448 -0.1853  0.0691  0.3742
18336W        W61389   6.154  27.856   7.199  0.1985  0.0500 -0.0364
18337W        W61390   2.877  24.801  17.006  0.0089 -0.1043  0.4449
18338W        W61391   2.608   4.945  19.538 -0.0408 -0.1596 -0.1957
18339W        W61392   1.363   0.021  28.704 -0.0295 -0.0964 -0.1250
18340W        W61393  13.867  33.958  25.572 -0.0718 -0.1469 -0.2494
18341W        W61394  21.350   2.517  26.908  0.2873  0.2647 -0.0247
18342W        W61395  31.956  31.808  28.496  0.2122 -0.2125 -0.3196
18343W        W61396  10.154  29.213  28.503 -0.1541  0.1070  0.1615
18344W        W61397  28.931   1.023  18.572 -0.1823  0.5650  0.0026
18345W        W61398   5.935   3.705  24.103  0.0590  0.3186  0.0493
18346W        W61399   2.177  32.144  20.810  0.2529  0.0875 -0.0447
18347W        W61400  19.974   0.521  27.157  0.0623  0.0092 -0.1303
18348W        W61401  31.773  34.240   1.179 -0.0706 -0.0359 -0.0353
18349W        W61402   8.438   7.335  19.012 -0.2587 -0.1169 -0.0324
18350W        W61403  11.415  29.699  19.938  0.2979 -0.0065 -0.1014
18351W        W61404  33.478  29.578  22.410 -0.0585  0.4137  0.2548
18352W        W61405  27.636  32.549   6.889  0.2868 -0.1540 -0.0376
18353W        W61406   6.725  32.182  22.031 -0.2295 -0.1064 -0.0322
18354W        W61407  17.861  29.437  19.559  0.1317 -0.0369  0.0267
18355W        W61408  32.399   0.615  23.055  0.0768  0.0524 -0.3947
18356W        W61409   7.858  23.329  28.735 -0.1278  0.2764 -0.2178
18357W        W61410  31.055   1.284   1.440 -0.0619  0.2226  0.0547
18358W        W61411  10.588   1.543  25.097  0.4031 -0.0363 -0.0416
18359W        W61412   5.077   4.861   2.795  0.1315  0.0440 -0.1312
18360W        W61413  13.983  23.926  18.725 -0.0550 -0.2924  0.0610
18361W        W61414  34.295  16.524  24.100  0.0216  0.0730 -0.0859
18362W        W61415   2.240  31.488  22.381  0.2345 -0.0555  0.5181
18363W        W61416  33.458   6.449  23.388  0.0265  0.2369 -0.2238
18364W        W61417  11.603  31.973  18.751  0.1301  0.5704 -0.5531
18365W        W61418  28.649  23.307  18.906 -0.0738  0.1369  0.2418
18366W        W61419   1.732  22.863  22.527  0.2013  0.3784  0.2583
18367W        W61420   3.638  18.756  28.684 -0.1530  0.1121 -0.0252
18368W        W61421  34.378  27.429  17.950 -0.1246  0.1591  0.1724
18369W        W61422  10.158  34.680  14.938  0.0701  0.1616 -0.1412
18370W        W61423   7.658   2.106  15.792 -0.1149  0.2918  0.0687
18371W        W61424  20.053   3.891   3.816  0.1674  0.4387  0.0460
18372W        W61425  16.297  31.233   4.408 -0.0602 -0.1755  0.1419
18373W        W61426   3.300   0.556  25.829  0.0047 -0.2948 -0.1937
18374W        W61427  33.321   7.912  16.867  0.2947 -0.0153  0.1414
18375W        W61428  34.131  11.008  15.596  0.0775 -0.1408 -0.0171
18376W        W61429   2.266   0.998  14.131  0.0311  0.0113  0.0266
18377W        W61430   4.935   5.989  27.987  0.3399  0.1074 -0.3417
18378W        W61431  32.120  30.243   7.082 -0.4676 -0.3927  0.1324
18379W        W61432   6.534   5.035  28.609  0.2207 -0.1054  0.3345
18380W        W61433  34.264  31.085  16.867  0.0723  0.1275  0.3656
18381W        W61434  11.866  14.180   1.890  0.0151 -0.1248  0.1653
18382W        W61435   5.790  11.479  15.735 -0.1108 -0.0235  0.1794
18383W        W61436  27.160  32.326  18.372  0.2454 -0.1353 -0.3282
18384W        W61437  23.473  32.547  21.831  0.0747  0.1715  0.0457
18385W        W61438  21.505   1.048  18.174  0.0226 -0.0052 -0.0729
18386W        W61439   5.334   7.988   7.772 -0.0344 -0.2712  0.3760
18387W        W61440  19.873   7.354  24.185  0.0093  0.3052  0.0424
18388W        W61441  27.058   0.603  22.372 -0.0594 -0.0288 -0.0210
18389W        W61442  17.099  21.587  26.420 -0.2278  0.1947 -0.0465
18390W        W61443   1.583  13.483  15.149 -0.1378  0.1035  0.1614
18391W        W61444  16.794  33.984  20.647 -0.1860 -0.4222  0.0358
18392W        W61445  32.286  31.348   1.769 -0.0754  0.0183  0.1994
18393W        W61446  27.900  25.379   4.776  0.1617  0.0239 -0.0651
18394W        W61447  33.005  34.343   1.006  0.4590  0.0752 -0.1261
18395W        W61448  25.312  32.653  23.028 -0.1163  0.5075 -0.3212
18396W        W61449   6.178  33.591  27.517  0.0696 -0.1358 -0.0380
18397W        W61450  30.321  28.871  27.235  0.0957  0.0640 -0.3566
18398W        W61451   6.170  30.064  19.936  0.3358  0.1840  0.0609
18399W        W61452  34.462   2.979  20.640  0.2447 -0.1500  0.1741
18400W        W61453   0.107   8.943  21.094  0.0728 -0.2281 -0.0632
18401W        W61454   1.998   2.714  20.683  0.1829 -0.0993  0.0739
18402W        W61455  10.086  30.546  13.991  0.0170 -0.1173 -0.0007
18403W        W61456  10.459   7.586  23.671  0.0014 -0.0238  0.3817
18404W        W61457   0.432  28.852   2.912 -0.1666  0.2949 -0.1914
18405W        W61458  33.677  28.914  19.561 -0.0340 -0.2377  0.1691
18406W        W61459  11.180   2.432  23.723  0.1954 -0.1254  0.1567
18407W        W61460   1.799  24.963  19.926 -0.1021  0.1530 -0.3323
18408W        W61461  32.165  19.432  25.896 -0.1813 -0.0285 -0.0148
18409W        W61462  31.932   8.410  15.118 -0.2504  0.1605  0.2743
18410W        W61463  10.511  16.380  14.786  0.3651  0.0815  0.1025
18411W        W61464  20.522  17.875  25.810 -0.0617 -0.2683 -0.3713
18412W        W61465  18.274  24.702  19.229 -0.0139 -0.3274 -0.1604
18413W        W61466   4.353  23.137  24.171 -0.2903  0.1638  0.0878
18414W        W61467   4.327   4.716  17.861  0.0260  0.1055 -0.0265
18415W        W61468  15.971  32.974  18.253 -0.1232 -0.0033  0.1919
18416W        W61469  29.895   5.254  14.710  0.1920 -0.1556  0.0725
18417W        W61470   4.704  22.938  13.333 -0.2224 -0.1594  0.0706
18418W        W61471  20.730  29.397  28.256 -0.0180  0.0423 -0.1850
18419W        W61472   6.455  33.519  26.471  0.3539  0.0522  0.1428
18420W        W61473   6.993  31.063  16.680  0.0307  0.1043  0.1232
18421W        W61474  11.085   2.342  15.643  0.1326  0.0800 -0.1310
18422W        W61475   5.201  22.467   5.406  0.0218  0.1132 -0.1023
18423W        W61476  16.563   1.748  16.164  0.0487  0.1981 -0.1383
18424W        W61477  28.392   2.150  20.981  0.2264  0.0547  0.0864
18425W        W61478  27.032   6.653  27.602  0.0401 -0.2991 -0.0140
18426W        W61479   1.899  33.722  19.068 -0.0081  0.0327 -0.0168
18427W        W61480   6.247  26.982   9.810  0.1818  0.0397 -0.1152
18428W        W61481   1.809  28.016  15.971 -0.0038  0.0918  0.0707
18429W        W61482   5.979  24.990  16.754  0.4516 -0.4225  0.1924
18430W        W61483   7.213   5.385  17.528  0.0701  0.0633  0.1411
18431W        W61484  25.279  30.901  24.410  0.2582 -0.0163  0.1051
18432W        W61485   8.145   5.036  22.100 -0.0193 -0.1693 -0.1468
18433W        W61486   2.068  16.879   1.599 -0.0451 -0.0821  0.0049
18434W        W61487  31.495  19.976   6.850 -0.0963 -0.0778  0.3373
18435W        W61488  11.207   4.730   7.953 -0.1307 -0.0605 -0.1283
18436W        W61489   6.945  31.591  24.298  0.2874 -0.1433  0.0792
18437W        W61490  24.059  19.256   6.508  0.1611 -0.1957  0.0702
18438W        W61491  27.524  20.607  28.043  0.0336  0.1061  0.0507
18439W        W61492   4.136   9.018  18.512 -0.3396  0.1599 -0.0333
18440W        W61493   7.733   0.330  23.979 -0.0787 -0.2053 -0.1267
18441W        W61494   0.141   0.140  20.340  0.0589  0.0643 -0.1120
18442W        W61495   9.054  29.683   9.658  0.2316 -0.2247  0.2576
18443W        W61496   4.950   3.133  17.977  0.1322  0.0261 -0.0074
18444W        W61497   2.782  31.067   4.937  0.0267 -0.1001  0.1029
18445W        W61498  11.937   2.458  18.048  0.1817  0.0858 -0.1092
18446W        W61499   6.302   9.488   8.591  0.0402  0.0583 -0.1579
18447W        W61500  12.114  23.092  21.471 -0.0151  0.3620 -0.0010
18448W        W61501   8.029   9.151   1.568 -0.0462 -0.0917  0.0232
18449W        W61502  32.026  31.777   2.003 -0.1479 -0.0215 -0.1852
18450W        W61503  13.701   8.202   1.059 -0.1429  0.1364 -0.1036
18451W        W61504  16.898   6.736  26.722  0.1369 -0.1373  0.0371
18452W        W61505   3.459   9.810   4.896 -0.0637 -0.0582  0.1528
18453W        W61506   3.244   9.546  18.275  0.2269 -0.1998  0.2569
18454W        W61507  25.961  17.874  24.288 -0.1770 -0.0066  0.3136
18455W        W61508  34.408   7.398   2.603 -0.0125  0.2625 -0.0878
18456W        W61509   1.720  28.284  15.552  0.0497 -0.2825 -0.0961
18457W        W61510  12.777  31.136  16.071  0.0413 -0.2984 -0.2785
18458W        W61511  28.181   1.067   1.871 -0.3693 -0.0955  0.2990
18459W        W61512   3.768   8.298   1.565 -0.2212  0.2170  0.2317
18460W        W61513  19.159  22.515  24.372 -0.0074 -0.0035 -0.0070
18461W        W61514  32.208  32.789  24.164 -0.2750  0.3039 -0.2366
18462W        W61515   7.722  30.673  20.343 -0.1921 -0.0507 -0.0957
18463W        W61516  34.671  11.388  19.094  0.3703  0.3723 -0.3514
18464W        W61517   7.376  31.517  23.338  0.1005 -0.0122  0.0795
18465W        W61518  30.830   4.858  25.952 -0.0103  0.1121  0.0590
18466W        W61519  16.696  26.013  24.504 -0.1096 -0.0569 -0.1627
18467W        W61520   7.251  33.850   8.056 -0.1746  0.1128 -0.0312
18468W        W61521   4.267  30.183  27.111 -0.2485 -0.0095  0.1214
18469W        W61522  31.953  17.642  22.088  0.0603  0.1393  0.0507
18470W        W61523   4.209   0.395  16.872  0.0813 -0.4126 -0.0673
18471W        W61524  15.595   5.487   0.834  0.0231 -0.0355  0.1813
18472W        W61525  32.094   6.161   3.459  0.1142  0.1711 -0.0875
18473W        W61526   6.078   1.061  23.094  0.0719  0.1027  0.1756
18474W        W61527  30.304   0.574  17.082 -0.1310 -0.0838  0.0091
18475W        W61528   9.375   5.675  24.531  0.2078  0.2927  0.3252
18476W        W61529   7.837  25.377  26.414 -0.1089  0.4740  0.0853
18477W        W61530  32.176   5.362  24.659 -0.1003 -0.0933 -0.1884
18478W        W61531   9.070   8.777  18.519 -0.1473  0.0911  0.0941
18479W        W61532  33.105   2.270   2.798  0.2604 -0.0982 -0.1382
18480W        W61533   2.020  30.303  20.360 -0.1904 -0.1641  0.0304
18481W        W61534  17.294  34.494  19.769  0.0473  0.2321 -0.0723
18482W        W61535  24.688   8.393   1.488 -0.5409 -0.3862 -0.3699
18483W        W61536  32.899   1.222  15.208 -0.0889 -0.0482  0.0413
18484W        W61537   1.009  30.061  16.778 -0.1456  0.0940  0.0066
18485W        W61538  33.726  11.189  28.986  0.1519  0.1578  0.1534
18486W        W61539  33.701  29.399  25.538  0.0447  0.2545 -0.0181
18487W        W61540   9.763  12.242  14.678 -0.2005 -0.0430  0.3402
18488W        W61541  31.355   1.431  13.977 -0.1898  0.0767  0.0716
18489W        W61542   2.798   2.454  29.008 -0.2125  0.1680  0.4203
18490W        W61543  32.793  11.975  19.739  0.4025  0.0443  0.3482
18491W        W61544  15.571  32.965  22.760  0.0540  0.0642  0.2398
18492W        W61545   5.418  14.564  18.106  0.1733  0.1287  0.3824
18493W        W61546  18.225   6.587   8.195  0.1263  0.0844  0.4058
18494W        W61547  34.042  27.376   4.932 -0.0947 -0.1943  0.0323
18495W        W61548   2.695   1.120  14.352 -0.0162  0.0569 -0.0620
18496W        W61549  25.885   5.676   0.103  0.0378 -0.0885  0.0492
18497W        W61550  26.531  10.190  15.905  0.4581  0.3670 -0.2162
18498W        W61551  19.384  17.692  15.604  0.2246  0.0407  0.0437
18499W        W61552  31.725  30.072  18.910  0.0769 -0.0746 -0.1805
18500W        W61553  22.403   7.820   0.492  0.0855 -0.1206  0.0944
18501W        W61554  22.782  26.941  27.076 -0.1378 -0.2714  0.0248
18502W        W61555  15.009  18.320  28.619  0.3622  0.0204 -0.0442
18503W        W61556  32.932   3.385   6.302  0.1577 -0.0909 -0.0830
18504W        W61557  33.071  12.560  22.949  0.0291 -0.4341 -0.1876
18505W        W61558   2.026   7.773  20.820 -0.1450 -0.2754 -0.0015
18506W        W61559  13.416  31.405   1.790  0.0418 -0.2499  0.0125
18507W        W61560  10.537  32.894  21.558 -0.1281  0.1499  0.3137
18508W        W61561   6.998  29.559  13.875 -0.3441 -0.0030 -0.3043
18509W        W61562   9.840  29.026   2.893 -0.1003 -0.0029 -0.3481
18510W        W61563   0.536  27.341   1.245 -0.1147  0.2205  0.2748
18511W        W61564  32.843  21.120  27.082 -0.0458  0.0073  0.2533
18512W        W61565  19.335  33.859   7.007 -0.0457 -0.0279  0.1300
18513W        W61566  25.692   6.770  19.752  0.4406 -0.0517 -0.1305
18514W        W61567  27.977  32.696  16.385  0.1783 -0.0260  0.3368
18515W        W61568  11.775  28.742   1.273  0.3048 -0.1988 -0.2690
18516W        W61569   6.473  25.638  26.284 -0.0987 -0.0192 -0.1349
18517W        W61570  15.398  32.337   7.889 -0.0371  0.0739  0.1324
18518W        W61571  31.234  24.961   4.066 -0.0885 -0.0748 -0.0785
18519W        W61572  21.107  34.505  26.247  0.0465  0.0621 -0.0506
18520W        W61573  17.139  32.664  15.965  0.0003 -0.0474 -0.1073
18521W        W61574  30.520   0.329   9.536 -0.0342  0.0660 -0.0703
18522W        W61575   9.410   2.272  24.849  0.2173 -0.0684 -0.2781
18523W        W61576   9.766   5.291  19.033 -0.0688  0.1762 -0.1176
18524W        W61577   2.633  16.307  19.878  0.2587 -0.0835  0.0225
18525W        W61578   6.238  12.137   9.518 -0.0193  0.0684  0.1957
18526W        W61579   1.896  32.806  21.441 -0.2845 -0.1598 -0.0414
18527W        W61580  30.932  25.047  24.855 -0.1345 -0.3862  0.0143
18528W        W61581  29.336   3.716  23.119 -0.3464 -0.0365  0.1447
18529W        W61582  27.893  21.898  28.582  0.0889 -0.1310  0.0119
18530W        W61583  13.774   3.914  19.514  0.3786  0.1204  0.3745
18531W        W61584   4.741   8.974  26.102 -0.1267 -0.1491 -0.1198
18532W        W61585  22.136  27.177  20.913 -0.3713  0.0493 -0.2299
18533W        W61586   5.393   4.448   0.906  0.3262 -0.1226 -0.0303
18534W        W61587  23.151  30.962  19.435 -0.0022  0.0943  0.0732
18535W        W61588  31.502  27.650  23.441 -0.0048 -0.2214  0.0934
18536W        W61589   0.045   4.987  22.054  0.2676 -0.0732 -0.1922
18537W        W61590   3.712  33.285  29.007  0.0873 -0.1901  0.0524
18538W        W61591  11.687  21.185  25.567 -0.0824 -0.1691 -0.0976
18539W        W61592  28.227   4.420   0.280  0.1430 -0.1439 -0.0533
18540W        W61593   0.582   4.713   4.393 -0.1839 -0.0825  0.0924
18541W        W61594   1.847  17.520   2.653 -0.1130  0.0987  0.1271
18542W        W61595  27.299  31.078  14.424 -0.3001 -0.2457  0.0073
18543W        W61596  25.054  19.658   2.405 -0.0601  0.1630  0.2536
18544W        W61597  30.141  20.855  24.342  0.3535 -0.2805 -0.3687
18545W        W61598  12.774  31.744   3.128  0.2518  0.1025 -0.2375
18546W        W61599  28.971   0.513   3.268 -0.0038 -0.3800  0.1256
18547W        W61600   9.818  26.604  23.363 -0.0317 -0.0829  0.1483
18548W        W61601  31.962   3.352  23.704  0.0532 -0.3211 -0.0954
18549W        W61602  26.909   0.201  18.496 -0.1747  0.0608  0.2488
18550W        W61603  11.792  30.381   1.295  0.1063  0.0627 -0.0627
18551W        W61604  31.364  28.308  18.444  0.0978  0.0120  0.2095
18552W        W61605   6.039  28.770  20.008  0.2563 -0.2348 -0.0333
18553W        W61606  17.552  32.570  15.011  0.3605  0.1051  0.0304
18554W        W61607   5.150   5.294  15.452  0.3629 -0.0042  0.0932
18555W        W61608  12.349   6.534  25.419 -0.1395  0.1186 -0.0035
18556W        W61609  29.958  19.802  22.687 -0.0842 -0.1314 -0.3470
18557W        W61610  15.225  32.629  15.640  0.0698 -0.0631 -0.2728
18558W        W61611  11.655  24.306  27.168 -0.0555 -0.0898  0.1592
18559W        W61612  24.585  11.168   3.011  0.1721 -0.3907 -0.0827
18560W        W61613   2.396  11.110   1.670  0.0708 -0.3351  0.2081
18561W        W61614  27.813   6.675  22.248  0.1297  0.0299  0.1340
18562W        W61615  16.200  29.087   3.509  0.0581  0.1710  0.3551
18563W        W61616  18.520  30.975  24.103  0.0273  0.0448  0.0152
18564W        W61617   3.541  22.154  17.982  0.1149 -0.0773  0.0052
18565W        W61618   7.159  24.669   9.093 -0.0530 -0.1064 -0.2855
18566W        W61619  28.552  28.442  27.047 -0.2226  0.0710 -0.3738
18567W        W61620  31.402  20.354   1.995 -0.0414  0.2346 -0.0915
18568W        W61621  32.863  31.347  20.896  0.2005  0.3374 -0.1492
18569W        W61622  27.195  25.131   0.886 -0.1752  0.0722 -0.0440
18570W        W61623  32.749  18.277   1.649  0.2390  0.1049 -0.1773
18571W        W61624  33.064  32.558  16.154 -0.0130 -0.0591 -0.2229
18572W        W61625   3.253   3.477  24.512 -0.0368 -0.1904  0.1778
18573W        W61626  33.482  10.208  28.675  0.1820  0.0846  0.2854
18574W        W61627  18.195  10.474   2.339  0.1803 -0.4314  0.1839
18575W        W61628   5.068  20.455   5.445 -0.3222 -0.0653 -0.1149
18576W        W61629  25.044  17.726  16.798 -0.3357 -0.0253  0.0487
18577W        W61630  28.464  10.148   6.992  0.0884  0.0610 -0.1662
18578W        W61631   0.995  20.852   3.491 -0.2742  0.2454 -0.1200
18579W        W61632   2.847   4.049  21.595  0.0013  0.2192 -0.3629
18580W        W61633  25.728   8.638  14.459  0.2860 -0.3047  0.2034
18581W        W61634  16.171  33.656   1.940  0.0022  0.4259 -0.0726
18582W        W61635  25.435  19.220  28.091  0.0203  0.2553  0.0951
18583W        W61636  26.830  25.317   6.462  0.0445  0.5121  0.0879
18584W        W61637   8.090  21.914   7.604  0.0753  0.0486 -0.0244
18585W        W61638  31.459   2.359  25.422  0.1170  0.3924  0.2101
18586W        W61639  32.338   4.427  26.855  0.1103 -0.3302  0.0912
18587W        W61640  26.906   6.655  25.412 -0.1473  0.0538 -0.0347
18588W        W61641  21.302  33.363  14.592 -0.0972  0.2231 -0.0024
18589W        W61642  28.730  21.577  23.820 -0.4050 -0.0195  0.3486
18590W        W61643  19.743   2.928  28.442  0.1220  0.0560 -0.0269
18591W        W61644  25.805   3.196   7.878 -0.3082 -0.0405  0.2945
18592W        W61645  11.319   2.295  25.825  0.1892  0.0145 -0.0063
18593W        W61646  24.696  20.202  21.708  0.1781 -0.0722 -0.3515
18594W        W61647  30.951  31.968  15.807  0.0945  0.2516  0.0071
18595W        W61648  13.654  33.688  26.801 -0.4141  0.2166 -0.1613
18596W        W61649  16.066  25.888   8.030 -0.1949 -0.0533  0.2550
18597W        W61650   3.433   6.497  16.430  0.5403 -0.1479 -0.1408
18598W        W61651  17.319  25.209  17.430 -0.3532 -0.1281  0.4653
18599W        W61652  33.188  34.310   2.038 -0.0383 -0.0279  0.1092
18600W        W61653  10.295  13.624  27.299  0.0649 -0.1573 -0.1671
18601W        W61654  11.505  28.606  20.770  0.0446 -0.0288 -0.1314
18602W        W61655   4.051   9.384   1.485 -0.0859 -0.1720  0.1109
18603W        W61656   2.129   5.877   5.942 -0.0164 -0.1421 -0.1407
18604W        W61657  20.053  22.891  26.282  0.2943  0.0672  0.1292
18605W        W61658  14.908  27.583   8.543  0.3871 -0.2029  0.0255
18606W        W61659   1.679  26.365   2.643  0.1757  0.1046 -0.0100
18607W        W61660  20.615  32.202  18.006  0.0173  0.3048 -0.1338
18608W        W61661   4.545  17.866   3.296 -0.1295 -0.2094  0.3638
18609W        W61662  21.017  28.434  26.324 -0.1725 -0.1472 -0.1390
18610W        W61663   5.966  31.207   3.166 -0.0556 -0.1482 -0.1125
18611W        W61664  19.231  28.784   0.556 -0.1527 -0.1148  0.1625
18612W        W61665   9.091  25.743  18.495 -0.2030 -0.1398  0.0462
18613W        W61666  30.193   6.664   6.382 -0.3659 -0.0659 -0.1691
18614W        W61667   9.761  23.209   5.139 -0.0187 -0.0376 -0.1194
18615W        W61668  30.444   7.340   7.357  0.0783 -0.1325 -0.0071
18616W        W61669  10.149  21.930   8.751 -0.0004 -0.0035 -0.2196
18617W        W61670  22.381  28.706  24.684 -0.0882 -0.1117  0.0264
18618W        W61671   6.218   5.761  27.711  0.2815  0.3019  0.1457
18619W        W61672  26.617   1.916  29.025  0.0506 -0.2206 -0.3170
18620W        W61673  28.757   4.944  28.864 -0.2301 -0.0786 -0.2272
18621W        W61674  23.277  33.065   9.225 -0.0604 -0.0032  0.4254
18622W        W61675  14.863  11.964  25.188 -0.2172 -0.1423  0.2422
18623W        W61676   5.051  33.789  14.640 -0.0136 -0.1279  0.3612
18624W        W61677   9.603   4.366  16.884  0.1084 -0.0389 -0.1551
18625W        W61678  19.197   6.543  26.729  0.2131  0.1348 -0.2066
18626W        W61679  20.455  14.337   9.570  0.0144  0.0011 -0.3103
18627W        W61680  30.125  30.591  28.270 -0.2252  0.1234 -0.0650
18628W        W61681   3.060  19.680  20.638  0.2053 -0.1445 -0.1170
18629W        W61682   2.969  12.064  25.575  0.2171 -0.0592  0.0561
18630W        W61683   6.084  18.236   1.755  0.0128 -0.0043  0.1295
18631W        W61684   7.650   6.561  22.681 -0.2161  0.3312  0.0823
18632W        W61685   1.252   0.788   4.895 -0.0325  0.0029  0.1804
18633W        W61686  31.948  26.296  16.796  0.1918 -0.0897  0.2458
18634W        W61687   5.936  24.214   6.770  0.1108 -0.2489  0.2353
18635W        W61688   0.556  27.178  21.587 -0.1400 -0.1260  0.1053
18636W        W61689  22.222  20.596   8.522  0.2442  0.3752  0.2548
18637W        W61690  28.579   8.597  27.795 -0.1066  0.0981  0.0756
18638W        W61691   8.837  25.033   5.512  0.5033 -0.3050 -0.0970
18639W        W61692  32.299  22.043  23.343  0.0277  0.0934 -0.3135
18640W        W61693  33.357  14.683  27.642 -0.1920 -0.1291 -0.0603
18641W        W61694   6.215   5.357   1.129 -0.0870 -0.1319  0.1183
18642W        W61695   2.507  32.608  23.994  0.2453  0.2090  0.1440
18643W        W61696  24.428  23.134  19.165 -0.4231 -0.0871 -0.2205
18644W        W61697  27.129  22.746   6.714  0.0742  0.1899 -0.1575
18645W        W61698  34.447   0.626   1.303  0.2206  0.2239  0.0108
18646W        W61699   7.411  25.643   1.541  0.0910  0.1019 -0.2500
18647W        W61700  21.368   2.060   6.847 -0.1426  0.4262 -0.1034
18648W        W61701  20.786   0.402  25.331  0.1657  0.4295  0.1275
18649W        W61702  15.714   8.758  25.983 -0.1715 -0.2265  0.2041
18650W        W61703  29.311  24.622  28.352  0.2233  0.2027 -0.1083
18651W        W61704   6.865  26.298   6.903  0.3555  0.1304 -0.4935
18652W        W61705   9.657  19.149  15.698  0.0997 -0.2081  0.1202
18653W        W61706   3.860  23.919  25.984 -0.0615  0.0597 -0.0107
18654W        W61707  24.440  34.012  27.491 -0.3264  0.1722  0.0158
18655W        W61708  19.688   1.437  19.846  0.0504  0.3199 -0.3473
18656W        W61709   8.878  31.754  22.274  0.0147 -0.1370 -0.2176
18657W        W61710   5.051   4.947   3.292 -0.0402 -0.2633  0.1298
18658W        W61711  34.419  32.872  26.610  0.2009  0.1521  0.2338
18659W        W61712  30.879   8.740  27.608  0.2726 -0.0836 -0.1098
18660W        W61713  10.797  19.947   7.110 -0.3295  0.0427  0.1598
18661W        W61714  32.864  29.134  28.835 -0.2396 -0.0004 -0.0201
18662W        W61715   5.210  25.927   4.735 -0.2010 -0.1678 -0.0119
18663W        W61716  13.811   1.773   8.847 -0.2416  0.0387 -0.1120
18664W        W61717  29.161   0.916  21.175 -0.2624 -0.0484  0.1295
18665W        W61718  11.429   0.072   7.207  0.0459 -0.1227  0.1444
18666W        W61719   6.504  29.359   4.743  0.0618 -0.4959 -0.0432
18667W        W61720   2.222   9.675  22.637  0.1945  0.1018 -0.0437
18668W        W61721  34.118   2.204  23.391 -0.0863 -0.0011 -0.0962
18669W        W61722   2.253   3.271  16.713  0.1125  0.0080  0.0367
18670W        W61723   6.212  18.304  27.553  0.2486  0.1597 -0.0375
18671W        W61724  33.856   0.378  27.015 -0.1495  0.2901  0.2485
18672W        W61725  27.395  19.033   5.655 -0.3022 -0.0629 -0.0948
18673W        W61726  32.322   2.099   7.401 -0.1864 -0.1956 -0.1712
18674W        W61727  11.334   6.215   0.213 -0.2900  0.0445 -0.1594
18675W        W61728   0.637  25.338  22.267  0.3707 -0.2894 -0.0303
18676W        W61729  30.848  25.927  25.261 -0.0297 -0.1480  0.1573
18677W        W61730  12.695  30.831  27.395  0.0827  0.2722  0.1671
18678W        W61731  24.875   2.668  17.985  0.3190 -0.2086 -0.1422
18679W        W61732  30.278  12.453  18.958 -0.2206 -0.1199  0.0315
18680W        W61733  28.778   5.708  15.908 -0.4156 -0.0484  0.1377
18681W        W61734   8.116  14.687  22.197 -0.2177 -0.3987 -0.1240
18682W        W61735  27.842  23.882  21.066  0.1711  0.5002 -0.2867
18683W        W61736  20.122  10.927  24.906 -0.0499 -0.0819 -0.0113
18684W        W61737  30.745  25.433  25.115 -0.1129 -0.0554 -0.1282
18685W        W61738  25.357   1.148   5.240 -0.0106  0.1594  0.0194
18686W        W61739  16.215  32.674  17.089 -0.1215  0.0433 -0.0893
18687W        W61740  22.283  32.879  28.870 -0.2239  0.0999 -0.1808
18688W        W61741   6.753   6.432  24.298 -0.2099  0.1643  0.1271
18689W        W61742   2.089  30.788   0.444 -0.3713  0.1782  0.0655
18690W        W61743  33.073  31.383   6.663  0.2195  0.1169  0.2284
18691W        W61744  33.786   3.771   2.019  0.2573  0.0939 -0.0018
18692W        W61745  30.707  20.201   8.108  0.5625 -0.1243  0.2544
18693W        W61746   0.406  28.404  19.381 -0.0020 -0.2855 -0.0005
18694W        W61747   1.543  24.898  26.094  0.1231 -0.2329 -0.0146
18695W        W61748  14.678  32.450   3.757  0.3059 -0.1113  0.1426
18696W        W61749   0.823   4.541   3.918  0.1539  0.2209 -0.0118
18697W        W61750  18.262  30.994  25.754 -0.2204 -0.0378  0.2877
18698W        W61751  33.969  32.463  21.864 -0.1331 -0.1593 -0.0013
18699W        W61752  25.684  28.249  23.310 -0.0963  0.2316  0.1416
18700W        W61753   4.150  26.223  24.796 -0.2742 -0.0391 -0.2665
18701W        W61754  29.354  25.125  28.599  0.0773  0.0638  0.3828
18702W        W61755  24.571   1.689  25.628  0.0103  0.1112 -0.6095
18703W        W61756   3.248   4.306   5.487  0.0772 -0.2952 -0.1087
18704W        W61757   5.260  32.489  26.471  0.1346 -0.0730  0.1504
18705W        W61758  22.768  18.929   7.553 -0.0735  0.0765  0.1578
18706W        W61759  29.884   2.134   3.695  0.0421  0.1501  0.1924
18707W        W61760  34.449   3.540   2.629 -0.1209 -0.1956 -0.3295
18708W        W61761   6.511  20.774   1.677 -0.1176  0.0434  0.1185
18709W        W61762   3.161  17.243  25.548 -0.2703 -0.2689  0.0856
18710W        W61763  32.555  27.031   6.220 -0.0843  0.1815 -0.1066
18711W        W61764  16.008  16.868  24.305 -0.3675  0.0996  0.1548
18712W        W61765  25.901   7.249   4.534  0.1592  0.2516  0.2222
18713W        W61766  29.868  13.797  21.529 -0.3440  0.0905  0.1478
18714W        W61767  20.041  32.440  27.449  0.0861  0.0225 -0.1504
18715W        W61768   5.206  32.578   1.590  0.0537 -0.0011  0.2037
18716W        W61769  32.776  29.363  25.240 -0.1581  0.0049  0.1411
18717W        W61770  17.506   5.480  27.733  0.0824  0.0709 -0.1826
18718W        W61771   8.103  19.809   7.027 -0.0218  0.0477 -0.1004
18719W        W61772  10.407  18.173  27.636  0.1761 -0.3049  0.0733
18720W        W61773   1.362  29.468   2.282  0.0964 -0.2095  0.0290
18721W        W61774   6.003  29.057   4.230  0.0828 -0.1812  0.1601
18722W        W61775  25.547   9.332   4.138  0.1761  0.1026  0.0072
18723W        W61776  23.805  27.907  19.482  0.7035 -0.3022  0.0485
18724W        W61777   1.357  18.222  27.774  0.0566  0.2470  0.2405
18725W        W61778   7.177   2.319   8.478 -0.1741  0.1533 -0.1964
18726W        W61779  12.250  34.037   0.310 -0.1507  0.1228  0.0459
18727W        W61780   7.139  33.473   5.922 -0.1144 -0.1202  0.2084
18728W        W61781  28.025  14.407  21.355  0.0343  0.4171  0.1456
18729W        W61782  27.341  17.142   6.302  0.1552 -0.0926  0.2233
18730W        W61783  20.242   0.883   3.914 -0.1846  0.1022 -0.1384
18731W        W61784  10.262   0.263   2.787  0.1872  0.2561  0.1564
18732W        W61785   1.318  32.827  19.767  0.1582 -0.1742  0.1402
18733W        W61786  10.963  17.910   6.216 -0.2360 -0.0049 -0.0615
18734W        W61787  24.697  31.046  14.864 -0.0137  0.1741 -0.3173
18735W        W61788  12.513   0.671  27.235 -0.1752 -0.0302 -0.1793
18736W        W61789  30.625  29.394   0.383  0.0234  0.0195  0.0946
18737W        W61790  31.015  12.313  15.311 -0.2829 -0.2482 -0.2852
18738W        W61791  33.968   5.988  10.194 -0.2161  0.0003 -0.5029
18739W        W61792  15.126  34.570  29.075  0.3032 -0.0169  0.0885
18740W        W61793   7.575  33.709  24.819  0.1080  0.0554  0.1194
18741W        W61794  33.028   0.062   6.851 -0.1106  0.1306  0.0858
18742W        W61795  24.313   0.549   4.319 -0.0395 -0.0675 -0.0032
18743W        W61796  33.908   5.110  24.926  0.1409  0.1088 -0.2396
18744W        W61797  21.908  34.144   2.702  0.3037 -0.1288  0.3174
18745W        W61798   6.643   3.327  25.206 -0.1749  0.0502  0.1657
18746W        W61799   7.230  31.421   7.170 -0.1085 -0.2862 -0.3477
18747W        W61800   8.943  22.471  18.904 -0.1392  0.1901  0.1671
18748W        W61801  27.007  14.624  16.698  0.3416 -0.4766 -0.1023
18749W        W61802  32.112  30.128   3.896 -0.0115  0.1626  0.0833
18750W        W61803   1.700   7.355   2.192 -0.0018 -0.0855 -0.1276
18751W        W61804  11.413  32.640  28.622  0.0553  0.1642  0.0587
18752W        W61805   8.567  17.124  22.413 -0.0169 -0.0381  0.3274
18753W        W61806   6.715   1.709  26.601 -0.0002 -0.1636 -0.1149
18754W        W61807   3.047  31.512  22.957 -0.1825  0.2194  0.0263
18755W        W61808   5.460  21.099   8.711 -0.2101  0.1022 -0.1637
18756W        W61809  22.756  31.412  27.681 -0.0635  0.2656 -0.0136
18757W        W61810  13.468  25.838  17.809 -0.0645  0.0721  0.2454
18758W        W61811  24.729   2.833  26.624 -0.0962 -0.0666  0.0893
18759W        W61812   5.339  10.439  20.746 -0.0895 -0.0401 -0.1697
18760W        W61813   5.942  30.603  26.217  0.3717 -0.3253  0.2241
18761W        W61814  11.132  32.284  27.022 -0.0143  0.0987 -0.1724
18762W        W61815  13.465  22.355  27.051  0.0099  0.0224  0.3489
18763W        W61816  17.908   0.069  22.159 -0.1737  0.1994 -0.2080
18764W        W61817  11.842  26.174   3.490 -0.3727 -0.0131 -0.0494
18765W        W61818   7.652   1.532  21.989 -0.0360  0.2566  0.1633
18766W        W61819  32.346  19.966  24.293  0.2754  0.2545  0.1031
18767W        W61820   4.083   2.128  28.233 -0.0721 -0.1725 -0.0011
18768W        W61821  31.207   2.290  18.476  0.0775  0.1186  0.2297
18769W        W61822   3.944  31.999   6.144  0.4443  0.0604  0.1372
18770W        W61823  20.338   7.350  21.085  0.2100  0.3360  0.1180
18771W        W61824  31.555  21.751   4.175  0.0219  0.1259  0.3491
18772W        W61825  32.154  30.404   0.244  0.2351 -0.2829  0.3548
18773W        W61826  29.275  21.105  24.538  0.0310 -0.0454 -0.0640
18774W        W61827   6.845  32.043  24.752 -0.3463 -0.0646 -0.0011
18775W        W61828  13.319   0.057  18.070 -0.1762 -0.3673 -0.0132
18776W        W61829   5.237  25.947  19.704 -0.4303 -0.4913  0.2475
18777W        W61830  11.684  26.126  27.612 -0.0679 -0.2531  0.1661
18778W        W61831   9.658  23.362  17.784 -0.0625 -0.1202  0.2990
18779W        W61832  20.771   7.261  27.227  0.0934 -0.1289  0.1647
18780W        W61833  31.452  21.440   1.079  0.0977 -0.0395 -0.1053
18781W        W61834  13.963  32.075  14.238 -0.1101 -0.0614  0.0460
18782W        W61835  29.806  30.142  18.354 -0.1041 -0.4318 -0.3001
18783W        W61836  23.220  33.624   6.479  0.1920 -0.1293  0.1463
18784W        W61837   3.749  32.412  13.771 -0.0078  0.1202  0.4353
18785W        W61838  26.474   5.162  25.230 -0.2843 -0.0587  0.4348
18786W        W61839  21.021  21.306   6.863 -0.0705 -0.0143 -0.0306
18787W        W61840  34.073  27.753  13.385  0.0125 -0.0056  0.1946
18788W        W61841   5.262   4.103  16.976  0.1110 -0.0356  0.1524
18789W        W61842   5.832   7.387   3.651 -0.1048  0.0200  0.2410
18790W        W61843  33.341  20.265  25.625 -0.2459 -0.0885 -0.3378
18791W        W61844  18.160  29.982  25.143 -0.1917 -0.0528  0.3005
18792W        W61845   1.705  10.970  24.934 -0.1648  0.1423 -0.2538
18793W        W61846  14.868   1.630  16.853  0.2637  0.1608  0.2153
18794W        W61847  11.830  18.537   3.299  0.3483 -0.5144 -0.0856
18795W        W61848  12.378   8.716   9.878  0.1483 -0.1620 -0.5138
18796W        W61849   9.006  31.389  26.850 -0.0495 -0.0067  0.2420
18797W        W61850  16.350  24.283  29.012 -0.1279 -0.2636 -0.1259
18798W        W61851  31.904  31.366  18.588 -0.0219  0.0140  0.3171
18799W        W61852   2.580  16.639  25.415 -0.0140  0.4362  0.0177
18800W        W61853   0.346   4.677  29.116  0.0369 -0.1620  0.0080
18801W        W61854  29.308  26.681   6.390 -0.1020 -0.1425 -0.0540
18802W        W61855   4.778  29.050   7.106  0.0826  0.3495  0.1876
18803W        W61856   6.182   1.230   6.736  0.0195  0.0102  0.1824
18804W        W61857   1.035  16.298  26.368  0.1026  0.1993 -0.2410
18805W        W61858  10.768  32.268  27.469 -0.1462 -0.1309 -0.2035
18806W        W61859  15.425   1.557   1.598  0.0536 -0.0784  0.1060
18807W        W61860  13.619   5.389   5.906  0.1985 -0.0941 -0.1316
18808W        W61861  29.645  24.995  25.902 -0.0317 -0.0450 -0.0732
18809W        W61862  24.314  14.547   2.836  0.1116  0.1412 -0.3109
18810W        W61863   0.647   4.152   9.803  0.3519 -0.1898  0.0764
18811W        W61864  26.546  21.217  24.530  0.2175 -0.2672 -0.2870
18812W        W61865  27.148  34.221  22.371  0.1557 -0.0877  0.4027
18813W        W61866  11.322   3.518   5.742  0.1536  0.2321 -0.2532
18814W        W61867  34.669  20.943  22.079  0.2984 -0.1127  0.2158
18815W        W61868  30.583  33.423  19.072 -0.0446  0.0098  0.0659
18816W        W61869   0.228   4.175  23.272  0.0587  0.1279  0.0671
18817W        W61870   8.037  11.146   4.186 -0.0287  0.4900  0.1444
18818W        W61871  31.761   3.118  27.062  0.0981  0.0224 -0.0150
18819W        W61872  11.936  23.439  27.448  0.4082  0.1087  0.2087
18820W        W61873  11.609   7.773  15.505 -0.0182  0.0629  0.0764
18821W        W61874   5.994  20.423  24.762 -0.1808  0.0683  0.1900
18822W        W61875  14.024  19.082  28.947  0.0299  0.1961  0.2099
18823W        W61876   7.723  21.994  10.212  0.0146  0.1481  0.1761
18824W        W61877  32.024   1.793  18.701 -0.1979  0.0465  0.1933
18825W        W61878  32.553  18.875  24.542 -0.1139 -0.1618  0.2529
18826W        W61879   3.418  31.677  16.258  0.3195  0.0651 -0.1013
18827W        W61880  33.716  26.256  18.495 -0.0628  0.2791 -0.2885
18828W        W61881  26.172  25.282  15.455 -0.1004  0.1484 -0.2164
18829W        W61882   9.968  22.796  23.597  0.1130 -0.1513  0.0286
18830W        W61883   5.360   4.053  16.002 -0.0927  0.0443 -0.2614
18831W        W61884  29.925   2.964  19.008  0.1378 -0.0639  0.0916
18832W        W61885   9.199  16.477  21.888 -0.1628 -0.0177 -0.0247
18833W        W61886  26.542  15.472  16.836  0.0511 -0.0514  0.1957
18834W        W61887  25.988  33.268  23.308 -0.3333  0.0176 -0.1582
18835W        W61888  30.343  25.848  27.740 -0.0269 -0.4300  0.0013
18836W        W61889  12.470   5.980   3.013  0.0892  0.2203 -0.2630
18837W        W61890  12.515  22.328   6.636 -0.0168 -0.0385  0.0953
18838W        W61891  19.601  31.709  18.160  0.0187 -0.2678 -0.0040
18839W        W61892  13.232  32.787   3.145 -0.0649  0.2626 -0.1473
18840W        W61893  26.040   6.158  22.653 -0.3595 -0.0506 -0.1527
18841W        W61894  24.918   9.072  18.596  0.0890 -0.1239  0.2516
18842W        W61895  34.504  12.079  27.318  0.0704 -0.1454 -0.1310
18843W        W61896  24.415  19.935   0.278  0.0768  0.0067  0.2697
18844W        W61897  13.941  13.158   1.380 -0.2145 -0.3934 -0.2468
18845W        W61898   2.814  33.084   8.217 -0.0152  0.2525 -0.1570
18846W        W61899  22.910  30.887   2.751  0.1084 -0.1674 -0.0010
18847W        W61900   3.687  18.233  14.796  0.1059  0.1620 -0.3596
18848W        W61901   5.697  31.355   9.231 -0.2754  0.0162 -0.2151
18849W        W61902  30.538  17.256  15.468  0.3084 -0.1462  0.2405
18850W        W61903  10.415  31.910   5.947 -0.2450  0.0166 -0.1516
18851W        W61904   1.263  29.365   2.803 -0.1466 -0.0426  0.3151
18852W        W61905  11.953  21.762  26.312 -0.2191 -0.1113  0.0653
18853W        W61906   1.841  14.637  14.325 -0.1829  0.3163  0.1366
18854W        W61907   7.688  20.523   3.950 -0.0751 -0.2422 -0.2005
18855W        W61908  30.601  29.167  19.413  0.1145  0.2818 -0.0293
18856W        W61909   8.766  10.086  19.810 -0.1993  0.0141  0.1410
18857W        W61910   4.280  29.594   2.027 -0.1820 -0.1251  0.0651
18858W        W61911   2.344  20.477  22.603 -0.1356  0.1794 -0.0842
18859W        W61912  28.398   0.848  16.876 -0.0436 -0.4284 -0.0128
18860W        W61913  23.591   0.361  10.709  0.2737 -0.1044  0.1344
18861W        W61914   1.070  20.262   7.820 -0.0336  0.1748  0.0680
18862W        W61915  26.479  13.856  21.453  0.2989  0.1889 -0.0165
18863W        W61916  23.224  20.267  21.683  0.2178  0.3715 -0.1837
18864W        W61917  33.614  31.859   3.432  0.0440  0.0638  0.0517
18865W        W61918   6.704  33.107  28.234 -0.0811  0.1157  0.0850
18866W        W61919   5.816  20.591   1.345 -0.0886 -0.0472  0.2734
18867W        W61920   5.281   1.613  18.180 -0.1079  0.0402  0.2204
18868W        W61921  25.378  32.052  29.003 -0.2225 -0.2593  0.0130
18869W        W61922  13.187   5.107  19.742 -0.0576 -0.1753 -0.2029
18870W        W61923   2.452  22.444   2.772 -0.1065 -0.0929 -0.0306
18871W        W61924   7.551  13.872  22.573  0.1952 -0.0210 -0.1052
18872W        W61925  13.870  34.395  19.880 -0.0205  0.0933  0.0480
18873W        W61926  32.724   4.190  28.424 -0.1657  0.1015 -0.1316
18874W        W61927   9.101  34.384   3.486 -0.2389  0.3651  0.0084
18875W        W61928  34.111  19.585   8.840  0.2696 -0.0977 -0.3007
18876W        W61929   6.213  26.835  19.345  0.1078 -0.1712 -0.1594
18877W        W61930  10.859   6.753   1.596  0.0607 -0.2545 -0.1793
18878W        W61931  18.057  14.616   5.591  0.0847 -0.2373  0.2238
18879W        W61932  30.765  31.374   9.072 -0.1758  0.0164 -0.3754
18880W        W61933  33.490  12.494  23.275 -0.0762 -0.0950  0.3600
18881W        W61934  26.384   3.049  28.554  0.1580 -0.0346  0.0517
18882W        W61935  28.572   4.533  14.348  0.1922 -0.1836 -0.1522
18883W        W61936   9.989  29.098  27.221  0.3861  0.2397 -0.2223
18884W        W61937   1.584  10.768   8.145 -0.1537  0.0608  0.1282
18885W        W61938  23.817  27.700   3.177 -0.2721  0.1193  0.1118
18886W        W61939  10.087  26.838  14.595  0.3780  0.2565 -0.1141
18887W        W61940  24.812  26.517   6.887  0.5567 -0.0637 -0.2497
18888W        W61941  23.082  23.142  24.293 -0.2435 -0.2853 -0.1437
18889W        W61942   6.628  30.872  14.393 -0.0175  0.1173 -0.1737
18890W        W61943  24.089  30.851   8.122  0.1592  0.1332  0.2132
18891W        W61944  30.735  32.659  14.920 -0.0777  0.2224  0.1337
18892W        W61945  31.455  11.153  21.421  0.2274 -0.0170  0.1372
18893W        W61946  29.765  11.845   2.101 -0.1182 -0.1667  0.3152
18894W        W61947   5.352   8.115  26.608 -0.0610  0.3768 -0.0362
18895W        W61948  13.856   0.844   8.501  0.2832  0.0728 -0.0345
18896W        W61949  30.399  12.579   6.370 -0.2941  0.2884  0.2437
18897W        W61950   6.358  27.998  26.138 -0.2485  0.1280 -0.1015
18898W        W61951  34.378   8.180   1.310 -0.3009  0.1263  0.2286
18899W        W61952   4.414  22.328  22.484  0.3306 -0.0062 -0.2072
18900W        W61953  33.909   4.311   1.691 -0.0169 -0.2198  0.1612
18901W        W61954   8.569  23.911  25.735 -0.2190 -0.1823  0.0184
18902W        W61955  24.739   0.377  16.955  0.0835  0.0043 -0.1502
18903W        W61956   9.847   6.875   3.295 -0.4436  0.2230  0.2943
18904W        W61957   0.396   4.267   0.846  0.0451 -0.1465 -0.1687
18905W        W61958  14.765  28.738  16.224  0.2317  0.0624 -0.1481
18906W        W61959  15.765  10.358  15.764 -0.3664  0.1029 -0.0703
18907W        W61960  14.248   9.218   1.242  0.2669 -0.3337  0.0651
18908W        W61961   1.275   7.764  22.705 -0.0138  0.1206  0.0341
18909W        W61962   4.605  28.877  24.265 -0.1031  0.4153  0.1756
18910W        W61963   2.171  31.070   9.422  0.3208 -0.0834  0.0702
18911W        W61964  12.718   0.766   8.503 -0.4739 -0.3304 -0.2599
18912W        W61965  20.782   7.871   4.785  0.1560  0.1117 -0.2188
18913W        W61966   2.108   3.844   6.018 -0.0012  0.2112  0.1802
18914W        W61967  28.704   9.811  28.240 -0.0169 -0.2394 -0.1376
18915W        W61968   1.090  23.220   5.640  0.0866  0.2239  0.0854
18916W        W61969  21.369  25.609  22.130 -0.0134  0.0896 -0.2313
18917W        W61970   3.028   4.718   2.865  0.1151 -0.2738  0.2817
18918W        W61971  10.180  31.591   4.593 -0.1029 -0.1442  0.1302
18919W        W61972  18.270  12.803  17.123 -0.0076  0.3662 -0.2487
18920W        W61973   2.235  24.097   3.077 -0.0166  0.4102 -0.3978
18921W        W61974   2.371  27.601   8.469 -0.0286  0.3691 -0.1987
18922W        W61975   4.685  15.556   1.064  0.1547 -0.0143  0.0020
18923W        W61976  12.489   8.706  26.441 -0.2399  0.1289  0.0520
18924W        W61977  12.910  17.314  27.760  0.1553 -0.1378  0.0310
18925W        W61978   1.280  28.288  29.112 -0.1127 -0.0808 -0.0183
18926W        W61979   0.735  24.912  14.392  0.0796  0.1256  0.2644
18927W        W61980  32.173  29.766   1.477  0.1130  0.0018  0.2472
18928W        W61981  10.543  17.430  20.124 -0.1687 -0.1667  0.2515
18929W        W61982  31.321   1.412  23.727  0.1450  0.0340  0.2336
18930W        W61983  13.733  32.503  22.911  0.0718  0.0392  0.1942
18931W        W61984  23.543   2.246  19.623  0.1334  0.0540  0.1042
18932W        W61985  13.530  29.205  24.707  0.1514 -0.0853 -0.0980
18933W        W61986  21.469  15.903  21.047 -0.0913  0.3990 -0.2806
18934W        W61987  17.637   9.044  25.331  0.1513  0.1682  0.0951
18935W        W61988  14.847  27.265   6.324 -0.1097 -0.2681 -0.2464
18936W        W61989  24.099  23.954  27.390  0.0238 -0.0635  0.0150
18937W        W61990  26.179  27.485   4.857  0.0030  0.3501  0.5343
18938W        W61991  27.617   6.188  14.955 -0.1563 -0.2416  0.2012
18939W        W61992  32.269  30.095  27.545 -0.1311  0.0903 -0.3154
18940W        W61993   0.992  14.876  27.605 -0.2067  0.0168 -0.0396
18941W        W61994  29.273  27.939   2.273  0.1412 -0.0112  0.3712
18942W        W61995  31.962  31.559  27.419 -0.4255 -0.0547  0.1041
18943W        W61996   0.077  32.260  27.754  0.0827 -0.0858 -0.0724
18944W        W61997   6.128   5.358  17.921 -0.0222 -0.0111  0.3525
18945W        W61998  26.127  28.126   2.191 -0.2304 -0.0581 -0.2547
18946W        W61999  25.813  17.237   7.380  0.1148 -0.1650 -0.2687
18947W        W62000   3.186   3.928   4.655 -0.0301 -0.1989 -0.4281
18948W        W62001   1.262   4.701   9.329 -0.1184 -0.0666  0.0429
18949W        W62002  18.977  34.465  23.047 -0.0917 -0.0494 -0.2478
18950W        W62003   5.752  29.478  22.532  0.0695  0.1918 -0.0944
18951W        W62004   1.036  34.017  15.653  0.1075 -0.2988  0.0882
18952W        W62005  32.505   2.256  22.036  0.1064 -0.0829  0.0724
18953W        W62006   2.224  30.356  24.467 -0.1273  0.1724  0.0294
18954W        W62007  28.180  27.527   1.540  0.0672 -0.1871 -0.1482
18955W        W62008  28.797  13.187  14.807  0.1750 -0.0604  0.0274
18956W        W62009  10.438  25.862  19.228  0.1249 -0.0777 -0.0853
18957W        W62010   3.928  21.308  15.656 -0.1984  0.3226  0.0161
18958W        W62011  27.584  25.876  21.727 -0.2102 -0.1354 -0.1190
18959W        W62012  34.322  26.815   6.455 -0.1432 -0.1511  0.2924
18960W        W62013   4.715  23.355   1.556  0.0315  0.0259  0.0058
18961W        W62014   3.169   2.528  10.028  0.1373 -0.0205 -0.1499
18962W        W62015   0.486   7.076   0.191 -0.0504 -0.1407  0.2725
18963W        W62016  11.976  20.392  24.121 -0.0038 -0.2268  0.2327
18964W        W62017   2.503   3.722   0.405  0.2097  0.4229  0.0850
18965W        W62018   2.894  18.087  28.015  0.0898  0.0795  0.1192
18966W        W62019  21.002  18.286   3.450  0.0626 -0.0154 -0.0684
18967W        W62020  22.844   8.510   1.018 -0.1566 -0.1487  0.1348
18968W        W62021  33.158   0.139   9.449 -0.0079  0.4087  0.0876
18969W        W62022  10.026   1.011  20.628 -0.1161  0.2203 -0.1298
18970W        W62023   6.177  33.052  23.471 -0.0949 -0.1679 -0.2541
18971W        W62024  18.245  34.204  22.898 -0.1617 -0.0874 -0.0431
18972W        W62025   5.801   3.137  27.334  0.2389 -0.0269 -0.1051
18973W        W62026   2.104  31.956   0.115 -0.2439  0.3848 -0.0269
18974W        W62027  32.585  25.672  26.075 -0.2001  0.1026  0.1841
18975W        W62028   0.429  23.493  23.797 -0.3823 -0.0623  0.2127
18976W        W62029  28.178  17.898  22.043 -0.0956  0.0995  0.0782
18977W        W62030  29.798   3.492  10.185  0.2321 -0.0270 -0.0265
18978W        W62031  30.347  26.109  26.514  0.0698  0.0011  0.2577
18979W        W62032  33.468  34.183  27.104  0.3076  0.0867  0.2197
18980W        W62033  33.570  13.714  15.478 -0.0068 -0.0010  0.1583
18981W        W62034  17.332   4.694  15.719 -0.0122  0.2191 -0.0661
18982W        W62035   8.849  22.337  19.613  0.1998 -0.1349  0.2894
18983W        W62036   0.233  20.250  19.321 -0.0826 -0.0586  0.0824
18984W        W62037  11.593  17.563  24.566 -0.0315 -0.1258 -0.4806
18985W        W62038  13.980  11.931  25.722 -0.1081 -0.0498  0.1963
18986W        W62039  29.198  30.166  21.452  0.1573 -0.0054  0.1319
18987W        W62040  33.819  10.125  23.559  0.0275  0.3671 -0.1574
18988W        W62041  21.182  30.992  21.710 -0.0178  0.1714 -0.0222
18989W        W62042   2.588   0.422  19.846  0.1173  0.0155  0.0575
18990W        W62043  11.895   0.441  17.813 -0.1663  0.0611 -0.0484
18991W        W62044   1.766  20.371  22.122  0.1218  0.0450 -0.2807
18992W        W62045   2.464   2.521  12.891 -0.0084 -0.0635 -0.2054
18993W        W62046   8.903   5.191   2.532  0.2798  0.1790 -0.0184
18994W        W62047   3.583   1.678  16.575 -0.0648 -0.4383 -0.1990
18995W        W62048  33.221  31.116  13.822 -0.0676  0.2131  0.3275
18996W        W62049  10.781  27.022  24.612  0.0851 -0.1103  0.0514
18997W        W62050  29.859  26.184  17.209 -0.3488 -0.3268 -0.0679
18998W        W62051  22.749  25.826  25.041  0.1027  0.0811  0.0516
18999W        W62052   5.588  28.158  21.902 -0.1802  0.1047 -0.1514
19000W        W62053   9.231  20.582  21.415 -0.0683  0.2525 -0.1443
19001W        W62054   5.825   2.630  18.158  0.1057  0.2690 -0.0734
19002W        W62055  30.411  28.205  26.555  0.0876  0.1339 -0.0673
19003W        W62056   9.014  10.578   2.941  0.0278  0.0852  0.1902
19004W        W62057  29.232  26.900  17.516 -0.1962  0.2064 -0.1855
19005W        W62058  28.206   8.375  17.284  0.0868  0.1472  0.0837
19006W        W62059  11.142  32.302   0.124  0.0097 -0.1080  0.0914
19007W        W62060   4.141  30.662  17.578  0.2385  0.0178  0.0860
19008W        W62061  31.477   8.228  25.633 -0.1103 -0.1519 -0.2473
19009W        W62062  13.480  31.802  14.206 -0.0939 -0.0752 -0.0969
19010W        W62063  11.081  29.178  29.110  0.2473  0.2843  0.1543
19011W        W62064  22.810  33.798  24.239  0.1152  0.2753  0.1810
19012W        W62065   5.378   2.351  15.868 -0.1418  0.2141  0.1237
19013W        W62066  13.293  18.561  22.837  0.0550 -0.0146 -0.2949
19014W        W62067   2.290  29.507  27.494  0.0098  0.1624  0.0364
19015W        W62068  14.943  25.878  15.443  0.0152 -0.0145  0.1836
19016W        W62069   5.001  28.387  28.602 -0.0787 -0.0302 -0.2560
19017W        W62070  13.210   5.996  23.578  0.0238  0.5049 -0.1114
19018W        W62071  14.195   7.400  18.784 -0.1294 -0.2525 -0.0924
19019W        W62072  24.726  28.628  15.304 -0.4111  0.1067 -0.1328
19020W        W62073  10.940  13.083  27.149  0.1840 -0.0747 -0.1096
19021W        W62074   9.676  33.455  21.700  0.1817  0.1675 -0.3988
19022W        W62075  33.122  32.817   6.148 -0.2308  0.2026 -0.2775
19023W        W62076   0.245  16.712  14.268 -0.2624 -0.1614  0.1233
19024W        W62077  32.355  29.639  13.591  0.2101 -0.0212  0.0018
19025W        W62078  21.731   0.375  18.972  0.1283 -0.2008 -0.4580
19026W        W62079  15.097  32.321  19.339 -0.1137  0.0694 -0.2134
19027W        W62080  32.963  32.203   3.910 -0.1452 -0.2055 -0.0079
19028W        W62081   3.176   8.478  21.886  0.2629  0.0436 -0.3380
19029W        W62082  33.310  20.896  18.962  0.0972  0.0376 -0.0363
19030W        W62083   9.754  23.781  17.440 -0.1231 -0.0616  0.0719
19031W        W62084  19.060   0.508  23.175  0.1582 -0.2675 -0.1549
19032W        W62085  32.015   9.098  14.312  0.0066 -0.0115  0.0672
19033W        W62086  11.800   8.463  18.766  0.2290  0.3272  0.1705
19034W        W62087   9.420   1.045  22.276  0.2032  0.3121  0.0577
19035W        W62088   3.915   8.631  23.873  0.2341 -0.0340  0.3918
19036W        W62089  26.923  11.783  18.067  0.0391 -0.0780  0.2389
19037W        W62090   4.121  30.495  19.774 -0.1212  0.1532 -0.1063
19038W        W62091   0.052   2.588  14.956  0.1530 -0.2341  0.1469
19039W        W62092  30.810  13.510  15.469  0.1608  0.2039  0.0189
19040W        W62093   2.978   6.912  24.501 -0.1297  0.1407  0.1785
19041W        W62094  32.525   2.898  15.599  0.0316  0.2231  0.1143
19042W        W62095  11.105   4.343  26.360 -0.2754  0.0611 -0.1815
19043W        W62096   4.750  20.659  15.543 -0.0856  0.0630 -0.2252
19044W        W62097  26.792  29.039   8.977 -0.0802  0.0062 -0.1269
19045W        W62098   0.652  26.994  22.565  0.1089 -0.0853  0.0595
19046W        W62099   8.301   0.494  18.117  0.0255 -0.1041 -0.0131
19047W        W62100   7.962   9.892  17.538  0.1742  0.0625 -0.0425
19048W        W62101   2.467  33.606  26.233 -0.0367  0.4679 -0.1027
19049W        W62102   6.561   2.371  22.746  0.0467  0.0052 -0.1698
19050W        W62103  25.427  25.839  19.544 -0.0389 -0.1115 -0.4329
19051W        W62104  13.400   7.605  16.045  0.0904  0.2629 -0.4315
19052W        W62105  11.933  32.259  15.990  0.4344 -0.3223  0.2059
19053W        W62106  32.893  25.137  17.140  0.0242  0.0655  0.0330
19054W        W62107   2.172   4.117  16.311  0.0424  0.0979 -0.0239
19055W        W62108  14.754  14.962  28.862  0.3495 -0.4482 -0.1948
19056W        W62109  30.825   1.378  17.019  0.0316  0.3705 -0.0106
19057W        W62110  33.410   5.686  22.429 -0.0014 -0.0431 -0.0968
19058W        W62111  32.025  24.889  20.886 -0.2685  0.1347  0.2018
19059W        W62112  26.821   8.571  27.060 -0.2923 -0.0748 -0.1818
19060W        W62113  31.500   1.125  21.111  0.1488 -0.1526 -0.2199
19061W        W62114  13.721   7.033   9.784  0.1680 -0.0885  0.1806
19062W        W62115   6.005  10.266  26.862 -0.2464  0.4163  0.1538
19063W        W62116   3.828  27.902  18.774  0.1803  0.2572  0.2869
19064W        W62117   5.293   2.076  20.883  0.0235  0.0847 -0.1815
19065W        W62118   7.921   7.959  28.388 -0.0198 -0.3957 -0.2982
19066W        W62119   4.030   0.661  14.732  0.1233 -0.0469 -0.2657
19067W        W62120   6.733   2.949  19.841 -0.0576  0.1581 -0.0738
19068W        W62121  28.465  18.725  20.549 -0.0335 -0.3167  0.1006
19069W        W62122  31.498  34.077  17.201 -0.1152  0.0728 -0.0610
19070W        W62123  14.772   6.743  16.021 -0.1619 -0.0141  0.0722
19071W        W62124   2.891  17.298  13.288 -0.3968 -0.1470  0.2182
19072W        W62125  11.218   2.041  26.219  0.2996  0.1189  0.0287
19073W        W62126   0.593   5.156  24.313  0.2089 -0.0730 -0.0426
19074W        W62127   6.028   6.866  28.179  0.1014  0.3115  0.3530
19075W        W62128   5.636   3.398  17.308  0.1224  0.2487  0.2538
19076W        W62129   3.028  29.371  22.872  0.0947  0.6591  0.0419
19077W        W62130  27.510  19.025  10.495  0.2428  0.1742  0.1304
19078W        W62131  12.038  28.412  16.934  0.1036  0.0312 -0.0213
19079W        W62132  13.009  22.227  25.121 -0.2010  0.0780  0.0033
19080W        W62133  24.064  27.094  25.187 -0.0062  0.1910 -0.1848
19081W        W62134  31.451  13.243  19.052 -0.0505 -0.3194  0.2135
19082W        W62135   3.565   6.271  14.849 -0.2863  0.0820  0.2880
19083W        W62136  15.760  27.854  24.908  0.1003 -0.2304  0.2616
19084W        W62137   1.799  32.051  17.251  0.0050  0.1140 -0.0394
19085W        W62138   6.271  20.639  13.331 -0.0345 -0.0791  0.0789
19086W        W62139  31.123  31.299   1.773  0.3065 -0.1088 -0.1770
19087W        W62140  10.486  14.051  15.178  0.1872 -0.3867  0.1105
19088W        W62141  31.392  32.234  15.963  0.0828  0.2532  0.1180
19089W        W62142   2.348  30.274  20.010 -0.1727 -0.1093  0.0096
19090W        W62143  26.870  32.065   2.858  0.4435  0.1758 -0.1326
19091W        W62144   5.221   2.144  16.824 -0.2065 -0.4486 -0.2778
19092W        W62145  28.052   0.699  28.267  0.2842 -0.1743 -0.2365
19093W        W62146   1.136  13.212  24.020 -0.2912  0.1026 -0.3668
19094W        W62147  29.486  21.948  21.038 -0.0163  0.1434  0.5241
19095W        W62148  11.653  33.368  22.351 -0.3776  0.1628 -0.5631
19096W        W62149   4.755   6.724  14.841 -0.1914  0.0366 -0.2865
19097W        W62150  26.951  18.011  19.802  0.0657 -0.1578 -0.1662
19098W        W62151   4.406   4.984  21.052  0.1437 -0.0382  0.0757
19099W        W62152  33.200   5.436  25.082 -0.0693 -0.0176 -0.0771
19100W        W62153   4.681  32.983  20.730 -0.0945 -0.3889  0.0526
19101W        W62154  15.369  10.546  24.259  0.0246 -0.0077 -0.1044
19102W        W62155   9.973   3.306  24.953 -0.0934  0.1167 -0.1053
19103W        W62156  31.499  14.683  19.398 -0.0376 -0.1650 -0.0856
19104W        W62157   6.458  11.818  16.216  0.0656 -0.1971 -0.0998
19105W        W62158   0.208   1.217  21.002 -0.0930 -0.1233  0.1626
19106W        W62159   9.904  20.513  18.667  0.3015  0.0392  0.0451
19107W        W62160  32.795  25.208  14.056  0.0127  0.4750  0.3658
19108W        W62161   1.264  27.747  13.338  0.1810  0.3066  0.2766
19109W        W62162  28.658   2.280  23.199 -0.0204 -0.0528 -0.1060
19110W        W62163   7.078   1.886  20.637  0.4496  0.3849 -0.5331
19111W        W62164  28.009  18.562  15.254  0.3832  0.0697  0.1990
19112W        W62165  31.825  15.832  24.919 -0.1848  0.0228 -0.2506
19113W        W62166   5.410  33.568  28.460  0.2108  0.3294  0.0034
19114W        W62167   3.123  27.739   2.749  0.1408 -0.2804 -0.2094
19115W        W62168  32.080  29.715  14.654 -0.0249 -0.1006  0.2196
19116W        W62169  14.314  20.822  25.460 -0.1027  0.0249 -0.0361
19117W        W62170   3.418  33.179  22.446 -0.0051  0.2167  0.0527
19118W        W62171   2.445  22.849  19.894 -0.1451 -0.0145 -0.0130
19119W        W62172  10.818  31.446  13.484 -0.0387  0.0118  0.1270
19120W        W62173  23.317  10.919  16.087 -0.0140  0.2198 -0.0589
19121W        W62174  14.901   6.330  16.977 -0.1620  0.1723 -0.1088
19122W        W62175  25.147  28.826  24.612  0.0143  0.1346 -0.2260
19123W        W62176  27.956   7.865  19.916  0.2473  0.4032 -0.0890
19124W        W62177   9.169   0.063  22.192 -0.1507  0.0076  0.0704
19125W        W62178  22.156  12.783  20.617  0.2204 -0.0842 -0.3940
19126W        W62179  11.171   9.179  20.885 -0.0218  0.3487 -0.0263
19127W        W62180  24.548   8.640   1.074 -0.0914 -0.3549 -0.0492
19128W        W62181  23.385  11.959  27.065 -0.0848 -0.1321 -0.3591
19129W        W62182  27.429   4.893  20.304 -0.2452 -0.0890 -0.1662
19130W        W62183  27.033   3.465  17.928 -0.1733 -0.0313  0.0673
19131W        W62184  33.280  26.773  20.099 -0.0158  0.1170  0.0335
19132W        W62185  21.599  33.149  17.977 -0.1332 -0.2373  0.1339
19133W        W62186  25.737   1.063  19.893 -0.0183 -0.0989  0.0454
19134W        W62187   3.264   7.818  26.539  0.0928  0.1157  0.0815
19135W        W62188   3.031   3.768   5.167 -0.1687  0.1242  0.1890
19136W        W62189   7.970  11.828   0.652 -0.1544  0.1642 -0.0393
19137W        W62190  22.096  32.997  18.067 -0.1385  0.0702 -0.1471
19138W        W62191   5.507   0.419  17.180 -0.1827 -0.0053 -0.5048
19139W        W62192  34.402   0.128   3.933 -0.2706  0.3785  0.0409
19140W        W62193  15.899  30.835  17.451 -0.1866 -0.0629 -0.0787
19141W        W62194  23.374  26.516  15.160  0.0316  0.0305  0.2331
19142W        W62195  25.042  33.322  21.406 -0.0554 -0.2233 -0.2201
19143W        W62196   2.764  31.616  15.908 -0.0938  0.0259  0.2497
19144W        W62197   8.752  23.022  18.108  0.2145 -0.2762  0.1290
19145W        W62198  31.406  33.790   8.519 -0.0268  0.0073 -0.2101
19146W        W62199  19.314  22.506  28.233  0.0874  0.1108  0.0603
19147W        W62200   2.393  33.897  19.018 -0.3101  0.1144  0.0061
19148W        W62201  19.208  24.511  19.684 -0.0423  0.1294  0.2525
19149W        W62202   0.033  31.023   2.643 -0.0068  0.2259 -0.2300
19150W        W62203  26.591   9.356  21.589  0.2226 -0.4711  0.0822
19151W        W62204   9.007  33.234  15.212  0.0257  0.1164 -0.2345
19152W        W62205  29.219  33.452  22.774  0.2477 -0.0900  0.0200
19153W        W62206  33.264  17.530   2.852  0.0415 -0.1075 -0.0061
19154W        W62207  32.293   6.249  14.380  0.0169  0.1439 -0.1762
19155W        W62208  27.740  31.910  25.031 -0.0330  0.1643  0.1053
19156W        W62209  20.068  34.413  25.396  0.0895 -0.0027  0.0641
19157W        W62210  12.875  26.295  21.606  0.0549 -0.2535 -0.2072
19158W        W62211   6.220  19.092  20.166  0.0050  0.1845 -0.0787
19159W        W62212   7.002  32.559  21.773  0.4351 -0.3266  0.1002
19160W        W62213  16.255  10.262  22.251 -0.1571  0.1361 -0.0621
19161W        W62214  20.223  28.216   7.507 -0.1346 -0.0708  0.0606
19162W        W62215   0.318  18.865  21.770  0.2371  0.1173  0.1339
19163W        W62216   1.929   5.961  18.307  0.2025  0.1924  0.1816
19164W        W62217  24.128  34.617   8.828 -0.1164  0.1948 -0.0556
19165W        W62218  30.739   9.494   2.650  0.1568  0.2078  0.0992
19166W        W62219  28.834   5.257  16.356 -0.2339 -0.1412 -0.1784
19167W        W62220   9.287   8.713  19.823  0.1318  0.0030 -0.0346
19168W        W62221   5.894   7.595  18.263  0.1779 -0.3209 -0.0433
19169W        W62222  26.451   4.108  20.544 -0.0714  0.2445 -0.2631
19170W        W62223   6.640   5.271  20.188  0.4012 -0.0610 -0.0665
19171W        W62224  31.176   6.109  28.366 -0.1108 -0.0511  0.0275
19172W        W62225  24.549   3.066  18.088  0.1273  0.0435  0.0374
19173W        W62226   8.073  23.001  16.844  0.0331 -0.0603 -0.1722
19174W        W62227  34.429  25.649  15.179  0.0729 -0.5246 -0.1288
19175W        W62228  30.223  31.344  14.079  0.0710 -0.1847  0.0748
19176W        W62229  31.507  27.835  14.859 -0.4131  0.1305 -0.0811
19177W        W62230  25.941  32.458  16.382 -0.0923 -0.0167  0.3027
19178W        W62231   8.126  29.903  18.341  0.0960  0.2176  0.2840
19179W        W62232  31.172  27.016  16.035 -0.2029  0.4405  0.0998
19180W        W62233  10.222  29.981  28.754  0.0130  0.1105 -0.0248
19181W        W62234   6.429   1.364  20.304 -0.0426  0.4382 -0.0480
19182W        W62235  17.648   0.800  22.566  0.0133 -0.3644  0.1309
19183W        W62236   0.877  24.674  15.806 -0.0941  0.3564 -0.1813
19184W        W62237   2.025  24.315   0.546  0.3135 -0.0559  0.1077
19185W        W62238  15.625  29.424   5.699  0.1569  0.0196  0.2563
19186W        W62239  28.209   6.252  25.916  0.1329 -0.0295 -0.1171
19187W        W62240   6.444   6.279  21.238  0.3456  0.4630  0.0653
19188W        W62241   1.777  12.143  22.660 -0.0790  0.1161 -0.3071
19189W        W62242  15.641   0.399  28.110  0.0553  0.1261 -0.0580
19190W        W62243  22.612  27.824  13.715  0.2477 -0.1217 -0.1155
19191W        W62244   0.866  18.627  19.169 -0.1402 -0.1481 -0.0106
19192W        W62245  33.885   2.599  14.085  0.0557  0.2281 -0.3049
19193W        W62246   4.047  26.694  20.184 -0.0095 -0.1762  0.0674
19194W        W62247  21.901  18.049  22.500  0.2260 -0.0592 -0.0698
19195W        W62248  25.500  32.643  15.104  0.0658  0.1227  0.0758
19196W        W62249   9.875   7.346  24.637  0.1116  0.3502  0.1598
19197W        W62250  21.024  31.550  17.638  0.0727  0.1996 -0.0663
19198W        W62251  32.425  19.467  15.066 -0.1409  0.4495  0.1433
19199W        W62252   9.424  34.186  25.103  0.1054  0.1230  0.0953
19200W        W62253   2.165  30.095  14.106  0.2187 -0.1519 -0.0194
19201W        W62254   5.368  28.074  28.576 -0.1807  0.1611  0.0790
19202W        W62255   4.998   1.421  25.757  0.3489 -0.0408  0.1947
19203W        W62256  30.925   3.498  25.920  0.0040  0.0211  0.1729
19204W        W62257  23.309   3.048  23.415 -0.0057 -0.2537  0.3026
19205W        W62258   4.096   6.550  20.231 -0.0581 -0.2780 -0.3014
19206W        W62259  33.651  14.341  22.913 -0.0695 -0.1639 -0.1256
19207W        W62260  21.233   3.845  18.430 -0.1783 -0.2154  0.2088
19208W        W62261   9.923  30.586  19.034  0.3526 -0.0037  0.2435
19209W        W62262  34.379  10.364  19.246 -0.1909 -0.0363  0.3389
19210W        W62263  21.464  25.833  25.669  0.1715  0.0125  0.1551
19211W        W62264  23.155   5.679  27.389 -0.1708  0.0063 -0.3250
19212W        W62265  23.651  34.589  23.617 -0.0817  0.1520  0.1365
19213W        W62266  28.218   4.994  28.856  0.0376  0.0585  0.1871
19214W        W62267  24.828  23.759   2.125  0.0009 -0.3750  0.1875
19215W        W62268   0.475  21.321  14.202 -0.0120  0.0601 -0.2316
19216W        W62269  21.495  30.041  19.195  0.1221 -0.0381  0.3040
19217W        W62270   9.941  27.970  17.863  0.0614 -0.2147  0.1386
19218W        W62271   2.140   8.297  27.420 -0.0521  0.1387  0.0655
19219W        W62272   5.646   8.902  16.363 -0.2412  0.1707  0.2369
19220W        W62273   3.850  13.440  17.712 -0.1983 -0.1880  0.0426
19221W        W62274   4.269  22.649  17.971  0.1858  0.0868  0.0219
19222W        W62275  20.884  30.913  25.226 -0.0263  0.0188 -0.1139
19223W        W62276   8.423  12.227  18.340 -0.3655 -0.0603  0.0271
19224W        W62277  32.599  13.323  26.802  0.0465  0.2895  0.1312
19225W        W62278  11.409  31.118  14.365 -0.1150  0.3709 -0.2025
19226W        W62279  17.700  24.713  28.593  0.0618  0.1012  0.0860
19227W        W62280  17.653  34.096  17.882 -0.3130  0.2859  0.2457
19228W        W62281  16.488  30.763  24.420  0.3045  0.2173 -0.1039
19229W        W62282  29.851   0.117  24.760  0.0051 -0.1170  0.0666
19230W        W62283  20.920  20.890  26.209 -0.3028  0.0532 -0.0240
19231W        W62284  31.395  28.336   1.750 -0.2660 -0.1366 -0.0114
19232W        W62285  12.702   6.476  22.351  0.0318  0.0029 -0.0006
19233W        W62286   0.661  19.084  14.625 -0.0738 -0.0127 -0.0008
19234W        W62287  11.301  10.448  16.846  0.0783 -0.2487 -0.1007
19235W        W62288  11.248  25.549  19.508 -0.0011 -0.0294  0.4177
19236W        W62289  30.824   9.121  14.829 -0.2429  0.2108 -0.2474
19237W        W62290  15.075  11.806  29.175  0.0042  0.2651  0.1150
19238W        W62291  27.259  10.915  16.320 -0.1012 -0.3148 -0.1139
19239W        W62292  33.349  32.157  28.975 -0.2787  0.3036  0.2966
19240W        W62293  16.935  33.946  14.819  0.0235  0.2465  0.1254
19241W        W62294  33.186   4.587  16.936  0.0512  0.2552  0.0349
19242W        W62295  34.283  11.276  20.212  0.1691 -0.0654  0.0033
19243W        W62296  21.512  31.953  19.511 -0.1580  0.0397  0.1367
19244W        W62297   5.361   5.177  24.521 -0.2248 -0.1065  0.0395
19245W        W62298   3.743  32.959  28.604  0.2910  0.2346  0.3057
19246W        W62299  31.260   6.137  24.671 -0.1147  0.1551 -0.3043
19247W        W62300  22.173  21.798  21.618 -0.3114  0.2150 -0.0852
19248W        W62301  22.632  29.261   0.983 -0.1960  0.0022 -0.2092
19249W        W62302  30.642  29.286  13.898 -0.0600 -0.1632 -0.1967
19250W        W62303  30.340  13.522  23.549  0.2301  0.0439 -0.2534
19251W        W62304  32.475  32.219   7.649 -0.1209 -0.0202 -0.0438
19252W        W62305  31.324  19.863   2.698 -0.1015  0.0404  0.2390
19253W        W62306  14.212  18.199  25.414  0.1692  0.0682  0.1406
19254W        W62307  29.445   7.025  25.978 -0.2249  0.0178 -0.0703
19255W        W62308  34.504   8.774  13.849 -0.0295  0.1621  0.1030
19256W        W62309  10.195  13.870  16.573  0.1390  0.2002 -0.1341
19257W        W62310  28.931   8.783  23.081 -0.0947 -0.2571 -0.1972
19258W        W62311  15.662  33.804  23.052  0.2107  0.0354 -0.0507
19259W        W62312  31.301   1.513   1.793  0.0412  0.0159 -0.1291
19260W        W62313  13.067   2.491  23.963  0.1964  0.1675  0.2594
19261W        W62314  28.139  23.752  21.466 -0.0258 -0.1460 -0.4179
19262W        W62315   1.048  32.833  17.396 -0.2037  0.1210 -0.0019
19263W        W62316  28.021   6.551  14.891 -0.1165  0.2067  0.0058
19264W        W62317   6.113  25.884  16.322 -0.4574  0.2550 -0.2585
19265W        W62318   4.061  32.491  18.946 -0.0445  0.3280 -0.1860
19266W        W62319  22.552  21.956  23.330  0.3748 -0.1975  0.0908
19267W        W62320  24.402  33.851  17.671 -0.4427  0.1641 -0.2668
19268W        W62321  28.303  32.669   8.645  0.0644  0.2268 -0.1513
19269W        W62322  29.246  26.834  19.935 -0.0856 -0.1009 -0.0413
19270W        W62323  24.204   2.567  14.847  0.0182  0.0008 -0.1583
19271W        W62324  22.088  16.998  27.728  0.5226 -0.1978  0.0645
19272W        W62325  13.545  24.044  16.425  0.2693  0.2264  0.2323
19273W        W62326   5.280   1.448  19.361 -0.2703 -0.2182 -0.2772
19274W        W62327   5.358   3.070  22.780  0.2621  0.0258 -0.2760
19275W        W62328   7.397   4.905  18.724 -0.1809  0.1177 -0.2592
19276W        W62329   5.289  33.590  21.970  0.0279 -0.1503  0.1417
19277W        W62330  34.625   3.157  17.858  0.0938 -0.4835  0.3103
19278W        W62331  17.210  30.567  14.439 -0.3114 -0.0427  0.1058
19279W        W62332   2.304  25.934  23.651 -0.1415  0.2696  0.0064
19280W        W62333   4.517  11.485  26.958  0.1336  0.0560  0.1172
19281W        W62334  10.823   0.094  19.170 -0.2137  0.0339 -0.0676
19282W        W62335  26.139   3.073  17.556  0.1174 -0.0767 -0.0888
19283W        W62336  31.439   9.220  16.127  0.1393  0.2007  0.1742
19284W        W62337   2.696  33.194  22.295 -0.1305  0.0927  0.0763
19285W        W62338   9.895  32.092  27.385 -0.0219  0.2234  0.0418
19286W        W62339   7.557   2.032  20.860 -0.1326  0.1429 -0.1531
19287W        W62340  34.094   0.280  21.434  0.2393 -0.0856 -0.1661
19288W        W62341  31.372   6.764  16.146 -0.0935  0.0977  0.2556
19289W        W62342   5.074  27.048   0.700  0.0073 -0.1048 -0.1648
19290W        W62343  31.321   1.431  22.259 -0.2451  0.4037  0.0324
19291W        W62344  10.078   3.204  21.450  0.1267  0.0534  0.1067
19292W        W62345  12.559  25.275  18.541  0.0639 -0.0695 -0.2566
19293W        W62346  11.088   4.220  17.079 -0.4757  0.2157 -0.1008
19294W        W62347   2.843  24.600  14.314 -0.0347 -0.0245  0.0075
19295W        W62348  12.672   8.206   3.137  0.1003  0.1506  0.3413
19296W        W62349  34.027   9.657   7.621 -0.1833 -0.1701 -0.0122
19297W        W62350   6.051  23.492  14.454 -0.3088  0.3848  0.1537
19298W        W62351   7.258  18.110  14.294 -0.1775  0.0204  0.1284
19299W        W62352  20.559  28.345  18.340  0.0045 -0.3029 -0.1484
19300W        W62353  31.264  27.065  17.106  0.0946  0.0109 -0.0716
19301W        W62354  22.701   4.942  17.730  0.1762  0.1936  0.1533
19302W        W62355  32.723  31.007  21.235 -0.1352 -0.2083  0.0093
19303W        W62356  34.278   5.619  17.364  0.0158 -0.0978 -0.0417
19304W        W62357  12.491  34.428  15.101 -0.0812  0.1076 -0.0958
19305W        W62358  19.812   8.075  23.478  0.1941  0.0403  0.3659
19306W        W62359  27.410  27.303  27.840  0.3017 -0.0145 -0.0863
19307W        W62360   1.660  14.002  23.563  0.1395  0.4083 -0.1071
19308W        W62361   5.204  34.621  26.696  0.3401  0.0562  0.1799
19309W        W62362  33.553  30.316  16.310  0.0495 -0.3825 -0.1624
19310W        W62363  29.745   0.883  22.934 -0.1085 -0.2459 -0.1220
19311W        W62364  13.963  11.201  15.722 -0.1639 -0.1902 -0.0337
19312W        W62365  33.311  34.374  24.727  0.0726  0.0924  0.0045
19313W        W62366   1.391  28.636  14.645 -0.0499  0.1567 -0.1579
19314W        W62367   8.432   5.041  18.568  0.0946  0.1501 -0.2864
19315W        W62368  12.706   4.040   0.965 -0.1482 -0.1105  0.0657
19316W        W62369   3.772  16.830   6.974 -0.2298  0.1395 -0.2967
19317W        W62370  31.483  10.624  21.332 -0.1521 -0.1133 -0.1737
19318W        W62371  30.917  25.136   8.194 -0.0466  0.0093 -0.0155
19319W        W62372  33.579   0.907   9.858 -0.1816  0.1099  0.3582
19320W        W62373   8.623   4.808  21.208  0.1792 -0.0581 -0.1310
19321W        W62374   5.920  18.942   3.689  0.0433 -0.2127  0.1208
19322W        W62375  17.029  12.848  15.943 -0.0547  0.1145 -0.0212
19323W        W62376  28.938  28.016  27.068  0.2368  0.1309 -0.2469
19324W        W62377  31.254   0.808  16.354 -0.1767  0.0723  0.2033
19325W        W62378  16.621  34.484  20.956  0.1375  0.4175 -0.2288
19326W        W62379   0.989  27.679  16.201  0.0962  0.2977 -0.0209
19327W        W62380   0.062   8.447  14.632 -0.0109  0.0714 -0.0249
19328W        W62381   6.249  29.397  15.040 -0.0391  0.5330 -0.1094
19329W        W62382   5.190  30.060  13.626  0.1062  0.1433  0.1968
19330W        W62383  31.255  21.565  18.414  0.1673 -0.1319  0.0086
19331W        W62384  14.938  28.481   2.108  0.0980 -0.1428 -0.1804
19332W        W62385   7.823   8.823  23.147  0.1830 -0.1662 -0.3417
19333W        W62386   0.788  29.449  22.101  0.0610  0.2987 -0.3852
19334W        W62387   8.766   5.071   1.882 -0.3327 -0.0463  0.1036
19335W        W62388   6.132  31.703  14.635  0.2114 -0.2115 -0.2108
19336W        W62389  17.433   5.656  25.873  0.0301 -0.1086  0.2482
19337W        W62390   1.632  28.014  13.704 -0.2513 -0.2524 -0.1765
19338W        W62391   2.913  29.612  16.479  0.0993  0.0093  0.0986
19339W        W62392   3.732   1.426   3.963 -0.1207 -0.0612  0.1142
19340W        W62393   3.447   1.479  17.053 -0.0720  0.3032 -0.1506
19341W        W62394   4.372   7.534  28.262 -0.2225  0.2357 -0.1529
19342W        W62395   7.659  21.645  15.237 -0.2893  0.2111 -0.1197
19343W        W62396  11.023   5.597  16.633  0.0387 -0.1136  0.1210
19344W        W62397   3.788  10.475   3.848 -0.2134  0.0546 -0.2179
19345W        W62398  33.585  16.101   0.351 -0.3160 -0.0193  0.3306
19346W        W62399  15.965  32.944  15.023 -0.0640 -0.0541  0.1063
19347W        W62400  32.264   0.700  16.456  0.1785  0.0028  0.0898
19348W        W62401   6.614  25.644  28.627  0.0696 -0.0113  0.0171
19349W        W62402  10.072   0.950  28.337  0.3599 -0.1209 -0.0274
19350W        W62403  32.761  32.376  26.315 -0.0542 -0.1652 -0.0774
19351W        W62404   2.427  31.580  25.745  0.3740 -0.2703 -0.1775
19352W        W62405   3.634  27.703  21.032  0.3886  0.1373 -0.3125
19353W        W62406   4.414  20.464  15.799 -0.0300 -0.2616 -0.0536
19354W        W62407  31.160   2.754  21.052 -0.0583  0.0019  0.0950
19355W        W62408  11.761  20.425  15.873 -0.0672  0.2736 -0.0686
19356W        W62409  12.825  20.719  23.973  0.1654  0.0615  0.0578
19357W        W62410   0.392   3.379  27.970  0.0888 -0.2327  0.0126
19358W        W62411  15.843  33.862  25.355 -0.1506  0.2536 -0.0301
19359W        W62412  10.672  33.123  14.911  0.0000 -0.0294  0.0452
19360W        W62413   4.259   2.373  16.850  0.1524 -0.0037  0.0593
19361W        W62414  30.222   7.897  20.135  0.2301  0.0126  0.0270
19362W        W62415  32.424   7.544   6.737  0.1297 -0.0762  0.1344
19363W        W62416  33.554   3.817  16.195  0.0778 -0.0392 -0.3495
19364W        W62417  12.350  31.093  29.013 -0.0288  0.0527 -0.0536
19365W        W62418  25.046   2.426  23.036  0.2949 -0.2776 -0.3449
19366W        W62419  15.580  32.355  18.764  0.0762 -0.4616  0.0151
19367W        W62420   1.867  25.940  28.094 -0.0203 -0.0671  0.1262
19368W        W62421  29.364  17.162  23.589  0.1241 -0.1145  0.0210
19369W        W62422   4.791  11.418  27.606  0.3068 -0.0526 -0.0382
19370W        W62423   0.362  28.390  27.289 -0.0301 -0.2649  0.2351
19371W        W62424  15.346   3.690  18.050 -0.4186 -0.0654  0.1117
19372W        W62425  29.464   2.724   5.277 -0.0693  0.0999 -0.1154
19373W        W62426  26.027   2.163  17.352 -0.2476  0.0951  0.2590
19374W        W62427  30.826  27.068  29.185 -0.0202  0.2189 -0.4256
19375W        W62428  32.779   6.268  15.398  0.0538 -0.4265 -0.2760
19376W        W62429   6.548   9.939  19.723 -0.1041 -0.0202  0.1438
19377W        W62430   3.973   7.335  18.543  0.1651 -0.0536  0.3479
19378W        W62431  24.300   9.498  15.664 -0.2089 -0.0998 -0.3643
19379W        W62432  13.667  33.582  24.870 -0.0503  0.1561 -0.0680
19380W        W62433  12.787  12.976   2.728 -0.0988 -0.1606  0.3830
19381W        W62434   9.362  34.009   4.612 -0.2116  0.1430  0.1971
19382W        W62435  11.987  24.082  17.729 -0.0957 -0.5476  0.0016
19383W        W62436   1.195   0.058  13.865 -0.2958 -0.1638 -0.0164
19384W        W62437  13.766  33.018  19.738  0.0868  0.1082 -0.2703
19385W        W62438  17.032  30.699  23.350 -0.1095  0.0904 -0.0955
19386W        W62439  10.892   0.949  22.104 -0.5531 -0.0141 -0.2824
19387W        W62440   5.451  31.707  26.287  0.1565 -0.1591  0.1729
19388W        W62441  31.620  31.708  22.875 -0.0442 -0.1679 -0.0733
19389W        W62442  29.046   5.266   3.058  0.2275  0.1566  0.0169
19390W        W62443  32.346  34.521  20.925 -0.2247 -0.1011 -0.1031
19391W        W62444   8.579  23.269  14.654 -0.0294 -0.0538  0.2606
19392W        W62445  27.103  28.491   5.606 -0.0791 -0.0533  0.1886
19393W        W62446  34.022  31.248   8.370 -0.2452 -0.0518  0.1872
19394W        W62447  27.537   3.693   1.207 -0.3461 -0.0664  0.2876
19395W        W62448   8.687  19.554   0.802  0.1389  0.2193 -0.2041
19396W        W62449   3.709  32.724   6.891  0.1636  0.1176 -0.0778
19397W        W62450   5.861   4.991  17.174 -0.1608 -0.1766  0.0125
19398W        W62451  33.369  24.946  14.235 -0.0273  0.2650  0.0460
19399W        W62452  21.276   8.056  21.526  0.0297 -0.2307  0.2532
19400W        W62453  26.668   3.418  20.275  0.1623 -0.2111  0.1464
19401W        W62454  28.893  11.103  24.188 -0.0508 -0.0799  0.0193
19402W        W62455  10.515   8.618   8.602  0.0375 -0.2312  0.0299
19403W        W62456  32.095  27.664  13.386 -0.2399 -0.1161  0.4153
19404W        W62457   9.938  12.966  29.075  0.2832 -0.0906  0.0808
19405W        W62458  20.401  31.313  19.302  0.0068  0.2844  0.1025
19406W        W62459   4.468   2.136  22.962 -0.2650  0.2544 -0.2364
19407W        W62460   8.980  11.149   9.781  0.0311 -0.0711  0.3075
19408W        W62461  16.192  32.875  27.730  0.2718  0.1659  0.0396
19409W        W62462  31.961   5.262  16.505 -0.2713  0.2519 -0.1242
19410W        W62463   8.984  34.393  21.343 -0.2353 -0.1361  0.1454
19411W        W62464  17.599  24.753   8.057 -0.0019 -0.0002  0.1794
19412W        W62465  30.324   5.052  15.480  0.4472  0.0118 -0.2412
19413W        W62466  33.632  15.358  10.061 -0.1529 -0.3305 -0.2335
19414W        W62467   0.848  21.473  17.327  0.1131  0.0552 -0.1402
19415W        W62468   6.933  33.352  23.425 -0.0179 -0.0755  0.2547
19416W        W62469   1.904  30.331  15.487 -0.2814  0.0645  0.0583
19417W        W62470  10.404  21.528   3.578 -0.1576  0.0669  0.1451
19418W        W62471  25.189   2.835  22.038 -0.1746 -0.3836  0.0953
19419W        W62472  33.931   8.218  23.558  0.1684 -0.0477 -0.0032
19420W        W62473   1.895  28.260  22.890 -0.1863 -0.1966  0.3826
19421W        W62474  18.143   8.050   2.849 -0.1571  0.0860  0.2806
19422W        W62475   6.578  25.313   0.316 -0.3514  0.1757 -0.0649
19423W        W62476  17.687   2.988  17.321  0.3107  0.3249  0.3208
19424W        W62477   1.701   0.332   8.304 -0.0528 -0.3778  0.0304
19425W        W62478  12.013  31.389  20.417 -0.0055  0.0790 -0.2454
19426W        W62479   1.196  30.534  21.238  0.1410 -0.0079  0.0187
19427W        W62480  10.934  15.896   4.269 -0.1676  0.2762  0.0486
19428W        W62481  24.128   8.012  20.797  0.0587 -0.0602 -0.3649
19429W        W62482  13.325   0.292   4.000 -0.2106 -0.0680  0.2165
19430W        W62483  32.355  17.737   0.934 -0.1496  0.2351 -0.2356
19431W        W62484  28.852  19.981   7.130 -0.0443 -0.4212 -0.0648
19432W        W62485   4.628   5.716  17.890 -0.0175  0.3342  0.0162
19433W        W62486  13.485  32.172  15.614  0.0511 -0.1544 -0.0405
19434W        W62487  12.144  30.051  20.844  0.2366  0.1792 -0.1265
19435W        W62488  13.572   3.030   5.667 -0.0276 -0.0203  0.3135
19436W        W62489   9.981  18.142   7.468 -0.1259 -0.2545 -0.0153
19437W        W62490  27.440   6.332  23.106 -0.2049 -0.1294  0.0206
19438W        W62491  28.302  27.107   0.452  0.0301  0.0330 -0.1706
19439W        W62492  18.155  33.146  20.256 -0.0076 -0.1997  0.1565
19440W        W62493   4.626  13.008   2.782  0.0298 -0.1735  0.2969
19441W        W62494   7.854  34.623   9.738 -0.0021  0.0172 -0.2082
19442W        W62495  11.981  34.084  14.349  0.3406 -0.0528 -0.1259
19443W        W62496   4.618  21.032  14.351  0.0122  0.0715  0.2536
19444W        W62497  21.398   4.532   0.805 -0.1404 -0.0320 -0.1466
19445W        W62498  31.911  10.163   2.896  0.2470  0.2474 -0.3096
19446W        W62499  30.485   7.223  22.876  0.1909 -0.0364 -0.1013
19447W        W62500   4.100   9.707  24.705  0.0404 -0.1489 -0.0106
19448W        W62501   4.806  32.588   6.300 -0.3364  0.2903  0.1481
19449W        W62502  27.752  12.243  14.900  0.5005 -0.0359  0.4363
19450W        W62503  12.287  20.185  25.403 -0.4391 -0.2114  0.1588
19451W        W62504   8.132  21.706   3.609  0.1133  0.2624 -0.0210
19452W        W62505   0.621   1.827  14.850 -0.0082 -0.0793  0.2108
19453W        W62506  32.075   9.277   9.968 -0.0277 -0.1658 -0.0018
19454W        W62507   4.324  12.909   8.544 -0.4022 -0.2138  0.0119
19455W        W62508  10.570  25.411  20.757  0.2747 -0.0340  0.1924
19456W        W62509  29.773   5.080  28.700 -0.1263 -0.1313 -0.4765
19457W        W62510   7.703  17.924  17.776  0.0383  0.2005  0.0885
19458W        W62511   7.622  31.534   5.506  0.2653  0.0069 -0.0958
19459W        W62512   3.200   2.384  14.742 -0.3081  0.3422 -0.0175
19460W        W62513  25.981  30.405  21.178 -0.0669 -0.1101 -0.1276
19461W        W62514   7.212   7.902  23.769  0.0863 -0.1911 -0.0213
19462W        W62515   7.279  11.610   7.913 -0.1894 -0.4245  0.2112
19463W        W62516  20.688  30.752  18.342 -0.0754 -0.1462 -0.1247
19464W        W62517  28.229  23.616  18.921 -0.0874 -0.3307 -0.1443
19465W        W62518   5.741   3.936  17.830 -0.0646  0.2376 -0.0329
19466W        W62519  30.393  11.184  15.854 -0.0172  0.2027 -0.0952
19467W        W62520  25.162  17.276   3.030  0.2079  0.0123 -0.0809
19468W        W62521  32.156  21.672   2.926 -0.2961 -0.2818 -0.0738
19469W        W62522  30.105  34.181  22.549 -0.1194 -0.0134  0.1238
19470W        W62523   8.228  12.752  23.802 -0.2035  0.0999  0.0319
19471W        W62524   1.565  27.202   8.992 -0.1406 -0.1535  0.2558
19472W        W62525  23.147   0.371  18.533 -0.3031  0.4605 -0.1175
19473W        W62526  14.562  34.333   3.273 -0.1940 -0.2665 -0.0096
19474W        W62527  24.652  30.570  26.740  0.1305 -0.2404  0.1192
19475W        W62528  32.540  20.074  26.666 -0.1016 -0.1883  0.0846
19476W        W62529   4.704  32.343  22.968 -0.2675 -0.3167  0.0833
19477W        W62530  29.216   0.979  17.559  0.1089 -0.1177  0.0815
19478W        W62531  16.925   6.902   0.713  0.0953  0.3422 -0.0625
19479W        W62532  14.944  32.158  23.061  0.1036  0.5653  0.0653
19480W        W62533   6.827   8.398  25.073  0.4391 -0.0582  0.1640
19481W        W62534   8.440  10.073  26.574 -0.1057  0.1242 -0.2397
19482W        W62535   7.645  24.464  14.446  0.2466 -0.2167 -0.2122
19483W        W62536   2.563   9.875   2.434  0.1431  0.4019  0.2203
19484W        W62537  14.438  27.761   7.487 -0.1680  0.1302 -0.0549
19485W        W62538   1.060   6.875  16.470 -0.0147 -0.0611 -0.2964
19486W        W62539  12.153   3.490   2.218 -0.1828  0.3508 -0.1938
19487W        W62540  14.868  12.567  19.784 -0.0308 -0.1857  0.0741
19488W        W62541   9.306  12.401  25.779  0.1421  0.2750 -0.0447
19489W        W62542   7.954   0.422  27.629 -0.1224  0.1263  0.0886
19490W        W62543  12.347  33.721   8.232  0.0490  0.1517  0.2219
19491W        W62544  27.069   4.805  14.133 -0.1357  0.0484 -0.0461
19492W        W62545  27.599   8.031  24.006  0.1221  0.1723 -0.0800
19493W        W62546  15.064  11.538  24.143 -0.0444 -0.2254  0.0934
19494W        W62547  20.829  34.519   9.241 -0.0130 -0.2015 -0.2202
19495W        W62548   0.331   4.446   3.998  0.0151 -0.0303 -0.1174
19496W        W62549  17.166  23.935  20.514 -0.1758  0.2591  0.1600
19497W        W62550   3.918   6.030   6.231  0.4908 -0.0786  0.0116
19498W        W62551  30.936  28.548  23.104  0.1593 -0.0765  0.1438
19499W        W62552   5.909  32.033  17.734 -0.0451  0.3006  0.2286
19500W        W62553   1.301  34.422   3.778  0.0452 -0.0506  0.0408
19501W        W62554   2.870   5.452  20.031 -0.0242  0.0304  0.2570
19502W        W62555  15.493  25.459  21.499  0.1628 -0.0775  0.4189
19503W        W62556  10.940  33.340  26.043 -0.1827  0.0811  0.3052
19504W        W62557   7.915  23.479   9.291  0.2804  0.0385 -0.0286
19505W        W62558  30.135  31.651  16.078 -0.1245 -0.3425 -0.0647
19506W        W62559  10.160  23.136  29.048  0.0953 -0.1907 -0.0711
19507W        W62560   0.999  30.123  19.475  0.1677  0.1999  0.0674
19508W        W62561  12.827  19.780  27.876 -0.3407 -0.3142 -0.2284
19509W        W62562  32.056  28.606  28.308  0.4383  0.0261  0.0307
19510W        W62563  31.642  20.105   4.857 -0.6202 -0.0740 -0.1535
19511W        W62564  29.203  27.384  19.908 -0.1590 -0.1326  0.1237
19512W        W62565   0.637  22.669   0.906 -0.0010  0.1422 -0.2595
19513W        W62566  33.315  22.437  18.553  0.0394  0.0659 -0.1093
19514W        W62567   8.095  27.551  24.321  0.1095  0.1615 -0.1310
19515W        W62568  13.485   1.023   7.691 -0.1925 -0.3289  0.2211
19516W        W62569   5.756  11.336  20.099  0.3551 -0.0629  0.4027
19517W        W62570  31.815  34.602  25.136 -0.1590 -0.2027 -0.2720
19518W        W62571   6.423  28.485  16.081 -0.1309 -0.0135  0.2672
19519W        W62572  28.489  30.077   5.470  0.0738 -0.0917 -0.2528
19520W        W62573  30.181  32.101   2.674 -0.2933  0.2921  0.0169
19521W        W62574   7.371  13.414  15.185 -0.0555 -0.1821 -0.1930
19522W        W62575   6.405  15.217   6.826  0.0888  0.1337 -0.0361
19523W        W62576  14.611  29.696  24.077 -0.0844  0.1560  0.0960
19524W        W62577  34.569  30.031  15.009  0.1756  0.1579  0.0576
19525W        W62578   3.569   7.648  23.606 -0.2569 -0.0986 -0.2951
19526W        W62579  14.148  30.565   5.272  0.2438 -0.2442  0.2964
19527W        W62580  22.161  27.895  14.471 -0.0519 -0.1434  0.2523
19528W        W62581   0.263  15.130   4.540  0.0820  0.0178  0.0910
19529W        W62582   3.550  31.140  15.288 -0.2318  0.1508  0.1588
19530W        W62583  16.110  27.654   4.310  0.1746  0.3171 -0.0149
19531W        W62584  10.187  30.216   5.614 -0.0220  0.1242  0.1251
19532W        W62585  32.145  34.469  23.282  0.1904  0.3154  0.0867
19533W        W62586   8.521   0.498  17.280 -0.1445 -0.0553 -0.0345
19534W        W62587   6.807  19.526  28.959 -0.1236  0.0899  0.0749
19535W        W62588  32.568  33.905  25.079 -0.1007  0.1137  0.3447
19536W        W62589   7.614  32.796  19.395  0.0857  0.0773 -0.2361
19537W        W62590   7.195   3.451  26.870 -0.1184  0.1477  0.0954
19538W        W62591  11.215   3.780   1.223  0.1621  0.0480  0.3820
19539W        W62592  13.400   9.491  23.093 -0.0308 -0.0856 -0.0990
19540W        W62593   8.498   1.853  24.857  0.1644 -0.1025 -0.2247
19541W        W62594  34.502   4.399  24.573  0.0503  0.1452 -0.0983
19542W        W62595   7.850   7.861  24.830  0.2616  0.1114  0.0591
19543W        W62596  19.454  11.955  15.602  0.0388 -0.2628 -0.1539
19544W        W62597  10.768   2.891  16.467 -0.0380 -0.1436  0.1418
19545W        W62598  26.429   8.223  15.464  0.1000 -0.0089  0.1904
19546W        W62599   2.273  31.699  16.963  0.1249  0.0415 -0.0961
19547W        W62600  20.469  28.222  14.895 -0.0710 -0.1011 -0.3719
19548W        W62601  11.670  21.728  23.474  0.0022  0.1180 -0.2790
19549W        W62602  29.400  24.254  25.443  0.2107 -0.0512 -0.0233
19550W        W62603   5.350  12.258   0.779 -0.1923 -0.2673  0.0101
19551W        W62604  12.114  17.048  27.430 -0.1118 -0.0956 -0.0968
19552W        W62605  27.831  17.365  20.705  0.1138 -0.0608 -0.0917
19553W        W62606  25.934  28.101   3.034  0.4265 -0.2170 -0.0455
19554W        W62607   2.354  30.294  23.765 -0.2376  0.2691 -0.0706
19555W        W62608  27.470   0.021  15.414  0.2342  0.1171 -0.2340
19556W        W62609  26.189   3.366   7.017  0.1021  0.5139 -0.1113
19557W        W62610  27.266   2.803  28.964 -0.3040  0.0532  0.0315
19558W        W62611   2.805  22.344  20.796  0.1236  0.0857  0.3900
19559W        W62612  32.256  28.136   7.529 -0.2078 -0.0200  0.1474
19560W        W62613   0.607   3.241  24.308 -0.5416  0.1820 -0.1833
19561W        W62614   3.997  11.870  18.166 -0.0067  0.1090  0.1149
19562W        W62615   6.012  27.256   0.848  0.0680 -0.0865 -0.0143
19563W        W62616  16.647   3.924   0.744  0.1084  0.2800 -0.3115
19564W        W62617  30.405  34.174  20.446  0.1105  0.0121  0.1599
19565W        W62618  30.870  28.153  27.561  0.2198  0.0167  0.1764
19566W        W62619   2.346  30.408  13.435  0.3075 -0.0432 -0.0013
19567W        W62620   5.190   6.760  25.198 -0.1198  0.2665 -0.2956
19568W        W62621   2.711   0.453   8.508 -0.1500  0.0215  0.0050
19569W        W62622  28.958  11.866  22.581  0.0742 -0.1095 -0.0978
19570W        W62623   1.618   2.369  28.563 -0.2831  0.0614 -0.0997
19571W        W62624  25.807  25.134   1.592  0.0319  0.4755 -0.2377
19572W        W62625  27.250   3.693  24.800 -0.0672  0.2103 -0.2177
19573W        W62626   4.758   3.454  21.918  0.1153  0.0389 -0.0344
19574W        W62627  24.707  27.005  26.397  0.3294 -0.1884 -0.0655
19575W        W62628  12.235  27.342  21.245 -0.3199  0.2464  0.1040
19576W        W62629  22.206  29.909  26.166  0.0798  0.4557 -0.1545
19577W        W62630   8.329  23.385   1.284  0.2741  0.4172  0.0045
19578W        W62631   0.514  33.085  21.047  0.1143 -0.0592  0.3227
19579W        W62632  31.891   9.980  24.103 -0.1918 -0.1939 -0.0375
19580W        W62633  28.152   4.904  17.965 -0.0756 -0.2294 -0.0537
19581W        W62634  18.055   1.197   0.694  0.0852 -0.3030  0.1360
19582W        W62635  31.125  34.425  14.560 -0.2760  0.2501  0.1555
19583W        W62636  10.489  12.856   5.027 -0.0688 -0.1147 -0.1629
19584W        W62637   7.827  23.472  17.827  0.1069 -0.0669 -0.0616
19585W        W62638  29.811  30.735  19.612  0.0242  0.1759  0.0112
19586W        W62639   1.422  29.813  28.707  0.2185 -0.0110 -0.1636
19587W        W62640  33.743   3.158  14.124 -0.3079  0.1109 -0.0093
19588W        W62641   3.856  10.311  23.240  0.1707 -0.1136 -0.1115
19589W        W62642   4.867   9.118   3.970 -0.1983  0.0022  0.0133
19590W        W62643  29.602   9.095  26.318 -0.2249 -0.3048  0.1478
19591W        W62644  16.453  27.815  16.814  0.0343 -0.0424 -0.0839
19592W        W62645  13.801   0.735  21.477  0.2608 -0.4298  0.2836
19593W        W62646   9.655  30.431   6.261  0.1520  0.3934  0.0408
19594W        W62647   4.097  23.927  24.669 -0.1456 -0.1307  0.0285
19595W        W62648   1.502  10.664  22.757  0.0800  0.0411 -0.3447
19596W        W62649   6.322  29.195   1.545 -0.0450 -0.0401  0.0288
19597W        W62650  16.438   7.516  20.067  0.3708  0.0118  0.0298
19598W        W62651   5.636  14.249  19.193 -0.3829  0.1272 -0.0680
19599W        W62652   4.032  20.829  19.556 -0.3215 -0.4408 -0.0745
19600W        W62653   4.889  10.105  28.488  0.1040  0.1101  0.1186
19601W        W62654  30.883  28.401  15.112  0.0977 -0.1171 -0.0066
19602W        W62655   2.300  29.263  16.874 -0.1213  0.0152  0.1757
19603W        W62656  32.147   0.666   5.320  0.3061  0.0019  0.0643
19604W        W62657   8.334  27.722   1.161 -0.3613  0.0636  0.0460
19605W        W62658  18.736   4.922  16.467 -0.0939  0.0074 -0.2218
19606W        W62659  25.013   8.550  18.693  0.1154 -0.3061  0.0370
19607W        W62660  28.304   5.664  16.367 -0.2940  0.1437  0.1726
19608W        W62661   8.438  33.446   0.534 -0.0726 -0.0855  0.0662
19609W        W62662   1.878   1.160   2.004 -0.3293  0.1448 -0.1007
19610W        W62663  29.441  17.001  17.475  0.2109 -0.1484 -0.1958
19611W        W62664   8.788  21.276  13.406  0.2438 -0.0243 -0.0309
19612W        W62665   2.651   9.636  21.339  0.1899  0.0311 -0.1071
19613W        W62666  15.041  34.308  18.217  0.0500  0.2134 -0.0085
19614W        W62667  28.363   3.568  20.938  0.0378  0.1480  0.3452
19615W        W62668   7.070  34.235  19.452 -0.0459  0.1137  0.0643
19616W        W62669  19.337  10.205  22.472  0.0432  0.2287 -0.2570
19617W        W62670  13.110  34.377  17.201 -0.0058  0.0391 -0.1237
19618W        W62671   2.420   3.120  22.997 -0.3181  0.0454 -0.0148
19619W        W62672   7.375   7.760  28.216 -0.0868  0.1321  0.2479
19620W        W62673  31.464  31.151  18.217 -0.0470  0.1658  0.1717
19621W        W62674  12.541   6.432  20.506  0.2233 -0.1513 -0.0718
19622W        W62675  31.125   2.841  20.184  0.0821  0.0418  0.4422
19623W        W62676  23.080  34.180   1.537  0.0513  0.0216 -0.4812
19624W        W62677   9.435   7.504   1.961  0.2521 -0.4656  0.0017
19625W        W62678  27.912  10.948  19.715 -0.1037 -0.0943 -0.0872
19626W        W62679  28.978  21.787  25.160  0.3578 -0.1436  0.0332
19627W        W62680   7.103   6.443  21.946 -0.0757 -0.1849 -0.0091
19628W        W62681  34.393   0.627  14.249  0.2185 -0.4947 -0.0414
19629W        W62682  29.860   4.305  18.739  0.0718 -0.0435 -0.0176
19630W        W62683   3.691  13.866   6.578  0.2341 -0.0367  0.2770
19631W        W62684   1.615   9.278  21.448 -0.0673  0.1160  0.1256
19632W        W62685  22.146  33.663  15.282 -0.1788 -0.2560 -0.1034
19633W        W62686  19.407  25.495  24.830 -0.0478  0.3098 -0.0052
19634W        W62687   9.652   4.732  18.280 -0.1659 -0.1209 -0.0492
19635W        W62688  33.232   1.293  15.630  0.1271 -0.1555 -0.1777
19636W        W62689   4.482  34.133   1.432 -0.1866 -0.4564  0.3393
19637W        W62690  31.754   3.750  21.054 -0.1506 -0.2518 -0.0948
19638W        W62691  28.139  17.591   9.872  0.0731 -0.1502 -0.0023
19639W        W62692   4.642   3.185  22.341 -0.0372  0.3234  0.0522
19640W        W62693   2.179  15.892   5.645  0.2030  0.4074  0.0956
19641W        W62694  27.309  27.662   2.728  0.1954 -0.1074 -0.0109
19642W        W62695  31.333  34.458  18.515  0.0117  0.3162  0.0259
19643W        W62696  33.678  25.643  19.223  0.0224 -0.0586 -0.2348
19644W        W62697  27.605  29.456  21.138 -0.0044 -0.1078 -0.0125
19645W        W62698   2.063  16.726  21.777  0.0536 -0.1187  0.0028
19646W        W62699  18.512   4.386  16.288 -0.0531 -0.0923 -0.1059
19647W        W62700  31.077   0.484   6.886 -0.1568  0.1685  0.0536
19648W        W62701  14.996  29.603  10.018 -0.3442  0.2609 -0.5382
19649W        W62702   4.549  30.942  21.091  0.0643 -0.2247 -0.3060
19650W        W62703  22.730  27.256  18.800  0.1166  0.3505 -0.1635
19651W        W62704  18.031   4.800  25.751  0.0467  0.2088 -0.2546
19652W        W62705  11.000   1.365  19.594  0.0212  0.2177  0.0242
19653W        W62706   6.438  26.922   2.342  0.1285  0.0925 -0.0459
19654W        W62707   6.434   1.969  19.237 -0.0917 -0.0431  0.0781
19655W        W62708   2.542  33.461   4.969  0.1149  0.1372 -0.2801
19656W        W62709  29.415  30.178  23.774  0.0989 -0.1964 -0.1673
19657W        W62710   5.591  31.150  26.237  0.2357  0.1799  0.1803
19658W        W62711  33.820  34.538   6.324 -0.3859 -0.1101 -0.1119
19659W        W62712  10.279  32.480  24.336  0.1001 -0.2289 -0.0744
19660W        W62713  21.345  29.245  17.152 -0.2844  0.0214 -0.1753
19661W        W62714  14.402  17.266  23.723  0.0554  0.1894 -0.0490
19662W        W62715   1.802   1.441  17.188 -0.2107  0.1593  0.1085
19663W        W62716  32.302  21.972  19.447  0.1162  0.1413 -0.2627
19664W        W62717   4.823   0.087  28.137 -0.2534 -0.2903  0.3549
19665W        W62718  18.043  31.301   4.996 -0.2689 -0.2120 -0.2897
19666W        W62719  12.564   8.000  15.697  0.0917  0.2898 -0.1379
19667W        W62720  29.706   0.850   4.714 -0.2097 -0.2923 -0.1435
19668W        W62721   4.627  32.120   1.472  0.4000  0.1056  0.2947
19669W        W62722  30.268  33.470   0.659 -0.1112  0.1212  0.1041
19670W        W62723  28.612  21.107  23.558  0.0788 -0.1736 -0.1819
19671W        W62724  27.382   0.381  16.468 -0.0464 -0.0512  0.0217
19672W        W62725  10.379  31.177  26.053 -0.1259 -0.0177 -0.2782
19673W        W62726  17.477   0.529  15.252  0.0511 -0.2723 -0.1886
19674W        W62727  12.768   4.969  15.429  0.4366  0.2354  0.0143
19675W        W62728   3.309   7.511  27.199 -0.3060  0.0191 -0.0422
19676W        W62729   3.027   4.067   1.421  0.2508 -0.0806  0.1833
19677W        W62730  30.278   1.228  19.072  0.4578 -0.0395 -0.0794
19678W        W62731  24.613  33.801   8.255  0.1664  0.1279 -0.1128
19679W        W62732   1.967  27.180   1.185 -0.2376 -0.0316 -0.0244
19680W        W62733  10.182   0.652   1.798 -0.1156 -0.3347 -0.1558
19681W        W62734  22.201   0.061  17.732  0.1188 -0.0526  0.1046
19682W        W62735  32.479  29.461   7.802 -0.2287  0.0427  0.3160
19683W        W62736  32.702   8.850  21.859  0.1376  0.0056  0.0866
19684W        W62737  14.173  33.542   1.324  0.1255 -0.0818 -0.0148
19685W        W62738  11.115  33.314  27.990  0.2906 -0.3027  0.4779
19686W        W62739  12.424  30.733  17.909 -0.2337  0.1035  0.0353
19687W        W62740  24.502   7.483  20.849 -0.1670 -0.1407  0.1127
19688W        W62741  17.735  31.755  18.979 -0.1468  0.0473 -0.0605
19689W        W62742  24.954   3.297   2.432  0.0904  0.2393  0.1611
19690W        W62743   8.531  17.307   5.683  0.1060 -0.1371 -0.2472
19691W        W62744  13.613  29.345   2.388  0.0130 -0.1233  0.2396
19692W        W62745   3.211  10.481  19.381 -0.1066  0.1772 -0.3907
19693W        W62746  26.905  32.786   2.193  0.1513 -0.0352 -0.1580
19694W        W62747   2.908  29.300   6.834  0.2473 -0.0885  0.0674
19695W        W62748  18.511  28.919   8.045 -0.0325 -0.0868  0.1417
19696W        W62749  19.775   5.906  16.255 -0.0272 -0.1224  0.2446
19697W        W62750   8.658  10.978   0.857 -0.0872 -0.1986  0.2551
19698W        W62751  22.383   5.830   0.122 -0.3034  0.2426  0.0417
19699W        W62752   7.450   3.056  19.133 -0.3322 -0.3122  0.0814
19700W        W62753  28.037   3.171  28.683 -0.2614  0.3942  0.0487
19701W        W62754  33.216  18.022   4.900 -0.1178 -0.2252  0.3738
19702W        W62755   1.085  25.823  26.011 -0.1031  0.1157 -0.0864
19703W        W62756  30.389   3.910  23.262  0.2743 -0.0172 -0.0341
19704W        W62757  19.456  32.679  20.928  0.3202 -0.1657 -0.1990
19705W        W62758  29.641  34.048  28.698 -0.1820  0.1135 -0.2330
19706W        W62759  32.335  16.664  21.757 -0.1232 -0.2639 -0.0022
19707W        W62760  18.661  28.481   0.034 -0.0190  0.3417  0.0358
19708W        W62761   3.478  21.687  18.027 -0.0402  0.0133 -0.2038
19709W        W62762  23.384  31.523  25.709 -0.1959  0.2379  0.0289
19710W        W62763  12.493  31.863   0.360  0.3013  0.0631  0.1523
19711W        W62764   3.908  26.107   0.885 -0.0807 -0.2130 -0.1246
19712W        W62765  22.332  11.077  16.154 -0.0134 -0.3527 -0.0360
19713W        W62766  32.244  17.667   1.421  0.3859 -0.2407  0.0476
19714W        W62767  18.688   7.681  20.090 -0.2969 -0.2423 -0.0941
19715W        W62768  30.250   9.012  27.445 -0.1432  0.1130  0.1302
19716W        W62769   3.674   5.298   1.705 -0.1089 -0.3536  0.0113
19717W        W62770  21.395   8.410  22.118  0.0853  0.1357  0.1334
19718W        W62771  29.159  26.428  21.440 -0.0126 -0.0259  0.2197
19719W        W62772  15.883   8.616  18.264 -0.1182 -0.2297  0.0978
19720W        W62773  21.831   0.298   3.800  0.0469 -0.0629 -0.2207
19721W        W62774   7.399  32.171   7.554 -0.0078  0.0916  0.2575
19722W        W62775  32.722   6.933   4.274  0.0794 -0.1423 -0.2510
19723W        W62776  34.580  28.316   6.120 -0.0527  0.1572 -0.0921
19724W        W62777   7.168   1.746   4.544  0.1481  0.1432 -0.2298
19725W        W62778  12.760  33.470   9.515  0.0497 -0.0334  0.0435
19726W        W62779   2.564  33.229  22.846 -0.2226 -0.1031 -0.0671
19727W        W62780   2.039  26.352   8.303 -0.3068 -0.1399  0.0593
19728W        W62781  26.994   8.499   3.256 -0.2982 -0.1710 -0.3069
19729W        W62782  13.362  34.501   4.661 -0.1730  0.0401  0.0924
19730W        W62783  16.669  32.206  22.336 -0.1125  0.2386  0.0814
19731W        W62784   3.760   6.318  18.154 -0.1406 -0.1028  0.1487
19732W        W62785   4.806   9.294  16.111 -0.1346  0.0650  0.0610
19733W        W62786  18.576   1.572   2.829  0.1033 -0.1013 -0.2051
19734W        W62787   5.991  30.360  24.951 -0.1036 -0.2533 -0.1227
19735W        W62788  26.103   0.497   8.887 -0.0060  0.0735  0.3182
19736W        W62789  13.236  24.308  19.134  0.0328  0.2937  0.3221
19737W        W62790  13.479   9.289  26.387 -0.1668 -0.1096  0.0168
19738W        W62791  24.854   6.848   4.963 -0.0792  0.1245 -0.1864
19739W        W62792  33.380   8.841  20.083 -0.0579 -0.1470 -0.0004
19740W        W62793   9.814   4.354  25.323  0.2957  0.0270 -0.0671
19741W        W62794  32.135   3.163   6.113 -0.3088  0.1812  0.1904
19742W        W62795  11.196   7.998   5.995  0.0085 -0.2547  0.0204
19743W        W62796  30.943  11.864   4.611  0.2244 -0.0830  0.1770
19744W        W62797   3.246  24.655  17.309 -0.0275 -0.2440 -0.0339
19745W        W62798  16.465  11.905  24.480 -0.1459 -0.0794  0.3802
19746W        W62799  32.554   0.251  23.357  0.1444 -0.0304 -0.2044
19747W        W62800  17.573  29.712  19.257 -0.0499 -0.2997 -0.1953
19748W        W62801   6.911  33.756   0.202  0.0862 -0.1808 -0.0480
19749W        W62802  34.670  16.233  23.617 -0.0718  0.1151 -0.3698
19750W        W62803  14.643  17.688  26.274  0.3543 -0.1424  0.3017
19751W        W62804  28.022  27.104   1.320 -0.3513  0.0692 -0.1603
19752W        W62805  28.826  25.750  21.020  0.0462 -0.0615 -0.2502
19753W        W62806   1.536   5.612   8.663  0.1808 -0.0561 -0.0122
19754W        W62807  19.328  13.427  27.277 -0.0186 -0.3177 -0.0312
19755W        W62808  28.316  11.845   9.420  0.0838  0.2730 -0.2061
19756W        W62809  16.045  13.489  15.348 -0.0457  0.2020 -0.0329
19757W        W62810  33.998   0.427  22.988  0.2246 -0.1784 -0.0555
19758W        W62811  31.401  28.953   9.068  0.2199 -0.2540 -0.1542
19759W        W62812  14.918  28.186   3.081  0.0854 -0.1940  0.0255
19760W        W62813   3.461   6.942   2.036  0.0760 -0.2891  0.0930
19761W        W62814  31.055   7.343  28.673  0.0953 -0.0914 -0.0724
19762W        W62815  30.829   5.121   2.671  0.1714  0.1559  0.1678
19763W        W62816  17.208  10.513   7.438  0.0067 -0.0343  0.3396
19764W        W62817  10.634  29.543   2.398 -0.0291  0.0685  0.0031
19765W        W62818  29.353  17.264  24.689  0.0541  0.0828 -0.0907
19766W        W62819  21.128   4.136   0.018 -0.2590  0.0591 -0.0369
19767W        W62820  31.410  28.390  18.938  0.0373 -0.2599  0.3147
19768W        W62821  32.882  19.196  27.066 -0.0931 -0.1872  0.0149
19769W        W62822  33.134   0.270   8.869 -0.0225  0.0525  0.0217
19770W        W62823  12.595  26.547   6.606  0.0086 -0.0179  0.0857
19771W        W62824  32.095  33.821   4.529  0.3409 -0.1550 -0.0472
19772W        W62825   3.557  31.965   6.791 -0.3060  0.3841 -0.1012
19773W        W62826   4.280  34.067  15.113  0.0993  0.0000 -0.1708
19774W        W62827   0.284   7.321   8.216 -0.2471 -0.4052  0.1689
19775W        W62828   3.317  16.941  19.812  0.0005  0.0627  0.2978
19776W        W62829  11.156  32.538   1.372  0.2017 -0.2589 -0.1047
19777W        W62830  24.658  23.798  15.050  0.0842 -0.1070  0.0707
19778W        W62831   5.110  28.928   9.350  0.2373 -0.3171  0.0208
19779W        W62832  25.246   0.456   4.686 -0.1869 -0.1251 -0.1691
19780W        W62833   3.332  20.525  15.530  0.1010 -0.1613  0.1403
19781W        W62834   8.931   9.939   5.144  0.1023 -0.2047 -0.2288
19782W        W62835   9.888  31.606  25.850  0.1592  0.0685  0.0185
19783W        W62836  32.269  17.374  22.821 -0.2439 -0.2420  0.2704
19784W        W62837  11.145  29.919  27.179 -0.0729 -0.2533  0.2515
19785W        W62838  27.149  34.115   2.888  0.1063  0.0528 -0.1936
19786W        W62839  15.804  12.814  22.355 -0.2962 -0.2671 -0.0731
19787W        W62840   4.972  26.524  12.908  0.2356 -0.0803 -0.2917
19788W        W62841  22.834  33.789  26.822 -0.1126 -0.2910  0.0922
19789W        W62842  17.079  31.319  28.357 -0.2031 -0.3628  0.2567
19790W        W62843  25.237   7.873   2.127 -0.0269 -0.0652  0.2082
19791W        W62844   8.669  27.555  23.664  0.0103 -0.0053  0.0106
19792W        W62845   4.268   3.090   0.596  0.0974  0.0552  0.0236
19793W        W62846  34.588  30.582  18.707 -0.0384 -0.2110 -0.1014
19794W        W62847  30.339   6.615  10.242 -0.2789  0.4986  0.3513
19795W        W62848  23.402  26.593   2.057  0.0279  0.0408 -0.0604
19796W        W62849  33.624  28.226  28.311 -0.1071  0.0824 -0.0280
19797W        W62850  33.884  29.685   0.840 -0.1149 -0.3096  0.5256
19798W        W62851  27.893  19.437  23.199 -0.0546  0.2687  0.2518
19799W        W62852  31.141  34.157  16.820  0.0435  0.2901 -0.0434
19800W        W62853   2.965   8.650   8.583 -0.4284 -0.2471 -0.0178
19801W        W62854   8.406   2.521   6.110 -0.1954  0.0170  0.1139
19802W        W62855   1.047   0.617   7.888  0.1280 -0.0561 -0.0558
19803W        W62856   9.786  25.777   3.232 -0.0757 -0.1690 -0.0349
19804W        W62857   0.853  12.062  21.034  0.0937 -0.0042  0.1095
19805W        W62858   4.040  29.157   5.846 -0.1168  0.0061  0.0132
19806W        W62859  23.301  10.630   1.774  0.2222  0.0050 -0.1818
19807W        W62860   3.436  20.739  25.103  0.0866 -0.1566  0.2653
19808W        W62861  14.710  21.990  20.490 -0.1268  0.2425 -0.0483
19809W        W62862  21.666  12.446   4.349  0.3302 -0.1207 -0.0505
19810W        W62863  31.807  26.206  22.120 -0.0862  0.0252 -0.0098
19811W        W62864  28.827  31.569  26.115  0.1103  0.1053 -0.2703
19812W        W62865   4.013   7.835   8.182  0.2391 -0.2296  0.1123
19813W        W62866  27.403   2.759  13.943 -0.2352  0.0442  0.2165
19814W        W62867  31.251  21.318   8.091  0.2629 -0.0414 -0.1285
19815W        W62868   4.905   0.326   6.407 -0.1123 -0.2619  0.1663
19816W        W62869  30.880   3.946   8.532 -0.1944 -0.1916  0.2086
19817W        W62870  21.568  32.014  23.115 -0.1536 -0.2287 -0.0733
19818W        W62871  30.964  20.787  25.769  0.0285  0.1990  0.1068
19819W        W62872  34.443   7.790  21.298  0.2726 -0.1621  0.2242
19820W        W62873  12.258  34.470  21.585  0.1768  0.1253  0.3089
19821W        W62874  18.279  32.252  27.355  0.0639  0.1599  0.0218
19822W        W62875  31.397  29.829   3.486 -0.1999 -0.1162 -0.0433
19823W        W62876  23.001  30.499  29.033  0.0223  0.0374  0.1229
19824W        W62877   0.107   4.172   9.650  0.1022 -0.1270 -0.0953
19825W        W62878  15.583  11.166   7.002  0.3917  0.0133 -0.0033
19826W        W62879   3.643  31.005  25.224  0.0008  0.1631 -0.2293
19827W        W62880   7.956   7.994  28.944  0.0028 -0.0912  0.1366
19828W        W62881  11.261  29.097  21.792 -0.3802  0.1235 -0.2274
19829W        W62882   5.895   7.625   9.926 -0.1320  0.2342  0.0863
19830W        W62883   7.802  27.997  27.729 -0.0045  0.1469  0.2016
19831W        W62884  14.222   3.841   4.010 -0.0608  0.2810  0.2318
19832W        W62885   1.043   2.240   2.634  0.3111 -0.1282  0.1003
19833W        W62886  34.440   2.534   8.266 -0.1211  0.4592  0.1729
19834W        W62887   3.175  34.527  17.361 -0.0241 -0.3680 -0.1148
19835W        W62888   2.785  15.051  16.199 -0.2086 -0.1123 -0.2263
19836W        W62889  25.740  11.371  19.708  0.0594 -0.0824 -0.0035
19837W        W62890  28.320  27.260  19.876 -0.1811 -0.0423  0.0542
19838W        W62891  25.975  33.611   0.676  0.0956  0.3025  0.0160
19839W        W62892  22.469  27.849  23.081 -0.2888 -0.0067 -0.4429
19840W        W62893   9.115   4.315   0.480  0.2018  0.1022 -0.1068
19841W        W62894   5.548  22.029  28.657  0.0843 -0.1698  0.2324
19842W        W62895  32.752   6.946  16.698 -0.0355  0.0492 -0.2646
19843W        W62896  25.445   9.564  24.169  0.2160  0.0649  0.3115
19844W        W62897  20.824  10.755   1.539  0.0149  0.2388  0.1175
19845W        W62898  32.445  27.791   2.860 -0.1168 -0.0113 -0.1407
19846W        W62899  16.476  30.380   7.631  0.1099 -0.0879  0.0481
19847W        W62900  14.242   3.473  23.930 -0.2743  0.0609  0.2250
19848W        W62901  11.361   1.995  21.446 -0.2909  0.2122  0.0518
19849W        W62902  31.915   6.738  28.679  0.0479  0.0277  0.1476
19850W        W62903   5.623   8.169   5.895  0.1961 -0.0811 -0.2965
19851W        W62904  13.206  28.913   3.939 -0.0002 -0.0533 -0.0427
19852W        W62905   3.747  28.985  24.668  0.1797  0.0831  0.2340
19853W        W62906   4.372  16.111   8.285  0.1461 -0.2445 -0.0359
19854W        W62907  17.904  28.331   5.431 -0.0997  0.1546  0.2089
19855W        W62908  34.508  10.832  28.000  0.0595  0.0961 -0.1560
19856W        W62909   8.781   4.251  26.226 -0.2682 -0.0568  0.1132
19857W        W62910  20.915   2.387   4.564 -0.0318  0.4747  0.1388
19858W        W62911   6.863  18.589   1.457 -0.0048  0.0721 -0.2136
19859W        W62912  17.847   8.234   0.692  0.0489  0.0155 -0.1312
19860W        W62913  32.911   0.316   0.338  0.2713 -0.4342  0.1099
19861W        W62914   3.332   8.027  26.996 -0.5017  0.0379 -0.4310
19862W        W62915  21.051   0.239  20.374  0.0774 -0.1646 -0.0156
19863W        W62916   7.888  34.544   2.427  0.2927  0.2614  0.0344
19864W        W62917   5.266  16.533  27.455 -0.1208 -0.0174 -0.2665
19865W        W62918   1.618  17.993  14.566 -0.1452 -0.0718 -0.2998
19866W        W62919   0.398  13.370  14.509 -0.1022  0.0603  0.0281
19867W        W62920  33.441  20.722   6.087  0.2502 -0.0101 -0.3225
19868W        W62921   1.913  28.468  19.729  0.0455 -0.2520 -0.1165
19869W        W62922   0.660  20.078   1.125 -0.0781 -0.1408  0.1796
19870W        W62923   5.386  25.757  24.992  0.2467 -0.2787 -0.1097
19871W        W62924  20.778  31.949   1.120 -0.0694 -0.0634 -0.3938
19872W        W62925  29.529   2.189   9.794  0.0318 -0.0649  0.0543
19873W        W62926   4.964  23.162  26.363  0.0171 -0.0617 -0.0384
19874W        W62927   1.656  29.870   9.121 -0.0277  0.3704  0.0592
19875W        W62928  17.362   3.180   7.193  0.6260 -0.2146  0.1169
19876W        W62929   8.692   5.196   5.490  0.2531  0.1665 -0.1681
19877W        W62930  11.681   0.187  21.000  0.0788  0.0360 -0.1663
19878W        W62931  30.193  27.229  14.412  0.0941  0.1600  0.2412
19879W        W62932   3.120   8.624  19.870 -0.0017  0.3636 -0.0739
19880W        W62933   9.413  31.940  27.357  0.0362 -0.1987 -0.2674
19881W        W62934  31.692   5.868  16.117  0.0812  0.1926 -0.2301
19882W        W62935   7.815  27.459  13.983  0.0798  0.0998  0.0873
19883W        W62936   5.829   2.834  22.949  0.1009  0.0182 -0.2472
19884W        W62937   2.755   0.458  20.362  0.1511  0.0429  0.4485
19885W        W62938   6.728  11.338  16.471  0.1272  0.3983 -0.1432
19886W        W62939   6.471  24.802  29.186 -0.0388 -0.0976  0.0303
19887W        W62940  12.244  34.191   1.212  0.0323  0.0692  0.2106
19888W        W62941  14.708   6.863  20.743  0.0523 -0.0251  0.0526
19889W        W62942  24.983   8.987  23.822  0.2887 -0.0339 -0.1968
19890W        W62943   1.756  30.028  19.958  0.0560  0.0796  0.2163
19891W        W62944   4.569   9.399  14.700 -0.1703  0.4346 -0.2439
19892W        W62945   8.956   1.579   2.417 -0.1988  0.3293  0.4454
19893W        W62946  32.325   7.986  24.281  0.1138  0.0279  0.3157
19894W        W62947  24.357  33.557  26.496 -0.0484 -0.3330  0.4395
19895W        W62948   5.865   1.426  27.085  0.0612  0.0454 -0.0060
19896W        W62949  20.915  12.232  28.280 -0.0175 -0.2867 -0.0699
19897W        W62950  17.365   2.337   2.879  0.0608 -0.3123 -0.1254
19898W        W62951  29.456  27.020  19.074 -0.3066 -0.3124 -0.2864
19899W        W62952  26.023   9.725  17.541  0.1058  0.0094  0.0058
19900W        W62953   6.069   8.072   5.409 -0.0372  0.0703 -0.0523
19901W        W62954  31.817  13.749   9.699  0.1328 -0.0502 -0.2912
19902W        W62955  15.741  34.476   2.821 -0.0986 -0.0556 -0.3780
19903W        W62956   0.553   4.225   4.646 -0.0522  0.0148 -0.0591
19904W        W62957   0.658  33.362  24.007  0.0511 -0.1415  0.0728
19905W        W62958  25.334  24.573  19.685 -0.3008 -0.1282 -0.3894
19906W        W62959  19.299  33.988  13.962  0.3391 -0.2263  0.2294
19907W        W62960  10.257  18.692  15.787 -0.0389  0.1267  0.1582
19908W        W62961   6.729   6.189  21.713 -0.0355 -0.1292 -0.1124
19909W        W62962  11.385   0.023  25.442  0.0067 -0.0310 -0.0587
19910W        W62963  23.570  34.103  18.349  0.1520 -0.2875  0.2321
19911W        W62964  15.240  14.659  25.629 -0.0292 -0.0785 -0.1268
19912W        W62965  15.140   3.240  15.276  0.1934  0.1039  0.0611
19913W        W62966  12.401   2.796  28.097 -0.1090 -0.1125  0.1025
19914W        W62967  31.118   7.944  17.081  0.0351  0.1337 -0.1863
19915W        W62968  12.531  13.621  16.808 -0.2535 -0.1077  0.1195
19916W        W62969  26.219  20.333  24.402  0.2005  0.1043  0.1271
19917W        W62970  33.112   0.145  16.259  0.3222  0.0793 -0.1666
19918W        W62971   8.102  25.220  23.538  0.0892  0.2452 -0.0941
19919W        W62972  22.505  21.728  26.570  0.1169  0.3516 -0.3307
19920W        W62973  33.365  29.799  27.770 -0.0788  0.1946  0.2913
19921W        W62974  12.736   6.371  16.613  0.0141 -0.2116  0.0649
19922W        W62975   2.150   4.363  23.535 -0.0476  0.3679  0.4633
19923W        W62976   3.042   3.597  26.160 -0.2204 -0.1254  0.0202
19924W        W62977  18.206   4.374  23.159  0.0898  0.0465  0.1564
19925W        W62978  32.361   5.545  21.010  0.1950 -0.1697  0.0315
19926W        W62979   9.458   1.504  27.773 -0.2730 -0.1430 -0.1191
19927W        W62980  33.652  15.001  18.540 -0.1471 -0.1273  0.0977
19928W        W62981   2.130   0.771  19.086  0.2405 -0.0363  0.1547
19929W        W62982   4.957   4.664  16.338 -0.0179 -0.2314  0.1412
19930W        W62983  23.449  23.942  29.096 -0.0560 -0.1278  0.0541
19931W        W62984   4.758  33.293  16.634 -0.2325 -0.1381 -0.0470
19932W        W62985   5.570  31.711  16.831 -0.1118 -0.0708 -0.0938
19933W        W62986   3.288  26.132  17.205 -0.0768 -0.1456  0.1687
19934W        W62987  13.627   1.411  18.330  0.0721 -0.2769  0.1967
19935W        W62988  34.579  26.112  13.717  0.7429 -0.0927 -0.1388
19936W        W62989  11.458  25.619  23.682 -0.2601 -0.0670  0.0303
19937W        W62990  32.180  20.330  26.167  0.2023  0.1111  0.0206
19938W        W62991   9.954   8.855  14.254  0.0424 -0.1040  0.0259
19939W        W62992  10.981   4.399  15.413 -0.0441 -0.1324  0.0098
19940W        W62993  33.814  33.965  18.193  0.0298  0.0024  0.0431
19941W        W62994  31.457  20.912  16.753  0.1398 -0.2604 -0.5486
19942W        W62995  28.802   1.137   0.769  0.0186 -0.3877 -0.1120
19943W        W62996   9.924   5.839   4.590 -0.0996 -0.2338 -0.0847
19944W        W62997  23.843  31.409   6.163  0.1726 -0.2638  0.3381
19945W        W62998   2.501  31.405   1.248  0.4091  0.0784 -0.4661
19946W        W62999  11.622  32.421  14.680 -0.0700  0.0815 -0.1671
19947W        W63000   6.394  12.076  28.193 -0.2461  0.0709 -0.1737
19948W        W63001   5.471   3.364  23.543  0.0723  0.0122  0.1046
19949W        W63002   5.854  12.489  22.259 -0.2913 -0.0649  0.1797
19950W        W63003  19.322  32.676  17.237 -0.0305  0.0630 -0.0674
19951W        W63004   6.296  30.693  20.505  0.1561 -0.0449 -0.1078
19952W        W63005   9.716   7.474  25.481 -0.0100  0.0191 -0.0460
19953W        W63006   4.392  26.629  28.838 -0.3263  0.0460 -0.3298
19954W        W63007   5.712  32.916  22.560  0.3204 -0.0162  0.1901
19955W        W63008   6.325   9.612   1.334 -0.0311 -0.2322 -0.2620
19956W        W63009  24.852  20.481  15.028 -0.3651 -0.0351  0.1318
19957W        W63010   4.282  24.479  13.628 -0.2514 -0.2772 -0.0828
19958W        W63011  29.297  34.519   5.712  0.2716  0.1159  0.0318
19959W        W63012  18.244   6.671  23.215  0.0390  0.4039  0.3219
19960W        W63013  32.430   2.501  26.647  0.1321 -0.3214  0.0353
19961W        W63014   7.311   5.563  22.077 -0.1743  0.2393 -0.1508
19962W        W63015   0.080   9.613  16.640 -0.0932 -0.0946 -0.0429
19963W        W63016   8.861   0.727  24.136 -0.2893 -0.2585 -0.0341
19964W        W63017  30.682   2.813  21.198 -0.0343 -0.2197 -0.2863
19965W        W63018  32.017   7.489   1.873 -0.2853 -0.2577  0.1441
19966W        W63019   5.083  24.039  14.624  0.2956  0.0420 -0.1210
19967W        W63020  14.702   9.180  24.756  0.1213  0.1958  0.2058
19968W        W63021   3.089  30.141  16.739 -0.0967  0.2293 -0.2232
19969W        W63022  34.454  34.326  22.039  0.1207  0.0702  0.3437
19970W        W63023  13.372   2.760  18.565 -0.2328  0.2131  0.1304
19971W        W63024   3.268   2.443  20.040 -0.0953  0.0175  0.0717
19972W        W63025   7.385  32.102  17.971 -0.0597 -0.0445 -0.0941
19973W        W63026  30.470  15.330  19.976 -0.0925  0.1823 -0.1512
19974W        W63027   9.642  17.244  25.221 -0.0654 -0.0076  0.2406
19975W        W63028  11.279  33.702   3.647  0.1532 -0.1127  0.0337
19976W        W63029   7.649  29.864  18.354 -0.0755 -0.0502 -0.1220
19977W        W63030  20.844  25.907  18.002 -0.0116 -0.1816 -0.1264
19978W        W63031  27.147  12.855  13.708  0.1563  0.1820  0.1283
19979W        W63032  11.793  10.578   3.644 -0.0469  0.2224  0.1526
19980W        W63033   9.223  31.375  19.870 -0.1926  0.1755 -0.1127
19981W        W63034   0.542   1.164  25.852  0.3515  0.0617  0.1719
19982W        W63035  14.558  21.465  24.040  0.2119 -0.3137  0.0465
19983W        W63036  12.333  31.910  15.121  0.0065  0.0071  0.0094
19984W        W63037  20.122  16.600  21.259 -0.4377  0.1428  0.0131
19985W        W63038   0.496   2.253  24.743  0.1685 -0.4293  0.4212
19986W        W63039  31.721   7.325  14.426  0.2520  0.2736  0.1006
19987W        W63040  26.069   9.599  24.872  0.1996 -0.1097  0.1982
19988W        W63041   0.471   0.261  19.628 -0.2907 -0.0722 -0.2128
19989W        W63042  25.872   0.866  16.535  0.3560  0.1429  0.3909
19990W        W63043   3.074  32.613   9.744  0.0971 -0.2131 -0.2069
19991W        W63044   3.133   4.373  16.291 -0.1702 -0.3681 -0.0317
19992W        W63045  30.814  10.483  20.314  0.0548  0.0723 -0.1861
19993W        W63046  30.107   9.483  17.909 -0.2790  0.1599 -0.1520
19994W        W63047   8.490  33.490  14.484  0.0466 -0.0379 -0.0858
19995W        W63048  10.077  33.217  20.311  0.1585 -0.3701  0.0317
19996W        W63049  14.793  27.249  18.293 -0.2594  0.0977 -0.1858
19997W        W63050   1.661   7.474  16.757 -0.1298 -0.1472 -0.2663
19998W        W63051   4.013   2.942  13.669 -0.0599  0.1632 -0.3924
19999W        W63052  29.420  15.527  14.928 -0.2012 -0.0066 -0.0906
20000W        W63053  24.294  23.698  16.281  0.0945 -0.0778 -0.1945
20001W        W63054  11.388  34.677  22.240 -0.0927  0.2296 -0.2154
20002W        W63055   9.591  14.827  16.864 -0.3625  0.0626  0.1826
20003W        W63056  20.144   3.544  22.927  0.2751 -0.1834  0.1322
20004W        W63057  22.321   6.948  20.272 -0.2848 -0.0971  0.1251
20005W        W63058   4.400  28.461   0.042  0.1531 -0.0148  0.0818
20006W        W63059   5.252   5.431  15.001 -0.1206 -0.0429 -0.1307
20007W        W63060   3.829  11.444  28.747 -0.0062 -0.1720  0.0545
20008W        W63061   3.019   7.926  21.859  0.1718 -0.2922 -0.3824
20009W        W63062   5.154   4.728  27.103  0.0134 -0.3936 -0.0135
20010W        W63063  13.248   2.680  23.453  0.0478  0.3869  0.0499
20011W        W63064   4.655  33.725  19.079 -0.1311  0.0516 -0.0719
20012W        W63065   5.826  29.670  20.001  0.1375  0.1824 -0.1398
20013W        W63066   8.854  27.131  15.177  0.1148  0.2389  0.4048
20014W        W63067  28.032  11.744  14.190  0.1055  0.0283 -0.1067
20015W        W63068   4.662  29.113  13.782 -0.0272  0.3318 -0.0371
20016W        W63069  25.542   2.424  25.448  0.2749  0.0781  0.2944
20017W        W63070   8.670   3.652  24.981  0.0741  0.2339  0.0396
20018W        W63071  15.809   7.851  18.032  0.0465 -0.1699  0.1179
20019W        W63072  33.241   8.327  20.218  0.0631  0.1801  0.2992
20020W        W63073   8.326  25.180  26.438 -0.1587 -0.1636 -0.0395
20021W        W63074  19.620  29.359  17.100 -0.4099 -0.0050  0.1262
20022W        W63075   2.432  18.046  24.609 -0.0388 -0.0044 -0.0472
20023W        W63076  29.757   5.290  24.563  0.1963 -0.0093  0.0187
20024W        W63077  33.232   4.577  13.901  0.2967  0.0678 -0.0511
20025W        W63078  28.865  30.212  22.551 -0.1360  0.2543 -0.0882
20026W        W63079   9.600  34.221  26.990  0.1707  0.0226 -0.2901
20027W        W63080  30.518  23.456  22.209 -0.0242  0.0076  0.1525
20028W        W63081   4.666   4.538  16.764 -0.1925 -0.3521  0.2905
20029W        W63082   3.101  19.133  18.098  0.2888  0.0312  0.3522
20030W        W63083   3.913   8.676  27.514 -0.2138  0.1904  0.0597
20031W        W63084   2.223  22.667   6.083 -0.1796  0.0522  0.0557
20032W        W63085  21.673   0.018  24.815 -0.2125  0.0241 -0.1857
20033W        W63086   9.666  29.814  12.836  0.1038 -0.5310 -0.0253
20034W        W63087  24.582   9.607  15.279 -0.1109 -0.3505  0.0429
20035W        W63088   2.465  34.119  23.541  0.1941 -0.0431  0.0036
20036W        W63089  29.574  12.713   0.143 -0.0937  0.2703  0.3817
20037W        W63090  23.486  22.706  24.328 -0.0638 -0.3682 -0.1192
20038W        W63091  13.373  29.780  19.019 -0.0865  0.0273 -0.2337
20039W        W63092   7.261  27.870  17.620 -0.0975 -0.0812  0.4805
20040W        W63093   9.138   3.027  25.351 -0.1028  0.0618 -0.0213
20041W        W63094  18.636  21.779  26.715 -0.0382 -0.2416 -0.0045
20042W        W63095   6.027   7.572  23.874  0.2767  0.2855 -0.0977
20043W        W63096  14.013   4.904  26.306  0.1918  0.3354  0.2324
20044W        W63097  15.345   4.550  26.893  0.1119 -0.0421  0.1071
20045W        W63098  16.910  24.387   0.003 -0.4240  0.3749  0.1315
20046W        W63099   5.749  22.214  19.084 -0.0396 -0.0392 -0.1140
20047W        W63100   6.590   5.959  20.559 -0.1740  0.0307 -0.1321
20048W        W63101   6.792   6.264   4.438 -0.3599 -0.1968  0.1589
20049W        W63102  15.511   6.845  23.854 -0.0218 -0.2539  0.0052
20050W        W63103   8.538  33.605  24.466 -0.0376  0.1499 -0.4531
20051W        W63104  14.739  16.293  13.410 -0.3519 -0.0812 -0.2835
20052W        W63105  13.574  33.292  19.229  0.2467 -0.1184  0.1715
20053W        W63106  15.525  11.108  15.346 -0.2001 -0.0872 -0.3879
20054W        W63107   9.795   3.299  29.136 -0.0628 -0.0368  0.2055
20055W        W63108  18.538   5.772  23.067  0.2484  0.0633 -0.1242
20056W        W63109  11.916   5.526  16.198  0.1277  0.0203  0.1754
20057W        W63110   0.244   4.122   1.514  0.2041 -0.2216 -0.1268
20058W        W63111  24.126  32.748  16.965 -0.0370  0.0960  0.1532
20059W        W63112  11.498  32.961  15.711  0.0756  0.3627  0.0802
20060W        W63113   8.524  25.950  24.152 -0.1667 -0.1900 -0.2946
20061W        W63114   7.960  17.099  16.185 -0.3584 -0.1743  0.0678
20062W        W63115  33.520   5.168  17.038  0.2282 -0.2404  0.1648
20063W        W63116   9.928   0.279  10.547 -0.0338  0.3701 -0.0916
20064W        W63117   1.061  26.529  15.284 -0.0308 -0.1488  0.0057
20065W        W63118   8.831   1.461  16.297 -0.0696  0.2525 -0.4687
20066W        W63119   9.143  30.674  19.318 -0.0066  0.3058  0.1412
20067W        W63120   5.362   4.289  17.687 -0.0409 -0.0555  0.0054
20068W        W63121  11.964   8.003  17.182  0.0586  0.2836 -0.0463
20069W        W63122  31.146  30.677  17.947  0.0947  0.0851  0.4051
20070W        W63123   5.339  17.828  13.965  0.1017 -0.1147 -0.0387
20071W        W63124   4.729   1.633  27.722  0.1143 -0.0600  0.0702
20072W        W63125   6.098   3.317  25.730 -0.4171 -0.1857  0.0094
20073W        W63126  15.345  22.758  19.088  0.0651 -0.2784 -0.0994
20074W        W63127  29.349  30.929  19.861  0.0964 -0.0847 -0.0950
20075W        W63128   6.422  33.841  16.328 -0.0627  0.3801 -0.1859
20076W        W63129  30.859  31.243  21.973 -0.4092 -0.0788  0.2957
20077W        W63130   6.913   3.460  14.351 -0.1831  0.0495 -0.0165
20078W        W63131   4.911   9.471  29.085  0.2174  0.0771 -0.2312
20079W        W63132  10.272   4.984  27.053  0.1550  0.1608  0.4340
20080W        W63133  10.312  19.450  16.882  0.2893 -0.1213 -0.0288
20081W        W63134   8.334  33.067  16.958 -0.1830 -0.0021  0.1842
20082W        W63135   2.307  34.312  18.652  0.3767 -0.0077  0.0409
20083W        W63136  28.189  14.308  22.336  0.0221  0.1909 -0.1454
20084W        W63137   1.338  25.384  18.660  0.2445 -0.1452  0.0916
20085W        W63138  13.290  31.432  18.740  0.0311  0.0189  0.1734
20086W        W63139  14.577   5.964  18.054  0.3138  0.0328  0.0490
20087W        W63140   4.372  29.207  14.197 -0.1181 -0.2052 -0.0280
20088W        W63141  17.018   2.015  21.646  0.0081  0.0748  0.2405
20089W        W63142   9.811  10.069  19.787 -0.2257  0.0718 -0.0080
20090W        W63143   1.229   1.540   1.128 -0.1118 -0.0124 -0.1314
20091W        W63144   5.274  24.430  16.022 -0.1957 -0.2739  0.0454
20092W        W63145  22.871  23.203  18.955 -0.2640  0.3536  0.2395
20093W        W63146  32.613  33.357  23.423 -0.2031 -0.2905  0.1760
20094W        W63147  33.652   4.274  23.485  0.2006 -0.1388  0.2088
20095W        W63148   6.238   5.277  17.061 -0.1372  0.3227  0.1807
20096W        W63149  19.307  14.092  15.225  0.3339 -0.0638  0.0019
20097W        W63150   2.546  27.413   2.546 -0.0560  0.4278  0.0314
20098W        W63151   4.883  12.301  25.325  0.4682  0.4960 -0.0032
20099W        W63152   9.023   8.554   1.643  0.0867  0.1502  0.0310
20100W        W63153  30.746  16.484  16.447 -0.1225  0.0136  0.2038
20101W        W63154   6.564   9.627  28.489  0.0460 -0.0682  0.1679
20102W        W63155  22.705  23.791  23.630 -0.1633  0.0096 -0.2060
20103W        W63156   5.538  25.294  26.434  0.0605  0.0417 -0.0858
20104W        W63157  18.202   4.290   0.193 -0.1707  0.2963  0.2526
20105W        W63158   4.878   4.561  27.493 -0.3254  0.0525  0.0894
20106W        W63159   3.649  11.740  20.944  0.2124 -0.0435  0.0066
20107W        W63160   6.340  21.642  16.360  0.2772  0.1530  0.2024
20108W        W63161  13.573  31.296   3.031 -0.2045 -0.0269 -0.0998
20109W        W63162  15.527  16.825  15.601  0.0071 -0.3082 -0.1324
20110W        W63163   6.663   5.320  29.066 -0.1098 -0.0582 -0.0229
20111W        W63164   0.483  14.913  22.899 -0.3491  0.3965  0.1601
20112W        W63165   2.965   2.791  14.497  0.1156 -0.1022 -0.0190
20113W        W63166  10.230   6.709  24.311  0.0250  0.0734 -0.2657
20114W        W63167   1.466   0.920   2.438 -0.0603  0.0110  0.0860
20115W        W63168  31.509   7.468  17.751  0.3326  0.0186 -0.0865
20116W        W63169   5.239  13.329  26.924 -0.0752 -0.1461 -0.0732
20117W        W63170   9.197  12.693   0.387  0.0313  0.1795 -0.1175
20118W        W63171  18.386   7.823  23.773  0.0363  0.1008  0.1498
20119W        W63172  20.977   1.167  26.750 -0.0706 -0.0847 -0.0852
20120W        W63173  33.554  30.531  27.048 -0.0306  0.0155  0.0101
20121W        W63174  29.792   7.876  20.449 -0.0242  0.1241  0.0125
20122W        W63175   9.196  13.737  19.551 -0.2066 -0.3095  0.1733
20123W        W63176   8.716   2.927  18.137 -0.0731  0.0425 -0.1319
20124W        W63177   8.785  29.181  16.407 -0.1450  0.0167 -0.0294
20125W        W63178  17.408   9.197  21.372 -0.1915  0.1223 -0.1755
20126W        W63179  17.373  33.018  24.086  0.1881 -0.1696  0.1240
20127W        W63180  15.448   7.983   7.430 -0.2893  0.0776 -0.1673
20128W        W63181  29.946   6.980  17.477 -0.1042 -0.0904  0.3789
20129W        W63182   9.193  30.147  23.523  0.0943  0.0684 -0.3245
20130W        W63183   4.546  11.893  20.819  0.1381 -0.0125 -0.3034
20131W        W63184  33.486  30.037  14.919  0.2902 -0.2584  0.2043
20132W        W63185   2.123  22.000  21.568  0.0153  0.1004 -0.3844
20133W        W63186   8.081  18.245   0.922  0.1715  0.0263 -0.1091
20134W        W63187   2.798  32.660  23.598  0.3184  0.2327 -0.0214
20135W        W63188  15.771  32.522  21.122 -0.0733 -0.0839 -0.1291
20136W        W63189   6.875   4.098  28.446  0.2591 -0.1214 -0.1440
20137W        W63190  33.006  31.109  26.902  0.1234 -0.3406 -0.0051
20138W        W63191  31.116   2.388  13.678 -0.1914 -0.3920 -0.2332
20139W        W63192  32.273  31.968  17.049 -0.0317  0.2129  0.1689
20140W        W63193  31.692  10.538  18.965  0.0437  0.1450  0.3501
20141W        W63194  24.517   3.466  19.354 -0.3094  0.1940 -0.2018
20142W        W63195  18.975   1.688  24.577  0.2736  0.0314 -0.0240
20143W        W63196  34.141  12.959  17.941 -0.3935  0.2633 -0.0939
20144W        W63197   5.325  16.368  16.132  0.1562 -0.3857  0.2072
20145W        W63198   8.294  31.685  18.038  0.0681 -0.0924 -0.2609
20146W        W63199   8.806  16.054  13.996 -0.0024 -0.3039 -0.2270
20147W        W63200   7.493   2.253   2.946 -0.0684 -0.0913 -0.0110
20148W        W63201   6.022  31.115   8.309  0.1247  0.0386  0.1310
20149W        W63202  18.602  21.891  15.390  0.2358  0.0708  0.3211
20150W        W63203  26.510  11.793  17.757 -0.1009 -0.2262 -0.3771
20151W        W63204   5.222  21.026  22.693 -0.1860 -0.0978  0.1091
20152W        W63205   9.743   9.627  21.180  0.2272 -0.0424 -0.2297
20153W        W63206  11.980   6.004  16.751  0.3481  0.4301 -0.1298
20154W        W63207   7.147   0.638  26.305  0.0131 -0.0657 -0.0279
20155W        W63208   3.982   9.733  17.096  0.0795  0.1201 -0.1022
20156W        W63209   4.171  15.522  16.444 -0.1332  0.1037 -0.0688
20157W        W63210   7.106   6.186  15.803  0.0425  0.1900 -0.2724
20158W        W63211  32.868  26.908  16.176 -0.0505  0.0704 -0.1766
20159W        W63212  26.016   3.145  24.057  0.1368 -0.0287 -0.0602
20160W        W63213  11.184  10.161   0.060 -0.1397 -0.3285 -0.1424
20161W        W63214  10.935  26.800  16.622 -0.1467 -0.1925  0.0981
20162W        W63215  18.031   2.909   4.798  0.1791 -0.3707  0.1396
20163W        W63216  12.185  13.939  17.030  0.2495 -0.1765  0.1543
20164W        W63217  12.271  10.480  27.254  0.0173 -0.0125  0.1400
20165W        W63218  23.782   2.964  15.197 -0.0593 -0.2109  0.0713
20166W        W63219  18.503  32.759  25.731  0.2689 -0.2395 -0.1267
20167W        W63220  32.807   7.870  14.977  0.2033  0.2593 -0.2442
20168W        W63221   3.609   4.228  16.371  0.1317  0.2247  0.1501
20169W        W63222   8.313   7.613  17.086  0.4305  0.0405  0.1438
20170W        W63223   3.949  28.156  27.844  0.0490  0.0329  0.1860
20171W        W63224   0.500  31.519  19.303 -0.3412  0.1753  0.0439
20172W        W63225  32.759  11.266  26.332 -0.1114  0.0911 -0.0105
20173W        W63226   1.522  16.187   3.759 -0.1455  0.3658  0.1012
20174W        W63227  11.539  21.607  21.054 -0.3099  0.0487  0.0608
20175W        W63228  29.500   5.561  28.862  0.1851  0.1791 -0.1009
20176W        W63229   8.600   0.181  14.269 -0.0612  0.1015 -0.3371
20177W        W63230  34.351   0.189  22.695  0.0597 -0.1289  0.1989
20178W        W63231  25.711  32.676  18.449 -0.1603  0.2841 -0.0899
20179W        W63232   7.240  31.028  25.950 -0.0708 -0.0286  0.3168
20180W        W63233   9.052  13.256   1.839  0.0331 -0.1674  0.0366
20181W        W63234  33.666   0.924  25.362  0.1282  0.0924  0.2122
20182W        W63235  32.683  30.584  15.168 -0.1089 -0.0362  0.0253
20183W        W63236  32.516   2.672  16.418 -0.0853 -0.0117  0.0330
20184W        W63237   5.176  17.892  16.575 -0.3814  0.3998 -0.1384
20185W        W63238   4.136  16.493   3.349  0.0118 -0.0804  0.2586
20186W        W63239   8.895  27.630  21.284  0.2727 -0.3973  0.1599
20187W        W63240   9.191  30.941  13.805 -0.1131  0.0949 -0.1465
20188W        W63241  10.561   5.868  27.993  0.0532 -0.2982  0.0607
20189W        W63242  18.130  24.485  16.063  0.1098  0.0127 -0.0369
20190W        W63243  32.404  33.690  18.741  0.1344 -0.0112  0.0035
20191W        W63244   2.728   1.409  17.846  0.0009  0.1441 -0.0026
20192W        W63245   8.245  31.735  16.526 -0.1497 -0.2218 -0.0318
20193W        W63246   2.834   5.157  14.913  0.0590  0.1329  0.1917
20194W        W63247   7.344   5.627  17.073 -0.0356  0.1182  0.0915
20195W        W63248  32.320  23.548  16.638 -0.0662 -0.0112  0.0874
20196W        W63249  22.440  29.426  14.418 -0.1842  0.1836  0.0743
20197W        W63250  12.672   6.240  28.368 -0.1109  0.2611 -0.0502
20198W        W63251   7.618   6.642  16.427 -0.0364  0.0315  0.1560
20199W        W63252  22.616  31.591  23.151 -0.0919  0.1719 -0.2032
20200W        W63253  10.769   4.006  27.933 -0.2239 -0.0379  0.0513
20201W        W63254  30.793   8.840  22.554  0.2777  0.0492  0.1562
20202W        W63255  14.477  15.658   1.689  0.2215 -0.1851  0.0388
20203W        W63256   3.674  24.077  21.357  0.1286 -0.0141 -0.0710
20204W        W63257  26.937  31.199  16.812 -0.0400 -0.2865  0.1634
20205W        W63258  29.407  33.153  15.804 -0.0680 -0.0542  0.1750
20206W        W63259  26.720   5.499  17.436  0.1793  0.1981  0.4960
20207W        W63260  13.496  30.988  18.310  0.2448 -0.2491 -0.0020
20208W        W63261  33.642   7.612  18.052 -0.0357  0.3816  0.3375
20209W        W63262  30.287  13.936  18.521  0.0252 -0.1414 -0.3378
20210W        W63263   6.248   4.322  27.535  0.3035 -0.3015  0.0326
20211W        W63264  23.789   1.304  24.368 -0.4156 -0.0487 -0.2748
20212W        W63265  10.048  29.897  20.670 -0.0788  0.5720  0.0614
20213W        W63266  32.055  34.372  24.155  0.0508  0.1876 -0.0896
20214W        W63267   7.356   1.900   0.729  0.0694 -0.1277 -0.0772
20215W        W63268  30.120  13.229  17.719  0.0539  0.1010  0.2636
20216W        W63269  27.924   1.994  21.340 -0.2364  0.2049 -0.0735
20217W        W63270  19.947  34.229  17.721 -0.1453 -0.0770 -0.0729
20218W        W63271   5.440  11.082  17.933 -0.0265 -0.0905  0.2909
20219W        W63272   4.860   8.325  21.408 -0.0234  0.3473 -0.1078
20220W        W63273   8.625   8.254  23.956  0.2018 -0.1012 -0.1338
20221W        W63274  31.995  29.174  14.808  0.1524  0.1489  0.2900
20222W        W63275   5.977   5.103  20.863 -0.0147  0.1752 -0.0840
20223W        W63276  13.269   7.354  25.610 -0.1947 -0.0089 -0.1170
20224W        W63277  24.153   6.394  21.824  0.0598 -0.1343 -0.0357
20225W        W63278  12.625  21.663  19.197  0.1163 -0.0425 -0.0940
20226W        W63279  10.605  15.764  16.851  0.0900 -0.4286 -0.0569
20227W        W63280   7.353  15.527  24.369 -0.1704  0.5405  0.0836
20228W        W63281   1.642   1.836  22.457 -0.0707  0.0452 -0.1152
20229W        W63282  29.679  32.979  23.481 -0.2672  0.3446 -0.0296
20230W        W63283   9.318  33.080  20.444  0.0761  0.1339  0.0180
20231W        W63284   5.879  27.379  15.579  0.0532 -0.3331  0.2416
20232W        W63285   0.449  33.364  16.740  0.1651 -0.2075  0.3003
20233W        W63286  33.954  23.549  24.749 -0.2978  0.0157 -0.1169
20234W        W63287   8.896   0.180  27.470 -0.0611 -0.0348 -0.1038
20235W        W63288   3.246  27.633  18.811  0.0618 -0.2003 -0.2196
20236W        W63289  10.057   7.343   0.127 -0.1591  0.0785  0.3957
20237W        W63290  21.990  29.327  19.187  0.1152 -0.1095 -0.0079
20238W        W63291  31.999   3.992  17.238  0.1653 -0.0414 -0.3669
20239W        W63292   1.534  32.497  18.751 -0.4242 -0.4242 -0.0233
20240W        W63293  34.081  32.519  15.654  0.0064  0.2357  0.1245
20241W        W63294   1.763  21.854  16.260  0.1925  0.0644 -0.1821
20242W        W63295  16.600  24.977  21.366  0.1571 -0.0227 -0.2825
20243W        W63296  12.120  14.240  22.653 -0.1819 -0.2899 -0.1772
20244W        W63297  34.481   1.951   3.912  0.0280 -0.0485 -0.0472
20245W        W63298   3.399  10.425  16.238 -0.2776 -0.2039  0.2398
20246W        W63299   6.797  10.329  22.847 -0.2921  0.2124  0.1248
20247W        W63300   9.892  23.876  28.539 -0.1058  0.1003 -0.0304
20248W        W63301  10.927  14.435  25.442 -0.3448  0.1088  0.2085
20249W        W63302   5.103   8.096  17.913  0.1674 -0.0495  0.0582
20250W        W63303   6.839  22.770  26.361 -0.0977 -0.0405  0.0493
20251W        W63304  12.567  34.255  21.909 -0.0029  0.1402 -0.2477
20252W        W63305  26.707  34.276  14.358  0.0198  0.1237 -0.0569
20253W        W63306  11.029  12.469  25.273 -0.3371  0.2295  0.1038
20254W        W63307  25.733  14.926  19.655 -0.1250  0.0147 -0.0589
20255W        W63308  13.142  11.821  28.601  0.0085  0.1244  0.1049
20256W        W63309   2.431  12.086  15.899  0.1496  0.4593  0.1421
20257W        W63310  18.364  20.880  22.879  0.5134 -0.1819 -0.0166
20258W        W63311  23.844   3.797  22.982  0.1211  0.1344 -0.2655
20259W        W63312   3.577  26.108   2.522 -0.1003  0.1410  0.0713
20260W        W63313   5.234   8.475  25.149 -0.2323 -0.0837  0.0038
20261W        W63314   7.325   2.584  20.976 -0.0971  0.1417 -0.0381
20262W        W63315  10.970  12.083  15.380 -0.0604  0.0577  0.5267
20263W        W63316  34.284   9.650  21.502 -0.1246 -0.4384 -0.4156
20264W        W63317  21.611  33.796  26.126  0.0394 -0.0604  0.1929
20265W        W63318   7.772   2.236  19.833  0.1023  0.3993 -0.1465
20266W        W63319  11.496  13.030  27.500  0.0174 -0.0285 -0.0799
20267W        W63320  18.790   6.204  16.648  0.0502 -0.1565  0.0221
20268W        W63321   1.770   7.460  22.251 -0.0068 -0.2786  0.2388
20269W        W63322   6.293  19.947  19.308  0.0748  0.0428 -0.0549
20270W        W63323  34.648  11.943  25.734 -0.2518  0.2679  0.1440
20271W        W63324   2.552  22.581  20.412  0.1898  0.2412  0.3545
20272W        W63325  17.230  29.190  24.349 -0.1873 -0.2035 -0.0142
20273W        W63326  32.319   8.194  21.437  0.3567  0.1818  0.0152
20274W        W63327  14.931   8.364  26.861  0.0356 -0.1075  0.0825
20275W        W63328  31.220  32.804  19.836  0.2516  0.5202 -0.2586
20276W        W63329   0.896  14.984  29.003  0.0131  0.1014 -0.0912
20277W        W63330  33.538  28.216  16.337 -0.0999  0.2915 -0.2479
20278W        W63331  11.528  23.104  20.085 -0.0963 -0.0060  0.2480
20279W        W63332  11.139   4.861   0.346  0.1554  0.1566 -0.1176
20280W        W63333  30.583  25.202  18.512  0.1714 -0.0585 -0.0425
20281W        W63334   6.746   6.970  18.556  0.1264 -0.1096  0.0272
20282W        W63335  17.684   3.608  18.002  0.1468  0.0431  0.0306
20283W        W63336  29.432  33.169  18.844  0.0529  0.1948  0.0531
20284W        W63337   8.067  25.413   5.455  0.1153 -0.0793 -0.0117
20285W        W63338   2.961  16.643  20.142  0.1479  0.2205 -0.0232
20286W        W63339  17.326  31.484  22.023 -0.0297 -0.0634 -0.2058
20287W        W63340   1.863  20.730   0.545 -0.1928 -0.0050  0.1083
20288W        W63341  19.810  25.362   2.686 -0.1668  0.0290  0.3218
20289W        W63342  13.080   4.124   5.489 -0.3324 -0.1707 -0.0805
20290W        W63343  20.242  13.924  24.773 -0.0642  0.1476 -0.2210
20291W        W63344  25.855   5.250  18.664 -0.0864  0.1731  0.1509
20292W        W63345  14.879  20.616   5.285  0.0936  0.2543  0.2314
20293W        W63346  32.016   5.247  27.731  0.0700 -0.2284  0.0398
20294W        W63347  24.405  27.129  18.328 -0.1788 -0.0690 -0.0763
20295W        W63348  24.108  14.183  18.554  0.1440 -0.0289  0.0999
20296W        W63349  23.691   8.970   6.817  0.2479  0.0591 -0.4770
20297W        W63350   2.587  13.282  13.956 -0.1826  0.0949 -0.1448
20298W        W63351   1.267  10.605   4.521  0.0347 -0.3977  0.0204
20299W        W63352  29.224  21.228  14.313  0.1343 -0.0365 -0.0490
20300W        W63353  13.072  19.279  24.527  0.0305 -0.0851  0.0750
20301W        W63354  10.883   1.506  15.255 -0.1282 -0.0444 -0.0070
20302W        W63355  10.972  11.099  29.184 -0.0521  0.0710 -0.1826
20303W        W63356  23.655  15.385  17.682 -0.0777 -0.0925 -0.0591
20304W        W63357   4.793   5.251  23.947  0.0863 -0.0749 -0.0228
20305W        W63358  26.269  10.649  26.861 -0.1559  0.1100 -0.1994
20306W        W63359   9.998  25.614  15.529  0.1477  0.0383  0.0927
20307W        W63360   3.191  33.871   3.172 -0.3134  0.1668  0.0573
20308W        W63361  20.800   6.839  21.231  0.0463 -0.1079 -0.0914
20309W        W63362  18.988  26.702  14.817 -0.1417  0.1526  0.2989
20310W        W63363  33.315   8.080  21.092 -0.1018 -0.0862 -0.0433
20311W        W63364  26.590  29.455  15.478  0.1591  0.0919 -0.1418
20312W        W63365  11.780  14.387   4.609  0.1834  0.0159  0.2242
20313W        W63366   8.376  34.364  14.631  0.4603 -0.5313 -0.2168
20314W        W63367  21.430  31.915  17.684 -0.0231  0.0157  0.1948
20315W        W63368  17.097  15.801  14.526  0.2724  0.3554 -0.2065
20316W        W63369  15.502  29.830  16.602 -0.4647  0.0055 -0.1814
20317W        W63370  21.238  23.212  17.334  0.0259  0.0834 -0.1808
20318W        W63371  32.796  11.080  20.319 -0.0310  0.0437 -0.1131
20319W        W63372  14.955  10.288  22.391  0.0075 -0.0224 -0.1753
20320W        W63373  29.685  28.064  17.692  0.1703  0.0627 -0.1427
20321W        W63374  20.989   4.076  27.796 -0.2353  0.1291 -0.1600
20322W        W63375  10.794   0.262  20.591 -0.3530  0.1774  0.0610
20323W        W63376   6.250   1.430   5.770  0.0539 -0.0215 -0.0153
20324W        W63377  23.181  31.885  16.840 -0.0816 -0.1073 -0.5062
20325W        W63378   2.717  14.212  23.304  0.1251 -0.1610 -0.0772
20326W        W63379  33.654   3.120  23.964 -0.3030 -0.0298  0.0431
20327W        W63380   8.342   8.227  26.595 -0.0952  0.3807 -0.0535
20328W        W63381  28.265   2.387  21.544  0.0898  0.1065  0.1610
20329W        W63382   3.581  14.868  15.954  0.0486 -0.1700 -0.1095
20330W        W63383  18.122  13.965   3.525  0.0156  0.0534  0.1262
20331W        W63384   0.534  30.222   8.720 -0.0044  0.0383 -0.0059
20332W        W63385  30.403  31.526   5.093  0.0517  0.1825 -0.3350
20333W        W63386   0.258  28.231  21.885  0.0565  0.0088 -0.0635
20334W        W63387   7.499   6.118  23.189 -0.0416 -0.0185  0.0509
20335W        W63388  23.606   9.254  25.550  0.0286  0.2413 -0.0094
20336W        W63389  19.386  29.690  22.260  0.0797 -0.1776  0.3086
20337W        W63390  10.566   1.824  15.810  0.1421 -0.1798 -0.0040
20338W        W63391   3.953   8.295   1.123 -0.1769 -0.0797  0.2927
20339W        W63392   0.281   2.916  20.689  0.1372 -0.3363 -0.0613
20340W        W63393  22.006   3.700  14.572 -0.2647  0.2092 -0.2934
20341W        W63394  19.041   2.095   0.262 -0.1061 -0.0431 -0.0360
20342W        W63395  16.721  32.914  20.265  0.0023 -0.0839  0.4395
20343W        W63396   4.636  30.586  26.106 -0.0123  0.3775  0.1091
20344W        W63397  29.732   4.616  17.204 -0.0677 -0.3298  0.1846
20345W        W63398  12.502  32.948  22.429  0.4219 -0.3063 -0.1368
20346W        W63399   6.197  22.545  17.987  0.2234 -0.1740  0.0457
20347W        W63400  21.546  10.582  18.943  0.0440  0.5162  0.0772
20348W        W63401  29.261   3.241  19.550 -0.0709 -0.0204 -0.1595
20349W        W63402   1.228  33.716  15.172  0.0093 -0.2061  0.1247
20350W        W63403  26.567   2.223  20.995 -0.1316  0.0616 -0.2162
20351W        W63404  33.802   4.948  15.118  0.0220  0.0944  0.0732
20352W        W63405  25.469   9.684  25.602  0.0138 -0.1668 -0.1629
20353W        W63406  12.720   5.595   9.748 -0.3777  0.2110 -0.0863
20354W        W63407   3.447   8.936  17.857  0.1623 -0.1549  0.0959
20355W        W63408  31.421  33.767  22.867  0.0138  0.1097  0.1611
20356W        W63409  30.883  13.112  22.036 -0.2725  0.0328 -0.0837
20357W        W63410   4.802   4.555  15.552 -0.0826  0.0192  0.0543
20358W        W63411   4.044   2.490   7.760 -0.0931 -0.2295  0.0023
20359W        W63412   1.398  25.146  23.343 -0.0906  0.0328  0.0297
20360W        W63413  33.177   9.651   9.202  0.3446 -0.1046  0.0833
20361W        W63414  12.313   5.020  18.057 -0.3820  0.3644 -0.3374
20362W        W63415  27.673   4.551  13.654  0.0376 -0.0980 -0.2703
20363W        W63416   1.010  18.485  18.401  0.0158  0.2999  0.4239
20364W        W63417  32.728   8.133  16.209  0.0449  0.1543 -0.0032
20365W        W63418  28.687  30.104  19.921  0.1458 -0.0133 -0.4214
20366W        W63419   2.645  10.355  15.293  0.0904 -0.1666  0.0588
20367W        W63420  19.398   0.479   3.492 -0.1662  0.0722  0.0452
20368W        W63421   4.046   4.438  16.226 -0.1084  0.1213 -0.0267
20369W        W63422  25.871  12.156   3.377  0.2335 -0.1492  0.0998
20370W        W63423   8.241  21.235  23.252  0.3100 -0.1331  0.2505
20371W        W63424  30.893   2.441  20.449 -0.2740 -0.1265  0.2686
20372W        W63425  20.282   0.461  13.760 -0.3728 -0.0600  0.0038
20373W        W63426   5.381   9.692  14.952 -0.0554 -0.1429 -0.0285
20374W        W63427   0.525  21.005   1.384  0.1743  0.0885  0.2711
20375W        W63428  22.726  34.403  21.273  0.1916 -0.0044 -0.0316
20376W        W63429  25.728  27.453  18.948 -0.0832  0.0984  0.1397
20377W        W63430  14.662  10.753  20.553 -0.1683 -0.1795 -0.0353
20378W        W63431  16.488  28.094  28.004 -0.4037  0.3281  0.0787
20379W        W63432   8.398  32.959  23.959 -0.1226 -0.4584 -0.1182
20380W        W63433  15.500   7.180  20.172  0.2707  0.1614  0.1699
20381W        W63434  33.491   7.712  21.735  0.0134  0.1762  0.2807
20382W        W63435  21.971   3.918  17.285 -0.0695 -0.0577 -0.1162
20383W        W63436   9.028  12.433  25.319 -0.2206  0.1115 -0.2991
20384W        W63437   6.553  11.958  27.071  0.2867 -0.1386  0.0973
20385W        W63438  10.041  19.018  16.665  0.0507  0.1212  0.3527
20386W        W63439   0.418  34.439  18.719  0.1358  0.1155  0.0242
20387W        W63440  11.624  34.420  17.294  0.3534 -0.0943 -0.1147
20388W        W63441  33.174  13.809  26.293  0.0216  0.2549 -0.0704
20389W        W63442  20.207   0.581  15.512 -0.1478 -0.2492 -0.2646
20390W        W63443  29.002  24.332  22.302  0.0611 -0.0776  0.2585
20391W        W63444  13.631  10.613  25.695  0.0298 -0.0845  0.2532
20392W        W63445  33.566  12.920   8.931 -0.1156  0.1195 -0.2459
20393W        W63446   9.287  30.190  28.132  0.0673 -0.0866 -0.0978
20394W        W63447  25.973   3.281  23.456 -0.2139  0.0089 -0.2065
20395W        W63448  31.078  30.744  23.162 -0.0659  0.0258 -0.3697
20396W        W63449  31.433   3.355   7.588  0.0570  0.0249 -0.0138
20397W        W63450   0.338  28.924  16.873  0.0552  0.2386 -0.2556
20398W        W63451  25.167   4.704  21.880 -0.0374 -0.1375  0.1771
20399W        W63452  15.180  30.574  16.919  0.1881 -0.2269 -0.1407
20400W        W63453   3.951  27.672  28.588  0.0740 -0.1512  0.0193
20401W        W63454   9.950  27.463   8.452 -0.3953 -0.0136  0.0132
20402W        W63455  30.103  31.205  28.942  0.2163 -0.2906  0.0914
20403W        W63456  29.574  27.332  14.802  0.2102 -0.1167  0.2294
20404W        W63457  32.470   6.762  18.674 -0.0743 -0.0080  0.1346
20405W        W63458  17.937  28.758  23.533 -0.3024 -0.1212 -0.2224
20406W        W63459   1.085   4.052   0.227  0.3911 -0.0802  0.0564
20407W        W63460   4.415  21.286   2.672 -0.1319 -0.1647  0.1351
20408W        W63461   5.175  25.615  26.481  0.1204  0.0828 -0.0313
20409W        W63462  17.747   0.169  25.737  0.1434 -0.1640  0.2048
20410W        W63463  29.254  10.853  22.467  0.1087  0.0600 -0.0586
20411W        W63464  32.241   3.346   0.639 -0.1549 -0.3996 -0.0896
20412W        W63465  19.612  20.315  17.312  0.0435 -0.2758  0.1878
20413W        W63466   3.311  15.856  17.978 -0.0200  0.1063  0.0036
20414W        W63467   6.444  30.917  15.280 -0.0204  0.0326  0.1898
20415W        W63468  27.803  25.495  22.677 -0.1603 -0.0793 -0.0935
20416W        W63469  33.915   3.324  23.572 -0.4304  0.4495 -0.0048
20417W        W63470  33.759  28.530  19.917 -0.0092  0.0898  0.1688
20418W        W63471   1.333  23.430  24.792  0.2735 -0.0751  0.0799
20419W        W63472  31.127  29.576  18.142  0.2196  0.0111  0.1231
20420W        W63473   7.919  16.434  15.072 -0.3876  0.0800  0.0870
20421W        W63474  34.682  21.296  14.552  0.3945  0.0312  0.0855
20422W        W63475   9.704  22.880  22.837  0.0579  0.2253 -0.2413
20423W        W63476  26.605   1.320  28.258 -0.2404  0.1585 -0.1916
20424W        W63477  12.240  23.758  27.109  0.0386  0.2120  0.1157
20425W        W63478  17.460   8.115  22.393  0.3855  0.1629  0.2875
20426W        W63479  34.592  26.034  15.629  0.0246  0.2322 -0.1216
20427W        W63480   3.606  14.508  17.794 -0.2885  0.0096  0.1821
20428W        W63481   4.071  31.764  26.403 -0.1080 -0.0402 -0.3230
20429W        W63482  32.553   1.018  16.051 -0.2453 -0.1141 -0.1798
20430W        W63483  14.713   6.854  21.348 -0.1321  0.2493  0.0967
20431W        W63484  19.282  32.676  23.950 -0.1717  0.0684 -0.1735
20432W        W63485  34.063   3.497  28.164  0.1700  0.4698 -0.2214
20433W        W63486  30.658   3.530   0.090 -0.0582  0.3590  0.2790
20434W        W63487  15.350  26.095  18.332  0.0225  0.2998 -0.1606
20435W        W63488  22.137   0.458  21.739  0.0731 -0.0610 -0.1012
20436W        W63489   6.438   2.836  15.542  0.1841  0.1181  0.1175
20437W        W63490   6.377   0.666   9.410  0.0215 -0.1677 -0.1513
20438W        W63491  11.844  29.283  15.963  0.1882 -0.0258 -0.1098
20439W        W63492  14.426  22.611  15.396  0.1889 -0.2552  0.2305
20440W        W63493   4.707   5.167  26.472 -0.0949 -0.4687  0.0404
20441W        W63494  12.509  28.704  16.360 -0.0469  0.2559  0.3057
20442W        W63495  17.322  10.797  18.723  0.3397  0.2221  0.1437
20443W        W63496  11.187  30.746  25.320 -0.0406  0.0237 -0.1158
20444W        W63497   9.382  14.651  25.549  0.1794 -0.1034  0.2668
20445W        W63498  24.241  29.723  16.008  0.0614 -0.1316  0.2480
20446W        W63499  32.208  24.638  23.849  0.2738 -0.1337 -0.1438
20447W        W63500  34.073  15.308   7.639  0.0474 -0.0284 -0.1725
20448W        W63501  10.778   5.944  15.404  0.1150  0.2039  0.0284
20449W        W63502   3.150  25.953  28.391 -0.2094 -0.2176 -0.1410
20450W        W63503   5.014   1.617  16.048  0.0943  0.3801 -0.0526
20451W        W63504   4.682  31.110  14.923 -0.1525 -0.0712  0.2100
20452W        W63505  13.387  32.617   2.681  0.1036  0.0429 -0.0688
20453W        W63506   5.656  17.160   6.445  0.1305 -0.4159  0.0324
20454W        W63507  32.156  25.609  24.515 -0.0942 -0.2624 -0.2714
20455W        W63508  14.428  19.851  23.298 -0.0358 -0.1413 -0.3145
20456W        W63509  34.069  29.721  17.099 -0.1959  0.4534  0.7301
20457W        W63510   8.292   9.481  25.344  0.1159  0.1567 -0.0354
20458W        W63511  11.774   7.056  23.725 -0.3605  0.0211  0.1057
20459W        W63512   5.109  32.223  25.524 -0.0211 -0.1797  0.2932
20460W        W63513  13.467  28.240  18.004 -0.3988 -0.1477 -0.2546
20461W        W63514   9.514  30.432  13.945 -0.0797 -0.0914  0.2455
20462W        W63515   6.792   5.075  18.705 -0.2645  0.0737 -0.0874
20463W        W63516  21.475   9.586  17.352  0.2611  0.2625  0.0427
20464W        W63517  18.180   6.298   1.394  0.1971 -0.2073  0.0752
20465W        W63518   7.738   5.789  14.883 -0.1079 -0.0583 -0.0799
20466W        W63519   0.035  21.862  17.727  0.1841 -0.1819  0.2233
20467W        W63520  14.534   1.035  23.231 -0.0613 -0.1101 -0.1587
20468W        W63521  12.110  33.709  10.024  0.2918 -0.3062 -0.1525
20469W        W63522   3.872  28.817  27.181 -0.0642  0.0541  0.2523
20470W        W63523  29.446  30.101  15.442  0.4177  0.1540  0.4977
20471W        W63524  32.651   3.837  25.371  0.1282  0.0686 -0.3621
20472W        W63525  12.404  24.300   9.450  0.1224 -0.2670 -0.2578
20473W        W63526  28.158  18.440  21.526 -0.2726  0.1550 -0.2062
20474W        W63527  11.190   3.776  19.650 -0.0334 -0.0224  0.3025
20475W        W63528  34.331   7.511  25.678 -0.2319 -0.1219  0.0537
20476W        W63529   1.743   6.833  18.273 -0.2751 -0.0770 -0.0147
20477W        W63530  29.817   2.833  16.310  0.0051 -0.0241 -0.0357
20478W        W63531  10.797   5.258   3.336  0.0630 -0.0186 -0.0217
20479W        W63532  21.231  10.301  24.578 -0.0588  0.0804  0.3332
20480W        W63533   9.610  31.391  15.924 -0.3274 -0.2836 -0.1522
20481W        W63534  29.661   4.315  18.258  0.2890  0.2220  0.0544
20482W        W63535   1.266  12.267  21.031  0.2509 -0.0953 -0.1677
20483W        W63536   1.212  32.877  16.514 -0.1282 -0.1089 -0.1685
20484W        W63537   0.792  10.018  18.130 -0.0343 -0.1690  0.0204
20485W        W63538   6.145  16.105  21.950 -0.0510 -0.3764  0.1369
20486W        W63539  23.901  33.945  27.799 -0.1926  0.0087 -0.0739
20487W        W63540   4.663  31.959  25.478  0.0734  0.0807 -0.1705
20488W        W63541  16.218  21.478  23.931  0.2029 -0.2987 -0.3945
20489W        W63542   1.535   5.537  17.778  0.1372  0.0849 -0.0108
20490W        W63543   8.244  15.687  23.746 -0.2346  0.0387 -0.2389
20491W        W63544  10.521   8.242  16.549 -0.2543  0.0277 -0.1060
20492W        W63545  30.804  12.445  24.816  0.0045 -0.3464 -0.1000
20493W        W63546  13.119  17.836  23.840  0.3051 -0.0300 -0.1144
20494W        W63547   4.817  33.326  14.427 -0.4813  0.2209  0.2077
20495W        W63548   4.635  31.944  17.323 -0.0483 -0.0983 -0.0295
20496W        W63549  14.662  24.042  23.262 -0.0754 -0.1592 -0.0634
20497W        W63550   8.505   6.678  23.075  0.2259 -0.0860  0.2628
20498W        W63551  18.848   6.778  16.467 -0.0275 -0.3208 -0.3031
20499W        W63552   0.255  30.956  18.311  0.0295  0.0417  0.0246
20500W        W63553   1.094  12.852  17.778 -0.0266 -0.1705  0.0389
20501W        W63554   0.099   3.412  20.697  0.1751 -0.2037  0.0850
20502W        W63555   3.694  18.850  27.133  0.2862 -0.1072  0.2912
20503W        W63556   0.595   5.470   4.810 -0.1769  0.0617  0.0428
20504W        W63557   6.367  13.476  18.644 -0.0243  0.1346  0.1710
20505W        W63558  28.796   6.420  18.904  0.0520 -0.2625  0.3862
20506W        W63559   4.685  17.418  19.884  0.1842 -0.5527 -0.2167
20507W        W63560   3.550  26.562  16.889 -0.2048 -0.3085 -0.1776
20508W        W63561  17.937   3.449  17.582  0.0567  0.0828 -0.1964
20509W        W63562   1.374  33.639  22.701  0.1743  0.1963  0.3435
20510W        W63563  17.254   7.072  18.151  0.0193 -0.2653  0.1561
20511W        W63564  25.118  25.542  24.752 -0.0756  0.0937  0.0868
20512W        W63565   5.285   7.044  16.416 -0.0569  0.4908  0.1565
20513W        W63566  14.952  17.843  28.964  0.0100  0.1702 -0.2332
20514W        W63567  13.099   8.878  25.097  0.0680 -0.3333 -0.1643
20515W        W63568  30.512   4.475  16.685  0.0776 -0.3349 -0.2574
20516W        W63569   6.775   5.004  15.282 -0.3146 -0.0801  0.1994
20517W        W63570  28.170   8.485  22.627 -0.1902 -0.1068 -0.1909
20518W        W63571   5.103   3.656  19.518  0.1327  0.1969 -0.2387
20519W        W63572   6.998  30.174  12.831  0.0484 -0.2370  0.3174
20520W        W63573  20.944  12.444  23.457 -0.0029  0.3751 -0.0929
20521W        W63574  26.355  17.850  18.767  0.1832  0.1382 -0.2057
20522W        W63575  30.918   5.097   4.098  0.0111  0.0260 -0.2689
20523W        W63576  30.494   4.563  25.773 -0.0018 -0.1367  0.0590
20524W        W63577  21.000  27.394  17.718 -0.3162 -0.0592  0.0234
20525W        W63578   5.652  30.531  25.844  0.0011 -0.1215  0.0872
20526W        W63579  12.759  10.877  14.714  0.0383  0.3182  0.1376
20527W        W63580  32.597  10.156  21.285 -0.1803 -0.0875  0.1352
20528W        W63581   7.107  24.217  20.110 -0.0112 -0.1337 -0.0745
20529W        W63582   5.416  10.961  18.568 -0.0757  0.3787 -0.3216
20530W        W63583   1.310  34.391  22.184 -0.0622 -0.0337  0.0281
20531W        W63584  32.633  20.002  16.839 -0.0689  0.1660  0.0185
20532W        W63585   0.719  12.786  17.395 -0.1131 -0.3623 -0.1056
20533W        W63586   6.221  27.641  19.315  0.0391  0.0702  0.1003
20534W        W63587  12.260   8.896  17.478  0.0414 -0.0845 -0.2679
20535W        W63588  32.950   6.754  23.808  0.1186 -0.3553 -0.1089
20536W        W63589  33.570  25.810  20.096  0.2092 -0.0821 -0.0421
20537W        W63590   1.334  13.796  25.187  0.0514  0.2035 -0.1063
20538W        W63591  28.308  14.712  15.429 -0.2131 -0.1124  0.0057
20539W        W63592   8.114  27.091  26.315  0.0732  0.1319  0.1352
20540W        W63593  33.786   6.071   3.426 -0.3836  0.1068  0.1891
20541W        W63594  29.780  10.954  14.750  0.1580 -0.1446 -0.1902
20542W        W63595  17.344  29.549  19.662  0.1885  0.1462 -0.1153
20543W        W63596   0.167   2.038  21.628  0.0003  0.1235  0.0386
20544W        W63597  30.347   3.319   2.809 -0.1052  0.0694  0.0796
20545W        W63598   4.385   1.022  21.399 -0.0433 -0.1759 -0.1427
20546W        W63599  11.303   6.776   1.774 -0.0095 -0.2601 -0.0555
20547W        W63600  27.165   4.169   4.206  0.0466  0.3719 -0.0777
20548W        W63601  25.257  10.503  16.568 -0.0055  0.1627 -0.3156
20549W        W63602  12.367   4.934  24.506 -0.1754  0.1368 -0.2212
20550W        W63603  30.612   9.501  17.181  0.2576  0.0159  0.0624
20551W        W63604   2.142   9.664  19.422  0.2285  0.2301 -0.1883
20552W        W63605   3.195   1.840  23.559  0.0820  0.1962  0.0257
20553W        W63606   6.330  22.265  17.542 -0.0435  0.0299  0.0013
20554W        W63607  17.009   6.387  18.956 -0.1803 -0.1576 -0.1679
20555W        W63608  12.482  29.083  21.743 -0.0889 -0.0855  0.2898
20556W        W63609  11.828  16.572  10.033  0.0086 -0.1005 -0.1170
20557W        W63610   0.540  11.993  18.753  0.0178  0.1076 -0.0841
20558W        W63611  22.263   9.294   8.478  0.0160  0.1991  0.0012
20559W        W63612   0.963   7.539  23.855  0.0746 -0.3796  0.1453
20560W        W63613   7.241  29.499  28.166  0.0406 -0.1832 -0.0776
20561W        W63614   6.657  13.884  23.049  0.4959 -0.0416 -0.0906
20562W        W63615  16.033  10.191  19.227 -0.0060  0.0922 -0.0397
20563W        W63616  10.402  27.377  23.313 -0.5407  0.0949  0.0101
20564W        W63617  12.505   6.332  15.541 -0.0926 -0.4198 -0.1548
20565W        W63618   3.339  26.696  21.437  0.3350  0.0977  0.1139
20566W        W63619  18.027  30.997  26.232  0.0671  0.2407  0.2062
20567W        W63620  13.586  34.139  21.776  0.2953  0.2231  0.4599
20568W        W63621  12.106  30.485  20.227  0.0304 -0.0092  0.2744
20569W        W63622   3.982   6.308  25.244  0.5081 -0.4237  0.0743
20570W        W63623  32.771  13.792  16.283  0.2362 -0.1390 -0.0593
20571W        W63624  14.424   4.912  18.909 -0.0696  0.1152  0.0128
20572W        W63625   6.071  15.333  15.266  0.1208 -0.3204  0.1340
20573W        W63626  14.963   0.736  19.950 -0.2145 -0.0771 -0.1083
20574W        W63627  20.876  33.835  18.554 -0.1617 -0.0405 -0.1111
20575W        W63628   0.049   4.057  18.240 -0.2529 -0.0971  0.2767
20576W        W63629   3.014  26.320  15.338  0.1782 -0.0057  0.1886
20577W        W63630  14.418  25.370  17.647  0.1806  0.0648 -0.1164
20578W        W63631  14.513   7.736  18.617 -0.5075  0.0188 -0.1131
20579W        W63632  27.702   0.838  24.055  0.0115  0.0754  0.0117
20580W        W63633  28.372  27.837  13.824 -0.1053 -0.2232 -0.0455
20581W        W63634   8.642   9.914  25.057  0.1337 -0.0171  0.1258
20582W        W63635   1.255   1.168  16.391 -0.0699  0.2140  0.1594
20583W        W63636  24.803   7.066  24.845  0.0953  0.1659  0.0100
20584W        W63637   9.659   9.088  24.501  0.1510  0.0033  0.0098
20585W        W63638  33.310  11.902  26.847 -0.2054 -0.0471 -0.0192
20586W        W63639  26.582   7.772  23.374 -0.2953 -0.0261  0.0171
20587W        W63640   0.453  22.199  25.823  0.0959 -0.3249 -0.1082
20588W        W63641   2.047  18.530  26.400 -0.2322 -0.1421  0.3142
20589W        W63642   3.702   0.368  21.620  0.2386 -0.1108  0.0358
20590W        W63643   3.074  23.449  21.550  0.3099 -0.2198  0.0333
20591W        W63644  23.246  27.934  22.746  0.0001 -0.0844 -0.0027
20592W        W63645   9.709   0.938  20.275  0.4248  0.0569  0.0472
20593W        W63646   1.667  32.651  19.468  0.1890  0.1299 -0.0399
20594W        W63647  34.106   7.206  14.363  0.3201  0.0927 -0.1199
20595W        W63648  31.898   9.597  21.601 -0.2591  0.1797  0.0829
20596W        W63649  34.035   4.868  26.573 -0.3219  0.0354 -0.0981
20597W        W63650  34.194   0.409  24.079  0.3347 -0.1572  0.2448
20598W        W63651  23.145  22.555  19.571 -0.2193  0.0384 -0.2751
20599W        W63652  31.006  22.064  23.759 -0.0176  0.2359  0.0420
20600W        W63653  28.365  33.689  17.283  0.1063  0.1764 -0.3454
20601W        W63654  15.380  33.065  24.431 -0.1561  0.0682  0.0774
20602W        W63655  10.335   4.611  25.959 -0.2238 -0.1698  0.2006
20603W        W63656   7.442   2.028  21.809 -0.0030 -0.2386  0.0349
20604W        W63657   9.563  18.005  24.178  0.2245  0.0131 -0.1200
20605W        W63658  15.263  33.584  15.495 -0.1593 -0.0913 -0.1674
20606W        W63659   9.724   0.133  19.641  0.2155 -0.1004  0.0555
20607W        W63660  22.153   4.477  18.300  0.2328 -0.0298 -0.3581
20608W        W63661  26.116  11.689  28.407  0.1437 -0.1373  0.1720
20609W        W63662   7.988  21.634  24.618  0.2544 -0.3539 -0.3880
20610W        W63663   2.908  29.997  15.880  0.1263 -0.1343  0.0193
20611W        W63664   8.557   5.953  17.408 -0.0493  0.2785 -0.1167
20612W        W63665   3.144   0.583  25.134 -0.1750  0.1525 -0.1231
20613W        W63666   3.915  23.441  14.040 -0.0519 -0.5112 -0.1705
20614W        W63667  24.449   9.276  27.427 -0.2150  0.0543 -0.1837
20615W        W63668   4.973   7.472  15.446  0.2968  0.1260 -0.3416
20616W        W63669  32.216   2.034   4.969  0.0209  0.2676  0.0743
20617W        W63670  13.101  30.718   2.915 -0.1908  0.2148  0.1086
20618W        W63671   7.965   4.188  23.038 -0.0252  0.4814 -0.1552
20619W        W63672   5.358   7.526  25.752 -0.0591 -0.0212 -0.1635
20620W        W63673  25.388  24.787  16.390 -0.0090  0.0978  0.1282
20621W        W63674  32.688   2.334  14.821  0.3680  0.2164  0.0450
20622W        W63675  13.955   7.987  17.245  0.4753 -0.1569 -0.1529
20623W        W63676  27.513  11.687  27.296 -0.5626  0.0203  0.1561
20624W        W63677  23.121  30.181  27.552 -0.1368 -0.0647  0.0707
20625W        W63678  28.832   8.222  24.790 -0.1311 -0.3081  0.0434
20626W        W63679   2.249   9.676  21.712 -0.1197 -0.1225 -0.0805
20627W        W63680   5.276   9.522  23.750  0.1489 -0.2054  0.0041
20628W        W63681  11.722  27.069  15.164 -0.2683  0.0411 -0.0064
20629W        W63682  33.648   6.571   4.578 -0.1039 -0.0344  0.0148
20630W        W63683   5.638   6.036   0.919 -0.1054  0.3479 -0.2664
20631W        W63684   7.961   8.072  20.212  0.0493 -0.0552 -0.0478
20632W        W63685  31.466  12.482   0.155 -0.2768  0.0508  0.1968
20633W        W63686  26.913   6.744   7.351 -0.1532 -0.3954 -0.0463
20634W        W63687  16.918  31.894  20.866  0.0665 -0.0747  0.1469
20635W        W63688   9.918  28.492  27.261  0.1581  0.1375 -0.0009
20636W        W63689  10.390  28.396  17.107  0.2274 -0.1574 -0.0929
20637W        W63690   6.666   8.897  18.835  0.3870 -0.0958  0.0538
20638W        W63691  32.989  30.380  13.444  0.0147  0.1988 -0.0122
20639W        W63692   3.711  24.945  26.884 -0.1357  0.1149  0.1450
20640W        W63693  19.437  28.505  15.080  0.0884  0.4404 -0.0194
20641W        W63694  32.774   2.556  24.778 -0.1682 -0.0586  0.3353
20642W        W63695   5.336   6.874  28.883  0.0647 -0.1922  0.0855
20643W        W63696   1.812   5.556  28.449  0.0761 -0.0086  0.1614
20644W        W63697   1.722   5.913  24.127 -0.1203 -0.0460 -0.2671
20645W        W63698  26.142  27.740  24.381 -0.0593  0.2050 -0.0102
20646W        W63699  34.282   4.956  18.382  0.1016  0.0165  0.0537
20647W        W63700  13.514  30.766  22.601  0.1811  0.0572  0.0421
20648W        W63701   7.101   4.531  16.532 -0.0793 -0.2917  0.0287
20649W        W63702  11.138  17.030   8.482 -0.1189  0.1993 -0.1040
20650W        W63703   1.871   1.120  13.165 -0.3327 -0.0592 -0.0113
20651W        W63704  10.466  23.284   3.970 -0.0111  0.1400 -0.3182
20652W        W63705  22.715  14.890  21.899 -0.0856  0.1418 -0.0706
20653W        W63706  25.336  24.650  14.923 -0.2285 -0.2013  0.0640
20654W        W63707  16.512  13.689  23.243 -0.0762 -0.2730  0.1256
20655W        W63708   8.827   2.160  22.808 -0.4746 -0.0098 -0.1700
20656W        W63709  31.065  27.830  16.324 -0.3420  0.1263  0.0489
20657W        W63710  28.561   6.963   0.250 -0.1772 -0.1095 -0.0965
20658W        W63711  18.726  28.851   0.404 -0.2343 -0.2310  0.0107
20659W        W63712  19.925  24.232  28.104  0.1636 -0.3420  0.2100
20660W        W63713   2.321  24.760  21.850  0.1311  0.1418 -0.1527
20661W        W63714  13.118  16.512   0.147 -0.1887  0.2614  0.0356
20662W        W63715  26.202   1.678   6.274  0.0765  0.0978  0.1429
20663W        W63716   4.825  33.394  15.583  0.0383 -0.5682 -0.3428
20664W        W63717   4.392  26.504  22.579 -0.1361 -0.2684  0.2131
20665W        W63718  11.461  13.958  27.940 -0.0044 -0.1083 -0.1776
20666W        W63719  22.612   6.402   5.704 -0.0260  0.2985 -0.4116
20667W        W63720  28.697  26.836  14.765  0.2432  0.1552 -0.0796
20668W        W63721   4.201   0.428  28.687 -0.1833  0.1946  0.2804
20669W        W63722  31.513   9.126  17.142 -0.2474  0.0737  0.1371
20670W        W63723  13.858  10.715  19.013 -0.1569  0.4633  0.1859
20671W        W63724  19.862   7.467   4.445 -0.0535 -0.1532 -0.1381
20672W        W63725   8.490  13.686   3.471  0.1108 -0.3456 -0.0002
20673W        W63726   8.995   9.327   5.440  0.3835  0.1988 -0.1071
20674W        W63727  10.905  12.619  25.782 -0.2175  0.0619  0.0664
20675W        W63728  27.363   8.443  25.126 -0.4251  0.1269  0.0337
20676W        W63729   7.859  20.378  20.926  0.2888  0.1479  0.4135
20677W        W63730  19.548   8.227  16.709 -0.4250  0.0975 -0.1339
20678W        W63731   6.463  33.180  17.753  0.1176  0.0026  0.5381
20679W        W63732  10.426  13.739  24.759 -0.1919 -0.4156  0.0153
20680W        W63733   2.095  14.723  19.034  0.3057  0.1058  0.1413
20681W        W63734  30.514   5.858   6.187 -0.0825 -0.0950  0.0897
20682W        W63735  30.275  25.064  14.330 -0.3454 -0.4668  0.3521
20683W        W63736  27.881  11.424  21.137 -0.3226  0.0593  0.0931
20684W        W63737  16.087  24.566  17.697  0.0925  0.0290 -0.2908
20685W        W63738  33.691  29.983  18.215 -0.0784  0.2072 -0.5464
20686W        W63739  30.255  31.974  14.555 -0.4288  0.0862  0.1201
20687W        W63740   5.750   9.083  27.127  0.1493  0.0720 -0.3493
20688W        W63741  32.846   9.477  25.575 -0.0668  0.1896  0.1063
20689W        W63742   3.694   7.661  14.617  0.1096  0.1392  0.1036
20690W        W63743   1.646  20.483   0.167  0.0751 -0.0588  0.0402
20691W        W63744   0.921  31.230  22.578 -0.4201  0.1005 -0.0057
20692W        W63745   7.280  31.698  20.763  0.1832  0.0113 -0.0882
20693W        W63746   9.816  26.432   4.856 -0.0798  0.1485 -0.2464
20694W        W63747  28.022   6.885   1.369 -0.4036  0.0400  0.0091
20695W        W63748  26.463   1.507  23.283  0.0863  0.0781  0.1011
20696W        W63749   1.895  10.342   3.404 -0.0891  0.0772 -0.2612
20697W        W63750  18.445   6.651   5.410 -0.1788 -0.0663 -0.1220
20698W        W63751  22.828  30.095  15.945 -0.4567 -0.0886  0.0862
20699W        W63752   9.886   8.276  23.154 -0.0741  0.0768  0.1454
20700W        W63753  13.567   2.326  19.391  0.0881  0.1255  0.0200
20701W        W63754  10.161   6.896  20.642  0.0383 -0.2087  0.0607
20702W        W63755  31.931   2.155  17.041 -0.0474 -0.2497  0.2008
20703W        W63756   4.240  34.235  26.001 -0.0508  0.0567  0.0410
20704W        W63757   6.205  14.888  20.007 -0.2234  0.0125  0.0013
20705W        W63758   1.476  27.879  20.118 -0.0536  0.0598 -0.0487
20706W        W63759   6.180  21.684  23.006 -0.0716  0.0563  0.2129
20707W        W63760   5.530  30.313   7.169  0.1643 -0.2849 -0.0103
20708W        W63761  16.772   5.474  21.914 -0.0367 -0.0888 -0.0308
20709W        W63762   3.453  31.250  20.296  0.1733 -0.3889 -0.0514
20710W        W63763  18.507  10.241  25.981  0.0286 -0.2019 -0.0739
20711W        W63764  22.352   0.625  26.173 -0.2553 -0.0782  0.0466
20712W        W63765  30.447  29.088  17.745  0.4014 -0.0099  0.1501
20713W        W63766   7.273  33.918  26.276 -0.2465  0.1883  0.2306
20714W        W63767   7.601  15.714  16.357 -0.1886 -0.1599 -0.2713
20715W        W63768  15.844  11.500   8.772 -0.0289 -0.4170 -0.0747
20716W        W63769   5.602  31.722  19.760  0.1231  0.1920 -0.0543
20717W        W63770  15.946   7.053  14.929  0.1531  0.1122  0.0379
20718W        W63771  13.834  31.913  25.725 -0.1891 -0.0762  0.2091
20719W        W63772  30.877  33.557  16.448 -0.0128 -0.1290  0.0628
20720W        W63773  15.193  13.559  24.453 -0.1552  0.2649 -0.0745
20721W        W63774  23.199  26.278  23.299  0.0191 -0.1154 -0.2601
20722W        W63775   6.757  27.358  26.479  0.0814  0.0120  0.2380
20723W        W63776  11.941  22.541  26.214  0.2005 -0.0741 -0.1701
20724W        W63777  22.582   3.804   4.384 -0.2541 -0.2230  0.1229
20725W        W63778   0.892   9.553  17.978 -0.0509 -0.1867  0.1647
20726W        W63779   4.389  25.455  25.230  0.3691  0.0447 -0.1341
20727W        W63780   0.316   9.989   9.210  0.1761  0.2350 -0.2524
20728W        W63781  14.398   2.138  15.013  0.0050 -0.3054 -0.1321
20729W        W63782  12.248   6.911  19.476 -0.0526 -0.1200  0.1871
20730W        W63783  32.834  11.942  27.055 -0.0288 -0.0905 -0.1135
20731W        W63784  16.104  19.987   1.229 -0.2913 -0.1011  0.0211
20732W        W63785  30.647  11.647   5.832 -0.0820 -0.3425 -0.0596
20733W        W63786   5.142   4.827  15.843  0.1504 -0.2862  0.0468
20734W        W63787  10.937  20.421  19.566  0.0436  0.0634 -0.0317
20735W        W63788  13.227  29.463  15.478  0.0272  0.0723 -0.1083
20736W        W63789  13.305  11.174   3.094  0.2954  0.4416  0.1650
20737W        W63790  30.298   5.165  19.995 -0.1969 -0.0430 -0.2801
20738W        W63791   8.850  25.499  22.937 -0.3546 -0.0764  0.1167
20739W        W63792  26.110  32.950  14.593 -0.3235 -0.0804  0.0745
20740W        W63793  22.198  31.640   2.057 -0.0515 -0.3131 -0.1338
20741W        W63794  11.169  34.415  19.005  0.1835  0.2469  0.0083
20742W        W63795  28.701   0.620  14.702  0.2277 -0.0030  0.0828
20743W        W63796  18.359   1.592   1.341 -0.0383 -0.2106 -0.0177
20744W        W63797  32.255  16.270  22.110 -0.2186 -0.2187 -0.0053
20745W        W63798   4.587  14.591  17.491  0.1748 -0.6018 -0.2217
20746W        W63799   9.210  21.678  15.236  0.0063 -0.5266  0.3466
20747W        W63800  27.163  30.498   7.239  0.1287  0.1183 -0.0482
20748W        W63801  13.547   5.176  21.513 -0.3760  0.0240 -0.0379
20749W        W63802  33.619  30.272  14.374 -0.0022  0.1203 -0.1322
20750W        W63803  26.701   0.959  23.851 -0.0237 -0.2617 -0.1879
20751W        W63804  15.869  31.388  23.857  0.0674  0.1996  0.2344
20752W        W63805   5.756   5.885  24.882 -0.0542 -0.4888  0.0197
20753W        W63806  31.326  30.692   4.175  0.1605  0.2287 -0.0782
20754W        W63807  17.633   5.699  17.329  0.1151 -0.2183  0.3465
20755W        W63808  10.207  17.550   9.550  0.2306  0.0920 -0.2033
20756W        W63809  34.086  27.214   4.185 -0.1117  0.0254 -0.2110
20757W        W63810   9.219  15.638   2.506  0.0192 -0.0481  0.2739
20758W        W63811   7.832   0.028  24.371 -0.1631 -0.4079 -0.0663
20759W        W63812  13.671   6.958  24.912 -0.0061  0.0176 -0.0860
20760W        W63813   5.078  16.324   3.350  0.0190 -0.2479 -0.3501
20761W        W63814  33.430  22.045  16.360 -0.2885  0.1831 -0.0436
20762W        W63815  31.698  26.033  18.839  0.0310 -0.2127 -0.0111
20763W        W63816  29.819   6.330   6.693 -0.0162  0.0254  0.1311
20764W        W63817  34.527   6.564   0.285 -0.2085  0.0171  0.1515
20765W        W63818   7.276  28.593  23.501 -0.2705 -0.1908 -0.2052
20766W        W63819  16.798   1.239  28.963  0.0275  0.0540  0.0216
20767W        W63820  32.430   1.786   0.507  0.2285 -0.0601 -0.2608
20768W        W63821  13.335   9.229   7.763 -0.2721  0.0243  0.0381
20769W        W63822  33.627  10.786  19.178 -0.1909  0.0576  0.2415
20770W        W63823   3.074  29.530  16.040 -0.1734 -0.2016  0.1610
20771W        W63824   2.953   1.089  18.248  0.0814  0.0599  0.0452
20772W        W63825   6.147  19.780   2.378 -0.1695 -0.1693 -0.1850
20773W        W63826  34.060  19.645  18.611  0.3152 -0.3438  0.1531
20774W        W63827  32.251  12.835  14.961 -0.0335  0.2401  0.0583
20775W        W63828  16.471   0.229  26.493 -0.1520  0.1961 -0.0151
20776W        W63829   7.779   3.262   5.065  0.2119  0.0243 -0.0120
20777W        W63830   2.047   6.830  28.347  0.1377  0.0071  0.1279
20778W        W63831  32.519  16.249  18.826 -0.1248  0.3102 -0.2780
20779W        W63832   4.313  28.233   2.548 -0.2775  0.0614 -0.0845
20780W        W63833  12.439   5.056  16.456 -0.2503 -0.1100 -0.1363
20781W        W63834  31.701   5.705  14.768  0.2273  0.0584 -0.3570
20782W        W63835  34.322   8.302  26.127  0.0044  0.1930 -0.0207
20783W        W63836   6.856  16.287   3.590  0.1279  0.1384 -0.0624
20784W        W63837   4.127  20.538   6.925  0.1587  0.0988 -0.1004
20785W        W63838   2.145  10.372  15.396 -0.2056 -0.3575  0.1137
20786W        W63839  30.012  13.066   0.036  0.2265 -0.1080  0.0924
20787W        W63840  12.381   4.709  22.810  0.0783 -0.2658  0.0698
20788W        W63841   5.949   5.040  25.117 -0.2611  0.1245  0.1422
20789W        W63842   5.005  13.838  16.436 -0.1966  0.2497  0.1314
20790W        W63843  28.522  13.509  16.140 -0.2418  0.1081 -0.1387
20791W        W63844  14.368  29.771  15.612  0.1721  0.3677 -0.0355
20792W        W63845   1.267   4.720   2.890 -0.0563  0.1758 -0.3144
20793W        W63846  17.334  29.404  25.181 -0.0554  0.1247 -0.1451
20794W        W63847  32.641  32.565   3.813  0.5971 -0.0001 -0.3352
20795W        W63848  34.240   7.264   1.575 -0.0126 -0.0114 -0.0043
20796W        W63849  16.090   2.487  25.455  0.1139  0.0480 -0.1002
20797W        W63850  19.716  22.935   1.746  0.0571  0.0983  0.0604
20798W        W63851  21.602  32.047  18.930 -0.0892  0.2965 -0.0602
20799W        W63852   6.937  18.841  15.812  0.3617  0.0198 -0.0628
20800W        W63853  25.586   4.115  18.014  0.1344 -0.1127  0.1864
20801W        W63854   5.032   5.229  19.952 -0.0194 -0.1918  0.0072
20802W        W63855  10.752  15.455   6.787  0.1842  0.1689 -0.0069
20803W        W63856   5.797   0.239   3.128 -0.3118  0.0905 -0.0145
20804W        W63857  29.307  11.474   1.941  0.2199 -0.2556 -0.2487
20805W        W63858  29.553   5.272  21.544 -0.2766  0.0247  0.0242
20806W        W63859   2.442   5.638   8.074  0.0050 -0.0114  0.2939
20807W        W63860  12.611  33.055  14.444 -0.1655  0.2173 -0.1009
20808W        W63861   1.883  25.216  22.955 -0.0467 -0.0807  0.2480
20809W        W63862  11.474  33.305  24.419 -0.3528  0.0972  0.0145
20810W        W63863  12.970  33.066  18.595  0.0315  0.0395 -0.2782
20811W        W63864   0.486  27.871  18.164  0.0217 -0.1984  0.1645
20812W        W63865  15.863  28.396   6.728  0.2634  0.0893 -0.3175
20813W        W63866   1.037  10.241   0.373 -0.1151 -0.1928 -0.3010
20814W        W63867   4.912  24.342   1.038  0.0695 -0.1493 -0.1144
20815W        W63868  24.537   9.735   7.699  0.0651  0.3979  0.0132
20816W        W63869  32.558  14.396  23.651 -0.0053 -0.1777 -0.0254
20817W        W63870  12.413  11.793  20.855  0.3446  0.1215 -0.1575
20818W        W63871   8.072   5.038  17.513 -0.0523 -0.1113  0.3447
20819W        W63872  24.409  26.197   8.614  0.4130 -0.1758 -0.0008
20820W        W63873  24.171  11.582  15.370 -0.0193  0.0158 -0.0721
20821W        W63874   9.237  23.625  17.484  0.2194  0.1157 -0.0982
20822W        W63875   9.265   0.370  18.575  0.3837  0.1220  0.0466
20823W        W63876   9.488   1.709  16.816 -0.1575 -0.0636  0.0538
20824W        W63877  31.359  30.035   2.915 -0.1137  0.2613  0.0358
20825W        W63878  34.680   2.387  24.532 -0.1104  0.1609 -0.0988
20826W        W63879  23.534   2.551  18.628 -0.0060 -0.3096  0.0662
20827W        W63880   2.105  11.590  28.569  0.2337 -0.0787 -0.1427
20828W        W63881  11.599  30.688  27.468 -0.0602 -0.0081 -0.0593
20829W        W63882  26.207   1.383  24.839 -0.1064 -0.0167  0.1330
20830W        W63883   2.056  28.563  27.220 -0.0449 -0.0913 -0.3854
20831W        W63884   0.815   1.694  24.556 -0.0413 -0.2394 -0.2810
20832W        W63885  33.255   0.724  23.521 -0.0317 -0.1132 -0.4550
20833W        W63886  34.198  32.821   8.849  0.0684 -0.0731  0.3398
20834W        W63887   1.091  26.931   5.446  0.3745 -0.1174  0.0985
20835W        W63888   0.466  32.669  14.749  0.1306  0.0001 -0.0484
20836W        W63889   6.948  34.111  24.978 -0.0531  0.0886 -0.0300
20837W        W63890   2.185   1.473  23.913  0.3757  0.0023 -0.1089
20838W        W63891  21.002  28.680  16.469 -0.1085  0.0108 -0.1923
20839W        W63892  15.137   8.000  25.335 -0.1772  0.1450 -0.1550
20840W        W63893   3.957   9.471  22.558 -0.2067 -0.0663 -0.1688
20841W        W63894  33.058   8.826  15.275 -0.3742  0.0425 -0.0934
20842W        W63895  33.448   7.264   8.802  0.2645 -0.0401  0.1789
20843W        W63896   6.368  22.867   1.583  0.2964 -0.4051 -0.3371
20844W        W63897  30.685   1.184  15.195  0.1246  0.0082 -0.0588
20845W        W63898   2.765  14.548   5.545 -0.3372  0.1945 -0.1222
20846W        W63899  15.859  26.751   7.584  0.2689 -0.1778 -0.2492
20847W        W63900  15.204  10.644   1.129 -0.1184  0.2500  0.0177
20848W        W63901   5.603   3.914  22.196 -0.3094 -0.1159 -0.4555
20849W        W63902  32.372  30.511  14.647 -0.2076  0.0719 -0.0840
20850W        W63903   5.082  29.267   7.897 -0.2293  0.3115 -0.1680
20851W        W63904   8.259   1.841  21.307  0.2155  0.2280  0.2297
20852W        W63905  22.955  10.700  17.775  0.0588  0.1862 -0.1504
20853W        W63906  10.598  11.632  25.928 -0.2328 -0.0860 -0.1674
20854W        W63907   3.134  10.365  21.185 -0.0584 -0.0786 -0.0513
20855W        W63908  22.721   2.381  25.829  0.0153  0.0502  0.1763
20856W        W63909   0.780  22.777  22.778 -0.0594  0.1042 -0.0369
20857W        W63910   5.354  10.518  18.102  0.1311  0.1457  0.0947
20858W        W63911  18.031  14.875  25.380 -0.2003  0.1116  0.2061
20859W        W63912   0.843  20.264  26.910 -0.0786  0.2546 -0.1562
20860W        W63913  15.295  14.948  26.199 -0.1401 -0.0392 -0.3417
20861W        W63914  31.900  30.683  26.885 -0.2070 -0.0729 -0.0456
20862W        W63915  14.585   5.740  27.922 -0.1669  0.1803 -0.2812
20863W        W63916  27.615   2.837  28.015 -0.1131  0.2576 -0.0073
20864W        W63917   9.263  17.531  25.441  0.2705  0.0871  0.2519
20865W        W63918  15.763  29.526  28.239 -0.1800  0.3026  0.0916
20866W        W63919  12.367  19.954  19.440 -0.1485 -0.3072 -0.0296
20867W        W63920   1.334  33.223  28.418 -0.0224  0.1165  0.2131
20868W        W63921  11.716   4.420   9.533 -0.0520 -0.0889 -0.0963
20869W        W63922   8.346  27.705  27.468  0.0971  0.1833 -0.1468
20870W        W63923  13.985  18.889  24.585  0.2292 -0.2164 -0.2440
20871W        W63924  13.683   0.037  19.469  0.2971 -0.0107 -0.1170
20872W        W63925  17.901   1.498  27.023  0.1053 -0.3862 -0.1595
20873W        W63926   8.887  33.212   0.531  0.3649 -0.2454 -0.0062
20874W        W63927   3.429   7.087  24.381  0.4067  0.0775  0.0228
20875W        W63928  29.118  20.237  26.883 -0.2371  0.0053  0.2722
20876W        W63929  18.891   5.472  22.532 -0.0774  0.6153 -0.2115
20877W        W63930  25.588  12.410  24.140  0.2305 -0.1119  0.0997
20878W        W63931  32.810  10.167   2.302  0.0599 -0.0780 -0.2959
20879W        W63932   4.170  26.886  14.622  0.4577  0.0074 -0.1358
20880W        W63933   5.687  32.710  26.108 -0.3384 -0.4386 -0.2443
20881W        W63934  21.971  15.718   9.571  0.1634 -0.1336 -0.0197
20882W        W63935  20.279  16.020   5.806 -0.1228 -0.0190  0.1319
20883W        W63936  33.108   1.874   5.388  0.0139  0.1503 -0.0194
20884W        W63937   1.064   2.147  22.523  0.1743  0.0254 -0.1923
20885W        W63938   7.052   2.513  24.043  0.1237  0.0562  0.1047
20886W        W63939   4.945   1.776   0.264 -0.0955  0.0117 -0.0733
20887W        W63940   4.341   6.755  15.107 -0.0102 -0.1159  0.3804
20888W        W63941   9.932  29.219  25.243 -0.0687 -0.2486 -0.0845
20889W        W63942   3.445   5.014  28.929 -0.2848  0.1650 -0.0538
20890W        W63943  26.692  22.967  24.771  0.0821 -0.0522  0.1105
20891W        W63944   5.365  19.374   2.854  0.2382  0.3485 -0.0960
20892W        W63945  14.749  23.644  25.378 -0.0121 -0.1611 -0.1626
20893W        W63946   8.884  16.784  21.666 -0.2100  0.0714 -0.5198
20894W        W63947  29.922  23.702   1.441  0.3814 -0.0295  0.1355
20895W        W63948   3.362  29.617  25.010 -0.1437  0.0701 -0.1635
20896W        W63949   8.950   7.831  18.438 -0.2700  0.0038 -0.2146
20897W        W63950  30.432   5.711  26.392 -0.0684  0.0868  0.0029
20898W        W63951  30.037   8.722  28.793 -0.0448 -0.0593  0.3363
20899W        W63952  24.022  16.977  17.052  0.0012  0.1054  0.0597
20900W        W63953  22.232  29.117  17.738 -0.2030  0.2568 -0.0421
20901W        W63954  22.373   5.040   1.809 -0.0329 -0.2341  0.0165
20902W        W63955   5.808  28.890  23.702 -0.1371 -0.1337 -0.0480
20903W        W63956   8.301  16.308   3.062 -0.2844  0.1036 -0.1192
20904W        W63957   1.488  23.693   8.346  0.1075 -0.2047 -0.1656
20905W        W63958  19.919  29.555  29.201 -0.1407 -0.0343 -0.3155
20906W        W63959  34.207  12.492  21.977  0.1159 -0.0351  0.1184
20907W        W63960  11.057  29.699  25.436  0.0132 -0.2623 -0.0650
20908W        W63961  33.962   9.844   5.799 -0.1230  0.2429  0.0937
20909W        W63962   7.941  30.452   1.382 -0.1534  0.3177 -0.0446
20910W        W63963  12.217  31.197  23.557  0.1254  0.3093 -0.2832
20911W        W63964   6.322   4.580   0.388  0.2568 -0.0429  0.1349
20912W        W63965   5.716  25.307   8.642  0.3211  0.1377  0.1627
20913W        W63966   0.757   3.560  20.994 -0.0482  0.5039 -0.2375
20914W        W63967  34.634  24.354  14.888 -0.0500  0.1862  0.2984
20915W        W63968  14.084   2.517  17.687  0.0929  0.2855 -0.3005
20916W        W63969  12.777  19.162  22.978 -0.1213  0.4376  0.0478
20917W        W63970  32.149  33.025  17.489 -0.0543 -0.1181 -0.0042
20918W        W63971  12.662   7.233   1.834 -0.0489 -0.1145 -0.0792
20919W        W63972  24.603  30.014  10.235  0.1409  0.2711  0.0788
20920W        W63973  27.358  12.730  19.105 -0.0693  0.1095  0.1006
20921W        W63974   7.433  33.962  19.580 -0.3370  0.0460  0.2002
20922W        W63975   0.702   9.767  17.229 -0.0869  0.4877 -0.5060
20923W        W63976  25.041  28.734  14.873  0.0567  0.0026 -0.0307
20924W        W63977  23.454   3.394  19.482  0.1418  0.1874 -0.1196
20925W        W63978   3.406  13.605  15.936  0.1245 -0.2391 -0.2497
20926W        W63979   9.585  30.635   2.561 -0.0075 -0.0746 -0.0272
20927W        W63980   1.630  34.570  20.632 -0.0181  0.2110  0.0484
20928W        W63981   2.025   7.861  19.123  0.1832  0.0610 -0.1145
20929W        W63982  20.824   6.683  14.558 -0.2856 -0.0180  0.0553
20930W        W63983  19.033   1.744  16.396 -0.3229 -0.1381 -0.0949
20931W        W63984  11.420  29.690  13.652 -0.1156 -0.1892  0.0784
20932W        W63985  19.442  33.680  19.660 -0.2241 -0.0962  0.0191
20933W        W63986   0.416   5.505  27.428 -0.1285  0.2095 -0.2221
20934W        W63987  11.226  28.790  17.554  0.2532  0.0826  0.0497
20935W        W63988  18.484  32.004  26.972  0.1332  0.0648 -0.1426
20936W        W63989  29.208  25.182  14.102 -0.0276  0.0697  0.3781
20937W        W63990   7.958  30.940   9.277  0.0784  0.1035 -0.2967
20938W        W63991   2.377  32.921   1.983  0.1157  0.0776  0.0083
20939W        W63992  10.942  30.428   4.509  0.1670 -0.1297  0.3988
20940W        W63993  13.299   4.061  27.020  0.0465 -0.2220  0.0073
20941W        W63994  31.632  14.080  28.086  0.1062  0.0217  0.0076
20942W        W63995  24.898   4.384  24.223 -0.2835  0.0205 -0.0901
20943W        W63996  16.886  31.597  16.335  0.3028 -0.2156  0.0879
20944W        W63997  24.443  30.155   4.230 -0.4458 -0.1144 -0.2693
20945W        W63998   4.630  13.368   7.349  0.2044  0.1261 -0.0528
20946W        W63999  29.711  11.817  16.422 -0.5507 -0.1105 -0.1292
20947W        W64000  32.134  19.006   4.255 -0.0405  0.0546 -0.0665
20948W        W64001   1.809  34.534  15.453 -0.0586  0.4205  0.1492
20949W        W64002  14.318  18.087  26.297 -0.4154  0.3381  0.2807
20950W        W64003   5.542   8.809   2.750 -0.0608  0.2996  0.1162
20951W        W64004   3.530  18.796  17.895  0.0148 -0.0419 -0.3350
20952W        W64005  16.504   3.165  22.847  0.4205  0.2586  0.1687
20953W        W64006   1.198   3.254  24.103  0.0241  0.0729 -0.0542
20954W        W64007   5.222  16.359  24.743 -0.1107  0.0277 -0.1278
20955W        W64008   0.024  18.222   7.974  0.1339  0.3261 -0.3476
20956W        W64009  12.336  34.354  23.395 -0.0025 -0.3495  0.0356
20957W        W64010   7.660  12.493  24.373 -0.1145  0.3028  0.3204
20958W        W64011  17.499  25.643  29.000  0.0696 -0.3161  0.1295
20959W        W64012  16.004   7.661   9.352  0.0216 -0.0329  0.0691
20960W        W64013   7.308   8.764  14.940 -0.0302 -0.1110 -0.0078
20961W        W64014  18.840   6.549  24.994  0.1499 -0.2081  0.0939
20962W        W64015  16.787   2.831  22.535 -0.0242  0.3394 -0.2970
20963W        W64016  19.765  11.568  10.229  0.0162  0.2469 -0.1373
20964W        W64017  16.569   5.229   0.933  0.1523 -0.2505  0.0481
20965W        W64018  31.129   0.823  19.009  0.0052  0.2183 -0.0719
20966W        W64019  12.462   6.000  16.729 -0.1167 -0.0671 -0.2595
20967W        W64020   7.617  34.006  24.254 -0.1864  0.1059 -0.2776
20968W        W64021   6.892  24.133  19.151 -0.1490 -0.0936 -0.2238
20969W        W64022   3.487  33.711  18.390 -0.0860 -0.2694  0.2986
20970W        W64023   6.650  26.404  22.901 -0.3522  0.1181  0.0251
20971W        W64024  30.042  20.558   4.036  0.0388  0.0027 -0.0426
20972W        W64025  10.690  33.972  24.069  0.2122  0.0571  0.0383
20973W        W64026  12.727   0.799   5.046 -0.3047  0.0870  0.0440
20974W        W64027   3.049  34.218  14.134 -0.0319 -0.1866  0.0292
20975W        W64028  21.614  27.287  28.610 -0.1727 -0.0198  0.1632
20976W        W64029  13.131  31.134  23.893  0.4432 -0.1423  0.2667
20977W        W64030   7.084  15.793   9.421 -0.0756 -0.1586 -0.0119
20978W        W64031   4.064   1.034  27.430 -0.2301  0.0411 -0.2021
20979W        W64032  18.660   5.898  17.159 -0.0400 -0.0887 -0.0526
20980W        W64033  17.725   1.029   6.148 -0.0742 -0.0893  0.0995
20981W        W64034  33.466  32.141  24.161 -0.0916  0.2056  0.1813
20982W        W64035  14.508   6.181  23.309 -0.0566  0.5978 -0.1503
20983W        W64036   1.805  29.579   5.893 -0.3223  0.0581 -0.0012
20984W        W64037  30.668   5.373  16.851 -0.1423 -0.0307 -0.0336
20985W        W64038  18.104   4.128  28.612  0.1400  0.1227 -0.2363
20986W        W64039  28.470  18.119  24.535 -0.2365  0.1032  0.0824
20987W        W64040   7.000  13.544  19.520  0.0349  0.1075  0.0413
20988W        W64041  13.562  28.735  20.631  0.0543 -0.0180  0.2944
20989W        W64042   1.737   4.837  19.227 -0.0687 -0.0112  0.0642
20990W        W64043   7.864   3.276   3.970  0.0990  0.0621 -0.0117
20991W        W64044   9.044   9.089  14.384 -0.1372 -0.0363  0.1930
20992W        W64045  25.635  21.481   0.844  0.3821  0.0961 -0.1402
20993W        W64046  17.745  31.620  14.531  0.2012  0.1471  0.0636
20994W        W64047   7.077  11.901  22.188 -0.0181  0.2343 -0.0118
20995W        W64048   9.500   5.880  10.435  0.0269 -0.0813  0.1721
20996W        W64049   9.291   6.347   3.498  0.4506 -0.0513  0.1191
20997W        W64050  20.478  34.292  17.568  0.0433  0.1854 -0.1463
20998W        W64051  17.846  24.750  17.371 -0.3055  0.1193 -0.0852
20999W        W64052  23.763  32.871  14.197  0.1756  0.1425  0.2390
21000W        W64053   0.824  12.399  18.119  0.2943 -0.2098 -0.1559
21001W        W64054   9.652  18.424  20.725  0.1577  0.0996 -0.1557
21002W        W64055  18.006  29.760  26.569 -0.0412  0.0190 -0.2048
21003W        W64056  13.785   2.956  23.336  0.0297  0.0296 -0.0345
21004W        W64057  12.881   2.007  21.269  0.1709 -0.3658  0.1843
21005W        W64058   7.139  27.694   2.181 -0.0051 -0.3779 -0.0406
21006W        W64059  26.724   4.863  18.149 -0.3260 -0.0329  0.2637
21007W        W64060   4.574  14.678  16.148 -0.3464 -0.0141 -0.1103
21008W        W64061   4.182   3.319  15.970  0.2302 -0.0061  0.1151
21009W        W64062  33.670   4.460   3.358 -0.0998  0.0714 -0.1643
21010W        W64063   1.359  33.135   1.940 -0.1723  0.2947  0.4240
21011W        W64064  19.178   6.500   4.494  0.0462  0.2018 -0.0652
21012W        W64065  19.305   5.638  29.153 -0.0385 -0.3428 -0.3219
21013W        W64066   4.587  34.655   0.063  0.1913 -0.2918  0.0112
21014W        W64067   3.154   9.854  27.226  0.1069  0.2334  0.4477
21015W        W64068  29.032  15.205  29.047  0.0826 -0.3930 -0.0715
21016W        W64069  13.979   5.277   8.551 -0.1125 -0.1458 -0.1816
21017W        W64070  34.508   5.802  24.231 -0.1529 -0.5512  0.0808
21018W        W64071  26.324  12.915   8.067 -0.2123  0.2242  0.0792
21019W        W64072   1.980  30.609  19.878  0.0505 -0.1087  0.0077
21020W        W64073  18.823   1.686   3.933  0.2105 -0.1256 -0.0098
21021W        W64074  14.303   9.242   9.698 -0.1121  0.2533 -0.0166
21022W        W64075   7.016  32.642   0.439 -0.0973  0.1485  0.1295
21023W        W64076  32.604  29.468  27.027 -0.1490 -0.1277  0.2607
21024W        W64077  22.729  29.841  25.563 -0.0529 -0.0238 -0.1295
21025W        W64078  10.142   7.802  15.785 -0.0365  0.1124 -0.1298
21026W        W64079  19.354  22.991  28.436 -0.2046  0.0966 -0.0343
21027W        W64080  20.498  25.571  26.885 -0.0408  0.1797  0.2491
21028W        W64081  17.385   9.398  20.660 -0.1238  0.2884 -0.5200
21029W        W64082  27.650  23.601  21.421  0.1605  0.0393 -0.1818
21030W        W64083   8.223  33.771   2.248 -0.2269 -0.1826  0.0887
21031W        W64084  10.168  21.146   2.130  0.1687  0.1210  0.1522
21032W        W64085   9.728   5.759  18.804 -0.0886  0.0488  0.1279
21033W        W64086  12.658  10.053  25.720  0.0715 -0.2983  0.0496
21034W        W64087   2.309   3.389  17.839  0.2164  0.1631  0.0021
21035W        W64088  29.062   1.717  13.532 -0.3735  0.1360  0.2243
21036W        W64089   3.356   7.549   7.157  0.1534 -0.2265  0.0528
21037W        W64090   6.373   2.901  27.310 -0.3036 -0.1622  0.2874
21038W        W64091  13.741   3.716  20.591  0.2626 -0.1195  0.2002
21039W        W64092  10.924  17.658  15.128 -0.2141 -0.2196 -0.1685
21040W        W64093  17.261  25.012  26.077 -0.0814 -0.1515  0.1434
21041W        W64094   2.290  30.720  23.592 -0.1650  0.3663  0.3704
21042W        W64095  32.890  25.670   2.879  0.2578 -0.1910  0.0101
21043W        W64096  12.056  34.127  18.567 -0.0044  0.0126  0.0081
21044W        W64097   3.156   0.132  20.243  0.0262  0.4366  0.1920
21045W        W64098  20.406   6.058  16.943 -0.1874 -0.0192 -0.2544
21046W        W64099  22.670   4.497   3.800  0.0866  0.2225 -0.0242
21047W        W64100   2.463   4.954  22.325 -0.2559  0.0858 -0.1468
21048W        W64101   2.288  20.447  28.764  0.2344  0.0693  0.0888
21049W        W64102  11.397  11.549  22.844  0.0140 -0.1817 -0.1537
21050W        W64103  30.074   5.767  21.149  0.1994 -0.1097  0.0821
21051W        W64104   3.473  23.589   9.769 -0.1142 -0.1562  0.0202
21052W        W64105  33.720  21.123  29.114 -0.2697 -0.5054  0.0613
21053W        W64106   1.898  28.757  14.821 -0.1536  0.0193  0.2724
21054W        W64107  12.078  31.733  18.889  0.1443  0.3685  0.2017
21055W        W64108  30.410   6.132   8.079  0.2200  0.1812  0.2565
21056W        W64109  30.319  11.729  16.127  0.0349 -0.1562  0.1000
21057W        W64110   2.340  30.625  19.530 -0.2014 -0.0523  0.0592
21058W        W64111   3.805  33.697  13.947 -0.0984  0.0060  0.0216
21059W        W64112  21.444   4.954  15.302  0.0775 -0.2267  0.3313
21060W        W64113  24.086   7.657  17.473 -0.2686 -0.3320 -0.2889
21061W        W64114   9.513  20.538  23.055 -0.1364 -0.1913  0.0660
21062W        W64115  25.916  26.544  15.819 -0.0272 -0.1629 -0.4214
21063W        W64116  22.133   1.348  21.497 -0.0494 -0.0874  0.2084
21064W        W64117  18.365  11.608  27.206 -0.0255  0.1679  0.2406
21065W        W64118  33.540  18.240  21.791 -0.2238  0.3387 -0.0992
21066W        W64119  19.454   7.225  28.517 -0.0098  0.0583 -0.0331
21067W        W64120  31.408  18.096   4.314  0.0325 -0.0873 -0.1341
21068W        W64121  28.135   5.860   5.997  0.1025 -0.2790 -0.0282
21069W        W64122   4.799   2.085   4.921 -0.1276  0.1267 -0.2647
21070W        W64123   9.229  17.485  14.538 -0.2379  0.0631 -0.3103
21071W        W64124   7.395  14.402  16.260  0.0223  0.0125 -0.0864
21072W        W64125  22.302  19.517  19.521 -0.0200  0.0472 -0.2031
21073W        W64126  13.701  29.254  21.148  0.0330  0.0325  0.1256
21074W        W64127  22.163   0.277  28.576  0.0646 -0.4142 -0.0235
21075W        W64128   2.420  25.108  19.167  0.3087  0.1376 -0.3489
21076W        W64129  33.444   1.711   4.295 -0.1806 -0.3208  0.2197
21077W        W64130   9.151   2.306  21.385 -0.1415 -0.0880 -0.2173
21078W        W64131   1.018  12.451   1.404  0.0246  0.2513  0.2556
21079W        W64132   2.448   1.266  24.707  0.0530  0.1319  0.1324
21080W        W64133  30.974   7.616  15.582 -0.1237 -0.1628 -0.0499
21081W        W64134   0.885  13.482  14.484 -0.1270  0.0987  0.1700
21082W        W64135  26.589  30.159  19.479  0.2726  0.1407 -0.1042
21083W        W64136  27.572   6.781  22.920 -0.1741  0.2590 -0.1526
21084W        W64137   1.253   4.732  22.592 -0.0287 -0.3074  0.1722
21085W        W64138  18.814   5.068   5.711  0.1147  0.1666 -0.0056
21086W        W64139   3.787   7.428  18.026 -0.1430 -0.1497  0.0652
21087W        W64140   4.488  21.222  28.865 -0.1220 -0.0828 -0.2893
21088W        W64141   8.950  33.807  14.452  0.0805 -0.0337 -0.0230
21089W        W64142  18.611   2.130   3.184 -0.3770 -0.0161  0.1134
21090W        W64143   8.316  19.419   3.188  0.1577 -0.2300 -0.0645
21091W        W64144  31.475   6.626  18.937  0.0660 -0.2954 -0.1361
21092W        W64145  10.305  13.795  26.402 -0.0856 -0.3059 -0.0322
21093W        W64146   6.250   2.840  16.144  0.3262  0.0692  0.1278
21094W        W64147   2.567  32.093  26.523  0.0877  0.1048  0.3368
21095W        W64148  12.438  26.166  24.905  0.1592  0.2602  0.0605
21096W        W64149   5.738   4.884  20.403  0.1904  0.1529 -0.0132
21097W        W64150   3.297   6.274   0.232  0.4410 -0.4555 -0.2197
21098W        W64151   3.529  11.666  26.529 -0.1921  0.1019 -0.2036
21099W        W64152   8.706   9.609   4.734 -0.2805 -0.0885 -0.3474
21100W        W64153  15.379  19.929  28.423  0.2169  0.0063  0.2067
21101W        W64154   2.521   2.664  22.778  0.2382  0.1360  0.3124
21102W        W64155   7.982   2.726   1.285 -0.1369 -0.2034 -0.2147
21103W        W64156  18.081  25.864  23.717  0.2204  0.2106  0.2551
21104W        W64157   3.101  24.442   4.073 -0.0621  0.0710 -0.3159
21105W        W64158  14.618   1.519  24.623  0.2670 -0.0703  0.1015
21106W        W64159  29.189   8.981  16.678 -0.0397 -0.1181 -0.0149
21107W        W64160  32.282  32.480  26.279 -0.2350  0.3333 -0.3324
21108W        W64161  11.112   1.313  17.800  0.1581 -0.1442 -0.1423
21109W        W64162   4.613  27.967   4.267 -0.3841 -0.0447 -0.1759
21110W        W64163   9.548   6.157   4.519  0.0170 -0.1835  0.0511
21111W        W64164  30.003  11.990  21.431  0.3421  0.2737 -0.1018
21112W        W64165  33.765  30.972  17.077 -0.1760  0.0835 -0.1644
21113W        W64166  30.638   0.215   0.561 -0.3848 -0.0140  0.1982
21114W        W64167  14.279   1.571   8.925  0.0823 -0.0043  0.1602
21115W        W64168   0.880  33.620  21.973 -0.0964  0.1314 -0.0263
21116W        W64169  12.095   9.121  10.216 -0.0738 -0.1485  0.1649
21117W        W64170  24.023  24.827  17.633  0.1658  0.2805  0.1961
21118W        W64171  30.735   1.100   6.273  0.0833  0.0537  0.1296
21119W        W64172  32.339   2.700  24.447 -0.2429 -0.2463 -0.1289
21120W        W64173   9.464   1.085  19.381  0.2394  0.2586 -0.2204
21121W        W64174  12.964  33.257   3.200 -0.0315 -0.1226  0.2900
21122W        W64175  33.873   4.983  20.053 -0.1380 -0.1006 -0.1098
21123W        W64176  15.852   0.515  22.669 -0.0455 -0.0829  0.2250
21124W        W64177  32.117  25.894   9.113  0.0617  0.0768  0.0695
21125W        W64178  20.563  15.093   7.780  0.0023 -0.0657  0.0458
21126W        W64179   4.911  29.952   6.593 -0.0943  0.3499 -0.3242
21127W        W64180  13.701  13.053   2.859  0.2898  0.1040  0.0878
21128W        W64181   4.533  28.877  20.335  0.2030 -0.2318  0.1688
21129W        W64182   6.035  16.023  22.418  0.2028 -0.2177  0.2777
21130W        W64183  29.729  21.513   8.339  0.0255  0.4799 -0.1821
21131W        W64184  23.779  28.037  21.660 -0.2916  0.2868  0.0791
21132W        W64185   7.356  16.573   2.587  0.0748  0.0388 -0.1589
21133W        W64186  28.252  24.459  28.593 -0.3037 -0.2577 -0.1722
21134W        W64187  21.602   7.085  24.901 -0.2560 -0.0338 -0.0874
21135W        W64188   8.632  34.486  28.614 -0.0607 -0.1352  0.2868
21136W        W64189  15.561  26.228  24.233  0.1934  0.2495 -0.1799
21137W        W64190   1.766  33.183   9.580  0.0400  0.1456 -0.0052
21138W        W64191  14.227  13.918  25.121  0.0116  0.0635 -0.0152
21139W        W64192   5.549  22.327  22.003 -0.1318  0.0513 -0.0545
21140W        W64193   6.136   2.436  26.371 -0.1834 -0.0745  0.2586
21141W        W64194  32.427  12.433  15.952 -0.1701  0.0872 -0.1948
21142W        W64195  22.063  26.144  21.891  0.0508 -0.0137  0.2762
21143W        W64196  22.390   6.232   6.737  0.1648 -0.2827  0.3144
21144W        W64197  21.406  23.917  26.400  0.0230 -0.2473  0.2118
21145W        W64198   1.419   7.906  21.718 -0.0373  0.1830 -0.0094
21146W        W64199   9.543   6.954   7.262  0.0881  0.0237  0.0771
21147W        W64200  23.836  22.727  25.153 -0.0894  0.0293 -0.4373
21148W        W64201  16.610  26.144   4.903  0.1169  0.0214  0.1615
21149W        W64202  25.306  27.834   1.187 -0.1838 -0.0763 -0.1245
21150W        W64203  22.646  30.524  17.264 -0.4784  0.2958  0.0433
21151W        W64204  10.107  31.703   4.116 -0.1695 -0.1854  0.1277
21152W        W64205  22.651  28.201  25.029 -0.2557  0.2840  0.1346
21153W        W64206  17.494   0.935  20.382 -0.2038  0.0165  0.0755
21154W        W64207   5.021  32.768  24.933 -0.2867  0.0784  0.4072
21155W        W64208  15.623  30.408  20.619  0.0366  0.1928  0.2953
21156W        W64209   1.808  29.463  27.316 -0.1790  0.1697 -0.0684
21157W        W64210  30.271  30.733  20.835  0.0075  0.1077 -0.2642
21158W        W64211  28.151   2.448  23.125 -0.0923  0.3031 -0.0142
21159W        W64212   2.628   5.369   3.585 -0.0342 -0.0078 -0.0075
21160W        W64213   4.520   5.023   0.590  0.0701  0.0820 -0.1767
21161W        W64214   8.277  27.380   2.863 -0.1002  0.2114  0.0116
21162W        W64215   5.581   3.850  24.952  0.0442 -0.1167  0.2893
21163W        W64216  30.367  14.781  21.701  0.4081  0.0753  0.0551
21164W        W64217  23.172   1.897   7.949 -0.0363 -0.0606  0.1092
21165W        W64218   0.121  30.657   9.574  0.0505  0.0882  0.0006
21166W        W64219   1.004   3.831  19.155  0.0858  0.0216 -0.2874
21167W        W64220   4.112   8.687  15.590 -0.0773  0.1551 -0.0109
21168W        W64221  10.256  31.025  21.745  0.1089 -0.0170 -0.0652
21169W        W64222   4.287   6.710  23.418  0.1379  0.0371  0.0497
21170W        W64223   2.266  24.258  20.088  0.2013 -0.0443  0.1032
21171W        W64224   5.254   8.643  15.244 -0.1943  0.1807 -0.1768
21172W        W64225   3.158  13.715  28.483  0.1476 -0.2042 -0.0144
21173W        W64226   0.761  34.643  28.212 -0.1263  0.0347 -0.0268
21174W        W64227  15.224  32.579   1.979 -0.0418  0.1008  0.0565
21175W        W64228  11.729  34.216  10.120  0.2399  0.0606 -0.0987
21176W        W64229  11.280   9.754   3.904  0.0277  0.0746 -0.3970
21177W        W64230  32.473  30.590  18.239 -0.1230 -0.3305 -0.0976
21178W        W64231   3.223  32.182  21.509 -0.3618  0.2056  0.1247
21179W        W64232   5.934  21.524  25.828 -0.0722 -0.1308  0.3419
21180W        W64233  31.130  16.014   1.808  0.1209 -0.1304  0.0761
21181W        W64234  34.016   8.889   6.378 -0.2340  0.2196 -0.1296
21182W        W64235   0.177   1.209   8.841 -0.0053 -0.1164  0.1403
21183W        W64236  33.310   1.018  26.520  0.0202 -0.0130  0.1129
21184W        W64237  18.786  19.676  28.482  0.1662  0.0094 -0.1107
21185W        W64238   1.992  11.649  25.609  0.0070  0.2640  0.1505
21186W        W64239   8.400  28.138  27.158 -0.3147  0.0205  0.0555
21187W        W64240  15.061  13.695   0.208 -0.0676 -0.0046  0.0616
21188W        W64241  17.920   3.894   1.513 -0.1206  0.2580  0.0240
21189W        W64242  11.828  15.947  27.537  0.0200  0.2825  0.4407
21190W        W64243   3.564  11.253  24.717 -0.1118 -0.2155  0.0239
21191W        W64244  29.355  34.581  14.964  0.1738 -0.2900  0.1599
21192W        W64245   2.800  25.112  20.048 -0.1143 -0.0288 -0.4848
21193W        W64246  34.542   9.881  22.866 -0.1008 -0.0183 -0.1420
21194W        W64247   2.028   0.911   6.216  0.2752 -0.1599  0.1025
21195W        W64248   6.504  13.336  24.048 -0.1773 -0.0185  0.1947
21196W        W64249  10.714  11.140  23.605  0.1866  0.1540  0.1529
21197W        W64250  32.141   9.479   1.425 -0.0339  0.0146 -0.0767
21198W        W64251   8.478  11.042   0.304  0.2910  0.1004 -0.0468
21199W        W64252  32.444  14.627  16.555 -0.0947  0.1201  0.2278
21200W        W64253  17.001  11.833  14.669  0.2401 -0.0231  0.0717
21201W        W64254  33.641  29.389   7.011 -0.2691  0.2598 -0.0656
21202W        W64255   5.468  30.959  16.210  0.1802 -0.0302  0.0737
21203W        W64256  27.204  30.719   0.365 -0.1810 -0.3019  0.1082
21204W        W64257   8.928  31.396  21.896 -0.0805 -0.0645  0.3863
21205W        W64258   9.028  32.254  28.472 -0.2568 -0.2694  0.0549
21206W        W64259  33.925  32.839  19.340 -0.0389 -0.2298 -0.1958
21207W        W64260   6.723  18.692  24.133 -0.0150 -0.1678  0.0265
21208W        W64261   5.465  31.846   6.052 -0.1345 -0.1853  0.0274
21209W        W64262   1.655   6.148  26.021  0.0457  0.1349  0.0200
21210W        W64263   2.516  26.349   0.850  0.0363 -0.0259  0.1719
21211W        W64264  31.584   3.589  22.861  0.1795  0.0144 -0.3582
21212W        W64265  11.905   4.123  14.504  0.2100  0.0756 -0.0502
21213W        W64266  16.547  22.899   4.356  0.2029  0.0811  0.0383
21214W        W64267   1.782   2.475   8.694 -0.0910  0.2631  0.4946
21215W        W64268  20.273  31.489  28.703 -0.1524 -0.0230 -0.0214
21216W        W64269   5.032  23.651  15.063  0.3560 -0.1596  0.1643
21217W        W64270  21.184   4.631   7.122  0.0744  0.1012  0.1100
21218W        W64271  31.248  12.245  23.733 -0.2264 -0.2317  0.0257
21219W        W64272   1.196   9.794  23.984 -0.0512 -0.2872 -0.1756
21220W        W64273   9.311  25.643  28.091  0.0104 -0.1595 -0.1712
21221W        W64274  20.001  29.707   1.097  0.0139 -0.1803  0.2383
21222W        W64275  13.072  28.196  17.633  0.1774 -0.0611  0.2627
21223W        W64276  31.107  15.036  26.591 -0.0772 -0.1757 -0.1635
21224W        W64277  15.113  26.207  26.165 -0.0268  0.2325  0.3614
21225W        W64278   5.526  25.246  21.375 -0.0955  0.0465  0.1881
21226W        W64279   8.871   0.119   4.035 -0.0601 -0.0469 -0.4185
21227W        W64280   9.775  20.777  28.318  0.0206  0.2534  0.1308
21228W        W64281  33.002  13.832  19.111  0.3076 -0.1042 -0.4815
21229W        W64282  30.662  14.807   7.353 -0.0332 -0.3040  0.1099
21230W        W64283   9.865   8.525  27.213  0.3971  0.2929 -0.0161
21231W        W64284   8.349  32.091  26.013  0.0934  0.1529 -0.2778
21232W        W64285  19.267  12.562  19.134 -0.1806  0.0999 -0.2942
21233W        W64286  13.963  22.623  14.662 -0.0579 -0.1637 -0.1418
21234W        W64287   5.591  27.947  29.030  0.0373 -0.1036  0.0527
21235W        W64288  15.758   0.841  26.420  0.0899  0.0717 -0.2889
21236W        W64289  20.597  34.265  24.259  0.2956  0.0022  0.0245
21237W        W64290   8.327  31.516   0.683 -0.1408 -0.2159 -0.0982
21238W        W64291  12.919   0.274   7.444  0.1152  0.1944  0.0167
21239W        W64292  13.165   0.169  24.053  0.0879  0.0063  0.0976
21240W        W64293  32.768   8.975  24.637 -0.0249  0.3406 -0.0138
21241W        W64294   7.430  14.955  19.327 -0.1675  0.0819  0.1548
21242W        W64295   5.386  26.505  29.058 -0.1354  0.0314  0.1983
21243W        W64296   6.628  16.590  20.635  0.0715 -0.0550 -0.1427
21244W        W64297   1.080  28.999  19.669 -0.0932  0.1739  0.0582
21245W        W64298  21.886   6.463  24.601 -0.1660  0.2631  0.1720
21246W        W64299  25.084   5.842   9.337  0.1453 -0.4672 -0.0463
21247W        W64300  30.693  34.618  14.833  0.0130  0.1986  0.0395
21248W        W64301   3.312   5.594   1.308  0.1287  0.0374  0.1078
21249W        W64302  30.590   0.366  25.850  0.0746  0.0145 -0.0423
21250W        W64303  34.126  25.711   2.038  0.2406  0.3232 -0.0578
21251W        W64304   1.927   0.620   8.819  0.1260 -0.0096  0.1349
21252W        W64305  21.784  32.303  24.578 -0.3396 -0.0217 -0.3563
21253W        W64306  13.585   8.494   9.822 -0.0352 -0.0440 -0.0028
21254W        W64307  12.622   6.501   3.833 -0.1302 -0.0810 -0.1692
21255W        W64308   9.718  24.789   6.728 -0.1026  0.1675 -0.1093
21256W        W64309  12.228  31.917   6.666  0.0270 -0.0929  0.1304
21257W        W64310   8.194  21.585   3.106 -0.1589  0.3848 -0.0531
21258W        W64311  13.778   2.974   6.538 -0.0938 -0.3104 -0.0685
21259W        W64312   8.437   0.881  17.717  0.0675  0.2162 -0.3258
21260W        W64313  25.710   5.502  17.643  0.1557  0.0196  0.2303
21261W        W64314  29.068  19.352  26.942  0.0519 -0.1112 -0.2933
21262W        W64315   1.365   6.298   6.210  0.2347 -0.2384  0.2814
21263W        W64316   9.195  10.293   1.382 -0.2683  0.3950 -0.0838
21264W        W64317  33.514   2.184  20.432 -0.3169  0.4378 -0.0518
21265W        W64318   9.251  33.610   9.258  0.2893  0.2846  0.2813
21266W        W64319  28.650   0.510   3.711  0.1355 -0.1833 -0.0353
21267W        W64320  11.803  33.078  18.578 -0.0624  0.1993  0.0356
21268W        W64321  25.157   7.304  14.663 -0.0138  0.1732  0.1240
21269W        W64322  10.027   2.500   3.348  0.2584  0.0987 -0.0454
21270W        W64323  34.197  31.841   8.152  0.3542  0.1330 -0.1199
21271W        W64324   1.364  24.886  22.901  0.2549  0.0385 -0.0927
21272W        W64325  26.423  12.026   7.527  0.2124  0.4092 -0.0968
21273W        W64326   5.134  33.862   1.853 -0.2538  0.1255 -0.1012
21274W        W64327   9.077   4.514   1.095  0.4303  0.3091 -0.0041
21275W        W64328   8.253   2.355  23.179  0.0745  0.0324 -0.1603
21276W        W64329  14.718   0.836  18.786 -0.0705 -0.3121  0.1062
21277W        W64330   0.769  30.264  21.477  0.0220  0.1194  0.0109
21278W        W64331   5.324  34.611  24.217 -0.1273 -0.2465 -0.2548
21279W        W64332   6.101   8.580  19.753 -0.1031 -0.1151  0.3002
21280W        W64333  16.999  12.000   6.243  0.0628 -0.2602 -0.0897
21281W        W64334  22.599  11.788  14.267 -0.1234 -0.1961  0.0158
21282W        W64335   8.573   4.364   1.140  0.3976 -0.2785 -0.0240
21283W        W64336  16.527   1.647  28.615 -0.2645 -0.1328  0.2375
21284W        W64337  28.932  31.192  14.131  0.0864 -0.0387  0.0289
21285W        W64338  16.086  32.550  19.655  0.0616 -0.0860  0.0268
21286W        W64339   1.903  18.794  21.861  0.4058 -0.2043 -0.0536
21287W        W64340  27.799   1.747   9.240  0.2383  0.2838  0.2926
21288W        W64341  17.324  26.071   0.881  0.2578 -0.1751 -0.1876
21289W        W64342   4.868  24.117   4.073 -0.0680 -0.0495 -0.3795
21290W        W64343   1.830  29.732  21.231  0.0404  0.3279  0.4046
21291W        W64344   7.371   5.596   7.760 -0.1740 -0.1824  0.0009
21292W        W64345  26.319  22.588  20.328  0.1250  0.0645  0.3142
21293W        W64346  13.460   2.584  24.318 -0.2209 -0.1104  0.1445
21294W        W64347  11.709   8.002   2.519  0.3352  0.4779  0.0965
21295W        W64348   2.796  17.267  24.036 -0.0481  0.1994  0.2399
21296W        W64349   8.918   3.281  26.496 -0.2494  0.0280 -0.0324
21297W        W64350  27.199  13.671  23.886  0.3134  0.3911  0.4200
21298W        W64351  30.791  33.874   3.952  0.0516  0.1022 -0.3241
21299W        W64352  16.545   1.927  26.649  0.0390  0.0905  0.1638
21300W        W64353  15.576  29.171  16.755 -0.0389 -0.1682  0.2044
21301W        W64354  26.771  17.580  25.102 -0.0702  0.0822 -0.0912
21302W        W64355  34.266  21.240   7.040  0.1204  0.3562 -0.0084
21303W        W64356   4.821   1.332  28.449  0.1169  0.2655 -0.0601
21304W        W64357   7.079  10.741  22.707 -0.3021  0.0794  0.1867
21305W        W64358  28.882   3.946  21.599  0.0270 -0.1146  0.0134
21306W        W64359  31.806  20.869  17.239 -0.0461  0.0867  0.0903
21307W        W64360   7.821  10.759  16.284 -0.3350  0.1496  0.4108
21308W        W64361   2.796  30.139   0.301 -0.4101  0.0038  0.1695
21309W        W64362  14.852  15.835   3.160  0.1052  0.3056 -0.2265
21310W        W64363   5.277  28.454  17.376  0.0383 -0.1808 -0.0837
21311W        W64364  33.819  22.102   7.147 -0.5915  0.0908 -0.2905
21312W        W64365  20.466   5.291   7.160 -0.0122  0.1154 -0.4910
21313W        W64366  32.392  17.096  28.516 -0.0305 -0.1667  0.2826
21314W        W64367  24.583   2.354  27.380  0.0706 -0.1318 -0.2595
21315W        W64368  24.224   4.167  18.747 -0.1946 -0.0241 -0.0092
21316W        W64369  21.930  21.568   9.508 -0.0546 -0.1121 -0.0509
21317W        W64370  19.122   0.904   0.404 -0.0430  0.0320 -0.0768
21318W        W64371   1.693   0.890  25.492 -0.0184  0.1667 -0.3005
21319W        W64372  13.740   3.358  23.643  0.1553 -0.1703  0.0225
21320W        W64373   6.303  10.084   4.341 -0.1684  0.0648 -0.0637
21321W        W64374  14.012   6.490   7.049 -0.0680  0.3340 -0.1739
21322W        W64375  31.438   2.864   7.054 -0.0001 -0.0803 -0.0835
21323W        W64376  10.553  31.815   0.505  0.2126 -0.0166  0.0119
21324W        W64377   2.026   5.390  26.531  0.0132  0.0283 -0.1277
21325W        W64378   2.728  29.570   5.105  0.0495  0.2917  0.0713
21326W        W64379  12.838  14.457   0.874  0.1395  0.1139 -0.1476
21327W        W64380  19.317  31.418  24.680 -0.0456 -0.1898 -0.1631
21328W        W64381   0.378  23.741  28.929  0.3213  0.0178  0.2183
21329W        W64382   7.285  29.691  17.946 -0.0663  0.2713 -0.3484
21330W        W64383   3.915  33.852  20.260  0.3025  0.0105 -0.1711
21331W        W64384  25.781  19.504   6.242  0.1699  0.0172 -0.0835
21332W        W64385   2.724  29.846  17.446 -0.2279  0.1518  0.0038
21333W        W64386  10.856  16.515  25.441 -0.2229  0.1125  0.2269
21334W        W64387  26.798  18.008  27.022 -0.1311  0.1361 -0.0854
21335W        W64388   6.405  21.595   2.016 -0.0374 -0.2156  0.0467
21336W        W64389  28.361  26.699  28.601 -0.0041 -0.4326 -0.1767
21337W        W64390   7.932  21.164   2.062 -0.0963 -0.0061 -0.1053
21338W        W64391  11.572   4.816   1.196 -0.0185 -0.2569  0.1529
21339W        W64392  31.343  19.556  14.988  0.1325  0.0433 -0.0011
21340W        W64393  11.333  28.597   8.223 -0.0658 -0.1678 -0.0379
21341W        W64394  10.032  30.781  24.839 -0.1843 -0.0586 -0.0818
21342W        W64395   1.460  15.689  15.469  0.1202  0.0507 -0.4368
21343W        W64396   8.425  33.043  19.085 -0.0213 -0.0891 -0.3460
21344W        W64397  10.850  11.931  24.324 -0.1489 -0.0786  0.0597
21345W        W64398  16.026  34.611   5.654 -0.0977 -0.1023  0.0935
21346W        W64399  10.338   3.613   2.021  0.0979 -0.1215 -0.0452
21347W        W64400   2.567  10.762   9.802 -0.1366 -0.1806 -0.2639
21348W        W64401  14.731  21.141   5.179  0.2136 -0.0060 -0.0342
21349W        W64402  22.063  23.943  23.846  0.4296 -0.0528 -0.1732
21350W        W64403  21.025   4.546  20.209  0.1922  0.2810  0.2985
21351W        W64404   3.722   0.797   6.890  0.1204  0.5740  0.0529
21352W        W64405  17.228  29.248  26.195 -0.2660  0.0365  0.4600
21353W        W64406  34.102   8.992  23.057 -0.2215 -0.0482  0.0619
21354W        W64407  17.767  13.337   0.580 -0.0237  0.0149 -0.3363
21355W        W64408   5.380   2.247   7.987  0.1429 -0.2100 -0.1544
21356W        W64409  17.206   2.046   1.862  0.0441 -0.1026 -0.1287
21357W        W64410   5.763  32.398   3.951 -0.1864 -0.0012  0.5965
21358W        W64411  14.518  25.197   7.041  0.1296 -0.1587  0.0941
21359W        W64412  21.238   8.014  20.668  0.0831  0.2247 -0.1270
21360W        W64413  18.463  25.806   2.007  0.0771  0.0810 -0.0740
21361W        W64414   1.735  30.487  16.026 -0.3286 -0.0649 -0.4348
21362W        W64415  11.742   4.051   6.585 -0.0019  0.0763  0.1753
21363W        W64416   9.223   8.581  22.180  0.1806  0.0778  0.0742
21364W        W64417   8.556  20.788  27.497 -0.0057 -0.0146  0.5832
21365W        W64418   6.071   1.889   0.472 -0.4240 -0.0452  0.0987
21366W        W64419  10.746  32.238  25.871 -0.0220 -0.2662 -0.2749
21367W        W64420   1.922  32.870   1.048 -0.1669  0.1599  0.0094
21368W        W64421  31.514  32.074  27.265 -0.1128 -0.1484  0.1434
21369W        W64422   9.293  33.889  27.318  0.0859  0.0191  0.0873
21370W        W64423   6.772  10.359  23.873  0.4876  0.0110  0.0818
21371W        W64424  28.882  12.105  19.350  0.0773 -0.2681 -0.1841
21372W        W64425  20.648  27.969  19.634 -0.2905  0.4672 -0.1486
21373W        W64426  13.427  31.034  25.508 -0.0049 -0.3892  0.0060
21374W        W64427  29.870   1.809  28.939 -0.0744 -0.2284 -0.1684
21375W        W64428  14.733  25.579   0.282 -0.1217  0.1937  0.1742
21376W        W64429  10.881   2.595  23.337  0.2689  0.0868  0.0853
21377W        W64430   7.020  23.797   9.028  0.2743 -0.0196  0.1962
21378W        W64431   9.024  24.368   1.949  0.1927 -0.1655 -0.0489
21379W        W64432   7.968  17.727   4.870 -0.0196  0.0744  0.0725
21380W        W64433   6.692  11.354  27.759 -0.0356  0.0525  0.1334
21381W        W64434  28.064  27.977   0.616 -0.0744  0.0542  0.1363
21382W        W64435  34.395   9.957  21.054  0.1424  0.3045 -0.0587
21383W        W64436  10.482  25.461  24.488 -0.0661  0.0142  0.4926
21384W        W64437  25.371  10.989  21.194  0.0583 -0.0045  0.3723
21385W        W64438  12.444  31.461  27.924 -0.0807 -0.2330  0.2730
21386W        W64439   2.306  31.869   5.523 -0.0347 -0.4532 -0.1459
21387W        W64440   9.856   8.396   5.767  0.1271 -0.0670 -0.1688
21388W        W64441   4.756  16.936  21.014 -0.1466 -0.1972 -0.2127
21389W        W64442   3.996  21.954   6.725  0.1429 -0.0559 -0.3979
21390W        W64443  15.170  13.920  27.244 -0.0919  0.0737  0.2687
21391W        W64444   5.957  30.944   4.376  0.1757 -0.0475  0.2630
21392W        W64445  17.645   0.477  27.842  0.0598  0.1416 -0.0989
21393W        W64446   9.071   5.445   8.342 -0.1329  0.2578  0.2538
21394W        W64447   5.587  21.437  26.338  0.0878 -0.0256 -0.1243
21395W        W64448  18.264  27.921   9.172 -0.0309 -0.0112 -0.5357
21396W        W64449  26.179   1.856   3.905 -0.0319 -0.0680 -0.0420
21397W        W64450  11.387  31.488  18.423 -0.0780  0.1124 -0.0762
21398W        W64451  14.646  25.657   4.947  0.1401 -0.1098  0.1388
21399W        W64452  13.450   2.838   8.076 -0.0566  0.0445  0.1386
21400W        W64453   7.686   3.628   4.266  0.2521 -0.1602 -0.0724
21401W        W64454  29.077  31.938   7.159  0.0768 -0.1589 -0.0765
21402W        W64455  33.829  32.153   8.337  0.2633 -0.3211 -0.2132
21403W        W64456   4.164  34.462  23.844 -0.0337  0.1309  0.2731
21404W        W64457  13.078   9.204  24.595  0.0254  0.1413 -0.1310
21405W        W64458   1.806  19.033  14.980 -0.1502  0.0310  0.2234
21406W        W64459  19.238   6.620  18.930 -0.2177  0.1636 -0.1638
21407W        W64460   1.074  18.389  22.202 -0.2804  0.1435  0.0939
21408W        W64461   3.988  29.744   0.115 -0.0411  0.1080 -0.1688
21409W        W64462  34.221  31.631  15.217  0.2302 -0.4443  0.0328
21410W        W64463   1.346   9.286  27.166  0.1783 -0.0815  0.0263
21411W        W64464  26.040  19.199   2.662 -0.1300 -0.0333 -0.0389
21412W        W64465   3.644  18.167   2.262 -0.0631  0.1334  0.3518
21413W        W64466  26.892  28.993  27.598  0.0369  0.2123  0.1696
21414W        W64467  33.690   8.831   1.490  0.0586  0.3324  0.0210
21415W        W64468  27.992  30.039  17.015  0.1724  0.1451  0.4186
21416W        W64469  13.871   6.664   1.398  0.0549  0.1911  0.0449
21417W        W64470  22.964  25.345  27.727  0.0963  0.1213 -0.2743
21418W        W64471  14.180   2.567  22.017  0.3088  0.1229 -0.0486
21419W        W64472  14.429  12.879   2.417  0.4211 -0.0379  0.0049
21420W        W64473   0.276  27.959   2.760 -0.2988  0.1569 -0.3613
21421W        W64474  29.661  19.390  24.578 -0.0997 -0.2974 -0.1173
21422W        W64475   8.171   4.652  22.896 -0.2627  0.0533  0.0248
21423W        W64476   1.227  26.403  18.839  0.5493 -0.4016 -0.2366
21424W        W64477  18.569  32.359  19.163  0.0518  0.4479 -0.2169
21425W        W64478  23.595   0.189   6.559  0.1377 -0.0948 -0.0907
21426W        W64479  32.433   3.456   6.406 -0.1101 -0.0193  0.0837
21427W        W64480  32.606   7.683  19.589 -0.0267 -0.3211 -0.0182
21428W        W64481  24.595  25.817   4.610 -0.2757 -0.1890  0.1449
21429W        W64482  29.052  33.233   7.760  0.1535  0.2339 -0.1027
21430W        W64483   2.327  27.750   6.954 -0.1998 -0.0951 -0.3160
21431W        W64484   9.640   2.176   5.247  0.1245 -0.2090 -0.1182
21432W        W64485  12.152  11.921   9.474 -0.0245 -0.1630  0.1462
21433W        W64486  26.441  14.394  26.505  0.1349  0.2704 -0.5130
21434W        W64487  32.062   5.327   2.068 -0.0484 -0.0052 -0.1963
21435W        W64488  15.649  26.460  17.072  0.2633 -0.0828 -0.0024
21436W        W64489  28.984   5.330   4.050  0.1110  0.2087  0.3672
21437W        W64490  10.859   1.265  27.982 -0.1346  0.2327  0.0383
21438W        W64491  10.057  17.180  24.221  0.0710 -0.0102  0.0659
21439W        W64492  14.439   0.717  27.638  0.0756 -0.0341 -0.0562
21440W        W64493  29.629  20.650   7.814  0.2777  0.0587 -0.2724
21441W        W64494  25.808  17.246  18.247  0.3087 -0.1551  0.2444
21442W        W64495  26.805  25.432   8.991 -0.1598  0.2105  0.0311
21443W        W64496   5.614  27.278  24.345  0.1533 -0.0261  0.1095
21444W        W64497  25.098  31.114   4.963 -0.1708 -0.3753  0.0059
21445W        W64498   7.472   3.671  17.759 -0.1315 -0.2229 -0.1753
21446W        W64499  11.111   8.740  19.691 -0.0793  0.3614  0.2477
21447W        W64500  10.740  17.630  27.668 -0.0192  0.1524  0.1102
21448W        W64501  11.778  31.923   1.324  0.2310 -0.0465 -0.2280
21449W        W64502  17.389   9.947  26.566 -0.3507  0.2546  0.0104
21450W        W64503  22.565  17.582   5.790 -0.0481  0.0305  0.0541
21451W        W64504  15.352   9.043  21.954 -0.1106 -0.2309 -0.1564
21452W        W64505  22.578   4.316  15.555  0.0789 -0.2198  0.0748
21453W        W64506   0.715   6.478   2.593 -0.2862  0.0123 -0.0624
21454W        W64507  32.653  17.215   7.984  0.3473 -0.2265 -0.2248
21455W        W64508  32.226  11.068  21.930 -0.0900  0.3697  0.2617
21456W        W64509  34.198  29.480  28.166  0.3798 -0.3006  0.0002
21457W        W64510  11.502  33.814   8.619  0.0547 -0.0679 -0.1189
21458W        W64511   6.227   0.367  19.217 -0.1198  0.0448 -0.1179
21459W        W64512   5.757  34.299   0.617 -0.2299 -0.2286  0.1635
21460W        W64513   5.194  34.567   9.689  0.0761  0.0496  0.2023
21461W        W64514  28.182   3.927   0.761 -0.0500 -0.1629  0.1584
21462W        W64515  24.360  14.359  28.455 -0.1447  0.0156 -0.2070
21463W        W64516   3.702  10.694  28.465  0.1040 -0.0546 -0.0615
21464W        W64517   5.762   3.966   0.073 -0.1121 -0.0469  0.0656
21465W        W64518   5.699  26.178   3.292  0.1506  0.0389 -0.1012
21466W        W64519   0.982  11.311  27.945  0.1229  0.1008  0.0722
21467W        W64520   3.506   8.075  21.902  0.0762  0.2695 -0.1640
21468W        W64521   4.170  15.594  24.684 -0.2007  0.0142  0.1390
21469W        W64522  12.786  31.892  22.153  0.0146 -0.0072  0.2176
21470W        W64523  25.731   1.617  18.353 -0.0032  0.2388  0.1224
21471W        W64524  29.533  14.226  29.090 -0.0624  0.0728 -0.2125
21472W        W64525  11.475   8.250   7.316  0.1306  0.0523 -0.1593
21473W        W64526  11.245  14.775   8.287  0.0525 -0.2297  0.1184
21474W        W64527   4.943  26.426   3.890 -0.1366  0.1566 -0.1898
21475W        W64528   7.816  23.360   3.720  0.0635  0.1760 -0.1600
21476W        W64529  31.213  23.650   6.563 -0.0764 -0.2123  0.1886
21477W        W64530  15.512  13.996  10.533  0.3412  0.0072 -0.1113
21478W        W64531  12.999  13.772  17.539 -0.3429 -0.1473 -0.0186
21479W        W64532   0.260  29.169   8.149 -0.1158  0.0880  0.1779
21480W        W64533   0.532   6.002   1.803  0.1397 -0.1251 -0.2358
21481W        W64534   1.355  29.368  22.284  0.0327 -0.2826 -0.4540
21482W        W64535  17.963  20.242   0.536  0.0229 -0.3064  0.0411
21483W        W64536   2.182  20.137   3.917 -0.1945  0.1612  0.1344
21484W        W64537   0.463   7.945  29.096 -0.2536 -0.0517  0.2215
21485W        W64538  10.223  30.184  16.624 -0.0311  0.1034  0.0435
21486W        W64539  25.291  33.885   7.131  0.2389 -0.0795  0.2057
21487W        W64540   3.433  24.136  23.686 -0.0591 -0.1461  0.0467
21488W        W64541   8.227  16.794  15.889  0.0456 -0.1431 -0.2488
21489W        W64542  16.810  12.216  21.004  0.4297 -0.0321  0.3700
21490W        W64543   9.337  22.351  28.214  0.2311 -0.1481 -0.3251
21491W        W64544  18.174   6.139   5.649 -0.0616  0.1421 -0.0397
21492W        W64545   6.048   2.321   5.370 -0.1701  0.0676  0.3271
21493W        W64546  17.241   9.149  10.121 -0.1396 -0.0200 -0.2046
21494W        W64547   1.759   7.641   2.632 -0.1055  0.2392 -0.0390
21495W        W64548  16.617  27.770  27.048  0.1201 -0.1833 -0.2666
21496W        W64549  21.642  16.969  17.600  0.0982  0.3639  0.1058
21497W        W64550  27.964   1.895  18.359  0.0020  0.0856  0.1774
21498W        W64551  30.644   0.007  19.407  0.1811 -0.0836  0.2403
21499W        W64552  26.791  10.678  24.983 -0.0626  0.4883  0.0694
21500W        W64553  14.754  26.259  17.520  0.1429 -0.0071  0.3564
21501W        W64554  11.231  31.643  22.787  0.0340  0.0617 -0.3110
21502W        W64555   2.386  28.829   8.803  0.0595 -0.1561 -0.1267
21503W        W64556  27.669  14.118  24.595  0.1040 -0.3533  0.1412
21504W        W64557  20.926  18.014  15.999  0.1704 -0.1118  0.1677
21505W        W64558  23.994  11.925  15.644  0.2686  0.1754 -0.1714
21506W        W64559   5.491   6.129  26.205 -0.0066  0.0660 -0.1243
21507W        W64560  21.406  10.131   3.556 -0.3673 -0.0139 -0.2005
21508W        W64561   6.888  26.574   2.510  0.2626  0.1399  0.1096
21509W        W64562  16.399  30.690   5.448  0.0653  0.1225 -0.0069
21510W        W64563  16.122   1.395   1.184 -0.2060 -0.1793 -0.3282
21511W        W64564   9.422  17.935  28.617  0.0026 -0.2366 -0.0529
21512W        W64565  28.663   3.053  27.911 -0.3683 -0.2882  0.0151
21513W        W64566  11.005  29.395   1.587  0.0967  0.1014  0.1016
21514W        W64567  16.816  19.799   4.507 -0.2926  0.2052  0.0032
21515W        W64568  31.537   2.550  23.473  0.0147  0.1870  0.1534
21516W        W64569   0.280   6.655   0.559  0.0528  0.1293  0.2829
21517W        W64570  12.279  31.644  28.378 -0.1341 -0.0730  0.0314
21518W        W64571   3.260  16.765  24.007 -0.1080  0.2890 -0.1811
21519W        W64572  10.512  28.956   5.186  0.0229  0.0813 -0.1999
21520W        W64573   5.561  32.474   0.823  0.1285 -0.2076 -0.1389
21521W        W64574   9.641  15.134  26.640 -0.2079  0.2251  0.0836
21522W        W64575  16.555  34.592  20.473 -0.0316 -0.3521 -0.0707
21523W        W64576   5.098  12.981   8.565 -0.1844  0.0353  0.0183
21524W        W64577   5.167  31.041  27.906 -0.0411 -0.1857  0.3319
21525W        W64578  12.841   3.046   2.340  0.0313 -0.1590  0.2528
21526W        W64579  32.619   1.324  19.933 -0.0242 -0.1332 -0.0007
21527W        W64580   0.905  18.017  18.251 -0.1372 -0.0216 -0.1232
21528W        W64581   1.017   1.194   2.570 -0.0574  0.1243  0.0625
21529W        W64582  24.266  14.925  28.449  0.2380  0.1745  0.1684
21530W        W64583  31.375   3.468   2.942 -0.3806  0.2416 -0.1370
21531W        W64584   5.659   4.202  17.296  0.1844  0.1396 -0.0167
21532W        W64585  26.780  16.892   1.507 -0.4686  0.3222  0.0622
21533W        W64586  28.659  27.294  28.630 -0.3343  0.2560 -0.1211
21534W        W64587   6.367  28.620  19.655  0.0593  0.1312 -0.1377
21535W        W64588   6.258   4.549  23.822  0.0623 -0.0356  0.0225
21536W        W64589  12.703  24.830   8.284 -0.0824 -0.0744  0.1430
21537W        W64590   9.178  28.372   2.316 -0.0568  0.1399 -0.0493
21538W        W64591  15.195  25.254   5.511 -0.1288  0.1899  0.0098
21539W        W64592  15.286   1.734   5.526  0.0538  0.0991  0.0585
21540W        W64593  10.031   2.536   6.082 -0.1839 -0.0029 -0.1172
21541W        W64594  11.164  31.967  17.302 -0.1767 -0.0193  0.1357
21542W        W64595   2.815  12.945   3.519 -0.0911  0.3109 -0.0658
21543W        W64596   4.016   2.106   5.704  0.3865  0.0309  0.1458
21544W        W64597   6.713  28.261  28.676 -0.0102  0.0581  0.0623
21545W        W64598   6.132   2.457   9.963 -0.0211 -0.1477 -0.2170
21546W        W64599  17.628   4.289  16.711  0.1287 -0.1928 -0.1785
21547W        W64600  23.235   2.540  21.308 -0.1611  0.2885 -0.5454
21548W        W64601  12.576  14.887   3.494 -0.0766 -0.0108  0.1606
21549W        W64602   7.749   7.944   0.257  0.0621  0.3130 -0.1466
21550W        W64603  13.927   2.722  22.415  0.1529  0.0266  0.2317
21551W        W64604  23.139  11.699  17.722  0.3592  0.2770  0.0160
21552W        W64605   5.642  20.836  19.948  0.2108  0.1107  0.3903
21553W        W64606   2.996  10.929  20.589 -0.0152 -0.2618 -0.1862
21554W        W64607  22.319   2.899  14.900  0.0270  0.0671  0.4326
21555W        W64608   4.674  11.179   1.658  0.0887 -0.4742 -0.1475
21556W        W64609   9.050   6.585  18.768  0.2569 -0.2393  0.0337
21557W        W64610  31.936  25.941  18.077 -0.0510 -0.3060  0.1068
21558W        W64611  20.664  13.432  20.852 -0.1635 -0.0001 -0.3169
21559W        W64612   6.606  34.393  23.228  0.0439 -0.1925  0.0217
21560W        W64613  14.818   2.124  15.354  0.0143 -0.3653 -0.4325
21561W        W64614  15.297  32.101  24.395  0.0432 -0.2507 -0.3380
21562W        W64615   8.115   7.088  23.910  0.0694 -0.2407  0.0942
21563W        W64616  14.058  28.628  15.618 -0.0831 -0.3525  0.3319
21564W        W64617  32.294  33.491  19.856  0.0124  0.1468  0.0944
21565W        W64618  22.699  15.115  20.619 -0.0016 -0.2740 -0.2337
21566W        W64619   4.731   8.101  20.563  0.1177  0.2758  0.2940
21567W        W64620  10.906   5.459   6.097 -0.0408 -0.0373  0.0806
21568W        W64621  13.698  31.157  18.841 -0.0669  0.0485  0.1108
21569W        W64622  11.056  28.609  21.949 -0.1760 -0.0132 -0.0498
21570W        W64623  11.934  11.833  20.643 -0.2382 -0.1176 -0.1864
21571W        W64624  10.904   8.356   2.517 -0.1169  0.0828 -0.1220
21572W        W64625   8.762  34.532  22.508  0.3108  0.1375 -0.0349
21573W        W64626  13.158  11.841   1.640 -0.1554 -0.1062 -0.0413
21574W        W64627   8.514   0.131   0.071  0.0291 -0.1907 -0.1681
21575W        W64628   6.279  18.191  14.984 -0.0440  0.0008 -0.1180
21576W        W64629   5.531  33.704   7.275 -0.2139  0.2462 -0.1575
21577W        W64630  14.153   2.969  25.896 -0.2350 -0.0727  0.0066
21578W        W64631  25.837  17.825  19.542 -0.0609 -0.0739  0.1692
21579W        W64632   9.527   8.239  19.882 -0.1765  0.3682 -0.2863
21580W        W64633   8.646  14.197  18.681  0.0573 -0.1339  0.5283
21581W        W64634  25.832  33.931   0.145  0.3251 -0.0071  0.1045
21582W        W64635  33.205  20.336  24.116 -0.0303  0.2052  0.4079
21583W        W64636  11.823  14.937  21.266  0.0695 -0.0758  0.2005
21584W        W64637  16.943   4.589  13.892 -0.0811  0.0058  0.0459
21585W        W64638   4.816   6.507  19.623  0.0294  0.1623  0.2849
21586W        W64639  28.777   9.212  16.969  0.0045 -0.0150 -0.2648
21587W        W64640   4.325  32.706  22.715 -0.1545  0.1623 -0.2762
21588W        W64641  17.690  23.572  24.254  0.2026 -0.0760  0.0661
21589W        W64642  17.206   1.008  22.629 -0.1559  0.0897  0.0282
21590W        W64643  29.242  13.462  24.502 -0.0362 -0.2482 -0.0379
21591W        W64644  21.043   4.229  22.099 -0.0513 -0.1252  0.1298
21592W        W64645   7.571  18.481  16.459  0.0023  0.3106 -0.1769
21593W        W64646  33.085   6.432  17.450  0.0029  0.1776 -0.1339
21594W        W64647   9.074  29.896  21.032 -0.0399 -0.1802  0.3271
21595W        W64648  33.279  24.246  26.413 -0.0205 -0.1469  0.0049
21596W        W64649  31.028   1.148  24.037 -0.0201  0.3390  0.0308
21597W        W64650  17.722  33.846  25.500 -0.1160  0.0476 -0.1323
21598W        W64651   6.016   0.056  14.909 -0.1437  0.1192  0.0538
21599W        W64652  16.208   7.328  27.599  0.2401  0.1670  0.0740
21600W        W64653   1.535  29.771  26.427  0.3625  0.0748 -0.1651
21601W        W64654  31.185  10.614  16.200 -0.2183  0.0099 -0.1019
21602W        W64655  10.076  27.059  24.078  0.2272  0.2372  0.0164
21603W        W64656   0.486  28.284  17.794 -0.0667  0.1521 -0.0810
21604W        W64657  31.910  10.211  27.677  0.4493 -0.1645  0.2697
21605W        W64658  11.105   6.294  24.148 -0.0875  0.0283 -0.0933
21606W        W64659   1.591  23.626  18.485  0.0517  0.3112 -0.1242
21607W        W64660   2.194   7.525  22.658  0.1975  0.0446 -0.1274
21608W        W64661   5.661  29.990  16.908 -0.1188 -0.1286  0.0973
21609W        W64662  12.135   3.240  25.290 -0.2477  0.0760  0.0634
21610W        W64663  14.438   6.883  18.723  0.0292 -0.0076  0.2901
21611W        W64664  14.083  31.577  19.280  0.1915 -0.3420 -0.1758
21612W        W64665   0.777  18.748   4.803  0.1920 -0.0584 -0.0473
21613W        W64666  21.325  10.178  17.480 -0.1997  0.3420 -0.1132
21614W        W64667  33.825  31.467  21.969 -0.0134 -0.2119  0.2038
21615W        W64668  30.181   4.397   5.340 -0.2214 -0.3303  0.1569
21616W        W64669  23.073  20.712  19.351  0.3647  0.0954  0.1531
21617W        W64670   9.581  18.676  16.593 -0.7131  0.2124 -0.1310
21618W        W64671  32.009   8.874  14.751  0.5582 -0.1943 -0.2751
21619W        W64672   3.658   1.940  15.589 -0.0314  0.2048  0.1271
21620W        W64673  14.092  27.939  22.054 -0.3207  0.3016 -0.0665
21621W        W64674   9.039  11.913  17.025  0.1069 -0.3147 -0.1357
21622W        W64675   4.324   4.184  18.525 -0.1438 -0.1713 -0.0376
21623W        W64676   1.167  16.980  16.913  0.0398 -0.0496  0.0917
21624W        W64677   3.827   0.343  17.573  0.0705 -0.1711 -0.2712
21625W        W64678   5.984   7.191  21.155  0.2617  0.0689 -0.0484
21626W        W64679  33.508   9.463  14.661  0.0925  0.1267 -0.0911
21627W        W64680   9.787   0.277  18.350  0.3992 -0.1151 -0.0592
21628W        W64681  33.876  31.649   4.655  0.1375 -0.0073 -0.1318
21629W        W64682  23.194   5.966  16.119 -0.2073  0.1470 -0.0916
21630W        W64683  14.950   5.636  22.712  0.1784 -0.0038 -0.5767
21631W        W64684   4.577   3.278  21.270  0.0861  0.3692  0.2042
21632W        W64685  27.657  11.143  19.265 -0.2156 -0.0738 -0.0277
21633W        W64686   0.372  11.518  22.999  0.1016 -0.0150 -0.0257
21634W        W64687  12.997  12.055  23.749 -0.0178 -0.3398  0.0858
21635W        W64688  27.193  21.641  23.358 -0.0753  0.1738  0.1783
21636W        W64689   2.760  19.137   1.038 -0.1326  0.0476 -0.2851
21637W        W64690  32.329  11.788  24.047  0.4756  0.0178 -0.1478
21638W        W64691  27.534   6.776  27.375 -0.0560 -0.0769 -0.0166
21639W        W64692  18.434  25.747  25.894 -0.1269 -0.1928 -0.0374
21640W        W64693  29.824  33.776  15.346 -0.0098 -0.2934 -0.1501
21641W        W64694  30.438   3.060  18.280  0.0442 -0.0707  0.0371
21642W        W64695  33.415  23.519  18.586  0.0871  0.0385 -0.0841
21643W        W64696   6.681  30.683  16.568 -0.0011 -0.0312 -0.1158
21644W        W64697   0.610   8.520  14.387  0.1891 -0.0652 -0.2645
21645W        W64698  32.397  11.377   0.493  0.0901 -0.1554  0.0686
21646W        W64699  11.581  27.842  22.978 -0.2076 -0.0520 -0.0665
21647W        W64700  25.552  33.119  17.008  0.1043 -0.4253 -0.2826
21648W        W64701   2.903  32.727  22.107  0.2857  0.0043 -0.2087
21649W        W64702   1.136  20.808  14.922  0.2041 -0.0213 -0.0400
21650W        W64703  11.178  29.703  15.709  0.0129 -0.2218  0.5296
21651W        W64704  11.171   2.553  13.884 -0.2465 -0.0564 -0.1375
21652W        W64705  12.717  32.656  15.230 -0.0134  0.0555 -0.2357
21653W        W64706   2.381  11.231  24.055  0.2436 -0.0614 -0.2018
21654W        W64707   6.127   8.900  16.041 -0.0709 -0.1556  0.4781
21655W        W64708   0.044  23.274  15.140 -0.1979  0.2761  0.0969
21656W        W64709  29.895   7.379  17.774  0.0087 -0.0464 -0.0213
21657W        W64710  10.216   2.036  17.955 -0.0474 -0.1085  0.1820
21658W        W64711  31.730   1.426  18.480  0.0858 -0.2645  0.0807
21659W        W64712  23.630  10.967   2.036  0.2111 -0.0012 -0.1440
21660W        W64713  32.591   7.122  15.974 -0.2492  0.0553  0.0874
21661W        W64714  24.416  10.746  15.855 -0.1142  0.2950 -0.0745
21662W        W64715  14.221  24.775  17.857  0.0306 -0.1376  0.0055
21663W        W64716   3.575  34.545  18.920  0.1205  0.0402  0.3211
21664W        W64717  32.512   3.442  18.160 -0.1193 -0.0735 -0.2414
21665W        W64718  20.168   3.087  24.284 -0.0556  0.2943  0.2727
21666W        W64719   4.575  13.991  19.977 -0.2426  0.3424  0.1000
21667W        W64720  13.109   2.805  19.775  0.2042 -0.2636 -0.0219
21668W        W64721   0.141  18.093  15.091 -0.3699 -0.1739 -0.0285
21669W        W64722  10.557  16.083  21.960 -0.2289  0.4145  0.0132
21670W        W64723  27.313  13.999  16.170 -0.0196  0.0905  0.2734
21671W        W64724   1.953  20.793  14.594  0.0084 -0.1479 -0.1179
21672W        W64725  28.069  34.635  24.076 -0.2700  0.1783  0.1178
21673W        W64726  15.161   9.636  24.095 -0.0724 -0.1030 -0.2148
21674W        W64727  24.143   6.176  19.719  0.0554  0.2937 -0.1737
21675W        W64728  29.715   0.091  16.570 -0.1493  0.1949  0.1699
21676W        W64729   0.476  32.712  19.840 -0.2616 -0.2859  0.3704
21677W        W64730   3.612  11.891  27.727  0.3531 -0.1929  0.0180
21678W        W64731   0.611   3.932  22.313 -0.0087 -0.1284  0.0365
21679W        W64732  21.812   3.012  24.946  0.0648  0.3077 -0.1118
21680W        W64733   0.780   6.715  26.132  0.1369 -0.2143  0.1410
21681W        W64734   1.828  25.025  24.214  0.1863  0.2606  0.1811
21682W        W64735  30.235   4.811  25.400 -0.0317  0.0386 -0.1429
21683W        W64736  30.781  26.483  14.429  0.0413 -0.1121  0.1635
21684W        W64737  28.117  29.912  24.130  0.2550  0.0842  0.0238
21685W        W64738  11.739   3.105  26.100 -0.4217 -0.1633  0.0330
21686W        W64739  26.786   1.802  19.587 -0.0012  0.0723 -0.0511
21687W        W64740  13.378  21.491  14.445  0.0655  0.0212 -0.3351
21688W        W64741  27.893   6.682   6.290 -0.1981  0.1913 -0.0293
21689W        W64742  10.141  27.090  26.982 -0.1689 -0.2049  0.3537
21690W        W64743  17.333  26.398  23.913  0.6022 -0.1884  0.2282
21691W        W64744  33.779   2.426   1.255  0.2214  0.2996  0.0326
21692W        W64745  15.171  27.845  26.673 -0.2162 -0.0955 -0.3639
21693W        W64746   2.904   5.984  19.960  0.0735  0.1406  0.0118
21694W        W64747  15.205   8.563  16.158 -0.0980  0.1039  0.2020
21695W        W64748   6.680   6.622  18.131  0.0432  0.2613  0.1449
21696W        W64749  10.854   4.648   1.971  0.0227  0.1972 -0.1795
21697W        W64750  26.646   3.207  18.435 -0.2799  0.1856 -0.0619
21698W        W64751  11.139  30.517  22.536 -0.0764  0.2368  0.1704
21699W        W64752  15.906  29.431  23.466 -0.0026  0.1011  0.0283
21700W        W64753  26.006   7.694  28.135  0.0324  0.1582  0.1446
21701W        W64754  17.087  31.510  20.004 -0.2674 -0.0691 -0.1970
21702W        W64755  27.746  26.018  15.494  0.6431  0.0357  0.1232
21703W        W64756   8.714   0.709   2.600 -0.1650  0.0032 -0.1803
21704W        W64757   3.831   3.633  27.647 -0.1742  0.1700 -0.1775
21705W        W64758  14.103   5.179  17.545  0.1657 -0.0279 -0.1599
21706W        W64759  12.700   8.963  20.093 -0.2892  0.0140 -0.5152
21707W        W64760  28.156  20.498  27.144 -0.1730  0.0568  0.1865
21708W        W64761  14.453  32.876  15.594 -0.3297 -0.1596  0.0750
21709W        W64762  19.012  12.520  18.728  0.0324 -0.0101  0.0852
21710W        W64763   3.584  34.118  14.205 -0.0059  0.2061 -0.3539
21711W        W64764   0.225  18.917   1.486  0.3362 -0.1353  0.4743
21712W        W64765  32.534  21.502  13.895  0.0039  0.2656 -0.2461
21713W        W64766   6.681  16.228  25.229 -0.0952 -0.0071  0.3828
21714W        W64767   7.148   4.089  15.075  0.0383  0.2178  0.1466
21715W        W64768   6.842   7.397  17.739  0.0749  0.1505 -0.0941
21716W        W64769  30.533  11.050  22.436 -0.3410  0.1751 -0.3056
21717W        W64770  18.754  16.041  12.847 -0.0627 -0.0357  0.1171
21718W        W64771  27.078  23.199   1.414  0.0652 -0.0695 -0.0558
21719W        W64772   9.722  26.086  14.776  0.0269 -0.0639  0.2193
21720W        W64773   7.475   0.138  15.579  0.1867  0.0175  0.1797
21721W        W64774  13.956  16.351   0.403  0.1657  0.1536  0.0826
21722W        W64775   9.144   2.837   3.516  0.3835  0.0047  0.1018
21723W        W64776  12.124   2.250  21.249 -0.0506  0.0912  0.1988
21724W        W64777  14.968  29.972  19.818  0.0748 -0.2297 -0.1253
21725W        W64778   5.838   7.621  20.094  0.1883  0.1722 -0.0939
21726W        W64779  31.204   3.560  15.805  0.2401  0.0064  0.1612
21727W        W64780   3.366  33.601  28.258  0.1670 -0.0995  0.0082
21728W        W64781   3.738   9.330   0.222  0.0625  0.1139  0.0349
21729W        W64782  30.568  11.871  24.919  0.2853 -0.4981 -0.1407
21730W        W64783  20.821  13.148  25.913  0.0487  0.2059 -0.0517
21731W        W64784   1.358  16.256   6.844 -0.0803 -0.1249 -0.2166
21732W        W64785  12.943  32.516  20.477  0.0130 -0.0217 -0.1199
21733W        W64786   3.746  15.828  14.871 -0.0296 -0.0515 -0.3994
21734W        W64787  13.154  13.238  21.390  0.0332 -0.0313 -0.3002
21735W        W64788  12.214   5.209  15.748  0.2250 -0.2385  0.0627
21736W        W64789  17.169   3.945  14.788  0.1094 -0.3065  0.1269
21737W        W64790  26.629  16.894  22.532 -0.1033 -0.1188  0.2197
21738W        W64791  28.788  30.086  26.041 -0.3845  0.0100  0.0763
21739W        W64792   7.272  34.295  24.528  0.0486  0.0373 -0.0361
21740W        W64793  32.545  23.182  15.276 -0.3236 -0.2489  0.0168
21741W        W64794  18.404  13.362   0.063 -0.0790 -0.2382  0.0514
21742W        W64795   9.537  22.658  24.360  0.2037 -0.1369  0.0141
21743W        W64796   7.691   4.414  24.328  0.0133 -0.1168 -0.1821
21744W        W64797  26.801   9.654  23.221 -0.1435  0.2554  0.6522
21745W        W64798   8.732  12.864  23.436 -0.1499 -0.2763  0.0716
21746W        W64799  23.195   9.468  20.647  0.1919 -0.1365  0.1474
21747W        W64800  10.010   3.681  20.006  0.1280 -0.1361 -0.0726
21748W        W64801   1.214  12.954  14.509 -0.0281 -0.1412  0.2593
21749W        W64802   1.450  10.049  16.270 -0.1315 -0.1704 -0.0250
21750W        W64803  25.853   6.574  26.529  0.1028 -0.0302 -0.0781
21751W        W64804   0.003  10.945  15.549 -0.1543 -0.0130 -0.1619
21752W        W64805  10.085  12.999  16.204  0.0083  0.1417 -0.0973
21753W        W64806   1.395   2.162  22.157 -0.0728  0.1952 -0.0911
21754W        W64807   2.549  33.626  13.556  0.1862 -0.1105  0.1044
21755W        W64808   7.927  33.969  20.238 -0.1791  0.1456  0.2302
21756W        W64809   2.028  11.233  15.860  0.0661  0.0159 -0.0612
21757W        W64810   8.186  34.267   9.646  0.3927  0.0642  0.2724
21758W        W64811   7.217  29.536  25.970 -0.0766 -0.1259  0.0366
21759W        W64812  23.261   4.803  24.299 -0.2904  0.0114 -0.1342
21760W        W64813  12.922  16.333  19.607  0.0583 -0.0646 -0.0747
21761W        W64814   5.341   5.070  16.843 -0.0836 -0.3040  0.0327
21762W        W64815  29.699   8.378  16.056  0.2513  0.2184  0.3367
21763W        W64816   1.093  24.931  18.783  0.4274  0.0438  0.0736
21764W        W64817  29.945  26.673  17.382 -0.0804  0.2730  0.0558
21765W        W64818  15.537  32.510  23.024  0.0848 -0.0405 -0.1675
21766W        W64819   3.088  10.559   6.649  0.2605 -0.3306 -0.1154
21767W        W64820   5.634   2.752  22.464  0.1087 -0.1804  0.2860
21768W        W64821  29.992   4.766  28.304 -0.2245  0.0771  0.1055
21769W        W64822   4.153  13.602  24.632  0.0994  0.2365  0.0107
21770W        W64823  10.156  32.735  19.889  0.2849  0.0090 -0.0017
21771W        W64824  18.713   8.691   4.743  0.2024 -0.0712 -0.0201
21772W        W64825   1.455   5.480   2.150 -0.4295 -0.0829 -0.0418
21773W        W64826  11.981  31.216  18.999 -0.0492  0.2262 -0.1158
21774W        W64827  12.053  16.639  25.292  0.0874 -0.0933  0.1557
21775W        W64828  25.100  25.999  22.916 -0.1408  0.2279 -0.0090
21776W        W64829  27.764   8.301  26.248  0.0203  0.1271  0.3991
21777W        W64830  32.359  29.403  17.640 -0.2037  0.0680 -0.1951
21778W        W64831   6.782  14.203  18.895 -0.2510 -0.1566 -0.1256
21779W        W64832  30.908  15.578  15.191  0.0984 -0.0445 -0.0169
21780W        W64833  19.239   3.037  18.674 -0.2950  0.0905  0.2311
21781W        W64834   2.721  33.319  21.750  0.0192  0.1573 -0.0147
21782W        W64835  32.883   8.237  16.848  0.0050  0.1573  0.1375
21783W        W64836  31.101  32.057  17.837 -0.0246 -0.0354 -0.0109
21784W        W64837   2.381  26.079  16.037  0.1311  0.2620  0.2181
21785W        W64838   4.514   6.591  22.913  0.5334 -0.1986  0.2606
21786W        W64839  13.039  26.757  21.377 -0.2870  0.1232  0.1139
21787W        W64840  20.324   4.543  17.577 -0.1235 -0.2374  0.1271
21788W        W64841  10.326  22.080  17.253  0.3014  0.1486 -0.2050
21789W        W64842   5.645  17.634  14.438  0.0262 -0.0997  0.0944
21790W        W64843   2.643   5.526  24.203  0.2728  0.2637 -0.1315
21791W        W64844  30.794  25.266  22.426  0.1627 -0.0020 -0.0059
21792W        W64845  13.776  12.651  14.451  0.0319  0.1158 -0.0681
21793W        W64846  14.193   7.504  15.972 -0.0617  0.3090 -0.1047
21794W        W64847   2.065  12.608   6.512 -0.1953  0.1514  0.0543
21795W        W64848   7.474  16.255  26.511 -0.0161  0.0180  0.2450
21796W        W64849  16.670   0.326  15.197 -0.1830  0.1578 -0.0068
21797W        W64850  10.267   7.356  18.631  0.0569  0.1551  0.2551
21798W        W64851  32.020  22.086  22.073 -0.1492 -0.3647 -0.1423
21799W        W64852  23.648  18.609  20.105  0.1094  0.1877 -0.1874
21800W        W64853   2.883   6.390  17.234 -0.2902  0.0122 -0.1711
21801W        W64854   7.342   2.887  15.418  0.1776 -0.1693 -0.1121
21802W        W64855  22.609  29.856  26.455 -0.0823  0.0032 -0.0496
21803W        W64856   6.852   4.472   3.123 -0.0692 -0.1001 -0.0621
21804W        W64857  28.179  27.651  17.285  0.0337  0.1378 -0.3282
21805W        W64858   7.128  18.602  26.337 -0.0912  0.2989  0.0725
21806W        W64859  19.850  16.560   0.713  0.0774  0.2629  0.1234
21807W        W64860  21.864  18.794  25.572  0.0107 -0.2799 -0.0344
21808W        W64861   0.924  26.094  26.850  0.1396  0.0239 -0.0433
21809W        W64862  23.373  24.646  24.968  0.0613 -0.2910  0.0578
21810W        W64863   2.436   1.689  22.247  0.3656  0.1658 -0.4720
21811W        W64864  25.201  14.644  13.735 -0.1268  0.2729  0.2662
21812W        W64865   7.615  32.310  25.332 -0.1436 -0.1071  0.0474
21813W        W64866   2.231  15.940  19.775 -0.2252  0.0826 -0.0500
21814W        W64867  17.585  17.651  24.076  0.0779  0.2773  0.1055
21815W        W64868  19.593  17.024  29.154 -0.1628 -0.0497 -0.2318
21816W        W64869   5.384   0.873  23.510  0.1610 -0.1231 -0.0335
21817W        W64870   6.537   3.952  27.589  0.1620  0.0397 -0.1728
21818W        W64871   4.848  12.904  21.792 -0.0054  0.0279 -0.3015
21819W        W64872  28.434  18.525  24.127  0.3563 -0.1269  0.2343
21820W        W64873  15.858  23.742  14.694 -0.0288  0.2334 -0.1302
21821W        W64874   8.915   0.437  27.906 -0.2321  0.2499  0.2438
21822W        W64875  17.644  20.906  21.172  0.1252 -0.1776  0.0392
21823W        W64876  32.952  34.611  25.919 -0.4381 -0.1054  0.3216
21824W        W64877  33.327  26.196  13.578 -0.5801 -0.0503 -0.0531
21825W        W64878   5.683   0.363  15.837  0.0833  0.0131 -0.0782
21826W        W64879   0.643  26.508  25.879 -0.1280 -0.2824  0.3281
21827W        W64880  23.450  34.469  20.937  0.0077 -0.2557  0.0369
21828W        W64881  10.980   4.395  18.417  0.2833  0.2174 -0.0613
21829W        W64882   7.626   9.951  14.596 -0.1377 -0.0517  0.1672
21830W        W64883   0.095  22.723  21.900  0.1306  0.0961  0.1164
21831W        W64884   6.929  25.831   6.756 -0.1651  0.1369 -0.0863
21832W        W64885  34.646   7.259  17.290 -0.3694  0.2742  0.0497
21833W        W64886   7.364  15.873  19.629 -0.0329 -0.0284  0.0727
21834W        W64887  30.313  27.441  17.480 -0.0390 -0.0159 -0.2449
21835W        W64888   5.939  31.904  24.717 -0.0350  0.1172  0.1839
21836W        W64889  10.508  12.047  15.144 -0.0943  0.0867 -0.1600
21837W        W64890   2.443   4.995  16.690 -0.0165  0.0301  0.1866
21838W        W64891   0.916  11.469  20.223 -0.2027 -0.1463 -0.0670
21839W        W64892   1.936  24.242  16.251  0.1390 -0.0197  0.1430
21840W        W64893  11.943  24.896  19.432 -0.1078  0.1165  0.0895
21841W        W64894  16.489  18.653  26.892 -0.0039 -0.2662 -0.2446
21842W        W64895   9.941   3.816  26.368  0.1034  0.2060 -0.2267
21843W        W64896  14.239   5.580  25.121 -0.0819  0.2180 -0.3772
21844W        W64897   2.109   5.087  21.975 -0.0150  0.0215  0.1903
21845W        W64898   6.593  11.874   3.385 -0.2300  0.1388  0.0502
21846W        W64899   4.998   0.050  15.394  0.0467 -0.1539  0.1828
21847W        W64900  28.622  10.549  19.337 -0.2165 -0.0308 -0.2649
21848W        W64901   7.433   0.283  25.463 -0.4913  0.2081  0.0013
21849W        W64902  12.431  32.940  16.697 -0.2744  0.2068  0.1646
21850W        W64903  30.150  30.957  15.129 -0.2467 -0.1878  0.3449
21851W        W64904  19.452  34.066  19.299 -0.1206  0.1984  0.1373
21852W        W64905   5.156   4.835  15.317  0.0339  0.2251  0.0870
21853W        W64906   9.112   7.108   2.077  0.0619  0.1230  0.0005
21854W        W64907   8.658   2.325   8.213  0.2365 -0.0659 -0.0320
21855W        W64908  13.848   2.249  14.512 -0.0016  0.0208 -0.2553
21856W        W64909   8.655   1.135  16.728  0.3541 -0.0072 -0.0534
21857W        W64910   3.575  16.694  13.955  0.0210  0.0578 -0.3189
21858W        W64911   3.795   1.706  17.946  0.2171 -0.0586  0.1083
21859W        W64912  28.994   0.172   0.458  0.2357  0.1513 -0.0335
21860W        W64913   6.286   6.528   0.369 -0.1204  0.1836  0.1470
21861W        W64914  34.264  12.945  18.989 -0.0081  0.0851 -0.0331
21862W        W64915   6.076  17.305  18.760  0.0056 -0.0856 -0.0068
21863W        W64916   0.460   2.581   0.194 -0.3109  0.1031 -0.0602
21864W        W64917  17.751   1.931  15.244  0.2558 -0.1200 -0.1069
21865W        W64918  12.689  32.314  16.348  0.1347  0.0862 -0.0258
21866W        W64919  29.923  32.851  19.426  0.3920 -0.4741 -0.1419
21867W        W64920   6.881   3.140   1.393 -0.1624  0.0254 -0.1133
21868W        W64921  17.215  33.140  20.259  0.0139 -0.2241 -0.3346
21869W        W64922  22.995  30.570  18.289 -0.5736 -0.0436  0.0324
21870W        W64923   2.673   0.199  23.549 -0.2070  0.0862  0.2944
21871W        W64924  10.165   7.295  27.795 -0.1036  0.2489 -0.2909
21872W        W64925  27.333   3.062   0.379  0.2691  0.3276  0.0000
21873W        W64926  22.471  22.110  19.001  0.5135 -0.0197 -0.3468
21874W        W64927  18.569   4.878  18.467  0.0411  0.2392 -0.3388
21875W        W64928  14.813   6.399  21.117 -0.1820 -0.0031  0.1998
21876W        W64929  10.102  11.845  15.424  0.3933  0.1507 -0.1446
21877W        W64930   5.203   6.759  18.429 -0.1018  0.1006  0.0372
21878W        W64931  17.579  33.206  19.908 -0.1939  0.2257 -0.0624
21879W        W64932  21.801  14.676  23.066 -0.0530  0.0730 -0.0870
21880W        W64933  14.559  31.731  18.765  0.1019 -0.0104  0.1359
21881W        W64934   2.376  32.318  28.276 -0.1353 -0.1063 -0.2486
21882W        W64935  31.515  11.032  22.653  0.0789  0.1791 -0.1283
21883W        W64936   3.703   6.556  14.467  0.0351  0.1405  0.1250
21884W        W64937   7.643   2.855   5.822  0.0581 -0.0860  0.3182
21885W        W64938   3.978  31.555  25.985  0.0550 -0.1671 -0.1763
21886W        W64939  10.845  17.448  14.655  0.1939  0.2716 -0.0791
21887W        W64940  11.863  34.368  22.419 -0.2518 -0.1778  0.0123
21888W        W64941   4.964  22.312  26.965 -0.0277  0.1815 -0.0832
21889W        W64942   6.297   9.394   2.180 -0.0303 -0.1850 -0.1326
21890W        W64943   1.235  10.532  26.794  0.0843 -0.0763  0.0568
21891W        W64944   4.545  28.707  15.837  0.3124  0.0167 -0.0825
21892W        W64945   5.889  28.574  16.806 -0.0716  0.0979  0.2535
21893W        W64946  12.346  12.824  19.730  0.2712  0.0329  0.0069
21894W        W64947   2.302  30.432  17.778  0.0555 -0.0992 -0.0922
21895W        W64948   7.191   3.076  17.174  0.0058  0.1255 -0.1083
21896W        W64949   7.222  26.841  27.748  0.1395 -0.0593  0.0800
21897W        W64950  20.892   2.167  25.733  0.1044  0.0071  0.4040
21898W        W64951  14.231   9.249  19.523 -0.0056  0.1288  0.2778
21899W        W64952  23.283   7.919  18.478  0.0141  0.0216  0.1284
21900W        W64953   8.669  31.980  27.424 -0.1050  0.1726 -0.1096
21901W        W64954  31.090  18.184  15.985  0.3152 -0.1050  0.1738
21902W        W64955   8.621  13.587  28.301 -0.2640  0.0444 -0.0549
21903W        W64956   0.445  30.982  14.371 -0.0294  0.2095 -0.0110
21904W        W64957  32.042  13.493   2.965  0.3642  0.1347  0.3226
21905W        W64958  31.693  17.778   5.144  0.0417 -0.1806 -0.2294
21906W        W64959   3.042  15.662   6.429 -0.0671  0.2611  0.1952
21907W        W64960   8.884   3.088  15.289  0.0124 -0.0639 -0.1608
21908W        W64961  33.825  33.054  27.543  0.3053 -0.0194  0.1044
21909W        W64962  10.915  10.080  22.835  0.2506 -0.2530  0.2918
21910W        W64963   5.689  33.404  24.599 -0.0282 -0.2470 -0.0200
21911W        W64964   4.073   7.607  15.880  0.1727 -0.1151 -0.0945
21912W        W64965  24.758   9.191   5.177  0.0884 -0.1963 -0.2731
21913W        W64966  24.704   6.385  25.496  0.1099 -0.0285 -0.0561
21914W        W64967   7.598  31.844  25.544 -0.2883 -0.1376 -0.0309
21915W        W64968  13.100  28.839  22.517  0.1745  0.1660  0.0132
21916W        W64969   7.075  11.780   3.154 -0.2479  0.1986  0.2800
21917W        W64970   2.825  12.355   3.506  0.1234 -0.1266  0.1888
21918W        W64971   0.776   2.051  16.123  0.1083  0.2304  0.2249
21919W        W64972   1.762   0.173  17.396  0.0845 -0.1569  0.2870
21920W        W64973   3.027  25.009  25.881  0.0573 -0.0787 -0.0410
21921W        W64974   2.481   2.160  14.215  0.0744 -0.0044 -0.0802
21922W        W64975   0.725  28.145  28.383  0.2268 -0.0036  0.0112
21923W        W64976   6.454  10.104  23.577 -0.0588  0.0356  0.2901
21924W        W64977   5.747   4.393  21.202  0.2969  0.0854 -0.2465
21925W        W64978   6.647   5.078   3.204  0.4923  0.0307  0.2306
21926W        W64979  29.361  12.711  20.717 -0.3070  0.1812  0.2430
21927W        W64980   7.601   4.851  20.879 -0.0992 -0.0286  0.0030
21928W        W64981  34.492  15.529  15.237  0.0026  0.1490 -0.0067
21929W        W64982   7.593  11.798  19.868  0.1122  0.0547 -0.0576
21930W        W64983   9.728   5.073   3.358  0.2308 -0.0608  0.0389
21931W        W64984  28.064  10.053   1.602 -0.1720 -0.0881  0.0110
21932W        W64985  12.573  32.019  16.750 -0.0092  0.1342 -0.0370
21933W        W64986  27.273  11.284  24.141  0.0512  0.0261 -0.0149
21934W        W64987   6.359  29.289  18.867 -0.2244 -0.4393 -0.2356
21935W        W64988   1.329   3.936  18.309 -0.0745  0.1283 -0.1749
21936W        W64989   3.061  20.979  19.770  0.2032  0.0404  0.3033
21937W        W64990   7.104  15.882  16.726  0.3230  0.2958 -0.3027
21938W        W64991   7.232  20.879  21.173 -0.4185  0.1679 -0.3666
21939W        W64992   8.234  18.307  17.344  0.3500 -0.1568  0.0838
21940W        W64993  12.707  31.768  26.859 -0.0146  0.2006 -0.0097
21941W        W64994  18.050   3.503  14.471 -0.1274  0.1702  0.0000
21942W        W64995   5.539   1.586  27.886  0.0347 -0.0096 -0.1861
21943W        W64996   8.313  30.473  26.669  0.2524 -0.3795 -0.0075
21944W        W64997  27.057  20.262  20.824 -0.5484 -0.2146  0.1142
21945W        W64998  33.181  25.569  17.005 -0.2388  0.2910 -0.3289
21946W        W64999  19.501  12.075  14.547  0.1211  0.1438 -0.1375
21947W        W65000  13.149  31.710  14.660 -0.4494 -0.1249 -0.1904
21948W        W65001   1.167  10.996   1.664  0.3419 -0.1808  0.3148
21949W        W65002  17.309  11.401   0.168  0.1940 -0.2128  0.1961
21950W        W65003   9.619   8.512  19.449  0.0091  0.0620  0.0876
21951W        W65004   4.151   5.783  21.546  0.0106 -0.0701  0.2093
21952W        W65005   1.908   8.217  21.666  0.1776  0.0608 -0.0958
21953W        W65006  29.854  14.550  17.991  0.1826  0.1643  0.2306
21954W        W65007  33.384  11.426  18.668  0.3966  0.0139  0.4298
21955W        W65008  23.956  19.891   3.041 -0.1174  0.1497 -0.0676
21956W        W65009  10.620   3.032   4.014 -0.3419  0.1932 -0.2545
21957W        W65010   9.494  13.905  18.648 -0.0956  0.0446 -0.0728
21958W        W65011   6.631  11.044  14.567 -0.0805  0.2702  0.0388
21959W        W65012  10.031   7.637  21.060  0.1517  0.0251 -0.2685
21960W        W65013   7.793  10.513   2.949 -0.1361 -0.2512 -0.0378
21961W        W65014  12.451  15.795  14.589  0.1230  0.0831 -0.1495
21962W        W65015  14.308   0.670  25.777 -0.4923 -0.1310  0.2103
21963W        W65016  13.048  15.080  27.256  0.0713  0.2695  0.0647
21964W        W65017   3.798  33.596  13.082 -0.2265 -0.1849 -0.1372
21965W        W65018   5.090  12.767  17.224 -0.2115 -0.1854 -0.1555
21966W        W65019   0.498   9.106  16.435 -0.0974 -0.0353  0.0824
21967W        W65020  10.869  14.417  26.068  0.0954  0.0550 -0.0112
21968W        W65021   0.977   9.181  24.619  0.0592  0.2338  0.2116
21969W        W65022  32.869  12.909   4.833 -0.0259 -0.2668  0.2130
21970W        W65023   9.437  23.450  23.914 -0.1518  0.2564 -0.4433
21971W        W65024  32.196  14.600  17.398 -0.1451 -0.2615 -0.2482
21972W        W65025  22.957  15.641  17.490 -0.1322  0.1227 -0.0184
21973W        W65026   0.881  11.687  27.164  0.0882 -0.4116  0.0396
21974W        W65027   8.062   0.767  19.471 -0.0853  0.2266 -0.3064
21975W        W65028  18.243  34.246  18.000 -0.2271 -0.1066  0.1915
21976W        W65029  28.978   2.166  16.759 -0.2109  0.0285  0.2259
21977W        W65030   2.784   3.860   9.603  0.3347  0.1187  0.0555
21978W        W65031  29.139   9.775   9.948 -0.2308 -0.1614 -0.1483
21979W        W65032  24.725  13.793  13.560  0.0995  0.1831 -0.1187
21980W        W65033  25.511  28.283  20.267 -0.1530  0.0962 -0.0039
21981W        W65034  23.496   2.718  25.953  0.3324  0.2675 -0.3546
21982W        W65035   2.985   6.395  17.687  0.2707 -0.1550  0.1450
21983W        W65036   8.567   9.444  16.417 -0.0036 -0.3624  0.3979
21984W        W65037  34.444   6.633  27.880 -0.0279  0.0510 -0.0515
21985W        W65038  13.453   0.639  15.895  0.1916  0.1374  0.3356
21986W        W65039   9.733   6.336  16.803  0.1379 -0.0233 -0.2027
21987W        W65040  18.022   4.873  23.097 -0.3269  0.0740 -0.0505
21988W        W65041   5.306   1.710  22.449  0.2877 -0.0355  0.2575
21989W        W65042   2.588  18.492   0.595  0.3184  0.0942 -0.1199
21990W        W65043   7.885   5.576  26.162  0.0929  0.1159  0.0357
21991W        W65044   2.816   4.766  22.674  0.1570  0.2303  0.4552
21992W        W65045   5.704  14.221  18.321  0.0140  0.1981  0.1424
21993W        W65046  25.414  10.283  15.273 -0.1925 -0.0351  0.1618
21994W        W65047  34.042  31.385  18.013  0.1358  0.1428 -0.0797
21995W        W65048  28.686   6.556  19.596 -0.0051  0.0223 -0.1301
21996W        W65049  18.141  20.998  21.424  0.0281 -0.2227 -0.1128
21997W        W65050  19.350  32.472  20.468 -0.1478  0.0794  0.1319
21998W        W65051   7.015   4.009  16.939  0.0616 -0.0820  0.1443
21999W        W65052   2.676  30.078  14.353  0.1002  0.1690  0.1892
22000W        W65053   2.749   2.461  16.868  0.1108 -0.0556 -0.0611
22001W        W65054  10.342   0.861  15.898 -0.2376 -0.0611  0.1743
22002W        W65055  29.287   9.609  19.009  0.0354  0.0029 -0.1576
22003W        W65056   7.410  33.814  22.044  0.1696 -0.1316 -0.2163
22004W        W65057  29.308  34.106  26.209  0.1483 -0.0570 -0.0227
22005W        W65058  27.804   1.349  22.419  0.0895 -0.0694  0.1373
22006W        W65059  31.685  26.559   0.539 -0.0857 -0.1929 -0.1643
22007W        W65060  23.870  11.878  21.360  0.2406 -0.0369 -0.0165
22008W        W65061  15.225   0.468  18.636  0.0364 -0.0572 -0.3688
22009W        W65062   2.889  18.283  13.053  0.1857  0.0972  0.3343
22010W        W65063   6.522   8.906  19.595  0.0235  0.0469 -0.2796
22011W        W65064  33.194   3.282  19.280 -0.1793 -0.2514  0.0237
22012W        W65065  32.427   7.547  17.220  0.0928  0.1175 -0.1990
22013W        W65066   4.370   7.433   6.841 -0.0913  0.2046  0.0542
22014W        W65067  31.564  25.063  28.065  0.0734  0.1351 -0.0810
22015W        W65068   8.521   0.961  17.264 -0.2007 -0.2062  0.0336
22016W        W65069   2.297  28.111  24.171 -0.0305  0.0012 -0.0894
22017W        W65070  24.011   1.406  17.374 -0.0686  0.1907  0.4209
22018W        W65071  13.877   4.224  18.011 -0.0721  0.1315 -0.2569
22019W        W65072  28.397  13.130  27.415  0.1055 -0.1565  0.1418
22020W        W65073   6.648   8.130   5.343 -0.1136 -0.1908 -0.0156
22021W        W65074   0.090  23.143  23.307 -0.1568 -0.0541  0.0258
22022W        W65075   7.309   4.974  28.883 -0.1434 -0.4928 -0.1040
22023W        W65076  22.373  34.646  17.226  0.1589 -0.0158  0.0676
22024W        W65077  20.183  29.154  18.311  0.0078  0.0589 -0.1849
22025W        W65078   4.052  12.130  22.986 -0.2423  0.2967 -0.1341
22026W        W65079  31.458  15.785   0.459 -0.2511 -0.2041 -0.1896
22027W        W65080  34.396   0.482  20.424 -0.2025 -0.3891  0.1967
22028W        W65081  33.765   7.319   6.832  0.0909 -0.1124 -0.0156
22029W        W65082  26.266  13.980  18.757 -0.2737 -0.3325 -0.1221
22030W        W65083   0.494  26.287  20.134  0.0070  0.0010  0.3693
22031W        W65084  25.745  30.721   0.867  0.0404 -0.2055 -0.2108
22032W        W65085  33.427   2.588  25.380 -0.0190  0.1072  0.2929
22033W        W65086   4.240  32.634  15.739  0.0298  0.1903  0.1619
22034W        W65087  22.911   1.141   2.269 -0.4487 -0.0834  0.0262
22035W        W65088  21.125  21.420   0.261  0.2673  0.2491  0.2004
22036W        W65089  32.124   4.303   2.447 -0.0295  0.1533  0.2269
22037W        W65090  21.876  19.270  23.517  0.1874 -0.0910 -0.1623
22038W        W65091  26.110   4.862  25.500 -0.2880  0.3580  0.0465
22039W        W65092   1.300  22.160  16.718 -0.0496  0.1460  0.1561
22040W        W65093   0.910   5.072   4.568  0.1019  0.0561 -0.1010
22041W        W65094  18.907   8.786  19.051 -0.2457 -0.1126  0.0122
22042W        W65095   9.092  16.207  20.813 -0.1838  0.0853 -0.2899
22043W        W65096   9.586  16.801  22.044  0.1207 -0.2564  0.1430
22044W        W65097  23.280  14.841  22.025 -0.0421 -0.1294 -0.2125
22045W        W65098   7.087   7.975  28.678 -0.0239  0.0047 -0.0617
22046W        W65099  10.634  11.660   2.680  0.1139 -0.0258  0.2342
22047W        W65100   1.246  15.057  16.058 -0.0197  0.1010 -0.1677
22048W        W65101  33.619   1.988   1.056 -0.2200 -0.1451 -0.0092
22049W        W65102  10.110  16.957  20.578 -0.2375 -0.2844  0.1764
22050W        W65103  19.614  31.315  25.539 -0.1152 -0.0610  0.1415
22051W        W65104  11.274  30.784   1.179 -0.0980 -0.0544 -0.1169
22052W        W65105  10.495   7.618  25.817  0.1193 -0.5002 -0.1937
22053W        W65106   7.154  26.323  17.145  0.0233 -0.4652 -0.0946
22054W        W65107  10.997  27.756  16.967 -0.2870  0.0276 -0.1721
22055W        W65108  30.686  12.449  23.685 -0.0051 -0.1146 -0.1815
22056W        W65109  33.977  11.117  14.150  0.1526 -0.1295  0.0863
22057W        W65110  33.798  34.159  23.993  0.1186 -0.1940 -0.0800
22058W        W65111   9.492  33.177  14.368 -0.0301 -0.0150 -0.2679
22059W        W65112   8.992   8.839  14.868 -0.2879 -0.1757  0.2072
22060W        W65113  11.018   8.745  26.636  0.0987  0.1266 -0.1046
22061W        W65114   6.439   9.302   2.647 -0.2211  0.1629  0.0484
22062W        W65115   8.375   7.312  25.408  0.0620  0.1829  0.1373
22063W        W65116  14.769  25.306  18.614  0.3550  0.1842  0.2626
22064W        W65117  11.723  34.399  18.142  0.1362  0.4387  0.0460
22065W        W65118  24.225  29.699  21.104 -0.1111  0.0938  0.1727
22066W        W65119   3.876  14.146  16.425  0.0320 -0.2150 -0.1353
22067W        W65120  25.104   6.431  17.967  0.0345 -0.0364  0.1449
22068W        W65121   5.307  17.513  17.454  0.0587  0.0611 -0.0702
22069W        W65122   5.441  34.591  15.636 -0.0582 -0.0485  0.1430
22070W        W65123  12.885  26.169  17.109  0.1201  0.2098 -0.1645
22071W        W65124   7.647  29.729   0.256  0.0145 -0.0788 -0.3691
22072W        W65125   9.814  28.899  20.132  0.2266 -0.0090 -0.2830
22073W        W65126   8.544   6.153  15.344 -0.3744 -0.0490  0.0373
22074W        W65127   6.178  31.229  17.149 -0.1644  0.1948 -0.1995
22075W        W65128  13.079   2.989  24.156  0.1829  0.2903  0.0791
22076W        W65129  12.202  33.815  19.816  0.0952  0.0151 -0.1836
22077W        W65130   5.609   8.816  17.695  0.2676  0.4314 -0.3613
22078W        W65131  28.217  28.095  22.228  0.4080 -0.0732  0.1766
22079W        W65132   9.736  23.112  27.108  0.2514  0.2313 -0.0542
22080W        W65133  31.193   5.899  14.688 -0.1213  0.1770 -0.0724
22081W        W65134  17.862  14.789   1.791  0.0061  0.0939 -0.0138
22082W        W65135   1.016  32.747  21.473 -0.1326 -0.0920  0.3019
22083W        W65136  33.239  10.299  23.659  0.2219  0.1330 -0.4192
22084W        W65137   7.072   3.138  22.474  0.1979 -0.0114  0.0329
22085W        W65138  34.247  17.432  25.702  0.1066 -0.1338 -0.0663
22086W        W65139   5.108   0.733  26.534  0.1130  0.1812 -0.2258
22087W        W65140   0.852  15.226  25.473 -0.1465  0.3285  0.1477
22088W        W65141  21.094  19.311  28.625 -0.2442  0.1096  0.2261
22089W        W65142  17.479   5.196   9.892 -0.0643 -0.1889  0.1650
22090W        W65143   0.815  28.440  13.905 -0.0279 -0.2713 -0.1664
22091W        W65144  17.623   7.727  25.193  0.1230  0.2549  0.1518
22092W        W65145  16.890   0.566  14.278 -0.0595 -0.0565  0.0523
22093W        W65146   3.023   5.427  20.824  0.0569 -0.0194  0.2057
22094W        W65147   7.015  10.913  14.847 -0.1206 -0.1873  0.0502
22095W        W65148   5.828   2.033  21.005  0.0197 -0.1351  0.1490
22096W        W65149  32.198   7.995  16.262  0.0888 -0.3181  0.0010
22097W        W65150   4.312   7.963  28.795  0.0523  0.0647  0.0685
22098W        W65151   2.790  29.686  25.200 -0.1798  0.0167  0.2942
22099W        W65152  11.699  25.565  22.745  0.0007  0.1002 -0.2745
22100W        W65153  34.218   4.096  24.792  0.1449 -0.0180 -0.0235
22101W        W65154   4.100  15.570  26.242  0.1321  0.0852  0.0949
22102W        W65155   1.891   9.266  25.726 -0.0909  0.0890  0.0772
22103W        W65156   0.805   0.736  16.622 -0.0069 -0.2989 -0.0072
22104W        W65157   4.436  17.204  15.585  0.1350 -0.1133  0.2993
22105W        W65158   2.476  28.828  16.596 -0.1270 -0.0488 -0.1655
22106W        W65159   4.681  18.518  20.325 -0.0864 -0.1361 -0.3735
22107W        W65160  31.946   1.353  14.280 -0.1111  0.1496  0.0187
22108W        W65161  32.807  10.203  18.004  0.3049 -0.0059 -0.1741
22109W        W65162  10.349  32.872   2.142  0.3283  0.1899 -0.0683
22110W        W65163  33.481  16.119  16.414 -0.3430 -0.1158 -0.1129
22111W        W65164  31.054  12.872  17.321 -0.1150  0.1831  0.2780
22112W        W65165   2.353  12.296  18.843 -0.2649 -0.1000 -0.0271
22113W        W65166   2.983  33.579  18.613  0.0419  0.2658  0.1003
22114W        W65167  31.118  29.226  18.574  0.2138 -0.0850  0.1950
22115W        W65168  13.468  22.117  23.222 -0.0024 -0.0646  0.0053
22116W        W65169  29.135   6.768  24.045  0.1394  0.0826  0.4834
22117W        W65170   2.762  12.033  22.699  0.0342 -0.0516  0.3207
22118W        W65171   5.032  12.307  16.974  0.0700  0.4856 -0.0861
22119W        W65172  11.120  12.258  27.131 -0.1469  0.1263 -0.0545
22120W        W65173  34.160   0.743  16.895  0.0305 -0.0240  0.1052
22121W        W65174   7.860   6.775  14.596  0.0508  0.1576  0.0708
22122W        W65175   7.306   7.962  29.094  0.0401 -0.0051  0.2518
22123W        W65176  23.863  12.959  20.352  0.0557 -0.1583 -0.2768
22124W        W65177   8.548   4.742  26.467  0.1817  0.1032 -0.1043
22125W        W65178   3.820  11.898  15.088 -0.0944  0.4094 -0.1013
22126W        W65179  16.656  12.247  15.356  0.4391 -0.0475 -0.1889
22127W        W65180   3.161  20.667  23.830  0.0398 -0.0158  0.0154
22128W        W65181  22.440   6.853   2.098 -0.1741 -0.0283  0.0292
22129W        W65182  10.560  30.490  21.144 -0.1490 -0.3643  0.1741
22130W        W65183  28.178   4.648  27.489  0.2289  0.1508  0.2084
22131W        W65184   0.444  10.430  19.596  0.0806  0.0527  0.0409
22132W        W65185  11.669   5.781   5.677  0.0485  0.0830  0.1709
22133W        W65186   9.488  14.905  29.030  0.0700  0.3065 -0.1109
22134W        W65187  31.488   6.268  23.747 -0.6528  0.0923  0.1799
22135W        W65188   5.758   7.168  15.204 -0.3249  0.1021  0.1568
22136W        W65189   7.102   7.738  15.057 -0.0882  0.1623  0.1024
22137W        W65190   6.185  34.005  19.813  0.2665  0.0764  0.0618
22138W        W65191   6.789   5.893  14.546  0.0957  0.2561 -0.0495
22139W        W65192   1.047   7.569  21.745  0.0055 -0.0210 -0.4181
22140W        W65193  28.938   3.892   1.290 -0.0116  0.1700  0.1163
22141W        W65194  23.085  11.745  21.556  0.2301 -0.0138  0.2635
22142W        W65195  34.324  33.633  15.136 -0.0568 -0.5668  0.0064
22143W        W65196  14.021   4.575  18.956  0.3063 -0.0089 -0.0324
22144W        W65197  23.315  20.095  25.818 -0.3788  0.1052 -0.1669
22145W        W65198   0.644  11.571  14.539  0.0289  0.2883  0.4774
22146W        W65199   9.580  33.573  23.067  0.0401 -0.2487 -0.0860
22147W        W65200  14.326   2.299  19.942  0.1751  0.0018  0.0982
22148W        W65201  30.348   5.531  28.123  0.0402 -0.0412  0.1271
22149W        W65202  13.310   4.151   8.501 -0.1327 -0.0471  0.0632
22150W        W65203  32.835   7.102  26.187  0.0110  0.1169 -0.0110
22151W        W65204  21.091   8.157  16.311 -0.0135 -0.1965 -0.0922
22152W        W65205  34.502  16.533  15.246  0.2016  0.1592 -0.0056
22153W        W65206  15.001  14.463  13.787  0.4974 -0.5706  0.3298
22154W        W65207  33.029   4.756  25.641 -0.2192 -0.2875  0.1360
22155W        W65208   4.363  17.689  19.090 -0.0925  0.0746 -0.0869
22156W        W65209   2.378  28.272  22.923  0.2209  0.1491  0.0086
22157W        W65210   1.938   3.724  19.085  0.0797  0.1301  0.1068
22158W        W65211  18.780  26.807  20.345  0.0509  0.1495  0.2469
22159W        W65212  19.780  31.771  14.855  0.2651 -0.0860  0.2342
22160W        W65213   3.823  20.602   3.871  0.4674  0.2213  0.1967
22161W        W65214   4.912  12.939   5.671  0.0791  0.0768  0.2914
22162W        W65215  29.780   3.772  28.254 -0.1256  0.0836  0.4371
22163W        W65216  16.658   8.300  18.261  0.1855  0.1462  0.0951
22164W        W65217  26.874   2.700  22.137  0.2189 -0.3928 -0.0999
22165W        W65218   8.257   7.634  15.551  0.0590  0.0561  0.3068
22166W        W65219  12.627   3.927  19.361 -0.0168 -0.4886  0.0047
22167W        W65220   5.766  25.459  28.999  0.0286 -0.0232  0.0171
22168W        W65221  14.395   5.546  22.630 -0.3111 -0.0322 -0.3515
22169W        W65222   8.767   9.147  23.241  0.0099 -0.5683  0.2197
22170W        W65223  25.066   4.492  14.461 -0.1495 -0.0906  0.1527
22171W        W65224   2.583  21.597  20.232 -0.2226  0.0761  0.0114
22172W        W65225  16.692  30.240  15.747 -0.1041 -0.0633 -0.3433
22173W        W65226  25.498  30.348  15.688  0.1022 -0.0368 -0.2066
22174W        W65227   4.313   0.011  27.133  0.1553 -0.0320 -0.0005
22175W        W65228  33.787  34.419  16.994 -0.3349  0.0493 -0.0744
22176W        W65229  10.981  10.027   0.549 -0.2591  0.1488  0.1698
22177W        W65230   5.671  26.154   4.867 -0.2263 -0.3453 -0.1767
22178W        W65231  19.905   9.687  15.923 -0.0858  0.0765 -0.1142
22179W        W65232  25.017  18.047   1.947  0.1318 -0.2887 -0.3307
22180W        W65233  11.007   2.767  14.278  0.1958 -0.0348  0.0310
22181W        W65234  11.838  34.193  26.257  0.1161  0.0915  0.0751
22182W        W65235  28.608  15.562  25.247 -0.1583 -0.0125  0.2692
22183W        W65236  27.698  16.099  15.517 -0.0681 -0.2432  0.0455
22184W        W65237  13.086  10.464  14.712  0.3135  0.2623 -0.2820
22185W        W65238   5.136   5.131  26.764  0.3516  0.1978 -0.1970
22186W        W65239   0.128   0.672   1.807 -0.0031 -0.1992 -0.0741
22187W        W65240   6.876  20.560  24.969  0.0690  0.0395 -0.3615
22188W        W65241   5.964  34.360  26.405 -0.2107 -0.0296 -0.1675
22189W        W65242   1.856   8.796  28.682  0.0946  0.1441  0.2688
22190W        W65243   3.945  11.526  18.755  0.1568 -0.2549 -0.0531
22191W        W65244   7.411  14.231  23.511 -0.0091 -0.2190 -0.1991
22192W        W65245  11.998  32.143  23.798 -0.0160 -0.1225 -0.1934
22193W        W65246  27.975  12.079  22.487 -0.2856 -0.2900 -0.0002
22194W        W65247  21.852   8.414  22.499 -0.1765 -0.0049  0.0831
22195W        W65248  11.263  23.923  21.655  0.5410 -0.1027 -0.2214
22196W        W65249   6.108  29.360  21.689 -0.0785 -0.1041  0.2513
22197W        W65250  27.339  18.304  19.622 -0.1663  0.3426 -0.0897
22198W        W65251   5.605  25.403  20.005  0.0831  0.3136  0.0164
22199W        W65252  19.428   4.490  26.265  0.0555  0.0469 -0.1906
22200W        W65253  32.896   5.792  23.629 -0.0031 -0.1980 -0.1867
22201W        W65254  15.978   4.713  20.847  0.0706  0.0343  0.0945
22202W        W65255  17.870  28.109   7.689  0.1537 -0.1548 -0.2295
22203W        W65256  28.283   6.452  10.847 -0.2025  0.1169  0.1706
22204W        W65257  29.827   7.037   3.224  0.2015  0.1775  0.0163
22205W        W65258  32.411  31.059  15.367 -0.0513  0.2804  0.0987
22206W        W65259  31.408   7.438  19.514  0.1151  0.0133 -0.1816
22207W        W65260  17.693   2.591   0.860  0.3069  0.1944 -0.2124
22208W        W65261   8.284   2.535  16.879 -0.0813 -0.0200  0.0423
22209W        W65262   7.245   5.261  19.098  0.0819 -0.2796  0.0147
22210W        W65263  30.270   0.305  14.657  0.1868 -0.1431 -0.1577
22211W        W65264  15.918  13.968  26.431  0.0285  0.1557  0.1325
22212W        W65265  33.031  29.424  14.389 -0.1549  0.1222 -0.2182
22213W        W65266  33.662   5.524  27.844 -0.0096  0.0483 -0.3717
22214W        W65267  22.064  34.576   0.547 -0.2700 -0.4949 -0.3514
22215W        W65268  32.742   3.029  24.569  0.1136 -0.1186 -0.0312
22216W        W65269   6.686   7.234  16.286 -0.0034  0.0686 -0.1091
22217W        W65270   4.218   1.670   2.259 -0.1466 -0.2837  0.1724
22218W        W65271  30.745   7.062   0.088  0.2106  0.1212 -0.0327
22219W        W65272  21.351  13.469  21.585 -0.3072  0.1509  0.1297
22220W        W65273  31.435   2.222  16.783 -0.2368 -0.1092 -0.0828
22221W        W65274  26.348   2.147  25.752 -0.2308  0.2054  0.5191
22222W        W65275  21.547  14.473  22.536  0.0440  0.4003 -0.0619
22223W        W65276  33.003  16.804  18.455  0.0655 -0.2110 -0.4467
22224W        W65277  14.959  33.308   3.215  0.0682  0.1103 -0.1173
22225W        W65278   0.651   3.570  19.663  0.1838 -0.1734  0.2341
22226W        W65279   3.451   8.904  25.429  0.2252 -0.1525 -0.1355
22227W        W65280   8.004  16.206   0.385  0.1459 -0.1703 -0.1227
22228W        W65281   3.851  25.799  22.094  0.1117 -0.1768  0.1420
22229W        W65282  34.676   5.038   0.215  0.1730  0.5248 -0.0069
22230W        W65283   6.730  33.708   5.435 -0.0228  0.2324 -0.1243
22231W        W65284   7.773  28.945  27.468 -0.1087 -0.2555  0.1258
22232W        W65285   3.004  23.095  16.787  0.0767  0.0417  0.1010
22233W        W65286  34.302  14.280  20.557  0.0148 -0.0223  0.3244
22234W        W65287   2.596   8.775  22.418 -0.2544  0.1365 -0.0142
22235W        W65288   7.524  10.602  24.986  0.0165  0.0558  0.0657
22236W        W65289   4.969   8.916   4.425  0.0501 -0.4230  0.2340
22237W        W65290  20.188  11.744  17.076 -0.1634 -0.0121 -0.2956
22238W        W65291  23.966   7.020  17.751 -0.0312  0.0517  0.1314
22239W        W65292  13.107   3.773  21.148  0.1182 -0.1670 -0.0084
22240W        W65293   2.724  18.838  15.760 -0.1796 -0.2049  0.0028
22241W        W65294  28.762  19.690  21.165  0.2268  0.4145  0.0203
22242W        W65295  18.356   2.388  16.877  0.0485  0.1366 -0.1083
22243W        W65296   2.065  15.761  14.791  0.1414 -0.2341  0.2531
22244W        W65297   5.001  32.427  16.411 -0.1942 -0.0548 -0.1608
22245W        W65298  10.055  12.873  18.591  0.1908 -0.2924  0.1696
22246W        W65299   7.631  33.948  16.507 -0.0399  0.0793  0.1570
22247W        W65300  33.612  16.009   7.839 -0.0848 -0.1927 -0.1775
22248W        W65301  10.699  27.109  18.518  0.1289  0.0055  0.1871
22249W        W65302  16.950   6.361  26.265  0.1647  0.0462 -0.3035
22250W        W65303   2.599   6.441  15.273 -0.0616 -0.2589  0.4760
22251W        W65304  17.803   9.838  27.087  0.1843 -0.1267 -0.0371
22252W        W65305  13.030  18.842   7.616  0.0617 -0.2718  0.2941
22253W        W65306  18.797   6.019  28.037 -0.1372 -0.1005 -0.1472
22254W        W65307   9.120   5.441   6.190  0.0961  0.2304  0.0490
22255W        W65308  33.121  15.907  20.660 -0.1246  0.1521 -0.5097
22256W        W65309  10.752  30.806  22.372  0.2544 -0.2197  0.0725
22257W        W65310  31.842  18.796   4.608  0.0522 -0.3120  0.0048
22258W        W65311   9.482   2.754   3.128 -0.1310 -0.0543 -0.1628
22259W        W65312  14.596  27.263  20.713 -0.2928 -0.0978 -0.0291
22260W        W65313  21.144  30.190  27.961  0.0577  0.1637  0.1590
22261W        W65314   1.761  30.267  21.209  0.1652 -0.2331  0.3406
22262W        W65315  29.119  18.046  20.964 -0.2079 -0.0952  0.0911
22263W        W65316  29.486  14.752  22.035 -0.0643  0.1109  0.3359
22264W        W65317  32.859  29.939   1.321  0.0022 -0.3047 -0.1659
22265W        W65318  11.616   5.764  21.053 -0.1539 -0.6172  0.2785
22266W        W65319  30.707   6.518  22.083  0.0968  0.2880 -0.0468
22267W        W65320   2.783  12.933  14.942 -0.0575 -0.2440 -0.0534
22268W        W65321   8.527  20.679  14.159  0.5878  0.1516 -0.0716
22269W        W65322   3.651  16.681  13.446 -0.0668  0.0886  0.1384
22270W        W65323  26.410   5.121  14.078 -0.0493  0.2348  0.1081
22271W        W65324  16.529   7.748   8.303 -0.0737 -0.1894  0.1479
22272W        W65325   8.115  10.704  28.636 -0.1410  0.1228 -0.3883
22273W        W65326   6.570  17.846   7.161 -0.3581  0.1244 -0.0165
22274W        W65327   9.035   3.912  24.347 -0.0545  0.3482 -0.4673
22275W        W65328  34.233   5.401   4.812  0.0798 -0.0449 -0.0186
22276W        W65329  11.599  11.338  16.788  0.1137  0.1446 -0.1737
22277W        W65330  25.097  17.092  28.700  0.0727 -0.1706 -0.0284
22278W        W65331   5.893  21.245  14.496 -0.1293 -0.0472 -0.0106
22279W        W65332  13.573   7.971  23.464 -0.1164 -0.0139 -0.0969
22280W        W65333   3.161   7.375  23.343 -0.2906  0.2235 -0.1087
22281W        W65334  29.568  14.925  16.793  0.0976 -0.0417  0.1884
22282W        W65335  22.223   6.222  14.441  0.1591 -0.2646 -0.4266
22283W        W65336   0.220   1.081  27.304  0.0035 -0.2993  0.1407
22284W        W65337  10.771   0.526  25.440  0.1524 -0.0836 -0.3733
22285W        W65338  13.086  12.306  21.217 -0.3422  0.2199 -0.2511
22286W        W65339  10.125  11.377  15.248  0.1533 -0.0110 -0.4604
22287W        W65340  13.819  11.611  18.606 -0.4006  0.1223  0.0418
22288W        W65341  33.758  15.054  21.002 -0.1528 -0.0505 -0.1111
22289W        W65342  16.833   2.596   0.447 -0.0460  0.4459  0.0401
22290W        W65343   7.020   1.388  20.839 -0.1244 -0.0850  0.2940
22291W        W65344   6.181  12.878  25.684 -0.1827 -0.1121 -0.1799
22292W        W65345  14.171  18.360  17.697  0.1010 -0.1959  0.0887
22293W        W65346   2.323   6.597   9.842 -0.0585  0.0185  0.0708
22294W        W65347   7.605   8.108  15.556  0.2803  0.4120 -0.0958
22295W        W65348   4.342   7.581  17.504  0.2015 -0.1241  0.0145
22296W        W65349   9.752  26.160  19.429  0.2581 -0.5641  0.0075
22297W        W65350  17.171   5.912  18.900  0.1131 -0.1917  0.1109
22298W        W65351   4.442   1.577  20.010 -0.2690  0.0076  0.3119
22299W        W65352   0.104  34.307   2.034 -0.2876  0.0404  0.1265
22300W        W65353   0.127  26.133  16.636  0.2020  0.0100 -0.1615
22301W        W65354   8.095  11.238  14.412  0.0195  0.1356 -0.0425
22302W        W65355   6.459   5.780  27.215 -0.1727 -0.0594 -0.2360
22303W        W65356   4.615   4.605  14.043  0.1185 -0.4961  0.0167
22304W        W65357   7.465  13.622   0.306 -0.0295  0.0353  0.0600
22305W        W65358  14.154  22.298  23.185 -0.2095  0.0181 -0.0604
22306W        W65359   7.933   0.883   5.882  0.2182  0.3897  0.5057
22307W        W65360   0.810   7.108  23.998  0.2198 -0.1036  0.3462
22308W        W65361  16.297   1.963  25.428  0.0030  0.4524  0.4107
22309W        W65362  27.735  15.699  18.673 -0.0056 -0.0174 -0.2428
22310W        W65363   7.468   3.513  19.347  0.0090 -0.0624  0.1984
22311W        W65364   5.918  29.390  19.226  0.1013 -0.1314 -0.1166
22312W        W65365  31.701  26.278  20.061  0.0773  0.0046 -0.3972
22313W        W65366  34.203  19.650  14.427 -0.0943  0.0234  0.3464
22314W        W65367   7.176  13.675  21.311  0.0419  0.3265  0.2017
22315W        W65368  21.940  28.703  25.505 -0.1580 -0.2206 -0.1769
22316W        W65369   5.908   5.094   0.871  0.0191  0.1485 -0.3458
22317W        W65370   9.979  26.190  21.641  0.0525 -0.3608  0.1822
22318W        W65371  30.223   6.266  21.085 -0.0373  0.0968 -0.1786
22319W        W65372  17.054   4.994  28.725  0.2291  0.0327  0.2732
22320W        W65373  26.781  12.814  17.929  0.2268 -0.2502 -0.1642
22321W        W65374  11.199   0.823   5.296  0.0521 -0.0057 -0.0991
22322W        W65375  29.559   8.738  25.876 -0.0862 -0.0332 -0.0376
22323W        W65376  30.744   6.630  25.548  0.1310 -0.1181 -0.1493
22324W        W65377  29.095  30.324   8.387  0.0270 -0.1275 -0.0679
22325W        W65378  16.581  13.605  27.003  0.0525  0.0022 -0.0142
22326W        W65379  25.227   9.888  28.568  0.1477  0.3113  0.0360
22327W        W65380   1.163   7.226   3.124  0.0480 -0.2013  0.4181
22328W        W65381   8.105   2.741  14.935  0.0007 -0.1150 -0.0832
22329W        W65382   6.595  10.283  17.261  0.0079 -0.0280  0.0511
22330W        W65383  12.354   4.488  18.170  0.0845 -0.4975  0.2175
22331W        W65384   3.296  21.220   8.625 -0.0945  0.0476  0.2108
22332W        W65385   3.879  10.938   7.344  0.0912  0.3365 -0.0047
22333W        W65386   3.857  13.338  16.051  0.1338 -0.2500 -0.1531
22334W        W65387   7.444   0.078  19.250 -0.3385  0.2562 -0.4039
22335W        W65388  29.912  31.625  20.372  0.2605 -0.1339 -0.2814
22336W        W65389  26.713  33.767  27.328 -0.2557  0.1516 -0.0345
22337W        W65390  14.137  34.002  19.408 -0.0990  0.3514  0.3112
22338W        W65391   0.592  21.767  17.672 -0.0496 -0.1675  0.1400
22339W        W65392  17.158  32.820  25.876 -0.0300  0.1875  0.0117
22340W        W65393  27.700   2.885  17.413 -0.3053 -0.1972 -0.1330
22341W        W65394  12.830   3.068  24.664 -0.2579 -0.0725  0.1229
22342W        W65395   0.910   0.282  27.402 -0.0772  0.1378  0.1528
22343W        W65396   8.062   0.749   2.142  0.2146 -0.2193  0.1594
22344W        W65397   0.916  28.838  20.608  0.0068 -0.1989 -0.0169
22345W        W65398  34.517  33.800  19.394 -0.3267  0.2043 -0.0789
22346W        W65399   6.408  32.433  14.231  0.2001  0.0511  0.3483
22347W        W65400  27.935  21.073  19.847  0.2171  0.0227 -0.0065
22348W        W65401  31.746  32.871  22.496 -0.3415  0.0980  0.0065
22349W        W65402  13.394   8.540  17.295  0.2943  0.0969 -0.0969
22350W        W65403   7.173  23.852  14.677  0.1209  0.2613  0.0306
22351W        W65404  15.963  24.894   0.255 -0.1008  0.1143  0.1404
22352W        W65405   8.897  17.621  26.685  0.2143 -0.1452  0.3370
22353W        W65406   6.868  15.942  19.932  0.5397 -0.1535 -0.1311
22354W        W65407  18.943  32.655   9.973  0.2052 -0.0510  0.2363
22355W        W65408  17.150   3.940  25.036  0.1213  0.2381  0.1348
22356W        W65409  11.619  18.532   2.822 -0.2466 -0.1069 -0.0534
22357W        W65410  34.055  24.960  14.840 -0.2330  0.1042 -0.0884
22358W        W65411   3.482  15.099  24.554  0.0160 -0.0752 -0.0223
22359W        W65412  25.593  12.175   3.780 -0.1125 -0.3267 -0.1147
22360W        W65413  10.998  14.677   5.120  0.0576 -0.1010 -0.1079
22361W        W65414  27.539   2.156  16.679  0.0833 -0.0531  0.0828
22362W        W65415   9.923   0.278  10.008  0.2618  0.3295 -0.1023
22363W        W65416   0.738   5.711  29.034  0.0481  0.3776  0.2689
22364W        W65417  34.495  33.903  28.622 -0.0539 -0.1325 -0.0428
22365W        W65418  20.713   7.684  25.509  0.3467  0.1001  0.0613
22366W        W65419   9.642  33.537   8.776 -0.0634  0.1358 -0.3235
22367W        W65420  34.365  24.819   7.599 -0.0534 -0.0748  0.0009
22368W        W65421   8.807   2.318  28.585 -0.0274  0.3489 -0.1668
22369W        W65422  21.511  22.927  24.837 -0.2418  0.1570  0.1639
22370W        W65423   6.153   6.588  27.052 -0.0418  0.1924 -0.0511
22371W        W65424  27.145   9.851   4.425 -0.0983 -0.0696 -0.1149
22372W        W65425  29.415   4.088  23.405  0.2193  0.1842 -0.3875
22373W        W65426  15.336  14.463  23.337 -0.4076 -0.1255 -0.2058
22374W        W65427   0.246   5.316   7.235 -0.0497 -0.1934  0.2042
22375W        W65428  27.966  29.414  24.346 -0.0328 -0.3817 -0.0674
22376W        W65429  21.773   1.294  27.732  0.0178 -0.1267  0.0968
22377W        W65430   7.492   1.517  22.520 -0.0455  0.0159  0.0215
22378W        W65431   5.466  33.371  23.173  0.4509 -0.1995 -0.3673
22379W        W65432  10.354   8.895  27.658  0.1094 -0.0076 -0.1751
22380W        W65433  28.747  12.954  17.307  0.0385  0.0019 -0.2237
22381W        W65434  30.974   3.784  21.229  0.0910 -0.1291 -0.0585
22382W        W65435  16.539   2.721  10.098  0.2355 -0.1079 -0.1252
22383W        W65436  11.370  14.228  20.039  0.4602  0.0283  0.0859
22384W        W65437   5.405   8.206  22.411 -0.0439  0.3019 -0.0696
22385W        W65438  33.259  10.357   1.777  0.1554  0.1617 -0.1016
22386W        W65439  14.108   2.238  18.738  0.1318  0.0325  0.0258
22387W        W65440  29.509  13.668  21.070 -0.1602 -0.0665  0.2322
22388W        W65441   7.179   2.971  14.945  0.1140 -0.2737  0.0996
22389W        W65442  18.378   6.021   8.630 -0.1084 -0.1272 -0.2824
22390W        W65443  31.123  25.024   4.600  0.0223  0.0890 -0.0352
22391W        W65444  26.062   9.189   4.536 -0.0954  0.0955  0.0168
22392W        W65445  12.551   7.325  19.080 -0.0505 -0.2654  0.1017
22393W        W65446  15.335  14.930  23.113 -0.3620  0.2502  0.0350
22394W        W65447  11.438   7.250  16.814  0.1603 -0.1086  0.0476
22395W        W65448  11.175  28.424  21.203 -0.0180 -0.1053 -0.0470
22396W        W65449  13.959   8.899  17.958  0.0292 -0.0921 -0.0918
22397W        W65450  17.496  15.946  12.599  0.0738  0.0914 -0.0028
22398W        W65451  10.683   5.238  18.537  0.2860 -0.1729  0.2403
22399W        W65452  24.849  34.139  24.997  0.0889 -0.4100 -0.2692
22400W        W65453  20.513   8.982  14.803  0.0523 -0.3024  0.0939
22401W        W65454   2.291  28.772  22.125  0.2859 -0.1257  0.0760
22402W        W65455  10.937   6.286  21.668 -0.2845  0.0441  0.0630
22403W        W65456  31.672   3.919  14.001  0.1715  0.1196 -0.1922
22404W        W65457  14.061  16.180  21.929 -0.1191  0.1341 -0.2845
22405W        W65458  23.758   0.800   6.566  0.0348 -0.0434 -0.1072
22406W        W65459   3.923  33.222  15.077  0.0290  0.0878 -0.1681
22407W        W65460   1.208  24.421  16.445  0.3432 -0.1455 -0.2196
22408W        W65461  15.349   6.899  19.445  0.0501  0.0606 -0.4387
22409W        W65462  14.246  21.745   5.794 -0.3133  0.2258  0.0850
22410W        W65463  33.343   6.231  18.202 -0.0594  0.0183  0.2590
22411W        W65464  15.706  12.754  18.864  0.1307 -0.1210  0.2889
22412W        W65465  13.576   4.529   9.375 -0.0577  0.2092 -0.2765
22413W        W65466  16.981  10.790  26.891 -0.1269 -0.3182 -0.2947
22414W        W65467   2.517   4.907  17.790  0.1153  0.0697 -0.3447
22415W        W65468   9.147   5.734  19.162 -0.0686 -0.1561 -0.1179
22416W        W65469  11.586   0.523  23.533 -0.0013  0.0616 -0.1314
22417W        W65470  28.442  11.433  18.949  0.1101 -0.0979  0.2984
22418W        W65471  25.915  30.593   6.343  0.0277  0.0903  0.3845
22419W        W65472   9.354   7.780   7.530 -0.2750  0.3994  0.3454
22420W        W65473  17.138   1.735   0.500 -0.0891 -0.0415  0.1790
22421W        W65474   7.044  10.191  19.617 -0.2573  0.0675 -0.1319
22422W        W65475  11.159  10.291   8.906  0.0721  0.0532 -0.0780
22423W        W65476  14.570  29.123  19.845  0.2403  0.1171 -0.0669
22424W        W65477   6.089  32.363  15.171 -0.3155 -0.0517 -0.1556
22425W        W65478   0.642   0.475   1.716  0.1571  0.1051 -0.1886
22426W        W65479  30.393  26.025  24.042 -0.0378 -0.1622  0.2657
22427W        W65480   1.905   7.449  26.535 -0.0420  0.2172  0.0073
22428W        W65481   4.034   7.794  20.829  0.0818 -0.0316 -0.1790
22429W        W65482  25.610  11.613   0.476 -0.0253  0.1145 -0.3792
22430W        W65483   0.298   8.376  28.720 -0.1711  0.2446 -0.2732
22431W        W65484   0.658  18.006   3.996 -0.1249 -0.1513 -0.0453
22432W        W65485   3.962  31.634  21.060 -0.0581  0.0255  0.0025
22433W        W65486  18.152  31.476   2.759  0.1539  0.2848 -0.2886
22434W        W65487  14.653  26.644   1.287 -0.1968  0.2579  0.1041
22435W        W65488   9.663   2.642  21.908 -0.0261 -0.2827  0.1252
22436W        W65489  10.318  19.824   9.646  0.2344 -0.0261 -0.0245
22437W        W65490   2.388  14.009  16.926  0.0094  0.2242  0.4158
22438W        W65491   6.337  26.139  20.914  0.2504 -0.0589  0.3945
22439W        W65492  22.194   6.938  18.064 -0.2210  0.3623 -0.5639
22440W        W65493   0.308   3.946  27.058  0.2039 -0.1939  0.0191
22441W        W65494   1.128  10.398  28.072 -0.1406 -0.1970  0.1929
22442W        W65495   6.469   7.694   5.590  0.2083 -0.0323 -0.0220
22443W        W65496   3.228   3.419   3.102 -0.2720 -0.0397  0.1717
22444W        W65497  11.767  19.154  27.098  0.1548 -0.3793 -0.2488
22445W        W65498   5.352  11.775  25.972 -0.0264 -0.1447 -0.0656
22446W        W65499  21.005   0.261   7.288 -0.1067 -0.1842 -0.1108
22447W        W65500  10.958  14.438  15.542 -0.2426 -0.0333  0.2160
22448W        W65501  28.743   3.635  19.567  0.1453 -0.1588  0.1334
22449W        W65502   8.557   1.340  28.807 -0.1847  0.2683  0.0523
22450W        W65503   6.612  17.253  23.305  0.1521 -0.1279 -0.1458
22451W        W65504   9.479  31.325  22.728 -0.0103 -0.2353  0.1378
22452W        W65505   7.031  28.144   4.512  0.1563 -0.2219 -0.0249
22453W        W65506   5.109   0.859   0.565  0.3652 -0.0836 -0.0270
22454W        W65507   8.478   9.379  27.426  0.2420 -0.5716 -0.2747
22455W        W65508  12.655  10.790  27.686  0.1110  0.2354 -0.3301
22456W        W65509  18.140  10.032  16.780 -0.1389 -0.0570  0.3566
22457W        W65510  21.733   1.934  28.057  0.1444 -0.0223  0.4263
22458W        W65511  15.651  11.637  18.646  0.0245  0.0710 -0.0468
22459W        W65512  22.028  14.992  22.627 -0.3609 -0.0535 -0.0422
22460W        W65513  29.167   6.853  23.566 -0.0516  0.2877  0.2354
22461W        W65514  15.495  10.281  23.740 -0.0903 -0.0728  0.0393
22462W        W65515  13.504  32.979  18.835 -0.1815 -0.1105 -0.2214
22463W        W65516  21.449   6.033   4.636 -0.0356  0.0756 -0.0646
22464W        W65517  22.929  13.188  16.673 -0.0076  0.0879  0.2168
22465W        W65518  12.059   0.769  15.586 -0.0980 -0.1055 -0.0625
22466W        W65519   7.113  11.264   4.530 -0.2109 -0.0711  0.2893
22467W        W65520  11.602   1.564  24.972 -0.1255  0.1009  0.1851
22468W        W65521  14.153   5.088  27.782  0.1182  0.0002 -0.1147
22469W        W65522  17.872  33.775   5.162 -0.1154 -0.1070  0.2750
22470W        W65523   3.334   1.733   7.259 -0.3628 -0.0126 -0.0571
22471W        W65524  26.506   2.162  14.739  0.1818  0.2352 -0.0820
22472W        W65525   6.796  33.636  15.982 -0.3133 -0.2287  0.1412
22473W        W65526  33.219  29.016  22.140  0.0327 -0.1260 -0.2520
22474W        W65527   4.984  30.326   1.132  0.1133 -0.0664 -0.1803
22475W        W65528  34.617  18.844  17.307  0.0191 -0.2774 -0.1072
22476W        W65529   8.702  23.070   5.474  0.0284  0.0996 -0.2270
22477W        W65530   5.327  27.840   1.715 -0.1251 -0.0338  0.0174
22478W        W65531  26.108   2.044  14.471 -0.2956  0.0355 -0.0102
22479W        W65532   6.393  32.193  24.588  0.2257 -0.1159  0.1099
22480W        W65533   6.468  26.542   8.948  0.0210 -0.1861 -0.2634
22481W        W65534  34.416  26.636  19.667  0.0696  0.0884  0.0452
22482W        W65535   1.834   2.036  19.027  0.0327  0.1081  0.3528
22483W        W65536   9.836  19.688   0.760 -0.1367  0.1113 -0.1885
22484W        W65537  27.667  18.157  15.244 -0.1164  0.2154 -0.0309
22485W        W65538  16.517   6.379   5.741  0.0501 -0.1347 -0.2507
22486W        W65539  15.666   4.307  16.249 -0.1797 -0.0253  0.1297
22487W        W65540   8.930  18.034  20.945 -0.0213 -0.4346 -0.1697
22488W        W65541  33.687  30.008   8.440  0.0943  0.0363  0.0507
22489W        W65542   2.908  25.384  18.225 -0.1620 -0.0018  0.2270
22490W        W65543  29.617  10.546  28.201  0.3434 -0.0516  0.2710
22491W        W65544  11.462   6.259   3.767 -0.0172 -0.1490 -0.0737
22492W        W65545   0.249  32.049  14.360 -0.1399 -0.0940  0.0016
22493W        W65546  12.732   5.916  16.307 -0.1720 -0.2850  0.0446
22494W        W65547   3.728   9.139  27.137  0.3304  0.2974  0.1132
22495W        W65548  25.370  33.086  22.685 -0.1055 -0.1397 -0.0686
22496W        W65549  13.116  10.584  21.835  0.1856 -0.1575  0.2278
22497W        W65550  32.507  32.027  18.726 -0.0900  0.0592  0.3119
22498W        W65551  11.118  12.345  18.148  0.2795  0.1125 -0.5754
22499W        W65552   2.198  31.232   8.006  0.0391  0.0180  0.0978
22500W        W65553  16.499   0.326   3.070 -0.1635 -0.1888 -0.2155
22501W        W65554  30.987  34.223   5.095  0.0763 -0.0379 -0.0860
22502W        W65555  16.616  33.860  28.052  0.1485  0.3358 -0.1074
22503W        W65556   9.689  27.083  14.562  0.1378  0.0517  0.0261
22504W        W65557   9.031   3.306  19.771 -0.1414 -0.1913 -0.0961
22505W        W65558   6.387   1.492  25.899  0.4208 -0.0375 -0.0635
22506W        W65559  22.364  13.618   5.708 -0.0912 -0.0649  0.2354
22507W        W65560   1.602   7.976   2.947 -0.0909 -0.1137  0.0579
22508W        W65561  11.043  15.146  21.938 -0.1068  0.0049 -0.0479
22509W        W65562  11.099  21.709  15.244 -0.0991 -0.0732  0.0671
22510W        W65563   0.521  16.976  27.739  0.0842  0.0182 -0.0362
22511W        W65564  11.504   9.879  27.303  0.0431 -0.1613 -0.1121
22512W        W65565  33.400  25.282   4.164  0.0100  0.4209  0.2218
22513W        W65566  11.357   3.594   8.613 -0.0485  0.1773  0.0611
22514W        W65567  29.553   7.709  15.300 -0.3943  0.3545  0.0781
22515W        W65568  32.622   7.537  25.909  0.1999  0.0656  0.0568
22516W        W65569   5.497  13.258   4.622  0.0682 -0.0192 -0.2485
22517W        W65570  34.560  30.761  24.335 -0.0747 -0.2749 -0.1736
22518W        W65571   8.700  32.555  18.286 -0.2816 -0.2451 -0.0499
22519W        W65572   1.801  33.049  15.192  0.2209  0.0047  0.3393
22520W        W65573  19.063  23.923   5.119  0.2109  0.2908 -0.3650
22521W        W65574  34.030  22.506   1.558 -0.1678 -0.2864 -0.0606
22522W        W65575  10.850   8.153   0.062  0.0134 -0.1666  0.0803
22523W        W65576   6.052   7.959  23.538  0.0352 -0.0709 -0.1303
22524W        W65577   7.469  21.459  23.188  0.0675 -0.0693 -0.3488
22525W        W65578  18.731   2.268  10.854  0.3105  0.2211  0.0171
22526W        W65579   7.807  29.714  13.352  0.1364 -0.2635 -0.0465
22527W        W65580  30.292  10.216  23.469 -0.0706 -0.0397 -0.3439
22528W        W65581  10.577   5.076  25.098  0.0141 -0.0827  0.0751
22529W        W65582  20.580   3.455   4.945 -0.2141  0.1655 -0.0052
22530W        W65583  11.655  16.758  19.764  0.1438  0.0985  0.1725
22531W        W65584  10.832  30.605  16.571 -0.0716 -0.1272  0.2697
22532W        W65585  24.223  11.998   3.789 -0.4152 -0.3348  0.0805
22533W        W65586   2.027  12.099  17.553 -0.3162  0.1539 -0.1346
22534W        W65587   7.728  13.588  26.003  0.1365  0.0556 -0.5955
22535W        W65588   7.404  25.632  20.231 -0.1508  0.2613 -0.3728
22536W        W65589  27.995  17.212  17.250 -0.3344 -0.1168  0.0252
22537W        W65590  22.641   8.474  17.930 -0.2236 -0.2264 -0.2027
22538W        W65591  29.629   9.687  28.616  0.3813 -0.1723  0.1003
22539W        W65592  34.531  21.971  21.293 -0.3033 -0.3784  0.1501
22540W        W65593  32.985  10.442  26.634  0.0260 -0.1552 -0.1878
22541W        W65594  31.398   0.215  13.873 -0.3320 -0.1904 -0.1827
22542W        W65595   5.323  28.241  18.095  0.0281  0.0925  0.0671
22543W        W65596  11.506  31.564  21.221 -0.0456  0.1778 -0.0614
22544W        W65597  10.916  17.089  17.484  0.0518 -0.0196  0.2023
22545W        W65598  14.624  33.015  22.792  0.0344  0.1808  0.1914
22546W        W65599   5.052   3.974   6.068  0.1439 -0.0139 -0.0988
22547W        W65600   7.001   3.708  15.425 -0.1352  0.2017 -0.0544
22548W        W65601   4.413   2.275  21.688 -0.0763  0.2394 -0.1434
22549W        W65602  13.650   4.797  15.893 -0.0420 -0.1789 -0.3263
22550W        W65603  14.192  25.779  20.944  0.2728  0.4156  0.2866
22551W        W65604  34.419   3.053   5.367  0.0888 -0.1169  0.0008
22552W        W65605  28.814   4.608  24.558  0.0439  0.0088 -0.4228
22553W        W65606  11.606   9.611  25.910 -0.2367 -0.0951 -0.0054
22554W        W65607  29.927   6.767   0.555  0.0022  0.1021 -0.3278
22555W        W65608   2.111   2.770   0.387  0.3539 -0.1650 -0.3857
22556W        W65609  10.055   3.241  17.387 -0.2280  0.2170  0.1871
22557W        W65610  33.826  15.523  26.463  0.2496  0.0837 -0.3545
22558W        W65611   7.025  32.159  27.412 -0.0914  0.0054  0.2418
22559W        W65612  33.273  17.734  18.805  0.0306  0.0676  0.0469
22560W        W65613   7.638  20.664  15.945 -0.2476  0.0446  0.2874
22561W        W65614   3.000  32.954  22.675  0.3635  0.0016 -0.1474
22562W        W65615  11.460  13.601  24.576 -0.1050  0.2714  0.3062
22563W        W65616  33.510  31.612  21.499 -0.0751  0.1137 -0.2956
22564W        W65617  33.853   1.458  14.972  0.0927  0.0889 -0.0506
22565W        W65618  10.771   9.561   8.837  0.0334 -0.2382  0.1313
22566W        W65619  15.462   0.777  14.546  0.2450  0.0287  0.2390
22567W        W65620   8.840  11.842  18.827  0.0143  0.1596  0.1072
22568W        W65621  11.496   3.008  24.758 -0.1105 -0.1545 -0.3251
22569W        W65622   7.791  26.708  15.906  0.3398 -0.1281 -0.0481
22570W        W65623   8.085   0.870  25.046  0.3063 -0.1028 -0.2762
22571W        W65624   0.651  12.062  14.382  0.0577  0.1128  0.1377
22572W        W65625   5.414   7.615   8.563 -0.1014  0.0612  0.0591
22573W        W65626   9.560  14.949  17.329 -0.0187 -0.2938 -0.1553
22574W        W65627   0.001   9.229   2.396 -0.2023  0.2171 -0.1408
22575W        W65628   0.118   1.702  21.116 -0.0551  0.2022  0.0913
22576W        W65629   7.010  17.381  24.684 -0.0043 -0.0198  0.0818
22577W        W65630   4.525  18.699  23.014 -0.0070 -0.0945 -0.0160
22578W        W65631   4.016  24.898  20.908 -0.0621 -0.1585 -0.0533
22579W        W65632  28.228  10.969  26.826  0.3201 -0.2883  0.1053
22580W        W65633   4.261   1.977  22.076 -0.0772 -0.0001 -0.2496
22581W        W65634  14.339  18.031  24.930 -0.0506  0.2429  0.2174
22582W        W65635  17.088   3.530  17.975 -0.1386 -0.0101 -0.2585
22583W        W65636   2.642   2.057   0.803  0.0055 -0.0949 -0.0890
22584W        W65637  15.564  19.587   0.556 -0.1654 -0.2318  0.6370
22585W        W65638   3.049  11.714  14.681 -0.3075 -0.1318 -0.3166
22586W        W65639  33.337   6.435   2.077  0.1220  0.3443 -0.0399
22587W        W65640   4.712   5.585   2.530  0.0058  0.0035 -0.2660
22588W        W65641  21.685   9.503   0.589  0.0409  0.0247 -0.1467
22589W        W65642  13.437   1.933  18.633  0.0887  0.1545  0.0392
22590W        W65643  10.447  10.768  10.198 -0.2715 -0.0562 -0.0876
22591W        W65644  28.573   9.228  14.860  0.0484 -0.0085  0.1663
22592W        W65645   6.900  12.684  28.684 -0.2964  0.1469 -0.1277
22593W        W65646  33.832  34.364  13.801 -0.0432 -0.1077 -0.1631
22594W        W65647   3.319  30.413  20.563 -0.1613 -0.1666  0.1714
22595W        W65648   5.266  12.164  26.307 -0.1001  0.2172 -0.1373
22596W        W65649  13.447  12.231  27.948  0.2055 -0.0704  0.2137
22597W        W65650  18.784  30.061  20.968  0.1701 -0.0041  0.0841
22598W        W65651  17.194   0.938   9.832  0.2234 -0.0998 -0.0148
22599W        W65652  31.570   4.796   2.842  0.3579 -0.0779  0.1640
22600W        W65653  17.040  23.747  20.110  0.2008 -0.0632  0.2499
22601W        W65654  32.993  10.728  19.933 -0.2342 -0.0830 -0.1290
22602W        W65655  32.336  26.392   7.243  0.0069 -0.1191 -0.0215
22603W        W65656  10.024  13.338  19.349 -0.1728 -0.1038 -0.0832
22604W        W65657  27.094  11.902   0.390 -0.1711 -0.0478 -0.4908
22605W        W65658  28.334  11.866  27.720 -0.3503  0.0474  0.0407
22606W        W65659  27.459   8.564   2.450  0.2694 -0.2491 -0.0390
22607W        W65660  30.554   6.502   4.999 -0.3634  0.1400  0.1711
22608W        W65661   0.159   8.637   6.572 -0.2357 -0.1617  0.2511
22609W        W65662   4.586  26.404  20.807 -0.0764  0.3343  0.0624
22610W        W65663   3.525   7.892   6.847 -0.1353  0.1464 -0.2909
22611W        W65664  16.929   8.242  22.653 -0.0552 -0.0034 -0.6250
22612W        W65665   1.268   7.066  26.181  0.1190  0.0313  0.0645
22613W        W65666  33.787   7.834   8.167 -0.1684 -0.1051 -0.0273
22614W        W65667   0.539   1.617  16.166 -0.0796 -0.0928  0.0782
22615W        W65668  13.361   6.171   5.091 -0.0701  0.2602  0.1605
22616W        W65669  13.909  20.994  18.277 -0.0287 -0.1479 -0.2311
22617W        W65670  30.627  17.650  21.589 -0.3673 -0.3879 -0.2854
22618W        W65671  12.156  11.963  17.447  0.0513  0.0236  0.3014
22619W        W65672  11.684   9.473   1.039 -0.0085 -0.1939  0.3030
22620W        W65673  17.797   5.919  24.376 -0.0457  0.2846 -0.2970
22621W        W65674   6.855  28.309  16.371 -0.0197 -0.0340 -0.1744
22622W        W65675  31.667   4.382  14.773  0.0412  0.2251  0.3638
22623W        W65676   2.021   0.740   1.593  0.1867 -0.0756  0.1624
22624W        W65677   9.812   9.301  26.775 -0.0144 -0.2398  0.2686
22625W        W65678   6.615   9.464  17.911 -0.1045 -0.2976  0.0751
22626W        W65679  25.668   6.094  21.831  0.2310  0.1198  0.0514
22627W        W65680  17.762   4.989   5.003 -0.1510  0.0382 -0.0943
22628W        W65681  31.792   6.565  22.249  0.0090  0.3308 -0.1511
22629W        W65682  20.353   6.922  24.016 -0.0796  0.1871 -0.1294
22630W        W65683   1.534  23.007  15.556 -0.1010 -0.0788  0.1271
22631W        W65684   5.032  20.054  18.106 -0.1382  0.0372  0.3420
22632W        W65685   7.842   7.473  17.398  0.1805 -0.2244 -0.3862
22633W        W65686  14.435   6.950  14.895  0.0137 -0.3148  0.0612
22634W        W65687  32.815  21.192  17.784 -0.1641 -0.1248  0.1943
22635W        W65688  26.799  28.667  17.271  0.0565 -0.0999 -0.2583
22636W        W65689   5.263   9.336   4.344 -0.0763  0.0868 -0.0888
22637W        W65690  20.304   3.043  19.284  0.1226 -0.0560 -0.3197
22638W        W65691  17.953   9.421   8.905  0.1373  0.2903 -0.0050
22639W        W65692   1.830  15.378  14.408 -0.1104  0.1637 -0.0070
22640W        W65693   0.831   2.468   0.752  0.2515  0.1861 -0.3015
22641W        W65694   5.499  30.292  21.992  0.0211 -0.1994 -0.0509
22642W        W65695  12.707   7.173  15.962  0.1305  0.1191  0.0169
22643W        W65696  33.184  28.063   1.254  0.3226 -0.0068  0.0289
22644W        W65697  33.879  18.072  27.116 -0.2440 -0.3139  0.2972
22645W        W65698  22.216  21.687  27.379  0.0139  0.2181 -0.2135
22646W        W65699  15.178  14.086  15.666  0.1456  0.0021  0.1204
22647W        W65700  33.795  21.504  27.306  0.1178  0.1434  0.3380
22648W        W65701  32.783  11.372   2.363  0.1020 -0.1084  0.1992
22649W        W65702   4.033   2.734  25.772  0.0794  0.0918  0.0365
22650W        W65703   7.590  27.827   3.460  0.1588 -0.1846  0.1057
22651W        W65704  10.046  32.799   7.113  0.0738 -0.3186  0.2179
22652W        W65705  20.544  32.358  19.750  0.0957  0.0372  0.0763
22653W        W65706  27.519   3.387  25.051 -0.2852  0.0003 -0.1226
22654W        W65707  12.049  11.866  15.371  0.0003 -0.1405 -0.2770
22655W        W65708   5.306  10.903   8.694  0.0893  0.1263 -0.0478
22656W        W65709  21.067  14.547  20.979  0.1404 -0.0064  0.2519
22657W        W65710   9.070   5.703  10.566  0.1787 -0.1994 -0.2253
22658W        W65711   8.333   7.925  16.746 -0.0612 -0.0045  0.1768
22659W        W65712  29.149   1.626  22.153 -0.1674 -0.0119  0.2973
22660W        W65713  10.452  27.498  28.600 -0.0500 -0.1498  0.0875
22661W        W65714   9.955   9.618  17.462  0.0645  0.0966 -0.0403
22662W        W65715   7.843   5.026  15.841 -0.2516  0.2886 -0.3568
22663W        W65716  17.596   6.285  21.602  0.5600  0.0519 -0.3416
22664W        W65717   1.049   5.405  19.076 -0.0292  0.0216 -0.0707
22665W        W65718   6.453   3.494   8.021  0.2479  0.0710  0.1409
22666W        W65719   3.894  13.463  18.226  0.2494 -0.0617  0.1490
22667W        W65720   9.448  30.921  20.614  0.3184  0.0890 -0.2332
22668W        W65721   3.379   6.906  25.233 -0.2016 -0.0318 -0.2596
22669W        W65722  27.947   2.488  23.599  0.2711  0.0479  0.0866
22670W        W65723   1.676   3.471  21.773 -0.0717  0.1339  0.0508
22671W        W65724  30.020  32.613  13.487 -0.1301  0.1068  0.4099
22672W        W65725   7.768  21.953   6.784  0.0683 -0.1726  0.3302
22673W        W65726  16.898  30.569   0.242  0.1708  0.0840 -0.2966
22674W        W65727   6.233  19.029  18.011 -0.3553 -0.1581 -0.0947
22675W        W65728  19.359  32.114  28.905  0.0809  0.0843  0.2886
22676W        W65729  13.170   7.889   6.782 -0.0073 -0.2995  0.0035
22677W        W65730  12.849  12.457  15.691 -0.0629 -0.2398 -0.1674
22678W        W65731  17.047   8.860  21.533 -0.0978 -0.0142  0.0262
22679W        W65732   1.585  10.823   5.364  0.1996  0.1994 -0.0777
22680W        W65733  15.199  32.881  19.475 -0.1887 -0.1435 -0.1562
22681W        W65734   0.683   8.772  18.586 -0.2198  0.0341 -0.3974
22682W        W65735  18.652  20.742  28.072  0.4156  0.0243 -0.4660
22683W        W65736   5.470  11.544   6.041  0.1770  0.2564  0.0235
22684W        W65737   1.294   7.593  10.236 -0.0648  0.0758  0.5151
22685W        W65738  31.390  14.929   3.800  0.1998 -0.2559 -0.0491
22686W        W65739  12.487   7.070  24.149 -0.0636 -0.0116 -0.1214
22687W        W65740  10.548   4.226  28.506 -0.1142  0.1907  0.0141
22688W        W65741  24.956  23.864  26.940  0.0086 -0.2175  0.2705
22689W        W65742  21.405  32.023   5.645 -0.1188  0.4644 -0.1581
22690W        W65743  14.912  23.913  16.990  0.1071 -0.1963 -0.1142
22691W        W65744  31.066   3.576  20.753 -0.0742  0.1739 -0.1972
22692W        W65745  17.634   6.050  17.702 -0.3002 -0.2499 -0.1752
22693W        W65746  33.548  12.206  25.471  0.0644  0.0497 -0.1264
22694W        W65747   1.238   6.141  14.317 -0.1952 -0.2031  0.2879
22695W        W65748  29.459  13.168  23.643 -0.0723 -0.1583  0.0190
22696W        W65749  34.271  13.578  16.658 -0.0666 -0.3076 -0.1582
22697W        W65750  22.474   0.856  13.654  0.2976 -0.0943  0.2546
22698W        W65751  14.096   9.250  18.994 -0.1785 -0.2246  0.0234
22699W        W65752  33.936  18.205  27.758  0.0704  0.1271 -0.0953
22700W        W65753  25.781  22.913  19.684 -0.0717  0.0255  0.0670
22701W        W65754  16.728  26.915  27.205 -0.3723  0.1606  0.2446
22702W        W65755   4.447   0.733  23.484  0.1483  0.1320  0.0468
22703W        W65756  10.252   8.843  21.041 -0.2991 -0.1477 -0.0862
22704W        W65757  28.972  18.304  23.601  0.0595 -0.5006  0.1675
22705W        W65758  31.393   0.014  24.854  0.0678 -0.1854 -0.1403
22706W        W65759   6.089  24.866  23.485  0.0054 -0.4502 -0.1271
22707W        W65760   3.413  26.021   4.579  0.2961 -0.1173  0.1388
22708W        W65761   5.553  12.544   2.862  0.0005  0.1086 -0.0335
22709W        W65762  12.703  16.308  27.390 -0.0289 -0.0649  0.0469
22710W        W65763  12.334  13.795  15.201 -0.0362 -0.0975  0.1856
22711W        W65764   4.926   7.073   6.913  0.2437  0.0576  0.1957
22712W        W65765   3.966  13.199   5.605  0.0809  0.0288 -0.0988
22713W        W65766   7.859  15.094  15.129  0.0280 -0.3119  0.2097
22714W        W65767  10.616  28.249  22.060  0.0687  0.0088  0.0452
22715W        W65768   6.975   8.203   6.242 -0.0861  0.0109 -0.0888
22716W        W65769   7.385  10.211   3.555 -0.0835 -0.3898 -0.0682
22717W        W65770   7.237   9.141   5.437 -0.2724 -0.1145  0.0261
22718W        W65771  32.328  25.088  18.014  0.0935 -0.0741 -0.1351
22719W        W65772  12.363  28.399  14.000  0.1772 -0.1550  0.0349
22720W        W65773   7.140   1.317   1.436  0.1240  0.0945  0.2170
22721W        W65774   2.597   9.825   0.435 -0.0978  0.1057 -0.1168
22722W        W65775  24.798   7.234  15.370 -0.0808 -0.0041 -0.0117
22723W        W65776  32.428   3.596  26.541  0.0071 -0.1097  0.0739
22724W        W65777  25.519  25.621   8.629  0.0777 -0.0699  0.1243
22725W        W65778  33.077  19.476   6.652  0.1153 -0.2098  0.0362
22726W        W65779   5.692  20.961   9.391 -0.3867 -0.1911 -0.0868
22727W        W65780  15.387   0.553   5.671  0.3657 -0.1488 -0.0113
22728W        W65781  29.263   2.428   8.837 -0.0262 -0.1007  0.1743
22729W        W65782  32.822   4.425  25.986 -0.1840  0.4119  0.1883
22730W        W65783   3.201   9.187   1.885  0.3313 -0.0531  0.0950
22731W        W65784  10.897  11.723   7.685 -0.1893  0.2566 -0.0315
22732W        W65785  33.728   9.396  17.340 -0.2769  0.0508  0.2315
22733W        W65786   3.597  32.270  18.741  0.0429 -0.3613  0.3292
22734W        W65787  11.934  10.559  19.692  0.3154  0.0395 -0.1898
22735W        W65788  15.213  21.174  27.219 -0.1783  0.0875 -0.1848
22736W        W65789   8.120  26.471  16.181  0.1331 -0.1381  0.1081
22737W        W65790   6.515  21.862  19.293 -0.0034 -0.1594 -0.2227
22738W        W65791  28.661  30.914  22.867  0.0100 -0.3169 -0.2301
22739W        W65792  33.167  31.724  20.941  0.1350 -0.0011 -0.1913
22740W        W65793  22.592  18.510   4.691  0.1275  0.0006  0.0421
22741W        W65794  22.054   5.656  24.720  0.1208  0.4024  0.3591
22742W        W65795   0.047   7.608   2.904 -0.4696 -0.1564 -0.0717
22743W        W65796   6.037   9.151  24.285 -0.0379 -0.0174 -0.0885
22744W        W65797  34.459   0.443  24.915  0.2799 -0.1339 -0.2969
22745W        W65798  19.165   9.669   1.170 -0.0313 -0.0676 -0.0072
22746W        W65799  31.738   0.016   4.879 -0.3249  0.0180 -0.0486
22747W        W65800  11.769  22.171  14.187 -0.0497 -0.1302  0.0178
22748W        W65801   4.088  18.800  25.542 -0.2144 -0.1613  0.1574
22749W        W65802  28.858  13.929  19.638 -0.0957 -0.2441 -0.0659
22750W        W65803   7.612   0.378   0.291 -0.2215 -0.3362  0.1830
22751W        W65804   3.706  32.084  28.894 -0.1730 -0.2757  0.0398
22752W        W65805  26.131   3.855   4.665 -0.2574 -0.0093 -0.2693
22753W        W65806  11.509   6.570   1.367  0.3414 -0.0890  0.2478
22754W        W65807   4.925   4.279   5.388 -0.4437 -0.0321 -0.0774
22755W        W65808  12.131  18.246   2.755  0.1418  0.0486  0.2552
22756W        W65809  11.269  19.742   9.944  0.0958  0.2064  0.2929
22757W        W65810  11.681  17.958  24.153  0.0695  0.1554 -0.1920
22758W        W65811   2.257  34.650  28.717  0.0498  0.0094  0.1404
22759W        W65812   2.388  21.453  21.665 -0.0774 -0.0109  0.0957
22760W        W65813   7.807  15.662  24.550  0.2500 -0.1814  0.3974
22761W        W65814  29.960   0.100   5.388 -0.1902 -0.3871  0.1196
22762W        W65815   1.473  33.450  14.825 -0.0504 -0.0356  0.3362
22763W        W65816  31.703  33.848  16.254  0.1545  0.1571  0.3065
22764W        W65817  14.410  27.966   1.232  0.2989 -0.3623 -0.2220
22765W        W65818  33.867  28.407  27.454  0.2582 -0.0009  0.0882
22766W        W65819   0.307  33.867  19.206 -0.1449 -0.0556 -0.1537
22767W        W65820  26.578  33.140  14.926 -0.1823  0.1093  0.1119
22768W        W65821  30.627   6.376   6.245  0.2181 -0.1090 -0.1765
22769W        W65822  14.622   7.038  11.021 -0.1377  0.1475  0.1470
22770W        W65823  13.839  32.867  28.419  0.3128  0.0502  0.1070
22771W        W65824  17.073   2.198  24.883 -0.3156 -0.1536 -0.1074
22772W        W65825  11.676  14.775   3.265  0.2120  0.0680 -0.1844
22773W        W65826   0.515  27.775  16.483  0.3392 -0.0689  0.1294
22774W        W65827  18.582  25.771   0.720 -0.2275 -0.0494  0.0008
22775W        W65828  27.937   8.819  24.575 -0.2888  0.1685  0.0092
22776W        W65829  20.138  30.256   6.671 -0.2192 -0.0285 -0.0770
22777W        W65830   5.733   7.439  17.813  0.1406  0.2033  0.1294
22778W        W65831   1.434  15.493   1.014 -0.0245 -0.1520 -0.0594
22779W        W65832  15.511  34.006   2.595  0.1468 -0.2886  0.0779
22780W        W65833  11.957   9.987  21.434 -0.0585 -0.3431 -0.0403
22781W        W65834  10.633  28.291  12.652 -0.0891  0.2213  0.1427
22782W        W65835  14.910  12.780  10.583  0.0675 -0.1433  0.3031
22783W        W65836  22.428  11.212  26.334 -0.0511 -0.0100  0.0006
22784W        W65837  15.756   2.478  22.070  0.0029  0.3123 -0.0424
22785W        W65838  13.258  20.342   3.402 -0.3538  0.3231  0.1629
22786W        W65839  28.523   1.354   8.448 -0.3856  0.0145  0.3124
22787W        W65840  33.543   1.314  27.351 -0.2630 -0.2328  0.1644
22788W        W65841  20.597  11.753   0.467 -0.0723  0.1762 -0.0547
22789W        W65842   1.150  14.612   2.065  0.1615  0.2131 -0.1736
22790W        W65843   9.168  34.662   8.122 -0.0717  0.1251  0.3331
22791W        W65844   5.940   6.235  23.377  0.0229  0.2503  0.1495
22792W        W65845  14.669  25.988   4.391  0.0543 -0.1807 -0.1044
22793W        W65846   2.634  22.760   0.599 -0.1230  0.0240  0.1139
22794W        W65847  12.832  32.606  25.593  0.3828 -0.0059  0.0477
22795W        W65848  28.633  17.922  20.770 -0.1859  0.2627 -0.1126
22796W        W65849   1.838  30.796  17.997  0.0271 -0.1424 -0.1165
22797W        W65850  27.979   7.982   4.695 -0.5203 -0.0972  0.2088
22798W        W65851  28.081   2.218  20.602 -0.1332 -0.0800  0.0278
22799W        W65852   2.726  17.144   6.980  0.2254 -0.0323 -0.0969
22800W        W65853   0.151  13.448   0.300  0.1530 -0.2515 -0.1830
22801W        W65854   2.954  17.347   1.419 -0.1555 -0.1786  0.2704
22802W        W65855  11.986  18.038   1.130 -0.0837  0.0924 -0.2163
22803W        W65856   0.795   3.600  16.941  0.0198  0.0756  0.0430
22804W        W65857  34.260  22.336   5.093 -0.2409 -0.1324  0.0326
22805W        W65858  31.047  25.556  17.670  0.2422 -0.2164  0.0454
22806W        W65859   1.754  31.371  22.539 -0.1680 -0.0849  0.1847
22807W        W65860   1.263  34.503  16.756 -0.1340 -0.3401  0.0273
22808W        W65861  11.800   3.793  19.891 -0.3867  0.0161  0.1527
22809W        W65862   3.647   4.896   9.612 -0.0398 -0.1941 -0.1634
22810W        W65863   6.179  15.644   0.093  0.3656 -0.1544 -0.0951
22811W        W65864  11.461   1.797  15.350 -0.1154  0.2879  0.2465
22812W        W65865  27.500  11.460  14.794  0.2974 -0.0457  0.2828
22813W        W65866  19.167  29.949   9.009 -0.1824 -0.1602  0.1862
22814W        W65867  15.552  31.819  18.827 -0.1751  0.3383  0.1504
22815W        W65868  11.065   3.973   0.770  0.0411  0.2164  0.0114
22816W        W65869  14.088  12.345   3.107 -0.0576 -0.1619  0.0779
22817W        W65870   1.743   0.741  24.887  0.0174 -0.2534 -0.2520
22818W        W65871   0.589  33.856  21.126  0.0524 -0.0831 -0.1117
22819W        W65872   1.067   4.454  20.733 -0.1621 -0.1412 -0.2055
22820W        W65873  29.229  19.563   5.337 -0.1233 -0.2052 -0.2722
22821W        W65874   1.527  33.590   4.178  0.1424  0.0989 -0.0756
22822W        W65875  10.809  11.921  17.884 -0.3245 -0.0472 -0.0038
22823W        W65876   2.234   9.318  16.218  0.0538 -0.0110 -0.1361
22824W        W65877   5.900   9.047  18.989  0.0772  0.2727  0.2466
22825W        W65878   3.860  13.646   0.967 -0.1543 -0.1633 -0.2772
22826W        W65879   7.807  17.812  20.815 -0.0624 -0.2147 -0.0127
22827W        W65880   4.935   8.475  25.943  0.0380 -0.1814  0.0742
22828W        W65881   7.767   0.843   0.424 -0.0365  0.0458 -0.2608
22829W        W65882  27.323   4.782   8.619 -0.1640  0.0694  0.1175
22830W        W65883  25.024  17.996  19.789 -0.0289 -0.1132  0.0674
22831W        W65884  34.159   4.517   1.248  0.1538 -0.0638 -0.2160
22832W        W65885  29.833  14.573   8.458 -0.3325 -0.2600  0.0264
22833W        W65886   7.011   4.180  23.893 -0.0901  0.3495  0.0806
22834W        W65887   9.148   0.402  19.899  0.1496  0.1232  0.0598
22835W        W65888   3.984   9.899  28.148  0.0771 -0.2476 -0.2518
22836W        W65889  31.522   6.572  28.956  0.0562  0.5981  0.0289
22837W        W65890  15.284  16.717   6.324 -0.2159  0.1022  0.2810
22838W        W65891   1.011  13.150  20.814  0.4028 -0.0158  0.2888
22839W        W65892   4.134  20.305   7.439  0.0171 -0.0048 -0.1037
22840W        W65893  32.635  19.990   9.079 -0.0689  0.3043 -0.0616
22841W        W65894  16.718  13.472  22.197 -0.0830 -0.2523 -0.3378
22842W        W65895  11.074  29.424  21.400  0.0987  0.1048  0.4278
22843W        W65896  30.058   9.605  17.368  0.1974  0.0991  0.1158
22844W        W65897  25.528  15.064  26.703 -0.0282  0.2111  0.1267
22845W        W65898  33.429   9.261  26.795 -0.0925 -0.0512 -0.0395
22846W        W65899   6.015  31.570  16.666  0.0427 -0.1000  0.0332
22847W        W65900   6.906  18.290   2.758 -0.1145  0.1018 -0.2818
22848W        W65901   4.704  13.318  18.611 -0.0697 -0.0414 -0.0286
22849W        W65902   5.515  26.725  21.043 -0.2278 -0.1082  0.0318
22850W        W65903   3.521  15.300  24.086  0.0839  0.1603  0.2627
22851W        W65904   6.867   3.057  23.337 -0.2051 -0.0253 -0.2496
22852W        W65905  31.677  18.392  16.064 -0.2051 -0.1106  0.1849
22853W        W65906  16.663  33.644  14.478 -0.0048 -0.0998 -0.0677
22854W        W65907   3.823  32.800   5.150 -0.0747  0.2031  0.2711
22855W        W65908  32.184  15.465  14.185  0.1787  0.0017 -0.0964
22856W        W65909  29.604   6.492  18.086  0.1132  0.0436 -0.5737
22857W        W65910   9.357  14.334  27.177 -0.0769  0.2610  0.5611
22858W        W65911  13.851   1.763  21.873 -0.1321 -0.1348 -0.0016
22859W        W65912   5.046  17.062  17.682 -0.1472 -0.2931 -0.3071
22860W        W65913  22.128   2.591   9.364 -0.1305  0.2965 -0.2380
22861W        W65914  15.021  16.698  28.217 -0.0551  0.0555 -0.1159
22862W        W65915  31.665  13.895  18.819  0.0589  0.0552 -0.0884
22863W        W65916   6.967   1.984  17.094  0.0443 -0.2405 -0.0319
22864W        W65917   9.373  11.030  11.162 -0.2053 -0.2468 -0.1583
22865W        W65918  34.485  21.437   9.592 -0.2095 -0.1894 -0.0219
22866W        W65919  18.826  24.193  19.815 -0.0415  0.1428  0.1398
22867W        W65920   9.905  13.765   9.085  0.0952  0.0426  0.0329
22868W        W65921   2.992   7.772  17.700 -0.1778  0.2961 -0.1490
22869W        W65922   7.466  33.005  26.488 -0.2526  0.0596  0.0006
22870W        W65923  11.400  10.239   1.187 -0.5978  0.0895  0.2545
22871W        W65924  11.885   0.359  18.289 -0.1011  0.1581  0.0567
22872W        W65925   1.679   5.887  17.360 -0.0497 -0.2912 -0.2607
22873W        W65926   1.686  32.226   8.564  0.4567  0.1909  0.2475
22874W        W65927  16.112  30.610  21.886  0.2412 -0.0419  0.1345
22875W        W65928   4.857  26.438  18.614  0.0744 -0.2140  0.2710
22876W        W65929  14.357   1.558  14.213  0.1254 -0.0567  0.0533
22877W        W65930  31.589   5.184  20.686 -0.4234 -0.2704  0.1773
22878W        W65931   4.331   3.512  25.452  0.3808 -0.0884  0.0208
22879W        W65932  16.034   3.832   3.890  0.0915 -0.1589 -0.1716
22880W        W65933  23.419  24.731  15.922 -0.0660 -0.1260 -0.2438
22881W        W65934   2.318  29.561  28.598 -0.0631 -0.0046  0.0365
22882W        W65935   1.091   0.248  24.790 -0.1541 -0.0190 -0.1505
22883W        W65936  19.835   2.133   5.099  0.2298 -0.0458  0.2821
22884W        W65937  33.683  18.193   1.266  0.2023 -0.0782  0.0825
22885W        W65938  27.120   0.387  28.986 -0.2400  0.0064 -0.3393
22886W        W65939  31.180   3.806   5.291  0.1987  0.2859 -0.1829
22887W        W65940  15.483  11.834  16.415 -0.3518  0.1728  0.3500
22888W        W65941  25.315   2.496   5.910 -0.0675 -0.0031  0.1129
22889W        W65942   1.637   5.991  17.901 -0.0567 -0.1401 -0.0268
22890W        W65943   3.691  33.324  17.488 -0.2166  0.1861  0.1067
22891W        W65944  17.828  30.888  16.790 -0.0264  0.0830 -0.1544
22892W        W65945   8.633  30.538  14.436  0.0683  0.3961 -0.0810
22893W        W65946  11.140  28.537  18.066 -0.2947 -0.0658  0.2140
22894W        W65947  31.100  16.146   8.349  0.0393 -0.0865 -0.4191
22895W        W65948  18.969  20.845   8.583 -0.2302 -0.2243  0.2271
22896W        W65949  19.366   5.173  27.919  0.2355  0.1169  0.0415
22897W        W65950  19.559  16.095  12.742 -0.1617 -0.3406  0.2758
22898W        W65951  24.059   1.765  24.645  0.0349 -0.3057  0.3065
22899W        W65952   1.971  24.798  24.943  0.0853 -0.0652 -0.2240
22900W        W65953   0.400  32.918   0.656  0.2718  0.1400  0.0397
22901W        W65954   9.306   9.409  24.116  0.0830 -0.1730  0.0290
22902W        W65955   5.664   8.791  24.249  0.1292 -0.0130  0.0322
22903W        W65956   9.028  31.451  25.870  0.3396 -0.0322  0.2896
22904W        W65957  12.380  14.411  28.416 -0.0666 -0.3442  0.0674
22905W        W65958   9.247  28.993   4.731 -0.0829 -0.1408  0.3346
22906W        W65959   2.137  17.685  17.666  0.1163  0.2995 -0.0135
22907W        W65960   1.568  12.178  18.875 -0.1962 -0.1295 -0.0716
22908W        W65961  32.192   3.012  23.142 -0.0768  0.0468  0.1507
22909W        W65962  25.055  20.528   0.779  0.1790 -0.2422  0.2476
22910W        W65963  16.161  33.074  28.421  0.2281  0.0032 -0.1811
22911W        W65964  11.409  12.233   9.148  0.2713 -0.2219  0.0778
22912W        W65965   2.048  12.237  21.414 -0.1327 -0.0614 -0.0689
22913W        W65966  19.981   8.302  14.907 -0.3784  0.1491  0.0308
22914W        W65967  27.503   7.702  27.371 -0.1065 -0.3133  0.0001
22915W        W65968  24.681  31.612   8.934 -0.3516  0.0527  0.2908
22916W        W65969  27.091  34.319  15.350  0.2389  0.0573 -0.0565
22917W        W65970  28.833  21.364   7.700 -0.0268 -0.0725 -0.1840
22918W        W65971   8.589   3.205  23.707 -0.1209 -0.0622 -0.1029
22919W        W65972  33.614  32.606   4.376 -0.0047 -0.4116  0.3116
22920W        W65973   1.868  24.805   0.511  0.2463 -0.1058 -0.1897
22921W        W65974   4.981  11.240   0.281  0.1645  0.0147  0.2701
22922W        W65975   3.702   3.116  26.003 -0.0346 -0.0328 -0.0412
22923W        W65976  25.564  19.291   1.576  0.5073  0.2712  0.2546
22924W        W65977  13.281  26.269  19.120  0.3693 -0.0843 -0.0554
22925W        W65978   7.866   4.875  29.063  0.3169 -0.0587  0.2252
22926W        W65979   1.282   9.922  15.001 -0.5353 -0.0225  0.1053
22927W        W65980  15.884  11.663  23.502 -0.0600  0.2896 -0.1490
22928W        W65981  17.945  18.028   6.806 -0.1182  0.0206  0.0995
22929W        W65982   9.183   5.772   0.238 -0.1001  0.0021 -0.1038
22930W        W65983   1.302   9.305  19.568 -0.1954  0.0136 -0.1763
22931W        W65984   9.876  11.892  19.744  0.2148 -0.1739 -0.0299
22932W        W65985   7.451  18.203  28.667  0.0953 -0.1088  0.3278
22933W        W65986  23.746   1.049  21.876  0.0693  0.2561 -0.0699
22934W        W65987  15.910  30.929  25.492 -0.0217  0.2331  0.4721
22935W        W65988  31.393  27.823  22.915  0.1695 -0.0541 -0.1848
22936W        W65989  33.493  15.084   8.245  0.1115 -0.1609 -0.1045
22937W        W65990   8.774   5.744  22.399 -0.0151  0.0611  0.3158
22938W        W65991   3.529   6.309  21.036  0.3344  0.0916 -0.3697
22939W        W65992  20.306   6.634  22.926  0.0544 -0.1726 -0.0508
22940W        W65993   5.329  26.687   3.660  0.1118  0.0034 -0.1874
22941W        W65994   6.900  18.765  15.314  0.1171 -0.0942  0.2081
22942W        W65995   6.351  17.533  24.540  0.0490  0.2715 -0.1317
22943W        W65996   8.923   8.883  26.323  0.0793 -0.0871 -0.1366
22944W        W65997   3.190  33.859  23.449 -0.0798  0.1417  0.2469
22945W        W65998   3.321  10.702  21.522  0.2353 -0.2531 -0.1653
22946W        W65999  28.898  11.595  26.305 -0.3520 -0.0212  0.1953
22947W        W66000  15.943   4.740   9.459  0.0983  0.1678 -0.0565
22948W        W66001  10.719  10.400  14.974  0.1007  0.2272 -0.0572
22949W        W66002  12.806  13.800   0.439  0.1577  0.0504 -0.0573
22950W        W66003  19.006   0.939   2.760 -0.3918 -0.1714  0.1488
22951W        W66004  13.574  19.398  20.426 -0.1765 -0.2278  0.0643
22952W        W66005   4.798   9.122  19.496 -0.0041  0.1437 -0.1474
22953W        W66006  30.963   5.564   7.409 -0.2781  0.0386 -0.0237
22954W        W66007  24.468  33.848  23.234  0.2531  0.0871  0.0035
22955W        W66008   7.579  17.530   5.843  0.0364 -0.3374  0.0005
22956W        W66009  12.087  22.726   7.561 -0.0106 -0.3431  0.1198
22957W        W66010   5.681  22.847  28.350  0.2677 -0.1887  0.1796
22958W        W66011   3.945   0.869   0.099  0.0146 -0.0048  0.0767
22959W        W66012  10.059  11.297  28.487  0.1762  0.0290  0.0465
22960W        W66013  16.471   0.132  17.624 -0.1234  0.0785 -0.0850
22961W        W66014  10.731   3.917  19.799 -0.0619 -0.3303 -0.3256
22962W        W66015   7.116  16.498  25.272  0.0481 -0.2179 -0.0560
22963W        W66016  30.300  10.477   4.388  0.3330 -0.0244  0.0069
22964W        W66017  17.002  11.229  28.181  0.1534  0.1934  0.3409
22965W        W66018   4.738  16.033  28.920  0.0880 -0.3675  0.1095
22966W        W66019   9.156  30.639   8.446 -0.1527 -0.1829 -0.1674
22967W        W66020   5.267  24.413   5.010 -0.1296 -0.0421  0.3284
22968W        W66021   7.545  32.684  24.642 -0.0685 -0.1395  0.1191
22969W        W66022  13.850  21.731  19.514  0.1948 -0.0248 -0.1029
22970W        W66023  28.542   3.521  28.804 -0.1895  0.0167 -0.2573
22971W        W66024   1.136  32.335   6.124 -0.3291  0.2220 -0.1979
22972W        W66025  31.929   4.799   6.745  0.2369 -0.1138 -0.1190
22973W        W66026   9.754  14.320  22.721 -0.0827 -0.0357  0.1574
22974W        W66027  10.665  12.129   2.997 -0.1695 -0.0530 -0.1813
22975W        W66028   8.382  12.946   1.747 -0.3648 -0.0129  0.0351
22976W        W66029  12.816  31.463   0.355 -0.0319  0.0239 -0.1178
22977W        W66030   0.734  33.894   2.576 -0.0662  0.1596 -0.1135
22978W        W66031  11.841   4.406  21.419  0.1915  0.2940  0.2069
22979W        W66032  10.986  10.222   3.654 -0.3577  0.1217  0.0387
22980W        W66033  10.800  31.850   1.392  0.0541  0.1184  0.2396
22981W        W66034  33.003  29.523  21.978 -0.0001  0.1687 -0.1657
22982W        W66035   9.305   7.744  20.173 -0.0676 -0.1787  0.0682
22983W        W66036  16.829   0.664   5.400  0.0928  0.0817 -0.0016
22984W        W66037  13.672  22.330  16.257  0.2162  0.3188 -0.1099
22985W        W66038  13.179   7.415  26.839 -0.2314  0.1145 -0.3494
22986W        W66039   1.928  30.190  25.410 -0.1225 -0.0865 -0.4343
22987W        W66040   7.471   4.149   4.982 -0.0596  0.0916  0.2059
22988W        W66041   2.436  13.911   8.527  0.0509  0.1766 -0.3221
22989W        W66042  11.224  18.034  19.365 -0.0989 -0.1881  0.3956
22990W        W66043   4.158   6.697  17.755 -0.0248  0.1377 -0.0199
22991W        W66044   0.391   1.334   1.592  0.0752  0.2008 -0.0635
22992W        W66045  12.707   4.061  14.357 -0.1883  0.2059  0.1041
22993W        W66046  12.848  29.484   0.733  0.1017 -0.0257  0.0768
22994W        W66047  12.995   8.710  21.131 -0.2293  0.0375  0.1818
22995W        W66048   1.429  16.803   5.475  0.1525  0.0901  0.2441
22996W        W66049  21.749   7.538  22.248  0.0434  0.1903  0.2927
22997W        W66050  29.482   7.102  28.598 -0.0279 -0.0468  0.0309
22998W        W66051   5.586   8.513  21.125 -0.1209  0.0810 -0.3252
22999W        W66052  16.473  13.880   6.804 -0.0920  0.1195 -0.0483
23000W        W66053   1.189  11.738  27.650 -0.2003 -0.2529 -0.0818
23001W        W66054   9.473  23.742   1.554  0.2883 -0.2860  0.1742
23002W        W66055  33.842   2.625  24.080  0.2010  0.2618 -0.1608
23003W        W66056  25.845   4.426   5.724 -0.3210  0.0119 -0.2818
23004W        W66057  30.789   7.122   3.401 -0.2502 -0.0738  0.1488
23005W        W66058   2.256  20.230   7.676  0.1664 -0.0035 -0.3268
23006W        W66059   2.435  19.486   0.922 -0.4064  0.1147 -0.1953
23007W        W66060  13.879  27.578   6.232 -0.2599  0.0223 -0.0458
23008W        W66061   2.824   2.070   7.564 -0.4863  0.1962 -0.0946
23009W        W66062   2.315  15.138  26.640 -0.3668 -0.1034  0.0048
23010W        W66063  25.638  19.327  29.008 -0.0580  0.2516  0.0139
23011W        W66064  29.978  18.488   0.518  0.0857  0.1303 -0.1372
23012W        W66065  23.899   9.930  21.175 -0.1424 -0.3118  0.0100
23013W        W66066  12.103   9.877  19.188  0.0373 -0.1402  0.1397
23014W        W66067  21.977  21.484   6.766 -0.1869 -0.1788  0.2123
23015W        W66068  10.879  32.587  23.094 -0.0049 -0.2232 -0.4287
23016W        W66069  11.396  11.121   1.945  0.1236 -0.0864 -0.1159
23017W        W66070  29.384  33.830  27.299  0.0110 -0.1050  0.1271
23018W        W66071   2.806  30.067  23.612 -0.1538  0.2210  0.1565
23019W        W66072  11.378   7.786  22.991 -0.2126  0.0622  0.0956
23020W        W66073  33.659  16.510  19.548 -0.1725  0.1933  0.1059
23021W        W66074  28.900  32.392  16.152 -0.1149 -0.0188 -0.0384
23022W        W66075   4.264  14.570  20.160 -0.1801 -0.2689 -0.2322
23023W        W66076  32.747   6.697   7.969  0.2159  0.1659  0.0976
23024W        W66077   5.962  28.947  18.427 -0.2573  0.4174  0.2502
23025W        W66078  24.302  26.668  19.951 -0.0669 -0.1158 -0.2171
23026W        W66079  10.954   8.466  28.553  0.0039  0.4348  0.0879
23027W        W66080  11.405   8.968  19.278  0.0381 -0.4794 -0.1566
23028W        W66081   5.157  14.254  26.947 -0.1560 -0.0580 -0.0047
23029W        W66082  16.953  31.012   2.629 -0.1594  0.1296  0.1381
23030W        W66083  18.715   4.380  23.342  0.3374 -0.1461  0.3321
23031W        W66084   5.662   7.322  17.360 -0.1665  0.0497  0.3970
23032W        W66085  21.978  30.638  23.437  0.1012 -0.0806  0.1744
23033W        W66086  33.915   2.294  27.834 -0.1373  0.1534 -0.2614
23034W        W66087  10.512   4.497   2.446  0.2263 -0.1305 -0.1058
23035W        W66088  26.955  33.225   5.472  0.2274 -0.2028 -0.1524
23036W        W66089   6.688   9.948   7.674  0.0829 -0.1632 -0.1258
23037W        W66090  13.008  16.993  24.944 -0.0062 -0.1463  0.1129
23038W        W66091  26.418  12.227   8.039  0.0815  0.0236 -0.0432
23039W        W66092  28.093   6.933  17.917  0.0042 -0.1164  0.1197
23040W        W66093  25.368   5.573   6.289  0.2082  0.0889  0.0035
23041W        W66094   8.824  15.294   3.698 -0.1818 -0.0355  0.0448
23042W        W66095  34.470  20.174  19.141 -0.1257 -0.4508  0.0263
23043W        W66096   9.702  10.388   6.428  0.4994 -0.0814  0.0109
23044W        W66097  31.226  15.370  26.158  0.1589  0.0587  0.1440
23045W        W66098   6.759   5.483  16.213  0.0504 -0.0255 -0.1686
23046W        W66099   2.429   8.299  18.455  0.2583  0.0140  0.2343
23047W        W66100  23.705  10.543  14.876 -0.0774 -0.0663  0.3136
23048W        W66101  10.259  32.156  22.301 -0.0226  0.3146  0.1175
23049W        W66102   8.462  11.759  15.155  0.0022 -0.2109  0.1679
23050W        W66103  10.863  13.541  27.935 -0.2277 -0.0215 -0.4315
23051W        W66104   7.512  10.214   6.913 -0.2442  0.0566  0.0614
23052W        W66105   1.717  34.517   0.359  0.1671  0.2771 -0.0677
23053W        W66106  32.101   9.993  25.565 -0.2218  0.0465 -0.1783
23054W        W66107   5.257  12.665  22.037  0.3713  0.0361  0.3165
23055W        W66108   4.276  32.191  26.674 -0.4090 -0.0496  0.0048
23056W        W66109  32.260  17.556  18.255  0.2997  0.2728 -0.2025
23057W        W66110   5.236  24.122  16.848  0.0047 -0.1343 -0.2008
23058W        W66111  11.776  19.103  20.453 -0.3898 -0.0578 -0.1570
23059W        W66112  32.105   5.939  23.135  0.1662  0.3767  0.2051
23060W        W66113   8.120   6.873   4.899 -0.0382 -0.1121 -0.1276
23061W        W66114   0.764   4.136   3.563 -0.1100 -0.0512  0.0118
23062W        W66115  27.308   2.983  15.369 -0.1103  0.0289 -0.0702
23063W        W66116   5.071   6.776  24.167  0.1897  0.2670  0.1325
23064W        W66117  15.888   0.541   5.547 -0.4484  0.1493  0.0332
23065W        W66118  24.023  24.122  21.787  0.1591 -0.1050 -0.0116
23066W        W66119   6.271   2.243  14.213 -0.0411 -0.1898 -0.1148
23067W        W66120  17.811  32.247  29.035 -0.2044  0.4165  0.1532
23068W        W66121   1.525   8.761   1.231  0.1257  0.0783  0.2605
23069W        W66122  32.472  10.753  17.751  0.2152  0.1679 -0.2609
23070W        W66123   5.695   2.623   2.683  0.0916  0.1572 -0.1898
23071W        W66124  25.109  22.290  18.587 -0.0569 -0.1376  0.1718
23072W        W66125  10.753  31.055  23.374  0.0205 -0.4364  0.0451
23073W        W66126   2.074  14.972  24.112 -0.1357 -0.2748 -0.2899
23074W        W66127   5.643  31.247  26.735 -0.0929  0.2807 -0.0083
23075W        W66128  13.435  14.012   6.429 -0.1402  0.1261  0.2480
23076W        W66129  10.099  12.045   4.833 -0.0122  0.0452 -0.1368
23077W        W66130   7.260   2.760  24.811 -0.0706 -0.0187 -0.2193
23078W        W66131   1.966   1.064   8.139 -0.2346  0.2240  0.4550
23079W        W66132   4.149  27.319  25.819  0.1560  0.0754 -0.0255
23080W        W66133  33.223   0.103  26.275  0.4609 -0.3831  0.1858
23081W        W66134   7.704  22.860   2.870 -0.3987  0.0340 -0.4007
23082W        W66135  30.099   2.682  27.624 -0.2534  0.0180 -0.0279
23083W        W66136  26.636  16.889  26.876 -0.0019 -0.1589 -0.0130
23084W        W66137  13.800  16.461   6.723  0.2349  0.1594 -0.2243
23085W        W66138  30.112  10.883   4.624 -0.0601  0.2940  0.1151
23086W        W66139  29.915  33.597  16.806  0.1659  0.0308 -0.1627
23087W        W66140  13.828  11.837   8.527 -0.2063 -0.2255 -0.1985
23088W        W66141  28.248   3.934  27.647  0.0638 -0.1360  0.1956
23089W        W66142  15.887  30.876  24.663  0.3462 -0.0270  0.0999
23090W        W66143   5.534  33.450  25.927  0.0673  0.0376 -0.0228
23091W        W66144   0.521   7.501  26.690  0.1982 -0.0668  0.1962
23092W        W66145  10.463  10.560  11.309  0.1062  0.4647  0.1451
23093W        W66146  18.417  16.521   4.150 -0.1682  0.0823 -0.1366
23094W        W66147   2.248  28.462   3.413 -0.0554  0.1436  0.0021
23095W        W66148   1.178  18.967  18.562  0.0350 -0.0759 -0.0447
23096W        W66149  19.539   0.516  27.407  0.1680 -0.0188 -0.0675
23097W        W66150  13.541  29.162   0.545 -0.2338 -0.1320 -0.1675
23098W        W66151  10.367  32.080  28.301 -0.0512  0.3563  0.0101
23099W        W66152  24.490  29.925   7.435  0.1105 -0.0244  0.0565
23100W        W66153  13.484  25.418  20.525  0.1185  0.1689 -0.0130
23101W        W66154  31.938  21.110  27.488 -0.3168  0.2181 -0.0339
23102W        W66155   1.334   3.269   4.099  0.1124 -0.1514  0.0289
23103W        W66156  34.085   1.639  28.422  0.2204  0.1650  0.1443
23104W        W66157   7.541  19.779  17.176  0.3501  0.2627 -0.0218
23105W        W66158  20.654  11.993  16.453  0.0607  0.2415 -0.2146
23106W        W66159  31.695  32.103   7.799 -0.5291  0.0310  0.1299
23107W        W66160   1.470  30.521   6.350  0.2383 -0.2625 -0.0140
23108W        W66161  30.378   3.503  17.484  0.0339  0.0204 -0.0763
23109W        W66162  28.610  10.045  24.085  0.0946  0.1299 -0.1420
23110W        W66163  11.681  30.792   1.574 -0.2148  0.2761  0.1946
23111W        W66164  34.599   0.627   4.679 -0.2962 -0.1164  0.1923
23112W        W66165   5.389   2.095   7.496  0.2418 -0.2277  0.3556
23113W        W66166  31.517   5.675  16.543  0.0190 -0.1114  0.2511
23114W        W66167  28.036  12.957  20.987  0.1603 -0.2234  0.0499
23115W        W66168  26.106   2.269   5.058  0.1619 -0.4072  0.0192
23116W        W66169  11.903  10.200  24.649 -0.2588  0.2586 -0.0477
23117W        W66170  15.241   2.876   7.987  0.3128 -0.0878  0.1749
23118W        W66171  10.938   9.479   2.187  0.2283 -0.2810 -0.2515
23119W        W66172   9.428  30.318  17.230 -0.0282 -0.3671 -0.1802
23120W        W66173   2.586  10.815  18.800 -0.2486  0.1915 -0.0120
23121W        W66174  32.122  29.296  19.142 -0.0560 -0.2646  0.0298
23122W        W66175  29.518  13.839  20.186 -0.0114  0.0619 -0.0969
23123W        W66176   8.574  27.728  26.849  0.0763 -0.1887 -0.5137
23124W        W66177  28.901   1.052   0.291 -0.2163 -0.1006 -0.0104
23125W        W66178  16.271  17.734  12.520 -0.1525  0.2062  0.2522
23126W        W66179  31.682  32.580  28.259 -0.2927  0.1430 -0.0575
23127W        W66180   9.879  29.541   5.374 -0.2037  0.1568 -0.1855
23128W        W66181  24.561  14.583  23.906 -0.0455  0.2145  0.1370
23129W        W66182  34.428   6.077   5.833 -0.2203  0.3720  0.3177
23130W        W66183   2.301  18.410  19.880  0.2305 -0.2500  0.0520
23131W        W66184   6.215   0.925   5.414 -0.2920 -0.0747  0.0544
23132W        W66185  10.798   6.788  15.585  0.0480 -0.3573 -0.0234
23133W        W66186   6.585  16.057  21.687  0.1955 -0.2579 -0.1610
23134W        W66187   8.037   3.143   0.135  0.1143  0.0732  0.2036
23135W        W66188  13.938  29.888  26.033  0.1538 -0.0356  0.3395
23136W        W66189  30.884   6.009  27.931  0.3047 -0.5464 -0.3662
23137W        W66190  11.554  22.780   0.700  0.0700 -0.4847 -0.1463
23138W        W66191  13.837   8.760  28.789  0.0731  0.1001  0.0101
23139W        W66192  33.111   3.781  26.999  0.2143  0.1249  0.3033
23140W        W66193  13.354  21.064   7.455  0.1468 -0.0778  0.0223
23141W        W66194   7.922  34.281   3.492  0.2272 -0.1910 -0.5083
23142W        W66195  18.678  30.730  20.115 -0.1305  0.0876 -0.0505
23143W        W66196  19.207   7.934  21.756 -0.2089  0.0903  0.1565
23144W        W66197  27.805   1.716  22.030 -0.2597  0.2429  0.0111
23145W        W66198  31.185   7.806  27.553  0.3613  0.0625 -0.0551
23146W        W66199   2.130  29.021   7.122 -0.0804 -0.0439 -0.0408
23147W        W66200   7.663  26.135  28.005  0.1905 -0.0839 -0.0824
23148W        W66201   3.512  30.864   5.276 -0.2934 -0.3144  0.2467
23149W        W66202   5.940  32.355  24.028 -0.0491  0.0457 -0.1392
23150W        W66203  25.457   2.380  27.026  0.1392  0.0337  0.0162
23151W        W66204  27.806  13.622  15.550  0.1044  0.1270 -0.2673
23152W        W66205  15.436  18.460   5.717  0.2027 -0.4752 -0.1888
23153W        W66206  30.987  33.869   6.320 -0.0451 -0.1527 -0.4200
23154W        W66207  10.496  29.660  24.161 -0.2414 -0.2315  0.1028
23155W        W66208   5.538  16.190   5.986  0.1519  0.0896 -0.0396
23156W        W66209  29.882  13.338  27.203  0.2933 -0.2784 -0.1614
23157W        W66210   9.177  11.079   0.896 -0.1435 -0.0992 -0.1093
23158W        W66211   0.366   5.493   7.939  0.5461 -0.0151 -0.2295
23159W        W66212  21.405  22.484   9.475  0.0761 -0.1037  0.1701
23160W        W66213  29.148  14.703  16.489 -0.2616 -0.0638  0.0131
23161W        W66214  14.920  10.897  24.038 -0.7199  0.1195 -0.2919
23162W        W66215  18.750  14.606  28.902  0.3131 -0.0912  0.0382
23163W        W66216  22.427  32.604   2.539 -0.0909 -0.2118  0.1603
23164W        W66217  15.277   6.573  28.269 -0.2093  0.0669  0.0914
23165W        W66218  31.220  14.454   7.805 -0.0138  0.2728 -0.0542
23166W        W66219  11.333  33.805   4.819 -0.2195 -0.1823 -0.0077
23167W        W66220   7.188  29.479  16.481 -0.1254 -0.1616 -0.0745
23168W        W66221   0.410  32.222   7.807  0.2191  0.0489 -0.1601
23169W        W66222  25.860   8.743  20.735 -0.3361  0.1496  0.2104
23170W        W66223  14.187   3.997   3.438 -0.3653  0.1678  0.0459
23171W        W66224  12.736  10.225  28.608 -0.2249  0.2922  0.1590
23172W        W66225  15.423   4.655  28.089  0.1652  0.1024 -0.0010
23173W        W66226  29.474  20.507   9.821 -0.1231 -0.1167  0.1304
23174W        W66227  28.227  22.275  20.472 -0.0484  0.6009  0.1178
23175W        W66228  28.464  17.467   1.330 -0.1045 -0.2267  0.0955
23176W        W66229   6.395  14.537   5.007  0.0761  0.1495 -0.1138
23177W        W66230  18.096  34.340  28.986 -0.1617  0.1836  0.1458
23178W        W66231  31.403   5.691  24.937  0.3496  0.0118  0.0846
23179W        W66232   2.465  12.341   8.731 -0.2091 -0.0607  0.0800
23180W        W66233  29.904  10.619   1.498  0.1078 -0.0691  0.0367
23181W        W66234  23.946  10.267  26.517 -0.0169  0.5325 -0.0463
23182W        W66235   1.120  11.248  24.625 -0.0092  0.5309 -0.1848
23183W        W66236  24.296  16.330  25.101  0.1551  0.0854 -0.0046
23184W        W66237  31.225   3.109  26.904  0.0322  0.1858 -0.1734
23185W        W66238   2.340   7.872  10.606 -0.4039  0.0922  0.0417
23186W        W66239   2.077  11.528   1.538 -0.2442  0.1055 -0.0966
23187W        W66240   3.470  10.489   6.105  0.0744 -0.3871 -0.3532
23188W        W66241  13.105   5.617  17.230 -0.0702 -0.1700  0.1046
23189W        W66242  34.556   5.218  15.998 -0.1962  0.1937 -0.1577
23190W        W66243   2.364  29.366  20.126  0.0544 -0.2678  0.0601
23191W        W66244   1.066   9.085  28.755  0.0582 -0.0994  0.1291
23192W        W66245  21.277   9.756  28.763  0.1492 -0.0247  0.3977
23193W        W66246   5.643  24.283   0.411 -0.3535 -0.0525 -0.1115
23194W        W66247   6.871  19.779  27.970  0.0846 -0.0226  0.2958
23195W        W66248  21.334   7.352  19.322  0.1138  0.0596 -0.0546
23196W        W66249  34.473  10.729   5.954  0.1099  0.2430  0.0673
23197W        W66250   5.840   7.025   1.818 -0.1637  0.2003  0.0387
23198W        W66251  24.618   7.381  18.304 -0.0822 -0.1508 -0.0448
23199W        W66252   8.237  32.204   3.504  0.0865 -0.0788 -0.0626
23200W        W66253   1.366   7.432  21.376 -0.0883  0.1848 -0.2011
23201W        W66254   5.495  31.855  25.596  0.2457 -0.1514 -0.0362
23202W        W66255  19.191   8.540   6.438  0.1764  0.0402  0.0549
23203W        W66256   9.251   0.983   9.330 -0.2644 -0.0127 -0.1953
23204W        W66257  11.291  12.469  10.188 -0.2670  0.1323 -0.0503
23205W        W66258   5.641   9.386   3.500 -0.1532  0.0296  0.2258
23206W        W66259  14.218  11.281  23.385  0.4288  0.1930 -0.0098
23207W        W66260  33.894   8.526   7.593 -0.3307 -0.0142 -0.1428
23208W        W66261  29.586   9.500   3.434 -0.1005 -0.1474  0.0954
23209W        W66262   4.990  30.142   4.614  0.2238 -0.6185  0.2099
23210W        W66263   4.512  23.722   0.274  0.1699  0.0740  0.0402
23211W        W66264  16.461  11.521  28.969 -0.0018  0.0124 -0.1481
23212W        W66265  10.865  21.525  15.655 -0.0890 -0.0941  0.1718
23213W        W66266  12.693  17.815  26.475  0.0841 -0.0933  0.0638
23214W        W66267  20.073   8.261   8.736 -0.2860  0.2703  0.2116
23215W        W66268   8.790   4.959  27.490 -0.1333 -0.0708 -0.1342
23216W        W66269  16.614  15.192  23.493 -0.0111 -0.0282 -0.2737
23217W        W66270  15.668  31.299  14.845  0.2120 -0.2275  0.0307
23218W        W66271  12.682   3.598  21.470  0.1710  0.0307  0.2237
23219W        W66272  31.356   3.487  26.607  0.4027 -0.0622 -0.1093
23220W        W66273   1.710   4.020  24.942  0.1127 -0.3291 -0.1825
23221W        W66274  22.238   7.184  14.789  0.0934 -0.0569 -0.2001
23222W        W66275  12.326  10.649  24.711  0.1337  0.0528 -0.2088
23223W        W66276  32.185  16.475  20.714 -0.1476  0.0181 -0.2333
23224W        W66277  13.522   8.352  28.882 -0.1152  0.1194 -0.0467
23225W        W66278  29.426  23.650  18.065  0.2613 -0.1457  0.1134
23226W        W66279  14.008  24.921  26.995 -0.2215  0.1381 -0.3712
23227W        W66280   0.716  15.908  14.742 -0.0711  0.1885  0.1530
23228W        W66281   6.345   1.037  19.240 -0.0399 -0.3891 -0.0209
23229W        W66282  27.576  30.918  23.804 -0.3905  0.1089  0.1884
23230W        W66283   0.860  28.677  16.940  0.0097  0.2045 -0.0453
23231W        W66284   1.906  24.324  17.085 -0.2187  0.0728  0.1025
23232W        W66285  13.607   5.811  25.869  0.2000 -0.1236 -0.2761
23233W        W66286  15.369   9.846   2.021  0.2307  0.0612 -0.0683
23234W        W66287  33.319  11.019  20.176  0.0599  0.2295 -0.5224
23235W        W66288   2.170   5.811  17.196 -0.1043 -0.0088  0.3217
23236W        W66289  28.331  29.702  14.837 -0.1140 -0.2520 -0.1368
23237W        W66290   5.937  16.602  25.963  0.0011  0.0746  0.2144
23238W        W66291   8.027  13.341  23.980 -0.4435  0.2411 -0.2279
23239W        W66292  29.100   4.880  16.482 -0.2259 -0.2689  0.3695
23240W        W66293   2.745  32.990  15.731  0.2005  0.1056  0.0329
23241W        W66294   1.618   9.881  16.711  0.2762 -0.0524  0.0390
23242W        W66295  10.755  17.886  17.911 -0.1636 -0.1774  0.1453
23243W        W66296   8.253  16.272   5.931 -0.2757  0.0089 -0.0650
23244W        W66297   5.805  33.340  19.303  0.2245  0.0977  0.2822
23245W        W66298   3.786   3.908  17.297  0.3802 -0.0521  0.0343
23246W        W66299   2.891  16.595  27.084 -0.2320 -0.1517  0.3308
23247W        W66300   5.538  26.154  17.340  0.2757  0.2264  0.1822
23248W        W66301   1.861   3.905  24.434 -0.1376  0.1705  0.1524
23249W        W66302   1.908   5.467  17.473 -0.0845 -0.1214  0.1551
23250W        W66303  31.739  13.922  20.365  0.0316  0.2057 -0.0962
23251W        W66304  31.332   9.150  20.936  0.3269 -0.0540  0.1303
23252W        W66305   0.399  12.369  17.421 -0.0020 -0.0109  0.1644
23253W        W66306  33.110  31.390  16.818 -0.2003  0.1772  0.0031
23254W        W66307   1.372  19.253  18.212  0.2171  0.2017 -0.0123
23255W        W66308  34.137   7.512  28.101 -0.0908 -0.0951  0.2264
23256W        W66309   5.185   6.956  23.629 -0.2300 -0.1263  0.1710
23257W        W66310   9.586   1.058  24.826 -0.1322 -0.1846  0.1395
23258W        W66311  13.600  10.330  18.598  0.2970  0.0712  0.1968
23259W        W66312  28.762  14.887  18.448 -0.1059  0.0618 -0.1813
23260W        W66313  11.565  27.146  13.748  0.1594  0.2463  0.1725
23261W        W66314   8.134  23.395  20.586  0.0923  0.0543 -0.0500
23262W        W66315  10.168   9.953  28.464  0.1044  0.0978  0.0842
23263W        W66316   8.401  19.251   5.001  0.0847 -0.0695  0.1301
23264W        W66317  32.709  11.334  24.338 -0.1156  0.0571 -0.1876
23265W        W66318   5.138   0.015  14.936 -0.0997 -0.3228  0.1899
23266W        W66319   4.978  23.053  21.484  0.0680 -0.0427  0.0192
23267W        W66320  10.415   1.169  17.486 -0.0005 -0.0489 -0.0330
23268W        W66321   9.950   8.825  19.009 -0.1175 -0.0165 -0.0826
23269W        W66322  26.694  15.540  22.711  0.2146  0.2202  0.3509
23270W        W66323   5.715   6.055   7.268  0.1125 -0.0126 -0.0308
23271W        W66324   7.151   5.663   0.589 -0.3752  0.0239 -0.0387
23272W        W66325   6.809   0.821  16.697  0.0619 -0.3846 -0.2233
23273W        W66326   0.065  12.672  18.675  0.0200 -0.0257 -0.2767
23274W        W66327   8.184  20.304  27.864  0.2195 -0.1489  0.3270
23275W        W66328   4.103  15.808  22.141 -0.1702 -0.1544 -0.0399
23276W        W66329   7.712  16.466   0.760  0.2341  0.1401 -0.0938
23277W        W66330  16.053   8.432  26.129 -0.2301 -0.0831 -0.1836
23278W        W66331  14.239  10.081   7.265  0.0006  0.2185  0.4133
23279W        W66332   7.553  13.851  20.492 -0.1042  0.0295  0.2355
23280W        W66333   0.731   6.818   5.486  0.0674 -0.0998 -0.1136
23281W        W66334  16.064   9.160  14.532 -0.2150  0.2357  0.2599
23282W        W66335  20.157  27.080  17.240 -0.3010  0.2685  0.2015
23283W        W66336  32.591   7.374  16.785  0.2631 -0.0429  0.0281
23284W        W66337   7.026  16.083  21.861  0.0174  0.3872 -0.3207
23285W        W66338  18.626   7.258  21.960  0.2515 -0.0792  0.3512
23286W        W66339   2.295  26.550  16.475  0.2441  0.0019  0.1353
23287W        W66340   3.733   1.302  22.436  0.1554 -0.0636  0.0608
23288W        W66341  17.214   1.125  15.643  0.1810 -0.2934 -0.0609
23289W        W66342  13.782   8.900  15.870  0.3730  0.0074 -0.2637
23290W        W66343  13.254   6.947  25.209  0.1054  0.0678 -0.3199
23291W        W66344  16.449   5.462   1.775  0.2156  0.1178 -0.0442
23292W        W66345   7.193   0.951  16.993 -0.0944 -0.0569  0.0237
23293W        W66346   0.917   3.922  20.389 -0.1023 -0.0100 -0.0451
23294W        W66347  15.128  17.300  13.711 -0.1254 -0.5693 -0.0983
23295W        W66348   5.128   7.390   9.776 -0.0245 -0.2281 -0.3049
23296W        W66349   4.066   4.195  26.202  0.0345 -0.3097  0.1115
23297W        W66350   6.057   3.112   0.663  0.2443  0.1834 -0.0634
23298W        W66351   6.117  29.429  20.775  0.0767  0.1761 -0.0491
23299W        W66352  11.897   7.501  22.391  0.1344  0.1888  0.0220
23300W        W66353   3.969  12.608  17.858  0.2972 -0.0752 -0.0530
23301W        W66354  27.655  27.151  27.000 -0.1293  0.1834 -0.0972
23302W        W66355  31.660   3.970   4.825  0.4021 -0.0268  0.1297
23303W        W66356  13.914  21.208  15.097  0.2581 -0.0463  0.1151
23304W        W66357  24.466  26.987  16.024  0.1940  0.1679 -0.3338
23305W        W66358  17.724  14.267  23.541  0.1890 -0.3591  0.2838
23306W        W66359  10.298   9.794  23.920 -0.0443 -0.1815 -0.3437
23307W        W66360   4.504   5.663  26.445 -0.3894  0.0567 -0.3092
23308W        W66361   9.029  10.937  23.046 -0.3592  0.0684 -0.0171
23309W        W66362   6.623   7.764  14.709 -0.0904 -0.1666 -0.1525
23310W        W66363  32.718   7.752  19.035  0.3278 -0.1131 -0.1951
23311W        W66364   7.092  22.189  15.600 -0.3012  0.2524 -0.0850
23312W        W66365   9.598  25.448  16.716  0.1837 -0.0454 -0.1824
23313W        W66366   2.453   5.867   9.021  0.2398  0.0807  0.1051
23314W        W66367  25.341   6.455  15.613 -0.0350 -0.0417  0.0717
23315W        W66368  34.234   2.576  15.885  0.0393  0.2364  0.4476
23316W        W66369   1.125   2.892  15.347  0.1267  0.2742 -0.0937
23317W        W66370   6.677  23.646   5.481  0.0311 -0.1530  0.0222
23318W        W66371   5.020   2.390  24.701  0.0812 -0.0553 -0.1378
23319W        W66372  17.149  27.124  27.470 -0.2745 -0.1320 -0.1761
23320W        W66373  25.760  14.467  26.356 -0.2097 -0.0189  0.0127
23321W        W66374  29.372   0.822  13.664  0.0668 -0.0066  0.1367
23322W        W66375   2.831   7.862  14.343  0.2938  0.1282  0.0075
23323W        W66376  23.255   9.271  13.815  0.2460 -0.0149  0.0380
23324W        W66377  11.401   7.461  20.976 -0.2905 -0.0186 -0.2572
23325W        W66378  31.023  19.740  13.202 -0.2750  0.1502  0.1419
23326W        W66379  14.506  31.007  18.495 -0.4544 -0.0297  0.1636
23327W        W66380  28.525  16.531  15.806 -0.1748 -0.0670 -0.0482
23328W        W66381  22.851  19.588  15.069  0.0316  0.3007  0.3080
23329W        W66382  19.280  33.236  17.193 -0.1263  0.0435  0.2499
23330W        W66383  34.095  10.650  18.968  0.0106 -0.0473  0.2894
23331W        W66384   4.826  10.012  18.082  0.1580  0.1212  0.2202
23332W        W66385  21.022   6.418  24.346  0.1330  0.2601 -0.2066
23333W        W66386  27.176  11.317  27.357 -0.3479  0.1876  0.1776
23334W        W66387  34.262  21.237  21.957  0.2250 -0.0230  0.1194
23335W        W66388  29.800  15.608  19.219 -0.1706 -0.0254  0.1496
23336W        W66389  28.886  11.768  27.728 -0.1002  0.3842  0.1407
23337W        W66390   7.539  15.778  19.139 -0.0445 -0.0359  0.1978
23338W        W66391  20.113   6.481  19.975  0.0798  0.1809  0.1020
23339W        W66392  16.045   0.287  19.398 -0.1113 -0.2702  0.1547
23340W        W66393   1.249  13.161  13.969 -0.3555 -0.0238 -0.1413
23341W        W66394   0.548  21.202  19.779 -0.1741  0.3607 -0.1639
23342W        W66395  12.330  31.583  15.852  0.3404 -0.0044  0.0749
23343W        W66396   8.686   2.773  27.954  0.2775 -0.1012  0.1276
23344W        W66397   1.117  11.514  19.377 -0.1377  0.2197 -0.0754
23345W        W66398  32.356   3.821  24.101 -0.0411 -0.1200 -0.2927
23346W        W66399   5.274  21.125  15.717  0.2890 -0.0478 -0.2027
23347W        W66400  29.049  17.338   9.641  0.2334  0.2416 -0.0757
23348W        W66401  23.069   2.747  25.695 -0.0258 -0.1658 -0.1149
23349W        W66402  15.489  29.762   0.853  0.0916 -0.0722  0.0045
23350W        W66403   2.588  31.889  17.809 -0.0084  0.1861  0.1211
23351W        W66404   9.011   3.517  15.447 -0.3129  0.1674 -0.0679
23352W        W66405  25.638  13.654  27.488  0.0815 -0.2044  0.2156
23353W        W66406  30.234  32.439  17.389 -0.1747  0.0629 -0.0294
23354W        W66407   0.731  19.717  20.840  0.2313 -0.0608 -0.0020
23355W        W66408  29.837  20.832  17.618 -0.2307 -0.4198  0.3193
23356W        W66409   8.205  13.352  15.096  0.0355  0.0092 -0.0948
23357W        W66410  15.902   6.169  17.862 -0.2342  0.2087 -0.2909
23358W        W66411  33.219  11.088  27.606  0.0298  0.0500 -0.1732
23359W        W66412   2.548  14.023  17.484  0.0700  0.1444 -0.0845
23360W        W66413  30.870  22.809  19.919 -0.0420  0.1874  0.0153
23361W        W66414  25.492  31.514  18.590  0.1189  0.3862  0.0046
23362W        W66415   6.295  21.345  26.691 -0.2505  0.1374 -0.0614
23363W        W66416  28.421  29.970  24.903  0.0296  0.0929  0.0561
23364W        W66417  17.780  22.662  19.490  0.1070 -0.2309  0.1980
23365W        W66418  20.745   2.833  19.149  0.3091 -0.5322 -0.0847
23366W        W66419  16.176   3.335  15.400  0.3218 -0.2503  0.0475
23367W        W66420  17.201   2.395  21.363 -0.2613  0.2512 -0.1753
23368W        W66421  16.341  19.034  24.184 -0.0670 -0.1885  0.0185
23369W        W66422   3.240  19.487  23.627  0.0286  0.2955 -0.0287
23370W        W66423  33.425  25.815  22.538 -0.4072 -0.1603  0.1217
23371W        W66424   0.695  12.209   6.353 -0.0902 -0.0683  0.1361
23372W        W66425  32.943   3.350  13.605  0.1506 -0.1916 -0.2171
23373W        W66426   2.568  17.638  23.856  0.1969  0.0851  0.1189
23374W        W66427  11.481  14.896  23.167 -0.2394  0.2684 -0.0186
23375W        W66428   2.452   2.600  17.830 -0.2676 -0.0040  0.1816
23376W        W66429  25.930   7.371   0.914 -0.1633 -0.3189  0.0349
23377W        W66430   2.523  18.907  17.660  0.0410  0.1008  0.0377
23378W        W66431   2.576  11.589  20.836  0.3379  0.1425  0.1148
23379W        W66432  12.030  13.410  25.540  0.0774 -0.2431 -0.0031
23380W        W66433  34.073   7.681  18.894  0.2845 -0.0666 -0.0885
23381W        W66434   2.228   9.239  19.006  0.2371 -0.1534 -0.0678
23382W        W66435  21.309   7.143  20.845 -0.0894 -0.1999 -0.1756
23383W        W66436   5.594  12.887  21.483  0.4573 -0.0279  0.1409
23384W        W66437   3.759  12.642  17.205 -0.0963  0.1005  0.2266
23385W        W66438  12.424   7.906   1.327  0.3982 -0.1325  0.2187
23386W        W66439  29.977  14.623  19.572  0.2696  0.0089 -0.1675
23387W        W66440   4.437  13.693  18.866  0.0685  0.2358 -0.3621
23388W        W66441  11.574  29.766  25.280 -0.0387 -0.0042 -0.0694
23389W        W66442   0.000   7.691   1.363 -0.0238 -0.1680 -0.1673
23390W        W66443  32.535  29.331   3.170  0.0184  0.1612 -0.1214
23391W        W66444  10.567   7.012  14.758  0.0946 -0.2185 -0.3072
23392W        W66445  10.628  28.089  18.794  0.0269  0.2882 -0.2363
23393W        W66446  25.020   9.097  16.236  0.3571  0.3127  0.1872
23394W        W66447  16.822  30.465  22.523 -0.2460  0.0575 -0.0300
23395W        W66448  14.612  11.942  17.525  0.0456 -0.1362 -0.1113
23396W        W66449  33.639  23.198  16.214  0.1382 -0.0983  0.1086
23397W        W66450  13.746  33.810   4.192  0.1387  0.5480 -0.1098
23398W        W66451  33.095   6.989  27.987  0.1314 -0.0648  0.0283
23399W        W66452  14.647  26.611  16.096 -0.1054  0.1220  0.1327
23400W        W66453  17.233  13.348  21.458 -0.0562  0.0812  0.2233
23401W        W66454   9.354   9.983   8.695 -0.4528 -0.1586 -0.3102
23402W        W66455   8.474  20.067   1.378 -0.0231 -0.0581 -0.2361
23403W        W66456   6.728  20.902  18.613 -0.2831  0.2034 -0.3593
23404W        W66457  24.533  13.157  21.326 -0.1344 -0.0252  0.0122
23405W        W66458  31.786  21.445  22.685 -0.1608  0.1295 -0.1814
23406W        W66459  32.086  33.584   7.053 -0.0866  0.2091  0.1507
23407W        W66460  10.857  32.645   5.594  0.2543  0.3220  0.0946
23408W        W66461  10.756   5.225  14.253 -0.1425  0.2174  0.1869
23409W        W66462   3.546  12.408   1.937 -0.0037 -0.0770  0.2197
23410W        W66463   7.543  13.803  16.890  0.0038  0.2355 -0.0437
23411W        W66464  19.652  34.371  27.048 -0.2007 -0.0625  0.2115
23412W        W66465  15.726   9.220  17.825 -0.2785 -0.0851 -0.0210
23413W        W66466   9.843  10.879  25.702 -0.1098  0.0652  0.1995
23414W        W66467   6.764  29.990  19.188 -0.3099 -0.1093 -0.1284
23415W        W66468  33.301   3.325  14.341  0.0052 -0.6304 -0.2056
23416W        W66469   6.106  16.678  15.425 -0.3653 -0.0722  0.0894
23417W        W66470   1.874  12.912   3.954  0.0306  0.2196 -0.4587
23418W        W66471  17.703  26.089  19.181 -0.1946 -0.0716 -0.0259
23419W        W66472  27.118   7.736  26.895 -0.2329  0.0178  0.2938
23420W        W66473   8.629  33.731  26.680 -0.1335 -0.1484  0.1514
23421W        W66474  18.788  11.291  27.925 -0.0449  0.1108  0.0104
23422W        W66475   1.223   8.763  24.249 -0.0042  0.0912 -0.4866
23423W        W66476  11.452   3.988  18.046 -0.0191 -0.0516  0.0611
23424W        W66477   2.276   9.033  20.550 -0.3794 -0.3220 -0.1197
23425W        W66478   7.026  13.567   6.084  0.0669  0.0554  0.0160
23426W        W66479   0.242   3.456  23.366  0.1247  0.4304  0.1312
23427W        W66480  20.601  10.550  29.012  0.0029 -0.0241 -0.2431
23428W        W66481  12.360  34.667  26.437  0.0244  0.2989 -0.2717
23429W        W66482   3.488   6.037  20.167  0.0088  0.1718  0.0620
23430W        W66483  10.465   8.109  18.445  0.0994 -0.2637  0.2136
23431W        W66484  20.043  22.673  21.830 -0.1276 -0.0036  0.1296
23432W        W66485   3.251  23.871   8.095  0.3219 -0.1997 -0.2767
23433W        W66486  19.736   2.864  14.259 -0.2328 -0.1213  0.2063
23434W        W66487  28.423   9.083  27.145  0.0277  0.1008 -0.1938
23435W        W66488   1.673  11.167   1.523 -0.2507  0.2559 -0.1783
23436W        W66489   1.968  16.182  16.271 -0.2761  0.0880  0.0157
23437W        W66490  12.724   8.725  28.963 -0.0733 -0.1864 -0.0466
23438W        W66491  29.059  11.411   3.949 -0.2889  0.0483 -0.1379
23439W        W66492   2.665   2.224  21.296  0.1151  0.0896 -0.2175
23440W        W66493   7.178  13.403  14.173  0.4249 -0.0147  0.2210
23441W        W66494   0.290   7.545  14.783  0.3672 -0.0685 -0.1312
23442W        W66495   8.557  23.705   1.671  0.0721 -0.0780 -0.0441
23443W        W66496  11.525  11.056  27.558 -0.0706 -0.2220 -0.0911
23444W        W66497  12.642  26.944  16.735  0.0756  0.2560 -0.0534
23445W        W66498  16.843  29.603   0.108 -0.1881 -0.0352 -0.1182
23446W        W66499  11.797   4.116  28.614 -0.0755 -0.1031 -0.2439
23447W        W66500  10.999  21.569  21.244  0.0915  0.1187 -0.2143
23448W        W66501  30.693  13.611   1.559  0.0501  0.1201 -0.1250
23449W        W66502   5.035   7.721  14.950 -0.1655 -0.1284 -0.1537
23450W        W66503  18.674   2.725   5.915 -0.1251 -0.0653 -0.2255
23451W        W66504  33.548  10.625   2.848 -0.0153 -0.0016  0.1243
23452W        W66505   6.639  16.208  24.098 -0.0601 -0.2676 -0.1097
23453W        W66506  14.630  11.528  25.451  0.0804 -0.0222 -0.0339
23454W        W66507  24.997   5.239  24.597 -0.1868 -0.1162  0.0373
23455W        W66508  10.542  33.634  18.486  0.3057  0.2205 -0.1149
23456W        W66509  28.409   2.168  22.779  0.0285 -0.2248  0.0598
23457W        W66510   5.763  14.492   3.997  0.2307 -0.2831  0.3547
23458W        W66511   8.679   4.140   2.466 -0.3042  0.0143  0.1144
23459W        W66512  16.547  10.844  21.027 -0.0440 -0.1985  0.1653
23460W        W66513   5.444   0.947  27.957  0.1517 -0.1430 -0.1267
23461W        W66514  33.300   6.212  18.909 -0.0313  0.3772 -0.0110
23462W        W66515  15.820  25.408   7.294  0.4321  0.0285  0.0137
23463W        W66516  23.596  10.214  27.400 -0.0860 -0.2732  0.3695
23464W        W66517   6.333  34.636  13.965  0.0321  0.0977 -0.0678
23465W        W66518  24.551  26.174  19.864 -0.0267 -0.1076  0.0476
23466W        W66519   2.339  16.702  26.554  0.1175 -0.2034  0.0292
23467W        W66520   6.688  13.278  15.191  0.2822  0.0292 -0.1725
23468W        W66521  12.053  13.613  18.580  0.2352 -0.0124 -0.1089
23469W        W66522   4.556  20.915  19.291 -0.4566  0.2874 -0.0854
23470W        W66523  24.084   9.272  20.053 -0.0815 -0.1346 -0.1274
23471W        W66524   5.417   6.380  17.340 -0.0926  0.4638 -0.0590
23472W        W66525  11.662   3.028  15.996 -0.2170  0.0355  0.0502
23473W        W66526   9.223   4.293  25.277 -0.0065  0.0412  0.0090
23474W        W66527   3.590  29.131  20.822 -0.2163 -0.1930 -0.1011
23475W        W66528  17.583  32.442   3.891  0.2335 -0.0248 -0.0296
23476W        W66529  31.476  19.681  22.089  0.2694  0.1794 -0.1509
23477W        W66530   2.046  34.233  21.264 -0.0195  0.1160 -0.1826
23478W        W66531   6.185  22.220  18.354  0.0992 -0.1020  0.1908
23479W        W66532  32.828  14.450  29.127 -0.0349 -0.1729 -0.2691
23480W        W66533  25.827  15.590  15.789 -0.1480  0.0439 -0.1213
23481W        W66534  24.953  12.215  14.639 -0.0393 -0.2202  0.1591
23482W        W66535  10.478  19.006  23.789  0.2916 -0.2387 -0.0954
23483W        W66536   6.805  29.049  19.669  0.0772  0.0972  0.0215
23484W        W66537  22.070  30.040  28.164 -0.1643  0.1056  0.0221
23485W        W66538   6.474   7.833  28.570 -0.0644  0.1568  0.3278
23486W        W66539  16.029   6.543  16.959 -0.0111  0.3399 -0.1472
23487W        W66540  34.589  13.299  13.989 -0.2624 -0.0913 -0.2772
23488W        W66541  30.552   2.881  18.703 -0.2066  0.4104 -0.2395
23489W        W66542  13.562  16.447  29.096  0.1836 -0.2325  0.0624
23490W        W66543   5.411   4.312  24.950 -0.1058 -0.0911  0.0168
23491W        W66544  28.786  15.326  23.164  0.2001  0.0027 -0.1752
23492W        W66545  27.463  17.161  23.652 -0.0884  0.0224  0.2066
23493W        W66546   1.311   8.136  26.207  0.1080  0.1355  0.0617
23494W        W66547   5.116  24.302  19.429 -0.1621 -0.1477  0.2200
23495W        W66548   0.929  10.289  23.507 -0.4939  0.0026  0.1063
23496W        W66549  14.246  11.412  19.557 -0.3648  0.1987 -0.1110
23497W        W66550  10.324  31.331  29.047  0.1812  0.0006 -0.1338
23498W        W66551  15.784  34.036   9.293 -0.0993  0.0399  0.1051
23499W        W66552  16.067  10.308  23.702 -0.0174  0.1040 -0.1013
23500W        W66553   8.906  31.816  16.399 -0.2947  0.0062 -0.2851
23501W        W66554  18.537  17.461  23.628  0.0002  0.2082 -0.0444
23502W        W66555  16.904   6.623  22.247 -0.4351 -0.0636  0.0093
23503W        W66556   2.496   7.542  26.034  0.0233  0.0603  0.2271
23504W        W66557  15.022  34.432  19.433 -0.3645  0.0667  0.1383
23505W        W66558  21.425  30.811   3.132  0.1574 -0.0600  0.0167
23506W        W66559   4.373  12.738  18.046  0.1262 -0.1425  0.1230
23507W        W66560  10.164  14.424  19.359 -0.1646 -0.0829  0.1066
23508W        W66561   9.830  31.564   7.818 -0.1225 -0.0884  0.3674
23509W        W66562   2.405  16.258  18.424  0.0097  0.0009  0.3658
23510W        W66563   5.460   4.354   2.832 -0.3569 -0.1249  0.0114
23511W        W66564   4.928  12.906  26.848 -0.1683  0.2454  0.0766
23512W        W66565  26.476  18.973  28.767 -0.0531 -0.0373 -0.0578
23513W        W66566  11.049  30.776  28.072 -0.0147  0.1807 -0.0160
23514W        W66567  11.347   3.174  22.067  0.1387 -0.1375 -0.0219
23515W        W66568   5.073  31.692  21.418 -0.4406 -0.2837 -0.2347
23516W        W66569  10.310  28.794  19.863  0.0875 -0.1278 -0.4393
23517W        W66570  14.416   5.879  28.481 -0.1220 -0.0220 -0.2103
23518W        W66571   8.237   0.786  16.894  0.0304 -0.2788  0.0213
23519W        W66572   2.475  18.897  20.125  0.1546  0.0729  0.1289
23520W        W66573   2.512   4.449  22.427 -0.1019 -0.1176 -0.0129
23521W        W66574  17.055  10.713   7.937 -0.2158  0.0703  0.2062
23522W        W66575   7.396   7.373  29.065 -0.0075 -0.0104 -0.0351
23523W        W66576  33.673   7.252  22.643  0.2405 -0.3636 -0.3148
23524W        W66577  12.244  10.634  21.052  0.4037 -0.0430 -0.0800
23525W        W66578   7.659   8.075  22.764  0.1793 -0.1911 -0.0077
23526W        W66579  32.202  30.887  23.726 -0.2006 -0.1434  0.1662
23527W        W66580   8.067  34.445  20.495 -0.1115 -0.1935  0.2687
23528W        W66581   0.196  34.630   9.047  0.3893 -0.0424  0.0760
23529W        W66582   0.037  25.404  14.320 -0.2912  0.2366 -0.0668
23530W        W66583  25.949   9.660  19.795  0.1130 -0.0410  0.1320
23531W        W66584   0.778   9.319  14.324  0.2663 -0.0409 -0.1283
23532W        W66585  32.960  16.013  19.020  0.0328 -0.0012  0.3227
23533W        W66586   8.451  14.261  16.017  0.1241  0.0167  0.1078
23534W        W66587  28.901  32.521  21.931  0.0196  0.1602  0.1711
23535W        W66588  33.462   7.039   5.546  0.2372 -0.1081  0.2259
23536W        W66589   8.783  18.723  18.086 -0.1595 -0.2536  0.1684
23537W        W66590  28.839   6.756  20.223  0.0348 -0.2540 -0.0960
23538W        W66591  17.553  20.254   5.611  0.1036  0.0813 -0.0397
23539W        W66592   4.179   4.118   2.224  0.1170 -0.0921 -0.1941
23540W        W66593   0.925   6.332  25.751 -0.1251 -0.2072 -0.0275
23541W        W66594  26.353  12.022  21.699 -0.2422 -0.3266  0.0883
23542W        W66595  30.710  13.573  14.403 -0.1942 -0.1273 -0.0252
23543W        W66596   7.406   9.739  20.420  0.0037  0.4104  0.1456
23544W        W66597  20.428   4.893  15.223  0.0146  0.0695 -0.3961
23545W        W66598  34.393  22.223  25.793  0.3436 -0.4515 -0.2903
23546W        W66599   5.397   8.106  15.179 -0.2278  0.0161 -0.0694
23547W        W66600   3.935  18.151  23.060  0.1291  0.2357 -0.1555
23548W        W66601  14.752   4.618  17.574  0.2130  0.1354  0.1943
23549W        W66602  16.595   7.617  27.788  0.1269  0.0747 -0.0224
23550W        W66603  32.730  14.124  19.420 -0.0245 -0.0311  0.0701
23551W        W66604   9.200  33.302  26.066 -0.0577 -0.4104 -0.2205
23552W        W66605   1.777  24.235  14.669  0.0856  0.2701  0.1758
23553W        W66606   0.134   3.913  14.687  0.1731  0.0991  0.0884
23554W        W66607   4.298   5.176  27.224 -0.0311 -0.1100  0.1615
23555W        W66608   5.729   5.092  28.183 -0.2276 -0.1396  0.1765
23556W        W66609  31.593  34.274  14.883 -0.0262  0.0430 -0.1517
23557W        W66610   9.251  10.840  26.662  0.3920 -0.1467  0.0898
23558W        W66611  31.108  15.024   3.297 -0.2063  0.0385 -0.5544
23559W        W66612  32.025   2.877   4.262 -0.5125 -0.0442  0.0408
23560W        W66613   1.994   3.216  14.808  0.1238 -0.0485 -0.1469
23561W        W66614  31.018   8.397   5.030  0.0544 -0.2253 -0.0754
23562W        W66615   3.105  28.201  22.420 -0.2823  0.0077 -0.0898
23563W        W66616  17.495   0.947  21.278 -0.4027 -0.2515 -0.3063
23564W        W66617   1.141   2.375  24.102  0.0258  0.1630 -0.0196
23565W        W66618   7.113  14.564  15.853  0.2021 -0.0270  0.1027
23566W        W66619  19.311   6.615  27.903 -0.0851  0.0180  0.3565
23567W        W66620  14.063  17.441  21.236 -0.0183 -0.0195  0.1119
23568W        W66621  10.280  11.391   6.521  0.3813 -0.0894  0.0150
23569W        W66622   4.523   1.734  17.027 -0.0122  0.0617  0.0713
23570W        W66623   4.380  33.859  27.396 -0.0247 -0.2243 -0.0415
23571W        W66624  14.582  11.531  15.279  0.2036 -0.4274 -0.0829
23572W        W66625  26.677   1.386   2.768  0.0916  0.0640 -0.1358
23573W        W66626  31.610   1.008  24.546 -0.1456  0.0253 -0.0063
23574W        W66627  13.174  28.153  16.568  0.0127 -0.0668  0.0669
23575W        W66628  10.534  13.305  28.505 -0.0494  0.0358 -0.0416
23576W        W66629  12.020  13.635  21.798  0.1616 -0.1405  0.1121
23577W        W66630   8.459   2.744   1.413 -0.2622  0.2375 -0.1798
23578W        W66631  27.189   7.125  15.410 -0.0267 -0.2665  0.1858
23579W        W66632   8.836  15.823  22.432 -0.1958  0.1012  0.1743
23580W        W66633   1.326   9.031  23.113  0.1750 -0.0566 -0.1006
23581W        W66634   4.855  13.186  28.513  0.0573  0.0151  0.2214
23582W        W66635  13.424   2.004  25.820  0.2938 -0.2158 -0.0244
23583W        W66636  21.397   8.623  28.558  0.0568  0.1311  0.2252
23584W        W66637  17.815  28.081  19.150  0.1049  0.1185 -0.2262
23585W        W66638  16.168  10.410  20.535  0.3007 -0.0195 -0.1594
23586W        W66639   8.893  15.944  25.265  0.0107  0.2151 -0.1131
23587W        W66640  25.758  19.569  26.220  0.0283 -0.2602 -0.0811
23588W        W66641  10.023  18.049   5.039  0.1441  0.1883 -0.0229
23589W        W66642   6.009  32.088  18.848  0.1749  0.0725  0.0490
23590W        W66643   4.810  19.422  23.292 -0.1681 -0.3782 -0.0176
23591W        W66644  13.626  31.396  20.565 -0.0513  0.3609  0.5137
23592W        W66645  18.124  10.375  28.150  0.2778 -0.1712  0.1952
23593W        W66646  29.330  11.888  28.533  0.0396  0.1573  0.2603
23594W        W66647  31.841  12.543  15.151  0.2718  0.0650  0.0180
23595W        W66648   1.754  29.202  15.546 -0.0884  0.0303  0.1777
23596W        W66649   0.247  15.973  17.038 -0.0413 -0.2588  0.0185
23597W        W66650   6.455  29.360  16.640 -0.2475  0.0580  0.0822
23598W        W66651   9.839   1.565  14.404 -0.2932 -0.0286  0.1193
23599W        W66652   7.367   0.086  17.563 -0.2489 -0.1015 -0.3103
23600W        W66653   2.444  17.170  16.561  0.0365 -0.1830  0.3878
23601W        W66654  16.329   5.460  23.101 -0.0721 -0.1237 -0.1669
23602W        W66655  18.282   0.327  15.597  0.1840 -0.1116 -0.1610
23603W        W66656   2.895   4.329  17.103  0.0625 -0.1714 -0.0798
23604W        W66657  14.779  12.833  14.929 -0.0303 -0.3540 -0.0906
23605W        W66658   0.659   7.375  18.047 -0.1103  0.0857  0.0427
23606W        W66659  31.085  28.106  16.747 -0.0395 -0.1064  0.0753
23607W        W66660  31.115  17.142  24.474 -0.0693 -0.3261 -0.4043
23608W        W66661   5.820  21.022  14.932 -0.1645 -0.0269 -0.0084
23609W        W66662   2.027   8.116   0.317 -0.1603 -0.4969 -0.2994
23610W        W66663   1.827  20.317  24.238 -0.2454  0.1269 -0.0512
23611W        W66664  11.953   1.274  15.448  0.0853  0.2900  0.1723
23612W        W66665  17.214   3.064  19.851 -0.1549 -0.0746  0.2501
23613W        W66666  11.878   9.092  19.547 -0.1453 -0.0467 -0.1398
23614W        W66667   6.022  13.401  24.237  0.3492  0.2304  0.0483
23615W        W66668   2.586  34.514  21.326  0.1851 -0.1447  0.1459
23616W        W66669  22.139  32.177  16.506  0.5891 -0.5052 -0.0498
23617W        W66670  34.487  14.208  19.012  0.2093  0.1395  0.1100
23618W        W66671  34.144   3.209  18.120 -0.1335  0.2313  0.2101
23619W        W66672  21.737   2.457  21.675  0.0317 -0.1294  0.4241
23620W        W66673  16.333  25.691  24.342  0.0125  0.1629 -0.0237
23621W        W66674   3.850   4.599   3.312 -0.0283  0.2069 -0.1380
23622W        W66675   9.910  18.486  17.976 -0.1760  0.2090 -0.0254
23623W        W66676  34.676   3.968  28.489 -0.3057 -0.1018  0.0516
23624W        W66677   7.498  12.154  25.637  0.0388  0.0742 -0.0718
23625W        W66678  25.777  10.007  26.370 -0.2355  0.0830  0.5327
23626W        W66679   3.624   8.413   6.705 -0.1664 -0.1184  0.0519
23627W        W66680  23.862   8.932  17.369  0.0138 -0.0554 -0.2294
23628W        W66681  34.342   5.816  16.042 -0.0435 -0.1008 -0.3636
23629W        W66682  31.011   1.543   7.616  0.0477 -0.0054 -0.1015
23630W        W66683   1.022  27.694  20.590  0.2114 -0.0681  0.1949
23631W        W66684  32.321  14.002   4.917  0.1531  0.0822 -0.0777
23632W        W66685   4.494   1.856   9.044  0.1311  0.2107 -0.0495
23633W        W66686  21.395  14.351   2.631  0.0189 -0.2588  0.0247
23634W        W66687  30.577   6.597   5.535 -0.0351 -0.1993  0.1752
23635W        W66688   3.100   4.495  19.008  0.0873 -0.1641  0.0716
23636W        W66689   0.137  16.810  23.469 -0.3008 -0.1172  0.2821
23637W        W66690   5.643  30.484  14.250 -0.2189  0.3949 -0.0035
23638W        W66691  32.081  21.671  19.021 -0.0333 -0.0589 -0.1230
23639W        W66692  33.959  34.283  15.945 -0.0131  0.2660 -0.1231
23640W        W66693   1.935   9.124  27.605  0.1242  0.0822  0.0251
23641W        W66694  34.636  14.481  17.252  0.2320 -0.3018  0.1040
23642W        W66695   2.480  12.455  27.297  0.1124 -0.1206 -0.2633
23643W        W66696  18.522  11.204  14.624  0.2141  0.1870  0.3859
23644W        W66697   4.500  12.009  20.310  0.1138 -0.0838 -0.4429
23645W        W66698   7.270   0.952  21.226  0.0568 -0.0713  0.1223
23646W        W66699  31.406  14.921  20.574 -0.0802  0.0894  0.0229
23647W        W66700   1.641  10.849  14.695  0.4743  0.2574 -0.2304
23648W        W66701   6.216  25.339  28.638 -0.0330 -0.3533 -0.4388
23649W        W66702  14.997   9.914   8.001  0.2225  0.0711  0.0427
23650W        W66703  18.086   7.498  25.899 -0.2065  0.2213  0.1999
23651W        W66704  20.240  23.511  19.377 -0.2746 -0.1110 -0.2939
23652W        W66705  22.967  10.299  23.899 -0.1771  0.0887 -0.3080
23653W        W66706  16.282   2.189  22.331  0.0049  0.1590  0.0854
23654W        W66707  17.238  21.630   1.638  0.3709  0.2040 -0.0133
23655W        W66708   3.105   6.881  18.886  0.0264  0.2861  0.1642
23656W        W66709   2.109  33.891   4.956  0.0525 -0.0573 -0.1999
23657W        W66710  16.637  10.687  24.618  0.0146  0.0266 -0.0732
23658W        W66711   7.113   7.040  24.854 -0.0446 -0.3101  0.1272
23659W        W66712  34.383  12.323   1.445  0.3706 -0.2545  0.1469
23660W        W66713  15.390  30.079  21.304 -0.2515 -0.2297  0.0299
23661W        W66714  18.761  34.136  17.910 -0.0168  0.0862  0.0081
23662W        W66715   3.789  33.685  17.037 -0.0129  0.0059  0.2782
23663W        W66716   3.098   0.881  24.733  0.5191  0.0561 -0.0007
23664W        W66717  28.344   2.053  15.475 -0.1747 -0.2200 -0.3454
23665W        W66718  10.616   4.425  16.848 -0.1063  0.0167  0.1345
23666W        W66719  27.699   9.502  16.617  0.2013  0.1128  0.1330
23667W        W66720  28.349  14.834  26.771  0.1643 -0.0837 -0.0136
23668W        W66721  34.484  17.687  23.462  0.0314 -0.4368 -0.1451
23669W        W66722  31.673  14.818  22.349 -0.1342  0.1623  0.2845
23670W        W66723  11.008  23.579  27.421  0.0411  0.1258 -0.5349
23671W        W66724  25.641  11.908   4.338  0.0328 -0.3226 -0.2883
23672W        W66725   2.198  19.316  15.069  0.0442  0.1821 -0.3436
23673W        W66726  33.263  26.242  14.878  0.1876 -0.1193  0.0098
23674W        W66727  15.854   1.510  23.104  0.2352  0.2736 -0.0433
23675W        W66728   1.171   2.597  22.257  0.2304  0.0525  0.1291
23676W        W66729  15.830  13.273  27.442 -0.2108  0.1605  0.1193
23677W        W66730  34.121   5.745   1.675  0.0510  0.0224  0.0238
23678W        W66731  34.534   0.807  26.430 -0.2906 -0.2582  0.2191
23679W        W66732  32.995   9.406  17.420  0.0487 -0.1108 -0.3879
23680W        W66733   6.676   3.532  18.738 -0.1515 -0.2089 -0.2182
23681W        W66734  26.875  24.648   8.195 -0.0016 -0.1343  0.1425
23682W        W66735   5.263  31.560  22.957  0.1133  0.1323  0.3767
23683W        W66736  29.102  10.046  22.059  0.1826 -0.0870  0.0738
23684W        W66737  30.873   6.559  15.302 -0.3267 -0.3469 -0.0883
23685W        W66738  17.127   5.405  20.095 -0.1214  0.1015 -0.1017
23686W        W66739   6.629  11.185  23.334 -0.0622  0.1909 -0.2953
23687W        W66740   1.394  13.369  18.614  0.2318 -0.1036 -0.0863
23688W        W66741   0.445   8.682  18.156 -0.1104  0.0068 -0.1538
23689W        W66742  20.564   5.696  20.474 -0.1330  0.0974 -0.2004
23690W        W66743   5.703  20.051  20.456 -0.4364 -0.2098  0.2408
23691W        W66744   1.074  12.170  16.640 -0.0070  0.0142 -0.2061
23692W        W66745  27.635  16.700  20.246 -0.0939 -0.0271 -0.0716
23693W        W66746  20.458  11.226  25.383 -0.1985 -0.1214  0.2539
23694W        W66747  22.670  30.212  27.687  0.0315  0.1302  0.2355
23695W        W66748   2.955  18.622  20.121  0.2662 -0.1320  0.0926
23696W        W66749  33.836   4.563  15.658 -0.3329  0.2441  0.0618
23697W        W66750   7.011  25.575  16.391 -0.0361  0.0638 -0.0171
23698W        W66751   9.114  14.839  23.023  0.0267 -0.1680 -0.2443
23699W        W66752  12.311  14.504  15.828  0.0146  0.3101 -0.3635
23700W        W66753  10.905  10.143  20.598  0.0529  0.0067 -0.0496
23701W        W66754   0.485  22.208  18.451 -0.1023 -0.2265  0.3521
23702W        W66755   4.930  28.659  18.375 -0.5774  0.0266  0.0068
23703W        W66756   0.968   4.560  23.518  0.3014  0.4028 -0.1997
23704W        W66757   5.787  29.370   1.627 -0.0982  0.1606 -0.0385
23705W        W66758  13.766  32.444  18.356  0.1456  0.0045  0.0265
23706W        W66759  28.855   8.865  23.572 -0.2048 -0.0357  0.1675
23707W        W66760   7.056   9.878  24.567  0.0713  0.1191 -0.1175
23708W        W66761  10.938   7.625  24.017 -0.0037  0.0562  0.1220
23709W        W66762  14.085  29.637  25.236 -0.0921 -0.1072  0.0140
23710W        W66763  16.992  25.556  28.240  0.1465  0.0201  0.3472
23711W        W66764  11.582   9.434  20.651 -0.0310  0.0720 -0.2065
23712W        W66765   2.433   4.676  23.945 -0.5541  0.1473 -0.1139
23713W        W66766   2.863  14.844  16.633 -0.1453 -0.0674  0.0254
23714W        W66767  17.191  13.429  16.251  0.0891 -0.1626 -0.0208
23715W        W66768   3.233  33.779  14.209  0.0962  0.2014 -0.2350
23716W        W66769  14.398   7.032   2.245  0.0429 -0.1904 -0.3125
23717W        W66770  34.132   7.865  28.963  0.1485  0.0731 -0.1867
23718W        W66771  34.633  20.220  16.922  0.1222 -0.2507  0.1442
23719W        W66772  16.172  16.991  27.899  0.1757  0.0867 -0.0910
23720W        W66773  27.826  10.107  25.083 -0.0296  0.2260  0.0502
23721W        W66774  28.995  13.090  26.131  0.1789  0.0877 -0.2271
23722W        W66775   0.297  16.069  22.289  0.0473  0.0856 -0.2195
23723W        W66776   3.673  34.018  28.456  0.3413  0.0667 -0.0538
23724W        W66777  19.070  19.898  13.746  0.0375 -0.1236  0.1125
23725W        W66778  20.799   1.556  20.505  0.1625 -0.1311 -0.1437
23726W        W66779  12.767   5.286  18.908 -0.1334  0.1612 -0.1123
23727W        W66780   7.479  14.317  26.481 -0.2802 -0.0575  0.2025
23728W        W66781  26.697   6.076   0.496  0.1309  0.0636  0.2069
23729W        W66782   0.933  16.366  17.188 -0.2929 -0.3308 -0.1364
23730W        W66783   8.322   8.221  16.332 -0.1000  0.0739  0.0624
23731W        W66784  17.334  10.667  17.034  0.0982 -0.0543  0.2263
23732W        W66785   5.234  10.552  23.127  0.3547 -0.1810  0.3383
23733W        W66786   4.775  21.119   1.528 -0.3135  0.0065  0.0454
23734W        W66787   3.846   6.283  18.695  0.1001 -0.0856 -0.2795
23735W        W66788   4.997  24.410  13.559  0.1514 -0.1029 -0.3224
23736W        W66789  25.311   9.036   9.936 -0.0171 -0.0077 -0.0780
23737W        W66790  26.522  11.742   5.233 -0.3078  0.0627 -0.0058
23738W        W66791   2.692  32.908   9.934 -0.0242  0.0837 -0.0115
23739W        W66792  32.169   2.001   0.942  0.2361 -0.1568 -0.2961
23740W        W66793  11.403  22.464  29.071  0.1646  0.0355  0.0894
23741W        W66794   9.134  16.945  17.383  0.0530 -0.1981 -0.0376
23742W        W66795   4.264  19.561  22.007  0.0609  0.0761  0.1545
23743W        W66796  31.696  14.734  20.024  0.0778  0.1270  0.0244
23744W        W66797   6.133   2.429  21.241 -0.0200  0.1140  0.3010
23745W        W66798   4.190   0.437   3.789  0.2790  0.0366 -0.0343
23746W        W66799   7.572  22.445  23.245 -0.3180  0.3354  0.0248
23747W        W66800  14.753   4.250  23.322  0.1670 -0.4375 -0.1272
23748W        W66801  30.694   7.432  20.573  0.2669  0.3121 -0.1970
23749W        W66802  34.276  12.119  16.419 -0.2649 -0.2177  0.0274
23750W        W66803  33.116  15.179  19.618 -0.1942  0.2425 -0.2079
23751W        W66804   1.328   7.351  23.593 -0.1552  0.0247  0.2551
23752W        W66805  27.669   7.463  21.036 -0.3151  0.1616 -0.0729
23753W        W66806  28.553   0.538  18.608 -0.0408 -0.3633  0.1708
23754W        W66807  13.354  15.258  23.656  0.0652 -0.0567  0.2184
23755W        W66808   8.482  27.143   0.676 -0.0576 -0.1716  0.1489
23756W        W66809  13.010  20.312  14.253  0.2115  0.0099  0.1619
23757W        W66810   0.038  20.062   8.470  0.4230 -0.0491 -0.3439
23758W        W66811   7.130  30.604  18.967 -0.0905  0.0744  0.2393
23759W        W66812  10.150  18.373  14.127 -0.0660 -0.2006  0.1060
23760W        W66813  13.502  31.454   6.846 -0.4027 -0.1833 -0.0922
23761W        W66814   6.342   6.333  17.720 -0.1645 -0.2723  0.0165
23762W        W66815   4.213  28.434  18.440 -0.2677 -0.0883  0.0991
23763W        W66816  12.289  13.272  16.061  0.0786 -0.0233  0.0897
23764W        W66817  17.551  20.370  24.427 -0.2603  0.0688 -0.1855
23765W        W66818   4.078  31.713  17.482 -0.1297 -0.0636  0.2460
23766W        W66819   5.138  30.940  23.610 -0.1715  0.1875  0.2239
23767W        W66820   5.120  13.690  23.701 -0.1625 -0.1708  0.2434
23768W        W66821  14.014  27.498   7.390 -0.0764 -0.1785  0.1854
23769W        W66822  24.283  14.517  18.882  0.0833  0.1901 -0.2359
23770W        W66823   2.434  11.709  15.079 -0.4691  0.0712  0.0222
23771W        W66824   5.076  28.911  22.253  0.3550  0.2776  0.0158
23772W        W66825   9.311  12.126  18.907  0.0195 -0.0728 -0.0473
23773W        W66826  28.547  20.828  24.468 -0.1199 -0.1176  0.3709
23774W        W66827   9.859  34.678  28.051 -0.1424  0.0539 -0.1305
23775W        W66828  19.197   7.699  15.990  0.2186  0.0901 -0.1306
23776W        W66829  15.631  14.846  15.239 -0.0491  0.0429 -0.1359
23777W        W66830   4.579  10.116   4.127 -0.2386  0.2180  0.0506
23778W        W66831  19.586  12.637  18.307 -0.1798  0.0324  0.3356
23779W        W66832   1.272  12.652  26.914  0.0135 -0.1132  0.1383
23780W        W66833   8.350  18.383  14.102  0.4556  0.0169 -0.2852
23781W        W66834   3.056  23.772  13.740  0.0706  0.1238 -0.3570
23782W        W66835  34.139  16.158   4.649  0.1037 -0.1664 -0.0636
23783W        W66836  31.543  21.924  14.334  0.0094  0.3144  0.1790
23784W        W66837   8.430   0.885  14.785 -0.0625 -0.1687  0.1206
23785W        W66838  10.398   6.219   0.954  0.2857  0.1368  0.1554
23786W        W66839  34.035  13.985  19.076  0.2054 -0.1176  0.0950
23787W        W66840  16.903  12.303  14.529 -0.2103 -0.0934  0.2219
23788W        W66841  16.714  18.397  15.054  0.1238  0.3118 -0.0287
23789W        W66842   4.173  19.337  19.035  0.4830 -0.1025  0.1152
23790W        W66843  34.149   9.115  18.341 -0.0228 -0.0364  0.1941
23791W        W66844   7.248   5.064  17.090 -0.0069  0.0851  0.0760
23792W        W66845   9.178  20.353  13.514  0.1744 -0.1090 -0.0858
23793W        W66846   3.968   2.849  14.612 -0.2549  0.0538  0.1407
23794W        W66847   5.852  34.539  13.987 -0.0705  0.0032  0.2300
23795W        W66848  14.768  30.986   5.595  0.5320  0.2409 -0.1912
23796W        W66849   0.687  19.085  22.662 -0.0764 -0.2551  0.1259
23797W        W66850  10.579   8.746  20.440 -0.0563  0.0032  0.0315
23798W        W66851   6.568   8.188   9.021 -0.0657  0.2808  0.1252
23799W        W66852   9.220  10.227  20.070 -0.0566 -0.1387 -0.0838
23800W        W66853  23.883  21.900  27.294 -0.0062 -0.1865 -0.0613
23801W        W66854  10.245  13.235  27.633 -0.1675 -0.0827  0.1820
23802W        W66855   1.844   4.019  18.666  0.0074 -0.0337 -0.1792
23803W        W66856  34.352   5.299  20.076  0.2296  0.0451 -0.0638
23804W        W66857  33.869  31.232  15.355  0.0345  0.0160 -0.1630
23805W        W66858  25.134  19.830  18.276 -0.4247  0.0179  0.1209
23806W        W66859  13.738  12.711  24.552 -0.1535 -0.2032 -0.4394
23807W        W66860   9.002   4.348  28.512  0.0204  0.1082 -0.0124
23808W        W66861   3.928  21.430  16.187  0.0168 -0.1798  0.2820
23809W        W66862  22.949  10.085  19.097 -0.0850  0.1154  0.0655
23810W        W66863   4.659   5.681  24.092 -0.4463 -0.1641 -0.0074
23811W        W66864  33.393   4.337  15.687  0.0806 -0.2023  0.0776
23812W        W66865   7.511  15.234  22.148  0.2533 -0.1244  0.0022
23813W        W66866   8.338  16.720  14.453  0.1108 -0.0063 -0.0735
23814W        W66867   2.028  29.221  15.048 -0.3746 -0.1811  0.3799
23815W        W66868   0.281  12.443  20.994 -0.1438 -0.2027  0.1520
23816W        W66869  12.573  13.969  20.017  0.3154  0.1127  0.1823
23817W        W66870  13.471   2.177  24.680  0.0516 -0.1518 -0.3298
23818W        W66871  32.945  24.255  14.723 -0.1903 -0.0265 -0.0436
23819W        W66872   9.323  11.054  20.549  0.0249 -0.0557 -0.1621
23820W        W66873  27.847  26.372   2.463 -0.1148 -0.0082  0.1089
23821W        W66874  26.361   6.493  15.108 -0.1651 -0.1191  0.0621
23822W        W66875  12.215  12.856  26.207 -0.0967 -0.1026  0.0116
23823W        W66876  10.090   2.190   7.270 -0.0293  0.1007  0.1080
23824W        W66877   2.999  28.020  14.702  0.0377  0.1529  0.0239
23825W        W66878   8.508  21.508  15.831 -0.1682  0.1389  0.1072
23826W        W66879  22.940   4.801  23.485  0.0516 -0.2364  0.1551
23827W        W66880  30.262  17.152   3.439 -0.1471 -0.0728 -0.0314
23828W        W66881  30.717   8.237  20.080 -0.0835  0.0754 -0.2821
23829W        W66882   5.062  20.142  21.058 -0.0307 -0.1696 -0.0556
23830W        W66883   2.715  10.885  22.455 -0.3317  0.0768  0.2368
23831W        W66884  31.929  28.847  13.893 -0.0712  0.1097  0.0789
23832W        W66885   3.045  21.250  13.852  0.2002  0.0861 -0.0391
23833W        W66886  17.862   1.570  17.524 -0.1367  0.1274 -0.1187
23834W        W66887  31.080   3.887  17.101  0.2203  0.3764  0.2029
23835W        W66888  13.604  13.497  28.927  0.0727 -0.0200 -0.3225
23836W        W66889  14.423   9.979   0.801 -0.1252 -0.1464  0.1294
23837W        W66890  29.807   6.703  25.811 -0.0715 -0.2791 -0.1491
23838W        W66891   4.954   5.635  22.914 -0.0515 -0.1632  0.3001
23839W        W66892   0.424   4.952  27.268 -0.1057 -0.0205  0.1141
23840W        W66893  26.092   1.721  21.795  0.1708  0.1562 -0.0664
23841W        W66894  23.810   6.462  26.033 -0.2159  0.2691 -0.2193
23842W        W66895  31.430  13.771  24.771  0.0248  0.0022  0.0453
23843W        W66896  12.521  18.864  17.221  0.3493  0.2275  0.1979
23844W        W66897  10.059   9.920  21.408 -0.2369  0.2802  0.0444
23845W        W66898  31.947  25.275  25.834  0.0160  0.0861 -0.0486
23846W        W66899   7.928   9.123  16.946 -0.1085 -0.2345 -0.1538
23847W        W66900   3.689  26.276   4.271 -0.1240 -0.2271  0.1673
23848W        W66901  10.082   4.348  26.900  0.2867 -0.1665 -0.1601
23849W        W66902   6.065  20.237  16.545 -0.1257  0.1531 -0.0757
23850W        W66903   1.960   9.370  20.267 -0.0553  0.0178 -0.0399
23851W        W66904   9.328  31.106  17.529 -0.0016 -0.0747  0.1087
23852W        W66905   3.339  31.609   3.272  0.0226 -0.1208 -0.5396
23853W        W66906   5.750  13.741  24.952 -0.1715  0.0551 -0.2594
23854W        W66907   8.181  12.897  16.323  0.0071  0.1058  0.0847
23855W        W66908  17.466   6.724  25.441  0.0830 -0.0519  0.0170
23856W        W66909   7.650   5.400  18.778 -0.0150 -0.0749  0.0787
23857W        W66910   3.243  34.681  25.670 -0.0543  0.2999  0.5436
23858W        W66911   5.715  29.600  21.426  0.0507 -0.2789  0.1544
23859W        W66912  10.068  22.429  14.961 -0.1086  0.1540  0.0412
23860W        W66913  25.965  25.765  15.251 -0.0807 -0.1357 -0.0762
23861W        W66914   9.594  34.488  14.103  0.0444  0.0702  0.0842
23862W        W66915  30.706  23.033  16.862 -0.3158  0.3027 -0.1643
23863W        W66916  30.614   9.097  25.333  0.2352  0.1488 -0.0653
23864W        W66917  12.282   4.275  14.927 -0.2024 -0.0968 -0.1898
23865W        W66918  22.626   0.703  20.246  0.1302  0.2566  0.2854
23866W        W66919  27.200  10.254  16.911 -0.2062 -0.2231 -0.0953
23867W        W66920  30.976   7.165  21.516  0.0393 -0.3294  0.1730
23868W        W66921   9.834   6.988  15.266 -0.0541  0.0839 -0.3285
23869W        W66922   3.830  27.874  13.046  0.4847  0.0834  0.0642
23870W        W66923   3.757  18.631  20.054  0.2274  0.4166 -0.0993
23871W        W66924  30.021   7.683  21.413 -0.1719  0.3124  0.1279
23872W        W66925  16.341   6.990  20.277 -0.0080 -0.0656  0.1095
23873W        W66926   3.550  16.187  22.819  0.1145 -0.0134 -0.0479
23874W        W66927   8.827  22.912  20.309  0.0610 -0.0746  0.0203
23875W        W66928   2.935  21.211  20.268  0.3227 -0.4241  0.0529
23876W        W66929   9.679   7.196  16.716  0.1431 -0.1854  0.0006
23877W        W66930  34.613   4.690  21.038  0.2018 -0.0770 -0.5016
23878W        W66931   9.131  22.800  15.923  0.0393 -0.0696  0.2171
23879W        W66932  14.214  15.726  24.279  0.2753  0.1752  0.1092
23880W        W66933  23.934  13.835  22.919 -0.0487 -0.0426 -0.1176
23881W        W66934  18.416  33.466  26.335 -0.0233 -0.0626 -0.0256
23882W        W66935  26.723   9.096  23.186 -0.3056  0.0324  0.3942
23883W        W66936   8.144  19.344   8.980  0.0713  0.0882  0.0290
23884W        W66937  20.194  14.557  20.937  0.0257 -0.1652  0.1541
23885W        W66938  10.195  17.935  19.410 -0.2642 -0.2341 -0.2454
23886W        W66939  32.003   5.738  19.823  0.2667  0.0274 -0.0750
23887W        W66940  14.210  21.270   7.042 -0.2349 -0.0244 -0.1558
23888W        W66941  33.711  20.231  24.185 -0.0202 -0.0240 -0.2159
23889W        W66942  22.960  19.446  25.914 -0.3126 -0.1251 -0.0073
23890W        W66943  16.291   7.036  24.924  0.1848 -0.2287 -0.0976
23891W        W66944  23.242  11.784  14.931  0.0479 -0.0513 -0.0672
23892W        W66945  27.990  34.413  14.917 -0.0904 -0.1513 -0.0818
23893W        W66946  33.330  13.014  19.547 -0.1129 -0.2569 -0.0770
23894W        W66947  12.001   1.547  16.881  0.3092  0.0329  0.1188
23895W        W66948  13.141   9.260  18.960  0.1283 -0.0121  0.2377
23896W        W66949  31.552  16.240  17.504 -0.0752  0.2989  0.2324
23897W        W66950  11.572   6.668  17.922  0.1356 -0.1888  0.2265
23898W        W66951   4.713  21.665  20.611  0.0025 -0.1695  0.4804
23899W        W66952  15.720   6.330  16.033  0.0745 -0.2746  0.0502
23900W        W66953   9.884   8.545  26.679  0.1268 -0.1338  0.0246
23901W        W66954   7.734  16.261  16.145  0.1395 -0.1022 -0.1815
23902W        W66955   1.107   9.517  20.416  0.0513 -0.0941 -0.2541
23903W        W66956  12.611   2.824  15.144 -0.2163 -0.3731 -0.1466
23904W        W66957  16.050  22.044  21.455 -0.0431  0.1958  0.2046
23905W        W66958   3.976  11.186  25.109 -0.1717  0.3939  0.2106
23906W        W66959  31.251   6.589   2.717  0.0622  0.0067  0.3016
23907W        W66960  13.216   9.038  20.199  0.1646  0.1765  0.2253
23908W        W66961   4.578  15.935  20.557  0.1833 -0.1066  0.3244
23909W        W66962  11.959   8.338  23.597  0.3198 -0.0794  0.1481
23910W        W66963  33.716   7.457  14.165  0.1080  0.1375  0.0212
23911W        W66964   4.390   5.356  15.253  0.1545 -0.0781 -0.0473
23912W        W66965   3.225   0.231  14.688  0.3960 -0.1559 -0.3574
23913W        W66966  34.649  15.045  17.406 -0.2560 -0.0544 -0.0468
23914W        W66967   9.183  11.818  28.694  0.1606  0.0510  0.2328
23915W        W66968  14.320  33.643  24.165 -0.1102  0.1522 -0.0181
23916W        W66969   5.276  17.535  26.717 -0.1969 -0.0519 -0.2645
23917W        W66970  30.203  29.894  21.439  0.0497  0.1890 -0.4152
23918W        W66971  16.856   6.679  11.273 -0.0291  0.1994 -0.1525
23919W        W66972   8.735  34.387   5.385 -0.0333  0.0723  0.1198
23920W        W66973  10.623   6.641   5.368  0.0107 -0.1869  0.0815
23921W        W66974  29.955  19.829   0.093  0.0324  0.0106 -0.1976
23922W        W66975  10.770   7.887  21.377  0.0103  0.1576  0.0664
23923W        W66976   8.437   4.433  16.824 -0.0952  0.0767 -0.0843
23924W        W66977   0.502  31.925  27.780  0.0459 -0.0013  0.0475
23925W        W66978  19.123  21.012   1.202  0.1655  0.2580  0.1811
23926W        W66979   0.912  14.905   1.649 -0.4401  0.2193  0.2338
23927W        W66980  28.788   1.825   1.587  0.0496 -0.0997  0.0818
23928W        W66981  17.852   8.540  21.110 -0.1343  0.5589 -0.0225
23929W        W66982  33.254   0.635  14.035  0.1159 -0.0476  0.0366
23930W        W66983   6.717  11.421  15.981  0.1334 -0.0566  0.1099
23931W        W66984   7.567   3.344  29.159  0.0144  0.0458 -0.0168
23932W        W66985  30.409   0.707  16.079 -0.0771  0.0402  0.0744
23933W        W66986  33.842  33.499   3.944  0.0632  0.0638 -0.4467
23934W        W66987  14.630  32.032   3.994  0.2448  0.1594 -0.1562
23935W        W66988   5.204  23.561  17.558  0.2712  0.1620 -0.2120
23936W        W66989   4.464  17.283   8.506  0.1236  0.3179  0.0369
23937W        W66990  14.445  27.170  19.267 -0.1410  0.0847  0.0550
23938W        W66991  16.508   5.739  17.147 -0.0308  0.0367  0.0586
23939W        W66992  11.997   5.285   7.002  0.0566 -0.0552  0.1120
23940W        W66993  12.559  10.027  27.020 -0.2359 -0.1270 -0.4672
23941W        W66994   4.317  11.330  14.062  0.1318  0.0325 -0.0925
23942W        W66995   6.249  20.105  26.903 -0.1646 -0.4069 -0.0233
23943W        W66996  30.270   8.289  27.787 -0.3334  0.3449 -0.0610
23944W        W66997  27.119  12.233  17.366  0.0860 -0.1294 -0.2074
23945W        W66998  28.323  21.906  19.168 -0.1096 -0.0642  0.1810
23946W        W66999  27.345   7.165  26.094 -0.2835 -0.0920  0.0528
23947W        W67000   9.246  27.644  27.881  0.0368 -0.1550  0.0756
23948W        W67001  33.754  15.907  22.037  0.2976  0.1813  0.0934
23949W        W67002   1.905   6.147  16.946  0.0626  0.0973  0.2109
23950W        W67003  10.764  25.097  21.562 -0.4152  0.0289 -0.1904
23951W        W67004  11.435   6.250  16.011  0.0931  0.1131  0.1549
23952W        W67005   2.435   8.330   3.479 -0.0024 -0.3027 -0.1329
23953W        W67006   4.136   3.323   1.188 -0.1119 -0.1277 -0.3944
23954W        W67007  30.924  19.299  19.373  0.2039 -0.3081  0.2184
23955W        W67008   9.348  11.151  16.146  0.0658  0.0527 -0.3111
23956W        W67009   6.160  33.032  20.890 -0.1802 -0.4126 -0.0548
23957W        W67010   7.778   9.897   0.981 -0.2562 -0.0823  0.2913
23958W        W67011  14.508  30.105  15.005  0.0065  0.2312  0.3062
23959W        W67012  25.949  10.519  21.657 -0.2532  0.0136 -0.1006
23960W        W67013  26.340  11.180   7.355 -0.0995  0.2306  0.0846
23961W        W67014  18.058  13.702   8.875  0.3815  0.0159 -0.0212
23962W        W67015   0.285  14.218  21.097  0.3581 -0.3124  0.0464
23963W        W67016  23.839  10.805  20.602  0.0840 -0.1595 -0.0663
23964W        W67017  15.147   6.010  15.163  0.0116  0.2999  0.2068
23965W        W67018  12.726   6.602  17.571 -0.3740  0.0797  0.2438
23966W        W67019   0.002  15.845  14.924 -0.4955 -0.0441  0.2005
23967W        W67020   1.303   4.200  15.006 -0.3495  0.0055  0.1371
23968W        W67021  30.734   8.241   1.457 -0.1549  0.0987  0.1790
23969W        W67022  17.110  15.967  24.180  0.2947  0.0808  0.1796
23970W        W67023   8.719  25.363  16.106  0.2950  0.1288  0.1024
23971W        W67024   7.618   9.845   0.475 -0.0614  0.0672  0.3413
23972W        W67025  21.673  20.839  17.050  0.1408 -0.1438  0.0768
23973W        W67026   4.565  16.311  28.300  0.1545  0.0238  0.2865
23974W        W67027  16.906   6.421  27.145  0.1540 -0.2277 -0.0075
23975W        W67028  26.489   6.838   9.055  0.0633 -0.1269  0.0602
23976W        W67029   2.773  31.231  25.337 -0.0434 -0.0391 -0.2314
23977W        W67030   3.797   3.590   1.620 -0.0209  0.3769 -0.1963
23978W        W67031  28.740   9.378  20.572  0.0269  0.1208 -0.0995
23979W        W67032  34.219  34.067  21.282 -0.0197 -0.1013  0.1877
23980W        W67033  15.764  14.606   2.586  0.2711  0.1132 -0.2192
23981W        W67034  10.665   3.871  22.123  0.1839 -0.0861  0.0479
23982W        W67035  31.456  12.692  16.555 -0.0811  0.1742 -0.0810
23983W        W67036  29.946  25.511   6.068  0.1488  0.1180  0.0158
23984W        W67037   2.026  14.095  24.231  0.2205 -0.4261  0.2808
23985W        W67038  30.575   4.604  13.757  0.1330  0.1509 -0.0646
23986W        W67039   3.073  18.757  21.542  0.0206  0.0387 -0.1294
23987W        W67040  11.699   1.525  20.660 -0.1001  0.2718  0.0422
23988W        W67041  14.176  29.739   0.452 -0.0787  0.1344 -0.2789
23989W        W67042   6.599  11.012  25.105 -0.4489 -0.0374 -0.2136
23990W        W67043   9.523  16.962   1.092 -0.3572 -0.0661 -0.0964
23991W        W67044  28.616  16.374   0.443 -0.0780  0.1214 -0.2273
23992W        W67045   7.543   8.043  16.118 -0.2876 -0.0621  0.1188
23993W        W67046  31.341  15.167  17.572  0.2201  0.2713 -0.1165
23994W        W67047  15.462  15.237  14.043  0.0041 -0.1090 -0.3453
23995W        W67048   9.490   7.898  18.850 -0.0110 -0.1263 -0.0237
23996W        W67049  25.422  18.302  19.790  0.2636 -0.0779 -0.1061
23997W        W67050  12.818   6.404  28.809  0.0496  0.1654  0.1187
23998W        W67051  11.468  10.541  29.180 -0.0568 -0.3185  0.4369
23999W        W67052   4.263  16.421   0.836 -0.0982  0.1459 -0.1888
24000W        W67053   9.666  16.256  14.464 -0.1836 -0.0179 -0.0025
24001W        W67054  12.783   7.476   3.762 -0.1776 -0.2134  0.1684
24002W        W67055   5.530   4.445  16.182 -0.0442 -0.2016 -0.1505
24003W        W67056   8.083  11.754  19.805 -0.1526 -0.2102 -0.0893
24004W        W67057   7.727  13.977   3.504  0.0014  0.1603 -0.3566
24005W        W67058  11.837  10.730   5.327 -0.0763  0.0841 -0.1382
24006W        W67059  16.777   6.369  17.508 -0.2999  0.2631  0.0198
24007W        W67060  31.011  21.918  19.324  0.2773  0.0013 -0.0778
24008W        W67061   3.517   6.106  27.187  0.1676  0.1358 -0.1774
24009W        W67062  14.424   1.980   0.583 -0.1951  0.0075  0.1995
24010W        W67063  33.601  11.523  19.945  0.3300 -0.0762  0.0021
24011W        W67064  15.568   8.960  19.557  0.0841 -0.0571  0.0026
24012W        W67065   9.004  30.692  17.369  0.0646  0.0146 -0.0708
24013W        W67066   3.509   2.877   4.632  0.0167  0.0242  0.0108
24014W        W67067  13.106   3.300  19.460  0.2588  0.1358  0.2495
24015W        W67068   3.980   5.746   6.608 -0.0077  0.2226  0.4128
24016W        W67069   2.441  17.588  23.325 -0.0764  0.0845  0.1661
24017W        W67070  19.032  22.022  16.319  0.3506  0.2689 -0.2627
24018W        W67071   6.166  13.616  19.795  0.3648  0.0356 -0.1711
24019W        W67072  18.187   4.177  24.242  0.0136  0.2113 -0.0862
24020W        W67073   6.285  10.477  23.966 -0.3209  0.0853  0.3342
24021W        W67074   6.781  10.598  26.529  0.0250 -0.0799  0.2165
24022W        W67075  32.943  16.648   0.625  0.3609  0.0157 -0.0088
24023W        W67076   8.193  31.207  26.319 -0.1628  0.0774  0.1375
24024W        W67077  32.634   2.048  18.767 -0.2298  0.1466  0.0017
24025W        W67078  23.045   7.476  21.658  0.1457  0.1244  0.1936
24026W        W67079   0.908  18.455   9.007 -0.3281  0.2568  0.1326
24027W        W67080   0.573   4.610  16.295 -0.1705  0.1770  0.1044
24028W        W67081   4.624   6.383  21.009  0.3925 -0.2299 -0.5416
24029W        W67082  17.085   8.947   1.650  0.0053 -0.1543  0.0945
24030W        W67083  15.811  13.640   3.763  0.0406 -0.0081 -0.2128
24031W        W67084   1.750  14.102  16.637  0.2796 -0.0428  0.1880
24032W        W67085  31.540  13.483  28.307 -0.2195  0.1749 -0.1570
24033W        W67086   6.488   8.949  24.388  0.2461  0.2173  0.0812
24034W        W67087   0.628  23.014  20.970 -0.0301  0.1517 -0.2206
24035W        W67088   3.384   1.036  22.720 -0.0834 -0.1527 -0.0952
24036W        W67089   8.094  13.034  17.018  0.3224 -0.0124  0.0440
24037W        W67090  22.664  14.576  18.303 -0.0524  0.0292  0.1268
24038W        W67091   6.402  16.392  20.157 -0.2958  0.1375 -0.1262
24039W        W67092   6.025  20.473  20.220  0.0437 -0.1700  0.0849
24040W        W67093   5.086   8.834  24.821 -0.0464 -0.2519  0.1120
24041W        W67094  31.607   1.145  24.027 -0.1046  0.0605 -0.0865
24042W        W67095   0.838  13.251  17.554 -0.0631 -0.1739  0.0765
24043W        W67096  22.421   9.429  19.379  0.0408 -0.1679 -0.1420
24044W        W67097  26.003  15.553  27.751  0.1286  0.0553  0.1727
24045W        W67098  11.710   5.909   8.851 -0.0009 -0.3983 -0.0010
24046W        W67099   2.105  19.985  15.824  0.0354  0.0716 -0.0545
24047W        W67100  13.293   4.076  23.194  0.3556  0.2404  0.3745
24048W        W67101   6.600  12.348   2.749 -0.0954  0.3084  0.0776
24049W        W67102  18.894   5.471   6.520 -0.2657 -0.0374  0.2511
24050W        W67103  16.573   2.176  16.774 -0.0455  0.2669  0.3890
24051W        W67104  15.153  13.797   2.756 -0.1792  0.1501 -0.3165
24052W        W67105   4.397   4.720  18.399 -0.2569 -0.0512  0.1216
24053W        W67106  10.669  20.407   6.792 -0.0709  0.0933 -0.3001
24054W        W67107  32.044   7.904  19.875 -0.2672 -0.1505  0.1042
24055W        W67108   9.087   3.663  15.988  0.3907 -0.0318 -0.1746
24056W        W67109  24.679   2.878  20.172 -0.2485 -0.1555 -0.2953
24057W        W67110  34.359  11.189  27.109 -0.2568 -0.2129  0.0603
24058W        W67111  19.529  17.546  24.289 -0.2105  0.4247 -0.0636
24059W        W67112  11.577   9.702   2.838 -0.1571 -0.0995  0.3493
24060W        W67113  13.802  12.991  18.744  0.1460 -0.0336  0.1760
24061W        W67114  31.501  27.880  22.210 -0.0557  0.1998 -0.0242
24062W        W67115   9.447   3.543  20.881 -0.0496 -0.3381 -0.1614
24063W        W67116   3.525   6.149  28.738 -0.2165  0.1363  0.0800
24064W        W67117  24.965   2.176  23.966 -0.3616  0.1112  0.2512
24065W        W67118   1.952  19.311  17.229 -0.4889  0.2935 -0.1036
24066W        W67119  18.808   2.044  21.683  0.1524  0.1298  0.1548
24067W        W67120  10.660  16.819   5.651 -0.0108 -0.0565  0.1099
24068W        W67121  14.944  10.515  21.081 -0.1756  0.2078 -0.0477
24069W        W67122  14.076   3.549  15.413 -0.1042  0.0501  0.0015
24070W        W67123  15.216   6.487  20.694 -0.0353  0.1650 -0.1864
24071W        W67124  26.007  28.076   3.653 -0.2328  0.2591 -0.1596
24072W        W67125  28.160   8.481   4.832 -0.1125  0.3648  0.2055
24073W        W67126   4.418  14.796   7.629 -0.3014  0.4036 -0.2303
24074W        W67127   8.235   9.782  18.708  0.1199  0.0376  0.2138
24075W        W67128  11.449  10.422  24.796  0.1238  0.0540  0.2339
24076W        W67129  31.136  28.634  19.782  0.1469  0.1418  0.1142
24077W        W67130  31.221  31.936  13.535 -0.2768 -0.1482 -0.1123
24078W        W67131   1.697  13.322  15.734  0.1137  0.0683 -0.2019
24079W        W67132   9.099   6.020  20.274 -0.0786 -0.0434  0.0907
24080W        W67133   7.317   1.381  18.040 -0.2443 -0.0985  0.2591
24081W        W67134  13.363   9.186  16.119 -0.1902 -0.2097 -0.0350
24082W        W67135  23.307  31.787  15.838  0.1524 -0.0352  0.2380
24083W        W67136  34.284  11.341   4.177 -0.0716  0.0573  0.0445
24084W        W67137   6.285  19.824  17.874  0.0814 -0.1848  0.0339
24085W        W67138  10.892  33.927  17.596  0.2448  0.1915 -0.1667
24086W        W67139  29.345  10.604  16.844 -0.0408 -0.1216  0.0253
24087W        W67140  15.648   8.325  17.905  0.2147 -0.0662  0.2289
24088W        W67141   3.189  28.294  21.116 -0.0116  0.1171  0.0908
24089W        W67142   4.047   5.017  16.140 -0.1093 -0.1679 -0.3428
24090W        W67143  11.575  12.139  20.725 -0.1376  0.1626  0.0138
24091W        W67144  12.653   3.853  18.685  0.3491 -0.1379 -0.0372
24092W        W67145  20.291   8.859   2.015  0.2890  0.0762 -0.0822
24093W        W67146  33.084  19.885   4.521 -0.0171  0.3336  0.0479
24094W        W67147   3.043  18.912  14.692 -0.4144 -0.2072 -0.0372
24095W        W67148   9.647  16.607  24.582  0.2181  0.0355 -0.1813
24096W        W67149  33.907  23.249   6.193 -0.4510  0.1579 -0.1378
24097W        W67150   8.328  15.283  20.527  0.3679  0.0186 -0.0034
24098W        W67151  24.064  27.158   5.379 -0.0801 -0.0039  0.0058
24099W        W67152  12.465  11.729  17.120  0.0828  0.0007  0.0489
24100W        W67153   2.080  14.529  28.473 -0.1952  0.0634  0.2202
24101W        W67154  10.170   9.357  19.567 -0.0736  0.0953 -0.2206
24102W        W67155  18.710  28.647   1.307 -0.0113  0.2451 -0.0099
24103W        W67156   8.393  12.331  21.029  0.0454 -0.1013  0.1857
24104W        W67157  17.244  14.759  27.480  0.2635  0.1209 -0.0202
24105W        W67158   2.169  30.990  14.260 -0.0621 -0.2463 -0.2811
24106W        W67159  25.439  14.936  22.790 -0.0479 -0.0182  0.3821
24107W        W67160  29.046  14.106  20.197  0.0165 -0.0417  0.0767
24108W        W67161   7.626   1.137  14.398  0.0058  0.1000  0.2134
24109W        W67162   9.832  21.053  21.263  0.2074 -0.0204 -0.0622
24110W        W67163   0.837  26.638   4.049 -0.1093  0.2033 -0.0415
24111W        W67164  31.515  32.984  22.073 -0.0244 -0.0435 -0.2997
24112W        W67165  14.709  34.249  20.437 -0.0854  0.2778  0.2125
24113W        W67166   6.725   0.308   0.990  0.1272 -0.0979  0.1138
24114W        W67167   7.746  10.769  23.046 -0.0985 -0.0106 -0.1716
24115W        W67168   2.623   2.086  26.013  0.0418 -0.2313 -0.0069
24116W        W67169   7.848  12.217  21.928  0.0015 -0.1109 -0.0223
24117W        W67170   6.911  14.129  16.227  0.0822  0.3416 -0.3110
24118W        W67171   7.289  12.776  17.218  0.1824 -0.2381 -0.2178
24119W        W67172   9.512   1.944   1.006 -0.4139 -0.1795 -0.0827
24120W        W67173  28.473  11.226  10.216  0.3264  0.1750  0.0752
24121W        W67174   8.994  14.935  15.709  0.0823 -0.0683 -0.0110
24122W        W67175   0.103  20.501  16.499  0.0266 -0.4612  0.0824
24123W        W67176  13.618   6.118  27.377  0.2200  0.0876  0.2832
24124W        W67177   4.875   9.465  19.882  0.1666  0.1945  0.1886
24125W        W67178  32.760   8.621  17.095  0.3482 -0.0385 -0.1105
24126W        W67179   0.911   4.095  18.744 -0.1332 -0.0508  0.1553
24127W        W67180   1.045  14.121   8.481  0.2083 -0.2273 -0.0511
24128W        W67181  28.176   1.297  27.668  0.1265  0.0158  0.0168
24129W        W67182  14.564  30.152  14.479  0.2478 -0.0834  0.1648
24130W        W67183  20.486  15.499  27.885 -0.2695 -0.1052  0.2611
24131W        W67184  25.275   3.341  14.345 -0.0108 -0.0610 -0.2413
24132W        W67185   4.775   2.248   6.688  0.1744 -0.0196 -0.1041
24133W        W67186  14.004   2.697  20.935  0.1112 -0.1161 -0.0970
24134W        W67187   6.649  16.876  17.998 -0.1927  0.0808 -0.2644
24135W        W67188  34.182  18.088  18.021  0.0698  0.1342  0.1487
24136W        W67189  31.213  14.199  17.433  0.0219 -0.1829 -0.1307
24137W        W67190  14.301   3.393  23.441  0.2233 -0.2398  0.3070
24138W        W67191  16.601   8.954  19.922 -0.5889  0.2240 -0.2446
24139W        W67192  10.779  21.947  27.150  0.1726  0.1423  0.1333
24140W        W67193  10.894  11.136  15.529 -0.1988  0.1024  0.2137
24141W        W67194   4.189  10.975  22.252  0.1682  0.3196 -0.2665
24142W        W67195  16.689   1.792  24.623  0.0924 -0.3652 -0.0179
24143W        W67196  19.212  11.555  19.182 -0.3569  0.1682 -0.1098
24144W        W67197   4.526  13.932  26.114 -0.2049  0.0899 -0.0411
24145W        W67198  33.998  24.501  16.909 -0.3330 -0.2629 -0.2534
24146W        W67199   4.570   8.673  26.841  0.0977 -0.0020  0.2022
24147W        W67200   4.688   8.619  18.070  0.0510  0.0112  0.4588
24148W        W67201   7.563  13.381  24.195  0.1395  0.0617  0.2829
24149W        W67202  33.693   6.274  14.871  0.1068 -0.0528 -0.0436
24150W        W67203  28.624   5.566  23.363  0.0782  0.4379 -0.2374
24151W        W67204   4.674   3.233  25.276 -0.0237 -0.0810 -0.1766
24152W        W67205   5.060   2.576  13.675 -0.1987  0.0948 -0.2054
24153W        W67206   6.004   7.093   6.343  0.1519  0.1913 -0.0972
24154W        W67207   6.340  15.918  17.302 -0.0667 -0.3057 -0.1220
24155W        W67208  24.939   8.749  23.319 -0.1758  0.0235  0.0311
24156W        W67209  24.824  33.572  17.950 -0.1003  0.0432  0.2116
24157W        W67210  28.561   6.482  20.586  0.1293 -0.1738  0.2560
24158W        W67211  31.189   5.157  17.228 -0.4263 -0.1951 -0.0570
24159W        W67212   9.806  19.154   5.442  0.1468  0.0403  0.0077
24160W        W67213  34.409  13.216   2.334  0.0762  0.1899 -0.0579
24161W        W67214  15.180  29.005  17.038 -0.1885 -0.5287 -0.0047
24162W        W67215  26.736  33.934  18.422 -0.1459  0.1631  0.0727
24163W        W67216   7.635  28.500  18.816 -0.2584 -0.1938 -0.0058
24164W        W67217   7.507  22.698   0.863 -0.1631  0.2355  0.1791
24165W        W67218  13.911   5.126  18.503  0.0224  0.0948  0.0874
24166W        W67219  14.833   9.994  19.528 -0.0197  0.1077  0.0270
24167W        W67220   0.812  23.265  10.108  0.0891 -0.0182 -0.2718
24168W        W67221   1.762  18.882  14.200 -0.0614 -0.2300 -0.0118
24169W        W67222   2.241  28.495   1.634  0.2667  0.2363 -0.0236
24170W        W67223   8.723  17.465  29.130  0.1322 -0.2564 -0.1796
24171W        W67224  13.603  26.712   5.106 -0.0572  0.1977  0.1722
24172W        W67225  21.761   7.037  22.099  0.0616 -0.0590  0.1921
24173W        W67226   5.811   5.441  17.396  0.0999  0.0024  0.1693
24174W        W67227   9.137   2.870  17.176 -0.0360 -0.1686  0.1877
24175W        W67228  30.189  29.302  20.692  0.0783  0.0262  0.2073
24176W        W67229  28.425  10.883  25.209  0.1190 -0.1032 -0.2356
24177W        W67230  32.653  21.221  10.224  0.0623 -0.1599  0.0814
24178W        W67231   5.857  18.852   9.188  0.0255 -0.2131  0.2108
24179W        W67232  31.619  12.224   1.167 -0.0837  0.0644  0.4092
24180W        W67233  31.871   3.521  14.219 -0.3466  0.0319  0.0676
24181W        W67234  31.774   1.703   4.035 -0.1481  0.2555 -0.2075
24182W        W67235  29.523  25.331  21.591  0.3089 -0.4181 -0.2246
24183W        W67236  29.957  19.090   9.360 -0.0098  0.1776 -0.3610
24184W        W67237   6.857  12.366  14.081  0.0851  0.0149 -0.1404
24185W        W67238  24.267  11.432  18.173 -0.1625  0.1241  0.1066
24186W        W67239   3.247   5.656  14.673  0.2437 -0.0873 -0.0291
24187W        W67240   9.985  14.263  16.904  0.1049 -0.0362 -0.1259
24188W        W67241  34.678  22.454  22.336  0.2296 -0.0264 -0.0506
24189W        W67242   9.991   5.300  17.144 -0.0257 -0.0811  0.0067
24190W        W67243   5.094   0.546  20.512 -0.3066 -0.0326  0.0617
24191W        W67244  31.468  26.492  14.689  0.1396 -0.4887 -0.1397
24192W        W67245  33.261  10.315  19.072 -0.1898  0.0162 -0.0751
24193W        W67246   9.617   9.696  25.943 -0.0334 -0.0591 -0.3941
24194W        W67247  25.594  27.707  18.528  0.2210  0.0103 -0.2979
24195W        W67248  13.018   8.068  18.892  0.3100  0.1959 -0.1314
24196W        W67249  34.455  32.415  28.745 -0.1387 -0.1746  0.1984
24197W        W67250   8.522  14.234  20.651  0.1707 -0.0522  0.1162
24198W        W67251  10.306   3.837   1.553 -0.3913 -0.1631  0.1267
24199W        W67252   2.467  13.336  20.654 -0.3014  0.1042 -0.2482
24200W        W67253   6.073   1.805  17.080 -0.0416  0.0136 -0.0351
24201W        W67254   6.659  19.036  23.720  0.0947 -0.0805  0.2232
24202W        W67255  19.638   0.021  14.822 -0.2516  0.0481 -0.0162
24203W        W67256  32.100  24.719  14.591  0.0570  0.0055 -0.2599
24204W        W67257   1.045  14.503  26.974 -0.0274 -0.0605 -0.0174
24205W        W67258   7.014   5.628  20.357 -0.2583 -0.2532 -0.3326
24206W        W67259   3.830   8.843   0.308 -0.0900 -0.0366  0.1761
24207W        W67260   7.159   9.505   4.612  0.2182 -0.2324 -0.2931
24208W        W67261  31.324  32.915  19.251  0.1803  0.0286  0.4880
24209W        W67262  10.690  21.599  16.204  0.0745  0.2279  0.0095
24210W        W67263   6.250  22.210  21.210 -0.0110 -0.2247  0.2638
24211W        W67264  27.745  10.776  16.099  0.2700  0.1868 -0.0644
24212W        W67265  27.133  18.379  27.337 -0.1659 -0.1803 -0.0812
24213W        W67266  29.314  22.730   4.140  0.0413  0.3125 -0.3839
24214W        W67267  14.568   5.819  21.062 -0.0786 -0.2576  0.1232
24215W        W67268   6.915   3.965  26.776 -0.4178 -0.1684  0.2108
24216W        W67269  16.538   3.650  20.307 -0.0379  0.2669 -0.1251
24217W        W67270   0.349  26.801  13.734 -0.3858  0.1758  0.1981
24218W        W67271  30.126  11.057  15.426 -0.2401  0.0823 -0.0614
24219W        W67272   6.454  12.474  28.523  0.4731  0.0746  0.0243
24220W        W67273  21.931   7.552   6.618 -0.3780 -0.2718  0.2464
24221W        W67274   7.803   3.489  18.959 -0.0807  0.0861 -0.1923
24222W        W67275  10.791   4.923  27.343  0.1074  0.2479 -0.1149
24223W        W67276  29.812  19.432  17.727  0.3792 -0.2357  0.1311
24224W        W67277  33.843   4.069  20.063 -0.0572 -0.1288  0.0643
24225W        W67278  28.028   5.346  28.078 -0.0585 -0.1993 -0.2081
24226W        W67279  13.042  15.653  23.798  0.2061  0.2469  0.1017
24227W        W67280   1.529  14.250  15.691  0.3007 -0.4073  0.0987
24228W        W67281   9.386  32.542  20.467  0.2431  0.1594  0.2289
24229W        W67282  14.204  14.523  20.210  0.2078 -0.0507  0.0953
24230W        W67283  16.660  33.950  25.961  0.1938  0.0726 -0.1630
24231W        W67284  30.045  33.149   5.777 -0.0234  0.1735 -0.0565
24232W        W67285   2.255  21.144  14.830 -0.1843  0.2667 -0.1687
24233W        W67286  28.011  13.165  20.435 -0.0363 -0.0783  0.1799
24234W        W67287  17.782   6.683  27.980  0.0053  0.2405  0.1734
24235W        W67288  27.850  16.984  24.822  0.0615 -0.1130  0.1501
24236W        W67289   3.164  16.131  26.961 -0.1399  0.3067  0.0491
24237W        W67290   7.448   0.615   5.791  0.1121 -0.3900 -0.0293
24238W        W67291  32.030   2.546   7.794 -0.1673  0.0187  0.0312
24239W        W67292  17.912  11.410  29.119 -0.1928  0.1028  0.1503
24240W        W67293   7.918  22.475  14.323 -0.2421  0.3767  0.0552
24241W        W67294  30.430  15.218  27.826 -0.3816  0.2486 -0.2095
24242W        W67295  19.776   2.910   2.245 -0.0380  0.0661 -0.0536
24243W        W67296   4.486  34.250  27.038 -0.1059 -0.1160  0.1833
24244W        W67297   7.071   6.660   8.864 -0.1177 -0.2522 -0.0521
24245W        W67298  27.507  13.286  28.860 -0.0994  0.0033 -0.2398
24246W        W67299  18.415   4.978  22.175  0.0632  0.2263 -0.1391
24247W        W67300  10.926   3.912   6.521  0.2848 -0.3520  0.2472
24248W        W67301   8.272   3.706  23.978  0.4236 -0.1914  0.0839
24249W        W67302   1.388   5.156  21.259 -0.0195 -0.1772  0.2269
24250W        W67303   4.654  14.929   2.234 -0.0816  0.1730  0.2336
24251W        W67304   8.509  25.795  14.429 -0.0706 -0.1824 -0.1468
24252W        W67305  11.282   5.716   6.992 -0.3661 -0.0981  0.1937
24253W        W67306  29.859   7.028  16.882 -0.0253 -0.1359  0.1526
24254W        W67307   9.946  25.435  28.155  0.0692 -0.1555 -0.1176
24255W        W67308   2.537  19.994  26.462  0.0999  0.1188 -0.0909
24256W        W67309  13.256  21.897  28.462 -0.1236  0.0154 -0.1677
24257W        W67310  25.779  14.022  27.155  0.0185 -0.2051  0.3376
24258W        W67311  14.529   2.529  15.352  0.0807  0.0800  0.0953
24259W        W67312  14.194   0.457  24.284 -0.1274 -0.0753  0.1358
24260W        W67313  25.542  10.871  24.363  0.0865 -0.0716  0.4920
24261W        W67314   3.425  16.296   5.717  0.3313  0.0366 -0.1510
24262W        W67315   4.095  21.329  19.941  0.4937  0.1893 -0.1146
24263W        W67316  28.092  18.890  19.691  0.4165 -0.0296 -0.4212
24264W        W67317   9.519   3.976  17.713  0.0192 -0.4465  0.0292
24265W        W67318   8.422  18.623  17.738 -0.2463 -0.5855  0.3159
24266W        W67319  10.976   4.177  19.375 -0.0423  0.2115  0.2416
24267W        W67320  17.273   7.035  23.436  0.1689  0.0979  0.0317
24268W        W67321  20.688  32.988  18.593 -0.1991  0.0536 -0.2637
24269W        W67322  33.654  23.184   0.250 -0.1517  0.0716  0.0487
24270W        W67323   6.040  20.345  13.640  0.0171 -0.0248  0.0693
24271W        W67324  33.385  23.373  29.034 -0.1401 -0.1034  0.0172
24272W        W67325  34.240   1.465  18.955  0.0469  0.1412 -0.0310
24273W        W67326  30.483  19.450  24.056 -0.0806 -0.3717  0.2424
24274W        W67327   6.289   5.956  16.703  0.0457 -0.1281 -0.0135
24275W        W67328  10.421  34.087  19.729  0.1638  0.0246 -0.0771
24276W        W67329  16.686  31.616  18.374  0.0753 -0.1718 -0.3147
24277W        W67330  27.377  29.978  24.162  0.1325  0.0578 -0.2839
24278W        W67331  14.615  11.204   5.763 -0.1064 -0.0914 -0.0859
24279W        W67332  13.931   7.297  19.782 -0.1157  0.2508 -0.0724
24280W        W67333  30.313  15.079  22.204  0.0438 -0.1368  0.0036
24281W        W67334   0.112  29.758  15.768 -0.1210  0.1369  0.2299
24282W        W67335   1.307  26.679  19.815 -0.0502 -0.5794 -0.0631
24283W        W67336  32.314   1.654   4.633  0.2014  0.1264 -0.1589
24284W        W67337   7.306   2.429   0.750 -0.0344  0.0027 -0.1292
24285W        W67338  30.355   6.863   3.731  0.0571 -0.0218 -0.0426
24286W        W67339  14.752   8.637  23.175  0.1431  0.4559 -0.2007
24287W        W67340   1.155  29.280  16.970  0.3353  0.1288  0.2592
24288W        W67341  12.478  28.552  21.589 -0.1267  0.0390 -0.0151
24289W        W67342   5.275  10.207  26.359 -0.1528  0.0977 -0.0845
24290W        W67343  30.503  11.832  26.559 -0.1589  0.3282  0.2453
24291W        W67344   2.086   4.620  16.228 -0.0422  0.0370  0.0282
24292W        W67345  18.333   6.836  19.264 -0.0435  0.0690 -0.0558
24293W        W67346  31.694   7.269   2.745 -0.0896  0.0291  0.0620
24294W        W67347  33.049  29.190   4.032 -0.0554 -0.1391 -0.0932
24295W        W67348   2.949  16.648  22.149 -0.1064 -0.0144 -0.0353
24296W        W67349  14.755   8.420  26.347  0.0660  0.1322  0.2137
24297W        W67350   6.733   8.561  16.868 -0.1954 -0.2302 -0.4361
24298W        W67351   7.590   6.262   0.027 -0.0938  0.1199 -0.3001
24299W        W67352   3.876  26.902  13.748  0.0057 -0.0716 -0.1707
24300W        W67353   7.012  21.630  17.460 -0.0478  0.3386 -0.0438
24301W        W67354  11.139  15.103   1.368  0.0973 -0.2331  0.1139
24302W        W67355   0.854   6.636   0.422 -0.2342  0.1381  0.2792
24303W        W67356   2.141  11.228  21.153  0.0136  0.3024 -0.3643
24304W        W67357  11.906   8.565  27.892 -0.1607  0.2403 -0.1304
24305W        W67358   1.780   6.811  17.703 -0.2900 -0.2271 -0.0502
24306W        W67359   1.353   8.243  21.171  0.1017  0.2247  0.0482
24307W        W67360   3.930   2.679  20.419  0.2604  0.0410 -0.0217
24308W        W67361  13.493  16.108  26.752 -0.1140  0.1673 -0.0015
24309W        W67362  30.584  17.510   4.159 -0.1103 -0.1568 -0.1717
24310W        W67363   0.672  18.141   5.151 -0.0614 -0.1665  0.0644
24311W        W67364  17.866  14.814   4.644  0.1446 -0.0457 -0.1357
24312W        W67365   0.709  14.897  15.133 -0.0677  0.3290 -0.0526
24313W        W67366  28.058   0.948   9.099 -0.0247 -0.0227 -0.1486
24314W        W67367   5.772  31.932   3.887 -0.0336 -0.2056 -0.0519
24315W        W67368   4.183   0.743  26.636  0.0498 -0.2204 -0.2030
24316W        W67369  10.724  22.920  17.737  0.0218 -0.3320 -0.3042
24317W        W67370  19.646  33.823   0.874  0.1427  0.2919 -0.1269
24318W        W67371  33.947  31.086   5.369  0.0162 -0.4893  0.1434
24319W        W67372  25.064  12.185  13.716 -0.1933  0.0825  0.1077
24320W        W67373   9.752   8.317  21.713 -0.2066 -0.1942 -0.2830
24321W        W67374  19.962  32.385   1.844 -0.0224 -0.0598  0.1190
24322W        W67375   2.815  14.808  17.135 -0.4432  0.3158 -0.2524
24323W        W67376  31.758  10.487  21.778 -0.0943  0.0486 -0.0294
24324W        W67377  31.352   8.385  15.750 -0.1426 -0.1593  0.2415
24325W        W67378  29.689  10.685  22.251  0.0523  0.0474 -0.0729
24326W        W67379   7.284  13.728   2.428  0.1851 -0.0105  0.1260
24327W        W67380  17.447   0.654  25.688 -0.2846 -0.3286  0.1295
24328W        W67381   4.790  32.260  15.982 -0.0565  0.1482  0.0147
24329W        W67382   4.330  15.063  13.724 -0.0365 -0.1853 -0.0930
24330W        W67383   9.841  19.483  24.134  0.2868  0.4603 -0.1283
24331W        W67384  24.595   0.962  15.470  0.0053  0.1529  0.2693
24332W        W67385   4.656  11.770   4.255 -0.1687  0.0418 -0.1089
24333W        W67386  17.927   9.049  15.078 -0.0812 -0.0726 -0.0757
24334W        W67387   9.549   8.813   7.880 -0.0474 -0.0432  0.2856
24335W        W67388   7.274  34.185  14.783 -0.3917 -0.1531 -0.1654
24336W        W67389  18.352   4.698  26.149 -0.5357  0.0514  0.1660
24337W        W67390   1.994   2.495  18.883 -0.1859  0.2748 -0.1175
24338W        W67391   2.493   7.275  14.063  0.1062 -0.0160  0.2262
24339W        W67392  19.004   6.030   6.576 -0.3270 -0.0546 -0.1632
24340W        W67393  22.126   8.075  25.177  0.4620 -0.1608 -0.0420
24341W        W67394  28.566   8.304  26.780 -0.0661 -0.1115 -0.1157
24342W        W67395   3.599   5.002  19.767  0.4459 -0.2594 -0.0886
24343W        W67396   7.189  31.274  23.753 -0.1061 -0.0777  0.0163
24344W        W67397  21.092  18.175  20.820  0.1597  0.0398 -0.0935
24345W        W67398   7.207  11.685  24.944  0.0371 -0.2262 -0.1729
24346W        W67399  27.232  21.769  19.298 -0.0586  0.0792  0.1213
24347W        W67400   8.343   9.017  23.044  0.1948  0.1079  0.1080
24348W        W67401  25.122  29.785  16.338 -0.0093 -0.1446  0.0544
24349W        W67402   4.852  26.417  28.990  0.1819 -0.0850  0.1428
24350W        W67403  24.806  12.784   3.519  0.0198  0.1191  0.0080
24351W        W67404  13.204   3.054   5.365  0.1787 -0.1972 -0.1094
24352W        W67405  34.184   2.130   8.427  0.0666  0.0279 -0.0310
24353W        W67406   3.112  10.409  14.139  0.0452 -0.1581  0.0961
24354W        W67407  20.524  16.981  14.904 -0.0073  0.0307 -0.1085
24355W        W67408   2.493   9.483   7.561  0.0354 -0.2225 -0.0447
24356W        W67409   8.639  12.712  24.733 -0.0605  0.2566  0.0961
24357W        W67410  19.711   7.650  13.683  0.1899  0.2015  0.3210
24358W        W67411   9.750   2.826   9.896 -0.0958 -0.0946  0.1088
24359W        W67412  11.915   0.249  14.674 -0.2043  0.1011 -0.0233
24360W        W67413   0.088  28.884   2.502 -0.4721  0.4543 -0.2154
24361W        W67414  20.234   6.403  21.557  0.0400 -0.0692 -0.0683
24362W        W67415   6.169  21.376   1.643 -0.1221  0.1783 -0.0902
24363W        W67416  31.550  20.873   2.999  0.0190 -0.3025  0.2847
24364W        W67417  15.441   2.075  18.274 -0.0158 -0.0128 -0.1243
24365W        W67418   4.807  19.019  15.929  0.2375  0.0184 -0.0164
24366W        W67419  18.025   7.273   4.058 -0.2135  0.0089  0.0205
24367W        W67420  34.172   6.259   8.576 -0.0388 -0.1653  0.0638
24368W        W67421  32.573   4.923  26.173  0.0141 -0.1965  0.1758
24369W        W67422  21.719  19.541  24.321 -0.0660 -0.0238 -0.0673
24370W        W67423  34.067  21.675  14.417  0.0426  0.0502  0.1515
24371W        W67424   0.546  19.986  14.380  0.1484  0.1681 -0.1525
24372W        W67425   2.563  30.956   3.015 -0.0094  0.0582  0.2371
24373W        W67426  11.515  10.836  25.177 -0.1543 -0.0180 -0.1214
24374W        W67427   7.642   0.633  17.020 -0.1832  0.2567  0.1033
24375W        W67428   8.218  20.680  23.186 -0.4159  0.1543  0.2219
24376W        W67429  30.767  32.636  20.966 -0.1430  0.2032 -0.0280
24377W        W67430   5.678  19.526  23.603 -0.1869  0.1805 -0.1667
24378W        W67431   6.708   2.828  17.163 -0.0436  0.0181  0.2655
24379W        W67432  34.095  12.203   2.807 -0.3314 -0.1209 -0.0546
24380W        W67433   5.596  12.147  16.261  0.2256  0.2719 -0.1694
24381W        W67434  13.585  12.354   1.074 -0.1752  0.3420  0.0153
24382W        W67435  21.674   3.702  20.431 -0.0483 -0.0743  0.0235
24383W        W67436   2.496  16.780  15.478 -0.1579  0.2932  0.2732
24384W        W67437  14.720  33.289   0.196  0.0426 -0.0030 -0.1585
24385W        W67438  14.446  19.612  15.638  0.2492  0.0284 -0.0092
24386W        W67439  10.136   4.403  18.229 -0.0601 -0.0069 -0.1217
24387W        W67440   4.780  12.474  17.877 -0.1310 -0.2329 -0.1442
24388W        W67441  11.777   2.449  17.476 -0.1307 -0.0136  0.0448
24389W        W67442  12.888  18.126  18.272  0.1267 -0.0218 -0.1223
24390W        W67443  32.235   5.355  26.075  0.0065  0.1342 -0.1617
24391W        W67444  32.839  33.760  13.158 -0.1606  0.3616 -0.0124
24392W        W67445  16.119  11.112  20.050  0.1858  0.1176 -0.0726
24393W        W67446   9.386   9.534  15.900  0.2126 -0.2772 -0.0327
24394W        W67447   5.396  10.534  14.746 -0.1754 -0.1104 -0.1309
24395W        W67448   3.853  30.670  23.524  0.0878 -0.0427 -0.1083
24396W        W67449  18.184  13.886  22.927  0.0028  0.2950  0.5738
24397W        W67450  32.665   3.102  27.441  0.0417  0.3890  0.1026
24398W        W67451   3.547  17.671   2.017 -0.2551  0.2357 -0.0675
24399W        W67452   0.474   9.736  15.173  0.2348  0.1336  0.0426
24400W        W67453  32.334   2.810   2.446 -0.0233  0.3167 -0.0541
24401W        W67454  18.873  34.343  19.448  0.1807 -0.0921 -0.0626
24402W        W67455  22.066  25.356  21.302  0.1077 -0.1056 -0.3937
24403W        W67456   9.857   6.424   3.056  0.1451 -0.1091 -0.0284
24404W        W67457  17.998   5.107  22.407 -0.0819 -0.1276 -0.1327
24405W        W67458  17.568   2.334  22.562 -0.2401  0.0134  0.0317
24406W        W67459  11.747  11.469  25.911  0.0265 -0.1718 -0.3853
24407W        W67460   9.750  21.359  24.359 -0.1751 -0.2149 -0.2810
24408W        W67461  30.318   0.574  26.465  0.1294  0.0107 -0.0785
24409W        W67462   1.896  13.591   6.140 -0.4689  0.0499 -0.2809
24410W        W67463   1.261   5.269  27.598 -0.2145 -0.3600 -0.1032
24411W        W67464  22.427  31.500  15.736 -0.1731 -0.0280  0.1484
24412W        W67465  11.283  19.819   3.145 -0.1761  0.2017  0.0768
24413W        W67466  14.716  29.688   1.229  0.2308 -0.2271 -0.1614
24414W        W67467  11.526  13.050  18.901  0.1577  0.1538 -0.1002
24415W        W67468  30.758  12.670  18.866  0.0260  0.1891 -0.1615
24416W        W67469  25.749  11.418  27.485 -0.0327 -0.1939  0.0601
24417W        W67470  15.181  32.043  17.787  0.1476  0.2102  0.0962
24418W        W67471  12.347  17.574   6.268  0.2879  0.0126 -0.2844
24419W        W67472   1.652   7.453   7.782  0.2454  0.2324 -0.2495
24420W        W67473  16.978  17.214   9.183  0.0729 -0.2132  0.5141
24421W        W67474  21.147  34.628   8.788 -0.0746  0.0107 -0.1634
24422W        W67475  34.620   8.066  15.528  0.1723  0.0786  0.1284
24423W        W67476  11.615  12.580  19.842  0.0732  0.3252 -0.0652
24424W        W67477  14.244  10.520  25.699 -0.0139 -0.2558  0.0394
24425W        W67478  11.276  25.467  25.675  0.1695  0.0003  0.1194
24426W        W67479  15.711  15.440  19.034  0.2348  0.3072  0.2425
24427W        W67480  34.546  15.466   8.767  0.2935  0.2502  0.1072
24428W        W67481   1.398  34.067   4.796  0.3655 -0.0810 -0.4412
24429W        W67482  30.574   4.387   6.128 -0.1620 -0.0186  0.2693
24430W        W67483  23.965  10.454  21.456  0.0679 -0.0813 -0.2878
24431W        W67484  10.329   3.878   0.289 -0.0808 -0.0068 -0.0526
24432W        W67485  26.118  10.020  18.425  0.0542 -0.4687 -0.1028
24433W        W67486  27.469  16.135   1.602  0.0889 -0.0127 -0.0225
24434W        W67487  18.961  17.843   4.063 -0.1570 -0.0386 -0.1938
24435W        W67488   8.245  11.103   3.765 -0.3006  0.1115 -0.0599
24436W        W67489  22.524   6.905  28.425 -0.2965  0.1505  0.1782
24437W        W67490   6.560  13.595   0.667 -0.1279 -0.0987 -0.0569
24438W        W67491  25.312  26.316  20.572 -0.1456 -0.3807 -0.0316
24439W        W67492  17.887  31.816   1.224 -0.0146  0.1264  0.1301
24440W        W67493  30.011   8.848  26.124 -0.1348  0.3871  0.1596
24441W        W67494  11.614  17.937  17.962 -0.2192 -0.0019 -0.1166
24442W        W67495   5.096  34.604  22.921 -0.0109  0.2665 -0.3569
24443W        W67496  13.769   9.379  29.010 -0.2804 -0.2255 -0.0412
24444W        W67497  30.826  31.913  24.954 -0.2113 -0.3284 -0.1862
24445W        W67498  17.601  18.857  23.497 -0.3243  0.0788  0.0989
24446W        W67499   7.029   1.897  25.370 -0.1202 -0.1227  0.0781
24447W        W67500  26.721   2.583   7.117  0.1294  0.2439 -0.0719
24448W        W67501  13.155  34.036   4.465 -0.1807 -0.1688  0.0165
24449W        W67502   9.125  29.535  21.635 -0.2520  0.2068 -0.0455
24450W        W67503   0.339  26.326  13.643 -0.0570  0.3079  0.3114
24451W        W67504  15.368  13.303   5.788  0.2442 -0.0632 -0.1345
24452W        W67505  17.325  19.457  13.903 -0.0523 -0.1349 -0.0482
24453W        W67506   0.193   7.347  24.324 -0.0277 -0.2092  0.1113
24454W        W67507  31.178  10.951   2.326  0.0506 -0.0478  0.2496
24455W        W67508   9.214  14.362   9.823 -0.1873  0.1478  0.1066
24456W        W67509  28.657   5.896   7.923 -0.4500 -0.1024  0.2534
24457W        W67510   7.989   0.253  18.545 -0.1300  0.2952  0.1409
24458W        W67511  33.912  14.899  14.674  0.3643 -0.1701  0.1090
24459W        W67512  33.402   2.249   0.671  0.5964 -0.2259 -0.0216
24460W        W67513   9.860  34.629   8.066 -0.2037 -0.1116 -0.2700
24461W        W67514  26.940  29.301  28.406 -0.1149 -0.1143 -0.0375
24462W        W67515   2.523   4.790  23.375  0.0111  0.1548 -0.0325
24463W        W67516  17.156  10.276  26.893 -0.1979  0.0252 -0.1157
24464W        W67517  16.098  16.146   1.011 -0.2314 -0.0602  0.2524
24465W        W67518  13.970  28.926   3.661  0.1977 -0.2073 -0.3297
24466W        W67519   2.101  12.596  25.974  0.0980  0.4119 -0.1164
24467W        W67520   0.341  17.265  24.102  0.0007  0.0801 -0.3302
24468W        W67521  11.124  12.352   1.728  0.3548 -0.1747  0.1065
24469W        W67522  28.920  13.941   0.454  0.2035 -0.5247  0.0728
24470W        W67523   0.859  29.454   2.409  0.0972 -0.0555 -0.3322
24471W        W67524   2.740  19.663  21.431  0.1259 -0.1912 -0.0589
24472W        W67525  34.646   9.923  25.785  0.1597 -0.0631  0.1231
24473W        W67526  34.046  15.058  16.683  0.2325  0.0206  0.2743
24474W        W67527  14.088  34.636  26.295 -0.0330 -0.2292  0.1574
24475W        W67528  32.856  14.876  27.110 -0.1074  0.1417 -0.3201
24476W        W67529   9.462  10.360  21.161  0.1187  0.2941  0.1766
24477W        W67530  20.726  19.358   0.779 -0.1306  0.0189 -0.0115
24478W        W67531  23.002  20.313   1.302  0.2267 -0.3365  0.0161
24479W        W67532  33.684   2.442  17.023 -0.3246  0.3240 -0.3313
24480W        W67533   2.387   2.490   0.033 -0.0122 -0.4737 -0.0162
24481W        W67534   0.503  11.172  28.007 -0.1062  0.1298 -0.2287
24482W        W67535  19.491  13.936  24.259 -0.0773 -0.0815  0.2621
24483W        W67536  18.604   8.631  15.837 -0.2115  0.0018 -0.1283
24484W        W67537   7.199   4.799   4.843  0.3851 -0.0990 -0.3997
24485W        W67538  14.985   8.171  20.677 -0.1883 -0.2038 -0.1457
24486W        W67539  21.241  15.061  21.772 -0.1801 -0.0010  0.1026
24487W        W67540   8.611   1.523  25.612 -0.3912 -0.2102 -0.1163
24488W        W67541  25.058   1.908  16.832  0.0500  0.1000  0.0642
24489W        W67542  20.467  24.850  11.319 -0.1682 -0.4239 -0.0535
24490W        W67543  22.472  14.986  27.519 -0.3749 -0.1835  0.0894
24491W        W67544  28.550  17.647  19.763  0.1341 -0.4041  0.4049
24492W        W67545   1.582   3.322  23.229 -0.1871 -0.0288  0.0650
24493W        W67546   1.733   2.769  14.061  0.0800 -0.0775  0.0728
24494W        W67547  32.603  20.969  28.576  0.0316  0.0455  0.0477
24495W        W67548  16.458   8.256  28.364 -0.0654  0.0633 -0.3190
24496W        W67549   1.999  24.732  23.811 -0.1702 -0.0597  0.1631
24497W        W67550  20.122  16.356   2.993 -0.0283  0.3078  0.0372
24498W        W67551   6.281  10.154  14.750  0.1175 -0.1445 -0.5379
24499W        W67552  23.954  20.533   3.778  0.0930  0.2297 -0.2023
24500W        W67553  29.828  30.753   1.568  0.0921 -0.0163  0.1983
24501W        W67554   4.213  21.448   6.944  0.0893 -0.0995  0.3046
24502W        W67555   8.061  31.257  19.283 -0.0144 -0.3080 -0.2380
24503W        W67556   5.332   8.703  17.239  0.2235  0.1436  0.1259
24504W        W67557  15.826  26.341  26.878  0.2994  0.1529  0.0861
24505W        W67558   7.250   8.507  23.210 -0.1324 -0.0245  0.2191
24506W        W67559  18.187  17.926  12.523  0.4931 -0.1006 -0.2817
24507W        W67560   6.514   5.845  10.106  0.0537 -0.0099  0.0181
24508W        W67561  33.984  15.508   2.192 -0.0090  0.3126 -0.0648
24509W        W67562  14.164  23.533  16.014 -0.2800  0.0004 -0.0050
24510W        W67563   0.777  22.045  17.179  0.2059 -0.0856  0.0488
24511W        W67564  24.156  24.973  22.820 -0.2096 -0.2402  0.0121
24512W        W67565  27.036   6.836   1.066  0.0954  0.3289  0.1810
24513W        W67566  16.835   0.698   3.916 -0.0730 -0.1071 -0.2142
24514W        W67567   2.812   5.592  19.529  0.1102 -0.3634  0.0726
24515W        W67568   6.878  13.011   6.131  0.2689 -0.0265 -0.2098
24516W        W67569   1.076  31.126  22.053 -0.1026 -0.0490 -0.0032
24517W        W67570   4.257   2.339   2.171 -0.0280 -0.0338 -0.0541
24518W        W67571   5.200   3.895   2.844 -0.2746 -0.1389  0.1654
24519W        W67572   6.544  33.567  22.612  0.0904  0.0097 -0.0390
24520W        W67573  29.606   3.062   2.043 -0.1679 -0.1083 -0.1239
24521W        W67574  18.386  16.258   3.647  0.0560 -0.0241 -0.0367
24522W        W67575  23.982  14.935  14.792  0.0116 -0.2419 -0.4739
24523W        W67576   6.849  18.170  24.869  0.2335 -0.3355 -0.3534
24524W        W67577  17.365   8.937   4.059  0.1203 -0.0626 -0.2356
24525W        W67578   6.701  13.975  27.831  0.1812 -0.2016  0.2705
24526W        W67579  19.583   7.714   6.614 -0.0142 -0.0502 -0.3051
24527W        W67580   6.748   9.099  25.959  0.1402 -0.0100  0.0366
24528W        W67581   8.602  14.925  18.169  0.1491  0.0894  0.0031
24529W        W67582  13.075  21.247   3.967 -0.4231  0.2584  0.0228
24530W        W67583   6.089  12.708  27.539 -0.0029  0.0860  0.0595
24531W        W67584   3.413  14.585  28.951  0.2325  0.1941 -0.0658
24532W        W67585  32.840  19.987  16.346  0.2521  0.1658  0.1912
24533W        W67586   6.233  23.783  24.177 -0.0161  0.3140 -0.1672
24534W        W67587  30.838  21.113  13.309  0.0305  0.0677  0.1334
24535W        W67588   7.162   7.468  28.543  0.0891 -0.0456  0.1371
24536W        W67589  25.984   2.940  22.433 -0.0730 -0.3920 -0.1585
24537W        W67590   7.499   1.499   4.967  0.0887 -0.0199 -0.1078
24538W        W67591  24.523  29.574  26.299 -0.0072  0.1642  0.1164
24539W        W67592  14.896  25.775  27.241 -0.1268  0.0320 -0.1459
24540W        W67593  20.976  13.987  24.608  0.0228  0.1068  0.0401
24541W        W67594   3.599   4.454  17.376 -0.1429 -0.1313  0.0327
24542W        W67595   7.096  14.076  25.763 -0.1676  0.0003 -0.0679
24543W        W67596   4.628   1.558  24.985  0.0363  0.0087  0.0208
24544W        W67597  26.073  14.267   7.935  0.2128  0.2201  0.1026
24545W        W67598   1.878  18.092   4.633  0.0079 -0.2678  0.0825
24546W        W67599  17.127   0.460  16.817  0.3672 -0.0664  0.3005
24547W        W67600   7.553  16.859   5.236 -0.0383  0.0121  0.0329
24548W        W67601  24.339  27.622   4.518  0.2890 -0.1868  0.0119
24549W        W67602   0.865   9.539  27.303 -0.1283 -0.1432  0.2039
24550W        W67603   2.264  10.186  19.488 -0.2619  0.0617  0.2278
24551W        W67604  33.971   4.966   1.143  0.0226 -0.3945 -0.0831
24552W        W67605   5.611  14.001  18.770 -0.1874  0.0874 -0.0089
24553W        W67606   3.453  10.727   4.123  0.1331 -0.1385  0.0621
24554W        W67607   5.281   7.731  22.080 -0.2154  0.2213  0.2820
24555W        W67608   2.506  15.021   7.135  0.3711 -0.0477 -0.0384
24556W        W67609  22.899  29.869  19.921 -0.0438  0.0430 -0.2944
24557W        W67610   4.643  21.981  15.998  0.0136  0.0384 -0.0273
24558W        W67611  27.014   9.926  16.583 -0.1770  0.0362  0.2688
24559W        W67612  16.108  32.650   3.328 -0.0504  0.1617 -0.2326
24560W        W67613  11.496  17.579  14.431  0.2101  0.0344 -0.1102
24561W        W67614   9.523  10.531  25.867  0.0737 -0.2381 -0.2125
24562W        W67615  15.939  22.023  22.684  0.0182 -0.1679 -0.1270
24563W        W67616   6.789  12.761   7.391 -0.0856  0.1417 -0.0835
24564W        W67617  11.516  20.020  16.068  0.1275  0.1039 -0.2740
24565W        W67618   6.193  28.087  22.547 -0.2385 -0.0967  0.1672
24566W        W67619  14.794  10.938  27.727 -0.1505 -0.4496  0.3478
24567W        W67620   8.036  24.299   1.794  0.2878  0.4056  0.0423
24568W        W67621  17.940   8.117  22.530 -0.2828 -0.0953  0.0263
24569W        W67622   0.038  24.733  22.744  0.2675  0.0163 -0.0194
24570W        W67623  23.615  15.770   0.274 -0.1167 -0.0984  0.1107
24571W        W67624  10.836  29.306   2.861 -0.2327  0.0423 -0.0028
24572W        W67625   7.905  11.344  18.406 -0.0419 -0.0868 -0.0325
24573W        W67626   8.092  29.557  15.954  0.0241  0.3825  0.1536
24574W        W67627   9.801  14.501  26.939 -0.4900  0.0773  0.2251
24575W        W67628  22.842  11.625   1.281 -0.2156 -0.0873  0.2890
24576W        W67629  21.886   9.046  20.384  0.3671 -0.2338  0.1203
24577W        W67630  20.806  31.288  23.204 -0.1039  0.0121  0.1636
24578W        W67631  17.000  24.324  16.276 -0.3021 -0.2060  0.0821
24579W        W67632   8.802   5.437  19.622  0.1036  0.0067 -0.3931
24580W        W67633   5.350  16.132  15.228  0.0847 -0.2694 -0.0995
24581W        W67634   8.704  12.104  26.426 -0.0079  0.1297  0.1356
24582W        W67635  10.715  10.925  28.708  0.0747 -0.0279  0.2436
24583W        W67636  30.369  13.181  22.627  0.0711  0.0961  0.2848
24584W        W67637  32.430   7.837  16.685 -0.2026  0.2100  0.1774
24585W        W67638   3.102  23.732   9.495 -0.0912 -0.1043 -0.1975
24586W        W67639  11.453   6.921  16.461  0.1593  0.3767 -0.1308
24587W        W67640  30.382   7.951  24.861 -0.0368  0.2771  0.0725
24588W        W67641   3.559  11.545   9.324  0.2972  0.1473 -0.0725
24589W        W67642   7.357   1.402  19.886 -0.2716 -0.0783  0.1089
24590W        W67643  14.098   6.271  25.950 -0.0357  0.0199 -0.2323
24591W        W67644   1.715  29.563   6.430 -0.1581 -0.0732  0.1992
24592W        W67645  30.003  25.139   5.595  0.2479 -0.1817  0.1090
24593W        W67646  31.334   8.870  18.807 -0.1185  0.1808 -0.0791
24594W        W67647  33.274  19.079   4.753  0.0140 -0.0379  0.1121
24595W        W67648   4.965  10.602   4.251 -0.1505  0.0669 -0.0403
24596W        W67649  28.801   5.209  22.967  0.2725 -0.1320  0.2002
24597W        W67650   7.383   1.065  10.166 -0.0766  0.2378  0.1235
24598W        W67651  19.951   1.652  25.684 -0.1293 -0.0650 -0.1065
24599W        W67652  22.761  12.390  26.015  0.0110 -0.0960 -0.1871
24600W        W67653  25.035  30.527  18.741  0.3897  0.1144 -0.3048
24601W        W67654   9.029   2.859  22.381  0.3384  0.0281 -0.1897
24602W        W67655  21.415  13.224  22.589 -0.0546 -0.0147  0.0064
24603W        W67656   8.468  11.225   5.962 -0.0700  0.4351  0.1766
24604W        W67657   3.590   8.883  18.664  0.0055 -0.1044  0.0453
24605W        W67658  11.675  18.830   5.105  0.2874  0.1100  0.1920
24606W        W67659  32.263  34.598   8.540  0.0299  0.1635  0.2732
24607W        W67660   8.194  26.510  19.880  0.2228 -0.1089 -0.1197
24608W        W67661  32.736   2.348   6.048 -0.2180  0.0715 -0.1929
24609W        W67662  26.546  10.210  26.540 -0.0023 -0.0625 -0.0137
24610W        W67663  33.627   0.336   1.007  0.0981  0.1205 -0.1174
24611W        W67664  27.093  17.099   1.183  0.0045 -0.2962 -0.1551
24612W        W67665  20.554  14.052  22.986  0.1668  0.0379  0.1088
24613W        W67666   5.667  19.750   6.377 -0.0861 -0.0122 -0.0031
24614W        W67667  31.898  11.511   2.214 -0.0098  0.0173  0.4468
24615W        W67668   5.106  16.726  21.334 -0.0026  0.0860  0.0280
24616W        W67669   3.855   2.684  18.504 -0.0433 -0.0439 -0.0329
24617W        W67670   4.450  15.614   4.511  0.1045  0.5316  0.0567
24618W        W67671  12.531  33.160  13.947 -0.2645  0.2417  0.4087
24619W        W67672  16.004  18.070   9.109 -0.1686  0.1413 -0.0492
24620W        W67673   3.758   9.540   2.907  0.0046  0.0121 -0.0404
24621W        W67674  24.830  15.716  28.381  0.1707 -0.1738 -0.0075
24622W        W67675   6.894   3.885   7.039 -0.3039 -0.1149  0.1098
24623W        W67676   7.689   0.706  20.350 -0.1575 -0.0860  0.0481
24624W        W67677   8.587  29.161   4.243  0.1356  0.0375 -0.0440
24625W        W67678  23.320  32.050   3.977  0.1213  0.0504  0.3181
24626W        W67679  33.130  19.254  29.053  0.0789  0.1169  0.0020
24627W        W67680  10.510  12.313  20.196 -0.0448 -0.2405 -0.0880
24628W        W67681  21.257   2.377  17.741 -0.1646  0.1344 -0.0963
24629W        W67682   3.649   2.750  19.918  0.1833 -0.2280  0.3577
24630W        W67683  11.262   6.668   2.791 -0.0760  0.0895  0.1505
24631W        W67684  26.361   2.238   7.120  0.0046  0.0742 -0.1383
24632W        W67685   6.969  30.316  20.312  0.0161  0.0964  0.2250
24633W        W67686  11.275  33.941  28.100 -0.3385  0.0767  0.2126
24634W        W67687   1.441  18.402   5.780 -0.1421 -0.1650 -0.0606
24635W        W67688  10.001  24.241  17.141 -0.1579 -0.1559  0.0744
24636W        W67689  31.753  25.314  23.604  0.1188 -0.2940 -0.1075
24637W        W67690   7.390   1.401  23.284 -0.2318  0.2221  0.0720
24638W        W67691  15.128  10.119  16.776 -0.2724  0.0232  0.1786
24639W        W67692   2.632  11.620  22.992  0.1549 -0.0369  0.1830
24640W        W67693   3.622  18.236   1.010  0.0202  0.2233 -0.2254
24641W        W67694  12.701   5.323   2.238  0.3413 -0.1556 -0.0624
24642W        W67695  14.057  17.455  16.624  0.2320  0.1997  0.3092
24643W        W67696   9.897  17.623  23.778  0.0492  0.0405  0.2847
24644W        W67697  31.144  12.429  24.395  0.0575 -0.1438 -0.1239
24645W        W67698  29.043  26.712  18.172 -0.2733  0.2858 -0.4632
24646W        W67699   3.633  11.987  16.403  0.1200 -0.3907  0.1450
24647W        W67700  12.678  28.715   9.049  0.0675  0.1588  0.0514
24648W        W67701  29.261   8.565  25.047  0.1395  0.6473 -0.2208
24649W        W67702  12.823   3.223  15.540 -0.1965  0.0906  0.1517
24650W        W67703   5.050  10.750  28.075 -0.1574 -0.2905 -0.7529
24651W        W67704  33.262  18.199  14.628 -0.0895  0.0782 -0.0837
24652W        W67705  34.658   6.734   8.159  0.3015 -0.0711 -0.0674
24653W        W67706   4.190  10.331   5.157  0.0030 -0.3877 -0.0380
24654W        W67707  28.980   3.686  15.069  0.0833 -0.0554  0.0606
24655W        W67708   6.588  28.533  23.357  0.3533  0.0014 -0.0771
24656W        W67709  19.936   4.792   6.551 -0.0114 -0.0051 -0.1943
24657W        W67710  30.238   9.011  26.874  0.4869 -0.1283  0.1540
24658W        W67711  32.981   9.971  24.334 -0.3497 -0.0315  0.1931
24659W        W67712   1.025  12.180  23.882  0.0001  0.0829 -0.0305
24660W        W67713   4.649   7.677   6.276  0.4343  0.0117 -0.1365
24661W        W67714  31.944  20.272  18.819 -0.0139  0.1685  0.2068
24662W        W67715   3.466  11.967   3.094 -0.1565 -0.2973 -0.0836
24663W        W67716   5.766   8.255  20.491 -0.1018 -0.0016  0.1910
24664W        W67717   5.954   9.919  22.895  0.0562 -0.1310 -0.1168
24665W        W67718   8.493   8.280  18.122 -0.0164 -0.0327 -0.0130
24666W        W67719   2.383  13.461  26.233 -0.0346 -0.3444 -0.3168
24667W        W67720  15.319   8.855  24.167  0.1645 -0.0646  0.2630
24668W        W67721   7.156  24.330   9.859  0.0202 -0.3702  0.1798
24669W        W67722   0.935  17.814   4.402 -0.0793 -0.0248 -0.1602
24670W        W67723   4.794   6.499  26.812  0.1821 -0.3608 -0.0151
24671W        W67724   5.049   0.949   0.054  0.0521  0.2632 -0.0745
24672W        W67725   4.017  17.265  24.218 -0.2507 -0.1162 -0.3362
24673W        W67726  30.031  16.972   7.612 -0.0415 -0.1328 -0.2000
24674W        W67727  17.561   1.128   0.473  0.4960  0.2220  0.1165
24675W        W67728  22.319   1.482  25.340 -0.1921 -0.0800 -0.3918
24676W        W67729  34.598  18.350   0.806 -0.0451  0.1463  0.2580
24677W        W67730   3.844   4.479   7.855 -0.1056 -0.4085 -0.0109
24678W        W67731  12.018   7.000  26.225 -0.1155  0.1096  0.0050
24679W        W67732  27.264  33.439   1.050 -0.1273 -0.1020  0.0465
24680W        W67733  12.739  25.705   2.289  0.1420  0.0693 -0.1674
24681W        W67734  32.813  15.573  17.377  0.3559  0.0976 -0.0290
24682W        W67735   0.346  11.852   1.015 -0.1914  0.0589 -0.0731
24683W        W67736  32.727  15.044   7.405  0.0537 -0.0776  0.2201
24684W        W67737   7.883  10.471  19.995  0.0809 -0.0821  0.1374
24685W        W67738  33.986  23.959  28.863 -0.3588  0.1388 -0.0092
24686W        W67739   4.710  13.231   8.892 -0.3454 -0.0459  0.0555
24687W        W67740  13.627  27.549  26.653  0.2131  0.1485  0.0201
24688W        W67741  29.988  14.657  22.084 -0.3987 -0.1199  0.0895
24689W        W67742   9.258   5.062   7.571 -0.0877 -0.1871  0.3299
24690W        W67743  16.035   5.370  10.130  0.1751  0.2098 -0.0813
24691W        W67744  12.751   8.780   4.679  0.0889  0.0910 -0.0484
24692W        W67745  31.369   7.926  28.615 -0.0009  0.0073 -0.1676
24693W        W67746  33.119  12.598  25.259  0.0436  0.1745 -0.2851
24694W        W67747  28.727  22.851   3.187  0.0446 -0.1011  0.2741
24695W        W67748   9.138   2.203   2.283 -0.1272 -0.0334 -0.0557
24696W        W67749   9.110  19.998   7.097 -0.0369 -0.2617  0.1193
24697W        W67750  28.218  10.950   7.531 -0.0933 -0.0845  0.1445
24698W        W67751   0.744  31.469  20.086  0.0786 -0.1220 -0.1325
24699W        W67752   6.332  20.796   1.240  0.1946  0.1248 -0.0374
24700W        W67753  29.781   2.084   8.633  0.0637  0.0832 -0.3832
24701W        W67754  28.358  15.902   8.614 -0.0752  0.1970  0.1304
24702W        W67755   5.090  13.665  18.636  0.3681 -0.2497 -0.2168
24703W        W67756  33.206   3.680  20.070  0.1227  0.0777 -0.0075
24704W        W67757  16.491   6.291   8.573 -0.1614  0.1222  0.1013
24705W        W67758  17.417  19.497   3.396  0.0609 -0.1497 -0.2100
24706W        W67759  28.891   1.233   9.755  0.2003  0.2689 -0.4998
24707W        W67760  19.216   3.428  26.100  0.3534  0.1767 -0.0490
24708W        W67761  16.080  11.552  15.651  0.0903  0.1186 -0.2702
24709W        W67762  10.744  26.728  23.693  0.0787 -0.0083  0.0107
24710W        W67763   4.159   2.737  21.675 -0.1185  0.3562  0.1718
24711W        W67764   5.721  32.792  21.183 -0.1427  0.1573  0.1655
24712W        W67765  11.887  14.723   1.092 -0.2986  0.5368 -0.0133
24713W        W67766  16.241  32.192  29.007 -0.0170  0.0824 -0.1243
24714W        W67767  24.861  15.705   5.982 -0.1060 -0.2662 -0.0923
24715W        W67768  14.940  14.220  15.206  0.1353 -0.0530 -0.0819
24716W        W67769  16.069   2.962  22.963 -0.2594 -0.1827  0.0795
24717W        W67770  10.520   4.234   7.504 -0.0351 -0.2910  0.0551
24718W        W67771  26.629  10.382   6.998 -0.0726  0.1141  0.1356
24719W        W67772  31.460  14.716  18.472 -0.2623  0.2238  0.2379
24720W        W67773   4.447  27.695   6.996 -0.0604  0.4634  0.1482
24721W        W67774  15.821   5.528  26.581 -0.0424  0.2585 -0.1127
24722W        W67775  11.090   3.610  27.047  0.0116  0.2951 -0.0062
24723W        W67776  15.458  13.168  26.889  0.0378 -0.0072  0.1634
24724W        W67777   9.227  14.024  21.173  0.0478  0.4118  0.0518
24725W        W67778  29.705  16.266   7.092 -0.2469  0.2333  0.0909
24726W        W67779   8.800   2.075   8.606 -0.1939 -0.1869  0.1628
24727W        W67780  13.579  10.528  10.133 -0.0447  0.2238 -0.0983
24728W        W67781  21.127   7.461  28.088  0.2671 -0.0079 -0.2272
24729W        W67782   7.318  32.814  15.078 -0.1720 -0.1003  0.0841
24730W        W67783   0.883  16.992  22.321 -0.0763  0.1128 -0.2023
24731W        W67784  31.466  23.408  19.454 -0.4105 -0.2236  0.4349
24732W        W67785  19.835  20.020  26.440 -0.1924  0.4391 -0.2098
24733W        W67786   7.890   6.378  28.048  0.1171 -0.1466  0.3808
24734W        W67787   8.282   7.497  22.511  0.0652 -0.1479  0.1523
24735W        W67788   7.651  11.045  28.381 -0.1083 -0.3789 -0.1200
24736W        W67789  29.017  18.839   0.879  0.1161  0.0700 -0.1922
24737W        W67790  29.493   8.075   9.094 -0.1708 -0.0385  0.0791
24738W        W67791   6.545  28.094  17.265 -0.2543  0.0084  0.0296
24739W        W67792   8.476  21.011  15.658  0.0891  0.0705 -0.0572
24740W        W67793  13.097  19.778  28.457  0.1552  0.0857  0.0829
24741W        W67794  20.825  10.634  25.469 -0.0509 -0.0430 -0.0794
24742W        W67795  12.290  33.226   4.157  0.1114 -0.3656 -0.1962
24743W        W67796  10.455  14.271  25.402 -0.0325  0.1158  0.2877
24744W        W67797  23.325   3.519   9.911  0.1930 -0.2128 -0.0122
24745W        W67798  19.205  11.584  17.629  0.0368 -0.2977  0.1180
24746W        W67799  27.669  22.372   0.429 -0.4245  0.0549 -0.1375
24747W        W67800  20.477  19.932   3.294  0.2825 -0.0376  0.0122
24748W        W67801  33.793   3.663   0.958  0.3540  0.0061 -0.1359
24749W        W67802   2.732   2.894   3.803 -0.0475  0.1811 -0.0094
24750W        W67803   2.927  23.382  15.071 -0.0308  0.2150 -0.2146
24751W        W67804   2.700  33.978  25.494 -0.1249 -0.1720 -0.1007
24752W        W67805   7.937  14.057  16.834  0.1701  0.0941 -0.1639
24753W        W67806  20.305   4.946  16.463  0.0767 -0.0968  0.3247
24754W        W67807  23.035  10.287  23.078  0.3022  0.0100 -0.2294
24755W        W67808  29.471  22.664  26.910 -0.0335 -0.2540  0.1694
24756W        W67809  11.576  28.205   4.681 -0.2608  0.1548 -0.2413
24757W        W67810  31.833   2.062   7.604  0.0032  0.0093 -0.0184
24758W        W67811  14.477  25.702  15.623  0.0566 -0.2615 -0.0350
24759W        W67812  10.147  34.099  20.715 -0.0802  0.2710  0.0606
24760W        W67813  33.364  17.667  24.614  0.0837  0.1754  0.3392
24761W        W67814  16.995  27.276  26.943  0.1551 -0.1442 -0.1716
24762W        W67815  27.163  26.689  24.355 -0.0200  0.0404 -0.2052
24763W        W67816  24.150   6.682  23.200  0.2001 -0.2827 -0.3279
24764W        W67817   1.608   0.330   3.907 -0.4225  0.0904  0.1047
24765W        W67818  19.759  11.856  24.743 -0.2342 -0.1769  0.2193
24766W        W67819   8.327  23.182  18.825  0.1326  0.3769 -0.3687
24767W        W67820  14.963   0.092  13.652  0.5149  0.2681  0.0135
24768W        W67821  28.212  13.751  14.750  0.3299 -0.1874 -0.0878
24769W        W67822  30.515   7.938  27.031 -0.0407 -0.0102  0.4434
24770W        W67823  11.065   6.093  19.461  0.2650  0.1117  0.1091
24771W        W67824   6.437   4.829   9.746  0.1287  0.0500 -0.1745
24772W        W67825   7.854  14.146   8.237  0.1514  0.2556  0.1794
24773W        W67826   0.834  14.393   4.276 -0.1254  0.3511  0.2177
24774W        W67827   2.453   4.655   4.224 -0.3518  0.1013 -0.2996
24775W        W67828  10.490  14.232  10.001  0.1880 -0.1435  0.2390
24776W        W67829  10.525  33.487   7.444 -0.2108 -0.0766  0.0398
24777W        W67830  16.062  10.617  26.701  0.0269 -0.2718 -0.2587
24778W        W67831  32.639  34.244  14.511  0.0486  0.3715 -0.0984
24779W        W67832   3.180  31.347   5.736 -0.1908  0.0088  0.0955
24780W        W67833   8.292  17.567  21.005 -0.0184  0.1382  0.2844
24781W        W67834   1.761  26.406  27.912 -0.0314  0.0937  0.0296
24782W        W67835  34.464   7.576  15.464  0.1541 -0.4411  0.1662
24783W        W67836   9.463   5.004  26.948 -0.1692 -0.2912 -0.0890
24784W        W67837   5.198   5.322   2.528 -0.0899  0.1081  0.1968
24785W        W67838  12.497   6.670   0.525 -0.3761 -0.1000  0.0052
24786W        W67839  25.269  22.040  16.525 -0.0407 -0.2262  0.1782
24787W        W67840  10.541   2.700   8.145 -0.1440 -0.0849  0.2214
24788W        W67841   7.157   5.870  27.977  0.0425 -0.0340 -0.0350
24789W        W67842  19.846  12.221   2.238  0.1865 -0.2041  0.2898
24790W        W67843   7.734   6.861  24.209 -0.2297 -0.0418  0.1317
24791W        W67844  34.413   4.521   1.769  0.2508 -0.0799 -0.2335
24792W        W67845   8.526  30.581   4.931  0.0264  0.4298  0.1556
24793W        W67846  34.341  26.184   0.023 -0.1743 -0.3433 -0.0991
24794W        W67847   1.411   6.413  19.850  0.2184 -0.2118  0.1816
24795W        W67848  31.058   3.948   2.535 -0.2744 -0.3033  0.2224
24796W        W67849  30.166  20.153  21.235  0.0804 -0.1176 -0.1851
24797W        W67850  19.426   0.226  24.359 -0.2302  0.2169 -0.2313
24798W        W67851   6.944  20.436   9.474 -0.1762 -0.0424 -0.0208
24799W        W67852   4.705  24.150   2.457 -0.0335  0.1358 -0.1556
24800W        W67853   0.914  11.977  22.188  0.4401 -0.1680 -0.0917
24801W        W67854   7.482   0.908  23.445  0.0213 -0.1174 -0.1171
24802W        W67855  34.683  15.938  28.855 -0.0149 -0.0638  0.2349
24803W        W67856  14.147  19.547   3.031  0.0205  0.1228  0.4051
24804W        W67857  30.115  21.729   7.926 -0.4137 -0.2267 -0.2032
24805W        W67858  21.886  18.360  18.645 -0.0007  0.1711  0.1269
24806W        W67859   2.398   3.087   1.415  0.2796  0.1046 -0.1916
24807W        W67860   6.496  27.457   6.392  0.0456 -0.2271  0.1891
24808W        W67861   8.734  16.324  21.737  0.0934  0.2573  0.1032
24809W        W67862   5.624  34.010  20.179 -0.1350  0.2266 -0.1667
24810W        W67863  12.449  29.804  24.821 -0.1307  0.1926 -0.0505
24811W        W67864   2.528   3.754  10.025 -0.1600 -0.0475 -0.0633
24812W        W67865   1.046   7.369   9.829 -0.1185 -0.0930 -0.1921
24813W        W67866  30.424   4.347   0.762  0.0678  0.0345  0.1738
24814W        W67867   0.139  17.852   8.859 -0.0535  0.0501  0.0784
24815W        W67868  15.899  10.747   3.781 -0.0982  0.0286  0.1303
24816W        W67869  28.426   9.438   6.802 -0.1914  0.2857  0.1349
24817W        W67870   1.735   6.975  22.501 -0.0134 -0.1567  0.1382
24818W        W67871   0.904   6.875  27.333  0.0244  0.0934 -0.0676
24819W        W67872   7.640  18.532  21.926 -0.0714  0.2427  0.1344
24820W        W67873  13.229  22.818  15.164  0.2403 -0.0745  0.1334
24821W        W67874  16.157  25.112  19.668  0.1155 -0.1048 -0.1368
24822W        W67875  24.827  18.625  22.118  0.1755  0.3036  0.2557
24823W        W67876  32.236  11.080   0.165 -0.0669  0.0740  0.1680
24824W        W67877  14.003   9.065  21.937 -0.1337 -0.0749 -0.2503
24825W        W67878  27.219  17.081   5.012 -0.3349  0.1059 -0.0255
24826W        W67879  25.064  20.523   2.572  0.1617 -0.3194  0.0609
24827W        W67880  19.742  10.789  24.139 -0.2855 -0.0084  0.2220
24828W        W67881   9.396  32.726   2.169 -0.1763  0.2160 -0.0159
24829W        W67882   7.668  13.638  27.521  0.1540  0.0594 -0.1488
24830W        W67883  15.327  28.037  17.946 -0.0295 -0.1671 -0.2837
24831W        W67884  12.938   8.719   9.133 -0.0515  0.3359 -0.0561
24832W        W67885   2.432  29.468   7.349  0.1200  0.0034 -0.0123
24833W        W67886  22.919   7.369  25.284 -0.0136  0.0881 -0.1728
24834W        W67887   7.914   7.407  28.198 -0.0941  0.0448 -0.2233
24835W        W67888   9.065  15.325  23.185  0.3836  0.3000 -0.3324
24836W        W67889  24.533   5.398   7.131 -0.0352  0.0618 -0.2845
24837W        W67890  13.012  10.995  23.200 -0.0937 -0.0535 -0.0197
24838W        W67891  11.360  12.556  28.405 -0.0595  0.3485  0.0434
24839W        W67892   7.249  31.960   6.410 -0.1744  0.2664  0.2512
24840W        W67893  19.884   9.304   8.639 -0.2994 -0.2569  0.0290
24841W        W67894  11.672   3.884   7.148 -0.1475  0.1412  0.1801
24842W        W67895  29.288  28.902   5.622 -0.3525 -0.0741  0.1737
24843W        W67896  12.421  11.089   7.446  0.1843 -0.3442  0.2284
24844W        W67897   1.649  29.285   8.767  0.0560  0.1321  0.0326
24845W        W67898  30.615   9.760  22.211  0.2774  0.1154 -0.1873
24846W        W67899   6.406   6.485   1.231 -0.1703  0.2991  0.0154
24847W        W67900   6.159   6.550   3.612  0.1903  0.1997 -0.0994
24848W        W67901   2.317  28.362  17.790  0.3530  0.2939  0.1529
24849W        W67902  11.236  15.962   9.044 -0.0806  0.0050 -0.1261
24850W        W67903  24.800  12.413  19.818 -0.0680 -0.1512 -0.2218
24851W        W67904  29.069   6.170  26.163  0.2024  0.0535  0.0963
24852W        W67905  34.276  31.896  18.827  0.2679  0.1486 -0.0847
24853W        W67906  20.391   2.889   0.038 -0.1346 -0.1716  0.3754
24854W        W67907   8.020   5.253  24.500  0.1025 -0.0937  0.1289
24855W        W67908   4.256   6.746  25.385  0.1958 -0.1251 -0.3055
24856W        W67909  24.308  10.430  23.958  0.2004  0.0908  0.1136
24857W        W67910   6.839   9.724   1.439 -0.3077  0.1306  0.1394
24858W        W67911  18.984  20.483  28.943 -0.1442  0.1190  0.2365
24859W        W67912  34.674  12.543  19.964  0.0259 -0.0847 -0.0830
24860W        W67913  31.848  12.144  16.386  0.0088  0.0731  0.1196
24861W        W67914   9.699   8.596   1.616 -0.2709 -0.1162  0.0175
24862W        W67915  24.575  24.207  22.008  0.1129 -0.0671  0.0238
24863W        W67916   1.364  33.257   4.621 -0.0204 -0.2179 -0.1858
24864W        W67917  25.140   0.411   5.205 -0.2770 -0.0132 -0.1562
24865W        W67918   8.914  33.414   5.045 -0.1050 -0.3555  0.1438
24866W        W67919   2.702   6.924   9.605  0.4011 -0.3361 -0.0260
24867W        W67920  12.815  32.717   8.120 -0.0748  0.1846 -0.0885
24868W        W67921  29.203  17.253   0.594 -0.1915  0.2901  0.4157
24869W        W67922  24.981  13.927   0.285 -0.1652 -0.0587 -0.0344
24870W        W67923  19.799  21.035   6.699  0.1557 -0.0998 -0.3161
24871W        W67924   5.464   5.828  21.313 -0.0230  0.0423 -0.5061
24872W        W67925   2.685  23.145  17.747 -0.2454  0.0749  0.3443
24873W        W67926  29.827  32.219   7.793  0.0761  0.0779  0.0143
24874W        W67927  28.660   4.541  14.828  0.5246 -0.0008 -0.1673
24875W        W67928  16.867  17.806   4.388  0.1709  0.2030 -0.2509
24876W        W67929  24.268  13.648  27.227  0.1635  0.3185 -0.0994
24877W        W67930  15.716   5.156  28.334  0.1014  0.0827 -0.0467
24878W        W67931  18.141   6.393  17.380 -0.0880  0.0604  0.1546
24879W        W67932  13.593  32.867   0.789 -0.1349  0.0123  0.0458
24880W        W67933   1.077  27.413  14.540 -0.3064 -0.4465 -0.0288
24881W        W67934  30.578  27.820   4.212  0.0023 -0.0208  0.4136
24882W        W67935  32.110   8.980  19.345  0.4652  0.1690 -0.1038
24883W        W67936   5.324  12.806  18.021  0.1156 -0.2486 -0.3930
24884W        W67937   2.752  11.680  16.268  0.2826 -0.2094 -0.3140
24885W        W67938  10.418  12.550  17.676 -0.3373 -0.0109  0.0421
24886W        W67939   5.868  15.442  14.323  0.0727  0.2098 -0.3373
24887W        W67940   9.896  14.613   1.142  0.1422  0.1530  0.0344
24888W        W67941   8.408  10.529  25.498 -0.2097 -0.3758 -0.1231
24889W        W67942  10.206  31.908  19.106 -0.1737 -0.0613  0.0121
24890W        W67943  14.534  15.258  22.704 -0.1764 -0.0611  0.1494
24891W        W67944   0.203   9.630  20.135 -0.0006  0.0618 -0.2958
24892W        W67945   0.257  12.906  14.531  0.1126  0.0210  0.1107
24893W        W67946   0.577   0.248  18.048  0.1089 -0.2346  0.0179
24894W        W67947   8.718  11.626   5.888 -0.1126  0.0840 -0.0260
24895W        W67948  13.692  13.162   4.111 -0.2366 -0.1966  0.0505
24896W        W67949   7.669  13.359  28.181 -0.0200  0.0646 -0.1184
24897W        W67950  30.678  20.257  22.260  0.0998  0.0709  0.3032
24898W        W67951  29.269  13.076  16.650 -0.1131 -0.0923 -0.0745
24899W        W67952   5.062  19.491  17.371  0.1660  0.1268 -0.0973
24900W        W67953   1.882  20.419  28.359 -0.1052  0.2209  0.1532
24901W        W67954  25.135   7.974  19.409 -0.1716 -0.0138  0.1867
24902W        W67955   6.647  16.130  21.108  0.0814  0.0167 -0.0356
24903W        W67956  12.042  10.128  16.725 -0.2676  0.1164 -0.0491
24904W        W67957  21.644   6.359  15.601 -0.0400 -0.4365 -0.1265
24905W        W67958  25.110  20.624  16.325  0.0266  0.1515  0.1050
24906W        W67959   4.391   5.809  22.534  0.0343 -0.0606  0.2595
24907W        W67960   8.319  11.735  18.617  0.0032 -0.1179 -0.0272
24908W        W67961  11.381   6.449  15.588 -0.2458  0.3230 -0.0046
24909W        W67962  14.096  27.136  16.747 -0.1755  0.1630 -0.1820
24910W        W67963  20.478  12.722  18.059  0.1903 -0.2451  0.0915
24911W        W67964   5.984   6.653  21.265 -0.0221  0.0716 -0.4438
24912W        W67965   3.219   3.076  19.964  0.2358  0.1207 -0.0741
24913W        W67966   5.589  25.917   4.345  0.0390 -0.0409  0.1523
24914W        W67967   7.455  12.405  22.178  0.2545  0.0473 -0.1144
24915W        W67968   3.087  34.480  21.258 -0.2067  0.1017 -0.0988
24916W        W67969  22.454  25.443  19.093 -0.1004  0.2512  0.2346
24917W        W67970  16.941   6.359  16.048 -0.1097  0.1260 -0.1337
24918W        W67971   0.892  18.229  16.740  0.5301  0.0548  0.0958
24919W        W67972  34.612  25.036  23.314  0.0451  0.2494  0.2102
24920W        W67973   8.233  31.784  24.798 -0.0189  0.0679  0.2250
24921W        W67974   9.054   1.055  16.418 -0.2230 -0.0087  0.1504
24922W        W67975  31.984  16.884  28.139 -0.4290 -0.2184 -0.0305
24923W        W67976  33.501  15.277  15.304 -0.0664 -0.1565 -0.1431
24924W        W67977  33.928  12.734  20.591  0.2397  0.2403  0.3252
24925W        W67978  34.304  10.212  16.918 -0.0386 -0.1764  0.1131
24926W        W67979  19.049  30.553   0.304  0.0612 -0.3278  0.3818
24927W        W67980  23.918  23.446  17.455  0.1005 -0.0782 -0.1351
24928W        W67981  27.894  13.530  16.207 -0.1933  0.1794  0.1699
24929W        W67982   6.160  22.464  19.306  0.1716  0.1189  0.1673
24930W        W67983   0.492   8.352  20.055  0.1182 -0.0549 -0.0869
24931W        W67984   6.655  11.521  22.278 -0.3549 -0.1941 -0.0317
24932W        W67985  20.489   7.901  20.234  0.1356  0.1963 -0.0906
24933W        W67986  28.829  17.679  14.374  0.1036  0.1648  0.3056
24934W        W67987   2.980   7.312  15.029  0.0222  0.3071  0.0664
24935W        W67988  28.099  13.865  21.375 -0.1821 -0.2042  0.2843
24936W        W67989  29.421  32.973  16.271 -0.0534  0.2009 -0.3503
24937W        W67990   5.326   2.339  18.788  0.2724  0.3429 -0.0622
24938W        W67991   6.842  12.826  20.232  0.1371 -0.0300 -0.1845
24939W        W67992  15.403  24.072  17.170  0.1322  0.1313  0.0922
24940W        W67993  12.714  33.816  16.257 -0.1411  0.3686 -0.1961
24941W        W67994  23.794  27.897  27.307 -0.1127 -0.0494  0.0778
24942W        W67995  32.741  18.814  20.589 -0.0611 -0.0417  0.1041
24943W        W67996   2.538   4.965  18.663 -0.2825  0.3062 -0.0783
24944W        W67997  20.367  13.485  17.375  0.1206  0.0050  0.0712
24945W        W67998   6.309  15.767  26.343  0.0675 -0.0903 -0.3905
24946W        W67999   4.372  20.778  17.196  0.2375  0.2207  0.3915
24947W        W68000  10.775  21.666  28.466  0.0102 -0.1959 -0.0561
24948W        W68001  12.387  21.364  28.704 -0.2128  0.1735 -0.2197
24949W        W68002  25.175  16.222  22.852 -0.1951  0.0621 -0.0807
24950W        W68003   0.400  20.097   1.723 -0.1716 -0.1922 -0.0606
24951W        W68004   5.585   8.198  19.967  0.1015 -0.3056  0.0326
24952W        W68005  24.478   9.780  22.335  0.0208 -0.0178 -0.0442
24953W        W68006   7.272   3.498  25.529  0.1315 -0.0188  0.2060
24954W        W68007  32.611  13.407  19.891  0.1069 -0.1604 -0.0230
24955W        W68008  26.514   5.392  21.288  0.1711 -0.1895 -0.1161
24956W        W68009   4.813  22.582  19.333 -0.1193 -0.2221  0.2937
24957W        W68010  19.057  11.557  21.776  0.0662  0.3839 -0.0625
24958W        W68011   2.370  10.568  22.306  0.1764  0.1365  0.2493
24959W        W68012  33.747  24.156  17.178  0.1303  0.1584  0.0567
24960W        W68013  11.295  27.275  27.922 -0.3004 -0.0871 -0.2140
24961W        W68014   2.917  27.310  16.179  0.1170 -0.0582  0.1546
24962W        W68015   4.348  14.964  17.188 -0.0198 -0.1396 -0.1111
24963W        W68016   8.836  34.123  21.724 -0.0663  0.1803 -0.0289
24964W        W68017  19.716   3.469  22.268  0.0692  0.0021  0.0816
24965W        W68018  25.470  29.782  20.692  0.0117  0.2354 -0.1406
24966W        W68019   7.265   3.858  27.612 -0.0018 -0.1342 -0.0156
24967W        W68020   0.522   8.529  26.828  0.2048 -0.0485  0.0919
24968W        W68021   3.297  22.168  16.617  0.1563  0.3743  0.2969
24969W        W68022   4.880   8.608  20.374 -0.3467 -0.1623 -0.1352
24970W        W68023   5.556  19.643   1.947  0.1731 -0.3462  0.2408
24971W        W68024  31.785  33.389  13.356 -0.0932  0.3146  0.0188
24972W        W68025  30.852  33.433  24.973 -0.0019 -0.0684 -0.0298
24973W        W68026  30.964  20.440  21.887  0.4019  0.0278 -0.3540
24974W        W68027   6.656  24.032  18.673  0.2592  0.1376 -0.1407
24975W        W68028   2.133  21.178  19.382  0.0927  0.0563  0.0292
24976W        W68029   2.710  18.469  16.626 -0.2004 -0.2584  0.1264
24977W        W68030   3.958  12.351   0.887  0.1017  0.0328  0.1402
24978W        W68031  21.527  29.475  15.400  0.0259 -0.1747 -0.1023
24979W        W68032  14.587  28.920  20.275  0.2700  0.0542  0.0422
24980W        W68033  28.474   2.403  15.763  0.0093  0.2170 -0.0813
24981W        W68034   6.861  29.589  15.494  0.0224 -0.1511  0.3044
24982W        W68035   0.082  16.528  19.017 -0.1795  0.3633 -0.1213
24983W        W68036   8.742   7.871  22.762  0.0428  0.0943 -0.0280
24984W        W68037   6.847  16.634  13.579  0.5718 -0.1158 -0.2052
24985W        W68038   9.925  18.367  19.932 -0.1366  0.2614  0.0845
24986W        W68039   5.193  17.171  19.012  0.1325  0.4795 -0.1255
24987W        W68040  12.432  29.415  16.056 -0.2325 -0.0097  0.0063
24988W        W68041  32.647  18.747  17.741  0.4036 -0.0758 -0.0267
24989W        W68042  28.938  15.021  20.765 -0.0203  0.2776 -0.1012
24990W        W68043  11.519   1.351  16.916  0.2087 -0.3920 -0.1524
24991W        W68044  30.924  13.841  21.964 -0.2807 -0.0562  0.1816
24992W        W68045  14.296  30.197  19.143  0.1675  0.0816  0.1796
24993W        W68046   9.659   8.957  26.010 -0.0991  0.1169  0.2343
24994W        W68047  33.314  20.919  26.992 -0.1158  0.1618  0.2252
24995W        W68048  19.623   6.938  15.414  0.2345 -0.1708 -0.2994
24996W        W68049   7.387   7.341  19.368 -0.3134  0.0543 -0.1882
24997W        W68050   4.228  20.838   2.421  0.4125  0.1105 -0.2251
24998W        W68051   4.366  25.571   0.478 -0.0919  0.0055  0.0307
24999W        W68052   0.316  19.934  15.730  0.3851 -0.1859  0.0759
25000W        W68053   7.936   5.425  23.052  0.0724 -0.0123  0.0069
25001W        W68054  30.490  14.646  26.025  0.1993  0.1882  0.2547
25002W        W68055  14.001   8.621  22.616  0.0286 -0.1775 -0.0386
25003W        W68056  28.773   5.169  15.711 -0.2593  0.0037  0.0367
25004W        W68057   5.980  18.578  18.161  0.1400 -0.2022 -0.0045
25005W        W68058  12.946   0.870  25.935  0.1766  0.0413  0.0828
25006W        W68059   2.242  13.331  17.137  0.3162  0.4771  0.1714
25007W        W68060   9.369  11.931  28.218  0.0690  0.0992  0.0059
25008W        W68061   0.090   2.142  20.821 -0.1838  0.2037  0.1719
25009W        W68062  15.455  11.705  15.404  0.1040  0.0423 -0.6225
25010W        W68063  26.535  13.022  17.167 -0.0558 -0.0994 -0.1409
25011W        W68064   9.071  23.892  21.539 -0.5128  0.3659 -0.2955
25012W        W68065   3.144   2.035  20.299 -0.3166 -0.2918 -0.1320
25013W        W68066  20.900  13.583  15.512  0.1603 -0.1199 -0.0583
25014W        W68067  29.839  25.079  28.835  0.1503  0.0271  0.0770
25015W        W68068  15.225  20.403  27.040 -0.0770 -0.0435 -0.0551
25016W        W68069  16.990  29.094  19.505  0.0310 -0.0866  0.2509
25017W        W68070  31.086   6.332  18.376  0.2769 -0.0539 -0.0424
25018W        W68071  20.935  22.609  14.896 -0.1191  0.2974  0.1295
25019W        W68072  14.390  20.547  19.056 -0.0323  0.0535 -0.0038
25020W        W68073  33.039   9.797  27.329  0.1050 -0.0245  0.1961
25021W        W68074   0.638   0.593  20.418 -0.0831 -0.0738  0.0518
25022W        W68075  12.526   0.898  22.189  0.2051  0.2562 -0.1353
25023W        W68076  17.726  27.794   1.033  0.2631 -0.2526  0.0022
25024W        W68077   5.987  10.574  25.580  0.0825 -0.4935 -0.2692
25025W        W68078  34.262  19.550  23.944  0.0292 -0.3760  0.1732
25026W        W68079  17.484   1.833  27.656 -0.1459 -0.2882  0.0033
25027W        W68080   2.037   9.479  27.109 -0.1089  0.0873  0.0907
25028W        W68081   5.385  21.234  15.197 -0.0655  0.0539 -0.0120
25029W        W68082  13.289  15.605  28.390 -0.0340 -0.0399  0.2478
25030W        W68083  12.616  13.755  26.989  0.1687  0.0788 -0.0125
25031W        W68084   6.521  18.589  28.588  0.0064 -0.0696  0.0221
25032W        W68085   0.625  18.722  19.698  0.1541  0.2164  0.0001
25033W        W68086  15.551  12.890  14.753  0.0097  0.2483  0.2688
25034W        W68087  31.707   7.988  14.919 -0.5189 -0.1965 -0.0082
25035W        W68088  11.555  28.845  23.082  0.1567 -0.0299 -0.0128
25036W        W68089  20.278  20.703  21.647 -0.0764 -0.0969 -0.1147
25037W        W68090  28.990  27.319  23.474  0.1763 -0.1582  0.1846
25038W        W68091   2.499  27.718  14.097  0.1612 -0.1298  0.1075
25039W        W68092  14.697   3.260  19.165  0.0765 -0.1142  0.1438
25040W        W68093  10.069  21.493  18.946 -0.0786  0.2418 -0.1013
25041W        W68094   7.533   6.369  18.423 -0.1646  0.1880 -0.2434
25042W        W68095   7.750   8.912   5.652  0.0116  0.1827  0.1712
25043W        W68096  25.466  21.211  22.285 -0.4444  0.0383 -0.0435
25044W        W68097  20.506  11.328  24.663  0.1789 -0.1840  0.1416
25045W        W68098  33.749   2.133  28.277  0.0668  0.3450 -0.0514
25046W        W68099   1.605  12.160  15.596  0.0147 -0.1905  0.0117
25047W        W68100  29.063  12.919  19.051 -0.0520 -0.0432  0.2491
25048W        W68101  14.112  12.526  20.613  0.1005 -0.1755 -0.1755
25049W        W68102   1.594  10.560  21.783  0.0219  0.0559  0.1387
25050W        W68103  26.503  15.661  13.897 -0.0166 -0.3153  0.0485
25051W        W68104  24.958  11.671  15.526  0.3037  0.1433 -0.5753
25052W        W68105  18.811   8.541  19.679  0.0120  0.2404 -0.0594
25053W        W68106  18.134  17.886  15.183  0.0246  0.1131 -0.2248
25054W        W68107   0.152   4.232  20.988  0.0375  0.0399 -0.0434
25055W        W68108   0.425  13.976  15.013 -0.2025 -0.3112 -0.0546
25056W        W68109   5.175  26.433  14.312 -0.1046 -0.3517  0.0742
25057W        W68110  19.562  11.923  15.045 -0.1781  0.1124 -0.0457
25058W        W68111   2.895   5.861   1.669 -0.3840  0.0910 -0.0144
25059W        W68112   7.820   7.080  22.581  0.0539  0.5122  0.0462
25060W        W68113  11.055   4.786  17.088 -0.1790  0.0496  0.2931
25061W        W68114  13.604  23.984  17.873  0.1140 -0.3382  0.0602
25062W        W68115   5.896  12.855  15.475  0.0375  0.1459  0.1292
25063W        W68116  31.077   0.029  17.070 -0.3727  0.0598  0.1333
25064W        W68117  15.069   7.661  15.738  0.1329 -0.4516  0.2527
25065W        W68118  32.324  23.569  19.942 -0.0505 -0.1316  0.0754
25066W        W68119  27.815   9.383  18.515  0.1860 -0.2438 -0.3158
25067W        W68120   1.076  29.197  14.780  0.1710 -0.1946 -0.0244
25068W        W68121   1.222  25.065  22.112  0.2003 -0.0075 -0.2971
25069W        W68122   4.623   9.912  15.558 -0.3139  0.0441 -0.2438
25070W        W68123   6.633   3.930  24.338  0.3795 -0.0831  0.1900
25071W        W68124   9.420   9.670  17.440 -0.1052 -0.1493 -0.1294
25072W        W68125  16.387  11.365  16.831  0.0169 -0.0076  0.3491
25073W        W68126   5.328   8.554  27.922  0.2475 -0.1494 -0.1135
25074W        W68127  27.730   8.572  28.463 -0.0126  0.0502  0.0970
25075W        W68128  14.894   7.424  27.735 -0.2896 -0.0934  0.0698
25076W        W68129   3.168   8.730  17.022 -0.1110 -0.0571  0.0933
25077W        W68130  10.784  13.221   4.807  0.1169  0.0022 -0.2306
25078W        W68131  26.027  19.288  16.108 -0.0869 -0.0657 -0.2314
25079W        W68132  33.138  29.105  18.786  0.2017 -0.0240  0.1504
25080W        W68133  33.064  31.949  14.504  0.0766 -0.0769  0.1646
25081W        W68134   1.536  11.393  17.093 -0.1570 -0.3870  0.0388
25082W        W68135  22.699  12.992  14.062 -0.1144  0.0290  0.0475
25083W        W68136  10.170  25.518  14.198 -0.0020 -0.1765 -0.2084
25084W        W68137  10.416  16.534  20.431  0.0868 -0.1126 -0.1804
25085W        W68138  26.164   6.920  27.067 -0.1400  0.2785  0.2975
25086W        W68139  33.336  15.118  22.439 -0.5063 -0.1912  0.0041
25087W        W68140   4.938  12.591  14.194  0.0802  0.2806  0.2896
25088W        W68141   6.648   1.237  23.195  0.0102  0.0138 -0.1188
25089W        W68142   0.713  24.754   0.313  0.2800  0.1037 -0.4730
25090W        W68143  22.365  15.505  14.181  0.3734 -0.0002  0.0896
25091W        W68144  28.713   5.044  19.669  0.1492  0.0442 -0.1070
25092W        W68145  29.319   8.681  15.924  0.0237  0.2933 -0.1609
25093W        W68146   2.042  22.135  13.666  0.0126  0.2353  0.0845
25094W        W68147  27.739  32.394  17.155 -0.2881 -0.1320 -0.1937
25095W        W68148   6.054   5.860  17.802  0.4592 -0.1434 -0.3071
25096W        W68149   0.506  22.837  20.470  0.1150  0.0793 -0.2242
25097W        W68150  15.752  27.121  18.041 -0.1803  0.0343  0.0581
25098W        W68151  30.236  10.420  18.557 -0.1552 -0.2808  0.0795
25099W        W68152   3.720   8.378  14.240 -0.1263  0.2479  0.1091
25100W        W68153  11.159   9.680   0.162 -0.2928 -0.0263 -0.0629
25101W        W68154   2.353   5.222  19.940 -0.0725 -0.0299 -0.2137
25102W        W68155  33.134  13.753  24.016  0.3444 -0.0633  0.1004
25103W        W68156  11.113  26.389  19.154 -0.0762 -0.2720  0.2043
25104W        W68157   0.091   3.679   9.361 -0.0641 -0.0141 -0.1282
25105W        W68158   9.897  15.124  21.134  0.0008  0.2742  0.1538
25106W        W68159   1.117  18.198  24.436  0.0638  0.0585  0.2039
25107W        W68160   8.716  10.157  24.123  0.0547 -0.1338  0.1574
25108W        W68161   6.927  25.447  21.092 -0.1928 -0.1415  0.0140
25109W        W68162   7.735   0.252  14.640 -0.1678 -0.0325  0.4288
25110W        W68163   4.364  18.153  15.875 -0.2222 -0.0373 -0.2364
25111W        W68164   7.482  11.070  18.574 -0.3167  0.0476  0.0684
25112W        W68165  32.393   5.938  21.443 -0.0400 -0.4089  0.0063
25113W        W68166  12.197  13.237  19.491  0.2715 -0.2291 -0.1559
25114W        W68167  12.963   4.181   9.322  0.1198 -0.0270  0.0264
25115W        W68168   4.461  26.816  20.499 -0.0156 -0.1475  0.0468
25116W        W68169   9.119  22.267   0.079 -0.0875 -0.2151  0.3653
25117W        W68170   1.993  28.797  22.555 -0.1088 -0.2377 -0.1390
25118W        W68171   2.282  11.228  27.779  0.1407  0.0989 -0.0043
25119W        W68172  10.260  10.856  20.673  0.0751  0.1784  0.1603
25120W        W68173   2.321   4.579   1.428  0.2748 -0.0033  0.0192
25121W        W68174  24.434   2.688  25.802  0.0394  0.1752  0.1177
25122W        W68175   1.161   3.722  21.914  0.3685 -0.2532 -0.2507
25123W        W68176  33.299  25.619  14.968  0.1197 -0.1441  0.4658
25124W        W68177   7.081  34.204  13.869 -0.1157 -0.1187  0.2452
25125W        W68178  33.891  10.094  15.965 -0.4142  0.1865  0.2658
25126W        W68179   2.943   2.662  24.001  0.2826  0.0771  0.1352
25127W        W68180  20.763  16.414  15.188  0.1547  0.1539 -0.1456
25128W        W68181  21.864   0.138  17.010  0.1795 -0.0610  0.0291
25129W        W68182   6.454  14.496  19.740 -0.2539 -0.0482 -0.0226
25130W        W68183  20.127  11.297  27.093 -0.0378 -0.2476  0.1505
25131W        W68184  21.752  21.085  15.207  0.0794  0.0238 -0.1429
25132W        W68185   6.352   6.460  21.679 -0.1595  0.2132 -0.0278
25133W        W68186  22.305  12.684  17.049  0.0907  0.0318  0.1723
25134W        W68187  10.206  12.661  27.330  0.0941 -0.3725 -0.0137
25135W        W68188  24.706  31.364  15.461 -0.0421  0.2532 -0.0916
25136W        W68189   4.682  14.300  14.088 -0.1080 -0.0782  0.0757
25137W        W68190   5.414  16.000  15.702 -0.2449  0.3192 -0.0993
25138W        W68191  13.667   5.944  23.838  0.1566  0.2172  0.0389
25139W        W68192  33.730  22.353  21.622  0.1054  0.2384  0.3303
25140W        W68193   6.571  22.728  24.385  0.2651 -0.0788 -0.0646
25141W        W68194   2.551  17.915  22.547  0.4181  0.0912 -0.0523
25142W        W68195  10.756   7.357  25.450  0.3685 -0.1334  0.0182
25143W        W68196  15.207  10.516   0.645 -0.0847 -0.4768  0.0079
25144W        W68197  27.513  29.804  17.635  0.1376 -0.0808 -0.0435
25145W        W68198  16.018  10.586  24.594  0.3598 -0.1804  0.2913
25146W        W68199  12.187  17.964   7.057  0.1096 -0.0792 -0.2131
25147W        W68200  15.040  20.303  15.710  0.1234  0.1684  0.0947
25148W        W68201  33.416  24.296  27.957  0.0977 -0.0585 -0.3019
25149W        W68202  14.895   7.494  29.053  0.1219 -0.2827  0.2125
25150W        W68203   6.514  33.122  16.596  0.1770 -0.2512  0.0368
25151W        W68204  31.634  12.236  14.831 -0.3312  0.2133 -0.0871
25152W        W68205   9.749  18.552  19.506 -0.3609  0.0338 -0.1024
25153W        W68206  31.381  23.676   3.803  0.0139 -0.3893 -0.1746
25154W        W68207   1.065  22.794  19.425  0.0632  0.3915 -0.1194
25155W        W68208   7.323  22.497  16.381 -0.4806  0.2333  0.2224
25156W        W68209   1.251  13.317  19.112  0.0217  0.2930  0.1096
25157W        W68210  29.854  13.093  16.936  0.1441  0.0904 -0.3440
25158W        W68211  10.406  10.661   0.880  0.1310  0.1218 -0.3594
25159W        W68212  12.543  14.534  15.370 -0.1556  0.1746 -0.1859
25160W        W68213  32.517   8.187  14.386 -0.2135  0.1433 -0.1268
25161W        W68214   8.222  24.243  15.115  0.3457 -0.0416  0.3231
25162W        W68215  33.263   5.195  23.241 -0.1461 -0.2881 -0.2001
25163W        W68216  33.306  27.789   4.304  0.1300  0.1864  0.4037
25164W        W68217   7.879   2.112  17.253 -0.2663  0.0364 -0.0188
25165W        W68218  26.287  20.502  23.562 -0.0298 -0.3943  0.0307
25166W        W68219   2.157  21.587  17.447 -0.1014 -0.0602 -0.0441
25167W        W68220  33.436   7.519  24.427 -0.0069  0.0344 -0.0744
25168W        W68221   1.675  13.802   5.649 -0.0057  0.1849  0.0615
25169W        W68222   9.845  23.159  19.295 -0.0748  0.0920  0.3016
25170W        W68223  25.786  19.283  21.941  0.0155  0.1303  0.1242
25171W        W68224  12.433  12.878  18.271  0.0701  0.0123  0.2729
25172W        W68225  34.488   4.502   5.340  0.2727  0.1207 -0.0500
25173W        W68226   5.324  15.826  13.556  0.2505 -0.2223 -0.1461
25174W        W68227  11.588  33.882  21.807  0.0739 -0.1798  0.0078
25175W        W68228   5.832  31.518  23.628 -0.0627 -0.2063  0.2087
25176W        W68229   0.434   8.518   1.713  0.1915 -0.1460  0.0902
25177W        W68230   2.321   7.635  14.399  0.0111 -0.0438  0.1278
25178W        W68231   3.626  16.030  20.809 -0.0496  0.0818  0.1562
25179W        W68232   4.962  30.076  17.596 -0.3900  0.1451 -0.2958
25180W        W68233  18.943  10.528  17.013 -0.4462 -0.1630  0.1542
25181W        W68234  14.626  13.323  14.663  0.1451 -0.4674  0.0755
25182W        W68235  33.827   9.787   5.110 -0.2134 -0.0319 -0.0835
25183W        W68236   3.428   8.508  24.060  0.0735  0.1725 -0.2814
25184W        W68237  29.569  31.940  20.673 -0.3990 -0.4687  0.1602
25185W        W68238   9.165  15.149  21.803 -0.4267 -0.1694 -0.4504
25186W        W68239   4.749  10.552  22.865  0.2166  0.0796  0.1244
25187W        W68240   3.375  21.495  13.594 -0.0315 -0.0504 -0.1582
25188W        W68241  25.345   7.270  25.090 -0.0223 -0.0854 -0.0093
25189W        W68242  31.519   1.053  14.350 -0.2045 -0.0834  0.0776
25190W        W68243  23.730  10.099  16.143 -0.1017  0.4531 -0.1995
25191W        W68244   8.399  24.730  17.099 -0.1147 -0.3106  0.2588
25192W        W68245   9.004  18.021  21.518 -0.1223 -0.3027 -0.0924
25193W        W68246  18.941  21.271  13.226 -0.0457  0.3462 -0.2537
25194W        W68247   2.570  11.532  14.580 -0.0450  0.0749  0.0578
25195W        W68248  31.722  31.178  25.110 -0.2769 -0.1311 -0.1935
25196W        W68249  29.884   9.877  27.398 -0.1299 -0.1867 -0.0290
25197W        W68250  30.007  17.002  15.428 -0.2224  0.0068 -0.0706
25198W        W68251  29.385  20.560   0.585  0.1052  0.0888  0.1503
25199W        W68252  32.844  29.248  17.560 -0.2124 -0.0979 -0.0138
25200W        W68253  33.329   3.403   1.956  0.0658 -0.0952 -0.2822
25201W        W68254  15.085  23.037  21.867  0.2420 -0.1604  0.2088
25202W        W68255   4.070  25.019   3.441 -0.1980 -0.2371 -0.0307
25203W        W68256   8.943  19.177  17.145  0.1198  0.2196  0.3693
25204W        W68257  11.646   7.682  25.934 -0.2622 -0.1518  0.1472
25205W        W68258  14.607  13.308  17.436 -0.0692 -0.2864 -0.0125
25206W        W68259  21.972  21.054  25.369 -0.1055 -0.0639 -0.1920
25207W        W68260   3.169  16.669  16.567 -0.1426  0.0394  0.1029
25208W        W68261  15.974   6.769  18.977 -0.1514  0.2063 -0.1309
25209W        W68262  15.323   7.249  15.564  0.2151 -0.0810  0.0345
25210W        W68263  34.659  18.878  18.851 -0.0403  0.2773  0.3276
25211W        W68264  15.228   1.408  15.109  0.1917 -0.0790  0.0569
25212W        W68265   7.708   8.954  18.671 -0.2192 -0.1690 -0.1668
25213W        W68266   5.305   9.874  28.264 -0.1731 -0.2112 -0.0508
25214W        W68267  33.309   9.536  24.346  0.1351  0.2283  0.1167
25215W        W68268  11.553   6.414  23.829 -0.0102 -0.1331 -0.0936
25216W        W68269  34.119  11.689  23.065 -0.3275 -0.2383 -0.1356
25217W        W68270   1.282  24.539  17.659  0.0197  0.1341 -0.1877
25218W        W68271   7.079  17.220   0.484  0.0558 -0.1891  0.0239
25219W        W68272  22.147  14.955  22.044 -0.0336  0.0606  0.0398
25220W        W68273  34.332   9.469  14.622 -0.0209  0.1164  0.2257
25221W        W68274   5.028   8.808  18.537  0.0004 -0.0307 -0.0585
25222W        W68275  30.387  11.711   0.381 -0.2495 -0.2880  0.2660
25223W        W68276  20.469   3.354  25.428 -0.1657 -0.1916  0.1447
25224W        W68277  15.532   8.549  22.858  0.2405 -0.1383 -0.2696
25225W        W68278   3.819  16.833  21.404 -0.0457 -0.1653  0.1655
25226W        W68279  12.058   4.862  16.187 -0.1696 -0.0715 -0.0564
25227W        W68280  16.725  25.924  23.417 -0.0831  0.3012 -0.1778
25228W        W68281   9.573  18.346  17.589 -0.2285  0.0213  0.2054
25229W        W68282   0.839   5.232  28.257  0.2471 -0.2192  0.2579
25230W        W68283  34.106   7.456   0.141  0.0578 -0.3030  0.1685
25231W        W68284   2.290  15.706  17.887  0.1530 -0.0317  0.3150
25232W        W68285  32.277  12.469  20.949  0.0235  0.0084  0.0389
25233W        W68286   7.152  14.198  23.925  0.0101 -0.3248  0.3196
25234W        W68287  30.775  12.111  17.503  0.1681  0.0582 -0.1708
25235W        W68288  10.587   4.742  18.529 -0.5284  0.1320  0.0633
25236W        W68289  30.670   5.466  19.985 -0.0488  0.3334 -0.2614
25237W        W68290   0.267   9.853  16.222  0.1851  0.2020 -0.0672
25238W        W68291  13.145   6.498   3.700 -0.0612  0.0150 -0.1471
25239W        W68292  14.450   1.300  24.169  0.1111 -0.0284 -0.0015
25240W        W68293  17.985   5.759  22.060 -0.0313 -0.1876  0.2855
25241W        W68294  17.291  25.643  15.882 -0.0294  0.0125  0.0573
25242W        W68295  10.898  13.225  20.087 -0.0574 -0.2989  0.2674
25243W        W68296  10.787   5.242  24.241  0.0244  0.1453  0.1572
25244W        W68297   5.456   6.429  28.769 -0.1056  0.0669 -0.0360
25245W        W68298   3.171  15.435   5.833  0.0474 -0.0334  0.2932
25246W        W68299  24.377   7.472  14.423 -0.1019 -0.1400 -0.1661
25247W        W68300   4.980  22.120  14.921 -0.0880  0.0446 -0.0685
25248W        W68301  17.759  34.247  15.349 -0.0491 -0.2355  0.0654
25249W        W68302   6.710  22.450   2.717 -0.0741 -0.3045  0.3802
25250W        W68303  30.260  16.001  29.072  0.0717  0.0113  0.1774
25251W        W68304   0.858  19.139  25.617 -0.0351  0.0967  0.4256
25252W        W68305  33.115  15.746  24.635 -0.0511  0.2588 -0.0682
25253W        W68306   1.325  18.137  18.654  0.0492 -0.0055  0.2551
25254W        W68307   2.693   1.392  20.506 -0.1085 -0.2706 -0.2607
25255W        W68308  32.729   9.240  15.159 -0.0681 -0.0255 -0.0850
25256W        W68309  10.078   6.835  22.573 -0.2543  0.2177 -0.2042
25257W        W68310  11.292  31.437  17.647 -0.1419  0.3141  0.1851
25258W        W68311   4.583  34.399  17.801 -0.3082  0.2449  0.1277
25259W        W68312  12.350   3.290  20.060  0.2668 -0.2802 -0.3009
25260W        W68313   4.630  24.869  18.993 -0.0436 -0.1651 -0.1572
25261W        W68314  14.040  28.439  15.130 -0.2174 -0.3602  0.0349
25262W        W68315  31.060   0.617  20.047 -0.0325 -0.0229  0.0668
25263W        W68316   1.267  19.475  17.516  0.0958 -0.1676  0.4087
25264W        W68317   8.630  31.431  15.440  0.3093 -0.0851  0.0787
25265W        W68318   5.753   5.068  27.663 -0.0779  0.1414 -0.0545
25266W        W68319  11.201  14.618  20.856  0.3453 -0.1009  0.1769
25267W        W68320   8.986   6.553   2.208  0.1973 -0.3668  0.0875
25268W        W68321   2.682  28.176  18.065 -0.4299  0.1668 -0.2680
25269W        W68322   9.284  30.041  14.282 -0.0753  0.1072  0.1654
25270W        W68323   5.149  18.653  17.610 -0.3823 -0.1796 -0.0612
25271W        W68324  10.482  24.723  26.722 -0.2134  0.2544  0.2355
25272W        W68325   1.038  13.850   0.388 -0.2508  0.3201  0.1236
25273W        W68326  16.905   0.423  15.948 -0.0626  0.1631  0.0986
25274W        W68327  19.056   5.483  24.019 -0.0073 -0.1380  0.0810
25275W        W68328  18.235  14.045  14.516  0.1274 -0.0158  0.2598
25276W        W68329  34.599  24.546  23.195 -0.0483  0.0862  0.0982
25277W        W68330  13.160  12.447  16.523  0.4650 -0.0714  0.0796
25278W        W68331   3.163  13.045  14.386 -0.1274 -0.1030 -0.1205
25279W        W68332   5.077   9.384  14.674 -0.0183  0.1055  0.1199
25280W        W68333  26.896  15.362  13.920  0.2111 -0.1666  0.0299
25281W        W68334  28.479  10.650  20.962 -0.2229 -0.1512  0.0859
25282W        W68335  18.720   7.493  28.006  0.2485  0.1504  0.0020
25283W        W68336  16.996   4.189   3.166 -0.0392 -0.0956 -0.4493
25284W        W68337  16.312   6.031  21.434 -0.0525 -0.1806 -0.1886
25285W        W68338  31.254  10.209  20.495 -0.0891 -0.1526  0.1016
25286W        W68339   9.591  17.099  20.813 -0.3199 -0.0500  0.1692
25287W        W68340  18.971  11.326  27.258  0.2742 -0.1481 -0.2970
25288W        W68341   7.252  16.376  27.042 -0.0071 -0.2244 -0.4013
25289W        W68342   8.190  18.021  23.169  0.1476 -0.1783  0.4314
25290W        W68343   2.664  13.825  21.252  0.0874  0.0802  0.0983
25291W        W68344   2.089   6.141   1.895  0.2665  0.1662 -0.0610
25292W        W68345   0.383  17.015  22.235  0.1859 -0.1237 -0.1225
25293W        W68346  10.917  10.213  18.397 -0.2056 -0.2947  0.3852
25294W        W68347  17.772   9.544  24.655  0.0632 -0.0627  0.0275
25295W        W68348  11.713   3.625  17.796  0.1823 -0.1661  0.2696
25296W        W68349  14.584   4.118  19.861  0.0936  0.0365  0.1428
25297W        W68350   5.873  10.575  28.713 -0.2890 -0.0497 -0.3203
25298W        W68351  19.383  30.171  16.529 -0.2638 -0.0647  0.2356
25299W        W68352   9.537  20.495  17.741 -0.0501  0.2677  0.0913
25300W        W68353  21.160   9.053  22.012  0.0960 -0.3062  0.2049
25301W        W68354  33.459   9.958  23.224  0.2372 -0.0447 -0.0853
25302W        W68355  31.809   7.933  25.271  0.0242 -0.3026  0.1247
25303W        W68356  14.907  22.788  27.966 -0.3100  0.3462 -0.0694
25304W        W68357  29.090  22.940  17.842 -0.1905  0.0353 -0.0843
25305W        W68358   0.457  25.956  24.053  0.0302  0.0951 -0.0081
25306W        W68359   0.270  33.697  13.734 -0.2129 -0.0068 -0.0140
25307W        W68360   5.594  12.395  14.718 -0.0829 -0.0988  0.0302
25308W        W68361  12.341  10.418  25.337 -0.1831 -0.0426 -0.1180
25309W        W68362  28.299   9.180  20.504  0.0501 -0.2195  0.1789
25310W        W68363   3.483  16.521  27.168  0.1225 -0.2097  0.0931
25311W        W68364  33.059  12.598  21.239  0.1961  0.1057  0.0807
25312W        W68365   2.610  12.061  21.115 -0.0862  0.0429 -0.0495
25313W        W68366   6.217  10.422  18.156  0.2041 -0.1970  0.3195
25314W        W68367  14.784   9.966  26.350 -0.2360  0.0559  0.2643
25315W        W68368  25.702   7.220  24.561 -0.1219 -0.1218  0.0661
25316W        W68369  26.880  17.532  23.991 -0.1883 -0.0848 -0.0577
25317W        W68370   6.108  12.135  17.307 -0.4302  0.1459 -0.0827
25318W        W68371  29.205  24.020  23.880 -0.3241 -0.0803 -0.2905
25319W        W68372  24.686  19.903  25.174  0.0969  0.1472  0.0839
25320W        W68373  23.303  16.394   8.493 -0.1232  0.0850 -0.2966
25321W        W68374  31.949   7.259  16.382  0.0980  0.0961 -0.0384
25322W        W68375   2.231   7.815  15.369  0.3613 -0.0123 -0.1530
25323W        W68376  33.356  28.523  14.605 -0.1272  0.1627 -0.0057
25324W        W68377  21.893   3.313  16.016 -0.0645  0.1413  0.1451
25325W        W68378   1.216  27.511  23.163  0.0005  0.3697 -0.2934
25326W        W68379   0.151  11.464  16.787  0.0874 -0.3092  0.2139
25327W        W68380  21.147   6.193   6.294 -0.1319  0.2453 -0.0473
25328W        W68381  15.224  18.679  22.150  0.1314  0.1038  0.0334
25329W        W68382   3.569  15.149  21.642  0.2338 -0.0540 -0.1605
25330W        W68383   1.747   4.614  19.729 -0.0722  0.1454  0.3713
25331W        W68384  25.842  20.584  25.670 -0.1617  0.0523 -0.0695
25332W        W68385   6.551  29.731  13.773  0.3152 -0.0735 -0.0160
25333W        W68386  15.009   0.143   0.904  0.1213  0.0957 -0.0003
25334W        W68387  23.830   2.928   1.722  0.2512  0.0543  0.0420
25335W        W68388   3.434  31.504  19.842 -0.0559  0.2212  0.0400
25336W        W68389  12.351  23.240  27.167 -0.1792 -0.1521 -0.1897
25337W        W68390   3.162  10.766  18.834  0.0375 -0.1129  0.1580
25338W        W68391  14.722   1.906  17.711 -0.1260  0.0767  0.0195
25339W        W68392  32.228   9.523  25.455  0.1271  0.1946  0.1195
25340W        W68393   9.997   2.283  17.550 -0.4381  0.1775  0.2683
25341W        W68394   9.041  18.441   7.906 -0.1573  0.0634 -0.1068
25342W        W68395  15.671  18.051  13.801 -0.1558  0.1323 -0.2349
25343W        W68396  11.005  16.502   7.701 -0.0479  0.3755 -0.0492
25344W        W68397   8.314  13.902  17.192 -0.0690 -0.2314  0.0006
25345W        W68398  27.440   6.706   2.102  0.0235  0.2652  0.1082
25346W        W68399   7.749  12.893  16.588  0.1112 -0.1245  0.0614
25347W        W68400   6.420  25.354  19.299  0.2879 -0.2341 -0.2310
25348W        W68401   7.504  19.908  13.768 -0.3617  0.1104 -0.2013
25349W        W68402   5.985  15.173  14.741 -0.0741  0.2154  0.0231
25350W        W68403   5.475   7.173  16.892  0.0893 -0.0284  0.3655
25351W        W68404   9.834   9.514  15.485 -0.2550  0.1181  0.0775
25352W        W68405  14.039   2.414  15.311  0.1448 -0.1004 -0.0340
25353W        W68406  29.022  27.665  27.569  0.0947 -0.0103 -0.1503
25354W        W68407   1.522  20.126  21.136  0.1438 -0.0635  0.0559
25355W        W68408  23.290   1.248  14.233  0.0116 -0.1213 -0.2340
25356W        W68409  30.026  19.095   3.006 -0.1160 -0.2706  0.2177
25357W        W68410   3.603   5.508  22.715 -0.2576 -0.0820  0.0381
25358W        W68411  20.029  22.324  16.230 -0.2709 -0.0074 -0.0415
25359W        W68412   3.303   3.512   1.961 -0.0307  0.2823  0.2492
25360W        W68413  33.617  10.392  27.916  0.1149 -0.0167 -0.1660
25361W        W68414  29.895  13.641  17.477 -0.2248 -0.0479 -0.0304
25362W        W68415  34.451  33.620  14.053 -0.1752  0.0370 -0.1335
25363W        W68416   0.480  27.114  22.077 -0.1563 -0.0771 -0.0366
25364W        W68417   9.021  16.131   9.596  0.0969  0.0643  0.2026
25365W        W68418   0.889   7.330  21.260  0.1232 -0.2451 -0.0964
25366W        W68419   1.871   8.499   2.230  0.1715  0.2307  0.1998
25367W        W68420   5.509  14.703  15.991  0.1057  0.0699  0.2361
25368W        W68421  10.473  11.921  17.516  0.2284  0.3022  0.2750
25369W        W68422  31.372  32.110   6.985  0.0377  0.1222  0.1614
25370W        W68423  30.724   1.426  23.791  0.1028 -0.1645  0.0101
25371W        W68424  30.650  13.002  22.995  0.4461 -0.0686  0.3481
25372W        W68425  33.028   5.597  23.117 -0.0366  0.1666 -0.1328
25373W        W68426   5.467  29.825  14.961 -0.3623 -0.0965 -0.3109
25374W        W68427  19.716   9.624  14.967  0.0444 -0.1897  0.0595
25375W        W68428  29.000  34.232  17.306 -0.1272 -0.0562  0.1601
25376W        W68429   3.657  34.627  17.319 -0.0085  0.0644 -0.1699
25377W        W68430  29.003  16.384  22.669 -0.0115 -0.1233  0.0690
25378W        W68431   6.748   2.772  19.315  0.1378  0.1567 -0.0576
25379W        W68432   5.681   3.370  15.139 -0.0188  0.2081 -0.3257
25380W        W68433  14.196  18.131   1.012  0.1138  0.2055  0.4349
25381W        W68434   5.671   4.902  22.202  0.1600  0.1146 -0.1286
25382W        W68435  15.885   9.536  15.034  0.3707 -0.0584 -0.2929
25383W        W68436  13.485  17.913  27.110  0.2521  0.1042 -0.0643
25384W        W68437  21.610  23.888  25.299 -0.0724 -0.0773  0.0235
25385W        W68438   0.239   7.894  24.234 -0.1607 -0.0718 -0.1778
25386W        W68439  15.776   1.641  21.135  0.1275  0.1283  0.0233
25387W        W68440  19.658  30.743  15.278 -0.4112 -0.0365  0.3910
25388W        W68441   8.878  22.777  19.306  0.0508 -0.0180 -0.2809
25389W        W68442   1.672  12.949  17.784 -0.0846 -0.2117  0.0561
25390W        W68443  10.708  20.711  23.290  0.1048 -0.2449 -0.0682
25391W        W68444  11.193   3.533  21.538 -0.0569  0.0332  0.2433
25392W        W68445   6.529   0.700  22.293  0.0076  0.1349 -0.0101
25393W        W68446  18.941  21.515  22.905  0.1975 -0.3960  0.0790
25394W        W68447   1.034   7.617  16.529 -0.1359 -0.1798 -0.0649
25395W        W68448   1.336  23.183  16.808  0.4332 -0.0131 -0.2479
25396W        W68449   1.820  23.712  28.903 -0.1217  0.0426 -0.0596
25397W        W68450   5.414  26.663  19.855  0.2956  0.1017  0.2145
25398W        W68451   6.014  20.020  22.190 -0.1529  0.0317  0.0013
25399W        W68452  28.674   2.723  20.544 -0.1245  0.0065  0.2840
25400W        W68453  10.336   2.584   2.999  0.0190  0.2784 -0.0560
25401W        W68454   3.916  15.906  18.139 -0.1258 -0.2680 -0.0025
25402W        W68455  32.340  17.492  21.803 -0.0604 -0.3138 -0.2344
25403W        W68456  30.304  18.483  16.875 -0.3486 -0.0362  0.2135
25404W        W68457  31.038   8.331   7.490 -0.1223  0.1094 -0.0248
25405W        W68458  29.188   1.558  25.878  0.1273 -0.3590 -0.0625
25406W        W68459   6.504   8.845  23.699 -0.0697 -0.3600 -0.1134
25407W        W68460   2.278  16.278   9.269  0.1570  0.0086  0.0155
25408W        W68461  22.404   2.335  14.877  0.3530 -0.1950 -0.0837
25409W        W68462   4.637   5.530  28.545  0.0690 -0.1645 -0.0079
25410W        W68463  19.421  27.663  18.810 -0.0781 -0.2681 -0.1944
25411W        W68464  15.425   6.813  21.926  0.0091  0.0060  0.0755
25412W        W68465  29.033  10.726   1.188 -0.0562  0.3641  0.1230
25413W        W68466   6.546   6.751  22.070 -0.1542  0.1236  0.0340
25414W        W68467   6.596  15.717  16.438 -0.3330  0.0099  0.0634
25415W        W68468  14.451  10.081  17.505 -0.0795  0.3366 -0.0807
25416W        W68469  14.127  18.060  16.789 -0.1213  0.1070 -0.2462
25417W        W68470  20.587  27.886  15.826 -0.0343  0.2881  0.3186
25418W        W68471   6.875   8.720  17.330 -0.2058  0.4018  0.0148
25419W        W68472  32.998  20.035  18.087  0.1610 -0.2567  0.0108
25420W        W68473  11.283  13.643  26.257 -0.2333 -0.1698 -0.0315
25421W        W68474  14.133  30.411  17.087 -0.0833 -0.0311 -0.0252
25422W        W68475  12.492  20.040  14.523  0.0982  0.1758  0.1150
25423W        W68476  16.030  24.780  22.191  0.0619 -0.0277  0.2493
25424W        W68477   2.058  32.634  23.001  0.0036  0.2193 -0.0929
25425W        W68478   9.512   0.683  17.709  0.0453 -0.3157  0.2998
25426W        W68479   0.069  28.787  15.947 -0.3450 -0.1156  0.0300
25427W        W68480  16.358  11.251   2.173 -0.1796  0.2684  0.1261
25428W        W68481   0.968   0.689  19.940  0.1295  0.1669 -0.2507
25429W        W68482   7.206   7.431  17.008  0.2460  0.0046  0.2757
25430W        W68483   8.367   5.111  18.014 -0.1470 -0.1552 -0.3054
25431W        W68484  11.436   9.823  25.501  0.3717  0.0405 -0.3414
25432W        W68485  32.050  10.900  22.859 -0.0903 -0.0622 -0.1667
25433W        W68486   4.939  17.621  25.270  0.1470 -0.0758  0.1183
25434W        W68487   5.450  21.973  14.042 -0.0599 -0.2743  0.0160
25435W        W68488   2.373  19.357  21.712  0.2035 -0.1671  0.3221
25436W        W68489  31.191  25.276  18.090 -0.2281  0.0447 -0.0621
25437W        W68490   9.603   5.934  19.453 -0.0678 -0.2149  0.3978
25438W        W68491   4.809  22.321   1.156  0.0241  0.1366  0.0973
25439W        W68492   9.997  15.740   7.079  0.2017 -0.2277  0.1048
25440W        W68493   3.813  20.171   4.803  0.1073 -0.2208 -0.0804
25441W        W68494   5.125   8.166  20.198 -0.1342 -0.3259 -0.0466
25442W        W68495  25.895  19.322  25.097 -0.0993  0.3839  0.1006
25443W        W68496  33.089   1.586  19.990  0.0337  0.1707  0.2264
25444W        W68497  30.369  34.184  24.692  0.1495  0.1213 -0.0015
25445W        W68498  11.553   8.585  27.507  0.1380 -0.0765 -0.0765
25446W        W68499   9.105   7.043   2.807  0.1293 -0.2332 -0.1612
25447W        W68500  29.723   4.718  19.091  0.4078  0.2035  0.0446
25448W        W68501   2.774   3.940  16.458 -0.0972 -0.0275  0.0012
25449W        W68502  14.411  26.567  15.151  0.1147  0.0371  0.1637
25450W        W68503  30.288   9.487  21.811 -0.1568 -0.1370  0.2626
25451W        W68504  17.451  11.932  26.031 -0.1274 -0.0137 -0.1067
25452W        W68505  27.547  29.612   0.825  0.1340  0.1479  0.0770
25453W        W68506   5.875  10.689  25.050  0.0712  0.2453  0.1100
25454W        W68507   6.150  25.175  21.705 -0.3442  0.2941 -0.0670
25455W        W68508   3.942   3.592   0.236 -0.0761  0.2476  0.2173
25456W        W68509  14.229  23.026  22.834 -0.2136  0.2054 -0.0966
25457W        W68510  14.780   6.862  17.111  0.2400  0.2167 -0.0057
25458W        W68511  11.342  20.809  18.696 -0.1846 -0.2026 -0.0385
25459W        W68512   8.470  21.147  14.249 -0.1992 -0.0038  0.2573
25460W        W68513   2.054   4.838  26.508  0.0193 -0.2013 -0.2411
25461W        W68514  16.882  25.756  15.356  0.1034 -0.0586  0.0920
25462W        W68515   1.926   2.838  17.280 -0.0786  0.1714 -0.2606
25463W        W68516   3.736   9.294  25.727  0.1145  0.2427  0.0856
25464W        W68517  14.671  28.830  19.438 -0.0756 -0.0833  0.2401
25465W        W68518  13.301   9.661  28.244  0.0205  0.0052 -0.1256
25466W        W68519  29.876   2.148  14.641 -0.1807 -0.0418 -0.0726
25467W        W68520  31.244  19.296  24.022  0.1369  0.0121  0.1434
25468W        W68521   7.849  16.234   4.629 -0.0674  0.6048 -0.0308
25469W        W68522  10.636  16.709  19.721  0.0709 -0.0234  0.0074
25470W        W68523  32.183   7.811  21.166 -0.0507  0.0878 -0.3078
25471W        W68524  32.521   6.501  21.991  0.0868 -0.0665 -0.1229
25472W        W68525  12.944   8.444   4.980 -0.1130 -0.2712  0.1784
25473W        W68526  13.871  21.148  19.002 -0.1930  0.3444  0.2320
25474W        W68527  10.036  17.021  24.953  0.1664  0.2219 -0.3713
25475W        W68528  15.246  21.830  25.052 -0.1260 -0.1291 -0.0691
25476W        W68529  10.777  25.932  28.889 -0.0368 -0.3812  0.0020
25477W        W68530  18.779  16.632   1.963 -0.3372 -0.1484  0.0055
25478W        W68531   3.244   9.689  14.347  0.2025 -0.1309 -0.0716
25479W        W68532  33.951   5.992  25.823  0.0795  0.1240 -0.2717
25480W        W68533  33.294  27.096  19.657  0.1302 -0.2624  0.0540
25481W        W68534   3.004   2.066  25.137  0.1837  0.2768 -0.1748
25482W        W68535   4.534  19.464  19.757 -0.0262 -0.3365  0.2735
25483W        W68536   5.290  24.088   3.038  0.2677 -0.0379  0.0080
25484W        W68537  34.121  25.237  16.021  0.1212 -0.0216  0.1412
25485W        W68538  32.594  28.047  21.852 -0.1681 -0.1508  0.2087
25486W        W68539  10.772   1.707  20.838  0.3926 -0.0205 -0.0274
25487W        W68540   7.886   3.634  24.681 -0.4261 -0.0480  0.2355
25488W        W68541   0.390  26.625   4.905 -0.0793  0.2801  0.3419
25489W        W68542  18.661  34.408  17.505 -0.3710 -0.1309 -0.0519
25490W        W68543  15.318  12.204  15.311 -0.0331 -0.2367  0.5789
25491W        W68544  33.153  18.010  17.882  0.1549  0.0564 -0.1477
25492W        W68545   6.308   9.537  16.570  0.1283  0.2357 -0.0878
25493W        W68546  23.092  13.090  14.421  0.0701 -0.1363  0.3760
25494W        W68547   5.169   9.868  20.764 -0.3232 -0.2667  0.2045
25495W        W68548   7.251  11.826  16.955  0.4550  0.0511 -0.0997
25496W        W68549  30.719   6.951  20.683 -0.2092  0.1371  0.0963
25497W        W68550   0.681   9.653  21.414  0.0734  0.3242  0.2507
25498W        W68551   4.923  10.569  20.370  0.2656 -0.1398 -0.0492
25499W        W68552  12.904   5.447  23.415  0.1147  0.0613  0.0923
25500W        W68553  33.719  19.116  22.409 -0.0687 -0.0581 -0.0318
25501W        W68554   3.372  13.478  14.464  0.0867  0.1007 -0.2880
25502W        W68555  24.495   4.633  21.303 -0.0943  0.0802  0.0118
25503W        W68556  24.502  13.589  19.435  0.0478 -0.0242  0.0559
25504W        W68557  26.459   7.760   5.134 -0.1453  0.1055  0.0121
25505W        W68558  28.090  20.910  18.243 -0.3055  0.1278 -0.0440
25506W        W68559   4.733  30.580  21.775  0.3745 -0.3007 -0.0527
25507W        W68560   9.264  26.389   4.962 -0.3139  0.4552 -0.2710
25508W        W68561  31.986  11.522  20.153 -0.0224  0.2121  0.2624
25509W        W68562   6.025  11.312  21.715 -0.0756 -0.1277  0.0404
25510W        W68563   1.467   7.364  25.773  0.0335  0.0453 -0.0199
25511W        W68564   0.448   4.479   6.343 -0.0244 -0.0972  0.1762
25512W        W68565  15.099  33.381  20.977 -0.1164 -0.0527  0.0467
25513W        W68566   0.867  18.888   2.047 -0.0011 -0.1054 -0.2682
25514W        W68567  10.817  10.213  26.933 -0.0743 -0.0929  0.1725
25515W        W68568   1.479   1.212   5.840 -0.1051 -0.2386 -0.3220
25516W        W68569   0.913  22.740  14.233 -0.0382 -0.0394  0.2308
25517W        W68570  13.951  13.407  15.178  0.0085  0.1508  0.1100
25518W        W68571  16.310  19.381  23.576 -0.0208  0.0714  0.0366
25519W        W68572   7.529   1.647  24.230  0.0751 -0.1850  0.1665
25520W        W68573   9.672  20.724  15.205 -0.3424  0.1818  0.0781
25521W        W68574  13.873   0.236  25.254  0.0043  0.2425 -0.1737
25522W        W68575  12.960   8.452  26.469  0.1554 -0.4191 -0.2620
25523W        W68576  26.012   4.978  28.525  0.3189 -0.2904  0.2376
25524W        W68577   7.104  23.905  13.053 -0.3927 -0.4365  0.2600
25525W        W68578  30.960  27.334  16.285 -0.3184  0.3675  0.0219
25526W        W68579  22.564   5.461  24.607 -0.0000 -0.1563 -0.1160
25527W        W68580  11.771  34.615  10.465 -0.2027  0.0975  0.1608
25528W        W68581  32.438   6.285  24.964 -0.3586  0.1341 -0.1143
25529W        W68582   0.482  20.280  13.289  0.1428  0.0814 -0.0715
25530W        W68583   3.072  17.927   4.707 -0.0198  0.3189 -0.0366
25531W        W68584   1.660  13.037  13.694 -0.1703  0.3224  0.2385
25532W        W68585   4.433   0.899  16.482 -0.3020  0.1747  0.0918
25533W        W68586  17.934   1.959  18.858  0.0130 -0.4036  0.0879
25534W        W68587  27.445   6.622  10.752 -0.2648  0.1647 -0.1678
25535W        W68588  33.002  17.879  16.137 -0.1034  0.1112 -0.0447
25536W        W68589  30.987  18.226  22.578  0.3827 -0.1404 -0.0235
25537W        W68590  32.460  12.422  16.945 -0.1438 -0.0877  0.3983
25538W        W68591  32.109  12.369  14.732 -0.1415 -0.1800  0.1080
25539W        W68592   8.232  34.552  28.924 -0.0308  0.0067  0.0389
25540W        W68593  32.061   7.434  20.796  0.0534  0.0620  0.0242
25541W        W68594  31.529  31.378  17.364  0.0102  0.3666 -0.4037
25542W        W68595  19.027  15.223  26.857 -0.0208 -0.3791 -0.2808
25543W        W68596  20.901   7.604  26.435  0.0736 -0.0484  0.0244
25544W        W68597  20.511  27.992  25.563  0.1281 -0.1704  0.1915
25545W        W68598  27.086  14.000  17.815 -0.0277  0.1822 -0.1315
25546W        W68599   7.076   0.476  19.419  0.0374  0.0220 -0.2546
25547W        W68600  24.243  15.906  26.519  0.1375 -0.0264  0.0494
25548W        W68601  29.618  15.509  25.523 -0.1105 -0.1800  0.1344
25549W        W68602  32.687  11.452  15.678  0.2509  0.1782  0.1907
25550W        W68603  20.561  12.422   1.705 -0.2765  0.0025  0.1226
25551W        W68604   9.489   9.954  21.498  0.0863 -0.1051 -0.2274
25552W        W68605   8.417  10.061  17.229  0.1233 -0.1718  0.0385
25553W        W68606   4.107  17.416  23.623  0.0817  0.5643 -0.0363
25554W        W68607   2.553  14.837  19.337 -0.1392 -0.0087  0.1439
25555W        W68608  21.105   3.652  15.214  0.3755  0.0782  0.2511
25556W        W68609   3.910  14.523  13.857  0.1821 -0.0759 -0.0867
25557W        W68610  18.653  22.939  19.039 -0.0336 -0.1513 -0.3043
25558W        W68611  32.728  27.759  17.071 -0.0040  0.5370  0.2048
25559W        W68612   8.336  33.160  21.303  0.0967  0.1502 -0.2113
25560W        W68613   7.418   8.474  19.738  0.2046  0.1870 -0.1869
25561W        W68614   0.116  11.764  27.797  0.0186 -0.1261  0.1124
25562W        W68615  31.629   7.071  16.681  0.1210  0.0937 -0.2185
25563W        W68616   4.768  32.402  19.593 -0.1031  0.1243 -0.0095
25564W        W68617   4.589  21.570  14.295 -0.2069  0.0390  0.3070
25565W        W68618   5.994   2.856  15.710  0.0382  0.1221 -0.2157
25566W        W68619  13.680   7.255  26.643  0.0458  0.0009 -0.1112
25567W        W68620   7.675  30.870  25.032  0.0780 -0.0659 -0.2402
25568W        W68621  20.699  29.101   0.712 -0.0744  0.2186 -0.0413
25569W        W68622  33.763  15.563  19.696  0.2324 -0.2734  0.3143
25570W        W68623   6.909  21.863  17.048 -0.3290 -0.0697  0.3418
25571W        W68624   9.072   0.079   0.070 -0.0047 -0.0161  0.0925
25572W        W68625  30.070  30.661  18.775  0.0880  0.2657 -0.0366
25573W        W68626   0.581   6.344  16.977  0.0727  0.1736 -0.0398
25574W        W68627   2.830  15.802  25.940 -0.0520  0.2745 -0.2147
25575W        W68628  32.343  18.838   5.004 -0.0632 -0.0766  0.2603
25576W        W68629   5.450  25.044  13.201 -0.2478 -0.1656 -0.2927
25577W        W68630   6.889   6.549  23.307  0.2450 -0.1017  0.1561
25578W        W68631  32.621  17.327  19.625  0.0892  0.0312  0.1174
25579W        W68632   7.598  15.195   3.085  0.0498 -0.0605 -0.0586
25580W        W68633  19.279  25.325  18.481 -0.0741 -0.2384 -0.0502
25581W        W68634  18.155  14.246  15.480 -0.0309 -0.0682  0.3412
25582W        W68635  28.223  13.561  22.231 -0.2355  0.1209 -0.0364
25583W        W68636  18.697   7.940  15.116  0.1595 -0.0447  0.0799
25584W        W68637  33.224  17.656  13.970 -0.1723  0.0953 -0.2482
25585W        W68638  17.069  32.761  17.222  0.2008 -0.0541  0.0739
25586W        W68639  20.261  13.429  24.791 -0.1408 -0.2065 -0.0937
25587W        W68640  16.106   9.423   5.861  0.0272  0.1183  0.2011
25588W        W68641  30.259  25.196   9.956  0.0503  0.0659 -0.1619
25589W        W68642  10.025  28.483  17.433 -0.2378  0.1646  0.1932
25590W        W68643   4.957   7.377  22.892  0.0612  0.2867  0.1429
25591W        W68644  12.507  11.806  26.316 -0.0582 -0.1115  0.0091
25592W        W68645   5.944  18.673  20.251  0.1112 -0.0812  0.0239
25593W        W68646  20.575  23.578  26.460  0.1139  0.0470 -0.3310
25594W        W68647   8.593  21.614  21.931  0.2940  0.0225 -0.0568
25595W        W68648  11.611  19.612  13.824 -0.3142  0.3030 -0.2531
25596W        W68649  21.809  29.064  21.172  0.3169  0.2642 -0.0066
25597W        W68650  11.049  34.553  16.833 -0.5422  0.2938 -0.1046
25598W        W68651  10.941  12.078  20.068 -0.0692  0.0344  0.0873
25599W        W68652  27.693   2.182  19.273 -0.1405 -0.0791 -0.4066
25600W        W68653  19.898   9.965   2.589  0.1279 -0.0913  0.0662
25601W        W68654   6.853   5.608  15.497  0.1279 -0.1199  0.0663
25602W        W68655  19.402   0.479  23.675 -0.0171  0.2317  0.0027
25603W        W68656  31.734  20.380  13.950  0.1222  0.1786  0.0160
25604W        W68657  13.083   1.168  25.529  0.0670  0.2261  0.1905
25605W        W68658  18.462  13.020  26.028 -0.0736  0.0779  0.4825
25606W        W68659   5.044   8.985  18.115 -0.0272  0.0964  0.0468
25607W        W68660   1.539  27.065  19.574 -0.0053 -0.1392 -0.0953
25608W        W68661  33.445   5.738  16.168 -0.2947 -0.0925  0.0553
25609W        W68662   5.412  27.198  27.943 -0.1823 -0.4678  0.0088
25610W        W68663  12.257  22.183  24.613  0.1854  0.1151 -0.0327
25611W        W68664   3.658  16.032   0.040 -0.0510  0.2435 -0.1477
25612W        W68665  26.257  27.162   0.714 -0.0382  0.0686 -0.1256
25613W        W68666   1.201  28.801  21.511 -0.0940  0.2895  0.0040
25614W        W68667   0.696  11.177  27.126  0.0121  0.4078  0.1605
25615W        W68668   6.606   0.035  24.914  0.2791  0.0779  0.0031
25616W        W68669  26.812   7.347  19.212  0.1425 -0.2782 -0.3166
25617W        W68670  10.963  17.540  28.172  0.3173  0.2944 -0.0090
25618W        W68671  25.339  10.090  24.567 -0.0758  0.1390  0.3377
25619W        W68672   5.654  11.223  22.847  0.0906 -0.3105  0.2157
25620W        W68673   2.518  28.508  19.091  0.0883  0.0705 -0.0636
25621W        W68674   7.512  16.727  16.601 -0.2820  0.1538 -0.1492
25622W        W68675  33.771  32.346  24.564 -0.2794  0.3705 -0.2853
25623W        W68676   4.597  14.726  24.582  0.0050  0.1657 -0.0330
25624W        W68677   0.297  27.093   0.878 -0.2040 -0.0625 -0.1167
25625W        W68678  31.363  23.479   1.168 -0.1863  0.0849  0.1077
25626W        W68679   0.602  14.921   5.919  0.2757 -0.0474 -0.0763
25627W        W68680  13.382   7.368  19.677 -0.2349  0.1811  0.0779
25628W        W68681  16.934  23.619  23.793 -0.2406 -0.0684  0.1505
25629W        W68682   8.198   9.119  18.693  0.0378 -0.0939  0.0338
25630W        W68683   8.229  10.827  22.372 -0.0541 -0.0263  0.3204
25631W        W68684  16.986   3.529  19.781 -0.0013 -0.1279 -0.0353
25632W        W68685   3.649  12.327  19.597  0.1447  0.0245 -0.0742
25633W        W68686  19.368   0.841   1.808  0.0211  0.2710 -0.1721
25634W        W68687  14.457  10.482  27.684 -0.0119 -0.0791 -0.1016
25635W        W68688  13.847  11.554  26.030  0.1968 -0.1497  0.1847
25636W        W68689  16.906   9.610  28.050  0.0883  0.0416 -0.1977
25637W        W68690  12.113   6.631  23.029  0.1055 -0.1925 -0.0699
25638W        W68691   2.337  33.523  19.305  0.3384 -0.0176 -0.0165
25639W        W68692   6.209   7.172  17.496 -0.0613 -0.2557  0.3639
25640W        W68693   8.675   4.713   9.013  0.2584  0.2267 -0.4681
25641W        W68694  13.364  14.432   2.661 -0.2291 -0.0473 -0.0451
25642W        W68695   6.691  26.734  19.592 -0.0832  0.4801 -0.2036
25643W        W68696  15.654  11.871  19.960 -0.0660  0.0870 -0.4655
25644W        W68697   0.071  28.718  25.684 -0.3868  0.0833 -0.1520
25645W        W68698  32.485  15.934   8.575  0.1142 -0.1679  0.1399
25646W        W68699  30.665   7.509  23.281  0.3071  0.1916  0.2568
25647W        W68700  34.003  33.989  14.898 -0.0899  0.0505  0.0474
25648W        W68701   6.961   6.969  19.063  0.0910  0.2362  0.2778
25649W        W68702  15.258   9.539   9.883 -0.3792 -0.1011 -0.0089
25650W        W68703  28.863  10.325  23.186 -0.3659 -0.1223  0.1007
25651W        W68704  25.268  10.497  19.558  0.0474 -0.2697 -0.0905
25652W        W68705   7.157  32.748  18.918 -0.1484 -0.2254 -0.0914
25653W        W68706   1.036   7.476  23.087 -0.1166  0.1247 -0.1218
25654W        W68707  17.009   4.395  18.243 -0.0253 -0.0786 -0.3667
25655W        W68708   6.669  12.789  22.780  0.1934  0.3304 -0.1610
25656W        W68709  12.299  32.809  25.304 -0.1137 -0.0461  0.3257
25657W        W68710   4.343  16.053   6.666 -0.3744 -0.1007 -0.0710
25658W        W68711  13.545  20.844  24.209 -0.1254  0.1501 -0.1241
25659W        W68712  21.841   0.468   6.093 -0.2458  0.2737  0.0953
25660W        W68713   7.460  14.215  14.920  0.2074  0.2262  0.1568
25661W        W68714  34.375   2.661  20.215 -0.1794  0.3483 -0.3375
25662W        W68715   9.546   5.067  24.977  0.4144 -0.0908 -0.0157
25663W        W68716   8.206   3.880   2.124 -0.0085 -0.2256 -0.0631
25664W        W68717  17.789  11.518  15.172 -0.0596 -0.2530 -0.1836
25665W        W68718  14.368  24.764  16.976 -0.3064 -0.0312  0.0888
25666W        W68719  27.586  18.580  14.976 -0.3444  0.3157 -0.1522
25667W        W68720   3.127  34.162  18.539 -0.2166 -0.1387 -0.2718
25668W        W68721  10.630   9.741  18.275 -0.1927  0.0684 -0.0850
25669W        W68722   5.907  15.018  16.025  0.0132  0.1776 -0.1093
25670W        W68723   0.532   6.611  20.524  0.1571  0.0445  0.2313
25671W        W68724   7.485   4.806  23.466 -0.1814  0.1141 -0.0709
25672W        W68725   5.151  26.137  28.677  0.0921  0.1233  0.0351
25673W        W68726  17.577   5.105  18.452 -0.0203 -0.1309 -0.2254
25674W        W68727  26.368   9.952  18.923  0.2537  0.2045  0.1739
25675W        W68728   0.354   6.485  18.728  0.0430  0.0068  0.0529
25676W        W68729  15.430   8.932  15.934  0.1996 -0.1541 -0.1606
25677W        W68730  29.499  34.567  15.967  0.0674  0.2027 -0.1767
25678W        W68731  21.492  10.522   7.922 -0.2714 -0.0166 -0.2316
25679W        W68732  20.157   1.326  17.213  0.4937  0.1627  0.1319
25680W        W68733  11.122  11.226  26.768  0.1994 -0.1249 -0.0934
25681W        W68734  13.973  17.865   7.559  0.1173  0.2032 -0.3486
25682W        W68735  10.241  13.679  21.777 -0.3006  0.2360 -0.0190
25683W        W68736   2.366   4.395  28.735  0.1187 -0.0703  0.3267
25684W        W68737  19.693   7.800   6.102 -0.1347 -0.3710  0.0348
25685W        W68738   0.510  20.147   8.705  0.0010  0.1937  0.0321
25686W        W68739  34.494   6.334  15.244 -0.0890  0.0293  0.1748
25687W        W68740   5.407  17.022  23.669 -0.0738 -0.0463  0.1270
25688W        W68741  13.975  33.375   8.071 -0.2953  0.0859 -0.0634
25689W        W68742  34.192   3.058  17.630  0.0894 -0.2130  0.0789
25690W        W68743   6.469   9.044  15.249 -0.1036 -0.1340  0.0683
25691W        W68744   9.779   4.036  23.064 -0.0501 -0.1768  0.2069
25692W        W68745   5.653   6.943  23.862 -0.0624 -0.3087  0.0077
25693W        W68746  34.685   1.042  18.348 -0.0098  0.0759  0.3273
25694W        W68747  30.703  12.237  21.915  0.0175 -0.3927 -0.3116
25695W        W68748  21.503  33.373   6.636  0.2430 -0.2316 -0.4081
25696W        W68749   0.775  23.925  23.769  0.1075 -0.0839 -0.0747
25697W        W68750   5.625  17.840  27.571  0.3063  0.1278  0.4853
25698W        W68751  24.025   8.453  16.244 -0.2786 -0.2457 -0.1775
25699W        W68752   1.116  23.865  23.296 -0.0176 -0.3180 -0.4146
25700W        W68753  33.943   8.779  14.096  0.0173 -0.0067 -0.4231
25701W        W68754   6.019   6.114  15.228 -0.1857 -0.0870  0.0751
25702W        W68755  28.928  11.457  17.603  0.0291 -0.0712  0.0510
25703W        W68756  14.933  19.720  29.115  0.2119  0.2735  0.0798
25704W        W68757  29.869  22.685  19.590  0.0531 -0.1634  0.0266
25705W        W68758   0.720  12.847  22.491  0.2886  0.0830 -0.0819
25706W        W68759  22.684   8.598  28.125  0.2991  0.1175 -0.0235
25707W        W68760   7.130  32.857  17.483 -0.0709 -0.1473  0.0281
25708W        W68761  19.002   9.878  18.445 -0.0123  0.0112  0.0577
25709W        W68762  20.774  26.483  26.547  0.0524  0.1052 -0.3131
25710W        W68763  28.369  26.819  17.282  0.2236 -0.1101 -0.1594
25711W        W68764   4.364   9.244  19.701 -0.0657  0.0239  0.2958
25712W        W68765  26.450  10.000  20.031  0.0538  0.1561 -0.0773
25713W        W68766   0.369  14.760  17.508 -0.3641  0.1383  0.2791
25714W        W68767   1.083  16.570  22.725 -0.0122 -0.2136  0.2383
25715W        W68768   7.158  11.524  15.751 -0.5701 -0.0827 -0.2140
25716W        W68769  12.586   5.017   3.890 -0.0629 -0.2188  0.0789
25717W        W68770  11.839   8.958  25.447 -0.1905  0.0715  0.2197
25718W        W68771   1.893  20.031  25.084  0.2434  0.2250 -0.2766
25719W        W68772  14.231  15.575  14.418  0.1192  0.1523  0.1172
25720W        W68773   2.415  20.204  18.171  0.1218 -0.1458  0.1023
25721W        W68774   4.783  22.773  16.917 -0.3157  0.0653  0.2423
25722W        W68775  26.740  19.852  22.820  0.0107 -0.1429 -0.2551
25723W        W68776  29.223  15.648  19.976  0.2301 -0.0626  0.0970
25724W        W68777  11.257   5.907   7.964  0.1893 -0.3562  0.2434
25725W        W68778  27.071   8.941  24.671 -0.1317 -0.1255  0.2351
25726W        W68779   9.702  29.839   8.243 -0.2873  0.0696 -0.1883
25727W        W68780  26.412  23.234  27.778 -0.1079 -0.0915 -0.0806
25728W        W68781   9.938  31.608  16.897  0.1618  0.0153  0.4845
25729W        W68782  26.808  15.807  20.989 -0.0527  0.0695  0.2194
25730W        W68783   5.725  12.979  19.652 -0.1981  0.0957  0.1138
25731W        W68784  22.675  16.268  16.785 -0.0956 -0.1316 -0.0490
25732W        W68785   4.259   2.486  15.851  0.0782  0.1416 -0.4120
25733W        W68786  31.459  29.799  24.750  0.0714 -0.2318  0.1268
25734W        W68787  25.071   9.448  23.871 -0.0068 -0.2904  0.1975
25735W        W68788  30.278   8.592   1.581 -0.0559 -0.2369 -0.1227
25736W        W68789  20.487   6.156  27.643  0.1608 -0.1537  0.0851
25737W        W68790   8.569   2.039   3.785  0.0427  0.0118  0.0372
25738W        W68791  16.241   6.153  15.359  0.1870  0.0081 -0.2450
25739W        W68792   5.861   4.259  24.643  0.0844 -0.3474  0.2924
25740W        W68793   3.914  15.941  15.626  0.2429  0.1781  0.1182
25741W        W68794  16.921  21.568  16.320  0.1528  0.2212  0.2675
25742W        W68795  11.254   8.002  18.146  0.1020  0.3348 -0.0274
25743W        W68796   9.416   7.610   9.334  0.1321 -0.3523 -0.0847
25744W        W68797  26.110  31.567  23.770 -0.1000  0.2057 -0.2204
25745W        W68798  29.513  20.892  28.401 -0.1698 -0.0944 -0.0633
25746W        W68799   6.452  14.602  21.317  0.1129  0.2584 -0.1238
25747W        W68800  11.002  23.706   3.092  0.2033  0.2561  0.0748
25748W        W68801  28.910  27.953  15.100 -0.0925 -0.0672 -0.1477
25749W        W68802  12.160  19.530   0.874  0.1165  0.1088 -0.1048
25750W        W68803   6.038  18.448   3.550  0.1716  0.0698 -0.1558
25751W        W68804   0.102   5.216   8.766  0.3528  0.3337  0.1102
25752W        W68805  13.330  18.312  26.744  0.2807  0.0554 -0.0069
25753W        W68806  12.628  10.344  19.599 -0.0145  0.1929 -0.2900
25754W        W68807   7.056  13.790  28.139  0.0226  0.3079  0.0703
25755W        W68808  18.826  31.740  18.490  0.1821 -0.1646  0.2496
25756W        W68809  23.624  20.361  15.070 -0.0639  0.1463 -0.0847
25757W        W68810  32.751  16.283  13.357 -0.1174 -0.0840  0.1345
25758W        W68811  14.756  11.431  17.535 -0.0122 -0.0433  0.0154
25759W        W68812  10.115   6.795  14.811  0.0424 -0.0053 -0.0807
25760W        W68813   4.616  29.813   1.036  0.1221 -0.1618 -0.1482
25761W        W68814  28.460  28.782   1.596  0.0518  0.1898 -0.0480
25762W        W68815   6.356   6.805  24.375 -0.0958  0.0713 -0.0898
25763W        W68816   6.721   6.587  10.013  0.1605  0.1573 -0.0527
25764W        W68817   6.920  18.191  24.340  0.0034 -0.2727 -0.3023
25765W        W68818   0.333  29.088  23.397 -0.2479 -0.0869 -0.1215
25766W        W68819  14.692   2.479  16.966  0.2488 -0.1705 -0.0339
25767W        W68820   1.745  21.486  22.891 -0.3003  0.2884 -0.0618
25768W        W68821  13.296  31.393  24.282  0.2734 -0.0534  0.0653
25769W        W68822   3.589  23.040  27.034 -0.0414 -0.3077 -0.1325
25770W        W68823   6.339   6.630  14.060 -0.3403 -0.1422  0.0495
25771W        W68824  13.064  12.483   9.737 -0.1719  0.0239  0.1232
25772W        W68825  15.545   4.606   7.809 -0.1492  0.1296 -0.0936
25773W        W68826   4.201  31.058   2.520  0.1673  0.4299  0.0193
25774W        W68827   4.310  10.008  27.336 -0.4677  0.0553  0.0881
25775W        W68828  25.945   4.729  21.075 -0.0415  0.4480  0.2816
25776W        W68829  30.121  11.434   1.245 -0.0198  0.2877  0.3617
25777W        W68830  33.472  18.002  15.998  0.1659  0.2143  0.0062
25778W        W68831   3.299  14.129  20.782 -0.1508  0.0102  0.0844
25779W        W68832  23.367   0.649  27.528 -0.2633  0.0247  0.2965
25780W        W68833   5.857  16.766  14.133 -0.0199 -0.0930 -0.0252
25781W        W68834  22.454   2.784  23.563 -0.1690 -0.2392 -0.2104
25782W        W68835   1.608   5.114  15.489  0.1887  0.3176  0.0848
25783W        W68836   1.813  30.869   2.967 -0.1018  0.0140  0.0648
25784W        W68837  16.097   3.394   0.900  0.0340  0.1022 -0.1295
25785W        W68838   1.619  10.173  25.348  0.2352 -0.3548 -0.1091
25786W        W68839   7.873  14.620  26.574 -0.1283  0.1230  0.2244
25787W        W68840  30.638  17.362  23.482  0.0055  0.0815  0.3007
25788W        W68841  27.373  27.421  17.645  0.0147  0.1821 -0.2566
25789W        W68842   8.541  18.086  18.806  0.2687 -0.1404  0.0936
25790W        W68843  34.279  26.899  27.763 -0.4586 -0.1524 -0.1959
25791W        W68844  16.515   4.999  21.625  0.0379 -0.1661  0.0242
25792W        W68845   2.927  11.537   1.321 -0.0764  0.0142 -0.0113
25793W        W68846   9.832  27.504  19.114 -0.3318 -0.0729 -0.1405
25794W        W68847  30.832  14.121   2.766  0.0830 -0.0267 -0.0940
25795W        W68848   4.646  21.799  22.276  0.0374 -0.1238 -0.3029
25796W        W68849  33.001  19.988  25.796  0.1879  0.1945  0.0920
25797W        W68850  16.397   8.644   7.081  0.0562 -0.2800  0.0454
25798W        W68851  32.996  13.614  25.430 -0.0225 -0.0053  0.1100
25799W        W68852  28.778  16.595  20.881  0.1376 -0.0571  0.0728
25800W        W68853  21.890  18.451  27.701 -0.1868  0.0581  0.0810
25801W        W68854  33.819   2.106   1.624  0.2775 -0.0986  0.0221
25802W        W68855   4.558  14.837  26.896  0.1250 -0.2486 -0.0282
25803W        W68856   4.364   5.806  20.601  0.1057  0.0866 -0.1275
25804W        W68857  17.993  19.308  15.631 -0.1321  0.0782 -0.0468
25805W        W68858   2.689  19.636  22.004 -0.0276 -0.2090  0.1405
25806W        W68859   6.633   8.206  21.791  0.1903  0.0294  0.1228
25807W        W68860   0.901   5.911  25.468  0.5952 -0.0122  0.1608
25808W        W68861   8.642   7.516  24.504 -0.0548  0.1372  0.1933
25809W        W68862   8.212  33.825  25.406 -0.0931 -0.1017  0.0253
25810W        W68863   2.897   7.292   0.844 -0.0288 -0.2312  0.0299
25811W        W68864  31.766   3.086  13.974  0.0498 -0.0980 -0.1797
25812W        W68865  11.733  12.848  24.012  0.0985  0.0539 -0.5926
25813W        W68866  34.470  20.216  26.509  0.0190 -0.0751 -0.1030
25814W        W68867  29.854  30.331   8.737 -0.0716 -0.0050  0.0686
25815W        W68868  11.556   5.388  27.052  0.4040 -0.1125  0.2372
25816W        W68869  32.030   4.317  18.639 -0.0652  0.3239 -0.0219
25817W        W68870   8.281  22.086  20.395 -0.1075  0.2166 -0.2372
25818W        W68871   8.385  12.321  28.652 -0.1210 -0.0508 -0.0902
25819W        W68872  23.968  14.173  26.343 -0.1233  0.0770 -0.1489
25820W        W68873   4.062   7.985  16.510 -0.2226  0.0213 -0.0864
25821W        W68874  27.703  14.142  21.822  0.2121  0.0991 -0.0747
25822W        W68875   4.027  18.725   7.063 -0.0300  0.2750 -0.1425
25823W        W68876  20.313   0.494  16.331 -0.1108 -0.3072 -0.1630
25824W        W68877  24.510  12.375  16.547 -0.2960  0.2832 -0.0569
25825W        W68878   7.592  22.773  19.466 -0.0327  0.1972 -0.2192
25826W        W68879  26.543  19.359  24.418 -0.1793  0.3860  0.0223
25827W        W68880  27.472  12.577  17.090  0.3476 -0.0177 -0.1710
25828W        W68881  33.826  23.590   3.502  0.1581  0.1593 -0.2044
25829W        W68882  29.953  32.983   2.597 -0.0641 -0.4352 -0.2644
25830W        W68883   2.895  27.214  15.336 -0.0366  0.1178 -0.0819
25831W        W68884  31.314  10.184  17.454 -0.0725  0.0914  0.0246
25832W        W68885   1.833   6.617  20.563 -0.2468 -0.0420 -0.0388
25833W        W68886  13.577  15.272  18.247  0.2004  0.3910  0.0565
25834W        W68887   8.192  13.220  22.977 -0.0459  0.0167 -0.0632
25835W        W68888  25.896  20.494   1.164 -0.4832 -0.0804 -0.0280
25836W        W68889   8.697  11.322   3.698  0.0268 -0.2100  0.1687
25837W        W68890   3.565  25.178  17.522 -0.1295  0.2308 -0.2972
25838W        W68891  29.314  19.016  23.679  0.0330  0.2078  0.3557
25839W        W68892  16.911  11.006   7.372 -0.0610 -0.0273 -0.0836
25840W        W68893   6.705   9.343  17.187 -0.2704 -0.1792  0.0997
25841W        W68894   5.553  15.038  16.414 -0.0575 -0.3095  0.0808
25842W        W68895   5.532   6.291  25.676 -0.2128 -0.1229  0.0756
25843W        W68896   8.336   0.092  21.273 -0.1486  0.0898 -0.0994
25844W        W68897  30.772  27.665  24.745 -0.0617  0.1631 -0.1268
25845W        W68898  23.518  14.665  18.461  0.1105  0.0330 -0.1445
25846W        W68899   6.613  16.986  16.063 -0.0000  0.0589 -0.3373
25847W        W68900  10.015   5.011   4.684  0.4217 -0.2956 -0.1272
25848W        W68901   6.889  13.482  22.679  0.1335  0.1387  0.2853
25849W        W68902  32.129  21.124   5.079  0.1124  0.0888  0.1166
25850W        W68903  30.923   9.355   3.129 -0.0457 -0.1143 -0.0264
25851W        W68904   9.446   7.673  20.714  0.2749  0.1613 -0.2787
25852W        W68905  24.336  15.874   8.016 -0.1976 -0.0849 -0.1892
25853W        W68906  11.378   7.158   8.434  0.0066  0.1633  0.0545
25854W        W68907   2.403   6.915  18.458 -0.3800 -0.3765 -0.0052
25855W        W68908   6.628   4.339  23.480 -0.1579 -0.0202 -0.1840
25856W        W68909  26.320  16.037  15.265 -0.2772 -0.0263  0.2690
25857W        W68910  19.371   8.945  16.176  0.1298  0.0159  0.3674
25858W        W68911  26.114   6.386   6.173  0.0012 -0.3397  0.2206
25859W        W68912   7.902  12.355  26.833 -0.2668  0.0882 -0.0472
25860W        W68913  10.827  33.455  13.957  0.4871  0.2056 -0.3449
25861W        W68914   7.233  10.693  25.779  0.0132 -0.1569 -0.0854
25862W        W68915  17.105   8.614  18.339 -0.0749 -0.1044 -0.1404
25863W        W68916   2.293   8.216   8.818  0.1304  0.1432 -0.1903
25864W        W68917  22.790  32.087   8.007  0.0359  0.1545 -0.0918
25865W        W68918  31.565   7.865  17.435  0.0896 -0.0075  0.2996
25866W        W68919   4.760  21.783  17.914  0.1302 -0.0546 -0.1272
25867W        W68920  13.252  17.695  21.349  0.0913  0.2120  0.2258
25868W        W68921  32.112   0.689  15.349  0.3360  0.2560 -0.0393
25869W        W68922  32.823  26.541  22.269  0.2144  0.0267  0.0920
25870W        W68923  15.226  24.228  19.466 -0.3785 -0.0584 -0.0063
25871W        W68924   3.730  21.112  28.262  0.1965  0.0395 -0.3113
25872W        W68925  32.590  22.031  15.560 -0.1140 -0.1652 -0.0063
25873W        W68926   0.171  17.914   2.664  0.4764  0.1150 -0.1128
25874W        W68927   2.954  14.108  23.750  0.0025  0.0605 -0.0554
25875W        W68928   5.654   7.161  24.344 -0.0514  0.1268  0.0466
25876W        W68929  30.573  16.145  23.560 -0.2036 -0.1017  0.2967
25877W        W68930  13.758  31.230  15.557 -0.0705  0.0193  0.0095
25878W        W68931   8.922  13.534  15.834  0.2430  0.2372  0.0439
25879W        W68932  10.282  24.931  13.236  0.1013  0.1085 -0.0944
25880W        W68933  12.658  23.457  27.634 -0.2149 -0.1042 -0.1142
25881W        W68934  29.496   6.248   1.189 -0.1334  0.0647 -0.3363
25882W        W68935  30.659  16.102   0.279 -0.2487  0.0423 -0.1068
25883W        W68936   7.182   8.479   0.342  0.0696  0.0024 -0.2270
25884W        W68937  23.136   8.708  21.199 -0.1732 -0.2898  0.1786
25885W        W68938  12.769  26.001  14.248 -0.0267  0.0088  0.2085
25886W        W68939   5.745  15.751  21.877 -0.1364  0.1582 -0.1752
25887W        W68940  26.337   5.200  16.440 -0.0893  0.3479 -0.1486
25888W        W68941  14.640  29.949  22.732  0.0837 -0.0851 -0.1133
25889W        W68942   8.082  32.768  28.484  0.1384  0.0198  0.2138
25890W        W68943  28.470  15.701   1.768 -0.1400  0.1114 -0.1605
25891W        W68944  31.905  17.077  16.822 -0.0878  0.2148  0.0790
25892W        W68945   8.684   1.806  26.144  0.0087 -0.0423 -0.0470
25893W        W68946  14.428  10.613  15.581 -0.3493  0.4400  0.2044
25894W        W68947  32.825  21.220   8.043  0.0863  0.0404 -0.1112
25895W        W68948  23.603  32.111  20.954 -0.3665 -0.1498 -0.2518
25896W        W68949  13.387   1.565  18.956 -0.2692 -0.2624 -0.2192
25897W        W68950   9.269  22.429  20.618 -0.1177 -0.0924  0.1235
25898W        W68951   3.965  13.213  25.890 -0.0521  0.3574  0.1632
25899W        W68952  14.258   1.645  23.900  0.2128 -0.3291 -0.3282
25900W        W68953   3.827  14.819  17.265 -0.1119 -0.0013 -0.2501
25901W        W68954  26.902  19.638  15.301  0.4570 -0.1034  0.0452
25902W        W68955   1.347   0.577  13.691  0.0233  0.0391 -0.0149
25903W        W68956  22.537  12.779  24.203 -0.2408 -0.4639  0.0386
25904W        W68957   7.700  31.048  26.339 -0.1675 -0.0385 -0.0112
25905W        W68958  26.203   8.556  23.648  0.1160 -0.0028 -0.1249
25906W        W68959  15.386  34.411   3.484  0.2038  0.0376 -0.2434
25907W        W68960  34.459  14.609  10.156  0.2900 -0.2900 -0.0047
25908W        W68961   5.679  16.237  21.998  0.4058 -0.0419  0.1943
25909W        W68962  11.864  10.457   5.789  0.1446  0.0652 -0.0012
25910W        W68963  22.984  31.359  19.635  0.0075 -0.0961  0.0950
25911W        W68964  12.623   0.953  17.288  0.0410 -0.1752  0.0179
25912W        W68965   3.347  28.930  24.231 -0.2408  0.0662  0.1812
25913W        W68966  14.200   0.306  14.273  0.1855 -0.1039  0.0109
25914W        W68967  26.589  13.535  16.970 -0.0634  0.3712  0.0323
25915W        W68968  33.516  11.337   6.280  0.1018 -0.2100  0.0628
25916W        W68969   3.412  29.075  17.994  0.5933 -0.0473 -0.0836
25917W        W68970  21.313  18.653  14.895  0.1631  0.0912  0.1100
25918W        W68971  28.638   1.337  24.104 -0.1266  0.2253 -0.3435
25919W        W68972  13.043  21.126  23.678  0.2506 -0.1728 -0.0238
25920W        W68973   3.377  21.330  25.092 -0.0071 -0.2224  0.3394
25921W        W68974  15.292  10.296   6.976 -0.1017 -0.1867  0.3697
25922W        W68975  28.321   9.428  24.433 -0.0680 -0.0207  0.0178
25923W        W68976  27.466  16.963  25.203 -0.2132 -0.0868 -0.0467
25924W        W68977   9.483   4.876  15.512 -0.1099 -0.1912  0.1181
25925W        W68978  10.236  17.689   5.365  0.1376  0.2216 -0.0200
25926W        W68979  33.728  24.437  20.427 -0.0780 -0.0601 -0.1483
25927W        W68980   1.829  21.073   3.625 -0.0610  0.0259  0.3115
25928W        W68981   5.940   9.977  14.034  0.0498 -0.1829  0.3672
25929W        W68982  25.103   7.347   7.166  0.1818 -0.0858  0.2204
25930W        W68983   3.094  15.134   6.532 -0.0430  0.2738 -0.2052
25931W        W68984   2.508   8.624  26.112  0.0608  0.2675 -0.2210
25932W        W68985  10.536  15.610  23.964 -0.0076  0.2192 -0.1727
25933W        W68986   5.228  26.554  17.611  0.1337 -0.0426  0.2411
25934W        W68987  13.992   5.908  28.062  0.1827 -0.2243 -0.0372
25935W        W68988   1.624  13.609  27.413 -0.1841  0.1331  0.0399
25936W        W68989  14.586  15.265  15.952 -0.1162  0.0211 -0.1987
25937W        W68990  14.971  11.234   3.482 -0.1600 -0.1810 -0.0810
25938W        W68991  23.923  25.294  21.086  0.2105  0.3687  0.3340
25939W        W68992   6.901  23.369   0.357 -0.0630 -0.3292  0.1051
25940W        W68993  28.048  17.901  16.547  0.0487 -0.1932  0.1094
25941W        W68994  18.034  12.495  27.459  0.0545  0.0968 -0.0160
25942W        W68995  14.443  11.676  26.976  0.0401 -0.0459  0.3596
25943W        W68996  32.529  22.453  16.720 -0.0186 -0.2108  0.1447
25944W        W68997  10.588  23.161  25.465  0.0213  0.0802  0.0076
25945W        W68998  13.151  11.779  21.008  0.1262 -0.1889  0.0960
25946W        W68999  33.112  23.490   1.059 -0.2281  0.3114  0.3450
25947W        W69000  12.830  20.967  15.015  0.1671  0.0622 -0.0514
25948W        W69001   6.152   8.106  14.282  0.0310  0.0268  0.1102
25949W        W69002   4.263   3.944  22.754  0.2208  0.1565  0.4767
25950W        W69003   5.509  16.148   1.301 -0.1594 -0.1769  0.0655
25951W        W69004   2.473   2.107  17.152 -0.0545  0.0142 -0.0387
25952W        W69005  26.287  10.791  21.202 -0.1214  0.1326  0.1228
25953W        W69006   5.230  14.410  18.989  0.1166 -0.1116 -0.2852
25954W        W69007  19.899  23.486   1.910  0.0333  0.0363  0.1342
25955W        W69008  22.451  33.882  23.725  0.0406 -0.0479 -0.0077
25956W        W69009   8.537   9.353  22.486 -0.2745  0.1405 -0.0623
25957W        W69010  10.064   6.229  17.150 -0.1041 -0.1640  0.0790
25958W        W69011  34.590   6.645  28.470  0.2275  0.2182  0.0853
25959W        W69012  34.630  18.748  26.947 -0.1282 -0.1489  0.1143
25960W        W69013   0.264   9.134  28.131 -0.0555 -0.0031 -0.0074
25961W        W69014  28.998  16.796   1.104  0.0311  0.1475  0.0446
25962W        W69015   5.516  18.230  26.310 -0.4218  0.0586  0.2255
25963W        W69016   1.413  34.537  24.585  0.0700  0.1989  0.2597
25964W        W69017  22.234   8.468   2.423  0.2272  0.0095 -0.0879
25965W        W69018   7.617  14.606  15.202  0.0427 -0.1470 -0.3915
25966W        W69019   0.616  15.762   3.184  0.1001  0.0534  0.0649
25967W        W69020  22.913  11.154  23.414 -0.2006 -0.1602 -0.6882
25968W        W69021   2.200  27.953  23.241 -0.2054  0.1967 -0.2203
25969W        W69022   0.665  13.306  21.193  0.0825 -0.0982  0.2254
25970W        W69023  22.615   9.392  19.887  0.0772  0.4224  0.1167
25971W        W69024   9.858  28.003  24.859  0.1211  0.0906 -0.2551
25972W        W69025   9.917  15.544  24.986 -0.2842 -0.0334 -0.2174
25973W        W69026   1.676  15.483  24.731 -0.2723 -0.1147  0.0688
25974W        W69027  13.117   9.495  27.374 -0.0651 -0.0558  0.0360
25975W        W69028  13.177   1.789  23.223 -0.3135 -0.1990 -0.3156
25976W        W69029  10.833  32.667  19.830  0.1221 -0.0571 -0.1416
25977W        W69030   6.161  17.701  15.031  0.2393  0.0856 -0.0203
25978W        W69031   9.544  24.484  15.771  0.1608  0.0302 -0.4124
25979W        W69032   7.175  20.879  21.661  0.2885 -0.0147 -0.1847
25980W        W69033   6.073   6.357  18.955 -0.1177  0.0654 -0.0124
25981W        W69034   6.646  14.262   9.094 -0.0119 -0.0087  0.1418
25982W        W69035  18.865  16.664   1.179  0.0155 -0.1320 -0.3116
25983W        W69036  33.916  22.604  16.204  0.0401 -0.0842  0.0490
25984W        W69037  19.919   6.201   0.193 -0.2088 -0.0397 -0.1071
25985W        W69038  29.123  25.673  18.555 -0.1261 -0.1342  0.1660
25986W        W69039  33.960   4.718  28.854  0.1570  0.3836  0.2095
25987W        W69040   4.852  13.236   6.760  0.0531 -0.0258 -0.0838
25988W        W69041   9.996  32.399   1.456 -0.3379  0.0869  0.1746
25989W        W69042  29.028   9.980   4.791 -0.0998  0.0008 -0.3285
25990W        W69043  10.990   0.040  24.807 -0.1830 -0.0185  0.1142
25991W        W69044   0.449  16.474  23.762 -0.0942  0.1466  0.1156
25992W        W69045  14.081   7.814  19.937 -0.0230  0.3628 -0.0118
25993W        W69046  32.226   9.988  20.390 -0.0452 -0.0064 -0.1695
25994W        W69047   6.304   8.663  28.808  0.3321 -0.0162 -0.0488
25995W        W69048  11.575   2.970   4.168  0.0332 -0.1938  0.1720
25996W        W69049  30.175  19.852   6.319  0.2794 -0.3516  0.0587
25997W        W69050   2.678  21.951  14.841  0.1555  0.2302 -0.1928
25998W        W69051   8.425  23.706   7.817  0.0354 -0.1757  0.0727
25999W        W69052  14.163   5.267  21.699  0.0606 -0.1094 -0.1237
26000W        W69053   5.609  13.533  18.573 -0.0899  0.0325 -0.0411
26001W        W69054   1.908   2.806  23.948 -0.0999  0.0981 -0.6099
26002W        W69055  10.686  13.959  23.318 -0.1830  0.2133  0.1622
26003W        W69056   0.979  15.295  21.579  0.1778 -0.1818  0.2061
26004W        W69057  13.924  16.629   3.590  0.2623 -0.1449 -0.0659
26005W        W69058  25.145   7.334  21.916 -0.1829 -0.2738 -0.2775
26006W        W69059   0.648   8.762  28.654 -0.2690 -0.0304 -0.0885
26007W        W69060   0.045   9.997   2.749 -0.3444  0.0824 -0.2580
26008W        W69061   3.270  29.995   9.962  0.2318 -0.2268  0.2507
26009W        W69062  17.874   8.962   8.831  0.0391  0.0627  0.0126
26010W        W69063  31.983  14.867  16.527 -0.0045  0.5558  0.1428
26011W        W69064   3.730   9.551  16.688 -0.3452  0.0855 -0.0915
26012W        W69065   8.022  25.008  16.803 -0.4347 -0.1124 -0.1139
26013W        W69066  34.263  28.757  26.679 -0.0067 -0.0108 -0.0440
26014W        W69067  31.043  27.304  14.214  0.0770 -0.0884  0.1007
26015W        W69068  28.161  13.913  27.195  0.1775  0.1238  0.3600
26016W        W69069   4.592   4.282  15.148 -0.0126  0.1781 -0.1083
26017W        W69070   3.073  12.484  24.258 -0.1030 -0.1414 -0.1513
26018W        W69071   5.824   6.754   8.565 -0.2113  0.1674 -0.0664
26019W        W69072   4.263   3.145  22.893 -0.1117 -0.0271  0.0728
26020W        W69073   1.135  13.502  14.982  0.0453  0.1600 -0.0101
26021W        W69074  31.991   7.271   6.656  0.2300  0.0204 -0.1166
26022W        W69075   4.312   8.683   4.549 -0.1648 -0.2330 -0.0139
26023W        W69076  18.525  20.079  14.212 -0.0504 -0.2333  0.2927
26024W        W69077   2.949  10.232  16.065 -0.1053 -0.0261 -0.2699
26025W        W69078  34.669   9.339  26.914 -0.2139  0.2081 -0.4003
26026W        W69079  32.758   9.477  19.095  0.0243  0.0178  0.0470
26027W        W69080   4.330  10.268   6.089  0.0744  0.0266 -0.0290
26028W        W69081  33.700  28.105  13.891 -0.1064  0.1609 -0.3476
26029W        W69082   5.098  23.594   5.471 -0.1193 -0.2400 -0.3156
26030W        W69083   8.579  11.958   2.830  0.3116 -0.0313 -0.0102
26031W        W69084  31.229  13.485  19.827  0.2717 -0.1638 -0.0868
26032W        W69085  30.475  23.323  15.153  0.1680  0.0327 -0.0036
26033W        W69086  30.968  21.090  15.342  0.1951 -0.0454 -0.2351
26034W        W69087  11.793   2.727  21.478 -0.1101 -0.0836 -0.1547
26035W        W69088  30.237  15.697  23.296 -0.1793 -0.2560 -0.0826
26036W        W69089   9.463  20.760  22.151 -0.0476  0.1451  0.2365
26037W        W69090  11.005  11.810  15.905 -0.1987  0.2230  0.0898
26038W        W69091   3.063  15.871  20.365  0.2448  0.0486  0.2004
26039W        W69092  15.401  15.652  27.268  0.1262  0.0653 -0.0046
26040W        W69093   2.313   1.120  18.029 -0.0492 -0.1958 -0.2497
26041W        W69094  18.709   9.516  16.282  0.1643  0.1333  0.1634
26042W        W69095   9.681  11.562   8.111 -0.0565  0.0205 -0.2119
26043W        W69096   0.164   9.367  20.653 -0.0145 -0.0867  0.2615
26044W        W69097   2.113   2.829   5.467 -0.0831  0.1872 -0.1681
26045W        W69098  13.604  18.119  24.867  0.4215 -0.2683  0.0632
26046W        W69099  30.578   9.353   8.982 -0.1650  0.0690  0.0627
26047W        W69100  29.059  27.324  17.223  0.1741  0.2029 -0.0811
26048W        W69101   2.317  29.960  24.223  0.0935 -0.0299  0.2148
26049W        W69102   3.295  16.989  13.183 -0.2101 -0.1254  0.2538
26050W        W69103   5.611   9.623  20.487  0.0649  0.0127 -0.2481
26051W        W69104  28.002  20.555  21.971  0.2193  0.1619 -0.0035
26052W        W69105   8.607  20.576  21.946 -0.2382  0.0498 -0.0861
26053W        W69106   9.861   7.319  23.499 -0.2085 -0.0634  0.0044
26054W        W69107   5.875  27.349   0.385  0.1308 -0.0261 -0.0822
26055W        W69108  18.598  10.448  27.402  0.1457 -0.2684 -0.0316
26056W        W69109   5.627  26.658   9.230 -0.0247 -0.1974 -0.1845
26057W        W69110  22.478  34.489  24.622 -0.5601 -0.0328 -0.2058
26058W        W69111  18.678  20.312   4.783  0.0777  0.0769  0.2062
26059W        W69112   7.823  10.558  17.842 -0.3532 -0.1124 -0.4398
26060W        W69113   4.079   0.620   0.899 -0.1957  0.2466 -0.2808
26061W        W69114   4.923  21.526  17.089  0.0047  0.0480  0.0590
26062W        W69115  31.124  22.333  14.336 -0.1807  0.0440  0.0464
26063W        W69116   6.483   6.042  26.329 -0.0176  0.4504 -0.1737
26064W        W69117  11.781   6.834  24.507 -0.2026  0.1566 -0.1363
26065W        W69118   5.699  16.042   9.708 -0.0598 -0.1033 -0.0096
26066W        W69119   8.811  21.033   2.819 -0.3025 -0.1650  0.0135
26067W        W69120   5.811  29.818  28.085 -0.3059 -0.0101 -0.0728
26068W        W69121  15.821   6.324  19.038  0.3316 -0.1499  0.0156
26069W        W69122   7.140  14.611  29.088  0.0176 -0.0685 -0.0207
26070W        W69123  26.609   0.919   8.086  0.0298  0.1618 -0.1222
26071W        W69124  19.600  21.124  15.875  0.0196 -0.0248  0.0971
26072W        W69125   2.162   6.382   6.313 -0.4852 -0.0829  0.2798
26073W        W69126  17.778  13.260  23.415  0.1928  0.0253  0.1353
26074W        W69127  17.705  14.273   5.390  0.1945 -0.1376  0.0872
26075W        W69128   1.655  14.268  20.834  0.1356 -0.2203 -0.2496
26076W        W69129  20.575  22.728  19.969  0.2975  0.4183 -0.0885
26077W        W69130   7.055  20.200  19.490  0.1211 -0.1201  0.0227
26078W        W69131  33.271  14.799  14.591  0.1294 -0.2268  0.0437
26079W        W69132  31.300  25.435  24.695  0.1498  0.1140 -0.1235
26080W        W69133  14.903  17.823  25.701 -0.1323 -0.0937 -0.2319
26081W        W69134   0.032  11.464   4.734  0.0883 -0.1936 -0.0200
26082W        W69135   9.457  13.733  25.382  0.0143  0.1612  0.0014
26083W        W69136   5.458  14.555  14.073 -0.1169 -0.0445  0.0300
26084W        W69137  10.639   4.964  14.658 -0.0821 -0.0790  0.2141
26085W        W69138   9.659   9.597  22.668 -0.0200 -0.0365 -0.4122
26086W        W69139  12.488  30.784   7.145 -0.0590  0.0939  0.0480
26087W        W69140  16.594   8.822  22.306  0.0628  0.0340  0.2474
26088W        W69141  20.996   8.792   8.885  0.0204  0.0665 -0.2023
26089W        W69142  16.462  12.573  23.668  0.2004 -0.1308  0.0378
26090W        W69143  13.280  15.117  28.554 -0.0050  0.1619 -0.0993
26091W        W69144  29.190  15.572  21.655  0.2512 -0.0695  0.0487
26092W        W69145  18.890   4.949   7.767  0.1754 -0.0882  0.0642
26093W        W69146   2.580   0.035   4.441  0.0892  0.0266 -0.1683
26094W        W69147  13.229   5.409   0.738  0.0035  0.0821  0.2298
26095W        W69148   1.169   9.204   2.083 -0.1474  0.0434  0.0236
26096W        W69149  10.738   5.784  14.495  0.0548 -0.1048  0.2248
26097W        W69150   2.280   9.131  14.934  0.2280  0.1434  0.2451
26098W        W69151   2.008  13.339  23.032 -0.4035  0.0617 -0.3745
26099W        W69152  17.129   9.815   0.091 -0.3078 -0.0171 -0.0235
26100W        W69153  18.735   7.746   7.607 -0.1364 -0.2189 -0.0591
26101W        W69154   9.017   6.886   5.116 -0.1101  0.1749  0.3987
26102W        W69155   3.762  34.648   7.029  0.0805  0.1532  0.0041
26103W        W69156  19.505  13.931   5.453 -0.2077 -0.0215  0.1257
26104W        W69157  20.609  30.032   0.806 -0.0297  0.1107  0.1999
26105W        W69158  16.802  27.967  24.839 -0.0363 -0.2505 -0.1728
26106W        W69159  25.327  33.280   8.936  0.4676 -0.1923  0.0833
26107W        W69160   4.884  10.877  19.995  0.0550 -0.0326  0.3280
26108W        W69161  13.421  32.967  20.121  0.3193 -0.2962 -0.1558
26109W        W69162   8.695  15.446  10.165  0.0278  0.2137  0.1824
26110W        W69163  12.780  17.382  23.891 -0.0320 -0.0958 -0.1187
26111W        W69164  14.025   5.542   2.719  0.0432 -0.2213  0.0050
26112W        W69165   6.102  31.264  27.664  0.0145 -0.0511 -0.3214
26113W        W69166   2.294  17.817   1.628  0.0765 -0.3275  0.0754
26114W        W69167   4.389  25.638  15.784 -0.4723 -0.0929 -0.0519
26115W        W69168  21.927  10.619  25.208  0.1100 -0.0294  0.0482
26116W        W69169  27.410  18.674   2.050  0.0430 -0.4222 -0.1457
26117W        W69170  18.634  22.070   4.179  0.6467 -0.2038  0.1720
26118W        W69171  16.930   2.844  29.078 -0.3696 -0.0513  0.0468
26119W        W69172  11.813   7.220  19.155 -0.1680 -0.0130  0.0341
26120W        W69173  21.020  19.892  13.425 -0.3315  0.0595 -0.2404
26121W        W69174  34.643  30.176  27.827  0.0813 -0.2607  0.4063
26122W        W69175   9.604   8.451   8.219  0.2566 -0.0733 -0.1876
26123W        W69176  25.139  21.545   5.106  0.4490  0.0960 -0.2817
26124W        W69177  29.947  12.526  24.330 -0.0458 -0.0220 -0.1160
26125W        W69178   9.325  19.286   1.860 -0.0740  0.0350  0.1926
26126W        W69179  32.330   0.892  28.326  0.1516 -0.2645 -0.2602
26127W        W69180   2.451   8.588   5.244  0.1152  0.2689 -0.0802
26128W        W69181   7.036  23.325  19.658  0.1380 -0.1496  0.1296
26129W        W69182   9.148   1.595  15.457 -0.1181 -0.0731  0.1133
26130W        W69183  11.286   0.974   1.077 -0.2052 -0.1993 -0.1347
26131W        W69184   1.213  11.413  24.105  0.3197 -0.2870  0.0887
26132W        W69185   5.075   0.052  25.397 -0.2036  0.6426  0.3356
26133W        W69186   7.761   9.992   5.648  0.3338  0.2026 -0.0588
26134W        W69187  11.135   5.160   2.370 -0.2098  0.2213 -0.1189
26135W        W69188   4.530  23.786   5.522  0.1193  0.0305 -0.0881
26136W        W69189  27.861   7.437  18.060 -0.0702 -0.0316  0.0818
26137W        W69190  13.142   4.514  27.062 -0.0162 -0.2525 -0.1490
26138W        W69191   4.056  14.495   7.952  0.1761  0.2271  0.0831
26139W        W69192   1.260   8.651   0.612  0.0782 -0.0438 -0.3798
26140W        W69193   1.041  23.921  13.991  0.3170 -0.2335 -0.2777
26141W        W69194  33.020  34.336   6.173 -0.0326 -0.2440 -0.2766
26142W        W69195  17.124  31.472  19.077 -0.1862  0.1499  0.1210
26143W        W69196   0.842  17.900  26.201 -0.1709 -0.1571 -0.1933
26144W        W69197  28.384   1.400   2.320 -0.1173  0.1946 -0.0174
26145W        W69198  34.008  32.702   0.710 -0.1104  0.3264 -0.1542
26146W        W69199  14.946  11.118  25.561  0.2097 -0.3672 -0.1238
26147W        W69200  24.772   9.053  25.251 -0.1813 -0.0645 -0.5858
26148W        W69201  33.018  12.159  18.280 -0.1933  0.4085 -0.0508
26149W        W69202   3.548  22.750  26.172  0.0109  0.0718  0.1333
26150W        W69203   5.560   2.895   4.824 -0.3069  0.0618 -0.0883
26151W        W69204   8.985  10.260  23.247 -0.0424  0.1996  0.3550
26152W        W69205  30.889  22.238  16.921  0.1145  0.2120 -0.0376
26153W        W69206   3.563  28.495   5.032  0.1511 -0.1767  0.1307
26154W        W69207  34.141  18.451  14.961 -0.1322 -0.1350  0.1524
26155W        W69208   4.448   3.024  25.659 -0.2089  0.1616  0.0784
26156W        W69209  33.266  18.348  19.368 -0.2145 -0.3548  0.1335
26157W        W69210  15.427   3.521  18.656 -0.2350 -0.4116 -0.1328
26158W        W69211  15.673  12.707  27.671 -0.0417 -0.2922 -0.0283
26159W        W69212  16.583   5.479  10.102 -0.2092 -0.0895 -0.0514
26160W        W69213   9.865  31.480  18.959  0.0713 -0.2363  0.1042
26161W        W69214  26.415  13.438   1.493  0.0669  0.0693 -0.1913
26162W        W69215  22.483  32.609   5.248  0.1001 -0.0578 -0.4645
26163W        W69216  21.536  21.137  22.471  0.2633 -0.0573 -0.5721
26164W        W69217  10.499  33.795   4.702 -0.2310 -0.0562 -0.1342
26165W        W69218  32.775  27.041  14.624  0.0552  0.0643  0.1031
26166W        W69219  28.648   3.539  25.172 -0.2206  0.1172 -0.0265
26167W        W69220   5.513   8.071   4.116 -0.0582  0.3553  0.0767
26168W        W69221  34.342  30.632  26.687  0.4009 -0.0882 -0.0672
26169W        W69222   8.547   8.910   0.223  0.1984  0.1586 -0.0997
26170W        W69223  14.764   4.639  14.794  0.0987 -0.0667  0.0373
26171W        W69224   3.056  13.697  20.977 -0.2760  0.1022  0.1609
26172W        W69225  19.502   7.359  27.701 -0.3556  0.2596 -0.0982
26173W        W69226  23.472  32.794   7.954 -0.3256  0.0156 -0.0719
26174W        W69227  10.489  10.888   5.084 -0.0510  0.2073 -0.1336
26175W        W69228  26.050   6.187  26.254 -0.1169  0.0587 -0.0203
26176W        W69229   6.309  10.631   4.394 -0.1106 -0.0421 -0.0361
26177W        W69230   8.515   6.320   3.903  0.1050 -0.1182  0.2699
26178W        W69231  11.398   6.382  21.460  0.0983  0.2793 -0.0175
26179W        W69232   2.563   9.390  13.562 -0.0230  0.0997 -0.0023
26180W        W69233   7.306  10.253   9.840  0.1771  0.1798 -0.1280
26181W        W69234  13.950   9.438  10.682  0.0023  0.1355  0.1342
26182W        W69235  11.117  22.449   3.068 -0.0359  0.0142  0.2060
26183W        W69236  14.393  22.784  19.010  0.2649 -0.2512 -0.1583
26184W        W69237   1.777   5.520  18.228  0.2744  0.3001 -0.0816
26185W        W69238  27.815  18.539  15.730 -0.0223  0.2714 -0.0219
26186W        W69239  23.777  17.055   0.257  0.1750 -0.2227 -0.1761
26187W        W69240  31.837  12.060  23.815 -0.1347  0.5317 -0.2231
26188W        W69241  24.154  29.198  19.431 -0.1634 -0.3202  0.0768
26189W        W69242  32.520   2.349  21.325 -0.2475  0.1865 -0.1316
26190W        W69243  30.102  12.448   0.953  0.1016 -0.1638  0.0568
26191W        W69244   6.044  32.890  23.997 -0.0038  0.2483  0.0166
26192W        W69245  13.920  14.538  22.253 -0.0654 -0.3246  0.1047
26193W        W69246  23.709   7.116   8.014  0.0464 -0.4652 -0.0610
26194W        W69247  26.791  20.874   8.206  0.1578  0.1112  0.1774
26195W        W69248   5.926   2.667   0.712 -0.2149 -0.1505  0.1811
26196W        W69249  28.121  22.954  18.860 -0.0447 -0.0422 -0.1647
26197W        W69250   2.658  10.417   7.954 -0.0941  0.0913 -0.2339
26198W        W69251   1.877  20.751   6.737 -0.0191  0.0033  0.1363
26199W        W69252   3.053   2.008  24.042 -0.3805  0.2411 -0.0127
26200W        W69253  11.162  16.865  20.746 -0.0962 -0.2937  0.0019
26201W        W69254  16.921   3.001  21.785 -0.3437 -0.0392 -0.0699
26202W        W69255  10.764  23.458  23.437  0.0553  0.0034  0.0548
26203W        W69256   5.099   5.791   9.024  0.0346 -0.0051  0.0046
26204W        W69257   1.673  10.783  20.508 -0.0711 -0.1205 -0.1947
26205W        W69258   6.614   9.296   6.675 -0.1356 -0.3857 -0.0024
26206W        W69259  34.573   0.317  15.609 -0.1847 -0.0414  0.0397
26207W        W69260  28.021  33.678  25.433  0.1601  0.0339  0.1185
26208W        W69261   3.647  15.416  25.046  0.0999 -0.0015 -0.3211
26209W        W69262  24.027  20.905  19.905 -0.1165  0.0156 -0.2530
26210W        W69263  13.087  23.693  15.167  0.1529 -0.3364  0.1123
26211W        W69264  15.212  26.565  15.084  0.1048  0.1260 -0.4339
26212W        W69265  23.840  15.567   2.179 -0.2091  0.1829  0.0946
26213W        W69266  15.308   6.503   2.544  0.2221  0.0309  0.0240
26214W        W69267  29.762   1.550  27.380 -0.0530  0.0923 -0.0093
26215W        W69268   2.895  23.761  24.393  0.1762  0.1367 -0.0138
26216W        W69269   5.138  17.841  24.024  0.2317  0.0271  0.0360
26217W        W69270  31.554   3.698  17.232 -0.0707  0.1401 -0.1419
26218W        W69271  31.680  16.706  18.315  0.0277  0.1305  0.0903
26219W        W69272  33.436  20.459  26.771 -0.0056 -0.1480  0.5470
26220W        W69273   3.279  17.107  22.222  0.0599  0.1625  0.1667
26221W        W69274   5.788  11.341   4.093  0.2581 -0.0401  0.1343
26222W        W69275  16.753  28.974  23.438 -0.1587  0.1144 -0.0890
26223W        W69276   6.572   4.003   3.812 -0.1253  0.2621 -0.0592
26224W        W69277  19.675  15.077  26.159 -0.1332 -0.0834  0.0525
26225W        W69278  30.833  19.007   0.356  0.0767 -0.0097 -0.3609
26226W        W69279   2.332  16.614  16.318  0.3024  0.1101  0.1176
26227W        W69280  34.446  13.771  23.769  0.1819 -0.1173  0.2950
26228W        W69281   9.749  10.532   0.363  0.1873 -0.1284 -0.0051
26229W        W69282  30.298  18.302  23.414 -0.2604 -0.3111  0.0047
26230W        W69283  13.773  14.701  27.760  0.2014 -0.0364  0.2410
26231W        W69284  17.554   6.243   1.172  0.2132 -0.0882 -0.2186
26232W        W69285   8.921  14.605  29.150 -0.1834 -0.2011 -0.0566
26233W        W69286   7.125  34.655  28.448  0.3988 -0.1320 -0.0195
26234W        W69287  33.296   7.571  20.970 -0.0105  0.4171  0.0074
26235W        W69288  30.693  30.225   3.437 -0.2018 -0.1679  0.2723
26236W        W69289   3.766   8.037   0.078 -0.2427 -0.1279 -0.1321
26237W        W69290   7.604  19.137   5.448  0.0068  0.2917 -0.0277
26238W        W69291   1.692  12.925  14.170  0.2149  0.1180 -0.0247
26239W        W69292   1.958  24.769  21.552 -0.2127  0.3359  0.0187
26240W        W69293  32.744  13.087  19.504  0.0576  0.1565  0.3460
26241W        W69294   0.282  21.930  22.894  0.2352  0.1377  0.0526
26242W        W69295   5.183  16.046  20.566 -0.1278  0.1404 -0.1297
26243W        W69296  13.268  16.085  15.029  0.0408  0.1280  0.2269
26244W        W69297  33.020  16.887  22.917 -0.0940  0.0336 -0.0144
26245W        W69298   6.744  23.843   2.345  0.2460  0.0146 -0.0091
26246W        W69299  19.169   4.082  28.485  0.0696 -0.0786  0.0275
26247W        W69300  18.595   0.231   8.841  0.2388 -0.1803  0.0830
26248W        W69301  10.426  15.215  27.949  0.0389 -0.2529 -0.2115
26249W        W69302  31.514   7.140  19.060 -0.1398 -0.0469 -0.3454
26250W        W69303   4.864  14.932   3.647  0.0802 -0.0902 -0.0300
26251W        W69304   4.951  16.633  18.056  0.2986  0.2566 -0.1703
26252W        W69305   8.892   5.464  10.059  0.1921 -0.0063 -0.1762
26253W        W69306  11.572   2.009  20.397  0.0773  0.0572  0.2653
26254W        W69307  11.045   1.805   2.184 -0.0039  0.0083  0.1855
26255W        W69308   8.069  14.842  16.234  0.1073 -0.2099  0.1725
26256W        W69309   1.651  23.938  19.480 -0.0955  0.6183  0.0929
26257W        W69310  28.963   7.800   6.691  0.0881  0.1493  0.0656
26258W        W69311  29.621   7.980   0.057 -0.1568 -0.1532  0.0603
26259W        W69312  16.261   8.425   2.610 -0.3346  0.2779  0.0329
26260W        W69313  10.817  33.098  23.297  0.1554  0.0004 -0.0514
26261W        W69314  22.788  15.878   6.975  0.3486  0.3448  0.1734
26262W        W69315  11.837   6.758  25.408 -0.0520  0.0412 -0.2427
26263W        W69316  23.859   6.938   3.070  0.0606  0.1625  0.0992
26264W        W69317  33.320  25.501   6.828  0.2217 -0.1818 -0.1808
26265W        W69318  13.475  28.736  14.006 -0.0509  0.0142 -0.1691
26266W        W69319  30.565  16.015  16.499  0.0303  0.1029  0.1534
26267W        W69320  13.339  20.435  19.092 -0.1631 -0.0629 -0.2341
26268W        W69321  11.862  17.282  21.195 -0.1181 -0.0250  0.2165
26269W        W69322   1.987  26.895   6.575  0.1530 -0.0023 -0.1658
26270W        W69323   6.109  24.435  16.715 -0.2915  0.1619  0.0524
26271W        W69324  10.141   9.492  18.369 -0.1712 -0.3515  0.0509
26272W        W69325   1.180   6.865   0.184  0.2252 -0.1960  0.0796
26273W        W69326  13.468   3.442   3.133 -0.1206 -0.0070 -0.0487
26274W        W69327  10.458  22.392  27.951 -0.3138 -0.0331 -0.3156
26275W        W69328   9.483  17.303  19.104 -0.1518 -0.0837  0.0524
26276W        W69329   2.599  14.800  18.046 -0.0076 -0.0281  0.0431
26277W        W69330  22.395  24.627  24.295  0.1814 -0.1707  0.1022
26278W        W69331  24.873   8.993   3.294 -0.0220  0.0588 -0.3824
26279W        W69332   4.471  34.349  19.704 -0.1512 -0.0452  0.3664
26280W        W69333   9.557  14.174  28.134 -0.3139 -0.0448 -0.0756
26281W        W69334   9.348   2.226  27.938  0.0185 -0.1303  0.3159
26282W        W69335  10.348  16.847  14.879 -0.0745  0.1069 -0.2510
26283W        W69336  32.724   1.514  18.274 -0.2033 -0.0576  0.0362
26284W        W69337  33.840  25.091  17.524  0.0028  0.1397 -0.1443
26285W        W69338  21.140  13.705  17.302  0.1703  0.1215 -0.4163
26286W        W69339  29.762  30.662  16.165  0.2067  0.0892 -0.2475
26287W        W69340  14.158  17.278   5.000 -0.4854  0.0751 -0.2304
26288W        W69341  12.827   5.401  14.955  0.2285 -0.1362 -0.0467
26289W        W69342  16.431  22.452   7.184 -0.0478  0.1721  0.0360
26290W        W69343  20.098  33.489  19.080  0.0206 -0.1794 -0.6629
26291W        W69344  18.693   4.431  18.229 -0.0342  0.2098  0.1269
26292W        W69345  12.516  10.807  17.616 -0.0292  0.2115 -0.0204
26293W        W69346  31.425   6.466   4.661  0.0327  0.2923  0.2995
26294W        W69347   5.248  34.051  16.937  0.0052 -0.0570 -0.2001
26295W        W69348  12.454  24.575  20.887 -0.0316  0.1179 -0.1334
26296W        W69349   2.252  15.279  27.961 -0.0033  0.1084  0.1522
26297W        W69350  33.973  30.706  19.520 -0.0708  0.1395  0.2391
26298W        W69351  12.166  18.868   6.060  0.1672 -0.2242 -0.1183
26299W        W69352  11.250  32.327   8.342 -0.2432  0.2493  0.0573
26300W        W69353   5.265   8.848  25.994  0.1007  0.0933 -0.0237
26301W        W69354   2.991  16.138   0.469  0.0389  0.0151  0.1602
26302W        W69355   9.452   3.301   1.634  0.1810  0.2402 -0.1502
26303W        W69356  32.137   6.069   9.545  0.0743  0.1366 -0.0778
26304W        W69357   6.525   9.765   6.535  0.0564 -0.3834  0.2806
26305W        W69358   6.712  25.078  26.878 -0.2314 -0.1981  0.0767
26306W        W69359  16.537  22.739  16.962  0.0564  0.1014 -0.2713
26307W        W69360   6.724  27.998  14.521  0.1755  0.2414  0.2426
26308W        W69361  28.236   9.754   3.800 -0.0590  0.1345  0.0342
26309W        W69362  32.209   9.848   9.050 -0.0791 -0.5035  0.0009
26310W        W69363  15.547   2.660  18.211  0.0576  0.1547 -0.1935
26311W        W69364  11.645  20.803  26.149  0.0654 -0.0943  0.1077
26312W        W69365  29.022  26.421   1.835 -0.0871  0.2607 -0.2714
26313W        W69366  14.260   9.361   2.922  0.0319  0.2308 -0.1125
26314W        W69367  24.994  26.278   8.452  0.0165 -0.4247 -0.1792
26315W        W69368   4.201  32.769   8.482 -0.0383  0.0422  0.0327
26316W        W69369  32.794   3.275  15.421  0.2751  0.1907 -0.0495
26317W        W69370  33.311  21.237  23.928  0.0874 -0.0593 -0.1308
26318W        W69371  15.969   5.450  24.547  0.1893 -0.1449 -0.0526
26319W        W69372   7.057  24.075  20.612  0.1468  0.0134 -0.2316
26320W        W69373   0.210  27.884  13.202  0.1194  0.2769 -0.0163
26321W        W69374  31.839  13.405   8.140  0.1627 -0.1417  0.1722
26322W        W69375  18.189   1.016  29.157 -0.2536 -0.2001 -0.3897
26323W        W69376   2.109  20.639  21.615 -0.2991 -0.1297 -0.0309
26324W        W69377  32.146   3.007  24.066 -0.2106  0.0409  0.3078
26325W        W69378   5.849  11.647  18.529 -0.0946 -0.3280 -0.1573
26326W        W69379  17.695   5.821  22.980 -0.1962  0.2397 -0.1005
26327W        W69380   7.425  16.403  25.641  0.0138  0.1124 -0.1583
26328W        W69381  18.660   6.711  18.218 -0.0256  0.0420 -0.1462
26329W        W69382   7.578  22.426   2.187  0.0081  0.1271 -0.1597
26330W        W69383  14.038   2.417   4.455 -0.2652  0.0480 -0.1033
26331W        W69384   8.701  32.239   5.780 -0.0137 -0.3808 -0.1418
26332W        W69385  10.277  24.183  14.507  0.0220  0.2121 -0.1266
26333W        W69386   5.252  16.497  15.633  0.1890  0.1848 -0.0333
26334W        W69387  12.867   9.729  28.591  0.4092 -0.1484 -0.0369
26335W        W69388   8.886  10.157   0.937  0.1867  0.0005 -0.0626
26336W        W69389   1.317  13.625   7.672  0.2442  0.1478  0.1350
26337W        W69390  16.611   4.831  23.791 -0.0280  0.1186  0.1802
26338W        W69391  23.454   8.746   5.450 -0.1391 -0.0650 -0.0159
26339W        W69392  17.660  33.739   1.032 -0.2330  0.0949 -0.1274
26340W        W69393  13.155   2.706  25.634  0.0348  0.1223  0.0735
26341W        W69394  14.783   6.649  27.985 -0.0178 -0.0238  0.1989
26342W        W69395   4.439  31.759  21.140 -0.0400  0.0982  0.1846
26343W        W69396   7.553  10.906   2.707  0.3144 -0.1662 -0.0663
26344W        W69397   1.323   8.845  14.849 -0.0518 -0.2513 -0.0840
26345W        W69398   9.460  29.525  14.257  0.3594  0.0161 -0.2937
26346W        W69399   5.782  10.068  21.541 -0.0746 -0.0898 -0.0469
26347W        W69400  15.891   9.379  26.657 -0.1141 -0.0911  0.2661
26348W        W69401  11.784  19.858  28.411 -0.2042  0.1032 -0.0074
26349W        W69402   3.360  33.334  28.668  0.1605  0.2972  0.2700
26350W        W69403   4.560  18.475   4.103 -0.0557 -0.1013  0.0079
26351W        W69404  32.801   6.962  24.415  0.1877 -0.0646 -0.0771
26352W        W69405  21.297  23.469  26.247  0.4473  0.0892  0.0797
26353W        W69406   3.001   9.698  23.555  0.1665  0.1415  0.1214
26354W        W69407  18.300   8.695  23.877  0.0620  0.1864 -0.0040
26355W        W69408   6.950  23.388  26.847 -0.0881  0.0741 -0.0103
26356W        W69409  31.499  23.005  27.133 -0.1277 -0.0056  0.0839
26357W        W69410  20.919   1.914  21.235 -0.1352  0.0282  0.0053
26358W        W69411   7.336  10.503  16.557  0.2329 -0.1822 -0.0107
26359W        W69412  31.526  30.713  27.632  0.1347  0.0115  0.0391
26360W        W69413   4.024  18.890   9.236 -0.2048  0.2386 -0.1747
26361W        W69414  34.615   7.437  27.585 -0.1829 -0.2593  0.0324
26362W        W69415  12.000  20.464   6.741 -0.4966 -0.2762  0.0622
26363W        W69416  14.564   9.901   1.631  0.0839 -0.1523  0.2802
26364W        W69417  11.364   3.928   4.471  0.1416  0.0124  0.3803
26365W        W69418  15.347  11.123  20.419 -0.2526  0.1647  0.2219
26366W        W69419  30.026  21.303  23.575  0.1117  0.0402  0.0710
26367W        W69420  21.539  24.665  23.941  0.0491 -0.0622 -0.5235
26368W        W69421  32.583   9.150  17.034  0.0004  0.1076  0.0428
26369W        W69422   2.718  16.404   7.629 -0.0425  0.2180 -0.1925
26370W        W69423  12.476  12.214   2.754 -0.3593  0.1387 -0.0496
26371W        W69424  26.323  17.480   9.053  0.0017 -0.2875  0.2543
26372W        W69425  11.126  24.729  17.486 -0.2947  0.1868 -0.3089
26373W        W69426   0.164   5.339  17.406 -0.3186 -0.0197 -0.0767
26374W        W69427  23.498  25.880  21.901 -0.0498 -0.1212 -0.0069
26375W        W69428  18.450  33.834  19.347 -0.2868 -0.0267 -0.1808
26376W        W69429  10.495   3.402   5.908 -0.2238  0.0243  0.0035
26377W        W69430   5.779  16.222  29.187  0.2221  0.0082 -0.2933
26378W        W69431   0.979  32.195  20.606  0.0045  0.1116 -0.3496
26379W        W69432   1.998  12.465  14.697  0.3467 -0.0988 -0.1218
26380W        W69433   6.424  12.636  10.465 -0.0470  0.1938 -0.1207
26381W        W69434  10.228  21.625  14.174 -0.1266  0.0884 -0.2317
26382W        W69435   6.710  18.284  13.480  0.1448  0.0897  0.0101
26383W        W69436  28.703   9.399  27.584 -0.3485 -0.0158  0.2996
26384W        W69437   5.532   3.618   7.409 -0.3530 -0.0436 -0.1393
26385W        W69438   5.485   8.372   3.113 -0.2619  0.0226  0.2715
26386W        W69439  12.695  17.709   5.897 -0.3487 -0.3659  0.1858
26387W        W69440   5.057  28.589   4.120 -0.4714 -0.0345 -0.0533
26388W        W69441  29.942   0.228  23.603  0.1855  0.2094 -0.1176
26389W        W69442   0.940  25.189  18.398 -0.0831  0.3059  0.0419
26390W        W69443   1.345   8.451  27.966 -0.1961  0.1958 -0.1685
26391W        W69444   2.870  22.101   5.439 -0.1873 -0.5100  0.0915
26392W        W69445   1.755  33.317  23.484 -0.0303  0.1661 -0.0048
26393W        W69446  31.366   4.246   2.004  0.0471 -0.1996 -0.0065
26394W        W69447  31.940  14.404  20.609 -0.0253 -0.0088  0.2186
26395W        W69448  31.757   8.510  27.538  0.0748 -0.4650  0.6126
26396W        W69449   3.698  19.501  24.919 -0.0009 -0.2864 -0.2896
26397W        W69450   8.194  14.941   0.402 -0.0166 -0.2403  0.1867
26398W        W69451   5.094  12.012  19.416  0.0207  0.3580  0.0792
26399W        W69452  16.785  33.231  14.689 -0.1128  0.2244  0.1533
26400W        W69453  30.333   5.099   8.066  0.0602 -0.0866 -0.1781
26401W        W69454  14.741  17.713  27.386 -0.3497  0.0149 -0.1405
26402W        W69455   5.160  17.674  15.905  0.3052 -0.0793  0.1999
26403W        W69456  18.857   6.329  21.934  0.0200  0.1470  0.0020
26404W        W69457   9.391  26.699  17.605 -0.0234 -0.0907 -0.5586
26405W        W69458  13.294   8.097  26.364  0.1045  0.0552  0.0045
26406W        W69459   2.246   2.840  28.226 -0.3598  0.1380 -0.1897
26407W        W69460  34.507  21.307  26.175 -0.0913  0.1308  0.0703
26408W        W69461  34.060   8.449   8.176 -0.0856  0.1305 -0.1279
26409W        W69462  34.275  25.750  23.580  0.0262  0.4128 -0.0596
26410W        W69463   8.097  11.528  27.578 -0.0073  0.1432  0.1830
26411W        W69464   8.358   8.842  22.482  0.2008  0.1244 -0.0679
26412W        W69465  15.043  14.726  21.582 -0.0176  0.2331  0.0620
26413W        W69466  13.558  22.077  19.949  0.2069 -0.0198  0.0030
26414W        W69467  29.383   8.193   6.054 -0.0528  0.4189  0.1426
26415W        W69468  18.123   1.013  18.293  0.1099 -0.1046 -0.2095
26416W        W69469   4.590  25.116   9.998  0.1769 -0.2359  0.0240
26417W        W69470   6.307   6.002  24.981  0.1308  0.2619 -0.3812
26418W        W69471   3.387   3.827   2.778 -0.0970 -0.0215 -0.1904
26419W        W69472   2.449  23.660   8.318  0.0127 -0.0336 -0.2345
26420W        W69473   3.137   7.408  26.225 -0.0880  0.0425 -0.2626
26421W        W69474  34.291  13.872   2.795 -0.2896 -0.1225  0.0348
26422W        W69475  16.744  31.579  15.799 -0.0600 -0.0466  0.2435
26423W        W69476   0.823  13.629  20.939 -0.2808 -0.0851  0.0900
26424W        W69477  20.572   1.598  17.181 -0.3124 -0.0129 -0.0051
26425W        W69478  16.330  23.039   3.939  0.0987  0.0429 -0.2592
26426W        W69479  31.749  34.537   6.824 -0.0701  0.0096 -0.0194
26427W        W69480  28.149  19.740  22.877 -0.1033 -0.1948 -0.1346
26428W        W69481  33.778   9.401  23.044  0.0581  0.0124  0.0575
26429W        W69482   8.049  23.943  21.983 -0.2213  0.0395 -0.0559
26430W        W69483  16.126  25.012  24.431  0.3174 -0.2215 -0.3461
26431W        W69484   1.755  30.381   5.160 -0.1844  0.1996 -0.3642
26432W        W69485  16.490  15.952   4.557  0.2932 -0.2187 -0.3288
26433W        W69486   1.198   8.139  28.452 -0.0256 -0.0264  0.0375
26434W        W69487   2.892  15.961  24.372  0.0467 -0.0121 -0.0819
26435W        W69488  11.424  21.145  28.652  0.0342 -0.1424  0.0561
26436W        W69489   8.528  10.109  15.830 -0.0478  0.2526 -0.1708
26437W        W69490   0.342  24.509  27.592 -0.1241 -0.0338 -0.1571
26438W        W69491   8.801  11.651  22.999  0.2947 -0.1906 -0.0894
26439W        W69492  34.109  18.058  18.780 -0.3261 -0.0491 -0.0368
26440W        W69493  11.605  13.704  25.898 -0.0396  0.1115 -0.0827
26441W        W69494  10.525  33.100   9.243  0.0973  0.1642 -0.0081
26442W        W69495  22.147   9.216   4.083 -0.4324 -0.1552 -0.0718
26443W        W69496  24.849  23.928   5.046  0.0971  0.0655 -0.1234
26444W        W69497   7.684   2.459  14.816  0.0197 -0.2116  0.2113
26445W        W69498  33.161  17.865  22.165 -0.2664  0.4582  0.4265
26446W        W69499  22.451   2.261  19.724  0.0517 -0.2145 -0.1412
26447W        W69500  21.490   6.284   9.785 -0.2415  0.0249 -0.0650
26448W        W69501  11.057  26.247  25.901  0.1694 -0.2920 -0.1395
26449W        W69502   0.762   1.196  28.912  0.0926 -0.0078 -0.1344
26450W        W69503  13.436   3.115  15.220 -0.0794  0.2566 -0.3832
26451W        W69504  33.955  33.092  23.763 -0.3069  0.0023  0.1537
26452W        W69505  19.774  16.117   5.920  0.2362 -0.2023  0.2914
26453W        W69506   2.378  12.480  23.430 -0.1705 -0.1213  0.0407
26454W        W69507   4.389  13.145  28.167  0.1456 -0.0128 -0.0008
26455W        W69508   2.826  17.157   6.074  0.4732 -0.1432 -0.1002
26456W        W69509   5.699  20.161   6.655  0.0068 -0.0542  0.2426
26457W        W69510  14.685  27.669  26.674 -0.1468 -0.3538 -0.0200
26458W        W69511  33.422  29.386   5.464  0.0846 -0.1275  0.0438
26459W        W69512  29.340  18.105  16.588  0.1050 -0.4546  0.1058
26460W        W69513   3.130  16.031  19.937  0.2617  0.0617  0.0254
26461W        W69514   8.972  11.232  20.864  0.2399 -0.0303  0.1418
26462W        W69515   3.763  12.211   3.972 -0.1111  0.1325  0.2367
26463W        W69516  13.379   2.384  29.144 -0.0892 -0.2720  0.0292
26464W        W69517   5.918  12.854  24.296  0.2778 -0.0821  0.0555
26465W        W69518  11.123  12.523   9.663  0.1663 -0.1128 -0.1485
26466W        W69519   3.950  17.005   0.167 -0.1329 -0.2343  0.0447
26467W        W69520  12.533  10.461   1.752  0.0977  0.1081  0.1844
26468W        W69521   9.348   3.432  25.722  0.0819  0.0742 -0.1806
26469W        W69522   3.689   6.341  20.503  0.2324 -0.2789  0.2670
26470W        W69523  15.617  27.050  23.493  0.3546  0.1437  0.0447
26471W        W69524   6.862  15.712  17.283 -0.0075 -0.2005  0.2883
26472W        W69525   8.879  11.349  18.782 -0.2651 -0.0361 -0.0529
26473W        W69526   6.481  19.480  17.469 -0.2865 -0.3865 -0.3784
26474W        W69527  17.652   0.335  26.482 -0.0531  0.0221  0.1932
26475W        W69528   5.796  16.032  26.369  0.1329 -0.1170  0.0290
26476W        W69529  33.586  32.005  25.566 -0.1515 -0.0132  0.1977
26477W        W69530   7.719   4.350   7.033 -0.1626  0.0838  0.0034
26478W        W69531  26.143  12.869  20.062 -0.0984 -0.2782  0.2973
26479W        W69532  32.740   1.307   1.981  0.0084  0.0711  0.0425
26480W        W69533  20.536  19.324   1.713 -0.0679  0.1197  0.1636
26481W        W69534   9.356  13.680   9.144  0.0571 -0.3297 -0.0429
26482W        W69535  33.743   0.256  18.693  0.0712 -0.3093  0.2700
26483W        W69536   3.584  14.316   8.124 -0.1730 -0.3491 -0.1518
26484W        W69537  29.947  15.657  24.248 -0.0731 -0.3014 -0.0733
26485W        W69538   6.874  32.177   9.424  0.1967  0.0756 -0.0868
26486W        W69539  10.416  14.276  25.979 -0.2560 -0.0925  0.1352
26487W        W69540  13.209  20.137   6.461 -0.0112  0.2893  0.0866
26488W        W69541   4.599  15.838  17.099 -0.0376 -0.2821 -0.1812
26489W        W69542   4.100   0.613   7.210  0.1859 -0.2657 -0.0418
26490W        W69543   6.656   3.008  20.398  0.3281  0.0855  0.1081
26491W        W69544  13.385   9.926   3.690 -0.2421 -0.0777  0.0161
26492W        W69545  31.755  25.141  21.828 -0.0602 -0.0872  0.0863
26493W        W69546   5.977   9.340   5.836 -0.3138 -0.1132  0.0696
26494W        W69547   2.835  27.094   2.039 -0.1313  0.2083 -0.0883
26495W        W69548  26.228  28.621   9.604  0.0359 -0.5376 -0.0330
26496W        W69549   4.502   9.592   4.718  0.0093  0.5341 -0.0774
26497W        W69550   3.811  19.062  20.357 -0.1074  0.1442 -0.1168
26498W        W69551  31.770  19.392  14.092 -0.0166  0.2346 -0.3421
26499W        W69552  15.443   4.638   1.720  0.0606 -0.0561  0.3521
26500W        W69553  34.072   5.815  23.514  0.1451 -0.0772  0.0213
26501W        W69554   8.346  26.142  23.266  0.0298 -0.1143 -0.3364
26502W        W69555   8.520   8.710   9.451  0.1394  0.1544  0.1161
26503W        W69556  25.383  25.073   2.895  0.0023  0.2789  0.2400
26504W        W69557  24.833   7.132  20.838 -0.2873 -0.0869  0.3425
26505W        W69558  11.685  20.281   4.986  0.1540  0.1309 -0.2360
26506W        W69559   8.035   9.354  26.258 -0.1240 -0.1100  0.0717
26507W        W69560   6.320   5.184  21.273 -0.2000  0.3715 -0.1707
26508W        W69561   9.692   6.759  24.906 -0.3670  0.0413 -0.0840
26509W        W69562  30.368  17.842  21.235 -0.1581 -0.0825  0.1394
26510W        W69563   2.807  11.376  19.970  0.0896 -0.2772  0.0014
26511W        W69564  34.238   9.115   0.701  0.1210 -0.1963  0.2835
26512W        W69565   5.056   0.684   1.079  0.2267 -0.1743 -0.1781
26513W        W69566   5.684  17.487   6.091  0.2075  0.1391 -0.1457
26514W        W69567   6.622  29.774   2.716  0.1169 -0.2778  0.1064
26515W        W69568  15.185   5.165   9.540 -0.2393  0.3267 -0.0890
26516W        W69569  14.116   8.044  16.261  0.0928 -0.1915  0.2471
26517W        W69570   8.272  32.061   5.609 -0.3318  0.0636 -0.2008
26518W        W69571  33.438  10.624  25.216  0.2401  0.0653  0.0040
26519W        W69572  11.395   5.920   7.513  0.2109  0.1765 -0.0528
26520W        W69573  33.778   1.679  26.654  0.1584  0.0408  0.0678
26521W        W69574   9.650  32.808   6.029 -0.0086 -0.0552 -0.3078
26522W        W69575  12.515  21.624   1.781  0.1153  0.1966  0.2267
26523W        W69576  11.812  13.432  22.197 -0.0347 -0.1462  0.2076
26524W        W69577  13.240  16.571   4.560  0.2161 -0.3245 -0.2266
26525W        W69578  12.313  16.494   4.329  0.0009 -0.0702 -0.3071
26526W        W69579   1.639   0.066  25.968  0.1029 -0.1489 -0.1139
26527W        W69580   5.455   9.872   8.521  0.0261  0.1561 -0.1950
26528W        W69581   3.752   3.596   4.544  0.1826 -0.0815  0.0465
26529W        W69582  23.439   6.164   6.769  0.1737 -0.5105 -0.1189
26530W        W69583  31.870  14.583  28.305  0.0530  0.0442 -0.2992
26531W        W69584  27.550  19.916   6.107  0.0343  0.0260 -0.0630
26532W        W69585   1.549   5.057  17.575  0.1407 -0.3089 -0.2585
26533W        W69586   6.340   0.587   7.792  0.1144  0.1250 -0.3080
26534W        W69587  32.578   6.565   6.907  0.1978  0.1880  0.0244
26535W        W69588  13.126  11.839  17.948  0.2008 -0.1103 -0.1522
26536W        W69589   5.282  11.940   5.733  0.1362  0.3473 -0.0696
26537W        W69590  13.919  20.885   2.646  0.3917 -0.1403  0.1160
26538W        W69591  19.260   3.687   6.948  0.2675 -0.0200 -0.3974
26539W        W69592  29.525   0.318  28.423 -0.0045  0.1539 -0.1025
26540W        W69593  26.029   9.791  21.669  0.2974  0.3336 -0.2425
26541W        W69594  14.018   9.451  18.136 -0.1406  0.4243  0.0796
26542W        W69595  32.062   5.142   9.519  0.1273  0.0597  0.0532
26543W        W69596  18.057  12.293  20.726 -0.1293  0.0652  0.0650
26544W        W69597  20.191  14.248   3.446  0.0692 -0.0658  0.1245
26545W        W69598   3.823   2.955   5.016  0.0523 -0.0519 -0.1046
26546W        W69599  18.521   3.622   7.731  0.0690 -0.3757 -0.3612
26547W        W69600  29.421   7.577   5.508  0.1787 -0.2063  0.1968
26548W        W69601   7.436  33.845   9.496  0.0114  0.1513  0.0558
26549W        W69602  23.505  32.237  17.175  0.0015  0.0405  0.0685
26550W        W69603  12.606  16.141  16.367  0.0841 -0.2054  0.0189
26551W        W69604  15.721  14.681  14.773  0.2830 -0.1826 -0.0257
26552W        W69605  17.818   4.517  14.825  0.2425  0.0229  0.1139
26553W        W69606  33.706  20.645  17.031  0.0640 -0.4159  0.0170
26554W        W69607  12.961   6.332  18.279 -0.1240  0.2113 -0.1815
26555W        W69608  31.010  17.954  20.527  0.1844 -0.0580  0.2699
26556W        W69609   6.821  25.638  17.851 -0.0657  0.0835  0.0319
26557W        W69610   7.790  13.354   5.622 -0.0317  0.0867  0.0194
26558W        W69611  28.576  15.740  28.356 -0.2000  0.1151 -0.0452
26559W        W69612   0.633  11.425  22.244 -0.0298  0.1323  0.2508
26560W        W69613  26.849   2.605  25.015 -0.0478 -0.0604  0.0582
26561W        W69614   9.149  14.947  24.468  0.1590  0.0043  0.3243
26562W        W69615  34.606   9.243  18.033 -0.2839  0.0290  0.2224
26563W        W69616  18.154  13.886  22.027 -0.0628  0.1099 -0.1007
26564W        W69617   2.962   2.170  25.634 -0.2297  0.1207 -0.1373
26565W        W69618   6.695  12.236  16.012  0.0535 -0.1121  0.0456
26566W        W69619   1.383   8.804  27.061 -0.3279  0.3095 -0.0358
26567W        W69620  17.596  14.565  26.523  0.1300 -0.3512  0.1405
26568W        W69621   5.678  12.867  22.617  0.1849 -0.1549  0.1954
26569W        W69622  31.570  21.730   1.884 -0.0270  0.2217  0.0141
26570W        W69623   3.849  25.309  18.625 -0.1673  0.0258 -0.0900
26571W        W69624   4.936   9.570  27.203 -0.0765 -0.0551 -0.0410
26572W        W69625  21.825  13.112  14.269  0.0483 -0.0826  0.2080
26573W        W69626  34.180  19.539  17.790 -0.4409 -0.4802  0.1704
26574W        W69627  32.694  29.390  18.041  0.0965  0.1132  0.2410
26575W        W69628  26.313  23.934   3.725 -0.2797 -0.1572 -0.0879
26576W        W69629  34.288  26.976  13.643 -0.1282 -0.1445 -0.1283
26577W        W69630   5.624  25.426  25.302  0.1628 -0.1023  0.0332
26578W        W69631  26.609  29.591  24.423 -0.0769 -0.0699  0.0050
26579W        W69632   9.986  22.084  23.039 -0.2496  0.1716  0.1750
26580W        W69633   3.195  14.786  17.853  0.0335 -0.0561 -0.3147
26581W        W69634   4.641  19.314  22.309 -0.2344  0.1920 -0.3731
26582W        W69635  33.975   4.373  17.898  0.3986  0.1247 -0.0609
26583W        W69636  23.715   7.082  18.698  0.1493 -0.0118 -0.0005
26584W        W69637  34.561  28.166  27.327 -0.0519 -0.2655 -0.2544
26585W        W69638   7.855  11.757  17.610  0.1157  0.1770 -0.0399
26586W        W69639   3.257  24.005  24.594 -0.1085  0.0136 -0.1255
26587W        W69640  12.816  11.672  27.766 -0.0283 -0.0326 -0.1159
26588W        W69641  20.403   2.785   3.823 -0.2036  0.2582  0.1276
26589W        W69642   1.043  18.369  23.500 -0.2226 -0.0390 -0.2975
26590W        W69643  17.333  18.434  15.661 -0.6980  0.0751 -0.2965
26591W        W69644  13.420  34.684  22.426 -0.3968 -0.1292 -0.3715
26592W        W69645   4.508  20.624  13.598  0.2863 -0.0100 -0.0484
26593W        W69646  34.110   7.217  15.237 -0.0700  0.1660 -0.3608
26594W        W69647  24.298  24.368  21.470 -0.0964 -0.0847 -0.3925
26595W        W69648  14.774  16.552  27.501 -0.4107  0.0638  0.1968
26596W        W69649  29.689  23.343  27.564  0.2966 -0.0362 -0.2522
26597W        W69650   5.475   3.941  15.540  0.3304  0.0708 -0.3330
26598W        W69651   1.198  24.256  19.528  0.0583  0.2442  0.4363
26599W        W69652  34.550  16.802  18.634  0.3277 -0.0107 -0.1789
26600W        W69653   3.326  11.747  17.039  0.0398 -0.0840  0.0225
26601W        W69654  31.304   6.910  19.456 -0.2533  0.1762 -0.1086
26602W        W69655  31.070   2.116  17.158  0.0611 -0.1876  0.0289
26603W        W69656  19.251  32.442  28.174  0.0140  0.1849  0.0670
26604W        W69657  25.583  32.108  27.175 -0.0591 -0.0876 -0.0532
26605W        W69658   9.583  22.327  18.330 -0.0747  0.2339  0.2530
26606W        W69659  34.202   9.712  25.725  0.0865  0.0523 -0.1315
26607W        W69660   8.086   9.221  16.242  0.0742  0.1198  0.4048
26608W        W69661   9.537  31.315  13.581  0.2829  0.0776 -0.0254
26609W        W69662   3.090  27.365  19.190  0.1278 -0.0674  0.0390
26610W        W69663   0.075   5.724   3.554  0.1417  0.0870 -0.1565
26611W        W69664  12.684  34.118  27.723  0.1414  0.1594  0.0087
26612W        W69665  13.021  12.674  20.390  0.1663  0.0887  0.1794
26613W        W69666   2.119  25.793  16.392  0.4452  0.2097 -0.0163
26614W        W69667   4.140  19.558  14.802 -0.0701 -0.0050  0.3593
26615W        W69668   3.448  23.079  15.673  0.2247  0.1168  0.2375
26616W        W69669  10.939  34.502  19.640  0.0012 -0.0276  0.0868
26617W        W69670   2.163  34.384  16.868 -0.0646  0.0720  0.2181
26618W        W69671  32.504  25.628   1.474  0.2359 -0.0015 -0.1699
26619W        W69672  21.414  15.418   2.417  0.0619  0.2515  0.1440
26620W        W69673   3.737  29.814  15.259  0.0351  0.0487  0.0798
26621W        W69674  22.081  15.340  18.513  0.0614 -0.1533 -0.0193
26622W        W69675   7.615  26.266  23.667  0.0455 -0.0473  0.1697
26623W        W69676  11.948  32.752   2.517  0.2778 -0.4170  0.0749
26624W        W69677  11.113  10.176  19.359 -0.1071  0.1585 -0.0040
26625W        W69678   0.112   3.082  16.870  0.0263 -0.0575  0.0243
26626W        W69679   7.253  17.930  18.483 -0.0531 -0.0354  0.1611
26627W        W69680  34.683  22.880  24.022  0.0712  0.0276  0.0242
26628W        W69681  33.915  19.345  21.256  0.1649  0.1167  0.1096
26629W        W69682   9.762  22.416  23.859  0.2246 -0.0934  0.0620
26630W        W69683   0.564  28.286  12.901 -0.2810  0.1277  0.0827
26631W        W69684   8.093   1.673  22.174 -0.0701 -0.0597 -0.1951
26632W        W69685   9.080  15.303  22.378 -0.2599 -0.0169  0.1984
26633W        W69686  12.907  11.672  26.535 -0.1217 -0.0798  0.2315
26634W        W69687  14.674  26.204  25.317 -0.3112  0.1496  0.1979
26635W        W69688  34.404  12.366  28.894  0.1749  0.2624 -0.0234
26636W        W69689  23.086  19.844  16.678  0.0618 -0.1242  0.0528
26637W        W69690   1.914  14.570  24.995 -0.0252  0.1679 -0.5627
26638W        W69691   4.328  18.768  13.667 -0.2540 -0.0864  0.0185
26639W        W69692  10.056  16.780  18.939  0.3809 -0.1906 -0.1956
26640W        W69693  14.605   4.096   6.104 -0.1797  0.1820 -0.0372
26641W        W69694  29.369  15.603  14.259 -0.1303 -0.0620  0.2522
26642W        W69695  12.941  13.312   6.397 -0.0633  0.1870 -0.4126
26643W        W69696   5.742  29.077  18.839  0.0457  0.1152 -0.0881
26644W        W69697  28.973  28.728  14.612  0.1771  0.2547 -0.1304
26645W        W69698   5.282  13.579  24.992  0.0701  0.1491 -0.0733
26646W        W69699  29.155  17.137  15.496 -0.0158 -0.0559 -0.0865
26647W        W69700   9.040  32.007  17.327  0.0118 -0.0913 -0.0641
26648W        W69701  27.992   5.305  21.029 -0.0102  0.2189  0.0260
26649W        W69702  18.534   1.897  16.869 -0.1255  0.1260  0.0500
26650W        W69703  12.751  13.774  28.234 -0.0456  0.0589 -0.0325
26651W        W69704   2.942  29.319  12.790  0.0863 -0.0624 -0.1695
26652W        W69705   7.970  14.267  21.472  0.1782 -0.1850  0.2569
26653W        W69706  14.771   3.347   4.584 -0.1707 -0.1462 -0.3638
26654W        W69707  29.358  25.369  16.906  0.1704 -0.1026  0.0069
26655W        W69708   0.036  13.168  26.405 -0.0570 -0.1596  0.0179
26656W        W69709   0.262   5.243  23.315  0.5328 -0.1371  0.0890
26657W        W69710  15.018  15.460  23.751 -0.0226 -0.1722  0.3623
26658W        W69711  10.352  13.445  17.848  0.0812  0.2232  0.2112
26659W        W69712  32.420  15.210  19.244  0.4806  0.1232 -0.1015
26660W        W69713  11.346   3.560  25.258  0.0155  0.0152 -0.1473
26661W        W69714  33.210   9.282  17.997 -0.0175 -0.1119  0.1836
26662W        W69715   2.816  16.968  18.807  0.2305 -0.1504 -0.3765
26663W        W69716  11.529  12.790  26.438  0.1058  0.2804  0.0265
26664W        W69717   5.042  16.514  15.155  0.1511  0.0250 -0.0087
26665W        W69718   6.842  21.439  12.980 -0.3419 -0.1119 -0.3712
26666W        W69719   8.166  24.429  12.901 -0.2303 -0.1173 -0.1376
26667W        W69720  25.793   1.655  15.736 -0.1920  0.1409 -0.1876
26668W        W69721  32.774  29.691  21.056 -0.1894  0.2765  0.3440
26669W        W69722   4.660  23.465  15.649  0.0632 -0.0353 -0.2205
26670W        W69723   7.873  13.210  22.595 -0.1143  0.0393 -0.1574
26671W        W69724  16.738  31.953  25.947 -0.0006 -0.3711 -0.0236
26672W        W69725   2.033   5.826  22.409 -0.1043 -0.1644 -0.2634
26673W        W69726  33.349  14.866   0.164 -0.0450  0.0991 -0.1820
26674W        W69727   7.691   7.627  16.912  0.2480 -0.3918  0.0560
26675W        W69728   3.449  22.497  16.068  0.0625  0.1541  0.3707
26676W        W69729   4.257  31.931   0.121  0.1875  0.1453 -0.0506
26677W        W69730   9.845  21.263  14.321  0.1058  0.0536 -0.0457
26678W        W69731   5.991  22.509  16.529  0.0449  0.0705  0.1765
26679W        W69732  19.639  20.501  16.861  0.0561 -0.0889 -0.2907
26680W        W69733   3.400  11.535  16.505 -0.0524 -0.0373 -0.0334
26681W        W69734  30.282  26.147  19.545  0.0988  0.1044 -0.2267
26682W        W69735   8.356  22.039  27.282  0.3605  0.1061 -0.0760
26683W        W69736  30.376  18.319   9.433 -0.0449 -0.2982 -0.2840
26684W        W69737   7.966  13.397  15.746 -0.0788  0.0469 -0.0665
26685W        W69738  16.857  30.182  20.319 -0.2662  0.2371  0.1896
26686W        W69739  32.002  15.081  26.924 -0.4479  0.0960  0.1278
26687W        W69740   2.487   4.271  14.628 -0.1012  0.0866  0.4538
26688W        W69741  27.311  23.399  22.300 -0.1250 -0.2628  0.0477
26689W        W69742  33.980  27.518   0.556 -0.1154  0.0596 -0.2324
26690W        W69743   0.143  28.922  20.248  0.1421 -0.2443 -0.0786
26691W        W69744   7.826   8.561  21.252 -0.1083 -0.0595 -0.5012
26692W        W69745  34.253   3.675  23.996 -0.1419 -0.1270 -0.1602
26693W        W69746   8.878  15.350  18.862 -0.0474  0.1277 -0.0710
26694W        W69747  34.199  13.495  19.720  0.2581 -0.0292 -0.0237
26695W        W69748  25.211  12.196  26.250 -0.3731  0.1430 -0.1990
26696W        W69749  27.541  23.772  25.362  0.1573  0.3489  0.0084
26697W        W69750  18.435  34.619  19.846 -0.0455 -0.1497  0.0949
26698W        W69751  34.370  22.479  16.233  0.1200  0.1514  0.0046
26699W        W69752  13.099   7.022   1.159 -0.0416 -0.0055  0.1109
26700W        W69753  24.977   4.691  17.470 -0.2197  0.2690  0.1570
26701W        W69754   5.416  10.467  24.202  0.0703  0.0785  0.0983
26702W        W69755   1.261  33.512  18.407  0.1836  0.2581 -0.1775
26703W        W69756   8.889  25.051  14.221 -0.0296 -0.0069  0.0606
26704W        W69757  30.215  20.709  17.924 -0.0529  0.4595 -0.3983
26705W        W69758  31.324  28.400  19.421 -0.2521 -0.4041  0.0083
26706W        W69759  17.578  22.787  15.505 -0.2294  0.1041 -0.1255
26707W        W69760   1.990  16.602  23.022 -0.2928 -0.0619 -0.0340
26708W        W69761   4.697   1.040  26.469  0.0574  0.2545  0.0315
26709W        W69762  11.779   8.797  17.102  0.2447  0.3876 -0.1237
26710W        W69763   8.042  33.570  24.584  0.0166 -0.3518 -0.2046
26711W        W69764   3.327  15.965  19.296  0.5034 -0.3962 -0.1669
26712W        W69765   3.841  21.774  16.849  0.1208  0.2364 -0.0021
26713W        W69766  32.337  19.726  15.518 -0.3500  0.0441  0.0700
26714W        W69767   0.202  11.767  14.452  0.0596  0.2047 -0.0206
26715W        W69768  18.184  26.479  18.451 -0.0459  0.1886 -0.3054
26716W        W69769  24.636   0.047  25.067  0.3105  0.2010 -0.0034
26717W        W69770  31.898  16.461   9.343  0.1567  0.1924  0.3912
26718W        W69771  12.126  24.314  15.705 -0.0975  0.0695  0.0116
26719W        W69772  11.205  23.715  26.111 -0.3168  0.1575  0.0332
26720W        W69773  30.664  21.714  19.709  0.1057  0.1180 -0.2615
26721W        W69774  23.030  13.238   2.305  0.3459  0.1113  0.0631
26722W        W69775  29.642   1.582  16.856 -0.1076  0.2437  0.3707
26723W        W69776   4.362   0.164  19.954 -0.1867 -0.0946 -0.3735
26724W        W69777  13.626  20.157  14.211 -0.1994 -0.0619 -0.1322
26725W        W69778  19.206   0.920  20.063 -0.1533 -0.1123  0.3423
26726W        W69779   5.735   9.718  23.733 -0.0508 -0.2832 -0.0464
26727W        W69780  19.150   7.995  14.607 -0.0461 -0.0081 -0.1111
26728W        W69781  14.927   3.641  26.083 -0.2707 -0.2374 -0.1020
26729W        W69782   7.399   7.982  23.229  0.2500  0.0854 -0.0111
26730W        W69783   6.278   8.120  26.802  0.3695 -0.1715 -0.0299
26731W        W69784  16.054  23.217   5.633  0.1695 -0.0919  0.2926
26732W        W69785   1.547  19.226  27.952 -0.0359  0.0373  0.0716
26733W        W69786  30.894  13.012  28.665 -0.1163 -0.0698 -0.3444
26734W        W69787  30.815  32.215  19.511  0.1891 -0.0864 -0.0381
26735W        W69788  13.321   6.823  16.767 -0.1921 -0.0142  0.0949
26736W        W69789   4.753  18.077   4.309 -0.0315  0.3041 -0.3768
26737W        W69790  24.324   6.092  16.430  0.3006  0.2299  0.1718
26738W        W69791   2.564   7.773  20.742 -0.0286 -0.1827 -0.2570
26739W        W69792   6.735   1.255  16.360  0.2800  0.0579  0.2070
26740W        W69793  34.072   8.410  16.093 -0.0107 -0.4093 -0.2050
26741W        W69794   8.327  12.748  19.731  0.0562  0.0938  0.1776
26742W        W69795  10.171  22.269  12.979 -0.0069 -0.1543 -0.0610
26743W        W69796  10.870  16.484  18.188 -0.2930 -0.0082 -0.2157
26744W        W69797  27.393  18.682  18.641  0.2866 -0.2099  0.0783
26745W        W69798   5.765  19.562   5.191  0.1170 -0.0352 -0.1356
26746W        W69799  18.962  12.633  25.891  0.0030 -0.1403 -0.0247
26747W        W69800   4.629   0.566  26.562 -0.2875  0.0491 -0.2917
26748W        W69801  22.399  17.924  14.831 -0.0237 -0.0325  0.0559
26749W        W69802  18.472   9.590  17.592 -0.1578 -0.3939  0.3712
26750W        W69803   7.870  13.144  17.454 -0.3001  0.0528  0.1919
26751W        W69804   6.346  26.972   1.125  0.4329 -0.1627  0.0218
26752W        W69805   2.909   1.200  19.382  0.0767  0.1544  0.0830
26753W        W69806  19.750  34.160  29.003  0.0621 -0.1736  0.2986
26754W        W69807   4.255  18.295  17.836  0.0168 -0.1679  0.4325
26755W        W69808   7.375   5.837   0.179  0.2221 -0.0494  0.1712
26756W        W69809   3.206  28.896  15.180 -0.2315 -0.0984  0.0267
26757W        W69810   4.945  17.332   8.713  0.2179  0.1115 -0.1465
26758W        W69811  11.846  19.460   4.268 -0.1686 -0.0956  0.2280
26759W        W69812   9.332  22.571  22.562  0.0231  0.0111  0.0784
26760W        W69813  33.604  13.237  21.162 -0.1091  0.0812 -0.1574
26761W        W69814  22.751  21.248  15.913 -0.3386 -0.0683  0.4777
26762W        W69815  11.192  27.703  14.837  0.0504 -0.2528 -0.2347
26763W        W69816  32.578  29.764  14.761 -0.0743  0.0424 -0.1981
26764W        W69817   3.025  22.755  21.161  0.2279 -0.0711  0.0754
26765W        W69818  30.431  29.311   4.833 -0.3133  0.1059 -0.0056
26766W        W69819  10.932  15.788  21.720 -0.0325  0.0240 -0.0317
26767W        W69820   6.467  23.805  21.804  0.0269 -0.1300  0.1661
26768W        W69821  17.827  21.602  16.822  0.3201 -0.0171  0.2303
26769W        W69822  31.403  19.897  15.400  0.0381 -0.0906 -0.0146
26770W        W69823  12.417  29.015  28.142 -0.0295  0.2088  0.3057
26771W        W69824   2.867   9.991  14.992 -0.2866 -0.1855 -0.0657
26772W        W69825   3.792  13.405  14.861 -0.2385  0.3024 -0.2039
26773W        W69826  12.440  26.202  13.882 -0.0629 -0.1128  0.3271
26774W        W69827  10.854   8.419  20.113  0.0395 -0.0429  0.0212
26775W        W69828  11.828  25.022  14.924 -0.3036  0.2973 -0.0455
26776W        W69829  32.748  16.170  20.548  0.0709 -0.0477  0.2274
26777W        W69830   2.920   8.825  22.959 -0.3027  0.1466  0.2159
26778W        W69831   1.017  29.426  14.250  0.0823 -0.1258 -0.3968
26779W        W69832  15.704  22.837  15.197 -0.1886  0.2560  0.0602
26780W        W69833   4.000  10.527  22.225 -0.0122  0.2765  0.3928
26781W        W69834  26.623   4.177  18.695  0.0899  0.1193  0.2012
26782W        W69835  23.897   9.090  20.990 -0.0548  0.4794 -0.2565
26783W        W69836  32.637  18.876  28.443 -0.0405 -0.1166  0.3137
26784W        W69837  18.358  15.850  13.184  0.0780  0.2111 -0.1948
26785W        W69838   8.943  23.254  24.680  0.1985  0.0419 -0.0560
26786W        W69839   8.801  20.103  15.182 -0.1855  0.0393  0.2009
26787W        W69840  26.326  16.783  28.889 -0.0523 -0.2988 -0.2190
26788W        W69841   4.031  23.182  23.623  0.1838  0.0059 -0.0943
26789W        W69842  12.722  26.421  14.707 -0.1444  0.1201  0.1073
26790W        W69843  22.279  25.615  19.528 -0.1036  0.3034 -0.1957
26791W        W69844   9.841  20.557  16.001  0.0409  0.0999 -0.2194
26792W        W69845  10.100  24.044  29.105 -0.0253  0.1735  0.1172
26793W        W69846  16.437  15.047  13.609 -0.1041 -0.0078  0.2636
26794W        W69847  33.516  12.984  22.187  0.1215 -0.0602  0.0430
26795W        W69848   7.429  20.040   6.161 -0.3473 -0.0289  0.2309
26796W        W69849  15.321   7.468  16.150 -0.0062  0.0690  0.1677
26797W        W69850  30.153  13.834  24.640 -0.2277  0.0054  0.0650
26798W        W69851   0.919   3.960  18.017  0.1505 -0.2048  0.1587
26799W        W69852   7.847  17.091   7.587 -0.0663 -0.1344 -0.0522
26800W        W69853   5.065   5.975  17.251  0.2087  0.1423 -0.4484
26801W        W69854  30.894  11.673  23.722  0.0804 -0.0472 -0.2014
26802W        W69855  32.883  29.024   6.446 -0.0593  0.3904 -0.2309
26803W        W69856  34.214  18.916  17.811 -0.2465  0.1154 -0.2992
26804W        W69857  34.394  19.608  28.524  0.1023 -0.0233 -0.0446
26805W        W69858   4.805  20.161  22.095 -0.0752  0.0063  0.0724
26806W        W69859   4.344  14.307  16.517  0.0283 -0.1557  0.1336
26807W        W69860   4.391  19.787  16.680  0.1102 -0.0751 -0.1176
26808W        W69861   6.724  24.716  23.597  0.0486  0.2015 -0.2013
26809W        W69862  27.311  30.356  17.007  0.0209  0.4514  0.1346
26810W        W69863  24.038   5.918  14.036 -0.2658  0.2167  0.0638
26811W        W69864   0.087  20.633  19.920 -0.1259  0.1619  0.2219
26812W        W69865   4.827   9.222  25.080 -0.2624 -0.1981 -0.1302
26813W        W69866   5.148  26.529   8.954  0.0464 -0.0600 -0.0352
26814W        W69867  31.809  29.739  13.229 -0.0870 -0.2109 -0.2952
26815W        W69868   2.663  19.478  13.185 -0.1742 -0.0209 -0.0847
26816W        W69869  24.453  23.587  24.773  0.1453 -0.1514 -0.2310
26817W        W69870   7.525   5.712  15.336 -0.1425  0.1442 -0.2103
26818W        W69871  17.690   9.500  15.210  0.3261  0.1041 -0.1342
26819W        W69872   9.919  15.117  14.687 -0.0904  0.2569  0.1894
26820W        W69873   1.198   3.229  14.667 -0.3595  0.0287  0.2662
26821W        W69874   1.764  23.836  15.955 -0.2487  0.0812 -0.5909
26822W        W69875   3.179  34.077  28.407 -0.0097 -0.2027  0.0402
26823W        W69876  26.143  14.584  23.875  0.1996  0.1266 -0.1377
26824W        W69877  23.959  24.533  22.696 -0.4308  0.0043 -0.5002
26825W        W69878  14.072  14.226  18.519  0.2907  0.0288 -0.4032
26826W        W69879   2.140  22.490  21.928 -0.1715  0.3020  0.2778
26827W        W69880  30.971  13.097  21.242 -0.1042  0.0175 -0.3288
26828W        W69881   5.714  17.549   8.965 -0.0342 -0.4223  0.2465
26829W        W69882  33.382  24.545  25.463  0.1250 -0.0349  0.2890
26830W        W69883  14.726  10.824  22.548  0.0328 -0.0035  0.1291
26831W        W69884  20.437  21.532  23.839  0.2272 -0.2102  0.1409
26832W        W69885  11.938  24.442  27.592 -0.0797  0.3980 -0.2067
26833W        W69886   7.921  17.694  22.916  0.2579  0.1912  0.1958
26834W        W69887  14.373  19.342   1.053  0.1138 -0.1914  0.1261
26835W        W69888  19.518  11.775  21.380  0.2389  0.0505  0.0847
26836W        W69889   3.806  15.714  16.102  0.3630  0.0056 -0.0026
26837W        W69890  16.399   8.246  25.773 -0.0587 -0.1176 -0.1282
26838W        W69891   2.705  27.640  19.572 -0.3338 -0.0197 -0.4185
26839W        W69892   9.907  11.762  16.372  0.0543 -0.3242 -0.0081
26840W        W69893  29.471   5.689  27.577 -0.0268 -0.1626 -0.0207
26841W        W69894   1.840  11.074   7.835  0.1853 -0.1211  0.1726
26842W        W69895   6.224  14.773  26.264 -0.0992  0.2797  0.1651
26843W        W69896   7.873  14.084  22.273 -0.0883  0.2651  0.3201
26844W        W69897   5.832   7.502   2.578  0.1333 -0.0908  0.1365
26845W        W69898   4.605  22.266  16.940  0.3537 -0.0349  0.1032
26846W        W69899  15.581  20.367  13.724 -0.0958  0.0968 -0.0597
26847W        W69900  32.982  21.009  26.101 -0.0322  0.1592 -0.0077
26848W        W69901  33.183  33.322   0.806  0.2313 -0.2224  0.0376
26849W        W69902  28.105  22.757  18.141 -0.3463 -0.1471  0.3378
26850W        W69903  15.422  30.388  17.603  0.1523 -0.0095 -0.0601
26851W        W69904  23.275  17.914  15.828  0.0695 -0.0597  0.1192
26852W        W69905   8.763  10.302  28.905  0.0900  0.1466 -0.1163
26853W        W69906  34.460   3.287  24.376 -0.0011 -0.1610 -0.0098
26854W        W69907  34.195  18.545  22.799 -0.1409  0.1725  0.4115
26855W        W69908  28.952  29.718  19.732 -0.0916 -0.0301 -0.2028
26856W        W69909   8.191  11.220  24.690 -0.4129  0.0773 -0.1323
26857W        W69910   5.733  11.310  24.379 -0.0703  0.0180  0.0743
26858W        W69911  31.089  12.067  17.113  0.2165  0.0417 -0.0265
26859W        W69912   7.353  18.035  15.477  0.6316 -0.0030  0.1789
26860W        W69913   2.605  20.187  15.807  0.0510 -0.0325  0.2650
26861W        W69914   2.250  26.378  18.656  0.0785  0.0623  0.3508
26862W        W69915   1.782  20.928  17.207  0.1080  0.2260  0.0197
26863W        W69916  30.815   9.903  21.781  0.0250  0.0356  0.0258
26864W        W69917  32.906  11.479  23.915 -0.4147 -0.1141  0.2461
26865W        W69918   4.257   6.546  16.776 -0.1288  0.1332  0.2814
26866W        W69919  15.352  12.345  16.721  0.0670  0.3299 -0.1256
26867W        W69920   1.096  10.949   3.715 -0.0076 -0.0744 -0.0035
26868W        W69921  31.305  21.192  21.261 -0.2260 -0.0654  0.1340
26869W        W69922  15.609  32.180  19.218  0.2088  0.0943  0.2216
26870W        W69923   9.195   4.563  20.560 -0.0452  0.2501  0.1377
26871W        W69924   0.868  16.697  27.546  0.0700 -0.1339 -0.1562
26872W        W69925  13.521   4.580  15.450 -0.0961  0.2031  0.2466
26873W        W69926   1.101  15.176  13.599 -0.1731 -0.1179 -0.2295
26874W        W69927  30.169  25.681  19.978 -0.1641 -0.0088 -0.0700
26875W        W69928   9.519  31.283  14.089 -0.1063 -0.1933 -0.0437
26876W        W69929   2.553  12.883  18.004 -0.1598 -0.1729  0.1576
26877W        W69930  23.239   9.674  14.982 -0.1532 -0.1789 -0.0590
26878W        W69931  32.529  14.530  26.874  0.2594  0.1050 -0.2777
26879W        W69932  33.227   7.683  25.749  0.0027 -0.4938  0.0146
26880W        W69933  34.437  12.966  21.125  0.0908  0.0591  0.0962
26881W        W69934   5.427   1.710  26.114  0.0293  0.0984  0.5331
26882W        W69935   7.291  30.626  16.508 -0.1342  0.0407 -0.0746
26883W        W69936   1.700   3.863  15.029 -0.0701  0.0963  0.1057
26884W        W69937   6.006  18.719  15.571 -0.0022  0.0227  0.2185
26885W        W69938  10.172  22.986   6.555  0.4384  0.1021 -0.0352
26886W        W69939  26.065  19.118   1.631  0.1208  0.0338 -0.1614
26887W        W69940   3.519  22.661  14.242  0.0376  0.1851 -0.3282
26888W        W69941  32.124  10.457  23.107 -0.0609 -0.0535 -0.1224
26889W        W69942   4.317   4.995  18.803  0.0106  0.0318 -0.2241
26890W        W69943  27.365  18.272  23.364  0.1548  0.3687 -0.2794
26891W        W69944   9.535  11.859  21.038 -0.0688  0.1520 -0.1150
26892W        W69945  22.281  22.716  19.453 -0.0651 -0.1956  0.0701
26893W        W69946  14.450   5.762  19.593 -0.0759 -0.0849 -0.0555
26894W        W69947  21.951  30.924  25.809 -0.0534  0.0033  0.1884
26895W        W69948  29.822  24.668   2.522 -0.3290  0.0989 -0.0304
26896W        W69949   6.312   9.042   0.098 -0.1803  0.0814  0.0209
26897W        W69950   5.109   7.413  17.309  0.0286 -0.0004 -0.0136
26898W        W69951   2.844  16.794  13.329  0.2092 -0.0614  0.2950
26899W        W69952  32.160  16.996  13.363 -0.1492 -0.0024  0.4022
26900W        W69953   8.108   3.298  22.159  0.2754  0.0828 -0.1684
26901W        W69954  33.845   4.613  23.926  0.2804 -0.2388  0.1955
26902W        W69955   4.578  19.783  17.239  0.2106 -0.2116  0.0481
26903W        W69956  25.417  10.704  14.838 -0.0452  0.3584  0.0715
26904W        W69957   1.459  20.420  18.601 -0.0071 -0.1672  0.1145
26905W        W69958   9.871  11.974   3.263 -0.0643  0.0741  0.3060
26906W        W69959  11.013   8.173  26.526 -0.0504 -0.2164  0.2749
26907W        W69960  33.868  11.594   3.725 -0.2374 -0.1994  0.0255
26908W        W69961   9.776   6.516  24.372  0.2756 -0.0678  0.4420
26909W        W69962  34.623  27.943  13.663 -0.2528  0.0343 -0.2489
26910W        W69963   8.279  27.752  14.579 -0.1117  0.2494  0.0785
26911W        W69964  20.978  19.960  14.895  0.2216 -0.2141  0.0294
26912W        W69965  14.989  11.464  17.065 -0.0755 -0.2332 -0.0584
26913W        W69966   4.923  16.645  14.173 -0.0205  0.1076  0.0315
26914W        W69967   9.716  24.323  16.792  0.0795  0.1040  0.2913
26915W        W69968  29.890   9.607  15.474 -0.0188 -0.1014  0.2660
26916W        W69969  10.761  15.956  19.888 -0.1485 -0.1547 -0.1992
26917W        W69970  24.599  22.966  16.947 -0.2449 -0.1770  0.0045
26918W        W69971   0.614   1.853  15.711 -0.1990  0.1005  0.3728
26919W        W69972  16.509  16.854  13.727 -0.2047  0.0453  0.0798
26920W        W69973  33.435  23.765  22.166 -0.0604  0.0197 -0.2693
26921W        W69974  12.276  10.682  16.185 -0.0195 -0.2422  0.2269
26922W        W69975  11.328  11.945  17.629 -0.1972  0.1259 -0.3969
26923W        W69976   4.913  18.338  21.808  0.2226  0.0560 -0.0770
26924W        W69977   7.842  19.738  18.685  0.1221  0.4812 -0.0876
26925W        W69978   5.363  28.913  14.765 -0.0476  0.1297  0.0608
26926W        W69979   3.535  11.177  21.711  0.0968 -0.0321  0.0506
26927W        W69980   7.985  13.724  19.123 -0.1910 -0.0271  0.0302
26928W        W69981  10.613   7.641   9.793  0.0015 -0.0347 -0.0340
26929W        W69982   3.139  15.072  14.816  0.1697  0.0156 -0.1017
26930W        W69983   2.044   7.558  20.003 -0.0034  0.1155  0.2059
26931W        W69984  13.653  11.328  16.157 -0.2462 -0.2835 -0.0150
26932W        W69985   2.447  11.951  28.841 -0.0428  0.1137  0.1294
26933W        W69986   5.488   8.624  20.656  0.0731 -0.0638  0.1139
26934W        W69987  16.365  15.299   1.684 -0.2663 -0.1787 -0.1871
26935W        W69988  32.194  15.036   0.828  0.0605 -0.1287  0.0328
26936W        W69989   8.083  23.626  18.768  0.0785 -0.0534 -0.1483
26937W        W69990  11.322  13.871  16.102 -0.0974 -0.0361  0.0083
26938W        W69991  15.039  20.614  13.228 -0.1078 -0.3173 -0.0078
26939W        W69992  28.811   3.120  21.371  0.1687 -0.2939 -0.0234
26940W        W69993  32.050  18.023  24.037  0.0106  0.0864 -0.1161
26941W        W69994   6.002  19.447  13.528  0.2759  0.1114 -0.0362
26942W        W69995  24.328  22.450  21.532  0.0499  0.4772  0.0399
26943W        W69996  11.495   4.068  23.584 -0.0243  0.1886 -0.2706
26944W        W69997  20.673   6.443  19.832 -0.0723 -0.4168 -0.0044
26945W        W69998  12.980   7.662  24.293  0.0324 -0.2851 -0.0058
26946W        W69999  33.332  25.236  24.991 -0.0908 -0.1547 -0.3799
26947W        W70000  30.096  20.925  16.565  0.2130 -0.0623  0.1260
26948W        W70001  31.658  19.287  16.356 -0.2264  0.3734  0.1668
26949W        W70002   2.372   8.124  24.835  0.2094 -0.2354 -0.0508
26950W        W70003   2.224  14.339  16.484 -0.1548  0.0425  0.0951
26951W        W70004   2.093  18.802  25.160  0.0246  0.0267  0.2660
26952W        W70005   6.953  23.980  22.996 -0.0987 -0.0407  0.0570
26953W        W70006   4.516   3.090  14.981  0.3415  0.2510  0.3047
26954W        W70007  29.584  12.898  15.660 -0.0275  0.1938 -0.0498
26955W        W70008  29.335  15.624   2.157 -0.0686 -0.4120 -0.2010
26956W        W70009   7.271  16.246  15.201  0.6012 -0.3862  0.3153
26957W        W70010  12.067  32.826   6.109  0.2750  0.3800  0.0754
26958W        W70011  29.950  16.189  15.874  0.3465 -0.4075 -0.2258
26959W        W70012   3.177   9.058  14.455  0.0040 -0.2189 -0.2261
26960W        W70013   2.263  33.432  21.903 -0.4616 -0.3931 -0.1255
26961W        W70014   5.651  17.529  27.211 -0.0794  0.0791  0.1352
26962W        W70015   3.184  16.551  14.398 -0.1518 -0.0297  0.1528
26963W        W70016  23.501   4.368   5.126 -0.1155  0.2062  0.2108
26964W        W70017   2.264  21.731   3.190 -0.0390  0.0694 -0.0796
26965W        W70018  21.600   2.016  25.782 -0.3381  0.1370 -0.2631
26966W        W70019  18.237  30.621  23.901 -0.2116 -0.0383  0.4016
26967W        W70020  15.694   6.097  16.963 -0.1425  0.3111 -0.0158
26968W        W70021   6.493  21.777  17.499 -0.0574 -0.2006 -0.1718
26969W        W70022   3.118  21.104  17.660 -0.0308 -0.1748  0.1853
26970W        W70023   3.247  21.242  15.086  0.1233  0.0762  0.2173
26971W        W70024  19.032  16.559  14.707 -0.1475  0.1392  0.1435
26972W        W70025  26.090   7.220  27.884 -0.0223  0.2026  0.2483
26973W        W70026   5.506  16.962   7.293  0.1056 -0.4597  0.0546
26974W        W70027  10.336  27.521  13.436 -0.3522  0.1794 -0.0128
26975W        W70028  10.288  20.102  16.894 -0.2322 -0.2509  0.0321
26976W        W70029   8.245  16.361  21.797  0.1901  0.1515 -0.2287
26977W        W70030   9.967  10.312  16.358 -0.0506 -0.1735 -0.3332
26978W        W70031  11.097  27.146  14.035 -0.1311  0.0504 -0.1424
26979W        W70032   8.287  23.276  17.994  0.0072  0.0557 -0.1367
26980W        W70033   2.783  25.218  15.083  0.2765 -0.4011 -0.0176
26981W        W70034  30.537  20.042  19.319 -0.0010 -0.0556 -0.1617
26982W        W70035  11.904  23.910  19.387  0.1223  0.1182 -0.3217
26983W        W70036   3.016  31.813  23.489 -0.0400  0.1364  0.0392
26984W        W70037  31.331  30.241  23.494  0.2987  0.0187 -0.0136
26985W        W70038  22.091  19.982  19.563  0.1096  0.1246  0.0793
26986W        W70039   9.199   3.707  15.045 -0.1540  0.0063 -0.1569
26987W        W70040  18.759  11.100  24.101  0.1591 -0.0182 -0.0305
26988W        W70041   6.618   2.507  20.133  0.2275 -0.0590  0.3365
26989W        W70042   2.015  13.718  15.890 -0.1490 -0.0324 -0.1963
26990W        W70043   7.982  34.138  18.248  0.0762  0.1254 -0.0771
26991W        W70044  16.506  27.258  26.877  0.4251  0.1483 -0.1977
26992W        W70045  28.885  25.260   1.372  0.2499 -0.0662  0.0918
26993W        W70046  10.868   8.776  16.208 -0.3409 -0.0857 -0.4732
26994W        W70047   4.734   9.620  25.387 -0.1601 -0.0927 -0.4405
26995W        W70048  32.004  13.716  28.183 -0.0144  0.0824  0.0999
26996W        W70049  27.925   5.239   4.168  0.0148 -0.0209  0.1241
26997W        W70050  28.510  23.401  21.346 -0.1553 -0.1919 -0.0700
26998W        W70051   6.321  26.343  17.648 -0.0533 -0.4010 -0.1511
26999W        W70052  31.603  24.451  21.668  0.0295  0.0344 -0.2451
27000W        W70053   1.744  11.542  24.798  0.0237 -0.2320  0.3144
27001W        W70054  12.701   5.527  16.731  0.2107 -0.0087  0.0310
27002W        W70055  11.580  30.865  18.840  0.0335 -0.1902 -0.0448
27003W        W70056   1.667   2.165  23.297  0.0522 -0.0656 -0.3728
27004W        W70057  28.911   1.545  19.902  0.2463  0.1489 -0.3922
27005W        W70058  11.260  13.796  20.777  0.0575 -0.1857 -0.2175
27006W        W70059  21.505   3.579  27.510 -0.1154  0.0246 -0.0520
27007W        W70060   6.948  14.254   1.857  0.1912  0.5490  0.3438
27008W        W70061  20.469  13.117   7.950 -0.0044 -0.0931 -0.0323
27009W        W70062  17.048   7.922  23.554 -0.1390 -0.2040  0.0127
27010W        W70063   3.967   8.788  15.053 -0.0360  0.1708 -0.1130
27011W        W70064   5.917  16.254  28.032  0.1599  0.0154  0.0916
27012W        W70065   7.266  15.186   1.423 -0.0715  0.1308 -0.1662
27013W        W70066  11.652   8.773   7.313  0.0636  0.0349 -0.0396
27014W        W70067   4.181  21.302  14.248  0.1553 -0.2951  0.0926
27015W        W70068  12.219   6.432  24.347 -0.0158  0.1243  0.3502
27016W        W70069   8.527   2.965  22.335  0.0468 -0.0161  0.1719
27017W        W70070  23.702  30.355  18.974  0.2322  0.2812 -0.1697
27018W        W70071  11.175  19.523  16.304  0.3180 -0.3548  0.2551
27019W        W70072  29.299  16.305  21.220  0.1377  0.1456  0.1512
27020W        W70073   0.786   8.394  18.906 -0.0263  0.1201  0.1344
27021W        W70074  27.333  22.453  17.595  0.0534 -0.1788  0.3090
27022W        W70075  22.695   4.280  23.532 -0.0906 -0.0511  0.1013
27023W        W70076   2.604  17.429  28.726 -0.0092  0.4472  0.0105
27024W        W70077  19.483  14.207  16.825  0.1744 -0.0340 -0.5601
27025W        W70078   5.418  34.172   3.690 -0.0794 -0.0030 -0.1477
27026W        W70079  12.363  19.469  19.337  0.2002 -0.1873 -0.1443
27027W        W70080  12.153  14.156  15.520 -0.0745 -0.1442  0.0991
27028W        W70081   0.393  24.814  24.018 -0.0541  0.2079  0.1857
27029W        W70082  14.380  10.970  15.923  0.0361  0.1830 -0.0044
27030W        W70083  10.763  20.871  22.767 -0.4348 -0.3489 -0.1044
27031W        W70084   2.179  27.368  14.703 -0.2030 -0.0637 -0.1742
27032W        W70085   8.006  14.999  25.839 -0.6555 -0.1786  0.0674
27033W        W70086   8.355  14.894  26.904  0.1079 -0.2361  0.2286
27034W        W70087  12.088  27.150  18.146 -0.1003 -0.0206 -0.0456
27035W        W70088  32.606  14.740  19.267 -0.0624 -0.1766  0.0171
27036W        W70089  10.382  14.400  21.999 -0.1397 -0.1318 -0.2772
27037W        W70090  19.043  28.738  18.433 -0.0550 -0.0524  0.0313
27038W        W70091   7.814  13.146  15.327 -0.8468  0.0047  0.1758
27039W        W70092   2.423   8.332  10.388  0.2268  0.1444  0.0125
27040W        W70093   4.241  22.569  16.646  0.3298 -0.2877 -0.2071
27041W        W70094   7.904  20.630  19.120 -0.3426  0.3734  0.5208
27042W        W70095  23.950  30.210  17.178  0.1067 -0.0525 -0.0292
27043W        W70096  30.147  16.748   1.564  0.2077 -0.3766  0.0019
27044W        W70097   1.312   2.522  17.315  0.4181  0.1521 -0.3787
27045W        W70098  29.319  16.728  25.635  0.1026 -0.2856 -0.0589
27046W        W70099   0.830   0.929  19.120  0.0190 -0.1540 -0.0916
27047W        W70100   1.621   7.381  15.851 -0.0093 -0.2526  0.2002
27048W        W70101  30.607  31.033  22.317  0.0764  0.1539 -0.0996
27049W        W70102   8.017  32.127  25.549  0.2940 -0.0860  0.2447
27050W        W70103  20.768  21.749  19.462 -0.0035 -0.0704  0.1959
27051W        W70104   7.325  26.354  14.046 -0.1949 -0.1519  0.3723
27052W        W70105   6.791  29.273  16.293 -0.1035  0.0515  0.0063
27053W        W70106  12.853  18.688  15.656 -0.0400 -0.1735 -0.1450
27054W        W70107  26.190   0.652  28.538 -0.0131 -0.2986 -0.0909
27055W        W70108   8.664  11.822  24.856 -0.0891  0.0975 -0.0045
27056W        W70109  34.223  23.044   0.107 -0.1640 -0.0207 -0.2096
27057W        W70110  17.779   7.714  22.201 -0.1594 -0.3773 -0.2014
27058W        W70111   9.220  10.754  20.940 -0.1016  0.3748  0.0026
27059W        W70112  11.440   8.269  22.012  0.2103  0.1486  0.0509
27060W        W70113   3.833  25.070  14.758  0.0536 -0.1536 -0.1643
27061W        W70114  14.679   7.301  25.797  0.0511 -0.0009 -0.1854
27062W        W70115  13.826  16.864  28.182 -0.1431  0.0763 -0.3280
27063W        W70116  13.623   8.642  18.726 -0.2775  0.3789 -0.1838
27064W        W70117  12.919  16.328  15.177  0.1713  0.1775 -0.3946
27065W        W70118   4.774  21.209  15.397  0.3063 -0.1037 -0.2374
27066W        W70119   4.357   0.636  15.631 -0.1050 -0.1644  0.0310
27067W        W70120   4.814  23.887  16.686 -0.0135 -0.2049  0.0290
27068W        W70121  15.314  28.340  20.789 -0.0367  0.1324  0.1239
27069W        W70122   9.638  26.572  14.634 -0.0418  0.3330 -0.2384
27070W        W70123   5.981  13.512  23.732  0.0096  0.2623  0.0881
27071W        W70124  13.314   7.795   0.824  0.0139 -0.3541  0.2413
27072W        W70125   7.123  24.344  25.381  0.1912 -0.1088 -0.0612
27073W        W70126  14.379  13.206  23.002  0.2136  0.2133  0.5077
27074W        W70127  24.250   7.420  27.994 -0.2760 -0.2037 -0.2230
27075W        W70128   9.698  17.945  17.325 -0.0120 -0.0174  0.0712
27076W        W70129  10.597  26.619  18.492 -0.0876  0.1456  0.0442
27077W        W70130   9.755  27.191  24.412 -0.0282  0.1112  0.0907
27078W        W70131   6.278  17.249  17.399 -0.0759 -0.1231 -0.1471
27079W        W70132   2.949  11.209  22.687 -0.1350 -0.0710  0.4139
27080W        W70133   4.743  30.039  16.485  0.0034  0.2660 -0.1144
27081W        W70134   4.566  27.343  17.177  0.0769  0.0332 -0.3765
27082W        W70135   4.151  18.371  15.461  0.0891 -0.0285  0.0453
27083W        W70136  24.888  12.275  25.877 -0.1763  0.3895 -0.2282
27084W        W70137  14.307   0.659  21.240 -0.0480 -0.0093  0.4608
27085W        W70138   3.733  25.530  27.319 -0.2155 -0.1632 -0.1258
27086W        W70139   2.144  31.649  27.115 -0.0808 -0.0654 -0.1266
27087W        W70140  33.566   3.725  25.614 -0.1068  0.0546 -0.1055
27088W        W70141  12.721   9.976  15.431 -0.1075 -0.1173 -0.0448
27089W        W70142   7.939  30.950  15.009 -0.1094 -0.0148  0.1759
27090W        W70143   5.660  33.185  15.837 -0.2670  0.0101 -0.3003
27091W        W70144  10.908   2.630  16.933  0.1247 -0.2537  0.0625
27092W        W70145   7.553  14.008   5.364 -0.3064 -0.0008  0.0590
27093W        W70146  30.680  10.492  21.186 -0.0190 -0.1597  0.2459
27094W        W70147  18.197  11.021   4.815 -0.0302 -0.0150 -0.0752
27095W        W70148  15.407  31.190  18.137 -0.0830 -0.0817  0.2172
27096W        W70149  23.869  13.180   6.076  0.2390 -0.0568  0.1901
27097W        W70150   2.819  30.815  16.424  0.2386  0.1352 -0.0312
27098W        W70151   8.826  21.738  18.594 -0.4375 -0.2992  0.1214
27099W        W70152  14.700   8.641  27.278 -0.1619 -0.0326 -0.0712
27100W        W70153  18.453   6.326  19.489 -0.0620 -0.1323 -0.0257
27101W        W70154   9.538  31.613   2.330  0.0182  0.0602  0.3268
27102W        W70155   4.720   6.435  24.253 -0.0509 -0.2777 -0.1631
27103W        W70156  10.192   7.142  22.180  0.1993  0.3044  0.2971
27104W        W70157   8.097  12.233  17.764  0.2189  0.0299  0.2292
27105W        W70158  24.770  32.295  16.842 -0.1279  0.1126 -0.0234
27106W        W70159   0.889  15.381  26.029  0.0539  0.1820  0.1341
27107W        W70160   2.874  15.828  23.892  0.0597 -0.0131 -0.0547
27108W        W70161  15.146   7.163  20.588  0.2257  0.0568 -0.1603
27109W        W70162  29.009  24.163  14.546 -0.1242  0.0175  0.2403
27110W        W70163  29.915  23.585  17.637  0.1843 -0.0332  0.0947
27111W        W70164  15.023  20.999  21.157 -0.0739  0.0532  0.2182
27112W        W70165  33.954  22.234   0.064 -0.0845  0.1625  0.0540
27113W        W70166  34.524  19.893  24.969  0.3843  0.1033 -0.1487
27114W        W70167   0.363  33.933  20.668 -0.3191  0.3027  0.1257
27115W        W70168  21.780  16.730   4.071 -0.0834 -0.1139  0.0878
27116W        W70169  12.694  20.137  15.576  0.0510  0.1783  0.1702
27117W        W70170  11.000  21.873   1.786 -0.1115  0.0555  0.4574
27118W        W70171  12.430   9.411  17.353 -0.1223 -0.0557  0.1145
27119W        W70172  29.487  23.354  18.620  0.0651 -0.0324 -0.1252
27120W        W70173   4.772  21.857  27.379 -0.0300  0.2592 -0.0752
27121W        W70174  15.022   1.344   0.249  0.0409 -0.1659 -0.1225
27122W        W70175  30.513  18.924  19.078 -0.0913  0.0604 -0.1113
27123W        W70176  34.047   0.904  25.673  0.0043 -0.0399  0.1986
27124W        W70177  34.266   8.800  16.410 -0.1391  0.1091 -0.2316
27125W        W70178  18.792   1.814  20.948 -0.0832 -0.3326 -0.0923
27126W        W70179  31.127  13.061  25.588 -0.2512  0.0057  0.3677
27127W        W70180   7.755  29.109  21.829 -0.1597  0.3626  0.0894
27128W        W70181   3.677   5.929  17.270 -0.3006  0.2671  0.0143
27129W        W70182  17.094  30.138  24.784 -0.3018  0.2022  0.1083
27130W        W70183  27.773  18.247   5.870  0.1326 -0.0143  0.0646
27131W        W70184  19.670  26.465   3.440  0.0206  0.0224 -0.0638
27132W        W70185   0.724  12.711   1.736  0.0822 -0.1641  0.2050
27133W        W70186   4.816  13.932  21.327  0.0449 -0.3623  0.1196
27134W        W70187  11.731   6.053  23.474  0.2898  0.1715 -0.0253
27135W        W70188  11.256  15.142  18.695  0.0329  0.0954 -0.1710
27136W        W70189   9.167  20.711  17.317  0.3446  0.1221  0.1955
27137W        W70190  16.398  34.000  21.555  0.3548 -0.0154 -0.1569
27138W        W70191  33.006   0.147  26.727  0.0088 -0.0440  0.0509
27139W        W70192  12.610   8.355  26.784  0.3448 -0.2412 -0.3229
27140W        W70193   8.360  31.529  21.742 -0.2939  0.1861  0.1226
27141W        W70194  33.643  21.836  13.557  0.0023 -0.0166  0.1477
27142W        W70195   7.774  29.362  27.235  0.1558  0.0473 -0.0167
27143W        W70196   1.631  20.492   4.636  0.0904 -0.1817 -0.1148
27144W        W70197  33.039  23.763  18.341  0.1739  0.2314  0.0041
27145W        W70198  10.484   2.565  16.683  0.0386  0.0808 -0.1439
27146W        W70199   6.156  21.599  20.177 -0.2328  0.2060  0.0535
27147W        W70200   8.916  16.638   4.786  0.1497 -0.0398 -0.1349
27148W        W70201   9.670   9.024  17.541 -0.0983  0.2358 -0.1938
27149W        W70202   9.398   4.033  14.748  0.1040 -0.1613  0.2793
27150W        W70203  34.180  11.588  19.271  0.0198  0.0517  0.2960
27151W        W70204   0.220   0.885   3.943  0.2336  0.0121  0.0137
27152W        W70205  23.589   6.055  17.557 -0.3348 -0.2792  0.1283
27153W        W70206   2.460  29.410  13.618  0.1978  0.1358  0.0440
27154W        W70207  14.598  11.686  20.695  0.0707 -0.3067 -0.0157
27155W        W70208  24.241   7.504  15.709  0.0492  0.0660 -0.1873
27156W        W70209  11.730  17.906  14.191 -0.1019 -0.0176  0.4158
27157W        W70210  18.108   2.372   6.081  0.0585  0.1716  0.3123
27158W        W70211   0.542   8.743  15.485  0.0042 -0.0536  0.1970
27159W        W70212   9.634   6.747   4.304  0.1474 -0.1209 -0.0695
27160W        W70213  12.854  10.438  19.057  0.1803  0.0128 -0.1068
27161W        W70214  12.342  22.846  10.158  0.2605  0.1571 -0.0787
27162W        W70215  25.498   1.398  24.387 -0.0485  0.0874  0.2411
27163W        W70216   0.363  21.082  13.705 -0.4003  0.1898  0.0749
27164W        W70217  11.586   7.682  15.996 -0.0387  0.0702 -0.1672
27165W        W70218   8.460  25.714  20.376 -0.0355 -0.0389  0.1528
27166W        W70219  13.506  27.149  20.504 -0.0221 -0.0685 -0.0629
27167W        W70220  29.968   2.870  25.360 -0.2470 -0.0094 -0.2203
27168W        W70221   8.317  33.291  17.460  0.0927 -0.0164  0.1154
27169W        W70222  33.550  24.992  26.256  0.1535  0.4131  0.0037
27170W        W70223  26.398  21.627  27.879 -0.1763  0.1853  0.1939
27171W        W70224  29.381  15.272   4.795  0.0312  0.0968 -0.2065
27172W        W70225  14.451  24.046  25.480  0.0039 -0.1311  0.2238
27173W        W70226   1.045  19.399  23.845 -0.0926 -0.2691 -0.0040
27174W        W70227  10.248  10.975  25.478 -0.1306  0.1910  0.0697
27175W        W70228   5.028  12.112   1.577 -0.0477 -0.1089  0.2957
27176W        W70229  13.411   9.013  14.574  0.1350  0.3050 -0.0740
27177W        W70230  28.526  10.110  26.984  0.2192  0.0363  0.1219
27178W        W70231  15.419  19.386  22.595  0.1071 -0.2954 -0.0819
27179W        W70232  11.282  19.610  10.474 -0.6148 -0.3162 -0.0178
27180W        W70233  17.016   7.218  19.146  0.0354 -0.0532 -0.1988
27181W        W70234   0.446  14.961  24.753  0.2543 -0.1553 -0.2566
27182W        W70235   0.725  31.490  20.795 -0.0763 -0.1216  0.1058
27183W        W70236   4.454   7.104  25.853  0.0993 -0.0186 -0.2435
27184W        W70237  29.864  24.583  18.777 -0.2635  0.1469 -0.1308
27185W        W70238  32.436  16.029  25.457  0.1040  0.1457  0.0273
27186W        W70239  17.007  11.025  22.108 -0.3317 -0.0854  0.1033
27187W        W70240  22.263  24.152  25.754  0.0196 -0.4062  0.2415
27188W        W70241  20.683   9.269  16.806 -0.0366 -0.1486 -0.2042
27189W        W70242   1.397  12.650  17.428 -0.2473 -0.1347 -0.1026
27190W        W70243  17.673  25.837  17.482  0.1232  0.0404 -0.2096
27191W        W70244  19.536   4.370  28.741  0.1057  0.1584 -0.2520
27192W        W70245   1.015   8.469  17.512 -0.0292 -0.1606  0.1313
27193W        W70246   0.083   8.286  15.080 -0.1034  0.1161 -0.2072
27194W        W70247  22.414  15.043  14.378 -0.1656 -0.2227 -0.2860
27195W        W70248  13.707  27.434  25.376  0.2080 -0.1220 -0.2741
27196W        W70249  12.042  24.524  19.021  0.3703 -0.0166  0.0765
27197W        W70250   6.736  20.878  28.135 -0.2122  0.2647  0.0265
27198W        W70251  31.362   7.457  22.180 -0.0881 -0.1520  0.1734
27199W        W70252  31.042  10.133  19.086  0.1354  0.0686  0.0390
27200W        W70253   1.835   3.092   2.778 -0.1456  0.0762  0.0710
27201W        W70254  29.201   2.229  17.254  0.0822  0.0450 -0.2093
27202W        W70255   1.959  13.725  16.895 -0.0527 -0.0381 -0.1355
27203W        W70256   5.911   0.617  22.746 -0.0847 -0.3594  0.0695
27204W        W70257  22.827  18.438  24.134  0.0426  0.3969  0.3017
27205W        W70258  26.825  18.731  14.241  0.1307 -0.0408  0.3171
27206W        W70259   0.787  13.792  15.313 -0.0306 -0.1323  0.0338
27207W        W70260  28.923  24.771   2.138  0.2052  0.1981  0.0133
27208W        W70261   1.246  29.430  26.716  0.2802  0.1051 -0.2305
27209W        W70262   8.520  33.401  15.243  0.2522  0.1113  0.1969
27210W        W70263  12.315  22.595  28.021  0.3667 -0.1489 -0.1187
27211W        W70264  25.687  23.285  23.951 -0.0739  0.4533  0.2401
27212W        W70265   3.533  34.416  28.173  0.1311 -0.2318 -0.1489
27213W        W70266  13.636  26.157   5.862  0.1853 -0.2594  0.1185
27214W        W70267  29.574   3.556  26.735  0.3534  0.0112 -0.3551
27215W        W70268  22.234  23.416  23.766 -0.1518 -0.4406 -0.1039
27216W        W70269   3.400   2.266  15.889  0.0395 -0.0440 -0.0421
27217W        W70270  27.785  12.874  28.546 -0.2810 -0.0767 -0.1890
27218W        W70271  18.451  22.239  17.842 -0.2371 -0.0999  0.0998
27219W        W70272   1.997  17.124  26.400  0.0896 -0.1259  0.1261
27220W        W70273  17.386  16.639  26.569  0.2880  0.3004 -0.4512
27221W        W70274  32.288   9.562  18.126 -0.1723  0.0560 -0.2084
27222W        W70275   6.930  34.334  21.556 -0.2275  0.1083  0.0030
27223W        W70276   6.887  11.220  20.050  0.1789 -0.1238  0.2440
27224W        W70277  30.062  13.474   4.490 -0.0257 -0.2722  0.1908
27225W        W70278   3.116  23.457   1.863  0.4605 -0.1467 -0.1418
27226W        W70279  12.911   9.205  25.807  0.1712  0.0574  0.1405
27227W        W70280   1.834   6.330  24.399  0.2115 -0.2658 -0.2007
27228W        W70281   9.587   9.552  18.459 -0.4947  0.1633 -0.0102
27229W        W70282   4.916   2.955  18.462 -0.4761  0.0694  0.1166
27230W        W70283  30.145  32.292  16.697  0.2039  0.0538 -0.3967
27231W        W70284   4.831  33.175   4.313 -0.0259 -0.1564  0.2072
27232W        W70285   9.954   9.500  20.505 -0.1586  0.3963  0.1835
27233W        W70286  15.096  17.922  14.426 -0.0083  0.1775  0.1749
27234W        W70287   8.049  13.982  24.285 -0.1030  0.2101  0.0467
27235W        W70288  21.171  10.498  16.174 -0.1698  0.1774  0.2191
27236W        W70289   9.111   8.718  23.445 -0.1638 -0.1125  0.2920
27237W        W70290   9.475   9.619  22.039 -0.1105  0.2882  0.2851
27238W        W70291  11.417  34.532  24.448 -0.0224  0.1060 -0.1343
27239W        W70292   7.962  16.576  26.098  0.1795 -0.0313  0.4222
27240W        W70293   8.761  25.693   4.928 -0.0898  0.3202  0.2656
27241W        W70294  34.354  20.196  20.019  0.0547  0.0443  0.1822
27242W        W70295  33.256  20.336  22.695 -0.1048 -0.0559 -0.4519
27243W        W70296   7.107   9.276   0.885  0.1082  0.0328 -0.2260
27244W        W70297   6.969  14.233  17.589  0.0006  0.0022  0.2461
27245W        W70298   8.795   7.568  20.401 -0.0890 -0.1418 -0.0665
27246W        W70299  12.816   2.754  26.021  0.1127 -0.0063  0.0177
27247W        W70300  31.490  10.631   4.471 -0.2959  0.3365 -0.2603
27248W        W70301  14.089   7.489  27.032 -0.0569 -0.0036 -0.0365
27249W        W70302   0.666  19.773   5.539  0.2328 -0.1034 -0.1952
27250W        W70303  20.534   7.419  16.553  0.0994  0.1117 -0.1600
27251W        W70304   9.571  14.067   1.347 -0.2166 -0.1913 -0.0770
27252W        W70305  34.084  14.642  15.103  0.0733  0.2176  0.3625
27253W        W70306   0.735  20.035  22.392 -0.4506 -0.1014  0.0908
27254W        W70307  27.352  19.704  24.129 -0.0439  0.1656  0.2442
27255W        W70308  29.112   3.758  16.427  0.0192 -0.2828 -0.0882
27256W        W70309  14.710  24.983  17.740  0.0950 -0.0705  0.3743
27257W        W70310   9.695  19.576   2.009 -0.3453  0.1993 -0.1193
27258W        W70311  16.037  24.179  15.173 -0.2222  0.2474 -0.1221
27259W        W70312   4.144   9.245   5.460 -0.0277 -0.0186 -0.1077
27260W        W70313   3.483   7.159  25.880  0.3592 -0.3781  0.1214
27261W        W70314  21.266  15.716  18.002  0.0967  0.0647 -0.4582
27262W        W70315  32.701  19.642  22.607 -0.1224  0.1126 -0.2970
27263W        W70316  33.320  14.434  25.199  0.2017  0.1413 -0.0387
27264W        W70317   1.370  13.792  28.156 -0.1435 -0.0412  0.0006
27265W        W70318  33.000  18.732  17.301 -0.2437  0.1137 -0.1528
27266W        W70319   7.153   4.573  19.492  0.0852 -0.0884  0.0014
27267W        W70320  13.858   4.318  15.703 -0.0192  0.1160 -0.0105
27268W        W70321   8.325  26.427  22.022 -0.0058 -0.0661  0.0738
27269W        W70322  15.072   6.536  17.429 -0.0187  0.1494 -0.0737
27270W        W70323   2.558  28.596  23.336  0.1382 -0.0980  0.0471
27271W        W70324  16.537  16.297  15.070 -0.0684 -0.1264  0.3800
27272W        W70325   8.631  23.854  21.203 -0.0926 -0.1253 -0.1281
27273W        W70326   6.782  29.237  26.853  0.0823 -0.2277  0.1450
27274W        W70327  26.208  10.210  23.131 -0.1785 -0.1835  0.3233
27275W        W70328  10.194  21.725  22.762 -0.2442  0.1356 -0.3990
27276W        W70329   0.003  20.586  19.020  0.4371  0.1460  0.0147
27277W        W70330  30.675  17.905  25.530  0.2203  0.0221 -0.0018
27278W        W70331   8.627   3.064   3.677  0.1118 -0.2559 -0.4693
27279W        W70332   9.823  20.038  17.889 -0.1948  0.0863  0.1093
27280W        W70333  12.167  20.657  21.307  0.1012 -0.1154 -0.0018
27281W        W70334   2.217  14.583  13.936  0.0681 -0.1270  0.1198
27282W        W70335   1.518   9.542  24.928 -0.3328  0.4288 -0.0876
27283W        W70336  24.516  23.730   3.864 -0.1109 -0.0554 -0.1134
27284W        W70337   0.331  18.789  28.593 -0.1301  0.1056 -0.0316
27285W        W70338   4.487  31.686  26.634  0.0626  0.0853  0.1885
27286W        W70339   7.773  14.082  14.540  0.4550 -0.1324 -0.0093
27287W        W70340  24.734  19.805  29.180  0.2519 -0.2501  0.2118
27288W        W70341   5.228  11.115   7.305 -0.1161  0.0895  0.1162
27289W        W70342   7.191  12.723  21.078 -0.0041  0.1578  0.2275
27290W        W70343  12.305  17.830  14.925  0.3868  0.1747 -0.2405
27291W        W70344  32.765  17.816  18.133 -0.0505  0.3366  0.0036
27292W        W70345  11.565  25.172  16.537  0.2311  0.1335  0.0259
27293W        W70346  21.226   3.873  20.557 -0.2937 -0.0970  0.0164
27294W        W70347   7.671  23.627  18.555  0.2348  0.2033 -0.1384
27295W        W70348  33.448  11.064   3.113  0.0106  0.4085 -0.1333
27296W        W70349   2.817  24.169  14.051 -0.2385 -0.0347  0.2676
27297W        W70350   3.538  24.455  14.381  0.0485  0.0422  0.2035
27298W        W70351  23.978  18.611  20.893  0.1594 -0.0008 -0.2611
27299W        W70352   9.517  25.010  19.898 -0.4526 -0.1258 -0.0849
27300W        W70353  27.997  18.744  20.641 -0.2575  0.0858  0.0749
27301W        W70354   9.524  27.895   1.836 -0.0036 -0.1890  0.2493
27302W        W70355   9.677  14.744   2.213 -0.1054  0.2333  0.2831
27303W        W70356   4.454  22.405  17.537 -0.0234 -0.3413 -0.2145
27304W        W70357   6.450  16.695  14.972 -0.2374 -0.0631  0.0921
27305W        W70358   7.907  14.918   7.958  0.2375  0.2160  0.2087
27306W        W70359   7.493  31.072  12.915  0.1965 -0.1328  0.1165
27307W        W70360   3.558  14.415  20.493 -0.1095 -0.1330 -0.0551
27308W        W70361  11.582  12.291  18.418  0.2330 -0.0600  0.0433
27309W        W70362  31.625  26.282  18.328 -0.2183 -0.0616 -0.1819
27310W        W70363  29.854  19.159  14.346  0.2477 -0.0887 -0.2689
27311W        W70364  34.547  10.526  15.254 -0.1499 -0.0486  0.2102
27312W        W70365   2.411  23.149  18.276 -0.0333 -0.0500 -0.0085
27313W        W70366   1.636   1.927  12.893  0.1246 -0.1009  0.1708
27314W        W70367   0.879  13.646  28.615  0.1990 -0.2528  0.0408
27315W        W70368   6.004   3.301  24.482  0.5424 -0.0318  0.2305
27316W        W70369   5.723  16.557  16.394 -0.2539  0.1594  0.0699
27317W        W70370   6.146  26.258  24.988 -0.0977 -0.1378  0.2615
27318W        W70371   0.517   9.595  23.033  0.0543 -0.1109  0.0873
27319W        W70372   1.132  23.940  17.259 -0.1900 -0.1081 -0.0466
27320W        W70373   8.144  20.032  15.838 -0.2890  0.3009  0.3760
27321W        W70374  18.289  22.744  20.660  0.4155  0.2569  0.1202
27322W        W70375   5.031  14.183  25.475  0.1276 -0.3825 -0.0252
27323W        W70376  24.867   6.731  23.092 -0.0207  0.0669 -0.1624
27324W        W70377   3.707   0.992  25.901  0.1318 -0.0909  0.1779
27325W        W70378  31.372  11.310  15.420 -0.2307  0.0342 -0.3142
27326W        W70379  34.619  13.170  17.963  0.0678  0.3131  0.0751
27327W        W70380  19.617   8.946  25.454  0.2770  0.1312  0.0574
27328W        W70381   2.812  29.268  26.319  0.2117 -0.2286 -0.2327
27329W        W70382  14.198  28.137  23.057 -0.2250  0.1879  0.1475
27330W        W70383   8.593  15.398   0.472 -0.0701  0.2895  0.1434
27331W        W70384  24.970  25.956  17.615  0.1586  0.1285  0.1272
27332W        W70385   5.707  29.101  18.036 -0.1274  0.1838 -0.1648
27333W        W70386   2.840  16.907  25.763 -0.0298  0.1596 -0.1824
27334W        W70387   5.845  12.738  26.725 -0.0746 -0.0220  0.3373
27335W        W70388  15.031  32.870  27.537  0.1088  0.0485 -0.2449
27336W        W70389  32.880  26.046  13.576  0.1161  0.1659  0.2359
27337W        W70390   4.712  20.466  20.834 -0.0379 -0.0044 -0.2068
27338W        W70391  33.866  18.798   1.638  0.0467  0.1317  0.0961
27339W        W70392   1.762  13.334  17.258  0.1317  0.2008 -0.1762
27340W        W70393  14.311  28.496  19.493 -0.1223 -0.0370 -0.5777
27341W        W70394  20.965   7.047  10.114 -0.1713 -0.3805 -0.0820
27342W        W70395  34.509  31.238  21.247 -0.2742  0.0942 -0.2007
27343W        W70396  14.773  18.736  14.920  0.2919 -0.1425  0.0047
27344W        W70397   2.363  14.366  18.773  0.0148  0.0261 -0.2514
27345W        W70398   1.348  16.516  24.300 -0.1941 -0.2452 -0.0381
27346W        W70399  33.669  17.244  24.362  0.1957  0.1206 -0.0256
27347W        W70400   8.045  20.453   2.171  0.0367  0.2826  0.2271
27348W        W70401   9.769  20.397   5.350 -0.5216  0.2618 -0.0176
27349W        W70402   8.771  15.133  27.143 -0.3409 -0.1258  0.0738
27350W        W70403   8.928  26.048  17.289 -0.0092 -0.2091 -0.1393
27351W        W70404   0.485   4.179  27.624  0.1665 -0.2106 -0.2941
27352W        W70405  14.821  16.950  29.200  0.3025 -0.3392  0.0800
27353W        W70406  34.259   6.820  23.678  0.0441 -0.0053 -0.1431
27354W        W70407  20.430   9.911  16.106 -0.1280  0.4016 -0.1566
27355W        W70408  21.885  27.487  21.710 -0.2631 -0.3315  0.0132
27356W        W70409  25.030  21.388  22.062  0.3368  0.1640  0.1230
27357W        W70410   4.085  18.018  15.000  0.0386 -0.2738  0.0180
27358W        W70411  20.446  17.465  21.075  0.3804  0.2652  0.1945
27359W        W70412  25.191  25.825   8.261  0.2857  0.1085  0.1424
27360W        W70413  11.982  13.397   2.964  0.1470 -0.3353  0.0863
27361W        W70414  20.399  24.122   4.352 -0.3260  0.1977  0.3426
27362W        W70415  16.733  10.959  16.765 -0.3218 -0.1811  0.0998
27363W        W70416  28.667   5.827  24.386  0.0229 -0.1957  0.1405
27364W        W70417  33.674   2.316   3.915  0.2277 -0.0557 -0.1966
27365W        W70418  27.459  16.104  18.167 -0.0981  0.1495  0.3148
27366W        W70419  32.552  21.895  14.434  0.2997  0.0191 -0.0602
27367W        W70420   2.279  13.427  26.978 -0.0549 -0.0372  0.3174
27368W        W70421  31.590  34.424   8.523 -0.0930  0.1345 -0.2245
27369W        W70422   9.043  12.320  27.456 -0.1983 -0.1607 -0.2311
27370W        W70423   4.883  28.291  15.065  0.0893  0.1242  0.0102
27371W        W70424  23.167  23.928  22.182  0.1700 -0.0175 -0.0168
27372W        W70425   7.374  13.471  22.842 -0.0162 -0.0334 -0.0355
27373W        W70426  28.620  14.614  25.732 -0.0735 -0.3522 -0.1285
27374W        W70427  13.076   8.736  19.782 -0.0103 -0.0714  0.3565
27375W        W70428  22.547  30.785  18.563  0.2291 -0.2582  0.1005
27376W        W70429  24.476   0.700  18.011 -0.2223 -0.2625 -0.0311
27377W        W70430   5.782  27.320  23.347  0.1059  0.0505 -0.0039
27378W        W70431  12.549  30.402   0.877  0.0473  0.0613  0.1014
27379W        W70432  26.655  14.972  29.053 -0.2417 -0.0878 -0.0522
27380W        W70433  14.278  28.906  25.475  0.0375 -0.1409  0.0138
27381W        W70434  28.817  10.471  25.344  0.2381 -0.1861  0.2529
27382W        W70435   4.106   9.698  23.922  0.0802  0.0232 -0.1085
27383W        W70436  32.638  31.063  20.261  0.0466  0.4039  0.1546
27384W        W70437   8.815  17.126  19.551 -0.2592 -0.0295  0.0017
27385W        W70438  21.982  14.093  17.797  0.0900  0.1604  0.0288
27386W        W70439   9.240  24.117  17.430 -0.3110 -0.1673  0.0198
27387W        W70440  23.394  32.279   9.176 -0.0767  0.2236 -0.2388
27388W        W70441   4.144  30.304  15.806  0.2910 -0.0451  0.1563
27389W        W70442   9.446   4.177  21.454  0.1469 -0.1881 -0.3779
27390W        W70443  23.127  20.018  15.055  0.0426 -0.2350 -0.0381
27391W        W70444  27.842  16.523  24.616  0.0959  0.0492  0.1533
27392W        W70445  15.184  30.798  27.574  0.1526 -0.2679  0.2707
27393W        W70446  22.693  12.446  28.642  0.0760  0.2461 -0.0910
27394W        W70447  15.187  18.300  16.544 -0.0269  0.0671  0.1189
27395W        W70448   2.584  13.834  27.023  0.0630  0.3074 -0.0703
27396W        W70449  10.741   8.970  18.178 -0.1739  0.4602  0.0519
27397W        W70450  13.085  17.823   3.262  0.1301  0.0502 -0.1413
27398W        W70451   7.784  12.600  22.612  0.1930  0.1823  0.2099
27399W        W70452   6.046  20.294   9.802  0.1856 -0.2026 -0.5753
27400W        W70453  33.930   9.559  19.872  0.2123  0.1140  0.5216
27401W        W70454   0.977  23.852  20.734 -0.3454 -0.2561 -0.1292
27402W        W70455   6.645  18.275  17.365 -0.1677 -0.0336  0.2755
27403W        W70456  18.658  22.743  24.243  0.0900  0.0999  0.0067
27404W        W70457  31.519  18.933  22.428 -0.2017  0.0520  0.0639
27405W        W70458  24.649  10.851  27.035 -0.0882  0.0087 -0.1498
27406W        W70459   0.951  22.210  15.233 -0.1358 -0.1617 -0.0980
27407W        W70460  23.527  16.258   0.127  0.0357  0.2944  0.0469
27408W        W70461   4.279   4.727  26.328  0.0243  0.0586 -0.0677
27409W        W70462   4.844  20.018  20.427  0.0251  0.0029  0.0453
27410W        W70463   1.952  23.066  23.467  0.3130 -0.0725 -0.2801
27411W        W70464   3.328  18.700  20.479 -0.1025 -0.0879  0.1115
27412W        W70465   8.522   4.387  19.088  0.2039 -0.1170  0.1065
27413W        W70466   4.922  30.643  25.050  0.0425 -0.0705  0.2771
27414W        W70467  34.170  14.705  20.079 -0.2099 -0.1040 -0.0206
27415W        W70468   8.030  15.375  19.149  0.0107 -0.0440 -0.2747
27416W        W70469   5.303   7.734  24.295  0.0961 -0.2900 -0.0488
27417W        W70470  12.488  18.921  25.509  0.0490  0.1255 -0.0932
27418W        W70471   0.338  30.562  22.466  0.0329  0.2772  0.1654
27419W        W70472  34.312   3.345  15.222  0.0127 -0.1033  0.2367
27420W        W70473  14.918  23.306  15.411 -0.2232 -0.0209 -0.0072
27421W        W70474  29.426   9.497  20.125 -0.2112 -0.2740  0.1455
27422W        W70475  10.372   9.538  23.514 -0.0868  0.1549  0.1650
27423W        W70476   3.852  24.131   2.033  0.2370 -0.1464 -0.0504
27424W        W70477  12.760  17.602  25.548  0.1982  0.3704 -0.0908
27425W        W70478  15.855  15.996   2.805  0.2016  0.6216 -0.0629
27426W        W70479   7.378  22.888  26.058  0.1325  0.2504  0.2727
27427W        W70480   3.314  24.375  22.431 -0.2378 -0.0735 -0.1430
27428W        W70481  12.768  13.229  26.188 -0.0676 -0.2440 -0.3125
27429W        W70482  27.197   1.471  24.448  0.2065  0.1423  0.2717
27430W        W70483  11.811  18.957  18.873  0.0110 -0.2690 -0.1838
27431W        W70484  15.085  27.556  28.411 -0.4522 -0.0942  0.0532
27432W        W70485   6.507  14.366   2.950 -0.1316 -0.1230 -0.3270
27433W        W70486  32.025  26.796  16.653  0.0693  0.0340 -0.0451
27434W        W70487  33.203  21.475   3.826  0.0942 -0.0598 -0.0663
27435W        W70488  18.140  15.095  23.185 -0.1878  0.3562 -0.0508
27436W        W70489   5.046   9.188  17.082  0.1177 -0.0191 -0.1856
27437W        W70490   0.246   9.678  26.148  0.2157  0.2473  0.2639
27438W        W70491  32.206   9.378  19.066 -0.2379 -0.0964 -0.0037
27439W        W70492  13.414   4.824  27.335 -0.0122  0.1049  0.1975
27440W        W70493  21.617  23.810  18.183 -0.1958 -0.4079  0.0130
27441W        W70494  34.026  15.334   0.554 -0.2494  0.1081  0.2612
27442W        W70495  33.237  20.240   1.098  0.0670 -0.3563  0.0088
27443W        W70496   4.620  25.683  27.620 -0.1768 -0.4002  0.2339
27444W        W70497   9.596  24.022  24.757  0.1530 -0.2050 -0.0833
27445W        W70498   1.304   3.127  28.345  0.2057  0.0134 -0.1413
27446W        W70499   1.749  15.248  26.512  0.0782  0.4061  0.1290
27447W        W70500   5.709  26.316  17.913 -0.1124  0.1126 -0.1925
27448W        W70501   9.373  18.600  24.070  0.1931 -0.0150  0.1081
27449W        W70502   2.833  19.522  22.867 -0.0104 -0.0688  0.1251
27450W        W70503   2.138  17.334   8.912  0.1231 -0.2955 -0.3882
27451W        W70504  33.192  19.457  26.607  0.2660 -0.0087  0.0955
27452W        W70505  32.081  21.831  16.480  0.5485  0.0358  0.1015
27453W        W70506  10.525   6.960  26.578 -0.3080 -0.1012 -0.0426
27454W        W70507   0.445  31.677  26.684 -0.0742  0.0487  0.2452
27455W        W70508   4.881  16.555  19.857  0.0994 -0.0249 -0.0840
27456W        W70509  33.544  23.690   9.655  0.2196 -0.1106  0.5990
27457W        W70510   6.450  17.485  15.520 -0.2322 -0.0147  0.2553
27458W        W70511  34.377  17.239  21.426  0.1440  0.1906  0.1179
27459W        W70512  15.322  16.747  24.024 -0.2694 -0.1059 -0.2508
27460W        W70513  30.614  11.371  29.139  0.0349 -0.1206  0.0315
27461W        W70514  28.916  24.097   7.625  0.1727 -0.2654 -0.2032
27462W        W70515  34.422  29.920  28.374  0.2016 -0.0024 -0.0583
27463W        W70516  26.046   2.891  15.203  0.1594  0.0797  0.2502
27464W        W70517  28.151  17.601  19.089  0.1560  0.1665 -0.0192
27465W        W70518  23.219   6.514  24.026 -0.1908  0.1366  0.1191
27466W        W70519  34.415  16.575  22.701  0.2117 -0.1191 -0.3004
27467W        W70520   9.839   6.953  21.817 -0.0040 -0.2649 -0.0978
27468W        W70521   2.890  28.893  22.753 -0.0515  0.2114 -0.0376
27469W        W70522  10.196  16.502  15.235  0.0149  0.2436  0.0173
27470W        W70523  26.394  22.493  19.056  0.3020  0.2107 -0.0711
27471W        W70524  28.760   9.492   4.195  0.0830  0.0701  0.1395
27472W        W70525   3.143  10.211  18.268  0.2499 -0.1157 -0.0490
27473W        W70526   5.979  30.153  14.406  0.0460 -0.2575  0.0820
27474W        W70527  19.757   9.821  24.292  0.2247  0.2349  0.3751
27475W        W70528  10.127  23.211  23.085  0.4938 -0.2301 -0.1207
27476W        W70529   3.414  24.999  15.773  0.2873 -0.1010  0.5977
27477W        W70530  27.677  13.550  23.855 -0.4533  0.1810 -0.0766
27478W        W70531  25.371  14.036  21.151  0.0743  0.0490 -0.2183
27479W        W70532  16.890   3.159  17.728  0.2412  0.0958  0.1893
27480W        W70533   5.159  30.397  28.344 -0.0846  0.4246 -0.0318
27481W        W70534  19.997  25.359  24.367  0.1174 -0.2263 -0.0545
27482W        W70535  13.507  29.868  17.622 -0.1827 -0.3160  0.1257
27483W        W70536  31.034   9.522   6.966  0.2477  0.3025  0.1338
27484W        W70537  29.310  17.725  21.366 -0.2217 -0.1440  0.2140
27485W        W70538  21.562   7.838  19.683 -0.2854  0.0439  0.0914
27486W        W70539  32.757  22.880  24.990  0.0164 -0.0841 -0.1808
27487W        W70540   4.360  25.728  19.366  0.0219  0.0976  0.0518
27488W        W70541  21.698  20.163  15.043  0.1084 -0.2717  0.1483
27489W        W70542  12.931  13.233  23.204  0.0276 -0.0407  0.1963
27490W        W70543  20.232  15.210  23.791 -0.0803 -0.1423  0.0588
27491W        W70544  23.765  26.259   5.023 -0.0194  0.3058  0.2777
27492W        W70545  28.054  14.061  25.739 -0.1425 -0.0251  0.0893
27493W        W70546   2.754  15.412  28.072 -0.2415  0.0215 -0.0492
27494W        W70547  28.369   9.038   7.819 -0.3268  0.1999  0.0396
27495W        W70548  31.358  24.290  15.221  0.2532  0.2103  0.1881
27496W        W70549  20.245  25.463  15.553 -0.2790  0.0224 -0.1995
27497W        W70550   9.063  24.597   6.406 -0.2249 -0.2650 -0.0045
27498W        W70551   4.770  20.485  20.276 -0.0405  0.1139  0.5134
27499W        W70552   4.195  24.774  15.491 -0.3809  0.1033 -0.0560
27500W        W70553   6.838  22.444   0.551 -0.1821 -0.3689 -0.3889
27501W        W70554  33.468  31.796   0.208 -0.0388 -0.0436 -0.0112
27502W        W70555   4.389  10.727  29.099 -0.0741 -0.1324 -0.1068
27503W        W70556  17.038   6.097   1.001  0.1088 -0.0279 -0.0921
27504W        W70557   0.944  10.522   8.379 -0.1641 -0.0233 -0.1546
27505W        W70558   7.694  20.996  21.723 -0.1212  0.1979  0.3284
27506W        W70559  11.856  16.590  14.435 -0.0453  0.1433  0.1856
27507W        W70560   3.772   1.160  14.765  0.0339  0.2254  0.1891
27508W        W70561  25.623   8.467   3.270 -0.1367 -0.0486  0.0056
27509W        W70562  31.881  17.138  14.978  0.2305 -0.0524 -0.1602
27510W        W70563  22.323  18.557  25.280  0.0539 -0.1951 -0.1088
27511W        W70564  31.943  25.065  13.656  0.1075  0.0458 -0.1610
27512W        W70565   3.941   6.879  16.537 -0.1894 -0.1698  0.0693
27513W        W70566  19.909   9.755  28.701  0.1218  0.0249  0.0543
27514W        W70567   5.816  21.717   7.465 -0.0299  0.1948  0.1779
27515W        W70568  11.868  13.399  22.772 -0.1455 -0.1713  0.4169
27516W        W70569   4.331  15.568  17.930  0.0419  0.0030  0.0112
27517W        W70570  10.016   8.869  14.834  0.0209 -0.2935 -0.3188
27518W        W70571   4.576  22.309  24.614  0.0510 -0.0951 -0.1919
27519W        W70572   9.213  24.375  21.454  0.1492  0.2054 -0.1293
27520W        W70573  33.075   3.802   7.641 -0.1926 -0.0313 -0.5983
27521W        W70574  18.229  20.828  13.800  0.0077 -0.3245  0.1063
27522W        W70575   8.050  15.007  22.818 -0.1300  0.1404 -0.1672
27523W        W70576  30.015  23.531  20.325  0.1492  0.0115  0.3480
27524W        W70577  20.971  31.007  14.641  0.1758 -0.1103 -0.4576
27525W        W70578   9.668  14.417  15.243 -0.1746  0.1940 -0.2450
27526W        W70579  27.371  28.121  25.552 -0.2826  0.0409 -0.0513
27527W        W70580  14.421   6.282  16.760  0.2693  0.1467 -0.2806
27528W        W70581  19.326   6.856  16.437 -0.0399 -0.0580 -0.0423
27529W        W70582   4.703   3.429   5.356  0.4582  0.0833  0.1394
27530W        W70583  26.535  32.422  26.827 -0.0013  0.0612 -0.2691
27531W        W70584   0.621  26.519  23.411 -0.1534 -0.1510  0.4539
27532W        W70585   0.930  32.038  23.462 -0.2230 -0.0674  0.1978
27533W        W70586  16.383  15.955  26.778 -0.0551 -0.0261  0.0287
27534W        W70587   1.269  12.337   3.505 -0.0207  0.0412  0.1822
27535W        W70588  15.196  21.992  20.244  0.1006 -0.0238 -0.0462
27536W        W70589   9.288  10.370  14.602  0.0315 -0.0515  0.2434
27537W        W70590   4.365  12.238   5.791 -0.0318  0.4402 -0.6012
27538W        W70591   4.612  17.417  15.214 -0.3468  0.1087 -0.0288
27539W        W70592   5.899  25.699  24.840  0.2444 -0.0969 -0.2428
27540W        W70593   2.191  15.755  18.368 -0.0767  0.0168  0.0479
27541W        W70594   4.183  16.901  28.895  0.2759  0.1694 -0.0182
27542W        W70595  12.782   1.101  18.484 -0.2915  0.0810  0.1608
27543W        W70596  16.947  26.530   3.985 -0.0510  0.1362 -0.1005
27544W        W70597   6.034   9.001   2.742 -0.4011  0.1570  0.1872
27545W        W70598   3.731   3.910  28.097  0.0098  0.0324  0.2459
27546W        W70599   9.425  27.129  21.058  0.1100 -0.2499 -0.0741
27547W        W70600  32.507  10.255   8.823  0.2848 -0.0482 -0.1561
27548W        W70601   0.423  11.377  15.780 -0.0284  0.0104 -0.0003
27549W        W70602  23.211   0.854   7.200 -0.3032 -0.3349  0.4134
27550W        W70603  13.004  24.761  21.629  0.0430  0.0477 -0.0067
27551W        W70604  33.318   9.639  22.851  0.1399 -0.1616 -0.0812
27552W        W70605  26.036  16.670  21.409  0.0009  0.0013  0.0269
27553W        W70606   0.249  26.398  27.490  0.2105  0.1597  0.2596
27554W        W70607  13.615  19.981  19.129 -0.1327 -0.1785  0.2011
27555W        W70608  17.876  20.742  22.945 -0.0470  0.2175 -0.2433
27556W        W70609  13.096   1.049  28.114 -0.3227 -0.0630  0.3586
27557W        W70610  30.222  16.508  15.383 -0.0001  0.1044  0.2834
27558W        W70611   1.354  20.974   2.167  0.0226  0.3871  0.0108
27559W        W70612   8.544  23.793  26.995  0.0474  0.0980  0.2598
27560W        W70613   5.924  13.030   7.283  0.4294  0.0404  0.1754
27561W        W70614  11.208  29.114  24.563  0.0896  0.4185 -0.1646
27562W        W70615  23.101  17.469  25.055 -0.2237 -0.1136  0.0807
27563W        W70616  10.429  34.384  20.991 -0.3216  0.1118  0.0689
27564W        W70617  17.137  23.036  17.829 -0.0104  0.0377  0.0392
27565W        W70618   8.919  25.108  20.071 -0.1760 -0.5376 -0.1434
27566W        W70619   9.552  34.486   2.523 -0.4417  0.0128  0.0310
27567W        W70620  30.808  10.265  24.698  0.0514 -0.0881 -0.3593
27568W        W70621  18.423  34.070   3.861  0.0355 -0.0897  0.2777
27569W        W70622  12.136  14.940   0.485  0.1004 -0.2007  0.1674
27570W        W70623   5.094  18.580  27.276  0.1363 -0.0536  0.2049
27571W        W70624  24.155   3.254  15.393  0.0238  0.4537  0.0131
27572W        W70625   9.577  19.112  15.180  0.3135 -0.0011 -0.2429
27573W        W70626   8.795  20.201  24.264 -0.0896  0.0393 -0.0405
27574W        W70627  14.885   2.162   2.517 -0.0510  0.2696  0.1496
27575W        W70628  12.257  13.773   2.734  0.2642 -0.0367 -0.2962
27576W        W70629  10.972  20.483   4.807  0.2174 -0.0558  0.1942
27577W        W70630   4.467  26.233  26.594 -0.3703  0.2947  0.1815
27578W        W70631  12.498  17.725   7.515  0.2402 -0.1719  0.1633
27579W        W70632  29.836  21.999  19.038  0.1805 -0.1746  0.0859
27580W        W70633  12.117  18.143  20.107 -0.0846 -0.3005 -0.0405
27581W        W70634   3.967   4.902  24.870  0.3142 -0.0535  0.0399
27582W        W70635   0.421  11.724  15.349 -0.1539  0.0891 -0.3844
27583W        W70636  32.741  17.211  25.075 -0.0857 -0.0000 -0.4165
27584W        W70637   9.899  24.664  20.020  0.1282  0.0058  0.1093
27585W        W70638  30.757  32.430  24.794 -0.1556 -0.1813 -0.0242
27586W        W70639  10.469   4.954  17.054  0.2006 -0.0222 -0.0928
27587W        W70640   2.628   1.970   3.216  0.0225  0.1105  0.2045
27588W        W70641   5.704  21.796   0.273  0.2609 -0.0121  0.0726
27589W        W70642  15.775  22.974  27.503 -0.1950  0.1939 -0.0326
27590W        W70643   3.119   3.611  23.771 -0.3327 -0.0766 -0.1184
27591W        W70644  28.464  13.930  24.522 -0.2538  0.2670 -0.1134
27592W        W70645   0.531  20.331   7.663  0.0388 -0.0078 -0.0906
27593W        W70646  10.601  24.706   5.612 -0.4164  0.1282  0.1273
27594W        W70647   6.253  24.549  19.961 -0.2243 -0.1238 -0.2201
27595W        W70648  15.710  30.369  15.071  0.0551 -0.0262  0.1855
27596W        W70649   0.669  11.698  19.237 -0.2083 -0.0693  0.0360
27597W        W70650  27.901  10.661  26.512 -0.0017  0.0311  0.2750
27598W        W70651   9.058  15.527  25.990 -0.0460 -0.2366 -0.1955
27599W        W70652   5.701  11.849   5.541 -0.2898 -0.1180 -0.1784
27600W        W70653  33.736  15.110  17.220  0.2091 -0.0126 -0.0910
27601W        W70654  27.589  24.840  18.653  0.3126 -0.0206 -0.5093
27602W        W70655   0.632  16.626  14.795  0.2436 -0.3197  0.1509
27603W        W70656  12.298  24.567  18.042 -0.2530  0.0110 -0.1639
27604W        W70657  10.069  20.366  16.467 -0.0946 -0.1193 -0.0482
27605W        W70658  33.837  12.876   4.857  0.0817 -0.1904  0.1027
27606W        W70659  18.966   7.757  22.158 -0.2192 -0.0351 -0.2041
27607W        W70660   4.605   1.963  29.008  0.1947  0.5301 -0.1220
27608W        W70661  28.126  18.464  27.257  0.2619 -0.0431 -0.0520
27609W        W70662  10.020  18.523   3.934  0.1056  0.0352 -0.1384
27610W        W70663   8.238  22.465  24.116  0.1369 -0.2409 -0.0325
27611W        W70664   3.318  27.998  25.434 -0.0402  0.2632 -0.1471
27612W        W70665   5.043  23.000  19.307 -0.2402 -0.0664  0.0244
27613W        W70666  34.101  11.124  14.730  0.0474  0.3070 -0.1318
27614W        W70667   4.839   5.894   0.677 -0.2485 -0.0187  0.3630
27615W        W70668  10.833   5.067  22.172  0.0747  0.0917 -0.1389
27616W        W70669  14.181   8.499  17.452 -0.1271  0.2100  0.1632
27617W        W70670   6.796   0.369  19.986 -0.0253  0.4469  0.0923
27618W        W70671  11.043   3.378  24.735 -0.2787  0.2040 -0.0390
27619W        W70672   0.232   8.168   1.425  0.3572  0.0448 -0.0383
27620W        W70673  12.975  14.395  15.833 -0.0466 -0.4390  0.1355
27621W        W70674  30.856  25.980  23.917 -0.0249 -0.0455 -0.1311
27622W        W70675  18.635  30.715   8.128  0.0460  0.1157 -0.5025
27623W        W70676   5.162  14.908  22.181 -0.0424 -0.3738  0.0728
27624W        W70677   9.535  30.771  22.947 -0.2272 -0.1369  0.1153
27625W        W70678  15.462  21.890  27.747  0.1506  0.0514 -0.1180
27626W        W70679   0.452   9.836  29.000  0.0063 -0.0626 -0.1964
27627W        W70680   8.890  25.505  25.202 -0.4527  0.2504 -0.0088
27628W        W70681   2.118  13.340  16.215 -0.0938  0.0565  0.0066
27629W        W70682   5.684  28.436   0.279  0.2120  0.1968 -0.0832
27630W        W70683  18.248  12.864   0.085  0.1822 -0.0088 -0.2158
27631W        W70684  14.097  29.280  24.758  0.1399  0.0173 -0.3564
27632W        W70685  34.096  21.683  18.324  0.0056 -0.2103  0.1263
27633W        W70686  19.059  11.409   0.012 -0.1206 -0.0534 -0.1488
27634W        W70687   6.419  26.040   0.656  0.0155 -0.2612  0.2197
27635W        W70688  29.662  17.647  18.595 -0.0533 -0.5264 -0.0477
27636W        W70689  12.548  16.544  20.066 -0.1427 -0.2949  0.1323
27637W        W70690  27.558   2.820   3.556 -0.1513 -0.0671 -0.1135
27638W        W70691  15.962  15.955  15.992 -0.1868 -0.0959  0.0876
27639W        W70692  31.854  15.417   0.744  0.0106  0.1558 -0.0686
27640W        W70693   0.835  29.571   6.637  0.0533  0.1794 -0.1400
27641W        W70694   3.965  26.035  15.906  0.1307  0.1173 -0.0542
27642W        W70695  33.153  10.571  28.016  0.0675  0.0023  0.2076
27643W        W70696  22.716   5.963  19.754  0.3325  0.2042 -0.3553
27644W        W70697  26.936  21.695  20.371  0.0602 -0.1391  0.2472
27645W        W70698  11.486  27.031  15.876  0.1121 -0.2691  0.1088
27646W        W70699  34.619   9.742  26.536 -0.2571  0.0636  0.0623
27647W        W70700  33.896  21.448   4.558  0.1225 -0.1110  0.2672
27648W        W70701   2.603  32.518  20.844 -0.2201  0.1728 -0.4281
27649W        W70702   4.681  11.836   9.287 -0.1203 -0.1276 -0.0748
27650W        W70703   4.944  18.161  19.411  0.1049 -0.0233 -0.2693
27651W        W70704   4.338   3.470   1.619  0.0903 -0.2616 -0.0132
27652W        W70705  15.090  25.160  23.823 -0.1125 -0.1745  0.0607
27653W        W70706   8.549  16.067  18.866  0.0984  0.0259 -0.0119
27654W        W70707   0.467   2.625  14.728 -0.1745 -0.0419  0.2480
27655W        W70708  34.403  10.606  21.616  0.0867 -0.0787 -0.1268
27656W        W70709   4.543  32.316   8.680  0.0771  0.4187  0.1960
27657W        W70710  10.874   6.008  18.975  0.1839  0.0952 -0.2961
27658W        W70711  32.755  18.938  14.226  0.0640 -0.3140  0.3799
27659W        W70712  10.094  22.643  24.852 -0.2764 -0.0492  0.2081
27660W        W70713   5.096   8.499  20.997  0.0800  0.2942  0.0284
27661W        W70714   9.948  13.062   6.582 -0.0666  0.0504  0.1733
27662W        W70715  30.249  19.003  13.486  0.1014 -0.2249 -0.1705
27663W        W70716   3.628  10.753  23.078 -0.1531  0.0226 -0.2552
27664W        W70717   4.347  20.157  28.207  0.0867 -0.1622 -0.1877
27665W        W70718  11.080  24.036  24.319 -0.2128 -0.2195  0.2139
27666W        W70719   4.051  10.512  28.766 -0.0304  0.0125  0.0133
27667W        W70720  12.325   9.342   0.892 -0.2107 -0.1572  0.0368
27668W        W70721  14.566  28.184  26.806  0.2815 -0.1281 -0.1436
27669W        W70722  26.188  19.704  20.689 -0.4081  0.0549  0.0195
27670W        W70723  13.887  22.061  28.974 -0.0510  0.2130  0.0085
27671W        W70724   0.181  28.363  13.308 -0.4205  0.2356  0.0087
27672W        W70725   1.336  16.563  18.770  0.1725  0.2918  0.0020
27673W        W70726  25.920  21.933  19.602 -0.0089 -0.1487 -0.1929
27674W        W70727  15.347   6.636  27.510 -0.0947  0.0832 -0.0357
27675W        W70728  22.199  23.688  22.578  0.0475  0.0116 -0.2006
27676W        W70729   8.025  28.099  26.058  0.0514 -0.2351 -0.0206
27677W        W70730  30.120  27.262  15.285  0.0570  0.2464 -0.1073
27678W        W70731  33.958  12.017  15.017  0.2720 -0.1073  0.1150
27679W        W70732   8.547   7.656  28.838  0.1471 -0.2520 -0.0231
27680W        W70733  26.564  11.756  23.606  0.1068  0.1458  0.3033
27681W        W70734  16.200  17.323  23.308 -0.1376  0.1558 -0.3024
27682W        W70735   6.492  26.444  14.163 -0.0320  0.1290  0.2683
27683W        W70736  15.234  28.579  16.308 -0.0115 -0.2441 -0.1434
27684W        W70737   8.456   0.435  20.321 -0.2088  0.1144 -0.0434
27685W        W70738  28.257  15.321  27.602 -0.2900  0.1338 -0.0196
27686W        W70739   5.962  25.156  23.094 -0.3106 -0.0518 -0.0272
27687W        W70740   7.341   8.836  24.885  0.0480  0.1833 -0.0046
27688W        W70741   3.759  19.896   0.261  0.0955  0.4145  0.2981
27689W        W70742   2.711  19.131   8.393 -0.0757 -0.0340  0.0172
27690W        W70743  34.481  13.642   0.974 -0.2225  0.0717 -0.0283
27691W        W70744  17.777  11.532  18.718  0.1704 -0.0101 -0.3040
27692W        W70745   7.341  23.344   9.040 -0.1014 -0.0936 -0.2831
27693W        W70746  30.078  12.380  14.246 -0.1017  0.1600  0.1154
27694W        W70747   3.159  18.245  21.329  0.0156 -0.4426 -0.0630
27695W        W70748  12.920  21.444  22.103  0.5540 -0.1719  0.2882
27696W        W70749   7.182   2.533   3.716 -0.1918  0.0790  0.1215
27697W        W70750  34.576  23.858  19.811 -0.1957 -0.0822 -0.3345
27698W        W70751  33.131  23.965  21.315 -0.0047  0.0232 -0.0955
27699W        W70752  29.970  19.689  26.663  0.4034 -0.1099 -0.3956
27700W        W70753   3.549  10.907  17.425 -0.2723 -0.0560  0.2868
27701W        W70754   5.718  13.093  23.927 -0.2789 -0.3108  0.3656
27702W        W70755  30.463  16.608  25.001 -0.2836  0.0165 -0.0901
27703W        W70756   7.530  30.629  26.740 -0.3096  0.0688  0.0060
27704W        W70757   7.642  29.355  15.666  0.0072 -0.0642 -0.1404
27705W        W70758  24.051  11.855   2.140  0.0321 -0.3688 -0.0268
27706W        W70759   2.768  13.273  19.675 -0.1742 -0.0807 -0.0609
27707W        W70760  15.304  18.817  16.674  0.0934  0.0509  0.0385
27708W        W70761  23.808  20.996  14.633 -0.2879  0.1439 -0.1549
27709W        W70762  30.251  27.732  13.196  0.1015  0.0152  0.1546
27710W        W70763   2.867  16.485  18.671  0.1511 -0.1082 -0.1503
27711W        W70764  16.559   2.942  18.078  0.2601  0.0661 -0.1398
27712W        W70765   5.800  29.892   6.989 -0.1861 -0.0176 -0.1052
27713W        W70766   5.919  16.005  22.878 -0.0273 -0.4235 -0.2040
27714W        W70767   8.632  14.619  22.173  0.0570 -0.2141 -0.1282
27715W        W70768  28.084  18.294  25.457  0.0736 -0.1266 -0.0804
27716W        W70769  27.413  33.675  22.472  0.1053  0.0912  0.0157
27717W        W70770   3.141   8.639   0.757  0.0159 -0.4052  0.0217
27718W        W70771  33.324  30.738  26.663 -0.0651  0.0399  0.1280
27719W        W70772   0.712  34.658  16.422 -0.2208 -0.2646 -0.2640
27720W        W70773  33.460  13.086  28.745 -0.4017 -0.2800  0.0939
27721W        W70774   1.763  21.685  24.638 -0.1046 -0.2861  0.1142
27722W        W70775  16.150  26.608  26.467  0.1555 -0.2233  0.2984
27723W        W70776  17.400  34.641   5.938  0.1528 -0.4805 -0.1388
27724W        W70777   3.359  12.575  21.821 -0.1612  0.1828  0.1449
27725W        W70778  23.928  19.958  22.308  0.1598  0.0012  0.1976
27726W        W70779  15.797  16.261  13.955  0.0317  0.3769  0.0672
27727W        W70780   5.872  10.117  25.688  0.1175  0.2747 -0.3314
27728W        W70781  30.963  15.122  17.131  0.0928 -0.1142 -0.3040
27729W        W70782   5.240  19.811   6.626  0.0623  0.1335 -0.0106
27730W        W70783  31.988  19.878  24.674 -0.2450 -0.3938 -0.1406
27731W        W70784  28.104  22.099  18.786 -0.1595  0.1349  0.4910
27732W        W70785  10.106  22.893  19.642  0.0769 -0.2868 -0.2330
27733W        W70786   9.092  27.114  27.994  0.1271  0.3885  0.1333
27734W        W70787  18.336  12.535  26.088  0.0795  0.1395  0.1974
27735W        W70788  15.735  15.625   5.997  0.1935 -0.2009  0.2732
27736W        W70789  12.119   8.211  26.774 -0.0720 -0.0417 -0.0201
27737W        W70790  14.255  10.988   7.039  0.1759 -0.2440 -0.1352
27738W        W70791   9.704  13.475  21.724  0.0149 -0.1098 -0.3007
27739W        W70792   6.143  12.444  23.973  0.1876 -0.0938  0.1528
27740W        W70793  12.758  31.296  24.277  0.1067  0.0051  0.0044
27741W        W70794   8.343   8.382  19.992  0.2973  0.3182 -0.3722
27742W        W70795  29.596  29.631  20.165 -0.0296 -0.0236 -0.1375
27743W        W70796  11.059  19.166  24.942 -0.0785  0.0916  0.1034
27744W        W70797  12.267   9.579   4.189  0.0437  0.1401 -0.0919
27745W        W70798  12.515   3.418  17.237  0.1596 -0.0814 -0.2541
27746W        W70799  10.258  22.957  18.674  0.1161 -0.0998 -0.1346
27747W        W70800  15.729  33.774  28.671 -0.5203 -0.0480  0.2011
27748W        W70801  22.012  19.972  14.711  0.0827 -0.0910  0.4477
27749W        W70802  12.316  15.563  26.679 -0.0772 -0.0540 -0.0067
27750W        W70803   9.222   6.820  16.156 -0.0284 -0.0897  0.1108
27751W        W70804  18.994  33.350  23.101  0.1746 -0.0774  0.0442
27752W        W70805  33.749  11.374  25.322 -0.2074  0.0046 -0.2992
27753W        W70806   0.578  11.329  16.293  0.0229 -0.0055  0.0647
27754W        W70807  29.281  15.073   3.036 -0.0167  0.0841 -0.0548
27755W        W70808  15.502   8.796   2.446  0.1109 -0.3490  0.3798
27756W        W70809   2.270  19.333   5.133 -0.1949 -0.2205  0.3552
27757W        W70810   1.101  26.413  25.134  0.0025 -0.2238 -0.1757
27758W        W70811  10.846  12.571   3.145  0.1182  0.1775  0.0777
27759W        W70812  30.354  31.899   6.818  0.4235 -0.0309  0.2062
27760W        W70813   0.011  21.946  27.372 -0.0306  0.2152  0.6528
27761W        W70814   6.509  19.161  22.513 -0.1520 -0.0739  0.0334
27762W        W70815  15.432  16.452   1.322 -0.0212 -0.1403  0.3072
27763W        W70816   3.110  34.021  26.728  0.0783 -0.1634  0.0712
27764W        W70817  33.689  21.697   0.877  0.3418 -0.0663  0.2605
27765W        W70818  11.111  13.356  21.483 -0.0386 -0.1239  0.1851
27766W        W70819  25.150   4.026   5.225 -0.1999  0.1874 -0.0848
27767W        W70820  33.409  29.124  28.066  0.1660 -0.1126 -0.2489
27768W        W70821   5.839   9.119  22.541  0.0835  0.2121 -0.2464
27769W        W70822   2.318  33.347   6.795 -0.0607  0.1576  0.1335
27770W        W70823  33.816  11.432   4.545  0.2010  0.0049  0.2381
27771W        W70824  10.434   0.322   9.365  0.0085 -0.0159 -0.0827
27772W        W70825   8.197  24.844   3.824  0.0942 -0.0297 -0.0388
27773W        W70826   9.596   0.726   6.160 -0.1484 -0.2279 -0.0061
27774W        W70827   7.531  34.224   4.883 -0.1233  0.3048  0.2786
27775W        W70828  27.674  19.419   5.774 -0.1330 -0.4186 -0.2549
27776W        W70829   0.556   5.298   6.838 -0.1519  0.2052 -0.4661
27777W        W70830   9.084  29.705   5.765  0.1253  0.5269  0.0851
27778W        W70831   2.426  22.767  28.448 -0.3627 -0.4546  0.0071
27779W        W70832  11.906   8.758  15.522  0.0829 -0.3230  0.2014
27780W        W70833  10.758  11.349  24.959  0.1917  0.1250  0.4462
27781W        W70834   6.266   3.715   4.061 -0.0865 -0.1655  0.1751
27782W        W70835  34.440   3.274   1.740 -0.0467  0.5510 -0.3761
27783W        W70836  11.196   0.722  10.462 -0.1607  0.1630  0.2609
27784W        W70837   9.782  27.277   7.925  0.0369 -0.0825  0.0161
27785W        W70838   1.089  11.536  26.354 -0.1886  0.2126  0.1748
27786W        W70839  29.484  22.410   0.580  0.0940  0.0782 -0.0129
27787W        W70840   5.013  22.919   3.606  0.0106  0.1100  0.2014
27788W        W70841   5.198  32.084  24.251 -0.0458  0.2128  0.0144
27789W        W70842  17.155   8.550  16.016  0.0235  0.2193  0.1940
27790W        W70843  34.055   6.628  17.799  0.0157 -0.3051  0.2407
27791W        W70844  29.126  16.797  19.673  0.1307 -0.1195  0.0021
27792W        W70845   3.550  27.413   9.132  0.0466 -0.0295  0.1175
27793W        W70846   6.376  14.953  24.762  0.0528  0.1374  0.1191
27794W        W70847   8.808   2.248  20.601  0.0912 -0.0069  0.3182
27795W        W70848  19.815  11.985  22.659 -0.0852 -0.0335  0.0610
27796W        W70849  25.179   8.448  15.829 -0.2069 -0.2331 -0.0067
27797W        W70850  18.185  16.329   0.168  0.1763  0.0682  0.2915
27798W        W70851   0.614  20.654  13.702  0.3135 -0.0536  0.2448
27799W        W70852  10.039  34.476  27.178  0.1222  0.2005 -0.1846
27800W        W70853   0.206  17.242  14.325  0.1472  0.0258 -0.0209
27801W        W70854  10.275   7.544  21.918  0.0817 -0.0375  0.2775
27802W        W70855  20.247   7.204  14.911  0.1291  0.0861  0.4501
27803W        W70856  29.027  29.498  23.285  0.0165  0.1768  0.2481
27804W        W70857  11.464  28.256   7.792  0.0884  0.1765  0.0748
27805W        W70858   4.258   6.141   9.934 -0.5217  0.4132 -0.1202
27806W        W70859  16.574   0.130  23.628  0.0498  0.0510 -0.2112
27807W        W70860   3.185  20.036  20.208 -0.1106  0.0337 -0.1481
27808W        W70861   0.819  14.170   4.769 -0.1128 -0.1091 -0.1582
27809W        W70862  14.812   9.301  25.344 -0.1092 -0.2028  0.0801
27810W        W70863  27.271   4.580   4.951 -0.0882  0.0230  0.0407
27811W        W70864   1.408  28.736  18.166 -0.0747  0.3527  0.0016
27812W        W70865   9.789  14.887  23.856  0.1768 -0.1533  0.1596
27813W        W70866  17.250  17.597  12.722  0.1524  0.1464  0.3262
27814W        W70867  33.128  18.667  21.797  0.1963  0.2605  0.2777
27815W        W70868  29.208   2.346  18.230  0.0841 -0.1088 -0.0830
27816W        W70869  31.458  18.177  15.645  0.0781  0.1837  0.0451
27817W        W70870   3.786  27.105  22.058 -0.4064  0.1618  0.1221
27818W        W70871  34.181  16.512  24.652 -0.1662 -0.5876 -0.1806
27819W        W70872  21.465   5.122   4.318 -0.3148 -0.0021  0.3704
27820W        W70873  12.935  15.629  17.464  0.0130  0.1361 -0.1606
27821W        W70874  30.642  23.483  14.086 -0.1064 -0.0524 -0.1370
27822W        W70875  10.158  18.312   6.570 -0.1622 -0.1240  0.0175
27823W        W70876  33.153  20.800  23.765 -0.2534  0.2309  0.0108
27824W        W70877  16.048  25.205  21.453  0.0937 -0.0736 -0.1141
27825W        W70878  32.802  18.245  22.394  0.0614  0.1970 -0.0748
27826W        W70879   4.172  23.292   2.012  0.0767  0.1062 -0.1536
27827W        W70880  17.165  26.696  25.337  0.5604 -0.2004 -0.2034
27828W        W70881  30.893  32.243  18.983  0.0978 -0.2556  0.0356
27829W        W70882   7.703   6.584  19.317 -0.1686  0.1318  0.0715
27830W        W70883   7.560  17.461   0.321  0.0558 -0.1792 -0.0173
27831W        W70884   4.157   8.422   3.805 -0.1771 -0.2111 -0.2036
27832W        W70885  33.591  27.897   5.918  0.0588 -0.1532 -0.3824
27833W        W70886   6.933  19.638   8.589  0.1996 -0.0826 -0.2815
27834W        W70887   8.242  33.744   5.074  0.1926  0.2388 -0.1421
27835W        W70888  12.031   8.363   1.971 -0.4035  0.1576  0.0301
27836W        W70889   9.212  12.254   0.566  0.0440 -0.3282  0.0154
27837W        W70890  10.328   7.055   3.055  0.1252 -0.2885 -0.0236
27838W        W70891   9.714  14.224  24.459 -0.3844 -0.1006 -0.0592
27839W        W70892  17.680  26.743  25.564  0.0762 -0.2525  0.0683
27840W        W70893   1.387  22.559   5.112 -0.1676  0.1272  0.2412
27841W        W70894   3.119  26.718  24.604 -0.2489 -0.1955  0.2056
27842W        W70895   9.781  17.402  26.269 -0.4394 -0.2260 -0.1468
27843W        W70896  21.976   8.212  23.109  0.4176  0.2719 -0.0561
27844W        W70897  12.357  19.554  19.848  0.1114  0.4057  0.1660
27845W        W70898  12.634   6.157   1.867  0.1085  0.1811 -0.0907
27846W        W70899  13.012   1.330  20.052 -0.1545  0.1235  0.0056
27847W        W70900  12.290   9.707   3.724 -0.0166 -0.2412 -0.0534
27848W        W70901  28.258   9.474  27.343  0.0577  0.2556  0.0171
27849W        W70902   7.743   3.629   5.967  0.0635  0.2018  0.3864
27850W        W70903   4.418  11.378  28.398 -0.0904  0.1291  0.1056
27851W        W70904  10.696  13.835  16.890  0.0004 -0.0927  0.0125
27852W        W70905  24.569  19.156   1.789  0.0417  0.1905  0.0761
27853W        W70906   2.900  27.312  27.267 -0.0285 -0.0139  0.1604
27854W        W70907  13.994  10.147   2.863  0.1146 -0.1399  0.2200
27855W        W70908   3.293  24.175   4.432  0.2406 -0.1836 -0.0115
27856W        W70909   0.234  15.447   7.330 -0.1010  0.4252  0.1765
27857W        W70910  33.526  10.891   5.494 -0.1447 -0.0279 -0.0039
27858W        W70911  20.901   9.634  21.997  0.3089 -0.0405  0.3600
27859W        W70912   5.372  13.514   0.216 -0.0176  0.2503  0.0164
27860W        W70913   6.348  17.453  22.918  0.1954 -0.0228 -0.0446
27861W        W70914   1.303  11.920   2.179 -0.0149 -0.0123 -0.1038
27862W        W70915   1.409   1.707  28.454 -0.0986 -0.1610  0.1797
27863W        W70916  21.978  10.728   5.360 -0.3119  0.1880 -0.0679
27864W        W70917  10.339  13.278  29.003 -0.0557  0.0017  0.2692
27865W        W70918  28.170  13.911   4.797 -0.4065  0.0962 -0.1874
27866W        W70919  11.072   1.233   8.754  0.2310  0.0240 -0.2092
27867W        W70920  14.580   7.960  23.056  0.0496  0.1218 -0.3560
27868W        W70921  27.218  14.383  27.287 -0.0373 -0.0061 -0.1333
27869W        W70922   6.373   5.409   9.743  0.0407  0.6431  0.2144
27870W        W70923  17.235  17.475   0.015  0.0984 -0.1577 -0.2292
27871W        W70924  23.984   6.541  18.069 -0.2257 -0.0545  0.2612
27872W        W70925   6.693  24.984   4.035  0.2436  0.1806  0.0400
27873W        W70926  31.801  15.611  26.936  0.0847  0.2840  0.1233
27874W        W70927  18.767  16.156   4.094 -0.5361  0.1433  0.0979
27875W        W70928  20.960  10.178  25.969  0.1386 -0.0173 -0.2125
27876W        W70929   3.362  13.856   6.935 -0.0859  0.1107 -0.0419
27877W        W70930  15.892  23.702   7.019 -0.1494  0.0526  0.0323
27878W        W70931  15.332  25.690   5.665 -0.0718 -0.1511 -0.0602
27879W        W70932  20.915  25.142  25.936 -0.3366  0.0380 -0.2675
27880W        W70933   3.785  19.690   7.740  0.0417  0.1760  0.3026
27881W        W70934   4.102   5.408  25.645  0.3723 -0.1916  0.0674
27882W        W70935   2.099  23.461  21.323 -0.0046  0.1295  0.1720
27883W        W70936   1.262  12.833   0.428  0.0398  0.2009  0.2550
27884W        W70937  33.820   6.842   5.183  0.0985 -0.0504 -0.0889
27885W        W70938   7.554  24.430   7.645 -0.1166 -0.0466 -0.0238
27886W        W70939  33.894  34.630  21.145  0.0153  0.1619 -0.1697
27887W        W70940   1.212  16.067   5.967 -0.3768 -0.0164 -0.0508
27888W        W70941  25.315  31.165   9.731  0.2513 -0.0880  0.0214
27889W        W70942  33.631  11.216  20.914  0.1675  0.0177 -0.0006
27890W        W70943   8.128  34.387   4.514  0.0891 -0.3856 -0.2575
27891W        W70944   4.192   5.491  14.771 -0.0404 -0.1077  0.0369
27892W        W70945   1.423  26.149   3.498 -0.0977  0.2642 -0.0246
27893W        W70946   4.610  11.903  28.552  0.0473  0.0405 -0.1971
27894W        W70947   2.472   7.311   6.272  0.0972 -0.1362  0.2670
27895W        W70948  14.598  20.787  28.573  0.1473 -0.0100  0.2689
27896W        W70949  28.729  12.199  16.479 -0.1399  0.3250 -0.0364
27897W        W70950  10.737  14.685  18.140  0.1006 -0.0195 -0.2031
27898W        W70951   4.206  18.353  22.634  0.1016 -0.1778 -0.0842
27899W        W70952   1.946   5.254   8.669 -0.0911  0.0956 -0.0765
27900W        W70953  26.267  23.131  21.039 -0.1009  0.2075  0.4126
27901W        W70954  33.228  24.238  15.644 -0.2049 -0.0458 -0.0465
27902W        W70955  27.231  15.638  23.084 -0.1275 -0.0370  0.1087
27903W        W70956  33.471  23.541   5.072  0.1736 -0.2535 -0.0464
27904W        W70957  22.461  15.442  25.793  0.0312  0.0800 -0.2062
27905W        W70958  33.200  21.547  23.126 -0.0037  0.0500  0.1357
27906W        W70959  11.646  16.223  22.457 -0.1225  0.0069 -0.2553
27907W        W70960  33.543  12.676  24.972  0.0655 -0.3170  0.4465
27908W        W70961  30.232   0.698  22.797  0.3996  0.0848 -0.0116
27909W        W70962  11.656  14.080  24.774 -0.2092 -0.0507  0.0854
27910W        W70963  27.221  18.047   7.785  0.0606 -0.0092 -0.0696
27911W        W70964  24.372  10.012  20.627 -0.2094 -0.2493  0.0159
27912W        W70965   6.408   1.864  16.085  0.1267  0.1001  0.0372
27913W        W70966  12.758  22.837  28.335  0.1731  0.3430  0.1299
27914W        W70967  24.801  33.812   1.032 -0.0770  0.2478 -0.0444
27915W        W70968  34.126   7.550   7.933 -0.2495 -0.3443  0.0208
27916W        W70969  33.787  17.913  28.726 -0.3084 -0.1664 -0.1011
27917W        W70970  34.267  11.868   4.048 -0.0914  0.1454  0.2531
27918W        W70971   7.993  27.871  14.125 -0.0391 -0.3542 -0.0060
27919W        W70972  30.852  23.996  28.967 -0.0961  0.4906  0.0318
27920W        W70973   6.768  15.361  22.641  0.2611  0.1384  0.2511
27921W        W70974   9.133  19.419   0.233  0.0235  0.1430  0.0092
27922W        W70975   4.860  23.409   9.495 -0.0824 -0.0646 -0.3688
27923W        W70976  13.246  25.815   3.722  0.0042 -0.3325  0.2394
27924W        W70977   2.187  17.101  28.576  0.3528 -0.1015  0.0581
27925W        W70978  13.183  15.177  25.644 -0.1187  0.0533  0.3388
27926W        W70979   4.308  26.379  17.538 -0.1706  0.1175  0.0395
27927W        W70980   2.366  11.052   2.315  0.1903  0.0197 -0.2269
27928W        W70981   7.822  10.438   8.117 -0.2029 -0.3761  0.1393
27929W        W70982  14.438  18.425  24.556  0.1572  0.1907  0.1495
27930W        W70983   2.815   3.068   8.913 -0.0546 -0.0289 -0.1956
27931W        W70984  12.201  16.151  25.003 -0.0404 -0.0004 -0.1309
27932W        W70985  15.488   3.853   2.217  0.3387  0.0478 -0.1316
27933W        W70986  17.032  15.899   1.822 -0.2333  0.5312 -0.0617
27934W        W70987  18.609   8.342   2.143  0.3233 -0.0025  0.1253
27935W        W70988   4.886  16.166  18.345  0.0775 -0.0997 -0.0510
27936W        W70989  11.317  22.635  26.502 -0.1768  0.0910 -0.0923
27937W        W70990  16.816  13.152  16.415  0.5483 -0.2424 -0.0574
27938W        W70991  16.122  30.228   2.292 -0.3558 -0.2287  0.3839
27939W        W70992   8.438   2.022   5.843 -0.1463 -0.3495  0.1102
27940W        W70993   2.041  10.737   1.898  0.2873 -0.0520  0.2121
27941W        W70994  29.519  25.263   9.427  0.0745  0.2481 -0.4764
27942W        W70995  22.661   8.286  16.082 -0.2750 -0.0018 -0.0806
27943W        W70996   5.107  18.693  22.804 -0.1317 -0.2721 -0.2256
27944W        W70997  30.996  16.334  15.967 -0.0222  0.3443  0.0975
27945W        W70998   7.831  10.245   9.955  0.2408  0.0424 -0.1966
27946W        W70999  14.772  24.654   3.257  0.1209 -0.2258  0.0046
27947W        W71000  13.298   7.272   2.899 -0.2102 -0.3532 -0.0215
27948W        W71001  29.668  14.503  22.438 -0.0385  0.1481 -0.3904
27949W        W71002  30.781  16.340   9.085  0.1124 -0.1473 -0.1147
27950W        W71003   8.215  28.668  27.741  0.2966 -0.0319  0.1218
27951W        W71004   3.732  14.451  19.123 -0.1226 -0.0305 -0.0822
27952W        W71005  11.228   2.553  21.537 -0.2152  0.0207 -0.1071
27953W        W71006  34.075  29.266  16.873  0.0043  0.2144 -0.2577
27954W        W71007  13.787  17.595  24.136  0.0020 -0.4518  0.0753
27955W        W71008  17.987  20.386   6.462  0.1702 -0.0700  0.0130
27956W        W71009   1.226  27.097  16.878 -0.2803  0.1710  0.3601
27957W        W71010   9.276  24.791  24.114 -0.3567 -0.1026 -0.1491
27958W        W71011  12.802  13.294  24.687 -0.5185  0.1713  0.0734
27959W        W71012  17.893   3.323  16.844 -0.1124 -0.0742 -0.2414
27960W        W71013  14.647   7.244  21.715 -0.4247 -0.0397  0.2064
27961W        W71014   4.362  31.425  17.897 -0.1667  0.3035 -0.0570
27962W        W71015  22.221   6.939  20.812 -0.1989  0.4715 -0.1274
27963W        W71016  27.929  33.904  19.381 -0.1106 -0.2404 -0.1847
27964W        W71017  34.549  28.044   0.956 -0.1114  0.0882  0.0878
27965W        W71018  13.851  26.771  14.150  0.0034 -0.0146  0.2830
27966W        W71019  14.984   7.835  21.009  0.0477  0.1723  0.0977
27967W        W71020   8.670  32.957   8.173  0.0220  0.1565  0.0461
27968W        W71021  24.291  29.453  22.737 -0.1960 -0.2535 -0.0753
27969W        W71022   2.821  24.551  20.097 -0.1931  0.0336 -0.1895
27970W        W71023  16.279  16.718  27.413  0.0152 -0.1649  0.0408
27971W        W71024  13.217  10.400  16.725 -0.2829  0.0191  0.2626
27972W        W71025   2.036  25.170   5.885 -0.0634  0.0325  0.2645
27973W        W71026  33.190  20.624   7.406 -0.1991  0.0305 -0.2245
27974W        W71027  31.905  29.136  15.986 -0.0319  0.1238  0.2206
27975W        W71028  27.813  24.778  22.227 -0.1448 -0.1520  0.0691
27976W        W71029  31.945  26.531  22.526 -0.0542  0.1011 -0.1896
27977W        W71030   5.087  32.331  18.357  0.3567 -0.0489  0.0889
27978W        W71031  30.253  25.649  24.385  0.0379  0.2903 -0.1808
27979W        W71032   1.992  17.263  15.844  0.1190 -0.2587 -0.0607
27980W        W71033  22.628   6.016   8.910 -0.1698 -0.0921 -0.1674
27981W        W71034  33.971  22.030   1.806  0.0692 -0.0228 -0.1379
27982W        W71035   6.587  33.430   4.421 -0.4601 -0.1341 -0.0043
27983W        W71036   0.419  13.374  23.391 -0.2316  0.0581 -0.2848
27984W        W71037  10.178  10.272  19.455  0.2889 -0.0230 -0.1557
27985W        W71038   3.663  22.399  28.002  0.4054 -0.0673  0.1318
27986W        W71039   6.204   4.336   8.910  0.0158  0.1352 -0.1196
27987W        W71040  25.503  32.426  20.105  0.1465  0.0701  0.0948
27988W        W71041   8.414  27.574   4.422  0.1564  0.1724 -0.1864
27989W        W71042  15.783   5.259  23.065  0.1923  0.2599  0.0744
27990W        W71043  17.566  34.168  27.740 -0.1582  0.1574 -0.3333
27991W        W71044  31.842  17.124   0.173  0.3437 -0.1206 -0.1797
27992W        W71045   6.673   0.142  23.018  0.1763  0.2561 -0.0276
27993W        W71046  30.246  16.304   1.564  0.0726 -0.1732  0.0269
27994W        W71047  26.986   3.981  15.370 -0.0615  0.1696 -0.0446
27995W        W71048  32.388  11.732  28.785  0.2195  0.1273 -0.2573
27996W        W71049  22.635  30.142  16.417  0.1957  0.3354 -0.2077
27997W        W71050  10.088  12.614  20.373  0.2718  0.1012  0.4030
27998W        W71051   2.052   6.684   4.425  0.0239  0.4073 -0.0676
27999W        W71052   9.114   7.075  21.215 -0.3381 -0.0723 -0.2155
28000W        W71053   9.543  22.316  18.946 -0.1291  0.1786 -0.1130
28001W        W71054  19.233  26.183   1.543  0.1960 -0.1447 -0.3594
28002W        W71055   7.112  26.778   4.815 -0.3103 -0.0156  0.1913
28003W        W71056   2.104  18.749  18.580  0.0228 -0.2681  0.3515
28004W        W71057  21.194  17.800  27.511  0.4095  0.4570 -0.1764
28005W        W71058   8.441  20.395  18.451 -0.2991 -0.0468  0.0688
28006W        W71059   1.714  21.394   3.248  0.2270 -0.0207 -0.0544
28007W        W71060  23.868  12.797  25.029  0.1358  0.1890 -0.1312
28008W        W71061  27.771   5.281   5.222  0.0277  0.2860 -0.0340
28009W        W71062  31.366  11.778   2.469 -0.0917 -0.1036 -0.1310
28010W        W71063  19.760   3.165  27.250  0.0690  0.1536 -0.1246
28011W        W71064  29.234  30.501  25.190  0.0792 -0.2964 -0.0508
28012W        W71065  12.222  14.824  21.071  0.1581 -0.3951 -0.3091
28013W        W71066  11.916  13.808  24.430  0.0294  0.1208  0.1228
28014W        W71067  33.771  16.485   4.926  0.0727 -0.0785 -0.0888
28015W        W71068  24.711   7.743   3.880  0.1532 -0.1429  0.0781
28016W        W71069   4.759  11.989  16.546 -0.2265 -0.3054 -0.2583
28017W        W71070   7.480   9.196  17.180  0.1671  0.0017  0.0604
28018W        W71071  11.290  19.173  26.978  0.3853  0.2129  0.1854
28019W        W71072  12.268  10.612   0.617 -0.3086  0.1619  0.0744
28020W        W71073  32.120   9.756  16.920  0.1862  0.2196  0.0287
28021W        W71074  11.521  24.591  21.015  0.0420 -0.0187  0.1862
28022W        W71075   9.766  24.775   3.506 -0.2137 -0.2541 -0.2871
28023W        W71076   8.624  23.872  16.761 -0.3913 -0.1631 -0.3508
28024W        W71077  20.772  26.882  19.035 -0.0270  0.2140  0.0129
28025W        W71078   1.696   4.980  27.949 -0.3299  0.2569 -0.2935
28026W        W71079  16.485  15.887  13.751  0.1946  0.1225  0.2536
28027W        W71080   2.293  22.189  20.698  0.1440 -0.0092 -0.2161
28028W        W71081  24.053   3.507  28.294  0.1026 -0.5205  0.2355
28029W        W71082  22.963  17.172  20.010 -0.2564 -0.0270 -0.2100
28030W        W71083   7.712  34.011   9.893  0.1211  0.1513  0.2777
28031W        W71084  12.303  23.326  24.373 -0.0655 -0.0068 -0.1842
28032W        W71085  26.557  30.046  25.400 -0.0290 -0.0724 -0.3310
28033W        W71086  17.257   0.502   4.890 -0.2251 -0.0257 -0.0467
28034W        W71087  10.734  32.110   6.281  0.3812 -0.0561  0.2420
28035W        W71088  32.985   8.702   1.100  0.0434  0.3840 -0.1522
28036W        W71089  31.067  12.670  25.192 -0.0487 -0.1379  0.0040
28037W        W71090  12.108  19.926   9.087 -0.2954 -0.0753 -0.0239
28038W        W71091  16.891   9.193  17.241 -0.0821 -0.0590 -0.1745
28039W        W71092  26.053  16.518  21.990  0.1084 -0.5004 -0.1017
28040W        W71093   9.020  25.053  17.904  0.1934  0.2560 -0.1664
28041W        W71094  11.846  22.452  20.588 -0.1798  0.0553  0.1774
28042W        W71095   9.548   6.653  16.483  0.2407 -0.1855 -0.3712
28043W        W71096   2.786  15.966   9.954 -0.1103  0.3738 -0.3353
28044W        W71097   3.645   0.311  14.913 -0.0751 -0.2794 -0.1095
28045W        W71098  11.584  25.154  27.870  0.1536  0.1679 -0.1325
28046W        W71099  11.620  31.149  27.242  0.1040  0.0231  0.0296
28047W        W71100  23.482   6.565  15.826  0.3930 -0.0961  0.0629
28048W        W71101   7.267   0.999   0.548 -0.0743 -0.2154 -0.0468
28049W        W71102   3.111  11.182   8.239  0.1075  0.1262 -0.1714
28050W        W71103   4.095   9.805  16.420  0.4372 -0.3661  0.1562
28051W        W71104   0.119  14.838   9.963 -0.3530 -0.2436  0.1820
28052W        W71105   1.899  13.484  26.503  0.2251 -0.0221  0.1758
28053W        W71106  14.539  24.426  20.661  0.1400 -0.2379  0.2772
28054W        W71107   9.185  15.664   4.021  0.2104 -0.0080  0.0059
28055W        W71108  26.904  27.649  17.624  0.3909  0.2702 -0.1059
28056W        W71109   5.196  15.903   9.751  0.2128 -0.2307 -0.1415
28057W        W71110  12.603  27.986  23.852  0.1808  0.2661  0.1875
28058W        W71111   2.449  17.286  26.531  0.2649 -0.2329 -0.2918
28059W        W71112   1.444  22.707  18.120  0.2335  0.0875  0.0019
28060W        W71113   1.520  18.684  22.850 -0.0781 -0.0312  0.1786
28061W        W71114   5.419   0.876  20.250 -0.1882  0.1465 -0.0508
28062W        W71115  34.167  16.209  23.718 -0.3057  0.1150 -0.1197
28063W        W71116  10.724  24.000  28.328  0.0997 -0.1069 -0.2245
28064W        W71117   7.174  17.039   4.499 -0.1248 -0.0119  0.2339
28065W        W71118   3.960  23.636  23.312  0.1131 -0.0070 -0.2736
28066W        W71119   0.436  17.585  28.054  0.0779  0.0375  0.5968
28067W        W71120   0.889  16.635   4.961 -0.1230 -0.0462 -0.1178
28068W        W71121   2.116  11.789  23.355  0.1539  0.3157 -0.0929
28069W        W71122   5.175  21.346  20.913  0.1772 -0.0679  0.1722
28070W        W71123  12.476   2.566  19.311 -0.0036  0.1082 -0.2972
28071W        W71124  17.432  15.354   2.420 -0.1304 -0.1384  0.0417
28072W        W71125  13.159  15.844   8.647 -0.1571  0.0181  0.0533
28073W        W71126  14.691  20.564  29.109  0.0858  0.3479  0.0201
28074W        W71127  12.550  10.618  26.884  0.3263 -0.2490 -0.3392
28075W        W71128   0.257  14.775  26.005 -0.0360  0.0238  0.3825
28076W        W71129  33.691   9.240   4.411 -0.0976  0.0556 -0.1822
28077W        W71130  17.307  11.532  27.863  0.2556 -0.0390 -0.2993
28078W        W71131  10.013  21.846   8.291  0.0250  0.1289  0.0171
28079W        W71132  29.578   8.714  28.990 -0.0809  0.0626 -0.0051
28080W        W71133   6.102  21.971  24.537  0.0392 -0.2129 -0.2251
28081W        W71134   8.349  11.261   1.113  0.0080 -0.2636 -0.1325
28082W        W71135  15.761  19.736   2.282 -0.1028 -0.0994 -0.0204
28083W        W71136   5.003  21.102  21.607 -0.3794  0.0117  0.1206
28084W        W71137  32.903  28.228  18.493 -0.0308  0.0865  0.2279
28085W        W71138  15.729   7.855   5.740 -0.1227 -0.2309 -0.2516
28086W        W71139   6.692  19.903   4.585 -0.0873  0.0351  0.3313
28087W        W71140  21.561  16.468  27.008 -0.0136  0.0235  0.0390
28088W        W71141  33.456  21.713  21.344 -0.0665  0.1795  0.1139
28089W        W71142   0.887   4.920  25.516 -0.1806 -0.1958 -0.1026
28090W        W71143  11.092  18.892  23.105 -0.0860 -0.1982  0.0503
28091W        W71144   8.574   8.150   3.444  0.0356 -0.1835  0.0499
28092W        W71145   8.715  25.056  22.761  0.0548  0.1610  0.2014
28093W        W71146  13.844  22.643  22.051 -0.0173  0.2472 -0.0312
28094W        W71147   4.897  12.024   0.961  0.0248  0.1284 -0.1773
28095W        W71148   9.331  17.477  23.542  0.0329  0.1730 -0.1216
28096W        W71149   0.670  30.448  23.395 -0.0319 -0.2897  0.1179
28097W        W71150  33.197  19.290  14.122  0.2414  0.2600  0.0874
28098W        W71151  23.236  32.864  22.645  0.0141 -0.0730 -0.4140
28099W        W71152   6.189   1.836  16.585 -0.2480 -0.0624 -0.2380
28100W        W71153   1.912   9.310   9.889  0.0482 -0.1367 -0.1316
28101W        W71154  30.550  12.017   7.590  0.0472  0.0274  0.1703
28102W        W71155   9.589  15.295   8.365  0.1639  0.1349 -0.3235
28103W        W71156  25.422   2.067  23.665  0.0585 -0.0285 -0.2758
28104W        W71157  26.837  16.205  24.994  0.0810  0.1243  0.1946
28105W        W71158  34.639  14.788  24.750 -0.1789 -0.0287  0.1677
28106W        W71159  12.804  30.120  25.321  0.1707 -0.0348 -0.3410
28107W        W71160   5.979  24.209   4.164  0.1264  0.0247  0.2212
28108W        W71161  19.145   4.638  18.922  0.0747 -0.2155 -0.2249
28109W        W71162  19.264  14.682  28.602  0.0192  0.0881  0.0575
28110W        W71163   9.732  32.780   4.118  0.0085  0.0025  0.0978
28111W        W71164  20.804  29.872  14.105  0.0939  0.0787 -0.0276
28112W        W71165   7.871  29.029  22.829  0.1760  0.3179  0.0978
28113W        W71166   2.202  20.091  26.052  0.2629 -0.0172 -0.0425
28114W        W71167   6.345  29.789  17.493 -0.1716  0.3640 -0.2061
28115W        W71168  17.366  28.925  20.345  0.2846 -0.0276  0.0703
28116W        W71169   1.686  32.596   3.906 -0.2435  0.0063 -0.1830
28117W        W71170   8.349  32.343   3.036 -0.0043 -0.1118  0.1415
28118W        W71171  29.457  13.150  29.015  0.0412 -0.2680  0.0288
28119W        W71172  34.177  15.975  28.227  0.1354 -0.1918 -0.2928
28120W        W71173  33.572  12.413  28.034  0.0012 -0.4022  0.0258
28121W        W71174  34.158  34.673   4.826 -0.0772 -0.1048 -0.0807
28122W        W71175  10.870  23.930   6.204 -0.1743 -0.0157  0.2533
28123W        W71176   2.730  10.573   9.375 -0.1183 -0.0842  0.2238
28124W        W71177  29.311   7.198   9.708 -0.2145 -0.2958  0.0985
28125W        W71178   6.914  29.509  20.612 -0.1855  0.0959  0.2057
28126W        W71179   1.325   7.372   8.553 -0.1667 -0.2461 -0.0719
28127W        W71180  12.844  33.431  15.881  0.3584  0.0615  0.0705
28128W        W71181  19.881   9.188  19.280 -0.1063  0.1838  0.1040
28129W        W71182  26.430  20.369  26.263 -0.0127  0.1045 -0.0004
28130W        W71183   8.737  33.413   0.067  0.2630 -0.1607  0.0459
28131W        W71184  28.389   6.381  27.293 -0.1614  0.0721  0.2577
28132W        W71185  14.440   2.426   0.789 -0.2920  0.2753 -0.1600
28133W        W71186  32.801   9.763   8.811  0.1359  0.0997  0.0171
28134W        W71187   4.728  19.615   8.068 -0.1145 -0.0132  0.0714
28135W        W71188  11.835  29.525  18.592 -0.3540 -0.3251  0.0492
28136W        W71189   5.781  32.022  25.190 -0.4388  0.3148  0.0085
28137W        W71190  30.200   5.923  15.981  0.2571 -0.0016  0.0477
28138W        W71191   6.942  13.043  16.962 -0.1147 -0.6429  0.2309
28139W        W71192   3.802   1.645   5.700 -0.2556  0.1833  0.0011
28140W        W71193  27.411  18.746   8.512 -0.3140 -0.0350 -0.0761
28141W        W71194  30.217  22.981  22.144 -0.1066  0.0688 -0.1699
28142W        W71195  33.188  21.392  19.009 -0.0575  0.1054  0.0408
28143W        W71196  29.876  13.049   0.487  0.2210  0.3407  0.0002
28144W        W71197  26.561  15.567  21.380 -0.1849  0.1195  0.0067
28145W        W71198  24.581   8.888   1.504  0.0513 -0.1515  0.0784
28146W        W71199  16.868  18.289   5.438 -0.1175  0.0062 -0.0074
28147W        W71200  26.504  15.703   2.847 -0.0083 -0.0285  0.0261
28148W        W71201   7.781  26.979  17.877 -0.0360  0.0330 -0.0255
28149W        W71202  12.430  13.218   8.144  0.1497 -0.0990  0.4381
28150W        W71203   9.579  12.771   4.238 -0.0850 -0.1611  0.2555
28151W        W71204  30.784  10.041  23.167 -0.0611  0.0215 -0.1792
28152W        W71205   5.974  19.117  26.357 -0.1686 -0.2138  0.1403
28153W        W71206   8.436  25.696  24.809 -0.4595  0.0217 -0.0069
28154W        W71207  34.129   2.457  24.696 -0.2142  0.0961  0.1636
28155W        W71208  21.206   7.523  27.206 -0.2054  0.0487  0.0942
28156W        W71209  33.156  12.113   4.985  0.0805 -0.0812 -0.1316
28157W        W71210   4.304  33.325  28.119  0.0950 -0.0029 -0.2258
28158W        W71211   4.081   9.281   9.406  0.2609 -0.0695 -0.0730
28159W        W71212  21.970   7.813  16.860  0.0600 -0.2659 -0.0265
28160W        W71213   8.077  15.965   2.364  0.2670 -0.0647  0.5089
28161W        W71214  12.618   7.263   5.727 -0.1685 -0.1818  0.0315
28162W        W71215   3.811  14.632   0.091 -0.0351  0.0275  0.0790
28163W        W71216  12.080   4.200  17.322  0.1953  0.1692 -0.2514
28164W        W71217  30.521  22.503   7.582  0.2746  0.4918  0.1810
28165W        W71218   7.500  10.543  21.362  0.0094 -0.1292  0.0582
28166W        W71219   6.428  12.887  26.172  0.1482  0.1604  0.0114
28167W        W71220  29.165   2.681  29.077 -0.0608  0.1334 -0.0797
28168W        W71221  16.869  24.180  15.776  0.0443  0.1957 -0.3243
28169W        W71222  32.260  17.149  27.004 -0.1260 -0.1050 -0.0152
28170W        W71223  10.245  33.951   4.298 -0.1303 -0.1118 -0.0165
28171W        W71224  14.002  11.295  22.562 -0.0367 -0.3029 -0.0598
28172W        W71225  29.430   9.442   2.073  0.4475 -0.1871  0.1235
28173W        W71226   1.962  32.674  28.125  0.3288  0.1680 -0.0762
28174W        W71227  13.683   7.650  15.186 -0.0030  0.1768 -0.5397
28175W        W71228  27.154  19.855   0.409  0.0167 -0.0905 -0.1020
28176W        W71229  18.934  10.064   7.052  0.0988 -0.3575  0.0513
28177W        W71230  15.601  31.454   7.524 -0.0232 -0.0016  0.0684
28178W        W71231  10.869  32.633  29.127 -0.0677  0.0292 -0.0193
28179W        W71232  18.020  14.181  22.465  0.0927 -0.3027  0.2262
28180W        W71233   1.496  11.305   8.788 -0.3654 -0.1052  0.0606
28181W        W71234   2.279  18.165  13.884  0.1629  0.1284  0.0475
28182W        W71235  11.682  19.428   2.420 -0.0987 -0.0388  0.1208
28183W        W71236  23.361  12.234   1.019  0.4176  0.4075 -0.0459
28184W        W71237   0.243  20.210  27.726 -0.1944  0.3450  0.0357
28185W        W71238  24.991   9.456   7.637  0.0195 -0.1189  0.1434
28186W        W71239  26.443   0.879  24.662 -0.0475 -0.0044 -0.4495
28187W        W71240  24.219   7.748   9.325  0.1351  0.1846 -0.2186
28188W        W71241  26.093  11.780  21.357 -0.2269 -0.1531 -0.1780
28189W        W71242   4.043  10.934   6.870 -0.2205 -0.0961  0.2992
28190W        W71243  28.915  18.728   2.373 -0.0835  0.2769 -0.2809
28191W        W71244   8.392  28.291   0.202 -0.1311  0.0626  0.1071
28192W        W71245  12.791  23.695  22.896 -0.1648  0.0368 -0.2070
28193W        W71246   5.425  19.341  25.410  0.0699 -0.0109 -0.0040
28194W        W71247  26.345  17.129   8.104  0.1105  0.0992 -0.0559
28195W        W71248  31.112   5.735  20.103 -0.0689 -0.0128  0.4920
28196W        W71249  12.934   8.257  19.427 -0.0327  0.0355 -0.1990
28197W        W71250   7.714  26.124   3.375 -0.0969 -0.4048 -0.0318
28198W        W71251   4.993  15.446   0.686  0.0080  0.0406  0.0808
28199W        W71252  28.514  34.511   6.572  0.1827 -0.2525  0.0486
28200W        W71253  15.747  29.033   6.044 -0.1289 -0.3290 -0.0410
28201W        W71254   7.399  20.528   9.325  0.0859  0.1222 -0.1886
28202W        W71255  11.527   0.287  15.079 -0.0662 -0.1959  0.0074
28203W        W71256   3.910   2.781   2.419  0.0693  0.2664 -0.1160
28204W        W71257  20.086  26.348  24.007 -0.0557  0.1417  0.1198
28205W        W71258  32.498  23.628   6.571  0.4006 -0.2822  0.0817
28206W        W71259  29.227  10.989  25.680  0.1660  0.1715  0.2266
28207W        W71260   5.850  28.815  24.778  0.0175  0.3387 -0.1806
28208W        W71261  14.499  17.096   0.363 -0.5008  0.0915 -0.0051
28209W        W71262  31.806  17.054   7.580 -0.3981  0.0025  0.0380
28210W        W71263  34.434  23.487  16.778 -0.2709  0.2684  0.1846
28211W        W71264  11.642   6.741  27.464  0.1839 -0.2231 -0.1942
28212W        W71265  25.939   5.902  25.781  0.1828  0.0609 -0.1092
28213W        W71266  26.079   3.851   1.468  0.1855 -0.1349  0.0981
28214W        W71267   3.850   3.869   7.449 -0.0761 -0.1933 -0.2898
28215W        W71268   9.732  27.979   0.696 -0.4185 -0.1435 -0.0430
28216W        W71269   0.042  24.433  24.051  0.0789  0.0430  0.3879
28217W        W71270   8.822  32.489  16.396  0.2371 -0.0776  0.0102
28218W        W71271  15.121   3.586  19.151  0.1088  0.1363  0.0625
28219W        W71272  30.186  12.198  21.846  0.1263 -0.2968  0.2924
28220W        W71273   6.408  25.730  16.775 -0.0566  0.4596  0.2046
28221W        W71274   8.471  25.825  16.411  0.1675 -0.2100  0.1599
28222W        W71275  31.766  19.996  17.110  0.1856 -0.0379 -0.1742
28223W        W71276  14.716  22.566  19.306 -0.0093  0.2099 -0.2643
28224W        W71277  14.578  29.219  22.939 -0.3130  0.1545  0.3319
28225W        W71278   0.270  34.544  18.261 -0.1811  0.1237 -0.4642
28226W        W71279  34.102  13.399  16.206  0.2172  0.1324 -0.2720
28227W        W71280   2.108  27.996  28.985 -0.1815 -0.2534  0.2775
28228W        W71281   0.956  30.562  14.800  0.1814 -0.0247 -0.3532
28229W        W71282   8.920   9.950   3.361  0.1887  0.3323 -0.1672
28230W        W71283  18.930   3.967   7.668  0.0374 -0.1166  0.2121
28231W        W71284  21.078  13.064  14.345  0.1653 -0.2071  0.1159
28232W        W71285   8.747  33.390  25.284 -0.2068  0.0258 -0.0315
28233W        W71286  15.819  33.648   2.413 -0.1110  0.0846 -0.2088
28234W        W71287   4.434   2.050  18.022  0.1264 -0.1592 -0.0553
28235W        W71288  14.292  30.606  19.617  0.0697  0.2560 -0.1500
28236W        W71289   4.264  30.721  14.956  0.2092  0.3257 -0.4370
28237W        W71290   2.461  10.311  21.791  0.1727  0.0005  0.0608
28238W        W71291   3.782  16.376  20.520  0.0311  0.0009  0.0581
28239W        W71292   0.212  26.374  15.460 -0.2943  0.0060 -0.1312
28240W        W71293   3.822  15.317  18.934  0.1619 -0.2424  0.0332
28241W        W71294   2.408   3.306  24.067 -0.1726  0.1043 -0.3474
28242W        W71295  30.602   3.294  21.099 -0.2404 -0.3102  0.0673
28243W        W71296   9.104  14.770  22.144 -0.0501 -0.1302  0.2459
28244W        W71297   7.593  22.497  18.946 -0.1176  0.2768 -0.0934
28245W        W71298  32.271  10.907  27.608 -0.0795  0.2600 -0.4387
28246W        W71299  15.348  12.108  21.318  0.3114  0.0677 -0.0179
28247W        W71300  26.545  30.273  16.447 -0.0635 -0.2597 -0.4248
28248W        W71301  20.326  34.100  13.743  0.2521 -0.0052 -0.0322
28249W        W71302   7.443   6.672  26.665  0.3156  0.0440  0.3353
28250W        W71303  24.705   5.958   0.761  0.0295  0.2630 -0.0438
28251W        W71304  19.382  11.115  17.693  0.0398  0.0936  0.0231
28252W        W71305  11.767  11.677  17.652 -0.3669 -0.1502  0.0826
28253W        W71306  33.754  25.950  16.347 -0.0848  0.2222  0.1239
28254W        W71307   0.378  17.436  22.767 -0.0164 -0.1115  0.2192
28255W        W71308  26.137  11.510  25.163 -0.1108 -0.2044  0.1424
28256W        W71309   5.230  33.584  16.514 -0.0005 -0.0846 -0.0613
28257W        W71310  31.623  13.571  14.702  0.1450 -0.2688 -0.3335
28258W        W71311  24.171   1.149  15.273  0.0791 -0.1197 -0.0173
28259W        W71312   8.973  22.965  14.568 -0.1541 -0.0765  0.1004
28260W        W71313   3.143  30.661  29.079 -0.1830 -0.0784  0.1176
28261W        W71314   9.820  33.037  19.313  0.2202 -0.2308 -0.2223
28262W        W71315  10.266  25.277   1.398  0.2200  0.0965 -0.0422
28263W        W71316   0.564  10.277  17.262  0.3373  0.1465 -0.0156
28264W        W71317   9.076  15.862  14.508 -0.0818  0.0509  0.0206
28265W        W71318  14.453  14.582  16.777  0.0018 -0.0519 -0.0170
28266W        W71319  28.644  22.478  25.681  0.0695 -0.0776 -0.3206
28267W        W71320  28.816  19.778  13.596  0.3052 -0.5046  0.1036
28268W        W71321  11.777   8.581   0.578 -0.1224 -0.0794 -0.0524
28269W        W71322  34.261  16.751  13.383  0.1730  0.1430 -0.0665
28270W        W71323  12.450  20.770  22.698 -0.0061  0.2360  0.0006
28271W        W71324   1.429  26.623  14.958 -0.0303  0.1599 -0.0135
28272W        W71325  13.640  11.788  21.020  0.1347  0.1006  0.0335
28273W        W71326  12.429  25.983  14.895 -0.0121 -0.2080  0.1003
28274W        W71327   5.797  22.387  17.771 -0.1153 -0.2286  0.3340
28275W        W71328  33.104  14.913  21.508 -0.0239 -0.5001 -0.0431
28276W        W71329   4.584  17.087  16.978  0.3201 -0.2641 -0.0991
28277W        W71330   5.843  18.779  22.015  0.0909  0.2248  0.0876
28278W        W71331  22.590  10.637  24.607  0.0099  0.0002 -0.0574
28279W        W71332  32.944  19.039  15.857 -0.2290  0.0408 -0.1577
28280W        W71333  19.984   4.242  19.375 -0.1987 -0.0986  0.4030
28281W        W71334   3.243  33.857  16.903 -0.0763  0.0657  0.0238
28282W        W71335  11.777  14.102  26.579 -0.2917  0.0018 -0.0013
28283W        W71336  14.736  13.218  16.445 -0.0656  0.0600 -0.0810
28284W        W71337   2.376  20.919  22.955 -0.3247  0.0724  0.0409
28285W        W71338  32.418  11.095  28.898  0.0212 -0.1605  0.0936
28286W        W71339  29.858  13.579  24.261 -0.0565  0.0457  0.1119
28287W        W71340   8.370   5.689  25.904 -0.2920  0.1363 -0.0486
28288W        W71341  34.012  12.964  14.563 -0.0226 -0.3995  0.1174
28289W        W71342  27.414   8.503  20.300  0.0731 -0.0700 -0.1421
28290W        W71343   6.955  11.027  15.804  0.1841  0.2331 -0.0011
28291W        W71344   0.566  19.215  20.577 -0.1000  0.0731 -0.0143
28292W        W71345  16.367  18.819  12.418 -0.3278  0.0728 -0.1091
28293W        W71346  17.318  14.380  14.139  0.0120 -0.1389 -0.3546
28294W        W71347  25.572  21.663  19.984  0.0418 -0.0239  0.0635
28295W        W71348   0.888  31.894  19.172 -0.1005 -0.1751 -0.2094
28296W        W71349  33.278  32.158  23.216  0.1482 -0.0186 -0.3549
28297W        W71350  32.345  22.241  14.792  0.0938  0.4087  0.2840
28298W        W71351   8.094  15.544  15.271  0.3034 -0.1270 -0.0152
28299W        W71352   4.470  21.454  15.828 -0.1539 -0.1827 -0.0115
28300W        W71353  14.817  12.675  17.731 -0.1347 -0.0871  0.0262
28301W        W71354  14.853  14.751  24.941  0.2772 -0.1286 -0.1502
28302W        W71355  26.737  21.248  20.694 -0.1519 -0.3251  0.3520
28303W        W71356   3.800   8.995  16.681 -0.1263  0.2830  0.0018
28304W        W71357   2.550   4.628   6.490 -0.0783  0.3904  0.1271
28305W        W71358  32.450  26.656  16.962  0.1036  0.2034 -0.2438
28306W        W71359  23.280  10.674  19.460  0.0361  0.2155 -0.2667
28307W        W71360  14.784  18.001  13.700  0.4438 -0.2463 -0.0571
28308W        W71361   3.820  25.180  16.163 -0.2690  0.0016 -0.0871
28309W        W71362   0.017   6.829  19.752  0.3330 -0.0418  0.0284
28310W        W71363   0.394   7.205  19.333 -0.1036  0.2683 -0.3078
28311W        W71364  18.178  22.843  18.802 -0.1998  0.4339 -0.0499
28312W        W71365   5.531  34.616  23.743 -0.0382  0.2611 -0.1252
28313W        W71366  24.945  16.455  18.031 -0.3304  0.1764 -0.3299
28314W        W71367  20.578  32.589  24.803  0.4344  0.6959 -0.0196
28315W        W71368   6.713  20.806  14.063  0.0170 -0.1977  0.2764
28316W        W71369  13.329  18.917  14.531  0.0025  0.0740 -0.0315
28317W        W71370  22.600   7.282  18.876  0.1006  0.2994  0.0563
28318W        W71371  32.532   3.875  19.583  0.1483  0.0537  0.0085
28319W        W71372  31.086  22.583  24.635  0.0783 -0.1699 -0.2969
28320W        W71373   7.032  24.551  20.845  0.0095 -0.0324 -0.1801
28321W        W71374  11.910  20.515  20.740 -0.0145  0.0495  0.1681
28322W        W71375   1.251  23.656  14.578  0.1942  0.0170 -0.1904
28323W        W71376   4.714  30.932  27.806  0.0565 -0.2331  0.0683
28324W        W71377   1.974  19.231  20.938 -0.1850 -0.0319 -0.1672
28325W        W71378  29.185  28.989  18.015  0.0867  0.1314  0.0153
28326W        W71379   7.297  21.044  18.005  0.0594  0.0666 -0.3467
28327W        W71380   8.974  22.931  28.913 -0.1052  0.0080 -0.1879
28328W        W71381  17.376  20.100   7.412 -0.0505 -0.3986 -0.1646
28329W        W71382  10.107  30.680  15.514  0.2796 -0.0971  0.0515
28330W        W71383  12.205   3.083  22.490  0.4837  0.1302 -0.0693
28331W        W71384   5.123  29.501  15.328 -0.0226  0.1062 -0.0905
28332W        W71385   4.796  17.470  18.665  0.1462 -0.0306  0.0147
28333W        W71386   4.571  24.590  15.223 -0.0817  0.2619  0.2464
28334W        W71387   9.691  18.137  22.926 -0.0984 -0.1282  0.1073
28335W        W71388  32.774  19.061  18.100  0.1236  0.0324 -0.1934
28336W        W71389   1.333  22.035   0.773  0.4558  0.0979 -0.1461
28337W        W71390  29.498  11.543  17.187 -0.2092  0.0719 -0.1678
28338W        W71391   1.926  17.768  15.879  0.0879  0.2690 -0.0916
28339W        W71392   8.529  15.686  17.742 -0.2253  0.1230  0.1217
28340W        W71393  32.742   9.692  17.753  0.1938 -0.1069  0.1612
28341W        W71394   7.430  11.019  19.574 -0.0082 -0.1037 -0.3404
28342W        W71395  10.406  17.822  28.007 -0.0914  0.1859  0.0251
28343W        W71396  13.655  15.014  15.928  0.0269  0.1931 -0.1422
28344W        W71397  34.187   7.447  21.016  0.1402 -0.0600 -0.0906
28345W        W71398   5.488  30.792  18.685  0.2265 -0.0748  0.0719
28346W        W71399  11.435  10.666  28.374 -0.0397 -0.0687  0.3979
28347W        W71400  11.179  24.226  24.959  0.3171 -0.1106 -0.3878
28348W        W71401   6.303  29.834  16.678  0.0105 -0.0188  0.0909
28349W        W71402   8.005  14.758  14.815  0.2636 -0.0778  0.0472
28350W        W71403  28.225   9.173  26.395  0.1490  0.1575  0.1727
28351W        W71404  24.109  15.898  22.485 -0.0767 -0.0401 -0.2799
28352W        W71405  29.237  26.093  28.014 -0.2250  0.3061 -0.2157
28353W        W71406  27.973  18.439  27.837  0.2333 -0.2043 -0.2090
28354W        W71407  25.396   9.003  19.395 -0.0625  0.1005  0.1597
28355W        W71408  15.627  11.271  21.343  0.0443  0.1304  0.3478
28356W        W71409  33.158  21.566  24.266 -0.0743 -0.1493  0.3920
28357W        W71410   3.505  18.964  14.693 -0.1447  0.1718  0.2118
28358W        W71411   4.521  12.236  15.608 -0.1177  0.1231  0.3510
28359W        W71412  29.884  21.330  17.613  0.1371  0.0016  0.1440
28360W        W71413   8.311  14.010  18.951  0.1876  0.2063 -0.0095
28361W        W71414  16.417  20.713   9.149  0.0462  0.0657 -0.1434
28362W        W71415   7.091   1.085  27.020  0.0213  0.1212 -0.2010
28363W        W71416   0.981  14.379  27.560 -0.0701 -0.4100  0.0583
28364W        W71417  33.566  21.332  13.684 -0.1753  0.4268 -0.0135
28365W        W71418   7.945   9.438  17.813 -0.1336 -0.1979  0.1777
28366W        W71419   0.282  18.106  14.016  0.2067  0.0003 -0.1422
28367W        W71420   4.716  32.965  15.334 -0.0739 -0.0160  0.2495
28368W        W71421   6.989  21.435  20.238 -0.3962 -0.1758 -0.1868
28369W        W71422  16.919  24.435  14.529 -0.3600 -0.0119 -0.0350
28370W        W71423   8.164  12.554  24.342 -0.3097  0.3197 -0.1182
28371W        W71424   3.642  17.926  18.608 -0.1367  0.1134 -0.2708
28372W        W71425   5.434  26.933  23.448  0.0595  0.1850  0.2332
28373W        W71426   8.401   2.218  26.384  0.0830 -0.2249 -0.1285
28374W        W71427   1.781  13.182  18.991  0.0413 -0.0291  0.0606
28375W        W71428  17.093  24.421  19.189 -0.1617 -0.2789 -0.2323
28376W        W71429  17.932  11.773   2.290  0.0061  0.0906 -0.0996
28377W        W71430   2.785  29.042  23.240 -0.1636  0.1880 -0.2259
28378W        W71431  31.739  17.999  21.063 -0.1333 -0.0911  0.0012
28379W        W71432  10.425  14.245  18.015  0.0126 -0.0556  0.0079
28380W        W71433   2.436  27.008  12.579  0.0573 -0.2794 -0.1165
28381W        W71434   7.035  26.019  18.082  0.0502 -0.1961  0.2287
28382W        W71435  22.140  31.984  19.029  0.1905  0.2043  0.1059
28383W        W71436  18.664  20.411  24.405  0.0492  0.1084 -0.1127
28384W        W71437  32.708  19.414  14.146 -0.0733 -0.0636 -0.1598
28385W        W71438  10.046  20.770  17.429  0.1491  0.2503  0.1356
28386W        W71439  33.757  26.481  16.329 -0.1937 -0.0798  0.0291
28387W        W71440  23.784   7.404  24.029 -0.1517  0.2039  0.1882
28388W        W71441  20.037  14.574  26.372  0.1027  0.0736  0.0710
28389W        W71442   1.332  22.138  15.771  0.1459 -0.0526  0.1221
28390W        W71443  11.930   7.457  20.853  0.0997 -0.2931  0.0679
28391W        W71444  22.157   5.262  18.910 -0.0829  0.0334  0.0663
28392W        W71445  10.097   8.971  22.285 -0.0642  0.1144  0.0715
28393W        W71446  10.078  24.768  17.108  0.2536  0.0783 -0.1532
28394W        W71447  33.777  18.590  23.159  0.0161 -0.1627 -0.3341
28395W        W71448   2.475  10.264  26.891  0.0289 -0.0917 -0.1145
28396W        W71449  28.638   7.418  17.351 -0.2177 -0.1187 -0.1205
28397W        W71450  28.411   3.677  18.580 -0.0091 -0.1190 -0.1753
28398W        W71451   3.718  14.264   2.126  0.2435  0.0492 -0.0529
28399W        W71452  25.849  28.341  23.812  0.1831 -0.0093 -0.0126
28400W        W71453  33.448  26.684  13.390 -0.2098 -0.0277 -0.3664
28401W        W71454   8.480  18.442  26.314  0.0612 -0.1637 -0.1984
28402W        W71455  18.468  15.079  13.073  0.1788  0.0985  0.1141
28403W        W71456  34.482  31.317  18.136 -0.2425 -0.0431 -0.2264
28404W        W71457   3.009  19.951  24.755 -0.0532 -0.1699 -0.1525
28405W        W71458  28.519   7.429   2.183  0.1069  0.0603 -0.0227
28406W        W71459   5.511  34.203   7.654 -0.1431  0.3254 -0.1327
28407W        W71460  30.629  27.715  23.499 -0.1383  0.0565 -0.0200
28408W        W71461  14.463  27.862  17.301  0.0376  0.1744  0.0456
28409W        W71462  30.851  12.243  18.087 -0.0751 -0.1252 -0.0682
28410W        W71463   1.873  17.866  16.481 -0.0980 -0.1723 -0.1972
28411W        W71464   7.084  24.639   1.851 -0.1051 -0.1205 -0.0312
28412W        W71465  12.848   4.457  28.999  0.1100  0.0457  0.0903
28413W        W71466  27.796  16.244  20.355 -0.2320 -0.1276  0.2230
28414W        W71467   7.524   5.770  17.495 -0.0117  0.1144 -0.3277
28415W        W71468  33.341  22.295  27.535  0.3303 -0.2094  0.0203
28416W        W71469   9.515  24.435  26.935 -0.0716  0.3601 -0.1181
28417W        W71470   6.378  27.838  21.805  0.2113  0.1984 -0.1567
28418W        W71471  14.941  21.353  18.295 -0.2787  0.1887  0.2640
28419W        W71472  10.425  22.420  22.164 -0.1266  0.0995  0.0099
28420W        W71473  11.622   6.237  24.897  0.0634 -0.1680  0.0292
28421W        W71474  16.118  12.325  15.195 -0.0006 -0.0235  0.0490
28422W        W71475  11.189  33.406  23.325 -0.1324 -0.1470  0.1323
28423W        W71476   4.091  33.320  17.791  0.1872  0.4566  0.3265
28424W        W71477   8.361  27.320  15.212 -0.2453 -0.2320 -0.0620
28425W        W71478  26.345  17.081  26.047  0.1903 -0.2245  0.2689
28426W        W71479  14.619  23.046  19.586 -0.0379 -0.1823  0.2131
28427W        W71480  27.022   4.810  15.762  0.1540  0.1491  0.0696
28428W        W71481   9.988  31.257   6.663 -0.2079  0.0086  0.0797
28429W        W71482  10.390  17.789  26.617  0.3481 -0.0761  0.2137
28430W        W71483   7.691  24.444  15.367 -0.0059  0.1147  0.0124
28431W        W71484  26.496  29.989  24.081  0.0348  0.0505 -0.2347
28432W        W71485  31.326  32.499  14.947  0.0352 -0.0115  0.3304
28433W        W71486   7.066  16.767  27.744 -0.0227  0.1156  0.0165
28434W        W71487   8.811  21.107  17.554 -0.0374  0.0578 -0.3170
28435W        W71488   8.128   5.964  26.385 -0.1107  0.2138 -0.0357
28436W        W71489  10.190  18.021   1.463  0.3521 -0.0272  0.4451
28437W        W71490   0.647  15.725  21.996 -0.2668 -0.0143  0.1052
28438W        W71491   9.842  24.815  23.926  0.1822  0.0006 -0.1488
28439W        W71492   7.739  24.447  13.250  0.3178 -0.1470  0.1308
28440W        W71493  32.225  15.993   5.320  0.0985 -0.0164  0.0750
28441W        W71494   8.488  25.230  14.477 -0.3037 -0.3776 -0.2037
28442W        W71495  11.447  11.328  18.473  0.0984 -0.3596 -0.2504
28443W        W71496  26.835  17.976  21.276 -0.0412  0.2373 -0.1066
28444W        W71497   7.770  12.410   2.943  0.0269  0.0108 -0.0929
28445W        W71498  30.402  17.165  14.290  0.1341  0.0821  0.3318
28446W        W71499   1.779  27.499  16.932 -0.1682 -0.2301  0.1243
28447W        W71500   5.553  23.235  22.470 -0.1322  0.4830  0.1824
28448W        W71501  23.826  22.245  23.426  0.2303  0.0987 -0.0799
28449W        W71502   8.972  23.385  23.515  0.0853  0.2788 -0.1105
28450W        W71503  32.439  31.172  23.068  0.1938 -0.0976  0.2996
28451W        W71504  17.906   6.341  15.575 -0.0976  0.2169 -0.2493
28452W        W71505   2.291  13.030  17.555 -0.1791  0.2414  0.0137
28453W        W71506  28.632  19.845  22.186  0.1795 -0.0988  0.0580
28454W        W71507   2.028  25.438  20.704  0.1470  0.4957 -0.4659
28455W        W71508  25.951  28.761  15.832 -0.1999 -0.1535 -0.2734
28456W        W71509   6.999  20.857  22.137 -0.0392 -0.1145 -0.3785
28457W        W71510   9.810  13.360  20.328  0.0310 -0.1988  0.2499
28458W        W71511   7.974  11.691  22.807 -0.1089 -0.2089 -0.2283
28459W        W71512  11.463  17.467  19.154  0.2805 -0.0910  0.1300
28460W        W71513   1.436  25.575  14.371  0.0698 -0.0045 -0.0943
28461W        W71514  13.256  18.058  17.932 -0.3271  0.1007 -0.1969
28462W        W71515  13.851   9.556  19.719  0.0579  0.0937 -0.1392
28463W        W71516  26.054  28.907  15.034 -0.2587  0.1518 -0.1103
28464W        W71517  29.068  32.965  25.257  0.1103 -0.2496  0.0810
28465W        W71518  33.802  16.835  21.696  0.1490 -0.1395  0.1610
28466W        W71519   7.019  10.992  27.396  0.0851  0.0433 -0.0307
28467W        W71520   9.406  27.873  18.862  0.0040  0.1918  0.1304
28468W        W71521   7.223  17.582  14.086  0.1038  0.1054  0.2202
28469W        W71522  14.727  17.536  27.941  0.1114 -0.0951 -0.2210
28470W        W71523   1.312  32.015  20.282  0.2076 -0.1841 -0.0242
28471W        W71524   5.427  22.960   4.431 -0.3400 -0.0606  0.0549
28472W        W71525  11.648  33.027  22.693  0.0339 -0.1245 -0.1299
28473W        W71526  19.838  17.008  13.437 -0.2916 -0.2002  0.0891
28474W        W71527   0.417  18.723  26.233 -0.0542  0.0071  0.0308
28475W        W71528  22.889  24.007  17.792  0.1744  0.0771 -0.0114
28476W        W71529  13.322  11.330  17.869 -0.0340  0.2286 -0.1160
28477W        W71530   8.110  22.277  21.868 -0.0158 -0.0894  0.1988
28478W        W71531  34.108  22.469  22.974 -0.0106  0.2241  0.1000
28479W        W71532   6.760  26.751  20.350 -0.0562 -0.2652  0.2118
28480W        W71533  16.951  26.726  14.246 -0.0749 -0.1131 -0.2285
28481W        W71534  13.820  13.926  18.943 -0.0502 -0.2532 -0.1721
28482W        W71535   4.532  14.059  25.542 -0.2369 -0.1591  0.2902
28483W        W71536  32.572  16.302  21.581  0.0535  0.1101 -0.0213
28484W        W71537  15.302  25.701  21.894  0.0554 -0.1272  0.2428
28485W        W71538  34.275  11.162  25.519 -0.2404 -0.0542 -0.0568
28486W        W71539   4.041  31.997  14.339  0.3573 -0.0320  0.2042
28487W        W71540   6.221  16.742   2.831 -0.0331  0.2567 -0.3175
28488W        W71541  13.216  13.365  15.777  0.0640  0.0738  0.1502
28489W        W71542   4.266   9.673   2.891  0.2250  0.1170 -0.1243
28490W        W71543  33.246  23.521  16.136  0.0616  0.0458  0.0647
28491W        W71544  12.746  10.185  24.045  0.0128  0.1246 -0.0563
28492W        W71545  28.116  26.395  21.680  0.3635  0.1234 -0.1738
28493W        W71546  21.988   0.049  15.647 -0.0246 -0.0273  0.2408
28494W        W71547  28.149  29.081  21.825  0.2404 -0.2101 -0.1693
28495W        W71548   6.977   2.998  24.390  0.2775  0.1757  0.2016
28496W        W71549   3.564  18.182  19.044 -0.0274 -0.0130  0.0411
28497W        W71550   9.153   4.208  16.081 -0.0022  0.3926 -0.0252
28498W        W71551  11.820  15.114   2.407 -0.1235  0.0391 -0.0013
28499W        W71552  12.301   5.522  14.854  0.0260  0.2991  0.3076
28500W        W71553  12.737   0.626  15.609  0.0493  0.0165  0.2973
28501W        W71554  34.146  17.031  25.363  0.1300 -0.3629 -0.1889
28502W        W71555  29.444  13.977  22.399 -0.0533  0.0763 -0.0409
28503W        W71556  26.814  15.295   2.059 -0.1972  0.1666  0.1010
28504W        W71557   5.640  20.236  22.637 -0.0912 -0.0275  0.0942
28505W        W71558  18.969   8.678  24.243 -0.2025  0.0027 -0.0338
28506W        W71559   4.850  30.656  16.793  0.1335 -0.1023 -0.2369
28507W        W71560  10.541  25.828  14.350  0.0330  0.1671  0.0466
28508W        W71561  10.401  24.179  13.728 -0.0225  0.0794  0.1090
28509W        W71562   6.474  16.614   1.033  0.4146  0.2229  0.2513
28510W        W71563   4.424  20.069  14.521 -0.2242 -0.1194 -0.0512
28511W        W71564   3.046  27.343  17.841  0.0105 -0.0594 -0.2123
28512W        W71565   3.533  29.649  18.097 -0.0323  0.1049 -0.0205
28513W        W71566  16.411   3.308  18.692 -0.1915  0.3600  0.0945
28514W        W71567  13.952  16.650  23.945  0.0613  0.2059 -0.2849
28515W        W71568   0.099  18.638  17.828  0.1627 -0.1479  0.0240
28516W        W71569  11.570  23.063  19.042 -0.0128  0.1300 -0.0776
28517W        W71570   2.374  20.897  25.347  0.0920 -0.1068 -0.2973
28518W        W71571   0.871  32.075  17.969  0.2372  0.2060 -0.1428
28519W        W71572  32.731  27.258  16.942  0.0948 -0.1173  0.0097
28520W        W71573  34.183  16.888  20.839 -0.0594 -0.3589  0.2824
28521W        W71574   1.369  20.365  14.965 -0.0353 -0.0230 -0.2764
28522W        W71575  33.041  31.675  19.589 -0.2165  0.2973 -0.0079
28523W        W71576   9.481  32.527  18.005 -0.2731 -0.2427  0.1346
28524W        W71577  16.411  24.952  16.289 -0.1255  0.1035 -0.2400
28525W        W71578  21.566  27.394  24.752 -0.2803 -0.0616  0.0058
28526W        W71579   9.567  18.909  25.729 -0.0358 -0.2846 -0.0182
28527W        W71580  13.072  15.658  26.514  0.0260 -0.1259  0.0152
28528W        W71581  21.960  18.936  14.648 -0.0728 -0.1959 -0.1629
28529W        W71582   0.260  12.350  24.299  0.0374 -0.0920 -0.0525
28530W        W71583  17.410  23.534  19.377 -0.1250 -0.1797  0.0377
28531W        W71584  10.198   0.409  22.145 -0.2366 -0.0558  0.0006
28532W        W71585   4.473   1.078  18.089  0.0105 -0.0061 -0.0333
28533W        W71586  14.316  22.915   2.803  0.1063  0.1420 -0.2188
28534W        W71587   9.873  17.563   3.169 -0.1357  0.0102  0.3330
28535W        W71588   8.661  21.048  25.620 -0.2892 -0.0605 -0.0267
28536W        W71589   4.944  15.989  15.526  0.2345 -0.0509  0.0212
28537W        W71590  29.878  32.069  20.189 -0.0019 -0.1296 -0.0901
28538W        W71591   1.121  27.138  19.860 -0.4880  0.1709 -0.0102
28539W        W71592  10.385   5.231  23.181 -0.0719  0.1097 -0.2332
28540W        W71593  27.235   5.803  14.498 -0.1485 -0.0036 -0.0504
28541W        W71594   9.552  20.190  22.074 -0.1463 -0.1505 -0.1012
28542W        W71595   8.961  24.054  16.302  0.1668 -0.0874  0.4228
28543W        W71596  30.436  22.668  27.835  0.1267 -0.0562 -0.0453
28544W        W71597   4.255  23.167  15.674 -0.2175 -0.0270 -0.2569
28545W        W71598  12.448  14.881  20.030 -0.0490  0.1713  0.0500
28546W        W71599   4.655   5.299  22.630 -0.0205 -0.1305  0.1844
28547W        W71600  24.583  15.538  22.760  0.1023 -0.0426  0.0194
28548W        W71601  17.777   9.784  22.352 -0.1270 -0.0122 -0.0041
28549W        W71602  21.648  11.740   0.830  0.0386  0.1454  0.2619
28550W        W71603  16.960   8.578  17.418 -0.0064  0.0661  0.3223
28551W        W71604  12.999  22.076   0.989 -0.0097 -0.2647 -0.0435
28552W        W71605   8.182  20.637  20.219  0.2620 -0.3657  0.3161
28553W        W71606  23.710  26.185  14.424  0.1340 -0.0656 -0.0183
28554W        W71607  33.941   8.755  26.105 -0.0800 -0.0626  0.0763
28555W        W71608   3.294  19.936  14.543  0.0859 -0.3310 -0.2309
28556W        W71609  22.938  24.515  19.986  0.5060 -0.0908  0.0674
28557W        W71610   4.558   1.017  19.330  0.2042 -0.1424 -0.2049
28558W        W71611   1.237  10.315  21.503 -0.1614  0.1047  0.0956
28559W        W71612   1.200   7.946  20.762  0.0069 -0.1020 -0.2635
28560W        W71613  11.906  24.858  18.031  0.2668  0.1092 -0.0466
28561W        W71614   5.097  22.782  27.737 -0.1602  0.0011 -0.0702
28562W        W71615  12.443  13.848  23.679 -0.3333  0.0118  0.1243
28563W        W71616  19.269  18.509  14.617  0.2809  0.1989 -0.1995
28564W        W71617  10.558  33.272  25.263 -0.0439 -0.2786  0.0964
28565W        W71618   4.052  25.388  15.152 -0.1929 -0.0082 -0.1400
28566W        W71619   2.428   0.427   0.475  0.1247 -0.3079  0.1714
28567W        W71620   5.296   5.756  28.310  0.2126 -0.0648  0.2873
28568W        W71621  16.317   6.015  14.827  0.0435 -0.1664 -0.0897
28569W        W71622  31.688  31.827  15.175  0.3045  0.0906  0.1996
28570W        W71623  25.183  18.217  26.225 -0.4818 -0.2940  0.0264
28571W        W71624  22.301  30.003  21.357  0.0791  0.1087  0.2179
28572W        W71625   8.674  19.491  18.950  0.0896  0.0319 -0.1423
28573W        W71626  14.121  32.379  23.174  0.0363  0.2329  0.1530
28574W        W71627   4.532  24.593  25.201 -0.0172 -0.1564 -0.2038
28575W        W71628   7.724   9.410  21.210 -0.2009 -0.0927 -0.1350
28576W        W71629  30.882   8.356  14.374  0.1072 -0.2308 -0.3582
28577W        W71630   2.310  26.088  17.253  0.1309  0.0888 -0.0850
28578W        W71631  15.844  34.085  17.236 -0.3836 -0.0220  0.0856
28579W        W71632  22.743  32.363  24.612 -0.0743  0.0898 -0.0471
28580W        W71633  15.422  31.379   6.268 -0.4823 -0.0046 -0.2580
28581W        W71634   4.701  22.880  15.780 -0.0092  0.1179 -0.1599
28582W        W71635   1.042  26.605  16.498  0.0044 -0.1651 -0.0467
28583W        W71636   3.146  25.160  19.213  0.2353  0.1666 -0.0892
28584W        W71637   0.566  27.931  23.241 -0.2254  0.0481 -0.0341
28585W        W71638  31.468  13.488   0.090 -0.1315 -0.2361 -0.0892
28586W        W71639  30.145  13.345  18.697  0.0322  0.0765 -0.3734
28587W        W71640   9.919  19.458  15.389 -0.2027 -0.0802  0.1995
28588W        W71641  31.819  18.790  14.574 -0.0187 -0.0184  0.0321
28589W        W71642  12.813  28.740  15.726 -0.0389 -0.0160  0.1972
28590W        W71643   4.044  11.869  24.317 -0.1818  0.2392  0.0782
28591W        W71644  15.605  24.140  18.136 -0.1671  0.1343  0.0364
28592W        W71645  32.023  27.745  17.066  0.0443  0.0742 -0.3586
28593W        W71646  10.232   3.433   1.206  0.1641 -0.4653 -0.1635
28594W        W71647   0.857  12.626  14.427 -0.1089  0.0697  0.1612
28595W        W71648  16.135  31.602  19.949  0.3409  0.1301  0.3676
28596W        W71649  26.257   1.570  20.271 -0.3973  0.1266  0.3250
28597W        W71650  31.682  32.186  29.048 -0.1608  0.2022 -0.1287
28598W        W71651   9.157   4.688   4.848  0.2043 -0.1098  0.0232
28599W        W71652  32.179  22.979   7.225  0.1212  0.1116 -0.0807
28600W        W71653  28.440  27.308  13.933  0.1091 -0.2827 -0.0119
28601W        W71654  20.154  17.027  13.857  0.1154  0.1673 -0.1089
28602W        W71655  28.594  12.217  15.565  0.1031  0.1508 -0.0722
28603W        W71656  16.482   4.569  21.986  0.0554 -0.0497  0.0588
28604W        W71657   1.700  15.183  20.255 -0.0854  0.0242 -0.1531
28605W        W71658  23.154  12.328  27.512  0.0761 -0.2261 -0.2248
28606W        W71659   2.083   6.053  20.167 -0.0464  0.1172  0.1399
28607W        W71660   6.823  17.927  14.234  0.2734 -0.0623 -0.3674
28608W        W71661   1.574  19.482  27.364 -0.3529  0.3599  0.0251
28609W        W71662  19.082  25.948  18.666 -0.1832  0.1209  0.0236
28610W        W71663  10.215  24.672  20.471  0.0186  0.0868 -0.5163
28611W        W71664  12.182  27.523  23.374 -0.0241  0.3824 -0.1007
28612W        W71665   2.482  20.403  18.705 -0.0226 -0.1839 -0.1015
28613W        W71666  30.329   3.356  18.686  0.1817 -0.3196  0.3655
28614W        W71667  12.576  25.092  26.634  0.0936  0.1276  0.0455
28615W        W71668  14.205  19.390  23.451 -0.1928 -0.0557  0.3588
28616W        W71669  15.111  24.108  17.950  0.3500 -0.3658 -0.0763
28617W        W71670  11.164  28.911  15.287 -0.0865  0.1118 -0.1995
28618W        W71671   5.306  14.706  15.023  0.0817 -0.0184 -0.1365
28619W        W71672  24.858  19.412  18.129  0.1265  0.1038 -0.0964
28620W        W71673  32.822  22.786  15.085 -0.1996  0.6302 -0.1044
28621W        W71674  32.971  19.033  16.862 -0.0989 -0.3356 -0.1315
28622W        W71675   3.836   8.366   3.378 -0.0774  0.0412 -0.1564
28623W        W71676  10.136  22.502  19.200 -0.1340 -0.0337 -0.1552
28624W        W71677  33.605  26.840  28.798 -0.3535  0.2187  0.1515
28625W        W71678   9.732  24.941  13.204 -0.0466  0.2469 -0.1520
28626W        W71679  28.752   8.023   8.663  0.5320  0.1335  0.2016
28627W        W71680   1.346  18.949  23.996 -0.0988 -0.0147  0.0099
28628W        W71681  33.258   8.541  17.098 -0.0581  0.2213  0.1177
28629W        W71682  28.115  11.594   2.946 -0.4672  0.2239 -0.2632
28630W        W71683  33.296   8.971  17.404  0.0978 -0.0509  0.0108
28631W        W71684   7.607  22.183   1.651  0.0154  0.0803 -0.1290
28632W        W71685  18.353  34.473  25.562  0.0797 -0.1677 -0.3937
28633W        W71686   3.203  17.151  20.852  0.0134 -0.0171 -0.1281
28634W        W71687  13.024  29.492  17.485  0.1820 -0.0900  0.1610
28635W        W71688  11.398   5.099  26.570 -0.2094  0.4073 -0.2414
28636W        W71689  11.556  27.906  16.429 -0.0155  0.0437  0.1050
28637W        W71690  30.355  16.964  17.469  0.1227 -0.1130 -0.1778
28638W        W71691  34.401  10.188  16.095  0.0139  0.0907 -0.0738
28639W        W71692   6.730  19.849  27.099  0.0863 -0.7476  0.0522
28640W        W71693  17.141  31.411  18.550  0.0918 -0.0778  0.0148
28641W        W71694  28.232  16.983  28.013 -0.1280  0.0659  0.2023
28642W        W71695  32.540  21.834  16.688  0.0581 -0.1487  0.1587
28643W        W71696   9.329   7.485  16.881  0.3825 -0.2382  0.4493
28644W        W71697  30.066  29.627  26.149 -0.1613 -0.1299  0.5543
28645W        W71698  31.323  25.498  28.651 -0.1828 -0.1956  0.0086
28646W        W71699   4.972  23.087  18.245  0.0578 -0.1934 -0.0815
28647W        W71700   2.950  13.726  24.574 -0.2090  0.2910 -0.2976
28648W        W71701  17.329  19.689   2.604 -0.0057 -0.5559 -0.0056
28649W        W71702  28.734   1.133  15.331  0.1494 -0.2524 -0.0799
28650W        W71703   1.648  22.165  14.015  0.1629  0.0861  0.1093
28651W        W71704   4.497  19.297  17.006 -0.0484 -0.2901  0.2845
28652W        W71705   9.648   1.760  16.288  0.2510 -0.3351 -0.1423
28653W        W71706   8.221  16.033   5.055  0.1058  0.0953 -0.0908
28654W        W71707   3.161  27.474  26.418 -0.3864 -0.1854 -0.2291
28655W        W71708   7.088  19.554  19.287 -0.0515 -0.0581 -0.2361
28656W        W71709  19.752  16.197   1.139  0.3012 -0.1266  0.1016
28657W        W71710   6.364  22.241  16.244  0.0947 -0.1175 -0.0884
28658W        W71711  28.456   4.039  20.363 -0.1769  0.2385 -0.1841
28659W        W71712  31.776  16.784   3.721 -0.1082 -0.0403 -0.2928
28660W        W71713  32.389  25.909  14.997 -0.2963 -0.2263  0.1874
28661W        W71714   2.371  24.588  17.120 -0.1816  0.3789 -0.2096
28662W        W71715   3.979  13.863  23.909  0.1966  0.3382  0.1908
28663W        W71716   4.254  17.840  21.404 -0.2176 -0.1339  0.1048
28664W        W71717  27.530  15.024  16.057  0.2077  0.2813  0.1605
28665W        W71718  32.569  20.663   4.673 -0.0108 -0.0960 -0.1001
28666W        W71719   3.878  15.838   1.588  0.2650 -0.1468 -0.0353
28667W        W71720  20.127   2.959  22.411 -0.1252  0.2785  0.2510
28668W        W71721   5.665  19.453   3.559  0.3625  0.4787 -0.3787
28669W        W71722  11.333  20.648  19.236  0.0661  0.2241 -0.3555
28670W        W71723   2.496  16.568  20.738 -0.0484  0.0942  0.0145
28671W        W71724   2.972  15.404  28.731  0.1877 -0.1833  0.0323
28672W        W71725  20.281  32.969  27.953 -0.1044 -0.2296 -0.2664
28673W        W71726  11.020   1.592  16.087  0.2009 -0.3521 -0.2335
28674W        W71727  28.276  21.075   9.003 -0.1508  0.3153  0.2923
28675W        W71728   2.397  18.854  26.485  0.0570  0.1064  0.0235
28676W        W71729   7.164  33.384  18.838  0.0031  0.1480 -0.0774
28677W        W71730  20.606   6.580   9.869  0.0855  0.0599  0.1911
28678W        W71731  31.938  25.749  14.707 -0.0491  0.3407  0.2770
28679W        W71732  22.955   3.749   3.947  0.3356 -0.2215  0.3288
28680W        W71733   1.061  29.891  15.602  0.1526 -0.3818 -0.3402
28681W        W71734   7.393  17.521  28.657  0.0003  0.0887  0.1196
28682W        W71735  25.602  12.387  16.247  0.1497 -0.1954  0.2446
28683W        W71736   7.873  21.630  14.401 -0.2672  0.1697  0.0038
28684W        W71737   0.493  20.055  17.694 -0.0218 -0.1063  0.1731
28685W        W71738   7.514  19.323  14.749 -0.0236 -0.0448 -0.1394
28686W        W71739   0.223  22.001  15.292  0.2755  0.0721 -0.0299
28687W        W71740   1.909  20.115   3.400  0.0783  0.3408 -0.0587
28688W        W71741  33.441  16.940  23.301 -0.1010 -0.1610  0.0621
28689W        W71742   0.568  15.334  23.348  0.2812 -0.0569 -0.2149
28690W        W71743   3.799   6.059   7.188 -0.3291 -0.0718 -0.3398
28691W        W71744  27.459   1.374   3.450 -0.0891  0.0007  0.1811
28692W        W71745  29.272  27.772  25.219  0.0710  0.0007 -0.1378
28693W        W71746  33.159  23.512   2.674 -0.0341  0.0811 -0.0670
28694W        W71747   6.235   3.919  16.497 -0.1986 -0.1278  0.0697
28695W        W71748   6.752  24.858  17.272 -0.1234  0.0821  0.2671
28696W        W71749   4.624  11.763  18.879 -0.2918 -0.0304  0.2904
28697W        W71750   1.396  25.301  17.946 -0.0180 -0.3166 -0.3061
28698W        W71751  32.700  28.439  25.392  0.2753  0.0856 -0.0224
28699W        W71752  27.051   9.185  15.035 -0.0817 -0.1258 -0.0191
28700W        W71753  31.083   6.133  14.116 -0.2321 -0.0104  0.0552
28701W        W71754  33.443   9.751   1.690  0.1341  0.1455  0.3666
28702W        W71755  34.443  19.710  18.946  0.2438  0.0959  0.2896
28703W        W71756   3.086   1.750  15.853 -0.0599  0.3458  0.0293
28704W        W71757  32.116   8.939  19.931 -0.1413  0.2931 -0.1414
28705W        W71758   1.729  20.651   1.027 -0.1069  0.0580 -0.0699
28706W        W71759  10.142   9.194  21.442  0.0654 -0.2074 -0.3263
28707W        W71760  32.334  10.452  20.756  0.0597  0.0534 -0.2310
28708W        W71761  30.839  23.689  15.556 -0.1973 -0.4952 -0.1344
28709W        W71762  23.540  15.181  27.484  0.2916 -0.3832 -0.0469
28710W        W71763  30.020  29.088  21.640 -0.5040  0.0794 -0.1289
28711W        W71764  30.748  10.383   0.149 -0.0738  0.1132  0.0973
28712W        W71765  16.659  27.019  18.823  0.3475 -0.0495  0.1170
28713W        W71766  33.848  17.053  26.675 -0.2140  0.2977 -0.2285
28714W        W71767   4.222  19.176  14.470 -0.2677  0.0814  0.4405
28715W        W71768  12.916  20.875  25.663 -0.0781  0.1010 -0.0573
28716W        W71769  24.602  13.392  19.923 -0.3705  0.1690  0.0358
28717W        W71770  19.424  21.541  22.833 -0.1920 -0.0523  0.0725
28718W        W71771  19.473  16.960  13.780 -0.1855  0.1978  0.1883
28719W        W71772  12.688  27.265  16.320  0.0304 -0.0471  0.3242
28720W        W71773  26.449  25.847   0.561  0.1307  0.0338  0.0353
28721W        W71774   5.208  23.721  27.544 -0.1995  0.0546 -0.0423
28722W        W71775  12.804   4.355  19.639  0.2094 -0.0031 -0.0064
28723W        W71776  25.103  23.644  22.008 -0.0712  0.1631 -0.0098
28724W        W71777   5.550  24.904  26.142  0.2444 -0.2235  0.4885
28725W        W71778   8.568  27.034  16.959 -0.2056  0.3795 -0.0049
28726W        W71779  12.989  12.366   0.893  0.1114 -0.2670  0.0002
28727W        W71780   0.731  25.575  23.095 -0.1138  0.2626  0.1018
28728W        W71781  26.527  24.361  17.314  0.0576  0.1521  0.0468
28729W        W71782  29.599  18.102  21.146 -0.1460  0.0974 -0.3011
28730W        W71783  28.654  19.626  27.876 -0.0791  0.2510  0.1723
28731W        W71784  12.460  13.819  17.696  0.2246 -0.0388  0.3263
28732W        W71785   0.238  15.405  21.812 -0.2063 -0.4280 -0.0659
28733W        W71786   1.134  11.004  16.230 -0.1441  0.0418 -0.0816
28734W        W71787   6.376  28.478  14.796  0.2609 -0.0479 -0.0867
28735W        W71788  12.415   9.532  19.466  0.0523 -0.1163 -0.5147
28736W        W71789   6.923  27.962  24.341  0.1775  0.0261  0.1732
28737W        W71790  22.772  25.914  22.448 -0.0047 -0.1655 -0.0723
28738W        W71791  21.893  12.005   2.069 -0.1194 -0.0252  0.0407
28739W        W71792  16.428  23.656  21.527 -0.1344 -0.1840  0.0753
28740W        W71793  34.306  19.053  23.686 -0.0357  0.0996  0.2670
28741W        W71794   6.421  18.349   1.342  0.0231  0.0893  0.1157
28742W        W71795   4.296   5.769  25.928  0.3611 -0.2451 -0.2542
28743W        W71796  15.803  11.318  27.138 -0.0570  0.2452 -0.2998
28744W        W71797   5.370   0.582  19.066  0.1329 -0.1078  0.0561
28745W        W71798   5.996  29.331  15.464 -0.1033  0.0963 -0.1101
28746W        W71799  30.706  28.030  25.687 -0.1122 -0.2219  0.0127
28747W        W71800  22.054   7.220  25.036 -0.1823 -0.2495 -0.3441
28748W        W71801  27.337  33.503   2.003  0.2182  0.1598  0.1290
28749W        W71802   3.713  10.475  15.252 -0.0017 -0.2884  0.3669
28750W        W71803  21.278  32.944  18.365 -0.1437 -0.0838  0.2181
28751W        W71804   2.222  15.670  23.651  0.1850  0.0109 -0.0324
28752W        W71805  11.449   2.879  18.773 -0.1494  0.3096 -0.0212
28753W        W71806  12.018  11.875  10.613  0.0377  0.1440 -0.0043
28754W        W71807  12.881  31.423  21.981 -0.1320  0.2740  0.0840
28755W        W71808   1.103  17.896  24.953  0.3383 -0.1547  0.1327
28756W        W71809  30.348  16.761  16.224 -0.0314  0.0684  0.0707
28757W        W71810  25.643   5.620  26.918  0.2599 -0.1966  0.0698
28758W        W71811  27.743  28.470   1.647 -0.3638  0.1006 -0.0624
28759W        W71812   7.584  22.305  16.805 -0.2205  0.3856 -0.3763
28760W        W71813  11.317  26.709  21.476 -0.3881 -0.2276  0.1480
28761W        W71814   4.919  24.891  19.392  0.0429 -0.0597  0.2074
28762W        W71815  11.504  14.547  26.290 -0.1569  0.3335 -0.0010
28763W        W71816   4.242  17.536  26.311  0.1360  0.2393 -0.1179
28764W        W71817  33.658  10.891  19.685  0.0570  0.2179 -0.1232
28765W        W71818   7.593  20.962  13.840 -0.1492 -0.3628 -0.1398
28766W        W71819   2.632   2.016  19.496  0.0926  0.0502  0.0861
28767W        W71820  20.504  25.986  25.884 -0.1017  0.1451 -0.2918
28768W        W71821   1.530  26.558  14.073  0.0128  0.3629 -0.1473
28769W        W71822  29.521  26.792  25.903 -0.2713  0.2902  0.0712
28770W        W71823  31.912  28.111  13.293  0.0762 -0.3944 -0.0568
28771W        W71824  26.433  23.466  18.456  0.0032 -0.1841  0.1169
28772W        W71825  34.078  19.497   6.229 -0.2147 -0.0341  0.2514
28773W        W71826   2.695  14.072  24.395 -0.2249  0.0798  0.2448
28774W        W71827  15.687  21.704   4.112  0.0752 -0.0837  0.0453
28775W        W71828  32.502  14.915  23.302 -0.0641  0.1190 -0.1304
28776W        W71829   1.355  18.398  28.732  0.0258  0.0257 -0.0537
28777W        W71830   6.655  33.892  21.360  0.0720 -0.1049 -0.3343
28778W        W71831   3.267  23.039  24.415  0.0929  0.2448  0.1182
28779W        W71832  13.125  32.763   2.299  0.0937  0.0070 -0.1976
28780W        W71833  32.684  18.203  16.344 -0.0849  0.0573  0.0017
28781W        W71834  33.504  16.371   4.522 -0.0033 -0.1679 -0.1909
28782W        W71835   7.318  10.744  22.286 -0.2181 -0.1238 -0.2437
28783W        W71836  13.469  15.154  16.888  0.2585 -0.1634 -0.1317
28784W        W71837   9.542  10.813  21.450  0.0635 -0.0989  0.3192
28785W        W71838   3.555  20.724  27.398  0.0901  0.0819 -0.0573
28786W        W71839  28.551  16.250  22.112  0.0401 -0.0915  0.2928
28787W        W71840  22.685  24.360  18.065  0.0042  0.3131 -0.4484
28788W        W71841  31.743  29.471  17.659  0.2977 -0.0587  0.1921
28789W        W71842   3.982   2.445   1.114  0.1195 -0.0871 -0.1207
28790W        W71843   7.608   9.134  28.524  0.0468 -0.2033  0.0508
28791W        W71844  21.554  11.141  18.445  0.0729  0.2204 -0.1314
28792W        W71845  14.301  25.702   3.564 -0.0613  0.2729  0.3412
28793W        W71846  33.714  25.115  15.678 -0.0698 -0.0105 -0.0679
28794W        W71847  11.996  20.323  21.653  0.0814 -0.2644  0.4393
28795W        W71848   4.936  20.517   1.497 -0.1086 -0.0234 -0.0872
28796W        W71849   0.107  21.657   5.472  0.0552  0.1779  0.2734
28797W        W71850  13.221  30.139  25.553  0.1668  0.3219  0.3053
28798W        W71851   1.067  16.914  25.018 -0.0675  0.0134  0.0197
28799W        W71852  23.031   9.591  17.973 -0.1637  0.0316  0.4265
28800W        W71853   5.221   9.197   0.144 -0.0842  0.4347  0.2962
28801W        W71854   6.174  28.076  16.908  0.1059  0.1510  0.1124
28802W        W71855  19.442  22.002  19.677  0.2571 -0.0625 -0.0370
28803W        W71856  29.865  18.095  28.354 -0.3225  0.0360 -0.2426
28804W        W71857   7.124  19.081  25.690 -0.0955 -0.0314 -0.0828
28805W        W71858  19.601  21.960   1.316  0.1845  0.0499  0.0914
28806W        W71859   2.107  27.189  27.996 -0.0727  0.1007  0.2040
28807W        W71860  31.652  18.488  21.409 -0.2785  0.0863  0.2482
28808W        W71861  34.090   0.638   6.187  0.3463  0.1274  0.3036
28809W        W71862  10.810   2.098  21.578  0.2473  0.1340 -0.0256
28810W        W71863  10.133  33.213  16.900  0.0597  0.1273 -0.0143
28811W        W71864   6.833  13.730  18.900  0.0857 -0.0164 -0.2029
28812W        W71865   3.171  21.190  23.515 -0.1527  0.1599  0.1021
28813W        W71866  16.233   4.926  24.206  0.2933  0.6603  0.1488
28814W        W71867   2.928  20.287  18.896 -0.1123  0.0351 -0.1571
28815W        W71868  30.207  19.190  23.214 -0.0779  0.1068 -0.1240
28816W        W71869  19.394   5.901  17.605 -0.1286 -0.2334  0.2751
28817W        W71870  14.781  25.964  24.807  0.0109  0.1452 -0.1170
28818W        W71871   6.908  14.698  14.345 -0.1814  0.0158  0.2288
28819W        W71872  11.850  23.625  14.666  0.2578 -0.4743 -0.0940
28820W        W71873   5.078  19.345  28.692  0.0346  0.1937  0.1363
28821W        W71874   7.840  21.143  23.779 -0.0647 -0.0773  0.1889
28822W        W71875   3.090  18.950   3.673 -0.1103  0.1052 -0.1399
28823W        W71876  30.523  26.375   1.997  0.2882  0.1995 -0.1592
28824W        W71877   5.214  14.151  18.454 -0.0011 -0.0089 -0.1988
28825W        W71878   1.463  15.376  13.906 -0.2859 -0.0552  0.1482
28826W        W71879  27.204  16.502  14.830 -0.1726  0.1059  0.0414
28827W        W71880  22.605  19.686   3.391 -0.0026  0.0532  0.4488
28828W        W71881  34.250  20.932  19.721  0.2008  0.3388  0.0360
28829W        W71882  14.448  27.240  24.452 -0.1667 -0.1063  0.1512
28830W        W71883   6.079  14.074  19.893  0.1496  0.1625 -0.0049
28831W        W71884  10.523  13.480  26.726 -0.2557  0.0625  0.0955
28832W        W71885  24.524  11.820  20.299 -0.0423 -0.0529  0.1246
28833W        W71886  31.669  29.306  25.399  0.0302 -0.2150  0.0505
28834W        W71887   3.000  29.745   5.549 -0.1651 -0.0944 -0.1612
28835W        W71888  21.073  15.133  15.400  0.0567  0.1802 -0.0878
28836W        W71889  19.539   0.911  22.323 -0.0239  0.2953 -0.1668
28837W        W71890   7.035  13.664  20.079 -0.0017  0.1113 -0.2279
28838W        W71891   5.734  13.588  19.983  0.0787  0.0191  0.4389
28839W        W71892   1.998  16.434  20.943  0.2642  0.0642  0.2631
28840W        W71893  31.096  10.453   8.094 -0.1630 -0.2474  0.0806
28841W        W71894   5.793   6.379  24.680  0.3256  0.0149 -0.0152
28842W        W71895  12.357  10.886  21.509  0.2329 -0.1314  0.1880
28843W        W71896   6.233  12.298  16.178 -0.0420  0.1939 -0.1743
28844W        W71897  25.171  33.369  24.275  0.3335  0.1314 -0.0363
28845W        W71898   1.702  14.608  16.353 -0.0513  0.2385 -0.1106
28846W        W71899   0.470  16.247  19.035 -0.0159  0.2288  0.4042
28847W        W71900  30.243  22.229  23.031 -0.2223 -0.0520 -0.1307
28848W        W71901  28.695  26.007  13.911 -0.0470  0.1325  0.0012
28849W        W71902  15.367  17.022  29.160 -0.0935  0.0448 -0.1217
28850W        W71903  17.159   6.959   2.876  0.4453 -0.1594  0.0643
28851W        W71904  11.473  11.038   0.084  0.0237  0.0082 -0.1628
28852W        W71905   5.706  12.726  25.662 -0.0684  0.0297  0.0722
28853W        W71906  23.011   6.838  28.748  0.2489 -0.1611 -0.1372
28854W        W71907  32.022  20.772  16.738  0.0039  0.3138  0.0263
28855W        W71908  12.334  15.454  22.799  0.3374  0.6069 -0.0917
28856W        W71909   2.860  29.325  18.765  0.6007 -0.1793  0.2011
28857W        W71910   7.246   1.776  18.542  0.0694  0.1570 -0.0961
28858W        W71911  33.985  17.329  23.962 -0.1944  0.0814 -0.2494
28859W        W71912  11.156  10.895   6.622  0.2855 -0.0107  0.0403
28860W        W71913  32.682  33.767  21.435 -0.1627 -0.0220  0.0828
28861W        W71914  22.436   0.864  17.403 -0.0251 -0.3776  0.2129
28862W        W71915   7.673  23.245  24.233  0.0810  0.0805 -0.1995
28863W        W71916  13.689  22.036  13.850  0.0724  0.0833  0.1300
28864W        W71917  31.956  10.750  20.602  0.0180 -0.0038 -0.3072
28865W        W71918   3.154  34.388  22.234  0.4400 -0.1255  0.2319
28866W        W71919   1.436  23.466  14.103 -0.0198  0.0986  0.0168
28867W        W71920   7.740  25.576  23.581 -0.0729 -0.3085 -0.0592
28868W        W71921   1.942  27.406  22.429  0.0206 -0.0260  0.1151
28869W        W71922   7.388  28.250  17.899 -0.1813 -0.1487 -0.0870
28870W        W71923   6.622   0.229  19.576  0.0117 -0.0143 -0.0029
28871W        W71924   2.086  16.286  23.782  0.0680 -0.1332 -0.2798
28872W        W71925  29.603   8.491  16.767 -0.2928  0.1660  0.1909
28873W        W71926   1.030  22.829   2.394  0.0061  0.0897 -0.1095
28874W        W71927   5.475  27.223  17.356 -0.1679 -0.0193  0.0741
28875W        W71928   8.261  23.704  23.659  0.2215  0.0570 -0.2416
28876W        W71929  22.385  32.271  18.574  0.5429  0.2257  0.0189
28877W        W71930  29.538   5.304  20.413  0.1500  0.0864  0.1562
28878W        W71931  34.054  16.271  23.246  0.0749 -0.0695  0.0044
28879W        W71932  11.713  19.590  26.118  0.4303  0.2683 -0.0925
28880W        W71933  16.176  22.545  21.545  0.1112  0.0067  0.0426
28881W        W71934  30.984   0.683  28.905 -0.1053 -0.4196 -0.3688
28882W        W71935   3.686  17.166  23.828 -0.1828 -0.1140  0.3434
28883W        W71936  17.913  20.697  16.561  0.0751  0.0674  0.1892
28884W        W71937  28.518   7.993  19.881  0.0284 -0.0288 -0.2544
28885W        W71938   5.262  20.479  19.755  0.2189  0.0966  0.2630
28886W        W71939  34.248  10.234  19.798 -0.2676 -0.0340 -0.0361
28887W        W71940  12.171  22.015  27.290  0.1507  0.0698  0.0012
28888W        W71941  30.941  23.306  18.298  0.0773  0.0957 -0.1219
28889W        W71942  29.843  18.751  22.919  0.0080  0.0319  0.2909
28890W        W71943  32.797  25.607  15.540 -0.0879  0.2127  0.3667
28891W        W71944  29.871  18.724  16.997  0.0480 -0.0446  0.1904
28892W        W71945   5.154  25.110  23.616 -0.2529 -0.1062 -0.2156
28893W        W71946  16.552  25.993  25.579  0.0202  0.3631  0.2124
28894W        W71947   2.126  23.658  16.963  0.0247  0.1487  0.2633
28895W        W71948  27.767  21.764  22.293  0.0522  0.2759 -0.5060
28896W        W71949   5.999  13.695  25.407  0.1578  0.1660  0.0916
28897W        W71950   6.162   1.859  15.613  0.2431  0.0321 -0.0730
28898W        W71951  18.497  24.713  26.927 -0.1170  0.2859  0.2426
28899W        W71952   3.246  21.905  19.323 -0.1543 -0.1600 -0.2465
28900W        W71953   0.450  14.190  14.079  0.2821 -0.0075 -0.0221
28901W        W71954  26.283  22.112   4.285 -0.1874  0.2855 -0.0769
28902W        W71955  33.454  30.304   6.153  0.1965  0.1787 -0.0824
28903W        W71956   9.060   4.671  15.240  0.0275  0.0530 -0.0009
28904W        W71957   1.323  29.242  25.187 -0.2550 -0.2412 -0.2591
28905W        W71958  13.707  26.769  10.294 -0.0077  0.1704 -0.2824
28906W        W71959   3.463   3.848   1.217  0.0864  0.2586 -0.2071
28907W        W71960  14.943   0.355  23.771 -0.1968  0.0679 -0.1770
28908W        W71961  29.582  19.400  14.643 -0.2010  0.2545  0.0229
28909W        W71962  23.894  20.909  17.974 -0.2035  0.0099 -0.2450
28910W        W71963  10.779  17.380  16.618  0.1488  0.2053  0.1618
28911W        W71964  15.446  34.511  15.976  0.0767 -0.0011 -0.1937
28912W        W71965   6.561  21.490  17.087 -0.1740  0.0795 -0.0555
28913W        W71966  22.814  19.573  13.991  0.3683  0.0025  0.6203
28914W        W71967  24.483  24.188  22.901  0.3885 -0.0714 -0.4531
28915W        W71968  10.169   7.299  15.610 -0.0637  0.0624  0.0885
28916W        W71969  20.547  13.746  15.786  0.2031  0.0674 -0.2122
28917W        W71970   4.309  17.340  22.154  0.1945 -0.3849 -0.3606
28918W        W71971   2.539  22.126  21.934 -0.0029  0.0992  0.0262
28919W        W71972  26.952  28.453  14.758  0.0079 -0.1331  0.0367
28920W        W71973  32.906  25.456  26.921 -0.1979  0.0078 -0.2520
28921W        W71974   4.113  23.065  27.858  0.2005 -0.0744 -0.0829
28922W        W71975   7.526  16.964   1.812  0.1577 -0.0362 -0.0535
28923W        W71976  12.086  27.025   7.469  0.2643  0.0572  0.1876
28924W        W71977   1.547   7.996  24.562 -0.1036 -0.2050  0.1526
28925W        W71978  15.241  24.839  20.758 -0.0390 -0.1338  0.1242
28926W        W71979  13.977  33.010  15.091  0.0128 -0.0815 -0.0719
28927W        W71980  19.485  16.541  13.349  0.2096 -0.2515 -0.2700
28928W        W71981   6.117  14.858  20.534 -0.1162 -0.2247  0.0058
28929W        W71982   2.434  14.357  18.226 -0.0217  0.1115 -0.2622
28930W        W71983  10.910   8.618  15.746  0.1352 -0.0219  0.1820
28931W        W71984  17.584  20.038   8.309 -0.0707 -0.0994  0.0683
28932W        W71985   7.494  12.617  21.513  0.1220 -0.0774 -0.2269
28933W        W71986  33.548  28.334   9.607  0.0262  0.1067 -0.0136
28934W        W71987   9.316   9.249  19.838 -0.1831  0.3446 -0.0262
28935W        W71988  26.617   7.022  10.389 -0.3240  0.0563 -0.1830
28936W        W71989  12.097  15.834  19.427 -0.1410  0.1160 -0.0859
28937W        W71990   4.858  13.694   8.567 -0.1158  0.3675 -0.0463
28938W        W71991  13.564  21.003  14.601  0.0626 -0.1650  0.0052
28939W        W71992   1.283  29.525   0.698 -0.0626  0.0160  0.0498
28940W        W71993  15.897  24.865  18.817 -0.1923  0.0004 -0.1669
28941W        W71994   6.561   8.990  26.484  0.1781  0.3771  0.0023
28942W        W71995  33.092  23.075  20.025  0.2791  0.0558  0.2085
28943W        W71996  23.228  15.017  17.762 -0.1792 -0.1412 -0.0427
28944W        W71997  11.545   0.518  21.324  0.0462  0.0576 -0.0767
28945W        W71998  12.221  14.034  16.549 -0.3119 -0.2964  0.0639
28946W        W71999  32.438  20.925  16.351 -0.3003  0.2503  0.1325
28947W        W72000   0.682  17.161  19.478  0.0248 -0.0355  0.1600
28948W        W72001  13.121  25.758   1.237  0.1890  0.0902  0.5334
28949W        W72002  10.337   0.146  28.225 -0.1326 -0.2003  0.2142
28950W        W72003   2.449  31.654  15.443  0.1671  0.0998  0.3096
28951W        W72004   6.912  18.642  21.717  0.1031  0.2923  0.0530
28952W        W72005   7.654  31.664   1.425  0.0706 -0.1303  0.0844
28953W        W72006  13.583  27.139  15.084  0.0668 -0.1776  0.0766
28954W        W72007   9.767  23.751  27.747 -0.0749 -0.0486 -0.0800
28955W        W72008   6.944  18.372   5.830  0.0247 -0.1205 -0.0446
28956W        W72009  33.599  19.513  26.242  0.0785  0.1069 -0.3232
28957W        W72010   6.724  18.912  25.578  0.1293  0.1036 -0.2200
28958W        W72011  14.168  13.508   5.710 -0.0546  0.0738  0.0280
28959W        W72012  28.709   4.847  15.239 -0.1088 -0.2915  0.1236
28960W        W72013  29.329  10.676  15.808 -0.0346 -0.0092  0.4827
28961W        W72014  13.996   7.013   7.217 -0.0080 -0.0744 -0.0623
28962W        W72015  31.214  16.606  26.251  0.1726 -0.1105  0.1241
28963W        W72016   8.679  31.516  17.337  0.2706  0.2942 -0.0563
28964W        W72017   3.979  16.298  14.812  0.0573 -0.0690  0.0034
28965W        W72018  24.240  24.332   2.466 -0.0028 -0.1397 -0.0340
28966W        W72019  32.763   8.962  19.112 -0.2921  0.3217  0.0862
28967W        W72020  20.956  21.340  20.689  0.0998  0.0342  0.0662
28968W        W72021  32.684   8.775   4.187 -0.0873 -0.0627  0.0598
28969W        W72022  29.368  26.383  18.061 -0.0457  0.1389  0.1899
28970W        W72023  23.018  13.726  20.301  0.4344 -0.1564 -0.3835
28971W        W72024  30.585  22.545  24.382 -0.0746 -0.2094 -0.0978
28972W        W72025  25.200  11.534  14.906  0.0385  0.4451  0.0622
28973W        W72026  19.096  26.353  21.705  0.0311 -0.0504 -0.3003
28974W        W72027   8.750  19.167  19.505 -0.1648  0.2028 -0.2612
28975W        W72028   1.109  22.288  21.744  0.0703 -0.0893  0.0706
28976W        W72029   9.640  27.078  17.371 -0.1971 -0.0938  0.2148
28977W        W72030   0.887  21.312  22.992  0.1493  0.1940  0.1596
28978W        W72031  31.912  29.277  14.344 -0.0823 -0.0943 -0.0048
28979W        W72032   4.268  28.387  14.206  0.2515 -0.0378  0.1009
28980W        W72033   4.285  16.044  24.967  0.1563 -0.0153 -0.1240
28981W        W72034  27.918  34.486  18.536  0.1783 -0.1349 -0.0921
28982W        W72035  24.258  23.871  15.590  0.1683 -0.0077  0.1159
28983W        W72036   5.625  18.723  13.171 -0.0647  0.1568 -0.4135
28984W        W72037  19.701   5.570  24.867  0.0578  0.2409 -0.0597
28985W        W72038   4.110   6.648   0.209 -0.0547  0.1423 -0.1751
28986W        W72039   5.312  26.655   3.149 -0.3701 -0.1546  0.0983
28987W        W72040   5.817   3.050  29.180 -0.1024  0.3113 -0.2237
28988W        W72041   9.706  10.603  24.075 -0.1222  0.1909 -0.0793
28989W        W72042   0.443   6.353  27.003 -0.0006  0.1111 -0.2398
28990W        W72043   1.860  22.204  19.500 -0.0011 -0.3507  0.3861
28991W        W72044  27.929  24.399   8.095 -0.0165 -0.0656 -0.0733
28992W        W72045  29.762  14.406  24.655 -0.1513  0.1554  0.2074
28993W        W72046  15.355  24.784  16.720 -0.2037 -0.0728 -0.0538
28994W        W72047  14.044   0.626  17.951 -0.0817 -0.0758  0.0262
28995W        W72048   4.300  34.067  16.039  0.1448  0.2627  0.0313
28996W        W72049  32.211  15.263  23.056  0.1163 -0.2149 -0.1365
28997W        W72050   0.600  26.730  15.045  0.1155 -0.0633  0.1294
28998W        W72051  23.055  12.115  25.641  0.0212  0.0257 -0.2289
28999W        W72052  29.918  32.707  25.209 -0.1319  0.0169  0.0207
29000W        W72053   0.520  23.748  20.890  0.0060  0.0433  0.1246
29001W        W72054  27.122  14.392  22.446  0.0859 -0.1291 -0.1088
29002W        W72055  31.630  31.018   1.200  0.2230  0.0260  0.2244
29003W        W72056   3.191   1.483  23.214  0.2689  0.0917  0.1458
29004W        W72057   7.347  25.230  16.303 -0.4063  0.3283 -0.0150
29005W        W72058   6.195  17.948  28.168 -0.0781 -0.0688  0.1634
29006W        W72059   0.855  27.703  15.364  0.0014  0.2412  0.2922
29007W        W72060  23.595   7.249  27.352  0.0322  0.1206 -0.3137
29008W        W72061  33.377  29.421  25.119  0.1930  0.3481 -0.2127
29009W        W72062  14.377  21.139  22.288 -0.1235  0.2226  0.3818
29010W        W72063  32.160  25.524  17.805  0.3365  0.1012  0.1616
29011W        W72064  20.710  25.724   0.012  0.0821 -0.0590  0.0882
29012W        W72065  33.401  14.528  23.335 -0.2883 -0.2548  0.1313
29013W        W72066  24.386  18.953  18.576 -0.2592 -0.2251 -0.1611
29014W        W72067   7.959  24.036  16.123 -0.0627 -0.0576 -0.2860
29015W        W72068   5.423   4.762  22.681 -0.1432 -0.0848  0.1063
29016W        W72069  14.330  27.803   5.145 -0.0115 -0.1087 -0.4197
29017W        W72070  12.945  18.480  27.682 -0.2094  0.1348 -0.0760
29018W        W72071  13.743   0.473   5.925 -0.2683  0.0735 -0.2030
29019W        W72072  32.052  28.402  21.010  0.0298  0.1733 -0.1198
29020W        W72073  22.570  22.557  14.651  0.1352 -0.1557  0.5668
29021W        W72074   2.624  17.835  18.647 -0.1701  0.0659  0.0544
29022W        W72075   9.093   5.983  24.925  0.1543 -0.1505 -0.0350
29023W        W72076  13.479  14.040  23.360  0.0189  0.0380  0.0164
29024W        W72077  10.506   6.810  23.878 -0.0338  0.3849 -0.0058
29025W        W72078  15.181   9.581  25.782 -0.3520 -0.2182  0.1200
29026W        W72079  29.438  14.948   7.062 -0.2521  0.0274  0.0095
29027W        W72080  23.195  27.245  25.112 -0.3771  0.2736  0.0011
29028W        W72081   4.793  29.346   1.255  0.2563 -0.1562 -0.1383
29029W        W72082  30.580  12.119  27.385 -0.2660  0.1121 -0.0878
29030W        W72083   2.375  27.592  21.004  0.0749  0.0155  0.0959
29031W        W72084   6.485  11.916  28.654 -0.0205  0.3739  0.2046
29032W        W72085  11.489  16.562  21.955  0.0582  0.0881  0.0913
29033W        W72086  29.004  23.473  18.212 -0.1331 -0.3110  0.1361
29034W        W72087   3.773  22.710  29.056 -0.2835 -0.0443 -0.1494
29035W        W72088  18.762  27.506   5.287 -0.0848 -0.1442 -0.2496
29036W        W72089   5.070  24.602  14.561  0.2639 -0.2391 -0.1153
29037W        W72090   9.883  20.678   0.093 -0.4795  0.0130 -0.2562
29038W        W72091   4.653  22.556  14.328 -0.0058  0.0193 -0.0639
29039W        W72092  18.329   1.582  28.361  0.1425  0.0242  0.1079
29040W        W72093  33.701  20.715  21.488  0.3303  0.3838 -0.1208
29041W        W72094  27.189   6.030   0.152  0.2465  0.0660 -0.0654
29042W        W72095  33.663  30.484  13.930 -0.1655 -0.2252 -0.0896
29043W        W72096   0.072  20.498  29.200 -0.1406  0.1100  0.2052
29044W        W72097  33.783  20.493  20.400 -0.0360 -0.4042 -0.3132
29045W        W72098  33.945   8.805  26.659  0.1162  0.0345 -0.0177
29046W        W72099   4.985   4.016  14.783 -0.0551  0.0814 -0.2564
29047W        W72100  34.145  14.422   1.544 -0.5270 -0.3457  0.0667
29048W        W72101  15.795  13.343  26.538 -0.0822 -0.1181 -0.0002
29049W        W72102  15.843  32.002  28.014 -0.1586 -0.2697 -0.0064
29050W        W72103   9.319   2.599  24.253  0.2900 -0.0562  0.0505
29051W        W72104   1.600  16.444   5.922  0.1187  0.3589  0.3295
29052W        W72105  12.617  13.511  20.631  0.3261 -0.0063  0.3759
29053W        W72106  16.456  22.877  25.476 -0.1881  0.2276 -0.3278
29054W        W72107  32.522   2.164  16.206  0.0699  0.2427  0.0810
29055W        W72108  10.043   7.888  26.654  0.2070  0.2912 -0.2846
29056W        W72109   2.934  24.568  20.662  0.0591  0.0943 -0.0227
29057W        W72110   8.329  16.884   2.416 -0.0720  0.3548 -0.0095
29058W        W72111   7.126  23.692  15.184 -0.6121  0.1457 -0.0920
29059W        W72112  33.078  20.555  27.177 -0.2004 -0.0056  0.0318
29060W        W72113   0.157   4.182   5.172 -0.0899  0.1536 -0.2485
29061W        W72114  10.322  32.602  23.862  0.2414  0.2480  0.2032
29062W        W72115   0.493  18.573  15.084  0.1615 -0.0478 -0.4103
29063W        W72116   9.628  22.829  17.970  0.2870  0.2372  0.2634
29064W        W72117  31.930  14.809   2.426 -0.0858  0.3169  0.1377
29065W        W72118   0.083  30.943   0.703 -0.1299 -0.0578  0.2451
29066W        W72119  31.680  25.837  16.769  0.3381 -0.0501 -0.0055
29067W        W72120  34.029  18.562  21.599  0.1084 -0.0628 -0.0583
29068W        W72121  15.107  17.490  22.231  0.0736 -0.1083  0.0968
29069W        W72122  10.629  30.074  22.127  0.2720  0.1006 -0.1075
29070W        W72123  11.497  13.232   2.066 -0.1476 -0.1265 -0.0787
29071W        W72124   7.448  21.975  18.142  0.5336  0.0082 -0.0771
29072W        W72125   3.827  11.339  20.697  0.0797  0.0146  0.2193
29073W        W72126  18.144  11.811  25.366  0.1225  0.1936 -0.0720
29074W        W72127  20.338  27.649  22.540 -0.2417 -0.0326  0.1952
29075W        W72128   5.053  17.237  22.081 -0.0619  0.0137 -0.1669
29076W        W72129  15.422  23.327  21.023  0.1829 -0.2293  0.0026
29077W        W72130  13.632  25.015  21.198  0.1216 -0.1197  0.1337
29078W        W72131  30.419  18.576  15.547 -0.0580 -0.2503  0.1448
29079W        W72132   4.857  11.664   5.196 -0.1755  0.2312  0.1299
29080W        W72133  25.071  25.442   6.314  0.3032 -0.1747 -0.1844
29081W        W72134  11.243  10.932  18.287  0.0618  0.0646  0.1255
29082W        W72135   9.355  24.695  16.725  0.1448  0.1372  0.2886
29083W        W72136  17.430  26.991  26.602 -0.2556 -0.2782 -0.0438
29084W        W72137   0.383   5.140  19.410 -0.2468  0.1592 -0.0161
29085W        W72138   2.175  25.204   7.616  0.2631 -0.2512 -0.0588
29086W        W72139  17.744  18.150   6.297  0.3737  0.1070 -0.0027
29087W        W72140   5.121  33.766  28.118 -0.0346 -0.0074  0.3774
29088W        W72141  12.168  30.693   3.881  0.0301 -0.0543 -0.2991
29089W        W72142  26.062  27.817  18.850  0.0145 -0.2521 -0.1525
29090W        W72143  11.002  24.395  27.709 -0.1276 -0.2123 -0.0048
29091W        W72144   0.788  27.009   0.492 -0.0090 -0.1376  0.2863
29092W        W72145   5.701  10.261  22.643  0.0150  0.2268 -0.1894
29093W        W72146  12.139  11.210   5.488  0.3474  0.1641  0.2783
29094W        W72147  18.359  16.040  14.820 -0.0954 -0.2340  0.1166
29095W        W72148  34.020  34.572  24.305 -0.1421 -0.0674  0.0772
29096W        W72149   3.146  15.072  26.336  0.0791 -0.0780 -0.1018
29097W        W72150   5.274  10.062  22.937 -0.3291  0.0697  0.1071
29098W        W72151   8.520   0.626  16.491 -0.1109  0.0182  0.0897
29099W        W72152   8.710  14.474   3.158 -0.0713  0.1299 -0.1022
29100W        W72153  29.781  10.206  20.949 -0.0613  0.1660  0.0252
29101W        W72154   1.821  21.737   5.803 -0.2018 -0.0334  0.0743
29102W        W72155   5.835  25.719   7.506  0.1767  0.2784 -0.0681
29103W        W72156  31.769  28.898  18.268 -0.0710 -0.1848 -0.0538
29104W        W72157   3.309   8.288  17.858  0.1510  0.0990 -0.0455
29105W        W72158   7.407  29.751  24.099  0.2578  0.2137 -0.0152
29106W        W72159  31.961  12.389  27.328 -0.3763 -0.4302 -0.0292
29107W        W72160  13.545  20.976  21.087 -0.1226  0.0434  0.3987
29108W        W72161   1.631  32.924  26.940  0.1530 -0.1090 -0.2166
29109W        W72162  22.797  26.289  18.947 -0.3224  0.0198  0.1753
29110W        W72163   2.607  22.522  17.082  0.1694  0.4124 -0.1444
29111W        W72164  15.767  25.132  19.989 -0.0331 -0.0885  0.0893
29112W        W72165  15.342  17.055  24.941  0.0079 -0.1668 -0.0304
29113W        W72166  34.284  29.828  19.507  0.0244  0.0886 -0.0506
29114W        W72167   0.608  19.474   8.553 -0.1088 -0.0472  0.2806
29115W        W72168   1.283  10.368  15.377  0.3818  0.0562  0.0824
29116W        W72169  10.646  20.012  18.071  0.3329  0.1908  0.2204
29117W        W72170  12.672  21.934  25.652 -0.1285  0.1764  0.0639
29118W        W72171  29.188  30.269  16.851  0.1210  0.1079  0.2743
29119W        W72172  19.830  32.215  21.675 -0.0671  0.1190 -0.0980
29120W        W72173  34.142  29.444   1.349 -0.1651  0.2322 -0.0909
29121W        W72174   7.631  16.321  19.694  0.1907 -0.0128 -0.0756
29122W        W72175   2.299  25.280  27.815  0.2238  0.2294 -0.0672
29123W        W72176  34.681  21.949  15.733  0.1708  0.0407 -0.0753
29124W        W72177  26.911  17.174  16.622  0.0706 -0.1007  0.0171
29125W        W72178   8.805  33.655   6.430 -0.1170 -0.0337  0.1133
29126W        W72179  18.194  12.093  21.647 -0.0302 -0.0977  0.1288
29127W        W72180   8.355  14.288  10.289  0.1014 -0.1259  0.2585
29128W        W72181   3.392  23.540  21.028 -0.3000  0.0159  0.2173
29129W        W72182  30.477  20.646  28.632  0.0313  0.0379 -0.1650
29130W        W72183   7.237   6.216  20.898 -0.2318  0.0564 -0.2249
29131W        W72184   6.815  23.346   2.936 -0.0500 -0.0569  0.1799
29132W        W72185   6.868  12.912  16.489  0.3341 -0.2720  0.4319
29133W        W72186   7.010  31.757  15.249 -0.1891  0.1928 -0.0174
29134W        W72187  23.944   6.645  18.581 -0.0619 -0.0993  0.0870
29135W        W72188  29.205  16.928  14.380  0.2716  0.3234 -0.3626
29136W        W72189  33.615  24.833  16.712  0.0028  0.0554 -0.2332
29137W        W72190  14.775  21.520   2.892  0.0270  0.0775  0.0093
29138W        W72191   3.408  22.113  22.521 -0.4046 -0.1529 -0.1569
29139W        W72192  14.856  17.922   3.643  0.2610 -0.1191  0.0172
29140W        W72193   3.293  23.098  17.261  0.1275  0.2679  0.2551
29141W        W72194   8.577   9.434  18.628  0.1967 -0.2982 -0.3296
29142W        W72195  32.232   0.468  14.292  0.3119 -0.1729 -0.2509
29143W        W72196  18.274  27.570  15.439 -0.1931  0.0175  0.1186
29144W        W72197  33.062  15.038   5.461  0.1037  0.1629  0.0069
29145W        W72198  25.325   8.815   1.790 -0.2182  0.2029 -0.1697
29146W        W72199  28.725  19.814   2.464 -0.2494  0.0916 -0.0825
29147W        W72200  33.917  16.412   3.274  0.0016  0.0941 -0.0539
29148W        W72201   9.464  12.707  26.119  0.1254  0.0889 -0.1649
29149W        W72202  17.671  25.584  15.437  0.0292  0.0385  0.1082
29150W        W72203  27.328   1.818  21.065 -0.1298  0.4334 -0.3062
29151W        W72204  28.774  22.975  16.854 -0.1129  0.1415 -0.0115
29152W        W72205  14.126  22.938  19.589 -0.1240  0.1548 -0.2919
29153W        W72206  25.034  14.361  14.099  0.3229 -0.1180 -0.2088
29154W        W72207   4.512   3.713  21.553 -0.0961 -0.0333 -0.1485
29155W        W72208   2.095  28.497   2.144 -0.1821  0.2007  0.1090
29156W        W72209   8.432  20.143  17.150 -0.0539  0.1454  0.0476
29157W        W72210  29.671  27.987  17.078  0.2472  0.1853 -0.3382
29158W        W72211  32.145  14.621  15.560  0.2797  0.0590 -0.0565
29159W        W72212  23.611  21.474  14.751  0.1022  0.0893 -0.2575
29160W        W72213   2.968  20.261  16.660  0.2887  0.0069  0.2186
29161W        W72214  32.368   3.564  14.275  0.1084 -0.4275 -0.2574
29162W        W72215   3.967   8.948   2.321  0.1204 -0.1487 -0.2719
29163W        W72216   2.015  28.877   1.817 -0.4295 -0.1913  0.0180
29164W        W72217  34.642   4.214  22.431 -0.0277 -0.0843 -0.3354
29165W        W72218   6.259  34.456  18.005 -0.0507 -0.0114 -0.2258
29166W        W72219   2.239  26.567  15.931 -0.1601  0.0936 -0.1066
29167W        W72220   5.834  25.776  14.386  0.0550 -0.2177 -0.3463
29168W        W72221   5.982  33.870  15.283 -0.0774  0.0547 -0.1335
29169W        W72222  21.151  25.628  20.531 -0.1647  0.0339 -0.2828
29170W        W72223  11.666  28.734   3.789 -0.4732 -0.1078  0.1123
29171W        W72224  30.570   8.041  10.618 -0.1845 -0.1983 -0.4483
29172W        W72225   8.799  26.674  23.307 -0.0989 -0.2605 -0.0360
29173W        W72226  18.999  11.288  25.110  0.1335  0.0114  0.1922
29174W        W72227   2.602   9.858   6.960  0.2157 -0.0528  0.1380
29175W        W72228  11.294  25.809  24.144  0.1042 -0.0492  0.1408
29176W        W72229  20.101  32.615  21.803  0.0018 -0.0960  0.4892
29177W        W72230  17.904  15.929  14.066 -0.1094 -0.3650  0.0757
29178W        W72231   0.544  25.054   8.646  0.3198  0.0477  0.2027
29179W        W72232  34.344  21.855  13.670  0.2806  0.2868  0.0174
29180W        W72233  11.286  31.081  22.011 -0.0960 -0.1363  0.3434
29181W        W72234   9.974  22.018   6.760 -0.1699  0.0466 -0.1480
29182W        W72235   3.088  15.491  24.453 -0.0258  0.4514 -0.0490
29183W        W72236  10.234  16.764   2.345 -0.2498 -0.2194 -0.2963
29184W        W72237   0.663  13.065  24.096 -0.1143 -0.2383  0.3559
29185W        W72238  17.761   9.263   5.764  0.1319 -0.1016 -0.4514
29186W        W72239  31.690   9.301   4.830 -0.1594 -0.0899  0.2972
29187W        W72240  13.343  19.118  27.228  0.1691 -0.0446  0.2827
29188W        W72241   7.901  13.427  22.079 -0.0131 -0.1054 -0.0483
29189W        W72242  33.847  28.589  14.409 -0.0119  0.3965  0.0711
29190W        W72243  25.648   4.643  23.990  0.1700  0.1072 -0.0561
29191W        W72244  31.925  17.061  27.349  0.0461 -0.1411  0.0994
29192W        W72245  33.293   8.476  20.732 -0.1714 -0.1208  0.1058
29193W        W72246  31.644  22.675  20.594 -0.1477  0.0055 -0.1237
29194W        W72247  19.042  17.949  14.735 -0.1730 -0.3213  0.1321
29195W        W72248   4.108  30.842  20.852 -0.0957 -0.2252  0.0672
29196W        W72249   4.925  33.394  23.254  0.5214 -0.1144 -0.0199
29197W        W72250   6.498  31.428  24.404  0.2035  0.2550 -0.0545
29198W        W72251  33.615  29.599   3.009 -0.3492  0.0897  0.4499
29199W        W72252  19.151  23.706  28.641  0.1526  0.1469 -0.2976
29200W        W72253  12.277   6.711  14.139  0.2318 -0.2138 -0.1567
29201W        W72254  28.628  27.662  26.540 -0.1604  0.5004 -0.1139
29202W        W72255  18.306   7.037  18.285  0.2424 -0.4221  0.1294
29203W        W72256   5.794  19.640  27.016  0.1279 -0.0196  0.1656
29204W        W72257   2.630   7.686   3.780 -0.1456  0.3522  0.1444
29205W        W72258  23.125  17.551  25.918  0.2983 -0.3775  0.0105
29206W        W72259  11.887  33.215  19.485  0.2203  0.0740  0.0379
29207W        W72260   7.014  34.680   6.161 -0.2708 -0.2138 -0.2355
29208W        W72261  10.270  12.202   3.332 -0.2459  0.0469 -0.1995
29209W        W72262   3.533  32.209  16.227 -0.1481 -0.2923 -0.0478
29210W        W72263  24.581  10.782  17.794 -0.0742  0.0883 -0.1539
29211W        W72264  32.156  30.102  19.195 -0.2453 -0.2704  0.0912
29212W        W72265   4.444  16.704   7.728  0.1296  0.1420 -0.1763
29213W        W72266   7.426  26.842  15.079 -0.3139  0.4059 -0.2500
29214W        W72267   1.082  13.662  17.301  0.0743  0.1270  0.2687
29215W        W72268  12.980   5.503   5.363  0.1592 -0.2290  0.3510
29216W        W72269  26.349  21.134   1.841  0.1763  0.0824  0.0678
29217W        W72270  10.393  13.057  18.976  0.0191 -0.1745  0.0299
29218W        W72271   8.318  21.345   0.369  0.0508 -0.1310  0.0064
29219W        W72272   3.006  29.224  20.634 -0.1687  0.0026 -0.0302
29220W        W72273  19.989  31.781  19.657  0.0304  0.2751 -0.0239
29221W        W72274  16.564  11.126  21.914 -0.0698 -0.1628  0.2625
29222W        W72275   8.185  19.292  25.105  0.0730 -0.0819 -0.0017
29223W        W72276   5.579   0.179  21.374  0.1208 -0.1676 -0.0002
29224W        W72277  11.241  21.425  23.385 -0.1755 -0.1919 -0.2368
29225W        W72278   5.463  10.753  21.158 -0.0450  0.0805  0.3694
29226W        W72279  15.197  29.613  21.303 -0.0302 -0.0379 -0.2315
29227W        W72280   2.941  17.844  27.207  0.0638  0.2055  0.3407
29228W        W72281   4.947  17.465   2.179  0.2574 -0.1076  0.1161
29229W        W72282  11.783  18.207  17.023  0.1656  0.0989  0.3940
29230W        W72283  13.629  18.870   8.995 -0.1973  0.0947 -0.0889
29231W        W72284   9.408  10.307  15.637  0.4206 -0.3826  0.0664
29232W        W72285  14.380   4.095  21.660  0.0744 -0.0876  0.0958
29233W        W72286   0.881  10.629  14.600  0.0458  0.3019  0.1934
29234W        W72287  29.935  18.259  14.653 -0.2110 -0.2640  0.2299
29235W        W72288   8.631   3.872   6.059 -0.1438  0.0054  0.1993
29236W        W72289   1.092  29.760  13.389 -0.0418 -0.0386  0.0293
29237W        W72290   3.663  13.689   0.061  0.0944 -0.2083  0.2362
29238W        W72291  33.763  28.990  22.225  0.1561 -0.1256 -0.1761
29239W        W72292  10.589   1.276  14.902  0.1234 -0.3584 -0.0774
29240W        W72293   7.017   0.694   7.019 -0.1751  0.1737 -0.2017
29241W        W72294  16.795   6.148  22.305  0.1699  0.0509 -0.0579
29242W        W72295  23.996   4.397   5.963  0.0305  0.3102 -0.0632
29243W        W72296  10.967  28.343   5.113 -0.3580 -0.2148 -0.1672
29244W        W72297   5.716  10.192   2.518  0.2352  0.1908  0.1035
29245W        W72298  13.727  15.480  14.536  0.1699  0.2295 -0.0646
29246W        W72299  10.025  30.451  21.007 -0.1852  0.0970  0.2599
29247W        W72300   5.276  33.208  26.743 -0.0327 -0.0266 -0.2502
29248W        W72301  31.792   8.745   0.266  0.0731  0.2143  0.0741
29249W        W72302   5.268  33.183  17.574  0.2223 -0.1470  0.0021
29250W        W72303  12.588  26.488  22.887  0.0516  0.2049  0.1706
29251W        W72304  32.844  13.339  25.856  0.2018 -0.0529 -0.1696
29252W        W72305  24.103  23.391  27.385  0.0063 -0.1053 -0.1777
29253W        W72306  10.531  11.057  18.398 -0.4605  0.1127  0.0393
29254W        W72307  27.546  10.733   5.013  0.1306 -0.2167  0.0695
29255W        W72308  20.599  22.878  26.122 -0.0626  0.0439 -0.1408
29256W        W72309   1.251  26.365  20.740  0.1340 -0.2614  0.1813
29257W        W72310   6.970  24.554  27.127  0.4110 -0.2785 -0.0446
29258W        W72311   9.116   9.132  25.099  0.1052  0.1069 -0.1351
29259W        W72312   7.139  22.879   2.828  0.1341  0.3844 -0.2341
29260W        W72313  11.006  15.028   2.822  0.2128  0.2015  0.1440
29261W        W72314  12.821   5.220  27.661  0.2402 -0.0265 -0.1160
29262W        W72315  33.942   5.148  16.470  0.1522 -0.0176 -0.1029
29263W        W72316   3.412   5.712  16.045  0.1145 -0.1170 -0.1644
29264W        W72317   7.759  27.592  14.504  0.1133  0.0150 -0.4159
29265W        W72318  30.017  14.127  27.860  0.3925 -0.0129  0.2017
29266W        W72319  22.860  21.159  22.702 -0.0178 -0.0056  0.0285
29267W        W72320  10.279  33.173  21.867  0.3139  0.1219  0.1491
29268W        W72321  24.830  13.022  26.510  0.1099  0.0420 -0.1377
29269W        W72322   3.944  21.624   4.082 -0.1698 -0.0583 -0.2081
29270W        W72323  16.580   0.020   4.938 -0.2703  0.1579 -0.1213
29271W        W72324  10.817  19.407  20.164  0.0918  0.1264  0.1498
29272W        W72325   0.780  20.768   9.124  0.1280 -0.0846 -0.1112
29273W        W72326   0.464  11.462  20.030 -0.3341  0.0776 -0.0853
29274W        W72327  29.649  13.363  21.746 -0.0271 -0.0426  0.0876
29275W        W72328   9.954  21.648  16.512  0.0162  0.3192  0.1020
29276W        W72329   2.169  23.198  28.215 -0.0867 -0.0112  0.1844
29277W        W72330  14.161  20.347  18.413  0.1666  0.1527  0.0441
29278W        W72331  26.909  24.943  15.766 -0.3123  0.1754  0.0518
29279W        W72332   8.241   2.976  19.717 -0.2636 -0.2874 -0.0831
29280W        W72333  10.232  32.691  22.804  0.2361 -0.1564 -0.2173
29281W        W72334   0.913  24.767  26.849  0.0501  0.2622 -0.1124
29282W        W72335   3.557  20.779  21.551  0.2796  0.0931 -0.0756
29283W        W72336   5.835   6.914  17.716  0.0303  0.0835 -0.1301
29284W        W72337  14.959  32.487   9.973 -0.2473 -0.2628  0.1261
29285W        W72338  19.336  11.404  24.378  0.2142 -0.0312  0.0149
29286W        W72339   3.816   8.443  24.908 -0.0110  0.0078 -0.2378
29287W        W72340  12.708  10.859  24.965 -0.0942 -0.0555  0.1084
29288W        W72341   4.714  21.405  19.263 -0.1894  0.3191 -0.4855
29289W        W72342   3.776  23.141  22.150  0.0123  0.1826  0.1677
29290W        W72343   7.133  16.002  25.254 -0.0191 -0.1928 -0.0783
29291W        W72344   5.532  23.533   5.132 -0.0030  0.2558  0.1556
29292W        W72345  19.841  20.582  21.877 -0.0776 -0.0084 -0.0680
29293W        W72346   2.290  19.547  13.575  0.1205 -0.1084  0.0272
29294W        W72347   4.981  22.173  22.054 -0.0786  0.0505  0.0363
29295W        W72348  28.798  21.302  17.736  0.1489  0.3851  0.1300
29296W        W72349  27.482   8.946  21.302  0.1966 -0.1373 -0.3338
29297W        W72350   0.781  33.449  24.602  0.1561 -0.0880 -0.1051
29298W        W72351   2.272  22.338  26.574  0.1854 -0.0492 -0.2008
29299W        W72352   6.079   4.587   4.324  0.0344  0.2158 -0.0280
29300W        W72353  33.549   2.936  24.481 -0.0281  0.0956  0.2522
29301W        W72354  31.739  18.485  14.221 -0.1124 -0.1060 -0.2332
29302W        W72355  30.838  23.229  14.471 -0.1885 -0.4002  0.0281
29303W        W72356   9.232  28.007  16.959 -0.0011  0.2226  0.6240
29304W        W72357   3.854  14.719   6.397  0.4139 -0.3206 -0.2458
29305W        W72358  25.169  10.779  23.828  0.1956  0.0997  0.1125
29306W        W72359  12.686  18.188  14.824 -0.0162  0.1564 -0.0235
29307W        W72360   8.773  18.715  17.438  0.0675  0.1337  0.0181
29308W        W72361  21.373  33.156  26.806  0.4516 -0.0514 -0.0652
29309W        W72362  13.233   0.350  18.545 -0.1377 -0.0975 -0.0127
29310W        W72363  14.217   7.627  19.478  0.1363  0.0067 -0.1857
29311W        W72364  24.661  29.444   5.652 -0.0256  0.0545  0.2708
29312W        W72365   0.913  26.631  26.731  0.0889  0.2369 -0.0993
29313W        W72366   1.960  14.385   7.155 -0.2009  0.0121 -0.0500
29314W        W72367  31.867  29.045  23.242  0.0864 -0.2804 -0.0391
29315W        W72368   3.632  16.067  27.196  0.2556 -0.1621 -0.0062
29316W        W72369   4.670  11.074   2.636  0.1738  0.0985 -0.0881
29317W        W72370   4.950  27.605  15.070 -0.0590 -0.3443  0.0279
29318W        W72371   1.195  13.946  20.718  0.2068  0.0577 -0.0446
29319W        W72372   6.156  18.043   6.996  0.3897 -0.0616  0.1181
29320W        W72373  30.335  32.044  22.207  0.1811  0.0800 -0.1936
29321W        W72374  18.907   3.961  23.599 -0.0508 -0.1802 -0.1591
29322W        W72375   5.995   5.562  14.277  0.0094 -0.1604  0.2403
29323W        W72376  29.957  21.609  17.158 -0.0681 -0.1899 -0.1219
29324W        W72377   0.712  14.578   3.600  0.0612 -0.0914 -0.0754
29325W        W72378  12.623  19.075  16.042  0.3028 -0.2327  0.1261
29326W        W72379   4.594  20.027  18.349  0.4182  0.1110 -0.0442
29327W        W72380  29.512  10.992  27.975  0.2423  0.0858  0.2341
29328W        W72381   9.018  14.917  18.667 -0.0691 -0.2663 -0.0509
29329W        W72382   2.259  19.887   1.326  0.0812  0.0757  0.0802
29330W        W72383   3.921  22.871  24.345  0.0805  0.1581 -0.0062
29331W        W72384  28.549  12.530  15.985  0.0143 -0.3035 -0.0515
29332W        W72385  13.998  29.757  16.530  0.1753 -0.2824  0.0465
29333W        W72386   0.959  21.815   1.955  0.2913  0.1596 -0.0864
29334W        W72387  10.150   1.322  21.541 -0.1225  0.3917  0.0171
29335W        W72388  10.231   3.538   0.688  0.2560 -0.1498 -0.3014
29336W        W72389  29.703  27.710  22.571 -0.3279  0.1603 -0.0790
29337W        W72390  30.387  14.391   0.600 -0.0845  0.0038  0.1593
29338W        W72391  13.543   0.294   3.240 -0.2141  0.4418 -0.1737
29339W        W72392   0.764  26.136   6.855  0.0581  0.1108  0.1839
29340W        W72393  29.259  21.146   0.251 -0.0696 -0.1565  0.0780
29341W        W72394   5.544  34.417  23.093 -0.1317 -0.2553 -0.0033
29342W        W72395   0.822  22.016  16.515  0.1539 -0.1058 -0.0365
29343W        W72396  31.431  17.441  24.719  0.1954  0.3663  0.1830
29344W        W72397  25.747  30.949  15.276  0.3737  0.0314  0.0754
29345W        W72398   2.250  21.684   2.032  0.1514  0.1449  0.1291
29346W        W72399  11.049  12.681  27.401  0.0932 -0.0556 -0.0271
29347W        W72400   8.255  20.216  19.405 -0.1413 -0.3377 -0.1080
29348W        W72401   0.802   5.036  26.075  0.1090 -0.1630  0.0909
29349W        W72402  10.287  21.611  28.234  0.0701  0.1489 -0.0296
29350W        W72403   9.963  16.631  24.137  0.0954 -0.3590 -0.1592
29351W        W72404   9.880   8.456  15.247 -0.2860  0.2227 -0.2120
29352W        W72405   3.842  13.838  24.988 -0.2698 -0.0306 -0.2855
29353W        W72406   9.882   9.217  20.908  0.2360  0.0683 -0.1352
29354W        W72407   1.973  29.276  28.312 -0.0123  0.0579 -0.0239
29355W        W72408  31.032  32.797  24.334 -0.2400  0.2180 -0.0336
29356W        W72409  16.978  21.206  15.914  0.1374 -0.1252  0.1122
29357W        W72410  15.118  23.789  24.166 -0.0670 -0.0033  0.1161
29358W        W72411  26.213   7.131  25.257  0.0576 -0.0478  0.1885
29359W        W72412  16.888  29.509  15.252 -0.1540  0.3028  0.5462
29360W        W72413  28.907  19.623  19.123 -0.0567  0.0940  0.3435
29361W        W72414  13.248  12.897  20.742  0.1872  0.0830  0.1514
29362W        W72415   7.570  20.923  15.267 -0.0033 -0.0490 -0.2416
29363W        W72416  13.370  31.087  26.270  0.1140 -0.3908 -0.0054
29364W        W72417  16.849   0.522  17.483 -0.0375  0.0601  0.1859
29365W        W72418   7.094  10.181  28.098 -0.0629 -0.0646  0.1443
29366W        W72419  13.609  26.182  23.405  0.2321 -0.1080 -0.2562
29367W        W72420   4.597  19.390  17.585 -0.0186  0.0284  0.1162
29368W        W72421  33.814  27.042  26.522 -0.0447 -0.1937  0.1348
29369W        W72422   8.948  12.347  20.176 -0.0615  0.1077  0.0171
29370W        W72423  19.106  33.245  27.503  0.0709 -0.3601 -0.0792
29371W        W72424   7.717  30.464  25.582  0.0660  0.3355  0.0965
29372W        W72425  27.815  17.097  27.722  0.2543  0.1006  0.0414
29373W        W72426  33.402  10.021   4.387  0.3524 -0.1227  0.0577
29374W        W72427  34.681  26.076  16.119  0.2492  0.2493 -0.0131
29375W        W72428  21.433  27.026  26.708  0.0656 -0.1795 -0.4070
29376W        W72429   2.424  14.954   8.312 -0.0108 -0.3214  0.0665
29377W        W72430   2.831  30.334  18.373  0.2339 -0.0964 -0.0335
29378W        W72431  21.610  30.229   0.457 -0.0655  0.0377 -0.0684
29379W        W72432   9.965   2.343  19.806 -0.3606 -0.1476  0.0325
29380W        W72433   5.400   9.242  23.380  0.0771 -0.0238 -0.1899
29381W        W72434  23.423   5.971  24.732 -0.0757  0.1698  0.1534
29382W        W72435  26.425   1.188   0.502 -0.0455  0.0837  0.1464
29383W        W72436  18.317  27.414  26.631 -0.1678  0.1011 -0.0747
29384W        W72437   7.614  16.731  14.363 -0.2941  0.0194 -0.0206
29385W        W72438  33.622  14.258  16.541 -0.0950  0.1940 -0.2091
29386W        W72439  16.729  24.193  24.063 -0.1051  0.0378  0.1091
29387W        W72440  34.557  12.168  16.823 -0.0294  0.3198 -0.0292
29388W        W72441  12.681  20.758  19.617  0.4094 -0.2057  0.1162
29389W        W72442  20.904  11.774  20.413  0.1508 -0.3588 -0.2280
29390W        W72443  14.960   8.712  24.680 -0.0126 -0.0270 -0.0277
29391W        W72444   5.354   1.667   7.765  0.2006  0.0503 -0.0129
29392W        W72445   5.619  20.471   7.653 -0.2496 -0.0825 -0.3196
29393W        W72446   7.804  17.188   6.689  0.1511 -0.0260 -0.2579
29394W        W72447  30.266  12.839  26.611  0.0650 -0.1418  0.0032
29395W        W72448  34.216  14.246  19.456 -0.0578  0.0491  0.0344
29396W        W72449  13.005  29.263  21.574 -0.0839 -0.4033  0.0158
29397W        W72450  10.181   7.433  26.694 -0.3167 -0.1498 -0.1627
29398W        W72451   8.937  17.331   1.086  0.1664  0.2004  0.2617
29399W        W72452  32.390  12.942  24.667 -0.1522  0.0881 -0.0199
29400W        W72453   2.916   3.261   4.980 -0.0372 -0.0350  0.0863
29401W        W72454   6.028  25.835  27.758  0.3393  0.0515  0.2228
29402W        W72455  30.040  11.978   0.060 -0.0706 -0.0760  0.0664
29403W        W72456   9.512  23.726  21.276  0.0056 -0.0821  0.1746
29404W        W72457   4.168   3.210  27.733 -0.0384 -0.2547  0.0434
29405W        W72458   2.039   1.581  13.053  0.1895  0.1088  0.0834
29406W        W72459  13.627  23.999  16.976 -0.3657 -0.0137  0.1675
29407W        W72460   3.479  18.283  16.616  0.0584 -0.0278  0.0199
29408W        W72461  24.673  24.116  18.273  0.0409  0.0979 -0.2908
29409W        W72462   5.692  22.973  24.302 -0.1418 -0.1098  0.1855
29410W        W72463   5.521  16.558  17.821 -0.4497  0.3081 -0.2657
29411W        W72464   4.991  16.125  17.227 -0.2704 -0.0204  0.5657
29412W        W72465  19.041  14.257  26.859 -0.0868 -0.1084  0.4525
29413W        W72466   2.710  16.248  26.782 -0.4300  0.0708  0.2659
29414W        W72467   6.988  23.786  28.690 -0.2831 -0.1097  0.2103
29415W        W72468   7.326   0.682  21.849 -0.0518 -0.0769 -0.0817
29416W        W72469   9.359   0.846   0.955 -0.0170 -0.2024  0.0582
29417W        W72470   6.126  21.570   9.333  0.1110 -0.1190  0.0048
29418W        W72471   5.826  25.171  25.736 -0.2183  0.1000 -0.3036
29419W        W72472  29.558  32.381  18.702  0.0538  0.0677  0.0717
29420W        W72473   8.173  19.341  24.538 -0.2253 -0.0799  0.0332
29421W        W72474  31.118  27.831  18.987 -0.1460  0.0615  0.0125
29422W        W72475  10.910  17.674   4.118 -0.1047 -0.1233  0.0566
29423W        W72476  26.781  19.275  26.892 -0.1988 -0.0336 -0.0331
29424W        W72477  33.338  12.147   5.972 -0.2800  0.1714  0.1955
29425W        W72478   4.533  19.598   9.024  0.2950 -0.3231  0.1929
29426W        W72479  11.028   9.079  27.924 -0.1533  0.0039  0.0196
29427W        W72480  29.008  21.437  25.567  0.0917  0.1397  0.0559
29428W        W72481   9.413  12.718   9.049  0.1552 -0.2289  0.1814
29429W        W72482   2.093  21.743  25.630  0.1808  0.1873  0.0528
29430W        W72483  32.571  27.644  25.961 -0.1099  0.0249 -0.0809
29431W        W72484   7.138  21.429   2.936 -0.1061  0.1768 -0.2322
29432W        W72485  26.748  21.164   7.784 -0.0172 -0.3023 -0.0936
29433W        W72486   2.952  31.337  21.440 -0.1731  0.2086 -0.0516
29434W        W72487   5.324  19.477  14.343 -0.0096  0.2581  0.0426
29435W        W72488  23.624  11.516  28.815 -0.1461 -0.1165 -0.0417
29436W        W72489  10.141  18.010   2.375 -0.2740  0.1563 -0.4649
29437W        W72490   7.248  30.924   4.244  0.3564 -0.1012  0.0169
29438W        W72491  12.550   8.963   0.207  0.1328 -0.2524 -0.3268
29439W        W72492   3.103  14.007   7.315 -0.0759 -0.0596  0.3011
29440W        W72493  15.794  24.910  19.334 -0.0015 -0.3692 -0.2481
29441W        W72494  11.761   3.265  20.806  0.0361  0.4731 -0.2005
29442W        W72495   0.944  25.701  20.397  0.3034 -0.2857 -0.2628
29443W        W72496   9.221  25.145  16.583 -0.0934 -0.1062  0.1369
29444W        W72497  13.041   0.058  20.047  0.0295  0.0717  0.4525
29445W        W72498  30.694  25.044   8.654 -0.0287  0.2358  0.1214
29446W        W72499  16.010  26.013  24.119  0.2938 -0.2868 -0.1386
29447W        W72500  15.290  15.005  14.933 -0.0188 -0.1180  0.0556
29448W        W72501   9.410  26.570  13.761  0.3539  0.1848 -0.0396
29449W        W72502   8.860  26.966  24.372 -0.2058 -0.1329  0.0868
29450W        W72503  13.843  18.862  15.069 -0.1464 -0.2553 -0.3710
29451W        W72504  16.502  20.967  23.655 -0.3666  0.3198  0.0426
29452W        W72505  12.035   0.503  16.983 -0.2188 -0.1636 -0.0225
29453W        W72506  18.129  19.222   2.861 -0.1724  0.0054  0.0349
29454W        W72507   8.575   5.004  28.514 -0.0384  0.0018 -0.2983
29455W        W72508  13.118  25.895  27.383 -0.4087  0.1847  0.4113
29456W        W72509   9.298  19.899  18.586  0.1314 -0.0248 -0.3500
29457W        W72510  29.659  25.546  28.914 -0.3449  0.0594 -0.0473
29458W        W72511   4.639  23.044  27.887  0.3490  0.0086 -0.2703
29459W        W72512   1.123  10.077   8.607  0.2324 -0.0997 -0.0248
29460W        W72513  19.331  17.452   3.259 -0.3509  0.1036 -0.2033
29461W        W72514   4.372  13.231  27.521 -0.0336 -0.0375  0.1410
29462W        W72515  17.715   6.701  16.161  0.1436 -0.2758  0.0355
29463W        W72516  21.940  20.186   2.292  0.0647  0.0131  0.1079
29464W        W72517  28.240  25.141  25.402  0.1018 -0.1468  0.0731
29465W        W72518  11.657  17.019  10.058  0.2512  0.2807 -0.0536
29466W        W72519   5.022  31.095  24.659 -0.4678  0.0932  0.0583
29467W        W72520  20.493   1.712  20.903 -0.3209 -0.2070  0.1769
29468W        W72521   3.995  23.429  13.479 -0.0237 -0.2071 -0.2042
29469W        W72522  30.522  15.230  20.840  0.0649  0.1943 -0.1851
29470W        W72523   6.342  32.567  19.560  0.0127  0.0822 -0.0329
29471W        W72524  31.833  20.025   2.685  0.2133 -0.0478 -0.2375
29472W        W72525   4.418  29.878   9.379  0.0417  0.0058 -0.1203
29473W        W72526   6.336  17.392   2.147  0.0973 -0.0321  0.1523
29474W        W72527   2.686  12.562  20.130 -0.1577  0.0184  0.2319
29475W        W72528  15.204  25.266  16.800  0.1928  0.1246 -0.2870
29476W        W72529   2.990  31.810   3.801  0.0197  0.2871  0.3158
29477W        W72530   1.848  26.044  23.564  0.1247 -0.1098 -0.1427
29478W        W72531  30.155   2.775   0.230 -0.3753  0.1003  0.0556
29479W        W72532  19.370  22.426   2.653 -0.0004  0.1033  0.0230
29480W        W72533  21.242  21.954  15.131 -0.1799 -0.1095 -0.2608
29481W        W72534  31.373  28.590   3.694 -0.0465  0.0092  0.0287
29482W        W72535   5.772  24.591   9.548  0.4073 -0.0567  0.0061
29483W        W72536   9.173  34.158   5.474 -0.1414 -0.0244  0.1559
29484W        W72537  32.670  31.737  21.237 -0.1750 -0.1136  0.0439
29485W        W72538   9.228  20.438   0.882  0.0324  0.0737  0.0224
29486W        W72539  10.125  22.494   2.654  0.1228 -0.0166  0.0703
29487W        W72540  14.525  15.538  27.928 -0.2358  0.1417  0.2924
29488W        W72541   2.359   4.205   5.604 -0.1460 -0.1869 -0.2960
29489W        W72542  15.251  26.643   0.039 -0.0214  0.0286 -0.3293
29490W        W72543   0.010   9.130  10.318  0.1763  0.0121  0.1656
29491W        W72544   7.208  18.123  23.063  0.4160  0.0896 -0.2116
29492W        W72545  11.551   9.946   9.093 -0.1145 -0.1625  0.0244
29493W        W72546  13.808  28.925  21.959 -0.0875  0.0357  0.0144
29494W        W72547  15.777  23.151  27.031 -0.0775 -0.1352 -0.1341
29495W        W72548  12.294  20.840  28.653  0.0821  0.1737  0.1854
29496W        W72549  32.292  16.511  14.649  0.4350  0.2498  0.0096
29497W        W72550   2.314  23.837   5.110  0.0913 -0.1424  0.0330
29498W        W72551  29.651  21.719   3.890  0.1863 -0.3467 -0.3004
29499W        W72552   4.330  10.909  28.512 -0.0268  0.2854 -0.1486
29500W        W72553   8.097  26.191  25.412 -0.4330 -0.2738 -0.1833
29501W        W72554  18.352   4.316   9.389  0.3659 -0.0100  0.0544
29502W        W72555   6.976  11.985   1.322 -0.0136  0.3105  0.2595
29503W        W72556  13.812  24.763  15.920 -0.0070 -0.3458 -0.1900
29504W        W72557   4.545  25.699   3.051 -0.1517  0.1776  0.1095
29505W        W72558   4.420  16.363  17.381 -0.3179  0.0970  0.3149
29506W        W72559  25.096  22.507  25.622  0.2996 -0.0769 -0.2024
29507W        W72560  29.816  26.502  16.347  0.1643  0.3381 -0.4477
29508W        W72561  30.311  21.017  18.384 -0.1874 -0.2023  0.0465
29509W        W72562  13.954  17.952  25.927  0.0205  0.3253 -0.0842
29510W        W72563   8.418  18.394   1.811  0.1759 -0.3172 -0.0010
29511W        W72564   4.461  17.080   8.073  0.2372  0.1754 -0.3273
29512W        W72565   5.061   3.003  23.605  0.3120 -0.2119 -0.2069
29513W        W72566  12.303  32.090   9.077  0.2782 -0.0376  0.0513
29514W        W72567  10.680  12.888  23.393 -0.1188 -0.0038  0.0269
29515W        W72568  25.564  28.800  27.238  0.4133  0.1018 -0.0639
29516W        W72569   3.973  31.668  27.423  0.0382 -0.0746  0.1404
29517W        W72570   7.277   9.297   2.323 -0.0257 -0.3176 -0.0198
29518W        W72571   6.524  23.402   7.278  0.0260 -0.2849 -0.0844
29519W        W72572  33.261  24.473  19.776 -0.1594 -0.1369  0.1424
29520W        W72573  12.215   0.250   4.860  0.0472 -0.0677  0.1638
29521W        W72574  10.742   1.365   5.869 -0.1711 -0.2183 -0.0698
29522W        W72575   6.287  20.814  16.721 -0.1214  0.0082 -0.1255
29523W        W72576  11.098  16.509  26.495  0.0761  0.2645 -0.2940
29524W        W72577  33.704  10.637  22.428 -0.1331  0.0871  0.0892
29525W        W72578  30.654   7.662   9.353  0.1120 -0.2206  0.0831
29526W        W72579   6.962  31.949  14.426  0.0120 -0.0234 -0.0045
29527W        W72580   2.376  11.141  19.156 -0.0814 -0.1821 -0.1101
29528W        W72581  15.672  11.707  25.401 -0.0752  0.1785  0.0070
29529W        W72582  12.183  13.259   5.259  0.1608 -0.1106  0.0148
29530W        W72583   1.514  21.728   6.192 -0.3204 -0.2252 -0.1277
29531W        W72584  31.731  15.294  19.176 -0.2185 -0.0867  0.2382
29532W        W72585   4.331  15.891  28.070 -0.0637  0.0469  0.2499
29533W        W72586  21.342  24.827  22.096 -0.2778  0.0189 -0.0729
29534W        W72587  27.002  16.679   9.752 -0.1767 -0.0370 -0.2344
29535W        W72588  32.857  27.248  12.855  0.1225  0.1226  0.0904
29536W        W72589   2.264  23.292  17.299  0.0654  0.1356 -0.2168
29537W        W72590   3.284  12.626  19.422  0.3292 -0.0576  0.1281
29538W        W72591   4.189  17.965   2.963 -0.1271 -0.0498  0.1643
29539W        W72592  31.360  27.180   8.273 -0.0613  0.2546  0.3175
29540W        W72593   7.108  12.998  22.816 -0.0019  0.1067  0.1493
29541W        W72594   5.873  11.829  27.622  0.0374  0.0743  0.4172
29542W        W72595  21.013  16.027   2.035  0.1883 -0.0395 -0.0437
29543W        W72596  18.117   1.195  22.427  0.2633  0.3113 -0.1737
29544W        W72597   2.557  27.470  22.454 -0.0341  0.2194 -0.0551
29545W        W72598   0.897   5.154   7.135 -0.1126  0.0451 -0.1734
29546W        W72599   9.234  29.289   5.965 -0.2771  0.3248  0.0304
29547W        W72600   1.908  19.498   0.578  0.2492 -0.0630  0.1433
29548W        W72601  20.123  25.532   6.954  0.0849  0.0405 -0.1444
29549W        W72602   4.376  13.102   6.119 -0.1050  0.1681 -0.1802
29550W        W72603  29.976   7.255  21.734  0.1742  0.1124  0.0026
29551W        W72604  28.067  16.427  19.655  0.4066  0.0474  0.1807
29552W        W72605  15.424   8.289   5.643  0.0945 -0.1934  0.0823
29553W        W72606   3.114  19.266   5.559 -0.1820  0.0771  0.2368
29554W        W72607   0.114  17.894  15.627  0.0007 -0.0254  0.1846
29555W        W72608   8.267  22.367   3.704 -0.0186  0.2797  0.0889
29556W        W72609  16.788  32.694  15.573  0.0458 -0.0519 -0.2496
29557W        W72610  32.374  11.492   9.696  0.0703 -0.0525 -0.0458
29558W        W72611   8.387  19.073  28.330  0.0824 -0.0062  0.2360
29559W        W72612  14.920  27.989  19.604  0.0463  0.0101 -0.2944
29560W        W72613  14.623  33.484  25.592 -0.0733  0.2886 -0.0539
29561W        W72614  15.596  23.671  20.009  0.1145 -0.1019 -0.1741
29562W        W72615  11.351  13.170  19.843 -0.1176 -0.1024  0.0615
29563W        W72616   6.097  27.898  13.417 -0.0729 -0.0696  0.1524
29564W        W72617  29.375  32.608  14.266 -0.1026 -0.2240 -0.2389
29565W        W72618   4.431   5.224  17.807 -0.1450  0.0849 -0.1818
29566W        W72619  11.494  26.497   9.135 -0.3402  0.0432 -0.1798
29567W        W72620  34.528  24.792   0.334  0.5303  0.1186  0.0918
29568W        W72621  10.331  14.668  10.168  0.1706  0.0725 -0.4189
29569W        W72622  29.992  20.034  21.710  0.3016  0.0395  0.3847
29570W        W72623   4.232  24.453   3.142 -0.3091  0.1089 -0.4066
29571W        W72624   4.570  12.831  27.328  0.3268  0.1248  0.0352
29572W        W72625  14.758  31.730   6.284 -0.0258  0.0900 -0.0125
29573W        W72626   4.511  20.879  26.853  0.1240 -0.0673  0.1735
29574W        W72627   1.350  31.432   1.067 -0.2193  0.1248  0.0638
29575W        W72628  11.618  18.024  19.814  0.0303 -0.1592  0.0731
29576W        W72629   3.019   2.420  27.970 -0.1230  0.2606  0.0548
29577W        W72630   3.526  28.282  22.175 -0.0806  0.0740 -0.2195
29578W        W72631  10.755  23.011  18.612  0.1923 -0.3128 -0.1622
29579W        W72632  32.936  12.949   1.027  0.3692 -0.1963  0.0602
29580W        W72633  30.229  21.282   7.421 -0.1418  0.5169 -0.0890
29581W        W72634  34.551  17.756   3.374 -0.0629  0.1188  0.0748
29582W        W72635   8.068  29.413  28.675  0.0157 -0.1218  0.0675
29583W        W72636  29.696  18.301   7.576  0.0466 -0.1319 -0.0955
29584W        W72637  29.237  10.047  21.474 -0.0238  0.1002 -0.0592
29585W        W72638   9.844  10.153   7.352 -0.1794  0.0643 -0.5148
29586W        W72639  29.702  10.852  17.763 -0.1881  0.1169 -0.2730
29587W        W72640   6.731  28.087   2.281  0.0815  0.1412  0.0758
29588W        W72641   3.098  34.127  17.720 -0.1456  0.0389 -0.2629
29589W        W72642   1.683  13.245   6.617  0.2548 -0.0657 -0.1886
29590W        W72643   6.351  15.828  25.004 -0.1494  0.1038  0.0924
29591W        W72644  22.825   7.629  22.996 -0.0667  0.2292  0.0854
29592W        W72645   6.126  16.746  20.643  0.0425 -0.0668  0.1498
29593W        W72646  14.704   7.848   5.568 -0.0278 -0.1866  0.0878
29594W        W72647  30.111  24.364  21.021  0.0736 -0.0570 -0.3996
29595W        W72648  15.227  28.912   8.607  0.1884 -0.0004 -0.3001
29596W        W72649  28.370   5.009  23.944 -0.2076 -0.3315  0.0198
29597W        W72650  25.454  28.895  19.556 -0.1849 -0.0729 -0.1267
29598W        W72651  13.514  30.767   4.388  0.1985  0.0912 -0.0936
29599W        W72652  29.358  11.068   6.693 -0.0663  0.1367  0.0953
29600W        W72653   1.423  24.226  25.631  0.0538  0.1654 -0.2562
29601W        W72654  26.737   9.084   8.163 -0.1515  0.0554  0.1358
29602W        W72655   8.543  24.011  22.738  0.3885  0.4877 -0.2117
29603W        W72656   0.812  13.234   4.707  0.0787 -0.1049 -0.0724
29604W        W72657   5.477   1.614   5.219  0.2337  0.2832 -0.0735
29605W        W72658   0.894  12.190  16.125 -0.3530 -0.0838 -0.0426
29606W        W72659  23.251  30.820  13.560  0.0280 -0.1782 -0.0262
29607W        W72660  10.170  28.212   4.062 -0.3335 -0.1748  0.3580
29608W        W72661   7.326   2.050  26.373  0.0805  0.3132 -0.0223
29609W        W72662   8.650  15.744   5.294  0.0214  0.0864 -0.1348
29610W        W72663  32.975  19.561  15.857 -0.3482  0.1803  0.1433
29611W        W72664   8.619  18.166   7.108  0.1007  0.0425  0.0564
29612W        W72665  11.103  19.910  23.501  0.1573 -0.0145  0.0174
29613W        W72666   8.040   0.109   1.178 -0.0458  0.1281  0.0583
29614W        W72667  33.635  26.250  21.774 -0.0311 -0.0503 -0.1595
29615W        W72668  33.846  26.825   6.661 -0.0290 -0.0549  0.1980
29616W        W72669  10.968  23.247  28.549 -0.1418  0.1808 -0.2160
29617W        W72670  28.435  20.587  21.025  0.1791  0.0518 -0.2551
29618W        W72671  30.064   7.037   9.021 -0.1878 -0.2257  0.2815
29619W        W72672  12.840  23.529   8.835  0.0717 -0.1749  0.2041
29620W        W72673  16.994  11.041  21.086 -0.1910 -0.3888  0.3808
29621W        W72674   1.715  24.549  25.291 -0.1688 -0.1538  0.0561
29622W        W72675  11.550  24.502   4.043  0.5906 -0.2027 -0.1197
29623W        W72676   6.085  13.866  15.086 -0.0146 -0.0487 -0.1455
29624W        W72677  10.093  15.166  24.643  0.0200 -0.0203  0.2342
29625W        W72678  14.837  26.982   5.256  0.1005 -0.1958  0.1637
29626W        W72679  11.637  34.571   0.555  0.0471 -0.0643  0.1320
29627W        W72680   9.632   6.186   7.838  0.0191  0.0795 -0.1327
29628W        W72681  31.479  10.838   1.121  0.0081 -0.0704  0.2964
29629W        W72682  20.787  12.351  18.153  0.1192  0.2434 -0.1810
29630W        W72683  24.459  22.692   3.566  0.2090  0.0844  0.0428
29631W        W72684  34.063  19.346   0.204  0.1497  0.1070  0.1893
29632W        W72685  26.047  25.222  10.706  0.1359 -0.3150 -0.0216
29633W        W72686  34.332  11.806   9.019  0.1457  0.2443  0.1010
29634W        W72687   5.176  20.228   8.273 -0.2087  0.2687  0.2245
29635W        W72688  20.392  20.207   9.823  0.0272 -0.4063  0.1152
29636W        W72689   6.983   3.775  24.647  0.0513 -0.0757 -0.0165
29637W        W72690   6.122  27.785   7.745 -0.0537  0.1469  0.2196
29638W        W72691  14.047   0.331  28.995 -0.0474  0.0898 -0.0254
29639W        W72692  26.989  21.818  16.365 -0.1518 -0.0477  0.0720
29640W        W72693   5.523  20.121  16.485 -0.0320 -0.1350  0.0586
29641W        W72694   5.724  14.238  21.796  0.1596 -0.0264  0.0068
29642W        W72695  14.117  25.469  24.385 -0.2992 -0.3906 -0.2750
29643W        W72696   7.333   6.531   2.169  0.0451  0.0880 -0.1482
29644W        W72697  30.957  17.945   8.338  0.0929  0.1424 -0.0298
29645W        W72698   8.835  22.003  21.633  0.2136 -0.2550  0.1050
29646W        W72699  22.646  12.327   8.426 -0.1242 -0.3457  0.0635
29647W        W72700  15.546  22.233   0.830 -0.0234  0.1574 -0.1843
29648W        W72701  13.844  18.631  28.904 -0.0867 -0.0779 -0.0547
29649W        W72702   2.138  22.489  26.025 -0.1875 -0.0137 -0.4325
29650W        W72703  33.523  28.569   8.038 -0.3111  0.1136  0.1138
29651W        W72704  34.403  18.878   3.736 -0.2023  0.0935 -0.2667
29652W        W72705   0.257  33.086  20.088 -0.2092 -0.1196  0.1060
29653W        W72706  33.784  11.148   2.252 -0.2628 -0.2594 -0.0826
29654W        W72707  22.287  28.270  21.469  0.0806 -0.0707 -0.0708
29655W        W72708   7.015  11.573  21.794 -0.1132  0.0792 -0.0617
29656W        W72709  31.949  13.664  16.523 -0.3900  0.0418  0.2301
29657W        W72710  13.494   6.382  23.947  0.0052 -0.2187 -0.0878
29658W        W72711  13.693  16.969   5.710  0.0508 -0.1867 -0.1735
29659W        W72712  27.324  17.741  14.554  0.2653 -0.1749 -0.1908
29660W        W72713  11.716  17.201  25.502 -0.0747  0.1102  0.0061
29661W        W72714   0.971   0.390   5.610  0.0911 -0.0967 -0.1057
29662W        W72715  30.117  21.911  17.506  0.0438 -0.0914 -0.2112
29663W        W72716   5.842  32.834  21.745 -0.0633  0.0364 -0.0587
29664W        W72717   5.483  34.202  28.034  0.2074 -0.0106 -0.2937
29665W        W72718  23.307  16.169  24.860  0.1306  0.1049  0.1946
29666W        W72719  19.085  24.403   1.201  0.2789 -0.1774 -0.0850
29667W        W72720   1.478  17.237  19.168 -0.3035  0.0219 -0.4432
29668W        W72721  12.153  14.417   0.627  0.0257 -0.1873 -0.1043
29669W        W72722   6.272  11.709  21.491  0.0455 -0.1761 -0.1262
29670W        W72723  29.516  30.518  21.285  0.1513  0.1885 -0.0550
29671W        W72724  12.529   1.312  27.855 -0.3005  0.1782 -0.1669
29672W        W72725  15.237  17.372   0.790 -0.4628 -0.1394  0.0227
29673W        W72726   2.970  11.186  19.479  0.3494  0.0741 -0.0230
29674W        W72727  25.139  28.890  20.706  0.1277  0.2634  0.2271
29675W        W72728  34.240  21.807  17.596  0.1208  0.0097 -0.1861
29676W        W72729  31.396  30.128  27.817  0.1021  0.2222 -0.2194
29677W        W72730   9.784  28.701  26.335 -0.0068  0.0132  0.0321
29678W        W72731  14.869  15.735   7.152 -0.0713  0.5124 -0.0439
29679W        W72732   6.971   8.704  26.280 -0.1061  0.1391  0.0453
29680W        W72733   5.591  19.746   3.058  0.3504  0.1101  0.0495
29681W        W72734  19.761  25.187   7.935  0.0546  0.0358 -0.1061
29682W        W72735   3.697  17.268  22.101  0.1077  0.1300  0.4648
29683W        W72736  11.018  15.485   7.663 -0.0722  0.0481 -0.0193
29684W        W72737  19.894  18.588  21.545 -0.0411 -0.0035 -0.2536
29685W        W72738   2.958  24.355   8.818  0.2270  0.0051 -0.1421
29686W        W72739  26.643  25.231  18.333  0.1405  0.2121  0.1743
29687W        W72740   7.317  19.759   2.066  0.1393  0.0726  0.6101
29688W        W72741  12.756  18.197  15.834 -0.0048 -0.1156  0.2554
29689W        W72742   5.134  26.913   6.188  0.0391  0.3513 -0.4138
29690W        W72743   3.929  10.377   8.127  0.0028 -0.3081  0.1107
29691W        W72744   3.582   8.845  15.754 -0.0057 -0.2601  0.0048
29692W        W72745  32.938  10.824  25.443  0.3420 -0.2713 -0.3178
29693W        W72746   1.735  28.259  18.168 -0.1089 -0.0859  0.1012
29694W        W72747   8.218  20.834  19.449  0.2160 -0.1066 -0.0460
29695W        W72748  16.008   9.129  16.930 -0.0169  0.0575  0.0611
29696W        W72749  24.706   9.311   4.615 -0.0467 -0.2133  0.0199
29697W        W72750   2.971  18.398  25.832 -0.2577  0.1529 -0.2829
29698W        W72751  33.907  15.440  21.783 -0.1907  0.1506  0.1682
29699W        W72752   2.342  24.602   5.252  0.3015 -0.0688 -0.0076
29700W        W72753  25.744  26.119  26.469  0.0090  0.3012 -0.1043
29701W        W72754  24.835  18.083   0.270  0.0288  0.0506  0.0115
29702W        W72755  31.998  24.746  13.120  0.2127 -0.1945 -0.0377
29703W        W72756  33.363  22.898  28.602  0.1661 -0.2326  0.4663
29704W        W72757  26.561  19.891  24.874 -0.1786 -0.2909 -0.1823
29705W        W72758  22.267  19.712  27.391 -0.3047  0.0644 -0.0139
29706W        W72759   8.264  17.926  16.465  0.1118 -0.0562  0.1742
29707W        W72760   5.589  18.708  15.976  0.1711 -0.0887 -0.1028
29708W        W72761  13.932  16.391  25.816 -0.2588  0.2987  0.0070
29709W        W72762   3.760  27.854  22.240 -0.2917  0.2199 -0.0803
29710W        W72763   5.965  21.886   8.509 -0.2932  0.0671 -0.1243
29711W        W72764   2.307  19.515  22.519  0.0737  0.2568  0.1491
29712W        W72765   4.780  12.329   4.571 -0.2115  0.1252 -0.0394
29713W        W72766  10.085  18.564   5.043 -0.3324  0.0057  0.0174
29714W        W72767  32.210  13.392   5.076 -0.2031 -0.0104 -0.0147
29715W        W72768   1.115  24.738  23.328 -0.1887  0.0713 -0.2033
29716W        W72769   9.403  15.991   9.309 -0.0494 -0.1227  0.0024
29717W        W72770   7.310   0.579  15.343  0.0972 -0.0552 -0.0145
29718W        W72771   7.726  23.830  13.751  0.1726  0.1069 -0.1822
29719W        W72772   7.370  21.964   4.889 -0.1354 -0.0259 -0.0881
29720W        W72773  10.115  10.265  26.624 -0.0417 -0.2466  0.1361
29721W        W72774   2.938  13.073  26.417 -0.1614 -0.0576 -0.2055
29722W        W72775  15.327  18.684  16.000  0.2714 -0.0554 -0.1071
29723W        W72776  19.566  17.771  22.631 -0.1346  0.2235 -0.0673
29724W        W72777   5.480  26.935   6.948 -0.0438 -0.1592  0.0825
29725W        W72778   2.714   9.322  25.897 -0.1555 -0.2888  0.1791
29726W        W72779   8.809  15.607   5.729 -0.2262  0.1622 -0.0602
29727W        W72780   7.093   0.078   7.527  0.3383 -0.0909 -0.2103
29728W        W72781  33.392  28.015  15.151 -0.0613  0.0096 -0.2245
29729W        W72782   2.960  30.707  26.601 -0.1609  0.2453  0.1192
29730W        W72783  32.025  19.150   7.579  0.0749 -0.1053 -0.1449
29731W        W72784   3.413  27.247   5.348  0.1119  0.2282  0.0427
29732W        W72785  27.024  21.112  24.665 -0.1078  0.3127 -0.0037
29733W        W72786   3.655  23.105   9.656  0.1837  0.0682  0.0137
29734W        W72787  29.018  22.140   0.599  0.0341 -0.0364 -0.0676
29735W        W72788  31.206  13.052  16.785 -0.2823  0.2983  0.0676
29736W        W72789   0.918  24.690  23.903 -0.2184  0.1413  0.1989
29737W        W72790  31.372   7.472  28.339  0.0066 -0.1168 -0.2107
29738W        W72791  33.919  19.570  22.993  0.0046 -0.0839  0.2492
29739W        W72792   7.944  19.441  27.787 -0.2111 -0.4696 -0.1197
29740W        W72793   5.997  25.832  18.087 -0.0218 -0.1411  0.0334
29741W        W72794  13.166  19.429  17.757  0.1545 -0.3731  0.1740
29742W        W72795  32.127  34.614  18.066 -0.0749  0.3373 -0.1753
29743W        W72796   1.804  10.486  24.088 -0.0638  0.2234  0.2914
29744W        W72797   8.717  29.293  21.698  0.1471 -0.0499 -0.3866
29745W        W72798  22.152  14.429   8.962  0.1746 -0.0533  0.1675
29746W        W72799  16.722   3.443   2.642  0.1384  0.3075  0.1588
29747W        W72800   6.241  13.191  20.527  0.2627  0.3469  0.0732
29748W        W72801  13.459  18.619  14.911 -0.1484 -0.0600  0.1115
29749W        W72802  16.632  32.724  16.148 -0.0735  0.1583 -0.0710
29750W        W72803  28.618  32.043   8.442  0.1521  0.1621  0.4330
29751W        W72804  34.022  15.543   4.359 -0.1326  0.1420  0.0146
29752W        W72805   9.189  22.684  18.176 -0.0643 -0.1453  0.0584
29753W        W72806   8.855  14.932  26.141 -0.0664 -0.0692 -0.0490
29754W        W72807   6.760  20.208  23.289 -0.2359  0.2961 -0.3375
29755W        W72808  30.069  33.252  23.623  0.0053  0.0726  0.0092
29756W        W72809  17.070  27.771   0.582  0.3126 -0.2713  0.1632
29757W        W72810   4.404  19.524   0.544 -0.0425 -0.0244 -0.1929
29758W        W72811  20.786  22.987   3.700  0.0690  0.1790  0.0269
29759W        W72812   4.772  25.762   4.511 -0.0938  0.1155  0.1652
29760W        W72813   5.785  15.203  27.054  0.0511  0.1785 -0.5547
29761W        W72814  30.360  24.135   0.185  0.0039  0.1626  0.0673
29762W        W72815   8.429  26.040   5.999  0.3000 -0.1302 -0.1214
29763W        W72816  11.397  10.076  26.316  0.2513  0.0005 -0.2393
29764W        W72817   6.425  25.298   8.328  0.0363 -0.1521 -0.2377
29765W        W72818   8.123   8.312   0.317  0.0647 -0.0155  0.0714
29766W        W72819   3.933  29.178   4.430  0.0482 -0.1371 -0.1773
29767W        W72820   0.656   5.676  19.283  0.2718  0.0313  0.1904
29768W        W72821  10.411   1.680  27.235 -0.2004  0.0426 -0.0897
29769W        W72822   7.893  10.173  28.367 -0.1712  0.4012  0.0624
29770W        W72823  11.073  23.584   4.293 -0.1428  0.2784  0.0362
29771W        W72824   4.922  10.054   4.570  0.3367 -0.2299  0.0798
29772W        W72825  33.456  31.441   4.767 -0.3664 -0.1741  0.2738
29773W        W72826  20.249  12.432   0.075  0.1072  0.1973  0.1102
29774W        W72827  33.838   7.990  25.052  0.1104 -0.1775  0.0455
29775W        W72828   9.134  32.491  26.248 -0.2765 -0.1499  0.2923
29776W        W72829   0.603  21.927  28.235 -0.3333 -0.0411  0.0576
29777W        W72830   3.684  23.094   8.133 -0.4087  0.1376  0.0558
29778W        W72831   9.181  28.964  28.304 -0.3585  0.1029  0.0198
29779W        W72832  16.086   7.820  16.600 -0.0254 -0.0870 -0.1351
29780W        W72833   1.307  11.345  25.092  0.0527  0.2344 -0.1566
29781W        W72834   7.978  25.676  19.015 -0.3955 -0.2949 -0.1136
29782W        W72835  28.618   0.811   6.125 -0.2935 -0.0717 -0.1919
29783W        W72836  26.123   3.984   7.498 -0.2790 -0.1519  0.4633
29784W        W72837   5.743  27.676   2.005  0.0150  0.0269 -0.0225
29785W        W72838  24.626  25.145  16.638 -0.2266  0.4166  0.2481
29786W        W72839   5.103  10.440  19.223  0.1448 -0.0512  0.0219
29787W        W72840  12.652  23.665   2.988 -0.2908  0.1398 -0.1343
29788W        W72841   0.015  26.946  21.367 -0.3516 -0.0040  0.0881
29789W        W72842  12.377  18.231  26.635 -0.4133 -0.1510 -0.0010
29790W        W72843  12.404  21.635  19.679  0.3053 -0.4140 -0.0529
29791W        W72844  12.536  28.594  20.915  0.2629 -0.0167  0.0854
29792W        W72845   0.911  24.818  28.999  0.0454  0.0799 -0.2432
29793W        W72846   4.107  27.308  24.713 -0.0938 -0.0623  0.1319
29794W        W72847  34.454  23.841  19.132 -0.2282 -0.0686 -0.1911
29795W        W72848   9.573  22.098  17.902  0.1355 -0.0602 -0.0006
29796W        W72849   5.718  19.071   2.648  0.1056 -0.0151  0.0632
29797W        W72850  31.329   8.361   6.796  0.1010 -0.0854  0.1208
29798W        W72851  30.692   0.754  19.120 -0.2133 -0.0443 -0.0552
29799W        W72852  20.423  25.374  11.414  0.0567  0.4035  0.1248
29800W        W72853   2.248  30.176   5.432 -0.2712 -0.1382 -0.2883
29801W        W72854  14.875  23.516   3.335 -0.1250  0.1364 -0.2034
29802W        W72855  18.681   4.361   1.968 -0.1092 -0.0668 -0.1129
29803W        W72856   8.790  20.628   4.984  0.0125  0.2405  0.0437
29804W        W72857   3.011  25.073  25.388 -0.3930 -0.0626  0.3215
29805W        W72858   5.697   7.137   7.471 -0.4920 -0.0969  0.2567
29806W        W72859   8.223  27.683  18.347 -0.1339 -0.0653 -0.0443
29807W        W72860  30.424  28.181   7.363  0.4758  0.3169 -0.0215
29808W        W72861   2.105  26.459  23.368  0.0532 -0.1025  0.0460
29809W        W72862  33.649  18.379  26.750 -0.0526 -0.2170 -0.0841
29810W        W72863  11.393  23.375  14.695 -0.0764 -0.3554  0.1956
29811W        W72864  26.360  33.984  23.213 -0.0087  0.0304 -0.2708
29812W        W72865   9.376  21.864  28.482 -0.1999  0.0000 -0.1044
29813W        W72866  13.882  19.012  15.598 -0.2616  0.0473 -0.1051
29814W        W72867   6.018  24.579   5.507  0.0995 -0.0294  0.1357
29815W        W72868   8.210  21.544  18.291 -0.1899 -0.3406 -0.1388
29816W        W72869  30.792  34.099  20.030  0.0505 -0.2391 -0.3011
29817W        W72870  31.117   6.092   2.424  0.1521 -0.1280  0.1668
29818W        W72871  10.870  32.831  25.039 -0.3067 -0.3236 -0.0102
29819W        W72872  14.400  22.491   4.148 -0.0379 -0.1114 -0.4007
29820W        W72873  33.075  28.887   5.478 -0.1408  0.1964 -0.1411
29821W        W72874  25.582  28.768  28.811 -0.1358  0.3461 -0.0516
29822W        W72875   6.312   2.476  24.705  0.0696  0.1110 -0.0893
29823W        W72876  29.505   0.385  22.905 -0.0542 -0.1927 -0.1837
29824W        W72877   3.433  25.746  20.421 -0.0351  0.0117  0.3615
29825W        W72878  25.538  23.382  20.950  0.1593 -0.0941 -0.0554
29826W        W72879  30.002  17.243  29.093 -0.0814 -0.0844 -0.0778
29827W        W72880  17.424  21.950  19.332  0.0677  0.0018  0.2020
29828W        W72881  13.940   1.767   3.346  0.0167  0.2663 -0.1213
29829W        W72882   8.570  23.734   4.264  0.1065 -0.2643  0.1069
29830W        W72883   3.131  26.347   9.339  0.0647  0.0043  0.3217
29831W        W72884  32.646  25.659  17.852  0.3141  0.0764  0.0679
29832W        W72885  34.392  19.528  21.569 -0.1739  0.5951 -0.0483
29833W        W72886   6.125  29.484  25.159  0.1247  0.2519 -0.1150
29834W        W72887  27.762  29.873  27.752  0.3623  0.0901  0.1436
29835W        W72888  32.335  11.289  17.823 -0.3337  0.0108  0.1134
29836W        W72889  32.904  18.902  13.695  0.3885 -0.1110  0.2642
29837W        W72890   9.247  22.050  27.704 -0.0082 -0.1811 -0.2604
29838W        W72891   0.884  27.159  18.238 -0.4633 -0.1608  0.0266
29839W        W72892   0.615  12.959   3.815 -0.0840 -0.0728 -0.0972
29840W        W72893  25.851  23.768  10.153 -0.0813 -0.1761 -0.3961
29841W        W72894  13.072  16.995  20.236 -0.2210  0.2045  0.1170
29842W        W72895  33.219  24.626   7.089  0.0720 -0.2614 -0.1186
29843W        W72896   4.321  20.043  20.705 -0.0556 -0.0561 -0.1607
29844W        W72897  31.833  22.771   4.782  0.2087 -0.2824  0.0133
29845W        W72898   4.210  18.480   2.782  0.0274 -0.1012  0.2861
29846W        W72899   4.857   1.841   5.510  0.2832  0.0532 -0.1231
29847W        W72900   5.980  10.533  24.410 -0.1639  0.2495  0.3894
29848W        W72901   9.973  12.843  11.162 -0.1249 -0.2638  0.0196
29849W        W72902   3.986  21.963  25.318 -0.1419 -0.0410 -0.1756
29850W        W72903  30.285   2.314   0.390 -0.3211 -0.0390 -0.0862
29851W        W72904  15.833  14.714  26.359 -0.0099  0.2333  0.1534
29852W        W72905   2.899   4.718  16.802 -0.0499  0.1417 -0.0884
29853W        W72906   8.147  14.876  23.376 -0.0093 -0.2524 -0.1368
29854W        W72907  33.998  29.034  25.168 -0.1676  0.1085  0.0365
29855W        W72908  13.071  18.586  19.143  0.1660  0.0593  0.0451
29856W        W72909   1.450  23.778   3.446 -0.3564 -0.0549  0.2313
29857W        W72910  17.511  12.070   0.382  0.0469 -0.0513  0.1727
29858W        W72911   4.731  28.108   7.223 -0.1211 -0.1507  0.3738
29859W        W72912  28.583  13.685  24.077 -0.0572 -0.0698 -0.2756
29860W        W72913  34.213  28.353   7.747  0.2024  0.3136 -0.1560
29861W        W72914   0.074  31.659   0.703  0.0281  0.1221  0.2707
29862W        W72915  33.426  18.971  17.149 -0.1253  0.1413  0.0093
29863W        W72916  19.986  21.418  21.678 -0.2275 -0.0821  0.1197
29864W        W72917  10.979  15.352  16.469 -0.0079 -0.2260  0.1927
29865W        W72918  14.980   4.888  15.117  0.1611  0.2678 -0.1365
29866W        W72919   2.482  30.213  25.864 -0.0145  0.0775 -0.3045
29867W        W72920   6.523  18.126  13.051  0.1045 -0.3438 -0.2711
29868W        W72921   4.281  31.456   6.286 -0.0123  0.0517 -0.0620
29869W        W72922   7.285  10.707  23.231 -0.1600 -0.0071 -0.0560
29870W        W72923  11.590   5.491  17.407  0.1376 -0.1641 -0.1572
29871W        W72924   4.720   1.897  21.739 -0.0411  0.3861 -0.2699
29872W        W72925   1.714  19.533   6.816 -0.1482 -0.0138 -0.0506
29873W        W72926  34.619  12.106   7.578 -0.3882  0.0743 -0.1628
29874W        W72927  10.314  28.638   1.188  0.0747  0.1920 -0.0001
29875W        W72928   8.083  17.081   5.518  0.1792 -0.2544  0.1898
29876W        W72929   9.932  31.719   6.013  0.2716  0.1062 -0.0663
29877W        W72930  30.280  16.173  27.635 -0.1561  0.0512 -0.0702
29878W        W72931  23.763   1.075   2.276  0.0561  0.0349 -0.0265
29879W        W72932  16.469  24.547  10.157 -0.0043  0.1718  0.0879
29880W        W72933  27.434  26.639   4.032  0.1056  0.1216  0.2433
29881W        W72934  18.316  14.332   2.412 -0.1535 -0.0224 -0.2434
29882W        W72935   8.243  22.599   2.781  0.0710  0.2515 -0.1382
29883W        W72936   9.253  26.278  15.577  0.0621 -0.0529 -0.1797
29884W        W72937  16.298  27.247  16.897 -0.1952 -0.2291 -0.0399
29885W        W72938  32.295  23.629  20.470  0.0580  0.0859  0.0055
29886W        W72939   7.925  28.043  14.722  0.1540 -0.0926 -0.2140
29887W        W72940  11.101  16.731  14.274  0.2621  0.1235 -0.2348
29888W        W72941  27.221  26.672  22.122 -0.0620 -0.0865 -0.1437
29889W        W72942  11.073   2.039  15.131  0.1471  0.2005 -0.0634
29890W        W72943   8.579  24.466  13.694  0.0589 -0.4122  0.1891
29891W        W72944  21.266  29.760  21.101 -0.1398  0.2327  0.3888
29892W        W72945  11.296  24.830  20.614 -0.1800  0.0477 -0.1516
29893W        W72946  16.898  26.958  19.921  0.0264  0.1178  0.1170
29894W        W72947   0.283  29.279  13.708  0.1013  0.0743  0.0996
29895W        W72948   0.188  34.646  21.127  0.0153 -0.3555 -0.0173
29896W        W72949   6.675  31.547  14.624 -0.0810  0.1791  0.1995
29897W        W72950  17.944  17.205  28.354 -0.1283 -0.0884  0.1143
29898W        W72951  31.416  16.898  14.442  0.2177  0.0791 -0.0436
29899W        W72952  12.399  12.554  15.886 -0.0101 -0.0851 -0.0381
29900W        W72953  11.176  32.406  17.582 -0.1801 -0.1507  0.1167
29901W        W72954  34.272  27.436  17.161  0.1191 -0.1097 -0.2090
29902W        W72955   5.085  17.403  19.594 -0.1861 -0.2385 -0.0063
29903W        W72956  29.836  20.342  22.074  0.0030  0.0446 -0.0232
29904W        W72957  15.672  23.977  19.538 -0.0071 -0.4907  0.0521
29905W        W72958   5.500  12.133  15.718 -0.2067  0.0092 -0.1896
29906W        W72959  33.930  26.586  14.264 -0.0369 -0.1033 -0.1398
29907W        W72960   1.629  29.820  22.434  0.1289  0.0521 -0.3158
29908W        W72961   6.829  19.391  25.960  0.1380  0.1288 -0.2406
29909W        W72962   5.994   3.835  17.430  0.0226 -0.0070  0.2453
29910W        W72963   0.352  18.741  20.740  0.5284 -0.0426  0.2632
29911W        W72964   8.740  26.183  19.760  0.1214 -0.1553  0.1671
29912W        W72965   9.292  23.138  28.408  0.0011 -0.1016  0.2557
29913W        W72966   4.267  18.260  18.322  0.1782 -0.5041 -0.0807
29914W        W72967   0.264  23.599  13.226  0.0779  0.0613  0.1989
29915W        W72968   1.338  31.031  16.669  0.0729 -0.1646  0.0079
29916W        W72969  16.059  11.051  21.606 -0.0773  0.2940  0.1209
29917W        W72970   7.722   3.112  15.797  0.4487 -0.2190 -0.1007
29918W        W72971  16.985  14.425   4.282  0.1858 -0.0321 -0.0582
29919W        W72972  10.873  19.626  21.212 -0.2108  0.0075  0.1199
29920W        W72973  18.453  27.304  18.062 -0.0670 -0.0356 -0.0687
29921W        W72974   6.621  32.808  22.075 -0.0107 -0.1063 -0.1921
29922W        W72975  11.033   9.709  23.382  0.1681 -0.1237 -0.0119
29923W        W72976   0.650  26.949  23.983  0.0084 -0.1206 -0.0628
29924W        W72977  19.356  21.222  15.449 -0.2246  0.0598 -0.4712
29925W        W72978  21.862  11.556  18.419  0.3225 -0.0421 -0.2745
29926W        W72979   4.976   1.278  16.427  0.0447 -0.0036  0.0174
29927W        W72980   3.589   3.099  15.324  0.1338  0.1347  0.2618
29928W        W72981   7.732  26.602  13.834  0.3096  0.1526 -0.1859
29929W        W72982   8.046  33.520  19.777 -0.1077 -0.1203  0.2829
29930W        W72983   8.141  27.044  16.143  0.1914 -0.2187 -0.0965
29931W        W72984  24.925  24.939  20.911 -0.2023  0.1764 -0.3708
29932W        W72985   7.683  29.918  15.891 -0.1636 -0.0767  0.0741
29933W        W72986   0.195  31.230  14.748  0.0716  0.0351 -0.0362
29934W        W72987  33.917  23.425  13.456 -0.0616  0.2533  0.3778
29935W        W72988  14.562  27.677  18.428 -0.2780  0.0808 -0.2861
29936W        W72989   9.301   0.056   7.233  0.1911 -0.0091 -0.1408
29937W        W72990   1.481  33.725  25.796 -0.0647  0.3546 -0.0595
29938W        W72991  19.594  27.011  26.338  0.2696 -0.2716 -0.1420
29939W        W72992  10.782  33.271  24.670  0.1036  0.2080  0.1336
29940W        W72993   8.923  24.509  17.197  0.2217  0.1982 -0.0138
29941W        W72994  16.323   6.926  21.781  0.1653  0.0087 -0.1425
29942W        W72995   6.019  34.414  28.063  0.3044  0.0206 -0.0174
29943W        W72996   4.218  15.078  21.062 -0.0617 -0.1657 -0.0363
29944W        W72997   1.251  17.657  22.692  0.0456  0.2121 -0.4311
29945W        W72998  34.539   1.919   1.395 -0.0733 -0.0675 -0.1020
29946W        W72999  33.633  16.865  25.389 -0.0636  0.0509 -0.0635
29947W        W73000  17.015  18.896   1.255 -0.1004 -0.0316  0.0799
29948W        W73001   7.365  31.791   2.935  0.0712 -0.1222  0.0770
29949W        W73002   8.671  20.210  22.933  0.2698 -0.2127  0.0627
29950W        W73003   8.814   6.114  16.489  0.3136  0.1273 -0.0325
29951W        W73004   8.950  23.401  26.207  0.0939 -0.0066 -0.0067
29952W        W73005   0.530  18.134  19.324 -0.1673 -0.0410 -0.1749
29953W        W73006  32.085  14.104  26.466  0.0444  0.0688  0.1942
29954W        W73007  10.944   3.794  14.282 -0.0977  0.0110 -0.0472
29955W        W73008  32.976   9.337  16.085 -0.1431  0.2356  0.3315
29956W        W73009  14.499  14.429   8.317 -0.0231  0.0911 -0.4589
29957W        W73010  33.842  21.673  14.956  0.1144  0.0653  0.0165
29958W        W73011   3.403  15.668  22.521 -0.2015  0.4163  0.0370
29959W        W73012  14.810  31.780  21.468  0.0316  0.1680 -0.1642
29960W        W73013  14.845  25.114  14.110  0.3990 -0.0489  0.0210
29961W        W73014  33.659  30.925  28.380  0.0128  0.1068  0.0503
29962W        W73015  32.089  16.022  18.984  0.2145  0.2615  0.0678
29963W        W73016  27.081  25.210  22.156  0.3727  0.1935  0.0527
29964W        W73017   3.582  29.891  19.702 -0.2735 -0.0525 -0.0026
29965W        W73018  25.911  16.699   1.499  0.1371 -0.0442  0.3071
29966W        W73019  11.041  26.210  21.380  0.2036  0.1788  0.0272
29967W        W73020  16.879  23.324   4.539 -0.0583 -0.3103 -0.1828
29968W        W73021   3.560  30.854  18.489 -0.1155  0.1408 -0.0047
29969W        W73022  19.819  31.207  15.610 -0.1699  0.1016 -0.6164
29970W        W73023  32.283  25.684  20.511  0.0153 -0.1259 -0.1760
29971W        W73024  32.724  26.698  25.311 -0.4218  0.2294 -0.1432
29972W        W73025  11.351  26.472  20.874 -0.0238  0.2688 -0.0918
29973W        W73026  12.336  22.075  26.328 -0.1359  0.2050  0.2453
29974W        W73027  10.659  20.412  18.333  0.0849 -0.1426  0.5231
29975W        W73028   0.822  28.846  19.179  0.1757  0.0490 -0.0503
29976W        W73029  14.345   4.336  17.159  0.0792 -0.1426 -0.1740
29977W        W73030  29.017   7.243  18.902 -0.1100  0.3012  0.0778
29978W        W73031   8.382  21.211  16.286  0.0943  0.1142  0.1328
29979W        W73032  14.787  18.640  26.065 -0.2432  0.0751  0.0031
29980W        W73033   8.542  29.503   0.698 -0.2669 -0.1276  0.0322
29981W        W73034  34.442  26.926  16.188 -0.1147 -0.0649  0.0747
29982W        W73035  24.919  30.641  20.041 -0.1062 -0.1597 -0.1070
29983W        W73036   1.676  32.771  20.143 -0.1751  0.0393 -0.1502
29984W        W73037   4.474  11.368  22.056 -0.1543  0.3761  0.1356
29985W        W73038  33.809   3.659  17.952  0.4086 -0.0335  0.3777
29986W        W73039   0.152   2.731  19.671  0.0595  0.0179 -0.0907
29987W        W73040  31.162  18.781  24.109 -0.0703  0.0263  0.0850
29988W        W73041   9.234  29.179  14.797 -0.1041  0.0276  0.0504
29989W        W73042   4.740  31.106  17.907 -0.1300 -0.2237 -0.1696
29990W        W73043   0.146   2.116  13.372 -0.0593  0.1237 -0.1995
29991W        W73044  15.125  27.401  17.387  0.3687 -0.1501 -0.1844
29992W        W73045   9.581  21.686  15.690 -0.0650 -0.0007  0.1749
29993W        W73046  16.784  24.745  14.909  0.2306 -0.0356 -0.1691
29994W        W73047   9.044  16.542  24.025  0.0035 -0.0223  0.0182
29995W        W73048   7.675  25.585  15.980  0.0106 -0.0003 -0.0186
29996W        W73049   2.858  25.701   5.362 -0.1276 -0.2319 -0.0538
29997W        W73050   2.439  23.678  24.543 -0.0550  0.0847  0.0631
29998W        W73051  15.549  23.556  18.553  0.1432 -0.1966  0.0282
29999W        W73052  31.654  23.512  15.129  0.1254 -0.0444 -0.0260
30000W        W73053   6.860  31.025  14.803  0.0144  0.0916 -0.2630
30001W        W73054   7.506   7.100  16.129  0.0959 -0.1193 -0.0352
30002W        W73055  21.230  27.997  14.349 -0.2290  0.1477  0.0176
30003W        W73056  18.141  32.239  19.502 -0.0587  0.1240  0.0465
30004W        W73057  32.914  28.414   3.528 -0.1743 -0.0895  0.0450
30005W        W73058   4.953  22.855   9.485 -0.2704 -0.0374  0.0698
30006W        W73059   5.330   0.599  24.724  0.0589 -0.3221 -0.0369
30007W        W73060   2.089  22.410  20.007  0.0627  0.0227  0.1438
30008W        W73061  20.432  33.510   1.435 -0.2298  0.4202  0.1657
30009W        W73062  17.409  28.068  16.821  0.4198  0.1412  0.0538
30010W        W73063  14.336  24.425  17.466 -0.0917  0.0689 -0.0287
30011W        W73064   9.977  12.520  28.209 -0.1542  0.2077 -0.3124
30012W        W73065  31.600  10.935  20.971  0.1423 -0.2536  0.1146
30013W        W73066  13.743  28.630  24.294  0.1197  0.0145 -0.3184
30014W        W73067  31.199  25.221  17.160 -0.0493 -0.2929 -0.1807
30015W        W73068  16.040  28.275  24.971 -0.2550 -0.1982  0.2319
30016W        W73069   2.611  30.191  18.859  0.1741  0.1631  0.0303
30017W        W73070  12.282  22.498  23.196 -0.2252  0.1408 -0.1359
30018W        W73071   7.938  19.870  16.312 -0.1020 -0.1619 -0.0928
30019W        W73072  27.861   5.205  16.000  0.0370  0.1075 -0.0309
30020W        W73073  12.218  32.920  27.231 -0.1260  0.1479  0.3333
30021W        W73074  19.214   2.177  23.774 -0.2672 -0.1050 -0.0226
30022W        W73075  15.677  19.848  29.037  0.0748  0.1829  0.2126
30023W        W73076   8.528  10.631  17.452  0.4052 -0.1448 -0.1235
30024W        W73077  30.790  26.822  17.961 -0.2318 -0.0651  0.4051
30025W        W73078  14.285  24.227  15.270 -0.0388 -0.1412  0.1380
30026W        W73079   8.701  24.003  18.225 -0.1986 -0.1598  0.0048
30027W        W73080   8.632  14.550   5.658  0.1280  0.1988  0.2004
30028W        W73081   7.694   7.574  15.740  0.1449  0.0774  0.2287
30029W        W73082  34.668  17.619  28.638  0.1403 -0.1334 -0.2146
30030W        W73083   5.317  17.602  18.789  0.2970 -0.0008  0.2047
30031W        W73084   3.885  23.290  19.302 -0.0552 -0.1927 -0.1063
30032W        W73085   5.228  29.724  18.773 -0.0006  0.0143 -0.1817
30033W        W73086   3.540   3.896  21.186  0.1529 -0.1763 -0.1554
30034W        W73087  15.746  22.120  15.950  0.0726 -0.2991 -0.1697
30035W        W73088   9.072  11.041  19.457  0.2585 -0.1254  0.1719
30036W        W73089   4.861  24.217  20.582  0.1406 -0.1082 -0.2269
30037W        W73090   4.153   9.015  20.188 -0.1772 -0.0362 -0.0018
30038W        W73091   0.166   8.076  18.156  0.0279 -0.2108  0.0884
30039W        W73092   4.068  30.732  18.374 -0.1813 -0.1314 -0.4107
30040W        W73093   9.791  10.138  27.056 -0.2579 -0.0978 -0.1979
30041W        W73094  18.961   2.313  19.242  0.2780  0.0462 -0.1365
30042W        W73095  32.315  25.631  15.460  0.0967  0.0492 -0.0509
30043W        W73096   2.069  29.120  20.424 -0.0896  0.1476  0.0603
30044W        W73097  17.178   2.554  16.056  0.0491 -0.1424 -0.0418
30045W        W73098  12.654  21.587  22.903 -0.0827  0.0450  0.0214
30046W        W73099  10.440  20.567  16.754 -0.1349  0.0055 -0.0301
30047W        W73100   7.086  19.634  13.650  0.0501  0.3117 -0.1949
30048W        W73101   1.461  18.790  25.045 -0.0704  0.0072 -0.1972
30049W        W73102   3.441  32.854  19.528 -0.0710 -0.1637  0.1250
30050W        W73103   5.553  26.373   0.302 -0.4514  0.1935 -0.1486
30051W        W73104   3.347  16.628  16.102  0.2136 -0.1577  0.1037
30052W        W73105  25.145  33.765  17.290 -0.1941  0.2489 -0.2652
30053W        W73106  24.914  18.488  17.439 -0.1593  0.1972  0.0625
30054W        W73107  12.568  12.313  23.780 -0.0861 -0.0512 -0.2567
30055W        W73108   0.889   1.670  27.382  0.0870 -0.5752  0.1641
30056W        W73109  11.887  27.783  18.060 -0.2384 -0.1490  0.1307
30057W        W73110  13.085  29.832  19.582  0.0002 -0.0006 -0.1317
30058W        W73111   7.307  20.052  21.687  0.2054  0.2456 -0.1971
30059W        W73112  28.617  16.515  18.504 -0.0785 -0.1259 -0.0087
30060W        W73113  29.566  19.487  23.907 -0.0028 -0.0635 -0.3032
30061W        W73114   0.643  26.282  14.565  0.3247  0.2011  0.0300
30062W        W73115  22.556  27.163  16.516 -0.2105  0.0284  0.2111
30063W        W73116  33.446  26.429  17.963 -0.3188 -0.0812 -0.1983
30064W        W73117   9.848  18.201  25.092  0.0726  0.0985 -0.1329
30065W        W73118  26.318  30.862  19.008  0.0035 -0.0098  0.1877
30066W        W73119   6.317  23.475  18.224 -0.1427  0.1299 -0.1334
30067W        W73120   9.972   3.905  18.234 -0.0381 -0.2924 -0.1441
30068W        W73121   1.675  29.377  24.779 -0.1711 -0.0313  0.0960
30069W        W73122   2.923  28.666  20.682  0.2877 -0.1012 -0.0228
30070W        W73123  33.242  32.926  13.973 -0.4062  0.0682 -0.0002
30071W        W73124   6.165   8.471  16.911 -0.0334  0.2053  0.3865
30072W        W73125   3.245  15.242  25.424 -0.0521  0.1832  0.0833
30073W        W73126  18.512  31.241  15.583  0.2606  0.2080  0.0751
30074W        W73127  13.282  22.432  19.408 -0.2264 -0.0245  0.0357
30075W        W73128  12.078  34.327  26.746 -0.0079 -0.1988 -0.1641
30076W        W73129  26.400  23.005  18.812  0.0465  0.0752  0.1141
30077W        W73130  15.638  28.430  14.346  0.3675  0.0498  0.2575
30078W        W73131   6.061  23.625  20.182  0.1211 -0.0368  0.1182
30079W        W73132  19.258  31.096  14.977 -0.0615 -0.0556 -0.1210
30080W        W73133   3.318  29.516  14.148 -0.2418  0.1185  0.1489
30081W        W73134   5.687  28.959  16.433 -0.0206  0.5062  0.2486
30082W        W73135  14.560  34.584  17.067  0.0212  0.0794  0.0554
30083W        W73136   1.856  33.371  16.912  0.2315 -0.1182  0.2687
30084W        W73137  31.364  16.128  16.769 -0.1460  0.0580  0.3603
30085W        W73138  27.532  29.327  17.434  0.3411  0.1412 -0.1154
30086W        W73139  15.658  17.197  26.442 -0.0523 -0.2708  0.4500
30087W        W73140  10.631  24.982  20.159  0.0140 -0.0058 -0.0641
30088W        W73141  10.637  32.613  27.106  0.3103 -0.0209  0.1251
30089W        W73142  34.474  23.611  13.494 -0.2456 -0.3312  0.3112
30090W        W73143  33.906  27.020  16.269 -0.0003  0.0695 -0.0099
30091W        W73144  15.633  26.624  22.765 -0.1346 -0.0173 -0.0011
30092W        W73145   3.254  17.700  15.215  0.1239 -0.0521 -0.1771
30093W        W73146   8.838  17.419  23.669 -0.0300 -0.0520  0.2229
30094W        W73147   6.104  20.432  18.006 -0.0372  0.4350  0.2358
30095W        W73148   4.086  29.296  21.101 -0.0771  0.1789 -0.1682
30096W        W73149  13.128  13.852   4.991 -0.0598  0.2596  0.1345
30097W        W73150   2.523   8.936  28.382  0.1113 -0.1433 -0.0352
30098W        W73151   5.455  22.322  26.958 -0.2032  0.0575 -0.0886
30099W        W73152   0.400  25.856  24.938 -0.0962 -0.1183  0.0108
30100W        W73153  14.563  31.363  15.099  0.1810  0.1598  0.3047
30101W        W73154   9.408  34.678  20.003 -0.0573  0.1878  0.1924
30102W        W73155  33.686  18.810   0.482 -0.3793  0.0093  0.2649
30103W        W73156  14.323  27.422  28.229  0.0723  0.0635  0.0402
30104W        W73157   7.115  29.902  13.471  0.0155  0.1107  0.1002
30105W        W73158  30.371   1.557  16.995 -0.2893 -0.0624  0.0329
30106W        W73159  30.578  22.972  21.765  0.2414 -0.1881  0.0243
30107W        W73160   2.735  11.184  16.362 -0.0691  0.1242 -0.1165
30108W        W73161  25.703  29.420  22.346  0.0352  0.0258 -0.2101
30109W        W73162  27.887  16.145  18.408  0.1177 -0.0115 -0.0077
30110W        W73163  23.196  21.140  20.283  0.0002  0.2341  0.1699
30111W        W73164   9.248  26.660  18.091  0.1091 -0.1604 -0.0034
30112W        W73165  32.181  23.063  19.790  0.0465 -0.0055  0.2076
30113W        W73166  20.223   4.388  23.121  0.0801 -0.1135 -0.0822
30114W        W73167   1.197  23.304   2.711 -0.1727  0.0068  0.0515
30115W        W73168   8.127  27.823   2.083 -0.1317 -0.0581  0.0576
30116W        W73169  29.269  12.316  25.025 -0.2667  0.2765  0.0980
30117W        W73170  18.345  15.009  14.862 -0.2368 -0.4069  0.0985
30118W        W73171  22.543   5.252  15.046  0.2015 -0.4489 -0.0799
30119W        W73172  24.675  31.066  22.105  0.0946 -0.4393 -0.1264
30120W        W73173   9.782  10.775  17.023  0.0200  0.0717  0.0592
30121W        W73174  27.831  23.167  19.638 -0.1761 -0.1643  0.0188
30122W        W73175   4.567  21.722  23.321  0.1275 -0.0673 -0.0439
30123W        W73176   2.577  28.222  26.015 -0.2484  0.0030 -0.0613
30124W        W73177  30.345  25.200  22.617  0.2039 -0.2826 -0.1395
30125W        W73178  18.691  18.721  12.867 -0.3345  0.1699  0.0070
30126W        W73179  13.804  25.004  14.164  0.2106 -0.0192 -0.1076
30127W        W73180  32.370  29.839  25.153  0.1151 -0.1496 -0.1149
30128W        W73181  34.429  20.197   1.143  0.1988  0.2228 -0.0372
30129W        W73182   8.127  11.129   1.992  0.0090 -0.4798  0.2011
30130W        W73183  19.787  14.923  13.626 -0.0546 -0.0958  0.0093
30131W        W73184   5.182  15.476  25.712  0.3574  0.2122  0.2038
30132W        W73185   6.890  20.220  12.979  0.1403  0.0514 -0.2252
30133W        W73186  34.267  19.557  19.399 -0.0392  0.1649 -0.1803
30134W        W73187  15.953   9.165  26.240  0.1151  0.3084 -0.0613
30135W        W73188   2.077  24.265  15.720  0.3285  0.0072  0.0933
30136W        W73189  31.668  32.559  16.705  0.1254  0.0440 -0.1908
30137W        W73190  26.165  29.564  14.542  0.1379 -0.1252 -0.2500
30138W        W73191  10.349   7.221  20.291  0.1600 -0.0356 -0.4951
30139W        W73192   5.727  15.001  18.444 -0.1070 -0.0084  0.0606
30140W        W73193  29.907  30.972  13.964 -0.1341 -0.0979 -0.1983
30141W        W73194   0.433  25.549   3.498  0.3569 -0.1840 -0.0106
30142W        W73195   1.775  15.204  17.642  0.0588  0.1230 -0.0674
30143W        W73196  19.712  18.733  13.300  0.2746 -0.1343  0.1681
30144W        W73197   1.366  31.492  18.539 -0.0763  0.0311 -0.1033
30145W        W73198  31.569  19.384   2.113  0.3727  0.5467  0.0811
30146W        W73199  11.591  34.523  25.912 -0.0927 -0.0650 -0.0451
30147W        W73200   4.438  27.020  20.015  0.0829 -0.0577 -0.2733
30148W        W73201   7.634  12.877  20.655  0.1832 -0.1474 -0.0085
30149W        W73202   7.223  16.121  22.403  0.0318  0.2649 -0.1156
30150W        W73203  33.609  22.386  25.175  0.0213 -0.4493 -0.1808
30151W        W73204   4.517  28.086  16.277 -0.1301 -0.0287  0.0779
30152W        W73205  32.504  13.214  22.332 -0.1557 -0.0079  0.2178
30153W        W73206   5.186  27.990  17.290  0.1235  0.2170  0.2428
30154W        W73207  26.978  33.010  18.208 -0.2286 -0.0967 -0.0128
30155W        W73208   5.581   0.326  14.847  0.2718  0.0659  0.3161
30156W        W73209   6.591   9.364  19.723  0.0046  0.0494 -0.1982
30157W        W73210   5.490  26.127  18.281  0.2234  0.1499 -0.3249
30158W        W73211   7.651  18.801  17.335 -0.0977  0.2434 -0.0999
30159W        W73212  27.786   2.371  13.951 -0.2724 -0.2202 -0.0829
30160W        W73213   7.795  16.385  24.442  0.2049 -0.2364 -0.2935
30161W        W73214  30.097  11.612   2.475  0.1843 -0.0299  0.0229
30162W        W73215  24.518  23.794  19.857 -0.2124 -0.1313  0.1573
30163W        W73216  28.874  25.979  17.162  0.1795  0.0216 -0.2417
30164W        W73217  33.320  29.388  13.937 -0.0516 -0.0247 -0.1224
30165W        W73218   8.035  16.901  16.627 -0.0514 -0.1025 -0.2449
30166W        W73219   8.680  26.793  13.063  0.0225  0.0791  0.0503
30167W        W73220   9.791  20.043  16.926  0.0507 -0.0347  0.2609
30168W        W73221  10.382  19.102  26.448  0.0065 -0.1372 -0.2406
30169W        W73222   1.583  19.063  17.568  0.0436  0.0247 -0.1124
30170W        W73223   1.743  20.754  18.791 -0.1290 -0.1604 -0.1499
30171W        W73224   9.043   4.515  27.786  0.1143  0.3270  0.1115
30172W        W73225  27.092  12.717  22.648  0.0454  0.1827  0.2044
30173W        W73226   0.625  12.961  16.838  0.0836 -0.1432  0.1431
30174W        W73227   0.083  17.566   5.373 -0.0743 -0.1411 -0.1454
30175W        W73228  27.809  21.854  19.153  0.0680  0.0571  0.1098
30176W        W73229   6.361   7.984  18.317 -0.0201  0.0917 -0.0586
30177W        W73230   8.406  21.589  17.371  0.2149  0.0004 -0.0722
30178W        W73231  16.848  26.028  22.355  0.2696  0.2957  0.6948
30179W        W73232  18.311  28.232  18.420 -0.0025  0.1738 -0.1853
30180W        W73233   2.499   6.023  23.981 -0.0504  0.1175  0.0555
30181W        W73234  11.478  24.318  27.649  0.1441  0.1427 -0.0532
30182W        W73235  10.900  33.162  16.382 -0.1997 -0.1732 -0.0319
30183W        W73236   2.709  30.464  29.108  0.1253 -0.2513 -0.1262
30184W        W73237   3.896  29.914  24.738 -0.1572 -0.2867 -0.0559
30185W        W73238  33.251  11.399  26.659  0.0826  0.3047 -0.0792
30186W        W73239   5.426  12.622  21.012  0.1009  0.1099  0.1861
30187W        W73240   4.291  17.007  25.707 -0.3064 -0.0875  0.1498
30188W        W73241  33.763  28.243  17.304 -0.0960  0.0247  0.1195
30189W        W73242  10.953  17.984  14.692 -0.0162  0.2540 -0.1418
30190W        W73243  30.184  15.034  15.036 -0.0795  0.2299 -0.2295
30191W        W73244   3.262  23.769   3.581 -0.1401  0.0393 -0.1271
30192W        W73245  25.543  16.754  22.075  0.0111 -0.1453 -0.0504
30193W        W73246   7.922  33.445  21.463  0.2233  0.4786  0.3458
30194W        W73247  32.573  29.507  22.186  0.1785  0.3038  0.0291
30195W        W73248  13.945   1.503  16.962  0.1794 -0.0606  0.0205
30196W        W73249  10.935  28.079  13.602 -0.0013  0.1527  0.3888
30197W        W73250  27.836  11.310  27.134  0.1126  0.2121  0.0783
30198W        W73251   8.321  26.823   2.794 -0.0231 -0.2756  0.1978
30199W        W73252  31.904  28.198  17.132 -0.0644  0.0290 -0.3981
30200W        W73253  26.068  24.859  21.234  0.0802 -0.3978 -0.0038
30201W        W73254   5.524  23.844  24.128  0.3720 -0.1137  0.1141
30202W        W73255   7.616   4.515  16.017 -0.2312  0.2664  0.2106
30203W        W73256   5.436   5.462  24.920  0.0769  0.1674 -0.1896
30204W        W73257  30.621  15.097  19.411  0.1953 -0.4045  0.0523
30205W        W73258  34.651  26.386  23.678 -0.1706 -0.0032 -0.2190
30206W        W73259   6.275  33.954  18.245 -0.3851 -0.1266  0.3584
30207W        W73260  10.151  27.798  14.757  0.3370  0.0719 -0.0677
30208W        W73261  18.426  10.335  22.312  0.2128  0.1178 -0.0735
30209W        W73262   4.901  12.195  22.058  0.3461 -0.3063  0.2222
30210W        W73263  27.068  31.847  25.751  0.2637 -0.1025 -0.1423
30211W        W73264  17.417  21.034  26.267  0.1797  0.2331 -0.3676
30212W        W73265   4.851  15.129  14.829 -0.2600  0.1259  0.0608
30213W        W73266   4.446   5.800  18.391  0.1077  0.2522 -0.3986
30214W        W73267   7.722  30.506  15.044 -0.1332  0.2494 -0.0681
30215W        W73268  16.902   7.802  16.103  0.0808 -0.1432  0.0973
30216W        W73269   6.089  28.144  20.449  0.2123  0.1258 -0.1162
30217W        W73270   9.397  18.811  26.244  0.0481 -0.1526  0.2544
30218W        W73271   7.204   1.030  16.466  0.1849 -0.2866  0.1063
30219W        W73272   2.450  17.707  15.839  0.0379  0.0844 -0.0974
30220W        W73273  28.355  25.438  19.960  0.0126 -0.0696  0.1172
30221W        W73274   8.045  27.113  21.784  0.1061  0.1912  0.0381
30222W        W73275  29.322  19.843  19.462 -0.2976  0.1529  0.3092
30223W        W73276   9.292  21.861  19.433 -0.0744  0.1409  0.0099
30224W        W73277   2.452   5.652   1.372 -0.2541 -0.3801 -0.4003
30225W        W73278   9.380  18.578  19.870  0.1460  0.0890 -0.0057
30226W        W73279  14.453   0.848  24.088  0.1250  0.2492 -0.3615
30227W        W73280   5.370  24.419  14.211  0.3292 -0.2357 -0.0309
30228W        W73281   8.425  20.305  23.980 -0.1901 -0.4543 -0.2053
30229W        W73282   4.700  34.106  13.872 -0.0141 -0.0651  0.1418
30230W        W73283   3.630  31.340  22.446  0.3281  0.2381  0.2089
30231W        W73284  30.535  34.187   7.914 -0.1432 -0.4206 -0.2206
30232W        W73285  23.675  16.682   8.860 -0.0554 -0.3112 -0.0721
30233W        W73286  23.079  20.315  18.981 -0.1957 -0.0659 -0.2211
30234W        W73287  11.353  18.352   5.953 -0.1204  0.3590 -0.1623
30235W        W73288  28.414  12.172  25.795  0.1419 -0.1614  0.1914
30236W        W73289   1.788  19.083   4.769 -0.1078  0.1248 -0.1167
30237W        W73290   2.348  34.511  25.144 -0.2954 -0.2738 -0.0061
30238W        W73291  27.127  23.997  18.002 -0.1242 -0.3194 -0.0488
30239W        W73292  12.075  30.147  17.240 -0.0217  0.1607  0.3191
30240W        W73293   4.660  34.447   2.040  0.1673 -0.3473 -0.1153
30241W        W73294   5.869   1.267  25.202  0.3143 -0.2086  0.0573
30242W        W73295  34.437   1.301   4.776  0.0112 -0.1109 -0.3067
30243W        W73296   7.000   1.419  15.572 -0.0396  0.4238 -0.1216
30244W        W73297   6.475  31.749  20.892 -0.2152  0.1261 -0.1651
30245W        W73298   0.181  25.879  15.227 -0.2576 -0.1003 -0.0379
30246W        W73299   4.474  10.394  23.442 -0.2932  0.1000 -0.3132
30247W        W73300  11.637  24.213  24.083  0.2953  0.2453 -0.0617
30248W        W73301  34.353   4.956  28.470  0.1554  0.1790 -0.0998
30249W        W73302  18.129   4.561  22.163  0.0567  0.0502  0.2434
30250W        W73303  12.309  26.201  23.791 -0.0910 -0.1835  0.0534
30251W        W73304  14.205  25.727  10.908 -0.1901  0.0298  0.1105
30252W        W73305  14.291  16.603   1.470  0.1774 -0.1178 -0.0291
30253W        W73306  13.215  26.985  15.407 -0.2387 -0.1648  0.3339
30254W        W73307  25.103  20.112  14.841  0.3477  0.4630 -0.0549
30255W        W73308   5.903   6.211  16.591 -0.1626  0.0865  0.0688
30256W        W73309   1.763  26.281  21.520  0.0512  0.1173  0.2464
30257W        W73310   7.615   6.247   9.600 -0.1030 -0.0161  0.0484
30258W        W73311  19.547  21.827  29.016  0.3441 -0.1787  0.2426
30259W        W73312  28.689  28.434  14.929  0.0948 -0.1330 -0.3511
30260W        W73313   3.166  19.830  17.582 -0.0108 -0.0872  0.1347
30261W        W73314  31.599  11.739  19.879 -0.0259 -0.0600 -0.0169
30262W        W73315   4.668  12.279  18.759  0.0518  0.0258 -0.0008
30263W        W73316  32.895  21.942  14.832  0.2810 -0.1396  0.0916
30264W        W73317  13.628   2.308  18.864 -0.3561 -0.1302  0.0843
30265W        W73318   6.633  13.151  19.521 -0.0637 -0.2513 -0.4475
30266W        W73319  29.881  13.339  19.131  0.0737 -0.0913 -0.1379
30267W        W73320  11.189  17.582  17.520  0.2164  0.0500  0.0631
30268W        W73321  21.882  24.617  14.417  0.1844  0.1194  0.0461
30269W        W73322   0.261  30.733  21.956  0.2440 -0.1058 -0.3231
30270W        W73323   3.692  31.898   5.029 -0.0384  0.0746  0.4102
30271W        W73324   9.335  21.803  29.086 -0.2811  0.2953  0.3400
30272W        W73325  22.644  31.030   6.179  0.1396 -0.0876  0.1494
30273W        W73326   7.898  31.421  25.395  0.0049 -0.4128  0.2415
30274W        W73327   6.489  20.547  17.102 -0.1120  0.3772 -0.2311
30275W        W73328  18.589  19.918  24.588 -0.1324  0.2370  0.0843
30276W        W73329  33.157  22.490  18.061 -0.0437 -0.1215  0.0015
30277W        W73330   6.816  33.291  22.909  0.1491  0.0284  0.0241
30278W        W73331   2.964  15.806  16.155 -0.3349 -0.0760  0.0317
30279W        W73332  34.256  21.791   3.654  0.0669 -0.0150  0.2110
30280W        W73333  13.202  19.081  18.099  0.0391  0.1321 -0.2222
30281W        W73334   6.282  16.446  21.562  0.0400  0.0988  0.0788
30282W        W73335  10.141  25.692  17.377  0.1186  0.0375 -0.2747
30283W        W73336  10.228  27.094  24.578 -0.1944 -0.2914 -0.5135
30284W        W73337  10.839  13.123  16.989 -0.0868 -0.0343 -0.1406
30285W        W73338  14.223   0.060  19.714 -0.0386 -0.0634  0.2581
30286W        W73339   6.083  25.061  15.104 -0.0435  0.0985  0.0023
30287W        W73340  28.500   3.648  15.978  0.2108  0.0862 -0.4591
30288W        W73341   6.530  10.048  18.358 -0.0202  0.0405  0.0586
30289W        W73342   8.083  20.962  20.938  0.0796 -0.0376 -0.0580
30290W        W73343  13.146   2.281   3.312  0.2862  0.2637 -0.0390
30291W        W73344  18.139  17.918  14.698  0.1086 -0.3485  0.0710
30292W        W73345  33.003  11.109  18.598  0.1866 -0.0869 -0.0072
30293W        W73346   4.692  26.005  19.743 -0.0688 -0.0237 -0.0089
30294W        W73347   6.884  14.247  19.808 -0.0963 -0.0695 -0.2243
30295W        W73348   7.004  27.940   8.733  0.2209  0.1216 -0.0808
30296W        W73349  32.520  13.405  16.054 -0.3487 -0.3113 -0.1866
30297W        W73350   9.054  17.275  21.795 -0.2297  0.1929 -0.3822
30298W        W73351  30.624  11.735  26.115 -0.2034  0.2895  0.3037
30299W        W73352   3.287  25.791  25.595 -0.1260 -0.2960  0.3805
30300W        W73353   2.920  28.212  18.972 -0.0986 -0.1029 -0.1867
30301W        W73354  31.302  22.016  21.018 -0.2658 -0.2809  0.1004
30302W        W73355  19.529   6.447   4.188 -0.1182 -0.2292 -0.0576
30303W        W73356  30.221  21.175  24.908 -0.0693  0.2280 -0.1149
30304W        W73357  30.164  22.262  19.743 -0.1460 -0.0199  0.1650
30305W        W73358  26.938  26.090  15.094 -0.0299 -0.0715 -0.0719
30306W        W73359   0.205  32.275  24.005 -0.0758 -0.1214  0.0457
30307W        W73360  33.760  16.371  24.016 -0.1957 -0.1902  0.0183
30308W        W73361  26.084   4.526  18.568  0.2610  0.4074  0.0791
30309W        W73362  17.638  28.623  20.006 -0.2715 -0.2207 -0.3593
30310W        W73363  16.141   1.796  19.419  0.2359  0.2080  0.0057
30311W        W73364  30.504  22.766  25.480 -0.2579  0.2056  0.2253
30312W        W73365   8.441   7.410   2.157 -0.3286 -0.0797 -0.0081
30313W        W73366   8.239  12.630  25.663 -0.1409 -0.1522  0.1269
30314W        W73367   0.382  12.643  14.976 -0.2388 -0.0429  0.2600
30315W        W73368  33.726   1.343   4.132 -0.0898 -0.3648 -0.2558
30316W        W73369  30.990  19.701  23.759 -0.1014 -0.2335  0.0975
30317W        W73370  17.323  24.689  16.017 -0.1035 -0.2809 -0.0775
30318W        W73371   8.956  22.564  24.879  0.1376 -0.3352  0.1615
30319W        W73372   6.557  31.527  15.099  0.0301 -0.2125 -0.1937
30320W        W73373   1.652  21.750  16.827 -0.1296 -0.3216 -0.0133
30321W        W73374  29.044   8.980  14.733  0.1098  0.3572 -0.0308
30322W        W73375  30.590   5.398  23.810  0.0131 -0.1063  0.0377
30323W        W73376  13.327  23.695  29.128  0.0718 -0.1510  0.2968
30324W        W73377   1.016   7.287  16.068 -0.2161 -0.5377  0.0096
30325W        W73378   6.108  26.046  21.458  0.1623 -0.1314  0.1161
30326W        W73379   3.850  16.674  26.674 -0.2731 -0.0406 -0.2012
30327W        W73380   3.421  24.309  28.181 -0.0561  0.2575  0.2762
30328W        W73381  31.326  30.212  18.079 -0.2508 -0.0003 -0.0063
30329W        W73382   1.684  24.094  18.642 -0.2680 -0.2722  0.0242
30330W        W73383   0.138  30.653  23.347  0.0177  0.2232  0.3374
30331W        W73384  14.006  27.898  20.318 -0.1610 -0.0486  0.2795
30332W        W73385  30.238  22.513  15.276  0.0633 -0.1242 -0.0347
30333W        W73386   9.027   3.619  22.582  0.3292  0.0864  0.0191
30334W        W73387  33.405  25.685  26.915 -0.2031 -0.0506  0.3120
30335W        W73388   8.076   7.549  28.721 -0.0956 -0.0432 -0.3113
30336W        W73389   9.674  25.811  28.414  0.0013 -0.3508  0.3257
30337W        W73390  32.220  20.353  14.992  0.0636  0.1670 -0.0099
30338W        W73391  27.371  28.157  14.704  0.0834  0.2364 -0.0625
30339W        W73392  27.242  14.713  19.755  0.2528 -0.0280  0.0751
30340W        W73393  13.110  30.916  18.590  0.1590  0.1581  0.0907
30341W        W73394  26.320  27.119  18.243  0.0857 -0.1311 -0.1739
30342W        W73395  12.223  33.463  25.055  0.1673 -0.0880 -0.0269
30343W        W73396   4.174  17.423  17.907 -0.1142 -0.0550  0.2633
30344W        W73397  12.640  26.434  23.426  0.0323  0.2580 -0.0748
30345W        W73398   2.923  33.881  23.884 -0.3528 -0.0334 -0.1776
30346W        W73399  25.870  25.883   2.598 -0.1345  0.0379 -0.1187
30347W        W73400  17.833  21.912  24.601 -0.0949 -0.1190 -0.3199
30348W        W73401  30.828  22.135  22.275 -0.2164 -0.2827 -0.0880
30349W        W73402  31.996  22.164  14.293 -0.2869  0.1398 -0.0539
30350W        W73403   6.609  21.864  13.861 -0.1953 -0.0254  0.2263
30351W        W73404   8.815   7.161  14.500  0.0889  0.2205 -0.1234
30352W        W73405   5.900  32.947  24.747  0.0548  0.0223  0.2058
30353W        W73406  21.139  18.353  15.256 -0.1839 -0.0155  0.0606
30354W        W73407   2.828  19.568  26.059  0.0279 -0.1605  0.0616
30355W        W73408   7.091  24.998  24.613  0.0019  0.0952 -0.0813
30356W        W73409   3.670  31.116  25.806 -0.0702  0.1438  0.2849
30357W        W73410  33.507   1.132  13.305  0.0265 -0.0095  0.0986
30358W        W73411  17.615  24.114  15.263  0.0165 -0.1108  0.0431
30359W        W73412   4.530  20.833  23.802  0.1632 -0.0788  0.2390
30360W        W73413  31.098  19.969  20.728  0.0658 -0.0858  0.1613
30361W        W73414  24.382  28.224   1.528  0.3958 -0.0016  0.2167
30362W        W73415  24.473  19.742  13.445  0.2146 -0.1481  0.1427
30363W        W73416   3.250   9.343   2.690  0.1939  0.1589 -0.1023
30364W        W73417  24.252   6.221  14.470  0.0381 -0.0860 -0.1502
30365W        W73418  28.478  20.158  16.497 -0.3411  0.1308  0.0865
30366W        W73419   1.017  16.925  19.152 -0.0168 -0.3000 -0.0635
30367W        W73420  34.206   7.463  28.645 -0.2838  0.3352 -0.2033
30368W        W73421  16.774  25.028  17.929  0.5394 -0.0019  0.0165
30369W        W73422  14.267  30.789  15.728 -0.0444  0.0421 -0.1916
30370W        W73423  33.611  17.565  17.319 -0.2212 -0.0484 -0.0228
30371W        W73424   9.169  23.000   1.342 -0.1686 -0.2029 -0.2590
30372W        W73425   6.350  31.144  13.433 -0.0247  0.1523 -0.4133
30373W        W73426  14.549  24.147  14.816  0.0646  0.0645 -0.1198
30374W        W73427   1.377  17.352  24.016  0.0717  0.0313  0.1765
30375W        W73428  30.055  19.891  25.307 -0.1831 -0.3636 -0.0990
30376W        W73429   3.377   7.720  21.527 -0.0060 -0.0769  0.2551
30377W        W73430   7.204  14.871  21.122 -0.5002 -0.2746  0.2875
30378W        W73431   3.141  12.773  23.828  0.1227  0.2087  0.0806
30379W        W73432  20.473  25.541  24.193  0.2074 -0.0561  0.0263
30380W        W73433   9.161  15.379  19.719 -0.1049 -0.0685  0.0614
30381W        W73434   3.708  14.840  24.185  0.2449 -0.0685  0.3876
30382W        W73435  16.452  19.041  13.684 -0.0617  0.1209 -0.1330
30383W        W73436   3.136   1.243  22.286  0.0310  0.3928  0.0693
30384W        W73437  12.783   2.888  21.765  0.0345 -0.1897  0.2414
30385W        W73438   6.280  33.286  14.850  0.1252  0.2915 -0.0309
30386W        W73439  20.108  31.837  17.921 -0.0048 -0.1796  0.1418
30387W        W73440   0.868  21.386  22.436  0.0874  0.0338 -0.1619
30388W        W73441   4.688  26.661  19.045  0.1003  0.1374 -0.0863
30389W        W73442   7.972   3.413  25.141  0.1678  0.4203 -0.1191
30390W        W73443   6.284  21.392   4.485 -0.1741  0.0231  0.2134
30391W        W73444  12.811  27.928  18.421 -0.3332 -0.2397  0.5020
30392W        W73445   7.620  13.650  21.216 -0.0426  0.1323  0.2881
30393W        W73446   9.067  32.175  22.905 -0.1621  0.1660 -0.0380
30394W        W73447  24.105  32.283  15.833  0.0026 -0.1637 -0.3627
30395W        W73448  10.326  13.258  18.444  0.3698 -0.0270 -0.0394
30396W        W73449   3.591  27.694  23.582  0.2637 -0.3457  0.1784
30397W        W73450   7.469  21.939  14.168  0.2704  0.4396  0.4679
30398W        W73451   6.852   8.541  15.596 -0.0229  0.1786 -0.0951
30399W        W73452   6.358  28.359  20.088 -0.0216  0.0585  0.0084
30400W        W73453   7.974  32.274  16.523 -0.1302 -0.2361  0.1006
30401W        W73454  32.038   5.242  25.645  0.3144 -0.0402  0.2177
30402W        W73455  23.688  15.229   5.020 -0.0662  0.0223 -0.1381
30403W        W73456   4.707  17.912  14.931 -0.0819  0.1503 -0.1122
30404W        W73457  31.048  21.361  20.501  0.0899 -0.2974  0.2179
30405W        W73458  31.730  29.925  18.042 -0.4166  0.0100 -0.1654
30406W        W73459   0.315  23.299  19.158 -0.1158 -0.0765  0.1800
30407W        W73460  11.851  24.906   3.352  0.0729  0.0932 -0.0436
30408W        W73461  26.331  12.287  14.112  0.0416  0.3428  0.0084
30409W        W73462  13.730  25.372  18.025 -0.0657 -0.0083 -0.1164
30410W        W73463  25.034   5.512  14.943  0.0299 -0.1523  0.0897
30411W        W73464  11.792  28.791  15.918 -0.0316 -0.1645  0.0733
30412W        W73465  15.671  27.435  16.241 -0.0543  0.1672  0.1478
30413W        W73466  33.744  20.946   4.333 -0.0885  0.0266 -0.0690
30414W        W73467  31.205   1.510  17.285  0.4473 -0.0103  0.1224
30415W        W73468   1.788  24.735  15.488  0.1457  0.0807 -0.1957
30416W        W73469  12.769  22.121   1.864  0.2206 -0.1021  0.1965
30417W        W73470  13.634  24.951  25.658 -0.1048  0.2056  0.2722
30418W        W73471  26.521  15.903  25.312 -0.0010 -0.0518 -0.0385
30419W        W73472  32.107  21.926  16.996  0.0878  0.0018 -0.2806
30420W        W73473  34.281  30.926  13.401 -0.1886  0.1416 -0.2337
30421W        W73474   6.920   8.036   4.059 -0.0882 -0.0886 -0.0745
30422W        W73475  32.285   9.520  28.566  0.2947  0.0238  0.2724
30423W        W73476  19.239  13.201   6.438  0.0405  0.1059 -0.2009
30424W        W73477   3.546  17.711  14.760 -0.0474  0.0371  0.3155
30425W        W73478   9.181  22.054  20.874  0.0499  0.0316 -0.1778
30426W        W73479  32.548  20.676  18.564 -0.1288  0.0881  0.2289
30427W        W73480   7.057  29.079   1.031  0.3351 -0.1832 -0.0627
30428W        W73481  15.809  25.984  17.068 -0.2205 -0.1873  0.0541
30429W        W73482  31.791  22.770  19.639  0.0636  0.1488 -0.1593
30430W        W73483  28.865  11.745  25.422 -0.2570  0.0613 -0.1866
30431W        W73484   4.771  26.589  26.891 -0.0819  0.3742  0.2115
30432W        W73485   0.435  29.757  24.901  0.1310 -0.2480  0.0740
30433W        W73486  10.470  23.465  17.188 -0.0895  0.2080 -0.0295
30434W        W73487  18.732   6.869   1.652 -0.3868 -0.0429  0.2082
30435W        W73488  33.853  27.915  28.615 -0.1580  0.0255  0.1422
30436W        W73489  29.622  24.002  25.055  0.0327 -0.3849 -0.0028
30437W        W73490  31.812  29.641  19.246  0.1043 -0.0780  0.0518
30438W        W73491  24.501  15.073  21.219  0.0115  0.1662 -0.0694
30439W        W73492  11.650  33.000  24.068  0.0171 -0.3348  0.2541
30440W        W73493   3.593  17.197  20.177 -0.1534 -0.0073 -0.1436
30441W        W73494  29.946  26.984  19.256 -0.0329 -0.2395  0.3167
30442W        W73495   1.792   1.267  20.641  0.0006 -0.0150 -0.1829
30443W        W73496  12.865  20.350   4.318  0.2071 -0.0256 -0.0999
30444W        W73497   3.768  31.353  19.513 -0.1012  0.1349 -0.0202
30445W        W73498   2.507  25.600   2.168  0.3520  0.0851  0.0961
30446W        W73499  26.539   5.265  17.858  0.4514  0.0935 -0.0679
30447W        W73500   0.225  31.561  27.596  0.2142  0.0782  0.3099
30448W        W73501   5.059  17.906  19.863  0.1518 -0.1573 -0.0313
30449W        W73502   5.717   3.764   9.260 -0.0723  0.0231  0.0499
30450W        W73503  34.643  25.182  26.193  0.0492  0.0029  0.0826
30451W        W73504  22.180  24.203  21.943 -0.1344 -0.0630  0.3582
30452W        W73505  26.787  16.932   4.602 -0.2938  0.1836 -0.3566
30453W        W73506  31.810  23.584  25.557  0.1001  0.4796 -0.0813
30454W        W73507   3.371  26.649  24.151 -0.1710 -0.1322 -0.0571
30455W        W73508  10.130  28.386  13.373 -0.0021  0.3113  0.2864
30456W        W73509  10.407  27.845  27.059 -0.1433 -0.1674 -0.0605
30457W        W73510   8.146   6.400  26.107  0.3003  0.0682 -0.0465
30458W        W73511  32.433  26.513  19.643 -0.3156  0.0399  0.2498
30459W        W73512   0.989  30.164  17.277 -0.3149 -0.1831 -0.0493
30460W        W73513   7.520  30.231  13.580  0.0507 -0.0067 -0.1055
30461W        W73514  12.266  17.203  22.393  0.0729 -0.2911 -0.0698
30462W        W73515  20.000  23.287  17.553  0.0440 -0.0158  0.0092
30463W        W73516  22.703  24.173  20.576  0.2493  0.0144  0.2065
30464W        W73517   0.244  17.371  23.600  0.2675  0.2050  0.0068
30465W        W73518   8.268  32.714   8.032  0.1236 -0.1472  0.3618
30466W        W73519   3.780  23.552  22.869 -0.0884 -0.2589 -0.1055
30467W        W73520   6.184  34.220  21.347  0.3536  0.1568 -0.1202
30468W        W73521   7.282  20.564  13.732  0.0618  0.4398  0.0942
30469W        W73522   1.941  22.878  18.017  0.0293 -0.1553  0.1750
30470W        W73523  11.332  20.823  14.560 -0.1748 -0.0338  0.1217
30471W        W73524  13.715  17.523  29.197  0.0358  0.1049  0.2242
30472W        W73525  30.057  14.820  24.635  0.1381 -0.1383  0.0585
30473W        W73526   4.092  16.671  24.316  0.1458 -0.1048  0.0152
30474W        W73527   6.548   6.857  25.254 -0.3212 -0.3833  0.1067
30475W        W73528   4.134  25.279  16.704  0.2989 -0.2329 -0.0305
30476W        W73529  10.147  17.956  22.912 -0.0908  0.2379  0.1152
30477W        W73530   3.067  30.795  17.373  0.1120  0.2371 -0.1408
30478W        W73531  25.332  26.996  24.728  0.2713 -0.2412 -0.3126
30479W        W73532  33.621  22.070  14.778  0.1023  0.1350  0.0804
30480W        W73533  18.306  31.883  21.173 -0.1246 -0.0024 -0.1910
30481W        W73534   7.029  14.374  24.404 -0.5742 -0.1284  0.0116
30482W        W73535  14.513   0.400  15.046  0.0789  0.0188  0.0907
30483W        W73536   3.067   3.829  21.108 -0.0205 -0.0168  0.3021
30484W        W73537   4.711   8.666   2.156 -0.0052 -0.0246  0.2483
30485W        W73538   6.045  23.913  16.548  0.0568 -0.1713 -0.1720
30486W        W73539  16.496  20.854  15.879  0.0036  0.0957  0.0064
30487W        W73540  23.339  24.595  21.620  0.0264  0.1324 -0.1331
30488W        W73541   7.344  26.655  16.784  0.1629  0.1722  0.0733
30489W        W73542  29.469  25.414  19.120  0.1477 -0.4257 -0.0385
30490W        W73543   3.175  19.122   0.192 -0.1196  0.2830 -0.1207
30491W        W73544  17.354   3.021  20.722  0.3652  0.1736 -0.2940
30492W        W73545  24.232  16.883  25.403 -0.0640 -0.1297 -0.4164
30493W        W73546   8.971  16.633   3.042 -0.1098 -0.2681  0.0958
30494W        W73547  28.424  11.956   3.874  0.0068 -0.0270  0.2156
30495W        W73548  17.602  25.958  23.963  0.0530 -0.3006  0.1592
30496W        W73549  14.914  14.433  23.114 -0.2060 -0.1063 -0.1324
30497W        W73550   9.340  16.456   0.009 -0.2333  0.2830 -0.2359
30498W        W73551  22.640   9.521   3.467  0.1071 -0.2687 -0.1413
30499W        W73552   4.020  23.679  14.470 -0.0698  0.0643 -0.0785
30500W        W73553  33.148  27.047  20.520  0.3305 -0.0152  0.0733
30501W        W73554  27.761  22.333  17.307 -0.0536 -0.3302 -0.1344
30502W        W73555  30.819  22.943  28.137 -0.1218  0.3081 -0.1852
30503W        W73556   9.241  27.405  25.556  0.3253  0.0032 -0.0735
30504W        W73557   4.042   3.826  15.565 -0.0492 -0.0604  0.2356
30505W        W73558   2.502  28.522   0.679  0.0002 -0.2943 -0.1662
30506W        W73559   4.730  31.050  26.274 -0.0303  0.1144 -0.2037
30507W        W73560  24.556  14.778  21.801 -0.2239 -0.1987  0.0139
30508W        W73561   7.453   6.167  15.007  0.2625  0.0908 -0.1222
30509W        W73562  12.641  30.076  18.702 -0.0747  0.1185 -0.4610
30510W        W73563  25.975   8.947  21.618 -0.1295  0.0623 -0.1266
30511W        W73564  11.671  12.442  16.226  0.1435 -0.2052  0.0965
30512W        W73565   4.394  20.904  21.114 -0.1277 -0.0329  0.2626
30513W        W73566  13.562  29.033  23.373  0.1775  0.0173 -0.3530
30514W        W73567  13.660  27.599  13.851  0.1729  0.0955 -0.1741
30515W        W73568  14.912  30.417  14.757 -0.1291 -0.2488 -0.0881
30516W        W73569  33.918  15.920  17.218  0.0494 -0.2986 -0.2621
30517W        W73570  11.971  23.159  14.824 -0.0994 -0.0073  0.0431
30518W        W73571   7.342  28.791   0.078 -0.1852 -0.1272 -0.1262
30519W        W73572  33.777  28.077  24.769  0.1823  0.0814  0.1452
30520W        W73573  12.277  11.091  15.893  0.1018 -0.1215  0.1336
30521W        W73574   1.441  21.893  21.778  0.1547  0.1315  0.0933
30522W        W73575  12.400  23.744  16.345 -0.1596 -0.2076  0.1044
30523W        W73576  32.570  18.667  25.592 -0.0888  0.1140  0.0316
30524W        W73577   7.661   2.646  25.482 -0.1233 -0.2554 -0.0106
30525W        W73578  13.515  16.516  14.403  0.1172  0.3753 -0.1968
30526W        W73579   2.042   9.241   9.315 -0.1197  0.0526  0.2163
30527W        W73580  14.783  15.222   6.881 -0.2340  0.0823  0.1153
30528W        W73581  33.204  16.200  16.783 -0.3280  0.0989  0.0310
30529W        W73582   1.149  32.413  15.937 -0.2278  0.0271 -0.1208
30530W        W73583   4.219   1.869  24.315  0.1491  0.0130 -0.3639
30531W        W73584   2.791  21.353  16.673 -0.2664  0.0398  0.1160
30532W        W73585   0.010  19.220  15.137  0.2543 -0.4723  0.0044
30533W        W73586  13.962  16.586  21.117  0.0117  0.3155 -0.1997
30534W        W73587  13.178   2.159   2.766  0.1581  0.2901 -0.4328
30535W        W73588   6.364  24.797  15.415  0.4961 -0.1660  0.1379
30536W        W73589  16.412   6.568  19.860  0.0815  0.2879  0.0354
30537W        W73590  27.448  19.251   2.823  0.2845  0.0680 -0.2607
30538W        W73591  11.997  13.987  18.916  0.2197  0.0937  0.2079
30539W        W73592  11.622  24.435  23.163 -0.2480  0.0742 -0.0888
30540W        W73593   2.211  17.275  13.676 -0.1815  0.0034  0.2574
30541W        W73594   2.855  19.057  17.250  0.0937  0.2420  0.2803
30542W        W73595  31.710  25.510   0.073 -0.0889  0.1304  0.0019
30543W        W73596  16.767  32.539   1.327 -0.0212  0.1396  0.1204
30544W        W73597  30.516  21.999  28.489  0.0582  0.0237 -0.0958
30545W        W73598   2.144  26.994  13.596 -0.0192  0.2301  0.0821
30546W        W73599   7.608  29.216  13.714 -0.0925  0.1425 -0.0794
30547W        W73600  27.947  32.352   0.044 -0.0034  0.0611 -0.1025
30548W        W73601  27.457  30.781  20.221 -0.0142  0.1643 -0.1668
30549W        W73602  14.346  20.854  14.406  0.2350 -0.1506 -0.2091
30550W        W73603  18.551  11.680  18.289  0.2449  0.0822  0.0881
30551W        W73604  15.179  20.465  23.287  0.3907  0.2110 -0.1125
30552W        W73605   2.336  27.072   5.634 -0.2277  0.0684 -0.1748
30553W        W73606   4.185  22.961  18.411 -0.0038  0.0345  0.0085
30554W        W73607  25.572  31.427  17.370 -0.0794 -0.2166  0.0738
30555W        W73608  30.930  10.811  17.984 -0.1034  0.1916  0.1318
30556W        W73609  10.565   4.945  19.637 -0.1869  0.1279  0.0057
30557W        W73610   7.663  13.413  27.001 -0.1725  0.1985  0.0835
30558W        W73611  16.087  14.353  27.156  0.6317 -0.0981 -0.1441
30559W        W73612   1.668  16.345   2.049  0.0572  0.1245  0.1623
30560W        W73613  28.880  14.148  27.220 -0.0154 -0.1186  0.1727
30561W        W73614   0.715  16.887   1.888 -0.3377  0.1455  0.3387
30562W        W73615  10.409  14.602  26.889 -0.0765 -0.0155 -0.0693
30563W        W73616  32.077  19.089  23.674 -0.1555 -0.0026  0.2062
30564W        W73617   8.408  10.194   1.863 -0.1844 -0.0075 -0.0267
30565W        W73618   8.658  28.679   2.412  0.1491  0.0913 -0.1218
30566W        W73619   5.621  17.448  15.806 -0.1103  0.1263 -0.0159
30567W        W73620  24.118  25.831  17.999  0.0248 -0.0094 -0.1545
30568W        W73621  11.383  27.601  23.946 -0.1806 -0.0307 -0.0045
30569W        W73622   3.586  33.139  23.789 -0.3031 -0.1106  0.2664
30570W        W73623  30.350  33.636  16.585  0.2919 -0.0383 -0.2294
30571W        W73624   0.814  19.191   8.030 -0.2326 -0.0375  0.1416
30572W        W73625   7.725  19.394  22.559  0.1398 -0.2996  0.1139
30573W        W73626   2.304  11.054  22.246  0.0513  0.0421 -0.2026
30574W        W73627  19.586  28.169   1.835 -0.4997  0.1777 -0.0559
30575W        W73628  28.008  11.104  26.403 -0.0391 -0.2713  0.3486
30576W        W73629  30.938  15.334  17.977  0.1910 -0.0720 -0.2313
30577W        W73630   2.208  31.016  28.771  0.0783  0.0153  0.0261
30578W        W73631  30.125  26.894  18.389  0.0934  0.0955  0.3018
30579W        W73632   7.304  24.338  28.878  0.3896  0.0565  0.2560
30580W        W73633  34.318   6.125  27.474  0.0315 -0.1419 -0.1677
30581W        W73634  15.215  16.374   7.709 -0.1029 -0.1406 -0.1703
30582W        W73635  32.235  34.315  25.277 -0.0138  0.0193  0.1486
30583W        W73636  16.237  27.279   0.585  0.1211 -0.1934  0.1887
30584W        W73637   7.102   6.988  21.920 -0.1858 -0.0205 -0.0673
30585W        W73638  10.464  17.466  15.171  0.3088 -0.1131 -0.1215
30586W        W73639  22.757  18.905  15.882 -0.0284  0.0540 -0.1978
30587W        W73640  26.644  16.197  20.780  0.1657  0.5893  0.0750
30588W        W73641   6.939  14.827  15.284 -0.0428 -0.1058  0.0295
30589W        W73642   6.263   9.301   3.764 -0.0315 -0.1521  0.1021
30590W        W73643   3.063   9.691  27.708  0.1883  0.0079 -0.0426
30591W        W73644   8.332  29.001  15.116 -0.1522 -0.0055  0.4281
30592W        W73645   6.346  22.620   8.714 -0.0857 -0.3194 -0.4516
30593W        W73646  34.408  24.129  24.352 -0.1230  0.3565  0.0354
30594W        W73647  29.659  21.282  20.559  0.2507  0.1748 -0.0055
30595W        W73648   5.979  14.265  17.290  0.1733 -0.1479 -0.0846
30596W        W73649  32.220   9.519  28.038  0.1602  0.0499 -0.0777
30597W        W73650  31.326   4.667  16.981 -0.0921 -0.0011 -0.0709
30598W        W73651  13.265  30.966  16.783 -0.0198 -0.2015  0.3333
30599W        W73652  16.459  23.088   8.793  0.1357  0.0889 -0.0924
30600W        W73653  16.016  15.851  15.017  0.0648 -0.0712  0.0433
30601W        W73654   5.677  31.168  17.761  0.0405  0.1240 -0.2190
30602W        W73655   5.614  15.272  15.497 -0.2450 -0.0972 -0.2687
30603W        W73656   1.633  19.465   2.336 -0.0911  0.1079  0.1243
30604W        W73657   8.240  11.745  25.568 -0.4339 -0.0031  0.0697
30605W        W73658   0.612  31.243  13.982 -0.0470  0.1678  0.1563
30606W        W73659   0.345  20.882  20.275 -0.0435 -0.2008 -0.0067
30607W        W73660  12.772   5.988  20.712 -0.0595 -0.1123 -0.0021
30608W        W73661  13.719  30.251  15.341  0.0800 -0.0229 -0.0437
30609W        W73662   5.041  30.608  14.402  0.1243  0.3198 -0.0211
30610W        W73663  26.595  29.332  20.200  0.0323  0.0504  0.0044
30611W        W73664   3.677  15.898   5.904  0.1387  0.0773  0.0773
30612W        W73665   4.213   0.991  22.316  0.1546 -0.1373 -0.0164
30613W        W73666  20.577  20.695   0.514  0.1920  0.2523 -0.0407
30614W        W73667  12.191  21.535  23.422  0.0627 -0.0187 -0.1447
30615W        W73668   8.217  19.322  14.111 -0.0791 -0.0549 -0.2319
30616W        W73669   6.566   2.944  24.797 -0.3631  0.0097  0.0927
30617W        W73670  20.807  26.555   8.084 -0.3225  0.2923 -0.1464
30618W        W73671  18.804  18.092  27.864  0.3906  0.1696 -0.0508
30619W        W73672   9.688  22.032  28.004 -0.0760  0.1269 -0.1480
30620W        W73673  30.601  33.765  15.627 -0.0526  0.0526  0.2319
30621W        W73674  10.462  26.642  14.280 -0.1126 -0.1373 -0.2197
30622W        W73675   4.131  33.170  15.936  0.2232 -0.3076  0.2264
30623W        W73676  24.622  26.655  17.080 -0.3864  0.1782 -0.0526
30624W        W73677  19.270   5.382  24.898 -0.3670 -0.0148  0.1055
30625W        W73678  29.469  29.328  24.003  0.0382 -0.0166  0.1415
30626W        W73679  28.800   9.393  16.013  0.0706  0.1122  0.2938
30627W        W73680   6.766  13.729  23.841  0.1289 -0.2024  0.1374
30628W        W73681  33.807  13.505  19.401 -0.3956 -0.1446  0.0568
30629W        W73682  32.235   3.814  18.439  0.3415  0.2808  0.2869
30630W        W73683   6.670  23.462  16.209 -0.2078 -0.2046 -0.0439
30631W        W73684  28.833  15.930  19.739 -0.3147  0.1330 -0.1187
30632W        W73685   9.555  15.887  18.534  0.0794 -0.0332  0.2005
30633W        W73686  25.743  20.355  21.876 -0.0738  0.2105  0.0663
30634W        W73687  16.468  29.917  15.392  0.1115  0.0305 -0.0919
30635W        W73688   2.023   9.569  14.844 -0.0769 -0.0577 -0.1767
30636W        W73689   4.377  31.467  18.814  0.3799 -0.3916 -0.1840
30637W        W73690  20.785  12.306  20.380 -0.1518 -0.3470 -0.1657
30638W        W73691  16.497   1.897  20.468  0.2003 -0.0927  0.0137
30639W        W73692  11.723   0.153  28.463  0.1857  0.3773 -0.0173
30640W        W73693   2.968  27.628  14.388  0.0540 -0.1228  0.1253
30641W        W73694   9.776  19.988  28.709  0.0728  0.2208 -0.1299
30642W        W73695  19.715   0.379  15.498  0.1861  0.0571  0.0841
30643W        W73696  27.266  12.363  20.254 -0.1558  0.0041 -0.1858
30644W        W73697   9.006  17.191  14.044  0.0707  0.0888  0.1550
30645W        W73698  11.924  16.956  16.525  0.0963 -0.4136 -0.1772
30646W        W73699  29.815  27.762  14.670 -0.1076 -0.2247  0.1679
30647W        W73700  14.508   5.621   1.798 -0.1052  0.0571 -0.1667
30648W        W73701   7.950  12.805  17.820  0.1410 -0.0085  0.0760
30649W        W73702   2.537  26.995  27.217  0.0701 -0.1404  0.0410
30650W        W73703  11.885  19.373  23.874 -0.2178  0.0291  0.0775
30651W        W73704  13.394  19.626   4.522  0.1628 -0.3515 -0.3556
30652W        W73705  29.845  29.725   1.618 -0.3465  0.3312  0.1556
30653W        W73706  28.563  24.799  18.647 -0.1145 -0.1147 -0.1188
30654W        W73707  21.623  25.970  15.850  0.1677 -0.3207  0.3862
30655W        W73708  25.585   9.563  26.146 -0.0992  0.1739 -0.2242
30656W        W73709  26.192  18.189  14.660  0.0872 -0.0119 -0.1386
30657W        W73710   3.517   1.738  16.102 -0.1252 -0.2042 -0.3762
30658W        W73711  33.734  18.093  14.536 -0.1552  0.0575 -0.1745
30659W        W73712   0.375  19.157  19.824 -0.1746 -0.1048 -0.3579
30660W        W73713   4.626  10.407  19.065  0.2861  0.2005 -0.0632
30661W        W73714  22.335  20.373  13.736  0.1897  0.2007 -0.0461
30662W        W73715  33.329  12.532  19.918 -0.0961  0.1184 -0.1130
30663W        W73716  11.196  20.172  16.609  0.2658 -0.4393  0.1350
30664W        W73717  28.114  17.201  24.381 -0.0515 -0.0774 -0.2975
30665W        W73718  27.757  29.406  19.110  0.3476  0.1145 -0.1538
30666W        W73719  18.450  20.823  14.786 -0.0266  0.1083  0.0530
30667W        W73720  13.963  33.644  21.826  0.0946 -0.0485 -0.0141
30668W        W73721   1.188   3.563  22.678 -0.0681 -0.1399  0.1660
30669W        W73722   0.566  28.518  20.385 -0.1696 -0.3140 -0.2226
30670W        W73723   5.647  27.281  17.845 -0.0853  0.4675  0.0217
30671W        W73724  27.058  30.748  17.742  0.0983 -0.2369 -0.0400
30672W        W73725  19.061  11.423  18.143  0.1409  0.0674 -0.2306
30673W        W73726  17.300   4.317  24.205  0.4463  0.2872 -0.1458
30674W        W73727   5.195  23.487  19.214 -0.1942 -0.0268  0.1130
30675W        W73728  23.445  25.595   5.813  0.1652 -0.1627  0.1526
30676W        W73729  14.711  17.022  27.818  0.0252  0.1033 -0.2990
30677W        W73730  11.654  31.220   6.992 -0.0691  0.1331 -0.1136
30678W        W73731   0.356  19.999  28.215 -0.3550 -0.2921  0.1136
30679W        W73732  27.441  16.136  13.595 -0.0860  0.1995 -0.0142
30680W        W73733   4.552  33.131  26.906  0.2387 -0.0603 -0.1230
30681W        W73734   6.733  16.558  15.385 -0.0603 -0.1018  0.0706
30682W        W73735   2.532  21.541  15.139 -0.2089  0.2187  0.1216
30683W        W73736  10.032  20.531  28.788 -0.0608 -0.0287 -0.5458
30684W        W73737  31.008  25.488  23.792 -0.0831  0.0535  0.0363
30685W        W73738   7.818  17.261  25.300 -0.1639 -0.2399 -0.0339
30686W        W73739   4.628  24.149  28.224  0.0437 -0.0581 -0.0040
30687W        W73740  30.368  21.324  19.563 -0.0029  0.1094  0.0737
30688W        W73741  13.154  16.574  15.878 -0.0635  0.0259  0.1873
30689W        W73742  33.769  15.064   8.697 -0.3926  0.2845  0.0491
30690W        W73743   2.690   3.375  15.811  0.2453  0.1186  0.0687
30691W        W73744   2.734  30.465  16.093  0.0494  0.3360  0.0577
30692W        W73745   7.722  22.841  16.578 -0.0110  0.3045  0.1900
30693W        W73746  30.513  20.469   4.106 -0.0364 -0.1065  0.0233
30694W        W73747   3.863   2.227  22.283  0.2405  0.0005 -0.2737
30695W        W73748  18.262  12.721  21.665  0.0566  0.1227  0.1916
30696W        W73749  26.979  23.552  26.069 -0.0316 -0.2928 -0.0261
30697W        W73750  11.139  21.248   6.497  0.0110 -0.3873  0.1613
30698W        W73751  13.354  28.580  16.949 -0.2271  0.5690 -0.1578
30699W        W73752  12.028   3.653   1.669 -0.2229  0.2520  0.2576
30700W        W73753   5.569  15.770  22.306 -0.1165  0.0141 -0.1448
30701W        W73754  10.768  29.668  29.023 -0.0981  0.1849  0.1025
30702W        W73755  10.609  15.040  18.535  0.2694  0.0827 -0.3154
30703W        W73756  19.134  10.430  16.028 -0.1072 -0.1064  0.2469
30704W        W73757  31.890   9.059  26.134  0.0317  0.1562 -0.0402
30705W        W73758  29.826   2.207  22.684 -0.2734 -0.2056 -0.0873
30706W        W73759   1.805   4.542   4.630 -0.0645  0.1388  0.1188
30707W        W73760  17.114  30.230  22.096 -0.0816 -0.3786 -0.0086
30708W        W73761   5.983  28.980  17.207  0.0671 -0.1309 -0.1467
30709W        W73762  20.383  30.836  23.435  0.2466 -0.1753 -0.3075
30710W        W73763   0.461  22.697  13.578  0.2299 -0.2090  0.1027
30711W        W73764   0.651  32.994   0.186  0.1267 -0.2714 -0.2779
30712W        W73765  14.961  21.515  14.291  0.0149 -0.0528  0.0624
30713W        W73766   4.679  24.641  15.741  0.0680  0.2551 -0.1287
30714W        W73767  14.876  27.983  23.520  0.1330 -0.1618 -0.1934
30715W        W73768   3.185   5.206  21.305  0.0794 -0.2681 -0.0154
30716W        W73769  13.415  27.072   5.913 -0.3801 -0.2725  0.2300
30717W        W73770   0.216  29.527  21.304 -0.2784 -0.0211 -0.5752
30718W        W73771  13.317  32.513  23.268 -0.3671 -0.0944  0.0779
30719W        W73772  16.801   4.031  17.834  0.0522 -0.1717  0.0044
30720W        W73773  10.623  23.685  24.500 -0.3235  0.0650  0.1318
30721W        W73774   2.871  22.856   0.178 -0.2228  0.0273 -0.0607
30722W        W73775  14.828  29.719  26.287 -0.2189 -0.0108  0.1018
30723W        W73776  34.586  23.797  28.980  0.0718 -0.1512 -0.0996
30724W        W73777   8.350  13.446  20.077 -0.1940 -0.0314 -0.0659
30725W        W73778  34.319  20.732  18.679  0.1029 -0.0691  0.3721
30726W        W73779  15.589   8.431   4.485 -0.1793 -0.1403  0.3248
30727W        W73780  24.173  23.052   4.341 -0.2225 -0.0167 -0.1655
30728W        W73781  14.879  26.459  18.946 -0.0329 -0.0469 -0.1077
30729W        W73782   5.572  21.571  13.509 -0.0608  0.2173  0.1100
30730W        W73783   3.577  16.733  17.770  0.4215 -0.2126  0.1976
30731W        W73784  17.128   2.542  20.876  0.3709 -0.2967 -0.0962
30732W        W73785   9.019  21.664  14.801 -0.1178  0.1081  0.2574
30733W        W73786   6.801  10.301  15.569  0.2760 -0.0681 -0.3610
30734W        W73787   5.779  24.710  24.248  0.0668  0.2022  0.0697
30735W        W73788  30.327  24.459   3.473 -0.0797  0.1030 -0.3256
30736W        W73789   1.945  29.469  16.421  0.0285 -0.0616 -0.0579
30737W        W73790  20.804  15.807  22.870 -0.0525 -0.0354  0.2958
30738W        W73791   7.514  10.429  26.830  0.0747 -0.2362  0.2517
30739W        W73792   7.245  19.028  15.120  0.0301 -0.1300 -0.0930
30740W        W73793  33.829  21.791  16.006  0.0787  0.0122  0.0252
30741W        W73794  31.379  31.981  19.668  0.0043 -0.0946 -0.0083
30742W        W73795  13.023  26.755  22.760  0.2399  0.2904  0.1210
30743W        W73796  17.680  28.702   1.889  0.2332  0.0469 -0.0211
30744W        W73797  13.869  31.243  26.370 -0.0706  0.1225  0.1607
30745W        W73798  24.104  21.002  21.327  0.0765  0.0486 -0.3479
30746W        W73799  13.315   7.092  23.389 -0.1931 -0.1560  0.0278
30747W        W73800  31.333   6.299  27.241  0.0227 -0.0409 -0.0135
30748W        W73801  10.844  12.397  19.692  0.4030  0.1177  0.1636
30749W        W73802  29.784  18.367   2.170 -0.1990  0.0170  0.0994
30750W        W73803  12.669  15.062  16.365 -0.4883 -0.1104  0.1703
30751W        W73804  16.901  30.915  28.748 -0.1609 -0.2563  0.1199
30752W        W73805   4.106  12.577   0.324 -0.1379  0.1657 -0.1322
30753W        W73806  13.999  10.005  19.695 -0.1897 -0.0198 -0.1434
30754W        W73807  11.414  17.814  14.962 -0.3766 -0.0173  0.0733
30755W        W73808  34.248  31.836  16.074 -0.0390  0.0224  0.1637
30756W        W73809   1.044  20.115  13.595 -0.0112  0.4157 -0.1720
30757W        W73810  25.046  16.393  20.842  0.5001  0.0570 -0.1587
30758W        W73811  15.314  24.768  27.413  0.1098  0.3784  0.2924
30759W        W73812   8.000  24.741  24.911  0.0502  0.0010 -0.2026
30760W        W73813  21.987  31.189   0.689 -0.1107 -0.3957 -0.0489
30761W        W73814   3.002  28.821  19.083 -0.0655  0.0548 -0.0658
30762W        W73815  30.004  31.461   3.114  0.1557 -0.2253  0.1639
30763W        W73816  31.843  16.008   4.852 -0.0343 -0.0447  0.1336
30764W        W73817   3.354  32.647  13.923 -0.0713 -0.0642 -0.0995
30765W        W73818  10.864   4.090  14.729  0.0670 -0.1206  0.0675
30766W        W73819  33.714  23.532   0.795 -0.0516  0.1832 -0.0410
30767W        W73820   8.341   0.516   2.835 -0.2782  0.2701 -0.1445
30768W        W73821  31.354  34.642  17.954 -0.0634 -0.0860 -0.0322
30769W        W73822   4.663  15.673  15.283  0.2217  0.1884  0.0188
30770W        W73823   3.889  10.389  18.814 -0.1104 -0.1619 -0.0830
30771W        W73824  29.653  10.273  26.394 -0.1655  0.1129 -0.2187
30772W        W73825  17.960   0.629  23.422  0.0384  0.2386  0.0534
30773W        W73826   4.240  16.688  18.727  0.0301 -0.0041 -0.0627
30774W        W73827  32.823  19.547  19.488 -0.0632 -0.1873 -0.0509
30775W        W73828   5.049  24.570   4.566 -0.1711 -0.0092  0.1711
30776W        W73829   0.702  14.538  16.986 -0.0659  0.1204  0.0852
30777W        W73830  14.419  24.959   7.568  0.1590 -0.0464 -0.0680
30778W        W73831   0.681  28.027  21.572 -0.0232 -0.1042  0.1800
30779W        W73832   7.862  30.221   4.569 -0.3098  0.0010 -0.1990
30780W        W73833  33.659  20.671  23.404  0.0054  0.1945 -0.0228
30781W        W73834  30.759  30.972  16.268 -0.0131  0.1974 -0.1569
30782W        W73835  17.433  24.913  16.524  0.1601  0.2135 -0.3742
30783W        W73836  14.738  19.325  22.227  0.4280  0.0711  0.1021
30784W        W73837   3.960  18.941  16.544 -0.2660  0.0278  0.2988
30785W        W73838  22.580  14.446  13.600 -0.3808 -0.0160 -0.1688
30786W        W73839  10.034  31.519  15.141 -0.0026 -0.2956  0.1096
30787W        W73840   0.470   8.850  19.982  0.3008 -0.1260  0.1706
30788W        W73841  10.732  33.421   0.449  0.0502 -0.5052  0.0556
30789W        W73842  27.148  18.173  15.040 -0.0756  0.1488  0.0718
30790W        W73843  11.916  19.420   7.562  0.2901  0.0057  0.0067
30791W        W73844   4.122  14.965  22.499 -0.1282  0.2674 -0.0963
30792W        W73845   0.988  33.790  25.746  0.3718 -0.1919 -0.0276
30793W        W73846  26.908   1.368  14.408  0.1724 -0.0480  0.2224
30794W        W73847  34.225  25.283  23.062  0.2055 -0.1425 -0.2629
30795W        W73848  34.098  21.261  20.362  0.1866 -0.0289  0.0385
30796W        W73849  14.934  29.280  23.409  0.3858 -0.1066  0.1090
30797W        W73850  16.139  28.477   8.518 -0.1544 -0.0155  0.0592
30798W        W73851  33.370  24.431  14.956  0.0199  0.3247  0.1488
30799W        W73852   7.282  19.522  25.872  0.1985 -0.3854  0.0966
30800W        W73853  15.779  20.260  26.271  0.2578 -0.2396  0.0482
30801W        W73854  12.668  12.480  19.048 -0.0649 -0.1074 -0.3918
30802W        W73855  29.523  10.631  27.618 -0.1188 -0.3607 -0.1021
30803W        W73856   1.804  23.307  22.765 -0.1476 -0.0502  0.1141
30804W        W73857  11.091  30.732  14.004  0.0458  0.2815  0.1196
30805W        W73858  33.218  27.113  14.850 -0.1253 -0.1051  0.0455
30806W        W73859  10.386  26.957   2.786 -0.1898  0.1880  0.5371
30807W        W73860   2.623   1.750  24.866 -0.0474  0.4739  0.2396
30808W        W73861   7.203  17.607   4.183 -0.2363 -0.2347  0.1643
30809W        W73862   8.450  14.046  17.700  0.3882  0.0554 -0.1448
30810W        W73863   8.343  18.923  23.380 -0.1904  0.2504  0.0274
30811W        W73864   1.447  13.284  24.427  0.0756  0.4284 -0.0372
30812W        W73865  19.252  14.633  14.896 -0.4314 -0.1472  0.0650
30813W        W73866   4.820  28.217  14.201  0.2897 -0.1268  0.0908
30814W        W73867   1.046  20.925  13.740  0.1222  0.3482  0.2028
30815W        W73868  10.649  25.895   5.070 -0.1667 -0.1894  0.1876
30816W        W73869  25.928  14.478  24.466  0.0342 -0.3424 -0.1719
30817W        W73870  32.412  15.933  20.187 -0.0707 -0.0426 -0.0362
30818W        W73871   1.723   6.961  15.156  0.0901 -0.1361 -0.1923
30819W        W73872   9.170   3.868  23.724 -0.1450 -0.0505 -0.0794
30820W        W73873   3.541  16.925  18.256 -0.1069  0.1183 -0.0447
30821W        W73874  11.369  28.661  16.141  0.0144 -0.1103 -0.0289
30822W        W73875  20.543  27.213   2.350  0.1830  0.0138 -0.0070
30823W        W73876  22.054  19.303   7.929  0.2160  0.1103  0.2480
30824W        W73877   2.277   3.501  25.858 -0.1585 -0.2464 -0.0218
30825W        W73878  14.944  17.222  16.281 -0.0679  0.1118 -0.1764
30826W        W73879   1.688  21.994  19.963 -0.0679 -0.3293  0.1112
30827W        W73880   4.372  19.407  24.841 -0.1596 -0.3104 -0.0121
30828W        W73881  17.177  24.324  17.648 -0.2022 -0.0510 -0.0225
30829W        W73882  26.838  20.388  28.731 -0.1142 -0.1927 -0.0436
30830W        W73883  34.192   3.183  21.084 -0.0216 -0.0030 -0.0539
30831W        W73884   2.906  23.086  25.865  0.0216 -0.0332 -0.1463
30832W        W73885  27.054  28.273   9.297  0.2509 -0.1253  0.1423
30833W        W73886  33.497  25.552  28.825 -0.1013 -0.0705  0.1795
30834W        W73887  23.549  13.376   1.583 -0.1517  0.0751  0.1211
30835W        W73888   0.503  11.033  28.518 -0.0322 -0.3371  0.2886
30836W        W73889  34.666  33.547  18.803 -0.0259  0.2624 -0.1175
30837W        W73890  11.354   6.705  28.727 -0.0927  0.0725 -0.2646
30838W        W73891  12.964  24.382  18.707  0.2554  0.1316  0.0995
30839W        W73892  26.082   2.854   6.264  0.3358  0.0604 -0.0322
30840W        W73893  11.265  30.077  24.427 -0.1075 -0.2476  0.0340
30841W        W73894   4.450  12.341  27.570  0.0303  0.5216  0.1139
30842W        W73895   9.659  14.196  23.164  0.2809  0.0660  0.2298
30843W        W73896  13.662  16.232  26.217 -0.0698 -0.2832  0.2689
30844W        W73897  14.753  27.563  19.306  0.0893  0.0427 -0.1538
30845W        W73898   1.859  17.670  26.427 -0.0702  0.5586 -0.2915
30846W        W73899  28.900  18.226   0.297  0.1131  0.5772 -0.2648
30847W        W73900   7.930  29.164  17.643  0.2130  0.2836 -0.0674
30848W        W73901  14.996  19.522  24.766  0.1153 -0.1068  0.1385
30849W        W73902   7.837  31.599  14.562 -0.1183  0.2997 -0.1489
30850W        W73903   9.155  24.463  27.777 -0.0481 -0.1358  0.3927
30851W        W73904  30.154  25.106  17.976  0.1257 -0.1527 -0.1372
30852W        W73905  17.105  11.275  16.400  0.0518  0.0556 -0.1132
30853W        W73906   3.919  20.318  13.888  0.1148 -0.3431  0.1017
30854W        W73907   8.908   7.977  21.908  0.2865  0.0045 -0.0147
30855W        W73908   6.502  26.075  13.717 -0.0126 -0.0102 -0.0103
30856W        W73909  31.896  26.425  23.431 -0.2219  0.3181  0.0070
30857W        W73910  12.636  28.928   2.077  0.1323  0.0434 -0.0081
30858W        W73911   9.061   2.380  16.010  0.2077 -0.2045 -0.4645
30859W        W73912  11.206  19.806   8.946  0.0853  0.1848  0.1465
30860W        W73913  18.090   2.272  21.010 -0.0132 -0.0738  0.1088
30861W        W73914  29.975   2.416   3.232 -0.0850 -0.2878 -0.0383
30862W        W73915   5.497  27.411  20.173  0.0679 -0.2447  0.4665
30863W        W73916   4.426  32.875   6.093  0.0966  0.1017 -0.0247
30864W        W73917   3.987  26.458  15.230 -0.3103 -0.1654  0.0893
30865W        W73918   1.791  25.652   7.633 -0.3061  0.1088 -0.1565
30866W        W73919  25.677  25.980  28.206 -0.1452 -0.0358  0.0651
30867W        W73920  33.671  22.191  19.744 -0.0827 -0.0430  0.1214
30868W        W73921   8.741  14.326   9.165  0.1251  0.2226  0.0134
30869W        W73922  11.691  33.587  15.128  0.0524  0.2323 -0.0419
30870W        W73923  22.409  19.146   2.318  0.2861 -0.0898  0.2495
30871W        W73924   2.639  27.540  20.495  0.3355  0.2338  0.2307
30872W        W73925  23.624  13.968  26.624  0.0243  0.1349 -0.1088
30873W        W73926   6.753  31.605  18.526  0.3300 -0.1301  0.1687
30874W        W73927   6.228  34.508   7.509  0.3096 -0.0263  0.1895
30875W        W73928  11.419  19.711  23.114 -0.1594 -0.3719  0.0207
30876W        W73929   1.258  10.917  27.859 -0.0130 -0.4172 -0.0548
30877W        W73930   2.999  28.092   9.301  0.3190  0.3497  0.3077
30878W        W73931  20.946  28.849  21.077 -0.0143  0.1682 -0.1054
30879W        W73932  12.254  19.022  24.541  0.0123 -0.3587 -0.1552
30880W        W73933   9.010  28.467  17.150  0.1341  0.2090 -0.3507
30881W        W73934   3.203  28.908   9.239 -0.3462  0.0202  0.1151
30882W        W73935   4.435  21.906  15.021  0.0010  0.3644 -0.0169
30883W        W73936  30.800  27.619  13.626  0.2915 -0.0955 -0.0186
30884W        W73937   8.363  34.483  23.259  0.4250  0.0012  0.1554
30885W        W73938  33.964  28.707  26.005 -0.1017  0.1818  0.1686
30886W        W73939  19.999  22.597   0.936  0.0348  0.1067 -0.1857
30887W        W73940  14.286  24.656  23.989  0.0927 -0.2016 -0.2072
30888W        W73941   6.351   3.588   0.669  0.1515 -0.1772 -0.1643
30889W        W73942  21.225  16.230  27.581 -0.1341  0.1229 -0.3100
30890W        W73943  23.663  30.272  25.632  0.2503 -0.0497  0.2984
30891W        W73944   1.708  20.575   8.820 -0.1888  0.1005 -0.1500
30892W        W73945  10.644  16.109  23.908  0.0308  0.2341  0.1726
30893W        W73946   3.751  25.244   7.636  0.0789 -0.0614 -0.0890
30894W        W73947  17.254   9.842   6.915 -0.0426  0.1695 -0.2159
30895W        W73948  26.750  22.286  22.880  0.1260 -0.1323  0.3446
30896W        W73949  14.359  17.665  13.730 -0.2010  0.0041  0.0146
30897W        W73950   2.519  25.617  17.340  0.3317  0.1104 -0.0476
30898W        W73951  28.826  21.227  16.409 -0.2050  0.1306 -0.2009
30899W        W73952  31.571  33.877  26.914  0.0286 -0.0964  0.1895
30900W        W73953  31.215   0.597  17.442  0.3672 -0.0453 -0.2150
30901W        W73954  13.484  17.840  19.276  0.0092 -0.0956  0.2169
30902W        W73955   8.836  20.674  24.431  0.2283 -0.0280 -0.0056
30903W        W73956  28.564  34.536  20.073  0.1936  0.3902  0.1848
30904W        W73957   4.594  15.096  17.580 -0.0213 -0.3879  0.0928
30905W        W73958   5.650  19.594  16.367  0.0800  0.0891  0.0407
30906W        W73959  12.778   7.078  21.437 -0.0535 -0.2097  0.1274
30907W        W73960  17.668  29.924   7.319 -0.3469  0.0845 -0.1699
30908W        W73961  27.128  20.572  16.397  0.1051 -0.0629 -0.2764
30909W        W73962   1.620  19.378  15.291  0.2800  0.0472 -0.3862
30910W        W73963   1.867  21.228   6.884 -0.0077  0.0952 -0.0896
30911W        W73964   2.084   6.076  23.755 -0.0060  0.3561 -0.3302
30912W        W73965  32.938  14.678  18.742 -0.0322 -0.1149 -0.2161
30913W        W73966  13.177  34.519  28.784  0.1823  0.2190 -0.2498
30914W        W73967  34.569  25.837  28.890  0.1076 -0.1727  0.1980
30915W        W73968   9.105  22.319   3.371  0.1477  0.1377 -0.1372
30916W        W73969   2.105  28.714  18.798 -0.2516  0.0020 -0.0150
30917W        W73970  11.282  12.121   4.512  0.1385 -0.2288 -0.2011
30918W        W73971  33.138  22.769   0.325  0.1166  0.1227  0.2004
30919W        W73972   7.603   2.010  25.151  0.2871  0.4172  0.1576
30920W        W73973  19.793  23.751  16.834  0.1608  0.0441 -0.0989
30921W        W73974   8.307  15.714  20.316  0.1631 -0.1933 -0.2333
30922W        W73975  14.572  12.800  24.639  0.0022 -0.1367  0.1514
30923W        W73976  11.701   1.744  27.927  0.2947  0.1597  0.1696
30924W        W73977   9.959  12.848  19.514 -0.1563 -0.1230  0.4505
30925W        W73978  14.771   7.013   6.218 -0.2622 -0.0422  0.0542
30926W        W73979  29.815  14.626  15.557 -0.1909 -0.0806 -0.4708
30927W        W73980  25.471  21.856  22.598  0.2095  0.2337 -0.0868
30928W        W73981  11.178  17.772  26.653 -0.1646 -0.1886  0.0395
30929W        W73982   8.769  13.956  19.197 -0.1101  0.0909  0.0470
30930W        W73983  11.351   8.664  25.709 -0.0161 -0.3615  0.3079
30931W        W73984  11.526  20.589  22.559 -0.1368 -0.3974  0.0527
30932W        W73985  13.819  31.886  23.156  0.0612 -0.3493 -0.0804
30933W        W73986   4.140  29.028   9.176  0.0249  0.0074 -0.2128
30934W        W73987   2.079  19.446  15.792  0.1093  0.0908  0.2414
30935W        W73988  31.172   9.933  16.801 -0.2286  0.1073 -0.0516
30936W        W73989  21.543   3.998   1.164  0.0598 -0.0106  0.1738
30937W        W73990  10.446  28.708  15.626  0.3584 -0.3519 -0.2219
30938W        W73991  12.229  24.083  19.056 -0.0396 -0.0266  0.0004
30939W        W73992   9.508  13.955  15.361  0.2348  0.0558 -0.2842
30940W        W73993   2.528  24.174   6.481  0.0026 -0.1906  0.0664
30941W        W73994  25.231  26.522  24.952 -0.0565  0.1780 -0.0505
30942W        W73995   1.923  16.691  15.048  0.0332 -0.2821  0.2991
30943W        W73996  13.158  24.624  10.349 -0.3033  0.4932 -0.3628
30944W        W73997   8.838  28.448  27.948 -0.0969  0.1173 -0.4095
30945W        W73998  13.831   7.188  21.716 -0.0039 -0.1490 -0.2978
30946W        W73999   1.628  28.496  16.649 -0.2355 -0.3635  0.0802
30947W        W74000  20.607   2.808  19.618 -0.1198  0.2977  0.0243
30948W        W74001   8.165  29.681   8.828  0.1034  0.2517  0.1609
30949W        W74002  14.671  26.807  26.921 -0.0898  0.1248  0.1671
30950W        W74003  28.227  14.279  17.944 -0.0472 -0.0728  0.0065
30951W        W74004  31.110  12.932  14.755  0.2148  0.3673  0.1676
30952W        W74005  24.752  22.259  21.750  0.4278 -0.3387  0.0404
30953W        W74006  16.813  28.779  28.591 -0.0119 -0.0490 -0.2066
30954W        W74007   8.311  27.803  23.876 -0.1261  0.3100 -0.0742
30955W        W74008  19.545  13.756  14.061 -0.0319 -0.3480 -0.0079
30956W        W74009  31.881  24.138  13.287  0.3982 -0.1903  0.5763
30957W        W74010  33.344  26.431  17.455  0.4101  0.1402 -0.1000
30958W        W74011  16.240  33.452  15.871  0.2700  0.0979 -0.1036
30959W        W74012  24.983  14.363  26.165 -0.0730 -0.2747  0.0096
30960W        W74013  32.694  23.162  26.241 -0.1671 -0.0094 -0.0044
30961W        W74014   6.351  19.959   0.804  0.1967 -0.2498  0.0366
30962W        W74015  19.476  10.136  25.226 -0.1473  0.1917  0.1266
30963W        W74016   4.690  21.626  24.991  0.0405 -0.0398 -0.5478
30964W        W74017   8.498  29.722  23.309 -0.2032  0.2491  0.2256
30965W        W74018   6.853  25.318  14.407 -0.0337  0.0094 -0.2681
30966W        W74019  25.923  15.255  26.307 -0.2370  0.1850 -0.1515
30967W        W74020   7.719  17.566  16.801 -0.1045  0.4222  0.1454
30968W        W74021   8.651  19.648  17.890 -0.0117  0.2337 -0.0332
30969W        W74022   7.233  17.680  19.452  0.0515 -0.0284 -0.1534
30970W        W74023  13.919  27.616  15.731 -0.2767 -0.0633  0.0909
30971W        W74024   5.068  15.596  19.565 -0.0498  0.2514 -0.2264
30972W        W74025  16.445  17.169   9.264 -0.5507 -0.1197 -0.0171
30973W        W74026   0.466  16.590  18.531  0.0568 -0.2591  0.0942
30974W        W74027  11.694  19.740   4.694  0.2274  0.0710 -0.0157
30975W        W74028  10.945   8.397  21.311  0.1332  0.0450 -0.2811
30976W        W74029   0.098   1.443  17.312 -0.0058 -0.2588  0.0866
30977W        W74030  16.782  25.852  21.238  0.0550 -0.1444  0.1274
30978W        W74031  18.145  32.649  22.359 -0.1089  0.1739 -0.2028
30979W        W74032  13.491  27.194  28.364 -0.1449  0.2839  0.1151
30980W        W74033  14.130  19.094  14.147  0.1049  0.0347  0.3079
30981W        W74034   0.345   5.910  25.534 -0.2052 -0.0943  0.2265
30982W        W74035  30.510  25.854  16.393  0.3043  0.1264 -0.1943
30983W        W74036  32.889  34.324   3.693 -0.1854  0.2289 -0.1359
30984W        W74037   5.187  18.825   1.997 -0.1562 -0.1093 -0.1725
30985W        W74038  33.324  25.551   7.475 -0.1136  0.3704  0.2910
30986W        W74039  32.036  31.762  15.547 -0.0996  0.0454  0.1842
30987W        W74040  30.422  12.902  16.895  0.4171 -0.6324  0.1260
30988W        W74041   7.938  11.202   3.399 -0.1650 -0.0549 -0.0061
30989W        W74042   9.217  17.007  25.461 -0.1479 -0.2128  0.4181
30990W        W74043  30.681  30.223  27.131 -0.0105  0.0439  0.0185
30991W        W74044  30.097   2.351   2.686 -0.0560  0.3369  0.3262
30992W        W74045   6.101  19.481   3.860  0.3718 -0.2369 -0.0304
30993W        W74046  10.484   3.324  16.163 -0.1113 -0.3565  0.0350
30994W        W74047  10.786  22.537   1.270 -0.0237 -0.0112 -0.0872
30995W        W74048   5.312  26.853  13.581 -0.2442 -0.1763 -0.0219
30996W        W74049  12.232  12.295  21.924  0.0290 -0.2279 -0.0897
30997W        W74050  27.533  16.284  21.379 -0.3770  0.4039 -0.0915
30998W        W74051   6.760  20.569  27.662 -0.2211 -0.2293 -0.1867
30999W        W74052  12.296   1.251  23.900  0.1869 -0.1670  0.0190
31000W        W74053   4.054  10.840  23.332  0.0511 -0.0178  0.1523
31001W        W74054   0.205  33.843  20.222 -0.0014  0.1190  0.1019
31002W        W74055  10.773  21.310  24.540  0.0382  0.0545 -0.0882
31003W        W74056   6.944   8.962   4.376 -0.1033 -0.0201 -0.0505
31004W        W74057  32.367  24.023   0.419 -0.1943  0.2978 -0.1898
31005W        W74058  11.137  33.215   2.901  0.0138 -0.2660  0.0672
31006W        W74059   2.525  24.537  15.879  0.1293  0.2931  0.1471
31007W        W74060  16.802  21.446  22.260 -0.1089  0.0215 -0.1232
31008W        W74061  13.087  20.236   7.348  0.1707  0.0561 -0.2632
31009W        W74062   3.890   5.467  25.147 -0.2549  0.1724 -0.0912
31010W        W74063   4.706  24.931  19.814  0.0323  0.1193  0.1022
31011W        W74064  25.500   5.896   5.101 -0.0094  0.1160 -0.1971
31012W        W74065  34.472  28.676  15.538  0.1197  0.0021 -0.2170
31013W        W74066   0.900  24.861  17.121  0.1061 -0.2525 -0.1431
31014W        W74067   5.394  31.352  23.413  0.0548  0.0588  0.1223
31015W        W74068  34.449   2.549  19.443  0.1043 -0.1551 -0.2516
31016W        W74069   2.397  26.378  20.162 -0.1692 -0.0047  0.1221
31017W        W74070  32.932  16.815   0.099 -0.1715  0.1757  0.1695
31018W        W74071  18.922  21.648  19.879  0.2398 -0.1688 -0.1236
31019W        W74072  28.915   9.038  27.211  0.1177 -0.0493 -0.0542
31020W        W74073  15.589  28.329   2.603  0.2642  0.0490  0.0413
31021W        W74074  11.371  24.860   3.272 -0.0638 -0.0420  0.0162
31022W        W74075  28.519  34.189  20.426 -0.0155 -0.0108 -0.2166
31023W        W74076  23.736  27.900  24.055  0.2359 -0.3376  0.2885
31024W        W74077  23.278   2.232  17.076 -0.2435  0.0339 -0.1873
31025W        W74078   6.911  34.192  15.272  0.0032 -0.0895  0.0157
31026W        W74079   9.505  22.912  23.328  0.1236  0.1947  0.1281
31027W        W74080  11.057   5.148  22.792 -0.0528  0.2743  0.1715
31028W        W74081   7.766  33.131   0.167  0.1222 -0.1636 -0.0813
31029W        W74082  27.576  23.692  15.561  0.3979 -0.0043  0.1981
31030W        W74083  33.393  26.518  16.934 -0.1705 -0.1028 -0.2380
31031W        W74084  28.735  10.377  17.456  0.0913 -0.3528 -0.0868
31032W        W74085  15.979  12.595  18.320  0.1634 -0.0124 -0.1395
31033W        W74086  31.797   4.787  10.382 -0.2152 -0.5160 -0.1084
31034W        W74087  19.449  10.457  19.260 -0.1930 -0.4743  0.0819
31035W        W74088   0.669  27.005  16.629 -0.0663 -0.2230  0.1998
31036W        W74089  11.927  26.163  14.777 -0.0123 -0.1250  0.3464
31037W        W74090   0.920  25.452  14.162 -0.0684 -0.0348 -0.0238
31038W        W74091   1.682  31.390  20.383 -0.0745  0.1127 -0.1537
31039W        W74092   4.392  33.420  15.161 -0.2536  0.0557  0.0505
31040W        W74093   4.365  32.337  23.554 -0.0263 -0.1987  0.0401
31041W        W74094  26.393  20.500  20.763 -0.2159  0.0525  0.0503
31042W        W74095  27.389  22.971  23.043  0.0902  0.0058  0.1641
31043W        W74096  17.793  33.533  14.657  0.2582  0.2331 -0.1786
31044W        W74097  11.305   8.539   0.832  0.1893  0.0332  0.3637
31045W        W74098  12.956  17.381   0.899 -0.0840  0.1171  0.2747
31046W        W74099   7.641  19.195  24.394 -0.1677 -0.1644 -0.3063
31047W        W74100  28.816  25.161  23.648  0.1384  0.0980 -0.3492
31048W        W74101  13.885  32.464  27.689 -0.0983 -0.0276 -0.0600
31049W        W74102   2.980  22.933  14.858  0.0664 -0.2904  0.3734
31050W        W74103  14.835  15.525  15.573  0.0163  0.1932 -0.0025
31051W        W74104  11.782  24.619   5.117  0.6388  0.0946 -0.0526
31052W        W74105   4.158   0.488   8.720  0.0078  0.0309 -0.0892
31053W        W74106   1.987  24.806  16.542 -0.1634 -0.1680 -0.1010
31054W        W74107  28.685  20.521  24.845  0.3433 -0.1007  0.2726
31055W        W74108  13.130  33.755  24.858  0.2201  0.1226  0.3673
31056W        W74109  12.577  24.393  27.593 -0.2825 -0.0078  0.3974
31057W        W74110   1.275  25.578   1.464 -0.0172 -0.2276  0.0714
31058W        W74111  11.005  15.635   7.189  0.1562 -0.0026 -0.0623
31059W        W74112   5.486  12.361   5.266 -0.2930 -0.3720 -0.1822
31060W        W74113   9.004   8.376  25.566 -0.1141  0.2015  0.1686
31061W        W74114  16.004  22.322  20.301  0.1074 -0.2321 -0.2122
31062W        W74115   1.690   0.501   2.654 -0.3099  0.1498 -0.1147
31063W        W74116   3.803  10.153  16.170 -0.1644 -0.0002 -0.2365
31064W        W74117  34.562  10.841  26.482  0.0820  0.1341 -0.0513
31065W        W74118   8.588   4.942  21.819 -0.2060 -0.0165 -0.0432
31066W        W74119  32.625   1.392   4.271 -0.0050  0.2367  0.1669
31067W        W74120  26.807  18.218  20.819 -0.1239  0.1618 -0.0484
31068W        W74121  26.716  15.273  14.878 -0.0964  0.0745  0.2105
31069W        W74122   8.588  15.065   5.735  0.1181 -0.2458  0.1783
31070W        W74123  28.860  34.235  28.390 -0.1374  0.1132  0.0563
31071W        W74124   1.604  12.081   6.208 -0.2482  0.0758 -0.0938
31072W        W74125  33.394  30.602  26.133  0.4669 -0.3014  0.3308
31073W        W74126   7.591  15.440  19.562 -0.1007 -0.0017  0.0970
31074W        W74127   0.452  28.624  26.633 -0.0337  0.1189  0.0570
31075W        W74128   7.466  25.673   0.798  0.0272 -0.1064 -0.1104
31076W        W74129   8.251  28.321  16.605  0.1203  0.4956 -0.2728
31077W        W74130  12.061   6.020  21.084 -0.1835  0.2183 -0.1735
31078W        W74131  11.318  20.955  25.781  0.1336  0.0003  0.2280
31079W        W74132  10.684  22.879   5.857  0.3576 -0.0158  0.1784
31080W        W74133  21.317  13.341  18.006  0.1647 -0.1180  0.0671
31081W        W74134   6.310  18.312   8.920  0.0437  0.0010 -0.1753
31082W        W74135  32.383   6.940   0.285  0.4447 -0.0688 -0.0941
31083W        W74136  31.935  15.756  21.553  0.2444  0.2000  0.0143
31084W        W74137   0.874  11.865  25.341 -0.1065  0.1954 -0.1012
31085W        W74138   7.850  33.646  20.951 -0.4339 -0.0689 -0.1436
31086W        W74139   7.002  12.877   1.818 -0.3201  0.1147 -0.0354
31087W        W74140   6.099  13.209   1.144  0.0744  0.1693  0.0868
31088W        W74141  24.537  10.380   3.864 -0.0838  0.3978  0.0668
31089W        W74142  29.828  28.626  24.145  0.0469 -0.0902  0.0092
31090W        W74143  11.933   1.598   2.017  0.0356  0.2583 -0.2554
31091W        W74144  11.710  31.562   0.922  0.0300 -0.1192 -0.2853
31092W        W74145  20.276  28.539  17.162 -0.2166  0.0675 -0.0295
31093W        W74146  10.316  29.899   1.244  0.0414  0.0192  0.2080
31094W        W74147  30.513  12.231  10.369  0.0426 -0.2179 -0.1217
31095W        W74148  11.081   9.161  15.541 -0.1608 -0.0123  0.2307
31096W        W74149  12.752  30.581  19.585 -0.1869 -0.0143  0.1532
31097W        W74150  31.119  23.870  19.435  0.3742 -0.0916  0.0603
31098W        W74151  12.040   2.709  14.210  0.0089  0.0113 -0.2858
31099W        W74152   0.127  10.671   0.532  0.0077  0.0640  0.3448
31100W        W74153   7.764  20.507  13.031  0.2571  0.1547 -0.2977
31101W        W74154   1.905  31.986  23.884  0.2193  0.0040  0.0551
31102W        W74155  31.613  25.557   4.906 -0.2029  0.2101  0.1557
31103W        W74156   5.323  34.517  18.726 -0.1108 -0.1338 -0.1457
31104W        W74157  29.441  28.917  21.329 -0.1523 -0.0096  0.0307
31105W        W74158   3.128   3.087  27.658 -0.1505 -0.0341  0.0300
31106W        W74159   0.475  25.113   1.722 -0.1440  0.0428 -0.1604
31107W        W74160   2.296  19.654   2.827  0.0056  0.1851  0.0457
31108W        W74161  16.350  13.451   8.984  0.0264 -0.2335  0.1232
31109W        W74162  29.201  10.409   2.476  0.2769 -0.3624  0.1896
31110W        W74163  29.461  33.202  27.976 -0.2300 -0.0481 -0.2151
31111W        W74164   2.829  12.814   1.464  0.2284 -0.0137  0.1132
31112W        W74165  14.495  26.506   0.549 -0.1092  0.0095 -0.3716
31113W        W74166  32.891  30.661   8.225 -0.2631 -0.1728  0.1765
31114W        W74167  14.880   3.446  20.129  0.2019 -0.3355  0.3102
31115W        W74168  26.330  26.152   1.249 -0.0834  0.0523  0.1702
31116W        W74169   7.836  15.581  27.480 -0.0805  0.1525  0.1831
31117W        W74170  26.377  28.289   8.842 -0.2060  0.2390 -0.3068
31118W        W74171  18.205  26.093  19.021 -0.1324  0.1013  0.2033
31119W        W74172   3.194  34.071   0.197 -0.4759  0.1414  0.2891
31120W        W74173   8.273  34.306   0.232 -0.2294 -0.4683 -0.2355
31121W        W74174  16.211  28.675   6.903  0.3802  0.1209  0.2292
31122W        W74175  25.631  26.709  14.556 -0.0848 -0.0412 -0.2986
31123W        W74176  13.684  17.321   4.332 -0.1684  0.0059  0.0905
31124W        W74177   2.935  34.498  26.375  0.0531  0.0512  0.2622
31125W        W74178  13.577  29.463   7.953  0.2637 -0.0714  0.1589
31126W        W74179   3.140  19.247  21.323  0.1124  0.1667 -0.0179
31127W        W74180   4.539  28.222  17.620  0.0935  0.0432 -0.0637
31128W        W74181   7.585  16.771  25.279 -0.2028 -0.0654  0.0429
31129W        W74182  30.228  33.241  27.581  0.0550  0.0423  0.0970
31130W        W74183  31.336  16.955   8.073 -0.0853 -0.0753  0.1530
31131W        W74184   9.172  17.470  10.044  0.1845  0.0332  0.1487
31132W        W74185   1.250  21.706  16.481  0.0373  0.0668 -0.3619
31133W        W74186   8.740  13.054  21.143 -0.1579  0.1422 -0.0332
31134W        W74187   9.799   4.128  17.313 -0.2866 -0.1627 -0.0734
31135W        W74188  13.508  25.630  20.053 -0.0200 -0.1808  0.1276
31136W        W74189   8.989   0.128  28.787  0.1175  0.3267  0.2012
31137W        W74190   6.187  21.301  16.723  0.2580  0.0850  0.0627
31138W        W74191  34.334  22.498  23.875 -0.2050  0.0282 -0.1299
31139W        W74192  17.449  15.499   0.268 -0.1268 -0.0852 -0.0269
31140W        W74193   3.490  20.594  19.022 -0.2747 -0.0731 -0.0276
31141W        W74194   2.117  27.952   3.191 -0.1397  0.0938  0.3913
31142W        W74195   4.610  22.999   2.826 -0.0751  0.0427  0.0652
31143W        W74196   6.703  22.153  25.558  0.0022  0.0972  0.1177
31144W        W74197  11.614  19.183  14.784 -0.2630 -0.0023  0.1643
31145W        W74198  11.974  25.897  28.796 -0.0399  0.0322 -0.0018
31146W        W74199  31.619  23.637   3.310  0.2634  0.0989 -0.0349
31147W        W74200  21.485   8.854  21.043  0.2039  0.0626  0.1170
31148W        W74201   7.553  15.923   8.567 -0.1823 -0.1997 -0.0126
31149W        W74202  22.780  23.073  24.804  0.1048  0.1848  0.0362
31150W        W74203   7.989  20.978   9.804 -0.0315  0.0789 -0.1475
31151W        W74204  17.168   3.300   1.425 -0.2313 -0.3783 -0.1485
31152W        W74205   8.559  12.411  10.138  0.0761 -0.2333  0.0716
31153W        W74206  27.466  22.903  19.738  0.2520  0.2288  0.2781
31154W        W74207  27.186  17.675   5.442  0.3834  0.4795 -0.0705
31155W        W74208  17.726  17.229  14.838  0.0273  0.0952 -0.1147
31156W        W74209   0.260  29.881  14.417  0.0737 -0.0808 -0.2006
31157W        W74210  30.166  22.929  19.172  0.1456 -0.0671  0.0668
31158W        W74211  25.517   2.658  10.019 -0.0050  0.1934 -0.3605
31159W        W74212   5.078   9.877   1.845 -0.0757  0.1223 -0.2672
31160W        W74213  19.205  15.444  24.307  0.0582 -0.1056  0.1190
31161W        W74214   2.630  32.048   6.494 -0.0620 -0.1744  0.4414
31162W        W74215  22.688   4.661   3.351  0.0810  0.2213 -0.0628
31163W        W74216   2.291  27.719  26.266 -0.1424  0.1420 -0.5261
31164W        W74217  14.745  21.242  21.901  0.1253  0.2732 -0.0240
31165W        W74218   5.638  32.872  17.783  0.4162  0.0428 -0.3663
31166W        W74219   2.946  28.359  22.930 -0.0133 -0.0118  0.0937
31167W        W74220   1.722  18.881  26.705  0.2885 -0.0955 -0.3584
31168W        W74221   4.127  27.412   6.047 -0.0609 -0.0033  0.0243
31169W        W74222  14.619   8.194  27.353 -0.1679 -0.0668 -0.2020
31170W        W74223   0.681  32.659  24.103 -0.2619 -0.1242  0.2855
31171W        W74224   9.763  23.862  22.704 -0.3126  0.2173 -0.0674
31172W        W74225  28.294  29.155  20.124  0.0560  0.1641  0.2391
31173W        W74226   7.194  15.785  23.830  0.4251 -0.2568 -0.4955
31174W        W74227  19.133  15.096  28.427 -0.1422  0.0639 -0.0760
31175W        W74228  12.063  21.128   5.036 -0.1558 -0.0949 -0.1431
31176W        W74229   4.052  34.669  25.728  0.0395 -0.0118  0.3632
31177W        W74230   7.389  27.064   0.600  0.1833 -0.2076 -0.0503
31178W        W74231   0.297  32.419  16.396  0.0131 -0.1110  0.2526
31179W        W74232  17.479  23.975  18.302  0.1910 -0.0027 -0.0351
31180W        W74233  11.886  28.821   9.710  0.0657 -0.0857 -0.3017
31181W        W74234   8.205  19.130  22.343  0.2390  0.1228 -0.1422
31182W        W74235   2.657   3.065  28.468  0.1095  0.0792 -0.0484
31183W        W74236   3.127  19.303   3.305  0.1762  0.1234  0.0855
31184W        W74237  17.554  13.295  13.994 -0.0439  0.1699 -0.1047
31185W        W74238  26.781  30.807  18.249 -0.1724  0.1444 -0.3950
31186W        W74239  32.714  22.480  15.883 -0.0458 -0.1113  0.2196
31187W        W74240  16.510  31.245  14.461 -0.0473 -0.0635  0.0737
31188W        W74241  32.290  21.080   0.836 -0.0310 -0.3628  0.2562
31189W        W74242   5.866  29.667   2.097  0.1323 -0.2753  0.2671
31190W        W74243  25.251   5.536  27.374 -0.2916  0.0651  0.4299
31191W        W74244   0.179  25.955  23.041 -0.1448 -0.0260 -0.2635
31192W        W74245  15.279  32.362  21.101 -0.1012  0.1370 -0.2245
31193W        W74246  18.555  21.800  27.486 -0.0371  0.2702 -0.2163
31194W        W74247  14.583  20.294  27.329 -0.0745 -0.1434 -0.0658
31195W        W74248  31.613  15.341   2.941  0.2239  0.0547  0.3378
31196W        W74249  12.980  16.686  18.399  0.3351  0.0066 -0.2147
31197W        W74250  14.079  20.294  14.693 -0.1156 -0.2617 -0.2630
31198W        W74251  30.858   6.671  16.325 -0.0349  0.1582 -0.1906
31199W        W74252   2.878  16.567   2.048  0.0660  0.2308 -0.1844
31200W        W74253  33.794  28.502  25.494 -0.0425  0.0681 -0.0278
31201W        W74254  13.442  11.409  21.305  0.2034 -0.1151 -0.0894
31202W        W74255  33.227  10.520  22.409 -0.0280  0.3320  0.0013
31203W        W74256  32.120  20.091  14.603  0.0070 -0.1294  0.2996
31204W        W74257  10.904  13.886  10.931  0.1883 -0.2605 -0.0648
31205W        W74258  23.995  14.267   2.514 -0.0268  0.1026 -0.0717
31206W        W74259  21.667  34.145  19.058 -0.2502  0.3269 -0.1780
31207W        W74260  19.217   7.763  16.705  0.0152 -0.0204 -0.3889
31208W        W74261  12.876  20.199  29.162  0.2546 -0.2267  0.0601
31209W        W74262  13.333  16.149  10.094 -0.0351  0.1942  0.1345
31210W        W74263   4.213   4.002   4.306 -0.1383  0.2527 -0.0460
31211W        W74264  10.246   2.100  19.099  0.4452 -0.0694  0.0379
31212W        W74265   8.348   0.180  27.862 -0.0612 -0.4687 -0.3872
31213W        W74266  11.635   0.502  20.091  0.0976  0.0470 -0.0223
31214W        W74267  28.994  23.750   6.021 -0.1568  0.1676  0.2441
31215W        W74268   0.215  22.698   0.494  0.2430  0.0836  0.0469
31216W        W74269   1.076   3.924  21.483 -0.0162  0.1996  0.1925
31217W        W74270  32.300  25.340  24.960 -0.3242  0.0310  0.2381
31218W        W74271  15.742  13.410  20.747  0.0998  0.0888 -0.2015
31219W        W74272  11.066  31.430  13.982  0.2562  0.2413  0.2339
31220W        W74273  31.021  34.189   3.598 -0.1562 -0.1893 -0.3299
31221W        W74274  11.559   9.588  15.802 -0.2072  0.0183  0.1363
31222W        W74275  29.358   9.938   2.169  0.3326 -0.4505 -0.0722
31223W        W74276   7.989   7.852   2.048  0.0221  0.2611  0.1012
31224W        W74277  22.348  22.971   2.657  0.0832 -0.2295  0.0839
31225W        W74278  32.850  17.811  27.227 -0.1072  0.0343 -0.0278
31226W        W74279  18.635   0.604  17.129  0.2629 -0.0026  0.1571
31227W        W74280  28.561  18.337  28.182  0.1105  0.1774 -0.1429
31228W        W74281  21.608  34.283   5.160 -0.0084 -0.2100  0.4167
31229W        W74282  28.947  25.755  24.330 -0.0630  0.0440 -0.1031
31230W        W74283  10.012  11.910  22.087 -0.0391 -0.0643 -0.0514
31231W        W74284   2.008   1.153  27.125  0.1419 -0.1847 -0.1341
31232W        W74285   5.212  22.937   8.687  0.0248  0.0309  0.0350
31233W        W74286  11.775   0.393  16.577  0.1065  0.2434 -0.1341
31234W        W74287  32.684  34.087   1.276  0.1363  0.1100 -0.2244
31235W        W74288   4.096  13.207   5.102 -0.1270 -0.1449 -0.5974
31236W        W74289   7.470  17.527   3.742 -0.3622 -0.0539 -0.0969
31237W        W74290   5.842  22.893  23.853 -0.0228 -0.2589  0.1134
31238W        W74291   1.024  17.097  14.063 -0.2089 -0.0308  0.3375
31239W        W74292  34.096  27.656   6.781  0.1518 -0.2608 -0.2277
31240W        W74293  18.008  12.381   3.480  0.2390  0.3458 -0.2348
31241W        W74294  34.209  32.333   4.105 -0.4385  0.0265  0.0667
31242W        W74295  31.699  31.704  19.385 -0.3820  0.0091  0.0519
31243W        W74296   1.819   3.759  16.140  0.0380  0.0636  0.0239
31244W        W74297   1.976  19.436  25.206  0.0327 -0.0400 -0.3110
31245W        W74298   2.822  13.419  21.767  0.3841  0.0687  0.1731
31246W        W74299  14.479   7.211   1.343 -0.0058  0.1950  0.1959
31247W        W74300   1.852  15.846  28.735 -0.0194  0.3978  0.2140
31248W        W74301  26.408  15.424   8.967  0.0602 -0.2353 -0.2538
31249W        W74302   0.348   3.858  24.158 -0.0034  0.0115 -0.1811
31250W        W74303  23.737  16.680   7.634  0.0187 -0.1446  0.3657
31251W        W74304  33.824  31.592  25.973  0.3687 -0.0659 -0.1067
31252W        W74305   7.161  18.008  17.514 -0.1467 -0.2742 -0.2989
31253W        W74306   5.475  32.436  24.033  0.2100  0.2540  0.0495
31254W        W74307  22.627  16.247  15.400  0.1268 -0.1357 -0.1063
31255W        W74308  31.779  32.749  14.981 -0.2140 -0.3703  0.0955
31256W        W74309   2.670   8.826   6.147  0.2569 -0.0834 -0.0916
31257W        W74310   1.519   8.776  20.115 -0.0477 -0.1256  0.0887
31258W        W74311  21.307  18.610  19.992 -0.0596  0.0716 -0.0345
31259W        W74312  23.266   4.376  23.298 -0.1306  0.0239 -0.0079
31260W        W74313   5.296  31.780  29.017 -0.2733  0.1920 -0.4796
31261W        W74314  14.736   0.005   5.041 -0.2548  0.0674 -0.3603
31262W        W74315   5.525  14.177   4.884  0.2240 -0.2757 -0.0659
31263W        W74316  32.275   7.244  21.775 -0.0291  0.2363 -0.2229
31264W        W74317   7.388  26.670  18.871  0.0352 -0.0474  0.1960
31265W        W74318   3.930  30.394  26.510  0.2967  0.0306  0.0290
31266W        W74319  31.419  30.777  23.607  0.2037 -0.2239  0.1927
31267W        W74320   4.280  22.882  27.417  0.3352  0.1406 -0.5737
31268W        W74321  19.503  17.498  22.247  0.0398  0.1078  0.1649
31269W        W74322   0.164  19.572   5.701 -0.1955  0.0812 -0.0786
31270W        W74323  19.176  24.396  21.268  0.1110  0.1403 -0.1155
31271W        W74324  25.727  12.709  23.668 -0.1823  0.0008 -0.4027
31272W        W74325   6.518  25.861  18.592  0.0937 -0.0786  0.0158
31273W        W74326   9.560   0.624  14.601  0.0994 -0.0715  0.5342
31274W        W74327   6.323  28.109  15.768  0.0872 -0.0276  0.0989
31275W        W74328  31.875   9.938  17.336  0.0528  0.0141 -0.1382
31276W        W74329   8.753  15.627  25.602  0.0240 -0.2111  0.0831
31277W        W74330  32.092   3.718  16.721 -0.2336  0.3399  0.0705
31278W        W74331   4.820  17.033  27.524 -0.0191  0.1515 -0.1118
31279W        W74332   1.959  26.856  14.043 -0.1131  0.0038  0.1111
31280W        W74333  29.851   1.680  19.927 -0.1355  0.1308  0.0585
31281W        W74334  24.153  17.581   9.304  0.1585 -0.1781 -0.0847
31282W        W74335   8.220  31.948   2.550 -0.1653 -0.0379  0.1484
31283W        W74336  31.742  23.131  23.807  0.2867 -0.0568  0.0353
31284W        W74337  32.626  16.154  23.115  0.1502  0.1306  0.2352
31285W        W74338  29.472  19.979  22.830 -0.1403 -0.1109  0.1487
31286W        W74339   5.227  10.941  22.806 -0.1805  0.2881 -0.1197
31287W        W74340   3.330  25.572   1.464 -0.2565 -0.0172 -0.0061
31288W        W74341  18.357  16.655   7.822 -0.0861 -0.0634  0.1363
31289W        W74342   4.715  22.153  28.784 -0.5192 -0.1304 -0.0541
31290W        W74343   1.207  11.176   4.485  0.1951 -0.1329 -0.0059
31291W        W74344   2.332  20.724   7.508  0.1935 -0.2016  0.0887
31292W        W74345   0.040   5.994  18.143 -0.0847 -0.0786  0.1359
31293W        W74346  24.777  26.428  16.623  0.0756  0.1834  0.1248
31294W        W74347   6.746   7.806   1.276  0.0245  0.1126 -0.0202
31295W        W74348   5.787  14.056   5.292  0.2365  0.2184 -0.2224
31296W        W74349  31.077   5.042   8.548  0.1424 -0.1400 -0.0680
31297W        W74350   4.673  28.453   8.990  0.0105 -0.1538 -0.0324
31298W        W74351  12.853   5.552  26.889 -0.0218  0.0859  0.1344
31299W        W74352  18.141   2.776   7.238 -0.2519  0.4653  0.1300
31300W        W74353  17.057  24.276  22.537  0.0758  0.1507 -0.1912
31301W        W74354  29.936  29.760  10.110 -0.2887 -0.2593  0.0309
31302W        W74355   4.703  19.847   4.672 -0.1616  0.2842 -0.2965
31303W        W74356   0.507  11.177  13.942  0.0778 -0.1537 -0.1290
31304W        W74357   1.650  16.938  27.175  0.0522 -0.1574 -0.1479
31305W        W74358   7.300  27.774  21.743 -0.0354 -0.0683 -0.0161
31306W        W74359   7.684   1.017  16.240  0.1700  0.4038  0.3829
31307W        W74360  31.911  24.382  26.338  0.0671  0.2353  0.1882
31308W        W74361  20.967   8.508   4.104 -0.1999 -0.1104 -0.2048
31309W        W74362  32.032  15.928  19.709  0.0030  0.3506 -0.0191
31310W        W74363   1.096  16.849  27.127 -0.1032 -0.1540  0.3684
31311W        W74364   5.804  29.525  28.525  0.0154 -0.0407  0.1244
31312W        W74365  19.339   6.576  19.612  0.1662 -0.1575 -0.0293
31313W        W74366   3.350  21.482  21.519 -0.1311 -0.0946 -0.0159
31314W        W74367  18.387  23.349   0.805  0.3695 -0.1803 -0.1857
31315W        W74368  23.437  30.017  24.764  0.0732  0.1878 -0.1145
31316W        W74369  28.350  21.851   2.580  0.0762 -0.2984 -0.1488
31317W        W74370  18.423  29.303  26.518  0.2997 -0.0373 -0.0004
31318W        W74371   4.114  25.238  27.089 -0.1966  0.3620  0.2416
31319W        W74372  28.997  26.716  26.694  0.1220 -0.2105 -0.0647
31320W        W74373  15.204  23.138   7.306  0.0175 -0.0307  0.4050
31321W        W74374  17.141  17.541   4.055  0.2886 -0.1031  0.3363
31322W        W74375  33.136  32.757   2.075  0.0626 -0.2904 -0.6855
31323W        W74376   7.112  15.605  26.971  0.2757 -0.4295 -0.0048
31324W        W74377  33.789  19.620   3.549 -0.1561  0.1084 -0.2148
31325W        W74378  10.990  31.201   9.799 -0.0165 -0.3953  0.0085
31326W        W74379   3.705  10.821   1.220  0.2550  0.0927 -0.0253
31327W        W74380   6.965  23.697   6.128  0.3296 -0.1799 -0.0762
31328W        W74381  29.029  34.474  15.979 -0.2027  0.0940 -0.2090
31329W        W74382   8.774  21.219  27.454 -0.0210 -0.1903  0.0296
31330W        W74383  11.738  15.087   7.525  0.2393  0.1853  0.1589
31331W        W74384   6.192   0.427   2.628 -0.0205  0.0884 -0.1204
31332W        W74385  31.580  12.143  26.457 -0.0150 -0.2885  0.1039
31333W        W74386   3.865  29.644   4.654 -0.6054  0.2033 -0.0627
31334W        W74387   8.287   3.070  17.918  0.0873  0.0762 -0.0119
31335W        W74388  11.185  31.825  25.288 -0.0783  0.1372  0.0170
31336W        W74389  27.610  19.782  26.323  0.0134 -0.0207  0.1116
31337W        W74390   3.875  22.505   2.681 -0.0445 -0.2174  0.1156
31338W        W74391  18.544  18.226   7.453 -0.0466 -0.0048 -0.0691
31339W        W74392   9.355  30.160  18.122  0.1192 -0.1484  0.0701
31340W        W74393  28.137  30.442   2.728 -0.1196  0.2324 -0.3006
31341W        W74394   1.542  23.007   0.414 -0.1130  0.1780 -0.0101
31342W        W74395  13.494  13.050  23.202  0.0153 -0.2903  0.0467
31343W        W74396   1.470   1.339   8.825  0.1277 -0.0078  0.1486
31344W        W74397  28.740  24.472  21.056  0.0939 -0.1344 -0.2026
31345W        W74398  15.552  30.647   4.248 -0.2373  0.2374 -0.2352
31346W        W74399  10.259  33.189   2.521  0.0660  0.2476  0.0561
31347W        W74400  25.284  24.683  24.851  0.0856  0.1028 -0.3419
31348W        W74401   6.610   4.201   5.765  0.1425 -0.2052 -0.5313
31349W        W74402   4.252   2.986   1.538 -0.0905 -0.1429 -0.0822
31350W        W74403  20.718  18.304  19.165 -0.3127  0.0941 -0.0628
31351W        W74404  28.221  22.260  15.314  0.1186  0.3975  0.1507
31352W        W74405  17.060  26.775  18.403  0.2860 -0.1627 -0.0425
31353W        W74406  17.162  26.999   3.943  0.0389 -0.0910 -0.2725
31354W        W74407  31.693  30.937  17.493  0.0761  0.2145 -0.0918
31355W        W74408   5.920   7.481  25.615 -0.1334  0.1292 -0.2133
31356W        W74409   9.661  25.736   7.137  0.2624  0.2214  0.3684
31357W        W74410  13.199  24.447   5.838 -0.0042  0.1332  0.1192
31358W        W74411  17.807  20.740   3.199 -0.2454  0.1778 -0.1253
31359W        W74412  26.768  26.204  18.309 -0.2360 -0.0230 -0.0216
31360W        W74413  23.318  22.340  15.292  0.1463  0.1327 -0.1904
31361W        W74414  16.137  28.667  22.602 -0.0185  0.1693  0.0352
31362W        W74415   4.738  24.683  23.326  0.3690  0.2377 -0.3183
31363W        W74416  31.908  19.231  26.863  0.0151  0.1457  0.0398
31364W        W74417  26.103  18.491  22.540 -0.0013  0.0660  0.2599
31365W        W74418  16.524   7.170  20.677  0.1250  0.1830 -0.1199
31366W        W74419   8.404   2.819  22.900 -0.0829  0.1451 -0.1497
31367W        W74420   5.393   7.459   1.850 -0.2048  0.2943 -0.0949
31368W        W74421   3.302   5.395  23.765 -0.1882  0.0880 -0.0564
31369W        W74422  13.552  14.622   6.916 -0.0725 -0.0583 -0.0713
31370W        W74423  22.179  12.970  25.951 -0.0449 -0.2866  0.0821
31371W        W74424  16.308  28.266  14.909 -0.0352  0.1455  0.0218
31372W        W74425  27.254  19.398  24.861  0.1606  0.2460 -0.1329
31373W        W74426  33.122  28.080  14.643 -0.0105  0.1589 -0.1695
31374W        W74427  10.311   7.905   3.151  0.5458 -0.1062  0.3559
31375W        W74428   5.994  18.749   5.062  0.0034 -0.0547 -0.3945
31376W        W74429   0.806  21.347   4.376  0.2056  0.2176 -0.0750
31377W        W74430  17.697  21.167   8.390 -0.0259  0.3394  0.1913
31378W        W74431  31.111  13.973   7.612  0.0796  0.0982 -0.3224
31379W        W74432  12.479   6.805   2.437  0.0028 -0.0778  0.1534
31380W        W74433  33.303  32.657  18.775 -0.0479 -0.0161 -0.0298
31381W        W74434  32.394  19.663  20.418  0.0325 -0.1553  0.4366
31382W        W74435   2.366  26.573  14.975 -0.1423  0.1132  0.1231
31383W        W74436  23.372  12.744   7.705  0.3255 -0.4641 -0.1240
31384W        W74437  32.961   9.837   1.763 -0.0059 -0.2849  0.1636
31385W        W74438   2.322  29.570  22.414 -0.0680  0.2770 -0.1095
31386W        W74439  23.910  28.695   5.905  0.1781 -0.0737 -0.0068
31387W        W74440  32.005  15.131  26.151  0.0385 -0.2351 -0.0448
31388W        W74441   4.833  24.626   5.122 -0.0378  0.0947  0.2230
31389W        W74442  15.825  14.436   7.074 -0.1729 -0.0583 -0.2603
31390W        W74443  17.265   2.512   6.919 -0.1056 -0.0371 -0.0635
31391W        W74444  12.348  12.448  27.583 -0.1417  0.0423 -0.2519
31392W        W74445  34.210   4.745  27.006 -0.3658  0.4120 -0.2993
31393W        W74446   0.513  27.101  12.962 -0.2440  0.2466  0.0926
31394W        W74447  33.402  33.395  22.841 -0.1239 -0.2609  0.2034
31395W        W74448   2.704  11.365   2.543  0.3381  0.0299 -0.2220
31396W        W74449   7.621  29.310  28.406  0.0907 -0.0332 -0.2967
31397W        W74450   7.730  16.307   8.872 -0.1718 -0.0846 -0.1170
31398W        W74451   1.751   6.689   5.398 -0.1832  0.2328  0.0130
31399W        W74452  32.685  20.153   2.316 -0.2810 -0.0866  0.0294
31400W        W74453   3.217  26.098  16.706 -0.3842 -0.1302  0.4127
31401W        W74454   8.006  22.404  16.574 -0.3463 -0.2105 -0.0240
31402W        W74455   4.165  28.666  24.131 -0.0319  0.1752  0.2417
31403W        W74456  11.069  22.212  18.309 -0.0860 -0.3783  0.0268
31404W        W74457  19.807  16.497   6.642  0.3992 -0.2120 -0.1803
31405W        W74458  10.424  31.039  26.565  0.0362 -0.2004 -0.1045
31406W        W74459  34.356  18.869  12.996 -0.0648 -0.2951  0.1272
31407W        W74460  10.861  14.562  22.682  0.3663 -0.0730 -0.1120
31408W        W74461  32.413  27.389  19.149  0.1831  0.1086 -0.0744
31409W        W74462   3.792  10.100  20.530 -0.1828 -0.0550 -0.6396
31410W        W74463   2.064  16.845  18.114  0.1606  0.1089  0.1760
31411W        W74464   3.151  25.482  25.182  0.0849  0.2914 -0.0107
31412W        W74465   8.597  15.471  25.145  0.4199  0.3077  0.0221
31413W        W74466  15.320  22.632   5.725  0.1142 -0.4037  0.0906
31414W        W74467  29.525  27.624  18.009  0.7059  0.0147 -0.2065
31415W        W74468   6.613  22.034  23.229  0.2593  0.1639 -0.1349
31416W        W74469   3.215  18.682  28.925 -0.0050 -0.0264  0.3471
31417W        W74470   1.942  24.863  17.019  0.1703  0.2377 -0.1680
31418W        W74471   9.411  24.623  20.952 -0.1545  0.3495  0.0318
31419W        W74472   2.522  23.078   7.680  0.3027 -0.0789  0.1390
31420W        W74473  15.109  20.844  26.842 -0.0667  0.1229  0.2005
31421W        W74474  32.677  24.203  28.368 -0.2064 -0.1689 -0.4269
31422W        W74475   6.724  31.972  25.254 -0.1364  0.2082 -0.3710
31423W        W74476  28.067  27.495  27.155 -0.0149  0.0763 -0.2294
31424W        W74477   0.181   4.784  19.657  0.3091  0.0894  0.0720
31425W        W74478  25.219  14.547   8.316  0.1634  0.1569  0.3479
31426W        W74479   3.293  24.148  25.106  0.0174  0.1767 -0.1146
31427W        W74480  15.550  14.533  23.826 -0.2597 -0.3615 -0.3895
31428W        W74481   8.288  31.075   8.956 -0.3063  0.2059  0.3554
31429W        W74482   3.606  19.461  19.053 -0.2319 -0.1852 -0.1075
31430W        W74483  31.696  18.499   6.122 -0.1161 -0.0604 -0.0250
31431W        W74484  25.873  23.697  28.172  0.0137  0.2982  0.1298
31432W        W74485  33.716  25.538  13.773 -0.0031  0.3128  0.2962
31433W        W74486  10.302  24.150  25.013  0.0204  0.1911  0.1465
31434W        W74487   3.037  24.614   6.268 -0.1740  0.1181 -0.2574
31435W        W74488   8.570  31.735  15.979 -0.0619 -0.3150 -0.0193
31436W        W74489  20.019   5.978  28.673  0.2528 -0.0736 -0.2683
31437W        W74490  19.243  17.576   4.862 -0.1393  0.0320 -0.1769
31438W        W74491   9.915  18.300   8.034 -0.2453  0.1436  0.2808
31439W        W74492  10.749  22.365   3.560  0.0004 -0.1654  0.0996
31440W        W74493   6.486   8.730  14.701 -0.0663  0.0187  0.1013
31441W        W74494  22.730  23.465  24.478  0.1845 -0.0418 -0.0745
31442W        W74495  10.868  26.007  20.071 -0.3001  0.0517 -0.2700
31443W        W74496  17.358  23.367  19.824  0.1902 -0.0857 -0.0348
31444W        W74497  25.624   1.404  28.333 -0.0939  0.0333 -0.0625
31445W        W74498  14.722  15.132   2.035  0.1399  0.1572 -0.1319
31446W        W74499  15.285  28.995   3.392 -0.0156  0.1606 -0.2517
31447W        W74500  28.013  19.378  27.148  0.0245 -0.0023 -0.1363
31448W        W74501   0.834  26.721   3.527  0.0113 -0.1308 -0.0761
31449W        W74502  11.023  18.238  27.088  0.2074 -0.0829  0.0320
31450W        W74503   9.822  27.455  22.260  0.0282  0.1706 -0.2183
31451W        W74504  23.562   6.450  28.892  0.0302  0.1148 -0.2491
31452W        W74505  18.500  14.102  22.338  0.2430 -0.1206  0.0336
31453W        W74506  34.554  25.344  19.843  0.1679 -0.2263  0.4609
31454W        W74507  17.244  15.604  13.222  0.3292  0.1136 -0.0029
31455W        W74508  30.345  29.879  15.866  0.1265  0.1826 -0.2208
31456W        W74509   3.557  24.774  28.665  0.0165 -0.0577 -0.4720
31457W        W74510  10.314   1.556  24.374 -0.0421 -0.1050  0.0536
31458W        W74511  32.905   3.397  28.270 -0.0344 -0.2606  0.0465
31459W        W74512  25.912  17.566  23.158  0.0708  0.0683  0.2279
31460W        W74513  24.394  11.207  19.690  0.3134  0.0115 -0.0562
31461W        W74514  31.777  29.823  22.776  0.3187 -0.3467  0.0639
31462W        W74515  33.797  22.265   7.918 -0.0616 -0.0231  0.4113
31463W        W74516  33.356   0.116  27.122  0.1100  0.1457 -0.0032
31464W        W74517  32.349  27.624   5.999 -0.1540  0.0757  0.0414
31465W        W74518   4.619  30.648   1.193 -0.0357  0.0797  0.0474
31466W        W74519  13.416  28.038  21.754 -0.0617 -0.2230 -0.0452
31467W        W74520  28.175  17.497  26.249  0.5377  0.1826 -0.1069
31468W        W74521  27.965  21.064   5.057  0.0301 -0.2688 -0.1083
31469W        W74522  16.779  20.371  25.202 -0.4469 -0.0792 -0.1384
31470W        W74523  24.403  11.302  23.648 -0.3045 -0.2282  0.0010
31471W        W74524  27.993  16.161   6.036 -0.6400  0.2072 -0.4324
31472W        W74525  28.873  24.351  16.560 -0.4001  0.0150  0.0993
31473W        W74526  12.466   8.474  15.750 -0.0455  0.1392  0.4678
31474W        W74527  21.936  23.868  24.324  0.1630 -0.0975  0.1459
31475W        W74528   7.124  27.797   7.724 -0.0347  0.3468  0.0798
31476W        W74529   5.915   5.087  18.933  0.2844  0.0283 -0.0359
31477W        W74530  17.303   2.936  23.174 -0.1736  0.3507  0.0508
31478W        W74531  17.328  17.159   6.501  0.0321  0.0236 -0.1455
31479W        W74532   1.170  19.775  21.011  0.0079 -0.0806 -0.1475
31480W        W74533   3.504  31.304  17.622 -0.1743  0.2114  0.0877
31481W        W74534  11.547   5.251   0.220 -0.0264  0.1147  0.2492
31482W        W74535  13.044   1.085   0.291 -0.0231  0.2313  0.2492
31483W        W74536  26.342  13.255  15.045 -0.2759 -0.0512  0.0723
31484W        W74537  29.508   1.259   2.339  0.0748 -0.2257  0.0924
31485W        W74538   5.183   6.416  15.165  0.0548  0.0427 -0.2381
31486W        W74539   7.828  30.384  19.199  0.0079  0.0423  0.2629
31487W        W74540   5.913  30.990   2.737 -0.2230  0.0186 -0.2375
31488W        W74541  21.729  34.247   1.592  0.1409  0.1236  0.1257
31489W        W74542   1.531  23.540   7.642 -0.1876 -0.0213  0.1463
31490W        W74543   9.183  26.990   5.703  0.1430  0.0703 -0.2294
31491W        W74544  13.686  30.374   0.902  0.1262 -0.0817  0.0681
31492W        W74545  11.854  20.856   6.161  0.0373 -0.0284 -0.1255
31493W        W74546  34.677  11.238   5.666 -0.0785  0.2592 -0.0853
31494W        W74547   2.102  22.826  14.976  0.0968  0.0972  0.0805
31495W        W74548  22.232  19.981  18.293  0.0977  0.2120 -0.2948
31496W        W74549   5.398   6.374  25.047 -0.2720  0.1615  0.0561
31497W        W74550  34.439  30.424  25.612  0.0009 -0.0827  0.2601
31498W        W74551   9.991  23.623   8.386 -0.1605 -0.2604 -0.1961
31499W        W74552   9.530   3.784   7.998 -0.0066  0.1386 -0.1164
31500W        W74553  32.180  15.399  21.828 -0.1431  0.1857 -0.0310
31501W        W74554  29.567  15.073  24.300 -0.1202  0.1730 -0.0003
31502W        W74555  11.245  18.446  19.070 -0.0107  0.1362  0.1114
31503W        W74556  26.752  15.537  28.726  0.0580  0.1978  0.2451
31504W        W74557   9.021  23.979  26.095  0.0631  0.0134 -0.3897
31505W        W74558  26.743  18.765  21.816 -0.2180  0.0147  0.1620
31506W        W74559   2.276  13.916  18.564 -0.0585 -0.3973 -0.1036
31507W        W74560  25.303  22.308   5.742  0.0133  0.4155  0.0989
31508W        W74561  32.092  25.447  22.621 -0.0232  0.0240  0.1700
31509W        W74562  34.016  24.205  19.043 -0.2983  0.1360  0.3938
31510W        W74563   6.189  27.866  14.443  0.0077  0.0875 -0.0609
31511W        W74564  10.406  28.988  20.903  0.1059  0.0681  0.0218
31512W        W74565  26.714  13.450  26.125  0.0588 -0.3505 -0.1312
31513W        W74566  13.208  28.202  22.984 -0.1684 -0.2907 -0.1531
31514W        W74567  30.290  25.880   0.297  0.1064 -0.1978  0.2054
31515W        W74568  21.716  22.037  14.877  0.3111  0.0795 -0.1471
31516W        W74569  26.864  16.466   0.558 -0.0473  0.2415  0.0339
31517W        W74570  27.279  16.197  23.141  0.2296 -0.2206 -0.0294
31518W        W74571  16.754  28.167  15.337  0.0057  0.1218 -0.0059
31519W        W74572   6.676  31.346   8.957 -0.1482  0.2634 -0.0292
31520W        W74573  28.222  19.593   9.321 -0.0240  0.3455 -0.0086
31521W        W74574  31.634  15.476   6.875  0.1118  0.2113  0.0313
31522W        W74575   8.345   0.436  20.843 -0.0863  0.0115  0.2175
31523W        W74576  12.215  18.088  24.245 -0.0686 -0.2037  0.0878
31524W        W74577  30.061  17.647   4.001  0.1182  0.3213 -0.2148
31525W        W74578   7.179  22.921   8.427  0.0991 -0.2788  0.3615
31526W        W74579   6.083  27.257   8.122 -0.4253  0.1499 -0.1827
31527W        W74580   2.984  14.158  27.977 -0.2415 -0.1369  0.0846
31528W        W74581   1.525  25.972  15.272 -0.0754 -0.1252 -0.2129
31529W        W74582  33.472  19.179   5.836 -0.0088 -0.0544  0.1094
31530W        W74583  10.997  31.887   0.294 -0.1080 -0.0756  0.2087
31531W        W74584  13.947  15.217  22.543 -0.1787 -0.0789 -0.1955
31532W        W74585   5.531   8.534   3.849  0.0061  0.0863  0.2151
31533W        W74586  19.206   1.504   7.264 -0.3194  0.1408 -0.2243
31534W        W74587   4.007  32.159   3.558 -0.0018  0.0615 -0.2243
31535W        W74588   7.662  30.659   7.737 -0.0807  0.3175 -0.0951
31536W        W74589   3.553   7.202  15.762 -0.1453 -0.2817 -0.2719
31537W        W74590   3.258  20.945  14.213  0.2345  0.3586 -0.0863
31538W        W74591  20.096  32.177   9.429 -0.0043  0.1896  0.3668
31539W        W74592   2.705  25.182   3.927 -0.5857 -0.2610  0.0148
31540W        W74593   2.030   3.498  22.996 -0.2387  0.0944 -0.0132
31541W        W74594  21.666   4.880   2.183 -0.0441  0.0375  0.0864
31542W        W74595   9.092   0.588   3.634 -0.3099 -0.2110  0.1527
31543W        W74596  32.501  12.128   8.893  0.0285 -0.1232 -0.0542
31544W        W74597  34.321  21.609   2.555  0.0534  0.4090  0.2929
31545W        W74598   1.628  13.400  28.462 -0.0559 -0.1073  0.2445
31546W        W74599  33.952  15.592   2.802 -0.1382 -0.1135 -0.1812
31547W        W74600  34.493  32.759   3.084 -0.1227  0.2205  0.1756
31548W        W74601   4.932  33.017  27.654 -0.0743 -0.0287  0.0608
31549W        W74602   6.965  24.549  28.213  0.1203  0.1698 -0.0782
31550W        W74603  13.910  32.907  18.517  0.0636  0.2216 -0.0560
31551W        W74604  34.432   2.691  16.894 -0.2993 -0.0054 -0.1458
31552W        W74605  21.595  26.739  21.964 -0.1357 -0.0758 -0.2734
31553W        W74606   4.579  33.878  15.470 -0.5018  0.0590  0.2044
31554W        W74607  28.466  29.566  19.817 -0.1501 -0.2571 -0.0244
31555W        W74608   6.374  27.021  21.278  0.2006  0.1183 -0.1268
31556W        W74609  10.687  24.203  22.650 -0.0093 -0.0191  0.1686
31557W        W74610  13.502  22.575  26.514  0.0970 -0.0826  0.2861
31558W        W74611   2.142   0.467  18.134 -0.1542 -0.0971 -0.1240
31559W        W74612  26.956   3.210  21.779  0.0488 -0.0990 -0.0937
31560W        W74613  22.865  29.011  14.198  0.1276  0.2687 -0.1737
31561W        W74614  15.571  13.707  26.812 -0.0719 -0.3931  0.1615
31562W        W74615  34.321  34.547  15.774  0.3725 -0.1671 -0.0708
31563W        W74616  24.733   6.675  16.315 -0.2318 -0.0781 -0.1939
31564W        W74617  33.795  29.882  15.447  0.1599  0.0182 -0.5670
31565W        W74618  11.549  11.931  19.037  0.0661 -0.3733 -0.0495
31566W        W74619   5.018  24.863  26.095  0.2036 -0.2216 -0.1221
31567W        W74620   7.810  33.587   0.491 -0.0363  0.0512  0.1029
31568W        W74621  20.408  22.860  16.500  0.2245  0.2101 -0.3661
31569W        W74622   8.557  29.176  19.518 -0.3450 -0.1837 -0.0471
31570W        W74623   1.745   2.542  19.585 -0.1291 -0.2803  0.0758
31571W        W74624   1.110  18.706  13.303  0.1238 -0.1571 -0.2144
31572W        W74625   1.173  23.859  22.799 -0.0392  0.0988 -0.1143
31573W        W74626  33.200  16.637  13.995 -0.1362 -0.1611  0.0108
31574W        W74627  34.149  30.408  18.806 -0.0415 -0.0414  0.1053
31575W        W74628   2.238  31.669  19.690 -0.1007 -0.1759 -0.2038
31576W        W74629   3.291  26.336  15.845  0.3064 -0.0265  0.0577
31577W        W74630  32.958  17.467  21.778  0.0378 -0.1351  0.1385
31578W        W74631  28.263  33.906  26.641 -0.1754 -0.0223  0.1563
31579W        W74632  11.647  20.244  18.471  0.2893  0.0903 -0.0132
31580W        W74633  20.623   6.369  20.775 -0.0213  0.1464  0.1318
31581W        W74634  13.682   0.334  15.603  0.4735 -0.2282 -0.2446
31582W        W74635  26.037  25.732  17.141  0.0141 -0.0060 -0.0325
31583W        W74636  22.396  11.327  16.850  0.1905 -0.1206 -0.0704
31584W        W74637   2.560  14.922  24.263  0.1871  0.0339 -0.1904
31585W        W74638   0.379  30.427  20.106  0.2380  0.0137  0.0851
31586W        W74639   9.936  24.944  28.731 -0.2133 -0.0722 -0.2792
31587W        W74640  13.456  27.503  24.602  0.1212 -0.1079  0.2235
31588W        W74641  27.113   4.773  14.852  0.1515  0.0239 -0.0184
31589W        W74642  32.736  29.441  13.872  0.2229 -0.0072  0.1117
31590W        W74643   1.572   2.274  22.674 -0.2884 -0.0998  0.2023
31591W        W74644  33.238  12.168  25.860 -0.1019 -0.0739 -0.2651
31592W        W74645   0.399  19.483  23.195 -0.2080 -0.1548 -0.2474
31593W        W74646  14.995   4.782  16.763 -0.0967  0.1683  0.0153
31594W        W74647   5.763  33.445  25.119  0.2384 -0.0905  0.1387
31595W        W74648   9.752  30.058  20.236 -0.2092  0.1688 -0.0237
31596W        W74649  32.025   7.075   2.398 -0.1353 -0.0245  0.3858
31597W        W74650   4.683  27.540  24.533 -0.2876 -0.3791 -0.2519
31598W        W74651   1.452  19.314  21.033  0.0049 -0.3184  0.2313
31599W        W74652   1.514  20.997  20.615  0.3033  0.4265  0.0392
31600W        W74653   0.077   2.309   4.806  0.3312  0.0537 -0.2963
31601W        W74654   9.412  31.406  26.549  0.1519 -0.0584 -0.0064
31602W        W74655  34.501  30.049  18.898  0.1062 -0.3762  0.0173
31603W        W74656   4.331   6.725  24.834  0.1366  0.0714 -0.0674
31604W        W74657  34.452  26.039  20.364  0.0916  0.0273  0.1222
31605W        W74658  10.049  32.559  25.262 -0.2662 -0.0259 -0.0274
31606W        W74659  32.105  12.009  20.004 -0.0287 -0.1865 -0.1137
31607W        W74660  10.456  34.568  24.957 -0.1768  0.4010  0.0812
31608W        W74661   4.224  26.137  18.995  0.1280 -0.1520  0.0577
31609W        W74662  11.387  20.176  19.435  0.1856  0.0378  0.0174
31610W        W74663   5.363  23.479  15.766 -0.3142 -0.1348 -0.0298
31611W        W74664  31.939   0.780  24.088  0.2956  0.0919  0.0551
31612W        W74665  10.927  28.624  14.895  0.2013 -0.1154  0.0066
31613W        W74666   5.937   4.318  22.267 -0.0558  0.1274 -0.0534
31614W        W74667   4.399  29.585  20.830  0.1118  0.0688 -0.4102
31615W        W74668   8.584   8.835  18.695 -0.1215 -0.0937 -0.3730
31616W        W74669   5.255  20.181  20.596  0.2404  0.1756  0.1555
31617W        W74670  29.091  26.321  26.988  0.2405  0.2172  0.3094
31618W        W74671  32.066  19.135  24.148 -0.0858  0.0189  0.3426
31619W        W74672  18.043  26.938  25.303  0.0290 -0.1525 -0.2882
31620W        W74673  32.278  23.500   4.309 -0.0734 -0.1490 -0.0446
31621W        W74674   8.573  10.786  15.971 -0.4439  0.2775  0.1684
31622W        W74675  28.838  28.029  16.909 -0.3837  0.0726  0.0860
31623W        W74676  31.689  11.209  23.611 -0.2542  0.0605 -0.0215
31624W        W74677   5.439   5.635  22.892 -0.1843 -0.0404 -0.1507
31625W        W74678   3.952  32.705  19.535 -0.0282  0.2815  0.1357
31626W        W74679   0.454  26.111   1.440 -0.0318  0.2130 -0.2757
31627W        W74680  33.245  33.097  15.237  0.1351 -0.0558 -0.0622
31628W        W74681   7.567  28.191  22.470  0.1647  0.0539 -0.0018
31629W        W74682  23.848   0.523   3.071  0.2690  0.0955  0.4374
31630W        W74683   9.276  30.560  15.775 -0.2344 -0.1186 -0.2318
31631W        W74684   2.773  30.567  14.614  0.2253  0.2706 -0.0287
31632W        W74685  30.682   4.918   1.300  0.3273 -0.1537 -0.3264
31633W        W74686   0.795   3.281  25.350  0.0766  0.1629 -0.2107
31634W        W74687   2.670   4.417  25.520 -0.3021  0.0127 -0.0480
31635W        W74688   3.227  18.438  19.786  0.1312 -0.2694 -0.0543
31636W        W74689   7.653  17.071  15.784 -0.1122  0.0937  0.1340
31637W        W74690   0.066  21.656  16.745 -0.2252  0.2718 -0.1058
31638W        W74691  18.804   5.034  20.530 -0.0404 -0.0797 -0.0144
31639W        W74692  32.800  33.851  15.506 -0.1950  0.1179  0.0471
31640W        W74693  32.037  24.221  28.301 -0.0496  0.1383  0.1165
31641W        W74694  16.197  22.124  28.100 -0.0434 -0.0220 -0.1214
31642W        W74695   4.201  23.437  18.283  0.0574 -0.0201  0.3893
31643W        W74696   0.467  24.707  14.863 -0.1119  0.1562  0.1762
31644W        W74697   2.973  19.216  16.733  0.1426 -0.1253 -0.1191
31645W        W74698  14.025  31.431  19.743  0.0735  0.3473  0.1123
31646W        W74699  13.045  22.345  25.634  0.2481  0.0719  0.2352
31647W        W74700  16.881  21.584  23.608 -0.0728  0.0774  0.6286
31648W        W74701   5.231  29.427  20.547 -0.1421 -0.2511 -0.1177
31649W        W74702  31.071  13.862  14.695  0.0164  0.0348 -0.1585
31650W        W74703  30.835   2.381  21.022  0.1390  0.1898  0.2082
31651W        W74704  26.037  22.852  17.770 -0.2301 -0.4149  0.1566
31652W        W74705   3.456  11.233  27.353  0.1769  0.1640 -0.0704
31653W        W74706   0.303  30.849  21.436 -0.0511  0.0050  0.0524
31654W        W74707   5.440  14.144  16.147 -0.1365  0.0920 -0.2846
31655W        W74708   7.987  18.730   6.459 -0.0972  0.3846  0.1910
31656W        W74709   3.551  27.559  20.355 -0.0850 -0.2180  0.0792
31657W        W74710  34.448   6.767  22.589 -0.0184 -0.0511 -0.3001
31658W        W74711   2.637  22.249  18.194 -0.1118 -0.1052 -0.1063
31659W        W74712  11.432  23.862  19.370 -0.1808  0.0138  0.1751
31660W        W74713   4.224   1.574  15.519 -0.2820 -0.1783 -0.3034
31661W        W74714  11.249  25.175  26.628  0.1511 -0.1248  0.2181
31662W        W74715  15.765  11.553  21.751 -0.1671  0.5211  0.3756
31663W        W74716   5.413  29.374  16.668  0.2830 -0.0396  0.1083
31664W        W74717   6.074  32.519  13.902  0.1943 -0.2835 -0.1965
31665W        W74718  17.423  12.084  17.219 -0.1735  0.0207 -0.0457
31666W        W74719  14.487  25.445  14.260 -0.1907  0.0428 -0.0114
31667W        W74720   2.990  25.663  26.516  0.1826  0.0538 -0.0540
31668W        W74721  25.385  33.614  19.105 -0.0587 -0.0932  0.0154
31669W        W74722  13.503  30.279  22.740 -0.3731 -0.0156 -0.2648
31670W        W74723  15.021  33.729   0.294 -0.3929  0.1319 -0.2840
31671W        W74724   1.221   0.524  16.114  0.0064  0.1766 -0.0067
31672W        W74725  34.344  33.274  19.413 -0.0699  0.1978 -0.2999
31673W        W74726   9.527   3.834  25.467  0.2898  0.1640 -0.1092
31674W        W74727  16.890  22.182  16.476  0.0965 -0.2965  0.0558
31675W        W74728   9.695   1.088  14.662  0.0580  0.2112  0.1452
31676W        W74729   4.976  18.042  18.864  0.0757 -0.3048  0.1785
31677W        W74730  19.475  26.102  15.769  0.4206  0.2154  0.1106
31678W        W74731  27.232  28.204  19.517  0.1165 -0.1418 -0.2143
31679W        W74732  28.423  22.608  29.120  0.1030  0.3131  0.0816
31680W        W74733  23.340  33.617  28.777 -0.1256 -0.1120 -0.1966
31681W        W74734  33.624   1.201  26.854 -0.0880 -0.3819 -0.2653
31682W        W74735  31.305  26.818  21.203  0.0401 -0.2991  0.1605
31683W        W74736   3.405  20.244  26.518 -0.0038 -0.0686  0.1813
31684W        W74737  34.401  21.949  23.803  0.1467 -0.1194  0.0382
31685W        W74738  13.606  25.920   1.087  0.1142 -0.0180 -0.1580
31686W        W74739   6.249  19.595   5.376 -0.0409  0.4228 -0.0289
31687W        W74740  13.263  29.212  14.568 -0.0032  0.0244  0.1579
31688W        W74741   8.020   3.640  22.537 -0.1445 -0.2730 -0.0669
31689W        W74742  27.354   7.413  21.883 -0.1292 -0.1614 -0.1281
31690W        W74743   5.251  22.696  18.986 -0.1797  0.0903  0.1761
31691W        W74744   4.948  23.004  19.832  0.1565 -0.0114  0.1083
31692W        W74745   6.169  32.140  17.066 -0.0406  0.0984 -0.0109
31693W        W74746   8.440  27.259  24.535 -0.2673  0.2229 -0.1876
31694W        W74747  12.051   0.569   8.426 -0.2744 -0.1241  0.1765
31695W        W74748  23.529  33.695  20.193 -0.2800  0.0951  0.0061
31696W        W74749   8.056   7.225  16.947 -0.0306  0.0616  0.1029
31697W        W74750  17.296  20.236  22.479  0.3648 -0.1467 -0.3286
31698W        W74751  18.589  34.080  19.791  0.2323  0.2788 -0.1802
31699W        W74752  28.367  27.000  19.266 -0.1222  0.0391  0.0433
31700W        W74753  28.003   2.157  14.355 -0.1998 -0.0344 -0.1384
31701W        W74754  12.369  10.793  20.137 -0.1703  0.0081  0.3783
31702W        W74755  30.207   1.115  18.543  0.2011  0.2112 -0.2191
31703W        W74756  31.415  22.449  21.558  0.0137 -0.1774 -0.0683
31704W        W74757   0.914  14.365  16.501  0.3425  0.2552  0.5125
31705W        W74758   5.034  23.734  28.660 -0.0244 -0.3163  0.0089
31706W        W74759   1.569  26.986  13.511  0.1162 -0.0378 -0.2422
31707W        W74760  32.382  29.633  18.379 -0.1927  0.4147  0.0639
31708W        W74761  32.895  14.578  19.649 -0.5394  0.3114  0.3288
31709W        W74762  31.927  27.213  15.209 -0.0503  0.0105 -0.2617
31710W        W74763   3.322  28.662  16.007  0.2022 -0.0074 -0.1480
31711W        W74764  25.608  23.254  23.428  0.1136  0.0755  0.0136
31712W        W74765  19.277  33.498  18.694 -0.2807  0.0473 -0.1261
31713W        W74766  14.062  32.214  21.692  0.1081 -0.1962 -0.6485
31714W        W74767  31.543   1.293  18.021 -0.0665  0.0257  0.0372
31715W        W74768   2.078  25.674  13.558  0.2066  0.0842  0.0268
31716W        W74769  27.304  32.150  17.232  0.0556  0.1696 -0.1735
31717W        W74770   2.657  28.452  24.397  0.2509 -0.0715  0.1801
31718W        W74771  27.232  23.296  18.146  0.0392  0.0700  0.2406
31719W        W74772   7.695  18.301  17.463  0.2178  0.0310 -0.0651
31720W        W74773  27.260  15.315  22.478 -0.0701 -0.1217 -0.0982
31721W        W74774  16.431  19.209  16.299 -0.2273 -0.1665  0.1163
31722W        W74775  12.295  30.988  17.543  0.1557 -0.0405 -0.0953
31723W        W74776   1.951  18.810  20.202 -0.0673  0.2019  0.0449
31724W        W74777  31.670  32.705   0.339 -0.2435 -0.4581 -0.1387
31725W        W74778  32.276  21.889  15.195 -0.3645  0.3170  0.4261
31726W        W74779   9.018  32.029  14.799 -0.0453  0.1013 -0.1047
31727W        W74780   2.104  29.151  24.590 -0.1695 -0.1729 -0.1712
31728W        W74781  17.022  34.108  18.327  0.2081  0.0688 -0.1368
31729W        W74782   0.892   7.653   1.257 -0.0684 -0.1537 -0.4345
31730W        W74783   3.218   1.260   9.130  0.1654  0.1939 -0.0520
31731W        W74784  32.265  18.044  21.916 -0.0998 -0.2282 -0.2222
31732W        W74785   0.581  18.210  25.799 -0.0037 -0.0686  0.4201
31733W        W74786  25.807  23.745  23.178 -0.1345  0.1950  0.0992
31734W        W74787   0.812  26.074  18.970  0.1357  0.0156  0.1029
31735W        W74788   0.638  16.859  13.153 -0.2461  0.1897  0.0310
31736W        W74789  10.338  14.995   9.013 -0.1658 -0.1473 -0.0702
31737W        W74790   8.898  29.733  23.835  0.3432 -0.0181 -0.0187
31738W        W74791  22.704  22.686  27.854  0.0667  0.0495 -0.0144
31739W        W74792  17.454   3.204  28.536 -0.2825  0.0041 -0.1422
31740W        W74793  26.277   0.773  15.420 -0.1665 -0.2797  0.0149
31741W        W74794  31.646  33.839  14.212  0.2877 -0.2757 -0.3006
31742W        W74795  28.912   7.043   1.241  0.0064  0.0017  0.1368
31743W        W74796   5.802  30.149  18.010  0.0377 -0.1744 -0.0747
31744W        W74797   3.657  17.090  15.225 -0.0430  0.2628  0.2411
31745W        W74798   5.359   6.731  15.945 -0.0132 -0.0862  0.0408
31746W        W74799  22.515  21.125  14.238  0.3082  0.1517 -0.3321
31747W        W74800   4.666  12.244  18.277 -0.1248 -0.0851  0.0232
31748W        W74801   8.981  27.577  18.718 -0.2249  0.1874  0.1563
31749W        W74802  32.689  29.933  13.837  0.0834  0.0600 -0.2311
31750W        W74803  29.361  27.930  16.033  0.0235 -0.0321  0.3347
31751W        W74804   7.249  21.975   1.195  0.0589 -0.4733  0.2902
31752W        W74805  21.652  20.654  17.512  0.0331 -0.1126 -0.1025
31753W        W74806  22.607  20.405  25.963 -0.2304 -0.1263 -0.0379
31754W        W74807   6.137  19.866   6.812  0.3109  0.4042  0.1538
31755W        W74808  30.410  27.689  20.253 -0.0905  0.3431 -0.0558
31756W        W74809   2.775  20.633  16.210 -0.3603  0.1840 -0.0197
31757W        W74810  10.847   0.663  15.776  0.3193 -0.1948 -0.2787
31758W        W74811  17.191   8.756  15.163  0.1681 -0.5348 -0.0034
31759W        W74812  14.150  28.058  14.550  0.0223  0.0117 -0.0357
31760W        W74813  16.136  19.721   6.938  0.0176  0.0902 -0.0274
31761W        W74814  32.817  27.033  22.080  0.0554 -0.0225  0.2016
31762W        W74815   4.344   6.901  24.374  0.0887  0.1425 -0.0867
31763W        W74816  27.385  20.096  22.706 -0.1562 -0.1140  0.1389
31764W        W74817   9.298  34.169  14.442  0.1472 -0.1450 -0.0455
31765W        W74818  29.047  23.408  22.689  0.3170  0.0901  0.1230
31766W        W74819  29.754  26.358  14.770 -0.0132 -0.0890  0.1539
31767W        W74820  34.172  18.449  26.784  0.5786 -0.3141  0.0939
31768W        W74821  17.607  27.694  18.888 -0.0165  0.2969  0.2418
31769W        W74822   9.272   6.980  17.885  0.1824 -0.3203  0.2263
31770W        W74823  32.948  26.248  14.452  0.0869  0.0277 -0.4148
31771W        W74824  11.841  18.397  17.873  0.1883  0.4363  0.0910
31772W        W74825  28.474   9.543  18.978 -0.1436 -0.0598  0.1941
31773W        W74826  14.313  20.588  23.821  0.1726  0.0650  0.3675
31774W        W74827   7.827   6.648  17.943  0.0429  0.1222  0.1860
31775W        W74828  21.160  23.011  27.289  0.2388 -0.1784  0.1726
31776W        W74829   3.955  13.802   2.473  0.1339 -0.0685  0.4129
31777W        W74830   9.282  28.272  24.042  0.1871 -0.0829 -0.0433
31778W        W74831   2.480  33.281  13.991 -0.1617 -0.0792  0.0392
31779W        W74832  16.681  30.762  20.165 -0.3283  0.0771  0.0922
31780W        W74833   0.234  23.429   4.341 -0.2890 -0.0534 -0.2257
31781W        W74834  30.796   8.892   1.768 -0.0885 -0.0012 -0.1846
31782W        W74835  23.070  17.409  17.024 -0.0590  0.2331 -0.1198
31783W        W74836   3.335  20.116   4.648  0.2083 -0.0519  0.1577
31784W        W74837   7.203  27.553  28.461 -0.0836 -0.1455 -0.2867
31785W        W74838  11.142   5.846  16.159 -0.1960  0.3286 -0.2262
31786W        W74839  23.329  20.250  15.604 -0.2920  0.1203 -0.0661
31787W        W74840   8.199  13.604  23.295  0.2549  0.1386  0.1538
31788W        W74841  34.024  31.691  13.012  0.1284 -0.0774 -0.2210
31789W        W74842   2.265  11.271  18.097 -0.1628  0.0084 -0.0065
31790W        W74843   5.340  10.776  21.713 -0.1741 -0.6002 -0.2773
31791W        W74844   5.561  29.916  14.514  0.0658 -0.3998  0.1037
31792W        W74845  11.401  26.618  20.240  0.0034  0.0302  0.0054
31793W        W74846  20.577  29.890  14.515  0.1748 -0.0698  0.0841
31794W        W74847   6.679  23.671   4.235 -0.0503  0.1728  0.0367
31795W        W74848  20.627  17.955  23.486 -0.2684 -0.0805  0.1072
31796W        W74849  11.852  14.173  21.751  0.2612  0.2058 -0.2491
31797W        W74850  15.394  22.703   3.179  0.2460 -0.2651 -0.0503
31798W        W74851   8.634  21.935  25.943  0.0075 -0.1343  0.0234
31799W        W74852   2.548   5.725  24.625 -0.0298  0.1382 -0.2615
31800W        W74853   5.417  13.244  20.179 -0.2783  0.1995  0.0738
31801W        W74854  12.815  28.616   2.522 -0.1625 -0.0333  0.0701
31802W        W74855   0.535  27.053  17.701 -0.0866  0.1617 -0.1695
31803W        W74856  10.417  19.074   5.470  0.2638  0.1480 -0.1771
31804W        W74857  13.285  15.372  16.039  0.0002  0.3317  0.1192
31805W        W74858  16.494  23.904  16.983  0.3708  0.2281  0.2128
31806W        W74859   9.733  23.359  13.977 -0.0502 -0.2795  0.0793
31807W        W74860  18.928  32.183  20.448  0.2709 -0.0950 -0.1258
31808W        W74861  30.525  16.424  22.040  0.2522 -0.1553  0.3171
31809W        W74862  13.883  24.942  16.650 -0.1005  0.0853 -0.0597
31810W        W74863   6.781  29.880  14.270 -0.1005 -0.6133  0.0462
31811W        W74864  10.134   4.944  28.428  0.0238 -0.0197  0.4762
31812W        W74865   8.095  23.819  14.230  0.1277 -0.0164 -0.0291
31813W        W74866  17.343  17.244  13.953 -0.1591  0.0931  0.1723
31814W        W74867  10.440  29.810  20.264  0.0792  0.2924  0.1202
31815W        W74868  10.206  27.307  16.780  0.3415  0.0510 -0.1027
31816W        W74869   9.471  33.394  26.476 -0.1660 -0.0922  0.0674
31817W        W74870  31.068  22.306  15.225  0.1818 -0.0235  0.0721
31818W        W74871   1.020  28.487  18.007 -0.0121  0.1627  0.3853
31819W        W74872  13.200  23.640  25.474  0.0758 -0.1155  0.2592
31820W        W74873   6.657   5.962  17.661 -0.1279  0.2312  0.0277
31821W        W74874   0.496  24.699  20.654  0.1339  0.1074  0.4933
31822W        W74875  27.289  24.172  15.287 -0.0713  0.3634 -0.2392
31823W        W74876  31.140  13.891  22.414 -0.2722 -0.1142 -0.1204
31824W        W74877   6.703  29.924  22.641  0.1174 -0.1240 -0.0088
31825W        W74878   7.065  29.829  21.993 -0.0266 -0.0343 -0.0807
31826W        W74879  27.635  24.116  17.967 -0.0048  0.2690  0.2326
31827W        W74880  19.335  24.939  22.514  0.1194  0.1653 -0.0181
31828W        W74881  18.352  26.721  24.996 -0.0526 -0.0970  0.3215
31829W        W74882  32.115  26.294  15.248 -0.0496  0.1249  0.1130
31830W        W74883   6.879  20.251  26.150 -0.1069  0.1164  0.1297
31831W        W74884   9.237   0.843  24.482  0.0426  0.0611  0.0323
31832W        W74885  18.541  12.240  20.265 -0.3858  0.3287 -0.1369
31833W        W74886   7.277  32.230  20.698 -0.0568  0.2797 -0.2031
31834W        W74887   2.613  15.801  21.718 -0.2395  0.0631 -0.2905
31835W        W74888  13.741  23.534  16.264  0.2625 -0.0087 -0.2159
31836W        W74889  33.550  27.178  28.397  0.2324 -0.3029  0.0778
31837W        W74890   1.744  22.336  17.151  0.1860  0.4259 -0.1410
31838W        W74891   7.280  16.548  18.881 -0.5546  0.0480 -0.0773
31839W        W74892   0.727  30.420  16.874  0.2545  0.2161  0.0486
31840W        W74893   7.930  30.903  17.877 -0.0194 -0.0848  0.1646
31841W        W74894   7.330  32.474  18.450 -0.1882  0.1896  0.0001
31842W        W74895  12.405  26.901  23.133 -0.0841 -0.0831  0.0623
31843W        W74896   6.259  31.027  13.930 -0.0400  0.0360  0.1881
31844W        W74897   1.350  17.643  13.822 -0.2043  0.0595 -0.1388
31845W        W74898  30.359  32.479  14.536  0.1039 -0.1091  0.4766
31846W        W74899  29.413  34.154  25.334  0.0229 -0.1725 -0.2502
31847W        W74900   0.530  15.830  23.159  0.1496  0.0499 -0.0270
31848W        W74901   8.417  21.450  24.831  0.1729  0.1021 -0.1569
31849W        W74902  18.777  29.559  24.138  0.1679 -0.0854 -0.2891
31850W        W74903  27.645  21.809  21.072 -0.2969  0.4943  0.2910
31851W        W74904  12.086  31.741  16.659  0.0587 -0.1872  0.1341
31852W        W74905  13.104  18.652  28.196 -0.4534  0.1663 -0.0724
31853W        W74906   0.725   7.493  24.330 -0.0254 -0.3097  0.5172
31854W        W74907  31.200  25.129  16.390 -0.1220 -0.0670  0.2411
31855W        W74908   9.094   7.385  18.161  0.0800 -0.1676 -0.1101
31856W        W74909   6.254   0.677  21.817 -0.0920  0.0789  0.0107
31857W        W74910  32.705  28.378  24.321 -0.0091 -0.2050 -0.1502
31858W        W74911   6.417  32.880  14.017 -0.1066 -0.3843  0.4096
31859W        W74912   8.935  18.020  13.613  0.0264 -0.1145  0.4692
31860W        W74913  20.265  13.983  17.405  0.0464 -0.2586  0.2390
31861W        W74914   4.548  34.069  22.082 -0.0084 -0.0762  0.0329
31862W        W74915  20.868  30.132  16.698 -0.0930  0.0820 -0.3474
31863W        W74916  29.049   4.189  17.932 -0.1045 -0.2851 -0.1002
31864W        W74917  19.573  32.849  15.957  0.1739  0.2679 -0.0445
31865W        W74918  33.809   1.293  28.670  0.1086 -0.3541  0.0441
31866W        W74919  14.705  24.701  15.536  0.0687  0.1756 -0.0499
31867W        W74920   7.722  29.003  14.404  0.1511  0.1526  0.0780
31868W        W74921   1.640   6.425  23.922  0.3319 -0.1237  0.3961
31869W        W74922   4.442  11.415  14.544 -0.1266 -0.1411 -0.3105
31870W        W74923   7.899  29.309  18.348 -0.0027  0.0632 -0.3771
31871W        W74924   8.538  29.906  15.731  0.0370 -0.3795  0.4724
31872W        W74925   3.187   2.347  14.222 -0.1962  0.0184 -0.0004
31873W        W74926   9.540   4.608  25.005  0.0152 -0.2006  0.1862
31874W        W74927  22.043   2.255  20.053 -0.2237  0.1227 -0.1461
31875W        W74928  33.887   2.235  16.574 -0.0058  0.2310 -0.3116
31876W        W74929   3.394   9.483   8.036  0.2848 -0.1743  0.1442
31877W        W74930  23.968  29.503  18.119  0.0608  0.4212  0.4049
31878W        W74931  12.334  29.145  23.303 -0.1010  0.2501 -0.1080
31879W        W74932   1.228  23.733  19.433  0.0685  0.0612  0.0909
31880W        W74933  27.590  27.147  14.773 -0.3051  0.1875  0.2456
31881W        W74934  31.823  26.095  26.529  0.1206 -0.4827  0.2502
31882W        W74935   1.073  19.212  24.299 -0.0255  0.0750  0.0828
31883W        W74936  28.863  20.096  19.340  0.0005 -0.1758  0.0591
31884W        W74937  16.967  28.261  18.231  0.1053  0.2382 -0.3233
31885W        W74938   5.134  27.519   0.138  0.1270 -0.2811 -0.0353
31886W        W74939  15.892   4.898  24.564  0.4296 -0.0676  0.1771
31887W        W74940   7.726   5.364  19.271  0.3400  0.0713  0.2599
31888W        W74941   8.224   4.196  17.966 -0.0578 -0.1962 -0.2884
31889W        W74942  11.586  30.044  17.421  0.1800  0.0613 -0.1645
31890W        W74943   6.661  22.376  15.815 -0.1681  0.2081 -0.0016
31891W        W74944  29.545  20.215  20.628  0.0081  0.1447  0.0603
31892W        W74945   1.426  28.565  14.035 -0.3830  0.1301  0.1902
31893W        W74946  34.655  23.160  21.753  0.1895 -0.0723 -0.0523
31894W        W74947  29.275   2.310  16.377  0.2073  0.1714  0.3416
31895W        W74948  14.500  34.251  16.378  0.0737  0.3818 -0.1894
31896W        W74949  15.467  31.188   6.705 -0.1050 -0.3155 -0.0039
31897W        W74950  26.652  32.268  15.192 -0.1411  0.0073  0.2722
31898W        W74951  16.140  11.907  16.927  0.2026  0.1182 -0.3157
31899W        W74952   4.537  25.645  22.918  0.2558 -0.0697 -0.0010
31900W        W74953   9.838   0.342  16.361 -0.1903 -0.0767 -0.0671
31901W        W74954  15.871  17.775  14.793 -0.5326 -0.3841  0.2381
31902W        W74955  17.927  13.091  14.976 -0.0389 -0.2895 -0.0445
31903W        W74956   8.971  22.091  13.519 -0.1587 -0.2571 -0.3410
31904W        W74957   9.273  17.776  17.050 -0.1479 -0.2378  0.1303
31905W        W74958  31.765   7.011  19.466  0.1570 -0.3441  0.5131
31906W        W74959  21.939   7.171  22.546  0.2166  0.2415  0.1994
31907W        W74960   6.473  33.542  15.217  0.0843 -0.0589  0.0572
31908W        W74961   1.207  27.371  15.236 -0.0945  0.0484  0.1790
31909W        W74962  21.457   7.949  20.179  0.2926 -0.1316  0.1352
31910W        W74963   3.059  26.472  16.910 -0.3292 -0.3310  0.0558
31911W        W74964  13.442  33.551  24.029 -0.0937  0.0965  0.1956
31912W        W74965   8.956  28.632   1.952 -0.0142 -0.0734  0.2090
31913W        W74966  12.092  20.580  18.619  0.0302  0.1127 -0.0808
31914W        W74967  16.082  24.024   0.417 -0.2747 -0.0301  0.3080
31915W        W74968   5.555  10.438  15.288 -0.2460  0.1816  0.0319
31916W        W74969  11.419  25.549  23.189  0.0609 -0.2805 -0.1789
31917W        W74970  34.385  26.434  15.966  0.3159 -0.0970 -0.2299
31918W        W74971  33.914  32.651  17.188 -0.1835 -0.0533  0.1871
31919W        W74972   2.402  25.328   9.852 -0.0388  0.0216  0.0571
31920W        W74973  32.254  30.809  19.341  0.4359  0.2836 -0.1181
31921W        W74974  31.566   0.304  17.562 -0.1211 -0.1319 -0.1992
31922W        W74975  15.032  21.443  16.438  0.2599  0.1207  0.1332
31923W        W74976  17.062  25.270  22.806  0.1195 -0.0882  0.1081
31924W        W74977  14.686  15.061  15.534  0.2697  0.2124  0.3037
31925W        W74978  17.282  28.924  23.260 -0.1272 -0.2223  0.0376
31926W        W74979   2.786  29.547  14.446  0.3236  0.1385 -0.0558
31927W        W74980  19.595  30.231  15.269  0.2168  0.1756 -0.1010
31928W        W74981  10.983   4.060  16.604  0.2629 -0.0596 -0.0928
31929W        W74982   4.888  29.320  25.751 -0.0615 -0.0354  0.4013
31930W        W74983  15.257  23.617  14.857  0.0157 -0.0181 -0.0072
31931W        W74984  31.574  16.965  21.375  0.0467 -0.2065 -0.0961
31932W        W74985   3.787  11.030  25.689 -0.0424 -0.0203  0.0416
31933W        W74986   0.912  23.909  16.637 -0.2762 -0.1084 -0.0680
31934W        W74987  33.265  25.598  27.935 -0.2060  0.0765  0.0898
31935W        W74988  11.714  24.185  20.292 -0.0641  0.1228  0.1016
31936W        W74989   2.973  19.957  14.919  0.5058  0.0075 -0.1731
31937W        W74990  11.344  23.658  17.634  0.3394  0.2162 -0.0999
31938W        W74991   6.326  10.817  28.718  0.1756  0.1035 -0.0316
31939W        W74992   1.422  18.232  24.858  0.1303  0.0046 -0.1317
31940W        W74993  14.293   6.780  21.176 -0.1006  0.1445 -0.2515
31941W        W74994   3.534   4.656  24.802  0.3168 -0.1034  0.0923
31942W        W74995  28.879  11.797  16.815 -0.2106  0.1860 -0.1201
31943W        W74996   1.081  10.074  14.568 -0.0409  0.0512  0.0736
31944W        W74997   1.629  20.599  21.439 -0.1400  0.2181  0.1307
31945W        W74998   9.083  34.340  16.073  0.0954  0.1621  0.1580
31946W        W74999   8.105  26.732  19.406  0.3718  0.1294 -0.0640
31947W        W75000   5.662   0.994   0.637 -0.1641  0.1262  0.2168
31948W        W75001   5.953   8.492  16.381 -0.0847  0.1381  0.0081
31949W        W75002  22.036  21.430  22.725  0.1085  0.1945  0.0840
31950W        W75003  16.994  33.639  27.279  0.1399  0.1042  0.1397
31951W        W75004  12.567  20.563  25.027  0.1824  0.1373 -0.0150
31952W        W75005  28.772   0.230  27.652  0.3472 -0.2446 -0.2851
31953W        W75006  19.721  27.589   0.492  0.0241  0.1014 -0.1220
31954W        W75007   7.876  31.709  24.487 -0.1773  0.0256 -0.0822
31955W        W75008  10.583  30.167  21.659  0.2861 -0.1901 -0.0068
31956W        W75009   5.883  31.335  19.494 -0.2891  0.1777 -0.3250
31957W        W75010   4.565  32.500  15.194  0.1181  0.1816 -0.0908
31958W        W75011  32.476  30.223  16.545  0.0742  0.1196 -0.1494
31959W        W75012  12.428  21.293  21.137  0.1517 -0.0263 -0.0969
31960W        W75013  29.523  34.440  29.074 -0.0779  0.0406 -0.1329
31961W        W75014   7.031   1.402  16.753  0.0616 -0.0105 -0.1511
31962W        W75015  14.703   3.571  17.428  0.0617  0.0709 -0.1434
31963W        W75016   8.174  15.655  27.877  0.2520 -0.0261  0.2218
31964W        W75017  14.874  31.735  15.146  0.0839  0.0879  0.1112
31965W        W75018  29.554  29.262  21.864 -0.4403 -0.0295  0.0290
31966W        W75019   1.627  25.949  25.464 -0.2123 -0.0029 -0.2366
31967W        W75020  20.750  33.422  27.524  0.3088 -0.1526  0.2725
31968W        W75021  29.373  27.750  14.975 -0.1558 -0.1287  0.1444
31969W        W75022   7.276  24.064   3.469  0.1014 -0.2351  0.1643
31970W        W75023  26.351  27.767   3.377 -0.1719 -0.0078  0.1486
31971W        W75024  32.971   4.886  22.893 -0.0097 -0.0679  0.1616
31972W        W75025  27.894  18.898   3.547 -0.2519  0.2762  0.2266
31973W        W75026  33.824   8.492  25.095  0.4466 -0.0781  0.1040
31974W        W75027  11.677  28.582  17.846 -0.1321  0.0119  0.1815
31975W        W75028   2.937  23.279  21.103 -0.1579 -0.5968  0.4704
31976W        W75029  12.112   0.958  13.584 -0.0330  0.0732 -0.0004
31977W        W75030  26.108  27.984   8.532 -0.3149 -0.0411  0.0998
31978W        W75031  13.737  32.727  17.570  0.1085 -0.1864 -0.0799
31979W        W75032  10.623  26.585  14.768 -0.1274 -0.0145 -0.0215
31980W        W75033  12.429  29.335  15.053  0.0381 -0.2625 -0.3266
31981W        W75034  13.166  23.888  26.949  0.0990  0.2313  0.0854
31982W        W75035  12.380  32.040  27.136 -0.0711  0.0808  0.2412
31983W        W75036   0.115  32.272  14.860  0.0971 -0.1159  0.0354
31984W        W75037   6.925   8.175  26.996  0.0647 -0.3395 -0.3707
31985W        W75038   3.336  11.173  15.583 -0.0814  0.0533  0.0522
31986W        W75039   5.635   2.705   6.241  0.0641  0.1258  0.3387
31987W        W75040  32.078  25.563  16.101  0.0222 -0.1636  0.5290
31988W        W75041  29.341   7.993  16.426  0.2091  0.1406  0.2179
31989W        W75042  21.878  11.406  21.889 -0.2307  0.1098 -0.0013
31990W        W75043   7.123  22.607  17.691  0.0185 -0.3352 -0.1461
31991W        W75044  11.467   7.049  11.208 -0.1284 -0.1516 -0.0064
31992W        W75045  19.098  31.074  14.538 -0.0090  0.2081  0.0083
31993W        W75046  18.827  22.975  17.512 -0.1299  0.1507 -0.0085
31994W        W75047  29.804  30.031  16.942 -0.0833  0.1279 -0.0349
31995W        W75048  28.161   5.573   0.204  0.2944 -0.1441  0.2274
31996W        W75049   0.936  30.325  15.869 -0.0980  0.0557  0.1507
31997W        W75050  10.186  29.095  12.919 -0.2464 -0.0365  0.0590
31998W        W75051  17.830  17.599   4.020  0.0634  0.2514 -0.0016
31999W        W75052  34.088  15.899  16.598 -0.0710 -0.0700 -0.1869
32000W        W75053  11.862  19.559  28.005 -0.1398  0.4302  0.1098
32001W        W75054  23.060  33.948  16.760  0.4199  0.2911 -0.1636
32002W        W75055   7.034  32.852  20.418  0.4043 -0.0323 -0.1778
32003W        W75056   4.243   4.190  23.243 -0.0155  0.0751  0.1016
32004W        W75057  16.949   1.136  28.137 -0.1349  0.3392  0.5505
32005W        W75058  18.602  18.679  18.576 -0.0397  0.1530 -0.4440
32006W        W75059   7.270  21.449  21.112 -0.2402 -0.4130  0.2933
32007W        W75060  26.419  32.143  14.744 -0.0435 -0.2573 -0.0544
32008W        W75061   9.501  28.564  14.715 -0.0153  0.2723 -0.0243
32009W        W75062  25.758  26.826  17.782 -0.2785 -0.0466  0.3832
32010W        W75063  10.538  34.353  24.457  0.0433  0.0936 -0.0107
32011W        W75064   2.700   6.512  25.928 -0.0862 -0.0008 -0.1162
32012W        W75065  29.637   9.527   7.077  0.0793 -0.0752 -0.0731
32013W        W75066   4.068  15.198  15.100 -0.1641  0.0836  0.0460
32014W        W75067   2.357  28.714  27.576  0.2112 -0.0980  0.0760
32015W        W75068  12.169   0.487   6.306  0.2344 -0.0735 -0.3823
32016W        W75069   3.878   5.355  21.976 -0.2467 -0.2515 -0.0487
32017W        W75070  13.100  20.522  18.445  0.0237  0.2299  0.1704
32018W        W75071   5.452  26.956  24.800 -0.0752 -0.1267 -0.0855
32019W        W75072  16.603  26.721  29.103  0.3240  0.2123  0.0700
32020W        W75073  19.165  24.212  18.845 -0.4082 -0.1641 -0.0666
32021W        W75074   2.687  16.290  21.738  0.1493  0.4944 -0.5424
32022W        W75075  13.624  28.015  25.454 -0.0192  0.0973  0.1094
32023W        W75076   5.095  34.352  19.163  0.2344  0.1828 -0.0720
32024W        W75077  13.249   1.010  27.601  0.3210 -0.4298 -0.1493
32025W        W75078   9.732  25.237  20.527 -0.1011  0.1975  0.2742
32026W        W75079  11.973  26.214  26.882 -0.2859 -0.0996  0.1938
32027W        W75080   6.445  32.095  28.426 -0.1017  0.1143 -0.0696
32028W        W75081  22.427  18.375  27.034  0.1066 -0.1784  0.0321
32029W        W75082  18.376  24.867  28.063 -0.1103  0.2673 -0.0481
32030W        W75083   3.893   0.852  16.540 -0.1465  0.1981  0.0071
32031W        W75084   1.450  29.602   4.606 -0.2360 -0.1945  0.0577
32032W        W75085   3.320  34.679  14.234 -0.0743 -0.2027 -0.0022
32033W        W75086  33.422  22.868  17.090  0.1761  0.0619 -0.2773
32034W        W75087   7.041  25.072  15.886  0.1000  0.1310  0.2063
32035W        W75088  32.351  29.069  22.378  0.3615 -0.0848  0.2025
32036W        W75089   8.016  17.961  21.298  0.1014  0.1138 -0.0377
32037W        W75090  14.646  30.166  18.258  0.1166 -0.3039  0.2701
32038W        W75091  27.768  14.669  28.259  0.0568 -0.0705  0.4216
32039W        W75092   7.404  32.818  15.977 -0.1496  0.2181 -0.2753
32040W        W75093   0.899   1.259  18.776 -0.0550 -0.0227  0.0323
32041W        W75094   7.141  23.651  19.199 -0.1865 -0.2153 -0.1161
32042W        W75095  13.728   6.107  24.313 -0.1648  0.0903  0.2614
32043W        W75096  12.000  12.111  18.880 -0.0204  0.0543 -0.0985
32044W        W75097   5.511  33.052  16.312 -0.1392 -0.2841  0.3348
32045W        W75098   3.612  34.216  22.131 -0.0888 -0.2658 -0.0097
32046W        W75099  32.145   1.060  24.698 -0.0576  0.0397  0.2176
32047W        W75100  11.769   2.605  11.965 -0.1259 -0.0478 -0.1324
32048W        W75101  22.104  29.071  22.867 -0.0924  0.1487  0.1050
32049W        W75102   0.397  27.783  13.726  0.2002  0.3802 -0.1146
32050W        W75103  33.692  28.822  18.670  0.0423  0.1890 -0.1515
32051W        W75104  14.342  24.829  16.477 -0.2981 -0.1464  0.6176
32052W        W75105  13.166  26.059   4.166  0.3594 -0.0756 -0.2262
32053W        W75106   5.771  33.291  14.457  0.3258 -0.0384  0.2779
32054W        W75107  29.809  28.965  27.048 -0.0653 -0.1509  0.1895
32055W        W75108  34.265  18.764  16.957  0.0396 -0.0732 -0.0632
32056W        W75109   2.375  33.434  16.798 -0.1049  0.0831 -0.2204
32057W        W75110  11.603  30.386  15.085 -0.1002 -0.2027  0.2989
32058W        W75111   3.820  28.975  26.547 -0.0952  0.0766  0.2908
32059W        W75112   5.387  23.147  19.600  0.0714 -0.2213  0.0408
32060W        W75113   5.228   6.641  16.893 -0.0489  0.2767 -0.2225
32061W        W75114  17.596  21.620   6.582  0.0275 -0.1140  0.1142
32062W        W75115  33.789  30.783  18.026 -0.1954 -0.0428  0.1115
32063W        W75116  30.834  23.651  18.805  0.3428 -0.0430 -0.2098
32064W        W75117  11.984  11.478  15.074 -0.1637 -0.0499 -0.1172
32065W        W75118  34.488  24.576  16.933 -0.0463  0.0684  0.1299
32066W        W75119  10.239  28.370  19.030  0.3150  0.0230 -0.2047
32067W        W75120   9.265  31.032  21.358 -0.0953  0.1072 -0.0163
32068W        W75121  30.667  18.174  23.015 -0.0642 -0.1541 -0.1336
32069W        W75122   4.449  33.849  21.483 -0.0177  0.1234 -0.0942
32070W        W75123   2.718  18.147  19.032  0.1225  0.3078  0.0751
32071W        W75124  27.708   8.191  19.044  0.0878  0.0913 -0.0255
32072W        W75125  30.491  25.447  15.419 -0.1454 -0.3609 -0.0902
32073W        W75126  31.458  19.923  23.802 -0.2919  0.4782  0.2805
32074W        W75127   3.739   0.730  20.269  0.1347 -0.3303 -0.0891
32075W        W75128   1.885   3.759   6.557 -0.0078 -0.1741  0.1126
32076W        W75129   5.370  19.997  18.541 -0.2271 -0.0383 -0.0591
32077W        W75130   4.419  17.590  17.099  0.2750  0.0066 -0.1045
32078W        W75131  18.346  26.924  20.731  0.1874 -0.1476 -0.2209
32079W        W75132  20.988  28.415  20.847 -0.0262 -0.1852 -0.1046
32080W        W75133  24.334  29.973  16.852 -0.0483 -0.0565  0.1481
32081W        W75134  26.923   4.940  17.715  0.1438  0.1835 -0.2053
32082W        W75135  30.319  33.920  10.073 -0.0912 -0.2147 -0.2337
32083W        W75136   2.974   4.455  26.767 -0.3459 -0.2357  0.1161
32084W        W75137   6.647  22.292  21.914 -0.1111 -0.3505  0.1880
32085W        W75138  13.121   4.239  26.577 -0.2239  0.1123  0.3523
32086W        W75139   3.156  11.317   2.355 -0.2027 -0.1585  0.3922
32087W        W75140  28.205  30.645  14.668  0.0100  0.0332  0.0475
32088W        W75141  14.715  26.844   6.967 -0.0827 -0.2282 -0.2835
32089W        W75142   8.150   4.500  15.005  0.0471  0.0741  0.3026
32090W        W75143  33.793   5.851  13.675  0.1869 -0.3547 -0.2963
32091W        W75144  17.820  25.034  24.546  0.0703  0.2067  0.0947
32092W        W75145  31.084  32.965  26.449 -0.2135  0.1250 -0.2440
32093W        W75146  16.387  33.954  16.719  0.2125 -0.0637  0.1587
32094W        W75147   8.731  22.370   2.916  0.2631 -0.2705  0.2775
32095W        W75148   2.751  23.585  23.257 -0.2804  0.2810 -0.1181
32096W        W75149   7.208  19.114  14.353  0.0935 -0.2220 -0.0253
32097W        W75150  18.306  25.988  21.010 -0.0831 -0.0792  0.1711
32098W        W75151   3.875  25.951  18.709 -0.1791 -0.2955  0.1134
32099W        W75152   4.398  10.142  28.647  0.0746 -0.1207  0.1116
32100W        W75153  10.325   7.828  19.521 -0.1185  0.3085  0.3471
32101W        W75154   8.906  32.257  20.179  0.0845 -0.0277  0.0418
32102W        W75155  32.117  14.816   8.171  0.1613 -0.0228 -0.1467
32103W        W75156  11.893  14.319  16.725  0.1988 -0.1083  0.1598
32104W        W75157   2.923  25.573  14.707  0.1111  0.0290 -0.0401
32105W        W75158   6.939  12.369  14.915  0.0940  0.0761  0.2052
32106W        W75159   1.524  12.048  16.235 -0.0931 -0.0546  0.5308
32107W        W75160   7.764  33.923  17.009 -0.0999 -0.3948 -0.1469
32108W        W75161  10.041  27.865  13.575  0.2517 -0.2072  0.2407
32109W        W75162  21.497  22.562  14.034  0.0976 -0.2578  0.0745
32110W        W75163  15.974  22.021  25.679  0.0744  0.0508  0.1258
32111W        W75164  14.858  27.625  27.578  0.0789 -0.0118  0.3409
32112W        W75165  15.877  33.612  29.151 -0.5285 -0.0741  0.4387
32113W        W75166  17.978  29.030   8.086 -0.0989 -0.0020  0.0463
32114W        W75167  17.342   4.975  10.366  0.0855  0.2692 -0.2003
32115W        W75168  22.347  28.476  27.578 -0.1050  0.1512  0.0480
32116W        W75169  12.254  19.482  15.445  0.0921  0.2603 -0.4825
32117W        W75170  19.094  29.711   4.277  0.3026 -0.2135  0.1344
32118W        W75171  29.787  13.454  14.337 -0.1410  0.1123 -0.2167
32119W        W75172   2.387  22.288  27.148  0.1476  0.1769 -0.0425
32120W        W75173  16.852  21.655  17.760 -0.0776  0.2513  0.0133
32121W        W75174   3.969  15.109  26.277 -0.1536 -0.2338 -0.0932
32122W        W75175   5.524  16.377   7.181 -0.0122  0.1586  0.0089
32123W        W75176  30.500  18.958   3.764  0.1919 -0.2118 -0.0538
32124W        W75177  30.689   4.414   1.179  0.0765 -0.2097  0.3166
32125W        W75178   8.797  20.730  14.840  0.0291 -0.0542 -0.2589
32126W        W75179  15.203   7.024  28.565  0.0085  0.4874 -0.0056
32127W        W75180  11.290  26.708  23.613  0.0417  0.2256 -0.0808
32128W        W75181   2.640   2.304  24.224 -0.0765 -0.6200 -0.1777
32129W        W75182  12.589   8.433  24.870  0.2138 -0.0031 -0.0848
32130W        W75183  26.579   1.837  20.598  0.3470  0.3321 -0.0525
32131W        W75184   6.721   2.410  14.119  0.1353 -0.2681 -0.0872
32132W        W75185   5.051  18.593   3.874  0.1220 -0.0014 -0.1005
32133W        W75186  11.784   2.335  22.407 -0.3347 -0.0344  0.0584
32134W        W75187  10.187  17.301  25.311  0.0356 -0.0704 -0.1354
32135W        W75188   1.062  24.477  16.908  0.0407  0.3232 -0.0175
32136W        W75189   9.026  31.819  15.710 -0.0790 -0.0408 -0.0648
32137W        W75190   8.189  17.401   0.171 -0.1434  0.2010 -0.4223
32138W        W75191  34.624  33.387  16.045  0.0939  0.0059 -0.1337
32139W        W75192  25.256  28.425  26.013  0.1561  0.0496  0.0699
32140W        W75193  12.367  11.861  22.969  0.1304 -0.0857 -0.0297
32141W        W75194   8.103  22.695  21.121 -0.1158 -0.1996 -0.2993
32142W        W75195  11.606  10.351  26.704 -0.1261 -0.0971  0.2628
32143W        W75196  32.104  34.141  27.653 -0.0621 -0.1074 -0.0453
32144W        W75197   9.222  31.203  28.558 -0.0988  0.1700  0.3742
32145W        W75198  10.544  29.283  20.115 -0.1704  0.3224 -0.2766
32146W        W75199   9.356   9.028   0.795  0.2423 -0.0129  0.0181
32147W        W75200   0.156   2.433  13.987  0.1006  0.2625 -0.3186
32148W        W75201  29.256  22.933  21.943  0.1807 -0.2578  0.0312
32149W        W75202   1.346   3.060  14.168 -0.0758 -0.2519 -0.1266
32150W        W75203   2.081  18.444  23.234 -0.0701 -0.1538  0.2148
32151W        W75204  25.268  22.957  26.559  0.1420 -0.1687 -0.1993
32152W        W75205  11.430  32.446  21.566  0.0536 -0.1612  0.0749
32153W        W75206   5.873  19.300  16.684 -0.0828 -0.1241 -0.1153
32154W        W75207  20.593  32.211   9.468  0.2023  0.0803  0.3161
32155W        W75208  30.065  20.084  19.858  0.0516 -0.1640 -0.1206
32156W        W75209   7.903  23.501  22.299 -0.3143  0.0619  0.3446
32157W        W75210  15.079  15.134   7.275 -0.0509  0.0015 -0.0817
32158W        W75211  26.661  23.701  24.013 -0.1603 -0.4473  0.0926
32159W        W75212  32.431   6.725  18.069 -0.0363 -0.0471  0.0103
32160W        W75213   4.595  25.758  17.579  0.2723 -0.0800  0.5177
32161W        W75214  28.726  10.037  22.772  0.1841  0.0764  0.1750
32162W        W75215  34.528  29.423  26.151 -0.0455  0.1600 -0.2714
32163W        W75216  18.512  19.490   0.530 -0.0818  0.1111  0.0835
32164W        W75217  10.364  21.774  26.926 -0.1870 -0.1541  0.1036
32165W        W75218  21.635  31.207   8.706  0.1189  0.0330  0.0564
32166W        W75219  13.510  26.824  23.631 -0.2823 -0.5357  0.2283
32167W        W75220   2.036  13.054   0.583  0.1366 -0.3036  0.1420
32168W        W75221   3.289   2.665  23.062  0.2521 -0.1028  0.2346
32169W        W75222  27.812  22.875   6.414  0.0375  0.1801  0.0727
32170W        W75223   0.359  30.972  24.166  0.1871 -0.1106 -0.3214
32171W        W75224   1.682  32.680  22.635  0.0177 -0.0676  0.1392
32172W        W75225  32.385  26.064  17.829  0.2118 -0.1008  0.0462
32173W        W75226   9.939   3.143  28.661  0.1606 -0.0511  0.0099
32174W        W75227  30.500   7.516   7.821  0.1805  0.0117  0.0302
32175W        W75228  28.740  29.799  16.025  0.2771 -0.1003  0.3252
32176W        W75229   9.658  19.065  18.042  0.2889 -0.0002  0.3718
32177W        W75230  15.108  23.906  15.223 -0.0353 -0.0237 -0.1027
32178W        W75231   6.490  28.283  14.140 -0.2024  0.0593  0.1061
32179W        W75232  27.045   4.817  22.716 -0.1743  0.0499  0.0951
32180W        W75233  11.895  14.339  24.462 -0.2269 -0.3046  0.0026
32181W        W75234  16.678  25.460  20.885 -0.0507 -0.2558  0.0417
32182W        W75235  30.732  19.469  14.328 -0.0244  0.4233 -0.1728
32183W        W75236  12.463  18.430  18.035 -0.1017  0.1219 -0.1467
32184W        W75237  16.060  11.080  18.180 -0.2041 -0.1509  0.3960
32185W        W75238  11.524  24.383   1.976  0.2844 -0.0243 -0.2366
32186W        W75239  33.585  34.601  16.147 -0.0054 -0.1664  0.0312
32187W        W75240  11.883  12.590  25.353  0.1402  0.0936 -0.0937
32188W        W75241  11.103  16.354  19.706 -0.3193 -0.0485  0.2754
32189W        W75242  11.776   4.939   2.946  0.1798 -0.0603  0.1124
32190W        W75243   9.737  22.887  16.941 -0.2909 -0.0715  0.2682
32191W        W75244   4.328  24.914  14.910 -0.1662  0.0303  0.0483
32192W        W75245  17.400  11.359  20.010  0.1251 -0.0477  0.0997
32193W        W75246  16.376  24.373  25.285 -0.1448 -0.0944  0.0518
32194W        W75247   6.816  21.558  16.456  0.0551 -0.0585  0.0261
32195W        W75248   9.076  31.149  19.205 -0.0807 -0.1023 -0.1667
32196W        W75249  33.349  32.870  24.918  0.0051  0.0194 -0.0374
32197W        W75250  20.797  15.290  17.080 -0.3789  0.0634 -0.2325
32198W        W75251  33.768  26.123  14.637  0.0476  0.0150  0.1523
32199W        W75252  34.589   7.297  22.072 -0.0831  0.0147  0.1804
32200W        W75253  15.325  27.714  28.852 -0.0048  0.2623  0.0446
32201W        W75254  26.949   0.208  17.992  0.1408 -0.1304  0.0232
32202W        W75255  26.408  19.655  13.828  0.1555  0.3140 -0.0943
32203W        W75256  11.025   0.625  20.128  0.1428  0.1342 -0.1292
32204W        W75257  33.654   9.271  20.832  0.2151  0.0164  0.1018
32205W        W75258   2.067  13.066  26.670  0.2424  0.1916 -0.0389
32206W        W75259  17.049  31.160   3.505 -0.0497 -0.0112  0.0816
32207W        W75260   3.010  30.439  15.626  0.3091 -0.0945 -0.1480
32208W        W75261   1.030  21.472   2.315  0.1201 -0.2499 -0.0140
32209W        W75262  11.663   3.868  14.896  0.1556  0.1214  0.2132
32210W        W75263  18.660  34.675  21.190  0.1315 -0.0415 -0.4350
32211W        W75264   3.917  26.581   3.972 -0.1681  0.0695  0.0943
32212W        W75265   5.184   6.320  19.265  0.1141  0.0862 -0.0455
32213W        W75266  17.209   7.092  26.300  0.0195 -0.0398  0.1097
32214W        W75267  13.956  26.644  14.626 -0.1149 -0.0997  0.0077
32215W        W75268  30.819  28.664  19.327  0.0000 -0.1855 -0.2809
32216W        W75269  28.689  19.548   1.033 -0.0326  0.0807 -0.1772
32217W        W75270   3.309  24.087  15.721  0.0410 -0.1213  0.4300
32218W        W75271   2.066  23.902  13.729 -0.2071 -0.0351  0.0757
32219W        W75272  32.619  26.928  18.361 -0.3500  0.1651 -0.2727
32220W        W75273  33.739  13.110  27.424 -0.1182 -0.0379 -0.0280
32221W        W75274  10.330   3.864  16.402 -0.2334  0.0010  0.0698
32222W        W75275   7.046   1.997  24.858 -0.1478 -0.2421 -0.1669
32223W        W75276  15.304  19.435  15.344 -0.0651 -0.0496 -0.1330
32224W        W75277  26.777  21.240  17.423 -0.1651 -0.0162 -0.1914
32225W        W75278  17.664  33.007  27.764 -0.1475  0.1387 -0.0608
32226W        W75279  16.784  32.424  28.103 -0.2586 -0.2901  0.1165
32227W        W75280   5.128  28.349  26.273  0.0142  0.3424  0.0186
32228W        W75281  11.724   2.118  26.399 -0.3283 -0.0506  0.0529
32229W        W75282  33.993  14.020  28.403 -0.0949 -0.3150  0.3035
32230W        W75283   2.168   5.130  27.859  0.1074  0.0827 -0.0671
32231W        W75284   5.864  28.993  14.983  0.0793  0.1456  0.0515
32232W        W75285   4.098  11.942  20.669 -0.0986  0.1328 -0.3453
32233W        W75286  32.938   4.020  28.861 -0.1986  0.2254 -0.0056
32234W        W75287  12.890   4.937  14.797  0.2398  0.1289 -0.2080
32235W        W75288   6.299   7.776  29.028 -0.0021  0.0093  0.0125
32236W        W75289  13.761  23.980  14.269  0.3891  0.1699  0.1095
32237W        W75290  30.984  16.727  21.021 -0.0853  0.0303 -0.1002
32238W        W75291  22.431   4.141   1.050 -0.1914  0.4115  0.3002
32239W        W75292   9.162  11.807  22.131  0.2081  0.1426  0.0503
32240W        W75293  13.172  27.027  16.512  0.1221  0.0328  0.0428
32241W        W75294   4.192   5.927  23.934 -0.1043  0.0832  0.0835
32242W        W75295   8.984  13.549  21.105  0.4309 -0.0208  0.1867
32243W        W75296  33.138  33.008  20.212  0.0225 -0.1125 -0.0373
32244W        W75297   9.576  28.416  17.855  0.2899  0.1560 -0.0009
32245W        W75298   8.090  26.629  14.328 -0.1509  0.1401 -0.0704
32246W        W75299   7.305  13.304  14.694  0.0362 -0.1602  0.2904
32247W        W75300   6.481  29.343   2.591 -0.1053 -0.2281  0.0738
32248W        W75301  15.415  28.786  21.397 -0.2914 -0.0441  0.2942
32249W        W75302  10.804   0.983  13.905  0.0816 -0.2563  0.0724
32250W        W75303   0.856  26.546   5.727  0.1964  0.1491  0.0262
32251W        W75304  19.235  31.245  23.162 -0.5115  0.1978 -0.0577
32252W        W75305   3.062  21.428   7.463 -0.1027  0.1540 -0.0106
32253W        W75306  33.702  16.071  19.742  0.0154  0.2969 -0.0032
32254W        W75307   8.769  24.244   2.354  0.1662  0.0989 -0.0041
32255W        W75308  13.237  31.423  18.011 -0.1660 -0.0724  0.0786
32256W        W75309   8.146  22.328  17.655  0.2514  0.0085  0.2174
32257W        W75310  11.534  27.093  21.627 -0.3238 -0.1097  0.1455
32258W        W75311  24.417   8.960  16.293  0.0550  0.1438  0.0178
32259W        W75312   9.283  33.601  27.782 -0.0783 -0.5741  0.2702
32260W        W75313   2.046  19.492  19.513  0.1167 -0.1937  0.2633
32261W        W75314   6.341   9.276  18.834  0.0688 -0.0655 -0.0134
32262W        W75315  14.315  24.346  22.865  0.2280 -0.1425 -0.0001
32263W        W75316  13.139  17.577  20.808  0.0324  0.1334  0.2305
32264W        W75317   7.796  22.244  20.237  0.1168 -0.1948 -0.1821
32265W        W75318   3.665  14.063   1.637 -0.2249  0.0192 -0.0030
32266W        W75319   8.377  28.183  27.776  0.1217 -0.1065  0.1723
32267W        W75320  14.374  23.193  18.687 -0.2097 -0.0328 -0.3833
32268W        W75321   7.353  32.325  21.425  0.0834  0.1062 -0.1242
32269W        W75322  34.642  17.769  14.260  0.1021 -0.2029 -0.0084
32270W        W75323   4.845  19.917  14.149  0.3483  0.1494  0.2216
32271W        W75324  12.836   4.922  14.153 -0.0665 -0.1184  0.0930
32272W        W75325  28.482   5.334  14.297  0.0592  0.0006 -0.0499
32273W        W75326   7.204  29.961  21.465 -0.0325  0.0584 -0.2180
32274W        W75327   9.932  34.126  18.129 -0.1812 -0.1488  0.3755
32275W        W75328   2.396   5.718  23.343 -0.1352  0.1201 -0.1411
32276W        W75329  15.633   5.760  24.376  0.0501 -0.2520  0.0883
32277W        W75330  30.008  17.070  26.320  0.0024 -0.2392  0.1103
32278W        W75331  30.419  34.683   1.556 -0.1472 -0.3542  0.0159
32279W        W75332  10.294  15.834  26.494 -0.0740 -0.1079 -0.0742
32280W        W75333   8.310  23.159   0.778 -0.0628 -0.2615  0.1313
32281W        W75334  29.393   6.465  24.993 -0.0608  0.1463 -0.1656
32282W        W75335   7.955  26.156   3.831  0.1428 -0.3794  0.0967
32283W        W75336  12.214  31.335  16.360  0.0511 -0.1538  0.0084
32284W        W75337  33.013  24.357  27.633  0.0014  0.3293 -0.0251
32285W        W75338   3.930  19.025  19.798  0.2282  0.1850  0.0460
32286W        W75339  27.713  23.370  21.889 -0.0172  0.3031 -0.0656
32287W        W75340   7.592  19.943  20.938 -0.4364 -0.0148 -0.0841
32288W        W75341   7.778   1.139  15.322  0.2043 -0.0356 -0.1752
32289W        W75342  13.624  16.416  14.872 -0.0358  0.0897 -0.1171
32290W        W75343  23.224  19.699  15.379  0.1574  0.0083  0.1283
32291W        W75344  33.922   5.625  16.431  0.0261  0.2318 -0.0129
32292W        W75345  28.251   0.874   3.694  0.0183 -0.2790 -0.1095
32293W        W75346   5.845  19.990  18.821 -0.0393 -0.0265  0.0234
32294W        W75347   4.549  25.382  13.593 -0.0668  0.0572  0.1535
32295W        W75348  12.143  24.902  22.115 -0.2429 -0.0074  0.0102
32296W        W75349  34.041  18.849  14.041  0.0428 -0.2252 -0.0481
32297W        W75350  11.256  17.299  25.732  0.0598  0.2240  0.1270
32298W        W75351   0.671  20.635  23.608 -0.2459  0.0047  0.2967
32299W        W75352  12.047  29.009  13.613  0.1573 -0.0626  0.5847
32300W        W75353  15.220  21.474  21.255 -0.1988 -0.4178 -0.1848
32301W        W75354   7.564  14.213  24.339  0.0237  0.1077  0.3499
32302W        W75355  10.189  28.866  15.179  0.0071 -0.0566 -0.0016
32303W        W75356   6.057  23.184  28.522 -0.0206  0.2476 -0.2079
32304W        W75357   7.997  25.123  19.057  0.0555 -0.1752  0.3239
32305W        W75358  13.882   8.417  17.048  0.2278 -0.2051  0.2846
32306W        W75359  17.539  33.071  20.622 -0.2065  0.0449  0.0089
32307W        W75360   6.238  30.316  23.362 -0.0104  0.1239 -0.2391
32308W        W75361   4.687  27.114  26.997 -0.2730 -0.0634  0.0987
32309W        W75362   5.336  22.866  15.750 -0.1886  0.0010 -0.2477
32310W        W75363   1.368  28.750   2.859  0.2822  0.1509 -0.2169
32311W        W75364   2.471  23.875  14.142  0.0080  0.3554 -0.2200
32312W        W75365   3.139  18.242  17.793 -0.0590  0.1012 -0.0312
32313W        W75366   2.305  27.919  15.783 -0.0959  0.4532 -0.0780
32314W        W75367   1.905  24.519  24.352 -0.1496 -0.0442 -0.1060
32315W        W75368  31.909  31.386  22.421 -0.2211 -0.1831  0.0666
32316W        W75369  15.633  32.985  21.411 -0.0429 -0.1540  0.0653
32317W        W75370   6.034  26.926  17.920  0.1715 -0.0633  0.1254
32318W        W75371   4.420  15.258  15.430 -0.0397  0.2471 -0.2780
32319W        W75372   2.545  24.505  26.285  0.1874 -0.2560 -0.2246
32320W        W75373   8.619   4.546  14.919  0.2192  0.1271 -0.3593
32321W        W75374  32.917   2.865  27.079  0.1366 -0.1403  0.0157
32322W        W75375   9.544  24.951  21.360  0.1561  0.1958  0.1701
32323W        W75376   6.801  30.207  23.439 -0.0471  0.0858 -0.4473
32324W        W75377  21.328  15.608  16.958 -0.2236 -0.4480  0.0238
32325W        W75378  29.058  25.067   6.807 -0.0848  0.0685  0.2195
32326W        W75379  27.784  33.047  19.193  0.0816  0.1584  0.0196
32327W        W75380  13.348   1.724   1.389  0.1175 -0.0130 -0.1174
32328W        W75381  11.792  25.176  18.385 -0.0455 -0.0988  0.2004
32329W        W75382  13.731   2.102  14.966  0.0223 -0.2361  0.0581
32330W        W75383  26.511  33.269  19.916  0.1514 -0.0017 -0.4332
32331W        W75384  17.328   6.758   7.872  0.0557 -0.1867  0.2011
32332W        W75385  32.337  23.802  15.897 -0.2483  0.1651  0.1489
32333W        W75386   7.985  20.912  16.316 -0.0023  0.0258  0.0445
32334W        W75387   3.088  23.965  22.679 -0.3287 -0.1393 -0.1068
32335W        W75388   3.622  26.302  14.964  0.0106 -0.1871 -0.2048
32336W        W75389  13.908  33.327  24.222  0.0682 -0.1323  0.0905
32337W        W75390  31.435  30.698  20.787 -0.0677  0.0156  0.0895
32338W        W75391   6.620  24.086  23.988 -0.1121  0.2100  0.0875
32339W        W75392  14.485  28.412  15.980 -0.0437 -0.1291 -0.0500
32340W        W75393   5.615  23.548  23.544 -0.0554 -0.0992 -0.2770
32341W        W75394   8.361   0.998  27.348  0.2023 -0.4482  0.3451
32342W        W75395  10.040  32.337  17.785 -0.1483 -0.1248 -0.0172
32343W        W75396   7.981  25.250  20.935  0.1120 -0.1814 -0.0381
32344W        W75397  19.346  25.571  20.087 -0.2215  0.0400  0.0257
32345W        W75398   1.623  12.348  26.651  0.0837 -0.0769 -0.0051
32346W        W75399  29.019  23.490  22.146  0.0474  0.1568  0.0902
32347W        W75400  33.429  21.806  27.542  0.1199 -0.0038 -0.1486
32348W        W75401   1.530  28.906  17.021 -0.0108  0.1333  0.0173
32349W        W75402   0.389  27.788   6.543  0.2062  0.3552  0.0026
32350W        W75403  22.310   0.298   0.739  0.0180  0.1849  0.3314
32351W        W75404   0.723  25.019  13.164 -0.2107 -0.0542  0.0821
32352W        W75405   9.212   2.431   0.287  0.0154  0.0556 -0.2376
32353W        W75406   8.386  25.932  15.128 -0.0685 -0.1362  0.4223
32354W        W75407   1.768  21.830  18.393  0.2669 -0.1516  0.0148
32355W        W75408   6.939   2.214   6.872  0.2247 -0.0267 -0.0482
32356W        W75409   5.670  26.113  25.029 -0.0842  0.1792  0.2133
32357W        W75410   8.435   9.109  20.197 -0.0362  0.1322 -0.0588
32358W        W75411  26.993   7.979   5.826 -0.1339  0.4064  0.1207
32359W        W75412   0.129   6.999  23.044 -0.3101 -0.2243  0.1762
32360W        W75413  26.866   0.582  21.836 -0.3156  0.0261 -0.2930
32361W        W75414   5.365  24.063   9.002 -0.0671 -0.3780 -0.2043
32362W        W75415   6.738   9.795   4.890  0.1094  0.3260 -0.0379
32363W        W75416   8.763   3.444   5.074 -0.0218 -0.0001  0.0441
32364W        W75417  28.498  24.157  14.300  0.0489  0.2088 -0.0870
32365W        W75418   8.038  31.032   3.265 -0.0845  0.4750 -0.1243
32366W        W75419   7.271   3.971   6.688  0.1486  0.2269 -0.1681
32367W        W75420  11.869  15.692  15.480  0.0830  0.0649  0.0188
32368W        W75421  32.218   2.700  21.707  0.0302  0.0625  0.3615
32369W        W75422  32.561  20.492  21.016 -0.0472  0.3176  0.0740
32370W        W75423  31.432  21.333  23.523 -0.1421 -0.1541 -0.4387
32371W        W75424  20.700   2.012  15.468  0.0470  0.1907 -0.0963
32372W        W75425   5.391   4.903  18.640 -0.0110  0.2661 -0.1958
32373W        W75426  33.364   6.120  25.845 -0.0597 -0.2887 -0.1817
32374W        W75427  15.695   5.739  23.082  0.1873 -0.2541 -0.0733
32375W        W75428   2.617   2.821  22.053  0.0388 -0.1311  0.1140
32376W        W75429   5.958  13.995  23.798 -0.2123  0.0067  0.0140
32377W        W75430   9.074  20.606   2.880 -0.2948 -0.2043  0.1229
32378W        W75431  29.341   7.529  20.250  0.2215  0.1174 -0.0713
32379W        W75432   8.796  26.644  16.721 -0.3866 -0.0140 -0.3207
32380W        W75433   4.753   4.463  21.080 -0.1828 -0.1881 -0.3316
32381W        W75434  30.396  26.079  19.043 -0.1552  0.2716  0.1224
32382W        W75435  15.625  26.417   2.301 -0.0389 -0.2986 -0.0246
32383W        W75436  23.333   6.032  15.064  0.0613 -0.4932  0.1758
32384W        W75437  12.094  28.123  21.655  0.2046 -0.1251 -0.2700
32385W        W75438  11.259  26.402  16.740 -0.1392  0.0858 -0.0039
32386W        W75439  28.472  24.260  25.081  0.0481  0.0228 -0.1768
32387W        W75440   1.537  18.818  13.555  0.1963 -0.1773 -0.3648
32388W        W75441  14.168  29.956  25.596  0.1408  0.2012 -0.1927
32389W        W75442   3.492  27.960  24.525 -0.1076 -0.0524  0.0116
32390W        W75443   0.035  23.663  21.064 -0.3378  0.0430  0.2657
32391W        W75444  30.857   5.561  19.531 -0.0288  0.1585  0.2096
32392W        W75445  32.145  29.165  16.459 -0.0152  0.2093  0.0443
32393W        W75446  24.168  34.250  18.023 -0.1658  0.2468  0.4606
32394W        W75447  30.105  26.449  19.228  0.1215  0.1152 -0.0304
32395W        W75448   7.630  23.951  21.229 -0.0216  0.0200 -0.1053
32396W        W75449  26.882   3.007  24.449 -0.1636  0.1933  0.2921
32397W        W75450  33.665  28.955  25.726 -0.0362 -0.1587  0.1288
32398W        W75451   4.229  32.210  21.612  0.1181  0.1773  0.2977
32399W        W75452   4.138  10.013  15.370  0.0017  0.2635  0.0126
32400W        W75453   7.560   7.364   7.273  0.0117 -0.0213  0.1404
32401W        W75454   1.538  32.499  21.728 -0.2096 -0.1705  0.5445
32402W        W75455  16.660  20.307  24.761  0.2206 -0.1634  0.0106
32403W        W75456  24.654   0.716  18.509 -0.2543 -0.2583 -0.0920
32404W        W75457  13.278  31.989  21.240  0.0907  0.2219 -0.1869
32405W        W75458   5.238  29.823  21.721  0.0665  0.0272  0.4229
32406W        W75459   8.949   9.208   2.658  0.2381  0.0281 -0.2571
32407W        W75460   6.273   2.630  21.732  0.1883 -0.0442 -0.2876
32408W        W75461  20.895   2.538  15.446  0.0703  0.1743 -0.1148
32409W        W75462  12.551  25.848  21.228  0.2008 -0.1579 -0.2854
32410W        W75463  23.064  20.226  18.041 -0.1676 -0.1715  0.2083
32411W        W75464   9.783  12.026  15.985  0.3539  0.1535 -0.0419
32412W        W75465   0.232  26.694  19.460  0.0203  0.1299  0.0629
32413W        W75466  28.540  26.057  22.091 -0.0536  0.1410 -0.1676
32414W        W75467  13.718   2.904  17.678  0.1978 -0.2374  0.0585
32415W        W75468  12.376  10.297  18.786  0.0473  0.0548  0.3610
32416W        W75469   5.377  22.941   2.069  0.2217 -0.2300  0.1089
32417W        W75470  24.617  34.305   7.587  0.1193  0.0900  0.0871
32418W        W75471  11.411  15.396  15.626  0.2067  0.0764 -0.3916
32419W        W75472  14.174  33.582   2.589 -0.1537 -0.0117 -0.1439
32420W        W75473   7.791  24.912  15.231  0.0047  0.2023 -0.0188
32421W        W75474  33.106  30.575  15.429  0.2742  0.3483  0.2057
32422W        W75475  19.462  23.230  23.307 -0.3326 -0.2137 -0.2595
32423W        W75476   6.974  29.672  17.489  0.1399 -0.2166  0.1452
32424W        W75477  21.764  25.325  15.738 -0.1230  0.1263  0.0702
32425W        W75478  12.652   2.257  17.950  0.0811  0.2281  0.1536
32426W        W75479  34.391  29.553  18.576 -0.0070 -0.1135  0.0237
32427W        W75480   7.598  30.347  19.926  0.1970 -0.1714  0.0367
32428W        W75481  17.636  34.041  19.503 -0.2278 -0.3049  0.4983
32429W        W75482   6.277  30.645  13.505 -0.0102  0.0136 -0.3278
32430W        W75483  26.234  26.056  27.477  0.2955 -0.2777  0.1866
32431W        W75484   7.981  25.977  16.260 -0.0693 -0.2402 -0.1275
32432W        W75485  30.167  19.487  15.506  0.1055  0.2524  0.0321
32433W        W75486  30.603  22.712  23.874  0.1242 -0.3210 -0.4108
32434W        W75487  26.173  30.454  21.705 -0.0698  0.1966 -0.1072
32435W        W75488  10.628  21.277  23.271 -0.0276  0.1025 -0.1111
32436W        W75489  24.709   2.920  22.981 -0.0363  0.0229  0.0984
32437W        W75490   1.893  23.251  15.956  0.2156 -0.0666  0.0742
32438W        W75491   8.257  29.092  26.726 -0.1893 -0.1010 -0.0758
32439W        W75492   8.294  28.230  15.706  0.3154  0.1460 -0.1455
32440W        W75493   7.535  34.459  21.399 -0.1332  0.1667 -0.0601
32441W        W75494   0.086  24.208  16.000  0.0484 -0.0977  0.1409
32442W        W75495  10.357   4.661  21.393 -0.0843  0.1347 -0.1312
32443W        W75496  33.928  22.865  18.557 -0.0847 -0.1382  0.0743
32444W        W75497   9.453   7.367   5.885 -0.1922  0.3199 -0.2159
32445W        W75498  12.272  27.564  17.314 -0.0250 -0.0527 -0.1093
32446W        W75499   2.947  28.519  19.453 -0.0859 -0.0766  0.0026
32447W        W75500  31.118  25.242  14.266  0.1663  0.1041  0.0548
32448W        W75501   8.625   9.277  17.783 -0.1220  0.0994 -0.0415
32449W        W75502   5.314  22.279  24.661 -0.0050  0.2740  0.0483
32450W        W75503  11.683  26.787  22.406 -0.0391  0.3733 -0.1765
32451W        W75504  33.736  11.787  27.556  0.4524  0.1283  0.2098
32452W        W75505   6.355  30.974   0.630 -0.1996  0.0121  0.3530
32453W        W75506  21.784  20.864  16.574  0.1624  0.0001 -0.0212
32454W        W75507  33.407  19.264  27.038  0.0545  0.1488 -0.1491
32455W        W75508  10.176   2.764  20.075  0.0557  0.4041 -0.1949
32456W        W75509  25.219  25.801  15.560 -0.0756 -0.0786 -0.1579
32457W        W75510   2.808  12.001  18.165  0.0685  0.1544  0.0093
32458W        W75511  32.829  34.398   8.361  0.3017 -0.4506  0.2231
32459W        W75512  29.255  22.399  14.401 -0.0221 -0.2410  0.0961
32460W        W75513  22.838  33.079  17.799  0.0583 -0.2263 -0.0221
32461W        W75514  33.080  28.014  27.092  0.1729 -0.1189  0.0121
32462W        W75515   1.907  10.580  27.489  0.4189 -0.0126  0.0513
32463W        W75516  25.451  29.905   5.183  0.0295  0.2294  0.3592
32464W        W75517  27.118  26.453   0.597  0.1667 -0.0000 -0.1596
32465W        W75518   5.768   7.695  26.040  0.0092  0.0009  0.0177
32466W        W75519  33.038  17.920   1.934  0.0329  0.0278 -0.1116
32467W        W75520   1.503   1.320   4.896 -0.0879  0.2349 -0.1338
32468W        W75521  18.823   3.534  17.536 -0.1307 -0.1030  0.1112
32469W        W75522  12.307  31.896  24.752 -0.0031  0.1158 -0.1510
32470W        W75523   8.801   9.675   2.536  0.3620  0.0041  0.2693
32471W        W75524   4.989   3.704  24.526  0.0505 -0.0216  0.2560
32472W        W75525  32.786  10.432  14.791  0.0374 -0.0808 -0.2411
32473W        W75526  15.897  34.233  29.183 -0.0884 -0.0725 -0.2153
32474W        W75527   5.655  24.160  22.233 -0.0657  0.0344 -0.1532
32475W        W75528  33.546  12.404  15.330 -0.2858  0.1411  0.1653
32476W        W75529  10.755  18.911  20.601 -0.1424  0.0577 -0.0682
32477W        W75530  12.987   3.939  15.373 -0.2248  0.1366 -0.1556
32478W        W75531   9.688  29.176  15.082 -0.2752 -0.2673  0.1565
32479W        W75532   7.216  30.548  22.418 -0.3226  0.0087 -0.1613
32480W        W75533   3.549  18.792   4.931 -0.1598 -0.0062 -0.2169
32481W        W75534   9.665  14.019   0.120  0.0830 -0.0413  0.1140
32482W        W75535  28.619  30.184   3.589  0.1143 -0.0375  0.1526
32483W        W75536  13.808  18.711  18.427  0.0701 -0.1491 -0.0966
32484W        W75537  14.919  21.796  25.566 -0.0978  0.1843  0.1317
32485W        W75538  33.768  19.656  19.538 -0.0183 -0.2929 -0.0061
32486W        W75539   9.838  27.997  19.340  0.3952 -0.0856  0.0046
32487W        W75540   0.812   5.083  24.777  0.1331  0.3665 -0.0324
32488W        W75541   0.432   1.263  18.527 -0.1858  0.1453  0.0511
32489W        W75542  13.255  32.123  19.086  0.0794  0.2530  0.0882
32490W        W75543   3.950  27.908  15.774 -0.2978  0.3752  0.2663
32491W        W75544   1.573   0.597  14.700 -0.0803  0.3133 -0.3608
32492W        W75545   0.810  18.397  26.305  0.0982  0.1991 -0.0355
32493W        W75546   3.233  25.165   7.010  0.0278 -0.3115 -0.0108
32494W        W75547   7.443   8.929   0.177  0.0686 -0.0456  0.3285
32495W        W75548  13.831  32.027  15.954 -0.0996 -0.2035  0.0725
32496W        W75549  13.839  25.482  22.270  0.1867  0.0383  0.0893
32497W        W75550  14.443   0.554  19.096 -0.1176  0.3246  0.0376
32498W        W75551  20.010  15.088   1.027  0.2315  0.0208  0.0831
32499W        W75552  30.781  14.595  24.386  0.0948  0.2189 -0.6186
32500W        W75553  22.091  30.818  14.630  0.1409 -0.1636 -0.1495
32501W        W75554   3.879  21.679  20.202 -0.2731  0.0176 -0.1378
32502W        W75555  33.450  30.192  24.539 -0.0650 -0.0687 -0.0898
32503W        W75556   8.194   4.318  27.286 -0.1461 -0.1473 -0.0487
32504W        W75557   9.975  20.879   0.549 -0.1801  0.2258  0.0156
32505W        W75558  33.996  33.480  27.335 -0.1999 -0.1145 -0.0023
32506W        W75559  27.730  23.667   7.210  0.2090  0.1328 -0.1128
32507W        W75560  17.395  21.937  24.108  0.0178  0.1107  0.1676
32508W        W75561  11.900  33.233  21.252  0.1265  0.0573 -0.3292
32509W        W75562  21.161  25.000  26.530 -0.2744 -0.1896 -0.1711
32510W        W75563  25.219  12.677  16.448  0.0650 -0.2920 -0.1302
32511W        W75564  13.118  34.238  19.794  0.1194 -0.1375 -0.0722
32512W        W75565  21.806   5.143  28.434 -0.0707  0.1351 -0.0141
32513W        W75566   8.172  31.015  23.640 -0.1158 -0.0437  0.0989
32514W        W75567   1.550  24.556  24.745 -0.0117 -0.0049 -0.0234
32515W        W75568   4.176  22.806  21.830 -0.2459 -0.0119 -0.0486
32516W        W75569   0.743  30.276   2.892  0.1481  0.1354 -0.1389
32517W        W75570  30.593  27.273   4.364 -0.0452 -0.1985  0.1578
32518W        W75571   2.941   9.185  23.732  0.1497 -0.0631  0.0976
32519W        W75572   8.904   9.326   8.231  0.0924  0.3087 -0.2530
32520W        W75573   4.382  18.600  16.509  0.6058  0.1178 -0.1825
32521W        W75574   3.813   6.730  25.165 -0.0641 -0.1418  0.0315
32522W        W75575  20.696   7.416  20.221 -0.0089  0.3350  0.1945
32523W        W75576  16.807   1.453  18.368  0.1444  0.1297 -0.1864
32524W        W75577   7.161  27.249   4.050  0.3846 -0.1076  0.0283
32525W        W75578  33.375  34.395   3.916 -0.3229  0.1774  0.1466
32526W        W75579  34.484  24.754  28.892 -0.0705 -0.1171 -0.1432
32527W        W75580   8.422  24.362   5.467 -0.1153  0.1140 -0.0670
32528W        W75581  16.906  28.149   1.589  0.0038 -0.0146  0.2491
32529W        W75582  28.102   0.883  25.939 -0.0846 -0.1132  0.2233
32530W        W75583   6.611  19.625  14.205  0.2863 -0.0904  0.0400
32531W        W75584  10.295  32.006  16.830 -0.4930  0.1789  0.1240
32532W        W75585  17.774  28.663  26.869  0.2834 -0.3696 -0.1196
32533W        W75586  33.246   8.326   0.371 -0.1711  0.1942  0.0086
32534W        W75587   1.622  31.989  14.101  0.1773 -0.1514 -0.0084
32535W        W75588  10.688  29.458  19.305  0.1127 -0.1040 -0.1044
32536W        W75589  16.616  25.711  17.339 -0.1371 -0.0548 -0.1563
32537W        W75590  34.131   0.591  27.470 -0.0194 -0.0248  0.2983
32538W        W75591  13.966  30.818  18.478 -0.0314 -0.3796 -0.1535
32539W        W75592  18.221  23.846  18.922 -0.2609  0.0450 -0.0670
32540W        W75593   5.382  19.211   2.260 -0.1227  0.0726  0.0925
32541W        W75594   4.226  34.230   0.020  0.0035 -0.3467 -0.3145
32542W        W75595  32.575  26.495  17.539  0.0429  0.0834 -0.0315
32543W        W75596  31.780  23.252   9.245 -0.1701 -0.1928  0.0564
32544W        W75597   6.439   7.312  26.464  0.0923 -0.0492 -0.4041
32545W        W75598  19.926  13.474  14.666 -0.4562 -0.3815 -0.1595
32546W        W75599   3.416   3.163   5.205 -0.5660 -0.2229  0.2730
32547W        W75600  15.914  31.158  19.822  0.1516 -0.1682 -0.0627
32548W        W75601   9.371   4.363  22.749 -0.0466 -0.1674  0.1474
32549W        W75602  13.139  10.067  11.015  0.1232 -0.6170  0.1922
32550W        W75603   0.274  27.428  21.059  0.2611  0.0315 -0.1237
32551W        W75604  18.823  30.718  14.870 -0.1480 -0.1501  0.2097
32552W        W75605   3.676   3.236   2.228 -0.2367  0.0485 -0.1174
32553W        W75606   1.797  20.437  22.600 -0.2639  0.2668 -0.0722
32554W        W75607  21.369  34.108  17.403 -0.3066 -0.0399  0.2341
32555W        W75608   7.980  29.030   0.881  0.0061 -0.2320 -0.0466
32556W        W75609  11.129  22.746  22.838  0.1130  0.2984  0.1917
32557W        W75610   0.485  21.280   3.106  0.1384 -0.0045  0.0235
32558W        W75611   2.656  32.070  15.600 -0.0099  0.1513  0.1959
32559W        W75612   8.014  21.862  28.375 -0.1137  0.1310 -0.2741
32560W        W75613   4.165  11.738  25.082 -0.0340 -0.0994  0.1115
32561W        W75614   4.852   5.472  19.415  0.0270 -0.0549 -0.0387
32562W        W75615   7.126  26.333   7.836 -0.1281 -0.3921  0.3232
32563W        W75616  27.805  27.918  18.840  0.2069  0.2257 -0.0195
32564W        W75617  13.274  16.021   1.127 -0.0739 -0.0749 -0.0649
32565W        W75618   2.023  15.095  22.308 -0.1651  0.1784 -0.4033
32566W        W75619  12.967   4.507  25.090  0.0008 -0.2898 -0.0810
32567W        W75620  30.374  32.743  24.381  0.1270  0.0465 -0.1338
32568W        W75621   3.040   7.724  23.737 -0.0960  0.2676 -0.0101
32569W        W75622  22.372  16.408  14.345  0.2446  0.3231  0.3581
32570W        W75623   9.057  22.160  18.111 -0.3094 -0.0977 -0.1138
32571W        W75624  16.838  31.874  19.397 -0.0921  0.0581 -0.2264
32572W        W75625  17.623  21.517  26.539  0.2044  0.2849 -0.1011
32573W        W75626  32.140  24.219  14.710  0.1825  0.2303 -0.0349
32574W        W75627  17.363  34.436   8.955 -0.1312  0.2561 -0.3753
32575W        W75628   5.423  30.281   1.509  0.1650 -0.1003 -0.2383
32576W        W75629  34.356  16.686  23.600 -0.1828  0.1529 -0.4701
32577W        W75630  11.792  29.179  13.117  0.0847  0.2785 -0.1374
32578W        W75631   4.991  20.626  27.046 -0.0286 -0.2998  0.1047
32579W        W75632  17.068  14.210   9.258 -0.0992 -0.4017  0.1170
32580W        W75633   2.778   0.983  18.799  0.0301 -0.0288  0.0523
32581W        W75634  13.718  32.936   5.620  0.2650  0.1530 -0.2149
32582W        W75635   1.483   5.612  23.526 -0.0743 -0.1986  0.0901
32583W        W75636   9.480  22.290  19.854 -0.1684 -0.0863 -0.2265
32584W        W75637   5.510  21.689  25.558 -0.0895 -0.0419 -0.1596
32585W        W75638   3.083  16.332  24.156 -0.0302  0.1093 -0.2072
32586W        W75639  34.324  27.593   0.924  0.0559 -0.1532  0.0560
32587W        W75640  19.957  28.728  19.914  0.1143 -0.4617  0.0086
32588W        W75641  15.958   8.435  27.605  0.1650 -0.0650 -0.4221
32589W        W75642  21.833   4.713   3.111  0.0998 -0.4376  0.2600
32590W        W75643  10.980  11.927  17.281  0.1777  0.1724 -0.0058
32591W        W75644   6.867  10.339  25.443 -0.0647  0.1494  0.1018
32592W        W75645  13.629   3.546  24.480  0.1340 -0.0799 -0.0265
32593W        W75646   4.043  14.113  25.317 -0.0140  0.2285  0.1687
32594W        W75647   7.696  30.164  14.678 -0.1380  0.0155 -0.0398
32595W        W75648  25.030  17.695  21.055  0.0649 -0.0632 -0.1033
32596W        W75649  34.070   4.707  13.985 -0.0185  0.0835 -0.1332
32597W        W75650   0.762  25.033   3.427 -0.0391 -0.0196 -0.2593
32598W        W75651  32.646  12.634   0.108 -0.1304 -0.2809  0.0954
32599W        W75652   8.489  30.962  24.410  0.2443  0.2468  0.1263
32600W        W75653  15.152  12.953  19.429 -0.1493 -0.0886 -0.2118
32601W        W75654  32.436  21.561  28.281  0.2147  0.1516 -0.2767
32602W        W75655   1.395  20.212  28.177 -0.0365 -0.2094 -0.0432
32603W        W75656   6.205  30.853  15.766 -0.0022 -0.0627  0.1007
32604W        W75657   1.780   3.704  16.642 -0.0794 -0.1004  0.1675
32605W        W75658  19.138   4.276  19.336 -0.0127  0.0759  0.3236
32606W        W75659   6.139  13.822  17.223  0.1164 -0.0406  0.1802
32607W        W75660  12.496  20.596   3.844 -0.0728 -0.3887 -0.0184
32608W        W75661   5.027  28.757  14.000  0.1228 -0.0005 -0.0770
32609W        W75662  19.091  20.416  14.002  0.1680  0.1211 -0.1207
32610W        W75663  16.225  23.296   1.147 -0.0414  0.0229 -0.2468
32611W        W75664   2.369   8.589   7.657 -0.1136  0.0485 -0.0186
32612W        W75665  28.797  28.528  22.103  0.1943 -0.1087  0.0020
32613W        W75666  12.168  20.543   7.264 -0.2197 -0.2680  0.6235
32614W        W75667  11.366  32.888  21.840  0.0362  0.1850 -0.0429
32615W        W75668   7.350   8.602  15.419  0.0502 -0.2220 -0.2196
32616W        W75669   1.384  17.465   1.330  0.0573  0.0483  0.0971
32617W        W75670  24.443  31.556  27.330 -0.3030  0.1062 -0.1294
32618W        W75671  28.330  17.996  28.878 -0.1652 -0.1754  0.0004
32619W        W75672  18.595   0.671  27.356 -0.1234  0.1999  0.3122
32620W        W75673  29.555   9.291  22.543 -0.1628 -0.2289  0.0418
32621W        W75674   9.618  22.819  20.003 -0.3649 -0.1840  0.1749
32622W        W75675   4.633  19.850  15.002  0.0748 -0.1121  0.0552
32623W        W75676   7.022  29.940  17.043 -0.1040  0.2649  0.0903
32624W        W75677  13.320   6.611  23.516 -0.0377  0.0665  0.2114
32625W        W75678  25.097  23.062   1.324  0.5132 -0.0298 -0.1951
32626W        W75679  16.061   5.730  15.166  0.1222 -0.0374  0.0383
32627W        W75680   2.659  31.241  22.224 -0.0920 -0.1121  0.3727
32628W        W75681  14.322  22.040  15.472 -0.2169  0.4052  0.1725
32629W        W75682  17.973   7.012  19.929 -0.1041 -0.0702 -0.2007
32630W        W75683   4.650  16.283   5.016 -0.0077 -0.1373  0.2275
32631W        W75684   2.791   0.108  14.395 -0.1118 -0.0713 -0.1261
32632W        W75685  15.619  14.197  26.796  0.1354 -0.2452  0.0443
32633W        W75686  12.033   2.849  18.499 -0.1512 -0.0977  0.0375
32634W        W75687   6.487  30.662  21.223 -0.4736 -0.2627  0.0258
32635W        W75688   8.810  32.864  25.254 -0.3779 -0.0312 -0.2433
32636W        W75689   2.926  19.328  25.476 -0.0153 -0.2876 -0.0852
32637W        W75690  11.504  22.387  27.570 -0.2101  0.0504  0.1231
32638W        W75691   9.491  27.162   3.120 -0.4218 -0.0193 -0.1060
32639W        W75692  11.715  23.289   0.559 -0.0621  0.2830 -0.2188
32640W        W75693  28.855  15.383  21.216 -0.1420  0.0698 -0.1684
32641W        W75694  24.697  20.143  20.162 -0.2088 -0.1460  0.1169
32642W        W75695  26.033  25.818  25.031  0.1990 -0.0616 -0.0704
32643W        W75696  12.664  32.771  21.011 -0.2657  0.0513 -0.3301
32644W        W75697   3.653  16.405  18.171 -0.0436 -0.3222 -0.0493
32645W        W75698  30.894  21.055  18.440 -0.1010 -0.2984  0.1888
32646W        W75699  25.536  29.609  13.749 -0.0498  0.0647  0.0816
32647W        W75700   4.884  30.625  22.543  0.2469 -0.1809 -0.0073
32648W        W75701  14.117   1.681   2.818 -0.1483 -0.2518  0.0624
32649W        W75702  32.629  17.058  20.063  0.0659  0.0105 -0.2359
32650W        W75703  15.269  22.588  28.576 -0.0064  0.0524 -0.0704
32651W        W75704   2.571  32.010   8.293 -0.3185  0.3736 -0.3341
32652W        W75705  33.996  12.314  27.251 -0.3321  0.0695 -0.0464
32653W        W75706  28.124  10.693  19.399 -0.1436  0.1849 -0.3189
32654W        W75707  30.076  21.830  19.459 -0.0876  0.0719  0.2216
32655W        W75708   7.248  21.282  15.129 -0.1179 -0.0765  0.0162
32656W        W75709   2.711  32.462   4.287  0.1802  0.2772 -0.0295
32657W        W75710   4.546  16.973   4.585 -0.1095 -0.1270  0.1925
32658W        W75711   2.555  20.045  21.748 -0.0437 -0.1749  0.1104
32659W        W75712   4.218   9.351  16.701 -0.1920  0.1137 -0.0300
32660W        W75713   2.493  31.632  20.538  0.0387 -0.1883  0.0454
32661W        W75714   5.995  29.822  21.803 -0.0423 -0.0490 -0.0386
32662W        W75715   1.167  24.796  12.979 -0.0753  0.2177 -0.0935
32663W        W75716   0.318   5.405  26.549 -0.0645 -0.0900  0.0194
32664W        W75717   9.825   6.027   1.120 -0.0899  0.0184 -0.0096
32665W        W75718   2.218  23.618  28.514 -0.0221 -0.0791 -0.0288
32666W        W75719  29.695  25.861  20.715 -0.2439 -0.0613 -0.3793
32667W        W75720   6.701  14.492  15.612 -0.3668 -0.2786 -0.5154
32668W        W75721  31.343  24.675   0.269  0.1366  0.1413  0.0658
32669W        W75722  19.446  25.073  17.798 -0.3598 -0.2104  0.1524
32670W        W75723   2.666  30.448  27.544  0.1909 -0.0029 -0.2219
32671W        W75724   8.353  26.090  15.763 -0.2318 -0.2815 -0.3659
32672W        W75725  14.766  32.185  18.147  0.1296  0.0030 -0.0085
32673W        W75726  23.407  33.764   0.174  0.1073 -0.2414  0.0227
32674W        W75727  33.290  16.973   0.786 -0.3779 -0.6585  0.0778
32675W        W75728  12.729  19.976   7.605 -0.1453 -0.2401  0.0096
32676W        W75729  18.628  20.336   7.071 -0.0982 -0.1762 -0.0460
32677W        W75730  34.404  19.097  27.262 -0.1558 -0.3049 -0.2536
32678W        W75731   2.820   0.631  17.933 -0.3500  0.2125 -0.0849
32679W        W75732   5.797  20.892   0.665 -0.1906 -0.0576  0.4522
32680W        W75733   2.253  20.171  24.083  0.1621 -0.0801 -0.1048
32681W        W75734  17.603  33.357   9.733 -0.0483 -0.0462 -0.0025
32682W        W75735  34.625  19.578  21.167 -0.2301  0.2089 -0.1465
32683W        W75736  31.937   6.739  18.741 -0.4057  0.2573 -0.2637
32684W        W75737  16.507  14.820  26.706  0.0321 -0.0740 -0.2759
32685W        W75738   5.557   3.030   7.824 -0.1956 -0.3152  0.0738
32686W        W75739  34.339   3.821   4.024 -0.0565  0.0596 -0.0426
32687W        W75740  30.538   0.484  26.954  0.0544  0.0743  0.2949
32688W        W75741   7.316  27.184  23.676  0.0670  0.2436 -0.1662
32689W        W75742   9.298   0.237   4.838  0.1295  0.0262 -0.0587
32690W        W75743  21.515  15.515  26.112  0.1560  0.1968  0.0062
32691W        W75744  14.879   1.556  19.933 -0.1841  0.1260  0.2756
32692W        W75745   7.547  12.255  26.485  0.0309  0.4011  0.2439
32693W        W75746  13.134  18.010  14.176  0.0085 -0.2670  0.0497
32694W        W75747   7.323  33.332  15.057  0.3731  0.3755 -0.1996
32695W        W75748  30.602  24.814   5.325  0.0285  0.0543  0.1858
32696W        W75749  17.096  29.485  19.128  0.1988 -0.0860  0.0215
32697W        W75750   8.293  32.193  19.724 -0.0490 -0.1422 -0.3065
32698W        W75751  31.691  13.365  15.594 -0.1391  0.1360 -0.1947
32699W        W75752  31.209  27.950  27.929  0.0157  0.1376 -0.1543
32700W        W75753  17.913   9.435  22.842 -0.1767  0.0984 -0.1401
32701W        W75754  28.887  25.964  14.948  0.3206  0.0307  0.1903
32702W        W75755  20.096  24.686  15.672  0.0039 -0.1398  0.1680
32703W        W75756   7.238  15.242  15.929 -0.3121  0.4075  0.0281
32704W        W75757   8.025   5.870  20.333  0.2259 -0.0404 -0.2921
32705W        W75758  29.326   0.023  24.609  0.3207 -0.1110 -0.0079
32706W        W75759   0.901  26.043  20.755 -0.1471 -0.1074 -0.0346
32707W        W75760  18.247  18.738   1.340 -0.3384 -0.1067 -0.2732
32708W        W75761   1.262  26.473  27.139  0.1588  0.0940 -0.0534
32709W        W75762   2.096  26.862   8.269  0.0675  0.1833  0.1822
32710W        W75763  29.920  30.962  16.763  0.2089  0.3588  0.0945
32711W        W75764   6.221  28.744  18.911 -0.1836  0.0033  0.0737
32712W        W75765   6.368   2.899   4.056 -0.3599  0.2401 -0.5354
32713W        W75766  28.843  27.094  17.874 -0.1084  0.1842  0.1733
32714W        W75767  25.989  23.107  17.325  0.1338 -0.6134 -0.0073
32715W        W75768  12.178   7.425  26.019  0.3072 -0.1101 -0.2337
32716W        W75769  25.053  19.536  21.731 -0.0014 -0.1349  0.2609
32717W        W75770  23.984  20.163   8.237 -0.0615 -0.1643  0.1845
32718W        W75771  26.015  30.565  25.900  0.3645  0.1894  0.0090
32719W        W75772  32.226  26.352  22.930  0.0725  0.3988  0.0400
32720W        W75773  23.913  21.361  23.809 -0.1662  0.0709  0.2683
32721W        W75774   6.216   4.500   5.628 -0.2177  0.2491  0.1744
32722W        W75775  10.010  24.165  23.374 -0.2658 -0.1068  0.2440
32723W        W75776   8.367  27.761  13.484 -0.0433  0.1148  0.0932
32724W        W75777   8.205  24.464  17.494  0.1076 -0.0632 -0.1949
32725W        W75778  22.970  15.408   4.477 -0.1458 -0.1271 -0.1858
32726W        W75779  24.353  14.965  19.170 -0.1770 -0.0868  0.0545
32727W        W75780  27.081  34.481  23.516 -0.1946 -0.1027  0.0051
32728W        W75781  21.511  25.088  18.240 -0.2653  0.1439 -0.0081
32729W        W75782   7.782  17.463  20.419 -0.2892  0.2390 -0.1623
32730W        W75783   7.775  10.164  16.264 -0.0875  0.1186  0.0409
32731W        W75784  28.443  25.579  25.200  0.1230  0.1522  0.0373
32732W        W75785   2.067  27.523  20.266  0.1659  0.0041 -0.0054
32733W        W75786  31.998  31.478  16.075 -0.1780  0.3079 -0.0959
32734W        W75787  33.598  33.509  15.215 -0.1384  0.0293 -0.1119
32735W        W75788   9.216  31.274   6.542 -0.1828 -0.0525  0.0557
32736W        W75789   0.900  31.964  16.969  0.0384 -0.0419  0.2311
32737W        W75790  21.169  17.443  14.050 -0.0710  0.2799  0.0197
32738W        W75791   3.486  31.366   1.282  0.3441  0.0530 -0.1873
32739W        W75792  34.153   5.226   8.344  0.1650 -0.0555  0.0210
32740W        W75793  33.194  28.268   8.807 -0.2409 -0.1781 -0.1930
32741W        W75794  30.491  34.454  17.483  0.2003  0.0306 -0.0276
32742W        W75795  33.402  22.127  20.482  0.2467  0.0335  0.1197
32743W        W75796  26.479  13.922   0.517 -0.0886  0.0073 -0.1673
32744W        W75797  14.674  21.567  16.827 -0.2798  0.1116 -0.3431
32745W        W75798   8.264  22.773  21.914  0.0956  0.1047  0.0859
32746W        W75799   3.666  25.753   0.654  0.0332 -0.2880  0.0562
32747W        W75800  15.654  17.917  12.712 -0.1784 -0.0067 -0.2067
32748W        W75801  30.193  14.391   8.135 -0.0261  0.2801 -0.0431
32749W        W75802   4.201   1.634  28.122  0.2967 -0.1899  0.0324
32750W        W75803  28.527  24.595  27.766  0.1995  0.1094  0.1525
32751W        W75804   0.411  27.781  23.766  0.0181  0.0164  0.0796
32752W        W75805   2.060  19.293  14.108  0.1833 -0.0719 -0.3159
32753W        W75806  14.489   3.105  18.644 -0.3229  0.3006 -0.0701
32754W        W75807  20.419  23.225   3.368  0.0545  0.0327 -0.0392
32755W        W75808   2.134  15.783   8.731  0.3963 -0.0763  0.3362
32756W        W75809   7.898  16.236   8.180 -0.1970  0.0890 -0.1165
32757W        W75810   4.745  30.691  19.609 -0.1333  0.0565 -0.0971
32758W        W75811  21.978  23.669  14.663 -0.1425  0.0785 -0.1080
32759W        W75812  26.239  21.287  24.037  0.0159  0.2802  0.2188
32760W        W75813   6.757  32.558   1.961 -0.1518 -0.0763  0.0084
32761W        W75814   2.224  31.478  21.424 -0.5175  0.1011 -0.2749
32762W        W75815  14.669  20.493  19.616 -0.0093  0.2170  0.0149
32763W        W75816   8.579  15.003  14.391 -0.2392 -0.3875 -0.0030
32764W        W75817  26.814  17.394  24.452  0.2218  0.0722  0.1989
32765W        W75818   6.145  28.061  23.639  0.0345 -0.1727  0.1289
32766W        W75819  19.964   4.538   3.403  0.1506  0.1364 -0.1308
32767W        W75820  30.049   9.033  23.928  0.0359 -0.0056 -0.2199
32768W        W75821   3.644  28.507  24.429 -0.2105  0.0798  0.2534
32769W        W75822   4.470  13.813  14.253  0.3139 -0.0912 -0.0700
32770W        W75823   7.319   4.872  27.845  0.1112 -0.1776  0.1509
32771W        W75824   6.179   8.768  10.460 -0.0020 -0.0724 -0.0226
32772W        W75825  25.270  31.897  17.866  0.3486 -0.1170  0.2278
32773W        W75826  20.459  25.771   5.611  0.0756 -0.3046  0.1069
32774W        W75827   4.824  17.168   3.691 -0.0382  0.2919  0.0675
32775W        W75828   9.840  26.344  13.637  0.0395  0.0194 -0.1463
32776W        W75829   0.359  19.432  14.783  0.1284  0.0790 -0.0647
32777W        W75830  19.230  17.899  24.199  0.1110  0.1918  0.0086
32778W        W75831   5.643  16.823   6.011 -0.0593  0.3878  0.1959
32779W        W75832  23.531  27.609  17.224 -0.0763 -0.0500 -0.1051
32780W        W75833  33.710  15.003  27.880 -0.1807  0.0336  0.0494
32781W        W75834   6.145   7.822  14.804 -0.0042 -0.3310 -0.1194
32782W        W75835   3.554  26.662  19.208  0.0567 -0.1378 -0.0850
32783W        W75836   4.619   0.232  13.981 -0.2414  0.1360 -0.1748
32784W        W75837  11.375   5.453  16.313  0.2346  0.0793 -0.1940
32785W        W75838   4.975  22.304  27.570 -0.0046  0.0710 -0.2419
32786W        W75839   4.012  20.874  15.049  0.0861  0.0410 -0.1778
32787W        W75840   0.489  13.518   6.490 -0.0781 -0.1599 -0.0587
32788W        W75841   4.009  27.829   8.371  0.1626 -0.1362  0.0011
32789W        W75842   5.874  21.637  26.709 -0.1896  0.0933  0.3118
32790W        W75843   8.163  31.171  24.101 -0.2251  0.2625  0.3370
32791W        W75844  17.081  18.138  27.460  0.2581  0.1337 -0.1295
32792W        W75845   3.745   4.181  22.570  0.2130 -0.1087 -0.0919
32793W        W75846   8.257   0.026   9.451 -0.2054 -0.1626  0.1680
32794W        W75847  13.847  27.155  22.795 -0.0127 -0.1819 -0.4570
32795W        W75848   8.094   2.626  26.461 -0.2078 -0.0518 -0.2861
32796W        W75849  29.278  17.544   1.011 -0.2071 -0.1057 -0.2402
32797W        W75850   5.402  24.874  24.494  0.0560 -0.1447 -0.0564
32798W        W75851   6.648  33.993  19.253  0.1365  0.0883  0.1634
32799W        W75852  18.297   7.376  23.369  0.0642  0.0484  0.2755
32800W        W75853  12.400   2.523  18.357  0.4233  0.0659 -0.0432
32801W        W75854  30.436   2.498  29.087  0.0024  0.1630 -0.2442
32802W        W75855  18.284  14.097  23.893  0.0792 -0.0997  0.2864
32803W        W75856  15.134  31.963  26.838  0.0501  0.2027 -0.0085
32804W        W75857  21.812  29.601  27.044  0.5137 -0.0855 -0.0810
32805W        W75858   0.482  10.585  25.753  0.1100  0.2697  0.1120
32806W        W75859   0.059   9.863  23.805  0.2988  0.1221 -0.3577
32807W        W75860   7.324  28.842  22.730 -0.2174  0.2911 -0.0682
32808W        W75861   6.190   1.363   3.537 -0.3172 -0.0456  0.0362
32809W        W75862   1.484  21.541  27.587 -0.1418  0.1775 -0.0351
32810W        W75863   5.751  30.948   3.587  0.1867  0.1635 -0.0340
32811W        W75864   9.724  33.966  20.913 -0.0515  0.0954 -0.1275
32812W        W75865   2.548   0.757   1.669 -0.1908 -0.2423  0.0001
32813W        W75866   5.155   4.066   8.593 -0.1978  0.2625  0.1739
32814W        W75867   1.131   1.712   2.479  0.0577 -0.1431  0.1313
32815W        W75868  10.857  29.341  27.897  0.3956 -0.1637  0.3582
32816W        W75869  10.828  19.637  22.674  0.2685  0.0077 -0.0796
32817W        W75870  12.081  34.102   2.511 -0.1578 -0.3666 -0.0535
32818W        W75871  17.661   1.654  28.478  0.2956 -0.3038  0.2109
32819W        W75872  13.543  26.241  18.217  0.2297 -0.1460 -0.0321
32820W        W75873  20.713   9.294  22.244  0.2437  0.0039 -0.0064
32821W        W75874  34.051   6.461  26.208  0.2508 -0.0116 -0.1177
32822W        W75875  11.321  13.735  25.071 -0.3946 -0.0258 -0.1460
32823W        W75876  10.012  19.081  25.831  0.0418 -0.1749  0.0945
32824W        W75877   7.827   2.605  23.994  0.1049  0.1686  0.0237
32825W        W75878   1.387   5.224   4.407 -0.0336 -0.1716  0.0409
32826W        W75879  23.128  34.267  27.332  0.0410  0.2038  0.3043
32827W        W75880   0.967  12.491  17.028 -0.0801  0.2704  0.0200
32828W        W75881  15.362  21.440   8.910  0.1475  0.1411 -0.2430
32829W        W75882  18.809  24.884  16.285  0.1271 -0.3814 -0.0498
32830W        W75883   8.098  19.777  25.629 -0.0151  0.1421  0.1905
32831W        W75884  34.036  29.283  23.206  0.1297 -0.5887 -0.0656
32832W        W75885   2.323  16.485  25.864  0.0912 -0.0186  0.2206
32833W        W75886   6.994  26.643  14.862 -0.0174  0.1729  0.1805
32834W        W75887  27.587  21.353  29.062 -0.0339 -0.0090  0.1427
32835W        W75888  11.290  26.519  25.489  0.0191  0.2208 -0.2049
32836W        W75889   4.129  33.139   0.682 -0.1224  0.0423  0.0369
32837W        W75890   0.834  10.698  17.341  0.3312 -0.1291 -0.1281
32838W        W75891   0.206   3.475  14.475  0.2497  0.0670  0.2019
32839W        W75892  11.442  15.841  17.106  0.1274  0.2290  0.0669
32840W        W75893  14.776   2.501  27.940  0.1122 -0.1144  0.0891
32841W        W75894   3.292  32.350  18.337  0.0761 -0.1304  0.0016
32842W        W75895  24.213  27.638  23.998  0.1616  0.1488 -0.0822
32843W        W75896   2.889  22.610  23.071  0.2193  0.0853 -0.0371
32844W        W75897   0.630  24.212  22.248  0.1585  0.0377 -0.4152
32845W        W75898  30.703  24.662  24.166  0.1631 -0.1635 -0.2884
32846W        W75899  23.058  19.886   1.720 -0.0020  0.3037  0.1216
32847W        W75900  15.353  21.523   6.692  0.0712  0.0086  0.0155
32848W        W75901   6.692  17.012   3.113 -0.1377 -0.1262  0.1807
32849W        W75902   1.958  32.716  24.593 -0.1171  0.1171 -0.2359
32850W        W75903   4.787  22.505  23.790  0.0349  0.0761  0.0346
32851W        W75904  10.259   1.146  22.865  0.0214  0.0496 -0.0679
32852W        W75905  10.996  30.413  23.962 -0.2260 -0.1007 -0.0591
32853W        W75906  14.909  20.516  25.442 -0.2303  0.2331 -0.0038
32854W        W75907   2.158   1.165  25.653  0.0967  0.2294  0.0050
32855W        W75908  13.443  22.526  14.836 -0.0365  0.2474  0.3110
32856W        W75909   4.396  13.832   0.436  0.3656 -0.0654 -0.0271
32857W        W75910  10.162  10.509   8.168 -0.0837 -0.1102  0.0686
32858W        W75911  26.545  32.422  28.453  0.1616 -0.1077  0.3550
32859W        W75912   7.245  31.172   1.461 -0.0087  0.1966 -0.2808
32860W        W75913  27.117  19.227  14.938 -0.0188 -0.1709 -0.2091
32861W        W75914  33.362   0.127   7.314 -0.3125  0.3059  0.3082
32862W        W75915   8.484   5.003  19.582 -0.1900 -0.1106 -0.0973
32863W        W75916  12.221  32.977  29.114 -0.0837  0.0830  0.0186
32864W        W75917   1.236  30.341  27.251 -0.2992  0.1523  0.1376
32865W        W75918  32.973  33.567  21.049 -0.3705  0.1829 -0.1807
32866W        W75919   1.739  22.523  17.681  0.2530  0.0754 -0.0693
32867W        W75920  31.977  27.820  28.092  0.2420  0.2748  0.2902
32868W        W75921  14.363  31.287   1.003 -0.1411 -0.0287  0.0354
32869W        W75922  22.936  31.481  25.366 -0.2239 -0.0938 -0.2245
32870W        W75923   5.255  28.298  23.204 -0.1796  0.2365  0.2691
32871W        W75924  27.074   4.695   1.588 -0.1851  0.0156  0.0799
32872W        W75925   2.895  32.304  26.865 -0.0130  0.0605 -0.5269
32873W        W75926   9.208   0.983  21.277 -0.1916  0.0539  0.0906
32874W        W75927   0.747  33.517  13.484  0.1478  0.0086 -0.0684
32875W        W75928   8.110  24.295  22.579 -0.1273  0.0020  0.3034
32876W        W75929  33.360   7.107  17.203  0.1248 -0.2529  0.0558
32877W        W75930   5.643   8.321   2.096  0.2205 -0.0933  0.2373
32878W        W75931   0.941  25.176   0.548 -0.2370 -0.0566  0.0616
32879W        W75932  12.606  27.610  22.658  0.0597  0.1647 -0.2174
32880W        W75933  16.358  16.711   8.264  0.2549 -0.1026  0.1284
32881W        W75934  30.030   1.677  15.682 -0.0249  0.1613 -0.2237
32882W        W75935  23.256   2.950  14.394 -0.0629 -0.0671  0.1362
32883W        W75936  17.511   7.167  26.693 -0.0211 -0.1326 -0.2271
32884W        W75937   5.433  18.498   1.259  0.0587  0.2193 -0.0296
32885W        W75938  32.632  18.366  21.909  0.1369 -0.0102  0.0654
32886W        W75939  28.605  19.927  14.356 -0.2018  0.1761 -0.1961
32887W        W75940  25.579  30.277  19.590  0.2820  0.1875  0.2700
32888W        W75941  18.014  21.633   1.044 -0.2722  0.1342  0.1420
32889W        W75942  31.144   2.936   1.241  0.0107 -0.0690 -0.2941
32890W        W75943  13.525   0.649   1.739 -0.1244  0.1440 -0.2017
32891W        W75944   1.211   6.253  14.778  0.0992  0.0953 -0.1246
32892W        W75945   3.447   8.517  17.447  0.1464 -0.0594 -0.3275
32893W        W75946  16.511   0.534  27.862  0.2638  0.2390  0.0481
32894W        W75947   7.655  31.190  20.140  0.0234 -0.1595 -0.3299
32895W        W75948   0.093  19.830   3.137  0.1019 -0.4787 -0.1134
32896W        W75949   2.332  34.459   5.746  0.0309 -0.1800  0.0748
32897W        W75950  18.981   2.354   5.110 -0.0328  0.1837 -0.2341
32898W        W75951  28.092   0.726   6.448  0.1847 -0.1682 -0.0227
32899W        W75952   1.187  18.275   8.035  0.0401 -0.2103 -0.0121
32900W        W75953  21.967  22.538  18.794 -0.0105 -0.0678  0.0243
32901W        W75954   2.332  33.540  27.030  0.0272  0.0969 -0.0163
32902W        W75955   3.845   5.705   1.329 -0.3828 -0.2459  0.0355
32903W        W75956  27.820  14.218   7.856  0.0117 -0.0949  0.2076
32904W        W75957  19.803  27.011  18.957 -0.2700  0.0672 -0.2035
32905W        W75958  12.939  34.057  22.880  0.2526  0.0116  0.0638
32906W        W75959   6.954  25.753  22.588  0.1044 -0.0897 -0.2056
32907W        W75960   4.231  27.364  24.220 -0.2464 -0.0983  0.1452
32908W        W75961   5.430  32.296  22.519  0.0514 -0.1119  0.0016
32909W        W75962  34.462  32.063   0.502  0.0738 -0.2111  0.0989
32910W        W75963  20.583  29.063   8.521  0.3092  0.0947  0.0678
32911W        W75964   6.664  33.303  24.583  0.1527 -0.1248 -0.0520
32912W        W75965   6.020  20.952  23.249  0.0603  0.2715  0.0510
32913W        W75966   1.343  25.965   7.720 -0.0925  0.2813  0.0027
32914W        W75967  17.385  31.023  18.320  0.1811  0.0955  0.3274
32915W        W75968  19.940  30.194  24.543  0.0568 -0.0771 -0.1308
32916W        W75969   2.533  10.345   6.286  0.1841  0.0691 -0.1090
32917W        W75970  32.283  11.760  17.514 -0.1871 -0.0702  0.0985
32918W        W75971   3.591  11.139   8.977 -0.0707  0.0132  0.0342
32919W        W75972  10.245  30.276   7.065  0.1795 -0.0267  0.1975
32920W        W75973   6.985  33.744  22.708  0.0542 -0.1038  0.3048
32921W        W75974   3.834  16.754  18.961  0.1097  0.0858  0.1281
32922W        W75975   5.401  25.560   8.920  0.0579 -0.2632  0.1163
32923W        W75976  22.042  13.725  15.568  0.0276  0.2139 -0.3603
32924W        W75977   7.722  11.105   7.309  0.1990  0.2161 -0.2042
32925W        W75978   2.934  22.747  17.302 -0.0213 -0.1497 -0.2347
32926W        W75979  17.391  30.493   5.843 -0.0525 -0.0005  0.2426
32927W        W75980  31.585   3.625   0.043  0.2535 -0.1726 -0.0723
32928W        W75981  12.906  25.631  18.561  0.2240 -0.0038 -0.1863
32929W        W75982  33.695  25.474  17.284 -0.1639 -0.2143 -0.0549
32930W        W75983   5.784  17.670   8.317 -0.2902  0.1328  0.0868
32931W        W75984   6.356  15.300  20.864  0.0942  0.1466 -0.2763
32932W        W75985  32.026  34.658  28.613 -0.2905 -0.3900  0.0283
32933W        W75986  11.899  21.754  14.459 -0.0135 -0.1271 -0.1818
32934W        W75987  34.601  15.767  22.202 -0.0845  0.1334 -0.0815
32935W        W75988  26.728   3.010  16.067 -0.1785  0.3353  0.2313
32936W        W75989   7.836   9.775   6.136 -0.4144  0.3244  0.2344
32937W        W75990  29.939  28.819  26.461  0.2282  0.1160  0.1553
32938W        W75991  12.956   2.366  28.862 -0.0213  0.2467 -0.1549
32939W        W75992  25.812  26.693  24.837  0.1654  0.0062  0.0542
32940W        W75993   6.578  21.732  25.232 -0.2266  0.0676  0.1490
32941W        W75994   0.966  18.651  15.327 -0.2101 -0.0145  0.2951
32942W        W75995  12.322  32.602  26.799  0.1961 -0.0550 -0.0829
32943W        W75996  14.172   6.933   3.610 -0.0571  0.1025  0.0754
32944W        W75997  10.175  30.149   8.289 -0.1494  0.2107 -0.0773
32945W        W75998   5.262  13.239  28.094 -0.1638  0.5243  0.1801
32946W        W75999   2.373  30.073  26.362 -0.0850  0.2979 -0.0025
32947W        W76000   3.974  27.756  24.615 -0.3524 -0.0678 -0.0217
32948W        W76001  12.107   7.051  22.686  0.2357  0.0479 -0.0530
32949W        W76002  33.903  17.606  20.598  0.0674  0.1483  0.0388
32950W        W76003  29.430  31.930   8.252 -0.2848  0.1903  0.1243
32951W        W76004  18.954  27.038  26.586 -0.0179  0.1514  0.0379
32952W        W76005   6.415  32.854  24.826  0.1604 -0.2478 -0.1333
32953W        W76006   3.919  22.332  24.966  0.1302  0.2054 -0.0979
32954W        W76007  15.794  19.526   8.354 -0.0127 -0.1577 -0.0257
32955W        W76008  11.055  17.663   9.032  0.2251 -0.0590 -0.2456
32956W        W76009  27.383  31.726   2.038 -0.0230  0.0237 -0.1594
32957W        W76010  32.027  19.051  22.568  0.1058 -0.0151  0.2792
32958W        W76011  29.223  26.832  24.276 -0.0784 -0.0263 -0.2746
32959W        W76012  23.645   9.016   2.974 -0.1376  0.2521  0.1922
32960W        W76013  12.206   4.097   3.627 -0.3555 -0.4139  0.0173
32961W        W76014   4.745  26.637   6.419  0.0967 -0.2475  0.1226
32962W        W76015   5.109  15.743  20.072  0.0990  0.1616 -0.0214
32963W        W76016  33.711  23.671  24.260  0.2595  0.0454  0.3121
32964W        W76017  32.660  21.045  13.909  0.1713 -0.1350  0.0846
32965W        W76018  11.818  13.280  29.068  0.0784 -0.1741  0.1129
32966W        W76019   8.584  12.816   4.154 -0.2266 -0.1725 -0.0736
32967W        W76020  32.193   3.630   0.041  0.1211  0.2770 -0.1670
32968W        W76021  11.699  19.672  15.251 -0.4043  0.1574  0.2294
32969W        W76022  18.362  25.889  24.642  0.1239 -0.0997 -0.0482
32970W        W76023   3.086  23.653   4.495 -0.2662  0.2640  0.0619
32971W        W76024  28.706  34.069  15.934  0.2667  0.1257 -0.0113
32972W        W76025   6.067   6.385  26.377 -0.0979 -0.0484 -0.1930
32973W        W76026   9.172  31.616  19.270  0.2077 -0.0160 -0.3078
32974W        W76027  11.394  30.380   4.100  0.1167  0.1866  0.0279
32975W        W76028   8.270   7.838  15.040  0.2037 -0.3171  0.3953
32976W        W76029  28.084  19.946  23.457  0.0156 -0.0758  0.4634
32977W        W76030   3.623  29.765  23.617  0.1711 -0.0696  0.1268
32978W        W76031   8.542   3.464  28.653 -0.0197  0.1438  0.1726
32979W        W76032  32.797   4.040   0.177  0.2128 -0.0941 -0.0846
32980W        W76033   7.231  24.976   3.523 -0.3314  0.2707 -0.2631
32981W        W76034  20.234  31.492   6.126  0.2529 -0.0592  0.2325
32982W        W76035  14.591  23.830  16.065 -0.2645 -0.0552 -0.0607
32983W        W76036   4.258   6.407  27.611  0.2349  0.1429  0.2065
32984W        W76037  11.996  33.514  28.789  0.0924  0.4660 -0.0331
32985W        W76038  22.635  30.147  26.823  0.1397 -0.1331 -0.0065
32986W        W76039  11.015  25.135   6.070 -0.2363 -0.0618 -0.1790
32987W        W76040   5.374  20.816  25.481  0.2865  0.2104  0.1263
32988W        W76041   0.659  23.387  26.446 -0.0470 -0.1472 -0.1155
32989W        W76042  20.529  25.764   0.905  0.0116 -0.0909  0.0982
32990W        W76043  34.469  26.187  15.067  0.3161  0.0275 -0.0778
32991W        W76044  25.071  21.335  15.955  0.0771  0.1663 -0.1424
32992W        W76045  31.781  20.578   3.496  0.0157  0.0387  0.3366
32993W        W76046  24.694  30.517  28.559  0.1295 -0.1068 -0.0879
32994W        W76047   3.057  24.142  28.453 -0.1057  0.0101 -0.1766
32995W        W76048  22.939  13.207  19.395  0.1097  0.4517 -0.0708
32996W        W76049  25.467  28.242  28.592  0.1351  0.0582  0.3374
32997W        W76050   3.312  26.421  18.113 -0.0070  0.1602  0.0990
32998W        W76051  25.714  25.922  16.766  0.3153 -0.0138 -0.2315
32999W        W76052  27.998  23.989  19.887 -0.2427 -0.0419 -0.2503
33000W        W76053   2.525   7.280  27.658 -0.0567  0.0705 -0.0531
33001W        W76054  31.425  30.843  24.749  0.2879  0.0569 -0.0842
33002W        W76055  21.801  23.168  23.683  0.1476  0.1689  0.3523
33003W        W76056  13.968  17.354   5.507  0.0458 -0.3812 -0.2593
33004W        W76057  12.517  24.724  20.376  0.1981 -0.1677  0.0210
33005W        W76058   8.812  12.458   2.878  0.3786 -0.0157  0.0286
33006W        W76059  11.932  23.099  20.430  0.1208 -0.0491  0.2347
33007W        W76060  31.508  14.744   8.247 -0.0824  0.1113 -0.0126
33008W        W76061   0.531  23.012   2.195 -0.3613  0.0472  0.0960
33009W        W76062   2.314  34.385  22.236 -0.3655 -0.1994 -0.1825
33010W        W76063   3.903  30.649   4.517 -0.0205  0.3496  0.0754
33011W        W76064   3.629  25.539  25.287 -0.0220 -0.1733 -0.0217
33012W        W76065  28.523  29.400  25.737 -0.1345  0.3472  0.1720
33013W        W76066  26.026  22.287  28.517  0.2218 -0.0298  0.1851
33014W        W76067  12.981  28.155   0.732  0.2594 -0.1114  0.4147
33015W        W76068  15.820   0.738   3.038  0.0523 -0.0098  0.1776
33016W        W76069  19.798  20.072  20.847 -0.2085 -0.1128 -0.0736
33017W        W76070   2.919  10.959   2.844 -0.0042  0.2235  0.0975
33018W        W76071  31.012  32.123  25.594 -0.0767  0.2201 -0.1385
33019W        W76072  12.196  23.076   9.248  0.3968  0.1612  0.3650
33020W        W76073  28.299  26.886   5.661 -0.0103  0.0842 -0.0324
33021W        W76074  32.987  28.887  14.711  0.1735 -0.4412  0.1186
33022W        W76075  15.582  16.449  14.854  0.3103 -0.1728  0.2601
33023W        W76076   9.469   4.698  26.475 -0.1881 -0.1876 -0.1366
33024W        W76077  24.857  32.595  15.474  0.0873 -0.0339 -0.0453
33025W        W76078  21.518  29.004   4.288 -0.1625 -0.4740 -0.1424
33026W        W76079  19.675  30.384  17.573 -0.4847  0.0789 -0.1181
33027W        W76080   6.074   4.046  16.926 -0.1262  0.4995 -0.1926
33028W        W76081   6.191  19.353   0.794  0.3217 -0.1263 -0.3701
33029W        W76082   5.111  30.701  15.964  0.2868 -0.1281 -0.0046
33030W        W76083  19.917   1.984  24.371 -0.1931  0.0000 -0.0839
33031W        W76084  33.131  33.921   2.626  0.2404  0.1154 -0.0943
33032W        W76085  30.394  28.564  16.167  0.0088  0.2052 -0.1292
33033W        W76086  12.245   8.955  18.329 -0.2091  0.0289  0.2845
33034W        W76087   2.004  27.012  15.739  0.1742  0.0587 -0.3670
33035W        W76088  14.068  18.687  27.991  0.2174 -0.0045  0.0362
33036W        W76089   6.747  26.701  21.528  0.0479  0.2683 -0.1223
33037W        W76090   3.553  24.488  21.617 -0.2765  0.2635  0.2103
33038W        W76091  14.942  25.161  28.557 -0.1419  0.0159  0.5292
33039W        W76092  20.930  19.581   1.177 -0.5350 -0.1116  0.2654
33040W        W76093  25.303  31.697   1.827  0.0907 -0.1155  0.1204
33041W        W76094   5.019   4.490  26.112  0.1077 -0.1777  0.2763
33042W        W76095   1.663  23.688  26.674  0.0065 -0.0961 -0.1582
33043W        W76096   8.448  30.100  16.735 -0.0345  0.4882 -0.1343
33044W        W76097  31.314  25.999  24.453  0.0918 -0.1404 -0.0624
33045W        W76098  29.150  10.586  20.092 -0.1628 -0.2869 -0.0242
33046W        W76099   9.253   4.564  19.670  0.1066 -0.0229 -0.0011
33047W        W76100  18.226  33.277  18.095  0.0557 -0.0726 -0.1115
33048W        W76101   6.081  23.482  16.831  0.1090 -0.1269  0.0986
33049W        W76102  22.006   1.898  29.075  0.0774  0.1469 -0.1723
33050W        W76103   1.963   3.747  26.262 -0.2329  0.4451  0.1722
33051W        W76104   6.297  30.428  28.493 -0.1628 -0.1175  0.0068
33052W        W76105  11.219  31.753   6.370  0.0879  0.0282 -0.1567
33053W        W76106   8.966   0.235   6.671 -0.0435 -0.1652 -0.1631
33054W        W76107  17.571  12.244  15.521 -0.2859 -0.0121  0.3161
33055W        W76108  20.238  21.694  21.985 -0.4061  0.0631  0.1587
33056W        W76109  16.031  29.538   0.894  0.0990  0.3558 -0.2208
33057W        W76110  32.617   5.083  23.206  0.3410  0.0787  0.2696
33058W        W76111   9.321  34.337  20.924 -0.4160 -0.0219 -0.0671
33059W        W76112  15.545  32.376  17.796  0.2865 -0.2116 -0.0113
33060W        W76113  20.826  13.164  18.266  0.3998 -0.3052  0.0984
33061W        W76114   2.180  20.143  24.567  0.1905  0.1409  0.0881
33062W        W76115  27.715  30.066   0.902 -0.0213  0.0488 -0.1556
33063W        W76116  30.890   7.647  10.734 -0.1358  0.1110 -0.0067
33064W        W76117  29.718   7.433  19.245 -0.0888 -0.1275 -0.0430
33065W        W76118  17.030  28.929  21.058 -0.1456  0.1987 -0.0337
33066W        W76119   8.723  29.472  13.205  0.1285 -0.2207  0.0409
33067W        W76120  25.318  29.643  19.094 -0.1188 -0.1477 -0.2363
33068W        W76121  22.087   5.076  20.577  0.3316  0.0646  0.1979
33069W        W76122  24.826  26.287   0.069 -0.0004  0.1704  0.0820
33070W        W76123   2.583  23.361  24.194 -0.0535  0.1609  0.1968
33071W        W76124   5.374   1.074  19.051 -0.2724  0.1460  0.4206
33072W        W76125  11.891  19.036  27.816  0.1818  0.0923 -0.0766
33073W        W76126  10.525  27.930   3.812 -0.0936 -0.0869 -0.1839
33074W        W76127  26.318   6.815  26.580  0.0533 -0.0897  0.3260
33075W        W76128   7.550  28.379  23.890 -0.1493  0.1040  0.1086
33076W        W76129  13.209  13.283  17.264  0.1596 -0.0914  0.0812
33077W        W76130   4.867  11.505   7.924 -0.1492  0.1113  0.0904
33078W        W76131  22.163   3.879  20.212  0.1127 -0.0015  0.2719
33079W        W76132  34.625  24.956  13.965  0.2229  0.1342  0.5078
33080W        W76133  22.367  16.608   4.933  0.0660  0.2938 -0.1376
33081W        W76134  23.858  14.888  22.858  0.0380 -0.2590  0.2639
33082W        W76135  11.864  20.820  22.891 -0.3913  0.1492 -0.0577
33083W        W76136  26.868   4.500   4.617  0.0411  0.0252  0.2699
33084W        W76137   3.885  27.198  19.237  0.0326 -0.0277 -0.2419
33085W        W76138   8.185  31.844  23.097 -0.1398 -0.0717 -0.2243
33086W        W76139  15.944  33.501   0.523 -0.1377  0.0487 -0.1522
33087W        W76140   4.800   4.374  24.549  0.3669  0.3041  0.4494
33088W        W76141   0.179  27.350  28.772  0.0056  0.1302  0.0363
33089W        W76142  23.981  12.458  27.663 -0.0015 -0.0071  0.0968
33090W        W76143  14.857  16.899  25.757 -0.0317  0.1508 -0.3668
33091W        W76144  10.191  18.426  14.699  0.1829  0.0080  0.1800
33092W        W76145  13.973  32.554  19.743  0.0930 -0.0950  0.1265
33093W        W76146  30.231  28.336  15.344  0.0497 -0.1532 -0.3701
33094W        W76147   8.311  30.563  21.572  0.2784  0.2159  0.3014
33095W        W76148  32.110  28.136  22.595 -0.1442  0.2071 -0.2196
33096W        W76149   8.335  29.360   1.097  0.1546  0.1362 -0.1786
33097W        W76150   6.378   6.350  22.683 -0.5566  0.1042  0.1801
33098W        W76151  12.574  15.244  10.146  0.1257 -0.1937 -0.0989
33099W        W76152  12.252   1.719  29.170 -0.1325  0.1113 -0.3435
33100W        W76153  21.970  33.884  21.353 -0.0293 -0.1960 -0.2334
33101W        W76154   6.361  17.903   2.258  0.0466  0.4169 -0.2713
33102W        W76155  23.312   3.623  24.214  0.3495  0.0459 -0.2227
33103W        W76156  24.971  30.454   6.088  0.3265  0.1328  0.2173
33104W        W76157   6.286   3.737  22.884  0.0315 -0.0509 -0.0328
33105W        W76158  11.909  27.018  16.811  0.3260  0.0982 -0.4069
33106W        W76159  11.979  27.825  21.187  0.1809  0.0195 -0.2220
33107W        W76160  28.227  33.085  15.646  0.1364 -0.1289 -0.1219
33108W        W76161   4.141   2.342  21.277 -0.3129 -0.0436 -0.1000
33109W        W76162   8.362  24.400  25.614 -0.0985 -0.0022  0.3349
33110W        W76163  30.448   8.554  27.407 -0.0070 -0.1443  0.0006
33111W        W76164  10.106   7.480  14.268 -0.1471  0.0252  0.0421
33112W        W76165  33.625  26.153  19.234  0.2263 -0.2374 -0.4017
33113W        W76166   9.057  31.766   1.467 -0.1472 -0.3295  0.2795
33114W        W76167  29.526  24.317   6.904  0.1189  0.1421 -0.3506
33115W        W76168  11.310  21.044   7.028 -0.1246  0.0294 -0.0626
33116W        W76169  34.504  29.239  20.431  0.1584 -0.3274 -0.0841
33117W        W76170   6.722   7.272  24.412 -0.5460 -0.1777  0.0465
33118W        W76171   8.203   7.235   7.223  0.1593  0.1437  0.1819
33119W        W76172   1.046  23.522   8.768  0.1505  0.4385  0.0152
33120W        W76173  20.240   0.220   7.915  0.0593  0.1461  0.4829
33121W        W76174   4.065  22.237   6.240  0.0766  0.1325 -0.1440
33122W        W76175   3.381  11.001  19.198  0.3009  0.1507  0.3275
33123W        W76176  19.911  29.440  10.003  0.1295  0.2207  0.0703
33124W        W76177  33.605  19.877   8.165 -0.0160  0.1642  0.1994
33125W        W76178  26.079  19.805   8.492 -0.1426  0.0833  0.0342
33126W        W76179  24.311  28.886   9.462  0.2213  0.2045  0.0825
33127W        W76180  13.485   1.961  14.485 -0.1115 -0.0607  0.0455
33128W        W76181  20.557  29.292  15.706 -0.1377 -0.1413  0.2755
33129W        W76182   6.443  24.720   3.096 -0.2432  0.0909 -0.1581
33130W        W76183  10.530  33.117  26.943  0.2943 -0.0261 -0.0120
33131W        W76184  12.524  25.772   0.523 -0.0241 -0.0375 -0.0249
33132W        W76185   4.099  30.502  27.713  0.1920 -0.1148  0.1730
33133W        W76186   9.708  32.169  25.510  0.0865 -0.0453 -0.1921
33134W        W76187   3.155  26.715  25.124 -0.0167  0.0042 -0.0563
33135W        W76188  31.511  26.156  17.695  0.1085 -0.0972 -0.1087
33136W        W76189  31.827  29.761  27.709  0.0711 -0.0630  0.0950
33137W        W76190  32.666  18.710  26.323 -0.3779 -0.3722  0.1775
33138W        W76191  21.139  28.331   0.473  0.1662 -0.0474 -0.0664
33139W        W76192  11.097  18.844  28.532  0.3262  0.2347 -0.0940
33140W        W76193  12.416  17.048  26.302  0.1935 -0.1148  0.1705
33141W        W76194  30.663  23.129   4.274 -0.1596  0.0569  0.1402
33142W        W76195  15.088   6.038   4.086 -0.1490 -0.4364 -0.1111
33143W        W76196  25.355  15.257  18.867  0.3691 -0.2658  0.0244
33144W        W76197  33.301  19.944  15.976  0.2258 -0.2640 -0.4040
33145W        W76198  11.707   0.750   9.141 -0.0265 -0.0015  0.1581
33146W        W76199  13.832   3.465  22.618  0.2773  0.0231 -0.0289
33147W        W76200  31.333  32.320  17.474  0.0345  0.0692 -0.4974
33148W        W76201   9.837  21.758   0.085  0.0927  0.2988 -0.2203
33149W        W76202   3.627   4.228   2.163 -0.0863  0.2213  0.1324
33150W        W76203  21.251   6.245  28.676 -0.1796 -0.0615  0.0714
33151W        W76204   1.246  24.860  24.247 -0.0740  0.2968 -0.0630
33152W        W76205   3.716  17.138   1.988  0.1471  0.0246 -0.2518
33153W        W76206   5.683   4.152  23.315 -0.0866 -0.1403 -0.0175
33154W        W76207   8.024  23.266  24.719  0.0484  0.0862  0.0613
33155W        W76208  19.982  22.082  26.065 -0.0322 -0.2319  0.0043
33156W        W76209  12.257  32.923   2.007  0.1126  0.2739 -0.2556
33157W        W76210   4.700  25.411   2.679  0.0896  0.2307  0.1761
33158W        W76211  20.956  21.139   4.810  0.0280 -0.2012  0.1289
33159W        W76212   8.291  28.906  20.923  0.3320  0.2405  0.0861
33160W        W76213  28.494  25.940   9.767  0.0686 -0.4055  0.2385
33161W        W76214   9.101  30.264   6.172  0.2692  0.0800 -0.0687
33162W        W76215  13.200  12.747   1.685  0.0546  0.3234  0.0082
33163W        W76216  15.839  22.820  17.956  0.1236  0.0012 -0.0557
33164W        W76217   8.264  29.171   6.281  0.0687 -0.1185  0.0457
33165W        W76218  16.002  11.013   5.741  0.2033  0.2572 -0.3008
33166W        W76219   0.711  30.582   0.512 -0.0014  0.2154  0.0343
33167W        W76220   5.939  15.887   0.436 -0.0823  0.0218 -0.0269
33168W        W76221  20.907  26.095   0.854  0.0665 -0.1133 -0.0820
33169W        W76222  25.580  25.506  24.524 -0.0666  0.2919 -0.3109
33170W        W76223   9.414   9.000   4.372  0.1343  0.3267  0.1313
33171W        W76224   7.364   9.743  25.440  0.1492 -0.1473 -0.1931
33172W        W76225  17.394  23.827   2.076  0.3498  0.1793 -0.2367
33173W        W76226  28.556  15.690   2.745 -0.4899 -0.3288 -0.0952
33174W        W76227  12.691  26.789   4.896  0.0501 -0.0448  0.1452
33175W        W76228   6.426  21.846  15.873 -0.1263 -0.0439  0.0617
33176W        W76229  10.333  20.056  27.529  0.0157 -0.0299  0.0021
33177W        W76230   4.941   6.486  21.378  0.0617 -0.4721  0.2940
33178W        W76231   1.465  24.869  17.259  0.2696 -0.2061 -0.0751
33179W        W76232  26.876   3.184  15.051 -0.1591 -0.2073 -0.1281
33180W        W76233   0.790  13.190   5.824  0.5671  0.1140  0.1737
33181W        W76234   5.777   0.339  24.732  0.4408  0.0489 -0.1693
33182W        W76235  33.667  30.429  25.226  0.0169  0.1382  0.0065
33183W        W76236  21.630  17.616   1.563 -0.0017 -0.0684  0.0919
33184W        W76237  28.110  14.901   2.838  0.0304 -0.0833  0.1084
33185W        W76238  29.263   0.076  19.933 -0.0912  0.1152  0.0418
33186W        W76239  34.458  33.899   4.469 -0.1306  0.1370 -0.0144
33187W        W76240  31.027  21.637   0.524 -0.3564  0.0089  0.2388
33188W        W76241  33.701  19.496  28.282  0.1680  0.1187  0.1468
33189W        W76242   1.168  22.053   6.835  0.1842  0.0899  0.2699
33190W        W76243   4.472  24.015   2.953  0.1029 -0.0357  0.1387
33191W        W76244  12.691  30.018  14.868  0.1591 -0.0780 -0.1627
33192W        W76245   4.289  20.299  16.597 -0.0752  0.3361  0.1667
33193W        W76246   6.825  23.316   8.142  0.0234  0.1436  0.0448
33194W        W76247   0.529  24.339   7.564  0.0026 -0.1000  0.1466
33195W        W76248   1.547  29.083   7.760 -0.0168  0.2294 -0.0925
33196W        W76249  30.076   4.282   1.894 -0.1821  0.0042  0.0234
33197W        W76250   5.150  34.571   0.889 -0.2285  0.1368 -0.1055
33198W        W76251  15.453  16.992  28.264 -0.0929  0.4177  0.0928
33199W        W76252  29.997   2.210  26.184  0.1726  0.0217 -0.0066
33200W        W76253   5.806   1.127  27.656 -0.0408 -0.1154  0.3496
33201W        W76254  14.704  29.592  27.341  0.2041  0.1201 -0.1817
33202W        W76255   8.385   5.981  18.833  0.1080 -0.5300 -0.2957
33203W        W76256  14.623   3.260  28.127  0.0588  0.1475 -0.0890
33204W        W76257   8.057  24.011  25.474 -0.1101  0.1813 -0.0269
33205W        W76258  14.933  12.291   9.743 -0.1178 -0.1397 -0.0825
33206W        W76259   5.503  27.417   1.514 -0.0232  0.0232 -0.4922
33207W        W76260  17.729  21.483  22.305  0.0068 -0.1530 -0.0835
33208W        W76261   4.801  28.512   5.635 -0.0659 -0.0899  0.0722
33209W        W76262  13.666  29.626  25.672 -0.1634 -0.2297 -0.1662
33210W        W76263   2.435  24.872  16.735  0.0384 -0.2498 -0.1630
33211W        W76264  13.208  20.814  16.711  0.0774 -0.5206  0.1236
33212W        W76265   3.169  25.398  27.616  0.0225  0.1221  0.2274
33213W        W76266   4.762  29.635  18.685  0.2336  0.1173  0.0980
33214W        W76267  15.468  23.865  25.923  0.0903  0.0822 -0.0703
33215W        W76268   3.647  30.887  15.823 -0.1103 -0.0414  0.2354
33216W        W76269   6.532   2.547   0.248 -0.1829  0.0763 -0.2189
33217W        W76270  13.537  30.865  14.193 -0.2582  0.2625 -0.1379
33218W        W76271  21.729  13.510  23.430  0.5685  0.1511  0.0020
33219W        W76272  33.127  28.771  19.201 -0.1073  0.0508 -0.0966
33220W        W76273  34.069   0.661   8.350  0.0628  0.3187 -0.2272
33221W        W76274  32.517  30.443  13.674  0.0972  0.0122  0.0614
33222W        W76275  32.492  15.316  23.544  0.2579  0.2573 -0.0276
33223W        W76276   4.674  12.862  17.594  0.0502 -0.0846 -0.3046
33224W        W76277   7.820  33.543  22.839  0.3716  0.0989 -0.1271
33225W        W76278   1.679   0.890  16.896 -0.2647 -0.0926  0.2559
33226W        W76279  32.643   3.048  14.661 -0.0986 -0.0707 -0.3237
33227W        W76280  11.401  28.603  14.770 -0.0724 -0.0223 -0.2364
33228W        W76281   4.478  18.444  17.382 -0.0259  0.0307  0.1205
33229W        W76282   4.903   4.861  18.444  0.1401  0.2084 -0.3478
33230W        W76283   7.772  32.685  21.060 -0.1522  0.3358 -0.0852
33231W        W76284  10.139  28.404  17.902 -0.0832  0.3129 -0.1135
33232W        W76285   1.351  32.768  15.178  0.1279 -0.0329 -0.0424
33233W        W76286   7.113  13.962  22.839 -0.0790 -0.1041  0.0430
33234W        W76287   1.219  29.617  24.881 -0.2507  0.0131 -0.1387
33235W        W76288   7.260  10.034  25.832 -0.2852 -0.1476 -0.1338
33236W        W76289  11.920   3.951  16.224 -0.0917 -0.0314  0.1311
33237W        W76290   7.827   2.375  16.736  0.1864 -0.1394  0.0420
33238W        W76291  14.932  27.471  24.679 -0.0551 -0.0812 -0.1959
33239W        W76292   6.467   1.657   8.514 -0.0621  0.3183 -0.0558
33240W        W76293  23.634  17.311  26.586  0.0978 -0.0679  0.0214
33241W        W76294  11.374   7.285  26.117  0.3378 -0.1322 -0.0607
33242W        W76295   1.308  18.803  24.505  0.3098 -0.1970 -0.0965
33243W        W76296   3.434  21.976  21.515  0.0237  0.0167  0.1483
33244W        W76297  15.873  31.795  19.576  0.0096  0.3197  0.0020
33245W        W76298   4.589  32.517  24.427 -0.0299 -0.1940  0.1596
33246W        W76299  31.953   0.481  20.446  0.1063 -0.3755  0.2293
33247W        W76300  32.031   8.580  21.354  0.1119 -0.1944 -0.0883
33248W        W76301  18.087   0.356  19.655  0.3772  0.2991 -0.0241
33249W        W76302  11.473   2.198  17.691  0.1767  0.0946  0.0582
33250W        W76303  12.409  32.048  22.506 -0.0087 -0.3024  0.0480
33251W        W76304  11.487   6.121  20.674  0.0242  0.0388  0.0820
33252W        W76305  16.177  29.785  18.897 -0.2548  0.1313  0.0808
33253W        W76306  31.844   2.580  25.174 -0.3269 -0.0900  0.1429
33254W        W76307  33.402   7.709   0.369 -0.3712 -0.0260  0.0079
33255W        W76308  11.427   8.777  15.551 -0.0150 -0.0058  0.0431
33256W        W76309  13.285  24.695  16.316 -0.0743  0.1049 -0.1700
33257W        W76310  31.915  23.556  23.703  0.0462  0.0685  0.3008
33258W        W76311   2.166  17.327   4.029 -0.0962 -0.2126 -0.0287
33259W        W76312  31.025  15.350  22.816 -0.0732  0.0709  0.0735
33260W        W76313  10.379  31.713  13.634  0.2141  0.3105 -0.0141
33261W        W76314   4.527  14.396   6.030 -0.0206 -0.3623 -0.1247
33262W        W76315  23.775   1.587  18.692 -0.0235  0.1102  0.1398
33263W        W76316  14.261  27.109  14.255  0.0441 -0.0124 -0.0172
33264W        W76317  25.937   0.829  14.356 -0.1720 -0.1129 -0.0267
33265W        W76318   0.200   4.185  19.426 -0.0596 -0.2415  0.0536
33266W        W76319   6.094  20.776  15.618 -0.0868 -0.0937 -0.0758
33267W        W76320  27.974  32.382  15.978  0.1055  0.0469 -0.1702
33268W        W76321   8.401  11.249  28.920  0.2672  0.0910 -0.0809
33269W        W76322   5.384  22.189  20.586  0.0637  0.1743  0.0858
33270W        W76323   5.867   7.457  15.652 -0.1726  0.2023 -0.0149
33271W        W76324  29.063  11.452  22.355 -0.1290 -0.2556  0.0337
33272W        W76325  10.342   0.405  23.652  0.3053 -0.0983 -0.1506
33273W        W76326  30.719   0.219  25.003  0.0398 -0.1357  0.0253
33274W        W76327   5.215  29.055  14.346 -0.3626 -0.0402 -0.1566
33275W        W76328   9.248   3.803  18.132 -0.0889  0.0904  0.2021
33276W        W76329   7.905  24.018  19.879 -0.2949 -0.1063 -0.0656
33277W        W76330   4.497   1.729  28.593  0.4434  0.4575  0.1952
33278W        W76331   1.061  33.842  17.398  0.2956 -0.1324 -0.1245
33279W        W76332   0.877   9.486  23.738  0.1204  0.2110  0.2379
33280W        W76333  30.670  32.205  16.990  0.0105 -0.0112 -0.0026
33281W        W76334   0.842  34.518  22.315 -0.0938 -0.1511 -0.1516
33282W        W76335   4.517  26.753  16.340 -0.0731  0.0388 -0.0581
33283W        W76336   6.103   4.580  17.059 -0.1353 -0.1345  0.2935
33284W        W76337   9.934   2.919   3.012 -0.2985  0.0032  0.1200
33285W        W76338   5.024   0.011  16.561 -0.0782  0.2666 -0.4046
33286W        W76339  33.709  27.308  19.848 -0.1373  0.0510 -0.1207
33287W        W76340  25.772   3.404  15.434 -0.1663  0.2557  0.2260
33288W        W76341  34.067  18.633  14.547 -0.1311 -0.1666  0.2468
33289W        W76342  34.080  22.861  14.780 -0.2467  0.0281 -0.1512
33290W        W76343   5.228   4.419  24.053  0.0576 -0.1167  0.0808
33291W        W76344   1.069  33.118  18.190  0.1032  0.2494  0.0166
33292W        W76345  12.917  22.868  21.310 -0.0790  0.0330 -0.0293
33293W        W76346  15.061   1.620  14.603 -0.2819 -0.1901 -0.2220
33294W        W76347  30.970  28.101  15.773  0.3034  0.0581 -0.0312
33295W        W76348  34.482   5.966  20.061 -0.4536 -0.0495  0.1580
33296W        W76349   4.287   3.842  16.040 -0.2888 -0.0894  0.0502
33297W        W76350  31.336   0.505  16.956  0.1522  0.1975  0.2354
33298W        W76351   3.552   4.964  17.399 -0.6347 -0.4456  0.0606
33299W        W76352  10.899  31.735  21.363  0.1734 -0.0791  0.0608
33300W        W76353  28.571  34.344  18.834  0.0528  0.0040  0.0569
33301W        W76354   1.695  27.356  15.558 -0.2937  0.0665 -0.0317
33302W        W76355  33.900  30.089  27.152 -0.2155 -0.2131 -0.4017
33303W        W76356   3.311  26.803  18.450  0.0856 -0.0545 -0.0491
33304W        W76357   9.462  26.663  18.640  0.2930  0.3084 -0.0797
33305W        W76358   9.494   0.179  28.919  0.4295 -0.0535 -0.3191
33306W        W76359  22.866  26.483  22.005 -0.0059  0.0474  0.3200
33307W        W76360   4.341  34.189  13.437  0.0305 -0.4710  0.1425
33308W        W76361  28.217  23.447  23.809 -0.2836  0.0125  0.3648
33309W        W76362   8.990  31.127   3.819  0.2302  0.2107  0.0833
33310W        W76363   5.051   6.968  15.203 -0.1918  0.1634 -0.1921
33311W        W76364   0.871  31.844  28.283 -0.0472 -0.2331  0.0694
33312W        W76365  33.744   5.675  28.525  0.1473 -0.0442 -0.5620
33313W        W76366  31.154   4.358  25.574 -0.2872  0.1322 -0.2098
33314W        W76367  30.179  17.334  22.602  0.0795 -0.0063 -0.1250
33315W        W76368  15.027   4.194  16.650 -0.1000  0.0091  0.0956
33316W        W76369  32.280  26.937  21.709  0.2837 -0.0886 -0.3625
33317W        W76370  11.997  33.778  28.276 -0.2284 -0.0514  0.0998
33318W        W76371  24.838  33.881  29.001  0.3240  0.2359  0.1929
33319W        W76372  25.772  15.455  27.331 -0.2140  0.0685 -0.0534
33320W        W76373   8.442   0.793   8.106 -0.1271  0.0355  0.0761
33321W        W76374   5.322  28.822   1.637  0.2978  0.2001  0.0653
33322W        W76375   9.339  25.305  25.201  0.1260 -0.0415  0.3085
33323W        W76376   0.965  19.335  23.310 -0.0210  0.0608 -0.2197
33324W        W76377  23.590   1.604   1.356  0.0483  0.2275 -0.1799
33325W        W76378  11.550  30.075  20.815 -0.2704  0.1028  0.2232
33326W        W76379  10.967  32.672  18.981 -0.2299 -0.0295 -0.2263
33327W        W76380   4.793  16.052  13.567 -0.0056  0.1225  0.0789
33328W        W76381   7.049  19.152  20.314 -0.1755 -0.1572 -0.2490
33329W        W76382  11.411   4.154  18.536  0.1382 -0.3280 -0.0168
33330W        W76383  22.608  27.644  14.148  0.0367  0.2925  0.0731
33331W        W76384   4.291  13.311   4.636  0.1738  0.0409  0.1323
33332W        W76385  28.099  15.268  13.821  0.1013  0.2327  0.1084
33333W        W76386  29.337   8.951  15.235  0.1374 -0.0052 -0.0871
33334W        W76387  31.885  13.605  23.659  0.2132 -0.1566 -0.2406
33335W        W76388  19.676  26.935  16.280  0.0579 -0.2595  0.1137
33336W        W76389  32.983  16.537  16.332 -0.0431  0.0035 -0.0014
33337W        W76390   3.793  12.219   2.788  0.2543 -0.3594  0.0345
33338W        W76391   0.635   1.611   1.024  0.2254  0.2450  0.0899
33339W        W76392   0.847  20.362  25.956 -0.0579  0.4923  0.1566
33340W        W76393  16.656   9.924  17.830  0.0593  0.2193 -0.0768
33341W        W76394  26.004  31.628  18.740 -0.1681  0.0435 -0.0036
33342W        W76395   7.291  29.196  17.984 -0.1327 -0.2313  0.1371
33343W        W76396  13.601   2.827  20.581  0.3321  0.3977 -0.1953
33344W        W76397   7.111  22.240  18.441  0.3084  0.3470  0.1283
33345W        W76398  10.636   3.232  27.093 -0.0912  0.0734 -0.0263
33346W        W76399   9.483  33.815  18.869 -0.0350  0.2050 -0.1558
33347W        W76400   9.807  31.268  21.435  0.0219 -0.1233  0.0250
33348W        W76401  30.917  29.982  25.353  0.1786 -0.1592 -0.0547
33349W        W76402  10.353  24.141   3.638  0.1238 -0.0932  0.0628
33350W        W76403   1.238   3.715  15.276 -0.1116 -0.1513  0.0606
33351W        W76404  11.886  34.681  14.188  0.1060 -0.1597 -0.2444
33352W        W76405  10.914   0.964  23.027 -0.3624 -0.1747 -0.2929
33353W        W76406  18.583   9.337  28.831 -0.2412  0.1385  0.5265
33354W        W76407  23.650  32.468  26.599  0.1091 -0.1235 -0.1748
33355W        W76408   6.302  19.819  21.716 -0.1932 -0.1139  0.2010
33356W        W76409   3.267  17.275  16.083  0.3657  0.1487 -0.1421
33357W        W76410   2.169  32.649  15.035 -0.0132  0.2073 -0.2575
33358W        W76411   2.660  34.214  15.069  0.0237 -0.1774 -0.1745
33359W        W76412  34.502   4.722  18.775 -0.0974 -0.0300 -0.1095
33360W        W76413   3.997  33.609  23.215  0.0208  0.0203  0.4352
33361W        W76414  21.748   1.530  25.046  0.0986 -0.3465  0.0330
33362W        W76415  10.352  23.592  26.124 -0.0303 -0.0389 -0.1502
33363W        W76416   0.170   0.476  14.766  0.0214 -0.1427 -0.0093
33364W        W76417  31.496  27.349  14.451 -0.0990 -0.2807  0.0373
33365W        W76418  22.965  30.328  26.409  0.1013  0.5042  0.1543
33366W        W76419   8.785  24.031  13.648  0.2336 -0.1507  0.0256
33367W        W76420   3.112  26.032  18.944  0.0617 -0.1282 -0.0159
33368W        W76421   7.605  30.340  16.203 -0.3427 -0.1189  0.0298
33369W        W76422   9.519  19.144  26.570  0.3904 -0.0802 -0.2902
33370W        W76423  23.912  28.114  13.988 -0.0712  0.3237  0.3682
33371W        W76424  28.807   5.060  24.289  0.1677 -0.0296  0.0936
33372W        W76425   6.205  24.302  20.450 -0.0443  0.1299 -0.2563
33373W        W76426   9.386  24.842  14.128  0.1815 -0.2362  0.1298
33374W        W76427  32.614  32.265  14.550 -0.1185 -0.1162 -0.1028
33375W        W76428  30.347   1.388  13.872  0.0314 -0.2864  0.0685
33376W        W76429  23.117  26.148  25.207  0.1219  0.0082 -0.0923
33377W        W76430   4.203  15.439  27.425 -0.2779  0.1597  0.0050
33378W        W76431  18.104  27.108  21.153  0.1810  0.0978 -0.0514
33379W        W76432  16.460  18.566  12.927 -0.0708 -0.1776  0.1478
33380W        W76433   4.919  32.861   3.570 -0.0490  0.0566  0.0486
33381W        W76434   4.044  33.545   0.388  0.0049  0.0409  0.3683
33382W        W76435   4.289  11.772  14.912  0.0940 -0.0469  0.0504
33383W        W76436   8.292   3.304  19.034  0.1039 -0.4002  0.1711
33384W        W76437  33.850  17.862  21.903  0.3406  0.0161  0.1714
33385W        W76438  30.976  31.813  17.120 -0.1801 -0.4540  0.1864
33386W        W76439  30.645   3.945  14.469 -0.0041 -0.0093 -0.0805
33387W        W76440  11.069  26.270  24.339  0.1275 -0.2534  0.3375
33388W        W76441  17.942  28.283   0.756 -0.0182  0.1105 -0.1686
33389W        W76442  30.966  23.752  17.739 -0.0386 -0.0668 -0.1986
33390W        W76443  14.766   1.700  24.090  0.3138 -0.1707 -0.0899
33391W        W76444  33.343  14.749  19.456  0.1081 -0.1286 -0.3153
33392W        W76445  11.651  25.533  17.458 -0.0144  0.1343 -0.2410
33393W        W76446  11.926  27.550  16.964 -0.3467 -0.0107  0.1315
33394W        W76447  33.440  32.976  19.220  0.1938  0.0650  0.3506
33395W        W76448   2.561   1.704  20.926  0.1588  0.0651 -0.0079
33396W        W76449  32.817  29.358  17.049  0.2225  0.2530  0.1799
33397W        W76450   8.541   1.044  16.147  0.1820 -0.1999 -0.0762
33398W        W76451  29.524  16.264  14.830 -0.4015  0.1482 -0.1136
33399W        W76452   6.435   2.900  24.300  0.0277 -0.0777  0.0804
33400W        W76453  16.713  32.715  21.553  0.1813 -0.0883 -0.0172
33401W        W76454  34.330   7.281  14.791  0.1672 -0.0275  0.0677
33402W        W76455   3.274  24.719  13.448  0.0488 -0.0983 -0.4103
33403W        W76456  11.511  30.362  24.955 -0.0170 -0.4639 -0.0118
33404W        W76457   8.577  28.215   9.395  0.1513 -0.3636  0.1652
33405W        W76458  18.863  24.331  21.673 -0.2015 -0.0007 -0.0868
33406W        W76459   1.067   5.276  17.654  0.2619 -0.0459 -0.0259
33407W        W76460  10.935  33.619  15.817 -0.1780 -0.0012 -0.1800
33408W        W76461  10.270  13.925  22.306  0.0403 -0.0661  0.3955
33409W        W76462  23.888   7.023  15.087 -0.2895  0.2300  0.2316
33410W        W76463  31.685   7.326  24.148  0.0670 -0.1101 -0.1196
33411W        W76464   7.032  32.942  18.464  0.2067 -0.0084  0.0271
33412W        W76465  10.887  19.292  17.001 -0.3145  0.3737  0.0644
33413W        W76466  18.208  31.243  15.956 -0.0749 -0.2572 -0.2714
33414W        W76467   6.053  22.701  23.453  0.3729  0.2215  0.0247
33415W        W76468  32.773  10.254  27.423 -0.0172 -0.0060 -0.0636
33416W        W76469  23.942  32.809  28.986 -0.0095  0.3593  0.2347
33417W        W76470   4.506  10.346  21.228  0.2034 -0.0617 -0.1053
33418W        W76471   9.866  29.457  19.447  0.0389  0.0562 -0.3115
33419W        W76472   3.323   4.350  25.773 -0.4218  0.0055 -0.2107
33420W        W76473   9.841  32.311  20.429 -0.3118 -0.2035  0.2307
33421W        W76474   4.313   1.501  17.889  0.2239 -0.2019 -0.0080
33422W        W76475  21.324   4.508  15.528 -0.2144 -0.0097 -0.1215
33423W        W76476  12.429   0.708  23.099  0.0841  0.1546 -0.0352
33424W        W76477   8.840  23.629  22.964 -0.0928  0.0305 -0.1150
33425W        W76478   3.736  32.079  21.748 -0.1554 -0.2592 -0.1033
33426W        W76479   4.821  19.265  14.184 -0.1168 -0.2433  0.0029
33427W        W76480   5.457  25.622  18.423 -0.0395 -0.0486  0.1399
33428W        W76481   0.236   3.116  18.634  0.1206 -0.0196  0.2892
33429W        W76482  33.449   8.568  21.266 -0.1054 -0.1406  0.0192
33430W        W76483   9.489  32.786  22.685 -0.2918 -0.1723  0.1443
33431W        W76484   8.644  30.841  20.142 -0.1265  0.0215 -0.0147
33432W        W76485   4.450  19.322  15.722 -0.0943 -0.0173  0.1000
33433W        W76486   9.200  24.887  13.252  0.0940 -0.2927 -0.0290
33434W        W76487   6.609  15.620  20.230  0.0345 -0.1127  0.1227
33435W        W76488  33.972   7.870  17.804  0.1225 -0.1601  0.1681
33436W        W76489  10.997  13.281  16.325 -0.1921  0.1141 -0.1256
33437W        W76490  12.981  12.868  17.644  0.0699 -0.2784 -0.3791
33438W        W76491   0.976   1.039  25.003 -0.2243  0.0031 -0.1407
33439W        W76492  34.020   1.690   7.128  0.0103 -0.1859  0.0479
33440W        W76493   3.138   8.804  21.483  0.0488  0.0743  0.1979
33441W        W76494  30.404  29.176  15.005 -0.2896 -0.2940  0.0916
33442W        W76495   2.624  20.192  20.068  0.2399  0.1479  0.3190
33443W        W76496   3.790  23.667  22.215 -0.2508 -0.3057 -0.1512
33444W        W76497  20.813   4.142  26.467  0.0774  0.1371 -0.2265
33445W        W76498  34.068  29.679  22.727 -0.0905 -0.1486  0.0108
33446W        W76499   3.467  20.728  22.691 -0.2604 -0.2362  0.1237
33447W        W76500  33.977  32.168  13.242  0.1404  0.0351  0.0967
33448W        W76501  20.503  29.687  15.352 -0.2152 -0.0306  0.1535
33449W        W76502  32.762  18.265  15.331  0.0446 -0.2642  0.3697
33450W        W76503  17.626  32.429  18.664 -0.0713 -0.1229 -0.0918
33451W        W76504   7.192  27.140  16.704 -0.2547 -0.0245 -0.0393
33452W        W76505   3.548  27.496  24.768  0.0767 -0.1954 -0.3414
33453W        W76506  33.222  27.477  15.288  0.0801  0.1594  0.1382
33454W        W76507  10.281   5.093  25.552  0.1200  0.0354 -0.1891
33455W        W76508  34.645   0.219  13.806  0.2675 -0.2589  0.0186
33456W        W76509  32.658   6.254  15.945  0.2963 -0.1010  0.3729
33457W        W76510   5.539  22.407  18.690 -0.2423  0.1399 -0.0712
33458W        W76511  16.115  28.396  28.945  0.0486 -0.2796 -0.0317
33459W        W76512   5.083  24.991  20.180  0.2712 -0.0918 -0.0185
33460W        W76513   2.982  10.439  25.666  0.2935  0.2043 -0.1113
33461W        W76514  18.017  21.678  22.759 -0.0598  0.1488  0.0834
33462W        W76515  31.456  27.822  18.639 -0.1283 -0.3105  0.1847
33463W        W76516  25.796  34.292  18.811  0.0950 -0.1227 -0.1157
33464W        W76517  15.476   4.370   5.347  0.0200  0.0046 -0.1265
33465W        W76518  14.397   9.572  17.750 -0.2033 -0.1486 -0.1824
33466W        W76519  32.821  22.051  14.057 -0.2922 -0.1147  0.0279
33467W        W76520  16.888  31.100  16.249 -0.0368  0.0666 -0.2309
33468W        W76521  31.795   9.561  24.952 -0.2307 -0.1108  0.2146
33469W        W76522   3.119  13.355   3.427  0.0544 -0.1717 -0.2169
33470W        W76523   3.176  19.746  21.140  0.1648 -0.2464 -0.0770
33471W        W76524   8.105  31.990  16.905  0.0597 -0.1784  0.2205
33472W        W76525  15.730  20.237  14.969 -0.0858 -0.0540  0.0536
33473W        W76526   4.359  23.203  13.741 -0.2684  0.1511 -0.0074
33474W        W76527   2.961  12.954  21.898 -0.1479  0.0922 -0.0267
33475W        W76528   3.044  29.448  18.284 -0.0621 -0.0883  0.1781
33476W        W76529  31.344  23.650  18.977  0.2215  0.0875  0.0808
33477W        W76530  15.000  33.810  25.751 -0.0157 -0.0190 -0.0074
33478W        W76531   6.897  30.322   6.346 -0.2456 -0.1196 -0.1709
33479W        W76532  14.482   0.271  26.751  0.3551  0.0008 -0.1762
33480W        W76533  10.673  11.953  21.025  0.2120 -0.0201  0.1518
33481W        W76534  20.201   0.356  28.113  0.1268 -0.2029  0.1210
33482W        W76535   1.690   2.282  20.603 -0.0535 -0.2643 -0.2190
33483W        W76536   3.913  29.032  19.538 -0.3404  0.0525 -0.2335
33484W        W76537   1.122  27.249  20.412 -0.5451 -0.1998  0.1321
33485W        W76538  13.433  26.185  14.783  0.0023 -0.1387  0.3086
33486W        W76539  21.765  30.184  20.106 -0.0252 -0.2276 -0.2187
33487W        W76540   9.679  28.217  25.344 -0.1715  0.2317  0.2006
33488W        W76541   0.530  30.678   7.347  0.1281  0.1486 -0.0615
33489W        W76542  25.297  31.266  14.753  0.0444  0.0865 -0.0747
33490W        W76543   7.245  24.911  14.536  0.2073 -0.0100  0.2486
33491W        W76544  11.544  24.846  19.713 -0.3917  0.2172  0.0749
33492W        W76545  15.046   1.914  23.672  0.2681  0.1679  0.0304
33493W        W76546  10.966  26.026  13.796 -0.3184  0.0782 -0.0402
33494W        W76547  22.684  33.908   2.116 -0.2156  0.1684 -0.1055
33495W        W76548   0.510   5.655   0.359  0.1915  0.1400 -0.0814
33496W        W76549   4.864   1.333   0.317  0.0771  0.1515 -0.0896
33497W        W76550  18.685  13.369  19.161  0.0411 -0.2574  0.0475
33498W        W76551   4.369  30.016  13.493 -0.0045 -0.1062  0.0535
33499W        W76552  12.193  29.684  14.448  0.0051  0.0281  0.1928
33500W        W76553   9.784   4.848  22.112 -0.0376 -0.1330 -0.1393
33501W        W76554   6.194  32.779   6.291  0.2794 -0.0763 -0.0277
33502W        W76555  12.326   3.357  16.776  0.2389  0.0269 -0.0196
33503W        W76556  12.515  24.597  24.423  0.1122  0.1300  0.0559
33504W        W76557  28.001   1.286  14.812  0.1799 -0.1979  0.2911
33505W        W76558  28.974  21.248  17.271  0.1013  0.0200  0.0641
33506W        W76559  16.550   7.991  20.989 -0.0539 -0.2581  0.3834
33507W        W76560   7.893   9.347   6.484  0.0018 -0.2055  0.0221
33508W        W76561  14.674  22.968  24.756 -0.1616  0.1589  0.3309
33509W        W76562  16.601  10.436  23.648  0.1134  0.0311 -0.1060
33510W        W76563  17.704   0.196  20.444 -0.3545 -0.2993 -0.2377
33511W        W76564  25.467  33.721  15.882  0.0038  0.0502  0.0052
33512W        W76565  11.816  29.716  16.391 -0.2813 -0.2772  0.1434
33513W        W76566   4.441  11.029   8.704  0.2136 -0.1107  0.0590
33514W        W76567  11.141  28.868  19.631  0.1118 -0.1809 -0.1179
33515W        W76568   2.022   5.850  15.957  0.1167  0.0546  0.0440
33516W        W76569  10.602  11.036  16.388  0.1487  0.0835 -0.2967
33517W        W76570  32.348  28.033  17.351 -0.0023  0.2679 -0.1428
33518W        W76571  11.562  31.919   8.334  0.1079 -0.0112  0.1297
33519W        W76572  18.618  34.322  18.983  0.1869  0.0413  0.4419
33520W        W76573   1.449  20.466  20.698  0.0299  0.1775 -0.3463
33521W        W76574  12.162  28.365  14.495  0.0545 -0.2083 -0.2074
33522W        W76575  12.048  30.292  14.387 -0.0280  0.2084 -0.3232
33523W        W76576   5.118  30.130  14.623  0.2914  0.1312 -0.2642
33524W        W76577   8.302  11.696  24.440 -0.2049 -0.2699  0.1495
33525W        W76578  31.393  18.757  26.363  0.0813  0.0398 -0.0620
33526W        W76579   3.297  29.021   0.481 -0.1117 -0.2513  0.1397
33527W        W76580  34.232  27.882  14.901 -0.3170 -0.1734 -0.1676
33528W        W76581   2.334  11.939   5.465  0.2008  0.0641  0.1551
33529W        W76582  33.806   9.757  21.753  0.0023 -0.1830 -0.1911
33530W        W76583  14.862  27.325  14.640 -0.0551  0.0264  0.0423
33531W        W76584  26.548  25.144  17.814  0.2263 -0.0441 -0.1055
33532W        W76585   7.050  33.186  16.217 -0.2923 -0.4696 -0.1889
33533W        W76586   9.690  10.734  16.392 -0.1305  0.0334 -0.0301
33534W        W76587  12.792  22.339  14.863  0.1799 -0.2222  0.2069
33535W        W76588  10.607   1.747  16.334 -0.1434  0.1086 -0.0827
33536W        W76589  13.505  32.105  14.594 -0.2041  0.0335  0.0090
33537W        W76590  10.902   0.355  16.209 -0.1464  0.1167 -0.0706
33538W        W76591   0.848  29.785  18.008  0.3965  0.2119 -0.0112
33539W        W76592  33.252  15.755  22.061  0.0544 -0.4654 -0.3099
33540W        W76593  30.249   2.851  15.877 -0.1243  0.0335  0.0993
33541W        W76594  32.349  18.506  15.118  0.1331 -0.1464  0.0685
33542W        W76595  32.378  29.109  13.965  0.1146 -0.1674  0.2366
33543W        W76596   3.448   3.986  23.596 -0.3251 -0.0318 -0.0663
33544W        W76597  14.659  22.923  15.695  0.1778 -0.2940  0.2185
33545W        W76598   6.034   1.076  22.560  0.1991 -0.1787 -0.1261
33546W        W76599  27.153   3.492  20.534 -0.1954 -0.0009 -0.0618
33547W        W76600   1.770  23.755   0.335 -0.0511  0.1836  0.0813
33548W        W76601  11.478  27.451  26.282 -0.1544  0.1680 -0.0708
33549W        W76602  34.207  11.156  16.932 -0.1565 -0.0064  0.2607
33550W        W76603  11.231   9.118  24.317 -0.3179  0.3183 -0.1849
33551W        W76604  27.521   9.737  18.085  0.0375  0.1996 -0.0030
33552W        W76605   8.035  20.228   1.228  0.0693 -0.3024  0.0972
33553W        W76606  33.555   3.670  26.795  0.1666  0.2071 -0.0771
33554W        W76607   5.665  24.304  20.408  0.1333  0.0532 -0.0426
33555W        W76608  22.018  33.872  19.304 -0.0840 -0.2634 -0.0195
33556W        W76609  34.368  29.117  22.036 -0.3391  0.1836  0.1852
33557W        W76610  11.827  15.353  23.587 -0.1689  0.1565  0.2956
33558W        W76611   3.028  14.524   2.205 -0.1067 -0.2970 -0.0314
33559W        W76612  31.752   1.761  14.019  0.0548 -0.2275  0.2431
33560W        W76613  10.160  30.326  19.455 -0.1421  0.1342  0.1424
33561W        W76614   3.001   3.408  14.659 -0.1278  0.0279  0.0186
33562W        W76615  30.923  29.697  13.646  0.2837 -0.0384  0.0166
33563W        W76616  10.596   1.715  19.430 -0.1755 -0.0164  0.1070
33564W        W76617   8.345  24.744  14.550 -0.1424  0.1100  0.0813
33565W        W76618   8.128  15.496   1.280 -0.3627 -0.0335  0.0694
33566W        W76619  14.153  23.375  23.247  0.0574 -0.2943  0.1839
33567W        W76620   2.569   4.931  27.639 -0.3444 -0.0062 -0.2433
33568W        W76621  34.338  16.105  24.805 -0.1396  0.3021  0.1548
33569W        W76622   0.065  19.973  16.516 -0.1858  0.3358  0.0949
33570W        W76623  15.312  25.497  28.645 -0.2291 -0.0620 -0.0848
33571W        W76624   2.199  29.253   3.849 -0.2823 -0.2011 -0.0049
33572W        W76625  33.099  33.060  19.634 -0.0045 -0.0087 -0.1070
33573W        W76626  29.568  32.597  18.054 -0.2332  0.0242 -0.0698
33574W        W76627  34.228  33.063  28.296  0.1843  0.2252  0.3017
33575W        W76628   0.580  23.799  20.342  0.3345 -0.0027  0.0883
33576W        W76629   5.903  12.404  15.805  0.1036 -0.3465 -0.4828
33577W        W76630   1.005  27.216  14.102  0.3452  0.0003 -0.1422
33578W        W76631   5.456  29.820  15.449  0.1118  0.4219  0.3482
33579W        W76632  10.298   0.608  19.750  0.2602  0.3004  0.0004
33580W        W76633  34.282  28.318  17.528  0.0378  0.2197  0.2640
33581W        W76634  34.257   0.838  13.066  0.0516 -0.1137  0.0451
33582W        W76635  10.331   5.322  15.789 -0.0008  0.2356  0.0479
33583W        W76636   1.283  29.865   0.087 -0.1074  0.0803  0.0422
33584W        W76637  10.649  26.875  18.035  0.2305  0.1892  0.3663
33585W        W76638   7.110  10.541   6.933  0.0934 -0.0187  0.0843
33586W        W76639  31.310  12.003  22.434  0.1430  0.2386 -0.2308
33587W        W76640  33.724   7.258  27.272  0.0055  0.1807  0.1445
33588W        W76641   4.482   9.452  19.202  0.0492  0.3605 -0.1808
33589W        W76642   1.647   1.883  26.528  0.0247 -0.2755  0.1111
33590W        W76643  28.863  23.536  23.168 -0.2945 -0.3296 -0.0376
33591W        W76644   8.806   5.202  25.224  0.1012  0.1011 -0.1343
33592W        W76645  17.936  17.262  24.040  0.1192  0.2216  0.0600
33593W        W76646   1.527   0.750   8.002 -0.0133 -0.1987  0.0038
33594W        W76647   6.811   4.260  18.228  0.1325  0.0653  0.0028
33595W        W76648  14.545  33.009  15.065 -0.1583 -0.0099 -0.0583
33596W        W76649  17.230   1.154  26.198 -0.0252 -0.3306  0.0786
33597W        W76650  11.689  29.494  21.564 -0.1798  0.0054 -0.0443
33598W        W76651  11.502  24.858  19.219  0.2267  0.3628  0.1737
33599W        W76652   8.318  21.544  28.157  0.0824 -0.1707  0.0428
33600W        W76653  26.756  29.940  16.093 -0.2018  0.1432  0.0099
33601W        W76654   8.153  23.398  13.050  0.2202  0.1694 -0.0022
33602W        W76655  32.496   0.961  15.310  0.0287  0.0634  0.1033
33603W        W76656   1.438  32.334  19.880  0.0380  0.2796  0.2096
33604W        W76657  14.000   0.463  15.233 -0.0801 -0.3252  0.1926
33605W        W76658  19.142  28.506  22.368  0.0146 -0.1607 -0.1298
33606W        W76659   3.847  24.386  20.613 -0.2098  0.0021  0.3919
33607W        W76660  29.238   6.236  22.666 -0.0179  0.0141  0.0356
33608W        W76661  12.113  11.455   1.963 -0.0554 -0.1685  0.3717
33609W        W76662   1.496   5.562  16.572  0.1556 -0.2931  0.1232
33610W        W76663   7.563  19.033  20.349  0.2757 -0.2491  0.1700
33611W        W76664   7.355  26.710  21.502 -0.1109 -0.2461  0.1751
33612W        W76665  14.360  30.193  24.109 -0.0349 -0.1729 -0.2078
33613W        W76666   9.188  27.082  20.492  0.2088 -0.2924 -0.0407
33614W        W76667  25.595  30.253  14.723 -0.2023 -0.1140  0.0716
33615W        W76668  31.097  32.491  26.786 -0.5567 -0.0031  0.2948
33616W        W76669  11.009   2.289  20.177  0.1238  0.0833  0.0359
33617W        W76670   8.734  15.870   4.625 -0.3196  0.0491 -0.2048
33618W        W76671  11.362   5.850  27.021 -0.4701  0.0549  0.0315
33619W        W76672   7.994  27.916  19.558 -0.2924  0.0226  0.0461
33620W        W76673   1.318  31.525  20.091  0.3570 -0.1529  0.0163
33621W        W76674  34.568  29.712   2.585  0.2462  0.2082 -0.3687
33622W        W76675   1.681   0.712  13.345 -0.2195  0.1385 -0.1630
33623W        W76676   4.669  11.098  28.887 -0.0203  0.0095  0.2252
33624W        W76677   6.517  25.404   3.599  0.1662  0.1782 -0.1364
33625W        W76678  14.453   3.863   1.924  0.0704 -0.0488 -0.1410
33626W        W76679  11.033  31.388  20.990  0.0809 -0.4380 -0.1083
33627W        W76680   7.210  28.903   2.846  0.3150  0.1420 -0.2132
33628W        W76681  34.275  32.457  27.921 -0.1314  0.3352 -0.1490
33629W        W76682  34.046  24.627   9.170 -0.1846 -0.0601  0.2216
33630W        W76683  13.264  32.647  15.768  0.3065 -0.3494  0.1551
33631W        W76684   1.267  29.711  25.439 -0.1264 -0.0885  0.1016
33632W        W76685   4.917  18.080  28.681  0.1580  0.1953  0.0025
33633W        W76686  18.793  29.242  21.289  0.0631  0.0927  0.0518
33634W        W76687  10.044  29.967  25.859 -0.0383 -0.0569 -0.0571
33635W        W76688  21.956  28.294  14.062 -0.0452  0.0909  0.2212
33636W        W76689   4.673  24.991  17.533 -0.2449  0.0007 -0.0344
33637W        W76690   5.217  22.560  17.112 -0.1207  0.0485 -0.4103
33638W        W76691  30.649   2.874  24.669  0.2716  0.2542  0.0079
33639W        W76692  34.332   2.155  18.011  0.0451  0.3368  0.2922
33640W        W76693   1.899  30.302  15.007  0.2195  0.2211 -0.2553
33641W        W76694  13.011  32.156  28.031 -0.2243 -0.4351 -0.0581
33642W        W76695   8.015  33.668  16.575 -0.2442  0.2445  0.2981
33643W        W76696   6.354  26.232  13.197 -0.0039 -0.2275 -0.1061
33644W        W76697   3.384   0.549  26.364 -0.2758  0.0037 -0.1600
33645W        W76698  10.188  28.847  23.835 -0.2545 -0.0283 -0.0427
33646W        W76699  10.188  28.025  19.679 -0.2596 -0.2887  0.2639
33647W        W76700  27.798  28.304  14.940 -0.0371 -0.0506  0.1181
33648W        W76701  29.297   3.909  15.505 -0.2347 -0.2007  0.4177
33649W        W76702   9.252   4.528   2.984  0.1423 -0.1783  0.0880
33650W        W76703  13.476   1.336  22.018  0.1867 -0.1701  0.2910
33651W        W76704  20.680  25.144  10.383 -0.1789  0.2473 -0.3356
33652W        W76705  19.281   3.623  24.351 -0.2478 -0.1206 -0.2244
33653W        W76706   5.911  19.247  25.408  0.0118  0.0543  0.0464
33654W        W76707  25.804  33.824  14.819  0.0278 -0.1546  0.2983
33655W        W76708   5.373  32.545  24.642 -0.2335  0.1717 -0.1798
33656W        W76709   0.257   7.704  17.200 -0.0951 -0.3052 -0.2000
33657W        W76710  31.231   6.311  20.020  0.1191  0.1470 -0.1450
33658W        W76711   7.558  10.560  24.384  0.1885  0.2023 -0.0574
33659W        W76712  14.951   6.334  17.991 -0.0197 -0.0904 -0.2425
33660W        W76713  23.600  22.280  21.931  0.2054 -0.2057 -0.0832
33661W        W76714  22.645   0.524   2.892 -0.0528 -0.1714  0.0417
33662W        W76715  15.800   5.415  21.492 -0.0389  0.0476 -0.2579
33663W        W76716  12.719   0.176  15.350  0.1167  0.1136  0.0303
33664W        W76717  16.998   5.266  15.886  0.0987 -0.2459  0.3094
33665W        W76718  22.680  29.184  25.450  0.0781  0.1604  0.1796
33666W        W76719   3.245  33.897  25.591 -0.2303  0.0659 -0.2640
33667W        W76720  33.472  27.368   0.687  0.0676 -0.3768  0.0577
33668W        W76721  11.591   3.896  15.875  0.3472  0.2210  0.0855
33669W        W76722  11.065  15.213  24.097  0.0308  0.0528 -0.2119
33670W        W76723  13.616   6.937  15.553 -0.0214  0.1880 -0.0653
33671W        W76724  27.086  29.696  21.203 -0.0609  0.1717 -0.3947
33672W        W76725  19.551  25.559  23.342 -0.3694  0.0493  0.2421
33673W        W76726   5.720  32.385  23.072  0.0378 -0.0038  0.1158
33674W        W76727   8.974  26.291  13.768 -0.1922  0.3019  0.0237
33675W        W76728  20.719  28.877  20.506  0.1970 -0.1132  0.2624
33676W        W76729   5.849   3.913   7.143 -0.0204  0.0865  0.2096
33677W        W76730   3.454  10.069  15.837  0.0539 -0.0344 -0.0768
33678W        W76731   1.988  32.059  27.952 -0.1796 -0.0732  0.5282
33679W        W76732   4.710  33.590  14.034  0.1840 -0.1422 -0.0641
33680W        W76733  16.975  23.082  16.869  0.3687 -0.2021  0.1629
33681W        W76734  10.703  24.741  16.248  0.0315  0.1322  0.0966
33682W        W76735   9.236  28.177  29.148 -0.1178 -0.0218  0.1502
33683W        W76736   7.068   3.253  18.262 -0.1497 -0.1428  0.0679
33684W        W76737   0.267   0.141  21.621 -0.1493 -0.1841 -0.2716
33685W        W76738  17.823  15.869   6.639  0.2044 -0.0210 -0.1978
33686W        W76739  27.190  26.586  20.666 -0.0648 -0.0737  0.0683
33687W        W76740   6.427  22.555  25.818 -0.1582 -0.0727  0.0998
33688W        W76741  31.011  14.000  24.630 -0.2317  0.0016  0.3046
33689W        W76742   7.692  19.260  18.697  0.0624  0.0029  0.0576
33690W        W76743  15.672   2.387  20.120 -0.1193  0.1089  0.2591
33691W        W76744   6.606   7.344   0.654  0.1945  0.1301  0.0597
33692W        W76745  14.630   5.549   3.191  0.2152 -0.1070 -0.0589
33693W        W76746   6.708  27.357  13.436  0.3799 -0.0583  0.0256
33694W        W76747  34.626   0.718  16.525  0.2599  0.0413  0.2155
33695W        W76748   4.101  30.986   7.567 -0.4299 -0.0014 -0.1234
33696W        W76749   2.166   9.021   1.964 -0.1892 -0.0173  0.3369
33697W        W76750   0.272   1.449  15.612 -0.3847 -0.1552  0.1369
33698W        W76751   7.081   5.289  15.869  0.1346  0.0226  0.1457
33699W        W76752   0.213   4.359  17.320  0.0027 -0.1106 -0.0091
33700W        W76753  17.415   9.651  14.813  0.0863  0.3211 -0.0598
33701W        W76754  33.291   7.023  16.724 -0.5024  0.1278 -0.0032
33702W        W76755  10.467  30.317  12.739  0.3760  0.1674 -0.0975
33703W        W76756   6.576  21.325  22.063  0.1042 -0.0781  0.1452
33704W        W76757   7.324  12.859  21.962  0.0598 -0.0628 -0.0054
33705W        W76758  26.210   7.460   6.612  0.0770 -0.1333  0.0475
33706W        W76759  13.931  33.054   1.230 -0.1209 -0.1436  0.2401
33707W        W76760  10.036  24.555  22.573  0.1481 -0.2157  0.0306
33708W        W76761  10.164   0.160  27.690 -0.2326 -0.0320  0.1060
33709W        W76762   7.093   3.787   0.055  0.5856  0.0387  0.1293
33710W        W76763   9.389   2.661  15.694  0.1248  0.1612  0.0752
33711W        W76764  13.281   5.808  22.663  0.2313 -0.2704  0.2248
33712W        W76765  22.245  32.776  14.587 -0.4380 -0.1426  0.1355
33713W        W76766   0.268  30.832  26.455  0.1924  0.2045  0.0057
33714W        W76767  33.449  15.798   7.153  0.2495  0.3980 -0.0425
33715W        W76768   5.606   7.700  22.490 -0.2720  0.2742 -0.0775
33716W        W76769  26.850   2.698   7.619  0.0624 -0.1357 -0.3310
33717W        W76770  33.356  20.438  15.661  0.0463 -0.2487  0.3058
33718W        W76771   7.073  34.264  27.834 -0.3599  0.1806  0.0173
33719W        W76772  13.301  27.323  16.935 -0.3223  0.0218  0.1113
33720W        W76773   5.674  32.937  19.028 -0.1489 -0.0238 -0.1575
33721W        W76774  28.778  26.192   0.764 -0.1547  0.2429  0.2080
33722W        W76775  12.771   1.458  24.824 -0.1227 -0.0648  0.0296
33723W        W76776  32.634  19.291  26.281 -0.1054  0.3130  0.0934
33724W        W76777  16.709  28.480  21.492 -0.0017 -0.0949 -0.2455
33725W        W76778   6.917   0.018  19.257 -0.1030  0.0064  0.2256
33726W        W76779  22.038   4.804  16.094 -0.0099  0.2312 -0.2159
33727W        W76780  19.032  25.572  19.002 -0.0029  0.1986  0.0669
33728W        W76781   6.055  25.760  25.315  0.0412 -0.1150 -0.1948
33729W        W76782  32.227   0.939  18.621  0.1858  0.0265 -0.0782
33730W        W76783  14.738  10.516  26.773 -0.0394 -0.2041 -0.3687
33731W        W76784   1.701  29.352  23.519 -0.0507 -0.0278  0.2780
33732W        W76785  17.973   4.483  18.106 -0.0500  0.0596 -0.0428
33733W        W76786  27.659  16.825  14.626  0.0319 -0.0218 -0.0925
33734W        W76787   3.637  32.327  23.184  0.3184 -0.0054 -0.0181
33735W        W76788  10.219   3.400  18.210  0.1803  0.3209  0.1189
33736W        W76789   5.512  26.808  21.541 -0.3661  0.0344 -0.0605
33737W        W76790  14.966  26.815  18.638 -0.1239  0.0847  0.1882
33738W        W76791  20.659  34.682  16.629 -0.0742  0.1181 -0.0581
33739W        W76792  31.366   9.645   0.583  0.2194 -0.1081  0.0490
33740W        W76793  19.624   7.246   6.295 -0.0088 -0.1692 -0.0303
33741W        W76794  13.382  29.892  25.966 -0.3705  0.1547 -0.1781
33742W        W76795  10.148  26.601  21.304  0.0444  0.0247 -0.3496
33743W        W76796  32.789  29.141   6.906 -0.0654 -0.2108  0.2821
33744W        W76797  32.677   6.255  17.189 -0.1325  0.1322  0.0631
33745W        W76798  21.224  28.554  25.336 -0.0044 -0.0195  0.1955
33746W        W76799  26.629  19.605   7.879  0.2563  0.4374  0.0967
33747W        W76800  16.349  31.739  24.647 -0.0001 -0.1307  0.1327
33748W        W76801   8.890  22.346  15.840  0.0085  0.2788  0.1198
33749W        W76802   2.431  27.915   0.813  0.1940  0.0610 -0.0073
33750W        W76803  10.742   6.550  26.324 -0.3103 -0.3662  0.2983
33751W        W76804  16.573   5.168   7.002 -0.0305 -0.0774  0.2499
33752W        W76805   8.756  16.902  17.963 -0.2805  0.2133  0.2059
33753W        W76806  16.983   5.087  27.631  0.0712  0.0269  0.0506
33754W        W76807  31.757   4.808  27.751  0.2459 -0.0824  0.0637
33755W        W76808  10.705  26.580  24.414 -0.0867  0.1218  0.0452
33756W        W76809   3.749  24.923  14.278  0.0426 -0.1621  0.2529
33757W        W76810  18.618  25.754  19.386 -0.0557  0.0655 -0.2442
33758W        W76811   9.021   9.101  18.953  0.3056 -0.0125  0.0190
33759W        W76812  11.017   1.349  23.878  0.1383  0.3374  0.1797
33760W        W76813  30.236  25.737   9.775  0.1311 -0.0076  0.0570
33761W        W76814  31.940  20.959   1.729  0.0200  0.1633  0.1202
33762W        W76815  17.053  27.087   8.383 -0.0754  0.1489  0.1676
33763W        W76816   7.509  23.325  19.302 -0.1611  0.2694  0.2650
33764W        W76817  12.405   0.654  15.969  0.2626 -0.1698 -0.2203
33765W        W76818  29.184  32.118  24.124 -0.3011 -0.1449 -0.0094
33766W        W76819  29.459  21.080  18.517  0.1329  0.0453  0.0534
33767W        W76820   8.893  30.477   0.996 -0.2733 -0.0686 -0.1054
33768W        W76821   4.605  30.322  19.956 -0.2744  0.1479 -0.0129
33769W        W76822  26.635   7.639  18.336 -0.2025 -0.1643 -0.0732
33770W        W76823   8.119  32.986  22.343 -0.1317  0.3915  0.0501
33771W        W76824  31.802  31.939  21.554 -0.1739  0.0011 -0.0653
33772W        W76825   8.803  26.003  20.745 -0.2322  0.1138 -0.1493
33773W        W76826   3.607  15.612  24.555  0.0225 -0.1755 -0.2118
33774W        W76827   7.105   2.325  23.011 -0.2206 -0.0001 -0.0986
33775W        W76828   4.967   5.467  25.235 -0.1748  0.0325 -0.2025
33776W        W76829  29.725   3.793  20.082 -0.2387  0.0927  0.0720
33777W        W76830  32.923   2.295  20.339  0.0342  0.2278  0.2864
33778W        W76831  12.404  31.872  26.057  0.0011  0.1585  0.1823
33779W        W76832  32.424  20.596  25.710 -0.1415  0.0933 -0.3999
33780W        W76833  30.384  25.952  17.556 -0.0442  0.1431  0.1608
33781W        W76834   4.475  32.001  15.092  0.1363 -0.3389  0.0531
33782W        W76835   3.688   5.593  21.496 -0.0660 -0.4493 -0.2672
33783W        W76836  30.838  30.004  18.122 -0.5138  0.0541  0.0978
33784W        W76837  16.666   8.292  15.346 -0.0197  0.1069 -0.1720
33785W        W76838  31.356   7.807  29.173  0.3056 -0.0813 -0.0503
33786W        W76839  19.147  28.946  16.552 -0.1811 -0.1139 -0.0418
33787W        W76840   5.071   2.721  15.603  0.1695  0.2233 -0.1533
33788W        W76841   6.307  23.726  22.239  0.0117  0.0322  0.1804
33789W        W76842  26.837   1.746  16.515 -0.2319 -0.0197  0.1052
33790W        W76843  32.172   3.001  14.903  0.3254 -0.0521 -0.1902
33791W        W76844  12.614  29.316  21.245 -0.0240  0.0467  0.3611
33792W        W76845  10.292   4.530  18.854  0.1068  0.0782 -0.4825
33793W        W76846   7.615   8.394   0.575 -0.4523  0.0787 -0.0007
33794W        W76847   2.551   0.680  22.205 -0.1453 -0.0983 -0.2133
33795W        W76848  14.421  23.878  19.550 -0.2038  0.1210 -0.0922
33796W        W76849   2.412  30.665  24.115 -0.3955 -0.2936 -0.0844
33797W        W76850   5.928   0.394  25.441  0.0708 -0.0720 -0.1356
33798W        W76851   9.105  33.127  20.017 -0.0035  0.1560 -0.2559
33799W        W76852  31.957  13.967  14.837  0.0828 -0.0712 -0.0526
33800W        W76853  28.602  33.004  22.045  0.2261 -0.2022  0.3137
33801W        W76854   3.083  25.238  17.387 -0.3369 -0.3537 -0.2099
33802W        W76855  15.604  34.411  20.605  0.0495 -0.3152  0.1225
33803W        W76856  18.589  32.952  22.940 -0.1864 -0.0172 -0.0703
33804W        W76857  32.575  12.221  13.849 -0.0199  0.1279  0.2467
33805W        W76858   9.795  19.267  17.429  0.0112  0.2912  0.2767
33806W        W76859   0.661  23.298  20.141 -0.1892 -0.0904  0.0760
33807W        W76860   3.067  12.137  21.846  0.0731 -0.0152 -0.2430
33808W        W76861  15.371  29.485  24.820 -0.1201  0.0014 -0.0237
33809W        W76862  14.022   7.306  22.883  0.2765 -0.1963 -0.6107
33810W        W76863   4.724  34.600  23.600 -0.0854  0.1632 -0.1499
33811W        W76864   3.136  29.506   9.050 -0.1428  0.1080 -0.4002
33812W        W76865  20.395   9.769  21.130 -0.1431 -0.0307 -0.0934
33813W        W76866  14.429  24.659  21.120  0.3043  0.2101 -0.0143
33814W        W76867   0.199  24.053   0.051  0.1431 -0.0785 -0.0368
33815W        W76868  34.603   3.460  14.037  0.2447  0.1222 -0.1800
33816W        W76869   6.630  16.257  16.562  0.1733  0.1413  0.0445
33817W        W76870  27.304  14.357   2.868  0.0963  0.1757  0.1180
33818W        W76871   6.283  31.477   6.923 -0.0580  0.0010 -0.0498
33819W        W76872  34.057  25.599  14.305 -0.1600 -0.2782 -0.1340
33820W        W76873   2.777   5.051  18.240  0.1605 -0.0708 -0.1650
33821W        W76874  18.852   2.040  22.882  0.0233  0.1687 -0.5275
33822W        W76875   8.161  26.932   3.824 -0.0517  0.1924  0.2259
33823W        W76876   0.894   4.395  22.477  0.1160 -0.0092  0.4796
33824W        W76877  12.359  18.213   4.097 -0.0519 -0.1693  0.3486
33825W        W76878  22.667  26.800  22.980  0.0658 -0.0027  0.2798
33826W        W76879   3.592   2.289  18.435 -0.1239 -0.3949  0.0603
33827W        W76880   2.312  18.551  19.051  0.1381 -0.1398 -0.2475
33828W        W76881  29.527   1.666  19.415  0.0363  0.0780  0.3570
33829W        W76882   0.463  11.455  18.815 -0.0386  0.2288  0.3186
33830W        W76883   4.502  22.871  20.397  0.0563 -0.1847 -0.1238
33831W        W76884   7.057  18.175  21.462 -0.2482  0.1688 -0.1720
33832W        W76885   0.343   1.727  18.317 -0.4091 -0.1559  0.0960
33833W        W76886   7.200  28.814  12.669  0.0416  0.0204  0.1599
33834W        W76887  19.702   5.468  16.578 -0.2831 -0.0562  0.0209
33835W        W76888  11.794  17.399   5.761  0.0934  0.2038  0.2877
33836W        W76889  28.813  26.502  15.630 -0.0969 -0.1933  0.1491
33837W        W76890  10.541  31.494  18.107  0.0231 -0.1375 -0.0819
33838W        W76891   7.183   9.767  17.834 -0.0261 -0.0964 -0.1865
33839W        W76892  11.915  28.696  19.723  0.0440 -0.1002  0.0490
33840W        W76893   7.145  33.204  15.731 -0.1172  0.3569 -0.2033
33841W        W76894   5.866  31.347  24.776 -0.1176  0.0659 -0.3346
33842W        W76895  34.154  24.721  17.894  0.2861  0.0431 -0.4365
33843W        W76896   9.611  18.507   1.220  0.1026  0.1079 -0.3460
33844W        W76897  29.598   5.755  26.651 -0.0175  0.1306  0.3687
33845W        W76898  17.405  30.935  27.123 -0.1712 -0.1974 -0.0448
33846W        W76899  16.886  18.964  22.850 -0.1669  0.2747 -0.1922
33847W        W76900  18.265  30.819  24.539 -0.0394  0.0006 -0.3307
33848W        W76901   5.022  30.698   4.634 -0.1883 -0.0051 -0.0938
33849W        W76902  31.810  25.152  23.138  0.0184 -0.2216  0.0483
33850W        W76903   9.801   6.452  22.880  0.1870  0.3433  0.1302
33851W        W76904   3.820  32.656  22.853  0.0098 -0.2042 -0.3316
33852W        W76905   8.307  33.115  13.839 -0.1460  0.2500 -0.1156
33853W        W76906   0.181  18.611  13.883  0.0386 -0.0366 -0.0294
33854W        W76907  20.693  20.994  15.057 -0.0814 -0.0923 -0.0919
33855W        W76908   6.116  23.045   0.828  0.1790 -0.0282  0.1945
33856W        W76909  16.258  28.174   7.173 -0.2726 -0.0133 -0.1980
33857W        W76910   1.440  15.593  17.557 -0.0656  0.2898  0.0415
33858W        W76911  10.596  29.054  21.381  0.2368  0.0443 -0.1080
33859W        W76912  33.286  28.680   1.073  0.4285 -0.0298 -0.0035
33860W        W76913  28.256  29.851  16.092  0.1892 -0.2203  0.3807
33861W        W76914   1.965   0.302   0.197  0.2106 -0.1787 -0.2330
33862W        W76915   3.398  32.357  27.109  0.0999 -0.2933  0.1958
33863W        W76916  12.674  27.677  23.279 -0.2269 -0.1447  0.0508
33864W        W76917   2.669  18.094  21.178 -0.1674 -0.1892 -0.2795
33865W        W76918  10.054  11.129   3.941 -0.5295 -0.0286  0.0069
33866W        W76919   7.168  33.759  16.781  0.0176 -0.0829 -0.1435
33867W        W76920  31.491  24.879   0.668  0.0410 -0.0802  0.0648
33868W        W76921  26.660  15.154  19.223  0.0338  0.1271  0.1023
33869W        W76922   6.082  33.444  15.475  0.1324 -0.0873 -0.0406
33870W        W76923  19.097  34.123  15.993 -0.0204  0.1333  0.2635
33871W        W76924  34.098  13.308  23.757  0.1472 -0.0730  0.1473
33872W        W76925   5.064   7.989   6.521 -0.4678 -0.1294 -0.0771
33873W        W76926  24.294  33.172  15.553  0.1329  0.1826 -0.1076
33874W        W76927   9.420  21.841  26.000 -0.3608  0.1164  0.3720
33875W        W76928   9.191  23.666  19.639 -0.1005  0.2721 -0.0821
33876W        W76929  26.603  26.794   1.896  0.0147 -0.2637  0.0693
33877W        W76930  23.968   2.470   1.412 -0.1312  0.1586 -0.3378
33878W        W76931  15.873   3.089   1.340 -0.3720 -0.1907  0.0802
33879W        W76932  21.717  31.006  18.103 -0.0438  0.1675 -0.2881
33880W        W76933  13.576  22.691  24.565  0.0337 -0.4831  0.0961
33881W        W76934  16.904  29.410  21.023 -0.0237 -0.0867 -0.1396
33882W        W76935  25.081   5.210  17.558  0.0026 -0.0904 -0.1331
33883W        W76936  10.137  16.938  26.549 -0.0875 -0.0692 -0.2250
33884W        W76937  13.134  33.920  15.317  0.1223  0.2100 -0.1895
33885W        W76938   5.170  25.009  27.871  0.0602  0.0838  0.1687
33886W        W76939   1.261  30.503  16.184 -0.5683  0.0759  0.1858
33887W        W76940  33.647   0.785   7.237  0.1271 -0.1283  0.0427
33888W        W76941  14.386  18.918  23.453 -0.1142 -0.2459  0.1265
33889W        W76942   5.291   3.240  17.632  0.0983  0.1180 -0.1756
33890W        W76943  28.224   4.676  19.689 -0.2566  0.0367  0.1253
33891W        W76944   4.943  29.672  25.414 -0.1690 -0.3054 -0.2014
33892W        W76945   6.727  14.240  22.700 -0.4526 -0.0951  0.0294
33893W        W76946  13.530  25.426  23.101  0.2339  0.0200  0.3448
33894W        W76947  19.655  33.151  20.904  0.1015 -0.0607  0.1441
33895W        W76948  30.883  24.331  14.146  0.0046 -0.0868  0.1167
33896W        W76949   7.458  25.682  26.359 -0.1622  0.0666  0.0999
33897W        W76950   8.395   4.902  15.797 -0.3034 -0.0354  0.2697
33898W        W76951   4.308  30.207  28.594 -0.2593 -0.1442  0.0843
33899W        W76952   1.658  16.253  22.959 -0.0135  0.2020 -0.0122
33900W        W76953  26.553  31.807  15.402  0.4136  0.1252 -0.1764
33901W        W76954  13.979  20.179  25.549  0.0307  0.1808  0.2255
33902W        W76955  12.174  10.927  22.999  0.2555  0.1022  0.1274
33903W        W76956  11.723  12.207  17.247 -0.1627  0.0932  0.1462
33904W        W76957  13.453   1.229  25.116 -0.0283 -0.0826 -0.0493
33905W        W76958  31.028  33.840  15.359  0.1898  0.2347 -0.0137
33906W        W76959  10.396  23.335  21.805 -0.1136  0.0365 -0.1353
33907W        W76960  13.369   5.550  23.236  0.1859 -0.3009 -0.1869
33908W        W76961  20.267  10.616  22.629 -0.0160 -0.1605  0.1597
33909W        W76962   5.047   0.963  17.180 -0.0516  0.2936  0.1342
33910W        W76963   1.535   4.835  28.442  0.0845 -0.4454 -0.3505
33911W        W76964   7.270  14.050  17.265  0.3098 -0.2807  0.1119
33912W        W76965  34.060  24.432  26.863  0.1922 -0.1172  0.1011
33913W        W76966   6.583  31.790  16.081 -0.1969  0.1486 -0.0333
33914W        W76967   1.407   0.172   8.709  0.1671  0.0313  0.1741
33915W        W76968  32.235  16.551  27.447  0.0567 -0.2308 -0.0222
33916W        W76969   4.777   0.691  17.880 -0.0032 -0.1211  0.4158
33917W        W76970   6.813  10.848   4.636  0.0703 -0.0514 -0.0397
33918W        W76971  34.475   5.603  18.575  0.1976  0.0007  0.1219
33919W        W76972   7.064   2.746  16.336 -0.0387 -0.3424 -0.0690
33920W        W76973  17.262   0.761  19.991  0.1184 -0.0409  0.0845
33921W        W76974  31.050  10.256  28.318  0.0624  0.2281  0.1645
33922W        W76975   1.669  24.192  21.056 -0.1652 -0.1267 -0.0216
33923W        W76976  14.817   0.429  20.967 -0.3778  0.2988 -0.2808
33924W        W76977  24.543   1.241  22.338 -0.0376 -0.0647 -0.1202
33925W        W76978  32.017  32.205  20.198 -0.1428 -0.0091 -0.0734
33926W        W76979   2.740  34.574   6.291 -0.1418  0.3356 -0.0148
33927W        W76980  20.152  28.282  18.688  0.2437 -0.4224 -0.0695
33928W        W76981   0.819   7.121   0.543  0.2503 -0.1539 -0.0565
33929W        W76982  15.159  17.987  12.902 -0.1023 -0.1041  0.0296
33930W        W76983   4.593  26.502  23.083 -0.1535  0.0736 -0.0460
33931W        W76984   2.077  33.247  15.537 -0.1099 -0.0304  0.0930
33932W        W76985   6.619  30.485   5.976 -0.0244  0.1019  0.0133
33933W        W76986   1.920  34.259  18.174 -0.2440  0.0075  0.3306
33934W        W76987  19.431   2.382  28.614 -0.0524  0.2200 -0.0973
33935W        W76988   0.738   8.503  19.505 -0.0266 -0.1649 -0.0834
33936W        W76989  13.819  25.832  23.152  0.0732  0.2759  0.1204
33937W        W76990  29.186   3.512  15.955  0.0778  0.0344 -0.0834
33938W        W76991   9.978   1.473  22.550  0.0676 -0.2226 -0.5302
33939W        W76992  10.724  34.662  26.249  0.1236 -0.1827  0.0422
33940W        W76993  10.421  33.825  15.837  0.0769 -0.0313 -0.0403
33941W        W76994  10.523   4.350  23.282 -0.0876  0.1257  0.0796
33942W        W76995  20.031  22.093   1.182  0.0751  0.1309 -0.1013
33943W        W76996  10.189   0.163  17.666  0.3084  0.0223 -0.2093
33944W        W76997   9.068   3.333  23.629  0.1387 -0.2428 -0.1245
33945W        W76998  22.690  29.365  23.079  0.1170 -0.0791  0.4012
33946W        W76999  32.134  25.893  21.429 -0.3153  0.0284  0.0350
33947W        W77000   1.030  27.592  21.423 -0.0887  0.1722  0.0053
33948W        W77001   2.483  25.016  16.195 -0.2434 -0.1887  0.0815
33949W        W77002  14.029  25.309  23.059  0.0580 -0.1014  0.4297
33950W        W77003  10.764   8.534  24.306 -0.2446  0.2544  0.1839
33951W        W77004  22.458  33.065  26.371 -0.1061  0.0093 -0.1551
33952W        W77005   7.783   4.552   5.076 -0.1180 -0.1044 -0.2823
33953W        W77006  15.872  31.499   7.115  0.2010 -0.1915 -0.1299
33954W        W77007   4.788  32.527  18.955  0.3115 -0.0245  0.0163
33955W        W77008   3.461  29.231  18.542  0.2069  0.1345 -0.2099
33956W        W77009  21.814  15.984   5.170  0.2285 -0.0314 -0.0557
33957W        W77010  32.307   4.704  22.351  0.0133 -0.0431  0.1029
33958W        W77011  11.751  12.134  24.500 -0.0201 -0.3110 -0.0379
33959W        W77012  17.994  29.816  14.827 -0.0979 -0.2874 -0.1814
33960W        W77013  21.563  28.764   3.768 -0.1518  0.3059 -0.1287
33961W        W77014  13.011  34.257  25.770  0.0240 -0.0103  0.1129
33962W        W77015  16.277  19.976  29.120 -0.1594 -0.1318 -0.0175
33963W        W77016  21.665  34.215  14.591 -0.2980 -0.2715  0.0350
33964W        W77017   7.828   6.721  16.914 -0.2891  0.0309  0.2036
33965W        W77018  27.866  12.759  14.887 -0.2292  0.0495 -0.2151
33966W        W77019  16.226  28.705  18.320 -0.0303 -0.2743  0.3710
33967W        W77020  13.270  29.176  22.889 -0.1980  0.0043  0.1083
33968W        W77021  10.727  17.986  23.650 -0.1322  0.0915 -0.0327
33969W        W77022   0.832  27.340  24.944 -0.0926  0.1213 -0.0480
33970W        W77023  33.036  12.934  19.098 -0.0671 -0.2690  0.0888
33971W        W77024   7.451  27.074  16.228  0.1608  0.0053 -0.1551
33972W        W77025   1.541   9.922  22.019  0.0191 -0.1109  0.0537
33973W        W77026   5.056  26.306   0.244 -0.2894  0.0313  0.5010
33974W        W77027  11.407  28.518  19.419 -0.0758  0.1733  0.1252
33975W        W77028  14.579  29.534  28.771  0.1089 -0.1432  0.1075
33976W        W77029   0.297  24.157  21.063 -0.1504 -0.1042 -0.3143
33977W        W77030  10.320  22.824  15.702 -0.1862 -0.0763  0.0782
33978W        W77031  14.405  10.838  18.983  0.1977  0.0336  0.1026
33979W        W77032  24.980   1.764  20.640  0.0680  0.1709 -0.1805
33980W        W77033  12.620  33.871   1.838  0.2242 -0.0622 -0.0841
33981W        W77034  31.238  10.882  20.059 -0.1018 -0.2465  0.3673
33982W        W77035   4.412  26.322  27.914 -0.1456  0.2109  0.2263
33983W        W77036  16.896  24.681  28.149 -0.3102 -0.2724 -0.1277
33984W        W77037  10.350   4.933  28.933 -0.0851  0.0449 -0.0823
33985W        W77038   8.858   1.647  27.976  0.2476  0.1080 -0.3301
33986W        W77039  23.109  16.781  28.094 -0.2929 -0.1762 -0.2311
33987W        W77040   7.664  29.306  17.079 -0.1409  0.2649  0.2594
33988W        W77041  25.767   9.007  10.298 -0.2536 -0.0396  0.1273
33989W        W77042  12.167   6.540  18.111 -0.1838 -0.1190 -0.2794
33990W        W77043   7.757  19.507   3.297  0.3410 -0.1703  0.1886
33991W        W77044  12.761  28.714  13.111  0.0022 -0.0692  0.2814
33992W        W77045  12.694  16.239  15.814 -0.5184 -0.1382  0.3667
33993W        W77046  34.334   3.197  25.996 -0.0561  0.0413  0.1050
33994W        W77047  23.759   7.567  23.180  0.0900  0.0770  0.2184
33995W        W77048  30.283   0.721  18.261  0.1256  0.2044  0.0333
33996W        W77049   6.324  13.769   5.974 -0.1862  0.3065 -0.1134
33997W        W77050   9.729  33.280   4.008 -0.0361  0.0316  0.0500
33998W        W77051  29.561  31.229  15.780 -0.1577  0.4610  0.0711
33999W        W77052   6.654  28.023  29.128 -0.0069 -0.2195  0.1483
34000W        W77053   6.046  28.653  16.341  0.0612 -0.2650  0.2438
34001W        W77054  15.562   1.962  24.202 -0.1874  0.2226  0.1583
34002W        W77055  14.354   4.311  14.757 -0.0965  0.0445 -0.0780
34003W        W77056   8.987  31.029  18.321 -0.0419  0.2295 -0.3940
34004W        W77057   3.275  33.674  20.664 -0.0906 -0.3469 -0.0146
34005W        W77058  26.710   3.300   3.606 -0.1535  0.1323  0.0250
34006W        W77059   1.703  28.519   8.321  0.0405 -0.0724 -0.2782
34007W        W77060  30.008  34.385   0.037  0.1227  0.1778  0.2477
34008W        W77061  27.420   6.126  24.166  0.0844  0.0171  0.1995
34009W        W77062  11.493  29.605  13.193  0.1587  0.2718 -0.1765
34010W        W77063   5.715  32.876  20.703 -0.2530  0.0341 -0.3084
34011W        W77064  32.400   6.629  28.235  0.1214  0.0757  0.0890
34012W        W77065   5.672  24.513  19.440  0.0792  0.0273  0.0102
34013W        W77066   8.464   9.844  23.768  0.0622  0.1130  0.1807
34014W        W77067  16.648   1.492   5.553  0.2763  0.1785 -0.2153
34015W        W77068  16.013  23.772  16.066  0.1773  0.3127 -0.2196
34016W        W77069   2.675  28.349  25.422 -0.1152  0.3755 -0.2074
34017W        W77070  14.073  16.294   7.164 -0.0239 -0.3047  0.0249
34018W        W77071  11.753   6.597  21.728 -0.2527  0.2664  0.0586
34019W        W77072   9.491  31.325  27.077  0.1183  0.0925  0.0978
34020W        W77073   1.659  22.237   6.113  0.2330  0.2736  0.3949
34021W        W77074  20.988  13.107  15.460 -0.1579 -0.1983  0.1681
34022W        W77075  26.070  33.425   0.111  0.0184  0.1052 -0.0615
34023W        W77076  17.400  33.514  16.255  0.0677 -0.3688  0.1104
34024W        W77077   5.669   1.884  27.130  0.1384 -0.1682  0.0183
34025W        W77078  19.517  26.267  18.595  0.3261  0.1215  0.1121
34026W        W77079  19.426  29.526  17.895  0.1985  0.2799 -0.3116
34027W        W77080  15.730  20.816  16.335 -0.3823  0.1750  0.2228
34028W        W77081  33.423  24.924  21.253  0.0679 -0.0781  0.4112
34029W        W77082  15.474   6.345  23.724 -0.0581 -0.0427 -0.3863
34030W        W77083  33.043  34.214  18.852  0.3463  0.1511 -0.2890
34031W        W77084   8.736   0.428  17.799 -0.1200 -0.4368  0.0182
34032W        W77085   7.927  30.738  24.106 -0.1395  0.0331 -0.0932
34033W        W77086  29.610  23.505   7.453 -0.0889  0.0262 -0.3431
34034W        W77087   4.122  18.790  27.426  0.2664 -0.0281  0.1852
34035W        W77088  31.021  30.217  13.520 -0.1928 -0.0890 -0.2721
34036W        W77089  26.941  28.839  10.258 -0.1252 -0.1074  0.2269
34037W        W77090   4.448   2.843  23.666  0.0525  0.0205  0.0101
34038W        W77091   6.473   5.860  28.199 -0.1809  0.0705 -0.1807
34039W        W77092  14.863  25.906  22.841 -0.0985 -0.0606  0.1901
34040W        W77093   2.867   7.373  19.622 -0.0636 -0.0511  0.0243
34041W        W77094  15.754  12.344   3.253  0.3430  0.2442  0.1742
34042W        W77095  19.285  18.277   2.541 -0.0978  0.1866  0.0440
34043W        W77096  19.814   1.346  11.081  0.1322  0.1859  0.1599
34044W        W77097   5.281   1.867  27.454  0.2121  0.0412  0.0564
34045W        W77098  20.663  26.034  26.762  0.0024  0.2690 -0.0356
34046W        W77099  13.965   4.972   4.774  0.1920  0.1849  0.1587
34047W        W77100  14.225  18.531  14.896 -0.2191  0.1114  0.2701
34048W        W77101  14.538  32.171  19.825  0.0063 -0.0235  0.3219
34049W        W77102  33.348  32.833   1.062  0.3729  0.2288 -0.0783
34050W        W77103   1.216   1.079  25.438 -0.0888  0.1004  0.4404
34051W        W77104  10.862   6.434  25.394 -0.0681 -0.1504 -0.0731
34052W        W77105   3.265  31.047   3.330 -0.4942  0.0006 -0.2826
34053W        W77106  13.911  29.350  13.379 -0.0069 -0.0680  0.3090
34054W        W77107  28.449   9.796  23.723  0.3109  0.1237 -0.0414
34055W        W77108  17.255   9.615  22.180  0.0395  0.0831  0.1694
34056W        W77109  23.509  17.304  20.771 -0.3681  0.0682 -0.0570
34057W        W77110  32.494   0.096   1.642  0.1673  0.2551  0.2213
34058W        W77111  23.843   9.552  16.268 -0.0268 -0.0381  0.0482
34059W        W77112   3.822   4.233   1.485 -0.0326 -0.0777 -0.3524
34060W        W77113   2.067  31.889  19.058 -0.0571  0.1559  0.1497
34061W        W77114   6.420  27.498   0.818 -0.0881 -0.0736  0.0966
34062W        W77115  15.968  26.528   9.365 -0.3792 -0.2099 -0.1578
34063W        W77116  13.325  28.018  18.457 -0.0455 -0.3015 -0.1577
34064W        W77117   5.778   6.054  14.235 -0.1690 -0.2337  0.4776
34065W        W77118   0.446  16.223  24.393  0.0037  0.1239  0.1096
34066W        W77119   4.848  28.720  19.887 -0.0560 -0.2374  0.2030
34067W        W77120   0.917  33.834  16.087 -0.1035  0.0563 -0.0442
34068W        W77121  19.314  22.618  20.330 -0.2566  0.3693 -0.0176
34069W        W77122   6.587  31.951  18.178 -0.0264  0.2960  0.2262
34070W        W77123  12.798   8.096  26.193  0.1025 -0.0387 -0.0643
34071W        W77124  16.738  25.915  26.952 -0.1171  0.1900 -0.1523
34072W        W77125  11.307  12.858   0.207 -0.0347 -0.1138 -0.3652
34073W        W77126  10.341  23.626  21.411 -0.0306 -0.1212 -0.1359
34074W        W77127  31.732  25.710  20.545 -0.1753 -0.5331 -0.0924
34075W        W77128   1.993   1.154   5.315 -0.0904 -0.2925  0.0354
34076W        W77129  12.574  29.558  21.691  0.2791 -0.0931  0.1795
34077W        W77130   0.471  27.384  18.393  0.0281 -0.1564  0.0063
34078W        W77131   4.833   9.171  15.054 -0.2187  0.0238 -0.1669
34079W        W77132   5.170   3.876  27.905  0.2831  0.0812 -0.1698
34080W        W77133   6.434   2.247  19.670 -0.1366 -0.1111  0.0917
34081W        W77134   7.426   2.521  22.664  0.3176 -0.2378 -0.0189
34082W        W77135   8.440  29.063  17.946  0.1088  0.1260  0.1727
34083W        W77136   4.936  14.157   6.918  0.0640  0.0989  0.0411
34084W        W77137  17.441  31.596   2.076 -0.3436  0.2003  0.0832
34085W        W77138  27.595  16.445  25.251  0.0154  0.0538 -0.0123
34086W        W77139  11.073   5.239   6.966  0.2684 -0.2217 -0.2738
34087W        W77140  10.049  30.078  12.647 -0.0887 -0.2500 -0.1644
34088W        W77141  10.319   4.650  15.209  0.1109 -0.0470  0.2178
34089W        W77142  29.297  11.945  18.930 -0.3173 -0.1025  0.0312
34090W        W77143   9.960  30.902  16.076 -0.1841 -0.2075 -0.1952
34091W        W77144  31.470  29.339  19.419  0.2471 -0.0654  0.0964
34092W        W77145  13.481   5.541  20.421 -0.0624  0.1679 -0.0656
34093W        W77146   5.057  28.463   6.500  0.1051 -0.1754  0.1433
34094W        W77147  32.996   1.569   4.530 -0.0208  0.1629  0.2805
34095W        W77148   6.532  32.783  25.305 -0.0832  0.1587  0.0325
34096W        W77149  29.299  33.612  29.141 -0.2144  0.0582 -0.1238
34097W        W77150  34.104  33.315  26.135  0.1917  0.2622  0.0901
34098W        W77151   7.986  29.643  13.866  0.0104  0.2865  0.2113
34099W        W77152   7.014   4.401  14.464 -0.2859  0.1134 -0.1533
34100W        W77153   8.490  22.553  16.706  0.0144  0.2323 -0.0203
34101W        W77154  18.713   2.297  16.495  0.1088 -0.0528 -0.0608
34102W        W77155   1.054   0.949  13.959 -0.1382  0.2996  0.2021
34103W        W77156   0.702  26.606  19.178  0.0286  0.0645  0.1728
34104W        W77157  10.212  17.550  26.023 -0.0140  0.0838  0.0645
34105W        W77158  32.160  24.933  19.125  0.1202 -0.1108  0.1125
34106W        W77159  17.343   3.851  16.683 -0.1063  0.1291 -0.0395
34107W        W77160   6.780  15.605  20.692  0.1482 -0.2607 -0.1063
34108W        W77161  13.682   4.908  17.694 -0.1787 -0.0506 -0.0978
34109W        W77162  14.854  10.602   9.804 -0.0300  0.0282  0.5647
34110W        W77163   0.247  21.820  22.049  0.0155  0.1024  0.1505
34111W        W77164   4.728  13.742   5.422 -0.1474 -0.0406 -0.0056
34112W        W77165   5.152  30.445  23.978 -0.0134 -0.2374 -0.0908
34113W        W77166  25.979  29.521  15.008  0.3549  0.2571 -0.0683
34114W        W77167  27.266  31.475  14.066 -0.2022  0.0318 -0.1479
34115W        W77168  12.586  25.296  23.935 -0.1445 -0.1751  0.1012
34116W        W77169  31.271   9.319   0.145 -0.0987 -0.4171 -0.1669
34117W        W77170  11.897  32.622   7.736  0.1466  0.0166  0.1720
34118W        W77171  27.524  14.442  25.491  0.2607 -0.2439  0.0459
34119W        W77172  29.516  29.709  19.479  0.1656 -0.1907  0.0288
34120W        W77173   5.988  12.906   5.376 -0.0254  0.1168  0.0281
34121W        W77174  14.455  20.333  26.393 -0.0497  0.0248  0.2853
34122W        W77175  16.938  30.890  27.382 -0.1622  0.0465 -0.0663
34123W        W77176  14.100  14.551  24.304 -0.1965  0.1893  0.0665
34124W        W77177   2.913  17.230  19.758 -0.1000  0.3110  0.2025
34125W        W77178  13.148  11.441  16.370  0.0703 -0.1443  0.1509
34126W        W77179  21.294  34.456  15.858  0.0753  0.0802 -0.2496
34127W        W77180   7.247  29.332   0.063  0.2509  0.3155  0.0740
34128W        W77181   6.510   1.720   6.152 -0.4322  0.1467  0.3500
34129W        W77182  24.450  19.761   7.122 -0.1753 -0.3373 -0.0397
34130W        W77183  31.307  12.151  26.901 -0.0073  0.1185 -0.3552
34131W        W77184   4.233   2.583  27.029  0.2150 -0.0661 -0.2721
34132W        W77185  20.744   3.119  18.394 -0.0191  0.2240 -0.2671
34133W        W77186  12.830   4.386   1.851  0.3623  0.0771  0.0226
34134W        W77187   2.628  17.712  13.625 -0.1366  0.2848 -0.2037
34135W        W77188   5.448  33.346  22.409 -0.0670 -0.0048 -0.0132
34136W        W77189  29.126  20.480  25.119 -0.2370  0.1208 -0.0710
34137W        W77190   4.470  30.817   7.891 -0.1902 -0.2612  0.2827
34138W        W77191   6.032  28.512  19.328  0.1337 -0.0883 -0.3869
34139W        W77192  31.866  24.721  15.972  0.0772 -0.0484 -0.0204
34140W        W77193  34.361  15.546  22.649 -0.0378  0.0312 -0.2812
34141W        W77194  29.429  20.636  15.706 -0.0078 -0.1322 -0.0146
34142W        W77195   4.493  24.003   0.751  0.0957  0.0367 -0.0523
34143W        W77196   4.812   1.566  17.928  0.3822 -0.3432  0.0282
34144W        W77197  13.293  34.507  23.191  0.3710 -0.2051  0.1685
34145W        W77198  12.815   1.533  24.263  0.1025  0.3450 -0.1585
34146W        W77199  20.616  27.755  21.775  0.2344 -0.0316  0.1577
34147W        W77200  11.853  32.724   0.249 -0.1598  0.1514  0.2999
34148W        W77201  29.688  19.585  15.531 -0.0628 -0.2450 -0.0411
34149W        W77202   6.605   2.294   9.943 -0.3261  0.1120 -0.1376
34150W        W77203   5.278  32.589  28.444 -0.1011  0.2692  0.1084
34151W        W77204   1.180   9.747  26.968 -0.1458  0.0032 -0.1610
34152W        W77205   5.033   8.106   3.070  0.1787 -0.0027 -0.0437
34153W        W77206  28.653   7.106  20.775  0.2334 -0.0512 -0.1781
34154W        W77207   9.649  23.304  17.197 -0.1690  0.1647 -0.3698
34155W        W77208   8.717   8.058  25.857  0.1242  0.2490 -0.0338
34156W        W77209   6.549  33.052   7.523  0.0274 -0.0700 -0.1248
34157W        W77210   3.160  20.662   4.937 -0.4343 -0.2222  0.2443
34158W        W77211  27.015  22.587  21.940  0.0258 -0.2392 -0.1110
34159W        W77212   5.894  26.392  14.836  0.1724 -0.1439  0.1276
34160W        W77213  28.909  17.044  25.580 -0.1523 -0.0269 -0.1728
34161W        W77214   3.493  22.061  17.150  0.3173  0.0335  0.2144
34162W        W77215   8.474   4.128   7.907  0.1700  0.1138  0.0852
34163W        W77216  13.733  17.469  14.358 -0.6514  0.1789  0.1003
34164W        W77217  12.632  19.417  15.105 -0.1618 -0.0313  0.1172
34165W        W77218   5.770  30.411   4.105  0.1649  0.0784  0.1406
34166W        W77219   3.649  31.626  15.207 -0.1691 -0.2493  0.0736
34167W        W77220  12.351  29.390  28.577  0.2781 -0.0887 -0.0337
34168W        W77221   5.628  31.644  14.904  0.3708  0.1098 -0.0648
34169W        W77222   0.809  32.342   5.733 -0.0976 -0.1719 -0.1800
34170W        W77223   1.898  29.857   8.151  0.2996 -0.2121  0.0479
34171W        W77224   6.849   6.351  18.554 -0.0627 -0.0477  0.1127
34172W        W77225   0.586   7.221  16.438 -0.1104 -0.0443  0.3475
34173W        W77226  11.485   7.847  17.196  0.0503  0.0458  0.3520
34174W        W77227   5.229   0.426  27.992  0.1250 -0.0119 -0.1728
34175W        W77228   4.823  31.609  27.019  0.1153  0.0492 -0.1887
34176W        W77229   6.432   0.376  14.767  0.0372  0.2562  0.1180
34177W        W77230  23.044  19.235  16.074  0.1164  0.0506  0.0787
34178W        W77231   3.608  31.709   2.857  0.2155 -0.1755 -0.1909
34179W        W77232   6.381  23.378  13.577 -0.2453 -0.3428 -0.1644
34180W        W77233   2.953   9.961  26.287 -0.0995 -0.3797 -0.0007
34181W        W77234   4.058  28.956  22.111  0.2761  0.1598 -0.2426
34182W        W77235  10.930  27.824  19.059 -0.0641  0.1281 -0.0921
34183W        W77236  34.374  27.859  28.303  0.1883  0.1572  0.1226
34184W        W77237   1.342   8.950  16.419 -0.1383 -0.0072 -0.0767
34185W        W77238   5.429  10.496   2.730  0.1683 -0.0271  0.1638
34186W        W77239   3.334   0.256  28.172 -0.1309 -0.0713 -0.2798
34187W        W77240  21.887  27.515  19.254  0.1034 -0.0531  0.1034
34188W        W77241   9.545  12.214   3.557  0.3003 -0.0767  0.1171
34189W        W77242  22.348  28.650   3.381  0.0786 -0.0221  0.2259
34190W        W77243  27.551   1.486  27.839 -0.1311  0.0221  0.0990
34191W        W77244  28.576   1.135  18.955  0.0095  0.0890 -0.1021
34192W        W77245  11.360   3.528  14.473  0.3953  0.1127  0.0533
34193W        W77246   2.000  34.023  20.008 -0.1045 -0.2271  0.2505
34194W        W77247  12.998  15.084  17.508 -0.1185  0.2099 -0.4735
34195W        W77248  32.325  29.895  24.528 -0.2415 -0.0445 -0.2381
34196W        W77249  14.822  31.057  27.052 -0.3393 -0.4366 -0.1675
34197W        W77250  33.335  24.658  20.670 -0.0968  0.2475  0.3991
34198W        W77251   8.263   8.430  18.633 -0.1904 -0.0095 -0.0948
34199W        W77252  15.522  20.526  27.790  0.3860  0.3674  0.1571
34200W        W77253  24.944   6.418  27.582 -0.0839 -0.0107  0.2632
34201W        W77254  21.836  19.945  27.574 -0.0790 -0.0701 -0.1638
34202W        W77255   7.299   0.235  27.241  0.2915  0.0218 -0.0701
34203W        W77256  29.962  28.622  14.322  0.1358  0.0737  0.1195
34204W        W77257  13.033   1.563  25.223 -0.2660  0.0527  0.2524
34205W        W77258   8.974  30.430   6.625  0.0249 -0.0881  0.0367
34206W        W77259  11.965   0.953   0.932  0.0572 -0.0352 -0.2604
34207W        W77260  26.037   8.570   3.840 -0.0323 -0.0637 -0.4914
34208W        W77261  17.049   9.168  16.668 -0.2506 -0.1463  0.2447
34209W        W77262  10.609   3.707  26.973  0.0724  0.0862  0.1041
34210W        W77263  15.172  21.652  15.243 -0.0925 -0.2124  0.0876
34211W        W77264  11.718   2.645  19.754  0.3696 -0.0816 -0.1273
34212W        W77265  33.353  28.054  21.166  0.0399  0.1713 -0.0948
34213W        W77266   2.150   3.578  23.536  0.1320 -0.0709 -0.1248
34214W        W77267   8.724  30.328  28.164  0.0115 -0.0483  0.1446
34215W        W77268  26.594  28.263   5.972 -0.0100  0.0695 -0.0694
34216W        W77269  33.525  25.967   7.659  0.0245  0.1816 -0.1048
34217W        W77270   8.185  33.112  14.748  0.0916 -0.2586  0.0413
34218W        W77271  33.898  23.839  14.803  0.0438 -0.4007  0.1497
34219W        W77272   8.716   4.901  16.656 -0.0913 -0.0267  0.1434
34220W        W77273  24.659  28.598  23.176  0.2502  0.0598 -0.1613
34221W        W77274  12.974  27.658   4.670  0.1950  0.0932 -0.0382
34222W        W77275  26.143  22.808  15.520 -0.1792  0.1623 -0.2670
34223W        W77276  23.431  25.651  24.120  0.1342 -0.2191 -0.3746
34224W        W77277   8.326   6.984  25.883 -0.2109  0.1053  0.1013
34225W        W77278  16.655  24.306  16.685  0.2599 -0.0008 -0.0755
34226W        W77279   9.315  33.657   5.624  0.5004  0.1216  0.0328
34227W        W77280  34.347  22.646  21.596  0.0580 -0.2949  0.3179
34228W        W77281   1.810  10.635  15.729 -0.2134  0.1679  0.0513
34229W        W77282  32.100  20.718  18.906  0.0483  0.1327 -0.0522
34230W        W77283   6.907  14.462   2.725 -0.0017 -0.0963  0.1292
34231W        W77284   3.216  10.692  28.552  0.0783 -0.0396 -0.1783
34232W        W77285   9.916  30.782  15.045 -0.0235  0.1921  0.0791
34233W        W77286  16.362  29.162  25.710 -0.1688  0.2576 -0.1985
34234W        W77287  14.979  26.322  21.149  0.3088 -0.1798  0.1033
34235W        W77288   1.586  14.197  14.196  0.1034 -0.0680 -0.0343
34236W        W77289  10.140  16.137   7.398 -0.1037  0.0341  0.3866
34237W        W77290  25.825  17.916  21.323  0.0210  0.2201 -0.0319
34238W        W77291   3.781  21.738  17.596  0.0675  0.2068 -0.0215
34239W        W77292  17.524  28.303   5.143 -0.2300 -0.0485 -0.0864
34240W        W77293  25.509  28.559  20.721 -0.1452 -0.3676  0.0303
34241W        W77294  11.610   4.546  19.246 -0.2318  0.1381 -0.0682
34242W        W77295   2.973  30.042   1.834 -0.2555  0.2932 -0.3108
34243W        W77296  10.797  10.891   0.847  0.0864 -0.2021  0.0596
34244W        W77297  26.165  19.415  28.657  0.1689 -0.0468 -0.1856
34245W        W77298   0.402   2.375   1.995 -0.1668  0.0148 -0.2215
34246W        W77299   8.658  20.636  24.959 -0.0402  0.0770 -0.2323
34247W        W77300   9.357  31.963   8.740  0.0917  0.2971 -0.4451
34248W        W77301  32.282  27.111  28.887  0.0783  0.0788 -0.0256
34249W        W77302  28.147   7.350  21.435 -0.2088  0.1293  0.1821
34250W        W77303   4.806   0.959   9.158 -0.1790 -0.3913 -0.0695
34251W        W77304   3.265  31.468   0.804 -0.1915 -0.0832  0.0273
34252W        W77305   3.455   5.748   8.437  0.0494  0.1785  0.0237
34253W        W77306   1.901  32.555   3.285 -0.1565  0.2305  0.1383
34254W        W77307  14.105  23.812   0.607 -0.0667 -0.1249 -0.1382
34255W        W77308  33.724   6.532  28.121  0.0708 -0.2482  0.1586
34256W        W77309  15.532   9.006  26.807 -0.3900  0.2584 -0.0845
34257W        W77310   4.321   6.906   8.171  0.1304 -0.1742 -0.2091
34258W        W77311   5.491  17.065  26.490 -0.4257  0.0722 -0.1589
34259W        W77312  14.697  13.395   0.369 -0.0399  0.0424 -0.2467
34260W        W77313  20.692   5.127   1.022  0.1223 -0.1152 -0.0846
34261W        W77314   9.277  30.962  13.281  0.1363  0.1866 -0.1134
34262W        W77315   5.917  21.696  21.667  0.3505  0.0125 -0.0859
34263W        W77316  11.182   1.870   5.320  0.0933 -0.1287  0.1692
34264W        W77317   4.560  25.740  18.083  0.2847 -0.0543  0.1304
34265W        W77318  25.901  31.123   2.325 -0.0146 -0.0934 -0.0961
34266W        W77319   3.728   8.706   1.969 -0.2097 -0.0816  0.0405
34267W        W77320   9.700  27.460  15.205 -0.1157 -0.2231 -0.0575
34268W        W77321  11.650  22.989  15.828  0.0174  0.1218  0.0775
34269W        W77322  20.841  10.595  21.778  0.1380  0.0524 -0.1264
34270W        W77323  30.892   1.180  17.497  0.0285  0.1914 -0.3333
34271W        W77324  30.040  28.033  24.347 -0.1823  0.1358  0.0717
34272W        W77325   4.136   0.851   9.047  0.1078 -0.0239  0.0263
34273W        W77326   5.612   6.086  19.194 -0.2333  0.2964 -0.2010
34274W        W77327  11.317  34.508   3.865 -0.2540  0.1945 -0.1394
34275W        W77328  21.724  24.022  20.543  0.1159 -0.2968 -0.2501
34276W        W77329   8.408   6.835  21.741  0.0298  0.1215  0.0372
34277W        W77330  11.251  22.208  27.118 -0.0560 -0.0694 -0.1225
34278W        W77331  31.316  22.903  25.031 -0.2853  0.0008 -0.0046
34279W        W77332   5.016   1.388  14.311 -0.2698 -0.1933  0.1015
34280W        W77333   6.342  33.014  15.241 -0.3109  0.0156 -0.3097
34281W        W77334   8.980  31.218   7.231  0.1557 -0.0018 -0.0356
34282W        W77335  11.733   5.828   6.692 -0.1188 -0.0644  0.0952
34283W        W77336   4.979  29.375  19.518 -0.4420  0.1361 -0.1989
34284W        W77337  28.164  25.276  19.047  0.0940  0.2708 -0.1032
34285W        W77338   9.992  20.291  20.854 -0.2459  0.2252  0.1508
34286W        W77339   5.953   0.590   0.539  0.2618 -0.0190 -0.2108
34287W        W77340   6.685  23.193  24.709 -0.2312  0.4966 -0.1933
34288W        W77341   3.465  34.371   1.500 -0.2227 -0.0159 -0.0786
34289W        W77342  17.072   6.007   2.456  0.5006  0.2468  0.3018
34290W        W77343  14.823   4.223   0.820 -0.0026 -0.2219 -0.2491
34291W        W77344  15.492  24.068  21.688  0.2818  0.1591  0.1043
34292W        W77345   3.351  33.141  17.076  0.4067 -0.0088 -0.1583
34293W        W77346  14.556  25.814  21.436  0.3501 -0.3016 -0.3848
34294W        W77347   9.774  15.749  20.387 -0.2035  0.2073  0.2131
34295W        W77348  10.178   5.097  14.858 -0.2966  0.0721 -0.0535
34296W        W77349   7.805  30.577  23.327  0.2293  0.1597 -0.2328
34297W        W77350   7.894  20.676   4.463  0.0457 -0.1191  0.1427
34298W        W77351   4.749  25.862  18.569  0.3390 -0.2223  0.0738
34299W        W77352  23.015  25.896  23.791 -0.0531 -0.1778 -0.0645
34300W        W77353  12.486  10.240  16.533  0.1089  0.1874 -0.1930
34301W        W77354   4.086  31.247  23.266  0.0121  0.1322 -0.0444
34302W        W77355   9.934  12.873  22.884 -0.1948 -0.2845  0.1415
34303W        W77356   2.806  26.777  15.113  0.0096  0.0846 -0.0175
34304W        W77357  21.798   6.145  14.152  0.2425  0.1339 -0.3216
34305W        W77358  25.322  20.528  21.735 -0.2277  0.0048 -0.2062
34306W        W77359   2.898  26.694  22.299  0.2837 -0.2017 -0.2815
34307W        W77360   0.304  28.348  20.742  0.1055  0.1431 -0.1136
34308W        W77361  30.729   7.417  26.709  0.2410  0.0994  0.0272
34309W        W77362   6.772   4.576  14.879 -0.0367  0.0466 -0.2079
34310W        W77363  11.172  31.486  14.503 -0.0241 -0.0719  0.2080
34311W        W77364   5.504  32.854  27.855 -0.0690  0.1649  0.0561
34312W        W77365   0.143  33.826  14.291  0.4571  0.1694  0.0479
34313W        W77366  32.966  27.507  28.505  0.1005 -0.1173 -0.0712
34314W        W77367  18.620  32.679  16.460 -0.1157 -0.2935  0.0059
34315W        W77368  20.425  32.699  16.665  0.1760 -0.0444 -0.2201
34316W        W77369  10.817   0.305  19.691  0.0872 -0.1237 -0.0997
34317W        W77370   6.318  15.958  23.426  0.2224 -0.0016 -0.1583
34318W        W77371  30.589  16.115  14.530  0.0552 -0.1588 -0.0517
34319W        W77372   7.025  29.329  15.092 -0.0614  0.2981  0.3757
34320W        W77373  12.387  21.651   7.776  0.0036  0.0965  0.3579
34321W        W77374  10.978  27.350  18.866  0.1034  0.2268 -0.0082
34322W        W77375  27.646   1.264  24.423 -0.1583 -0.0089 -0.0314
34323W        W77376   5.421  18.649  28.045 -0.0436 -0.1209  0.2038
34324W        W77377   0.840   1.567  26.140 -0.0969  0.1148  0.1136
34325W        W77378   8.257  26.650  15.742 -0.0354 -0.0860 -0.0941
34326W        W77379   1.866   3.255  16.982 -0.1370 -0.1301 -0.3309
34327W        W77380   7.597  21.472  24.246  0.0636 -0.0147 -0.3482
34328W        W77381   4.605   1.448  13.836 -0.1563  0.2600  0.1756
34329W        W77382   0.423  16.016  18.595 -0.0286 -0.0346 -0.1526
34330W        W77383  18.433  34.290   0.582  0.1581 -0.2655  0.1940
34331W        W77384  21.860  30.825   5.803  0.2100  0.0547  0.0665
34332W        W77385  15.691  18.812  26.121  0.3999 -0.0780 -0.0215
34333W        W77386  22.968  32.019  22.944 -0.3730  0.1492  0.1514
34334W        W77387  12.409   1.168  29.126 -0.5128  0.2012  0.0303
34335W        W77388  17.891  33.900  16.137  0.0910  0.2068 -0.1902
34336W        W77389  25.328  19.925  22.682  0.0353 -0.0509  0.0032
34337W        W77390  13.170  16.369  26.395  0.2853  0.1772  0.0338
34338W        W77391   2.129  17.757  13.599 -0.0000 -0.2147 -0.2766
34339W        W77392  34.420  20.735  23.689 -0.1998 -0.1993 -0.1305
34340W        W77393  17.978  25.580  21.110 -0.1412  0.1408  0.1021
34341W        W77394  23.781   6.196  25.474 -0.0361  0.1094 -0.0851
34342W        W77395  33.326  28.177   8.292  0.0442  0.3160  0.0038
34343W        W77396  26.962  33.212  29.193  0.0499 -0.0610 -0.0415
34344W        W77397  14.843   2.455  24.606  0.1885  0.1158  0.0067
34345W        W77398  17.906   2.053   8.432  0.0548  0.0073 -0.0003
34346W        W77399  11.683   9.925  10.799  0.2771 -0.0126 -0.3593
34347W        W77400  10.539  17.642   2.665  0.2551  0.1237 -0.1562
34348W        W77401  31.461  26.638  22.429 -0.0631 -0.1697 -0.0145
34349W        W77402  10.236  19.219  24.188 -0.1472  0.5181  0.3825
34350W        W77403  30.801  25.165  16.004  0.2448 -0.2945  0.0283
34351W        W77404   3.129  25.242   3.629 -0.1520  0.1599  0.1311
34352W        W77405  11.219  27.477  23.000 -0.1416 -0.0069  0.0740
34353W        W77406  23.126  20.332  26.202 -0.1396 -0.0542 -0.0929
34354W        W77407   6.437   3.740  26.362 -0.1657 -0.1187 -0.2999
34355W        W77408  14.901   1.242  18.481 -0.1031 -0.0130 -0.1312
34356W        W77409  10.040  19.623   7.498 -0.2812  0.1105  0.0651
34357W        W77410  11.342  20.739   4.625  0.1434  0.0367 -0.3533
34358W        W77411   0.940   0.971  26.221 -0.1520  0.1078 -0.0651
34359W        W77412   1.604  12.055   8.468 -0.0461  0.1712 -0.3956
34360W        W77413   3.862  29.893  25.736 -0.2648  0.1973  0.2142
34361W        W77414  15.464  19.009  13.662 -0.2951 -0.2427  0.0507
34362W        W77415   7.206   1.102   5.719  0.4515 -0.4062  0.1358
34363W        W77416   1.494   0.961  14.294 -0.0210 -0.0164  0.1894
34364W        W77417  32.829   4.585  25.009 -0.0140 -0.0464 -0.0699
34365W        W77418  24.933  12.016  22.812 -0.1920 -0.1923 -0.0657
34366W        W77419   0.358  28.920  28.785  0.1547 -0.2838  0.0450
34367W        W77420  31.752  28.060  23.304  0.3796  0.1902 -0.1450
34368W        W77421   6.810  14.664  10.530 -0.1397 -0.1092 -0.0212
34369W        W77422  24.155  25.143  16.371 -0.0737 -0.0629 -0.0414
34370W        W77423   1.273  13.625  23.765 -0.0894 -0.0647 -0.2692
34371W        W77424  34.370  26.428  20.697  0.1433  0.2248 -0.0494
34372W        W77425   1.642  20.262   0.657  0.0289 -0.0300 -0.0435
34373W        W77426   3.466  28.328  23.607  0.2044 -0.3473  0.3921
34374W        W77427  25.736  29.573  28.232  0.1645  0.1719 -0.2227
34375W        W77428  11.742  14.990  24.485  0.1934  0.1737 -0.0273
34376W        W77429   3.677  29.251   4.937 -0.1830  0.2238 -0.1419
34377W        W77430   7.023  32.507  21.141  0.3386  0.1792  0.1598
34378W        W77431  12.896  11.273  26.240 -0.1617  0.0728  0.3665
34379W        W77432   7.773   1.753  22.984 -0.0210 -0.2392 -0.0142
34380W        W77433  22.639  14.030  19.320 -0.0819  0.0729 -0.1272
34381W        W77434  34.072  32.949   2.546 -0.0017 -0.3032 -0.0199
34382W        W77435  29.144   4.267  19.639 -0.0388 -0.1948 -0.2203
34383W        W77436  22.108   6.301   7.952  0.0324  0.1838 -0.1433
34384W        W77437   9.340  28.767   0.937 -0.1465  0.0663 -0.1950
34385W        W77438   3.427  23.817  19.976  0.0020  0.3483  0.1628
34386W        W77439  14.448  22.697  17.436  0.2405  0.0488 -0.0628
34387W        W77440  17.157  31.341  24.564 -0.0591 -0.2519  0.2215
34388W        W77441   1.495  32.728  28.509  0.1410  0.0292  0.1919
34389W        W77442  16.930  23.480  19.652 -0.3307 -0.0907  0.0230
34390W        W77443  10.314   1.573   8.849  0.0492  0.2508  0.0913
34391W        W77444  12.397   8.330  17.499 -0.1580  0.1896 -0.1253
34392W        W77445  26.139  10.420  28.277 -0.0937 -0.3873  0.0161
34393W        W77446  23.291  27.564  27.515 -0.3150  0.0154  0.2002
34394W        W77447   7.519   5.338  25.384 -0.3328  0.2791  0.0415
34395W        W77448  27.834  30.453  19.969 -0.0122 -0.0623 -0.0698
34396W        W77449  18.095  10.179   1.915 -0.2884 -0.1284 -0.0215
34397W        W77450   5.254  19.576  23.312 -0.0830  0.1380  0.1003
34398W        W77451  31.662  28.073  27.787  0.1205 -0.3380 -0.0596
34399W        W77452   2.657  19.230  28.581 -0.2651 -0.1522 -0.2341
34400W        W77453  16.246   3.598  26.214  0.4102  0.1281 -0.1060
34401W        W77454   9.754  21.935   4.368  0.2368  0.2647  0.0759
34402W        W77455   2.844  20.709  20.321  0.1411  0.1410  0.2034
34403W        W77456   2.483  24.544  19.350  0.0725  0.1455  0.0927
34404W        W77457  26.687   3.121  23.029  0.0180  0.0799 -0.2121
34405W        W77458   1.148   8.864  18.706  0.0564  0.2205 -0.0949
34406W        W77459  28.969  20.334  16.596 -0.0836 -0.2205 -0.0455
34407W        W77460  13.134  10.624  26.304  0.3364  0.2501  0.0316
34408W        W77461  17.237  25.660  18.201  0.0202 -0.1470  0.4907
34409W        W77462   9.117   7.230  15.647 -0.2650 -0.0223 -0.1347
34410W        W77463  16.834   4.480   3.553 -0.0292  0.0839  0.1950
34411W        W77464  14.281   3.390  25.227  0.1823  0.1354  0.0246
34412W        W77465   1.914  32.162   5.366  0.0386 -0.1736  0.3252
34413W        W77466  22.881  32.247   2.485  0.1522  0.1842  0.1348
34414W        W77467   4.641  33.949   5.036 -0.0543 -0.1715 -0.0614
34415W        W77468  21.768  15.183  21.733 -0.1486  0.0721  0.0099
34416W        W77469  25.213  28.208  22.420  0.1157 -0.0455 -0.0920
34417W        W77470   3.021  11.659   7.304 -0.0461  0.2011  0.1312
34418W        W77471   7.958  28.461   6.259 -0.2039  0.0546  0.2272
34419W        W77472  32.602   3.543   0.367  0.0357  0.1221  0.1631
34420W        W77473  14.395  12.147  22.040  0.2148 -0.1889 -0.2563
34421W        W77474   3.089  18.025   2.273 -0.0090  0.1468 -0.0774
34422W        W77475  16.815  27.706  25.259 -0.0300  0.2086  0.0422
34423W        W77476   9.450  30.912  24.526 -0.1370 -0.2197  0.1764
34424W        W77477  17.760  34.282   0.913  0.2366  0.1641  0.0145
34425W        W77478  11.872   6.672   7.397 -0.0296 -0.0361  0.0052
34426W        W77479  18.805   1.810  28.226  0.3300  0.1379  0.1710
34427W        W77480  12.746   7.367  17.206  0.0451 -0.1337  0.2625
34428W        W77481  33.728  23.792  27.529 -0.2476  0.1680  0.1950
34429W        W77482  24.336  32.647   5.900 -0.0887  0.1281  0.4894
34430W        W77483   2.750   4.426   2.280 -0.0833 -0.2734 -0.1863
34431W        W77484  27.145  33.903  28.053 -0.2192  0.1648  0.2314
34432W        W77485  27.831  33.718  29.051  0.1395 -0.0017  0.0598
34433W        W77486  33.123  23.705  23.486 -0.0924 -0.1513  0.0611
34434W        W77487  24.430   3.928  28.681  0.0758 -0.1668 -0.1517
34435W        W77488  20.903  22.294  17.752  0.2808 -0.0573  0.2117
34436W        W77489   0.979  29.802  22.503  0.1891  0.1657  0.0488
34437W        W77490  11.299   1.523  28.667  0.0144  0.1828  0.0864
34438W        W77491  29.480  25.619  15.436  0.1828 -0.1904  0.2045
34439W        W77492  10.793   6.578  22.816  0.0071  0.0587 -0.2214
34440W        W77493   3.605  22.859  23.624  0.2893 -0.1595  0.0908
34441W        W77494  13.128   1.762  20.782 -0.1958 -0.0423  0.2253
34442W        W77495  30.199  33.172  16.759  0.1728 -0.1795  0.2604
34443W        W77496   3.537  12.187  23.474 -0.0178 -0.2241  0.0988
34444W        W77497  11.936   9.926  28.699 -0.2031 -0.3258 -0.0703
34445W        W77498  18.974  34.364   5.624  0.3494 -0.0188  0.1470
34446W        W77499  14.993  32.447   3.406 -0.2500  0.0071 -0.0251
34447W        W77500   4.464  33.401   3.284 -0.1343 -0.1054 -0.0354
34448W        W77501   7.118   6.111   1.488 -0.0011 -0.0488  0.0469
34449W        W77502  29.292  15.537  18.743 -0.0157 -0.1521 -0.1663
34450W        W77503  33.453   3.929  18.577  0.1226  0.1569  0.0619
34451W        W77504  12.955   0.660  18.140  0.1638  0.3857  0.2326
34452W        W77505  34.077  14.727  20.722 -0.0162  0.0232  0.1088
34453W        W77506  14.958  31.423  19.934  0.1420 -0.1535  0.1823
34454W        W77507   6.497   4.294   0.956  0.3153  0.0599  0.0064
34455W        W77508  12.148  34.637  18.248 -0.2680 -0.0938 -0.0969
34456W        W77509  33.819   7.973  16.145 -0.1391 -0.0343 -0.1697
34457W        W77510   1.865  25.065   2.243  0.0839  0.1137 -0.0728
34458W        W77511  15.437  27.066  22.323 -0.4960 -0.2615 -0.0003
34459W        W77512   2.926  16.852  14.783 -0.1933 -0.1471 -0.4515
34460W        W77513  34.439  20.702   1.532 -0.0927 -0.0374  0.0319
34461W        W77514  27.077  26.874  16.394 -0.1239  0.1894  0.2438
34462W        W77515  23.365   5.443   0.991  0.1336 -0.0701  0.1151
34463W        W77516  32.710   6.657   0.033 -0.3254  0.0513 -0.1072
34464W        W77517   7.027  17.836  16.228  0.2058 -0.0789 -0.0840
34465W        W77518  30.227  11.848  14.397 -0.0345 -0.0724 -0.0853
34466W        W77519  32.033  27.673   3.108  0.1899 -0.1607  0.0657
34467W        W77520  10.375  10.659  19.143  0.0962  0.1924  0.1042
34468W        W77521  12.533  16.285  17.055 -0.2851 -0.0754  0.2135
34469W        W77522   3.982  30.648   9.121 -0.5300 -0.2122  0.1189
34470W        W77523   2.455  26.723  28.700  0.1480 -0.1380 -0.1027
34471W        W77524   9.742  25.474  25.039 -0.0941 -0.0503  0.1607
34472W        W77525  12.337   8.179  26.358 -0.3428  0.0979  0.4201
34473W        W77526  16.765  33.771  15.343 -0.1688  0.1576 -0.1161
34474W        W77527   9.285  12.448  20.557 -0.2627 -0.1533 -0.2634
34475W        W77528  28.263  24.397  17.343  0.1400 -0.1727 -0.4982
34476W        W77529  19.263  19.920   7.096 -0.0289  0.0301  0.1096
34477W        W77530  26.130   7.727   7.442  0.1083  0.1815  0.1684
34478W        W77531  31.834  20.975  22.475 -0.2697  0.3060 -0.3348
34479W        W77532  16.526  27.160   8.251 -0.2548  0.1287  0.0747
34480W        W77533   2.217  19.409   8.380  0.0682 -0.0768 -0.0576
34481W        W77534   1.077  25.323   8.030  0.1659 -0.2222  0.2464
34482W        W77535  14.680  25.904  27.743  0.0440 -0.0812  0.0220
34483W        W77536  30.016  23.944  25.376  0.0346  0.1347  0.0436
34484W        W77537  12.479   6.749   6.034  0.2388 -0.1644 -0.3339
34485W        W77538   9.606   1.379  17.155  0.2253 -0.0843 -0.0638
34486W        W77539   2.877  29.041   0.751  0.0164 -0.0335 -0.0007
34487W        W77540   6.185  32.227   4.134 -0.0208 -0.3281  0.0955
34488W        W77541  34.261  30.728  17.982  0.0880  0.0723 -0.2142
34489W        W77542   1.559   2.515  19.073  0.0672  0.3546  0.0941
34490W        W77543  14.172  31.052  15.292  0.3235 -0.0982 -0.0084
34491W        W77544   1.795  29.421   9.304  0.1373 -0.2507 -0.1465
34492W        W77545  11.566  26.570   1.171  0.1734  0.1141 -0.2349
34493W        W77546   0.153  32.966  22.055 -0.3017 -0.2324 -0.4832
34494W        W77547  20.013  22.657  14.740 -0.2031  0.1231  0.2571
34495W        W77548  19.815  29.124  23.848 -0.0437  0.2706 -0.1849
34496W        W77549   7.319  18.687   1.085 -0.0408 -0.1289 -0.1627
34497W        W77550  34.370  31.590  27.175 -0.2418  0.1918 -0.2987
34498W        W77551   2.432  24.477   8.782  0.0974 -0.2183  0.0048
34499W        W77552   2.611  30.991  24.932  0.1939  0.2172 -0.3943
34500W        W77553  34.186  30.903   5.757  0.4026 -0.1388  0.0920
34501W        W77554   0.881   5.834   3.790  0.0343 -0.3425  0.0153
34502W        W77555  19.971  20.929  27.663  0.0135 -0.0594  0.1850
34503W        W77556  27.046  32.710  26.283 -0.1765  0.0224 -0.1217
34504W        W77557  25.237  26.228  16.439  0.3478 -0.0221 -0.0055
34505W        W77558  28.692   5.624   1.508  0.1976 -0.2239  0.0502
34506W        W77559   7.761  33.985   0.931 -0.0108 -0.0160 -0.0561
34507W        W77560  15.065  30.674  26.607 -0.0698 -0.2257 -0.0590
34508W        W77561  21.557  23.047   4.679 -0.1453 -0.3687 -0.0728
34509W        W77562   4.727   9.395   1.969 -0.2065  0.3821 -0.1709
34510W        W77563   0.251  24.659  18.351  0.0563 -0.2792 -0.1365
34511W        W77564   7.248  34.487   6.932 -0.1099 -0.3257 -0.2074
34512W        W77565  32.079  28.257  21.842  0.1087  0.0362 -0.0467
34513W        W77566  30.080  31.131   0.600 -0.2030 -0.0781 -0.0009
34514W        W77567   9.797  34.402   6.067  0.0526 -0.2289 -0.1352
34515W        W77568  17.938  22.110   1.228 -0.0513  0.0251 -0.0153
34516W        W77569  22.973  17.773  18.540 -0.2776  0.0756  0.1395
34517W        W77570  33.088  27.042  28.223  0.0235 -0.0820 -0.2901
34518W        W77571   8.015  28.036   0.886 -0.1512  0.0038 -0.0342
34519W        W77572   6.832  25.737   6.282  0.0994 -0.0862 -0.1913
34520W        W77573  15.625  31.406   3.600  0.3632 -0.2608 -0.1851
34521W        W77574  13.592  23.044   9.112 -0.0499 -0.2862 -0.0199
34522W        W77575   1.251  23.250  19.306  0.0415  0.3157  0.1541
34523W        W77576  15.014  24.716  22.285 -0.4160  0.1126 -0.2837
34524W        W77577   7.194  14.279  28.699  0.0566 -0.0316  0.2033
34525W        W77578  31.334   0.296  23.862  0.0364  0.0046 -0.0328
34526W        W77579  24.490  26.383   0.548  0.5565 -0.1059  0.2134
34527W        W77580  17.939   8.573   8.524 -0.1530 -0.4460  0.1700
34528W        W77581  26.199  25.727  14.717 -0.2289 -0.0671  0.2411
34529W        W77582  10.338  33.211  22.404 -0.2649 -0.0766  0.0516
34530W        W77583   3.328  33.969   7.988 -0.0217  0.2001 -0.1511
34531W        W77584   5.709   3.924   2.690  0.1103 -0.2041  0.0159
34532W        W77585  11.949  30.437   8.950 -0.1589 -0.1471  0.1104
34533W        W77586  33.399  34.447  23.831 -0.0354  0.2421  0.2506
34534W        W77587   7.496  29.419  14.230 -0.0756 -0.0261  0.1898
34535W        W77588   8.137   0.598   1.266  0.0966 -0.1056 -0.0227
34536W        W77589   5.402   6.587   6.064 -0.1585 -0.1759  0.4704
34537W        W77590   2.803  12.710  16.221  0.0277 -0.1745  0.2090
34538W        W77591  16.892  27.891   2.772  0.1989 -0.0624  0.4050
34539W        W77592   9.680  25.712  20.321 -0.0417  0.0000 -0.0161
34540W        W77593  32.381  28.115   1.720 -0.2421 -0.3279 -0.2726
34541W        W77594   7.880  28.952   6.496 -0.2338 -0.0422  0.0563
34542W        W77595  11.088   4.405  17.919 -0.0045 -0.2021 -0.3574
34543W        W77596   6.284   4.870  28.185 -0.1044  0.3179 -0.2418
34544W        W77597  15.371  34.136  21.717  0.1158 -0.0168  0.0889
34545W        W77598  13.758  12.518  21.942  0.1742 -0.1570 -0.1124
34546W        W77599   4.478  23.646   2.396 -0.0102  0.5204 -0.1016
34547W        W77600   1.812  22.796  28.368  0.2318  0.0801 -0.1097
34548W        W77601   4.939   3.217  14.760 -0.1383  0.2173 -0.0836
34549W        W77602  14.579  30.280   6.583  0.1428 -0.0793  0.1786
34550W        W77603  33.445   6.851  20.668  0.3466  0.3311 -0.2133
34551W        W77604   4.309  17.193   0.610 -0.0418 -0.3403 -0.0592
34552W        W77605   5.632  23.906   4.787  0.0014  0.1074 -0.0677
34553W        W77606   2.882   8.634  17.445  0.0178  0.2380  0.4075
34554W        W77607  32.125  31.903  26.367 -0.2695  0.1411  0.0347
34555W        W77608   8.223  23.049   8.732 -0.2266 -0.2926 -0.0739
34556W        W77609  11.120   8.827   2.505  0.1021 -0.3370 -0.0667
34557W        W77610  12.248  27.856  13.866 -0.3408  0.2120  0.0408
34558W        W77611  31.765   3.581  26.866 -0.0902 -0.1324 -0.3439
34559W        W77612   6.543  28.286   1.346 -0.1928 -0.1105  0.1505
34560W        W77613   2.295  31.248  19.364  0.0332  0.1307 -0.0238
34561W        W77614   4.225  15.605  18.414 -0.1254 -0.0719 -0.0197
34562W        W77615  27.167  28.248  27.025 -0.0988  0.2809 -0.4394
34563W        W77616  33.231  20.410  17.112  0.4225  0.1836 -0.1974
34564W        W77617   9.709   9.140  18.074 -0.2128  0.1014  0.2452
34565W        W77618   5.342  13.436  26.080  0.0443  0.0817  0.2097
34566W        W77619   3.058  18.222   1.379  0.1122 -0.0429  0.0392
34567W        W77620   0.038  31.528  18.985  0.0098  0.0113 -0.0865
34568W        W77621  30.763  11.272  15.142  0.0397  0.1981 -0.1938
34569W        W77622   8.060  30.345  18.740  0.1063 -0.0819 -0.0527
34570W        W77623  17.975  21.826  26.194  0.1048  0.1050  0.0515
34571W        W77624   4.464   4.749  24.754  0.1967  0.1160 -0.1189
34572W        W77625  29.070  28.463  27.404  0.1431  0.0820 -0.0441
34573W        W77626  13.849   1.737  27.974  0.0293 -0.0701  0.0629
34574W        W77627  17.325  18.366  26.902 -0.2054  0.4308 -0.2584
34575W        W77628   8.866  19.306  21.449  0.1265 -0.1154  0.0137
34576W        W77629  18.851   3.281   4.739  0.0516 -0.1505  0.1655
34577W        W77630   0.160  32.075  21.605 -0.4370  0.0027 -0.0094
34578W        W77631  19.811  26.487   9.119  0.0299 -0.1473 -0.0695
34579W        W77632   1.815  29.942  18.396  0.0857  0.0990  0.1756
34580W        W77633  25.317  12.059   2.440 -0.0068  0.1641 -0.3628
34581W        W77634   6.931  20.223   2.026  0.1430 -0.3547  0.1501
34582W        W77635  15.950  24.235  25.652  0.0857  0.0152  0.0196
34583W        W77636  21.414  29.155  25.867  0.0489 -0.0206  0.1452
34584W        W77637  12.455  10.075  26.243  0.1005  0.1212  0.4537
34585W        W77638  33.767  34.104  25.552  0.0397  0.0357  0.1271
34586W        W77639   3.639   0.335  21.058 -0.3616  0.0964 -0.0911
34587W        W77640  23.520  32.360  28.397  0.0791  0.2840  0.2374
34588W        W77641  24.416  23.571  23.391 -0.1979  0.5529  0.0275
34589W        W77642  28.574  33.568  16.064 -0.1040  0.0583 -0.2419
34590W        W77643  14.996  28.298   6.315  0.1857  0.1426  0.0443
34591W        W77644   0.913   7.140  17.391  0.1777  0.3354 -0.1426
34592W        W77645  12.236  34.230  10.389 -0.1697  0.2096 -0.3036
34593W        W77646  19.942  19.883  24.019  0.1563  0.1781 -0.2654
34594W        W77647  26.786  29.922   5.380  0.1521 -0.1023  0.0958
34595W        W77648  26.261  31.486   7.415 -0.0815  0.0184 -0.0497
34596W        W77649  24.313   3.381   0.206  0.0442  0.0779  0.2079
34597W        W77650  27.866  25.990  20.312 -0.0143  0.2666 -0.0908
34598W        W77651   4.241  29.533   5.049 -0.1526  0.0653  0.2099
34599W        W77652   6.769  34.409   6.807 -0.1385 -0.1389 -0.2087
34600W        W77653   7.876  34.074   7.281  0.2570  0.0422  0.0934
34601W        W77654   4.675  25.463   0.092  0.1605  0.0512  0.2456
34602W        W77655  18.618  11.064  18.627  0.0509 -0.0259  0.1017
34603W        W77656  12.067  15.853   9.456 -0.1035 -0.1768  0.1447
34604W        W77657  21.310  11.802  21.817  0.1201  0.1500  0.1470
34605W        W77658  29.900  29.564  24.098  0.0382  0.0779 -0.0849
34606W        W77659  30.609   1.145  28.973 -0.0925  0.0597  0.1044
34607W        W77660   8.079   6.225  21.328  0.1478  0.3918 -0.3187
34608W        W77661   6.486  28.005  16.228  0.4464  0.0554  0.1417
34609W        W77662  31.879  17.872  18.362  0.1965 -0.0013 -0.3439
34610W        W77663   7.159   0.593  28.808  0.2643  0.1167  0.0319
34611W        W77664   4.987  21.433  28.656  0.3492  0.0740 -0.2994
34612W        W77665  15.573  13.973  23.320 -0.2835  0.3032 -0.1325
34613W        W77666  24.702  20.072   0.974 -0.1687 -0.2432  0.0075
34614W        W77667  16.905   8.541  24.984  0.0554  0.0985  0.1799
34615W        W77668  12.039  15.199  17.295 -0.1671  0.0117 -0.2454
34616W        W77669   8.067  18.281   6.127 -0.0336 -0.0187 -0.1168
34617W        W77670  11.886  29.340   2.010 -0.0421 -0.0616 -0.1598
34618W        W77671  22.533  17.854   7.492  0.0119  0.2650  0.0572
34619W        W77672  29.694  27.453   6.827  0.2242  0.4497  0.1221
34620W        W77673  29.410   7.269  24.038  0.0196  0.2495 -0.0493
34621W        W77674  11.814   1.610   0.263  0.0586  0.1512  0.6077
34622W        W77675  11.083  34.351  21.950 -0.0418  0.5198  0.1406
34623W        W77676  22.077   3.669  18.948 -0.1290  0.1131 -0.0786
34624W        W77677  28.672   1.322  16.894  0.0334  0.0687 -0.0721
34625W        W77678  12.303   2.361   3.780 -0.1799 -0.0226 -0.3050
34626W        W77679   4.154  28.016   0.165 -0.0245 -0.1208  0.1624
34627W        W77680   9.707  21.876   3.861  0.2478  0.1136 -0.3731
34628W        W77681  12.830   7.200  28.649  0.1779  0.1525 -0.1713
34629W        W77682   6.635  34.585   3.393  0.0957 -0.0443 -0.0677
34630W        W77683   5.379  21.995  26.124 -0.1565  0.1132  0.0510
34631W        W77684   3.223   4.064   5.965 -0.1185  0.0683  0.0834
34632W        W77685   5.925  18.817  17.624  0.1799 -0.0934  0.0252
34633W        W77686   9.797  22.444  26.638 -0.1630 -0.0516 -0.0140
34634W        W77687   7.863   3.912  27.943  0.1762  0.2707  0.3690
34635W        W77688   1.646   2.568  22.109  0.0925 -0.0322 -0.1476
34636W        W77689   9.620   4.220   9.753  0.2385  0.0612 -0.1056
34637W        W77690  23.221  34.544  17.646  0.2368  0.0149 -0.3035
34638W        W77691  30.472  31.561  18.121 -0.1073  0.3278 -0.1811
34639W        W77692  13.958  31.300   1.563  0.0576 -0.1440 -0.0731
34640W        W77693  24.803   9.496   0.159 -0.1251  0.1250  0.3598
34641W        W77694  30.073  26.115  21.668 -0.0739 -0.0431 -0.4591
34642W        W77695   6.076  12.497   2.102  0.0977  0.0863 -0.2035
34643W        W77696  22.878   8.129  24.495  0.2437  0.0085 -0.0883
34644W        W77697  20.754   0.893   4.222 -0.0522 -0.0098 -0.0764
34645W        W77698  31.909   2.883  18.624 -0.1683 -0.2835 -0.2221
34646W        W77699  11.162   2.593  28.833  0.0160  0.1085 -0.1447
34647W        W77700   7.219   2.978   4.462 -0.1525  0.0929 -0.0040
34648W        W77701  24.644  29.905  15.250 -0.1889  0.0516  0.0818
34649W        W77702  11.811  23.601  17.440 -0.1432 -0.1136  0.0175
34650W        W77703   3.153  29.062   2.557 -0.0778  0.1806  0.0010
34651W        W77704   4.488  30.571   4.013 -0.0330 -0.0063  0.1085
34652W        W77705  31.045  19.827  18.507 -0.4470  0.1772 -0.0306
34653W        W77706  15.731   0.885  15.506 -0.1270  0.1271 -0.2461
34654W        W77707  13.341   1.941  22.761 -0.2588  0.3657  0.0402
34655W        W77708  13.633  29.622  26.361  0.1520 -0.4027  0.0639
34656W        W77709   9.945  17.024  28.660 -0.0408 -0.0337 -0.2927
34657W        W77710  23.058  17.610  15.347  0.0758  0.1697 -0.0649
34658W        W77711   8.378   1.704  23.986  0.3160 -0.0112  0.3988
34659W        W77712   5.348   5.178  21.880 -0.3336 -0.0904  0.3162
34660W        W77713   6.063  29.154   5.101 -0.1868 -0.2460 -0.1278
34661W        W77714   2.197  28.636  28.932 -0.0356 -0.0712  0.1456
34662W        W77715   6.415  23.247   1.134  0.2484 -0.1858 -0.1533
34663W        W77716   7.815  34.614  18.907  0.1336 -0.2105 -0.4434
34664W        W77717  16.151  31.274  24.839 -0.2749  0.0195 -0.0764
34665W        W77718  27.718  30.431   4.635  0.3684 -0.0768  0.0221
34666W        W77719  21.456  20.123  28.384  0.2400  0.1011 -0.0531
34667W        W77720   0.411  24.936  18.723  0.1970 -0.2753 -0.0336
34668W        W77721   2.757  11.321  27.788 -0.1731  0.2218 -0.1207
34669W        W77722  23.828  31.725   7.574 -0.0438 -0.0435  0.0999
34670W        W77723  11.562   7.589  18.157  0.2083  0.2098 -0.1949
34671W        W77724  13.200   8.149  20.014  0.0597 -0.1166 -0.0101
34672W        W77725   0.478  28.588  17.309  0.1439 -0.0977  0.2904
34673W        W77726  10.090  29.979  21.753  0.1936  0.0642  0.2790
34674W        W77727  11.070   7.577  16.900 -0.1860 -0.0813  0.0056
34675W        W77728  34.136  18.702   4.466 -0.1514 -0.0118 -0.1175
34676W        W77729   0.878  22.915  16.986  0.2210 -0.2326 -0.4146
34677W        W77730  14.532  20.638  14.791 -0.0072 -0.1612 -0.0505
34678W        W77731  13.639  34.260  22.815 -0.4132  0.1481 -0.0851
34679W        W77732   5.985  29.924  20.460  0.0917 -0.3313 -0.0768
34680W        W77733   7.741  14.171   5.754 -0.1727 -0.2186  0.1323
34681W        W77734   2.273   7.779  26.712  0.1319 -0.1608  0.0203
34682W        W77735  13.996  22.422  15.646 -0.0660 -0.0473 -0.3395
34683W        W77736  14.889   1.906   4.564 -0.1259  0.1235 -0.1762
34684W        W77737  30.225  16.689   3.649 -0.1620 -0.0249 -0.0388
34685W        W77738   8.178  12.052  29.064 -0.0042  0.2409 -0.2415
34686W        W77739   7.076  30.603  22.940  0.2131 -0.0252  0.3394
34687W        W77740  30.387  21.671   6.632 -0.2327  0.2397 -0.2686
34688W        W77741   7.991  11.391  17.907  0.1037 -0.0735  0.1170
34689W        W77742  12.077   7.231   4.310 -0.0680  0.0360  0.2948
34690W        W77743  10.589  23.091   2.027  0.0189  0.1262 -0.0533
34691W        W77744   5.892  29.012  22.053 -0.4260  0.0352 -0.0879
34692W        W77745  21.259  34.256  14.211 -0.1413 -0.0878 -0.0657
34693W        W77746   7.954  27.045   1.292 -0.3140  0.0420  0.2215
34694W        W77747   6.938  27.638   0.870 -0.1846  0.2078 -0.3553
34695W        W77748   5.197  12.926  22.591 -0.0615  0.1056 -0.1264
34696W        W77749  33.215   1.275  27.667  0.2363  0.5468 -0.1968
34697W        W77750  34.263   4.740   8.164 -0.0122 -0.0598  0.0205
34698W        W77751  22.285  15.620  13.640  0.1348  0.2409  0.0897
34699W        W77752  30.492  21.841  15.707 -0.2227  0.2724  0.0740
34700W        W77753   2.537  22.068  24.339 -0.4210 -0.1987 -0.1684
34701W        W77754  28.631   7.110  21.290 -0.3183  0.1250 -0.2372
34702W        W77755  28.362  29.459  24.004 -0.0597 -0.0561 -0.0802
34703W        W77756   4.004  23.425  16.082  0.2102 -0.1464 -0.1057
34704W        W77757   2.940  13.627  27.995 -0.2068  0.0802  0.1721
34705W        W77758  33.418  17.818   6.974  0.2629 -0.1560 -0.0591
34706W        W77759  31.277  16.555  17.141  0.1993 -0.0965  0.2859
34707W        W77760   5.535  17.603   0.028 -0.4220  0.0119  0.2051
34708W        W77761   9.859  27.394   6.369  0.0573 -0.1586  0.1665
34709W        W77762  12.687  12.122   3.159 -0.1639  0.1445 -0.2056
34710W        W77763   4.551  15.405  27.711 -0.2569  0.2874  0.0264
34711W        W77764  16.956  29.484  18.642 -0.0529 -0.0464  0.0068
34712W        W77765  30.350  32.388   7.011 -0.0646  0.2210 -0.0220
34713W        W77766   7.136   2.065   2.028 -0.0619  0.0440  0.1005
34714W        W77767   6.921   0.586  25.811 -0.0250  0.3113 -0.0971
34715W        W77768  12.713  28.129   2.531 -0.0231 -0.1998 -0.0479
34716W        W77769   5.054  31.979  27.518 -0.1240 -0.0076  0.1589
34717W        W77770  19.282   5.251  20.258  0.0051 -0.0932  0.2538
34718W        W77771  34.602  33.570  20.575  0.0581 -0.1541 -0.3100
34719W        W77772   0.310   0.943   8.381  0.0669 -0.2460  0.1588
34720W        W77773  25.901  15.101  13.914 -0.1107 -0.1011 -0.1648
34721W        W77774  22.945   5.548  15.214 -0.1784 -0.0038 -0.0359
34722W        W77775  32.200  29.681   2.843  0.1115 -0.2497  0.2367
34723W        W77776   6.821  21.655   9.894  0.1008 -0.0026 -0.0664
34724W        W77777   3.957   6.919  17.049 -0.3738  0.0231  0.0732
34725W        W77778   3.941   5.838  15.853 -0.1042 -0.2676  0.2459
34726W        W77779  17.095   7.465   2.953  0.2907  0.2531 -0.2036
34727W        W77780  16.908   1.806  16.524 -0.0061  0.0747 -0.4882
34728W        W77781   2.579   0.756  24.519  0.1198 -0.1900  0.2091
34729W        W77782  34.146  29.247   0.752  0.3247  0.0875 -0.2201
34730W        W77783  28.495  32.512  24.090 -0.3757 -0.0065 -0.0665
34731W        W77784   0.891  21.652  14.217 -0.1389  0.3400  0.0577
34732W        W77785  23.521  21.711   3.743  0.0258 -0.0133  0.0212
34733W        W77786  33.718   5.578   3.608  0.1661  0.1534  0.4332
34734W        W77787  27.580  15.577  28.253 -0.2347 -0.2047 -0.2780
34735W        W77788  21.669  19.876  19.352 -0.3234  0.0727  0.2174
34736W        W77789  11.102   8.657   8.050  0.2690  0.2579  0.3790
34737W        W77790   9.414   7.735  19.703 -0.0782  0.1468  0.0590
34738W        W77791   8.654  24.629  20.501  0.1013  0.0654 -0.1292
34739W        W77792   4.376  33.479   8.757 -0.2196 -0.4660  0.0395
34740W        W77793  32.645  28.902  25.160  0.4229  0.0446  0.0768
34741W        W77794  11.218  30.189  13.337  0.0289 -0.0439  0.0904
34742W        W77795  32.103  28.114  24.106 -0.2649 -0.2240 -0.4480
34743W        W77796  27.385   6.238   2.778  0.1280  0.2562  0.2391
34744W        W77797  32.053  13.155   1.780  0.0622 -0.0276 -0.1615
34745W        W77798   7.271   6.630   1.564 -0.2517 -0.2476 -0.0939
34746W        W77799  16.722  11.285   1.307 -0.0701 -0.3191  0.2868
34747W        W77800  12.794  10.216  16.934 -0.2507  0.0256  0.1123
34748W        W77801   5.744  21.985  13.643 -0.0676 -0.1587  0.1319
34749W        W77802   6.453  27.716  22.328  0.2815  0.0944 -0.0553
34750W        W77803   8.183  18.003   7.931 -0.3735  0.1112  0.0924
34751W        W77804  34.637  22.376  25.307 -0.1919  0.0278 -0.0590
34752W        W77805  10.279  30.845   8.917  0.0503 -0.0128  0.1323
34753W        W77806   5.516  12.179  20.572  0.0105 -0.2713  0.2081
34754W        W77807   3.665  30.498   9.581  0.0767  0.0220  0.2264
34755W        W77808   3.504  16.952  26.383 -0.0698  0.2484  0.0730
34756W        W77809   5.778  28.121   6.976  0.1166  0.1387 -0.0405
34757W        W77810  16.530  12.820  22.199 -0.3406 -0.0449 -0.0787
34758W        W77811  15.475  19.633  22.133  0.1568  0.1779  0.0879
34759W        W77812   8.040  31.798  19.962 -0.0353  0.1059 -0.0723
34760W        W77813  21.457  28.316  16.998  0.0568 -0.0699  0.0448
34761W        W77814  29.130  21.108  20.123  0.0794  0.2756  0.0296
34762W        W77815   7.443   1.385  17.057  0.2576  0.0512  0.0708
34763W        W77816  21.624  31.730   7.029  0.0914 -0.0288  0.1659
34764W        W77817   8.518  15.080  18.641  0.1075  0.2581 -0.0337
34765W        W77818   0.467   3.463   0.691  0.0050 -0.1297  0.2279
34766W        W77819  12.355  17.705  20.298  0.0385 -0.0885  0.2924
34767W        W77820  27.598  14.328  16.445 -0.2900  0.1838  0.0288
34768W        W77821   9.264  31.541  15.359 -0.2098  0.1628 -0.0176
34769W        W77822  32.501  30.351  24.532  0.0387  0.1092 -0.0778
34770W        W77823   3.513  20.691  24.229  0.1221 -0.2242 -0.0918
34771W        W77824  19.520   3.890   6.213  0.3001  0.2506 -0.0600
34772W        W77825  31.845  29.505   8.307  0.1748  0.2057  0.0852
34773W        W77826   9.721   4.738   7.683  0.1545 -0.3443  0.2254
34774W        W77827   1.401  24.815  15.766  0.3413  0.2918 -0.1655
34775W        W77828  10.932  26.871  25.673 -0.1909  0.2380  0.0360
34776W        W77829  10.708  23.489   2.348  0.0666 -0.3547  0.1499
34777W        W77830  33.809  26.849  27.510 -0.1006 -0.1151  0.0837
34778W        W77831   7.498  29.232   2.086 -0.5855  0.1861  0.1041
34779W        W77832  18.552  27.610   1.307  0.0299 -0.0536  0.0608
34780W        W77833  11.184  33.352   1.526 -0.0414  0.0872  0.1788
34781W        W77834  31.837  32.088  16.686  0.1704 -0.0479 -0.2328
34782W        W77835  22.946  27.810  17.008 -0.2291  0.1678  0.3005
34783W        W77836  31.682   2.341  16.318 -0.1102 -0.0929 -0.0772
34784W        W77837   4.825  10.462   6.267 -0.1690  0.0856  0.1128
34785W        W77838  11.872  31.942  26.166  0.0203  0.1107  0.0415
34786W        W77839  15.135  18.676  24.811 -0.1376  0.1838  0.1552
34787W        W77840  31.633   9.909  15.700 -0.1739 -0.2518 -0.0327
34788W        W77841  19.500  31.904  23.370  0.0497 -0.1081  0.1066
34789W        W77842  26.803   8.407   6.036  0.1023 -0.1516  0.0250
34790W        W77843   8.717   3.529  18.844 -0.1226  0.5257 -0.1630
34791W        W77844   7.695  11.095  20.508  0.4981  0.0861  0.0552
34792W        W77845   2.606  12.729  28.307 -0.2123 -0.2624 -0.0684
34793W        W77846  29.632  31.222   7.648 -0.1141 -0.1429 -0.2637
34794W        W77847  24.549  22.903  21.645 -0.1521 -0.0798 -0.1414
34795W        W77848  17.340  33.016   4.627  0.0569  0.2144  0.0332
34796W        W77849  15.568   7.450  16.582 -0.0486  0.0128 -0.0790
34797W        W77850  24.543  12.962  21.778 -0.0861  0.3283 -0.2596
34798W        W77851  29.347  25.157   2.738  0.1041  0.1543  0.2934
34799W        W77852  12.292  24.663  16.017  0.1779  0.0742 -0.2036
34800W        W77853   8.484  27.439  25.083  0.1816 -0.1207  0.0420
34801W        W77854  10.266   9.890   5.226  0.0475  0.0574  0.3056
34802W        W77855   1.306  15.248  20.581  0.1633 -0.1851  0.0219
34803W        W77856   9.317  32.537  23.120  0.1750  0.1753  0.3696
34804W        W77857   2.264   4.731  14.408 -0.0106 -0.0611  0.0583
34805W        W77858  15.570  34.671  14.939  0.1865 -0.1952  0.1962
34806W        W77859   6.687  30.862  19.117 -0.0460  0.0662  0.5760
34807W        W77860  13.225  10.743  22.423 -0.0080 -0.2183  0.0799
34808W        W77861   6.369  28.614  25.994 -0.1510 -0.0111 -0.0523
34809W        W77862   7.274  29.070  24.015 -0.3493  0.0461 -0.0164
34810W        W77863   8.228  32.339   7.033 -0.3021  0.2200  0.1134
34811W        W77864   6.416  17.346  25.562  0.0039 -0.0479 -0.0092
34812W        W77865  11.965  16.632  20.666 -0.1813  0.3476 -0.0935
34813W        W77866   3.318  29.472   0.768  0.1991 -0.1495 -0.2492
34814W        W77867   9.480  16.550  25.591  0.3609 -0.2334  0.0851
34815W        W77868  16.403  10.580   6.522  0.0596 -0.1546 -0.0533
34816W        W77869  10.277  26.954  23.628 -0.0009  0.1046 -0.0218
34817W        W77870  17.736   9.124   1.260 -0.0008 -0.0750  0.2350
34818W        W77871   3.388  19.492  15.522  0.0048 -0.1175  0.0099
34819W        W77872  13.184  31.134   3.297  0.3371  0.4170 -0.0472
34820W        W77873  29.487  29.489   0.130  0.3771 -0.3227 -0.1484
34821W        W77874   6.192  11.031  19.205 -0.0550 -0.3051 -0.0867
34822W        W77875   8.550  28.064  14.895 -0.0487 -0.4674  0.1585
34823W        W77876  33.970  30.681   4.645 -0.0733 -0.0555  0.0844
34824W        W77877  21.294  24.270   7.243  0.1142 -0.0717 -0.0070
34825W        W77878  22.916  26.209  22.893 -0.0050 -0.0055 -0.0547
34826W        W77879   5.483  28.722  24.494 -0.1621  0.3503  0.1654
34827W        W77880  21.777  33.323   4.655 -0.4501 -0.1219 -0.1687
34828W        W77881   7.495  18.648   3.843  0.2451 -0.1566  0.1389
34829W        W77882  11.316   8.672   3.524 -0.0844  0.1644 -0.1139
34830W        W77883  12.484  24.548  23.120 -0.0870 -0.2393 -0.2429
34831W        W77884  16.342  29.413  19.912  0.2748 -0.0340 -0.0286
34832W        W77885  29.685  32.349  22.436 -0.0331  0.0693 -0.1695
34833W        W77886  32.681  19.440  27.504  0.0916 -0.0199  0.5257
34834W        W77887   7.020  18.757   6.152 -0.0461  0.1118  0.3183
34835W        W77888  30.838   1.932  28.430 -0.0656 -0.0738 -0.1775
34836W        W77889  15.300   3.319  10.200  0.1864  0.0741  0.1806
34837W        W77890   2.394   8.367  27.864  0.0268  0.4877 -0.2385
34838W        W77891   5.627  28.493   4.197 -0.0628 -0.5742  0.2452
34839W        W77892  14.999   1.719   5.084  0.3350  0.0064  0.1001
34840W        W77893   9.128  21.582  27.553 -0.3392 -0.1382  0.1647
34841W        W77894  15.143  21.959  27.343  0.0977  0.1132 -0.1528
34842W        W77895   2.489   7.061   2.636 -0.0351  0.0761 -0.3705
34843W        W77896  14.127  12.992   4.954  0.1095 -0.3825  0.1891
34844W        W77897  26.423  27.941   7.176  0.0068 -0.0513  0.0301
34845W        W77898  10.402   2.153   1.198  0.1452 -0.3875  0.0966
34846W        W77899  14.708  29.867  17.600 -0.2023  0.0019 -0.2946
34847W        W77900   7.567   7.100  21.839 -0.0367 -0.1428 -0.2171
34848W        W77901   5.066  23.489  22.416 -0.1966  0.1192 -0.2355
34849W        W77902   2.448  33.090  26.312 -0.2742 -0.0495  0.0710
34850W        W77903   0.043   1.929   1.857 -0.1679  0.0038  0.0074
34851W        W77904  22.358  21.011   8.225  0.0459  0.0926  0.1646
34852W        W77905   8.146  29.367   7.991  0.1115  0.2254  0.0349
34853W        W77906  11.859  15.770   3.833  0.1246  0.0151  0.1835
34854W        W77907  12.068   9.787  29.171  0.0439  0.2371  0.1387
34855W        W77908  29.049  33.006  14.495  0.1643 -0.0011 -0.2654
34856W        W77909   3.009  14.516  22.991  0.2338 -0.3100 -0.0742
34857W        W77910   3.614  30.655  24.868  0.0494  0.0627 -0.1327
34858W        W77911  33.212   3.452  28.666  0.2096 -0.2830 -0.1673
34859W        W77912  14.279   0.844   0.761 -0.0373  0.2350  0.1808
34860W        W77913  26.036  21.887  17.487 -0.0482  0.1037 -0.0320
34861W        W77914   7.824   3.136   8.550 -0.2953 -0.1909  0.0173
34862W        W77915   6.639  13.174  27.962  0.1355 -0.2471 -0.1324
34863W        W77916   6.168  25.258   7.520  0.3095 -0.1467  0.1761
34864W        W77917   3.091   9.329  22.766  0.1012  0.1938 -0.1300
34865W        W77918   5.844  28.574  28.133 -0.0025 -0.2557 -0.0866
34866W        W77919  11.673   1.119   6.596  0.2366  0.0151 -0.1403
34867W        W77920   0.564   7.744  21.815 -0.2085 -0.1622  0.0588
34868W        W77921   9.955  21.707   7.820  0.2027 -0.1338  0.0813
34869W        W77922   3.511   0.083   5.468 -0.0289 -0.0622 -0.1985
34870W        W77923   7.883  28.359   4.228  0.1600 -0.3701  0.1755
34871W        W77924  17.634   5.782  28.421  0.4915  0.2612 -0.0328
34872W        W77925  15.484  29.668  28.716 -0.4996  0.0579  0.0222
34873W        W77926  25.405   9.159   0.928 -0.1918  0.2654 -0.0669
34874W        W77927   3.658  33.570  16.506 -0.2873 -0.0776 -0.1015
34875W        W77928  19.350  34.672   8.183 -0.0288  0.1500  0.3149
34876W        W77929  23.363   9.389   2.182 -0.3141  0.0882 -0.1209
34877W        W77930   5.424  32.402   2.762  0.1367  0.0427  0.2696
34878W        W77931  13.117   5.439   3.201 -0.0451  0.1612  0.3890
34879W        W77932  29.891  10.446  21.840  0.0210  0.1240 -0.0493
34880W        W77933   5.515  21.008   2.587  0.2019 -0.2129  0.1572
34881W        W77934  26.068  28.679  28.810 -0.1129  0.1747  0.0756
34882W        W77935   1.425  23.769   2.958 -0.0511 -0.0428 -0.1729
34883W        W77936  33.062  32.348  21.665  0.0658  0.0146 -0.0086
34884W        W77937   9.296  31.985  22.447  0.2015  0.4606 -0.2169
34885W        W77938  15.054   1.285  24.390 -0.2753  0.0494  0.1103
34886W        W77939   2.473  28.982  17.691  0.2446 -0.0747 -0.0645
34887W        W77940  16.868   1.282  24.605  0.1767 -0.0719  0.0421
34888W        W77941  32.779  32.563  17.854  0.0956 -0.1322 -0.0930
34889W        W77942  10.444  32.061   6.741 -0.0751 -0.3070  0.0437
34890W        W77943  30.309  27.890   3.667  0.3154 -0.0151  0.2796
34891W        W77944  19.205  25.916  28.228 -0.0274  0.0860  0.5775
34892W        W77945  34.425  25.459  23.986 -0.0561  0.6243 -0.1170
34893W        W77946   2.343   2.106  24.653  0.1244 -0.0006 -0.1621
34894W        W77947   7.932  34.132  27.570 -0.2329  0.0119 -0.2568
34895W        W77948   8.013  21.619  14.882 -0.0157  0.0745 -0.2006
34896W        W77949  24.266   2.487  17.516  0.0414  0.0618  0.0932
34897W        W77950  24.229  30.443  26.477  0.0832  0.0586 -0.1405
34898W        W77951  18.941   2.033  15.969  0.3413 -0.0477 -0.3480
34899W        W77952  34.474  33.169   2.809 -0.2545 -0.2008 -0.2705
34900W        W77953   4.204  28.600  17.631  0.3791  0.2151 -0.3298
34901W        W77954   5.272  23.143  27.426 -0.3717  0.0648  0.1998
34902W        W77955  28.591   0.439  13.736 -0.0852  0.3542 -0.2412
34903W        W77956   8.206  31.299  18.770 -0.1137  0.0197  0.0167
34904W        W77957   5.485   1.936  16.095  0.4577  0.1855 -0.0745
34905W        W77958  23.766  27.820  17.793 -0.0251  0.1273  0.1065
34906W        W77959   8.689   9.938  21.661  0.2524  0.0730  0.2238
34907W        W77960  19.272  26.891  23.390 -0.0352  0.3422  0.0811
34908W        W77961  10.322  25.037  14.029  0.3453 -0.0341  0.2639
34909W        W77962   3.220   1.093  14.457  0.2250  0.0887 -0.0432
34910W        W77963   8.211  24.149  19.074  0.1787  0.1119 -0.1881
34911W        W77964   8.899  32.123  25.958  0.1134  0.3247 -0.0448
34912W        W77965  34.686   6.642  15.567 -0.2974 -0.0295 -0.1405
34913W        W77966  10.982   5.373  21.805  0.0077 -0.1231  0.1101
34914W        W77967   3.129  27.762  16.446  0.1420 -0.0262 -0.0697
34915W        W77968   4.247  30.929  13.897 -0.1569  0.0796  0.4201
34916W        W77969   7.776   1.794  21.226  0.2575 -0.1947  0.1933
34917W        W77970   2.066   0.254  20.787 -0.1274 -0.1225 -0.0211
34918W        W77971   3.539   9.527  17.260 -0.0473  0.0953  0.2309
34919W        W77972   2.646  28.536   3.757 -0.1965 -0.5038  0.2402
34920W        W77973  34.629   0.784  28.588  0.0733  0.1774 -0.0545
34921W        W77974   4.046  27.484  23.118 -0.1006 -0.1520  0.1951
34922W        W77975   9.599  28.043  24.376 -0.1486  0.0574 -0.3138
34923W        W77976  22.713   0.572  18.898 -0.0686  0.1664 -0.1384
34924W        W77977   4.967  14.229  24.406  0.2380  0.2270 -0.0820
34925W        W77978   9.373  29.661   2.532 -0.0797 -0.1168 -0.1687
34926W        W77979  13.140  27.344  17.908 -0.0567  0.3977  0.3031
34927W        W77980  19.212   9.162  17.441  0.0352  0.2117  0.1756
34928W        W77981  33.606  32.504  21.536 -0.1879 -0.1525  0.1892
34929W        W77982   3.136  19.149  20.357  0.3106  0.1997 -0.1115
34930W        W77983  32.024  31.760  23.242  0.0097  0.0518 -0.2764
34931W        W77984  33.449  32.519  19.431  0.1376 -0.0620 -0.0413
34932W        W77985  31.792  15.253  17.934  0.4095  0.0282  0.1149
34933W        W77986   2.593  18.921  18.825 -0.2104  0.0440  0.0440
34934W        W77987  32.182  32.994  19.819  0.2316  0.0167 -0.2029
34935W        W77988   9.663  32.582  19.138 -0.0936 -0.1434  0.0693
34936W        W77989   3.189   7.543  22.516 -0.1438 -0.1396  0.0639
34937W        W77990   7.208  28.666  26.135  0.0167 -0.0280 -0.0384
34938W        W77991  11.421  33.210  19.531 -0.0444  0.0481  0.3838
34939W        W77992   9.342  25.729  24.284 -0.0131  0.3369  0.0114
34940W        W77993  11.001   1.454  26.725  0.2934 -0.0665  0.0876
34941W        W77994   4.920  27.338  23.058  0.3841  0.0676 -0.0605
34942W        W77995  28.594  10.994  15.862 -0.0358  0.3683  0.3690
34943W        W77996  27.249  14.000  17.348  0.0818  0.2822  0.0254
34944W        W77997  11.621  33.603  17.628 -0.1972  0.2216  0.0481
34945W        W77998   6.995  31.086  24.402 -0.2556 -0.0300 -0.0260
34946W        W77999  17.126  22.031  23.679  0.0767  0.1004  0.1603
34947W        W78000  10.875  31.014  15.272  0.0050  0.2615  0.0882
34948W        W78001  20.770  20.952  24.469  0.3452  0.0415 -0.0315
34949W        W78002   4.766   6.288  21.965  0.1770 -0.0400 -0.0489
34950W        W78003  12.465  30.846  26.322  0.0013  0.0265 -0.0383
34951W        W78004  17.813  22.070  22.457  0.2846 -0.0207 -0.2461
34952W        W78005   3.614   1.055  19.237  0.0884  0.2699 -0.1290
34953W        W78006   4.436   5.242  26.073  0.1259 -0.3431 -0.4198
34954W        W78007   7.737  31.410   0.502  0.0931  0.0476 -0.0979
34955W        W78008   5.915  30.791  28.101 -0.1451 -0.1297 -0.0968
34956W        W78009   1.274  33.688  25.254 -0.1221 -0.1256  0.1744
34957W        W78010  33.776   1.495  19.300  0.1555 -0.0812  0.2657
34958W        W78011  17.358  31.057   4.462  0.0023  0.0722  0.0853
34959W        W78012  24.016   1.870  18.294 -0.0833  0.2549 -0.1213
34960W        W78013  16.530  33.747   0.968  0.0176  0.1128  0.1046
34961W        W78014  17.017   2.194  28.816  0.1915  0.3432  0.2733
34962W        W78015  33.536   4.437  28.777 -0.0107  0.2321  0.0979
34963W        W78016   5.942   9.819   3.373 -0.2140 -0.1564 -0.2204
34964W        W78017  31.084   9.682  17.668 -0.0123  0.0575  0.0249
34965W        W78018   5.043  32.013  22.802 -0.1527 -0.1963  0.1074
34966W        W78019  20.252   7.599   9.005 -0.2490  0.0206  0.1323
34967W        W78020  25.208   4.294  23.746  0.0115 -0.1134 -0.0969
34968W        W78021  33.486   3.408  16.455  0.0287 -0.1261  0.3244
34969W        W78022  34.391  25.717  13.461  0.1568  0.1666 -0.0634
34970W        W78023   0.148  10.236  20.821 -0.0177 -0.3497  0.0794
34971W        W78024  10.413   0.250  25.805 -0.2447 -0.1330 -0.0760
34972W        W78025   7.475   3.135  18.587 -0.3992  0.0703  0.0364
34973W        W78026   7.504   7.402  23.477  0.0067 -0.2392  0.2033
34974W        W78027   1.457   1.122  23.369 -0.2282 -0.0275 -0.0079
34975W        W78028  27.903  25.043  17.849 -0.0385 -0.0393 -0.3932
34976W        W78029   2.314   1.308  15.625  0.0868 -0.4306  0.2311
34977W        W78030  30.320  31.858  13.979  0.0157  0.4512  0.1239
34978W        W78031  16.240  16.460  26.688 -0.1431 -0.1449 -0.1100
34979W        W78032   5.155  33.942  15.587  0.2440  0.0661 -0.1996
34980W        W78033   6.531  12.989  28.438 -0.0625  0.2879 -0.0972
34981W        W78034  27.731  20.555  16.048  0.0116  0.2091  0.0728
34982W        W78035   2.211   1.820  15.669  0.1406  0.0564 -0.0818
34983W        W78036  13.221   3.606  15.703 -0.2506 -0.1354 -0.0698
34984W        W78037   3.599   1.752  28.129  0.1223 -0.2502  0.3705
34985W        W78038   1.268  25.024  16.747 -0.0806  0.3169  0.0810
34986W        W78039  26.494  27.090  26.360  0.3310 -0.3194 -0.0776
34987W        W78040  33.287   0.483  22.335  0.2322  0.1653 -0.1826
34988W        W78041   3.600   8.894  24.976 -0.3981  0.0041 -0.1891
34989W        W78042  30.192   1.346  27.029 -0.1944 -0.0849  0.0818
34990W        W78043  32.661  14.466   7.820 -0.0697  0.2797  0.0583
34991W        W78044  10.280   3.833  20.381 -0.1182 -0.3430 -0.0318
34992W        W78045  30.814   2.357  16.197 -0.1470  0.2113  0.1868
34993W        W78046   4.285   6.984   4.020 -0.0899 -0.0077  0.1748
34994W        W78047  10.245  22.652  14.097 -0.1128  0.0913 -0.0786
34995W        W78048   9.631  11.815  22.420  0.0383 -0.0293 -0.0412
34996W        W78049  33.341   8.097  14.957 -0.0197  0.1825  0.0802
34997W        W78050  34.154  10.708  25.736 -0.1389  0.3000 -0.3442
34998W        W78051  34.185   4.167  27.584 -0.1682 -0.0304 -0.2001
34999W        W78052  29.950  19.240  22.734  0.5094  0.0015 -0.5093
35000W        W78053  27.595   9.517   0.877  0.0456  0.1249 -0.3338
35001W        W78054   2.596   5.923  15.179 -0.1084 -0.1835  0.2145
35002W        W78055  27.000   4.069  21.310 -0.3318 -0.2618 -0.0155
35003W        W78056  22.108   6.269  21.599  0.1051 -0.0794 -0.1599
35004W        W78057   3.181   2.611  18.457 -0.0343  0.0485  0.0538
35005W        W78058  18.232  10.929  18.333  0.0830  0.1112  0.3608
35006W        W78059   1.406   8.238  17.679  0.1207 -0.1197 -0.0021
35007W        W78060  19.444  24.696  27.624  0.1497  0.2264  0.3296
35008W        W78061  26.231   0.433  14.440  0.2044  0.1638  0.0100
35009W        W78062   8.614  11.778  16.150 -0.1842 -0.3111  0.1061
35010W        W78063  30.757  32.661  18.664  0.2487  0.0452  0.0782
35011W        W78064   2.408  24.391  16.342  0.2272  0.0415  0.0060
35012W        W78065  12.152  14.608  19.717 -0.0613  0.0590 -0.1368
35013W        W78066   0.452  28.454  15.426  0.1547  0.0241  0.2077
35014W        W78067   8.184  16.119  24.551 -0.0059  0.1752 -0.1222
35015W        W78068  13.516   8.379  24.507  0.2981  0.0449 -0.0692
35016W        W78069  32.471  17.099  24.634  0.2221 -0.0408  0.0788
35017W        W78070   4.335  27.937  14.454 -0.1120  0.4054 -0.3037
35018W        W78071   5.627   2.132  23.578  0.0611  0.0578 -0.1850
35019W        W78072  27.730  32.974  17.428  0.0628  0.1265  0.1645
35020W        W78073   2.317  34.259  15.485  0.0744 -0.0133  0.0632
35021W        W78074  16.742   7.592  23.050 -0.0788 -0.1127 -0.0666
35022W        W78075   7.838  30.162  13.208 -0.3169  0.1106  0.0452
35023W        W78076  11.880  15.597   1.217  0.3155  0.2564 -0.1624
35024W        W78077  27.299  31.664  14.508  0.1555  0.2037 -0.1851
35025W        W78078   3.208  12.138  17.883 -0.1860 -0.3523 -0.0203
35026W        W78079   1.336   6.653  15.018 -0.1346 -0.2324 -0.0512
35027W        W78080  10.616   0.401  29.141  0.0516 -0.1297 -0.1335
35028W        W78081  30.675  17.453  25.323  0.3173  0.1757  0.2464
35029W        W78082  11.184   3.674  24.409 -0.6900 -0.0793  0.2467
35030W        W78083   2.905   6.038  16.903  0.0631  0.0403  0.2419
35031W        W78084   9.732   8.964  23.105  0.3410 -0.4389  0.2044
35032W        W78085  22.618   0.216   3.766 -0.0593  0.0603 -0.1003
35033W        W78086   6.731   6.072  14.022 -0.0369  0.3017 -0.0745
35034W        W78087   0.023   4.825  17.486 -0.0221  0.1416 -0.3104
35035W        W78088   8.872  32.161  16.032 -0.0547  0.2953 -0.1225
35036W        W78089  20.674  31.060  25.625 -0.0138  0.1695 -0.2294
35037W        W78090  12.006  32.044  28.246 -0.0912  0.0633  0.1124
35038W        W78091   6.798  28.458  16.844  0.1948  0.2794 -0.2186
35039W        W78092   7.826  21.554  16.456  0.0593  0.5899  0.0979
35040W        W78093  12.750  19.705  16.859  0.0142 -0.0458 -0.2281
35041W        W78094   9.364  34.513  25.965 -0.0228 -0.2209 -0.1562
35042W        W78095   0.620  17.328  18.995 -0.4926  0.1255  0.1176
35043W        W78096   2.999   7.926  24.910 -0.0065 -0.0435  0.1313
35044W        W78097  10.826  31.562  19.094 -0.1309 -0.2361 -0.1166
35045W        W78098  21.503   4.416  15.103 -0.1863  0.3327 -0.0558
35046W        W78099   3.774   2.139  18.958  0.1088 -0.0083 -0.0854
35047W        W78100   6.479   9.859  15.606 -0.1174  0.0515  0.0009
35048W        W78101  34.458   7.116  15.552  0.1073 -0.3393 -0.0636
35049W        W78102  31.894  14.947  23.965  0.1811  0.1104 -0.1298
35050W        W78103  34.086  14.523  16.359 -0.2387  0.0364 -0.3529
35051W        W78104   0.782  23.146  25.247 -0.2291  0.1499  0.0097
35052W        W78105  17.917   1.545   2.283 -0.0026  0.0598  0.0808
35053W        W78106  21.844  20.913  27.492 -0.1090 -0.0330 -0.0017
35054W        W78107   9.028  17.909  16.588  0.4762  0.0729 -0.4746
35055W        W78108   1.489  15.720  22.330  0.2781  0.1735 -0.0480
35056W        W78109  28.022  28.767  14.878 -0.2449 -0.0512 -0.1656
35057W        W78110   5.555  34.421  27.591  0.0266  0.2156  0.1064
35058W        W78111  16.996   4.024  18.884  0.3128 -0.2610 -0.0864
35059W        W78112   5.462  32.595  16.479  0.3025  0.0075  0.1494
35060W        W78113   3.284   8.112  18.593  0.2153 -0.5322 -0.1451
35061W        W78114  34.405  23.398   5.571  0.0101 -0.0988 -0.5718
35062W        W78115  24.293  23.255  18.670 -0.2033  0.0012 -0.2156
35063W        W78116  32.026  15.012  18.945  0.0365 -0.1399 -0.1300
35064W        W78117  11.028  23.994  19.696 -0.0500  0.3533 -0.0247
35065W        W78118  32.611   3.959  20.564  0.0469  0.0488 -0.0605
35066W        W78119   3.931  24.488  16.358 -0.2369  0.0803 -0.2699
35067W        W78120  28.915   3.122  14.396 -0.2737  0.0041  0.1934
35068W        W78121   7.853   9.817   2.880 -0.1305  0.0022  0.0915
35069W        W78122   2.586   4.666  15.790 -0.1120 -0.0485 -0.2689
35070W        W78123   3.012   0.641  20.862 -0.1569  0.0301  0.3186
35071W        W78124   0.903  28.797  15.529 -0.2657 -0.3976 -0.2038
35072W        W78125  26.622  30.056  24.644 -0.3280 -0.0183  0.1207
35073W        W78126  34.125   0.568  15.195  0.1146  0.0166  0.1627
35074W        W78127   6.344  15.880  24.275 -0.1353 -0.3316  0.1361
35075W        W78128  13.626  25.504  17.303 -0.0625  0.2270 -0.0998
35076W        W78129  24.411   2.795   3.673  0.1029  0.3050 -0.0154
35077W        W78130  30.593   5.565   3.396 -0.0629  0.0955 -0.3186
35078W        W78131  19.146   2.898   4.935  0.1472 -0.0166 -0.0081
35079W        W78132   7.499   3.008  22.775 -0.0375  0.0378  0.2048
35080W        W78133   8.107   2.563  17.729 -0.3186 -0.1248  0.2260
35081W        W78134   1.346   9.612   1.319 -0.1927  0.1871 -0.0687
35082W        W78135  19.520  22.132   0.264 -0.0653  0.1013  0.4624
35083W        W78136  18.749  17.838  22.824 -0.1157 -0.0683  0.1315
35084W        W78137  12.143   1.581  16.378  0.1068  0.1827  0.0555
35085W        W78138   0.252  12.534  28.995 -0.0707  0.2903  0.5927
35086W        W78139  27.751  26.362  17.991 -0.1112 -0.3842 -0.3064
35087W        W78140  15.926  33.975  21.331 -0.1554 -0.1498  0.0552
35088W        W78141   6.176   9.851  20.159  0.1659  0.1878  0.0080
35089W        W78142   7.307  21.907  15.086  0.2285 -0.1661 -0.0493
35090W        W78143  11.646   5.950  20.134 -0.0048 -0.1152 -0.1273
35091W        W78144   6.188  33.302  21.853 -0.1874 -0.3741  0.4737
35092W        W78145  22.644  33.488  21.512 -0.0651 -0.0020  0.3138
35093W        W78146   9.231   7.854  21.587  0.1730  0.1653 -0.2028
35094W        W78147  33.476  29.243  21.819 -0.2564 -0.1889 -0.3061
35095W        W78148  24.584  31.746  24.842 -0.0274 -0.0696  0.0118
35096W        W78149   2.435  26.720   2.155  0.1381  0.1399 -0.0214
35097W        W78150  15.352   3.432  19.958  0.0785  0.2803  0.1054
35098W        W78151  10.703  25.573  17.476 -0.2298 -0.0789 -0.2916
35099W        W78152  16.629  28.672  22.038  0.4320  0.3342 -0.0259
35100W        W78153  33.422   4.008  13.821 -0.0261 -0.0597  0.0610
35101W        W78154  23.856  23.124  24.223  0.0196  0.0748 -0.0583
35102W        W78155  32.977   8.676  17.601  0.3659  0.2223 -0.2944
35103W        W78156   2.789   0.001  20.598 -0.2703 -0.4294 -0.1331
35104W        W78157  11.095  27.384   4.945  0.1558  0.0448  0.2568
35105W        W78158   4.770   2.570  17.905 -0.2938 -0.4053 -0.3308
35106W        W78159  12.885  14.126  18.770 -0.3220 -0.1481  0.1482
35107W        W78160   4.650  26.147  15.708  0.0005  0.4893 -0.0643
35108W        W78161  13.188  32.482  15.329  0.2710  0.0875  0.1683
35109W        W78162  10.121   3.583  25.977  0.0317 -0.2288  0.1719
35110W        W78163  13.152  30.190  22.050 -0.0282 -0.0669  0.0942
35111W        W78164  32.270  30.554  14.157 -0.3520 -0.2906 -0.2420
35112W        W78165   3.173   3.086  25.957  0.1675 -0.2115  0.1853
35113W        W78166  14.597  23.030  13.774 -0.1760  0.1848  0.0759
35114W        W78167   9.232  18.934   0.534 -0.2882 -0.0021 -0.3326
35115W        W78168  33.697   6.964  14.297 -0.0881 -0.1640 -0.2033
35116W        W78169   2.439  21.559  25.961  0.1379  0.2288  0.0704
35117W        W78170  13.044   7.390  16.354  0.1107  0.0712 -0.1938
35118W        W78171  25.326  29.471  15.888  0.1421  0.0438  0.2089
35119W        W78172   1.604   1.312  25.720  0.2115  0.2714  0.0715
35120W        W78173  28.959  20.733   2.728  0.1652  0.0026  0.3568
35121W        W78174  28.939  33.765  25.754  0.0389 -0.1859  0.3026
35122W        W78175   8.170  18.931  17.382 -0.1573  0.0489 -0.1991
35123W        W78176   5.156  27.467  17.569 -0.1006 -0.0330  0.0503
35124W        W78177  26.245  33.403   1.962 -0.3081  0.0245  0.0999
35125W        W78178  34.309   2.423  20.811  0.1444  0.0911 -0.0223
35126W        W78179   9.345  30.345  22.401  0.0210  0.2631 -0.0601
35127W        W78180   1.916  30.285  22.448 -0.0434  0.3580  0.1623
35128W        W78181   1.623   2.534   0.288  0.2175 -0.1268  0.3015
35129W        W78182  13.747   5.066   3.836 -0.0067  0.0143 -0.0307
35130W        W78183   4.869  23.506  19.678  0.0320  0.0482 -0.0727
35131W        W78184  18.259  31.407  23.230  0.0309 -0.1011 -0.2077
35132W        W78185   1.064  24.017  22.090  0.1421  0.0476  0.0207
35133W        W78186  30.690  16.999  23.022 -0.0730 -0.0989 -0.2742
35134W        W78187   1.485   1.779  25.758 -0.0999 -0.1233 -0.0233
35135W        W78188   1.977  20.123  23.108  0.0800 -0.0285  0.0533
35136W        W78189   2.545   7.879  24.278  0.2220  0.2322  0.2890
35137W        W78190  29.516  28.968  18.820  0.0292 -0.2525  0.0560
35138W        W78191  25.848  16.173   0.117  0.2988  0.1176 -0.1322
35139W        W78192  18.554  11.322  28.341  0.0142 -0.0828 -0.1039
35140W        W78193  13.471  24.385  28.080  0.2561 -0.1397  0.0612
35141W        W78194  13.777  21.994  15.734  0.1815  0.1206 -0.0199
35142W        W78195  26.001  28.272   4.790 -0.0053  0.2592  0.0529
35143W        W78196  22.880  21.319  16.361 -0.2976 -0.2170 -0.0441
35144W        W78197   0.806  22.851  21.877  0.0251 -0.1497 -0.0091
35145W        W78198   9.287   1.357  19.911  0.0522 -0.1088  0.0259
35146W        W78199   9.652  25.355  24.068 -0.0929 -0.0731  0.4604
35147W        W78200  17.670   5.400  25.105 -0.1393 -0.0175  0.2512
35148W        W78201   7.333  13.851  14.372 -0.2701 -0.0298 -0.2703
35149W        W78202  24.045   8.413   5.114 -0.3140  0.1686  0.0023
35150W        W78203  12.499  26.217  22.511 -0.0943 -0.2686  0.3473
35151W        W78204  30.468   6.336  15.703  0.3962  0.0452  0.1700
35152W        W78205  23.976  32.768   1.571  0.0769 -0.1050  0.1400
35153W        W78206   2.454  27.001  22.367 -0.2112  0.1968  0.0218
35154W        W78207   4.000   8.870  18.935 -0.0203 -0.0966  0.2718
35155W        W78208  15.960   6.151  22.082 -0.0999  0.0108  0.0223
35156W        W78209  30.266   9.913  23.053  0.2219  0.2921  0.0907
35157W        W78210  33.922  24.778  28.279 -0.1361  0.2230  0.1021
35158W        W78211  16.725  30.412  26.508  0.0884  0.2249  0.2272
35159W        W78212   5.888   6.866  28.729  0.1511 -0.0233  0.0409
35160W        W78213  21.903   5.021   8.586  0.2208  0.2176  0.4363
35161W        W78214  34.485  34.571  20.018  0.1633  0.0066 -0.1704
35162W        W78215  22.941   2.846  13.847 -0.1796  0.3417 -0.1521
35163W        W78216  27.496   1.289  14.767  0.1240  0.4438  0.2058
35164W        W78217  29.865   8.034  24.594 -0.4168  0.0982 -0.1972
35165W        W78218  32.003   2.322  15.203  0.1247  0.2517 -0.0687
35166W        W78219   1.917   5.153  19.544  0.1732 -0.1204  0.3423
35167W        W78220  12.124  29.061  18.773 -0.2883 -0.1891  0.2966
35168W        W78221  19.708   7.402  18.510  0.0349 -0.2733 -0.3337
35169W        W78222   8.977  23.732  26.574 -0.0205 -0.3760  0.3898
35170W        W78223  33.108  18.850  14.610 -0.2398 -0.3467  0.0597
35171W        W78224  12.452  27.904  13.408  0.0066 -0.2347  0.1704
35172W        W78225   7.108   9.090  27.508 -0.3647  0.0402  0.1994
35173W        W78226   4.694   0.171  22.645 -0.1124  0.0682 -0.1394
35174W        W78227   7.185  28.504  24.836  0.2078  0.1301 -0.0526
35175W        W78228  34.325  15.581  24.607  0.0002  0.0190 -0.1041
35176W        W78229  10.443  30.303  23.069 -0.0479 -0.0941 -0.3659
35177W        W78230   9.797  10.436  18.378  0.0353 -0.0571 -0.2184
35178W        W78231  33.564   1.889  22.712  0.0348  0.2896  0.0334
35179W        W78232  22.785  28.804  15.232  0.0891 -0.0158 -0.1470
35180W        W78233   3.624  28.557  14.455  0.1835  0.1544  0.2499
35181W        W78234   4.665  27.940  22.735 -0.3520 -0.1190  0.0026
35182W        W78235   1.918  33.433  17.782 -0.1303 -0.0538 -0.2032
35183W        W78236   1.078   6.678  23.888  0.0971  0.1532 -0.0765
35184W        W78237   2.956   2.898   2.965 -0.0498  0.0281 -0.0673
35185W        W78238  32.407   1.574  24.682  0.0163  0.2452  0.1963
35186W        W78239  17.246  34.378  19.245  0.0947 -0.1876 -0.0679
35187W        W78240  32.465   0.941   5.141 -0.1393  0.2287  0.0208
35188W        W78241  11.803  20.481  17.046 -0.0024 -0.0117  0.2303
35189W        W78242  10.396  34.668   0.114 -0.0908 -0.5435  0.3446
35190W        W78243   5.963  17.594  25.797  0.2350  0.1781  0.1498
35191W        W78244   7.505  11.616   3.950 -0.3009 -0.0211 -0.0338
35192W        W78245   1.754  15.362  23.703  0.1881  0.3079 -0.3935
35193W        W78246  23.721  19.303   0.726  0.2065 -0.1491 -0.1238
35194W        W78247   4.090  31.655  22.470 -0.0385 -0.0363 -0.1531
35195W        W78248  11.785   3.728  18.902  0.0565 -0.1961  0.1466
35196W        W78249   8.472   9.457  24.540  0.2694 -0.2457 -0.0752
35197W        W78250  34.027  23.012   0.570 -0.3175  0.1461 -0.1575
35198W        W78251   1.148   0.089  21.393 -0.4562 -0.0554  0.2548
35199W        W78252   0.079  29.436   5.171  0.1384  0.3106  0.4685
35200W        W78253  10.821  10.615   5.662  0.0669  0.1481  0.1772
35201W        W78254  18.601   2.749  21.400  0.1117  0.0860  0.2593
35202W        W78255  33.994   5.436   5.276  0.4464 -0.0954 -0.0004
35203W        W78256   5.117  32.394  27.851  0.0777 -0.0275  0.3477
35204W        W78257  11.728  25.218  15.938  0.3623  0.1640 -0.2842
35205W        W78258  27.731   5.582  26.630  0.1516 -0.1685  0.1006
35206W        W78259   2.341  12.455  16.224 -0.2183 -0.1104  0.0446
35207W        W78260  24.778   9.843  24.847  0.1916  0.0590  0.0461
35208W        W78261   5.666   3.536  19.394  0.2490  0.0393 -0.2020
35209W        W78262  12.812  32.971  19.089  0.1577 -0.0076  0.0325
35210W        W78263  13.438  19.091  16.315 -0.4746 -0.2208  0.1108
35211W        W78264   3.647  10.241  27.981  0.0164 -0.1177  0.0037
35212W        W78265  26.199   2.074  28.020 -0.1802  0.0027 -0.0764
35213W        W78266  12.184   1.940  15.038 -0.0015 -0.0002  0.2819
35214W        W78267   8.782   6.760  16.418 -0.0354 -0.1564 -0.0213
35215W        W78268  10.699   0.985  25.878 -0.1448 -0.1727  0.1952
35216W        W78269  33.103  27.324  14.322  0.0151  0.1330 -0.0663
35217W        W78270  12.849  28.293  26.410  0.3691 -0.2541  0.3682
35218W        W78271   3.119  15.656  18.381 -0.1526 -0.3261 -0.2863
35219W        W78272   8.157   1.907  24.448  0.0895 -0.0638  0.0817
35220W        W78273  17.354   2.054  19.077 -0.2530 -0.2222 -0.1123
35221W        W78274   6.152   4.424  16.582 -0.2458  0.0444 -0.1254
35222W        W78275  28.377   4.749  22.015 -0.1752  0.0980 -0.2627
35223W        W78276  15.500   0.759  16.158  0.1875  0.2967  0.1086
35224W        W78277   3.789  30.264  20.103  0.3190 -0.2254 -0.1480
35225W        W78278   9.671  32.912  25.171 -0.1627 -0.1371  0.0350
35226W        W78279   6.662  19.497  21.697 -0.2169  0.2792 -0.1372
35227W        W78280   7.723  31.017   5.254  0.0212  0.4006  0.3153
35228W        W78281  32.859   5.874  16.940  0.0773 -0.0933  0.2407
35229W        W78282  11.384   7.159  17.786  0.0190 -0.0543  0.1614
35230W        W78283  14.504   7.642  27.973 -0.5311  0.2866  0.2385
35231W        W78284  14.001  24.678  13.806 -0.0891 -0.4473  0.0083
35232W        W78285  32.223  16.394   6.877  0.1166  0.0038 -0.4004
35233W        W78286  28.062  18.139  23.495  0.1092 -0.2653 -0.0819
35234W        W78287  22.847   6.546   6.803  0.0712  0.1197  0.1644
35235W        W78288   4.528  17.064  27.103 -0.1028 -0.0035  0.2147
35236W        W78289  18.994   7.314   2.569  0.2689 -0.0384  0.1730
35237W        W78290   0.265  24.109  24.406 -0.2314 -0.0597 -0.0679
35238W        W78291  30.949  28.793  20.592 -0.2518  0.1738 -0.1427
35239W        W78292   1.770   3.096  19.542 -0.2234 -0.0310  0.3369
35240W        W78293   7.409  18.199  20.547 -0.2646  0.0359 -0.1463
35241W        W78294  19.516  33.834   4.412 -0.0890  0.3422 -0.1208
35242W        W78295   0.845   2.107  19.851  0.0987 -0.0411 -0.2301
35243W        W78296  13.790  28.063   6.279  0.1497 -0.0526 -0.2325
35244W        W78297  17.565   5.651  20.171 -0.1677 -0.3868  0.3390
35245W        W78298   5.526  30.403  16.288  0.1232  0.0880  0.0680
35246W        W78299  31.998  26.382  17.763  0.2578  0.2614 -0.0298
35247W        W78300  21.243   3.552  17.131  0.2111  0.3503 -0.1758
35248W        W78301   9.676  10.613   1.486  0.0222  0.2736  0.0716
35249W        W78302   7.576  10.075  17.733  0.0827 -0.0329  0.0675
35250W        W78303  32.362  26.021  14.443  0.1666  0.0580 -0.0533
35251W        W78304   3.894   8.304  14.810  0.2114  0.2230 -0.0015
35252W        W78305   2.590   3.651  21.326  0.2332 -0.1425 -0.3388
35253W        W78306   5.233   3.734  27.115 -0.0797 -0.0210  0.0676
35254W        W78307  23.527  23.402  28.904 -0.1881 -0.2726 -0.2678
35255W        W78308  17.526  22.363  23.671  0.2406  0.1612  0.0679
35256W        W78309   3.764   0.119  28.984  0.1533 -0.1817 -0.0849
35257W        W78310   4.973  17.148   0.459  0.1037 -0.1487 -0.1117
35258W        W78311   2.965  24.297  27.236 -0.0198 -0.1949 -0.3549
35259W        W78312  11.785  31.211  26.718  0.0124  0.1226 -0.1282
35260W        W78313   9.193  24.627  20.091 -0.1035  0.0285 -0.0599
35261W        W78314  15.550  21.887  17.873  0.2570 -0.1555  0.0186
35262W        W78315  27.406   6.991   7.103  0.1772 -0.2494 -0.2311
35263W        W78316  29.604  32.537  16.672  0.1816  0.0101  0.0525
35264W        W78317  32.488  28.621   1.557 -0.1989 -0.1175  0.0883
35265W        W78318  13.863  27.553  20.737 -0.3164 -0.3556  0.1052
35266W        W78319   1.013  33.511  16.974  0.2291 -0.2730 -0.1658
35267W        W78320  12.882  34.307  11.040  0.3572 -0.0659 -0.0890
35268W        W78321  14.571  31.209  16.467  0.0926  0.2164 -0.1422
35269W        W78322   9.347   0.095  23.653 -0.2744 -0.0519  0.1678
35270W        W78323  27.243  13.868  21.574 -0.3530 -0.4388  0.0147
35271W        W78324  13.272  24.607  18.266 -0.1029  0.1867  0.4086
35272W        W78325  30.051   0.698  25.511 -0.0185  0.0294 -0.0295
35273W        W78326   3.608  22.314   3.890 -0.0245  0.1652 -0.0877
35274W        W78327  11.285  19.945  14.287 -0.0314 -0.0726 -0.2127
35275W        W78328  33.229   0.559  20.709 -0.1199 -0.0063  0.0296
35276W        W78329   4.396   4.856  16.444  0.0120  0.1701 -0.1438
35277W        W78330  34.589  32.673  28.289 -0.2086 -0.0351  0.2034
35278W        W78331   5.009   1.516  16.858  0.1354  0.1824  0.1073
35279W        W78332   0.186  28.685  16.412 -0.1484 -0.3778  0.0349
35280W        W78333  30.375  15.031  21.265  0.2448  0.4456  0.2629
35281W        W78334   1.317   0.996  20.878  0.0466 -0.0891  0.2328
35282W        W78335   7.805  32.857   7.996  0.0799 -0.2464  0.1973
35283W        W78336  10.276  14.726  16.088 -0.2218  0.1796  0.0906
35284W        W78337   3.514  21.458  17.070 -0.0985 -0.1419  0.1298
35285W        W78338  17.594   3.898  17.554 -0.2302 -0.0337  0.0567
35286W        W78339   7.302  31.324   2.675 -0.1043 -0.3936  0.0317
35287W        W78340  21.149  30.371  16.340 -0.2918 -0.1223 -0.3031
35288W        W78341   6.360  11.750  27.557 -0.0352  0.0799 -0.2521
35289W        W78342  17.412  30.987  23.550  0.0281  0.0034 -0.2347
35290W        W78343   1.682  12.393  14.333 -0.0733  0.1883 -0.3478
35291W        W78344  29.007  19.774  23.435  0.2593  0.1841 -0.0429
35292W        W78345  12.253  27.350  16.035  0.1035  0.0640  0.2533
35293W        W78346  11.690  18.010   8.691  0.1412 -0.1546 -0.1092
35294W        W78347  16.631  11.153  19.610  0.1119  0.1029 -0.3110
35295W        W78348  16.246  33.867  28.369 -0.1625 -0.3011 -0.1465
35296W        W78349   3.583  28.540   3.696  0.0988  0.1750  0.3626
35297W        W78350   0.621   1.230  25.370 -0.2413  0.2468  0.0750
35298W        W78351   5.318  28.057  19.243 -0.0797  0.1783  0.0886
35299W        W78352  25.166  13.100  20.536 -0.0332  0.2044 -0.0064
35300W        W78353  28.682  16.791  27.468  0.0204 -0.4462 -0.0606
35301W        W78354   3.196   5.278  19.612  0.0098 -0.2230 -0.2102
35302W        W78355   6.102  23.914  17.903 -0.1838  0.0459  0.1017
35303W        W78356  33.849  11.789  23.814  0.3470  0.3088 -0.1470
35304W        W78357   6.914   9.763  18.303 -0.5028 -0.0535 -0.5509
35305W        W78358   2.390  30.046  13.098 -0.3816  0.4576 -0.0160
35306W        W78359   3.064  21.771  14.487  0.0035 -0.2039  0.0801
35307W        W78360  10.349   3.422  23.048  0.1876  0.0871 -0.3380
35308W        W78361   5.282  32.923  21.356 -0.0958  0.1878 -0.3262
35309W        W78362  31.585  27.596  27.771  0.2678  0.0431 -0.0691
35310W        W78363  34.113  28.838  16.686 -0.1019  0.0061  0.0679
35311W        W78364  34.072  28.060  19.180  0.0104  0.0014  0.1052
35312W        W78365   2.965   5.858   2.172  0.2432  0.0164  0.1331
35313W        W78366  30.058  10.305  17.071  0.4675  0.0799  0.0124
35314W        W78367   2.286  25.062   1.872  0.0613 -0.0215 -0.0450
35315W        W78368   2.504  12.172   7.723 -0.0788 -0.4190  0.0330
35316W        W78369   7.998  32.359  18.669  0.0175  0.0160 -0.2060
35317W        W78370   2.847  28.561  15.146 -0.3430 -0.1017  0.1211
35318W        W78371  21.591  11.931  16.603 -0.2205 -0.1195  0.0743
35319W        W78372  26.298   1.034  23.456 -0.0295 -0.0515 -0.0037
35320W        W78373   5.708   2.149   8.392  0.0842 -0.0306  0.2323
35321W        W78374   7.595  15.072  20.411  0.0836  0.0327  0.0467
35322W        W78375  33.949  16.721  17.756  0.0924 -0.1946 -0.0785
35323W        W78376   4.187  30.207  18.121 -0.2737  0.2546 -0.3156
35324W        W78377   4.904  19.664  16.815 -0.2027  0.0315  0.0614
35325W        W78378   8.567  30.525  18.813  0.3855  0.1921  0.4435
35326W        W78379   5.971   7.654  15.213  0.2803  0.5115  0.1741
35327W        W78380  26.674  24.028   6.158 -0.0342  0.0364 -0.0106
35328W        W78381  32.215   9.679  15.928 -0.0091 -0.1408 -0.0859
35329W        W78382   7.988  14.570  27.760  0.1123  0.1001 -0.0255
35330W        W78383  27.072   6.205  16.739  0.0600 -0.0855  0.1681
35331W        W78384  10.188  25.781   1.809 -0.2158  0.0805  0.1921
35332W        W78385   7.168   2.746   1.623  0.1308 -0.1928 -0.3993
35333W        W78386   0.861   0.195  17.568  0.1497 -0.3609  0.0496
35334W        W78387  32.507  32.783  29.076 -0.2063  0.0123 -0.0033
35335W        W78388  21.346  25.318  25.699  0.1882  0.0022 -0.0350
35336W        W78389  16.363  21.119  21.208  0.0589  0.1434 -0.1166
35337W        W78390   3.037  30.735  24.907  0.1143  0.1852 -0.1739
35338W        W78391  13.456   0.264  23.470 -0.0809  0.3371  0.2541
35339W        W78392   1.855  30.796  22.546  0.0228 -0.0927 -0.0217
35340W        W78393   7.310  30.977  14.227 -0.0971  0.0053 -0.0566
35341W        W78394   1.723  17.228   3.083 -0.1212  0.1467 -0.2208
35342W        W78395  15.976  22.841  21.165  0.2838 -0.3371  0.1307
35343W        W78396  11.068  31.736  24.710  0.0495  0.2639 -0.2527
35344W        W78397   3.475  25.437  14.523 -0.1473  0.1810  0.0315
35345W        W78398  18.383  20.739   1.536  0.2592  0.0088  0.0809
35346W        W78399   8.632  24.979  24.216  0.3077  0.0841 -0.1203
35347W        W78400  16.718   8.620   1.768 -0.1685 -0.0687 -0.0058
35348W        W78401  11.601  32.651   6.671 -0.0031  0.0591 -0.0233
35349W        W78402   0.738  22.082  20.019 -0.2661 -0.1773  0.0021
35350W        W78403   3.359  29.066  16.941  0.2286  0.1391 -0.1871
35351W        W78404   2.577   6.074   6.747  0.1396 -0.1717  0.0732
35352W        W78405   9.326   4.236  20.226  0.1818  0.1753 -0.0928
35353W        W78406   3.841   6.475   7.767  0.3025  0.3077 -0.0527
35354W        W78407   3.089  14.069   0.245  0.2211 -0.0794 -0.4130
35355W        W78408  10.277   2.486  22.641  0.0753 -0.1055 -0.0767
35356W        W78409  19.053  10.555  26.208  0.0642  0.0402 -0.5481
35357W        W78410   4.834   3.035   8.384  0.2202 -0.1389 -0.2931
35358W        W78411   7.286   9.347  14.908 -0.0904  0.0976  0.2197
35359W        W78412   4.895   7.247  20.153 -0.2183 -0.2598  0.0410
35360W        W78413  21.191   5.494  24.643 -0.0441  0.0918  0.0288
35361W        W78414   3.951   8.230  15.659 -0.0756 -0.1174 -0.0331
35362W        W78415  12.947  23.427  28.832 -0.0032 -0.1354  0.3597
35363W        W78416  10.826  18.560  23.848 -0.4162  0.1248  0.0977
35364W        W78417  29.517  33.350  28.728  0.4047  0.2350  0.2890
35365W        W78418  12.590   6.288  17.988 -0.0702  0.2976  0.2146
35366W        W78419   4.762   2.169  24.190 -0.1686 -0.0891 -0.2032
35367W        W78420  18.816   7.612  18.685  0.1651  0.1775 -0.3529
35368W        W78421  20.968   5.683   8.584 -0.2708  0.2108 -0.3557
35369W        W78422  11.028   1.154   0.547 -0.2808  0.4984 -0.1957
35370W        W78423  31.835  21.125  20.088  0.0636 -0.1482 -0.1463
35371W        W78424   3.853  32.692   4.396  0.2755 -0.1469 -0.1724
35372W        W78425   4.457  22.268  20.691  0.0328 -0.2112  0.2123
35373W        W78426  25.953  32.593  14.125  0.2069  0.0461 -0.0022
35374W        W78427  10.436   6.566   3.403 -0.0713 -0.0063 -0.0029
35375W        W78428   8.708  33.580  15.667 -0.2775  0.1428 -0.1645
35376W        W78429  12.423   2.650  20.606  0.0946  0.1269 -0.2646
35377W        W78430  33.700  31.189   7.973  0.1195  0.4360  0.1893
35378W        W78431   7.885  11.517  20.186 -0.4786 -0.1293  0.1049
35379W        W78432   6.241  11.323   8.798  0.2061 -0.2046  0.2156
35380W        W78433  14.256  28.125  18.690 -0.2198  0.2283 -0.1239
35381W        W78434  19.059   4.084   1.408  0.2083  0.0586  0.1284
35382W        W78435   9.252   1.891  18.835  0.3813 -0.0058  0.0171
35383W        W78436   1.613  32.799   0.095  0.2212 -0.1977  0.1952
35384W        W78437   9.895  26.846  15.788 -0.0863 -0.2813 -0.1036
35385W        W78438  34.332  29.274  14.351 -0.0992 -0.0480  0.1024
35386W        W78439  15.199  32.897   1.500  0.1461 -0.2508  0.1434
35387W        W78440  29.715  23.424  17.240  0.1283  0.2446  0.0493
35388W        W78441  27.008  26.809  22.552  0.2572 -0.1182  0.0417
35389W        W78442  29.125  33.197  20.281 -0.1614 -0.0133 -0.0096
35390W        W78443   5.307   6.975  17.757  0.0660  0.4015  0.2148
35391W        W78444  34.068  22.050   1.168 -0.3917 -0.0905 -0.2252
35392W        W78445   5.646  30.192  25.433 -0.2166 -0.2481  0.0282
35393W        W78446   8.997  30.640   0.089 -0.0177  0.1708  0.0861
35394W        W78447   8.767  25.254   3.134 -0.3219  0.2656 -0.0657
35395W        W78448  10.333   7.880  17.439  0.0710  0.3169  0.0150
35396W        W78449  12.398  17.885  27.045 -0.0775 -0.0202 -0.1297
35397W        W78450  33.086  28.578  16.443  0.2260 -0.1061  0.0181
35398W        W78451  23.593   8.992  27.546 -0.0935 -0.1287 -0.0056
35399W        W78452  12.217  13.172  22.402  0.3037  0.1821 -0.0820
35400W        W78453   4.600  34.347  28.021 -0.1484  0.2030 -0.4592
35401W        W78454  33.480   0.908  15.882 -0.1697 -0.1204  0.1842
35402W        W78455   8.841   1.579   1.500 -0.1417  0.2366 -0.2540
35403W        W78456   9.052  33.099  22.545  0.2264  0.3418 -0.2730
35404W        W78457   8.039   9.754  20.993 -0.2175  0.2026 -0.1635
35405W        W78458   1.299   2.867  19.453  0.1377 -0.1915  0.2807
35406W        W78459  11.330  31.277  16.107 -0.2569  0.0407  0.1896
35407W        W78460   3.109  10.763  29.043 -0.3048 -0.1382  0.0219
35408W        W78461   4.619   7.889  19.216 -0.2691 -0.1712  0.1997
35409W        W78462  10.126  16.043  24.955  0.1032 -0.1295 -0.1665
35410W        W78463   9.842  16.874  15.089  0.0672 -0.0387 -0.0013
35411W        W78464   6.893   8.030  22.242 -0.1288  0.3062 -0.1939
35412W        W78465   5.826  31.147  15.803  0.0738 -0.2880 -0.4261
35413W        W78466   6.803  33.266  25.207  0.2527  0.0437  0.1588
35414W        W78467   6.792   2.238  22.012  0.0328  0.1622  0.0325
35415W        W78468  34.483  31.436  19.509  0.0712  0.2717  0.1330
35416W        W78469   8.074  10.953  20.098 -0.0107  0.1864 -0.0279
35417W        W78470  27.584   7.043  17.100 -0.3519  0.1029 -0.2651
35418W        W78471  11.332   4.833  16.305 -0.4130  0.2069 -0.3103
35419W        W78472   5.698  28.679  21.606 -0.1233 -0.0596 -0.0513
35420W        W78473  19.886   0.183  25.296  0.4016  0.4204  0.1779
35421W        W78474  30.068  34.207  17.715 -0.0352 -0.0304  0.0784
35422W        W78475   6.694  31.251   7.173  0.0889 -0.0013 -0.1607
35423W        W78476  12.533  34.102   4.084 -0.0824 -0.0257 -0.3024
35424W        W78477   4.411  17.782  21.896 -0.2255 -0.4521  0.0663
35425W        W78478   8.872  14.889  27.627 -0.0764  0.1448  0.0564
35426W        W78479  25.161  11.705  24.438  0.0110 -0.1827  0.0562
35427W        W78480  11.692  20.131   3.148  0.1857  0.2682  0.0750
35428W        W78481   1.445   1.100  17.857  0.2789  0.2267  0.0539
35429W        W78482  30.962  18.202  28.797 -0.0271  0.0251 -0.3219
35430W        W78483   7.025  30.091  28.522  0.3174  0.2684 -0.0169
35431W        W78484  18.766   6.182   0.834 -0.0019  0.0196  0.1069
35432W        W78485  20.539   9.611  17.739  0.2677 -0.1533 -0.0091
35433W        W78486  25.648  13.940  23.696  0.1185  0.1579 -0.0958
35434W        W78487  24.195   1.711  26.675 -0.0065  0.3262  0.0662
35435W        W78488  11.584  32.068  27.836 -0.0527  0.0390  0.2051
35436W        W78489   5.118   7.347   3.599 -0.0023 -0.2063  0.4168
35437W        W78490  30.790  32.500  17.532 -0.1668 -0.0707  0.0589
35438W        W78491   2.895   3.215  18.290 -0.0334 -0.2911 -0.3963
35439W        W78492   9.228   1.566  21.168 -0.1597  0.0239  0.0726
35440W        W78493   8.597  10.428   9.026  0.1027  0.0852  0.0966
35441W        W78494  29.248  22.589  20.215  0.1414  0.1101  0.1295
35442W        W78495  32.804  12.041  22.860 -0.1823 -0.2118 -0.2892
35443W        W78496  10.422   8.565  27.322  0.2159  0.1046 -0.2272
35444W        W78497  34.216   8.538  25.723  0.1743  0.0075 -0.2337
35445W        W78498  12.117   4.583   1.297 -0.1678 -0.2475  0.1477
35446W        W78499  11.909  28.403  23.563  0.4058 -0.3547  0.0864
35447W        W78500   6.917   8.697  18.286 -0.0978  0.0999  0.1662
35448W        W78501   5.204  12.012  10.619  0.0675  0.0213 -0.1338
35449W        W78502  12.674   6.301   7.869  0.0576 -0.0969  0.1195
35450W        W78503  11.067  21.050  25.333 -0.1719  0.3530  0.2025
35451W        W78504  33.959  10.355   3.099  0.4254  0.0709 -0.3552
35452W        W78505  17.194   6.096  19.425 -0.2269 -0.2221 -0.2834
35453W        W78506   0.001   2.365  27.985 -0.0264  0.0491 -0.0394
35454W        W78507  12.699  32.863   4.367 -0.1156 -0.1406 -0.1244
35455W        W78508   0.560   7.884  26.247 -0.0371 -0.0696 -0.1570
35456W        W78509   6.536   0.711  27.902  0.1145  0.0186 -0.0860
35457W        W78510   7.850   2.368   7.911  0.2431 -0.1030 -0.2562
35458W        W78511  10.960   0.485  21.385 -0.1590 -0.1065  0.1365
35459W        W78512  23.873  33.624   7.807  0.2881 -0.1936 -0.0195
35460W        W78513   3.027  11.406  20.938  0.0844  0.1144  0.1699
35461W        W78514  10.452  32.294  20.838 -0.0200 -0.2090  0.0879
35462W        W78515  13.648   6.881  22.073 -0.1179  0.0777  0.1173
35463W        W78516   0.360  32.944  23.286  0.0354  0.1319  0.0741
35464W        W78517  10.788  21.010  21.348 -0.0359  0.1239  0.1165
35465W        W78518  15.668   4.441  22.903  0.1281  0.0766 -0.1772
35466W        W78519  19.580  23.364   1.449 -0.0446  0.2259  0.0999
35467W        W78520   7.977   4.999  18.990  0.1244 -0.0085 -0.2993
35468W        W78521   1.022  33.804  17.903  0.4625  0.3414  0.1314
35469W        W78522  19.912  22.308  16.789  0.1728 -0.3441 -0.2263
35470W        W78523   0.706   0.197  14.922  0.0210  0.1882 -0.0500
35471W        W78524   6.295  24.754  21.337 -0.3660 -0.1453 -0.0130
35472W        W78525  23.594   3.782   1.156 -0.3660 -0.0576 -0.3832
35473W        W78526  12.836  27.043  18.173  0.2811  0.0179 -0.3136
35474W        W78527  27.880  15.332  27.176  0.3062 -0.1305 -0.0885
35475W        W78528  14.439  30.680  23.898 -0.0114  0.1738 -0.2177
35476W        W78529  19.524  33.778  27.964  0.5051  0.1378  0.0887
35477W        W78530  25.934  34.123  20.830 -0.1736  0.1109 -0.0005
35478W        W78531  18.600  28.697   3.466  0.2504 -0.0645 -0.0767
35479W        W78532  16.753  34.192  25.305  0.2291 -0.1385  0.0059
35480W        W78533  26.494   5.729  20.742  0.0301 -0.0796 -0.0217
35481W        W78534   3.873  25.810  24.095  0.0041  0.1366  0.1827
35482W        W78535  24.117  33.458  19.496  0.0485 -0.1723  0.1553
35483W        W78536  33.801  28.960  15.243 -0.0473  0.0541 -0.1068
35484W        W78537   9.722   4.637  10.136  0.1963 -0.0310  0.1801
35485W        W78538   8.792  34.027  24.591 -0.2075 -0.2704 -0.0919
35486W        W78539   2.725   4.113  18.496  0.1146 -0.0018  0.2242
35487W        W78540  22.840   3.163  15.247 -0.1632 -0.3225 -0.3241
35488W        W78541   0.288   0.187  15.197 -0.0682  0.1285 -0.0954
35489W        W78542  27.092   1.320   7.446 -0.0397 -0.2763 -0.1972
35490W        W78543   1.594   1.576  19.497 -0.4199 -0.2708  0.1752
35491W        W78544   4.631  30.046   1.862 -0.3287 -0.0257  0.0212
35492W        W78545   0.098  31.977   3.405  0.4233 -0.4464  0.1631
35493W        W78546  27.810   7.057  14.679  0.0566  0.0221 -0.2110
35494W        W78547   2.919  25.849  28.826 -0.0954 -0.3035  0.0027
35495W        W78548   8.861  31.722   7.356  0.2909  0.0386 -0.1237
35496W        W78549  11.638  19.430   3.347  0.1012 -0.0144  0.3434
35497W        W78550  25.176   1.341  19.373 -0.0261 -0.4230 -0.1597
35498W        W78551  13.461  28.972   7.758 -0.1018  0.1020 -0.1877
35499W        W78552   8.719   1.746  15.724 -0.1230  0.1812 -0.1025
35500W        W78553  25.432   2.085   6.506  0.3195 -0.3213 -0.4629
35501W        W78554  27.757  21.998   4.864  0.1236 -0.1760 -0.0574
35502W        W78555  25.985  12.511   3.740 -0.2526 -0.2004 -0.2824
35503W        W78556  13.403  17.045   7.443  0.1250 -0.0651 -0.3002
35504W        W78557   9.000   3.142  18.844  0.0420  0.3199  0.4408
35505W        W78558  26.545  31.576   3.914  0.1994 -0.2466 -0.1981
35506W        W78559   1.401   2.959  26.716 -0.0596 -0.0968  0.1814
35507W        W78560  15.813  33.408  26.180 -0.1971  0.0733 -0.0448
35508W        W78561   6.918  16.111   3.174 -0.0082 -0.0265  0.2934
35509W        W78562  14.591  27.024   3.669  0.0292 -0.2528  0.0789
35510W        W78563  14.558   4.781  17.020 -0.2144  0.2953  0.0079
35511W        W78564  31.571   2.447   6.556 -0.0915  0.1591 -0.1291
35512W        W78565  19.075  13.435  16.847  0.0435 -0.0142 -0.1132
35513W        W78566   6.062  30.730   3.869  0.1535 -0.2264 -0.0266
35514W        W78567  12.726  27.970  24.852 -0.2427 -0.3290 -0.2232
35515W        W78568   2.180   1.591   2.752  0.2473  0.0959  0.0957
35516W        W78569  15.136  32.145  14.920  0.0587  0.1003  0.0238
35517W        W78570   6.788   5.499  14.979  0.0892 -0.0396  0.3058
35518W        W78571  10.537  11.043  16.899 -0.2098 -0.6168  0.0187
35519W        W78572  18.217  33.149  28.943 -0.1902 -0.2424 -0.1484
35520W        W78573   7.675  30.724  13.512  0.3023  0.1434  0.4021
35521W        W78574  14.777   6.661  15.032  0.1079 -0.1306 -0.1414
35522W        W78575  15.424  11.593  25.999 -0.0491  0.2127 -0.0308
35523W        W78576  12.782  23.928  26.129 -0.1547  0.1799 -0.0820
35524W        W78577  27.231   9.458  27.014 -0.0122  0.0332  0.2001
35525W        W78578  12.966  33.466  18.354  0.0847 -0.0996 -0.1925
35526W        W78579  31.617   0.896   3.202  0.0226 -0.4610 -0.0912
35527W        W78580  34.011  30.025  25.468 -0.0729 -0.0884  0.0048
35528W        W78581  17.997  34.215  15.765 -0.3509  0.1588 -0.0031
35529W        W78582  17.817  34.335  14.905 -0.0530  0.1768  0.5064
35530W        W78583   5.603   5.199  26.643  0.2439 -0.1109 -0.2039
35531W        W78584   2.073  31.253  27.501 -0.1763  0.3028  0.0822
35532W        W78585   2.355  14.976   2.479  0.2224 -0.1014  0.0750
35533W        W78586   3.018   6.310  23.828  0.2559 -0.2946  0.0049
35534W        W78587   4.775   8.820  16.743  0.0973  0.1189 -0.0336
35535W        W78588   6.315  17.714  19.052 -0.0801  0.1947 -0.1183
35536W        W78589   9.791  31.664  24.306  0.1483 -0.5121  0.2688
35537W        W78590   4.464  24.657  28.136  0.0831  0.0958  0.3945
35538W        W78591  28.541  27.776  21.859  0.2060 -0.2049 -0.2609
35539W        W78592  17.339  14.207  28.042 -0.4749  0.1482 -0.1331
35540W        W78593   4.118   0.417  23.079  0.1952 -0.2912 -0.2955
35541W        W78594  13.884   2.738  16.642 -0.0157 -0.0140 -0.2612
35542W        W78595   5.030  31.247   1.148 -0.2717 -0.3255  0.1738
35543W        W78596  33.257   6.916   1.143 -0.1197  0.0855 -0.0396
35544W        W78597  14.036  18.368   8.680 -0.0194 -0.0497  0.3664
35545W        W78598   2.369  33.659  28.635  0.1775 -0.0486  0.1411
35546W        W78599   0.674  12.682  22.016 -0.4411 -0.2085  0.0593
35547W        W78600  32.578   3.665  27.448 -0.2547  0.0811 -0.0638
35548W        W78601  26.365  22.220   7.061 -0.1056  0.1016  0.1324
35549W        W78602  33.965  33.563  15.505  0.2467  0.2212  0.1189
35550W        W78603   6.386  18.285  25.095  0.0828 -0.3158  0.1270
35551W        W78604  31.454   0.404   3.323  0.4025 -0.0227 -0.1313
35552W        W78605   8.571  18.599  18.484  0.0393  0.0115  0.2762
35553W        W78606  13.991   3.068  26.584  0.0991 -0.1440 -0.0259
35554W        W78607  32.258  18.819  28.725 -0.3106 -0.0868 -0.2099
35555W        W78608  30.841  20.487  27.374 -0.2840 -0.0216  0.0979
35556W        W78609   1.435   4.982   2.406  0.0786  0.1214 -0.0121
35557W        W78610  30.311  32.855  22.822 -0.0644  0.2319  0.0994
35558W        W78611   9.452   5.828  17.939  0.0321  0.0828  0.0634
35559W        W78612  15.263  34.286  26.988  0.0983 -0.0105 -0.0764
35560W        W78613  25.398  27.497  27.887  0.1595  0.0130 -0.1596
35561W        W78614   9.326  30.222  19.995 -0.4394 -0.0479 -0.0275
35562W        W78615   9.944  26.074   5.750 -0.4266 -0.1565 -0.1292
35563W        W78616  30.483   2.846   1.941 -0.1591 -0.1759 -0.1187
35564W        W78617  14.317  25.722   7.063  0.1989 -0.0739  0.4385
35565W        W78618  29.764  28.704   9.381  0.0400 -0.1784 -0.0459
35566W        W78619   5.744  24.255   5.175  0.0283 -0.1163  0.2076
35567W        W78620  26.552   3.783   3.489 -0.0218 -0.0749 -0.2971
35568W        W78621   7.359  31.951   8.003 -0.1813 -0.0300 -0.0822
35569W        W78622   0.950  29.711  28.914 -0.2042  0.1446 -0.1593
35570W        W78623   7.307  32.477  14.573 -0.2226  0.0435  0.0126
35571W        W78624  29.215   1.269  15.174 -0.0791 -0.3208 -0.2898
35572W        W78625   1.107   6.803  14.549  0.2830  0.1528  0.2617
35573W        W78626   8.115  26.059   5.598  0.0209  0.1310  0.1940
35574W        W78627  15.212  28.435   8.456 -0.0748 -0.4623 -0.0418
35575W        W78628   6.649  22.433   6.302  0.1079  0.1001 -0.1113
35576W        W78629   9.089  29.336   7.183  0.1974 -0.0988 -0.0353
35577W        W78630   7.313  27.280   4.797  0.0970  0.1427 -0.2379
35578W        W78631  24.116   5.857  27.837 -0.2261 -0.2733 -0.0956
35579W        W78632  27.770   8.784  25.088  0.0705 -0.0078 -0.1261
35580W        W78633  17.748  34.227  17.368  0.0458 -0.0264 -0.0802
35581W        W78634  33.360  31.298   1.136  0.0093  0.2566  0.2831
35582W        W78635  33.420   5.461  15.694 -0.0573 -0.1375  0.0073
35583W        W78636  11.380   8.983   8.828  0.0697 -0.1837 -0.1055
35584W        W78637  32.935   6.177   1.325 -0.0942 -0.4156  0.0882
35585W        W78638  26.688  18.675   4.422 -0.3545  0.0588 -0.0602
35586W        W78639   2.866  20.312   4.721  0.1448  0.0626  0.1091
35587W        W78640  24.611   1.958   9.179 -0.0118  0.0791  0.4599
35588W        W78641  10.328  18.014  24.916  0.1106 -0.0511 -0.1905
35589W        W78642   5.637   9.765  19.414  0.0340  0.0258  0.3235
35590W        W78643  11.849  31.242  21.026 -0.1274 -0.4875  0.0528
35591W        W78644  26.728   8.724  26.316 -0.3136 -0.2810 -0.0169
35592W        W78645  26.188   3.544  16.367  0.1796 -0.0399 -0.1445
35593W        W78646  13.896   3.291   6.145  0.0484 -0.4709 -0.0805
35594W        W78647   9.608   9.181  23.632 -0.3265 -0.3229  0.1435
35595W        W78648   2.774  28.821   4.669  0.1202 -0.1010  0.1180
35596W        W78649   3.972  27.335   6.504 -0.3635  0.0634 -0.1251
35597W        W78650   9.333  34.576   1.164  0.1800  0.1244 -0.0197
35598W        W78651  25.918   1.149  27.271  0.0753  0.3937  0.3339
35599W        W78652  29.304  24.220  19.968 -0.0723  0.2412  0.3214
35600W        W78653  31.536  26.744  23.365 -0.0958 -0.0538 -0.2780
35601W        W78654  33.107  29.632  16.286 -0.1619  0.1186 -0.0002
35602W        W78655  20.786  33.306  15.998  0.1160 -0.0014  0.1247
35603W        W78656   5.848  21.129   3.551  0.1659  0.1212 -0.0107
35604W        W78657   5.290  22.930   8.150 -0.0024 -0.0167 -0.0218
35605W        W78658  23.879  16.294  15.421 -0.0642  0.3103 -0.0431
35606W        W78659  11.430   4.075   9.834 -0.2125 -0.3002 -0.0316
35607W        W78660  10.561  34.024  27.259  0.1207  0.0827  0.1569
35608W        W78661  15.079   5.815  25.558 -0.1295  0.0546 -0.0536
35609W        W78662   1.957   4.032   9.207  0.0481 -0.0409 -0.0450
35610W        W78663   0.833  10.837   4.254 -0.0274 -0.3779 -0.0885
35611W        W78664   9.817  17.310  27.653  0.2445 -0.1002  0.0531
35612W        W78665   6.243  30.931   7.012  0.1272 -0.2789 -0.3263
35613W        W78666   7.717  11.031   5.908  0.0067 -0.0741 -0.0382
35614W        W78667   9.348  23.974  22.256 -0.1589 -0.2153  0.0609
35615W        W78668  11.924  21.712  15.473  0.3255 -0.0250  0.1151
35616W        W78669  31.847   2.887   2.748 -0.0548 -0.2004  0.0551
35617W        W78670  17.633  30.348  22.057 -0.1892  0.1483  0.3493
35618W        W78671   6.131  21.421  17.603 -0.1897 -0.2449  0.1803
35619W        W78672  15.609  31.786  10.104 -0.1462 -0.1678  0.0256
35620W        W78673   7.883  33.909   9.104 -0.1123 -0.0387  0.0777
35621W        W78674  24.013   7.050  20.471  0.0053  0.0106 -0.3325
35622W        W78675   5.156   3.693   4.088  0.1373  0.2321 -0.0089
35623W        W78676  21.876   5.779  15.754 -0.0893  0.0999  0.0159
35624W        W78677  32.901   1.574   0.130  0.2864  0.0027 -0.2238
35625W        W78678   6.687  22.299   9.160 -0.2614  0.1543  0.2848
35626W        W78679  26.240  29.740  19.333  0.1076 -0.2493  0.1660
35627W        W78680   2.524  14.464   9.187 -0.0752  0.3167 -0.0701
35628W        W78681  25.861  10.715   3.667 -0.0898  0.0035  0.0161
35629W        W78682   3.268   8.519  28.216  0.0196 -0.3519 -0.3450
35630W        W78683  14.309  28.490  16.493 -0.0810 -0.0675 -0.1232
35631W        W78684  33.119  19.549  25.990  0.0700  0.1535  0.1600
35632W        W78685  23.622   1.023  26.411 -0.0271  0.0960 -0.3289
35633W        W78686   6.450   2.742  23.495 -0.2239 -0.1126 -0.4138
35634W        W78687  18.598   6.360   4.368  0.2835  0.1387 -0.1552
35635W        W78688  17.163   1.435  19.323 -0.2646 -0.0220 -0.1395
35636W        W78689  14.307   7.507  10.292  0.2774  0.3233 -0.1207
35637W        W78690  13.939  29.501  23.345  0.2801 -0.1849  0.0936
35638W        W78691  16.988  33.942   7.099 -0.2849  0.1856 -0.1491
35639W        W78692  30.793   8.881  18.021 -0.1176 -0.0564 -0.1281
35640W        W78693  17.227  27.721  24.600 -0.1573 -0.3490 -0.0744
35641W        W78694   6.032   8.004  17.871 -0.0674 -0.0149 -0.3206
35642W        W78695  30.171  32.628   2.965 -0.0037  0.0553 -0.0735
35643W        W78696  14.381  34.687  25.126 -0.0933 -0.1955  0.1248
35644W        W78697  23.401  34.624   0.539  0.2430  0.0157  0.0607
35645W        W78698  12.422  27.277   1.918 -0.0648  0.1279 -0.1670
35646W        W78699   2.704  30.879  28.857  0.2147  0.0385 -0.0700
35647W        W78700  25.446  31.969  24.309  0.2206  0.1890 -0.0434
35648W        W78701   0.562  20.072   4.757  0.1168 -0.0608 -0.2833
35649W        W78702   3.907   3.281  22.045 -0.1255  0.0162  0.0599
35650W        W78703  13.834  25.971  28.619  0.1650 -0.0095  0.0108
35651W        W78704   1.582  17.390  17.011 -0.0555  0.2091  0.0156
35652W        W78705  23.803  10.673  21.870 -0.0533  0.1123 -0.0659
35653W        W78706  11.652   2.857  20.521 -0.0641  0.1009 -0.3451
35654W        W78707  27.108  23.099  16.456  0.1412  0.1677 -0.1779
35655W        W78708  15.574  22.878  26.269 -0.0025  0.0006 -0.1528
35656W        W78709   3.007   3.410   0.390  0.1297  0.2007  0.0635
35657W        W78710  20.537   2.771   3.272 -0.1301  0.1922  0.1305
35658W        W78711  31.075   0.673  26.057  0.0823  0.1095  0.0530
35659W        W78712  16.598  29.378   8.428  0.0060  0.3040  0.3034
35660W        W78713   1.315  29.860  18.193  0.1482  0.2431 -0.3621
35661W        W78714   1.986   4.280  26.579  0.1389 -0.0491 -0.0500
35662W        W78715   2.673  30.260  24.130 -0.1924  0.1248 -0.0979
35663W        W78716  21.136   9.682   8.817  0.2567 -0.3158 -0.2929
35664W        W78717   6.266  17.831   5.445  0.3872 -0.0458 -0.2890
35665W        W78718  18.269  31.215   9.197  0.1278  0.1997  0.4520
35666W        W78719   1.835  30.895  16.615  0.0875 -0.2786 -0.0877
35667W        W78720  27.135   7.645  17.663  0.0063 -0.0558  0.2620
35668W        W78721  28.703  32.303  26.751  0.1852  0.2490  0.1028
35669W        W78722  26.932   7.890  25.765  0.2486  0.3235 -0.2049
35670W        W78723  27.314  32.965   8.894 -0.0296 -0.0176 -0.0581
35671W        W78724   2.415  25.858   3.121 -0.0157 -0.1912 -0.1658
35672W        W78725  23.161  29.308   1.886 -0.1861 -0.1966  0.2228
35673W        W78726  32.796  30.922  27.795 -0.3591  0.1330 -0.1529
35674W        W78727  16.014  30.341  25.665  0.0668  0.1693 -0.0558
35675W        W78728   0.914  33.270   3.705 -0.3242 -0.0674 -0.0331
35676W        W78729  34.263   3.608  22.693  0.0968  0.0287 -0.0985
35677W        W78730  14.162   0.284  16.528 -0.0151 -0.3613  0.0119
35678W        W78731  33.052   5.887  18.016 -0.0084 -0.3461  0.0322
35679W        W78732   3.191  28.336  24.548 -0.1177 -0.3055  0.2484
35680W        W78733   8.134  33.611  14.906 -0.2752  0.1564 -0.1752
35681W        W78734   7.272  28.166  18.463 -0.2927  0.2006 -0.0141
35682W        W78735  21.015  25.678   4.856  0.2036 -0.1383 -0.1235
35683W        W78736   0.525  16.815  18.972  0.0628 -0.1039 -0.1002
35684W        W78737  14.662  25.327  25.554 -0.3525 -0.0281 -0.0750
35685W        W78738  10.093   9.479  23.119 -0.1565 -0.1016  0.0200
35686W        W78739  31.181  11.989  18.438  0.0816  0.0348  0.1504
35687W        W78740   7.970  28.445   6.789 -0.0072 -0.2811  0.1891
35688W        W78741  30.706  24.909  26.342  0.2026 -0.0876  0.0769
35689W        W78742  21.605   6.068   5.179  0.2533 -0.0668 -0.2774
35690W        W78743  12.342   4.202   6.427 -0.0376  0.1896  0.1616
35691W        W78744  13.297   3.368   0.883 -0.0822 -0.0018  0.1337
35692W        W78745  16.576  21.872  13.867 -0.3414 -0.0675 -0.0431
35693W        W78746  30.524  33.986  25.115  0.3388 -0.0790 -0.3472
35694W        W78747  19.240  13.380   2.865  0.2307 -0.4255 -0.2472
35695W        W78748  21.440   1.651  23.955  0.0597  0.1824  0.0739
35696W        W78749  32.389   5.101  29.192 -0.1482  0.2118 -0.0941
35697W        W78750   0.666  18.635   3.791  0.3483 -0.1201 -0.0719
35698W        W78751  10.244   4.533  23.869  0.3473  0.0148  0.1391
35699W        W78752   9.877   9.856  23.568  0.1845  0.1768 -0.1338
35700W        W78753  14.203   3.219   1.966  0.1824 -0.1079 -0.1600
35701W        W78754   4.272  31.546  14.958 -0.1483  0.0177 -0.2084
35702W        W78755  12.430  26.137  19.207  0.2462 -0.1220 -0.2440
35703W        W78756  10.394   6.718   0.650  0.2636 -0.1220  0.1451
35704W        W78757   3.225   8.645   7.415 -0.2175  0.1062  0.0070
35705W        W78758   3.944   2.077   4.845  0.0613 -0.1459  0.3360
35706W        W78759   9.539  29.533  22.084 -0.2029  0.2921 -0.1106
35707W        W78760  34.633  10.269   7.643  0.1828  0.3543  0.0078
35708W        W78761   1.141  19.304   0.817  0.1068 -0.0897 -0.1520
35709W        W78762   8.001  27.767   2.587 -0.1075 -0.1116 -0.0843
35710W        W78763   8.838  16.311  26.072  0.0650  0.0571  0.3387
35711W        W78764  24.752  34.660  20.871  0.1149 -0.2218 -0.0399
35712W        W78765  27.912   5.496   2.529 -0.1233  0.1189  0.0281
35713W        W78766  21.338  30.533   7.448 -0.0228 -0.2478 -0.2023
35714W        W78767  29.336  22.036  27.133 -0.0846 -0.0610  0.1515
35715W        W78768  20.384   9.273  22.620  0.2625 -0.3343  0.1293
35716W        W78769  25.372  28.784   1.154  0.0867 -0.0982  0.0708
35717W        W78770  25.577  25.866  20.751 -0.1862 -0.1863 -0.1847
35718W        W78771  21.473   0.989  19.424  0.1692  0.0921 -0.0001
35719W        W78772   2.034  25.533  17.237  0.0806  0.1598  0.0698
35720W        W78773   2.779   8.923  27.134  0.3543 -0.0561  0.1820
35721W        W78774  24.558   1.337   1.015 -0.1108  0.2285 -0.0326
35722W        W78775  17.521  26.128  14.196 -0.2846  0.0724  0.2191
35723W        W78776  21.033   0.644  23.226 -0.1772  0.2760  0.0711
35724W        W78777  32.064  31.040   9.520  0.4198 -0.0486 -0.1611
35725W        W78778  14.114   7.029  17.757  0.0542 -0.2163 -0.0166
35726W        W78779   1.736  15.046  24.466  0.2673  0.1785  0.1865
35727W        W78780   9.588  29.966  26.537 -0.2025  0.1663  0.2444
35728W        W78781  17.926  33.724  27.037 -0.0716 -0.0015 -0.2615
35729W        W78782  19.411  23.266   3.879 -0.1521  0.3636 -0.2587
35730W        W78783   9.648  33.348  25.414  0.2071 -0.3465 -0.2525
35731W        W78784  27.524  10.873   9.614 -0.1286  0.0826 -0.0489
35732W        W78785  23.131  25.660  25.994  0.3057 -0.4422 -0.1688
35733W        W78786  30.589   2.820  23.689 -0.1712 -0.0468  0.1238
35734W        W78787   3.276  26.292   8.412  0.4758 -0.0101  0.1665
35735W        W78788  34.678  11.255  27.835  0.3748  0.2332  0.0722
35736W        W78789   8.001  22.906   6.635  0.1021  0.1531 -0.0447
35737W        W78790  24.975  31.664   5.490  0.3240 -0.0032 -0.0725
35738W        W78791  10.478  26.830  23.198 -0.0963 -0.0540 -0.0126
35739W        W78792  21.773  24.042  22.187 -0.0769  0.1661 -0.0980
35740W        W78793   8.350  25.279  20.078 -0.1676  0.0462  0.0512
35741W        W78794   3.263  17.670  24.669  0.2717 -0.1713  0.0358
35742W        W78795  33.391   6.680  16.004 -0.2007 -0.0637 -0.0028
35743W        W78796   4.306  16.889  19.171  0.0674  0.2167 -0.1974
35744W        W78797   1.119  27.725  14.102 -0.0138 -0.1928 -0.3755
35745W        W78798  33.812  31.729  27.271  0.0189 -0.1009 -0.0597
35746W        W78799   4.068  32.091  21.041  0.1628  0.1227 -0.1559
35747W        W78800  27.051   6.018  16.175 -0.1907 -0.0320  0.0796
35748W        W78801   2.754   8.216  20.697 -0.1337  0.1976 -0.0758
35749W        W78802  18.860   0.095  24.157  0.0561  0.0064 -0.0143
35750W        W78803   0.219  28.663   8.020 -0.1641  0.1828  0.5970
35751W        W78804  21.996   2.879  21.909  0.0130 -0.1969  0.1324
35752W        W78805  14.540   3.821   4.608  0.2576  0.1543 -0.1437
35753W        W78806  20.745  26.408  17.656  0.0045 -0.1126  0.0452
35754W        W78807   4.255  16.650  27.543  0.0463  0.1225 -0.0266
35755W        W78808  13.040  32.132  16.879  0.0134  0.2990 -0.0217
35756W        W78809  15.171  28.803   8.101  0.0067 -0.0877  0.0623
35757W        W78810   2.499  15.787  22.540 -0.0208  0.0995  0.4009
35758W        W78811  30.776  10.768  17.084 -0.0111 -0.1048  0.0721
35759W        W78812  20.573   9.714  23.899 -0.0614 -0.0570 -0.1644
35760W        W78813  27.655  25.219  23.179  0.0636  0.2168  0.2461
35761W        W78814  28.489  33.336  22.496  0.1538 -0.2872 -0.0017
35762W        W78815   6.256   2.322   0.644 -0.2682  0.0708 -0.1788
35763W        W78816  12.792  25.892   0.017 -0.1768  0.0969 -0.0276
35764W        W78817  20.647  17.395   7.267  0.1854 -0.0496  0.0180
35765W        W78818  25.274  29.995   4.040 -0.3482  0.2425 -0.2838
35766W        W78819  20.113   0.728   8.108  0.2585  0.2919 -0.1398
35767W        W78820  29.858   0.661  16.753  0.0818  0.0211  0.3197
35768W        W78821  22.250  27.820   0.082 -0.2836  0.1213  0.0115
35769W        W78822  26.323  17.768  19.719  0.2192  0.0067  0.3113
35770W        W78823   2.935  26.921  28.357 -0.0115  0.1150 -0.0958
35771W        W78824  24.637  25.163   7.822  0.3440  0.0340 -0.1140
35772W        W78825  12.391  29.947  19.169 -0.1213 -0.2566  0.0184
35773W        W78826  12.757   5.589  22.217 -0.0007 -0.3161 -0.0410
35774W        W78827   6.120  25.574   7.068 -0.0862 -0.2087  0.3912
35775W        W78828  11.052  29.083  23.672  0.0644  0.1002 -0.0262
35776W        W78829  15.198   6.038   2.365 -0.0299 -0.0082  0.1086
35777W        W78830   4.270  30.403   8.166  0.0586  0.0763 -0.0429
35778W        W78831  13.956   6.445   8.335  0.0179 -0.3263  0.1054
35779W        W78832   2.893  16.089  20.799 -0.1303 -0.2248 -0.0408
35780W        W78833  13.462  12.161  28.890 -0.0918 -0.2502 -0.1387
35781W        W78834   9.573  19.851   2.944  0.2371 -0.0601 -0.1173
35782W        W78835  25.766  25.699   3.518 -0.2623  0.0424 -0.1905
35783W        W78836  27.418  33.614  28.331  0.1410  0.0147 -0.0511
35784W        W78837   6.738  11.513  27.254  0.0264 -0.0284  0.1722
35785W        W78838  22.306   8.136  18.694 -0.2713  0.1843  0.1368
35786W        W78839  31.554  19.686  19.972 -0.0292 -0.3618 -0.0327
35787W        W78840   6.409  21.596  15.015 -0.2498  0.1187  0.0786
35788W        W78841   6.325  11.538  15.716  0.0238 -0.0644 -0.0592
35789W        W78842  21.500  30.024  19.730 -0.0153 -0.2219  0.1031
35790W        W78843   9.635   7.511  27.981  0.0999 -0.0500 -0.1042
35791W        W78844  15.844   3.517  15.709 -0.1829  0.2632 -0.1257
35792W        W78845  17.076   5.680  20.518 -0.1546 -0.0891  0.1191
35793W        W78846   7.067   9.943  15.771  0.0162  0.1457  0.4616
35794W        W78847  12.854   9.974  17.846 -0.2403  0.2036  0.0494
35795W        W78848   1.046   8.678  24.923 -0.1386 -0.1000  0.0924
35796W        W78849  15.679  33.807  17.600  0.1989  0.1348  0.4380
35797W        W78850  13.946  28.372  18.165  0.4007 -0.0197 -0.1665
35798W        W78851  16.826  33.091  18.072 -0.1570  0.0983 -0.0718
35799W        W78852  14.803  29.016  13.752  0.2052  0.0499  0.2371
35800W        W78853  23.503   1.903   4.313 -0.3276 -0.1368  0.3305
35801W        W78854   5.486  15.987  18.651  0.0176  0.1370  0.0054
35802W        W78855  21.201   8.946  26.211 -0.0852 -0.2656 -0.0244
35803W        W78856  11.550   6.777  15.914 -0.3530 -0.1928 -0.1182
35804W        W78857  21.972  23.187  28.548  0.0054  0.2390 -0.0058
35805W        W78858  32.085  27.782  17.720 -0.0335 -0.0822 -0.0870
35806W        W78859   5.894  29.416  26.821  0.1969  0.0214  0.0676
35807W        W78860  20.025  33.719  22.327 -0.0415  0.2293  0.0319
35808W        W78861  31.517  28.852  19.512 -0.1170  0.0338  0.1653
35809W        W78862   7.099   1.409  28.247  0.2117  0.0812 -0.0800
35810W        W78863   6.165   9.701  26.595  0.4528 -0.0206  0.1028
35811W        W78864  10.881   6.929  19.277 -0.4064 -0.1051  0.0165
35812W        W78865  22.029  21.458  15.421  0.4019  0.1595 -0.0852
35813W        W78866   3.301  14.420  26.541 -0.0782  0.0111 -0.1803
35814W        W78867   9.707  32.290  15.599  0.0677 -0.1466  0.0806
35815W        W78868  10.685  22.510  24.203  0.0615 -0.1636 -0.2430
35816W        W78869  16.804   4.973   8.095 -0.2109 -0.0274  0.1666
35817W        W78870  11.129  11.752  26.167  0.2184  0.4365  0.1779
35818W        W78871  32.794  29.138  21.088  0.4751 -0.4916  0.2673
35819W        W78872   6.343  31.579  19.661 -0.1702  0.1531  0.3102
35820W        W78873  19.576  32.593  16.517  0.1296  0.1040 -0.2395
35821W        W78874  34.101  24.048  18.240 -0.1645 -0.0995 -0.1272
35822W        W78875   5.613   6.804  17.290 -0.4721  0.0269 -0.1336
35823W        W78876   2.777   6.031   0.126 -0.3897 -0.3664  0.2309
35824W        W78877  30.395   4.326  15.266 -0.2660  0.1017 -0.1831
35825W        W78878   9.844  34.273  22.527  0.0350  0.0636  0.0511
35826W        W78879   8.499   1.644   0.102 -0.1749  0.0451  0.1839
35827W        W78880   3.624  33.214  14.660  0.2788  0.0868 -0.1045
35828W        W78881  16.414  13.170  23.923  0.0218 -0.1665 -0.0643
35829W        W78882  14.367   2.789  15.738 -0.0427  0.2005 -0.1226
35830W        W78883   5.190   4.088   7.094  0.0878  0.3422 -0.0644
35831W        W78884  16.557   8.281  22.318  0.5451  0.1311 -0.0430
35832W        W78885  17.613   2.033  23.652  0.0151 -0.4366 -0.2676
35833W        W78886  15.216   0.988  15.833 -0.0515 -0.0976  0.1905
35834W        W78887  10.071  21.054  15.207 -0.0938  0.0447  0.2592
35835W        W78888   6.379  29.631  15.578 -0.1917 -0.0580 -0.0170
35836W        W78889  25.841   0.891  19.404 -0.0549 -0.1443 -0.2676
35837W        W78890   2.243  34.102  20.693  0.0569 -0.0157  0.1826
35838W        W78891   3.597  30.433   2.297 -0.1809 -0.2729 -0.4367
35839W        W78892   5.816  26.301  26.475  0.2339 -0.0541 -0.0174
35840W        W78893  23.058   6.800  15.599  0.1524  0.1485 -0.0734
35841W        W78894  26.228  28.362  16.077 -0.0380  0.1158 -0.1556
35842W        W78895  10.004  17.404  20.261  0.0609  0.0718  0.0358
35843W        W78896  11.128   0.230  22.665  0.2376 -0.3147 -0.0798
35844W        W78897  16.665  21.217  22.700 -0.3167 -0.1149  0.2312
35845W        W78898  10.151  34.387  15.934 -0.2034 -0.2733 -0.0869
35846W        W78899  18.917  34.239  21.491 -0.1674 -0.0469  0.1731
35847W        W78900   7.085   1.928  26.800  0.4801  0.0654  0.2403
35848W        W78901  15.912  27.683   0.794  0.0925  0.2914  0.2541
35849W        W78902  34.361   1.845  14.319  0.2795  0.0955  0.0153
35850W        W78903  19.753  20.733  23.959 -0.1029  0.2761  0.1779
35851W        W78904  19.422  26.326  18.087 -0.1482  0.1523 -0.1639
35852W        W78905  14.895   8.562  18.702  0.1316 -0.2610  0.2588
35853W        W78906  16.835   5.121  24.588  0.1567 -0.1344 -0.0889
35854W        W78907  18.886   5.921  24.270 -0.1041 -0.2572 -0.0881
35855W        W78908  13.208  17.384  24.691 -0.2590 -0.1463 -0.3210
35856W        W78909  30.127   8.310  18.667 -0.0476  0.2242  0.0163
35857W        W78910   8.187  12.470  16.082 -0.1682  0.2140 -0.0022
35858W        W78911  15.338  27.344   2.698 -0.0477 -0.0534 -0.2450
35859W        W78912  10.927  17.141  24.082 -0.4050 -0.1915 -0.5012
35860W        W78913   2.823   2.758  19.918  0.2997  0.1726  0.3283
35861W        W78914   2.160   2.099  27.767 -0.0706  0.0166 -0.1827
35862W        W78915  16.780   0.738  17.976  0.1472  0.2806  0.1872
35863W        W78916  18.501  33.563  28.023 -0.2000  0.0193  0.0446
35864W        W78917  10.121   7.323  16.862  0.1409 -0.0345 -0.2143
35865W        W78918   8.883   2.325  18.727 -0.2312 -0.0154  0.1460
35866W        W78919   3.023  33.139  20.521 -0.0666  0.0302  0.1583
35867W        W78920  13.565  32.155  22.594 -0.0179  0.1028  0.0575
35868W        W78921  21.676   1.356  16.957 -0.0625  0.0262  0.3137
35869W        W78922   2.179  25.028  15.182 -0.1009  0.0526  0.1185
35870W        W78923  34.118  17.203  15.981  0.1975 -0.3840 -0.1749
35871W        W78924   1.127  29.796  22.012 -0.2029 -0.1128  0.2609
35872W        W78925  12.835  23.303   5.230 -0.1956 -0.3502  0.1155
35873W        W78926   4.955  13.812  17.578  0.1880 -0.0117  0.4598
35874W        W78927   7.443   8.402  21.008  0.0184 -0.2066 -0.1768
35875W        W78928   4.888  32.098  13.876 -0.0540  0.2449  0.3529
35876W        W78929  11.033  13.904  19.756 -0.2743  0.1719 -0.2335
35877W        W78930  10.157  24.241  21.193  0.2044  0.2328 -0.2079
35878W        W78931   5.049  30.229  20.113 -0.2367 -0.1312  0.1114
35879W        W78932   3.438  31.429  16.731 -0.3563 -0.0289 -0.0301
35880W        W78933  15.143  25.106  23.337 -0.2313  0.2640  0.1271
35881W        W78934  10.159   8.429  21.383 -0.0975  0.1369 -0.1887
35882W        W78935  14.802   4.047   1.586 -0.0434 -0.0815 -0.0849
35883W        W78936   6.348   7.221  27.912  0.2636  0.3012 -0.0077
35884W        W78937  34.469  29.009  14.714 -0.0137 -0.0322  0.0278
35885W        W78938   2.722   5.631  17.220  0.0441 -0.1358 -0.0882
35886W        W78939   1.512   8.086  18.897 -0.0105 -0.1353  0.0140
35887W        W78940  10.383  11.958  25.391 -0.1820 -0.2394 -0.2666
35888W        W78941   6.240  30.046  21.406  0.2350 -0.1507  0.0545
35889W        W78942  18.536  32.617  14.963  0.2555 -0.0634  0.1228
35890W        W78943  10.299  33.967  28.184  0.1733  0.0863  0.1662
35891W        W78944  16.283  22.495  23.322 -0.1224  0.0742  0.0168
35892W        W78945  24.554  11.461  17.274  0.0529 -0.3258 -0.3119
35893W        W78946   6.917  24.946  16.411  0.0533 -0.0456 -0.0240
35894W        W78947   6.445  10.681  15.749 -0.0621  0.2730  0.2242
35895W        W78948  15.415  29.123  14.519  0.0518  0.0423 -0.1688
35896W        W78949  30.208   2.806  23.352  0.2917  0.2059  0.1039
35897W        W78950  24.642  14.168  20.357  0.0915 -0.1826 -0.0967
35898W        W78951  32.143  10.391   3.306 -0.1713  0.0655 -0.1212
35899W        W78952  33.683  33.605  28.977  0.4865  0.1775 -0.2186
35900W        W78953   5.194  32.102  21.607 -0.1766 -0.1463 -0.0715
35901W        W78954  22.278  24.259  27.753  0.0043 -0.2609 -0.0285
35902W        W78955   6.414  32.545  18.213  0.3385  0.1505 -0.0998
35903W        W78956  15.952  23.958  28.158  0.1698  0.0312 -0.1811
35904W        W78957  12.917  25.362  24.310 -0.2937  0.2221  0.1260
35905W        W78958  14.651  28.866  15.732 -0.0523 -0.2663  0.1123
35906W        W78959   3.761  20.562  23.319  0.1497 -0.1404 -0.0953
35907W        W78960  33.822  30.831  23.271  0.0992 -0.0815 -0.0090
35908W        W78961  16.314   8.079  22.772 -0.1371  0.2727  0.4041
35909W        W78962   3.232  10.175  27.686  0.0040  0.3016 -0.2330
35910W        W78963  27.711   7.420   1.135  0.2171  0.0743  0.1622
35911W        W78964  17.836  33.517  23.995  0.2370 -0.0081  0.0049
35912W        W78965  30.166   2.167  20.506  0.3897 -0.0429  0.1221
35913W        W78966  33.846  31.811  24.427  0.0179 -0.0700 -0.0373
35914W        W78967   3.489  33.184  21.418  0.0018  0.2429  0.0936
35915W        W78968  15.232  34.616  23.774 -0.0881 -0.1599 -0.2887
35916W        W78969   7.732   9.030  14.843  0.1246 -0.0077  0.3157
35917W        W78970   6.192   1.370  16.827 -0.1410 -0.0273  0.1545
35918W        W78971  22.652  24.875  19.744 -0.0462 -0.0913 -0.5281
35919W        W78972   5.391  22.517  18.031  0.1903 -0.0468  0.0415
35920W        W78973   7.765  33.167  21.068 -0.2379 -0.1359  0.1991
35921W        W78974  13.625  25.977   4.095  0.2942  0.0416  0.0656
35922W        W78975  16.376   1.000  18.806  0.0360 -0.1870 -0.1011
35923W        W78976  11.584   5.995  17.929  0.0903  0.0154  0.0137
35924W        W78977   7.478   0.030   2.839 -0.0127 -0.2486  0.1217
35925W        W78978   5.640  29.448   4.296 -0.0416  0.1166 -0.0025
35926W        W78979  12.302  26.007  23.273  0.2349  0.1557  0.0675
35927W        W78980  14.566  13.119  21.072 -0.0700  0.2179  0.0635
35928W        W78981  12.708  29.840  16.155 -0.0642  0.0330 -0.1699
35929W        W78982  30.081  19.360  18.286  0.0315 -0.2748  0.0035
35930W        W78983  10.861  15.368   8.995  0.2530  0.1108 -0.1293
35931W        W78984  10.499  31.116  15.648  0.4672 -0.0769  0.1817
35932W        W78985  12.350   0.523  21.822 -0.0652 -0.0696 -0.2245
35933W        W78986  18.887   5.894   1.174  0.0919 -0.0884  0.0675
35934W        W78987   1.712   0.251  19.618  0.1516 -0.0221 -0.0101
35935W        W78988   0.392  27.811  17.595 -0.0092 -0.0741  0.1506
35936W        W78989  15.749   1.567  27.841 -0.0142  0.1482  0.0478
35937W        W78990  33.459   4.874  18.276  0.1761  0.0664  0.1353
35938W        W78991   0.458  12.499  16.908 -0.1279 -0.0068 -0.0836
35939W        W78992   0.542  20.676  19.659 -0.0615 -0.4594 -0.1654
35940W        W78993  23.787   0.513  27.971 -0.0517  0.0535  0.1921
35941W        W78994  11.734  11.297  19.367  0.0725 -0.2247  0.1422
35942W        W78995  12.751  31.767  24.653  0.0842 -0.0049 -0.2988
35943W        W78996  11.038   7.520  29.020 -0.2534 -0.0210 -0.0973
35944W        W78997  15.396  27.228  24.517 -0.2929 -0.1715  0.2204
35945W        W78998   5.581   7.919   0.458  0.1264 -0.1280  0.2897
35946W        W78999  20.350  18.820  16.480  0.0601 -0.0613  0.0310
35947W        W79000  13.611  22.576  19.999  0.0018 -0.2930 -0.0416
35948W        W79001  33.082  31.483   0.152 -0.1537 -0.3209 -0.2157
35949W        W79002  19.218   5.805   1.552  0.1491  0.1981 -0.1459
35950W        W79003  23.024  30.051  17.068 -0.1654  0.0258 -0.2595
35951W        W79004  30.914  14.259  19.184  0.0724  0.0778  0.0072
35952W        W79005  13.647  13.542  17.940  0.1039  0.0185 -0.1598
35953W        W79006  32.387   4.786  13.755 -0.0520 -0.0474 -0.2965
35954W        W79007  12.209  22.279  16.719  0.2017 -0.1447 -0.0361
35955W        W79008  33.707   7.892  19.142  0.1459 -0.2268  0.1087
35956W        W79009  20.583   7.831  21.775  0.4031 -0.3159  0.0405
35957W        W79010  33.971  13.485  22.644  0.0003  0.2841  0.0255
35958W        W79011  12.472  31.164  15.600  0.1470 -0.0794 -0.3068
35959W        W79012  10.219  28.776  18.262 -0.4636  0.0014 -0.0626
35960W        W79013  14.907  25.605   1.533 -0.0249 -0.0161 -0.0280
35961W        W79014  20.530   1.240  17.892  0.0847  0.0377 -0.0811
35962W        W79015  20.864  25.955   1.693  0.5506  0.0972  0.2797
35963W        W79016  25.562   7.509  20.860 -0.3370 -0.2108  0.4317
35964W        W79017  30.840  29.826   0.115  0.4511 -0.1132 -0.0868
35965W        W79018   6.884  25.797  20.300  0.1184  0.1787  0.2610
35966W        W79019  16.069   2.102  24.146 -0.0204  0.0360  0.2184
35967W        W79020  16.710  31.548   6.782  0.1272  0.2045 -0.1204
35968W        W79021  16.355   3.975  19.991 -0.1496  0.4573 -0.1881
35969W        W79022   2.366  18.932  28.271  0.0151 -0.0484 -0.0649
35970W        W79023   7.614  17.465  26.237  0.0308 -0.4910  0.3962
35971W        W79024   0.320  25.233  25.163 -0.0518 -0.3508  0.1805
35972W        W79025   1.253   0.499  13.154 -0.1243 -0.0823 -0.0427
35973W        W79026  34.082   1.373  18.041 -0.2401 -0.0956  0.0145
35974W        W79027  18.672   5.255  23.217  0.1043 -0.0393  0.0426
35975W        W79028   2.355  31.423  25.055  0.1660 -0.1657 -0.0286
35976W        W79029   2.782  34.673   0.620  0.0774 -0.1064  0.1026
35977W        W79030   5.456  33.361  27.481 -0.1106 -0.0862  0.1503
35978W        W79031  15.890   2.173  14.751  0.2689  0.1197 -0.0792
35979W        W79032  34.678  34.198  17.046  0.1939 -0.0740  0.2074
35980W        W79033   5.139  27.051  21.360  0.1345 -0.1087  0.1644
35981W        W79034  18.685  32.683  22.138 -0.0934 -0.2081  0.1778
35982W        W79035  31.640  17.150  23.683  0.0680 -0.3259  0.0488
35983W        W79036  27.233   8.613  16.668  0.4165 -0.3007 -0.4219
35984W        W79037   1.338  30.819  25.371 -0.1451  0.2142 -0.1071
35985W        W79038   8.837   4.757  26.938 -0.1095 -0.2159  0.1981
35986W        W79039  12.731  10.102  28.095  0.2640  0.0324 -0.0956
35987W        W79040   0.707   7.656  25.828  0.0810 -0.6482 -0.3038
35988W        W79041  29.342  16.287  23.575  0.2830 -0.0469  0.1470
35989W        W79042  11.976   5.131  21.708  0.1022 -0.0471  0.0400
35990W        W79043   7.791   5.927  21.571  0.2954 -0.0993 -0.0028
35991W        W79044  12.231   6.388  16.484 -0.1084 -0.0701 -0.0005
35992W        W79045  17.917  32.761  21.538 -0.4767  0.1791 -0.1551
35993W        W79046  14.865  31.610  26.429  0.1387 -0.2421 -0.0580
35994W        W79047  14.975   9.084  17.381 -0.1556 -0.1742 -0.0821
35995W        W79048   9.676   3.264  14.955  0.0594 -0.1355  0.1013
35996W        W79049  21.085  34.013  15.585  0.2122 -0.0039 -0.0427
35997W        W79050   3.660   5.223  16.418  0.0308 -0.0620 -0.2049
35998W        W79051  33.201  13.967  26.978  0.0492  0.0314  0.1286
35999W        W79052   2.826  20.609  21.672 -0.3201 -0.1469 -0.0458
36000W        W79053   3.863   5.439  29.183 -0.0345  0.1471 -0.3285
36001W        W79054   9.868  18.587  28.175 -0.0076 -0.1801  0.0089
36002W        W79055   1.462   3.472   6.419  0.2588 -0.0846 -0.0753
36003W        W79056  11.163  32.386  14.483  0.2307  0.0489 -0.3634
36004W        W79057   5.124  30.163  16.136  0.0594  0.1290 -0.1302
36005W        W79058  21.733   8.993   8.187 -0.2510 -0.1120  0.0786
36006W        W79059   2.890   2.980  23.099 -0.3617 -0.1195 -0.2542
36007W        W79060  29.342  29.288  19.218  0.0612  0.1379  0.0513
36008W        W79061   9.445  31.084  15.074  0.0172  0.2985  0.0295
36009W        W79062  32.699   0.366  25.712  0.0879  0.0266 -0.0636
36010W        W79063  14.901   0.549  25.445 -0.0318  0.0739  0.1695
36011W        W79064  10.864  23.245  27.859 -0.3021 -0.0689  0.0321
36012W        W79065  17.125  30.030  26.529  0.1703  0.0359 -0.0308
36013W        W79066  16.101  27.467  25.546  0.0367  0.1373  0.2147
36014W        W79067  21.441   4.673  18.093 -0.2997 -0.0328  0.0738
36015W        W79068  27.602   3.416  15.209  0.2480 -0.3033  0.2300
36016W        W79069  28.260   4.471  21.536  0.1206 -0.0118  0.0640
36017W        W79070  10.617  27.600  14.816  0.3939 -0.1531  0.0170
36018W        W79071   7.068  30.091  23.047  0.1915 -0.2080 -0.1159
36019W        W79072   9.737  32.800  20.201 -0.1957  0.3047  0.0954
36020W        W79073  12.831   1.469  15.731  0.1104  0.0755 -0.2320
36021W        W79074   7.070   4.972  14.841  0.0036  0.0871  0.0791
36022W        W79075  21.208  10.364  25.484  0.2521 -0.0414 -0.2224
36023W        W79076   0.126   0.239  25.270 -0.1127  0.1975 -0.0465
36024W        W79077  15.923  34.673  14.068  0.0002  0.1404  0.1054
36025W        W79078  19.577  26.651  22.983 -0.0870  0.2946  0.0419
36026W        W79079  20.399   7.966  17.922  0.1986  0.1445  0.2187
36027W        W79080   2.193  30.998  17.135  0.2633 -0.1990  0.0570
36028W        W79081  11.352   9.345  25.465  0.0193 -0.0202 -0.0040
36029W        W79082  11.779  27.589  13.787 -0.3123  0.0535 -0.0046
36030W        W79083  30.718   0.660  17.665 -0.0664 -0.1314 -0.1335
36031W        W79084   1.804  14.319  25.432 -0.0130  0.1345  0.2866
36032W        W79085  19.605  30.877  17.655 -0.1449  0.2171  0.2144
36033W        W79086   9.805   6.288  21.177 -0.0440  0.0791 -0.3491
36034W        W79087  17.341  24.412  25.356 -0.0501  0.0590 -0.0705
36035W        W79088  17.084  31.795  22.994 -0.1235  0.1935  0.3026
36036W        W79089  11.131  29.828  23.507 -0.0458  0.2827 -0.2833
36037W        W79090   7.359  10.578  28.201  0.0435 -0.0272  0.0236
36038W        W79091  23.232   1.843  19.781  0.2674 -0.1392 -0.0753
36039W        W79092  14.940  32.621  23.421  0.4569  0.4389  0.0985
36040W        W79093  19.866  23.658  14.480 -0.4955  0.3154 -0.1847
36041W        W79094  15.210  29.708  19.468  0.1551  0.1879 -0.0097
36042W        W79095  15.175  25.433  18.886 -0.0719  0.0636 -0.0143
36043W        W79096  31.785  18.227  17.901 -0.0087 -0.0658 -0.0400
36044W        W79097   8.236  29.430  14.851 -0.1641 -0.0056 -0.2447
36045W        W79098  22.263   0.414  16.824  0.0706 -0.2310  0.1932
36046W        W79099  25.569  32.555  25.314  0.0437 -0.1562 -0.0645
36047W        W79100  20.427  29.077  24.779 -0.2428 -0.1281 -0.0010
36048W        W79101   3.625  31.520   6.951  0.1704  0.3584  0.2822
36049W        W79102   4.698  32.056  20.884 -0.2395 -0.1589  0.0292
36050W        W79103  14.139  24.708  21.982  0.0720  0.0453  0.0627
36051W        W79104   9.828   3.923  16.789 -0.4507 -0.0183 -0.2314
36052W        W79105  20.534  30.290  21.499  0.0517 -0.0938  0.1510
36053W        W79106   5.925  31.711  17.217 -0.1679 -0.0751  0.1509
36054W        W79107   5.933   8.792  20.747 -0.1669 -0.0875  0.0074
36055W        W79108  16.710   4.635   2.079  0.0168 -0.0242  0.1771
36056W        W79109  10.377  16.043  20.189  0.0348 -0.1106  0.1901
36057W        W79110   6.485  26.749  17.890  0.0283 -0.2915  0.4232
36058W        W79111  29.795  15.104  21.116  0.3623  0.0749 -0.2521
36059W        W79112  14.739  33.865  25.293 -0.0750  0.0339  0.2755
36060W        W79113  29.643  32.564  15.665 -0.4216 -0.0285  0.1938
36061W        W79114  19.621  33.349  27.570 -0.1216 -0.1974  0.0027
36062W        W79115   6.882  22.586  18.191 -0.1822 -0.1163  0.1523
36063W        W79116  32.480   3.127  22.434  0.0960 -0.0309 -0.0228
36064W        W79117   3.136  21.681  23.409  0.1186 -0.0920  0.1539
36065W        W79118   9.124   5.105  17.359  0.3242 -0.2423 -0.1875
36066W        W79119  14.659   1.409   2.658  0.1134  0.2366 -0.2751
36067W        W79120   9.644  33.608  19.632  0.1056  0.0724  0.1587
36068W        W79121  12.005  16.278   2.609  0.1787  0.1621  0.2049
36069W        W79122   9.792  29.357  13.028 -0.0460 -0.2085  0.2434
36070W        W79123  18.910   0.906   0.880  0.0592 -0.0992  0.5579
36071W        W79124  17.103  30.654  17.990 -0.1918  0.1956  0.1796
36072W        W79125  12.963  25.782  16.215  0.1828 -0.2263 -0.0534
36073W        W79126  10.819  30.235  18.905 -0.0078  0.0339  0.2752
36074W        W79127  16.213  28.086  15.886 -0.0520  0.2318  0.2199
36075W        W79128  13.105  28.799  19.151 -0.1591 -0.1080  0.1060
36076W        W79129   5.598   8.787  18.584  0.0856 -0.2358  0.0051
36077W        W79130   0.021   4.549  16.441 -0.1708 -0.1391 -0.3578
36078W        W79131   4.372   6.628  25.912 -0.1592 -0.3745 -0.0636
36079W        W79132  21.116   6.216   2.776  0.2122  0.2025  0.3669
36080W        W79133  13.739   9.521  20.359  0.0134  0.0621 -0.1599
36081W        W79134   9.766  34.531  21.587  0.1933 -0.0904 -0.1957
36082W        W79135  13.595   3.834  26.038 -0.0238 -0.0656  0.1325
36083W        W79136  10.977   4.840  23.967 -0.0770  0.0909  0.1304
36084W        W79137  14.960   2.400  23.640  0.1820 -0.0854 -0.2121
36085W        W79138   0.945   0.514  19.448  0.0982  0.0670 -0.0880
36086W        W79139   5.515  30.846  28.982 -0.1206 -0.1540 -0.0095
36087W        W79140  10.286  23.838  17.460 -0.1620  0.1042  0.2201
36088W        W79141  26.710  31.163  19.736 -0.1279 -0.0964  0.1594
36089W        W79142  32.999  28.517  17.751 -0.3289 -0.0217  0.2263
36090W        W79143  16.278   9.008   0.827  0.0950  0.2628 -0.0578
36091W        W79144  12.415  31.344  18.711 -0.0573  0.3512 -0.0364
36092W        W79145   6.215  12.981   2.520 -0.2726  0.0894 -0.0573
36093W        W79146   1.105  18.793  16.291  0.2197  0.0974 -0.0180
36094W        W79147  10.530  17.525  17.577  0.0797  0.5776 -0.0947
36095W        W79148   5.958   4.581  23.435 -0.1023  0.1802 -0.1372
36096W        W79149  15.649   0.090  20.243 -0.4630 -0.0594 -0.1841
36097W        W79150   9.224   1.134  14.968  0.0335 -0.2740  0.1927
36098W        W79151  31.430  33.794  15.005 -0.0106  0.2153  0.2918
36099W        W79152   7.090  33.609  28.290  0.1194  0.1033 -0.0073
36100W        W79153  23.404   0.386  17.140  0.2645  0.3429 -0.0140
36101W        W79154  32.912  10.752  28.981 -0.0745  0.1188 -0.0302
36102W        W79155   4.675  13.353  15.569  0.2348 -0.0978  0.1031
36103W        W79156  15.709   1.537  24.390  0.2784 -0.1129  0.0517
36104W        W79157   8.815  26.536  22.823 -0.1652 -0.0062 -0.0939
36105W        W79158   9.776  15.532  19.903  0.2411 -0.2484 -0.1822
36106W        W79159   2.594  12.937  17.152 -0.0493  0.0270 -0.1487
36107W        W79160   9.714   6.758  23.499 -0.1085  0.0065 -0.0871
36108W        W79161   5.521  29.374  18.545 -0.0898 -0.0603 -0.1672
36109W        W79162  22.152   5.035  21.403 -0.0313  0.0437 -0.0160
36110W        W79163  10.739  18.013  20.326  0.1506  0.1772  0.0896
36111W        W79164  19.112  25.072  19.082  0.3170 -0.4430  0.2373
36112W        W79165  12.534   2.324  16.818 -0.0861 -0.3556 -0.0319
36113W        W79166   3.230   5.842  18.683  0.2747  0.0227 -0.2310
36114W        W79167  10.524  28.465  15.158  0.0806  0.1148  0.0258
36115W        W79168   6.040   8.046   4.328  0.1491 -0.0248 -0.2528
36116W        W79169  14.268  26.234   7.286  0.0767  0.1409  0.0724
36117W        W79170   8.891   6.227  22.477  0.2093  0.1498  0.0684
36118W        W79171  23.341  11.219  20.517 -0.3491 -0.0277 -0.3289
36119W        W79172   2.120   1.810  25.625 -0.0404  0.1858  0.0916
36120W        W79173   7.364  29.515  13.307 -0.0561 -0.1707  0.0614
36121W        W79174  30.393  27.890  13.829 -0.1443 -0.1102  0.1002
36122W        W79175   9.250  12.662  17.138  0.1461  0.3015  0.2702
36123W        W79176   1.958   8.713  19.123  0.0622 -0.0936  0.1456
36124W        W79177  31.250  10.775  21.832  0.2909 -0.0820 -0.1397
36125W        W79178  34.545   6.181  24.627 -0.2490 -0.0952 -0.2464
36126W        W79179   3.423   3.495  25.772  0.1095  0.2571 -0.0916
36127W        W79180  11.719   2.323  25.572  0.3775 -0.3197 -0.0028
36128W        W79181  10.646  29.218  17.478 -0.2093  0.0482  0.0255
36129W        W79182   6.777   1.141  17.145  0.3451  0.0914  0.0688
36130W        W79183  32.158   0.137  18.599  0.5342 -0.2482  0.0676
36131W        W79184  14.942  22.868  17.426 -0.2442 -0.1662 -0.1464
36132W        W79185  16.689   0.947  16.645 -0.0264 -0.4309 -0.1025
36133W        W79186   2.222  34.064  16.339 -0.0078  0.1779 -0.1104
36134W        W79187  11.470  30.025  23.248 -0.1190  0.0942  0.1800
36135W        W79188  20.540  10.432  20.092  0.1931  0.3157  0.1245
36136W        W79189  24.626   4.949  27.163  0.1842  0.0004  0.3538
36137W        W79190  22.137  23.196  22.714  0.2365 -0.3602  0.1600
36138W        W79191  33.596  32.837  19.786  0.1395  0.1643 -0.1716
36139W        W79192  16.389  28.596  15.335 -0.2111 -0.0804 -0.1476
36140W        W79193   1.602  11.784  19.241 -0.1088  0.3110 -0.1571
36141W        W79194  31.795   3.879  17.728  0.0344  0.2028 -0.0779
36142W        W79195  15.161   1.028  20.261  0.0172 -0.0967  0.0667
36143W        W79196  16.794  31.413  14.898  0.1754 -0.1024  0.1437
36144W        W79197   5.889   3.689  15.465 -0.1463  0.0395  0.1561
36145W        W79198  17.810  32.924  25.664  0.2848 -0.0381 -0.0949
36146W        W79199  33.505   3.380  16.949 -0.2587 -0.0237  0.1288
36147W        W79200   7.041  25.047  23.134  0.0788 -0.0839 -0.2423
36148W        W79201  28.964  34.103  21.534 -0.1525 -0.1153  0.1382
36149W        W79202   7.865  14.685  24.837  0.2211 -0.1703 -0.3845
36150W        W79203  23.487  29.109   7.194  0.2808 -0.3539  0.0901
36151W        W79204  12.097   3.045  16.351 -0.3288  0.0115 -0.0950
36152W        W79205  23.313  31.824  16.357  0.2563  0.0873  0.2532
36153W        W79206  34.091  27.925  27.407 -0.0063 -0.0579 -0.0314
36154W        W79207  12.024  26.084  16.050  0.0869 -0.1411  0.1534
36155W        W79208  14.302  32.566   0.174  0.0450  0.1919 -0.0018
36156W        W79209   9.916   6.204  15.814  0.1553  0.0791  0.1333
36157W        W79210   7.566   0.047  24.867 -0.0221 -0.1462  0.1832
36158W        W79211  14.334  31.258  24.374 -0.2624 -0.0708 -0.0734
36159W        W79212   8.642   3.785  23.459  0.0690 -0.0504 -0.2124
36160W        W79213  11.934  30.841  15.535 -0.0767 -0.0496  0.0526
36161W        W79214   8.635  11.830  22.418  0.0743  0.0853  0.2662
36162W        W79215  31.662   8.011  16.217 -0.2631  0.1266  0.0044
36163W        W79216  19.518   5.937  25.268 -0.0146 -0.0191  0.1765
36164W        W79217  15.942  31.027  16.648 -0.3535 -0.3982  0.1262
36165W        W79218  16.395  31.303  19.631 -0.1214  0.1069  0.0165
36166W        W79219  10.163  28.676  16.461 -0.1816 -0.3230 -0.1562
36167W        W79220  12.896   5.316   8.182 -0.1932  0.1378 -0.0184
36168W        W79221  28.338   6.555  15.759  0.1030  0.0824  0.0038
36169W        W79222  34.209  31.738  17.424 -0.0064 -0.0444  0.2360
36170W        W79223   3.316   4.789  23.019  0.0124  0.0851 -0.0877
36171W        W79224  29.955  16.070  10.354 -0.0336  0.1153  0.3965
36172W        W79225  26.053   9.153  20.546 -0.3542  0.1858 -0.1809
36173W        W79226  26.823   9.205  17.815 -0.2746 -0.0664  0.2834
36174W        W79227   2.526   2.371  22.294  0.1277 -0.0757 -0.1095
36175W        W79228  25.888  12.549  25.808  0.1483  0.0050  0.0234
36176W        W79229  13.375   2.084  24.085 -0.0803 -0.1501  0.1187
36177W        W79230   7.306  29.463  19.893 -0.1301  0.0904  0.0958
36178W        W79231   3.396   0.516  15.732  0.1183 -0.0006  0.4039
36179W        W79232   9.522   3.630  23.308 -0.0530 -0.2037  0.1780
36180W        W79233   0.692  10.651  16.835  0.1857  0.1716  0.1806
36181W        W79234   9.539  26.367  28.958  0.1851 -0.2071  0.3575
36182W        W79235  12.018   0.420  25.715 -0.3329 -0.2737  0.2485
36183W        W79236   3.684  29.232  20.288 -0.1417  0.0624  0.2436
36184W        W79237  13.514  15.465  27.451 -0.2920  0.2765  0.3202
36185W        W79238  13.356  34.298   6.438  0.2439 -0.3878  0.0776
36186W        W79239  10.700  21.846  22.819 -0.1021 -0.0376  0.1623
36187W        W79240   4.182   8.869  24.797  0.2545 -0.2635 -0.1491
36188W        W79241  10.277  11.103   7.355  0.0051  0.1060 -0.1035
36189W        W79242  26.001   9.077   7.654  0.2145  0.0855 -0.0397
36190W        W79243  11.745  31.002  17.323  0.2411 -0.0501 -0.4991
36191W        W79244   9.952   6.504  14.429 -0.0079  0.3567 -0.1778
36192W        W79245   3.439  25.927  27.705  0.2784 -0.1747  0.2336
36193W        W79246  19.093  17.780   1.101  0.3552  0.1221  0.0995
36194W        W79247   7.931   5.372  25.081 -0.2603 -0.0543  0.0532
36195W        W79248  23.751   7.587  16.480  0.0084 -0.0640 -0.1253
36196W        W79249  26.237   2.943  18.173 -0.0438 -0.1540  0.0167
36197W        W79250  31.996   5.195  21.965  0.1453  0.1294  0.0178
36198W        W79251  33.831   1.035  26.194  0.0672  0.1191 -0.1174
36199W        W79252   0.692   9.403  13.855  0.4076 -0.2068 -0.1806
36200W        W79253  15.542   5.500  22.654  0.2081  0.0478 -0.0670
36201W        W79254  23.267   0.070  20.515 -0.0557  0.0901  0.2993
36202W        W79255   9.257   3.774   0.328  0.1428 -0.2078  0.1490
36203W        W79256  30.215  13.676  25.108 -0.3672  0.2167 -0.1699
36204W        W79257  27.823  13.551   8.587 -0.0842  0.2859  0.0664
36205W        W79258   6.957   1.590  28.738  0.1668  0.1358 -0.1149
36206W        W79259   3.614   7.537  15.088  0.1981  0.0163  0.1483
36207W        W79260  15.075   7.005   5.156  0.0726  0.1761 -0.1682
36208W        W79261  10.139  31.785  23.150 -0.1555 -0.0993  0.0142
36209W        W79262   5.160  24.081  17.541 -0.0462 -0.3846 -0.2978
36210W        W79263  12.244   5.536  17.925 -0.1573  0.0902 -0.2411
36211W        W79264  10.298   4.029  18.639  0.2544  0.0468 -0.1785
36212W        W79265  14.841   1.506   8.237 -0.1495 -0.5696 -0.1531
36213W        W79266  27.580  31.611  16.530  0.0426 -0.2645 -0.2747
36214W        W79267  13.904   1.230  29.119 -0.1471 -0.3543 -0.3111
36215W        W79268  18.559  28.156  16.115  0.1922  0.2169 -0.1797
36216W        W79269  17.660  33.965  20.026 -0.1966 -0.0882  0.1538
36217W        W79270   2.899   7.404  20.582 -0.2047 -0.5237 -0.3536
36218W        W79271  12.043  19.166  19.620  0.3580 -0.1036  0.0805
36219W        W79272  24.658   0.062  26.893  0.0884  0.0233 -0.0871
36220W        W79273  14.013  22.591  25.773 -0.3416  0.2555 -0.0202
36221W        W79274   4.165   3.126  20.518  0.2608 -0.1223  0.1305
36222W        W79275   6.846   6.462  15.294  0.2182 -0.0032 -0.2052
36223W        W79276  34.528   6.538  18.875  0.3859  0.1356  0.2091
36224W        W79277  12.962   6.324  15.351  0.0161  0.2947 -0.1805
36225W        W79278  34.248  16.741  22.285 -0.2429  0.1876 -0.1201
36226W        W79279  16.071  32.047  21.343 -0.1752 -0.0395  0.2593
36227W        W79280  34.425   9.240  15.605 -0.2819 -0.0897 -0.1974
36228W        W79281   4.189  17.416  25.059 -0.0991  0.0685 -0.0989
36229W        W79282  31.483   4.887  26.429 -0.1156 -0.0248  0.3759
36230W        W79283   9.125  32.540  15.080  0.1367  0.1583 -0.0829
36231W        W79284   8.797   4.058  22.640 -0.1151 -0.1142 -0.0249
36232W        W79285  33.126   2.557  14.936  0.0396  0.0581  0.1728
36233W        W79286  12.260  18.301  22.008  0.0665  0.1244  0.1044
36234W        W79287  17.398   3.943  19.792 -0.3585 -0.1585 -0.0652
36235W        W79288   3.429   9.972  23.537 -0.2425 -0.0406  0.1069
36236W        W79289  17.869   3.250  21.911  0.1630 -0.1320  0.3224
36237W        W79290  26.064  34.460  17.918 -0.1223  0.0195  0.1867
36238W        W79291   5.613  12.276  25.155 -0.2234  0.0898  0.1347
36239W        W79292   9.949  10.360  15.321 -0.0323 -0.0168  0.2069
36240W        W79293  17.592  26.272  25.498 -0.0596  0.3124 -0.1586
36241W        W79294   0.916   3.970  19.885  0.1179 -0.0124 -0.0333
36242W        W79295  21.088  23.805   8.361 -0.2431  0.0021  0.0396
36243W        W79296   2.611  13.956  19.003  0.3063  0.1272 -0.2614
36244W        W79297  30.085  11.044  16.298 -0.2344  0.3251 -0.1501
36245W        W79298  16.496  27.386   1.921 -0.0489 -0.1594  0.1390
36246W        W79299  33.585  13.019  17.986  0.0001 -0.1229  0.0775
36247W        W79300  13.854  31.537   3.872 -0.0569  0.1900 -0.5047
36248W        W79301  23.464  34.260  24.851 -0.0606 -0.0589 -0.1562
36249W        W79302  31.907   7.011  26.290  0.0731 -0.0827 -0.4498
36250W        W79303  11.605  18.771   9.393  0.4791  0.0542  0.0573
36251W        W79304   3.795   3.475  19.211  0.1589 -0.1204  0.4384
36252W        W79305   8.196   6.872  19.317  0.1678  0.2044  0.0647
36253W        W79306  17.699  18.958  24.734 -0.3304 -0.0096 -0.0567
36254W        W79307  16.790   4.316  17.364  0.1021  0.1838  0.0701
36255W        W79308  13.720   1.150  22.401 -0.1783  0.2865 -0.2676
36256W        W79309   9.477   9.858  19.245  0.0467  0.0294  0.2296
36257W        W79310   8.453   3.865  19.066 -0.0189 -0.2291 -0.1087
36258W        W79311   3.100   3.344  19.526  0.3163 -0.0017  0.1826
36259W        W79312  29.278  34.528  27.465 -0.2422  0.1335 -0.3890
36260W        W79313   2.678   2.722  18.422  0.1548 -0.2651 -0.0673
36261W        W79314   9.791  19.914  24.679 -0.1828  0.1743  0.2229
36262W        W79315  18.711  20.916  24.357 -0.1699  0.2171  0.3447
36263W        W79316  23.223   9.277  28.659 -0.1241 -0.0582 -0.0902
36264W        W79317   8.543  13.214  16.061 -0.0194  0.2654 -0.1890
36265W        W79318  30.531  29.696  13.002  0.2623 -0.2259 -0.1277
36266W        W79319   8.455   0.683  26.901 -0.0810 -0.0808  0.1352
36267W        W79320   5.561   2.737  26.655  0.2720 -0.1644 -0.0894
36268W        W79321  34.481  32.708  27.067  0.2829 -0.2474  0.2781
36269W        W79322   6.347  33.964  27.777  0.0588  0.1081 -0.3056
36270W        W79323  18.379  14.882   1.019 -0.0464  0.2167 -0.0361
36271W        W79324  20.119  29.749  20.765 -0.0917  0.2119  0.2961
36272W        W79325   3.202   5.219  15.956  0.0425  0.1065 -0.2272
36273W        W79326  13.214  24.284  20.383  0.1796  0.2193  0.1252
36274W        W79327  32.115  33.657  21.172 -0.3059 -0.2236  0.1251
36275W        W79328  15.269  31.172  20.237 -0.0768  0.0428 -0.0022
36276W        W79329  10.386  18.360  16.510 -0.1034  0.1096 -0.2429
36277W        W79330  25.336   2.018   5.998 -0.2586 -0.1065 -0.0325
36278W        W79331  10.210   4.355  17.216 -0.1426  0.0139 -0.4738
36279W        W79332   3.431   2.631  16.246  0.2228 -0.0694  0.0175
36280W        W79333  33.073  34.639  21.403 -0.2527 -0.3411 -0.1835
36281W        W79334  13.038  12.491  28.089  0.1245 -0.0522 -0.1667
36282W        W79335   6.497   0.257  25.524  0.2704 -0.2815  0.1497
36283W        W79336  30.041  23.042  14.531  0.0490  0.2233 -0.1471
36284W        W79337   6.730  13.348  16.267  0.0648 -0.2087  0.4248
36285W        W79338  19.548  27.501  26.058 -0.1923  0.0484 -0.0562
36286W        W79339   0.983   4.852  20.284 -0.2370  0.0657  0.1867
36287W        W79340  12.604  22.900  26.913 -0.1918 -0.0453  0.0073
36288W        W79341  22.747  17.204  13.630  0.2552 -0.2573  0.1434
36289W        W79342  14.758   5.647  14.966 -0.0451 -0.0415  0.0117
36290W        W79343   1.501  17.880  16.797 -0.1077  0.3833  0.3550
36291W        W79344  19.234  34.057  15.334  0.0867 -0.4223 -0.0132
36292W        W79345   9.696   1.860  23.242 -0.4103  0.0329  0.1009
36293W        W79346   2.006  23.190  16.696 -0.2530  0.0486 -0.0342
36294W        W79347  28.094   1.118  19.886  0.0045 -0.1380 -0.0195
36295W        W79348  18.648  21.134  13.595 -0.0383 -0.2498  0.1468
36296W        W79349  15.160  29.416  25.801 -0.2689 -0.0691  0.0596
36297W        W79350   7.044  14.037  18.044 -0.1091  0.1510  0.0296
36298W        W79351  15.995  19.062  13.896  0.3029  0.0147  0.2712
36299W        W79352  34.209  10.187  22.632  0.0999 -0.0065 -0.0802
36300W        W79353  27.140  31.911  26.377  0.0139 -0.0248  0.0932
36301W        W79354   6.860   5.860   6.551 -0.1356  0.2091 -0.0086
36302W        W79355  32.576  34.175  18.891 -0.0308  0.3015 -0.3742
36303W        W79356  13.994  22.459  21.623  0.0834 -0.3712  0.0118
36304W        W79357  33.187   1.538  14.361 -0.0666 -0.1211  0.2918
36305W        W79358   7.719   7.026  19.568  0.0757 -0.0774 -0.1552
36306W        W79359   6.198   7.262   0.315  0.1824 -0.1331  0.5010
36307W        W79360   6.640   8.043  22.707 -0.0895  0.1031  0.0371
36308W        W79361  13.198  13.360  17.761  0.1210 -0.0837 -0.1284
36309W        W79362  17.940  28.994  14.465  0.2987  0.0310  0.2794
36310W        W79363   0.224  30.414   0.668 -0.1535  0.1115 -0.0374
36311W        W79364   9.342   1.330  26.526 -0.2161 -0.2428  0.1310
36312W        W79365   8.593   7.132  16.767  0.1989  0.1904 -0.1318
36313W        W79366   2.947  22.620  16.082  0.0141 -0.0126  0.0745
36314W        W79367  19.028   0.536   0.008  0.0841 -0.0149  0.5580
36315W        W79368  16.688   4.213   1.144 -0.1531 -0.4575 -0.2325
36316W        W79369  26.782   3.546  16.673  0.0744 -0.2488  0.3131
36317W        W79370   4.468   7.361  18.733  0.0293 -0.0467 -0.2927
36318W        W79371  14.605   9.621  25.056 -0.0417 -0.1415  0.1022
36319W        W79372   9.870  30.268  16.954 -0.0580 -0.1697  0.1837
36320W        W79373   6.754  12.197  18.420  0.1527  0.0068 -0.1585
36321W        W79374  27.330  34.015  27.536  0.2589 -0.2573 -0.0726
36322W        W79375  16.665   3.537  17.822  0.4576  0.0022  0.2441
36323W        W79376   2.001  19.236  16.254  0.1330  0.2322 -0.0109
36324W        W79377   9.338   3.807  14.252 -0.1730 -0.2611  0.1457
36325W        W79378  11.832  29.151  24.367  0.1135  0.2467 -0.2986
36326W        W79379  19.698  32.110  17.880 -0.0134 -0.2164  0.1820
36327W        W79380   9.785  15.976   7.821  0.1129  0.0869 -0.0385
36328W        W79381  22.930   8.352  18.388 -0.3224 -0.0446 -0.2961
36329W        W79382  14.501  14.043  15.521  0.0204  0.0400  0.1747
36330W        W79383   4.926   8.893   1.767  0.0207 -0.2502  0.3461
36331W        W79384   9.772   3.618  17.220  0.0897 -0.2318 -0.0185
36332W        W79385  27.293  21.870  24.519  0.1141 -0.1770  0.3263
36333W        W79386   0.084  12.257   3.370  0.2134  0.0300  0.2973
36334W        W79387  15.716   8.743   4.102  0.0326  0.0176 -0.0720
36335W        W79388   2.855  10.106  23.259 -0.2480 -0.2359  0.1622
36336W        W79389   8.627  20.852  17.960 -0.0932  0.2080  0.2989
36337W        W79390  15.903  32.808  20.475 -0.0299  0.1353 -0.1459
36338W        W79391   3.410  13.747  14.894  0.0399  0.2571  0.1367
36339W        W79392   7.662  26.094  13.713 -0.0829 -0.1400  0.3475
36340W        W79393   6.604   1.279  21.726 -0.2695  0.3353 -0.0250
36341W        W79394   2.859  14.308  20.920  0.2729  0.0866  0.0622
36342W        W79395  18.098  29.134  24.761  0.0871 -0.0964  0.3535
36343W        W79396  16.613  24.089  24.536  0.1784  0.1736 -0.0038
36344W        W79397   5.062  13.022  14.446  0.0247 -0.2155 -0.1910
36345W        W79398   5.451  20.087   5.373  0.1984 -0.0407  0.1460
36346W        W79399  20.278   4.476  24.614 -0.0071 -0.4545 -0.0362
36347W        W79400   6.167   3.047  18.018 -0.0991  0.0780  0.4224
36348W        W79401  19.637  30.518  19.363  0.0646  0.1570 -0.3399
36349W        W79402  20.977   3.421  26.152 -0.3220 -0.1596  0.1395
36350W        W79403   9.499  30.832  28.955  0.1539  0.2794  0.1504
36351W        W79404  23.765   2.971  16.183 -0.1715  0.1143  0.0459
36352W        W79405  28.882  17.426  18.309  0.0228 -0.0971  0.2275
36353W        W79406  18.866  26.805  16.697 -0.1218  0.0691  0.4243
36354W        W79407   9.458  30.975  18.447  0.0661  0.1990  0.0875
36355W        W79408   2.163   0.065  16.506 -0.2935  0.6091 -0.0232
36356W        W79409  22.577  30.231  15.513 -0.1816  0.0755 -0.2362
36357W        W79410  29.599   3.486  16.261 -0.1974 -0.2054 -0.1171
36358W        W79411  11.417   8.745  20.094  0.1407  0.3337 -0.0497
36359W        W79412  23.664  28.169  17.385  0.1531  0.0565  0.2296
36360W        W79413  10.395   5.356   0.927  0.1770  0.3408  0.1304
36361W        W79414   0.844   2.033   3.191 -0.2120 -0.1203 -0.1623
36362W        W79415  33.858   5.758  15.872 -0.0484 -0.1872  0.1290
36363W        W79416  14.634  33.891  13.740  0.0017 -0.1972 -0.1487
36364W        W79417   5.052  17.916   0.693 -0.1283 -0.1805 -0.1366
36365W        W79418  33.205   4.235  22.181 -0.1472  0.0147 -0.2723
36366W        W79419   8.470  27.176  13.223  0.1018 -0.3599 -0.1551
36367W        W79420  26.775   6.666  14.936 -0.2154  0.2916 -0.1564
36368W        W79421  29.304   8.096  16.908  0.1770  0.0688 -0.1152
36369W        W79422  13.890  14.904  23.117  0.2936  0.3868 -0.1244
36370W        W79423  17.594   2.236  15.823  0.1026  0.0109 -0.2530
36371W        W79424  15.789  28.176  23.433 -0.1948  0.0273  0.0482
36372W        W79425  11.281  31.058  18.087 -0.4584 -0.0888  0.3262
36373W        W79426   8.929  23.612  15.953  0.0565  0.0219 -0.2027
36374W        W79427   8.631  31.181  20.537 -0.0396 -0.0297  0.1119
36375W        W79428  32.519  11.750  26.202 -0.0564 -0.1594  0.0568
36376W        W79429  20.574  12.922  27.709 -0.0168  0.1952 -0.1417
36377W        W79430   1.553   1.515  27.460  0.2510  0.2646 -0.2284
36378W        W79431  28.211  25.228  26.654  0.2722 -0.0796 -0.1023
36379W        W79432  16.836   1.882  22.911  0.1798 -0.0155  0.4344
36380W        W79433  14.149   0.901  19.372 -0.4948  0.1109  0.0220
36381W        W79434   1.251   4.144  25.140 -0.0741  0.0778  0.1170
36382W        W79435  18.421  31.408  14.642 -0.3778  0.1733  0.1773
36383W        W79436   2.412   0.930  19.909 -0.1757 -0.0317  0.1254
36384W        W79437   0.995  31.210  19.338  0.0222 -0.4453 -0.0852
36385W        W79438  15.944  32.947   5.004 -0.1549  0.2196  0.0551
36386W        W79439  18.868  23.331   7.541  0.0863 -0.0946  0.1109
36387W        W79440   3.395   5.501  28.864  0.1294  0.2171 -0.0462
36388W        W79441  22.693   0.179  14.974  0.0288 -0.1472 -0.1030
36389W        W79442   7.033  33.807  14.902  0.2529  0.3529  0.0077
36390W        W79443  20.710  27.776  17.348  0.1293 -0.1089  0.2199
36391W        W79444   3.497  16.611  15.078 -0.1995  0.1309  0.0303
36392W        W79445  10.570  33.273  27.465 -0.0538 -0.1284 -0.0906
36393W        W79446  21.195  31.868  14.738 -0.0218 -0.1488 -0.1280
36394W        W79447  32.774   1.327  17.215  0.2122 -0.0040  0.1741
36395W        W79448  15.018  28.762  18.458  0.2423  0.1674 -0.0712
36396W        W79449   8.829   5.335   1.235 -0.0533 -0.1584 -0.0695
36397W        W79450  17.745  12.436  26.197 -0.0015  0.2560 -0.1473
36398W        W79451  29.514  26.572   3.627  0.1523  0.2594  0.0166
36399W        W79452   6.120  23.306  15.540 -0.2444 -0.0907 -0.1692
36400W        W79453  16.895  32.943  25.057  0.3232 -0.0817 -0.1853
36401W        W79454  31.320  13.624  15.833  0.0164  0.0193  0.1835
36402W        W79455   1.159   4.955  28.012 -0.3418  0.0688  0.0916
36403W        W79456  16.059  20.815  21.624 -0.0223  0.0722  0.0343
36404W        W79457  11.919   4.248  18.247  0.0335 -0.4359 -0.3485
36405W        W79458   5.910  12.440  15.115  0.0343 -0.0540  0.0297
36406W        W79459   9.378  10.662  19.231 -0.1979 -0.1414  0.2254
36407W        W79460  28.234  32.733   0.156  0.2627 -0.0838  0.1042
36408W        W79461  12.772  17.751  23.424 -0.4371 -0.1202 -0.0477
36409W        W79462   9.846   9.200  18.681 -0.0586 -0.4025  0.0723
36410W        W79463  15.610  14.007  21.939  0.1859  0.0109  0.4930
36411W        W79464  15.741  27.759  15.814 -0.0769 -0.1985 -0.1749
36412W        W79465   3.929  23.255  18.762 -0.3695 -0.1040  0.2253
36413W        W79466   5.855  19.552   1.512  0.1134  0.1461  0.0809
36414W        W79467  29.562   9.167  18.608 -0.1872  0.1361  0.1875
36415W        W79468  14.147  10.803  19.868 -0.0608 -0.0747 -0.2266
36416W        W79469  18.983   1.063  18.561  0.0048 -0.0102 -0.0381
36417W        W79470  14.574   4.826   3.449 -0.1237  0.0958 -0.0618
36418W        W79471   7.918  34.505  19.985 -0.1417 -0.4605  0.1088
36419W        W79472   1.767  31.864  23.107  0.2163 -0.0468  0.4002
36420W        W79473  13.079  33.189  22.188 -0.0735 -0.2113  0.1097
36421W        W79474   1.135   3.836  26.476 -0.5221 -0.1124  0.0442
36422W        W79475   0.440  30.490  24.323  0.0648  0.1884 -0.1294
36423W        W79476  21.678   9.056   1.540 -0.2856  0.1150 -0.0056
36424W        W79477   6.691   3.474   1.761  0.2453 -0.2465 -0.6944
36425W        W79478   6.632  26.099  25.305 -0.0617  0.1004 -0.0052
36426W        W79479   9.152   4.021  19.768 -0.2160 -0.1032  0.2508
36427W        W79480   2.724  22.406   0.109  0.0316  0.0244  0.3284
36428W        W79481  19.764  13.561  19.760  0.2275  0.1531 -0.0122
36429W        W79482  10.022  29.447  12.608 -0.2110  0.0276 -0.3908
36430W        W79483   9.303  19.207  17.458 -0.3437  0.0573 -0.0725
36431W        W79484   7.505  28.144  23.436 -0.2477  0.0509 -0.1589
36432W        W79485  34.681  29.540  24.034 -0.4508 -0.2860  0.0277
36433W        W79486  31.646   6.639  19.776  0.1180 -0.3105 -0.1856
36434W        W79487  29.414   7.432  17.961 -0.3933  0.0470 -0.1948
36435W        W79488  31.162  29.143  14.470  0.1564 -0.1122 -0.0018
36436W        W79489   8.629   3.706  13.809 -0.0325  0.5043 -0.4032
36437W        W79490  12.463  17.267  27.822  0.4609 -0.3750  0.1824
36438W        W79491  14.749   1.174   0.954 -0.0943 -0.0659 -0.0907
36439W        W79492  32.012  16.934  24.768 -0.0745  0.0595 -0.0426
36440W        W79493   9.712  30.400   8.153  0.0056 -0.0427  0.1669
36441W        W79494  10.462  17.828  20.711  0.3247 -0.1494  0.2574
36442W        W79495   3.589  19.080  15.337 -0.0831  0.0604 -0.0730
36443W        W79496   6.429  22.022  17.084 -0.1986 -0.1327  0.1045
36444W        W79497   7.393   2.244  16.940 -0.0957 -0.4867  0.1391
36445W        W79498  15.916   0.913   6.652 -0.1875  0.2252  0.1562
36446W        W79499  22.489   9.483   7.485 -0.1283 -0.1727 -0.1462
36447W        W79500  11.579   0.616  19.267  0.1901  0.0899 -0.0999
36448W        W79501  20.333  32.854   4.593 -0.0287 -0.0873  0.1717
36449W        W79502  10.473  21.443  17.206  0.0140  0.0996  0.3373
36450W        W79503   0.310   7.559  22.212  0.0670  0.0401  0.0448
36451W        W79504   5.163  15.605  23.798 -0.1375  0.0580  0.2491
36452W        W79505   7.188  32.038  21.837 -0.0746 -0.1931  0.0073
36453W        W79506  12.426   9.791  25.258  0.0545  0.1395  0.2931
36454W        W79507  22.877  31.353  26.762 -0.1676  0.0500  0.1073
36455W        W79508  24.144   6.138  15.414  0.0802  0.2027  0.0462
36456W        W79509  32.957   8.691  24.076  0.2107 -0.0289 -0.0427
36457W        W79510  15.887  24.046  20.879  0.4509  0.0665  0.1831
36458W        W79511  10.193  30.365  20.337  0.2234 -0.0117 -0.0181
36459W        W79512   5.465  32.296  19.831  0.0592 -0.1291  0.0901
36460W        W79513  34.274  10.092  15.592  0.0787  0.3589  0.2326
36461W        W79514  20.694  34.586  23.408  0.1245 -0.0573 -0.0741
36462W        W79515   1.899  10.701  17.056 -0.1573 -0.0878 -0.0887
36463W        W79516  28.657   8.248  18.589  0.0532 -0.0059 -0.3076
36464W        W79517  12.869  22.045  17.965  0.1363  0.1305 -0.1624
36465W        W79518  30.978  10.948  21.482  0.0821  0.1159  0.3011
36466W        W79519  18.274   7.252  20.986  0.2485  0.0672 -0.2443
36467W        W79520  26.972   4.352  20.428  0.3759  0.0946 -0.2105
36468W        W79521  20.351   2.809  23.911  0.1251 -0.1740  0.0034
36469W        W79522  12.791  30.754   3.341 -0.2445 -0.0471 -0.4431
36470W        W79523  14.889  24.371   5.144  0.0539 -0.0996 -0.0397
36471W        W79524  31.582   4.017  23.130 -0.2494  0.0092 -0.0645
36472W        W79525  15.450  21.190  17.455  0.0152  0.1016  0.0086
36473W        W79526  21.063  30.345  13.902  0.2016  0.1954  0.1508
36474W        W79527   6.777  20.617  15.639  0.0500 -0.0784 -0.0345
36475W        W79528   4.460  31.497  26.185  0.1624  0.0389  0.3633
36476W        W79529  30.204  20.246   0.142 -0.1167 -0.4818 -0.4597
36477W        W79530  18.549  28.722  18.484  0.0670  0.3247  0.1009
36478W        W79531   0.406   6.727   6.721  0.1512  0.2722  0.0507
36479W        W79532  31.254   3.943  17.688  0.0524 -0.2847  0.3980
36480W        W79533  29.437   2.840  19.757 -0.1954  0.0443  0.1295
36481W        W79534   8.130  11.818  16.900  0.4448 -0.0308  0.0023
36482W        W79535   7.727   1.946  26.015 -0.0436  0.1837  0.1084
36483W        W79536  16.417   6.436  26.168 -0.0088 -0.0508  0.1909
36484W        W79537  12.674  30.261  15.310  0.2420 -0.2567  0.1260
36485W        W79538  21.448   1.203   8.871 -0.1038  0.0818  0.1079
36486W        W79539   7.732  18.901  22.338  0.0818  0.3027 -0.5188
36487W        W79540  13.008  30.624  25.409  0.0280  0.0821 -0.0609
36488W        W79541   7.416  31.929   3.599 -0.4296 -0.0904  0.0054
36489W        W79542  23.788  25.314  27.171  0.2850 -0.1251 -0.2880
36490W        W79543   1.191  15.750  20.446 -0.1855 -0.0060 -0.0118
36491W        W79544  15.236  31.967   8.227  0.0805 -0.0543  0.1054
36492W        W79545   8.227   3.468  23.533  0.0058 -0.1911  0.2415
36493W        W79546   7.791   5.910  17.968  0.2475  0.0685  0.0313
36494W        W79547   5.022  30.295  22.122  0.0681 -0.2100 -0.1552
36495W        W79548  15.695   0.718  18.662  0.1953 -0.2502  0.0879
36496W        W79549   1.846  27.534  17.865  0.1017  0.0343  0.0798
36497W        W79550   3.594  32.285  22.185 -0.0818  0.2046 -0.0623
36498W        W79551  16.116   6.436  28.054  0.0761  0.0940  0.1455
36499W        W79552  28.229   7.327  29.191  0.3001 -0.0716 -0.2704
36500W        W79553  11.642   6.473  16.624  0.1278  0.1959  0.1686
36501W        W79554  12.428  31.298  20.200  0.3195 -0.2792 -0.1716
36502W        W79555  18.869  31.586   0.916  0.2322 -0.1511 -0.1336
36503W        W79556   7.855   5.303  23.533 -0.2777  0.1771  0.2315
36504W        W79557  23.496  33.515  18.779  0.1682  0.2702 -0.2541
36505W        W79558   4.169  16.057   9.517  0.1873 -0.1596 -0.0056
36506W        W79559  15.330  34.309  27.693 -0.1212  0.3262  0.1295
36507W        W79560  16.821   0.679  14.771 -0.1794 -0.0671 -0.1018
36508W        W79561   0.008  28.598  23.753  0.1291 -0.2256  0.0386
36509W        W79562   7.939  30.560  27.025  0.2897  0.0890 -0.0860
36510W        W79563  11.727  25.970  14.309  0.0406  0.0000  0.0119
36511W        W79564  14.029   1.855  15.787  0.0053  0.1612 -0.2209
36512W        W79565  11.943  24.278  18.593 -0.1319 -0.3344  0.0316
36513W        W79566  33.519  11.893  18.290  0.3258 -0.0376 -0.0490
36514W        W79567   4.588  18.887  25.116  0.2758 -0.1390  0.0836
36515W        W79568  11.994  25.616   0.659 -0.2001 -0.2961 -0.0475
36516W        W79569   5.528   0.129  27.192 -0.1416 -0.0171 -0.1715
36517W        W79570   2.079   5.931  28.891 -0.2619 -0.0644  0.2648
36518W        W79571   5.019   3.360  20.972  0.3409  0.1026  0.4084
36519W        W79572  12.306   1.519  14.371 -0.1865 -0.2531  0.1150
36520W        W79573  24.574  26.484  24.232  0.0372  0.1664 -0.1020
36521W        W79574  12.895   3.456  23.878 -0.0398  0.2127 -0.2341
36522W        W79575   9.707  27.109  21.495  0.2015 -0.2816 -0.0308
36523W        W79576   8.049  20.633  18.567 -0.2873 -0.2476 -0.0406
36524W        W79577  22.187   9.784   6.858  0.0033 -0.0458 -0.1428
36525W        W79578  12.771   4.057  26.985  0.2955 -0.1520  0.1285
36526W        W79579  26.057  25.857  20.467 -0.3491  0.3709  0.0318
36527W        W79580  10.721   0.441  22.372 -0.0460 -0.1521 -0.2338
36528W        W79581   3.324  32.713  24.410 -0.0667  0.2063 -0.1337
36529W        W79582  32.801   3.601  20.980  0.0085 -0.4879  0.0999
36530W        W79583   9.669  13.592  21.189 -0.1180 -0.1115  0.2246
36531W        W79584  22.312  31.131  29.011 -0.2324  0.3371  0.0771
36532W        W79585  32.473  12.819  20.032  0.3827 -0.0156  0.1974
36533W        W79586  30.153  27.593  23.429 -0.0040 -0.0430  0.0582
36534W        W79587   9.942   6.004  27.794 -0.1451 -0.1227 -0.3025
36535W        W79588  18.265   2.525  28.798  0.2871  0.0015  0.0243
36536W        W79589  19.369  28.848  21.594  0.0394  0.1229  0.2789
36537W        W79590   7.977  27.360  22.675  0.2869  0.5624 -0.0285
36538W        W79591  21.046  29.574  17.502 -0.2663  0.1078 -0.0805
36539W        W79592  26.351  30.476  20.839 -0.3262 -0.0065  0.0887
36540W        W79593   9.231   8.910  27.883 -0.0290  0.1735  0.1831
36541W        W79594   8.237  28.035   4.035  0.1853 -0.1207 -0.0447
36542W        W79595  16.176  30.992  17.828 -0.0590  0.2506 -0.2310
36543W        W79596  28.936  22.105  23.933 -0.0686 -0.6025  0.0682
36544W        W79597   4.210  16.720  23.118 -0.2866 -0.0860  0.1143
36545W        W79598  15.929  19.400  22.044 -0.3566 -0.0619 -0.0158
36546W        W79599   0.278  25.970   6.644 -0.1278 -0.0780  0.2218
36547W        W79600   1.086  12.664  25.624  0.0713 -0.4198  0.0802
36548W        W79601  33.585  11.005  14.772  0.0131  0.0733  0.1038
36549W        W79602   7.898  26.352  17.757  0.1402  0.1337  0.1201
36550W        W79603   3.204   4.326  17.629  0.0710  0.1460 -0.0565
36551W        W79604   8.293  33.107   3.151  0.2242 -0.0505 -0.0054
36552W        W79605  10.194  32.723  14.772 -0.1290  0.2078 -0.0576
36553W        W79606  18.327   1.027  16.453  0.2401 -0.1545 -0.1953
36554W        W79607  12.095   8.470  25.557 -0.0155 -0.0585  0.1119
36555W        W79608  10.371  18.704   6.818 -0.0493 -0.1896  0.0884
36556W        W79609  22.006  19.730  18.656  0.1777 -0.0996  0.3724
36557W        W79610  32.579   0.089  14.301  0.1927  0.2147 -0.1553
36558W        W79611   3.770   7.533   5.088  0.2174  0.2472 -0.0687
36559W        W79612  14.154  30.273  21.076  0.0476  0.0252 -0.0888
36560W        W79613  14.116  28.226  24.252 -0.0135 -0.2549  0.2881
36561W        W79614   6.793   9.489  16.636 -0.1343 -0.0988  0.2047
36562W        W79615   6.833   7.624  28.935 -0.2519  0.1136 -0.0210
36563W        W79616  11.821   7.958   3.005  0.0070 -0.2877  0.0570
36564W        W79617  12.568   3.257  15.983 -0.0701 -0.0850  0.1478
36565W        W79618  12.855  29.776  27.944  0.2077  0.0259  0.1349
36566W        W79619  26.054   9.416  14.105  0.0090 -0.2678 -0.0038
36567W        W79620   0.368   9.475  27.224  0.0706  0.1509 -0.0508
36568W        W79621  14.671   6.674  18.273  0.2191 -0.3405 -0.2397
36569W        W79622  15.318   9.031  21.336  0.1106  0.1227 -0.2493
36570W        W79623  22.936   0.018  25.831  0.0470 -0.0849 -0.2276
36571W        W79624  18.165  32.531  24.412 -0.1561  0.0754  0.3178
36572W        W79625  15.872   5.946  10.711  0.0291  0.0694  0.1003
36573W        W79626  11.526  31.076  13.868 -0.2236  0.4206  0.2818
36574W        W79627  21.811   2.884  24.343 -0.2058 -0.1724 -0.2906
36575W        W79628  12.524  16.076  26.448  0.1555  0.2808  0.0562
36576W        W79629  12.677  33.225  23.242 -0.0671 -0.0714  0.0547
36577W        W79630  15.360   7.778  16.917 -0.2205 -0.1418 -0.2189
36578W        W79631  22.422  32.244  17.657  0.0515  0.0235 -0.1472
36579W        W79632  32.963  31.993  18.244  0.1688 -0.1853 -0.2648
36580W        W79633   7.091  10.168  20.565 -0.0171 -0.0161  0.4131
36581W        W79634  12.599  30.112  16.586 -0.4676 -0.0840 -0.0345
36582W        W79635   3.108   2.036  18.391 -0.2650  0.1864  0.1767
36583W        W79636   7.019  24.416  23.895  0.2644  0.0011 -0.3026
36584W        W79637   0.773  26.431   2.752  0.0496 -0.0842  0.1008
36585W        W79638  10.074   6.914   8.216 -0.0794  0.0037 -0.1242
36586W        W79639   7.329  32.253   3.987 -0.1978  0.2494 -0.2319
36587W        W79640  14.357   3.702   1.406 -0.4123 -0.2516 -0.1904
36588W        W79641  27.080  31.902  15.452  0.0040  0.0200  0.0454
36589W        W79642   6.514  27.760  19.749 -0.3996 -0.2753 -0.1731
36590W        W79643  15.153  30.340   0.484 -0.3404  0.4443  0.2464
36591W        W79644   6.149   7.026  23.902 -0.2968  0.1945 -0.3959
36592W        W79645  24.761   3.662   5.059 -0.2499 -0.0486  0.3002
36593W        W79646  13.637  12.883  26.335 -0.0047 -0.3171 -0.0171
36594W        W79647  18.772  24.788  21.893 -0.1209 -0.1290  0.0071
36595W        W79648  24.745  27.210   0.909  0.2548 -0.1112 -0.1777
36596W        W79649  26.435   9.064  16.511  0.2183  0.0453 -0.1058
36597W        W79650   5.440  29.446   2.159 -0.0384 -0.0509 -0.3785
36598W        W79651  10.444  13.321  26.225  0.2103 -0.0473  0.1057
36599W        W79652  11.064   1.247  25.712 -0.0760 -0.0518  0.2326
36600W        W79653  17.931  14.370  28.875  0.1342  0.0263 -0.1177
36601W        W79654   7.639   9.814  22.159 -0.1121 -0.2249  0.2290
36602W        W79655   9.988   8.867  24.839 -0.0199 -0.2129  0.0727
36603W        W79656  12.420  26.133  16.959  0.1775 -0.1565 -0.1759
36604W        W79657   4.474  22.068   1.427 -0.1160 -0.0088  0.0599
36605W        W79658   5.924  10.869  27.704  0.0718 -0.0569  0.0226
36606W        W79659  10.160   2.712  19.496  0.0150  0.2764  0.0982
36607W        W79660  20.320  29.058   5.764 -0.0593 -0.0726  0.0058
36608W        W79661   7.128  28.076  27.123 -0.1031  0.1087 -0.0054
36609W        W79662  10.181  11.581   4.699  0.1571  0.1954  0.1844
36610W        W79663  17.365  13.240  28.407  0.1209  0.0811 -0.1056
36611W        W79664   9.131  33.938   9.663 -0.0464  0.6320  0.1387
36612W        W79665  15.860  34.337  15.208 -0.3218 -0.0540 -0.0676
36613W        W79666  14.945   6.085  26.462  0.3727  0.1186  0.2475
36614W        W79667   2.251  28.760   0.178  0.1655 -0.1806 -0.3098
36615W        W79668  24.309  30.056  19.900  0.0502 -0.0876 -0.2215
36616W        W79669  12.216  24.296  24.105 -0.1993  0.2156  0.1607
36617W        W79670  19.907   2.648  28.073 -0.1126  0.0839  0.0860
36618W        W79671   2.708  11.320  25.690 -0.0658 -0.0344 -0.0576
36619W        W79672  17.471   8.273   8.370 -0.1086  0.0260 -0.3640
36620W        W79673  25.621  23.548   2.712 -0.0090  0.0863 -0.0125
36621W        W79674  25.427  17.697  21.477 -0.3348 -0.1264  0.1299
36622W        W79675  11.009   6.490  24.931  0.0635  0.0301 -0.1488
36623W        W79676  26.614   1.263  26.260 -0.3395 -0.1100  0.0318
36624W        W79677   1.840  33.929  26.286  0.4167  0.0838  0.1840
36625W        W79678  21.092  10.723  24.279  0.1420  0.1959  0.0706
36626W        W79679  15.614  24.085  16.276 -0.0727 -0.0424  0.2891
36627W        W79680   3.507  34.326   5.555  0.1481  0.2304 -0.0513
36628W        W79681   2.629  29.983  18.036  0.0076  0.0815 -0.1627
36629W        W79682   6.608  19.400  23.365 -0.0580 -0.0862 -0.0120
36630W        W79683   1.378   1.538  25.240 -0.1982  0.0536 -0.0898
36631W        W79684   6.137   1.998   5.851 -0.0801 -0.0264  0.0643
36632W        W79685   7.606  25.874  14.678 -0.0831  0.2158 -0.1579
36633W        W79686  14.367  21.041  18.395 -0.1719 -0.2037 -0.1481
36634W        W79687   2.983  32.155  26.159  0.0464 -0.0059 -0.2020
36635W        W79688   8.089  30.808   1.030  0.1029 -0.0989  0.0875
36636W        W79689  11.848  33.901  18.975 -0.0996 -0.2735  0.1317
36637W        W79690  31.784  11.369   7.981  0.0762  0.1997 -0.1430
36638W        W79691  34.159  33.071  23.277  0.0500 -0.0211 -0.0771
36639W        W79692  14.910   4.460  27.299 -0.0133 -0.1636 -0.0732
36640W        W79693   9.621  23.166   9.177  0.1213  0.2782  0.1257
36641W        W79694  33.005  33.589  14.298  0.2937  0.1507  0.1411
36642W        W79695   6.332   1.707  21.610  0.1294 -0.1419 -0.3528
36643W        W79696  15.623   3.591  17.087 -0.3385  0.0711 -0.1280
36644W        W79697  14.000   1.592  16.227 -0.0444 -0.0326  0.0348
36645W        W79698   8.605  23.540   0.644  0.3106  0.1212 -0.1183
36646W        W79699   0.947  29.699  21.062  0.3550  0.2677 -0.0371
36647W        W79700  33.227  17.701   1.493 -0.2922  0.0754 -0.0228
36648W        W79701   2.592   6.244  27.656  0.1033 -0.0802 -0.2472
36649W        W79702   4.877  11.242  23.017  0.1052  0.2939  0.2956
36650W        W79703   2.487  13.472  18.019  0.2417  0.0539 -0.0724
36651W        W79704  28.633  31.920  19.024  0.0009 -0.0855  0.2416
36652W        W79705  17.726   4.529  18.538 -0.0351 -0.0492  0.0679
36653W        W79706  16.580  30.589  20.621  0.4525  0.0010  0.0646
36654W        W79707  14.748  32.378   6.189  0.1061  0.1103  0.3221
36655W        W79708  16.318   1.239  22.240  0.0511 -0.0122 -0.0512
36656W        W79709  13.102  30.794  23.329  0.1596 -0.3247 -0.0064
36657W        W79710   8.662   3.900  27.696  0.0528  0.0465  0.2787
36658W        W79711   6.072  25.852  26.174  0.2691 -0.4916 -0.0759
36659W        W79712  26.842   4.453  22.990 -0.0349 -0.0625  0.2477
36660W        W79713  21.316  19.585  19.077 -0.1999  0.1642 -0.2551
36661W        W79714  18.106  29.172  28.436 -0.0137 -0.0763  0.0422
36662W        W79715   9.180  30.152  17.646  0.0646 -0.2403  0.0300
36663W        W79716  12.618  29.913  14.312 -0.3851 -0.0668 -0.0899
36664W        W79717   8.742  26.141  14.757 -0.1344  0.3363 -0.1046
36665W        W79718  10.595   6.755  27.038 -0.1074  0.2324 -0.0213
36666W        W79719   9.976   7.203   2.689  0.2389  0.1659  0.0151
36667W        W79720   3.664   0.697  16.106 -0.0735  0.1172  0.2233
36668W        W79721   2.222  33.978  21.646  0.2370  0.0661 -0.0745
36669W        W79722   1.287   7.909  14.949  0.3689 -0.0016 -0.2300
36670W        W79723  19.254  21.515  27.828  0.2521 -0.2873  0.1115
36671W        W79724  17.749   2.447   0.338 -0.0409 -0.1384 -0.0565
36672W        W79725  28.876  11.149   6.718 -0.1013 -0.0191  0.2580
36673W        W79726   9.038   0.983   3.368  0.3289 -0.0648  0.0224
36674W        W79727  23.382  10.914   3.325  0.1881 -0.1946  0.2343
36675W        W79728  11.817   6.722   1.702 -0.1888 -0.2007  0.1431
36676W        W79729  14.903  30.823  16.548  0.3737  0.1703 -0.0696
36677W        W79730  34.511   8.770   8.835 -0.1504  0.1207 -0.0236
36678W        W79731   5.883  11.549  24.808  0.0423 -0.1246 -0.0338
36679W        W79732   0.649  15.403  29.117 -0.0463 -0.2809  0.2848
36680W        W79733  13.331   0.380   0.274 -0.0658  0.0136 -0.0561
36681W        W79734   2.035  26.181   6.788  0.1741  0.0932  0.0716
36682W        W79735   9.576   3.195  17.130 -0.2796 -0.1484  0.0041
36683W        W79736   8.134  31.770  20.735 -0.0736  0.0717 -0.4367
36684W        W79737   5.810  23.800   8.913 -0.2663 -0.0207 -0.2536
36685W        W79738   4.305   7.106   1.817 -0.2777  0.1820  0.2287
36686W        W79739  32.693  10.869  19.519 -0.0645  0.0134  0.0278
36687W        W79740  17.963   7.812  15.640  0.1384 -0.4798 -0.2181
36688W        W79741  17.192  31.094  17.768 -0.2734 -0.3628  0.2156
36689W        W79742  12.915  14.813  27.667  0.3212 -0.1826  0.0895
36690W        W79743   2.766  15.162  14.483 -0.0589  0.2103 -0.0845
36691W        W79744  15.822   2.012  10.431 -0.1471  0.1629  0.0089
36692W        W79745  25.909   5.408  25.614 -0.2288  0.0847  0.0833
36693W        W79746   1.829  28.425   6.567  0.0746 -0.3283  0.1065
36694W        W79747  15.257  34.045  17.859 -0.1491  0.2040  0.1035
36695W        W79748  20.360  32.758  15.911  0.0008 -0.2534  0.2612
36696W        W79749   4.492  27.264  23.799  0.1465 -0.1294 -0.0291
36697W        W79750  11.403  14.767  27.324 -0.0972 -0.0144  0.0692
36698W        W79751  34.440  30.600   0.355  0.2561 -0.1653  0.1120
36699W        W79752  16.254   2.298  15.633 -0.3430  0.2473 -0.2792
36700W        W79753  12.954  27.350  21.453  0.2716 -0.1632  0.0121
36701W        W79754  16.035   4.860  22.900  0.1581 -0.1352  0.1134
36702W        W79755  29.428  28.174   4.739  0.0373 -0.0923 -0.0033
36703W        W79756  12.143   0.175   1.769  0.1919  0.1315 -0.0849
36704W        W79757  12.565  26.922  18.976 -0.0242  0.1171 -0.0330
36705W        W79758  16.219   7.152   3.978 -0.1022 -0.2600  0.1165
36706W        W79759   9.870  34.407  16.814 -0.2854  0.0152  0.1619
36707W        W79760   8.051   7.753   3.423 -0.1803 -0.2668 -0.2055
36708W        W79761  10.573   1.442   2.353  0.2221  0.2004 -0.2922
36709W        W79762  16.351  23.633   9.464  0.1006 -0.0388 -0.2580
36710W        W79763  34.057  15.949  15.696 -0.0824  0.3024  0.1838
36711W        W79764  11.499  15.212   3.175 -0.0316  0.2523  0.1464
36712W        W79765   6.192   0.257   9.154  0.1425 -0.0052 -0.0766
36713W        W79766   8.092  14.099  25.265  0.1575  0.3580 -0.0336
36714W        W79767  10.900   7.582  28.401  0.0424  0.0417 -0.1518
36715W        W79768  23.381   2.070  28.422  0.1658  0.2008  0.2194
36716W        W79769   0.559   0.296  26.952 -0.2271 -0.0184 -0.0746
36717W        W79770   6.726  20.037  25.267 -0.0999 -0.1587 -0.0522
36718W        W79771   2.075  23.029  21.009  0.0052  0.0651  0.2138
36719W        W79772   6.876  26.872   0.176  0.1111  0.2067  0.0048
36720W        W79773  21.941   8.352  24.481  0.2904 -0.1685  0.2663
36721W        W79774   7.411   2.109  10.522  0.0396  0.4244 -0.4132
36722W        W79775  32.626   7.631   5.525  0.0493  0.1833 -0.1219
36723W        W79776   4.582  34.275  28.532  0.0268  0.1376 -0.0599
36724W        W79777   3.971  34.371   7.944  0.3207 -0.1423 -0.2985
36725W        W79778   0.647   6.462  22.242 -0.1042 -0.0017  0.1432
36726W        W79779   0.682   5.521  27.000 -0.0541 -0.1842 -0.0403
36727W        W79780  21.730  33.349   8.261 -0.0969 -0.2533 -0.0776
36728W        W79781  11.159  12.624  15.340 -0.0663 -0.1725 -0.1912
36729W        W79782   9.060   4.600  21.393  0.0071  0.0118  0.1116
36730W        W79783  30.306   1.068  13.501 -0.1171  0.0399  0.2131
36731W        W79784  22.011  20.925   1.938  0.1275  0.0169  0.1050
36732W        W79785  26.399   5.560   2.988  0.2675 -0.1372  0.2115
36733W        W79786  10.938  19.741  25.881 -0.2848 -0.2891  0.1215
36734W        W79787  13.284   2.290   5.242 -0.2712  0.0508  0.0815
36735W        W79788   4.343  17.843   7.405 -0.1559  0.1707 -0.0576
36736W        W79789  10.132  32.663   0.575  0.1432  0.0436  0.1709
36737W        W79790  15.042  11.657   3.796 -0.0538 -0.1605  0.0091
36738W        W79791  18.179   0.763  28.690 -0.1782  0.1400  0.0756
36739W        W79792  12.624   9.305   3.893 -0.0974 -0.2692 -0.2221
36740W        W79793  17.046   1.298  16.806 -0.0885  0.1936  0.0293
36741W        W79794  13.428   1.247  25.925  0.2046 -0.0424  0.1552
36742W        W79795   5.035   4.141  15.308  0.1449  0.0324  0.3146
36743W        W79796  31.433  13.616   3.540  0.0865 -0.3277  0.0540
36744W        W79797  25.078   8.431  27.054  0.0117 -0.3508  0.1852
36745W        W79798  31.435  20.937  20.312  0.4511  0.0147 -0.0399
36746W        W79799   0.213  13.395  21.105 -0.0215  0.1672  0.0940
36747W        W79800   4.239  14.851  24.197  0.3314 -0.0628 -0.2508
36748W        W79801  12.504   5.189  21.991  0.3118  0.2924 -0.0219
36749W        W79802   7.289   0.803  27.440 -0.3764 -0.0707 -0.4725
36750W        W79803  12.276   3.849  18.229 -0.1084 -0.1082 -0.1244
36751W        W79804   5.453  34.050  29.143 -0.1158  0.0857  0.0928
36752W        W79805  23.841  30.793  22.550  0.2048  0.0746  0.1919
36753W        W79806   5.665  10.683   2.287 -0.0409 -0.1161  0.0587
36754W        W79807  34.210   8.494  20.546 -0.1271  0.2184  0.1284
36755W        W79808   2.005   7.311   0.069 -0.2268 -0.0229 -0.0249
36756W        W79809  11.769  10.564  27.428  0.0960  0.0081 -0.2041
36757W        W79810  13.992  19.532  19.092 -0.0018  0.0552 -0.3369
36758W        W79811   5.328  33.206  18.521  0.1562 -0.3548 -0.4134
36759W        W79812  32.891   3.259  17.340 -0.0408 -0.0796 -0.0179
36760W        W79813   9.060   2.137  27.029  0.0370 -0.2827  0.2179
36761W        W79814   1.579   2.651   8.234 -0.1438 -0.0471  0.1855
36762W        W79815   9.421   8.311  16.099 -0.2333  0.2951 -0.0903
36763W        W79816   7.338   3.693  24.301 -0.1839 -0.0465 -0.2353
36764W        W79817  13.151  22.252  27.414 -0.0447 -0.0040 -0.0407
36765W        W79818  13.367  28.448  28.936  0.1388  0.1002 -0.1010
36766W        W79819  11.423  20.239  18.897  0.0258 -0.2718 -0.3220
36767W        W79820   7.470  11.444  24.507  0.0389 -0.4211 -0.1235
36768W        W79821  13.787   7.725   4.731 -0.1373  0.2500 -0.1558
36769W        W79822  10.478   7.911  16.156  0.0440  0.1625  0.1897
36770W        W79823   5.181  23.583  16.923  0.3223 -0.0813  0.0200
36771W        W79824  17.212  28.782  19.083 -0.4572  0.0741  0.0093
36772W        W79825  14.048  23.730   1.267 -0.0192  0.0178  0.0407
36773W        W79826   4.884   9.715   0.756  0.1162  0.0325 -0.4900
36774W        W79827  34.500  13.950  15.682  0.0482  0.3587  0.5409
36775W        W79828  28.117  18.693   3.144 -0.1640  0.1405 -0.0012
36776W        W79829   2.684  20.453  23.946  0.0656 -0.1074 -0.2271
36777W        W79830  20.995  10.137  21.695 -0.1041  0.1044  0.0470
36778W        W79831  21.222  30.219   5.911  0.2245 -0.0839 -0.0609
36779W        W79832   8.516  24.749  25.287 -0.0393 -0.0478 -0.2281
36780W        W79833  17.609  12.893  24.710  0.0395 -0.1100  0.3412
36781W        W79834  15.105   5.479  14.365 -0.1240 -0.2017  0.2042
36782W        W79835  14.871   6.475  29.106  0.0433 -0.0001 -0.1388
36783W        W79836  19.386   5.459  20.703  0.1120 -0.0693 -0.0787
36784W        W79837  21.450   5.030   6.837 -0.2559 -0.1561 -0.2076
36785W        W79838  13.651  16.684   2.861  0.0132 -0.0541 -0.1033
36786W        W79839   0.713   9.875   6.178 -0.1203 -0.2434  0.1547
36787W        W79840   8.410  34.101  26.270  0.1241 -0.2303  0.0816
36788W        W79841  17.892  10.250  22.264 -0.2836  0.2265  0.2641
36789W        W79842   5.412  18.385  25.136  0.1056  0.1237 -0.6274
36790W        W79843   7.088  22.339   5.785 -0.2420  0.0853 -0.0276
36791W        W79844  34.601   2.584  18.675 -0.0133  0.2665  0.0961
36792W        W79845  20.839  31.898   5.549 -0.3935 -0.0891  0.3389
36793W        W79846   4.044  24.087  22.991  0.1641 -0.0707  0.0694
36794W        W79847  29.629   0.007  17.288  0.0001 -0.1745  0.1662
36795W        W79848  23.388  33.619  18.185 -0.1668  0.1048 -0.2108
36796W        W79849  16.656  10.257  19.977 -0.1685 -0.1730 -0.2668
36797W        W79850  13.525   3.983   0.302  0.2460  0.2839  0.2199
36798W        W79851  29.370  10.026  10.418 -0.0789  0.0164  0.3175
36799W        W79852   4.513  18.408  18.745  0.0674 -0.1117  0.2232
36800W        W79853   9.772  27.775   2.731 -0.2260  0.1604  0.0614
36801W        W79854   5.704  28.059  20.856  0.0233  0.1599  0.3518
36802W        W79855  16.549  31.273  27.237  0.1303 -0.3197 -0.0705
36803W        W79856  17.450   1.882  19.853  0.0173  0.3075 -0.3745
36804W        W79857  22.624   9.733  23.749  0.2289 -0.0700 -0.2763
36805W        W79858   3.114   0.825  27.269 -0.1759 -0.0451 -0.1004
36806W        W79859   8.361  10.745  19.068 -0.0597 -0.4866  0.1037
36807W        W79860  18.876  30.833  26.908  0.1127 -0.2779 -0.2062
36808W        W79861  33.070  21.814  20.670  0.2400  0.0028  0.0430
36809W        W79862   5.912  14.556   0.309 -0.2393  0.0612  0.3780
36810W        W79863   3.399  17.112  14.814 -0.0994  0.1069 -0.1379
36811W        W79864  10.445   8.602  24.794 -0.2655  0.3746  0.2407
36812W        W79865  15.046  33.927   2.397  0.1274  0.0520  0.0126
36813W        W79866  11.963  31.852  23.358  0.3267 -0.0354  0.0244
36814W        W79867   0.018   1.092  16.097  0.1704  0.2173 -0.4072
36815W        W79868  10.349  33.132  23.596 -0.1743 -0.0766  0.2667
36816W        W79869   6.132   2.316  25.494 -0.0425 -0.0120  0.0640
36817W        W79870  11.298  11.829  23.267 -0.1239  0.1025 -0.3640
36818W        W79871  30.323  22.066   2.708  0.1467 -0.1881  0.2435
36819W        W79872  30.264   2.041   0.017  0.0376 -0.3411 -0.2510
36820W        W79873   7.305  29.945  22.441  0.0013 -0.0384  0.1407
36821W        W79874   9.964  28.673  18.690  0.1268  0.0120  0.1505
36822W        W79875  17.782   0.538   4.854 -0.1801 -0.2568 -0.1485
36823W        W79876   4.367  33.612  26.095  0.2435  0.3133  0.1698
36824W        W79877  10.221  20.865   1.042 -0.0886  0.0099  0.1530
36825W        W79878  29.965  29.223   0.958 -0.0843  0.0122  0.2707
36826W        W79879   6.853  34.190  20.574 -0.0924  0.2578 -0.0125
36827W        W79880  14.605   7.948  24.290  0.1738  0.1109  0.0257
36828W        W79881  15.776  11.655   5.407 -0.2485 -0.0791  0.0985
36829W        W79882   7.487   6.093   5.825  0.4366  0.1839  0.0131
36830W        W79883   9.277   9.631   2.594  0.1412 -0.0033 -0.3661
36831W        W79884   2.148   3.626  18.585  0.0526  0.2171 -0.0049
36832W        W79885   2.657  14.270  19.405  0.0775 -0.1487 -0.1741
36833W        W79886  22.157  29.113   5.778  0.0147  0.2935 -0.0426
36834W        W79887  19.014  31.241  20.760 -0.2124  0.2596 -0.2207
36835W        W79888   7.671  27.165  25.150  0.0763  0.3360 -0.1158
36836W        W79889   8.841  25.496  18.079 -0.0071  0.0758 -0.0174
36837W        W79890  28.154   1.664   0.106  0.1557  0.0602 -0.2594
36838W        W79891   4.191   1.137  15.686  0.2467 -0.1186 -0.0857
36839W        W79892   9.068  11.073  18.421 -0.1200 -0.3327  0.0865
36840W        W79893  22.072  31.970   3.051 -0.0100  0.0296 -0.1036
36841W        W79894   3.426  20.853  19.457 -0.1327 -0.1184 -0.2296
36842W        W79895   6.165  19.361  14.446  0.3229 -0.2260 -0.1350
36843W        W79896   9.222   2.837   0.575 -0.0845 -0.2487 -0.2759
36844W        W79897   1.452  17.934  16.211  0.0180 -0.1758 -0.0403
36845W        W79898  31.544  25.580  22.861  0.3260  0.0056  0.1891
36846W        W79899  23.163   7.561  20.673 -0.0929 -0.2774 -0.1088
36847W        W79900   8.394   3.841   0.458  0.1775 -0.4158  0.2846
36848W        W79901   9.857  19.322   1.077 -0.3921  0.1214  0.1577
36849W        W79902  27.520   2.348   0.851  0.3090  0.0484 -0.1344
36850W        W79903   9.781   4.594  16.053 -0.0386 -0.1715 -0.2628
36851W        W79904   7.411  16.460  22.788  0.0428  0.2392  0.1101
36852W        W79905  12.506   1.786   2.949 -0.1031  0.0242  0.4600
36853W        W79906   9.769   1.724   4.230 -0.2064  0.2281 -0.3446
36854W        W79907  10.421  28.136  18.381 -0.2435  0.2494  0.2943
36855W        W79908   4.475   5.116  28.218 -0.0552 -0.1208  0.1057
36856W        W79909   5.478  17.254   8.489 -0.0669 -0.0804  0.0988
36857W        W79910  10.061   2.396  25.149  0.1332  0.0852 -0.0441
36858W        W79911   6.061  26.542  27.400  0.1810 -0.0589  0.1355
36859W        W79912  32.076   3.645  21.517 -0.4179 -0.0336 -0.1918
36860W        W79913  15.868   8.421   1.541 -0.2923 -0.0191 -0.0921
36861W        W79914  26.175   8.195   7.072 -0.0254 -0.1570 -0.2790
36862W        W79915  14.022  18.064   6.429 -0.1491 -0.0572 -0.0418
36863W        W79916  21.804   9.153  15.093 -0.0886  0.0185  0.0430
36864W        W79917   7.998   5.808  25.300 -0.2852 -0.3144  0.0493
36865W        W79918  12.788  31.116  16.551  0.1312  0.1884  0.0264
36866W        W79919  11.179   3.914  26.085  0.0116 -0.2912  0.0088
36867W        W79920  14.754   2.658  25.109 -0.0010  0.0533 -0.0248
36868W        W79921  12.836  22.305  13.865  0.1674  0.1343 -0.0521
36869W        W79922  20.931   0.767  19.471 -0.0068 -0.1784 -0.2362
36870W        W79923  26.750  33.424   5.882 -0.1441 -0.0895 -0.0862
36871W        W79924  22.705   8.903   8.019  0.2699  0.1106  0.0414
36872W        W79925   0.771  10.995   8.646 -0.0045 -0.2002  0.1366
36873W        W79926   3.397   1.924   8.324  0.0557 -0.0096  0.0873
36874W        W79927  31.162  12.420  26.522 -0.3350  0.1016  0.1220
36875W        W79928   6.541  15.653  17.687 -0.2312 -0.2516  0.0099
36876W        W79929  33.904  11.066  23.669  0.1090  0.0416  0.0029
36877W        W79930  34.521  16.160  20.475 -0.1257  0.3075 -0.0192
36878W        W79931   3.416  28.447   9.114 -0.2107  0.0320 -0.2386
36879W        W79932  11.885   0.948  19.031 -0.2046 -0.2547  0.0662
36880W        W79933  10.609  17.218  21.616 -0.0841 -0.0146  0.1879
36881W        W79934   4.815  33.310  22.791  0.0216  0.0293  0.2066
36882W        W79935   3.838   4.926  18.661  0.1077 -0.0069 -0.1753
36883W        W79936  23.302   1.436  25.187 -0.1510  0.1186  0.0391
36884W        W79937   3.326  14.617  14.485 -0.1254 -0.1390  0.1751
36885W        W79938  10.176  34.209  23.885 -0.0057  0.1481  0.2533
36886W        W79939   1.622  28.713   2.136  0.2067  0.3534  0.0288
36887W        W79940   6.915  33.549   4.990  0.1453 -0.2524  0.1024
36888W        W79941   4.574  12.353   1.143 -0.1484 -0.2342  0.0982
36889W        W79942   7.088  10.493  28.734 -0.3292  0.0485  0.1580
36890W        W79943  22.465  30.690   4.240  0.2653 -0.4026 -0.1190
36891W        W79944  20.907  29.710  27.250  0.0872 -0.3366 -0.0903
36892W        W79945   1.808   7.408  14.368  0.3529  0.2268  0.2448
36893W        W79946  17.896  21.288  14.445 -0.2938 -0.1220  0.1720
36894W        W79947  15.034  34.551   9.039 -0.0879 -0.2232 -0.0297
36895W        W79948  26.999  14.817  20.646 -0.0171 -0.1000  0.2097
36896W        W79949  12.468  11.534  27.401  0.0202 -0.0747 -0.0492
36897W        W79950   9.958   0.542  25.204  0.0541  0.1722  0.4056
36898W        W79951  30.647  11.251  25.638  0.0959 -0.1358  0.3078
36899W        W79952  11.924  24.512  19.881 -0.3038  0.1506 -0.0222
36900W        W79953  23.392   4.814  20.970 -0.0958  0.3725 -0.1480
36901W        W79954   5.613   3.941   4.068  0.0220 -0.1572 -0.1723
36902W        W79955  20.640   2.747  20.938  0.1665  0.1472  0.1482
36903W        W79956  20.658   4.224  21.314  0.0724 -0.0400  0.0897
36904W        W79957  11.248   0.449  18.546 -0.4869  0.0918  0.0594
36905W        W79958  12.147  32.255  18.963  0.1518  0.4207 -0.2178
36906W        W79959   8.567  25.330  17.728  0.0857  0.0215  0.0660
36907W        W79960  18.508  21.999  22.195 -0.2644  0.1958 -0.0057
36908W        W79961   7.131   0.707   5.434  0.0278  0.0815  0.1921
36909W        W79962  21.005   0.865  24.519 -0.0219  0.0893  0.2262
36910W        W79963   9.621  23.477  22.342 -0.0083  0.2512  0.2247
36911W        W79964  13.041   1.991  19.734  0.2533 -0.3689 -0.1109
36912W        W79965  30.521  24.024  21.112 -0.2125  0.0347  0.1183
36913W        W79966  17.371  33.449  21.828  0.0400 -0.3867 -0.0357
36914W        W79967   6.945   4.483  13.976 -0.1462  0.0740  0.1171
36915W        W79968   5.625  32.871  16.840  0.0911 -0.1705 -0.1283
36916W        W79969  31.662   2.557  21.676 -0.0154 -0.1924  0.1423
36917W        W79970  31.987  31.695  17.333  0.0804  0.0980 -0.2107
36918W        W79971  10.127   0.983  23.609  0.0416 -0.0197  0.2883
36919W        W79972  34.196   1.671   4.467 -0.0377  0.0744  0.1147
36920W        W79973  20.213   7.392   2.807  0.1707 -0.0275  0.1141
36921W        W79974   3.106  32.262   3.464 -0.1417 -0.0181 -0.0678
36922W        W79975  13.669  26.231  27.476 -0.2047  0.0519  0.0568
36923W        W79976  19.730  33.420  28.431  0.0373 -0.0924 -0.0761
36924W        W79977  30.408  12.581  25.623  0.1479 -0.0545 -0.0254
36925W        W79978   6.924   8.394  18.664 -0.2722 -0.1711 -0.0604
36926W        W79979  16.401  24.728   6.132 -0.1383 -0.2550 -0.1685
36927W        W79980  15.854   2.663  22.545 -0.2919  0.0039  0.1738
36928W        W79981   2.338   2.951   3.349 -0.0516 -0.2491 -0.0655
36929W        W79982  31.005  22.873  25.648 -0.2812 -0.1992  0.3586
36930W        W79983  19.661   0.051  27.370 -0.2719 -0.1188  0.0595
36931W        W79984  10.716  13.824  23.825  0.0746  0.2673 -0.0209
36932W        W79985  14.896  27.497   3.021  0.1855 -0.0661 -0.1044
36933W        W79986   9.677  12.043  17.938  0.0314  0.0496  0.1384
36934W        W79987  32.343   8.332  23.501  0.0330 -0.2421  0.2153
36935W        W79988   2.278   4.018   2.825  0.0687  0.0088  0.2283
36936W        W79989  16.353  31.076  28.085 -0.3872 -0.0099 -0.1918
36937W        W79990   8.435   0.606   4.052  0.1091  0.2806 -0.3300
36938W        W79991  10.850  19.179  24.501  0.2196 -0.1875 -0.1680
36939W        W79992  24.125  15.211  22.152 -0.0848  0.0770 -0.1156
36940W        W79993  28.895  28.116   6.061 -0.4455 -0.2518 -0.1774
36941W        W79994   3.633  17.165  16.673 -0.0934  0.1097  0.2738
36942W        W79995   8.375   7.339  15.150 -0.2277 -0.0347  0.0683
36943W        W79996  20.584  19.880  22.942  0.1516  0.3791 -0.0716
36944W        W79997  16.540   9.181  27.926  0.3201 -0.2896 -0.1751
36945W        W79998  23.016   7.986   3.504 -0.1118 -0.0336  0.1971
36946W        W79999   1.441   1.969  21.151  0.0629  0.0497 -0.0305
36947W        W80000   5.338  14.212  15.670 -0.1752 -0.1638 -0.1143
36948W        W80001  15.988   3.011   9.523  0.1174 -0.0239 -0.0514
36949W        W80002  18.175  23.754  21.011  0.0173 -0.3664  0.2194
36950W        W80003   8.847  29.695  17.555 -0.1634  0.1017 -0.0878
36951W        W80004  19.919  13.209  17.685  0.1220 -0.2957  0.0437
36952W        W80005   8.451  32.158  15.665  0.2375  0.1107  0.2739
36953W        W80006  33.523  22.661  25.841  0.0810  0.1091 -0.0921
36954W        W80007  19.677  29.920   4.378 -0.2596  0.0786 -0.0270
36955W        W80008  15.468   4.340  27.358  0.1609  0.2254 -0.1282
36956W        W80009  34.665   9.762  19.722  0.1636 -0.3734 -0.5709
36957W        W80010   2.674  30.115   5.154 -0.0877 -0.2680  0.4151
36958W        W80011   7.591   3.327  15.088  0.4652  0.0583 -0.2298
36959W        W80012  13.751  10.417  20.607 -0.1308 -0.2548 -0.1215
36960W        W80013   9.792   0.627  16.841 -0.1222  0.1561  0.1807
36961W        W80014   5.934  28.503  23.393  0.1514  0.0070 -0.2487
36962W        W80015  24.929  27.152  17.213 -0.0804 -0.1408  0.0727
36963W        W80016  13.906   2.598  19.789 -0.1183  0.4197 -0.2418
36964W        W80017  10.062   1.876  28.376  0.0011 -0.0755  0.1439
36965W        W80018  23.136  11.689   5.136  0.0731  0.0507  0.1004
36966W        W80019  17.917  20.647  18.049  0.0882 -0.1152  0.0189
36967W        W80020  33.631   0.654  25.790 -0.0175  0.2420  0.0684
36968W        W80021  16.045  29.306  24.181 -0.0878  0.0167 -0.4041
36969W        W80022  32.229  29.940  29.131  0.3160 -0.2692  0.1536
36970W        W80023  24.994   8.218   0.245  0.2619 -0.0156  0.0980
36971W        W80024   5.046  20.746   6.426 -0.2109  0.3786  0.1481
36972W        W80025  19.545   4.377  16.437  0.1986  0.1555  0.1907
36973W        W80026  11.405  24.327  26.715  0.3438 -0.1873  0.0762
36974W        W80027  19.306   6.834  24.907 -0.3705 -0.0580  0.0581
36975W        W80028  19.773   7.739  17.366 -0.1931  0.0842  0.0196
36976W        W80029  13.477   5.343  10.395  0.2090  0.1612  0.2033
36977W        W80030  33.790  31.793  13.997  0.0540  0.0063  0.3170
36978W        W80031  10.856   1.090  25.224  0.1216 -0.1403 -0.2108
36979W        W80032  11.957  24.158  14.552 -0.0069 -0.0749 -0.3861
36980W        W80033  32.752  14.169  14.262 -0.0823 -0.1514 -0.0743
36981W        W80034   3.306  17.592   5.710 -0.5574 -0.0681 -0.0940
36982W        W80035  24.917   3.610  21.535 -0.1280 -0.1579  0.1402
36983W        W80036   1.502  34.247   1.155  0.0758  0.0912 -0.3788
36984W        W80037   7.639  15.328   7.974 -0.1753  0.2410  0.0353
36985W        W80038   2.046  18.935  22.401 -0.1682  0.3086  0.0307
36986W        W80039   9.770  12.642  28.624  0.0926  0.0680 -0.2681
36987W        W80040  14.855   0.558  18.278 -0.4070  0.2186  0.0207
36988W        W80041   4.186  13.598  22.796  0.2163 -0.0072 -0.1237
36989W        W80042   1.166   3.815  28.366  0.1754 -0.1160  0.1154
36990W        W80043   4.130   4.523  18.813  0.1104  0.0382  0.1835
36991W        W80044  10.749   6.599   9.609  0.4410  0.1582  0.0637
36992W        W80045  28.583  17.575  21.958 -0.2369  0.1717  0.0278
36993W        W80046   8.324  33.168   5.011  0.2244  0.2627  0.1984
36994W        W80047  18.216  19.439  10.607  0.2098 -0.3575  0.2212
36995W        W80048  30.698   4.509  25.214  0.0595  0.1467 -0.2488
36996W        W80049   2.718   0.379  26.996 -0.0427 -0.0440  0.0539
36997W        W80050  13.954  27.923   0.408 -0.0047 -0.1141  0.0927
36998W        W80051   5.907  26.957  14.305 -0.0855  0.2122  0.1247
36999W        W80052   3.108  14.373  21.857 -0.0853 -0.1904  0.1132
37000W        W80053  31.878   5.825  16.923  0.2399 -0.3579 -0.1395
37001W        W80054  16.215  29.525   1.430 -0.0446 -0.0099  0.3362
37002W        W80055  10.186   7.867   4.120  0.1252 -0.2818  0.1268
37003W        W80056  34.602  30.449  17.680 -0.3647 -0.0852 -0.1185
37004W        W80057   2.778  12.075  18.662 -0.0447  0.1063  0.0271
37005W        W80058   9.038  31.511   2.310  0.0519  0.1214 -0.0000
37006W        W80059   7.343  20.436  25.831 -0.0020 -0.0395 -0.2491
37007W        W80060   5.014   7.458  19.661  0.0556  0.1730  0.0002
37008W        W80061  16.316  20.191   6.648  0.2535  0.2481 -0.3120
37009W        W80062   5.451  25.050   4.690 -0.0513 -0.1876 -0.0717
37010W        W80063  25.353   0.741  15.214  0.0128 -0.1117 -0.3309
37011W        W80064  13.118  13.331  28.878 -0.0743  0.0519  0.1945
37012W        W80065  12.480  18.627  27.548  0.0179  0.0212 -0.0049
37013W        W80066  31.144  34.029  23.192 -0.0599 -0.4827 -0.3228
37014W        W80067  33.732  32.014  25.067 -0.0383  0.0118 -0.1083
37015W        W80068  17.227  31.635  25.117 -0.3227 -0.0278 -0.2240
37016W        W80069  10.271   3.894   2.920 -0.0768 -0.0579  0.0729
37017W        W80070   5.421  16.289   2.357 -0.1179 -0.0551 -0.0600
37018W        W80071  19.668  21.824   6.266  0.5544  0.4468  0.1319
37019W        W80072   3.991  12.088  22.420  0.3206 -0.0391 -0.1330
37020W        W80073  18.507  16.997   5.060 -0.0411  0.1136 -0.1797
37021W        W80074  27.846  23.557  25.928  0.1905  0.0130  0.1997
37022W        W80075  11.337  10.775  21.485  0.1659 -0.0020  0.2056
37023W        W80076  10.903  16.247  18.789  0.0949 -0.0777  0.1697
37024W        W80077   1.056   9.817  21.959 -0.1957 -0.0109  0.0219
37025W        W80078  24.727  15.247   5.771  0.3034 -0.2242 -0.2019
37026W        W80079  12.901  34.275  27.009  0.0613  0.0113  0.1422
37027W        W80080  34.243   7.476   1.063  0.0153 -0.1680 -0.0270
37028W        W80081   0.371  15.311   6.808 -0.3076 -0.2440  0.3109
37029W        W80082   5.257  23.172  17.274 -0.0068  0.1770 -0.3238
37030W        W80083  19.173  13.735   6.444 -0.5175 -0.0372  0.0766
37031W        W80084  23.199   7.833   1.641  0.0366 -0.0525  0.1481
37032W        W80085  22.248  10.568  23.901 -0.2636  0.1239 -0.3091
37033W        W80086  30.765  31.709  22.201  0.2454 -0.0879 -0.0724
37034W        W80087  16.127  10.576  28.150 -0.1972 -0.0179  0.1030
37035W        W80088   2.983   5.945  20.947 -0.0025  0.1971  0.2424
37036W        W80089  14.440  18.435  23.351 -0.0259  0.0446  0.0076
37037W        W80090   4.455   3.599  28.680 -0.2598 -0.0180 -0.1210
37038W        W80091  12.115  14.227  19.378 -0.0132  0.1282  0.2356
37039W        W80092  23.972   1.710   9.001 -0.3167  0.0735 -0.1826
37040W        W80093  32.310  22.028   1.864 -0.0237 -0.0115  0.1946
37041W        W80094  31.068   0.728   7.699  0.1589  0.0069 -0.0851
37042W        W80095  24.515  28.965  24.444  0.1300  0.2602 -0.0111
37043W        W80096   5.560   1.262  22.611 -0.4770  0.2358  0.1336
37044W        W80097  12.564  28.965   0.757  0.1196 -0.1624 -0.0424
37045W        W80098   0.328   4.282   8.629 -0.2525 -0.0166 -0.0098
37046W        W80099   7.562  16.442  18.505 -0.3835 -0.3459 -0.4781
37047W        W80100  17.660  10.627   6.150 -0.1892 -0.0081  0.1656
37048W        W80101  31.230  10.599  15.716  0.0659  0.0707 -0.0109
37049W        W80102   9.913  13.248  27.016 -0.3012  0.0725 -0.2221
37050W        W80103   8.362  12.132  24.104  0.2063 -0.0272  0.1879
37051W        W80104  14.330  30.491   7.180 -0.2765  0.1236  0.1594
37052W        W80105  19.660   6.459  22.322  0.3317 -0.1696 -0.0566
37053W        W80106  11.197  20.915  27.995 -0.0200 -0.4063 -0.0327
37054W        W80107  11.111   7.190   5.774 -0.1020  0.0692 -0.1788
37055W        W80108  26.350  33.799  19.711 -0.2654 -0.0449 -0.3250
37056W        W80109   6.505   8.463  16.329  0.2202  0.1140  0.1282
37057W        W80110  30.001  19.103   1.678 -0.0309  0.2124 -0.1381
37058W        W80111  21.498  26.082   3.394 -0.0949 -0.3271 -0.3668
37059W        W80112   1.100  25.717  23.919  0.0748 -0.1878  0.1414
37060W        W80113  12.367   4.621  15.752 -0.0298  0.1804  0.1238
37061W        W80114  22.469  30.947  26.987  0.1048 -0.0131 -0.0496
37062W        W80115  26.544  32.056   3.911 -0.1353  0.1756 -0.0900
37063W        W80116   6.934  15.574  14.340  0.0607  0.1165 -0.1086
37064W        W80117   9.220   0.555   9.643 -0.2732 -0.1779 -0.4307
37065W        W80118  13.437  32.493   5.487 -0.0230 -0.2606 -0.1909
37066W        W80119  15.286   2.346  20.966 -0.3830 -0.1564 -0.0990
37067W        W80120   7.238   9.369  19.190 -0.2377  0.1377 -0.2382
37068W        W80121  10.678   6.600  27.519 -0.1718  0.1820 -0.1884
37069W        W80122  23.848  23.670  15.377 -0.1120  0.1051  0.0160
37070W        W80123   4.811   0.647  22.527 -0.1376 -0.0181  0.0155
37071W        W80124  20.236   3.937  23.289  0.4796 -0.0396  0.0705
37072W        W80125   8.128  16.418  16.463  0.0945  0.2310 -0.1114
37073W        W80126  32.347  30.421   9.456  0.0369  0.0676 -0.0806
37074W        W80127   1.953   8.650  18.269 -0.1507  0.0612  0.0331
37075W        W80128  20.949   5.262   8.318 -0.1323 -0.0717  0.5031
37076W        W80129  13.458   9.240  24.972  0.0335 -0.0503 -0.3852
37077W        W80130  13.512  13.918  24.255 -0.0590  0.2309 -0.0445
37078W        W80131   8.933  31.445  21.354 -0.0965  0.0462 -0.1666
37079W        W80132  23.525  23.757   9.359  0.1821  0.0692 -0.2712
37080W        W80133  30.808  26.571   0.245  0.1881  0.1093 -0.0001
37081W        W80134  22.501   3.809   3.112  0.1408  0.0343 -0.0544
37082W        W80135   6.162   6.755  22.352  0.1033  0.1844  0.0978
37083W        W80136   6.582  28.527  25.233 -0.1013 -0.0234 -0.0341
37084W        W80137  12.412  15.844   7.609  0.1585 -0.3475  0.0737
37085W        W80138  25.920  33.410  14.517  0.0591 -0.1978 -0.0138
37086W        W80139  28.422   0.992  17.873  0.1186  0.0157 -0.4421
37087W        W80140  17.393   3.487   0.852 -0.1170  0.1250 -0.1249
37088W        W80141  17.718   9.243   0.740 -0.2828  0.4650 -0.0476
37089W        W80142   8.490  27.957  28.936 -0.0690  0.1961 -0.4438
37090W        W80143  19.488  12.151  19.907 -0.1057 -0.0800  0.1370
37091W        W80144  11.555  23.674  22.499 -0.2699  0.0629 -0.1172
37092W        W80145   0.927  31.481   1.607  0.2558  0.1908  0.2641
37093W        W80146   0.379  27.078   8.598  0.0648 -0.0901  0.1063
37094W        W80147  34.137  17.030  24.353  0.1215  0.0055  0.0920
37095W        W80148   1.863  10.553  24.605 -0.4030  0.0471 -0.2173
37096W        W80149   4.521  25.657  24.254  0.0390  0.1186  0.2658
37097W        W80150   0.417   2.918   2.867  0.3936  0.6141 -0.3033
37098W        W80151   7.545   0.855   6.261 -0.1235  0.2576  0.2316
37099W        W80152  23.155   3.129   0.885 -0.0680  0.0067 -0.4551
37100W        W80153   9.386   2.291   1.365  0.2790  0.1805  0.1538
37101W        W80154  15.532   4.114  15.122  0.0259 -0.1410  0.0466
37102W        W80155  13.223   3.968   7.554  0.1570  0.3816 -0.1114
37103W        W80156  19.227   1.118   8.235 -0.2689  0.2429 -0.0813
37104W        W80157  19.838  31.713   0.427  0.1084  0.2493  0.1086
37105W        W80158   9.761   3.410   0.395 -0.0173 -0.2094 -0.1337
37106W        W80159  12.695  27.078  28.902  0.2342  0.0975 -0.2211
37107W        W80160  13.160  14.887  16.066 -0.0348  0.2277  0.0764
37108W        W80161   1.546   5.082  10.118  0.1288  0.0168 -0.0288
37109W        W80162   5.009  21.350  14.430 -0.3237  0.0556 -0.0550
37110W        W80163   7.336  30.368  18.187  0.1685 -0.0222  0.0368
37111W        W80164  27.770  27.767  27.529 -0.3026  0.3977 -0.2792
37112W        W80165  22.560   5.322   7.425  0.0363  0.1178  0.0800
37113W        W80166   7.618  34.560   5.338  0.1168  0.1373 -0.3431
37114W        W80167  28.761   9.235  18.518  0.3534 -0.0973  0.3644
37115W        W80168  17.681  32.549   5.520  0.2986 -0.0081 -0.0360
37116W        W80169  27.664   2.821  23.807 -0.0613 -0.1541 -0.2504
37117W        W80170  18.545  33.916   8.847 -0.0425  0.1596 -0.1980
37118W        W80171   5.522   0.845   7.584  0.2417 -0.1970  0.3012
37119W        W80172   6.333   2.690  25.202  0.2050  0.0146  0.0102
37120W        W80173   4.814  24.539  17.528 -0.3240  0.2491 -0.2306
37121W        W80174   6.750  20.213  26.614 -0.1405  0.1794 -0.2840
37122W        W80175   8.867  13.894  26.578 -0.0903 -0.2615 -0.2617
37123W        W80176  33.391  20.929  26.499 -0.1698 -0.1487  0.1647
37124W        W80177  14.777   3.583   3.339 -0.0566 -0.0220  0.2878
37125W        W80178   7.970  32.722   9.018 -0.1978  0.0227 -0.0693
37126W        W80179   6.763   7.451  22.399  0.1577 -0.2457 -0.0154
37127W        W80180   7.890   4.585  17.714 -0.0785 -0.1961  0.1611
37128W        W80181   9.909  25.145  18.633 -0.1167  0.1130 -0.1502
37129W        W80182  12.754   3.658  15.772  0.3058  0.1683 -0.1971
37130W        W80183   1.817   9.053  21.859 -0.1376 -0.3902  0.1636
37131W        W80184  32.455  10.786  25.592  0.0692 -0.0891 -0.1077
37132W        W80185   4.362  33.912  24.707 -0.2122  0.2503 -0.1283
37133W        W80186   6.217   9.270   8.057  0.1715 -0.0144  0.1150
37134W        W80187  24.912   0.928  25.380 -0.0374  0.1914  0.0885
37135W        W80188   9.409  28.989  26.466 -0.1058 -0.0169  0.2711
37136W        W80189   5.719   3.839  28.805 -0.0846 -0.2085  0.1551
37137W        W80190   4.045  17.303   8.897  0.0731  0.0084  0.2246
37138W        W80191   2.897   0.140  15.915 -0.2942 -0.0836  0.0958
37139W        W80192  13.109  32.670   1.640  0.2529 -0.2199  0.1547
37140W        W80193  11.875   3.625  14.487 -0.0730 -0.0793 -0.0219
37141W        W80194  13.436  33.286   9.781 -0.1280  0.0001 -0.0058
37142W        W80195   3.326   9.268  24.081  0.0802  0.3864 -0.0026
37143W        W80196  14.102   8.484   1.086 -0.1387  0.0977 -0.1385
37144W        W80197  32.651   8.598  24.939 -0.0365  0.0304 -0.1678
37145W        W80198  18.491  31.176  21.554  0.2568  0.0657 -0.0450
37146W        W80199  18.648  17.440   5.678  0.1402  0.0666  0.1212
37147W        W80200   8.946   5.889  22.865 -0.0777  0.0871 -0.0771
37148W        W80201  14.010  29.990   0.886  0.0209 -0.0421  0.2001
37149W        W80202  10.239  23.476  16.618  0.0571 -0.1611 -0.2061
37150W        W80203   3.673   3.102  20.814 -0.0813  0.4538  0.1110
37151W        W80204  23.411  25.378  25.565  0.2659  0.0095 -0.3751
37152W        W80205  32.931   9.589   7.811 -0.1516  0.0167  0.3277
37153W        W80206  12.591  29.943   3.302 -0.3649 -0.1027 -0.1802
37154W        W80207  32.446   0.037  17.109  0.1440 -0.0797 -0.3514
37155W        W80208  25.358  10.610   1.781 -0.0748 -0.0077 -0.1597
37156W        W80209  33.073  25.256  21.564 -0.2090 -0.0988  0.1530
37157W        W80210  13.163  24.286  22.640  0.0168 -0.0760  0.1550
37158W        W80211  16.911  33.125  25.547  0.3483  0.0038  0.1319
37159W        W80212  24.500   1.120  23.291 -0.1411 -0.1437  0.1576
37160W        W80213  28.324   4.850  24.416  0.1453  0.0672 -0.1350
37161W        W80214  15.652  19.739   6.188  0.1288 -0.0970  0.2220
37162W        W80215  22.487   0.250  27.624  0.0662  0.1866  0.0889
37163W        W80216  10.085  33.615  25.395 -0.0332 -0.0588 -0.0372
37164W        W80217  13.073   0.668  20.809  0.0081  0.0404 -0.0220
37165W        W80218  26.421   0.224  20.485  0.0621  0.1622 -0.1536
37166W        W80219  13.037   1.181   5.860  0.0949  0.0555 -0.2160
37167W        W80220   9.541  30.897   6.446 -0.2516  0.1314 -0.5694
37168W        W80221  11.563   3.460   2.577 -0.3194 -0.1528  0.0626
37169W        W80222  17.848  31.441  21.273  0.0768  0.1122 -0.1290
37170W        W80223  10.169   5.806   0.206  0.0754  0.2087  0.0994
37171W        W80224   9.108   1.358  16.765  0.2369 -0.0298  0.0797
37172W        W80225  18.819   5.223  28.260 -0.0523  0.0330 -0.2165
37173W        W80226   6.027   3.154  14.836  0.1629  0.0169 -0.3034
37174W        W80227   9.664  19.697   0.092  0.0956 -0.3936  0.2318
37175W        W80228  22.511   8.375  26.731  0.0226 -0.3636 -0.1364
37176W        W80229  13.708  27.656  28.393  0.1872  0.1310 -0.2834
37177W        W80230  30.177   3.168   5.978  0.2017 -0.0064  0.1686
37178W        W80231  18.473  12.704  20.463 -0.3221 -0.1023 -0.2287
37179W        W80232   2.143   0.839   4.327 -0.5381 -0.0559  0.1518
37180W        W80233  19.334  13.560  29.159 -0.3431 -0.0139  0.1519
37181W        W80234  10.586  32.513  25.216 -0.1440 -0.3700  0.0837
37182W        W80235   6.824  27.498  16.680 -0.0763 -0.0512 -0.0640
37183W        W80236   8.421  26.506   1.904 -0.0377 -0.5093 -0.2828
37184W        W80237   4.058  29.721   7.397 -0.1525 -0.0344  0.0762
37185W        W80238  10.454  21.511  21.691  0.1153  0.0388  0.2150
37186W        W80239  17.802  26.393   2.262 -0.3168  0.0988 -0.1189
37187W        W80240  12.887  29.354  28.303  0.0984 -0.2503  0.0495
37188W        W80241  16.605  20.379  28.232  0.0786  0.0733 -0.1382
37189W        W80242  16.619   1.461  23.793  0.0337  0.2403  0.0527
37190W        W80243   9.855  11.721   0.626 -0.1024 -0.1262 -0.1246
37191W        W80244  28.216   2.138   3.817 -0.0367 -0.0904 -0.0349
37192W        W80245   9.624   2.623   0.904  0.3002  0.2915  0.3045
37193W        W80246   0.840  26.468   1.509  0.0257  0.2786 -0.2933
37194W        W80247   8.009   3.657  17.196  0.1575  0.0939 -0.1929
37195W        W80248   7.203  13.172   6.516  0.0916  0.1120  0.2527
37196W        W80249   5.839  30.095   2.525 -0.1665  0.0629  0.1476
37197W        W80250   3.763  16.271  27.610  0.0291  0.0795  0.0025
37198W        W80251  33.882  31.628  25.407 -0.1987  0.1973  0.0128
37199W        W80252   2.187   3.584   8.352 -0.3162  0.1167  0.1104
37200W        W80253   3.458  22.891   5.724 -0.1085 -0.0882 -0.3633
37201W        W80254  10.586  31.332  28.489  0.1961 -0.1721  0.3254
37202W        W80255  14.906  31.427  22.251  0.0631  0.0688  0.1247
37203W        W80256  18.539   6.373   9.446 -0.0102  0.1511 -0.2733
37204W        W80257  15.417  29.250  17.384  0.1014  0.1121 -0.0915
37205W        W80258   9.641  29.875  16.965  0.0436 -0.0424  0.1634
37206W        W80259  16.261  11.350  19.376  0.0984 -0.0547  0.2915
37207W        W80260  12.809  28.281  21.178  0.0063 -0.0289 -0.2193
37208W        W80261   7.073   1.112  14.509  0.2453 -0.0342  0.1110
37209W        W80262  25.223  25.219  17.450  0.0164 -0.1813  0.0529
37210W        W80263  19.197  29.789   0.519  0.2017  0.2421 -0.3250
37211W        W80264  34.550   4.563   0.116  0.0740 -0.1243 -0.1466
37212W        W80265  20.948   7.139   8.824  0.1672  0.0787  0.1532
37213W        W80266  18.035  32.629  10.902  0.0410  0.5923 -0.0212
37214W        W80267   3.588  22.501  22.827  0.5602  0.0707 -0.0856
37215W        W80268   9.055  22.462  26.695  0.1078 -0.0159  0.2086
37216W        W80269  10.098  32.150   8.518  0.0234  0.0467 -0.0359
37217W        W80270   9.166  32.779  20.923 -0.1829  0.2421  0.3898
37218W        W80271  11.180   5.280  14.934 -0.1436 -0.0018  0.1899
37219W        W80272  10.914   9.075  21.734 -0.1406  0.0946 -0.1465
37220W        W80273  12.948  29.470   6.239  0.1377 -0.0970 -0.1516
37221W        W80274   7.090  25.054  25.882  0.2512 -0.0912  0.1238
37222W        W80275  19.436   2.514   4.875 -0.2287  0.2332  0.2354
37223W        W80276  33.672  12.180  19.885 -0.0452  0.3080  0.2562
37224W        W80277  17.200  28.121  25.072  0.2592  0.3893 -0.0427
37225W        W80278   6.408   0.031   2.353  0.0139 -0.0040  0.1597
37226W        W80279   2.401  13.021   3.835  0.1009  0.2839 -0.1648
37227W        W80280  16.550  26.765   7.468 -0.1605 -0.1502 -0.1486
37228W        W80281  11.412  33.910  20.833 -0.0007 -0.2265 -0.0908
37229W        W80282  17.181  25.125  27.355  0.0863 -0.2858  0.0307
37230W        W80283  32.864   0.553  14.286 -0.0200  0.3321  0.2328
37231W        W80284  33.407   8.648  25.372 -0.0672 -0.2787  0.1980
37232W        W80285   7.084  15.303  19.146  0.0655  0.1147 -0.1212
37233W        W80286  27.588   0.570  13.668  0.0324  0.0866  0.0134
37234W        W80287  11.949  33.300   3.119  0.0753  0.2111  0.0592
37235W        W80288  20.039  30.284   9.411  0.3886 -0.1634 -0.1096
37236W        W80289  18.277  33.873   1.774 -0.0580 -0.4914  0.0444
37237W        W80290   2.453  32.401  20.368  0.1126  0.2225 -0.0389
37238W        W80291  25.314   5.986   6.029  0.1672  0.3055  0.0162
37239W        W80292  33.826   9.078  19.989 -0.0265  0.2221  0.1477
37240W        W80293   6.883   6.187   7.613  0.0138  0.1366 -0.2071
37241W        W80294  17.325   7.870   0.993  0.0673 -0.3528  0.2036
37242W        W80295  33.255  26.471   5.014  0.2795  0.3033  0.1258
37243W        W80296   2.354  18.039  17.352 -0.1326 -0.0688  0.2579
37244W        W80297  10.915  33.454   5.136 -0.0735  0.1020 -0.1938
37245W        W80298  34.092   0.608   0.070  0.0527  0.1872 -0.1561
37246W        W80299  28.398  15.773   0.375  0.0092  0.1060 -0.1267
37247W        W80300   5.492  31.505   6.661  0.1708  0.0589  0.0612
37248W        W80301  12.021  30.324   0.849  0.1063 -0.2728 -0.0211
37249W        W80302  18.163   9.133  23.136 -0.3846 -0.0594  0.1014
37250W        W80303  15.274   2.035   3.215 -0.0419  0.2034  0.1930
37251W        W80304  21.957  30.400  27.533 -0.1522 -0.1541 -0.1910
37252W        W80305  30.474   2.845   2.710  0.1194  0.0929 -0.0644
37253W        W80306  34.256  14.141  18.631  0.0668 -0.4438 -0.0944
37254W        W80307  34.665   2.796   6.351  0.1629 -0.5293  0.0535
37255W        W80308  32.312   7.363  22.251 -0.0725  0.0680 -0.2798
37256W        W80309  13.752  28.107  13.857 -0.0368 -0.1413 -0.0540
37257W        W80310   4.241   6.154  19.411 -0.0549  0.2472  0.0148
37258W        W80311  26.135   8.453   0.315  0.2839  0.1889  0.0261
37259W        W80312  20.052  27.620  27.489  0.0026 -0.0606  0.0559
37260W        W80313  15.233  30.210   7.586 -0.2942 -0.1441  0.0335
37261W        W80314  18.322  13.619   4.180 -0.3543 -0.0148 -0.0372
37262W        W80315  27.789   3.435  28.317  0.1233  0.1298  0.0855
37263W        W80316   6.639   1.155   2.145 -0.1065 -0.1561 -0.0187
37264W        W80317  28.330  30.630  19.121  0.0715 -0.0470  0.0004
37265W        W80318  33.371  33.225  18.691  0.1562  0.2175  0.2888
37266W        W80319   5.772  18.121  18.220  0.0294 -0.1146  0.4432
37267W        W80320   6.146  25.128   2.456  0.3845  0.0905 -0.1215
37268W        W80321  13.118   4.753  20.916 -0.1683 -0.1621 -0.2004
37269W        W80322   9.605   3.415  17.613  0.2233  0.0529 -0.2072
37270W        W80323   8.786   0.774   7.075 -0.0593 -0.1388  0.0882
37271W        W80324  10.287  33.690   0.985 -0.2626  0.0407 -0.1963
37272W        W80325   5.466   6.083  16.839  0.0499 -0.0088  0.1183
37273W        W80326  33.072   3.876   4.281  0.5787 -0.0664  0.1087
37274W        W80327  34.367  29.767  25.183  0.0025 -0.1324  0.3583
37275W        W80328   8.017  31.026  20.446 -0.1179 -0.1858  0.1404
37276W        W80329  17.476  32.287   6.949 -0.1965  0.1227  0.2688
37277W        W80330   2.753  21.126  28.327  0.0946  0.1437 -0.1596
37278W        W80331  28.359   4.046   4.741  0.0448 -0.1143 -0.0531
37279W        W80332   8.668  33.296   9.161  0.2620 -0.0016 -0.2311
37280W        W80333  34.149  25.874  13.865  0.0955  0.0915  0.1816
37281W        W80334   0.228  10.391  18.436  0.0360  0.1590  0.1403
37282W        W80335   9.986   0.646   7.066  0.0184 -0.0133 -0.0554
37283W        W80336  29.544  33.492   8.551  0.2047  0.0100 -0.0791
37284W        W80337  32.836  30.676   8.808 -0.0961 -0.1877 -0.1473
37285W        W80338  14.144  33.391  22.826  0.0111  0.1849 -0.0810
37286W        W80339  13.645   1.552  14.251 -0.0962 -0.0417 -0.3222
37287W        W80340  14.034  29.070  16.928  0.1417 -0.0859 -0.1019
37288W        W80341   1.255   5.169   0.791 -0.0467 -0.1118  0.0187
37289W        W80342  16.689   8.606   2.330 -0.1647  0.1169 -0.0753
37290W        W80343   9.367   7.901  16.638 -0.0558 -0.3119 -0.0970
37291W        W80344  17.935  32.359   7.389  0.0878 -0.0704 -0.1110
37292W        W80345  26.791   3.597  20.847  0.2017  0.1221  0.1238
37293W        W80346  10.185  27.324  27.494 -0.0046 -0.3923 -0.0077
37294W        W80347  13.354  25.514  15.991 -0.0851  0.0838 -0.3943
37295W        W80348  34.045   9.380   6.653  0.0527  0.0567 -0.0580
37296W        W80349   6.055  34.637  21.050  0.3547  0.0423  0.0050
37297W        W80350   4.504  32.296  14.337  0.0082 -0.0525 -0.3218
37298W        W80351  11.758  29.709   7.052 -0.2156  0.3755 -0.0493
37299W        W80352  19.274   5.568  18.665  0.0024  0.1209  0.1130
37300W        W80353   8.062  10.222   5.960 -0.3613 -0.2526 -0.1393
37301W        W80354  25.214   6.294  28.648  0.1358  0.0141 -0.4164
37302W        W80355   6.776  23.671  23.357 -0.1980  0.1051  0.0896
37303W        W80356  21.184   7.864  27.532 -0.2343  0.2837  0.3674
37304W        W80357   8.886  32.536   7.926 -0.0610  0.1211 -0.2401
37305W        W80358   8.384  13.942  22.346  0.0325  0.1177  0.1525
37306W        W80359   3.996  19.370  25.554  0.1450  0.0832  0.1915
37307W        W80360  14.479  16.327  25.801  0.2830 -0.0301 -0.2745
37308W        W80361  10.018  10.260   1.754  0.2280  0.3172 -0.0824
37309W        W80362   4.013  30.450  22.503 -0.1054 -0.1116  0.0499
37310W        W80363   2.867  33.095  25.236  0.0710  0.2219 -0.1789
37311W        W80364   8.209   9.803  24.852 -0.1673  0.0122  0.1920
37312W        W80365   1.905   7.924   7.101 -0.1962 -0.1049  0.2021
37313W        W80366   2.179  25.560  23.339  0.0489  0.4199 -0.2352
37314W        W80367   7.222   7.894   8.438  0.0455 -0.0073 -0.0146
37315W        W80368  17.261   0.620  21.074  0.0667 -0.0078  0.2834
37316W        W80369  28.575   7.317  21.739 -0.2279  0.3725 -0.1479
37317W        W80370  13.151  31.695   5.573 -0.0183 -0.3878  0.0190
37318W        W80371   1.080  12.917   1.300 -0.0728 -0.0881  0.0635
37319W        W80372   3.779   0.170  15.950  0.1687  0.0191 -0.0367
37320W        W80373   6.848  26.092  21.056 -0.2870 -0.1144 -0.3543
37321W        W80374   1.579   1.216   7.825  0.1553  0.1760  0.4155
37322W        W80375   1.107   3.331   7.546 -0.3487 -0.2265  0.2475
37323W        W80376   0.294  23.209   7.726  0.0515 -0.1734  0.0727
37324W        W80377   0.234   1.786  24.770  0.0540 -0.2817 -0.1302
37325W        W80378  21.756  10.619   4.337  0.1808 -0.1346  0.0062
37326W        W80379  19.549   1.567  18.288 -0.2083  0.1000 -0.2870
37327W        W80380   6.796   3.350   4.709 -0.1012  0.0075 -0.1286
37328W        W80381  10.425  29.668  18.872  0.3143  0.2059  0.1229
37329W        W80382  10.761  24.225  24.665 -0.1907  0.2082  0.4582
37330W        W80383   5.066   5.629  26.674 -0.1514  0.0567 -0.4246
37331W        W80384   8.506  20.674  28.055 -0.0153  0.0331  0.0855
37332W        W80385  28.997   5.614   3.413  0.1048  0.0775 -0.2655
37333W        W80386   0.670  30.275  26.482  0.0744  0.1508  0.0542
37334W        W80387   2.399   0.218  14.760 -0.2400  0.0734  0.0842
37335W        W80388  20.038  33.170  21.750  0.0962 -0.1182  0.1180
37336W        W80389  25.206  10.290   5.706 -0.1852  0.1090 -0.0029
37337W        W80390   9.840   6.501  10.125  0.1114  0.2967  0.0338
37338W        W80391  17.054  15.643   7.078 -0.1230 -0.0953 -0.0001
37339W        W80392  16.734   4.729  16.612 -0.0247 -0.2053  0.1156
37340W        W80393   4.763   4.680  23.829 -0.2152 -0.2447 -0.1489
37341W        W80394  15.317  33.985  26.127  0.1592  0.1388 -0.1241
37342W        W80395   4.682   1.176  22.749  0.0343 -0.0979  0.1273
37343W        W80396  19.399   6.366   3.712 -0.1805  0.2166 -0.0009
37344W        W80397   9.949   2.113   5.685  0.0901  0.0063  0.1818
37345W        W80398   4.036   9.821   4.916 -0.3781  0.2015  0.1412
37346W        W80399  14.251   1.606  26.054 -0.1051  0.1375 -0.0515
37347W        W80400  14.508  12.945  24.087  0.0896 -0.1796 -0.0419
37348W        W80401  24.452  32.921  29.080 -0.1805 -0.0523 -0.2633
37349W        W80402  30.472  31.103  22.871 -0.0296 -0.2934  0.1458
37350W        W80403   1.557   2.638   3.471 -0.4243 -0.1802  0.0589
37351W        W80404  16.926   7.951  25.761 -0.1730  0.2576  0.1290
37352W        W80405  20.280   0.690   4.382 -0.0296 -0.0954 -0.0313
37353W        W80406   4.723  13.601   3.620 -0.0191 -0.1697  0.0138
37354W        W80407   9.971  34.096  23.444  0.3153  0.0381 -0.1306
37355W        W80408   3.946  20.286  26.376 -0.0062 -0.1380  0.2854
37356W        W80409   2.793  14.145   0.814  0.0492 -0.1905 -0.0107
37357W        W80410   3.335  34.648   5.925  0.2519 -0.2837  0.0376
37358W        W80411   4.428  14.773   6.376 -0.0464  0.0725 -0.2073
37359W        W80412  18.919   0.196   7.870 -0.0076  0.3659 -0.2359
37360W        W80413  17.102  24.821  29.018  0.0765  0.0646  0.0050
37361W        W80414   3.558   6.675  17.644  0.0025  0.0265 -0.0769
37362W        W80415  14.217  32.745  28.749 -0.1088  0.3165  0.1225
37363W        W80416  23.510  16.476  16.609 -0.3609 -0.0483  0.1637
37364W        W80417   7.265  17.749  25.137  0.1444 -0.1119  0.1870
37365W        W80418  15.185   4.192  17.785 -0.2026  0.1826 -0.1007
37366W        W80419   0.653  29.991  21.980  0.3849 -0.0784 -0.1358
37367W        W80420   2.111   1.955   0.902  0.0393  0.1494 -0.3492
37368W        W80421  30.880  12.383   3.686  0.1209  0.0491 -0.3257
37369W        W80422  17.805   3.844   4.127  0.1069  0.0982  0.1346
37370W        W80423  27.764  26.136  24.969 -0.0595  0.3220 -0.1620
37371W        W80424   2.735  20.522   5.907  0.2020 -0.0919 -0.1098
37372W        W80425  13.416  28.370  25.025 -0.0824  0.0181  0.0637
37373W        W80426  30.428   0.741  20.261  0.2906  0.2375  0.1494
37374W        W80427  16.713   5.941  27.055 -0.0933  0.1371  0.1280
37375W        W80428   4.928  25.284  26.738  0.4114  0.4472 -0.0329
37376W        W80429  17.802  31.157  27.577  0.0857  0.3324 -0.3771
37377W        W80430  10.369   8.292   4.775 -0.0069  0.0456  0.0147
37378W        W80431   6.719  27.496  15.349 -0.0019 -0.2225  0.0869
37379W        W80432   1.624  31.046  22.122  0.2304 -0.1859  0.2189
37380W        W80433   1.622   6.283  27.168 -0.3091  0.1423  0.2879
37381W        W80434  13.904  27.183   1.178  0.1406  0.2503  0.3216
37382W        W80435   0.126  31.923  16.056 -0.0977  0.1004  0.2680
37383W        W80436  22.978  34.513  24.763  0.0743  0.0998 -0.0503
37384W        W80437  14.011   5.505  22.153  0.1449 -0.0508  0.0830
37385W        W80438  19.823  11.617   8.007 -0.2499 -0.1037 -0.1777
37386W        W80439  14.918   6.067  17.554 -0.0879  0.1751  0.0745
37387W        W80440   7.931  30.096   0.510  0.0474  0.2617 -0.1848
37388W        W80441   6.839   0.101   1.459 -0.3103  0.1946  0.1774
37389W        W80442  32.658  27.351  20.939  0.1463  0.2186  0.0943
37390W        W80443  10.363  10.787  27.262  0.0396  0.2454 -0.2363
37391W        W80444  30.002  12.567   0.491  0.0825 -0.2316  0.1415
37392W        W80445  11.087  19.030  16.091 -0.0466  0.0443  0.1572
37393W        W80446  18.727  32.167  23.568 -0.2105 -0.2748 -0.0160
37394W        W80447  13.770   4.339   8.282  0.0975  0.3360  0.4502
37395W        W80448  27.541   5.302  28.085  0.0973  0.1846 -0.0156
37396W        W80449   2.749  12.312  26.013  0.3551 -0.2156 -0.0316
37397W        W80450  11.016   8.231   7.116 -0.0345 -0.0847 -0.2930
37398W        W80451   6.878  25.840   5.537 -0.2815 -0.2419 -0.3322
37399W        W80452  27.892  31.866   5.703 -0.1175  0.1047 -0.3738
37400W        W80453  21.049  33.210  17.907  0.0461  0.1031 -0.0754
37401W        W80454  32.225  34.582   6.496  0.1023 -0.1312 -0.0479
37402W        W80455  23.285   8.945  26.284  0.3637 -0.4062  0.1114
37403W        W80456  10.493   3.537  18.596 -0.1433 -0.1581  0.1461
37404W        W80457  10.730   5.601  22.992  0.0531 -0.0455 -0.0086
37405W        W80458  19.150  29.606  23.853 -0.0221 -0.1985  0.0068
37406W        W80459   1.116  15.761  17.075  0.0765 -0.2429 -0.2352
37407W        W80460  12.051  27.447  25.870  0.1267  0.1895  0.1411
37408W        W80461  10.571  18.739  23.336  0.0487 -0.1272  0.2124
37409W        W80462  34.011  23.468  20.320 -0.0733  0.1968  0.0150
37410W        W80463   2.353  25.778   4.562  0.0961  0.0080 -0.1305
37411W        W80464   1.390   5.754  19.145  0.0876 -0.2190  0.3809
37412W        W80465  27.636  30.377   6.216  0.2857  0.3396  0.2181
37413W        W80466   3.114  24.780  28.027  0.0848  0.0818 -0.1842
37414W        W80467   9.372   3.835  21.808 -0.0865 -0.1113  0.0951
37415W        W80468  32.246  21.383   1.438 -0.2573 -0.1412 -0.4328
37416W        W80469  15.782  28.831   2.042 -0.2709  0.0017 -0.2872
37417W        W80470  27.468  33.394   0.636 -0.1812 -0.0427 -0.1566
37418W        W80471   4.494  25.030  25.533 -0.1013  0.3135 -0.0816
37419W        W80472  13.700   1.829  13.505  0.0749  0.0816 -0.0448
37420W        W80473  12.055  27.648   0.369  0.2037  0.0700 -0.0057
37421W        W80474  10.695  26.102  18.887 -0.2961 -0.2070 -0.3901
37422W        W80475  34.508  23.187   0.567 -0.2984 -0.2545  0.2513
37423W        W80476   9.467   5.497  27.004 -0.0790  0.2091 -0.1484
37424W        W80477  28.884  25.928  27.363  0.1739 -0.3248  0.4252
37425W        W80478   2.614   2.320   3.911 -0.0907  0.0655 -0.2633
37426W        W80479  12.572   2.552   4.955  0.0059  0.3067 -0.0749
37427W        W80480   1.327   3.951   2.537  0.2884 -0.1958  0.0660
37428W        W80481  25.947  32.916  21.838  0.0431 -0.0753  0.1676
37429W        W80482   2.864   8.793  25.741 -0.0344 -0.1794  0.3090
37430W        W80483  31.766  32.175   1.761 -0.1780  0.1064 -0.2008
37431W        W80484   2.970  23.507  22.033  0.2427  0.0189  0.0660
37432W        W80485  33.846  30.429  14.871  0.0033 -0.2506  0.1637
37433W        W80486   2.904  22.717  28.518  0.0039 -0.0234 -0.0289
37434W        W80487  15.084   7.291  23.864  0.0690 -0.0931 -0.3653
37435W        W80488  15.217   5.252  28.343  0.1907 -0.0496  0.1626
37436W        W80489   8.612   6.683  26.180 -0.1710  0.2157  0.1047
37437W        W80490   1.621  33.100  21.218 -0.0872  0.0163 -0.0650
37438W        W80491  20.670   3.737   1.805 -0.1616  0.0699 -0.0699
37439W        W80492  25.400   8.860  14.842  0.3098  0.0893  0.1880
37440W        W80493  17.742  18.920   9.148  0.2207 -0.2191 -0.1740
37441W        W80494  23.082   1.046  27.324 -0.1178 -0.2496 -0.3891
37442W        W80495  18.610   0.291  28.032 -0.0405 -0.0310 -0.0582
37443W        W80496   7.560  26.968   3.452 -0.1066  0.0681 -0.4421
37444W        W80497  19.554  26.630   1.795 -0.0170 -0.3622 -0.2450
37445W        W80498  17.550  26.135   0.136 -0.2038  0.0161  0.0372
37446W        W80499   9.876   2.333   7.678 -0.0603  0.0584  0.1012
37447W        W80500   7.835  29.057  28.906  0.2635  0.0158  0.1088
37448W        W80501  15.381  25.227   7.052  0.0455  0.2777 -0.3727
37449W        W80502   1.209   2.847   7.942 -0.3407  0.2322 -0.1583
37450W        W80503  20.657   8.594   5.367  0.3846  0.1735  0.2677
37451W        W80504  33.640  27.490  22.089 -0.1344  0.3298  0.0714
37452W        W80505  31.847  32.274  23.223  0.1449  0.3613  0.1539
37453W        W80506   1.149  34.583  14.893  0.2809  0.1389  0.1777
37454W        W80507   1.238  34.649  16.244 -0.3519  0.3177 -0.0370
37455W        W80508   1.811  17.615  21.018  0.0463 -0.2758 -0.1756
37456W        W80509  10.512   2.665   2.544 -0.3205  0.2074  0.0958
37457W        W80510  22.267   7.366  19.309 -0.0097  0.1836  0.0283
37458W        W80511  14.288   7.849  19.060 -0.0991 -0.0700 -0.0164
37459W        W80512  25.737   3.038  18.435  0.0730  0.2011 -0.1163
37460W        W80513   3.019  33.308  21.044 -0.0679  0.0182  0.0840
37461W        W80514  30.854  17.094  20.697  0.3932 -0.2094 -0.0376
37462W        W80515  17.606  26.460   0.732  0.1156 -0.0755  0.2029
37463W        W80516  20.780  27.100   9.955  0.1713 -0.0019  0.2566
37464W        W80517   8.627  33.458  20.993 -0.1072 -0.1791 -0.1645
37465W        W80518  17.966   8.338  17.821 -0.2916  0.2316  0.1522
37466W        W80519  34.408  33.724  18.404 -0.4181 -0.3255 -0.1777
37467W        W80520   9.756  27.050  21.991 -0.3445 -0.1334 -0.2946
37468W        W80521  34.388   9.990  14.626 -0.0946  0.0812  0.1021
37469W        W80522   0.344  22.887  19.979 -0.0999 -0.1672 -0.1934
37470W        W80523  15.463   1.827  15.474  0.2536 -0.2366  0.3850
37471W        W80524  32.169   5.113  15.304 -0.3014 -0.2924 -0.2133
37472W        W80525  27.441   2.585   4.888 -0.1472 -0.2625 -0.0106
37473W        W80526   7.261  32.364  14.054 -0.1703  0.0551  0.1191
37474W        W80527  25.290  25.045  21.432  0.2614 -0.0469  0.1893
37475W        W80528   3.575  14.772  14.858  0.1362  0.5257  0.1502
37476W        W80529  22.095  16.357  20.029  0.3452 -0.2263  0.1070
37477W        W80530  12.007  22.726  18.142 -0.2788 -0.0720  0.0159
37478W        W80531   5.458  21.073  14.562 -0.0931 -0.2631  0.0070
37479W        W80532  30.934   6.322  15.811  0.1157  0.3133  0.0843
37480W        W80533   4.076  33.707  14.770 -0.1311 -0.1065  0.0177
37481W        W80534   4.325  21.416  15.223  0.0345 -0.1310 -0.2065
37482W        W80535  11.028  31.554  14.967 -0.0724  0.2584  0.0451
37483W        W80536   8.963  22.032  19.107  0.1733  0.1379 -0.0181
37484W        W80537  13.094  33.209  20.438 -0.1312 -0.3027 -0.1667
37485W        W80538  33.992  12.372  14.626  0.1187 -0.0206 -0.0606
37486W        W80539  19.693  12.927  19.110 -0.1734 -0.2088 -0.0767
37487W        W80540   8.142  31.144  17.284 -0.2284  0.3068  0.2378
37488W        W80541  17.740  14.095  15.916  0.1600 -0.0781 -0.1125
37489W        W80542  14.158   4.045  18.905  0.2379  0.1438 -0.2199
37490W        W80543  21.467   1.077  22.292 -0.0029  0.0732 -0.0514
37491W        W80544   8.573  31.959  21.949 -0.2614  0.0653 -0.0036
37492W        W80545   9.583  24.856  17.697  0.0503 -0.2394 -0.2958
37493W        W80546  14.283  30.254   0.496 -0.0277  0.0079  0.1451
37494W        W80547  32.072   5.989   4.253  0.0678  0.1916  0.0062
37495W        W80548   9.965  33.243  18.356  0.2121 -0.5794 -0.2663
37496W        W80549  15.146   4.142  20.505  0.1002  0.3117  0.0797
37497W        W80550   7.809   4.444  20.634  0.1688  0.0175  0.0599
37498W        W80551  15.254  13.703  22.659 -0.0286 -0.0530  0.2914
37499W        W80552   5.991   4.317  28.287 -0.2117 -0.2625  0.2672
37500W        W80553   9.488  31.407  26.059 -0.0659  0.3397 -0.1229
37501W        W80554   8.789   9.599  24.061  0.2415 -0.0647 -0.1371
37502W        W80555  20.385  31.831  26.593  0.3483 -0.1470  0.2257
37503W        W80556  18.888   0.280  23.661 -0.1302  0.2146 -0.4298
37504W        W80557  26.910  21.834  13.976  0.1246  0.0529 -0.1005
37505W        W80558   7.608   5.869  22.507  0.0039 -0.0952  0.3030
37506W        W80559  20.275  33.512  21.354 -0.0496  0.0640  0.3218
37507W        W80560   9.339   0.916  25.254 -0.2296  0.2040  0.0351
37508W        W80561  30.791   3.531   3.080  0.0249  0.1506 -0.0864
37509W        W80562  14.852   3.751  17.858  0.1450 -0.0504 -0.2721
37510W        W80563  11.282   7.634  21.630 -0.2532 -0.0734  0.0979
37511W        W80564   0.255  32.858   1.690  0.3882 -0.1458  0.1163
37512W        W80565  15.480   6.294  26.304  0.1766  0.0234  0.0396
37513W        W80566   6.043  30.243  29.003  0.2408  0.1693 -0.2378
37514W        W80567  16.835  30.340  23.690 -0.1459 -0.2567 -0.1661
37515W        W80568  21.751  16.695  21.194 -0.2587  0.0184  0.2026
37516W        W80569  25.951  19.303  19.221  0.2744 -0.0599  0.2886
37517W        W80570  25.856   9.505  22.341 -0.1687 -0.0804  0.0689
37518W        W80571  12.294   3.847  19.000 -0.0900  0.2916  0.0008
37519W        W80572  30.056  19.419  26.207 -0.0671 -0.2676  0.1268
37520W        W80573   2.427   8.313  21.086 -0.0801  0.1792 -0.1294
37521W        W80574  10.925   6.337  15.847 -0.0733 -0.0351 -0.0342
37522W        W80575  20.201  18.700  14.439 -0.1142  0.3506 -0.1167
37523W        W80576   6.877   4.760  17.480 -0.2159 -0.1201  0.2950
37524W        W80577  12.226   2.720  17.506 -0.1627 -0.1176 -0.2215
37525W        W80578  17.861  34.672  18.163 -0.1312 -0.2516  0.2254
37526W        W80579  23.349   2.151  25.017 -0.2682  0.0629  0.0350
37527W        W80580  23.585   2.178  14.219  0.1261 -0.0206 -0.0009
37528W        W80581   6.329   9.599  21.558  0.0906 -0.2443 -0.1530
37529W        W80582   2.235   4.837   1.873 -0.2378  0.3938 -0.0369
37530W        W80583  33.599  25.212  28.025 -0.2899  0.1227  0.0143
37531W        W80584   4.548   0.383   7.341  0.0885  0.1345  0.0654
37532W        W80585  30.757   6.110   0.644 -0.0028 -0.3065 -0.1404
37533W        W80586  33.128  28.181  15.953  0.2720  0.3087  0.1392
37534W        W80587  15.967  25.008   2.819  0.0794  0.2143  0.3207
37535W        W80588  32.854   8.714   7.821 -0.1948  0.1747 -0.1416
37536W        W80589  21.014   1.287  19.644  0.0776 -0.4248  0.1818
37537W        W80590  26.535   8.533  14.206 -0.3771  0.0033 -0.1158
37538W        W80591  11.935  15.589  22.477 -0.1471  0.1136 -0.1253
37539W        W80592  10.291  20.989  23.034 -0.0548  0.0596 -0.1882
37540W        W80593  11.145  26.812  18.297  0.0444 -0.0876  0.2223
37541W        W80594  23.392   4.119  18.686 -0.2894 -0.2901  0.0038
37542W        W80595  20.637   3.257  23.923  0.2230 -0.1759 -0.2952
37543W        W80596   7.580  29.004  18.538  0.0092 -0.3020  0.0803
37544W        W80597   7.605  34.589  20.684 -0.1987 -0.0809  0.0074
37545W        W80598   0.414  34.213  23.278 -0.3097 -0.0316 -0.0325
37546W        W80599   6.581   5.676  22.908 -0.2745 -0.0529 -0.0773
37547W        W80600  16.511   5.290  21.214  0.1074  0.1465  0.0561
37548W        W80601   7.305   6.858  18.530  0.0981  0.0277 -0.1093
37549W        W80602  24.369   2.748   1.523 -0.3004 -0.0623 -0.4853
37550W        W80603   3.546   1.814  20.555  0.0222  0.1273  0.1517
37551W        W80604  32.807  20.556  18.132  0.0666 -0.1652  0.5250
37552W        W80605  22.104  30.660  18.807  0.1933 -0.1815  0.3428
37553W        W80606  32.374  11.639  19.738 -0.2374  0.0655 -0.0150
37554W        W80607   2.754  24.435  26.778  0.2597  0.0889  0.0519
37555W        W80608  11.042   7.756  15.267  0.0729  0.0555  0.1548
37556W        W80609  14.130   4.136  23.986  0.1779 -0.0319  0.0918
37557W        W80610   1.504  10.406  20.922  0.2313  0.1955  0.3676
37558W        W80611  11.131   1.439  24.832  0.0812 -0.1468 -0.1501
37559W        W80612  13.121  12.054  27.642  0.2317 -0.3000  0.3321
37560W        W80613   1.560  10.246  28.337  0.5018 -0.0080 -0.0491
37561W        W80614  11.990   2.218  18.477 -0.2053  0.1220  0.1938
37562W        W80615   3.859  23.887  28.609  0.0044 -0.4608 -0.4892
37563W        W80616  17.635   7.294  22.529 -0.1100  0.0291  0.1932
37564W        W80617  16.478  29.681  17.762  0.3817 -0.3688 -0.0519
37565W        W80618  10.088   0.116  20.072  0.0285  0.1076  0.1480
37566W        W80619  26.520   6.251  25.241 -0.0371  0.0865  0.2265
37567W        W80620   7.805   5.696  15.791 -0.0535  0.0272  0.2253
37568W        W80621  28.453   7.811  18.776  0.0032 -0.1576 -0.1328
37569W        W80622   9.484   4.118  24.924 -0.1266  0.1435 -0.0425
37570W        W80623  15.162  23.417  20.603  0.1848  0.0473  0.1148
37571W        W80624   1.221   2.007  15.798  0.1676 -0.1477  0.1475
37572W        W80625  21.512  13.916   3.060 -0.0793 -0.2578  0.1664
37573W        W80626   9.294   2.312  16.905  0.1263 -0.2625 -0.0960
37574W        W80627   1.706  34.330   7.804  0.0700 -0.0344  0.0211
37575W        W80628   3.856   5.057  15.372  0.4177 -0.1159 -0.1944
37576W        W80629  25.288  12.428  25.576 -0.3379 -0.2952  0.2006
37577W        W80630  12.748   1.947  15.873 -0.0610 -0.1757  0.1416
37578W        W80631  11.890   8.159   4.551 -0.1948 -0.1389 -0.0015
37579W        W80632  10.306  31.827   1.318  0.1025 -0.0105  0.2345
37580W        W80633   0.085   5.348  19.737 -0.2024  0.2171  0.0125
37581W        W80634  11.913  32.769  21.434  0.2701 -0.0060 -0.2303
37582W        W80635  21.047  10.623  17.606 -0.1517 -0.1697  0.3452
37583W        W80636   3.715  14.546  19.610  0.4704 -0.0311  0.1334
37584W        W80637   5.822  21.008  14.067  0.0265 -0.3213  0.1296
37585W        W80638  11.054   8.748  24.669  0.0288  0.1308 -0.0499
37586W        W80639  10.918   1.056  19.140  0.1474  0.1679  0.2347
37587W        W80640  26.613  28.660  23.594 -0.0030 -0.0594 -0.4251
37588W        W80641   6.183  22.395  18.833 -0.0365 -0.0180  0.0238
37589W        W80642  19.048  11.076  21.941  0.0371 -0.0780 -0.1276
37590W        W80643   9.529   3.381  14.060  0.1521 -0.0499  0.0687
37591W        W80644  30.939  13.538   0.289 -0.1829  0.2852 -0.2982
37592W        W80645  13.837   5.864   8.242 -0.0179  0.1576  0.0023
37593W        W80646   1.673  29.731  28.220 -0.0709  0.0507  0.0944
37594W        W80647   2.478  27.260  23.768  0.4123  0.0381 -0.0058
37595W        W80648  32.480   7.033   1.380 -0.0915 -0.1725 -0.0581
37596W        W80649   8.935  21.293  22.225  0.1250  0.0052  0.3491
37597W        W80650  21.529   4.948  24.227  0.1389  0.1327 -0.2403
37598W        W80651  10.634   0.587  21.936  0.0932 -0.2888  0.0298
37599W        W80652  14.377   9.455  16.347 -0.0434  0.0189 -0.0032
37600W        W80653   3.788   0.312   0.540 -0.0306  0.0665 -0.0194
37601W        W80654  10.424   7.622  15.245  0.1662 -0.3809 -0.2758
37602W        W80655  23.422  33.746  25.140  0.0573 -0.1686 -0.0851
37603W        W80656   7.689  21.233  14.890 -0.3316 -0.0911 -0.3868
37604W        W80657  30.431  11.243  27.606 -0.3332  0.0631 -0.1928
37605W        W80658  15.199  30.973   3.551  0.2487  0.3330 -0.2344
37606W        W80659  21.926   8.061   0.673 -0.2594  0.1266  0.0946
37607W        W80660  15.631  25.511  18.124 -0.0374  0.0781 -0.1096
37608W        W80661   7.247   8.163  18.994 -0.0872 -0.0208  0.1744
37609W        W80662  12.206   3.053  22.035  0.1370 -0.1184  0.0192
37610W        W80663  30.780   8.773  18.633 -0.0552  0.0934  0.0808
37611W        W80664  21.603  11.077  23.034  0.2176 -0.1132  0.2860
37612W        W80665   6.840   9.151   3.833  0.0792  0.1867 -0.1737
37613W        W80666  11.897  33.101  15.331 -0.0781  0.0239 -0.2795
37614W        W80667  27.094  31.011   0.874 -0.1866  0.0488 -0.1542
37615W        W80668  20.093   2.294  15.446  0.2558 -0.1525 -0.0770
37616W        W80669   6.579  30.380  22.986 -0.0478  0.1471  0.0951
37617W        W80670  28.035  17.419  23.424  0.0931 -0.0784  0.1377
37618W        W80671  10.822   5.105  15.691  0.0095  0.1238  0.2132
37619W        W80672  29.373  18.334  17.921 -0.0293  0.2521  0.1848
37620W        W80673  10.391   8.169  20.999 -0.0502 -0.2309  0.2741
37621W        W80674   7.235   3.261   0.310 -0.3446 -0.1606  0.1896
37622W        W80675   7.347  26.493  17.611  0.2317  0.0177  0.1040
37623W        W80676  25.242   7.178  15.132 -0.1450  0.2603  0.2975
37624W        W80677  31.277  30.766  22.678  0.2838 -0.1086  0.5225
37625W        W80678  33.684  33.150  14.288  0.1680 -0.4030  0.2646
37626W        W80679   2.788  14.161  18.560 -0.0591 -0.0980  0.0180
37627W        W80680  28.553  29.596  20.797 -0.2922 -0.2012  0.1450
37628W        W80681   1.817   3.589   2.103 -0.1505  0.1980  0.0283
37629W        W80682   1.511  30.940  16.064 -0.2139 -0.1640 -0.1756
37630W        W80683  11.918  21.347  15.923  0.0211  0.1027 -0.2266
37631W        W80684  33.034   3.356  27.236 -0.1086  0.2260 -0.0905
37632W        W80685   9.290   6.146   0.998 -0.1266  0.0178 -0.1473
37633W        W80686   4.513  10.473  15.563  0.1624  0.1664  0.0970
37634W        W80687  11.572  21.630  25.405 -0.1922 -0.2942 -0.3323
37635W        W80688  21.158  20.039  14.360  0.2315 -0.0238 -0.0123
37636W        W80689  27.788   0.713  18.480  0.1771 -0.0694  0.0820
37637W        W80690  11.065   0.698  17.780  0.2561  0.0186 -0.2627
37638W        W80691  33.204   2.396   1.149 -0.0143 -0.0866  0.2088
37639W        W80692   5.394  17.615  22.346 -0.3128 -0.0052  0.1370
37640W        W80693  23.734  34.660  24.781 -0.1679  0.0279  0.1946
37641W        W80694  12.817  27.195  23.959  0.0784 -0.1010  0.0958
37642W        W80695   6.257  15.250  15.751 -0.1250  0.0075  0.1621
37643W        W80696  30.908  26.596  15.886  0.0527 -0.1171 -0.2374
37644W        W80697  33.474  20.374  23.718 -0.3771  0.1995 -0.1237
37645W        W80698  13.749   7.479  28.891  0.0546  0.2760  0.2298
37646W        W80699  16.213  16.131  12.739  0.0966 -0.1837 -0.1232
37647W        W80700  17.281  30.867  29.186  0.6810  0.0257 -0.0978
37648W        W80701   4.851  11.149   5.535 -0.1899 -0.2019  0.3799
37649W        W80702  11.222   7.354  16.375  0.0284  0.0893  0.0334
37650W        W80703  30.398  14.469  28.825 -0.1006  0.2388 -0.2821
37651W        W80704   6.151  16.289  19.538 -0.0824 -0.0785  0.0327
37652W        W80705  17.357  31.890  29.164 -0.1308 -0.0754  0.3706
37653W        W80706   8.690   2.233  15.734  0.3108  0.0280 -0.2641
37654W        W80707  20.686   8.400  23.289 -0.2654  0.3510 -0.2698
37655W        W80708  19.696  32.620  21.387 -0.0720  0.0738  0.0275
37656W        W80709   4.592   7.276   0.874 -0.1010  0.3175 -0.1586
37657W        W80710   5.489   6.428   0.092  0.2602 -0.0219 -0.1022
37658W        W80711  17.099   2.715  14.997 -0.4200  0.0008 -0.3959
37659W        W80712  15.923  33.501  22.183  0.3655  0.1346 -0.1287
37660W        W80713  15.479  34.243  19.414 -0.1156  0.0942  0.1091
37661W        W80714  19.092   7.558  21.210  0.2014  0.1186 -0.1389
37662W        W80715  19.546  24.821  18.271 -0.0780  0.1181 -0.0791
37663W        W80716   4.090   2.257  14.872 -0.0618  0.0156  0.2483
37664W        W80717  11.797  25.529  19.370 -0.1479 -0.0150 -0.0497
37665W        W80718  18.980   8.223  15.796 -0.0847 -0.1248 -0.1931
37666W        W80719  25.467   8.704  23.703 -0.1232  0.0132  0.0568
37667W        W80720   1.356   1.253  18.391  0.3815  0.2782  0.2097
37668W        W80721  34.163  25.744  16.131  0.1828 -0.1783 -0.2663
37669W        W80722  33.838   9.490  15.631 -0.3084  0.3404  0.1888
37670W        W80723  12.447  30.563  20.802 -0.1993  0.1547 -0.2112
37671W        W80724   7.936  14.231   2.902  0.1039 -0.1982 -0.1746
37672W        W80725   7.040  14.401  26.771 -0.0642  0.1894 -0.1281
37673W        W80726  16.362  14.716   1.091  0.0048 -0.1905 -0.1423
37674W        W80727  11.751   7.539  21.386  0.2049 -0.1710 -0.0718
37675W        W80728  10.512  34.618  27.394  0.4370 -0.0163 -0.4122
37676W        W80729   6.348  33.021   4.538  0.0235 -0.1999 -0.3321
37677W        W80730  14.318  32.121  16.926 -0.0193  0.1864  0.1263
37678W        W80731   9.198  12.792  26.848 -0.2019  0.0040  0.1120
37679W        W80732  16.584  12.533  21.464  0.0377  0.1540 -0.2038
37680W        W80733  14.899  32.035  21.070 -0.2225 -0.1985 -0.3220
37681W        W80734  18.160  11.734  17.846  0.1189 -0.1013 -0.0036
37682W        W80735   1.955  25.729  18.131  0.0866 -0.1339  0.1647
37683W        W80736  13.516  27.797  16.616 -0.1307  0.1587  0.2551
37684W        W80737  34.123   3.923   6.978  0.0682 -0.4058 -0.2691
37685W        W80738  23.431  33.958  19.262 -0.1703 -0.1695 -0.0206
37686W        W80739  16.808  29.350  18.142 -0.0275  0.1769 -0.1044
37687W        W80740  10.993  12.977   9.292  0.1304 -0.1007  0.2244
37688W        W80741  15.021  32.587  18.900  0.0555  0.0522  0.2197
37689W        W80742   1.668   1.761  20.599  0.0393 -0.0654 -0.0159
37690W        W80743  13.585   3.022   2.913  0.0001 -0.1128  0.2795
37691W        W80744  17.221   9.406  23.398  0.1497 -0.0201  0.0383
37692W        W80745  14.273   0.223  20.942  0.1398 -0.0401  0.2118
37693W        W80746  13.215  13.506  18.337  0.0284 -0.2441 -0.0589
37694W        W80747  17.290  32.677   3.349  0.1210 -0.1484  0.1474
37695W        W80748   4.866  13.670  22.839 -0.0264  0.2596 -0.0782
37696W        W80749  27.453  17.236  26.854  0.0391 -0.5094 -0.3092
37697W        W80750   3.576  21.198  22.662 -0.2065  0.0584 -0.2166
37698W        W80751   3.292  26.207  20.499 -0.0763  0.0948 -0.0861
37699W        W80752  24.227   0.551  20.701  0.0825  0.0745 -0.0175
37700W        W80753   6.121  33.800  22.430 -0.3911  0.1804 -0.3803
37701W        W80754  22.824  27.338  25.492  0.0421  0.0970  0.0675
37702W        W80755  21.929  33.393  19.192 -0.0670  0.1717  0.1813
37703W        W80756   4.549   7.803  16.625  0.1646  0.0395 -0.1599
37704W        W80757  29.880   8.962  22.588 -0.2320  0.1271  0.0428
37705W        W80758  11.695   2.199  16.282 -0.0996  0.1607 -0.0645
37706W        W80759   1.167   4.371  16.380  0.0504  0.1603 -0.2204
37707W        W80760  30.921   0.596  15.978 -0.1516  0.0968 -0.1646
37708W        W80761  10.266  25.068  27.759  0.0711 -0.0371 -0.0558
37709W        W80762   7.977   1.510   3.819 -0.0145 -0.1574 -0.2992
37710W        W80763   3.092  30.482  25.829 -0.0369 -0.1058  0.2933
37711W        W80764   3.798  33.506  24.130 -0.0505  0.2763 -0.0697
37712W        W80765  11.985  23.268  23.295 -0.0415  0.1261 -0.0188
37713W        W80766   1.481   6.814   2.257  0.0380  0.1494 -0.0861
37714W        W80767  31.811   7.051  20.597 -0.1476  0.0139  0.1929
37715W        W80768  25.221  29.413  22.749  0.2023 -0.1961  0.0605
37716W        W80769   1.223   4.924  26.824  0.0568  0.0126  0.3093
37717W        W80770  13.397   5.343  24.593 -0.0862 -0.1323 -0.1016
37718W        W80771   3.908   0.211  22.581  0.0957 -0.0318 -0.1364
37719W        W80772  10.006  20.121   3.581  0.0969 -0.1426 -0.0495
37720W        W80773  11.044  34.363  26.003  0.2025 -0.0177 -0.1883
37721W        W80774  16.197  31.780  18.245 -0.1858  0.0865 -0.3045
37722W        W80775  23.779   4.085  18.980 -0.4075  0.0912  0.0337
37723W        W80776   7.729  24.265  25.094  0.2610 -0.2911 -0.0358
37724W        W80777  10.100  29.703  22.199  0.4584 -0.0381  0.0464
37725W        W80778   7.071  10.930  16.659 -0.2149  0.3904 -0.1845
37726W        W80779  10.565  30.967  24.679  0.1075  0.3005 -0.1007
37727W        W80780  24.753  17.160  22.549  0.1090 -0.0856 -0.0377
37728W        W80781  30.693   3.832  22.747  0.0525 -0.2365  0.1548
37729W        W80782   9.976  10.525  17.522 -0.0681  0.0264 -0.1464
37730W        W80783  10.857   4.431  20.367 -0.2453  0.0864  0.3078
37731W        W80784  10.026  34.192  21.913 -0.2841  0.1139 -0.0887
37732W        W80785   9.408  19.888  19.751  0.0804 -0.0684 -0.4183
37733W        W80786  25.102  14.785  17.640  0.0576 -0.0614  0.1222
37734W        W80787   2.648  28.435  14.541  0.1921 -0.0573  0.2054
37735W        W80788   7.408   7.897  25.773  0.1681 -0.1971 -0.0969
37736W        W80789  11.974   3.263  17.197  0.0372  0.0768  0.0216
37737W        W80790   9.683   7.775  25.967  0.0826  0.0888 -0.0368
37738W        W80791   0.593  28.075  15.067 -0.0100  0.1518 -0.1800
37739W        W80792   3.630  17.510   6.072  0.1455  0.0555 -0.1462
37740W        W80793   8.155   1.889  19.694  0.1341  0.0172  0.0757
37741W        W80794   9.749  31.091  14.646  0.2984 -0.0832  0.0008
37742W        W80795  15.644  25.769  19.170  0.2517  0.0333  0.1449
37743W        W80796   5.392   8.172  21.420  0.0721  0.1050  0.0212
37744W        W80797   1.442  11.645  15.347 -0.0840 -0.1029  0.2315
37745W        W80798  32.263  34.654  14.638 -0.0366 -0.2846 -0.1559
37746W        W80799  30.977  18.912  15.598 -0.4362  0.0157 -0.2442
37747W        W80800  10.148  19.119   9.785 -0.3325 -0.1425  0.0297
37748W        W80801  32.686  30.472  21.248 -0.1179  0.2312 -0.0417
37749W        W80802   2.412  22.219  21.232  0.0489  0.1049 -0.2250
37750W        W80803  19.014  33.058  20.136 -0.0496 -0.0537  0.1046
37751W        W80804  12.106   2.998  23.946  0.0625  0.0513  0.0202
37752W        W80805  30.743   7.464  18.729  0.2353  0.2153  0.0779
37753W        W80806   6.291   8.689  23.292 -0.0966 -0.2331  0.0632
37754W        W80807  17.424   3.884  23.844 -0.2389 -0.0927 -0.3669
37755W        W80808  33.051  18.750  18.855  0.3020  0.2273  0.1829
37756W        W80809   6.791  28.030  15.377 -0.2889  0.1603  0.0203
37757W        W80810   7.957   6.161   0.845  0.0182  0.0394  0.0536
37758W        W80811   7.743  23.931  23.086 -0.4044 -0.0692  0.2128
37759W        W80812  29.234  25.788  16.641 -0.0574 -0.4496 -0.3264
37760W        W80813  20.215  33.837  17.468  0.0070  0.0050  0.0996
37761W        W80814  14.369   2.781  14.505  0.0887 -0.0229  0.1465
37762W        W80815  18.470  30.171  15.586 -0.2635  0.1723 -0.0334
37763W        W80816   9.528  10.320   1.048  0.0841 -0.1014 -0.0749
37764W        W80817   0.344   6.879  24.128  0.1211  0.0057  0.2256
37765W        W80818   3.083  31.591  20.217 -0.1201  0.1950 -0.3963
37766W        W80819  14.581   6.333  26.746  0.1941  0.1785 -0.0876
37767W        W80820   4.781  11.915  15.193 -0.2371 -0.2054 -0.0968
37768W        W80821   4.145  12.361  18.317  0.0374 -0.2962 -0.0459
37769W        W80822  17.883  12.448  18.894 -0.0100 -0.3186 -0.3500
37770W        W80823   3.385  27.525  14.603  0.0737 -0.0703  0.1529
37771W        W80824   0.568  25.335  23.929  0.0668  0.3887  0.1557
37772W        W80825  31.947   0.527   5.789  0.0556 -0.1413 -0.1546
37773W        W80826  29.658  29.161  19.569 -0.0841  0.1118 -0.3179
37774W        W80827   5.031  12.939   3.036 -0.2483 -0.1397  0.1387
37775W        W80828  30.430   1.742  19.621 -0.1301 -0.0489  0.1118
37776W        W80829  16.572   3.715  15.451  0.2210  0.1819  0.1411
37777W        W80830  15.478   3.350  16.659  0.1904 -0.1280  0.3465
37778W        W80831  24.120  11.242  15.025 -0.1752  0.1821 -0.1333
37779W        W80832  32.677  31.552  22.032  0.0462  0.0885 -0.3151
37780W        W80833   6.821  27.525  14.576  0.0580 -0.1823  0.4282
37781W        W80834   7.539   2.004  20.335  0.1902  0.3717  0.0249
37782W        W80835   8.243  22.380  13.962  0.2695 -0.3154  0.3383
37783W        W80836  10.926   7.105  17.140  0.1452 -0.0042  0.0343
37784W        W80837  19.028   6.566  25.506 -0.2182 -0.1721 -0.2828
37785W        W80838  13.556   6.341  22.224 -0.4011  0.3450  0.0651
37786W        W80839   4.367   4.352  28.505  0.2477  0.3128 -0.1970
37787W        W80840   1.466  18.114  19.125  0.0415  0.0266  0.1386
37788W        W80841  15.228   4.640  22.591  0.0616  0.0625  0.2056
37789W        W80842  32.982   1.874  24.717 -0.2890  0.0356  0.1764
37790W        W80843   7.296  33.424  23.032  0.2235  0.0884 -0.0980
37791W        W80844  12.157   8.132   3.296 -0.0538 -0.0116 -0.1061
37792W        W80845  13.831   4.309   3.463  0.1317  0.2805 -0.3898
37793W        W80846   8.277  30.682  26.175  0.1342  0.0785 -0.0303
37794W        W80847  22.210   6.083  16.528 -0.0518 -0.2498 -0.0781
37795W        W80848  19.058   9.853   4.772  0.3670 -0.3682  0.1964
37796W        W80849  14.695  32.609  19.404  0.0320  0.0620  0.3710
37797W        W80850  11.850  13.002  19.796 -0.0720 -0.2491 -0.4566
37798W        W80851  29.294  12.776  26.929  0.1758 -0.0838 -0.0716
37799W        W80852   2.018   4.282  17.211  0.2894 -0.2242  0.1269
37800W        W80853  18.877   8.219  22.567 -0.0205  0.0682  0.2865
37801W        W80854  14.811   0.984  17.831 -0.0731 -0.4582  0.1180
37802W        W80855  23.140  17.635  19.591 -0.1407  0.3420 -0.2481
37803W        W80856  34.457   2.236  14.676 -0.1233  0.1357  0.2027
37804W        W80857  11.977  30.573   6.184 -0.4277  0.0779 -0.2704
37805W        W80858  31.470   7.104  19.916  0.0998  0.1796  0.2071
37806W        W80859  11.018  32.096  22.654 -0.0479  0.0372 -0.1693
37807W        W80860   6.188  32.286  14.650 -0.2746  0.0388 -0.0441
37808W        W80861  28.400  19.745  28.868 -0.0096 -0.1171  0.0313
37809W        W80862  14.499  17.719  16.719  0.0696  0.0248 -0.0730
37810W        W80863  14.967  32.637  15.118  0.0265  0.0313 -0.1433
37811W        W80864   5.727   3.706  27.949 -0.0569  0.0537  0.0158
37812W        W80865  11.694   5.126  16.028 -0.1204  0.0087 -0.0538
37813W        W80866   8.188   6.313  23.229  0.1955  0.1510  0.0226
37814W        W80867  13.337   7.870  27.064  0.2273 -0.1914 -0.1199
37815W        W80868  11.189  12.981  21.097  0.0954  0.0649  0.2764
37816W        W80869   5.983  28.814  17.727 -0.2081 -0.1407 -0.2830
37817W        W80870   3.012  10.004   4.315 -0.0979 -0.0854  0.0016
37818W        W80871  20.057  33.858  16.961  0.1526 -0.2448 -0.0679
37819W        W80872  14.913  29.755  18.469 -0.2092  0.1684  0.0843
37820W        W80873  13.170   4.949  18.360 -0.2593  0.2206 -0.1534
37821W        W80874   8.787  10.742  20.598 -0.1217 -0.0687 -0.3273
37822W        W80875   2.570   8.048  19.722  0.3179 -0.1712 -0.0505
37823W        W80876  18.276  19.619  14.831  0.0209  0.0737  0.2146
37824W        W80877   7.536  11.229  15.872  0.0609  0.0386 -0.0595
37825W        W80878  30.390   1.261  14.692  0.1385  0.2225 -0.0603
37826W        W80879  15.054   3.836  24.013 -0.0202 -0.1695  0.0526
37827W        W80880  14.955   4.071  28.278 -0.0293 -0.1370 -0.0258
37828W        W80881  11.235   1.791  19.521 -0.0464  0.1363  0.0366
37829W        W80882  19.745  32.382  17.399  0.5367 -0.0281 -0.1225
37830W        W80883   6.014   5.165  23.280 -0.0123 -0.3208 -0.1932
37831W        W80884  32.347  14.746  21.343 -0.0957  0.0027  0.2859
37832W        W80885   6.507   4.949  27.742  0.1519  0.2302 -0.1225
37833W        W80886  17.861  33.473   0.653  0.3748 -0.3710  0.2053
37834W        W80887  25.353  27.143  18.022 -0.2920 -0.0247 -0.0849
37835W        W80888  10.586   5.502  16.923  0.0697 -0.3937  0.1433
37836W        W80889  32.582   4.354  25.492  0.1570 -0.2889  0.0975
37837W        W80890   7.819   2.587   2.737 -0.1506  0.1177  0.3492
37838W        W80891   8.626   5.299  22.574 -0.0125 -0.0527  0.0989
37839W        W80892  26.675  10.918   5.960  0.0082 -0.1095  0.2896
37840W        W80893   7.598   2.874  16.247 -0.2995  0.1163  0.1693
37841W        W80894   8.928   5.189  22.162 -0.2056 -0.0260  0.1467
37842W        W80895  10.818  26.538  21.663 -0.1130  0.4281  0.2113
37843W        W80896   9.764   3.150  18.633  0.0494  0.0024  0.1115
37844W        W80897  16.569  28.026  19.351 -0.0055 -0.0126 -0.0415
37845W        W80898   7.976  28.815  25.318 -0.0227  0.0817  0.0242
37846W        W80899  11.125   4.188  22.489  0.1884  0.0797  0.0229
37847W        W80900  10.058  15.101  17.296 -0.0214 -0.0073 -0.1563
37848W        W80901   9.048   4.573  19.058  0.0910 -0.1489 -0.2229
37849W        W80902   9.450  12.499  21.053  0.1070  0.0553 -0.1027
37850W        W80903   8.196  32.817  20.781  0.0689 -0.0438  0.2092
37851W        W80904  14.273   1.475  15.076  0.0112  0.1247 -0.0727
37852W        W80905  11.626  25.235  13.723 -0.1332  0.0151 -0.0528
37853W        W80906  13.431   5.311  18.612  0.1929 -0.2106  0.0425
37854W        W80907   6.391  29.047  22.417  0.1573  0.0511 -0.0032
37855W        W80908  15.149   9.414  28.516 -0.2498  0.0767 -0.1510
37856W        W80909  12.260   5.418  17.398  0.0634 -0.1875  0.1231
37857W        W80910   0.679  23.780  24.233 -0.0232  0.2273  0.3166
37858W        W80911   2.487  33.433   3.187 -0.0305 -0.2222  0.0784
37859W        W80912  29.334  31.589  15.467 -0.1328 -0.1590 -0.0138
37860W        W80913   7.573  12.245   2.531  0.0116  0.0856  0.2987
37861W        W80914   9.332   8.400  27.762 -0.0704 -0.1234 -0.1224
37862W        W80915   2.346   0.809  15.615  0.0034 -0.0415  0.2637
37863W        W80916   9.572  18.220  21.560 -0.4547  0.0464 -0.1375
37864W        W80917   3.776  11.790  24.741  0.0050  0.0969 -0.1683
37865W        W80918  15.318   3.850   1.083  0.0589  0.2479 -0.0718
37866W        W80919  30.891  16.016   2.867 -0.2449 -0.1180  0.0853
37867W        W80920  15.684  19.015  27.010  0.0710  0.2162  0.0879
37868W        W80921   6.718   8.677  10.453 -0.2489 -0.0625  0.0007
37869W        W80922  25.658  24.016  15.579  0.2185  0.0808 -0.0333
37870W        W80923   4.249   7.836  18.790  0.2698 -0.3055  0.0236
37871W        W80924   7.058   9.293  14.217  0.0410  0.2927  0.0644
37872W        W80925   3.544   5.065   2.165 -0.2357  0.1641 -0.0491
37873W        W80926  13.891  24.939  18.902  0.0956 -0.3910 -0.0289
37874W        W80927   3.133  31.251  19.477  0.2295  0.0771 -0.0587
37875W        W80928  33.294  30.743  18.024  0.2545 -0.1543 -0.0742
37876W        W80929  12.782  26.562  13.697  0.3230 -0.1322 -0.2171
37877W        W80930  19.596   9.073  24.961  0.0451 -0.1798  0.0822
37878W        W80931   5.168  27.742  26.883 -0.0866 -0.1038  0.3281
37879W        W80932  12.362  34.380  17.641 -0.2181 -0.3647  0.1229
37880W        W80933   3.441   8.119  15.652 -0.4151  0.0782 -0.1639
37881W        W80934  17.014  11.908  26.605 -0.2730  0.3477  0.4799
37882W        W80935  33.359  10.035  21.919  0.2196 -0.1582  0.3167
37883W        W80936  31.089   2.264  26.653  0.1039 -0.0629  0.0619
37884W        W80937  23.346  10.182   1.513 -0.3188  0.3800  0.1563
37885W        W80938  31.181  32.638  25.566 -0.0055 -0.1087  0.3953
37886W        W80939  11.713  34.094   0.603 -0.0948  0.0330  0.0259
37887W        W80940  18.219   4.189  22.559 -0.0320 -0.0513  0.1107
37888W        W80941  29.889   9.031  23.399 -0.0121 -0.0433 -0.0580
37889W        W80942  11.944  22.599  15.974  0.1050 -0.1034  0.0831
37890W        W80943  15.169  32.953  23.106  0.0199  0.0689 -0.3821
37891W        W80944  30.458  15.447  15.366 -0.0986 -0.0073 -0.0467
37892W        W80945  23.173  33.834  16.060  0.0129 -0.0051  0.1605
37893W        W80946  21.987   3.814  16.088 -0.0042  0.4178  0.5282
37894W        W80947   0.792  11.175  24.993  0.1882  0.1712 -0.0238
37895W        W80948   3.992   3.854  21.415  0.0191 -0.5201 -0.2139
37896W        W80949  20.367  23.669  20.773  0.1198 -0.1874 -0.0181
37897W        W80950   3.667  10.766   7.892  0.3590 -0.2825  0.0791
37898W        W80951  21.207  26.771  19.230  0.2479  0.0087 -0.0497
37899W        W80952  29.587   6.416  14.653  0.1632  0.0023  0.2484
37900W        W80953   5.626  26.147  15.316  0.1209 -0.3121  0.0569
37901W        W80954   3.138  16.465  15.672  0.3778  0.0620  0.3285
37902W        W80955   7.034  28.831  13.592 -0.1854  0.0068 -0.1768
37903W        W80956   8.050  32.279  20.818 -0.4715 -0.0374  0.1183
37904W        W80957  33.969  32.680  23.017 -0.0734  0.1806  0.3782
37905W        W80958   4.724   7.559   1.354  0.6805 -0.0863  0.0222
37906W        W80959  33.375   2.014  25.461 -0.1545 -0.3212 -0.0786
37907W        W80960  13.374   8.126  17.978  0.1382  0.0149  0.3896
37908W        W80961  22.189   5.644  19.752  0.3484 -0.0702 -0.3288
37909W        W80962  12.301   0.326  16.543 -0.2081 -0.3039 -0.0653
37910W        W80963   4.324  17.821  20.061 -0.0414  0.0682 -0.3127
37911W        W80964   9.452   6.827  16.994  0.3171  0.4811  0.2591
37912W        W80965  23.568  27.918  14.535 -0.2059 -0.1419 -0.1250
37913W        W80966   4.552  18.144  19.156  0.0282 -0.0423  0.0243
37914W        W80967  16.058   5.712  16.811 -0.1431  0.2354  0.0583
37915W        W80968  11.501   0.822   0.072 -0.1376  0.0439 -0.0588
37916W        W80969  22.397  34.514  19.344  0.0662  0.2450  0.3354
37917W        W80970  21.885  12.301  17.264 -0.0907  0.2410  0.0058
37918W        W80971  16.883  34.307  22.224 -0.4028 -0.2564 -0.3731
37919W        W80972   4.839  13.952  18.941 -0.1081  0.2258 -0.0666
37920W        W80973   1.191  14.142  17.347  0.1242  0.1175 -0.2464
37921W        W80974  26.176  15.266  19.485  0.2025 -0.2095 -0.1674
37922W        W80975  21.524  19.969  20.102 -0.0271 -0.2401 -0.0519
37923W        W80976  25.700   4.794  15.891 -0.2788 -0.0189 -0.1421
37924W        W80977  20.190   0.961  16.186 -0.0696  0.0075  0.0661
37925W        W80978  33.656  28.152  18.846  0.1799 -0.3468 -0.1073
37926W        W80979   5.916   8.454  22.726 -0.1740 -0.2054  0.2828
37927W        W80980  13.130   3.095  14.342  0.0384  0.0427  0.3244
37928W        W80981   6.644  27.438   3.130  0.1395 -0.1389  0.1961
37929W        W80982  27.206   9.031  25.769 -0.0369  0.0202 -0.0135
37930W        W80983   4.377   7.881  24.671  0.3215 -0.1438 -0.2406
37931W        W80984  12.796   5.440  15.747 -0.0108 -0.3440  0.2301
37932W        W80985  11.114  18.753  16.812 -0.0250  0.1372  0.0460
37933W        W80986  28.521  31.727   6.551 -0.1241  0.0653  0.1484
37934W        W80987  11.805  12.582  21.029 -0.2312  0.4816  0.0947
37935W        W80988   9.393  34.666  21.304  0.2520 -0.1635  0.2478
37936W        W80989   8.238  15.977  14.884  0.2253 -0.0904 -0.1676
37937W        W80990  11.822   9.232  17.468 -0.0124  0.0727 -0.5449
37938W        W80991   7.420   1.549  20.602 -0.1272  0.0722 -0.1313
37939W        W80992   1.910   2.891  15.709  0.0580 -0.0040  0.3230
37940W        W80993   1.920   3.435  17.512 -0.1066  0.2362 -0.0539
37941W        W80994  10.319   4.543  20.643  0.4061  0.0532  0.0919
37942W        W80995   8.056  15.583  16.636 -0.0683  0.1344 -0.1474
37943W        W80996  10.559  26.163  21.856  0.0404 -0.1206  0.0100
37944W        W80997   0.658  16.171  16.688 -0.1208  0.1704 -0.2090
37945W        W80998  12.257  20.621  23.364 -0.3656  0.0061  0.1714
37946W        W80999  29.853   1.056  13.871 -0.0495 -0.0144 -0.0421
37947W        W81000  25.504  12.154  27.511  0.0973  0.2623 -0.0334
37948W        W81001  18.576  13.823  21.047  0.2266 -0.1110  0.0319
37949W        W81002  22.959  32.961   0.728 -0.1416  0.0713 -0.0759
37950W        W81003   1.846  31.642  19.398  0.1554  0.0325  0.1451
37951W        W81004   2.994   0.997  25.400  0.0663  0.0968 -0.2206
37952W        W81005   5.732  25.448   5.485  0.1999  0.3118 -0.1827
37953W        W81006   0.053   7.877  16.589 -0.0397 -0.0207  0.1910
37954W        W81007  13.016   7.458  18.808 -0.0084 -0.1979  0.3208
37955W        W81008   3.757  13.126  14.408 -0.0912 -0.2104  0.2388
37956W        W81009  27.266  33.601  23.198  0.1666  0.4886 -0.1656
37957W        W81010  26.098  26.649  21.033 -0.0794 -0.2619 -0.3568
37958W        W81011   5.201  10.090  15.158  0.3580 -0.1583  0.0383
37959W        W81012  11.220  21.328  24.248  0.1781  0.2037  0.2396
37960W        W81013  34.451   6.950  16.813 -0.2306  0.1631  0.0141
37961W        W81014   9.225  26.417   0.473 -0.0026 -0.0375 -0.3358
37962W        W81015  20.258  13.441  29.008  0.0566 -0.0359  0.0714
37963W        W81016  33.217  26.108  19.718  0.1118 -0.0599  0.0550
37964W        W81017   3.980   5.820   8.510 -0.2111  0.1810 -0.1634
37965W        W81018  15.715  34.503  21.559  0.1516  0.0406  0.1359
37966W        W81019  32.194  34.430  26.323 -0.1212  0.1933 -0.1199
37967W        W81020   3.389   0.725  17.410 -0.0899 -0.4268  0.3508
37968W        W81021   1.097  23.235  14.381  0.1116 -0.1022  0.0019
37969W        W81022   4.180  30.807  15.805 -0.2128 -0.0728 -0.1078
37970W        W81023  11.250   9.413  19.318 -0.1868 -0.0405 -0.1032
37971W        W81024  11.688   4.104  25.349  0.2060  0.0971  0.1726
37972W        W81025   3.898  33.806  17.649  0.1441  0.1188 -0.1370
37973W        W81026   5.138   0.948  24.395 -0.1017  0.0223 -0.3256
37974W        W81027  13.518  13.140  16.143 -0.3856 -0.3148 -0.2177
37975W        W81028  18.259  34.499  17.203  0.0486 -0.2338 -0.0852
37976W        W81029  10.450   2.978  15.772  0.1204  0.1200 -0.3964
37977W        W81030  14.779   8.056   0.986 -0.2687 -0.2285  0.0972
37978W        W81031   3.711  22.395  14.815  0.4187  0.0215  0.0895
37979W        W81032   7.301   5.856  21.316 -0.0198  0.0423 -0.0507
37980W        W81033  23.779   2.956  19.197  0.5143 -0.1484 -0.3311
37981W        W81034  12.002  28.472  24.523 -0.1721  0.0326 -0.2534
37982W        W81035  21.569   0.644  26.486 -0.4878 -0.1283 -0.1050
37983W        W81036  18.423   5.031   2.608 -0.1329 -0.0343 -0.2707
37984W        W81037  15.161   4.492  21.021  0.1248  0.0180 -0.2624
37985W        W81038  26.575   1.607   1.039 -0.1940 -0.0662 -0.1019
37986W        W81039   7.701  27.098  19.325 -0.1961 -0.1753  0.2207
37987W        W81040   6.111   3.670  27.561  0.0707  0.2816 -0.1781
37988W        W81041  20.786  29.981  17.792  0.2781  0.0972 -0.2296
37989W        W81042  13.195  15.332  27.990 -0.2302 -0.0727 -0.4521
37990W        W81043   7.266  12.574  14.084  0.2074  0.0046  0.1217
37991W        W81044   3.693  10.983  15.285 -0.0509  0.2478 -0.3683
37992W        W81045  20.932   3.797  23.380 -0.1949  0.2811  0.2475
37993W        W81046   5.093   6.079  21.085 -0.0099  0.1775 -0.2538
37994W        W81047  20.974   5.427  15.642  0.0738 -0.1450 -0.0929
37995W        W81048  26.494   9.311  24.152 -0.1799 -0.4356 -0.0198
37996W        W81049   8.058  14.626  19.806 -0.0189  0.0113  0.1705
37997W        W81050   2.145  12.609  17.836 -0.6014  0.0233 -0.0809
37998W        W81051   9.560   7.323  18.281  0.2729  0.3577  0.1499
37999W        W81052   0.985  22.359  18.240 -0.1147 -0.1807  0.3953
38000W        W81053  12.049  30.699  25.021  0.1568  0.2265  0.1600
38001W        W81054  20.103  22.742  25.409  0.0342 -0.0556 -0.1427
38002W        W81055  23.215  26.745  24.943 -0.1088  0.2840  0.1408
38003W        W81056  33.701  28.161  19.565  0.0878 -0.0923 -0.1020
38004W        W81057  22.808  15.412  19.051  0.1022  0.0613  0.0029
38005W        W81058   0.415   1.368   0.010  0.5446 -0.1869 -0.2006
38006W        W81059  10.436   7.043   1.452 -0.0128 -0.1783 -0.0892
38007W        W81060  31.602  31.473   9.458  0.1470  0.2280 -0.0954
38008W        W81061   1.527  27.415  25.242  0.1969  0.1613 -0.1916
38009W        W81062   9.721  10.271  20.210  0.0802  0.0629  0.0087
38010W        W81063  11.312  22.850  22.191  0.0326 -0.2583 -0.0663
38011W        W81064   3.600  32.287  14.554 -0.0951  0.0443  0.1643
38012W        W81065   2.634   9.693  17.112  0.2305 -0.2162 -0.5516
38013W        W81066  16.148   3.882   5.370  0.5615 -0.1597 -0.1701
38014W        W81067  15.758  30.924  19.344 -0.0680  0.1353 -0.0710
38015W        W81068  22.959   0.724  19.334 -0.1456  0.1522  0.2202
38016W        W81069  17.093  33.637  17.227 -0.3124  0.0293 -0.0358
38017W        W81070   9.033  31.206  22.363 -0.2609 -0.0074 -0.2684
38018W        W81071   6.313   3.829  21.620  0.3011 -0.0098  0.1341
38019W        W81072   1.613  17.450  15.446  0.0205  0.2960 -0.2837
38020W        W81073   5.660  15.152  22.934  0.0554  0.0377  0.0910
38021W        W81074  19.448  16.358  13.876  0.2502  0.1372  0.0107
38022W        W81075  28.574  11.687   7.484 -0.1383  0.0910 -0.0898
38023W        W81076   4.529  33.605  23.398 -0.0586 -0.1493  0.2498
38024W        W81077  19.128  29.196  24.765 -0.0948 -0.1074 -0.1865
38025W        W81078  20.296  33.319  18.590 -0.2197 -0.1229 -0.0760
38026W        W81079   9.405   8.310  27.306  0.2196  0.0848 -0.0076
38027W        W81080   1.718  12.627  22.908  0.0670 -0.0446 -0.2081
38028W        W81081   8.488  24.112  23.639  0.2615  0.1380  0.1032
38029W        W81082  15.886   3.231  21.604 -0.2736 -0.4568 -0.2060
38030W        W81083  26.091   6.812  21.968 -0.1136 -0.1366 -0.0835
38031W        W81084  29.815   3.526  26.301 -0.1080  0.0642 -0.0946
38032W        W81085  21.361   4.406  20.482 -0.2132  0.1830  0.0076
38033W        W81086  31.795  11.176  26.328 -0.0117  0.1353  0.1611
38034W        W81087   2.067   1.699  27.154  0.0339 -0.0020  0.0957
38035W        W81088  23.684  11.076  23.038  0.1710 -0.1276 -0.1667
38036W        W81089   3.356   8.037  28.969 -0.1013  0.0189  0.2368
38037W        W81090  33.406  22.710  20.330 -0.2470  0.0576  0.3829
38038W        W81091  13.898  19.593  15.595 -0.1830  0.1309  0.2232
38039W        W81092   1.219   9.298  24.181  0.0039  0.3366 -0.0952
38040W        W81093   5.950   3.051  20.460 -0.1291  0.0166 -0.1134
38041W        W81094  16.416  25.240   3.571 -0.3084 -0.1590 -0.0522
38042W        W81095   4.531   6.305  23.417 -0.1581 -0.0909 -0.0299
38043W        W81096  32.208  26.218  25.224  0.4836  0.0966 -0.1059
38044W        W81097  19.105   0.515  24.046  0.1098 -0.2926 -0.2377
38045W        W81098   1.879  21.269  15.099 -0.1704  0.1327  0.1078
38046W        W81099   3.517  11.230   4.290  0.2504  0.1909 -0.1711
38047W        W81100   7.878  15.551  14.795 -0.1745 -0.0817  0.0024
38048W        W81101  18.075  28.085  23.938  0.0865  0.0327 -0.3464
38049W        W81102   0.969   1.831  21.070  0.0656  0.0378  0.0440
38050W        W81103  32.062  33.061  14.687 -0.1437  0.1793 -0.2520
38051W        W81104  12.917  17.044  29.050  0.4429 -0.1741 -0.0576
38052W        W81105  10.390  11.084   1.132  0.1995 -0.0176 -0.1255
38053W        W81106  25.398   7.422  22.840  0.0321  0.2994 -0.2587
38054W        W81107  19.453   4.783  27.553  0.0849  0.1897 -0.1437
38055W        W81108   3.486   2.952  14.464  0.1294  0.3214 -0.0610
38056W        W81109  26.257   4.935  18.218 -0.0158  0.0726  0.0197
38057W        W81110  29.044  31.425  23.369 -0.0165  0.2688  0.2066
38058W        W81111   7.877  23.826  25.017  0.0546  0.1435  0.2668
38059W        W81112  19.639   7.155   7.316  0.0185  0.1163  0.1845
38060W        W81113  33.307  32.114  20.018 -0.3014 -0.0055 -0.1223
38061W        W81114  12.757   2.931  27.774 -0.1391  0.1235 -0.0825
38062W        W81115   1.856  34.176  18.851 -0.1382  0.0232  0.0469
38063W        W81116   2.499  34.237  19.870 -0.1768 -0.1269  0.1663
38064W        W81117  10.642  20.223  23.360 -0.1037 -0.0746  0.0302
38065W        W81118   0.837  17.994  20.418 -0.1454  0.0679  0.0564
38066W        W81119   3.465  13.689  17.929 -0.1734  0.1542 -0.0242
38067W        W81120  12.683   7.378  18.169 -0.2202  0.1572  0.2353
38068W        W81121   2.341  28.533  12.943  0.3507 -0.0102 -0.1077
38069W        W81122  11.268  33.566  20.230 -0.0922  0.0849  0.1751
38070W        W81123  33.323  14.315  17.256 -0.2217 -0.1371 -0.0021
38071W        W81124  16.712  33.695  26.847 -0.0302 -0.0939 -0.3352
38072W        W81125   6.508  26.371  20.133  0.1120 -0.4770  0.0808
38073W        W81126  29.016   3.599   6.611 -0.1077 -0.3885 -0.0459
38074W        W81127   0.227   4.998  23.943 -0.0292 -0.1252  0.0777
38075W        W81128  11.311  12.538  23.825 -0.0196  0.2820 -0.3744
38076W        W81129   7.726  32.404  23.559 -0.1968 -0.1554 -0.0719
38077W        W81130  30.614   1.095  14.229 -0.0643  0.0985  0.0939
38078W        W81131  22.850  17.123  16.126  0.0956 -0.1732 -0.1359
38079W        W81132   8.467   5.248   2.250  0.0781  0.2160  0.0496
38080W        W81133  23.526  26.751  23.255  0.2300 -0.3597 -0.0888
38081W        W81134  19.550  13.086  19.637  0.1438 -0.3301 -0.2190
38082W        W81135   6.288  13.421  21.488 -0.0371  0.2212  0.0340
38083W        W81136  11.637   1.018   5.123  0.0540 -0.0805 -0.0176
38084W        W81137   3.170  18.269   0.668  0.0995  0.0676  0.1066
38085W        W81138   8.256  23.308  23.384 -0.2802 -0.1858 -0.2089
38086W        W81139  17.763  11.280  14.727 -0.1763 -0.2251 -0.0656
38087W        W81140   0.895  28.025  17.903  0.1015 -0.0788  0.2181
38088W        W81141   7.818   8.749  19.456 -0.1663 -0.0856 -0.1198
38089W        W81142   7.599  33.435  16.823  0.2599 -0.0029  0.0399
38090W        W81143  14.606   1.444  14.615  0.0886 -0.0086  0.0027
38091W        W81144  13.738   1.722  24.886 -0.2825  0.3450  0.2463
38092W        W81145   6.305   1.577  19.602 -0.1416  0.1234 -0.0215
38093W        W81146  32.610  23.537  16.234  0.1512  0.1189  0.0068
38094W        W81147   6.684  27.106  18.722 -0.1873 -0.1336 -0.1455
38095W        W81148   7.906  30.248  15.462  0.3386 -0.2507  0.0333
38096W        W81149   7.844  33.498  15.297 -0.3045  0.1727 -0.1601
38097W        W81150   4.790  30.476  16.258  0.2069  0.2404 -0.1840
38098W        W81151   5.861   6.603  18.575 -0.1047 -0.1534  0.2448
38099W        W81152   4.481   4.410  20.123  0.1891 -0.1093 -0.2405
38100W        W81153  12.087  33.234   3.611  0.0399 -0.0141 -0.0033
38101W        W81154  15.810  26.596  14.902 -0.1251 -0.0570 -0.2197
38102W        W81155  11.680   3.337  14.849 -0.0819  0.0936 -0.0416
38103W        W81156  20.641  10.526  18.626 -0.0958  0.3686  0.2923
38104W        W81157  18.734  32.402  21.738  0.0317 -0.1301  0.0679
38105W        W81158   7.281   1.573  15.157 -0.0785 -0.3549 -0.2721
38106W        W81159  11.182   1.762  20.557 -0.1720  0.3662 -0.1993
38107W        W81160  27.970   3.563  18.366  0.1109 -0.0456 -0.0055
38108W        W81161  18.067   3.985  21.285  0.3215 -0.3837 -0.2850
38109W        W81162  17.088  10.637  28.380 -0.2110  0.1883  0.2768
38110W        W81163  33.872  26.465  28.457 -0.0773 -0.0385  0.0827
38111W        W81164  12.064  34.288  15.452 -0.2938  0.2071 -0.1560
38112W        W81165  23.503   0.328  23.379 -0.0743 -0.1286  0.0570
38113W        W81166  19.237   7.092  28.057 -0.1066  0.0930 -0.2452
38114W        W81167  16.809  12.764  26.360 -0.1949 -0.1083  0.0372
38115W        W81168   7.192  10.785  18.303 -0.0894 -0.1270  0.0943
38116W        W81169  26.728  26.956  15.113 -0.1647  0.2628 -0.1395
38117W        W81170  31.942  15.019   1.887  0.0328 -0.1093 -0.0273
38118W        W81171   2.521   0.126   5.482  0.1098  0.0416  0.1813
38119W        W81172  13.375  33.057   6.581 -0.0849  0.1670  0.1915
38120W        W81173   9.808   3.220  22.477  0.1390 -0.2181  0.1387
38121W        W81174   8.748   2.839  20.584 -0.0843 -0.1301 -0.1530
38122W        W81175  10.759  27.859  20.057  0.2341 -0.1820 -0.1788
38123W        W81176   9.668  28.242   0.174  0.2385  0.0255 -0.2401
38124W        W81177   6.939  13.406  26.803  0.0954  0.0179 -0.3399
38125W        W81178  13.323  28.730  16.330 -0.3015  0.0412  0.2744
38126W        W81179  19.477   4.780   3.924 -0.0840  0.0303 -0.0838
38127W        W81180  28.645   5.137  18.424  0.1252  0.2062  0.0076
38128W        W81181   4.522  34.009  20.108 -0.1517  0.0655 -0.0286
38129W        W81182  33.161   0.823  25.570 -0.2258  0.1658 -0.1637
38130W        W81183  15.105  34.553  14.665  0.3838 -0.2111  0.2110
38131W        W81184   4.124  28.503  26.483 -0.1323 -0.0074  0.0351
38132W        W81185   7.089  12.742  23.782  0.0371  0.1174  0.1788
38133W        W81186   3.868  34.491  14.274  0.1636  0.1440 -0.0094
38134W        W81187  14.516   8.909  25.554  0.0186 -0.1724  0.1183
38135W        W81188  21.660  14.773  17.136 -0.1522 -0.3721 -0.1385
38136W        W81189  31.509  12.284  16.807 -0.1955 -0.1607 -0.3473
38137W        W81190  18.477  30.227  20.570 -0.0023  0.0228  0.2266
38138W        W81191  32.459  30.406  22.046 -0.1890 -0.1018 -0.5194
38139W        W81192   0.466  18.329  17.966 -0.2663  0.2150  0.0867
38140W        W81193   8.647  12.592   3.664  0.2512 -0.2951  0.0855
38141W        W81194   7.561   7.831  24.170  0.4598 -0.0417 -0.0432
38142W        W81195  27.276  33.397  24.054  0.3071  0.0720 -0.0367
38143W        W81196  21.960  34.511  25.645 -0.1256 -0.3743  0.0295
38144W        W81197  17.005  23.820  16.156 -0.3463  0.2112 -0.0794
38145W        W81198   2.419   3.522  13.844  0.1412 -0.0152  0.0655
38146W        W81199  34.279  18.167  14.496  0.0348 -0.1109  0.5623
38147W        W81200  14.342   6.447  14.930  0.0969 -0.0329  0.1151
38148W        W81201   1.617  11.000  16.101 -0.2335  0.1566  0.1009
38149W        W81202  10.926  12.872  18.157 -0.0016 -0.0582 -0.1994
38150W        W81203  23.818   3.807  19.536  0.1209 -0.0664 -0.1122
38151W        W81204  15.490   5.319  24.646 -0.2548 -0.0155 -0.2054
38152W        W81205  17.489   4.736  15.243 -0.1973 -0.0686  0.2682
38153W        W81206   0.481  31.709  21.799 -0.1251 -0.1958  0.0429
38154W        W81207   6.211  11.105  24.538  0.1172  0.1543  0.1168
38155W        W81208  18.868  11.430  23.739 -0.1418  0.1225  0.1690
38156W        W81209   9.967  14.577  15.634  0.1934  0.0907  0.0579
38157W        W81210  21.903  12.884  14.771  0.0099 -0.0850  0.0677
38158W        W81211  27.175   1.181  27.599 -0.4706  0.0615  0.1120
38159W        W81212  14.271  27.313  18.137  0.3121 -0.2534 -0.1990
38160W        W81213  14.340   2.103  17.501 -0.1443  0.0650 -0.2915
38161W        W81214   9.750  14.128  19.009 -0.1314  0.1188 -0.1356
38162W        W81215  27.860  10.948  20.217  0.3631  0.0958 -0.1256
38163W        W81216   3.991   2.658   0.640  0.1893  0.0809  0.0581
38164W        W81217  26.643  18.546   2.412  0.1477 -0.1760  0.0454
38165W        W81218  17.860  23.872  16.163  0.0793  0.4219  0.0481
38166W        W81219  12.585  34.492  22.986  0.0991  0.2862 -0.0678
38167W        W81220   4.204   5.603  17.012  0.1443  0.0081 -0.1909
38168W        W81221   5.883   4.240  21.792 -0.0052 -0.4578  0.3245
38169W        W81222  10.644  16.430  16.651 -0.1315  0.2411  0.2646
38170W        W81223  19.128   1.056  14.942  0.0742 -0.3530  0.1048
38171W        W81224  23.446   5.910  19.010  0.3456  0.0893 -0.1158
38172W        W81225  12.314  10.814  22.191  0.3687 -0.2612 -0.1900
38173W        W81226  18.734  11.158  15.154 -0.2757  0.0834  0.2519
38174W        W81227   1.390   4.687  14.927 -0.2403  0.0686  0.1756
38175W        W81228   0.266  30.039  15.277 -0.0724  0.0056  0.2182
38176W        W81229  16.055   2.905  27.337 -0.1813 -0.1935  0.1858
38177W        W81230  27.332  20.649  22.612  0.0027 -0.1451 -0.0707
38178W        W81231  26.904  18.316  27.804  0.0716 -0.0230 -0.0776
38179W        W81232  14.391  29.968   1.471 -0.1208 -0.0911  0.1308
38180W        W81233  17.775  29.287  22.665  0.1165 -0.0533 -0.1064
38181W        W81234  31.657  15.422  25.850 -0.1240  0.2338  0.2200
38182W        W81235  15.989   7.988  28.422 -0.1274 -0.2233  0.0063
38183W        W81236   5.603  24.768  13.867 -0.1227  0.0396 -0.0358
38184W        W81237  23.716  31.114  22.137 -0.0627 -0.2326  0.1162
38185W        W81238   0.179   5.534   9.163  0.2617  0.0633  0.3185
38186W        W81239  16.258  32.630  15.632  0.1797 -0.0181  0.0199
38187W        W81240  29.691  20.397   2.099  0.0537  0.0379 -0.1556
38188W        W81241   7.009   6.716   6.472  0.4291  0.0702  0.0324
38189W        W81242  26.999  16.165  17.875 -0.0636  0.2293  0.0550
38190W        W81243   0.772  21.402  13.738 -0.2227 -0.2189  0.0823
38191W        W81244  10.203  11.218  24.838  0.1068 -0.3515  0.0321
38192W        W81245   0.310   3.482  21.505 -0.2438  0.2682  0.2915
38193W        W81246   5.877   0.695  25.874  0.0248 -0.0730 -0.0180
38194W        W81247   5.327  14.095  22.243 -0.0879 -0.1115  0.2382
38195W        W81248   3.332  20.918  20.272 -0.4482  0.1741  0.1680
38196W        W81249  10.459  30.516  16.956  0.0668  0.1413  0.0598
38197W        W81250   9.765   5.836   2.839 -0.0873 -0.1181 -0.0110
38198W        W81251   2.675  16.451  15.796  0.2138  0.0223  0.0964
38199W        W81252  33.072   7.042   3.459  0.3041 -0.3828  0.0996
38200W        W81253   4.135  29.640  23.776  0.0017 -0.1725 -0.1079
38201W        W81254   7.995   8.099  14.633  0.4002 -0.1481  0.1352
38202W        W81255  21.277  32.931   5.216  0.0955 -0.1253 -0.0633
38203W        W81256   9.842   1.047   4.916 -0.1395  0.4446 -0.0012
38204W        W81257   3.347  23.245  19.555 -0.0342 -0.0992  0.3459
38205W        W81258  25.265  10.042  22.670  0.2072  0.2507 -0.2616
38206W        W81259   4.636  17.303  21.776 -0.0564 -0.2351 -0.0346
38207W        W81260  30.164  28.851   2.797 -0.2193 -0.0623 -0.1017
38208W        W81261  11.515   4.522   2.964 -0.1852 -0.1868  0.0174
38209W        W81262  24.041  28.021   1.832 -0.0406  0.0931 -0.2447
38210W        W81263  21.074   6.913  28.473  0.1014  0.0360  0.0447
38211W        W81264   7.878   4.540  14.532  0.0084 -0.1939 -0.0505
38212W        W81265   9.007   0.167  26.077 -0.1733  0.1761 -0.1087
38213W        W81266  22.297   3.602  13.433  0.2413  0.0057 -0.0393
38214W        W81267   5.442  29.624  13.791 -0.1819 -0.1650 -0.1116
38215W        W81268  17.157   3.424   8.883  0.3162  0.0531 -0.0560
38216W        W81269   6.314  29.595   5.125  0.0476 -0.1688  0.2768
38217W        W81270  26.347  30.896  15.415  0.0143 -0.0575  0.2201
38218W        W81271   6.687   9.822   5.463  0.2775 -0.0803 -0.0229
38219W        W81272  29.676  16.385  19.452  0.1638 -0.0449 -0.1944
38220W        W81273  21.511  15.266  13.364 -0.2209  0.1405  0.2113
38221W        W81274  12.947  13.680  20.143 -0.0578 -0.4098 -0.0757
38222W        W81275   2.586   5.321  21.932 -0.0119  0.3139  0.0908
38223W        W81276  19.907  33.111  25.696  0.1258  0.0185 -0.2417
38224W        W81277   5.163  15.045  15.947 -0.2240 -0.2175 -0.0142
38225W        W81278  18.399   0.409  18.225 -0.0731  0.0016  0.0025
38226W        W81279  13.680  10.799  24.913 -0.0643 -0.0160 -0.0558
38227W        W81280   1.063  24.604   2.981 -0.5019  0.0676 -0.1972
38228W        W81281   3.653  16.103  17.618 -0.2512 -0.0096  0.3294
38229W        W81282   4.244  14.187  16.011  0.1885 -0.0947  0.0976
38230W        W81283  10.210   5.525   2.727  0.4303  0.4528 -0.0663
38231W        W81284  27.999  29.853  15.134 -0.0043  0.0404 -0.0929
38232W        W81285  18.574  10.840  22.623  0.0936 -0.3617  0.0701
38233W        W81286   4.154  32.127  17.189  0.2104  0.0586 -0.0278
38234W        W81287   4.321  10.311  16.403  0.1770 -0.1734 -0.0949
38235W        W81288   4.873  33.416   2.096 -0.1822  0.1060  0.1053
38236W        W81289   6.160  32.987   0.234 -0.0470  0.0469 -0.0357
38237W        W81290  30.017  24.346  16.235  0.2215 -0.1242 -0.2177
38238W        W81291   0.581  33.242  19.637  0.1318  0.1236 -0.1245
38239W        W81292   8.979   5.179   8.799  0.0558 -0.0917  0.1272
38240W        W81293   5.670  14.098  23.111  0.0758  0.0554  0.3101
38241W        W81294  23.998   2.616   9.044  0.2291 -0.0949 -0.0851
38242W        W81295  27.599  10.346  24.698 -0.1757  0.1496  0.1140
38243W        W81296  12.665  33.604  21.812 -0.2956  0.2461  0.2054
38244W        W81297  31.660   0.248  28.359  0.0836 -0.2438 -0.0782
38245W        W81298  11.317   7.306  15.153 -0.0451 -0.1933 -0.3003
38246W        W81299   6.508  11.681  15.250 -0.0928  0.2131  0.2375
38247W        W81300   5.105  29.356  26.760  0.1377  0.2461  0.0275
38248W        W81301  15.150  25.677  20.391  0.2167  0.1138  0.0489
38249W        W81302  20.192  33.390   2.680  0.1121  0.1107 -0.0305
38250W        W81303  32.624  31.231  26.047  0.2423  0.0727  0.1549
38251W        W81304  21.547  29.082  15.073  0.2315 -0.1221 -0.2486
38252W        W81305  32.915  28.484  13.808 -0.1231 -0.0787  0.1752
38253W        W81306  31.773   8.027  15.770 -0.0662 -0.1981  0.1752
38254W        W81307   1.503  14.724  18.300 -0.1136 -0.1028  0.3047
38255W        W81308  24.051  23.282  24.615  0.4365 -0.0885 -0.0195
38256W        W81309  25.463  23.803  17.735  0.2327 -0.3569 -0.0222
38257W        W81310   6.165  33.238  14.172  0.0070  0.0171  0.1484
38258W        W81311  13.155  16.764  22.875 -0.0161  0.0330 -0.0326
38259W        W81312  12.825  33.233  26.354 -0.0649  0.0213 -0.2451
38260W        W81313   8.730  13.071  25.134  0.0429 -0.1327 -0.1446
38261W        W81314  15.036  13.381  28.080 -0.2499  0.2216 -0.1744
38262W        W81315  11.273   3.903  24.878 -0.2342  0.1724  0.1318
38263W        W81316  23.413   3.703  15.276 -0.1710 -0.1975 -0.1792
38264W        W81317  28.064  10.635   3.249  0.4060 -0.1354  0.1197
38265W        W81318   3.371  33.724  27.064 -0.0371 -0.2588 -0.3851
38266W        W81319  28.255   7.479  23.817 -0.1291 -0.3027  0.1960
38267W        W81320  13.319   2.154  23.599 -0.3841  0.1387 -0.0062
38268W        W81321  10.910   7.807  19.902  0.0958 -0.2762  0.0296
38269W        W81322   4.149  16.758  14.584 -0.1240  0.1051 -0.2810
38270W        W81323  10.643   5.711   0.356  0.0368  0.0328 -0.0528
38271W        W81324  15.520  34.036  27.330 -0.0880 -0.3183  0.0906
38272W        W81325  15.350   2.884   1.312  0.0667 -0.3118 -0.0469
38273W        W81326  15.037   4.339   0.323 -0.1467  0.3280 -0.0186
38274W        W81327   9.378  21.155  18.984 -0.0504  0.1554 -0.0250
38275W        W81328  15.913  10.021  14.756  0.3456  0.0802 -0.1574
38276W        W81329  31.292  25.332  21.360 -0.1155  0.3256 -0.1153
38277W        W81330  16.222  18.384  27.835 -0.0894  0.3893  0.0688
38278W        W81331  34.229   4.315  23.792 -0.0334 -0.0586  0.0170
38279W        W81332  15.361   6.952   2.730 -0.0784 -0.2440 -0.1520
38280W        W81333  29.749  24.243  24.063  0.3162 -0.3323 -0.3096
38281W        W81334  29.069   4.531  24.113 -0.0907  0.0752  0.0140
38282W        W81335   5.860   0.162  23.098  0.1012  0.0344 -0.4234
38283W        W81336  31.121   5.137   9.936  0.1941  0.1785 -0.0025
38284W        W81337   4.523   2.920  18.177 -0.1477  0.1370 -0.0994
38285W        W81338  11.905   9.411   4.476  0.1868  0.0847  0.2848
38286W        W81339  10.727  11.507  16.629  0.2134 -0.1550 -0.2513
38287W        W81340   0.051  28.532  15.084  0.0356 -0.1992  0.0071
38288W        W81341  24.956   6.871   1.358 -0.1694 -0.0977  0.1314
38289W        W81342  27.682  20.676  24.361  0.1153  0.1801  0.0073
38290W        W81343  12.932  15.020   0.100  0.0810  0.0023  0.2053
38291W        W81344  31.366   4.781  24.638 -0.1168 -0.1475  0.1102
38292W        W81345  13.087  24.740  14.417  0.0769  0.1557 -0.2819
38293W        W81346   3.860  23.680   5.739 -0.1083 -0.2161 -0.3457
38294W        W81347  17.233  30.151  18.120 -0.0167  0.1728  0.2116
38295W        W81348  16.515  25.045  28.517 -0.2078 -0.2125 -0.1531
38296W        W81349  25.158   3.534  22.600  0.3029 -0.0036 -0.0857
38297W        W81350  34.667  22.927  17.897  0.3842  0.0581 -0.0298
38298W        W81351  10.861   3.358  26.642 -0.0158  0.1369  0.0699
38299W        W81352   4.602   2.269  18.450 -0.2818 -0.1515  0.1425
38300W        W81353   6.966   7.013  28.753  0.1356  0.1278  0.0662
38301W        W81354   9.381   0.825  23.882 -0.0840 -0.3609  0.0045
38302W        W81355  31.978   8.446   9.845  0.2265 -0.3188  0.0827
38303W        W81356   4.953  11.303  14.534  0.1314 -0.1139  0.2214
38304W        W81357  23.343  15.753  14.659 -0.0431 -0.0490 -0.1110
38305W        W81358  13.064  12.918  27.329  0.4084  0.1878 -0.1620
38306W        W81359  23.395   1.730  16.441 -0.0652  0.0963 -0.1336
38307W        W81360   0.838   7.686  28.951  0.1598 -0.2029  0.0456
38308W        W81361  33.870   1.127  17.560  0.1230 -0.0497 -0.0262
38309W        W81362   2.797  16.444  23.242  0.1960 -0.0661  0.4869
38310W        W81363   0.527  32.735  21.419 -0.1635 -0.0602 -0.5414
38311W        W81364   7.101   2.724  16.843 -0.0902 -0.0657  0.1375
38312W        W81365  11.156   7.608   4.526  0.0733 -0.0273  0.3308
38313W        W81366  30.083   6.292  28.736  0.1229  0.1773  0.0752
38314W        W81367  14.307   8.967  23.411 -0.0704  0.1541  0.0068
38315W        W81368  13.372  21.266   5.378 -0.0851  0.0065  0.1736
38316W        W81369  17.331   1.500  28.107  0.2256 -0.0196 -0.3174
38317W        W81370  20.437  30.039  23.848 -0.0271  0.1551  0.1311
38318W        W81371  32.284   6.902  25.106 -0.2224 -0.1653  0.1318
38319W        W81372   1.379   1.350  23.875  0.2331  0.0984 -0.1271
38320W        W81373  25.955   0.109  18.768  0.0981  0.2899  0.0892
38321W        W81374  34.080  19.211  27.777 -0.2816 -0.0920  0.0731
38322W        W81375  16.880   3.576  21.661  0.1482 -0.0579 -0.0679
38323W        W81376   3.857  21.679  24.704  0.2210  0.0307  0.4144
38324W        W81377  14.540  30.841  21.375  0.1315  0.3063 -0.4125
38325W        W81378   6.351   8.569  28.247 -0.1359 -0.1351 -0.1135
38326W        W81379   6.118  34.217   5.062 -0.4741  0.1552  0.0960
38327W        W81380   4.356  18.466  26.714  0.1407  0.1967  0.0525
38328W        W81381   8.286  14.357  17.068  0.0970  0.0991  0.0494
38329W        W81382  27.732   7.810  19.433  0.1333  0.4074  0.0137
38330W        W81383  26.185   5.328  19.442  0.1866 -0.0034 -0.1057
38331W        W81384   2.084  26.909  26.264  0.1203  0.0230  0.0593
38332W        W81385   0.605  33.904  27.006 -0.2731 -0.6502  0.3818
38333W        W81386  13.967   1.214  28.622  0.0899  0.0358  0.1364
38334W        W81387   6.400  10.715  21.495  0.2392 -0.0564  0.0150
38335W        W81388  12.281   6.834  20.639 -0.0657  0.0132 -0.2530
38336W        W81389   2.763  10.603  23.277  0.6424 -0.0269 -0.0041
38337W        W81390   4.983  32.633  21.604  0.1197  0.1645  0.3498
38338W        W81391   7.080   1.962  28.442  0.1647  0.0103  0.0789
38339W        W81392  17.156   3.570   2.365  0.1763 -0.0114  0.1560
38340W        W81393   7.579  28.874  20.904 -0.0687 -0.1074  0.2121
38341W        W81394  16.939  13.724  21.135  0.1274  0.2605  0.0313
38342W        W81395  15.017  26.524  24.804 -0.2076 -0.0552  0.0470
38343W        W81396  15.153  21.339  25.123 -0.0552 -0.4011 -0.0135
38344W        W81397  31.489  23.638  23.407  0.0004  0.2703 -0.0941
38345W        W81398  29.407  10.458  21.932 -0.2684  0.0991 -0.3062
38346W        W81399   8.226   5.283  28.326 -0.0523 -0.0315  0.3873
38347W        W81400  17.255  16.779  27.530  0.1842  0.0243  0.1948
38348W        W81401   5.799  32.751   2.846  0.0711  0.2774  0.0854
38349W        W81402  22.276   6.162  18.503  0.0025  0.0448  0.1766
38350W        W81403  17.760   7.786  21.676  0.1201  0.0942  0.0741
38351W        W81404  27.034   3.740  20.044 -0.0724 -0.0909  0.3010
38352W        W81405  16.688   1.923  25.719  0.0766 -0.0368  0.3063
38353W        W81406  11.067  14.490  24.858  0.2439  0.1668  0.1164
38354W        W81407  17.546   0.548  16.441  0.2306 -0.0508  0.0099
38355W        W81408  11.127   7.989  28.343 -0.0280  0.3279  0.0870
38356W        W81409  20.973  17.016  14.477  0.0073 -0.0760 -0.1771
38357W        W81410  31.577   7.635   6.013 -0.0515 -0.0542 -0.2833
38358W        W81411  11.372   7.137   3.266 -0.2275  0.2923 -0.1691
38359W        W81412  17.341  31.620   0.412 -0.1028 -0.1646 -0.4440
38360W        W81413  12.593   3.667  28.190 -0.1750 -0.0014  0.1982
38361W        W81414   1.497  12.158  17.587 -0.3591  0.0710 -0.1482
38362W        W81415  21.176  34.594  16.345  0.2357 -0.0550 -0.2868
38363W        W81416   7.182   6.751  27.896  0.0312  0.2598  0.0506
38364W        W81417   2.796   1.760  19.941 -0.1815  0.3595 -0.0715
38365W        W81418  30.988  11.984  19.422  0.3510  0.0862 -0.1279
38366W        W81419  17.754  24.070  28.904 -0.1826 -0.1984  0.0085
38367W        W81420  12.026  23.794  24.399  0.2528  0.3383  0.0350
38368W        W81421  10.690   6.122  14.919  0.1115  0.1033  0.2118
38369W        W81422   1.648  19.858   7.308  0.0174 -0.0623  0.1259
38370W        W81423  12.091  19.004  16.290 -0.1689 -0.3446  0.2225
38371W        W81424  15.497   9.149  15.286  0.0246 -0.1393  0.0939
38372W        W81425  21.668  16.603  18.081 -0.0741  0.2124  0.0704
38373W        W81426   1.705   8.767   6.943  0.1264 -0.2976  0.1207
38374W        W81427  31.594  32.977  14.453 -0.3488 -0.0904 -0.2749
38375W        W81428  11.768   7.389   2.926  0.0672  0.0572  0.0382
38376W        W81429   9.351   8.913   1.884 -0.0307  0.3504 -0.0344
38377W        W81430   7.403   2.121   3.440 -0.1242  0.3216  0.2623
38378W        W81431  11.081   4.549  14.759 -0.0267 -0.2343 -0.2619
38379W        W81432  14.652  31.648  18.255  0.0150  0.1458  0.1555
38380W        W81433  16.357  13.043   1.132  0.3108  0.1820 -0.0008
38381W        W81434  34.489  20.150  15.563  0.0708 -0.1633  0.1857
38382W        W81435  14.334  29.823  23.521 -0.0958 -0.4756 -0.2531
38383W        W81436  15.172  10.683  20.283 -0.0369 -0.1304 -0.0976
38384W        W81437   7.404  10.217  15.473  0.0667 -0.0643 -0.1247
38385W        W81438  23.768   0.489  19.632  0.0667 -0.0170  0.1017
38386W        W81439   5.223   1.537  18.819 -0.1947  0.3457  0.1854
38387W        W81440  33.033  13.101  16.977 -0.1778 -0.2626  0.4380
38388W        W81441  27.173   5.142  19.960 -0.0106 -0.2186  0.1234
38389W        W81442   6.129  12.349  25.030  0.1175 -0.0649 -0.0149
38390W        W81443   4.480   0.620  14.298  0.0943 -0.0369 -0.0768
38391W        W81444   4.077  11.975  27.671 -0.1878 -0.1864 -0.1107
38392W        W81445   8.967   6.375   5.857  0.1866 -0.0202  0.0153
38393W        W81446  11.157   3.739  29.109  0.2296  0.0686 -0.1831
38394W        W81447  16.841  25.433   4.351  0.2905  0.1517 -0.0983
38395W        W81448   3.601  26.389  22.325  0.4362 -0.0023  0.1065
38396W        W81449  12.280  17.956   0.521 -0.0809  0.0549  0.0426
38397W        W81450  33.978  10.577  15.393  0.1595 -0.3598  0.1031
38398W        W81451  11.625   4.026  26.293 -0.2264  0.1472  0.2523
38399W        W81452   2.493   8.967  15.736 -0.0580  0.0752  0.0989
38400W        W81453  12.463   0.222  14.918 -0.4177 -0.0282  0.0864
38401W        W81454   7.135   6.482  17.303  0.0506 -0.4252  0.1608
38402W        W81455  21.951   4.305   0.957 -0.5032 -0.1067 -0.1224
38403W        W81456  15.435  11.949  15.848 -0.0660  0.2255  0.0114
38404W        W81457  18.460  12.164  21.251 -0.1049 -0.2323  0.0428
38405W        W81458  11.749   7.070  18.169 -0.2154  0.2085 -0.0505
38406W        W81459   8.739   3.468  24.526  0.0853  0.3150  0.0703
38407W        W81460  10.019   4.534   0.927  0.2335 -0.1028  0.0173
38408W        W81461  27.739   1.735  10.339  0.2559  0.0555  0.2610
38409W        W81462  31.371   3.091  24.274  0.0677 -0.1545  0.1079
38410W        W81463   4.709  12.395  20.617  0.0459 -0.3164 -0.0712
38411W        W81464  19.917  27.738  16.496 -0.4538 -0.1851  0.1324
38412W        W81465  14.195  34.248   0.954 -0.0852 -0.0840  0.0990
38413W        W81466  20.334   1.091   6.395 -0.1933  0.3482  0.0225
38414W        W81467   5.470   6.700  20.243  0.1311 -0.0793 -0.2880
38415W        W81468  34.552   3.547  21.095  0.2085  0.2239  0.2637
38416W        W81469  21.942   4.439  27.755  0.0539 -0.1002 -0.0529
38417W        W81470  34.231  19.035  21.540  0.3723  0.0860  0.2589
38418W        W81471  21.098   2.704   3.192 -0.0934  0.1756  0.1766
38419W        W81472  10.704  13.450  19.709  0.2205 -0.1087 -0.0872
38420W        W81473   0.331   3.766  21.106 -0.2320 -0.0332  0.0879
38421W        W81474   7.942  19.419  21.960 -0.4952  0.1645 -0.0257
38422W        W81475   6.870   3.452  15.860  0.1828  0.3548 -0.0290
38423W        W81476  15.464   4.000  29.051 -0.0227 -0.2089  0.0343
38424W        W81477  28.636   8.533  20.089 -0.3453 -0.0177  0.2301
38425W        W81478  11.556  32.973   1.548  0.0333 -0.1081 -0.1556
38426W        W81479   1.596   6.460  25.161 -0.1808  0.0458 -0.0322
38427W        W81480   4.493   0.343   6.876  0.0220 -0.0146  0.0072
38428W        W81481   2.664   0.969   4.254  0.2380  0.0954  0.0574
38429W        W81482  17.273   2.569   6.155 -0.0534  0.1084 -0.0879
38430W        W81483  29.636  17.367   1.879 -0.0382  0.0582 -0.2509
38431W        W81484  16.330  32.949  24.041  0.0833  0.2123 -0.3494
38432W        W81485  14.976  12.881   2.318 -0.1313  0.1076 -0.2120
38433W        W81486   1.564   2.666  16.224  0.1351 -0.0642 -0.3320
38434W        W81487   5.476   8.479  21.947 -0.0145 -0.2862 -0.2853
38435W        W81488  14.903   3.674  15.526 -0.0405 -0.0719 -0.0795
38436W        W81489  21.430  29.681   3.804  0.0418 -0.0860 -0.2182
38437W        W81490  12.892  13.083   7.085 -0.1657 -0.1722  0.2375
38438W        W81491  24.543   3.581  23.695  0.2839  0.0589  0.0172
38439W        W81492   8.846   2.709  29.080  0.3623 -0.0874  0.0423
38440W        W81493  22.341  10.303  20.159  0.1030 -0.0019  0.0119
38441W        W81494  22.001  15.588  15.313 -0.2238 -0.1202  0.1404
38442W        W81495   5.965  14.088  16.175  0.0614  0.0935  0.0909
38443W        W81496  22.244   9.761  19.731  0.0463 -0.5375  0.1829
38444W        W81497  15.468  24.706  23.281 -0.1653  0.0769  0.3665
38445W        W81498  31.219   1.143   4.545  0.0083  0.3447 -0.0293
38446W        W81499   5.413   8.714  23.390 -0.1836 -0.4808  0.1515
38447W        W81500  23.158   2.485   0.264 -0.3599  0.1748 -0.1897
38448W        W81501   7.547   3.501  25.984 -0.0328 -0.0250  0.1079
38449W        W81502  17.244   0.964   2.533  0.2052 -0.1658  0.0449
38450W        W81503  17.380  10.323  18.942 -0.2682  0.0774 -0.1743
38451W        W81504  32.805   4.909  14.133  0.0020  0.2057 -0.2055
38452W        W81505   6.066  16.917   6.242 -0.0609  0.0486 -0.0403
38453W        W81506  12.244  19.622  18.824  0.0391  0.0536  0.1971
38454W        W81507   5.065  20.794  15.187 -0.0487  0.1548  0.0482
38455W        W81508  25.942  18.165  20.769 -0.2710 -0.0476  0.1092
38456W        W81509  23.544  27.747  22.422  0.2709 -0.2040 -0.0815
38457W        W81510  12.445  32.654   9.011 -0.0373 -0.1555 -0.1329
38458W        W81511  23.565   3.452  18.941 -0.2221  0.0362 -0.0284
38459W        W81512  15.954   8.615  16.889  0.0387 -0.1314 -0.1583
38460W        W81513   5.413  20.102  17.760  0.2028  0.3887  0.1537
38461W        W81514   4.903   2.854  19.447  0.0137  0.0975  0.0959
38462W        W81515   7.938  27.772  25.110 -0.1031  0.0528 -0.1846
38463W        W81516  11.912  20.940  14.430 -0.1065  0.2861 -0.3400
38464W        W81517   1.859  25.108  23.494  0.0374 -0.0384 -0.0778
38465W        W81518  28.087   7.721   2.317 -0.4063 -0.1875  0.2091
38466W        W81519  33.599  15.012   4.953 -0.2896 -0.1919  0.0737
38467W        W81520  13.465  11.403  22.905 -0.0401 -0.0127  0.0021
38468W        W81521   8.512   7.626   3.212 -0.1174  0.2226 -0.3246
38469W        W81522  11.756  10.434  24.115  0.0272  0.1353  0.0132
38470W        W81523   9.965  29.392   4.516  0.2678 -0.0917  0.0176
38471W        W81524  22.429  26.996   6.806 -0.0948 -0.3650  0.2126
38472W        W81525  19.079  31.602  17.326 -0.0969  0.3318 -0.0864
38473W        W81526   5.700  17.046  16.199  0.0926 -0.1791  0.2176
38474W        W81527   3.711  12.987  20.792 -0.0397 -0.2075  0.0548
38475W        W81528  15.516   9.684  22.686  0.2125  0.1994  0.0824
38476W        W81529  22.194  27.902  18.581 -0.2150  0.0265 -0.1538
38477W        W81530  22.101  20.277  24.215  0.1473  0.1830 -0.4041
38478W        W81531   5.940   1.035  15.095  0.2374 -0.1859 -0.0757
38479W        W81532   6.959  12.175   6.042 -0.1327 -0.0356 -0.0820
38480W        W81533  18.436  33.346  23.203  0.3741 -0.1706 -0.0838
38481W        W81534   0.502   9.778  14.337 -0.0099 -0.0617  0.2301
38482W        W81535  20.364   2.590   0.399 -0.3206 -0.1864 -0.3317
38483W        W81536  28.270  15.136  17.478 -0.0668 -0.0060 -0.0407
38484W        W81537  33.563  27.015   9.377 -0.1089 -0.1900  0.0030
38485W        W81538  17.530  34.302  27.227  0.2898  0.2871  0.0419
38486W        W81539  25.906  30.447   1.769  0.0586  0.0709  0.0760
38487W        W81540  15.762   4.496  18.555  0.1710  0.1581 -0.1200
38488W        W81541  23.508   9.202  22.339  0.1230  0.1754 -0.0301
38489W        W81542   4.023   5.217  19.528  0.1464  0.1202  0.0487
38490W        W81543   1.646  10.793   4.783  0.1417  0.1720 -0.0056
38491W        W81544  34.200  24.237  19.511  0.2265  0.2322  0.0414
38492W        W81545  14.992  12.233  17.525 -0.0339 -0.3413  0.0552
38493W        W81546   2.480  11.743  27.798  0.1564 -0.1487  0.0295
38494W        W81547  31.617  34.114  16.643 -0.0243 -0.0576  0.1888
38495W        W81548  19.684   8.212  28.823 -0.2006 -0.0767  0.2618
38496W        W81549  25.556   1.953  28.337  0.1267 -0.1147 -0.0779
38497W        W81550  21.025   1.744  28.749  0.2516 -0.1997  0.0065
38498W        W81551  23.221   3.570   1.450  0.0248  0.0421 -0.0699
38499W        W81552   9.380  10.774  15.839  0.0484  0.2183  0.0723
38500W        W81553   2.399   8.657   3.863  0.2695 -0.2307 -0.1955
38501W        W81554   1.959  15.822  24.521  0.1930  0.2908  0.1571
38502W        W81555  10.040   8.079  27.143  0.1017  0.0580  0.1779
38503W        W81556   7.575   0.363   7.604 -0.1833  0.0484  0.0210
38504W        W81557  13.040  31.514  22.491 -0.0645 -0.1424  0.2018
38505W        W81558   1.051   5.584   4.609 -0.3068  0.1413 -0.0058
38506W        W81559  23.417  11.507  18.127 -0.0303  0.2205 -0.0098
38507W        W81560  10.944  24.500   0.445 -0.1159  0.0270 -0.0125
38508W        W81561   3.195  17.734   1.689  0.4413  0.1371  0.1959
38509W        W81562   1.366  17.164  26.482 -0.1945  0.1044  0.0250
38510W        W81563   2.475   3.524   9.456 -0.1152  0.0254 -0.1862
38511W        W81564  27.146  17.493   7.790  0.1111  0.1474 -0.0835
38512W        W81565  31.384   9.241  24.202 -0.0126 -0.2678 -0.0561
38513W        W81566   3.417  24.057   0.959 -0.2273 -0.2900 -0.0284
38514W        W81567  12.456  10.643  15.701  0.0973  0.0834 -0.0931
38515W        W81568   4.999  33.411  24.185 -0.1827 -0.3814  0.1755
38516W        W81569   4.224   0.850  23.964  0.2071  0.0364 -0.0459
38517W        W81570   3.512   6.309  24.480  0.1820  0.2828 -0.1548
38518W        W81571  21.332  19.336   1.336 -0.0050 -0.3698 -0.4557
38519W        W81572   8.044   1.653   6.501 -0.3081  0.1583 -0.0319
38520W        W81573   6.786  14.917   0.666  0.3157 -0.2119 -0.0622
38521W        W81574   0.221   0.789  20.322  0.0301 -0.2286  0.0117
38522W        W81575  13.915  26.245  21.220  0.0001 -0.1145 -0.1278
38523W        W81576   3.998   3.066  18.087 -0.0843 -0.0228 -0.3236
38524W        W81577   9.991   8.322  24.015  0.0729  0.0637  0.1439
38525W        W81578  14.675   5.858  25.251  0.3181 -0.1669  0.0645
38526W        W81579  32.628  19.028  18.718 -0.3016 -0.1929  0.0313
38527W        W81580   0.073  19.955   2.681  0.1980  0.1375 -0.1535
38528W        W81581   5.294   3.826  23.241 -0.1808 -0.1409  0.1087
38529W        W81582   4.303   9.640  20.793 -0.2175  0.0597  0.0990
38530W        W81583  11.610  17.323  28.159 -0.1528  0.4064 -0.2341
38531W        W81584   8.529   5.616  28.684 -0.0121 -0.1959  0.3287
38532W        W81585   5.612  33.492  20.397  0.1101  0.0180  0.1233
38533W        W81586  20.018   4.564  16.337 -0.1272  0.0497 -0.3818
38534W        W81587   8.250   9.990  16.494  0.1864 -0.0945 -0.0532
38535W        W81588  13.779  27.692  17.124  0.0024  0.0551  0.1747
38536W        W81589   3.914  25.188   5.814  0.2234 -0.2966  0.1627
38537W        W81590  24.733   6.107  24.229 -0.1894 -0.0242  0.4919
38538W        W81591  33.389  24.682  23.457 -0.1252  0.1105  0.0525
38539W        W81592   4.511  27.319  15.997 -0.2269  0.0917 -0.1335
38540W        W81593   1.193  12.417  22.078  0.4033  0.0260  0.0805
38541W        W81594  27.314   2.576  28.495 -0.0667  0.1642  0.0220
38542W        W81595   4.749   3.265   0.490  0.1188  0.1823 -0.1019
38543W        W81596   4.028  10.574  17.684 -0.0480 -0.2986 -0.2330
38544W        W81597  34.123   2.889  18.653  0.2347 -0.3320  0.3004
38545W        W81598  15.919  12.596  23.700 -0.0222 -0.0234 -0.0951
38546W        W81599  23.607   4.455   2.075  0.3000  0.3980 -0.0533
38547W        W81600  32.657  28.838   7.284  0.1332  0.3033  0.0213
38548W        W81601   5.831  13.930   6.061 -0.0406 -0.1176 -0.0035
38549W        W81602  14.942  26.019  14.684  0.0446  0.2480 -0.0430
38550W        W81603  13.848  12.923  22.853  0.2461 -0.1030  0.0317
38551W        W81604  18.994  33.706  17.851  0.1521 -0.1007  0.3311
38552W        W81605   5.069   7.805  10.025 -0.0257 -0.0231 -0.1182
38553W        W81606   7.886  27.543  18.022 -0.0448 -0.1378  0.1350
38554W        W81607  20.731   7.884  23.441  0.0775 -0.0180 -0.0774
38555W        W81608   1.436   5.809   1.319 -0.1865 -0.0853  0.0268
38556W        W81609  26.754  11.480  25.958 -0.2520  0.0148 -0.0273
38557W        W81610   7.799   8.850  16.530 -0.1199  0.1724 -0.2050
38558W        W81611  11.746   9.819  26.672 -0.2064 -0.3341 -0.0150
38559W        W81612   2.215  22.435  17.932 -0.0429  0.0317 -0.0016
38560W        W81613   8.978  33.936  17.095  0.2289  0.1094 -0.2693
38561W        W81614   1.506  13.088  19.481 -0.0199  0.1413  0.0156
38562W        W81615  29.805   2.437  19.895  0.1296  0.0222  0.2409
38563W        W81616  14.737  30.171  23.423 -0.2692  0.1398 -0.0937
38564W        W81617  10.411   4.850  22.198 -0.1714  0.1520  0.2541
38565W        W81618  20.538   5.367  25.696 -0.1593 -0.3384 -0.3813
38566W        W81619  15.084  32.077  16.462 -0.0402  0.0414  0.0401
38567W        W81620   5.968   5.670  28.853 -0.1178  0.1110  0.1684
38568W        W81621  28.372  21.877  17.868  0.2484  0.1841  0.2293
38569W        W81622   0.985   4.158  21.924 -0.1802 -0.1069 -0.0836
38570W        W81623  21.100  11.076  21.928 -0.0543 -0.1594  0.0846
38571W        W81624  10.559  23.928  16.142 -0.0354  0.1187 -0.5078
38572W        W81625  32.090  11.863  26.461  0.0166 -0.0063  0.3495
38573W        W81626  11.733  12.730  17.036 -0.0887 -0.3347  0.0307
38574W        W81627  29.797   0.206  26.252 -0.1757  0.1484 -0.2803
38575W        W81628   1.595   9.490   3.248  0.2274  0.0037  0.0229
38576W        W81629  23.460   9.772  16.542 -0.2223  0.0712 -0.0996
38577W        W81630  34.171   6.265  17.384 -0.1909 -0.0026  0.0478
38578W        W81631  17.268   5.256   1.349 -0.0106 -0.0134 -0.0707
38579W        W81632  16.820   3.143  20.976  0.2787 -0.2965 -0.2882
38580W        W81633  18.845   9.813  15.119  0.3315 -0.2598 -0.2755
38581W        W81634  10.374   3.091  22.262 -0.3419 -0.2107 -0.0617
38582W        W81635  10.685   2.543   3.401 -0.2796  0.0287 -0.2232
38583W        W81636  14.594   0.295   2.587 -0.0332 -0.1766 -0.3018
38584W        W81637  18.288  28.749  24.393  0.4670  0.2632 -0.2784
38585W        W81638  11.815   1.040  14.036 -0.2514 -0.0589 -0.2326
38586W        W81639  13.049   7.068  21.041 -0.2899  0.0474  0.1868
38587W        W81640   8.144  13.745  27.125 -0.2017  0.4552 -0.0979
38588W        W81641  13.015   0.108  26.256  0.0154  0.4283 -0.0736
38589W        W81642  13.798  25.537  16.274 -0.0176  0.1250 -0.0474
38590W        W81643   4.103   3.452  25.023 -0.1123  0.3564 -0.2524
38591W        W81644  29.724  19.023  28.809  0.0665 -0.0961  0.0378
38592W        W81645  24.690  31.472   5.096  0.1190  0.0515  0.3485
38593W        W81646   6.251  25.456  15.325 -0.1653 -0.1744 -0.0346
38594W        W81647  22.089  30.998   4.332  0.1803  0.0561  0.3751
38595W        W81648   9.623  13.284  25.647  0.1410 -0.0446  0.1658
38596W        W81649  30.180   4.472  18.295 -0.0931 -0.0737 -0.2916
38597W        W81650   8.206   7.941   5.870  0.0684 -0.0335 -0.2618
38598W        W81651  13.066   4.917  24.750 -0.1744 -0.1277  0.0048
38599W        W81652  33.092  12.957  16.318  0.0310 -0.1194  0.3048
38600W        W81653  27.761  28.124  26.294  0.0123  0.3732 -0.0290
38601W        W81654   4.738  12.439  15.208 -0.1189  0.0949  0.0313
38602W        W81655  14.098   8.338  15.047 -0.1961  0.2098  0.0357
38603W        W81656  32.302   9.468  24.809  0.2557  0.0633  0.1238
38604W        W81657  15.156  32.542  16.377  0.0359  0.0999  0.2529
38605W        W81658  16.367   3.008  21.848  0.1429 -0.0813 -0.0291
38606W        W81659   2.080   5.783  26.088  0.0491 -0.3255  0.0872
38607W        W81660   9.088  13.331  18.437  0.0888  0.1967 -0.0064
38608W        W81661  16.733  28.722   6.857  0.0163  0.1158 -0.0373
38609W        W81662  12.579  10.450  10.449  0.1214  0.3724 -0.0846
38610W        W81663   0.054  10.401  22.843 -0.2281  0.0865 -0.2670
38611W        W81664  29.452  28.832  16.110 -0.1147 -0.0432 -0.2610
38612W        W81665  25.663  15.528  18.415 -0.0825  0.1069  0.0906
38613W        W81666   8.446   0.258  28.693 -0.1852  0.3080  0.1226
38614W        W81667  23.622  15.174   7.077  0.0065 -0.1328 -0.2588
38615W        W81668  13.242  28.651   0.544  0.2352  0.0741 -0.4039
38616W        W81669  11.379  26.987   7.980 -0.1334  0.1681  0.1672
38617W        W81670  22.917  30.875  14.384 -0.3049  0.2097  0.0122
38618W        W81671   5.245  24.263   0.143  0.0242 -0.0323  0.2225
38619W        W81672  21.388  15.324  26.554  0.0736  0.0796  0.0011
38620W        W81673   4.945  30.682   0.347  0.2113  0.0265  0.0065
38621W        W81674  26.784  15.784  23.899 -0.0702 -0.6000  0.3385
38622W        W81675   1.540  33.685  20.076 -0.2317  0.3082 -0.1186
38623W        W81676   5.550  31.895  22.236  0.1074  0.0615  0.1564
38624W        W81677   9.132  23.552  25.711 -0.2600 -0.2273  0.0752
38625W        W81678  14.254  10.490  17.185 -0.0272  0.2005 -0.0440
38626W        W81679  30.050   9.528  23.283  0.1802  0.0229  0.2609
38627W        W81680  20.146   6.826  24.512 -0.0504 -0.2536  0.1663
38628W        W81681   4.974   7.927  25.663  0.0110 -0.0178  0.0348
38629W        W81682   3.302   9.078  19.670 -0.1027  0.0031 -0.1374
38630W        W81683  15.413  11.465  19.719 -0.0096  0.0329 -0.1597
38631W        W81684   8.994  16.483  25.387  0.0558 -0.0478 -0.2253
38632W        W81685   8.198   8.171  21.368  0.3176 -0.0555  0.2368
38633W        W81686   6.219   7.793  26.315 -0.1597 -0.0058  0.1166
38634W        W81687  13.837  26.494  26.510 -0.3808  0.1603  0.0403
38635W        W81688  32.899   3.094  15.862 -0.1448  0.1377  0.0082
38636W        W81689  28.136   0.675  13.758  0.0211  0.1328 -0.0836
38637W        W81690   5.370  11.071  24.135  0.0648 -0.0058 -0.2977
38638W        W81691   5.387  28.849  24.984 -0.1144  0.2798  0.0541
38639W        W81692   1.449   3.290  15.084  0.2034  0.0066  0.3430
38640W        W81693   9.373  17.905  21.214 -0.1570  0.1266  0.1342
38641W        W81694   6.118   7.274  16.056 -0.1109 -0.0766  0.0254
38642W        W81695  21.871   1.346  23.893 -0.1066 -0.1072  0.0191
38643W        W81696  10.349   1.816   1.635  0.4154  0.3302 -0.1121
38644W        W81697  33.282   7.932   3.189 -0.3765 -0.0258  0.0746
38645W        W81698  30.935  32.904  22.170  0.0105  0.0570 -0.3140
38646W        W81699   0.277  33.372   8.026 -0.0450 -0.0520 -0.2607
38647W        W81700  28.753  12.161  18.377  0.1289  0.1787  0.0371
38648W        W81701  33.602  24.223   7.229 -0.1424  0.1988 -0.1154
38649W        W81702  20.200   3.481  22.393 -0.1668  0.0948 -0.0018
38650W        W81703  32.552  12.717  23.051 -0.1005 -0.0583 -0.0334
38651W        W81704  16.554  31.944  28.646  0.1231 -0.0875 -0.3594
38652W        W81705   2.658   8.896  17.094  0.0081 -0.0118 -0.2575
38653W        W81706  11.076   1.485   2.631 -0.3263 -0.0333  0.1891
38654W        W81707   8.952  29.856  28.845  0.0527  0.0044 -0.2391
38655W        W81708   2.799   2.712  24.541 -0.3372  0.0626  0.1530
38656W        W81709  29.086  32.958   2.911 -0.2479 -0.1902 -0.3822
38657W        W81710   7.415   1.039   5.083  0.1663 -0.1727  0.3789
38658W        W81711  20.004  11.132  20.203 -0.0599  0.0315 -0.2811
38659W        W81712   6.666  27.383   3.649  0.0359  0.2650  0.0418
38660W        W81713  30.411   9.013  26.369 -0.4069 -0.1033 -0.3626
38661W        W81714  19.589  28.012  28.030 -0.0367  0.2887  0.1952
38662W        W81715   8.315   3.311  15.013 -0.3221  0.0987  0.0181
38663W        W81716  17.904  28.188  18.120  0.0994 -0.0639  0.0517
38664W        W81717   7.050   6.726  25.268 -0.4533  0.0891 -0.0019
38665W        W81718  22.452   7.658  23.870 -0.0194 -0.1455 -0.2513
38666W        W81719  16.906  27.208   9.855  0.0976 -0.1080  0.2146
38667W        W81720   7.542  34.449   4.393 -0.0028 -0.0914  0.0087
38668W        W81721  28.327  11.475   1.635 -0.0304  0.0642 -0.0080
38669W        W81722  33.775  29.747  26.250  0.0001 -0.0460 -0.0897
38670W        W81723   7.818  27.536  16.130 -0.3309  0.1814 -0.1159
38671W        W81724  13.402  32.862   5.171 -0.0533  0.0607 -0.1263
38672W        W81725  15.237  11.017   0.468  0.0378  0.4761 -0.2627
38673W        W81726   6.478  19.757   0.292  0.4358 -0.0961  0.1835
38674W        W81727  11.717  30.865   7.453 -0.0263  0.2173 -0.1319
38675W        W81728  12.048  30.260  15.767  0.1068 -0.0572  0.0663
38676W        W81729  14.799   2.601  19.807  0.0424  0.0082 -0.3098
38677W        W81730  31.606  15.895  16.325  0.0093  0.3435 -0.0070
38678W        W81731  16.554   2.417  26.841 -0.2611 -0.3091 -0.0768
38679W        W81732  32.702  12.127  28.558 -0.3036 -0.2276 -0.0991
38680W        W81733   3.697  33.941   7.658 -0.0501  0.1158  0.0414
38681W        W81734  16.060  28.083   6.253 -0.0666  0.4015 -0.3899
38682W        W81735  14.115   2.171  27.969  0.2306  0.1472  0.2927
38683W        W81736  18.404  10.767  17.904  0.0862 -0.1327 -0.1723
38684W        W81737  32.383   3.471   2.028 -0.2282 -0.0855 -0.1909
38685W        W81738  11.355   0.397  17.322 -0.2542 -0.0692  0.2235
38686W        W81739   5.295  19.410  27.285  0.1501  0.0020 -0.0700
38687W        W81740  17.465  13.002  15.186  0.1563  0.3114 -0.2636
38688W        W81741  12.156   6.689   0.024 -0.1155  0.1473 -0.0127
38689W        W81742   7.544  20.331  14.987 -0.3298 -0.0114 -0.1950
38690W        W81743  14.400   8.583  19.251 -0.1235 -0.2189 -0.0012
38691W        W81744  33.743  19.186   4.962  0.0342  0.1177  0.3025
38692W        W81745  16.125  12.962  15.423  0.0506 -0.1187  0.0331
38693W        W81746  13.787   2.319  10.379  0.1286  0.2974  0.1821
38694W        W81747   3.801  16.422  23.200  0.0492  0.2836  0.1245
38695W        W81748   7.222  29.766  24.610  0.0566  0.1571 -0.0032
38696W        W81749   9.541  32.425  23.595  0.2095  0.2240 -0.2441
38697W        W81750   6.098  32.391   1.515  0.0562 -0.1068 -0.2582
38698W        W81751   2.724  15.781  14.601  0.1984  0.1928  0.0446
38699W        W81752  22.267  31.306   0.288 -0.0570  0.0641 -0.0840
38700W        W81753  32.162   2.730  17.724  0.1253  0.0601  0.0963
38701W        W81754  30.837  32.193   8.472 -0.1087 -0.0553  0.0412
38702W        W81755   8.893  14.357  16.432 -0.2216  0.0757  0.0065
38703W        W81756  30.714   9.770  10.202  0.0151 -0.1621  0.1583
38704W        W81757  19.166  30.235  25.476  0.3693 -0.0996  0.0805
38705W        W81758  11.957  21.037  23.330 -0.0280  0.0693  0.1238
38706W        W81759  16.507  21.975   9.761 -0.1267  0.2415 -0.3152
38707W        W81760  11.050  29.427  13.977  0.2375 -0.1245  0.1294
38708W        W81761  14.820  25.512  16.610  0.0258 -0.3617 -0.1066
38709W        W81762  30.172  18.883  17.432  0.1035 -0.2055 -0.2728
38710W        W81763  12.901   5.504   2.690  0.1990 -0.0834 -0.0425
38711W        W81764  28.785   7.781  14.588  0.0098 -0.0009 -0.0930
38712W        W81765   8.478   1.047  24.802 -0.0620 -0.0030  0.2918
38713W        W81766   4.391   6.003   8.684  0.1842  0.2566 -0.1958
38714W        W81767  20.156  19.912  25.094  0.0346 -0.0663 -0.2089
38715W        W81768  14.404  22.632  24.328 -0.0772 -0.0234 -0.3659
38716W        W81769   3.751  12.479   4.452 -0.0835 -0.2334  0.1411
38717W        W81770  31.227  33.319   8.402  0.0810 -0.1196  0.2368
38718W        W81771  10.892  31.482   6.652  0.0719 -0.1741 -0.0434
38719W        W81772  32.675  34.060   5.223 -0.1154  0.1855  0.1863
38720W        W81773   8.655  32.516  27.525 -0.0698 -0.2223 -0.0950
38721W        W81774  23.466   3.335   2.358 -0.0480 -0.1938  0.1792
38722W        W81775  30.660   8.473  26.973 -0.1285 -0.0975 -0.1543
38723W        W81776  18.755   2.273   7.005 -0.3622 -0.0689 -0.1146
38724W        W81777   1.848  18.771   6.656 -0.2727 -0.3458  0.3095
38725W        W81778  11.124   4.733  19.455 -0.2881 -0.0082  0.1097
38726W        W81779   7.520   4.811  15.498 -0.0494 -0.0247  0.3413
38727W        W81780   9.100   3.172  28.313  0.3605 -0.1151 -0.0511
38728W        W81781   9.648   7.076  16.212 -0.3618 -0.3441 -0.3792
38729W        W81782  33.817  33.954   4.608  0.1322  0.0224 -0.1830
38730W        W81783  14.897   6.198   0.468  0.1265  0.2009 -0.1218
38731W        W81784  34.287  11.301   2.335 -0.1320  0.1276 -0.0885
38732W        W81785  19.942   7.941   5.168 -0.1409 -0.2033  0.2356
38733W        W81786  11.004  25.213  20.379 -0.2933 -0.1221  0.3635
38734W        W81787  32.594  23.905  25.227  0.1691 -0.0976 -0.0680
38735W        W81788   0.622  17.773   1.270  0.0575  0.2224  0.1798
38736W        W81789  11.104   1.936   0.356 -0.1715 -0.0899 -0.2034
38737W        W81790  13.654   2.938   1.196 -0.0566 -0.2955 -0.0994
38738W        W81791   4.533   9.240   4.342  0.2865  0.4225  0.1298
38739W        W81792  31.795  18.819   0.553  0.2817 -0.1238 -0.0835
38740W        W81793  16.796  25.554  15.810 -0.2670 -0.2389  0.0748
38741W        W81794   4.811  28.472   7.800  0.1332  0.1255 -0.0026
38742W        W81795   2.804   5.331  17.737 -0.1469 -0.0033 -0.0752
38743W        W81796   7.448  11.380   9.393 -0.0483 -0.0460  0.2484
38744W        W81797  23.666  10.230   0.989  0.0216  0.0862 -0.0391
38745W        W81798  17.486   2.973  15.186 -0.0380 -0.4817 -0.1687
38746W        W81799  11.987  12.095  26.626 -0.0302 -0.1369 -0.0767
38747W        W81800  10.616  12.786   4.493  0.0451 -0.0905  0.3367
38748W        W81801  19.237  15.909  21.758 -0.3907 -0.0593 -0.1060
38749W        W81802  13.844  10.088  10.350 -0.1339 -0.0273 -0.1729
38750W        W81803  20.561  24.239   0.262  0.1942  0.1948 -0.0165
38751W        W81804  12.352   1.375  26.096  0.2774 -0.0845 -0.2331
38752W        W81805  33.113  15.273   0.455 -0.2005 -0.4695 -0.0855
38753W        W81806   9.286  27.931  25.431 -0.1443  0.1665  0.1292
38754W        W81807  12.966   3.512   2.991 -0.0647  0.0793 -0.0869
38755W        W81808  28.330  30.493  21.828  0.1181 -0.1870  0.0306
38756W        W81809   2.998   4.808  25.363 -0.1085 -0.0249 -0.0200
38757W        W81810  14.185  10.209  15.791  0.0982 -0.0372  0.0463
38758W        W81811  15.341   6.346   9.021 -0.3672 -0.3043 -0.3004
38759W        W81812  18.267   1.885  15.294  0.0719 -0.2521 -0.1520
38760W        W81813  19.408   3.813   7.451  0.3091 -0.0710 -0.0746
38761W        W81814  14.890  10.064   1.930  0.0193 -0.1638  0.2043
38762W        W81815  13.911   3.917  22.003 -0.2869 -0.2097 -0.0685
38763W        W81816  20.711   6.787   1.642  0.0090 -0.1026 -0.3237
38764W        W81817  20.792  20.373  22.268  0.3811 -0.0615  0.0383
38765W        W81818  24.585  11.956   4.126 -0.1192  0.0126 -0.1143
38766W        W81819  14.620  15.169   0.162  0.0564  0.2480  0.2433
38767W        W81820  12.541  13.319   9.042 -0.1772 -0.2699 -0.2373
38768W        W81821  17.267   9.041  16.156 -0.0308 -0.2931  0.1414
38769W        W81822  22.630  25.407  15.861  0.1219 -0.0268  0.2058
38770W        W81823  29.845   6.883  22.764 -0.1424 -0.0490 -0.1659
38771W        W81824  10.283   7.975  10.355  0.2622  0.1258  0.0672
38772W        W81825   2.019  12.663  25.495  0.0578  0.3761 -0.1771
38773W        W81826  33.535  22.178  25.657 -0.0931 -0.1681 -0.0067
38774W        W81827   8.777   2.325  18.152  0.1289  0.0424  0.0479
38775W        W81828   3.955  31.257   2.867 -0.0714 -0.4484  0.1005
38776W        W81829  13.334  10.657  17.103 -0.0179 -0.0582  0.2673
38777W        W81830   6.952   8.608   3.049  0.1110 -0.0058 -0.3032
38778W        W81831   3.785   1.635  17.397  0.1453 -0.1045  0.0767
38779W        W81832   0.991   7.590  14.183  0.1446 -0.4267 -0.0574
38780W        W81833  11.109  30.127  14.763 -0.2174 -0.0552 -0.0416
38781W        W81834  16.567  13.245   7.378  0.2852 -0.0594  0.1311
38782W        W81835   7.330   8.028   5.328  0.0784  0.0344 -0.0785
38783W        W81836  10.231   8.831  16.020  0.2220 -0.2372  0.2893
38784W        W81837  11.719  27.094  26.536  0.3385 -0.0608  0.2295
38785W        W81838   8.414   9.720  17.783  0.0969  0.0047 -0.4383
38786W        W81839   4.266   2.493  22.098 -0.1517  0.0987 -0.1153
38787W        W81840  14.500   1.502  15.939 -0.1669 -0.3445  0.0945
38788W        W81841   7.622  27.733  26.148  0.0459 -0.0425  0.1454
38789W        W81842   9.780   9.748  25.488 -0.0868 -0.1848 -0.4023
38790W        W81843  19.261  18.141  22.843 -0.2039 -0.0243 -0.0581
38791W        W81844   5.609  32.395   6.063  0.1393 -0.0014 -0.0332
38792W        W81845  16.773  29.099  17.179 -0.1650  0.2736 -0.0894
38793W        W81846   9.860   8.327  15.711 -0.3153 -0.0591 -0.0322
38794W        W81847  15.135  31.698   1.626  0.0019  0.0752 -0.1031
38795W        W81848   1.995   3.699  22.064  0.0362  0.3465 -0.0837
38796W        W81849  18.509   9.457  27.287 -0.0623  0.0280 -0.1130
38797W        W81850   9.334  13.508   4.559 -0.1945 -0.1960  0.0919
38798W        W81851  17.332   6.942  19.739 -0.1959  0.0212  0.0245
38799W        W81852   4.986  27.959  22.299  0.0007 -0.1504  0.1096
38800W        W81853   4.585   2.158   4.447 -0.0266  0.2159 -0.0608
38801W        W81854   5.522   0.902  26.732 -0.1400  0.0764  0.2582
38802W        W81855  26.597  15.882   5.783 -0.0802 -0.3014  0.0254
38803W        W81856   8.187   8.973   1.075 -0.0871  0.2076  0.3922
38804W        W81857  23.756  13.273  21.663  0.2394  0.0450 -0.2792
38805W        W81858  16.290  13.219  25.337  0.0386  0.3395 -0.2192
38806W        W81859   1.764   4.849   5.134 -0.0604 -0.1764 -0.0287
38807W        W81860   8.389   7.426  19.559 -0.2885  0.2257 -0.1310
38808W        W81861  21.672   1.939  24.759 -0.1441  0.0250 -0.0123
38809W        W81862  11.383  22.346  17.411 -0.0844  0.0126 -0.2319
38810W        W81863   6.913  32.345   8.887 -0.0530  0.3414 -0.0492
38811W        W81864  20.697  28.206   8.278  0.3446 -0.0883  0.0670
38812W        W81865   3.402   0.018  25.125 -0.0764 -0.0243 -0.1438
38813W        W81866  27.125   3.238  22.954  0.2758  0.3711 -0.1512
38814W        W81867   8.451  10.317  28.494  0.1489  0.2706  0.0200
38815W        W81868  20.427  11.871  15.668  0.1617 -0.1884 -0.1224
38816W        W81869  17.387  16.714  23.274  0.2964 -0.2216 -0.1792
38817W        W81870  10.279   3.493  10.300  0.2068 -0.0409 -0.3061
38818W        W81871  21.760   6.487   5.390  0.4778  0.3192 -0.2253
38819W        W81872   6.973   6.380   5.672 -0.2553  0.0449 -0.1632
38820W        W81873  20.043   3.814  21.992 -0.5418  0.0951 -0.1523
38821W        W81874   0.836  13.321  22.148  0.3113 -0.1359 -0.1740
38822W        W81875   9.453  32.502  22.157  0.3372  0.0086 -0.0193
38823W        W81876   5.039  30.988  29.183 -0.0371  0.0045 -0.2166
38824W        W81877   1.030   2.594  18.443  0.1562 -0.1556  0.0618
38825W        W81878  30.384  27.385   6.124 -0.0697  0.0912 -0.1906
38826W        W81879   7.923  30.468  21.952  0.3310 -0.0300  0.1350
38827W        W81880  15.963  20.390   4.085 -0.2174  0.1559  0.1337
38828W        W81881  13.605   7.626  21.723  0.1677 -0.0567 -0.3310
38829W        W81882   2.540  30.785  21.848  0.1407 -0.2602 -0.1758
38830W        W81883  10.836   7.060   9.236 -0.0494 -0.2354 -0.2549
38831W        W81884   4.542  34.649  24.109  0.2422 -0.2293  0.0833
38832W        W81885  15.773  33.709  16.211 -0.0021  0.1276 -0.5887
38833W        W81886  28.641  32.126  13.925  0.0986  0.1268 -0.3768
38834W        W81887  21.343  33.459  19.754 -0.1319  0.0734  0.0642
38835W        W81888  19.411   3.571  25.330  0.3737  0.2570 -0.1134
38836W        W81889  22.695  10.413  25.895 -0.1446 -0.3215 -0.3217
38837W        W81890  19.615   3.732  20.455 -0.0706 -0.1503 -0.4020
38838W        W81891   1.719   4.216   6.766  0.0232  0.1467 -0.1210
38839W        W81892   0.395  30.512  28.798  0.1100  0.0751  0.0844
38840W        W81893   6.865   9.330  18.634  0.0410 -0.0794 -0.0874
38841W        W81894   7.361  22.724  20.706 -0.0252 -0.0960 -0.1346
38842W        W81895  11.296  15.931   4.629 -0.0476  0.1716  0.0137
38843W        W81896  32.727   5.584   2.781 -0.3356 -0.1008 -0.1809
38844W        W81897   1.921  10.518  25.060 -0.2375 -0.1251 -0.2176
38845W        W81898  19.920   3.406  28.776  0.1332  0.3988 -0.1409
38846W        W81899   4.561   4.077  15.575 -0.1655  0.1361 -0.0326
38847W        W81900  10.429  12.915  18.029 -0.0267  0.0554 -0.2412
38848W        W81901  16.435   4.087  22.932  0.1127  0.2010  0.0316
38849W        W81902   9.690  21.748  19.788 -0.2540  0.0927  0.0235
38850W        W81903  29.947   8.923   0.117 -0.1492 -0.3321  0.2854
38851W        W81904   3.408   5.405  27.331  0.0849 -0.0674  0.1191
38852W        W81905  15.234  10.787  15.031  0.0070  0.0007 -0.0414
38853W        W81906   2.159  34.593   1.880 -0.5198  0.0489 -0.0039
38854W        W81907  21.161  12.380   5.430 -0.2022 -0.1814  0.1870
38855W        W81908  13.846   0.669  25.495 -0.2276 -0.0540  0.0188
38856W        W81909  27.814   4.695   3.378 -0.1296  0.5245 -0.3028
38857W        W81910  24.827  22.519  28.007 -0.2149 -0.1160 -0.1877
38858W        W81911   6.166  33.314  24.371 -0.1347 -0.0942  0.2496
38859W        W81912  34.219   5.458   8.808 -0.0785 -0.2107  0.0206
38860W        W81913   7.427  30.471  19.461  0.1441  0.2526  0.1466
38861W        W81914  11.873  25.104   8.088 -0.0640  0.0674  0.1346
38862W        W81915  17.921   6.442  16.585  0.0642  0.1137 -0.0783
38863W        W81916  29.726   2.502   1.083 -0.0553 -0.0385  0.1183
38864W        W81917  32.360  14.760  25.476  0.0249  0.0086 -0.1154
38865W        W81918  19.797  17.133  27.237  0.2391 -0.3342  0.2277
38866W        W81919   7.176   4.422  18.534 -0.0453  0.1745  0.2326
38867W        W81920  22.385   1.650  26.762 -0.1517  0.1445 -0.1249
38868W        W81921  11.315  17.242   2.593 -0.2028 -0.3098 -0.0060
38869W        W81922   6.992  11.136  26.882 -0.3404 -0.3303 -0.0322
38870W        W81923   1.136  15.556  27.348 -0.0785 -0.2266 -0.0974
38871W        W81924  17.372  22.348  25.591 -0.1237  0.2546 -0.1492
38872W        W81925   7.352  18.458   4.432 -0.0181  0.0183 -0.1016
38873W        W81926   9.973  17.182  19.836 -0.0794 -0.1196 -0.2451
38874W        W81927  15.320   6.827   6.692  0.2015  0.2835  0.2008
38875W        W81928  24.350  27.401   8.873 -0.0675 -0.0760  0.0559
38876W        W81929  21.009  26.605  19.746 -0.0614  0.1691 -0.0604
38877W        W81930  12.137  29.905  22.228  0.1770 -0.2517  0.0674
38878W        W81931   3.500   4.669  26.868 -0.0036  0.1951 -0.0835
38879W        W81932   7.755  18.936  19.593 -0.0790  0.0820  0.2774
38880W        W81933  21.544   0.696  27.054  0.1955  0.1363  0.1197
38881W        W81934   1.383   1.802   9.132  0.1355 -0.0793  0.0615
38882W        W81935   9.020  29.763   4.956  0.0860  0.1338  0.0614
38883W        W81936  33.881   5.197  28.659  0.0858  0.1300  0.1190
38884W        W81937  27.487   3.439  20.988 -0.2466  0.0990  0.0479
38885W        W81938  11.824  28.782  27.666  0.4182  0.0835  0.0067
38886W        W81939  23.520   2.489  24.200 -0.3312 -0.2120  0.1445
38887W        W81940   0.286  11.110   8.572 -0.1698 -0.0762  0.0750
38888W        W81941  13.032  32.070  15.763  0.0248  0.1854 -0.0437
38889W        W81942  19.080   0.708  17.405  0.1523  0.0030  0.3039
38890W        W81943   5.425   3.357   4.593 -0.0599 -0.1411 -0.2128
38891W        W81944   2.614  24.867  15.446  0.5526  0.1344 -0.2251
38892W        W81945   9.989  15.835  17.900  0.2586  0.0767  0.3828
38893W        W81946  23.228  17.787  17.502  0.0449  0.2206  0.0449
38894W        W81947  29.841  31.349   0.209 -0.1891 -0.3001 -0.2280
38895W        W81948  12.628   6.010  23.435  0.2017  0.2073 -0.0614
38896W        W81949  14.317   4.721   4.519  0.1313 -0.1560 -0.2096
38897W        W81950  17.953  31.673   8.951 -0.0538  0.2924 -0.1927
38898W        W81951  32.315  19.764  27.282  0.0758  0.0960  0.0347
38899W        W81952   7.012  14.094  15.613 -0.1019  0.0982 -0.2721
38900W        W81953  19.576   1.182   1.458 -0.0712  0.0562  0.3244
38901W        W81954  13.584  12.526  28.356 -0.0540 -0.6129 -0.1682
38902W        W81955   2.151  24.481  26.675  0.0339 -0.0242 -0.0681
38903W        W81956  12.366   5.195  16.911  0.1324  0.1088 -0.2371
38904W        W81957   2.823  30.580  19.822 -0.1339 -0.2671  0.0938
38905W        W81958   1.852  29.452   2.997  0.1012  0.0562 -0.0143
38906W        W81959  12.792   0.740  22.734 -0.2300  0.1892 -0.0510
38907W        W81960   5.583  19.486  24.498  0.1454 -0.0028  0.0143
38908W        W81961  34.600   2.861   7.888 -0.0140  0.1779  0.0135
38909W        W81962  21.721   8.898  19.916 -0.1266 -0.0164 -0.1505
38910W        W81963   6.065  19.313  21.597  0.3436 -0.0980  0.0927
38911W        W81964   5.867   0.679  28.957  0.0340 -0.2691 -0.0268
38912W        W81965  14.924   6.725   4.821 -0.1649 -0.4368  0.0686
38913W        W81966  19.883  16.036   0.714  0.1473 -0.1559  0.2919
38914W        W81967   2.065  31.074  20.640  0.3488 -0.0531  0.3409
38915W        W81968  34.258   1.665  22.190  0.0829 -0.1588  0.0153
38916W        W81969  32.995  32.825  23.808  0.2620  0.4615  0.0268
38917W        W81970  22.630   6.243   2.027 -0.0189  0.0846  0.1844
38918W        W81971   3.168  19.636  21.686  0.4707 -0.0547  0.0709
38919W        W81972  16.565   4.005   3.371  0.0652 -0.1002 -0.2858
38920W        W81973   1.823   7.091  17.278  0.2465 -0.0640  0.3217
38921W        W81974  18.639   4.444   8.489  0.2286  0.1299 -0.1410
38922W        W81975   9.792   9.910  15.181  0.0504  0.2830 -0.0645
38923W        W81976  13.584   7.474   5.583 -0.3114 -0.1502 -0.2431
38924W        W81977  18.931   3.009  21.948  0.1010  0.1860 -0.0473
38925W        W81978  13.688  33.043   7.796  0.2525  0.0231  0.2847
38926W        W81979   7.043   1.416  21.346  0.1041 -0.2019  0.0230
38927W        W81980   6.311   8.895   6.781  0.1305 -0.1902 -0.1740
38928W        W81981   2.562   4.717  19.048  0.1006  0.1329 -0.2242
38929W        W81982  22.327   8.591   4.488  0.2529 -0.0853 -0.0528
38930W        W81983  28.106   4.456  18.063 -0.0768  0.3578  0.1975
38931W        W81984  13.946  31.706  16.994  0.0515  0.2515  0.0320
38932W        W81985   0.821  22.718  27.467  0.0071 -0.1545 -0.2711
38933W        W81986  11.746   2.809  27.048  0.1183  0.0052 -0.1242
38934W        W81987  24.789  18.427   1.130 -0.1971  0.0543  0.0684
38935W        W81988   1.262   9.627  26.382  0.0941  0.1788  0.3003
38936W        W81989  29.458  34.374  23.935  0.2768 -0.4619  0.2798
38937W        W81990  21.675  14.973   1.575  0.2419 -0.2399  0.0168
38938W        W81991   9.055   7.758  17.835 -0.0748 -0.1143  0.2552
38939W        W81992   9.330  11.408  26.266  0.0497  0.2798  0.0327
38940W        W81993  14.525   2.742  19.407 -0.2831  0.2345 -0.1408
38941W        W81994  14.721   8.452  27.796 -0.0157  0.1179  0.3271
38942W        W81995  28.433   3.537  27.888 -0.0328  0.0493 -0.0734
38943W        W81996  23.628   2.889   2.598 -0.3174  0.2374  0.1187
38944W        W81997   6.094  11.635   7.300 -0.0068  0.0486  0.0197
38945W        W81998  10.455   1.272  16.105  0.0010 -0.0825  0.2695
38946W        W81999   6.703   6.581  28.833 -0.1904 -0.0998  0.0535
38947W        W82000  17.756   2.630   1.659 -0.1062 -0.1220 -0.0182
38948W        W82001  32.810   6.017   4.792 -0.0628  0.2544 -0.2622
38949W        W82002  14.505   4.046  25.403  0.2669  0.2390  0.2935
38950W        W82003  20.241  19.937  28.048 -0.0207  0.1624 -0.1794
38951W        W82004   7.831  11.864  26.295  0.0935  0.3292  0.2537
38952W        W82005  17.187   5.248  24.897  0.2745  0.3363  0.1541
38953W        W82006  29.920   9.218   6.279  0.1219  0.0502 -0.1590
38954W        W82007   4.940  10.884   0.757 -0.1209 -0.4106  0.4291
38955W        W82008  30.927   9.004   4.911  0.1873 -0.2213  0.2828
38956W        W82009   3.585  13.070  22.967 -0.0120 -0.0381  0.0159
38957W        W82010  14.898  19.618   0.906 -0.5598 -0.3526 -0.1567
38958W        W82011   7.704  22.591  22.011 -0.1723  0.0920 -0.2776
38959W        W82012  18.596   9.739  19.901 -0.0111  0.1234 -0.0924
38960W        W82013  11.388   1.069   2.592  0.1297  0.4125 -0.2023
38961W        W82014  17.966   7.994  19.641  0.1247  0.0982 -0.1479
38962W        W82015  11.167  33.015   5.953  0.0877 -0.1963 -0.0243
38963W        W82016   5.682   3.518  20.268  0.0167 -0.2794  0.0103
38964W        W82017  30.900   5.233  28.559 -0.2231  0.4783  0.0254
38965W        W82018   1.407  16.129  22.070  0.0516 -0.0334  0.2604
38966W        W82019  14.884   7.894  27.681 -0.5198  0.0361  0.0907
38967W        W82020   7.381  13.350   3.687  0.0597  0.1062 -0.0323
38968W        W82021  16.583  13.216   5.487  0.2349 -0.0454  0.0472
38969W        W82022   7.590  16.461   0.228 -0.0739  0.1422  0.0096
38970W        W82023  16.322  34.040  29.169  0.1904  0.2499  0.2113
38971W        W82024  20.184  28.831  25.241  0.1420  0.2303  0.2036
38972W        W82025  15.918   2.706   5.663  0.0472 -0.2628  0.1318
38973W        W82026  28.967  21.639   1.654 -0.1182  0.2056 -0.0232
38974W        W82027   2.816   1.564   0.490  0.0132 -0.1271  0.0212
38975W        W82028  18.100   4.691   8.514 -0.1190  0.0535  0.0227
38976W        W82029  33.233  15.202  25.662  0.4085 -0.1306  0.1080
38977W        W82030   1.306   2.928   7.451  0.1143 -0.0805 -0.1307
38978W        W82031  14.992  27.902   2.467 -0.0559  0.2048 -0.2756
38979W        W82032   8.087   9.545  22.748 -0.3753  0.1478 -0.1847
38980W        W82033   9.214  25.529  24.803 -0.0476 -0.3326 -0.3571
38981W        W82034  10.849   0.939   4.144 -0.0083  0.0525  0.2849
38982W        W82035   7.290  10.456  17.900  0.4129 -0.0331  0.1801
38983W        W82036  29.265  16.514  21.668 -0.1134  0.2429  0.0308
38984W        W82037  33.463  27.364  17.516  0.2193  0.1688 -0.2824
38985W        W82038  12.101   2.526   6.656  0.2485  0.2314 -0.2808
38986W        W82039  14.926   4.602  15.574  0.0596 -0.1372  0.1665
38987W        W82040  33.697  32.771   5.072 -0.0776 -0.1886  0.2472
38988W        W82041  10.974  14.018  17.372 -0.0409 -0.3962  0.4288
38989W        W82042   0.622  14.581  22.445 -0.1440  0.0017  0.0173
38990W        W82043  11.009  12.249   3.815 -0.0100 -0.1004  0.2857
38991W        W82044   8.525  32.975  18.161  0.0959  0.0871  0.0844
38992W        W82045   7.192  30.877   7.822 -0.0913 -0.0189  0.0647
38993W        W82046  10.042   2.534   0.565  0.0210  0.0495 -0.2440
38994W        W82047  25.085  10.887  25.523 -0.0874  0.2088 -0.0735
38995W        W82048  18.713  27.337  23.149  0.1793 -0.0045 -0.2030
38996W        W82049  15.876  16.722  23.015  0.2193 -0.0383  0.1962
38997W        W82050   5.648   5.309   0.518 -0.2922  0.0301  0.0810
38998W        W82051   3.021  21.599  15.325 -0.2025 -0.3067 -0.1061
38999W        W82052   4.163  34.039  27.797 -0.0733  0.2606 -0.0716
39000W        W82053  20.948   5.943  28.494 -0.0342 -0.1297 -0.4070
39001W        W82054   9.630  32.621  21.235 -0.2384 -0.0769 -0.0694
39002W        W82055  11.633   7.188  25.033 -0.0031 -0.1385 -0.3163
39003W        W82056  12.726  32.762  24.645 -0.0861 -0.2925  0.0447
39004W        W82057   8.541   0.675  22.799 -0.1030  0.0246 -0.1597
39005W        W82058  13.371  20.170  23.665  0.3487 -0.1690  0.1561
39006W        W82059   0.039   8.554  23.603  0.0412  0.1883  0.2462
39007W        W82060  30.323  12.370  24.852 -0.1996 -0.1169  0.2646
39008W        W82061  13.917  23.369   0.529  0.1859 -0.0305 -0.1135
39009W        W82062  12.802  33.031   1.651 -0.1074  0.0386  0.1881
39010W        W82063  12.927   3.014  28.602  0.0074 -0.2279  0.3116
39011W        W82064   1.043   5.592   6.208  0.0141 -0.0862  0.0099
39012W        W82065  28.014   7.490  18.573  0.0049 -0.0008 -0.1733
39013W        W82066  17.479  12.062  14.601  0.2611 -0.0824  0.1543
39014W        W82067  16.231   0.876   9.938 -0.1100 -0.2396 -0.1532
39015W        W82068  33.088   5.437  21.151  0.0011 -0.1096  0.0716
39016W        W82069   8.842  13.376   3.293  0.1387  0.3777  0.0513
39017W        W82070  33.090  13.964   2.056 -0.4389 -0.0497  0.0345
39018W        W82071  12.162  15.423   7.620 -0.0849 -0.1279 -0.1468
39019W        W82072  28.937  10.123  23.635  0.3556  0.1921 -0.2981
39020W        W82073   4.018  16.396  17.803  0.1013 -0.3701 -0.2333
39021W        W82074   8.345  19.745   0.029 -0.3020 -0.0426  0.2547
39022W        W82075  14.364  11.345   2.982  0.0062  0.1857  0.0804
39023W        W82076  33.090  16.034   4.291 -0.0389 -0.1149 -0.1504
39024W        W82077  15.051  12.582   4.736  0.1927  0.1314 -0.1712
39025W        W82078  12.042  12.879   0.902  0.1654  0.0607 -0.2126
39026W        W82079  27.808  17.778  21.055 -0.4722  0.1395  0.0627
39027W        W82080  18.101  33.749  23.160  0.1407 -0.3943  0.0839
39028W        W82081  28.029  10.013  24.635 -0.0694  0.2099  0.0904
39029W        W82082  10.854   4.305   3.552 -0.1108  0.0119 -0.1413
39030W        W82083  19.219  21.257  28.533 -0.4183 -0.0944 -0.1356
39031W        W82084   1.534   6.976  27.442  0.0859 -0.0145 -0.0475
39032W        W82085  10.620   9.707  20.480 -0.0494  0.0573  0.1405
39033W        W82086   8.400  11.436   2.712 -0.0550 -0.3427 -0.1725
39034W        W82087  10.662  27.261  22.340  0.0916 -0.2137  0.1702
39035W        W82088   9.501  33.563   4.785  0.1352 -0.1218  0.0972
39036W        W82089   5.548   9.281   8.785 -0.1237  0.1141 -0.1919
39037W        W82090   9.063  29.370  13.595  0.0751  0.1367  0.0655
39038W        W82091   7.615  20.267   8.943  0.2077  0.2182  0.1312
39039W        W82092  16.165  32.436  20.803 -0.1663 -0.3282 -0.2165
39040W        W82093  33.100   1.726  25.186 -0.1880 -0.2269  0.0181
39041W        W82094  15.378   9.913   9.602 -0.0023 -0.2179 -0.1712
39042W        W82095  11.594   3.561  24.678 -0.0059 -0.1557 -0.2112
39043W        W82096   4.082  14.860  19.769 -0.2068  0.0025  0.0095
39044W        W82097  12.665  33.951  20.939  0.2524 -0.2234 -0.1405
39045W        W82098  27.937  11.472   0.740  0.0161 -0.1613  0.1244
39046W        W82099  31.544  26.906  28.306 -0.0534  0.0668  0.2126
39047W        W82100  21.948  16.576  24.879  0.1155 -0.1934 -0.2031
39048W        W82101  17.970   2.995   1.940 -0.0774 -0.1237 -0.2813
39049W        W82102  25.713  13.595  24.534  0.1114  0.2071  0.1342
39050W        W82103   2.208  28.032  19.063  0.2005  0.2820 -0.0276
39051W        W82104  11.143   2.748   9.492  0.2218  0.1305 -0.0875
39052W        W82105   2.245  10.051  25.968  0.1285  0.2197 -0.1309
39053W        W82106  11.282  10.547  20.544  0.1819  0.0957 -0.5004
39054W        W82107  21.660   9.767  29.157  0.2046 -0.3837 -0.1242
39055W        W82108  12.315   8.793   3.812 -0.2345  0.1848  0.1507
39056W        W82109  17.032   1.991  24.322  0.0007  0.0637  0.1466
39057W        W82110  10.459   3.551  14.346 -0.2397  0.2980  0.1667
39058W        W82111  16.471   7.871   4.644  0.1643  0.1340 -0.0769
39059W        W82112  10.202   4.890   0.640  0.1211  0.0424 -0.0324
39060W        W82113   3.050  33.565   6.878 -0.0390  0.0151  0.3564
39061W        W82114  10.946   9.304  26.779 -0.0238 -0.2955 -0.1960
39062W        W82115  13.423  13.582  20.446  0.0335 -0.3064 -0.2909
39063W        W82116  20.970  17.947  24.911  0.1035 -0.0298 -0.1860
39064W        W82117   6.976  11.647  19.286  0.0475 -0.2261  0.1888
39065W        W82118   6.916  21.020  16.022  0.2762 -0.1742 -0.0545
39066W        W82119  16.475  26.539  22.795 -0.3343 -0.0671  0.2093
39067W        W82120  16.038  18.617  21.976  0.1859 -0.0947  0.1096
39068W        W82121  17.553  19.794   0.582  0.1457 -0.2479 -0.6309
39069W        W82122  24.747   1.437   9.674 -0.0150  0.0033 -0.2786
39070W        W82123  20.598  13.773   6.575  0.0465  0.3177  0.2811
39071W        W82124  13.370  16.344   3.007  0.4484  0.1010 -0.0242
39072W        W82125   2.811  16.825  16.241  0.1214 -0.2660 -0.0106
39073W        W82126   1.729   9.011   0.827  0.0842  0.1399 -0.1663
39074W        W82127  31.530  25.723  18.276  0.4199  0.0552  0.1671
39075W        W82128  12.267   3.722   5.574  0.2391  0.1132 -0.2375
39076W        W82129  19.969  23.790  21.040 -0.0467 -0.1925 -0.0925
39077W        W82130  24.432   8.122  17.741  0.0167  0.0753 -0.1268
39078W        W82131   8.544  33.411   8.093 -0.0710 -0.2087 -0.0843
39079W        W82132  17.695  20.666   1.754 -0.2994  0.0580  0.1777
39080W        W82133  31.093  30.548   1.207  0.1505  0.1247 -0.2570
39081W        W82134   6.032  29.633  14.207  0.2221 -0.1265  0.2341
39082W        W82135  22.315   2.291   4.735  0.2841  0.1070 -0.3069
39083W        W82136  28.918  12.151   4.679  0.1443 -0.2396 -0.0354
39084W        W82137  10.615  28.426  17.534  0.1757 -0.2106  0.2477
39085W        W82138  19.218  14.164   9.069 -0.0465 -0.0955  0.0973
39086W        W82139  12.525  29.358  16.821 -0.2090 -0.3197 -0.0166
39087W        W82140   2.888  11.892  20.602 -0.1085 -0.0074 -0.1106
39088W        W82141  14.374  23.367   3.200  0.0873  0.1952  0.0671
39089W        W82142   9.013   8.976   0.054 -0.1844 -0.1204  0.1534
39090W        W82143   9.928  18.723   0.040 -0.3442 -0.2458 -0.0568
39091W        W82144  12.502   6.297   2.335  0.0433  0.0378  0.1446
39092W        W82145   6.932  31.930   3.770  0.0980 -0.3469  0.4086
39093W        W82146  14.033   7.731  18.425 -0.2273  0.0798 -0.2649
39094W        W82147  26.904   0.035  27.695  0.0451 -0.0119  0.2855
39095W        W82148  13.530  13.459  24.061 -0.2535 -0.2203 -0.0299
39096W        W82149  31.565  13.130   1.578  0.2863  0.0143 -0.2437
39097W        W82150  24.592  15.290  21.959 -0.0177 -0.0362 -0.1234
39098W        W82151  16.395  14.381  16.178 -0.1015 -0.2458 -0.1578
39099W        W82152  32.759   4.606  26.565 -0.0371 -0.2155  0.1190
39100W        W82153   9.699   2.732  23.885  0.0951  0.0792  0.0423
39101W        W82154  30.729   7.358   8.284  0.1300  0.0993  0.0746
39102W        W82155  15.585  15.984  14.688 -0.0936 -0.0266  0.1459
39103W        W82156  32.808   6.317  20.703  0.0831 -0.0868 -0.1671
39104W        W82157  22.384   6.744   6.627  0.2485  0.2512 -0.0717
39105W        W82158  23.525   5.412  22.366 -0.0978 -0.2996 -0.2954
39106W        W82159  25.556  13.161   8.784  0.0181  0.0151 -0.0619
39107W        W82160   7.250  19.521  18.702  0.3314  0.0755  0.1765
39108W        W82161   2.813  20.053   9.364  0.0664 -0.1720 -0.0705
39109W        W82162   2.666  10.352  27.862 -0.0391 -0.0645  0.3271
39110W        W82163   8.177  29.205   0.427  0.2304 -0.3189  0.0339
39111W        W82164  13.080  30.981  22.536  0.1925  0.1831 -0.1152
39112W        W82165   0.352  16.035  23.965 -0.0940 -0.0809 -0.0639
39113W        W82166  13.064   9.933  26.955  0.1782  0.1858  0.2672
39114W        W82167   3.445  33.411  23.351  0.0969  0.1771 -0.1735
39115W        W82168   9.720   7.033  27.854 -0.0680  0.2227 -0.2875
39116W        W82169  20.169   1.232  10.061 -0.0535  0.4750  0.0170
39117W        W82170  10.261  33.824   8.394 -0.1207 -0.1165  0.0658
39118W        W82171  17.516   3.006   0.038 -0.0062  0.2876 -0.1909
39119W        W82172  18.423   6.271  22.781 -0.0564 -0.3250 -0.0988
39120W        W82173   6.106   0.685  24.600  0.0468 -0.1540  0.2006
39121W        W82174   9.185  33.933  13.939 -0.2536  0.1888 -0.0612
39122W        W82175  33.272   8.904  18.575 -0.1663 -0.3073  0.0345
39123W        W82176   5.074  23.971  22.085  0.1397 -0.3995  0.1920
39124W        W82177   8.853   0.652  24.705  0.0127  0.1398 -0.0988
39125W        W82178  29.889  13.211  22.723  0.0987  0.0253 -0.3915
39126W        W82179  17.409  16.632  13.271  0.1792  0.0382 -0.0754
39127W        W82180   4.105   9.661  22.121  0.2244 -0.2167  0.3031
39128W        W82181  18.391  32.822   5.661  0.0537 -0.0882  0.0467
39129W        W82182  25.413   1.408  14.761  0.2808  0.1662 -0.0807
39130W        W82183   9.967  33.126  19.752  0.2648  0.1884 -0.2521
39131W        W82184   8.345  26.130  20.899  0.0070  0.1069 -0.1864
39132W        W82185   7.867   8.449  27.771 -0.1605 -0.0397  0.0031
39133W        W82186  28.473  12.518  26.477 -0.1291 -0.2739 -0.3714
39134W        W82187   6.529   8.520  20.025 -0.1425 -0.3320 -0.0754
39135W        W82188  13.243   2.245  27.790  0.1538 -0.0066  0.2797
39136W        W82189  23.195   7.231  29.006  0.1405  0.1161 -0.0952
39137W        W82190   2.959  14.862  22.331 -0.0215  0.3347  0.1791
39138W        W82191  22.350   5.340  23.256  0.1682  0.0135  0.2993
39139W        W82192  32.051  27.027  19.394 -0.3097 -0.0155  0.1447
39140W        W82193   6.916  16.955  20.511 -0.0277 -0.0279 -0.1629
39141W        W82194  11.383  14.417  15.994  0.1615  0.0961 -0.0835
39142W        W82195  10.333  17.535  18.444 -0.0048 -0.0583  0.2894
39143W        W82196   9.228   9.571  18.096 -0.0629 -0.0149  0.3400
39144W        W82197   5.496  10.965  25.408  0.0835  0.4479 -0.2851
39145W        W82198  13.044  34.489  15.897 -0.2959  0.0980 -0.2930
39146W        W82199  11.509   2.916   3.169  0.1396  0.2636 -0.1180
39147W        W82200   8.805  12.479  16.873  0.2403 -0.1260  0.3894
39148W        W82201  21.770  15.048  15.983 -0.1936 -0.1203  0.1407
39149W        W82202  11.308  24.378  20.635  0.1456  0.3270 -0.1420
39150W        W82203   4.421  33.415  21.237 -0.2447  0.5014  0.2027
39151W        W82204  27.257   5.492  15.296 -0.0942  0.0958  0.0379
39152W        W82205  22.973   2.313  14.919  0.0646 -0.0054 -0.0007
39153W        W82206  13.021  31.457  21.391  0.2361  0.4546 -0.2897
39154W        W82207  12.875  17.026  15.815 -0.2563  0.1334  0.1766
39155W        W82208  13.146   8.149  24.235 -0.5028 -0.0761  0.0638
39156W        W82209   4.241  11.084  14.853 -0.1539  0.0777  0.0194
39157W        W82210  17.317   3.434  15.441 -0.0576  0.1060 -0.2026
39158W        W82211   8.729  14.242  17.303 -0.1071 -0.1155 -0.0181
39159W        W82212  13.208   0.023   3.497 -0.1952 -0.0663  0.2594
39160W        W82213  20.254   8.676  24.751  0.4777  0.3167  0.0034
39161W        W82214  33.680   4.979  26.919  0.0608 -0.1045  0.2467
39162W        W82215  18.789  21.187  15.024 -0.4704  0.1832 -0.0187
39163W        W82216   2.688  15.241  14.000  0.0896  0.0519 -0.1378
39164W        W82217  23.817   1.254  20.152 -0.1830 -0.1366 -0.0218
39165W        W82218   2.087   0.757  20.858  0.2644  0.4239  0.1942
39166W        W82219   5.185   1.339  28.874 -0.1531 -0.2049 -0.0186
39167W        W82220  12.304   9.271  25.458  0.0283 -0.2168 -0.0025
39168W        W82221   7.465  27.188  21.001 -0.1819  0.0092  0.3763
39169W        W82222  15.384  34.067  18.455  0.2723  0.0447  0.0378
39170W        W82223  29.204  27.894  23.200 -0.1549  0.1201  0.1204
39171W        W82224  31.563   5.802  23.625 -0.2559  0.1901  0.1067
39172W        W82225  23.194   0.784  16.439 -0.1977 -0.1275 -0.0929
39173W        W82226  17.280   6.504  24.919  0.0264  0.1145 -0.0366
39174W        W82227  19.545   0.212  14.276  0.5053  0.2229  0.0290
39175W        W82228  11.442  11.392  21.029 -0.1890 -0.2067  0.1810
39176W        W82229   7.839  20.260  17.132 -0.1416  0.0668 -0.1547
39177W        W82230  18.186  13.459  18.708  0.0755 -0.1939 -0.3418
39178W        W82231  13.919  10.564  18.212 -0.3417 -0.0208 -0.0183
39179W        W82232   5.309   5.668   0.722 -0.0208  0.0739  0.1099
39180W        W82233  28.738  12.561  24.947 -0.0483  0.1052  0.1810
39181W        W82234  22.838   8.153  26.359 -0.0219 -0.1645  0.0306
39182W        W82235  34.548   5.932  16.602  0.3821  0.0969  0.0586
39183W        W82236  12.931  14.435  26.617  0.1047  0.4204  0.0613
39184W        W82237  23.492  34.277   0.153  0.0609  0.0102 -0.1008
39185W        W82238  17.214  11.199   4.767 -0.1595 -0.3741 -0.2258
39186W        W82239  10.693  30.236  22.619 -0.0718 -0.0315 -0.0535
39187W        W82240  26.597  10.339  20.524 -0.1040 -0.0105 -0.1477
39188W        W82241  21.062  19.380  18.263 -0.1401  0.0252 -0.1722
39189W        W82242  23.873  13.852  21.801 -0.1569  0.2447 -0.2194
39190W        W82243   0.069  25.845  14.739  0.0929 -0.0920 -0.3306
39191W        W82244  13.903   9.706  19.223 -0.0888 -0.2882 -0.1780
39192W        W82245  28.056  28.378  24.403  0.1980 -0.2366 -0.3049
39193W        W82246  12.290  16.009  15.502  0.0120  0.2436  0.0842
39194W        W82247  26.548  33.500  27.840 -0.0657  0.1918  0.2826
39195W        W82248   8.671  10.103  17.626 -0.0874 -0.2076  0.2244
39196W        W82249  14.166   9.904  23.327  0.3855  0.2962  0.1789
39197W        W82250  16.729   6.288  19.344  0.0463  0.0200 -0.3346
39198W        W82251   3.205  33.854  19.420  0.0529  0.2903 -0.3244
39199W        W82252   3.002   1.120   2.994 -0.0796  0.0834  0.3678
39200W        W82253  32.289  13.993  16.823 -0.1534 -0.1656 -0.0128
39201W        W82254   5.269  26.611  23.766  0.1581  0.3011  0.2565
39202W        W82255  32.400   9.441   7.905  0.2452  0.1323 -0.2352
39203W        W82256  25.255  33.566   1.225  0.0115 -0.0476  0.1890
39204W        W82257  12.690  11.646  18.630 -0.1508 -0.0089 -0.2206
39205W        W82258  16.860  31.449  22.736 -0.0318  0.0856  0.0458
39206W        W82259  16.555  11.727  21.023 -0.2370  0.1923  0.4696
39207W        W82260  18.864  23.812  24.958 -0.0810 -0.0411 -0.1825
39208W        W82261   4.705  33.786  15.928 -0.2846  0.0674 -0.0541
39209W        W82262  27.393  10.772  23.814 -0.0222  0.1765  0.0574
39210W        W82263   0.711  32.713  13.891  0.0940 -0.3262 -0.0513
39211W        W82264   9.220   2.720  16.556 -0.0036 -0.4039 -0.0436
39212W        W82265   6.259   9.548  22.401 -0.2194  0.3260  0.0389
39213W        W82266   2.638  29.291  28.314  0.0882 -0.1349 -0.5575
39214W        W82267  31.409  19.106  18.091  0.2441  0.1052 -0.2388
39215W        W82268   6.526   2.015  10.421 -0.2933  0.1881  0.1130
39216W        W82269  31.695   9.636   5.185 -0.0612 -0.0096 -0.3299
39217W        W82270   6.884   9.111  14.750  0.1698  0.1973  0.0100
39218W        W82271  14.385   2.704  26.840 -0.1490 -0.0225  0.4352
39219W        W82272  17.991  32.687  19.455  0.0568 -0.3305  0.0687
39220W        W82273  10.761  13.066  21.933  0.0474 -0.1200  0.1051
39221W        W82274   8.933  10.349  17.140  0.1708  0.3891  0.1998
39222W        W82275  19.572  22.770   2.991 -0.2632 -0.2846  0.1413
39223W        W82276  12.101   7.131  23.214  0.1699  0.0301  0.2056
39224W        W82277   2.373   5.211  14.559 -0.1045  0.2382 -0.2686
39225W        W82278   2.577  11.791  25.485 -0.3130  0.2684  0.1185
39226W        W82279  14.844  24.040  19.773  0.2038  0.0059  0.2059
39227W        W82280   9.676   1.962  14.129 -0.2754 -0.3181 -0.2112
39228W        W82281   1.320  26.048  21.117 -0.4903  0.4523  0.0237
39229W        W82282   3.369  21.641  26.997  0.0174  0.2378  0.1824
39230W        W82283  10.744  32.423  16.547  0.3863 -0.2564  0.0964
39231W        W82284   6.606  24.838  15.953  0.0676 -0.2089  0.2573
39232W        W82285  16.898   1.897  19.195 -0.1315  0.2991  0.0277
39233W        W82286  30.458  16.650  18.903  0.1152  0.0419 -0.3524
39234W        W82287  13.262  30.905   6.246 -0.0205  0.0516 -0.1242
39235W        W82288  11.689  33.697  20.449 -0.0993  0.3330 -0.1682
39236W        W82289   6.535   0.861   6.031 -0.2245  0.0384  0.0042
39237W        W82290  22.579   3.376  25.830  0.0508 -0.0879 -0.0007
39238W        W82291  17.787  23.040  22.369 -0.0103 -0.1248 -0.1277
39239W        W82292   7.724   9.016  24.577  0.4209  0.1012 -0.1772
39240W        W82293  13.844   2.193  22.792  0.2194  0.2964  0.2495
39241W        W82294  11.330  30.005  20.319 -0.0593  0.0276  0.1417
39242W        W82295   7.571   2.166  18.742  0.0470  0.0669  0.0240
39243W        W82296  29.711  15.764  20.276  0.0204  0.1100  0.0842
39244W        W82297  14.293  30.228  18.652  0.0726  0.0129  0.1427
39245W        W82298   5.530  23.899  27.918  0.0470 -0.0816  0.0835
39246W        W82299  10.840  33.974   0.523 -0.2281  0.0418 -0.0335
39247W        W82300  17.330   0.636   5.621 -0.1478  0.1399  0.0144
39248W        W82301  13.728  16.959  14.317 -0.0548  0.1849 -0.3461
39249W        W82302  29.357   2.632  22.421 -0.0353 -0.1857 -0.3175
39250W        W82303  34.094   5.368  16.016 -0.2682  0.1249  0.0383
39251W        W82304   5.857   9.778  16.421 -0.1055 -0.1635 -0.0537
39252W        W82305  16.760   6.594  23.965  0.1389  0.0013 -0.2930
39253W        W82306   9.876  30.312  19.848  0.1321  0.0917  0.0030
39254W        W82307   9.491  11.628  25.821  0.1540 -0.0778 -0.1917
39255W        W82308  10.605   7.553  18.325  0.1168 -0.2898  0.2287
39256W        W82309  22.725  24.744  20.920 -0.1217  0.2473 -0.1676
39257W        W82310  23.747  31.928   4.289 -0.0793 -0.0517 -0.2174
39258W        W82311  18.428  13.791  23.459 -0.2495 -0.2043 -0.1373
39259W        W82312   6.104   1.539  28.527 -0.0350  0.0569 -0.1813
39260W        W82313  22.466   5.807  23.082  0.3225 -0.1109  0.0068
39261W        W82314  27.872  31.916  15.165 -0.0355  0.0921  0.0275
39262W        W82315  13.364  13.897  21.011  0.1216 -0.4549 -0.0785
39263W        W82316  11.353   3.084  15.146 -0.0596 -0.1855 -0.0672
39264W        W82317  18.321  26.651   3.655  0.2361 -0.3427  0.0449
39265W        W82318   5.801  11.247  21.056  0.0479  0.1932 -0.1654
39266W        W82319  32.639   4.469  18.735  0.0912 -0.1253 -0.1861
39267W        W82320  17.701   0.673   0.851  0.0976  0.2816 -0.1473
39268W        W82321   9.894   6.417  19.652 -0.0311  0.2223  0.1447
39269W        W82322   6.033  22.428  25.485 -0.4967  0.1581 -0.2370
39270W        W82323  17.466   0.257  16.040  0.2352  0.0668  0.0409
39271W        W82324  12.896   2.720  13.223 -0.2910  0.3090  0.1088
39272W        W82325   6.553  25.198  14.987 -0.0671 -0.4156  0.1061
39273W        W82326   9.229   5.140   0.994 -0.1143 -0.0752  0.2562
39274W        W82327  12.459  33.406  22.737 -0.1454 -0.0765 -0.0317
39275W        W82328   5.575   6.763  22.134  0.1664  0.0591  0.0826
39276W        W82329   2.870  28.440  18.453 -0.6170 -0.0530  0.3431
39277W        W82330   0.797   2.674  19.442  0.0654 -0.0402 -0.1512
39278W        W82331   4.317  30.002  17.208 -0.0106  0.0976  0.1111
39279W        W82332  22.259   2.851  22.362 -0.1345 -0.0456  0.0897
39280W        W82333   7.550  31.088  20.661  0.1139 -0.1028 -0.0999
39281W        W82334  31.589   3.877  19.648 -0.1826 -0.0653 -0.1309
39282W        W82335  34.123  32.190  22.925  0.0935 -0.0140  0.2293
39283W        W82336  23.923   8.944  26.461 -0.1509  0.0917  0.3312
39284W        W82337   7.868   9.167  24.131 -0.3415 -0.2690 -0.0290
39285W        W82338   9.988   5.456  28.490  0.0459  0.2447 -0.0926
39286W        W82339   6.423  28.811  14.412  0.0286 -0.0212 -0.0172
39287W        W82340   5.390   5.357  21.333  0.2917  0.2645  0.0107
39288W        W82341  16.202   4.531  19.428 -0.3404  0.0771 -0.1091
39289W        W82342  14.976   0.804  20.660 -0.1243  0.0477 -0.2932
39290W        W82343  19.753  10.979  27.984  0.4362  0.0713 -0.6040
39291W        W82344  12.089   5.656   5.364 -0.0812  0.0949 -0.3804
39292W        W82345  24.512   4.260  29.167 -0.2886 -0.0763  0.1342
39293W        W82346  10.180  17.655  15.536 -0.1278  0.1074 -0.0835
39294W        W82347  21.501  14.201  26.520  0.1550  0.3071 -0.0423
39295W        W82348  11.220  15.356  19.467  0.1462 -0.2104  0.1272
39296W        W82349   9.361  11.458  19.642 -0.0996 -0.0580 -0.0918
39297W        W82350  10.942  20.274  15.202  0.0871 -0.1353 -0.2788
39298W        W82351   3.053  12.938  28.018  0.0877  0.0933  0.0356
39299W        W82352  25.390  27.358  14.747 -0.1683 -0.2213  0.0702
39300W        W82353   9.567  11.369  18.481  0.0098  0.0961 -0.1170
39301W        W82354  28.374  23.484  16.618 -0.0581 -0.1737 -0.0749
39302W        W82355   5.640  24.756  27.388  0.1925 -0.0946  0.2917
39303W        W82356  23.588  34.373  26.128 -0.0916 -0.0672  0.0265
39304W        W82357   8.515  34.166  28.251  0.2124  0.0960  0.2192
39305W        W82358   5.740  27.420  26.352  0.0554 -0.1727 -0.0035
39306W        W82359  11.595   5.592  18.180  0.2015 -0.0746 -0.2653
39307W        W82360  13.497   1.806  20.041 -0.0619 -0.0004  0.0749
39308W        W82361   9.575  12.557  22.724 -0.2096 -0.0535 -0.1294
39309W        W82362   4.452   9.396  20.189  0.0417 -0.4146 -0.0102
39310W        W82363   9.686  13.890  17.316  0.0464 -0.4433  0.1967
39311W        W82364   1.047   0.124  20.288  0.0973  0.1676  0.0366
39312W        W82365  27.159  32.573  28.463 -0.0168  0.2813 -0.1526
39313W        W82366  21.601  33.587  17.733 -0.3672 -0.1158  0.2132
39314W        W82367   2.151  15.333  20.551 -0.1321 -0.0896 -0.0964
39315W        W82368  22.967  17.984  15.020  0.1936 -0.3849  0.1078
39316W        W82369  22.001  13.328  23.804  0.0683 -0.8230 -0.1616
39317W        W82370  13.035  11.941   5.595  0.0752 -0.2145 -0.0288
39318W        W82371  29.014   2.304  14.319 -0.0065  0.1509 -0.0544
39319W        W82372  11.531   0.078  16.873  0.2055 -0.1491 -0.0214
39320W        W82373  14.988  28.622  15.375  0.0838  0.0367  0.2511
39321W        W82374  24.823   3.413  25.313  0.2689  0.0526 -0.2657
39322W        W82375  23.620  34.295  22.446 -0.3989  0.2851  0.4800
39323W        W82376  24.120  19.006  27.832  0.2989 -0.1086 -0.3496
39324W        W82377   8.112  16.947  21.082 -0.0373 -0.0359 -0.0244
39325W        W82378  14.129   5.689  27.204 -0.0084  0.3681 -0.2297
39326W        W82379  15.971  15.246  13.872  0.2157 -0.1333  0.1568
39327W        W82380  17.473  29.909  22.912  0.0208  0.2317  0.0454
39328W        W82381  16.727   0.144  28.989 -0.1321 -0.0543 -0.2519
39329W        W82382  13.674  19.889  14.644 -0.3829  0.2280  0.0136
39330W        W82383   1.754  21.616  21.321 -0.1438  0.0568 -0.1287
39331W        W82384  26.930  13.056   0.317  0.1209 -0.1624 -0.1688
39332W        W82385   4.441   5.893  21.091 -0.0703 -0.2031  0.0170
39333W        W82386   5.408  24.204  19.928  0.0082  0.0616 -0.2480
39334W        W82387  14.716  30.697  17.120 -0.1338 -0.0156 -0.5782
39335W        W82388   7.045  11.692  19.799  0.1933  0.1070 -0.2047
39336W        W82389  31.116   6.135  23.395 -0.1766  0.1357  0.0599
39337W        W82390  17.044  17.264  14.340 -0.0018  0.1594 -0.1223
39338W        W82391  14.877   6.624  19.599 -0.0907 -0.3256 -0.1095
39339W        W82392   9.519  34.011  18.387 -0.0154 -0.4141 -0.3298
39340W        W82393  28.995   8.991  15.726 -0.2961  0.0793  0.1179
39341W        W82394   8.847   3.065   1.231 -0.0233  0.2696 -0.1524
39342W        W82395   9.917  32.278  21.979  0.0677 -0.0867 -0.0958
39343W        W82396   7.284   7.141  27.576 -0.0347 -0.1262  0.0747
39344W        W82397  26.387  13.498  16.517 -0.0853  0.1183 -0.2387
39345W        W82398  11.339  20.675  16.782 -0.2273  0.0815 -0.1807
39346W        W82399  34.305  34.203  15.317  0.1311 -0.0429  0.3123
39347W        W82400   6.244   2.345  15.861 -0.0322 -0.0612  0.1211
39348W        W82401  19.410  15.824  15.165 -0.0717  0.0134  0.0487
39349W        W82402  32.622  22.142  16.218  0.0586  0.3943 -0.0027
39350W        W82403  13.167  32.570  17.112  0.1832  0.2736  0.2409
39351W        W82404  29.220   7.503   8.347  0.1945  0.2157  0.0806
39352W        W82405  10.657   0.539  20.987  0.2328  0.2777 -0.1353
39353W        W82406  20.398   8.933  19.941 -0.0417 -0.2928 -0.0983
39354W        W82407   2.928  10.862  13.978 -0.1822  0.3948 -0.1511
39355W        W82408   5.479  19.065  15.679 -0.1639  0.0229 -0.1828
39356W        W82409   0.093  20.152  14.162  0.0197  0.2953  0.1942
39357W        W82410  18.610  24.582  22.653  0.1097  0.1068  0.0217
39358W        W82411   6.839  10.438  16.486  0.0304  0.4992 -0.0940
39359W        W82412   7.507  21.057   5.057 -0.0566 -0.0831 -0.0592
39360W        W82413  29.518   7.420   2.832  0.2982 -0.3373 -0.1988
39361W        W82414  11.230  32.410  24.427 -0.1233 -0.4757 -0.0474
39362W        W82415  12.580  31.324  26.622 -0.1989  0.2088  0.0692
39363W        W82416   8.552  29.890  18.695  0.2134 -0.0575 -0.0190
39364W        W82417  25.308  14.177  17.206  0.4456 -0.2431 -0.1128
39365W        W82418  20.010   6.904   1.030 -0.1166  0.0914  0.0873
39366W        W82419   3.683  34.602  19.645  0.2203  0.1190  0.0430
39367W        W82420  21.138  12.347  14.968 -0.0628  0.0802 -0.2929
39368W        W82421  21.910  13.389  14.836 -0.0973 -0.1367  0.2212
39369W        W82422   5.517  33.317  21.001 -0.1233  0.0706  0.1965
39370W        W82423  18.340   6.055  14.890 -0.0186  0.2284  0.0833
39371W        W82424   9.005   9.450  22.323  0.1345  0.1671  0.0093
39372W        W82425  11.061  31.769  23.718 -0.1433 -0.3982 -0.0441
39373W        W82426  34.262  14.099  16.730  0.1445 -0.2659 -0.0127
39374W        W82427   1.317  34.156  22.818 -0.1262  0.2703  0.1126
39375W        W82428  20.433   4.263  25.635 -0.0335 -0.2658 -0.3772
39376W        W82429   4.157   3.310  19.546  0.0853  0.1955 -0.1709
39377W        W82430  30.513  18.777  23.317  0.2060 -0.0089 -0.2292
39378W        W82431   1.654  15.383   8.782 -0.1012  0.2985  0.1833
39379W        W82432   8.645  24.626  17.701 -0.1357  0.1309  0.0391
39380W        W82433  34.133   6.430  14.887  0.0745 -0.1465 -0.1911
39381W        W82434  10.121   4.319  16.715 -0.2676  0.0194  0.2768
39382W        W82435  32.649  13.473  22.973  0.1084 -0.5067 -0.1191
39383W        W82436  11.150   0.272  20.929 -0.0849 -0.0315 -0.2339
39384W        W82437  13.800   9.689  25.618  0.1435  0.0674  0.0443
39385W        W82438  10.049  28.968  25.696  0.1586 -0.1298  0.0246
39386W        W82439  20.124  28.233  29.172  0.2063  0.2722  0.0531
39387W        W82440  28.805  19.147  20.137  0.0573  0.0155 -0.0713
39388W        W82441   9.538   2.277  20.051 -0.2554 -0.5448 -0.1212
39389W        W82442   4.173   6.716  18.377  0.1565 -0.0268 -0.1661
39390W        W82443   3.176  22.115  15.598 -0.3304 -0.1743  0.1233
39391W        W82444  10.200  13.265  15.319 -0.1929 -0.3628 -0.1478
39392W        W82445   7.729   7.042   0.099  0.1540 -0.2398  0.3885
39393W        W82446  12.500   2.518  26.604  0.0284 -0.2560  0.4444
39394W        W82447  25.204  30.601  21.099 -0.2360 -0.1220 -0.1453
39395W        W82448  33.278  19.754  13.900  0.3258  0.3006  0.0915
39396W        W82449   2.806   2.439  23.184 -0.2477  0.3350  0.0397
39397W        W82450   3.810   7.789  16.873  0.0392  0.2300  0.1570
39398W        W82451  33.772  14.134  21.537 -0.1256  0.0444  0.1612
39399W        W82452   9.360  21.987  20.243  0.0511 -0.0031  0.0702
39400W        W82453  19.437  20.431  14.857 -0.1738 -0.1196  0.0267
39401W        W82454   5.000  33.104   5.186 -0.0220 -0.4011  0.0412
39402W        W82455   4.472   7.551  26.197 -0.0031  0.2692  0.3111
39403W        W82456  14.195   9.498  23.744  0.0409  0.2257 -0.1721
39404W        W82457   5.323  29.757  21.157 -0.1995 -0.1523 -0.0513
39405W        W82458  29.755   9.314  26.741  0.0144 -0.1516 -0.3053
39406W        W82459  11.299  13.983  16.924  0.0569  0.3557  0.0600
39407W        W82460   7.056   2.513  25.639  0.0213  0.0231  0.2483
39408W        W82461   4.581  23.489  24.682  0.1846  0.3986 -0.1842
39409W        W82462  13.691   6.018   6.437  0.0972  0.3463 -0.2447
39410W        W82463   9.053  14.804  16.590  0.0017  0.0226 -0.1198
39411W        W82464   6.831  17.173   0.051  0.1799 -0.0849 -0.0837
39412W        W82465  33.533  31.190  19.710  0.1937  0.1489  0.0351
39413W        W82466   6.339  13.399   7.081  0.1087 -0.0754 -0.0379
39414W        W82467  15.794   7.331   1.204 -0.3237 -0.1438 -0.1304
39415W        W82468   2.961  34.363  19.494 -0.0304  0.1794  0.0083
39416W        W82469  29.590  19.537  28.986  0.4537 -0.1129 -0.1869
39417W        W82470   3.237  15.643  14.854  0.1629  0.0755  0.0565
39418W        W82471  13.377  14.879  23.329  0.0547  0.0483  0.1867
39419W        W82472   6.866  15.330   8.807 -0.1269  0.1496  0.0276
39420W        W82473  34.291  15.774  17.635  0.0894  0.2347  0.1673
39421W        W82474   4.224   0.189  14.575 -0.1539 -0.0769 -0.0918
39422W        W82475  14.888   7.344  26.299  0.2372 -0.1424 -0.1451
39423W        W82476  21.722  33.064  21.667 -0.1497 -0.1918 -0.0284
39424W        W82477  34.058   0.129  23.417  0.1996  0.0627  0.2567
39425W        W82478  10.672   7.845  15.665 -0.0088 -0.2230 -0.0426
39426W        W82479  31.835  29.000  15.521  0.3786  0.0587 -0.0762
39427W        W82480  15.153  31.712  28.771 -0.3171  0.0347 -0.0042
39428W        W82481   0.556   5.538  19.737 -0.0515 -0.0377 -0.0737
39429W        W82482  14.231   5.830  25.682 -0.1585  0.2117 -0.3688
39430W        W82483   1.643   6.928  21.466 -0.0066  0.0051  0.1197
39431W        W82484  14.863  11.791  24.693  0.0212  0.0930 -0.1939
39432W        W82485  20.060  11.271  16.454  0.1569  0.0317  0.0873
39433W        W82486  13.576   7.967  25.523 -0.1422 -0.2349 -0.1230
39434W        W82487  10.118  25.037  22.948 -0.1158  0.0801 -0.2468
39435W        W82488  10.767  13.190  17.706  0.1339 -0.1508  0.0414
39436W        W82489   7.976   7.962  17.095  0.0975  0.1886 -0.0307
39437W        W82490  14.342  12.854  19.927  0.2187  0.1785  0.0499
39438W        W82491  16.857  26.233  16.855 -0.1046 -0.1222  0.3574
39439W        W82492  10.617   2.296  18.185  0.0601  0.3194 -0.2995
39440W        W82493  28.051   9.418  14.868  0.1521  0.1180 -0.2592
39441W        W82494  11.787  30.172   3.062 -0.0582 -0.3145 -0.1815
39442W        W82495   8.257   4.629  23.815  0.0984  0.3930  0.2621
39443W        W82496  12.093   7.695  16.075 -0.1044  0.2039  0.0796
39444W        W82497  15.172   8.993   4.878  0.1192 -0.2421 -0.0040
39445W        W82498   9.020  32.921  14.788  0.1162 -0.0751 -0.0150
39446W        W82499   7.663   2.431  24.818  0.0758  0.0932  0.4405
39447W        W82500  10.898   7.911   2.840 -0.0654  0.1830  0.1311
39448W        W82501  13.998  34.030  26.695 -0.0933  0.0199 -0.2171
39449W        W82502   4.714   2.878   0.092  0.0623 -0.2513  0.0780
39450W        W82503  20.109   9.844  14.754  0.0083  0.3119  0.1176
39451W        W82504   2.283  10.224  24.133 -0.1979  0.0970 -0.0283
39452W        W82505  10.388   3.003  17.694 -0.0955  0.2388 -0.1508
39453W        W82506  31.788   0.893  15.676  0.2605  0.3404  0.0504
39454W        W82507  11.297  13.391  22.744  0.0004 -0.0514 -0.1242
39455W        W82508  33.162  14.525  14.150  0.0937 -0.2555  0.2445
39456W        W82509   5.538  24.847  14.587  0.1057  0.0782 -0.3353
39457W        W82510  16.228   2.837  19.444 -0.2059 -0.0221  0.0259
39458W        W82511   0.486  13.772   0.184  0.1500  0.0778 -0.1378
39459W        W82512   5.093  14.273  16.721 -0.0334  0.0935  0.0122
39460W        W82513  14.755  31.232   2.180 -0.0588 -0.1683 -0.1783
39461W        W82514   2.857  20.777  23.027 -0.1304 -0.2349  0.4429
39462W        W82515   3.101   5.701  13.794  0.0420 -0.0434  0.1140
39463W        W82516  33.886  14.495  15.603  0.0605 -0.0147  0.1194
39464W        W82517  20.401  26.608  20.994  0.0045 -0.1931 -0.1425
39465W        W82518   8.483   3.912  27.218 -0.2091 -0.0948 -0.0113
39466W        W82519  10.659   4.515  10.155 -0.0771 -0.2287 -0.0375
39467W        W82520  32.625  32.317  15.130  0.0597  0.0410  0.1611
39468W        W82521  11.523  26.372  25.990  0.2329  0.0489 -0.0921
39469W        W82522  11.388  12.231  15.576  0.1257  0.2433  0.0545
39470W        W82523   5.053  15.514  16.358  0.0580  0.0197  0.0119
39471W        W82524   4.639  15.373  16.589  0.0100 -0.1571  0.1191
39472W        W82525  19.388   3.245  21.875 -0.0052  0.2864 -0.0258
39473W        W82526   0.929  21.828  19.235 -0.1125 -0.0363 -0.1947
39474W        W82527   3.103   1.527  16.293 -0.0496 -0.0153 -0.0866
39475W        W82528   8.637   6.749  18.995 -0.0059 -0.0149 -0.0760
39476W        W82529  27.604  25.674  26.152  0.1757  0.0712  0.0030
39477W        W82530   4.274  28.937  23.196 -0.4019 -0.1580  0.1073
39478W        W82531  12.381   2.975  19.025 -0.0965 -0.2015  0.2229
39479W        W82532  11.079   7.986  22.628 -0.0399 -0.1195  0.0325
39480W        W82533   8.241   3.397  15.944  0.0244 -0.1438  0.1022
39481W        W82534   1.500   7.216  16.331  0.2138  0.0878  0.0907
39482W        W82535  17.202  11.389   1.611  0.1442 -0.1698  0.0458
39483W        W82536   1.241  33.731  16.507 -0.0219  0.3167 -0.1005
39484W        W82537  30.534  14.947   0.395  0.2278  0.2401  0.2093
39485W        W82538  11.277  16.036  23.283  0.1214  0.2995 -0.3131
39486W        W82539  14.102  18.207  14.514  0.0856 -0.1641  0.1981
39487W        W82540  11.872  27.034  27.157  0.2888  0.0379 -0.1812
39488W        W82541   8.043  12.677  21.156  0.0441  0.0281  0.1862
39489W        W82542  12.766  32.915  19.573 -0.3625 -0.0298  0.1588
39490W        W82543   8.752  19.003  21.078 -0.1715  0.0285 -0.1477
39491W        W82544  29.875   1.726  22.119  0.0482 -0.0859  0.0869
39492W        W82545   8.221  30.825  28.973 -0.0696 -0.0638  0.0261
39493W        W82546  10.376   8.541  15.550  0.1627  0.3541  0.1850
39494W        W82547  16.295  33.618  19.895  0.0354  0.0530  0.0251
39495W        W82548  29.516  24.441  17.174 -0.3205 -0.1945 -0.0498
39496W        W82549   2.482  31.336  17.379  0.0915  0.1097 -0.0275
39497W        W82550  31.015  16.637  18.147  0.0418 -0.2439  0.3917
39498W        W82551  13.684  15.813  16.998  0.1728  0.3419 -0.0727
39499W        W82552  33.286   7.891  20.067 -0.1121  0.1376 -0.1664
39500W        W82553  10.138  29.941  18.450 -0.1817  0.0394  0.2655
39501W        W82554   7.434  16.322  23.332  0.1025  0.1304 -0.3333
39502W        W82555   0.867  29.959  14.299 -0.2100 -0.0278  0.0161
39503W        W82556  32.994  26.979  13.887  0.1306  0.0567  0.1035
39504W        W82557  30.915   5.672  14.314 -0.2987  0.2088 -0.3815
39505W        W82558  16.543  10.139  18.520 -0.0033  0.2716  0.0842
39506W        W82559  15.934  10.310  28.513 -0.2348  0.0094  0.0234
39507W        W82560  18.243  25.168  27.061 -0.1467 -0.1776 -0.2250
39508W        W82561   9.212  11.735  22.631  0.0173  0.0610 -0.1191
39509W        W82562  29.139  23.000  25.882 -0.1942 -0.0449  0.1398
39510W        W82563   7.519  13.005  28.490  0.2435  0.2074 -0.0684
39511W        W82564  12.238  29.503  24.112  0.0172 -0.3188  0.1065
39512W        W82565  24.957   1.673  25.931  0.1926 -0.2396 -0.0469
39513W        W82566  30.687  28.284  13.747 -0.1423 -0.0996 -0.2704
39514W        W82567  17.997  15.643   5.733  0.0431 -0.2913 -0.2062
39515W        W82568  12.027  17.662  24.014 -0.1744  0.1460  0.0965
39516W        W82569  24.155  19.720  15.405 -0.3113 -0.0329  0.1208
39517W        W82570  12.722   7.046  18.626 -0.0313  0.1531  0.0052
39518W        W82571  15.201  18.175  15.222 -0.1024 -0.0217  0.0812
39519W        W82572  16.374  11.683   1.683 -0.1866 -0.1587 -0.0535
39520W        W82573   4.787   5.606  15.038  0.0022 -0.0853  0.4585
39521W        W82574  14.456   4.977  24.276  0.4462  0.5766 -0.2318
39522W        W82575  19.140  27.538  25.787 -0.1935  0.1372 -0.1837
39523W        W82576  11.268   9.642   7.371  0.0568 -0.0391 -0.0882
39524W        W82577  27.094  32.417  15.536 -0.0237  0.2830  0.0796
39525W        W82578  23.717   2.538  20.006  0.0048  0.0316  0.3194
39526W        W82579   0.726  22.332  23.218 -0.0784  0.1821  0.0193
39527W        W82580   6.747  15.007   2.485 -0.1532 -0.2409 -0.2812
39528W        W82581   7.742  16.951  20.299 -0.3282 -0.0038 -0.2998
39529W        W82582  10.790  11.493  17.214 -0.1555 -0.1170  0.1581
39530W        W82583  12.790  16.114  17.418  0.0374 -0.1049  0.2188
39531W        W82584  11.815  10.543  25.667 -0.3131 -0.1535  0.1374
39532W        W82585  18.860  11.521  18.625 -0.0456  0.1464 -0.0933
39533W        W82586   9.706   2.752  19.705 -0.1941  0.0717 -0.3562
39534W        W82587   1.828   6.603  17.009  0.1022  0.1160  0.0655
39535W        W82588   4.696   3.576  26.566 -0.0969  0.2991 -0.0513
39536W        W82589   3.817  12.828   1.675 -0.2401 -0.1640 -0.1476
39537W        W82590   9.053  13.183  24.811 -0.1037 -0.3962 -0.0854
39538W        W82591   6.575   9.779  24.674  0.3103 -0.2728  0.4719
39539W        W82592  15.684   3.525  20.413 -0.3117 -0.1049  0.2856
39540W        W82593  13.360   1.339   2.350 -0.3065 -0.0079 -0.0481
39541W        W82594   0.287  18.900  21.187  0.1214 -0.1967 -0.0665
39542W        W82595  15.893   3.153  19.611 -0.0087  0.3127  0.1419
39543W        W82596  13.385  16.204  25.829 -0.0330 -0.3420  0.1043
39544W        W82597  11.879  13.542  15.453  0.1599  0.2260  0.0296
39545W        W82598   8.748   9.088  18.305  0.0018  0.0672  0.2457
39546W        W82599  11.806  31.106  22.133 -0.0206 -0.3096 -0.1767
39547W        W82600   2.180   7.741  23.936  0.0180  0.1100 -0.0261
39548W        W82601   3.651   3.336  14.761  0.3181 -0.0201  0.0133
39549W        W82602   2.764  12.740   7.592 -0.0148 -0.0775  0.2218
39550W        W82603  19.283  21.903  21.295 -0.1538 -0.0312  0.0059
39551W        W82604  32.038   7.887  20.571 -0.1672 -0.0290  0.0278
39552W        W82605   6.772   7.680  15.892 -0.0282 -0.1281  0.3433
39553W        W82606  17.074   5.290  16.409 -0.1011 -0.1973  0.0916
39554W        W82607   9.346   1.476  16.015 -0.0318 -0.1348  0.0850
39555W        W82608  14.393  24.366   5.136  0.0801 -0.0657 -0.3215
39556W        W82609  11.196  19.608  14.961  0.2546  0.0990 -0.0348
39557W        W82610  25.546   3.457   6.293  0.1734  0.2036 -0.1131
39558W        W82611   1.228   6.555   9.106  0.0457  0.1906  0.0426
39559W        W82612  23.101   3.875  17.165  0.2046 -0.0836 -0.1546
39560W        W82613   7.677   9.615  16.942 -0.3014 -0.0138 -0.1770
39561W        W82614   7.259   5.670  14.896  0.1533  0.0536 -0.0987
39562W        W82615   7.738  20.027  17.539  0.0998  0.1032 -0.2668
39563W        W82616  27.598   6.270  21.097  0.0830  0.0946 -0.2527
39564W        W82617   9.339  22.569  16.995 -0.3012  0.0061 -0.1756
39565W        W82618   9.882   4.402  17.779 -0.3642 -0.1487 -0.4362
39566W        W82619   9.368  28.908  17.839  0.4816  0.0589  0.0568
39567W        W82620   8.582   5.155  14.993 -0.0801 -0.3816 -0.1353
39568W        W82621   5.302  23.563   2.728  0.1960  0.2734  0.2107
39569W        W82622   1.733   4.915   4.242  0.1075  0.1291  0.1742
39570W        W82623  10.579  16.621  17.845  0.0618 -0.1882 -0.1169
39571W        W82624   5.872  28.303  13.235  0.2899 -0.2695  0.3129
39572W        W82625   9.444  19.219  21.227 -0.0232 -0.0447 -0.0682
39573W        W82626   0.237  14.282  22.217  0.0939  0.0437  0.2934
39574W        W82627  24.553   5.083  27.725  0.3231 -0.0022  0.1916
39575W        W82628  34.012  11.712   1.966 -0.2585  0.2107  0.0808
39576W        W82629   0.958  32.541  22.509  0.1384  0.1600  0.0392
39577W        W82630  15.014   9.797  22.440 -0.3137 -0.3660 -0.0670
39578W        W82631  29.439  26.990  22.871  0.1908  0.0330  0.0220
39579W        W82632   3.335  19.477  16.052 -0.1697 -0.0767 -0.2259
39580W        W82633  18.249  16.282  14.299 -0.1870  0.0127  0.0199
39581W        W82634   5.606   7.570  25.242 -0.0020  0.2177 -0.3705
39582W        W82635  31.820  21.704  19.791  0.0551 -0.0969  0.3681
39583W        W82636  32.424  31.341  22.403  0.2153 -0.3314 -0.0136
39584W        W82637  16.340  13.501  26.572 -0.1700 -0.0378  0.2255
39585W        W82638  33.343   4.883  19.981 -0.0227  0.1159  0.1150
39586W        W82639  12.909  14.639  14.977 -0.3384 -0.0566  0.2250
39587W        W82640  10.840  15.976  18.125  0.0005  0.2641  0.1788
39588W        W82641  32.874   8.280  15.329  0.0632  0.3837  0.0942
39589W        W82642  24.322  13.710  15.891 -0.1325  0.2226 -0.2903
39590W        W82643   6.982   2.461  17.249 -0.0616 -0.1217 -0.0138
39591W        W82644  20.918  20.253  20.281 -0.1300  0.0218  0.3558
39592W        W82645   7.023  21.907   0.212  0.1001  0.0892 -0.3262
39593W        W82646  21.326   3.160  23.927  0.2126 -0.5178  0.1389
39594W        W82647  26.432  18.777   1.796 -0.1102 -0.2747 -0.1575
39595W        W82648   4.866   4.291  27.922  0.1403  0.0134  0.0403
39596W        W82649  24.984  14.114  19.900  0.0605  0.1313  0.0885
39597W        W82650  21.513   1.929  23.544  0.0239 -0.2904 -0.1901
39598W        W82651   4.405   4.756  15.265 -0.1024  0.3061 -0.0136
39599W        W82652  32.675  13.233  21.855 -0.2071  0.1989  0.2019
39600W        W82653   5.253   8.229  23.370  0.0829 -0.1578  0.2304
39601W        W82654  28.316  12.022  26.297  0.1654 -0.0457 -0.0689
39602W        W82655  18.571   9.239  15.526 -0.2453  0.0399 -0.0088
39603W        W82656  24.574  32.437  19.537  0.1496 -0.0375 -0.2989
39604W        W82657   4.799  30.174  17.030  0.0924  0.0569  0.1566
39605W        W82658  15.055   3.245  16.281  0.2016  0.0616 -0.1395
39606W        W82659  33.868  20.230  23.267 -0.1806  0.0775 -0.1731
39607W        W82660  24.931  14.227  13.600  0.4225  0.0810  0.2230
39608W        W82661  21.170  15.918  22.126 -0.0553  0.0558 -0.0788
39609W        W82662  21.881  14.268  13.746  0.1278  0.0365  0.3015
39610W        W82663  28.669   0.644  15.296  0.1024  0.2628  0.3990
39611W        W82664  10.663  16.824  25.843  0.0799  0.2630 -0.0664
39612W        W82665   5.504  12.625  26.285  0.0247  0.0041  0.2029
39613W        W82666   6.053  26.929   0.452 -0.1280  0.2502 -0.1427
39614W        W82667   7.282  21.353  22.691 -0.1199 -0.0433  0.1133
39615W        W82668  29.505  29.651   9.733 -0.1451  0.1800 -0.1083
39616W        W82669  29.498   2.176  14.338  0.0225 -0.3432  0.2867
39617W        W82670   0.730   5.566  26.225  0.1024 -0.1271 -0.0314
39618W        W82671  19.848   4.338  24.855  0.2777  0.0083 -0.0354
39619W        W82672  15.223   5.329  21.475 -0.1785 -0.2600 -0.2485
39620W        W82673   9.244   7.722  17.296  0.1425  0.0157 -0.1933
39621W        W82674  21.118  17.343  19.791  0.1767  0.2346 -0.1352
39622W        W82675  15.342  32.879  16.644  0.1659  0.1670 -0.2981
39623W        W82676  33.621   7.432  18.864 -0.1173  0.2955 -0.1098
39624W        W82677  13.368  17.759  13.094 -0.0247 -0.1390  0.2533
39625W        W82678  25.585  16.685  26.066  0.0696 -0.0166  0.0244
39626W        W82679  14.769   7.927  26.267 -0.3210  0.0917  0.1471
39627W        W82680  12.979   9.773   1.426 -0.0213 -0.0106  0.1342
39628W        W82681   0.295  22.266   6.254  0.1851  0.0020 -0.1551
39629W        W82682   0.820   9.426   0.795 -0.1456 -0.2801 -0.1202
39630W        W82683  29.698  15.477  21.591  0.2817  0.0710  0.0438
39631W        W82684  32.370  10.405  27.804  0.0466  0.1889  0.3413
39632W        W82685  12.557   2.281   8.510 -0.0154  0.0725  0.2998
39633W        W82686  18.174   8.448  25.335 -0.2071  0.0583  0.1218
39634W        W82687  19.553   1.491  20.613 -0.0795 -0.0921  0.2614
39635W        W82688  12.308  30.289  23.017 -0.0991  0.2729  0.2226
39636W        W82689   5.529   0.751  16.822 -0.3699  0.1938 -0.0429
39637W        W82690   9.070   0.521  15.307 -0.1562  0.0331  0.4691
39638W        W82691   9.987   7.401  16.060  0.2481  0.0717 -0.4570
39639W        W82692   1.091  34.381  19.963 -0.0918  0.0220 -0.2056
39640W        W82693   8.385  20.128  25.292  0.0639  0.1990 -0.1956
39641W        W82694  12.431  23.909  27.557 -0.2975  0.0262 -0.0477
39642W        W82695  24.129  14.493  23.677  0.2161 -0.1395 -0.1828
39643W        W82696  17.228  32.784  21.124  0.3038  0.0948 -0.3610
39644W        W82697  14.832  30.842  15.310 -0.0256 -0.1191  0.2970
39645W        W82698   6.289  15.949  16.751  0.1419 -0.0661 -0.0312
39646W        W82699  15.766   2.208  22.824 -0.0355 -0.1745  0.0399
39647W        W82700  34.145   7.394  17.158  0.0491  0.1572  0.0510
39648W        W82701   9.391  32.749  27.615  0.2638 -0.0839 -0.0804
39649W        W82702   8.412  16.228  27.040  0.1641 -0.0594  0.2008
39650W        W82703   8.899   7.556  19.782 -0.0796  0.1283  0.3992
39651W        W82704   5.107  22.611  18.456  0.0465  0.0942 -0.1684
39652W        W82705   2.253  10.662   5.786 -0.0438 -0.1830  0.3333
39653W        W82706  21.196   0.212  17.460  0.0736 -0.0301  0.2136
39654W        W82707   9.445  32.747   1.675 -0.0294  0.0636  0.1048
39655W        W82708  31.084  15.046  16.101  0.3561 -0.3689 -0.0159
39656W        W82709  19.181  12.670  15.339  0.0913 -0.1410 -0.2323
39657W        W82710  34.010   3.068   6.404  0.1048 -0.0478 -0.1088
39658W        W82711   7.984   5.407  25.651  0.2395 -0.1416  0.1340
39659W        W82712  16.775  13.581  26.253  0.1673 -0.0450 -0.1112
39660W        W82713   3.195  16.894  13.657 -0.2102  0.2525 -0.0341
39661W        W82714   2.517   8.283  22.645  0.2660 -0.1007  0.0126
39662W        W82715  34.462  25.419   6.414 -0.0916  0.1352 -0.1305
39663W        W82716  29.208  24.841  23.857 -0.0187  0.2986  0.1224
39664W        W82717  10.471  15.820  19.268  0.2145  0.0788 -0.3276
39665W        W82718   4.494   8.996   5.965 -0.1150 -0.1427  0.2505
39666W        W82719   3.967  22.234  20.773  0.0418  0.1164  0.0105
39667W        W82720   0.566   9.249  15.080 -0.1059 -0.3870  0.1141
39668W        W82721  34.510   1.502   1.144 -0.2951 -0.1275  0.0394
39669W        W82722  20.680  11.621  25.167 -0.0611 -0.3276 -0.1586
39670W        W82723   5.043  14.858  19.827  0.1703 -0.1950  0.1001
39671W        W82724  20.746  32.570  14.223 -0.2241  0.1809 -0.0541
39672W        W82725  16.013   4.340   5.415 -0.2352 -0.0332  0.1237
39673W        W82726   1.890   3.867  28.742 -0.2232 -0.1884  0.0455
39674W        W82727   8.368   6.970  26.465 -0.3488 -0.2179  0.0417
39675W        W82728   5.275   5.651  23.385 -0.1391 -0.2778 -0.1051
39676W        W82729   6.224  33.606  26.936 -0.3122 -0.0322 -0.0286
39677W        W82730  24.400  25.332  25.489 -0.2557 -0.1798 -0.1129
39678W        W82731  12.007   5.589  21.381 -0.0088  0.2097 -0.0025
39679W        W82732  11.150   1.734  27.906 -0.2150  0.1186  0.2418
39680W        W82733  24.053  12.926  27.473 -0.1036  0.4163  0.1105
39681W        W82734   2.785   4.758   0.511 -0.0359  0.1530 -0.0374
39682W        W82735   9.435  22.825  14.581 -0.0566 -0.1944  0.1244
39683W        W82736  11.828   5.751  25.415 -0.2542  0.0630  0.0418
39684W        W82737  10.573  17.113  24.910 -0.0278  0.1144 -0.0709
39685W        W82738  32.581  29.871   3.947  0.2174 -0.1561 -0.1549
39686W        W82739   9.049  17.471  19.831  0.2724 -0.0840  0.3220
39687W        W82740  19.115  33.546   2.999 -0.1282  0.1779  0.3837
39688W        W82741   2.994   5.704  25.663  0.1170  0.1025  0.1138
39689W        W82742  21.230  29.643  23.861 -0.1130  0.0244 -0.0508
39690W        W82743  25.965  34.486  19.287  0.0719 -0.2463  0.0364
39691W        W82744  31.798  20.536  22.117  0.1888  0.1556 -0.0951
39692W        W82745  10.101   2.919  18.370  0.0378  0.0625  0.2687
39693W        W82746   3.975   7.742  28.468  0.0829  0.1380  0.1172
39694W        W82747   0.880   8.747  15.055 -0.3169  0.0957 -0.1940
39695W        W82748   7.984  11.636  19.335  0.1290  0.0494  0.0319
39696W        W82749  16.171   0.074  23.151  0.0493 -0.4785 -0.2687
39697W        W82750   6.196  15.463  16.559 -0.1488 -0.1027  0.2822
39698W        W82751  19.571  31.207  17.262 -0.0649  0.1275  0.2033
39699W        W82752  11.547  15.382  18.294  0.2646 -0.1300  0.0422
39700W        W82753  27.383   4.988  29.135 -0.1753  0.3430 -0.1699
39701W        W82754   5.148  32.080   0.659 -0.0781  0.2409  0.1467
39702W        W82755   4.034  14.998  21.600  0.2940  0.0667  0.1020
39703W        W82756  33.121   9.369  15.594  0.1249  0.0567  0.0351
39704W        W82757  24.181  27.692  19.859  0.0060 -0.0602 -0.0665
39705W        W82758  17.499   2.448  15.243 -0.0921  0.2004  0.1804
39706W        W82759  30.813   7.691  22.300  0.0879  0.0569 -0.2278
39707W        W82760  32.789  30.836  22.731  0.1395 -0.0634  0.3649
39708W        W82761  10.551   4.528   0.295 -0.2292 -0.0020  0.1366
39709W        W82762  16.280   2.919  26.484  0.1602 -0.0222 -0.0791
39710W        W82763  20.779   1.891  18.809  0.2006 -0.0399  0.0705
39711W        W82764  14.670  10.847  14.893 -0.0684  0.3665  0.0427
39712W        W82765   9.986   7.425   0.965 -0.0660  0.0277  0.0194
39713W        W82766  23.773   7.186  23.482 -0.0766  0.0728  0.1070
39714W        W82767  10.355  10.683  19.625  0.3820  0.0119 -0.0599
39715W        W82768  25.918  14.748  17.506  0.5150  0.1447 -0.0804
39716W        W82769  30.217  19.885  27.570 -0.0697  0.2502 -0.1390
39717W        W82770   8.788   2.394  23.276  0.0407  0.2774  0.0555
39718W        W82771  14.569  10.821  16.416  0.1004  0.2940  0.1612
39719W        W82772  13.002   6.641  21.428 -0.0753  0.1149 -0.0824
39720W        W82773  23.447  10.967  21.339 -0.0066  0.0652 -0.3549
39721W        W82774  17.555   7.989  15.348  0.2878 -0.0252 -0.1256
39722W        W82775   2.901   8.150  15.504 -0.0524  0.1471  0.2605
39723W        W82776   7.807   8.271  22.077  0.5046  0.0989 -0.4175
39724W        W82777  15.553  30.727  26.463 -0.1635  0.3722 -0.2281
39725W        W82778  34.149  14.411  14.634 -0.1791  0.0929  0.1247
39726W        W82779  25.140  30.100  15.357 -0.1847  0.0042 -0.0448
39727W        W82780  18.337  18.793   6.580  0.0032  0.0590  0.2296
39728W        W82781  12.515  11.289   8.219  0.3491 -0.0449  0.0668
39729W        W82782   5.695  23.721  16.278  0.0455  0.0339 -0.1005
39730W        W82783   4.299  31.553  16.469  0.1887 -0.1364 -0.2986
39731W        W82784  32.016  12.410   1.386  0.2897 -0.0780  0.0583
39732W        W82785  23.313   5.237   1.574  0.2554 -0.0509 -0.0808
39733W        W82786   0.004  14.424  27.932  0.0915 -0.0066 -0.3166
39734W        W82787   8.175  17.166  20.132 -0.0303  0.0226 -0.4030
39735W        W82788   4.635   7.494   2.408  0.2550  0.1586  0.1228
39736W        W82789  31.244  30.975  28.387 -0.1068  0.1873 -0.1552
39737W        W82790   0.417  12.892  21.256 -0.1362 -0.0268 -0.1961
39738W        W82791  16.439  24.906  17.511  0.1938  0.0345 -0.1150
39739W        W82792  12.254   1.896  19.308  0.3665 -0.0897 -0.1957
39740W        W82793   4.883  13.489  19.168 -0.0506  0.1486  0.1404
39741W        W82794   4.781  31.415  21.747 -0.1175  0.0990 -0.2992
39742W        W82795  16.575  16.038  15.526  0.2620  0.3513 -0.1030
39743W        W82796   9.902   9.292  15.946 -0.0481 -0.1721 -0.2961
39744W        W82797   5.091  33.512  17.011 -0.1759 -0.0064 -0.2283
39745W        W82798   4.538  12.980  26.061  0.3995  0.3578  0.1062
39746W        W82799   5.128   1.044  18.164 -0.1859  0.2550 -0.1164
39747W        W82800  17.949  30.575  21.629 -0.0884 -0.2529 -0.3597
39748W        W82801   6.365  16.473  18.031 -0.2306  0.0471 -0.0007
39749W        W82802  18.209  22.990  16.710  0.1059  0.1618 -0.0624
39750W        W82803  25.738   4.248  16.584  0.0982  0.0268 -0.0864
39751W        W82804  24.985  32.432  29.035  0.1092  0.0287  0.0574
39752W        W82805  26.058  24.414  21.010  0.4867 -0.0242 -0.1004
39753W        W82806  10.275  17.602  18.938  0.0649  0.2608 -0.3795
39754W        W82807  17.138   5.364  28.045 -0.0689 -0.0945  0.2302
39755W        W82808   3.572  16.247  14.241 -0.1268 -0.1835  0.3561
39756W        W82809  24.594  27.974  19.586 -0.1981  0.0077  0.1320
39757W        W82810   2.537  10.509  17.789  0.0490  0.0376 -0.2983
39758W        W82811   1.593  24.695  14.555  0.1039  0.0054 -0.2135
39759W        W82812  31.912  15.006  17.466  0.2974 -0.0517  0.0263
39760W        W82813  20.043   1.329   0.754  0.0699  0.0383 -0.0566
39761W        W82814   1.659  14.978  19.349 -0.2088 -0.4252 -0.1608
39762W        W82815  26.477   6.981  16.758 -0.0327  0.2000  0.3054
39763W        W82816   3.770  34.486  27.771 -0.0550  0.3279 -0.1940
39764W        W82817  28.822  11.465  22.894 -0.0974  0.0230  0.0223
39765W        W82818  15.597   1.354  15.500  0.0185 -0.0068 -0.1329
39766W        W82819   3.736  15.120  25.461  0.0121 -0.2347  0.2080
39767W        W82820  10.152  30.531  21.490 -0.0184 -0.1793 -0.0638
39768W        W82821  15.114   0.954  15.318  0.2384 -0.2459  0.2428
39769W        W82822   9.005   2.194  25.400 -0.0452  0.2819 -0.3528
39770W        W82823   1.284   3.533  14.313  0.1581 -0.1967 -0.0039
39771W        W82824   7.788  13.148  26.406  0.3387 -0.1724  0.4060
39772W        W82825  31.465   9.123  18.407  0.0475  0.2552 -0.0630
39773W        W82826  12.785   2.789  22.722  0.0546  0.1551 -0.1612
39774W        W82827   7.635   8.227  24.447  0.3374 -0.3205 -0.5213
39775W        W82828  14.583   6.799  24.666  0.0670 -0.2062 -0.1486
39776W        W82829  11.112  14.771  28.356 -0.4346  0.3046 -0.1323
39777W        W82830  28.781  14.983   4.332 -0.0629 -0.5026  0.3901
39778W        W82831  19.007  27.787  19.715  0.1192  0.1379  0.3643
39779W        W82832   7.948   5.454  17.734  0.0421  0.0125  0.3104
39780W        W82833  17.310   1.602   3.481  0.1665  0.0059  0.2847
39781W        W82834  26.889   8.162  23.170 -0.2984  0.2355 -0.0392
39782W        W82835  11.293  11.645  21.925  0.1244  0.1738 -0.0915
39783W        W82836  27.939   8.005  28.436  0.2845 -0.0820  0.2180
39784W        W82837  27.540  12.773   3.004  0.2938 -0.0788 -0.2311
39785W        W82838   6.341  16.278  15.245  0.2712 -0.0687  0.0003
39786W        W82839   2.706   5.503  18.609 -0.2023  0.3118  0.0823
39787W        W82840  23.142  14.334  17.519  0.1036 -0.2157  0.1266
39788W        W82841   1.924   4.122  17.649 -0.3642  0.1948 -0.0524
39789W        W82842  16.024  10.173  28.958  0.0293  0.4303  0.0097
39790W        W82843  27.055  16.515  15.688 -0.1564  0.1715  0.3470
39791W        W82844   9.080   8.106  18.913  0.1176 -0.2366  0.0667
39792W        W82845  19.224  22.732  17.392 -0.0739 -0.0715  0.3004
39793W        W82846   1.586  31.972  16.237  0.0056 -0.0230 -0.0207
39794W        W82847   0.492  10.796   3.197  0.1788 -0.0786  0.0919
39795W        W82848   6.707  12.814  20.761  0.2202 -0.3626  0.1438
39796W        W82849   5.666  32.883  14.660 -0.0930 -0.1163 -0.1834
39797W        W82850  20.858  29.614   0.684 -0.1739 -0.2302  0.0477
39798W        W82851   7.056  15.037  23.010 -0.2861 -0.3344 -0.1605
39799W        W82852  28.127   3.014  24.572  0.0061 -0.1743 -0.0944
39800W        W82853   0.561  21.673  15.219  0.1020 -0.2308  0.1659
39801W        W82854  12.325   7.548  20.563  0.0756 -0.1670  0.1244
39802W        W82855  26.470   9.870  22.891  0.2375 -0.2890  0.0314
39803W        W82856  13.145  10.836  15.074  0.2442 -0.4581 -0.1059
39804W        W82857  20.117   4.598  28.739  0.1252 -0.1780  0.2348
39805W        W82858   5.231  18.211  18.094 -0.0238  0.2355  0.0614
39806W        W82859  22.594  14.141  25.440  0.3200  0.2345 -0.1309
39807W        W82860   3.243  12.056   6.405 -0.4380  0.1407  0.1192
39808W        W82861   9.927   0.680  19.382  0.2381 -0.0476  0.0890
39809W        W82862  23.510  13.775  15.528 -0.0852  0.0503  0.0631
39810W        W82863  23.116  13.675  19.506  0.0355 -0.0222  0.0040
39811W        W82864   4.306   7.906   3.411 -0.4214 -0.1021 -0.1930
39812W        W82865  31.837  13.683  22.507 -0.2987 -0.2250 -0.3524
39813W        W82866  32.043  14.305  21.114 -0.1313  0.0825 -0.0131
39814W        W82867   8.699  12.810  25.559  0.6222 -0.1292 -0.0569
39815W        W82868  24.255  10.603   0.081 -0.1028  0.5055 -0.1477
39816W        W82869  15.460  12.866   3.153  0.0998 -0.0523  0.4071
39817W        W82870  11.366  34.119  22.284 -0.1595 -0.1503 -0.0580
39818W        W82871   5.644  23.414  19.915  0.1452 -0.0929  0.1393
39819W        W82872   2.178   0.816  27.706 -0.0253 -0.0702  0.2131
39820W        W82873   9.703  29.074  22.966 -0.0617 -0.4383  0.0291
39821W        W82874   7.476   4.106  16.738 -0.1104  0.0660  0.0877
39822W        W82875  14.545  32.431  13.826  0.2885 -0.2212  0.0451
39823W        W82876  18.981   0.666  21.712  0.1612  0.1604 -0.0230
39824W        W82877  26.676  10.819  20.920 -0.1183  0.0795  0.1297
39825W        W82878   5.144   0.837  18.608  0.0478  0.2109  0.1358
39826W        W82879  34.443  33.558  21.083  0.0167  0.0308 -0.3024
39827W        W82880  13.534  33.200  18.262 -0.0317  0.1070  0.0371
39828W        W82881   6.994  17.509  17.867  0.2002 -0.1847  0.1121
39829W        W82882  20.297  21.288  15.357 -0.1265  0.1349  0.2142
39830W        W82883   4.536   6.824  22.147 -0.1104  0.4079  0.0064
39831W        W82884  32.440  16.159  14.972 -0.3711 -0.1211 -0.3467
39832W        W82885  18.216   6.721  16.313 -0.2593  0.3046  0.2839
39833W        W82886   7.145   9.722  26.418  0.4331  0.0435 -0.1518
39834W        W82887  10.897  32.765  21.088 -0.2912  0.3950  0.1297
39835W        W82888   2.731   4.012  17.928 -0.0782  0.0979  0.1788
39836W        W82889  15.859  33.436  18.041 -0.3160  0.2175  0.2464
39837W        W82890   7.508   9.118  23.519  0.2622  0.1790 -0.2799
39838W        W82891  14.094   6.099  18.077  0.3226  0.1641 -0.0303
39839W        W82892  21.648   7.157  15.618 -0.1711 -0.2341  0.0073
39840W        W82893  22.010   7.781  17.847 -0.0875  0.5392  0.0526
39841W        W82894  14.124  30.337  20.029  0.2997 -0.0217  0.0639
39842W        W82895   7.653  31.028  22.374 -0.0428 -0.1317  0.0487
39843W        W82896  15.758  12.040  22.454 -0.2771 -0.0544  0.1617
39844W        W82897  30.038  11.288   0.316  0.1265  0.1112 -0.0275
39845W        W82898  28.868  27.522  18.539 -0.1256  0.3030  0.1088
39846W        W82899  22.897  30.523  23.990  0.2918 -0.0744 -0.1256
39847W        W82900  11.310  28.161  22.114  0.1637 -0.0932 -0.0201
39848W        W82901  15.868   9.359  16.465 -0.0771  0.1101 -0.0155
39849W        W82902   4.815   3.312  19.329 -0.1627 -0.0223  0.0663
39850W        W82903  23.928  16.771   0.630 -0.1276 -0.2346  0.1736
39851W        W82904   2.683   9.332  19.272  0.0463  0.0717 -0.4146
39852W        W82905  28.441  16.860  24.680  0.1240  0.0489 -0.1007
39853W        W82906   9.978   8.136  17.115  0.0447  0.0469 -0.1575
39854W        W82907  34.539   9.413   5.362 -0.2137 -0.0223 -0.1036
39855W        W82908   9.488  27.968  13.492 -0.0517  0.1184  0.0789
39856W        W82909  25.370  19.767   1.684 -0.2687  0.0524 -0.1233
39857W        W82910   2.706  11.998  24.999 -0.2131  0.1187  0.0988
39858W        W82911  16.689  34.003   4.956  0.0289  0.0505  0.3455
39859W        W82912  10.450  27.744  14.298 -0.1427 -0.1597 -0.2446
39860W        W82913   7.753   9.736  13.770  0.0439 -0.1165 -0.0141
39861W        W82914  29.071  29.530  28.000  0.1163  0.2054 -0.1479
39862W        W82915  20.475  26.850  23.172 -0.2636  0.0113  0.0544
39863W        W82916  15.498  34.584  21.090 -0.0085  0.1008 -0.0618
39864W        W82917  10.706   8.241  18.021  0.1775 -0.0592  0.0819
39865W        W82918  23.532  33.360   5.518  0.2477 -0.1072  0.2784
39866W        W82919  30.196  32.418  21.390  0.2121 -0.2137  0.0881
39867W        W82920   2.378   9.963  20.931  0.0713 -0.4356  0.0245
39868W        W82921  22.127   9.311  25.603  0.1333  0.1911  0.1643
39869W        W82922  29.734  15.093  15.056  0.0757  0.0393 -0.4937
39870W        W82923   9.455  23.888  23.090  0.0263 -0.1287 -0.1168
39871W        W82924  27.510  13.218   8.864 -0.1789 -0.1696  0.2586
39872W        W82925   4.617  17.070  17.897 -0.1404  0.1754 -0.0861
39873W        W82926   2.886  24.216  15.978 -0.0342  0.0001  0.1464
39874W        W82927   7.800  11.765  14.524  0.1348 -0.1391 -0.0436
39875W        W82928  23.276  34.226  17.970 -0.0531  0.1074 -0.0642
39876W        W82929   9.709   3.057  27.085 -0.1054  0.1293  0.0949
39877W        W82930   2.842   4.713  22.129 -0.0606 -0.1855  0.2801
39878W        W82931   6.687   7.843  26.640  0.1783 -0.0023 -0.0064
39879W        W82932  13.061  16.598  23.399 -0.1349 -0.0414  0.1915
39880W        W82933  26.295  20.375  19.620 -0.0885  0.0714  0.1747
39881W        W82934   6.341  13.300  17.254  0.1575  0.2561 -0.2230
39882W        W82935   2.822  10.420  24.153 -0.2478 -0.2039 -0.4352
39883W        W82936  32.351  29.686  14.105 -0.2566 -0.4944 -0.4186
39884W        W82937  31.759   8.745  21.771 -0.1706 -0.1299 -0.2613
39885W        W82938  16.029  34.587  18.996 -0.0771  0.1218  0.0923
39886W        W82939   9.578  13.241  23.115  0.3367 -0.1357 -0.0638
39887W        W82940  11.382  13.370  28.714 -0.2947  0.3326  0.0357
39888W        W82941   3.032   6.864  21.430 -0.0061  0.0318 -0.0012
39889W        W82942   4.028  11.636  23.244  0.0518  0.0407  0.2297
39890W        W82943  20.280  28.074  26.002  0.3157  0.1985 -0.0140
39891W        W82944  12.853  26.047  13.546  0.2705  0.0532 -0.0970
39892W        W82945   5.999  30.139  14.897  0.1133  0.0250  0.1967
39893W        W82946   6.109  19.900  23.688 -0.2263 -0.2064  0.3664
39894W        W82947  29.419  29.289  15.980  0.0287  0.3790  0.2110
39895W        W82948  28.667   0.003  28.230  0.0316  0.4059 -0.0009
39896W        W82949  22.227   3.600  17.588  0.0666 -0.3975  0.3762
39897W        W82950  32.150   0.828   3.286  0.1416  0.1008  0.1830
39898W        W82951  18.931  25.805  26.682 -0.0521 -0.0325  0.2072
39899W        W82952  22.274  14.119  27.246 -0.0561 -0.1520  0.1616
39900W        W82953   9.082   0.482  23.456  0.1348 -0.1849  0.0367
39901W        W82954   8.412   8.464   2.317 -0.2945 -0.0938  0.0258
39902W        W82955  16.428  13.062  14.910  0.1854  0.1095 -0.2620
39903W        W82956  30.062  28.877  15.957 -0.0153  0.1257 -0.1449
39904W        W82957   4.370   1.869   4.780  0.4366  0.1391 -0.1691
39905W        W82958  12.799  34.655  22.297 -0.2166 -0.1813 -0.1460
39906W        W82959   5.359   6.635   0.620 -0.2750  0.1472 -0.4289
39907W        W82960   5.180  14.509  28.783  0.1037 -0.2305 -0.1192
39908W        W82961  32.764  14.566  21.596 -0.2412 -0.1473  0.1532
39909W        W82962  20.450   0.723   2.559 -0.0777  0.1795  0.0792
39910W        W82963  20.670  12.607  15.143  0.1746 -0.2639  0.0695
39911W        W82964   7.083  25.521  13.969  0.0737  0.1104 -0.3235
39912W        W82965  23.699   5.828  14.360  0.1055 -0.2298  0.0038
39913W        W82966   5.943   8.701   0.450 -0.2488  0.1253 -0.2760
39914W        W82967  10.684  32.870  19.364  0.1445 -0.2203 -0.0358
39915W        W82968  16.516  32.672  26.339  0.3207 -0.5935 -0.2121
39916W        W82969  10.887  24.283  16.398  0.1702  0.3987 -0.2899
39917W        W82970  18.741  31.509   4.977  0.3490 -0.0182  0.0123
39918W        W82971  10.361   4.060  26.640  0.0856 -0.1952 -0.0451
39919W        W82972  16.542  32.908  18.545 -0.3973 -0.0244 -0.0483
39920W        W82973  12.514   8.439  18.007 -0.0411 -0.3532  0.1128
39921W        W82974  25.575  12.720  26.464  0.1022 -0.1081  0.2879
39922W        W82975  12.960   0.601  15.093  0.0063 -0.0725  0.0221
39923W        W82976  26.889   3.249   0.408  0.0984 -0.1690  0.4568
39924W        W82977  17.921   3.673  27.859  0.1775 -0.1484  0.1412
39925W        W82978   7.935   1.108  14.857  0.1244 -0.1642  0.1935
39926W        W82979  12.558   7.007   0.928 -0.3252 -0.0486  0.0030
39927W        W82980  32.928  33.705  17.226  0.0102  0.0022 -0.2080
39928W        W82981   9.546   4.529   3.366  0.0227  0.1068 -0.1431
39929W        W82982  19.485  29.948  18.215 -0.0941  0.0127  0.4458
39930W        W82983   4.646   3.739  22.420 -0.3284  0.0231 -0.3247
39931W        W82984   3.961  15.800  18.771 -0.0881  0.1118 -0.0757
39932W        W82985  13.222   0.737   7.293  0.3103  0.0636  0.3283
39933W        W82986  13.575   9.574  27.646 -0.3716 -0.0821  0.2991
39934W        W82987  19.212   2.496   1.810  0.0612  0.1042  0.0797
39935W        W82988   5.149   9.155   2.095 -0.2208  0.2511  0.1055
39936W        W82989  10.827   5.911  24.996 -0.3950  0.1040  0.1679
39937W        W82990   6.596   1.029  25.790  0.0426  0.0038 -0.1330
39938W        W82991  11.938  13.363   7.902 -0.1293 -0.0883 -0.0640
39939W        W82992  23.731  13.287  28.921  0.1027 -0.2566 -0.2416
39940W        W82993  12.307  20.453   8.465 -0.0156  0.2731  0.0801
39941W        W82994  12.839  28.982  16.181  0.1314  0.0891 -0.0067
39942W        W82995   5.299   1.142   9.032 -0.0660 -0.0712 -0.2590
39943W        W82996  34.371   5.137  15.034  0.1581  0.0919  0.2284
39944W        W82997   9.621   1.749  15.779 -0.1280 -0.2219  0.0382
39945W        W82998   2.823  33.866   2.357  0.0144  0.1336 -0.0667
39946W        W82999  22.252  10.891  17.042 -0.3116 -0.0941 -0.1065
39947W        W83000  30.739  24.437  18.308  0.1939  0.0941 -0.2729
39948W        W83001   9.644  16.814  17.972  0.3783  0.1131 -0.2895
39949W        W83002   7.266  17.184  17.271  0.1888  0.0726  0.0672
39950W        W83003  34.017  34.404  21.569  0.0771 -0.0512 -0.1597
39951W        W83004  17.693  13.512   8.405 -0.0126  0.0769  0.0778
39952W        W83005   4.562   5.849  17.375 -0.1410 -0.0303 -0.0282
39953W        W83006  24.041   3.272  22.448  0.0038  0.2286  0.1820
39954W        W83007   7.490  14.717  22.243  0.3811 -0.2980  0.0826
39955W        W83008  23.299  20.703  21.995 -0.3412  0.3234  0.0881
39956W        W83009   8.387   4.474  20.614 -0.0303 -0.3190  0.1389
39957W        W83010   8.134   9.090  29.178 -0.0571 -0.2035  0.1072
39958W        W83011   2.621   4.248  16.066 -0.0898  0.3636  0.1984
39959W        W83012   9.300   8.246  28.382  0.0505  0.4438  0.1952
39960W        W83013   7.710  11.752  16.629  0.0104 -0.1443  0.2925
39961W        W83014  20.835   8.708  16.581  0.2110  0.3164  0.2701
39962W        W83015  30.328  13.526   9.398  0.2580 -0.0421 -0.1290
39963W        W83016  20.588  30.359  18.877  0.2516  0.3766  0.0467
39964W        W83017  12.054   4.745  19.193 -0.1613  0.1185 -0.2852
39965W        W83018  16.227   3.333  19.258  0.0550  0.0656 -0.1119
39966W        W83019  17.624  20.018  28.661  0.0190 -0.0528  0.2889
39967W        W83020  22.046  10.007  20.648  0.0616  0.0341 -0.2246
39968W        W83021   7.567   8.428  14.595  0.1748  0.0794  0.1767
39969W        W83022  19.540  34.113  14.868  0.1267  0.0967  0.3884
39970W        W83023   5.274   2.514  22.063  0.0848 -0.0095  0.2717
39971W        W83024   4.651  29.339  26.205  0.0646  0.0054  0.2554
39972W        W83025  34.445  24.840  28.150  0.0161  0.0605 -0.0960
39973W        W83026  16.888  15.890  27.157  0.4847  0.2044  0.1479
39974W        W83027   1.461  30.740  13.435  0.1379 -0.2180 -0.1793
39975W        W83028   9.415   8.708  21.649 -0.2667 -0.2987 -0.1732
39976W        W83029   3.987  22.818   1.977 -0.0837  0.2185  0.1957
39977W        W83030  14.157  10.015  26.886 -0.1363 -0.0867  0.1872
39978W        W83031  17.020   6.485  20.892  0.1993 -0.0956 -0.1620
39979W        W83032   9.736   8.619  10.301  0.0721 -0.1007  0.1804
39980W        W83033   7.489   1.998  18.192 -0.0319 -0.0697 -0.2420
39981W        W83034  12.466   6.934  25.795  0.2402 -0.1262 -0.0838
39982W        W83035  34.231  32.077  17.819  0.1652  0.1393 -0.0418
39983W        W83036  22.461  32.921   0.512  0.0329 -0.0006 -0.3197
39984W        W83037  12.984  27.817  19.906  0.1331 -0.4575 -0.2476
39985W        W83038   4.904  11.451  15.985  0.3221 -0.1356 -0.4670
39986W        W83039  27.715   6.194   8.795 -0.2274 -0.0233  0.4309
39987W        W83040   7.602  20.240  13.399 -0.1522  0.2826  0.0329
39988W        W83041   7.138  32.965  23.146  0.2479 -0.2533  0.1464
39989W        W83042  15.719  15.703  15.444 -0.1822  0.1346  0.0749
39990W        W83043   0.985  20.962  15.428 -0.2856 -0.0210  0.1183
39991W        W83044  13.739   4.407  22.419 -0.0004 -0.0171  0.0837
39992W        W83045  24.499  12.549  28.407  0.2827 -0.0711  0.0803
39993W        W83046  13.681  24.478  25.201  0.2156  0.0522  0.0473
39994W        W83047  11.968  12.621  18.019  0.1077  0.1379 -0.0269
39995W        W83048  15.250   2.851  21.121  0.0696 -0.0619  0.0444
39996W        W83049  18.450   2.122  20.622  0.2469  0.4315  0.0040
39997W        W83050  12.090   9.424  24.240  0.1251 -0.0600  0.0895
39998W        W83051  14.622  24.921  26.224 -0.0598 -0.1889 -0.1578
39999W        W83052  21.777  24.242   6.949 -0.1289  0.0413 -0.0940
40000W        W83053  14.747   3.092  17.680 -0.0147  0.1070 -0.2833
40001W        W83054  13.022   7.478   2.508 -0.3581 -0.2935 -0.0412
40002W        W83055  34.334   7.622  20.003  0.1362  0.2607  0.1691
40003W        W83056  20.482  29.997   5.529  0.2148  0.0519 -0.0905
40004W        W83057  15.341  33.004  28.889 -0.1608 -0.2004  0.1497
40005W        W83058  13.639   0.919   2.108  0.0431 -0.5053  0.1030
40006W        W83059   1.852   9.807   6.850 -0.1262  0.0817  0.3013
40007W        W83060  21.380  20.437  18.794 -0.3275 -0.1944 -0.1074
40008W        W83061   1.769   7.967  15.108 -0.1482 -0.0713  0.0420
40009W        W83062  22.190  12.778  17.898  0.2647 -0.1034 -0.1693
40010W        W83063  17.774   0.003  18.687  0.0223  0.1048 -0.0239
40011W        W83064  14.068  10.457  24.085  0.0303  0.1584 -0.1611
40012W        W83065   9.213  20.026  20.214 -0.0308 -0.1523  0.0016
40013W        W83066   8.459   3.079  28.958 -0.1327 -0.0339  0.1014
40014W        W83067  25.734   9.765   2.463  0.0757 -0.2674 -0.3103
40015W        W83068   8.689   5.207   9.199 -0.0180  0.2176 -0.2057
40016W        W83069  13.071  30.085  14.043  0.0732 -0.2185  0.3351
40017W        W83070  25.274   6.466  22.346 -0.1590  0.1202  0.3126
40018W        W83071  15.969   9.567  18.606 -0.2669 -0.0805  0.0170
40019W        W83072  20.339  17.447  25.743  0.0517  0.1095 -0.1400
40020W        W83073   7.885  15.723   0.475  0.0705 -0.0048 -0.2780
40021W        W83074  15.213  11.115  10.810 -0.0099  0.3165  0.2936
40022W        W83075   8.790  28.646  23.033 -0.1151  0.0180  0.2261
40023W        W83076   8.619  14.220  25.079  0.0592 -0.0302 -0.1150
40024W        W83077  11.458  14.845  10.155 -0.1694  0.0588 -0.1899
40025W        W83078   4.644  22.296  15.286  0.1743 -0.0701 -0.1868
40026W        W83079   2.270  13.205   6.409 -0.0941 -0.0165  0.1645
40027W        W83080  32.957  18.136  18.470 -0.1163 -0.2854 -0.2116
40028W        W83081   7.899   0.480   0.754 -0.3524 -0.0496  0.0815
40029W        W83082   9.541   5.952   1.601  0.1461 -0.3261 -0.0135
40030W        W83083   7.347   4.923  22.997 -0.1563 -0.0672 -0.0782
40031W        W83084   6.514   3.182   5.074 -0.2112 -0.0463  0.2380
40032W        W83085  13.445  28.331  14.345  0.0325  0.0008  0.1232
40033W        W83086   6.884   2.992   0.534  0.1157 -0.0959  0.0137
40034W        W83087   7.176   6.860  15.069 -0.0510 -0.2654  0.0636
40035W        W83088  10.094   4.527  19.350  0.0362 -0.0210  0.0756
40036W        W83089  31.845   2.344  10.013  0.1680  0.2360 -0.1714
40037W        W83090  30.950  11.476  27.677 -0.1420  0.0284 -0.1639
40038W        W83091   8.068   8.355  24.666 -0.5118 -0.3362 -0.3551
40039W        W83092  29.761  16.980  27.586 -0.1060  0.0131 -0.4902
40040W        W83093  29.388  33.923  15.046  0.0281  0.2728 -0.3085
40041W        W83094   8.967  14.003  17.749  0.1511 -0.0191 -0.0982
40042W        W83095   8.811  33.169  27.022 -0.1025  0.1661  0.0503
40043W        W83096   3.775   3.424  15.635 -0.3403  0.2069 -0.0678
40044W        W83097   3.684   4.728   0.096 -0.2560  0.3187 -0.3594
40045W        W83098   4.427  23.017   0.439  0.1847 -0.2754  0.0894
40046W        W83099  22.809   7.386  27.614  0.0988 -0.2785  0.2917
40047W        W83100  14.697  34.552  24.749 -0.0039  0.0679 -0.0832
40048W        W83101  11.894  10.500   6.757  0.0759  0.3023  0.6718
40049W        W83102   5.078   1.099  22.499  0.1406 -0.2399  0.0796
40050W        W83103   5.303   0.247  19.530  0.0717 -0.1018  0.2587
40051W        W83104  14.714  22.297  18.427 -0.2267 -0.1088 -0.0925
40052W        W83105   0.080  24.070  26.637  0.4520  0.1391 -0.2215
40053W        W83106  32.162  15.939   2.338 -0.1194  0.3509 -0.0471
40054W        W83107   6.808  20.131   8.515 -0.5113  0.1224  0.0446
40055W        W83108  30.455   5.457  28.728 -0.2278 -0.2523  0.2727
40056W        W83109  14.395   6.379  25.443  0.0392  0.0968 -0.1698
40057W        W83110  16.568  15.415  13.925 -0.3006  0.2251 -0.1694
40058W        W83111  13.973   3.412   1.402  0.0624 -0.1654  0.3162
40059W        W83112   3.920  32.890  24.949  0.2869  0.0957 -0.1268
40060W        W83113   4.921   8.986  23.625 -0.2551  0.3123 -0.0689
40061W        W83114  20.946  14.252  14.708  0.0818 -0.0298  0.2006
40062W        W83115   9.026  17.878   4.051  0.2443 -0.1216  0.2535
40063W        W83116   4.097  29.693  23.254 -0.1160 -0.2381 -0.0217
40064W        W83117   8.388   0.298  19.025 -0.4007  0.0810  0.4752
40065W        W83118  10.444   9.537  16.622  0.0351  0.0756 -0.1039
40066W        W83119  14.679   4.701  22.913 -0.2426  0.2104  0.4134
40067W        W83120  20.821   2.176  24.888 -0.1224  0.0336  0.3928
40068W        W83121   3.257  29.504  13.154  0.0618 -0.0599  0.1786
40069W        W83122  12.388  18.370  25.833 -0.1470  0.1559 -0.0254
40070W        W83123   8.921  17.950  19.193 -0.0372  0.1596 -0.0280
40071W        W83124   5.447   9.441  26.944  0.0241  0.0297  0.0838
40072W        W83125   1.908  34.173   4.567 -0.0916  0.0176  0.2707
40073W        W83126   8.249   7.323   9.787  0.1859  0.2414  0.1157
40074W        W83127   7.925  33.675  18.264 -0.2053  0.1220 -0.0055
40075W        W83128  11.244  15.131  23.610  0.0041  0.0262  0.0767
40076W        W83129  27.511   1.767  22.471  0.1194 -0.1183  0.1815
40077W        W83130   9.162   4.411  24.627 -0.2971 -0.0330 -0.0270
40078W        W83131  23.947  20.806  25.548  0.2479  0.1873 -0.3229
40079W        W83132  30.196   3.117  20.286  0.1125 -0.0171  0.0497
40080W        W83133  22.175  20.461  21.174  0.0194 -0.1057 -0.0120
40081W        W83134   9.195   5.326  17.847 -0.0486  0.2314  0.1133
40082W        W83135  32.890  10.140   6.975 -0.2571  0.0517 -0.0663
40083W        W83136  12.678  12.208  22.703 -0.1317 -0.2679  0.0563
40084W        W83137   3.789  34.361  15.774  0.1972  0.0927 -0.0651
40085W        W83138  11.948   3.701  25.398  0.2041  0.1788  0.1495
40086W        W83139   2.417   8.613   8.556  0.1439  0.1035 -0.0054
40087W        W83140  27.935   9.113  16.898 -0.0951  0.1449 -0.0710
40088W        W83141   4.316  31.398  27.720  0.2498  0.0162 -0.0012
40089W        W83142  10.109   5.553   8.741  0.0476 -0.0189  0.1694
40090W        W83143  18.263  14.388   1.084  0.1467  0.0432 -0.0106
40091W        W83144  13.117  27.037   0.763  0.0357  0.1366  0.0896
40092W        W83145   6.249  15.693  14.506  0.2186  0.2516  0.2233
40093W        W83146   0.872   2.394   3.742 -0.1959  0.1835 -0.0534
40094W        W83147   3.876   3.790  25.325  0.1755 -0.1141  0.2531
40095W        W83148   6.832  18.615  23.396 -0.1645  0.3915  0.2229
40096W        W83149  28.472  33.403  28.213  0.3696 -0.0168 -0.1938
40097W        W83150   6.033  11.973  16.475  0.3152 -0.1767 -0.1065
40098W        W83151   9.321   3.520  26.337 -0.0707  0.2051  0.3100
40099W        W83152   9.823   5.584  22.619  0.0077 -0.1913 -0.3380
40100W        W83153  33.509  13.423  22.398  0.0178 -0.1167  0.0957
40101W        W83154  18.645  15.979  14.353  0.1250  0.2120  0.3737
40102W        W83155   5.320   8.696  20.171  0.2493 -0.0928 -0.0172
40103W        W83156  14.409   8.442  20.642 -0.4533 -0.4324 -0.1341
40104W        W83157   5.426  31.166  13.658  0.0674  0.2525  0.1561
40105W        W83158  30.565  19.497   7.529 -0.1368  0.0359  0.0229
40106W        W83159  15.033   2.127   1.304 -0.0106 -0.1838 -0.0920
40107W        W83160  19.615  10.563  25.021 -0.1003 -0.0599  0.1316
40108W        W83161  12.553  15.543  24.045 -0.0373 -0.1144 -0.2667
40109W        W83162   8.965   7.100  18.914 -0.2227 -0.2403 -0.1992
40110W        W83163  25.631   1.176  26.279 -0.2500 -0.3167 -0.0155
40111W        W83164  21.528   5.940  15.192 -0.5045 -0.0607 -0.3963
40112W        W83165  14.030   7.993  26.806 -0.0513 -0.1403  0.1076
40113W        W83166   9.262   9.217  17.617  0.3921 -0.2916 -0.2175
40114W        W83167   3.321  13.690  23.663 -0.1663 -0.1732 -0.0821
40115W        W83168  22.826   8.544   3.600 -0.0031  0.1391 -0.1768
40116W        W83169  23.883  30.231  10.281 -0.2267  0.4743 -0.2480
40117W        W83170  14.827  19.396   3.206 -0.0821  0.1336  0.0677
40118W        W83171   5.727  20.264  21.615  0.1404  0.2166 -0.1234
40119W        W83172  32.255   3.542  25.503 -0.0674 -0.3912  0.2359
40120W        W83173   4.486   4.314  18.029  0.0112  0.2205  0.2348
40121W        W83174  18.375  13.777  12.574  0.0200  0.0112  0.0514
40122W        W83175  10.548  24.233  17.743  0.1604 -0.1172  0.1544
40123W        W83176   1.053   7.203  18.428 -0.2028  0.1998 -0.0964
40124W        W83177  13.296  17.805  22.889  0.1218  0.0871 -0.0582
40125W        W83178  14.952  33.605  17.556  0.2003  0.0590  0.2579
40126W        W83179  11.339  17.499  25.290 -0.1818 -0.1665  0.0719
40127W        W83180  16.795  10.232   3.736 -0.1699 -0.1520  0.1116
40128W        W83181   3.390  31.182  22.905 -0.1415 -0.1930  0.0503
40129W        W83182  31.307  17.413  25.271 -0.0531  0.0784 -0.4184
40130W        W83183  20.390  13.001  18.584  0.3955 -0.2986  0.2339
40131W        W83184   8.044   7.817  14.151 -0.0416  0.3479  0.1814
40132W        W83185  10.964  20.966  28.776  0.4117  0.3790 -0.4233
40133W        W83186  14.050  11.468  24.140 -0.1678 -0.1159 -0.3338
40134W        W83187  21.173  12.858  25.737  0.1849  0.2227  0.0082
40135W        W83188  32.176   5.353   3.088  0.2845  0.2354  0.4755
40136W        W83189  13.245  34.106   0.208  0.2241 -0.0910 -0.0733
40137W        W83190   6.645  13.230  21.717 -0.3705  0.0122 -0.0848
40138W        W83191   2.934  16.337  24.672  0.2954 -0.1306 -0.0515
40139W        W83192   6.502  22.517  27.784 -0.3347  0.1809  0.2662
40140W        W83193   4.789   6.698  25.611 -0.2150  0.0030  0.0448
40141W        W83194  15.338  32.003   1.247  0.1454  0.2267  0.0713
40142W        W83195   8.007  34.461  26.295  0.1131  0.1102  0.2494
40143W        W83196  29.206   4.376  15.833  0.1486  0.0001  0.0324
40144W        W83197  24.584   1.992   6.283  0.0877  0.2524  0.0327
40145W        W83198  20.536   2.839  23.269  0.3775  0.0297 -0.0653
40146W        W83199  23.674  31.359   8.964  0.0756  0.1921  0.0762
40147W        W83200  15.256  11.294   3.074  0.3033 -0.1153 -0.0042
40148W        W83201  14.228  29.403  21.271  0.2650  0.4294  0.0753
40149W        W83202  11.861  14.788  18.722  0.2058 -0.1675 -0.2937
40150W        W83203   4.795  15.550  22.654  0.2047  0.1677  0.1593
40151W        W83204   0.650  31.973  28.714 -0.0520 -0.0798  0.1293
40152W        W83205   9.776   4.579  29.083 -0.1687  0.0341 -0.0081
40153W        W83206  14.320  31.989   0.059 -0.2026  0.1490  0.2185
40154W        W83207  13.815  11.741  22.635  0.0767 -0.0564  0.0962
40155W        W83208  13.495  12.613  23.513  0.0204  0.0359 -0.0065
40156W        W83209   8.984  21.984  19.866  0.0010  0.0055 -0.0484
40157W        W83210   2.786  10.616  17.076  0.2117 -0.1507  0.0333
40158W        W83211  13.192  18.002   0.303  0.1922  0.1470  0.0255
40159W        W83212   3.711  23.782   8.539  0.1084 -0.0211  0.0705
40160W        W83213   9.571  11.264  23.901  0.0371  0.1023 -0.0325
40161W        W83214   8.050  11.603   2.195  0.4056 -0.1135 -0.0349
40162W        W83215   3.033  21.502  17.935 -0.0240  0.1255  0.1166
40163W        W83216   8.629   8.653  11.128 -0.1354 -0.0275 -0.0475
40164W        W83217   8.765   7.153  25.675  0.0549 -0.0539 -0.1305
40165W        W83218   9.895  13.679  18.441  0.4483 -0.0569 -0.1121
40166W        W83219   3.046   7.287  24.131  0.2618 -0.0426 -0.0928
40167W        W83220   7.737  32.539  19.786 -0.2831  0.1057  0.3071
40168W        W83221  10.898  25.939  16.866 -0.1790 -0.0124 -0.0878
40169W        W83222   9.403  19.370  14.238 -0.0626 -0.1845  0.0167
40170W        W83223  23.155  21.836   6.149 -0.1890  0.0998  0.3359
40171W        W83224  21.299   4.480  24.392 -0.0960  0.1158 -0.2094
40172W        W83225  18.145   9.309  24.469  0.1896  0.3687 -0.0505
40173W        W83226  10.191  13.290   3.270 -0.4927  0.3666 -0.1338
40174W        W83227  19.934   2.406  23.809 -0.0689  0.0529 -0.0381
40175W        W83228   8.178  27.445   8.287  0.1926  0.2057  0.1585
40176W        W83229  10.369   6.204   9.479 -0.0883  0.1629 -0.1032
40177W        W83230  16.724   5.062   0.436 -0.2954  0.1865 -0.0831
40178W        W83231   8.806  13.533  16.655 -0.1098  0.1253  0.0553
40179W        W83232  29.547   9.129  27.816 -0.3494 -0.5551 -0.1536
40180W        W83233   4.397  16.604  16.782  0.4271 -0.1674  0.1435
40181W        W83234  14.720  22.871   6.123 -0.0002 -0.3371 -0.0502
40182W        W83235  26.041   8.291  16.986  0.0040  0.2133  0.4378
40183W        W83236   5.598  30.446  16.787  0.1025  0.0318 -0.2242
40184W        W83237  17.730   2.113   0.819  0.3249  0.4894 -0.4660
40185W        W83238   5.580   4.129  20.827 -0.0936  0.0574  0.3630
40186W        W83239  31.677  22.977   5.800 -0.3837  0.0659  0.4085
40187W        W83240  14.079  11.610  15.372  0.1967 -0.2110  0.3363
40188W        W83241   4.944   2.452   7.676  0.1588 -0.1784  0.2236
40189W        W83242  25.298  31.235  29.201  0.0529 -0.0954  0.1121
40190W        W83243  10.176  27.545  25.342 -0.0045  0.0069 -0.0772
40191W        W83244   5.384   3.000  15.262  0.1205 -0.0144 -0.0757
40192W        W83245  17.716   3.195   9.854  0.0874 -0.0512 -0.0956
40193W        W83246   2.435   9.960  15.558 -0.2894  0.4067 -0.0349
40194W        W83247   1.528   4.202  20.992 -0.0241  0.0796 -0.0970
40195W        W83248  27.132   9.422  20.432 -0.2106 -0.0299  0.0383
40196W        W83249  17.555   4.828   7.262 -0.0017 -0.1358  0.1733
40197W        W83250  13.501   8.656  27.268 -0.2232 -0.2552 -0.1134
40198W        W83251  22.875   0.534  26.252  0.3527  0.0981  0.1449
40199W        W83252   5.666  33.391   1.213  0.0357  0.1654 -0.0794
40200W        W83253   8.174   1.674  25.313 -0.1266  0.0098 -0.0784
40201W        W83254  30.065   8.363  21.881  0.3553  0.0631  0.1381
40202W        W83255  12.515  33.836  15.800  0.1728 -0.0882  0.2834
40203W        W83256   0.621  14.228   1.197  0.1392  0.0439  0.3286
40204W        W83257   1.845   9.856  25.680  0.0876 -0.0824 -0.4162
40205W        W83258  31.047   4.272  19.738 -0.1244  0.2700  0.0899
40206W        W83259   2.193   6.731  17.432 -0.2249 -0.1664 -0.1059
40207W        W83260  15.582  29.509   4.326 -0.0110  0.3273  0.4570
40208W        W83261   2.866  13.799  19.727  0.0168 -0.2738  0.2013
40209W        W83262   7.820  21.859  21.690  0.0418  0.0594  0.0438
40210W        W83263   4.686  13.748  23.420  0.3009  0.0276  0.2639
40211W        W83264  13.809  27.916  18.277  0.0299 -0.1204 -0.2112
40212W        W83265   4.242  32.672  23.211  0.2645  0.1286 -0.1525
40213W        W83266  13.460  11.974  25.897  0.1896  0.0413  0.0943
40214W        W83267  14.672   5.105  23.814  0.0937 -0.0781  0.1163
40215W        W83268  28.621   7.913  17.305 -0.1820 -0.0015 -0.3538
40216W        W83269   9.523  25.824  21.711  0.0232  0.3389  0.0250
40217W        W83270  11.441   9.274  18.869 -0.2126 -0.1518 -0.1646
40218W        W83271   2.463  13.609  25.773 -0.1522 -0.1336 -0.2024
40219W        W83272  16.222  31.538  28.693 -0.0717  0.0021 -0.1712
40220W        W83273   4.382  23.363  27.570 -0.0045  0.4033 -0.1412
40221W        W83274  13.414   3.632  23.121  0.2472 -0.0728 -0.0700
40222W        W83275   4.107   2.603  15.256  0.0451  0.1380  0.1801
40223W        W83276   6.785  26.762  17.050  0.0978 -0.0767  0.0195
40224W        W83277   6.996  12.221  23.646  0.1950 -0.2184  0.0718
40225W        W83278  30.811  19.446  21.704  0.0043 -0.3625 -0.1044
40226W        W83279   2.257  30.972   1.288 -0.1176 -0.1900  0.1729
40227W        W83280   6.706   4.391   9.069  0.0939  0.2498  0.1893
40228W        W83281  29.626  27.986  18.889  0.1599 -0.2830 -0.1842
40229W        W83282   9.927  14.852   4.157 -0.1873  0.0340  0.1043
40230W        W83283   1.633  28.869   4.137 -0.0657  0.0942  0.1191
40231W        W83284   6.951   3.857  20.202 -0.2376  0.1392  0.1073
40232W        W83285   2.805  11.887   8.994  0.1795  0.0687  0.0724
40233W        W83286  33.886  33.711  18.646  0.2101  0.1630 -0.1211
40234W        W83287  12.448  25.885   5.779 -0.1435  0.0272  0.0188
40235W        W83288  11.177  15.156   6.211  0.3333  0.1568 -0.1527
40236W        W83289   1.197  10.546  27.530  0.2220 -0.0310 -0.0310
40237W        W83290   7.700   9.122  26.617 -0.1894 -0.0039 -0.2924
40238W        W83291  10.776  14.297  22.297  0.1902  0.1122 -0.2218
40239W        W83292  16.813   8.627  17.909  0.2411 -0.0104  0.2110
40240W        W83293  22.740  28.097  18.617 -0.2255  0.4201  0.0092
40241W        W83294   0.456  14.576  17.934 -0.1959 -0.0965 -0.1425
40242W        W83295   9.209  18.861  20.912  0.3191  0.3553  0.0125
40243W        W83296   2.011   8.232  14.494 -0.1775 -0.0515  0.1586
40244W        W83297  13.809   7.578   3.154 -0.0096 -0.0770 -0.1386
40245W        W83298   1.147  13.158   0.843  0.3145 -0.0498  0.0497
40246W        W83299  24.769  30.312  17.668 -0.2298  0.2939  0.1831
40247W        W83300   8.595   6.579  27.419 -0.0982  0.3558  0.1743
40248W        W83301  13.582   9.481  24.572  0.0798 -0.3580 -0.1973
40249W        W83302   6.462  23.078  20.414  0.2965  0.3075  0.1829
40250W        W83303  34.041   1.667   0.258  0.2158  0.0612 -0.3142
40251W        W83304   4.420   2.151  23.809 -0.0872  0.0735  0.3599
40252W        W83305  13.511  10.012  16.662 -0.0963 -0.2159 -0.1162
40253W        W83306  22.426   2.473   0.649  0.0963 -0.0503 -0.1506
40254W        W83307  27.681   5.843  23.372  0.0452 -0.2816 -0.0503
40255W        W83308   9.828  23.973  14.882 -0.0150 -0.2325 -0.3202
40256W        W83309  34.252  10.746   4.939 -0.1547  0.1153 -0.1854
40257W        W83310  34.280  25.061  21.148 -0.1970 -0.2680  0.0473
40258W        W83311  31.329   8.739   1.604 -0.1628 -0.3213  0.2688
40259W        W83312  11.761  32.669  19.611 -0.0184  0.0247 -0.3290
40260W        W83313   4.309  11.712  16.912 -0.0934 -0.3329 -0.0064
40261W        W83314  13.867  27.319  27.059  0.1783  0.1079 -0.0993
40262W        W83315   0.994   6.683  20.274 -0.1230 -0.1343  0.0490
40263W        W83316  20.840  29.122   5.271  0.1473 -0.2441  0.2809
40264W        W83317  33.048  21.406  14.700  0.1413  0.0475 -0.2034
40265W        W83318   2.763  16.862   5.296 -0.0484  0.0909  0.0910
40266W        W83319  12.916   6.156   8.297  0.2801 -0.2864 -0.0124
40267W        W83320  32.818  18.040  28.511 -0.3529  0.1968 -0.3526
40268W        W83321   1.792  17.365  24.961 -0.3671  0.2049  0.3422
40269W        W83322  30.130  18.012  25.545  0.1395  0.3207  0.0174
40270W        W83323   7.299   3.993   1.975 -0.2909 -0.0539  0.0002
40271W        W83324   5.795   6.017  18.718  0.4670 -0.0184  0.2786
40272W        W83325   3.143   1.784   5.115  0.2599  0.0817  0.0227
40273W        W83326  20.952  28.855  17.296  0.0084  0.1206 -0.0738
40274W        W83327  12.353  11.722   2.948 -0.1956 -0.1345  0.1261
40275W        W83328   1.575  15.678  14.772  0.2464 -0.1249 -0.3810
40276W        W83329  20.721  16.295  24.445  0.2529  0.2458 -0.0173
40277W        W83330  23.822  33.707  20.803 -0.0584 -0.0522  0.2137
40278W        W83331  26.353  16.982  15.449  0.0782  0.0797  0.3017
40279W        W83332  23.055   7.897  23.819  0.1459 -0.3844  0.6635
40280W        W83333   6.074  33.927  20.413 -0.2794  0.0960 -0.2505
40281W        W83334  27.169  33.366   6.575 -0.2248 -0.0331  0.0738
40282W        W83335  10.091   9.114   6.652 -0.2348  0.2777 -0.0102
40283W        W83336  32.228  31.734  24.011  0.2988 -0.0186 -0.0401
40284W        W83337  34.591  33.279   0.951  0.0358  0.1230 -0.1991
40285W        W83338   8.393  22.685  17.967 -0.1716  0.0150  0.1066
40286W        W83339   8.533  18.867  19.933  0.1285 -0.0897 -0.0228
40287W        W83340   5.683   9.702   8.107 -0.1516  0.0836  0.0539
40288W        W83341  15.151  10.773   2.283 -0.2810  0.1241  0.1363
40289W        W83342  31.515  27.181  15.599 -0.1072 -0.0154  0.2189
40290W        W83343   9.150   7.299  14.883 -0.1058 -0.0342 -0.1272
40291W        W83344  33.144   4.593   9.341 -0.3659 -0.0878 -0.3476
40292W        W83345   2.037   4.411  22.734 -0.1267 -0.4800 -0.2808
40293W        W83346  23.637  20.782  19.276 -0.0765 -0.2147  0.0809
40294W        W83347  29.682   3.579  24.083 -0.1502  0.3244 -0.2613
40295W        W83348  14.939   5.506  21.086 -0.0196 -0.1747 -0.1481
40296W        W83349  27.131  15.543  21.313  0.0159  0.1588 -0.0913
40297W        W83350  12.177   1.487   7.935  0.0654  0.2547  0.1253
40298W        W83351   9.892  30.893   2.044 -0.0624  0.1071 -0.2073
40299W        W83352  33.985  32.866  16.260  0.0871 -0.0597 -0.1890
40300W        W83353  26.995   4.448  22.377  0.1733 -0.1169  0.0775
40301W        W83354   2.761  11.416   3.046 -0.1906  0.3276  0.0495
40302W        W83355  33.445  19.217  20.061 -0.1967  0.0628  0.0462
40303W        W83356   1.742   2.832  26.140 -0.0130 -0.2239 -0.0549
40304W        W83357  20.392  33.107  16.376 -0.0309 -0.2430  0.1373
40305W        W83358  22.225  18.140  16.116  0.2025 -0.0059 -0.0309
40306W        W83359   9.831  19.579  21.164  0.2531 -0.1318 -0.1471
40307W        W83360  30.489   8.345  25.682  0.0633  0.1325  0.2139
40308W        W83361   1.874   8.606   8.616  0.3051 -0.0255  0.2339
40309W        W83362  10.891   6.849  14.375  0.1998  0.0008  0.0212
40310W        W83363  13.895  21.823   3.888  0.0392  0.0177  0.0236
40311W        W83364  18.341  30.303  23.316  0.2080  0.4621  0.0132
40312W        W83365   6.178   7.240  19.878  0.1216  0.1991 -0.0163
40313W        W83366  23.206  32.154  18.023  0.1826 -0.1241 -0.2237
40314W        W83367  33.819  21.371   7.406  0.1597 -0.2335  0.1202
40315W        W83368  21.175  23.233  16.550  0.0145 -0.0994 -0.3536
40316W        W83369  11.758  11.519  27.571  0.1308  0.0484 -0.1028
40317W        W83370  10.354  27.638  24.838  0.0061  0.2277  0.2275
40318W        W83371  13.250   6.979  18.666  0.0608 -0.2510 -0.0397
40319W        W83372  17.970   1.916   6.895 -0.1762 -0.0789 -0.0014
40320W        W83373  20.417   8.198  24.809  0.0095  0.0103 -0.1832
40321W        W83374  11.217  22.395  22.471  0.1122  0.0380 -0.2103
40322W        W83375  29.031  12.615   5.555 -0.0282  0.2493  0.3726
40323W        W83376   5.568  31.397  25.406  0.0287  0.1208  0.2427
40324W        W83377  31.658  26.089  21.589  0.2957  0.0899 -0.1031
40325W        W83378   8.453   1.457  17.821 -0.0317  0.2769 -0.0607
40326W        W83379   2.208  16.663   7.044  0.3266  0.0018 -0.0030
40327W        W83380  32.254  11.223  23.378  0.1786  0.1906  0.0913
40328W        W83381   6.326  18.724  22.097 -0.1835  0.0438  0.2456
40329W        W83382  21.099   9.466  17.058  0.1716 -0.1224 -0.0411
40330W        W83383  14.350   4.066  26.031  0.1936  0.1504 -0.0964
40331W        W83384  18.492   6.791  24.279  0.3319 -0.2002 -0.2130
40332W        W83385  12.246  15.279  27.156 -0.1135  0.0331 -0.1737
40333W        W83386  32.379   8.651  28.911 -0.2850  0.1812  0.1007
40334W        W83387  12.292   7.033  18.296  0.3084  0.0764 -0.2477
40335W        W83388  34.264  13.063  14.970  0.0502 -0.2132  0.1905
40336W        W83389  30.672   1.729  26.973  0.0290  0.2962  0.0126
40337W        W83390   7.993   2.035   8.820  0.1561  0.0400 -0.1065
40338W        W83391   1.060   8.880  25.488 -0.0222 -0.1918  0.0026
40339W        W83392   8.402  12.054  22.796  0.0679 -0.6521  0.2479
40340W        W83393  29.914   7.320   0.660 -0.0007  0.1172 -0.0734
40341W        W83394  14.035  30.688   8.709 -0.2907 -0.2175  0.2923
40342W        W83395  31.447   0.662  21.358 -0.0469 -0.0783 -0.1233
40343W        W83396   3.627  11.967   6.782  0.0800  0.0470  0.0508
40344W        W83397   0.865  32.892  23.282 -0.0432 -0.0849 -0.0222
40345W        W83398  16.500  33.630   7.669  0.1422 -0.0012  0.0506
40346W        W83399   2.386   9.040   2.419  0.3095 -0.0947 -0.0220
40347W        W83400  17.036  12.173   1.217 -0.6052 -0.3943  0.1046
40348W        W83401   4.046  15.329   1.860  0.1692  0.1231 -0.3490
40349W        W83402  20.767  26.526  10.698  0.0543  0.2382 -0.1172
40350W        W83403   0.173  11.839  19.059  0.1126 -0.2147 -0.0892
40351W        W83404  29.637  18.286   6.103  0.0065  0.0912 -0.2463
40352W        W83405  10.075  14.033  10.020 -0.0088 -0.2365 -0.2466
40353W        W83406   1.814  11.172   5.100  0.1104 -0.0442 -0.0445
40354W        W83407  25.283  22.280   1.394  0.1845 -0.1514 -0.0514
40355W        W83408   2.116  30.246   6.460 -0.0580  0.3850 -0.2907
40356W        W83409  24.961  28.959  27.355  0.0164 -0.0351  0.0382
40357W        W83410  24.728   3.003  19.314  0.0889  0.0365  0.2822
40358W        W83411  16.576  31.363  26.051 -0.1430 -0.1751  0.0694
40359W        W83412  19.925  28.996   1.441 -0.2202 -0.2877  0.0147
40360W        W83413  16.707  13.881  22.554  0.1845  0.1530  0.0194
40361W        W83414   2.715  18.605  19.693  0.1918  0.3217 -0.0711
40362W        W83415  21.792   0.096   4.309  0.1739  0.2126 -0.0271
40363W        W83416  10.126  10.370  28.144 -0.0899  0.1089  0.0972
40364W        W83417  19.291   7.809  18.616 -0.0543 -0.5541  0.4799
40365W        W83418   4.396  12.890   7.532 -0.0711  0.2822  0.3104
40366W        W83419  24.983  33.697  22.268 -0.1172 -0.2230 -0.0887
40367W        W83420   7.993  10.905  18.670  0.1959 -0.0928 -0.1479
40368W        W83421  13.048   3.502  24.828 -0.2155  0.2084 -0.2819
40369W        W83422  18.509   3.715  14.489 -0.1933  0.0196 -0.2199
40370W        W83423   5.833   8.962  16.850 -0.0484  0.3145  0.1877
40371W        W83424  12.185  18.169  16.157  0.0040 -0.4689 -0.1901
40372W        W83425   3.491  17.201   9.494  0.1400  0.3342  0.0294
40373W        W83426  17.077  25.231   6.574 -0.1808 -0.0908  0.0084
40374W        W83427   6.896   4.126  19.225  0.3003 -0.2124 -0.0015
40375W        W83428   7.997   3.847   0.693  0.2565 -0.0559  0.1659
40376W        W83429  22.215  28.759   6.700  0.0180  0.1475 -0.0997
40377W        W83430  13.326  31.316   7.285  0.1169  0.2327 -0.2777
40378W        W83431   9.323  17.295  16.267 -0.1454 -0.0788  0.2653
40379W        W83432   4.161   3.316  21.585 -0.0507 -0.1288  0.0641
40380W        W83433  10.525  31.000   8.503  0.1153  0.1545 -0.2604
40381W        W83434  12.011   6.167   7.396 -0.2724  0.0312 -0.0300
40382W        W83435   7.520   6.474   6.688  0.0697 -0.0540  0.1730
40383W        W83436  19.704   4.920  28.190  0.2366  0.0456  0.1637
40384W        W83437   6.849  21.100  23.635  0.2695  0.3037 -0.2014
40385W        W83438  13.708  19.053  18.019  0.1418  0.1298  0.1827
40386W        W83439  16.408  34.574  19.518 -0.3621 -0.0823 -0.2082
40387W        W83440  18.210   5.111  24.941  0.0195 -0.1453  0.2955
40388W        W83441  15.669  34.553   1.783 -0.1137  0.2257  0.1779
40389W        W83442  13.525   4.829  18.802  0.0755  0.1244  0.1287
40390W        W83443   1.954   7.732  17.672  0.1432 -0.6122  0.5043
40391W        W83444   6.974   3.655  19.146  0.3022 -0.0472 -0.2362
40392W        W83445  33.980  15.150  23.613  0.1018  0.2231 -0.1300
40393W        W83446  10.444   8.189  19.947  0.0012 -0.1299  0.0010
40394W        W83447  21.967  29.889   5.368 -0.0082  0.0185 -0.0318
40395W        W83448   7.649  13.286  29.158 -0.0485  0.1666  0.0888
40396W        W83449  19.102  12.723   0.635 -0.3047  0.0566 -0.2381
40397W        W83450  13.870   8.276  23.003 -0.1148  0.1734  0.1949
40398W        W83451  14.731  33.962  18.580 -0.0961  0.1224  0.0012
40399W        W83452   7.858  26.451   1.959  0.3570 -0.0413  0.1723
40400W        W83453   5.401  18.617  23.218  0.1361 -0.0989 -0.3179
40401W        W83454  12.047   0.942  20.593 -0.1822  0.2899  0.1540
40402W        W83455  23.325   8.110  14.754  0.0592 -0.1714  0.0845
40403W        W83456  34.000  18.294  25.591  0.3051  0.2320 -0.0090
40404W        W83457  14.997  27.057  28.416  0.3705  0.3696 -0.2275
40405W        W83458   6.009  27.162  16.142 -0.1691 -0.0506  0.0808
40406W        W83459  11.346  17.511   5.450  0.3616 -0.1692  0.0212
40407W        W83460  32.050  16.629  28.511 -0.0304 -0.3464  0.2982
40408W        W83461  28.885  19.718  16.672 -0.3467  0.0076 -0.0129
40409W        W83462  16.824  15.533  28.136  0.0451 -0.2439 -0.0149
40410W        W83463  15.706  31.197  27.209  0.1047  0.0585 -0.1676
40411W        W83464  14.387  11.119  22.910 -0.3119 -0.1018 -0.4048
40412W        W83465  14.972  11.665  22.203  0.1560 -0.2052  0.0535
40413W        W83466  28.195   0.380  29.065  0.1860 -0.1965 -0.2849
40414W        W83467  18.751   1.292   6.945 -0.0049 -0.5525  0.0496
40415W        W83468  26.300   5.647  23.415 -0.0357  0.2397 -0.1614
40416W        W83469  14.249  13.695   7.257  0.1297  0.0080  0.3695
40417W        W83470  33.845  16.059  26.267  0.2070 -0.2069 -0.1249
40418W        W83471  22.933   8.902   5.331 -0.3018 -0.0360 -0.3150
40419W        W83472  10.871  21.510  22.495 -0.2835 -0.0313  0.1110
40420W        W83473  17.458   6.241  20.220  0.2299  0.1404 -0.1814
40421W        W83474  25.754  33.925  23.990 -0.0559 -0.1320  0.2587
40422W        W83475   6.056   1.022  24.191  0.0691  0.0119  0.2318
40423W        W83476  33.508  21.902   5.775  0.1881 -0.3455 -0.1161
40424W        W83477  14.997   9.869  27.494  0.0513  0.0751 -0.2101
40425W        W83478   5.698   6.943  22.687  0.0967 -0.3210  0.0296
40426W        W83479  32.483  22.389  14.252 -0.1627 -0.1581 -0.1880
40427W        W83480  27.280   0.477   1.919 -0.0724  0.1410  0.2022
40428W        W83481  21.251  12.666   4.180 -0.1527 -0.0165  0.2081
40429W        W83482  12.253  10.516  26.376  0.0626  0.1398 -0.1317
40430W        W83483   6.607   6.347  15.706  0.1433  0.0123  0.3083
40431W        W83484   5.312   4.744   3.667  0.1929 -0.0189  0.1552
40432W        W83485  15.262  23.583  23.669 -0.1354  0.0707  0.2094
40433W        W83486  13.431  19.787  15.652  0.0147 -0.0686  0.1998
40434W        W83487  18.919  13.264   1.854 -0.1076 -0.0188 -0.2740
40435W        W83488   0.977  12.013   8.951 -0.2243 -0.2950 -0.0635
40436W        W83489   9.939  21.392  15.772  0.2116  0.1015  0.1111
40437W        W83490  13.404   3.862   2.292  0.1289  0.1798 -0.4223
40438W        W83491  11.048  19.224  10.704 -0.1563  0.0180  0.1518
40439W        W83492   7.460   8.213  10.027  0.2806 -0.0099  0.1401
40440W        W83493  10.416   8.341   2.818  0.1266 -0.0813  0.2384
40441W        W83494   8.788  14.707   2.543  0.0966 -0.1098 -0.0691
40442W        W83495  20.543  32.036   8.167  0.0192  0.1577  0.0862
40443W        W83496  13.734  15.554   6.827  0.1662 -0.1460 -0.2318
40444W        W83497  16.439  32.205   0.879 -0.3021  0.1341 -0.2746
40445W        W83498  31.589   4.502   2.352 -0.1558  0.1470  0.0471
40446W        W83499  22.260   4.638  25.589  0.1634  0.1794  0.0196
40447W        W83500  18.269   6.649  17.937 -0.0063  0.2616 -0.1596
40448W        W83501   3.037  11.387   4.077  0.1947 -0.4489 -0.1412
40449W        W83502  33.548  14.355  17.817  0.1994  0.0291 -0.0861
40450W        W83503  21.504   9.886  20.554 -0.0836  0.1223  0.2233
40451W        W83504  11.785  13.929   7.819  0.1545 -0.2097 -0.0669
40452W        W83505  32.903   1.262  28.776 -0.2126 -0.3157 -0.3170
40453W        W83506  13.863  34.066  14.481  0.1414  0.0203 -0.0045
40454W        W83507  15.041  28.693  21.033 -0.0376 -0.1960 -0.0420
40455W        W83508  29.951   3.231  18.227  0.1751 -0.2919  0.1422
40456W        W83509   6.675  11.363  17.955  0.2459 -0.1420 -0.4031
40457W        W83510   0.064  10.600   4.379 -0.1262 -0.1994 -0.0547
40458W        W83511   5.883   1.705  26.700 -0.0446 -0.1135  0.2281
40459W        W83512  30.018  30.962  27.816  0.0976  0.0444  0.0504
40460W        W83513   3.117   7.041  28.020  0.0649  0.2252 -0.0104
40461W        W83514  15.637   4.502  18.001 -0.1693 -0.0766 -0.1456
40462W        W83515  13.787   3.658  18.843 -0.1838  0.2352 -0.0446
40463W        W83516   8.721  32.008   3.362  0.0480  0.0847 -0.1731
40464W        W83517   1.506  21.089  19.068  0.2441  0.1086 -0.1092
40465W        W83518  31.167   6.437  26.742 -0.1351  0.0033 -0.0347
40466W        W83519   6.367   4.818   8.916  0.0148  0.1615  0.0370
40467W        W83520  12.662  32.781  26.528  0.1566 -0.3023 -0.1209
40468W        W83521  17.547   4.634   0.103  0.1225  0.0804  0.1352
40469W        W83522  26.583   0.841  15.800 -0.0983  0.2557  0.2060
40470W        W83523   5.110  26.818  25.618  0.0260  0.1680  0.2270
40471W        W83524  22.672  34.673   2.976  0.0451  0.1739  0.4410
40472W        W83525   3.625  19.889  22.332 -0.2829 -0.1649 -0.0949
40473W        W83526  33.659   8.700   5.453 -0.0018 -0.2213 -0.0469
40474W        W83527  20.082  32.917  29.078 -0.0139  0.0027 -0.1695
40475W        W83528   9.892  10.954   5.365 -0.0990 -0.3134 -0.0351
40476W        W83529  20.959  14.872   0.476 -0.2074 -0.3626  0.2504
40477W        W83530  27.739  29.478   2.066 -0.2492  0.2865 -0.0430
40478W        W83531  11.971  32.177  27.586  0.2571  0.0012 -0.1603
40479W        W83532  28.463  33.464  26.687  0.1784  0.1297 -0.1967
40480W        W83533  11.255  11.991   0.027 -0.0192 -0.0773  0.0385
40481W        W83534   8.566   3.581  21.272 -0.1568  0.0140  0.0887
40482W        W83535  11.345  10.123  16.440 -0.2961 -0.0464 -0.1789
40483W        W83536   0.836  32.470   7.829  0.0949 -0.2176 -0.1818
40484W        W83537  15.110  17.490  25.256 -0.0558 -0.2051  0.2902
40485W        W83538   5.110  21.193   7.180  0.0383 -0.0172  0.3175
40486W        W83539   5.365  25.185  23.129  0.3356 -0.0263 -0.0006
40487W        W83540   8.358  23.382  19.807  0.1741  0.2080  0.0571
40488W        W83541  10.350   7.122  19.039  0.1387  0.1601 -0.1107
40489W        W83542   6.459   1.573  27.564 -0.1486  0.1959  0.2607
40490W        W83543  17.476   4.752   1.531  0.0621  0.0970 -0.0692
40491W        W83544   9.340  30.788  19.860 -0.3710 -0.1431  0.2837
40492W        W83545   3.416  30.478  21.676 -0.2797 -0.0798  0.0271
40493W        W83546   7.559  29.625  21.697 -0.0826 -0.1581  0.0973
40494W        W83547   6.494  32.809   2.369 -0.0964  0.0926 -0.1199
40495W        W83548   0.990  18.181  14.487  0.0289 -0.2481  0.1347
40496W        W83549  14.759  13.084   5.000 -0.0394 -0.3166  0.2511
40497W        W83550  13.540  21.792   5.567 -0.1157  0.0455  0.0297
40498W        W83551  17.613   0.920   7.742 -0.2540 -0.1036 -0.3048
40499W        W83552   3.200  18.915  26.294 -0.0635 -0.2621 -0.2887
40500W        W83553  15.744  23.162  18.327 -0.1440 -0.0589  0.0278
40501W        W83554   1.575  11.689   1.368 -0.1820  0.0336  0.1742
40502W        W83555   6.380   9.215  14.810  0.1055 -0.2565  0.2361
40503W        W83556  31.142  17.751  24.180 -0.3784  0.5845 -0.3549
40504W        W83557   4.224   3.793  17.512 -0.1653 -0.2301  0.1965
40505W        W83558  15.340   4.679   5.883 -0.0054  0.1464 -0.0717
40506W        W83559  19.476  32.622   4.740  0.2368 -0.4468  0.1855
40507W        W83560  20.503  30.344   9.826  0.2657  0.0690 -0.1905
40508W        W83561  27.445   1.150   6.320  0.0834  0.0307  0.2290
40509W        W83562   0.698   4.403  20.285 -0.1702 -0.0139 -0.2536
40510W        W83563  20.083  30.861  28.889  0.0516  0.1518 -0.3039
40511W        W83564  15.532  26.546  25.077  0.0146 -0.2623 -0.0428
40512W        W83565   4.152  13.349   0.680 -0.4957  0.1549  0.2967
40513W        W83566  12.428  21.471   5.118  0.3426  0.0701 -0.1858
40514W        W83567  22.238  32.769  26.720 -0.0229 -0.4131  0.0820
40515W        W83568  31.997   0.258   1.581  0.1217 -0.0930 -0.2408
40516W        W83569  12.192   0.888   7.196  0.0071 -0.1235  0.1201
40517W        W83570   0.953   5.602   0.792  0.0141 -0.2138 -0.1278
40518W        W83571   6.597  19.107  16.174 -0.3613 -0.3314  0.1708
40519W        W83572  16.547  14.383  14.454 -0.0754 -0.0421 -0.2470
40520W        W83573   9.789  31.863   4.618  0.1205  0.0158  0.1480
40521W        W83574  19.965  28.104   1.297 -0.1577  0.1345  0.2740
40522W        W83575  13.148  12.868   5.233  0.1554  0.0020 -0.0189
40523W        W83576  34.375  10.257  23.185  0.1428 -0.3856 -0.1359
40524W        W83577  15.757   4.893  15.681  0.1569  0.0982  0.0088
40525W        W83578  19.918  28.188  25.599  0.0847 -0.2604  0.0175
40526W        W83579  10.937  21.123   2.658  0.0674  0.0348  0.0502
40527W        W83580  24.083  13.493   4.267  0.1282 -0.1567  0.0300
40528W        W83581  31.625   6.238   2.749  0.2827  0.0304 -0.0928
40529W        W83582  14.039   3.182  19.917 -0.2007 -0.0401  0.1101
40530W        W83583  32.612   6.045   4.269 -0.0463  0.0126  0.1780
40531W        W83584  24.189  13.155  19.909  0.1049  0.1119  0.1601
40532W        W83585   4.197   3.586  26.729  0.1084 -0.1525 -0.0093
40533W        W83586  34.155   2.922   7.441 -0.1994  0.1122 -0.2319
40534W        W83587  32.326  25.128   6.754 -0.2733 -0.0661  0.1461
40535W        W83588   7.730  31.359  18.103 -0.4153 -0.2705  0.1751
40536W        W83589  14.024  32.253   7.303 -0.3596  0.0216  0.1167
40537W        W83590  14.885  11.165   2.566 -0.2037  0.2034  0.2185
40538W        W83591  27.048   7.560  28.368 -0.1559 -0.2772 -0.1995
40539W        W83592  33.288  24.757  13.741 -0.1529  0.3353  0.2084
40540W        W83593   4.003   6.251   2.099  0.1122 -0.1730 -0.0568
40541W        W83594   5.006  10.463   9.116 -0.0502 -0.0465  0.0409
40542W        W83595  12.366   7.850  22.111 -0.0225 -0.5462 -0.0492
40543W        W83596   8.490  10.591  21.443  0.1803  0.0396 -0.0401
40544W        W83597   9.051   1.950   0.103 -0.0147 -0.0536 -0.1623
40545W        W83598   8.613  31.278   5.589 -0.1657 -0.2228 -0.2629
40546W        W83599   9.219  30.282  21.381 -0.3593  0.3993 -0.0682
40547W        W83600  14.141  28.828   4.298  0.0131 -0.3134 -0.2721
40548W        W83601   6.693   2.278  24.404 -0.0425 -0.1954  0.1635
40549W        W83602   6.734  30.444  18.119 -0.0804  0.1191  0.1007
40550W        W83603   5.532   2.258   1.275 -0.1692 -0.1105  0.1042
40551W        W83604  24.727  28.720  25.953 -0.2668 -0.4002  0.1010
40552W        W83605  16.362   3.169   2.841 -0.3485  0.0784 -0.0137
40553W        W83606  25.857   1.708  24.726  0.0446  0.1621  0.2819
40554W        W83607   0.064  19.781  19.368 -0.0598  0.1902  0.0161
40555W        W83608   3.813   7.584  19.364 -0.0357 -0.0671  0.0669
40556W        W83609   7.920  18.818  15.486 -0.0504 -0.0416  0.1545
40557W        W83610   6.309   8.582  15.661 -0.1402  0.2061 -0.2719
40558W        W83611   3.304   6.900   3.553  0.0554  0.2018 -0.1890
40559W        W83612  10.166  34.128   5.801  0.3395 -0.0313 -0.1063
40560W        W83613  13.803  20.774  17.710  0.1476  0.0794 -0.4383
40561W        W83614   7.383   9.329  18.692  0.1435 -0.1721  0.2328
40562W        W83615   7.885   5.946   0.283 -0.3052 -0.1357 -0.1719
40563W        W83616  11.102  29.945   2.320  0.0819  0.0262  0.0674
40564W        W83617  14.531  20.946   9.327  0.0037  0.0617  0.0063
40565W        W83618  30.038   7.173   7.628 -0.2363 -0.1560 -0.0367
40566W        W83619   3.395  30.290  15.904 -0.2680 -0.2490  0.0559
40567W        W83620  23.676   5.526   1.338  0.0005 -0.2363  0.0642
40568W        W83621  14.959  15.429  24.222 -0.1969  0.2257 -0.3079
40569W        W83622   2.647   7.554  18.381  0.0606  0.3599 -0.0179
40570W        W83623  12.475  27.180   7.712 -0.4292  0.2552 -0.1528
40571W        W83624  16.678  11.848  20.077 -0.2799 -0.1807  0.0942
40572W        W83625  16.315   6.227  28.915 -0.4721  0.0449 -0.2421
40573W        W83626   3.804  12.791  19.661  0.0156  0.1373 -0.1914
40574W        W83627  16.231  22.803  28.957 -0.0369  0.2474  0.2284
40575W        W83628  11.584  33.467  22.917  0.0268 -0.0890  0.1692
40576W        W83629  10.894  28.989  19.190 -0.2955  0.0441 -0.3011
40577W        W83630  16.879   5.010  10.540  0.1481  0.1366 -0.0451
40578W        W83631  30.964  33.695  25.746  0.0923 -0.1280  0.1372
40579W        W83632   7.923  26.718  25.352 -0.0876 -0.1185  0.0323
40580W        W83633   0.012   3.010   3.809 -0.3448  0.0180 -0.2037
40581W        W83634  23.492  13.660  17.852 -0.1074 -0.1885 -0.3980
40582W        W83635  33.515  22.546   1.796  0.0503 -0.6710  0.0951
40583W        W83636   7.957   4.667   8.421  0.1854 -0.2339 -0.0937
40584W        W83637  28.624   6.297  16.534 -0.0668  0.0437  0.0014
40585W        W83638   6.950  21.253  15.538  0.0156  0.2231  0.1578
40586W        W83639  12.297  30.977  27.913 -0.0560 -0.0296  0.2531
40587W        W83640  20.938   1.929   4.155  0.1804 -0.2518 -0.1045
40588W        W83641  30.240   9.519  16.855 -0.0528  0.0464 -0.0730
40589W        W83642   1.176  14.823  16.934 -0.0243  0.2497 -0.0935
40590W        W83643   8.650   4.257  28.939 -0.2043 -0.3980 -0.0196
40591W        W83644  24.125   0.921  22.240 -0.1899  0.1076  0.2812
40592W        W83645   0.569  20.265  23.364  0.1107 -0.0076  0.1333
40593W        W83646   3.480  30.906   2.577  0.2492 -0.0019  0.0299
40594W        W83647  18.799   6.016   1.748 -0.0324  0.0992 -0.1472
40595W        W83648  11.834  20.480   1.066 -0.1233  0.2348  0.1590
40596W        W83649  12.236  28.318  13.280  0.3982 -0.1354  0.0223
40597W        W83650  30.948  11.171  19.726  0.3509 -0.0731  0.2290
40598W        W83651   4.844  34.494  25.049 -0.1414  0.0613  0.1509
40599W        W83652  32.736   1.855  28.193  0.1213  0.0581 -0.1082
40600W        W83653   1.503  28.235   0.801  0.2262 -0.0834 -0.1198
40601W        W83654  34.514  25.643  12.978  0.0545 -0.0371  0.1409
40602W        W83655  31.938  17.078  25.651 -0.4435 -0.0186  0.0712
40603W        W83656  10.257   9.040  17.352  0.0761 -0.2692 -0.0396
40604W        W83657   7.939  34.454  27.155  0.1875 -0.3244 -0.0165
40605W        W83658   5.923  18.494  15.137  0.0952 -0.1041  0.0648
40606W        W83659   6.688  16.448   4.028 -0.2453  0.0789 -0.3096
40607W        W83660  25.658  22.764  23.203 -0.1415 -0.0373 -0.0486
40608W        W83661   7.260  17.816   3.349  0.0279  0.0334  0.2665
40609W        W83662  30.111   8.444  19.937 -0.3209  0.2642 -0.1252
40610W        W83663   0.208  33.977  25.274 -0.3574 -0.0944  0.3601
40611W        W83664  10.402  20.679  16.281 -0.0566  0.1013  0.3416
40612W        W83665  16.227   9.521  27.042  0.0863 -0.3507 -0.2505
40613W        W83666   5.054  12.235  15.508 -0.1096  0.1254 -0.0286
40614W        W83667   4.908  13.160   3.747 -0.1118 -0.2173 -0.2239
40615W        W83668  10.273  27.059  13.609  0.2389 -0.1104 -0.3469
40616W        W83669  11.689  10.948   9.140  0.1494  0.0239  0.2446
40617W        W83670  33.173  16.013  15.962 -0.1622  0.3075 -0.1132
40618W        W83671   0.983  27.732   8.911  0.1146 -0.2038 -0.0255
40619W        W83672   6.367  20.736  22.806  0.1075  0.1313 -0.2539
40620W        W83673   8.407  18.989  16.179  0.0179 -0.0967 -0.1500
40621W        W83674   9.314   4.356  17.310 -0.1708  0.1503 -0.0172
40622W        W83675   8.290  15.823  18.447 -0.0755 -0.2396 -0.0989
40623W        W83676  25.452  11.154  28.670  0.2598 -0.0795  0.2215
40624W        W83677  20.406  16.785  14.400  0.2335 -0.2258 -0.0559
40625W        W83678   2.425   6.881  16.578 -0.0432  0.1046  0.2839
40626W        W83679  21.924  10.626  19.439 -0.2707  0.0200  0.4288
40627W        W83680  12.357  34.431  22.532 -0.3326 -0.0712  0.2037
40628W        W83681  14.503  26.507  22.664 -0.1339 -0.2716  0.0833
40629W        W83682  20.096   0.935   3.022  0.0675 -0.0686  0.2680
40630W        W83683  13.506  11.943  16.681  0.4405  0.1105  0.4523
40631W        W83684   9.822  17.636  28.676 -0.1569  0.0782  0.0693
40632W        W83685  20.627   6.838   6.882  0.0340  0.0460 -0.0551
40633W        W83686  14.890  19.289   1.359 -0.1144  0.0083  0.0899
40634W        W83687   5.360  17.713   9.225  0.3364 -0.1625  0.0274
40635W        W83688  20.289  28.737   9.020  0.0402 -0.0759 -0.2839
40636W        W83689  20.840  30.417   4.143  0.0385  0.0022  0.4589
40637W        W83690   5.856   3.706  25.371 -0.1305  0.3126  0.0080
40638W        W83691  14.924   5.807  23.196 -0.0365 -0.2574  0.0536
40639W        W83692  20.650  32.949  27.437  0.2289 -0.0012  0.0516
40640W        W83693  23.550   6.075   1.511 -0.1223  0.1637 -0.0465
40641W        W83694  18.769  27.105  25.812  0.0937 -0.1094  0.1496
40642W        W83695   9.177  25.990  23.547  0.0691  0.0793 -0.1285
40643W        W83696  11.683   2.860  15.482  0.2414  0.1192  0.1921
40644W        W83697   5.020  28.613   0.875 -0.0714  0.0082  0.1372
40645W        W83698  20.210  33.905  28.696 -0.4333 -0.0860  0.0861
40646W        W83699   8.044   0.195  23.198 -0.1020  0.2257 -0.0151
40647W        W83700  27.769  12.911  27.952 -0.2945  0.2355  0.0129
40648W        W83701  15.722  14.037  23.808 -0.1130 -0.1837  0.2166
40649W        W83702  14.813  14.882  16.471 -0.2789 -0.1834 -0.6427
40650W        W83703  18.348   8.746  20.619  0.2029 -0.0207 -0.4814
40651W        W83704   4.164  24.762   9.370  0.1593  0.1696  0.0075
40652W        W83705  11.282  12.713  24.912  0.3293  0.0980  0.1322
40653W        W83706  18.938  29.427   0.933  0.1049 -0.0118  0.1217
40654W        W83707  31.821  20.275  21.645  0.0287 -0.5236 -0.1229
40655W        W83708  24.905  34.133   5.180 -0.0863 -0.0495  0.1171
40656W        W83709  15.784  27.736   1.301  0.1892  0.4130  0.1287
40657W        W83710  15.303   7.452  20.946 -0.0013 -0.0814 -0.0543
40658W        W83711   7.993  15.842  17.852  0.1251 -0.2349 -0.0366
40659W        W83712  33.780  13.814  14.871 -0.0094 -0.2365 -0.2549
40660W        W83713  11.263   3.072  25.217  0.1640 -0.2343  0.2237
40661W        W83714  21.685  13.829  13.625 -0.1280  0.0235  0.2017
40662W        W83715   8.818  11.769  26.902 -0.4654  0.2448 -0.2769
40663W        W83716   8.958   8.427  15.567 -0.1770 -0.0757  0.0277
40664W        W83717   8.977  32.720   1.409 -0.0024 -0.0363 -0.0261
40665W        W83718  12.579   7.328   7.230  0.2783 -0.1331  0.5955
40666W        W83719   1.331  14.625  14.234 -0.1085  0.0175  0.2240
40667W        W83720  29.068  21.982  22.047 -0.2762 -0.0021  0.0789
40668W        W83721   6.238  12.612   9.282  0.0935 -0.2716  0.0636
40669W        W83722   2.778   2.471  13.960  0.0321  0.1986 -0.0407
40670W        W83723  14.176   5.020  23.749 -0.2034  0.0317  0.3103
40671W        W83724   0.062  33.346   2.077  0.1134  0.0426  0.1351
40672W        W83725  11.363  12.925  19.351 -0.1318  0.0813  0.0647
40673W        W83726   0.993   2.123  18.232  0.1996  0.0724 -0.0175
40674W        W83727  12.149   8.296  23.140 -0.0911 -0.3443 -0.2384
40675W        W83728  19.314   7.265  22.651 -0.2047 -0.2734 -0.1593
40676W        W83729   8.614   0.757   5.398 -0.0361 -0.0936 -0.0787
40677W        W83730  22.892  31.843   2.884  0.3082  0.3632 -0.0106
40678W        W83731  20.067  25.007  21.912 -0.2971 -0.1603  0.2224
40679W        W83732   7.275  13.455  22.305 -0.1064  0.2271 -0.0550
40680W        W83733   3.354   4.856   0.554 -0.1420 -0.1051 -0.1342
40681W        W83734  26.633   3.851   1.109 -0.2193 -0.1053  0.3240
40682W        W83735   0.413  28.114   5.687 -0.1511 -0.1172  0.3138
40683W        W83736  33.704  25.800   8.263  0.3189 -0.0747 -0.1893
40684W        W83737  13.479  34.008  25.121 -0.0556 -0.3263 -0.0039
40685W        W83738  23.935   5.331  23.672  0.0300 -0.1904  0.1120
40686W        W83739   0.394   3.946  20.592 -0.3228  0.2192  0.2461
40687W        W83740  12.322  17.755   3.679 -0.0754  0.1428 -0.1256
40688W        W83741  24.760  16.432  19.624 -0.3902  0.3319 -0.1522
40689W        W83742   3.102   7.707  15.716 -0.0007  0.0375 -0.3182
40690W        W83743   7.862  20.704   0.571  0.1511 -0.3817 -0.0125
40691W        W83744  17.482  17.698  26.957  0.1373  0.0174  0.1202
40692W        W83745  33.112  33.572  15.103  0.0492  0.0630  0.1462
40693W        W83746  14.930  34.060   1.917 -0.2684  0.1587 -0.1655
40694W        W83747  23.254  10.781   1.235 -0.0867  0.0086 -0.5010
40695W        W83748  20.503   8.986  25.139  0.3159  0.1215  0.3507
40696W        W83749   7.726  14.426   4.558 -0.1667 -0.1518  0.2312
40697W        W83750  32.264  12.716  18.686 -0.0960 -0.3324  0.1627
40698W        W83751  34.550   1.276  16.849 -0.1148 -0.2981  0.0594
40699W        W83752  33.785  29.503   8.473 -0.0994 -0.0515 -0.1482
40700W        W83753  34.066  19.378   9.782  0.0977  0.1427  0.1275
40701W        W83754  14.665   3.804   0.428  0.2691  0.2593 -0.1418
40702W        W83755  29.187   1.256   5.341  0.4808  0.1807  0.2050
40703W        W83756  13.082   0.232   8.430 -0.1917 -0.1471  0.0646
40704W        W83757   3.856  23.308  24.128 -0.1384  0.0794  0.1973
40705W        W83758   8.490  19.536  25.429 -0.4561  0.0816 -0.0713
40706W        W83759  10.073   9.939  20.368 -0.3917  0.2852 -0.1948
40707W        W83760  10.424  12.498   9.421 -0.0486 -0.1339  0.1132
40708W        W83761   4.339  16.452  24.666 -0.0867 -0.1077 -0.0995
40709W        W83762  26.173  10.263   5.248  0.0701 -0.1719 -0.2337
40710W        W83763   8.778  23.608  17.619  0.0139 -0.1169  0.4690
40711W        W83764  24.821   7.579  22.811 -0.0449 -0.0101 -0.0019
40712W        W83765  21.533  31.331   0.912 -0.0546  0.1144  0.3529
40713W        W83766  14.320  10.977  22.295  0.1100 -0.1444  0.1802
40714W        W83767  15.450  30.293  14.678 -0.2123  0.1267 -0.0441
40715W        W83768   4.992   0.242   1.242 -0.1167  0.1694 -0.0924
40716W        W83769   4.302  30.292  18.985 -0.0123 -0.1405 -0.0701
40717W        W83770   9.425   8.177  24.720  0.0362  0.3052 -0.1605
40718W        W83771  28.337  10.569   9.066  0.2560 -0.3706  0.1144
40719W        W83772  10.317   8.223  24.346 -0.0528  0.0468  0.0504
40720W        W83773  34.484   7.415  16.645 -0.1537 -0.1475 -0.1650
40721W        W83774  12.963   4.642   0.831 -0.1160 -0.0556 -0.1925
40722W        W83775   0.633   2.876  25.545  0.3243 -0.1096  0.0217
40723W        W83776  10.785   9.239  28.926 -0.2997  0.0895  0.0695
40724W        W83777   9.083   6.511  15.144  0.4868 -0.1835  0.0625
40725W        W83778  16.140  32.349  23.951 -0.0397 -0.1918  0.1254
40726W        W83779   4.095   1.902  27.245 -0.0229 -0.0369  0.1557
40727W        W83780  24.310  29.183   4.089 -0.0246  0.1833 -0.0249
40728W        W83781  20.173   0.659   0.928  0.1882  0.1981  0.2885
40729W        W83782  23.407  20.800   7.941 -0.0327 -0.0695 -0.3322
40730W        W83783  17.477  34.506  25.909 -0.2099  0.3048  0.0159
40731W        W83784  15.634   4.934  18.390 -0.1691  0.0635  0.2536
40732W        W83785   6.877  12.811  24.657  0.1335 -0.3103 -0.0779
40733W        W83786  25.771   9.418   3.201  0.1773  0.2305  0.0970
40734W        W83787   5.492  17.391  23.358  0.2661  0.0253 -0.0414
40735W        W83788   5.719  12.177  18.749  0.0726 -0.0479 -0.0787
40736W        W83789  23.745   1.441   8.201  0.0073  0.0991 -0.0254
40737W        W83790  13.746  13.492  10.447 -0.3725  0.2174 -0.1518
40738W        W83791   9.770  10.311  23.404  0.1921 -0.1702 -0.2193
40739W        W83792   9.925   4.264  27.901 -0.0488 -0.0260 -0.2151
40740W        W83793  15.373   0.499  15.651 -0.1763  0.1894  0.1345
40741W        W83794  16.932  17.380   5.551 -0.2475  0.0841 -0.0146
40742W        W83795  14.723   4.149  19.356  0.0922 -0.1323 -0.2856
40743W        W83796  24.704   8.947  22.919 -0.1701 -0.1003  0.0099
40744W        W83797  33.825   4.723  25.264 -0.0340  0.0302 -0.0423
40745W        W83798  14.242   2.102  27.456  0.1625  0.3594 -0.2095
40746W        W83799  11.275   4.487   6.103 -0.0290 -0.4153  0.1304
40747W        W83800  31.116  14.957   7.519  0.2472 -0.3431 -0.1057
40748W        W83801  31.502  14.712  28.704 -0.0133 -0.1869  0.0431
40749W        W83802   5.259  29.805  17.302  0.2968  0.0919 -0.1695
40750W        W83803   4.606   0.551   7.922  0.0962  0.0070  0.0770
40751W        W83804  32.014  33.059  21.999  0.0175  0.0912  0.1289
40752W        W83805   5.128   9.031   5.954  0.1583  0.0449 -0.0166
40753W        W83806  25.262  28.957  26.004 -0.0346 -0.1447 -0.2520
40754W        W83807   2.756  25.980   7.440  0.0932  0.0650  0.0450
40755W        W83808  33.783   7.864  26.423  0.3311 -0.0177  0.1674
40756W        W83809  21.913   3.941   3.948 -0.1225 -0.0844  0.0422
40757W        W83810   1.093   3.125   2.170  0.0484  0.2401  0.1465
40758W        W83811  13.453   2.956  26.525  0.1360 -0.0740 -0.2639
40759W        W83812  14.306  23.596   7.739  0.0062  0.4735 -0.0357
40760W        W83813  14.287  17.456   9.394  0.0961  0.1303 -0.3141
40761W        W83814   2.101   2.848  16.172 -0.0399  0.0600 -0.1772
40762W        W83815   7.355   9.988   8.740  0.2318 -0.0779 -0.3761
40763W        W83816  24.009  34.135  24.718  0.0254  0.1185  0.1195
40764W        W83817  15.039  22.192  16.903  0.0635 -0.4058 -0.1658
40765W        W83818  16.829   5.120   3.342  0.2155 -0.0256 -0.0728
40766W        W83819  21.267  32.204   0.198  0.0867  0.1746  0.0425
40767W        W83820   3.832  11.356  14.956  0.0123 -0.3273 -0.1810
40768W        W83821  16.486  28.258  27.093  0.1443 -0.2553  0.1003
40769W        W83822   3.355  29.601   1.605  0.0141  0.2448 -0.0687
40770W        W83823  18.477   1.072   5.872  0.0397 -0.2478  0.1912
40771W        W83824  19.266  16.138  27.986  0.2383 -0.0557  0.3374
40772W        W83825  10.063  19.922   1.739  0.3334 -0.2490 -0.1672
40773W        W83826   1.879   1.413   9.132 -0.0655 -0.3488 -0.0528
40774W        W83827  17.084  32.095  23.962  0.3874 -0.0924  0.0641
40775W        W83828  29.782  31.973   5.534  0.0833  0.0391  0.1426
40776W        W83829  11.272   9.381  28.837  0.0398  0.1739  0.0906
40777W        W83830  19.384  10.964   2.394 -0.0112  0.0025  0.4343
40778W        W83831  18.027  10.582  27.128 -0.0108 -0.2618 -0.3404
40779W        W83832   5.827  28.236  28.626 -0.0683 -0.0710 -0.2206
40780W        W83833  11.686  11.688   4.784 -0.1690  0.0202  0.2462
40781W        W83834  18.483   0.493   0.233 -0.1040 -0.1534  0.0366
40782W        W83835   7.670  11.656  27.338  0.1136 -0.0245  0.2068
40783W        W83836  24.676   4.835  19.852  0.3507 -0.0536  0.0303
40784W        W83837  13.512  13.575  26.745 -0.0926  0.0811 -0.2508
40785W        W83838  17.326  32.312  28.870 -0.0569  0.0574 -0.1146
40786W        W83839  17.958  21.748  14.297  0.1183 -0.2108 -0.2704
40787W        W83840   3.837  12.888  14.930  0.0837  0.0090 -0.2377
40788W        W83841   9.668   8.139  23.699 -0.2575 -0.1921  0.1124
40789W        W83842  13.459  23.233  26.016  0.1180 -0.1273 -0.1026
40790W        W83843  29.446  32.839  24.903 -0.1251 -0.1278  0.1511
40791W        W83844  16.556   6.556  24.613 -0.1630  0.0135 -0.0527
40792W        W83845  28.281  31.121  26.637 -0.0494 -0.0401  0.0240
40793W        W83846   5.118  16.066  23.688  0.2649  0.3005 -0.2295
40794W        W83847  15.908   9.401  22.467 -0.0748 -0.1831  0.0744
40795W        W83848  23.430  31.253  21.507  0.1141 -0.0018 -0.1458
40796W        W83849  11.903   4.669  15.064  0.3448  0.2153 -0.2522
40797W        W83850   0.423  11.001  20.541 -0.0570  0.2031 -0.1769
40798W        W83851  25.836  14.319  15.596  0.0057  0.2482 -0.1940
40799W        W83852  11.322   9.517  22.983 -0.1125  0.2883  0.0933
40800W        W83853  32.286  28.376  18.499  0.2272 -0.2030  0.1033
40801W        W83854   6.993  27.679  13.759 -0.1465  0.2982 -0.0415
40802W        W83855   7.024   7.784  19.824 -0.1502 -0.0594 -0.0998
40803W        W83856  29.613  19.169  15.275  0.0242 -0.2965  0.0579
40804W        W83857   0.025  20.038  18.708  0.0583  0.0804 -0.0500
40805W        W83858   8.504  27.294  17.411  0.2777  0.3898 -0.0206
40806W        W83859  17.279  33.175  29.075  0.0705  0.0658 -0.2110
40807W        W83860   4.234  32.206  24.659 -0.1093  0.0786  0.0340
40808W        W83861  14.502   2.879  15.011  0.1173 -0.3333  0.3591
40809W        W83862  16.477  22.899  26.608  0.2429 -0.2100  0.1704
40810W        W83863  24.021   5.842  22.986  0.1055 -0.1636  0.0322
40811W        W83864   3.761   6.807  18.670  0.1387 -0.0845  0.0844
40812W        W83865  30.159  16.082   1.004 -0.3102 -0.4484  0.0207
40813W        W83866  11.146   4.282  20.898 -0.0870 -0.0768  0.0463
40814W        W83867  16.207  19.391  15.236 -0.0921 -0.0469 -0.2435
40815W        W83868  31.929  17.079   4.091 -0.1338 -0.2478 -0.0857
40816W        W83869  26.594  14.615  14.268 -0.1541  0.1682 -0.2409
40817W        W83870   2.369   5.242  23.210 -0.0271  0.0551 -0.0532
40818W        W83871   7.977  23.085  19.258 -0.0224  0.1134 -0.0664
40819W        W83872   2.409  10.705  24.270  0.1665 -0.1152  0.1335
40820W        W83873  23.979  10.524  17.602 -0.0743 -0.4220 -0.2616
40821W        W83874   1.362   7.025  19.696  0.1334 -0.0215  0.1562
40822W        W83875   2.797  10.268  19.449  0.1289  0.1163 -0.2252
40823W        W83876  25.775   0.473  19.838 -0.2750  0.0844 -0.0222
40824W        W83877   0.136  11.762  14.924  0.3168  0.0061  0.1911
40825W        W83878   0.515  32.352  25.524  0.1040 -0.0110  0.0171
40826W        W83879  27.950   3.019   4.890  0.1540 -0.0486  0.0313
40827W        W83880  31.332  15.187  15.643  0.2408 -0.1191  0.2740
40828W        W83881  24.094  13.434  18.218  0.0186  0.1345  0.1184
40829W        W83882  14.136  10.515  17.735  0.1684  0.1056  0.4361
40830W        W83883  25.030  24.302  24.048 -0.1162 -0.3382  0.2829
40831W        W83884   5.335   4.168  21.754  0.0567 -0.2187  0.4234
40832W        W83885  32.680  14.536  17.485  0.1699 -0.1753 -0.1045
40833W        W83886  13.610  30.484  27.740 -0.1744  0.0293  0.2363
40834W        W83887  30.453  32.295  20.423 -0.0127 -0.2206  0.0166
40835W        W83888  10.448  20.357  20.670 -0.1403  0.3912 -0.4459
40836W        W83889   4.884   0.538  17.381 -0.0571  0.2974  0.0176
40837W        W83890  22.790   1.289  24.117 -0.0736  0.0633 -0.1730
40838W        W83891  19.877   4.998  18.894  0.2437 -0.0508 -0.0751
40839W        W83892   0.826  13.429  27.252  0.1988  0.0118  0.1100
40840W        W83893  26.954  26.928  26.650  0.1356  0.1772  0.2436
40841W        W83894  17.568  31.107   3.435  0.2020 -0.3325  0.0133
40842W        W83895  12.829  10.108  22.994 -0.0388 -0.2324  0.2044
40843W        W83896  23.018  33.787  19.666 -0.1991  0.0430  0.0266
40844W        W83897  14.073  13.413  17.695  0.5167 -0.0405  0.0149
40845W        W83898  21.687  16.468   2.468  0.0350  0.0388  0.0736
40846W        W83899  15.938  15.452  14.533 -0.0556 -0.2544  0.1990
40847W        W83900   2.864  15.768  15.280 -0.0441 -0.0880 -0.0154
40848W        W83901  16.532  31.583  20.311  0.1487 -0.2475  0.1919
40849W        W83902   7.122   7.699  26.763 -0.1169  0.2298  0.1681
40850W        W83903   7.815  24.669  17.376 -0.0960  0.3817 -0.0346
40851W        W83904  17.551  25.777  18.864 -0.1684 -0.0798 -0.0792
40852W        W83905  13.579   2.122   8.554  0.2895  0.0088  0.1234
40853W        W83906  12.907   6.592  26.790 -0.0169 -0.0321  0.1371
40854W        W83907  16.608  24.321   6.018 -0.0860  0.3938  0.0293
40855W        W83908  23.468   6.106  28.137  0.2122  0.2046 -0.1661
40856W        W83909   8.388  16.275  26.247 -0.0885 -0.1385 -0.1023
40857W        W83910  13.031   4.945  28.629  0.1988  0.0586 -0.1687
40858W        W83911   7.928  10.113   6.457 -0.1754 -0.6346 -0.0528
40859W        W83912  13.505   9.868  17.229 -0.2202  0.1274  0.3038
40860W        W83913  23.492   5.777  25.675 -0.2208 -0.1196  0.1524
40861W        W83914  15.383  14.110  25.052  0.1909 -0.3741 -0.3057
40862W        W83915  23.722  13.822   2.489  0.1160  0.2054  0.3055
40863W        W83916   1.174  15.158  22.058  0.3257 -0.0801 -0.1637
40864W        W83917   4.110   1.720  26.733 -0.2673  0.2467 -0.2459
40865W        W83918   6.876  17.699  20.833  0.0786  0.1671 -0.0305
40866W        W83919   4.275  14.938  16.705 -0.2424  0.0218  0.0527
40867W        W83920  29.372  10.514  25.459 -0.0075  0.1303  0.1716
40868W        W83921  18.267  27.121  23.236 -0.3301 -0.0992  0.0685
40869W        W83922  11.624   3.640  28.845 -0.1878  0.1244  0.0510
40870W        W83923  18.579  10.574  13.787 -0.1155 -0.1012 -0.0003
40871W        W83924   5.465   7.699  17.062 -0.0166 -0.0065  0.2119
40872W        W83925   4.538  10.545   1.143  0.1544  0.1397  0.0554
40873W        W83926  31.022  31.554  17.551 -0.0171 -0.1280 -0.0289
40874W        W83927  19.176   5.256  25.723 -0.1341  0.0233  0.2972
40875W        W83928  29.127   4.569  26.967 -0.0292  0.0949  0.3101
40876W        W83929  24.932  11.833  19.913 -0.0301 -0.0389  0.0372
40877W        W83930  23.040   5.402   2.950 -0.2567  0.1730 -0.3505
40878W        W83931  20.536  12.107  21.130 -0.0310 -0.0813  0.0440
40879W        W83932  11.800  13.945  20.916 -0.0811  0.2707 -0.2301
40880W        W83933   8.305  20.895  17.572 -0.1251  0.1833  0.1059
40881W        W83934  26.637  23.137  16.748 -0.1205  0.0781 -0.0751
40882W        W83935  32.001  24.266  15.759 -0.3609  0.1016  0.1530
40883W        W83936   4.025   2.354  22.805  0.0484  0.4715  0.3230
40884W        W83937  32.532  30.447   3.852  0.1189 -0.0650  0.1894
40885W        W83938  14.845  24.894  16.739  0.0500  0.0903 -0.2725
40886W        W83939   2.251  11.355  23.156 -0.2107 -0.0130  0.2266
40887W        W83940  33.703  26.294  19.946  0.6746  0.0026 -0.1592
40888W        W83941  29.742  21.036  15.813 -0.1946  0.0471  0.0095
40889W        W83942  16.804   7.530  23.929 -0.0899  0.1991  0.1035
40890W        W83943  11.442   6.465  23.234 -0.0718 -0.0543 -0.0684
40891W        W83944  16.296  18.081  14.925  0.0138  0.2600 -0.0792
40892W        W83945  33.341  11.750  19.148  0.0500  0.2500  0.5595
40893W        W83946   3.322   3.052  17.078  0.2168 -0.2800  0.0319
40894W        W83947   8.837  17.445  15.240 -0.3050  0.2085 -0.2197
40895W        W83948   4.703  13.928  18.465  0.0209 -0.0241  0.2311
40896W        W83949   9.601   4.341   1.250 -0.1918  0.0367  0.1730
40897W        W83950   8.168  12.247  21.462 -0.3476  0.0925 -0.3006
40898W        W83951   3.156   8.306  26.602  0.1120  0.2543  0.3669
40899W        W83952   1.409  19.517   0.320  0.2374  0.0997 -0.1862
40900W        W83953  18.137  24.189  20.788 -0.1586  0.0075 -0.0439
40901W        W83954  10.832   9.039  23.990  0.0913 -0.0479  0.0190
40902W        W83955   7.414  11.574  18.578  0.1580  0.2031 -0.1325
40903W        W83956   5.144  15.175  20.842  0.2466  0.2742  0.1592
40904W        W83957  10.535  20.741  15.099 -0.2198 -0.0228  0.1104
40905W        W83958  14.941  17.789  16.462 -0.2354 -0.0322 -0.0684
40906W        W83959   8.036   7.720  18.718 -0.0528 -0.1274 -0.2163
40907W        W83960   0.739  23.697   1.840 -0.2820  0.1175  0.0015
40908W        W83961  12.224  21.629  28.019  0.2227 -0.2370  0.1132
40909W        W83962  30.301   7.660  24.223 -0.0150 -0.1685  0.1664
40910W        W83963   1.205  15.233  15.594 -0.0866  0.0263 -0.1152
40911W        W83964   7.591   8.303  26.096 -0.4773 -0.1556  0.2488
40912W        W83965  27.436  32.738  26.689  0.0617 -0.3069  0.3880
40913W        W83966   4.407  12.579   0.719  0.1586 -0.0949  0.0591
40914W        W83967  11.376  33.686  27.630 -0.0564  0.0216  0.1112
40915W        W83968   4.110   7.826  14.880 -0.0308 -0.2017  0.1371
40916W        W83969  21.288  14.494  24.940  0.0855  0.3846  0.0886
40917W        W83970   3.677  25.839  28.368 -0.4482 -0.0059  0.0732
40918W        W83971  21.580  10.551  24.303  0.0200 -0.1261  0.0935
40919W        W83972  15.823  21.956  14.503 -0.0542  0.1259  0.0844
40920W        W83973   4.210  13.227  18.544 -0.0904 -0.0603 -0.1565
40921W        W83974  10.481  18.082  22.303  0.0900 -0.2260  0.2118
40922W        W83975  26.675  20.060  20.606  0.3015  0.1053  0.2132
40923W        W83976  17.421  13.859  16.238 -0.1966 -0.0362  0.0505
40924W        W83977   9.685  14.259  21.322  0.0601 -0.0474  0.0442
40925W        W83978   8.359  10.108  20.197  0.0876  0.2206  0.1622
40926W        W83979  15.220  17.102  15.823 -0.1285  0.1510  0.3211
40927W        W83980   7.330  33.453  26.531 -0.1675 -0.3222  0.1074
40928W        W83981   6.540  33.759  24.501  0.0847 -0.0093  0.1250
40929W        W83982   3.163  30.827  16.000 -0.5546 -0.0576 -0.1237
40930W        W83983  30.930  21.911  23.291  0.1505  0.1034 -0.1774
40931W        W83984   8.019  33.009   3.971  0.0424  0.2664  0.1744
40932W        W83985  19.158   2.114  16.685  0.1739 -0.0475  0.2080
40933W        W83986  29.045  34.246  20.111  0.1891  0.0537  0.0343
40934W        W83987   2.781   4.717  16.311 -0.0009 -0.0423  0.1734
40935W        W83988   2.950   8.827   1.578  0.1053  0.2255 -0.2683
40936W        W83989   7.629   6.173  25.489  0.0750 -0.3474  0.1095
40937W        W83990   0.940  22.984  19.914 -0.0135  0.0346 -0.2621
40938W        W83991  33.365  22.757  18.973  0.0105 -0.1022  0.2493
40939W        W83992  22.201  14.893  15.743 -0.0644  0.1877 -0.0409
40940W        W83993   1.734   4.402  25.349  0.3301 -0.0530  0.2734
40941W        W83994  17.736  10.946  22.844 -0.3016  0.1976 -0.0208
40942W        W83995   1.610   9.434  19.152 -0.1304  0.0099 -0.0592
40943W        W83996  17.388   6.394  27.949 -0.1216 -0.0065 -0.0564
40944W        W83997  18.361  34.452  16.697  0.0269 -0.2017 -0.1175
40945W        W83998   6.195  15.569  26.908  0.0541 -0.5829 -0.2966
40946W        W83999   2.332  20.695  14.253  0.0796 -0.2329  0.2889
40947W        W84000   5.035  16.671  22.128  0.1857  0.1192  0.3822
40948W        W84001  10.142   8.576  23.538 -0.3064  0.1419  0.3010
40949W        W84002   5.811  19.575  21.952 -0.1087  0.0782 -0.2229
40950W        W84003  24.328  12.689  28.909  0.5582 -0.2119  0.2478
40951W        W84004  31.088  11.141   0.294  0.2201  0.2154 -0.2610
40952W        W84005   9.846   4.803  17.450 -0.0621 -0.1446 -0.2121
40953W        W84006  23.521  22.354  14.695  0.0202  0.1653  0.0319
40954W        W84007  19.541   6.648   0.803  0.0449 -0.0459 -0.0060
40955W        W84008  21.482  13.896  28.168  0.1936  0.2402  0.0947
40956W        W84009   4.622  25.061  28.428 -0.1274  0.3540 -0.0265
40957W        W84010   1.339  21.384  13.705  0.1450  0.0323  0.3053
40958W        W84011  32.668  14.406   0.401  0.1390 -0.1298  0.1208
40959W        W84012  32.360  10.763  23.715  0.1463  0.1524  0.5502
40960W        W84013   4.491  11.105  27.393 -0.0515 -0.0975 -0.1513
40961W        W84014   6.337  17.966  14.023 -0.1085  0.1493  0.2269
40962W        W84015   9.515   9.520  25.093  0.0101 -0.2244  0.2522
40963W        W84016   8.771  10.643  24.163 -0.0948 -0.0846 -0.0892
40964W        W84017  20.482  15.825  14.259  0.1442  0.1236  0.0109
40965W        W84018  26.517  13.819  25.399 -0.0925 -0.5573 -0.2243
40966W        W84019  19.552  34.469  22.976  0.1138  0.0587  0.3561
40967W        W84020   0.851  20.550  22.296  0.1344 -0.2648  0.0030
40968W        W84021   0.838  15.564  23.851  0.0860 -0.0965  0.2001
40969W        W84022  27.598  31.304  24.726  0.0311 -0.0179  0.0479
40970W        W84023   2.127   6.257  15.725  0.1146 -0.1106  0.1330
40971W        W84024   2.197  32.512  19.303  0.0754  0.1900 -0.1662
40972W        W84025  18.956  11.867  20.514 -0.3180  0.1174  0.2017
40973W        W84026  10.338  12.446  22.152  0.0864  0.1307 -0.0566
40974W        W84027   8.393  17.622  16.083 -0.2727  0.0760 -0.1132
40975W        W84028   5.573   1.664  21.263 -0.1538  0.1808 -0.0011
40976W        W84029  11.427  12.504  27.896  0.1259  0.2113  0.0944
40977W        W84030  17.792   2.762  18.284 -0.2624  0.1740 -0.1214
40978W        W84031   5.825  30.952  25.368  0.2720  0.2190 -0.0133
40979W        W84032  10.225   4.760  23.218  0.2144  0.0337 -0.1617
40980W        W84033  24.775  18.439  14.389  0.1168 -0.0309  0.1645
40981W        W84034   9.055  26.727   0.116  0.0140  0.2335  0.1093
40982W        W84035   9.489  29.209  20.445 -0.1845 -0.1029  0.0881
40983W        W84036   2.717  20.815  17.471  0.4865  0.2689 -0.2309
40984W        W84037   4.986  11.903  24.482  0.1020 -0.1435 -0.2550
40985W        W84038   2.554  15.461  19.265  0.3582 -0.1588  0.0684
40986W        W84039   5.352  28.160  14.778  0.1559 -0.0251  0.0527
40987W        W84040   9.774   1.403  19.915 -0.0476 -0.0453  0.0048
40988W        W84041  17.997  14.735  14.437 -0.1686 -0.0258  0.0244
40989W        W84042  10.565  19.264  21.253  0.0816 -0.3829  0.2199
40990W        W84043   8.629  14.068  18.186  0.1632 -0.0069  0.0253
40991W        W84044  16.679   7.813  14.663 -0.1852  0.1051 -0.0853
40992W        W84045  14.109  34.005  22.629 -0.0205 -0.0793  0.0129
40993W        W84046  10.737   6.863  23.385  0.0592 -0.0905 -0.1782
40994W        W84047   9.432  16.423  17.141 -0.1547 -0.3196 -0.0482
40995W        W84048   6.213  16.187  14.273  0.4036 -0.0908 -0.2606
40996W        W84049  32.843   9.269  16.606 -0.2661 -0.2399  0.1266
40997W        W84050  32.833  25.020  24.843  0.0809  0.2195  0.0442
40998W        W84051  13.373  34.075  26.766  0.1262 -0.3606  0.1494
40999W        W84052   7.177  17.853  24.639  0.0225 -0.0465  0.2366
41000W        W84053  20.924  11.418  17.987 -0.0036  0.3085  0.0489
41001W        W84054  11.149   8.296  19.386 -0.3858 -0.0714 -0.0390
41002W        W84055  18.389  25.544  21.352  0.2778  0.0157 -0.1064
41003W        W84056   9.921  12.316  18.336 -0.0313 -0.0768  0.0831
41004W        W84057  11.796  13.642  18.065 -0.0276 -0.0478  0.0605
41005W        W84058   9.092  19.376   2.293 -0.4215 -0.0937 -0.1980
41006W        W84059  17.243  26.876  23.415  0.1838  0.2089 -0.0772
41007W        W84060  17.988  11.370  16.108  0.3309  0.2834  0.1234
41008W        W84061  12.273  19.986  24.401 -0.1038 -0.1266  0.0960
41009W        W84062  17.704  34.641  26.897  0.0053 -0.0049  0.0307
41010W        W84063   3.927   0.417  18.126 -0.0368 -0.2687 -0.1260
41011W        W84064  29.640   3.620  23.556 -0.0640 -0.1796 -0.0679
41012W        W84065  19.610  18.009  24.651  0.1382 -0.2578 -0.1830
41013W        W84066  15.855   8.909  17.369  0.0512 -0.2042  0.2551
41014W        W84067   0.930   3.316  15.057 -0.0091 -0.1070  0.3046
41015W        W84068  25.644   5.881  26.125 -0.2232 -0.1255 -0.2257
41016W        W84069   0.026   1.650  16.045  0.1200  0.1255 -0.4188
41017W        W84070  21.143  31.750  15.253 -0.2035  0.1787 -0.0763
41018W        W84071   5.422  18.974  21.158  0.3989  0.1072  0.0062
41019W        W84072   6.408  31.164  14.791 -0.1729  0.1108 -0.1833
41020W        W84073   9.903  26.091   0.121 -0.0575 -0.0662 -0.0393
41021W        W84074   8.690   0.030  18.719 -0.2276  0.0076 -0.0583
41022W        W84075  16.940  34.315  23.491 -0.0112 -0.0230 -0.0928
41023W        W84076  10.709   3.176  22.748  0.1779  0.1567  0.2467
41024W        W84077   2.567   8.823  17.747 -0.0497  0.0806  0.0615
41025W        W84078   3.799  21.971  14.968  0.2497 -0.1286 -0.0783
41026W        W84079  23.706  15.424  23.161  0.1015 -0.3614 -0.0746
41027W        W84080   3.654  17.200  21.057  0.2787 -0.1343  0.0269
41028W        W84081  29.441  20.864  14.103  0.0561  0.1701 -0.1295
41029W        W84082   5.536   6.523  23.566 -0.3335 -0.0667 -0.1883
41030W        W84083  12.758  12.148   4.116  0.0048  0.0855  0.2000
41031W        W84084  27.294   7.271  28.714  0.0965  0.2312  0.2890
41032W        W84085   4.557  22.414  14.813  0.2141 -0.0143  0.0915
41033W        W84086  21.942  12.734  23.230  0.0983  0.0816  0.3271
41034W        W84087  28.945  10.565  25.805 -0.4606 -0.4696 -0.1159
41035W        W84088   8.513  18.171  18.214 -0.2945 -0.0433  0.0596
41036W        W84089  11.782   9.539  21.703 -0.3175  0.1277 -0.0326
41037W        W84090   7.302   7.857  24.574  0.0693 -0.0713 -0.0445
41038W        W84091   4.246  13.487  16.752  0.3021 -0.0861  0.3033
41039W        W84092   8.196  18.349  15.391 -0.0318 -0.0085  0.1544
41040W        W84093  19.521   8.646  28.545 -0.1642  0.0948 -0.0413
41041W        W84094   4.066  20.005  15.150  0.0415 -0.0213 -0.1636
41042W        W84095  15.810  29.857  14.488  0.1307 -0.3406  0.0291
41043W        W84096  31.382  15.652  14.888 -0.0448 -0.1547  0.1159
41044W        W84097   6.109  18.158  15.484 -0.0885  0.4123 -0.2585
41045W        W84098  30.442  29.313  14.459 -0.1073 -0.0796 -0.2626
41046W        W84099  11.355  17.527  18.698  0.1349  0.3427 -0.0260
41047W        W84100  13.572  17.570  15.569 -0.1673 -0.0958 -0.0114
41048W        W84101  21.350   0.499  22.849 -0.1081  0.2039  0.1565
41049W        W84102  13.957  22.915  24.328 -0.2041  0.1131 -0.1172
41050W        W84103   3.158   0.061  19.209  0.2896  0.0711 -0.1935
41051W        W84104  29.927  24.146  29.031  0.1342  0.1614  0.2305
41052W        W84105  19.412  33.650   9.875 -0.0430  0.2063  0.1071
41053W        W84106  33.025   0.095  24.580  0.1421  0.1383  0.0107
41054W        W84107  30.786  11.829  20.552  0.3479 -0.0899 -0.2412
41055W        W84108  14.929   3.849  23.524 -0.1327  0.0253 -0.1033
41056W        W84109  19.777  11.458  23.472 -0.3945  0.2234  0.0158
41057W        W84110  14.180  17.201  26.270  0.0746 -0.3405  0.0812
41058W        W84111  27.350   6.909  19.760  0.1185 -0.4327 -0.1649
41059W        W84112  20.453  30.162  19.838  0.0387  0.2123 -0.0639
41060W        W84113   9.350  18.694   4.770  0.1069  0.0516  0.0573
41061W        W84114  33.351   7.222  14.619  0.0824  0.2549  0.0323
41062W        W84115  16.160  27.051  25.798  0.1047 -0.1838  0.1859
41063W        W84116  15.159  11.225  23.749  0.5865 -0.2269  0.1004
41064W        W84117   6.592  29.492   6.599 -0.2076  0.1483  0.0059
41065W        W84118  21.217   7.452  17.333 -0.1180  0.3858 -0.4854
41066W        W84119   3.494  16.423   6.987  0.4279 -0.3468  0.1791
41067W        W84120   8.239  10.286  29.034  0.1875  0.3552  0.0487
41068W        W84121  20.310  19.535  14.086  0.0217 -0.5084  0.1399
41069W        W84122   0.402  28.787  18.102 -0.2394  0.1557  0.1206
41070W        W84123  32.941  10.832   1.532  0.0416 -0.0154  0.5383
41071W        W84124  16.159   6.200  16.578  0.0611  0.1701 -0.3581
41072W        W84125  10.191  12.366  21.672 -0.0373 -0.0414  0.0273
41073W        W84126  10.943   0.928   7.207  0.0668  0.0664 -0.1582
41074W        W84127   4.604  15.285   1.839 -0.0676  0.0549  0.1029
41075W        W84128   5.269  14.120  17.938 -0.0521 -0.0432  0.2185
41076W        W84129  13.735  19.523  16.479 -0.1934 -0.0137 -0.0530
41077W        W84130  11.615  15.760  14.385 -0.3777  0.1205 -0.2057
41078W        W84131  12.066  18.352  26.235  0.2459  0.2616  0.1382
41079W        W84132  11.517   5.091  15.304 -0.1300 -0.2086  0.2446
41080W        W84133   6.859  29.119  18.680 -0.0632 -0.3015  0.0315
41081W        W84134   9.365  13.734  22.937  0.1755 -0.0054 -0.3282
41082W        W84135  28.208   5.735  13.982  0.1231  0.2092  0.0058
41083W        W84136   9.016   2.447  24.597 -0.1755 -0.0914 -0.2029
41084W        W84137  19.379  20.289  26.416 -0.0027  0.4094  0.2275
41085W        W84138   1.190  28.808  16.599 -0.0847  0.0105 -0.2721
41086W        W84139   2.910  16.019  15.722  0.0442 -0.1581  0.0635
41087W        W84140  33.367  21.603  16.638 -0.0973  0.3871 -0.2243
41088W        W84141  33.681  17.210  20.279 -0.1155  0.4454 -0.2108
41089W        W84142   9.102  14.780  28.639 -0.1324 -0.0340 -0.1055
41090W        W84143  34.517  17.353  24.395  0.0350  0.2341 -0.0767
41091W        W84144  34.300   4.406  15.809  0.0625  0.0249  0.0054
41092W        W84145  14.075  23.381  26.469 -0.2174  0.2745 -0.2927
41093W        W84146  15.012  31.810  19.660 -0.3216  0.0833 -0.0921
41094W        W84147   8.659  12.041  25.301  0.1316 -0.0559 -0.1994
41095W        W84148  18.104  25.719  17.140 -0.0749  0.4473  0.2466
41096W        W84149  14.158  32.283  16.305  0.1030 -0.1396 -0.3075
41097W        W84150  31.335  17.873  18.592  0.0989  0.0303  0.1826
41098W        W84151  21.884  31.661  15.703  0.0477  0.2908 -0.3893
41099W        W84152  27.507  11.542  19.055 -0.1706 -0.1210  0.0225
41100W        W84153   9.544   4.964   4.026  0.1291 -0.1537  0.2141
41101W        W84154   3.617  13.492  13.984  0.0000 -0.1711  0.1385
41102W        W84155   4.955   7.806  16.316 -0.1513  0.0720  0.4015
41103W        W84156  19.065  10.771  24.883  0.0971  0.1913  0.1071
41104W        W84157   0.655   7.915  19.757  0.0702 -0.1597 -0.1638
41105W        W84158  31.843  18.351  20.349 -0.2404 -0.0871  0.1252
41106W        W84159   7.873   4.993  18.498  0.1750  0.0541  0.2823
41107W        W84160   9.660  11.090  22.091 -0.1565 -0.2315 -0.1474
41108W        W84161   7.980  25.558  28.460  0.1674  0.2204 -0.2101
41109W        W84162  17.911   3.158  23.762  0.0382 -0.1630  0.0950
41110W        W84163  12.823  13.120  18.042 -0.0130 -0.1568  0.0299
41111W        W84164  28.888  17.940  19.970 -0.1271 -0.1166 -0.2007
41112W        W84165   9.348   8.883  23.961 -0.1957 -0.1378 -0.2098
41113W        W84166   1.435  10.100  19.616  0.2347 -0.3123  0.3032
41114W        W84167  30.787  23.951  15.972 -0.2517  0.1203  0.3070
41115W        W84168  15.709  32.976  24.836 -0.0196  0.1361 -0.3129
41116W        W84169  13.556   8.810  28.373  0.1800  0.0209 -0.0815
41117W        W84170  15.535  29.026  15.210 -0.0491  0.1529 -0.0684
41118W        W84171   8.048   6.439  25.346 -0.0348  0.0059  0.1602
41119W        W84172   0.886   8.187   4.585  0.0314 -0.1590 -0.3163
41120W        W84173  13.990  12.180  28.108 -0.2390 -0.3588 -0.1236
41121W        W84174   8.298   9.806  24.233  0.1665 -0.3144  0.1597
41122W        W84175   4.767   1.918  20.829  0.1042  0.0162 -0.2365
41123W        W84176  31.146  22.132  21.862 -0.1933 -0.1755 -0.0993
41124W        W84177  34.668  29.585  14.095 -0.1765  0.4865  0.3167
41125W        W84178   2.019  23.109  15.450 -0.0399 -0.3504  0.1048
41126W        W84179   1.379  20.431  13.777  0.1929  0.3517 -0.2479
41127W        W84180  22.474   9.395  14.507 -0.0209 -0.0039 -0.1873
41128W        W84181   7.387  10.060  19.996 -0.0792  0.0501  0.3959
41129W        W84182   8.850  14.829  19.344  0.0888 -0.1259  0.0427
41130W        W84183  29.847  33.272  20.761 -0.2059  0.1276 -0.1286
41131W        W84184  27.624  18.506  21.428  0.3146  0.0888 -0.1117
41132W        W84185   8.193   5.356  15.942  0.2208  0.0096  0.3467
41133W        W84186  12.652   1.026  19.568 -0.0415  0.0786  0.1234
41134W        W84187  19.134  12.683  23.176 -0.1451  0.1498  0.0391
41135W        W84188   7.596   3.935  18.957 -0.0305 -0.1928 -0.0573
41136W        W84189   4.473  12.940  15.940 -0.2809 -0.1407  0.0524
41137W        W84190  10.728  32.998  28.127 -0.0696 -0.1410 -0.0638
41138W        W84191  17.295   6.946  24.592 -0.2970  0.2053  0.1495
41139W        W84192   0.611   6.375   0.904 -0.0157 -0.2456  0.1115
41140W        W84193  12.056  23.773  23.403  0.1378 -0.1468 -0.0134
41141W        W84194  10.625  21.519  14.453  0.3285 -0.1103  0.0824
41142W        W84195   1.923   1.224  15.047 -0.2626 -0.3342 -0.3638
41143W        W84196  16.267   5.441  18.932  0.1155 -0.1333 -0.0002
41144W        W84197   0.702   1.486  17.478  0.0287 -0.1131  0.0129
41145W        W84198  32.910  25.705  17.371  0.1609 -0.1434  0.0091
41146W        W84199  20.013   6.291  22.007  0.1672  0.0126  0.0173
41147W        W84200   0.879  16.866  18.646 -0.0726  0.0625  0.0116
41148W        W84201  21.592  15.139  24.737  0.1975  0.0586  0.1203
41149W        W84202  10.509  28.609  24.926 -0.2580  0.0889  0.0921
41150W        W84203  15.329  26.572  17.404  0.0345 -0.1790 -0.3412
41151W        W84204  19.364   7.965   9.590 -0.1065  0.1740  0.0975
41152W        W84205  14.674  13.875  28.529 -0.0684  0.1703 -0.1821
41153W        W84206   9.321  11.002  18.884 -0.2425  0.0475  0.3460
41154W        W84207  17.076  32.876  14.483  0.1689 -0.0811 -0.1381
41155W        W84208  13.595   6.957  17.687  0.3004  0.1090  0.1076
41156W        W84209   1.618   3.995  26.542  0.0050 -0.0236 -0.3885
41157W        W84210  13.433   1.358  19.776 -0.2801 -0.0385 -0.1992
41158W        W84211   9.379  16.869  26.296 -0.5076  0.0270  0.0985
41159W        W84212   5.405   7.092   3.906 -0.0687 -0.3077 -0.0580
41160W        W84213   4.157  24.093  18.480  0.0158  0.0948  0.1551
41161W        W84214  21.145   8.827  17.678  0.1659 -0.0417  0.1466
41162W        W84215   9.151   7.850  24.514  0.1219  0.1604 -0.2494
41163W        W84216   5.966   6.954  24.641 -0.1100  0.0816 -0.2421
41164W        W84217  24.808  19.937  28.200  0.3848  0.0920  0.2342
41165W        W84218   3.874  16.960   4.538 -0.0561 -0.2117  0.1755
41166W        W84219   0.705   9.325  15.600 -0.0774 -0.1301  0.3877
41167W        W84220  18.021  33.979  14.166 -0.1160  0.1381 -0.0647
41168W        W84221   6.409  15.016  16.923  0.3689  0.1079 -0.1627
41169W        W84222  12.436   1.792  25.048  0.2948  0.2121  0.4407
41170W        W84223  26.503   5.840  28.184 -0.3467  0.0898 -0.1100
41171W        W84224  29.593   9.548  17.625 -0.1262  0.0243 -0.1307
41172W        W84225   7.757  19.418  20.929 -0.0285 -0.2027 -0.1620
41173W        W84226  14.726  13.883  23.563 -0.0332  0.0823 -0.1159
41174W        W84227  34.563   6.072  19.067  0.2279 -0.0485  0.1620
41175W        W84228  25.773  18.382  26.044 -0.1301 -0.2077 -0.2863
41176W        W84229  21.042  16.771  15.744  0.3327 -0.0344 -0.0787
41177W        W84230   8.938  23.229  19.161  0.2488 -0.1247 -0.0957
41178W        W84231   7.338  19.644  29.039 -0.2053 -0.1039 -0.1006
41179W        W84232   6.371  11.641  16.679  0.1006  0.3183 -0.2190
41180W        W84233   2.574  34.326  20.350 -0.0467  0.0415  0.1989
41181W        W84234  32.425  14.835  15.093 -0.3358  0.0991 -0.1157
41182W        W84235  34.280   8.480  23.841  0.3853 -0.0629 -0.1852
41183W        W84236  18.668   6.753   6.106 -0.5241 -0.0747  0.1026
41184W        W84237   4.973   1.848  22.126 -0.0342 -0.2904 -0.1671
41185W        W84238  17.294   4.470  14.775  0.0115 -0.1495 -0.2020
41186W        W84239   5.221  12.403  24.920 -0.0745 -0.2751  0.1971
41187W        W84240  10.747  19.932  18.610 -0.4013 -0.0318 -0.3105
41188W        W84241   1.843   5.455  14.558  0.0546 -0.0912 -0.0047
41189W        W84242  11.818  14.598  26.720  0.3475  0.1882 -0.0195
41190W        W84243  11.677  12.109  21.759  0.0895  0.1762 -0.0001
41191W        W84244  15.207  13.311  16.657 -0.0820 -0.2448  0.1628
41192W        W84245   1.320  12.141  17.069  0.1434  0.1306 -0.2271
41193W        W84246   6.501  28.894   1.190 -0.0896 -0.0956  0.0611
41194W        W84247  10.702  23.039  15.472 -0.0137  0.2516  0.0217
41195W        W84248  20.273   9.068  17.131 -0.3462  0.3094  0.0754
41196W        W84249  15.616  15.550  13.562 -0.2900 -0.0142 -0.1943
41197W        W84250  19.402  12.580  16.282  0.1290  0.2607 -0.0475
41198W        W84251  10.595   3.869  25.921  0.3241 -0.3803 -0.3583
41199W        W84252  34.439  13.128  16.532 -0.0938  0.1055  0.1330
41200W        W84253   5.556   7.087  18.853  0.2528  0.2086 -0.5350
41201W        W84254   0.855  14.932  17.344  0.1219 -0.1030 -0.1465
41202W        W84255   8.560  14.404  19.466  0.0564  0.1844 -0.1061
41203W        W84256  16.063   5.261   2.915 -0.0324 -0.0702 -0.1780
41204W        W84257  27.727  13.052  16.238  0.1112  0.0954 -0.0642
41205W        W84258   2.595  18.255  27.623  0.2176 -0.3929 -0.0903
41206W        W84259   3.504   6.574   2.778  0.3013 -0.1372 -0.0304
41207W        W84260   9.595  12.574  15.378 -0.2124 -0.1705 -0.0741
41208W        W84261   8.792  11.576  23.544  0.0924  0.2151 -0.1774
41209W        W84262  14.206  11.841  19.245 -0.0227 -0.0793 -0.0439
41210W        W84263  12.683  31.823   5.448 -0.1277  0.2991 -0.0541
41211W        W84264   1.536  21.129  25.979  0.1193  0.2129 -0.1177
41212W        W84265  23.953   0.962   3.227 -0.0309  0.1695  0.0628
41213W        W84266   9.038  26.327  17.699  0.0353  0.0961  0.2821
41214W        W84267   9.298  15.984   5.995  0.1728 -0.0663  0.1937
41215W        W84268   6.634  21.561  23.061 -0.1460 -0.1705 -0.1198
41216W        W84269  28.645  30.497  27.835  0.0353  0.2290 -0.1761
41217W        W84270  14.264  10.292  18.925 -0.3290  0.0223 -0.2640
41218W        W84271   4.035  13.601  15.340 -0.1150 -0.0780  0.0640
41219W        W84272   2.036  12.269   7.765  0.3500  0.1865  0.0458
41220W        W84273  13.754  23.528  24.262  0.1096  0.0920  0.2570
41221W        W84274  32.102   8.281  17.949  0.1269 -0.0566  0.1310
41222W        W84275   8.534  18.364  20.162 -0.4353  0.1820  0.2433
41223W        W84276   7.925  31.210   1.490 -0.0637 -0.2584  0.0831
41224W        W84277   6.815  22.790  14.817  0.2806  0.1805 -0.2621
41225W        W84278  10.664  19.632  19.747  0.2287 -0.3210  0.3470
41226W        W84279   7.270  16.719  15.386 -0.1901 -0.0619  0.2115
41227W        W84280  29.059  21.086  27.314 -0.1322 -0.1178  0.4001
41228W        W84281  28.828   5.349  21.606  0.0587  0.2602 -0.5531
41229W        W84282  33.210  30.559  14.943  0.0595 -0.0501 -0.0939
41230W        W84283  10.874   8.801  16.768 -0.0519 -0.3397 -0.2351
41231W        W84284   7.104  19.445  27.414  0.3007  0.0966  0.0995
41232W        W84285  22.447   5.440  17.363  0.1447  0.1691  0.0821
41233W        W84286  13.213  18.875  15.255 -0.1288  0.2055  0.0355
41234W        W84287  16.882  14.296   1.851 -0.1308  0.1351  0.0546
41235W        W84288  12.646  17.816  16.187 -0.1101 -0.1240  0.2737
41236W        W84289  26.539  27.783   6.730  0.3171  0.0388  0.3794
41237W        W84290   6.746   7.364   2.215  0.1272  0.2316 -0.0682
41238W        W84291  13.717   5.109  28.531 -0.1456 -0.1581  0.2489
41239W        W84292  18.278  14.657  25.019  0.1440  0.0267  0.1600
41240W        W84293   9.595   8.371  25.584 -0.3213  0.0493  0.0825
41241W        W84294  13.739   4.155  15.204  0.3674 -0.1346  0.0333
41242W        W84295  21.970  15.234  21.233  0.0266 -0.0324 -0.1340
41243W        W84296   3.462  32.318  13.329  0.0206  0.3891  0.0785
41244W        W84297   3.667  11.928  17.790 -0.5650 -0.0007  0.0408
41245W        W84298   6.715  24.006  22.419 -0.1697  0.2477  0.1824
41246W        W84299  10.843   9.461  23.776 -0.1752 -0.2240 -0.3195
41247W        W84300  17.579  25.221  18.928 -0.1068  0.0307  0.3830
41248W        W84301  11.412  13.774  29.167  0.5127  0.2604 -0.3967
41249W        W84302   8.540  14.855  20.346  0.0356 -0.0563  0.0101
41250W        W84303   0.650  13.043  16.247  0.0200  0.2083  0.3084
41251W        W84304  22.993   3.338  18.830  0.1840 -0.2417  0.0574
41252W        W84305  31.579  17.970  24.386  0.1707 -0.0388  0.1558
41253W        W84306   0.540   3.732  23.049 -0.2232  0.1723  0.2424
41254W        W84307   0.615  11.625  23.673  0.0929 -0.2378 -0.1166
41255W        W84308   1.790  12.619   4.371 -0.1057 -0.1710 -0.0576
41256W        W84309  22.652  28.483  16.113 -0.0148 -0.1314 -0.2169
41257W        W84310  34.643  21.479  20.841 -0.0333 -0.0318 -0.1498
41258W        W84311  29.586  13.802  26.056  0.1743  0.0524 -0.0875
41259W        W84312   7.787  33.204   7.433  0.0663 -0.0708  0.0563
41260W        W84313  21.693  23.155  21.137 -0.0338 -0.0859  0.2325
41261W        W84314  29.174   0.748  14.974  0.0808 -0.2729  0.2231
41262W        W84315   6.921   2.901  21.970  0.2675 -0.0235  0.2343
41263W        W84316  28.217  20.566  17.859 -0.0006 -0.0544 -0.0366
41264W        W84317   7.915  30.310  27.502 -0.1904 -0.1117 -0.3829
41265W        W84318  29.148  10.365  14.933  0.1592  0.2215  0.1296
41266W        W84319   4.039  18.176  16.298  0.0904 -0.1382  0.1910
41267W        W84320   4.832  11.753  17.046  0.1018  0.0279  0.0176
41268W        W84321  33.810  14.037  24.237 -0.0249  0.3186  0.0008
41269W        W84322  28.866  19.550  18.617 -0.0737  0.1383 -0.0773
41270W        W84323  14.673  33.290  23.181  0.2457  0.2793  0.0178
41271W        W84324   7.529  15.837  26.753 -0.0748  0.2508 -0.1250
41272W        W84325   9.559  15.643  25.935 -0.2798  0.0400 -0.0003
41273W        W84326  25.843  29.617  18.778 -0.0504 -0.1314 -0.2853
41274W        W84327  31.495  11.600  17.938 -0.0440  0.1635  0.2683
41275W        W84328   0.710  32.341  16.658  0.0253  0.2428  0.0996
41276W        W84329  13.631   5.686   5.499  0.0179  0.1609  0.1020
41277W        W84330   4.024  23.111  21.220  0.1937  0.2990  0.0419
41278W        W84331   4.665  24.391  22.288 -0.0265 -0.1833 -0.0241
41279W        W84332  21.555   8.340  18.200 -0.0954  0.2617 -0.0386
41280W        W84333  14.075   8.463  21.425 -0.0261 -0.0009  0.2391
41281W        W84334  34.529  18.576  23.750 -0.1837  0.0254  0.1038
41282W        W84335  30.320   7.579  22.576  0.1624 -0.1228  0.0795
41283W        W84336  29.541   5.364   7.030 -0.0372  0.2664 -0.2794
41284W        W84337  10.237  22.997  17.040  0.2743 -0.1537  0.3038
41285W        W84338  27.006  21.337  21.821  0.1064  0.0391  0.2350
41286W        W84339   0.191  16.831  19.813  0.2666  0.0882  0.2438
41287W        W84340  18.932   7.191  19.875 -0.0367  0.0800 -0.1867
41288W        W84341   6.453  19.151  26.616 -0.0119  0.1147  0.3275
41289W        W84342  14.536  14.164  25.618  0.0364 -0.0004 -0.0911
41290W        W84343  11.040   5.882   0.030  0.0540 -0.0331  0.0298
41291W        W84344  24.927  27.909  22.786  0.1869 -0.1229 -0.1444
41292W        W84345  23.771   9.055  14.213 -0.0496 -0.0946  0.3093
41293W        W84346  15.436  29.038  23.424 -0.0141  0.0513 -0.1351
41294W        W84347  33.458   5.853  24.906  0.1819  0.2146  0.0692
41295W        W84348  10.056  17.331  15.899 -0.0051  0.1385  0.0564
41296W        W84349  15.492  10.161  16.130  0.0536 -0.0658  0.1438
41297W        W84350  13.257  12.893   3.088  0.1163  0.1509 -0.0855
41298W        W84351   2.262  10.624  14.465  0.0361  0.1816  0.1445
41299W        W84352  25.964  28.771  20.544  0.0542 -0.1354 -0.0298
41300W        W84353  13.295  11.156  26.572  0.0384  0.0367 -0.3129
41301W        W84354  24.382  27.813  26.485 -0.0898 -0.0053  0.0741
41302W        W84355  31.451  14.218  19.850 -0.0955 -0.2829  0.0883
41303W        W84356  12.517  34.458  18.581  0.1218  0.0727  0.1630
41304W        W84357   5.363  20.920  21.283 -0.1929 -0.1405 -0.0785
41305W        W84358  11.314  13.623  18.212  0.3368  0.1420  0.0092
41306W        W84359   2.991   7.831  25.973  0.2598 -0.0245 -0.1070
41307W        W84360  18.549  19.705   6.598  0.1320 -0.2272 -0.0531
41308W        W84361   6.927   2.106  23.588  0.2465 -0.0140  0.0827
41309W        W84362  29.483  11.548  19.725 -0.1247 -0.0579  0.3492
41310W        W84363   6.417  11.142  16.896 -0.1241  0.2194 -0.1248
41311W        W84364   6.457  34.659  20.228  0.2967 -0.1539 -0.0410
41312W        W84365  32.168  25.877  22.245 -0.2891  0.2609  0.2547
41313W        W84366  17.879  17.235  13.984 -0.1260  0.0562 -0.2727
41314W        W84367   8.397   4.187  23.571 -0.2698  0.1663  0.0501
41315W        W84368  13.998   3.478  24.765 -0.2532 -0.1040  0.4801
41316W        W84369  17.979  18.304  25.518 -0.0611 -0.4190 -0.1193
41317W        W84370  22.421  26.594  19.514 -0.1320  0.0291  0.0622
41318W        W84371  23.179  34.288  15.812 -0.0515  0.0198 -0.3019
41319W        W84372  18.389  21.704  17.649  0.2014 -0.0647 -0.0816
41320W        W84373  27.301  19.266  15.400  0.0386 -0.1811 -0.1010
41321W        W84374  27.370  17.307   2.273  0.1807  0.0874 -0.1740
41322W        W84375   4.029  11.884  21.912  0.1422 -0.1434 -0.1596
41323W        W84376   6.952  21.126   4.228 -0.0924  0.0953 -0.2221
41324W        W84377  34.281  32.873  18.390 -0.1780 -0.1626 -0.0766
41325W        W84378   7.269   8.394   2.739 -0.0889 -0.0645  0.1476
41326W        W84379  32.640  23.955  16.982 -0.0128  0.2540 -0.5665
41327W        W84380  11.764  23.932  20.726 -0.0516  0.2065 -0.0238
41328W        W84381  12.318  24.434  22.251 -0.0411  0.0522 -0.1803
41329W        W84382  12.883  12.230  24.572  0.0310 -0.2510  0.1094
41330W        W84383  28.711   9.309  21.094 -0.1533  0.2226  0.4580
41331W        W84384   5.017  17.040  20.058  0.0663 -0.0303  0.3756
41332W        W84385   8.019  10.569  27.054 -0.1228 -0.0417 -0.0077
41333W        W84386  10.906   0.072  26.994 -0.0527 -0.0946 -0.0569
41334W        W84387  21.385  24.494  26.418  0.0971  0.1210 -0.0412
41335W        W84388  10.640  16.728  21.702  0.3396 -0.2146 -0.1432
41336W        W84389  24.715  21.373  27.366  0.0021 -0.2243 -0.2239
41337W        W84390  18.505   2.248   2.120 -0.0325 -0.0352  0.1112
41338W        W84391  28.399  11.099  19.824 -0.0756 -0.0924  0.2284
41339W        W84392  13.677   9.076  27.537  0.3262  0.1822  0.2432
41340W        W84393   6.221  34.424  18.797 -0.2434 -0.0456  0.2242
41341W        W84394  12.121  30.477  27.934  0.2235  0.1387  0.1248
41342W        W84395  12.832  29.289  22.588  0.0299  0.1159 -0.2589
41343W        W84396   5.314  31.085  12.520 -0.5335  0.0960 -0.1626
41344W        W84397   2.685  16.034  21.261 -0.1992  0.0677  0.2528
41345W        W84398  12.143  16.160  18.277 -0.3185 -0.1068 -0.0142
41346W        W84399  17.138  17.134  13.265  0.0250 -0.2336  0.0438
41347W        W84400  28.248  16.357  15.374 -0.0264  0.1651  0.0903
41348W        W84401  23.511  19.238  23.245  0.1275  0.1241 -0.2142
41349W        W84402  11.101  17.377  19.492 -0.2497 -0.1951  0.1473
41350W        W84403  14.347   7.549   4.710 -0.0199  0.0359 -0.0166
41351W        W84404  10.221  17.722  24.323 -0.0420  0.0521  0.0786
41352W        W84405  25.734  24.944  18.871 -0.0963  0.1201  0.1442
41353W        W84406  10.527   5.940   7.835  0.0558  0.1669  0.1966
41354W        W84407   6.370   0.169  23.994 -0.0572  0.1437  0.2341
41355W        W84408  22.338   0.120  23.735  0.1369  0.2272  0.1371
41356W        W84409  10.952   3.330  13.413  0.1746  0.0247 -0.3873
41357W        W84410  16.493   4.238  18.080 -0.1305 -0.3303 -0.1196
41358W        W84411  12.810  10.511  27.290 -0.2012 -0.0235 -0.1415
41359W        W84412  12.708   3.716  14.009  0.0426 -0.1844 -0.1293
41360W        W84413   5.781  13.075  15.024  0.1491  0.0141  0.3073
41361W        W84414  16.993  16.865  26.123  0.0286  0.0011  0.1206
41362W        W84415  31.367  18.201  17.548 -0.0724 -0.1393 -0.2538
41363W        W84416  10.127   3.274  26.932 -0.1260 -0.0077 -0.3653
41364W        W84417   7.797  22.153  13.725  0.1028  0.0126 -0.1926
41365W        W84418   9.925   0.078  26.130 -0.3409  0.3297  0.0525
41366W        W84419  10.615  14.269   1.284 -0.0259  0.3960 -0.1466
41367W        W84420  28.761   6.068  17.516  0.3016 -0.1730 -0.1809
41368W        W84421  31.529  19.987  18.853  0.1500  0.2490 -0.0998
41369W        W84422  11.689  15.842  22.166  0.0039 -0.0996  0.0369
41370W        W84423   5.417   5.142  17.307  0.2361 -0.0168 -0.0074
41371W        W84424  19.885   2.539  19.276 -0.3315 -0.2019  0.0501
41372W        W84425   1.259  21.886  21.328 -0.1437  0.0818  0.1744
41373W        W84426  30.609  14.770  26.535 -0.1798 -0.0757  0.1729
41374W        W84427  28.425  10.583  19.834 -0.2304 -0.1699  0.2680
41375W        W84428   2.805  33.901  16.367 -0.0368 -0.1290 -0.1021
41376W        W84429  29.053  15.389  22.729  0.1851 -0.2349 -0.1380
41377W        W84430  25.802   3.409   0.857  0.1308  0.1636  0.2247
41378W        W84431  16.105   0.193  21.693 -0.4000 -0.2716 -0.1869
41379W        W84432  33.064  23.955  26.080  0.0342 -0.1353  0.5998
41380W        W84433  19.217  10.110  21.906 -0.0088 -0.4136 -0.3480
41381W        W84434   0.961  12.609  24.672 -0.2098  0.4489  0.1128
41382W        W84435   3.031  19.820  22.276  0.2240  0.0773  0.2378
41383W        W84436  17.681  15.660  25.501 -0.0541 -0.1952  0.0072
41384W        W84437   7.681  13.787  18.715 -0.0444 -0.0273  0.1810
41385W        W84438   5.800  12.141  20.009  0.0382  0.0958 -0.1634
41386W        W84439   2.341   8.975  29.177 -0.1069 -0.2172  0.1688
41387W        W84440  11.652  14.120  18.134  0.1813  0.2092 -0.0710
41388W        W84441   8.895  13.161  17.014 -0.0521 -0.0499 -0.0061
41389W        W84442  23.352  15.688  18.481  0.0524  0.3681  0.6098
41390W        W84443   6.999  19.956  18.636  0.1738  0.2124 -0.0067
41391W        W84444  21.580  14.565  26.021  0.2893  0.0069  0.0734
41392W        W84445  11.930  19.953  17.786 -0.0014  0.2265  0.0880
41393W        W84446  33.396   4.036  24.716  0.0291  0.1135  0.0736
41394W        W84447  28.230  14.569   5.975 -0.3864  0.3148  0.1501
41395W        W84448   2.676  14.438  16.853 -0.1121 -0.0652 -0.2040
41396W        W84449  18.794  13.421   5.173 -0.0178 -0.1716 -0.0684
41397W        W84450  14.026   2.682  10.038 -0.0529 -0.1360  0.0143
41398W        W84451   3.683  23.204  18.345 -0.1621  0.0505 -0.3851
41399W        W84452   2.868  22.176  16.377  0.0473 -0.3897 -0.0698
41400W        W84453  33.258  11.229  23.207  0.0386  0.0557 -0.0472
41401W        W84454  18.848   2.068   6.543 -0.1086 -0.0683 -0.1181
41402W        W84455  20.666  29.148  18.285  0.1186  0.0858  0.2875
41403W        W84456   8.712  22.008  14.379 -0.0513  0.0034 -0.0173
41404W        W84457   5.275   9.548  17.359  0.0290 -0.0770 -0.0347
41405W        W84458   1.404  25.846  22.458 -0.0331 -0.0002 -0.0946
41406W        W84459  27.424  25.741  18.521  0.0593  0.1919 -0.2896
41407W        W84460   8.474   9.750  14.113 -0.1540 -0.0511 -0.1627
41408W        W84461   4.090  13.185  26.472 -0.1120  0.1644 -0.3472
41409W        W84462  21.441   2.523  15.738  0.1035  0.0214 -0.0594
41410W        W84463   4.485   2.695  23.001 -0.2188 -0.1406  0.0415
41411W        W84464  24.573  16.640  17.459 -0.0613 -0.1907  0.1289
41412W        W84465   9.928  22.032  21.360  0.1201  0.1961  0.1736
41413W        W84466   5.504  21.133  25.870 -0.5452 -0.0557  0.0610
41414W        W84467  19.600   8.438  22.417 -0.0482 -0.2221 -0.6030
41415W        W84468  33.431   8.222  18.810  0.0615  0.1846  0.0663
41416W        W84469   9.444  31.518  20.305  0.3379 -0.3273  0.4565
41417W        W84470  12.939  32.704   5.318 -0.0201  0.0958 -0.1955
41418W        W84471  21.330  15.013  16.280  0.2682  0.4065 -0.0266
41419W        W84472  12.112  23.769  20.184  0.1314 -0.3663 -0.0457
41420W        W84473   8.245  20.704   1.064 -0.3023 -0.3484 -0.2192
41421W        W84474  10.089  10.388  16.826  0.1635  0.0798 -0.0055
41422W        W84475  22.032  31.302   9.011  0.1495  0.0456 -0.0380
41423W        W84476  10.856   1.625  14.746  0.1697  0.1900  0.0173
41424W        W84477  13.197   5.170  20.218 -0.1448  0.0954 -0.0286
41425W        W84478  17.477   9.406  15.815  0.4698  0.0265 -0.0693
41426W        W84479   4.505   8.596  26.334 -0.2880  0.0118  0.1287
41427W        W84480  27.411  27.195  16.785 -0.3692 -0.2259 -0.2712
41428W        W84481  16.606   6.173  23.699  0.1509 -0.0197 -0.1906
41429W        W84482  12.599   5.212  22.531 -0.0543  0.1660  0.2728
41430W        W84483  29.989   0.296  18.066 -0.0262  0.1066  0.3210
41431W        W84484  13.067  29.440   4.606 -0.1568 -0.1816 -0.2353
41432W        W84485   9.391   2.405  17.396  0.4202  0.0696 -0.0079
41433W        W84486   0.731  18.116  26.704 -0.1421 -0.1376  0.0317
41434W        W84487  11.611   1.410  18.845 -0.0832  0.1706  0.1780
41435W        W84488  21.839   9.391  26.008  0.1393 -0.0055 -0.1240
41436W        W84489   9.403   5.977  15.845  0.2864  0.2226 -0.1153
41437W        W84490  16.050  30.739  28.398  0.1265  0.0796 -0.2433
41438W        W84491  15.644   7.875  16.320  0.0474  0.1905 -0.3605
41439W        W84492  20.489   4.570  19.307  0.0774 -0.2335 -0.0358
41440W        W84493  24.903  25.679  17.217 -0.0753 -0.1552 -0.1402
41441W        W84494  27.569   8.932  19.869 -0.1580 -0.0256 -0.0853
41442W        W84495   9.362  13.209   5.028 -0.0568 -0.1694  0.1700
41443W        W84496  18.756  20.743  16.417  0.1431  0.2799 -0.0527
41444W        W84497  13.288   0.403  22.963  0.0575 -0.1314  0.1787
41445W        W84498  15.863   7.900  24.891 -0.0191 -0.0973  0.0894
41446W        W84499  20.248  21.845  17.020  0.1908 -0.1347 -0.1097
41447W        W84500   8.573  14.722  17.367 -0.0417  0.0266 -0.2798
41448W        W84501  11.210  26.463  13.643 -0.3148 -0.2071 -0.1688
41449W        W84502  20.564  14.423  23.983  0.1909 -0.3719  0.2173
41450W        W84503  25.351   4.038  22.659 -0.0941 -0.0835  0.0774
41451W        W84504  21.289   9.758  24.010 -0.0775 -0.0328  0.1367
41452W        W84505  23.325  14.649  25.061 -0.2252  0.0869 -0.2238
41453W        W84506   2.241  15.720  27.305  0.2643 -0.2914 -0.1012
41454W        W84507  10.531  34.616  19.928 -0.0278 -0.2219 -0.0502
41455W        W84508   6.357  24.456  14.508 -0.1777 -0.0185  0.2447
41456W        W84509  11.170   3.333   3.396  0.0644  0.1853  0.2286
41457W        W84510  24.921   7.059  13.259 -0.1323  0.0527 -0.2032
41458W        W84511  12.079  29.428  22.439 -0.2853 -0.1188 -0.0284
41459W        W84512  31.302  23.179  23.186 -0.2310 -0.1323  0.2152
41460W        W84513  33.310  15.610  19.838  0.3923  0.0027  0.0530
41461W        W84514  33.176   7.379  21.396  0.4485 -0.4022 -0.1423
41462W        W84515  34.106  15.613   0.152 -0.1039  0.3282  0.0480
41463W        W84516  27.886  27.384  28.192 -0.0891  0.1084 -0.0695
41464W        W84517  33.537   2.152  16.055  0.1119  0.1035 -0.1601
41465W        W84518  21.043  13.610  22.868  0.2561  0.0157 -0.0887
41466W        W84519  23.428   7.861  17.099 -0.0768  0.2929  0.0989
41467W        W84520  13.378   9.028  15.583  0.1454 -0.1411  0.0055
41468W        W84521  12.831  27.251  20.021 -0.1181  0.1462  0.3334
41469W        W84522   8.382   9.142  17.380 -0.2459 -0.2683  0.1318
41470W        W84523  31.563  15.758  19.493 -0.2200 -0.1865  0.2962
41471W        W84524  12.991   9.388  25.162  0.0799 -0.4421  0.0687
41472W        W84525  12.078  15.177  14.838  0.0788  0.0113 -0.2979
41473W        W84526   9.724  16.440  22.751  0.2395 -0.1390  0.1304
41474W        W84527   3.342  20.594  26.091  0.1671  0.1514  0.1303
41475W        W84528   6.233  25.097  18.403  0.0827  0.0609 -0.2269
41476W        W84529  21.153  32.932   7.231  0.0664 -0.0356 -0.1846
41477W        W84530   3.207  16.177  15.223  0.0330 -0.3135 -0.2527
41478W        W84531  27.378  25.347   2.192  0.4939  0.5265 -0.1261
41479W        W84532   5.557  17.639  18.337  0.3077  0.0142 -0.1662
41480W        W84533   6.891  18.400  17.847 -0.0338  0.2158  0.0846
41481W        W84534  19.201   9.952  22.864 -0.0140  0.0350 -0.0233
41482W        W84535  10.097  11.067   0.114  0.1185  0.0185  0.0504
41483W        W84536  17.393   0.912  16.777  0.1214  0.0716 -0.2973
41484W        W84537   9.475   3.563  24.867 -0.1540 -0.0516 -0.1152
41485W        W84538   6.145   3.744  14.983  0.2220  0.2373  0.0129
41486W        W84539  17.509  18.929   1.116 -0.0385 -0.1213  0.0967
41487W        W84540   3.199   5.661  17.031 -0.0133  0.0448 -0.0685
41488W        W84541  15.427   1.537  25.741  0.1524  0.2104 -0.0368
41489W        W84542   3.511  11.072  25.252  0.1579 -0.0267  0.1430
41490W        W84543   6.272   9.331  19.311 -0.2895  0.0405 -0.1808
41491W        W84544  23.319  14.304  18.905  0.1163  0.3003  0.0458
41492W        W84545   9.614  25.779   8.286 -0.1042  0.1395 -0.1185
41493W        W84546   2.286   5.588  20.328  0.0991 -0.0274 -0.0279
41494W        W84547   0.703  29.823  15.305  0.0976 -0.0057 -0.0650
41495W        W84548  12.405  34.551  27.819 -0.2563  0.5381 -0.1198
41496W        W84549  22.546   8.321  17.490 -0.1824 -0.2498 -0.0036
41497W        W84550   9.443   0.531  19.487 -0.0556 -0.0555 -0.3414
41498W        W84551   8.471  15.084   6.659  0.1144  0.1091 -0.4241
41499W        W84552  11.872   7.530  15.161 -0.1316 -0.1942  0.1763
41500W        W84553  15.848  22.325  25.312  0.1407  0.1414  0.2309
41501W        W84554   2.926   7.921   0.075 -0.5145  0.2738 -0.1174
41502W        W84555  30.543  14.741  18.405  0.3237  0.0738 -0.1896
41503W        W84556   7.420   2.146  25.645  0.3429 -0.1033  0.3198
41504W        W84557  18.679   1.531  19.053 -0.3392 -0.2087  0.0116
41505W        W84558   5.270  19.123  19.409 -0.0949 -0.2088 -0.5437
41506W        W84559  12.537   6.780  21.143 -0.0943 -0.1412 -0.0102
41507W        W84560   3.426  14.356  23.540  0.0733 -0.0891 -0.1577
41508W        W84561   1.076  13.796  17.789 -0.2138  0.1072 -0.1770
41509W        W84562  10.043  21.539  21.358  0.0454  0.2054 -0.0523
41510W        W84563  14.547  23.613   2.220  0.0052  0.0855 -0.2823
41511W        W84564  33.505  18.368  22.845 -0.1879  0.0714 -0.0595
41512W        W84565  10.438  26.042  16.997  0.3749  0.4080  0.0000
41513W        W84566   2.939  16.321  16.202  0.2118  0.1375  0.0435
41514W        W84567  30.098  11.644  17.880  0.2988  0.1086 -0.0087
41515W        W84568   3.125  15.387  15.307  0.1790 -0.0006  0.2034
41516W        W84569  11.479   5.123  18.273 -0.0922 -0.0927 -0.0272
41517W        W84570  13.927  33.432  27.540 -0.1121  0.0381 -0.1685
41518W        W84571   1.848   8.921  28.084 -0.2994 -0.4016  0.0238
41519W        W84572  21.448  13.932  26.936  0.0252  0.3279  0.0052
41520W        W84573   3.849  20.667  20.420 -0.2449 -0.0212 -0.0941
41521W        W84574  21.690  20.150  22.778 -0.2712 -0.3188  0.1132
41522W        W84575  25.905   4.842  15.132 -0.5125  0.0109 -0.0845
41523W        W84576  14.765   9.358  24.237  0.0909 -0.1101  0.0537
41524W        W84577  11.897  10.108  27.137  0.1559  0.1814  0.1023
41525W        W84578   5.252  10.651   1.950 -0.2324 -0.0560  0.0240
41526W        W84579   3.004  21.466  19.827  0.2027  0.2000  0.1142
41527W        W84580  19.678  28.012  25.222 -0.3199 -0.1221 -0.0988
41528W        W84581  10.830  10.269  16.784 -0.0461 -0.0190 -0.0001
41529W        W84582  12.368   2.861  24.477 -0.1277  0.4521 -0.2216
41530W        W84583  17.861   5.216  20.853  0.0265 -0.1264  0.0048
41531W        W84584   1.783  10.000  14.730 -0.1170  0.1455  0.0809
41532W        W84585  13.111   2.381  15.699  0.1468  0.2795  0.1834
41533W        W84586  12.311  13.393  22.943 -0.0235 -0.0055 -0.0277
41534W        W84587   7.796  16.630  20.711 -0.0602  0.2058  0.2516
41535W        W84588  11.245  32.420  22.070 -0.1658  0.1125  0.0978
41536W        W84589   4.469  23.786  20.935  0.2192  0.0837 -0.0159
41537W        W84590  10.186   9.736  17.906 -0.0824  0.0096 -0.1357
41538W        W84591  11.157   5.430  18.927 -0.0927  0.1838  0.0816
41539W        W84592   5.429   8.445  19.452 -0.1438  0.0883  0.3257
41540W        W84593   9.081  16.659  23.547 -0.2600  0.1389 -0.1536
41541W        W84594   9.333   3.875  17.178  0.0172  0.0925  0.2229
41542W        W84595   7.831   9.490  18.710  0.2584  0.1949 -0.1426
41543W        W84596   1.756  14.854  28.339  0.0396 -0.1063  0.0374
41544W        W84597  11.550  26.149  21.182 -0.0138 -0.0067  0.0254
41545W        W84598   9.836   7.234  14.770 -0.2797 -0.1217 -0.1782
41546W        W84599   2.409  21.231  29.193 -0.0998 -0.0288  0.0617
41547W        W84600   1.601  26.062   2.166  0.1061 -0.0601  0.0357
41548W        W84601  15.635  23.621  27.933 -0.0688  0.2102  0.0362
41549W        W84602   9.466  20.197  21.578 -0.2041  0.0084 -0.1795
41550W        W84603   7.155   6.202  18.182  0.0715  0.2478 -0.2084
41551W        W84604  10.902  25.832  25.658  0.0614  0.0366 -0.1292
41552W        W84605  10.903  21.528  23.825 -0.1226 -0.0938 -0.2642
41553W        W84606   3.723  23.991  22.639  0.0300  0.2684  0.2874
41554W        W84607  34.051  10.919  24.222  0.1480 -0.0066  0.0409
41555W        W84608   7.455  15.006   1.913  0.0867  0.1200 -0.1038
41556W        W84609   0.851   8.851  19.149  0.0419 -0.0611 -0.0013
41557W        W84610  14.454  10.220  19.859  0.0564 -0.0640 -0.1910
41558W        W84611  17.283   1.249  22.149 -0.1769 -0.0937  0.0535
41559W        W84612  33.817  16.788  18.194 -0.1010 -0.5830 -0.1525
41560W        W84613   8.222   7.800  20.485 -0.0002 -0.1651  0.2305
41561W        W84614  27.886   4.732  18.411  0.0995 -0.0631  0.0623
41562W        W84615  11.904   2.591  23.406  0.0070 -0.2167 -0.0955
41563W        W84616   8.170  25.218  24.646  0.3690  0.1403  0.0140
41564W        W84617  19.270   6.516  23.244 -0.0365 -0.0857 -0.3466
41565W        W84618   8.166   4.594  21.055 -0.1336  0.0727  0.0651
41566W        W84619  28.144  23.110  21.511 -0.0666  0.4204  0.2009
41567W        W84620  20.353   3.723  21.477  0.1582 -0.3663 -0.2384
41568W        W84621   8.361  18.005  16.964  0.2717  0.1080  0.1188
41569W        W84622   4.533   8.904  18.815 -0.0446 -0.4609 -0.0504
41570W        W84623  27.651  22.990  16.265  0.0120  0.1013  0.0274
41571W        W84624  12.580  15.794  27.305 -0.0234 -0.2711  0.1505
41572W        W84625  29.810   5.371  21.097  0.1042 -0.2830  0.0494
41573W        W84626   4.954  16.744  16.039 -0.5220  0.1071 -0.1093
41574W        W84627   1.386  18.935  28.720 -0.0255  0.3499  0.0636
41575W        W84628  26.653  12.660  21.478 -0.1680 -0.1690 -0.1888
41576W        W84629   8.982  18.711  22.643  0.2163 -0.2847  0.0520
41577W        W84630  30.545   3.714  19.364  0.2396  0.0856  0.0172
41578W        W84631  22.214   3.706  23.964  0.1274 -0.0006  0.0364
41579W        W84632   1.861  19.654  13.247  0.1144 -0.1717  0.0455
41580W        W84633   9.926  14.400  28.369  0.2578  0.2150  0.1475
41581W        W84634  23.134  16.056  27.463 -0.1284  0.0920  0.0746
41582W        W84635  11.722   4.907  21.244 -0.0721 -0.2025  0.1077
41583W        W84636  30.272   6.801  18.343 -0.0335 -0.2326  0.1064
41584W        W84637  16.010  27.450  26.100 -0.2478  0.0611 -0.0830
41585W        W84638  12.388  23.511  13.813 -0.2495  0.3232 -0.0802
41586W        W84639   3.527  11.469   7.202  0.2169  0.0584 -0.1392
41587W        W84640  27.494  23.286  20.883  0.3473 -0.1293 -0.0467
41588W        W84641   9.460  21.332  22.956  0.3360 -0.0479  0.1911
41589W        W84642   7.927  20.548  21.725  0.1648 -0.0844  0.3318
41590W        W84643  25.473   2.787  26.745 -0.0902  0.0634  0.2530
41591W        W84644  18.463  19.275  15.813 -0.0018  0.1277  0.1115
41592W        W84645   0.106  10.573  23.289  0.1216 -0.2579  0.2579
41593W        W84646  14.186  27.541  21.721 -0.0424 -0.0005 -0.0252
41594W        W84647   5.977   7.942  18.601 -0.2584 -0.0089 -0.1247
41595W        W84648  18.174  29.681   1.276 -0.1430  0.1001 -0.1059
41596W        W84649  28.388  15.281  19.174  0.2485 -0.2063  0.2425
41597W        W84650   5.877  33.424   0.331 -0.1615  0.0753  0.0578
41598W        W84651   3.536  15.466  19.647 -0.2651  0.0260  0.1191
41599W        W84652  16.144  18.918  12.876  0.1542  0.0635 -0.0540
41600W        W84653  17.584   7.119  15.288  0.2367 -0.2772 -0.0924
41601W        W84654   5.136  22.840  14.228  0.4827  0.0684  0.0168
41602W        W84655  14.807   7.191  15.809 -0.0676  0.1210 -0.1354
41603W        W84656  16.586  12.109  23.463 -0.3215 -0.1531  0.0813
41604W        W84657  20.523  23.710  17.134  0.3665 -0.2770  0.0391
41605W        W84658   5.717  10.056  24.416  0.0618 -0.2769 -0.0674
41606W        W84659   9.422  34.473  18.030  0.4351 -0.0425 -0.0219
41607W        W84660  10.140  10.952  17.658  0.0885 -0.2826  0.1941
41608W        W84661   7.181   0.060  19.745  0.0407 -0.1954 -0.3138
41609W        W84662   8.248  13.065  18.359 -0.0309  0.2037 -0.0543
41610W        W84663   4.563  18.873  27.035 -0.1655  0.3857  0.1445
41611W        W84664  14.614  10.190   7.633  0.0026 -0.0397  0.2809
41612W        W84665  23.490  29.983   6.850 -0.0388  0.3561  0.2641
41613W        W84666   8.156  19.117  26.804 -0.1443 -0.2598  0.0283
41614W        W84667  34.071  31.817  26.399 -0.0778  0.1027  0.1770
41615W        W84668  18.359   3.085  14.945 -0.0296 -0.1116 -0.2239
41616W        W84669  18.365   9.065  19.478 -0.0843  0.3159 -0.1110
41617W        W84670  22.778  15.516  20.277 -0.0827  0.0014  0.0724
41618W        W84671  17.804  25.132  16.732 -0.0419 -0.0843  0.1934
41619W        W84672  33.307   4.299  28.390  0.3209  0.0063  0.0470
41620W        W84673  14.494  27.056  13.477 -0.1793 -0.1362  0.1378
41621W        W84674  24.378  10.257   8.246 -0.1834 -0.1776 -0.2695
41622W        W84675  33.482  27.389  23.616  0.1751  0.1187  0.0665
41623W        W84676   1.143  21.743  15.011 -0.0967  0.0919 -0.1254
41624W        W84677   6.353   0.170  22.056  0.3367 -0.1481 -0.1233
41625W        W84678  16.559  12.514  27.362  0.3317 -0.1089 -0.1544
41626W        W84679  33.991   6.716  24.548 -0.2244 -0.0918 -0.2233
41627W        W84680   5.324  24.639  15.021 -0.0526 -0.1877 -0.1794
41628W        W84681   2.748  18.125   2.644 -0.1861 -0.0996 -0.1039
41629W        W84682  22.396  20.783  16.618 -0.2592 -0.1228 -0.1067
41630W        W84683  33.015  15.961  21.503  0.2220 -0.1418 -0.1952
41631W        W84684  14.421  19.598  16.727  0.1049  0.2260 -0.0849
41632W        W84685  13.215   9.617  22.131  0.1042 -0.2066 -0.2139
41633W        W84686  31.397  19.985  16.507  0.1298 -0.2113 -0.1841
41634W        W84687  23.079  20.588  21.091 -0.1724 -0.3787 -0.2686
41635W        W84688  12.025  22.274  25.316 -0.0607 -0.0743  0.1578
41636W        W84689   9.699   5.635   0.261 -0.1933  0.1097  0.0675
41637W        W84690   6.276  34.205  28.442 -0.1116  0.0645  0.0914
41638W        W84691   4.846  10.335   0.674  0.0685  0.1571 -0.0473
41639W        W84692   8.429  13.662  25.260 -0.1978  0.0601  0.3699
41640W        W84693  14.790  29.418  19.487 -0.2146 -0.1775 -0.1307
41641W        W84694   5.084   5.208  17.971  0.2265 -0.0112 -0.0283
41642W        W84695   5.599  10.580  18.860  0.0505 -0.0091 -0.1273
41643W        W84696  33.781   5.887  17.440 -0.1398  0.0045 -0.1533
41644W        W84697  33.978  10.845  16.624  0.0355 -0.1941  0.0621
41645W        W84698   2.065  18.372  14.414  0.0175 -0.1285 -0.1090
41646W        W84699  10.845   9.333  26.280 -0.1907 -0.1444 -0.2717
41647W        W84700   7.728  19.165  14.216  0.0278  0.1312 -0.1820
41648W        W84701  32.883  22.518  22.064 -0.1391 -0.0472 -0.2193
41649W        W84702   2.888  24.140   9.726 -0.0819 -0.2714 -0.0419
41650W        W84703   2.061  10.443  20.739 -0.1642  0.2116 -0.0748
41651W        W84704  19.473  22.922  15.254 -0.0366 -0.1200 -0.0438
41652W        W84705   1.652  16.931  14.504 -0.0499  0.0866  0.0936
41653W        W84706   6.863  32.744  22.801 -0.0640 -0.1518  0.3745
41654W        W84707   5.214  24.062  18.445 -0.0044  0.4033 -0.4666
41655W        W84708  29.401   4.643  25.608 -0.1505 -0.0045  0.0708
41656W        W84709   9.080   2.687  17.937 -0.0586  0.3233 -0.0575
41657W        W84710   7.783  21.208  16.790  0.2167 -0.0989  0.1220
41658W        W84711   5.083  14.305   1.890  0.0040  0.4400  0.2125
41659W        W84712  19.447  10.126  27.628  0.0904  0.4297 -0.1884
41660W        W84713   4.073  25.493  20.789 -0.2516 -0.0887  0.1514
41661W        W84714  29.474  22.223  20.475 -0.0858  0.2431 -0.0249
41662W        W84715  11.106  30.478  27.544 -0.0734  0.0867  0.0493
41663W        W84716   4.925  29.545  13.634 -0.0397 -0.1484  0.1821
41664W        W84717   5.829  12.403  19.549  0.2324 -0.0969  0.2388
41665W        W84718  11.046  33.205  18.093 -0.1356  0.1533 -0.1014
41666W        W84719   2.260  10.317  28.874  0.1433  0.0110 -0.0328
41667W        W84720   8.917  17.332  18.176 -0.1042  0.2055  0.2420
41668W        W84721  12.526   3.891  15.195 -0.0470  0.1608  0.1329
41669W        W84722   5.668  22.006  18.316  0.1296 -0.2651 -0.0756
41670W        W84723  19.506   8.443  25.359 -0.1307 -0.0738  0.1075
41671W        W84724   8.068  15.843  23.154 -0.0506 -0.0600 -0.1973
41672W        W84725   3.945  12.314   8.694 -0.0566 -0.0968 -0.0233
41673W        W84726   5.621  21.891  15.173  0.3595  0.2409  0.1599
41674W        W84727   1.394  19.201  25.812 -0.0772  0.1215  0.2135
41675W        W84728  22.632  22.284   1.353 -0.0945  0.1628  0.0404
41676W        W84729   5.510  18.190   3.092  0.2045  0.3521  0.1224
41677W        W84730  24.509  18.794  20.039 -0.1856 -0.1308 -0.0376
41678W        W84731  17.670  15.430  28.144  0.2617  0.0045 -0.0575
41679W        W84732  32.273  12.956  20.502 -0.0369  0.0690 -0.3268
41680W        W84733  14.161  19.942  16.388  0.1062 -0.1997  0.0753
41681W        W84734   3.346  30.968  21.480  0.2460  0.3395  0.0390
41682W        W84735  18.861   3.078  20.484 -0.2945 -0.0828 -0.1968
41683W        W84736   3.360   2.109  25.955 -0.0471 -0.2372 -0.1993
41684W        W84737   3.458  20.115  16.632 -0.0978  0.3688 -0.4077
41685W        W84738   9.047  10.679  21.439  0.2147 -0.4399 -0.2280
41686W        W84739  11.541  21.564   5.541  0.1951  0.0230  0.0458
41687W        W84740   4.958   2.880  17.409  0.3353 -0.3224 -0.1956
41688W        W84741  32.460  12.983   5.919 -0.1325 -0.0867 -0.1468
41689W        W84742   3.255  11.851  16.133 -0.0650  0.1244  0.0676
41690W        W84743  11.245   1.313   5.196 -0.1783 -0.2823 -0.0880
41691W        W84744  13.387   4.524  27.788 -0.1501 -0.4628 -0.3926
41692W        W84745  21.316  25.394   1.315 -0.0588  0.1929  0.2424
41693W        W84746   0.098  30.168  28.623 -0.0127 -0.0758 -0.2901
41694W        W84747  18.565  14.823  24.034  0.0085  0.2867  0.1721
41695W        W84748  16.526  11.361  17.990  0.0428 -0.2026  0.3847
41696W        W84749   2.382  24.454   8.182  0.1654  0.0372  0.3023
41697W        W84750   0.176  22.914   9.368 -0.0310 -0.1179  0.2614
41698W        W84751  19.893   8.616  20.966  0.3109  0.1685 -0.3805
41699W        W84752  12.263   9.017  19.237  0.1513  0.2712 -0.0025
41700W        W84753   9.686  27.853  25.745  0.2277  0.2161  0.1311
41701W        W84754  22.178  17.340  25.946 -0.0503  0.1495  0.1917
41702W        W84755  13.351  24.125  23.677  0.0235  0.0612 -0.0289
41703W        W84756   9.163   6.509   8.450  0.3067 -0.1179 -0.1171
41704W        W84757  15.481  31.245  16.220 -0.2447  0.0319  0.1420
41705W        W84758   0.281   8.958   2.714 -0.1216 -0.0249  0.1758
41706W        W84759  10.933  13.447  25.317  0.1765  0.2581 -0.0639
41707W        W84760  22.212  30.535  20.293  0.1044  0.0999 -0.0801
41708W        W84761  22.846  16.932  27.133 -0.0271  0.3258  0.1181
41709W        W84762   6.495  20.110   2.592 -0.1440  0.2134 -0.2139
41710W        W84763  20.475  20.058  16.762  0.1642 -0.1800  0.0376
41711W        W84764  30.574   3.978  16.981  0.0901 -0.2489 -0.2380
41712W        W84765  25.077  13.037  27.423 -0.0669  0.0377  0.2458
41713W        W84766  10.026  25.221  17.622 -0.0784  0.3109 -0.1709
41714W        W84767   2.968  19.309  15.762 -0.4101  0.1062 -0.2076
41715W        W84768   8.541  23.655  13.892 -0.0664  0.0580 -0.1940
41716W        W84769   7.250   1.218  18.479  0.5106 -0.1795 -0.2426
41717W        W84770   9.389  11.633  16.880  0.3975  0.1355  0.2083
41718W        W84771  34.187   9.272   1.556 -0.2286 -0.0746 -0.4822
41719W        W84772  15.796  33.086   3.093 -0.3743 -0.0267 -0.2388
41720W        W84773  11.847  21.326  24.117  0.0680  0.2988  0.2504
41721W        W84774  10.198  14.354  27.929  0.1015  0.3160 -0.3013
41722W        W84775   3.032   7.912   5.545 -0.1148 -0.2148  0.0053
41723W        W84776   5.894   6.083  16.104  0.0489  0.0411  0.0675
41724W        W84777   7.470   5.273   6.049 -0.1902 -0.0382  0.2205
41725W        W84778  11.014  17.345  24.839  0.1926 -0.1324 -0.1052
41726W        W84779   1.051  12.442  19.008 -0.1101 -0.0975  0.1296
41727W        W84780  28.891  22.593  17.389 -0.0855  0.1383  0.1670
41728W        W84781  29.292  24.406   2.043 -0.4531  0.1398 -0.0507
41729W        W84782  10.977  32.257  25.424 -0.1753 -0.3860 -0.0575
41730W        W84783  18.214  11.414  18.536 -0.1520  0.0140  0.2311
41731W        W84784   6.463  24.685  23.124 -0.0935  0.0940  0.0386
41732W        W84785  14.313   1.908  22.115 -0.1116 -0.1957 -0.1676
41733W        W84786   5.350  13.988   9.267 -0.0172  0.4125  0.0944
41734W        W84787  23.015  34.499  25.397 -0.0217  0.1013  0.0695
41735W        W84788  13.295  20.504  15.302  0.0865  0.0370 -0.1094
41736W        W84789  20.685  13.316  15.096 -0.0798  0.1267  0.0503
41737W        W84790   4.699  14.576  27.313  0.4013  0.2504 -0.1105
41738W        W84791  10.566  16.192  18.413  0.2342  0.0020  0.2181
41739W        W84792  21.537   2.496  27.381  0.0371 -0.1101  0.1880
41740W        W84793  26.170  23.271  19.689 -0.0116 -0.2467 -0.3053
41741W        W84794   9.321   5.201  25.525  0.1388  0.1472  0.3528
41742W        W84795  21.358  16.162  17.351  0.0885 -0.0538  0.2619
41743W        W84796   4.969   9.974   0.340 -0.0021 -0.0580  0.0113
41744W        W84797   9.783  22.573   0.701 -0.1056 -0.0689 -0.2453
41745W        W84798   1.107  17.005  23.055 -0.1398  0.0609 -0.1113
41746W        W84799   0.611   9.197   2.309 -0.1303 -0.0092  0.1186
41747W        W84800  17.521  32.388   7.672  0.1326 -0.1952  0.3565
41748W        W84801  10.178  15.617  27.752 -0.2090  0.0402  0.3784
41749W        W84802   5.860   4.528  15.048 -0.0538 -0.1285  0.2389
41750W        W84803  20.407  19.213   0.410 -0.0350  0.0814  0.0704
41751W        W84804  14.042  33.693  27.081  0.2687 -0.2565 -0.3757
41752W        W84805  10.723  24.917  20.727  0.0915 -0.0528 -0.1321
41753W        W84806   9.065   1.398  22.342  0.0597  0.0092 -0.2054
41754W        W84807  21.826  16.188  15.924  0.4158  0.1331  0.1101
41755W        W84808  12.651  11.945  18.200 -0.1536 -0.0875 -0.0031
41756W        W84809   1.883  25.370  18.539 -0.4073 -0.2241  0.1254
41757W        W84810  14.915  21.943  16.479 -0.0584  0.0299  0.0681
41758W        W84811  30.334  11.161  28.394 -0.1680 -0.4398 -0.0087
41759W        W84812   8.555  10.922  22.848  0.2366 -0.1983  0.0733
41760W        W84813  30.569  20.615  14.764  0.2211  0.0539  0.1231
41761W        W84814  29.722   3.406  20.390 -0.0512  0.4338 -0.2766
41762W        W84815   1.912  15.069   2.841 -0.1593 -0.1446 -0.0097
41763W        W84816  10.048  29.327   1.960  0.0687 -0.1020  0.0916
41764W        W84817   8.627  10.458   0.673 -0.0440 -0.3155  0.0640
41765W        W84818  16.027  12.716   6.751 -0.1026 -0.0947 -0.5215
41766W        W84819  33.148  15.267  20.143  0.2452  0.0780 -0.2730
41767W        W84820  11.591  13.066  23.129  0.1557  0.1352  0.0915
41768W        W84821  12.657  12.574  20.016  0.0254 -0.0697 -0.2039
41769W        W84822  13.847  14.032  16.099 -0.0644  0.1138 -0.2859
41770W        W84823   4.747   4.505  20.555  0.0267 -0.1062  0.1306
41771W        W84824  32.044  19.222  14.957  0.3930  0.0927 -0.2880
41772W        W84825  11.968  15.754   6.347  0.1018  0.2256 -0.5403
41773W        W84826  34.396  12.693  22.797  0.0578 -0.2152 -0.0087
41774W        W84827   3.649  18.071  23.973 -0.1465  0.3281  0.1897
41775W        W84828  26.658  15.443  26.540 -0.3205  0.4787 -0.0422
41776W        W84829  10.042   7.147  18.187  0.0916  0.3185 -0.0406
41777W        W84830  17.780  28.123  27.668 -0.0563  0.3989  0.0195
41778W        W84831   8.849  22.295  28.379 -0.3836 -0.0462  0.2582
41779W        W84832   3.666  14.557  27.579  0.3291  0.0867  0.2941
41780W        W84833  17.542  25.621  23.521  0.2071 -0.0404  0.2005
41781W        W84834  15.047   3.387   5.699 -0.0420 -0.0250 -0.0680
41782W        W84835  13.905  12.921  15.306 -0.0626  0.2558 -0.2141
41783W        W84836  12.176  18.593  18.852 -0.0020  0.2959 -0.2318
41784W        W84837  19.422   9.599  17.829  0.1995 -0.1066 -0.1895
41785W        W84838  30.092  27.129   4.754 -0.1739  0.3227 -0.4330
41786W        W84839  12.324  14.280  17.475  0.2023  0.0195  0.1833
41787W        W84840  22.120   8.400  23.938 -0.1307 -0.3002 -0.0134
41788W        W84841   1.398  13.881  18.732  0.4035  0.1022 -0.0804
41789W        W84842   1.391   8.690   5.973 -0.0560  0.0287  0.2217
41790W        W84843  13.012  15.380  20.269 -0.1454  0.1143 -0.0056
41791W        W84844   3.743  16.477  21.046 -0.0339  0.1540 -0.2089
41792W        W84845  29.517   0.447  24.726  0.3738 -0.2692  0.3908
41793W        W84846  27.414   4.414  21.418  0.0895 -0.1491  0.2771
41794W        W84847  21.871  20.410  17.143  0.4641 -0.0964  0.1539
41795W        W84848   0.416  29.807   3.143 -0.1973  0.0511  0.1730
41796W        W84849  14.584  26.392  22.168  0.2688 -0.1947 -0.1947
41797W        W84850   0.409  24.754   3.188  0.1214  0.2517  0.0131
41798W        W84851  12.327  21.437  13.803  0.0628 -0.2822  0.1461
41799W        W84852   8.996   8.558  22.708 -0.2745  0.5212  0.1385
41800W        W84853   5.868  20.074  24.418  0.0880 -0.0339  0.0504
41801W        W84854   5.332   2.701  16.746  0.1550 -0.2670 -0.1232
41802W        W84855  10.433  33.862  18.922 -0.0976 -0.2600  0.2184
41803W        W84856   4.593   8.971  25.501  0.0373  0.1550 -0.0128
41804W        W84857   2.375  11.725   7.950  0.1352 -0.2157 -0.1758
41805W        W84858  13.569  12.566  20.535 -0.0842 -0.1053 -0.2718
41806W        W84859   4.844   8.417  25.450  0.2498 -0.1984  0.1360
41807W        W84860  15.401   9.842  23.104 -0.0247  0.0217  0.0694
41808W        W84861  13.389   5.189   1.561  0.1189 -0.0622  0.2564
41809W        W84862  19.546  15.911  26.893  0.1442  0.2779  0.1935
41810W        W84863  16.772   6.126  17.078 -0.1432 -0.0810 -0.1625
41811W        W84864  24.683  16.869  19.268 -0.1935 -0.2773  0.0135
41812W        W84865   9.144  19.961  26.280 -0.3201 -0.1638  0.0631
41813W        W84866  17.114   9.116  19.078 -0.1946  0.1966  0.2404
41814W        W84867  24.284   5.546  23.270  0.3067 -0.0297 -0.0477
41815W        W84868  13.676  24.468  16.595 -0.2322 -0.2666 -0.1124
41816W        W84869  34.563  16.826  21.158  0.1427  0.1567 -0.2108
41817W        W84870  12.252  32.717   2.945  0.1623 -0.0726  0.0722
41818W        W84871  21.946  34.180  21.759 -0.1632  0.0033  0.0679
41819W        W84872   6.252  11.304  14.755 -0.0375  0.2570 -0.1076
41820W        W84873  10.641   8.138   0.552 -0.2487 -0.1657  0.0803
41821W        W84874  24.016  21.859  21.611  0.1554 -0.1076  0.1612
41822W        W84875  11.917  20.102  14.973 -0.0926 -0.0752  0.1262
41823W        W84876   5.443  29.327  25.450  0.2173  0.3419  0.1251
41824W        W84877  11.683   6.862  19.496 -0.0137  0.0403 -0.0037
41825W        W84878  24.779  16.568  22.717  0.0171  0.1396 -0.0083
41826W        W84879   9.124   8.311  23.692  0.0984 -0.2490  0.0881
41827W        W84880  27.822  10.187  27.786  0.2232 -0.2589 -0.6008
41828W        W84881  33.635  22.391  17.239  0.1050  0.3680  0.1710
41829W        W84882   2.064  10.879  18.524  0.0741 -0.1223 -0.0418
41830W        W84883  19.812  11.643   6.909  0.0651 -0.0593 -0.3899
41831W        W84884  24.790   9.280   1.758  0.2323  0.1344  0.0981
41832W        W84885  16.114   7.850  27.509  0.1798 -0.1493 -0.0877
41833W        W84886  16.079  34.195  28.744 -0.2761 -0.2412  0.3666
41834W        W84887  25.744  20.269  27.458 -0.1034  0.2380 -0.2457
41835W        W84888   7.174  19.183  28.945  0.0526 -0.0577  0.1998
41836W        W84889  11.140  11.098  21.938  0.1223  0.2941 -0.4753
41837W        W84890   7.443  22.485  14.145 -0.0946 -0.0614 -0.2474
41838W        W84891  34.332   3.338   4.969 -0.0761  0.0504  0.3959
41839W        W84892   8.745  16.375  17.910 -0.0204 -0.0461  0.0578
41840W        W84893   2.726  19.657  19.799 -0.3360 -0.2395 -0.0534
41841W        W84894   4.107  17.982   1.178  0.3040  0.1510  0.2635
41842W        W84895   4.491  14.993  22.816 -0.2748 -0.1958 -0.3273
41843W        W84896  11.146   8.161   0.509  0.2464  0.2598  0.2477
41844W        W84897  28.922  21.843   0.137 -0.0327  0.3917  0.2304
41845W        W84898   3.567  10.484  20.936  0.0923 -0.2848  0.0890
41846W        W84899   1.841  14.270  13.753  0.2242 -0.0584 -0.1942
41847W        W84900  13.063   1.126  17.557  0.2144  0.2067  0.0040
41848W        W84901  33.844   8.236  25.582 -0.4049  0.1226 -0.0435
41849W        W84902   8.118  21.143  17.170  0.1203 -0.1171  0.1502
41850W        W84903  16.323  31.319  18.697  0.0402 -0.1460 -0.0980
41851W        W84904  10.504   0.346  21.463  0.2070  0.3547 -0.3244
41852W        W84905  12.319  12.773  10.389 -0.2721  0.1693  0.1267
41853W        W84906  14.528  14.872   5.991  0.0438 -0.1291 -0.1536
41854W        W84907   1.684  15.475   0.164  0.0652 -0.0060 -0.0460
41855W        W84908   5.046  12.311   4.164  0.2943 -0.0033 -0.0224
41856W        W84909   8.402  14.035  26.764 -0.2031  0.0715  0.0781
41857W        W84910  10.290  19.709  18.257  0.2617 -0.0428  0.0175
41858W        W84911  11.724  23.589  21.949  0.1471 -0.0586 -0.0671
41859W        W84912  15.413  28.255  17.117  0.1305  0.1430 -0.1323
41860W        W84913  13.954  12.779  25.907 -0.1463 -0.0727 -0.3346
41861W        W84914   8.495  14.732  25.829  0.2204  0.1150 -0.2605
41862W        W84915  12.615   8.383  15.238  0.2887 -0.0494  0.0880
41863W        W84916   8.944  16.441  19.993  0.1724 -0.1723  0.0376
41864W        W84917  14.309  29.064   5.729  0.0299 -0.1490  0.0433
41865W        W84918   1.143  21.420  18.906  0.0968 -0.0305 -0.1072
41866W        W84919  15.513   9.866  14.984  0.2197 -0.0031 -0.2095
41867W        W84920  26.901  19.290   5.522 -0.0873  0.0825  0.1364
41868W        W84921  17.732   3.538  23.363  0.0411 -0.0933  0.0351
41869W        W84922   2.356   8.301  15.484 -0.1735 -0.2934  0.1299
41870W        W84923  25.780  12.777   2.778 -0.2867  0.5076  0.3208
41871W        W84924   2.107  11.748  22.825 -0.0957  0.3457  0.1784
41872W        W84925  11.460   2.460  18.185  0.2097 -0.0534  0.0150
41873W        W84926   8.725  17.828  24.047 -0.1253 -0.0621 -0.0102
41874W        W84927  12.221  32.808  17.190 -0.1129 -0.0872  0.0293
41875W        W84928  11.967  12.748  27.772  0.2814 -0.0318  0.2469
41876W        W84929   9.724   9.111  25.152 -0.0860  0.0558  0.0404
41877W        W84930   7.753  33.539  20.443  0.1947  0.4275  0.2428
41878W        W84931   1.669   0.690   0.182  0.1403  0.0391  0.0422
41879W        W84932   9.780   5.846  20.523 -0.2098  0.0955  0.0266
41880W        W84933   3.594  20.612  26.885 -0.1016 -0.3816 -0.1889
41881W        W84934  28.263  33.276   4.644 -0.0797  0.0311  0.0208
41882W        W84935  11.453  10.895  16.676  0.1124 -0.0136 -0.0940
41883W        W84936  11.640   6.937  23.199 -0.0145  0.2946  0.0458
41884W        W84937   2.376  20.977  23.482  0.3114 -0.0250  0.1266
41885W        W84938  33.982  15.815  22.503  0.0522 -0.4104 -0.1399
41886W        W84939  17.801  10.637  20.228  0.0251 -0.0490 -0.3392
41887W        W84940   9.403  15.675  25.049  0.1259  0.1974 -0.1130
41888W        W84941   8.622   5.918  15.921 -0.4079  0.3919 -0.1206
41889W        W84942  20.216  14.901  14.453 -0.1185  0.0364  0.2370
41890W        W84943   3.745  16.587  25.322 -0.0121  0.0134  0.2756
41891W        W84944   5.359  18.154   1.589  0.0578 -0.0073  0.1975
41892W        W84945   3.736  16.582   3.103  0.1876  0.1086  0.0983
41893W        W84946  32.253   0.674  21.672  0.0471 -0.1039 -0.1867
41894W        W84947   1.037   9.539  15.244  0.0543  0.1971 -0.2338
41895W        W84948  10.210  20.418  26.194 -0.1428  0.0254  0.2496
41896W        W84949   9.699  25.444  24.540  0.2479 -0.0943 -0.2491
41897W        W84950   7.765   7.645   1.626  0.1872 -0.0343  0.0723
41898W        W84951   2.477  20.673  17.950 -0.1585 -0.1999 -0.4739
41899W        W84952  29.124  16.420  19.968  0.1575  0.2294  0.2317
41900W        W84953  10.279  25.506  28.520  0.1233  0.1057  0.1553
41901W        W84954   4.246   0.003  13.198 -0.2647 -0.1918 -0.1869
41902W        W84955   8.190  12.725  27.464 -0.2638  0.0396  0.0096
41903W        W84956  17.396  21.084  10.182 -0.1018 -0.1903  0.2085
41904W        W84957   9.378   5.175  27.431 -0.2425  0.0557  0.1243
41905W        W84958   6.935  20.888  24.581  0.2719  0.1943 -0.2993
41906W        W84959  34.156  13.550   1.419 -0.0494  0.1462 -0.2013
41907W        W84960  11.811  18.344  16.561  0.3252  0.2385 -0.1054
41908W        W84961   7.453  13.990  15.876  0.1968  0.2848  0.3496
41909W        W84962  15.222   0.218  21.722  0.0504  0.1962 -0.0388
41910W        W84963  18.388  27.433  20.363  0.2294 -0.2958  0.0871
41911W        W84964  29.778  17.703  23.049  0.0802 -0.0456  0.1339
41912W        W84965   8.098   8.292  19.160 -0.0373  0.0569  0.0242
41913W        W84966   6.074  18.038   1.243 -0.1055 -0.1777 -0.2147
41914W        W84967  11.723  19.895  21.047 -0.2782  0.1474  0.3648
41915W        W84968  14.619   3.915  16.450 -0.2660 -0.5201 -0.0282
41916W        W84969   7.499  25.248  28.719  0.3428  0.0372  0.1688
41917W        W84970  26.147   6.738  22.447  0.0103  0.2760  0.1557
41918W        W84971   1.191  17.542  14.280 -0.0481  0.2622  0.2215
41919W        W84972  19.439   5.027  29.116 -0.0029 -0.0653 -0.0996
41920W        W84973   7.182  10.976  20.352 -0.1219 -0.1750  0.0544
41921W        W84974   6.500  14.777  18.145  0.2219  0.3452 -0.0899
41922W        W84975   9.428   1.054  18.797 -0.3244  0.2354 -0.0812
41923W        W84976   9.121  17.667  17.580  0.1850  0.1561 -0.0365
41924W        W84977  23.297  15.331  17.276  0.0016 -0.1937 -0.2567
41925W        W84978   6.465  30.460  19.231 -0.0147 -0.1723 -0.2533
41926W        W84979  10.682  16.648  17.340  0.1997  0.2437  0.0440
41927W        W84980  14.614  31.566   3.925  0.4829  0.0659 -0.0056
41928W        W84981  20.242  11.041  19.404 -0.1029 -0.0779 -0.3215
41929W        W84982  26.846  30.693  16.883 -0.0278  0.0069 -0.4817
41930W        W84983   6.324  20.356  24.272 -0.0801 -0.3740 -0.1669
41931W        W84984  20.385  18.768  21.824 -0.0020  0.0831 -0.1463
41932W        W84985   6.138   8.926   7.652  0.2055 -0.0085  0.0452
41933W        W84986   6.971  31.003  16.183 -0.3802 -0.1241  0.1592
41934W        W84987  31.595  12.260  24.591  0.2806 -0.1759  0.1409
41935W        W84988  18.142  12.095  22.280 -0.3304  0.3076  0.1773
41936W        W84989   6.075   4.806  17.975 -0.4018 -0.3477  0.0032
41937W        W84990   8.629  21.394  21.384  0.0585  0.0982 -0.0687
41938W        W84991   4.734   4.860  14.489 -0.2594  0.3022  0.0710
41939W        W84992  29.531   1.095   4.312  0.1700  0.3125  0.0723
41940W        W84993  10.483  12.717  28.231  0.5021 -0.0502 -0.0731
41941W        W84994  15.671  16.071  26.881 -0.2082 -0.0774 -0.0776
41942W        W84995  14.207   1.287  25.627 -0.1170 -0.1045  0.1972
41943W        W84996   4.255  23.586  19.260 -0.3739 -0.0929 -0.2061
41944W        W84997  24.266  15.209  19.934  0.3365 -0.0617 -0.2462
41945W        W84998   0.718  22.363   9.895 -0.0486 -0.0704  0.0463
41946W        W84999  24.094   3.028  17.805 -0.1174 -0.0366  0.4322
41947W        W85000   0.499  21.153  17.054 -0.1033  0.0217  0.2643
41948W        W85001  15.141  32.800   4.639 -0.0445 -0.3049 -0.5266
41949W        W85002  34.186   1.233   1.441  0.2039  0.3862 -0.0934
41950W        W85003   9.346   2.816  29.102 -0.1053 -0.0786 -0.2127
41951W        W85004   4.157  12.273  28.641  0.1743 -0.1615 -0.0144
41952W        W85005   3.234  13.167  27.247  0.0691  0.1207  0.1022
41953W        W85006  11.842   6.304  17.680  0.2052 -0.1346 -0.1375
41954W        W85007  30.872   5.168   1.670  0.1600  0.1382  0.3455
41955W        W85008  22.049  11.825  26.762 -0.3190 -0.0514  0.2093
41956W        W85009   4.031  17.400  13.709  0.0816 -0.0179 -0.0251
41957W        W85010   2.710  28.048  16.516  0.0214 -0.3350  0.1644
41958W        W85011   4.355   4.992  14.800  0.0938 -0.0122 -0.1123
41959W        W85012   9.627   0.552  22.842  0.0281 -0.0425  0.3155
41960W        W85013  30.288  11.018  24.029 -0.0418 -0.0564  0.1418
41961W        W85014  34.417  14.552  16.778 -0.1603 -0.4567 -0.2410
41962W        W85015   3.429  23.564  27.040  0.0591  0.1568 -0.0735
41963W        W85016  13.015   4.313  26.093 -0.1801 -0.1199 -0.2270
41964W        W85017   4.006  18.724  17.735  0.2269 -0.0174 -0.2029
41965W        W85018  28.988  15.309  16.044  0.3830 -0.0066  0.0628
41966W        W85019  17.057  25.391  21.616 -0.2470 -0.0956  0.1038
41967W        W85020  12.210  25.574  25.678  0.2031  0.2479  0.1251
41968W        W85021   0.575  11.398   4.774 -0.2035 -0.2720  0.0096
41969W        W85022  27.646  18.958  19.054  0.2624 -0.3113 -0.0148
41970W        W85023  28.028   5.150  17.561 -0.1011  0.2139  0.0169
41971W        W85024  18.889   4.634  20.887 -0.1311  0.1390  0.0655
41972W        W85025   4.762  19.938   6.830  0.0885  0.2201  0.0840
41973W        W85026   2.804  19.686  29.183 -0.3384 -0.0978 -0.0582
41974W        W85027  20.823  10.195  15.915 -0.0227  0.1198  0.1355
41975W        W85028   4.814  19.786   1.857  0.2592 -0.1057 -0.0794
41976W        W85029  12.634  28.620  24.264 -0.3894  0.0349 -0.1679
41977W        W85030  31.317  15.571  19.906  0.1538 -0.2728  0.2059
41978W        W85031  10.602   9.048   9.761  0.1466  0.0967  0.0715
41979W        W85032   1.140  25.586  17.605 -0.1444 -0.0792 -0.3074
41980W        W85033  16.994  28.358  17.721  0.1457  0.4321  0.1608
41981W        W85034  25.255  19.420  18.485  0.3145 -0.0566 -0.0616
41982W        W85035  28.124  21.820   0.994 -0.1492  0.2068 -0.0674
41983W        W85036   3.508  10.155   6.454  0.2292 -0.1398  0.2767
41984W        W85037   0.582  15.916  24.857  0.1130 -0.1305  0.1457
41985W        W85038   4.440   7.897  16.153  0.2595  0.2119 -0.1583
41986W        W85039  17.026   4.423  25.041 -0.2074 -0.0540 -0.1186
41987W        W85040  19.549  23.937  18.729  0.3037 -0.1176  0.0260
41988W        W85041  22.148  30.261  17.339  0.1877 -0.2983  0.3486
41989W        W85042  10.199   6.037  20.269 -0.2160 -0.3292  0.0343
41990W        W85043   5.542  15.484   2.064  0.2109  0.5248 -0.1304
41991W        W85044   8.873  14.775  22.597 -0.1601  0.0175 -0.2268
41992W        W85045   3.825  13.523   1.448  0.3206  0.2225 -0.2057
41993W        W85046  20.105  12.477  19.484  0.0815  0.1541 -0.0853
41994W        W85047  14.947  27.845   7.559 -0.3026  0.0238 -0.0251
41995W        W85048  33.353  20.400  28.379  0.2369  0.1216 -0.0357
41996W        W85049   1.642  24.146  20.007 -0.0289 -0.0256  0.2225
41997W        W85050  21.695  33.305  18.472 -0.2299 -0.0661 -0.3887
41998W        W85051  10.825   9.737  24.710  0.1630 -0.3445 -0.0066
41999W        W85052   0.120   5.732   5.829 -0.3523 -0.0128 -0.3757
42000W        W85053  23.554  18.399   3.175  0.1802  0.2196  0.1862
42001W        W85054  31.233  15.928   4.413 -0.0610 -0.2222  0.0777
42002W        W85055   4.243   4.613  26.917  0.1864 -0.2823 -0.1955
42003W        W85056  14.918   7.375   5.829  0.0812 -0.2219  0.3154
42004W        W85057  25.353  17.625  28.669  0.5259 -0.3094  0.2763
42005W        W85058   5.054   0.648   7.521  0.1203 -0.1343  0.0305
42006W        W85059  13.082   7.234  17.769 -0.0763  0.2970 -0.2890
42007W        W85060  33.917   6.357  19.224  0.0906  0.0477  0.1477
42008W        W85061  13.403   8.050   9.580  0.1213 -0.1431 -0.0912
42009W        W85062  15.954   0.788   4.508  0.0060  0.0472  0.0053
42010W        W85063  14.939  12.293  24.739  0.1586 -0.2115  0.3541
42011W        W85064   0.631  12.727   1.239  0.1079 -0.1975 -0.0257
42012W        W85065  13.153  13.197   4.010  0.1691 -0.0894  0.0427
42013W        W85066  31.807   9.487  23.916  0.0718  0.2802 -0.0825
42014W        W85067   1.111  13.742  27.552  0.1574  0.1253  0.0525
42015W        W85068  12.810  26.813   4.001  0.2198 -0.1658  0.0586
42016W        W85069  15.279  28.059  19.227  0.0377  0.0445 -0.1718
42017W        W85070  11.435  12.388   5.648 -0.1165  0.2588 -0.1896
42018W        W85071   1.876  23.518  27.123  0.1652 -0.0056  0.0789
42019W        W85072   0.104   1.918  23.112 -0.1086 -0.0838  0.2525
42020W        W85073   9.999  26.078  23.658 -0.0159 -0.4240 -0.1944
42021W        W85074  32.185  20.904  23.308 -0.2890 -0.2464  0.1682
42022W        W85075  11.325   6.343  28.386 -0.2495  0.2342 -0.0901
42023W        W85076  19.375  21.416  20.404  0.2278 -0.5381 -0.3755
42024W        W85077   1.651   7.590   8.856 -0.3591 -0.3354  0.0549
42025W        W85078  34.459  34.573  20.588  0.1447  0.0955  0.0294
42026W        W85079   3.571   1.425   4.408  0.3789  0.3811  0.0184
42027W        W85080  16.295  24.851  21.814 -0.0446  0.1410 -0.2655
42028W        W85081  32.756  16.366  25.658  0.1886  0.1089  0.0346
42029W        W85082  14.348  10.215  21.952 -0.0010 -0.0089 -0.1705
42030W        W85083   0.337  32.797   5.828  0.1499  0.4353  0.2195
42031W        W85084  13.315  28.222  20.285 -0.2386  0.1036  0.2246
42032W        W85085  14.122  19.927  22.909 -0.2056 -0.0820  0.1702
42033W        W85086  13.410   9.045  21.345  0.0366 -0.0965  0.1301
42034W        W85087   2.340  12.845  25.205 -0.1362  0.3550 -0.0573
42035W        W85088   2.466  15.284  22.671 -0.1594  0.2045 -0.0821
42036W        W85089  17.979  11.352  24.420  0.3947  0.3086  0.6650
42037W        W85090   6.914   3.274  24.785 -0.3158 -0.1322  0.1865
42038W        W85091  28.511  30.058  17.659 -0.4123  0.0127  0.0088
42039W        W85092  14.629   9.934  20.471  0.1507 -0.1194 -0.0858
42040W        W85093  11.056  28.073  26.512  0.0642  0.0801 -0.2567
42041W        W85094   0.083   2.164   8.911 -0.4283 -0.1306  0.0448
42042W        W85095   1.789   3.291  21.318  0.3503  0.3196  0.1871
42043W        W85096  25.301   1.220  25.329 -0.3415 -0.1502  0.0161
42044W        W85097   6.453  18.957  19.448 -0.1979  0.0961 -0.2885
42045W        W85098  25.367  31.909   0.619 -0.0565  0.0268 -0.1704
42046W        W85099  18.195  12.400  23.046  0.1855  0.0110 -0.3277
42047W        W85100  20.044  25.013   5.026  0.1099 -0.0527  0.0456
42048W        W85101   6.115   6.672  17.356 -0.1314  0.0122  0.1325
42049W        W85102   1.930   9.507  25.215  0.1021  0.0507  0.1440
42050W        W85103  11.836  30.351  23.493 -0.3125  0.4270  0.2187
42051W        W85104  13.488  18.649  19.410  0.2354  0.2762 -0.0641
42052W        W85105  10.936  23.254   1.040  0.1436 -0.0224 -0.1153
42053W        W85106   4.869   5.269   2.952  0.0514 -0.1190 -0.1663
42054W        W85107  14.234  19.861  18.359  0.1261 -0.1813  0.1812
42055W        W85108  24.448  26.483  16.176  0.0202 -0.0032  0.1420
42056W        W85109  14.269  23.469  28.862 -0.0204 -0.2394  0.0621
42057W        W85110  13.099  32.149   5.412 -0.0619  0.0051  0.0080
42058W        W85111  19.080   9.517   1.741 -0.0135 -0.2033 -0.0282
42059W        W85112   5.620   7.087   9.222  0.2674 -0.0656  0.2531
42060W        W85113   3.572  23.654   4.591  0.0889 -0.2601 -0.2079
42061W        W85114  25.074   8.732  28.741 -0.4028 -0.0805  0.3027
42062W        W85115   8.467  13.406   1.946 -0.2770  0.0828  0.3130
42063W        W85116   4.828   8.033   7.527  0.4237  0.0198  0.1553
42064W        W85117   3.594  18.716  16.818 -0.3649 -0.0925  0.4417
42065W        W85118  11.787  10.711  28.783  0.1126  0.1990  0.1949
42066W        W85119   8.457  34.303   3.502  0.1584 -0.0313 -0.1696
42067W        W85120  22.119  11.193  19.221 -0.1935 -0.0276 -0.0346
42068W        W85121   6.246  10.079  21.874  0.4363  0.0560  0.1014
42069W        W85122  14.178  15.924  25.611 -0.2285 -0.0461 -0.1570
42070W        W85123  15.353   2.845   2.004 -0.0297 -0.2901 -0.2920
42071W        W85124   0.872  12.520  28.739 -0.0147  0.1233 -0.2210
42072W        W85125  20.345  11.550  21.950 -0.0477 -0.0703 -0.1476
42073W        W85126  20.589  14.055   4.670  0.0009 -0.3619 -0.1999
42074W        W85127   4.767   6.997  23.116  0.0538 -0.0431 -0.1293
42075W        W85128  20.825  16.183  27.914  0.0519 -0.1431  0.3244
42076W        W85129  31.763   6.961  27.417  0.0340 -0.1096 -0.1834
42077W        W85130  30.214   8.756   6.432  0.0207 -0.0518 -0.0625
42078W        W85131  21.718   8.234  28.528  0.3101 -0.0717 -0.1562
42079W        W85132  28.440  20.620   8.242 -0.1791 -0.0431 -0.1007
42080W        W85133  32.381  33.579  28.003 -0.2802  0.1356  0.0970
42081W        W85134  13.801   8.149   4.023 -0.2429  0.0669  0.1333
42082W        W85135   2.262   1.071   1.316  0.0481 -0.0746  0.1707
42083W        W85136   9.897   6.260   1.812  0.2560  0.3038 -0.0298
42084W        W85137  13.403   6.837   2.316  0.4393 -0.1288 -0.0252
42085W        W85138  10.395   2.592  18.556 -0.2089 -0.2494 -0.0358
42086W        W85139   0.592   9.637   7.082 -0.1391 -0.2446  0.2762
42087W        W85140  11.327  12.105   8.645  0.0879  0.3354  0.1677
42088W        W85141   3.048   5.386  21.818  0.1513  0.0478 -0.4559
42089W        W85142  28.243  19.373   0.904 -0.2386 -0.2830 -0.3362
42090W        W85143   8.764  28.647  25.572  0.0216 -0.0743  0.0289
42091W        W85144  19.390  10.226   4.940 -0.4282 -0.1822  0.1185
42092W        W85145  33.720  34.032  20.507  0.2117  0.3684  0.1340
42093W        W85146   0.117  11.105  23.023 -0.0139 -0.0873  0.3239
42094W        W85147   8.591  27.013  13.707 -0.2123 -0.1323 -0.1272
42095W        W85148   3.857   5.031  27.025  0.0712  0.0255  0.1063
42096W        W85149   7.099  16.387  16.730 -0.1048  0.2373  0.0024
42097W        W85150  16.494   4.189   4.217 -0.0456  0.1830 -0.0316
42098W        W85151  29.077   3.489   1.524  0.0952  0.2140 -0.0388
42099W        W85152  21.336  25.843  23.496 -0.2886 -0.2436  0.0552
42100W        W85153  14.206  30.085  23.052 -0.0277  0.0614  0.0519
42101W        W85154  24.850   5.933  27.262 -0.0694 -0.4011 -0.2239
42102W        W85155  18.362  12.854  17.594  0.0234  0.0807 -0.0504
42103W        W85156  16.354  30.325  26.903 -0.0290  0.0659  0.4874
42104W        W85157   7.662  18.816  24.009  0.0790  0.3423 -0.0149
42105W        W85158   9.983  25.968  18.992  0.1418  0.2179  0.1613
42106W        W85159   4.361   1.956  26.276  0.0613 -0.1478 -0.3102
42107W        W85160  28.330  31.726  13.822 -0.2966 -0.1961  0.2112
42108W        W85161  30.272  14.366  24.720 -0.0325  0.4426  0.0010
42109W        W85162  21.066  21.449  17.513 -0.0858  0.1550  0.2568
42110W        W85163   8.980   5.200  23.034  0.0824 -0.0630 -0.0175
42111W        W85164   7.564  26.136   8.140  0.0817  0.0787  0.2869
42112W        W85165  12.995   4.738   4.652  0.1777 -0.2124  0.1742
42113W        W85166  27.464   1.412  25.634  0.1173  0.0822  0.1431
42114W        W85167   8.643  32.598  28.375 -0.1327 -0.1098 -0.0774
42115W        W85168  25.987   8.092  17.706 -0.0317 -0.0892  0.0432
42116W        W85169  31.804   9.625   6.279  0.3317  0.1483 -0.0078
42117W        W85170  23.071  17.512   2.955 -0.0949 -0.1300 -0.2641
42118W        W85171   3.690   4.494   6.688  0.2545 -0.0581  0.0751
42119W        W85172  13.620  16.733  23.007  0.0692 -0.0452 -0.1408
42120W        W85173   6.378  14.716   2.620  0.0556 -0.3877 -0.2844
42121W        W85174  10.363   1.962  25.837  0.0428 -0.2842 -0.3201
42122W        W85175   7.832  24.195   3.801 -0.1085  0.1657  0.1893
42123W        W85176  17.393  19.760   6.969 -0.0588 -0.0698  0.4575
42124W        W85177   9.263  34.097   1.937  0.3046  0.1875  0.2265
42125W        W85178  21.200   7.856   4.496  0.1143  0.3227 -0.1248
42126W        W85179   5.726  20.091   1.538  0.1506  0.3530 -0.0331
42127W        W85180   0.758  26.447   7.257 -0.1735  0.1365  0.2151
42128W        W85181  25.988   0.907  24.957  0.2785  0.0622 -0.1668
42129W        W85182   3.749  22.767   8.612  0.0147  0.0017 -0.0689
42130W        W85183  13.162  27.204  19.537  0.1056 -0.0909  0.0353
42131W        W85184  12.119   8.816   7.207  0.2855  0.2574  0.0604
42132W        W85185   9.998  23.520  20.634  0.1950 -0.3141  0.1021
42133W        W85186  15.950   4.643  23.684 -0.0102  0.4059 -0.1139
42134W        W85187  13.094  12.593  10.742  0.1666  0.0316 -0.2517
42135W        W85188   0.203   8.317  14.170  0.1484  0.0251 -0.0138
42136W        W85189  20.069  26.965  15.366  0.2495 -0.0501 -0.1945
42137W        W85190  24.936   6.577  16.787  0.1625  0.1585  0.0503
42138W        W85191  33.484  32.011  21.840 -0.0552  0.3330 -0.1415
42139W        W85192  16.258   5.512   3.922  0.1995  0.1241 -0.0466
42140W        W85193  24.705   9.686  27.683 -0.3065 -0.1557 -0.1590
42141W        W85194  11.719  10.821  23.269 -0.1398  0.2911  0.2651
42142W        W85195  34.170  14.000  24.691 -0.2448  0.1080  0.0359
42143W        W85196  20.899  16.092  14.835 -0.1829  0.2358  0.0807
42144W        W85197  13.014   4.583  14.481  0.0688 -0.0047 -0.0551
42145W        W85198   0.183   3.830  26.015 -0.4129  0.5497 -0.0549
42146W        W85199  32.827  15.286  27.463  0.0311 -0.2858  0.3882
42147W        W85200  32.923  29.680   4.189  0.1390  0.1282  0.0678
42148W        W85201   1.840  18.799  19.122 -0.2240 -0.1318 -0.0441
42149W        W85202   7.162   6.233  24.299 -0.3329 -0.0539 -0.3354
42150W        W85203   1.305  31.390  16.061  0.1359  0.2223  0.0897
42151W        W85204   6.103  14.337  24.067  0.1250  0.0882 -0.2164
42152W        W85205   1.498  15.771   2.905 -0.0130 -0.0066  0.2573
42153W        W85206  18.103   3.283  15.664 -0.0547  0.2006 -0.0238
42154W        W85207   8.149   4.041  20.509  0.0510  0.1464 -0.2263
42155W        W85208  14.374  21.656  20.167  0.0179 -0.1023 -0.1123
42156W        W85209   0.567   7.317   3.453 -0.0815 -0.0666  0.2106
42157W        W85210   6.108  11.217  17.356 -0.3823  0.0596  0.1371
42158W        W85211  19.071  27.023   1.949  0.1000 -0.1724  0.0092
42159W        W85212  15.129  17.156   6.399  0.1782 -0.2172  0.1541
42160W        W85213   9.018  18.148  18.765  0.2040 -0.0663 -0.0325
42161W        W85214   6.694  17.921  19.920  0.0266  0.1396  0.0466
42162W        W85215   0.151  11.324  23.839  0.0305  0.1952  0.1040
42163W        W85216   8.371  13.575  24.337  0.0970 -0.1295  0.4174
42164W        W85217  14.432  33.347  26.071  0.2333 -0.3643  0.1297
42165W        W85218  21.018   8.830  17.178 -0.3038  0.1738 -0.1702
42166W        W85219  18.215  34.555   3.962 -0.0055  0.1969  0.1544
42167W        W85220  32.991   9.015  27.633  0.1281 -0.0912 -0.3131
42168W        W85221   8.629  31.456  24.033  0.0271  0.2259  0.0471
42169W        W85222  13.460  10.359  25.218  0.0141 -0.0736  0.1708
42170W        W85223  33.214  13.698   4.153  0.1812  0.0475  0.0344
42171W        W85224  29.700  26.185  15.449 -0.2069  0.0734  0.3008
42172W        W85225   1.029  10.841   3.249 -0.0711 -0.2564  0.1285
42173W        W85226   3.846  20.941  22.978 -0.0864 -0.0966 -0.1698
42174W        W85227   9.353   6.855  24.211 -0.0645 -0.1215  0.0948
42175W        W85228   6.891  10.483  23.360  0.0730  0.0540  0.0344
42176W        W85229   4.726  23.248   5.608 -0.0169 -0.1667  0.2829
42177W        W85230  11.454  20.464   4.159 -0.1425 -0.0736  0.3260
42178W        W85231  34.599  20.780  25.003 -0.1488 -0.1004  0.1488
42179W        W85232   9.910   3.571   4.534 -0.1209  0.2410 -0.2117
42180W        W85233   1.109  13.125  21.332 -0.1737  0.0927  0.2011
42181W        W85234   2.813  12.113  27.190 -0.2617 -0.1537  0.2289
42182W        W85235   7.696   9.686   5.284  0.0299 -0.0456  0.0793
42183W        W85236  32.361  18.223  23.447  0.3420 -0.0903  0.4849
42184W        W85237  31.789  19.913  19.273  0.0252 -0.2156  0.2028
42185W        W85238  28.078  14.503   7.470 -0.3947 -0.0638 -0.1304
42186W        W85239  31.132  13.288  16.310  0.1948  0.3220 -0.1768
42187W        W85240  22.611  23.475  22.316 -0.1396  0.2163 -0.0593
42188W        W85241  25.288  13.627   3.017  0.1551  0.1822  0.0648
42189W        W85242  12.220   4.389   2.198 -0.1298 -0.1302  0.0020
42190W        W85243   4.018  24.552  14.476 -0.4395  0.0574 -0.2408
42191W        W85244  28.307  10.982  21.794 -0.0475 -0.2416 -0.0608
42192W        W85245   8.673  12.141   1.893 -0.0278  0.2851 -0.0622
42193W        W85246  20.239   2.298  26.421  0.0827  0.2159 -0.0875
42194W        W85247   5.769  13.308  27.774  0.1011 -0.2353 -0.0537
42195W        W85248  10.441  11.716   3.217  0.1217 -0.3393 -0.1035
42196W        W85249  21.075   8.582   9.666  0.2714  0.1562  0.2693
42197W        W85250   2.249   7.461   2.531  0.4721 -0.2626 -0.3341
42198W        W85251  26.237  16.765  16.908  0.1487  0.2017 -0.1206
42199W        W85252   6.087  13.543   6.321  0.1567 -0.2255 -0.0806
42200W        W85253  18.583   5.021  24.136  0.0682  0.0474  0.3008
42201W        W85254   3.730  12.028   9.228 -0.0289 -0.0580  0.2277
42202W        W85255   9.915  32.764  17.985 -0.3440 -0.1109 -0.2317
42203W        W85256  34.627   2.707   0.233  0.1487 -0.1639  0.3516
42204W        W85257  12.928   6.451  27.983 -0.0757 -0.0348  0.0081
42205W        W85258  32.974   6.328   2.951  0.1348  0.0873 -0.0574
42206W        W85259   4.308  23.450   5.879  0.0564  0.1076 -0.2685
42207W        W85260   4.227  23.378  14.820 -0.2643 -0.0043 -0.6701
42208W        W85261  30.080  10.121  18.942  0.0016  0.2693  0.2106
42209W        W85262   9.640   2.047  18.516  0.1359 -0.3571  0.2312
42210W        W85263   2.828  29.621  22.518 -0.2739  0.3849 -0.2306
42211W        W85264  33.819  29.457   4.337  0.3262 -0.1408  0.3474
42212W        W85265   0.290  22.471  27.516 -0.1977  0.1328  0.3812
42213W        W85266   7.731  11.311  23.297  0.0139 -0.2936 -0.0938
42214W        W85267  19.338   2.864   0.298  0.0129 -0.2881 -0.0451
42215W        W85268  11.067   6.793   9.912  0.4911  0.2929 -0.1445
42216W        W85269   4.076  13.188   7.167 -0.1843  0.4128 -0.0533
42217W        W85270   2.395  22.958  15.768 -0.1898  0.0489 -0.3453
42218W        W85271   3.031   9.092   4.460  0.2021  0.0082 -0.0477
42219W        W85272  27.674  24.144  25.674 -0.0863 -0.2396 -0.0483
42220W        W85273  13.285  33.420   3.739  0.2547  0.0497 -0.0757
42221W        W85274   0.270  23.300   8.234 -0.3168 -0.2235  0.2380
42222W        W85275   4.025  24.887  25.914  0.1322  0.3070 -0.1698
42223W        W85276  34.393  25.676  20.788  0.2623 -0.2274  0.1363
42224W        W85277  18.312  27.226  25.731 -0.0821  0.1663 -0.0395
42225W        W85278  11.488   2.566   5.741 -0.2880 -0.2473 -0.2255
42226W        W85279  33.544  17.281  27.000 -0.2006 -0.2000 -0.0859
42227W        W85280  26.008  10.300  27.701 -0.2957 -0.1460 -0.1702
42228W        W85281  33.538  17.195   1.587  0.0503  0.0640  0.1308
42229W        W85282  11.127   2.970  26.732  0.0108 -0.2825  0.1697
42230W        W85283   4.972  14.802  17.792 -0.0052  0.1878 -0.1077
42231W        W85284  22.580   9.017  18.759 -0.0157  0.0406 -0.0951
42232W        W85285  32.836   3.561  20.406  0.2754  0.2630  0.1793
42233W        W85286  13.950  31.931  21.342  0.1454 -0.2507  0.0492
42234W        W85287   1.475   4.572   3.804 -0.2225  0.1797 -0.1374
42235W        W85288  17.423  26.105  20.534 -0.0144  0.2355 -0.1307
42236W        W85289  10.876  18.693  27.124 -0.0743  0.2173 -0.0700
42237W        W85290   9.722  17.691   6.369  0.0179  0.1429  0.4418
42238W        W85291   6.358   5.465  17.488  0.0142 -0.0896  0.1879
42239W        W85292   4.864  11.038   4.978  0.1591 -0.0872 -0.0706
42240W        W85293  14.351   8.258  19.950 -0.1052  0.2661 -0.1382
42241W        W85294  21.398   9.922  20.091 -0.1862  0.0921  0.1550
42242W        W85295  29.484  10.011   4.392  0.0694 -0.0514 -0.1805
42243W        W85296  10.994  14.957  19.623  0.0953 -0.2085  0.1387
42244W        W85297  23.862   7.868  15.608  0.2314  0.2416 -0.1929
42245W        W85298   8.078  16.795  27.979 -0.0917 -0.0847 -0.4205
42246W        W85299   6.059  27.970   4.820 -0.1055  0.1185  0.2059
42247W        W85300  11.270  20.218  25.372 -0.3237  0.3251  0.0382
42248W        W85301  34.463   3.303   6.339  0.0263  0.0558  0.0947
42249W        W85302  11.977  26.958   1.821  0.2697 -0.1216 -0.0371
42250W        W85303   7.066  20.791  15.274  0.3887 -0.1703 -0.1082
42251W        W85304   5.575   7.896   6.366  0.3198  0.0289 -0.0585
42252W        W85305  24.604  14.519   9.259 -0.1458 -0.2113 -0.0031
42253W        W85306  34.476  29.642   0.048  0.1821  0.0743 -0.1934
42254W        W85307  21.406  19.027  23.602 -0.2399 -0.0537  0.0295
42255W        W85308   1.175  27.415  24.516 -0.0061  0.1362  0.4606
42256W        W85309  11.611  12.123   3.574 -0.3301 -0.1152  0.0051
42257W        W85310  21.457  13.319  15.579  0.2326 -0.1552  0.1420
42258W        W85311   9.075   4.390  26.602 -0.0112 -0.1691 -0.0669
42259W        W85312  31.346  11.389   3.814  0.1197  0.0136  0.0630
42260W        W85313  12.427   1.559   8.719  0.0035 -0.3474  0.0723
42261W        W85314   3.471  18.232  28.895 -0.2650  0.1831 -0.1434
42262W        W85315  22.681  27.554   5.681 -0.1112  0.5050  0.1781
42263W        W85316   8.161  16.714   0.773  0.3210  0.1859  0.4608
42264W        W85317  28.547  14.143  25.905 -0.1650  0.1691 -0.0851
42265W        W85318   2.069  15.031  15.564 -0.2695  0.0806  0.0938
42266W        W85319   8.478  10.857  18.592  0.2410 -0.1238  0.1673
42267W        W85320  12.350   9.195   7.924  0.0133 -0.1863  0.0926
42268W        W85321  11.252   6.858   6.142  0.0210  0.0971 -0.0375
42269W        W85322   8.807   0.853  28.184 -0.2636 -0.0009  0.2042
42270W        W85323  10.762   9.104   7.306  0.3584  0.0673 -0.0657
42271W        W85324  11.358  18.276  24.923 -0.1029  0.1070 -0.1311
42272W        W85325  24.768  14.480  19.683 -0.0354  0.0658  0.4457
42273W        W85326  32.329  12.161  18.918  0.1547 -0.3042 -0.1750
42274W        W85327  22.323   3.331  23.625  0.0911  0.2731  0.4165
42275W        W85328   8.350   7.967   7.563 -0.0411 -0.0298  0.0992
42276W        W85329  17.889   1.922   6.387 -0.0101 -0.2287 -0.1091
42277W        W85330  13.939   4.355  22.997 -0.1307  0.1680  0.1223
42278W        W85331  12.774   7.612  10.640  0.0604 -0.0389  0.0942
42279W        W85332  15.724   5.962  25.537 -0.1654  0.2424 -0.0852
42280W        W85333   9.707   0.897  17.246  0.1824 -0.4609 -0.2601
42281W        W85334  17.996  14.099   0.746 -0.0983 -0.3646  0.0191
42282W        W85335   3.056   4.780   9.558  0.1812  0.0895  0.0135
42283W        W85336   3.432   7.623  29.199  0.0197  0.1301  0.1250
42284W        W85337   5.483   0.245   7.721  0.2749  0.1648 -0.0448
42285W        W85338  11.036  19.180  25.860  0.0046  0.0098  0.0406
42286W        W85339   7.761   8.030  23.729 -0.1530  0.1002  0.0190
42287W        W85340  10.818  26.550  15.338 -0.2003 -0.3842  0.0899
42288W        W85341  14.959  18.373  22.638 -0.0796 -0.4408  0.2108
42289W        W85342  10.619  17.882  26.101 -0.0618 -0.3004  0.1423
42290W        W85343  15.306  23.332   9.170  0.0672  0.1446 -0.1794
42291W        W85344  16.650  25.478  16.850 -0.0192 -0.1077 -0.0991
42292W        W85345  30.470  15.952  24.301 -0.2723  0.2356 -0.2352
42293W        W85346  28.288  31.534   1.820  0.1239 -0.1711 -0.2310
42294W        W85347  32.551  32.241  27.301 -0.1529  0.3099 -0.2333
42295W        W85348  11.529  14.353   0.850  0.1693  0.3472 -0.2963
42296W        W85349   8.348  16.858   7.888 -0.2090  0.1827 -0.2697
42297W        W85350   3.169  19.470   1.732  0.0913 -0.0321 -0.3482
42298W        W85351  20.282  19.170   4.032 -0.1181 -0.0428 -0.1910
42299W        W85352   8.934  12.500  17.998 -0.5072 -0.0758 -0.3709
42300W        W85353   4.417  13.845  16.308 -0.2024  0.1462 -0.1540
42301W        W85354   7.612  22.729  20.076  0.2001  0.0172  0.1514
42302W        W85355  11.119   5.095   6.471  0.1629 -0.1127  0.1531
42303W        W85356  14.513   4.658   4.014 -0.3904  0.2175 -0.1748
42304W        W85357  20.056   5.946   6.908 -0.1411  0.0024  0.2531
42305W        W85358   2.061   2.344  28.248  0.0512  0.0112 -0.2497
42306W        W85359   6.183  33.690   2.933  0.1331  0.0905  0.1078
42307W        W85360  21.194   2.698  19.092  0.0757  0.0269 -0.0748
42308W        W85361  10.678  12.126  14.619 -0.2771 -0.0293  0.0569
42309W        W85362  13.302  16.571   7.591  0.1230  0.1907  0.3232
42310W        W85363   7.060  12.136   2.585  0.2417 -0.2782 -0.0710
42311W        W85364   0.646  15.822  20.462  0.0805 -0.1561 -0.0321
42312W        W85365  13.543  12.714   8.458 -0.0117  0.0438  0.1833
42313W        W85366  14.109   1.755   0.909 -0.1185 -0.2734  0.1711
42314W        W85367   7.180   9.016   8.707  0.3091 -0.2900 -0.0239
42315W        W85368   9.586  19.376  26.102 -0.0082 -0.1574  0.2013
42316W        W85369  12.578  25.119  27.248  0.1997 -0.0190 -0.2526
42317W        W85370  15.233   3.406   9.322 -0.1213 -0.1596 -0.2787
42318W        W85371  22.719  18.114  16.020 -0.0582  0.0743  0.2999
42319W        W85372  17.474  13.830  21.172 -0.0081  0.5054  0.0987
42320W        W85373   3.976  13.410  13.650  0.4952 -0.2650 -0.1326
42321W        W85374  11.122  16.895  22.752 -0.1606 -0.0275  0.1759
42322W        W85375   1.650  15.571  25.914  0.1138 -0.1456  0.0377
42323W        W85376  10.849  16.925  18.068 -0.2003  0.1553  0.3149
42324W        W85377  12.336  11.159  26.681  0.1455  0.1128  0.3560
42325W        W85378   7.820  14.790  15.671 -0.1388  0.0890  0.1112
42326W        W85379  28.806  24.301   3.787 -0.2223  0.1816  0.1072
42327W        W85380   7.408  22.917  21.700  0.1132  0.1746 -0.1848
42328W        W85381   3.844  12.589  23.049 -0.2329 -0.1946 -0.0043
42329W        W85382  16.532   8.833  20.447  0.0302  0.0619  0.0760
42330W        W85383  16.546   2.639  27.281  0.0373 -0.0753  0.1491
42331W        W85384   9.186  13.294   7.841  0.1299  0.0845  0.1343
42332W        W85385   1.034  14.704  25.399  0.1248 -0.5307  0.0267
42333W        W85386   6.436  13.122  19.978  0.0695  0.1410 -0.1515
42334W        W85387   5.471  30.855  13.193 -0.1898 -0.0744  0.1866
42335W        W85388   5.426  13.507   5.040 -0.1074  0.1256 -0.0818
42336W        W85389   7.032   6.968  20.244 -0.0340  0.0310 -0.0623
42337W        W85390   9.016   3.429  20.634 -0.0929  0.0485  0.0004
42338W        W85391  15.001  13.057  26.748 -0.0635 -0.4022 -0.4031
42339W        W85392   3.000  14.011  28.938  0.2606  0.1623 -0.2006
42340W        W85393   0.432  19.419   4.438  0.1273 -0.3656 -0.1441
42341W        W85394  22.251   7.073  21.397  0.0043  0.0498 -0.4486
42342W        W85395  11.362  16.316  25.649 -0.0314 -0.0399 -0.3548
42343W        W85396  16.387   4.430  24.135 -0.0042  0.1257 -0.1206
42344W        W85397  22.295  18.633  12.845 -0.0475 -0.1952  0.2224
42345W        W85398  11.240  22.142  20.101 -0.2078 -0.1206  0.0188
42346W        W85399  19.813  13.448   1.213  0.0592  0.1757 -0.0320
42347W        W85400  11.714   3.490  21.243  0.1118 -0.1191 -0.1569
42348W        W85401  14.862   7.762  24.944  0.2871 -0.0953  0.0463
42349W        W85402  13.490  15.764   6.259  0.0312  0.0916 -0.0562
42350W        W85403   7.973   6.285  22.384  0.2854  0.1347  0.0462
42351W        W85404   5.174  14.737   2.136  0.0911 -0.1714  0.3024
42352W        W85405  18.748   1.978  25.842  0.0229  0.1729  0.3181
42353W        W85406  15.377  13.331   3.284 -0.1061 -0.1555  0.0141
42354W        W85407  27.536   4.897   2.921 -0.1953 -0.1946 -0.2098
42355W        W85408   8.616  19.184   8.926 -0.0481  0.2874 -0.0039
42356W        W85409   4.401   5.908  24.438  0.0818  0.1437 -0.1121
42357W        W85410  10.480  14.404  16.500 -0.1504  0.2414 -0.1818
42358W        W85411  30.163  32.769  16.472  0.1250  0.2022  0.3709
42359W        W85412   6.239  14.712  18.837 -0.0725 -0.1357  0.4174
42360W        W85413  28.842   7.744   3.282  0.0042 -0.0470  0.0911
42361W        W85414  15.018  32.509  28.133  0.0736  0.2051 -0.1776
42362W        W85415  19.029   8.678   0.961 -0.1783 -0.3914 -0.0351
42363W        W85416  23.156  15.731  22.546  0.1994  0.0003 -0.0764
42364W        W85417  27.027   5.741  17.062  0.2448  0.3627 -0.0645
42365W        W85418   2.471  26.574   0.020  0.4431  0.2110  0.3324
42366W        W85419  20.983  13.064  26.947 -0.0674 -0.2786 -0.4412
42367W        W85420   5.346  12.136  19.781 -0.0084 -0.0292 -0.2863
42368W        W85421  27.010  13.546   4.522  0.0298 -0.1699 -0.0131
42369W        W85422   3.207   4.904   1.780  0.0659 -0.1056 -0.0879
42370W        W85423  33.014   4.654  28.638  0.3381 -0.0284  0.4086
42371W        W85424   6.909  18.001  20.453 -0.0424  0.1528 -0.2139
42372W        W85425   5.471  28.222  28.144  0.2662  0.2337 -0.0879
42373W        W85426   7.031  29.486   0.674  0.0032  0.0394  0.1679
42374W        W85427  23.277  19.586  13.878 -0.1505  0.3284 -0.1519
42375W        W85428  11.156  16.909   0.462 -0.1602  0.0252 -0.0671
42376W        W85429  29.657   6.539  17.611 -0.2106 -0.1310  0.0526
42377W        W85430  11.277   2.651   1.716  0.0520  0.2534 -0.0654
42378W        W85431   6.968   8.581  17.817  0.1238 -0.1911  0.1577
42379W        W85432   0.594   3.338   7.482 -0.0690 -0.0569  0.0661
42380W        W85433  30.656   1.555  21.082 -0.2139 -0.0199 -0.1515
42381W        W85434  15.874  16.145  19.971 -0.1213 -0.3479  0.0879
42382W        W85435  20.491  14.992   0.794  0.2995 -0.0092 -0.3592
42383W        W85436  13.033   7.803   4.011  0.1473  0.0201 -0.1012
42384W        W85437   5.572  14.153  24.178 -0.0076  0.1822  0.4583
42385W        W85438   4.192   7.610   9.626 -0.1877 -0.1083  0.3437
42386W        W85439   0.771   6.712  25.405 -0.1662  0.1793 -0.1302
42387W        W85440  29.517  15.008  25.464 -0.0478 -0.0330 -0.1478
42388W        W85441   4.991  13.794  25.788  0.0553 -0.1198  0.1755
42389W        W85442  34.337  29.911   1.148 -0.0440  0.1803  0.1552
42390W        W85443  14.560  17.020   9.404  0.0336 -0.0030 -0.2632
42391W        W85444   7.808  28.458  27.462  0.1242  0.1295  0.2406
42392W        W85445  18.461  14.243   7.392  0.4972 -0.0728  0.0714
42393W        W85446  22.718  33.324   1.455  0.0251  0.3812  0.1047
42394W        W85447  16.196  10.070  26.607  0.2745 -0.1277  0.1874
42395W        W85448   8.858   6.072  18.665 -0.1212 -0.3850  0.1206
42396W        W85449  30.502  20.877  26.156 -0.1554  0.0648 -0.0284
42397W        W85450  11.844  33.933   7.347  0.1462  0.1384  0.1362
42398W        W85451  22.970   5.091  25.734  0.1056 -0.1800  0.0913
42399W        W85452  26.672   7.512  22.345  0.3720 -0.1166  0.1243
42400W        W85453  17.578  30.163   1.034 -0.0198 -0.2435  0.2290
42401W        W85454   0.905   6.937   9.156 -0.1404  0.1063  0.2291
42402W        W85455  32.153   2.974   9.066 -0.0866 -0.0510  0.0539
42403W        W85456  17.351  17.377  27.806  0.1649  0.1419  0.1282
42404W        W85457   6.145  20.448   3.324 -0.1233 -0.2272  0.2085
42405W        W85458  17.824  34.687  15.701 -0.0912  0.1440  0.0641
42406W        W85459  34.366   9.239   6.207  0.0956 -0.1301  0.2695
42407W        W85460  21.991  21.908  16.401 -0.1182 -0.2823 -0.4008
42408W        W85461   1.558   9.600  21.065  0.0825  0.1652 -0.0097
42409W        W85462  12.395   9.103  28.014 -0.4307 -0.0319  0.0962
42410W        W85463  28.500   8.016  28.115 -0.3306  0.0258  0.0862
42411W        W85464  25.998  17.478  18.872 -0.1825  0.2843  0.0887
42412W        W85465   0.544  29.215  25.381 -0.1424  0.0369 -0.3686
42413W        W85466  12.282   4.000   5.074 -0.0752  0.1893  0.0936
42414W        W85467   5.173  21.309  16.729 -0.0703  0.1608 -0.2256
42415W        W85468  21.977   4.271  17.859 -0.1732 -0.0496  0.3086
42416W        W85469  34.355  13.002   7.272 -0.0435  0.1101  0.0793
42417W        W85470  30.093  25.590  22.636 -0.1160 -0.1003 -0.0704
42418W        W85471  12.484   0.033   6.802  0.1895 -0.0246 -0.0411
42419W        W85472  30.452  10.545   5.116  0.0355 -0.1928 -0.0440
42420W        W85473   2.850  11.662   6.732  0.0541 -0.1166  0.1095
42421W        W85474   9.555  13.579   6.930  0.0287 -0.1432  0.3644
42422W        W85475   6.387  34.401   9.952 -0.0787 -0.1771 -0.0546
42423W        W85476  34.671  13.693   1.513  0.1030  0.0497  0.0551
42424W        W85477  17.392   4.182   1.675  0.0934 -0.3064  0.0642
42425W        W85478  13.341  21.895  22.452  0.0521  0.1615  0.1113
42426W        W85479   7.459  14.169  18.343  0.3887 -0.1320  0.0874
42427W        W85480  14.208   0.415   7.582 -0.0199 -0.1551 -0.0133
42428W        W85481  15.385  11.106  25.849 -0.1145  0.2618 -0.0725
42429W        W85482   2.765  10.019  18.642 -0.4460 -0.1118 -0.4085
42430W        W85483  17.665  14.488   9.837  0.0778 -0.0719 -0.0883
42431W        W85484  26.315  18.394  15.088  0.0618 -0.1192 -0.3611
42432W        W85485   8.971  17.687  24.528  0.2402  0.1971  0.3089
42433W        W85486  28.241   8.217   8.734 -0.3034  0.1985  0.3334
42434W        W85487   2.457  20.348   9.543  0.1670 -0.0730  0.1055
42435W        W85488  14.653  16.598   3.902  0.2681  0.1855 -0.1251
42436W        W85489   8.567  15.948  23.291  0.1817  0.0464 -0.2812
42437W        W85490  13.237   5.089  26.829  0.0890 -0.1026 -0.1418
42438W        W85491  31.120  33.641   1.693  0.1359 -0.3357 -0.1014
42439W        W85492  27.720   7.368  19.115  0.2601  0.4149  0.0991
42440W        W85493  15.509   5.319   7.581 -0.1812  0.1346  0.2226
42441W        W85494  16.093   4.112  26.836  0.3544  0.0877 -0.0478
42442W        W85495  33.973   8.072   4.630  0.2016  0.1946  0.0302
42443W        W85496  16.584  12.371  28.794  0.1864  0.1544  0.1444
42444W        W85497   2.709   7.444  24.459  0.0759  0.2033  0.1425
42445W        W85498   8.792   6.335  25.184  0.1792  0.0874 -0.0115
42446W        W85499  23.022   8.895   1.485  0.1125 -0.1897 -0.1066
42447W        W85500   2.496   1.555   3.462 -0.1832 -0.2266  0.2554
42448W        W85501  32.703  30.868  14.071  0.2713 -0.1582 -0.2950
42449W        W85502   1.295   3.493  16.815  0.0592 -0.2702 -0.2192
42450W        W85503  12.298  15.996   2.244 -0.0675  0.0977 -0.3341
42451W        W85504  12.446  25.022  16.769 -0.2055  0.1311  0.0247
42452W        W85505  19.244  14.158  25.455  0.4409  0.1263  0.1468
42453W        W85506  17.979  18.143   1.360 -0.1312 -0.0140  0.2152
42454W        W85507  11.100  21.250  18.419 -0.1291  0.3172 -0.0534
42455W        W85508   6.183   7.743  19.779 -0.2652 -0.1317  0.1023
42456W        W85509  23.919  27.080  23.262 -0.0088 -0.0210 -0.1744
42457W        W85510  32.780  29.331  14.992 -0.1825  0.0367  0.2147
42458W        W85511  31.155  12.875   0.769 -0.2602  0.0536  0.0541
42459W        W85512  10.216  24.634  26.133  0.2762 -0.1081  0.3183
42460W        W85513   4.272  15.573  19.141  0.1883 -0.1798 -0.3808
42461W        W85514  17.746  22.483  18.465  0.2635  0.0196  0.0633
42462W        W85515  18.590  34.501  23.784  0.0926 -0.0174 -0.1213
42463W        W85516   9.135  13.298  19.758  0.4456  0.2801 -0.0981
42464W        W85517   1.444  11.637  14.823  0.0649 -0.2648 -0.1409
42465W        W85518   4.429  22.556   7.970  0.2260 -0.0777 -0.0295
42466W        W85519   8.928  12.538  23.839 -0.1554 -0.3541  0.0717
42467W        W85520   2.662  27.509  24.297 -0.0214  0.3019 -0.4026
42468W        W85521  25.928  16.745  16.549  0.0626 -0.1723  0.1849
42469W        W85522  11.462   7.687  18.673  0.3200 -0.1867  0.2912
42470W        W85523  14.234  15.417  23.191 -0.1298 -0.0653  0.2630
42471W        W85524  13.531  17.970   3.297 -0.1060 -0.0391 -0.1145
42472W        W85525  14.333  27.868  15.161  0.2317 -0.2256  0.0025
42473W        W85526   4.321   0.154  21.797 -0.0559 -0.1124  0.2135
42474W        W85527  19.756   5.045   1.540 -0.0895  0.2805 -0.1484
42475W        W85528   2.393  11.893  27.372 -0.1140 -0.1953  0.2264
42476W        W85529  15.632   1.211  20.966  0.0319  0.0213 -0.1057
42477W        W85530  33.632   2.934  22.628  0.0111  0.3558  0.0829
42478W        W85531  31.456  27.780  24.746  0.0963  0.0875 -0.0104
42479W        W85532  19.400  24.480   2.537  0.2896  0.0726  0.1740
42480W        W85533   8.259  16.312  19.183  0.0387 -0.3028  0.2180
42481W        W85534   4.817  13.295  21.411 -0.0051  0.1538  0.1304
42482W        W85535  23.055  13.993  15.475  0.0934  0.0197  0.1847
42483W        W85536  28.089  20.957  16.014 -0.0322  0.2298  0.0190
42484W        W85537  20.566  23.866  23.699 -0.0290 -0.2607 -0.1914
42485W        W85538  15.672  16.721  14.098  0.0195 -0.1967 -0.1013
42486W        W85539  30.704  27.888  14.936 -0.4534  0.1472  0.1536
42487W        W85540  12.776  11.898  23.345 -0.0203 -0.0285 -0.3371
42488W        W85541  23.323  30.565  26.751  0.1713 -0.0757 -0.1938
42489W        W85542  23.577  17.838  27.824 -0.1360  0.3486  0.0199
42490W        W85543   6.540  21.039   0.293 -0.0747  0.1329 -0.0118
42491W        W85544   7.411  21.053  26.925  0.1152  0.1457 -0.0891
42492W        W85545  10.495  17.852  16.517 -0.0035  0.2918  0.2170
42493W        W85546   5.585  34.217  19.264  0.2739 -0.1782 -0.2604
42494W        W85547  18.497  20.994  23.899 -0.0875 -0.0089  0.0876
42495W        W85548  17.778  22.880  26.095  0.0770  0.0984  0.0428
42496W        W85549   1.650  16.337  23.988  0.1315  0.1665  0.0330
42497W        W85550  11.460  19.499  28.304  0.1124 -0.1189 -0.0090
42498W        W85551  11.056   4.600  16.603  0.2690 -0.1218  0.1456
42499W        W85552   4.399  24.805  21.522  0.0605 -0.1441  0.1061
42500W        W85553  11.880  22.670  19.112  0.1754  0.0118  0.0327
42501W        W85554  13.097  17.180  17.200 -0.1367  0.3276  0.1425
42502W        W85555  32.853  15.673  22.296 -0.1617 -0.1984  0.2288
42503W        W85556   9.673  18.496  17.088  0.1267 -0.2170  0.1092
42504W        W85557  10.319  19.108   2.167 -0.0517  0.0784  0.1082
42505W        W85558  14.604  22.836  18.368 -0.2446  0.1309  0.1309
42506W        W85559  22.385  27.289  27.039  0.1168  0.0039 -0.5906
42507W        W85560   4.231  24.870  16.273  0.3633  0.0038 -0.1019
42508W        W85561   1.538  17.922  21.372  0.1873  0.0418 -0.2772
42509W        W85562  16.858   4.006  19.919  0.1376 -0.2069 -0.0654
42510W        W85563  17.839  10.487  19.058 -0.3549 -0.2224  0.0467
42511W        W85564  34.118  23.825  28.381 -0.1481 -0.1180 -0.2857
42512W        W85565   2.141  19.418   2.404  0.1803 -0.0959 -0.0778
42513W        W85566  34.339   8.175  14.784  0.1344 -0.0529  0.2068
42514W        W85567   7.275  32.615  17.945  0.2502 -0.0357 -0.0479
42515W        W85568   6.820  20.836  14.690 -0.0316  0.0844 -0.1459
42516W        W85569   9.539   2.216  15.978  0.2470  0.0357  0.0509
42517W        W85570  22.474  23.831  17.002  0.0518 -0.4339 -0.1642
42518W        W85571  25.127  16.899  27.450  0.0216 -0.0869 -0.3374
42519W        W85572  12.084  25.568  18.511  0.0115 -0.1363 -0.0980
42520W        W85573  22.162  19.203  20.639  0.0032 -0.0297  0.1642
42521W        W85574   8.727  17.136  13.634  0.1160  0.2263  0.1705
42522W        W85575  11.462  12.001  16.049  0.0288 -0.0149  0.0973
42523W        W85576   0.347  20.144  26.840  0.2073  0.0538 -0.0343
42524W        W85577   0.378  29.154  24.001 -0.0699 -0.2910  0.1529
42525W        W85578  34.417  19.361  22.779 -0.2216  0.2577  0.1318
42526W        W85579   9.053  20.819  22.407  0.1898  0.0262 -0.0314
42527W        W85580   2.243  15.286  18.200  0.0973  0.0568 -0.1479
42528W        W85581   6.023  16.276  17.723 -0.0094 -0.0992 -0.0666
42529W        W85582   9.119  27.087  18.298 -0.0136  0.4750  0.1176
42530W        W85583   3.365   4.827  20.920  0.1312 -0.2049 -0.1748
42531W        W85584  12.879  22.524   6.938 -0.1155  0.1904 -0.1516
42532W        W85585   7.695  27.203  22.279 -0.1419 -0.0105  0.0984
42533W        W85586  14.370  23.028  17.839  0.0591  0.0670 -0.1474
42534W        W85587   2.098   7.795  26.244 -0.0363  0.1669 -0.1071
42535W        W85588  20.911  18.074  22.709  0.5500 -0.1160 -0.3198
42536W        W85589  20.301  18.535   9.213 -0.1565  0.1083  0.0067
42537W        W85590   4.288  29.248  25.894  0.0741 -0.1570 -0.4132
42538W        W85591  32.915   4.706   0.767  0.0250 -0.1690 -0.1034
42539W        W85592   1.553  26.865  23.853 -0.0947  0.0959 -0.4855
42540W        W85593  23.649  27.031  19.887  0.3567  0.0986  0.0662
42541W        W85594   7.141  14.674  19.714  0.1737  0.1372 -0.2896
42542W        W85595  11.614  21.627  24.900  0.1536  0.0478  0.0068
42543W        W85596  14.090  10.044  16.967 -0.0465  0.0332  0.0727
42544W        W85597  18.968  24.627  15.031  0.1283  0.1387  0.1676
42545W        W85598  33.254  24.996   3.432  0.3001 -0.1418 -0.0018
42546W        W85599  15.107  26.578  20.373 -0.2322  0.4091  0.0719
42547W        W85600  33.073  23.271  18.246 -0.0589 -0.0599  0.1406
42548W        W85601   3.829  23.217  21.678  0.1257  0.1678  0.1637
42549W        W85602   7.319   9.467   7.145  0.3216 -0.0830 -0.1733
42550W        W85603   5.228  23.781  24.592  0.1437  0.0129 -0.2120
42551W        W85604  14.825   6.820  22.687 -0.0435  0.1755  0.3332
42552W        W85605  11.141  24.608  18.501  0.0748 -0.2153  0.4417
42553W        W85606   9.364  24.206   4.421 -0.1079 -0.1517  0.1911
42554W        W85607   8.714  25.213   8.467 -0.3660 -0.1741 -0.1261
42555W        W85608  15.404  14.587   1.048  0.1410  0.0390 -0.1912
42556W        W85609  15.516   4.039  22.072  0.3522  0.2680 -0.1037
42557W        W85610  16.130   1.494  20.289  0.0219  0.3035  0.2242
42558W        W85611  10.862  23.183  22.921 -0.1832  0.2977 -0.1455
42559W        W85612  28.814  13.472  16.598  0.0943 -0.0660 -0.1047
42560W        W85613  10.884  17.069  20.305  0.4589  0.0110  0.2172
42561W        W85614   9.831   2.746  17.421 -0.1238 -0.1140  0.0774
42562W        W85615  17.447   1.322  23.078  0.1714  0.1459 -0.0309
42563W        W85616  31.987  14.500  22.110  0.0448  0.0793 -0.1859
42564W        W85617  21.011  23.245  14.219  0.1995 -0.1063  0.1417
42565W        W85618  16.881  13.107  21.950  0.0713 -0.1731 -0.0108
42566W        W85619   6.424   8.540  18.317 -0.4041 -0.0448 -0.1619
42567W        W85620   7.924  16.811  19.780 -0.1052 -0.0251  0.1842
42568W        W85621  16.288   4.718  20.427  0.0289  0.2338 -0.0817
42569W        W85622  10.338  20.823  29.086 -0.0180 -0.0760 -0.5764
42570W        W85623  29.158  17.241  21.341 -0.3295  0.3003 -0.3785
42571W        W85624   8.309  10.444  20.585  0.0301  0.2036 -0.2336
42572W        W85625  12.437   4.732   0.686  0.5101  0.1108  0.1553
42573W        W85626  17.331  32.435  23.136 -0.3074 -0.2479 -0.1730
42574W        W85627  34.220   6.590  15.585 -0.2679  0.1498  0.2989
42575W        W85628  32.613  16.037  22.539 -0.0225  0.1830  0.1544
42576W        W85629  13.926  19.511  14.990 -0.5362 -0.1205 -0.1453
42577W        W85630  21.836  15.973  20.103  0.2424  0.0944 -0.1391
42578W        W85631  11.062  22.577  17.039 -0.0539  0.1662  0.0122
42579W        W85632   3.640  24.882  18.952  0.2390  0.0322  0.2244
42580W        W85633  17.569   9.592  19.829 -0.2448 -0.1753 -0.0122
42581W        W85634  29.375  10.061  18.765  0.3236 -0.1300 -0.0396
42582W        W85635  33.178   1.472  22.220  0.0640 -0.2196  0.0941
42583W        W85636  21.462  21.431  20.656  0.0062  0.2163  0.1026
42584W        W85637  13.876  13.062   6.224 -0.0606  0.0237  0.1638
42585W        W85638   5.275  19.070  18.461  0.1797 -0.0325 -0.3113
42586W        W85639  32.401  25.217  13.708  0.0799  0.0464  0.0237
42587W        W85640  18.227  28.978  15.384  0.2355 -0.0988  0.1139
42588W        W85641   9.753  25.968  26.947 -0.1629  0.2160 -0.0892
42589W        W85642   5.876  18.994   0.208 -0.0505 -0.3196  0.1665
42590W        W85643   8.895   3.713  26.245  0.2572 -0.3716  0.1294
42591W        W85644  21.636  23.149  23.043  0.3009 -0.0790 -0.1346
42592W        W85645   4.574   8.265  21.862  0.0532  0.2554 -0.0550
42593W        W85646  13.273  20.954  16.042 -0.0188 -0.1931  0.3301
42594W        W85647  21.534  15.800   0.249 -0.1966 -0.1392 -0.0293
42595W        W85648  18.267   5.331   3.348 -0.1271  0.2129 -0.0215
42596W        W85649  32.402  14.819  20.755 -0.1938 -0.0200  0.0104
42597W        W85650   8.036  24.702  28.549 -0.0206 -0.0129  0.1393
42598W        W85651  20.007  18.226  13.016 -0.2511  0.1306  0.0990
42599W        W85652  29.888  21.987   0.589 -0.0018 -0.1224  0.1698
42600W        W85653   7.591  19.566  19.108  0.1372 -0.0814 -0.0460
42601W        W85654   1.218   2.637  23.350  0.1046 -0.1227  0.0027
42602W        W85655  30.092  15.882   3.636  0.0507  0.2993  0.1356
42603W        W85656  25.800   3.226  24.513  0.0332  0.0355  0.1038
42604W        W85657  28.143   5.288  14.957 -0.3363 -0.0708 -0.2454
42605W        W85658  11.944  13.601  21.260 -0.3300 -0.1639 -0.5078
42606W        W85659  15.078  22.738  26.070 -0.2174  0.3292  0.0485
42607W        W85660   9.075  17.057  28.993  0.0658 -0.0656  0.2077
42608W        W85661   3.333  20.423  14.329  0.0582 -0.0804 -0.0303
42609W        W85662   4.509  21.239  14.832 -0.1477  0.1137  0.1141
42610W        W85663  11.013  25.384  24.173  0.1092 -0.0141 -0.2034
42611W        W85664  30.355   7.842  18.806  0.1316 -0.0421 -0.1490
42612W        W85665   7.022  23.400   1.239  0.1386  0.0042 -0.0527
42613W        W85666   4.654  27.106  14.944 -0.1158  0.0761 -0.0654
42614W        W85667   4.779  27.479  26.579  0.0760  0.1306  0.2524
42615W        W85668  10.153  14.120  23.283 -0.1235  0.1810  0.0462
42616W        W85669  13.021  20.357  16.831 -0.0223 -0.3306  0.4470
42617W        W85670   4.538  27.648  23.081 -0.2982 -0.1265  0.0598
42618W        W85671  32.391  28.944  17.375 -0.1166  0.2349  0.1936
42619W        W85672  30.512   8.240   1.892  0.1031 -0.0830 -0.0183
42620W        W85673  11.778  25.436  22.122  0.0515 -0.0214  0.1645
42621W        W85674   8.547  22.536  17.421 -0.1465 -0.1301  0.3179
42622W        W85675  32.613  26.980  15.737  0.4676 -0.0332  0.2815
42623W        W85676  30.099   4.612  21.638  0.0250  0.3367 -0.0753
42624W        W85677  13.545  19.236  15.380 -0.1535  0.0314  0.0768
42625W        W85678  15.412   7.539  24.164 -0.0381 -0.1494 -0.1175
42626W        W85679   6.465  13.007  26.723  0.3446 -0.1620 -0.1843
42627W        W85680  12.158  21.240  26.296 -0.3030  0.0968 -0.1101
42628W        W85681  19.796  19.530  14.918  0.0875  0.0189  0.3411
42629W        W85682  12.189   2.937  15.859 -0.0183 -0.1114 -0.0612
42630W        W85683   5.415   1.121  23.901  0.2362 -0.1293 -0.1685
42631W        W85684  16.134  18.893  14.390 -0.1148 -0.2944  0.3323
42632W        W85685   5.450   6.248  18.300  0.2169  0.3160 -0.1610
42633W        W85686  14.731  11.731  16.096 -0.1867 -0.0850  0.1371
42634W        W85687   9.784  12.298  22.034 -0.1450  0.2283 -0.0532
42635W        W85688  15.636  18.379  25.227  0.2538 -0.2237  0.1405
42636W        W85689   8.952  25.909  24.930 -0.1230  0.0256 -0.1405
42637W        W85690  22.713   2.415  21.518  0.2112  0.1473 -0.1980
42638W        W85691   7.516  27.648  22.388  0.2485 -0.1535 -0.2503
42639W        W85692  14.840  26.806  21.516 -0.0929  0.0044 -0.0262
42640W        W85693   2.815  10.686  16.160  0.1011 -0.0989  0.0975
42641W        W85694  25.440  14.464   0.405 -0.0950 -0.1386  0.2084
42642W        W85695   5.002  20.084  17.446 -0.3569 -0.0306 -0.0074
42643W        W85696  16.676   4.797  25.021 -0.1680  0.0440 -0.0041
42644W        W85697  11.108  22.463  24.959  0.0929  0.1717 -0.1557
42645W        W85698  33.091  25.656  27.336 -0.1377 -0.2335  0.2542
42646W        W85699  28.302   6.281  17.608  0.0830  0.2419  0.0449
42647W        W85700  18.054   7.688  17.631  0.0020 -0.0629 -0.2443
42648W        W85701  10.095  16.339  19.216 -0.0262  0.0151  0.1707
42649W        W85702  32.819  23.723  19.523  0.2374  0.2928  0.0578
42650W        W85703  25.175  14.130  23.309  0.1071 -0.0155 -0.1309
42651W        W85704  22.672   9.743  21.299 -0.1732  0.0100 -0.1266
42652W        W85705   5.538  26.739  18.076  0.0887  0.0051  0.0991
42653W        W85706   2.809  24.552  22.281 -0.1835  0.0886  0.0219
42654W        W85707   8.156  27.822   7.502 -0.0192  0.1388 -0.1439
42655W        W85708  24.973   8.626  14.891 -0.2104 -0.3031 -0.0203
42656W        W85709   9.558  16.881  27.801  0.1169 -0.0108 -0.0641
42657W        W85710  25.850  15.376  19.904  0.3557 -0.1233  0.1026
42658W        W85711  19.624  10.280  18.739  0.3080 -0.1100 -0.0392
42659W        W85712   0.180  15.797  18.063  0.0588 -0.2489  0.1287
42660W        W85713  22.576   7.403  20.091 -0.1676  0.0792  0.0761
42661W        W85714  13.961  24.487  22.399 -0.1341  0.4193  0.0798
42662W        W85715  16.701   6.845  27.208 -0.0614  0.1885 -0.3881
42663W        W85716  23.301  27.301  14.741  0.2471  0.2581 -0.1664
42664W        W85717  10.755  15.298  14.681  0.0174  0.0144 -0.2668
42665W        W85718   2.023   1.539  16.725  0.0018  0.1991 -0.2829
42666W        W85719  19.308  19.378   1.194 -0.2269 -0.4586  0.1957
42667W        W85720   8.233  18.822  25.272  0.3616  0.3624 -0.1458
42668W        W85721   6.509   2.697  18.866 -0.0842 -0.1498  0.0274
42669W        W85722   1.572  23.090  16.353  0.0548  0.1626  0.1784
42670W        W85723  24.491  12.535  25.198 -0.0063 -0.0322  0.1520
42671W        W85724  20.920   9.257  18.708  0.4746 -0.0736  0.0909
42672W        W85725  13.237  21.893  15.638 -0.4505  0.1495 -0.3323
42673W        W85726   4.072  16.355  16.385  0.1414  0.1641  0.2642
42674W        W85727   4.702  21.675  18.807 -0.0261 -0.0881  0.0722
42675W        W85728  32.305  12.180  23.709 -0.1090 -0.1646 -0.0667
42676W        W85729   5.169  17.841  21.947  0.3663 -0.3084 -0.1461
42677W        W85730  24.936   0.631  19.831 -0.0752 -0.2047  0.1723
42678W        W85731   9.085  28.073  18.508 -0.2946  0.1262 -0.4479
42679W        W85732  34.273   8.624  18.396  0.0213 -0.2358  0.0432
42680W        W85733  22.849  24.174  25.584 -0.1151 -0.1184 -0.0465
42681W        W85734  31.313  19.403  21.611  0.0918  0.0224 -0.5539
42682W        W85735   9.509   1.781  17.420 -0.0561 -0.1211 -0.0871
42683W        W85736   9.865  13.112  15.830  0.1204  0.0528  0.0372
42684W        W85737  17.799  26.606  26.611  0.2018  0.2141  0.0306
42685W        W85738   9.751  11.292  16.432 -0.1542 -0.0115  0.0571
42686W        W85739   6.186  18.736  25.385  0.5012  0.0073 -0.1063
42687W        W85740  17.396  24.817  19.130 -0.4457 -0.5773 -0.1624
42688W        W85741   0.547  21.663  18.980  0.0272 -0.0411 -0.0627
42689W        W85742  10.829   7.971  24.411  0.0220  0.0432  0.1828
42690W        W85743  23.273  21.496  17.560  0.0935 -0.0676  0.2643
42691W        W85744  23.803  17.564  23.767 -0.1210  0.1558 -0.3385
42692W        W85745  29.663   6.332  22.984 -0.0806  0.1257 -0.3333
42693W        W85746  11.822   5.773   0.894  0.0455 -0.0233 -0.3708
42694W        W85747  34.545   4.690  14.254  0.0240 -0.3268  0.0909
42695W        W85748  17.877  15.669   1.665  0.0148 -0.0071 -0.3133
42696W        W85749  20.847  11.176  29.054 -0.3260 -0.2353  0.1175
42697W        W85750   7.278  23.818  29.117  0.1693 -0.4126 -0.2976
42698W        W85751   3.567  17.888  17.742 -0.1438 -0.0834  0.0802
42699W        W85752   7.575   7.772  19.041 -0.0135 -0.1354  0.1035
42700W        W85753  26.392  19.280  20.760 -0.1862 -0.1087 -0.2127
42701W        W85754   3.693  27.269  28.672 -0.2352 -0.1068 -0.0312
42702W        W85755  19.162   7.684  27.889  0.0331 -0.1359  0.2152
42703W        W85756   1.644  23.172  15.079  0.0424  0.1688  0.0480
42704W        W85757  34.511   8.005  14.322 -0.0651 -0.0766 -0.1886
42705W        W85758  24.523  25.833  26.394 -0.2386 -0.1712 -0.0191
42706W        W85759  17.618   7.351  19.817  0.1812  0.0178 -0.1192
42707W        W85760  12.252   4.037  23.121 -0.1040 -0.2221  0.0493
42708W        W85761  19.266  11.959  13.609 -0.0293  0.4104 -0.1048
42709W        W85762   1.540  18.627  18.369 -0.3672 -0.3990 -0.1131
42710W        W85763  22.779  19.920  16.309  0.1128 -0.2614  0.1008
42711W        W85764  11.428  22.549  19.842  0.3431  0.0358 -0.0617
42712W        W85765  31.153  10.316  21.066  0.2361 -0.0082  0.2352
42713W        W85766   7.196  28.737  17.539 -0.1877  0.1241  0.0938
42714W        W85767  19.091  24.387  17.088  0.3174 -0.0860  0.2262
42715W        W85768  15.314  21.784  16.798 -0.2570  0.0959 -0.4916
42716W        W85769   3.820  28.381   0.155  0.1434  0.1409  0.0047
42717W        W85770  15.852   5.894  21.664  0.1516 -0.0278 -0.0122
42718W        W85771   8.134   4.163  24.592  0.0564 -0.0369  0.0530
42719W        W85772   1.171  21.742  17.061 -0.2881 -0.1862 -0.2816
42720W        W85773  19.963   7.051  25.467 -0.1081 -0.0766  0.4369
42721W        W85774  15.499  10.312  14.516 -0.1780 -0.0609  0.1634
42722W        W85775   5.568  15.510   3.134  0.4224 -0.0334  0.0901
42723W        W85776  14.573  18.142  28.920 -0.0434 -0.0514 -0.0056
42724W        W85777  11.952  10.539  15.690 -0.1966 -0.0289  0.0924
42725W        W85778  11.726   3.637   1.146 -0.3088  0.0808 -0.1166
42726W        W85779   2.410  18.961   0.592  0.1289  0.1892  0.0735
42727W        W85780  11.873   7.946  18.992  0.1441 -0.1348  0.0817
42728W        W85781   8.943  16.937  16.334  0.1339  0.0095 -0.1431
42729W        W85782  14.475   8.842  21.427 -0.1351 -0.2528 -0.1043
42730W        W85783  33.417  18.404  18.193  0.2543  0.1285 -0.0625
42731W        W85784   5.029  24.186  22.578  0.0053  0.1776  0.1503
42732W        W85785   2.400  27.194  16.222  0.1652  0.0228  0.0648
42733W        W85786  10.623  24.746  27.674  0.2893  0.1975  0.1525
42734W        W85787   7.954   9.486  14.751  0.2241 -0.0026  0.0860
42735W        W85788  11.663  18.961  18.203 -0.0164  0.0662 -0.2043
42736W        W85789   9.050  19.753  16.200  0.2320 -0.2688  0.0412
42737W        W85790  14.246  15.640  16.883  0.3639  0.4384  0.3664
42738W        W85791   1.906  13.733  20.158 -0.3911  0.3139  0.0375
42739W        W85792   5.006  27.166  15.962 -0.2377 -0.2015 -0.1603
42740W        W85793  27.795   0.326  18.849 -0.0299 -0.3063  0.2324
42741W        W85794   8.339  14.510  26.574 -0.2402  0.1670  0.3154
42742W        W85795   3.690  18.138  13.559 -0.1578  0.1266  0.4143
42743W        W85796  30.440  34.627  13.743 -0.1958  0.1276  0.4418
42744W        W85797   6.578  26.445  18.380  0.3255  0.2468  0.0618
42745W        W85798  32.324   0.102  22.939 -0.0738 -0.0541  0.4922
42746W        W85799  17.115  12.401  23.176 -0.3346  0.1260 -0.1258
42747W        W85800   8.619  21.736  13.282  0.1780 -0.0313  0.0018
42748W        W85801  23.164   9.289  22.703  0.3166 -0.4187 -0.4519
42749W        W85802  19.474  12.303  18.656 -0.0647 -0.1540 -0.1364
42750W        W85803   7.051   5.285  24.143  0.1775 -0.0922 -0.2892
42751W        W85804  12.809  11.975  25.658 -0.0700  0.1748 -0.0972
42752W        W85805  25.173  13.701  23.709 -0.0173  0.0949  0.3895
42753W        W85806  26.382  12.064  27.503 -0.0181  0.0222  0.1505
42754W        W85807   7.382   3.230   4.060  0.2290  0.1119  0.1047
42755W        W85808  10.317  18.775  17.653  0.0081  0.0597  0.1128
42756W        W85809  11.424  19.396  18.946 -0.1653 -0.2210  0.0321
42757W        W85810  24.440  24.837  25.561  0.0474 -0.2307 -0.1027
42758W        W85811   8.038   5.872  17.494  0.1787  0.1210 -0.0162
42759W        W85812  33.226  16.920  16.204  0.1061 -0.1641 -0.0349
42760W        W85813   2.939  17.485  15.658 -0.0448  0.0297 -0.3289
42761W        W85814   2.885  19.173  21.796  0.3300 -0.1440  0.1442
42762W        W85815  13.027  22.718  25.255 -0.1672  0.0854 -0.0900
42763W        W85816  12.327  28.487  19.474 -0.0641 -0.0344 -0.1085
42764W        W85817  12.546   0.839  17.868 -0.0769  0.2059  0.0217
42765W        W85818  20.326  21.389  14.879 -0.0908 -0.0394  0.1374
42766W        W85819  31.311   5.656  22.363  0.2741  0.1409  0.1069
42767W        W85820  12.512  11.062  27.249 -0.2510  0.1401 -0.0703
42768W        W85821  18.657  12.839  25.576 -0.2938 -0.0226 -0.0422
42769W        W85822  23.064   8.046  20.635  0.1012 -0.4177  0.0193
42770W        W85823   5.326  23.426  16.447  0.1890 -0.0235 -0.1110
42771W        W85824   0.182  17.963  27.652 -0.0364 -0.0532  0.1454
42772W        W85825  23.966  23.295  22.857  0.1452 -0.5836 -0.0261
42773W        W85826  23.161  26.215  26.327  0.0962 -0.0215  0.1111
42774W        W85827  15.306  18.764  14.085  0.0141 -0.0579  0.0911
42775W        W85828  16.354  27.745  20.475 -0.0289 -0.2239 -0.1950
42776W        W85829  18.506  14.036   4.334  0.4464 -0.1519 -0.2170
42777W        W85830   7.837  17.169  22.959  0.3681 -0.0533 -0.1429
42778W        W85831  15.506  24.478  28.793 -0.1971  0.5387 -0.0252
42779W        W85832   7.270   7.590  20.767 -0.1896 -0.0295 -0.3235
42780W        W85833   4.144  17.716  24.011 -0.3060 -0.0042  0.3467
42781W        W85834   9.540  10.868  26.272 -0.1420  0.4514  0.0972
42782W        W85835   4.334  23.956  23.360 -0.2532  0.2560 -0.0466
42783W        W85836  13.333  20.437  26.837 -0.0539  0.2587  0.0247
42784W        W85837   4.753  24.173  18.587 -0.0951  0.0819  0.1420
42785W        W85838  21.968  14.580  16.134 -0.1632 -0.2908 -0.0630
42786W        W85839  24.759  13.465  14.043 -0.2389  0.0846 -0.1102
42787W        W85840  17.692  11.145  18.959 -0.2238  0.3048  0.1377
42788W        W85841   1.862  13.278  21.809  0.1234  0.2068 -0.2831
42789W        W85842   6.977  27.453  17.797  0.0583 -0.1733  0.1104
42790W        W85843  13.155  10.776  18.898  0.0156 -0.1887 -0.1544
42791W        W85844  12.083  17.699  21.759 -0.0707 -0.2779  0.3375
42792W        W85845   3.347  17.396  17.643  0.0638  0.2972 -0.1966
42793W        W85846   8.534  16.160  25.560  0.2251  0.0917 -0.1596
42794W        W85847  11.488  28.712  21.635 -0.2353  0.1009  0.1616
42795W        W85848  11.571  15.484   2.150 -0.1110 -0.0510 -0.0334
42796W        W85849  16.556   1.516  21.836 -0.1639 -0.0235 -0.1189
42797W        W85850  16.689  11.786  17.645  0.1474  0.0108 -0.0043
42798W        W85851   4.259  17.732  16.172  0.0508 -0.3238 -0.0414
42799W        W85852  16.431  15.283  24.472 -0.1214 -0.3876  0.2089
42800W        W85853  32.955  30.273  15.791 -0.3249 -0.1502  0.0672
42801W        W85854   3.781  28.721  16.104  0.0450  0.2490 -0.1562
42802W        W85855  14.913  23.467  18.852  0.0409 -0.2279 -0.2111
42803W        W85856  27.031   4.598  25.316  0.1381 -0.2575  0.1330
42804W        W85857  33.514  31.005  21.769  0.1240 -0.1184  0.1253
42805W        W85858   2.007  13.793  15.025  0.2581 -0.1189  0.0715
42806W        W85859  16.580  29.573  19.121  0.0605 -0.1014  0.1107
42807W        W85860  17.222   5.868  17.154 -0.1396  0.0580 -0.0866
42808W        W85861   5.676  18.639  19.355 -0.0962 -0.1081  0.0558
42809W        W85862  25.110  22.952  16.828  0.1573 -0.1752  0.4008
42810W        W85863  23.114  16.391   0.850 -0.1774  0.1797  0.0812
42811W        W85864   3.595  19.866  19.907 -0.0972  0.0893 -0.2429
42812W        W85865   3.318  29.561  16.820 -0.1229 -0.1117  0.5383
42813W        W85866  26.771  13.204  17.604  0.1196  0.0368  0.2077
42814W        W85867   8.396  26.618  27.704  0.1610  0.0402  0.0109
42815W        W85868  32.266  10.465  28.415 -0.4781 -0.0879  0.3164
42816W        W85869  11.187  16.150  23.848 -0.1440 -0.1011 -0.0750
42817W        W85870  14.447  17.053  16.177  0.1036 -0.1901  0.3796
42818W        W85871  21.126  17.500  25.007  0.0866 -0.0354  0.4579
42819W        W85872  12.597  15.147  21.161  0.0795  0.1371  0.0468
42820W        W85873  34.449  23.587  18.408 -0.1765  0.1016  0.3671
42821W        W85874  20.001  30.025  18.297  0.4770 -0.3899 -0.1261
42822W        W85875   1.619  17.020  21.653  0.1171  0.0773  0.2747
42823W        W85876  14.040  11.666  20.727  0.2235 -0.0051  0.0797
42824W        W85877   1.804  24.700  20.691 -0.3264  0.3376 -0.0136
42825W        W85878  15.656   1.014  16.706  0.2755  0.3380 -0.1591
42826W        W85879   8.286  23.148   4.983 -0.2166  0.1860 -0.1872
42827W        W85880   5.991  29.591  13.136 -0.1400 -0.0597 -0.1441
42828W        W85881   9.628  15.008  18.306 -0.0128  0.1277 -0.3918
42829W        W85882  15.550   3.105  24.997  0.1822  0.0603  0.2468
42830W        W85883  32.286  24.778  24.923  0.0041  0.0513  0.0282
42831W        W85884  12.607  20.902  21.473  0.2689 -0.0734  0.1787
42832W        W85885   9.372  20.805   0.014 -0.0847 -0.0623  0.0269
42833W        W85886  26.015  16.353  17.961 -0.5552  0.1915 -0.3717
42834W        W85887   7.590  25.061  22.679  0.1421  0.1675  0.1349
42835W        W85888   5.841   8.653  14.729 -0.2611  0.3329 -0.1178
42836W        W85889  21.631  10.144  17.830 -0.1539  0.1234  0.0706
42837W        W85890  24.609   3.552   1.329 -0.4278  0.1797 -0.1309
42838W        W85891  12.830   1.441  14.574 -0.0309 -0.0072 -0.0002
42839W        W85892  30.195  18.330  15.102  0.4248 -0.2722 -0.1419
42840W        W85893   0.666  15.941  16.177  0.1399  0.3471 -0.3580
42841W        W85894  27.271   3.450  28.494 -0.0239  0.0869  0.3710
42842W        W85895  14.916  15.266  27.144 -0.3086 -0.1278  0.2044
42843W        W85896  31.723  27.865  25.747  0.1580 -0.2171  0.3306
42844W        W85897   3.852   8.013   5.269  0.3825  0.1444 -0.1143
42845W        W85898  14.693  13.093  14.152 -0.0102 -0.1678  0.0532
42846W        W85899   1.505  17.232  14.129  0.4123 -0.0648  0.1718
42847W        W85900   8.149   0.735  15.177 -0.0996  0.2303  0.1958
42848W        W85901   5.773  24.941   1.513  0.0366 -0.0377  0.0017
42849W        W85902  25.540   2.885  20.345 -0.0426  0.1173 -0.0355
42850W        W85903  23.967  24.288  14.574  0.1515 -0.2562 -0.2059
42851W        W85904  12.914  31.052  13.578 -0.3198  0.0703 -0.1086
42852W        W85905  11.796  19.937  24.634 -0.0118  0.1491 -0.0363
42853W        W85906  12.600  12.043  25.107  0.3491  0.2471  0.0399
42854W        W85907  20.923   8.699  25.239 -0.1857 -0.2562 -0.1608
42855W        W85908  32.648   6.823  20.673 -0.1268 -0.0864 -0.4221
42856W        W85909   3.827   5.544  27.054 -0.2027 -0.1496 -0.1773
42857W        W85910   4.774  32.878  22.571  0.0175  0.1035  0.1722
42858W        W85911  24.089   8.667  28.118  0.1653 -0.0233  0.1384
42859W        W85912  28.346   8.785  26.748 -0.1668  0.0608  0.1802
42860W        W85913   5.773   9.448   5.395 -0.0625  0.1059  0.0963
42861W        W85914  10.490  25.740  13.810 -0.4205 -0.1990 -0.0657
42862W        W85915  15.300   6.174  19.944 -0.1653  0.0906  0.0290
42863W        W85916  25.507   5.541  14.636 -0.1253  0.1958  0.1002
42864W        W85917  18.874   9.169  18.692  0.2535 -0.1731  0.0055
42865W        W85918   6.965  19.133  25.045  0.2409  0.0385  0.0151
42866W        W85919  17.983  11.992  17.039  0.0006 -0.3179 -0.2276
42867W        W85920  29.190   1.260  13.221 -0.1162 -0.0921 -0.3816
42868W        W85921   4.333   8.437   9.676 -0.0627  0.0471  0.1998
42869W        W85922  13.935  24.800  18.391 -0.0248  0.1785  0.3679
42870W        W85923   1.858  29.068   0.260 -0.0752 -0.3479  0.6293
42871W        W85924   7.384  23.171  21.060 -0.1019  0.1160 -0.0761
42872W        W85925  10.872  21.144  20.876  0.4036  0.3495  0.1573
42873W        W85926   6.953  14.890   1.148 -0.0974  0.0685 -0.1390
42874W        W85927  32.074  21.595   6.666 -0.3008 -0.1696  0.1456
42875W        W85928   3.551  20.863   2.861 -0.3663 -0.2007  0.0565
42876W        W85929  33.153  19.166  15.437 -0.0349 -0.0481 -0.0269
42877W        W85930  17.355  12.471  14.378  0.0258  0.0072 -0.2386
42878W        W85931   9.560   5.384  15.588 -0.2952 -0.3984 -0.0195
42879W        W85932   4.356  24.804  19.447 -0.0219 -0.1976  0.0044
42880W        W85933   5.935  26.002  17.595  0.1135  0.0114  0.2581
42881W        W85934  27.920  15.848  19.159  0.2115 -0.2401  0.0696
42882W        W85935  30.348  27.837  23.923 -0.0416  0.1790 -0.2203
42883W        W85936  13.880  22.652  21.185  0.0398  0.1298  0.1254
42884W        W85937   3.775  33.734  27.389  0.2374 -0.1663  0.2501
42885W        W85938  27.814   0.372  21.671  0.1983  0.2864 -0.2086
42886W        W85939  30.201   9.953  28.828 -0.0782  0.0441  0.1421
42887W        W85940   8.052  24.332   2.941 -0.0973  0.0169  0.0637
42888W        W85941   2.882   4.663  15.107  0.1279 -0.4117  0.1152
42889W        W85942  12.847  30.546   0.493  0.2008  0.1100  0.1584
42890W        W85943  17.148  15.693   5.354 -0.1510 -0.1100  0.1275
42891W        W85944   5.990  15.467   1.622  0.0225  0.0665  0.4093
42892W        W85945   6.248  11.055  25.536  0.0530 -0.1009  0.0422
42893W        W85946   7.025   7.739  19.182  0.2833  0.0395 -0.0149
42894W        W85947   9.381  23.559  13.263  0.1296  0.3548 -0.3930
42895W        W85948  13.053   8.665  15.273  0.2179 -0.0221  0.0528
42896W        W85949  34.331  20.339  20.564  0.2374  0.1299  0.0476
42897W        W85950  17.988  19.005  15.238 -0.1256 -0.1096 -0.0374
42898W        W85951  19.771  12.909  16.388 -0.0095  0.0687  0.0137
42899W        W85952  13.332  20.736  14.234  0.0991  0.3849 -0.2389
42900W        W85953  21.943  30.379  14.926  0.1134  0.0088  0.1459
42901W        W85954  15.616  17.689  26.561  0.2020 -0.3564 -0.1397
42902W        W85955  19.872  33.427  17.633  0.2481 -0.0862 -0.3611
42903W        W85956  10.848  11.783  29.020  0.1928  0.3036  0.1635
42904W        W85957   5.521  14.708   1.587 -0.0537  0.1257  0.0907
42905W        W85958   4.293  29.949  16.333  0.2132  0.0205  0.0765
42906W        W85959   3.970  18.547  18.744 -0.1382 -0.4368 -0.2427
42907W        W85960  15.262   0.484  25.816  0.0560 -0.0378  0.0683
42908W        W85961  14.398  14.055  21.561  0.0561  0.1176 -0.2965
42909W        W85962  26.839  22.785  23.020 -0.3036 -0.0855  0.1900
42910W        W85963  15.861  10.466  16.852 -0.2021 -0.3044  0.5090
42911W        W85964  23.787  30.045  23.987  0.4309  0.1142 -0.3212
42912W        W85965  18.490  11.909  15.725 -0.4166 -0.0999 -0.1478
42913W        W85966  32.110  29.535   9.540 -0.1163  0.0195  0.0612
42914W        W85967   4.794  20.495  22.403  0.0574 -0.2192 -0.1014
42915W        W85968   0.204  15.754  23.522  0.1195 -0.1961  0.0828
42916W        W85969  11.940  21.426  19.760  0.1344  0.1066 -0.1000
42917W        W85970  31.725  32.657  18.056  0.3929 -0.1010 -0.1884
42918W        W85971   2.198   8.695  16.965  0.2760  0.0264 -0.1678
42919W        W85972  16.618  15.036  14.989  0.0916 -0.1771  0.0200
42920W        W85973  18.762   7.537  23.473 -0.0103 -0.2926  0.2829
42921W        W85974  14.608  23.990  18.696  0.0874 -0.3291  0.0797
42922W        W85975  12.509  25.599  26.355 -0.0202 -0.0053 -0.1351
42923W        W85976  16.914  16.925   5.391  0.2353  0.0308 -0.3631
42924W        W85977   7.221   7.645  15.548 -0.0786  0.0282 -0.5276
42925W        W85978  14.840   5.768   5.091  0.0117  0.0384 -0.1478
42926W        W85979  13.601  33.714   3.174 -0.3723 -0.2022  0.0187
42927W        W85980   4.053  12.296   6.664 -0.2068  0.2800 -0.1901
42928W        W85981   9.008  15.813  26.854  0.0352  0.0761  0.0732
42929W        W85982  13.021  16.857  21.233  0.2079 -0.1655  0.0186
42930W        W85983  14.419  23.005  26.421  0.1077 -0.1719  0.1187
42931W        W85984  25.033  26.027  18.737  0.3330  0.0815 -0.1829
42932W        W85985  10.115  21.108  28.026 -0.1261  0.1339  0.2807
42933W        W85986  20.648   1.082  26.036  0.0821  0.1964  0.1810
42934W        W85987  29.086  22.427  17.917 -0.1431  0.0622  0.0463
42935W        W85988   5.531  22.164  14.724 -0.0317 -0.0197 -0.1206
42936W        W85989  28.639  21.442  15.369 -0.5343  0.0221 -0.1350
42937W        W85990  10.108   9.349  24.386  0.1594  0.0123 -0.0973
42938W        W85991  19.386   0.548   9.089 -0.1343 -0.2973 -0.1574
42939W        W85992  21.863   5.525  28.804 -0.0086 -0.1110  0.0262
42940W        W85993  34.642  13.055  29.124 -0.1683 -0.2215  0.0228
42941W        W85994  20.430  23.303  19.886 -0.0187 -0.0061  0.2332
42942W        W85995   8.056  19.167  20.102 -0.1646 -0.0930 -0.1730
42943W        W85996  24.127  11.157  19.230 -0.1699  0.4936  0.1445
42944W        W85997  10.801   5.182  23.446 -0.1585 -0.1708  0.0505
42945W        W85998  18.267  21.691   8.199  0.1481  0.1433 -0.2777
42946W        W85999  13.558  24.583  28.792 -0.1218  0.3732  0.3218
42947W        W86000   7.717  22.955  23.780 -0.0828  0.4851 -0.2456
42948W        W86001   2.697   5.633  26.715 -0.0050  0.3622 -0.1159
42949W        W86002   0.681  28.929  14.116 -0.0140  0.0946  0.0915
42950W        W86003   7.485   8.083  20.060 -0.0443 -0.1377 -0.3511
42951W        W86004  24.515  21.505  16.364 -0.0074  0.1884 -0.3789
42952W        W86005  12.006  19.206  26.274  0.3910 -0.0221 -0.0868
42953W        W86006   3.317   5.169  14.642  0.4362 -0.1520  0.2295
42954W        W86007  13.280  22.746  27.532 -0.2162 -0.0096 -0.1280
42955W        W86008  20.491   0.368  27.074  0.1129 -0.1335 -0.3934
42956W        W86009  17.908   4.705  20.873 -0.2963  0.2229  0.0214
42957W        W86010  20.395  26.758  21.449 -0.0808 -0.0450  0.1026
42958W        W86011  10.667  17.143  28.196 -0.0582 -0.1240 -0.1879
42959W        W86012  14.515  13.957  22.767  0.2081 -0.0253 -0.3181
42960W        W86013  11.773   8.048  22.868 -0.1008  0.2995  0.3520
42961W        W86014  12.049  13.757  28.040 -0.0470 -0.1412  0.3811
42962W        W86015  30.304  21.650  16.236  0.1952  0.1397  0.2282
42963W        W86016   1.552   1.105  15.551  0.0443 -0.0362  0.2243
42964W        W86017   0.473  18.962  19.214 -0.0849 -0.2827 -0.1539
42965W        W86018  22.521   4.529  17.853  0.1223 -0.0105 -0.2086
42966W        W86019   5.171  24.461  20.278 -0.2792 -0.3090  0.1680
42967W        W86020  16.449   6.303   7.510  0.0121 -0.2005  0.2708
42968W        W86021  20.482  31.799  19.465 -0.1277 -0.3129  0.1268
42969W        W86022   8.815  10.129  15.421  0.0463 -0.0566  0.5203
42970W        W86023   9.282  20.179  13.982  0.2139  0.1073 -0.2196
42971W        W86024   7.966  13.123  25.657  0.0486 -0.1542 -0.1268
42972W        W86025   7.415  31.597  15.772  0.1181 -0.3106 -0.3346
42973W        W86026  22.078  16.264  17.302  0.2450  0.0466  0.1125
42974W        W86027   5.414  17.041  14.833 -0.1782 -0.0074 -0.0442
42975W        W86028   6.520  10.690  14.897 -0.0253 -0.0543  0.1914
42976W        W86029  29.588  29.196   8.099 -0.0736  0.0347  0.1771
42977W        W86030  29.677  34.390  16.898 -0.0875 -0.1750 -0.2248
42978W        W86031   1.863   8.242  21.191 -0.2662 -0.0155  0.2181
42979W        W86032  28.270   8.550  15.653  0.1176 -0.1225 -0.1619
42980W        W86033  19.984  21.114  17.549  0.0553  0.1566 -0.0399
42981W        W86034   0.036  10.208  24.132  0.0646  0.0046 -0.4771
42982W        W86035  20.622  31.005  16.273 -0.1032 -0.2620  0.2346
42983W        W86036  18.044   0.137  23.672  0.1734  0.2032  0.0528
42984W        W86037  11.987  32.387  17.180  0.0150 -0.0551 -0.2445
42985W        W86038   9.199  11.506  20.466  0.2384  0.1895 -0.0519
42986W        W86039  28.544  30.769  24.444  0.3408  0.2543  0.0925
42987W        W86040  27.475  20.708  23.304  0.0311 -0.0179 -0.1009
42988W        W86041  10.678  15.344  15.546  0.3314 -0.2859  0.2695
42989W        W86042  19.546  32.200  20.055  0.0788  0.0674  0.2265
42990W        W86043   3.181   8.760  19.307  0.0541 -0.0327  0.2300
42991W        W86044   4.197  19.925  23.205 -0.2993  0.3895  0.1186
42992W        W86045  33.093  30.313  28.956 -0.2952  0.1014 -0.1464
42993W        W86046   1.976  32.684  13.361 -0.0319  0.1543  0.0377
42994W        W86047   7.286  24.717  16.150 -0.1431 -0.0526 -0.0006
42995W        W86048   0.752   2.242  14.515  0.1942 -0.0167 -0.2143
42996W        W86049   8.057  25.098  26.806 -0.1564 -0.2778 -0.2374
42997W        W86050  32.516  26.080  15.465  0.1740 -0.0759 -0.2109
42998W        W86051  10.823  22.109  22.423 -0.1418  0.3371  0.0731
42999W        W86052  16.337   9.650  16.589  0.0267 -0.1003  0.0385
43000W        W86053  12.803   1.540  28.213 -0.0155  0.1455  0.3075
43001W        W86054  11.217   4.310  15.823  0.1663  0.0736  0.0275
43002W        W86055  10.662  13.550  17.281 -0.3427  0.1070  0.3943
43003W        W86056   6.986  20.089  15.689  0.3387  0.0127 -0.3889
43004W        W86057   8.719  20.253  13.240  0.1386 -0.2101  0.0391
43005W        W86058  20.877  15.927  15.290  0.0615  0.0614  0.2303
43006W        W86059  33.943  28.755  16.130  0.1163 -0.2011 -0.1365
43007W        W86060  16.029  17.624  27.906  0.2170 -0.2103  0.1136
43008W        W86061  33.676  22.997  14.496 -0.3485  0.0369  0.0294
43009W        W86062  10.653  14.241  27.181  0.0983 -0.0219  0.2652
43010W        W86063  33.153  19.351   2.512  0.2194 -0.1428 -0.1074
43011W        W86064  13.408   0.725  23.344  0.3295 -0.0774 -0.0123
43012W        W86065   7.448  11.684  22.979 -0.0445 -0.3746  0.0544
43013W        W86066  32.553  10.665  22.227 -0.2936 -0.0292 -0.1195
43014W        W86067   5.128  31.045  19.617  0.0548 -0.5500 -0.0278
43015W        W86068  30.905  14.479  15.295 -0.0197 -0.3857 -0.2015
43016W        W86069  23.987  19.985  19.930  0.0181  0.1184 -0.2140
43017W        W86070  13.752  26.007  20.849  0.0838  0.1153  0.0192
43018W        W86071  13.927  26.851  15.265 -0.1472 -0.3686  0.2972
43019W        W86072  29.173  22.413  15.910 -0.0499  0.0946  0.0778
43020W        W86073   2.622  14.175  26.640 -0.3154  0.1372  0.3546
43021W        W86074   4.326  11.212  20.036 -0.1498 -0.1044 -0.1088
43022W        W86075  12.050  33.124  23.816 -0.3288  0.1077  0.1023
43023W        W86076   5.054   8.325  18.815  0.1231 -0.0590 -0.0336
43024W        W86077   2.781   5.231  16.238 -0.3421 -0.1698 -0.0545
43025W        W86078  15.035  33.199  18.415 -0.3056 -0.0604  0.2007
43026W        W86079  13.505  11.780  18.267  0.0304  0.1327 -0.1285
43027W        W86080  16.065  32.042  14.476  0.0828  0.1051  0.3449
43028W        W86081   5.228  20.568  25.069  0.0032 -0.0623  0.0400
43029W        W86082   2.195  21.390  28.232  0.2383  0.3988 -0.2397
43030W        W86083  18.142   4.562  20.124  0.2782 -0.0333 -0.0921
43031W        W86084  23.634  20.029  13.950  0.2266  0.1986  0.2839
43032W        W86085  19.520   9.468  21.261 -0.1898 -0.2605 -0.1200
43033W        W86086  15.192   5.066  20.782 -0.0019 -0.0881 -0.0508
43034W        W86087  28.720  32.220  14.878  0.1427 -0.1178  0.2343
43035W        W86088  34.079  21.484  25.293 -0.1924  0.0033  0.1949
43036W        W86089   6.849  12.596  23.295 -0.1012  0.0482 -0.1673
43037W        W86090  11.316  30.644  20.906  0.0244  0.2465 -0.0761
43038W        W86091   2.234  31.880  15.824 -0.0689  0.2244  0.0478
43039W        W86092   3.636  14.817  18.759  0.1617  0.3585  0.1966
43040W        W86093   7.898   0.079  17.385 -0.0490 -0.1080  0.2467
43041W        W86094  26.089  21.496  18.306 -0.1237  0.0201 -0.0459
43042W        W86095  18.476  32.238  22.269 -0.0730 -0.0337 -0.0765
43043W        W86096  21.009  26.597  27.058  0.2777 -0.2368 -0.0138
43044W        W86097  23.815   6.762  24.081  0.1705  0.1313 -0.0817
43045W        W86098   2.230   8.179  25.291 -0.1713  0.0383  0.2539
43046W        W86099  13.843  10.965  23.126  0.1840  0.5143  0.0411
43047W        W86100  24.985  11.431   3.797  0.2867  0.3254 -0.2860
43048W        W86101  33.639  14.975  13.480  0.2240  0.0793  0.2348
43049W        W86102  11.385  13.994  17.698  0.1008 -0.1386  0.1613
43050W        W86103   3.274  12.596  17.226  0.2892  0.1841 -0.0968
43051W        W86104  14.111  11.521   8.332 -0.2808  0.1513  0.0277
43052W        W86105   8.225  25.671  23.353 -0.0471  0.0269  0.1598
43053W        W86106   0.679  29.550  18.960  0.2158  0.2218  0.0589
43054W        W86107  13.055   6.829  16.330  0.1863  0.0407  0.0484
43055W        W86108  22.634  11.808  22.169 -0.4330  0.2060  0.5105
43056W        W86109   5.019   3.591  21.427  0.0010 -0.3487 -0.3813
43057W        W86110   4.558  12.689  26.606  0.0579  0.0234  0.0872
43058W        W86111  17.664  19.871  14.097 -0.3641  0.1254  0.1377
43059W        W86112   9.091  19.047  15.442  0.1091 -0.1068  0.2404
43060W        W86113   7.841  25.141  16.159  0.0112  0.0171 -0.0704
43061W        W86114  16.634   9.526  17.549 -0.1550 -0.0890 -0.3181
43062W        W86115  11.755  12.189  17.852  0.1527 -0.0852  0.0631
43063W        W86116  27.666  16.939  24.286 -0.1905  0.0541 -0.0657
43064W        W86117  29.772   9.183  21.145  0.1666 -0.0152 -0.1513
43065W        W86118   5.777  13.451  26.864  0.3529 -0.2008 -0.0792
43066W        W86119  11.596  25.052  23.495 -0.2394  0.3981  0.4269
43067W        W86120  17.213   1.535  22.717  0.2145 -0.0454 -0.0095
43068W        W86121  11.331  12.367  20.337  0.2137  0.1129  0.1108
43069W        W86122  20.559  10.221  25.337 -0.2879 -0.0881 -0.0441
43070W        W86123  19.268  12.237  20.626 -0.0503  0.1568 -0.1416
43071W        W86124   2.280  27.038  18.137  0.1628  0.0303 -0.1072
43072W        W86125  19.183  26.682  20.625 -0.0918 -0.4604  0.3579
43073W        W86126   3.540  28.072  17.805 -0.1889 -0.0203 -0.0302
43074W        W86127  13.857  17.301  25.886  0.1103 -0.0056  0.1139
43075W        W86128  16.307   8.195  21.471 -0.0699 -0.0256 -0.0716
43076W        W86129  11.816  17.207   8.232  0.0557  0.1573 -0.1343
43077W        W86130   7.601  33.659  19.068  0.0838 -0.0332  0.2832
43078W        W86131  16.852  21.840  25.147  0.0753 -0.2025  0.2523
43079W        W86132   8.556  15.771  21.629  0.0995  0.2504  0.0280
43080W        W86133   2.226  15.401  13.187  0.0164  0.1268  0.0315
43081W        W86134   9.717  27.267  14.104  0.1818  0.0216 -0.1714
43082W        W86135   5.917  25.492   0.814 -0.2533  0.0258  0.1426
43083W        W86136  22.324  13.270  13.949 -0.1141 -0.1084 -0.0034
43084W        W86137  24.260  28.694   6.355 -0.1209  0.1259  0.1860
43085W        W86138  33.442  29.890  17.775  0.0404  0.0620  0.0765
43086W        W86139  19.778  26.777  17.882 -0.0879  0.3796 -0.2725
43087W        W86140  10.411   2.408  25.541  0.1855  0.0042  0.0287
43088W        W86141   2.544  23.621  17.550 -0.1719 -0.0677  0.2087
43089W        W86142   3.552  24.620  17.774 -0.0930 -0.1943 -0.1378
43090W        W86143  26.618  22.734  18.482 -0.0365 -0.0540  0.6331
43091W        W86144   9.644  27.218  20.074  0.1288  0.1035 -0.1240
43092W        W86145  34.624  16.354  16.795 -0.3652  0.0112 -0.4542
43093W        W86146   5.794  21.047  17.928 -0.1702 -0.1987  0.0126
43094W        W86147   8.788  23.483  16.504 -0.0536  0.0494 -0.1972
43095W        W86148   3.606  13.922   7.425 -0.0623 -0.1329  0.1417
43096W        W86149   7.271   9.480  15.907 -0.1805 -0.3495  0.1127
43097W        W86150  34.463  11.274  29.200 -0.0253  0.1273 -0.1376
43098W        W86151   6.187  33.714  28.622 -0.4344 -0.1777  0.0273
43099W        W86152   1.489  27.627  16.097 -0.0050  0.0489  0.3144
43100W        W86153   2.963  22.498  15.183  0.0795  0.1807 -0.0001
43101W        W86154  32.769  18.261  18.029 -0.0819 -0.1724 -0.1199
43102W        W86155  27.177  19.299  27.574  0.1737 -0.0806  0.1812
43103W        W86156  16.230  24.354  21.999 -0.1658 -0.5470  0.3065
43104W        W86157  30.576  13.881  19.511  0.1963 -0.0947  0.2050
43105W        W86158  10.434  24.992  21.099 -0.0030  0.0485  0.1030
43106W        W86159  32.417  11.291  25.833  0.2614  0.1594  0.3357
43107W        W86160  12.365  24.156  22.641  0.2862  0.1580  0.0852
43108W        W86161  13.380  14.791  15.172 -0.0677 -0.1915  0.1609
43109W        W86162  10.569  14.043  22.816  0.0154 -0.1121 -0.1507
43110W        W86163  17.264  16.740   3.011 -0.2708  0.1320 -0.0264
43111W        W86164   6.379  25.764  17.702 -0.2410 -0.0752  0.0755
43112W        W86165   9.737  11.404   0.217 -0.1700  0.2791 -0.1934
43113W        W86166  27.190  14.221  28.958 -0.1566 -0.0054 -0.2395
43114W        W86167  14.262  11.946  22.721  0.2109 -0.2783  0.0307
43115W        W86168  31.082  26.428  28.131 -0.0752  0.0080  0.0940
43116W        W86169  19.627  29.023  18.254  0.1897  0.0731  0.1177
43117W        W86170  12.950  24.622  23.140 -0.0204 -0.2051 -0.0887
43118W        W86171  21.744   5.492   3.470  0.0286 -0.0657 -0.2146
43119W        W86172  33.619  29.896  25.055 -0.2191  0.1835 -0.4202
43120W        W86173  21.122  22.419  23.616 -0.0314 -0.1646  0.3123
43121W        W86174  10.769  30.540  23.487 -0.0954 -0.2510  0.1275
43122W        W86175  17.448  26.911   5.698 -0.1416  0.1469  0.0072
43123W        W86176  13.930  12.139  19.928  0.1674 -0.0224 -0.0986
43124W        W86177   7.826  15.039   5.281  0.1480  0.0243  0.0520
43125W        W86178  33.093  18.137   0.708  0.1873  0.1995  0.0422
43126W        W86179  32.543  26.522  21.818 -0.0032 -0.1904 -0.1061
43127W        W86180   5.664  21.716  19.085 -0.1910 -0.0623 -0.0408
43128W        W86181  29.176  23.900  21.497 -0.0774 -0.1340  0.3554
43129W        W86182  33.842  16.385  22.290  0.0212 -0.2173  0.0010
43130W        W86183  22.775  21.936  21.308  0.1363  0.4970 -0.0888
43131W        W86184   9.088  16.907  20.005  0.0189  0.2722 -0.3213
43132W        W86185   3.664  31.185   5.676 -0.0986 -0.3635 -0.1128
43133W        W86186   9.734  28.538  12.334  0.0892 -0.0909  0.1661
43134W        W86187   7.405  12.794  18.633  0.1117  0.2884 -0.0042
43135W        W86188   6.260  26.850  16.437  0.1272 -0.1109 -0.0653
43136W        W86189   3.689  16.524  15.597  0.0292  0.0317  0.1246
43137W        W86190   6.942  26.548  14.346 -0.1745 -0.0742 -0.0151
43138W        W86191  18.119   6.886  21.985 -0.1896 -0.2506 -0.0041
43139W        W86192  19.115  12.124   8.005  0.0489 -0.0663  0.2797
43140W        W86193   4.075  23.885   5.320  0.0884  0.0611  0.2169
43141W        W86194  16.874  15.386  14.688 -0.1132  0.0980 -0.0850
43142W        W86195   1.745  20.544  16.230 -0.0282 -0.0444 -0.2010
43143W        W86196  33.119  10.297  14.380  0.1650 -0.3192  0.1142
43144W        W86197  16.065  13.600  25.532  0.2296  0.3084  0.1979
43145W        W86198  10.155  15.657   1.633 -0.2198 -0.3542 -0.0951
43146W        W86199  11.946  14.911  20.122  0.2276  0.1067 -0.0010
43147W        W86200   2.548  11.531  28.281 -0.2861  0.2293  0.1459
43148W        W86201   4.965  13.666   7.158 -0.0584  0.1939  0.0399
43149W        W86202  28.992  10.398  18.965 -0.0520 -0.2799  0.2123
43150W        W86203   9.771  22.440  13.993 -0.0056 -0.0271 -0.0925
43151W        W86204  19.195  11.035  14.922 -0.3619 -0.0069  0.1011
43152W        W86205  12.861  17.115  25.830 -0.1510  0.2453  0.1213
43153W        W86206  11.769  19.887   7.610  0.1085  0.1060  0.1582
43154W        W86207  34.430  18.587  26.053 -0.4020  0.1938 -0.0021
43155W        W86208  34.142  15.633  24.143 -0.1147  0.1659  0.1129
43156W        W86209   4.668  14.323  15.188  0.0279 -0.0651  0.1957
43157W        W86210  13.334   9.510  20.904 -0.0573  0.3964  0.1925
43158W        W86211  18.960   9.995  25.382 -0.0103 -0.0827  0.4702
43159W        W86212   5.302   7.187  22.497 -0.1819  0.0597 -0.2470
43160W        W86213  26.700   3.339  15.680 -0.1723 -0.1996 -0.1765
43161W        W86214  23.887  23.025  13.909  0.0475 -0.0617 -0.0678
43162W        W86215  26.832   9.185  25.016  0.0242  0.1187  0.0265
43163W        W86216  14.357  25.610   4.459 -0.0485  0.1122  0.2179
43164W        W86217  13.138  20.740  21.077 -0.1715  0.0255  0.2235
43165W        W86218   8.203  21.451  21.644  0.0176 -0.1445  0.1023
43166W        W86219  27.018   3.790  23.764 -0.0552 -0.1497 -0.1377
43167W        W86220   8.964   9.495  16.745  0.0062  0.1352  0.1729
43168W        W86221  26.673  19.477  18.062 -0.3650  0.3234  0.2924
43169W        W86222   8.924  11.814   1.127 -0.1964 -0.1446 -0.2481
43170W        W86223  34.586  28.582  22.690 -0.2539  0.1122  0.1536
43171W        W86224  11.801  20.425  19.131  0.1051  0.1453  0.0392
43172W        W86225   7.367   7.921  21.281  0.3545  0.2402 -0.0444
43173W        W86226  15.946  26.833  15.402 -0.0762  0.0019  0.1465
43174W        W86227   7.119   6.724   0.574  0.0491 -0.0563  0.0522
43175W        W86228  32.138  18.906   3.276 -0.0798 -0.0094  0.0175
43176W        W86229  30.867  34.288  15.564  0.3352 -0.0950  0.2138
43177W        W86230  11.954  26.127  24.859 -0.0503  0.1060 -0.0246
43178W        W86231  14.472  32.073  14.273  0.3311 -0.1048  0.2357
43179W        W86232  21.667  16.466  16.272  0.1314  0.3720 -0.0493
43180W        W86233   1.895  15.644  16.226  0.0065  0.1834 -0.0175
43181W        W86234  14.493   6.823  25.801 -0.2669  0.0312 -0.0057
43182W        W86235  14.656  14.358   9.641 -0.0268  0.0288  0.0744
43183W        W86236  32.062   5.857   7.048 -0.0875  0.0882 -0.1803
43184W        W86237  13.825   8.299  24.997 -0.0136  0.1242 -0.1840
43185W        W86238  14.491  13.546  19.233  0.1229  0.0412  0.3442
43186W        W86239   6.360   9.491  25.136  0.1688 -0.1203  0.0717
43187W        W86240   3.333  17.211   6.296  0.2542  0.0851  0.2537
43188W        W86241  11.967   1.422  13.543  0.1795  0.0586 -0.0975
43189W        W86242  11.358  14.458  17.966  0.3168  0.1280 -0.1530
43190W        W86243  11.701  28.033  20.343  0.0138 -0.2294 -0.1430
43191W        W86244   7.901  12.845  20.162 -0.2556  0.1032  0.1996
43192W        W86245  20.381   9.375   5.577 -0.2205  0.1713 -0.1264
43193W        W86246   2.629  16.369  14.217  0.0462  0.0828  0.2612
43194W        W86247   2.933  20.814  16.644 -0.2348  0.2741 -0.0069
43195W        W86248   4.122  20.876  23.396  0.2076 -0.0374 -0.0986
43196W        W86249   0.817  22.222  17.679 -0.2812  0.0917 -0.1960
43197W        W86250  19.511   9.724  19.810 -0.2616 -0.0719 -0.1944
43198W        W86251  13.510  12.567  19.090  0.1881 -0.1637 -0.1733
43199W        W86252  20.593   1.588  21.479  0.2564  0.3063  0.0601
43200W        W86253  11.895  24.511  17.040 -0.0201  0.4594 -0.1337
43201W        W86254  23.993  16.456  17.162 -0.1056 -0.1269  0.3539
43202W        W86255  30.937  18.629  16.753  0.2193 -0.1962 -0.0663
43203W        W86256  28.561  25.521  15.872  0.5133 -0.0209 -0.2136
43204W        W86257  12.950  11.887   2.192  0.0350  0.2096 -0.0733
43205W        W86258  10.829  22.052  18.719  0.1204 -0.0435  0.3493
43206W        W86259  14.828  23.053  22.762 -0.1559  0.0240  0.0470
43207W        W86260  15.635  11.295  23.079 -0.2566 -0.0736 -0.0390
43208W        W86261   9.721  32.567  16.470 -0.0620 -0.3225  0.1337
43209W        W86262   4.428   9.798  19.854 -0.2037  0.3160 -0.0318
43210W        W86263  12.565  20.908  18.591  0.3878  0.0815 -0.1276
43211W        W86264   2.509  14.471  23.703 -0.1312  0.2123 -0.2808
43212W        W86265  21.273  34.119  16.210  0.0906  0.0225 -0.1083
43213W        W86266   7.636   9.478  27.726  0.0119  0.0610  0.0481
43214W        W86267  12.588   7.592   0.266 -0.1768 -0.2411  0.1284
43215W        W86268   0.702   6.911  18.238 -0.1546 -0.1576 -0.2596
43216W        W86269  28.258  28.248  18.535 -0.2332  0.0705 -0.0904
43217W        W86270   9.430  21.064  17.608  0.0822 -0.1035  0.1645
43218W        W86271  14.560  15.490  23.960  0.3238 -0.2486  0.2400
43219W        W86272  12.443  22.422  16.041  0.2745  0.1509 -0.1918
43220W        W86273  10.134  24.447  13.369 -0.3116 -0.1885  0.0878
43221W        W86274  16.327  23.366  16.911 -0.0538  0.2528 -0.2385
43222W        W86275  32.313   1.030  21.189  0.3007 -0.0193  0.1238
43223W        W86276   8.230  22.612   6.966  0.1617  0.0055  0.0767
43224W        W86277  11.912   5.638  23.115  0.1366  0.0093 -0.1240
43225W        W86278  14.501  12.783  16.260 -0.0325  0.0497  0.0169
43226W        W86279  26.603  13.711  28.060  0.0018  0.0966 -0.2039
43227W        W86280   1.446   4.013  20.551 -0.2365  0.0346 -0.0939
43228W        W86281  10.840  16.288  21.574 -0.1333 -0.1797  0.1042
43229W        W86282   0.606  21.211  28.856  0.1339 -0.1722 -0.0446
43230W        W86283  32.128   5.896  29.138  0.0036  0.0285  0.2816
43231W        W86284  33.599  24.807  26.722 -0.1935  0.4789 -0.0356
43232W        W86285  11.129  29.865  17.442  0.1926 -0.0107  0.0355
43233W        W86286   2.324  16.118  13.936  0.0608 -0.3076 -0.1215
43234W        W86287  20.071  28.553   0.365 -0.3277 -0.0186 -0.2949
43235W        W86288   3.671  10.174  14.808  0.0971  0.0507  0.0066
43236W        W86289  14.181  12.363  23.338 -0.4636  0.0642 -0.2354
43237W        W86290   3.871  19.280  16.219  0.1048  0.1803 -0.3742
43238W        W86291  11.837  18.540  16.038  0.1685  0.2982 -0.0132
43239W        W86292  16.814  14.195   3.316  0.1628 -0.1424  0.1092
43240W        W86293  27.802   6.213  28.740  0.2310 -0.2673  0.3514
43241W        W86294  25.596  23.041   4.878  0.4056  0.4123  0.1163
43242W        W86295  18.648   6.321  14.534  0.1618 -0.0260 -0.1186
43243W        W86296  18.072  31.921  22.876 -0.1087 -0.1255  0.0899
43244W        W86297   3.945  19.448  19.501 -0.1751 -0.0789  0.1107
43245W        W86298  20.047  12.110  14.749 -0.1733 -0.2571  0.0611
43246W        W86299   3.446  13.867  24.683 -0.1677 -0.0430 -0.0388
43247W        W86300   2.015  13.384  17.762 -0.1564  0.1563 -0.1268
43248W        W86301  10.494  17.197  17.213  0.3062 -0.0384 -0.1300
43249W        W86302  32.533  33.807   7.073 -0.1459  0.2410  0.0052
43250W        W86303  13.611   7.721  19.949  0.1019  0.1884  0.1855
43251W        W86304   1.032  14.312  21.109  0.0042  0.0066  0.4181
43252W        W86305   8.925  11.946   0.089  0.1500  0.3188  0.1682
43253W        W86306   8.339  22.927  15.362  0.1236  0.3903 -0.3135
43254W        W86307  14.590   9.618  28.685 -0.1201 -0.1104  0.1082
43255W        W86308  11.277  30.027  22.796 -0.0617 -0.4719  0.0716
43256W        W86309  17.732  18.776  13.453  0.2990  0.3531  0.2023
43257W        W86310  30.033  32.092  20.641 -0.2069 -0.0160  0.1562
43258W        W86311   2.101   4.512   3.040  0.0241 -0.0122  0.2538
43259W        W86312  28.213  23.010  22.492 -0.2158 -0.1550 -0.1476
43260W        W86313  12.161   6.315  27.719 -0.2809  0.1048 -0.1453
43261W        W86314   9.371  16.669  21.049  0.0548  0.1251 -0.0224
43262W        W86315  12.163   8.019  21.689  0.1295  0.2250  0.1353
43263W        W86316  12.122  17.749  24.661 -0.0058 -0.2506 -0.1362
43264W        W86317   8.075   2.868  20.647  0.1600 -0.0018  0.0698
43265W        W86318  19.605  17.833  13.932  0.2436 -0.0253  0.0114
43266W        W86319  30.116   9.787  19.331 -0.1939  0.1148  0.1753
43267W        W86320   8.502  30.956  18.537  0.1230  0.0157 -0.1675
43268W        W86321   6.772  25.062  19.012 -0.1505  0.3914  0.2138
43269W        W86322   6.293  27.026  26.251  0.0858  0.2421  0.0642
43270W        W86323  29.588  32.828  18.485 -0.1189 -0.0912 -0.3229
43271W        W86324   9.512   4.611  21.734 -0.1731  0.2719  0.0235
43272W        W86325  29.061  23.895  25.277  0.1275  0.2907 -0.4802
43273W        W86326   4.471  20.460   4.500 -0.1764  0.1060 -0.4670
43274W        W86327  13.767  13.111  15.722 -0.0431 -0.0884  0.0307
43275W        W86328  14.335  27.012  15.971  0.2062 -0.1242 -0.0745
43276W        W86329  11.479  24.524  28.437  0.1098 -0.1550  0.0360
43277W        W86330  11.189  25.292  17.385  0.1994 -0.1466 -0.1822
43278W        W86331  13.847   6.552  18.023 -0.2774 -0.3582 -0.1157
43279W        W86332  16.018   0.903  15.073  0.1575  0.1807 -0.0906
43280W        W86333   3.276   8.663  14.868  0.1113  0.1134  0.3362
43281W        W86334  14.163  31.812   3.211  0.3161 -0.2756  0.1478
43282W        W86335  16.356  22.346  13.882  0.1057  0.3161  0.3772
43283W        W86336  19.937  20.710  19.840  0.2006 -0.1980  0.0043
43284W        W86337   7.889  10.097   1.979 -0.0695 -0.0349 -0.2116
43285W        W86338  23.530  14.531  21.138  0.1579  0.2396  0.1005
43286W        W86339   4.648  25.137   8.697  0.0732  0.0241  0.1324
43287W        W86340  28.012  15.040  20.649 -0.0230  0.0585  0.0288
43288W        W86341  10.084  30.843  18.230  0.0247  0.2077  0.2047
43289W        W86342   4.837  20.836  28.851 -0.0913  0.1664  0.1621
43290W        W86343  21.843  10.306  25.570  0.3908  0.0097 -0.0264
43291W        W86344  14.111  18.459  24.958 -0.0256  0.2971  0.0528
43292W        W86345   8.745   8.864   8.555  0.0667 -0.1374  0.3091
43293W        W86346   0.404   0.755  19.807 -0.2712 -0.0727 -0.0712
43294W        W86347  34.177   1.183  18.570 -0.1103 -0.1634 -0.0348
43295W        W86348  30.272  16.367   5.357  0.2857  0.2983 -0.2268
43296W        W86349  18.219  15.572  13.860  0.0384 -0.0554  0.2260
43297W        W86350  19.419  15.350  21.737  0.3566 -0.1098  0.1586
43298W        W86351  11.038  14.911   6.939 -0.1098 -0.1444 -0.0654
43299W        W86352  18.299   0.732  26.970  0.0744  0.3072  0.2215
43300W        W86353  19.710  31.396  19.882  0.1659 -0.2349  0.1947
43301W        W86354  12.956  16.487  25.855 -0.2319 -0.1419 -0.0986
43302W        W86355   3.123  17.690  24.023 -0.3181  0.2652 -0.1076
43303W        W86356  16.104  20.642  27.056 -0.3455  0.0101 -0.4133
43304W        W86357   7.998  12.864  24.719  0.3651 -0.1970  0.1605
43305W        W86358  16.385   2.444   8.905 -0.3220  0.2579 -0.1206
43306W        W86359  21.563   0.734  23.801  0.1286  0.0807 -0.2035
43307W        W86360  14.738  19.532   2.279 -0.1737  0.0245  0.2531
43308W        W86361  31.658   9.200  28.728 -0.2004  0.2557  0.0484
43309W        W86362   9.585  24.499   1.265  0.1703 -0.1027  0.1063
43310W        W86363  16.307  12.334   9.213  0.1441 -0.0013 -0.0343
43311W        W86364  33.008  32.433  14.770 -0.1855 -0.1492  0.1108
43312W        W86365  22.998  14.427  21.043 -0.1233  0.1356 -0.0911
43313W        W86366   5.940  17.839  20.649 -0.3490 -0.2254 -0.1348
43314W        W86367   7.466   8.467  18.529 -0.2742 -0.0260 -0.0650
43315W        W86368  25.314  29.816  16.790  0.0215 -0.0454  0.0590
43316W        W86369   4.732  24.733  26.643  0.0565 -0.1576  0.1042
43317W        W86370   8.965  27.259  20.072  0.0784 -0.0141 -0.3246
43318W        W86371  34.107  20.791  19.278  0.0863  0.1535  0.1724
43319W        W86372   7.003  14.351  18.415 -0.1021  0.0395  0.0654
43320W        W86373  20.927   6.448  18.346  0.0244 -0.0485 -0.0505
43321W        W86374   4.634  17.663  15.769  0.0736  0.1066  0.2584
43322W        W86375  15.989  10.122   1.328  0.3123 -0.1926  0.1742
43323W        W86376  22.036  12.898  24.942 -0.0551  0.3290 -0.1186
43324W        W86377  33.366  27.056  12.699 -0.0982  0.3454 -0.1323
43325W        W86378  31.280  29.505   3.121 -0.3737  0.2183 -0.1324
43326W        W86379  20.630  11.291  23.238  0.0168  0.0111  0.3577
43327W        W86380  20.473  22.469  22.546  0.0323  0.1091  0.1967
43328W        W86381   5.290  22.630  27.325 -0.2433  0.1908  0.0584
43329W        W86382  31.129   9.854  22.138  0.0596  0.1421  0.2290
43330W        W86383   8.309  17.277  27.845  0.0152  0.5082 -0.0779
43331W        W86384   6.631  19.723   8.207  0.2397 -0.3495 -0.0197
43332W        W86385   0.046   8.199   6.820  0.1893 -0.1797 -0.1412
43333W        W86386  13.699  21.161  24.727 -0.3202  0.1669  0.1004
43334W        W86387  15.726  21.969  27.230 -0.0457 -0.0628 -0.2438
43335W        W86388   3.510  14.055  15.620  0.3359 -0.2311 -0.1008
43336W        W86389   3.484  13.920  16.335  0.2115  0.1210 -0.1541
43337W        W86390   3.567  20.284  29.146  0.2380 -0.0690 -0.0685
43338W        W86391  33.691  18.903  16.244 -0.1647  0.0969  0.1336
43339W        W86392   8.111  33.140   8.252 -0.1442 -0.0818  0.0957
43340W        W86393   8.023  16.415   1.206  0.4013 -0.2504 -0.0996
43341W        W86394  15.323  13.205  21.100  0.1708  0.1483  0.3811
43342W        W86395   1.968  13.834  27.170 -0.0743 -0.4008 -0.0278
43343W        W86396  31.026  26.530  23.136  0.1878  0.1089 -0.4569
43344W        W86397  12.636  18.086  28.350 -0.0025  0.4412  0.3728
43345W        W86398  11.085  17.413  20.760  0.1164 -0.0054  0.0895
43346W        W86399  27.475  31.899   3.579  0.1032  0.3259 -0.6343
43347W        W86400  20.837  22.891  16.701  0.4434  0.1220  0.0314
43348W        W86401   2.481  15.567  26.886 -0.4182  0.0190 -0.0320
43349W        W86402   2.180   4.720  17.508 -0.0566 -0.2601 -0.1333
43350W        W86403  12.227  20.145   2.901  0.2011  0.1591 -0.1241
43351W        W86404  11.179  11.369   3.966 -0.2443  0.1850 -0.0602
43352W        W86405  15.912  29.329  20.177 -0.1596  0.1550 -0.0639
43353W        W86406  29.219  26.583  22.012  0.0741 -0.2994  0.0576
43354W        W86407   9.325   5.202  26.116 -0.1498 -0.2164 -0.0495
43355W        W86408  19.648  14.404  20.297  0.0374 -0.0010 -0.0980
43356W        W86409  28.237  29.122  19.121  0.1085 -0.0866 -0.2597
43357W        W86410   1.642  12.415  26.134 -0.3191  0.2182  0.1608
43358W        W86411  10.843   7.842  10.190  0.1457  0.0357 -0.0444
43359W        W86412  23.858  17.984  26.048 -0.2529 -0.1549  0.1261
43360W        W86413  14.304  23.402  19.600 -0.3313  0.1564  0.3432
43361W        W86414  20.722  12.358  14.176  0.0194  0.0933  0.2453
43362W        W86415   4.315  17.363  14.363 -0.0055 -0.0878  0.0725
43363W        W86416   1.521   0.221  23.963 -0.1457 -0.0375  0.1516
43364W        W86417   1.800  31.562  19.910 -0.1881 -0.2414 -0.1268
43365W        W86418   5.425   5.181  19.064 -0.0377 -0.0383  0.0779
43366W        W86419  11.386   4.307  16.350  0.1546 -0.1798  0.3524
43367W        W86420   4.180  29.946  19.984 -0.0885 -0.1528 -0.0187
43368W        W86421   5.627  27.008   2.274 -0.0431  0.2082  0.0522
43369W        W86422  18.406  13.626  13.456 -0.0862 -0.1298 -0.1582
43370W        W86423  33.207  21.767   5.295 -0.1873 -0.1236  0.0593
43371W        W86424   8.857  28.903  26.613 -0.0461 -0.2030  0.1814
43372W        W86425   5.600   9.200   0.582 -0.2098 -0.0359  0.0227
43373W        W86426  33.852  32.297  20.524  0.0980  0.0503  0.2079
43374W        W86427   1.449  30.197  15.295 -0.1248 -0.1636  0.0178
43375W        W86428  14.489  11.798  17.011 -0.1652  0.3565 -0.0326
43376W        W86429   8.087   5.106  21.076  0.1964  0.0528 -0.1075
43377W        W86430  13.069  21.677  25.055  0.1948 -0.2658  0.1504
43378W        W86431   4.894  17.030  18.352  0.0493 -0.0118  0.0702
43379W        W86432   8.483  20.599  25.426 -0.0475  0.1274 -0.0737
43380W        W86433   0.976  28.772  14.457 -0.0748  0.5584  0.0306
43381W        W86434  11.433  22.256  22.985  0.0216  0.0418 -0.0584
43382W        W86435   8.482  15.552  18.783 -0.2298  0.1919 -0.2122
43383W        W86436   5.560  10.821  22.448  0.0253  0.0251  0.1412
43384W        W86437  13.801  20.314  28.554 -0.1508 -0.3246  0.0108
43385W        W86438  10.923  13.721  18.565  0.3101 -0.2029  0.0747
43386W        W86439   2.559  30.841   9.614  0.0819  0.2616  0.1069
43387W        W86440  31.131   6.343  14.934 -0.2083 -0.0853 -0.2259
43388W        W86441  10.553  11.994  15.684 -0.3845  0.1288  0.1287
43389W        W86442  10.292  15.215   1.906 -0.3095 -0.1362  0.0352
43390W        W86443  18.286  21.423  22.394  0.0436  0.0290 -0.3764
43391W        W86444   4.434  19.164  13.403  0.0916  0.1285  0.0242
43392W        W86445  20.582  24.319  27.912 -0.2459  0.1653 -0.2229
43393W        W86446   9.170   4.711  27.325  0.1243  0.0136 -0.0879
43394W        W86447  20.227  10.548  24.210 -0.1216  0.0408 -0.4172
43395W        W86448  19.274  34.213  20.390 -0.3073 -0.1420  0.0770
43396W        W86449  13.606  22.989  16.379  0.2061 -0.0770 -0.0776
43397W        W86450  11.805   9.537  22.715 -0.2454  0.2220  0.1633
43398W        W86451  10.737  13.813  26.197 -0.3323 -0.3686  0.3577
43399W        W86452   1.462   8.739  25.222 -0.1772  0.1802  0.1326
43400W        W86453   6.507  11.500  26.786 -0.1137 -0.5210  0.0191
43401W        W86454  31.683  13.498  25.340 -0.1207 -0.0842 -0.2635
43402W        W86455  14.414  11.455   2.477  0.3531 -0.0835  0.1694
43403W        W86456  17.374  25.981  15.528 -0.3938  0.2794  0.0352
43404W        W86457   9.187  12.577  16.544  0.0534  0.2911  0.1443
43405W        W86458  18.945  23.053  16.071 -0.2315  0.1238 -0.0914
43406W        W86459  18.966  24.225  27.061  0.0730  0.1962  0.3459
43407W        W86460   0.879  23.144  25.950 -0.2005 -0.1129  0.0927
43408W        W86461  33.489  18.006   1.728 -0.1644 -0.1901 -0.2294
43409W        W86462  16.080   8.001  23.265 -0.1060 -0.3033  0.0937
43410W        W86463   4.920  12.649  14.680 -0.1032  0.1827 -0.0343
43411W        W86464  33.543   1.692  15.370 -0.1155 -0.1788  0.1509
43412W        W86465  31.323  24.266  16.858  0.2118 -0.0453 -0.1810
43413W        W86466  11.660  13.038  22.585 -0.1687 -0.0710 -0.1551
43414W        W86467   3.226  19.745   7.679  0.1289 -0.0408 -0.0552
43415W        W86468   9.956  27.845  21.342 -0.0356  0.1877 -0.0074
43416W        W86469   5.177  22.604  20.093 -0.2060 -0.0167  0.0916
43417W        W86470   3.816  20.732   7.345 -0.0785 -0.1088  0.0835
43418W        W86471   5.734  22.623  16.080  0.1117  0.1681 -0.2200
43419W        W86472  14.339  10.146  10.171  0.0258 -0.5356 -0.1175
43420W        W86473  14.377  18.403  20.919  0.2730  0.2513 -0.1477
43421W        W86474  30.277  26.392  18.685 -0.1212 -0.0108  0.2516
43422W        W86475  11.976  12.344   0.114  0.0543  0.3568 -0.0830
43423W        W86476   0.290  27.957  15.467 -0.3475  0.1166  0.1106
43424W        W86477   9.205  12.950  23.274 -0.4356  0.0460 -0.3243
43425W        W86478  31.024  20.496  17.868  0.0483 -0.2130 -0.1081
43426W        W86479  15.312   6.760  17.892  0.1796  0.1475 -0.1816
43427W        W86480  24.510  12.799  25.945 -0.0319 -0.0836  0.3677
43428W        W86481  28.882  24.958   7.300 -0.2951  0.0671 -0.1586
43429W        W86482   1.066   5.719  19.553 -0.0441  0.1845  0.3343
43430W        W86483   1.002  22.317   2.030  0.1406 -0.1418  0.3316
43431W        W86484  34.206  25.190  20.690  0.0249 -0.0164 -0.0662
43432W        W86485  14.812  18.821   0.568  0.0787 -0.0891  0.2072
43433W        W86486  31.868   8.072  23.520  0.0200  0.2592 -0.1154
43434W        W86487   0.685  13.957  13.650  0.2895  0.0198  0.0134
43435W        W86488  32.829  16.334  27.220  0.0062 -0.2091  0.1101
43436W        W86489  10.375  11.500  17.646 -0.1185  0.3288  0.0557
43437W        W86490  23.483  15.482  23.700  0.1628  0.1600  0.0325
43438W        W86491  16.756  29.739  17.335 -0.2282 -0.2942 -0.1334
43439W        W86492  14.203  11.004  18.003  0.1221  0.3979 -0.0928
43440W        W86493  15.560  24.690  26.332  0.1449  0.1093  0.2377
43441W        W86494  11.489  32.632  26.877  0.1270 -0.2233  0.1528
43442W        W86495  17.011   9.033   5.287 -0.2554  0.0115  0.1089
43443W        W86496  23.130   5.855   7.989 -0.1515 -0.1661 -0.2408
43444W        W86497   0.029   3.714  22.419  0.2036  0.0537 -0.1528
43445W        W86498   6.687  22.016  16.540 -0.0611 -0.0888 -0.1582
43446W        W86499  14.658   2.466  14.774  0.0558 -0.1356  0.0238
43447W        W86500   4.994   5.945   9.484 -0.2030  0.0924  0.0086
43448W        W86501  12.628  23.431   1.593  0.0005  0.0233 -0.1253
43449W        W86502   7.379   9.429  21.615  0.1137 -0.2157 -0.0823
43450W        W86503  10.653  11.551  15.434  0.0466 -0.3463 -0.1712
43451W        W86504  16.245   8.777   0.390 -0.1219  0.1232  0.2142
43452W        W86505   5.315  18.330   0.686  0.1895  0.0430  0.3744
43453W        W86506   9.190  11.861  27.239  0.1136 -0.1428  0.2053
43454W        W86507  34.598  15.611  19.874 -0.0622  0.0224 -0.0371
43455W        W86508  13.287   7.045  17.327 -0.2693  0.0664  0.0603
43456W        W86509   1.410  19.327  19.681 -0.1279 -0.2273  0.2612
43457W        W86510   9.781  34.028   2.045 -0.1453 -0.2562 -0.0021
43458W        W86511  14.963   7.449  25.425  0.0557 -0.1621 -0.0302
43459W        W86512   2.946  15.512  21.082  0.0228 -0.0848 -0.3818
43460W        W86513  33.132  19.333   0.656  0.2142  0.0830  0.3230
43461W        W86514   3.811   1.588  19.187  0.1200  0.2498 -0.0666
43462W        W86515  11.524  16.791  23.950  0.1116 -0.0983  0.3559
43463W        W86516   0.712  13.047  18.018  0.4358 -0.1240 -0.0308
43464W        W86517  23.760   8.705  18.234  0.0917  0.1255 -0.0483
43465W        W86518  33.574  21.715  25.599 -0.1509 -0.1105  0.2090
43466W        W86519   3.830  16.057   6.828 -0.3397  0.0758 -0.0743
43467W        W86520  15.380   1.652   6.314 -0.1183 -0.2014 -0.0611
43468W        W86521  19.563   0.077  15.958 -0.3860 -0.2279  0.3359
43469W        W86522  17.234   8.053  25.319 -0.0450 -0.0571  0.2700
43470W        W86523  32.815   0.533  17.883 -0.1907  0.2718 -0.3716
43471W        W86524  32.519   1.177   6.064 -0.1170  0.0833 -0.1439
43472W        W86525  14.678  11.163  21.427  0.0686  0.1230  0.1481
43473W        W86526  14.145  15.384  26.776 -0.0714 -0.2672 -0.0281
43474W        W86527  32.607  21.764   2.351  0.1100 -0.0596 -0.1844
43475W        W86528  34.437  26.456  27.629  0.0113 -0.1319 -0.0891
43476W        W86529  29.798   9.880  22.613 -0.0543  0.2443  0.2511
43477W        W86530  19.387   0.449   4.067  0.0422 -0.0295 -0.0869
43478W        W86531   2.212   7.639   0.408  0.1699 -0.2392  0.2039
43479W        W86532   6.323  10.986  21.910 -0.1467 -0.1727 -0.1346
43480W        W86533   7.435  17.226  23.481 -0.3195  0.0849 -0.1731
43481W        W86534  14.402  31.730  21.138 -0.0567  0.1555  0.0295
43482W        W86535   6.828   9.582   2.530 -0.2897 -0.0170 -0.3394
43483W        W86536  29.229  21.968  15.144 -0.1151  0.0281  0.1991
43484W        W86537   4.329  18.993  24.181 -0.0665 -0.2051  0.0772
43485W        W86538   9.483   3.633   5.659 -0.1693  0.1102  0.1960
43486W        W86539  11.139  16.041   3.254 -0.1883  0.2288 -0.1376
43487W        W86540  17.991  11.661  16.545  0.3307 -0.0437 -0.0098
43488W        W86541  29.731  29.770  23.651 -0.0689 -0.1658 -0.0340
43489W        W86542  30.950  18.904  13.692  0.0263  0.3326 -0.0150
43490W        W86543  25.181  27.004  28.802 -0.3100 -0.1409 -0.0562
43491W        W86544  15.867   1.010  22.828  0.2334 -0.0323  0.2835
43492W        W86545  32.146  16.664  23.478 -0.2432 -0.2033  0.0833
43493W        W86546  11.273   6.684  24.503 -0.0299 -0.0294  0.2186
43494W        W86547   9.896  25.194   8.381 -0.0024 -0.0503  0.2395
43495W        W86548   8.036  22.780  20.386  0.0193  0.1369 -0.3757
43496W        W86549  27.835   9.468  28.798 -0.2892 -0.4965  0.1605
43497W        W86550  34.316  17.089   8.640 -0.1060 -0.0180  0.5020
43498W        W86551  23.029  11.330  16.175 -0.1706 -0.3954  0.2479
43499W        W86552  10.983  13.542  21.926  0.0942  0.0250 -0.0191
43500W        W86553  12.217  20.993  19.562 -0.0090 -0.2522  0.1140
43501W        W86554   9.163   3.397  17.354  0.0059 -0.1584 -0.4562
43502W        W86555  19.570   0.010  18.700  0.2212 -0.0141 -0.3201
43503W        W86556  24.166   6.671  22.365  0.1619 -0.0386 -0.0466
43504W        W86557  18.076  12.129  13.914 -0.0477  0.2008 -0.1290
43505W        W86558   2.158  14.058  25.232 -0.4492  0.0459 -0.1365
43506W        W86559  32.259  11.821   0.364 -0.2532 -0.1844 -0.1304
43507W        W86560  34.081   1.854  15.267 -0.3042  0.1680 -0.1803
43508W        W86561   1.986   3.970   3.243 -0.2070 -0.0894 -0.1426
43509W        W86562   3.258  23.867   5.368  0.3513  0.2604  0.0209
43510W        W86563  33.357  14.374  22.466  0.1220 -0.2303 -0.0801
43511W        W86564  10.584  24.559  15.380  0.0522 -0.3362 -0.4215
43512W        W86565   4.890  18.608   0.020 -0.1277 -0.2170  0.0829
43513W        W86566  16.412  34.059  24.232  0.0018 -0.0741  0.0527
43514W        W86567   9.414  15.245  15.849  0.1587  0.1329 -0.2133
43515W        W86568   3.765  23.288   8.651 -0.0999  0.3157 -0.1300
43516W        W86569  10.618   7.027  18.091 -0.1263 -0.1400 -0.1073
43517W        W86570  12.707  19.733  24.264  0.1625 -0.2426 -0.3077
43518W        W86571  19.029  13.104  23.690 -0.2235  0.2942 -0.2494
43519W        W86572   4.689  11.614   0.445 -0.2317 -0.2253 -0.0760
43520W        W86573  12.408  13.129   1.584 -0.0827 -0.2673  0.0630
43521W        W86574   0.302  12.514  13.728 -0.0397  0.2621 -0.1691
43522W        W86575   5.939  32.465  22.538 -0.1807  0.0403 -0.1034
43523W        W86576   8.437  12.082  26.832 -0.0373 -0.0958  0.0970
43524W        W86577  28.486   9.216   4.497 -0.1612  0.3898 -0.1722
43525W        W86578   9.317  12.776  27.373 -0.0798  0.1409 -0.0894
43526W        W86579  12.998  30.563  20.716  0.1266 -0.1439 -0.0306
43527W        W86580  13.428  14.744  17.463  0.2778  0.1341 -0.1753
43528W        W86581  21.156   3.346  26.618 -0.1463 -0.1485  0.3817
43529W        W86582   2.869  27.826  21.209  0.1740  0.0414  0.0971
43530W        W86583  26.064  22.528  15.026 -0.2154 -0.1535 -0.1635
43531W        W86584   2.444  10.204  26.392 -0.1934 -0.3715 -0.2694
43532W        W86585   6.290  17.368  14.680 -0.0298 -0.1645  0.2685
43533W        W86586  13.850  12.799  21.534  0.0121  0.1111  0.0041
43534W        W86587  22.805  32.989   3.523  0.3612  0.0690  0.1769
43535W        W86588  16.493  20.076   4.801  0.0164 -0.1135 -0.0344
43536W        W86589  10.154  29.102  23.388  0.0213 -0.0496 -0.0910
43537W        W86590  15.360  10.098   8.899 -0.2720  0.0998  0.2038
43538W        W86591  15.906  19.424   3.132  0.0115  0.1510  0.2564
43539W        W86592  13.660  25.472  28.592 -0.0609 -0.0927 -0.0779
43540W        W86593  23.449  26.026  18.375 -0.1947  0.0345  0.3276
43541W        W86594   3.347  13.240   2.941  0.0140 -0.0253  0.1625
43542W        W86595   5.136  20.132  16.947 -0.0260 -0.0579 -0.2744
43543W        W86596   5.040  10.716  22.102 -0.1595 -0.1536 -0.2286
43544W        W86597   3.369  13.249  21.723 -0.0451 -0.2137  0.0645
43545W        W86598  19.432   7.879  25.071 -0.1204  0.0845 -0.2638
43546W        W86599  32.368  22.043  18.761 -0.0519  0.2163  0.1047
43547W        W86600   4.795   8.883   3.412  0.4023  0.0563  0.0988
43548W        W86601  15.796  11.722  14.267  0.0328  0.0801 -0.1508
43549W        W86602   6.664  11.807   0.671  0.2614 -0.2694 -0.1962
43550W        W86603  13.259  29.559  18.399  0.0022 -0.0058  0.1969
43551W        W86604  28.664  29.895  24.118 -0.2113  0.3197  0.0294
43552W        W86605   6.042   8.480  17.794 -0.0689 -0.0353  0.0182
43553W        W86606  10.645   2.706  22.929 -0.2408 -0.0678 -0.2479
43554W        W86607   5.233  20.173   3.136  0.0981  0.1531  0.2102
43555W        W86608  18.349   2.190  22.711  0.0901  0.1207  0.2002
43556W        W86609  22.510  16.379   7.752 -0.0617  0.0139 -0.1557
43557W        W86610  18.605   6.273  28.754 -0.2723 -0.0073 -0.1399
43558W        W86611  13.821  27.153  20.123  0.2046  0.0857  0.0266
43559W        W86612   5.314  21.609   8.964  0.2465 -0.0300  0.0180
43560W        W86613  13.366  17.129  22.600  0.1467 -0.0915 -0.0919
43561W        W86614   6.584   8.187  15.893  0.0474 -0.1459 -0.0608
43562W        W86615   8.742  14.439  27.864 -0.1871  0.4146  0.1382
43563W        W86616   4.205  23.211   1.496 -0.0429 -0.2067 -0.0406
43564W        W86617  14.596  32.416   0.607 -0.2906 -0.0734  0.3607
43565W        W86618   3.933  18.652  21.264 -0.1417  0.1408 -0.0487
43566W        W86619  10.852  27.148  19.293  0.0650 -0.2057 -0.0861
43567W        W86620  14.391   4.322   1.621 -0.1198 -0.3879  0.2879
43568W        W86621  29.926  13.877  19.928 -0.0532  0.0968 -0.3092
43569W        W86622  10.546  18.990   0.748 -0.2695  0.0527 -0.3030
43570W        W86623  14.085  17.455   3.335  0.3199  0.0886 -0.0962
43571W        W86624   1.818  13.856  18.391  0.1483  0.1343  0.1686
43572W        W86625   0.658  25.244  19.415  0.1024 -0.3343  0.1042
43573W        W86626  17.512  24.432  18.094 -0.1823  0.3675 -0.3365
43574W        W86627  11.947  20.578   2.947 -0.0126 -0.0066 -0.1812
43575W        W86628   9.888  10.306  14.775  0.3150  0.1360 -0.1134
43576W        W86629   2.968  27.903  26.276  0.0560  0.1500  0.2809
43577W        W86630   2.315  15.020  15.072  0.2585 -0.1209 -0.1623
43578W        W86631  26.155   8.531   6.715 -0.3020  0.0917 -0.0689
43579W        W86632  20.934   9.243  27.929  0.0741  0.2847  0.3812
43580W        W86633   9.273   8.384  25.141  0.2748 -0.4657  0.1870
43581W        W86634   8.134  19.313  16.470  0.0911  0.0060 -0.0299
43582W        W86635   5.228  16.236  26.148  0.2001 -0.0352  0.0565
43583W        W86636  11.132  29.408  25.004  0.1070 -0.2161  0.2737
43584W        W86637  27.527  24.201  21.191  0.0569 -0.0971  0.0079
43585W        W86638  34.603   5.440  13.762 -0.2268  0.1297 -0.0096
43586W        W86639  13.973  19.132   2.768 -0.1208 -0.0409 -0.0764
43587W        W86640  28.144  26.792  18.707  0.2586 -0.1743  0.1549
43588W        W86641  21.713  18.365  17.130  0.1050  0.2888  0.0528
43589W        W86642  34.181  16.416  16.995 -0.1361 -0.1785 -0.2735
43590W        W86643  11.244   7.109  24.766 -0.3307 -0.0927 -0.1319
43591W        W86644  17.282  19.474  22.150 -0.4367 -0.0307 -0.0254
43592W        W86645  10.340  23.955  16.588 -0.1236 -0.0220  0.2016
43593W        W86646   4.229  26.854   2.040 -0.0372 -0.0289 -0.2374
43594W        W86647  18.450   8.748  23.296  0.3230 -0.2755  0.2753
43595W        W86648  12.217  19.532  22.509  0.0845  0.0507  0.1188
43596W        W86649   9.194  18.658  18.688  0.3151  0.1213 -0.1580
43597W        W86650  11.700  14.053  15.863  0.1219  0.3095 -0.4057
43598W        W86651  15.128  26.070   7.669  0.0481  0.2179 -0.0700
43599W        W86652   4.281  21.065  28.032 -0.0396 -0.1488 -0.0714
43600W        W86653   2.252   9.507   6.679  0.0036 -0.0954 -0.1501
43601W        W86654  10.032   7.652  11.024 -0.1677 -0.2758  0.1113
43602W        W86655  11.146  14.350  28.672  0.0371 -0.2858  0.1896
43603W        W86656   7.887  13.501  17.115  0.1045 -0.1266  0.2727
43604W        W86657   5.168  33.083  16.815  0.2235  0.1741  0.3205
43605W        W86658  11.483  32.031  17.748 -0.0876 -0.0741  0.3176
43606W        W86659  13.123  33.336  19.145  0.0380 -0.4482  0.0489
43607W        W86660   3.434   5.111  27.930 -0.0304 -0.0029 -0.2632
43608W        W86661   5.228  11.315  20.887 -0.1772  0.0923  0.1712
43609W        W86662  14.135  14.007   2.081  0.0535  0.2357  0.1343
43610W        W86663   3.260  26.897  23.707  0.1434  0.0455 -0.1456
43611W        W86664   5.661  22.665  19.237  0.0701 -0.0826  0.0727
43612W        W86665  15.345  26.466  14.558  0.1466  0.0774 -0.0937
43613W        W86666  19.432  26.819  19.760 -0.3899  0.0759  0.0858
43614W        W86667  17.691  28.180  15.536  0.3983  0.0763  0.3025
43615W        W86668   6.518  19.634   6.284 -0.2314  0.0595 -0.1365
43616W        W86669   4.100  20.913  14.583  0.3364 -0.0158 -0.1635
43617W        W86670   8.250  17.783  25.433 -0.4039 -0.1307 -0.1724
43618W        W86671  31.702  19.219  26.033  0.0406  0.0131  0.1216
43619W        W86672   8.406  25.033  15.357  0.0321 -0.1400 -0.0373
43620W        W86673   2.897  22.880  18.979  0.2168  0.2119 -0.0898
43621W        W86674  10.968   5.927   1.702 -0.3108 -0.0166  0.0064
43622W        W86675  11.160  15.501  28.647  0.2101 -0.0395 -0.1667
43623W        W86676  32.718  26.761   9.480 -0.2350 -0.0930  0.0562
43624W        W86677   4.955  21.983  24.569 -0.0013 -0.2324  0.0318
43625W        W86678  31.975  24.641  21.370  0.3136  0.1091  0.0855
43626W        W86679   0.652   5.876  16.036 -0.2971  0.4556  0.0896
43627W        W86680  16.971  23.517  28.975  0.0848  0.2183  0.1126
43628W        W86681  31.717  13.100  26.694 -0.0111  0.0143  0.0483
43629W        W86682  33.647  10.723   1.149  0.0117 -0.3564 -0.3303
43630W        W86683  33.463  30.204   6.638  0.0510  0.5086  0.0693
43631W        W86684  13.203  31.727  15.514  0.0312 -0.0689 -0.0936
43632W        W86685   5.226  20.883  20.213 -0.2555 -0.0514 -0.0832
43633W        W86686  13.135  19.642   8.662 -0.0061 -0.0673  0.3385
43634W        W86687  15.227  28.612  18.037 -0.0975  0.0433  0.0141
43635W        W86688  18.548  10.504   1.041 -0.0854  0.1397  0.2298
43636W        W86689  25.292  13.606  20.538 -0.3604  0.1410 -0.0865
43637W        W86690  12.370  16.344  17.780  0.3673  0.0273  0.0279
43638W        W86691   9.199   1.854  22.280 -0.3766  0.1600 -0.3073
43639W        W86692   2.301  22.953   8.533  0.0193  0.2464  0.1049
43640W        W86693   0.630   4.670  19.462 -0.1563 -0.0058 -0.2806
43641W        W86694   0.511  17.766  16.278  0.0018 -0.1821  0.0034
43642W        W86695   8.706  12.624  26.638 -0.0473  0.0887 -0.3345
43643W        W86696  28.626  18.420  22.562  0.1516 -0.3808 -0.0734
43644W        W86697   6.944   0.609   9.546  0.1262 -0.1877 -0.2572
43645W        W86698  16.590  12.164  16.452  0.0550  0.1196 -0.0505
43646W        W86699  12.331  22.429   5.067 -0.1770  0.0695 -0.0469
43647W        W86700   3.430  10.924  19.657  0.4765  0.4294  0.1024
43648W        W86701   9.283  16.345  18.277  0.0121 -0.1915 -0.1947
43649W        W86702   8.476  27.948  21.370  0.0869  0.0807 -0.0188
43650W        W86703   6.671  31.231   5.537  0.0344  0.1869  0.1040
43651W        W86704   8.385   6.704  28.600  0.1149 -0.0940 -0.1270
43652W        W86705  11.997  10.447   4.515 -0.1133  0.0595 -0.1071
43653W        W86706   1.136  18.900  19.522  0.0767  0.2684 -0.1435
43654W        W86707   1.909  27.682  27.142 -0.0737  0.1202  0.0543
43655W        W86708   8.540  10.270   7.494 -0.1588 -0.1782 -0.2657
43656W        W86709   0.537  21.182   9.619  0.1556  0.0525  0.1572
43657W        W86710   2.506   6.105  26.237 -0.0833  0.3386  0.1272
43658W        W86711  12.957  26.374   3.842  0.2458 -0.1081  0.4560
43659W        W86712  20.097  24.492  17.127 -0.2317  0.1804 -0.2328
43660W        W86713  18.241  11.005   2.280 -0.0576  0.1816  0.3845
43661W        W86714  34.591  23.568   0.188 -0.0769  0.0428 -0.0322
43662W        W86715  23.004   9.227  25.271  0.1264  0.0556  0.1118
43663W        W86716  10.406  24.235  20.413 -0.1140 -0.2550 -0.3594
43664W        W86717  17.879  13.211  25.872  0.0931  0.1009 -0.0944
43665W        W86718   3.856  27.586   3.248  0.2326 -0.1214 -0.0007
43666W        W86719   2.207  22.306   3.221 -0.0675  0.0008 -0.0801
43667W        W86720   7.919   3.544   9.368 -0.0623  0.3234 -0.4021
43668W        W86721   6.647  15.570   5.580 -0.1567  0.0837 -0.0779
43669W        W86722   7.464  31.541  22.504 -0.0916  0.1245  0.1989
43670W        W86723   3.005  32.138   1.316  0.0445 -0.1490 -0.2416
43671W        W86724  22.525  21.300   7.502  0.4516  0.0046  0.0591
43672W        W86725   7.372  25.970   5.395 -0.0645  0.2790 -0.0994
43673W        W86726  31.567  16.146   1.957 -0.1484 -0.3660 -0.0621
43674W        W86727   5.745   4.495  19.565 -0.2071  0.4057  0.1737
43675W        W86728  10.274   8.714   4.949 -0.0778  0.2773 -0.1454
43676W        W86729   6.207   7.012  18.587 -0.1286 -0.0138 -0.0645
43677W        W86730   7.217  14.690   8.416 -0.2344 -0.0105  0.0018
43678W        W86731  22.434  21.568  26.106 -0.0006 -0.1126  0.0043
43679W        W86732  34.277   7.743   3.407  0.0288  0.0486  0.4863
43680W        W86733   5.955  10.686  23.588 -0.1395  0.0186 -0.1827
43681W        W86734  28.945  18.702  27.963  0.3987 -0.2076 -0.1008
43682W        W86735   1.615  18.855   5.674 -0.1741  0.1280 -0.0808
43683W        W86736   6.560  10.105  25.139 -0.0207 -0.0941  0.3687
43684W        W86737  15.050   2.564  10.214 -0.2092 -0.1360  0.0309
43685W        W86738  28.774  19.000  18.755 -0.0070  0.1062  0.0827
43686W        W86739  23.492  27.864   6.953  0.1547  0.1700 -0.1725
43687W        W86740  16.595  11.242  16.325 -0.1514  0.0155  0.6639
43688W        W86741   8.855   4.839   3.882  0.1255  0.1011  0.0619
43689W        W86742   6.836   2.921  23.900 -0.2300 -0.1149 -0.3251
43690W        W86743   9.656  31.618   4.175  0.1786  0.1959  0.0036
43691W        W86744   5.153   9.111   3.017 -0.3410  0.0608  0.3069
43692W        W86745   8.129  25.048   8.036  0.2931  0.0904  0.2172
43693W        W86746   5.622  28.459  26.522 -0.1665 -0.2698 -0.2931
43694W        W86747   0.460  17.810   1.866  0.0497 -0.0768 -0.0987
43695W        W86748   9.449  19.833  24.997  0.0855  0.2210  0.1085
43696W        W86749   0.714  15.097  15.776  0.4910 -0.0978  0.1278
43697W        W86750  19.720  19.447  23.218  0.1465  0.1971 -0.3988
43698W        W86751  12.734  10.285   2.265  0.2482 -0.2542 -0.0225
43699W        W86752   5.013  13.536  21.012 -0.2798  0.3912  0.1454
43700W        W86753   3.949  18.934  19.187 -0.0579  0.0136  0.4528
43701W        W86754  10.778  21.133  15.915  0.2651 -0.0538  0.5581
43702W        W86755  22.063  10.607  15.846  0.0369  0.4037 -0.0624
43703W        W86756  28.552  14.007  18.956 -0.1283  0.1127  0.0898
43704W        W86757  13.198  21.606   1.031 -0.2486  0.1966  0.1729
43705W        W86758  11.966   9.353  15.888  0.3422 -0.1318  0.2182
43706W        W86759   2.689   6.513  24.234 -0.2506 -0.0576  0.0409
43707W        W86760   3.970  16.942  15.565  0.1415  0.1348 -0.2947
43708W        W86761  34.000  13.282  27.883 -0.0181 -0.0346  0.3088
43709W        W86762  33.459  10.176   2.991  0.2168 -0.0100  0.1054
43710W        W86763  12.012  16.535  28.653  0.1871 -0.0768  0.0178
43711W        W86764   7.174  20.387  22.290 -0.2296  0.2005 -0.1654
43712W        W86765  13.690  24.504  20.397 -0.1234 -0.4583 -0.0681
43713W        W86766  14.796  19.263  24.272  0.0872 -0.1601 -0.1181
43714W        W86767  21.041  27.334  22.051 -0.4562 -0.0665  0.0739
43715W        W86768  10.660   7.971  14.982  0.1217 -0.0613 -0.0508
43716W        W86769  32.298  33.033  26.277  0.2072  0.0872  0.1627
43717W        W86770   0.003  23.591  25.725 -0.1574 -0.0286  0.4655
43718W        W86771  28.519   7.358   3.097 -0.1105  0.2273  0.2334
43719W        W86772  18.070  18.921   5.143  0.2009 -0.0984 -0.0226
43720W        W86773  15.222  10.368   3.667 -0.0107  0.0611 -0.2073
43721W        W86774   6.445  34.632  21.596 -0.0658 -0.0182 -0.0046
43722W        W86775  16.143  27.125   7.336  0.2482 -0.1401 -0.2710
43723W        W86776  19.875  13.076   6.589  0.2899  0.0875  0.0510
43724W        W86777  12.295   1.366  22.202  0.1731  0.0082  0.1616
43725W        W86778  17.244  15.811  23.390  0.0274  0.1018  0.1731
43726W        W86779   4.366  13.840  24.997 -0.1577 -0.0764  0.0386
43727W        W86780  10.117  19.499  22.969  0.1162  0.0397 -0.0122
43728W        W86781   8.363  19.411  24.114 -0.2454 -0.0481  0.1417
43729W        W86782  19.643  10.284  20.522 -0.1316 -0.1460  0.0160
43730W        W86783  21.067   6.070  18.737  0.1670 -0.1669 -0.2138
43731W        W86784   0.548  19.089   9.579  0.0958 -0.0426 -0.0814
43732W        W86785   1.422  14.216  22.985 -0.0206 -0.1975 -0.0093
43733W        W86786   6.924  12.000  21.466 -0.0215 -0.1507 -0.2571
43734W        W86787   8.897  22.522  17.774  0.1079 -0.1616 -0.1967
43735W        W86788   9.629  14.068  14.761 -0.1421 -0.0129  0.1457
43736W        W86789  12.071  11.121  24.882 -0.0596 -0.1124  0.0020
43737W        W86790  16.723  20.878  14.580 -0.0796 -0.0961 -0.2165
43738W        W86791   5.624   3.191  25.412 -0.1638 -0.2349  0.6046
43739W        W86792  26.665  25.388  23.517 -0.0897 -0.0940  0.0782
43740W        W86793  30.915  16.035  22.100  0.3250 -0.0096 -0.1845
43741W        W86794  29.264  22.944  27.739 -0.1233  0.3134 -0.1579
43742W        W86795   2.599  29.754  14.893 -0.1525  0.2601 -0.0794
43743W        W86796  32.983  15.844  28.116 -0.1866  0.2147 -0.0413
43744W        W86797   7.452  22.770  22.801 -0.1353  0.1420  0.2383
43745W        W86798  26.124   8.755  21.175 -0.2600  0.0072 -0.0694
43746W        W86799  19.456   3.916  23.262  0.0814  0.1020 -0.1544
43747W        W86800  24.372  18.382   0.349 -0.1030 -0.0830  0.1462
43748W        W86801   0.243   4.587  14.548 -0.0946 -0.0842 -0.1854
43749W        W86802  24.892  11.002  19.578 -0.0800 -0.0036  0.1993
43750W        W86803   8.980  10.651  25.801 -0.0323  0.0675  0.1645
43751W        W86804   0.844  24.978  13.813  0.0285  0.1225 -0.0001
43752W        W86805   2.461   8.769  19.270 -0.0364  0.0277  0.0723
43753W        W86806   2.976  26.571  21.787  0.1474  0.0741 -0.0988
43754W        W86807  12.211  15.283  21.472 -0.0265 -0.0851  0.2619
43755W        W86808  10.282  19.479  23.791  0.0624  0.3273 -0.1174
43756W        W86809  16.719  16.213  14.430  0.1401  0.0161  0.1542
43757W        W86810  10.908  18.689  24.768 -0.0385  0.0281 -0.0461
43758W        W86811  15.517   5.391  21.008  0.1760  0.0313  0.0402
43759W        W86812  34.388   6.372   1.144 -0.0539  0.2047 -0.1775
43760W        W86813  31.456   0.687  20.346  0.3081 -0.0953 -0.0128
43761W        W86814   6.655  17.774   9.163 -0.3008  0.1658  0.1087
43762W        W86815  29.533  31.893  26.752  0.1070  0.3675 -0.0178
43763W        W86816   3.110   3.227   8.482  0.0115 -0.0988 -0.0618
43764W        W86817  14.024  19.054  18.702  0.1542 -0.0342  0.1280
43765W        W86818  13.483  22.587  16.646 -0.1694 -0.1818  0.0715
43766W        W86819  24.222  10.376  19.196  0.1921  0.2438 -0.0080
43767W        W86820   8.750  13.736  17.248 -0.3817  0.0092  0.1508
43768W        W86821  15.389   2.787  20.319 -0.0116  0.0429  0.0800
43769W        W86822  23.651   0.394  14.122  0.1666  0.0066 -0.2358
43770W        W86823   8.811  21.508  23.269 -0.0160  0.0728 -0.1747
43771W        W86824   4.585  17.435  25.940  0.0812 -0.0342 -0.2477
43772W        W86825   6.107  25.923  24.028 -0.2931  0.0187  0.0435
43773W        W86826  15.633  27.763  25.861  0.5234 -0.0124 -0.2910
43774W        W86827   3.777  22.260   1.408 -0.0828 -0.1720 -0.1878
43775W        W86828  33.098  22.082  21.081  0.0887 -0.3848  0.0270
43776W        W86829  29.373  22.621   1.758  0.1375 -0.1035 -0.2698
43777W        W86830  13.795  17.224   2.575  0.0121  0.0857 -0.2512
43778W        W86831  25.361  11.803  17.601 -0.1824  0.3467 -0.2946
43779W        W86832  13.825   7.347   4.410 -0.1013  0.0593 -0.0890
43780W        W86833  25.472  17.008  26.521 -0.4150  0.1566  0.2384
43781W        W86834   1.546   4.521  24.850  0.1411 -0.3355 -0.0815
43782W        W86835  12.729   4.073   4.002  0.2013  0.2917 -0.1185
43783W        W86836  21.970  11.603  16.606  0.0987  0.2095  0.1423
43784W        W86837  21.612  27.392  15.423 -0.0398  0.2572  0.0671
43785W        W86838  15.946   7.660  22.702  0.0991 -0.1192 -0.2063
43786W        W86839  12.283  20.308   1.730  0.2022 -0.2495  0.1589
43787W        W86840  28.457  19.308  19.795 -0.0027  0.2592 -0.2480
43788W        W86841   8.191   8.887  10.336 -0.0776  0.0115 -0.1177
43789W        W86842  31.630  11.404  18.418  0.1136 -0.2534 -0.1181
43790W        W86843  32.617   1.176  20.819 -0.1627 -0.1574 -0.1899
43791W        W86844   5.852  14.239  15.684  0.1155 -0.0047  0.1978
43792W        W86845   3.250  24.603   0.316  0.1519  0.4906  0.1066
43793W        W86846   8.442   0.880  26.402  0.0222  0.2680  0.3307
43794W        W86847   1.617  32.058   3.139  0.2180  0.0056 -0.1478
43795W        W86848   1.811   5.635  19.452 -0.0959 -0.1025 -0.1771
43796W        W86849  10.366  14.612   0.055 -0.5358  0.0111  0.1002
43797W        W86850  13.820   7.567  25.717 -0.2928 -0.0206 -0.0426
43798W        W86851  12.143   6.017  17.990  0.2488  0.2709 -0.1281
43799W        W86852   9.147  15.864   4.893 -0.1635  0.1929 -0.4207
43800W        W86853  14.457  17.986   4.519 -0.0027 -0.0535 -0.0232
43801W        W86854   8.672  18.710   2.147 -0.2285 -0.0662 -0.0318
43802W        W86855  19.701  12.746   5.788 -0.2477 -0.2210 -0.1827
43803W        W86856   5.275  25.176   5.544 -0.0983  0.3596 -0.2617
43804W        W86857   3.597  23.354  13.190  0.0814  0.3761  0.1790
43805W        W86858   7.671  15.215  24.149 -0.0123  0.1801 -0.2129
43806W        W86859   3.750  16.901   6.154 -0.1120  0.0819 -0.3453
43807W        W86860   5.029   1.670   0.845 -0.2652  0.2376  0.1709
43808W        W86861   6.938  24.295   6.271  0.0607  0.2978  0.3917
43809W        W86862   3.318   7.511  28.193  0.1969  0.0256  0.0178
43810W        W86863   6.728  12.026   4.085 -0.0537  0.1741 -0.0486
43811W        W86864  30.430  14.899   9.654  0.1468 -0.1595 -0.2024
43812W        W86865   5.900  18.974  17.101  0.1424 -0.0865 -0.0564
43813W        W86866  13.872  16.768  28.794  0.1968  0.1206  0.2278
43814W        W86867   9.526  12.738  29.114 -0.1896  0.1665 -0.1220
43815W        W86868  33.172  15.128  21.054 -0.2808 -0.1809 -0.0588
43816W        W86869  13.965   0.454  23.255 -0.0005  0.2488  0.1882
43817W        W86870   9.707  15.426  23.858  0.2971  0.4038 -0.2564
43818W        W86871   9.302  13.279  21.919  0.0036  0.0998 -0.2308
43819W        W86872  10.454   5.857   9.016  0.3952  0.1414  0.1194
43820W        W86873   5.596  14.501  19.759 -0.0043 -0.1394 -0.0986
43821W        W86874  32.072   8.847  16.371  0.0644  0.2321  0.0153
43822W        W86875  14.309  26.243   3.055  0.1587  0.3868  0.1836
43823W        W86876  23.446  17.952  14.805 -0.3151  0.0046  0.0005
43824W        W86877   6.437  15.684   9.632 -0.3927 -0.4664 -0.0955
43825W        W86878   2.744  11.005  21.020 -0.1349  0.3451  0.0898
43826W        W86879  31.713   4.768  21.992 -0.3753 -0.3375 -0.1443
43827W        W86880   8.425  16.032  17.380 -0.2400 -0.1278  0.1177
43828W        W86881  26.572  17.992  21.706 -0.2013  0.4581 -0.0630
43829W        W86882  16.309   8.771   1.282 -0.0106 -0.2299 -0.0182
43830W        W86883  11.493  28.204   5.729  0.0974 -0.0137  0.1064
43831W        W86884  13.831  15.526  21.359  0.0304 -0.1659 -0.2817
43832W        W86885   9.907  18.794  14.337  0.1723 -0.0715  0.2550
43833W        W86886  29.813  25.340  26.234 -0.1462  0.3522 -0.0622
43834W        W86887  28.062  28.971  16.297 -0.0133 -0.1633  0.0376
43835W        W86888   2.254  29.398   0.778 -0.3926 -0.0138  0.1803
43836W        W86889  33.851   3.757  27.797 -0.0661 -0.0847 -0.1069
43837W        W86890  26.988  22.643   8.571 -0.0671 -0.2661  0.0933
43838W        W86891  10.460  16.169  21.214 -0.1127 -0.0419  0.0195
43839W        W86892  23.104  22.587   8.764 -0.0612  0.2118 -0.1465
43840W        W86893  22.539  29.850   7.869 -0.4963  0.0820  0.0560
43841W        W86894   9.136  10.614   9.767  0.0224 -0.2409  0.0678
43842W        W86895  12.064  18.194  13.920  0.2026 -0.1038  0.1209
43843W        W86896  29.434  22.044   0.881 -0.0951  0.1287 -0.2978
43844W        W86897   9.974  25.049  13.620 -0.0711 -0.0765  0.1003
43845W        W86898  14.547   7.025   0.682 -0.2091 -0.0029 -0.3499
43846W        W86899  10.727   6.220  25.867  0.1310  0.0563 -0.4123
43847W        W86900  19.213   6.852   4.057  0.1692 -0.1516  0.1942
43848W        W86901  18.669  11.665  15.266 -0.0387 -0.4308  0.0833
43849W        W86902  29.944   8.619  16.416 -0.0999  0.3071 -0.0269
43850W        W86903  33.751  32.708  18.042  0.1000 -0.1458 -0.0127
43851W        W86904  34.104  25.037   5.320  0.3278 -0.2948  0.1471
43852W        W86905  33.548  21.940  15.615 -0.0597 -0.2648  0.0900
43853W        W86906  12.408   9.343   5.859  0.1125  0.1881  0.1242
43854W        W86907   5.039  34.247  28.237  0.1582 -0.2423 -0.1423
43855W        W86908  27.829  13.870   5.781 -0.2384  0.0979 -0.3037
43856W        W86909  33.800  32.233   2.010 -0.0344 -0.1462  0.2579
43857W        W86910  32.488  23.663  15.331  0.0183  0.4312 -0.2482
43858W        W86911   4.441  12.703  18.588  0.1969 -0.0471  0.0351
43859W        W86912  14.282   8.514  26.945  0.1418 -0.3132  0.0624
43860W        W86913   6.061  16.897  15.893 -0.2370 -0.1189  0.1029
43861W        W86914   3.818  34.158  14.979 -0.3263 -0.0301 -0.0341
43862W        W86915  15.896  13.913   5.355 -0.0282  0.2823  0.0016
43863W        W86916   3.625   5.091   3.371 -0.1700 -0.1836 -0.3119
43864W        W86917   1.449  31.716  17.108  0.0475  0.0963  0.0470
43865W        W86918   9.727  28.093  17.396 -0.1926 -0.1281 -0.0995
43866W        W86919  14.167  17.302   8.499 -0.0286 -0.1351 -0.2480
43867W        W86920  15.015   6.752   3.512 -0.0163 -0.1021  0.1778
43868W        W86921  30.932  12.953  24.660  0.0403 -0.0033 -0.1345
43869W        W86922  18.755  32.396  26.193 -0.0358 -0.0074 -0.1448
43870W        W86923  33.377   6.591   6.542 -0.0784 -0.2919 -0.0794
43871W        W86924  14.142  20.889  19.389 -0.3362  0.1496  0.0257
43872W        W86925   2.010  11.342   1.988  0.1495 -0.0795 -0.1878
43873W        W86926  23.608  18.387  18.059  0.1306 -0.1928 -0.2220
43874W        W86927  24.303   8.148   7.883 -0.0809 -0.0841  0.2870
43875W        W86928   0.643  20.424   7.096 -0.0058 -0.2572 -0.1658
43876W        W86929  11.655  13.575  27.510 -0.0056  0.0508 -0.1166
43877W        W86930  12.527  14.416   9.424 -0.0505 -0.0166 -0.3250
43878W        W86931   2.001   7.616  23.160 -0.1092  0.1797  0.0172
43879W        W86932   4.647  13.634  17.172  0.0341 -0.0954  0.0226
43880W        W86933  34.684  18.231  20.626 -0.1302  0.1833 -0.0037
43881W        W86934   3.294  31.143   9.185 -0.2397  0.1048 -0.1956
43882W        W86935  27.539  19.636  21.548  0.1217 -0.3472  0.1069
43883W        W86936  21.936   7.186   3.593  0.2707  0.2183  0.1493
43884W        W86937   5.466  15.216   1.662 -0.0778  0.0756  0.2718
43885W        W86938   9.555   1.518   7.476 -0.0857 -0.0417 -0.0097
43886W        W86939  10.845  15.033   0.214  0.1412  0.3191  0.0936
43887W        W86940   7.695  10.302  27.799 -0.3305  0.1196  0.3171
43888W        W86941  15.459   6.739  26.462  0.2007 -0.0957  0.0295
43889W        W86942   4.576  27.004  22.417  0.2521 -0.2589 -0.1438
43890W        W86943  26.290  26.780   0.419  0.2186 -0.0194 -0.4587
43891W        W86944  11.225  25.865   5.649 -0.2109 -0.0381  0.1549
43892W        W86945   6.591  17.482  18.664  0.0432  0.1294  0.0106
43893W        W86946  15.066  21.449  13.745 -0.0285  0.4532  0.1010
43894W        W86947  31.392   8.795  27.680 -0.0393  0.0581  0.0274
43895W        W86948  16.701  12.091  22.952  0.0878  0.1093  0.0318
43896W        W86949  26.363   4.881  23.161  0.0503 -0.1324  0.0213
43897W        W86950   4.936  22.483  13.576 -0.0106  0.1707 -0.2213
43898W        W86951  16.542  33.443  22.329 -0.0351 -0.2128 -0.0529
43899W        W86952  21.894  27.815  25.524  0.2550 -0.3040 -0.2231
43900W        W86953  12.506   1.016  25.221  0.2195  0.0569  0.0032
43901W        W86954  13.898  12.418  28.773 -0.0976 -0.0250 -0.0919
43902W        W86955  18.039   1.848   4.682 -0.0544 -0.3017  0.0975
43903W        W86956  34.074  17.124  16.524  0.0222  0.3555  0.0341
43904W        W86957  10.081  22.935  28.582 -0.2291 -0.3649 -0.1463
43905W        W86958  12.346  25.471  14.973 -0.2358  0.0095 -0.2617
43906W        W86959  21.519  34.168  24.592  0.0290 -0.1447  0.1445
43907W        W86960   0.090   3.812  19.769  0.0529 -0.3518 -0.2355
43908W        W86961  24.655  23.998  22.521 -0.0525 -0.0058 -0.2192
43909W        W86962   6.270  10.434  28.341  0.0594 -0.0326 -0.0247
43910W        W86963  25.342  15.970   4.821  0.1580  0.1069  0.1482
43911W        W86964  14.914  27.540   5.392 -0.2650 -0.2034 -0.1235
43912W        W86965  34.561  13.288  28.710  0.0339  0.1785 -0.0001
43913W        W86966  21.006  23.186  24.253 -0.1087  0.2180 -0.1362
43914W        W86967   9.869  31.425   1.713 -0.2839 -0.2281  0.2131
43915W        W86968   6.944   6.920  22.434 -0.2851 -0.0556 -0.1773
43916W        W86969  13.483  33.399  27.822  0.0823  0.0165  0.0028
43917W        W86970   7.216  26.733   6.859 -0.1080 -0.0779  0.2420
43918W        W86971  28.617  27.320   6.609 -0.0799  0.1035 -0.1224
43919W        W86972  10.572  21.602  19.645  0.1189 -0.0654 -0.1743
43920W        W86973   5.923  32.424  24.872 -0.1582 -0.0087  0.0399
43921W        W86974  12.633  20.397  18.600  0.1798 -0.2132 -0.4312
43922W        W86975  17.101  10.096  14.753 -0.0823 -0.1308 -0.3525
43923W        W86976  30.987  20.168   2.358 -0.2076  0.2352  0.0718
43924W        W86977   5.677  12.345   8.853  0.1734 -0.0024 -0.0948
43925W        W86978  18.553   8.806   2.588 -0.0345 -0.4820 -0.1487
43926W        W86979  12.016  15.123  18.347  0.3247 -0.0231 -0.0460
43927W        W86980  13.254  31.734   9.616  0.3467 -0.0924 -0.2160
43928W        W86981  14.451   9.250  20.991  0.1536  0.1026  0.1253
43929W        W86982   6.752  15.880  23.657  0.0039  0.1577  0.1758
43930W        W86983   1.975  14.819   1.786  0.1687 -0.0646  0.0624
43931W        W86984  13.081  27.694  22.668  0.0234 -0.2629  0.0802
43932W        W86985  33.390  26.104  24.500  0.0839 -0.2107  0.0150
43933W        W86986  13.788  11.365  18.067 -0.0719 -0.4085  0.1067
43934W        W86987  29.221  15.386  15.636 -0.1398 -0.2744 -0.2218
43935W        W86988   3.010  20.644  17.814 -0.0795 -0.0430 -0.2308
43936W        W86989  32.838  23.759  14.478 -0.0982 -0.0439  0.2710
43937W        W86990  15.826   2.046   7.864  0.0569  0.1581  0.0206
43938W        W86991  15.576  22.531  26.593  0.0107  0.3770 -0.4562
43939W        W86992  21.106  16.096  16.962  0.0898 -0.0688  0.1285
43940W        W86993   9.755  25.791  27.837  0.0189 -0.4557 -0.0806
43941W        W86994  11.113  15.758   2.219  0.2059 -0.0301  0.1354
43942W        W86995  12.055  32.494   6.452  0.1742  0.0199 -0.1100
43943W        W86996   6.051  25.377  23.648 -0.1315 -0.1942  0.0111
43944W        W86997  30.167   9.207  28.996 -0.0937  0.1021 -0.1800
43945W        W86998  32.746   7.611  17.607 -0.0813 -0.3397  0.2377
43946W        W86999  25.102  18.192  16.114 -0.0061  0.0714  0.2653
43947W        W87000   8.729  22.696  16.239  0.0755  0.0043 -0.1948
43948W        W87001  31.635  33.490   1.889 -0.3352  0.0316 -0.2566
43949W        W87002  33.380   9.490  25.834  0.0417  0.2489  0.2172
43950W        W87003   9.515  15.183  25.294  0.2954  0.2501 -0.2337
43951W        W87004  33.512   8.381   9.596  0.0490  0.0755 -0.2241
43952W        W87005  27.440  16.248  27.783 -0.0817 -0.0580 -0.1855
43953W        W87006  24.930  25.548   9.876  0.0984 -0.1351  0.1669
43954W        W87007  13.959  12.900  25.369 -0.1651  0.2325 -0.0497
43955W        W87008  29.829  32.505  28.539  0.1961 -0.0889  0.2220
43956W        W87009   8.221  17.294   3.266  0.0592  0.0576  0.3364
43957W        W87010  25.580  27.013  21.587  0.2853 -0.0659 -0.1132
43958W        W87011  33.653  11.157  26.916  0.2085  0.3094 -0.1423
43959W        W87012  25.221  34.658   6.315 -0.0502 -0.2247  0.1178
43960W        W87013  25.951  32.154  23.993 -0.0334  0.1726 -0.1985
43961W        W87014  33.863  10.739  20.994  0.0942 -0.0781  0.2173
43962W        W87015  15.084   8.491  28.693  0.2947  0.0204  0.0079
43963W        W87016  11.625  27.507  27.369  0.0891  0.0047 -0.0302
43964W        W87017  17.274   3.974  21.938 -0.1883 -0.0290  0.5933
43965W        W87018  32.761  26.101  18.157  0.1038  0.1998  0.2643
43966W        W87019  32.295  19.467  29.189  0.2934 -0.1077  0.2987
43967W        W87020   2.380  16.915  26.116  0.0473 -0.0594 -0.0926
43968W        W87021   5.419  21.475  18.459  0.2010 -0.1304 -0.1672
43969W        W87022   6.643  10.800   6.874  0.0082  0.0122  0.0033
43970W        W87023   1.143  21.786  25.462  0.4530 -0.0074 -0.1734
43971W        W87024  11.153  19.807  17.282 -0.0318 -0.1447 -0.0941
43972W        W87025   0.071  15.262  24.680  0.0430 -0.0483  0.1578
43973W        W87026  29.499  20.579   5.271  0.3418  0.0779 -0.0601
43974W        W87027  25.344  12.110  20.292 -0.0784 -0.0681 -0.1854
43975W        W87028  10.761   3.947  24.038  0.1354 -0.0289 -0.0402
43976W        W87029  14.955   0.449   5.769 -0.0370 -0.3344 -0.3447
43977W        W87030  32.093  15.201   7.875  0.1578  0.1285 -0.2524
43978W        W87031  25.996  28.248   6.995  0.1263 -0.2567  0.0355
43979W        W87032   8.782   5.901   1.342  0.0484  0.0026 -0.1303
43980W        W87033  24.042   7.972  16.361 -0.1613  0.0302 -0.1379
43981W        W87034  15.255  31.697  14.840 -0.0924 -0.0372 -0.4570
43982W        W87035  28.224   2.622  19.944 -0.0136  0.2633 -0.2159
43983W        W87036   3.386  32.949   4.915  0.0208 -0.0103  0.3745
43984W        W87037   3.927  26.154  16.428  0.3296  0.4125  0.2751
43985W        W87038  13.793  32.603  14.571 -0.2630 -0.2780  0.2798
43986W        W87039   3.594  26.466   9.293  0.0366  0.0524  0.3788
43987W        W87040   4.149   0.204  14.100  0.1348 -0.1170  0.0681
43988W        W87041   6.962  23.067  27.283  0.0301 -0.1801  0.1387
43989W        W87042  19.420  16.694  26.300  0.1514 -0.0877 -0.0618
43990W        W87043  13.688  13.522   3.754 -0.0482  0.0462  0.1262
43991W        W87044   8.187   8.489  11.128  0.2229  0.2667  0.0916
43992W        W87045  25.967   2.778   5.750  0.2560  0.0270 -0.1459
43993W        W87046  12.540  20.581  25.507  0.1148  0.3449  0.0133
43994W        W87047  11.753  23.013  16.321 -0.2297  0.1329 -0.0295
43995W        W87048  12.673   8.141  10.749 -0.3309 -0.1717 -0.2282
43996W        W87049  21.105   8.247  22.543  0.0302  0.4180 -0.0847
43997W        W87050   6.551   9.259  16.270 -0.0769 -0.1675  0.0052
43998W        W87051  11.420  13.635  20.074  0.1252 -0.0739  0.3294
43999W        W87052   8.723  19.497   5.846  0.2150  0.1490  0.1179
44000W        W87053  13.801  25.749  19.227 -0.3287  0.0915 -0.1049
44001W        W87054  19.489   1.031  27.207 -0.1436  0.0358  0.0650
44002W        W87055  11.742  22.739  28.900  0.2259  0.0099 -0.2858
44003W        W87056  34.390   7.529  19.224 -0.2044  0.1671  0.0326
44004W        W87057  33.593  17.902  26.185 -0.0489  0.3857  0.3742
44005W        W87058  17.541  21.064   5.893 -0.0367  0.1858  0.3317
44006W        W87059  19.768  23.292  26.021  0.4591  0.0166 -0.1774
44007W        W87060  16.014  18.126  19.660 -0.2627 -0.2179  0.1636
44008W        W87061   0.499  11.649  18.361 -0.1664  0.0904 -0.0584
44009W        W87062   1.602  19.733  19.322  0.3354  0.2206 -0.0314
44010W        W87063  13.022   6.341   1.617 -0.1298  0.1205 -0.0902
44011W        W87064  12.793  22.126  19.110 -0.1857 -0.0405  0.0013
44012W        W87065   3.037  10.951   4.310 -0.2448  0.0359  0.1583
44013W        W87066  27.172   3.220   3.487 -0.2868 -0.3152  0.0868
44014W        W87067  29.121  19.509   3.882 -0.2147 -0.0856 -0.3428
44015W        W87068  23.083   6.085  26.532 -0.2258  0.1190 -0.2814
44016W        W87069  15.413  26.954  28.789  0.5016 -0.1873  0.3309
44017W        W87070  22.987   0.074  17.205  0.1419  0.1804  0.2415
44018W        W87071   6.385  21.021   2.078 -0.0785  0.0350  0.0868
44019W        W87072  24.906  14.908  22.661  0.2089 -0.0298  0.1422
44020W        W87073  10.870  25.563  14.714 -0.0228 -0.0041 -0.3811
44021W        W87074   5.018  22.936   1.625 -0.3916 -0.0531  0.0097
44022W        W87075  27.198   0.632   9.554 -0.0734 -0.2920 -0.0432
44023W        W87076  26.302  24.177  27.240  0.0114  0.0288 -0.2363
44024W        W87077   5.342  18.657   7.541 -0.0271 -0.3533 -0.1388
44025W        W87078   4.270  17.455   3.510 -0.0285  0.0871 -0.0386
44026W        W87079  20.673  31.452  28.383  0.2178 -0.1501 -0.0210
44027W        W87080  31.347   3.021   9.835  0.1748 -0.2715 -0.0803
44028W        W87081  16.632  12.536  20.569  0.1021  0.1691  0.0304
44029W        W87082  21.349  18.583   1.699 -0.0846  0.2168  0.0062
44030W        W87083   0.890  22.373  13.265  0.0986  0.2139  0.0713
44031W        W87084  32.294  16.436  27.947  0.1131 -0.0032  0.0855
44032W        W87085  34.152  10.815  19.592 -0.0260  0.1078 -0.3871
44033W        W87086   0.720  20.373  15.791 -0.0579 -0.1034  0.0766
44034W        W87087   1.116  18.017  25.495 -0.0295  0.1653  0.1304
44035W        W87088  18.915   5.056   8.293  0.1855 -0.1895  0.2329
44036W        W87089  14.915  25.744  29.047  0.2423 -0.0556  0.3100
44037W        W87090  11.865  21.783   7.757 -0.2683  0.2060 -0.0330
44038W        W87091  13.201   5.787  28.850  0.1994 -0.1768  0.0332
44039W        W87092  15.671  19.214  23.007 -0.0408 -0.2629 -0.1171
44040W        W87093  20.462  14.137  19.433  0.1244 -0.2202  0.0256
44041W        W87094  17.716  30.763  20.795 -0.1473 -0.0454  0.0863
44042W        W87095   7.318  34.313  25.930 -0.0318 -0.0805  0.3500
44043W        W87096  14.956  28.591  24.545  0.1739  0.0891  0.1081
44044W        W87097   5.136   0.286  22.419  0.0819  0.1123  0.0750
44045W        W87098  21.333   8.525  26.448  0.2550  0.1325 -0.0574
44046W        W87099   2.895  11.023  18.459 -0.0136 -0.0063  0.0725
44047W        W87100  15.399  22.717  24.000  0.2015 -0.0342  0.2606
44048W        W87101   9.848   8.915   5.493 -0.4750  0.1424 -0.0832
44049W        W87102  18.279  22.491   2.916 -0.1339  0.1211 -0.1590
44050W        W87103  22.386  15.856   6.425 -0.1593 -0.0420  0.3082
44051W        W87104  14.582   2.239   8.060  0.1582  0.0412  0.2367
44052W        W87105  32.718  13.171   0.048 -0.2371  0.0847 -0.1623
44053W        W87106   8.655   3.388  17.783  0.1488  0.1885 -0.0116
44054W        W87107   8.742   9.311   9.922  0.1887 -0.2687 -0.0869
44055W        W87108   2.744  21.373   5.746 -0.0140 -0.0967  0.1113
44056W        W87109  12.635  31.745  15.493 -0.1028  0.0189  0.0050
44057W        W87110  14.914  10.578  17.094  0.0433  0.0724 -0.0807
44058W        W87111   3.085  34.627   1.769 -0.0314 -0.0613 -0.2143
44059W        W87112   9.636   8.478   8.790 -0.4503  0.2811  0.1232
44060W        W87113  12.661  11.024   3.655 -0.1134 -0.0649  0.2024
44061W        W87114  33.063   1.477   6.194  0.0619 -0.1493 -0.0510
44062W        W87115  22.790  12.293   1.019  0.1532  0.0386  0.1204
44063W        W87116  12.507  19.368   2.219  0.1519  0.3178  0.0250
44064W        W87117   3.821  12.367   5.959  0.0223 -0.0696  0.2538
44065W        W87118   5.791  14.496  22.792  0.1369  0.4053  0.0410
44066W        W87119  30.081  20.672  27.808 -0.2220 -0.2340  0.0357
44067W        W87120  12.898  13.767   3.135 -0.0468  0.1725 -0.0620
44068W        W87121  10.725   8.003   6.262 -0.0510  0.0053  0.1952
44069W        W87122  14.205  13.826  28.760  0.1894 -0.2015  0.3850
44070W        W87123  26.917  31.880  27.720  0.0919 -0.0041  0.2251
44071W        W87124  33.556  10.871  20.570 -0.0835  0.3140 -0.0411
44072W        W87125  11.471  20.148   1.918  0.1339 -0.2146  0.1851
44073W        W87126   8.923   1.550  26.729 -0.0639  0.2029 -0.1775
44074W        W87127   6.859  12.618  26.068 -0.0277  0.0823 -0.2339
44075W        W87128   0.407  17.618   2.299  0.1948 -0.1325 -0.0179
44076W        W87129   7.341  27.745  22.843 -0.0400 -0.0360 -0.0860
44077W        W87130  16.150  34.196  26.069 -0.5601  0.2066  0.2678
44078W        W87131  14.139  10.642   0.286  0.0188  0.3088 -0.0024
44079W        W87132  15.153   9.143   2.619  0.2092  0.0465 -0.1486
44080W        W87133  12.815   2.145   7.225 -0.1434  0.2072  0.0596
44081W        W87134  12.128  16.461   2.147 -0.0702  0.0907  0.1909
44082W        W87135  24.269  11.277  24.570 -0.5190  0.4671  0.3032
44083W        W87136  11.080  18.921  15.589 -0.0183 -0.0993 -0.1831
44084W        W87137  23.013  24.430  16.066 -0.2901  0.2458  0.1881
44085W        W87138   3.005   5.688   7.605 -0.0555  0.2905 -0.0628
44086W        W87139  21.706  29.260   0.116  0.0813  0.5273 -0.2965
44087W        W87140  30.326  12.947   5.705 -0.2431 -0.0043 -0.1647
44088W        W87141   1.062  14.924   9.646  0.0154  0.2764  0.3176
44089W        W87142  11.275  23.808  20.509 -0.0243 -0.0828 -0.3618
44090W        W87143   8.239  24.772  23.375  0.0084  0.0025  0.1009
44091W        W87144   7.013  21.834  16.012 -0.3427  0.2108  0.0654
44092W        W87145  23.748  10.808   3.649  0.2196  0.1861 -0.1071
44093W        W87146   6.794  21.202   2.217  0.1528  0.1462  0.1358
44094W        W87147  10.510   8.681  17.128  0.0057  0.4562  0.1257
44095W        W87148   8.652  17.057  14.369 -0.3469  0.0004  0.1369
44096W        W87149   5.669   7.131   4.318  0.1473  0.0635  0.2157
44097W        W87150  34.232  21.410   5.980  0.1694  0.0346  0.2224
44098W        W87151  31.224   0.976  22.659  0.0509 -0.1307 -0.1162
44099W        W87152  28.840   2.456   2.721 -0.2399 -0.0811  0.2180
44100W        W87153  10.499  14.574  21.484 -0.3736  0.1822  0.2001
44101W        W87154   4.921  23.457  21.881 -0.1003  0.0240  0.3430
44102W        W87155  29.980   2.095  24.318 -0.1462  0.1898  0.0720
44103W        W87156   8.863   9.660  23.443 -0.2356  0.1422  0.0124
44104W        W87157  17.536   9.489  16.371  0.1439 -0.2029  0.0379
44105W        W87158   8.345  17.765   6.924 -0.0659  0.0279  0.0926
44106W        W87159  15.562   0.006   8.140 -0.0375  0.0044  0.3010
44107W        W87160   5.073   5.829  13.804 -0.3168  0.0674  0.2143
44108W        W87161  31.581   4.397  17.802  0.2626  0.2584  0.1738
44109W        W87162   2.720  19.527   5.676 -0.2170 -0.0112  0.2051
44110W        W87163   5.239  14.017   6.471  0.2491 -0.0085  0.1182
44111W        W87164   4.593  29.349  28.523 -0.0069 -0.1861  0.1211
44112W        W87165  31.451  21.625  20.185  0.4023  0.1314 -0.0768
44113W        W87166   3.873  15.822   5.452  0.4086  0.2420  0.0525
44114W        W87167  30.195  15.211   2.546 -0.0829 -0.2610  0.2610
44115W        W87168  34.669  18.772  27.494  0.3127  0.0994  0.0668
44116W        W87169   1.330  18.305  16.482 -0.2372 -0.0545  0.1178
44117W        W87170   9.923   8.304  25.980  0.0101  0.0514  0.2507
44118W        W87171   3.436  21.969   8.129 -0.2498 -0.1112  0.2713
44119W        W87172  18.394  19.570  28.153  0.1758 -0.1750 -0.0505
44120W        W87173  11.106  19.343   3.297  0.2717  0.0434 -0.2995
44121W        W87174  13.220  28.666  17.798 -0.0041 -0.0985  0.0692
44122W        W87175  26.988  10.915   4.063  0.1642 -0.1285  0.0300
44123W        W87176  18.458   7.519  19.210 -0.0431 -0.1284  0.1178
44124W        W87177   7.426  28.662   9.297  0.2682  0.5201  0.1494
44125W        W87178   6.888  16.990  26.151  0.1247 -0.0019 -0.0327
44126W        W87179   3.871  29.311  14.625 -0.1855  0.0774 -0.0641
44127W        W87180   3.366  11.364  20.096 -0.1343 -0.1777 -0.1564
44128W        W87181  12.779  20.300   6.345 -0.1297 -0.0030  0.1698
44129W        W87182   2.967  25.761  15.178 -0.4280  0.1705 -0.0561
44130W        W87183   5.204   7.504  17.875  0.1566 -0.1900  0.0523
44131W        W87184  27.266  26.685  26.979  0.1462  0.2717  0.1789
44132W        W87185  16.789  23.842  26.680 -0.4106 -0.0327  0.1456
44133W        W87186  34.352  15.206  15.525 -0.0800 -0.0470  0.1980
44134W        W87187   2.794  23.581  18.187  0.0597  0.3143  0.0218
44135W        W87188  33.080  16.838  16.718  0.1066 -0.1878  0.1604
44136W        W87189   6.086  22.023  14.063  0.0455  0.3181  0.2496
44137W        W87190  21.234   5.324  25.102 -0.1026  0.1389 -0.1554
44138W        W87191  21.264   5.427  21.641 -0.1198 -0.1841  0.3609
44139W        W87192  21.248  13.276  17.520 -0.0533 -0.0524  0.1164
44140W        W87193  11.911  26.050  18.230 -0.0067  0.0484 -0.2550
44141W        W87194   8.329  15.844  14.040 -0.1129  0.0014 -0.3800
44142W        W87195  33.463  14.195  15.718  0.1896 -0.1035 -0.0537
44143W        W87196   1.228  32.921  20.261  0.2087 -0.0519 -0.2433
44144W        W87197  28.794  29.628  17.943 -0.0928 -0.1214  0.0520
44145W        W87198   7.106  19.328  17.933 -0.0217  0.1860  0.0784
44146W        W87199  14.261  30.100  19.627 -0.1666 -0.2492 -0.0836
44147W        W87200  16.512  26.413  16.551 -0.2375 -0.0556  0.4366
44148W        W87201  15.222  32.237  15.971 -0.0055 -0.1779  0.2280
44149W        W87202   7.370  29.809  15.479  0.1515 -0.1833 -0.1790
44150W        W87203  13.563  21.105  23.575 -0.3936 -0.0313  0.1086
44151W        W87204   8.314  18.122  24.070 -0.1165  0.1481 -0.0183
44152W        W87205   6.614  24.598  18.303 -0.0941 -0.3368  0.0990
44153W        W87206   8.735  16.270  24.460 -0.0111 -0.2740  0.1610
44154W        W87207  31.255  29.320  16.766 -0.0694 -0.3830 -0.1373
44155W        W87208   6.731  21.473  26.392 -0.2305  0.0996 -0.0038
44156W        W87209  18.384  23.585  18.171  0.2505 -0.1678  0.1335
44157W        W87210  10.109  15.178  22.482  0.1029 -0.1574 -0.0604
44158W        W87211  11.467  19.299  23.510 -0.0221 -0.1794  0.0101
44159W        W87212  13.153  23.919  18.837  0.1249 -0.2173  0.0290
44160W        W87213  12.481   8.286  23.939  0.1041 -0.1388 -0.0074
44161W        W87214  10.216  14.964  25.988  0.0660 -0.0436  0.0842
44162W        W87215   0.930  26.275  14.179  0.0056  0.0884  0.0983
44163W        W87216  19.814  19.987  27.672 -0.0238  0.3366 -0.0675
44164W        W87217   7.017  17.201  16.273  0.1289  0.3150 -0.1370
44165W        W87218   7.659   2.519  19.423  0.2438 -0.1238 -0.0137
44166W        W87219   9.401  20.605  27.915 -0.0721  0.0529  0.2028
44167W        W87220   6.606   2.393  25.964 -0.0258  0.4773  0.2394
44168W        W87221   9.263  10.319  16.256  0.0622  0.2129 -0.2209
44169W        W87222  13.036  24.725  16.968 -0.1044  0.0044  0.1804
44170W        W87223  32.595  18.014  21.021 -0.1286 -0.1653  0.1575
44171W        W87224  33.741  12.486  18.199  0.1682  0.0431 -0.1335
44172W        W87225   1.551  25.187  14.726 -0.0101  0.0554  0.1338
44173W        W87226  25.371  26.345   0.047  0.2960 -0.1572  0.1116
44174W        W87227  10.389   0.196  19.020 -0.3221 -0.2291 -0.3918
44175W        W87228  10.005  21.485  26.705 -0.2310 -0.0823 -0.0655
44176W        W87229  28.483  11.397  27.573  0.1419  0.3377  0.1282
44177W        W87230   5.885  25.203  15.584  0.1105  0.1160 -0.2984
44178W        W87231   5.291  19.498  18.231 -0.1785  0.0891 -0.2825
44179W        W87232  17.530   2.737  21.206 -0.1067 -0.4554 -0.2599
44180W        W87233  21.113  13.471  24.721  0.3360  0.0808  0.2023
44181W        W87234  15.726  22.455   1.212 -0.1320  0.0068  0.2068
44182W        W87235   0.469  25.967  18.678  0.1886 -0.0776  0.1319
44183W        W87236  14.092  18.843   2.384 -0.2877 -0.0844  0.1790
44184W        W87237   5.074  24.558  19.839  0.1026  0.0696 -0.0848
44185W        W87238   2.066  10.693  20.194 -0.4081 -0.2790  0.1759
44186W        W87239  16.255   2.292   7.021 -0.1902  0.2749  0.0058
44187W        W87240   5.947  34.454   2.348  0.1813  0.0381 -0.1510
44188W        W87241  34.346   0.540  14.734  0.1216 -0.1576  0.2103
44189W        W87242   6.029  20.890  16.359  0.0610 -0.0190  0.1428
44190W        W87243  17.287  32.307  16.335 -0.0715  0.0973 -0.2223
44191W        W87244   4.744   9.441  21.446  0.1166 -0.0295 -0.0954
44192W        W87245   6.027  31.498  14.043  0.1225  0.0137  0.0665
44193W        W87246  31.190  14.350  14.794 -0.2570  0.1321 -0.0127
44194W        W87247   2.008  17.710   0.661 -0.2481 -0.1372 -0.1680
44195W        W87248   6.357  27.299  19.711 -0.1951 -0.1262  0.2445
44196W        W87249   4.837  33.113  21.674 -0.0446  0.1350 -0.0517
44197W        W87250  22.320  11.073  28.855 -0.0417  0.0705  0.1093
44198W        W87251   6.360   2.782  23.007 -0.0159 -0.0075 -0.1055
44199W        W87252  16.299  17.873   2.806 -0.0544  0.0026  0.3156
44200W        W87253  11.551  14.759   5.687  0.1121  0.1074  0.2011
44201W        W87254  29.865  25.181  22.486  0.0334  0.1074  0.6006
44202W        W87255   8.353  31.081   8.020 -0.0411  0.0535 -0.0015
44203W        W87256   5.481  29.453  17.649 -0.0736  0.1369  0.0418
44204W        W87257   4.238   8.448  14.471 -0.1485 -0.2077 -0.3907
44205W        W87258   4.015  11.360   1.050  0.0455 -0.0489  0.1703
44206W        W87259  32.075  17.492  20.348 -0.2219  0.1324 -0.2690
44207W        W87260   5.521  19.751  19.918  0.1036  0.0550 -0.1942
44208W        W87261   5.260  20.063  19.051 -0.2259  0.1665 -0.1551
44209W        W87262  11.520  24.425  21.514 -0.2817  0.1286  0.0563
44210W        W87263  17.540  14.855  15.440  0.0226  0.4171 -0.2347
44211W        W87264  32.205  15.081  15.582  0.2173 -0.2011  0.0379
44212W        W87265  20.424  15.907  15.541 -0.1691  0.1915  0.3339
44213W        W87266  23.014  16.809  19.591 -0.0789  0.1509 -0.0803
44214W        W87267  16.815  25.517  24.439  0.1006 -0.2986 -0.1155
44215W        W87268   7.558   9.710  19.049  0.1251 -0.2020  0.1994
44216W        W87269   1.611   9.625  24.085 -0.1790  0.1263  0.0741
44217W        W87270  18.453  32.867  21.613 -0.0838  0.0319  0.0089
44218W        W87271   6.582  19.584  18.385  0.1437 -0.0548 -0.0978
44219W        W87272  15.981  22.637  27.988 -0.2348  0.2165 -0.1791
44220W        W87273  29.893  15.140  25.802 -0.2422  0.0194  0.0062
44221W        W87274   9.219  23.096  17.840 -0.0248  0.3967  0.2964
44222W        W87275  32.206  26.830  14.240 -0.1565 -0.5440  0.3230
44223W        W87276   1.196  23.787  24.003  0.1040 -0.2830 -0.0348
44224W        W87277  20.315   5.194  14.185 -0.0712  0.3753  0.1241
44225W        W87278  28.103  19.518  15.044 -0.0949  0.2022  0.1104
44226W        W87279  18.740   8.905  20.857 -0.1634 -0.1742 -0.2091
44227W        W87280   2.292  19.715  16.236 -0.0746  0.0640  0.0223
44228W        W87281  31.486  26.198  16.480  0.0765 -0.1726 -0.0377
44229W        W87282  13.075   0.686  26.431  0.0863 -0.3342  0.2132
44230W        W87283  34.687   6.549  18.208  0.0267 -0.0074  0.2065
44231W        W87284   1.731  30.110  19.175  0.2190 -0.1610  0.2639
44232W        W87285  32.564  12.810  16.238 -0.3292  0.0239 -0.0214
44233W        W87286  12.627  14.544  20.616  0.1202 -0.1220  0.0998
44234W        W87287  29.491   9.782  14.747 -0.2241  0.1018 -0.2053
44235W        W87288  11.276  18.583  21.539 -0.0112  0.0008  0.1596
44236W        W87289  14.437  25.186  15.641 -0.1427  0.2375 -0.0469
44237W        W87290   3.041   9.523  18.823  0.2513  0.0667  0.0796
44238W        W87291   5.009   4.336  14.136  0.1196 -0.2531 -0.2082
44239W        W87292   7.269  34.671  16.095 -0.2395  0.0217  0.3875
44240W        W87293   4.737  16.560  13.146  0.0671  0.1999  0.1290
44241W        W87294   1.180  24.920  16.271  0.1583 -0.0504 -0.1251
44242W        W87295  10.584   0.380  15.300  0.0273 -0.0705  0.0187
44243W        W87296   8.202  12.205  26.445  0.1947  0.0417  0.0932
44244W        W87297  15.180   6.391  15.794  0.2757 -0.0000  0.3748
44245W        W87298  10.074  14.142  18.609 -0.1963 -0.0291 -0.1986
44246W        W87299  27.834   7.788  13.551  0.0941  0.4635 -0.1330
44247W        W87300  16.638   9.319  23.349  0.0099 -0.1098  0.4315
44248W        W87301  23.846  22.202  15.236 -0.2359 -0.1603  0.2284
44249W        W87302   7.960  14.831  19.283  0.0801  0.0251  0.0699
44250W        W87303  27.174  16.759  14.388  0.0031  0.1215  0.2914
44251W        W87304   5.132  17.448  15.079  0.2385 -0.2084 -0.3059
44252W        W87305  18.422  28.222  28.890  0.2783  0.1270 -0.0370
44253W        W87306   9.379  33.933  19.376 -0.0201 -0.0467 -0.2616
44254W        W87307   7.747  28.624   4.757 -0.2274 -0.0856 -0.0511
44255W        W87308  19.063  32.823  23.149 -0.2246  0.0780 -0.0625
44256W        W87309  21.427   4.398  14.588  0.1453  0.2469 -0.1703
44257W        W87310  10.468  12.787  16.973  0.3971 -0.0108  0.2465
44258W        W87311   0.171   4.995  17.911 -0.3598 -0.0825 -0.2283
44259W        W87312   3.342  15.570  15.860  0.1435  0.2115  0.0405
44260W        W87313  33.890  32.209  14.283  0.0054 -0.0505  0.1300
44261W        W87314  12.534  17.381  14.366  0.1679  0.2058  0.0488
44262W        W87315  13.727  27.757  13.096 -0.1654 -0.0127 -0.0821
44263W        W87316   4.117  34.393  20.143  0.2492  0.1506  0.2214
44264W        W87317   4.177  10.171  25.996  0.2636  0.1249 -0.1288
44265W        W87318  32.240  20.401  24.651  0.0052 -0.1376  0.0611
44266W        W87319  13.246   6.210  21.353 -0.1757 -0.1152 -0.4379
44267W        W87320  15.658  13.188  16.920 -0.1977 -0.2083 -0.0493
44268W        W87321  18.441   9.828  28.742 -0.3825 -0.0702 -0.0492
44269W        W87322  19.452  13.547  21.102 -0.1502  0.0381  0.0953
44270W        W87323  13.692  23.084  17.272  0.3342  0.0251  0.0731
44271W        W87324   6.142  26.252  15.313  0.0097 -0.0600 -0.0482
44272W        W87325  10.865  26.006  15.462 -0.4278 -0.1559 -0.0624
44273W        W87326   9.760   2.057  24.592  0.1903  0.0522  0.0654
44274W        W87327  33.516  17.981  20.697 -0.0383 -0.0921 -0.0404
44275W        W87328  11.744   3.645   4.246 -0.1912  0.4218 -0.0494
44276W        W87329  26.254  21.383  20.666 -0.1677 -0.3130 -0.0689
44277W        W87330  17.026  32.026  16.094  0.2764 -0.2103  0.1117
44278W        W87331  18.298  23.718  16.004 -0.0808  0.2362  0.1452
44279W        W87332   0.221  16.286  26.723 -0.2824 -0.1555  0.2558
44280W        W87333   0.461   8.719  24.419  0.2016 -0.1972  0.4272
44281W        W87334  32.526   7.857  20.820  0.0115 -0.0750 -0.1393
44282W        W87335  16.500  27.772   3.849  0.1242 -0.0978  0.1042
44283W        W87336  14.913  10.881  19.361 -0.0667 -0.3674  0.2021
44284W        W87337   4.503  16.698  23.537 -0.0618  0.4325  0.0795
44285W        W87338   2.018   7.576   4.815 -0.1750 -0.1988  0.0750
44286W        W87339  10.121  15.055  18.519  0.2779  0.0093  0.0438
44287W        W87340  33.447   0.237  19.295 -0.1866  0.0127  0.1763
44288W        W87341  17.990  26.642  22.656  0.1076 -0.2869 -0.0740
44289W        W87342   2.874   2.770  17.252 -0.2086 -0.1663  0.1204
44290W        W87343   6.076  23.412  19.008 -0.0713 -0.2317  0.1970
44291W        W87344   4.754  33.610   4.036 -0.0281  0.1903 -0.2335
44292W        W87345   5.590   5.574  25.708  0.3039 -0.1389  0.0329
44293W        W87346   0.611  22.119  24.035  0.0850 -0.0088 -0.3260
44294W        W87347  15.076  21.258  15.954 -0.0241  0.0877 -0.1127
44295W        W87348  30.511  27.490  14.068 -0.3380  0.3300  0.0306
44296W        W87349   9.538  11.976  19.347 -0.2624 -0.0121  0.1975
44297W        W87350  27.198   3.875  24.238  0.2344 -0.0411  0.2413
44298W        W87351   5.905  29.581  24.113 -0.1764  0.0708 -0.3101
44299W        W87352   9.817  14.619  17.635 -0.0716 -0.3023 -0.0933
44300W        W87353  14.916  19.787   4.826  0.0202 -0.4135  0.1179
44301W        W87354  20.813  25.025  15.222 -0.1979  0.0072  0.0378
44302W        W87355  32.861  15.738  22.830  0.1538 -0.0921 -0.0139
44303W        W87356   0.662  23.369  18.654  0.1434 -0.2299  0.3512
44304W        W87357  13.612   2.359  13.204 -0.0302  0.1796 -0.2779
44305W        W87358  15.835  29.572  19.687 -0.1796 -0.1617 -0.1627
44306W        W87359  26.471  19.076  14.103 -0.1181  0.0899  0.3877
44307W        W87360   0.945  17.160  18.256  0.1664 -0.1835  0.0614
44308W        W87361  10.860  17.009  16.954  0.3298  0.2679  0.3418
44309W        W87362  23.752  34.465  15.173  0.3922  0.1760 -0.0387
44310W        W87363  34.401  11.703  16.909 -0.0139 -0.2888 -0.0844
44311W        W87364   8.630  12.071  17.864  0.1026 -0.1488 -0.0762
44312W        W87365  15.239  24.742  25.566 -0.2623  0.1360 -0.1381
44313W        W87366  17.462  25.228  22.488 -0.0524  0.1671  0.0987
44314W        W87367  18.149  18.708  25.781 -0.2469 -0.1889  0.0389
44315W        W87368   7.404  26.272  15.134  0.1074  0.0488 -0.1249
44316W        W87369   3.457  22.166  14.459  0.2077 -0.0512  0.2026
44317W        W87370   8.369  23.261  28.646  0.1964  0.0289  0.0686
44318W        W87371  34.298  24.057  27.704  0.2160 -0.2107  0.0654
44319W        W87372  29.347  15.298  21.118 -0.0141 -0.0902  0.0453
44320W        W87373   5.278  25.293  18.035 -0.0213 -0.2436  0.2513
44321W        W87374  10.057   8.030  16.532 -0.3395 -0.0113  0.2001
44322W        W87375   3.283  14.534  19.909 -0.4167 -0.0129 -0.2204
44323W        W87376  32.513  19.419   4.914  0.0263  0.0107 -0.1283
44324W        W87377   0.964  19.419  19.317 -0.3003 -0.1996 -0.0014
44325W        W87378   7.544  17.191  16.399  0.1467 -0.1184  0.1224
44326W        W87379   4.934  28.136  28.120 -0.1442 -0.3782 -0.2829
44327W        W87380  18.101  23.290  21.187  0.5919  0.2133  0.1578
44328W        W87381   4.672   9.879   6.006  0.2356  0.0690  0.0593
44329W        W87382  14.570  26.259  23.100 -0.3864 -0.0262  0.1506
44330W        W87383  18.425  27.098  15.582 -0.4005  0.1655 -0.1382
44331W        W87384  20.490  22.706  27.432 -0.3085  0.4343 -0.0510
44332W        W87385   7.744  28.847  17.284 -0.2145  0.1554  0.3267
44333W        W87386  10.087  25.495  27.544 -0.1936  0.3440  0.0230
44334W        W87387  32.211  25.846   0.941  0.1566  0.0394  0.2171
44335W        W87388   7.298  24.716  15.516  0.4620 -0.4271 -0.2853
44336W        W87389  15.334  24.482  14.412  0.2495 -0.3448 -0.0104
44337W        W87390   8.437  21.988  23.221  0.0547  0.0329  0.1840
44338W        W87391   9.100   8.160  26.884 -0.3131 -0.0671 -0.3062
44339W        W87392  11.503  18.249  25.983  0.0362 -0.3329  0.1537
44340W        W87393   6.100   3.746  18.646  0.1062 -0.0855  0.0259
44341W        W87394  18.724   4.852  27.108 -0.0858 -0.3912 -0.0320
44342W        W87395  26.559   4.868   5.916 -0.0573  0.2722 -0.0574
44343W        W87396   8.842  19.657  28.885 -0.2895 -0.0393 -0.1299
44344W        W87397  33.570  19.616  14.378  0.1099 -0.1499 -0.1119
44345W        W87398   6.336  10.702  23.140  0.1943  0.0445 -0.1224
44346W        W87399  12.817  32.177  19.254  0.0776 -0.0677  0.0720
44347W        W87400  32.425  25.321  26.385  0.1251  0.0560  0.0338
44348W        W87401   6.459  14.821  26.963 -0.1648  0.0899 -0.1048
44349W        W87402  30.306  25.139  18.919 -0.1200 -0.1425  0.2709
44350W        W87403  10.465  24.608  22.288  0.2628 -0.1496  0.3006
44351W        W87404  11.508  14.813   2.823 -0.0421 -0.2619  0.2716
44352W        W87405  13.929  12.576  20.149 -0.1888  0.4275 -0.3267
44353W        W87406   1.438  17.533  21.640  0.2544  0.1024  0.0440
44354W        W87407  23.234  20.499  16.000 -0.0266 -0.2343 -0.0102
44355W        W87408  25.064  22.670  18.958  0.0980 -0.2908 -0.0212
44356W        W87409   9.887  25.005  22.388 -0.0652  0.0891  0.2405
44357W        W87410  24.301  24.244  16.349  0.2161 -0.0786  0.3621
44358W        W87411   7.551  23.939  15.430  0.0520  0.0286  0.0103
44359W        W87412   4.918  22.763   2.103 -0.2330  0.0642  0.2391
44360W        W87413   7.229   1.833  16.697  0.2041 -0.0194 -0.0669
44361W        W87414   3.363  12.001   1.500 -0.1181  0.0211  0.0738
44362W        W87415  10.000   8.941  26.390 -0.0551  0.1170 -0.0324
44363W        W87416  26.158   3.207  22.796  0.0913 -0.2775 -0.1255
44364W        W87417   5.490  19.070  17.462 -0.0932  0.2658 -0.2061
44365W        W87418  12.081  33.597  21.574  0.0659  0.2073 -0.1094
44366W        W87419   2.699  22.060  15.374  0.1343 -0.3400  0.0379
44367W        W87420  31.280  18.808  21.703  0.2212 -0.0991  0.1139
44368W        W87421  10.366  19.956  14.121  0.2330 -0.1133 -0.0666
44369W        W87422   6.273  30.105  14.015  0.3178  0.1131  0.0926
44370W        W87423  10.047  19.141   0.570  0.2269 -0.2701 -0.0411
44371W        W87424  34.019  25.964  25.341  0.0687  0.0647 -0.1135
44372W        W87425   2.403  23.221   1.425  0.2037  0.1507 -0.2830
44373W        W87426   0.997  32.963  22.193  0.2619  0.2837 -0.1088
44374W        W87427   6.759  25.786   0.869 -0.2253 -0.0820  0.1301
44375W        W87428  23.525  25.108  22.736  0.0907  0.1982  0.0644
44376W        W87429  18.219  31.354   1.442  0.3041 -0.2860  0.2769
44377W        W87430  14.725  16.310  25.000  0.0315  0.2266  0.0483
44378W        W87431   4.653  23.268  22.969  0.0436  0.0113 -0.3274
44379W        W87432  10.486  19.285  19.077 -0.1033 -0.1425  0.1721
44380W        W87433  21.616  21.702  15.333 -0.2155  0.1040  0.1940
44381W        W87434   5.898  17.202  21.597 -0.1152 -0.0442 -0.0257
44382W        W87435  33.675  27.357  21.605 -0.2314 -0.1353  0.0429
44383W        W87436   1.063  29.256  20.131  0.2440  0.3040 -0.2358
44384W        W87437  32.519  22.652  17.203 -0.1986 -0.1246 -0.3708
44385W        W87438  27.465  34.380  15.890 -0.1992 -0.0628 -0.3067
44386W        W87439  34.227  18.653  15.583  0.0575  0.0435  0.3858
44387W        W87440  10.552  10.208  17.969  0.0368 -0.4541 -0.2534
44388W        W87441  33.884   9.501  20.394 -0.2698  0.0470 -0.0427
44389W        W87442   0.947  15.959  21.644  0.1048  0.0982  0.1869
44390W        W87443  31.295  29.327  22.196  0.0561  0.3314  0.2198
44391W        W87444   8.198  25.340  17.160 -0.1853 -0.1244  0.2550
44392W        W87445   6.960   8.977  25.107 -0.1023 -0.4114 -0.2233
44393W        W87446  17.865  14.155  24.239 -0.1401 -0.2540 -0.1430
44394W        W87447  27.900  32.488  20.054 -0.1202 -0.0559 -0.0585
44395W        W87448   7.380  12.124  21.685 -0.2473  0.1151  0.0687
44396W        W87449  26.456  18.943   0.059 -0.4250 -0.0646 -0.6310
44397W        W87450  16.956  26.503  20.309 -0.1769  0.0575 -0.0893
44398W        W87451  14.242  13.220  16.271  0.1830 -0.0040 -0.3734
44399W        W87452   9.191  14.902  27.231 -0.2436 -0.1632  0.0682
44400W        W87453   8.468  27.268  25.986 -0.1049 -0.1636 -0.2377
44401W        W87454  11.836  17.823   4.588  0.0519  0.4131 -0.2543
44402W        W87455   9.654   9.475  19.642  0.0956  0.0260  0.1144
44403W        W87456  12.068  14.281  20.568  0.2188  0.0714  0.0275
44404W        W87457   8.316  17.304  25.360 -0.2464  0.0023  0.0965
44405W        W87458   4.994  19.830  26.042 -0.0428  0.1991  0.0218
44406W        W87459  30.605   9.429  19.349 -0.0024 -0.1325 -0.2681
44407W        W87460   2.978  20.017  14.144  0.1314 -0.3050  0.1519
44408W        W87461  12.792  12.522  22.244 -0.2036 -0.0414  0.0792
44409W        W87462  22.944  23.391  15.297 -0.0941  0.0918  0.0283
44410W        W87463   4.579  17.834  25.559  0.0431 -0.1562 -0.2305
44411W        W87464  11.981  31.367  15.533 -0.0782 -0.0336 -0.1602
44412W        W87465   0.235  24.879  27.883  0.2043 -0.0494 -0.0880
44413W        W87466  32.244  32.635  17.894 -0.0091 -0.1653  0.1609
44414W        W87467   1.374  25.135  13.865  0.2416  0.0481  0.1291
44415W        W87468   3.732  29.618  24.094 -0.1171  0.1758 -0.3839
44416W        W87469  13.141  20.208  20.994 -0.3154 -0.0703 -0.1949
44417W        W87470  22.738   4.442  21.585  0.2685  0.1116  0.1467
44418W        W87471   8.879  27.953  19.048 -0.2164 -0.3798  0.1749
44419W        W87472   4.766   8.931  19.984  0.1970  0.2329  0.3108
44420W        W87473   0.452   8.654  16.923  0.0237  0.1776 -0.0377
44421W        W87474  21.678  18.537  14.439 -0.0719 -0.1763 -0.2456
44422W        W87475  31.891  19.408  21.650 -0.2448 -0.1491 -0.1179
44423W        W87476   7.785  20.355  15.595 -0.0442 -0.1363  0.3250
44424W        W87477  17.342   8.386  20.421 -0.0910 -0.1522 -0.0257
44425W        W87478  13.423   8.585  26.329 -0.1710  0.3001  0.1166
44426W        W87479   9.621  33.537  17.611 -0.0737 -0.0782 -0.1042
44427W        W87480   6.749  21.258  15.065 -0.2322 -0.2135 -0.2342
44428W        W87481  29.595   4.046  14.450  0.2557 -0.0669  0.1989
44429W        W87482   5.581  14.483  16.777 -0.0890  0.1215  0.1391
44430W        W87483  33.798  25.137  24.170 -0.2899  0.1371  0.2073
44431W        W87484  11.942  12.512  21.553 -0.1726  0.0580  0.3338
44432W        W87485   7.032  16.580   3.037 -0.1144 -0.1382  0.1647
44433W        W87486   8.757   9.041  22.764 -0.1069 -0.0466 -0.0936
44434W        W87487   2.958  30.695  18.679 -0.2774  0.0151  0.2301
44435W        W87488   3.945  17.478  28.875 -0.1486 -0.1019 -0.3855
44436W        W87489  12.760   1.880  19.293 -0.1330 -0.0592 -0.0375
44437W        W87490  12.184   4.564  20.352 -0.0139 -0.1637  0.0829
44438W        W87491  32.595  27.744  17.703  0.0746  0.0693 -0.2775
44439W        W87492  33.670  19.772  24.592 -0.0498 -0.4102 -0.3459
44440W        W87493  26.677  16.790  17.459 -0.0659  0.1522  0.3001
44441W        W87494   5.756  33.768  15.760  0.1749  0.0403  0.3524
44442W        W87495  11.245  29.052  16.997  0.0730  0.0069  0.0766
44443W        W87496  17.333  25.228  20.671  0.0571  0.0077 -0.0047
44444W        W87497  21.118  20.734  22.031 -0.3797  0.2812 -0.0048
44445W        W87498   4.025  34.639  15.045 -0.0103  0.0439 -0.0590
44446W        W87499   4.369  18.688   3.292  0.2329  0.1576  0.2568
44447W        W87500   2.497  30.299  21.689 -0.1720 -0.0784 -0.2566
44448W        W87501   9.592  32.274  27.751  0.0485  0.0733 -0.1340
44449W        W87502   0.332  31.534  16.310 -0.0539 -0.1263 -0.2349
44450W        W87503   3.796   3.706  22.375 -0.0335 -0.0658  0.2056
44451W        W87504  19.474  15.959  24.866 -0.3596  0.2707 -0.0272
44452W        W87505  30.260  29.633  15.338  0.1848  0.4241 -0.1936
44453W        W87506   8.842  16.055  15.802  0.0793 -0.2451  0.2524
44454W        W87507   0.815  10.564  23.875 -0.1691 -0.1017 -0.2840
44455W        W87508   6.628  19.903  25.867  0.0629  0.0221 -0.1952
44456W        W87509   7.358   3.132  17.710 -0.1562  0.0181 -0.2038
44457W        W87510   0.770  27.762  24.356 -0.0240  0.3477 -0.2913
44458W        W87511  10.533  12.737  21.654 -0.0352 -0.1424 -0.2733
44459W        W87512   8.790  28.527  15.368 -0.2309 -0.1634 -0.0573
44460W        W87513   0.434  25.755  13.708  0.1822 -0.0583  0.1706
44461W        W87514  33.957  20.451  23.753  0.3342  0.3042  0.1430
44462W        W87515  14.676  26.364  20.678 -0.0686  0.1408  0.0857
44463W        W87516   1.449  10.492  20.001 -0.1729 -0.1848 -0.0472
44464W        W87517  19.027   7.564  26.454  0.0461  0.1293 -0.1026
44465W        W87518  22.377  24.599  20.638  0.0986 -0.0086  0.2736
44466W        W87519  22.897  32.156  19.709  0.0376  0.0400  0.1533
44467W        W87520  30.669  29.469  15.870 -0.0002  0.1855  0.0890
44468W        W87521  14.779  24.939  18.223 -0.2140  0.2187 -0.0668
44469W        W87522   1.903  33.246  14.067  0.0472 -0.0333 -0.2526
44470W        W87523  30.719   9.400  21.543 -0.2644  0.0253  0.4289
44471W        W87524   1.595   8.039   2.360  0.2215 -0.1196  0.3010
44472W        W87525  17.916   7.617  23.178  0.0038  0.1378  0.2887
44473W        W87526  23.539  12.041  29.115  0.0604 -0.1702 -0.0084
44474W        W87527  21.568  31.012  15.266  0.0701 -0.2433  0.1280
44475W        W87528  28.714  18.950  25.519 -0.1382 -0.0937 -0.1312
44476W        W87529   5.300   9.920  22.424  0.1662  0.0608 -0.1656
44477W        W87530  23.359  14.593  17.933 -0.4332 -0.2875 -0.1623
44478W        W87531  32.279  13.632  26.442 -0.2086  0.1482  0.4394
44479W        W87532   9.287  30.961  21.901  0.1867 -0.0467 -0.1365
44480W        W87533  11.535  25.461   5.434  0.1959  0.2097  0.3139
44481W        W87534   5.595  34.489  20.305  0.5556  0.0276  0.1401
44482W        W87535  34.304  17.415  14.455  0.0286  0.1688  0.1688
44483W        W87536  14.493   8.429  21.144 -0.4499 -0.1546 -0.1752
44484W        W87537  29.878  22.651  15.623 -0.0079 -0.5341  0.2896
44485W        W87538  19.992  26.801  22.677  0.1636  0.0592 -0.2510
44486W        W87539   4.623  28.734  22.226 -0.1450  0.0154  0.0076
44487W        W87540   3.543  27.521  25.512  0.0270  0.1551 -0.1324
44488W        W87541   0.923  20.006   1.619 -0.0415 -0.0992 -0.1717
44489W        W87542  15.593  26.240  14.209  0.3205 -0.3571  0.0758
44490W        W87543   9.891   0.139  15.923  0.2436  0.1345 -0.1753
44491W        W87544  11.393   2.499  24.883  0.2880  0.0829 -0.0678
44492W        W87545   8.586   0.116  22.918 -0.0876 -0.1838 -0.2849
44493W        W87546   4.696   0.050  16.988  0.1799  0.1535 -0.4677
44494W        W87547  10.992  10.373   7.811 -0.1303  0.0947  0.3189
44495W        W87548  19.558   3.402  23.130 -0.1933 -0.1704  0.0286
44496W        W87549  11.926  25.206  16.887  0.1196 -0.0980  0.1611
44497W        W87550  31.409  15.560  22.630 -0.0493 -0.0995 -0.1310
44498W        W87551   9.805  15.738  14.868  0.0850 -0.1231  0.0834
44499W        W87552  33.932   3.571  18.540  0.0665 -0.0871  0.1464
44500W        W87553  14.612  22.447  19.826  0.0581  0.2375  0.2052
44501W        W87554  31.197  33.514  16.815 -0.0747  0.0823  0.1025
44502W        W87555  18.003   1.393  16.585 -0.0468 -0.0645 -0.0600
44503W        W87556  16.693   6.221  18.039 -0.2664 -0.2770  0.3061
44504W        W87557   6.631  31.345  16.402 -0.0841 -0.2316 -0.1685
44505W        W87558   5.554  34.551  15.143 -0.1943  0.4257  0.2837
44506W        W87559  22.790  14.261  18.885 -0.0568 -0.0665 -0.2254
44507W        W87560   4.233  18.327  20.168  0.0201  0.1358 -0.1444
44508W        W87561   7.370   1.162  26.326 -0.3677  0.0180  0.1265
44509W        W87562   7.120  29.086  14.091 -0.0122  0.1576  0.0831
44510W        W87563  20.274  17.276  23.664 -0.2357 -0.2102  0.0438
44511W        W87564   4.709  15.215  27.183  0.1938 -0.3911 -0.2884
44512W        W87565   5.327  23.251  14.393  0.1761  0.2659 -0.1232
44513W        W87566  24.623  21.111  21.265  0.0838 -0.2044 -0.0286
44514W        W87567   7.954  28.414  21.204 -0.2535  0.4370  0.1917
44515W        W87568   6.129  32.679  19.092 -0.1524  0.1549  0.0036
44516W        W87569   7.478   9.922  15.068 -0.1159  0.1572 -0.1401
44517W        W87570  18.371  31.291  20.650  0.0560  0.0970 -0.1588
44518W        W87571  12.657  21.942  23.708 -0.1257 -0.2036  0.1514
44519W        W87572  16.599  17.878  12.880 -0.0671  0.2371  0.3058
44520W        W87573  30.824  13.912  20.073 -0.0024 -0.0232 -0.1356
44521W        W87574   2.013  33.884  27.048  0.2569 -0.0485 -0.3774
44522W        W87575  16.780   4.845  21.049 -0.1222 -0.0659  0.1356
44523W        W87576   5.652  13.378   7.847 -0.1938 -0.2062 -0.0122
44524W        W87577   7.417  14.047  27.076 -0.5487  0.0515  0.1371
44525W        W87578   6.301  20.164  25.592 -0.2649  0.1538  0.0389
44526W        W87579  10.002  27.596  26.074 -0.1861 -0.0998 -0.0299
44527W        W87580  20.573  30.673  20.994  0.2819  0.0762 -0.3309
44528W        W87581  14.530  22.473  20.320  0.1991  0.1195 -0.1731
44529W        W87582  29.261  23.617  16.444  0.2440 -0.1524  0.0469
44530W        W87583   2.466   7.606  17.880 -0.0336  0.0208  0.1298
44531W        W87584   3.433  27.488  22.099 -0.1387 -0.0348  0.2940
44532W        W87585   5.814  18.605  21.481  0.2102 -0.1834  0.0151
44533W        W87586   1.836   7.612  18.687 -0.0618 -0.0847  0.1334
44534W        W87587  13.082  16.481  19.050  0.1377 -0.1900  0.3454
44535W        W87588   1.843  25.821   0.669 -0.0916 -0.0885  0.0094
44536W        W87589  12.060  21.260  26.819  0.0561 -0.0572  0.1451
44537W        W87590   0.462   7.742   3.269  0.0470 -0.0578  0.0300
44538W        W87591   1.565  16.925  24.849 -0.1727  0.2753  0.2787
44539W        W87592  26.776  25.131  24.577 -0.4844  0.0136  0.0591
44540W        W87593   7.420  15.247  23.383 -0.3694  0.2351  0.0452
44541W        W87594  25.492  21.389  14.703 -0.0033  0.1275 -0.3073
44542W        W87595   7.206  31.857  16.961  0.2172 -0.0042  0.1998
44543W        W87596  22.702  25.376  25.284  0.1306 -0.3700  0.1884
44544W        W87597  29.976  27.180  27.278 -0.2314  0.1661  0.2545
44545W        W87598  10.462  13.513  19.135  0.0205 -0.1675 -0.3282
44546W        W87599   3.694   9.533  26.837  0.3774  0.0272  0.0817
44547W        W87600  15.615  26.285  15.970 -0.1459  0.3607 -0.0058
44548W        W87601   5.671  33.382  16.698 -0.1306  0.0709 -0.0481
44549W        W87602   8.292  20.585  17.059 -0.1315  0.3825  0.2759
44550W        W87603  30.896  25.406  15.121 -0.0184  0.0897  0.1085
44551W        W87604  34.311  29.591   5.254  0.2572  0.0991 -0.1894
44552W        W87605  22.748  31.023  17.450 -0.1827  0.3095 -0.1842
44553W        W87606   7.570  20.982  18.606 -0.1517 -0.2545  0.0212
44554W        W87607  21.987   8.568  25.293 -0.0319  0.3596  0.1135
44555W        W87608  16.472  24.383  21.601 -0.0263  0.2653 -0.2569
44556W        W87609  24.706   7.305  14.849 -0.4099 -0.0871  0.1484
44557W        W87610  20.910  19.990  21.727 -0.0834  0.1130 -0.3507
44558W        W87611   7.819  12.888  22.055  0.1085 -0.0273  0.0729
44559W        W87612  22.930  22.673  22.792 -0.2986  0.0584  0.2406
44560W        W87613   5.744  34.580  14.531  0.2424 -0.1996  0.0288
44561W        W87614  30.492  23.917  23.230  0.2345 -0.1224  0.1675
44562W        W87615  10.459  26.190   8.075 -0.0791 -0.0896 -0.0409
44563W        W87616  15.240  29.486  15.948  0.0512  0.0198 -0.0598
44564W        W87617  27.331  21.353  20.293  0.1372 -0.2718 -0.1498
44565W        W87618  24.628  11.943  18.916  0.1370  0.0018 -0.2279
44566W        W87619  19.731  25.687   9.319  0.1295 -0.0085 -0.0231
44567W        W87620  20.619  26.141   1.266 -0.0476 -0.1406 -0.1748
44568W        W87621  26.258   1.086   0.073 -0.3494  0.1942  0.4333
44569W        W87622  32.827  29.366  15.958 -0.4200 -0.1692 -0.1231
44570W        W87623  34.394  21.205   1.403 -0.0286  0.0942  0.0020
44571W        W87624  14.149  21.201  16.836  0.1099 -0.3781  0.1368
44572W        W87625   4.251   3.640   8.383  0.0168 -0.0842  0.2298
44573W        W87626  27.923  24.753  14.255  0.0252 -0.1649  0.2437
44574W        W87627  11.208  15.601  20.363 -0.2644  0.0359  0.2710
44575W        W87628   6.359  33.106  19.210  0.0636  0.0843 -0.2251
44576W        W87629  22.888  22.772  23.407  0.2175  0.1993 -0.1405
44577W        W87630   7.398  11.384  28.665 -0.0025 -0.1822  0.0516
44578W        W87631  18.814  19.494   1.103 -0.0388 -0.2983  0.0682
44579W        W87632  10.778  18.845  17.325  0.3158  0.2620  0.1026
44580W        W87633  14.372  26.037  24.535  0.2838 -0.1586 -0.3705
44581W        W87634  22.765   1.418  18.072 -0.2642 -0.2836 -0.0447
44582W        W87635   3.560  10.401  17.527  0.0087  0.4560 -0.1423
44583W        W87636  13.087  19.681  27.007 -0.4094 -0.0138  0.0526
44584W        W87637   0.770  21.786  14.714 -0.0551  0.3496  0.2424
44585W        W87638   7.213  15.633  28.205 -0.1337  0.2064 -0.0509
44586W        W87639   3.394  19.314  18.608  0.1872  0.3910  0.0941
44587W        W87640  28.188  23.241  19.243 -0.1363  0.0452 -0.1829
44588W        W87641  32.778  21.334  26.487 -0.4143  0.0270 -0.1767
44589W        W87642   4.289  20.351  23.446 -0.0093  0.1913 -0.0806
44590W        W87643  33.546  20.997  22.004  0.1444  0.0999 -0.4005
44591W        W87644   1.368  31.008  22.576  0.2217  0.2229 -0.1407
44592W        W87645  22.696   5.845  17.308  0.2133 -0.0184  0.3326
44593W        W87646   4.324  13.318  25.032  0.2689 -0.1939  0.0250
44594W        W87647   6.680  11.904  14.865 -0.1847  0.0027  0.2388
44595W        W87648   3.792   6.026  23.271  0.2124 -0.2418 -0.0163
44596W        W87649   4.214   7.500  26.760 -0.0455  0.0407  0.0611
44597W        W87650   6.910  21.742  27.232 -0.1285 -0.3253  0.2181
44598W        W87651  10.658  32.333  15.581  0.0273  0.0917 -0.0398
44599W        W87652  13.328   7.014   0.615  0.0936  0.1156  0.3470
44600W        W87653   3.767  18.446  25.196  0.0405 -0.0166 -0.2056
44601W        W87654   7.793   3.235  21.338  0.0009 -0.2287 -0.1316
44602W        W87655  14.924  16.289  12.949  0.1731 -0.0051  0.1794
44603W        W87656  10.642  18.802  24.285 -0.2247 -0.1123  0.2561
44604W        W87657  17.444  27.908  14.129  0.3445 -0.1953  0.0391
44605W        W87658  11.221  13.598  23.959 -0.4835 -0.0216  0.0866
44606W        W87659   7.573  17.790  19.772  0.2010 -0.1035 -0.0325
44607W        W87660   1.144  25.610  20.883  0.0217 -0.1766 -0.1284
44608W        W87661   0.232  20.659  14.013 -0.3250  0.1117  0.0669
44609W        W87662  28.961  13.794  16.255  0.0292  0.3067  0.2431
44610W        W87663  23.654  15.114  14.342  0.0096  0.2280  0.0813
44611W        W87664  32.810  25.240   7.662 -0.0018  0.2067 -0.3555
44612W        W87665   0.677  19.685  28.802  0.2987 -0.2026 -0.2282
44613W        W87666   9.928  12.675  22.416 -0.2827 -0.1158 -0.4280
44614W        W87667  14.496  18.156  22.417  0.0504  0.1927 -0.0349
44615W        W87668   3.654  23.849  24.896 -0.0745  0.1505  0.0767
44616W        W87669  33.561  10.797  23.862 -0.2889 -0.1589 -0.1332
44617W        W87670  10.982  14.560  18.648  0.0268 -0.0286  0.2563
44618W        W87671   9.912  25.491  15.018  0.2015  0.2424 -0.1525
44619W        W87672  25.165   0.418   2.447  0.2744  0.0691  0.0652
44620W        W87673  13.284  19.618  16.160 -0.1331 -0.4186 -0.0372
44621W        W87674   5.687  27.106  13.343 -0.1103 -0.0292  0.0002
44622W        W87675   7.066  18.159   0.495  0.3248  0.0596 -0.0091
44623W        W87676  21.070  10.096  22.766 -0.0711  0.1558  0.2887
44624W        W87677  30.197  15.521  21.086  0.0555 -0.2111 -0.1903
44625W        W87678  11.731  29.744  15.782  0.1635 -0.1040  0.2843
44626W        W87679   8.071  14.157   3.894 -0.1194  0.2180 -0.0819
44627W        W87680   5.273  26.378  13.697 -0.3572 -0.0221 -0.1373
44628W        W87681   0.134  34.181  17.955 -0.0311  0.0272 -0.0611
44629W        W87682  10.409  34.327  16.740 -0.0196  0.1716 -0.1715
44630W        W87683  19.882   5.212  19.882 -0.1509  0.1856  0.2061
44631W        W87684   9.260  13.101  18.871 -0.0593 -0.2348 -0.4756
44632W        W87685  17.531  19.832  15.072 -0.0358  0.0301  0.0521
44633W        W87686   2.032   9.850  14.078 -0.1898  0.0038  0.1073
44634W        W87687   6.296  22.292  13.702  0.1781 -0.2139  0.3324
44635W        W87688   6.387  27.298  14.426  0.0235 -0.3217 -0.0286
44636W        W87689   9.931   8.171  20.174 -0.3015  0.0096 -0.0171
44637W        W87690   0.234  19.696  21.625  0.2712  0.2594  0.0321
44638W        W87691  25.987  22.460  20.697  0.0787  0.0124  0.3059
44639W        W87692   4.260  22.698  19.315 -0.2334 -0.0195 -0.1335
44640W        W87693   1.058  29.887  27.574  0.1652 -0.4223  0.4843
44641W        W87694  11.748   2.013  20.964  0.3382  0.0051 -0.2975
44642W        W87695  10.732  23.834  26.883 -0.2179  0.1696 -0.2363
44643W        W87696  17.690  24.859  22.805  0.0499  0.1498 -0.0621
44644W        W87697  27.859  15.303  20.190 -0.2061 -0.0908  0.1343
44645W        W87698  18.700   5.428  14.458 -0.0037 -0.1273  0.2110
44646W        W87699   8.305  26.898  21.344 -0.1365  0.0369 -0.2758
44647W        W87700  33.306  28.673  28.203 -0.2410  0.0947  0.0846
44648W        W87701  22.461  22.552   3.405 -0.3453 -0.0676  0.0679
44649W        W87702  13.392  14.250  20.613  0.1608  0.0140 -0.3409
44650W        W87703  23.815  21.233   7.060 -0.0334 -0.0393  0.4751
44651W        W87704   9.709  26.645  16.226  0.2315 -0.2523  0.1604
44652W        W87705  12.659  10.891  22.610 -0.0691  0.1762 -0.1111
44653W        W87706  33.916  13.489   5.686  0.1473 -0.2717 -0.0198
44654W        W87707  11.831  17.722  16.130  0.1194 -0.1032 -0.0354
44655W        W87708   8.778  16.535  14.253 -0.0574 -0.0905 -0.0249
44656W        W87709  16.403  29.934  16.497  0.0778 -0.0884  0.0471
44657W        W87710   1.582  15.497  19.460 -0.2442  0.2870  0.2806
44658W        W87711   1.626   9.987   7.916 -0.3990  0.1453 -0.0401
44659W        W87712  18.426   7.168  26.592 -0.0607  0.2441 -0.0964
44660W        W87713  22.615  11.533  21.337  0.2175  0.4433 -0.1190
44661W        W87714   6.598  19.397  17.917  0.1091 -0.1989 -0.2958
44662W        W87715  19.012  21.794  25.446 -0.0863  0.2938  0.2445
44663W        W87716  12.099  28.435  12.803  0.0213  0.0362  0.0233
44664W        W87717   1.719  21.640  20.474  0.1291 -0.3416 -0.0485
44665W        W87718  25.299  23.432  17.098  0.3125 -0.2422  0.4178
44666W        W87719  32.044   4.848  18.800  0.1868  0.3426 -0.2175
44667W        W87720  15.598  24.537  20.127  0.1457  0.2187  0.2138
44668W        W87721   1.794  22.084  26.556 -0.1101 -0.1350  0.1785
44669W        W87722  29.785  32.127  16.450  0.1842  0.0711  0.1352
44670W        W87723   9.086  33.535  23.235 -0.0235  0.1516 -0.0538
44671W        W87724  22.620  26.870  20.247  0.0909 -0.0291 -0.1583
44672W        W87725   4.014  11.550  26.057  0.4238 -0.1668 -0.1761
44673W        W87726   2.496  22.434  28.861 -0.5178  0.1689  0.2980
44674W        W87727  14.267  28.625  17.821  0.0254  0.2056  0.2466
44675W        W87728  29.954  33.719  24.536  0.3755 -0.0478  0.0407
44676W        W87729   0.826  24.675  21.186  0.0588  0.1150  0.1764
44677W        W87730  34.619  23.283   2.007 -0.1402  0.2084 -0.0096
44678W        W87731  18.130  17.588  13.772 -0.2521 -0.1487 -0.3859
44679W        W87732  28.107  11.758  22.926 -0.1192  0.1534  0.2977
44680W        W87733  20.654   9.081  15.733 -0.0289  0.1042  0.1357
44681W        W87734  12.947  34.035  14.280  0.1789 -0.0065  0.1293
44682W        W87735  33.318  25.200  19.188 -0.0179  0.2142 -0.1175
44683W        W87736  12.140  31.463  25.211 -0.0471  0.2900 -0.0325
44684W        W87737  12.624  19.569  28.565  0.1150  0.1999  0.6397
44685W        W87738   5.791  18.424  22.367  0.1116  0.2620 -0.2086
44686W        W87739   6.752  14.548  23.603 -0.0004 -0.1206  0.0567
44687W        W87740  10.270   3.221  20.767 -0.2803  0.3014 -0.2047
44688W        W87741   3.922  13.008  22.427  0.2126  0.1464  0.0318
44689W        W87742   1.611  21.111  28.860  0.3367 -0.1737 -0.0742
44690W        W87743  14.392   1.522  17.619 -0.1527 -0.0734  0.3221
44691W        W87744  24.144   4.481  16.502 -0.2151 -0.2844 -0.0893
44692W        W87745  11.534  18.427  19.478  0.2218  0.0686  0.0045
44693W        W87746   2.360  14.048   0.737  0.3242  0.3396 -0.3598
44694W        W87747   5.741  24.977  19.749 -0.0080 -0.3829 -0.0640
44695W        W87748  12.332  23.942  21.969  0.1700 -0.2439 -0.0189
44696W        W87749  23.680  22.444  19.148  0.2148 -0.1361  0.0495
44697W        W87750   2.572  10.990  17.795 -0.1547 -0.2555 -0.2139
44698W        W87751  18.447   1.137  20.208 -0.0759 -0.0147 -0.0350
44699W        W87752   1.961  21.091  23.183 -0.1548  0.0556  0.0867
44700W        W87753  21.104  22.161  25.734  0.0631  0.2424 -0.0908
44701W        W87754  17.357  34.293   7.314  0.0621  0.1356 -0.0638
44702W        W87755  20.077   7.630  18.277  0.1482 -0.1016  0.1651
44703W        W87756  16.810   5.052  14.044 -0.2198  0.2583  0.3607
44704W        W87757   1.675  23.151  17.631 -0.0066  0.0636 -0.0982
44705W        W87758   4.948  10.898   7.873 -0.0422  0.0054  0.0490
44706W        W87759   8.393   1.835  26.746  0.1596 -0.1311  0.0456
44707W        W87760  26.283   8.769  22.049 -0.0436  0.1526  0.1231
44708W        W87761  12.315  33.129  19.192  0.2235 -0.1287  0.2587
44709W        W87762  33.847  26.080  21.338 -0.1877  0.2825  0.1539
44710W        W87763   0.255  22.956  25.214 -0.3108 -0.2162  0.3760
44711W        W87764   0.568  19.860  14.878 -0.1985 -0.1336 -0.2026
44712W        W87765   9.948  16.817  15.617 -0.0356  0.4139 -0.1706
44713W        W87766  17.118  18.576  23.567  0.1886 -0.1752 -0.0184
44714W        W87767  26.954  10.418  15.727 -0.0678 -0.1740  0.0526
44715W        W87768   4.340  16.230  23.314 -0.1519  0.2099 -0.0556
44716W        W87769   3.481  11.566  24.216  0.1399  0.1242 -0.2251
44717W        W87770  16.163  18.302  16.325  0.3570  0.0990 -0.0797
44718W        W87771   4.467  23.428  14.338  0.1107 -0.0329 -0.0849
44719W        W87772   5.828  16.730   4.634 -0.0573  0.1856  0.2902
44720W        W87773   4.672   7.854  22.994  0.0421  0.1674 -0.0855
44721W        W87774   7.686   4.609  19.657 -0.0589 -0.0542 -0.1461
44722W        W87775   8.643  12.672  16.430  0.0649 -0.3585  0.1960
44723W        W87776   8.301  14.933  17.793 -0.0510 -0.1452 -0.0497
44724W        W87777  10.816  19.332  14.828 -0.0902  0.1051 -0.0044
44725W        W87778  14.342  21.066  22.772  0.0797 -0.0454 -0.1096
44726W        W87779   4.163  19.343  20.114  0.1019 -0.2060  0.2825
44727W        W87780   7.588  19.068   9.928  0.0366  0.1443  0.1109
44728W        W87781   2.505  23.825  24.000 -0.0467 -0.0710 -0.1726
44729W        W87782  15.717  32.153  29.061 -0.0515  0.0569  0.4178
44730W        W87783  34.458  15.133   0.166 -0.2086  0.0372 -0.0563
44731W        W87784  32.681  26.050  24.623 -0.1594  0.1410  0.5222
44732W        W87785  25.692   4.447  17.611  0.1687  0.0353  0.1548
44733W        W87786  13.269  27.172  14.020 -0.2214  0.1241 -0.2785
44734W        W87787   4.383  23.133  26.522  0.0856 -0.0001  0.1165
44735W        W87788  12.153  11.771  25.940  0.2240 -0.1278  0.0564
44736W        W87789   9.125   2.656  25.666  0.3105 -0.1928  0.2280
44737W        W87790   9.207   6.409   0.044  0.0144  0.2026  0.2256
44738W        W87791   8.967  17.104  21.210  0.3741 -0.0092  0.0080
44739W        W87792  28.885  29.283  22.636 -0.1201  0.2452 -0.0061
44740W        W87793  16.019  32.125  18.534 -0.1269 -0.2224 -0.1154
44741W        W87794  30.657   9.434  28.611  0.3528  0.0533  0.1119
44742W        W87795  31.669  17.495  17.216  0.0950  0.1567 -0.3306
44743W        W87796   9.099  21.071  17.972  0.3794 -0.1593 -0.0358
44744W        W87797   8.142   4.661  18.211  0.4029  0.0832 -0.1087
44745W        W87798   9.616  33.759   1.163 -0.2203 -0.0404  0.0110
44746W        W87799   7.158  18.594  14.227 -0.1065 -0.3329 -0.1605
44747W        W87800   3.656  20.296  17.629 -0.1667  0.2096 -0.0644
44748W        W87801  13.905  33.212  25.261  0.0764  0.1817  0.3121
44749W        W87802   2.581  29.146  22.351  0.2478 -0.0232  0.1774
44750W        W87803  15.911  27.244  15.770  0.1656  0.0634 -0.0437
44751W        W87804  13.416  24.508  19.969  0.0507 -0.0123  0.0913
44752W        W87805   3.647  19.753  28.306  0.1713  0.1465 -0.0098
44753W        W87806   4.253   4.895  22.444  0.2929  0.1238 -0.0153
44754W        W87807   0.663  13.523  16.264  0.4014  0.1202 -0.1577
44755W        W87808  11.562  30.154  15.654  0.0825 -0.0966  0.1071
44756W        W87809   5.968  17.855  16.040  0.1982 -0.0285 -0.0148
44757W        W87810  10.184  31.756  16.347  0.1671 -0.0206 -0.1067
44758W        W87811  33.467  30.684  16.675  0.1423 -0.1442  0.6503
44759W        W87812   0.055  14.934  14.346  0.0403  0.3407  0.2172
44760W        W87813  15.009  12.139   8.869 -0.1450  0.2021 -0.0725
44761W        W87814  12.720  28.445  19.147  0.2323  0.0391 -0.1628
44762W        W87815   5.492  27.070  16.238 -0.0716 -0.2455  0.2036
44763W        W87816  14.426  14.107  17.975  0.3001  0.1043  0.3802
44764W        W87817   1.741   1.954  25.274 -0.0440 -0.0737 -0.3581
44765W        W87818  14.594   5.253  16.215  0.2043  0.1746 -0.0538
44766W        W87819   3.556  21.017   1.166 -0.3815  0.3297 -0.3801
44767W        W87820   3.151   1.603  24.301  0.1163  0.2295  0.1029
44768W        W87821  33.472  19.159  14.650 -0.1433  0.1003  0.2874
44769W        W87822   6.414   4.720  21.590  0.1243  0.2446  0.1544
44770W        W87823   8.738  14.689  20.783 -0.1212 -0.2406 -0.0399
44771W        W87824  22.020  19.137  15.129  0.2527  0.0135  0.0774
44772W        W87825  15.135  23.052  16.826  0.0391 -0.0656  0.0545
44773W        W87826  13.796  27.168  17.254 -0.0348 -0.1514  0.1565
44774W        W87827  33.769  19.510  15.760 -0.0955 -0.1299  0.4037
44775W        W87828   7.911  34.511   9.149  0.1413 -0.1161 -0.2433
44776W        W87829  23.158  18.724  27.915  0.1432 -0.1075 -0.3849
44777W        W87830   6.301  22.709  16.193  0.2954 -0.0645 -0.0476
44778W        W87831  15.074   0.289  26.319 -0.1834 -0.2758  0.2302
44779W        W87832   2.458  15.947  15.029  0.3808  0.0418 -0.1990
44780W        W87833  14.469  32.004  23.828 -0.0615  0.0287  0.3377
44781W        W87834   2.218  19.292  18.631 -0.0273  0.2888 -0.2187
44782W        W87835  18.917  11.667  17.240  0.0485  0.2852 -0.0195
44783W        W87836   6.671  25.149  24.382 -0.1094 -0.0540  0.0440
44784W        W87837   2.637   6.296  19.030 -0.0852 -0.1556  0.4897
44785W        W87838  30.602  22.563  22.142 -0.3201  0.1051  0.2267
44786W        W87839  18.714  22.594  19.527 -0.0600  0.1380 -0.1775
44787W        W87840  12.227   3.324  14.657 -0.3943 -0.2081 -0.1332
44788W        W87841  15.414  28.700  28.399  0.0720  0.1087 -0.0358
44789W        W87842   6.665  15.734  22.084  0.2986 -0.2063 -0.2306
44790W        W87843   9.153   5.392  23.566 -0.0088 -0.1334  0.1528
44791W        W87844  21.162  14.012  12.847 -0.2299 -0.2896  0.0020
44792W        W87845   5.004  13.642  27.242 -0.2200  0.0822 -0.1753
44793W        W87846   5.887  17.069  15.012 -0.0849  0.0885  0.2983
44794W        W87847  34.004  21.769  26.875  0.3996  0.1212  0.3581
44795W        W87848   5.028  24.206  16.385 -0.1123 -0.1147 -0.0674
44796W        W87849  11.703  18.706   0.443 -0.1333  0.1865  0.2959
44797W        W87850   4.111  16.837  21.810  0.2455  0.3516  0.0525
44798W        W87851  29.031  15.153  15.145  0.2155 -0.0108  0.2958
44799W        W87852   0.231  33.565  18.296  0.2095 -0.1696 -0.0014
44800W        W87853  24.461  31.326  16.791  0.1265 -0.2581  0.2474
44801W        W87854   1.399  25.020  24.745  0.0185 -0.0850 -0.1301
44802W        W87855  17.412  25.867  21.683  0.0397 -0.2846  0.4437
44803W        W87856  17.736  25.194  15.112 -0.0924 -0.0478 -0.2227
44804W        W87857   4.724  13.649  16.027 -0.0773  0.1936  0.2309
44805W        W87858  18.160  26.916  14.758 -0.1779 -0.2037 -0.1334
44806W        W87859  33.051  16.166  15.343  0.0878 -0.1203  0.0515
44807W        W87860  12.189  17.897  21.034  0.0106  0.0110  0.0458
44808W        W87861  30.678  13.756  25.259 -0.1199 -0.1940 -0.3196
44809W        W87862  11.962  22.272  18.163  0.0575  0.0989  0.2046
44810W        W87863  28.253  22.441  14.319  0.0002 -0.3525  0.0446
44811W        W87864   2.992  23.735   3.191  0.1378 -0.1321  0.1974
44812W        W87865  32.064  31.473  20.725  0.2487  0.0134  0.1371
44813W        W87866   5.796  33.158  15.101 -0.0149  0.0315 -0.0797
44814W        W87867  20.126  29.987   4.090 -0.3231 -0.2122 -0.0489
44815W        W87868  16.257  16.882  28.935 -0.0341 -0.4385 -0.0054
44816W        W87869  11.571  19.135  15.733  0.0924  0.0270  0.0223
44817W        W87870   7.495  24.393  27.009 -0.0786  0.2108  0.4967
44818W        W87871  11.016  26.827  20.593 -0.1800 -0.2684  0.2685
44819W        W87872  11.906  21.569   5.175 -0.2972  0.3366 -0.2298
44820W        W87873  19.759  19.404  22.056  0.2658  0.0845  0.1147
44821W        W87874   8.453  27.327  22.546  0.1632  0.0078  0.0763
44822W        W87875  21.893  33.066  14.854 -0.0235 -0.0261  0.1774
44823W        W87876  32.604  17.553   2.192 -0.0775  0.1757 -0.2067
44824W        W87877   7.697  22.056  16.429 -0.0459  0.0323 -0.1353
44825W        W87878  14.476  23.083  14.683  0.3236 -0.0621 -0.0085
44826W        W87879  14.756   2.417  15.893 -0.2880 -0.1102  0.1923
44827W        W87880  16.924  27.801  22.337  0.0238  0.1623 -0.3065
44828W        W87881   5.684  18.146  13.192 -0.1485 -0.0054  0.0912
44829W        W87882  33.392  10.664   0.751 -0.0009  0.1214 -0.3368
44830W        W87883   1.297  19.490  12.971  0.1236  0.1656  0.1678
44831W        W87884   5.654   3.656  18.277 -0.0963  0.2182 -0.0764
44832W        W87885  23.125  18.644  13.943 -0.1425 -0.0129 -0.1758
44833W        W87886  31.600  28.099  20.352  0.2195 -0.0980  0.1488
44834W        W87887  18.043  21.343  17.693  0.4721  0.2077  0.0946
44835W        W87888  15.771  11.691  18.107 -0.0415  0.3574  0.0290
44836W        W87889  11.894  16.961  22.724  0.1320  0.1347 -0.0227
44837W        W87890   6.352  28.012   0.889  0.1560  0.2397  0.0710
44838W        W87891  11.503  24.544  18.830  0.2104 -0.1339 -0.2746
44839W        W87892   7.342  29.033  13.213  0.4027  0.1582  0.5723
44840W        W87893  20.943  33.349   0.908 -0.1091 -0.0054  0.0471
44841W        W87894   3.747  30.294  15.473  0.2138 -0.1789  0.1963
44842W        W87895  13.724  19.449   1.920  0.2296  0.3199 -0.3608
44843W        W87896  13.876  24.867  26.116  0.0298  0.0521  0.2443
44844W        W87897   8.556  24.301  14.689  0.1799 -0.2608 -0.2250
44845W        W87898   5.424  17.343  24.105 -0.0267  0.0192  0.1785
44846W        W87899  22.392   3.065  20.160 -0.1318 -0.3045  0.2568
44847W        W87900   4.325  21.927  25.770  0.0297  0.0941  0.2395
44848W        W87901  32.344   8.205  19.645  0.0657 -0.3889  0.0057
44849W        W87902  16.730  23.683  22.076  0.2344  0.2703 -0.0145
44850W        W87903   6.613  23.512  15.142  0.1419  0.0636 -0.0936
44851W        W87904  26.384  13.962  17.272  0.2959 -0.2121 -0.2587
44852W        W87905  17.921  23.545  18.397 -0.3914 -0.1131 -0.2060
44853W        W87906  15.456  21.674  17.327  0.1221  0.4251  0.3932
44854W        W87907   4.069  15.724  19.940 -0.0702 -0.0968 -0.0796
44855W        W87908   5.804  19.822  18.063 -0.1349  0.0995  0.3658
44856W        W87909   4.362   5.821  15.547  0.2707  0.1031 -0.0635
44857W        W87910  25.181  22.207  16.052 -0.2849  0.1888  0.0896
44858W        W87911   9.503  21.518   4.682  0.0130  0.1091  0.1605
44859W        W87912  33.053  10.421  15.947  0.0358  0.1520 -0.0442
44860W        W87913  34.103  16.499  14.483 -0.0418  0.1362  0.0228
44861W        W87914  17.637  28.878   9.116  0.1574  0.1269 -0.0887
44862W        W87915   8.650  11.641  24.035 -0.1373 -0.0366 -0.0124
44863W        W87916   1.642  12.901  20.104  0.1493 -0.0903  0.2487
44864W        W87917  20.282  10.383  14.539  0.3553  0.3577  0.0168
44865W        W87918  14.219  23.754  20.479  0.4116 -0.2195 -0.0919
44866W        W87919  10.923   9.604  21.029  0.1435  0.1270 -0.2927
44867W        W87920  23.183   4.769  27.604  0.0361  0.0016 -0.2989
44868W        W87921   9.593  25.910  15.436 -0.0003  0.1645 -0.0574
44869W        W87922   1.102  26.265   3.843  0.2102  0.1342 -0.1554
44870W        W87923  13.382  33.821  19.161 -0.0450 -0.0129  0.0218
44871W        W87924   0.793  11.889  17.452  0.1367 -0.0249  0.1377
44872W        W87925   3.862  34.179  17.134 -0.4013  0.0900 -0.2131
44873W        W87926   9.877  23.919  21.543 -0.0094 -0.1416 -0.0800
44874W        W87927  23.719  15.550  18.784 -0.2418  0.0728 -0.2266
44875W        W87928  28.709  20.093  27.441  0.0312 -0.0731 -0.0735
44876W        W87929  12.311  22.731  24.540  0.1007 -0.2755 -0.2335
44877W        W87930  32.964  10.293  21.581  0.0059 -0.1101 -0.0076
44878W        W87931   9.650  20.824  16.995  0.0616 -0.3825 -0.3261
44879W        W87932   7.412  27.525  15.872  0.0251 -0.1422  0.1490
44880W        W87933  12.816   4.995   3.038  0.2776  0.1889  0.1145
44881W        W87934   8.601  12.745  28.510  0.0373  0.2013  0.1199
44882W        W87935  11.829  26.509  24.647  0.2163  0.1082 -0.2812
44883W        W87936  30.262  33.732  22.778 -0.1558 -0.2105 -0.1141
44884W        W87937   6.629  21.643  20.436  0.1761 -0.2495 -0.1327
44885W        W87938  11.938  22.850  24.227 -0.0964  0.0230  0.0872
44886W        W87939   8.670  24.359  28.814 -0.1714  0.0636 -0.3891
44887W        W87940  11.307  23.080  18.580 -0.0376  0.1555 -0.1481
44888W        W87941  14.612   3.222  22.347  0.0043  0.1296  0.0732
44889W        W87942  34.651   4.249  27.919  0.2163  0.2673  0.0561
44890W        W87943  29.093  28.907  17.131 -0.1333  0.0905  0.0455
44891W        W87944  22.738  24.295  17.311  0.1008 -0.1928 -0.2062
44892W        W87945  31.486  16.590  15.875  0.1650  0.0171 -0.2009
44893W        W87946  27.097   5.737  22.440 -0.0377  0.2234 -0.0577
44894W        W87947   4.871  14.124  22.003 -0.0773  0.1453 -0.1339
44895W        W87948   6.720  17.873  21.298 -0.2066  0.1878 -0.0067
44896W        W87949  13.369   8.281  20.884  0.0856 -0.0925 -0.2517
44897W        W87950   4.666   9.546  24.542 -0.0451  0.2461  0.2702
44898W        W87951   7.134  24.234  15.106  0.2896  0.0892 -0.1701
44899W        W87952   4.896   4.460   2.427 -0.1785 -0.0692  0.0062
44900W        W87953  10.336  20.992  21.473  0.2155  0.0293 -0.1644
44901W        W87954  14.096   8.575  21.985  0.0590 -0.0894 -0.1448
44902W        W87955  33.053  23.960  18.869 -0.0584  0.0349  0.0440
44903W        W87956  12.612  14.879  26.939 -0.5341  0.0883 -0.2141
44904W        W87957  29.459  24.444  20.419 -0.1275  0.0652  0.0706
44905W        W87958  10.245  11.771   2.411  0.2982 -0.1209  0.3447
44906W        W87959   7.571   3.817  15.367  0.0013  0.1174  0.2972
44907W        W87960  34.292  26.153  21.143  0.3081 -0.0456 -0.1060
44908W        W87961  15.646   0.306  19.784  0.0282 -0.1693 -0.0225
44909W        W87962   3.270  26.899  17.872  0.0160 -0.4171 -0.1721
44910W        W87963  20.376  26.440  18.887 -0.2619 -0.1225 -0.1397
44911W        W87964   5.426  29.902  28.496  0.0775  0.0059 -0.2018
44912W        W87965   0.341   8.716  27.688 -0.0545 -0.3361  0.2499
44913W        W87966   9.118  24.597  17.670  0.0525  0.0599 -0.3373
44914W        W87967  12.525  15.160  21.997  0.2181  0.3641 -0.1673
44915W        W87968  28.140  18.292  14.505  0.2559 -0.0354  0.2959
44916W        W87969  22.471  16.201  26.376 -0.3886  0.1319 -0.1861
44917W        W87970  11.698  14.030   5.605  0.1357 -0.2607  0.0219
44918W        W87971   4.878   9.276  27.595  0.2682  0.0336 -0.3080
44919W        W87972   7.986  31.528  14.102 -0.3104  0.2900  0.0309
44920W        W87973   1.152  30.404  25.152  0.0410  0.0956  0.0521
44921W        W87974   9.930  21.447  13.822  0.1019 -0.1816 -0.1144
44922W        W87975   4.251  13.064  24.590  0.1692 -0.0885  0.2438
44923W        W87976  11.027  13.769  16.490  0.0437 -0.1303  0.0763
44924W        W87977  14.424  32.519  25.873  0.0139 -0.5085 -0.0755
44925W        W87978   6.033  33.753   6.477 -0.0307  0.2887 -0.0752
44926W        W87979  14.548  28.479  24.945 -0.2714  0.0373  0.3556
44927W        W87980  22.271   0.460  14.971  0.4318 -0.2810 -0.1580
44928W        W87981  19.439  28.868  16.942  0.1732  0.1310  0.0078
44929W        W87982   8.562  29.545  26.967  0.0438 -0.3426 -0.1092
44930W        W87983   4.154  22.172  14.655 -0.0653 -0.0444  0.1115
44931W        W87984  16.554   8.140   7.085 -0.4215 -0.0251  0.1188
44932W        W87985   3.625  19.700  16.443 -0.1722  0.0677 -0.0229
44933W        W87986   9.382  17.957  20.715  0.1866 -0.2099 -0.1189
44934W        W87987  17.385  29.085  17.227 -0.0637  0.0673 -0.2608
44935W        W87988  11.659  20.452  26.649 -0.0022 -0.1450  0.0641
44936W        W87989   8.821  20.413  27.152 -0.0230  0.3344 -0.1038
44937W        W87990  26.584  24.308  24.822 -0.1181 -0.3704 -0.1056
44938W        W87991  27.809  17.163  28.300  0.2021  0.1093 -0.0322
44939W        W87992  27.774   9.336  21.158 -0.1823 -0.0076 -0.0446
44940W        W87993  28.427  22.645  17.241  0.1875 -0.0833  0.0460
44941W        W87994  20.057   4.266   7.188  0.2267  0.0569  0.3058
44942W        W87995  11.235  26.948   9.385  0.1326 -0.3486 -0.2999
44943W        W87996  21.205   1.417  22.614 -0.2573 -0.0185 -0.2102
44944W        W87997   3.046  28.851   7.031 -0.1188 -0.1114  0.1876
44945W        W87998   5.796  10.265  23.968 -0.0105  0.0479  0.1461
44946W        W87999  22.955  23.726  25.433 -0.2011  0.2179 -0.1617
44947W        W88000   7.058  21.733  26.772 -0.0564 -0.1790 -0.0514
44948W        W88001  20.340  28.493   7.939  0.1515 -0.1308 -0.1687
44949W        W88002   6.005  23.575   3.509 -0.3043  0.1244  0.0530
44950W        W88003   7.114  12.176  19.163  0.1899 -0.3175  0.2692
44951W        W88004  12.609  25.957  27.502  0.1457 -0.1939 -0.1623
44952W        W88005  30.280  15.754  25.116  0.0335 -0.1576  0.0205
44953W        W88006   5.195   6.393  24.542 -0.0291 -0.2188  0.1483
44954W        W88007  33.245   0.312  16.802 -0.0242 -0.3140 -0.2877
44955W        W88008  11.793   4.132   0.692 -0.0883 -0.0978 -0.2174
44956W        W88009   2.918  26.816  27.014 -0.2882  0.3077 -0.2024
44957W        W88010  32.865  21.464  27.483  0.0141 -0.4091 -0.1650
44958W        W88011  33.584  27.771  18.469 -0.4189 -0.0981  0.0880
44959W        W88012  15.497  25.359  19.602 -0.0895  0.1576  0.1786
44960W        W88013  18.508  23.640  26.345  0.0878  0.5938 -0.2508
44961W        W88014  12.801   4.605  22.417 -0.1246  0.0702 -0.0775
44962W        W88015  31.636   1.503  24.861 -0.3281 -0.1676  0.0721
44963W        W88016  22.687  21.541  27.167  0.1361  0.1358 -0.1128
44964W        W88017  20.140  22.436   8.307 -0.2620 -0.1399 -0.3366
44965W        W88018   7.503  20.705  22.072  0.1812  0.0546 -0.1615
44966W        W88019   8.621  11.891  19.700 -0.0919 -0.0956 -0.2830
44967W        W88020  25.819  31.933  23.562  0.0006 -0.1888 -0.2529
44968W        W88021   7.731  20.751  21.238 -0.3417 -0.5933 -0.1517
44969W        W88022  24.646   7.899   3.287 -0.4248 -0.1185 -0.1955
44970W        W88023   9.994   7.967  25.652  0.2926 -0.0143  0.2799
44971W        W88024  20.112  24.326  19.985 -0.1254 -0.1503  0.1103
44972W        W88025  32.633  22.449  27.466  0.3718 -0.0665 -0.1305
44973W        W88026   8.100   7.621  23.954 -0.0760 -0.0464 -0.1827
44974W        W88027  10.414  21.964  16.246  0.2159 -0.0151 -0.2711
44975W        W88028   5.049  21.336  20.252  0.1326 -0.1992 -0.1186
44976W        W88029  16.967  26.065  15.897  0.3193  0.2105 -0.3379
44977W        W88030  11.491  10.887  19.704 -0.0744 -0.0325  0.3512
44978W        W88031  14.656  22.744   6.631 -0.1776  0.6232  0.1746
44979W        W88032  30.065  33.304  14.832  0.1997  0.2042 -0.2870
44980W        W88033  33.349  29.324  28.539 -0.0846 -0.0937  0.3016
44981W        W88034   1.848  25.889  21.913  0.3013  0.1458  0.1510
44982W        W88035  12.973  34.446  18.827 -0.0019  0.3414  0.3594
44983W        W88036  32.697  18.339  15.862 -0.2852 -0.1008  0.2655
44984W        W88037   8.058  18.161  20.312  0.0611 -0.2539 -0.1944
44985W        W88038   4.962   4.195   0.596  0.0961 -0.1261  0.1353
44986W        W88039  19.749  13.846   8.021 -0.2284 -0.1445 -0.0662
44987W        W88040   8.057  22.396   5.509 -0.5571 -0.1579 -0.0852
44988W        W88041   8.110  21.890  19.393  0.3393 -0.2940 -0.1319
44989W        W88042  16.938  20.257  15.253  0.1428  0.1449  0.0521
44990W        W88043  13.482  17.983  15.203  0.0344  0.0873  0.2844
44991W        W88044  34.296  22.795  13.811 -0.1549  0.1181 -0.0558
44992W        W88045  14.957  25.145   3.692 -0.1172  0.0684  0.0193
44993W        W88046  11.675   1.737  16.568  0.0973  0.1393  0.1375
44994W        W88047  32.749   0.306  19.382 -0.1732 -0.0102 -0.0666
44995W        W88048  10.670  20.102  14.460  0.3208  0.1119  0.0837
44996W        W88049  22.682  20.523  28.553 -0.0307  0.2929  0.1688
44997W        W88050   7.812  25.551  13.784  0.1319 -0.0326 -0.0216
44998W        W88051  28.930  11.698  16.339  0.0888 -0.0647 -0.0938
44999W        W88052  21.419  18.548  23.845 -0.0971 -0.0476 -0.2109
45000W        W88053   7.699   6.032  26.131 -0.1272  0.1083 -0.3036
45001W        W88054  34.627  23.370  26.168 -0.0745 -0.0454 -0.2560
45002W        W88055   3.941  26.495  25.734 -0.1232 -0.5746  0.0051
45003W        W88056  32.450  22.566  23.310  0.0477  0.1034 -0.0388
45004W        W88057   7.614  10.359  27.294 -0.2610 -0.0620  0.0512
45005W        W88058  32.350   7.087   1.892  0.1200  0.0522 -0.0951
45006W        W88059   5.875  15.523  18.390  0.0562  0.0274  0.1293
45007W        W88060  15.341  14.877  14.412  0.1644 -0.1448 -0.1958
45008W        W88061  16.776  19.408  21.782 -0.0708 -0.1283 -0.2486
45009W        W88062   8.494  20.030  13.601  0.1099 -0.2055  0.1783
45010W        W88063   5.721   8.754  27.659  0.0230  0.0777  0.0916
45011W        W88064   1.051   3.363  15.551 -0.3454 -0.0283 -0.0489
45012W        W88065  15.244  32.064  29.107  0.1160 -0.4192  0.1065
45013W        W88066  11.096   8.700  20.573  0.2007  0.2556 -0.3454
45014W        W88067  23.680  11.500  15.046  0.0360  0.2262 -0.2476
45015W        W88068   8.977  29.650  18.900 -0.0561  0.2411  0.0641
45016W        W88069  28.683  10.813  27.644 -0.0158  0.1810  0.0370
45017W        W88070   0.742  15.463  14.415  0.1894  0.3229 -0.3313
45018W        W88071  31.108  27.205   6.235 -0.0270  0.0150 -0.0764
45019W        W88072  16.985  27.092   1.345 -0.1786 -0.3679  0.0923
45020W        W88073  20.246  21.599  28.514  0.0381 -0.0998 -0.0278
45021W        W88074  10.168  18.466  20.812  0.2329  0.2024  0.0425
45022W        W88075  20.206  12.318  25.848 -0.2017 -0.0279  0.2314
45023W        W88076   6.615  22.908  15.694 -0.0379  0.0423 -0.1604
45024W        W88077   5.281  18.902  13.476 -0.2310  0.1025 -0.1705
45025W        W88078   9.255  22.376  19.349  0.1403 -0.0040  0.0761
45026W        W88079  28.035  16.470  21.147  0.0952  0.2346  0.2151
45027W        W88080   7.256  21.786   1.655  0.1723 -0.1288  0.1337
45028W        W88081  10.182  26.351  14.650  0.0585 -0.3370 -0.0339
45029W        W88082  33.164  22.037   4.549  0.2489  0.0072  0.0470
45030W        W88083   0.706  32.680   4.376  0.1774 -0.0052 -0.1198
45031W        W88084  31.170  19.059   2.108 -0.1067  0.0156 -0.0810
45032W        W88085  24.545  19.993  16.526  0.0630  0.0626  0.0658
45033W        W88086   8.992  23.494   2.504 -0.0134 -0.2749  0.1377
45034W        W88087  33.547  21.856  26.122  0.0758  0.1400 -0.1586
45035W        W88088  18.598   0.329  29.005  0.1138 -0.0441 -0.1002
45036W        W88089  27.251  17.715  26.671 -0.1389 -0.2137 -0.0177
45037W        W88090  15.700  28.120  15.429 -0.1779  0.0725  0.0874
45038W        W88091  30.919  24.291  17.249  0.0467  0.2943  0.1132
45039W        W88092   4.405  24.521   1.014 -0.3474  0.3899  0.3386
45040W        W88093  10.936  19.638  24.985 -0.1031  0.2648  0.5856
45041W        W88094  28.299  10.210  19.531  0.2025 -0.2023  0.1112
45042W        W88095   8.113  22.635  19.351  0.1981 -0.2197  0.2841
45043W        W88096   5.396  11.152  22.092  0.0041 -0.1169 -0.1247
45044W        W88097  11.436  17.239  17.322 -0.0205 -0.2942 -0.2275
45045W        W88098   9.044  10.382   0.395 -0.2939 -0.0674 -0.2490
45046W        W88099  31.811  23.335   1.543 -0.2241 -0.1026 -0.0264
45047W        W88100  13.531  28.487  17.458 -0.0339  0.1644  0.0270
45048W        W88101   5.748   5.009  19.452 -0.0652 -0.1043  0.1951
45049W        W88102  13.752  21.640  24.453  0.3601  0.1032 -0.2183
45050W        W88103  10.246   4.509  28.234  0.0933  0.0894  0.0051
45051W        W88104   9.642  17.910  27.111  0.2810  0.1502 -0.1250
45052W        W88105  28.236  21.260  17.328 -0.0518 -0.1178 -0.2335
45053W        W88106  16.907  32.731  23.058  0.1821 -0.0082 -0.1496
45054W        W88107  13.122  23.778  21.771 -0.0035 -0.3038 -0.5000
45055W        W88108  26.153  13.123   4.495  0.2621 -0.0850  0.0574
45056W        W88109  10.326  16.127   8.962 -0.1384 -0.0755  0.0072
45057W        W88110  26.445  15.731  20.614 -0.0623  0.1070 -0.1168
45058W        W88111   3.645  17.686  23.523  0.0125  0.2478 -0.0791
45059W        W88112  33.966  14.739   8.276  0.0703 -0.4154 -0.2750
45060W        W88113  17.577  20.776  27.142 -0.0295 -0.2551  0.1216
45061W        W88114  18.649  22.809  14.350  0.4986  0.2535  0.0697
45062W        W88115  15.470  26.020  22.350 -0.0554 -0.4220  0.0463
45063W        W88116  17.612  17.300  12.574 -0.1363  0.3582  0.2608
45064W        W88117   4.113  32.517   3.185  0.0451  0.1481 -0.2844
45065W        W88118   7.182  27.891  18.993 -0.0058  0.1108  0.0996
45066W        W88119   2.679  24.962  24.406 -0.0433 -0.2658 -0.0275
45067W        W88120   1.341  16.970   6.314 -0.1560 -0.1435 -0.1753
45068W        W88121  30.659  23.936  14.406 -0.3003  0.1429  0.2962
45069W        W88122   3.153   5.456  19.134 -0.2458 -0.0888  0.2450
45070W        W88123  10.956  30.379  24.971  0.0529 -0.1304 -0.3177
45071W        W88124  32.200  26.744  25.160  0.0413  0.2100  0.0498
45072W        W88125  26.304   6.219  22.249  0.3289 -0.1828  0.1873
45073W        W88126  34.516  13.142  18.513 -0.3400  0.2148  0.2340
45074W        W88127  11.212   1.775  16.833 -0.0905  0.0688  0.3158
45075W        W88128  23.783  15.573  26.551  0.2217 -0.1792 -0.1461
45076W        W88129   5.233  26.997  17.816  0.1036 -0.1395 -0.2252
45077W        W88130   8.465  11.192  26.198  0.4012  0.0542 -0.1117
45078W        W88131   7.582  26.045  20.491  0.0148 -0.0430 -0.0076
45079W        W88132  26.863  14.542   8.073 -0.4103  0.0346 -0.0527
45080W        W88133   6.006  17.295  26.762 -0.0029  0.4833  0.0634
45081W        W88134  31.520  15.987  14.538 -0.3381  0.0698 -0.0510
45082W        W88135   9.212  27.776  15.148  0.0213  0.3306  0.2992
45083W        W88136   5.030  18.348  15.137 -0.2046  0.2524  0.1031
45084W        W88137  27.205  32.556  22.667 -0.0293 -0.2549  0.1159
45085W        W88138   2.329  29.499   6.858  0.1372  0.0514  0.1519
45086W        W88139  17.685  21.253   3.261  0.0380 -0.1759 -0.0842
45087W        W88140  24.407  31.476  20.100  0.1016 -0.0969  0.0336
45088W        W88141   5.736   6.773  25.065 -0.0488  0.1250 -0.1171
45089W        W88142   2.055  24.694  17.995 -0.0515 -0.0240  0.0056
45090W        W88143  21.222  22.957  26.730  0.0160 -0.0312  0.1886
45091W        W88144  15.617  22.744  20.830  0.1625 -0.1347 -0.4699
45092W        W88145  31.887  19.144  20.375 -0.3273  0.1085 -0.3517
45093W        W88146  26.357   3.256  25.560 -0.5017 -0.2955 -0.0550
45094W        W88147  29.087   0.032  24.104  0.0316 -0.2066  0.2379
45095W        W88148  32.344  29.298  16.919 -0.0903  0.0030  0.1405
45096W        W88149  32.824  22.937  22.834  0.0618 -0.0191  0.2328
45097W        W88150  18.280  27.118  19.485 -0.0378  0.1357  0.1783
45098W        W88151  16.877  11.469  19.302 -0.4379  0.3362 -0.0885
45099W        W88152   2.712  11.508  25.034  0.3503  0.0522 -0.0132
45100W        W88153  17.081  24.341   0.899 -0.0525  0.0870  0.2866
45101W        W88154  25.846   5.242  16.156 -0.0761 -0.0481  0.0340
45102W        W88155  33.073  19.594  19.939 -0.0654  0.1730 -0.0244
45103W        W88156  30.941  23.067  26.152 -0.1083  0.0398  0.1592
45104W        W88157  21.944  22.828  21.536 -0.2171 -0.2091 -0.3740
45105W        W88158   5.437  10.126   4.590  0.3295  0.0630 -0.0376
45106W        W88159  31.547  16.233   3.188 -0.0632 -0.1961 -0.0036
45107W        W88160   1.493  30.896  26.758 -0.1242  0.0844 -0.1842
45108W        W88161  13.144   5.263  21.789 -0.0818 -0.4739  0.0313
45109W        W88162  17.748  27.773  28.840 -0.1144 -0.0668  0.4116
45110W        W88163   2.560  11.952  19.788  0.3422 -0.0661  0.1032
45111W        W88164  18.783  28.632   6.206 -0.0442  0.3021  0.0128
45112W        W88165  10.391   7.119   5.036  0.0703  0.2840 -0.4483
45113W        W88166   3.900  19.231  21.933 -0.1413  0.0388 -0.1305
45114W        W88167   4.122  23.387  24.519  0.1127  0.0649  0.3117
45115W        W88168  24.066  14.305  21.919  0.2047  0.1110  0.1768
45116W        W88169  25.550   1.306  22.856 -0.1577  0.2565 -0.1729
45117W        W88170  32.987  18.405  23.902 -0.0041  0.0544  0.0825
45118W        W88171  34.226  18.815   0.637  0.3159 -0.0768 -0.0950
45119W        W88172  15.084  28.911  17.669 -0.0151  0.0352  0.1568
45120W        W88173  10.944   4.041  21.599  0.1264  0.1954  0.1904
45121W        W88174   9.643  17.810  29.109 -0.0485 -0.0181 -0.0447
45122W        W88175   9.117   4.263  21.784  0.0722 -0.1701 -0.0086
45123W        W88176  12.613  13.699  23.162  0.2102  0.1407 -0.0356
45124W        W88177   7.233  22.823  16.800 -0.1455 -0.1095 -0.1152
45125W        W88178   8.669  20.940  19.476  0.2248  0.0333 -0.0651
45126W        W88179   8.266  14.576   9.352 -0.4462  0.1860  0.0427
45127W        W88180  13.810  15.867  10.032  0.1468  0.1241 -0.0855
45128W        W88181  11.832  17.889  14.715  0.2578  0.1709 -0.1043
45129W        W88182   6.429  30.216  20.373  0.0393 -0.0915 -0.3362
45130W        W88183  22.695  11.596  18.650 -0.6305 -0.0898  0.0329
45131W        W88184  14.478  27.738  27.166  0.1783 -0.0025  0.2394
45132W        W88185   8.777  26.691  28.464  0.2266 -0.2365  0.1927
45133W        W88186   2.136   5.588   0.668 -0.1373  0.0977  0.0362
45134W        W88187  14.308  33.256   5.375  0.3987 -0.0765  0.0755
45135W        W88188   8.644  22.257  27.634 -0.2978  0.2301  0.0699
45136W        W88189   7.853  12.012  21.009 -0.0916 -0.2607 -0.1157
45137W        W88190  26.385  18.100  17.030 -0.2150 -0.2016  0.1102
45138W        W88191  14.239  24.689  19.170 -0.0741  0.1719  0.1157
45139W        W88192  26.303  28.321  22.482 -0.2613 -0.1903 -0.0314
45140W        W88193   3.674  27.778   0.271 -0.0316  0.0790 -0.2999
45141W        W88194   6.345  19.984  23.292 -0.3205 -0.3442  0.1400
45142W        W88195  13.989   9.905  14.950 -0.0490  0.2327 -0.0259
45143W        W88196  20.039  20.017  16.039  0.0094 -0.1639 -0.1548
45144W        W88197   3.340  21.054  16.746 -0.0820 -0.1266 -0.0109
45145W        W88198   9.716  21.823   5.030  0.0961  0.0514 -0.0394
45146W        W88199   8.425  31.235   1.654  0.1394  0.0220  0.0464
45147W        W88200  11.339  23.951   2.672  0.0366 -0.1273  0.1579
45148W        W88201   6.422  22.713  27.323  0.3322  0.2905  0.0212
45149W        W88202   1.754  27.801   1.624  0.1313  0.3188  0.0858
45150W        W88203  24.358  20.304   6.434  0.3264 -0.0964  0.0018
45151W        W88204  31.563  17.473  18.880 -0.0066  0.2612  0.1111
45152W        W88205  28.133  29.588  21.956 -0.0293  0.1329 -0.0337
45153W        W88206   1.329  22.131   4.735  0.1476 -0.2403  0.0364
45154W        W88207   6.816  28.051  21.056  0.1373 -0.1137  0.0124
45155W        W88208  23.607  27.475  26.919 -0.1685  0.4379 -0.0692
45156W        W88209   2.790  11.153  15.437 -0.0821  0.0420  0.0044
45157W        W88210  14.162  12.382  25.321 -0.1491 -0.2170 -0.0255
45158W        W88211  12.096  14.320  18.191  0.0970  0.0897  0.1713
45159W        W88212  15.228   8.128  23.640  0.1549  0.0921  0.3296
45160W        W88213  19.016  13.828  25.747 -0.0976 -0.1127  0.3985
45161W        W88214   1.126  21.192  14.112 -0.2621 -0.1767  0.0301
45162W        W88215   4.379  26.126  15.245 -0.1396  0.2504  0.1444
45163W        W88216  13.128  25.075  26.038 -0.2455  0.0781 -0.0185
45164W        W88217  17.178   0.136   0.268 -0.0071 -0.0400 -0.0833
45165W        W88218   5.365   6.878  27.530 -0.0836  0.1514 -0.1150
45166W        W88219  30.777  21.432   6.233  0.3730 -0.0309  0.1707
45167W        W88220   6.041  32.837  22.219 -0.3913  0.0620  0.0043
45168W        W88221  26.097  22.557  14.314 -0.0697  0.1256  0.0104
45169W        W88222  21.809  20.995  20.882 -0.1226  0.0051 -0.0610
45170W        W88223   9.118  12.013  25.111 -0.0101  0.0525  0.1991
45171W        W88224   6.763  24.075  17.127  0.1171 -0.0348  0.3949
45172W        W88225  31.921  31.127  19.032  0.3366 -0.0569  0.3620
45173W        W88226  13.422  33.107  17.246  0.0544 -0.1383  0.2484
45174W        W88227  17.078  32.522  26.834 -0.0699 -0.1895  0.0711
45175W        W88228   1.885  24.323   7.971 -0.0062  0.4419 -0.4117
45176W        W88229  29.853  22.454  23.328  0.1390 -0.3108 -0.0128
45177W        W88230  33.502   3.191  15.065 -0.2966  0.0217  0.1381
45178W        W88231  16.137  12.964   5.461 -0.1114  0.1992 -0.2137
45179W        W88232  22.715   0.812   3.908 -0.0022 -0.1683  0.0899
45180W        W88233  16.240   6.982  23.047 -0.2675  0.1718  0.1789
45181W        W88234   6.598   7.324  23.900 -0.0672  0.0481  0.1289
45182W        W88235   7.835  10.927  26.624 -0.0320 -0.1057 -0.0310
45183W        W88236  17.175   0.259  19.873  0.1071  0.0399  0.1753
45184W        W88237  30.505   1.257  22.082 -0.0102 -0.1021  0.0934
45185W        W88238   9.504  20.103  26.519  0.2734 -0.4032 -0.0713
45186W        W88239   3.982  13.064   4.322  0.0821  0.0713  0.2994
45187W        W88240  28.930  28.006  16.257 -0.4236 -0.0490  0.1858
45188W        W88241   4.360   0.942  15.203  0.2543  0.1525 -0.2533
45189W        W88242   3.459  13.188  20.439 -0.1618 -0.0714 -0.2787
45190W        W88243  15.597  12.725  15.237  0.0717  0.1249  0.3516
45191W        W88244  30.513  12.545   0.619 -0.2203 -0.0852  0.1968
45192W        W88245  31.445  25.852  19.253  0.0215 -0.0079  0.1972
45193W        W88246   6.909  18.661  24.649 -0.1539 -0.3570 -0.1749
45194W        W88247  11.940   4.863  23.751 -0.0577  0.0785 -0.0495
45195W        W88248  31.378  13.836   0.416  0.0218  0.2177  0.2649
45196W        W88249  27.561  21.551   1.309  0.1473  0.1483  0.0423
45197W        W88250  27.753  17.687   6.614 -0.1583  0.0127  0.2642
45198W        W88251   6.311  24.263  13.217  0.2843  0.0768  0.0246
45199W        W88252   9.346  26.294   5.470  0.1317 -0.0452  0.0244
45200W        W88253   1.774  16.842  26.679 -0.2150  0.1600  0.0777
45201W        W88254  14.378  34.431   1.340 -0.1559  0.2079  0.0358
45202W        W88255  31.205  13.564  25.326  0.0010 -0.2919  0.0004
45203W        W88256   6.281  13.363  16.512  0.0588  0.0490 -0.1777
45204W        W88257  28.384  26.930  25.283  0.3342 -0.1652  0.3372
45205W        W88258   3.865  13.389   2.862 -0.0063 -0.0649  0.0227
45206W        W88259  25.044   9.191  21.996 -0.0050 -0.1721 -0.1949
45207W        W88260  18.951   2.556  16.069  0.1585  0.1526 -0.1562
45208W        W88261   5.287  34.140  13.122  0.0118 -0.1249 -0.0684
45209W        W88262  33.532  12.430  20.409 -0.3432  0.0749  0.2073
45210W        W88263   5.396  19.920  21.447  0.1620  0.1853  0.1744
45211W        W88264   9.797  18.340  23.440 -0.1457  0.0675  0.0893
45212W        W88265   6.448  13.484  23.441  0.0442  0.0882 -0.0904
45213W        W88266   8.151  14.677  15.310  0.0466 -0.0853  0.0966
45214W        W88267   4.040  15.544  27.917  0.1541  0.2763  0.2526
45215W        W88268   2.662   8.223  16.338 -0.1476  0.1751 -0.0955
45216W        W88269  10.659  30.316   7.635 -0.1381  0.0385  0.0027
45217W        W88270   0.370  11.851  26.115 -0.0309 -0.1438  0.4470
45218W        W88271  30.798  19.112  27.757  0.0124 -0.1949 -0.0380
45219W        W88272  19.316   1.836  20.931 -0.3207 -0.1161 -0.2840
45220W        W88273   8.888   7.912  19.381  0.0910  0.0748 -0.0226
45221W        W88274   4.305   9.945  22.604 -0.0857  0.1922  0.0948
45222W        W88275   6.415  33.266   1.518 -0.1229 -0.0745  0.0757
45223W        W88276  11.736   8.280   8.617  0.4226 -0.1505  0.1628
45224W        W88277  10.857  34.086  22.516 -0.0057  0.2132 -0.0631
45225W        W88278   4.140  15.104  27.039 -0.3661  0.3234  0.0919
45226W        W88279   8.991   8.007   3.296 -0.5235 -0.0275  0.2338
45227W        W88280   5.633  24.614  16.848  0.0025  0.2689  0.0154
45228W        W88281  16.479  27.570  24.790  0.0379 -0.1719 -0.2941
45229W        W88282   4.709  25.070  21.844  0.0515  0.0869  0.0540
45230W        W88283   8.482  18.863  14.267 -0.0321 -0.2025 -0.0696
45231W        W88284   6.689  21.380  24.567  0.3345  0.2049  0.3147
45232W        W88285  34.071  10.161   0.555  0.1888  0.1307  0.0266
45233W        W88286   3.824  29.095  15.301 -0.1890  0.1827 -0.0397
45234W        W88287  12.201  14.469  18.958 -0.0549  0.2214 -0.2269
45235W        W88288   1.713  11.012  17.387 -0.2002  0.0940 -0.2969
45236W        W88289   6.353  19.100   7.827  0.1314 -0.0801  0.0764
45237W        W88290  18.451  29.893   0.230  0.1478  0.2369  0.0630
45238W        W88291  25.089  33.826  25.988 -0.1925 -0.1825  0.2112
45239W        W88292  12.193  19.590  25.956 -0.0566 -0.1374  0.4230
45240W        W88293  32.966   5.820  26.322  0.3781 -0.3711 -0.1691
45241W        W88294  29.494  19.101  20.701  0.1019 -0.1257  0.0580
45242W        W88295  13.882  16.378   0.879  0.0480 -0.2579 -0.0057
45243W        W88296  18.616  26.887  14.454 -0.0008 -0.1973  0.1252
45244W        W88297   1.975  33.592   2.831  0.2332  0.0498  0.0686
45245W        W88298  14.588  19.570   6.825  0.1613  0.2807  0.1515
45246W        W88299   1.874   9.183  20.942 -0.2320  0.2528  0.1579
45247W        W88300  22.114   7.772  13.985  0.2190  0.0293  0.0627
45248W        W88301  10.412  21.698  15.774 -0.0416  0.1577  0.0498
45249W        W88302  13.396  33.782  28.145  0.3084 -0.1172  0.0604
45250W        W88303  33.077  21.882  25.800  0.2128 -0.0796  0.1683
45251W        W88304  24.060  11.814  17.506  0.2310 -0.0309 -0.0607
45252W        W88305  18.268  28.370  16.545  0.0671 -0.0581 -0.1696
45253W        W88306  14.540  20.419  15.726 -0.1173  0.0732 -0.1134
45254W        W88307  15.015   7.400  20.135 -0.0808 -0.2112 -0.1118
45255W        W88308   1.726  24.899   8.903 -0.0308 -0.0592  0.0319
45256W        W88309  10.925  31.078  14.349  0.5367  0.1126  0.1862
45257W        W88310  13.819  17.202  27.591 -0.1125  0.1558  0.0528
45258W        W88311  11.710  21.657  14.886 -0.0934 -0.4288 -0.0927
45259W        W88312  21.785  19.881  26.593  0.0676  0.1912  0.1044
45260W        W88313   5.993  29.221   6.063 -0.0999  0.0329 -0.0043
45261W        W88314   4.278  25.897   8.360  0.0256 -0.1609  0.0400
45262W        W88315   1.519  20.965   5.926  0.2845  0.1502  0.0905
45263W        W88316  13.900  10.038   2.388  0.3116  0.0167  0.0239
45264W        W88317  29.703  18.887  16.211  0.0677  0.2298  0.1623
45265W        W88318  16.367  10.223  24.760 -0.0573  0.0981 -0.2131
45266W        W88319  33.452  11.412  21.400 -0.0685  0.1851 -0.2169
45267W        W88320  12.199  34.610  17.222  0.4158 -0.4415 -0.0641
45268W        W88321   9.524  26.648  15.352 -0.3188 -0.1146 -0.0470
45269W        W88322  28.900  13.990  22.396  0.1186 -0.2183  0.0612
45270W        W88323   9.392  13.734  25.876  0.1349 -0.1520  0.0805
45271W        W88324   0.203  28.905   0.371 -0.0561  0.0675  0.2784
45272W        W88325   4.150  21.937  18.755  0.2037 -0.1715  0.0280
45273W        W88326  12.013  20.805  27.550 -0.0971  0.0624 -0.3488
45274W        W88327   0.097  23.342  15.759  0.0342  0.0212  0.0705
45275W        W88328   2.291   1.246   1.779  0.1915  0.2574 -0.0229
45276W        W88329  34.153  17.195  26.284  0.0583 -0.1427 -0.0930
45277W        W88330  15.061   9.464  29.010 -0.1274  0.0748 -0.2065
45278W        W88331  24.712  27.822  15.642 -0.0137 -0.2754  0.1608
45279W        W88332  30.655  13.847  20.983 -0.1168 -0.0347 -0.2208
45280W        W88333  15.507  28.074  24.124  0.0526  0.1902 -0.1331
45281W        W88334   9.797  26.359  22.575  0.0226  0.3312 -0.3911
45282W        W88335  14.644  33.701  14.777 -0.1241  0.1762  0.0325
45283W        W88336  13.318  15.095  15.578 -0.2812  0.3411 -0.0042
45284W        W88337   9.295  32.318   9.686 -0.0692  0.0422  0.0613
45285W        W88338  14.001  32.066  28.051  0.0732  0.2135 -0.2001
45286W        W88339   6.640  26.002  16.453 -0.1070 -0.1462  0.2612
45287W        W88340  11.256  25.143  24.852 -0.1306 -0.0534 -0.3586
45288W        W88341  31.197  12.708  27.748  0.2606  0.1077  0.2344
45289W        W88342   5.860  15.391  22.189 -0.3311 -0.0328  0.2468
45290W        W88343  28.668  24.745  20.621  0.2770  0.1234 -0.1297
45291W        W88344  12.749  18.506  16.862  0.0467 -0.0672  0.2446
45292W        W88345  13.953  32.629   8.588 -0.0535  0.3145  0.1510
45293W        W88346  10.084  24.162  12.968  0.0105 -0.3608 -0.0112
45294W        W88347   4.159   3.945   2.966  0.3831  0.2334  0.0802
45295W        W88348  28.768  16.893   2.792 -0.0601 -0.0451  0.1706
45296W        W88349   6.451  24.613  14.929  0.2230  0.0049 -0.0472
45297W        W88350   4.676  19.972  23.381 -0.1607  0.2040  0.0709
45298W        W88351   0.318  11.069   0.320  0.4732 -0.1609 -0.0417
45299W        W88352   8.593  24.797  21.430 -0.1053  0.3880 -0.0239
45300W        W88353  10.962   0.265  14.961 -0.2768 -0.1237 -0.3063
45301W        W88354  34.291  12.696  23.348  0.0570  0.2189  0.0538
45302W        W88355   3.046  17.000  22.654  0.0892  0.1862  0.3071
45303W        W88356   4.105  25.846   0.161 -0.0866 -0.0544 -0.1402
45304W        W88357  21.743  15.361  13.875  0.0192  0.1314 -0.1932
45305W        W88358   6.874  10.674  14.449 -0.0787  0.2169 -0.0732
45306W        W88359  13.602  23.628   3.631  0.1973  0.0636  0.0607
45307W        W88360  10.392  16.995  20.106 -0.4027  0.0258  0.0827
45308W        W88361  19.351  28.419  25.073  0.0599 -0.1700  0.0086
45309W        W88362  10.756  25.185  22.897  0.1494  0.1137  0.0127
45310W        W88363   5.941  24.791   4.468 -0.2285  0.1264 -0.2035
45311W        W88364   6.269  29.378   0.371 -0.1312 -0.4223  0.0426
45312W        W88365  12.273  16.738  19.658 -0.0902  0.2576 -0.1653
45313W        W88366   7.696   9.143  19.147 -0.3373  0.1968 -0.3938
45314W        W88367  23.776   7.588  22.710  0.1467  0.2914  0.1402
45315W        W88368  30.219   9.119  23.063 -0.2402 -0.0361 -0.0010
45316W        W88369   4.085  20.546  17.592 -0.4620 -0.1025 -0.2675
45317W        W88370  19.176  11.203  16.467 -0.1960  0.0549 -0.1117
45318W        W88371  23.509   6.983  26.952  0.3830  0.1016  0.1516
45319W        W88372   5.236  12.145  27.117 -0.1720  0.0312 -0.1319
45320W        W88373   4.708  27.327   0.443 -0.2167  0.0807 -0.1360
45321W        W88374  15.958   2.831  16.359 -0.2403 -0.1814 -0.1246
45322W        W88375  10.759  34.311   1.568  0.0909 -0.1875 -0.0462
45323W        W88376   3.710  19.364  23.868  0.1027 -0.2713 -0.0470
45324W        W88377   5.783  22.300  19.598 -0.3917 -0.1273  0.3033
45325W        W88378  14.685  20.920  23.753 -0.1616  0.0332 -0.4309
45326W        W88379  34.066   4.609  16.522 -0.1034 -0.2078  0.0305
45327W        W88380  34.318  13.827   6.174 -0.3527  0.3031  0.2915
45328W        W88381  17.339  10.331  25.060 -0.2698  0.1902 -0.3089
45329W        W88382  13.724  25.496  20.914  0.1314 -0.0896 -0.4217
45330W        W88383  17.226   9.408  15.393  0.0334  0.0133 -0.1702
45331W        W88384   9.740   9.812   1.037 -0.2298 -0.0667  0.1043
45332W        W88385  33.356  18.223  19.865  0.1687  0.3560  0.0780
45333W        W88386  21.528   8.981  29.040 -0.3159 -0.3092  0.0450
45334W        W88387  24.545  27.750  18.423  0.0126  0.3927  0.0475
45335W        W88388  34.354  10.096  27.675  0.0793  0.1848 -0.0284
45336W        W88389  11.079  28.675  24.825 -0.1944  0.2970  0.0838
45337W        W88390  31.633  22.471   0.334 -0.0820  0.1623 -0.4679
45338W        W88391  14.752  27.025   5.758 -0.1413 -0.2394  0.2554
45339W        W88392   4.650  13.228  26.530 -0.1816 -0.0373 -0.0619
45340W        W88393   4.604   4.772  15.989 -0.0522  0.0935 -0.1811
45341W        W88394  23.221   3.002   8.686 -0.2017 -0.1247  0.0902
45342W        W88395  30.231  31.649   0.629  0.1807  0.0598 -0.1465
45343W        W88396  10.862  18.173  27.936  0.0806 -0.2270 -0.2301
45344W        W88397   6.195   7.528  26.956 -0.0405  0.3250 -0.1540
45345W        W88398   3.345   5.792  23.442 -0.0502  0.2886 -0.1671
45346W        W88399   4.741  18.386  26.965  0.1589 -0.1086  0.1899
45347W        W88400  12.724  17.534  24.808 -0.0177 -0.3420 -0.1475
45348W        W88401  33.476   8.066   4.658 -0.0354  0.1370 -0.1233
45349W        W88402  12.293  33.447  27.246 -0.2933 -0.0276  0.1937
45350W        W88403   2.168  15.557  15.799  0.0652  0.1529 -0.1388
45351W        W88404   2.601   5.089   7.110 -0.1058 -0.1747  0.0836
45352W        W88405  30.513  22.014   7.526  0.1914  0.0895 -0.1624
45353W        W88406  18.474  12.849  26.806  0.1373 -0.2790  0.0865
45354W        W88407   8.984  19.092   5.679  0.5230  0.1107 -0.0625
45355W        W88408  25.882  17.417   9.328 -0.0823 -0.1447  0.3172
45356W        W88409  21.028  19.803  28.755 -0.2973  0.0168  0.2197
45357W        W88410   5.383   5.474   1.708 -0.1993 -0.2226  0.0356
45358W        W88411   7.578  22.973  14.006 -0.1055 -0.1879 -0.3519
45359W        W88412  19.392  21.720  28.265 -0.0023  0.4608 -0.0072
45360W        W88413  29.518  28.223   7.894  0.2739  0.0392  0.5826
45361W        W88414   0.052   8.517  17.232  0.1026 -0.2088 -0.0255
45362W        W88415  26.905  33.779  22.377  0.1228 -0.1555  0.0451
45363W        W88416  34.536  31.687  17.763  0.1315  0.2449  0.0908
45364W        W88417  22.630  10.417  18.943 -0.1665 -0.2243  0.3020
45365W        W88418  21.548  32.331  25.017  0.0144  0.1220  0.0189
45366W        W88419  12.861  15.644  24.393  0.1482 -0.4710 -0.1170
45367W        W88420  11.793   7.689  24.247 -0.0968  0.5518  0.1951
45368W        W88421   5.978  16.163  18.641  0.1159  0.2686  0.1281
45369W        W88422   3.459  28.174  27.087 -0.0904  0.2128  0.1961
45370W        W88423   6.119  15.381  24.239  0.2853  0.3701 -0.4047
45371W        W88424  23.050   5.044  18.152  0.0782  0.0165  0.2567
45372W        W88425  32.984  21.164   1.702  0.0640 -0.0618 -0.1138
45373W        W88426  14.637  19.182   8.815  0.0962 -0.0248 -0.1967
45374W        W88427   9.139   5.452  24.882  0.1288 -0.1386  0.1127
45375W        W88428  13.512  20.294  27.831  0.0527  0.2627  0.2743
45376W        W88429  13.514   8.515   4.208  0.0543  0.1598  0.3199
45377W        W88430   8.795  17.354  25.303 -0.0576 -0.1109  0.2484
45378W        W88431   2.351  18.935  21.011  0.3696 -0.1660 -0.2515
45379W        W88432   0.156  27.102  14.925 -0.2486  0.1542  0.0424
45380W        W88433  23.330  12.902   3.898  0.0641  0.1516 -0.2738
45381W        W88434  17.482  12.559   3.095  0.1321 -0.0373  0.0384
45382W        W88435   0.563  10.969  21.913 -0.2309 -0.0389 -0.1919
45383W        W88436   7.512  24.746  25.129 -0.0157  0.0117 -0.0821
45384W        W88437  28.952  10.905   3.261  0.2305 -0.1429  0.0679
45385W        W88438  30.306   3.067   0.638  0.2603  0.0693  0.0037
45386W        W88439   1.000  11.848   3.885 -0.0273  0.0342 -0.1585
45387W        W88440  12.774  18.988  19.290 -0.0150  0.2728 -0.2706
45388W        W88441  16.547   9.125  19.012  0.0115  0.2221 -0.1817
45389W        W88442   3.431  12.405  25.314  0.2224 -0.0970 -0.0355
45390W        W88443  10.879  22.451  19.312  0.2900 -0.0114  0.3053
45391W        W88444   4.636   7.917   4.796 -0.2084 -0.2079 -0.1408
45392W        W88445  21.612   6.566  23.311  0.0152 -0.3369 -0.1795
45393W        W88446  13.468   4.449  16.941 -0.2458 -0.2196 -0.0794
45394W        W88447  16.855  33.955  26.433 -0.0901  0.0601  0.3120
45395W        W88448  11.972  11.814  14.681  0.3107 -0.0165 -0.0504
45396W        W88449  15.225  11.512  25.551 -0.1907 -0.1418 -0.1562
45397W        W88450   5.430  18.891  14.782 -0.2054 -0.0099 -0.2708
45398W        W88451   1.064  28.319  21.419  0.4156 -0.1635 -0.1355
45399W        W88452   5.117  24.505  26.949  0.1091  0.2258  0.1212
45400W        W88453   5.273   5.745   1.225  0.3024 -0.2511 -0.0726
45401W        W88454   1.719  28.467  26.083  0.1081 -0.1114  0.1480
45402W        W88455  32.290  24.758  25.684  0.0316 -0.1437 -0.3732
45403W        W88456   4.863  20.602  27.594  0.0497  0.0066  0.3099
45404W        W88457   4.603  15.109  28.726  0.0697  0.0208 -0.3529
45405W        W88458   6.877  12.336  28.228 -0.3106 -0.1918 -0.0535
45406W        W88459  15.806  25.233  21.892  0.6312  0.1191  0.2579
45407W        W88460  15.472  23.966  27.057 -0.1829  0.1324  0.1088
45408W        W88461  10.835  27.386   5.946  0.0983  0.0232  0.0384
45409W        W88462   7.339   6.654  18.036  0.0991  0.2096 -0.0086
45410W        W88463   8.577  15.904   0.136  0.1818  0.1798 -0.0421
45411W        W88464  31.176  29.003  22.985  0.3349  0.3042  0.1181
45412W        W88465  32.088  28.315  15.383 -0.0388  0.2650 -0.0758
45413W        W88466   1.304  24.180  24.469  0.0376  0.1382 -0.0576
45414W        W88467   7.578  15.682   0.869  0.2110 -0.0398  0.1240
45415W        W88468  31.541   7.562   6.660 -0.0416 -0.0682  0.0620
45416W        W88469   0.098  25.850  28.339 -0.1405 -0.4694  0.1547
45417W        W88470  21.197  25.180   5.993  0.0941 -0.0487 -0.2368
45418W        W88471   8.676  20.977  24.027 -0.0705 -0.2389  0.1675
45419W        W88472   3.196  26.920  16.684  0.0832 -0.1726  0.0023
45420W        W88473   5.185  12.956  24.888  0.3088 -0.0268 -0.1127
45421W        W88474  27.020   1.494   5.608  0.0183 -0.1249 -0.3854
45422W        W88475   3.502  25.612   8.977  0.2464 -0.0355  0.1446
45423W        W88476   3.115  24.931  22.515 -0.0092 -0.1563  0.0061
45424W        W88477  11.369  21.947   0.434 -0.1065 -0.1008  0.0387
45425W        W88478   8.781  19.872   2.231 -0.0625 -0.0597 -0.1757
45426W        W88479  16.326  21.947  28.747 -0.0554  0.1231  0.2480
45427W        W88480   1.481  20.247  19.087 -0.0997 -0.2612 -0.3423
45428W        W88481  24.822  26.767  24.672 -0.2223  0.0706  0.0420
45429W        W88482   7.199  12.993  25.068 -0.2779 -0.2833 -0.1054
45430W        W88483  12.766   7.831  20.188  0.0060 -0.0189 -0.1988
45431W        W88484   4.660  19.386   6.702 -0.0104  0.1545 -0.0178
45432W        W88485   8.605  10.435  22.326  0.2488 -0.0185 -0.2146
45433W        W88486   0.096  21.795   9.307  0.3369 -0.0208 -0.0368
45434W        W88487   3.945  22.134  26.462  0.0601 -0.2903  0.1247
45435W        W88488   7.909  18.772  13.654  0.0164  0.1575  0.1592
45436W        W88489  23.032   5.122   3.390  0.1168  0.0682 -0.1526
45437W        W88490  33.856  26.718   1.934  0.1092 -0.2046  0.1171
45438W        W88491  15.349  20.785  28.281 -0.0111  0.2394  0.0802
45439W        W88492  12.453  17.199   7.333 -0.1877 -0.0822  0.1185
45440W        W88493   4.396  25.588  20.451  0.0767  0.1632 -0.1547
45441W        W88494  29.458   3.658   0.800  0.2549 -0.2039 -0.0259
45442W        W88495  19.096  18.608   3.876 -0.0857  0.3233 -0.2346
45443W        W88496   3.526  16.808   8.695  0.1109 -0.1020 -0.0063
45444W        W88497  11.721  11.785  17.017 -0.0036  0.1341  0.4706
45445W        W88498  17.825   3.498   3.294  0.2694 -0.2335  0.2833
45446W        W88499   1.714  19.675  20.892  0.1028  0.0697 -0.5130
45447W        W88500  26.658  20.983  15.022 -0.0488  0.4113  0.0501
45448W        W88501  31.055   9.804   5.136 -0.1036 -0.2254  0.1447
45449W        W88502  17.174  16.863  23.696  0.2370  0.4301 -0.0853
45450W        W88503  26.779   9.627   1.113 -0.1130  0.3588 -0.1423
45451W        W88504   0.179  19.619   0.745 -0.0816 -0.2162  0.2637
45452W        W88505  13.468   4.063   1.205  0.1178  0.5061 -0.0941
45453W        W88506  23.301  24.134   9.114  0.1740  0.0850 -0.3004
45454W        W88507   1.675   1.451   6.231  0.3133  0.1956 -0.0798
45455W        W88508   2.030  23.657  16.358  0.2574 -0.3731 -0.3758
45456W        W88509  13.186  12.800  15.176  0.0169  0.1630 -0.1457
45457W        W88510   6.970  31.511   6.315  0.0194  0.0605  0.2380
45458W        W88511  34.286  30.060  27.511  0.1838  0.0548  0.0573
45459W        W88512  31.509  25.257  18.531 -0.0127 -0.3676  0.0132
45460W        W88513  14.011  34.131   6.405 -0.0569 -0.1455 -0.4217
45461W        W88514  29.252  18.883  28.724  0.0015  0.2152 -0.2972
45462W        W88515   7.153  18.922  23.827 -0.3816 -0.0721 -0.0610
45463W        W88516  18.818   9.992  24.583 -0.2431 -0.1364  0.1985
45464W        W88517  12.887  24.618  26.364 -0.0026  0.2207 -0.0965
45465W        W88518  33.555  33.220   3.178  0.3192  0.2882 -0.1989
45466W        W88519  23.098  15.624   0.223 -0.0472  0.0298 -0.2936
45467W        W88520  20.231   4.417   4.927 -0.1333  0.1740 -0.0051
45468W        W88521   5.503  26.115   5.680 -0.0307  0.1960  0.0076
45469W        W88522  32.732  16.778   8.809 -0.1784 -0.0487  0.3538
45470W        W88523  10.456  18.423  18.533 -0.0261  0.0076 -0.0653
45471W        W88524   2.852  11.098  23.678 -0.2135  0.0300 -0.2454
45472W        W88525  12.572  12.691  22.668 -0.4601  0.1353 -0.1162
45473W        W88526   5.015  23.818  25.068  0.0658  0.1165 -0.1048
45474W        W88527  21.524   3.262  19.644  0.1042 -0.1403 -0.0099
45475W        W88528  29.586  23.004  26.082 -0.0425  0.1863 -0.2169
45476W        W88529  10.164   9.989  25.323 -0.1902 -0.4335 -0.2199
45477W        W88530  25.629   1.215   7.768 -0.2189  0.2396  0.0353
45478W        W88531  11.713  16.977  15.023 -0.2631 -0.3507  0.0151
45479W        W88532  30.579  24.238   6.734 -0.1396  0.3525  0.0376
45480W        W88533   4.587   6.953  28.443  0.1064  0.1685  0.0066
45481W        W88534  29.390  16.352  26.614 -0.0880  0.0484 -0.2208
45482W        W88535  31.890  14.370  14.204  0.0282 -0.3543 -0.2315
45483W        W88536  10.240  29.753   4.686 -0.1140  0.3900 -0.0120
45484W        W88537  31.478  20.284  23.349 -0.0552 -0.1139 -0.0808
45485W        W88538   7.374  27.107   6.587 -0.0446  0.0769  0.3182
45486W        W88539  32.341  12.473   3.222 -0.3079 -0.2208  0.2082
45487W        W88540   4.291  25.461   6.976 -0.0344  0.1693  0.2027
45488W        W88541  11.566  14.941  28.449  0.0455 -0.0055 -0.0100
45489W        W88542   0.113  30.135   1.368  0.1808  0.0833  0.0542
45490W        W88543  21.195  19.739  21.320 -0.0240  0.0804  0.2172
45491W        W88544   4.968  10.581  23.543 -0.0166 -0.0263 -0.0858
45492W        W88545  33.414   8.178  27.743 -0.2157  0.1491  0.2668
45493W        W88546  33.405  22.714  22.335  0.1774 -0.2421  0.2971
45494W        W88547  18.788  18.976  26.691 -0.1928  0.2955 -0.0194
45495W        W88548   2.274   3.538   2.499  0.2989  0.2920  0.0831
45496W        W88549   8.062  13.596   0.353 -0.1920  0.0817  0.1320
45497W        W88550   7.517   7.120  16.731  0.1653  0.0925  0.5296
45498W        W88551   4.407   7.101  27.159  0.0487  0.2051 -0.0477
45499W        W88552   8.951  21.047   5.237  0.3686  0.1663  0.0338
45500W        W88553  21.440  21.608  22.290  0.1258  0.0985 -0.3282
45501W        W88554  12.969  25.654  17.002 -0.1032 -0.2128  0.4421
45502W        W88555  24.425   9.248  19.244  0.2486  0.0693 -0.1457
45503W        W88556  11.844   4.785  26.950 -0.2385 -0.1578 -0.1311
45504W        W88557  29.347  12.558  15.298  0.1778  0.0925  0.0790
45505W        W88558  34.256   2.495   7.706 -0.1912 -0.1592  0.2904
45506W        W88559  12.697  22.015  18.432 -0.4764 -0.0045 -0.0432
45507W        W88560   1.143  33.687  26.808 -0.2149 -0.0394  0.0250
45508W        W88561  32.484  10.568   2.376  0.4051 -0.3721 -0.4319
45509W        W88562  25.039  21.731  20.517  0.0024  0.1402  0.1385
45510W        W88563   2.112  28.892  13.280  0.0727  0.0828 -0.0703
45511W        W88564  32.649   9.713  19.728 -0.5121  0.1906  0.1700
45512W        W88565   1.016  13.204   3.049  0.0234 -0.0542  0.3192
45513W        W88566   6.409  11.991   9.938 -0.2022 -0.0883  0.1224
45514W        W88567  34.625  15.925   3.705 -0.2157 -0.0410 -0.1467
45515W        W88568  14.446  13.007   7.122 -0.1318 -0.2192 -0.0728
45516W        W88569   4.673  10.440  24.868 -0.0425 -0.0553 -0.0620
45517W        W88570  30.992  10.062  26.159 -0.2740 -0.0328 -0.0272
45518W        W88571  22.959   6.796   9.012  0.1723 -0.0863 -0.0126
45519W        W88572  24.311  20.282  17.473  0.2573  0.0688  0.1217
45520W        W88573  34.529  28.469   1.284 -0.1255  0.2382  0.0876
45521W        W88574   5.988   1.815  23.385  0.1979  0.1279  0.1191
45522W        W88575  14.595  30.608  20.519 -0.3122  0.0994 -0.2601
45523W        W88576   2.133  23.298   1.825  0.3453  0.1234  0.2271
45524W        W88577  24.164  12.999  14.499  0.1684 -0.1137 -0.0992
45525W        W88578  30.246  29.485   5.680  0.2595  0.0051 -0.0244
45526W        W88579  26.309  20.616  27.035  0.0445 -0.2145 -0.0613
45527W        W88580   5.387  29.343   0.636  0.0647  0.2343 -0.1255
45528W        W88581  30.241  24.205  21.488  0.1314  0.1996  0.0446
45529W        W88582  33.056  19.580  19.022  0.1404  0.3638 -0.2395
45530W        W88583  17.899  20.440  22.033  0.1233 -0.0372 -0.1390
45531W        W88584  11.506  27.145   4.814 -0.0796  0.2077  0.0036
45532W        W88585  18.039  24.993  26.385 -0.1384  0.4756 -0.1036
45533W        W88586  28.338  10.952  24.534 -0.1998 -0.2046  0.2970
45534W        W88587   2.966  32.385  27.463  0.1304  0.0785 -0.0298
45535W        W88588  25.903  10.330   0.963 -0.1443  0.3257 -0.1988
45536W        W88589  32.560   6.158   2.725 -0.0242 -0.0081  0.1641
45537W        W88590   0.099  13.127   9.263 -0.3658  0.1057  0.1158
45538W        W88591  32.075  23.735  24.261  0.0915 -0.2865  0.0164
45539W        W88592   7.757  22.055  22.187  0.0629  0.3067 -0.0277
45540W        W88593   3.372  15.626  20.678  0.2854 -0.1532 -0.0215
45541W        W88594  28.124  27.677   2.222 -0.1248  0.3501  0.1025
45542W        W88595  11.610  24.709  18.359  0.2509 -0.0885 -0.0338
45543W        W88596   3.831  29.283  23.410  0.4065 -0.4602 -0.4429
45544W        W88597   4.735  17.201   0.883  0.1868  0.0256 -0.0063
45545W        W88598  31.723  24.620  23.911  0.0804  0.0657  0.0601
45546W        W88599   4.936  29.612   5.190  0.2016  0.0409  0.2383
45547W        W88600  18.568  26.135  28.905  0.2582  0.1204 -0.1215
45548W        W88601  30.846  30.060  20.402  0.3696 -0.0084 -0.0923
45549W        W88602  31.375  12.552  21.669 -0.0197  0.2842  0.1633
45550W        W88603  30.863  22.902  23.410  0.0594  0.0032 -0.2138
45551W        W88604  16.198   3.802   8.028  0.0400  0.1274 -0.0328
45552W        W88605   8.324  14.762   6.101  0.2607 -0.0319  0.0584
45553W        W88606  30.242  20.689  22.267  0.0281 -0.0527  0.1662
45554W        W88607   9.866  15.634  21.515  0.0241 -0.2241 -0.1563
45555W        W88608  12.842  15.790  28.647  0.2823  0.1629 -0.0420
45556W        W88609   6.234   9.099  17.123  0.1496  0.1447  0.0487
45557W        W88610  33.045  30.922  20.549 -0.2239  0.1368  0.0960
45558W        W88611  26.975   0.510  19.416  0.1112 -0.1935 -0.1681
45559W        W88612  11.695  31.641  17.975  0.2192 -0.0244  0.1976
45560W        W88613  32.341  13.221   6.618  0.3019  0.2652  0.0779
45561W        W88614   2.624  15.981  25.463  0.2347  0.3220 -0.1059
45562W        W88615   6.952  20.015  24.236 -0.1416 -0.1275  0.2671
45563W        W88616   8.600  22.884   6.808 -0.1896 -0.0194  0.1004
45564W        W88617  33.127  18.094   6.652  0.0487 -0.1876  0.0773
45565W        W88618  19.979  26.030   9.065 -0.2398 -0.0293  0.1867
45566W        W88619  10.930  12.310  28.926 -0.0215 -0.0374  0.0860
45567W        W88620   1.935  18.090  21.194 -0.1592  0.1459  0.0280
45568W        W88621   4.326   9.135   9.006 -0.3237  0.1405 -0.1780
45569W        W88622   6.201  21.223  21.207 -0.2053 -0.0054 -0.2513
45570W        W88623  26.158  18.537   0.105 -0.0129  0.2302  0.3759
45571W        W88624   9.652  11.906   2.838 -0.1072  0.1311 -0.2541
45572W        W88625  24.471   1.629  18.137 -0.0492 -0.2191  0.2154
45573W        W88626  14.731  21.919  19.988 -0.1633 -0.0139  0.5417
45574W        W88627   7.064  12.914   6.911 -0.0578  0.0307  0.0527
45575W        W88628  23.976  12.824   1.109  0.1950  0.1007 -0.2009
45576W        W88629  29.829  27.454  28.612 -0.2952 -0.1027 -0.1408
45577W        W88630   7.766   8.014   4.470  0.1148 -0.1811  0.0463
45578W        W88631  15.642  12.893  20.822  0.1752 -0.0971 -0.0481
45579W        W88632  20.349  11.587   5.444  0.1836  0.1504  0.0185
45580W        W88633  14.084  25.160  16.098 -0.2486 -0.0539 -0.1385
45581W        W88634   2.584   3.065   2.187  0.0406  0.0148 -0.1698
45582W        W88635   8.181  11.603  28.087 -0.0119 -0.0084  0.1740
45583W        W88636  20.751  22.839   6.160  0.4818  0.3371 -0.0302
45584W        W88637  13.669  22.090  18.081 -0.0425  0.0625 -0.0683
45585W        W88638  29.383  28.903  22.355 -0.0125  0.0942 -0.1041
45586W        W88639   9.660  30.767   8.731 -0.2551  0.0989  0.0891
45587W        W88640   4.593  14.519   1.951 -0.0108 -0.1442 -0.5549
45588W        W88641  16.739  22.811   8.013 -0.0923 -0.0956  0.2352
45589W        W88642  28.616  19.280  28.708 -0.1388  0.0435 -0.0423
45590W        W88643  13.327  12.633  28.863  0.0401 -0.4457  0.1140
45591W        W88644   2.604   0.807   1.122  0.0002 -0.2391 -0.1239
45592W        W88645  21.963  11.056   0.435 -0.0955 -0.1004 -0.4355
45593W        W88646  10.742  12.766  17.350 -0.3584  0.1337 -0.0528
45594W        W88647  33.525  27.904  14.545  0.0523  0.0872  0.0859
45595W        W88648   4.967  21.773  13.994 -0.2503  0.1560 -0.0262
45596W        W88649   0.443  26.529   1.809 -0.2186 -0.0717 -0.0904
45597W        W88650   0.111  17.351  18.157 -0.2907  0.0329  0.1203
45598W        W88651  10.564  26.371   6.203  0.0331  0.0513  0.2561
45599W        W88652  32.730   3.000  23.599  0.0488 -0.0872  0.1171
45600W        W88653  17.580  31.959   8.900 -0.1135 -0.6207  0.0355
45601W        W88654  12.094   6.197  18.717 -0.0621 -0.1294 -0.0793
45602W        W88655  29.454  13.048  19.848 -0.2223 -0.2985  0.0206
45603W        W88656  33.569  15.735  18.144 -0.1790 -0.2164  0.2067
45604W        W88657  34.337  12.570  24.343  0.1425 -0.0205 -0.0520
45605W        W88658  28.555   5.136  28.444 -0.0896 -0.1020 -0.0493
45606W        W88659   7.040  32.368  20.247 -0.1161 -0.1577  0.0186
45607W        W88660  12.653  24.066  20.962 -0.1789 -0.0146  0.0445
45608W        W88661   0.616   6.506  23.922  0.0566 -0.0839  0.0367
45609W        W88662  11.819  27.852  25.664 -0.2075 -0.3412  0.2764
45610W        W88663  18.739  11.223   4.486  0.0395  0.1035 -0.2178
45611W        W88664   6.533   5.579   7.035  0.1754 -0.1421 -0.0020
45612W        W88665  20.028   9.142   6.944  0.1053  0.0155  0.0111
45613W        W88666   9.294  14.020   3.798 -0.1079  0.0073  0.0839
45614W        W88667  16.420  13.874  16.225 -0.0820 -0.3651  0.4067
45615W        W88668   1.528  27.621  21.176  0.1447 -0.3953 -0.2061
45616W        W88669  20.119  10.246  22.952 -0.0239 -0.0387 -0.1235
45617W        W88670   7.661  19.813   1.218 -0.2889  0.1057 -0.3896
45618W        W88671   5.811  16.176  15.495  0.1071 -0.4248  0.2231
45619W        W88672  20.303  18.569   7.599  0.1118 -0.1534  0.1340
45620W        W88673  34.134  24.509  28.653  0.0149 -0.2961  0.0422
45621W        W88674   9.444   7.087  25.147  0.1553 -0.1341 -0.3431
45622W        W88675   4.642  25.583  21.490  0.0420 -0.0191 -0.1144
45623W        W88676  13.589  24.050  21.091 -0.2397 -0.1428  0.1336
45624W        W88677  17.178  19.623  26.183  0.1239 -0.1936 -0.0886
45625W        W88678  16.237  11.033   8.234  0.0579  0.0864 -0.1238
45626W        W88679  14.371  27.167  27.222 -0.3159  0.2903  0.1110
45627W        W88680  16.968  25.284  16.467 -0.0169 -0.1548  0.1391
45628W        W88681  27.290  12.327  24.912 -0.2738  0.0630  0.1705
45629W        W88682   7.351  24.748  27.386 -0.1471 -0.1231  0.0074
45630W        W88683  13.184  17.865  29.008  0.0962  0.2580  0.0474
45631W        W88684   4.201  19.514  24.042 -0.0495  0.3709  0.2118
45632W        W88685  17.508  30.464  23.598  0.0178 -0.0104 -0.2566
45633W        W88686  29.029  10.482   8.687 -0.1069 -0.0010  0.1430
45634W        W88687   2.695  24.412  23.633  0.2511  0.1603  0.0637
45635W        W88688   9.925  26.096   8.018  0.1805 -0.3828  0.0042
45636W        W88689  31.633  22.090  25.312 -0.2627  0.1315 -0.1246
45637W        W88690  17.050  23.177  10.536 -0.2277 -0.0892  0.0190
45638W        W88691   9.920  12.568  16.048  0.2271  0.0188  0.1815
45639W        W88692  16.382  21.365  16.650  0.0476  0.0178  0.1839
45640W        W88693   6.532  20.579  18.979  0.4272 -0.1862  0.0895
45641W        W88694  11.713  16.770  10.515 -0.2261  0.3156  0.3791
45642W        W88695  11.263  21.048  13.232 -0.1518 -0.0997  0.0522
45643W        W88696  16.253  31.263  29.142 -0.1094  0.1284 -0.0616
45644W        W88697   3.983  12.743   3.548 -0.1802 -0.2036 -0.2128
45645W        W88698   0.302  10.056   7.971  0.0491  0.0962  0.1293
45646W        W88699   0.236  27.703   5.461  0.1020 -0.0846 -0.0652
45647W        W88700   1.510  27.099  15.943 -0.0447  0.1140  0.1272
45648W        W88701   7.531   7.112  26.429 -0.0378 -0.1696  0.2719
45649W        W88702   6.280  21.834  26.511 -0.5573  0.1722 -0.0462
45650W        W88703   7.078  19.375   9.547 -0.2282  0.1111 -0.2659
45651W        W88704  21.942  11.743  19.200 -0.5630 -0.2335  0.1300
45652W        W88705   9.932  22.643  22.254 -0.2093  0.2105  0.1640
45653W        W88706  12.040  22.414  21.048  0.0949  0.0162 -0.0112
45654W        W88707   7.094  19.955   1.570  0.2676  0.0735  0.0005
45655W        W88708   1.689  30.456  10.253  0.3518  0.1185  0.1961
45656W        W88709   4.232  14.487  27.017 -0.1595 -0.3443 -0.0290
45657W        W88710  11.939  13.001   6.318  0.1563 -0.2992  0.0336
45658W        W88711   8.958   0.665  16.837 -0.0066 -0.0428 -0.3135
45659W        W88712  20.031  27.935  20.786 -0.2160 -0.3250 -0.3534
45660W        W88713  15.327  33.550  20.198  0.0042 -0.1898  0.1089
45661W        W88714  18.376  13.056  18.440  0.0877  0.3406 -0.1565
45662W        W88715  21.169  33.350  22.851 -0.0155 -0.0513 -0.0162
45663W        W88716   8.674  22.133   4.739 -0.0859  0.1251 -0.0383
45664W        W88717   6.494  27.440  16.239  0.0934  0.0896 -0.0751
45665W        W88718   7.942   2.396  22.779 -0.1655 -0.0562  0.2138
45666W        W88719  32.546  12.702  22.244 -0.3312  0.0706  0.0586
45667W        W88720   7.503   5.618  19.714 -0.4337  0.2253 -0.0472
45668W        W88721  33.274   8.227  14.506  0.2224 -0.0054 -0.1865
45669W        W88722  29.587  26.064   2.251  0.1129 -0.3090  0.1801
45670W        W88723  24.700  10.242   0.134 -0.0129 -0.0005  0.0684
45671W        W88724  30.505  13.910  15.525 -0.2298 -0.0174 -0.0103
45672W        W88725  19.178   7.566  19.056 -0.0655  0.3051 -0.0183
45673W        W88726  31.575  13.490  25.812 -0.0554  0.0970  0.0137
45674W        W88727  32.242  18.754  17.437 -0.1047  0.1832  0.2650
45675W        W88728  14.198  13.298  27.201 -0.1694 -0.0745  0.0919
45676W        W88729  20.854  17.544  25.716  0.0650  0.1746  0.3888
45677W        W88730  10.593  14.729  10.699 -0.0204  0.2555  0.1442
45678W        W88731  16.524  28.167  28.599  0.2751 -0.0808 -0.1641
45679W        W88732   2.895  19.107  19.875  0.1590  0.0668 -0.0698
45680W        W88733  12.628  17.551   2.166  0.1731  0.1244 -0.3587
45681W        W88734   0.595   0.216  24.573 -0.0224 -0.0931  0.1670
45682W        W88735  17.087   5.797  15.982  0.1836 -0.1295  0.0078
45683W        W88736   5.655  19.751  28.096 -0.1485  0.0592  0.2742
45684W        W88737  30.298  16.616  14.859  0.1699 -0.1707  0.0100
45685W        W88738  31.547  22.166  26.354 -0.2413 -0.2347 -0.0954
45686W        W88739  27.364   3.001   7.567  0.1284 -0.2895  0.2187
45687W        W88740  34.682  17.187   5.992  0.1295 -0.0733 -0.2077
45688W        W88741  33.110  21.989  22.069 -0.2438  0.0275 -0.0760
45689W        W88742   4.608   9.232  20.934  0.1585  0.1310 -0.0101
45690W        W88743  19.851  12.466   4.164 -0.2603  0.0720  0.0923
45691W        W88744   5.015  10.442   1.130  0.0286  0.3740 -0.0038
45692W        W88745   4.931  22.401   8.646  0.0711 -0.1572  0.0893
45693W        W88746   4.351  24.431  23.065  0.2918  0.0198 -0.2520
45694W        W88747  25.646  24.352  16.569  0.0862  0.0341 -0.0700
45695W        W88748  19.831  22.797  25.884 -0.1769  0.0065  0.1351
45696W        W88749   7.014  27.995  25.740  0.1216 -0.1645  0.0551
45697W        W88750  15.278  29.834  24.057 -0.1065 -0.3776  0.1687
45698W        W88751   9.172  19.401  27.846  0.3972  0.5571  0.4754
45699W        W88752   7.584  24.177  14.871  0.0838  0.0087 -0.1539
45700W        W88753  15.750   9.249   2.493 -0.0996 -0.0672 -0.1272
45701W        W88754   1.198   3.333   8.183 -0.1807  0.1380  0.1598
45702W        W88755  24.815  22.866   8.481  0.3580 -0.0449  0.1487
45703W        W88756   8.006  33.221  19.365 -0.1753  0.0971  0.2589
45704W        W88757  30.871  20.760   8.051 -0.0679 -0.0681  0.0830
45705W        W88758   7.413  16.983  28.065  0.0308  0.0215 -0.2752
45706W        W88759   2.435  23.114   2.195 -0.1637 -0.0575  0.0396
45707W        W88760   0.570  31.651  25.704 -0.0282  0.3207  0.3394
45708W        W88761   4.523   5.342  19.743 -0.0657 -0.1578  0.0018
45709W        W88762  22.255  21.140   5.101  0.0253  0.0756  0.2383
45710W        W88763   4.006   5.684   7.427  0.1000  0.0670 -0.2060
45711W        W88764  18.792  15.772   0.237 -0.0358  0.1992  0.3257
45712W        W88765  10.369  16.563   9.242  0.3307  0.0054 -0.0844
45713W        W88766  10.284  22.724  22.627  0.1597 -0.2653  0.0806
45714W        W88767  14.609  11.260  19.178  0.0166  0.0244 -0.0150
45715W        W88768  33.180  22.463   8.952  0.0735  0.0397 -0.0161
45716W        W88769  10.281  17.825  20.223  0.0894  0.0395 -0.1891
45717W        W88770  22.722  25.938   2.201  0.0743  0.0088 -0.0254
45718W        W88771   3.166   9.893   9.688  0.0608 -0.2248 -0.1592
45719W        W88772  11.118  18.004  22.255 -0.1099  0.0262  0.1555
45720W        W88773  15.447  15.529   5.552 -0.0742  0.2698 -0.2905
45721W        W88774   4.248  23.521  23.859 -0.1850  0.0639  0.2472
45722W        W88775  31.059  23.347  15.888  0.0153  0.3248  0.0296
45723W        W88776  12.353   9.607   8.532 -0.1497 -0.0825 -0.0801
45724W        W88777   8.821  28.624  14.401 -0.1799  0.2922  0.0713
45725W        W88778   3.811  21.590   9.508  0.0151 -0.1157 -0.1026
45726W        W88779   1.008  21.790  28.588 -0.1398  0.1351 -0.2111
45727W        W88780   9.783   1.553   1.768 -0.2825 -0.1356 -0.2341
45728W        W88781   0.249  20.555   4.708  0.1209  0.2894  0.1935
45729W        W88782   4.358  10.566   0.655 -0.1397  0.0417 -0.0032
45730W        W88783   6.064  14.821  24.265 -0.1343  0.0568 -0.2031
45731W        W88784  32.145   2.371  18.565 -0.1885  0.1438  0.5632
45732W        W88785  18.269  29.164  25.246  0.2823 -0.0064  0.2213
45733W        W88786   3.765  20.718  26.328  0.3430  0.2103  0.0662
45734W        W88787  13.513  24.016   8.653 -0.2462 -0.2027 -0.0324
45735W        W88788  31.583  26.757   1.937  0.0433  0.3055  0.1764
45736W        W88789   5.106  12.933   9.836  0.2286  0.0949 -0.2952
45737W        W88790   0.047   8.585   1.223 -0.0626 -0.0459  0.2553
45738W        W88791  25.277   2.574  24.540  0.0273  0.0098  0.3078
45739W        W88792  10.870  14.049   6.884  0.0385 -0.2206  0.1576
45740W        W88793   6.299   9.443   5.188 -0.3428 -0.4152 -0.6258
45741W        W88794   5.770  23.474   1.916  0.3535 -0.0636  0.1409
45742W        W88795   7.026   0.904   4.413  0.1714  0.2696  0.0812
45743W        W88796   7.643  21.556  27.386 -0.0497 -0.0442  0.2994
45744W        W88797   2.078  28.363   0.828 -0.1809  0.2568  0.3888
45745W        W88798  26.829  20.748  22.575  0.1234 -0.2387 -0.2966
45746W        W88799  18.647  25.141   5.472 -0.1949 -0.1043  0.0883
45747W        W88800  12.642   7.469  17.718 -0.0795 -0.0457 -0.5565
45748W        W88801   5.970  16.817  23.683  0.2601  0.0625  0.0242
45749W        W88802   9.566  17.095   1.817  0.0659 -0.1552  0.4239
45750W        W88803   2.478  28.708   9.279  0.0252 -0.0966 -0.4240
45751W        W88804  17.299  23.764  27.086 -0.2393 -0.2925  0.1386
45752W        W88805   8.363   9.744   9.485 -0.5937 -0.1560  0.0449
45753W        W88806  18.434  17.376   7.061  0.0418  0.1332 -0.2442
45754W        W88807  14.366  18.184  13.869 -0.0652  0.3595  0.0631
45755W        W88808  28.341  25.489  21.470  0.0577 -0.0060  0.1366
45756W        W88809   6.248  22.852  26.793  0.0141 -0.4086  0.3310
45757W        W88810  25.631  20.585  28.367 -0.0449 -0.0556  0.0658
45758W        W88811  12.280  12.097   7.723 -0.1182 -0.1176 -0.1867
45759W        W88812   9.026   1.713  25.205 -0.0200  0.1118 -0.3017
45760W        W88813   8.426  21.469  13.746  0.1056 -0.2781  0.0190
45761W        W88814  16.939  23.315  23.022  0.1756  0.3758 -0.1425
45762W        W88815  16.546   2.559  17.793 -0.0761 -0.1706  0.1619
45763W        W88816  22.656  18.614   2.195  0.0080  0.0375 -0.1545
45764W        W88817   0.242  32.431  19.093  0.0068 -0.1621  0.0709
45765W        W88818  14.030   6.313   0.043 -0.0398 -0.2345 -0.1523
45766W        W88819   6.615  25.714   4.862  0.1460 -0.0455  0.3333
45767W        W88820  19.020  29.059  27.399 -0.0063  0.0328 -0.2105
45768W        W88821  11.450  10.649   3.278 -0.2371 -0.0425  0.1744
45769W        W88822  14.324  14.619   0.241 -0.1861  0.0170 -0.1307
45770W        W88823   3.412  16.065   8.085  0.4197  0.0107 -0.2293
45771W        W88824  11.415  16.113   9.460  0.2226  0.0377  0.0547
45772W        W88825   0.151  15.769  16.171 -0.0525 -0.0344 -0.0110
45773W        W88826  16.326  12.654   7.601  0.1707  0.2341  0.1004
45774W        W88827  19.658   8.362   5.174 -0.2821 -0.1918  0.1244
45775W        W88828   1.749  21.204  22.285 -0.0712 -0.0454 -0.0817
45776W        W88829  13.204  23.906   3.679 -0.2103 -0.2329 -0.2105
45777W        W88830  13.511  18.653   6.086  0.0975  0.0116 -0.2593
45778W        W88831  22.187  29.825   0.622 -0.2686  0.2674  0.0316
45779W        W88832  27.041  24.098  16.387 -0.0024  0.1433  0.2502
45780W        W88833  16.174   2.024   4.252  0.1692  0.0577  0.0502
45781W        W88834  20.754  26.036  22.676  0.0482  0.1598 -0.1137
45782W        W88835   6.104  17.386  16.053 -0.0738  0.1169 -0.2444
45783W        W88836   1.049  15.945  28.578  0.0218  0.1841 -0.2226
45784W        W88837  11.608  13.364   1.041 -0.1177 -0.0218  0.2337
45785W        W88838  11.142  27.024   6.225  0.0457 -0.1070 -0.2355
45786W        W88839   0.107   3.904   4.699  0.1160  0.3814  0.0398
45787W        W88840   0.454  13.961   1.705  0.2570  0.1135 -0.0227
45788W        W88841  27.425  19.821  26.837  0.0871 -0.1376 -0.2708
45789W        W88842   8.646  29.228  25.813  0.1147 -0.1225 -0.0682
45790W        W88843   8.235  23.302  21.821  0.0219 -0.2447  0.1499
45791W        W88844  18.920  31.591  26.761  0.4239  0.1019  0.1738
45792W        W88845  32.677   5.198  20.819  0.0877  0.1051 -0.0972
45793W        W88846  11.803  31.196  14.695 -0.1441 -0.1327  0.0768
45794W        W88847   1.037  24.315  18.059  0.2014  0.0126  0.2203
45795W        W88848   5.869  16.253  20.009 -0.0204  0.2114  0.1773
45796W        W88849   6.165  26.572  14.483  0.2386 -0.1501  0.0619
45797W        W88850  11.548   9.724  15.334  0.0928 -0.3470 -0.3283
45798W        W88851  19.419  26.153  16.638  0.2348  0.1801 -0.2780
45799W        W88852  11.040  31.670  15.414  0.1214  0.0241  0.0441
45800W        W88853   4.913   6.985  18.071  0.0902  0.2781 -0.0520
45801W        W88854   3.899  29.877  26.294 -0.2198  0.4145  0.0055
45802W        W88855  12.290   1.735  23.546  0.1894 -0.1305 -0.3255
45803W        W88856  20.763   2.925   0.333 -0.1757  0.3262  0.1938
45804W        W88857  10.518  10.531  17.117  0.0988  0.2758 -0.1018
45805W        W88858  34.435   1.370  23.821 -0.1442  0.0459  0.2451
45806W        W88859  11.680  33.996   6.549  0.1470 -0.1272  0.1360
45807W        W88860  12.098  21.722  21.790  0.1895 -0.2903  0.1001
45808W        W88861  16.141  27.894  26.892 -0.0406 -0.4943  0.3135
45809W        W88862   6.331  23.152  15.978  0.0903  0.2550  0.1561
45810W        W88863   3.547  29.105  26.972 -0.0788  0.0493 -0.0276
45811W        W88864  30.876  22.589  21.662 -0.1771  0.0891  0.3123
45812W        W88865  32.874  15.851   6.603 -0.0062  0.1133 -0.3009
45813W        W88866  25.944  21.739  27.731  0.3315  0.1461  0.0237
45814W        W88867  27.517  23.846  14.391  0.4216 -0.2534  0.1354
45815W        W88868   6.274  23.162  18.609 -0.1657  0.2928 -0.1098
45816W        W88869  15.541  23.937  17.650 -0.0439 -0.1261  0.1015
45817W        W88870   9.958  25.001  19.653  0.0841  0.2377 -0.0219
45818W        W88871   6.333  28.340  16.582  0.1405  0.0108  0.0779
45819W        W88872  14.460   0.416  28.641  0.0317 -0.0388 -0.0391
45820W        W88873   1.737  28.773  13.573  0.0086 -0.3121  0.0986
45821W        W88874   4.944  19.611  17.903 -0.1908 -0.0035  0.1795
45822W        W88875   0.576  27.885  20.087 -0.1508 -0.0460 -0.2232
45823W        W88876  14.749   3.346  23.306  0.2892  0.2870  0.3011
45824W        W88877  15.126  16.596  15.708 -0.0281 -0.2287  0.0138
45825W        W88878   2.526  23.573   9.390  0.1629 -0.3280  0.2259
45826W        W88879  33.387  28.290  20.166  0.2155  0.0248  0.3261
45827W        W88880   2.372  34.096  17.235 -0.0161 -0.1244 -0.3533
45828W        W88881   9.148  25.149  17.055  0.2081  0.0709 -0.0661
45829W        W88882  10.666   4.607  26.296  0.0255 -0.0438 -0.2028
45830W        W88883  19.674  28.412  18.997  0.2498 -0.0909  0.2030
45831W        W88884   8.629  22.813  14.959 -0.1751  0.0429  0.0358
45832W        W88885  10.810  25.664  13.390  0.1011  0.0967 -0.3058
45833W        W88886  30.297  33.157  15.777 -0.1692  0.0814 -0.1944
45834W        W88887  10.999  34.561  20.192 -0.2254  0.2797  0.0781
45835W        W88888   2.056  29.699  14.882 -0.1044 -0.0207  0.2203
45836W        W88889  13.129  33.401  25.577  0.0852  0.3436  0.0960
45837W        W88890  12.683  11.684  16.154  0.2967  0.1990 -0.1109
45838W        W88891  10.943  32.167  21.751  0.1171 -0.2435  0.1368
45839W        W88892  13.287  32.823  22.409 -0.1642 -0.1724  0.0791
45840W        W88893   6.444  24.712  22.340  0.1124  0.2238  0.1954
45841W        W88894  33.573  19.280  27.679 -0.0292 -0.3123 -0.1341
45842W        W88895   1.908  23.783  20.375  0.0204 -0.0367 -0.3783
45843W        W88896   4.315   7.797  23.547 -0.1058 -0.0940  0.0654
45844W        W88897  30.432  19.187  21.523 -0.1679  0.1733 -0.0951
45845W        W88898   4.753  29.342  14.611  0.2308 -0.0035 -0.1153
45846W        W88899  11.555   4.689  21.808  0.0647 -0.0975 -0.1535
45847W        W88900   9.971  22.769  21.711 -0.0961  0.1731 -0.0219
45848W        W88901  11.205  16.528   6.422  0.2681 -0.0614 -0.2475
45849W        W88902  12.424   3.351  27.128 -0.1519 -0.4518  0.1670
45850W        W88903   1.194  23.179  17.808  0.0583 -0.0062  0.2530
45851W        W88904  26.730  18.209  14.811 -0.1907  0.0089 -0.1200
45852W        W88905   3.927  21.883  19.725  0.2179  0.4390 -0.1683
45853W        W88906   9.071  13.357  17.498 -0.0506  0.1739  0.1114
45854W        W88907  22.343  18.650  20.472  0.0998 -0.0826  0.3194
45855W        W88908  11.587  10.389  21.748 -0.0815  0.2691  0.0038
45856W        W88909  16.298   0.402   0.027  0.0459  0.0976 -0.4729
45857W        W88910  31.696  24.448  14.441  0.0341  0.0596  0.3623
45858W        W88911   2.561  13.190  18.453 -0.0243  0.0012  0.5028
45859W        W88912  30.440  26.604  14.988 -0.0935 -0.0441 -0.0411
45860W        W88913   9.847   9.639  27.249  0.1366 -0.2844 -0.2244
45861W        W88914  34.622  16.314  17.337  0.2192 -0.3543  0.0912
45862W        W88915  30.498  28.264  19.407 -0.3604  0.1077 -0.0341
45863W        W88916   0.377   9.282   0.989 -0.2850 -0.2267  0.1413
45864W        W88917   7.636  32.173  21.863 -0.3937  0.2174 -0.2966
45865W        W88918   4.010  32.489  14.384  0.0974  0.2077  0.0087
45866W        W88919  15.206  27.398  15.214  0.1155  0.1302  0.1268
45867W        W88920  19.214  15.145   0.902 -0.0475 -0.0939 -0.1422
45868W        W88921  30.928  17.696  15.854 -0.2211 -0.1487 -0.2165
45869W        W88922  29.012  29.443  25.250  0.2755  0.0967 -0.2443
45870W        W88923  25.132  10.764  19.987 -0.0653  0.1542  0.0391
45871W        W88924   6.300  24.869  19.573 -0.0433 -0.1266  0.1478
45872W        W88925   3.583  31.344  13.017 -0.1977 -0.1637  0.3801
45873W        W88926   9.761  30.114  22.096 -0.0460  0.1869  0.1712
45874W        W88927  20.792   8.292  19.263  0.2112 -0.0511  0.1370
45875W        W88928  10.220  10.203  23.270 -0.3381  0.0500 -0.1500
45876W        W88929   9.185  25.669  16.952  0.5473  0.4622  0.1658
45877W        W88930   8.021  27.618  14.955 -0.2176  0.0368  0.3048
45878W        W88931  10.735   4.283  18.799  0.0996  0.0285  0.1607
45879W        W88932   9.709  11.527  15.599 -0.0670  0.2204 -0.0396
45880W        W88933   2.129  21.667  14.825 -0.1706 -0.3344 -0.3841
45881W        W88934  13.319  31.111  17.346  0.1303  0.0056 -0.3966
45882W        W88935  19.048  24.915  22.915 -0.1051  0.0982 -0.2503
45883W        W88936  18.183  15.706  14.442 -0.1468 -0.1981 -0.0326
45884W        W88937  12.814   1.409   5.164  0.0490  0.3438  0.1276
45885W        W88938   9.342  22.396   1.181  0.2130  0.1221 -0.0321
45886W        W88939   4.094  27.783  13.592 -0.1160  0.1457 -0.0295
45887W        W88940  28.403  29.369  15.948 -0.0011  0.0133  0.1974
45888W        W88941  18.680  25.167  19.288 -0.2509  0.0209  0.1231
45889W        W88942   5.063  30.155  15.188  0.0054 -0.1586  0.1124
45890W        W88943  22.807   0.068  23.996  0.1360 -0.0309 -0.1762
45891W        W88944   8.406  19.852  14.888  0.1848 -0.0616 -0.0982
45892W        W88945  10.309   6.586   2.841  0.4415  0.4262  0.1205
45893W        W88946   8.720  11.462   0.160 -0.2963 -0.4599  0.0943
45894W        W88947   5.067  25.346   2.992 -0.1285  0.2132 -0.0762
45895W        W88948  33.231  23.742  13.504 -0.0710  0.4115 -0.3513
45896W        W88949   5.280  31.505  19.463  0.1374 -0.0986  0.2740
45897W        W88950  26.692  32.506  24.722 -0.2669  0.1493 -0.1706
45898W        W88951  13.967  21.865   0.784 -0.0038  0.0858 -0.0535
45899W        W88952   0.169  24.972  14.431 -0.0240  0.2174  0.1666
45900W        W88953  16.695  27.396  16.347  0.0330  0.2574 -0.0719
45901W        W88954  27.583  26.463  20.935  0.1809  0.2181 -0.2728
45902W        W88955   3.270  20.436  18.586 -0.1990  0.0413 -0.0826
45903W        W88956  27.087  28.690  18.140 -0.4365  0.1866  0.1905
45904W        W88957   8.491  30.592  17.076  0.2673  0.0316 -0.0866
45905W        W88958  24.137  30.946  15.739  0.1589  0.3641 -0.0786
45906W        W88959   6.835  32.340  16.786  0.1769  0.5181 -0.2544
45907W        W88960  15.858  29.993  22.530 -0.0634  0.1843 -0.2300
45908W        W88961   2.043  24.730  15.965 -0.2254  0.0042 -0.2776
45909W        W88962  20.295  22.808  24.797  0.1869  0.0725 -0.0297
45910W        W88963  32.445  26.805  13.822  0.0090  0.0710 -0.2279
45911W        W88964  28.056  29.396  27.745  0.0569  0.2104  0.3624
45912W        W88965   9.188  20.912  13.583  0.4165  0.0112 -0.1032
45913W        W88966  27.332  34.545  29.007  0.1024  0.0223 -0.0334
45914W        W88967  29.824  25.838  14.458  0.0078 -0.3972  0.1801
45915W        W88968  10.075  23.422  17.508 -0.3813  0.0076  0.0107
45916W        W88969   9.737  33.052  27.250  0.0350  0.1114 -0.0229
45917W        W88970  29.643  19.009  17.531 -0.3229  0.0172  0.1406
45918W        W88971  32.077  16.526  15.138 -0.2521 -0.0551  0.1132
45919W        W88972   9.455  11.859  20.104 -0.1442 -0.0205  0.0324
45920W        W88973  13.293  12.721  15.729 -0.0764 -0.0195 -0.1046
45921W        W88974  21.873  20.507  13.966 -0.3418 -0.1190 -0.0421
45922W        W88975   7.615  24.474  16.899  0.1389  0.3860 -0.0108
45923W        W88976  10.925  29.873  21.763  0.1601 -0.0395 -0.0003
45924W        W88977  12.127  21.794  28.630 -0.0179 -0.3496 -0.1070
45925W        W88978  22.400  26.144  22.724 -0.1354 -0.0706  0.1861
45926W        W88979  29.075  14.356  15.656 -0.2016  0.2546 -0.0786
45927W        W88980  13.289  23.819  14.675 -0.2466 -0.1952 -0.3679
45928W        W88981  12.448  31.387  24.614  0.1517 -0.2791  0.4107
45929W        W88982   7.471  31.561  16.663  0.1563 -0.1220  0.0666
45930W        W88983   9.471   7.289  20.198 -0.0917  0.4175 -0.0280
45931W        W88984  31.752  16.881  20.067  0.0968  0.0612 -0.0638
45932W        W88985  16.011  34.347  26.561  0.2381 -0.1811 -0.1939
45933W        W88986   7.311  31.346  19.744  0.3572 -0.2218  0.0178
45934W        W88987  12.572  18.389  15.240 -0.0081  0.2155 -0.3475
45935W        W88988   4.856  25.487  19.985 -0.0839  0.0161  0.1269
45936W        W88989  10.602  26.413  17.721 -0.0887 -0.4221  0.1772
45937W        W88990  33.517  22.805  24.451 -0.0895  0.0473 -0.2445
45938W        W88991   3.260  29.995  14.369 -0.1696 -0.0544 -0.0139
45939W        W88992   5.359  34.257  16.522 -0.1031 -0.0689 -0.0606
45940W        W88993  26.797  33.241  21.637  0.1007 -0.0663  0.0095
45941W        W88994   8.964  17.489  27.702 -0.0351  0.0310  0.3400
45942W        W88995  29.257  20.450  22.471 -0.1451 -0.0544  0.2497
45943W        W88996   5.099  16.647  20.366  0.0568 -0.2846  0.3875
45944W        W88997  28.251  28.271  15.106 -0.1740 -0.1977  0.0808
45945W        W88998  19.004  16.636  13.473 -0.0511 -0.0670  0.0470
45946W        W88999  11.586  30.542  17.284  0.1164  0.1086  0.2112
45947W        W89000  13.800  23.904  23.603 -0.2785  0.1786 -0.2997
45948W        W89001  22.507  15.958  19.015 -0.1647  0.1059  0.1972
45949W        W89002  33.966  31.025  15.832 -0.2968 -0.2384 -0.1077
45950W        W89003  30.905  30.690  14.688  0.0709  0.0394 -0.0318
45951W        W89004  23.264  22.717   3.792 -0.0106  0.1631 -0.1758
45952W        W89005   6.227   0.075  16.677  0.0111 -0.2241 -0.0736
45953W        W89006  31.576  20.415  18.179 -0.2799  0.1435 -0.4317
45954W        W89007  31.815  32.188  15.626  0.1544  0.1308  0.0521
45955W        W89008  21.165  24.382  23.567 -0.1406  0.1695  0.0218
45956W        W89009   2.758  31.576  19.382  0.0357 -0.0622 -0.0479
45957W        W89010  23.380  23.461  20.720  0.0853 -0.0331 -0.0663
45958W        W89011  32.187  32.926  28.511  0.0463 -0.1755  0.3138
45959W        W89012  15.649  28.582  27.922 -0.0483 -0.2257  0.2748
45960W        W89013  27.924  22.934  21.018 -0.1404 -0.2921 -0.0992
45961W        W89014  15.975  23.661  17.541  0.2923 -0.1572  0.4655
45962W        W89015  21.853  11.297  22.413 -0.1077  0.1363  0.1230
45963W        W89016  10.799  34.084  28.227 -0.2064  0.0035  0.2479
45964W        W89017   5.214  21.691   4.020  0.1351  0.0048 -0.3443
45965W        W89018  11.986  12.637  26.766 -0.0543 -0.2244  0.0120
45966W        W89019  30.359  11.565  16.669  0.0217 -0.1325 -0.0755
45967W        W89020  16.795  28.606  20.185 -0.2428 -0.1454  0.1565
45968W        W89021  32.717  12.980  18.707  0.1524 -0.0460 -0.2051
45969W        W89022  14.723   9.077  23.025 -0.1775 -0.0895  0.2959
45970W        W89023  12.677  19.302  23.449 -0.0521  0.1639 -0.4515
45971W        W89024   3.986  25.968  14.990  0.1120 -0.4794 -0.1105
45972W        W89025  33.421  27.999   1.835  0.0266 -0.1105  0.0550
45973W        W89026   2.778  30.562   0.910  0.1611 -0.0339  0.0122
45974W        W89027  25.452  13.233  16.186 -0.3737 -0.0816  0.2695
45975W        W89028   2.300  20.739  13.437  0.1757 -0.2298 -0.1189
45976W        W89029   4.141  14.600  27.677  0.0596 -0.0505 -0.0248
45977W        W89030  21.807  22.755  17.844 -0.0036  0.0997 -0.0155
45978W        W89031  13.965  13.915  14.855  0.0065  0.3165  0.2358
45979W        W89032   7.506  16.827  23.211 -0.0822  0.0697  0.2804
45980W        W89033  11.383  31.033  27.670 -0.0209 -0.1117  0.3358
45981W        W89034   9.255  10.891  24.096 -0.2020 -0.2147  0.3232
45982W        W89035  13.739  18.754  22.682  0.0442 -0.0636 -0.0001
45983W        W89036  20.958  19.136  13.538 -0.1327 -0.0776 -0.3178
45984W        W89037   5.312  30.338  17.323  0.0519  0.0720 -0.0664
45985W        W89038  29.020  17.251  19.957  0.0332  0.0836  0.2560
45986W        W89039   4.836  28.229  19.750 -0.0515 -0.0252  0.3531
45987W        W89040   6.250  23.437  26.023  0.0248  0.2860  0.3150
45988W        W89041  33.998  32.383  19.653 -0.2889  0.2005  0.0948
45989W        W89042  24.152   5.290  25.151  0.0364 -0.0642  0.2427
45990W        W89043  18.057  25.500  24.378 -0.2464 -0.1669  0.0003
45991W        W89044   5.619  25.516  22.827 -0.1577  0.2010  0.6596
45992W        W89045  23.704  31.558  16.397 -0.1063  0.0094  0.0175
45993W        W89046   8.008  24.145  15.622 -0.0187 -0.2436 -0.0016
45994W        W89047   5.718  30.036  13.975  0.0527 -0.1205 -0.2077
45995W        W89048  30.528  28.706  14.982 -0.0251 -0.2785 -0.3140
45996W        W89049  12.275  13.491  28.636  0.2053 -0.3385  0.0339
45997W        W89050   0.818  14.821  16.208  0.0818 -0.1669 -0.0275
45998W        W89051  19.247   7.103   0.877 -0.1111 -0.0335 -0.0474
45999W        W89052   9.441  15.867  28.299  0.1992  0.2327  0.1551
46000W        W89053  26.626  23.508  28.928 -0.0075 -0.2452 -0.0343
46001W        W89054  21.846  22.745  16.825  0.1222 -0.0483  0.2739
46002W        W89055   5.082  26.190  13.228 -0.0987  0.2112  0.0940
46003W        W89056   2.401  22.748   1.616 -0.1396 -0.1772  0.2774
46004W        W89057   2.497  32.768   3.940  0.0179  0.1852  0.0184
46005W        W89058  11.787  23.065  15.260 -0.0475  0.2644 -0.1737
46006W        W89059  18.441  30.143  23.829  0.2510  0.1396 -0.1367
46007W        W89060  26.278  12.227  23.385 -0.4849 -0.1070  0.2298
46008W        W89061  25.895  14.251   1.518  0.1660  0.3054  0.1346
46009W        W89062   9.954  16.839  23.116  0.1137  0.1416 -0.0976
46010W        W89063  33.074  30.236   5.668  0.3121 -0.0275 -0.3061
46011W        W89064  13.546  24.570  22.746  0.2368 -0.0003  0.3190
46012W        W89065  12.583  26.019  26.871  0.2909 -0.2856 -0.1115
46013W        W89066  32.414  15.518  25.846  0.0431  0.1632 -0.0177
46014W        W89067  34.567  34.376  14.255  0.1721 -0.2568  0.0754
46015W        W89068   9.399  22.635  26.308 -0.2452  0.0856 -0.0313
46016W        W89069   0.866  22.412  14.728 -0.1430  0.0796  0.1730
46017W        W89070  13.927  13.546  15.998  0.2746  0.1866 -0.2741
46018W        W89071   1.296  32.166  18.339 -0.4351  0.2803  0.0754
46019W        W89072  17.428  28.736  18.645 -0.0456 -0.0337  0.2136
46020W        W89073  16.188  32.766  21.237 -0.0962 -0.2223 -0.1321
46021W        W89074  12.659  12.205  27.993 -0.3244  0.2887  0.0387
46022W        W89075  17.350  23.901  17.269 -0.0292 -0.0338 -0.1382
46023W        W89076   5.245   4.250  19.350 -0.1709  0.1688  0.0083
46024W        W89077  13.109  12.511  19.875  0.1636  0.1811  0.4320
46025W        W89078   5.995  30.134  18.939 -0.2067 -0.2007  0.1651
46026W        W89079  31.421  12.631  26.925  0.1657 -0.0568 -0.0346
46027W        W89080  34.575  22.677  23.055  0.0731 -0.6091 -0.0136
46028W        W89081   2.695  18.979  14.300  0.0081  0.0164  0.0412
46029W        W89082  33.075  16.389  18.708  0.1298 -0.2372 -0.0296
46030W        W89083  28.709   9.832  19.833  0.3148  0.1334  0.3616
46031W        W89084  13.128  13.852  15.528  0.0598 -0.0155  0.4345
46032W        W89085   7.980  12.394   5.167 -0.1608 -0.0951  0.0247
46033W        W89086  14.420  14.600  14.572  0.2325 -0.0058  0.0951
46034W        W89087  26.176  28.279  21.993 -0.2444 -0.2602  0.2115
46035W        W89088  11.022  24.396  28.333  0.0020 -0.2180 -0.2209
46036W        W89089  28.710   1.553  16.456  0.0160 -0.1635  0.1358
46037W        W89090  12.859  23.640  13.941  0.3206 -0.0990 -0.1481
46038W        W89091  29.923  30.327  19.106  0.3396  0.0538 -0.0159
46039W        W89092   5.740  25.885  19.344 -0.1595  0.0492  0.0733
46040W        W89093  34.142  15.904  28.732  0.1151 -0.2645  0.0089
46041W        W89094  10.470  10.574  16.584  0.1808  0.2302 -0.0650
46042W        W89095  31.328  22.957  19.615 -0.0259 -0.0896 -0.0726
46043W        W89096  12.447  29.827   0.659 -0.0544 -0.1001  0.1890
46044W        W89097  31.253  23.464  16.843 -0.2368  0.1094 -0.0848
46045W        W89098  28.392  20.989  15.545 -0.1204  0.1653 -0.4000
46046W        W89099  10.677  27.163  21.219 -0.2524 -0.0984  0.1635
46047W        W89100  23.907   2.041   2.804 -0.1206  0.3373 -0.2236
46048W        W89101  14.816  13.170  19.167  0.0764 -0.1281 -0.0372
46049W        W89102  11.985  33.192  13.991 -0.1680 -0.1133  0.0560
46050W        W89103  30.898   7.817  27.972  0.4902 -0.0206  0.2240
46051W        W89104  12.663  15.818  20.417  0.2350  0.2740  0.0682
46052W        W89105   2.819  26.801  13.693 -0.0924 -0.1756 -0.1472
46053W        W89106  24.237  22.763  27.597 -0.1710 -0.0993 -0.0636
46054W        W89107   5.768  33.813  19.066 -0.1917  0.1237  0.0862
46055W        W89108  13.107  30.871  15.776  0.2618 -0.3772 -0.0732
46056W        W89109   1.925  30.644  14.668  0.1012  0.1930 -0.0463
46057W        W89110   5.863  22.875  25.212  0.4012 -0.1525 -0.0570
46058W        W89111  19.070  20.900  24.018  0.0624 -0.4138 -0.1516
46059W        W89112  16.513  25.891  16.662  0.2231  0.0907 -0.0343
46060W        W89113  12.209  29.278  25.228 -0.4113  0.0605  0.0641
46061W        W89114  32.332  20.046  16.484 -0.1550 -0.1387  0.3304
46062W        W89115  25.568  27.550  23.965 -0.1029  0.1562 -0.1194
46063W        W89116   5.571   4.654  23.191 -0.2571 -0.0819  0.1958
46064W        W89117  14.525   0.857  22.287 -0.0128  0.3789 -0.0043
46065W        W89118  12.973  27.619  13.880 -0.2895 -0.0750 -0.3126
46066W        W89119   0.999  23.584  15.479 -0.1521 -0.0293  0.0954
46067W        W89120  10.726  19.655  14.267  0.1791 -0.0754  0.2113
46068W        W89121  13.859   0.152  18.253 -0.0852 -0.2562 -0.0045
46069W        W89122   7.443  34.207  24.982  0.0517 -0.1661  0.1548
46070W        W89123  22.103  31.760   1.472  0.0866 -0.1960 -0.1951
46071W        W89124   3.260   4.094  22.287 -0.0960 -0.0761 -0.2190
46072W        W89125  16.102  34.564  28.294  0.3463 -0.1418  0.2602
46073W        W89126   8.942  27.899  12.463  0.1309 -0.1392 -0.0641
46074W        W89127  20.455  29.939  19.358  0.2515  0.0254  0.0991
46075W        W89128  23.805  16.207  13.840  0.2351  0.0986  0.0979
46076W        W89129   5.437   5.232   3.599 -0.0772 -0.1424  0.4509
46077W        W89130  21.926  30.442  22.606 -0.0529  0.3840  0.1427
46078W        W89131   1.295  30.807   9.390  0.1829 -0.0632 -0.1353
46079W        W89132  26.161  23.677  14.241  0.0927  0.0518  0.0540
46080W        W89133  13.991  18.993   1.298  0.0783 -0.0419  0.1168
46081W        W89134   6.340  19.484  23.837  0.2720  0.2665 -0.0979
46082W        W89135   9.933  24.302   6.108  0.4142  0.0288  0.2581
46083W        W89136  24.149  31.052  24.686  0.2059 -0.3513 -0.0921
46084W        W89137  16.385  26.608  18.765 -0.1588  0.0909  0.1198
46085W        W89138  32.517  32.345  13.625 -0.0926  0.0404  0.1649
46086W        W89139  12.825  18.537  21.964  0.1444  0.1882 -0.0377
46087W        W89140  26.915  28.138  17.953 -0.0722 -0.1619  0.1251
46088W        W89141   6.882  22.100  23.759 -0.4121  0.1359 -0.0785
46089W        W89142   6.704   3.714  28.832  0.0852  0.0581 -0.2313
46090W        W89143   3.812  32.269  26.497  0.1494  0.3407 -0.1123
46091W        W89144  14.393  28.474   1.197  0.1727 -0.1198 -0.2434
46092W        W89145  10.869  12.339  17.600 -0.1779 -0.0018  0.0903
46093W        W89146  12.050  18.953  21.357 -0.0865  0.1886 -0.0710
46094W        W89147   7.580   0.723  26.485 -0.1597  0.0368 -0.2253
46095W        W89148  32.487  30.762  16.273 -0.2508  0.2664 -0.0483
46096W        W89149   6.696  25.657  17.312 -0.4035 -0.1324 -0.2265
46097W        W89150  30.591  21.443  15.488 -0.0177  0.0109  0.1685
46098W        W89151  11.779  27.055  13.267 -0.1623 -0.0570  0.0501
46099W        W89152   5.274  28.233  14.105 -0.2008 -0.1631  0.2245
46100W        W89153  13.514  21.860  18.521  0.1985 -0.1252  0.2181
46101W        W89154  13.928  18.929  16.646 -0.3380  0.0005 -0.1934
46102W        W89155   9.656  20.259  15.567 -0.1515  0.0395  0.0340
46103W        W89156  29.286   8.014  23.490  0.0160 -0.2536 -0.0129
46104W        W89157   7.593  12.465  20.966  0.3302 -0.5063  0.2038
46105W        W89158  23.304  26.724  21.298  0.0942 -0.2218 -0.2058
46106W        W89159   8.533   6.418  17.577 -0.1412  0.2397 -0.0063
46107W        W89160  32.634  33.885  14.128  0.1405 -0.1239 -0.0607
46108W        W89161  30.870  24.325  20.783 -0.0235  0.1531 -0.1917
46109W        W89162   4.422  24.067  16.914 -0.1586  0.0649 -0.1613
46110W        W89163   7.302  31.843  24.688  0.1892 -0.2119  0.0761
46111W        W89164  10.363  31.334  27.048 -0.0346 -0.0845 -0.3939
46112W        W89165  28.311  32.469  18.139 -0.1417 -0.0217 -0.0561
46113W        W89166  10.309  12.728   1.754  0.1298  0.1899  0.1219
46114W        W89167  29.186  30.945  20.786  0.0016 -0.1462 -0.0793
46115W        W89168  16.795  24.661  24.043 -0.1237  0.0649 -0.0307
46116W        W89169   6.545  21.173  20.683 -0.1029  0.0232 -0.4692
46117W        W89170   6.014  25.198  16.094 -0.0648  0.0377  0.0770
46118W        W89171  13.396  16.291  16.248  0.1565  0.1994 -0.2534
46119W        W89172   4.639  16.567  18.448 -0.2592 -0.1446 -0.1589
46120W        W89173  13.608  34.287   8.964 -0.0173 -0.1177 -0.1892
46121W        W89174  33.591  19.831  20.665  0.0154 -0.1100 -0.0490
46122W        W89175   3.123  15.624   8.092  0.0575  0.1217 -0.1956
46123W        W89176  18.560   4.562  21.840  0.3491 -0.1553  0.6527
46124W        W89177  14.346   6.447  15.809 -0.2137  0.0711 -0.1389
46125W        W89178  10.144  20.542   3.857  0.1096  0.3450 -0.2387
46126W        W89179  10.550  27.673  16.588 -0.2330  0.2623 -0.4096
46127W        W89180   9.638  28.012  14.834  0.2521  0.2026 -0.2158
46128W        W89181   0.257  16.198  15.911  0.0985 -0.1923  0.1715
46129W        W89182  25.642  12.371  22.061 -0.0192 -0.1135 -0.0148
46130W        W89183   8.334  16.216  18.082  0.1834  0.0814 -0.2782
46131W        W89184  28.993  16.904  15.104 -0.0997  0.3664  0.0590
46132W        W89185   0.017  23.873  14.983  0.1637 -0.0649  0.0930
46133W        W89186   5.893  25.882  17.017  0.4682 -0.0101 -0.1613
46134W        W89187  24.888  28.572  23.641  0.1294  0.0115 -0.0833
46135W        W89188  10.397  25.305  19.256 -0.2065  0.0911  0.1472
46136W        W89189   5.957  19.897  16.161 -0.0046 -0.0009  0.0904
46137W        W89190   5.189   9.123  17.599 -0.1420  0.1447 -0.2241
46138W        W89191  10.845  10.610  22.826  0.1262  0.0855 -0.1344
46139W        W89192  20.699  28.502  16.030  0.0446 -0.0711 -0.1034
46140W        W89193  32.899   8.562  21.057  0.1569 -0.0413 -0.3589
46141W        W89194  33.832  22.941  16.611 -0.3024  0.2123 -0.3010
46142W        W89195   9.719  10.332  19.288  0.0903  0.3322 -0.0997
46143W        W89196  31.864  17.116  21.946  0.1738  0.2057 -0.0997
46144W        W89197   3.480  12.277  16.869  0.0003 -0.0369 -0.0970
46145W        W89198  12.864  11.887  19.062 -0.1015 -0.2086 -0.3413
46146W        W89199   6.312  16.823  28.688  0.2303  0.0104 -0.1984
46147W        W89200  11.197  25.616  17.885 -0.0532 -0.0434  0.3213
46148W        W89201   1.668  31.037  14.311 -0.0275 -0.1131 -0.3425
46149W        W89202  13.532  31.658  15.111 -0.3165  0.0367 -0.0743
46150W        W89203   1.863  21.042  21.421 -0.1781 -0.3805  0.0984
46151W        W89204   7.875  29.612  25.271 -0.0386  0.1604  0.2325
46152W        W89205  14.737  30.957  16.046 -0.1426 -0.1267 -0.0540
46153W        W89206  27.671  22.665   4.550  0.0293  0.1943  0.2385
46154W        W89207   5.532   7.338  22.919  0.1842 -0.1582 -0.0907
46155W        W89208   9.053  24.194  15.874 -0.3432 -0.2125  0.0054
46156W        W89209   9.022  16.815   1.173  0.0383  0.4708 -0.0448
46157W        W89210  29.507  12.054  19.951 -0.0143  0.0463 -0.2050
46158W        W89211  10.168   1.870  24.804  0.0491  0.0506  0.0912
46159W        W89212  13.792  18.902  13.734 -0.1554 -0.1245  0.0454
46160W        W89213   1.796  19.020  18.231  0.2414 -0.2800  0.1446
46161W        W89214  32.535  16.520  18.397 -0.4458 -0.1509 -0.3418
46162W        W89215  30.206  29.967  21.988  0.4340  0.0477 -0.0661
46163W        W89216   2.378  13.989  14.732 -0.2073 -0.1708  0.4555
46164W        W89217  12.732  16.581  17.535  0.4487 -0.2103  0.0304
46165W        W89218  20.578   0.477  15.863  0.1216 -0.1478  0.2268
46166W        W89219   1.940  29.129  19.796 -0.0845  0.0106 -0.2406
46167W        W89220  14.975  29.307  14.609  0.7238 -0.1167  0.0541
46168W        W89221   9.956  33.599  17.215  0.0137  0.0431 -0.0601
46169W        W89222   3.788   5.940  24.994 -0.0823  0.1079  0.1678
46170W        W89223  18.311   6.464  21.081  0.0882  0.0913 -0.1333
46171W        W89224  34.678  14.134  25.434  0.1591 -0.2410  0.1221
46172W        W89225  19.085  20.001  14.289  0.4195 -0.0274  0.2979
46173W        W89226   8.668  25.287  17.018  0.2231  0.0800 -0.0412
46174W        W89227  22.515  29.768  23.491  0.0452 -0.2363 -0.1154
46175W        W89228  16.005  25.073  16.135 -0.0315  0.3138  0.0096
46176W        W89229  12.169  26.620   8.252 -0.1391 -0.1246  0.1033
46177W        W89230  13.217   6.868  27.976 -0.2755  0.5244 -0.1208
46178W        W89231   7.755  24.173  17.321  0.0252  0.2340  0.0686
46179W        W89232   8.897  21.034  14.431  0.1164 -0.1326 -0.1199
46180W        W89233  30.904  18.771  18.143 -0.1349 -0.1599 -0.1376
46181W        W89234   3.700   0.935   6.092 -0.2592 -0.0758  0.1698
46182W        W89235  11.877  28.028  14.123 -0.1436 -0.0730  0.1029
46183W        W89236  30.567  28.302  21.352  0.1022 -0.2582 -0.1993
46184W        W89237   8.994  18.293  18.279 -0.1408  0.2178  0.0409
46185W        W89238  10.911  30.918  21.161  0.0061  0.2031  0.1981
46186W        W89239  32.793  19.303  20.341  0.0380 -0.1592  0.0516
46187W        W89240   5.977  10.861  28.279  0.1670  0.0851  0.3259
46188W        W89241  21.214  30.551  16.809  0.0667 -0.1041 -0.1470
46189W        W89242   9.586   8.549  26.261  0.2460  0.2245  0.0515
46190W        W89243   4.734  16.231  17.864 -0.0455 -0.1371 -0.0053
46191W        W89244  21.922  16.131  25.129  0.1297 -0.2430  0.0244
46192W        W89245  11.200  31.059  17.075 -0.0188 -0.0877  0.3018
46193W        W89246   4.961  27.059  26.061  0.0240 -0.2274  0.0649
46194W        W89247  10.264  20.058  19.522 -0.2614 -0.0886 -0.2042
46195W        W89248   5.833   8.628  26.218 -0.0938  0.1101  0.1416
46196W        W89249   2.516   2.962  26.671  0.1140  0.0010 -0.0626
46197W        W89250   8.194  19.618  27.279 -0.2070  0.1030  0.0943
46198W        W89251   7.111   3.548  15.000 -0.1779  0.0120 -0.1359
46199W        W89252  32.469  32.170   0.186  0.2094  0.0119  0.2506
46200W        W89253  17.322  31.361  17.226  0.2052 -0.2575 -0.0346
46201W        W89254   6.443  17.568  19.679  0.0608  0.0690 -0.3672
46202W        W89255  32.967  21.796  16.963  0.0672 -0.2408 -0.2033
46203W        W89256  34.366  21.566  15.724 -0.1693  0.5006 -0.0982
46204W        W89257  15.921  25.595  19.770  0.3189  0.1800 -0.0383
46205W        W89258   2.131  32.860   9.268  0.1594  0.2188  0.1113
46206W        W89259   7.076  27.716   5.698  0.0230  0.1546 -0.0535
46207W        W89260  17.329  25.653  10.005 -0.1912  0.2436  0.0244
46208W        W89261   4.200  18.611  25.064  0.2049 -0.0923 -0.0589
46209W        W89262   7.226  20.643  14.241  0.0502  0.1013  0.0231
46210W        W89263   3.613  23.944  20.796 -0.1854  0.2579  0.1846
46211W        W89264   2.246  16.780  15.905  0.1427 -0.0577 -0.3145
46212W        W89265  13.026  23.561   2.692  0.2938  0.2193 -0.0156
46213W        W89266   3.467  21.164  27.253 -0.0643 -0.2700  0.0398
46214W        W89267  16.071   6.436  26.928 -0.0747 -0.0019  0.3714
46215W        W89268  20.133  29.697   0.507  0.0364 -0.1721 -0.1046
46216W        W89269   0.916  20.600  28.298  0.3472 -0.1822  0.0820
46217W        W89270   4.881  18.602   2.278  0.1529 -0.0791 -0.3467
46218W        W89271  13.164  28.486  21.552  0.0960 -0.3619  0.2389
46219W        W89272  33.241  21.461  26.595  0.2115  0.0313 -0.0414
46220W        W89273  14.263  30.728  16.651 -0.0020  0.2834  0.2354
46221W        W89274   6.623   2.115   1.873  0.0443  0.1611 -0.0132
46222W        W89275  31.812  33.830  27.420 -0.1849  0.0032 -0.1364
46223W        W89276  26.145  27.543  18.454  0.3583  0.0088  0.0359
46224W        W89277  25.574   1.058  15.661  0.0059  0.0480 -0.1765
46225W        W89278  26.586  19.064   0.557 -0.1763  0.1539 -0.1238
46226W        W89279  10.328  23.843  20.874  0.0715 -0.2252  0.1276
46227W        W89280  18.559  22.226  28.524 -0.0458  0.0535 -0.1960
46228W        W89281   0.287  21.908  18.139 -0.1318  0.0338 -0.1703
46229W        W89282   9.799  23.012  15.287  0.2848  0.1189 -0.0059
46230W        W89283   8.726  31.726  14.393 -0.2219 -0.2158  0.0291
46231W        W89284   7.939  19.774  14.986  0.0288 -0.0684 -0.0079
46232W        W89285   3.748  12.115  19.107  0.2894  0.3187 -0.0853
46233W        W89286   8.627  16.209   7.370  0.0850 -0.2324 -0.0532
46234W        W89287  12.960  24.218  14.719 -0.1273  0.0408 -0.0208
46235W        W89288  19.089   7.712  18.112  0.0559  0.0745 -0.0049
46236W        W89289  28.257  24.774  22.448  0.1393 -0.0332  0.0695
46237W        W89290  15.436  21.239  23.858  0.1429  0.1096  0.2451
46238W        W89291  34.380  17.060   1.478 -0.0110  0.0578 -0.1691
46239W        W89292  31.898  32.579  21.882  0.2797 -0.0101  0.0594
46240W        W89293  13.026   9.570   1.894  0.1165  0.1695  0.2073
46241W        W89294  31.751  25.159  18.058  0.0282  0.0883 -0.2552
46242W        W89295  22.887  24.032  27.583 -0.0317  0.3908  0.3262
46243W        W89296  34.234  26.214  19.841  0.0827  0.1761  0.0824
46244W        W89297   5.415  17.139  22.879 -0.0467  0.1332  0.1477
46245W        W89298  32.570   7.483  23.090  0.1504  0.0753  0.0344
46246W        W89299  20.007  13.849  22.711  0.0252 -0.1088  0.1880
46247W        W89300  11.177  29.375  27.250 -0.1172  0.1649 -0.0165
46248W        W89301  32.382  23.038  23.031  0.3065 -0.1385 -0.0259
46249W        W89302  24.152  25.686  27.237 -0.0673  0.2531 -0.1717
46250W        W89303  22.242  13.821   1.099 -0.0029 -0.0947 -0.2614
46251W        W89304   8.956  31.937  24.132 -0.1087  0.0950  0.1134
46252W        W89305  11.300  21.993  15.654 -0.0969  0.1395  0.1766
46253W        W89306  25.810  30.374   3.265 -0.3538  0.1973  0.0580
46254W        W89307  15.957  28.888  14.395 -0.0829 -0.2634 -0.1742
46255W        W89308  16.885  18.307  13.089  0.1826  0.0620  0.4846
46256W        W89309   4.408  24.026  21.413 -0.1076 -0.1858 -0.0948
46257W        W89310   8.577  16.300  23.997 -0.0016  0.1098  0.0482
46258W        W89311   0.387   1.513  28.161 -0.0496  0.2346  0.1389
46259W        W89312   7.420  33.191  20.198  0.0055 -0.2852 -0.0760
46260W        W89313   4.866   8.252  22.276  0.2280  0.1951 -0.0042
46261W        W89314  15.723  25.671  15.072 -0.0047  0.3063 -0.0495
46262W        W89315  26.619  30.275  21.782  0.4138  0.1685 -0.0482
46263W        W89316   0.696  27.790  27.297 -0.2202 -0.2461  0.0797
46264W        W89317  21.968  29.564   2.284  0.2009  0.1789  0.1093
46265W        W89318   8.711  28.801  16.054  0.2153  0.2222 -0.1420
46266W        W89319  15.493  14.955   6.201  0.1076 -0.1986  0.0628
46267W        W89320  29.225  18.160  14.876 -0.1435  0.3224  0.0409
46268W        W89321  12.041   1.015  16.032 -0.3034  0.1228 -0.2789
46269W        W89322  13.097  23.034  22.220  0.2426  0.1263  0.0343
46270W        W89323  23.684  25.017  15.068  0.0010  0.3886  0.0689
46271W        W89324  13.770   7.311   3.618  0.1934  0.2434  0.1965
46272W        W89325   5.917  23.676  28.244  0.0253  0.0414  0.2927
46273W        W89326  10.141  25.482  23.192 -0.1099  0.1604 -0.0491
46274W        W89327   6.810  13.952  26.282  0.1603  0.2298  0.2362
46275W        W89328  18.735  23.705  25.885  0.1500  0.0747 -0.0979
46276W        W89329   8.475   1.110  19.594  0.1472 -0.1521 -0.1848
46277W        W89330   7.218  30.221  14.953 -0.0748  0.2714 -0.1472
46278W        W89331  11.603  17.487  26.569 -0.1403  0.5070  0.6123
46279W        W89332  12.956  21.578  23.846 -0.1017  0.2101 -0.1419
46280W        W89333   9.376  28.774  13.550 -0.0128  0.0034 -0.0948
46281W        W89334  12.447  20.543  18.136 -0.1175 -0.0088 -0.1564
46282W        W89335  10.396   8.900  18.721  0.3221  0.1801 -0.1884
46283W        W89336  15.853  12.510  21.002  0.3951 -0.1849  0.1712
46284W        W89337   5.714  26.461  26.951  0.3425  0.0085  0.1515
46285W        W89338  28.974  10.956  26.213  0.0517 -0.2862 -0.0784
46286W        W89339  33.890  12.955   5.930 -0.1198  0.0042 -0.0798
46287W        W89340  34.682  28.427  17.742  0.6236  0.0916  0.0332
46288W        W89341  14.766  15.770  16.009 -0.2223 -0.1386 -0.4389
46289W        W89342  12.339   5.026  20.044 -0.0017  0.1635  0.0306
46290W        W89343   2.242   7.311  24.245  0.1792  0.0736  0.1612
46291W        W89344  23.949  25.991  16.762  0.1492  0.0391  0.1933
46292W        W89345  13.275   1.612   6.766 -0.2118  0.0037 -0.3624
46293W        W89346  31.337  27.109  13.816 -0.0928 -0.0071 -0.0679
46294W        W89347  13.864  26.636  17.205  0.0904  0.1367 -0.1741
46295W        W89348  10.771  17.218  27.303  0.1184  0.1114 -0.1025
46296W        W89349  20.439   2.094   4.334 -0.0195  0.0902 -0.1187
46297W        W89350   9.111  10.107   3.852  0.2867  0.1334  0.1197
46298W        W89351   5.732  23.393  25.337 -0.2209 -0.1004 -0.0722
46299W        W89352  19.292  16.218   5.861 -0.2627  0.2857 -0.1120
46300W        W89353   7.141   8.211  24.208 -0.1724  0.0530  0.1727
46301W        W89354  27.323  26.807  20.271  0.1152 -0.0359 -0.1245
46302W        W89355   9.665  23.864  16.550  0.0691 -0.0504 -0.0390
46303W        W89356   8.895  23.848  17.154 -0.1076 -0.2803  0.2139
46304W        W89357   6.343  10.187  21.361  0.1177  0.1177  0.1662
46305W        W89358  24.302  16.075  17.470  0.3967 -0.2004 -0.0079
46306W        W89359   7.830  22.367   0.212 -0.3122 -0.0152 -0.2943
46307W        W89360   9.460  20.965  19.493  0.3282 -0.1820 -0.1935
46308W        W89361  33.177  32.501  14.193  0.1439  0.1040 -0.2490
46309W        W89362   8.278   7.546  24.853  0.0114  0.0912 -0.0634
46310W        W89363  23.311  28.909  16.842 -0.0981 -0.2244 -0.3226
46311W        W89364  18.976  23.418  20.070  0.1693  0.1914 -0.0831
46312W        W89365  17.870  21.591   3.776  0.1145  0.0512 -0.0944
46313W        W89366   1.393  18.422  21.326 -0.2943  0.0263 -0.4788
46314W        W89367  10.280  19.501   1.252  0.2519  0.2275  0.1030
46315W        W89368   8.656  27.485   7.851  0.1563 -0.1251 -0.0127
46316W        W89369   9.870  31.374   8.265 -0.0885 -0.4200 -0.5080
46317W        W89370  33.317   3.644  22.462 -0.2157 -0.0388  0.2005
46318W        W89371  17.373  31.841  14.708 -0.3637  0.1179 -0.0476
46319W        W89372   8.528  32.508  24.312 -0.0735 -0.0793 -0.2963
46320W        W89373  14.242  34.003  17.634  0.0845  0.1582 -0.1618
46321W        W89374  29.330  10.785  18.997 -0.0960 -0.2325  0.2005
46322W        W89375   4.901  19.204  13.688  0.0422 -0.1347  0.1443
46323W        W89376  26.515   2.967  24.035 -0.1545  0.2952  0.1057
46324W        W89377   1.269  18.160  22.882  0.3128 -0.0001 -0.0208
46325W        W89378   9.511  22.657  21.583 -0.1611  0.0020  0.2371
46326W        W89379  10.476  21.482  16.689  0.1231 -0.2073  0.1044
46327W        W89380   0.859  21.882   4.548  0.1827 -0.1564  0.4226
46328W        W89381  10.257  14.920  25.449  0.0669  0.1433 -0.1640
46329W        W89382  12.919  13.489  19.718  0.0886  0.1456  0.3049
46330W        W89383   4.132  13.866  18.482 -0.0219  0.0708  0.1087
46331W        W89384   0.003  21.552   6.129 -0.0888 -0.1943  0.2858
46332W        W89385   9.440  17.352  17.327  0.1054 -0.0588  0.0126
46333W        W89386  30.319  16.320  27.060 -0.0107  0.1697 -0.3479
46334W        W89387  19.736  16.820  25.866 -0.4951 -0.0770 -0.1291
46335W        W89388  15.521   9.832  25.395  0.1841  0.0428 -0.0416
46336W        W89389   6.337  31.353  15.488 -0.2421  0.0100 -0.1597
46337W        W89390   6.120   2.239  23.671 -0.0986 -0.2683 -0.0943
46338W        W89391   5.811  30.996  14.071  0.1761 -0.2434 -0.1860
46339W        W89392   8.978  13.949  25.515  0.0602  0.1593  0.2316
46340W        W89393  33.530  11.533   3.311 -0.0771 -0.1474 -0.1839
46341W        W89394   8.934   9.550  20.743 -0.2163 -0.0817  0.1761
46342W        W89395  21.734   2.973  22.399 -0.2075  0.1012  0.1735
46343W        W89396   6.213  29.773  22.558  0.0294 -0.4697 -0.0094
46344W        W89397   1.110  26.904  25.078  0.2078  0.4998  0.1048
46345W        W89398  13.764  16.437  16.972 -0.1591 -0.1521 -0.1156
46346W        W89399  10.480  28.026  13.333  0.0512 -0.2359 -0.0955
46347W        W89400  23.334   9.882   1.005 -0.3346 -0.2209 -0.2014
46348W        W89401   5.542  25.982  26.820 -0.1786  0.3524  0.3297
46349W        W89402  33.218   2.969  23.724  0.0025 -0.1380  0.1686
46350W        W89403  18.490  19.752   1.456  0.1758 -0.0758  0.0718
46351W        W89404   3.918  33.327   5.270 -0.0094  0.4166 -0.0242
46352W        W89405   1.262  16.908  20.655  0.0294  0.1568  0.1941
46353W        W89406  13.971  15.110  24.842 -0.1696  0.3076  0.0993
46354W        W89407  13.495  10.677   3.867  0.1808  0.2443 -0.0505
46355W        W89408   8.416  12.234  24.652  0.1752  0.2197 -0.0606
46356W        W89409   9.316  19.597  17.056  0.0079  0.0928 -0.0660
46357W        W89410   4.286  20.506  15.312 -0.0275  0.4463  0.0364
46358W        W89411  33.935  11.048  16.181 -0.0530 -0.1869  0.3388
46359W        W89412  34.151  23.789   2.546  0.1582  0.0002  0.2894
46360W        W89413  30.018  25.037  18.492  0.2159  0.1652 -0.2579
46361W        W89414  27.613  10.145  28.269 -0.2506 -0.0663  0.1161
46362W        W89415   8.184  24.768  21.905 -0.1632 -0.1033 -0.1453
46363W        W89416   2.019  16.984  16.291  0.1887 -0.0047 -0.3292
46364W        W89417  13.268  25.181   0.232 -0.1396  0.1337 -0.1664
46365W        W89418  33.377  28.154  17.677 -0.1480 -0.2966  0.1632
46366W        W89419  33.792  28.684  17.543 -0.0619  0.2026  0.2671
46367W        W89420   8.865  30.290  27.513  0.2443  0.1907 -0.2522
46368W        W89421  31.898   4.967  18.296  0.0875  0.1277 -0.0941
46369W        W89422   6.303  24.835  13.398 -0.2459 -0.1256  0.0741
46370W        W89423   6.972  26.400  18.799  0.1824 -0.0520  0.0793
46371W        W89424  15.403   5.530  13.915 -0.1509 -0.0854  0.0363
46372W        W89425  31.334  17.399  26.621  0.1241 -0.3051  0.3228
46373W        W89426  29.542  21.643   1.485 -0.0174 -0.2179  0.4216
46374W        W89427  11.857  15.235  15.298 -0.2681  0.2263  0.0156
46375W        W89428  12.149  31.886   6.152  0.3615 -0.1666 -0.3104
46376W        W89429  17.052   3.489  22.347  0.1843 -0.1547  0.0885
46377W        W89430   8.877   0.092  15.117 -0.3418  0.2636 -0.0687
46378W        W89431   3.885   5.966  24.312  0.1243  0.0175  0.0676
46379W        W89432   7.745  24.440  21.329 -0.1371 -0.3056  0.0261
46380W        W89433  26.892  28.976  20.094 -0.1610 -0.1699 -0.2241
46381W        W89434   1.698  27.245  24.367  0.2228  0.1395  0.1997
46382W        W89435  13.702  16.006  21.107 -0.0198 -0.0429  0.0535
46383W        W89436  31.648   2.044  15.434  0.1518  0.3054 -0.0723
46384W        W89437  13.231   4.749  17.881  0.1116 -0.0917 -0.1604
46385W        W89438  23.344  17.953  22.008 -0.1820  0.3524 -0.3244
46386W        W89439  10.253   1.286  18.581 -0.0914  0.1085 -0.2986
46387W        W89440   6.765  14.403  22.246  0.4202 -0.1706 -0.1520
46388W        W89441  16.249   0.993  19.316 -0.3560 -0.1514 -0.0751
46389W        W89442  29.936  33.502  27.898  0.0694  0.1321 -0.1328
46390W        W89443  13.613   5.838  21.324 -0.0215 -0.0612  0.0104
46391W        W89444   8.934  28.854  13.836  0.3219  0.2062 -0.1062
46392W        W89445  10.834  14.854  16.635  0.0498 -0.1048  0.0798
46393W        W89446   6.241  10.830  15.299 -0.3050 -0.1010  0.1199
46394W        W89447  30.675   8.465  19.042  0.0378 -0.0650  0.2735
46395W        W89448   6.072   4.146  14.741  0.0140  0.2512 -0.0691
46396W        W89449  17.912  13.468   4.802  0.0236  0.2808  0.1230
46397W        W89450  24.875  15.327  26.969  0.1433  0.1375  0.0057
46398W        W89451  20.007  22.256  22.669  0.0897 -0.0794  0.3564
46399W        W89452  13.494  22.606  17.164 -0.2395 -0.2696 -0.0453
46400W        W89453  18.195  26.336  26.312  0.2236 -0.3923 -0.1490
46401W        W89454   9.709  27.377  13.625  0.0689 -0.1726 -0.1777
46402W        W89455  11.052  23.789  24.772  0.2916 -0.0890  0.0288
46403W        W89456   1.317   9.920  17.949 -0.0251  0.0196  0.2656
46404W        W89457  12.268  30.954  15.134  0.0164  0.1486 -0.0947
46405W        W89458  15.832  15.398  27.093  0.2293 -0.2249  0.2347
46406W        W89459  18.788   1.517  21.408 -0.0897 -0.1335 -0.0466
46407W        W89460  13.563   4.695  28.708  0.2503 -0.1241  0.4128
46408W        W89461   3.431  25.677  13.982  0.0269  0.0910  0.0570
46409W        W89462  14.791  23.116  26.078 -0.1549  0.3054 -0.4165
46410W        W89463   9.772  22.572  25.791  0.2536 -0.0165  0.2656
46411W        W89464   4.012  32.538  21.914  0.3339  0.2624 -0.1140
46412W        W89465  14.767  11.226  24.438 -0.1180 -0.2341  0.3961
46413W        W89466  27.800   1.610  24.979  0.1346 -0.0129  0.4102
46414W        W89467  16.875  24.806  16.503 -0.0204 -0.0667  0.0159
46415W        W89468  18.886  34.037  14.903  0.0478  0.0867  0.0918
46416W        W89469   8.412   0.758  24.383  0.1415 -0.1346  0.1957
46417W        W89470  23.748  27.521  24.957 -0.3112  0.1125  0.2070
46418W        W89471  34.583  30.274  17.065 -0.0189  0.4146 -0.0703
46419W        W89472   6.878  16.159  15.583  0.2161  0.2051  0.1396
46420W        W89473   5.386  21.779  16.536  0.0593 -0.1383  0.2297
46421W        W89474  13.159   3.045   3.273 -0.0208  0.1422 -0.2340
46422W        W89475  10.152  19.795  17.243  0.1827  0.0910 -0.1769
46423W        W89476   4.688  22.785  15.252 -0.0045  0.1242  0.2841
46424W        W89477  32.113  17.082  21.515 -0.0004  0.2901 -0.1110
46425W        W89478  14.431  28.018  26.370  0.2867 -0.1364  0.1006
46426W        W89479  13.646  34.556  25.448  0.2275 -0.0818  0.1219
46427W        W89480   2.256  30.580  16.326 -0.0630 -0.1164 -0.0014
46428W        W89481   7.946  23.359  15.530  0.0285 -0.1268 -0.1226
46429W        W89482  32.889  21.048  21.168 -0.0657 -0.1498  0.0429
46430W        W89483  33.565  25.771  26.341  0.2921  0.1080  0.0927
46431W        W89484   9.701  14.104  18.238  0.0328  0.1658  0.1321
46432W        W89485   6.769  27.263  22.358 -0.1182  0.2075 -0.1263
46433W        W89486   3.720  12.651  19.175  0.0874  0.0096 -0.0226
46434W        W89487   6.833  13.547  27.592  0.0980  0.1468 -0.0366
46435W        W89488   9.749  12.759  26.953  0.1142  0.0511 -0.0858
46436W        W89489  10.265  29.540   1.573  0.2015 -0.0685  0.2377
46437W        W89490  28.900  13.144  27.434 -0.0493 -0.1926 -0.0154
46438W        W89491  28.928  24.423  15.066  0.1332  0.0580 -0.4484
46439W        W89492  34.676  28.345  16.841  0.1612  0.1091 -0.0942
46440W        W89493  18.994   1.561   1.556 -0.1604 -0.0928 -0.0943
46441W        W89494  13.500  16.589   0.452  0.1992 -0.0802  0.2890
46442W        W89495  14.819  24.664  15.991 -0.1965 -0.2298 -0.3451
46443W        W89496   2.923   0.374  22.992 -0.1493 -0.1236 -0.1746
46444W        W89497   9.045  27.753  13.196  0.1656 -0.0719 -0.3328
46445W        W89498  31.872  16.789  25.261 -0.0357  0.0649 -0.1198
46446W        W89499  13.418  17.896  18.429 -0.1909  0.1480  0.3469
46447W        W89500   0.183  17.721  18.561 -0.2166  0.0915 -0.0247
46448W        W89501  11.669  12.847  23.548  0.2474 -0.0910 -0.0552
46449W        W89502  10.295  18.463  15.232  0.0390  0.0369  0.0141
46450W        W89503   5.773  25.150  17.213 -0.0817  0.2068 -0.0735
46451W        W89504  17.162  25.345  15.502 -0.3156  0.1106  0.4155
46452W        W89505  10.431  33.639  20.489 -0.0181 -0.0432 -0.1039
46453W        W89506  10.992  14.387  16.900  0.0887  0.0775 -0.0358
46454W        W89507   8.413   2.077  18.681  0.1896 -0.0839  0.1656
46455W        W89508  28.933  16.436  17.669  0.0592 -0.1372 -0.0734
46456W        W89509   5.678  29.527  21.982 -0.0922  0.1977  0.0444
46457W        W89510   8.517  28.419  21.259 -0.1548  0.0759 -0.3261
46458W        W89511   4.830  29.363  23.989 -0.1317  0.1070 -0.2721
46459W        W89512  22.404  20.685   6.329 -0.3519 -0.2553 -0.2203
46460W        W89513   1.580  17.296  12.840 -0.1367  0.1140  0.0672
46461W        W89514   7.822  31.431  15.043 -0.0542  0.1120  0.1327
46462W        W89515  20.495  29.628  16.229 -0.0244 -0.0483  0.0313
46463W        W89516   8.884  24.030  18.760  0.3444 -0.2505 -0.1299
46464W        W89517   6.900  23.714  24.760  0.1540  0.1094 -0.0409
46465W        W89518   5.556  17.662  16.832  0.1534  0.1110 -0.1050
46466W        W89519   6.593  23.877  18.087  0.0810 -0.2465  0.0421
46467W        W89520  23.030  33.707  19.164  0.4665 -0.0698 -0.0593
46468W        W89521   5.842   6.075  14.759 -0.1898  0.2424  0.0277
46469W        W89522  26.091  27.024  20.698 -0.3160 -0.1142  0.0695
46470W        W89523  14.749  21.254  25.591  0.1054  0.0615 -0.2894
46471W        W89524  10.096  21.882  21.864  0.0741 -0.0398 -0.0914
46472W        W89525   3.685  24.225  22.084  0.1999 -0.3005  0.0271
46473W        W89526  16.753   3.727  27.501 -0.0273 -0.0089 -0.0969
46474W        W89527  28.924  18.374  17.222  0.0983 -0.1195  0.1663
46475W        W89528  25.514  20.891  14.452  0.2045  0.2193  0.3158
46476W        W89529   4.771  31.065   8.182 -0.1320  0.1657  0.3385
46477W        W89530  32.135  21.368  27.105 -0.0654 -0.1410  0.1323
46478W        W89531  15.396   6.475  17.013  0.0129 -0.0487  0.2492
46479W        W89532   4.219   1.411  17.406  0.1152 -0.0245 -0.0368
46480W        W89533   4.452  19.247  20.794  0.0465  0.2853 -0.2674
46481W        W89534  32.448  24.368  15.264 -0.1651 -0.1574  0.0474
46482W        W89535  22.516  28.001  18.191 -0.1560  0.1523 -0.2203
46483W        W89536   0.466  20.390  21.420  0.2282  0.1675  0.0835
46484W        W89537   8.273  18.021  21.756  0.0560  0.1592  0.1755
46485W        W89538  24.110  19.592  15.854  0.0138  0.0746 -0.2161
46486W        W89539  20.471  28.541  24.858  0.0099  0.0613  0.0432
46487W        W89540   2.719  26.860  17.099 -0.2837  0.0257 -0.0373
46488W        W89541  19.004  22.825  20.938 -0.0051 -0.0848 -0.0220
46489W        W89542   2.907   2.484   1.986  0.1622 -0.3542 -0.1144
46490W        W89543  23.824  28.479  23.450  0.0347 -0.0497 -0.1774
46491W        W89544   8.304  19.969  26.589  0.2349  0.0018 -0.1593
46492W        W89545  31.048   8.873  16.796 -0.0488  0.0009  0.1113
46493W        W89546  25.077  22.898  18.525  0.0774  0.4883 -0.0347
46494W        W89547  22.935   8.090  17.797  0.2544  0.0159  0.1821
46495W        W89548   7.694  25.438  19.857 -0.1017  0.3026 -0.1156
46496W        W89549  11.701  21.289  18.130  0.1814  0.0898  0.1835
46497W        W89550  11.871   0.186  21.906 -0.2997  0.3423  0.3116
46498W        W89551   3.199  17.743  26.769 -0.1736  0.1744 -0.0566
46499W        W89552  27.337  23.604  14.808  0.1050  0.3211 -0.2109
46500W        W89553  10.968  17.677  19.072  0.0453  0.0254  0.2652
46501W        W89554   6.315  15.956  19.012  0.0230  0.1457  0.0111
46502W        W89555  18.275  34.195  20.319  0.2546 -0.1227  0.0804
46503W        W89556  10.249  21.010   4.700 -0.0087  0.0420 -0.0789
46504W        W89557   2.588  23.277  28.502  0.0739 -0.0001 -0.0473
46505W        W89558  14.133  21.238  21.781  0.1642 -0.0779  0.0646
46506W        W89559   8.156  27.790  16.611  0.1324 -0.1792 -0.2196
46507W        W89560  18.833   4.364   9.499 -0.1781 -0.1264  0.0134
46508W        W89561   9.475  19.824  25.951  0.0459 -0.1588 -0.0229
46509W        W89562   9.224   7.188  17.335 -0.0321 -0.3006 -0.1465
46510W        W89563  13.649   0.426  24.203  0.1725  0.1320  0.2896
46511W        W89564   6.342  31.749  19.076 -0.0701  0.0375 -0.1623
46512W        W89565  11.477  17.752  25.842  0.0319  0.1602  0.0107
46513W        W89566   4.470   7.579   0.491  0.1836  0.5161  0.0661
46514W        W89567   8.362  13.229  24.857  0.0361  0.0268 -0.2636
46515W        W89568  29.607  30.601  23.517  0.0126  0.0455  0.0322
46516W        W89569  10.498  19.538  27.286  0.0186 -0.3304  0.0531
46517W        W89570  25.976   7.584  14.991 -0.0513 -0.1890  0.0691
46518W        W89571  18.663  30.947  25.488  0.1729 -0.0520 -0.2385
46519W        W89572   1.880  15.054  16.074  0.2548  0.0081  0.0574
46520W        W89573   9.983  26.117  15.230  0.0416  0.3896 -0.0038
46521W        W89574   7.326  31.933  28.450  0.0265  0.0174 -0.0219
46522W        W89575   3.714  24.748   2.032 -0.2271  0.0950  0.0670
46523W        W89576   5.577  28.973  13.178  0.2442 -0.2942 -0.0540
46524W        W89577  10.810  25.428  15.270 -0.1046 -0.2397  0.2447
46525W        W89578  14.874  22.929  16.446 -0.2766  0.0028 -0.0771
46526W        W89579  13.259  26.996   4.240  0.3972  0.0515  0.0861
46527W        W89580   0.624  32.388  14.337 -0.1051 -0.0532 -0.2751
46528W        W89581   5.547  23.103  23.273 -0.0145 -0.1781  0.1213
46529W        W89582   7.529  29.100  16.608 -0.0927  0.2732  0.3229
46530W        W89583   1.705  25.146  16.398  0.0993  0.1609 -0.0682
46531W        W89584  14.809  20.684  26.172  0.0555  0.3341  0.2779
46532W        W89585  24.167  11.090  15.524  0.1308 -0.0141  0.0828
46533W        W89586   5.792  26.587   5.954 -0.2322 -0.3189  0.0823
46534W        W89587   2.553  16.144   2.229 -0.1553 -0.3320  0.0801
46535W        W89588  18.204   8.832  26.257  0.0758  0.2884 -0.1437
46536W        W89589   8.940  23.368  21.631  0.1488  0.1013  0.0190
46537W        W89590   5.198  22.903  28.308  0.3096 -0.0147  0.1508
46538W        W89591  10.461  13.872  17.614 -0.1457 -0.0003  0.3070
46539W        W89592   1.950  18.291  21.716 -0.1966  0.0650 -0.1453
46540W        W89593   6.268  18.995  23.429 -0.0707 -0.0549 -0.1296
46541W        W89594  11.114  26.691  17.803  0.0199  0.1508  0.0969
46542W        W89595  13.022  25.683  19.768 -0.3326  0.1142  0.0258
46543W        W89596  27.171  19.377  19.569  0.0392 -0.3760 -0.0146
46544W        W89597   9.301  23.586  14.110 -0.3119 -0.0593  0.0404
46545W        W89598  15.455  28.099  27.041  0.0060  0.0234 -0.1115
46546W        W89599  15.037  19.179  13.577  0.1154  0.0625 -0.1372
46547W        W89600   4.977  29.228  20.961 -0.3461 -0.0952  0.2015
46548W        W89601   7.420  29.492  22.131 -0.0820  0.0303  0.1251
46549W        W89602   7.584  13.024   1.668 -0.1015 -0.0567 -0.0546
46550W        W89603   6.452  26.461  14.959 -0.0152 -0.1433 -0.1075
46551W        W89604   5.870  15.000   5.967  0.1436 -0.1704 -0.0659
46552W        W89605  33.710   2.569  15.953 -0.2089 -0.3748  0.0422
46553W        W89606  27.267  16.170  25.553 -0.0379 -0.1224 -0.2203
46554W        W89607   8.396  24.290  16.388 -0.0584  0.0033  0.1068
46555W        W89608   2.776  25.454   1.243 -0.1856  0.1413 -0.0425
46556W        W89609   4.308  32.261  25.695  0.4563 -0.2216 -0.0223
46557W        W89610  10.584  14.074  21.373 -0.0932  0.1254  0.0326
46558W        W89611   9.617  31.491  28.703 -0.2301  0.0370  0.3714
46559W        W89612   8.918  19.268  27.398 -0.1373 -0.0315  0.1399
46560W        W89613  11.747  10.445  20.276  0.0258 -0.1331 -0.0536
46561W        W89614  24.949  29.550  17.121  0.2502  0.1496 -0.2222
46562W        W89615  10.770  14.453  23.511  0.0304  0.0273  0.1814
46563W        W89616   4.614  11.713  15.655 -0.0522 -0.0023  0.1274
46564W        W89617  15.087  32.191  20.313  0.0630  0.1594  0.0717
46565W        W89618  15.209  29.702   1.365 -0.0431 -0.2370 -0.2288
46566W        W89619   2.444   2.028   2.729  0.1930  0.2646 -0.0452
46567W        W89620  11.031  29.153  14.856 -0.0189  0.0920 -0.2957
46568W        W89621   4.740   4.649   3.886 -0.1559 -0.1240 -0.0593
46569W        W89622  11.355  17.890  21.214  0.3039  0.1674  0.1661
46570W        W89623   8.234  28.782  19.536  0.2123 -0.0184 -0.1208
46571W        W89624   2.614  14.533  21.849 -0.3482  0.1728  0.3446
46572W        W89625  32.977  29.408   5.647 -0.1949  0.0781 -0.1621
46573W        W89626  11.835   2.404   0.553  0.1388  0.2183 -0.1751
46574W        W89627   8.370  12.653  18.107 -0.2303  0.0135  0.1535
46575W        W89628   7.647  30.879   0.567  0.3610  0.0252 -0.2624
46576W        W89629  18.916  27.188  14.764  0.4195 -0.1368 -0.1795
46577W        W89630  18.647  22.108  14.920 -0.4159 -0.1227  0.1138
46578W        W89631   5.631  21.571  17.568 -0.3160  0.1990  0.3092
46579W        W89632   2.927   9.928  24.026 -0.2752  0.1342  0.1254
46580W        W89633   9.218  28.947  25.504  0.2956  0.2822  0.0146
46581W        W89634  33.125   2.808  17.332  0.2920 -0.4098  0.0055
46582W        W89635   6.922  34.669  27.389 -0.3405 -0.3326  0.3024
46583W        W89636   3.037  22.063  25.295  0.0204 -0.2219 -0.0809
46584W        W89637  10.285  24.590  28.680 -0.2465  0.0676 -0.0925
46585W        W89638  13.414   9.102  21.808 -0.0557  0.0018 -0.2594
46586W        W89639   8.398  19.551  15.475  0.2670 -0.0256  0.1050
46587W        W89640  15.322  18.776  22.664  0.1686 -0.3403 -0.1714
46588W        W89641  15.965   7.484   6.438  0.2479 -0.1269 -0.2317
46589W        W89642  18.964  12.213  16.666 -0.1736  0.1545 -0.3037
46590W        W89643  21.318  29.104  22.107 -0.0644 -0.0176  0.1263
46591W        W89644   8.959  28.547   0.794  0.1935 -0.1128  0.0360
46592W        W89645  13.679  24.195   3.666  0.1080  0.0576 -0.4197
46593W        W89646  12.991  18.572  14.734  0.4038 -0.1293 -0.0573
46594W        W89647  22.265  33.675   0.860 -0.0033 -0.0943 -0.0547
46595W        W89648   5.288   9.459  15.381 -0.1178  0.1061  0.1841
46596W        W89649  13.004  22.802  23.635 -0.3144  0.2077  0.0811
46597W        W89650   7.513  25.864  16.429 -0.2639 -0.0910  0.1555
46598W        W89651  29.888  31.157  20.061 -0.2032 -0.0481  0.1604
46599W        W89652   1.814  13.637  25.318 -0.1342 -0.1410  0.0887
46600W        W89653   4.432  11.780  22.925 -0.2848  0.0228  0.0821
46601W        W89654   7.967  32.201  20.232  0.0942 -0.0276  0.1185
46602W        W89655   4.103   8.856  27.067  0.0873 -0.1800  0.2569
46603W        W89656  12.058  16.363  25.696 -0.0266 -0.3501  0.1606
46604W        W89657  15.502  27.620  22.987 -0.0342  0.2914 -0.1095
46605W        W89658  13.440  16.577  22.463  0.2668 -0.0502 -0.0119
46606W        W89659  31.774  25.914  25.508  0.1198  0.1540  0.1128
46607W        W89660  10.618  17.801  10.482 -0.2426 -0.0933 -0.0694
46608W        W89661   3.020  26.489   3.644  0.2680  0.1249  0.1344
46609W        W89662  18.865  31.572  26.159 -0.0707 -0.0751 -0.2324
46610W        W89663  22.545   9.851  15.418 -0.1391  0.1803  0.0644
46611W        W89664   7.675  22.180   4.011 -0.2118 -0.5266 -0.0433
46612W        W89665  30.500  14.458  21.341 -0.2050 -0.0932 -0.1100
46613W        W89666   6.936  12.320  25.666 -0.0094 -0.1020  0.1722
46614W        W89667   6.693  31.352  18.958  0.1673 -0.0279 -0.1156
46615W        W89668   8.147  22.445  18.505 -0.0727 -0.0003 -0.2553
46616W        W89669  33.797  21.427  22.153 -0.2530  0.2592  0.4665
46617W        W89670   1.159  23.957   1.473 -0.2125  0.0516 -0.0844
46618W        W89671  29.670  24.628  25.604  0.2839 -0.1706 -0.0469
46619W        W89672  14.706  25.633   8.386  0.0717  0.0050  0.1355
46620W        W89673   4.255  12.990  26.936 -0.0045 -0.2491  0.0491
46621W        W89674  25.086  17.266  20.121 -0.1205  0.2364  0.0320
46622W        W89675  13.394  22.304  22.764 -0.1050 -0.0499  0.0263
46623W        W89676  15.908  15.125  14.894  0.2491  0.3159  0.2554
46624W        W89677   1.227  16.932   6.898 -0.0271 -0.0096 -0.0122
46625W        W89678  20.102  31.599  17.433  0.1039 -0.0452 -0.3520
46626W        W89679   8.640  25.916  18.313  0.0397  0.0272  0.2267
46627W        W89680   0.092  12.257  17.792  0.3352  0.2647  0.3329
46628W        W89681  29.888  23.616  18.315 -0.0410 -0.0210 -0.0140
46629W        W89682  20.163  33.324  15.122  0.0220  0.2986 -0.0776
46630W        W89683  12.756  29.495  24.346  0.1260  0.1331  0.2191
46631W        W89684  16.295  20.001  13.671 -0.1523  0.0453 -0.0667
46632W        W89685  11.507  23.187  17.577 -0.0114  0.2986  0.2081
46633W        W89686  32.839   2.380  24.231 -0.0195  0.2227 -0.0164
46634W        W89687   4.440  18.701  15.700  0.0695  0.2185 -0.0103
46635W        W89688   1.907  19.665  24.593  0.3986  0.3751 -0.0048
46636W        W89689   2.406  31.018  22.573  0.0442  0.0737  0.3142
46637W        W89690  19.023   2.671  25.628  0.1316  0.3544  0.0938
46638W        W89691   7.502  14.626  23.965 -0.1385  0.1909  0.2246
46639W        W89692  18.527  25.615  27.005  0.1546  0.3308  0.2812
46640W        W89693   2.279   6.185   2.343  0.2624  0.1539 -0.1408
46641W        W89694  17.271  34.113  20.482 -0.0353  0.1734 -0.0845
46642W        W89695  15.251  30.874   8.152 -0.0672  0.0555  0.1368
46643W        W89696   1.932  11.300  22.456  0.0280  0.0899 -0.1514
46644W        W89697   4.659   3.678  24.077 -0.0333  0.1639 -0.0884
46645W        W89698   1.684  32.304  22.139 -0.1972 -0.0056 -0.0050
46646W        W89699   3.033   2.377  22.713  0.1871 -0.0841 -0.1853
46647W        W89700  19.198  19.821  22.111 -0.0485  0.1205  0.3654
46648W        W89701  19.998  28.987   3.618 -0.1881  0.1960 -0.1686
46649W        W89702   2.739  30.793   1.412  0.0857 -0.1313 -0.2508
46650W        W89703  33.177  34.426  13.690 -0.0195  0.0894  0.0811
46651W        W89704  12.107  30.957  25.383 -0.1275 -0.2029  0.1666
46652W        W89705  11.211  25.267   0.977 -0.2985 -0.1034 -0.2215
46653W        W89706  18.961  30.092  23.927  0.1019  0.5352 -0.2937
46654W        W89707  13.654  34.470   0.028  0.1921  0.0089  0.3733
46655W        W89708   8.622  21.830  22.413 -0.2260  0.2485  0.1080
46656W        W89709  30.051  18.982   4.259 -0.2718 -0.1813  0.1491
46657W        W89710  14.939   0.122  18.069 -0.0216  0.0451 -0.0874
46658W        W89711   2.838  33.680   7.325  0.1623  0.2339  0.1549
46659W        W89712  11.233  16.249   2.184  0.2279 -0.0618 -0.1467
46660W        W89713  11.189  16.317  17.336  0.0457 -0.1887 -0.0481
46661W        W89714  12.501  21.621   0.442 -0.0139  0.1833  0.0014
46662W        W89715  33.685  23.478  27.015  0.1677 -0.1041 -0.1071
46663W        W89716   6.315  17.678   0.805  0.0844 -0.0146  0.0525
46664W        W89717  15.929  30.553  23.687 -0.1892  0.0582  0.1518
46665W        W89718  31.990  32.103  22.002 -0.0855 -0.0454 -0.1197
46666W        W89719  16.249  31.083  19.145  0.1117  0.0269 -0.0708
46667W        W89720  33.715   2.281  23.773  0.2269  0.2401 -0.0825
46668W        W89721  14.783  34.675  20.675 -0.2309  0.3158  0.0918
46669W        W89722   7.483  21.687   8.808 -0.0895 -0.0297  0.1796
46670W        W89723   1.035  19.567  25.306  0.2661  0.1134 -0.0958
46671W        W89724   6.776   3.731  18.175  0.0076 -0.2274  0.0534
46672W        W89725  17.107  20.714   6.003 -0.2886  0.0417  0.2274
46673W        W89726  14.092  11.795  17.369 -0.1280  0.2541  0.1674
46674W        W89727  29.672  18.719   5.792 -0.0544 -0.2581 -0.1216
46675W        W89728   8.653   0.582  19.831  0.1466  0.0284  0.1587
46676W        W89729   9.956  29.114  16.832 -0.1830 -0.2873  0.0846
46677W        W89730   5.121   6.159  23.542  0.0404 -0.4595 -0.1531
46678W        W89731   7.698  33.208  24.722 -0.0873  0.1014  0.0905
46679W        W89732  20.965   0.301  26.290  0.0368 -0.1600  0.1836
46680W        W89733   5.615  11.260  17.076  0.0832 -0.0258 -0.0620
46681W        W89734  16.662  28.563  25.814  0.2339  0.0308 -0.1667
46682W        W89735   1.295  10.023  24.931  0.1507 -0.1345  0.0104
46683W        W89736   6.526  26.931  26.650 -0.0081  0.0144 -0.3785
46684W        W89737  15.750  11.429  14.687 -0.0545  0.1205 -0.0474
46685W        W89738  28.155  19.295  25.749  0.3349 -0.2280  0.0188
46686W        W89739  32.627  15.435   3.502  0.0963 -0.0893 -0.0241
46687W        W89740  11.937  32.453  27.108  0.2799  0.0522  0.0045
46688W        W89741   5.847  27.473  13.658  0.0565  0.2865  0.0475
46689W        W89742  27.691  21.211  16.042 -0.0105 -0.0432  0.0440
46690W        W89743   4.205  15.835  17.423 -0.1093 -0.1971 -0.1843
46691W        W89744   2.386   5.321  17.437  0.2121  0.0123 -0.1719
46692W        W89745   3.083   2.107  27.378  0.0976 -0.4403  0.0075
46693W        W89746   6.417  21.807   7.772  0.2094 -0.0111 -0.3848
46694W        W89747  11.176  14.346   1.568  0.2019  0.0553  0.0348
46695W        W89748  12.652  29.425  26.344 -0.0159  0.1745 -0.0890
46696W        W89749  14.929  24.539  10.243 -0.0188  0.3534 -0.1744
46697W        W89750  27.734  25.912   4.619  0.0629  0.1122  0.0703
46698W        W89751  31.919  27.228  26.555  0.3255  0.0630  0.1604
46699W        W89752  29.491  21.234  25.575 -0.1719  0.0838 -0.1162
46700W        W89753  10.429  20.493   1.878  0.2669  0.2442 -0.1434
46701W        W89754  11.685  28.981  16.345 -0.1558  0.2161 -0.2742
46702W        W89755   1.819  20.495  17.839 -0.0888  0.1199  0.3005
46703W        W89756  24.867   9.985  26.777  0.1898  0.0774 -0.2060
46704W        W89757  30.185  31.551  22.969  0.0932 -0.3270 -0.1710
46705W        W89758   5.756  25.316  18.185 -0.0963 -0.0812 -0.0326
46706W        W89759   4.536  21.269  21.486  0.1679 -0.0637 -0.0538
46707W        W89760   0.753  11.279  22.750  0.1000  0.0975 -0.0028
46708W        W89761  17.845  26.029  20.858 -0.1302 -0.1099  0.0691
46709W        W89762   7.244  24.244  17.317  0.2351 -0.2319 -0.0505
46710W        W89763  28.240  10.512   1.393 -0.0504  0.1637  0.0666
46711W        W89764   1.265  33.243  14.349  0.4137 -0.0727 -0.0989
46712W        W89765  27.600  26.311  15.887  0.3451  0.0037 -0.0766
46713W        W89766  14.922   7.098  16.393 -0.0002  0.3580  0.1032
46714W        W89767   3.259  24.816  14.471 -0.0205  0.2505 -0.0562
46715W        W89768  31.203  20.650  18.302 -0.0345  0.2567  0.1344
46716W        W89769  23.654  22.181  15.708 -0.2925  0.1378  0.0739
46717W        W89770  13.629   4.216  18.914  0.0740  0.1695  0.0591
46718W        W89771  10.890  19.364  15.337  0.0810  0.1238  0.0220
46719W        W89772  14.213  17.826   0.599 -0.1386 -0.2272  0.0091
46720W        W89773  21.150   1.615  20.876 -0.0842 -0.2902  0.0966
46721W        W89774  26.546  31.911  23.343  0.2448 -0.0393 -0.3983
46722W        W89775   2.453   4.593   5.255  0.0640  0.2280  0.3814
46723W        W89776   8.138  25.686  26.668  0.3366  0.4431  0.0016
46724W        W89777  30.982  28.088  22.113  0.0531 -0.1215  0.0813
46725W        W89778   3.854  19.914   4.208  0.0981 -0.2535  0.0830
46726W        W89779  12.877   7.354  19.989  0.1483  0.1112 -0.1597
46727W        W89780  13.276  29.708   9.504 -0.1444 -0.0588 -0.0671
46728W        W89781   8.767  19.676  26.393  0.0303 -0.0883 -0.1573
46729W        W89782  30.741  21.560  17.038  0.2337  0.2549  0.4141
46730W        W89783  28.551  24.209   7.270  0.2031  0.0365  0.4046
46731W        W89784   1.281  25.125  13.356 -0.0480 -0.2731 -0.1683
46732W        W89785   5.728  16.772  22.659 -0.0349  0.0721  0.3316
46733W        W89786   2.535   0.837  20.749 -0.1539  0.1468  0.3242
46734W        W89787  34.054  24.719  19.073  0.0583  0.0288 -0.0414
46735W        W89788  26.138   0.248   8.435  0.1882 -0.0737  0.0111
46736W        W89789   0.992  24.882  15.355  0.0367  0.2660  0.0209
46737W        W89790  10.161  13.904  19.220 -0.1667 -0.0893 -0.1041
46738W        W89791  13.679   9.385  15.734  0.1739 -0.1372 -0.0266
46739W        W89792  22.990  17.138  18.412 -0.0128 -0.1670  0.2756
46740W        W89793  10.309  20.196   2.304 -0.2180 -0.0776 -0.1879
46741W        W89794  10.915   6.515  14.796 -0.0499  0.0141 -0.1699
46742W        W89795  19.829  21.381   5.481  0.0800  0.1346  0.3037
46743W        W89796  30.131  24.445  13.556 -0.1635  0.0648 -0.3585
46744W        W89797  14.061  12.835   1.800  0.1077 -0.0310 -0.1467
46745W        W89798  26.646  23.292  25.776 -0.2601 -0.2451 -0.1161
46746W        W89799  11.653  29.169   7.120  0.0766 -0.0381  0.2423
46747W        W89800  31.073  31.621  27.819  0.0202  0.1465 -0.0458
46748W        W89801  15.231  25.503  16.350 -0.0194  0.4564  0.1013
46749W        W89802   9.910  27.224  16.251 -0.0389 -0.2603 -0.1086
46750W        W89803   6.513   6.651  18.909 -0.0433  0.3568  0.0163
46751W        W89804   0.578  17.712   8.511 -0.1694  0.2336 -0.0457
46752W        W89805  18.015  20.670   9.212 -0.1197  0.0723 -0.5846
46753W        W89806  20.545  22.402  27.015 -0.2354 -0.1588 -0.0586
46754W        W89807  21.367  27.909  21.375 -0.1109  0.0771  0.2274
46755W        W89808  17.833   6.459   4.322 -0.0575 -0.1333 -0.3114
46756W        W89809  20.737  21.789  21.053 -0.1415 -0.2162 -0.1866
46757W        W89810   0.510  27.117   3.900 -0.1741  0.0714 -0.1497
46758W        W89811  17.387  23.915  22.605  0.0010 -0.1893 -0.2388
46759W        W89812  11.667  17.913  26.303  0.2430  0.2974 -0.2849
46760W        W89813   5.086  19.499  24.509 -0.0535  0.0485 -0.2544
46761W        W89814  25.472  29.476   4.888  0.1441  0.1427  0.1665
46762W        W89815   8.289  18.004  25.910  0.0441 -0.2238 -0.0810
46763W        W89816   5.126   7.530  25.292 -0.4971  0.2481 -0.0136
46764W        W89817  33.568  13.145  14.698  0.0561  0.0618  0.1664
46765W        W89818   1.525  20.136  23.374  0.1621  0.4429  0.0838
46766W        W89819  28.999  17.976  17.641 -0.2187 -0.1563 -0.0502
46767W        W89820  10.655  20.930  19.542 -0.1940  0.0024 -0.1470
46768W        W89821   0.748  14.286   0.180 -0.3224  0.1137 -0.1199
46769W        W89822  13.828  24.094  22.767 -0.0362  0.5333  0.0332
46770W        W89823   7.714  30.498  22.428 -0.6315  0.3490  0.1449
46771W        W89824  18.072  24.987  19.635  0.0733  0.1917 -0.3199
46772W        W89825  31.160   8.381  23.289 -0.2326 -0.4033  0.1687
46773W        W89826  24.477  29.243  17.906  0.0468  0.0958  0.0001
46774W        W89827   9.176   2.111  19.302 -0.1137 -0.2839 -0.2690
46775W        W89828   2.829  16.949  26.297  0.0868  0.4111 -0.0808
46776W        W89829   0.185  32.065   4.880  0.3045 -0.2395 -0.2504
46777W        W89830   9.871  21.368  25.735 -0.2452 -0.3235 -0.3515
46778W        W89831  14.119  12.873   6.658  0.0738 -0.1033 -0.0740
46779W        W89832  32.046  19.609  16.192  0.2051 -0.3355 -0.0735
46780W        W89833  29.623  14.426   7.468  0.0460 -0.2257  0.0203
46781W        W89834  32.721  27.542  26.408 -0.0379  0.0405 -0.0189
46782W        W89835   4.755   2.724  16.068  0.1967  0.0984  0.0903
46783W        W89836  20.866  29.763  21.366  0.1015  0.3732  0.0190
46784W        W89837  34.555  18.693  21.375 -0.1257  0.1428  0.6336
46785W        W89838   8.806  20.876  21.376  0.0645  0.2385 -0.0659
46786W        W89839   9.602  34.347  22.085 -0.0060 -0.1276  0.0587
46787W        W89840  15.745   9.995   7.832  0.0692  0.3323  0.3055
46788W        W89841  27.869  23.544  17.527  0.1657  0.2535  0.0929
46789W        W89842  16.550  30.632  17.963 -0.1581 -0.2167 -0.0884
46790W        W89843   7.352  15.216   6.488 -0.3108  0.1344  0.1136
46791W        W89844  12.551  32.923  24.038 -0.2253  0.2398 -0.0050
46792W        W89845   0.146  19.152  23.766 -0.2711 -0.0214 -0.2891
46793W        W89846   8.328  23.743  27.449 -0.0186 -0.0464  0.2489
46794W        W89847  15.660  30.468  18.560  0.0079  0.2730  0.1333
46795W        W89848  13.092  30.667  17.291 -0.3654 -0.0007  0.2039
46796W        W89849  20.159  10.960  13.725 -0.0221  0.0877  0.4414
46797W        W89850  15.758  34.536  22.710  0.1470  0.3621 -0.1557
46798W        W89851   1.575  17.968  23.891  0.1125  0.0674  0.3461
46799W        W89852  10.589  26.355   4.127  0.0834 -0.0060 -0.0460
46800W        W89853   8.576  24.835   8.072  0.2303  0.4249 -0.0882
46801W        W89854   2.218  26.829  23.664  0.0378 -0.0991  0.0475
46802W        W89855  15.778  20.235  25.241  0.1148  0.2460  0.2418
46803W        W89856  14.004  25.708  17.654  0.3166  0.1323 -0.1020
46804W        W89857  10.089  18.123  18.246  0.0662 -0.2849 -0.0916
46805W        W89858  23.120  27.454   6.983 -0.6245  0.0913  0.2894
46806W        W89859  29.255   4.212  20.635  0.1713 -0.0953 -0.0482
46807W        W89860  14.092  16.598  14.306  0.2543 -0.1279  0.4399
46808W        W89861  15.826  23.067  16.115  0.0165 -0.1479 -0.0254
46809W        W89862  16.938  11.585  27.449  0.1561  0.3813 -0.0552
46810W        W89863   5.215  32.605  25.958 -0.1275  0.3113  0.0988
46811W        W89864   9.206  17.785  20.161  0.1224 -0.0303 -0.4313
46812W        W89865  34.593  12.299   1.881  0.0534 -0.3281 -0.1692
46813W        W89866   7.735  25.296   1.719  0.1547  0.0118 -0.0649
46814W        W89867   2.193  25.422   8.838  0.0599  0.0924  0.0235
46815W        W89868   2.784   5.395  23.484 -0.0788 -0.1279 -0.1205
46816W        W89869  18.286  28.581   3.100  0.1790 -0.1347  0.0806
46817W        W89870  23.411  25.435  28.942  0.0244  0.4854  0.1697
46818W        W89871  12.780  23.415  21.522  0.1753  0.3259 -0.1972
46819W        W89872  12.595  21.074   8.038  0.1693 -0.0967  0.2330
46820W        W89873  20.432  20.372  18.248  0.4214  0.1008 -0.2019
46821W        W89874  28.662  29.463   5.539 -0.1218 -0.0782 -0.0899
46822W        W89875  33.912  23.813  22.287  0.5522 -0.1114 -0.1758
46823W        W89876  10.182  17.477   6.634 -0.1298  0.4175 -0.2447
46824W        W89877  14.064  23.225  27.565 -0.0039 -0.0519  0.1016
46825W        W89878  11.778  18.702  15.433  0.2791  0.1224 -0.1131
46826W        W89879  24.450  13.874  24.294  0.1849  0.1139  0.0144
46827W        W89880   6.448  28.820   3.611 -0.0539 -0.0400  0.2774
46828W        W89881  13.581  28.629  28.339  0.2938 -0.0710 -0.0852
46829W        W89882   6.439  20.034   3.082 -0.0261 -0.3172  0.1716
46830W        W89883  13.165  14.344  15.365 -0.0094 -0.0341 -0.1590
46831W        W89884  13.321  27.189  20.029 -0.1336 -0.0033  0.2498
46832W        W89885  31.411  17.982  21.455 -0.0695 -0.0500 -0.3189
46833W        W89886   2.680  31.365  19.840 -0.3547 -0.2656  0.2943
46834W        W89887   7.871  14.411  18.933  0.1099 -0.0337  0.0586
46835W        W89888  13.260  11.713  23.438 -0.4197  0.1803 -0.0958
46836W        W89889  11.334  17.325  14.800  0.1461 -0.0267  0.0439
46837W        W89890  24.444  16.357  20.973 -0.1902 -0.1341 -0.1261
46838W        W89891  14.936  22.594   0.298 -0.2396 -0.1441 -0.2532
46839W        W89892   6.177  33.394  18.397 -0.2980 -0.1616 -0.1486
46840W        W89893   3.492  33.051  19.017  0.1451  0.0772 -0.2117
46841W        W89894  23.206  23.567  21.213 -0.0737  0.3012  0.1984
46842W        W89895  17.532   2.643   2.498  0.0842 -0.0673 -0.3426
46843W        W89896  12.448   9.299  20.893 -0.0620 -0.0670 -0.3581
46844W        W89897  33.502  16.746  17.562  0.2160 -0.1773  0.0302
46845W        W89898   9.271  19.129  23.800  0.0547 -0.1871 -0.1009
46846W        W89899   7.286  10.703  26.509  0.2153 -0.0008  0.3808
46847W        W89900  12.892  24.836   8.752  0.3722 -0.1392  0.1910
46848W        W89901   3.347  13.172  15.715  0.0238 -0.0557  0.0109
46849W        W89902  16.324  29.653   7.002 -0.0312 -0.0347 -0.1413
46850W        W89903  12.247  28.926  22.642  0.2949  0.0274  0.0956
46851W        W89904  30.282  23.905  18.494  0.4926  0.2327  0.1997
46852W        W89905  18.628   8.155  28.731 -0.0369  0.0673 -0.1894
46853W        W89906   8.313  10.783  27.675 -0.0600  0.1130 -0.2920
46854W        W89907  11.943  34.412   1.546  0.2243  0.0148  0.3988
46855W        W89908  27.626  30.159  21.460 -0.2785  0.1131 -0.2548
46856W        W89909   9.142  23.187   9.865  0.0421  0.3374 -0.2136
46857W        W89910  22.623   3.685  23.515  0.0677 -0.0257  0.1491
46858W        W89911  11.302  14.463  17.430 -0.0123  0.1472  0.0672
46859W        W89912  12.480  15.554  22.317 -0.1158 -0.0523  0.0497
46860W        W89913  27.323  13.344  21.461 -0.3705 -0.2143 -0.3125
46861W        W89914   1.734  23.567  13.684  0.1720  0.0859  0.2531
46862W        W89915   7.474  10.970   9.122  0.1182  0.3955 -0.0036
46863W        W89916   0.391  23.390  16.219  0.0706 -0.1395 -0.2919
46864W        W89917  16.400  19.874  15.997 -0.0819 -0.3307  0.0132
46865W        W89918  33.651  18.514  14.892 -0.2265  0.0344  0.0182
46866W        W89919   1.613   3.812  23.056  0.1232 -0.1394  0.0341
46867W        W89920  17.157   1.225  18.706  0.1712  0.2211 -0.2415
46868W        W89921  34.445  19.783  27.626  0.1666  0.1315  0.2782
46869W        W89922   1.452  25.293  23.871  0.0727 -0.0909  0.1903
46870W        W89923  25.206  23.507  25.212  0.0481 -0.4392 -0.1098
46871W        W89924  34.111  12.481   1.829 -0.1096  0.0993  0.1043
46872W        W89925  11.765  30.586   7.893  0.2051 -0.0390 -0.2793
46873W        W89926   0.188  10.027   1.522 -0.0579 -0.2686  0.0753
46874W        W89927   1.092  19.859  19.431  0.2339  0.0719 -0.2543
46875W        W89928   0.043  27.136  19.716  0.0507 -0.2822 -0.1373
46876W        W89929   9.414  28.849   2.065 -0.3124 -0.4503  0.1434
46877W        W89930  14.209  12.192  16.070 -0.1176  0.1446  0.1598
46878W        W89931  32.623  32.719  27.457 -0.1821  0.1918  0.5095
46879W        W89932  33.777  27.869  22.393 -0.0478 -0.0511  0.0388
46880W        W89933   6.187   3.397  21.263  0.0373  0.0494 -0.3294
46881W        W89934  21.700  20.093  18.417 -0.2034  0.2931  0.0428
46882W        W89935  22.176  21.894  21.109  0.0150  0.2309  0.3349
46883W        W89936  10.777  18.563  15.417  0.1245  0.2327 -0.3125
46884W        W89937  17.975  32.819   9.080 -0.1197 -0.2905  0.1461
46885W        W89938  24.565   1.050   4.214 -0.1438 -0.2822 -0.3248
46886W        W89939  33.469   9.131  21.809  0.1081  0.0713 -0.1968
46887W        W89940  24.745  24.915   8.513  0.0730 -0.2373  0.0541
46888W        W89941   7.814  28.946  15.064  0.1516 -0.0678 -0.5144
46889W        W89942  17.364  23.145   5.700  0.0156  0.2622  0.2370
46890W        W89943  10.278  13.355  10.533  0.2929 -0.0471 -0.0893
46891W        W89944   9.864  11.571   6.286  0.1151 -0.2795 -0.0088
46892W        W89945   4.201   9.121   8.380 -0.0483  0.0003 -0.2618
46893W        W89946  14.904  11.523  19.824  0.1921 -0.2324 -0.1572
46894W        W89947   3.317  17.721   6.432  0.0179  0.0904  0.0944
46895W        W89948   5.523  16.802  15.343  0.2515 -0.1185 -0.0978
46896W        W89949   4.821  16.638   3.717  0.1536  0.0331 -0.0638
46897W        W89950  11.549  19.738  19.311  0.0109 -0.1248 -0.1092
46898W        W89951  10.844  12.873   7.089 -0.3105 -0.1831  0.2476
46899W        W89952   9.781  24.432   4.599  0.0296  0.2296 -0.0780
46900W        W89953  29.481   1.652   0.628 -0.1082  0.1014  0.1972
46901W        W89954   2.819  25.363  24.109 -0.0482  0.0536  0.0957
46902W        W89955   1.582  13.158   0.677  0.1609  0.2456  0.3086
46903W        W89956  12.095  26.422   6.825  0.2611 -0.0204 -0.2506
46904W        W89957  10.295  28.202  16.577  0.2030 -0.2835 -0.0404
46905W        W89958  11.364  10.181  18.856  0.0112 -0.0180  0.0250
46906W        W89959  27.142  20.246  17.311  0.0435  0.0114 -0.2030
46907W        W89960  33.699  24.606  15.713 -0.0603  0.0725  0.0092
46908W        W89961   7.723   8.685  17.001 -0.1324 -0.0083  0.0366
46909W        W89962  22.100  30.199  16.576  0.1148  0.0062  0.1597
46910W        W89963  13.566  27.059  27.905 -0.2046 -0.3834 -0.0462
46911W        W89964  10.070  16.035   6.612  0.0394 -0.2994  0.2205
46912W        W89965  14.209  13.541  14.736  0.0280 -0.1690  0.0486
46913W        W89966   8.737  16.510   6.965 -0.0833  0.2117  0.0670
46914W        W89967  11.416  21.004  14.072 -0.1043  0.1679  0.1772
46915W        W89968  34.318  24.054  14.633 -0.0541 -0.0597 -0.0827
46916W        W89969   4.131  31.171   1.611 -0.0865  0.0519 -0.4993
46917W        W89970   8.660  26.229   0.412  0.0069 -0.0654  0.1611
46918W        W89971  15.840  31.417  18.851  0.2995  0.2886 -0.2249
46919W        W89972  11.644  27.795  14.512  0.1812 -0.2265 -0.2585
46920W        W89973  17.313  24.383   2.138  0.0018  0.2413  0.1688
46921W        W89974  27.956  21.315   5.920 -0.0847  0.1658  0.2062
46922W        W89975   6.567   0.528  10.355  0.2355 -0.1771 -0.1997
46923W        W89976  15.453  24.345  20.942  0.0083 -0.0521 -0.0156
46924W        W89977  10.194  27.072  22.212 -0.0626 -0.2103  0.1231
46925W        W89978  11.339  18.313  16.812  0.1356  0.0399 -0.2940
46926W        W89979   8.966  11.835  20.117  0.3182 -0.2455 -0.2756
46927W        W89980  33.473  22.093   4.979 -0.1114  0.1817 -0.2590
46928W        W89981  12.555   4.150  20.667  0.1002 -0.0090  0.1081
46929W        W89982   1.406  16.655  23.703  0.1784 -0.3027  0.4939
46930W        W89983   9.407  31.337  18.798  0.0340  0.0137 -0.1220
46931W        W89984   2.632   8.764  26.605  0.3693  0.4299 -0.3421
46932W        W89985   6.834  22.262  13.059 -0.0245 -0.2298  0.0758
46933W        W89986   8.849  28.417  26.085 -0.1492 -0.0189 -0.0006
46934W        W89987  11.798  21.889   0.173 -0.1601  0.1399 -0.0891
46935W        W89988  33.117   3.571  18.861  0.1094 -0.0711  0.0500
46936W        W89989   6.977  10.643   1.180 -0.2187  0.2634 -0.0399
46937W        W89990  11.218  23.636  22.048  0.1592 -0.0359 -0.1884
46938W        W89991  15.385   7.293  26.444  0.1565  0.1525  0.0942
46939W        W89992   3.102  31.458  21.993  0.1168 -0.1568  0.0646
46940W        W89993  33.727  30.635   3.236 -0.1788 -0.1626 -0.2024
46941W        W89994   8.800  21.729  20.707 -0.0267  0.1252  0.1349
46942W        W89995  14.774  24.017  19.135 -0.0064  0.0030 -0.0298
46943W        W89996   1.554  14.250  20.250  0.1249  0.3210 -0.0406
46944W        W89997   9.785  17.703  21.453  0.1217 -0.0502  0.2740
46945W        W89998  21.256  24.991  28.038  0.3317 -0.1377  0.2152
46946W        W89999  17.474   3.503  27.683  0.0688 -0.3917 -0.0634
46947W        W90000  15.282   8.168   0.260  0.0715 -0.1184 -0.1539
46948W        W90001  12.407  14.201  18.653 -0.0570 -0.1560  0.2063
46949W        W90002  28.820  25.133  29.021 -0.0445  0.1480  0.0715
46950W        W90003  17.972  24.159  23.198 -0.0257 -0.0301 -0.1072
46951W        W90004  13.054   2.828  15.371 -0.0410  0.0171  0.0428
46952W        W90005   1.389  27.883  28.823  0.1534  0.0334  0.0869
46953W        W90006  12.539  27.523  26.107  0.2232  0.4996  0.2365
46954W        W90007  10.649   3.027  14.526  0.1835  0.1128  0.2522
46955W        W90008   4.242  32.412   1.385  0.1501  0.1514  0.1172
46956W        W90009   1.038   5.557  27.932 -0.1200  0.1529  0.0622
46957W        W90010   8.525  25.745   2.582  0.3586  0.1024 -0.2059
46958W        W90011  25.285  26.919  14.984  0.0864  0.0500  0.0204
46959W        W90012   5.044  17.601  13.546 -0.0780  0.0903  0.3193
46960W        W90013  33.804  17.276  18.936  0.0917 -0.0919  0.2188
46961W        W90014   4.697  26.721  25.881 -0.3028  0.0745 -0.1326
46962W        W90015  10.710   1.777   1.256 -0.2479  0.0456 -0.0402
46963W        W90016  33.825  30.844   7.191  0.2598 -0.0799  0.2383
46964W        W90017  18.641  11.602   1.771 -0.0331  0.3345  0.1195
46965W        W90018  15.817   7.461  23.853  0.0641  0.2039 -0.1146
46966W        W90019  12.563  28.523  17.353  0.0542  0.0127 -0.1082
46967W        W90020   9.398  25.169  28.873 -0.3754  0.0025  0.3106
46968W        W90021   3.385   7.493   2.159 -0.0000 -0.1101  0.0195
46969W        W90022   2.871  26.518  20.448  0.5289  0.0834 -0.3882
46970W        W90023   2.215  22.177  14.137 -0.0561  0.0698 -0.2470
46971W        W90024  11.908  18.017  25.905 -0.0982 -0.1472 -0.3032
46972W        W90025   5.764  18.255  27.854 -0.1676 -0.0885  0.3336
46973W        W90026   6.660  25.668  14.785  0.0910  0.3034 -0.0248
46974W        W90027   8.078  33.268  20.167  0.2877  0.3975 -0.0065
46975W        W90028   1.219  22.575  15.034 -0.0830  0.0598 -0.1418
46976W        W90029  20.595  18.913  22.242  0.0350  0.1388 -0.0390
46977W        W90030   8.373   4.772   2.601  0.0316 -0.2321  0.0385
46978W        W90031  30.312  12.801  20.584 -0.0445  0.2933 -0.3738
46979W        W90032  16.521   0.069   6.068  0.5627 -0.1074  0.4726
46980W        W90033  12.102  27.861   7.384  0.0596 -0.1672 -0.2513
46981W        W90034   3.920  32.651  16.245  0.1219  0.1026  0.1798
46982W        W90035  22.484   1.682  15.773 -0.2540 -0.0430 -0.0749
46983W        W90036   2.886  20.286   5.186 -0.2915 -0.0496 -0.0216
46984W        W90037   0.330  30.156  20.735  0.2358 -0.0101 -0.2492
46985W        W90038  18.576  14.358  14.211  0.2895  0.0976  0.2234
46986W        W90039  19.445  29.712  10.067 -0.0871 -0.0697  0.2226
46987W        W90040  11.941  19.354  18.400 -0.1892  0.1516 -0.0249
46988W        W90041   7.374  25.196  26.275  0.3392  0.1180  0.0365
46989W        W90042  12.681   6.304  25.085 -0.2430 -0.1142  0.0421
46990W        W90043   8.089  28.549   1.679 -0.0278 -0.0076 -0.2137
46991W        W90044  16.547  14.622   2.643 -0.1619 -0.0783  0.1328
46992W        W90045   4.891  26.494  26.337 -0.1312 -0.1359  0.2852
46993W        W90046  19.678  15.416  15.359  0.0948 -0.2151  0.3628
46994W        W90047  27.013  30.205  22.544  0.2545  0.0882 -0.1211
46995W        W90048   3.115   4.834  19.499 -0.1903 -0.2759 -0.2002
46996W        W90049  34.649  18.520  14.890 -0.3925 -0.1202 -0.2752
46997W        W90050  22.098  24.678  15.851  0.2273 -0.0009  0.0302
46998W        W90051   4.540  28.561  13.832 -0.2107  0.2719 -0.0246
46999W        W90052  19.517  18.434   6.953 -0.1194 -0.1071 -0.1734
47000W        W90053  32.479  21.614  17.132  0.2563 -0.2052 -0.4602
47001W        W90054  17.342   3.404  14.928  0.0126  0.3424  0.1604
47002W        W90055  12.171  30.925   4.875 -0.3129 -0.1165  0.4967
47003W        W90056  12.390  16.241  19.692  0.2149 -0.0103  0.2140
47004W        W90057   8.478  24.963   0.421 -0.1608 -0.0470 -0.0645
47005W        W90058   4.491   4.198  27.596 -0.1942 -0.2101 -0.2946
47006W        W90059  19.476   8.893  19.305  0.3840  0.0095 -0.1007
47007W        W90060  16.677  17.618   4.814  0.0125 -0.0784 -0.0330
47008W        W90061  30.090  19.108   1.079  0.2758 -0.0913  0.2433
47009W        W90062  24.894  27.123   6.730  0.0219 -0.0961  0.0706
47010W        W90063  12.813  18.399  24.107  0.0189  0.1326  0.0060
47011W        W90064  21.658  24.419  15.632  0.1882 -0.0983 -0.1588
47012W        W90065   9.082  23.045  24.042 -0.0080  0.0197 -0.2864
47013W        W90066  10.288  17.524  16.863 -0.0769  0.1493 -0.0381
47014W        W90067  18.093  15.144  28.084  0.0985  0.2815 -0.1108
47015W        W90068  29.563  19.998  22.366 -0.1508  0.2842  0.1006
47016W        W90069  15.393   1.276  27.656 -0.0717 -0.0507  0.1914
47017W        W90070  23.829  30.964  18.858  0.4062  0.0287  0.1758
47018W        W90071   9.933  15.550  22.764  0.0817  0.6222  0.1195
47019W        W90072   6.789   8.347  20.417  0.1510  0.2294 -0.0102
47020W        W90073  33.590  25.626   5.989  0.0959  0.2615 -0.3820
47021W        W90074  23.054  11.219  15.588  0.1613  0.1914  0.1600
47022W        W90075   7.842  30.148  13.942  0.1820  0.3343 -0.0488
47023W        W90076  10.340  25.406  14.656  0.1724 -0.3313 -0.1215
47024W        W90077  10.175  15.182   4.993 -0.0553  0.3129  0.0335
47025W        W90078  32.950  21.767  21.639 -0.0299 -0.2186 -0.0539
47026W        W90079  28.863  24.310   5.711 -0.1048 -0.2299 -0.1836
47027W        W90080  21.392  19.082   4.384  0.0645 -0.2408 -0.0447
47028W        W90081  22.107  33.209  27.419  0.0413 -0.0424  0.2319
47029W        W90082  19.011  28.312  13.976 -0.0021 -0.3784 -0.1571
47030W        W90083  13.440  23.427  25.103  0.0313  0.0287 -0.1898
47031W        W90084   8.146   8.960  23.508 -0.0335 -0.2681 -0.0414
47032W        W90085  23.892  25.633  28.455  0.0386 -0.0463  0.2477
47033W        W90086   4.983   3.452   1.206 -0.0250 -0.0062  0.4133
47034W        W90087   9.773  26.805  17.924 -0.1172  0.0858  0.1656
47035W        W90088  20.608  19.591  15.408 -0.1570 -0.2549  0.1901
47036W        W90089  19.024  25.214  25.764 -0.2632 -0.2060 -0.2856
47037W        W90090  10.588  15.777  25.760 -0.1690  0.1989 -0.2829
47038W        W90091   2.458   8.064   1.754 -0.1492  0.2155 -0.2471
47039W        W90092   8.048  19.267  15.077  0.0031 -0.2193  0.0132
47040W        W90093  13.239  34.070   2.916 -0.0681 -0.0393 -0.0857
47041W        W90094   4.895  16.670   9.437 -0.0105  0.0257  0.1850
47042W        W90095   6.622   5.332  10.169 -0.0200  0.0442  0.1209
47043W        W90096  20.841   3.576  25.647  0.0267 -0.3553  0.1054
47044W        W90097   2.584  20.308   2.067 -0.0202  0.1653  0.0962
47045W        W90098   5.369  29.372   3.008  0.2241 -0.1260  0.0357
47046W        W90099  12.499   2.244  24.137 -0.1190 -0.0832  0.2325
47047W        W90100  15.932  22.495   2.444  0.0301  0.1780 -0.0022
47048W        W90101   0.546  32.884  28.356  0.1774  0.2114  0.2290
47049W        W90102  30.699  20.109  17.079  0.0416 -0.0109  0.3025
47050W        W90103   6.212  24.977   3.490  0.1674  0.2118  0.1727
47051W        W90104   5.015  18.740  25.901 -0.2198 -0.0791 -0.1989
47052W        W90105  17.962  30.714  22.209 -0.0570 -0.3068  0.2953
47053W        W90106  11.029  20.639   0.580  0.0795  0.0451  0.0041
47054W        W90107  29.716   8.707  21.816 -0.1614  0.1796  0.1386
47055W        W90108   3.818   6.121  21.681 -0.0039  0.0112  0.0554
47056W        W90109  17.779  30.283  25.517  0.0329  0.0921 -0.0348
47057W        W90110  22.100  17.460   6.839 -0.3019  0.2579 -0.1284
47058W        W90111  13.647  30.690   0.160 -0.2127  0.1077  0.1925
47059W        W90112  14.927  18.313  24.459  0.4230 -0.0944 -0.3511
47060W        W90113  19.888  15.733   9.319 -0.0657 -0.1339  0.0181
47061W        W90114   3.918  29.150   9.645  0.2481  0.0052  0.0615
47062W        W90115  20.804  22.164  27.962  0.0741  0.0743  0.0663
47063W        W90116  13.861   8.621  27.687  0.1405  0.1653 -0.1444
47064W        W90117  34.630  27.193  23.334  0.0477 -0.2429  0.1337
47065W        W90118  20.091  30.511   3.330 -0.0148  0.0150  0.0267
47066W        W90119   5.726  13.842  21.494  0.0551 -0.0634  0.2713
47067W        W90120   5.622  25.146  16.406  0.1285  0.0727  0.0085
47068W        W90121  13.323  17.753  21.854 -0.1127 -0.1144 -0.0795
47069W        W90122  32.657  33.545   5.203  0.1741  0.2995 -0.3541
47070W        W90123  15.624  32.466  19.636 -0.0953 -0.2799 -0.0865
47071W        W90124  20.448  23.351  26.055 -0.0269 -0.2645 -0.2001
47072W        W90125   6.751  18.935   4.051 -0.1978  0.2079 -0.1195
47073W        W90126   9.736  15.629  25.427 -0.0891 -0.2031 -0.0734
47074W        W90127  13.594  27.376  18.083  0.3206  0.3133  0.0968
47075W        W90128   4.871  28.020   9.102  0.0661  0.0454  0.1526
47076W        W90129  19.266  12.459  17.328 -0.3277 -0.0169  0.0862
47077W        W90130  33.414  31.728  16.068  0.0931  0.0855  0.0288
47078W        W90131  21.682  25.302  19.223  0.0416 -0.0451 -0.1339
47079W        W90132  20.634  28.116  25.054  0.2053  0.3305 -0.3448
47080W        W90133   8.940   1.685  24.644  0.2070  0.0775 -0.0650
47081W        W90134   5.710  23.872   3.745 -0.0919  0.0161 -0.0971
47082W        W90135   5.952  25.775   9.174  0.3249  0.1649  0.1136
47083W        W90136  19.233  21.541   5.083  0.0626 -0.0631  0.1834
47084W        W90137  14.706   9.877  16.601 -0.2061 -0.3495 -0.2454
47085W        W90138  10.216  21.188   5.298 -0.1237 -0.4775  0.0331
47086W        W90139   5.439  28.089   0.642  0.0933  0.1929 -0.0008
47087W        W90140  12.525  25.396  25.246  0.0403 -0.2335 -0.1446
47088W        W90141  13.667  34.232  24.545  0.1263  0.1341 -0.4196
47089W        W90142   8.310  19.812  23.123 -0.0635 -0.0696 -0.1300
47090W        W90143  12.596  29.762   1.441 -0.0661 -0.0476  0.1208
47091W        W90144  14.898  31.284  23.582  0.1984 -0.3471  0.0208
47092W        W90145  17.781  26.396  19.583 -0.0117  0.2273  0.3002
47093W        W90146  13.488  22.592   8.080  0.0170 -0.1027  0.1079
47094W        W90147  34.544   2.731  22.335 -0.0213  0.1199  0.3803
47095W        W90148  12.222  16.475  24.064  0.1077  0.0003 -0.0287
47096W        W90149  12.256  24.176  24.749  0.1005  0.0602  0.2224
47097W        W90150   3.544   3.365   4.026  0.2189  0.1200 -0.0747
47098W        W90151  24.266  21.534  27.538 -0.1368 -0.3657  0.0100
47099W        W90152   9.662  30.981  28.489 -0.3050 -0.1670 -0.0138
47100W        W90153   3.948  16.691   7.791 -0.4093  0.5027  0.2101
47101W        W90154  12.111  18.973  24.021 -0.2968 -0.0963  0.1589
47102W        W90155  15.406  19.479   1.504  0.0406  0.1009 -0.1540
47103W        W90156  34.337  18.882  15.107 -0.3128 -0.1500  0.3046
47104W        W90157  19.353  23.116   8.154 -0.1198 -0.0808  0.0727
47105W        W90158  21.086   7.830  19.349  0.0948  0.0528 -0.3189
47106W        W90159  13.457  25.277   2.402 -0.2086  0.0354  0.4023
47107W        W90160  34.278  18.526  27.337  0.1933 -0.0791  0.2547
47108W        W90161  14.960  19.064  23.548  0.0603 -0.4552  0.0936
47109W        W90162   7.463  13.735   9.618  0.0413 -0.2680  0.1428
47110W        W90163   5.331  32.470  17.814  0.1878 -0.3276  0.0329
47111W        W90164  23.874  33.237  27.127  0.0917  0.1652  0.0735
47112W        W90165  27.069  24.574  14.799  0.1693  0.1107 -0.3810
47113W        W90166  30.627  26.292   1.045  0.0438 -0.0619  0.0082
47114W        W90167  21.710  23.617  17.250  0.2727  0.1652  0.1176
47115W        W90168  22.150  22.398  25.931 -0.1934  0.1384  0.1121
47116W        W90169  14.207  27.978   3.140  0.1846 -0.4113 -0.0210
47117W        W90170   7.679  20.159   2.137 -0.2545  0.1705 -0.2473
47118W        W90171  33.571  31.250   5.674 -0.0299  0.0971  0.0479
47119W        W90172  25.961  31.161  25.972  0.1590  0.0320 -0.2689
47120W        W90173  11.994  18.462  27.758  0.0767 -0.2859 -0.3933
47121W        W90174  27.324  29.953  23.558 -0.0800  0.2445  0.0257
47122W        W90175  24.274  15.663  20.269 -0.2424  0.0462 -0.3551
47123W        W90176  31.501  23.854  22.880 -0.1554  0.2755  0.3487
47124W        W90177  28.306  25.146  16.687 -0.1481  0.0363  0.2265
47125W        W90178   2.576  27.025  24.200 -0.1421 -0.1892 -0.0816
47126W        W90179   8.863  19.545  16.769 -0.0254 -0.0234  0.2465
47127W        W90180   2.106  23.328  26.573 -0.1628 -0.0827 -0.2652
47128W        W90181   2.749  25.358  17.722  0.0650 -0.3979  0.0079
47129W        W90182  33.119  21.216  27.804  0.0949 -0.0551  0.1756
47130W        W90183  26.965  19.090   4.107 -0.1214 -0.1702 -0.3242
47131W        W90184   4.488  15.783   9.210 -0.1150 -0.0272 -0.1526
47132W        W90185  29.322   5.668  25.727 -0.0841  0.0486 -0.1311
47133W        W90186  32.860  11.848  24.358 -0.0313 -0.2097  0.0251
47134W        W90187   2.573  28.193  19.483 -0.0533 -0.3529  0.0578
47135W        W90188  14.571  29.190  20.658  0.4430 -0.2542  0.1585
47136W        W90189  23.411  27.305  20.275  0.0349  0.2520 -0.0126
47137W        W90190   9.535   6.143   5.010 -0.0354  0.0729  0.1617
47138W        W90191   6.789  25.951  26.488 -0.0583  0.0633  0.5222
47139W        W90192  14.001  26.089   0.035  0.1590 -0.1407 -0.0122
47140W        W90193   8.565  24.156  20.730  0.0560  0.1335 -0.0827
47141W        W90194   3.244  29.840   4.068  0.1049  0.0728 -0.0690
47142W        W90195  16.149  21.791   4.323 -0.2176 -0.0282  0.0096
47143W        W90196   3.367  19.045   7.972 -0.1341 -0.5944 -0.0255
47144W        W90197  14.410  24.650  20.143  0.0548 -0.0477  0.1196
47145W        W90198   6.194  23.617  26.605 -0.3070  0.4645  0.3744
47146W        W90199   7.930   6.851   7.401  0.0293 -0.0528  0.1596
47147W        W90200   0.790  23.759   3.524 -0.0276  0.0746 -0.2257
47148W        W90201  11.011   7.880   9.110 -0.0408 -0.1367  0.2710
47149W        W90202   5.132  12.349  16.341  0.2067 -0.2813  0.2097
47150W        W90203   1.613  14.193   6.890  0.3658  0.0875 -0.1410
47151W        W90204  18.759  25.237  27.331 -0.2587  0.0493 -0.2355
47152W        W90205  21.615  27.014   4.976  0.0077  0.0383  0.1179
47153W        W90206  20.936  21.928   8.310 -0.0487 -0.0149 -0.1061
47154W        W90207   2.970  15.390  25.033  0.0490 -0.1204  0.2257
47155W        W90208   3.595  32.852   0.113 -0.2011  0.3275 -0.0594
47156W        W90209   2.916  28.718   2.236  0.0199  0.0607  0.0017
47157W        W90210   9.103  14.958  18.139  0.1667  0.0659 -0.1675
47158W        W90211   3.779  22.987  17.300 -0.1944  0.1244  0.0336
47159W        W90212   9.165  21.144  25.469 -0.0732 -0.0615  0.1147
47160W        W90213  20.041  16.356  29.005  0.0337 -0.3049 -0.0601
47161W        W90214   4.285  26.858  25.651 -0.3484  0.2708  0.0419
47162W        W90215  18.209   4.072  20.299  0.1185  0.2160 -0.0899
47163W        W90216  11.881  20.881  28.382 -0.3211  0.1924  0.1132
47164W        W90217   7.212  27.960  24.779 -0.1471  0.0265  0.1058
47165W        W90218  29.835  33.910   1.735  0.1527 -0.4200 -0.2216
47166W        W90219   9.060  20.300  28.840  0.1932  0.0105  0.0545
47167W        W90220   7.538  17.038   7.175 -0.1562  0.0334  0.2150
47168W        W90221   5.846  27.767  21.255 -0.1219 -0.0496  0.3296
47169W        W90222   4.878   1.258  20.162  0.1628 -0.1781  0.1102
47170W        W90223  15.045  24.836  28.939  0.1141 -0.0109 -0.1531
47171W        W90224   7.570  23.139   7.581  0.1728  0.1441  0.0618
47172W        W90225   7.188  27.541  24.455 -0.0930  0.0373 -0.4066
47173W        W90226   2.590   0.949  25.052 -0.0209 -0.0078  0.0113
47174W        W90227  17.804  29.193   0.146 -0.0640  0.0726  0.1496
47175W        W90228  24.454  24.583   1.648  0.0169  0.1035 -0.2479
47176W        W90229   4.455  22.830  23.760 -0.0996 -0.2038  0.1497
47177W        W90230  14.688  19.827  20.708 -0.0240  0.0967 -0.0681
47178W        W90231  13.584   1.147   6.677  0.1313  0.0770 -0.1890
47179W        W90232  33.085   5.664  24.588 -0.0592  0.0858 -0.0800
47180W        W90233   2.427  29.684  16.666 -0.0858  0.1640 -0.1795
47181W        W90234   5.287  28.770  18.005  0.1957  0.2661 -0.1786
47182W        W90235   8.649  20.195  16.119 -0.0626  0.0678  0.0855
47183W        W90236  25.707  22.406   1.198 -0.1890  0.0363 -0.0492
47184W        W90237   7.203  22.390  28.045  0.0506  0.0711  0.0024
47185W        W90238  11.800  17.712   1.882  0.3496  0.0550 -0.6622
47186W        W90239  11.760  31.297  10.479 -0.1219  0.0415  0.2995
47187W        W90240  27.489  34.301  24.988  0.2806 -0.2149  0.1551
47188W        W90241   1.175  21.399  23.810  0.2385 -0.1846 -0.0040
47189W        W90242  11.582  23.280  29.070 -0.6089  0.1940  0.0084
47190W        W90243   9.558  17.449  22.246 -0.0035 -0.2567 -0.2039
47191W        W90244  11.305  12.793   1.709 -0.2802 -0.5576 -0.1947
47192W        W90245  25.821  29.942  23.156 -0.2373 -0.2384 -0.2058
47193W        W90246  29.628  20.819   9.040  0.0168  0.3898 -0.0009
47194W        W90247  30.750  20.376   3.643  0.2507 -0.1935  0.2478
47195W        W90248  10.634  26.031  14.787  0.2768 -0.0344  0.2391
47196W        W90249  10.265  25.247   5.215  0.0631 -0.2020  0.2129
47197W        W90250   7.193  18.696  28.867 -0.0361 -0.0536 -0.1502
47198W        W90251   7.826  14.594  17.954 -0.4739 -0.2464  0.0770
47199W        W90252  11.812  14.229   3.403 -0.4632 -0.0769  0.0367
47200W        W90253   4.184  18.911  22.759  0.0952  0.2691  0.2212
47201W        W90254  13.143  27.550  18.371 -0.4266 -0.0033  0.1707
47202W        W90255   2.969   9.515   3.598  0.1377  0.0935  0.0772
47203W        W90256   8.407  13.449  22.245  0.0614 -0.2479 -0.4380
47204W        W90257  32.201  24.261  17.868  0.0145 -0.1449 -0.1569
47205W        W90258  25.948   8.992  23.417  0.3712  0.0571  0.3066
47206W        W90259  13.043  13.885  20.641  0.0730 -0.1293  0.0591
47207W        W90260   9.425   3.323  16.263  0.0245 -0.0814 -0.0791
47208W        W90261  34.125  27.095  19.585 -0.3500 -0.0044 -0.0040
47209W        W90262  11.999  19.447  21.163 -0.0884 -0.2226 -0.1384
47210W        W90263  31.652   1.812  25.442  0.1705 -0.2101  0.1067
47211W        W90264  10.800  23.494  20.587  0.1271 -0.2500  0.1415
47212W        W90265  25.427   4.726   9.216 -0.0464  0.0621  0.2443
47213W        W90266  24.990  15.561   0.227  0.3521  0.3472 -0.2099
47214W        W90267  17.855  25.761  24.779  0.0187 -0.2876  0.2987
47215W        W90268  32.664  15.124  25.668  0.0688 -0.1342  0.3223
47216W        W90269  18.238  27.481   1.851 -0.1109  0.2802  0.0021
47217W        W90270  23.512  33.762  26.799  0.0113 -0.0602 -0.1741
47218W        W90271   5.558   3.354  21.172 -0.2868 -0.0989 -0.1968
47219W        W90272   9.207   3.705  27.356 -0.0377  0.1555  0.2487
47220W        W90273  31.304  18.146  19.059 -0.3647 -0.0035  0.0238
47221W        W90274  17.846  22.648  28.937  0.1004 -0.1999 -0.1161
47222W        W90275  12.254  17.846  22.213  0.0637 -0.3401 -0.0267
47223W        W90276  11.139  11.049   2.975 -0.4049 -0.0198 -0.0991
47224W        W90277   9.935  11.582  18.160 -0.3372 -0.2308 -0.0509
47225W        W90278  26.713   2.678  16.537  0.0565  0.4497  0.3161
47226W        W90279  10.087  19.610   0.332 -0.3363  0.0793 -0.0564
47227W        W90280   4.706  28.067   9.965 -0.1749 -0.1860 -0.1490
47228W        W90281   7.443  13.608   1.150 -0.1199 -0.0718 -0.0877
47229W        W90282  10.301   0.710  25.570 -0.3948 -0.1644  0.2176
47230W        W90283   5.248  13.868   3.125  0.1216 -0.1689 -0.2210
47231W        W90284   4.101  22.205  15.529 -0.0132  0.2123  0.1072
47232W        W90285   1.016  17.854   8.258 -0.2538 -0.1347  0.1445
47233W        W90286  13.906  21.002  20.706  0.0509  0.1360 -0.1966
47234W        W90287   4.064  25.507  14.662 -0.4293  0.3333  0.0376
47235W        W90288   7.551   6.464   0.759  0.2403 -0.0375  0.3133
47236W        W90289  16.247  23.729   2.603 -0.3286 -0.1908 -0.1052
47237W        W90290   8.416  28.703   6.453  0.2310 -0.2876 -0.1918
47238W        W90291  28.995  11.440  18.883 -0.3440  0.1333 -0.1463
47239W        W90292   9.110   4.105   7.855 -0.0472  0.0578  0.3457
47240W        W90293  12.017   6.871   0.591  0.0267 -0.1072 -0.0146
47241W        W90294   9.379  25.579   0.897 -0.1239  0.2936  0.2616
47242W        W90295   4.491   1.195  23.247  0.0609  0.1308  0.0470
47243W        W90296  22.791  32.958  22.974  0.1447  0.1563 -0.2630
47244W        W90297  28.944   3.123   7.873  0.0010 -0.0739 -0.1188
47245W        W90298   7.372  32.508   1.222  0.0215 -0.0684  0.1134
47246W        W90299   9.682  30.401  23.287  0.0162  0.0169 -0.3563
47247W        W90300  17.483  19.272  24.387 -0.0521  0.1955  0.2810
47248W        W90301  16.659   6.814  19.478 -0.1672  0.1573 -0.2436
47249W        W90302  30.601  31.473   6.798  0.2132 -0.2183  0.0458
47250W        W90303  25.816  21.638  22.229  0.1492 -0.2544 -0.0020
47251W        W90304   3.603  21.765   1.405 -0.4852  0.3255  0.3514
47252W        W90305   8.297   7.815  21.003  0.4040 -0.1004  0.1793
47253W        W90306  13.746  22.963   6.253 -0.1200  0.0877 -0.3351
47254W        W90307  23.759  22.739   9.064  0.1912 -0.0618  0.3415
47255W        W90308  34.059  29.100   2.530 -0.0664  0.0267  0.0495
47256W        W90309   1.993   3.276  25.455 -0.1219 -0.0140  0.1245
47257W        W90310   2.944  24.813  26.317  0.3404 -0.2181  0.0541
47258W        W90311   2.715  15.394  18.654  0.0693  0.1670  0.2948
47259W        W90312  33.832  30.561   9.803  0.3459  0.0065 -0.0700
47260W        W90313  16.666  24.303  26.282  0.0508  0.2612  0.0558
47261W        W90314  18.368  16.807   6.857  0.0741 -0.0443  0.3274
47262W        W90315  16.815  12.867  22.598  0.2805 -0.3463 -0.2653
47263W        W90316   6.273  27.137  22.593 -0.0257 -0.2988  0.1370
47264W        W90317  33.450  23.694   4.582 -0.1720 -0.3807 -0.0886
47265W        W90318   9.157   3.351   3.726  0.1483 -0.0029  0.3377
47266W        W90319  15.059  30.586  25.501 -0.0615 -0.0320  0.2301
47267W        W90320  27.287   2.278   6.898  0.2198  0.0661  0.1970
47268W        W90321  14.097  33.305   2.218  0.3019 -0.0577  0.1890
47269W        W90322  30.942  28.830  13.134 -0.0075  0.2485  0.1954
47270W        W90323  20.611  30.626  28.738 -0.2704 -0.3993  0.1304
47271W        W90324   3.839   3.661  26.105  0.2490  0.4248  0.0438
47272W        W90325  23.530  19.104  26.018 -0.0724 -0.1491  0.0147
47273W        W90326  16.046   5.733  18.077  0.0304 -0.0512 -0.0110
47274W        W90327   7.924  27.956   7.011 -0.0536 -0.0668  0.0246
47275W        W90328   9.837  11.200  26.487  0.1868 -0.2208 -0.1865
47276W        W90329   6.501  11.141  21.343 -0.0501 -0.0962 -0.0576
47277W        W90330   3.449  16.925  15.679  0.1099  0.0798 -0.1083
47278W        W90331   8.097  24.853   5.174 -0.0302 -0.3430  0.0256
47279W        W90332  30.514  26.727  19.055  0.1024  0.1017 -0.3734
47280W        W90333  16.604  27.457  17.719  0.3097  0.1715  0.1237
47281W        W90334  11.966  12.472  10.592  0.0953  0.0038 -0.0762
47282W        W90335  15.679   5.916  23.867 -0.1009 -0.3867 -0.2418
47283W        W90336  14.873  19.785  21.449  0.1480  0.0640  0.1492
47284W        W90337  13.690   4.183   6.473 -0.1653 -0.5981 -0.2258
47285W        W90338  15.061  22.797   1.584  0.2448  0.1889 -0.0260
47286W        W90339  32.768  23.737   0.735 -0.3344  0.2026  0.0661
47287W        W90340  32.949  21.235   6.079 -0.0596 -0.0078  0.4972
47288W        W90341  14.454  10.782  27.280 -0.0182 -0.1477  0.0377
47289W        W90342   9.135   9.490  24.661  0.2384 -0.2935  0.0383
47290W        W90343  31.372  20.806  22.272 -0.0332  0.0554  0.0977
47291W        W90344  22.756  15.237   4.931 -0.1280 -0.0461  0.1140
47292W        W90345  15.539  31.689   0.213  0.0226  0.3253 -0.1756
47293W        W90346  11.065  20.122  14.755 -0.0640 -0.0032  0.2562
47294W        W90347  20.097  26.875  10.575 -0.2360 -0.1244  0.2070
47295W        W90348   0.534  12.172  22.408 -0.0508  0.1506 -0.1703
47296W        W90349  10.593  21.430   4.815 -0.0417  0.0428 -0.1194
47297W        W90350   6.322  21.959  15.414 -0.0964  0.0438 -0.1103
47298W        W90351  22.592   5.380  21.321 -0.1907  0.0300 -0.1368
47299W        W90352  32.448  30.147  23.157 -0.0726 -0.1511  0.0242
47300W        W90353  33.721  12.640  19.573 -0.0135  0.3572 -0.0545
47301W        W90354   0.719  21.412  17.971 -0.0926  0.2028 -0.1062
47302W        W90355  33.866   0.688  17.308  0.0110  0.1537 -0.1468
47303W        W90356   3.462  30.022   2.572  0.1354 -0.3733 -0.2020
47304W        W90357   4.491  29.813  26.284 -0.2190  0.0744 -0.1563
47305W        W90358   4.918   1.003  23.551 -0.0919 -0.1779  0.2226
47306W        W90359  13.715   0.215   0.776  0.1104 -0.0475 -0.0170
47307W        W90360   3.957   8.845   5.837 -0.0232  0.1457 -0.1041
47308W        W90361   5.268  14.970  26.355  0.2354  0.1805 -0.0182
47309W        W90362   1.906  16.727  23.627  0.0575  0.0827 -0.3438
47310W        W90363  31.680  15.950   2.396  0.0755  0.0499 -0.3352
47311W        W90364  30.561   6.439  20.661 -0.0335 -0.0812 -0.0571
47312W        W90365  17.230  23.405  23.402 -0.0817  0.3321 -0.0357
47313W        W90366   8.110  23.809   2.037 -0.1283 -0.0792 -0.1058
47314W        W90367   4.829  16.320   0.885 -0.3259  0.0691 -0.3372
47315W        W90368  19.610  33.684  19.010 -0.1047  0.3396 -0.3467
47316W        W90369  21.557   2.443   4.829 -0.2456  0.1406 -0.2090
47317W        W90370  22.961   7.537   5.788  0.1502  0.3722 -0.0656
47318W        W90371  13.183  32.000  26.904 -0.1149  0.0768  0.3005
47319W        W90372  19.676  20.999   2.527 -0.3748  0.1249 -0.1887
47320W        W90373  17.529  19.249   8.249  0.0203 -0.3026 -0.0686
47321W        W90374  23.625  13.204   4.181  0.0236 -0.2381 -0.0327
47322W        W90375  13.073  14.902  22.701  0.1045  0.4181 -0.1923
47323W        W90376   8.861  19.790  27.814  0.1818 -0.3635  0.1507
47324W        W90377   5.894  11.098  17.744 -0.1028 -0.0022  0.0989
47325W        W90378  20.947  16.526   7.025  0.0386  0.2913  0.4647
47326W        W90379  24.308  21.504   1.100  0.0534  0.2796 -0.1633
47327W        W90380   2.388  34.343   8.265  0.1499 -0.2126  0.0403
47328W        W90381   7.574  15.504   2.709 -0.2438  0.0475 -0.1312
47329W        W90382   7.861  27.720  13.553  0.0081  0.1565  0.1542
47330W        W90383   0.781  31.958   4.060 -0.1548  0.2471  0.2314
47331W        W90384  21.704  21.386   1.831  0.1835 -0.1114 -0.1850
47332W        W90385  18.916   3.832  28.142  0.2030  0.2990 -0.0936
47333W        W90386   4.200  22.302   4.861  0.3107  0.0566 -0.1771
47334W        W90387  29.817   3.233  24.617 -0.0883 -0.4581 -0.1491
47335W        W90388   5.378  23.715  18.032  0.1718  0.1621 -0.1254
47336W        W90389   9.460   1.942   1.878 -0.0059  0.2487  0.2708
47337W        W90390   9.187  14.891   3.666  0.1180  0.0890  0.2750
47338W        W90391  24.604  19.102   4.733  0.1517 -0.0313  0.1195
47339W        W90392  31.868  29.961  17.502 -0.3740  0.2048  0.0287
47340W        W90393   2.985  24.499  22.833 -0.2275  0.0176 -0.0070
47341W        W90394  12.676  32.691  17.244  0.2073 -0.0417 -0.1289
47342W        W90395  19.230  31.344   1.251 -0.1144  0.4394  0.0308
47343W        W90396   5.698  11.254  28.854  0.1942 -0.1212  0.0658
47344W        W90397   8.389  23.648  22.234 -0.1466  0.0012  0.0742
47345W        W90398   3.637  17.429  15.650  0.0902  0.0817  0.0424
47346W        W90399  15.345  15.119  15.747  0.0433 -0.1502 -0.1761
47347W        W90400  28.430  15.153   3.995  0.2536 -0.0563  0.3610
47348W        W90401  16.345  33.977  19.424  0.1680 -0.1391  0.0532
47349W        W90402  10.080  26.050  23.080 -0.1013 -0.3486 -0.2427
47350W        W90403  21.947  19.543  25.666 -0.0021  0.0818  0.0121
47351W        W90404  18.839   3.400  21.642 -0.0039 -0.2203 -0.1362
47352W        W90405  12.037  28.115   5.438  0.0409 -0.1707  0.0507
47353W        W90406   9.418  20.328  17.049 -0.2038  0.2634 -0.1130
47354W        W90407  33.745  31.242   2.072 -0.0236 -0.0376  0.1481
47355W        W90408  15.748  29.606  16.985  0.0738 -0.0585 -0.1956
47356W        W90409  33.193  15.214   2.043 -0.0277  0.1326  0.0968
47357W        W90410   5.505  20.015   9.957 -0.0411  0.1568  0.1336
47358W        W90411  16.090   8.974  19.182  0.1676  0.5839  0.3524
47359W        W90412  31.001   5.129  20.826 -0.0117  0.1223  0.1811
47360W        W90413   6.532  27.616   8.541 -0.0328 -0.2844  0.0461
47361W        W90414   5.425   0.415   7.160 -0.0050 -0.3154  0.1997
47362W        W90415  12.633   6.313  27.555  0.0397  0.0842  0.0464
47363W        W90416   1.626  16.994  16.654  0.1384  0.0533 -0.0336
47364W        W90417  14.531  17.958  14.238  0.1692 -0.1275  0.1966
47365W        W90418   5.002  31.040  23.109 -0.0605 -0.0029 -0.1678
47366W        W90419  14.499  18.818  26.531 -0.0180  0.3314 -0.4023
47367W        W90420   6.630  15.641  21.378  0.3859 -0.1443 -0.0532
47368W        W90421  16.674   9.764   4.175  0.0155 -0.3332 -0.0896
47369W        W90422   7.673  24.224  14.050 -0.0398  0.2523  0.0243
47370W        W90423   5.737  14.982  14.376 -0.1215 -0.1898 -0.2185
47371W        W90424   5.702  19.827   3.919 -0.1758  0.3465  0.0815
47372W        W90425  19.207   3.975  17.540  0.1277 -0.1425  0.0521
47373W        W90426   5.237  28.177   3.157  0.0682  0.1765  0.0627
47374W        W90427  33.684   9.149   5.304  0.0590  0.0607 -0.1418
47375W        W90428  12.416  17.099  16.661 -0.0577 -0.0165 -0.2653
47376W        W90429  16.019   0.559  15.749 -0.2715 -0.2578  0.0029
47377W        W90430   7.842   4.696  27.697 -0.1889 -0.0991  0.1717
47378W        W90431   1.897  31.116  24.906  0.0976  0.2251  0.0184
47379W        W90432   2.881  18.940  22.950 -0.2280 -0.1362 -0.3695
47380W        W90433   1.972  31.356  21.928 -0.1934  0.0881 -0.0023
47381W        W90434  10.062  16.533  24.928  0.1140 -0.0233  0.0976
47382W        W90435  16.119  33.856  23.184  0.0088  0.1744  0.0191
47383W        W90436   0.294  27.975  28.108  0.1536  0.1181  0.0748
47384W        W90437   6.228  22.447  20.766  0.4912  0.0129 -0.2469
47385W        W90438  17.497  21.881   0.309 -0.1065 -0.2919 -0.2643
47386W        W90439  31.798  24.704  22.113  0.1036 -0.1401 -0.2202
47387W        W90440  33.304  29.467  20.968 -0.2704  0.1967 -0.2397
47388W        W90441   4.937  10.007  19.086  0.1112 -0.0752  0.0810
47389W        W90442  25.308  24.914   3.383 -0.2348 -0.2659 -0.1031
47390W        W90443  13.165  23.196  24.727 -0.4875  0.2563 -0.2021
47391W        W90444   1.899  34.687  17.868 -0.0433  0.1453  0.2208
47392W        W90445  17.929  30.723  22.841  0.2399 -0.0986  0.0869
47393W        W90446   9.920  30.271   0.494  0.2861 -0.0376 -0.0154
47394W        W90447   6.504  16.265  18.509 -0.1350 -0.0413  0.4255
47395W        W90448  13.086  26.821   6.429 -0.4779 -0.0544 -0.1846
47396W        W90449  26.816  25.668  17.501 -0.1309  0.4822 -0.2122
47397W        W90450  27.685   9.961   3.426  0.2178  0.1023  0.1953
47398W        W90451  19.844  24.486   7.119  0.0354 -0.2068  0.1079
47399W        W90452   7.579  32.564  20.488 -0.3852 -0.0960 -0.3560
47400W        W90453  14.096  30.272  16.503  0.0282  0.0238  0.3010
47401W        W90454   1.891  31.532  17.351 -0.1425  0.0548  0.2787
47402W        W90455  16.503  15.638  27.425 -0.3978  0.2511 -0.0091
47403W        W90456  19.954  25.734  25.734  0.2545 -0.2165 -0.3204
47404W        W90457  11.014  16.323  24.915 -0.0423  0.0546  0.0600
47405W        W90458  13.290  29.683   2.012  0.1380  0.0756 -0.0184
47406W        W90459   2.002   2.618  21.689 -0.2797 -0.1051  0.0067
47407W        W90460  22.654  13.010  16.202 -0.2313 -0.4143 -0.2078
47408W        W90461  18.659  16.011   2.793 -0.1285  0.0303  0.1280
47409W        W90462  10.978  32.662  21.594  0.0898 -0.2415 -0.2015
47410W        W90463   0.874  24.840   1.659 -0.0428 -0.1960 -0.0917
47411W        W90464  19.075  11.384  28.349 -0.1369  0.1089  0.0832
47412W        W90465  15.172  14.295  21.847 -0.1394 -0.2099 -0.0121
47413W        W90466  28.809  19.796   7.872  0.3637 -0.3483  0.2260
47414W        W90467  25.738  32.538   3.752  0.0778 -0.1895 -0.0213
47415W        W90468   1.218  12.431   6.261 -0.2892  0.2042 -0.3035
47416W        W90469  27.273   1.210  21.202 -0.1283 -0.1566 -0.0019
47417W        W90470   9.449  24.363   3.624 -0.1725  0.1172  0.2299
47418W        W90471  30.628  15.964  21.409 -0.0874 -0.2340 -0.1264
47419W        W90472   7.604  33.548  27.453 -0.3268 -0.0358 -0.1418
47420W        W90473  34.069  19.269  26.390 -0.2337  0.0401 -0.2934
47421W        W90474  10.709   9.914  23.659 -0.2252 -0.5165 -0.1112
47422W        W90475   2.446  25.043  21.249 -0.3395  0.0485  0.5537
47423W        W90476  28.723  28.324  21.026 -0.0869 -0.2386 -0.3028
47424W        W90477   2.299  17.522  16.242  0.1553 -0.0121  0.1888
47425W        W90478   0.160   2.309   1.558  0.2095 -0.0205 -0.1192
47426W        W90479  16.205  22.437  17.183  0.1371 -0.0432 -0.1918
47427W        W90480   5.189  19.989  24.662 -0.0949  0.0839 -0.3241
47428W        W90481   8.154  20.819   3.974 -0.0803 -0.1647  0.2520
47429W        W90482   5.539  19.165   5.008  0.0710  0.0303  0.2321
47430W        W90483  32.275  29.725  18.933  0.1071  0.2771 -0.1883
47431W        W90484  24.567  27.834  14.516  0.3519  0.2423  0.0453
47432W        W90485   0.589   0.958  21.270 -0.1105  0.2439  0.1201
47433W        W90486  25.482  13.134  22.981 -0.0481  0.1538  0.0504
47434W        W90487   8.250  21.391   9.366  0.0318 -0.2064 -0.1180
47435W        W90488   8.010  17.481   3.830  0.0250  0.1595  0.0397
47436W        W90489  26.294  29.993   7.127 -0.1110 -0.1165 -0.0181
47437W        W90490  18.244   1.628   9.043 -0.1630  0.0696  0.2861
47438W        W90491  20.459  13.180   5.903 -0.0385  0.1955 -0.0611
47439W        W90492  12.107  27.593  18.477 -0.1949 -0.1600  0.0067
47440W        W90493  10.365  21.747  25.255 -0.2583 -0.0894  0.0577
47441W        W90494  12.544  22.070   7.064 -0.0390  0.0275 -0.0297
47442W        W90495  15.028  20.233  14.203 -0.2006  0.0296 -0.2110
47443W        W90496  32.262  25.739   5.044 -0.0650  0.0811  0.0273
47444W        W90497   3.641  11.271   8.112  0.3273 -0.2285 -0.2351
47445W        W90498  30.578  31.997  26.514  0.1966 -0.1236 -0.0241
47446W        W90499  27.625  21.362   4.069 -0.1597 -0.1684  0.1929
47447W        W90500   4.464   4.232   1.308  0.1243  0.1021 -0.1483
47448W        W90501  31.039   5.061   7.284  0.0343  0.2353 -0.0034
47449W        W90502   0.494  24.403  23.868 -0.2535 -0.4132 -0.0149
47450W        W90503  30.893  11.007  27.499  0.0181 -0.1261  0.0491
47451W        W90504   3.550  24.758  26.301 -0.1132  0.0112  0.1557
47452W        W90505  34.530  31.020  21.813  0.0566  0.0149  0.2394
47453W        W90506  13.626  29.959  25.196 -0.0589 -0.1577  0.4291
47454W        W90507  15.088  26.292  24.414 -0.0086 -0.0343 -0.0911
47455W        W90508   6.283  25.649  27.325 -0.0833  0.1809 -0.0426
47456W        W90509  12.774  28.901  23.502 -0.2072  0.3912  0.3448
47457W        W90510   9.145  30.192  26.412  0.0312 -0.0619  0.3133
47458W        W90511   3.740  26.750  16.270  0.0992 -0.0754 -0.1811
47459W        W90512  15.491  33.337  16.420  0.1123  0.2910 -0.1943
47460W        W90513  15.530   3.909  23.948 -0.2383 -0.2667 -0.1006
47461W        W90514  16.094  25.979  18.979  0.2899 -0.1461  0.2758
47462W        W90515   0.635  34.012  13.693 -0.2439 -0.1942  0.0972
47463W        W90516  12.818   0.580   0.518  0.0536 -0.1893  0.0968
47464W        W90517  11.557  32.275  29.025 -0.1060  0.0992 -0.2468
47465W        W90518   3.758  32.826  20.999  0.0160  0.1778  0.0096
47466W        W90519  14.716  20.384  23.511  0.1152  0.1430  0.2437
47467W        W90520  11.292  32.027  14.775  0.0451  0.1184 -0.1742
47468W        W90521  16.793  26.842  22.033  0.0665 -0.1072  0.1172
47469W        W90522  14.905   0.704  27.893 -0.0478 -0.3761  0.0927
47470W        W90523   3.598   4.771  24.317 -0.1170 -0.2092 -0.2577
47471W        W90524  34.516  10.855   3.917 -0.0112 -0.1361 -0.1158
47472W        W90525  28.024  31.106  14.777  0.0932  0.1651  0.2036
47473W        W90526   8.371  18.507  13.582  0.4694 -0.2515 -0.3939
47474W        W90527   1.761   9.980  19.256  0.3296 -0.4845 -0.0028
47475W        W90528  17.186  21.763  23.195 -0.3547 -0.0155 -0.4206
47476W        W90529  17.736   0.755  20.833 -0.0750  0.0966  0.2521
47477W        W90530  11.600  29.329  16.739 -0.0347  0.0065 -0.1011
47478W        W90531   8.492   3.578   8.177  0.1669  0.0656 -0.0448
47479W        W90532   4.185  21.641   0.699 -0.0050  0.2908  0.2723
47480W        W90533   6.953  15.775  19.327  0.3098  0.1906 -0.1074
47481W        W90534  23.398  26.378   6.405 -0.3390 -0.0107 -0.0812
47482W        W90535   3.492  27.702  21.563 -0.2328  0.1573  0.0701
47483W        W90536  17.354  33.020  14.986  0.0543 -0.2880  0.2191
47484W        W90537  30.295  23.843  21.804  0.2321  0.1089  0.1150
47485W        W90538  34.376  33.086  17.688  0.0298 -0.2317 -0.0199
47486W        W90539   9.893  12.117  24.197 -0.3960  0.1575 -0.0689
47487W        W90540   6.616   5.111  25.137 -0.1123 -0.2683  0.1048
47488W        W90541   9.067  24.326  19.213 -0.4528 -0.1185 -0.1510
47489W        W90542  16.525  28.234  18.536 -0.1651  0.1145 -0.2010
47490W        W90543   5.900   2.324  25.099  0.0887 -0.1165 -0.1597
47491W        W90544   9.592  19.693  16.348  0.1332  0.1733 -0.1871
47492W        W90545   2.539  31.663  16.370  0.3236 -0.0612 -0.0493
47493W        W90546   9.286   8.082  21.120 -0.2675 -0.3215  0.1412
47494W        W90547   7.038   2.250  20.283  0.1671 -0.2719 -0.0014
47495W        W90548   8.133  23.042  14.896  0.3413  0.0076  0.4458
47496W        W90549  20.361   0.518   3.095 -0.0022  0.0391  0.0776
47497W        W90550  10.829   7.552   1.822 -0.0151 -0.0149  0.3135
47498W        W90551   7.389  31.560  14.387 -0.0249 -0.2755 -0.2426
47499W        W90552  26.552   5.803  17.965 -0.2058 -0.3312  0.0297
47500W        W90553  13.620  26.022  22.106  0.1256 -0.1075  0.1000
47501W        W90554  21.351  27.327  16.786 -0.1226 -0.5086  0.0138
47502W        W90555  11.888   3.849  22.653  0.1321  0.0362 -0.1945
47503W        W90556   2.473  26.786  23.205  0.0249  0.0298 -0.1654
47504W        W90557  34.306  24.184  17.265 -0.1505  0.0012 -0.1896
47505W        W90558  12.117  18.517  24.544 -0.1910 -0.0438  0.3314
47506W        W90559  13.010  24.382  24.482 -0.3423  0.0902  0.0217
47507W        W90560  30.915   6.086  28.779 -0.0917 -0.0263  0.0494
47508W        W90561  20.875  30.149  20.128 -0.1248  0.1153  0.3497
47509W        W90562  10.474  32.299  14.802 -0.0445 -0.1362 -0.1432
47510W        W90563   6.674  15.127  25.582 -0.0253  0.3091  0.1992
47511W        W90564  11.669   2.347   3.203 -0.0578  0.0826  0.0125
47512W        W90565  27.689  31.759  20.506  0.3137  0.1340  0.1342
47513W        W90566  12.535  15.482  19.388  0.1629  0.3053 -0.1261
47514W        W90567  13.748  33.465  15.108 -0.1284  0.1644  0.0361
47515W        W90568  17.965  12.008  22.736  0.1237 -0.0709 -0.1589
47516W        W90569   3.554  30.207  14.772  0.0004 -0.0115  0.0133
47517W        W90570   9.021   8.965  26.871  0.0109  0.3975  0.2471
47518W        W90571  21.458  19.826  15.275  0.1406  0.0517 -0.0983
47519W        W90572  24.792  29.350  21.950  0.0480 -0.0143 -0.0183
47520W        W90573   1.843  28.238  17.657  0.2517  0.2009 -0.6265
47521W        W90574  13.704   0.251  27.072 -0.4725  0.2078  0.1343
47522W        W90575  28.316  15.647  18.875  0.0448 -0.0834  0.2689
47523W        W90576   0.236  32.422  23.056  0.1996  0.0133  0.0029
47524W        W90577  24.746   6.086  14.560 -0.2732 -0.1009 -0.0685
47525W        W90578  11.441  14.600  18.432 -0.0449  0.0744  0.1367
47526W        W90579  15.164  26.682  14.110  0.1119 -0.0080 -0.1694
47527W        W90580  28.330  13.112  20.032 -0.1487 -0.1948  0.1676
47528W        W90581  10.200  32.889  27.254  0.1298  0.0401 -0.0086
47529W        W90582  33.587   0.857   1.023  0.1413 -0.0307  0.0720
47530W        W90583   7.065  22.081  21.736 -0.0393 -0.0369  0.3208
47531W        W90584  23.987   2.396   3.470 -0.1048 -0.1678  0.0812
47532W        W90585  12.930   6.028   0.094 -0.0730  0.0159  0.0626
47533W        W90586   7.294  28.532  19.245  0.0021  0.0945  0.1730
47534W        W90587  12.839  12.723   0.342  0.2568  0.0946 -0.0329
47535W        W90588  28.820  22.160  22.643  0.1425 -0.2487  0.0793
47536W        W90589  14.403   7.399  28.391 -0.0991  0.0226 -0.4019
47537W        W90590  18.807   9.829  23.063 -0.2027  0.3324 -0.0084
47538W        W90591  14.866   7.603  15.286 -0.1990 -0.0373 -0.0962
47539W        W90592  15.698   9.713  18.992 -0.1724 -0.1597  0.0899
47540W        W90593   7.336  23.322  16.688 -0.0027 -0.0309  0.0526
47541W        W90594   2.319  26.910  16.828  0.1216 -0.0307  0.0072
47542W        W90595  12.219  24.064  16.725  0.0884  0.2763 -0.1790
47543W        W90596  13.268   1.336   3.874  0.0894  0.0864 -0.2020
47544W        W90597   6.631  21.061  19.145 -0.0899  0.1072 -0.0401
47545W        W90598  14.923  10.377  27.582 -0.1307 -0.0695  0.1683
47546W        W90599  15.443  24.849  24.155 -0.1039  0.1412 -0.0511
47547W        W90600   8.772   8.881  17.573 -0.2710 -0.1005 -0.3782
47548W        W90601  22.742  28.020  23.883  0.0584 -0.1727  0.0424
47549W        W90602  23.837  28.777  14.117 -0.2493 -0.2323  0.2044
47550W        W90603  13.443  21.569  19.769 -0.0016 -0.0899 -0.0350
47551W        W90604   3.682  23.221  24.664 -0.0359  0.0972 -0.2690
47552W        W90605  20.716  33.509  17.151  0.0310 -0.3641 -0.4431
47553W        W90606   1.412  30.201  26.179 -0.3896  0.1845  0.1556
47554W        W90607   8.623  11.225  17.427  0.0307  0.0332  0.0547
47555W        W90608   3.059  26.364  20.942  0.4872 -0.0022 -0.0593
47556W        W90609  10.271  27.483   0.293  0.0581 -0.0372  0.3382
47557W        W90610  16.240  29.794  23.352  0.0236  0.1758  0.1011
47558W        W90611   1.598  29.730  23.921 -0.4316 -0.2772 -0.1227
47559W        W90612  17.622  24.158  17.678  0.0380  0.1721 -0.0179
47560W        W90613   7.766  19.959  22.517  0.0768  0.0704 -0.2025
47561W        W90614   5.008   8.153   3.848  0.5779 -0.1544 -0.0047
47562W        W90615   3.900   9.256   8.702  0.0273 -0.0886  0.1849
47563W        W90616  27.609  13.698  17.410 -0.0974  0.1843 -0.1279
47564W        W90617  34.156  25.554  17.090  0.0721  0.2569  0.2964
47565W        W90618  13.747  21.245  16.027  0.0700  0.3079  0.0658
47566W        W90619  16.603   4.590   0.350 -0.0502 -0.1862 -0.0093
47567W        W90620   2.207  34.662  24.569 -0.1441  0.2359 -0.2318
47568W        W90621  11.341  17.605  15.948  0.5045 -0.0757 -0.1715
47569W        W90622  10.831   1.416  22.107 -0.2145 -0.1455 -0.0419
47570W        W90623  19.837   6.607  23.125 -0.0400 -0.0126 -0.2231
47571W        W90624   7.332   0.295  14.925  0.0106  0.1631  0.1171
47572W        W90625  23.539  22.173  22.953 -0.0557  0.2245 -0.0314
47573W        W90626   0.824   6.325  14.503  0.2204  0.0521 -0.2109
47574W        W90627   3.618   3.481  23.695  0.2555 -0.0933  0.0138
47575W        W90628   9.779   2.359  22.663  0.1635  0.3389 -0.0090
47576W        W90629  30.855   9.912  17.301  0.1919  0.0547  0.2625
47577W        W90630  26.891   0.990  28.517 -0.2703  0.1355  0.1823
47578W        W90631  11.198  16.137  20.139 -0.1257  0.0587 -0.0743
47579W        W90632   3.886  22.514  16.328  0.3118 -0.1587 -0.1828
47580W        W90633   1.902  20.781  20.990 -0.0314 -0.0289 -0.1951
47581W        W90634  24.697  28.267   0.668  0.0078 -0.1189  0.2156
47582W        W90635  32.579  10.450  15.631 -0.1200  0.0741  0.1447
47583W        W90636  13.944   6.696  25.730 -0.1857  0.0398 -0.1575
47584W        W90637   9.039  31.845  21.072 -0.3373 -0.0061 -0.2385
47585W        W90638  13.852  16.666  17.447 -0.3265 -0.0722 -0.2901
47586W        W90639   8.622  13.592  17.720  0.1986 -0.2542  0.0374
47587W        W90640   6.719   0.983  28.335  0.1336  0.1677  0.1101
47588W        W90641   4.813  30.601  23.466  0.0463 -0.2972 -0.2082
47589W        W90642  14.840  26.231  15.120  0.0881  0.0330 -0.4307
47590W        W90643   4.997  26.761  13.955  0.3055 -0.1074 -0.1772
47591W        W90644   5.408   2.067  28.067 -0.0579  0.1430 -0.0148
47592W        W90645   1.900  18.049  24.730 -0.3356  0.2619 -0.4328
47593W        W90646  22.906  16.677  20.479 -0.0563  0.0856 -0.0402
47594W        W90647   4.419  23.757  24.278 -0.1641  0.2492 -0.1048
47595W        W90648   7.517   6.087  16.144  0.4420  0.0963 -0.0269
47596W        W90649  17.990   1.426  18.004 -0.0825 -0.3560  0.2275
47597W        W90650  34.262  24.262  14.151 -0.3440  0.0600 -0.0824
47598W        W90651   9.244  30.014  20.572  0.1584  0.0911  0.1765
47599W        W90652   7.594  26.243  18.850  0.0661  0.3206  0.3631
47600W        W90653  17.514  34.056  16.930  0.0041  0.1384  0.2531
47601W        W90654  26.815  31.453  14.224 -0.0586 -0.1308  0.1354
47602W        W90655  16.682  33.411  20.329 -0.0779 -0.0326 -0.3738
47603W        W90656  32.310  34.009  15.805  0.1191 -0.3333  0.2796
47604W        W90657  21.168  17.978  19.812 -0.1590  0.1418 -0.1665
47605W        W90658   9.686  18.069  19.450 -0.2886  0.2725 -0.1178
47606W        W90659   4.498  25.786  14.898 -0.0568  0.2418 -0.1101
47607W        W90660  12.058  13.087  23.269  0.1741  0.0072  0.1643
47608W        W90661   2.648  23.623  25.758  0.2782  0.1773  0.1860
47609W        W90662  12.067  29.522  24.605 -0.1342 -0.0870  0.2039
47610W        W90663   2.649  28.648  23.947 -0.0381 -0.0954  0.1476
47611W        W90664   3.020  22.175  27.414  0.0142 -0.1970  0.1725
47612W        W90665   3.762  26.463  18.431 -0.1105 -0.1025  0.0469
47613W        W90666  14.636  34.584  23.020  0.0522  0.1745 -0.0499
47614W        W90667  12.861  23.495  19.200 -0.1317  0.3155 -0.1080
47615W        W90668   5.404  11.954  18.265  0.1913  0.2640 -0.4078
47616W        W90669  10.822  28.662  16.767  0.1367  0.0618 -0.2011
47617W        W90670  29.059  22.996  25.124  0.0681 -0.2372  0.0235
47618W        W90671   4.301  30.422  21.037  0.1737 -0.0533 -0.2363
47619W        W90672  26.352   6.961  18.645 -0.0892  0.1928 -0.1790
47620W        W90673   5.158  20.345  28.486  0.0072  0.1225 -0.2834
47621W        W90674  12.333  22.847   2.363  0.4633  0.1630 -0.1110
47622W        W90675   8.932  29.963  19.911  0.1096  0.1937  0.0489
47623W        W90676  31.414  16.765  19.273  0.2758  0.4831  0.0076
47624W        W90677  15.666  20.383  21.520 -0.0321 -0.2265 -0.0576
47625W        W90678   9.229   2.141  23.238 -0.0287  0.1729 -0.1831
47626W        W90679   9.743  24.934  25.958  0.3404  0.1620 -0.2423
47627W        W90680  19.987   1.435  18.908  0.0365  0.0584  0.1120
47628W        W90681  13.041  33.993  15.812  0.1959  0.2816 -0.1470
47629W        W90682  31.572   6.645   2.266  0.2283 -0.2657  0.0932
47630W        W90683  18.680  34.124  28.088 -0.1963  0.0408  0.1691
47631W        W90684  11.303  34.001  26.435  0.2413  0.0048 -0.0429
47632W        W90685   3.223  16.063  25.881  0.1719  0.0362 -0.1327
47633W        W90686   7.850  16.363  18.944  0.0340  0.1673 -0.0684
47634W        W90687  15.142  25.129  19.364  0.2395 -0.1698  0.1416
47635W        W90688  11.431   8.488  21.544 -0.1394  0.0200  0.1668
47636W        W90689  30.948   8.748   4.228 -0.4978  0.1182  0.1938
47637W        W90690   7.299  24.054  16.155  0.2388  0.3091 -0.0169
47638W        W90691   0.436  28.183   7.448  0.2219  0.1844 -0.0116
47639W        W90692  30.029  20.115  18.558  0.1752 -0.2004 -0.2952
47640W        W90693   9.051  20.808  27.378  0.0574 -0.3936 -0.0981
47641W        W90694  13.933  22.424  17.239 -0.1982 -0.0609  0.3350
47642W        W90695   4.316  22.981  28.278  0.0238 -0.0608  0.1527
47643W        W90696   7.465  24.442  17.823  0.0199 -0.2153 -0.1321
47644W        W90697  15.463  33.857  19.865  0.1759 -0.0578  0.2298
47645W        W90698  20.578  17.364  14.512  0.0457  0.2582 -0.1342
47646W        W90699  29.016  21.915  20.355 -0.1014  0.1567  0.4764
47647W        W90700  15.337  19.896   0.214 -0.1444  0.2455 -0.1039
47648W        W90701   2.421  21.035   8.299 -0.0595 -0.0388  0.2650
47649W        W90702  17.631  22.554  22.328  0.2029  0.2342  0.0141
47650W        W90703  12.385  15.855  17.326  0.0427  0.0025  0.0980
47651W        W90704  25.299   8.854  18.216  0.1783 -0.0168  0.1109
47652W        W90705  31.058  25.031  18.500 -0.0846 -0.1624 -0.1771
47653W        W90706  29.980  11.385  14.613 -0.0654  0.1231  0.2916
47654W        W90707   8.753  13.054  18.070  0.0094 -0.0419 -0.2605
47655W        W90708   5.738   1.642  19.096  0.4880  0.1529 -0.4191
47656W        W90709   0.488   5.861  18.313 -0.7522  0.1319  0.0250
47657W        W90710  30.376   2.501  21.648  0.0999 -0.1849  0.1786
47658W        W90711  16.505  28.989  21.267  0.0511  0.0636  0.2243
47659W        W90712  12.201  27.518  28.215  0.1107 -0.2573  0.2342
47660W        W90713  34.245  20.214   2.944  0.0027 -0.3723  0.0584
47661W        W90714   5.532  15.094  24.789 -0.0365 -0.0385 -0.0142
47662W        W90715  25.974  27.244  20.213  0.2523  0.0292  0.1000
47663W        W90716  12.791   4.928  20.442  0.0173  0.2767 -0.2326
47664W        W90717   8.981  23.989  14.075 -0.0124 -0.0328  0.2034
47665W        W90718  18.837   0.139  21.653  0.2098  0.1670  0.0551
47666W        W90719   8.733  16.256  22.727 -0.1116  0.0480 -0.2210
47667W        W90720  18.245  22.695  14.091  0.1481  0.0262  0.1261
47668W        W90721  24.405  32.717  18.841  0.1786  0.0982  0.1320
47669W        W90722   2.237  28.185  15.378  0.2416  0.0935 -0.0114
47670W        W90723   2.795  16.443  22.530 -0.0051 -0.2967 -0.1445
47671W        W90724  29.847  34.350  26.306 -0.0589 -0.2401  0.0337
47672W        W90725  20.193  30.761  15.098 -0.2287 -0.1424 -0.1638
47673W        W90726  31.286  33.386  15.440  0.0852  0.0544 -0.0638
47674W        W90727   2.396  31.560  14.187 -0.3389  0.2470 -0.0480
47675W        W90728  14.309  31.822   1.000 -0.0350  0.1125  0.1416
47676W        W90729  17.007   9.402  14.601 -0.4184 -0.3317 -0.0826
47677W        W90730  32.665  30.197  17.985 -0.1715 -0.2407  0.1226
47678W        W90731  12.983  17.269  22.066 -0.1786 -0.2094  0.2831
47679W        W90732   4.666   4.560  18.783  0.1517  0.1547 -0.1774
47680W        W90733  25.923  11.070  16.619  0.4001 -0.2131  0.0984
47681W        W90734   9.481  24.477  18.009 -0.4605 -0.1397 -0.2091
47682W        W90735  22.348  18.215  13.868 -0.1452  0.2578  0.1038
47683W        W90736  17.383  24.169  24.380 -0.0779 -0.2298 -0.0165
47684W        W90737  13.099   7.983  28.335 -0.1254  0.1789 -0.0402
47685W        W90738   8.572  25.649  17.366  0.0870 -0.0011  0.0936
47686W        W90739  19.886  18.482  14.008  0.0728  0.1517  0.5027
47687W        W90740   4.714  22.931   8.552 -0.1666 -0.0945  0.0861
47688W        W90741   9.104  26.514  17.148 -0.0283  0.2856  0.0236
47689W        W90742  15.376   8.148   3.681 -0.1073  0.2443  0.1827
47690W        W90743   8.529  26.528  13.869  0.0511  0.1819 -0.3336
47691W        W90744  11.196  12.660  26.804 -0.0431 -0.3320  0.0994
47692W        W90745  16.456  20.480  13.849 -0.0983  0.0222 -0.0209
47693W        W90746   2.818  10.780  21.408 -0.3899 -0.0759 -0.2881
47694W        W90747   8.375  14.630  18.538 -0.0028  0.0751  0.1528
47695W        W90748  18.183  29.109  18.475  0.0130  0.1660  0.2528
47696W        W90749   0.735  20.292  21.842 -0.0347  0.1210  0.3473
47697W        W90750   1.397  33.507  17.878  0.3485  0.1513 -0.1761
47698W        W90751  15.613  33.091  23.638  0.3206  0.2367 -0.1930
47699W        W90752   9.923  12.461  25.960  0.0231 -0.2100 -0.4714
47700W        W90753  33.355   2.544  18.392  0.1191 -0.2659 -0.0663
47701W        W90754  13.444  29.238  17.703  0.0922  0.3572  0.0455
47702W        W90755  31.783   1.964  16.599 -0.0438 -0.0187 -0.2971
47703W        W90756  30.761  28.567  18.193 -0.2349 -0.0639 -0.0292
47704W        W90757  11.423  27.010  14.421  0.0114  0.0463 -0.2592
47705W        W90758  33.894  27.867  16.907 -0.1640 -0.1563  0.2096
47706W        W90759   2.206   6.228  25.837  0.3579  0.0444 -0.1558
47707W        W90760  15.783  18.806  23.881  0.3189  0.2990 -0.1790
47708W        W90761   4.152  30.291  23.081 -0.3305 -0.1697  0.0922
47709W        W90762  17.793   3.386  15.325 -0.2132 -0.2678 -0.0965
47710W        W90763  29.296  11.687  26.022  0.2255 -0.1458 -0.1599
47711W        W90764   3.145  25.394  16.055  0.1025  0.1068 -0.2430
47712W        W90765  20.394  23.643  17.775  0.0584  0.3306 -0.1287
47713W        W90766  13.143   9.524  16.933 -0.1066  0.0045  0.1242
47714W        W90767  15.923   0.515  22.204  0.1360  0.0239 -0.0248
47715W        W90768   7.332  20.207  28.704  0.2064  0.0543 -0.2259
47716W        W90769   7.723  28.604  14.703 -0.1656 -0.0093  0.0860
47717W        W90770  18.627   0.893  18.251  0.1873 -0.0654 -0.2320
47718W        W90771   5.476  15.474  26.110 -0.0278  0.1033 -0.1206
47719W        W90772   3.927  25.560  20.215  0.2168 -0.0918  0.0085
47720W        W90773  12.068  24.568  21.676  0.1229 -0.0794  0.5493
47721W        W90774  13.260  30.700  27.006  0.1480 -0.0909  0.1751
47722W        W90775   8.979  24.504  16.469  0.0650 -0.0114  0.3982
47723W        W90776   7.869  24.148  17.834  0.2906  0.0932 -0.0715
47724W        W90777   5.119  31.834  20.878  0.0478  0.0604  0.3584
47725W        W90778  19.399  32.239  17.011 -0.2455 -0.1012 -0.1552
47726W        W90779  21.843   7.304  18.133  0.2344  0.3984  0.0375
47727W        W90780  31.524  26.704  17.693 -0.1560  0.1085 -0.0792
47728W        W90781  13.264  11.931   0.161  0.0907 -0.1019  0.0864
47729W        W90782   5.866  17.697  15.483  0.0211  0.0340  0.0969
47730W        W90783  12.004  27.531  16.443  0.2325 -0.2606 -0.1030
47731W        W90784  21.546   2.850  18.642  0.0138  0.0393  0.1304
47732W        W90785   4.183  24.224  27.342  0.0896 -0.1894  0.4566
47733W        W90786  12.185  28.603  28.196 -0.0027  0.0853 -0.1703
47734W        W90787  10.124  10.167  18.946  0.1320  0.1833 -0.1387
47735W        W90788   6.023  29.986  16.162 -0.0505  0.0831 -0.2131
47736W        W90789  33.504   0.890  19.918 -0.0470  0.0415  0.0764
47737W        W90790   6.329  12.619  15.674 -0.1528 -0.1073 -0.2616
47738W        W90791   6.379  20.135  13.922 -0.0120  0.1259 -0.1732
47739W        W90792  22.081  14.141  21.659  0.2025  0.0763 -0.4393
47740W        W90793   5.138  25.541  21.433  0.2241 -0.1272 -0.2771
47741W        W90794  17.463   4.564  17.995  0.1827 -0.0282 -0.1384
47742W        W90795  33.290  10.225  17.354 -0.1008 -0.1545 -0.0274
47743W        W90796   7.834  15.968  17.003 -0.1963  0.2980  0.0260
47744W        W90797  12.782  25.208   9.832  0.3533 -0.0851 -0.4472
47745W        W90798   3.659  26.041  18.131 -0.3353 -0.2490  0.1610
47746W        W90799  28.877  19.945  28.208 -0.2261  0.0598 -0.1178
47747W        W90800  13.199  24.571  24.910  0.0324  0.0260  0.1331
47748W        W90801   7.893  16.010  19.382  0.1581 -0.1308  0.1291
47749W        W90802   0.888  26.564  24.182  0.0452  0.3275  0.1400
47750W        W90803  16.163  25.046  14.321 -0.0050 -0.2675  0.1639
47751W        W90804   3.587  28.676  17.797 -0.2508  0.1497  0.1535
47752W        W90805   5.653  23.859  17.644  0.1835 -0.1053  0.1224
47753W        W90806  21.171  22.769  25.652  0.0455 -0.0269  0.0174
47754W        W90807   9.525  21.938  23.294 -0.2135  0.1554 -0.1853
47755W        W90808  28.999  23.439  21.264  0.0191  0.0874  0.1356
47756W        W90809   7.612  31.768  23.728  0.0846 -0.1806 -0.2861
47757W        W90810   5.949  22.287   5.296 -0.0733 -0.0917  0.2531
47758W        W90811  10.756  22.024  15.894  0.1409 -0.2730 -0.0813
47759W        W90812   8.564  11.728   7.342  0.2188 -0.2988  0.0921
47760W        W90813   5.066  28.413  25.777  0.2180  0.1111 -0.0532
47761W        W90814   7.514  26.453  26.282  0.0475  0.0712 -0.0814
47762W        W90815  13.168  12.021  22.869  0.1980  0.1228  0.2550
47763W        W90816  30.471  19.510  28.491  0.1165 -0.3045  0.1898
47764W        W90817  11.248  29.619  26.080 -0.1016 -0.0247 -0.0986
47765W        W90818  33.672  30.141  18.679 -0.0233  0.1870 -0.0176
47766W        W90819   7.010   6.339  14.810 -0.2054  0.0962 -0.0859
47767W        W90820   2.718  16.243   0.052  0.2936  0.0581  0.2530
47768W        W90821   6.561   5.644  21.424 -0.0536  0.1458  0.0901
47769W        W90822   1.200  32.564  16.923 -0.0651  0.0930 -0.3733
47770W        W90823  23.678  20.165  16.819  0.1534 -0.0191 -0.1545
47771W        W90824   7.390  23.695  18.067 -0.1893  0.1527  0.1798
47772W        W90825  16.993   1.304  21.731 -0.1951 -0.1905  0.4314
47773W        W90826  32.107  33.064  18.009 -0.1600  0.1003 -0.0494
47774W        W90827   4.313  24.598  20.634 -0.1928  0.3423  0.1565
47775W        W90828  21.282  29.247   0.728 -0.1639  0.0457 -0.1444
47776W        W90829   2.534  17.320  18.588  0.0127 -0.0579 -0.4216
47777W        W90830  14.426   0.885  15.982 -0.0428  0.1231  0.4693
47778W        W90831  27.346  24.603   1.531  0.0929 -0.0160 -0.0405
47779W        W90832   8.383  22.896  18.442 -0.1293  0.2959 -0.0510
47780W        W90833  30.754  20.082  16.205 -0.2042  0.0107  0.0389
47781W        W90834   5.044  15.991  16.017  0.1297  0.2538 -0.1016
47782W        W90835   0.392  23.393  21.908  0.3755  0.0168 -0.2446
47783W        W90836  13.698  23.200  14.034 -0.2253  0.1405  0.0652
47784W        W90837  10.641  30.506  13.943  0.0450 -0.1982 -0.0434
47785W        W90838  10.882  18.265  18.172 -0.3621 -0.1179 -0.1908
47786W        W90839   8.120  22.735  24.614 -0.0253  0.0873  0.2012
47787W        W90840  16.542  31.286  26.727  0.2284 -0.0822  0.1331
47788W        W90841   2.236  24.902  20.805  0.0015 -0.0938 -0.1957
47789W        W90842  13.571  26.419  14.334  0.0661 -0.0104 -0.0666
47790W        W90843   8.788  33.128  17.716  0.1515  0.1088  0.1949
47791W        W90844  19.964  25.090  15.463  0.0306 -0.1030  0.1995
47792W        W90845   0.719  17.186  14.868 -0.0209 -0.1058 -0.0395
47793W        W90846   7.959   6.994  20.915 -0.0063 -0.0247 -0.1070
47794W        W90847  17.108  32.894  28.156  0.2023  0.3298  0.1538
47795W        W90848   7.747  25.091  24.330 -0.1687 -0.0707  0.3814
47796W        W90849   6.484   6.741  28.068  0.1022  0.0814 -0.0444
47797W        W90850   0.433   2.318   3.417  0.0368  0.0609  0.0718
47798W        W90851   9.503   9.480  20.667  0.3598  0.3130  0.1174
47799W        W90852  34.003  29.263  20.119 -0.0102 -0.1065  0.0143
47800W        W90853   7.591  26.575   0.670 -0.0698  0.3081 -0.0892
47801W        W90854   3.851  32.347  17.531  0.0793 -0.1216  0.3651
47802W        W90855  16.295   2.489  22.728  0.1366 -0.1696  0.1660
47803W        W90856  11.948  23.455  16.160  0.2539 -0.3218  0.1321
47804W        W90857  23.378  24.811  20.114  0.4421 -0.1757  0.1048
47805W        W90858  16.337   9.831  14.976  0.0778  0.1016 -0.0741
47806W        W90859   3.199  33.604  16.475  0.0102 -0.0795 -0.2672
47807W        W90860  18.244  32.163  27.993 -0.1732 -0.0049 -0.1303
47808W        W90861   1.833  22.035  22.049 -0.0561  0.0320 -0.1526
47809W        W90862  22.732  23.550  17.898 -0.0236 -0.0774 -0.1970
47810W        W90863   7.369   1.362  27.358  0.1595  0.1457 -0.0161
47811W        W90864   6.092  24.219  25.696  0.1069 -0.1329 -0.1345
47812W        W90865  17.705  32.585   6.366 -0.0415  0.2138 -0.0584
47813W        W90866   2.762  23.280  17.242  0.2598 -0.0819 -0.0808
47814W        W90867  17.752  33.357  26.735  0.2145 -0.0437  0.0397
47815W        W90868  25.210   2.361  19.736 -0.0551  0.0381  0.1531
47816W        W90869  11.853  23.672  24.850 -0.0579 -0.2000 -0.1087
47817W        W90870   4.854   8.912   6.366  0.2485 -0.2395 -0.3302
47818W        W90871  31.272  17.198  21.876 -0.1025 -0.0259 -0.1196
47819W        W90872  11.709  18.580  17.363  0.0013 -0.0087 -0.1106
47820W        W90873  19.194  23.460  24.684 -0.2456 -0.0642 -0.0462
47821W        W90874  10.055  13.717  29.130  0.2523 -0.1848  0.0744
47822W        W90875  30.689  19.560  21.088 -0.0151 -0.5004 -0.3025
47823W        W90876   6.271  21.708  18.303  0.1912  0.2290 -0.2161
47824W        W90877  17.557  10.322  16.526 -0.0317  0.1382 -0.2093
47825W        W90878   5.367  30.440   8.083  0.1496  0.0170  0.0853
47826W        W90879  15.471  29.644  22.587 -0.1540 -0.0017  0.0126
47827W        W90880   2.084  15.983   7.605  0.2545  0.0637 -0.2046
47828W        W90881  15.550   3.329  25.491  0.1051 -0.2401  0.2580
47829W        W90882  31.703   9.247  15.220 -0.1834 -0.0813 -0.4342
47830W        W90883  31.387  21.325  15.922  0.1682  0.1800  0.1052
47831W        W90884  23.676  34.044  17.573 -0.1585 -0.0202  0.0615
47832W        W90885  17.846   2.576  24.823  0.2980 -0.0103 -0.2264
47833W        W90886  10.808  30.280  26.121  0.2303  0.0522  0.1936
47834W        W90887  20.000  25.953  21.658  0.0995 -0.1211  0.2513
47835W        W90888  17.373   2.454  23.486  0.1182  0.0147  0.2339
47836W        W90889   2.505  15.824  16.071  0.3197 -0.0727 -0.0674
47837W        W90890   2.551  22.049  16.776  0.2350 -0.0981 -0.0226
47838W        W90891   7.701   6.835  27.936  0.1246  0.2659 -0.1936
47839W        W90892  18.627   9.795  21.236  0.1324 -0.1608  0.2270
47840W        W90893  14.334  17.433   4.135  0.0596 -0.1436  0.0327
47841W        W90894  33.257  30.416  18.766  0.0252 -0.1519  0.2307
47842W        W90895   4.566   4.965   0.055  0.2361  0.0135 -0.1535
47843W        W90896   9.827  33.732  26.869  0.2422  0.2332  0.0443
47844W        W90897  17.060   9.630  24.428  0.0395 -0.4181  0.4923
47845W        W90898  11.482  27.391  16.404 -0.4333  0.1076 -0.1099
47846W        W90899  28.117  34.391  22.390 -0.0235  0.1996 -0.2567
47847W        W90900  29.272  20.794  21.432  0.3749  0.0366 -0.2158
47848W        W90901   9.683  26.760  24.196  0.0276 -0.2167  0.3884
47849W        W90902  20.658  23.194  20.301  0.1540 -0.1014  0.2343
47850W        W90903  29.893  24.514  14.447 -0.0660  0.0997  0.2836
47851W        W90904   5.938  18.823   0.746  0.0562 -0.2338  0.1953
47852W        W90905   9.275  11.819  23.709  0.1704 -0.1459  0.2322
47853W        W90906  20.083  24.514  25.241  0.4684  0.0368  0.2252
47854W        W90907  31.973  26.588  24.419 -0.0788 -0.3070 -0.0403
47855W        W90908  29.269  21.272  15.129 -0.0316 -0.0907 -0.1171
47856W        W90909   6.858  28.959  14.704  0.2218  0.0546 -0.0152
47857W        W90910   9.002   1.488  27.548  0.0903  0.0702 -0.1054
47858W        W90911  32.366  24.982  21.295 -0.1886  0.0426 -0.1955
47859W        W90912  15.156  29.092  15.511  0.0109  0.0101  0.2240
47860W        W90913   3.280  19.340  25.910  0.0159  0.0959 -0.0211
47861W        W90914   2.501   6.015  20.447 -0.2878 -0.0305  0.1774
47862W        W90915   1.040  31.803  20.997  0.1830  0.3470 -0.1020
47863W        W90916  19.922  19.022  27.473 -0.1943 -0.4255  0.1457
47864W        W90917   5.957  27.202  25.881 -0.2947  0.2890  0.0741
47865W        W90918  33.186   3.110  22.577  0.1673  0.0826 -0.0594
47866W        W90919  21.798   1.989  16.965 -0.1870  0.1138 -0.0877
47867W        W90920   5.580  28.855  15.976 -0.0292  0.0889  0.2653
47868W        W90921   0.496  15.690  26.490  0.1805  0.0976  0.3744
47869W        W90922  25.286  21.292  23.720 -0.2299  0.3559 -0.2259
47870W        W90923  14.794  14.283  14.690 -0.2827  0.2525 -0.1411
47871W        W90924   7.238   1.390   0.918 -0.0804  0.2098  0.0737
47872W        W90925  33.558   6.016  16.552  0.2516  0.0480  0.1147
47873W        W90926   4.361  31.777  18.356  0.3105 -0.1231 -0.3708
47874W        W90927   6.781  14.808  26.547 -0.1955 -0.3071 -0.1212
47875W        W90928   5.743  24.819   8.571 -0.3269  0.0144  0.1353
47876W        W90929  18.817  22.819   1.968  0.3604 -0.0126 -0.1788
47877W        W90930  34.134  15.680  14.916 -0.0872  0.2384 -0.3229
47878W        W90931  12.080  20.345  26.368  0.0870  0.0015 -0.0837
47879W        W90932  31.950  20.806  14.209 -0.0440 -0.1326 -0.3823
47880W        W90933  18.276  25.240  16.709 -0.0493  0.0648 -0.4311
47881W        W90934  11.552  23.369  16.657 -0.0312 -0.1304 -0.3751
47882W        W90935  10.464  22.943   8.167 -0.4271 -0.0333  0.5713
47883W        W90936  11.045   0.238  23.186 -0.1606  0.1413  0.0081
47884W        W90937  15.805  34.515  16.857 -0.2692  0.0686 -0.2119
47885W        W90938  34.041   4.455  15.205  0.0139 -0.1771  0.6124
47886W        W90939   0.572  26.373   2.316 -0.0971 -0.0722  0.1948
47887W        W90940  16.108  12.160   2.883  0.3086 -0.1949  0.1839
47888W        W90941   6.270  25.272  24.663  0.0506  0.5015 -0.0870
47889W        W90942  20.967  21.046   0.597 -0.2333 -0.3534  0.3162
47890W        W90943  13.391   5.335  16.884  0.1105 -0.1721  0.1065
47891W        W90944   3.665  27.054  17.130 -0.0883 -0.2121 -0.0812
47892W        W90945   7.769  24.102  27.527 -0.1550  0.1159 -0.2359
47893W        W90946   8.199  15.960   7.392 -0.0689  0.1046  0.0886
47894W        W90947   5.559  14.909   3.517  0.1023 -0.1755 -0.0305
47895W        W90948   9.004  24.604  14.639  0.0542  0.1341  0.0145
47896W        W90949  16.267   8.629   5.832 -0.1629 -0.1353 -0.0313
47897W        W90950  10.178  31.270  23.394  0.2631  0.1515 -0.0185
47898W        W90951  13.739  32.526  15.898 -0.0735  0.1798  0.3047
47899W        W90952  16.810  31.912  25.130  0.0274  0.0622  0.0302
47900W        W90953   7.501  32.447  28.299  0.2514  0.2706 -0.1370
47901W        W90954  14.086  26.257  18.300  0.2489  0.1609  0.0262
47902W        W90955   6.202   0.008  24.552  0.3053  0.0631  0.2322
47903W        W90956  20.543  20.418  24.729 -0.1738 -0.1881 -0.0853
47904W        W90957  34.619  27.231  15.311 -0.0424 -0.1228 -0.0717
47905W        W90958   6.879  20.948  20.329  0.1142  0.0440  0.1819
47906W        W90959  30.370   8.864  21.146 -0.3588  0.1459 -0.0529
47907W        W90960   8.553  30.033  19.531 -0.3922 -0.1064  0.0845
47908W        W90961  13.996   6.420  24.010 -0.1895 -0.0339  0.0213
47909W        W90962  30.842  23.873  19.847 -0.2279  0.0221  0.2612
47910W        W90963   9.806  25.339   1.712 -0.0897  0.1028 -0.2124
47911W        W90964  14.435  27.549  15.521  0.1622  0.2395 -0.0973
47912W        W90965  28.093  16.515   2.193 -0.0367  0.2645  0.0347
47913W        W90966  13.499  29.171  18.254 -0.1667  0.3081 -0.2462
47914W        W90967  27.402   9.179   2.115  0.1254 -0.0874  0.0849
47915W        W90968  12.466  26.953  22.083 -0.0261  0.1744  0.0102
47916W        W90969   9.955  31.367  18.027  0.0305  0.2141  0.0050
47917W        W90970  18.423  29.744  20.470 -0.0576 -0.0255  0.0712
47918W        W90971   9.383   1.936  23.912 -0.3970  0.0388 -0.0953
47919W        W90972  31.579  20.309  21.184 -0.1558 -0.1352 -0.0432
47920W        W90973  29.007   0.888   1.587  0.2475 -0.4966  0.2087
47921W        W90974  23.617  27.546  19.848 -0.0438  0.1700  0.2518
47922W        W90975  12.729  20.109  20.792 -0.0552  0.3654  0.1308
47923W        W90976   5.272   4.196  28.705  0.1771  0.2455  0.1664
47924W        W90977  16.674  27.937  21.300 -0.0981 -0.2094  0.1001
47925W        W90978  28.514   0.100  15.273  0.2607  0.2034  0.0131
47926W        W90979   1.353  18.419   2.969 -0.1324 -0.0243 -0.2043
47927W        W90980   9.964  12.980  25.448 -0.2143 -0.2176  0.0195
47928W        W90981   2.323  24.538  24.693 -0.3826 -0.2384  0.0421
47929W        W90982   1.433  26.896  17.396  0.0815 -0.0206 -0.3930
47930W        W90983  14.947   0.123  15.121 -0.0586  0.0466 -0.3137
47931W        W90984   3.867   0.837  28.777  0.1402 -0.1560  0.2457
47932W        W90985   3.441  33.792  15.511  0.2518  0.1128 -0.0109
47933W        W90986  15.567   8.173  20.001  0.1311 -0.0216  0.0238
47934W        W90987  26.067  28.384  20.265 -0.0251 -0.0620  0.2687
47935W        W90988  32.551  16.352  23.581  0.4546  0.0442  0.0223
47936W        W90989   9.662  20.499  24.451 -0.1414 -0.2876  0.0471
47937W        W90990   0.002   9.684  14.369  0.3144  0.1790  0.1024
47938W        W90991   9.853  15.990  17.098 -0.0238 -0.2043  0.0159
47939W        W90992   0.751  34.527  18.345 -0.1067  0.2673  0.1341
47940W        W90993   5.585  31.900  22.794 -0.0467 -0.3588 -0.0408
47941W        W90994   6.644  28.646  15.642 -0.2075  0.0872 -0.5683
47942W        W90995  17.157  23.757  20.956 -0.1400 -0.0285 -0.0420
47943W        W90996  15.377  15.935  13.864  0.0513 -0.0810 -0.1231
47944W        W90997   4.940  30.977  16.328 -0.5105  0.1310 -0.1817
47945W        W90998  12.814   3.747  14.789  0.0989  0.0787  0.2823
47946W        W90999   0.767  19.194   4.086 -0.0142 -0.1643  0.1564
47947W        W91000  15.491  30.944  15.298 -0.0119  0.0318  0.1383
47948W        W91001   2.830   3.181  20.997  0.1153  0.0440  0.1096
47949W        W91002  10.814  15.417   0.500 -0.2019  0.0707  0.1086
47950W        W91003   3.155  24.021  21.307  0.1194  0.1276  0.1843
47951W        W91004  13.709  16.721  15.558 -0.0305  0.0175 -0.1329
47952W        W91005  10.303  26.444   0.988  0.2164  0.0993  0.0128
47953W        W91006  16.970  29.431  10.139 -0.0177 -0.1592  0.0081
47954W        W91007  21.630  24.183  23.708  0.0497  0.2571 -0.2226
47955W        W91008  32.019  25.987  16.402  0.0220 -0.3697 -0.2131
47956W        W91009  14.409  18.767   1.560  0.1683 -0.0307  0.0750
47957W        W91010  24.993  28.921  22.932  0.0214  0.0756 -0.1203
47958W        W91011  10.233  29.273  19.063  0.0491  0.2385 -0.1399
47959W        W91012   6.954   2.567  23.513  0.0282 -0.3473  0.0013
47960W        W91013   3.897  27.729  14.514  0.1157  0.3458 -0.0972
47961W        W91014  16.828   2.002  17.569  0.1539 -0.0129  0.0445
47962W        W91015   0.178  13.675   7.459 -0.4121  0.1665  0.1253
47963W        W91016   0.381  19.036  22.218  0.2816 -0.0314 -0.0787
47964W        W91017  11.139  28.986  13.747  0.1250  0.1214 -0.2170
47965W        W91018  21.425   3.264  25.765 -0.0975 -0.1866 -0.1921
47966W        W91019  34.605  14.290  16.444 -0.1281  0.2457  0.0064
47967W        W91020  19.528  32.123   2.359  0.4547 -0.2288 -0.0273
47968W        W91021  26.837   4.854  28.282  0.0033 -0.1280 -0.1921
47969W        W91022  34.203   7.145  16.304 -0.1736 -0.0840  0.1429
47970W        W91023   8.778   1.852  19.044  0.0402 -0.0466  0.0351
47971W        W91024   5.550  22.302  20.049  0.0165 -0.0959 -0.0648
47972W        W91025  10.189  27.291  14.926 -0.1723 -0.2000  0.1663
47973W        W91026  14.917  31.236  27.476  0.4144  0.1541  0.2362
47974W        W91027  32.837  33.697  19.079  0.0850  0.1155 -0.1683
47975W        W91028  11.780   2.525   4.277  0.1176  0.0023  0.2510
47976W        W91029  12.139   5.945  24.348 -0.0628 -0.2408  0.3056
47977W        W91030   3.665   0.076  26.924  0.0244 -0.1084  0.1431
47978W        W91031  22.662  24.666  16.980 -0.2501  0.1126 -0.0067
47979W        W91032   3.020  17.152  20.258  0.0842 -0.1768 -0.1606
47980W        W91033  19.409  26.600  26.872  0.0030 -0.3563 -0.1187
47981W        W91034  12.032   4.722  27.509  0.1128  0.1998 -0.1671
47982W        W91035  21.671   7.960  16.407 -0.1046 -0.0123  0.1126
47983W        W91036  23.325  31.652  17.689 -0.2621 -0.0773 -0.0172
47984W        W91037   9.401  16.761  16.066  0.1792 -0.2365  0.1507
47985W        W91038  26.211   4.057  16.450 -0.1506 -0.0570  0.1185
47986W        W91039   4.390   3.485  20.250 -0.1033 -0.0432 -0.1773
47987W        W91040  11.318  18.666  26.873 -0.0121 -0.1234 -0.3327
47988W        W91041  19.545  21.977  26.001 -0.1115  0.1676  0.0110
47989W        W91042  28.286  14.713  18.405 -0.1392  0.0931  0.0738
47990W        W91043  23.821  29.030  27.220  0.0001 -0.0203  0.0829
47991W        W91044  20.084  28.403  18.094 -0.0267 -0.1022  0.1268
47992W        W91045   8.043   0.594  17.349  0.0435  0.1095 -0.0106
47993W        W91046  10.706  24.462   2.217 -0.0145  0.2335 -0.0847
47994W        W91047  30.544   4.314  22.766 -0.0138 -0.2478 -0.1482
47995W        W91048  22.721  31.998  16.476  0.0026 -0.1326  0.2947
47996W        W91049  23.885  13.865  18.197  0.2427 -0.1284 -0.0959
47997W        W91050  21.791  32.465  23.290 -0.0235 -0.1935 -0.4027
47998W        W91051  10.441   9.655  16.134 -0.0034 -0.0090  0.1719
47999W        W91052   7.771  26.275  14.325  0.3358  0.1965  0.2484
48000W        W91053   2.483   7.436  23.038 -0.2036 -0.0583 -0.1532
48001W        W91054  13.427   4.433  22.846  0.1721 -0.3267  0.2926
48002W        W91055   9.445  23.041  22.386  0.2791  0.0721  0.1268
48003W        W91056  15.692   2.589  17.323  0.2340 -0.1276 -0.1338
48004W        W91057   2.011  22.936  13.568  0.0366 -0.1187 -0.0760
48005W        W91058  31.107  11.416  18.306  0.3026 -0.1470  0.2778
48006W        W91059   1.883  23.860  23.924  0.1193  0.2404  0.2593
48007W        W91060   8.452  26.556  18.991  0.3253  0.0849 -0.3085
48008W        W91061   0.239  31.516  20.948  0.0579 -0.0875  0.0967
48009W        W91062   3.403   7.642  16.073  0.1457  0.2348 -0.2289
48010W        W91063   7.849   9.467  21.749 -0.0920  0.2115 -0.1718
48011W        W91064  19.698  26.266  17.555  0.0625 -0.1992 -0.0214
48012W        W91065   1.355   5.818  16.956  0.0493 -0.1701  0.0742
48013W        W91066   5.216  24.392   7.310 -0.1041 -0.0406 -0.3204
48014W        W91067  21.046  29.120  15.329  0.0171  0.1047 -0.0248
48015W        W91068  22.886  16.316  14.041  0.2996  0.0229 -0.1895
48016W        W91069   8.624  18.636   2.672  0.2563  0.1593  0.1385
48017W        W91070  32.084  19.364   2.346 -0.0479  0.0648  0.1268
48018W        W91071  27.110   1.190  16.431 -0.1006  0.0024  0.1199
48019W        W91072  32.709  27.037  17.827  0.2047 -0.1467 -0.4197
48020W        W91073  33.975  31.311  23.048 -0.1075  0.2021  0.1767
48021W        W91074  16.258  31.450   8.573  0.2957 -0.1149 -0.2595
48022W        W91075  10.280  19.676  18.788  0.1558  0.0321  0.1876
48023W        W91076  16.782   1.578   3.568 -0.0102  0.1354  0.2886
48024W        W91077   4.186  27.211  16.861 -0.0596 -0.0516  0.0094
48025W        W91078  11.053  30.241  13.789 -0.0778  0.2559 -0.0682
48026W        W91079  27.861  27.931   1.357 -0.0099  0.1494 -0.3767
48027W        W91080   8.394  24.066  18.602 -0.1856 -0.0860 -0.0764
48028W        W91081  33.851  21.640  16.481 -0.2842  0.0264  0.0201
48029W        W91082   6.706  31.523  20.416 -0.1245 -0.3994 -0.1096
48030W        W91083  25.593  23.456  14.845 -0.2235  0.0539  0.0558
48031W        W91084  13.726  30.892  17.027  0.1116  0.2577 -0.1390
48032W        W91085   8.013  19.916  22.061 -0.3387 -0.0574 -0.4086
48033W        W91086  14.588  23.768  24.507  0.2613 -0.0543  0.1116
48034W        W91087   7.487  18.829  13.944  0.1861 -0.1172 -0.2379
48035W        W91088  13.656  23.622   2.637  0.3037 -0.3795  0.3040
48036W        W91089   6.237  29.965   2.021  0.0306  0.2775 -0.1665
48037W        W91090  15.911   0.062  29.017  0.0517  0.0155  0.0901
48038W        W91091  10.128  20.465  22.412 -0.0498 -0.1216  0.0883
48039W        W91092   6.744  25.558  15.865 -0.3029  0.0827  0.0842
48040W        W91093  18.136  21.958   6.011  0.2633 -0.0821  0.1064
48041W        W91094   6.367  29.647  23.588 -0.3417  0.0044 -0.2588
48042W        W91095  33.190  22.512  28.408 -0.0994  0.1597 -0.1323
48043W        W91096   8.736  24.675  23.392  0.0174 -0.0944 -0.3045
48044W        W91097   9.065  30.083  13.800 -0.0042  0.1980 -0.2106
48045W        W91098  12.688   4.362   2.314  0.2915 -0.0383  0.1509
48046W        W91099  21.452  31.262  25.690  0.2935  0.3636  0.0591
48047W        W91100  11.788  32.250  16.711  0.0339  0.0367 -0.2743
48048W        W91101   8.777  15.237  17.827  0.1195 -0.2168 -0.3123
48049W        W91102  14.634  34.240  22.157 -0.0969  0.0171 -0.0969
48050W        W91103   5.388  30.791  15.473  0.1273  0.3643  0.0417
48051W        W91104   7.301  26.277  20.837  0.0627  0.1887 -0.4595
48052W        W91105   5.057   3.538  25.026 -0.3231  0.1612 -0.2148
48053W        W91106  24.878  18.940  25.085 -0.1212 -0.1930  0.1349
48054W        W91107  33.695  29.201  19.067  0.2811 -0.0754  0.1465
48055W        W91108   2.469   1.378  18.394 -0.0533  0.5408 -0.0202
48056W        W91109   8.261  18.822   4.391 -0.0957  0.2097  0.3075
48057W        W91110  15.841  34.549  15.654  0.1343  0.1256 -0.1773
48058W        W91111   6.846  24.024  13.954  0.0792 -0.2505  0.4615
48059W        W91112  14.793  23.419  24.970 -0.2530 -0.0155  0.1839
48060W        W91113  14.881  30.487  14.072 -0.2164  0.0690 -0.0093
48061W        W91114  11.442  23.914  14.525  0.0654 -0.2995 -0.0310
48062W        W91115  27.478  23.815  16.456 -0.2695 -0.0303 -0.2267
48063W        W91116  10.613  26.526  28.800 -0.0732 -0.0695 -0.0564
48064W        W91117   6.263  31.107  16.638  0.0868  0.2725 -0.0907
48065W        W91118  15.355  23.027  18.069 -0.3101  0.2003 -0.1225
48066W        W91119  13.327  25.871  28.699 -0.2256 -0.1330  0.1012
48067W        W91120   9.334  21.883  25.267  0.2805 -0.0754 -0.0437
48068W        W91121  22.111  13.390  20.064 -0.1872 -0.2726  0.1115
48069W        W91122  20.544  29.962  22.702  0.4313 -0.1911 -0.1244
48070W        W91123   2.670  11.082  16.850  0.0604  0.3446  0.3269
48071W        W91124  27.926  12.946  25.673  0.2026 -0.2680 -0.0707
48072W        W91125  12.959   5.385  22.922 -0.0847 -0.1747  0.0560
48073W        W91126   6.115  28.928  15.833 -0.3814 -0.2065  0.1519
48074W        W91127   7.395  20.623   0.792 -0.0135 -0.0208 -0.3338
48075W        W91128  29.255   1.374   0.253 -0.1411 -0.1424 -0.1330
48076W        W91129  22.415  33.113  22.609  0.0944 -0.1487  0.0907
48077W        W91130  12.009  19.327  16.750  0.0488 -0.0085  0.2994
48078W        W91131   0.385   0.780  25.132  0.1672  0.1420  0.3170
48079W        W91132   1.604  28.286  21.012  0.2683 -0.0682  0.1550
48080W        W91133  10.342   6.021  18.893 -0.1136 -0.2438  0.1124
48081W        W91134  30.282  32.788  18.612  0.0430 -0.3376  0.0426
48082W        W91135   1.450  18.744  21.731 -0.1361  0.1499  0.2583
48083W        W91136   4.694  20.984   8.818  0.1889  0.2029 -0.1471
48084W        W91137   7.099  11.205  15.333 -0.3012 -0.0372  0.2596
48085W        W91138  14.254  20.742  16.570 -0.0885  0.0043  0.0287
48086W        W91139  15.995   6.308  19.723  0.1059 -0.3972  0.0514
48087W        W91140   7.428  25.552  24.026  0.0712  0.0415 -0.1124
48088W        W91141  17.308   1.793   9.200 -0.2306  0.0061 -0.2467
48089W        W91142   0.886  32.857  19.515 -0.3413  0.2688 -0.0738
48090W        W91143   4.478  27.571  19.710  0.1238  0.0203 -0.1155
48091W        W91144  34.654  29.736  17.059  0.0812  0.0794 -0.1892
48092W        W91145   7.506  33.334  13.527 -0.2464 -0.0364  0.1908
48093W        W91146  14.280   1.765  24.898 -0.2482 -0.3111  0.0586
48094W        W91147  18.693  12.992   9.749 -0.0367  0.0431  0.1664
48095W        W91148  12.505  19.161   2.997 -0.2468 -0.0624 -0.0863
48096W        W91149  15.282  29.812   1.876  0.1522 -0.1823  0.1397
48097W        W91150  15.053  25.875  23.304  0.1924  0.1953 -0.1575
48098W        W91151  20.586  26.515  25.620 -0.1280  0.0061  0.1300
48099W        W91152  16.736  19.198  25.175  0.1527  0.1684  0.3056
48100W        W91153  12.434  19.410  16.472 -0.0911  0.1404 -0.1888
48101W        W91154  15.873  25.929  15.779  0.0513 -0.1517  0.1261
48102W        W91155   9.911  33.434  14.680  0.1907 -0.0812 -0.0009
48103W        W91156   8.124  18.995  16.876  0.1558  0.0135 -0.1762
48104W        W91157  14.276   0.804   7.312  0.0513  0.1955 -0.0603
48105W        W91158   8.411  27.357  20.150  0.2010  0.2206  0.1632
48106W        W91159  30.603  33.519  14.827  0.1198  0.3598  0.2874
48107W        W91160  33.812  28.917   3.505 -0.1105 -0.0987  0.3758
48108W        W91161  13.175   5.511  27.896  0.1676  0.1213  0.2161
48109W        W91162   4.485   3.846  16.620 -0.0163 -0.1854  0.1025
48110W        W91163   8.900   6.787  17.529  0.1175  0.3494 -0.0914
48111W        W91164   1.763  16.997   3.906  0.0073 -0.3029 -0.0094
48112W        W91165   0.581  13.697  15.781  0.0032 -0.0369  0.1892
48113W        W91166  14.419  27.453  19.671 -0.0764 -0.1949  0.3231
48114W        W91167  13.803  12.898  19.747  0.1377  0.1309 -0.0557
48115W        W91168  31.100   4.948  16.129 -0.1337  0.0711 -0.1432
48116W        W91169  14.217  33.003  24.919 -0.0301  0.1890  0.0596
48117W        W91170   4.919   0.384   3.106  0.1392  0.0835 -0.0591
48118W        W91171  12.315  21.599  24.012  0.0331 -0.0007  0.0094
48119W        W91172   5.832  24.089  15.065  0.1645  0.1362 -0.0813
48120W        W91173   3.591  31.142  28.942 -0.0960  0.0296  0.0670
48121W        W91174   5.868  16.584  15.019 -0.0860 -0.1766 -0.2022
48122W        W91175   3.378  27.607  15.192 -0.1991  0.3931 -0.2464
48123W        W91176  11.242  26.349  26.780 -0.1086  0.1845  0.0508
48124W        W91177  14.699  28.145  22.730 -0.1628  0.0194  0.0079
48125W        W91178   1.687  32.335  23.059 -0.0172 -0.1381  0.1216
48126W        W91179   9.749   7.220   4.152 -0.0702  0.0460 -0.1186
48127W        W91180  22.889  32.016  14.728  0.1814  0.0434 -0.0571
48128W        W91181   8.063  28.310  20.398 -0.2802 -0.2015 -0.0871
48129W        W91182  18.361  24.543  25.916  0.2463 -0.1607  0.0660
48130W        W91183   7.079   4.616  19.983  0.1009 -0.3526  0.0779
48131W        W91184  22.488  11.950  15.559  0.1800 -0.0550  0.0482
48132W        W91185   5.891  25.106  19.271  0.0408  0.3234 -0.1353
48133W        W91186  15.738   1.470  22.165 -0.0012 -0.3971  0.0282
48134W        W91187  13.894  25.301  25.828 -0.0809  0.0049 -0.5958
48135W        W91188  15.118   1.596  18.949  0.0315 -0.0448 -0.3045
48136W        W91189  11.720  19.070   2.049 -0.2514 -0.0529  0.0823
48137W        W91190  33.687  23.123  24.900  0.2880  0.0219 -0.0631
48138W        W91191  27.278  28.924   2.658 -0.0403 -0.1676  0.2533
48139W        W91192   4.921   2.977  26.421  0.0082  0.0949  0.0144
48140W        W91193  12.196   3.423  17.675  0.0753  0.0875 -0.2608
48141W        W91194  31.575  28.514  15.410 -0.1604 -0.3001 -0.0360
48142W        W91195  12.876  26.108  18.879 -0.4184  0.1349  0.0381
48143W        W91196  34.682  10.510  21.187  0.0294 -0.2174 -0.0184
48144W        W91197   9.518  12.916  17.494 -0.0609 -0.0726  0.1518
48145W        W91198  34.011  11.564  16.091 -0.2936  0.3397  0.4792
48146W        W91199   2.182  32.595   5.435 -0.0986  0.0913 -0.2790
48147W        W91200   5.751  20.788  18.429  0.0431 -0.3456 -0.0041
48148W        W91201  28.757   4.457  26.124  0.1091 -0.1914 -0.0434
48149W        W91202  21.388  27.644  16.343  0.1530  0.1155  0.0657
48150W        W91203  10.018  22.048  18.130  0.1147 -0.0389  0.1131
48151W        W91204  13.146  23.699  20.236  0.0282 -0.1816 -0.6149
48152W        W91205  20.411   0.284  17.986 -0.2600 -0.0242 -0.0253
48153W        W91206  11.601  24.774  16.166  0.1774  0.3960  0.1988
48154W        W91207  25.311  31.126  23.775  0.0042  0.1108  0.1479
48155W        W91208  32.802  17.518  23.785  0.1122  0.1835 -0.0363
48156W        W91209  26.395  14.208  14.835  0.1063  0.0970  0.0382
48157W        W91210  11.447  25.892  26.845  0.1974 -0.1007  0.1899
48158W        W91211  14.432  12.029  24.944  0.1880 -0.1537 -0.0570
48159W        W91212  33.354  28.564  19.636  0.1385  0.1971  0.0634
48160W        W91213   4.808   7.634  24.916 -0.0331 -0.0779 -0.2001
48161W        W91214   0.934   0.099   1.633  0.0157 -0.0480  0.2708
48162W        W91215  11.562   9.816   4.892 -0.1351  0.0476  0.0307
48163W        W91216   8.357  17.392   4.304 -0.0364  0.3500  0.1567
48164W        W91217  18.840  21.598  20.388  0.1320  0.1902 -0.0974
48165W        W91218   8.742  34.686  19.273 -0.1196 -0.0580  0.0919
48166W        W91219  13.285   3.174  27.989  0.0098  0.2627  0.0247
48167W        W91220  10.339  26.292  18.125 -0.1952  0.1590 -0.3105
48168W        W91221  20.286  27.469  20.778  0.3128  0.2162  0.0780
48169W        W91222   5.255  10.225   2.232 -0.1993  0.0608  0.1104
48170W        W91223  13.946  20.345  16.159 -0.1436  0.2952  0.0484
48171W        W91224  10.700  22.922  14.255  0.2654 -0.1623 -0.2414
48172W        W91225  29.920   6.564  26.693 -0.1416 -0.2357  0.2398
48173W        W91226  10.351  23.751  20.378  0.1034 -0.3047  0.0645
48174W        W91227   8.628  28.563   1.533  0.4220  0.0686  0.1786
48175W        W91228   4.850  25.832  13.624 -0.0545  0.1364 -0.2466
48176W        W91229  16.793  28.374  14.792  0.2287  0.1808  0.0016
48177W        W91230   7.339  33.380   1.289  0.0118  0.1015  0.1995
48178W        W91231  10.763  21.800  14.859 -0.2691 -0.0083 -0.1078
48179W        W91232   7.240  17.222  20.153 -0.3302  0.0114  0.2127
48180W        W91233   1.089  16.543  17.678 -0.0103  0.2858  0.1901
48181W        W91234  15.415  30.930  16.623  0.1492  0.3012 -0.3568
48182W        W91235  12.692  23.287  18.218  0.0257  0.0525  0.0539
48183W        W91236   5.278  29.376   1.485 -0.1887 -0.0133  0.1813
48184W        W91237  31.477  27.911   2.528  0.1726  0.0309 -0.0617
48185W        W91238   7.638  28.840  12.859 -0.4473  0.1119 -0.2310
48186W        W91239   8.892   1.231  15.797  0.2964  0.1834 -0.0392
48187W        W91240   3.027  26.526  26.542  0.2788  0.0760  0.1245
48188W        W91241   2.615  27.235  19.203  0.2982  0.1225 -0.0352
48189W        W91242  11.311  30.269  17.903 -0.4233 -0.0071  0.1266
48190W        W91243  27.591  16.306  14.650 -0.1513 -0.1750 -0.1337
48191W        W91244  25.965  33.562  23.737  0.1479 -0.0967  0.1809
48192W        W91245  28.407  14.668  19.551 -0.0871  0.0563 -0.2289
48193W        W91246  14.935   8.589   0.918  0.2566  0.0107 -0.2656
48194W        W91247  16.515  34.285   0.773  0.0294 -0.2024 -0.0334
48195W        W91248  15.751  27.917  22.451 -0.2521  0.1597  0.0500
48196W        W91249  26.064  24.737  14.879 -0.1756 -0.3764 -0.0235
48197W        W91250  12.713   0.235  16.003  0.1115 -0.2720 -0.1142
48198W        W91251   7.467  20.485  21.606  0.0679 -0.3489  0.2234
48199W        W91252   4.381  21.637  19.651  0.1369  0.0543  0.1652
48200W        W91253  19.607  26.095  25.760 -0.2644  0.0032  0.2030
48201W        W91254  29.829   6.756  20.237  0.1078 -0.2059  0.0190
48202W        W91255   7.742  22.644   4.445 -0.0779  0.3189  0.0053
48203W        W91256  12.035  30.077  19.912  0.1770  0.1500 -0.0012
48204W        W91257  14.154  21.116  20.235 -0.0838 -0.0801 -0.0490
48205W        W91258  11.846   0.028  28.953 -0.1396 -0.0346  0.1469
48206W        W91259   5.073  27.620  19.078 -0.2273 -0.1215 -0.0963
48207W        W91260  21.382  17.615  17.964  0.0845 -0.1387  0.0069
48208W        W91261  32.021  32.869  16.386  0.2342 -0.0787  0.0292
48209W        W91262  12.511  31.905  24.234  0.2566  0.1699  0.0269
48210W        W91263  15.286  21.354   4.168  0.0694 -0.1888  0.2718
48211W        W91264   9.506  22.220  25.643 -0.2415  0.1391 -0.1727
48212W        W91265  27.962   7.356  16.063  0.1460  0.0447  0.0120
48213W        W91266  10.883  28.122   3.114  0.2056 -0.0035  0.1845
48214W        W91267  16.720  30.641  14.487  0.0686 -0.0030  0.3044
48215W        W91268  28.172  25.063  20.785  0.0588  0.1439 -0.0749
48216W        W91269  10.029  34.638  22.170  0.1882  0.2028 -0.2585
48217W        W91270   3.822  30.099  16.220  0.0824 -0.1246 -0.1137
48218W        W91271  33.916  28.356  28.966  0.0303 -0.0250  0.1396
48219W        W91272  13.142  16.024   1.697 -0.0897  0.1139  0.2715
48220W        W91273   6.638   7.804  25.129 -0.1016 -0.1472  0.0756
48221W        W91274  28.746  25.182  15.475 -0.1495 -0.0772  0.1461
48222W        W91275   2.882  27.530  29.092  0.4134  0.0128 -0.2750
48223W        W91276  25.503   1.436   0.054  0.3929  0.0850 -0.1073
48224W        W91277  12.619  31.546  23.854 -0.1536 -0.3473 -0.1493
48225W        W91278   0.108  25.325  14.847 -0.0206 -0.0867  0.0209
48226W        W91279  12.289   0.375   5.839 -0.0461  0.2913  0.2336
48227W        W91280  22.457   0.089  26.294  0.3150  0.0393  0.0380
48228W        W91281  32.610  21.118  15.791  0.1566 -0.0335  0.1291
48229W        W91282  27.063   2.688  19.869 -0.1036 -0.0399  0.0563
48230W        W91283   6.492  30.693   3.546  0.2857 -0.1985 -0.2038
48231W        W91284  11.823  27.035  14.162 -0.2744 -0.0001 -0.0183
48232W        W91285  22.313  27.034   5.626 -0.0214 -0.0185  0.3007
48233W        W91286  21.806  33.050  15.339  0.2507  0.2317 -0.0614
48234W        W91287   0.941  20.208  20.770  0.2449  0.3274 -0.3134
48235W        W91288   9.632  29.471  16.532  0.3048 -0.2852  0.3843
48236W        W91289  27.715   2.503  22.228  0.0286  0.1154 -0.1642
48237W        W91290  23.217  29.336   0.159 -0.1796 -0.1229  0.2465
48238W        W91291   7.006  23.707  16.485 -0.0940 -0.1527  0.1420
48239W        W91292   2.710  30.649   5.188  0.1576  0.0274 -0.2526
48240W        W91293  14.087  31.729  26.800 -0.1191  0.1010 -0.0876
48241W        W91294  13.318   3.170  23.444 -0.1152 -0.1233  0.1475
48242W        W91295  13.299  25.570   4.160 -0.0519 -0.4410 -0.0514
48243W        W91296  17.111  28.578  22.437 -0.1318 -0.0397 -0.1396
48244W        W91297  17.782  30.585  24.666  0.1544  0.3188 -0.0872
48245W        W91298   3.489  15.218  28.671  0.1889  0.0714 -0.2084
48246W        W91299   1.608  16.872  23.272 -0.0154  0.2429  0.4745
48247W        W91300  32.214  15.118   7.443  0.0533 -0.3389 -0.0390
48248W        W91301  16.275  19.824  15.496 -0.2247  0.0050  0.0846
48249W        W91302  16.523  12.975   0.214  0.1100  0.2984  0.1717
48250W        W91303  24.737  29.799  20.192  0.3326 -0.4177 -0.0379
48251W        W91304  10.798  24.283  19.276 -0.0025 -0.1365  0.2869
48252W        W91305  10.381  18.047  17.603  0.2485 -0.0015  0.2144
48253W        W91306   4.732  24.759  18.513  0.2403 -0.0366  0.1189
48254W        W91307   7.004  26.491  15.445 -0.0957 -0.2029 -0.0542
48255W        W91308   8.767   5.638  24.668 -0.1900 -0.2711 -0.2349
48256W        W91309   7.198  22.403  14.855 -0.4413 -0.2455 -0.1162
48257W        W91310  23.586  28.683  25.975 -0.2394  0.2568 -0.1085
48258W        W91311  15.391  23.839   6.344  0.0810  0.0673  0.1803
48259W        W91312  32.201   3.229  15.381 -0.1703  0.1383  0.0662
48260W        W91313  14.196  17.875  16.314 -0.1289 -0.0116  0.0062
48261W        W91314   1.941  23.725  22.423 -0.1122  0.0989 -0.0551
48262W        W91315  16.525  19.418  24.512 -0.0636 -0.1129 -0.4641
48263W        W91316   0.611  22.307   8.090  0.2943 -0.0641 -0.1487
48264W        W91317  13.340  29.216  16.265 -0.3433  0.1883 -0.1360
48265W        W91318   4.967  33.742  15.169 -0.0351 -0.0507 -0.2177
48266W        W91319  17.429  23.926  23.905  0.0776 -0.2245  0.0989
48267W        W91320   3.888   7.282   4.100  0.2191 -0.1434 -0.0324
48268W        W91321  31.254  27.873  20.543 -0.3268  0.1044  0.2211
48269W        W91322  12.878   6.739  25.710  0.1493 -0.0492  0.0675
48270W        W91323   4.082  31.450  24.682 -0.0275  0.0795 -0.2624
48271W        W91324   6.925  19.255  13.898  0.2164  0.0816 -0.0421
48272W        W91325   8.065  32.925  28.933 -0.1521  0.3344 -0.0004
48273W        W91326  30.841  33.392  14.348 -0.3045 -0.1106 -0.3777
48274W        W91327   5.731  26.155  25.893 -0.0219 -0.0792  0.4429
48275W        W91328   2.993  15.544  13.670  0.0344  0.0788  0.0565
48276W        W91329  33.342  26.822   4.657 -0.1539  0.0339  0.1202
48277W        W91330  17.711   8.155  28.219  0.1139  0.0561  0.0035
48278W        W91331  34.252  17.653  22.235 -0.0025  0.2064  0.0523
48279W        W91332  19.639  29.386  15.324  0.1519 -0.3960 -0.0267
48280W        W91333  26.356  26.419  15.730 -0.2023  0.2773 -0.0090
48281W        W91334  12.638  30.149   9.045 -0.0499 -0.0491  0.2134
48282W        W91335  11.887  25.834  21.256  0.1919  0.0740 -0.1482
48283W        W91336   7.271   7.597  14.516  0.1170  0.3651  0.0821
48284W        W91337  14.161  20.536  22.300  0.1544 -0.1797 -0.2162
48285W        W91338  10.951   1.726  21.299  0.0498 -0.0963 -0.1577
48286W        W91339   0.768  15.560  27.744 -0.3723 -0.1620  0.0457
48287W        W91340  33.892  21.976  27.418 -0.1957  0.0925  0.2360
48288W        W91341  33.894  29.780  23.243 -0.2073 -0.2880 -0.5682
48289W        W91342   5.225   0.089  25.920  0.2162 -0.0079  0.0043
48290W        W91343  13.687  22.335  25.088  0.3658 -0.0665  0.2187
48291W        W91344  14.343  31.876  15.999  0.0432 -0.0217 -0.0325
48292W        W91345  13.180  22.547  28.574 -0.0691 -0.1810  0.0433
48293W        W91346  19.134  29.056   4.011  0.0099  0.0416  0.0705
48294W        W91347   7.471  26.539   3.809  0.3362 -0.1172 -0.0145
48295W        W91348   9.263   2.321  18.332  0.0339 -0.1113 -0.0914
48296W        W91349   3.913  28.130   4.883  0.3076 -0.1068  0.0172
48297W        W91350  12.040   5.123  14.628 -0.0929  0.0946 -0.0596
48298W        W91351   5.053  11.710  22.103 -0.2601  0.1889 -0.1082
48299W        W91352  14.849  16.813  13.003 -0.1303  0.3571 -0.1763
48300W        W91353   5.789  16.410  20.887 -0.2872 -0.3825 -0.0419
48301W        W91354  14.911  26.735  22.032  0.0324 -0.3129  0.2038
48302W        W91355  10.615  28.518  18.076  0.1896 -0.0475 -0.3271
48303W        W91356  16.878  18.926  14.789 -0.1715 -0.0876 -0.1942
48304W        W91357   7.120  26.916   1.510 -0.0014  0.0715 -0.0945
48305W        W91358  32.546  13.854  23.889  0.2052 -0.0877  0.2858
48306W        W91359   9.238   5.835  14.636  0.0383 -0.1650  0.3043
48307W        W91360   7.761  14.216  19.912  0.2365  0.0601  0.1014
48308W        W91361  25.304  34.403  18.359 -0.1729  0.1651  0.0282
48309W        W91362  34.151  16.701  27.444 -0.0866  0.0033  0.1463
48310W        W91363  17.333  23.825  17.828 -0.0771  0.0413 -0.1673
48311W        W91364  11.162   3.232  23.421  0.2938 -0.1973 -0.2632
48312W        W91365   5.300  30.028  24.710  0.0128 -0.0296 -0.0116
48313W        W91366   9.478  32.168  24.128  0.2118  0.1660  0.0410
48314W        W91367   3.998   5.908  14.846 -0.1117 -0.0397  0.0490
48315W        W91368   8.709  22.658   2.511  0.1152  0.0491 -0.0566
48316W        W91369  22.150  20.854  24.196 -0.2604 -0.2387  0.0885
48317W        W91370   5.438  18.820  16.874  0.2109 -0.2116  0.0413
48318W        W91371  27.263  20.229  26.532  0.0646  0.1907  0.0947
48319W        W91372  20.251   9.324  15.948  0.0828  0.1627 -0.0124
48320W        W91373  14.704  27.019  24.016 -0.1060 -0.1177  0.0266
48321W        W91374  10.081   8.534   8.169  0.0646  0.1541 -0.2316
48322W        W91375   0.704   5.544  23.259  0.2902  0.1530  0.3974
48323W        W91376   2.202  10.828  16.089 -0.3484 -0.2960  0.1507
48324W        W91377   7.142  31.343   5.390 -0.0068  0.0858  0.1884
48325W        W91378   4.367  29.968  21.295  0.1971 -0.1687  0.2532
48326W        W91379   0.215  26.852  28.939 -0.0924 -0.0034  0.1950
48327W        W91380  21.413  28.013   7.436  0.2225 -0.3180 -0.1275
48328W        W91381  32.793  21.082  15.218 -0.0847  0.0150  0.1716
48329W        W91382  14.417  28.792  23.540  0.1902  0.0273 -0.2105
48330W        W91383  16.358  18.468  24.344  0.0309 -0.0761  0.1638
48331W        W91384  12.980  22.272  23.474 -0.2834  0.1045  0.0372
48332W        W91385   0.977   0.413  18.954 -0.3464 -0.1514  0.0415
48333W        W91386  11.144  31.817  19.625 -0.2109 -0.0780  0.1032
48334W        W91387  15.005  26.894  23.590  0.2625  0.0633  0.1577
48335W        W91388  32.401  12.660   8.736 -0.0963 -0.0613 -0.0740
48336W        W91389   9.102  25.439   8.245  0.1153 -0.2532  0.2669
48337W        W91390   8.060  23.598  25.692 -0.0466  0.2915 -0.2834
48338W        W91391  10.730  31.604  25.464 -0.0642  0.0016  0.5205
48339W        W91392  13.334  30.534  18.271 -0.1341 -0.1475 -0.0652
48340W        W91393   1.669   5.560  21.374  0.1076  0.3258 -0.0046
48341W        W91394  17.498  11.063  28.096 -0.1424  0.1697  0.2601
48342W        W91395   5.494  23.621  24.995  0.0772  0.1677  0.0064
48343W        W91396  13.956  23.554  15.508  0.0770 -0.1184 -0.5600
48344W        W91397  22.525  25.474  21.257  0.3416  0.2306  0.1975
48345W        W91398  21.808  31.886  24.952 -0.0050 -0.2180 -0.3379
48346W        W91399   7.243   8.150   1.031  0.1399  0.3100  0.0144
48347W        W91400  29.625  32.754  22.145 -0.0337 -0.1622  0.0583
48348W        W91401  12.483  18.276  18.572 -0.0440 -0.0129  0.0274
48349W        W91402  18.971   4.961  21.496  0.1308  0.0001  0.1877
48350W        W91403   0.629   4.472   1.359  0.2589 -0.2238  0.1825
48351W        W91404   9.634  29.973  15.066 -0.0662 -0.0995  0.0614
48352W        W91405   4.470   6.945  20.347 -0.1305 -0.0894 -0.0254
48353W        W91406  32.623  25.041  14.703 -0.0870  0.0265  0.0401
48354W        W91407   8.935  25.168   3.651  0.3519  0.0262  0.2099
48355W        W91408  15.455  23.472  26.982  0.0524 -0.2168  0.1270
48356W        W91409   2.368  20.513  19.356 -0.0712  0.2804  0.0042
48357W        W91410  16.810  29.064  18.952  0.3249  0.0722 -0.0857
48358W        W91411   6.515   9.467  25.793  0.0489  0.0033  0.0031
48359W        W91412  33.936  30.131  24.323  0.0391 -0.0343 -0.0809
48360W        W91413  14.814  20.376   8.106  0.0092  0.0785 -0.3311
48361W        W91414  34.294  15.283  17.749 -0.3230 -0.1087  0.3041
48362W        W91415   1.972  26.512  24.397  0.3168  0.3359  0.1307
48363W        W91416  21.141  22.057  19.187  0.3454 -0.0975  0.1871
48364W        W91417   9.014  23.367   0.175 -0.0819 -0.0070  0.1654
48365W        W91418   9.923  29.495   1.209 -0.1816 -0.2088  0.0842
48366W        W91419   6.732  15.148  22.078  0.0768  0.0478  0.2341
48367W        W91420   9.787  18.504  21.995  0.0557 -0.0672 -0.0694
48368W        W91421  11.783  24.315  28.122 -0.0104 -0.1193 -0.0395
48369W        W91422   7.105  11.900  25.357  0.1856  0.2573 -0.2012
48370W        W91423  18.806  15.020   1.941  0.2324  0.0717 -0.2362
48371W        W91424   3.948  23.461  17.549  0.1667 -0.1049 -0.0524
48372W        W91425   3.331  14.059  19.749 -0.0815  0.0686  0.1412
48373W        W91426   5.118  20.432  22.834 -0.1623 -0.1148  0.1805
48374W        W91427   9.165  20.461  26.838  0.0556 -0.0094 -0.1606
48375W        W91428   9.408  19.715  22.033  0.1087  0.0079  0.0754
48376W        W91429  25.234  21.805  24.508 -0.0682 -0.1518 -0.0033
48377W        W91430   2.077  33.513  22.879  0.2095 -0.0191 -0.0192
48378W        W91431   1.850  26.564  16.697 -0.0994  0.2172 -0.0012
48379W        W91432   4.051  24.136   0.388  0.0886  0.0835  0.0766
48380W        W91433   0.531  30.638  16.085 -0.2112 -0.2884  0.3759
48381W        W91434  12.091  20.508  20.179  0.2305 -0.5167  0.0292
48382W        W91435  12.458  14.524   1.256  0.1314  0.2496  0.3370
48383W        W91436  19.834  29.894  27.979  0.0535  0.2127 -0.0165
48384W        W91437   5.521  31.943  20.644 -0.1065  0.2330 -0.0631
48385W        W91438   7.012  24.229  18.338 -0.1973  0.1210  0.1483
48386W        W91439  18.026  17.196  15.360 -0.1066  0.1167 -0.2091
48387W        W91440   1.810   3.572  19.586  0.1761 -0.0124  0.1963
48388W        W91441  21.912   4.643  14.655  0.2760  0.0099  0.0458
48389W        W91442  14.116  33.479  24.693  0.4299  0.0695 -0.1999
48390W        W91443   0.426  20.332  18.813 -0.1168 -0.0773 -0.2175
48391W        W91444  20.332  21.842  19.994 -0.1850 -0.0494 -0.0147
48392W        W91445   9.402  27.989  12.930  0.2065 -0.1880  0.1792
48393W        W91446   5.747  18.358   7.756 -0.4620  0.0821 -0.1337
48394W        W91447   7.052  25.796  14.471 -0.0216 -0.0891  0.0320
48395W        W91448  33.646  22.183   2.198  0.2466  0.1174 -0.0406
48396W        W91449  31.703  10.577  16.192 -0.0735 -0.0759 -0.1126
48397W        W91450   8.089  21.596  24.100 -0.0528 -0.0721 -0.3057
48398W        W91451  16.717  34.572   2.201  0.2082 -0.0267  0.0471
48399W        W91452  27.727  27.551  26.765  0.0724  0.1288 -0.0512
48400W        W91453   0.095  19.413  22.044  0.0424 -0.2829  0.1319
48401W        W91454  34.355  29.842  24.306  0.1762  0.1581 -0.4198
48402W        W91455   7.515  27.535  20.101  0.3225  0.0035 -0.1101
48403W        W91456   1.689   1.938  24.460 -0.2182 -0.0900  0.0674
48404W        W91457  24.222  31.870   6.324  0.0992 -0.2399  0.0144
48405W        W91458  20.580   0.106  22.478 -0.2232 -0.2307  0.1423
48406W        W91459   6.051  21.783   2.280  0.0035 -0.0316 -0.1255
48407W        W91460   3.248  26.055   1.307  0.0365  0.4861  0.1805
48408W        W91461   0.580  28.334  16.198 -0.2569  0.2812 -0.1133
48409W        W91462  11.505  18.233  13.876  0.0433 -0.0798  0.0755
48410W        W91463  20.999  32.600   0.238 -0.2617 -0.2243  0.0435
48411W        W91464  20.264  24.656  28.310 -0.2398 -0.2484  0.0062
48412W        W91465  11.204  32.946  26.007 -0.1931 -0.0158 -0.3418
48413W        W91466   5.992  25.836  15.398 -0.0383 -0.0720  0.3815
48414W        W91467   8.809   2.392  16.525 -0.0300  0.2036 -0.2168
48415W        W91468   6.680  11.947  18.930 -0.3635 -0.0258  0.2694
48416W        W91469  13.270  14.986   2.529  0.1330  0.0497  0.1610
48417W        W91470   3.686  31.442  21.559  0.4836  0.3207  0.1772
48418W        W91471  12.589  28.185  20.031  0.1196  0.1119 -0.2331
48419W        W91472  16.067   1.907  13.576 -0.1342 -0.2818  0.2300
48420W        W91473   7.393  14.457  25.669  0.2104  0.0251  0.1706
48421W        W91474  12.719  23.758  26.606 -0.0739  0.1245 -0.2827
48422W        W91475   2.050  11.115  27.382  0.0284  0.1431 -0.3174
48423W        W91476  23.651  13.864  24.856 -0.2392  0.0380  0.1844
48424W        W91477  33.985  20.236   1.982  0.1145  0.3164  0.0464
48425W        W91478  20.606  23.782  21.720 -0.0396  0.5729 -0.0641
48426W        W91479   5.901  27.745  17.931 -0.1345  0.0179 -0.2641
48427W        W91480  16.740   2.257  18.812 -0.2611  0.3217 -0.0814
48428W        W91481  16.428  28.557  15.973 -0.1355 -0.2870 -0.2559
48429W        W91482  32.828  21.131  18.875  0.0463 -0.0185  0.3078
48430W        W91483   6.571  28.514  21.138  0.1505  0.1126  0.0301
48431W        W91484  16.303   6.165  27.255  0.0899 -0.1462 -0.2036
48432W        W91485  20.952  24.064   9.542  0.0460 -0.1478 -0.3250
48433W        W91486   7.184  21.003  26.316 -0.2241 -0.0378  0.1041
48434W        W91487  15.086  25.937   9.959  0.1174 -0.2024 -0.2154
48435W        W91488  34.335   0.159  28.205  0.3089 -0.1277 -0.1086
48436W        W91489   8.070   7.918  15.954  0.2126 -0.1054 -0.2333
48437W        W91490   1.109  13.634   0.813 -0.0184  0.0188 -0.2023
48438W        W91491  29.655  30.605  18.490  0.0827 -0.0565 -0.2208
48439W        W91492   5.446   8.930   4.146  0.0824 -0.2774 -0.0002
48440W        W91493   0.678  30.483  22.025 -0.0017  0.0423  0.2296
48441W        W91494  16.145  12.416   4.036  0.0849  0.1853 -0.1386
48442W        W91495  16.097  32.275  16.267  0.0092 -0.0074  0.3296
48443W        W91496   0.336  11.797  24.056 -0.0577 -0.1960  0.0770
48444W        W91497  18.076   1.941  18.303  0.1746 -0.2015 -0.2733
48445W        W91498  33.480  33.904  14.900 -0.2727 -0.1042  0.2040
48446W        W91499   1.445  13.347   3.939  0.0357  0.1571  0.0276
48447W        W91500  11.160  21.886  21.678 -0.1059  0.1764  0.2304
48448W        W91501   9.820  20.066   0.372  0.2112  0.0322  0.0060
48449W        W91502   2.355  33.910   2.814  0.1990 -0.0791  0.2249
48450W        W91503  32.454   9.879   8.515 -0.2194  0.1497 -0.0229
48451W        W91504  31.367  17.171  29.079  0.0854  0.2176  0.1421
48452W        W91505   7.098  22.795   0.422 -0.3697 -0.2175  0.0723
48453W        W91506   9.714  32.505  15.080 -0.0157  0.0008  0.0111
48454W        W91507  30.919  10.489  27.874 -0.3411  0.2457 -0.0710
48455W        W91508  33.688  30.345  17.836  0.2313 -0.2581 -0.2820
48456W        W91509   6.794  27.235  14.050 -0.3288  0.1614 -0.0019
48457W        W91510  20.622  33.144   0.046  0.3116 -0.1592 -0.0307
48458W        W91511   8.211  28.835   6.937  0.2484  0.0056  0.2166
48459W        W91512  13.015  25.631  17.551 -0.0968  0.0837  0.2693
48460W        W91513  13.566  18.040  23.581  0.4581 -0.0441  0.0154
48461W        W91514   2.583  31.331  29.083 -0.3623  0.1997 -0.0343
48462W        W91515  21.725  27.888  21.915  0.0366 -0.1014 -0.0609
48463W        W91516  10.577  17.118   1.761 -0.0653 -0.1843 -0.0172
48464W        W91517   6.285  23.362  17.782  0.0380  0.1339 -0.0188
48465W        W91518   6.008  19.433   2.907 -0.0121  0.2965 -0.0500
48466W        W91519   2.345  21.741  23.520  0.1054 -0.0194  0.0223
48467W        W91520  10.248  26.075  17.692  0.3605 -0.0772 -0.3190
48468W        W91521  24.533  20.750  22.541 -0.0737  0.0392  0.0764
48469W        W91522  25.261  16.640  19.690  0.1454  0.1345 -0.2249
48470W        W91523   8.430  28.830  19.032 -0.1181 -0.0498 -0.1788
48471W        W91524  22.173  28.435  14.486  0.0450 -0.0115  0.0371
48472W        W91525   6.545  23.683  27.143  0.1299  0.1902 -0.0515
48473W        W91526   6.573  14.751  21.839 -0.1243 -0.5123  0.0055
48474W        W91527  27.584  31.084  14.026  0.2555  0.3713  0.1852
48475W        W91528   8.608  26.329  17.041  0.1544 -0.0897 -0.5595
48476W        W91529   4.618  15.787  24.535 -0.0801 -0.2125 -0.0160
48477W        W91530  21.089  33.485   3.108  0.1221 -0.0652  0.0889
48478W        W91531   0.681  14.385  24.865  0.0386  0.2398  0.3163
48479W        W91532  19.745  25.400  29.021  0.1834 -0.0405  0.1394
48480W        W91533   6.077  23.736  17.446  0.0989 -0.0497 -0.1872
48481W        W91534  18.784  30.791  16.944  0.3343 -0.0062  0.0563
48482W        W91535  14.484  13.931  21.112  0.1455 -0.1323 -0.3561
48483W        W91536   5.467   5.760  18.416  0.0432 -0.1641 -0.2507
48484W        W91537  12.250  32.675   5.659 -0.0860  0.3344  0.2733
48485W        W91538  20.363  29.932   7.872 -0.1389  0.2089  0.0739
48486W        W91539  31.417  23.603  20.748  0.0277 -0.0038 -0.0626
48487W        W91540  10.589  20.085  21.931 -0.1827 -0.1043  0.0748
48488W        W91541  10.137  14.196  21.631 -0.0620  0.1704  0.1093
48489W        W91542  14.831  31.810  25.039  0.3448 -0.0484  0.2574
48490W        W91543   7.780  10.109  18.719 -0.1907  0.1246 -0.1438
48491W        W91544   8.513  24.720  28.339  0.3081  0.3316  0.1849
48492W        W91545  27.394  14.823  17.274 -0.2408 -0.1926 -0.1221
48493W        W91546   3.765   9.051  26.226 -0.1205 -0.0539 -0.0156
48494W        W91547   8.493  23.022  29.047  0.2042 -0.0516 -0.0262
48495W        W91548  19.650   1.128  17.995  0.1623  0.0712 -0.0692
48496W        W91549  20.598  24.904  16.726  0.0190 -0.0501  0.4741
48497W        W91550  29.968   5.154  16.409 -0.1553  0.0184  0.3815
48498W        W91551  33.637  23.941  23.255  0.2644  0.0889  0.2167
48499W        W91552  34.529  28.440  25.394  0.2110 -0.1854  0.1600
48500W        W91553  19.185  17.098  14.886 -0.3740  0.0497 -0.1530
48501W        W91554   9.662   7.056  26.713 -0.0825  0.0453 -0.0428
48502W        W91555  11.570  16.569  17.634  0.1856  0.2274  0.0594
48503W        W91556  13.118  12.496  22.663 -0.0008 -0.2504  0.1516
48504W        W91557   2.341  20.235  15.395 -0.1141 -0.3983 -0.2204
48505W        W91558  13.165  29.742  17.958 -0.3791 -0.0902  0.0342
48506W        W91559   6.261  28.403  17.637  0.2681  0.0579  0.2100
48507W        W91560   3.525   2.761  18.860 -0.2430 -0.0769  0.0298
48508W        W91561  30.589   4.091  16.406  0.0139  0.3468  0.4475
48509W        W91562   8.150  17.783  18.997 -0.2661  0.0785  0.0383
48510W        W91563   2.792  20.665  24.408 -0.3328 -0.4615  0.0244
48511W        W91564  13.414  13.826  26.292  0.0506  0.1018  0.2393
48512W        W91565  22.833  23.367  19.798  0.4062  0.1255  0.3365
48513W        W91566   1.056  29.303  25.588 -0.1304  0.1878  0.2880
48514W        W91567   4.727  16.183  24.810 -0.1652  0.1983  0.1869
48515W        W91568  27.015  23.368   4.617  0.0067  0.3606  0.0503
48516W        W91569  22.941  27.235  20.412 -0.4243  0.0226  0.4239
48517W        W91570  24.090  32.700  14.921  0.1192  0.1694 -0.1296
48518W        W91571  15.994   3.684  16.691 -0.1352  0.2010 -0.0359
48519W        W91572   0.412  26.096   2.755  0.0787 -0.1636 -0.0487
48520W        W91573   6.648  31.967  14.832 -0.0108 -0.1434 -0.1757
48521W        W91574  31.469  11.606  22.065 -0.0129 -0.2642  0.2698
48522W        W91575   3.104  33.784  15.921 -0.3661 -0.1282  0.0745
48523W        W91576   3.491  33.416   4.769  0.1552  0.2871 -0.2480
48524W        W91577  10.640  12.910  22.437 -0.3277 -0.1171 -0.0860
48525W        W91578  31.300  27.071   9.148 -0.0217  0.2013 -0.1247
48526W        W91579  24.565  26.574  20.387  0.1036  0.1336  0.1489
48527W        W91580   4.576  24.575   2.795  0.2475 -0.0502  0.1647
48528W        W91581   2.578  31.656  18.711  0.0035  0.0694 -0.0068
48529W        W91582  14.929  10.434   8.145 -0.2674 -0.1010  0.0946
48530W        W91583  14.641  21.584  27.041 -0.0257  0.0409  0.2257
48531W        W91584  23.700  31.822  16.795  0.2766  0.4048  0.0029
48532W        W91585   0.434  25.274  16.423  0.0295  0.0453  0.1367
48533W        W91586  32.135  23.270  16.257 -0.1482  0.1346  0.0410
48534W        W91587   8.851  28.531  24.042  0.2221  0.0184 -0.0932
48535W        W91588   8.025  28.671  26.463  0.0858  0.1302  0.0387
48536W        W91589   1.521  25.556  27.981 -0.2928 -0.1679 -0.3377
48537W        W91590  27.163  17.620  16.376 -0.0805 -0.0556  0.0182
48538W        W91591   3.403  33.674  19.842  0.3263 -0.1956  0.1941
48539W        W91592  31.767  24.158  24.747 -0.2577  0.2680 -0.0273
48540W        W91593  13.954  29.956  27.143 -0.0175  0.0098 -0.1621
48541W        W91594  16.829  14.338  16.414  0.2853  0.0075 -0.2592
48542W        W91595   4.120   0.481  27.589  0.0027  0.3133 -0.5185
48543W        W91596  27.087  28.745  19.594 -0.0326 -0.3004  0.0248
48544W        W91597  14.046   2.306   5.880  0.1431  0.1265  0.1930
48545W        W91598  15.356   3.142  20.713 -0.0471  0.1620 -0.1049
48546W        W91599   2.633  31.841  23.015 -0.0666  0.0155  0.0766
48547W        W91600   5.432  13.738  21.909  0.1347 -0.2282 -0.0729
48548W        W91601  10.007  20.575  17.942  0.0192 -0.3179  0.1959
48549W        W91602  10.634  31.930  18.832 -0.3116  0.2222 -0.0496
48550W        W91603   0.823  16.364   0.122  0.1674  0.0547 -0.2246
48551W        W91604  27.759  23.088  17.872  0.2533 -0.0056  0.1758
48552W        W91605  11.105  14.484  20.332  0.1551 -0.0243 -0.0590
48553W        W91606   3.758  16.239   7.803 -0.0287  0.2445  0.1231
48554W        W91607  25.959  27.037  22.810 -0.1359  0.1352 -0.0871
48555W        W91608   4.933  29.630  17.795 -0.0633 -0.3592  0.2862
48556W        W91609  12.866  28.856  21.282  0.1614 -0.1084  0.0099
48557W        W91610  10.357  30.016  26.925 -0.0680  0.3000  0.0198
48558W        W91611  19.001   8.110  14.121  0.0933  0.2269  0.0046
48559W        W91612  12.786  25.344  18.033 -0.1337  0.1379  0.1223
48560W        W91613   6.451  11.964  21.140 -0.2193 -0.1250 -0.1040
48561W        W91614  16.986  21.521  25.505 -0.1523 -0.0426  0.1078
48562W        W91615   0.456  23.414   4.925  0.0787  0.0578 -0.1178
48563W        W91616  12.747  30.590  16.540  0.1162 -0.0045 -0.1088
48564W        W91617   5.538  17.429  21.875 -0.0211 -0.3717 -0.1207
48565W        W91618  18.474  27.240  22.211 -0.4140 -0.1082 -0.2098
48566W        W91619  19.601  23.049  15.877  0.0616 -0.1908  0.2424
48567W        W91620   9.656   2.827   2.483  0.0375 -0.1043 -0.0468
48568W        W91621  32.447  34.272  19.891 -0.0222  0.1569 -0.0055
48569W        W91622  17.820  29.629  16.377 -0.1857  0.1157 -0.1634
48570W        W91623  10.728   7.106   3.480  0.2481 -0.1230 -0.0606
48571W        W91624   6.949  31.311  14.326 -0.0604  0.2194  0.2624
48572W        W91625  14.312  22.665  15.964  0.0016  0.2567 -0.1128
48573W        W91626  33.515   5.617   3.126 -0.0713 -0.1670 -0.1183
48574W        W91627   8.982  21.831  15.660 -0.1938  0.0448 -0.0319
48575W        W91628   2.577  24.096  15.543  0.1138 -0.0842  0.2995
48576W        W91629  10.195  28.756   6.394 -0.0198 -0.0775 -0.1669
48577W        W91630   2.960  33.042  14.516 -0.1817  0.1918  0.0605
48578W        W91631  31.296  21.120  18.100 -0.0465  0.4891  0.2758
48579W        W91632   5.032  28.959  17.541 -0.1045 -0.1257  0.0899
48580W        W91633   0.800  15.548   8.927 -0.3978  0.0189 -0.0691
48581W        W91634  34.035  34.679  19.001 -0.0030 -0.1878 -0.2762
48582W        W91635  26.926   6.206  15.346  0.1283 -0.1389 -0.0442
48583W        W91636  26.509   1.322  18.915 -0.1700  0.3944 -0.1688
48584W        W91637  13.929  32.323   5.275 -0.1245  0.2306 -0.0395
48585W        W91638  26.979  20.698   0.627 -0.0178  0.0062  0.1094
48586W        W91639   0.760  13.097  14.211  0.0568  0.1144 -0.1688
48587W        W91640  10.404   0.976  21.020 -0.2513  0.1249 -0.1224
48588W        W91641   6.443   6.777  15.978 -0.2465  0.1443  0.1514
48589W        W91642  19.216  30.247  19.135  0.0579  0.1306  0.1794
48590W        W91643   4.346  22.915  14.795  0.0310 -0.4284 -0.2665
48591W        W91644   9.736  18.256   0.837 -0.0597  0.2480  0.4133
48592W        W91645   7.909  31.909  14.952  0.1458 -0.3689 -0.1826
48593W        W91646  17.280  32.786  28.678 -0.0326 -0.1036  0.2632
48594W        W91647   6.277  17.231  23.658  0.1555  0.2106  0.1758
48595W        W91648  15.091  34.526  21.373 -0.0353 -0.4603 -0.2636
48596W        W91649   1.480  17.466  15.925  0.0718 -0.0143  0.2712
48597W        W91650  15.002   9.717  25.356  0.2340 -0.2475 -0.0120
48598W        W91651  25.062  34.219   4.706  0.0005 -0.1171  0.0388
48599W        W91652  22.656   6.199   4.876 -0.1776 -0.1504  0.1144
48600W        W91653   0.086  25.907  26.425 -0.0559  0.0236  0.0471
48601W        W91654   5.665  17.975  22.061 -0.0331  0.1141  0.0723
48602W        W91655  22.434   7.147  21.902  0.1199  0.1818 -0.0477
48603W        W91656  19.766  23.449  15.586  0.2464  0.0836 -0.2829
48604W        W91657  11.075  31.878  25.800  0.0887 -0.0861  0.0893
48605W        W91658   7.303   6.798  21.437 -0.3036  0.3133  0.2971
48606W        W91659  18.800  29.316  26.057 -0.0906 -0.2337  0.0438
48607W        W91660  18.601  26.978  19.021  0.0721 -0.0794  0.1754
48608W        W91661  22.463  23.548  16.570  0.0779 -0.2653  0.2672
48609W        W91662  16.051  26.699  17.304 -0.1741  0.0028  0.1333
48610W        W91663  19.853   1.210  23.308 -0.1465  0.1821  0.0954
48611W        W91664   5.832  23.514  18.033  0.1193 -0.0808  0.2850
48612W        W91665   5.886   7.909  28.334  0.2977 -0.0186 -0.0809
48613W        W91666   6.685  26.985  16.630 -0.0957 -0.3124  0.0972
48614W        W91667  13.858  28.789  19.321  0.0897 -0.2194 -0.0823
48615W        W91668   7.936  25.209  21.956 -0.0869 -0.0318  0.1221
48616W        W91669   0.312  30.007   4.153 -0.0373  0.1476  0.0910
48617W        W91670  22.884  23.659  27.230 -0.0553 -0.3360 -0.3005
48618W        W91671  16.829  28.952  28.023  0.1140  0.1116  0.1305
48619W        W91672   5.285  14.891  18.991 -0.0274 -0.0195 -0.0412
48620W        W91673  15.079  28.951  20.069 -0.1697 -0.1378 -0.1269
48621W        W91674  12.604  29.470  14.195  0.0835  0.0433  0.4379
48622W        W91675   8.018  12.435  18.524  0.0289  0.0494 -0.2140
48623W        W91676  19.608  27.403  23.025 -0.4693 -0.0501 -0.3386
48624W        W91677   0.600  18.120  27.982  0.0072  0.0986  0.0388
48625W        W91678  30.165  18.346  16.385 -0.1886  0.1019 -0.0660
48626W        W91679  13.865   9.312   7.856  0.0886  0.1701  0.1166
48627W        W91680   1.623  17.146  20.108 -0.0334 -0.0978 -0.1605
48628W        W91681   7.422  33.635   4.126  0.0690 -0.0487  0.1969
48629W        W91682  27.627  25.567  27.786 -0.0089  0.1217  0.0888
48630W        W91683  12.439  17.034   2.246 -0.3599  0.0592  0.0231
48631W        W91684  30.273  31.139  13.634  0.4445  0.1905 -0.1300
48632W        W91685   4.498  15.966  21.195  0.0716 -0.0448 -0.4532
48633W        W91686   4.869  27.955  26.479 -0.2752  0.2348 -0.0401
48634W        W91687  16.024  26.343  15.561  0.1806  0.0902  0.1158
48635W        W91688  19.495  20.643   8.064 -0.3683 -0.0496  0.2550
48636W        W91689   9.925   1.276  23.932 -0.0850  0.4393 -0.1025
48637W        W91690  33.220  31.222  27.673  0.3608 -0.2401  0.1781
48638W        W91691  28.197  13.420   8.109  0.1132 -0.1885 -0.1008
48639W        W91692   6.763  28.792  21.613  0.1473  0.1284 -0.1220
48640W        W91693  14.921   0.371  19.265  0.1790 -0.0587 -0.1255
48641W        W91694   9.544  14.545   7.642 -0.0924  0.0942 -0.1785
48642W        W91695   0.286   1.286   5.871  0.1098 -0.0291 -0.4049
48643W        W91696  13.861  23.971  15.292  0.0041  0.0932  0.0247
48644W        W91697   0.201  15.022  17.993 -0.0088  0.1896 -0.0679
48645W        W91698  12.664   3.761  24.997 -0.1862  0.2564 -0.0472
48646W        W91699  20.745  21.824  25.652  0.3061  0.3751  0.1953
48647W        W91700   9.377  12.832  21.798  0.1209 -0.1660 -0.2015
48648W        W91701   5.781  29.913  19.461 -0.0504  0.0228 -0.0057
48649W        W91702   8.935  25.357  22.341 -0.2409  0.0369 -0.3771
48650W        W91703  13.115  15.969  19.314 -0.0284 -0.0391 -0.1360
48651W        W91704   4.256   9.850  20.349  0.1991  0.1393  0.1322
48652W        W91705   3.437   0.343   1.784  0.1772 -0.4657 -0.1932
48653W        W91706  29.918   9.369   1.799 -0.0880 -0.1601  0.0040
48654W        W91707  21.590   0.487  24.984  0.1353  0.1842 -0.4603
48655W        W91708  12.122   2.656   1.347  0.1525 -0.3635  0.2021
48656W        W91709  32.596  10.289   5.800 -0.2073  0.0114 -0.0068
48657W        W91710   6.805  28.803   4.066  0.1726 -0.1061  0.2426
48658W        W91711  18.068   0.271   7.293  0.2111  0.0891  0.1811
48659W        W91712  12.727   3.003  14.636  0.0017  0.1103 -0.0186
48660W        W91713  12.360  29.733  28.167 -0.0754  0.1452  0.1021
48661W        W91714  17.859  26.278  25.944  0.0062 -0.1211  0.2679
48662W        W91715  34.006  33.566   7.585  0.0211 -0.2223 -0.1117
48663W        W91716  10.477  25.860  22.271  0.0507 -0.2173 -0.0349
48664W        W91717  20.862  27.422  15.011 -0.1739 -0.0134  0.1986
48665W        W91718   7.764  26.640   8.984 -0.2817 -0.1363  0.1871
48666W        W91719  23.130   3.579  17.894 -0.0449  0.2568 -0.0647
48667W        W91720  12.274   2.571  22.428 -0.2528  0.1027  0.2433
48668W        W91721   3.421  29.069   1.563  0.1598  0.0262  0.2548
48669W        W91722  32.218   6.266  18.997 -0.0085 -0.1919 -0.2545
48670W        W91723   0.894  22.655  25.230  0.0395  0.2766 -0.1583
48671W        W91724   5.083  23.152  16.099 -0.0073 -0.1285  0.1290
48672W        W91725  11.329   4.024   8.904  0.2086  0.1458 -0.2821
48673W        W91726  12.288  31.687  28.864 -0.1291 -0.0872 -0.0675
48674W        W91727   0.840  22.835  18.105 -0.4197 -0.0853  0.1064
48675W        W91728   8.663   2.818  25.783 -0.0598 -0.3843  0.1821
48676W        W91729  30.038  26.254  29.127 -0.0648 -0.1478 -0.1760
48677W        W91730  33.941  12.144  28.668  0.1716 -0.1208  0.0967
48678W        W91731   5.285  33.151   4.665 -0.0191  0.2252 -0.3306
48679W        W91732  11.825  15.798   1.867  0.0469 -0.2415 -0.2389
48680W        W91733  33.721  30.213   5.695 -0.1529  0.0873  0.1223
48681W        W91734  11.698  15.533  19.551  0.2616  0.0880  0.1429
48682W        W91735  19.195  25.226  25.290  0.0982  0.0134  0.0908
48683W        W91736   9.611  34.420  28.644 -0.1786  0.2173  0.1113
48684W        W91737   6.987   5.561   3.803  0.0564 -0.0625 -0.0369
48685W        W91738  33.070   0.069   1.775  0.2238 -0.2305  0.0029
48686W        W91739  12.240   5.133  18.779  0.3848  0.2386  0.0171
48687W        W91740   5.755   6.489  20.725 -0.0701  0.1828 -0.1850
48688W        W91741   5.262  16.233  20.082  0.0807 -0.0641  0.0050
48689W        W91742   0.710   8.157  27.177 -0.1186  0.5161 -0.3869
48690W        W91743  21.162  20.791   2.445 -0.1583  0.2749  0.2645
48691W        W91744  11.297  17.516  26.201  0.2379  0.1286  0.0982
48692W        W91745  24.139   5.445  19.188 -0.1927  0.0342  0.1994
48693W        W91746  34.284  32.054  27.602 -0.0763 -0.0352 -0.3183
48694W        W91747  11.713  20.344  19.904  0.0588 -0.0630 -0.0840
48695W        W91748  11.758  16.412   4.062 -0.0178 -0.2229 -0.3244
48696W        W91749   7.016  10.655  27.011  0.1253 -0.5822  0.1566
48697W        W91750  10.299   0.947   6.766 -0.1508 -0.1281  0.0823
48698W        W91751   7.179  16.128  16.287 -0.1633  0.2940  0.2184
48699W        W91752  12.756  23.612  27.191  0.1855  0.1768 -0.1372
48700W        W91753  25.531  31.094  28.560  0.0872 -0.1505  0.1188
48701W        W91754  15.750  18.871  25.185  0.1209 -0.2292  0.1834
48702W        W91755  15.693  20.379   0.066 -0.1199 -0.2028  0.2597
48703W        W91756  14.400  24.903  25.435 -0.1022  0.0796 -0.2381
48704W        W91757  19.829   0.329  21.892  0.0095  0.0788  0.0554
48705W        W91758  20.875  33.022  26.186 -0.2123  0.0295  0.0334
48706W        W91759   4.491  25.011   0.803 -0.1976 -0.0894 -0.2031
48707W        W91760  19.565  18.684  15.571  0.6262  0.2277 -0.0884
48708W        W91761  22.018  14.355  14.771  0.2232  0.1018 -0.1972
48709W        W91762   5.679  30.105   6.542 -0.1327  0.1944  0.0208
48710W        W91763  27.705  21.146  18.833 -0.1567  0.0682 -0.2273
48711W        W91764  30.973  28.476  16.065  0.0018 -0.2997  0.2289
48712W        W91765   9.763   9.720   3.790  0.0823 -0.2420  0.2329
48713W        W91766   7.964  26.488   0.295 -0.3381 -0.3500  0.2541
48714W        W91767  26.355   2.800   3.780  0.3393  0.0469  0.1944
48715W        W91768  16.071  31.145  14.119 -0.0305  0.0834 -0.2446
48716W        W91769  10.290  20.185   9.240 -0.0544 -0.2248 -0.2644
48717W        W91770  18.212  15.644  25.371 -0.3747  0.0731 -0.0560
48718W        W91771  20.974  17.021   2.047 -0.1648 -0.0345 -0.0932
48719W        W91772  10.849  15.471  19.738 -0.0064 -0.2891  0.1110
48720W        W91773   5.219  30.813   8.601 -0.1208 -0.1457  0.1480
48721W        W91774   3.869  21.468   2.629  0.1712 -0.1789  0.0475
48722W        W91775  20.089  28.246   2.653 -0.1728 -0.0677  0.2221
48723W        W91776   1.481  27.036   2.014 -0.0593 -0.0366 -0.0545
48724W        W91777  20.373   1.687   2.385 -0.1556 -0.1346  0.0921
48725W        W91778   2.902  20.062  22.987 -0.1741  0.0567 -0.4961
48726W        W91779  33.353  22.314  23.781 -0.0480 -0.1531 -0.0432
48727W        W91780  23.398  13.766   2.833 -0.1187 -0.3702  0.4072
48728W        W91781  29.120   5.617   4.468 -0.0501 -0.0888 -0.1977
48729W        W91782  19.824  18.628   7.757  0.0158 -0.0990 -0.0949
48730W        W91783   4.519  21.113  26.373  0.2148 -0.1724 -0.1240
48731W        W91784   8.753  27.847   6.148 -0.2653  0.0247 -0.2393
48732W        W91785  11.085  28.902  26.988  0.0905 -0.1330 -0.1512
48733W        W91786   9.207   6.509   4.886 -0.0821 -0.1228  0.0006
48734W        W91787   8.967  20.106   0.568 -0.3002 -0.1618 -0.1350
48735W        W91788  13.425  21.904   8.741  0.2081  0.2390 -0.0860
48736W        W91789   6.971   1.531   1.997 -0.1633  0.0851  0.2556
48737W        W91790  28.507  33.239   9.679 -0.1472 -0.0557  0.0672
48738W        W91791  12.156  27.067   6.422  0.3353 -0.0409 -0.4690
48739W        W91792  15.628  18.600  27.901  0.0180 -0.1625  0.0031
48740W        W91793  27.089  27.169  27.057  0.2221  0.1193  0.1007
48741W        W91794  18.580  17.300   9.980 -0.1077  0.1641  0.0003
48742W        W91795   6.502  25.915  15.442  0.1933  0.2881  0.1006
48743W        W91796  16.337  25.066  14.810  0.1834  0.0267  0.1137
48744W        W91797   5.173  30.417   0.707  0.0346  0.2307 -0.1248
48745W        W91798  14.106  32.444  28.398 -0.0873 -0.0771 -0.0388
48746W        W91799   6.855  10.761  27.973 -0.2115 -0.2027 -0.0893
48747W        W91800  10.703  27.731   1.338 -0.0201 -0.0237 -0.2182
48748W        W91801  13.730  13.301  27.109 -0.1484 -0.4415  0.1159
48749W        W91802   9.226  19.343  25.110 -0.1157  0.1756 -0.2243
48750W        W91803  13.652   3.699  10.296  0.2524  0.0974 -0.2434
48751W        W91804   3.773  23.212  20.772  0.0960  0.0898 -0.0084
48752W        W91805  32.960   8.435   3.049  0.3261  0.0815 -0.3178
48753W        W91806   9.830  12.282  29.089  0.0796  0.0502  0.1952
48754W        W91807  11.959  28.851  27.037 -0.0220  0.2931  0.3005
48755W        W91808  14.119  28.301  23.725  0.1596 -0.1514  0.0597
48756W        W91809  25.727  34.061   3.812 -0.1425 -0.0791  0.0352
48757W        W91810  16.717  27.964  10.183  0.0823  0.0900 -0.1751
48758W        W91811  14.940  25.000   0.777 -0.1038  0.1377  0.3061
48759W        W91812   7.646  19.096  27.760 -0.0574  0.2447 -0.2224
48760W        W91813   3.182   8.186   8.214 -0.0406  0.6129 -0.0965
48761W        W91814  12.781  30.605   8.838  0.1089  0.2158 -0.1313
48762W        W91815  14.112  20.798  24.575 -0.3094 -0.0309  0.2709
48763W        W91816   5.974  28.676  27.203 -0.1193  0.1417 -0.0202
48764W        W91817  30.421  15.624  17.131  0.0693 -0.0356 -0.2634
48765W        W91818  11.214  19.956   2.661  0.4328  0.1906 -0.1325
48766W        W91819  16.036  21.181  15.801 -0.1937 -0.0463 -0.2540
48767W        W91820  31.754  31.395   2.737  0.2111 -0.0080  0.1250
48768W        W91821  21.704  16.068  12.479  0.3602  0.2141  0.3295
48769W        W91822   1.317  32.276  24.843 -0.1784  0.4960 -0.2375
48770W        W91823   7.294  23.857  21.623  0.2270  0.1385  0.0483
48771W        W91824  13.352  21.407  21.807  0.2428  0.0485 -0.3342
48772W        W91825  12.391  27.767  15.149 -0.1475  0.0013 -0.1197
48773W        W91826   5.439   9.622  25.889  0.0423 -0.0578 -0.3610
48774W        W91827  32.388   9.646  21.412 -0.0222  0.0939 -0.2424
48775W        W91828   9.151  11.407   8.180 -0.2383 -0.2778 -0.1242
48776W        W91829  12.972  23.509  18.613 -0.4562  0.0503  0.0306
48777W        W91830  19.060  18.524  27.672  0.1454 -0.1563 -0.2196
48778W        W91831  22.332  28.414   3.946 -0.0315  0.1584 -0.4739
48779W        W91832   1.195   0.595  20.456 -0.1544  0.0481 -0.0776
48780W        W91833  11.400  23.276   3.040  0.0700 -0.0797 -0.0147
48781W        W91834  15.118  26.571  23.983 -0.0814 -0.1560 -0.0057
48782W        W91835  30.275  34.301  14.906 -0.1946 -0.3122 -0.0970
48783W        W91836  23.894  13.059   7.406 -0.1886  0.2093  0.1686
48784W        W91837  16.077  31.094  27.621 -0.1824 -0.2527 -0.0868
48785W        W91838   2.536  34.049  17.720  0.0349  0.1071 -0.0624
48786W        W91839   9.413  20.294   1.326  0.0257 -0.2941  0.0716
48787W        W91840  12.727  29.204   8.492  0.3368 -0.2240 -0.0753
48788W        W91841  26.291  28.635  27.868  0.1200 -0.3681 -0.0122
48789W        W91842   4.585  28.388   0.978 -0.2383 -0.1156 -0.0417
48790W        W91843  10.886  26.942  25.146  0.0341  0.1575 -0.1149
48791W        W91844  12.862  22.113   8.899 -0.2195  0.1270  0.1589
48792W        W91845  15.193  31.553   0.602 -0.1285  0.4737  0.3755
48793W        W91846  32.801   1.167  26.542  0.3647 -0.1755 -0.2219
48794W        W91847  18.685  33.553   3.363  0.1248  0.2159 -0.1683
48795W        W91848  19.460  32.636  25.994 -0.0459 -0.2801 -0.3083
48796W        W91849   1.979  19.442  26.573  0.2965 -0.3764 -0.1523
48797W        W91850   6.153  22.039  25.031 -0.0838 -0.1443  0.0784
48798W        W91851  15.901  22.568   0.280  0.0234 -0.0964  0.2048
48799W        W91852  10.359   7.998   0.170 -0.0929  0.2560 -0.3634
48800W        W91853  11.433   7.993   8.789 -0.0847 -0.3190  0.0835
48801W        W91854  33.037   1.657   3.521 -0.2759  0.0279 -0.2227
48802W        W91855  13.589  16.709  13.897  0.1183  0.0607  0.2178
48803W        W91856  11.298  23.529   7.131 -0.2434  0.0739  0.1505
48804W        W91857   9.665  27.204   8.789  0.1280  0.0383  0.2353
48805W        W91858   7.136  16.267  23.901  0.1641 -0.1300  0.1561
48806W        W91859  18.563  29.401  10.067 -0.0856 -0.0829 -0.0142
48807W        W91860  16.252   2.515  27.959  0.0865 -0.0931  0.0153
48808W        W91861  25.260  28.986  23.683  0.0249 -0.2708  0.2509
48809W        W91862   3.177  24.326  19.896  0.2487  0.1509  0.2618
48810W        W91863  19.127  21.092  20.705  0.0375  0.1441 -0.3202
48811W        W91864   7.477  14.281   3.194  0.0835 -0.1737 -0.3348
48812W        W91865   8.223  23.433  16.016 -0.1839 -0.5020 -0.0177
48813W        W91866   2.859  33.000  24.297 -0.0363  0.1694  0.2622
48814W        W91867   1.452  22.214   3.302 -0.1573  0.0212  0.1101
48815W        W91868  28.495   5.425  27.335 -0.4076 -0.3249  0.0856
48816W        W91869   5.346   1.602   6.251  0.0293 -0.3008  0.3016
48817W        W91870   3.175  20.268  24.155 -0.2444 -0.2841  0.0636
48818W        W91871   1.383  21.473  20.909 -0.1880  0.0771  0.1666
48819W        W91872   0.842  31.497  28.985  0.0590  0.2954  0.1817
48820W        W91873   8.590  33.949   0.431  0.1603 -0.2057  0.0855
48821W        W91874  15.778   1.419  17.730  0.3532  0.1747 -0.0725
48822W        W91875  34.160  17.530   2.679 -0.0197  0.0642 -0.2881
48823W        W91876  31.897  19.823   8.662  0.2868 -0.0115 -0.1732
48824W        W91877   3.608   5.201  24.716  0.1932  0.0810 -0.0581
48825W        W91878   5.263   1.655   3.730 -0.2119 -0.0700 -0.0902
48826W        W91879   0.678   4.636  24.524  0.2230  0.0406  0.0498
48827W        W91880  25.122  20.883  21.279  0.0983  0.3899  0.0021
48828W        W91881   5.602  21.486  27.864  0.0162 -0.1840  0.0252
48829W        W91882  26.165  29.898  24.438 -0.2173 -0.3474  0.2303
48830W        W91883   3.137  25.256  21.804  0.0681  0.0964 -0.1186
48831W        W91884  16.459  31.329  16.181  0.2617 -0.1917 -0.1663
48832W        W91885  18.468  22.930  16.329  0.0602  0.0314  0.1160
48833W        W91886   5.250   7.743  18.413  0.0402  0.0374 -0.0173
48834W        W91887   7.452  27.680   6.090  0.3816  0.1785  0.1987
48835W        W91888  34.605  23.766   5.895  0.1394 -0.2500  0.1108
48836W        W91889  15.900  33.850  15.001  0.1118 -0.2044 -0.0816
48837W        W91890  28.334   4.392  17.165  0.2222  0.0826  0.0039
48838W        W91891  22.848   5.836   7.000  0.1769 -0.0354  0.1192
48839W        W91892   6.247  25.021  25.940  0.0361  0.4057  0.0079
48840W        W91893  13.503  24.579   1.637 -0.1542 -0.0426 -0.0099
48841W        W91894  30.618  25.556  16.772  0.0137 -0.0309  0.0030
48842W        W91895  11.212   2.958  18.223  0.3104 -0.0511  0.5287
48843W        W91896  34.613   2.509   3.553  0.1805 -0.1349  0.2044
48844W        W91897  27.740  24.108  26.755  0.0129 -0.2172 -0.0908
48845W        W91898   5.157   1.302  27.576  0.4680  0.0689 -0.1352
48846W        W91899  30.966  11.698   6.804 -0.1536  0.0240 -0.3150
48847W        W91900  28.616   5.421   8.098 -0.1330  0.2342  0.0230
48848W        W91901  16.243  22.376  10.591  0.3192  0.0080  0.2661
48849W        W91902  23.882  27.502   3.679  0.2798  0.3712  0.1428
48850W        W91903  26.802  15.074   6.462  0.0212  0.2277 -0.2564
48851W        W91904  17.334  30.745  20.008  0.1495 -0.0979 -0.0662
48852W        W91905  24.728   7.636   6.455  0.3900 -0.2600 -0.2976
48853W        W91906  14.295   4.004  18.150 -0.2155 -0.1079  0.2878
48854W        W91907   1.386  32.479  23.943  0.0186  0.0084 -0.2138
48855W        W91908   7.054  22.741  23.029 -0.1327 -0.0866 -0.2268
48856W        W91909  13.548   7.893  28.596  0.0609  0.0910 -0.0782
48857W        W91910   7.585  19.576  27.424  0.1472 -0.2680 -0.1935
48858W        W91911  24.583  13.399  18.142  0.0310 -0.2012 -0.0834
48859W        W91912   6.579  19.066  15.565 -0.0172 -0.4186  0.2638
48860W        W91913   4.603  29.523  18.241  0.1543 -0.0872 -0.1134
48861W        W91914  15.332  27.224   4.470  0.0906  0.2525  0.2176
48862W        W91915  33.503  13.005   9.846 -0.1367 -0.1210 -0.1750
48863W        W91916  14.531  22.852   3.228 -0.1360 -0.0740 -0.0710
48864W        W91917   0.950  34.255  21.426  0.1383 -0.0885 -0.0914
48865W        W91918  25.299  11.151  19.247  0.1186 -0.0673  0.2968
48866W        W91919  11.234  18.917   2.885 -0.0904  0.0283 -0.0101
48867W        W91920   6.933  29.110   4.939  0.0314 -0.2593 -0.1425
48868W        W91921  15.807  14.028  25.704 -0.3077 -0.2716  0.0843
48869W        W91922  19.482  16.310  24.198  0.1922  0.2489 -0.1323
48870W        W91923  11.944  28.377  15.609 -0.1618 -0.1480 -0.0123
48871W        W91924   1.497  21.405  27.051 -0.1035 -0.0857  0.0670
48872W        W91925   2.172  25.173  19.730 -0.1745 -0.0510  0.0850
48873W        W91926  34.052  28.651  13.885 -0.0002  0.1317  0.0739
48874W        W91927   5.760   0.534  27.111  0.0109 -0.0480  0.2257
48875W        W91928  32.944  21.891  20.158 -0.0668 -0.0819  0.0287
48876W        W91929  16.653  21.384  28.086  0.1197 -0.1363 -0.0697
48877W        W91930   3.243  33.402  25.155  0.1268  0.2306 -0.0489
48878W        W91931  13.186  23.045   6.433 -0.1806 -0.0722 -0.0226
48879W        W91932   1.191  17.322  27.008  0.0971  0.2939  0.1600
48880W        W91933  22.337  30.678   6.479  0.0279  0.1459  0.2196
48881W        W91934  11.241   2.135   1.901  0.1103 -0.2096 -0.1096
48882W        W91935  16.697  18.497   2.199 -0.0314 -0.1392  0.3875
48883W        W91936  34.422   0.678  24.462  0.0804  0.0821 -0.1840
48884W        W91937  19.130   1.664   2.022 -0.5667 -0.1453 -0.1848
48885W        W91938  14.724  17.894   9.182  0.2827  0.1027 -0.0285
48886W        W91939  16.742   2.218   7.383 -0.2699 -0.0185 -0.0770
48887W        W91940  19.440  10.392   2.798 -0.1069  0.1536 -0.2471
48888W        W91941   3.928  29.164  18.329  0.1221  0.4593  0.1890
48889W        W91942  32.117  20.623  25.236  0.1205  0.5568 -0.1926
48890W        W91943  28.305  31.364   1.118  0.2093  0.0772  0.1628
48891W        W91944  11.033  20.452  27.177 -0.3784  0.2640 -0.0302
48892W        W91945   9.874  23.512   1.297  0.0541  0.2561 -0.0133
48893W        W91946  34.172  13.747  29.185 -0.0140  0.1972  0.0087
48894W        W91947  31.029  32.964   7.537 -0.1487  0.1723  0.0540
48895W        W91948  21.294   7.006  13.826 -0.2274 -0.1356 -0.3346
48896W        W91949  20.437  27.275  10.698  0.1723 -0.1532  0.0829
48897W        W91950  12.938   1.581  27.280  0.2117 -0.1233  0.1825
48898W        W91951   7.285  34.089  22.488  0.0863  0.0001  0.0888
48899W        W91952  13.428  11.838   2.389  0.0093  0.0624 -0.0177
48900W        W91953  34.509  23.971   2.206  0.0443 -0.1210  0.0914
48901W        W91954   8.534  28.663   7.367 -0.0359  0.3944  0.0221
48902W        W91955  19.073  30.500  28.170 -0.3078  0.1066  0.5343
48903W        W91956  11.167  12.164   3.124 -0.0485 -0.0443  0.0488
48904W        W91957   7.672  32.960   2.086  0.2232  0.1962  0.2115
48905W        W91958   0.392  20.935  21.299 -0.0632  0.0741 -0.0776
48906W        W91959  25.878  32.762  15.894  0.1060  0.0248 -0.0497
48907W        W91960  11.240  25.459   4.107  0.1067  0.1016  0.0386
48908W        W91961  25.671  24.100   6.223  0.0149  0.0797 -0.0430
48909W        W91962  32.648  21.712  18.911  0.2906 -0.1371 -0.2972
48910W        W91963   2.425   4.224  28.208  0.0523 -0.0500  0.2009
48911W        W91964   1.374  16.484   5.112  0.2165  0.1642 -0.1502
48912W        W91965  14.964   3.875  10.074 -0.0289 -0.0823  0.0130
48913W        W91966  27.134  34.423   0.685  0.2702  0.1258 -0.1292
48914W        W91967  24.235  26.581   8.294 -0.1179 -0.2084 -0.0789
48915W        W91968   8.921  28.907   7.637 -0.1397  0.1924  0.2072
48916W        W91969  20.600  32.279  24.020 -0.0139  0.1750  0.2139
48917W        W91970  14.884   3.788  21.553  0.2854 -0.2277  0.3085
48918W        W91971  24.125  21.703  21.074  0.0249  0.0812  0.1068
48919W        W91972  34.125  25.706  26.213  0.6982  0.1913  0.2623
48920W        W91973  10.621  22.003  23.803 -0.0524  0.1232 -0.4183
48921W        W91974   5.109  16.187   4.838 -0.2674  0.1955  0.2511
48922W        W91975  25.575  32.741   8.733 -0.1725  0.0212  0.0965
48923W        W91976  14.339  26.433   4.409  0.1694 -0.0463 -0.3585
48924W        W91977   8.048  17.890  27.059 -0.0523  0.5127  0.0530
48925W        W91978   6.530  27.962  25.140  0.0984  0.1354 -0.1501
48926W        W91979  32.708  25.009  22.295 -0.3118 -0.0844 -0.1020
48927W        W91980   7.790  23.072  25.790  0.0064  0.0182 -0.0251
48928W        W91981  20.247  28.682  26.550 -0.2040 -0.1200 -0.0809
48929W        W91982  16.745  23.631   7.687 -0.3947  0.5043  0.4518
48930W        W91983  18.874  27.139   0.589 -0.2066 -0.4169  0.1753
48931W        W91984   0.164  27.058  22.510  0.2575  0.0199 -0.4109
48932W        W91985  16.641  17.266  13.437 -0.1875 -0.1944 -0.0779
48933W        W91986   2.168  32.423  19.947  0.0105  0.0121  0.1867
48934W        W91987   3.736  25.531   1.763 -0.0953 -0.0807  0.2286
48935W        W91988   9.213  24.275  28.746 -0.3283 -0.0644  0.0259
48936W        W91989   8.882  29.541  18.051  0.0445 -0.0504  0.2996
48937W        W91990  14.621  19.294   0.531  0.0791  0.2873  0.0355
48938W        W91991  20.423  21.312  20.792  0.2433 -0.3476  0.3858
48939W        W91992   1.037   9.587  28.715 -0.0617 -0.0663  0.0633
48940W        W91993  17.404  18.455   0.936 -0.3362 -0.0512  0.0383
48941W        W91994   1.091  32.944   9.175  0.1030 -0.0375  0.2928
48942W        W91995  15.840  29.397  20.718 -0.1404 -0.2105 -0.1787
48943W        W91996  28.612  30.437  19.621  0.2443 -0.1457 -0.3599
48944W        W91997  15.193   1.141   2.872  0.0685 -0.4078 -0.1778
48945W        W91998  15.569  22.045   5.063 -0.2230 -0.0880  0.0930
48946W        W91999  15.587  28.915  27.133  0.3196 -0.1751  0.4405
48947W        W92000  33.409  28.967  15.546 -0.0201  0.1404  0.3381
48948W        W92001   0.992  16.384  19.095 -0.3448 -0.1151  0.4731
48949W        W92002  11.875  23.373  24.063  0.0646  0.0593  0.0553
48950W        W92003  20.651  28.405  21.798  0.0850  0.1332 -0.2603
48951W        W92004   6.978  13.593  15.508 -0.4780 -0.2766 -0.1754
48952W        W92005   7.035  25.577  26.145 -0.2173 -0.0622  0.0525
48953W        W92006  25.533  15.355  28.031  0.2810  0.0540 -0.0353
48954W        W92007  12.593  17.468  28.421 -0.1931  0.0160 -0.0020
48955W        W92008   2.831  23.086  28.137  0.1423 -0.2196  0.3572
48956W        W92009  32.032  25.059  23.936 -0.0487 -0.1021  0.1056
48957W        W92010  27.970  34.449  25.182  0.0968 -0.0126  0.0202
48958W        W92011   0.857  29.634   8.806 -0.0289  0.1626 -0.1274
48959W        W92012  34.430  26.780  21.908  0.0191  0.0115 -0.2847
48960W        W92013  32.568  24.526  20.409 -0.2342 -0.1470  0.1009
48961W        W92014  16.708  28.379  21.007 -0.0400  0.1772 -0.1020
48962W        W92015  14.172   9.381  24.724  0.1251  0.0629 -0.3479
48963W        W92016  14.261   6.865   5.992 -0.3498  0.1250  0.0072
48964W        W92017  21.602  15.161  25.686  0.1527 -0.0785  0.1033
48965W        W92018   3.512  30.977  19.716 -0.0886 -0.3211  0.2384
48966W        W92019  16.938  30.579  16.490 -0.1517  0.1704 -0.1829
48967W        W92020   8.791  17.326  28.670 -0.0534 -0.2021  0.1845
48968W        W92021  24.792  34.556  26.012 -0.0595  0.2081 -0.1491
48969W        W92022   4.170   5.267   1.554  0.0303  0.2841 -0.1700
48970W        W92023  11.843  20.051  26.004  0.1220 -0.1211 -0.1144
48971W        W92024   5.271  21.289   2.253  0.3574  0.0873  0.0273
48972W        W92025   3.814  29.067   0.601  0.2177  0.0032 -0.1413
48973W        W92026  15.395  11.827  16.885 -0.1046  0.0217  0.0784
48974W        W92027  33.159  14.128  14.497  0.0425 -0.1480  0.0413
48975W        W92028   2.066  30.757   6.630 -0.0294 -0.2016  0.3690
48976W        W92029  11.293  32.020   1.136 -0.2112 -0.1818  0.0474
48977W        W92030  33.361  34.051   4.489  0.0175  0.2463 -0.3906
48978W        W92031   4.848  26.465   4.376 -0.0159 -0.4452  0.1533
48979W        W92032   0.476  11.574  25.677 -0.1729  0.0246 -0.2820
48980W        W92033  19.213  29.238   0.488 -0.1227  0.1534 -0.1206
48981W        W92034   3.843  19.104  18.686 -0.0315 -0.0748 -0.0157
48982W        W92035  13.718  10.915   7.847  0.2163  0.0122  0.1436
48983W        W92036  14.028  20.298  20.592  0.1640 -0.0609  0.2181
48984W        W92037   5.358  23.743   2.050  0.2575  0.1071 -0.0498
48985W        W92038   2.052  27.645  25.263 -0.1835 -0.1678  0.3970
48986W        W92039  20.976  31.240  20.281  0.0180 -0.0841 -0.0573
48987W        W92040   9.912   8.424   9.779  0.0860 -0.0323 -0.2341
48988W        W92041  10.539   9.006   0.126  0.0978 -0.0985 -0.0243
48989W        W92042   1.837  33.900   2.454  0.0586  0.1275 -0.3120
48990W        W92043  20.304  20.671  27.418  0.1559 -0.0561 -0.3193
48991W        W92044  15.359  22.151  26.933 -0.2723  0.2788 -0.3332
48992W        W92045  10.065   9.517  28.833 -0.0811  0.0545  0.0143
48993W        W92046   1.145  17.752  27.316 -0.0054  0.0047  0.4044
48994W        W92047   4.988  17.684  25.805 -0.1564  0.0016  0.0965
48995W        W92048  24.825  30.426   8.087  0.3697  0.0646  0.4289
48996W        W92049   2.119  30.432  18.874 -0.1844  0.3940  0.2533
48997W        W92050  24.502  33.290  17.612  0.2438 -0.1942  0.3923
48998W        W92051  32.009  23.862  16.405  0.1205 -0.2844  0.0593
48999W        W92052  32.160  28.585   2.074 -0.0303  0.3362  0.0468
49000W        W92053  11.249   2.998  14.636 -0.1603 -0.2276  0.1195
49001W        W92054   3.618  21.600  19.345  0.1500  0.0765  0.2150
49002W        W92055   2.968  29.547  15.415  0.1498 -0.2861 -0.2139
49003W        W92056  15.887  28.552   5.998 -0.2983 -0.1067 -0.0585
49004W        W92057  24.926   5.501   9.684 -0.2894 -0.1295 -0.1393
49005W        W92058   6.125  19.456  23.418  0.0882 -0.0398 -0.0564
49006W        W92059  26.843  28.198   4.891 -0.2404 -0.1363 -0.0708
49007W        W92060  34.536  17.190  21.918  0.1645 -0.1682  0.2857
49008W        W92061   5.390  32.363  14.069 -0.0306  0.3398 -0.0361
49009W        W92062   6.565  21.325   8.128 -0.1553  0.1350  0.1831
49010W        W92063  22.059  15.420  28.810 -0.1668  0.0261 -0.1627
49011W        W92064   2.126   0.438   6.306 -0.2875 -0.1770 -0.1532
49012W        W92065  29.430  24.782   3.891 -0.2406  0.1237 -0.2180
49013W        W92066   3.962   6.730  22.163  0.1320  0.1011  0.0070
49014W        W92067   9.198   0.758   7.397  0.3095  0.1218  0.0149
49015W        W92068   1.220  31.512  27.933  0.1248 -0.0004 -0.2306
49016W        W92069  21.884  23.686  21.073 -0.2142 -0.1700  0.2707
49017W        W92070   0.321  26.150  14.142  0.2658  0.3400 -0.0219
49018W        W92071   4.812  31.250   3.989  0.0364 -0.0967 -0.1603
49019W        W92072  15.628  21.357  27.842  0.0042  0.2642 -0.4929
49020W        W92073  16.381   2.605   7.413 -0.1197  0.1760 -0.0617
49021W        W92074  29.539   3.947  17.805  0.0974 -0.1358  0.0797
49022W        W92075  31.352  22.756   2.354 -0.2298  0.1267  0.0595
49023W        W92076  19.438  32.706  23.465 -0.2923 -0.3438 -0.2298
49024W        W92077   5.537  23.418   8.202  0.0504 -0.0434 -0.1144
49025W        W92078   7.751   0.350  15.182  0.0295  0.0133 -0.0971
49026W        W92079   0.972  26.947  19.405 -0.1543 -0.5085  0.0940
49027W        W92080   3.316  27.200   3.818 -0.3302  0.0133 -0.2555
49028W        W92081   6.776  20.000  19.120 -0.0450  0.1646  0.1828
49029W        W92082  16.029  24.155   1.909 -0.0235  0.0733  0.1237
49030W        W92083  16.325  24.681  27.531 -0.0509 -0.1358 -0.0028
49031W        W92084   4.955  28.991   3.961 -0.0115 -0.2094 -0.0849
49032W        W92085   8.502  30.319   1.268  0.0689  0.0578  0.0740
49033W        W92086   8.271   5.374  14.068  0.1365 -0.0048  0.1574
49034W        W92087  10.460  13.595  15.689 -0.0919  0.1893  0.1801
49035W        W92088   8.366  32.389  17.018 -0.0015  0.2250 -0.0450
49036W        W92089   6.325  23.308   2.911  0.0212 -0.1438 -0.0767
49037W        W92090  14.411  25.397  21.666 -0.0945  0.2797 -0.1367
49038W        W92091  25.174   1.588  22.860  0.1738  0.0116 -0.1040
49039W        W92092  17.021   5.366   6.267 -0.0667 -0.1321 -0.2454
49040W        W92093  15.418  21.879  23.798  0.0926 -0.0336 -0.3263
49041W        W92094   5.972  19.844  27.425  0.1469 -0.1383  0.0144
49042W        W92095  17.754   3.482   1.223 -0.1789 -0.0146  0.1013
49043W        W92096  18.837   5.549  18.325 -0.3003  0.2376 -0.1429
49044W        W92097   4.160  20.225   3.971 -0.2182 -0.1015 -0.3862
49045W        W92098  27.838  33.201  27.341 -0.3110  0.0569 -0.0926
49046W        W92099  26.442  22.916   2.581  0.2352  0.0498 -0.2339
49047W        W92100  13.241  25.877  23.214  0.0738 -0.1001 -0.0343
49048W        W92101  10.082  22.468   6.578  0.1003 -0.0323 -0.3312
49049W        W92102  10.406  20.931  24.897  0.1660 -0.1746  0.1048
49050W        W92103  18.125  24.172   0.099  0.3199  0.0626  0.1081
49051W        W92104  13.443  12.064  17.626 -0.1122  0.2430 -0.0286
49052W        W92105   0.265  31.076  16.931 -0.2586 -0.2493  0.1631
49053W        W92106   2.283  21.169  17.227  0.0145  0.0390  0.3476
49054W        W92107   2.545  22.908  24.504  0.3263 -0.0863  0.4654
49055W        W92108   5.107  25.262   7.461 -0.0688 -0.0393  0.0592
49056W        W92109  16.645  23.371   0.125 -0.1366  0.2576 -0.0320
49057W        W92110  27.599  26.609  23.772 -0.3745 -0.0521 -0.0385
49058W        W92111   6.427   5.079  22.918 -0.1980 -0.1304 -0.1454
49059W        W92112  22.265  14.315   2.178  0.0741  0.1072 -0.0091
49060W        W92113   7.403  31.372   4.974 -0.3205  0.5307 -0.2964
49061W        W92114  20.723  13.580   1.030 -0.1259 -0.0319 -0.3364
49062W        W92115  21.869  27.137   8.054  0.1462 -0.0010 -0.1489
49063W        W92116   7.493   3.722   0.313  0.1628  0.0363 -0.0132
49064W        W92117  15.587   8.230  28.619 -0.1188 -0.0559 -0.0222
49065W        W92118  32.947   2.528   8.756 -0.1019 -0.1013  0.0009
49066W        W92119   1.710  27.297  22.984  0.1466 -0.2055  0.0100
49067W        W92120   5.838  28.093   1.701  0.1501 -0.0568 -0.0908
49068W        W92121   4.009  18.609  17.208 -0.0447  0.0779  0.0564
49069W        W92122  20.645  26.487  17.070  0.0866 -0.3458  0.1489
49070W        W92123  27.104  32.432  27.118 -0.0178 -0.0611 -0.0925
49071W        W92124  20.688   1.934  28.405  0.0515  0.2031 -0.1665
49072W        W92125  17.825  19.634   2.566  0.0361 -0.0209 -0.0681
49073W        W92126  12.281  27.765   5.152 -0.3505 -0.1519  0.2049
49074W        W92127   8.827  32.873   5.770  0.2436 -0.2010 -0.2558
49075W        W92128  15.760  32.112  26.167 -0.0250 -0.0111  0.1649
49076W        W92129  32.425  15.806   1.363 -0.2962  0.1106  0.1925
49077W        W92130   6.597  25.840   8.503  0.0520  0.0373 -0.1092
49078W        W92131  28.049  29.551   4.330  0.1916  0.0398  0.0327
49079W        W92132  25.161  18.453   5.118  0.4130 -0.1287 -0.2769
49080W        W92133  14.141  23.097   9.873  0.0826 -0.1435  0.1259
49081W        W92134  14.921   9.880   5.140  0.0101  0.0918  0.1713
49082W        W92135   1.187  28.582  26.181 -0.1954 -0.2242  0.3571
49083W        W92136  34.316  25.406   6.893  0.0604 -0.2375  0.0914
49084W        W92137   0.256   0.017   7.471 -0.3823  0.2955  0.1358
49085W        W92138   4.137  16.398  25.712  0.2181 -0.1519  0.0327
49086W        W92139   4.944  33.346  28.499 -0.0770  0.2995 -0.2456
49087W        W92140  30.417   3.943  26.962  0.2874  0.0712  0.0853
49088W        W92141  13.633   8.816   2.704 -0.0666  0.0803  0.2771
49089W        W92142   5.878  30.385   5.015 -0.1457 -0.0566 -0.1874
49090W        W92143  19.994  20.670  13.707 -0.3110  0.1381 -0.1197
49091W        W92144  12.985  21.154   0.941 -0.2685 -0.0490 -0.2627
49092W        W92145   9.901  29.022   5.834  0.0625 -0.3461  0.1432
49093W        W92146   1.911   7.246   5.755  0.1425  0.2100  0.0202
49094W        W92147  24.315  22.148   5.971  0.2919  0.1132 -0.0893
49095W        W92148   5.460   3.646   0.398  0.0641 -0.1358 -0.4664
49096W        W92149  17.210   0.511   2.715 -0.1267 -0.2100  0.0677
49097W        W92150   4.874  29.282  29.105  0.1325  0.0512  0.1057
49098W        W92151   2.045   8.931  20.093 -0.0135 -0.0857  0.0045
49099W        W92152   9.050   2.762  18.472 -0.1330  0.0481  0.3972
49100W        W92153  14.480  24.965   3.545 -0.0793 -0.4412 -0.2003
49101W        W92154  15.091   4.111  21.804 -0.0155  0.2485 -0.0583
49102W        W92155  14.297   1.157  23.662  0.4724 -0.2029  0.2378
49103W        W92156  14.859  19.991  25.046 -0.3181 -0.4328  0.3442
49104W        W92157  26.693  10.315   2.517 -0.1672  0.0242 -0.1367
49105W        W92158  18.518  11.652  20.330 -0.0588 -0.0506 -0.2887
49106W        W92159  15.453  24.238  24.094  0.2590  0.0173 -0.1203
49107W        W92160  15.096   5.000   6.137 -0.2566  0.0097  0.1953
49108W        W92161  33.810  20.807  26.882 -0.0137  0.0475  0.1079
49109W        W92162  21.655  23.537  16.452  0.2659 -0.0216  0.1286
49110W        W92163  14.283  24.111  27.577  0.2534  0.3823 -0.2874
49111W        W92164   2.674  27.789  17.777 -0.1424  0.1622  0.1267
49112W        W92165  28.673  19.366   3.594  0.1769  0.1473 -0.0748
49113W        W92166   4.919  18.774  21.063  0.2045  0.0460  0.2365
49114W        W92167  22.853  20.178   9.150  0.1288  0.0517  0.0245
49115W        W92168  33.237  11.108  29.103  0.2029 -0.2774 -0.1156
49116W        W92169   8.106  25.813   9.122  0.1938 -0.0107 -0.0672
49117W        W92170   5.588  16.442  18.657  0.1138 -0.1130  0.0150
49118W        W92171   9.739  28.314   4.972  0.0765  0.2445 -0.2483
49119W        W92172   6.825  33.520  16.493  0.2400 -0.0303 -0.3404
49120W        W92173  33.317  19.528   1.830  0.0724 -0.0604 -0.0594
49121W        W92174  10.338   8.391  23.049 -0.1430 -0.0580 -0.0334
49122W        W92175  29.384  17.925  16.080  0.0153 -0.0757 -0.1595
49123W        W92176  13.880   4.041  16.114 -0.1115 -0.1263  0.0335
49124W        W92177  18.458  32.043  20.687 -0.2973 -0.3293 -0.4199
49125W        W92178  14.638  21.458  17.545  0.0037 -0.0226 -0.1890
49126W        W92179  28.749  32.958  23.470 -0.4433 -0.0981 -0.3396
49127W        W92180  14.270  25.719  20.160  0.3465  0.1798  0.1338
49128W        W92181   1.903   1.368  18.276  0.2450  0.1246 -0.2508
49129W        W92182  16.811   1.880  15.370 -0.2032 -0.2079 -0.1188
49130W        W92183  14.040  20.406  17.484  0.2172 -0.0411 -0.3342
49131W        W92184   7.235  30.098  14.443  0.1262  0.1761  0.1370
49132W        W92185   8.760  32.923  16.733  0.1628 -0.2195  0.0183
49133W        W92186   4.974   4.691   1.996 -0.1861  0.1393 -0.1495
49134W        W92187   8.299  20.949  13.750  0.2777 -0.2972  0.0484
49135W        W92188  16.270  26.860  15.000  0.4993 -0.3574  0.1771
49136W        W92189  13.239   5.194  28.297 -0.2074  0.0841 -0.0341
49137W        W92190  34.650   8.527  18.088 -0.0958 -0.0920 -0.0348
49138W        W92191  33.050  32.550  17.426  0.4254 -0.0307  0.4377
49139W        W92192  13.029  29.455  15.919  0.4233 -0.1370 -0.0670
49140W        W92193  18.299   2.717  18.214 -0.0568  0.0306 -0.0010
49141W        W92194   7.343   6.600  16.867 -0.2630  0.3653  0.1635
49142W        W92195  12.633  29.043  17.331  0.2677 -0.1736 -0.1575
49143W        W92196   7.685  30.202  20.903 -0.0603 -0.2185 -0.0449
49144W        W92197  26.326  28.649  17.306 -0.0135 -0.1596 -0.3293
49145W        W92198  10.234  27.201  26.515 -0.2321 -0.2391  0.2490
49146W        W92199   8.946  24.118  17.853  0.0337  0.0161  0.1461
49147W        W92200   9.459  21.213  21.929  0.0614  0.0444  0.0665
49148W        W92201   3.605  21.642  22.334  0.1750 -0.1056 -0.2319
49149W        W92202  22.249  33.145  24.411  0.0104 -0.1185  0.0710
49150W        W92203  34.233  22.350  18.788  0.0359  0.0863  0.0613
49151W        W92204  25.078  26.666  22.426  0.1060  0.2908 -0.0100
49152W        W92205  10.339   0.285  25.288 -0.0433 -0.0469  0.2595
49153W        W92206   5.721  29.511  20.546  0.1178 -0.0071 -0.0295
49154W        W92207  21.121  24.433   1.404  0.0796  0.0784 -0.0312
49155W        W92208  15.705   2.357   4.358 -0.0693  0.2832  0.1161
49156W        W92209  31.408   4.208  19.333  0.1171  0.0396 -0.2918
49157W        W92210   9.517  30.487  26.570  0.2123 -0.0226  0.2421
49158W        W92211  13.590   0.493  16.384 -0.1591  0.0280 -0.0055
49159W        W92212   8.684   4.489  18.067 -0.2005  0.0596  0.0318
49160W        W92213   6.164  31.324  23.955 -0.3681  0.0451 -0.2311
49161W        W92214  34.138   9.990  22.059  0.3142 -0.3528 -0.4397
49162W        W92215  11.298  24.243  19.122  0.1831 -0.2765  0.1021
49163W        W92216   3.821   4.746  23.843  0.0371  0.1992  0.0438
49164W        W92217   6.047  19.683  26.548  0.4270 -0.2814 -0.0822
49165W        W92218  15.611  23.033  15.659  0.2967  0.1299  0.0033
49166W        W92219  25.889   7.682  24.548 -0.1182  0.0485 -0.2427
49167W        W92220  31.531  10.156  16.994  0.0638  0.2378 -0.1260
49168W        W92221  19.044  28.477  27.553 -0.0159  0.1633  0.1470
49169W        W92222  18.934  22.809   0.527 -0.1058 -0.0739  0.0153
49170W        W92223   7.600  20.951  14.383 -0.1357  0.0286  0.1672
49171W        W92224   9.196   9.737   4.670 -0.0856 -0.2697 -0.0411
49172W        W92225  11.491   2.488  14.370 -0.2386  0.0426  0.0765
49173W        W92226   9.430  30.730  14.733 -0.1267 -0.0985 -0.0221
49174W        W92227  34.169  33.389  19.863  0.2513 -0.2296 -0.1834
49175W        W92228  30.161  20.311  19.071 -0.1087  0.1139 -0.0894
49176W        W92229   8.173  13.744  18.533 -0.1629  0.0694  0.0040
49177W        W92230  17.909  31.690  25.291  0.1906  0.0507  0.2693
49178W        W92231   5.018  15.669  27.049  0.0877  0.0454 -0.3435
49179W        W92232   7.957   1.725  18.086 -0.1442 -0.1865 -0.3316
49180W        W92233   4.755   5.613  15.665 -0.1346 -0.1942  0.1296
49181W        W92234   6.181  23.516  16.271  0.0196 -0.1765  0.2591
49182W        W92235   8.397  20.472  15.558 -0.1739 -0.1258  0.0347
49183W        W92236  34.413  28.411  16.361 -0.2944 -0.2533 -0.1436
49184W        W92237   8.515  31.562  25.855 -0.0043  0.1014 -0.1724
49185W        W92238   5.681  11.599  16.330  0.0745  0.0521 -0.3007
49186W        W92239   5.572   5.964  17.868 -0.3395 -0.1231  0.0894
49187W        W92240  11.396  16.793  14.670 -0.0887 -0.1368 -0.0224
49188W        W92241   2.940  25.952  16.151  0.3187 -0.1048  0.1488
49189W        W92242  12.888  21.459  21.542  0.1558  0.0575  0.3664
49190W        W92243  30.380  11.275   4.496 -0.1699 -0.0575 -0.1061
49191W        W92244   2.777   4.954   3.810 -0.0569 -0.0792 -0.0064
49192W        W92245   1.392   2.388  24.710 -0.0120 -0.0042 -0.1853
49193W        W92246  27.518  24.599  21.601  0.0755 -0.1618  0.2208
49194W        W92247  19.479  29.642  15.858  0.3010  0.0898 -0.0377
49195W        W92248   7.984  28.289  17.926  0.1431  0.1288 -0.0876
49196W        W92249   8.620  13.189  19.613 -0.0286  0.1151  0.1531
49197W        W92250   3.137  24.351  17.739 -0.0957 -0.2087  0.0643
49198W        W92251  10.754   4.345  16.311  0.0951 -0.0116  0.1142
49199W        W92252   9.785   0.936  26.729 -0.0411  0.2603 -0.4058
49200W        W92253  17.355  16.839  14.244 -0.0026  0.0193  0.0034
49201W        W92254  10.324  15.929  29.116 -0.3650  0.3005  0.1955
49202W        W92255   6.830  25.559  15.251  0.1451 -0.1496 -0.2248
49203W        W92256   2.167  20.339  19.845 -0.1382  0.1171 -0.1913
49204W        W92257   8.752  24.073  27.846 -0.3247 -0.1849  0.4614
49205W        W92258  11.719  34.026  16.336 -0.0073  0.2904  0.0601
49206W        W92259  10.690   2.537  19.922  0.4837  0.0701  0.5955
49207W        W92260  33.276   0.093  20.526  0.0563  0.0950 -0.0170
49208W        W92261  31.335  11.385   2.078  0.1751 -0.1772 -0.1142
49209W        W92262  20.455  31.384  17.064 -0.3076 -0.2777  0.0811
49210W        W92263   6.999  33.117  26.674  0.2182 -0.0674  0.0940
49211W        W92264  21.224  29.679  19.446  0.0692  0.0310 -0.2978
49212W        W92265   5.024  31.338  18.306  0.1992 -0.1035  0.1037
49213W        W92266   3.892  24.753  24.901 -0.1097 -0.0566 -0.0805
49214W        W92267   5.293  13.613   6.758  0.1695 -0.0424  0.1306
49215W        W92268  12.491   9.728  23.490  0.1208 -0.1440  0.1515
49216W        W92269   1.899  15.710  13.902 -0.3555 -0.2771  0.0961
49217W        W92270  31.455  32.381  14.300 -0.2871  0.1309 -0.0985
49218W        W92271  17.022  26.770   0.237 -0.2112  0.2273  0.2901
49219W        W92272   0.920   2.311  16.949  0.3426 -0.0965 -0.3633
49220W        W92273  10.344   1.636  14.580 -0.1493  0.0111 -0.2143
49221W        W92274   6.084  28.104  24.720  0.2680  0.0747 -0.0803
49222W        W92275   2.920  33.458  13.920  0.0921  0.1148 -0.1807
49223W        W92276  14.626  26.370  16.636 -0.2460  0.0163  0.2149
49224W        W92277  33.097   9.068  16.958 -0.2171 -0.0082 -0.3794
49225W        W92278   9.739  28.149  16.499  0.1574 -0.0316  0.2791
49226W        W92279   0.349  24.993  18.002 -0.1424 -0.0319  0.1340
49227W        W92280  30.388  34.371  15.803 -0.3501  0.1141 -0.3733
49228W        W92281  13.731  29.686  18.110 -0.0520 -0.0716  0.2105
49229W        W92282  11.845  29.078  28.163  0.0570  0.3533 -0.2252
49230W        W92283  29.529  32.099  14.249  0.2037 -0.0945  0.1131
49231W        W92284  17.320  23.446  18.874 -0.0245  0.0694  0.0860
49232W        W92285  21.563  28.745  21.859  0.3438 -0.0690  0.1618
49233W        W92286  17.182   1.680  18.130  0.1144  0.1326 -0.1372
49234W        W92287   3.631   1.866  26.324 -0.1589 -0.0196  0.1020
49235W        W92288  19.334  26.015  20.351 -0.2205 -0.0557  0.0118
49236W        W92289  31.737   2.577  14.874  0.1880  0.1057 -0.1554
49237W        W92290   5.901  33.188  26.169 -0.2802  0.0755 -0.0111
49238W        W92291   7.373  14.663  28.327 -0.0616 -0.0055  0.1855
49239W        W92292   6.840  32.989  15.158  0.0115  0.0147  0.4542
49240W        W92293   8.226   6.843  15.173 -0.0632  0.1249 -0.1589
49241W        W92294  32.419  24.838  13.325  0.1079  0.3384 -0.1135
49242W        W92295   2.395  20.204  14.802 -0.0180  0.0363 -0.0292
49243W        W92296  14.877   5.802  16.824  0.3424  0.1570 -0.1223
49244W        W92297   5.056   4.665  19.019 -0.6963 -0.2794  0.0198
49245W        W92298  18.942  23.256  23.613  0.1735 -0.3761 -0.0962
49246W        W92299   2.817   2.289  19.820  0.0944 -0.3436  0.1894
49247W        W92300   9.582  25.430  26.961  0.0535  0.1272 -0.1896
49248W        W92301  13.823  34.609   4.272 -0.0165  0.0054 -0.1695
49249W        W92302  14.300  26.288  24.036  0.0645 -0.0321  0.1418
49250W        W92303  28.404  33.415   8.734 -0.1612 -0.1179 -0.2046
49251W        W92304   7.302  20.667  17.425 -0.1618 -0.1777 -0.4300
49252W        W92305   0.492   6.557  23.213 -0.1702  0.0545  0.2149
49253W        W92306  33.341  10.532  20.935 -0.0251  0.2472 -0.1514
49254W        W92307   2.045  13.810  17.537 -0.0687 -0.1090  0.0234
49255W        W92308  25.989  27.593  25.906  0.1191  0.0392 -0.1863
49256W        W92309   5.182  32.487  19.279  0.3260 -0.0548  0.3471
49257W        W92310   9.989  21.943   3.363 -0.1142 -0.1593 -0.1940
49258W        W92311   7.859   9.454  20.628  0.1715  0.0789 -0.2385
49259W        W92312   6.343  28.740  21.904 -0.0402  0.1731 -0.0467
49260W        W92313   2.004  31.300  26.394  0.0406 -0.3620 -0.2635
49261W        W92314   3.609   7.378  23.070 -0.1624 -0.0332  0.2753
49262W        W92315  25.003  29.242  14.722 -0.0706 -0.2593 -0.1906
49263W        W92316  32.631  32.742  13.926 -0.1108 -0.0199  0.1264
49264W        W92317   5.584   6.954  19.404  0.0574 -0.2465 -0.2950
49265W        W92318   7.521  33.574  15.728 -0.1974 -0.0098  0.1993
49266W        W92319  20.977  32.710  17.268 -0.3730 -0.1982 -0.1141
49267W        W92320   7.874  18.506  25.107 -0.1902  0.1380 -0.1606
49268W        W92321   5.409  13.397  19.651 -0.2619  0.4363  0.0327
49269W        W92322   8.270   1.453  14.891 -0.1063 -0.0676 -0.3803
49270W        W92323   6.603   0.733  19.559 -0.0730  0.0562 -0.0697
49271W        W92324  18.020  32.786  17.229 -0.0086 -0.2619  0.2999
49272W        W92325  13.610  31.326  23.853  0.2948  0.1550 -0.0752
49273W        W92326  16.047  31.320  26.873  0.0731  0.0716  0.2308
49274W        W92327  29.119   2.905  20.255  0.0048 -0.1748 -0.0529
49275W        W92328  25.318  33.688  16.814  0.0285 -0.1196 -0.0567
49276W        W92329  34.663  11.330  17.220  0.2148  0.1009 -0.2060
49277W        W92330  27.050  25.399  24.938  0.4036 -0.2383 -0.2129
49278W        W92331   6.117  30.223   8.422 -0.1580 -0.1854  0.3848
49279W        W92332  30.245  17.379  20.977  0.1895  0.1089  0.0113
49280W        W92333  33.718  23.085   5.278 -0.2307  0.2282  0.0588
49281W        W92334  12.334  29.659  16.433  0.3203 -0.1970 -0.1380
49282W        W92335  20.389  25.837  27.756  0.4927  0.0101 -0.0246
49283W        W92336   9.501  19.039  14.658 -0.2855  0.0116  0.1668
49284W        W92337  22.329  32.851   3.385 -0.1432 -0.0721 -0.2904
49285W        W92338  24.899  34.453  17.074 -0.3258 -0.1340  0.0873
49286W        W92339   6.718   2.746  14.617  0.0039  0.1187 -0.2249
49287W        W92340   9.468  28.127  21.639 -0.0767  0.2328 -0.3197
49288W        W92341  29.767  33.362  14.201 -0.3477 -0.0533 -0.2405
49289W        W92342  32.689  23.089  16.058 -0.1590 -0.2536  0.0318
49290W        W92343  12.819  15.934  15.486  0.1797 -0.1281  0.1928
49291W        W92344  20.106  26.246  22.111 -0.2423 -0.0364 -0.1879
49292W        W92345  10.678   3.244   3.575  0.1001 -0.4245 -0.1119
49293W        W92346  22.423  24.597  23.191 -0.1632 -0.2415  0.0333
49294W        W92347   3.124  10.134  17.156 -0.3573  0.2138 -0.2992
49295W        W92348   7.021  26.520  21.201  0.0813  0.1435  0.0662
49296W        W92349  10.066  27.932  22.012  0.0146  0.3368 -0.4110
49297W        W92350  11.669   6.212  26.255 -0.1437  0.1665 -0.2347
49298W        W92351   3.922  34.581  20.594  0.2226 -0.1320  0.0420
49299W        W92352  21.410   0.794  18.941 -0.1401 -0.2150 -0.1045
49300W        W92353   1.746   5.152   0.974  0.0331  0.2198  0.0105
49301W        W92354  13.744   6.394   2.990  0.0861 -0.1908  0.3723
49302W        W92355   5.504  30.818  24.078  0.1635  0.0352 -0.1178
49303W        W92356  31.566  31.643  27.089  0.1731  0.0957 -0.2579
49304W        W92357  22.279  26.680  22.746 -0.1569 -0.2026  0.1084
49305W        W92358   8.164   5.090  22.621  0.0001 -0.0697  0.2635
49306W        W92359   6.235  18.855  21.621  0.2421 -0.0570  0.1830
49307W        W92360   6.438   9.360  27.277 -0.1540  0.0578  0.2253
49308W        W92361  18.375   0.243  16.358 -0.1060  0.0206  0.2455
49309W        W92362  32.468  21.440  20.914  0.2259  0.1895  0.1949
49310W        W92363  11.462   7.118   2.645  0.0264 -0.1852  0.0927
49311W        W92364  19.674  34.583  15.270 -0.0024 -0.0578  0.1984
49312W        W92365   8.587  20.878  22.328  0.0500 -0.2337  0.0695
49313W        W92366   3.777   5.759  23.766 -0.1156 -0.2965 -0.2601
49314W        W92367   2.403  15.729  23.201  0.0386  0.1401  0.1370
49315W        W92368   6.806  15.528  23.109 -0.3337 -0.1272 -0.0282
49316W        W92369  17.747   6.839  20.360 -0.1558  0.0866 -0.0106
49317W        W92370  27.827   0.386  16.253 -0.1111 -0.1057  0.2585
49318W        W92371  13.026  29.979  17.464 -0.1747  0.1702  0.3570
49319W        W92372  16.696  30.016  22.340 -0.0204  0.0715  0.1654
49320W        W92373  27.793  29.971  15.989 -0.1930 -0.1012 -0.0627
49321W        W92374  12.467  23.415  20.132  0.0818  0.2576  0.2599
49322W        W92375   5.289  33.649  15.989  0.1620  0.3577 -0.2903
49323W        W92376  29.707  11.208  22.288 -0.0350  0.0673  0.1096
49324W        W92377   9.958  34.364  21.193 -0.1093  0.0591 -0.1152
49325W        W92378  14.874  24.857  15.051  0.1662 -0.0510 -0.0907
49326W        W92379   1.616  29.469  16.046  0.0816  0.0248  0.0881
49327W        W92380   9.479   7.637  23.469 -0.3120 -0.1423  0.1977
49328W        W92381  15.149  32.434  27.259  0.0145  0.2215 -0.1051
49329W        W92382   7.325  22.256  13.715 -0.0374 -0.3990  0.0761
49330W        W92383  12.491   0.456  22.445  0.2034  0.1291 -0.0972
49331W        W92384  22.506   8.930  23.174  0.0080  0.1599 -0.0508
49332W        W92385  17.353   5.800   5.643 -0.3194  0.0968 -0.0132
49333W        W92386  16.941  23.778  22.505 -0.3564  0.1042 -0.1013
49334W        W92387  16.068  26.794  20.003 -0.0508  0.1156  0.3833
49335W        W92388   7.969  25.182   0.705  0.4345 -0.0513 -0.1715
49336W        W92389  14.949  32.469  20.697  0.2619  0.1786 -0.2282
49337W        W92390   7.264  28.362  13.721  0.0480  0.0011  0.1206
49338W        W92391  20.225  13.173  15.054 -0.0525  0.0818 -0.0419
49339W        W92392   7.672   0.260  22.863 -0.0560  0.0941  0.2282
49340W        W92393  29.573  27.526  17.495  0.2337  0.0976 -0.2307
49341W        W92394   2.199  22.599  15.487 -0.1340 -0.1179 -0.0469
49342W        W92395   6.710  22.481  19.838 -0.0503 -0.2092  0.4138
49343W        W92396  30.579  23.213  26.928  0.0883  0.2129  0.2227
49344W        W92397   7.144  25.806  20.767  0.1932  0.1294  0.2889
49345W        W92398   4.109  18.662  21.822  0.1073  0.4781 -0.1007
49346W        W92399   7.120  26.867  18.482  0.2328 -0.1223  0.1719
49347W        W92400  19.126  24.149  10.632 -0.1418 -0.0952  0.3339
49348W        W92401   3.591   3.348  21.382  0.2304  0.1087 -0.1329
49349W        W92402   7.930   3.920  23.599 -0.1115 -0.1745  0.0477
49350W        W92403  18.203  22.194  16.641  0.0737 -0.0589  0.2844
49351W        W92404   4.125  30.502  13.423  0.2908 -0.1959 -0.3581
49352W        W92405  11.488  19.382  13.337 -0.0072 -0.0917  0.0029
49353W        W92406  20.065  26.523   6.747  0.2667  0.5354  0.0327
49354W        W92407   0.924   0.941  16.144  0.0393  0.2522  0.2470
49355W        W92408   6.802  14.233  14.161 -0.2651 -0.0587  0.1883
49356W        W92409  11.159  32.402  18.595 -0.0093  0.3704 -0.4534
49357W        W92410  21.491  33.822  19.398  0.1569 -0.2046 -0.0988
49358W        W92411  31.665   8.733  18.044  0.0372  0.0740  0.1719
49359W        W92412  33.892  25.038  24.886  0.0662  0.2573 -0.0227
49360W        W92413  13.514  29.239  15.062 -0.0416 -0.0423 -0.1731
49361W        W92414  31.012  26.915  15.308 -0.1036 -0.2485 -0.1841
49362W        W92415   2.635  33.535  18.226 -0.0466  0.3595 -0.0225
49363W        W92416   0.373   8.644  23.240 -0.2441 -0.0985 -0.1888
49364W        W92417   2.590  11.226  20.509  0.1806  0.2137  0.2638
49365W        W92418  28.181   7.411  17.671  0.0809 -0.0932  0.1813
49366W        W92419   7.300  32.820  14.209 -0.0889 -0.1421 -0.0403
49367W        W92420  12.872  25.499  22.152  0.0842  0.1952 -0.0066
49368W        W92421  10.260   3.436  21.857  0.1561  0.0087  0.1146
49369W        W92422   5.264   5.671  19.762  0.2108  0.1755 -0.0887
49370W        W92423  18.779  27.340  21.803 -0.1095 -0.1334 -0.0495
49371W        W92424   7.140  26.969  19.288  0.0434 -0.0040 -0.4700
49372W        W92425  12.007  11.418   0.872  0.1585  0.1216 -0.1484
49373W        W92426   3.744  31.680  23.793  0.0207 -0.1015 -0.3262
49374W        W92427   4.429  29.234  15.853 -0.1697 -0.2212 -0.0194
49375W        W92428   7.929   2.808   4.031  0.0814  0.2439  0.2453
49376W        W92429   4.971  24.846  17.914 -0.0098  0.1643  0.1061
49377W        W92430  24.572  31.055  19.413  0.0370  0.1007  0.0551
49378W        W92431  30.484  24.636  20.642 -0.1754 -0.2364  0.2223
49379W        W92432   8.547  10.119  18.267 -0.0475 -0.3359 -0.1859
49380W        W92433  12.211  27.912  20.384 -0.1706 -0.2339  0.4713
49381W        W92434  20.719  30.585  16.556 -0.2231 -0.1077  0.2911
49382W        W92435   7.679   4.504  18.687 -0.2634  0.0409 -0.2207
49383W        W92436  13.739  22.658  23.104  0.0220  0.1039  0.1698
49384W        W92437  32.744  12.865  14.288  0.0905 -0.0285  0.1609
49385W        W92438   1.771   0.301   1.747  0.1701 -0.1472  0.0316
49386W        W92439   3.733   5.508  20.346 -0.2991  0.1130 -0.1134
49387W        W92440  12.155  17.443  16.394 -0.2666  0.0559  0.2282
49388W        W92441   8.017   2.283  21.294 -0.0526 -0.2404 -0.0452
49389W        W92442  17.182  30.233  23.315  0.1926 -0.0881 -0.1551
49390W        W92443   8.220  21.789  16.243  0.3085  0.0854  0.1362
49391W        W92444   1.992   1.948  26.157 -0.0026  0.0273 -0.1880
49392W        W92445  11.130   1.098  16.043 -0.1568  0.2878  0.1814
49393W        W92446  10.438  31.381  14.167  0.3193 -0.1415  0.2736
49394W        W92447   2.664  30.931  17.083 -0.1069  0.2887  0.0441
49395W        W92448  17.998  34.565  26.003 -0.1408  0.3556  0.0277
49396W        W92449   6.212  34.169  16.651  0.0552 -0.0766  0.0118
49397W        W92450  11.691   9.662   0.322  0.1134 -0.0258  0.2068
49398W        W92451   3.862   9.825  18.922 -0.0414 -0.0360  0.2445
49399W        W92452  20.997  25.848  19.125  0.0071 -0.1375 -0.1803
49400W        W92453   1.380  25.827  18.003  0.1943  0.1088 -0.1790
49401W        W92454  22.087   4.873  16.954 -0.0191 -0.2204  0.1278
49402W        W92455   9.482  25.417  15.348 -0.1071  0.0481 -0.2445
49403W        W92456  13.542  14.420  24.376 -0.2798  0.3202 -0.0556
49404W        W92457  18.377  28.182  16.970 -0.1864  0.2243 -0.1371
49405W        W92458  12.060   6.247   1.736 -0.0910  0.0070 -0.0818
49406W        W92459  28.337   4.601  17.624  0.1806 -0.0378 -0.2045
49407W        W92460  13.763   6.213  18.462  0.2214  0.0112 -0.5065
49408W        W92461  11.040   0.497  16.757 -0.1781 -0.0236 -0.1093
49409W        W92462   6.764  11.948  24.584  0.0975 -0.1949 -0.0838
49410W        W92463  15.474  27.991  21.826 -0.1246  0.0534 -0.1654
49411W        W92464   9.328   5.096  20.291  0.0981 -0.2435 -0.3034
49412W        W92465   7.461  30.080  25.287  0.1587 -0.0904  0.0033
49413W        W92466   4.160  27.438  15.508 -0.0036 -0.0481 -0.1674
49414W        W92467   2.469  27.267  26.543  0.2256  0.0377 -0.1586
49415W        W92468  19.898  31.792  20.135 -0.0241  0.1665 -0.0813
49416W        W92469  16.394  23.968  17.465 -0.0739 -0.0233 -0.1118
49417W        W92470  17.690  25.447  19.395  0.0532 -0.1533 -0.0932
49418W        W92471   7.340  30.744  16.005 -0.2031  0.1776  0.2903
49419W        W92472  33.956  10.420  13.830  0.0022 -0.1960  0.0278
49420W        W92473   1.805  34.229  24.404 -0.1301  0.1764  0.0657
49421W        W92474   9.505   7.624  24.826 -0.0788 -0.0248  0.0021
49422W        W92475  13.390  30.033  24.624  0.0923  0.2408  0.0119
49423W        W92476   2.019   2.451   8.213  0.3284 -0.0945  0.0286
49424W        W92477   0.054  17.092  22.651  0.1744 -0.1143 -0.1520
49425W        W92478  14.446  24.610  14.984  0.1344  0.0152  0.1770
49426W        W92479  30.699   7.606  27.526 -0.4959 -0.1940 -0.1230
49427W        W92480  10.133  28.094  15.154  0.0282 -0.0551  0.3451
49428W        W92481  32.402  13.229  19.107 -0.0548 -0.1731  0.2619
49429W        W92482  10.731  30.218  27.283  0.0416  0.0116  0.1558
49430W        W92483  26.006   6.800   9.071  0.0254 -0.2614  0.0852
49431W        W92484  12.021  31.759  14.360 -0.1540  0.0149  0.1924
49432W        W92485   8.530  34.303  22.131  0.2082  0.1824 -0.1542
49433W        W92486   3.354  24.603   8.754 -0.1193 -0.1899 -0.0076
49434W        W92487   6.182  15.671  20.593  0.0364 -0.3262  0.1731
49435W        W92488  14.093  30.715  20.356  0.2332 -0.0086  0.2823
49436W        W92489  10.717  28.759  13.953 -0.4337 -0.2326  0.1564
49437W        W92490   7.356  22.379   0.298 -0.0198 -0.0594  0.1397
49438W        W92491  17.850  32.171  22.500 -0.1514 -0.2301  0.0954
49439W        W92492   3.823   0.719  18.845  0.0895 -0.2125  0.2033
49440W        W92493  16.315  32.873  19.244 -0.2144 -0.2125  0.0474
49441W        W92494   6.119  30.752  22.359 -0.2644  0.2885  0.1155
49442W        W92495   8.233   7.192  24.453  0.3166  0.1141  0.0934
49443W        W92496   4.416  27.746  16.874 -0.1355  0.2021  0.2373
49444W        W92497  29.622  19.466  22.991  0.3587  0.0602 -0.2724
49445W        W92498  22.444  14.427  19.875 -0.4203  0.1148 -0.0605
49446W        W92499  18.612  31.537  16.048 -0.1664 -0.0800  0.0562
49447W        W92500  18.244  30.834  15.601 -0.0719 -0.3166 -0.1003
49448W        W92501  30.713   4.778  17.861 -0.1482 -0.1492  0.1099
49449W        W92502  29.970   3.876  16.222  0.0936 -0.1203 -0.1824
49450W        W92503  16.532  34.541  24.416 -0.0343 -0.2189  0.2879
49451W        W92504  10.689  26.717  19.547  0.3346 -0.1998  0.2499
49452W        W92505   5.044  20.479  17.748  0.0639 -0.2627  0.0707
49453W        W92506  16.678   2.600  18.436 -0.2749  0.2723 -0.0853
49454W        W92507   8.637  30.497  21.195 -0.1877  0.0204 -0.0032
49455W        W92508   8.094  22.875  28.648 -0.0108 -0.3882  0.0227
49456W        W92509  17.769  24.594  25.575  0.0079  0.1373  0.1886
49457W        W92510   3.262   6.461  28.275  0.0739  0.2129 -0.1547
49458W        W92511  18.139  29.676  14.349  0.1292 -0.1743  0.0927
49459W        W92512  16.646   8.912  29.148 -0.0138 -0.1576  0.2507
49460W        W92513   5.770  22.711  21.695 -0.1475 -0.2810  0.1452
49461W        W92514  18.089   0.970  21.968 -0.2083  0.0824 -0.0668
49462W        W92515  22.313  27.478  19.520 -0.1670 -0.2522 -0.2157
49463W        W92516   8.666  33.419  16.164  0.2322  0.2417  0.0887
49464W        W92517   8.403  30.510  19.277 -0.1113  0.1988  0.1102
49465W        W92518   8.672  24.210  17.451 -0.1392 -0.0931 -0.1877
49466W        W92519  17.737  32.670  22.019 -0.0731  0.3573  0.1047
49467W        W92520   8.401   1.336  21.952 -0.2070  0.1476 -0.3168
49468W        W92521  16.762  18.875  12.656  0.4966 -0.1171  0.1661
49469W        W92522  29.483  14.016  16.305  0.1252  0.0423  0.2313
49470W        W92523   9.195  18.594  26.804 -0.3860  0.2747 -0.4303
49471W        W92524  14.010  28.282  25.179  0.3652 -0.0600  0.0119
49472W        W92525  34.422  25.156  15.185 -0.1009 -0.0193 -0.4701
49473W        W92526   6.902   5.799  18.436  0.0090  0.0294 -0.3158
49474W        W92527   2.521  30.893  26.421 -0.1826  0.1914 -0.1139
49475W        W92528   0.957  34.192  26.681  0.2854  0.1433 -0.0297
49476W        W92529  33.130   5.750  16.568  0.0152 -0.1772 -0.0299
49477W        W92530  29.834  28.793  19.229  0.2251 -0.0485  0.3251
49478W        W92531   9.818  31.329  17.531  0.1392  0.1662  0.1670
49479W        W92532  18.801  25.884  21.217  0.0924 -0.1500 -0.0750
49480W        W92533   2.796  21.165  14.939 -0.3281 -0.2245  0.4815
49481W        W92534   6.088  27.260  18.281 -0.1518 -0.1751  0.0763
49482W        W92535  15.060  34.490  24.224 -0.2563 -0.3360 -0.0427
49483W        W92536   2.779  34.459   0.067 -0.1102 -0.0936 -0.0381
49484W        W92537  34.364  25.035  14.331  0.4537  0.3586 -0.1714
49485W        W92538   7.288  18.392  22.553 -0.1919 -0.0145  0.1379
49486W        W92539  33.144   2.130  15.199 -0.1938 -0.5791 -0.1930
49487W        W92540  17.650   5.665  27.201  0.0498 -0.0176 -0.2802
49488W        W92541   0.644   4.587  15.771  0.1346  0.3670  0.0333
49489W        W92542  17.254  29.314  26.978  0.1279  0.1386  0.2547
49490W        W92543   7.950   1.227  18.718  0.0244 -0.2198 -0.0221
49491W        W92544  20.127   2.547  27.554 -0.0707  0.1077  0.1470
49492W        W92545  10.471   2.542  17.639 -0.1141  0.2186  0.0112
49493W        W92546  15.162  22.295  19.165  0.2905  0.1904  0.0016
49494W        W92547   9.384  24.869  25.479  0.3346 -0.0221 -0.1873
49495W        W92548   5.882  21.353  17.161  0.0142  0.0651 -0.1664
49496W        W92549  24.785  22.435  22.432 -0.0197  0.2479  0.0690
49497W        W92550  15.714  28.508   8.164 -0.1594 -0.1582  0.3115
49498W        W92551  16.255   0.843  18.309 -0.0432 -0.1297  0.0211
49499W        W92552  31.304   4.972   5.826  0.3230 -0.2022 -0.0924
49500W        W92553  24.877  29.453  27.111 -0.2462  0.0859 -0.0387
49501W        W92554   9.720   3.244   2.187 -0.1649 -0.1148 -0.0882
49502W        W92555   6.104  32.742  14.881  0.1231  0.0037  0.0443
49503W        W92556  32.187  23.545  21.652 -0.0895  0.3403  0.2635
49504W        W92557  34.553  30.068  14.261  0.0359  0.1054 -0.1540
49505W        W92558  18.573   7.417  27.410  0.1444 -0.1112 -0.0442
49506W        W92559  12.712  20.779  17.075  0.0707  0.2621 -0.0154
49507W        W92560  13.866  27.181  18.448  0.0030 -0.0152 -0.2301
49508W        W92561   8.631   9.966  22.132  0.2727 -0.2360 -0.3811
49509W        W92562   5.490  27.077  25.297 -0.1867 -0.0108  0.1356
49510W        W92563  17.451  33.841  27.031 -0.1333  0.0096 -0.3856
49511W        W92564   2.024  15.714  20.867 -0.2050 -0.1588 -0.1178
49512W        W92565   1.122   2.773  14.548  0.1057 -0.4687  0.4170
49513W        W92566  10.571   4.764  16.448 -0.2680  0.2157 -0.1327
49514W        W92567  12.617  27.183  20.634 -0.0207  0.1436  0.0504
49515W        W92568   7.987  33.109  18.363 -0.0806 -0.1855  0.4180
49516W        W92569  27.430   7.470  14.929 -0.1977 -0.2524 -0.0595
49517W        W92570  15.148  20.291  28.167  0.1045  0.2388 -0.1510
49518W        W92571   8.368   4.029   4.510 -0.3668 -0.1855  0.0741
49519W        W92572  11.756  20.351  25.068  0.2208 -0.2235 -0.0146
49520W        W92573  11.857  19.363  23.222  0.0558 -0.4494 -0.2388
49521W        W92574  24.967  30.191  24.299 -0.3219 -0.0019  0.1416
49522W        W92575  15.693  16.039  27.384  0.0804  0.1795  0.0739
49523W        W92576  27.346  19.612  16.786 -0.1321 -0.0813 -0.1439
49524W        W92577  11.001   3.444  22.368  0.0716  0.0570 -0.1575
49525W        W92578   1.444   5.307  19.408  0.0059  0.1639 -0.2167
49526W        W92579  24.624   1.056  21.242 -0.2343 -0.1590 -0.0059
49527W        W92580  33.921  14.605  21.827 -0.2046  0.2179 -0.0498
49528W        W92581  33.922   1.034  22.094  0.1126  0.0575 -0.1390
49529W        W92582  29.874  28.780  27.572 -0.0603 -0.1668 -0.0895
49530W        W92583   1.141  10.571  23.134 -0.2430 -0.0513 -0.1298
49531W        W92584   7.509  32.081  22.819 -0.0362  0.2840 -0.3238
49532W        W92585  15.867   2.589  26.420 -0.6619  0.1247  0.1263
49533W        W92586  29.634  19.876  24.803  0.0968 -0.0582 -0.2632
49534W        W92587  27.126  32.315  26.025  0.2598  0.0043  0.0755
49535W        W92588   4.805  18.933  20.591  0.0860  0.0727  0.2925
49536W        W92589  24.699  28.138  23.214  0.0380 -0.2374  0.0979
49537W        W92590   4.439  33.481  16.194  0.0438 -0.0359  0.3414
49538W        W92591  28.277  27.711  28.799  0.1229 -0.1423 -0.0661
49539W        W92592  27.116   1.292  15.549 -0.1874  0.0450 -0.1183
49540W        W92593  19.501  26.075   9.012  0.3294  0.0215 -0.3957
49541W        W92594  30.195  12.355  23.809 -0.0492 -0.1166 -0.2407
49542W        W92595   1.814  30.711  25.639 -0.0768 -0.2158 -0.1466
49543W        W92596  26.759  24.149  15.041  0.1757  0.1064 -0.0464
49544W        W92597  21.782  31.755  18.161  0.1242  0.1006  0.2004
49545W        W92598   6.552  34.131  21.854 -0.2341 -0.0471 -0.2534
49546W        W92599   6.277   3.402  22.445  0.2540  0.0335  0.0223
49547W        W92600  10.230   6.102  22.885  0.1746 -0.0013 -0.1395
49548W        W92601   8.162  31.353  16.077  0.0603 -0.0162 -0.0450
49549W        W92602   6.259  15.917  18.064 -0.0662 -0.2185  0.1245
49550W        W92603  24.249  31.065  21.367 -0.1835 -0.2295  0.1390
49551W        W92604   7.134  32.986  22.175  0.1985  0.1115 -0.1881
49552W        W92605  11.876  33.205  25.934 -0.1816  0.3401 -0.2212
49553W        W92606   7.370   4.666  22.113 -0.1382 -0.1367  0.1749
49554W        W92607  12.853   0.990  15.898 -0.0146 -0.2506 -0.1124
49555W        W92608  12.106  31.364  13.774  0.0140 -0.1792  0.1462
49556W        W92609  17.844   4.941  15.543  0.1349 -0.2802 -0.0629
49557W        W92610  31.963  20.993  17.706 -0.1626 -0.0495  0.1337
49558W        W92611  15.927  24.055  24.035  0.0203 -0.2229 -0.3490
49559W        W92612  29.109  31.794  25.190 -0.2118  0.0775  0.1896
49560W        W92613  32.275  12.641  21.458 -0.2272 -0.2613 -0.1267
49561W        W92614  29.756  22.133  16.527  0.0183 -0.0085 -0.1704
49562W        W92615   2.871  33.069  18.981 -0.0274  0.0955 -0.0205
49563W        W92616   2.909  31.947   4.404 -0.0203  0.1106  0.2069
49564W        W92617   5.273  32.768  22.370 -0.0897 -0.0929 -0.2302
49565W        W92618  11.022  33.039  15.658  0.0107 -0.1147 -0.2594
49566W        W92619   2.205  11.809   0.635 -0.1793  0.2361  0.0487
49567W        W92620   1.965  13.417  20.762  0.0593  0.0919 -0.1104
49568W        W92621  22.714  19.889  23.203 -0.1391 -0.3713  0.0130
49569W        W92622  31.832   6.376  14.403 -0.0339  0.0428 -0.0993
49570W        W92623  33.654  32.335  16.700 -0.1305 -0.0201 -0.0555
49571W        W92624   4.170   5.603  28.456 -0.3356  0.0273  0.2940
49572W        W92625  10.654  22.049  13.753 -0.0331 -0.2268 -0.2456
49573W        W92626   7.619   3.771  22.234  0.0321  0.2677 -0.1897
49574W        W92627  30.938  31.182  19.511 -0.1860  0.1653 -0.0679
49575W        W92628  29.133  28.198   8.780  0.3892 -0.0429  0.0529
49576W        W92629  21.880  32.504  14.852 -0.0292 -0.3207 -0.1756
49577W        W92630  17.558  23.506  16.582 -0.1328  0.0370 -0.0119
49578W        W92631   2.395   8.704  22.898 -0.1229 -0.0380  0.0016
49579W        W92632   7.202   2.974  29.054  0.3406  0.2814  0.0062
49580W        W92633  11.607  32.627  16.148 -0.4565  0.1059  0.1083
49581W        W92634  21.013  33.121   0.315  0.0168 -0.1222 -0.0614
49582W        W92635   6.011   6.838  26.142 -0.1746  0.0065  0.1013
49583W        W92636  18.248   0.874  19.820 -0.1341 -0.4179 -0.0306
49584W        W92637  15.234   9.043   1.614  0.0457 -0.0084  0.1579
49585W        W92638  29.684  15.776  23.760 -0.1319  0.1222 -0.1502
49586W        W92639  28.483  34.323  14.912 -0.0293  0.3292  0.0764
49587W        W92640  18.142  16.021   0.855 -0.0522 -0.0253 -0.1865
49588W        W92641  33.602  24.875  18.873  0.0518 -0.0588 -0.2078
49589W        W92642   9.983  17.177   1.508  0.1382 -0.1376 -0.2089
49590W        W92643   3.429  12.902  26.586  0.0276  0.4929  0.0196
49591W        W92644   5.994  10.252  15.354 -0.0806 -0.2813 -0.0567
49592W        W92645  21.146  12.938   1.754 -0.0564 -0.0269  0.0445
49593W        W92646   7.058  23.049  25.183 -0.0614 -0.1455  0.1963
49594W        W92647   6.329  24.231   1.342  0.0769 -0.0607 -0.3021
49595W        W92648  12.810   6.041   1.344 -0.1557 -0.1171  0.3005
49596W        W92649  23.860  28.239  25.955 -0.1587  0.0042  0.1659
49597W        W92650  15.311  32.819  25.110  0.1985  0.3464 -0.1105
49598W        W92651   7.841   4.272  26.395 -0.2035 -0.0535 -0.0450
49599W        W92652  19.641   4.731  16.078 -0.2953 -0.1879 -0.1212
49600W        W92653  28.386   1.103  16.382 -0.2852  0.0976 -0.0848
49601W        W92654   4.730  31.877  23.127 -0.2842 -0.2406 -0.3718
49602W        W92655  27.153  34.594  14.431  0.2850  0.2073  0.1448
49603W        W92656   1.392  27.390   0.491  0.0508  0.2898 -0.0746
49604W        W92657  31.675  25.594  21.378  0.0920 -0.1987  0.2068
49605W        W92658  31.664  24.907  25.630  0.0295 -0.4190  0.1912
49606W        W92659   6.816  23.217  21.362 -0.1759  0.3513  0.1293
49607W        W92660  20.274  32.447  21.403 -0.0555 -0.0392  0.0297
49608W        W92661   7.353   5.020  26.027  0.0648  0.0968  0.2362
49609W        W92662  17.524  25.793  21.177  0.0190  0.1248 -0.0394
49610W        W92663  24.018  22.481  15.878  0.0523  0.2888 -0.2084
49611W        W92664  34.341  18.503  19.569  0.1537  0.0607 -0.0772
49612W        W92665  16.580  28.293  20.531  0.1589 -0.0129 -0.1494
49613W        W92666   9.462   0.550  26.295  0.0929 -0.0695  0.3446
49614W        W92667   9.260  25.113  16.051 -0.1454 -0.0466 -0.1454
49615W        W92668   0.960  28.302  15.290  0.2350  0.1465  0.1775
49616W        W92669  21.752  30.464  20.522  0.1060 -0.2230 -0.1165
49617W        W92670  14.145   9.697  17.324 -0.1062  0.4801  0.4407
49618W        W92671   4.431  26.117  22.241 -0.1444  0.1214 -0.1628
49619W        W92672   7.668  11.615  17.158 -0.0188  0.1286  0.1748
49620W        W92673   5.062   7.371  15.924  0.0638 -0.2794 -0.0176
49621W        W92674  10.027   0.257  23.118 -0.1503 -0.0041 -0.0717
49622W        W92675   3.884   6.163  15.258  0.0524 -0.1820  0.3530
49623W        W92676  16.596   2.623  15.038 -0.2923  0.0669  0.3875
49624W        W92677   0.456   2.632   4.892  0.1039 -0.0072  0.3204
49625W        W92678  16.263   5.310  25.776 -0.0432 -0.2776 -0.0987
49626W        W92679   6.727  30.930  24.769 -0.0885  0.0239  0.2062
49627W        W92680  23.442  31.079   2.696 -0.3537  0.3194  0.0930
49628W        W92681  25.919  14.724  22.477 -0.2731 -0.1243 -0.0034
49629W        W92682   9.200  33.635  25.405  0.1249 -0.2425  0.1852
49630W        W92683  10.472   5.220  16.314  0.0308  0.3159 -0.0918
49631W        W92684   0.193   0.341  22.774 -0.0994  0.0086  0.4343
49632W        W92685   2.770  16.312   5.836 -0.3248  0.0421  0.0328
49633W        W92686   8.796  11.416   0.901  0.0358  0.2630 -0.0341
49634W        W92687  10.145  18.397  13.604  0.0818  0.2493 -0.0451
49635W        W92688  29.317  22.120  22.550  0.0630 -0.3196  0.3295
49636W        W92689  13.889  32.233  24.083  0.0126 -0.0400 -0.0079
49637W        W92690  34.541  33.414  28.479 -0.1214  0.0482  0.1465
49638W        W92691  30.245  22.900  18.655  0.0620  0.2670  0.0455
49639W        W92692   4.761  33.715  22.521 -0.0219  0.0433 -0.1668
49640W        W92693  34.267  30.131   9.028  0.2645 -0.0361 -0.1874
49641W        W92694  31.006  24.452  19.376 -0.1052 -0.1619 -0.2922
49642W        W92695  24.475   8.175   0.497  0.1198  0.0027  0.0492
49643W        W92696  27.155  27.433  23.135 -0.2313  0.1019 -0.2943
49644W        W92697  16.958   0.589  19.479  0.4357  0.0166 -0.3677
49645W        W92698   1.678  13.811  20.584 -0.0108 -0.6653  0.2291
49646W        W92699   9.791   4.409  18.641 -0.0668  0.0999 -0.1425
49647W        W92700   9.339  33.547  22.161  0.1667  0.2256  0.2028
49648W        W92701  15.623  32.404  16.502  0.1348  0.2415 -0.0444
49649W        W92702   8.538  22.383   9.437 -0.0014 -0.0257 -0.0802
49650W        W92703  13.168  33.901  25.463 -0.3981 -0.0432  0.0801
49651W        W92704  13.605  27.058  19.387  0.1016  0.1003 -0.1071
49652W        W92705  26.105  31.408  14.991  0.3621  0.1261  0.1323
49653W        W92706   7.911  30.409  24.979 -0.1570  0.5456 -0.0469
49654W        W92707  27.609  29.922  20.310  0.2462  0.1593 -0.1974
49655W        W92708   0.755  29.149  16.730 -0.0090  0.3501 -0.1817
49656W        W92709  11.366  28.493  17.134 -0.2852 -0.0687 -0.1619
49657W        W92710  11.800  15.362  18.749 -0.0437 -0.3480  0.0062
49658W        W92711   5.944   2.896   7.444 -0.2434  0.0520  0.2480
49659W        W92712  33.083   3.847  28.349 -0.0562  0.0536  0.3636
49660W        W92713  10.943  25.231  19.243 -0.3167 -0.2970  0.0552
49661W        W92714   2.641   3.570  24.819 -0.0596 -0.0464 -0.0873
49662W        W92715   9.081  32.135  19.167 -0.2800  0.1327  0.0518
49663W        W92716  14.628  17.206  14.367  0.0235  0.1672 -0.2082
49664W        W92717  13.260  23.559  17.150  0.0172 -0.0978 -0.0431
49665W        W92718  34.167   5.441  16.881  0.0588  0.0561  0.1693
49666W        W92719   7.926   0.517  24.622 -0.1016  0.2930  0.1010
49667W        W92720   6.532   1.878  26.109 -0.0622 -0.0038  0.3392
49668W        W92721   6.210  18.147   0.064 -0.0964 -0.0174 -0.0905
49669W        W92722  32.017   3.751  24.542  0.0508 -0.3047  0.1027
49670W        W92723  11.449  21.059  21.886  0.1601  0.1208 -0.4039
49671W        W92724   1.950  11.706   1.039 -0.1851  0.0727  0.3319
49672W        W92725  30.157   4.823  15.937  0.1159 -0.1811 -0.1337
49673W        W92726   3.543   5.979  28.108 -0.2741 -0.0462  0.1966
49674W        W92727  20.749  30.278  24.199 -0.0443 -0.0198  0.0399
49675W        W92728   3.999   8.664  23.299  0.0922 -0.2631 -0.1164
49676W        W92729  14.887  33.010  24.591 -0.0717  0.3322 -0.0764
49677W        W92730  17.628  22.969  19.884  0.0946 -0.4252 -0.1248
49678W        W92731  19.409  13.436  19.346 -0.1311  0.0586  0.2018
49679W        W92732   7.761  23.432   2.028  0.2513 -0.1223 -0.1551
49680W        W92733  10.597  26.937  26.818 -0.1741 -0.4457  0.2134
49681W        W92734   7.435   3.826  22.779  0.3309 -0.1941 -0.5662
49682W        W92735  22.004  25.922  16.889 -0.1612  0.0850 -0.0615
49683W        W92736  34.260  26.328  24.302 -0.2486 -0.1585 -0.1235
49684W        W92737  21.668  15.874  21.559 -0.2683 -0.2225  0.0780
49685W        W92738  32.006  23.368  24.742  0.3808  0.1513  0.0090
49686W        W92739  18.341  33.521   0.585 -0.1035  0.0283 -0.1789
49687W        W92740   7.287  31.271  21.184 -0.6233 -0.0350 -0.0622
49688W        W92741   7.608  26.881  21.906 -0.1343  0.2770 -0.3375
49689W        W92742   8.086   2.864  16.084 -0.1789 -0.0995  0.0709
49690W        W92743   7.724  24.883  19.509  0.0870  0.3081  0.0515
49691W        W92744  29.356  23.623  27.153 -0.1135  0.2351 -0.1775
49692W        W92745   8.657   4.488  21.607  0.1459  0.1325  0.0274
49693W        W92746  16.768   2.315  20.613  0.0598  0.0446 -0.3704
49694W        W92747  33.910   3.656  19.388 -0.0231 -0.2545 -0.0203
49695W        W92748  34.246  17.126  19.084  0.1545  0.0925 -0.1229
49696W        W92749   1.197  19.987  17.066  0.0588 -0.1464  0.4401
49697W        W92750  23.553   6.848  15.405 -0.0344 -0.1072 -0.1209
49698W        W92751  16.667   0.319  21.656 -0.0894  0.2642  0.1137
49699W        W92752  11.098  15.556   5.434 -0.1649 -0.0630  0.1338
49700W        W92753   8.583  12.813  17.179 -0.1064 -0.0613 -0.2045
49701W        W92754  14.655  33.967  19.974  0.0323 -0.1113 -0.1021
49702W        W92755  17.383  15.118  14.106  0.0454  0.0841  0.0970
49703W        W92756  21.159   0.983   5.139 -0.0036 -0.1021  0.0044
49704W        W92757   6.583  28.505  13.597  0.4168 -0.1167  0.1468
49705W        W92758  23.685  28.631   3.749 -0.2463 -0.0670  0.1811
49706W        W92759  12.490  10.886   6.207 -0.1136  0.0182  0.1208
49707W        W92760  13.057  17.827  17.462  0.3771  0.1497 -0.5393
49708W        W92761  14.345   3.044  24.183 -0.0603  0.1592 -0.1838
49709W        W92762   1.005  23.474  23.601  0.0268 -0.1434 -0.2965
49710W        W92763  15.618   0.755  29.169 -0.1662 -0.4269 -0.1995
49711W        W92764  18.757   2.282   0.680  0.0551  0.1612 -0.1183
49712W        W92765  30.229  28.620  13.699  0.2023  0.2757 -0.1405
49713W        W92766  13.456  34.577   0.453 -0.0607  0.0792  0.2230
49714W        W92767   5.584  27.113  18.478  0.0520 -0.0040  0.0434
49715W        W92768   9.407  29.752  27.600  0.1220  0.2173 -0.0396
49716W        W92769  20.263  32.049  14.860 -0.0350  0.1749  0.0486
49717W        W92770   7.407  28.335   1.058 -0.0995  0.0760  0.3378
49718W        W92771   9.815  18.407   1.705 -0.0333  0.1877  0.1081
49719W        W92772  18.538   1.938  10.092 -0.1234  0.1901  0.0598
49720W        W92773  34.299  24.014  21.967  0.7257 -0.0857  0.0423
49721W        W92774  22.598   3.576  18.024  0.1663 -0.3399 -0.3589
49722W        W92775  27.770  24.038  27.689  0.1365 -0.3078 -0.2875
49723W        W92776   7.438   8.012   8.921  0.2159 -0.0148  0.0255
49724W        W92777  33.474  28.564  15.919  0.0365 -0.1759 -0.1824
49725W        W92778  12.719  19.644  16.120 -0.0984 -0.2161 -0.0594
49726W        W92779   0.517   2.272  19.565  0.0490  0.2990 -0.1604
49727W        W92780  21.956  16.574  23.314 -0.0071  0.0884 -0.3636
49728W        W92781  34.378  26.943  14.872 -0.1420  0.0360 -0.0584
49729W        W92782   6.792  30.186  21.594 -0.2488 -0.0019 -0.1890
49730W        W92783   9.458  26.288  14.208 -0.1829  0.1780  0.0318
49731W        W92784  20.659   2.771   0.793  0.1463  0.1917 -0.2966
49732W        W92785   4.949  27.587   2.470  0.4225  0.0321 -0.4582
49733W        W92786  17.132  25.398  18.678  0.1760  0.0943 -0.1512
49734W        W92787  14.631   9.110  16.728  0.1026  0.1578  0.3361
49735W        W92788   2.533  18.177  18.258  0.0797 -0.2460  0.1600
49736W        W92789   4.366  10.395  18.092 -0.1403  0.0325 -0.0541
49737W        W92790  13.611  23.399  28.594 -0.1508 -0.0135  0.4054
49738W        W92791   4.841   5.137  17.546 -0.1098  0.0411 -0.0676
49739W        W92792   6.526  22.291  26.563 -0.0898  0.3507  0.0022
49740W        W92793  19.593  31.115  16.736  0.3133  0.2462  0.5425
49741W        W92794  23.959  27.064  16.768  0.0242 -0.2943  0.1063
49742W        W92795  26.484   0.584   3.074 -0.2483 -0.0035 -0.0522
49743W        W92796  30.876  25.120  16.763  0.1437  0.1716  0.0231
49744W        W92797   9.493   3.250   3.237 -0.1469 -0.1851 -0.0307
49745W        W92798   4.363  10.113  22.120 -0.1389  0.0559 -0.3806
49746W        W92799  15.860  34.260  23.804  0.1168 -0.0898 -0.0574
49747W        W92800   8.199  21.801  22.100 -0.0765  0.0882  0.1605
49748W        W92801  32.195  13.702   4.101  0.4804  0.1212  0.0894
49749W        W92802   9.246  31.161  23.134 -0.0689  0.5086 -0.0883
49750W        W92803  22.851  28.976  27.526 -0.1059  0.2169  0.0202
49751W        W92804  33.241  14.817   3.546 -0.1258 -0.0235 -0.0729
49752W        W92805  27.187  22.909  17.318 -0.0963 -0.3459  0.3161
49753W        W92806  16.087  16.842   1.612  0.2406  0.0241  0.1635
49754W        W92807  21.323  34.627  14.549  0.0906  0.2114 -0.2698
49755W        W92808   5.063  26.802  19.463 -0.1583 -0.1131 -0.0228
49756W        W92809  29.891  28.349  17.340 -0.0976 -0.2076  0.0681
49757W        W92810  12.558   0.235  10.290  0.1077  0.4046 -0.2505
49758W        W92811  23.326  16.390  27.878  0.3421 -0.0988 -0.0171
49759W        W92812  32.159  19.895  25.778  0.0265 -0.1153 -0.0073
49760W        W92813   0.940  26.863  13.053 -0.2780 -0.0721 -0.0017
49761W        W92814  12.000  34.274  22.913 -0.0984 -0.0110 -0.2371
49762W        W92815  16.483  33.448  28.470  0.1164  0.3382  0.1603
49763W        W92816  19.789   2.749  26.241 -0.1462  0.1302  0.0920
49764W        W92817  18.711  30.726  29.028 -0.4075  0.1279 -0.2929
49765W        W92818   1.874   4.881   3.306  0.3473  0.0976  0.1139
49766W        W92819   3.292  13.673  20.529 -0.0058  0.0979 -0.0857
49767W        W92820  28.545  33.799  24.015 -0.1124  0.1475  0.1914
49768W        W92821   4.012  28.955  23.753  0.3448  0.1136 -0.2257
49769W        W92822   3.304  12.748   4.578 -0.0869  0.0698  0.0419
49770W        W92823  12.624   2.357  22.794 -0.0283  0.3091 -0.1236
49771W        W92824  32.971   6.087  21.141  0.0243  0.1666  0.1388
49772W        W92825  33.343  30.115  17.364 -0.2692 -0.1174  0.5834
49773W        W92826   8.161   3.991  15.903  0.0659  0.1858  0.0108
49774W        W92827   6.516  21.079  15.690 -0.1784 -0.0037  0.0402
49775W        W92828  30.279   5.733  21.687 -0.1224 -0.1039 -0.0651
49776W        W92829  17.833  27.252  16.995 -0.4178 -0.1406 -0.0468
49777W        W92830   2.094   3.384  20.045 -0.1284 -0.2171 -0.2844
49778W        W92831  28.739  31.002  21.030  0.1208  0.1299 -0.0058
49779W        W92832   6.019  16.586  24.253 -0.2401  0.0763  0.0816
49780W        W92833  11.796  25.620  24.272  0.4154 -0.2303  0.2631
49781W        W92834   4.161  20.661  28.503 -0.0887  0.0139  0.2353
49782W        W92835  31.451  28.615  24.534 -0.1001 -0.3051  0.0138
49783W        W92836  17.193  24.902  14.264  0.1671  0.0507  0.1332
49784W        W92837   6.642   8.225  17.228 -0.3176  0.2978  0.2243
49785W        W92838  14.927  34.502  21.828  0.1832  0.5885  0.0258
49786W        W92839  19.738  22.020  23.373  0.2227  0.1471  0.0478
49787W        W92840  16.857   6.170  18.475  0.1116  0.1569  0.2363
49788W        W92841   0.131  19.929   1.298 -0.0492  0.0489 -0.1986
49789W        W92842   9.746   0.315  22.410  0.1659 -0.2135  0.3333
49790W        W92843  14.420  18.798  16.255  0.1987 -0.1602 -0.1810
49791W        W92844   2.740  33.162  14.965 -0.2204  0.2650 -0.1901
49792W        W92845  31.813  23.218  23.262 -0.2739 -0.2600 -0.0845
49793W        W92846   5.881  25.317  20.422 -0.1053 -0.0429  0.1565
49794W        W92847  14.037  28.367  19.934 -0.5058  0.1019 -0.1465
49795W        W92848   7.919  26.615  18.892 -0.0485  0.0899 -0.3560
49796W        W92849   3.814  28.162  18.260 -0.0871 -0.1987 -0.0022
49797W        W92850  12.420  25.643  16.893 -0.3614 -0.1852  0.1123
49798W        W92851  15.830   5.371  14.324  0.0213 -0.1425  0.2231
49799W        W92852  20.480  21.384  16.217  0.0679  0.1573 -0.2994
49800W        W92853  19.029  33.914   1.083  0.0098  0.4829 -0.0806
49801W        W92854   8.350  31.408  26.770 -0.3858  0.1503  0.0225
49802W        W92855   4.151  24.924  17.575  0.1514  0.2342  0.4052
49803W        W92856   9.338  27.517  16.578 -0.2464  0.0606 -0.0050
49804W        W92857   6.846   2.997  20.886 -0.1377 -0.0537  0.3683
49805W        W92858   6.698  20.850  19.817 -0.2447  0.1993 -0.0045
49806W        W92859  23.620  33.024  27.663  0.2102 -0.2973  0.0185
49807W        W92860  29.842  23.490  16.268 -0.0111 -0.1814  0.0817
49808W        W92861   4.081  12.006  27.174  0.1304  0.2708  0.1631
49809W        W92862  19.374   0.390   2.076  0.3133  0.1884 -0.0443
49810W        W92863   6.214  15.481  25.436  0.1456  0.0346 -0.3793
49811W        W92864   8.971  31.201  15.169 -0.0339 -0.0808  0.2666
49812W        W92865   9.980  10.912  22.569  0.1317  0.5907 -0.0643
49813W        W92866  13.805  31.464  16.013  0.2825 -0.1446 -0.2810
49814W        W92867   8.055  23.885   1.469  0.0031 -0.2375  0.1677
49815W        W92868  19.589   4.972  27.127 -0.3217  0.2764  0.2126
49816W        W92869  33.828  33.091  18.425 -0.0419  0.2405 -0.1804
49817W        W92870   0.757  19.669  21.341 -0.3056  0.1930 -0.1719
49818W        W92871  14.798  33.544  15.882 -0.0311 -0.1152  0.0285
49819W        W92872   6.486   8.678  17.817 -0.1764  0.1093  0.0598
49820W        W92873  13.414  22.046  23.779 -0.0365 -0.0130  0.0904
49821W        W92874   9.311  28.438  24.514 -0.0382 -0.1422 -0.0451
49822W        W92875  24.141  29.073  28.612 -0.2905  0.2780 -0.3020
49823W        W92876   8.450  31.423  27.334 -0.0142 -0.1576  0.0174
49824W        W92877   4.374  34.373   5.080 -0.3775 -0.0908 -0.0911
49825W        W92878  17.193  22.154  14.841 -0.1530 -0.1309  0.0174
49826W        W92879  15.905   4.005  26.359  0.0320 -0.2838  0.2167
49827W        W92880   4.735  16.853  22.974  0.1067 -0.1420  0.1519
49828W        W92881  15.913  30.375  15.717  0.0822 -0.0207 -0.1954
49829W        W92882  32.176  34.011  28.117  0.3417  0.0541 -0.0664
49830W        W92883   0.314  20.959  23.548 -0.2696 -0.1111  0.1579
49831W        W92884  15.237  22.290  25.341  0.3440  0.2684  0.2630
49832W        W92885  11.577   6.232   1.663  0.2916 -0.0923  0.0575
49833W        W92886  24.663   2.486  27.964  0.1498 -0.1257 -0.2602
49834W        W92887  34.253  20.653  22.662  0.1847 -0.3597 -0.1285
49835W        W92888   6.769  31.211   1.018  0.2522  0.1475 -0.3514
49836W        W92889  13.467   0.968  16.413 -0.2718  0.2704 -0.3087
49837W        W92890  20.189  33.983  25.742  0.2993 -0.0701  0.1891
49838W        W92891   5.971  21.117  24.128 -0.5530  0.2424 -0.1535
49839W        W92892  33.149  20.934  18.087 -0.0814 -0.0957 -0.3279
49840W        W92893   6.450  20.809  15.216 -0.0296  0.0883  0.1468
49841W        W92894   3.492  14.499  16.427 -0.1962  0.0271  0.3672
49842W        W92895  21.204  21.168  28.732  0.0574  0.2560 -0.0324
49843W        W92896  32.651  13.903  15.289  0.0029  0.2328 -0.1088
49844W        W92897   4.645   6.381  19.136  0.2004 -0.1376 -0.0153
49845W        W92898  13.758  30.919  17.557 -0.0742  0.1895  0.1361
49846W        W92899  12.745  34.681  17.416  0.0107  0.1323 -0.1161
49847W        W92900   7.220  12.508  20.603  0.1579 -0.1182 -0.2993
49848W        W92901  13.559   6.517  28.715  0.0940 -0.0161  0.0342
49849W        W92902   4.801   3.941  23.258  0.0994  0.1684 -0.0979
49850W        W92903  21.340  24.594  18.064  0.0942 -0.2474 -0.3455
49851W        W92904  31.263  29.966  20.119 -0.2027  0.0951  0.1624
49852W        W92905   6.517  29.150  20.467 -0.0574  0.3201  0.2459
49853W        W92906  12.012  28.969  20.133  0.0726 -0.0604 -0.3272
49854W        W92907  13.043  26.611  15.036  0.2160 -0.2868 -0.0355
49855W        W92908  30.481  32.135  15.542 -0.2679 -0.0004  0.0269
49856W        W92909   4.523  17.923  24.902  0.0432 -0.0678  0.2496
49857W        W92910   9.329  34.512  14.878  0.0244  0.1506 -0.0219
49858W        W92911  25.698   9.959   5.723  0.1023  0.0070  0.2130
49859W        W92912   4.324   1.283  28.550  0.0603  0.1243  0.0554
49860W        W92913   2.114  16.801   0.504 -0.2597  0.0937  0.2342
49861W        W92914  26.966  13.039  21.190  0.0580  0.1185 -0.1813
49862W        W92915  12.777   3.637  16.271 -0.2499 -0.0806  0.1524
49863W        W92916  14.010  16.433  22.403 -0.0388  0.0388 -0.0386
49864W        W92917  14.101   0.801  16.379  0.0406 -0.1646  0.3394
49865W        W92918  32.282  30.965  13.825 -0.0516  0.1063 -0.0115
49866W        W92919   3.303  14.710  19.095  0.0385  0.1060  0.1936
49867W        W92920  11.940  23.550  15.164 -0.0491  0.0404 -0.1455
49868W        W92921   6.735   1.761  21.188 -0.1257 -0.1996 -0.0729
49869W        W92922  16.398  10.663  16.461 -0.1886  0.0560 -0.3118
49870W        W92923  24.547   4.061  25.043 -0.2816  0.0192 -0.0767
49871W        W92924  34.087   1.653  18.476  0.2587  0.1360 -0.2627
49872W        W92925  33.084  13.491  26.842  0.2459 -0.0451  0.2480
49873W        W92926  14.974  28.410  28.337  0.0620  0.0039 -0.0902
49874W        W92927  33.416  20.457  18.809  0.0023  0.0826  0.2922
49875W        W92928   7.994   2.600   9.589 -0.1661  0.0783  0.0471
49876W        W92929   8.844  24.565  14.161 -0.0416  0.3302 -0.2147
49877W        W92930  13.922  33.914  23.092  0.0420  0.3793  0.0778
49878W        W92931   8.872  15.565  26.448  0.0247 -0.1694 -0.1533
49879W        W92932  17.935  11.588  28.650 -0.2534  0.1022  0.3640
49880W        W92933  13.318   7.068   5.177 -0.0851  0.2952 -0.1669
49881W        W92934  27.011   9.027  28.796 -0.0702 -0.1041 -0.0075
49882W        W92935   8.544   8.010  18.607 -0.0456  0.2610 -0.1777
49883W        W92936  14.108  32.094  18.990 -0.1835  0.1055 -0.1774
49884W        W92937  13.540  34.164  21.213  0.3045 -0.0283  0.6611
49885W        W92938   3.387  12.852  16.119 -0.1545 -0.3117 -0.1111
49886W        W92939  32.844   3.356  19.676 -0.1268  0.1142 -0.0905
49887W        W92940   7.051   6.458  22.459 -0.3096 -0.0702  0.1202
49888W        W92941  32.689  27.314  13.650  0.0639 -0.1815  0.0841
49889W        W92942  27.309  29.053  16.211 -0.0188  0.1375 -0.0779
49890W        W92943  10.278  28.066  17.477  0.1592  0.0108 -0.3455
49891W        W92944   5.643  30.202  15.783  0.1466  0.1331  0.0788
49892W        W92945   6.147  25.785  19.589 -0.0905  0.1491 -0.1786
49893W        W92946   3.461  23.085   7.411 -0.0757  0.2597 -0.4924
49894W        W92947  34.087  10.613  23.444  0.1685 -0.2943  0.2118
49895W        W92948  23.138  29.558  28.771  0.1379  0.1205 -0.0360
49896W        W92949   7.815   0.670  15.618 -0.4047  0.1650  0.0174
49897W        W92950  10.172   7.729   8.822  0.0885 -0.2804 -0.1121
49898W        W92951   8.619   6.235  27.798 -0.2282 -0.1518  0.1889
49899W        W92952   7.655   6.851  15.066 -0.0677  0.0944 -0.4876
49900W        W92953   1.576  24.033  23.185 -0.0134  0.1892 -0.2847
49901W        W92954  11.345  24.848  15.704 -0.0266 -0.0234 -0.0336
49902W        W92955  23.486   1.811  17.385 -0.0028  0.2404 -0.1176
49903W        W92956   3.052  32.839   0.877 -0.1112 -0.4815  0.1100
49904W        W92957  12.745  19.130  21.688 -0.1105 -0.3945 -0.1610
49905W        W92958  21.586   4.001  18.784 -0.1896  0.0911 -0.1663
49906W        W92959  26.115   2.293  24.802  0.2330  0.1156 -0.0832
49907W        W92960   1.749  19.731  23.638 -0.1629  0.0793  0.0498
49908W        W92961  27.563  34.106  18.853  0.2641 -0.1616 -0.0243
49909W        W92962  34.114  33.754  28.246  0.0034  0.0416  0.1813
49910W        W92963  20.513   6.690  18.526 -0.0674  0.2512  0.1943
49911W        W92964  11.199  33.297  22.038 -0.3542 -0.0862 -0.1615
49912W        W92965  33.762   3.005   0.175  0.0250 -0.2792 -0.3372
49913W        W92966  15.595   2.574  25.887  0.2323  0.1034 -0.0471
49914W        W92967   6.198  27.308  15.234  0.4178 -0.3308  0.2174
49915W        W92968  34.444   1.953  24.629  0.1766 -0.2438 -0.0332
49916W        W92969   3.244  32.134  15.377  0.2698 -0.0341  0.1979
49917W        W92970   0.012  24.673  16.163 -0.1668  0.0341  0.0767
49918W        W92971  25.429  22.273  22.389 -0.2578  0.0347  0.1803
49919W        W92972  29.754  16.439  18.052  0.3383 -0.0824  0.1300
49920W        W92973   4.502  21.722  23.875  0.0927 -0.3692  0.0036
49921W        W92974  15.375  29.430  25.327  0.3303  0.1602 -0.0802
49922W        W92975   8.607  29.655  17.131 -0.0919 -0.0821  0.0658
49923W        W92976  11.021  31.519  23.228  0.1295  0.1217  0.2352
49924W        W92977   2.309  24.635  22.332  0.3136  0.0494 -0.2616
49925W        W92978   7.242  32.921   8.527 -0.2819 -0.0797 -0.0955
49926W        W92979  13.161   0.485  16.221  0.2953  0.0626  0.0848
49927W        W92980  10.586   3.437  16.672  0.1916 -0.0709  0.0199
49928W        W92981   9.770  29.172   7.225 -0.2300 -0.2250 -0.2049
49929W        W92982  21.855   2.601  14.815  0.3881  0.1197 -0.2525
49930W        W92983  16.680   9.421  24.747 -0.3225 -0.2614 -0.3663
49931W        W92984  29.550  23.617  20.144  0.2981  0.0515  0.0901
49932W        W92985   7.684  24.356  28.534 -0.0351 -0.0655  0.1021
49933W        W92986  28.567   0.544  22.253  0.0998 -0.0477  0.2718
49934W        W92987  29.194  24.778  25.633  0.1538  0.1839 -0.2724
49935W        W92988  16.923  22.809  19.489  0.0170  0.3547  0.2290
49936W        W92989  20.096   4.939  20.520 -0.0420 -0.0332  0.0243
49937W        W92990  12.128  33.386  15.020  0.0835  0.0468  0.0583
49938W        W92991   7.358  17.081  23.968  0.0497 -0.3510 -0.3506
49939W        W92992  22.021  12.669  28.519  0.0239 -0.0597  0.0210
49940W        W92993  13.626   2.901  20.067  0.2431 -0.1147  0.2504
49941W        W92994   7.921  25.430   8.520 -0.3344 -0.0403  0.2640
49942W        W92995  21.611  34.612   5.907 -0.3648  0.2533 -0.0338
49943W        W92996  11.263  33.341  18.759  0.0693  0.2545  0.0361
49944W        W92997   7.780  32.968   9.435 -0.0347 -0.1065  0.2433
49945W        W92998   3.012   6.347  28.743  0.1200 -0.1068 -0.1209
49946W        W92999   7.139  30.184  23.796 -0.1491 -0.2066 -0.0599
49947W        W93000   4.903  27.223  20.259 -0.0415  0.1046  0.3121
49948W        W93001  34.283  34.003  14.408  0.2512  0.1126 -0.3986
49949W        W93002   3.271  26.091  18.509 -0.2584  0.0323 -0.0716
49950W        W93003   5.366   2.487  24.339 -0.1502  0.1131 -0.0843
49951W        W93004  10.813  12.935   2.016  0.2299 -0.2559 -0.1289
49952W        W93005   6.000   0.534  15.040  0.0287 -0.3578 -0.0488
49953W        W93006   6.281   8.930  27.072 -0.3131  0.1387 -0.1368
49954W        W93007  16.234  33.002   6.530  0.4503 -0.1502 -0.1833
49955W        W93008   3.115  30.596  23.177 -0.0580  0.1489 -0.1215
49956W        W93009   0.042  24.730  25.891  0.0522 -0.1115  0.1888
49957W        W93010  23.793  30.141  21.177 -0.0053 -0.0619  0.1351
49958W        W93011   0.701  23.930  21.289 -0.2255 -0.3332  0.2620
49959W        W93012  12.153   3.634  24.930  0.2450 -0.4636 -0.1168
49960W        W93013  13.140   4.111  14.602  0.0044 -0.3319  0.1432
49961W        W93014  32.830  30.402  22.383  0.0195  0.1119 -0.0942
49962W        W93015  30.624  14.435   6.134  0.1701  0.0724 -0.1531
49963W        W93016   4.048   9.707  27.699 -0.1192  0.1989  0.1329
49964W        W93017  27.798   7.810  25.090  0.1236  0.1248 -0.4043
49965W        W93018   6.066  30.760  20.980  0.0243 -0.1142  0.1060
49966W        W93019  12.212  17.260  18.446  0.0111  0.1588 -0.0137
49967W        W93020   6.020  31.995  14.226  0.2829  0.1146  0.2009
49968W        W93021  11.497  26.498  18.887  0.0030 -0.1921  0.0643
49969W        W93022   2.891   0.897  24.008 -0.1454 -0.1642  0.0562
49970W        W93023  20.326  27.725   1.640  0.0081 -0.0828  0.0275
49971W        W93024  28.575  20.165  20.255  0.0423 -0.2308  0.0904
49972W        W93025  15.529  33.179  25.387  0.1984  0.0398 -0.0093
49973W        W93026   6.396  17.796  25.334 -0.1384 -0.0361  0.1307
49974W        W93027  12.447  23.843   2.067  0.2690  0.0545 -0.2994
49975W        W93028  10.264   2.744  23.704 -0.1389  0.0480  0.0488
49976W        W93029  14.065  29.492  20.800  0.3287 -0.3280  0.1710
49977W        W93030   1.782  32.410  23.530  0.4092 -0.2558  0.1033
49978W        W93031  14.609  33.487  22.730 -0.1056 -0.2254  0.0334
49979W        W93032  32.400  27.913  19.294  0.2064  0.0790 -0.2733
49980W        W93033   4.402   4.128  21.290 -0.3524  0.0429 -0.3675
49981W        W93034  26.707  27.862  16.626  0.0787 -0.1523 -0.1187
49982W        W93035  17.929   6.059  19.256  0.1909  0.0912  0.3430
49983W        W93036  31.631  29.145  21.225  0.0452  0.1174 -0.0263
49984W        W93037  18.056  12.990  23.835  0.0905 -0.0250 -0.0918
49985W        W93038   7.957  29.762   2.548 -0.6751  0.0399  0.1385
49986W        W93039  13.171  28.294   0.228  0.1285 -0.1702  0.3336
49987W        W93040  12.178  21.354  19.250 -0.1456 -0.3291  0.0564
49988W        W93041  13.620  20.256  19.564  0.2500 -0.3103 -0.4184
49989W        W93042   6.478  26.535  16.168 -0.2175 -0.1310  0.1094
49990W        W93043  11.189  30.612   3.658 -0.3057 -0.0770  0.4364
49991W        W93044   2.924   3.459  17.272  0.3147  0.0394 -0.4987
49992W        W93045  15.454   9.481   0.736  0.2661 -0.2447  0.0357
49993W        W93046  15.233  15.232  25.803 -0.3585  0.0447  0.2620
49994W        W93047   5.028   8.990  20.746  0.3116 -0.4946  0.1581
49995W        W93048  27.731  31.717   3.037  0.0827  0.0840  0.0596
49996W        W93049  11.679  29.590  20.529 -0.1052  0.1674  0.0962
49997W        W93050  17.628   8.972   9.659  0.0073  0.0762 -0.1538
49998W        W93051  34.580  28.742  18.121  0.2508  0.0000  0.2999
49999W        W93052   6.680   4.387   7.212 -0.1766  0.2088 -0.1369
50000W        W93053  33.599   1.575  25.296 -0.0146  0.1381 -0.0130
50001W        W93054  31.775  30.191  29.093  0.2682  0.3599 -0.0510
50002W        W93055  13.886  10.236  15.354  0.1840 -0.0223  0.3670
50003W        W93056   5.137  18.362  28.352 -0.2699  0.0293  0.2959
50004W        W93057   4.669  29.352  15.097  0.0846 -0.1893 -0.0439
50005W        W93058   2.253  26.614  27.705 -0.1201 -0.1692 -0.3091
50006W        W93059  11.908   2.948   6.846  0.1086  0.0946 -0.0469
50007W        W93060   5.614  25.206   5.947 -0.1187 -0.2817  0.0409
50008W        W93061  26.971  16.406  22.637 -0.0900 -0.4954  0.1435
50009W        W93062  14.045  22.342  24.126  0.4065  0.1726 -0.1000
50010W        W93063  17.945  30.317   7.859  0.1960 -0.0213 -0.1242
50011W        W93064  11.518   0.370  25.784 -0.0702  0.1974  0.2370
50012W        W93065  16.610  22.591  22.506  0.0027 -0.0258  0.3304
50013W        W93066   3.803   7.376  27.300 -0.1753 -0.0892  0.2010
50014W        W93067  10.430  10.002   1.703  0.1670 -0.4032 -0.4333
50015W        W93068   1.203  10.825   1.096 -0.0671  0.2082  0.0087
50016W        W93069  12.222  25.124  23.613 -0.1295  0.2975  0.5838
50017W        W93070   7.713  28.478  26.032  0.0174  0.1255  0.1036
50018W        W93071  13.066   1.307  26.368 -0.0750  0.0695  0.3131
50019W        W93072   5.981   9.329  18.421  0.0395  0.2494  0.0028
50020W        W93073  21.387   0.653  26.036 -0.1101  0.0833  0.1881
50021W        W93074  16.085  29.096  27.089 -0.1659  0.0272  0.1149
50022W        W93075   7.871   5.503  28.087  0.2551  0.2209 -0.0221
50023W        W93076  18.407  23.556  25.109  0.1879 -0.1459 -0.1781
50024W        W93077   5.949   6.165  18.245  0.0462 -0.2542  0.0270
50025W        W93078  13.561  31.588   1.371 -0.3028  0.0919  0.3077
50026W        W93079  16.340   3.855  23.912  0.0777  0.1047 -0.3240
50027W        W93080   6.068  27.365  20.082  0.2059  0.1336  0.1184
50028W        W93081  33.382  21.611  16.033  0.3944  0.1032  0.0898
50029W        W93082  11.246  21.904   2.659  0.0158  0.1169  0.0754
50030W        W93083  24.346   3.572  25.227  0.3662 -0.3898  0.2175
50031W        W93084  30.429  29.902  27.670 -0.2458  0.3042 -0.0157
50032W        W93085  10.383  26.837   2.251  0.1347 -0.0872  0.1468
50033W        W93086   7.027  27.742  25.317  0.2273 -0.0270 -0.2522
50034W        W93087   2.945  10.194   0.889  0.1277  0.3122 -0.1651
50035W        W93088  18.495  10.533  26.927  0.1406 -0.0917 -0.0953
50036W        W93089  14.953  28.606  17.187 -0.0722 -0.1536  0.1163
50037W        W93090  29.783  30.598  26.276  0.4743  0.0275  0.0069
50038W        W93091  22.961  20.297  19.623 -0.1354 -0.6138  0.0058
50039W        W93092   6.542  15.521  16.896 -0.1024  0.2792 -0.2084
50040W        W93093   2.925   4.629  14.046 -0.0298  0.2072  0.0434
50041W        W93094  14.638   1.514  25.610  0.0566  0.0202  0.3780
50042W        W93095   3.739  14.028  17.602 -0.2780 -0.0155  0.4499
50043W        W93096   8.961  13.665   6.568 -0.2726 -0.0439 -0.1734
50044W        W93097   7.556   4.062  20.635 -0.2768  0.1546 -0.1417
50045W        W93098   3.257  26.012  26.764 -0.3067  0.0354 -0.1835
50046W        W93099   6.216  32.673  23.117 -0.2420 -0.1193  0.1263
50047W        W93100   1.193  31.816   1.385 -0.1897 -0.3504  0.1088
50048W        W93101  34.643  29.657   1.480 -0.0198  0.1815 -0.1334
50049W        W93102  10.013  28.648  15.867 -0.1064 -0.2051 -0.1296
50050W        W93103   4.629  10.212  26.878  0.1244 -0.0615 -0.0135
50051W        W93104  23.964  15.613  21.851 -0.0125  0.0443  0.2859
50052W        W93105  11.854  17.368   4.110 -0.1100 -0.1484 -0.0717
50053W        W93106  21.492  23.315  21.576  0.0578  0.0967  0.0307
50054W        W93107   3.547  31.365   5.213 -0.0298  0.2105 -0.2422
50055W        W93108   2.428  17.643  14.976 -0.1333 -0.2232  0.2148
50056W        W93109   8.278  28.692   0.510 -0.0187 -0.1419 -0.0171
50057W        W93110  19.962  22.182   2.177  0.2108  0.0930  0.2203
50058W        W93111  21.471  13.235  14.666  0.1804  0.1643  0.0145
50059W        W93112  14.955   0.642  14.866  0.3811 -0.1144  0.1072
50060W        W93113  34.398  32.444   9.130 -0.1312 -0.0260  0.0095
50061W        W93114   4.446  28.289  28.069  0.0921  0.1676  0.2220
50062W        W93115   8.907  11.299   8.647 -0.0599  0.0562 -0.3132
50063W        W93116   8.021   6.381  15.118  0.0699 -0.1547  0.0809
50064W        W93117  12.207  29.925  24.351  0.4164 -0.1416  0.2644
50065W        W93118  21.641   4.944  15.759 -0.3664 -0.2104 -0.0193
50066W        W93119  20.554  10.181  22.694  0.3424 -0.0953  0.2078
50067W        W93120  19.265  23.237  25.398 -0.2632  0.1900  0.3767
50068W        W93121  14.056  22.368   0.770 -0.0336  0.1190  0.3491
50069W        W93122  15.223  30.582  23.724  0.0194 -0.1133  0.2142
50070W        W93123  25.128  19.072  16.790 -0.1428  0.0545  0.2363
50071W        W93124   6.189  13.066  23.248 -0.2391  0.1733 -0.0834
50072W        W93125  33.148  23.724   4.159  0.0525 -0.1379  0.3987
50073W        W93126   5.076   3.666   4.675  0.2614  0.1659  0.0223
50074W        W93127   1.378  30.826  24.838 -0.1148  0.0853 -0.1215
50075W        W93128  23.777  24.322  20.981  0.0325  0.1369  0.0880
50076W        W93129  22.180  24.248   0.255  0.0749 -0.0035 -0.0432
50077W        W93130   7.769  25.189  21.456 -0.2215  0.0248  0.0360
50078W        W93131   5.909   0.417  20.925 -0.0378 -0.3311 -0.4050
50079W        W93132  17.091   0.516  22.782 -0.2495  0.0871  0.2453
50080W        W93133   3.702   9.325  14.452 -0.2010 -0.0716 -0.2676
50081W        W93134   0.017   1.813  14.759 -0.0003 -0.2917 -0.2107
50082W        W93135  11.011  24.725  26.807 -0.0809 -0.2768 -0.2885
50083W        W93136  12.723   5.612  21.618  0.2124  0.0605 -0.0488
50084W        W93137   1.781  27.780  24.061 -0.1428 -0.3222 -0.1643
50085W        W93138   2.577  14.911  27.788 -0.1532 -0.2599  0.1465
50086W        W93139  10.882  31.061  24.250 -0.0330  0.2082 -0.2454
50087W        W93140   0.182  33.687  21.397  0.1420  0.0636 -0.0099
50088W        W93141  33.177   6.460  15.592 -0.0076 -0.2774  0.3550
50089W        W93142  31.680  25.111  28.610  0.1142 -0.2079 -0.4877
50090W        W93143  32.745  24.925   0.260  0.1888 -0.2044 -0.0183
50091W        W93144  13.436  24.706  18.744 -0.0083  0.1193 -0.1858
50092W        W93145  18.897  25.674  20.151  0.2195  0.5030 -0.2069
50093W        W93146  10.659  28.782  29.155  0.1576 -0.1588 -0.0057
50094W        W93147  26.971  17.778   8.177  0.5214 -0.0272  0.1614
50095W        W93148  19.350   1.776  26.710 -0.1666  0.1148 -0.1294
50096W        W93149  22.782  32.911  19.163 -0.0705 -0.2600 -0.0184
50097W        W93150   3.985  10.321  21.263  0.5007  0.1063 -0.0297
50098W        W93151  14.008  15.966   4.939  0.1351  0.1114  0.2719
50099W        W93152   5.500   2.215  18.204  0.0633  0.2288  0.2215
50100W        W93153  32.791  16.227   4.691 -0.1281  0.2635 -0.1132
50101W        W93154   0.479  30.416  22.950  0.0773 -0.0222  0.0883
50102W        W93155   7.501  11.856   1.090 -0.0744 -0.1113 -0.3071
50103W        W93156  10.453  22.255  21.140 -0.0749  0.0049  0.1365
50104W        W93157   9.193  15.906  27.394  0.4470 -0.1226  0.1622
50105W        W93158   4.552  28.528   4.127  0.1313  0.2123 -0.3619
50106W        W93159   6.187  14.402  17.819 -0.3059 -0.0957  0.3205
50107W        W93160  25.526  25.590   7.122  0.2292  0.0059 -0.1373
50108W        W93161  11.165   6.445  19.095  0.2974 -0.0790 -0.3124
50109W        W93162  19.311  26.377  27.376  0.1968 -0.2194  0.1343
50110W        W93163  16.098   5.152   3.583  0.4074 -0.0014  0.2019
50111W        W93164   4.475   9.491   0.578  0.2059 -0.0035 -0.0553
50112W        W93165  33.363  26.094  23.994  0.1945 -0.2110  0.0245
50113W        W93166   5.621  28.173  25.992 -0.1067 -0.3045 -0.1415
50114W        W93167  22.961  25.764  20.910  0.0545  0.1938  0.3345
50115W        W93168   5.391   9.436  25.064 -0.2342  0.2390 -0.0487
50116W        W93169   0.965  20.393  18.243  0.0192 -0.1291  0.3271
50117W        W93170   3.609  20.200  18.273  0.0181 -0.0114  0.0371
50118W        W93171  15.503   5.396   9.262  0.0771  0.1883 -0.1515
50119W        W93172   0.754  22.673  21.362 -0.1033 -0.2279 -0.0642
50120W        W93173   7.137  30.376   5.159 -0.3203  0.1438  0.1527
50121W        W93174  10.822  22.553  20.318  0.0693  0.1809 -0.2297
50122W        W93175  34.444  12.757  26.336 -0.1709 -0.0339 -0.0204
50123W        W93176  13.924  28.518  14.189  0.1984 -0.1792 -0.0422
50124W        W93177   2.940   5.194   0.519  0.6070  0.4103 -0.2276
50125W        W93178  11.446  26.798  26.298 -0.0477  0.1400 -0.0284
50126W        W93179  16.172  10.909   2.511 -0.1573  0.1578 -0.0870
50127W        W93180  26.436  25.800   4.799 -0.1383  0.0024 -0.3245
50128W        W93181  17.189  30.302   9.134  0.0934  0.2925 -0.1593
50129W        W93182   6.911  18.672  13.767  0.1248  0.2135 -0.2885
50130W        W93183   1.801   6.718  24.755  0.0303  0.0900  0.2410
50131W        W93184  23.158  21.558  19.525 -0.2888  0.0584 -0.2285
50132W        W93185   9.152  27.505  20.859 -0.2684  0.0023  0.0270
50133W        W93186   2.831   3.645  25.702 -0.0917  0.1234  0.2421
50134W        W93187   2.736  22.936  16.390 -0.5235  0.2100 -0.1825
50135W        W93188  13.451  29.422  27.260  0.0608 -0.3833  0.1897
50136W        W93189  27.601   6.112  24.629  0.1124 -0.0084 -0.0363
50137W        W93190  12.630  26.924   7.339 -0.0599  0.0241  0.1622
50138W        W93191  18.127  27.834  24.835  0.0878 -0.2643 -0.2694
50139W        W93192   9.163   7.246   1.532 -0.0614 -0.0697  0.2726
50140W        W93193   6.843  22.154  13.525 -0.1034 -0.1886  0.0577
50141W        W93194  17.147  18.727  13.141  0.1988  0.0003 -0.1595
50142W        W93195  10.631  33.949  20.927  0.1959 -0.0526 -0.0023
50143W        W93196  11.635  30.072   2.459 -0.1112 -0.1648 -0.2816
50144W        W93197  28.472  30.767  16.206 -0.0844 -0.2092 -0.0172
50145W        W93198  33.595  31.311  23.502  0.0416  0.3517  0.0468
50146W        W93199  29.149  20.058   6.686  0.2672 -0.2273 -0.2296
50147W        W93200  24.557  29.364  14.145 -0.2385 -0.0135 -0.1449
50148W        W93201  13.045  19.864  15.252 -0.2068  0.1245  0.4757
50149W        W93202   3.770  25.530  22.521 -0.3812 -0.0082 -0.1048
50150W        W93203   1.707  33.087  18.040 -0.0151 -0.0669 -0.1449
50151W        W93204   0.750  33.847   0.366 -0.0282  0.0639  0.0568
50152W        W93205   1.001   4.855  16.138 -0.0301  0.0060  0.1888
50153W        W93206  12.706  25.514  20.578  0.0059 -0.0355 -0.0773
50154W        W93207  13.380   2.403  14.680 -0.0176 -0.0542  0.0639
50155W        W93208  21.410  19.404  17.892 -0.0294 -0.2462  0.0128
50156W        W93209   1.690   1.478   3.963 -0.0367 -0.1351 -0.1110
50157W        W93210   6.827   6.482  16.850 -0.2086  0.1564  0.0023
50158W        W93211  11.347  10.693  17.751  0.2202  0.0266  0.1462
50159W        W93212  23.263   5.623  28.932  0.3750  0.2286 -0.1790
50160W        W93213  13.507  25.052  21.671 -0.0012  0.0317 -0.1711
50161W        W93214   9.926  32.205  28.111  0.1521 -0.0217  0.0374
50162W        W93215  23.762  29.452   2.429  0.4834 -0.0677 -0.0835
50163W        W93216   7.459   6.872  27.194 -0.1148  0.0132 -0.2820
50164W        W93217   8.664  32.830  18.700 -0.1122 -0.0288  0.0561
50165W        W93218   3.800  22.247   7.825  0.1056  0.1456 -0.0309
50166W        W93219  21.461  30.451  22.402  0.1320 -0.0872  0.3314
50167W        W93220   8.406   3.473  16.766  0.0204 -0.1913 -0.1590
50168W        W93221  10.036  20.706  20.526 -0.0133  0.2010 -0.0512
50169W        W93222   9.881  34.490  16.320 -0.4916  0.2170 -0.1756
50170W        W93223  16.642  29.684  23.046 -0.2941  0.0762  0.1876
50171W        W93224   9.652  17.744  25.018  0.3899  0.4177 -0.1484
50172W        W93225  32.230  30.099  13.867  0.3876 -0.5373 -0.2380
50173W        W93226   2.421  25.267  26.946 -0.3876 -0.2837 -0.0075
50174W        W93227   3.983   2.842   9.591  0.0306 -0.0474  0.1221
50175W        W93228  18.886  18.211   3.671  0.0543 -0.0839 -0.0008
50176W        W93229  15.213   1.162  18.138 -0.0731  0.1611 -0.1361
50177W        W93230  26.327   2.424   0.614  0.0466  0.0884  0.0850
50178W        W93231  10.583  26.459  20.402  0.1516  0.1040  0.0068
50179W        W93232  30.644   0.602  24.710  0.0680 -0.1650 -0.1404
50180W        W93233  27.786  23.938   8.359  0.1613  0.0256  0.0529
50181W        W93234  25.276  11.949  25.277  0.1305 -0.1122  0.0591
50182W        W93235  13.765  21.899  28.528 -0.3661 -0.1528 -0.0280
50183W        W93236   2.075   4.368   8.814  0.0367  0.3170  0.1357
50184W        W93237   2.686  16.464  26.249 -0.1080 -0.0065  0.2652
50185W        W93238  10.181  20.754  18.343  0.1298  0.1056  0.0169
50186W        W93239  12.037  21.314  25.178 -0.1246 -0.1073 -0.0812
50187W        W93240   0.045   1.185  28.243  0.1754  0.2153  0.0451
50188W        W93241  10.197   0.677  21.307  0.1012 -0.4545  0.1808
50189W        W93242  33.378  29.008  14.327 -0.2619 -0.3136  0.1839
50190W        W93243   7.236  30.465  26.363 -0.1433  0.0055 -0.0914
50191W        W93244  30.092   3.972  22.758  0.2104  0.2692 -0.0770
50192W        W93245  10.241  28.193  28.076 -0.1686 -0.0604 -0.2695
50193W        W93246  32.578  17.392  15.548 -0.0269 -0.0069  0.1843
50194W        W93247  10.853   3.458  26.165 -0.2962  0.1955  0.1448
50195W        W93248   3.746   3.319  13.489  0.0103 -0.0993 -0.0810
50196W        W93249  25.093  30.645  15.268 -0.1830 -0.2232  0.0161
50197W        W93250  33.459  32.329  26.922  0.0109 -0.0826  0.0392
50198W        W93251   6.866  31.650   0.709 -0.2089  0.0163 -0.1318
50199W        W93252   4.045   5.183  21.486 -0.0823  0.2700  0.1131
50200W        W93253  13.298  33.656  28.622  0.0674  0.1141  0.1491
50201W        W93254   5.809  28.663  21.048 -0.1504 -0.0125 -0.3242
50202W        W93255   9.063  22.750   4.242  0.0072 -0.1994 -0.1129
50203W        W93256   9.371   8.044  28.822 -0.1258 -0.0470 -0.2244
50204W        W93257  21.325   3.918   0.702 -0.2323 -0.0595  0.1597
50205W        W93258  28.730   0.994   3.947  0.0369 -0.0664 -0.0900
50206W        W93259   6.261  21.076   0.724 -0.1994 -0.0754  0.2600
50207W        W93260   0.665   1.872  16.554 -0.0199 -0.3233 -0.1225
50208W        W93261   5.116  34.108  19.982 -0.2528 -0.1209  0.1238
50209W        W93262  21.854  23.523  19.916 -0.3387  0.0080  0.1839
50210W        W93263   2.733  30.058   4.129  0.1819  0.0764  0.0922
50211W        W93264  17.864  26.106  15.668 -0.0609 -0.1358 -0.0575
50212W        W93265   2.887   9.951  14.113 -0.0225  0.1450  0.1074
50213W        W93266  16.918   6.039  28.039  0.0991 -0.2188  0.0010
50214W        W93267  12.906  17.264   5.176  0.2139  0.1609  0.0055
50215W        W93268  13.140  26.935  19.059  0.0551 -0.0852 -0.1641
50216W        W93269   8.508   0.001   0.974  0.0814  0.2090 -0.0322
50217W        W93270  32.548  33.175  17.144  0.0657  0.0203  0.1828
50218W        W93271  14.734  20.624  14.170  0.2364  0.0656 -0.0624
50219W        W93272   2.378   2.130  21.769 -0.2094  0.3530  0.1446
50220W        W93273  28.833   6.736  25.058 -0.0621  0.0721 -0.2355
50221W        W93274  22.300   0.243  16.042 -0.0878  0.0667 -0.3627
50222W        W93275  18.857  21.248  26.205 -0.5869  0.3334 -0.0804
50223W        W93276   1.506  26.313  24.393 -0.1283  0.3541 -0.0410
50224W        W93277   5.442   7.571  16.349  0.2219 -0.3698  0.1165
50225W        W93278  10.938   7.326   8.136  0.1716 -0.1058  0.0065
50226W        W93279  16.902   6.732   3.215 -0.2095  0.0166  0.2359
50227W        W93280  19.646  13.493   1.666  0.0665  0.0385 -0.1582
50228W        W93281   8.498  10.774   6.889  0.1759 -0.1925 -0.1062
50229W        W93282   5.485  31.657  15.769  0.1632 -0.0312  0.0756
50230W        W93283  27.731  19.174  14.921 -0.1572  0.0355  0.2268
50231W        W93284  15.292   2.749  19.850 -0.1639 -0.4132 -0.0579
50232W        W93285  24.601   1.852  13.728 -0.0959 -0.0175  0.2025
50233W        W93286  10.461  31.268  22.463 -0.0955  0.1390 -0.1713
50234W        W93287  10.021   0.417  14.668 -0.2569 -0.0842 -0.2345
50235W        W93288  19.330  10.419  24.656 -0.0490  0.2256 -0.2592
50236W        W93289  11.810  26.100  15.606 -0.0904 -0.2672  0.0631
50237W        W93290   1.815   6.555  19.549 -0.1220 -0.1356 -0.3340
50238W        W93291  11.650  26.014   0.616 -0.2978  0.0888  0.0115
50239W        W93292  10.715  21.874   9.570 -0.1528  0.0454  0.3729
50240W        W93293   4.088  16.697  20.188  0.1288  0.1871  0.0305
50241W        W93294   8.844  22.160  23.687 -0.0178 -0.3832  0.2575
50242W        W93295   4.545   0.690  14.790 -0.0389 -0.1296 -0.1206
50243W        W93296  16.432  14.788  14.089  0.1058 -0.1936 -0.1233
50244W        W93297  21.603   9.343   7.805  0.1192 -0.0110  0.1361
50245W        W93298  24.506  20.439  14.135 -0.0384  0.3236 -0.2714
50246W        W93299  15.219   8.120  18.715 -0.0025  0.2648  0.0072
50247W        W93300  16.394  25.955  29.200  0.3795 -0.1469 -0.1193
50248W        W93301  11.238   7.163  28.610  0.0036 -0.1611 -0.3036
50249W        W93302   8.990  14.624   0.882 -0.0457 -0.0300 -0.2561
50250W        W93303  13.820  33.203   9.441  0.0458 -0.0627  0.1247
50251W        W93304  17.099  31.940  21.824 -0.0624  0.1258  0.2350
50252W        W93305   7.246   2.238   4.325 -0.2188  0.2216 -0.0014
50253W        W93306  26.438  22.279  16.838  0.2729 -0.0607  0.0886
50254W        W93307  21.684  33.455  13.840 -0.0522  0.1696 -0.0456
50255W        W93308   6.425  21.306  18.679 -0.0086  0.0002  0.2015
50256W        W93309  29.586  10.353  24.298  0.1495 -0.1116 -0.0212
50257W        W93310   9.853  17.433  16.413 -0.0495  0.1793  0.0107
50258W        W93311   6.044  25.498  18.998 -0.1265  0.0711  0.1689
50259W        W93312  34.431   7.966  16.982  0.2399 -0.0573  0.0334
50260W        W93313  31.319   0.271  20.689  0.1009  0.0267 -0.1599
50261W        W93314   5.652  34.370  17.895 -0.2030 -0.2200 -0.0536
50262W        W93315   8.257  29.255  27.219  0.1404 -0.1931 -0.0026
50263W        W93316  21.740  27.145  15.858 -0.4140 -0.1816 -0.1534
50264W        W93317  28.943  16.746  26.042 -0.2602  0.2584  0.0100
50265W        W93318  33.184  12.033  20.053  0.1484 -0.2891 -0.1275
50266W        W93319  20.099  10.165  22.369  0.0643  0.2988  0.4899
50267W        W93320  29.545  20.849  26.715 -0.4449  0.0399 -0.0988
50268W        W93321  33.269   7.328  17.760 -0.1930  0.0021 -0.1878
50269W        W93322   4.186  27.448  21.162 -0.3418 -0.1025 -0.1044
50270W        W93323   5.153  27.487  22.275  0.1392 -0.1840 -0.3424
50271W        W93324  26.013  14.776   3.789 -0.1466 -0.0407 -0.1140
50272W        W93325   5.315  19.666  24.992  0.3944 -0.1132 -0.0940
50273W        W93326  22.644  31.386  17.758  0.0491 -0.0937 -0.1922
50274W        W93327  14.153  27.568  14.299  0.2015 -0.1801  0.0704
50275W        W93328  12.404  23.716  24.042  0.0057  0.1223  0.1496
50276W        W93329   9.419  13.608  20.722 -0.0968  0.0827 -0.2609
50277W        W93330   6.688   0.177  23.571 -0.0372  0.0302  0.0593
50278W        W93331  18.890  34.168   5.137 -0.2121 -0.0850  0.1617
50279W        W93332  17.438   5.626   6.952  0.1441  0.0718 -0.2629
50280W        W93333  27.662  26.441  22.374  0.3722 -0.1809  0.0053
50281W        W93334   0.295  22.057  14.777  0.2217 -0.2764  0.1997
50282W        W93335   3.847  26.591  24.825  0.4564  0.0877 -0.0538
50283W        W93336  15.914  33.429  27.079  0.1942 -0.2046  0.0922
50284W        W93337  13.529  27.001  27.324 -0.1251 -0.2489  0.0363
50285W        W93338   7.915   6.419  20.919  0.1917 -0.1222 -0.1520
50286W        W93339  15.649   2.903  17.710  0.2489  0.1758  0.3395
50287W        W93340   8.669  34.398   3.977  0.1035 -0.0964 -0.0249
50288W        W93341  16.213  15.807  24.359  0.0698  0.2051 -0.2784
50289W        W93342   7.936  20.324  24.207  0.3755 -0.2718  0.0819
50290W        W93343   8.850  17.361  27.098 -0.1359 -0.1770  0.2812
50291W        W93344  32.176  33.342  24.474  0.0403  0.1083  0.2146
50292W        W93345  17.165  27.263  22.173  0.0634 -0.1624  0.0998
50293W        W93346  10.257  22.353  23.926 -0.1734  0.2070 -0.1978
50294W        W93347  18.513  32.843  20.377 -0.0975  0.0214 -0.1004
50295W        W93348  13.020  13.754   7.748  0.2333  0.0327 -0.0795
50296W        W93349  12.084  27.776  14.688 -0.1971 -0.0421  0.0870
50297W        W93350   0.774  17.834   5.766 -0.1619 -0.0354  0.1759
50298W        W93351   8.529   3.082  14.085 -0.1511  0.0633 -0.0536
50299W        W93352  12.950  23.835   1.274 -0.0225 -0.1401  0.1105
50300W        W93353  13.272   5.298  26.001  0.0460  0.1514  0.1966
50301W        W93354  15.590  13.235  16.296  0.1105  0.2912  0.1216
50302W        W93355  20.407  24.691  16.205 -0.0668 -0.0843  0.0414
50303W        W93356  25.020  21.847  15.626 -0.0529 -0.3270  0.1386
50304W        W93357  25.264   3.642  20.609 -0.0017 -0.0577 -0.4364
50305W        W93358  24.021  19.767  26.238 -0.3257  0.0911  0.1589
50306W        W93359  27.941   2.715  22.649  0.2841  0.0820 -0.0107
50307W        W93360  24.601  34.198  24.519  0.2249 -0.0433 -0.0830
50308W        W93361  33.287  26.017  22.032 -0.0959  0.1502  0.0971
50309W        W93362  15.206  24.391  20.481  0.2259 -0.1323  0.0792
50310W        W93363   3.740   0.201  15.383  0.0067  0.0444 -0.3552
50311W        W93364   8.495  32.145  28.354 -0.1092  0.4029 -0.2513
50312W        W93365  31.395  28.771   8.323 -0.0808  0.3794  0.2183
50313W        W93366  24.336  20.809   0.111  0.0947  0.2260  0.0253
50314W        W93367  33.836  28.266  17.830 -0.2892 -0.2365  0.0126
50315W        W93368  29.636  34.644  17.806 -0.1198  0.2715 -0.2295
50316W        W93369  25.509   0.088  17.798 -0.2415  0.1114  0.0619
50317W        W93370  10.672  22.328  16.921 -0.1518 -0.1170 -0.1308
50318W        W93371   8.405  33.481  25.676 -0.1783  0.2413 -0.4667
50319W        W93372  13.356  21.075  18.964 -0.2420  0.0671 -0.1158
50320W        W93373   4.531  26.522  20.049  0.0546  0.3742  0.0440
50321W        W93374  17.506  32.669  29.187 -0.0232  0.0579  0.5180
50322W        W93375   4.449  12.836  27.811 -0.0607 -0.0726 -0.0558
50323W        W93376   8.120  26.968   9.127  0.2214 -0.0263  0.2361
50324W        W93377  13.999  22.701  25.162 -0.0965  0.2619 -0.2022
50325W        W93378  20.738   7.576  15.785  0.1453 -0.1226  0.2331
50326W        W93379   4.200  12.584  26.263 -0.0621  0.0490  0.2162
50327W        W93380  11.781  32.236   8.012 -0.4671 -0.1267 -0.2073
50328W        W93381  23.366  33.136  10.177  0.4311  0.1914 -0.0820
50329W        W93382  33.403  14.267   5.980  0.1750  0.0623 -0.0298
50330W        W93383   1.351  20.502  24.352 -0.0776 -0.0782  0.1097
50331W        W93384   6.269   6.808  25.722  0.3148 -0.3226  0.0918
50332W        W93385   0.879  33.491   8.616  0.1312 -0.1933  0.2478
50333W        W93386  30.099  24.150   5.251  0.1935 -0.3602 -0.0264
50334W        W93387   7.394  23.697  24.747 -0.0352  0.2410 -0.0984
50335W        W93388   4.639  10.015   1.032 -0.0521 -0.1353  0.0374
50336W        W93389  10.560  14.125  26.693  0.0572 -0.0957 -0.2192
50337W        W93390  10.804  21.584   4.367  0.2727 -0.0534  0.0039
50338W        W93391   5.880  34.508  10.050 -0.1318 -0.1381 -0.0500
50339W        W93392  12.229  13.264   3.512  0.2174 -0.4587  0.1240
50340W        W93393  12.477  30.389  18.321 -0.0284  0.1639 -0.0285
50341W        W93394  31.918  24.400   4.906  0.0535 -0.3356  0.2554
50342W        W93395   9.794  30.457   4.331  0.0310  0.0817 -0.1052
50343W        W93396   4.540   3.055  19.741 -0.0990  0.2127 -0.0777
50344W        W93397  34.146  15.052  26.721  0.1247  0.4297 -0.4207
50345W        W93398  23.695  28.033  20.712  0.0319 -0.2012  0.0481
50346W        W93399   7.006  15.181  26.802 -0.0358  0.0271  0.0301
50347W        W93400  22.817   8.168  19.214 -0.1301 -0.3484  0.0044
50348W        W93401  12.123  13.069   4.496 -0.0019  0.0015 -0.4289
50349W        W93402  31.949  23.161  19.297 -0.1466 -0.0656 -0.0111
50350W        W93403  27.355   0.702  23.261  0.0172  0.0674  0.1237
50351W        W93404  24.942  27.668   5.726 -0.1021 -0.1744 -0.0829
50352W        W93405  25.321   7.705  14.356  0.0308  0.0090 -0.1508
50353W        W93406  10.722  32.402   4.272 -0.1991  0.1136 -0.3283
50354W        W93407   8.251  29.384  20.789  0.3532  0.2971  0.1892
50355W        W93408   3.440  11.810  23.790  0.0441  0.4933 -0.1396
50356W        W93409   7.390   3.649  20.022 -0.1148 -0.3990  0.0800
50357W        W93410  14.215  15.080  25.897  0.0138 -0.2211 -0.0867
50358W        W93411  13.318  16.890  28.366 -0.1216  0.0584  0.1848
50359W        W93412  15.364  26.622   3.390  0.3758 -0.4056 -0.0365
50360W        W93413  30.619   1.039  24.299  0.0540  0.2218  0.0889
50361W        W93414  11.998  29.760  27.689 -0.0265 -0.0135 -0.0193
50362W        W93415  12.940   4.969  27.235  0.0870 -0.0822  0.0708
50363W        W93416   1.437   8.922   7.753  0.2423 -0.0307  0.0357
50364W        W93417   4.616   4.497  21.677 -0.0351 -0.2977  0.2067
50365W        W93418   8.436  22.253   5.975  0.1218 -0.0618 -0.3628
50366W        W93419  17.933   8.001   8.605 -0.0129 -0.0917 -0.1600
50367W        W93420  33.751  15.876  23.987  0.2416  0.2270 -0.3146
50368W        W93421  26.063  26.637  16.729  0.1259  0.0531 -0.1401
50369W        W93422  21.152   2.113  28.429 -0.2216 -0.4623 -0.2957
50370W        W93423  27.810   0.110  26.780 -0.0662  0.1023  0.4495
50371W        W93424  12.121  25.852  27.615 -0.1082  0.1212  0.1726
50372W        W93425   1.745  16.308   9.399  0.0860 -0.0086 -0.1529
50373W        W93426  10.688   0.196  15.822 -0.3663  0.2145 -0.2236
50374W        W93427  28.556   5.880   0.053  0.0037  0.0920  0.1805
50375W        W93428  24.057   1.436   1.169  0.1724 -0.2773 -0.2939
50376W        W93429  25.945   3.423  15.901 -0.0409  0.2383  0.1414
50377W        W93430  30.200   0.136   9.237  0.0027  0.1971  0.1524
50378W        W93431  10.018  30.791  23.815  0.3877 -0.0550  0.3758
50379W        W93432  18.903  23.729  19.136 -0.0956 -0.1781  0.0325
50380W        W93433   1.670  34.060  19.573 -0.0974 -0.0956 -0.0857
50381W        W93434   3.747  31.594   1.776 -0.0627  0.0255  0.2643
50382W        W93435   0.230   5.815  26.227  0.1025 -0.1442 -0.3032
50383W        W93436   5.087  30.523  18.621 -0.2292 -0.1427  0.1892
50384W        W93437   1.186  31.726   2.888 -0.1015 -0.0663 -0.2097
50385W        W93438  14.590  24.171  10.087 -0.2069 -0.0019  0.0008
50386W        W93439  21.104   8.392  25.654 -0.1364 -0.0606 -0.1470
50387W        W93440   3.465   2.987  25.598  0.1777 -0.2249 -0.1007
50388W        W93441  16.985  33.537  18.298  0.2952  0.1520  0.1783
50389W        W93442  10.802   2.048  28.193  0.0896 -0.4886  0.0194
50390W        W93443  30.307  16.385  21.522  0.0302  0.0498  0.1427
50391W        W93444  10.695   5.823  18.575  0.1423 -0.0273  0.1068
50392W        W93445   2.837  21.553  26.646  0.0647  0.1374 -0.4616
50393W        W93446  28.113  31.765   0.839  0.2331 -0.0876  0.1283
50394W        W93447  26.403   3.135   0.265  0.1318  0.1279  0.1490
50395W        W93448  32.344  30.784   2.634 -0.0541 -0.1372  0.0904
50396W        W93449  34.285   4.707  22.846 -0.3047  0.1903  0.0756
50397W        W93450   7.472   8.650  22.781  0.0444 -0.1605 -0.3450
50398W        W93451  25.854   3.769  23.171 -0.1209  0.1045 -0.2866
50399W        W93452  14.195  34.530  23.897 -0.0260  0.0716  0.0243
50400W        W93453   3.440  34.413   8.184  0.0408 -0.2010 -0.3334
50401W        W93454  17.134  20.124   0.144  0.0740 -0.1349 -0.2026
50402W        W93455  23.139   6.837  18.936  0.1545 -0.1226  0.1472
50403W        W93456   5.055   2.973   9.247 -0.0562  0.0805  0.0919
50404W        W93457  30.360  30.069   0.019  0.3190  0.0915 -0.0233
50405W        W93458   2.194   2.276  25.172  0.2006  0.1348 -0.1261
50406W        W93459   6.621  18.328  20.210  0.3321 -0.2915  0.0716
50407W        W93460   1.852  29.723  18.824 -0.3532  0.0837 -0.1154
50408W        W93461   3.996  16.011  26.637  0.4160 -0.0900  0.0621
50409W        W93462  10.711   8.369   1.433  0.2702 -0.1155  0.4480
50410W        W93463   3.407  30.503   3.357  0.0283 -0.1774 -0.1170
50411W        W93464  11.387   4.946   5.469  0.0203 -0.3055 -0.1837
50412W        W93465   7.455  34.299   3.320  0.0657  0.1180 -0.0156
50413W        W93466  16.639   2.397   5.535 -0.0282  0.3869  0.0605
50414W        W93467  31.892  22.240  24.810  0.2736 -0.0258  0.1142
50415W        W93468  17.849   4.673  28.310 -0.0348  0.0166  0.0245
50416W        W93469  27.442  33.129   5.575 -0.1112  0.2331 -0.1051
50417W        W93470   0.858   2.997   9.109 -0.1091  0.2757 -0.0778
50418W        W93471  17.551  17.984  26.118 -0.3432  0.1188 -0.1460
50419W        W93472  12.319  26.077   1.473 -0.1421  0.0633  0.2309
50420W        W93473  16.687  20.436  23.579  0.1231  0.3644 -0.0671
50421W        W93474   4.175  15.647  16.947 -0.0605 -0.0221 -0.2300
50422W        W93475   3.140  21.367   6.809 -0.0819 -0.0740  0.0173
50423W        W93476   0.989  19.289   8.865  0.2019  0.1549  0.1742
50424W        W93477   6.890  11.897  28.377  0.2338 -0.1425  0.0928
50425W        W93478   5.035   8.104  28.127  0.1428 -0.0502 -0.1646
50426W        W93479  19.555  32.184   0.464 -0.0815 -0.2267  0.2986
50427W        W93480  34.053  28.841  28.829 -0.0675  0.1599 -0.0948
50428W        W93481  21.462   3.609  16.005  0.0106  0.0654  0.3050
50429W        W93482   2.304  11.180   7.591  0.2014  0.1538 -0.3155
50430W        W93483   7.047  34.604   0.981  0.1622  0.0834 -0.2333
50431W        W93484  12.693  12.727  26.227 -0.0174 -0.2130  0.0566
50432W        W93485   5.690  31.938  24.077 -0.0652 -0.3754  0.2460
50433W        W93486  33.719  29.713  24.490  0.4318  0.2230 -0.0461
50434W        W93487   5.180  19.850   2.729  0.1808  0.3070  0.2071
50435W        W93488  10.799  25.152   6.526  0.2474 -0.0935  0.0391
50436W        W93489  12.911  32.799   0.590  0.0684 -0.2630 -0.3043
50437W        W93490   2.885  34.639   7.924  0.1335  0.4345 -0.3202
50438W        W93491   9.569  12.216  10.404  0.0062 -0.0111  0.0308
50439W        W93492   3.816  32.066   1.857 -0.1348 -0.1440  0.1150
50440W        W93493  16.517  28.530   1.327 -0.0938  0.0129 -0.0977
50441W        W93494  29.383   6.207  15.072 -0.2883  0.0342 -0.1268
50442W        W93495  13.289  13.392   3.021  0.0148 -0.1431 -0.0651
50443W        W93496  18.257  28.729  17.112 -0.2480  0.3544 -0.0190
50444W        W93497   7.392  23.214  17.790 -0.2169 -0.0312 -0.0712
50445W        W93498  18.150  23.490   7.156 -0.0102  0.0378 -0.1364
50446W        W93499  24.839  32.172  28.513 -0.0184  0.0065  0.2008
50447W        W93500   9.832   6.984  23.956 -0.1242 -0.2918 -0.1003
50448W        W93501   5.848  21.764   4.488  0.1947 -0.0801 -0.2391
50449W        W93502  12.355  18.130   6.037 -0.4124 -0.1402  0.1327
50450W        W93503   4.925  31.625  24.186  0.1349 -0.0018  0.0365
50451W        W93504  10.744  20.751  15.522 -0.2557 -0.0788 -0.0162
50452W        W93505  22.410  30.260   0.684 -0.0930 -0.0881  0.0049
50453W        W93506  13.162  30.315  25.010 -0.1855  0.0381 -0.0209
50454W        W93507   4.515  28.362  25.544  0.0947 -0.0647 -0.0381
50455W        W93508  19.471  28.484  19.469 -0.1072 -0.1237 -0.0875
50456W        W93509  25.061  32.503  21.977 -0.1674 -0.1184  0.0188
50457W        W93510  20.514  32.361  26.805 -0.0561  0.0623  0.0794
50458W        W93511  14.588   3.331  16.393  0.0644  0.1093  0.0711
50459W        W93512   1.094  20.993   0.081 -0.0574  0.1383  0.0715
50460W        W93513   4.149  30.332  25.615  0.0258  0.0062 -0.0700
50461W        W93514  20.340  21.973   7.960 -0.2034 -0.1960  0.2861
50462W        W93515  31.366  33.459  14.563 -0.2323  0.0469 -0.0695
50463W        W93516   5.814   2.644   4.008  0.1026 -0.1359 -0.0414
50464W        W93517   9.327  19.954  18.008  0.0637  0.1118 -0.0188
50465W        W93518   1.832  31.680   4.498 -0.3876 -0.1222  0.1962
50466W        W93519   8.738   3.304   8.520  0.0733 -0.0346 -0.3800
50467W        W93520   1.439  26.575   4.391  0.1515 -0.0936  0.1418
50468W        W93521  14.264   8.759   1.505 -0.0935 -0.1494  0.0767
50469W        W93522  10.864  17.912   4.554 -0.2694 -0.0190 -0.3146
50470W        W93523   6.115   9.780  21.115  0.2527  0.1221  0.1606
50471W        W93524   5.618  31.446  14.325 -0.0077  0.5106  0.1210
50472W        W93525  18.841   5.484  20.211  0.0497  0.0744 -0.1203
50473W        W93526   9.275  18.348  23.317  0.2017 -0.1012 -0.0530
50474W        W93527   5.088  12.428   6.309 -0.0314 -0.2569  0.2850
50475W        W93528  33.950  33.707   0.638 -0.0353 -0.0038 -0.0929
50476W        W93529  30.660   5.524   2.932 -0.0635  0.0743 -0.1522
50477W        W93530  14.671  20.632  16.973 -0.0872 -0.2355 -0.2834
50478W        W93531  13.318  19.658  23.939 -0.0661  0.0483  0.0150
50479W        W93532   4.391  19.922  28.634  0.2042 -0.1825 -0.3926
50480W        W93533  18.650   0.995  21.369  0.0791 -0.1336 -0.0935
50481W        W93534   3.969  33.533  21.543 -0.0224 -0.3534 -0.0900
50482W        W93535   8.600  28.396  22.232  0.2184 -0.0628  0.1273
50483W        W93536   2.141  18.748  22.879 -0.2418 -0.4029 -0.2750
50484W        W93537   7.990  32.140   3.993  0.3212  0.0971  0.1694
50485W        W93538  12.470  31.693   1.836 -0.1915 -0.2758  0.4023
50486W        W93539   9.685  16.306  21.239  0.1469 -0.1938  0.0434
50487W        W93540  15.570  30.987  22.954 -0.1707 -0.1757 -0.1786
50488W        W93541  27.428  26.721  22.816  0.1695  0.2933  0.0083
50489W        W93542   0.963  27.311   1.462 -0.0224  0.0244  0.0823
50490W        W93543  14.166  29.978  28.162  0.0970 -0.1997 -0.0996
50491W        W93544  31.020  15.304  27.541 -0.6303 -0.3027 -0.1039
50492W        W93545  24.899   4.193  17.141  0.2852  0.0692 -0.0407
50493W        W93546   0.628   9.637   8.055  0.0249 -0.0677  0.5127
50494W        W93547  23.943  33.506  22.522  0.0485  0.2697 -0.1545
50495W        W93548  33.539  18.825   4.431 -0.1477 -0.1340  0.1655
50496W        W93549  19.205  27.960  22.581  0.0227  0.3287 -0.0772
50497W        W93550   5.028  26.724  23.339 -0.0198 -0.4717 -0.0716
50498W        W93551   5.272  33.748   1.203 -0.0028 -0.1729  0.0873
50499W        W93552   3.435  11.143   3.811 -0.2246  0.1491  0.0699
50500W        W93553  12.183  27.374  25.298 -0.3315  0.1512 -0.0409
50501W        W93554   0.941  18.762   4.289  0.0256  0.0650  0.0282
50502W        W93555  15.051   2.270  21.540 -0.0710  0.0737  0.1295
50503W        W93556   8.045   6.454  17.479  0.2604 -0.2328  0.2125
50504W        W93557  20.192   5.873   0.443  0.1380  0.2008  0.1507
50505W        W93558  17.811  23.744   2.419  0.4453 -0.0108 -0.1233
50506W        W93559   5.437   7.908  19.472  0.0268 -0.0634  0.2448
50507W        W93560  10.840  12.662   8.864 -0.0673  0.0725  0.2506
50508W        W93561   9.877  30.445  25.673 -0.2185 -0.0470 -0.0960
50509W        W93562  23.337   1.401   3.475 -0.1822  0.0940 -0.4840
50510W        W93563   5.798  34.238  22.649 -0.3428  0.0175  0.1516
50511W        W93564   6.403  32.128   5.802  0.3272  0.2189 -0.0854
50512W        W93565  13.907  33.787  20.377  0.2606 -0.1515 -0.0519
50513W        W93566  17.677  30.414  28.878 -0.2416  0.0060  0.0613
50514W        W93567  32.359   3.411  19.527 -0.0967  0.3312  0.0102
50515W        W93568  31.069  34.595   0.657  0.0928  0.0430 -0.4279
50516W        W93569  16.849  25.204  26.284 -0.0374 -0.3379  0.0896
50517W        W93570  31.931  28.779   6.064 -0.0538 -0.1257  0.3608
50518W        W93571  31.109  34.241   4.063 -0.2565  0.3287 -0.3580
50519W        W93572  12.037  25.478  28.123 -0.3027  0.0056  0.0619
50520W        W93573   9.203  18.013   8.513 -0.2985  0.0461  0.1208
50521W        W93574   2.136   2.247   6.063  0.1315 -0.1650  0.0255
50522W        W93575   8.323  11.284   4.625 -0.0550  0.1915  0.0640
50523W        W93576   6.545  31.140  22.357 -0.0607  0.1031 -0.2433
50524W        W93577   6.289  20.326  21.897  0.0039  0.0420  0.0795
50525W        W93578  14.024  24.108  20.762 -0.0746  0.1862 -0.2732
50526W        W93579   1.463  18.283  21.876 -0.0118  0.1129 -0.0944
50527W        W93580   7.026  29.253  21.924 -0.1384  0.1510 -0.1826
50528W        W93581  10.610  15.890  14.350 -0.2505  0.1943 -0.2433
50529W        W93582  18.317  31.678  18.549  0.2011  0.0397 -0.1167
50530W        W93583   5.791   2.360  28.390 -0.1805 -0.0409  0.1400
50531W        W93584  16.705   2.667   2.202 -0.3612  0.1737  0.1157
50532W        W93585  13.651  18.968  23.089  0.2831 -0.0588  0.2719
50533W        W93586  11.155  19.162   9.261 -0.5152 -0.3448  0.4024
50534W        W93587  33.818  15.981   1.849 -0.2463  0.0224  0.2053
50535W        W93588   4.901  28.300  13.611 -0.3159  0.1153  0.1543
50536W        W93589   7.424  23.828   9.407  0.4212  0.4567 -0.3427
50537W        W93590   8.143  26.452  24.508 -0.0382 -0.2800  0.1777
50538W        W93591  24.155  26.594  20.972 -0.5081 -0.0313 -0.1329
50539W        W93592  33.610  29.711  21.908 -0.2941  0.2043 -0.4534
50540W        W93593  25.731  27.592  16.719  0.0035 -0.1396 -0.1753
50541W        W93594   4.834  18.327  18.389 -0.1151  0.0264 -0.1755
50542W        W93595  22.522   6.456  20.323  0.0366  0.1977  0.1144
50543W        W93596   7.369  33.716   2.256  0.0173  0.1091  0.1604
50544W        W93597  14.144  18.205  28.824  0.2157 -0.0335 -0.1658
50545W        W93598  19.108  23.746  20.930 -0.2784  0.0560  0.1722
50546W        W93599  11.628  14.917   4.538  0.0873 -0.3035  0.2765
50547W        W93600  12.421  32.477   9.916  0.1738  0.3196  0.2257
50548W        W93601  30.312   8.297  16.797  0.3474  0.1839 -0.2798
50549W        W93602  11.859  31.452  29.159 -0.1678 -0.0107  0.0308
50550W        W93603   1.177  34.532  25.821  0.3170 -0.0486 -0.3268
50551W        W93604   6.557  19.524  13.680 -0.0407  0.2715  0.1033
50552W        W93605  17.438  28.350   7.411  0.0199 -0.0988 -0.0971
50553W        W93606  11.903  29.234  22.952  0.2505  0.1305 -0.0541
50554W        W93607  15.255  20.193  15.115  0.0931 -0.0511 -0.0946
50555W        W93608   2.691  29.511  27.874  0.0615 -0.3374  0.0360
50556W        W93609   0.401  29.676   8.883 -0.0619 -0.1091 -0.0138
50557W        W93610   6.893  22.533  28.579 -0.2106  0.0133 -0.0990
50558W        W93611  16.613  14.857  22.525  0.0608 -0.1109 -0.2413
50559W        W93612  10.697  26.970   8.539 -0.0576  0.0332 -0.3282
50560W        W93613   8.884  26.247  29.150  0.0987 -0.4441 -0.1541
50561W        W93614  24.741   9.315   4.069  0.2406  0.1848  0.2022
50562W        W93615  14.832  30.927  20.820 -0.0681  0.2041  0.1216
50563W        W93616  11.055  31.608  18.110 -0.1541 -0.1441  0.0126
50564W        W93617  12.546  18.296   1.849  0.0656 -0.1249 -0.1737
50565W        W93618  10.939  11.864   7.137 -0.0736 -0.0123 -0.1003
50566W        W93619   3.886  27.422  22.462  0.1676  0.1616  0.1843
50567W        W93620   5.724  29.941  22.780  0.1895  0.2486 -0.1592
50568W        W93621  31.723  25.423  25.421  0.0900 -0.4814  0.0237
50569W        W93622  33.116  19.394  17.169  0.0239  0.0187  0.4154
50570W        W93623  20.178  25.986  19.816  0.2501  0.1720 -0.2367
50571W        W93624   4.911  24.957   9.132 -0.0727 -0.0082 -0.3317
50572W        W93625   2.007  23.295   4.213  0.2523 -0.0805 -0.2104
50573W        W93626   8.603  33.904   7.874  0.0392 -0.2075 -0.0894
50574W        W93627  30.180  14.521   9.894 -0.3344 -0.0792  0.0988
50575W        W93628  22.974   5.035   5.442 -0.2383 -0.0438 -0.1284
50576W        W93629  15.584   0.925   3.664 -0.0816  0.0112  0.1627
50577W        W93630  25.897   8.349   7.903  0.2445  0.1013 -0.0974
50578W        W93631   8.152  19.461   9.783 -0.2356  0.0612  0.0102
50579W        W93632   8.842   8.766  25.242 -0.1997  0.1689 -0.1408
50580W        W93633  26.231  24.301  16.806  0.2214  0.1981 -0.0479
50581W        W93634  14.644  20.557   3.845 -0.0272  0.1585 -0.1885
50582W        W93635  19.035   6.052  25.337  0.1029 -0.0200  0.2496
50583W        W93636  21.812  22.387  27.981 -0.4165 -0.0292  0.1070
50584W        W93637  32.604  31.320   3.907 -0.1120  0.1140 -0.1077
50585W        W93638   8.526  16.182  20.184 -0.3803  0.0980  0.2862
50586W        W93639   9.966  26.617  25.762  0.0357  0.3705  0.1926
50587W        W93640  18.157  23.383   6.216  0.2755 -0.0134  0.1927
50588W        W93641  11.357  33.370  26.329 -0.0485  0.1684 -0.2204
50589W        W93642  31.362  28.699  14.307  0.1174 -0.0677  0.0677
50590W        W93643  23.009  30.427  16.241 -0.0740  0.1870 -0.0518
50591W        W93644   9.984   5.573   3.264  0.1421 -0.2303 -0.1177
50592W        W93645   9.481  28.250  23.466 -0.1167  0.1421  0.0448
50593W        W93646   2.657  15.255   3.594  0.3163 -0.0234  0.0684
50594W        W93647   8.524  31.964  20.515 -0.1786 -0.1249 -0.0374
50595W        W93648  17.449  23.874  28.614  0.0766 -0.1702 -0.1916
50596W        W93649  11.478  29.111  15.695  0.1036 -0.0798 -0.2802
50597W        W93650  19.141  25.644  20.591 -0.0950  0.1820 -0.0590
50598W        W93651  14.638  15.340  14.581  0.0944  0.0050  0.0223
50599W        W93652  30.685   8.814  15.903  0.2072 -0.1790  0.2305
50600W        W93653  15.495  15.651  28.929  0.0480 -0.0017 -0.0449
50601W        W93654   6.322  26.517  20.552  0.0457 -0.1532  0.1917
50602W        W93655   4.917  20.738  18.571 -0.1776 -0.4573  0.0851
50603W        W93656   5.283  31.341  23.916 -0.3170 -0.0169  0.1442
50604W        W93657   6.999  28.250  25.234  0.3867 -0.0737  0.1356
50605W        W93658  21.529  28.300  22.115 -0.1502  0.0458  0.3180
50606W        W93659  22.425  25.119  16.963 -0.2784 -0.0264  0.2188
50607W        W93660  20.267  31.156   3.967 -0.0972  0.3007 -0.0991
50608W        W93661   7.332  24.312   0.889  0.3545 -0.1089 -0.0601
50609W        W93662  26.761  30.903   6.710  0.0942 -0.1184  0.1095
50610W        W93663  21.101  33.497  22.372  0.3991  0.0418 -0.0431
50611W        W93664  25.337  21.268   7.421  0.2217 -0.0818 -0.3737
50612W        W93665   8.835  25.495   1.513 -0.0914 -0.2177  0.3335
50613W        W93666   2.865  30.268  25.111  0.1337 -0.1646  0.0419
50614W        W93667  33.942   2.993  25.654 -0.1437  0.2194  0.4359
50615W        W93668  12.519   0.199  23.907 -0.0986 -0.1559  0.0161
50616W        W93669   4.532   1.488  15.969 -0.0574 -0.1422  0.0564
50617W        W93670  27.198  33.898   6.664 -0.1246  0.0282 -0.3453
50618W        W93671  34.589  27.412  18.453  0.1687 -0.2177 -0.0183
50619W        W93672  32.505  17.343  24.202 -0.0235  0.0295 -0.1846
50620W        W93673   6.879  27.843  27.913  0.0922  0.2997 -0.4064
50621W        W93674  27.759  28.222  26.800 -0.1256  0.1343 -0.2598
50622W        W93675  19.939  30.334  17.056  0.0412 -0.1747  0.0148
50623W        W93676   6.954  29.116   2.415  0.1335  0.3499 -0.0657
50624W        W93677  14.257   8.524  26.453  0.2275 -0.1790 -0.0298
50625W        W93678   9.440  23.899  26.941  0.1885  0.0802  0.0300
50626W        W93679  11.664   3.269  25.575  0.3102  0.2861  0.0075
50627W        W93680  13.608  16.930  15.135 -0.0226  0.1036  0.0165
50628W        W93681   9.948  23.675  24.968  0.3807  0.2312  0.2684
50629W        W93682  11.265  15.156  27.538  0.0883 -0.2385 -0.0787
50630W        W93683  31.585   5.289   4.538  0.0778 -0.2429 -0.0145
50631W        W93684  30.455   2.306  23.951 -0.1005 -0.2058  0.2954
50632W        W93685  15.084  22.982  20.881 -0.1634 -0.3368 -0.0130
50633W        W93686  13.971  12.205  22.277  0.1739  0.1698 -0.1616
50634W        W93687  28.021  30.208   1.387  0.3063 -0.3349  0.2347
50635W        W93688  14.874  34.188  16.775 -0.1999 -0.2559 -0.1333
50636W        W93689  22.789  20.805  23.260  0.3269 -0.0063  0.0974
50637W        W93690   7.261   8.615   6.805 -0.2003 -0.0304 -0.0331
50638W        W93691   9.164   5.180  15.260  0.0750  0.0162  0.3201
50639W        W93692   1.767  17.886  22.881 -0.0572 -0.3543 -0.3785
50640W        W93693  19.483  19.177  15.619 -0.0496 -0.0784  0.0190
50641W        W93694   5.017  24.894  15.968  0.1340  0.0511 -0.0884
50642W        W93695  20.189   2.890  28.738 -0.0686 -0.2279  0.1591
50643W        W93696   8.879  29.254  28.533  0.0902 -0.0745  0.0316
50644W        W93697   5.560   8.411   0.673 -0.1777 -0.0918  0.1618
50645W        W93698  21.268  25.953   5.338 -0.0540 -0.3783 -0.0752
50646W        W93699  12.640  23.708  25.598 -0.1396 -0.0554  0.0307
50647W        W93700  17.613  29.762  25.467 -0.0743  0.1266 -0.1061
50648W        W93701   6.967  30.061  24.260 -0.1629  0.1886 -0.1760
50649W        W93702   9.670   2.655  18.476 -0.0038  0.3597 -0.4374
50650W        W93703  21.408  18.032  14.254  0.2857 -0.1716 -0.1938
50651W        W93704  10.917  22.155  17.386 -0.1928 -0.2060 -0.3953
50652W        W93705  33.395  15.430   5.322 -0.5142  0.0139 -0.0727
50653W        W93706   6.192  28.652   9.720 -0.1168 -0.2150  0.2186
50654W        W93707   9.978  34.130   7.975 -0.0649 -0.0570  0.0584
50655W        W93708  26.584   6.801   0.517 -0.1653 -0.3633  0.1955
50656W        W93709   9.387  26.438   7.543  0.5983 -0.1690  0.1856
50657W        W93710  27.142  13.757   6.149  0.3994 -0.0024 -0.2430
50658W        W93711   9.159  23.904   6.102  0.1115  0.2248 -0.1572
50659W        W93712  19.862  23.669  17.803 -0.2265 -0.0678 -0.1595
50660W        W93713  31.346  34.183   7.122 -0.1449 -0.4106  0.3060
50661W        W93714  19.637   1.293  26.564  0.1558 -0.2627 -0.1829
50662W        W93715  15.501  14.153   1.291  0.0671 -0.2407 -0.5119
50663W        W93716   2.878  26.451   4.210  0.0728  0.2285  0.1143
50664W        W93717   7.978  29.672  24.055 -0.6893  0.2346  0.4036
50665W        W93718  12.123  20.435  14.654  0.0550 -0.0678 -0.2773
50666W        W93719  28.505  31.937   5.132  0.1977  0.0499 -0.1241
50667W        W93720  17.178  12.841   6.001 -0.1250  0.2341 -0.1314
50668W        W93721  31.248  25.479   1.212  0.2043  0.4159  0.0553
50669W        W93722   4.354  29.719  25.684  0.0723  0.0554 -0.0441
50670W        W93723  13.338  27.835   3.018  0.1952  0.2361  0.2591
50671W        W93724  15.638  25.174  24.544 -0.0724 -0.0349 -0.0215
50672W        W93725  12.920  23.981  24.770 -0.2223  0.0694 -0.0313
50673W        W93726  11.911  15.696  17.271 -0.0946  0.1038  0.2388
50674W        W93727   9.555  30.518  15.301 -0.0780  0.1452 -0.2097
50675W        W93728   2.223  26.249  28.197 -0.1420 -0.1097 -0.1860
50676W        W93729  30.353   4.259  18.914  0.2995 -0.3463 -0.2737
50677W        W93730   7.317  25.536   9.163  0.2415 -0.1036  0.0111
50678W        W93731  31.736  23.520  14.570  0.0835 -0.1725 -0.0843
50679W        W93732   5.415  23.843  22.490 -0.2200  0.1169  0.2512
50680W        W93733  11.870  13.485  19.899 -0.1495  0.1586  0.2414
50681W        W93734  12.950  13.758   9.209 -0.5197 -0.1113 -0.3852
50682W        W93735  28.652  34.310   0.131  0.1662 -0.0957 -0.1016
50683W        W93736  12.708  15.228  25.840 -0.3529  0.0165  0.3367
50684W        W93737   8.777  20.031  18.598 -0.0055  0.1015  0.2789
50685W        W93738  13.671   6.565  14.397 -0.1517  0.1882  0.1744
50686W        W93739  24.190  29.694  28.827  0.0964  0.2064  0.0219
50687W        W93740   5.009  17.161  13.994  0.0034 -0.1675  0.1286
50688W        W93741  27.916  23.032  20.113  0.4032  0.2316  0.1664
50689W        W93742   9.693  31.080   7.324  0.0289 -0.1921  0.0213
50690W        W93743  32.786  11.312  26.828 -0.2514 -0.0678 -0.0887
50691W        W93744   7.508  18.332   8.184 -0.2499  0.1357  0.1866
50692W        W93745  31.261  32.035  21.512  0.0206 -0.3198 -0.2216
50693W        W93746   3.761  14.948  16.756  0.0254 -0.3384  0.1436
50694W        W93747  13.185  23.675  26.384  0.2035 -0.0402  0.0048
50695W        W93748   3.806  26.903  26.922 -0.1418 -0.2218  0.0252
50696W        W93749  11.919  26.182   4.534  0.0411 -0.0008 -0.1055
50697W        W93750  12.816   3.591  16.876 -0.1770 -0.0691 -0.3774
50698W        W93751  17.620  29.099  27.225  0.0417  0.0013 -0.1580
50699W        W93752  16.031  29.409  26.648  0.1788 -0.1770  0.0571
50700W        W93753  30.196  11.419  28.841 -0.0526  0.0499 -0.0119
50701W        W93754  22.998  30.712   3.241 -0.1093  0.2079  0.2299
50702W        W93755   5.335  22.284  15.259 -0.1684  0.2194  0.0510
50703W        W93756  11.658   6.107   1.230 -0.1364  0.0291  0.0643
50704W        W93757   1.058  14.301  21.625  0.0844 -0.3560  0.0779
50705W        W93758   2.379   1.254  18.963  0.0323  0.2050 -0.0556
50706W        W93759  18.737   4.816  15.972  0.1088  0.0538  0.4380
50707W        W93760  22.572  11.856   8.572  0.0973 -0.2143  0.0293
50708W        W93761  22.642  20.042  27.289  0.1498  0.3275 -0.0227
50709W        W93762  33.712  24.383   8.908 -0.1965 -0.0249  0.0224
50710W        W93763  12.239  24.508   5.177  0.0092  0.0500  0.0360
50711W        W93764  16.589  12.053   7.035  0.0108 -0.2307  0.0530
50712W        W93765  10.794  27.191   1.436  0.2367 -0.0731  0.2175
50713W        W93766   8.646  27.308  18.410 -0.0618  0.1502 -0.0120
50714W        W93767   3.429  23.550  18.763 -0.0005  0.0506  0.0094
50715W        W93768  30.507  22.266  13.856 -0.1684 -0.1076 -0.0571
50716W        W93769   8.972   7.464  23.618  0.2132  0.0438  0.2033
50717W        W93770   4.422   8.872  23.461  0.0172 -0.3113  0.0715
50718W        W93771  34.130  20.328  26.903  0.0432  0.1573  0.1613
50719W        W93772  17.864  24.471  24.525  0.0400  0.1800 -0.0304
50720W        W93773  18.111   5.896  17.316 -0.4026  0.0135 -0.4691
50721W        W93774   9.861  19.197   0.099 -0.1903 -0.1028 -0.0614
50722W        W93775   7.965   9.263  19.910 -0.2809  0.3416 -0.0501
50723W        W93776   8.174   2.327  27.891  0.3194  0.3280  0.0335
50724W        W93777  14.639  33.013  28.906 -0.0738 -0.1054 -0.3473
50725W        W93778  32.116  12.120  24.789  0.1089 -0.1445  0.1183
50726W        W93779   4.764  29.004  17.971 -0.1885  0.0663 -0.2122
50727W        W93780   3.939   8.046   4.150 -0.2235 -0.4102  0.0170
50728W        W93781  15.516  26.230  20.998 -0.0023 -0.0808 -0.0039
50729W        W93782  23.981  26.242  17.718 -0.0146  0.2808  0.0041
50730W        W93783  15.282  27.114  27.909 -0.0352 -0.3312  0.4154
50731W        W93784  19.156   8.346  28.753  0.1826 -0.1187 -0.4560
50732W        W93785   6.840   2.484  28.584  0.0923 -0.1662  0.0238
50733W        W93786   4.296   0.881   8.241  0.1500  0.1644  0.0163
50734W        W93787  10.352  27.508  24.179 -0.1163  0.1661  0.0433
50735W        W93788  17.592  33.963   4.373 -0.4788 -0.1891  0.0370
50736W        W93789  31.925  12.444  15.934  0.1763  0.0501 -0.2826
50737W        W93790   9.694   2.748   1.411  0.0120  0.0420  0.0585
50738W        W93791  17.761   2.515  27.452 -0.0955 -0.1472  0.0793
50739W        W93792  30.155  28.139   3.273  0.0882  0.0660  0.4650
50740W        W93793  15.368  34.127   1.703 -0.2776 -0.1942  0.0987
50741W        W93794  12.733   1.860   0.246 -0.3006 -0.2699 -0.1800
50742W        W93795  30.738  15.098  23.996  0.0565 -0.1284 -0.2460
50743W        W93796  15.080  20.702   6.801  0.2930 -0.0445 -0.0663
50744W        W93797  31.923  14.451   8.984 -0.3054 -0.2533 -0.0725
50745W        W93798   2.017  26.581  15.485  0.0630 -0.1227  0.2201
50746W        W93799  17.877  25.911   8.149  0.1091  0.0346 -0.3057
50747W        W93800  11.851   5.155  17.139  0.1472 -0.3647  0.1444
50748W        W93801   8.192   0.075  14.997 -0.0086 -0.1684 -0.0878
50749W        W93802  31.950  12.099   3.766  0.1712 -0.1581 -0.1424
50750W        W93803  10.992   6.645  23.783 -0.3724 -0.1807 -0.2560
50751W        W93804  17.916   1.227   8.088 -0.1546 -0.2183 -0.2130
50752W        W93805  31.992  20.513  17.942  0.0578 -0.3133 -0.1329
50753W        W93806  22.905  15.799  14.035 -0.2619 -0.5012  0.3495
50754W        W93807   0.470   2.471   7.606  0.0807  0.2736 -0.0815
50755W        W93808  19.050   8.497  27.159 -0.1529  0.0243  0.2819
50756W        W93809   9.405  15.454  14.645 -0.0883  0.1868 -0.0946
50757W        W93810  20.732  12.236  25.044  0.1803 -0.2594  0.0733
50758W        W93811  12.511  12.769  16.326 -0.2621  0.0690  0.0263
50759W        W93812   3.926   8.427   7.668 -0.1495  0.2583 -0.1495
50760W        W93813  31.210   4.093  26.429 -0.0030  0.0093 -0.1038
50761W        W93814   2.412  27.564  28.112 -0.0186 -0.0963 -0.0832
50762W        W93815  20.103   0.452   7.032 -0.2710 -0.0568 -0.1913
50763W        W93816  16.566   2.253   9.823 -0.1365 -0.1916 -0.1288
50764W        W93817  30.215  11.393  27.113 -0.0003  0.3000  0.1574
50765W        W93818   3.428   6.631   1.210  0.0512  0.2015  0.0160
50766W        W93819  32.213  24.847   0.240 -0.0821 -0.2950 -0.2420
50767W        W93820  17.534  17.286  14.407 -0.4083 -0.0892  0.1079
50768W        W93821   9.405  33.099   8.504  0.1464  0.3524 -0.1358
50769W        W93822   8.195  34.039   3.124  0.1940 -0.1122 -0.0066
50770W        W93823  33.590  20.274   9.399  0.4565  0.1550  0.3054
50771W        W93824   6.931  24.149  13.473 -0.1130  0.1417  0.3999
50772W        W93825   4.557  21.664  28.559 -0.0077 -0.0887  0.2835
50773W        W93826   2.239  29.100  18.133  0.0334  0.0129 -0.0224
50774W        W93827  25.823  15.206  22.299  0.1020  0.2382 -0.0478
50775W        W93828  23.312   6.496   6.334 -0.1478  0.0871 -0.1603
50776W        W93829   1.252   0.766  24.693  0.1236 -0.2249 -0.0852
50777W        W93830   1.870  28.784   3.645  0.1783  0.2135  0.1093
50778W        W93831  17.050  32.014  28.282  0.0080  0.2351 -0.2714
50779W        W93832  33.422  10.008  26.148  0.2931  0.0046 -0.0828
50780W        W93833   7.869  13.961  28.692 -0.0179  0.1586 -0.0298
50781W        W93834  32.134  22.419   1.383 -0.1114  0.0808 -0.3509
50782W        W93835   0.372  25.263   7.300  0.0995 -0.0142  0.1479
50783W        W93836  21.427  28.813  21.395  0.0037 -0.1760 -0.1111
50784W        W93837  15.305  24.821  17.617  0.0751 -0.0420 -0.2038
50785W        W93838  33.637  15.472   9.276  0.3365 -0.1062 -0.3163
50786W        W93839  12.550   8.383   9.123  0.0253 -0.0711  0.0401
50787W        W93840  18.084  34.063   0.232  0.0276 -0.0129 -0.0790
50788W        W93841  28.128  26.788  29.003 -0.0858 -0.0473 -0.3111
50789W        W93842  34.674   4.243  15.544 -0.4539 -0.2985 -0.1632
50790W        W93843  24.295  31.040  18.225  0.3415  0.0384  0.0213
50791W        W93844  31.328   8.356  14.694  0.0278  0.0930  0.1732
50792W        W93845  19.268   5.271  15.133 -0.1076 -0.0922 -0.2421
50793W        W93846  22.248  28.048  17.755  0.1206 -0.0332  0.0657
50794W        W93847  32.550   3.542  20.023  0.3464 -0.2517  0.1841
50795W        W93848  11.402   4.117  19.087 -0.1686 -0.0064 -0.2737
50796W        W93849  21.052  20.777  18.538  0.0999 -0.0550  0.1328
50797W        W93850  15.508  31.458  22.779 -0.0198 -0.5839  0.2072
50798W        W93851  27.374  33.611  20.526  0.2122  0.0424  0.0092
50799W        W93852  27.497  28.932  16.822  0.0066 -0.2618 -0.0511
50800W        W93853  24.914  24.731   0.922 -0.0638 -0.1473  0.0759
50801W        W93854   6.462  18.121  28.823 -0.2171 -0.0426 -0.0740
50802W        W93855   9.619   1.586  17.928 -0.0010  0.1495  0.3824
50803W        W93856  24.086   4.915  28.993  0.0369 -0.2208 -0.3599
50804W        W93857   1.738   6.019  21.184 -0.1369  0.2292 -0.0936
50805W        W93858  11.635   8.642   4.846 -0.1873  0.5055 -0.3478
50806W        W93859  11.192  25.811   1.770 -0.1958 -0.0494 -0.0955
50807W        W93860   8.093  33.338  16.175  0.1498 -0.2071 -0.2237
50808W        W93861   7.602   3.662  21.013  0.2448 -0.2718 -0.1926
50809W        W93862  19.717   7.515   1.603  0.0783  0.1322  0.0752
50810W        W93863  21.272  33.938  22.129  0.0305 -0.2769  0.1889
50811W        W93864   7.590   9.643  26.030  0.0198  0.1319 -0.1079
50812W        W93865   7.850   8.037  16.601 -0.2177 -0.0545  0.6053
50813W        W93866  27.525   6.339  22.573  0.1233  0.2644 -0.0048
50814W        W93867  11.261   4.341   4.687  0.0981  0.0955 -0.6030
50815W        W93868  12.659   2.267  17.349 -0.1179  0.0409  0.1269
50816W        W93869  30.474  28.229  21.849 -0.1020  0.0054 -0.0088
50817W        W93870  30.364  23.597  15.509 -0.0357  0.1149 -0.2344
50818W        W93871  26.132  31.684  24.266 -0.1816 -0.0546 -0.0702
50819W        W93872  19.998  30.853  18.054  0.0041 -0.3496 -0.1550
50820W        W93873  17.808  31.572  21.976 -0.3417 -0.0183  0.1093
50821W        W93874  10.659   3.067  23.262  0.1092  0.2006 -0.1469
50822W        W93875  20.188  33.563  22.856  0.0717 -0.0433 -0.2331
50823W        W93876   6.321  19.982  24.643 -0.2249 -0.2900 -0.1827
50824W        W93877  14.129  13.334  23.796  0.3144 -0.0135  0.2223
50825W        W93878   1.837   5.935  13.734  0.2689 -0.0977  0.3434
50826W        W93879  27.143   8.603  26.118  0.1176 -0.0281 -0.1059
50827W        W93880  32.362  33.662  15.411  0.2194 -0.0245 -0.0043
50828W        W93881   2.746  32.226   8.693 -0.1916 -0.0507 -0.2275
50829W        W93882  19.869   4.474  22.576  0.2315  0.2045  0.1944
50830W        W93883  11.232  26.322  17.204 -0.2881 -0.0422  0.0769
50831W        W93884   9.130  29.945  25.540  0.0140  0.3937  0.1117
50832W        W93885  28.376  22.085  20.017 -0.2352  0.0631 -0.1828
50833W        W93886  14.247  22.120  18.315  0.1304  0.0320 -0.1000
50834W        W93887   4.737   5.939  25.225  0.2989 -0.0448 -0.1626
50835W        W93888  11.465   1.151  17.500  0.1511 -0.0125 -0.0804
50836W        W93889  22.599  30.587  20.641  0.2090  0.6276 -0.0996
50837W        W93890  28.882  29.078  22.173  0.0561  0.0219 -0.1364
50838W        W93891   1.046  24.502  14.424 -0.0316 -0.0270 -0.0258
50839W        W93892  12.375  31.615  14.705 -0.1628  0.0400  0.0599
50840W        W93893  12.765   7.861  23.930  0.0728  0.0600  0.0424
50841W        W93894  10.702  26.961  17.022  0.1615 -0.0461  0.0569
50842W        W93895   9.478  28.661  21.330  0.1638 -0.0102  0.1415
50843W        W93896  18.384  18.600  14.468 -0.0269 -0.1090 -0.3775
50844W        W93897   4.776  10.629  16.285 -0.2713  0.0621  0.4047
50845W        W93898  33.402  13.647  21.474 -0.0693  0.1649 -0.1329
50846W        W93899  22.635  28.149  17.079  0.0945 -0.0842 -0.4542
50847W        W93900   0.598  22.906  13.088 -0.2388  0.1937  0.0545
50848W        W93901  18.310  29.568  26.933  0.0554  0.2716 -0.3404
50849W        W93902  34.455  33.145   3.353  0.0321  0.0215  0.1273
50850W        W93903  32.625  30.760  21.664 -0.2186 -0.0236 -0.0261
50851W        W93904  26.296   4.269  14.096 -0.2386  0.2743 -0.0211
50852W        W93905  18.557  26.546  28.445 -0.4053  0.1232  0.2535
50853W        W93906   4.220   4.002  24.110  0.3511 -0.2792 -0.1212
50854W        W93907  19.952  23.981  24.861  0.3082 -0.0384  0.1473
50855W        W93908  19.373   1.110  23.511 -0.1424 -0.0060  0.1069
50856W        W93909   8.815   7.989  23.401  0.0556  0.0645 -0.0865
50857W        W93910   2.658   8.562  18.927 -0.1246 -0.0499  0.0442
50858W        W93911  12.296  21.856  15.927  0.0225  0.5220 -0.0100
50859W        W93912   6.270  23.140  14.203 -0.1389 -0.1051 -0.2365
50860W        W93913   0.941  24.939  28.541 -0.1769  0.0142 -0.1029
50861W        W93914  11.332  19.067  15.174  0.1740  0.2344 -0.4295
50862W        W93915   8.144  18.463  18.247  0.1965 -0.1420 -0.1890
50863W        W93916  12.320   2.029   8.958 -0.0071  0.0321  0.2963
50864W        W93917   7.960  13.121  27.315  0.0967  0.1546  0.0132
50865W        W93918   3.452   5.115  16.915 -0.1247  0.0642  0.0792
50866W        W93919  21.091  34.209  24.054  0.0820 -0.0570 -0.0472
50867W        W93920  21.311  32.470   2.617  0.0337 -0.2243  0.2431
50868W        W93921   4.036  18.974  15.453 -0.3055 -0.0219 -0.3028
50869W        W93922  11.264   0.952   7.804 -0.0058 -0.0084  0.4437
50870W        W93923   2.834   1.700  25.443 -0.0838 -0.0915  0.2833
50871W        W93924  12.013  32.071  17.581  0.1855  0.1545  0.2621
50872W        W93925  16.131  33.776  14.454  0.1339 -0.1928 -0.1921
50873W        W93926   0.190  24.307  16.527  0.0563  0.0801 -0.0847
50874W        W93927   9.987  15.450  27.323  0.0184  0.1432 -0.1625
50875W        W93928  18.694  29.177  18.478  0.0725  0.3813 -0.1420
50876W        W93929   2.141  17.524  22.741 -0.2285  0.1421 -0.0010
50877W        W93930  10.091  25.591  20.631 -0.0453  0.3388  0.1126
50878W        W93931  10.915   6.903  15.144  0.0533  0.2117  0.1254
50879W        W93932  12.414  18.524  20.045 -0.0476  0.0744 -0.1015
50880W        W93933  12.153   2.502   8.667  0.1142  0.0569  0.1048
50881W        W93934  19.656  34.112  24.777  0.0669  0.0776 -0.1240
50882W        W93935  13.364   1.200  16.855 -0.0732  0.2128  0.1037
50883W        W93936  14.193  10.076  18.062  0.2189  0.0269 -0.2975
50884W        W93937  20.199  30.560  16.517 -0.1136 -0.0737  0.2760
50885W        W93938   4.973  22.174  28.129  0.1526  0.0602  0.1033
50886W        W93939   2.357   6.416  19.479 -0.0839 -0.1935  0.0988
50887W        W93940   3.633  21.294  14.588  0.2840 -0.3536 -0.1831
50888W        W93941   8.518  33.451  19.429 -0.0715  0.1088 -0.2060
50889W        W93942   0.472   6.566  15.653  0.5716  0.1820  0.1595
50890W        W93943  12.555  31.919  17.697  0.0258  0.0105 -0.2809
50891W        W93944   0.527  27.890  28.965 -0.0541 -0.0147 -0.3298
50892W        W93945  10.596  33.395  16.868 -0.0348  0.1759 -0.2570
50893W        W93946  18.716   3.889  15.511  0.0723 -0.1998 -0.3643
50894W        W93947  10.695  29.094  19.673  0.0926 -0.3209  0.5305
50895W        W93948  20.899  24.036  15.150 -0.0323  0.0088  0.0457
50896W        W93949  11.803  27.055  16.338  0.2376  0.4862 -0.2231
50897W        W93950  14.161  31.337  18.255 -0.1756 -0.1139 -0.1554
50898W        W93951   3.978   9.215  17.158 -0.0407  0.1619 -0.1335
50899W        W93952  24.274  16.909  20.884 -0.2657  0.1007  0.0242
50900W        W93953  10.792  32.713  26.073  0.1937  0.2294  0.0870
50901W        W93954   2.045   6.501  19.066  0.2855 -0.1034  0.0294
50902W        W93955  21.316  31.600  27.426  0.0298  0.5126 -0.3423
50903W        W93956  13.703  30.431  16.870  0.0039 -0.1593  0.0371
50904W        W93957  11.409   2.492  17.178 -0.1462  0.0189  0.5114
50905W        W93958  32.219  22.484  19.582  0.1676 -0.2025  0.0427
50906W        W93959  12.505  33.973  26.752 -0.0744  0.0675 -0.1322
50907W        W93960   0.549  30.226  13.930  0.0566 -0.1072 -0.0457
50908W        W93961  27.245  30.697  13.561 -0.3831  0.2142  0.4488
50909W        W93962  25.511   8.873  28.436 -0.0175 -0.0979  0.2130
50910W        W93963   8.861  33.907  20.150  0.0954  0.2728 -0.2662
50911W        W93964   0.675  28.995  20.161  0.2173  0.2578 -0.1171
50912W        W93965  33.151  24.630   8.662 -0.3129  0.0696 -0.2629
50913W        W93966  20.007  34.568  27.734 -0.0559 -0.0542 -0.1455
50914W        W93967   2.826   8.482  15.115  0.0188  0.1698 -0.0191
50915W        W93968  11.045  27.533  22.527 -0.1201  0.0136  0.1985
50916W        W93969  23.333  30.337  15.903  0.1768 -0.0616  0.0110
50917W        W93970   5.220  24.606  17.089  0.5667 -0.0480 -0.0471
50918W        W93971  33.977  33.182  15.134 -0.0456  0.2995  0.0986
50919W        W93972  33.042   7.734  22.794 -0.1263  0.0350  0.1112
50920W        W93973  15.357  10.472  10.284  0.1190  0.3333  0.1913
50921W        W93974  15.210  32.913  28.002 -0.3267 -0.0640 -0.1781
50922W        W93975   6.719   1.705  25.062  0.3564 -0.0303  0.3827
50923W        W93976  16.793  24.969  21.866 -0.1549 -0.2174  0.2116
50924W        W93977   1.282  26.578   0.367  0.4327  0.1513  0.3712
50925W        W93978  12.796  34.440  23.524  0.0350 -0.1349 -0.0560
50926W        W93979  24.830  21.361  14.720 -0.1610 -0.3315  0.2048
50927W        W93980   1.588  29.027  13.208  0.0611 -0.0645  0.1800
50928W        W93981   8.867   0.484  29.126  0.0375  0.0147 -0.0773
50929W        W93982  34.224   9.730  15.297  0.1714 -0.1215  0.0278
50930W        W93983   8.562  24.075  15.843 -0.3571 -0.1254  0.3271
50931W        W93984   6.314   2.572  17.076 -0.1054 -0.0865  0.2119
50932W        W93985  25.544   7.482  22.324 -0.2030  0.3099  0.2409
50933W        W93986  27.110   1.483   0.915  0.2095  0.0847  0.1659
50934W        W93987   4.098  27.561  18.941  0.1097 -0.0117  0.0263
50935W        W93988  18.121  21.509  29.138  0.0793 -0.1033  0.2427
50936W        W93989  25.588  22.287  27.211  0.0483  0.1673 -0.2086
50937W        W93990   8.017   9.123  15.302 -0.3760 -0.1591 -0.0469
50938W        W93991  15.218   7.304  19.061  0.0649  0.0507  0.1746
50939W        W93992  31.628  14.219  17.736 -0.1446 -0.3329  0.1397
50940W        W93993  18.726  32.139  16.652  0.0424 -0.1943 -0.0235
50941W        W93994  18.037  20.700   4.458 -0.0457  0.1919 -0.0590
50942W        W93995  16.608   1.503   1.171 -0.3082  0.1124  0.1899
50943W        W93996  23.870  34.179  26.783 -0.0276 -0.1603  0.2282
50944W        W93997  24.328  15.233  17.020  0.0657  0.1182  0.1212
50945W        W93998   8.654  24.363  16.804  0.2072 -0.0970  0.1175
50946W        W93999  22.964  24.267  19.487 -0.0318  0.0012  0.2283
50947W        W94000  34.515  34.542  18.730  0.2343  0.2446 -0.2569
50948W        W94001  14.181  34.418  20.639 -0.0803  0.1578 -0.1708
50949W        W94002   7.469  19.699  21.319 -0.2460  0.3062 -0.2255
50950W        W94003   5.690   3.665  14.718  0.0518  0.1332 -0.0628
50951W        W94004  31.888  20.683  21.164 -0.3593 -0.0558 -0.2506
50952W        W94005  17.167   2.949  26.762 -0.1001 -0.0422 -0.1281
50953W        W94006   2.793   9.469  27.128 -0.0202 -0.2599 -0.2009
50954W        W94007  32.680   1.640  21.263 -0.2367 -0.2265  0.1176
50955W        W94008   9.927  25.409  22.684  0.2192  0.2765  0.0672
50956W        W94009  10.011  30.660  26.304 -0.2669 -0.1901  0.1159
50957W        W94010   9.516   7.667  22.683 -0.1779  0.1539 -0.0378
50958W        W94011   2.730   5.630  26.199 -0.1157 -0.0759 -0.1567
50959W        W94012  11.249  22.915  15.433  0.4168 -0.2280 -0.0845
50960W        W94013  14.092   3.064  22.891 -0.2416 -0.3089  0.1818
50961W        W94014   0.651   0.417  14.462  0.0654 -0.2582 -0.1149
50962W        W94015  10.920  25.400  16.974  0.1872 -0.0098 -0.0433
50963W        W94016   7.642   4.419  21.205  0.0027 -0.0411 -0.0416
50964W        W94017  12.690   0.594  14.635  0.5308 -0.2142  0.0022
50965W        W94018   5.817  19.782  16.896 -0.0819 -0.0351 -0.1772
50966W        W94019  19.531   3.457  18.475  0.0923  0.1339 -0.3494
50967W        W94020   7.137  27.700  15.474 -0.2203  0.2418 -0.3457
50968W        W94021   4.440  23.573  13.375 -0.0563 -0.0483  0.2800
50969W        W94022  21.980   3.879   7.833  0.2208  0.1840  0.0433
50970W        W94023   5.206  15.071  25.389  0.1030 -0.0841  0.1634
50971W        W94024  14.948   0.648  17.482  0.1194 -0.3953 -0.0773
50972W        W94025  15.901  34.368  23.214 -0.3185  0.3214  0.0376
50973W        W94026   6.106  17.442   1.375  0.0087  0.0546 -0.1998
50974W        W94027  10.029  32.811  21.588 -0.0680 -0.1723  0.1072
50975W        W94028  18.853  28.971  20.721 -0.0384 -0.1495 -0.2269
50976W        W94029  15.301  28.090  19.903  0.0619 -0.1107  0.2494
50977W        W94030  31.633   9.776   0.089 -0.0757  0.0750  0.2365
50978W        W94031  20.269  17.387  15.617  0.2300 -0.2028  0.0409
50979W        W94032  11.054   7.473  18.937  0.0139 -0.0423 -0.1197
50980W        W94033   2.208  17.181  17.621  0.0254 -0.1501  0.0777
50981W        W94034  10.965  28.678  12.910 -0.2484  0.0125 -0.2749
50982W        W94035  12.313   4.289  26.989  0.1528 -0.1882  0.0408
50983W        W94036  15.018   6.541  24.003  0.4045 -0.1060  0.2078
50984W        W94037  12.548   2.689  24.019 -0.1432  0.0258  0.1021
50985W        W94038  13.003   8.868  21.618 -0.0467  0.0628  0.1828
50986W        W94039  28.695  16.982  18.553  0.2059 -0.3180 -0.0690
50987W        W94040   6.023   1.865  29.129  0.0594 -0.1855  0.0704
50988W        W94041  31.342  18.714  16.016  0.3819 -0.1444  0.2760
50989W        W94042  18.051  31.324  22.724 -0.2134  0.0485 -0.0640
50990W        W94043  15.679  30.168  18.061 -0.2522  0.2961  0.0466
50991W        W94044  13.836  23.800  28.805 -0.2464 -0.3212 -0.2319
50992W        W94045   0.161  33.758  29.069  0.0296 -0.1652  0.4562
50993W        W94046   6.523  14.396  18.561  0.1199  0.1260  0.1002
50994W        W94047   4.121   5.314  18.501 -0.1379 -0.0747 -0.3220
50995W        W94048   3.057   2.711  20.790  0.1175 -0.2129  0.4006
50996W        W94049   4.976  24.292  15.468 -0.0350  0.4552 -0.3745
50997W        W94050   5.087  30.630  14.947 -0.1266  0.4365 -0.0435
50998W        W94051  11.671  33.631  19.464  0.1113  0.1737 -0.0381
50999W        W94052   9.881  15.248  27.777 -0.0939 -0.4000 -0.4012
51000W        W94053   4.119  15.589  14.501  0.2690 -0.0529 -0.0290
51001W        W94054   5.942  16.583  19.006  0.1187  0.2108  0.5941
51002W        W94055   4.852  33.141  25.243  0.1702  0.0128  0.0194
51003W        W94056  10.729  26.313   2.840 -0.0095 -0.0046  0.1844
51004W        W94057  33.618  29.908  20.559 -0.0581 -0.1499 -0.0918
51005W        W94058  18.677  21.326  28.699 -0.4102 -0.0142  0.0891
51006W        W94059   8.193  32.667  17.359  0.1486 -0.1401 -0.0814
51007W        W94060  12.391   3.875  17.534 -0.2616  0.0697  0.5404
51008W        W94061  22.461   3.473  20.669  0.1120  0.0086 -0.1543
51009W        W94062  23.993  15.955  27.476 -0.1561 -0.2066 -0.0194
51010W        W94063  30.818   3.180  15.708  0.0646 -0.0303 -0.0128
51011W        W94064   0.705   1.087  21.782 -0.1988 -0.0327  0.0505
51012W        W94065   4.731   7.395  17.749 -0.0211  0.0135 -0.2175
51013W        W94066   3.031  30.538  13.695  0.2391 -0.0421 -0.1141
51014W        W94067   0.338   7.790  17.719 -0.1467 -0.0037  0.1987
51015W        W94068   0.645  30.038  14.838  0.2108 -0.4202  0.0444
51016W        W94069  30.982  33.083  16.415  0.2010 -0.1640 -0.1818
51017W        W94070   5.008  28.923  19.282 -0.0693  0.1233 -0.0091
51018W        W94071   1.710  28.350   3.255  0.0673  0.2843 -0.1042
51019W        W94072  29.528  26.082  18.435 -0.1165  0.0881  0.3572
51020W        W94073  15.089  32.999   8.497  0.0368 -0.3098  0.2162
51021W        W94074   5.455   1.251  17.845 -0.2317  0.3051 -0.1316
51022W        W94075  26.443  13.302  27.068  0.0137 -0.0150 -0.0193
51023W        W94076  17.048  24.077   3.283  0.1229  0.0027  0.0441
51024W        W94077   8.129  32.342  14.237  0.1815  0.1783 -0.0271
51025W        W94078  14.886   2.660   1.915 -0.3624 -0.0314 -0.1067
51026W        W94079  18.803   6.353  15.031 -0.0023  0.2258  0.0006
51027W        W94080   3.862   0.824  13.745 -0.1183  0.1254  0.0379
51028W        W94081  19.159   1.939  21.353 -0.0458 -0.2000 -0.1875
51029W        W94082   5.425  28.519  25.400 -0.1484  0.0816 -0.1225
51030W        W94083   4.070  18.235  24.785  0.0084  0.1494 -0.1176
51031W        W94084   0.665   8.618  20.949  0.2636  0.0343 -0.1498
51032W        W94085  10.823   9.407  15.898 -0.0957 -0.0770 -0.2302
51033W        W94086  23.417  17.438  16.639 -0.3369  0.0040  0.0653
51034W        W94087  33.052  11.745  15.436 -0.1659  0.3356  0.1647
51035W        W94088  30.518   5.775  22.104 -0.2347 -0.1244  0.1493
51036W        W94089  12.470  32.251  17.280 -0.2886  0.2784 -0.1283
51037W        W94090  12.961  26.564   0.767  0.1692  0.2321  0.1060
51038W        W94091   5.360  12.068  23.231  0.0182  0.1002 -0.0056
51039W        W94092   9.896   1.060  21.104 -0.1020  0.1592 -0.0829
51040W        W94093   8.180   7.832  19.829 -0.0984  0.2646 -0.0944
51041W        W94094  27.876   7.257  25.195 -0.2518  0.1475 -0.0763
51042W        W94095   9.400   0.960  16.864 -0.1088 -0.1046 -0.2596
51043W        W94096  12.882  21.714  14.501 -0.2650  0.4210 -0.3239
51044W        W94097   1.086  24.487  22.045  0.1681  0.0012 -0.1499
51045W        W94098  14.239   1.446   2.372  0.3585  0.0541  0.1143
51046W        W94099  31.548   9.826   8.824  0.0784 -0.0538  0.1454
51047W        W94100   4.149  11.013  18.555  0.3481 -0.3605  0.0839
51048W        W94101  22.586   5.392  24.109 -0.3295  0.1738 -0.1680
51049W        W94102  30.603  33.352   0.266 -0.1980  0.0884  0.0624
51050W        W94103  19.298  26.067  21.266 -0.0299 -0.2489  0.1237
51051W        W94104  30.001  14.749  26.041 -0.2562  0.0911  0.2360
51052W        W94105  16.129  33.732  27.836  0.3735 -0.0945 -0.1581
51053W        W94106  10.304  22.846  15.163 -0.0028 -0.1595 -0.2580
51054W        W94107  12.392   7.857   8.896 -0.0041 -0.0922  0.0178
51055W        W94108   1.407  14.820  22.841 -0.2346 -0.0362  0.0533
51056W        W94109   6.815   5.851   0.120  0.0685  0.3034 -0.2369
51057W        W94110   7.615  29.503  28.940  0.0113  0.1286  0.1701
51058W        W94111   9.134  33.557  21.314  0.1796 -0.0571 -0.0243
51059W        W94112  31.587   2.681  17.766 -0.0061 -0.0874  0.3301
51060W        W94113  11.906  19.403  19.148 -0.0592  0.2129  0.0814
51061W        W94114  13.952  34.446  25.860  0.2069  0.0503  0.1404
51062W        W94115   8.614   5.854  23.971 -0.2745  0.1233  0.0549
51063W        W94116  18.148  33.777  18.423  0.2596  0.0329 -0.0001
51064W        W94117  14.729  25.451  22.669  0.1095 -0.1116  0.2893
51065W        W94118  25.943   7.029  17.758 -0.0475  0.0609  0.3847
51066W        W94119   9.800  31.998  16.539  0.1387 -0.1862 -0.0033
51067W        W94120   4.218  18.149  13.259  0.2072  0.1206 -0.1571
51068W        W94121   1.087  25.857  27.782 -0.0468 -0.2285 -0.2274
51069W        W94122   6.727  19.255  17.045 -0.2053 -0.2976 -0.1556
51070W        W94123  16.397  32.011  18.883  0.0700 -0.1744 -0.0927
51071W        W94124  15.270  11.518  22.766 -0.1892 -0.3205 -0.0885
51072W        W94125  19.444  13.134   2.042 -0.1586  0.0507  0.2187
51073W        W94126   9.953  22.940  20.413 -0.1671  0.1175 -0.0142
51074W        W94127   2.353  17.273  20.960  0.2130  0.1489  0.2055
51075W        W94128  15.316  25.816  15.963  0.0846 -0.1920 -0.3331
51076W        W94129   9.723  10.611  18.866 -0.0594  0.2563 -0.0437
51077W        W94130  14.562  10.372   5.680 -0.2403  0.2812  0.0271
51078W        W94131   8.397   3.604  25.442  0.1206  0.2992 -0.0881
51079W        W94132   3.830  17.605  20.013 -0.0948 -0.1209  0.0988
51080W        W94133  22.124  27.496  22.184 -0.1782  0.1303 -0.0926
51081W        W94134  18.102  28.871  17.585 -0.4247  0.0031  0.4425
51082W        W94135   3.860   1.002   7.439 -0.1703  0.2053 -0.0902
51083W        W94136   5.123  29.020  20.276 -0.3578  0.0759 -0.1184
51084W        W94137  15.238   7.273  22.062  0.0152 -0.1153  0.0499
51085W        W94138   9.007  18.968  14.273 -0.2107 -0.1151 -0.1535
51086W        W94139  19.601  34.054  20.760  0.1186 -0.1031  0.0116
51087W        W94140  12.916   6.872  20.040  0.0628  0.2269  0.4063
51088W        W94141  28.152  32.904  28.117 -0.0377 -0.0607  0.0789
51089W        W94142   2.625   1.882  20.438 -0.3581  0.1531 -0.3295
51090W        W94143   3.812  21.394  25.802 -0.2970 -0.0724 -0.1895
51091W        W94144  11.361  34.476  20.883 -0.0548 -0.2294 -0.0699
51092W        W94145   3.387  32.457  16.870 -0.1241 -0.0486  0.0477
51093W        W94146  29.321  20.726  17.373 -0.0849  0.1690 -0.0106
51094W        W94147   7.461  20.813   0.226 -0.1683  0.0473  0.0706
51095W        W94148  30.976   4.407   0.723 -0.1021  0.1355  0.2970
51096W        W94149  34.296  28.843  28.345  0.0317  0.1573  0.0178
51097W        W94150  20.330   1.624  27.466 -0.1423 -0.2380  0.3882
51098W        W94151  14.695  31.625  25.595  0.4249  0.0347 -0.1297
51099W        W94152   9.545  32.287  22.717  0.1678  0.0422  0.1809
51100W        W94153  20.535  22.478  23.509 -0.4812 -0.1008 -0.1931
51101W        W94154  16.746  31.117  18.835  0.1163  0.0899 -0.1024
51102W        W94155  11.843   5.016  24.492 -0.4842 -0.1443 -0.1558
51103W        W94156   2.185  33.970  24.022 -0.0307  0.0349  0.2287
51104W        W94157  15.653  10.032  22.178 -0.3925 -0.0179 -0.2397
51105W        W94158   2.051  20.640   3.422 -0.1971  0.0501  0.1252
51106W        W94159  29.569  13.596   1.574  0.1000  0.0531 -0.2663
51107W        W94160  23.295  31.822  15.321 -0.1202 -0.2730 -0.1686
51108W        W94161  19.070  24.275   2.922 -0.0684  0.2223  0.1212
51109W        W94162  19.639   2.750   1.758  0.1732 -0.0408 -0.3759
51110W        W94163   5.057  31.878  25.913 -0.3708  0.0072  0.2927
51111W        W94164   1.699   3.047   6.178  0.0326 -0.0401 -0.0685
51112W        W94165  24.152  11.028  23.242  0.1500  0.0390 -0.1457
51113W        W94166   2.919   9.718  17.953  0.0332  0.1594  0.2528
51114W        W94167   7.318  24.219  27.425  0.0269  0.4166 -0.1060
51115W        W94168  14.803   4.289  21.343 -0.2180 -0.1067 -0.0211
51116W        W94169  29.804  18.437   5.183  0.2257  0.1083 -0.2774
51117W        W94170   5.002  22.883  23.562  0.3840  0.0237  0.1038
51118W        W94171  32.086   0.072  27.966 -0.0438  0.2452 -0.0136
51119W        W94172   0.581  31.976  20.875  0.0438  0.0946 -0.0350
51120W        W94173   2.570  23.521  27.400  0.2561 -0.0049 -0.2572
51121W        W94174   3.570   2.395   4.898  0.4730 -0.2307  0.2779
51122W        W94175   8.522   9.129   5.606 -0.2926  0.0877  0.1434
51123W        W94176  10.641  11.082  17.896 -0.0101  0.2289  0.0948
51124W        W94177  14.185  12.394  25.794 -0.1595 -0.4266  0.2811
51125W        W94178  20.601  27.018  25.385 -0.1502  0.0238 -0.0982
51126W        W94179   3.599  16.078  20.147 -0.0670 -0.0433 -0.0236
51127W        W94180  14.720  20.255  22.173  0.1373  0.1393 -0.2002
51128W        W94181   4.020  31.529  13.036  0.0296  0.1815 -0.2222
51129W        W94182   4.550  26.901   0.601 -0.0447  0.2281 -0.0092
51130W        W94183  12.154   6.997  18.861  0.1887 -0.2560 -0.2060
51131W        W94184  18.745   0.471   0.635 -0.0967 -0.0107  0.3060
51132W        W94185   8.862  20.805  15.353 -0.0541  0.2377  0.2328
51133W        W94186  19.564  32.553  22.002  0.1622 -0.0951 -0.0138
51134W        W94187   6.291  13.600  27.769 -0.2111 -0.3621 -0.3321
51135W        W94188  11.461  27.613  20.391 -0.2590  0.1951  0.2314
51136W        W94189  32.303   0.514  23.699  0.0369  0.0763 -0.1722
51137W        W94190  12.680  34.531  20.313  0.1803  0.3247  0.0196
51138W        W94191  23.784  31.541  18.819 -0.2842  0.1861  0.0252
51139W        W94192   8.247   0.491   3.506  0.3793  0.0175 -0.3070
51140W        W94193   0.035   3.892  21.492  0.1581 -0.0294  0.1925
51141W        W94194   3.326   1.426  14.903  0.0174 -0.0262 -0.0904
51142W        W94195  13.816  33.197  14.623 -0.0937  0.1917 -0.1756
51143W        W94196  21.906  34.366  17.148 -0.0702 -0.0865  0.1084
51144W        W94197   4.447  14.266  24.639 -0.2407 -0.1923  0.2703
51145W        W94198  13.261   2.172  17.206 -0.3018  0.1284 -0.1343
51146W        W94199  33.428  25.185  25.592 -0.1925  0.4340 -0.1705
51147W        W94200   7.589  33.018  27.583 -0.0705  0.0780  0.1527
51148W        W94201  14.830  11.645  21.643 -0.0132  0.1454 -0.0440
51149W        W94202   6.059  25.022  22.248  0.0283 -0.1230  0.0618
51150W        W94203  18.866   3.603  22.706 -0.2320  0.0915  0.0112
51151W        W94204  11.642   0.495   6.476  0.2675 -0.1737  0.1229
51152W        W94205  17.578   2.334  19.441 -0.0676  0.2218 -0.0262
51153W        W94206   7.707  30.800   4.407 -0.1378 -0.2648 -0.0638
51154W        W94207   7.794  33.334  28.856 -0.0588  0.4008  0.3548
51155W        W94208  15.527   0.043  17.208  0.2040 -0.2585 -0.2202
51156W        W94209   2.841   4.567  21.075 -0.0299 -0.6663  0.3440
51157W        W94210  13.674  10.134  22.075  0.1234 -0.2507  0.0730
51158W        W94211  10.630  30.682  20.190  0.0327 -0.0136  0.0582
51159W        W94212   2.355  17.807   2.778  0.1651  0.2341 -0.0125
51160W        W94213  27.808  31.514  18.307  0.1397 -0.0382 -0.2803
51161W        W94214   2.717  19.965  18.495  0.2108  0.0509  0.2132
51162W        W94215   9.183  30.144   9.435  0.1284 -0.0824  0.1034
51163W        W94216   6.346   5.839  19.750 -0.0398 -0.1191 -0.1038
51164W        W94217  27.820   5.467  17.197 -0.0441 -0.1351  0.2565
51165W        W94218  29.648  30.540  20.063 -0.2459 -0.2906 -0.2016
51166W        W94219  33.894  28.879  24.717  0.0679  0.3152  0.3742
51167W        W94220  16.068  34.521  24.142  0.0043  0.2423 -0.3975
51168W        W94221  16.572   5.066  22.164  0.0211  0.1748  0.1354
51169W        W94222  10.915   2.544   5.660 -0.0140  0.4392  0.1384
51170W        W94223   5.336  32.403  15.424 -0.0280 -0.0229 -0.1314
51171W        W94224   2.158   2.841  19.291 -0.1080  0.2200 -0.0232
51172W        W94225  10.278  30.770  16.499  0.0294  0.2717 -0.4353
51173W        W94226   7.085  29.017  20.500  0.0450  0.0093 -0.3864
51174W        W94227  13.930  15.105   6.005 -0.0527 -0.2164  0.0327
51175W        W94228  34.555  31.424  16.128  0.0114  0.2463 -0.0090
51176W        W94229   9.626   1.342  15.455 -0.0629  0.1213 -0.1960
51177W        W94230  31.223   8.852  21.751  0.1240 -0.0108  0.1001
51178W        W94231   8.844   1.172  22.754  0.2056  0.1473  0.0893
51179W        W94232  13.059   3.228   4.194  0.2387 -0.0927 -0.2709
51180W        W94233  16.819  32.427  25.072  0.0932 -0.0028  0.2385
51181W        W94234   4.888  28.629  29.133  0.0730 -0.0470 -0.2908
51182W        W94235  14.136   1.142  17.259 -0.2556  0.2863  0.0490
51183W        W94236   8.101  24.574  18.706  0.2269 -0.1862  0.0308
51184W        W94237   5.636  31.214  28.663 -0.0826 -0.0094  0.0444
51185W        W94238   4.288  34.180  16.517 -0.2115  0.1156 -0.2928
51186W        W94239   7.964  26.787  15.235  0.2188 -0.0818  0.1447
51187W        W94240  19.033  22.679  16.351 -0.1887 -0.2275 -0.0363
51188W        W94241   8.544  18.762   4.815  0.1447 -0.0673 -0.0646
51189W        W94242  11.603  22.661   3.065 -0.0039  0.2349  0.1176
51190W        W94243  21.226  12.957   3.123  0.0177 -0.1813  0.0122
51191W        W94244  25.347  26.644  17.890 -0.3384 -0.3823  0.0724
51192W        W94245   7.691  34.479  17.763  0.1701  0.1623  0.3183
51193W        W94246   8.680  22.940   6.257 -0.0461 -0.1360 -0.0382
51194W        W94247  29.805   2.683  22.953 -0.0017  0.3021 -0.2011
51195W        W94248   0.016  30.216  24.191 -0.2059  0.0705 -0.1101
51196W        W94249   5.804   6.644  23.149 -0.1962 -0.0005  0.0771
51197W        W94250   6.240  22.670  26.293 -0.1260  0.0374 -0.0209
51198W        W94251   9.985  28.880  24.895 -0.3375  0.2031  0.0274
51199W        W94252   4.920   7.850  15.837  0.1071  0.0168  0.0875
51200W        W94253  30.311  10.295  27.054 -0.0283  0.4197  0.1392
51201W        W94254  12.701   3.647  13.489  0.1517 -0.1632 -0.0857
51202W        W94255  10.106   8.189   9.321 -0.0766  0.1627  0.3350
51203W        W94256   2.219   9.291   2.824 -0.0952  0.0668 -0.2790
51204W        W94257   7.388  25.225   3.115 -0.2273  0.2469  0.1746
51205W        W94258  10.901  33.889  25.935  0.4344 -0.2572 -0.0209
51206W        W94259  34.124  21.421  18.863  0.1051  0.1422 -0.1214
51207W        W94260  18.244  30.714  17.334 -0.1004  0.1140  0.2463
51208W        W94261  23.061  28.214  22.335 -0.1702  0.0058 -0.5562
51209W        W94262  21.090   6.799   4.210 -0.2152  0.0474  0.0171
51210W        W94263   1.544   9.030   0.274  0.3599  0.1355 -0.2205
51211W        W94264  12.067  25.302  15.355 -0.0900 -0.4276 -0.1552
51212W        W94265   6.771   4.069   1.301  0.3983  0.3924  0.1194
51213W        W94266   4.492  17.137  23.374 -0.1171 -0.1152  0.3026
51214W        W94267  10.914   7.281  15.648  0.4787  0.0119 -0.3663
51215W        W94268   3.923   0.430   1.669  0.1078 -0.1593  0.0542
51216W        W94269  22.780  28.201  26.861  0.0418  0.1528  0.2040
51217W        W94270  16.299  32.831   2.789  0.0991 -0.0416  0.1686
51218W        W94271  16.621  29.456  24.931 -0.1714 -0.0100 -0.2167
51219W        W94272  31.098   5.665   1.391 -0.0840  0.0467  0.2017
51220W        W94273   4.943  17.220   4.302  0.2113 -0.0134  0.1804
51221W        W94274   5.150  19.720  22.426  0.2702  0.1770  0.1727
51222W        W94275  29.872  32.963  27.721  0.2911  0.1771  0.1112
51223W        W94276  20.595   6.317  14.696 -0.0353  0.1609 -0.0352
51224W        W94277  17.511   1.901  21.525  0.2701 -0.0049  0.1997
51225W        W94278  25.162  31.364  17.719  0.0538 -0.3357 -0.0503
51226W        W94279  14.613  22.671   0.807 -0.1332 -0.1402 -0.0040
51227W        W94280  18.262  14.808  27.305 -0.1309 -0.0501 -0.0281
51228W        W94281  29.394  19.854  20.308 -0.1062 -0.2672  0.2063
51229W        W94282   7.931   6.683   3.470 -0.2397  0.2200  0.2521
51230W        W94283   6.687  25.291  18.578 -0.3140  0.2052  0.0474
51231W        W94284  22.555  26.976   1.008 -0.3074  0.1573  0.0459
51232W        W94285  15.944   9.506  20.318 -0.1686  0.1605 -0.0659
51233W        W94286  26.547   1.375  24.399 -0.1444  0.0198  0.2502
51234W        W94287  32.003  26.079  27.621 -0.1467  0.0927  0.2983
51235W        W94288   8.831   5.142  18.208 -0.1644 -0.1568  0.1271
51236W        W94289  28.338  11.072  22.280  0.0442 -0.0083 -0.0412
51237W        W94290   5.448  30.522  27.008  0.0280 -0.0127  0.1428
51238W        W94291   5.091  17.179  17.155  0.1493 -0.1346  0.0461
51239W        W94292  18.517  12.166  14.319 -0.2101 -0.2607  0.1389
51240W        W94293  29.710   5.829  14.981 -0.1505 -0.1806  0.0258
51241W        W94294  11.539   4.190   1.153  0.1381  0.1682 -0.1158
51242W        W94295  14.660  23.188  25.581  0.4608 -0.0078 -0.0706
51243W        W94296  32.117  21.914  28.184 -0.0031  0.1734  0.0466
51244W        W94297   2.638  33.604  27.684 -0.3298 -0.0461  0.0609
51245W        W94298  18.419  22.533   6.081 -0.1255  0.0811 -0.1187
51246W        W94299   1.642  23.283   1.773  0.1433  0.0169  0.2903
51247W        W94300  26.649   7.094  26.378  0.0225 -0.2873 -0.0119
51248W        W94301   5.253  11.200  14.091 -0.0448  0.0366 -0.0441
51249W        W94302  10.239  27.989  20.190 -0.1660 -0.0228  0.1255
51250W        W94303   4.933   2.051   9.520 -0.0813 -0.0312  0.2226
51251W        W94304  13.497   1.825  18.123  0.0361 -0.0406 -0.0326
51252W        W94305   7.288   3.543  18.784  0.4978  0.4952 -0.1095
51253W        W94306  31.242  18.205  20.147  0.3276  0.1457  0.1019
51254W        W94307  16.739   9.445  22.236  0.2069  0.0640 -0.0032
51255W        W94308   1.556  26.538  23.477 -0.0194 -0.2846 -0.1060
51256W        W94309   9.854   4.285   3.072  0.0776 -0.1025 -0.1978
51257W        W94310  11.138   8.442   4.817  0.0085  0.1293  0.0003
51258W        W94311  31.704  10.583  24.910  0.0982 -0.0315 -0.1566
51259W        W94312   4.540  23.520  26.769  0.2096 -0.5265  0.0835
51260W        W94313   1.951  19.742  14.825  0.0690 -0.3084  0.2004
51261W        W94314   9.190  25.476  13.802  0.0094  0.2503  0.0357
51262W        W94315   2.367   1.347  14.694  0.1552 -0.0442  0.0254
51263W        W94316  11.395  31.099  21.148 -0.1134  0.2938 -0.2770
51264W        W94317  15.239  10.859  28.321 -0.1504  0.1744 -0.3686
51265W        W94318  30.407  30.773  24.392  0.0210  0.1049  0.0782
51266W        W94319   6.523  22.997   7.698 -0.3162  0.2307  0.0962
51267W        W94320  19.015   4.408  16.289 -0.2745 -0.1512  0.1501
51268W        W94321   7.215  23.145  24.675 -0.3137  0.0707  0.0972
51269W        W94322   8.648  25.988  22.860 -0.2006  0.2028  0.0104
51270W        W94323  12.866   1.469   3.530 -0.1338  0.2203 -0.0119
51271W        W94324  17.545   0.266  20.916  0.0474 -0.2784  0.0119
51272W        W94325   5.093  31.587  18.876  0.0517  0.0915 -0.1512
51273W        W94326  12.657   9.738   2.284  0.0887  0.1252 -0.0830
51274W        W94327  13.351   0.385  26.662 -0.0246 -0.0072 -0.1001
51275W        W94328  23.555  21.866  17.367 -0.2053  0.1102  0.1776
51276W        W94329  14.229  28.164  24.759 -0.0614 -0.0788  0.1832
51277W        W94330  10.708   5.507  19.010 -0.0142  0.2850 -0.1878
51278W        W94331   1.264  30.523  18.591  0.0454 -0.1282  0.1637
51279W        W94332  25.859   6.194  17.450 -0.0227 -0.0054 -0.0915
51280W        W94333  10.431  21.713   7.976 -0.0364 -0.0225 -0.1477
51281W        W94334  26.623  16.209  23.111 -0.4265 -0.2457 -0.0439
51282W        W94335  17.409  26.535   4.125 -0.1898 -0.1590 -0.2902
51283W        W94336  14.707   8.864  15.726  0.1056 -0.2471  0.1932
51284W        W94337  20.690   5.419  27.580  0.0615 -0.0400  0.0207
51285W        W94338  10.248   7.237  25.534 -0.2260  0.2860 -0.1822
51286W        W94339   6.481   5.648  23.748  0.0082 -0.0098  0.3050
51287W        W94340  27.908   1.197  16.459  0.1176  0.0495 -0.2677
51288W        W94341   4.592  11.102  24.240  0.0710 -0.0982 -0.2767
51289W        W94342  20.513   5.067  18.558 -0.0242  0.2468  0.1189
51290W        W94343  12.159   6.112  17.298  0.3401 -0.0234 -0.0724
51291W        W94344   1.588   7.295   4.581 -0.1426  0.0168 -0.1157
51292W        W94345   5.414  11.876   5.115  0.4564  0.0922 -0.0757
51293W        W94346   4.287  11.462  10.033 -0.0385  0.1543 -0.0946
51294W        W94347   6.581   9.738  14.855  0.0815  0.1489 -0.2871
51295W        W94348   8.264  33.454  21.830 -0.1083  0.0969  0.0164
51296W        W94349  28.345   6.634  24.158  0.1800 -0.0390 -0.0014
51297W        W94350  19.063   4.702   0.692  0.2175 -0.0805 -0.0666
51298W        W94351  16.225  33.128   2.413  0.2310  0.1604 -0.0378
51299W        W94352  12.453  27.448  14.595  0.0669 -0.0264 -0.2201
51300W        W94353  11.328   7.765  24.263  0.0569 -0.1423  0.1282
51301W        W94354  10.238  17.801  21.271  0.0881 -0.3099  0.1794
51302W        W94355  10.382  30.484  15.193  0.2323 -0.1055 -0.0732
51303W        W94356   3.591   9.278   4.640 -0.0922  0.0172  0.1364
51304W        W94357   9.832  31.133  25.255 -0.1215 -0.3213  0.0925
51305W        W94358  19.336   3.143   8.088 -0.3104 -0.1085  0.4666
51306W        W94359  20.493  15.531  25.546 -0.1103 -0.1266  0.0456
51307W        W94360  30.723   6.811   8.268 -0.1521 -0.1999  0.0939
51308W        W94361  13.257  31.038  19.084  0.1600 -0.0072  0.1966
51309W        W94362   6.777  12.028  19.511 -0.0295 -0.0422  0.0508
51310W        W94363   1.697  27.683   7.998 -0.1680  0.1364  0.2612
51311W        W94364  18.295   6.059   9.106 -0.4445  0.1198  0.2440
51312W        W94365   2.880  29.979  22.929  0.0668 -0.0349 -0.0418
51313W        W94366  13.988  12.533  18.719  0.0129  0.4943 -0.3902
51314W        W94367   9.412   1.404   2.100 -0.1621  0.1944 -0.1053
51315W        W94368   7.269   0.557  19.998 -0.0610  0.0410  0.0442
51316W        W94369   4.197   6.338   4.543  0.1784 -0.2926  0.0763
51317W        W94370   1.389  10.766  21.339  0.1602 -0.2309  0.0581
51318W        W94371   6.478  23.122  17.039 -0.0106 -0.3623  0.1035
51319W        W94372  12.553  33.428  16.513 -0.1760  0.0562  0.0005
51320W        W94373  33.603   1.691  16.840 -0.0456 -0.3160 -0.0797
51321W        W94374  11.829  30.406  28.525 -0.4611  0.0159  0.0372
51322W        W94375  12.673  17.475   3.361  0.0833  0.0083 -0.4690
51323W        W94376  11.200   6.118  24.620 -0.1357 -0.4250  0.0547
51324W        W94377  24.443   2.140  18.191  0.0814  0.1275 -0.3823
51325W        W94378  34.044  12.892  26.514  0.0791  0.2522 -0.4727
51326W        W94379  12.328   1.268   2.965  0.1624 -0.1707  0.1853
51327W        W94380  10.285  30.072   1.715 -0.0106  0.0729 -0.1300
51328W        W94381   5.131   0.584  19.929  0.1951  0.0127  0.0349
51329W        W94382  16.457  26.511  24.584  0.0767  0.0424 -0.1027
51330W        W94383   9.796   2.732  28.961 -0.1117  0.0315  0.2403
51331W        W94384  15.470   9.363   7.376  0.4489 -0.0095  0.1059
51332W        W94385   4.019   0.912   5.111 -0.1038  0.0926 -0.2497
51333W        W94386  13.965  17.000  21.919  0.2717  0.1456 -0.0009
51334W        W94387  13.000   9.092  10.636 -0.0529  0.2571  0.0976
51335W        W94388  12.934  24.628  28.615 -0.3298  0.1524 -0.1039
51336W        W94389   5.013  19.582   3.099 -0.3377  0.2841  0.1936
51337W        W94390   1.096  13.692  16.064 -0.1468 -0.2141 -0.1310
51338W        W94391  21.696  10.847  14.702 -0.0587  0.0516 -0.1429
51339W        W94392   9.027   0.760  15.762 -0.0858  0.1546  0.1447
51340W        W94393  29.724  14.368  23.325  0.0330  0.0197  0.0819
51341W        W94394   9.348  19.898  14.379 -0.3766  0.1569  0.1611
51342W        W94395   6.152  33.650  16.828  0.1156  0.0145  0.1000
51343W        W94396   4.914   4.434  17.741  0.2467  0.2578  0.1166
51344W        W94397   1.709   5.994  27.937 -0.1785 -0.1320  0.0886
51345W        W94398  20.496  23.736  16.143  0.0760 -0.1272  0.0023
51346W        W94399   7.990   0.819  17.850 -0.2057  0.0402  0.2524
51347W        W94400   2.086  11.879   8.407  0.1710  0.0933 -0.0038
51348W        W94401  34.091   1.816  14.752 -0.1914  0.1312 -0.1640
51349W        W94402  12.554  34.512   4.339  0.0908  0.0557  0.0852
51350W        W94403  13.538   4.696  26.786  0.0038 -0.0760 -0.1756
51351W        W94404   7.965   3.402  28.908  0.1876  0.2087  0.1130
51352W        W94405  12.431   5.670  23.020 -0.2083  0.0057 -0.0859
51353W        W94406   9.283  26.564  23.267 -0.3152  0.0037  0.2040
51354W        W94407  22.020  23.218  16.708  0.0711  0.0417  0.3801
51355W        W94408  14.727  11.079  21.954  0.0755 -0.2193  0.0583
51356W        W94409  34.124  23.065   8.172  0.1106 -0.0685 -0.1564
51357W        W94410   6.235   7.762  15.704 -0.3178  0.1410 -0.0649
51358W        W94411   7.954  21.552  19.088 -0.0485  0.0927 -0.0071
51359W        W94412  19.041   5.626  17.825  0.1797  0.2084  0.1226
51360W        W94413   2.646  30.808  14.101  0.0158  0.1948  0.5069
51361W        W94414   8.092   2.854  27.981 -0.0740  0.0456  0.2656
51362W        W94415  33.393  29.959  24.095 -0.1509  0.0252  0.1061
51363W        W94416  13.338  28.420   3.735 -0.1258  0.1575  0.0193
51364W        W94417  21.356  26.114  21.258 -0.1405 -0.0541 -0.0572
51365W        W94418   1.101  25.442   4.168  0.1171 -0.2217 -0.1892
51366W        W94419   8.656  18.961  23.785  0.0421 -0.2922 -0.0320
51367W        W94420  12.974  28.051  23.450  0.1797 -0.1365 -0.1375
51368W        W94421  34.123   2.620  22.727 -0.2643  0.0715  0.0291
51369W        W94422  22.057   5.104   4.353 -0.1047 -0.0878 -0.1856
51370W        W94423  17.503  17.854   4.319 -0.1044  0.0566 -0.0743
51371W        W94424   5.189  13.325  18.297  0.2074 -0.2087 -0.0219
51372W        W94425  10.471  29.185  18.047 -0.3184  0.0830 -0.1466
51373W        W94426   3.422   9.270  15.408 -0.3865 -0.1475 -0.3463
51374W        W94427  10.414   0.533   0.868 -0.1919 -0.0119  0.0633
51375W        W94428  20.489  26.870  22.677 -0.0489 -0.0180  0.4411
51376W        W94429   6.999   8.593  25.488 -0.1009  0.0050  0.0258
51377W        W94430   0.386   9.651  22.426 -0.0811  0.2887 -0.3064
51378W        W94431   3.956  24.474  17.481 -0.1594 -0.0115 -0.1857
51379W        W94432   3.386   9.837  18.690  0.0718 -0.1754  0.2013
51380W        W94433  14.406  18.073  23.849 -0.0532 -0.1023 -0.3832
51381W        W94434  15.299   2.786  15.488 -0.1140 -0.0025 -0.0473
51382W        W94435  29.482   0.318   8.662 -0.0647  0.1362 -0.1049
51383W        W94436  14.000  15.216   4.617 -0.1329  0.1421 -0.1770
51384W        W94437  12.934  25.370  21.697 -0.2610  0.0405 -0.0943
51385W        W94438  10.818  31.105  16.377 -0.2107 -0.1174  0.1740
51386W        W94439  13.669  34.311   1.823  0.0131  0.1892 -0.1007
51387W        W94440  16.100  20.592  28.292 -0.0928 -0.3402 -0.1770
51388W        W94441  15.732   8.304  24.659  0.2191 -0.0096 -0.0460
51389W        W94442  10.492  19.846  22.358  0.0267  0.0021  0.0985
51390W        W94443   8.090  32.820  18.786  0.0591  0.0914 -0.0494
51391W        W94444  18.014  33.089  26.348 -0.0194 -0.0501  0.2531
51392W        W94445   7.914   8.569  18.271  0.2110  0.4091 -0.3462
51393W        W94446   0.864  11.140  19.100 -0.0432 -0.1339 -0.0472
51394W        W94447   7.772  34.062   2.337 -0.0354 -0.1223  0.0048
51395W        W94448  26.507   8.520   2.893 -0.0039 -0.1237  0.3023
51396W        W94449   9.090  17.214  18.680  0.1300  0.3476  0.0744
51397W        W94450  27.904  31.329  16.289 -0.4701 -0.0437  0.0252
51398W        W94451  30.559  13.231   4.345  0.0903  0.4126  0.0159
51399W        W94452  10.508  23.397  17.769 -0.2811 -0.0821  0.0176
51400W        W94453   2.086  24.229   1.074 -0.1383 -0.1602  0.0243
51401W        W94454   9.197   6.392  26.997  0.2031  0.0915 -0.0137
51402W        W94455   4.074  31.041  24.883 -0.1276 -0.1477 -0.3088
51403W        W94456  26.481   0.304  17.341  0.1155 -0.2738 -0.0988
51404W        W94457  21.080   1.693   6.623  0.0066 -0.0417  0.1822
51405W        W94458   4.439  32.307  20.475  0.0661  0.1932 -0.0098
51406W        W94459  12.220   4.469  26.562  0.1901  0.2738 -0.0474
51407W        W94460  14.857  22.527  22.085  0.2454 -0.0188  0.0777
51408W        W94461   5.887  26.693  18.530 -0.4250  0.0248  0.3548
51409W        W94462   8.082  33.030  17.826 -0.1613  0.0573  0.1344
51410W        W94463  30.137  13.792  25.630  0.1116 -0.4041  0.1512
51411W        W94464  17.703   0.549  20.115 -0.1609 -0.4363  0.1003
51412W        W94465  17.925  27.749  26.904  0.0063 -0.2802  0.2352
51413W        W94466   3.190   2.172   1.668  0.0067  0.1838 -0.2052
51414W        W94467  11.795   2.794   0.911 -0.0501  0.1480 -0.0075
51415W        W94468  34.491  32.329  20.559 -0.1742 -0.1069  0.0005
51416W        W94469  27.866   9.403  20.633  0.2050 -0.0805  0.0508
51417W        W94470  12.427   0.377  18.198  0.0920 -0.3016 -0.1697
51418W        W94471  23.168  17.706  14.065  0.1122  0.5044  0.2126
51419W        W94472   3.511  11.651   5.387 -0.0821 -0.0857 -0.0052
51420W        W94473  32.405  23.034   0.696  0.0878 -0.2855 -0.0842
51421W        W94474   7.741  29.075  24.307 -0.2241 -0.0199 -0.1613
51422W        W94475  16.534   3.355   0.687 -0.0278 -0.2011 -0.0418
51423W        W94476  12.719  20.130  26.487  0.0559  0.3562  0.1255
51424W        W94477  11.719  21.051   2.987 -0.0035  0.1191  0.1840
51425W        W94478   9.318   5.159   2.187 -0.0145 -0.2514 -0.1507
51426W        W94479  25.224  33.077  27.590 -0.0649 -0.0958  0.0480
51427W        W94480   3.437   5.181  26.825 -0.3274  0.1610  0.1984
51428W        W94481   6.004  20.393   4.668  0.0881 -0.1461 -0.1817
51429W        W94482  16.784  29.232  17.695  0.0390  0.1933  0.3650
51430W        W94483  22.733   8.686  22.662  0.2270 -0.0802  0.2220
51431W        W94484  14.535   4.193   5.171  0.1209  0.0855  0.0835
51432W        W94485   7.754  11.211  21.327  0.1350  0.0952  0.0938
51433W        W94486  13.648  27.350  23.389  0.0634  0.1316 -0.0916
51434W        W94487  16.346   1.132  25.685 -0.0279  0.3552 -0.0015
51435W        W94488  10.215  32.164  17.294  0.1974  0.1802 -0.4318
51436W        W94489   3.580  15.531  26.346  0.3588  0.1488  0.0401
51437W        W94490   9.884  31.559  19.440  0.0559  0.1965 -0.2909
51438W        W94491   1.279   0.820  24.108 -0.1848  0.0280 -0.0363
51439W        W94492   6.211   3.215  18.732 -0.0983  0.2592  0.2090
51440W        W94493   7.192  13.539   8.029  0.1326 -0.0562 -0.3050
51441W        W94494  11.429  18.653  24.561 -0.1768  0.0910  0.1310
51442W        W94495   2.760  10.579   5.882 -0.0110  0.0573  0.0639
51443W        W94496   2.765  20.599  17.045 -0.0345  0.0164 -0.3161
51444W        W94497   2.466  29.121  28.738  0.1076 -0.2296 -0.0530
51445W        W94498  30.381  30.609   3.653  0.0513  0.0458  0.0707
51446W        W94499  14.287  28.450   2.844  0.0571 -0.2620 -0.0261
51447W        W94500   4.520  33.815   6.263  0.0224  0.0600  0.2364
51448W        W94501  13.545  23.719  27.332 -0.2380 -0.0042 -0.1083
51449W        W94502  11.288  16.156  27.425 -0.2191  0.0633 -0.0043
51450W        W94503  15.162   8.623  21.947 -0.0137 -0.0834 -0.0914
51451W        W94504  12.011  22.862   2.818 -0.1888  0.0826  0.0222
51452W        W94505  17.523   5.648  20.941  0.1890  0.0895  0.2782
51453W        W94506  18.241  31.998   2.874 -0.0127 -0.0441  0.1970
51454W        W94507  11.027  19.554  28.606 -0.0442  0.2040  0.2590
51455W        W94508  31.607  24.251  23.233  0.1067 -0.2820  0.0714
51456W        W94509  26.419  24.675  17.666 -0.0552 -0.0388 -0.4352
51457W        W94510   8.188  34.195  15.798 -0.2273 -0.2784  0.1461
51458W        W94511  24.629  33.242  18.950 -0.1129 -0.2760 -0.1826
51459W        W94512  19.055  32.695   2.149 -0.1773  0.0539 -0.2195
51460W        W94513  12.367   8.084   4.542  0.0482 -0.0734 -0.0164
51461W        W94514   8.235  30.258   0.115  0.0151 -0.1782 -0.3182
51462W        W94515  15.207  31.427   1.177 -0.6137  0.0556 -0.0414
51463W        W94516  10.194  33.472   4.411 -0.1619  0.3267  0.1638
51464W        W94517  32.853  27.252  19.476 -0.2509 -0.1390  0.1454
51465W        W94518  11.503  26.463   1.757  0.0318 -0.1810  0.1314
51466W        W94519   6.038   1.992   1.466 -0.0239  0.0359 -0.1929
51467W        W94520   3.290   6.020   3.529 -0.0148 -0.0464  0.0921
51468W        W94521  13.843  32.750  16.368  0.2096  0.1081 -0.2406
51469W        W94522  32.778   0.175  19.974 -0.0184  0.0354 -0.4567
51470W        W94523   1.491  26.690  19.159 -0.3290 -0.2490  0.1158
51471W        W94524  25.071   2.615   7.678 -0.0742  0.3127  0.2644
51472W        W94525  17.994   6.444  19.618 -0.0109  0.0355  0.2002
51473W        W94526  17.164   1.891   5.964 -0.0545 -0.1980  0.3039
51474W        W94527  18.481  33.093   2.095 -0.1437  0.1506 -0.1866
51475W        W94528  12.427   8.128  16.937  0.1862  0.2100  0.0170
51476W        W94529   6.305  16.900  16.958  0.2438 -0.3242 -0.0879
51477W        W94530  14.234  29.436  25.680 -0.0619 -0.1175 -0.2443
51478W        W94531   8.664  28.616  16.515  0.0052  0.1122  0.0320
51479W        W94532   9.779  30.458  15.826 -0.0957 -0.0095 -0.1416
51480W        W94533   8.087  12.626  17.397 -0.0943 -0.4518 -0.2304
51481W        W94534   3.995  25.236  25.426  0.2600  0.1450  0.0792
51482W        W94535  17.066  29.034  18.423 -0.0659  0.0414  0.0994
51483W        W94536  11.822   3.702   5.235 -0.0752 -0.1935  0.3011
51484W        W94537  11.512   6.178   2.646 -0.0175 -0.2534  0.2196
51485W        W94538   8.032  13.748  14.803  0.1063  0.2819  0.1433
51486W        W94539  27.802   6.372   0.547 -0.1733 -0.0352  0.0198
51487W        W94540   9.930  24.744  16.008  0.3106  0.2092  0.0986
51488W        W94541   4.293  22.318  23.842 -0.4108 -0.1018  0.0818
51489W        W94542   0.335  26.315  14.907 -0.0170  0.2674  0.0077
51490W        W94543  10.419  29.557  22.559 -0.1349 -0.1346 -0.0155
51491W        W94544  31.470  24.351  24.264  0.0558  0.1026 -0.1836
51492W        W94545  10.986  29.757  18.923  0.3225 -0.4254 -0.0121
51493W        W94546  31.504  32.623   9.381  0.0243  0.0049 -0.1838
51494W        W94547  21.517   8.768  21.632 -0.2953 -0.0185  0.1173
51495W        W94548  16.565   6.403  15.687 -0.3624  0.1248  0.0676
51496W        W94549   6.887  33.580   1.508  0.3621 -0.4476 -0.0415
51497W        W94550   7.837  30.227  20.415 -0.2849 -0.1295  0.0103
51498W        W94551   0.592   2.238  14.024  0.0474 -0.1647 -0.0428
51499W        W94552  15.804  32.595  22.586 -0.0354  0.2197  0.0968
51500W        W94553  18.488  10.616  23.882  0.1303 -0.1824 -0.2533
51501W        W94554   5.830  27.500  12.844  0.1874  0.2315 -0.0134
51502W        W94555  32.712  12.644   1.976  0.2535  0.1049  0.1438
51503W        W94556  20.866   3.997  28.682  0.1998  0.0166 -0.0296
51504W        W94557  14.249   7.889   3.746 -0.1654 -0.3573 -0.0771
51505W        W94558  31.749   0.573   0.945  0.1032 -0.0811  0.0361
51506W        W94559  13.306  33.122  15.969 -0.0162 -0.0510  0.0793
51507W        W94560  16.579  26.475  21.316 -0.0135 -0.2615  0.2668
51508W        W94561  10.083  32.908   9.331 -0.0273  0.0242  0.0592
51509W        W94562  16.274   9.481   1.787  0.0246  0.0328  0.0834
51510W        W94563   4.683   2.252   1.628 -0.0775 -0.4918  0.2694
51511W        W94564  11.902   5.722  20.609  0.2922  0.2118  0.2943
51512W        W94565  21.510  32.212  26.772 -0.0025  0.0722 -0.4272
51513W        W94566  15.738  33.111   6.340  0.0817 -0.0785 -0.3744
51514W        W94567   8.455  29.581  28.452 -0.1289 -0.0588 -0.2401
51515W        W94568  11.261  18.398  27.608 -0.1971 -0.1623 -0.0194
51516W        W94569  25.689  24.621   4.129  0.0694 -0.0792 -0.2144
51517W        W94570   5.265  33.219   3.418  0.0453  0.0497  0.0656
51518W        W94571   8.612   2.882  24.703 -0.2420  0.0683 -0.1811
51519W        W94572   9.967  29.648  28.392  0.1947  0.0627 -0.1590
51520W        W94573  22.612  33.906  15.190 -0.1464  0.0590  0.0974
51521W        W94574   2.981  32.658   1.345 -0.0317 -0.2140  0.1594
51522W        W94575   3.056  31.451  27.251 -0.1101 -0.0550 -0.2721
51523W        W94576   1.270   0.187  17.317 -0.0160  0.0721 -0.0809
51524W        W94577   9.896  31.344  23.903  0.0273  0.0025  0.0750
51525W        W94578   6.908  16.052  28.452 -0.0032  0.1671 -0.3566
51526W        W94579  13.941   0.553  27.874  0.1094 -0.0678 -0.5630
51527W        W94580   7.940  28.076  15.242 -0.0759 -0.1836 -0.2142
51528W        W94581  24.837   9.812   4.499  0.0114  0.3759  0.0106
51529W        W94582  24.858  23.426  27.142 -0.2484 -0.1856  0.1258
51530W        W94583  15.056  30.428   6.371  0.1553  0.0405  0.0171
51531W        W94584  14.884  26.624  27.389 -0.2541 -0.0217 -0.0343
51532W        W94585  29.107   6.320   7.100  0.1144  0.0433  0.1169
51533W        W94586  20.748   4.521  20.635 -0.2254 -0.1053  0.0264
51534W        W94587   9.199  19.366  17.940 -0.0366 -0.0015  0.1054
51535W        W94588  16.512  34.095  15.626 -0.1526 -0.3508 -0.0289
51536W        W94589  28.487  15.196  21.527  0.0734 -0.3836 -0.0360
51537W        W94590  34.678   4.799   3.788  0.1098  0.2640 -0.0730
51538W        W94591   4.709  20.163  28.949  0.0417  0.1094  0.1966
51539W        W94592  33.821   3.511   7.530 -0.1450  0.1411  0.0977
51540W        W94593  34.464  30.289  27.053 -0.1988 -0.1649  0.0549
51541W        W94594  20.930  33.564   8.074  0.3134  0.0849 -0.3973
51542W        W94595  12.371  22.483   0.513  0.2369 -0.0366 -0.0261
51543W        W94596  29.253  29.877  25.865 -0.1252  0.0697  0.2568
51544W        W94597  30.609  33.377  17.572 -0.1070  0.2161 -0.2317
51545W        W94598   9.114   4.091   9.754  0.0354  0.0264 -0.0395
51546W        W94599  29.453  26.787   5.537  0.4329 -0.2240  0.0311
51547W        W94600   2.422  32.180   5.145  0.1970  0.0509 -0.2649
51548W        W94601  29.319  28.351  23.232 -0.2046  0.0661  0.0329
51549W        W94602   0.509   3.713  15.918 -0.0945  0.3679 -0.0768
51550W        W94603   4.647   7.159  28.000  0.1106 -0.2540 -0.0727
51551W        W94604   7.182  28.918  20.003 -0.0460  0.0119 -0.1117
51552W        W94605  16.141   3.323   2.394 -0.0310  0.3396 -0.2258
51553W        W94606   2.908   6.560   2.913  0.3390  0.1614 -0.2158
51554W        W94607   9.804  22.548  28.148  0.1240  0.0432 -0.1545
51555W        W94608   4.740  31.827   0.411  0.1183  0.1984  0.1811
51556W        W94609  14.658  13.277   2.224 -0.0300  0.0554  0.0225
51557W        W94610   0.916  19.953  25.646 -0.4255 -0.1750 -0.1884
51558W        W94611   5.568  10.767   7.071  0.4382  0.1360 -0.1556
51559W        W94612   9.970   1.730  17.024 -0.1771 -0.4994  0.1226
51560W        W94613  14.663  20.274  13.849  0.2437  0.1838 -0.0616
51561W        W94614  33.270   8.244  22.452 -0.2993 -0.1303 -0.0832
51562W        W94615   3.722  27.171   6.876  0.0591 -0.3557  0.0282
51563W        W94616  15.601  14.959  25.464 -0.1395  0.2968 -0.0725
51564W        W94617   6.305  20.614  28.010  0.3872  0.0469  0.1477
51565W        W94618   9.719  23.361  28.501  0.0493  0.2100 -0.0964
51566W        W94619   1.044  20.106  14.665 -0.2483  0.2562  0.2248
51567W        W94620  12.911  26.292  25.348 -0.1579  0.1203 -0.1701
51568W        W94621  26.364  26.013  19.366  0.3092  0.1421  0.1990
51569W        W94622  21.786  13.174   5.013  0.0821  0.2794  0.1855
51570W        W94623  16.105  29.344   2.695 -0.0203 -0.2279  0.0675
51571W        W94624  24.385   9.932  18.765  0.4073 -0.2284  0.0822
51572W        W94625  25.589  30.073   1.458 -0.1262  0.0369 -0.1967
51573W        W94626  30.359   4.605  22.046 -0.1091  0.2702  0.3789
51574W        W94627  13.855  21.582  26.799 -0.1371 -0.1051 -0.0780
51575W        W94628   6.949  30.942   2.741  0.0014  0.0082 -0.1652
51576W        W94629  14.654   3.702  20.535  0.0694  0.2011  0.0736
51577W        W94630  17.236   5.562   2.689 -0.3026  0.1595 -0.4068
51578W        W94631  13.670  19.582   6.195  0.0495  0.1139  0.0523
51579W        W94632   7.032   9.488  27.245 -0.1523 -0.2328 -0.4707
51580W        W94633  13.201   5.868  27.238 -0.2779 -0.0418  0.3747
51581W        W94634   4.542  15.531  25.988  0.0073  0.0498 -0.0032
51582W        W94635  20.688  26.624   6.677  0.0563  0.1905 -0.1875
51583W        W94636  14.120  20.878  21.319 -0.0096 -0.0359 -0.2708
51584W        W94637  16.925   3.847  16.371 -0.0088 -0.2026  0.0572
51585W        W94638   1.811  32.523  25.268 -0.0808  0.1432 -0.4083
51586W        W94639   3.602  28.994  14.246  0.0521  0.0755  0.1190
51587W        W94640   9.791   9.948  24.964  0.2601 -0.2150  0.1482
51588W        W94641  11.223  30.877   1.716 -0.0338  0.0377 -0.0660
51589W        W94642   1.660  17.597   0.255 -0.3103  0.1185  0.0460
51590W        W94643   3.065   5.622   2.695 -0.0242 -0.0357 -0.0650
51591W        W94644  21.551  27.432   2.311 -0.0167 -0.2922  0.2153
51592W        W94645  20.276  28.037  17.251  0.1369  0.1170 -0.0441
51593W        W94646  26.890  18.174   5.579  0.3734 -0.4909  0.0562
51594W        W94647   2.920  33.875   9.126 -0.0909  0.0610  0.0507
51595W        W94648  16.556  16.824   6.284 -0.1495  0.2124 -0.0263
51596W        W94649   3.420  26.979  22.387 -0.1406 -0.2119  0.3121
51597W        W94650  15.800  10.241   0.476 -0.4662  0.0501  0.0674
51598W        W94651  17.271   5.990   2.953 -0.3371  0.1318 -0.1381
51599W        W94652  21.256   0.057  21.564  0.0113  0.0759 -0.1586
51600W        W94653  27.666  11.668   7.070 -0.1601  0.1412 -0.4548
51601W        W94654   4.157   0.454   2.280  0.1337  0.0850 -0.1907
51602W        W94655   8.718  27.880  24.831 -0.1326 -0.0607  0.0747
51603W        W94656  16.806  11.089  22.592  0.2417  0.3349  0.2509
51604W        W94657  20.266   5.762  16.598  0.1938  0.0620 -0.0136
51605W        W94658  27.022  11.179  20.827 -0.2083  0.1413  0.1079
51606W        W94659   0.310   6.354   8.056 -0.3378 -0.0816 -0.0679
51607W        W94660  32.968  25.675   5.118  0.1879 -0.1096  0.0222
51608W        W94661  15.604  29.004   8.163  0.1102 -0.2104  0.0872
51609W        W94662  14.244   5.938  18.478 -0.1142 -0.0548  0.2027
51610W        W94663  12.783  28.015  22.957 -0.0481  0.1267 -0.4396
51611W        W94664  12.312   9.512  18.223  0.0913  0.1789  0.0843
51612W        W94665   9.318   6.012  25.686  0.3326 -0.3189 -0.3955
51613W        W94666  19.448   5.146  26.612  0.0496 -0.2447  0.0246
51614W        W94667  17.811  14.397  22.036  0.2571 -0.1502 -0.0254
51615W        W94668   3.872  19.087   6.144  0.2163  0.1952 -0.2324
51616W        W94669   7.987  23.389  23.890  0.2012  0.2559  0.3525
51617W        W94670  13.799  33.619  16.114 -0.1164 -0.2289 -0.0383
51618W        W94671  25.598  15.269   6.821 -0.1295  0.0580 -0.3814
51619W        W94672  16.584  24.936  25.588  0.1256  0.3827 -0.3320
51620W        W94673   5.546  14.820  26.815 -0.0542 -0.0078  0.0629
51621W        W94674   7.607   9.220  22.148  0.1718 -0.1139 -0.3190
51622W        W94675  12.828   6.871   6.488  0.0947  0.1836  0.1251
51623W        W94676  26.671   9.285   1.497 -0.4641  0.0571 -0.1410
51624W        W94677  12.384  10.394  22.802 -0.1826  0.3297 -0.1273
51625W        W94678  14.325  22.507  16.988 -0.1454  0.1758  0.0202
51626W        W94679  30.856   2.512  21.853  0.2829  0.1208  0.0049
51627W        W94680   7.025  10.354   4.733  0.1882  0.3700 -0.0851
51628W        W94681  27.735   6.416  26.736 -0.1234  0.0819  0.1564
51629W        W94682   0.124  24.954  17.239  0.3504 -0.0380 -0.2539
51630W        W94683  10.199  26.850  18.675  0.1604  0.0281 -0.0803
51631W        W94684   5.464  32.833  19.559 -0.4077  0.0429  0.3055
51632W        W94685   7.022  21.195  23.075 -0.1244  0.2444  0.0988
51633W        W94686  19.038  26.679   5.547  0.0591  0.2714  0.0496
51634W        W94687  11.349  26.797  22.044  0.2070  0.0918  0.0140
51635W        W94688  26.116  27.852  22.357  0.2123  0.0880 -0.4953
51636W        W94689   0.378  27.017  15.867  0.3792 -0.0082 -0.0598
51637W        W94690  18.386   5.765   4.480 -0.2429  0.2882  0.2353
51638W        W94691  28.764   8.496  21.633 -0.1333 -0.0377 -0.1127
51639W        W94692   3.951  27.718  26.208  0.1836 -0.1697 -0.2157
51640W        W94693  20.550  29.767   4.307  0.0966  0.0469  0.4153
51641W        W94694  15.222  22.217  19.729  0.1914  0.1650  0.2607
51642W        W94695   4.002   0.956  20.650  0.0744  0.0215 -0.1053
51643W        W94696  22.572  33.545  20.046  0.0410  0.0326  0.2263
51644W        W94697  14.429  33.073  25.394  0.3723  0.2294 -0.0551
51645W        W94698   9.495  32.240  28.672  0.3842 -0.0452 -0.1908
51646W        W94699  12.372   1.671   2.117  0.0073 -0.0734 -0.2272
51647W        W94700  14.325  34.455  22.538  0.3096  0.0855 -0.2652
51648W        W94701   3.232  32.893  15.686  0.1005  0.4959 -0.0446
51649W        W94702   6.182  26.027  22.083 -0.0188  0.0389 -0.0635
51650W        W94703   6.512  31.464  14.065 -0.1983 -0.2000 -0.1316
51651W        W94704  17.435  32.367   5.881  0.2049  0.1198 -0.3162
51652W        W94705   4.891  25.030  17.070  0.2597 -0.0550 -0.0564
51653W        W94706   5.276  17.793  26.269  0.0955  0.2261 -0.1286
51654W        W94707   4.000  31.409  24.183 -0.1734  0.1115  0.0586
51655W        W94708  17.492  34.047   4.931 -0.2788 -0.2828  0.0625
51656W        W94709  23.666  33.217  17.117  0.1755 -0.0657  0.2134
51657W        W94710   3.042   3.089   4.537  0.1055 -0.0531  0.1146
51658W        W94711  28.607  16.227  25.837  0.0535 -0.3987  0.1591
51659W        W94712  25.257  14.098   8.896  0.0583  0.1778 -0.2086
51660W        W94713  13.899  23.713  24.831  0.1772 -0.2258 -0.2909
51661W        W94714  33.103  13.587   9.387 -0.0558  0.2707  0.1762
51662W        W94715   8.169   4.643   4.533  0.2776  0.2759  0.2688
51663W        W94716  18.692  20.105  22.644 -0.2423  0.0617  0.0798
51664W        W94717  10.464  34.070   3.848 -0.0137  0.2223  0.1317
51665W        W94718   8.551  30.553   6.312  0.0093  0.0822 -0.0199
51666W        W94719  11.412  29.626   3.652  0.1088 -0.0469 -0.2995
51667W        W94720  29.371   7.683   6.060 -0.3715 -0.1259 -0.3418
51668W        W94721   5.869  31.398   2.545  0.5698 -0.0311  0.0032
51669W        W94722  25.596  12.652  19.353  0.3275 -0.1982  0.1051
51670W        W94723  10.546  23.727   5.421  0.2505  0.0444 -0.1451
51671W        W94724   3.807  24.341   1.030 -0.3077  0.0818 -0.0585
51672W        W94725  16.036  15.096   2.031  0.1145 -0.2069 -0.2940
51673W        W94726  12.037  22.953  27.739  0.0959 -0.0542  0.1322
51674W        W94727  13.974   0.119  22.484 -0.1103 -0.0413 -0.2379
51675W        W94728  31.281  13.800   1.537  0.0243  0.1770  0.2455
51676W        W94729  23.069   3.656  14.884 -0.0108  0.0495  0.2415
51677W        W94730  29.377   0.768   7.315 -0.3109  0.0583 -0.1711
51678W        W94731  19.009  29.588  10.955 -0.0570 -0.1416  0.1676
51679W        W94732   9.199   8.905  23.031 -0.0904 -0.2407 -0.1942
51680W        W94733  24.428   9.337  22.734  0.1756  0.0394  0.0462
51681W        W94734   6.525   3.156   1.016 -0.0399  0.0495  0.1959
51682W        W94735   9.649  20.492  26.942 -0.0665 -0.2522 -0.1188
51683W        W94736  28.280  16.028  25.475 -0.0468  0.2506 -0.2150
51684W        W94737  15.422  25.885  26.866 -0.3304  0.0280  0.0997
51685W        W94738  15.186   1.171  24.895 -0.0109  0.2257 -0.1577
51686W        W94739  22.938  27.896  17.936 -0.0523 -0.0142 -0.0885
51687W        W94740   7.208  20.490  27.831  0.1826  0.1137 -0.0036
51688W        W94741  33.033  10.840  16.800 -0.1424  0.2004  0.0655
51689W        W94742   2.457   7.828   7.152 -0.4845  0.0084 -0.0052
51690W        W94743  25.870  19.452   8.922 -0.0327 -0.0550  0.0894
51691W        W94744  34.542  32.818   0.798  0.2526 -0.0001 -0.0916
51692W        W94745  11.697  28.279  21.266 -0.4460 -0.2180 -0.2505
51693W        W94746   0.909  29.408  13.760 -0.1001 -0.1030 -0.0256
51694W        W94747  11.066  29.847  13.061 -0.3701 -0.0959  0.1791
51695W        W94748  12.670   4.731  16.755  0.1515 -0.1015  0.1197
51696W        W94749  30.914   6.056  22.198 -0.1749  0.2529  0.0891
51697W        W94750  30.483  27.129  27.153 -0.0287 -0.0088 -0.2732
51698W        W94751   2.250  33.285  15.050  0.2155  0.1258 -0.1905
51699W        W94752  20.342  34.121   7.193  0.2152 -0.2034  0.4845
51700W        W94753   7.973  10.842  14.733  0.2113 -0.1210 -0.3372
51701W        W94754   4.024   4.017  20.941  0.3857  0.2425 -0.0219
51702W        W94755  12.967  10.802  18.172 -0.0008 -0.1795 -0.0700
51703W        W94756   4.571  10.636  23.890  0.3890  0.1774  0.1002
51704W        W94757   8.118  27.472  13.092 -0.4844  0.0244 -0.0330
51705W        W94758   9.574  27.660  17.069  0.1338  0.0573 -0.3461
51706W        W94759  28.011  10.616  24.907 -0.1587 -0.0701  0.0322
51707W        W94760  25.506   7.451  21.344 -0.0422  0.2240  0.1844
51708W        W94761   0.640   5.545  24.704 -0.2482 -0.2244  0.0937
51709W        W94762  25.788   4.245  27.660  0.2076 -0.0121 -0.4222
51710W        W94763  14.470  30.735  24.419 -0.0314 -0.0699 -0.1293
51711W        W94764  11.809  15.326  24.920  0.1535  0.2099  0.1768
51712W        W94765   1.435  32.356  14.408  0.2077 -0.0365  0.0724
51713W        W94766   8.608   7.320  15.710  0.1176  0.0775  0.1637
51714W        W94767   5.792   3.409  22.061  0.1467 -0.2816  0.2250
51715W        W94768  16.295   1.911  24.943  0.1699 -0.0943  0.0331
51716W        W94769  12.434  33.980  22.803  0.1231  0.0929  0.0210
51717W        W94770  21.404  33.203  15.142  0.1721 -0.1680  0.3924
51718W        W94771  10.689   3.385  18.993  0.0231  0.0906 -0.0642
51719W        W94772  16.994  33.275   1.946 -0.1505 -0.4048  0.3854
51720W        W94773   6.183  30.471  16.123  0.0292  0.1695 -0.2441
51721W        W94774   6.316   0.280  23.282  0.0899 -0.1915 -0.2233
51722W        W94775  14.323  30.849  25.303  0.1484 -0.0885  0.4148
51723W        W94776  16.725  13.501  14.974 -0.3608  0.0680 -0.0141
51724W        W94777   4.934  10.159  25.473  0.0552  0.1326  0.0804
51725W        W94778  33.664  13.181  17.479  0.1266  0.1757  0.1551
51726W        W94779   0.652  34.239  25.617  0.1460  0.2700 -0.0942
51727W        W94780  13.128  22.561  17.665  0.2752 -0.0535  0.1033
51728W        W94781  16.687  11.604  23.113 -0.4144 -0.4361 -0.0690
51729W        W94782  24.124  18.498  27.961 -0.1006 -0.1625  0.1729
51730W        W94783  20.946   2.667  20.479 -0.1193  0.2276  0.1661
51731W        W94784  28.960  32.396  25.171  0.1198  0.0401  0.2293
51732W        W94785   2.289   1.582  15.178 -0.0650 -0.3005 -0.2929
51733W        W94786   4.606  33.787  16.646  0.0383 -0.3388 -0.1276
51734W        W94787  13.479   7.237  16.479 -0.0756 -0.1439 -0.0808
51735W        W94788  20.426  24.236  16.359 -0.0529 -0.0650  0.1393
51736W        W94789  23.735  24.285  23.327  0.1584  0.3551 -0.2932
51737W        W94790  32.475  33.350  24.908 -0.2571  0.3706  0.0888
51738W        W94791  11.322   2.866  19.369  0.3640 -0.0752 -0.1513
51739W        W94792  31.042   2.563  17.024 -0.2175  0.1487 -0.0961
51740W        W94793  15.350  31.896  13.984  0.1227  0.0640 -0.6295
51741W        W94794   8.283   8.792  21.368 -0.0443 -0.2273  0.2105
51742W        W94795  13.793  23.663  21.345 -0.0058  0.4127 -0.0969
51743W        W94796   9.051   0.805  18.540  0.2833  0.1123 -0.0799
51744W        W94797  16.204  25.699  16.967  0.1404  0.1741  0.0984
51745W        W94798  14.533   7.451  14.864 -0.1228  0.2498  0.1588
51746W        W94799  10.478  29.082  26.115 -0.1581  0.1141 -0.0617
51747W        W94800  11.490  11.327  18.012  0.0189  0.2360  0.0571
51748W        W94801   6.784  31.220   0.469 -0.2893  0.2050  0.4624
51749W        W94802  13.949   0.325  25.872  0.3713 -0.1158 -0.2129
51750W        W94803  11.170  14.115  18.290 -0.0099  0.2876 -0.1686
51751W        W94804   9.346   2.788  14.908  0.1390  0.0747  0.0594
51752W        W94805  17.818  29.838   3.656  0.0546 -0.1428 -0.0514
51753W        W94806  20.406  33.609  20.091 -0.1519  0.1134  0.0991
51754W        W94807   2.186   4.596  19.425 -0.1331 -0.0118  0.0837
51755W        W94808  21.710  31.760  16.304  0.1785  0.2005 -0.1515
51756W        W94809   3.161  27.046  13.014  0.0320  0.1997  0.2499
51757W        W94810  15.751   6.626  19.478  0.3511  0.0671  0.2014
51758W        W94811   3.896  32.140  20.534  0.1347  0.1979 -0.0600
51759W        W94812   5.123   0.066  20.525 -0.1573 -0.0425  0.0053
51760W        W94813  11.940   1.202  18.568  0.1201 -0.1093  0.1187
51761W        W94814  17.685  14.368  14.557 -0.0966  0.1078  0.3158
51762W        W94815  13.767   1.344  15.275 -0.1063  0.2773  0.0851
51763W        W94816   5.756  24.097  15.829 -0.1488  0.4896 -0.0102
51764W        W94817  23.181  23.360  22.134 -0.1638 -0.0032  0.0987
51765W        W94818  13.033   6.969  19.058  0.0708 -0.1957 -0.1779
51766W        W94819  10.744   9.549  27.835 -0.0059 -0.1460 -0.1124
51767W        W94820   9.667  30.763  21.585  0.0105 -0.1296  0.0267
51768W        W94821   8.135  28.468  13.406  0.3895  0.0774  0.0483
51769W        W94822  16.264  25.515  28.339 -0.0566  0.0247 -0.0610
51770W        W94823   3.217  16.407  19.135 -0.1405  0.2723  0.1869
51771W        W94824  34.210  13.459  19.090 -0.1120 -0.0633 -0.2206
51772W        W94825  12.004  17.326  24.378  0.2289 -0.2311 -0.3092
51773W        W94826   8.223   0.246  21.752 -0.1906  0.1965  0.0074
51774W        W94827  11.315  11.359  15.905 -0.1160 -0.1135 -0.0065
51775W        W94828  16.756   1.087  22.178 -0.1493  0.1031 -0.1439
51776W        W94829  22.601  34.571  16.291  0.2061 -0.0795  0.0279
51777W        W94830  14.107  31.589   6.372 -0.1338  0.1557  0.0334
51778W        W94831  23.875  27.925  25.230 -0.0829  0.1463  0.0259
51779W        W94832  15.473   5.043  16.588  0.4309 -0.1343  0.0701
51780W        W94833  32.796  12.670  18.305  0.2098 -0.4652 -0.0979
51781W        W94834  31.421  26.425   4.524 -0.1841 -0.3170  0.3060
51782W        W94835  24.770  18.547  24.104  0.2869  0.1998 -0.0722
51783W        W94836  26.366  19.096  16.920  0.2876 -0.1231 -0.0545
51784W        W94837  20.557   0.723  17.171  0.1446  0.1159  0.0670
51785W        W94838  34.478  29.912  22.029 -0.1436 -0.1808 -0.0684
51786W        W94839   3.125  30.353   2.207 -0.2376 -0.0377  0.1714
51787W        W94840  19.146   9.308  16.514  0.1539 -0.0811  0.0051
51788W        W94841   7.964  28.635  14.168 -0.3028  0.1361 -0.2086
51789W        W94842   8.777  13.895  27.921 -0.2203 -0.2376  0.3574
51790W        W94843  22.709   2.905  18.053 -0.1050  0.2856  0.1505
51791W        W94844   9.981  32.849  24.185  0.0535  0.0185 -0.4206
51792W        W94845  19.043  28.883  23.705  0.0529 -0.2462 -0.2581
51793W        W94846  12.918   5.189  17.013 -0.0451  0.3630 -0.2179
51794W        W94847  28.215  33.517  14.730 -0.0057 -0.0240 -0.0955
51795W        W94848   4.364   0.752  18.937  0.1668 -0.2084 -0.1160
51796W        W94849  18.804  28.910  21.673 -0.3004 -0.1350 -0.0768
51797W        W94850  12.285   5.610  21.901  0.3688 -0.0557  0.0348
51798W        W94851  17.007  30.826  26.782  0.0181  0.1576 -0.1811
51799W        W94852  23.813   2.535  23.230  0.0295 -0.0274 -0.0677
51800W        W94853   0.338  14.973  22.390 -0.0732  0.1396 -0.3712
51801W        W94854  13.594   5.322  14.469 -0.1158 -0.0684  0.1845
51802W        W94855   7.360   9.038  23.052 -0.0845  0.0732 -0.0173
51803W        W94856  31.727   1.007  18.688  0.2219  0.4455 -0.1047
51804W        W94857  32.599   0.296   7.842  0.2597  0.3133 -0.1899
51805W        W94858  15.211  11.023  16.435 -0.1932 -0.3563 -0.1923
51806W        W94859  17.530  32.257  25.234  0.1718  0.1475  0.2860
51807W        W94860  24.521   2.737  28.429 -0.0612  0.2501  0.2728
51808W        W94861  10.244  33.355  20.855 -0.3418 -0.1911  0.1154
51809W        W94862  21.077   9.922  27.358 -0.1370 -0.0867  0.3640
51810W        W94863   6.319  19.295   0.226  0.1278  0.1011 -0.0313
51811W        W94864  16.219  19.406  15.809 -0.0398  0.0233  0.3020
51812W        W94865  15.184   2.442  21.967 -0.0396 -0.0355  0.0791
51813W        W94866  15.218  24.055  18.457  0.0646 -0.1821 -0.3975
51814W        W94867   8.608   0.009  26.219 -0.0971 -0.2604  0.2814
51815W        W94868  23.747  31.311  20.602  0.1365  0.0726 -0.1720
51816W        W94869  19.938  34.260   1.972  0.0772  0.3392  0.1443
51817W        W94870  11.101   3.094  27.610 -0.3180 -0.3576  0.0658
51818W        W94871   1.678  17.682  28.676  0.1095 -0.0826  0.2010
51819W        W94872  14.518  28.403  17.468 -0.1102  0.1100  0.2439
51820W        W94873   8.186  18.814  13.242 -0.0484  0.3914  0.4070
51821W        W94874  25.991   3.932  18.183 -0.0105  0.1219 -0.2150
51822W        W94875  19.509   4.367  25.481 -0.1464 -0.0318  0.1487
51823W        W94876  12.511   1.564  15.366  0.1012  0.1052  0.1213
51824W        W94877   1.433  17.917  29.034  0.1474  0.1067  0.0279
51825W        W94878   9.670   4.405  20.607 -0.2004  0.0333 -0.3022
51826W        W94879  15.077  21.384  17.084 -0.1076 -0.1213  0.1051
51827W        W94880  31.125  25.659  14.581 -0.0959 -0.1836  0.0749
51828W        W94881  10.879   5.494  22.421 -0.4129 -0.1188 -0.1831
51829W        W94882   7.096   4.336  20.507 -0.0216  0.1023 -0.1330
51830W        W94883  14.511   3.014  21.804 -0.1878 -0.0857  0.3684
51831W        W94884   7.244   1.892  22.800 -0.2040 -0.1112  0.0448
51832W        W94885  14.518  30.470  16.316 -0.1049  0.0706 -0.2767
51833W        W94886   4.592  33.567  25.177  0.0038 -0.2149  0.1257
51834W        W94887  19.288  32.097  16.534 -0.1119  0.2176 -0.2991
51835W        W94888  17.188  14.359  28.908 -0.0102  0.4440  0.1259
51836W        W94889  13.589   3.235  19.137  0.2410 -0.0214  0.1784
51837W        W94890  23.877   4.352  27.627  0.2478  0.2274  0.0407
51838W        W94891  10.760   9.293  10.577 -0.0384  0.0184  0.3975
51839W        W94892  14.190   6.069  27.543  0.1898  0.0562 -0.0544
51840W        W94893  15.197  34.324  25.657 -0.1326 -0.0489 -0.2502
51841W        W94894  10.665   4.182  20.708  0.0010 -0.1829  0.0862
51842W        W94895   1.626  30.826  21.161  0.1108 -0.1374 -0.0965
51843W        W94896  15.994   3.521   1.558  0.2403 -0.0173  0.4326
51844W        W94897  17.317  31.878  18.536 -0.5054 -0.1537  0.0499
51845W        W94898   9.609  33.345  20.083  0.1952  0.3351 -0.3180
51846W        W94899   2.815  31.427  14.065  0.2237 -0.2296 -0.1867
51847W        W94900  19.850  24.765  27.926  0.0277 -0.3067  0.1603
51848W        W94901  13.946  27.886  19.012  0.0306 -0.0725 -0.3053
51849W        W94902  15.595  28.174  26.499 -0.1118 -0.2321  0.3207
51850W        W94903  13.530   1.498  20.968  0.1837 -0.1473  0.1092
51851W        W94904   9.870  16.065  20.039 -0.0195 -0.0653 -0.0509
51852W        W94905   2.166  28.477  18.312 -0.2246 -0.0918 -0.0811
51853W        W94906  22.781   5.336  16.924 -0.0736 -0.2962 -0.0659
51854W        W94907  15.409  30.422  16.454  0.2817 -0.1784 -0.2641
51855W        W94908  18.521  13.223  20.376 -0.0543  0.1300  0.3004
51856W        W94909  20.427  13.471  13.096 -0.1486 -0.1508  0.1966
51857W        W94910   7.702  31.335  25.873  0.2941  0.2222 -0.1310
51858W        W94911  21.281   8.549  16.811  0.1001  0.0066 -0.2241
51859W        W94912  12.561   8.098  20.504 -0.0313 -0.1062 -0.0443
51860W        W94913  10.958  25.877  24.646  0.1081 -0.1218 -0.1223
51861W        W94914  14.728  19.951  27.790  0.1949  0.2638 -0.0552
51862W        W94915   3.423   7.950  14.241 -0.0169  0.1775 -0.2764
51863W        W94916  30.241  24.872  21.169 -0.0832 -0.1639  0.1223
51864W        W94917   7.773  26.751  23.154  0.1281 -0.0272 -0.1180
51865W        W94918  19.396  23.575  26.322 -0.2533  0.1131 -0.0044
51866W        W94919   6.763   9.861  17.017  0.0527  0.3738 -0.1065
51867W        W94920  15.421  14.946  16.280  0.2303  0.2274  0.1070
51868W        W94921  25.644   8.395   5.868  0.0509 -0.0713  0.0721
51869W        W94922   5.502  31.610  13.447 -0.1029 -0.2207 -0.0069
51870W        W94923   7.674  32.255  16.947  0.0322  0.0470  0.3925
51871W        W94924  23.404  33.003  27.163 -0.0182  0.3517 -0.1887
51872W        W94925  24.052   8.008   8.275  0.1646 -0.3106 -0.0708
51873W        W94926   8.248   8.972  17.819  0.0684  0.1492 -0.0002
51874W        W94927   9.929   2.360  23.134  0.2837  0.1000 -0.1756
51875W        W94928  31.327  34.221  20.216  0.1053  0.0078  0.4138
51876W        W94929  25.474   7.582  19.906  0.0827  0.1946 -0.1513
51877W        W94930   9.285   7.209  20.779 -0.2914  0.1475 -0.3349
51878W        W94931   4.236   9.990  23.551 -0.1101  0.1309 -0.4662
51879W        W94932  22.970  24.330  15.387  0.0283  0.5030 -0.0232
51880W        W94933   9.990  19.909  15.603  0.2272 -0.1242  0.3213
51881W        W94934   3.757   8.058  18.139  0.3193 -0.2812  0.0028
51882W        W94935  24.100  25.356  15.865 -0.1400 -0.0872 -0.3314
51883W        W94936   2.021  31.086  16.099  0.3248  0.2617 -0.2106
51884W        W94937  28.772   0.317  19.814 -0.0756  0.1233  0.1699
51885W        W94938   2.942  14.981  19.037  0.0008  0.4483  0.0384
51886W        W94939  17.613   5.326  16.445  0.0310  0.0379 -0.2934
51887W        W94940  20.220   3.210  18.321  0.1001 -0.1782 -0.2552
51888W        W94941   5.177  33.719  20.330  0.2996 -0.2109  0.0398
51889W        W94942  28.449  28.190  28.058  0.1622  0.0980 -0.0880
51890W        W94943  11.687  30.815   0.944  0.0934 -0.1599 -0.1718
51891W        W94944  17.449  32.674  23.712 -0.0600 -0.2473 -0.0540
51892W        W94945  18.568   1.073  19.218 -0.0262  0.2296 -0.0373
51893W        W94946   5.724  32.748   9.617  0.1018  0.1197  0.0367
51894W        W94947  22.289   2.743  15.761  0.0963  0.0964  0.1866
51895W        W94948  16.183  27.388  18.032 -0.1663  0.1464  0.0387
51896W        W94949   1.920   4.657  15.686 -0.2968  0.0561  0.0175
51897W        W94950  24.288   4.733  24.559  0.0747  0.0950  0.0841
51898W        W94951  18.218   0.349  16.881  0.2408 -0.0403 -0.0521
51899W        W94952  13.947  33.577   8.684  0.0561  0.1031 -0.0690
51900W        W94953  32.757  25.415  18.755  0.0340 -0.0428 -0.2149
51901W        W94954  21.612   4.648  13.268  0.0205 -0.0439  0.4749
51902W        W94955  14.359  15.279  28.884  0.0396 -0.2546 -0.0263
51903W        W94956  24.653  12.562  14.366 -0.2797  0.1495 -0.1227
51904W        W94957   1.878  30.773  23.020 -0.3053 -0.3154  0.1559
51905W        W94958  17.598   4.419  19.611 -0.2323  0.0195  0.1178
51906W        W94959  24.683  31.261  18.500 -0.0439 -0.0844 -0.2523
51907W        W94960   5.342   3.241  27.183  0.1831  0.0090  0.0896
51908W        W94961  18.126  32.234   2.329 -0.0101  0.0412  0.0661
51909W        W94962   7.101  30.215  13.909 -0.1117  0.0466  0.1696
51910W        W94963  23.739  12.237  18.570 -0.0290  0.2337  0.1228
51911W        W94964   0.493   2.126  16.984  0.1021  0.0579 -0.1734
51912W        W94965   4.867  14.967  18.222  0.1168  0.5220 -0.2658
51913W        W94966   7.355  30.235  22.046 -0.0105  0.0367  0.4589
51914W        W94967  20.624  28.393  27.428 -0.0128  0.1180 -0.1284
51915W        W94968  20.069   2.392  22.412 -0.1249  0.1732  0.2455
51916W        W94969  10.739   4.866  21.703 -0.1673  0.1449  0.2501
51917W        W94970  19.471   4.251  21.748  0.0353  0.1871 -0.1450
51918W        W94971   0.839   6.647  22.818 -0.1949 -0.1232 -0.0748
51919W        W94972   6.747   4.056  16.450  0.1104 -0.2485  0.0400
51920W        W94973   8.417   1.665  16.411 -0.4370  0.4344  0.1647
51921W        W94974   3.105  10.257   1.716  0.0404  0.0539  0.0529
51922W        W94975  30.262  26.097  24.599 -0.2981 -0.0391 -0.2167
51923W        W94976  11.272  20.624  15.324 -0.0149 -0.0628  0.2756
51924W        W94977  11.370   0.308  24.219  0.3880  0.1245 -0.0942
51925W        W94978   5.207  10.025  14.644  0.1983  0.0732  0.1427
51926W        W94979  10.051  28.223  22.463  0.2407  0.1759 -0.1544
51927W        W94980  26.307  31.921  17.832  0.0434 -0.0127 -0.4171
51928W        W94981  20.208   7.350  24.554 -0.2126  0.0607  0.2767
51929W        W94982  18.287  15.810   0.100  0.2001 -0.3955  0.0667
51930W        W94983   3.681   7.244  19.894 -0.1246  0.1307 -0.1142
51931W        W94984  10.429   2.281  19.529 -0.2862  0.1466  0.2425
51932W        W94985  16.083   0.309  16.192  0.2818 -0.3220 -0.2269
51933W        W94986  15.815  19.688  15.849 -0.0080  0.1101 -0.1353
51934W        W94987  22.476  19.528  20.045 -0.1486  0.3152 -0.0082
51935W        W94988  29.528  31.748  25.488 -0.2723  0.1053 -0.0338
51936W        W94989   6.261   4.502  20.416 -0.1392  0.2336  0.0287
51937W        W94990  19.143  12.782  19.642 -0.0023 -0.2054 -0.0100
51938W        W94991  21.760   9.077  10.066  0.1302  0.0069  0.0710
51939W        W94992  26.244  31.968  19.831  0.1401  0.1143  0.2293
51940W        W94993  22.237  27.412  24.095 -0.0418  0.1337 -0.1766
51941W        W94994  26.141  29.410  24.499 -0.2341  0.1417 -0.3118
51942W        W94995  12.693   5.687  19.288 -0.2760  0.2184 -0.0717
51943W        W94996  10.117  25.042  20.746 -0.0576 -0.1668 -0.0687
51944W        W94997  13.468  27.503  14.717  0.0830 -0.2888 -0.2309
51945W        W94998   4.849  10.177  23.203  0.4786  0.0581 -0.0058
51946W        W94999  11.023  14.746  21.568 -0.3716  0.2942  0.2414
51947W        W95000  17.314  29.471  17.538  0.1868  0.0063  0.2091
51948W        W95001   9.826  23.054  24.655  0.1138  0.0169  0.0509
51949W        W95002  25.591   4.693  14.035  0.1063 -0.1626 -0.0399
51950W        W95003   7.200  34.388  18.571  0.1818 -0.0935 -0.0126
51951W        W95004   3.771   7.946  28.013 -0.0550  0.0249  0.1483
51952W        W95005  16.449  28.599  28.054 -0.0197  0.0241 -0.2276
51953W        W95006   4.039   1.949   1.899  0.1244  0.2045 -0.0720
51954W        W95007  24.400  32.215  15.166  0.1483  0.0198  0.2828
51955W        W95008  20.102   3.496  24.675 -0.0251  0.0303 -0.0743
51956W        W95009  24.215  30.718  13.940 -0.1482 -0.0265  0.1558
51957W        W95010  31.065  27.965  13.867  0.1002  0.1264 -0.1433
51958W        W95011  26.681   9.038  15.981  0.1155  0.3007  0.0789
51959W        W95012  32.701  13.590  19.432 -0.0228 -0.4299  0.1917
51960W        W95013  26.703   0.010   0.330 -0.1457  0.0804  0.1429
51961W        W95014   9.309   6.841  28.429 -0.0756 -0.1086  0.1132
51962W        W95015  18.070  33.908  19.640 -0.0984 -0.1065 -0.0932
51963W        W95016   6.397   0.571  16.824 -0.1179  0.1060  0.0348
51964W        W95017   6.979  28.088  14.083 -0.3427  0.0679 -0.2449
51965W        W95018   3.176  30.992  19.016 -0.0589  0.0686  0.0910
51966W        W95019  29.035  23.050  15.231 -0.0370 -0.2252 -0.2442
51967W        W95020  28.041  30.488  17.742  0.3009  0.1323  0.0275
51968W        W95021   9.856   6.158  19.106 -0.1583  0.0607 -0.1544
51969W        W95022  22.680   6.820  17.191 -0.2010  0.2147  0.1879
51970W        W95023  16.660   2.972  26.882 -0.0008  0.0872 -0.1125
51971W        W95024   0.257  30.583  16.992 -0.1090  0.0309 -0.0799
51972W        W95025  16.620   3.366  17.324  0.1588 -0.2142  0.3426
51973W        W95026   8.308  27.374  13.976  0.1020 -0.0188  0.4815
51974W        W95027  27.760  14.211  15.241  0.1479  0.1038  0.1853
51975W        W95028   1.478   3.063  16.515 -0.0181 -0.1027 -0.0249
51976W        W95029  33.012  14.203   8.470  0.0605 -0.1922  0.0150
51977W        W95030   5.896   1.123  19.954  0.1154  0.1240  0.1496
51978W        W95031  13.731   2.403  23.749 -0.2265 -0.2194 -0.0127
51979W        W95032  27.009  12.525  27.475 -0.2771 -0.0954  0.0162
51980W        W95033  19.499  27.332   1.305  0.2505  0.0822  0.1102
51981W        W95034   2.450   5.223   0.324 -0.1222  0.0601  0.1143
51982W        W95035   8.799  25.587  14.049 -0.3664 -0.0933 -0.0107
51983W        W95036  15.572  17.375  16.069 -0.2330 -0.0273  0.3603
51984W        W95037  11.138   7.528  25.190 -0.3948  0.4711 -0.0835
51985W        W95038  16.766  34.054   4.250  0.0440  0.0914 -0.1519
51986W        W95039  14.661   3.424   1.736 -0.1643  0.1957  0.1555
51987W        W95040  21.654   1.897  15.513  0.2778 -0.2214  0.0538
51988W        W95041   6.671   1.916  14.225 -0.0206  0.0163 -0.1985
51989W        W95042  24.878   0.183  23.583 -0.0310  0.1596 -0.0885
51990W        W95043  15.417   9.411  19.339  0.1817 -0.0927  0.2064
51991W        W95044   9.366  20.115  15.958  0.2008 -0.0734 -0.1819
51992W        W95045   5.285  10.241   6.291 -0.0197  0.1469  0.1809
51993W        W95046  12.624  15.062  22.471 -0.0429 -0.3143  0.1392
51994W        W95047  22.295  14.481  18.690  0.4405 -0.4481 -0.0874
51995W        W95048   3.040  31.627  15.475 -0.0228  0.0860 -0.0376
51996W        W95049   8.952   6.031  24.269 -0.6453  0.0498 -0.0781
51997W        W95050  12.796  30.195   0.078 -0.0393 -0.4061 -0.1465
51998W        W95051   1.424  15.792  29.050 -0.0063  0.0128 -0.0557
51999W        W95052  14.715  25.588  18.192  0.0985  0.0518  0.0912
52000W        W95053  24.442  22.509  16.723 -0.1565  0.0649  0.1039
52001W        W95054  14.314   7.134  19.248  0.0602  0.0200 -0.3040
52002W        W95055  33.079  16.527  20.709  0.2231  0.1673 -0.0789
52003W        W95056  19.707  32.599  18.678 -0.1986  0.1896 -0.1133
52004W        W95057  34.636   4.191   3.710 -0.1096  0.0756 -0.1264
52005W        W95058   4.671   0.938  18.556  0.3423 -0.3364  0.1463
52006W        W95059   1.985   5.557  23.510  0.0693  0.1597  0.0151
52007W        W95060  25.881  32.012  24.565 -0.1738  0.1182 -0.1501
52008W        W95061   4.678   3.301  24.449  0.2848  0.4005  0.0018
52009W        W95062   4.717  32.805  21.210 -0.0439  0.3152 -0.0735
52010W        W95063   5.905   6.638  16.098 -0.1323 -0.1590  0.1212
52011W        W95064  18.778  34.057  20.374 -0.1784 -0.1327  0.1313
52012W        W95065  23.153  18.315  21.523  0.0797  0.2265 -0.0714
52013W        W95066   6.083  33.716  24.665 -0.2156 -0.0260 -0.2812
52014W        W95067   8.331  34.484  19.000  0.2748  0.2727  0.0146
52015W        W95068   3.969   6.709  26.329 -0.2752  0.0325 -0.2322
52016W        W95069  12.209   1.912  19.838 -0.3317 -0.0328 -0.0547
52017W        W95070   4.259  30.187  26.082 -0.0901  0.0846  0.0604
52018W        W95071  28.964  28.800  16.219  0.1102 -0.2468 -0.1292
52019W        W95072  23.307   8.053  15.263 -0.1833  0.0702  0.1532
52020W        W95073  20.375  23.945  18.174  0.2318  0.1432 -0.0667
52021W        W95074  34.064   3.883  22.341 -0.0452 -0.0877 -0.0584
52022W        W95075  20.540   1.008  24.671  0.1571 -0.1137 -0.4285
52023W        W95076   6.675  33.998  19.727  0.0391  0.2133  0.1439
52024W        W95077  15.078  20.903  14.458  0.0313 -0.0528 -0.1671
52025W        W95078   8.724  18.762  16.481 -0.1077  0.1090  0.0463
52026W        W95079  14.430  26.996   0.388 -0.0389 -0.3692  0.0572
52027W        W95080  13.594  26.608  19.066  0.1141 -0.2121 -0.0111
52028W        W95081   7.933  15.075  16.695  0.0061  0.3163 -0.0155
52029W        W95082  22.495  32.126  19.298 -0.0827  0.4507 -0.1181
52030W        W95083  17.025   4.302  27.134  0.3546 -0.0006  0.0448
52031W        W95084   9.475  29.033  16.982  0.0885  0.0727 -0.2617
52032W        W95085  32.365   8.081  25.214 -0.0264  0.3324 -0.0184
52033W        W95086  21.579  30.707  28.693  0.0590 -0.0219  0.1387
52034W        W95087   4.974  25.609  28.621  0.1152  0.0879 -0.1783
52035W        W95088  23.542  19.406  17.939 -0.1262  0.1695  0.1486
52036W        W95089  16.898  24.933  19.106  0.2718  0.1463 -0.0852
52037W        W95090  13.603   9.751  18.238 -0.2131 -0.1030  0.0672
52038W        W95091  22.632  17.055  23.181 -0.1906 -0.0608  0.4018
52039W        W95092   7.961   1.996  26.524 -0.1915  0.2149 -0.0138
52040W        W95093  12.630   2.027  13.636 -0.2492 -0.1977 -0.1250
52041W        W95094  21.173  33.614  15.204  0.1594 -0.0914 -0.2772
52042W        W95095   1.928  11.600  16.810  0.0680 -0.1627  0.3417
52043W        W95096   5.112  28.829  16.533  0.0875  0.0499  0.2681
52044W        W95097  15.386   1.091  17.588  0.1427 -0.2283 -0.0367
52045W        W95098  16.051  33.373  19.148 -0.1608 -0.4001  0.0711
52046W        W95099  27.163   3.523  15.330 -0.0992 -0.0583 -0.1251
52047W        W95100   6.230   5.483   2.157 -0.1711  0.2063 -0.0413
52048W        W95101  10.806   7.414  24.755  0.0046  0.0942 -0.0785
52049W        W95102  14.765   6.216  19.100 -0.0663  0.0404 -0.1747
52050W        W95103   0.184  31.344  22.073  0.1226  0.1359  0.2558
52051W        W95104  11.634   6.363  25.727  0.1820 -0.0352 -0.2409
52052W        W95105  14.598  20.648   4.874 -0.0735  0.0733 -0.1645
52053W        W95106  14.245  29.070  19.414 -0.1752  0.0521  0.0547
52054W        W95107   9.498   1.585  20.357 -0.1956 -0.4565 -0.2691
52055W        W95108   3.912   0.595  22.141 -0.1542  0.0252  0.0165
52056W        W95109   5.769  33.646  16.249  0.2678 -0.0509 -0.0821
52057W        W95110   2.304  13.230   4.853 -0.0633  0.0717  0.1360
52058W        W95111  10.453   3.687  20.861 -0.1227 -0.0840 -0.2876
52059W        W95112   2.540  21.411  18.114 -0.2949  0.1427 -0.1780
52060W        W95113  14.459   6.583  24.264  0.0228  0.2479  0.0932
52061W        W95114  28.769  30.793  13.199 -0.1119  0.0906  0.1543
52062W        W95115  13.442  28.919  21.595 -0.2559 -0.2074 -0.2580
52063W        W95116   9.461   2.567  23.302 -0.3157  0.1718 -0.0996
52064W        W95117  15.270  30.915   9.139 -0.1759  0.0560 -0.1343
52065W        W95118  13.678  28.309  16.548 -0.0804 -0.3773  0.0408
52066W        W95119  16.624   7.884  16.577 -0.0654  0.4350  0.1639
52067W        W95120   8.926  33.119  21.195 -0.0921  0.0204 -0.1754
52068W        W95121   7.334  18.798  24.838 -0.1500  0.1574  0.0428
52069W        W95122  10.532  17.520  19.319 -0.1729 -0.0318 -0.1747
52070W        W95123  21.304  20.186  21.443  0.1170  0.0285  0.1711
52071W        W95124  11.253   9.194  16.006  0.1279  0.0250  0.0831
52072W        W95125   6.700   7.454  16.802 -0.2965 -0.0835 -0.1925
52073W        W95126  10.626  31.523  27.618 -0.0227 -0.1509  0.3139
52074W        W95127  14.456  19.042  16.986  0.2674  0.0899 -0.0872
52075W        W95128  24.619  14.850  23.428  0.0593 -0.1214  0.0813
52076W        W95129  17.889  28.622  15.628 -0.2885  0.1038  0.0510
52077W        W95130  19.477  11.340  22.138 -0.2731  0.2670 -0.1752
52078W        W95131  11.255   6.050  25.857  0.0148 -0.1362  0.0510
52079W        W95132   4.994   3.627  16.622  0.1023 -0.2825 -0.0009
52080W        W95133   4.243  26.731  28.284 -0.1008  0.0276 -0.0202
52081W        W95134  18.191  11.910  26.811 -0.0448 -0.1012  0.2542
52082W        W95135   8.223  26.178  14.479 -0.2143 -0.0590  0.2052
52083W        W95136  17.478  33.157   2.598 -0.0827 -0.1488  0.2154
52084W        W95137  13.043  19.984  15.913 -0.2763  0.1734  0.2458
52085W        W95138  28.765   7.586  26.079 -0.1859  0.1479 -0.0598
52086W        W95139  29.581  13.835  21.931  0.1408 -0.1968 -0.0722
52087W        W95140   5.355  21.942  21.034 -0.2749 -0.1391 -0.3647
52088W        W95141  11.823  29.916  15.295 -0.2241  0.1882 -0.0146
52089W        W95142  15.344   8.877  23.133 -0.0566 -0.1622 -0.0249
52090W        W95143  27.641   2.361  26.201 -0.1999  0.0279 -0.0114
52091W        W95144  19.289   4.260  21.267 -0.1044 -0.1053  0.4383
52092W        W95145  11.672  34.437  21.929  0.0358  0.0422 -0.0036
52093W        W95146  30.880   8.218  14.839 -0.0106 -0.1646 -0.2437
52094W        W95147  20.461   4.603  25.192 -0.3377  0.4771 -0.2617
52095W        W95148  16.176  33.169  17.133  0.0988 -0.0649 -0.4592
52096W        W95149   4.850  14.189  28.745  0.2085 -0.2641  0.0329
52097W        W95150   8.037  20.245  14.875  0.0880 -0.1664  0.1192
52098W        W95151  34.351   5.629  19.689 -0.1425 -0.2831  0.0166
52099W        W95152  31.840   6.510  20.833  0.2355  0.1550  0.0149
52100W        W95153   5.916   6.057  27.266 -0.0637 -0.0897  0.2584
52101W        W95154  18.788  30.586  18.069 -0.1288 -0.1921 -0.0927
52102W        W95155  28.752  16.827  20.037 -0.1247 -0.2339  0.1245
52103W        W95156  29.539  10.202  17.033  0.0479 -0.1712  0.1918
52104W        W95157  14.507   7.532  23.966  0.1226  0.0910 -0.1897
52105W        W95158   8.806   2.671  20.092  0.1812  0.0033 -0.3516
52106W        W95159   9.478  28.416  20.088  0.1800  0.3111 -0.1849
52107W        W95160  19.473  12.468   1.401  0.2797  0.0286  0.3803
52108W        W95161  19.303   0.171  22.729  0.1964 -0.2014  0.1802
52109W        W95162  15.403  26.459   0.903 -0.4191 -0.3271 -0.4688
52110W        W95163  34.423   1.533  15.076 -0.1463  0.0233  0.0247
52111W        W95164   7.088   0.876   6.566 -0.0734 -0.0075  0.3077
52112W        W95165   5.350   0.610  13.428 -0.2486  0.0832  0.0571
52113W        W95166   7.022  31.178  17.627 -0.1938  0.0908 -0.1033
52114W        W95167  18.503   2.726  18.676 -0.1207 -0.3211  0.0193
52115W        W95168  24.792  20.788  18.698 -0.0754  0.0759 -0.0761
52116W        W95169  34.070  28.593  20.778 -0.0993  0.1380  0.0427
52117W        W95170  25.792  11.106  23.633 -0.3140 -0.1827 -0.1686
52118W        W95171   3.588   8.573  21.605 -0.1104 -0.3586  0.1402
52119W        W95172  28.447   8.944  24.498  0.1045  0.0409 -0.0500
52120W        W95173  21.038  27.627  19.570 -0.0106 -0.0813  0.0408
52121W        W95174  13.050  17.807  16.586 -0.0957  0.1509  0.0865
52122W        W95175  14.329  21.477  26.638  0.0972  0.1089 -0.3664
52123W        W95176   0.088   3.543   3.640  0.0209  0.0852  0.1937
52124W        W95177   6.389  18.667  15.288 -0.1777  0.0086 -0.0821
52125W        W95178   7.941  30.719  19.594 -0.3524  0.1541  0.1867
52126W        W95179  26.439  24.047  15.877 -0.2158 -0.1098  0.1496
52127W        W95180   7.714   4.095  25.166  0.0924 -0.1010 -0.0389
52128W        W95181  14.122   7.588   1.443  0.1917 -0.2871  0.2597
52129W        W95182  15.120   9.484  24.895  0.4085  0.0844  0.1923
52130W        W95183  18.440   8.441  28.288  0.4608  0.0251 -0.1220
52131W        W95184  15.343   3.191  21.504 -0.3815  0.2094 -0.1280
52132W        W95185   6.070   4.039  25.028  0.0176  0.1303  0.0353
52133W        W95186  31.004   0.604  13.532  0.0149 -0.0402 -0.3820
52134W        W95187  25.384   2.434  24.017  0.0961  0.0181  0.1264
52135W        W95188  12.314   7.743   5.311  0.0379  0.5132 -0.3956
52136W        W95189  13.200  29.188  23.612  0.2445  0.2526 -0.4469
52137W        W95190   8.585  32.373   4.611  0.1271 -0.0845  0.1187
52138W        W95191  20.223   7.287  19.414  0.0572 -0.0238 -0.3329
52139W        W95192  32.374  25.202  20.480  0.3438 -0.0446  0.1301
52140W        W95193  13.565   8.901  22.820  0.3837  0.0068  0.1768
52141W        W95194   8.531  23.277  23.819 -0.2888 -0.1330  0.1149
52142W        W95195  14.267   5.626  15.262  0.0455 -0.0438 -0.1788
52143W        W95196  17.675   0.080  19.942 -0.0135  0.1866  0.2106
52144W        W95197  13.450   4.713   2.494 -0.2136 -0.1943 -0.0087
52145W        W95198  19.384  34.323   3.604  0.2175 -0.0412  0.0149
52146W        W95199  14.488  27.710  14.661  0.1257 -0.2220  0.0099
52147W        W95200  13.514  26.836  22.579  0.2219  0.1590  0.2100
52148W        W95201  29.642  33.311  24.524 -0.4889 -0.0519  0.1528
52149W        W95202   9.104   5.500  24.119  0.0144  0.0121  0.1817
52150W        W95203  32.310  27.359  17.755  0.0190 -0.0410 -0.0708
52151W        W95204   3.660  31.512  17.211 -0.0189 -0.0615  0.0523
52152W        W95205  12.565   1.851  24.556 -0.2542  0.1815 -0.1150
52153W        W95206  33.504  19.683  21.735  0.0067 -0.2032  0.0989
52154W        W95207  22.747   9.501  15.971 -0.0212  0.2039  0.0803
52155W        W95208   3.723  20.401  15.221  0.1809 -0.1810 -0.0178
52156W        W95209   9.159  13.742   7.208 -0.0627 -0.1168  0.1379
52157W        W95210  13.800   3.364  29.146  0.0085 -0.0470 -0.0319
52158W        W95211  22.602  33.144  27.388  0.2726 -0.1219  0.0530
52159W        W95212   6.713   7.230  17.309 -0.0534 -0.0495 -0.2863
52160W        W95213  15.688   6.985  22.355 -0.0629  0.3810 -0.0875
52161W        W95214   8.882  12.600  20.900  0.0830  0.0650 -0.1989
52162W        W95215  22.582  31.961   1.602 -0.1031  0.0192 -0.5460
52163W        W95216   1.812   1.995  13.715  0.0638 -0.0453  0.0326
52164W        W95217  28.542  27.478  17.733  0.0475 -0.1180 -0.0116
52165W        W95218  19.724  26.523  27.590 -0.0567 -0.2029  0.3864
52166W        W95219  27.090   6.294  22.333 -0.0093  0.4078 -0.0011
52167W        W95220  10.101   4.393  22.787  0.0139  0.2680  0.3843
52168W        W95221  25.940  11.208  14.689 -0.0020 -0.2182  0.3911
52169W        W95222  16.132  22.439   5.562  0.0105  0.3654  0.0197
52170W        W95223   7.446  32.746  25.123  0.0457 -0.0312  0.3006
52171W        W95224  14.079  34.550  21.971 -0.0040 -0.2430  0.1410
52172W        W95225   9.649   2.105  26.231 -0.1301 -0.0282 -0.1293
52173W        W95226  31.352   0.268  15.598 -0.1983  0.0368  0.1780
52174W        W95227   8.368   2.344  14.650 -0.0533 -0.3594  0.4994
52175W        W95228  34.278  16.607  19.112  0.0400 -0.0199  0.2756
52176W        W95229  12.737  25.917  23.081 -0.2041  0.4323 -0.1662
52177W        W95230   1.459   4.694  20.464 -0.1257  0.3010 -0.0195
52178W        W95231  34.044  23.091   9.234 -0.1323  0.0614  0.1609
52179W        W95232  28.564  28.347  19.605  0.0405  0.1585 -0.0060
52180W        W95233  17.050   3.756  21.220  0.0285 -0.4297  0.0853
52181W        W95234  25.114  10.339  15.697  0.1283 -0.1147  0.1214
52182W        W95235  32.799  22.638  16.351  0.1151  0.2816  0.1779
52183W        W95236   8.008  21.654  23.033 -0.1335 -0.0859 -0.2246
52184W        W95237   5.684  25.473  13.255 -0.0083  0.3507  0.1123
52185W        W95238  22.129  22.931  26.076  0.0681  0.0815  0.0726
52186W        W95239  20.104  30.889  27.777 -0.1734 -0.0162  0.0366
52187W        W95240  15.613  31.327  21.151 -0.0368 -0.1051 -0.0987
52188W        W95241   5.493  20.613  16.437 -0.1252  0.0357  0.0511
52189W        W95242   9.709   0.249  20.393 -0.0865 -0.1340  0.0443
52190W        W95243   7.570   5.396  21.151  0.0245  0.1460 -0.0007
52191W        W95244  12.116  29.322  14.079  0.3451 -0.3208  0.0880
52192W        W95245  21.952  25.313  18.776  0.1482  0.2092 -0.3442
52193W        W95246   6.050   9.158  20.391 -0.0925 -0.1116 -0.1270
52194W        W95247  29.305  21.500  27.505  0.0613 -0.0057  0.3917
52195W        W95248  24.352   5.719  27.050  0.0521 -0.1412  0.1588
52196W        W95249  28.199  28.733  17.187 -0.0402  0.1669  0.1538
52197W        W95250  19.451   7.098  20.932  0.1419 -0.0861  0.2086
52198W        W95251  34.555   4.066  24.157 -0.2034 -0.2606 -0.3137
52199W        W95252  23.350  11.335  14.677  0.2773 -0.2027  0.2859
52200W        W95253  10.404  34.067  25.230 -0.2419  0.1775 -0.0810
52201W        W95254   3.510   3.913  18.205 -0.3959 -0.2603  0.1376
52202W        W95255  15.352  27.412  27.467 -0.4142 -0.2743 -0.0693
52203W        W95256   5.341   3.123  19.376 -0.2542 -0.0608 -0.2678
52204W        W95257   7.259   0.455   6.202  0.0802 -0.5607 -0.0959
52205W        W95258  24.412  21.006   2.463 -0.0056 -0.1940 -0.0558
52206W        W95259  18.186  32.712   5.134  0.2560  0.1777 -0.1959
52207W        W95260  19.838   2.661  15.650  0.0765 -0.1443  0.2000
52208W        W95261   8.534   4.132  23.089  0.2104  0.0520  0.1537
52209W        W95262  11.340   3.743   4.005 -0.0484  0.1338 -0.1491
52210W        W95263  21.711  22.017  21.490  0.1995 -0.3937  0.1715
52211W        W95264  18.622  30.571  23.537 -0.0360  0.1990  0.1965
52212W        W95265  12.577   9.868  19.171 -0.0624  0.1448  0.0142
52213W        W95266  14.054   0.825   1.598 -0.0414 -0.1052  0.1980
52214W        W95267  24.458  34.325  16.176  0.0314  0.0790  0.3033
52215W        W95268   8.222  31.010   5.109 -0.1673 -0.0558  0.1207
52216W        W95269  19.924   6.864  26.297 -0.1829 -0.1161 -0.0724
52217W        W95270  10.878   5.109  16.664 -0.1242  0.0778 -0.0960
52218W        W95271  11.532   9.664  23.493  0.0338 -0.0495  0.1324
52219W        W95272   9.518   6.677  19.409  0.1523 -0.0987  0.0588
52220W        W95273  14.219  21.934  22.463 -0.1094  0.1006 -0.2255
52221W        W95274  16.161   0.247   4.662  0.2234 -0.1529 -0.1053
52222W        W95275  27.013   4.274   8.560 -0.0238 -0.0090  0.0361
52223W        W95276  13.361  31.308  15.842 -0.2853  0.0388 -0.0245
52224W        W95277   2.240   3.290  19.532 -0.0487  0.4585  0.1287
52225W        W95278  24.878  14.509  25.701 -0.0845  0.0540  0.1731
52226W        W95279  10.409  34.245  15.119  0.1796  0.0758 -0.0022
52227W        W95280  25.626  33.362  18.644 -0.0903 -0.1486  0.1143
52228W        W95281   9.389   2.205  25.790 -0.1211  0.1268 -0.3555
52229W        W95282  34.435  31.824  16.931  0.0409  0.2557  0.0803
52230W        W95283  15.068  30.993   1.332  0.1088 -0.3797  0.2898
52231W        W95284   5.258  25.919  19.219 -0.0535  0.1975  0.5195
52232W        W95285  31.708  16.138  13.392 -0.3967 -0.0818  0.2640
52233W        W95286  19.062   1.464  15.514  0.3984  0.3965 -0.4472
52234W        W95287  14.183   0.001  28.620  0.3957 -0.3039  0.0046
52235W        W95288   6.773  34.253  14.743  0.0871  0.0154 -0.2364
52236W        W95289  10.841  25.693   3.965 -0.1386 -0.0813  0.3491
52237W        W95290  15.137   0.806   0.200 -0.3106 -0.0985 -0.2000
52238W        W95291  15.132   8.026  16.220  0.0197 -0.1271  0.1716
52239W        W95292  19.217  12.746  14.502 -0.1831 -0.0152  0.2289
52240W        W95293   7.970   8.776  24.923 -0.0986 -0.0044  0.0520
52241W        W95294  25.047  13.629  19.757  0.2474  0.0372 -0.0043
52242W        W95295   9.752  28.779  19.156 -0.3453 -0.5128 -0.0193
52243W        W95296  23.998   4.728   9.360  0.3750 -0.1488 -0.0133
52244W        W95297   5.206   8.784  15.939  0.4117  0.3158  0.0863
52245W        W95298  25.116  26.496   3.007  0.1320 -0.4853  0.1216
52246W        W95299   1.180   7.213  20.576  0.1089  0.0396  0.0602
52247W        W95300  26.494   4.941  19.274  0.3835 -0.2021  0.2471
52248W        W95301  18.227  11.288   0.464  0.1748  0.1048  0.0041
52249W        W95302   0.418   2.558  21.090  0.2968  0.1840  0.2351
52250W        W95303  16.071  17.451  24.277  0.1496  0.2114 -0.0464
52251W        W95304  10.962  31.840  16.819  0.1127  0.0606  0.0031
52252W        W95305   9.625  11.844  15.088 -0.1070 -0.2844 -0.1656
52253W        W95306  19.751  34.036  23.515 -0.1209  0.0464 -0.1102
52254W        W95307  14.928  10.762  27.164  0.0877 -0.1024 -0.1349
52255W        W95308  10.599  33.403  15.430  0.0497 -0.1223  0.0481
52256W        W95309  15.591   4.362  15.649 -0.0442 -0.0043 -0.3045
52257W        W95310  25.456  34.674  20.927 -0.0240 -0.4172 -0.1287
52258W        W95311  18.501  34.370  27.382  0.2491 -0.0578  0.1304
52259W        W95312  34.362  17.955  25.818  0.1374  0.0104  0.2690
52260W        W95313   3.115   3.222  23.476  0.2128  0.0796 -0.1261
52261W        W95314   0.231  11.893  24.734  0.3723  0.2985  0.0261
52262W        W95315  15.468  32.995   4.072 -0.0414  0.0204  0.0926
52263W        W95316   8.761  31.789  18.870 -0.0721  0.3108  0.2263
52264W        W95317  19.336   8.751  26.575 -0.3296 -0.0716 -0.2493
52265W        W95318   7.498  12.996  19.801 -0.1706  0.0297 -0.0297
52266W        W95319   6.818  16.463  21.431  0.0749 -0.2445 -0.0060
52267W        W95320  33.855  12.120   3.878  0.3291  0.0596  0.1987
52268W        W95321   3.809  33.767  24.532  0.1576  0.1012  0.0827
52269W        W95322  20.422   7.262   7.962 -0.1878  0.0186 -0.1047
52270W        W95323   8.879  31.456  24.504 -0.0343  0.3101  0.1715
52271W        W95324  26.258  15.781  16.621  0.0175 -0.1462  0.1485
52272W        W95325  17.357   1.387  21.127 -0.2400 -0.1970 -0.0698
52273W        W95326  21.748   4.952  20.995  0.2030 -0.2368 -0.2190
52274W        W95327   2.881  31.886  24.338  0.0255 -0.3121  0.1120
52275W        W95328   2.985  31.357  16.287 -0.1305  0.1917 -0.0631
52276W        W95329  18.828   3.085  15.222  0.0337  0.0604  0.0316
52277W        W95330  28.282  10.406   0.569  0.1579  0.1312  0.1102
52278W        W95331  11.110  12.024   5.043  0.0383 -0.0798  0.0429
52279W        W95332  15.011  29.126  21.547  0.1572 -0.1899  0.2932
52280W        W95333  16.858  27.504   4.099 -0.2560  0.1034  0.1833
52281W        W95334   6.971   5.339  18.151 -0.2429 -0.0257 -0.1740
52282W        W95335  13.248  21.795  26.890 -0.2659 -0.3772  0.0433
52283W        W95336  26.969  23.215  22.773 -0.4169 -0.0093 -0.1075
52284W        W95337  33.997  25.963  20.755 -0.0885  0.0869  0.0497
52285W        W95338  30.827   2.481  22.781  0.1275  0.3051 -0.0204
52286W        W95339  32.136  10.486  22.089 -0.0051  0.0601 -0.0467
52287W        W95340   5.715  32.257  24.442 -0.3044 -0.1706  0.2482
52288W        W95341  33.809  22.669  17.680 -0.0799 -0.0203  0.0809
52289W        W95342  23.886   6.022  24.682 -0.0757  0.0593 -0.0429
52290W        W95343  21.229  18.778  28.397 -0.2586 -0.0489 -0.3675
52291W        W95344   5.227   9.547   3.900 -0.0806 -0.3471  0.0349
52292W        W95345   9.808  12.247  16.531  0.0769 -0.2589 -0.1146
52293W        W95346  24.574   1.610   2.466 -0.0491 -0.2564  0.4513
52294W        W95347  31.556  29.447  17.160  0.2002 -0.0062 -0.0294
52295W        W95348   4.532  30.442  18.447  0.0348  0.2969  0.2723
52296W        W95349  30.904  19.953  14.242  0.0153  0.0642 -0.2438
52297W        W95350  20.443   5.766  16.128  0.1360 -0.0552  0.1046
52298W        W95351  11.216  28.535  26.600  0.0506 -0.4970  0.1003
52299W        W95352  17.962  28.302  24.981 -0.1448 -0.1783 -0.0188
52300W        W95353  23.667   2.923  24.950  0.0844  0.2614  0.0550
52301W        W95354  17.870  34.232  18.412 -0.2744 -0.2787  0.1465
52302W        W95355  24.555   5.273  19.531  0.1712 -0.0927  0.2871
52303W        W95356  26.196  26.258   3.475 -0.2778  0.0052  0.0469
52304W        W95357  32.643  20.905  23.937 -0.1035  0.2280 -0.0460
52305W        W95358  22.062  26.193   0.341 -0.2194  0.0939 -0.0787
52306W        W95359  12.708  34.103   4.611 -0.2198  0.0112  0.2580
52307W        W95360   5.742   4.035  20.073 -0.1576  0.1243 -0.0818
52308W        W95361  13.719  32.112  19.852  0.1310  0.2118 -0.0125
52309W        W95362   8.293  21.218  24.310  0.1267 -0.0325 -0.0039
52310W        W95363  27.802  18.610  16.701 -0.3593  0.3264  0.0975
52311W        W95364  10.170   4.009  22.008 -0.1335 -0.1754  0.0909
52312W        W95365  15.026  32.540  24.786  0.1763 -0.0951  0.2589
52313W        W95366  17.215  15.203   2.983 -0.4085 -0.1835 -0.1695
52314W        W95367  17.373  12.753  22.846  0.0772 -0.0652 -0.2000
52315W        W95368  17.516  14.001  24.638 -0.2097  0.1370 -0.0554
52316W        W95369  13.062   1.299  21.644 -0.0002 -0.2306 -0.1029
52317W        W95370  10.008   8.243  19.687 -0.1863 -0.1965  0.1872
52318W        W95371   0.128   7.061  15.879  0.1560  0.0859 -0.1537
52319W        W95372  29.752   4.948  14.144  0.1237 -0.2839 -0.1728
52320W        W95373  17.093  32.768  17.792 -0.3929  0.0734 -0.0186
52321W        W95374  14.872  32.447  24.304  0.1928  0.2318  0.0664
52322W        W95375  26.495  27.732  24.916 -0.1737  0.0151  0.0008
52323W        W95376  25.272  25.961   1.714  0.2663  0.0723  0.0145
52324W        W95377  13.123   7.519  21.644  0.3914 -0.1476  0.0031
52325W        W95378  16.732  18.638  13.464 -0.1395  0.0643  0.0850
52326W        W95379  31.344   8.891  26.560 -0.1304 -0.4177 -0.3076
52327W        W95380   5.447  34.505  17.054 -0.2055 -0.1888 -0.2508
52328W        W95381  32.261  17.193  22.201 -0.0084 -0.2367  0.1473
52329W        W95382  33.368  31.341   2.430  0.1356 -0.1266 -0.0329
52330W        W95383  12.603  18.465  23.062  0.3184 -0.0022 -0.1437
52331W        W95384   9.325  10.119  25.974  0.5567  0.2093  0.0801
52332W        W95385  16.504   6.603  18.963 -0.2228 -0.0417  0.2903
52333W        W95386  17.872  13.197   7.593  0.3818 -0.0152 -0.3252
52334W        W95387  15.022  20.968   0.699 -0.0251  0.2518  0.0276
52335W        W95388  24.427   6.920  15.012  0.0127 -0.0581 -0.0243
52336W        W95389   4.489  11.256  15.785  0.0617 -0.4279  0.0061
52337W        W95390  31.737  32.082  17.663  0.1143  0.0136 -0.3213
52338W        W95391  21.001   0.464  27.162  0.1461 -0.1229  0.0639
52339W        W95392  12.390  28.896   4.256 -0.1967 -0.0913 -0.1861
52340W        W95393   6.639   6.729  16.480 -0.0720  0.2326  0.0462
52341W        W95394  10.410  20.548  19.702 -0.0781  0.0629  0.0990
52342W        W95395  16.871  32.125  23.327 -0.0588 -0.0652 -0.0726
52343W        W95396   7.338  11.336  16.812  0.4435  0.1116 -0.1049
52344W        W95397  22.798  33.916   8.007  0.0866 -0.0936  0.1615
52345W        W95398  22.738  21.239  18.077  0.0576 -0.0062 -0.1533
52346W        W95399  29.513  15.074  15.884 -0.1024  0.2949  0.0169
52347W        W95400  30.574   5.374  17.905 -0.0819  0.1786  0.0979
52348W        W95401  11.230  32.513  22.693 -0.0417  0.0943 -0.1018
52349W        W95402  15.189  30.340  22.119 -0.2294  0.2909  0.1367
52350W        W95403  23.408  27.942   2.634  0.0395 -0.3206 -0.2651
52351W        W95404  12.638  24.560  24.997  0.1151  0.0645 -0.1476
52352W        W95405  33.741  27.173  20.289  0.3201  0.0538  0.1071
52353W        W95406  13.784   7.060   3.174 -0.2257 -0.0821  0.1731
52354W        W95407   1.973   3.012   1.134  0.2065 -0.0366 -0.1803
52355W        W95408  11.257  22.011  17.023 -0.2407 -0.0224 -0.0747
52356W        W95409  11.694   2.185  27.732  0.3170 -0.3224 -0.0865
52357W        W95410  16.698  25.438  21.963  0.0864  0.1517 -0.0859
52358W        W95411   3.375  26.228  19.331 -0.1255 -0.1930 -0.0488
52359W        W95412   7.538  26.644  14.610  0.1371 -0.2175  0.2561
52360W        W95413  10.932   6.956  26.140 -0.1082  0.1991 -0.0725
52361W        W95414  31.296   1.276  18.883  0.0907 -0.3611 -0.0945
52362W        W95415  26.527   7.019  24.087  0.0003 -0.0201  0.3493
52363W        W95416  33.050  13.408  16.174  0.1723 -0.2648 -0.0856
52364W        W95417  15.416  34.346  17.518 -0.2278 -0.2454 -0.2272
52365W        W95418  16.245  29.246  25.240 -0.1695  0.1524 -0.1177
52366W        W95419  29.417  17.263  23.117  0.1183 -0.0451  0.0036
52367W        W95420  18.376  15.126  25.046 -0.1194  0.0119  0.4237
52368W        W95421  23.362  13.075  20.823 -0.0353 -0.1740  0.0607
52369W        W95422  17.840  24.728  19.981 -0.0836 -0.1689 -0.2920
52370W        W95423  19.232  30.777  23.007 -0.0126  0.3076  0.0341
52371W        W95424   9.436  11.387  27.306 -0.1626 -0.0266 -0.0362
52372W        W95425  15.734  11.197   2.833 -0.0871  0.0929 -0.1781
52373W        W95426  12.088   9.623  17.684 -0.1629 -0.0355 -0.3352
52374W        W95427  27.879  11.747  14.737 -0.0092  0.0543  0.2654
52375W        W95428  22.040   7.654  25.575 -0.0090  0.0083 -0.2859
52376W        W95429  18.724   8.329   0.823 -0.0065 -0.1129  0.2267
52377W        W95430  16.251  27.250  20.628  0.0018  0.0336  0.1586
52378W        W95431  21.374   6.153  13.933 -0.1212 -0.1691  0.1013
52379W        W95432  11.847  31.733  24.717 -0.1092 -0.3393  0.0327
52380W        W95433   8.549  33.125  15.682  0.1263  0.1884  0.0826
52381W        W95434  24.483   6.731  21.909  0.1177 -0.0960  0.3049
52382W        W95435   1.214  10.991  19.408  0.0727 -0.0537  0.0222
52383W        W95436  23.893  22.233  26.451 -0.0921  0.1249  0.2456
52384W        W95437  26.188  33.254  21.492  0.2664  0.0667  0.0972
52385W        W95438  21.708  28.504  23.981  0.1478  0.0489 -0.2889
52386W        W95439   8.895   3.888  21.561 -0.0665 -0.2913  0.1168
52387W        W95440  22.631  33.098  20.707 -0.1988  0.1596 -0.0454
52388W        W95441  29.510  25.096  19.483 -0.2621  0.1211  0.0852
52389W        W95442   5.532   6.085  23.170  0.1304 -0.0426  0.1196
52390W        W95443   1.056  28.154  20.397 -0.0393 -0.5447 -0.2431
52391W        W95444  13.673  32.694  17.083 -0.1409 -0.0466 -0.1390
52392W        W95445  20.553  33.165  16.853  0.0587 -0.0568  0.1676
52393W        W95446  25.665   4.676  21.890  0.0212  0.1992  0.1270
52394W        W95447  26.077   4.616  15.634  0.0686  0.4212 -0.1413
52395W        W95448  26.403   7.114  13.730 -0.3714  0.0788 -0.2760
52396W        W95449   1.291   9.643   6.507  0.1924 -0.0464  0.1667
52397W        W95450   6.519  29.222  15.861 -0.0335  0.1509  0.5106
52398W        W95451   8.763   4.785  28.059 -0.2224  0.0239 -0.1602
52399W        W95452   4.372  34.472  24.865 -0.0794  0.0965  0.0644
52400W        W95453   3.356  20.275  22.915 -0.3673 -0.1997  0.1416
52401W        W95454  11.977  12.917   3.177  0.1320  0.0227  0.2312
52402W        W95455  33.581  25.482  17.827 -0.1620 -0.0640 -0.0648
52403W        W95456  34.240  20.378  13.478  0.0100 -0.0162 -0.1117
52404W        W95457   8.695  34.224  18.524  0.1822 -0.0061  0.0102
52405W        W95458  32.035   1.749  21.901 -0.0653 -0.0467 -0.3420
52406W        W95459   1.029  25.392  13.000 -0.0857 -0.2767  0.0925
52407W        W95460  12.368   2.538  28.897 -0.0043  0.0391  0.1150
52408W        W95461   7.017  30.212  17.799 -0.0051  0.0902  0.0028
52409W        W95462  13.486  10.287  21.622 -0.0989  0.0506  0.1155
52410W        W95463  14.098  34.275  18.183  0.0418 -0.5108  0.0164
52411W        W95464   4.662  30.081  15.420  0.1811  0.3221 -0.0684
52412W        W95465   1.465   9.505  14.880  0.0383 -0.3266  0.3014
52413W        W95466  10.413   8.498  26.858  0.2241 -0.2991 -0.1568
52414W        W95467  17.624  32.482  17.012 -0.1512  0.0952  0.3040
52415W        W95468   3.103   4.254  18.143  0.2270  0.1056 -0.0804
52416W        W95469   5.420  27.505  28.733 -0.0069  0.1092  0.0682
52417W        W95470   5.517   1.119  27.204  0.1073 -0.1138 -0.0620
52418W        W95471  14.466  33.825  15.645  0.0829 -0.2747 -0.1612
52419W        W95472   1.233  30.128  20.042 -0.3290  0.0627 -0.1384
52420W        W95473  14.187  16.859   5.460  0.0334  0.0418  0.0908
52421W        W95474  17.042  27.330  17.986 -0.1701 -0.0170  0.0951
52422W        W95475  14.222  32.920  13.828 -0.2575  0.0307 -0.1222
52423W        W95476  13.724  30.730   6.557 -0.1913  0.0288  0.1691
52424W        W95477  11.703  13.122  16.588 -0.0649  0.5418 -0.1132
52425W        W95478  12.450  31.158  22.015  0.4003  0.1659 -0.0777
52426W        W95479  28.429  34.654  14.408 -0.0810 -0.0011  0.0962
52427W        W95480  14.130  26.486  23.230  0.1983  0.1642  0.0710
52428W        W95481  14.870  33.626  16.421  0.1001  0.1864  0.1446
52429W        W95482  23.048  32.782   6.947 -0.1915  0.1540 -0.0620
52430W        W95483  28.241   3.172   4.537  0.0309 -0.3038  0.0401
52431W        W95484   0.829   0.973   6.733 -0.0035  0.0209  0.0049
52432W        W95485  24.523   0.153  15.134 -0.3239 -0.1772 -0.1109
52433W        W95486  16.023   9.095  15.089 -0.2332  0.2514 -0.0132
52434W        W95487   5.983  10.606  14.955  0.1514 -0.0980  0.2234
52435W        W95488  13.025  10.006  20.012 -0.1896  0.2399  0.2271
52436W        W95489  11.543  31.403  20.234 -0.0864 -0.0078  0.3478
52437W        W95490  14.204  29.586  17.835 -0.3032 -0.1416 -0.3031
52438W        W95491  12.727  13.831  24.659  0.4379 -0.1339 -0.1137
52439W        W95492   3.558   3.758  18.862  0.2186  0.0031 -0.0281
52440W        W95493  19.552  20.730   4.743 -0.0717 -0.2646  0.2107
52441W        W95494   4.950   8.728  28.251  0.0129  0.0687  0.3314
52442W        W95495  11.864   4.784  15.601  0.1175 -0.2678  0.2440
52443W        W95496  19.086  19.762  23.641 -0.2327  0.1026  0.2232
52444W        W95497  28.805  12.706   7.997  0.2948 -0.0774 -0.0416
52445W        W95498   4.333  22.844  19.798  0.0929 -0.0025  0.1749
52446W        W95499   2.899   9.998  15.589 -0.3589  0.1112 -0.1151
52447W        W95500   0.030   5.902  22.078  0.3433 -0.1609 -0.0779
52448W        W95501  20.168  32.768  20.755  0.2620 -0.0574 -0.1258
52449W        W95502   0.128  15.004  25.148 -0.1011  0.0592 -0.1155
52450W        W95503  20.347   6.481   8.337 -0.1572 -0.2538 -0.0330
52451W        W95504  17.820  19.828  27.397  0.0922 -0.1434  0.1678
52452W        W95505  12.856  28.324  20.474 -0.0620  0.0151 -0.0257
52453W        W95506   2.157  14.763  23.432 -0.0353  0.0467  0.0126
52454W        W95507  34.272   3.817  20.207 -0.2389 -0.0496 -0.0215
52455W        W95508   6.921   7.805  17.250  0.0266 -0.0042  0.0701
52456W        W95509  11.537  15.963  14.799  0.3886  0.0197  0.0572
52457W        W95510  22.023   0.494  20.163  0.0800 -0.2569  0.1742
52458W        W95511  17.561   8.518   4.594 -0.1649 -0.1239 -0.0851
52459W        W95512  10.237  16.740   7.262 -0.1749  0.2498  0.1381
52460W        W95513  29.897  28.433   2.943 -0.0423 -0.4057  0.1970
52461W        W95514  25.914   5.288  14.876  0.1758 -0.0265 -0.1358
52462W        W95515   4.820   1.985  22.591 -0.0522 -0.0456 -0.2633
52463W        W95516  14.007   3.998  22.564 -0.2150 -0.2429 -0.3199
52464W        W95517   6.325   6.050  29.124  0.0495  0.2246  0.4155
52465W        W95518  23.633  21.410  27.064 -0.1736 -0.1392 -0.1080
52466W        W95519  24.922  21.965  21.279 -0.0718  0.0241  0.0983
52467W        W95520  20.118   0.762  14.951 -0.0341  0.2988  0.0039
52468W        W95521  24.540   4.510   4.044  0.1303  0.0373  0.1154
52469W        W95522  24.141   2.376  26.127 -0.1841 -0.1876  0.0443
52470W        W95523  11.173  30.012  22.173 -0.0713  0.0999  0.0310
52471W        W95524  28.056  15.846  24.493 -0.0042  0.1607  0.1403
52472W        W95525  10.035   4.839  17.972 -0.1689 -0.0349 -0.1676
52473W        W95526   2.850   6.507  14.849 -0.0567 -0.0109  0.1863
52474W        W95527   7.084   4.761  26.379 -0.1069  0.0836 -0.2664
52475W        W95528  20.780  24.502  15.212 -0.1195 -0.2109 -0.1552
52476W        W95529  24.441  24.326  19.232 -0.2003 -0.0690 -0.1332
52477W        W95530   6.791   9.368  21.521 -0.0887  0.3108  0.1491
52478W        W95531  30.706  12.389  19.286 -0.0932  0.1198  0.1604
52479W        W95532  22.059  19.553  16.728 -0.0031 -0.1666 -0.1205
52480W        W95533   9.081  20.236  24.865 -0.1651 -0.0180 -0.1870
52481W        W95534  21.676   7.930  24.344 -0.0591  0.2605  0.0663
52482W        W95535   2.886  14.400  14.546  0.0890 -0.0006 -0.1322
52483W        W95536  32.031  22.402  20.543 -0.2585  0.1210 -0.1613
52484W        W95537  25.547  29.659  14.697  0.4227 -0.1583  0.0614
52485W        W95538  14.286  18.707  21.654 -0.0015  0.1328  0.1899
52486W        W95539  18.015  31.060  24.162  0.0892  0.4439  0.0942
52487W        W95540  17.076   3.265   0.062  0.0732  0.3074  0.2815
52488W        W95541  15.565  34.340  28.769 -0.1957  0.2144  0.2565
52489W        W95542   1.381  27.429  24.004 -0.4046  0.0468  0.0612
52490W        W95543   6.539  21.936  22.637 -0.1241  0.1402  0.2645
52491W        W95544   9.016   3.771   2.460 -0.2309  0.0903  0.1664
52492W        W95545   5.434   6.516  16.390  0.1013 -0.1064  0.0731
52493W        W95546  10.601  32.828  16.305 -0.0335  0.2596 -0.3829
52494W        W95547  16.297   4.567  17.680  0.1954  0.1746  0.0409
52495W        W95548  33.330  30.250  21.376 -0.1758 -0.2230  0.0768
52496W        W95549   4.719   0.139   4.984 -0.0987  0.0639 -0.0787
52497W        W95550   6.958  20.237  13.945  0.3305  0.0474 -0.1453
52498W        W95551  18.299  27.035  16.997  0.0377  0.1671 -0.1294
52499W        W95552  14.255   9.250  25.210 -0.0054 -0.4158  0.1300
52500W        W95553  27.056  20.261  18.982 -0.1002  0.0582 -0.1409
52501W        W95554  14.023  29.328  14.968  0.1137 -0.1328  0.0316
52502W        W95555   3.553  21.705   0.501 -0.0169 -0.0573  0.2374
52503W        W95556  14.941  12.611  24.327 -0.0062  0.1142  0.0909
52504W        W95557   8.399  18.499   0.433  0.2654 -0.1470  0.1626
52505W        W95558  11.107   6.178  17.229  0.0255 -0.0156  0.1097
52506W        W95559   3.661  13.675   8.956 -0.3091  0.0609 -0.0994
52507W        W95560   0.828  25.697  22.590  0.1498  0.0236  0.1749
52508W        W95561  21.227   7.293  15.859  0.0879  0.1862 -0.0183
52509W        W95562  15.791   6.788  21.552  0.1734 -0.3124 -0.1894
52510W        W95563   3.690   5.380   9.534  0.1348  0.0897 -0.1633
52511W        W95564  16.824   7.601  20.998 -0.1805  0.1038  0.2231
52512W        W95565  20.327  34.411   2.834  0.1583  0.0675  0.1365
52513W        W95566   4.497  28.409  14.654 -0.0484  0.2681  0.2745
52514W        W95567  15.628  34.320  25.915  0.0494  0.0428  0.2728
52515W        W95568   6.804  25.007  20.969  0.0225  0.1535  0.1989
52516W        W95569  13.779  29.298   6.940  0.1607  0.0024 -0.1581
52517W        W95570   8.255  27.217   4.851 -0.1321 -0.0718 -0.0547
52518W        W95571  33.978  23.551  15.987  0.0296 -0.0906  0.1775
52519W        W95572  33.244  26.568  22.005  0.0768  0.1230  0.1769
52520W        W95573  12.342   0.120  25.348 -0.2979  0.2332 -0.1847
52521W        W95574   2.402   6.647  15.663 -0.1436  0.0115 -0.2340
52522W        W95575  17.041   5.916   9.409  0.1124 -0.0141 -0.1632
52523W        W95576  20.342  34.236  16.580 -0.2256 -0.0338 -0.1747
52524W        W95577   4.648   1.453  15.209 -0.0753 -0.0592 -0.1866
52525W        W95578  15.145   5.492  22.294  0.1571 -0.1676 -0.0324
52526W        W95579  16.050   7.258  16.735  0.2258  0.2655  0.0808
52527W        W95580  34.125   9.910   0.126  0.1670 -0.1309  0.0770
52528W        W95581  12.346  14.368  20.138  0.1488  0.0641  0.1483
52529W        W95582  23.353  31.330  25.240  0.1410 -0.1143  0.2745
52530W        W95583  10.268   7.741  20.082  0.2105  0.2447 -0.1736
52531W        W95584  30.701  14.990  24.880 -0.1174 -0.5276 -0.2237
52532W        W95585   7.523  25.113  20.312  0.2024 -0.2812  0.3721
52533W        W95586  15.061   3.849  15.054 -0.1287  0.1136  0.1150
52534W        W95587  21.079  12.118  17.257  0.1640  0.0154 -0.0503
52535W        W95588   1.698  13.423   5.349  0.0487  0.0603  0.1632
52536W        W95589   6.463   7.424   6.441  0.1033 -0.0087 -0.2523
52537W        W95590  24.306  21.311  13.793 -0.2731 -0.1622 -0.3351
52538W        W95591   8.074   6.186  24.431 -0.0749  0.1038 -0.0726
52539W        W95592  11.467   9.875  24.891 -0.3558 -0.2616  0.3956
52540W        W95593  15.311  10.441  23.193  0.1850 -0.1504 -0.0620
52541W        W95594  10.069  14.457   5.309 -0.1990  0.1374 -0.3972
52542W        W95595   4.236  28.277   0.617 -0.0355  0.0766  0.1072
52543W        W95596  13.869  34.553  23.518  0.1663  0.1946  0.1845
52544W        W95597  13.387   7.399   1.097 -0.1130 -0.1319  0.3791
52545W        W95598  25.906  26.187  13.734 -0.2354  0.0344 -0.0589
52546W        W95599  26.979  19.686  24.430 -0.0544  0.1621 -0.0206
52547W        W95600  23.487   3.170  17.988 -0.1369 -0.3342 -0.1756
52548W        W95601   6.923  28.365  21.870  0.2647  0.3149 -0.2663
52549W        W95602  15.836  20.643   1.363  0.0844  0.1656  0.1635
52550W        W95603  24.839   2.338   0.937  0.0221 -0.0613  0.1522
52551W        W95604   4.832  18.801  18.590  0.1423 -0.2120 -0.0449
52552W        W95605   8.277   4.396  25.043  0.0260  0.0569 -0.2050
52553W        W95606   2.871  15.233  17.398 -0.1627  0.1819  0.2747
52554W        W95607   1.247   5.038  20.720  0.1405  0.2601 -0.1962
52555W        W95608   4.080  22.150  18.007 -0.0732 -0.0203 -0.1561
52556W        W95609  30.306  20.325   7.208  0.2098  0.3405 -0.0398
52557W        W95610   1.495  20.229   2.602 -0.1426 -0.0120  0.1378
52558W        W95611  15.313  30.109  23.525 -0.3100 -0.1047 -0.1881
52559W        W95612   6.164   5.954   1.743 -0.1685  0.4259 -0.4256
52560W        W95613   8.205  32.711  24.670  0.0042 -0.2750 -0.0841
52561W        W95614   6.735  14.052  28.464 -0.0366 -0.0295 -0.1537
52562W        W95615  25.761  11.397  18.185 -0.1520 -0.1041  0.1522
52563W        W95616  17.189   5.878  28.479  0.4204 -0.1994 -0.0656
52564W        W95617  11.496  19.326  27.481 -0.3390  0.3809  0.0838
52565W        W95618  13.809  30.340  18.379  0.0348 -0.1668 -0.2325
52566W        W95619  20.493  32.335   6.236  0.0232  0.4941  0.2685
52567W        W95620  14.301   3.731   9.670 -0.2075 -0.0455  0.1580
52568W        W95621   0.164  14.803  21.003 -0.1673 -0.1407 -0.0871
52569W        W95622  12.203   5.852   5.803 -0.0224  0.0588  0.3684
52570W        W95623   3.536  28.319  16.381  0.1145  0.0655  0.2875
52571W        W95624  17.683  21.339  23.177  0.0484 -0.0169  0.0384
52572W        W95625  25.915   1.348   0.338  0.2118 -0.1486  0.0143
52573W        W95626  20.829   7.422   3.361  0.3117  0.0988 -0.3676
52574W        W95627  13.236  33.030  20.861  0.1596 -0.0797 -0.1266
52575W        W95628   8.424  27.528   5.214 -0.2484  0.0519  0.0873
52576W        W95629  12.900   1.268  18.953 -0.0171  0.2740 -0.1949
52577W        W95630  27.226   2.663   7.234 -0.7406  0.1863  0.0829
52578W        W95631   7.476   8.650  22.237 -0.1284  0.0931  0.0857
52579W        W95632   8.183   7.018   2.445  0.0825 -0.0470 -0.0077
52580W        W95633  26.148  10.061  20.560 -0.1425 -0.1690 -0.2496
52581W        W95634  18.385  11.044   6.856  0.1521  0.0130 -0.3229
52582W        W95635   6.354   3.449  18.322  0.0097  0.1534 -0.1421
52583W        W95636  30.138  33.725  28.344  0.1893  0.1783  0.0510
52584W        W95637   2.570   0.327  20.975  0.2569  0.2099  0.2408
52585W        W95638   6.267  27.568  23.980 -0.0868  0.0776 -0.4453
52586W        W95639  18.186  23.694  17.662  0.2996  0.1915 -0.1845
52587W        W95640  12.659   5.839  14.979  0.5443 -0.3291  0.1144
52588W        W95641  16.256   0.628  25.485  0.0443 -0.1240  0.0268
52589W        W95642  18.594  27.696  16.444 -0.1434  0.0363  0.0331
52590W        W95643   9.397   6.700  17.511 -0.1979  0.2668 -0.0378
52591W        W95644   6.164  11.101  15.861 -0.0408 -0.3334 -0.1273
52592W        W95645   0.764   7.277  22.086  0.0478 -0.0181  0.0230
52593W        W95646  12.258   5.777   0.565 -0.0818 -0.0274  0.1109
52594W        W95647  31.597  27.282  19.296  0.1132 -0.0178 -0.0442
52595W        W95648  14.386  10.247   6.704  0.1391  0.2086  0.0854
52596W        W95649   8.621  23.531  29.096 -0.1145 -0.2418 -0.1414
52597W        W95650  11.311   3.718  18.710 -0.0564 -0.2382  0.0225
52598W        W95651  11.723  33.461  15.635 -0.2219  0.0867 -0.2152
52599W        W95652   3.352  32.496  28.825 -0.0298  0.3820 -0.2138
52600W        W95653   7.280  28.054  27.607  0.1080  0.3456  0.0625
52601W        W95654   2.525   2.392  28.088  0.2788 -0.0097 -0.1047
52602W        W95655  34.506  20.590   9.322  0.0324  0.2845  0.0971
52603W        W95656  14.134  31.836   4.137 -0.2702 -0.3007 -0.2418
52604W        W95657  12.922   1.663   4.682 -0.1455 -0.2535  0.2030
52605W        W95658  23.359  27.900  28.518  0.1962 -0.1599 -0.1154
52606W        W95659   9.628   3.989  21.060  0.0938 -0.1899  0.4757
52607W        W95660  12.087  27.272  24.636 -0.2300 -0.1317  0.1969
52608W        W95661  31.418   3.733  18.593  0.3871  0.2284  0.2808
52609W        W95662   6.267  13.993   7.496  0.0324 -0.1502  0.0138
52610W        W95663   0.070  31.562  25.746 -0.0728 -0.1278 -0.2634
52611W        W95664  15.185  32.022   6.327  0.3227  0.0309  0.0308
52612W        W95665  19.027  33.033   5.403  0.0696  0.0354  0.0848
52613W        W95666  33.052  31.481  20.422 -0.1399  0.0263 -0.1095
52614W        W95667   5.741   0.706   5.477 -0.0919  0.0006  0.1854
52615W        W95668  10.679  15.255   5.041  0.2500  0.1272  0.0511
52616W        W95669  12.625   3.458  22.052 -0.0528  0.0309  0.0333
52617W        W95670  10.909  33.939  21.504 -0.0894 -0.1242  0.0801
52618W        W95671  16.840  22.230   3.603  0.1137  0.0259  0.2784
52619W        W95672   4.857   2.321   8.152  0.0081  0.0084  0.0994
52620W        W95673  26.993  27.741   9.412  0.1749 -0.2681  0.1606
52621W        W95674  26.918  30.203  19.920 -0.1170 -0.1511  0.1053
52622W        W95675  13.157  21.125  20.589 -0.2017  0.0468 -0.0440
52623W        W95676  16.620  12.792   5.930 -0.1498  0.0317 -0.1353
52624W        W95677  16.334  22.821  27.684 -0.0409 -0.2780 -0.2182
52625W        W95678  12.602   0.557  28.923  0.2930 -0.1807  0.0422
52626W        W95679  27.653   6.211   4.689 -0.1517  0.1118 -0.3925
52627W        W95680  19.441   7.472  22.192 -0.2968 -0.1105  0.0646
52628W        W95681  11.329  30.318  28.660  0.2356 -0.3936 -0.1624
52629W        W95682  22.234  26.132   9.153  0.3300 -0.1045  0.1111
52630W        W95683  15.811  29.615  18.487  0.1540 -0.0952 -0.0280
52631W        W95684  34.200  19.685  15.745 -0.4376  0.1132 -0.1193
52632W        W95685  28.527  16.021  16.790  0.0987 -0.2979 -0.3150
52633W        W95686   5.343   2.009   9.286 -0.1718 -0.2599  0.0028
52634W        W95687  20.431  29.242  18.829 -0.1810 -0.1572 -0.3695
52635W        W95688   3.820  15.536  22.931  0.0634  0.3609 -0.3231
52636W        W95689  34.391  10.472  14.517 -0.0104  0.1504  0.3109
52637W        W95690   5.637  24.342   8.678 -0.2603 -0.0667  0.1977
52638W        W95691   7.214   5.753  25.449 -0.0801 -0.1431 -0.1261
52639W        W95692  30.003   9.326  18.415 -0.1354 -0.0382 -0.3002
52640W        W95693  21.848   6.610   1.286  0.3226 -0.1712  0.1310
52641W        W95694  22.833  22.983  21.407 -0.0644  0.3566  0.2797
52642W        W95695  32.484  23.145  21.590 -0.0792  0.0314  0.0330
52643W        W95696  16.861  23.634  24.723  0.0546  0.2466 -0.4580
52644W        W95697  31.012   6.772  19.963 -0.1878 -0.0887 -0.1601
52645W        W95698  17.060   7.810  18.545  0.0304  0.1291  0.2179
52646W        W95699  23.218  20.195   0.917 -0.0725  0.2040  0.0711
52647W        W95700  32.863  32.786  17.053 -0.1419  0.0329 -0.0744
52648W        W95701  25.313   1.742  17.593  0.0187 -0.1861  0.0263
52649W        W95702  12.004  28.672  26.028  0.0217 -0.2295 -0.0973
52650W        W95703   9.404  22.548  17.591 -0.4559  0.1730 -0.0935
52651W        W95704  18.050   8.460   2.607  0.1410  0.0642  0.0728
52652W        W95705  11.433  24.688  14.970 -0.0857  0.2330 -0.1330
52653W        W95706  20.510   1.012   7.760 -0.0943 -0.3351 -0.0374
52654W        W95707  10.796   6.694  20.788 -0.2500 -0.0560  0.2791
52655W        W95708  17.547   9.521  27.409  0.1358 -0.1476 -0.1757
52656W        W95709  15.717   0.782  21.275  0.0533  0.1347 -0.0380
52657W        W95710  29.453  13.515  23.989  0.0711  0.1932 -0.2907
52658W        W95711  28.326  27.034  17.990 -0.0033 -0.1624 -0.0833
52659W        W95712  19.336   1.899  15.520 -0.2989  0.0387  0.0894
52660W        W95713  17.852  19.062   1.492  0.0436 -0.2405 -0.0200
52661W        W95714  19.082  20.379  21.269  0.1650  0.2003  0.2006
52662W        W95715  21.767  17.528  26.284  0.1165 -0.0437  0.1178
52663W        W95716  15.908   6.597  18.161  0.0473  0.1870  0.2599
52664W        W95717  14.808  30.830  29.096  0.2329 -0.2011  0.0611
52665W        W95718  23.442  32.058   5.370 -0.0985  0.0487  0.1846
52666W        W95719  22.607   4.201  14.082  0.0058 -0.0392  0.0425
52667W        W95720  13.316   1.796   4.155  0.0583  0.0453  0.0294
52668W        W95721  23.900   9.530  17.321  0.2519  0.0431 -0.1673
52669W        W95722  27.432  32.362   4.511 -0.0333  0.1835 -0.5061
52670W        W95723   6.784  25.129  25.509  0.1237 -0.0958  0.1414
52671W        W95724   3.079  30.375  28.648  0.1618 -0.0309 -0.2390
52672W        W95725   8.674  16.368  23.524 -0.0868 -0.1259  0.1348
52673W        W95726  10.449  31.853   2.700  0.1197  0.1213 -0.0754
52674W        W95727  16.950  23.116  23.680  0.2369  0.4350  0.0362
52675W        W95728  11.729   2.558  26.037  0.0757 -0.1244  0.2177
52676W        W95729  18.563  33.584  20.358  0.0886 -0.1694  0.3584
52677W        W95730  29.630  19.001  16.678  0.0041  0.1025  0.3493
52678W        W95731  21.281  24.103  18.526 -0.1274  0.2005  0.0422
52679W        W95732   3.598  30.266  26.047 -0.0009  0.0658 -0.0820
52680W        W95733  13.250   1.916  14.935 -0.1641 -0.0959 -0.1694
52681W        W95734  25.754   4.863  18.290  0.0446 -0.4038 -0.1865
52682W        W95735  10.832   2.044  25.359  0.2642  0.0932  0.0690
52683W        W95736  14.250   0.938  25.245 -0.1520 -0.0609  0.1520
52684W        W95737  25.511  27.112   3.478  0.2818 -0.1592  0.3454
52685W        W95738  16.869   5.683   4.121  0.0841  0.1735  0.0829
52686W        W95739  33.972  30.993  18.425 -0.0007  0.0982  0.1866
52687W        W95740  14.031   3.276   9.456  0.0395 -0.2946  0.0301
52688W        W95741  28.351   2.437  16.313 -0.0984  0.3043  0.1358
52689W        W95742  20.509  14.234  22.477 -0.1341 -0.1300  0.2932
52690W        W95743  11.653   1.163   1.885  0.0979  0.0536  0.1197
52691W        W95744  18.302  17.790   2.710 -0.0349  0.0398  0.2458
52692W        W95745  13.831   4.800  18.166 -0.1875  0.1641  0.0835
52693W        W95746  21.971   3.427   9.284 -0.0596  0.0056 -0.0354
52694W        W95747   6.485  25.723  21.193 -0.0702 -0.2186 -0.0581
52695W        W95748  22.896   9.567  15.530 -0.0835 -0.4013  0.1909
52696W        W95749  23.639   7.078   6.265  0.0655 -0.2571  0.2600
52697W        W95750  23.914  26.629  27.198 -0.0545 -0.1133  0.0662
52698W        W95751   1.412  20.993  21.119  0.2107  0.2552 -0.1205
52699W        W95752  10.396  17.096  23.221 -0.1780  0.2063  0.2901
52700W        W95753  16.046  27.208  21.731 -0.0125  0.2011 -0.1386
52701W        W95754   7.984   3.985  16.779 -0.0781 -0.2560  0.1914
52702W        W95755  24.453  32.958  23.781  0.1855  0.0920 -0.1515
52703W        W95756  14.955  31.516  15.619 -0.2504 -0.1033 -0.1202
52704W        W95757  26.590  13.379  14.452  0.4238 -0.1469  0.1621
52705W        W95758   7.732  27.566  23.101  0.2408 -0.1820  0.0341
52706W        W95759  10.322  27.530  22.148  0.0856  0.2653 -0.2844
52707W        W95760  20.572   1.586   0.892 -0.1161  0.2577 -0.1180
52708W        W95761  21.050   0.733   2.037 -0.2808 -0.3797  0.4304
52709W        W95762  23.998  30.858  19.908 -0.0940 -0.0121  0.0220
52710W        W95763  23.743  14.292  15.388  0.0819 -0.0491  0.1584
52711W        W95764  18.581  33.775   0.898  0.0294 -0.1597  0.3134
52712W        W95765  33.012   4.810  27.541 -0.0895  0.1671 -0.0411
52713W        W95766   4.163  13.546  28.021 -0.0479 -0.1710 -0.0292
52714W        W95767   4.674  29.684  27.110 -0.2342 -0.1539 -0.0199
52715W        W95768  33.568  29.324  23.494 -0.2131 -0.1519 -0.0295
52716W        W95769  14.761   7.437   3.057  0.0019  0.1746  0.1417
52717W        W95770  15.250   6.017  16.157 -0.0016 -0.1546 -0.2394
52718W        W95771  21.592   6.983   4.171 -0.0899  0.0160 -0.2616
52719W        W95772  18.773  31.367   3.729 -0.1600  0.0976  0.0472
52720W        W95773   7.933   5.898   1.932  0.1493 -0.1535 -0.1382
52721W        W95774  13.390  33.724  18.227 -0.1989  0.1185 -0.1493
52722W        W95775  19.192  23.458  15.898  0.1772  0.1759 -0.2144
52723W        W95776  18.007  33.748   4.055 -0.0356 -0.1820 -0.2519
52724W        W95777  14.564  10.710   0.025 -0.1949  0.2213  0.1677
52725W        W95778  21.383   5.154  23.336  0.1187  0.1487  0.0983
52726W        W95779  11.738  13.707   5.159  0.1412  0.2515 -0.0502
52727W        W95780  19.655   7.500  22.960  0.0930 -0.1220 -0.1344
52728W        W95781  20.203   7.984   7.411  0.3926  0.0948  0.4302
52729W        W95782  14.722  14.971  24.384  0.1275 -0.0861 -0.0378
52730W        W95783  34.646   4.943   1.651  0.0061  0.0401 -0.0579
52731W        W95784  18.410  33.381   1.685  0.0335 -0.1514  0.1716
52732W        W95785  15.002   2.960  10.513  0.0831  0.0486  0.0130
52733W        W95786  27.107   7.639  14.530  0.3394 -0.1915  0.3163
52734W        W95787  26.238  32.470   9.274  0.1791 -0.0730 -0.1238
52735W        W95788  17.475  33.105  15.781  0.0559 -0.2091  0.0558
52736W        W95789   4.744  13.083  18.184  0.0403  0.1291 -0.4821
52737W        W95790  13.597   4.949  19.508 -0.0497  0.0739  0.2484
52738W        W95791  16.135  11.232   7.015  0.1573 -0.1690  0.0944
52739W        W95792   1.065   0.302  23.085  0.1192  0.0277 -0.1927
52740W        W95793  13.707  28.386  19.555 -0.1244 -0.0569  0.0469
52741W        W95794  12.895   1.891  17.749  0.1171  0.1840 -0.1832
52742W        W95795  13.953   1.489  27.571 -0.2162  0.2832 -0.1879
52743W        W95796  24.987   0.314   0.462  0.0172  0.0786 -0.1370
52744W        W95797   7.071   8.379   5.756 -0.0548  0.1759  0.2768
52745W        W95798  12.500  16.433   4.795  0.0185  0.1421  0.2721
52746W        W95799   9.031  33.327  14.318 -0.0086  0.1445  0.0392
52747W        W95800   1.220   2.195   2.169  0.1883 -0.1036 -0.0856
52748W        W95801  18.176  28.474   6.789 -0.1057 -0.0672  0.1375
52749W        W95802   5.503  23.452  24.361  0.2211 -0.2553  0.0779
52750W        W95803  16.289  22.833   1.821 -0.1320  0.1174  0.0105
52751W        W95804  25.988  23.660   6.424  0.0474  0.2033  0.1157
52752W        W95805   4.554  32.616  18.258  0.2498  0.1473  0.2336
52753W        W95806  17.707  33.499  28.853  0.0733 -0.0227 -0.0906
52754W        W95807  13.121  24.749  28.040  0.1686 -0.0136  0.0103
52755W        W95808  17.421  21.585  14.918 -0.1103  0.0002  0.1856
52756W        W95809   7.497   5.442  17.917  0.1755  0.1223 -0.0183
52757W        W95810  17.428  19.590   1.048 -0.3140  0.0802  0.2395
52758W        W95811  23.395   5.461  17.915 -0.2622 -0.4245 -0.0751
52759W        W95812   7.013  21.533  22.320 -0.0386  0.1155 -0.2230
52760W        W95813   4.862  11.034  25.531  0.0911  0.0858  0.1306
52761W        W95814  34.463   3.483  14.751 -0.0012 -0.1490  0.1563
52762W        W95815   9.388  14.184  26.094  0.1234  0.1341 -0.0855
52763W        W95816  13.273  17.390  17.711  0.0422 -0.0388 -0.0687
52764W        W95817  19.038  34.541  21.999  0.0604  0.0604 -0.0063
52765W        W95818  25.169  29.512   6.921  0.0499 -0.0656  0.4103
52766W        W95819  15.583  33.542   2.874  0.1775  0.1731 -0.1574
52767W        W95820  30.790   9.416  17.965  0.1010 -0.1321  0.0397
52768W        W95821   2.112  30.440  22.003 -0.1325  0.2521  0.1935
52769W        W95822  12.561  15.786  19.838 -0.0379 -0.1978  0.0842
52770W        W95823   9.435  27.700  22.487 -0.0704 -0.1081  0.3996
52771W        W95824  34.224  10.229  15.009  0.1044 -0.1939 -0.0083
52772W        W95825   9.496  30.550   4.860 -0.1539 -0.0335 -0.1931
52773W        W95826  34.069  33.858  16.313 -0.1388 -0.1190  0.1440
52774W        W95827  13.029  20.034   2.437 -0.2016 -0.1792  0.0193
52775W        W95828  26.829   3.405  25.118  0.4226  0.4140 -0.0462
52776W        W95829  14.945   3.381  18.652  0.3718  0.1245 -0.2380
52777W        W95830  13.791  15.372   8.960 -0.2828  0.2051 -0.1486
52778W        W95831   4.382  11.334  19.038  0.1103  0.1284  0.0241
52779W        W95832  16.591  23.549  25.223 -0.1689  0.3388  0.0319
52780W        W95833  23.077  25.897  15.770 -0.1473 -0.0228 -0.3508
52781W        W95834  34.206   3.287  28.761  0.1986  0.1326  0.1423
52782W        W95835  31.747  26.805  24.948  0.1610  0.1652 -0.3124
52783W        W95836  28.246  30.213  14.920  0.0240 -0.1722  0.0644
52784W        W95837  17.313  31.331  16.289 -0.0109 -0.4706 -0.0001
52785W        W95838  22.813  20.673   9.259  0.0331 -0.0686 -0.0829
52786W        W95839  11.319  26.680   7.055  0.1495  0.1323 -0.1265
52787W        W95840  10.076   0.879  27.588 -0.1145 -0.0846 -0.0918
52788W        W95841   3.133   6.487   2.332 -0.1131 -0.2365 -0.0757
52789W        W95842   5.928  28.479  15.733  0.1102 -0.0712 -0.2887
52790W        W95843  11.996   9.575  19.702 -0.1300 -0.2856  0.3538
52791W        W95844   6.047  18.396  24.491 -0.0941 -0.0504  0.0122
52792W        W95845  15.696   9.737  28.775 -0.1848  0.2244 -0.1239
52793W        W95846  13.414  13.327  20.035 -0.4598 -0.0168  0.0318
52794W        W95847  29.843  13.538  15.071  0.3141 -0.0263  0.0928
52795W        W95848  15.362   3.662  23.517 -0.1187  0.2689  0.0685
52796W        W95849  24.704  15.787  18.109  0.0624  0.0577  0.2438
52797W        W95850  21.200  17.202   0.483  0.0586  0.0499 -0.1679
52798W        W95851   5.215   0.478  21.986  0.0777 -0.1485 -0.1129
52799W        W95852  15.382   2.799  17.004  0.0242  0.1576 -0.2826
52800W        W95853   7.932  32.807  23.260  0.1121  0.0574  0.1171
52801W        W95854  15.335  27.642  19.625  0.0102 -0.2065  0.0387
52802W        W95855   0.334  11.479  19.482  0.0989  0.2673 -0.2025
52803W        W95856  12.739  33.587  25.236  0.4038  0.0381  0.1892
52804W        W95857   0.539  29.890  18.576 -0.0970 -0.1293  0.0732
52805W        W95858  20.937   4.760  28.374  0.0228 -0.0483 -0.0013
52806W        W95859   3.903  24.601  27.440  0.3808 -0.0947  0.1688
52807W        W95860  10.350   5.563  14.150  0.1243 -0.2218 -0.2290
52808W        W95861   7.959  26.117  16.995  0.1163 -0.1359 -0.1450
52809W        W95862  16.851  25.494  20.430 -0.5653  0.0845 -0.2882
52810W        W95863  18.932  28.052  23.999 -0.0484 -0.0451  0.0674
52811W        W95864   3.547   8.472  19.030 -0.1417 -0.2153  0.1505
52812W        W95865  31.049  14.584  24.914  0.0927  0.2157  0.3333
52813W        W95866  12.275  26.042   7.312  0.1956  0.1793  0.1035
52814W        W95867  21.187   3.685  14.170 -0.0841  0.0905  0.1721
52815W        W95868  33.193  12.303  24.849  0.1887  0.0714  0.0144
52816W        W95869  26.552  11.445  24.750 -0.1903 -0.1645  0.0523
52817W        W95870  12.851  28.635  29.034 -0.1064 -0.1671  0.1035
52818W        W95871  14.277   0.789  24.763 -0.1982 -0.1980  0.3274
52819W        W95872  33.781  34.284  23.492 -0.0854  0.0601  0.1385
52820W        W95873  23.337  18.429   8.028 -0.0436  0.3306  0.1421
52821W        W95874  19.706  25.751  21.336  0.1913 -0.0827 -0.1664
52822W        W95875  27.087   6.892  15.889 -0.0212 -0.1865  0.0619
52823W        W95876  30.517   6.956  18.840 -0.0595 -0.0767  0.0817
52824W        W95877   2.698   8.210  17.136  0.1818  0.1335 -0.1108
52825W        W95878  10.763  12.207  22.382  0.3886  0.0059  0.2008
52826W        W95879  22.605   3.306  29.007 -0.1637  0.1359 -0.1471
52827W        W95880  13.964  27.143  27.573  0.1351 -0.0785 -0.3051
52828W        W95881  17.729  28.802  19.521  0.0221 -0.0570 -0.1410
52829W        W95882  10.713  26.290  22.365 -0.0596 -0.1976  0.4847
52830W        W95883   8.635  31.168  15.908 -0.1429  0.1118  0.1226
52831W        W95884  16.802  15.151   0.307 -0.3165 -0.0132  0.1429
52832W        W95885   7.227  27.568  26.435 -0.0350 -0.3652  0.0900
52833W        W95886  16.181  21.780  24.510 -0.0607 -0.3572  0.0088
52834W        W95887  24.271  28.504  21.123  0.2521 -0.0420 -0.1073
52835W        W95888  22.598   2.392  16.936  0.0462  0.2658 -0.0736
52836W        W95889  28.868   5.863   0.494  0.1009  0.0015  0.0076
52837W        W95890  20.157  33.229   2.130  0.2005  0.0749 -0.1112
52838W        W95891   2.847   1.568   7.754 -0.0030  0.0589 -0.0988
52839W        W95892  28.239   1.681  10.248  0.2071  0.2360  0.1810
52840W        W95893  29.008  16.907   5.437 -0.1691 -0.4650 -0.1783
52841W        W95894  19.548  30.477  23.262  0.2075 -0.0453 -0.2404
52842W        W95895   5.901  34.143  17.067  0.2032  0.0151  0.0850
52843W        W95896   5.827   4.116  14.313 -0.0309  0.1021 -0.0791
52844W        W95897  21.830  32.429  20.487 -0.0137  0.0470 -0.0673
52845W        W95898  13.766  19.382  13.870 -0.1174 -0.1166  0.0434
52846W        W95899  13.397   4.447  24.795 -0.2990 -0.0783 -0.0627
52847W        W95900  32.334   9.936   4.959 -0.3464 -0.0985 -0.1901
52848W        W95901  13.936   4.137  13.860  0.0096 -0.3199  0.0768
52849W        W95902  19.769   5.024  23.634  0.1383  0.0008  0.1746
52850W        W95903   3.875  33.287  21.125 -0.1567  0.0243 -0.1186
52851W        W95904   7.248   3.000  20.596 -0.0822 -0.1468 -0.2380
52852W        W95905  16.283  33.684   5.769 -0.0306 -0.0452 -0.0822
52853W        W95906  14.724  32.651   1.498 -0.1028 -0.0179 -0.0512
52854W        W95907  21.755  28.161  14.630 -0.1379 -0.1715  0.0349
52855W        W95908   9.948  21.459   8.877 -0.4127  0.1367 -0.0861
52856W        W95909  11.657  22.569   1.145 -0.1646  0.2891  0.1633
52857W        W95910  12.976   9.682  18.836  0.2715 -0.0980  0.3854
52858W        W95911  28.843  28.092  18.411  0.2214 -0.0859 -0.2180
52859W        W95912  10.648   2.083  23.391  0.1858 -0.0831  0.0517
52860W        W95913  15.924  14.111   3.706  0.0975  0.1128 -0.1162
52861W        W95914  15.145   9.632   0.329  0.0349  0.3223  0.3349
52862W        W95915  22.767   4.822  13.488 -0.2307  0.1764 -0.0307
52863W        W95916  17.148   3.834   8.307  0.1393  0.2112 -0.0086
52864W        W95917  34.432   4.672  27.609 -0.0323 -0.0887  0.1636
52865W        W95918  31.910  17.171  18.962 -0.2154 -0.0871  0.2129
52866W        W95919  13.650   3.345  20.273  0.0895 -0.3056  0.1881
52867W        W95920  28.038  21.634   3.033  0.0950  0.0650  0.0399
52868W        W95921  22.056  32.387  24.996  0.0303 -0.0080  0.0702
52869W        W95922  14.658  21.112   6.707  0.0765  0.0154  0.1602
52870W        W95923  24.038   1.005   0.964 -0.0544  0.1527 -0.0449
52871W        W95924  18.428  12.159   3.453  0.1954 -0.2756  0.0471
52872W        W95925  21.237  26.216  17.552 -0.0992  0.0754  0.0190
52873W        W95926  14.431  20.206  22.638 -0.0385 -0.0317  0.0416
52874W        W95927  10.678   0.639  19.294 -0.0234 -0.0001 -0.4129
52875W        W95928   4.922  10.733   1.608 -0.2505  0.3037 -0.4163
52876W        W95929  10.828   4.268   6.995 -0.2110  0.1979  0.1009
52877W        W95930   3.319   0.923  26.828  0.1017 -0.2354  0.2790
52878W        W95931  26.960  24.277  22.189  0.0383  0.0295  0.0268
52879W        W95932  21.880   7.417  21.799  0.0078  0.0349 -0.5019
52880W        W95933  16.229  17.212  26.258  0.0748 -0.3363 -0.4948
52881W        W95934  13.456   6.354  15.153 -0.2733  0.0964 -0.1110
52882W        W95935  13.590  30.481  17.340 -0.1087 -0.2504 -0.0171
52883W        W95936  21.542  11.519  26.658  0.1856 -0.0193  0.4350
52884W        W95937  20.108   8.888   0.097 -0.4441  0.1031  0.1625
52885W        W95938  22.001  10.826  18.931 -0.2438 -0.1396  0.1789
52886W        W95939  14.269   6.574   2.359  0.2771 -0.1222 -0.0703
52887W        W95940  27.732   0.905  21.053 -0.0892 -0.0998  0.0002
52888W        W95941  12.823   2.126  21.982  0.3041 -0.1456 -0.2854
52889W        W95942  29.879  33.052   7.382  0.0995  0.1384  0.1196
52890W        W95943  21.550  19.718  16.571 -0.0707 -0.2846 -0.1234
52891W        W95944  29.671   0.655   1.598 -0.1971  0.1176  0.0369
52892W        W95945  32.717   7.084  25.032  0.0552 -0.1080  0.0926
52893W        W95946   8.279   5.922   0.514 -0.2984 -0.2550  0.1205
52894W        W95947  20.300  22.998  19.511 -0.4374  0.0260  0.3296
52895W        W95948  23.106   7.385  23.765 -0.1516  0.0761  0.1463
52896W        W95949  18.813  18.696  15.109 -0.1127  0.0163  0.2293
52897W        W95950  24.794   7.952   4.806  0.1571 -0.2714  0.4366
52898W        W95951   1.224   5.055   1.673 -0.1993  0.1055 -0.3060
52899W        W95952  14.674   0.976  25.489 -0.1416  0.0287  0.1304
52900W        W95953  29.138  13.238  27.988  0.0218 -0.0125 -0.0820
52901W        W95954  12.225   3.467   5.997  0.2059  0.1773  0.1005
52902W        W95955  18.357   0.690   8.563 -0.1117 -0.0213  0.1156
52903W        W95956  31.397   2.130   5.314  0.0379  0.0796  0.1895
52904W        W95957  25.539   2.276  26.472 -0.0431 -0.2384  0.1481
52905W        W95958  20.676  31.031  15.720  0.0914 -0.1931  0.2951
52906W        W95959  19.137   6.952   4.821 -0.3056  0.0931  0.0376
52907W        W95960  23.506  18.786   3.543 -0.0804  0.1159 -0.1593
52908W        W95961  30.825   6.355  22.598 -0.0528 -0.2558  0.1415
52909W        W95962  12.204   4.482   9.655  0.0443  0.0999  0.0978
52910W        W95963  11.886  12.190  27.742  0.0184 -0.1378  0.0665
52911W        W95964  20.072  26.355   2.041 -0.4143 -0.2680 -0.0777
52912W        W95965   7.246   7.270  24.395 -0.1805 -0.0355 -0.0477
52913W        W95966  30.979   1.945  22.849  0.4894 -0.0651  0.0899
52914W        W95967   0.839   5.161  22.905  0.1047 -0.1459  0.1989
52915W        W95968  29.380   4.366  19.119  0.0570  0.0275 -0.0743
52916W        W95969  22.045   9.555  16.378  0.3999  0.1629 -0.1651
52917W        W95970  15.942  22.422  14.208 -0.3331  0.3550 -0.1879
52918W        W95971  20.818  21.342   1.176 -0.0947  0.1759  0.1640
52919W        W95972   6.902  23.042  22.126  0.1357  0.1817  0.0928
52920W        W95973  19.796   4.313   9.961  0.1325 -0.1615  0.4661
52921W        W95974   8.351  32.291   7.768  0.3432 -0.1826 -0.1155
52922W        W95975   1.850   7.041  18.722  0.1180  0.2302  0.2023
52923W        W95976   7.898  32.649   5.869  0.1183  0.3555 -0.0832
52924W        W95977  20.817  29.265   3.655 -0.0331 -0.1563 -0.2719
52925W        W95978   9.124   4.785   0.660 -0.1355 -0.0351 -0.1824
52926W        W95979  34.579  24.577   6.677 -0.1612  0.0704 -0.0064
52927W        W95980  20.054   5.624   1.465 -0.0092  0.0977 -0.1300
52928W        W95981  15.011  26.555  16.957  0.3961  0.1477 -0.2419
52929W        W95982  24.687   8.461  22.779 -0.0492 -0.1020 -0.1620
52930W        W95983   9.486  31.095  19.510  0.0010 -0.1172 -0.0304
52931W        W95984  10.161   7.401   4.365  0.2642  0.0715 -0.1109
52932W        W95985  20.415   2.270  18.179 -0.1913  0.0264 -0.3552
52933W        W95986   9.150  20.714  19.171  0.1915  0.1046  0.3375
52934W        W95987   0.763  14.930  25.832  0.0257 -0.0355  0.0564
52935W        W95988  12.271  11.381   4.230  0.0978  0.0247  0.0638
52936W        W95989   6.981  12.488  25.130 -0.0262 -0.2090  0.0929
52937W        W95990  13.257   0.785  13.866 -0.1402 -0.0235 -0.1347
52938W        W95991  17.590   0.737  28.806  0.1983  0.1576 -0.2738
52939W        W95992  23.039   0.107  15.698  0.1065 -0.0554 -0.1367
52940W        W95993   5.360   5.845   8.600  0.1563 -0.0452 -0.0163
52941W        W95994  29.884  34.080  15.875 -0.4380  0.0283 -0.1499
52942W        W95995  28.042  20.420   6.473  0.1063  0.0008 -0.1663
52943W        W95996  13.924  17.760  23.078 -0.0702  0.2829 -0.2478
52944W        W95997  29.090  25.600  23.804  0.1797 -0.0837 -0.1035
52945W        W95998  26.178  31.072  16.241  0.2296  0.3170 -0.0387
52946W        W95999  18.479   2.251  18.261  0.3151 -0.1363  0.2212
52947W        W96000   0.589  10.158  18.710  0.0720 -0.2994  0.0939
52948W        W96001  12.557  31.911  28.118  0.2014 -0.0448  0.1920
52949W        W96002   9.814  26.484  27.061  0.0000 -0.0813  0.2052
52950W        W96003  13.352  21.227  25.082  0.3041  0.1701 -0.4650
52951W        W96004  25.688  10.286  21.157 -0.2704  0.0924 -0.2016
52952W        W96005  10.720   6.786   0.241 -0.0245  0.0937  0.2999
52953W        W96006  11.581   9.919  29.024 -0.1032  0.2134  0.2504
52954W        W96007  26.364  26.416  10.505 -0.0076 -0.0972  0.3729
52955W        W96008  30.195  28.251   0.933  0.0948 -0.1336  0.0812
52956W        W96009  11.058  34.093   5.743 -0.1140 -0.1378  0.2258
52957W        W96010  11.749  12.071  23.317  0.0456 -0.0313 -0.2916
52958W        W96011   8.269   2.570   2.454 -0.0151 -0.3842 -0.1707
52959W        W96012  19.103  21.965  27.580  0.1277 -0.0813 -0.0111
52960W        W96013   3.770   8.308  23.010 -0.0290  0.0548 -0.0674
52961W        W96014  20.560   1.666   7.392 -0.1221 -0.0164 -0.0211
52962W        W96015   6.455  13.924  29.062 -0.3208 -0.1373  0.0561
52963W        W96016  10.223   3.222  23.476 -0.3648 -0.0026  0.2361
52964W        W96017  28.382   9.345  15.371 -0.0365 -0.1470  0.0592
52965W        W96018  12.125  27.034  28.142 -0.1605  0.1039  0.2145
52966W        W96019  25.576  19.350  23.289  0.0443  0.2436 -0.2472
52967W        W96020   7.369   2.740  25.961 -0.0764 -0.1868 -0.1488
52968W        W96021  15.506   9.807   7.109 -0.0763 -0.0506  0.1043
52969W        W96022   6.823  27.592  24.790  0.1906 -0.3292  0.2748
52970W        W96023  11.607   9.407   2.263  0.5057  0.0063 -0.2890
52971W        W96024  15.144  28.576   9.464  0.4618  0.1623 -0.3776
52972W        W96025   1.005  28.003   7.576 -0.1157  0.0915 -0.1221
52973W        W96026  11.403   3.160  17.120  0.0136 -0.2511  0.1826
52974W        W96027  33.750  14.154  17.054  0.0641  0.1713 -0.1344
52975W        W96028   6.748   2.846   6.240  0.1522 -0.2421  0.2954
52976W        W96029  18.697   8.525  22.909 -0.1166 -0.0740 -0.1668
52977W        W96030  16.175  26.263  25.480  0.1109 -0.2448  0.2152
52978W        W96031  21.955  18.947   1.013 -0.2217  0.2016  0.0955
52979W        W96032  14.710  19.198   7.759 -0.0113 -0.1932  0.1984
52980W        W96033  19.136  31.911  24.892  0.2353 -0.0890 -0.1313
52981W        W96034   8.678   9.506  28.131  0.4357 -0.2138 -0.2801
52982W        W96035  30.213  18.524  13.324 -0.1578 -0.1325 -0.2200
52983W        W96036  29.190   8.019  20.570 -0.1215 -0.0773 -0.0163
52984W        W96037  22.067   2.782  29.072  0.0880  0.0478  0.2232
52985W        W96038   9.914   4.155   1.609 -0.1928 -0.2139  0.3276
52986W        W96039   8.716   0.143  26.991 -0.3518 -0.1654  0.1105
52987W        W96040  19.100  28.256   6.361  0.0020  0.1842  0.0396
52988W        W96041  33.873  32.430  25.604  0.0300  0.1395 -0.1111
52989W        W96042   7.735   1.732  25.571  0.2177 -0.0248  0.1978
52990W        W96043  15.192   8.718  15.562 -0.1784 -0.1959 -0.0927
52991W        W96044  23.341  29.524   3.829 -0.0070 -0.0564  0.0252
52992W        W96045  21.176  31.448   3.121  0.3238 -0.0070 -0.3491
52993W        W96046  10.364   9.942  16.996  0.3920  0.1658  0.4440
52994W        W96047  14.859  10.593  18.422  0.0543 -0.0304  0.2385
52995W        W96048  16.551   1.637   5.988 -0.1237 -0.1019 -0.3597
52996W        W96049  11.171   7.487  22.643  0.0372 -0.0498 -0.1181
52997W        W96050   2.090  31.187   5.657 -0.3174 -0.3183 -0.0133
52998W        W96051   5.197  14.015   9.816 -0.2657  0.4376 -0.1120
52999W        W96052  23.117  28.675  19.504 -0.3021 -0.0728 -0.1895
53000W        W96053  12.960  26.840  17.716 -0.0761  0.0850 -0.2021
53001W        W96054  12.115  33.700  24.580 -0.0103 -0.1207 -0.0051
53002W        W96055  33.782   3.220   4.282 -0.2955  0.1688 -0.1025
53003W        W96056  20.915   0.422   5.649  0.2445 -0.0721 -0.0457
53004W        W96057   6.679  18.914  26.212  0.0900  0.1085 -0.1527
53005W        W96058  28.425  27.292   3.413  0.0316  0.0074 -0.0362
53006W        W96059  15.654   1.592   1.048 -0.0539 -0.0282 -0.2018
53007W        W96060   2.381  27.870  26.836  0.1161  0.1934 -0.3230
53008W        W96061  16.388  10.192   6.896  0.1682 -0.1286 -0.0496
53009W        W96062   6.143  17.029  13.797 -0.1067  0.0615 -0.2267
53010W        W96063  13.226  10.072   2.287 -0.3226  0.4202  0.0242
53011W        W96064   7.386   6.211  26.659 -0.3199 -0.0408  0.0567
53012W        W96065  11.854  28.122  26.541 -0.2243  0.0694  0.4063
53013W        W96066  28.715   5.544  20.443 -0.0332 -0.1198 -0.1017
53014W        W96067   5.456   9.200  28.838  0.0957 -0.1458 -0.4759
53015W        W96068  17.252  27.496  21.459 -0.1504 -0.3280 -0.1578
53016W        W96069  20.833  34.348   7.545 -0.2546 -0.0915  0.3720
53017W        W96070  14.039   3.856  14.942  0.1874  0.2698  0.1802
53018W        W96071  12.151  28.734   7.391 -0.1458  0.0403  0.0108
53019W        W96072  27.557   7.933   9.608  0.0278  0.0241  0.2038
53020W        W96073  12.887   0.455  10.630  0.0342 -0.1154  0.0162
53021W        W96074   9.435   3.212  28.745  0.1607  0.3544  0.3357
53022W        W96075  12.084  15.912  28.023  0.0306 -0.0005 -0.0173
53023W        W96076   8.209  27.174   8.713  0.0484 -0.1027 -0.2593
53024W        W96077  14.478   4.161   1.164  0.0586  0.1606 -0.1396
53025W        W96078   4.894  34.566  27.149  0.0436 -0.1141 -0.2467
53026W        W96079   3.893   8.009  24.676  0.2505 -0.0179 -0.2042
53027W        W96080  16.683   9.260   8.213  0.2677  0.2036  0.2772
53028W        W96081   4.798   8.545   7.432 -0.1741 -0.1702  0.2069
53029W        W96082  15.470   2.351  23.774 -0.0956  0.1260  0.0867
53030W        W96083   5.964  19.179   5.446  0.3394  0.1777  0.0894
53031W        W96084   5.484  19.543  17.737 -0.0381 -0.0714  0.0854
53032W        W96085  33.008  17.652  26.272 -0.1240  0.3793  0.2401
53033W        W96086  23.642   7.027  25.904 -0.0399 -0.0966 -0.1539
53034W        W96087  12.913  23.613  24.402 -0.0799  0.0813 -0.3024
53035W        W96088  17.380  31.882   5.959 -0.1820 -0.0551  0.0755
53036W        W96089  11.591   4.912  27.480  0.0623  0.3987  0.2096
53037W        W96090   6.284  31.978   3.042 -0.1312  0.0362 -0.1581
53038W        W96091   5.225  27.613   3.515  0.0165 -0.2515  0.0266
53039W        W96092  15.497  30.827  25.719  0.0044 -0.1860 -0.2179
53040W        W96093   3.918  34.026  22.755 -0.3787  0.2802  0.0403
53041W        W96094   3.714   2.400  10.219  0.1537 -0.1169  0.1556
53042W        W96095  21.767   4.682  25.504 -0.0727 -0.1062 -0.3895
53043W        W96096   6.102  33.337  21.247 -0.1497  0.0235 -0.1136
53044W        W96097  31.626  31.404  26.134 -0.1097  0.2102  0.0798
53045W        W96098  12.063  25.688  14.622  0.1980  0.3259  0.0786
53046W        W96099  20.096  31.292  10.153  0.2521 -0.2063  0.1722
53047W        W96100   2.685  34.054  26.378 -0.0122 -0.1172 -0.1282
53048W        W96101   0.563  26.799  27.210 -0.0277 -0.2769  0.1976
53049W        W96102  19.705   8.231  17.503 -0.2319 -0.3971 -0.1328
53050W        W96103  27.149   1.623  27.277 -0.3205 -0.0832  0.3367
53051W        W96104  20.787  17.509  21.471 -0.2699 -0.0924 -0.4750
53052W        W96105  18.068  23.789  19.746 -0.0367 -0.1182  0.1726
53053W        W96106  21.759  29.108  20.571  0.0340  0.3804  0.0300
53054W        W96107  19.152  29.117  24.211 -0.1302 -0.0782 -0.2273
53055W        W96108   8.365   8.672  17.176 -0.0277 -0.2221  0.2400
53056W        W96109  13.038  32.214   1.440 -0.0554  0.4434  0.0980
53057W        W96110   0.820   0.244  25.624 -0.1179  0.0554  0.0942
53058W        W96111  12.406   6.899  19.982 -0.2129 -0.1782 -0.0246
53059W        W96112  14.929   3.619  19.618 -0.1790  0.1255  0.0230
53060W        W96113   0.472   2.895   5.803  0.1408 -0.1415  0.1159
53061W        W96114  26.389  16.854  19.214 -0.2693  0.0712  0.4246
53062W        W96115   3.558   9.458  23.087  0.3219  0.0111  0.2181
53063W        W96116  31.963  15.923   9.518 -0.3344  0.0429 -0.0689
53064W        W96117  28.071   1.315  19.048  0.1886 -0.2097  0.0470
53065W        W96118  22.180   3.733   2.417  0.1880 -0.0823 -0.2817
53066W        W96119  18.745  32.074  26.580  0.0435  0.0475  0.0244
53067W        W96120  15.412  10.323   1.947 -0.0957  0.1363 -0.2075
53068W        W96121   5.109   7.768   9.472 -0.0215 -0.3880 -0.2861
53069W        W96122  16.446   8.477  24.490 -0.0514 -0.3569 -0.0231
53070W        W96123  26.244   4.574   2.201 -0.1356  0.0987  0.0099
53071W        W96124   1.519  11.774   6.565 -0.1647  0.0550 -0.3330
53072W        W96125  16.803  12.893  23.991  0.1622 -0.1120 -0.1935
53073W        W96126  32.713  33.391  20.132 -0.3202 -0.0490  0.3053
53074W        W96127   9.983   4.326  20.241 -0.0740 -0.1434 -0.1718
53075W        W96128  18.194   9.010   0.929  0.0960  0.4942  0.0216
53076W        W96129  21.419   3.168  16.309 -0.4424  0.2070  0.0664
53077W        W96130  16.006   0.200  25.650 -0.2212  0.2373 -0.1294
53078W        W96131  29.408  11.248  26.232 -0.0656  0.0823  0.0873
53079W        W96132   0.660  17.361  23.248 -0.2837  0.0738 -0.1179
53080W        W96133   6.786  17.270  19.838  0.1771 -0.1794  0.0267
53081W        W96134   6.390   2.663  20.604 -0.0285  0.1239  0.1676
53082W        W96135  15.641  11.294   4.125 -0.4280  0.1088  0.0137
53083W        W96136  19.416  26.317   0.423 -0.0369  0.0452  0.2038
53084W        W96137  14.990  24.375   0.070  0.2067  0.0175  0.1417
53085W        W96138  28.641  30.920   7.061 -0.0383 -0.1585  0.2010
53086W        W96139   0.616   7.099  25.082 -0.3619  0.1211 -0.2313
53087W        W96140  13.317   4.011  16.909  0.0442 -0.0106  0.1725
53088W        W96141   0.495   6.802   7.709 -0.0016 -0.3339 -0.2026
53089W        W96142  15.759  22.514  15.659  0.0500  0.0459 -0.0096
53090W        W96143  16.333  12.786  28.384  0.1436 -0.0895  0.0986
53091W        W96144  26.335  24.035  26.684  0.1925 -0.0417  0.0068
53092W        W96145  20.197  33.116  26.156 -0.1198 -0.1151 -0.2232
53093W        W96146  20.301  14.845  16.501 -0.1624 -0.0388 -0.1470
53094W        W96147  12.120   6.341   6.059 -0.0140  0.0727  0.2104
53095W        W96148   2.245   9.044   6.096  0.1409 -0.4708  0.2721
53096W        W96149   9.826  12.551   3.425  0.1635  0.4762  0.1788
53097W        W96150   6.982   9.932   3.076  0.0812  0.1884  0.1122
53098W        W96151  25.940  33.317  16.763 -0.0573  0.0749 -0.1744
53099W        W96152   9.332  28.634  22.800  0.2591 -0.2242 -0.0215
53100W        W96153  26.829  25.058  14.823 -0.1439  0.0534  0.0023
53101W        W96154  32.455  30.951   3.579 -0.2049 -0.2891  0.0992
53102W        W96155  14.919  14.751  26.447  0.0677 -0.0857 -0.2307
53103W        W96156  10.091   5.439   5.564 -0.0875 -0.0002 -0.2210
53104W        W96157  22.143  22.011   5.325  0.2426 -0.1519 -0.0714
53105W        W96158  30.633   7.150  20.187  0.1492 -0.1692  0.1486
53106W        W96159  34.580  31.708  15.669 -0.1463 -0.0158  0.1553
53107W        W96160  27.611  17.327   6.885 -0.5841  0.1839  0.3609
53108W        W96161  22.327  27.048  28.164  0.1982  0.2012  0.0348
53109W        W96162  29.785   8.962  16.749 -0.0963 -0.2023  0.0135
53110W        W96163  14.893  34.000  16.123 -0.1625  0.0901 -0.0794
53111W        W96164   2.483  20.995  16.776  0.0900  0.3895  0.0728
53112W        W96165  34.190  25.987   0.544  0.0784  0.0873  0.1240
53113W        W96166  28.790  12.112   1.806  0.1338  0.0465 -0.2171
53114W        W96167   4.229  33.873  16.990 -0.0454  0.0086 -0.1183
53115W        W96168   7.648   6.152  15.606  0.3240  0.0490 -0.0180
53116W        W96169  24.325  30.584   1.330  0.1639  0.2437  0.0105
53117W        W96170  27.546  15.115  24.197 -0.0549 -0.1816 -0.0918
53118W        W96171   5.687   7.503  19.591  0.0074 -0.3014 -0.0442
53119W        W96172  21.680   0.498   4.656 -0.3477  0.0676 -0.0692
53120W        W96173  30.686   2.779  28.416 -0.0016 -0.2854 -0.0773
53121W        W96174  20.870  32.227  15.106  0.0036 -0.2887 -0.1923
53122W        W96175  11.602   1.671  24.427  0.1397 -0.1500  0.0117
53123W        W96176  17.273  31.223   4.920  0.0968  0.2953  0.0684
53124W        W96177  20.529   1.195  25.173  0.2817  0.3749 -0.0571
53125W        W96178  11.817  16.973  13.545  0.2824 -0.2720  0.3717
53126W        W96179  21.475  32.651  22.880 -0.2296 -0.1035 -0.1996
53127W        W96180  12.181  18.500  14.315 -0.0138  0.2362 -0.1711
53128W        W96181  33.562  32.694  28.282  0.4026  0.0449  0.2869
53129W        W96182  19.383  31.853   9.765  0.0499  0.2117 -0.0546
53130W        W96183  19.108  11.189   4.867  0.0171 -0.2366  0.1218
53131W        W96184   4.361  18.468  20.780  0.0457 -0.0217 -0.1476
53132W        W96185   2.325  32.018  17.369 -0.1295 -0.0425  0.0151
53133W        W96186  32.742   9.823  22.460  0.0915 -0.2701 -0.0774
53134W        W96187  11.408  12.904  16.247 -0.0529  0.0082  0.2713
53135W        W96188  21.506   7.442   7.519  0.2472  0.0504 -0.3166
53136W        W96189   3.991   4.458   2.776  0.2089 -0.0497 -0.4123
53137W        W96190  12.995  20.050  26.074 -0.0094 -0.1518 -0.1172
53138W        W96191   2.586  17.294   2.745  0.1677  0.3483 -0.3436
53139W        W96192  25.697  21.172   0.440  0.1616  0.0768  0.0676
53140W        W96193   8.290   1.194  15.380  0.0085 -0.1283 -0.0846
53141W        W96194  26.876  22.639  17.624  0.0123  0.2312  0.2595
53142W        W96195  24.418   0.729  21.815  0.1558 -0.0339  0.2387
53143W        W96196  10.325  23.892  21.895  0.4059  0.1612 -0.0833
53144W        W96197  21.654  13.207   0.893 -0.0234  0.0080 -0.1433
53145W        W96198   8.950   5.272  16.334 -0.0906 -0.0620 -0.0892
53146W        W96199  34.472   0.262  23.157 -0.0766  0.0298  0.1519
53147W        W96200  26.142  32.409  23.508 -0.1123  0.0612  0.2480
53148W        W96201   3.885  12.172   4.796  0.1424 -0.1533  0.1595
53149W        W96202  33.719  34.184  14.294  0.2571 -0.0807 -0.0651
53150W        W96203   7.706  28.213  24.805  0.2504  0.3093 -0.3312
53151W        W96204  17.609  19.121  14.437 -0.1348 -0.1765 -0.0815
53152W        W96205   7.612  10.566  28.624 -0.0816  0.2142  0.1844
53153W        W96206  10.835  14.108   7.481  0.0067 -0.3302 -0.1651
53154W        W96207  12.782  11.489   6.861 -0.1676 -0.4299 -0.1840
53155W        W96208  11.357  34.206   6.230 -0.1196 -0.0958  0.1316
53156W        W96209  13.011  31.366   4.927 -0.0997  0.0321 -0.1896
53157W        W96210  31.016  13.089  17.758  0.1554  0.0134 -0.1838
53158W        W96211  18.965  30.100  26.895 -0.3874  0.0191 -0.3163
53159W        W96212  15.324   9.949   4.572  0.1203 -0.1120 -0.2417
53160W        W96213   5.037  32.233   9.436  0.0447  0.2122  0.3467
53161W        W96214  24.102  22.374  10.246 -0.1220 -0.1118  0.0727
53162W        W96215  33.438   3.076  15.603 -0.0064 -0.3912 -0.1517
53163W        W96216  28.541   8.864   9.873 -0.4178  0.1487  0.0477
53164W        W96217  11.062  28.627   9.445  0.0461  0.1166  0.1220
53165W        W96218  14.483   8.217  17.152 -0.0521 -0.1616  0.2440
53166W        W96219  11.663   7.414  27.857 -0.1542  0.2058  0.1269
53167W        W96220  24.653  34.259  19.105  0.2732 -0.2040 -0.4802
53168W        W96221  11.151   6.016  20.300  0.2787  0.1240  0.0937
53169W        W96222  34.511   8.665  28.532  0.1690  0.0134 -0.1910
53170W        W96223  14.108  14.253   0.653  0.0481 -0.2372 -0.0765
53171W        W96224   1.844  13.837  22.989 -0.1708  0.1011 -0.2796
53172W        W96225   0.215   0.500  24.685  0.1911  0.1818 -0.1187
53173W        W96226  21.641  22.015   3.227 -0.0302  0.3815 -0.0254
53174W        W96227  15.046  16.706   4.376  0.0935 -0.3137 -0.0161
53175W        W96228   5.358  32.132  28.302  0.1374 -0.4124  0.1152
53176W        W96229   2.759  14.907  20.367 -0.0592 -0.0895 -0.3687
53177W        W96230   4.424   2.708   8.453  0.0040 -0.1099 -0.0311
53178W        W96231  18.437  24.239   5.726  0.0734  0.1438 -0.1479
53179W        W96232   0.988   0.021   8.853  0.1010 -0.0349 -0.1595
53180W        W96233  16.517   6.088  24.830  0.0713 -0.2044  0.1587
53181W        W96234   2.112  29.234  18.650 -0.1039 -0.0005  0.1861
53182W        W96235  19.132   0.749  22.674  0.2928  0.0719  0.0624
53183W        W96236  11.389  33.814   1.291 -0.1608 -0.0637  0.2201
53184W        W96237  14.757  30.345  16.808  0.0546  0.0614 -0.1868
53185W        W96238  23.047  33.336  28.392 -0.0113  0.3943  0.0494
53186W        W96239  31.237  18.000  22.154 -0.2186  0.0121  0.2525
53187W        W96240  24.564  25.042   5.787  0.3334  0.3861  0.4237
53188W        W96241  13.112  29.665  21.817  0.1217 -0.0850 -0.1352
53189W        W96242  24.101  31.050   3.951 -0.2325  0.0339 -0.1627
53190W        W96243  12.867  12.644   7.779 -0.0413 -0.0738  0.0990
53191W        W96244  18.275   6.662  24.869  0.1352 -0.3241 -0.0986
53192W        W96245   7.697   0.555   3.536  0.0411 -0.1605 -0.3254
53193W        W96246  30.262  13.564   7.216  0.2185  0.3063  0.0048
53194W        W96247  29.989  20.733  25.863  0.1163 -0.2225  0.1458
53195W        W96248  23.355   1.269   9.892  0.3863  0.3420  0.2839
53196W        W96249   1.542  10.875  23.867  0.0089 -0.0319  0.0622
53197W        W96250  14.702  34.645  26.442  0.0101  0.0197 -0.1093
53198W        W96251  32.225   7.578  24.490 -0.1735  0.2295  0.1654
53199W        W96252   1.747  34.415  16.344  0.3253 -0.0682 -0.0647
53200W        W96253  10.122  29.047   1.340  0.0073 -0.3318 -0.0007
53201W        W96254  11.978  19.773   5.907  0.2988 -0.2150  0.0157
53202W        W96255  16.071   1.364  15.283 -0.0387 -0.1628 -0.0780
53203W        W96256   7.856   1.850  28.824 -0.0181 -0.0111  0.2308
53204W        W96257   2.719  28.584  17.543 -0.1819 -0.0304 -0.1763
53205W        W96258   0.516  10.709  27.299 -0.1106  0.1118 -0.0834
53206W        W96259   6.904   2.653  15.382  0.0806 -0.2578  0.3103
53207W        W96260  10.896   1.223   7.607  0.1698 -0.2369 -0.1525
53208W        W96261   9.742   4.548  28.539 -0.2898  0.1384  0.0094
53209W        W96262   7.038  21.631   3.949 -0.1694  0.2294  0.2046
53210W        W96263  26.921   3.205   1.715  0.2073  0.2016 -0.3564
53211W        W96264  24.694  12.057  26.364  0.2903 -0.3672  0.0062
53212W        W96265  27.696  12.668   9.754 -0.0162 -0.1707 -0.0019
53213W        W96266  10.046   6.747  21.366 -0.1209 -0.2945  0.0359
53214W        W96267  16.010   2.605  14.982 -0.1664  0.1343 -0.3264
53215W        W96268  19.844  16.009   6.762 -0.1253 -0.1869  0.0902
53216W        W96269   8.032  25.530  25.647 -0.2259  0.0501  0.0684
53217W        W96270  19.635  25.706  10.545 -0.2076 -0.0243  0.0500
53218W        W96271  25.132   1.632  20.153 -0.0961 -0.1636 -0.0426
53219W        W96272  10.980  32.373  23.511 -0.2142 -0.1335  0.0618
53220W        W96273  18.097  33.932  24.075  0.0611 -0.0117  0.1649
53221W        W96274  18.440   4.500  17.186  0.0983  0.1004 -0.0308
53222W        W96275   9.746  28.631  22.465 -0.0992  0.5509 -0.0905
53223W        W96276  29.885  33.554   8.098  0.1449  0.0090  0.1877
53224W        W96277   1.294   3.152  25.214 -0.2003  0.0528  0.0378
53225W        W96278  10.593   8.605   7.381  0.0129 -0.2664  0.0061
53226W        W96279  31.618  29.440  14.695 -0.0494 -0.2035  0.0296
53227W        W96280  18.200  27.980   8.275 -0.1491  0.0807  0.0658
53228W        W96281  15.672  29.064  27.967  0.1346  0.0811 -0.0390
53229W        W96282  18.737  26.109  26.126 -0.0352 -0.1858  0.2218
53230W        W96283  24.753   3.523   4.041 -0.1631  0.0255 -0.0569
53231W        W96284  13.787   8.104   5.592 -0.0223 -0.0784 -0.0856
53232W        W96285  28.953  28.032  21.866  0.2274 -0.0201  0.2907
53233W        W96286   9.179  25.239  24.352 -0.0807  0.0605  0.0782
53234W        W96287  10.306  16.764  22.763  0.0939 -0.0454 -0.2452
53235W        W96288   8.382   4.963  24.176 -0.0524  0.2059  0.1479
53236W        W96289  11.912  34.458  27.947  0.0529 -0.3963  0.3014
53237W        W96290  22.038  10.748  13.937 -0.2480  0.1126  0.1185
53238W        W96291  21.752  18.815  14.001  0.0140 -0.1073 -0.0855
53239W        W96292   8.426  11.255   1.629  0.0122  0.0896 -0.2454
53240W        W96293  12.335  34.130   6.630 -0.4201  0.0728  0.2098
53241W        W96294  32.668  30.427  27.964  0.0222 -0.2586 -0.1455
53242W        W96295  16.487   6.967  22.288 -0.2875 -0.1375  0.0596
53243W        W96296  32.288  34.202   6.874 -0.2498  0.0809 -0.1423
53244W        W96297  29.412  32.336  28.809 -0.1073  0.1774  0.0009
53245W        W96298   9.901  20.998   6.781 -0.0020 -0.0305 -0.1550
53246W        W96299   3.174  25.874  24.788  0.1551  0.3398 -0.4367
53247W        W96300  23.292  12.304  24.619  0.1628 -0.3835  0.2082
53248W        W96301   3.444  25.662  18.836 -0.1577 -0.4994 -0.2305
53249W        W96302  17.789  31.898  16.756 -0.0744  0.1076  0.0354
53250W        W96303   9.227  10.229  19.488 -0.1901  0.0054 -0.3354
53251W        W96304  10.958   1.552  24.357  0.0534 -0.0484 -0.3088
53252W        W96305  15.893   5.605  22.086  0.2632  0.3609 -0.2070
53253W        W96306  10.669  27.814   7.984  0.0377 -0.2857  0.0394
53254W        W96307  17.897  34.559  17.678  0.2280 -0.2187 -0.0703
53255W        W96308   6.038  32.559   1.028 -0.2524  0.1219  0.0159
53256W        W96309  13.101  29.741  28.870 -0.1829 -0.0809 -0.1838
53257W        W96310  23.695  31.291  24.812 -0.3020  0.0640  0.2735
53258W        W96311  21.612  14.410  27.912 -0.0466 -0.2078 -0.1038
53259W        W96312  17.372   2.246  27.309 -0.3488  0.2530  0.1165
53260W        W96313  33.127  24.782   2.452 -0.2766  0.1580  0.1554
53261W        W96314   5.158   0.436  16.353  0.0511 -0.1165  0.2437
53262W        W96315  17.690  21.918  23.631  0.0746  0.0525 -0.2164
53263W        W96316  19.088  15.623   2.190 -0.0939  0.3848 -0.1365
53264W        W96317  29.045   2.571   1.550  0.3029 -0.1338  0.0513
53265W        W96318   5.882   1.607  19.878  0.0009 -0.0601  0.0508
53266W        W96319   1.237  13.616  26.515  0.2861  0.1108 -0.0979
53267W        W96320  12.143   5.189  10.814 -0.0679 -0.0867  0.3813
53268W        W96321  20.295  10.965  27.992 -0.3153  0.0261  0.0040
53269W        W96322  34.299  29.112  27.123 -0.2505  0.0131 -0.1026
53270W        W96323  17.604  17.886  27.652 -0.2888 -0.4404 -0.0556
53271W        W96324   7.081  28.110  23.225 -0.1449  0.0511  0.0470
53272W        W96325   7.851   6.621  15.530 -0.0116  0.0854  0.3619
53273W        W96326   6.877   6.016  22.643  0.0767 -0.1006  0.2353
53274W        W96327  25.105  21.850   7.435 -0.1316 -0.0307  0.0678
53275W        W96328   8.244  12.280  22.331  0.1982  0.0789 -0.1610
53276W        W96329  15.563  10.923  22.180  0.3904 -0.0088 -0.1912
53277W        W96330  17.222  22.227   3.979 -0.4185  0.0997  0.1295
53278W        W96331  31.964   4.216   7.500  0.1572  0.0663  0.0049
53279W        W96332  17.591  32.298  21.752 -0.0031  0.2155  0.2171
53280W        W96333  18.279  15.486   3.908 -0.0071 -0.0976 -0.0052
53281W        W96334  29.077  19.439   1.589  0.2928 -0.5017  0.0763
53282W        W96335  24.207   5.077  22.442  0.0369  0.0859 -0.1596
53283W        W96336  33.170   0.696  24.280  0.0031 -0.2284  0.0765
53284W        W96337  29.362  10.459   2.013  0.0307  0.0087 -0.0497
53285W        W96338   5.253  10.423  19.991  0.0526 -0.0898 -0.0276
53286W        W96339   5.594  27.733  28.343  0.0613  0.1011  0.1793
53287W        W96340  25.078  24.901  17.893  0.0616 -0.2270  0.0703
53288W        W96341  28.896   6.567   5.499 -0.4267  0.0246 -0.2235
53289W        W96342  21.237  33.414   2.614 -0.2498  0.1466 -0.0120
53290W        W96343   9.218  29.392  16.240 -0.0863  0.4169 -0.0557
53291W        W96344  11.611  10.114  25.847 -0.1119 -0.1421 -0.2321
53292W        W96345  16.934  17.701   8.481  0.1879  0.2556  0.4457
53293W        W96346   2.035  34.533  23.615 -0.2973 -0.2243  0.1065
53294W        W96347  16.492  10.481   9.913 -0.0687  0.0236  0.0265
53295W        W96348   6.659   3.522  26.747  0.2841 -0.2324  0.0901
53296W        W96349  21.773  22.573  27.390 -0.1184 -0.0591  0.2242
53297W        W96350   8.827  31.502  23.177  0.1398  0.1900  0.0235
53298W        W96351   9.353  13.037  10.395  0.0957 -0.2278 -0.0207
53299W        W96352   5.880   1.582  27.536  0.2286  0.1219  0.1374
53300W        W96353  32.586  31.936  26.246  0.0199 -0.0818 -0.1104
53301W        W96354  15.092  12.131   6.346 -0.3343 -0.1757  0.2967
53302W        W96355  24.669   3.357  22.658  0.1702 -0.1023 -0.1051
53303W        W96356  12.025   5.715  18.457  0.0467 -0.2531  0.0834
53304W        W96357   2.359   0.594  26.237 -0.1540 -0.2603 -0.0808
53305W        W96358  19.734  14.695  22.827  0.4988 -0.0009  0.0574
53306W        W96359  33.128   9.552  27.787  0.1338  0.1259  0.0134
53307W        W96360   2.547  33.638  14.796  0.1045 -0.0715  0.4440
53308W        W96361   9.827  11.087   5.868 -0.0308  0.0386  0.2985
53309W        W96362  30.627  26.396  17.659  0.0187 -0.2996  0.1424
53310W        W96363  20.228   8.280   4.032  0.1365  0.1062  0.0680
53311W        W96364   7.215  32.323   2.694  0.1067  0.0426 -0.2381
53312W        W96365   2.475   7.641   2.078 -0.2950 -0.0217  0.1984
53313W        W96366   6.515  33.016  26.875  0.0875  0.0298  0.0849
53314W        W96367  30.786  18.701   4.770  0.0497 -0.0905  0.0321
53315W        W96368  15.758  17.969   1.880  0.0794 -0.0576 -0.1431
53316W        W96369  19.787  34.098  21.916 -0.0893 -0.0608  0.0565
53317W        W96370  21.608  10.609   8.384 -0.1345 -0.1350 -0.1344
53318W        W96371  13.361  33.678  14.308  0.2757  0.1109 -0.2425
53319W        W96372  24.777   6.253   7.215  0.1160 -0.0411 -0.1416
53320W        W96373   3.410   5.146  26.046  0.4822 -0.1400 -0.1795
53321W        W96374   5.874   5.242  16.238  0.1319  0.1357 -0.0472
53322W        W96375  23.451  28.406  16.598  0.0816 -0.0237 -0.2325
53323W        W96376  10.251   6.923   3.663  0.2066  0.1071 -0.2301
53324W        W96377  23.766   1.519   4.061  0.3263  0.1381 -0.0724
53325W        W96378  18.558  19.088   2.598 -0.4568 -0.3275  0.0796
53326W        W96379  14.276  19.761  24.635 -0.2317  0.0358 -0.1256
53327W        W96380  23.328  12.238   7.830 -0.1013  0.1641  0.2388
53328W        W96381   8.984  30.803  20.673  0.2195 -0.1034 -0.1020
53329W        W96382  23.797  31.818   8.976  0.0377 -0.3642  0.3221
53330W        W96383  19.412  12.971  27.626 -0.0667 -0.0708  0.1338
53331W        W96384  15.415  11.953   1.019 -0.3984  0.0154 -0.0087
53332W        W96385   8.429   1.104  25.388 -0.1260 -0.0025  0.0898
53333W        W96386  31.717   7.928  18.006  0.0207  0.2791  0.0553
53334W        W96387  24.617  32.445   5.467  0.2152  0.5853 -0.0263
53335W        W96388  10.316  21.993  16.706  0.0161  0.3183  0.0559
53336W        W96389  24.982   8.386   1.085 -0.0927  0.0013  0.0502
53337W        W96390  10.548  32.910  17.098  0.1657 -0.0059 -0.0398
53338W        W96391   6.967   6.597  26.581 -0.2786 -0.0495  0.3579
53339W        W96392  10.018  13.530  25.473  0.1521 -0.3663 -0.2276
53340W        W96393  14.253   8.128   2.703  0.1034 -0.1985 -0.0751
53341W        W96394   9.573   6.719  19.871 -0.0533  0.2076  0.0842
53342W        W96395  23.303  14.376  21.535  0.1060 -0.3398  0.3089
53343W        W96396   0.146   2.051   6.301  0.0843  0.0584  0.2110
53344W        W96397  15.071   0.376  10.001 -0.1881  0.1096 -0.2013
53345W        W96398  23.732  32.517  24.107 -0.2021  0.1431 -0.2489
53346W        W96399  21.123   0.967  15.240  0.1251 -0.1231 -0.2676
53347W        W96400   8.654  15.006   9.932 -0.2095 -0.1020  0.0679
53348W        W96401   3.225   2.006   0.758 -0.3915  0.0921 -0.1543
53349W        W96402  11.995   0.358  15.158  0.2734  0.2038 -0.1184
53350W        W96403  33.621  28.479  21.004  0.1357 -0.0403  0.2035
53351W        W96404  14.564   0.554  17.875  0.0136  0.3067 -0.3298
53352W        W96405  14.158  33.623   5.715  0.0732 -0.0162  0.1574
53353W        W96406  11.669  22.346   1.718 -0.0877  0.2908 -0.0875
53354W        W96407  14.884  31.523  26.924  0.1777 -0.0257  0.0796
53355W        W96408  26.109   4.986  21.703  0.0774  0.1788 -0.1366
53356W        W96409  24.126   5.106  16.682  0.0852 -0.2864  0.0435
53357W        W96410  25.451  15.719  26.277 -0.0412 -0.2728 -0.2520
53358W        W96411  12.843  12.218   0.362 -0.1628  0.0030 -0.3150
53359W        W96412  18.996   8.303  24.699 -0.4475 -0.0703  0.0762
53360W        W96413  10.078   2.993   5.210  0.1211 -0.0641  0.0253
53361W        W96414  24.963  29.175  25.724 -0.2484  0.1361  0.2562
53362W        W96415   7.055  11.213   3.889 -0.1960  0.0641  0.2157
53363W        W96416  22.477  10.474   2.579  0.0273  0.0107  0.0289
53364W        W96417  27.899   1.267  25.339  0.2399  0.1045  0.2717
53365W        W96418   2.073  21.932  17.067  0.1423  0.0486  0.2723
53366W        W96419  15.288  14.563  15.874  0.3024 -0.4138 -0.1964
53367W        W96420   4.118  28.106  25.261 -0.0240 -0.1093  0.0418
53368W        W96421  14.833  22.522   2.948  0.0848  0.3191 -0.2039
53369W        W96422  11.519  31.136  15.675  0.0850 -0.1341 -0.0326
53370W        W96423   9.000  33.431  16.518 -0.1327  0.1695 -0.3459
53371W        W96424  16.281  19.436   8.327  0.1488 -0.0759  0.3687
53372W        W96425  32.267   8.141  14.869 -0.0579  0.3147  0.2710
53373W        W96426   8.668  14.338  23.350  0.2767 -0.1303 -0.1871
53374W        W96427  28.876  18.405  22.126  0.3876 -0.2800 -0.3329
53375W        W96428   6.250  18.493   8.420  0.0457  0.0608  0.1858
53376W        W96429  13.816  27.543  27.906 -0.1898  0.1456  0.0566
53377W        W96430  33.702   8.584  15.828  0.2315  0.1378  0.2946
53378W        W96431  10.427  33.743  17.335  0.1756 -0.1170 -0.5370
53379W        W96432   0.971  19.464  29.139  0.3461  0.2784  0.0409
53380W        W96433  15.893  12.298  17.074  0.0853 -0.1574 -0.0903
53381W        W96434  11.608  31.721  23.892 -0.2003  0.2892 -0.1433
53382W        W96435   0.824  13.224  15.821  0.2307  0.0599 -0.0739
53383W        W96436  13.022  33.501   0.477 -0.0498  0.2583  0.0316
53384W        W96437  13.927  26.665  25.931 -0.1437  0.2666 -0.1609
53385W        W96438  15.048  15.460  29.049  0.0382 -0.2049 -0.0519
53386W        W96439   0.371  29.886   6.963 -0.1076  0.2117 -0.0069
53387W        W96440  15.870   9.855  16.273 -0.1239  0.1741  0.0443
53388W        W96441  15.718   0.750  17.543  0.1285 -0.0515  0.0884
53389W        W96442  11.942  34.629  17.727  0.1353 -0.2327 -0.1935
53390W        W96443   4.225   1.872  20.869  0.1698  0.0995  0.1759
53391W        W96444  24.577   9.279  20.242 -0.2713  0.1269 -0.0271
53392W        W96445  14.879  13.439   4.114  0.1514 -0.1246 -0.0879
53393W        W96446   6.308  19.040  17.393 -0.0342  0.0782  0.2091
53394W        W96447  11.749  14.603  20.874  0.1453  0.0055 -0.0240
53395W        W96448  30.925   6.830  21.141 -0.1515  0.4429  0.0966
53396W        W96449  15.587  32.045  15.587 -0.0312  0.1251 -0.2904
53397W        W96450   4.435   5.309  17.278 -0.0368 -0.0671 -0.1583
53398W        W96451  11.384   3.316  19.650  0.3102 -0.2524 -0.0576
53399W        W96452  27.242  20.395  24.270  0.2203  0.0780  0.2816
53400W        W96453  20.166  10.317  21.897  0.2773 -0.1444  0.0647
53401W        W96454  17.117  27.079  21.688  0.1101  0.2118 -0.1670
53402W        W96455   7.791  24.401  23.209  0.2648 -0.0789 -0.1096
53403W        W96456   2.543  12.935  27.195  0.0170 -0.2748  0.1008
53404W        W96457   5.269   3.621  21.889  0.0524  0.3018  0.1561
53405W        W96458  17.853   8.234   4.299  0.0455  0.0297  0.4208
53406W        W96459  12.202  26.853  15.212 -0.1773  0.0725 -0.0819
53407W        W96460  17.420   9.949  20.746 -0.1193  0.4423 -0.2304
53408W        W96461  27.382  29.428  17.927 -0.1428  0.2894  0.2882
53409W        W96462  14.916  15.460  23.243 -0.0198 -0.1925 -0.1012
53410W        W96463  19.518   1.114   4.011 -0.0614 -0.3760 -0.1650
53411W        W96464   7.802   9.489  25.493 -0.0205 -0.0307 -0.0370
53412W        W96465   7.428  34.253  19.098  0.2377  0.1176 -0.1179
53413W        W96466  24.645   7.051  14.368 -0.0917  0.1852 -0.1821
53414W        W96467  16.147  26.793   0.770 -0.0759  0.2360 -0.1533
53415W        W96468  15.991   4.314  27.281 -0.0349 -0.3071 -0.0433
53416W        W96469   4.696  15.276  17.109  0.2454 -0.5006  0.0388
53417W        W96470  11.880  33.853  29.177  0.0314 -0.2155  0.3016
53418W        W96471  12.884  21.562  15.555  0.1983  0.2899  0.3079
53419W        W96472  22.898  28.121  26.060  0.1603  0.5308  0.0480
53420W        W96473  10.814  24.966  18.354 -0.1511 -0.0322  0.0528
53421W        W96474   9.555   3.522  15.410 -0.0046 -0.3164  0.2128
53422W        W96475   5.381  28.082  16.038  0.0907  0.0657 -0.1725
53423W        W96476   6.285  15.100  28.797  0.1183  0.0885  0.0446
53424W        W96477   9.439   0.474  16.027  0.2455  0.1131  0.0134
53425W        W96478  21.258  16.365  15.879 -0.0911 -0.0536  0.1247
53426W        W96479  13.673  17.743  26.681  0.3591  0.0059 -0.1825
53427W        W96480  27.409   1.783  17.128 -0.2382  0.0752 -0.1258
53428W        W96481   7.860   4.623  26.757  0.0084  0.0828  0.1481
53429W        W96482  11.630  23.814  22.956  0.2643  0.1310 -0.0073
53430W        W96483  33.688  11.683  24.451 -0.0323 -0.0378 -0.0777
53431W        W96484  26.740  19.963  18.180  0.0163 -0.1190 -0.2754
53432W        W96485   6.451  33.619  20.078  0.3332  0.1911  0.3921
53433W        W96486  15.601   5.830  18.857 -0.1236  0.0150 -0.1759
53434W        W96487  17.220   9.539  20.246 -0.0633  0.0103  0.3415
53435W        W96488  13.515  32.386  16.762 -0.0469 -0.0293 -0.0634
53436W        W96489  28.675  32.878  20.534 -0.0224 -0.2734 -0.3338
53437W        W96490  20.228  20.007  18.618 -0.2171 -0.0506  0.1512
53438W        W96491   3.806   4.426  14.607 -0.0571 -0.0977  0.1592
53439W        W96492   4.939   8.601  21.888 -0.1731 -0.1146 -0.1998
53440W        W96493  16.304  30.345  26.225 -0.1619 -0.3047  0.2403
53441W        W96494   4.999   1.949   1.348  0.1584 -0.1205 -0.1202
53442W        W96495  24.673   2.685  21.817 -0.0021 -0.0120 -0.0290
53443W        W96496  19.478  29.418  28.929 -0.1488 -0.2081  0.0778
53444W        W96497  17.977  34.388  14.439  0.0437  0.0931  0.0425
53445W        W96498  13.136   7.299  16.895 -0.2515 -0.0343 -0.0875
53446W        W96499  30.712   2.978  19.813 -0.2281  0.0016  0.1152
53447W        W96500  15.995  31.822  19.096 -0.0715  0.0032 -0.1526
53448W        W96501  17.773  11.033  18.367  0.2682  0.1282  0.1812
53449W        W96502   2.064  11.600  20.293 -0.0915  0.1015 -0.0756
53450W        W96503   4.859  11.554  28.147  0.2899  0.0624  0.1801
53451W        W96504  14.391   8.094  18.233 -0.1012 -0.1056  0.1434
53452W        W96505  28.719  13.504  19.898  0.2062 -0.1779 -0.0088
53453W        W96506  16.789   0.027  24.798 -0.0724  0.1846  0.0175
53454W        W96507   9.670  32.184   5.903 -0.0180 -0.1182 -0.0489
53455W        W96508   8.306   1.722  17.282 -0.1146  0.0555 -0.0286
53456W        W96509  10.372  17.680  14.716 -0.1779 -0.0309 -0.1386
53457W        W96510  16.251   1.379  19.634  0.0444 -0.1194 -0.3090
53458W        W96511   2.253  21.753  14.369  0.1024 -0.3476  0.1099
53459W        W96512  21.764  26.851  18.057  0.1006  0.2072  0.1041
53460W        W96513   5.068  25.320  14.519  0.0178  0.0144  0.4499
53461W        W96514  17.795   3.146  27.531 -0.0181 -0.0799  0.1217
53462W        W96515  34.371   6.414  23.421  0.1043  0.1753 -0.1367
53463W        W96516  29.268  14.268  18.045 -0.0231 -0.3568 -0.0886
53464W        W96517  22.134  13.543  17.025 -0.0722 -0.1408 -0.2011
53465W        W96518  33.542   6.296   5.143 -0.4687 -0.1756 -0.0612
53466W        W96519  18.282   8.117  16.992 -0.0181  0.1923 -0.4122
53467W        W96520   7.569   0.872  24.689 -0.1375 -0.3592 -0.3079
53468W        W96521  11.490  13.803  19.111 -0.3319  0.0848  0.1723
53469W        W96522  17.815  31.804  17.675  0.1696 -0.1281 -0.3867
53470W        W96523  11.162  26.030  19.606 -0.0517 -0.4009 -0.2071
53471W        W96524  23.872   5.578  18.039 -0.0646  0.0854  0.1608
53472W        W96525  14.041   4.054  27.326 -0.3227 -0.2158  0.0865
53473W        W96526   1.344   6.857  16.898 -0.0098 -0.1315  0.0440
53474W        W96527  15.952   2.643   0.826 -0.0686  0.1660  0.2540
53475W        W96528  21.116   8.157  19.751  0.1137  0.0652 -0.3403
53476W        W96529  11.866   5.318  27.765  0.0706 -0.3673  0.2192
53477W        W96530  13.997  30.581  16.125  0.2067  0.1935  0.0496
53478W        W96531   1.686  14.190  17.354 -0.0396  0.1365  0.0491
53479W        W96532  17.270  15.220  15.019  0.0280 -0.0254 -0.0272
53480W        W96533  11.382   7.966   4.736  0.3997 -0.1344  0.0443
53481W        W96534   9.435  11.929   0.220  0.3292  0.0708 -0.0001
53482W        W96535   9.851  31.678   7.298 -0.3272  0.2129  0.1811
53483W        W96536  26.552   8.674   7.808  0.4108 -0.0543 -0.1977
53484W        W96537   2.662  34.148  22.979  0.1148  0.0017  0.0117
53485W        W96538  20.298   2.656   6.560 -0.1569  0.2312  0.1830
53486W        W96539  17.656  25.628  14.292 -0.0682 -0.0505 -0.0222
53487W        W96540  20.402   2.619  16.233  0.1606 -0.1997  0.1120
53488W        W96541  14.528  28.383  15.363 -0.2354  0.4296 -0.0745
53489W        W96542  18.102   7.164  22.406 -0.0406 -0.0680  0.0100
53490W        W96543   2.353   5.446  25.018  0.2903 -0.3311  0.1637
53491W        W96544   8.531   9.038  19.636 -0.0176 -0.3774 -0.0833
53492W        W96545  14.210  16.301  17.238  0.0964  0.0609 -0.0054
53493W        W96546   9.905  26.779  16.706  0.1613 -0.0005 -0.0262
53494W        W96547  25.179  27.564  20.763  0.0583  0.1164 -0.1192
53495W        W96548  25.313  11.712  27.455 -0.4752  0.1190 -0.0199
53496W        W96549   3.900  11.577  16.460 -0.3543 -0.2328  0.3652
53497W        W96550  28.805   7.110  16.756 -0.1132 -0.1757  0.0534
53498W        W96551  27.144  32.306  15.029 -0.3151 -0.0098  0.2941
53499W        W96552  19.333   1.461  17.826  0.0306  0.2901  0.2196
53500W        W96553  21.586  11.027  19.366 -0.2601  0.1763 -0.3834
53501W        W96554  23.533  17.252  24.828 -0.0444  0.0374  0.0815
53502W        W96555  18.328  26.619  23.556 -0.1247  0.1167 -0.0933
53503W        W96556  14.935   4.142  22.288  0.0417  0.2048  0.2148
53504W        W96557   5.069  28.849  15.782 -0.1465  0.2038  0.0708
53505W        W96558  28.946  11.901  23.211  0.0147 -0.0986 -0.0865
53506W        W96559  26.150  31.787  22.238  0.1327  0.1965 -0.2136
53507W        W96560  16.484  34.525  14.856 -0.0185  0.1941 -0.2304
53508W        W96561  18.587  10.552  18.599 -0.1209  0.2384 -0.0037
53509W        W96562  13.187  33.404   7.539 -0.1444 -0.1333 -0.0129
53510W        W96563  34.661   6.134  15.739  0.0043 -0.1303  0.1440
53511W        W96564  28.364   4.008  15.650  0.1038 -0.1483 -0.2651
53512W        W96565   5.394  20.136  25.194  0.0421 -0.1284 -0.1300
53513W        W96566   8.648   1.565  16.922 -0.3815 -0.0249  0.0234
53514W        W96567  14.652  20.560  17.493 -0.1274  0.0049  0.1115
53515W        W96568  23.972   4.406  16.030  0.1436 -0.2317 -0.0508
53516W        W96569   6.574   5.786   1.950  0.2952 -0.1902 -0.2245
53517W        W96570  12.787  15.180  15.836  0.0855 -0.1366 -0.2653
53518W        W96571  26.558   5.173  28.672  0.0415 -0.0261  0.0714
53519W        W96572   0.592   0.293  18.574 -0.0654  0.1987 -0.1996
53520W        W96573  17.046  13.639  24.510 -0.0215  0.1443  0.0916
53521W        W96574   8.894   8.776  21.677 -0.1883  0.2602 -0.0192
53522W        W96575  25.850  28.041  20.569 -0.2475 -0.1233 -0.2154
53523W        W96576  23.942   1.851  14.381  0.0242  0.2123  0.0047
53524W        W96577   9.811   4.831  18.899 -0.1549  0.3481 -0.0664
53525W        W96578   7.213  34.213  19.981 -0.0207  0.1605 -0.2746
53526W        W96579  12.563  15.046  15.161 -0.1412 -0.1085 -0.2395
53527W        W96580  34.577   1.583  23.405  0.2401  0.0384  0.2774
53528W        W96581  11.604   9.971  18.442  0.1300  0.1817  0.2774
53529W        W96582  15.614  29.191  15.745 -0.2102  0.0157 -0.0453
53530W        W96583   7.319   6.964   4.339  0.1335 -0.0554 -0.0261
53531W        W96584  15.075  11.962  20.603 -0.0023 -0.1712  0.1811
53532W        W96585  32.856  10.869  15.782  0.0439 -0.1329 -0.0036
53533W        W96586  11.031  23.588  13.259 -0.0779  0.0776  0.0404
53534W        W96587  16.396  10.180   5.670 -0.1920  0.2651 -0.0219
53535W        W96588   7.944  29.996  17.728 -0.1737 -0.0959  0.0156
53536W        W96589  12.185  12.314  18.375  0.4613 -0.2069  0.0991
53537W        W96590   6.387  18.727  16.848  0.0641 -0.1340 -0.0926
53538W        W96591  21.614   1.784   1.648 -0.4759  0.1072 -0.0588
53539W        W96592   8.307  25.208   6.147  0.2070 -0.2600  0.4216
53540W        W96593   0.966  10.338  15.740 -0.2905 -0.2074  0.0409
53541W        W96594   7.819   9.455  15.772  0.0855  0.0114  0.0404
53542W        W96595  13.696  27.960  19.891 -0.0379  0.3135  0.1326
53543W        W96596  23.948   6.582   3.837  0.2611 -0.1932 -0.4142
53544W        W96597  13.687  30.924  21.569  0.0081  0.0265  0.0864
53545W        W96598  33.407  28.546  14.017  0.0068  0.1283  0.1035
53546W        W96599  11.266  20.959  17.920 -0.0165  0.2233 -0.1288
53547W        W96600  26.949   8.147  19.797  0.0427  0.0941 -0.1360
53548W        W96601   8.428   5.995  26.842  0.0278 -0.0272 -0.1817
53549W        W96602   6.623   1.285  27.974  0.3615  0.1028  0.0412
53550W        W96603   8.291   6.189  19.999  0.1403 -0.4683 -0.4670
53551W        W96604   7.112  31.486  14.794  0.0523  0.1053 -0.3178
53552W        W96605  12.004   5.064  25.428 -0.0249 -0.1072  0.0281
53553W        W96606  22.306  15.753  20.066  0.0524 -0.1879  0.3577
53554W        W96607  12.605   1.513   2.530  0.0892  0.0040 -0.3180
53555W        W96608  22.532  33.590  15.629  0.2582 -0.0565  0.3934
53556W        W96609  22.729  30.306  25.322 -0.0971 -0.3596  0.3041
53557W        W96610   8.454  31.455  16.893  0.0161  0.0946  0.0167
53558W        W96611   6.903  32.690  16.476 -0.1631 -0.0277 -0.1204
53559W        W96612  15.869   9.350  21.835 -0.2269  0.0168 -0.0718
53560W        W96613   8.237  18.021  22.629  0.1740  0.1636  0.3820
53561W        W96614   0.662  26.458  20.555  0.2461  0.1007 -0.1345
53562W        W96615  12.213  20.424  13.700 -0.0957  0.0192 -0.0032
53563W        W96616  32.139  12.096  14.022 -0.1611 -0.1932  0.1084
53564W        W96617  24.489   2.412   3.375  0.0578  0.1299  0.0363
53565W        W96618   9.999  13.589  17.586  0.1760 -0.2385 -0.0025
53566W        W96619  17.751  29.689   2.270  0.0815 -0.1523 -0.3193
53567W        W96620   4.686   5.340  14.635  0.2136  0.0665 -0.1120
53568W        W96621  21.161  12.515   2.179  0.1312 -0.1627 -0.1131
53569W        W96622   6.158  18.225  25.558  0.1057 -0.1641  0.0129
53570W        W96623   4.993  27.632  26.087 -0.1364 -0.0486 -0.1456
53571W        W96624  28.114  30.918   0.061  0.1749 -0.2417 -0.1649
53572W        W96625   9.914   9.154  27.392 -0.0203  0.1493  0.0891
53573W        W96626  12.765  12.514  15.049  0.0029  0.2304 -0.0413
53574W        W96627  10.385   9.890  19.808  0.2372  0.1941 -0.0797
53575W        W96628  31.899  15.385  19.652  0.1716  0.1605  0.0637
53576W        W96629  29.221  15.952  14.591 -0.1607 -0.0832 -0.0597
53577W        W96630  16.657   0.090  18.890  0.1287  0.0865 -0.0585
53578W        W96631   3.910   6.875  14.146  0.1133  0.0273 -0.0482
53579W        W96632  21.359  26.679  23.194  0.3397 -0.3641  0.2956
53580W        W96633  11.083   3.384  15.496 -0.0147  0.0551  0.0537
53581W        W96634  18.997  31.824  16.898  0.0326 -0.1833 -0.2592
53582W        W96635  16.055  26.839  16.802 -0.0120  0.4347 -0.3703
53583W        W96636  24.647  30.381  21.730 -0.0274 -0.0952  0.0110
53584W        W96637  12.577  25.711  13.803 -0.3942  0.2107 -0.3028
53585W        W96638   1.592   0.598  22.145 -0.1910  0.1856 -0.1061
53586W        W96639   0.793  29.811  20.607  0.3237  0.3813 -0.3259
53587W        W96640  13.334  29.833  16.183 -0.2354 -0.0548  0.0472
53588W        W96641   6.226  34.638   2.817 -0.0365 -0.2456  0.2306
53589W        W96642  31.177   1.722  15.589  0.0344  0.0009  0.1286
53590W        W96643   7.803  22.070   0.756  0.0932 -0.2073 -0.1192
53591W        W96644   8.804  29.514  21.196  0.0404  0.2680  0.0668
53592W        W96645  11.429  14.679  21.315  0.1867 -0.1322 -0.1156
53593W        W96646  28.323   6.129  23.984  0.1195  0.1037 -0.1591
53594W        W96647   5.911   4.230  15.816  0.2325 -0.0833  0.2419
53595W        W96648  15.941   7.411  25.064  0.1114  0.0372  0.1183
53596W        W96649  19.363   9.541  22.597 -0.2422 -0.0834 -0.0444
53597W        W96650   3.892   8.847  17.504  0.1808 -0.1757  0.0072
53598W        W96651  21.788  34.033  24.977  0.0116  0.0710 -0.0932
53599W        W96652  24.587  20.220  14.632 -0.1957 -0.0640  0.1302
53600W        W96653   8.501   6.121  22.011 -0.2222 -0.2343 -0.0827
53601W        W96654  13.721   9.236  19.273  0.2169 -0.0318  0.0487
53602W        W96655  20.351   0.687  25.785 -0.2224  0.2064 -0.0054
53603W        W96656  16.495  10.954  19.171  0.1369 -0.0505  0.1302
53604W        W96657   0.617  33.500  17.757  0.0285 -0.0469  0.1571
53605W        W96658   6.461   2.785   0.719 -0.2355  0.0579 -0.2265
53606W        W96659  13.054  31.365  24.796 -0.1217 -0.0591 -0.0214
53607W        W96660   8.795  23.232   4.176  0.1341 -0.3017  0.1021
53608W        W96661   3.031  17.064   2.544  0.1253  0.0744 -0.0655
53609W        W96662   9.718  34.676  22.823 -0.1019  0.1158  0.0367
53610W        W96663  27.024   4.526  15.322  0.2265 -0.0460  0.0224
53611W        W96664  12.470  13.025  19.094  0.0090  0.2181  0.0380
53612W        W96665  18.801   5.181  23.746 -0.0230  0.1065 -0.0488
53613W        W96666  34.455   3.394  16.104  0.3022 -0.1739 -0.4192
53614W        W96667   9.082  30.681  22.213 -0.0015  0.2113  0.1641
53615W        W96668  17.769  33.188   0.029  0.1589  0.0759 -0.0047
53616W        W96669  13.633  14.169  15.316 -0.1824 -0.4410  0.0824
53617W        W96670  28.325  15.477  23.345 -0.0100 -0.2083  0.0429
53618W        W96671  12.642   6.735  18.107  0.0115 -0.3482 -0.0720
53619W        W96672  16.020  10.022  18.773  0.0272 -0.2086 -0.0229
53620W        W96673   9.817  31.408  28.126  0.0821 -0.1270  0.0842
53621W        W96674   9.839  11.675  27.015  0.0065  0.0647 -0.0772
53622W        W96675   0.032  33.500   5.867  0.1938  0.1936 -0.1308
53623W        W96676  28.156   0.510   1.947 -0.2086  0.1237  0.1347
53624W        W96677  27.370   4.030  22.291 -0.1755 -0.0690 -0.1068
53625W        W96678   5.540   9.430  28.412 -0.0622  0.3846  0.2023
53626W        W96679  24.802  21.709  27.738  0.3727  0.1349 -0.3503
53627W        W96680  12.721  24.684  16.544 -0.0464  0.1853 -0.0115
53628W        W96681  33.719   0.256  15.161 -0.2934  0.0364 -0.2090
53629W        W96682  23.590  23.752  20.286 -0.2608  0.1226  0.0242
53630W        W96683  31.298   2.297  14.840 -0.0088 -0.0648 -0.0973
53631W        W96684  16.451   9.994  23.825 -0.3862 -0.0442  0.1057
53632W        W96685  11.183   1.441  22.989  0.1951  0.2337 -0.0456
53633W        W96686   9.570   9.424  27.628  0.0794  0.0747  0.0347
53634W        W96687   6.726   4.600  21.242 -0.3978 -0.3286 -0.2715
53635W        W96688  19.137  11.081  18.481  0.0589  0.1424  0.2591
53636W        W96689  27.927  29.660  25.794  0.0674  0.0530 -0.0486
53637W        W96690  16.233   7.018  17.591 -0.2758 -0.0710  0.1438
53638W        W96691  17.207   6.651  23.785 -0.1014 -0.2925 -0.2538
53639W        W96692   3.330  32.613  21.220 -0.3274  0.1295 -0.0102
53640W        W96693   4.556   6.320   0.783 -0.1167 -0.1569  0.1516
53641W        W96694  14.513   3.074  18.146 -0.0969 -0.2200  0.1258
53642W        W96695  15.946  10.342   2.060  0.1024  0.1091 -0.0293
53643W        W96696   7.962  28.355  26.937 -0.0292  0.1173  0.3098
53644W        W96697  16.447  18.800  24.773 -0.0569  0.2011 -0.0283
53645W        W96698   1.337  19.041   0.160 -0.1149  0.3652 -0.2013
53646W        W96699  27.536  34.574  16.397 -0.2693  0.1956  0.3056
53647W        W96700  16.228   7.136  27.073 -0.0600  0.1184 -0.0028
53648W        W96701   2.182  18.925   5.637  0.1562  0.1471 -0.0483
53649W        W96702  21.513  10.486  19.718 -0.0080 -0.1936 -0.1595
53650W        W96703  19.240   5.805  15.115 -0.1891 -0.1977  0.0852
53651W        W96704   5.562  34.146  17.381 -0.0325  0.2301 -0.1511
53652W        W96705  12.035   9.711  15.405  0.1945  0.0744  0.1462
53653W        W96706  13.814  32.903  14.147 -0.0489  0.0187  0.3067
53654W        W96707   9.778   2.810  25.129  0.2190 -0.2771 -0.1153
53655W        W96708  16.136   8.296  19.072  0.0880  0.2288 -0.0983
53656W        W96709   9.133   0.806  22.639  0.1150  0.0445 -0.3517
53657W        W96710  13.015   8.667  16.964  0.1039 -0.1739 -0.0118
53658W        W96711  18.033   3.176  28.810  0.3210 -0.0086 -0.1762
53659W        W96712  30.063   4.648  24.239  0.1851 -0.1247  0.1154
53660W        W96713   9.873   1.235  27.946 -0.0815  0.0308  0.4181
53661W        W96714  20.812  14.934  16.643  0.1864  0.1410 -0.2723
53662W        W96715  15.586   3.118  16.172  0.0934 -0.2955  0.2405
53663W        W96716   5.535   5.359  20.056  0.1145  0.4426 -0.1220
53664W        W96717  11.210  23.738  16.505 -0.0853  0.0815 -0.1375
53665W        W96718   7.804   7.832  27.890  0.1245  0.1472  0.1401
53666W        W96719  11.223  33.751  22.602  0.0527 -0.1506  0.0823
53667W        W96720   4.986  15.413  14.316 -0.1415 -0.0360  0.1407
53668W        W96721  15.581   1.522  16.534 -0.0724  0.3517 -0.0344
53669W        W96722  22.707   3.625  17.473 -0.0580  0.0627 -0.0842
53670W        W96723  13.516  12.538  22.980  0.4308 -0.4505 -0.2272
53671W        W96724  20.807  11.684  19.411  0.1090 -0.1215 -0.2198
53672W        W96725  10.404  24.264  19.615  0.0223  0.1563  0.5668
53673W        W96726  17.319  22.392   0.489 -0.0734  0.0705  0.0357
53674W        W96727   0.107   1.594  14.237 -0.0154 -0.0373 -0.2962
53675W        W96728   8.004  28.829  18.172 -0.3227  0.2028  0.0236
53676W        W96729  24.747   5.250  15.198 -0.0753  0.1944  0.1594
53677W        W96730  10.366  16.945  15.939  0.2070 -0.0411  0.0593
53678W        W96731  19.495   9.232  19.696 -0.2723  0.2829 -0.4116
53679W        W96732  18.221  31.414  19.925 -0.0501  0.1898  0.1718
53680W        W96733   3.631   2.998  25.149 -0.1570 -0.0255 -0.1409
53681W        W96734   8.215  16.801  27.469  0.0801 -0.1338 -0.0485
53682W        W96735  14.460   0.398  28.080 -0.2153 -0.2054  0.1610
53683W        W96736  21.579  34.582  14.996 -0.1071  0.0554 -0.2026
53684W        W96737  14.347   5.176  15.716 -0.0360 -0.0632  0.0267
53685W        W96738  27.514  32.180  15.368  0.0774 -0.0121 -0.0803
53686W        W96739   5.095   7.108  21.401  0.0814 -0.0489 -0.3583
53687W        W96740  15.228  16.709   0.887  0.0050  0.2776  0.0100
53688W        W96741  18.338  33.397  19.112 -0.1677  0.0899 -0.2143
53689W        W96742   6.030  34.349  17.548 -0.0629 -0.1126 -0.3539
53690W        W96743   6.046   3.805   6.663  0.0901  0.1333  0.0029
53691W        W96744  18.575  29.403  16.010  0.1776 -0.0011  0.3099
53692W        W96745  34.643   1.234  17.813  0.0058 -0.1100  0.2285
53693W        W96746  12.307  19.612  14.108 -0.1501  0.2167  0.1475
53694W        W96747  10.290  26.919   1.312  0.1575  0.0356  0.0988
53695W        W96748  11.070   8.109  14.840  0.1508  0.0462  0.0490
53696W        W96749  14.485   6.726  20.177  0.0243  0.1985  0.1743
53697W        W96750  12.281  31.542  26.943  0.1805  0.0932  0.1170
53698W        W96751   1.232   7.448  17.078 -0.0001  0.2036  0.3711
53699W        W96752  13.957  33.487  21.349 -0.0370  0.1855  0.3024
53700W        W96753   7.340   4.410  19.047 -0.0367  0.0491  0.0677
53701W        W96754   8.515   1.511  14.333  0.0304  0.0553  0.1680
53702W        W96755  16.777   3.846  18.285 -0.1607  0.0427 -0.0457
53703W        W96756   4.394   7.415  21.980  0.1351  0.0608 -0.1850
53704W        W96757  11.444  13.687  21.297 -0.0538 -0.1252 -0.0562
53705W        W96758  34.232   7.219  22.451  0.2806  0.3035  0.2505
53706W        W96759   4.703  24.301  21.072 -0.1582  0.0932 -0.0233
53707W        W96760   2.969  19.980  28.105 -0.1082  0.0185 -0.0206
53708W        W96761  18.959  14.017   0.510 -0.0982 -0.0651 -0.3267
53709W        W96762   4.184  24.498  21.135  0.1540  0.1263 -0.2391
53710W        W96763  17.516  33.762  17.474 -0.1919 -0.1124  0.2074
53711W        W96764  12.647   2.701  19.832  0.0870 -0.3488 -0.1766
53712W        W96765  19.509   2.415  17.570 -0.3921  0.1514 -0.1854
53713W        W96766  27.368  33.627  17.759 -0.2980  0.0513 -0.3499
53714W        W96767   3.898   9.541  13.976 -0.3903  0.2754 -0.1687
53715W        W96768  10.862  33.502  22.955  0.0800 -0.2424  0.3466
53716W        W96769  18.695  32.994  23.430 -0.1322 -0.1167  0.1658
53717W        W96770  26.411  16.852  14.149  0.2191  0.0409 -0.2314
53718W        W96771  33.969  23.611  22.935 -0.0886 -0.1375 -0.2303
53719W        W96772   3.007  22.911  27.684  0.1052 -0.1406  0.1406
53720W        W96773  25.828  31.116  18.244 -0.0266  0.1154 -0.1215
53721W        W96774   8.091   6.050  16.573 -0.0113  0.1667 -0.1871
53722W        W96775  11.472  11.863  16.522  0.0132  0.0510  0.1394
53723W        W96776   6.796  22.919  14.207  0.0475 -0.0798 -0.0088
53724W        W96777  31.857   2.789  25.762  0.2742  0.0570 -0.0251
53725W        W96778  18.905  33.981  25.838 -0.0557  0.2723  0.0198
53726W        W96779   4.382   8.936  21.241 -0.2293 -0.0522  0.3029
53727W        W96780  21.251  11.936  22.842 -0.0640  0.0865 -0.0379
53728W        W96781  21.175   1.008  27.168  0.0528  0.2255  0.2322
53729W        W96782  18.798  25.603   4.895 -0.2401 -0.0558  0.2806
53730W        W96783  20.766  24.749  26.942 -0.0076  0.1104  0.2838
53731W        W96784   7.813   3.484  23.856  0.2905 -0.1626 -0.0500
53732W        W96785  27.159  28.526  16.278 -0.1534 -0.1104 -0.0226
53733W        W96786  29.959   2.814  17.965 -0.1301  0.1712  0.0181
53734W        W96787   6.110   2.250  28.820 -0.0354 -0.0618  0.2259
53735W        W96788   7.277   3.333  23.534 -0.4172  0.1019  0.0207
53736W        W96789  13.915   5.741  17.743  0.1940 -0.0556 -0.0401
53737W        W96790  16.078  33.743  18.335 -0.0389  0.3195 -0.0657
53738W        W96791  19.892  15.841  22.309  0.0051  0.3193  0.1268
53739W        W96792  29.504   7.256  17.437 -0.4075 -0.1363  0.0405
53740W        W96793   5.693  32.328  16.928  0.1425 -0.2577 -0.0310
53741W        W96794  12.895  15.925  21.717 -0.0919  0.1213 -0.1397
53742W        W96795  17.978  31.369  28.576 -0.0026 -0.0959 -0.1973
53743W        W96796  17.854   1.579  14.920  0.0005  0.1346  0.3790
53744W        W96797   5.370  10.113  20.413  0.3572  0.0153 -0.2185
53745W        W96798  32.877  11.290  15.219  0.2387 -0.3675 -0.0000
53746W        W96799  17.877   4.383   2.350  0.1328  0.0567 -0.2931
53747W        W96800  14.427   3.428  24.429  0.0675  0.1765 -0.1771
53748W        W96801  31.155  31.760  20.087 -0.0989 -0.0747 -0.1371
53749W        W96802  14.763   2.921   0.453 -0.3070 -0.1720  0.3198
53750W        W96803  17.600   7.693  17.378  0.2449 -0.1598  0.0269
53751W        W96804  12.816  32.640  18.314 -0.2250  0.0247  0.0557
53752W        W96805  11.069  10.161   5.502 -0.0506  0.0920  0.1580
53753W        W96806   5.752   9.349   4.454 -0.1490 -0.2127  0.0225
53754W        W96807  22.865  27.947  23.391 -0.2571 -0.0558 -0.0478
53755W        W96808  12.411   6.320  20.964 -0.0830 -0.1031  0.1559
53756W        W96809   1.353   4.913  18.588  0.2986  0.2010  0.0800
53757W        W96810  13.600  30.974  20.246 -0.1139 -0.1967  0.1173
53758W        W96811  13.991  11.050  18.593 -0.2277  0.0117  0.4380
53759W        W96812  33.742  34.585  27.934 -0.0426  0.0733 -0.1943
53760W        W96813  26.529   2.514  23.059  0.2428 -0.0520 -0.1285
53761W        W96814  17.066   8.106   6.972 -0.2514 -0.2671  0.0076
53762W        W96815  12.925  33.814  28.300 -0.0763  0.0638  0.0008
53763W        W96816  13.652  32.733  21.011  0.2330  0.0792  0.1905
53764W        W96817  13.640  30.647   8.445 -0.3173  0.0145  0.0865
53765W        W96818   5.141   3.510  28.765 -0.0901  0.1650 -0.0835
53766W        W96819  18.344  29.144   0.584  0.3421 -0.5442 -0.1515
53767W        W96820  11.348   7.366  20.428 -0.2907  0.2308  0.3287
53768W        W96821  20.120  27.622   0.750  0.0863  0.1241  0.2415
53769W        W96822  28.191  13.680  26.656 -0.1375 -0.2074 -0.1000
53770W        W96823   7.905  25.541  16.625 -0.0866 -0.0740 -0.1739
53771W        W96824   8.167  30.149  14.287  0.2083  0.1325 -0.2337
53772W        W96825   3.446  22.897  21.847  0.3063 -0.3099 -0.1532
53773W        W96826  14.299  19.377  14.526  0.2837  0.1470 -0.0308
53774W        W96827  25.482  29.430  25.857  0.2745 -0.2189  0.0726
53775W        W96828   7.201   6.286   0.328  0.0564 -0.0702  0.0567
53776W        W96829  17.073  27.763  23.133  0.1114 -0.1632 -0.0262
53777W        W96830  15.780  25.760  23.584 -0.2074  0.0514 -0.2241
53778W        W96831   9.071  12.625  21.396  0.0596  0.0433 -0.4274
53779W        W96832  16.172  11.659  17.819  0.2931 -0.0034 -0.0527
53780W        W96833  13.256  33.490  15.606  0.1292 -0.0585 -0.2908
53781W        W96834  20.080   2.699  14.545  0.1503  0.1602  0.3189
53782W        W96835  13.330  18.301  16.602  0.0391  0.1710 -0.3048
53783W        W96836   4.382   4.640  27.430  0.2758 -0.2463 -0.1412
53784W        W96837   9.790   8.787  17.000  0.0798 -0.2739  0.5276
53785W        W96838   8.246  31.299  14.611 -0.3923 -0.0639 -0.1301
53786W        W96839  24.970  19.561  16.536 -0.1128  0.0726  0.0895
53787W        W96840   8.924  19.567  15.085 -0.1098 -0.1168 -0.1388
53788W        W96841   4.166   6.646  14.635  0.3148  0.2306 -0.1604
53789W        W96842  29.512  26.051  10.023 -0.0357  0.0350 -0.0881
53790W        W96843   7.824  17.829  21.727 -0.1289 -0.0961 -0.0166
53791W        W96844  15.449  29.771  19.962  0.0675  0.0424  0.2214
53792W        W96845   6.385   7.829  17.510 -0.1027  0.0598 -0.0066
53793W        W96846  26.770  11.615  27.660 -0.0941  0.1570  0.0493
53794W        W96847   7.631   1.138   3.664  0.0014  0.0218 -0.0053
53795W        W96848   5.676  17.593  14.942  0.4070  0.2158 -0.2615
53796W        W96849  15.549  10.384  24.701 -0.4609  0.2939  0.0481
53797W        W96850  22.579  23.766  25.802  0.2034 -0.5996  0.1234
53798W        W96851  21.480   1.503  19.912  0.1806 -0.0086 -0.1884
53799W        W96852  21.395   2.855  16.719 -0.2191 -0.2099 -0.0105
53800W        W96853  15.182   4.990  23.240 -0.0161  0.2934 -0.0758
53801W        W96854   5.296   9.699  26.498  0.3059  0.1479 -0.2811
53802W        W96855   6.076  34.152  21.940 -0.3745  0.0447 -0.1190
53803W        W96856   6.944  13.173  21.061  0.0193 -0.0908  0.0621
53804W        W96857  10.699  24.204  22.040 -0.1949 -0.0384 -0.1390
53805W        W96858  18.754   9.007  18.183 -0.1372 -0.3000  0.4158
53806W        W96859  14.044   3.795  29.049  0.1522  0.2226  0.1196
53807W        W96860   3.833  29.935  28.854 -0.0195  0.4458  0.1850
53808W        W96861  13.218  33.173  27.091  0.0656  0.3563 -0.1366
53809W        W96862   8.546   1.876  14.910  0.0283 -0.2678  0.0805
53810W        W96863   3.578  19.861  24.375 -0.0151 -0.0620  0.0516
53811W        W96864  16.757   8.990  28.682  0.0679 -0.2130  0.2128
53812W        W96865   3.215  15.272  17.852  0.1138 -0.1072  0.1885
53813W        W96866  15.515  11.237  18.164  0.1040  0.0333  0.0815
53814W        W96867  24.278   4.494   7.726 -0.2663 -0.0192 -0.2030
53815W        W96868   0.473   9.189  19.277  0.2507 -0.1477 -0.1889
53816W        W96869  15.402  17.946  22.817 -0.0003 -0.0953 -0.0075
53817W        W96870  24.198  13.355  20.429 -0.0634  0.1391  0.2971
53818W        W96871   4.186   3.341  25.968 -0.1124  0.1766 -0.0372
53819W        W96872   8.532   7.116  18.091 -0.3105  0.0966  0.1229
53820W        W96873   5.967  13.844  24.444  0.0167 -0.1961  0.0162
53821W        W96874  27.470  15.359  26.813  0.1547 -0.1678 -0.4731
53822W        W96875   7.113  33.862  18.822  0.0579  0.2354  0.2318
53823W        W96876  14.787  33.592  24.420 -0.4257  0.1392 -0.1425
53824W        W96877   2.721  22.771   4.112  0.1364  0.3420 -0.1940
53825W        W96878  19.641   6.932  26.680  0.0494 -0.1495 -0.1688
53826W        W96879   2.688   9.362  14.745  0.0011  0.4255 -0.3576
53827W        W96880   7.239   3.779  15.903 -0.0435 -0.1947 -0.0755
53828W        W96881  30.780  12.601  17.741  0.1783 -0.0700 -0.0800
53829W        W96882  22.223   6.385   2.399  0.1452 -0.1216 -0.2124
53830W        W96883  27.596   0.638  28.999 -0.0329 -0.0582 -0.1384
53831W        W96884   2.741   4.530  21.664  0.2033  0.0399 -0.1714
53832W        W96885  15.657   2.609  20.651 -0.1201  0.0061  0.1006
53833W        W96886  17.295  11.671  23.136  0.0509 -0.2545 -0.0777
53834W        W96887  16.038   1.258   3.184 -0.1757 -0.1805 -0.0799
53835W        W96888  26.882   8.958  14.271  0.0293 -0.2147 -0.0337
53836W        W96889  20.569   0.377  15.254 -0.2152 -0.2053  0.0846
53837W        W96890  21.698  27.881  19.547 -0.0082  0.0777  0.4406
53838W        W96891  13.541   3.122  17.238  0.0211  0.1387  0.4412
53839W        W96892   1.231   2.931   9.395  0.0326  0.0315  0.2370
53840W        W96893  17.899  33.245  21.841 -0.1305 -0.3396  0.2164
53841W        W96894  26.942  32.856   5.104  0.0183 -0.0710 -0.0826
53842W        W96895  19.975  11.209   1.855 -0.0218  0.1720  0.1894
53843W        W96896  18.612  13.605  24.760 -0.3140  0.1709 -0.1843
53844W        W96897  25.469  30.685  16.111  0.1792 -0.1966  0.2268
53845W        W96898   1.163  14.335  17.892  0.3526  0.0696  0.0390
53846W        W96899  25.314   2.859  22.997 -0.2151 -0.1988  0.0604
53847W        W96900  17.840   8.843  17.514 -0.1409  0.1294 -0.2446
53848W        W96901   3.384  15.558   1.233 -0.0116  0.0508 -0.0045
53849W        W96902  13.581  18.469  15.459 -0.0129 -0.0519  0.1877
53850W        W96903   1.547  30.041  15.842  0.0571 -0.2069 -0.0032
53851W        W96904   5.632  27.642  19.281  0.2117 -0.2381 -0.0949
53852W        W96905   7.916   4.466  16.742  0.0089  0.2342 -0.2941
53853W        W96906  14.431  34.400  18.664 -0.1527 -0.0916  0.0440
53854W        W96907   5.706  33.180  13.483  0.1362  0.0912 -0.3372
53855W        W96908   8.818  27.260  17.821  0.1288 -0.0967  0.0022
53856W        W96909  10.959  20.009  16.163 -0.1530 -0.3022 -0.0022
53857W        W96910  30.780  29.388   1.292 -0.2458  0.0664 -0.2060
53858W        W96911  15.978  32.595   1.613  0.1385 -0.1094 -0.1653
53859W        W96912   3.425  34.257   0.617  0.1155  0.2104 -0.1785
53860W        W96913  33.813   7.968  23.121 -0.1351 -0.0795  0.0393
53861W        W96914   1.863   3.700  25.714  0.0218  0.2139  0.5001
53862W        W96915  12.060   5.344  20.923  0.1782  0.0591  0.0846
53863W        W96916   5.034   3.176  19.796 -0.3172  0.0196  0.3566
53864W        W96917  13.946  12.566  23.753 -0.2069  0.2933 -0.1417
53865W        W96918  12.468  11.405   1.533  0.0323  0.1844 -0.2705
53866W        W96919   7.583  17.532   8.894  0.1390 -0.1289 -0.0369
53867W        W96920  16.138   9.545  16.039  0.1908 -0.0214  0.1323
53868W        W96921   1.202  18.888  21.170  0.1586  0.2609 -0.0426
53869W        W96922  10.780   9.543  21.895  0.0400 -0.0930 -0.0647
53870W        W96923  34.276   0.755  26.896 -0.1635 -0.0413  0.0817
53871W        W96924  18.615  15.135  13.818  0.0634  0.0068 -0.0392
53872W        W96925  12.432  26.796  17.950  0.0725 -0.0934 -0.1204
53873W        W96926  32.269   8.910  24.633 -0.0765  0.0041 -0.0689
53874W        W96927  20.295  29.096  21.970 -0.1943  0.0776  0.0293
53875W        W96928  18.724   3.359   3.066 -0.3330  0.3320 -0.0713
53876W        W96929  10.325  11.100  18.890  0.1148  0.4883  0.0227
53877W        W96930   5.672  28.112  17.096  0.1567 -0.0396 -0.1304
53878W        W96931   8.640   8.829  15.675 -0.2902  0.2262 -0.0677
53879W        W96932  19.411  29.983   3.938 -0.1709 -0.0953 -0.0880
53880W        W96933   3.696  21.721  28.779 -0.3037  0.0673  0.1654
53881W        W96934  30.186   3.486  20.681 -0.2469  0.0651 -0.2850
53882W        W96935   7.643   2.271  23.143  0.1178  0.1528 -0.2355
53883W        W96936   3.461   8.203  19.931 -0.0980 -0.3376  0.0240
53884W        W96937  24.312  29.040  19.967 -0.3218 -0.0880 -0.3713
53885W        W96938  15.977  32.196   0.782  0.3983  0.1977  0.1190
53886W        W96939  11.851   0.432   2.135 -0.1154  0.2130  0.0799
53887W        W96940   8.632  26.748  19.424  0.2138 -0.2417  0.1734
53888W        W96941  28.748  28.339   1.632 -0.2220  0.1010 -0.2215
53889W        W96942  11.942  32.179  19.482  0.1708 -0.0673  0.0134
53890W        W96943   4.059   9.601   4.298  0.0427 -0.1887 -0.2531
53891W        W96944  20.443   5.264  20.173  0.0470 -0.1234  0.2881
53892W        W96945  31.678  18.213  14.665  0.0522 -0.1689 -0.1627
53893W        W96946   6.574  31.173  17.426  0.0246 -0.1633 -0.2502
53894W        W96947   6.417   2.240  16.393 -0.0489 -0.3734 -0.2933
53895W        W96948  15.367  26.584   4.655 -0.2373 -0.0694 -0.0553
53896W        W96949  19.460  13.724  22.574 -0.0936  0.1824  0.3131
53897W        W96950   8.734   7.151  19.403  0.2898  0.1649 -0.2353
53898W        W96951   7.757   4.267  19.322 -0.2381 -0.1375 -0.4597
53899W        W96952   6.787   0.959  20.057  0.1708  0.2769 -0.2009
53900W        W96953   2.856  32.201  21.899  0.0964 -0.1011  0.3906
53901W        W96954  15.288  31.197   4.033 -0.0698 -0.0120 -0.0992
53902W        W96955   0.234   5.701  23.013  0.2328 -0.0559 -0.2376
53903W        W96956  16.516   0.139  17.078 -0.1735 -0.2322 -0.0338
53904W        W96957  10.426  13.135  27.176 -0.0367 -0.0552  0.1087
53905W        W96958  15.512   1.411  25.136  0.0132 -0.3592  0.0252
53906W        W96959   1.794  16.736  19.017  0.0836 -0.1708  0.1223
53907W        W96960  31.816   5.723  24.537  0.0559  0.1364 -0.0783
53908W        W96961  22.343   3.098  15.328 -0.4472  0.0286 -0.1048
53909W        W96962   5.790   3.026  16.878 -0.0251 -0.2467 -0.2082
53910W        W96963  12.633  33.645  22.271  0.1180 -0.0415 -0.0983
53911W        W96964  17.516  10.954  15.620  0.1421 -0.0202  0.0098
53912W        W96965  31.881  14.623  25.681  0.2398 -0.0610  0.0267
53913W        W96966  19.197   7.779  15.133 -0.0094 -0.0254 -0.0673
53914W        W96967  14.475   7.640  21.244  0.0389  0.0832 -0.2145
53915W        W96968  34.219  29.556  19.066  0.2776 -0.0823 -0.0125
53916W        W96969  21.693   1.060  20.712 -0.1089  0.0659  0.0370
53917W        W96970   9.831  33.417  22.249  0.0865  0.1665 -0.2469
53918W        W96971  23.163  12.832  27.748  0.0973 -0.2183  0.2285
53919W        W96972  13.757  22.168  25.587 -0.1394  0.0630 -0.0209
53920W        W96973   9.215   3.137  16.773 -0.0922 -0.1655 -0.2795
53921W        W96974  16.141  31.552  25.879  0.0039  0.0222  0.1977
53922W        W96975  31.655   6.169  19.636  0.1604  0.0399  0.0780
53923W        W96976  18.750  29.492  19.309 -0.3209 -0.1244 -0.1029
53924W        W96977  14.926   6.858  22.022 -0.0058 -0.0501 -0.3028
53925W        W96978   4.355  33.221  22.580 -0.1808 -0.0306  0.3675
53926W        W96979   1.915   0.377  27.643  0.0696 -0.2106 -0.1615
53927W        W96980  15.172  20.954  19.586  0.1482 -0.1969 -0.1410
53928W        W96981  10.115  13.886  15.853  0.1396  0.3298  0.0526
53929W        W96982  18.291  32.075  15.274  0.1050 -0.0165  0.0728
53930W        W96983  13.295   7.606  22.160  0.1307  0.0633  0.2851
53931W        W96984  14.428  33.576   0.437  0.0162  0.1411 -0.0186
53932W        W96985  11.905  28.932  23.501  0.0401 -0.2521 -0.2916
53933W        W96986  15.364  31.766   2.266 -0.0653  0.1102  0.0572
53934W        W96987  24.538  22.626  19.116 -0.1245 -0.1713  0.1576
53935W        W96988  14.467  27.524  21.163  0.0279  0.2492 -0.2358
53936W        W96989  30.434  17.757  19.005 -0.0005  0.2852 -0.0140
53937W        W96990   7.141  32.245  18.837 -0.1172 -0.1870 -0.3014
53938W        W96991  34.349  10.978  15.162  0.1180  0.1088 -0.0565
53939W        W96992  17.314   5.893  24.278 -0.0349  0.0888 -0.0823
53940W        W96993  17.571  24.734  20.784  0.3196 -0.0577 -0.1146
53941W        W96994   7.150   8.116  15.809 -0.2260  0.1613 -0.1115
53942W        W96995  21.903   2.542  18.406 -0.4042 -0.0325  0.0566
53943W        W96996  23.660  32.083  22.504 -0.4052  0.1539  0.1426
53944W        W96997  15.926  29.031  23.192 -0.0474  0.1674  0.1953
53945W        W96998  32.775  15.615  21.034  0.0949  0.0165  0.1590
53946W        W96999  15.972  34.235  14.674 -0.0968  0.1120 -0.3092
53947W        W97000  17.810  33.112   1.672  0.0798  0.0733 -0.2019
53948W        W97001   1.386  33.220   0.385 -0.2828 -0.0843  0.2026
53949W        W97002  14.590  22.604  23.063  0.4416  0.0307 -0.2693
53950W        W97003   2.672  16.663  16.705  0.1156 -0.3525  0.3523
53951W        W97004   5.284  12.668  16.657 -0.2219 -0.0437 -0.1747
53952W        W97005  20.988  32.106  18.469  0.1499 -0.2553  0.0840
53953W        W97006  16.876  12.679   5.502  0.0647 -0.4261 -0.1673
53954W        W97007  20.033  20.827  16.836  0.3266 -0.0264 -0.0699
53955W        W97008  23.282   2.701  15.281 -0.2182  0.0852  0.1574
53956W        W97009  15.040   5.762  17.924 -0.0400 -0.1027  0.2320
53957W        W97010  11.090  33.498  16.821 -0.0753  0.3843 -0.1314
53958W        W97011  14.029   5.964  21.105  0.0165 -0.0250 -0.1548
53959W        W97012   6.340  31.658  24.824 -0.2917  0.2588 -0.0332
53960W        W97013   4.227   1.924  17.496  0.3592 -0.1334  0.0167
53961W        W97014   7.805  16.687  13.878  0.3036 -0.3589 -0.0894
53962W        W97015  15.590   9.402   1.689 -0.0641 -0.2550 -0.0103
53963W        W97016  31.104  30.909  16.682 -0.1522  0.4289 -0.0878
53964W        W97017  17.769   3.110  16.016 -0.1432  0.4627 -0.1907
53965W        W97018  13.442  13.665  16.171 -0.1786 -0.1025 -0.0965
53966W        W97019   8.742  28.182  15.969  0.1859 -0.1228 -0.0217
53967W        W97020  11.764  29.986  14.069 -0.1447 -0.2797 -0.0961
53968W        W97021  20.026   8.020  28.052  0.1825  0.0156 -0.1224
53969W        W97022   4.011  33.831  21.992 -0.0524 -0.0348  0.1307
53970W        W97023  19.427  20.819  21.638  0.1947 -0.1782 -0.0581
53971W        W97024   1.285  15.630  21.886  0.5258 -0.2027  0.0152
53972W        W97025   5.186  25.885  22.712 -0.2336 -0.0007  0.1568
53973W        W97026  12.126   1.730  26.305 -0.3004 -0.1213 -0.0021
53974W        W97027  20.940  11.567  21.994  0.0666  0.0637 -0.0268
53975W        W97028   3.394   3.571  17.411 -0.1821 -0.0709 -0.0543
53976W        W97029  17.347   1.722  27.150 -0.1249  0.0345 -0.0932
53977W        W97030  11.844   4.217   5.261 -0.0716 -0.0017  0.1152
53978W        W97031   6.687  15.031  18.609 -0.1139 -0.0389  0.0798
53979W        W97032  17.141  28.408  16.542 -0.0761 -0.0230 -0.1098
53980W        W97033   5.885  11.879  15.955 -0.1932  0.2659  0.0542
53981W        W97034  21.455  29.555   1.739  0.0978  0.1032  0.0058
53982W        W97035  14.417  32.077   4.422  0.1284  0.0226  0.0539
53983W        W97036  21.844   1.407  17.831 -0.1857 -0.2570  0.0096
53984W        W97037  10.973  23.404  25.777  0.4871 -0.1263  0.1726
53985W        W97038  30.405  19.042  20.431  0.0113  0.1474  0.4202
53986W        W97039  32.480  23.994  24.421 -0.0934  0.0687  0.2562
53987W        W97040  13.190  14.893  28.145  0.1443  0.1642  0.2313
53988W        W97041  14.044  22.522  22.685  0.2510 -0.1525 -0.0912
53989W        W97042  25.967  23.045   0.022  0.1785  0.0339 -0.0315
53990W        W97043  31.623  32.370  19.842 -0.2029 -0.3981 -0.2152
53991W        W97044  29.402   7.291  15.051  0.2095  0.1271 -0.0511
53992W        W97045  15.535   6.274  14.585 -0.1095 -0.0303 -0.2137
53993W        W97046  26.133   9.513  23.666 -0.3435 -0.0060  0.0638
53994W        W97047  14.272   5.408  26.398  0.1830  0.3321 -0.0353
53995W        W97048  34.533  15.847  27.222  0.3991 -0.3588  0.0233
53996W        W97049  17.688   4.299   1.273  0.1612 -0.0824  0.0154
53997W        W97050  26.082  10.268  14.473  0.0472  0.2071 -0.0024
53998W        W97051   3.891  21.557  20.716 -0.2108  0.1464 -0.0740
53999W        W97052  15.178   4.530  23.116 -0.4867  0.0196 -0.0030
54000W        W97053  33.101  23.197  18.820 -0.0669 -0.0249  0.1423
54001W        W97054  17.816   7.219  25.170 -0.1752 -0.2036  0.1513
54002W        W97055  21.133  20.171   8.456 -0.2415 -0.0367  0.0807
54003W        W97056  31.579   2.567  15.388 -0.2406  0.2676  0.4553
54004W        W97057   4.198  23.738  25.439  0.3020  0.2254 -0.2478
54005W        W97058  24.412  10.384  22.757  0.0224 -0.0035 -0.0010
54006W        W97059   0.872   6.109  15.183 -0.0245  0.0427 -0.2743
54007W        W97060   9.092   5.879  19.650 -0.1869 -0.0549  0.1332
54008W        W97061  32.526   2.684  14.322  0.4457  0.0633 -0.1027
54009W        W97062  24.498   0.891   6.844 -0.3506 -0.0021  0.0964
54010W        W97063  31.287  33.955  15.886  0.1831 -0.3007  0.0287
54011W        W97064  11.353   3.782  16.297 -0.1815 -0.1105 -0.3662
54012W        W97065   4.953   3.957  27.422  0.2826  0.0288 -0.2245
54013W        W97066   7.375   8.801  18.151 -0.3763 -0.2363  0.1630
54014W        W97067  20.891   8.818  19.473  0.0082 -0.2872 -0.2301
54015W        W97068  15.287  22.097  17.512  0.2214  0.2687  0.0146
54016W        W97069  14.179  28.627  20.321  0.1447  0.0270 -0.2525
54017W        W97070  17.070   0.269  23.594  0.4954  0.0859 -0.4270
54018W        W97071  13.608   1.417  23.373  0.3005  0.2680 -0.1062
54019W        W97072  12.137  22.001  25.826 -0.1583 -0.0324 -0.2269
54020W        W97073  28.431  32.709  25.851  0.0145  0.0403 -0.0608
54021W        W97074  16.108   7.708  20.402  0.0243  0.1094  0.1086
54022W        W97075  21.706  22.971  25.852  0.0488  0.0509  0.1325
54023W        W97076  10.352  14.871  16.832 -0.0982  0.4253 -0.1403
54024W        W97077  14.953  33.612  23.887  0.1032 -0.2194 -0.3205
54025W        W97078   6.016   1.753  25.780 -0.1147 -0.1868 -0.2344
54026W        W97079  13.308   9.138  25.483  0.0592 -0.2006  0.0347
54027W        W97080   9.095  16.674  19.571  0.1138 -0.2758  0.0357
54028W        W97081  13.479  33.056  14.893 -0.0173 -0.3804 -0.0315
54029W        W97082  19.240   1.573  26.033  0.1911 -0.0042  0.2619
54030W        W97083  19.242   8.804  26.097  0.0757  0.0867  0.1524
54031W        W97084  23.489   5.482  21.768 -0.1570  0.0591 -0.0525
54032W        W97085  25.741  13.964  25.760 -0.0579  0.2389 -0.0264
54033W        W97086  30.213  23.941  15.947  0.1034  0.1136 -0.3301
54034W        W97087   8.354  11.373  22.719 -0.1449  0.0428  0.1996
54035W        W97088   4.404  29.489  19.539  0.0678 -0.2213  0.1138
54036W        W97089  19.829  34.119  18.191  0.0137  0.2263  0.0653
54037W        W97090  12.177   6.799  15.044 -0.1601  0.1666  0.1143
54038W        W97091  10.715   0.939  17.091  0.1008 -0.2568 -0.1330
54039W        W97092  21.774  13.208  21.783  0.3233 -0.3537 -0.0073
54040W        W97093   5.941   7.895   3.848 -0.1334 -0.0376  0.2341
54041W        W97094   9.064  15.011  21.339  0.1942 -0.3065  0.1922
54042W        W97095   5.651  15.088  20.712 -0.1870  0.2583  0.1813
54043W        W97096  10.188   4.116  26.084 -0.2611 -0.0851 -0.1056
54044W        W97097  15.205   0.058  18.959  0.4541  0.0704 -0.0322
54045W        W97098   8.783  26.639  14.946  0.3136 -0.0494  0.2226
54046W        W97099  21.653  32.636  18.042  0.0430  0.0421 -0.1413
54047W        W97100  19.631  10.199  14.867 -0.2124 -0.1835  0.1450
54048W        W97101   1.457   2.822   1.273 -0.1830  0.0891  0.0538
54049W        W97102  26.525   8.416  21.210 -0.0882  0.0357  0.0500
54050W        W97103  24.373   1.243   2.817  0.1306  0.1202 -0.1242
54051W        W97104  22.559  13.083  22.549 -0.0109  0.0963 -0.2502
54052W        W97105  13.666  32.212  21.050  0.0794 -0.3826  0.0946
54053W        W97106   1.889  28.188  26.841  0.0690 -0.1144  0.0868
54054W        W97107  21.079  32.172  18.997 -0.0004  0.1730  0.0269
54055W        W97108  11.646  11.789  18.591  0.1075 -0.1687 -0.2175
54056W        W97109   0.178  10.964  21.158 -0.0709  0.0299 -0.1255
54057W        W97110  10.907  30.352  19.980  0.1853 -0.2084  0.0509
54058W        W97111  11.754  27.356  14.658 -0.0207 -0.0955  0.2248
54059W        W97112   3.525  20.033   2.399  0.0536 -0.3738 -0.1030
54060W        W97113  10.352   2.082  16.796 -0.2481  0.0590  0.1805
54061W        W97114  15.951  33.506  22.696  0.3157  0.0715  0.4361
54062W        W97115   7.688  27.079  25.654  0.1761 -0.1732  0.0170
54063W        W97116  17.543   3.414  14.464  0.1448  0.0319 -0.0824
54064W        W97117  15.544  11.060  29.189 -0.1991  0.0081  0.2035
54065W        W97118  12.158  13.852  22.931  0.0183 -0.1079 -0.0083
54066W        W97119  28.534   2.272  19.713  0.2025  0.1009 -0.0906
54067W        W97120  11.109  16.797  26.048 -0.2215  0.2902 -0.0789
54068W        W97121  15.163  11.954  27.708  0.0547  0.3627 -0.0618
54069W        W97122  14.632  15.844  14.602 -0.4010  0.1107 -0.0198
54070W        W97123   6.586  12.384  19.167 -0.0673  0.1077 -0.2509
54071W        W97124  19.387  10.034  15.892 -0.1346  0.3254  0.1508
54072W        W97125  17.298  30.574   1.723 -0.1815  0.1425  0.0161
54073W        W97126  11.759  13.569  26.463 -0.2005 -0.1040  0.3129
54074W        W97127  20.845  25.445   1.767  0.5878  0.0063 -0.3809
54075W        W97128   0.063   5.127  15.507  0.3068 -0.1145 -0.0878
54076W        W97129  12.570  28.285  17.970  0.1940 -0.2819  0.0969
54077W        W97130  13.379   3.203  28.907 -0.0396 -0.1275 -0.0397
54078W        W97131   2.138   7.102  27.978 -0.1583  0.2092  0.0218
54079W        W97132  18.823  26.894  21.567 -0.3074 -0.1305  0.1234
54080W        W97133  18.253  12.024  27.529 -0.0428 -0.1155 -0.3977
54081W        W97134  10.854  26.286  20.870  0.0630  0.2246  0.2802
54082W        W97135  15.110  24.202  28.073  0.0444 -0.0230 -0.0393
54083W        W97136   0.402   9.866   6.587 -0.1255 -0.5647 -0.0818
54084W        W97137  23.592   1.353  17.128 -0.0457  0.0721  0.2312
54085W        W97138  32.550   0.431  16.113  0.1381  0.0276 -0.1582
54086W        W97139  19.796   3.936  16.306  0.0621  0.2866  0.1993
54087W        W97140  11.310  31.197  24.520 -0.3304  0.0266 -0.0572
54088W        W97141  32.457  21.217  23.622  0.0927 -0.0323 -0.0415
54089W        W97142  27.370  10.468  25.338  0.2619  0.1197  0.1136
54090W        W97143  13.333  33.497  18.715 -0.0329 -0.2140 -0.4587
54091W        W97144   6.809  19.347  20.775  0.3971  0.1190  0.3288
54092W        W97145  11.917  11.098  22.362  0.0349  0.1808 -0.3748
54093W        W97146   5.750  28.397  15.210  0.2349 -0.3161 -0.1986
54094W        W97147   6.706  26.801  19.096  0.0602 -0.5778  0.1744
54095W        W97148   6.607  20.479  17.990 -0.0755 -0.2199  0.1974
54096W        W97149  15.328   8.205  15.809 -0.2250 -0.1879  0.1383
54097W        W97150   6.057   5.331  14.740  0.0969 -0.0358 -0.0722
54098W        W97151  27.716   7.588   1.949 -0.0560  0.2770 -0.0592
54099W        W97152   9.149  12.459  19.588 -0.2240  0.0430 -0.1127
54100W        W97153   6.389  10.551  16.231  0.2608  0.0814 -0.2256
54101W        W97154  24.923  11.300  14.268  0.2602  0.1971  0.2882
54102W        W97155  19.189  30.865  18.576  0.2736 -0.1841 -0.0093
54103W        W97156  11.175   9.124  18.431  0.1026 -0.2387  0.3598
54104W        W97157  20.292  34.289  21.731  0.2217  0.1467  0.3637
54105W        W97158  11.400   0.772   4.295  0.1173  0.3370 -0.3594
54106W        W97159   4.193  32.075  16.432  0.0074  0.2714  0.0786
54107W        W97160  10.995   2.371  17.431 -0.2636  0.1310 -0.2303
54108W        W97161  30.057  33.965   0.278 -0.1554 -0.2176  0.2881
54109W        W97162   1.177  21.516  24.310 -0.0615 -0.0643 -0.2096
54110W        W97163  25.797   8.733   0.769  0.0567  0.1731  0.4034
54111W        W97164   6.567  32.195  15.286  0.2163  0.2565 -0.0018
54112W        W97165   2.002  26.525  19.079  0.1117 -0.1358 -0.1301
54113W        W97166  11.526  32.867   8.910 -0.3042  0.0677  0.0646
54114W        W97167  16.124  11.364  16.102  0.0855  0.0275 -0.3610
54115W        W97168  16.282   0.931  15.535  0.3310 -0.1370 -0.2226
54116W        W97169   4.496   2.405   8.956  0.1565  0.0523 -0.0608
54117W        W97170  13.445   4.793  21.863 -0.0131 -0.0284  0.3032
54118W        W97171  16.597  25.809  26.277  0.0782  0.1380  0.0981
54119W        W97172  22.489  33.582   1.846 -0.0852  0.2731  0.1073
54120W        W97173   3.493  11.296  18.755 -0.0449 -0.0234  0.3042
54121W        W97174  11.433  25.790  14.646  0.2287  0.0106 -0.2295
54122W        W97175  15.044  34.313  28.669  0.3875 -0.1464 -0.2566
54123W        W97176   7.571   4.988  19.968 -0.0363 -0.2183 -0.0982
54124W        W97177  15.852  21.654  23.649  0.0533  0.2056  0.0879
54125W        W97178  25.697  20.260  22.582 -0.1279  0.1981 -0.0359
54126W        W97179  29.704   9.728  19.693 -0.1327  0.1404 -0.0408
54127W        W97180  17.625   4.926  23.432  0.0130  0.1450 -0.0205
54128W        W97181  21.032  33.784  19.045  0.0063  0.2127 -0.1142
54129W        W97182  18.513   2.526  19.141 -0.1332 -0.4124  0.2452
54130W        W97183  25.131  16.220  28.678 -0.1608  0.0569 -0.0083
54131W        W97184  20.257  29.122  21.519  0.1860 -0.1151  0.1885
54132W        W97185  34.098   4.811  19.107  0.2600  0.3793 -0.3572
54133W        W97186  19.233   3.130  17.295  0.2935 -0.0026 -0.1150
54134W        W97187  17.780  33.258  17.512  0.1042  0.1857 -0.0724
54135W        W97188  18.837   3.413  24.694  0.0774 -0.1945  0.3791
54136W        W97189   3.437  12.785  24.443  0.0117  0.2137 -0.0789
54137W        W97190  29.932  15.525   0.179 -0.1806  0.3895  0.1011
54138W        W97191  11.667  28.485  24.024 -0.1177  0.0616 -0.1290
54139W        W97192   8.010   0.659  27.189 -0.1350  0.0367 -0.1116
54140W        W97193   3.240   4.550  28.817 -0.2325 -0.1068 -0.2656
54141W        W97194  34.003   2.225  16.087  0.0973  0.1937  0.2293
54142W        W97195   6.075  12.345  19.041 -0.1567 -0.3594  0.1881
54143W        W97196  10.632  13.956  21.980 -0.0121  0.1497 -0.0769
54144W        W97197  23.916  33.609  27.425  0.1285 -0.4282  0.0445
54145W        W97198   8.085   3.398  14.152  0.1559 -0.1140  0.1168
54146W        W97199  18.483   5.793  21.846 -0.1224  0.4793 -0.0358
54147W        W97200  18.114  13.443  16.596  0.0361  0.4624  0.1002
54148W        W97201  20.776  34.531  20.038  0.0604 -0.0056  0.0506
54149W        W97202   6.024  33.147  16.333  0.1645  0.3584  0.2942
54150W        W97203  18.058  27.370  21.639 -0.4097  0.1065  0.1510
54151W        W97204  19.314   1.873  14.829  0.1521 -0.0872 -0.3311
54152W        W97205  23.217   8.461  19.459  0.1849  0.0052  0.0280
54153W        W97206  14.222   4.047  15.531  0.2705 -0.1296  0.1155
54154W        W97207   9.879   5.012  28.807  0.4234 -0.1206  0.1474
54155W        W97208  15.677   9.757  21.634  0.1265 -0.0725 -0.1035
54156W        W97209  16.180   7.099  16.084 -0.1540 -0.1588 -0.0469
54157W        W97210   2.762   2.365  17.512 -0.1754  0.2459 -0.2460
54158W        W97211  25.485  16.448  18.718 -0.0674 -0.3219  0.1100
54159W        W97212  13.854  34.153  16.939  0.2738 -0.2033  0.3884
54160W        W97213  21.688  21.590  15.838  0.0370  0.1453 -0.2037
54161W        W97214  21.464  32.301   7.038 -0.0097  0.1285 -0.1530
54162W        W97215  15.221  32.543  14.523  0.0820 -0.0847 -0.1250
54163W        W97216  10.221  32.704  26.703 -0.1192  0.0951 -0.2426
54164W        W97217  17.542  31.466  23.421  0.2155  0.1335  0.1583
54165W        W97218  26.754  11.360  18.260 -0.2375  0.2910  0.0405
54166W        W97219   8.539   1.467  22.431 -0.0028  0.1074 -0.0111
54167W        W97220  29.577  17.427   4.015  0.1578  0.0163 -0.1177
54168W        W97221  25.810   0.599  21.659  0.2515  0.0998  0.0884
54169W        W97222   8.887  11.928  14.997 -0.0509 -0.0955 -0.1497
54170W        W97223  18.422   6.712  16.802  0.0210  0.0736 -0.2195
54171W        W97224  23.679   1.894  24.393 -0.1236 -0.1681  0.0903
54172W        W97225  27.110   2.587   3.491  0.2640  0.1416 -0.2614
54173W        W97226   9.034  32.436  24.365  0.4078 -0.2865  0.0132
54174W        W97227  29.272   3.430  15.386 -0.0368 -0.1994 -0.1214
54175W        W97228  16.244   0.545  23.006  0.0740  0.5697  0.0495
54176W        W97229  10.798  23.761  21.069 -0.1277 -0.0903 -0.0773
54177W        W97230  20.573  32.982  14.537 -0.1182 -0.1512  0.0811
54178W        W97231   5.822   8.796  19.379  0.3027 -0.1181  0.1245
54179W        W97232  20.278  10.861  19.849  0.0388 -0.2182  0.1488
54180W        W97233  14.026  29.889  22.092 -0.0849  0.1722  0.0463
54181W        W97234  13.988   0.775  18.907  0.0984 -0.3802 -0.2686
54182W        W97235   2.731   7.487  25.572  0.3089  0.1400 -0.2550
54183W        W97236  31.471   2.608   1.013 -0.1891  0.0605 -0.1710
54184W        W97237  17.714  10.894  26.174 -0.2490  0.1883  0.1754
54185W        W97238  11.146  11.155   9.910 -0.1761  0.3386 -0.0937
54186W        W97239  15.978   1.684  26.805 -0.1913  0.0224 -0.3551
54187W        W97240  13.335   2.907   2.240 -0.1031 -0.4034 -0.0813
54188W        W97241   8.686  11.299  14.752  0.2077  0.2322 -0.0607
54189W        W97242  28.175  20.559  15.700 -0.4357  0.1151 -0.1537
54190W        W97243  27.212   0.015  24.885  0.0590  0.1045  0.0340
54191W        W97244  12.907   7.274  23.930  0.2503 -0.2230 -0.0092
54192W        W97245  24.383   7.119  17.967 -0.0383 -0.1748  0.1298
54193W        W97246  16.435   9.272  19.476  0.2147 -0.2352 -0.8413
54194W        W97247   4.824  30.585  15.380 -0.3420  0.3749 -0.4250
54195W        W97248  23.434   9.026  20.788  0.1478  0.2864 -0.4590
54196W        W97249  29.336  31.651  22.802  0.2450 -0.0655  0.3748
54197W        W97250   3.221  12.080  18.409  0.1091 -0.0014 -0.2573
54198W        W97251  25.096  31.369  21.753 -0.1091 -0.0411 -0.2560
54199W        W97252   4.240  31.096  26.126 -0.0453 -0.0398  0.1662
54200W        W97253  32.092  14.469  16.795  0.3260 -0.1679 -0.3158
54201W        W97254  23.771  33.445  26.494  0.1714 -0.0199 -0.1565
54202W        W97255  21.894   9.571   9.894 -0.1856  0.1878  0.2245
54203W        W97256  17.488   7.197  18.632  0.2790 -0.2173 -0.0398
54204W        W97257   4.756   5.114  15.110  0.2466 -0.2377  0.3151
54205W        W97258  18.368  16.267  26.747  0.0136  0.4147  0.1579
54206W        W97259  33.256  16.188  25.904 -0.1834  0.1421  0.1194
54207W        W97260   9.986   3.090   8.090  0.0289  0.0840  0.0593
54208W        W97261  21.113  29.275  27.498  0.1913 -0.1522  0.2916
54209W        W97262  19.353   0.218  24.941  0.2599  0.4899 -0.1873
54210W        W97263  15.181  10.868   9.433 -0.0781  0.3237  0.0519
54211W        W97264  24.824  13.067   2.736  0.0056 -0.1665 -0.3284
54212W        W97265  24.083  12.362  17.343 -0.0363  0.4851  0.3109
54213W        W97266  24.352   9.603   2.054 -0.3059  0.3609 -0.0253
54214W        W97267   2.346  16.546  17.333 -0.2870 -0.0846  0.5212
54215W        W97268   6.968  12.628  22.421  0.0842 -0.0449  0.1150
54216W        W97269   2.840  32.776  26.879  0.2158 -0.0960 -0.3143
54217W        W97270  15.472  28.162  27.918 -0.0775  0.1935  0.0859
54218W        W97271  14.680  11.997  19.045 -0.4449  0.1668  0.2924
54219W        W97272  12.269   6.499  21.960  0.2759  0.1486  0.1622
54220W        W97273  19.338  30.981  22.082 -0.1427  0.1223  0.3760
54221W        W97274  12.902   7.964  15.257  0.0628  0.3573 -0.1276
54222W        W97275   8.404  33.815  18.390 -0.0248  0.2271 -0.0409
54223W        W97276  31.345  11.992   5.451 -0.0178 -0.2778  0.2186
54224W        W97277  20.454   7.822  26.366  0.0563  0.3463  0.1754
54225W        W97278   5.350  21.040  18.764 -0.1181 -0.1145 -0.0859
54226W        W97279   0.048  17.186  27.769  0.0250 -0.5143 -0.1449
54227W        W97280   1.911  27.264  17.425  0.2474 -0.0700  0.2679
54228W        W97281  28.632   3.131   0.941  0.0010 -0.2397  0.1347
54229W        W97282  25.922  22.664  15.974  0.4346  0.3588 -0.3157
54230W        W97283  13.383   4.332   1.625  0.0974  0.0722 -0.2927
54231W        W97284   5.313   7.830  14.438 -0.2287  0.4736 -0.0655
54232W        W97285  31.484   4.990  14.239  0.0195 -0.2932  0.0261
54233W        W97286   2.407  23.631  26.893 -0.0728 -0.2006  0.0002
54234W        W97287  22.053  23.727  28.599  0.0115  0.0255  0.2985
54235W        W97288  12.930  29.666  18.809 -0.3983  0.3879 -0.0832
54236W        W97289  16.842   6.375   9.094 -0.2763  0.2606  0.1531
54237W        W97290  15.104  33.245  22.610 -0.2184 -0.3049  0.0778
54238W        W97291  33.058   1.181  16.076 -0.0634 -0.0845  0.0322
54239W        W97292  23.457  33.612  21.959 -0.0750  0.0868 -0.3139
54240W        W97293  13.146  12.910  22.257 -0.0544  0.0144  0.3274
54241W        W97294   9.805   4.848  24.652  0.1435  0.2140 -0.0255
54242W        W97295  11.997   9.004  26.368 -0.2196  0.1258 -0.0805
54243W        W97296  10.476  25.910  20.668  0.1790 -0.1007 -0.0387
54244W        W97297  22.794  23.446  14.431 -0.2185 -0.1540  0.1970
54245W        W97298  14.467  20.940  24.186  0.0474  0.0931 -0.0494
54246W        W97299  32.982  19.963  14.830  0.1999 -0.0240  0.0396
54247W        W97300   7.100  28.608  18.206 -0.0525 -0.0943 -0.1436
54248W        W97301  19.951  15.119  27.331  0.3367  0.2183  0.0805
54249W        W97302   0.588  33.409  20.505  0.1240 -0.1856  0.1860
54250W        W97303  15.598  34.071  23.428  0.0685 -0.0495  0.2576
54251W        W97304  26.130  32.481  21.665 -0.0825  0.0390  0.1715
54252W        W97305  19.216   4.317  23.551  0.2802 -0.0259  0.1217
54253W        W97306   0.918   7.309  18.991  0.1877  0.2351  0.1477
54254W        W97307  15.972   2.287  16.588  0.0674 -0.1273  0.0866
54255W        W97308  18.377  34.345  20.758  0.2782 -0.2533 -0.2560
54256W        W97309   0.305   8.856  15.866 -0.1058 -0.0090 -0.2724
54257W        W97310   5.632   8.865   8.557  0.0907  0.0472 -0.2200
54258W        W97311  13.075  16.409  23.852  0.2934 -0.2023  0.3960
54259W        W97312  14.850  12.558  19.205  0.0408  0.0975  0.2277
54260W        W97313  24.092   5.368  15.031  0.1593 -0.1368  0.0582
54261W        W97314  24.162  30.194  15.366  0.1361 -0.0434 -0.1668
54262W        W97315   3.145  24.558  23.359  0.0568 -0.2501 -0.0762
54263W        W97316  14.566   8.020  20.875  0.1709 -0.3129 -0.0223
54264W        W97317  20.516   2.547   7.934 -0.0086 -0.0358 -0.2538
54265W        W97318  19.673  29.002  25.510  0.2739  0.1289 -0.0721
54266W        W97319  10.888   6.380  22.326 -0.3094  0.2661  0.4288
54267W        W97320  14.610   4.373  16.730 -0.1739  0.4132 -0.1719
54268W        W97321  30.547  13.073  21.583 -0.2561  0.1531 -0.1961
54269W        W97322  15.174  30.155  23.010 -0.0908  0.1770  0.2685
54270W        W97323   8.910   5.060  18.707  0.3324 -0.0326 -0.0155
54271W        W97324  25.878  27.334  13.656 -0.0223 -0.0760  0.3274
54272W        W97325  25.165  12.285  23.217  0.2223 -0.1779 -0.0130
54273W        W97326  22.642  29.079  16.174 -0.3104  0.2114  0.3613
54274W        W97327   1.351   4.726  15.478  0.2796  0.1264 -0.0744
54275W        W97328  28.871   0.041  18.895  0.0534 -0.0362  0.0256
54276W        W97329  29.164   8.233  15.970  0.1506 -0.0473  0.1417
54277W        W97330  12.606   9.794   1.123 -0.0346 -0.2035 -0.1346
54278W        W97331  12.672  33.259   0.848 -0.4280  0.1366  0.3389
54279W        W97332  10.422  27.923  22.431  0.1825  0.0347  0.0232
54280W        W97333  25.536  18.740  22.412 -0.0016  0.0630  0.2824
54281W        W97334  21.836  33.555  23.991  0.1137  0.1097  0.0751
54282W        W97335  34.147   6.910   2.389 -0.0472  0.0179 -0.1862
54283W        W97336  10.999   4.422  28.651  0.3778 -0.0309 -0.0332
54284W        W97337  26.484   6.010  21.193  0.1573  0.2108 -0.1218
54285W        W97338   9.163   9.939  24.944  0.0016 -0.1585  0.1728
54286W        W97339  20.412   2.935  14.836 -0.1923  0.0340 -0.1737
54287W        W97340  22.816  11.429  23.906  0.5023 -0.1234  0.0672
54288W        W97341  26.744  23.684  16.119  0.2965 -0.0620 -0.0969
54289W        W97342   1.582   7.804   5.772 -0.1538 -0.0227 -0.3139
54290W        W97343   2.471  25.863  27.453 -0.2324 -0.3067 -0.1632
54291W        W97344   2.963   2.177  21.792 -0.0226 -0.2790 -0.1852
54292W        W97345  20.115  17.423   0.898  0.1121 -0.3637  0.0458
54293W        W97346  11.175   2.769   9.009 -0.0798 -0.4451  0.1735
54294W        W97347  16.239   8.239  18.499 -0.0680  0.1927 -0.1672
54295W        W97348   9.112  25.302   7.726  0.1259  0.2386 -0.0537
54296W        W97349  28.868  11.107  21.580 -0.0020 -0.0088 -0.0705
54297W        W97350   2.297  34.012  14.449 -0.0354 -0.1705  0.0523
54298W        W97351   4.561   2.635  24.644  0.1160  0.0971  0.1765
54299W        W97352   6.207  20.104  17.046  0.2162 -0.2875  0.1810
54300W        W97353   2.947  15.024   3.261 -0.0285  0.2544  0.0933
54301W        W97354   8.192   4.801  25.761  0.2437 -0.2383 -0.2957
54302W        W97355  27.897   4.393  28.741 -0.0470  0.3365 -0.1498
54303W        W97356  29.197  34.218  24.344 -0.1531 -0.2015  0.0749
54304W        W97357  16.715   3.135   2.279  0.3698  0.1849 -0.2431
54305W        W97358  27.457   5.573  27.167 -0.1658  0.2114 -0.0550
54306W        W97359   7.606   0.140  16.583 -0.0278 -0.0726 -0.0038
54307W        W97360   3.573  11.683  14.611 -0.0976 -0.2615 -0.2598
54308W        W97361   8.690   7.153   4.394  0.2078 -0.1014 -0.3256
54309W        W97362  12.103  22.211  15.586 -0.2297  0.2807 -0.3667
54310W        W97363   1.805   7.989  29.030 -0.2069  0.1800  0.0535
54311W        W97364  25.470  19.730   8.603  0.2214  0.2089  0.2098
54312W        W97365  24.497   3.153   4.467  0.0496  0.1427 -0.0325
54313W        W97366   9.454   4.094  28.422 -0.2473 -0.3395  0.1316
54314W        W97367  33.719  24.766  25.715  0.0911 -0.1792 -0.0283
54315W        W97368  15.232  30.266   2.248 -0.1920  0.1272 -0.0379
54316W        W97369  13.416  32.113   0.386 -0.2130  0.4266 -0.2344
54317W        W97370   1.434  33.259  25.872 -0.2292  0.3184  0.1413
54318W        W97371   9.398   4.488  22.227 -0.2659  0.0213  0.1302
54319W        W97372  13.520   5.606  15.523 -0.0723 -0.2418 -0.1410
54320W        W97373  29.377  14.002   1.361  0.0306 -0.0168 -0.1942
54321W        W97374   5.871  29.075  28.197 -0.0450  0.1590 -0.3124
54322W        W97375  11.856  11.994   5.333 -0.1455  0.0201  0.4910
54323W        W97376  31.667  21.418  17.883  0.2310  0.1853  0.3237
54324W        W97377  11.704  28.394  16.585  0.0439 -0.0622  0.1966
54325W        W97378  12.981   5.433  21.095  0.1026  0.0993 -0.0702
54326W        W97379  25.576   6.840   3.167  0.0630  0.0030  0.3210
54327W        W97380  14.603  24.419  19.426 -0.0360 -0.2936  0.2876
54328W        W97381  14.878   5.535   2.682 -0.0288  0.0818  0.1789
54329W        W97382  18.388  24.665  23.965  0.2536 -0.0584 -0.2495
54330W        W97383   3.897   5.579  15.427  0.2389 -0.1745 -0.4478
54331W        W97384   7.086  32.314  14.978 -0.1693 -0.2783 -0.0059
54332W        W97385  20.707   0.437  18.506  0.1264  0.2279 -0.1695
54333W        W97386  24.212   0.859  23.645  0.0957 -0.1772  0.1853
54334W        W97387  32.574  10.625  16.697  0.1837 -0.1399 -0.5428
54335W        W97388   9.004  13.528  25.260  0.1442  0.1314  0.1302
54336W        W97389  32.987   5.102  24.326  0.4514  0.3620  0.0990
54337W        W97390  19.751  30.743  26.139 -0.0554 -0.4698  0.1075
54338W        W97391  33.700   0.925   3.237 -0.1133  0.2133  0.0958
54339W        W97392  32.348  33.466  14.119  0.0233  0.1108  0.0378
54340W        W97393  15.417   7.732  18.330 -0.0554  0.1699 -0.2316
54341W        W97394  13.808   1.565  17.860  0.0957 -0.0180  0.3791
54342W        W97395  18.343   9.704  25.831 -0.0679 -0.1144 -0.3072
54343W        W97396   1.993  18.889  17.736  0.0721 -0.1940  0.0550
54344W        W97397  21.439   2.067  22.575  0.5396  0.0427 -0.0890
54345W        W97398  23.513   0.457  28.374 -0.0096  0.2888 -0.2813
54346W        W97399   7.705   7.049  23.134 -0.2337  0.3909  0.0110
54347W        W97400   4.991   6.246  28.977 -0.0446  0.2340  0.0319
54348W        W97401   5.313   4.001  10.606 -0.3970 -0.0723  0.1007
54349W        W97402  21.388  34.524  17.687 -0.0195 -0.1009 -0.1130
54350W        W97403   2.978  15.099  18.249  0.2176  0.0276  0.0690
54351W        W97404  11.862  20.078  19.550 -0.0450  0.2622  0.0241
54352W        W97405  27.537  24.726   6.049 -0.0189 -0.0307 -0.0679
54353W        W97406  14.982   2.334   0.250 -0.1436  0.0202  0.1870
54354W        W97407  32.858  19.731  26.397 -0.4847  0.3715  0.0992
54355W        W97408  16.146   5.709  16.305 -0.1496  0.0746 -0.0189
54356W        W97409  15.638  12.885   1.877  0.4956  0.3265 -0.2941
54357W        W97410  25.513  13.393  19.767  0.0936 -0.0659  0.3329
54358W        W97411  13.544   8.841  19.630  0.0048 -0.0341  0.2126
54359W        W97412  18.987  33.948  22.430  0.3178  0.4694  0.0833
54360W        W97413  10.366   2.076  27.973 -0.0725  0.1499  0.3149
54361W        W97414  13.377  23.726  19.752 -0.0771 -0.0886 -0.0732
54362W        W97415  16.662   3.066   0.329 -0.3080  0.1713  0.0285
54363W        W97416  16.583  25.845   2.192 -0.2463  0.1092 -0.1326
54364W        W97417  18.659  32.788  18.251  0.0498  0.1263 -0.0960
54365W        W97418  19.963  12.121  18.678 -0.1555 -0.0398  0.2358
54366W        W97419  21.826  16.482   5.049 -0.1276 -0.1039  0.2810
54367W        W97420  12.070  13.979   6.304 -0.2170  0.0374 -0.1255
54368W        W97421  16.452  10.288   1.216 -0.3601  0.1802  0.0455
54369W        W97422   6.223  13.825   0.315 -0.2524 -0.2102 -0.0379
54370W        W97423   3.901  30.546  14.654 -0.0241  0.0575 -0.1310
54371W        W97424   4.764   6.173  26.373 -0.1283  0.2661  0.0744
54372W        W97425  30.105  29.480  15.887 -0.2416 -0.2222  0.0678
54373W        W97426   7.974   1.267   2.290 -0.1984  0.0852 -0.0470
54374W        W97427  18.567   8.333   2.629  0.2181 -0.0120 -0.0105
54375W        W97428  24.131  11.671  20.588  0.0157 -0.2241 -0.0243
54376W        W97429   4.796  12.561  16.020  0.0737 -0.2444  0.4119
54377W        W97430  18.042  23.688  23.192 -0.1670 -0.3440  0.1179
54378W        W97431  15.539   7.909  20.933  0.0045 -0.0962  0.0837
54379W        W97432  17.932   5.659   0.408  0.0327  0.2876  0.0715
54380W        W97433  20.391   9.391  26.190 -0.0600  0.0610  0.1004
54381W        W97434   1.055  10.274  16.603  0.1525 -0.0913  0.2124
54382W        W97435   9.627  31.309  24.835 -0.0936 -0.0113 -0.1464
54383W        W97436  18.004   7.209  17.451  0.2282  0.0577 -0.2400
54384W        W97437  19.909  10.325   0.111 -0.1798  0.0952 -0.2376
54385W        W97438  23.133  26.532  16.521  0.1135  0.3009 -0.0370
54386W        W97439  30.475   9.697   8.515 -0.0750 -0.2108 -0.0009
54387W        W97440  21.344   2.178  26.551  0.2478  0.1773 -0.0106
54388W        W97441  13.585   7.631  18.168  0.1332 -0.0469 -0.1252
54389W        W97442   6.976  16.393  18.537 -0.0650  0.2090 -0.0477
54390W        W97443  18.590   1.881   0.181 -0.0523  0.2298  0.3277
54391W        W97444  22.022  13.333  19.541 -0.0429 -0.0976  0.0402
54392W        W97445   5.575  19.412  17.171 -0.0404  0.1632  0.0363
54393W        W97446   4.640  22.038  14.490  0.1531  0.1866  0.1257
54394W        W97447  32.727   3.003  28.020 -0.0772 -0.0027 -0.3200
54395W        W97448   0.288  10.396  18.988  0.0528  0.0309  0.0972
54396W        W97449  25.473  23.955  19.629  0.2276 -0.0867 -0.4652
54397W        W97450  20.295   9.870   5.901  0.1062 -0.0523  0.3692
54398W        W97451  14.622  31.953  15.586  0.0275 -0.2283 -0.0087
54399W        W97452  15.898  11.877  16.031  0.2556  0.1136 -0.1388
54400W        W97453   6.768  22.743  17.171 -0.0141 -0.0756  0.1465
54401W        W97454  14.976  30.285  16.305  0.0692  0.1781 -0.0508
54402W        W97455  10.688  22.437  14.042 -0.1440 -0.3082 -0.1027
54403W        W97456   0.844   1.006  19.622 -0.3680 -0.3788  0.2094
54404W        W97457   8.224  14.891  17.071  0.0225 -0.0305  0.1335
54405W        W97458  16.786  22.257  15.967 -0.1749  0.4032 -0.0874
54406W        W97459  12.924   2.620  20.590 -0.1449 -0.0781 -0.3773
54407W        W97460  12.708  29.546  14.656  0.1795  0.0815 -0.1591
54408W        W97461  20.496   7.310   6.075  0.0838  0.1404 -0.2158
54409W        W97462   8.053  31.376  22.638  0.0920 -0.0336  0.0704
54410W        W97463  17.136  32.809   1.178 -0.2089  0.1653  0.2717
54411W        W97464   1.602  13.911  26.278 -0.4474 -0.1722 -0.1729
54412W        W97465  15.892  23.480   4.519  0.0195  0.1347 -0.0081
54413W        W97466   3.951   1.381  21.360 -0.0869  0.1710 -0.3135
54414W        W97467   9.117  13.648   0.043 -0.0320  0.1953  0.1018
54415W        W97468   6.911  26.383  24.299  0.1590 -0.1282  0.4158
54416W        W97469  26.131   3.899   8.472  0.2117  0.0217 -0.0274
54417W        W97470  21.304   2.202  23.220  0.0005  0.1990 -0.1976
54418W        W97471   8.900   5.524  20.129  0.1060  0.3147  0.4551
54419W        W97472   8.181   3.338  27.179  0.1304  0.2986 -0.2677
54420W        W97473  30.543   1.205  22.650 -0.1570 -0.3012  0.1496
54421W        W97474  33.719   4.899  16.070 -0.0601 -0.0936  0.1455
54422W        W97475  33.700   6.867  17.521 -0.0212  0.1411  0.0918
54423W        W97476   5.775  31.206   6.972  0.3320 -0.0090  0.0954
54424W        W97477   8.607   7.905  27.672  0.0295  0.2661 -0.0464
54425W        W97478  22.481  34.256  16.697 -0.1029 -0.1488 -0.0316
54426W        W97479   8.030  16.207  28.122  0.1228 -0.2226 -0.2115
54427W        W97480  20.816   7.166  24.054 -0.2757 -0.0115  0.1989
54428W        W97481  16.437  16.542  15.514  0.3191  0.1738  0.2210
54429W        W97482   6.416   6.166  23.519 -0.0094 -0.2733  0.3981
54430W        W97483  10.516   1.827  18.413 -0.2177  0.1427 -0.0041
54431W        W97484  21.956   6.553  20.194  0.0116 -0.0330 -0.0263
54432W        W97485  10.612   9.058  24.374 -0.0767  0.1903  0.2282
54433W        W97486  12.172  22.859  21.969  0.1500  0.2652 -0.1979
54434W        W97487   7.232   5.993  16.826 -0.0124 -0.0611  0.2058
54435W        W97488  14.558  10.417  23.946 -0.0167 -0.0197  0.1398
54436W        W97489  17.321  32.469  20.028 -0.0044  0.2134 -0.2850
54437W        W97490   6.218   0.429   5.516  0.2800  0.0030 -0.0478
54438W        W97491  34.452  22.710   0.786 -0.0721 -0.2739  0.1416
54439W        W97492   2.863   2.449  20.367 -0.1503  0.1953 -0.1720
54440W        W97493  22.212  22.162  21.938  0.0694  0.1256  0.0403
54441W        W97494  11.345   9.850  22.619 -0.2526 -0.0291 -0.0281
54442W        W97495  34.286  20.877  17.143  0.2911 -0.1190  0.2110
54443W        W97496  29.401   4.649   5.117 -0.1735  0.2158  0.0348
54444W        W97497  11.057  12.872  21.599 -0.0896  0.0868 -0.1096
54445W        W97498   7.737   9.690   1.493  0.0840 -0.1086 -0.3204
54446W        W97499   8.219   2.455  15.682 -0.2049  0.4823  0.1036
54447W        W97500   9.724  28.277  26.604  0.1182 -0.3729 -0.0992
54448W        W97501  10.939  21.705   0.230 -0.0777  0.1178 -0.0986
54449W        W97502  16.606   1.864  19.615  0.0646  0.1549  0.0088
54450W        W97503  34.604  27.444  16.720 -0.0202 -0.0307 -0.2603
54451W        W97504   6.934  12.777  26.912 -0.1159  0.3180  0.0274
54452W        W97505   6.095  22.021  16.741 -0.0925  0.1374 -0.0070
54453W        W97506   9.116  32.281  27.566 -0.4348 -0.0996  0.1741
54454W        W97507  11.575   5.201  21.959 -0.3090 -0.0246 -0.1184
54455W        W97508   4.996  34.154  27.738  0.1397  0.1654  0.2410
54456W        W97509   6.085  12.466  28.889  0.1240 -0.2053 -0.1205
54457W        W97510  34.318   8.465  20.087 -0.0073  0.1140  0.0562
54458W        W97511  31.559  34.600  23.512 -0.1727 -0.2082  0.0499
54459W        W97512   0.305   4.337  24.361  0.0637  0.0421  0.1569
54460W        W97513   5.958  30.310   3.406 -0.1933  0.0282 -0.1961
54461W        W97514   5.709  26.941   8.338 -0.0509  0.2521  0.0615
54462W        W97515  20.476  11.132   1.460 -0.1641 -0.1003  0.3787
54463W        W97516  17.963   4.436   7.401  0.4514 -0.2938  0.1537
54464W        W97517  15.918  20.857  15.443 -0.0304  0.0507  0.3024
54465W        W97518   8.730  30.290  21.894 -0.0908  0.1185 -0.0104
54466W        W97519  10.458  32.780  18.937 -0.2349  0.3006  0.1049
54467W        W97520  25.219  33.104  26.559 -0.4386  0.1205  0.1476
54468W        W97521  10.902  27.620  14.063 -0.1875 -0.1155  0.0396
54469W        W97522  18.479   6.460   1.803  0.1329 -0.0410 -0.0537
54470W        W97523  13.644   1.609   4.490 -0.3129  0.2331  0.0500
54471W        W97524  28.138   6.819  21.424  0.2100 -0.4262 -0.0058
54472W        W97525  26.096  28.403  27.197  0.0116 -0.0789 -0.0431
54473W        W97526  23.460  12.607  20.561 -0.4048  0.0949  0.0310
54474W        W97527  24.188   3.069  16.708  0.0675 -0.3238  0.1417
54475W        W97528  27.913  24.942   4.941 -0.1361 -0.0238 -0.1092
54476W        W97529   8.706   4.068  19.437  0.1860  0.2012  0.1048
54477W        W97530  19.132  27.534  24.860 -0.2161  0.1999 -0.2838
54478W        W97531   8.823  14.056  19.730 -0.1384  0.1548  0.0447
54479W        W97532  24.771   0.366   2.890 -0.0798  0.4661  0.1922
54480W        W97533  31.943  16.461  24.881 -0.0460 -0.2820  0.0521
54481W        W97534  13.721   0.488  18.594 -0.3121 -0.0192 -0.2240
54482W        W97535  28.287   7.631   5.000 -0.1312 -0.0334 -0.2122
54483W        W97536  16.532  26.261  26.524 -0.0305  0.2486  0.2798
54484W        W97537  16.993  28.529  23.480 -0.0701 -0.2071 -0.0795
54485W        W97538  11.815  13.489  16.012  0.2563 -0.1752  0.0814
54486W        W97539  18.684  22.212  24.450  0.0908  0.0618 -0.1771
54487W        W97540  30.751   0.637   4.880  0.2206 -0.1579  0.2584
54488W        W97541  24.660   1.423   0.288 -0.0543 -0.0006  0.0053
54489W        W97542  34.645  12.702  14.152  0.0855  0.0278 -0.4159
54490W        W97543  23.160  31.867  26.097 -0.0110  0.0637  0.1729
54491W        W97544   6.199   2.134  21.888  0.1416  0.0690 -0.0312
54492W        W97545  10.783  16.146  22.404 -0.2956 -0.1170  0.1500
54493W        W97546  14.006   0.389  19.397  0.0930  0.4131  0.1382
54494W        W97547  23.538   2.895   2.095  0.1421  0.1294  0.1082
54495W        W97548  28.995  33.304  22.052  0.0134 -0.2084  0.0326
54496W        W97549  18.766  13.352  28.888  0.0557 -0.0166  0.2356
54497W        W97550   9.117   3.729  13.817  0.0297 -0.0976  0.1983
54498W        W97551   2.356  10.970  15.521  0.2486  0.2422 -0.3239
54499W        W97552  18.323   6.269  18.977  0.0860 -0.0907  0.0130
54500W        W97553  28.413  19.608  19.411  0.0864  0.1280  0.1160
54501W        W97554  28.292  26.931  20.895 -0.1090 -0.2318 -0.3383
54502W        W97555   3.113  32.956  21.637 -0.0684  0.1473 -0.1794
54503W        W97556   7.546   2.940  26.373  0.6148  0.3481 -0.1209
54504W        W97557  22.909  31.406  19.097 -0.3729 -0.0777  0.0839
54505W        W97558  14.380  24.028  28.112 -0.2428 -0.0664  0.1527
54506W        W97559   0.457   5.478  15.548 -0.1987  0.0833 -0.0638
54507W        W97560   2.698  33.463  15.893 -0.0696 -0.3989 -0.5228
54508W        W97561  13.864  34.265  14.967  0.1233 -0.0849 -0.1239
54509W        W97562   1.944   8.447  15.818 -0.2062 -0.0149  0.2110
54510W        W97563  17.179   7.411  24.371 -0.1417  0.0308 -0.0670
54511W        W97564  28.467  18.043  27.134 -0.0064  0.2963 -0.0711
54512W        W97565  12.426   0.296  19.420 -0.0011  0.1413 -0.3748
54513W        W97566  15.190  27.220  14.265  0.0253  0.0216  0.0944
54514W        W97567  16.289   9.097  15.540  0.1145 -0.2324  0.1084
54515W        W97568   3.309   9.845   7.215 -0.0818  0.0706 -0.2305
54516W        W97569  22.532   8.240  20.511  0.1124  0.1603  0.1215
54517W        W97570  12.867  14.504   2.590  0.1585 -0.2303  0.1903
54518W        W97571  12.644  10.478  26.040 -0.4972 -0.3783  0.1654
54519W        W97572   6.134  19.181  15.368  0.1791 -0.0911  0.0153
54520W        W97573   6.688   2.888  29.043 -0.4763 -0.1499  0.1310
54521W        W97574  29.562  29.456  14.106  0.2024 -0.0906  0.2760
54522W        W97575  22.418  30.226  22.409 -0.2782  0.0922 -0.1434
54523W        W97576  27.787  18.658  17.872  0.1286  0.1884 -0.1426
54524W        W97577  17.697  12.548  22.461  0.3086 -0.0487 -0.3223
54525W        W97578  13.621   8.197  16.492 -0.0941 -0.1741  0.1462
54526W        W97579  12.918  24.945  23.941 -0.5223 -0.1698 -0.2330
54527W        W97580   3.227   3.693  26.828  0.1320 -0.1195 -0.1575
54528W        W97581  26.676  34.454  20.372 -0.2728 -0.2792 -0.2557
54529W        W97582  11.559  15.227  24.068  0.1661 -0.2250  0.2388
54530W        W97583  27.080  10.347  22.518  0.0860  0.1397  0.2368
54531W        W97584  13.326   2.004  25.138 -0.0042  0.1514  0.1192
54532W        W97585  19.924   1.221  15.175 -0.0404 -0.1563  0.0522
54533W        W97586   2.200  15.034  20.203 -0.0526  0.0810 -0.3465
54534W        W97587  12.603  30.634  29.185  0.0496  0.0954  0.0811
54535W        W97588  34.063  34.489  28.937 -0.0799  0.2300  0.2765
54536W        W97589  22.724  27.942   0.514 -0.1517  0.1242 -0.0499
54537W        W97590  33.172  14.559   4.157  0.1378 -0.0063 -0.1337
54538W        W97591   7.022  31.807  23.844  0.0906  0.1988 -0.1464
54539W        W97592  10.650   0.138   1.088 -0.0758 -0.1902 -0.1873
54540W        W97593  14.853   0.627  15.873  0.0163 -0.1227 -0.1185
54541W        W97594  22.078  19.187  14.167 -0.0832  0.0402  0.2067
54542W        W97595   9.940  15.747  24.541 -0.1060 -0.1007  0.2389
54543W        W97596  12.542  33.899  19.391  0.0005  0.0442  0.0929
54544W        W97597  33.473  32.232  16.204  0.0279  0.0119 -0.1052
54545W        W97598  17.205  13.237  14.438  0.1142  0.2504  0.0242
54546W        W97599   9.396  33.422  26.979 -0.2272  0.2488  0.1026
54547W        W97600  14.636   2.307  26.727  0.0217 -0.2335 -0.2306
54548W        W97601   8.674  14.618  16.882 -0.0738 -0.0206 -0.2112
54549W        W97602   4.677  10.462  28.229  0.2085 -0.0614  0.0743
54550W        W97603   9.409  33.165  16.413 -0.1532 -0.0393 -0.3175
54551W        W97604   1.842  10.366  16.210  0.0120  0.1738  0.1782
54552W        W97605  25.799  34.012  27.856 -0.0323 -0.0988  0.0819
54553W        W97606  25.656  30.465  15.219  0.1851 -0.0314  0.1069
54554W        W97607  26.360   4.442  14.648  0.1963  0.0507  0.2464
54555W        W97608  29.887  29.608  21.672  0.1810  0.0816  0.0652
54556W        W97609  26.108   2.560   4.570 -0.2044  0.1427  0.0903
54557W        W97610   3.199  32.243  25.357 -0.0626  0.0060 -0.2024
54558W        W97611  15.184   2.383  17.282  0.1668  0.3974  0.0274
54559W        W97612   1.393   7.894  19.402 -0.0919  0.2282  0.1168
54560W        W97613   9.878  31.000  27.170  0.1873 -0.0658  0.0284
54561W        W97614   6.045  26.114  13.593 -0.0763  0.0006 -0.2977
54562W        W97615   3.630   3.707   5.968 -0.1338 -0.2062  0.0777
54563W        W97616   5.393   2.772  19.715  0.1395  0.0375 -0.1125
54564W        W97617  18.139  13.303  26.309  0.2072  0.2528 -0.0008
54565W        W97618   0.642  20.478  10.116  0.0775 -0.0443 -0.0583
54566W        W97619  17.039  15.564   2.236  0.1124  0.0123  0.3039
54567W        W97620   6.786  32.723  13.242  0.1447 -0.2905  0.2200
54568W        W97621   6.601  16.766  16.550 -0.0258 -0.2404 -0.1969
54569W        W97622   3.441  11.228   1.138 -0.4473 -0.0058  0.1897
54570W        W97623   2.575  16.142  28.722 -0.0187 -0.0645  0.0080
54571W        W97624   8.089  30.705   4.146  0.1034 -0.0035  0.0728
54572W        W97625   1.155   5.641  27.171  0.0771 -0.1432 -0.1411
54573W        W97626   3.244  20.596   5.927  0.1050  0.1176 -0.0781
54574W        W97627  11.474  14.317  15.495 -0.4099 -0.0448  0.3929
54575W        W97628  21.518  33.804  27.640  0.2096 -0.1257  0.1587
54576W        W97629  13.647  14.208  28.590  0.0671  0.2472 -0.0628
54577W        W97630  19.637  15.399  27.605  0.1644  0.0626  0.2546
54578W        W97631   5.565   9.168  17.225 -0.0586  0.0801 -0.1729
54579W        W97632   2.967  22.571  20.068 -0.0833 -0.1831  0.3262
54580W        W97633  24.474  17.360  17.061 -0.1075 -0.0787  0.0994
54581W        W97634  13.736  13.140  20.557  0.0843  0.2545  0.1851
54582W        W97635   1.911  27.148   4.825  0.1995 -0.0699 -0.0123
54583W        W97636  20.387  15.025  24.206 -0.3673 -0.0841  0.0055
54584W        W97637   9.788   5.969  23.058 -0.0194 -0.2652 -0.1896
54585W        W97638  12.378   7.906  25.593  0.1686  0.0721  0.0975
54586W        W97639  23.201   6.745  25.817  0.0439 -0.0070  0.3386
54587W        W97640  12.512   2.389  15.967 -0.3046  0.0323  0.2880
54588W        W97641   4.177  15.877  23.761  0.0453 -0.3331  0.1295
54589W        W97642  13.488  32.999   1.378  0.1861 -0.0172 -0.1358
54590W        W97643  17.022   6.347   5.777 -0.0766 -0.0953 -0.4024
54591W        W97644  18.165  33.806  28.327  0.0249  0.0633  0.0448
54592W        W97645  16.440   2.438  25.887  0.1353  0.3879  0.1597
54593W        W97646  14.452   4.790  16.391 -0.1797  0.1338 -0.1255
54594W        W97647  14.493   9.935  22.309  0.1785 -0.0050 -0.0355
54595W        W97648  10.061  14.683  18.902 -0.0854 -0.3136 -0.0179
54596W        W97649  25.035   3.219   9.413  0.3637  0.2168  0.3896
54597W        W97650  16.522  24.624  20.598  0.1938  0.0200 -0.0236
54598W        W97651  20.310   3.543  19.016 -0.1291 -0.1331  0.1289
54599W        W97652  23.057   3.129  21.977  0.2128  0.0098  0.1954
54600W        W97653   6.780  10.166   9.699 -0.0233  0.1264  0.2108
54601W        W97654   0.082  27.690  22.060  0.0698  0.1638  0.0682
54602W        W97655  14.549  31.188  19.619 -0.0850 -0.1249  0.0187
54603W        W97656   7.227  32.031  25.159 -0.0415 -0.1869 -0.2944
54604W        W97657  10.051  34.075   1.243  0.0727  0.0159  0.3885
54605W        W97658   1.205  19.549  15.450 -0.1385 -0.0191 -0.1496
54606W        W97659  26.820   1.796  23.565 -0.0528  0.2717 -0.1551
54607W        W97660  21.538  19.221   6.052  0.1405 -0.1542 -0.1874
54608W        W97661  10.345   2.526  26.580  0.2736 -0.0551  0.3009
54609W        W97662  21.599   0.069  23.060  0.1874 -0.0153  0.1459
54610W        W97663   7.694   5.717   9.502  0.0294 -0.0721  0.3503
54611W        W97664   2.047  13.247  23.538 -0.2071  0.4043 -0.2521
54612W        W97665   3.126  32.997  23.346 -0.2409 -0.0434  0.0895
54613W        W97666  30.500   8.927   2.534  0.1771 -0.1567  0.2434
54614W        W97667   6.952  29.087  28.501  0.0680 -0.2533 -0.1268
54615W        W97668  26.880   2.698  19.059 -0.1484 -0.1811  0.0495
54616W        W97669  13.447   7.301  19.057 -0.0546  0.1820  0.2033
54617W        W97670   3.282  31.173   4.885  0.3356 -0.1950 -0.0995
54618W        W97671   9.293  12.312  21.903  0.0880  0.0922  0.1420
54619W        W97672  26.331   9.890  28.577 -0.1384 -0.0002 -0.3617
54620W        W97673  18.186   2.768  23.975 -0.0147 -0.1909 -0.2649
54621W        W97674  19.316  11.566  25.975  0.0526 -0.2776 -0.1568
54622W        W97675  24.063   8.341   9.201 -0.3924 -0.3500  0.0519
54623W        W97676  18.177   7.560   4.485 -0.3434 -0.1142 -0.0036
54624W        W97677  11.790  14.617  15.720  0.0797  0.2025 -0.2499
54625W        W97678   5.420  17.813   3.732  0.0072 -0.2004 -0.2969
54626W        W97679   6.511   7.224   9.437 -0.1325  0.2142 -0.0068
54627W        W97680   6.724  14.049   0.500  0.0576  0.3517  0.0242
54628W        W97681  13.942  31.017  20.746 -0.0510  0.0466 -0.0489
54629W        W97682  18.212   7.720  26.824  0.0265 -0.0636  0.1490
54630W        W97683   8.770  22.678   0.194  0.5018 -0.0878 -0.2596
54631W        W97684  19.488  28.773  18.697 -0.1612 -0.1666 -0.0369
54632W        W97685   9.955   4.356  27.431 -0.1165  0.1516  0.4324
54633W        W97686   4.382  29.185   0.690 -0.0056  0.0305 -0.0615
54634W        W97687  23.426  25.354   1.345  0.1482  0.0077  0.0100
54635W        W97688  18.431  20.712   7.905 -0.1333  0.1702  0.2368
54636W        W97689  32.883  11.640  13.895  0.0052  0.2882  0.1818
54637W        W97690  34.056  14.087  21.941  0.0522 -0.0715  0.2445
54638W        W97691  11.300  17.088  17.845 -0.2424  0.1408 -0.0499
54639W        W97692   7.084  17.290  20.964  0.0181  0.5281 -0.0280
54640W        W97693  15.688  26.577  18.006  0.3788  0.0718  0.0079
54641W        W97694  19.719  31.555  14.024  0.1431 -0.0456 -0.1141
54642W        W97695  12.655  24.391  19.118  0.1096 -0.1338  0.1810
54643W        W97696   9.038  17.555  15.779 -0.0443  0.4134  0.0018
54644W        W97697  18.808  30.247  26.396 -0.2431  0.4230  0.1085
54645W        W97698  15.064   6.340  26.011 -0.1159 -0.0969  0.1665
54646W        W97699  12.702  12.273  16.167  0.3201  0.0403 -0.0050
54647W        W97700  15.858   8.962   3.310 -0.1061  0.0445  0.1770
54648W        W97701  17.175   8.107  20.025  0.0371  0.0104  0.4426
54649W        W97702  32.733   2.790  21.731  0.3587  0.1403 -0.1224
54650W        W97703  20.878  32.614  24.391 -0.0016 -0.1517  0.0108
54651W        W97704  20.571   0.442  21.303 -0.2090 -0.2367 -0.0176
54652W        W97705   1.079   7.787   4.247  0.1243 -0.2863 -0.0272
54653W        W97706  24.331  24.391   3.770  0.4881 -0.1326 -0.1376
54654W        W97707  32.551   9.887  28.806  0.1219 -0.2202  0.0850
54655W        W97708  16.467   7.759  28.373  0.0485 -0.0342  0.1249
54656W        W97709  18.561  19.625  22.734  0.1981 -0.1785  0.0564
54657W        W97710  32.088  10.366   5.738 -0.1870  0.0601 -0.3831
54658W        W97711  16.314   6.548  17.910  0.0587 -0.1982  0.1099
54659W        W97712  13.678  12.455  15.311 -0.3572  0.1203 -0.3015
54660W        W97713   2.096  11.684  13.777 -0.1141 -0.6120 -0.2284
54661W        W97714  20.459   2.592   1.280  0.2530 -0.1671  0.1439
54662W        W97715   7.403   7.406  18.777  0.0329 -0.1025 -0.0704
54663W        W97716   1.463   8.915  27.575 -0.0812 -0.1421 -0.1889
54664W        W97717   1.110  33.131  26.705  0.1960  0.2429 -0.3771
54665W        W97718  13.962  10.163  16.468  0.2532  0.2534 -0.1840
54666W        W97719  12.225  18.148  24.999 -0.0987 -0.0777 -0.2966
54667W        W97720  23.911   4.907  18.386  0.0092 -0.1916  0.0337
54668W        W97721  19.704  16.033   4.400 -0.2291  0.1777 -0.0692
54669W        W97722  11.038  18.424  17.217  0.1684  0.0857 -0.1056
54670W        W97723   9.241  10.082  17.602  0.3398 -0.2169 -0.0769
54671W        W97724  30.594  21.916   3.413 -0.0154  0.2360  0.0629
54672W        W97725  26.290   9.442  16.804  0.1871 -0.0600 -0.1714
54673W        W97726  12.200   3.166   0.771  0.0047 -0.1260 -0.1112
54674W        W97727   2.423   6.355  29.191 -0.0003 -0.0602 -0.0979
54675W        W97728  11.389   8.399   2.461 -0.0677  0.0330  0.1521
54676W        W97729   4.603  25.563  20.921  0.2094 -0.0229 -0.0136
54677W        W97730  21.054   1.290  25.254  0.0812  0.0785  0.0235
54678W        W97731  32.327  28.550  22.290 -0.0383 -0.0437  0.3996
54679W        W97732  18.044  22.581  16.207 -0.1632  0.1802 -0.2482
54680W        W97733   1.671   2.091  27.235  0.0477 -0.2274 -0.3510
54681W        W97734  14.677   9.280  28.301 -0.1020  0.0514 -0.1990
54682W        W97735   8.877  30.566   3.988 -0.0103  0.4814 -0.1369
54683W        W97736  14.884  26.030  18.067  0.0511 -0.3624 -0.0268
54684W        W97737  13.666   9.496   1.024 -0.1489 -0.0972 -0.1080
54685W        W97738  23.234  14.163  24.699 -0.2031 -0.3742 -0.0724
54686W        W97739  22.383   7.507  15.138 -0.0132 -0.0222  0.1105
54687W        W97740  12.324  22.205  21.647 -0.1414 -0.2504  0.2948
54688W        W97741  29.353  14.072  18.841 -0.1090 -0.3002 -0.1189
54689W        W97742  20.340   1.924   3.429  0.0052 -0.0026  0.0402
54690W        W97743   8.619   2.489   3.503  0.2761 -0.1382  0.3407
54691W        W97744  14.920  11.099  16.786 -0.2669  0.2798  0.1265
54692W        W97745  20.100   0.218  16.007 -0.1938 -0.3561  0.2160
54693W        W97746   5.623  10.867   5.683  0.0903  0.1524 -0.0324
54694W        W97747   9.714  31.781  24.757 -0.0829 -0.2812  0.1658
54695W        W97748  34.390  32.170   5.086  0.1425  0.0101 -0.2343
54696W        W97749   9.604  33.428  15.164 -0.0208 -0.1041  0.0201
54697W        W97750  13.906  29.931  18.703 -0.1310 -0.0538 -0.0140
54698W        W97751   3.403  13.838   4.188  0.1397  0.1500  0.0115
54699W        W97752  26.985  13.857  23.439  0.2955 -0.2247  0.1526
54700W        W97753  21.922  13.613  25.863 -0.0510 -0.1148 -0.0048
54701W        W97754  11.652  18.740  16.807 -0.2623 -0.0193 -0.0328
54702W        W97755  18.114  24.054  27.141  0.0398 -0.2715  0.0639
54703W        W97756  19.730  25.524   1.001  0.1827 -0.2999  0.0486
54704W        W97757   5.684  23.023   5.632 -0.0892 -0.1410  0.0442
54705W        W97758  33.563   3.444  24.609  0.1973 -0.1685  0.2307
54706W        W97759  21.516   0.018   7.848  0.1246 -0.2617 -0.2761
54707W        W97760   3.440  16.388  16.833 -0.1075  0.0971 -0.1581
54708W        W97761  19.839  12.828  26.061  0.0130  0.1541  0.2935
54709W        W97762  18.111  11.147  25.766 -0.1201 -0.0522  0.5133
54710W        W97763  25.250  20.947   8.559 -0.0251 -0.1371  0.0528
54711W        W97764  25.941  17.051  21.875  0.1112  0.1981 -0.0329
54712W        W97765  23.084  30.320  20.709 -0.1286 -0.0375 -0.0264
54713W        W97766   8.540  32.275   5.283 -0.0085  0.0978 -0.0997
54714W        W97767  33.404   4.427  22.836  0.1103 -0.1857  0.0536
54715W        W97768  12.468   1.102   7.736  0.2771  0.0378 -0.0869
54716W        W97769   0.672   7.075  26.951 -0.4162  0.3015 -0.0318
54717W        W97770  20.037   0.237  26.091  0.0922 -0.0606  0.3140
54718W        W97771  21.089   6.159  20.589  0.0466 -0.1495  0.2761
54719W        W97772  14.166   3.337   6.696 -0.1323 -0.1299 -0.1803
54720W        W97773  10.981   3.147  17.846 -0.0556  0.1879 -0.0236
54721W        W97774  25.307  15.957   3.773  0.0315 -0.0790 -0.1058
54722W        W97775  28.034   2.376  18.387 -0.1101  0.2549  0.6196
54723W        W97776  28.340   8.708   4.202  0.2321  0.0973  0.0676
54724W        W97777  10.113   0.457   8.035 -0.0278  0.0704 -0.2419
54725W        W97778   9.091  31.097  17.043  0.0749 -0.3835 -0.0244
54726W        W97779  24.692  15.786  25.572 -0.2695  0.0020 -0.2445
54727W        W97780   7.365  31.560   1.030 -0.1100  0.1626  0.1668
54728W        W97781   9.107   7.278  27.040 -0.2116 -0.1044  0.1964
54729W        W97782  28.868  21.384   2.105 -0.1582 -0.1430  0.4349
54730W        W97783   2.362   6.510  28.066 -0.1859 -0.0743  0.0804
54731W        W97784   4.143  31.429   0.416  0.0340  0.0882  0.1590
54732W        W97785  16.589  28.601   3.229 -0.2599 -0.3044 -0.4467
54733W        W97786   4.919  12.747  27.630  0.3563  0.2076 -0.2788
54734W        W97787   4.914   9.572  28.213 -0.0265  0.3384  0.4130
54735W        W97788   4.420  19.843  24.367  0.2265 -0.0802  0.0804
54736W        W97789  17.229  33.623  15.732  0.0994  0.3375  0.2143
54737W        W97790  11.810   0.603   0.549 -0.0651 -0.0357  0.1860
54738W        W97791  16.865   2.747  23.535  0.0282 -0.2545 -0.1568
54739W        W97792  20.994  11.554  24.753 -0.4477  0.0932  0.0724
54740W        W97793  17.455  27.822  15.942  0.1181 -0.1754 -0.1020
54741W        W97794  16.610  13.159  15.379  0.0692  0.0252 -0.0907
54742W        W97795  22.005   1.851   6.985  0.0430 -0.1503 -0.1101
54743W        W97796  13.527  13.651  15.101 -0.0031  0.0456 -0.1277
54744W        W97797  10.330  31.433  21.525 -0.1642  0.2592 -0.2923
54745W        W97798  10.699  18.719  18.148  0.0369  0.1192 -0.2987
54746W        W97799   8.549  10.861  24.559 -0.1443 -0.3108  0.0181
54747W        W97800   5.871   8.361  24.762 -0.0352 -0.0656 -0.0298
54748W        W97801  13.565   6.076  26.339  0.1747  0.2671 -0.2792
54749W        W97802   2.219  12.186  17.002  0.3186 -0.2096 -0.4486
54750W        W97803   5.840   2.986  18.490  0.0925 -0.2002  0.3676
54751W        W97804  15.270  12.398   3.127  0.1296 -0.2242 -0.1095
54752W        W97805   0.583   9.414   3.882  0.0238 -0.1679  0.0885
54753W        W97806  10.970  11.308   9.465 -0.0930  0.2420 -0.2118
54754W        W97807  34.017   0.815  19.943  0.2886 -0.0436 -0.0062
54755W        W97808   9.226  11.800  15.393  0.1583 -0.3127  0.2349
54756W        W97809  31.988  11.161  22.404  0.0110 -0.1105  0.1715
54757W        W97810  13.830  13.459   7.623 -0.0069  0.4092  0.1170
54758W        W97811  20.035  17.154  28.525  0.1663  0.3452  0.2247
54759W        W97812  15.737   5.204   8.022  0.1088 -0.0604 -0.2242
54760W        W97813  11.989   2.702   3.393  0.4893  0.4408 -0.1322
54761W        W97814  31.950  12.914  24.062  0.1412 -0.0649  0.0738
54762W        W97815  30.034  19.955  26.276 -0.3253  0.2923 -0.1439
54763W        W97816  33.006  30.254  19.778 -0.0689 -0.0168 -0.0149
54764W        W97817  33.108   2.846  28.407 -0.1158 -0.1553 -0.1869
54765W        W97818  21.745  19.638  26.184 -0.2609  0.1258 -0.0560
54766W        W97819   7.862   0.263   3.932  0.0642 -0.1711 -0.1092
54767W        W97820  11.364  27.236  23.528  0.2417 -0.1527  0.2395
54768W        W97821  15.501  14.409   4.555  0.0471  0.3894 -0.2089
54769W        W97822  13.413   2.660   3.464 -0.1503 -0.1388 -0.2990
54770W        W97823   9.255  26.856  14.934  0.1880  0.0685  0.3259
54771W        W97824  29.264   1.502   5.801  0.0038 -0.0925 -0.2190
54772W        W97825  15.355  26.041  22.828 -0.2573  0.1009  0.2011
54773W        W97826   4.676  28.421  20.304 -0.2567 -0.1168  0.7727
54774W        W97827   1.249   8.581  22.240 -0.0804 -0.0936 -0.1117
54775W        W97828  31.219   0.296   4.141 -0.0416 -0.2554  0.1313
54776W        W97829  34.284  14.301  15.940  0.0600 -0.2207 -0.0223
54777W        W97830  20.575  31.141   2.802 -0.4679  0.1506  0.0894
54778W        W97831  23.032  15.410  25.543  0.3036  0.1569  0.0389
54779W        W97832   0.586  17.049  23.695  0.3390  0.0921  0.1219
54780W        W97833   7.467  24.649  14.925  0.0633 -0.2738  0.2313
54781W        W97834  10.603   3.039  18.669 -0.0691 -0.1614 -0.0054
54782W        W97835  27.723   5.086   7.799 -0.0908  0.3012  0.1101
54783W        W97836  25.118  32.109   3.561 -0.0985  0.0068  0.2610
54784W        W97837  16.259  33.583  21.765  0.2352  0.3218 -0.0471
54785W        W97838  33.121  11.673   6.103  0.0992 -0.2783  0.2051
54786W        W97839   6.405  12.621  24.382  0.0605 -0.1648 -0.1232
54787W        W97840   7.902  20.297   3.581 -0.2117  0.1516 -0.0400
54788W        W97841  11.648   7.003   2.170 -0.0441  0.1312 -0.1972
54789W        W97842  18.126   5.799  13.884  0.0445  0.2717 -0.0957
54790W        W97843  10.164  32.667  19.339  0.3180 -0.2605 -0.4741
54791W        W97844  10.347   7.529   1.703 -0.2900 -0.0905  0.2867
54792W        W97845  12.006   7.778  26.507  0.0681 -0.1102  0.0239
54793W        W97846  25.945   0.475  24.140  0.1260 -0.0842 -0.1049
54794W        W97847  15.807   6.270  21.347 -0.0843 -0.1951  0.0156
54795W        W97848  18.937  32.594  17.662 -0.2712  0.3621 -0.3532
54796W        W97849  33.601   9.995  19.281  0.1538  0.1323 -0.1134
54797W        W97850   0.282  10.599  26.312 -0.1269 -0.2495 -0.4399
54798W        W97851   7.916   8.313   1.830  0.0893 -0.0007 -0.0118
54799W        W97852   5.701   1.909   5.550 -0.0953 -0.0083  0.0317
54800W        W97853  24.726  32.940  10.170 -0.1858 -0.3294  0.1213
54801W        W97854  30.945  34.028   1.329 -0.2839  0.2470  0.0975
54802W        W97855  28.347  33.194   0.338  0.0641 -0.1072 -0.2911
54803W        W97856   8.974  18.766  15.026  0.1386 -0.3685 -0.3278
54804W        W97857  26.706  30.196   9.136 -0.1018 -0.1975 -0.1488
54805W        W97858  16.114   5.757   0.147  0.3481  0.3127  0.3531
54806W        W97859   1.836  21.181  17.671 -0.0066 -0.1827  0.4037
54807W        W97860   9.181  18.080  29.119  0.1417 -0.0888  0.4207
54808W        W97861  20.953  19.548  20.792  0.2417  0.4909 -0.0260
54809W        W97862  20.615   4.888   2.867  0.1357  0.2527  0.1629
54810W        W97863   8.191  17.631  14.392 -0.0170  0.2704  0.0897
54811W        W97864  14.755  26.174   0.187  0.1086 -0.1275 -0.1564
54812W        W97865  12.217  18.461   6.374  0.0536 -0.0831  0.3813
54813W        W97866  26.637   2.541  23.835 -0.0642  0.3083  0.1044
54814W        W97867  31.023  18.609  26.889  0.1036 -0.0932  0.1633
54815W        W97868   9.223  22.276  28.736 -0.2294 -0.1675 -0.3784
54816W        W97869   9.789  15.263   9.006 -0.0493  0.1039  0.0667
54817W        W97870  10.044  20.355  24.804  0.0504 -0.0530  0.1203
54818W        W97871   0.372  13.037  19.531 -0.1665 -0.0148  0.3443
54819W        W97872  21.578   9.995   0.848 -0.0619 -0.1034  0.2113
54820W        W97873  13.088  20.819   1.471  0.0417  0.3038  0.0760
54821W        W97874   1.726   6.925  25.904 -0.2470 -0.1410  0.1033
54822W        W97875  16.713   8.891  21.012 -0.1592  0.1314  0.0745
54823W        W97876  33.060  16.020   8.152  0.0866 -0.3312  0.1719
54824W        W97877  18.797  12.277   1.143 -0.3307 -0.2231  0.0315
54825W        W97878   2.361  16.780   1.026 -0.0246 -0.1037 -0.0370
54826W        W97879   6.805  10.622  20.628  0.2384 -0.1016 -0.0857
54827W        W97880  26.105  20.125  14.849 -0.1037  0.1376 -0.0800
54828W        W97881  18.873   1.514  28.663 -0.0472 -0.1311  0.2349
54829W        W97882   2.643   5.745   9.531  0.1204 -0.1393  0.2525
54830W        W97883  19.209  27.517   0.893 -0.0470  0.1552 -0.5590
54831W        W97884  17.339   4.490  25.951 -0.1241  0.0702 -0.0329
54832W        W97885  12.950   9.144  20.790  0.0128  0.2103 -0.0797
54833W        W97886  23.010  32.659  23.418 -0.1632 -0.0742  0.0056
54834W        W97887   9.027  30.823  28.808  0.3595 -0.1148 -0.4596
54835W        W97888  11.070  17.478  24.377 -0.1388  0.2830  0.1032
54836W        W97889  11.900   8.465  27.186  0.3154  0.0312  0.3068
54837W        W97890  28.166  18.436   2.637  0.0537  0.0349 -0.0511
54838W        W97891  12.331   4.233  16.903 -0.2224  0.2366  0.0991
54839W        W97892  14.545  25.111   6.463  0.0143 -0.1494 -0.0289
54840W        W97893  19.192  27.199  21.448  0.0093  0.2594 -0.1924
54841W        W97894   4.927   8.510  19.762 -0.0232 -0.1632 -0.0984
54842W        W97895  29.020   1.871   0.114  0.1403 -0.0590 -0.1011
54843W        W97896  18.393   8.843   8.716  0.2258  0.0693  0.1274
54844W        W97897   6.339  31.648  25.989  0.0533 -0.2366  0.1374
54845W        W97898  24.069  30.568  18.749  0.0766  0.0721 -0.2864
54846W        W97899   8.887  28.562  17.732 -0.2605 -0.0923  0.0559
54847W        W97900  10.518  23.637   3.590  0.1635 -0.0910 -0.4079
54848W        W97901  13.753   8.961  25.763 -0.2492 -0.3272  0.1150
54849W        W97902  12.884   8.517  20.209  0.0635 -0.2401 -0.1085
54850W        W97903   7.651   0.375  19.683  0.0732  0.0949 -0.0149
54851W        W97904  21.215   5.473  14.473 -0.0236 -0.0736  0.0183
54852W        W97905   1.854   8.075   6.255 -0.0330 -0.2455 -0.0872
54853W        W97906  17.610   5.827  25.414  0.1723  0.1119 -0.0820
54854W        W97907  27.491   1.322  20.715 -0.3330 -0.0792 -0.3134
54855W        W97908  13.801  29.160   0.123  0.3904 -0.1566 -0.2021
54856W        W97909  33.666  15.408  22.234 -0.1766 -0.1955 -0.3164
54857W        W97910  12.665   6.054   6.761  0.0978  0.3644 -0.1525
54858W        W97911  14.303   2.063  22.941  0.0646 -0.1987  0.2625
54859W        W97912  13.863  12.819  26.872 -0.3029 -0.1524 -0.1409
54860W        W97913  20.282  23.604  16.719  0.3108 -0.1671 -0.1385
54861W        W97914   8.233   7.891   8.770  0.1758  0.2293  0.1431
54862W        W97915  13.351   7.565   5.167  0.3022 -0.0763  0.1944
54863W        W97916  17.995  25.994   6.265  0.1873  0.0784 -0.1112
54864W        W97917  18.762  11.725  27.571 -0.0272 -0.1141  0.3350
54865W        W97918   8.470   7.121   1.682  0.1818  0.0205  0.2457
54866W        W97919  12.260  25.187  18.118 -0.0217 -0.0289  0.0476
54867W        W97920  22.858   7.389  16.963  0.0251  0.0051  0.0373
54868W        W97921  11.431   5.527  26.116 -0.0576 -0.3362 -0.0421
54869W        W97922   5.281  16.907   3.977  0.0606 -0.0544  0.0308
54870W        W97923   5.179   0.385   8.672  0.3781  0.3454 -0.0793
54871W        W97924   9.978   9.897  24.263 -0.0170  0.4289 -0.1496
54872W        W97925  20.837   2.994  27.502  0.0031  0.0941 -0.0378
54873W        W97926   4.278   6.393  24.445 -0.0679  0.0207 -0.4177
54874W        W97927  22.167   6.235   5.138 -0.1988  0.1884 -0.0109
54875W        W97928  12.604  15.430   5.828  0.0518  0.3276 -0.1000
54876W        W97929  33.027   5.735  28.988 -0.2524  0.1273  0.3734
54877W        W97930   6.830   9.126  26.959  0.0972 -0.7007 -0.2285
54878W        W97931  34.086   7.671   7.433 -0.0979 -0.2465  0.0797
54879W        W97932  10.380  20.364  20.186 -0.2792 -0.2721 -0.0762
54880W        W97933   9.991  15.811  19.503  0.0276 -0.1948 -0.1358
54881W        W97934  19.081  11.501   4.192  0.1335  0.0670  0.0863
54882W        W97935  13.227  18.324   7.022  0.1641 -0.0436  0.3279
54883W        W97936  23.864  14.400  16.730  0.0399  0.1269 -0.0155
54884W        W97937  20.747   0.894  25.522  0.0005 -0.0426  0.0187
54885W        W97938  18.484  30.130   1.200 -0.0167  0.1288 -0.2555
54886W        W97939   3.421   3.488  20.915  0.0125  0.0498  0.2034
54887W        W97940  29.787   4.904  21.317 -0.0893  0.1390 -0.2430
54888W        W97941  32.572   5.564   4.541 -0.0071  0.1307 -0.0485
54889W        W97942  15.619   6.509  24.806 -0.0917  0.0773 -0.0328
54890W        W97943  17.432  34.540   0.639  0.1287 -0.0503  0.1031
54891W        W97944  26.820  23.882   0.074 -0.3171  0.0751 -0.2599
54892W        W97945  15.446  12.319  26.746  0.4028 -0.0304 -0.0454
54893W        W97946   9.296  31.251  18.035 -0.0082  0.0813 -0.0476
54894W        W97947  18.255   7.206  17.033 -0.3484 -0.1577 -0.1172
54895W        W97948  19.880  14.105  17.106 -0.0935 -0.2273 -0.0711
54896W        W97949   8.178   6.343  27.168 -0.0944 -0.0438 -0.3783
54897W        W97950   8.639  31.960   8.139 -0.0908 -0.0416 -0.0130
54898W        W97951   9.356  19.009  24.716  0.0382 -0.1893  0.2862
54899W        W97952  20.687  12.426   8.617  0.0502  0.2551 -0.0949
54900W        W97953  32.958  26.806  16.925 -0.5178 -0.0949 -0.3488
54901W        W97954  14.334  31.968  13.825  0.3016 -0.2732  0.1163
54902W        W97955  19.509  14.441   5.972  0.2762  0.1486 -0.1074
54903W        W97956  13.197  29.811   8.079  0.0660 -0.0735 -0.0902
54904W        W97957  29.321  25.548  20.188  0.1172 -0.1689 -0.0703
54905W        W97958  11.451  18.790  14.472 -0.0123  0.0583 -0.3076
54906W        W97959   5.516  24.517   5.519  0.2774 -0.2105  0.1046
54907W        W97960  25.576  33.182  15.246 -0.2036  0.1779  0.1329
54908W        W97961   8.030   2.274   5.892  0.0538 -0.0798 -0.0916
54909W        W97962  10.286  17.823  16.083 -0.1523 -0.2818  0.1609
54910W        W97963  13.038  11.957  16.393 -0.2381 -0.0546  0.0251
54911W        W97964  13.444  33.818   7.441 -0.1334  0.0911  0.2271
54912W        W97965  21.057  25.042   0.506 -0.2134  0.0613  0.0438
54913W        W97966   9.062   4.577  16.880  0.2882  0.1648 -0.0908
54914W        W97967  20.747   9.343  20.360  0.0995  0.0145 -0.0602
54915W        W97968  19.430   7.250   4.421  0.3087 -0.4636  0.3220
54916W        W97969  24.710   9.731  27.181  0.0566  0.2848  0.1740
54917W        W97970  13.896  17.322  26.715  0.0669  0.1216 -0.0676
54918W        W97971  13.383  17.083  25.892 -0.0565  0.3254 -0.4067
54919W        W97972  20.635   3.929   0.119  0.1095 -0.0343  0.2964
54920W        W97973   0.506   1.770   1.825  0.0588 -0.0440 -0.3663
54921W        W97974   2.151  20.614   8.561  0.0224 -0.2568 -0.0982
54922W        W97975  31.692  12.395  17.392 -0.1814  0.0389 -0.0583
54923W        W97976  15.471  12.067  17.818  0.2344 -0.0473  0.4280
54924W        W97977   2.601  23.945  25.309  0.1962 -0.0211 -0.2462
54925W        W97978   3.823  22.814   5.349 -0.0955  0.1128  0.0968
54926W        W97979  16.778  10.053   4.647 -0.0490  0.0558 -0.3893
54927W        W97980  14.148  30.291  26.408  0.0653  0.0115  0.3485
54928W        W97981  13.173  10.433  23.887 -0.1571 -0.0020 -0.0827
54929W        W97982   9.223  11.978  20.576  0.1039  0.2012  0.1355
54930W        W97983   7.411  23.380  23.701 -0.1241  0.0204  0.2768
54931W        W97984   5.762  29.918  24.995  0.0374 -0.0706  0.2352
54932W        W97985  11.995  32.720   9.917  0.1441  0.0685  0.0772
54933W        W97986   9.045  24.894   8.686 -0.1761  0.1286 -0.2278
54934W        W97987  21.063  11.577   0.128  0.1041  0.2531 -0.2058
54935W        W97988  34.526  19.963  20.870  0.2509  0.1091  0.3209
54936W        W97989  11.739  11.213   5.084  0.0457  0.1379  0.0976
54937W        W97990  14.436  25.780  26.770 -0.1534  0.2856  0.1089
54938W        W97991  27.445  14.338   4.779  0.2854  0.1060  0.1909
54939W        W97992  16.143   8.413   3.544 -0.0450  0.2899 -0.0646
54940W        W97993  21.977  28.295  26.299  0.1511 -0.0876 -0.1284
54941W        W97994  14.129  16.795  22.834  0.0472 -0.2337 -0.1697
54942W        W97995  28.079  16.914   6.856  0.0378  0.1990  0.2928
54943W        W97996   4.532  10.740  20.775  0.3467 -0.0658  0.1800
54944W        W97997  13.892  10.210   9.888 -0.2093 -0.1126 -0.0571
54945W        W97998  24.745  11.021   1.208 -0.0281  0.0008 -0.0772
54946W        W97999  34.518   1.103  25.260 -0.2511  0.2485  0.2183
54947W        W98000  13.638  15.633   7.275 -0.1231  0.0610 -0.1628
54948W        W98001  22.357  20.377  15.499 -0.4605  0.0445 -0.0241
54949W        W98002  20.136  29.411   4.786 -0.1299 -0.0321  0.2124
54950W        W98003  11.584   7.482  28.836 -0.2120 -0.2112 -0.0556
54951W        W98004  32.789  34.195  21.684 -0.1375 -0.2128 -0.0543
54952W        W98005  25.509   7.812  18.034 -0.1966 -0.2002 -0.1963
54953W        W98006  16.685  18.289  23.668 -0.0709 -0.3604  0.0363
54954W        W98007   8.944  34.456  25.166 -0.2218  0.1639  0.2599
54955W        W98008  15.486  32.326   3.849  0.2206  0.0098  0.0343
54956W        W98009  25.300   6.028  27.455  0.0408  0.1289  0.0984
54957W        W98010   5.912  17.023  26.209 -0.2029  0.1266 -0.0194
54958W        W98011   6.619  11.553  19.706 -0.1119  0.1102 -0.0053
54959W        W98012  17.882   1.181   7.074 -0.1349 -0.0516 -0.2178
54960W        W98013   7.297  25.284  28.195 -0.3754 -0.1809  0.1275
54961W        W98014  31.903   6.795  16.255  0.0504 -0.0355 -0.1468
54962W        W98015   0.834   3.748  24.393 -0.4609 -0.4536 -0.0818
54963W        W98016   9.592   0.605   9.090  0.0208 -0.1662 -0.1660
54964W        W98017   3.139   0.010  18.697 -0.2017  0.3382  0.0386
54965W        W98018   4.135  27.263   9.438 -0.1689 -0.2302  0.0029
54966W        W98019   8.745  19.355  28.070  0.0805 -0.2291 -0.1634
54967W        W98020   3.792   6.270   9.664  0.0709  0.0808 -0.1481
54968W        W98021  28.799  33.283  24.912  0.0453 -0.0974  0.1438
54969W        W98022  10.698   2.332   9.789 -0.3286 -0.0976 -0.4804
54970W        W98023  33.323  15.708  25.738 -0.2651  0.4282 -0.4267
54971W        W98024  30.103  32.801  28.217  0.0606 -0.0007  0.1448
54972W        W98025  25.437  25.795  18.604 -0.1029  0.0258  0.0306
54973W        W98026  16.117   4.836   5.282  0.3501  0.3315  0.3279
54974W        W98027  34.281   3.575   2.148  0.1257  0.0009  0.0405
54975W        W98028   9.002  17.456  19.216  0.0056 -0.1928  0.0595
54976W        W98029  20.188  31.247  24.856 -0.1194 -0.1832  0.4123
54977W        W98030  32.616  18.770   6.348 -0.0896  0.2291 -0.0664
54978W        W98031  23.093  10.559   4.699  0.1711  0.0209 -0.1002
54979W        W98032  16.203  32.461   1.208 -0.1074  0.2381  0.4216
54980W        W98033  13.287   9.595  28.751 -0.2991 -0.1150  0.0736
54981W        W98034   5.841   7.025  20.325 -0.0394  0.0826 -0.0253
54982W        W98035  19.742   2.017  28.789 -0.0703  0.3017  0.1841
54983W        W98036  10.343  13.436   4.487  0.2489 -0.3264 -0.1309
54984W        W98037  22.234   9.851  22.551 -0.0995  0.0091  0.2021
54985W        W98038  12.673  23.453  17.244  0.0601 -0.1443 -0.0258
54986W        W98039  17.379  31.985  26.935 -0.1549  0.0139 -0.2312
54987W        W98040  25.893  25.504  29.144  0.0374 -0.0515  0.2102
54988W        W98041  12.517  19.625  17.379 -0.2862  0.3335  0.2704
54989W        W98042  13.176   6.913  19.561  0.1452 -0.2677 -0.0458
54990W        W98043   6.687  11.760  27.955 -0.2188 -0.1121  0.0096
54991W        W98044  14.316  32.075  28.596  0.0784  0.0498  0.0037
54992W        W98045  10.882   2.384  26.371  0.1929  0.1155 -0.0733
54993W        W98046  10.166   1.500   0.447  0.1470 -0.0212  0.1271
54994W        W98047  23.437  16.929  16.954  0.1273  0.2832  0.0277
54995W        W98048  15.552   8.797  27.293  0.0962 -0.1207  0.0205
54996W        W98049  14.644   4.790   5.372  0.2411  0.0219  0.3092
54997W        W98050   6.690   9.490  26.343 -0.0741  0.3727  0.4565
54998W        W98051  17.892  16.529  23.016 -0.2583 -0.2809 -0.1715
54999W        W98052  18.246  14.723  28.584 -0.1423  0.2216 -0.0676
55000W        W98053   2.862  13.382  26.044 -0.0821  0.1057  0.0207
55001W        W98054   6.734   9.855  22.501  0.2163  0.0147  0.0366
55002W        W98055  13.966  13.215   7.214  0.0804  0.2719  0.4413
55003W        W98056  19.438   8.940   0.735 -0.0990  0.1505  0.0394
55004W        W98057  17.743   8.605  25.142  0.0492 -0.2225  0.3487
55005W        W98058  27.850  10.465  28.942 -0.0255  0.3337 -0.1514
55006W        W98059  31.710   9.723  19.569 -0.0015  0.0759  0.1030
55007W        W98060  15.968   0.854  14.569  0.1569 -0.2428 -0.1608
55008W        W98061   3.448   5.759   5.242  0.2279 -0.4933  0.1121
55009W        W98062  11.815  27.761   3.408 -0.4638 -0.0146  0.0470
55010W        W98063   2.076  28.398  23.317  0.0104 -0.1013  0.0860
55011W        W98064   9.094   4.949   9.245 -0.0724 -0.2553 -0.0238
55012W        W98065  19.033  11.074   6.455  0.0123 -0.0466 -0.0360
55013W        W98066  28.520  12.902  15.082  0.1132  0.2096 -0.1268
55014W        W98067   3.989  16.807   8.898  0.1876  0.3350 -0.1025
55015W        W98068  16.520   7.104  19.092 -0.2162  0.0673  0.1284
55016W        W98069   1.481   6.990  14.173  0.3856 -0.0631 -0.0951
55017W        W98070  19.664   1.926   4.673  0.0169  0.0669 -0.1508
55018W        W98071   2.510  31.364   3.847 -0.1364 -0.1549  0.0914
55019W        W98072  15.230   3.986  18.786  0.1369 -0.0734 -0.1816
55020W        W98073  17.730   3.925   9.113  0.1609 -0.0989 -0.0334
55021W        W98074   8.622  28.088  20.468  0.2788  0.1199 -0.1258
55022W        W98075  20.016  34.396  28.663  0.0458 -0.3202  0.0242
55023W        W98076  10.248   0.401  15.676 -0.2036  0.2989  0.2621
55024W        W98077  10.012   7.371   5.593  0.1704  0.2599  0.0784
55025W        W98078   5.265  16.731  17.214 -0.0860  0.1690 -0.1679
55026W        W98079  16.572  10.481  16.917 -0.1635  0.1128 -0.0744
55027W        W98080   9.678  12.823  18.217  0.3551 -0.0174  0.1893
55028W        W98081  20.874   2.235  22.277  0.2439 -0.0381 -0.0655
55029W        W98082  22.264   3.254  25.493  0.2357  0.3439 -0.1699
55030W        W98083  20.726   8.245  23.908  0.2852  0.1581  0.3625
55031W        W98084  13.568   4.202  20.353  0.1933 -0.4919 -0.3116
55032W        W98085  29.463   2.328  19.479  0.0855  0.1403 -0.1466
55033W        W98086  32.582  25.902  20.147  0.3587 -0.0999 -0.1996
55034W        W98087  28.006   8.117  24.286 -0.2360  0.1401 -0.1700
55035W        W98088  27.179  16.169  15.362 -0.1255 -0.0116  0.1555
55036W        W98089   9.856   1.739  15.315  0.0934  0.1511 -0.0173
55037W        W98090   7.720   7.249  21.355  0.1410 -0.1788 -0.1071
55038W        W98091  18.257   8.998   3.785  0.0057  0.1770 -0.2342
55039W        W98092  10.964  31.083   6.402 -0.1389  0.2456 -0.1441
55040W        W98093  22.113  17.877  17.702  0.3681  0.2636  0.2592
55041W        W98094  28.915  14.791  22.063  0.3538 -0.1579 -0.1327
55042W        W98095   9.988  34.430   2.274 -0.3162 -0.0796  0.0706
55043W        W98096  10.434  17.276  16.281  0.0758 -0.0664  0.2180
55044W        W98097  17.284   2.456  29.192  0.0220  0.1243 -0.1972
55045W        W98098  31.359   7.526  23.192 -0.1426 -0.1701 -0.1256
55046W        W98099  30.202  15.895  23.871  0.0699  0.1873  0.0132
55047W        W98100  16.109   7.184  23.530  0.1689  0.1302 -0.1736
55048W        W98101   0.589  10.691  23.419 -0.3004 -0.0973 -0.5012
55049W        W98102   6.318   4.243  16.147 -0.1713  0.1337  0.1093
55050W        W98103  27.998  14.143  17.467 -0.2115 -0.3692 -0.1120
55051W        W98104  19.087  11.536  13.993 -0.0397 -0.2328 -0.0515
55052W        W98105   7.409  13.832  23.219  0.1067  0.0710 -0.0091
55053W        W98106  20.397  26.206  20.669 -0.3558 -0.0726 -0.0036
55054W        W98107  20.988   1.151  19.125  0.0650 -0.1704  0.2783
55055W        W98108  14.185  12.854  24.927  0.1411  0.2136  0.2093
55056W        W98109   2.215   1.510   0.105 -0.1726  0.1971 -0.1637
55057W        W98110   5.785   9.759   2.836  0.1660  0.1434  0.1454
55058W        W98111  24.443   3.252  14.524  0.1716  0.3670  0.1186
55059W        W98112  23.057  11.542  27.947  0.2340 -0.1153  0.0707
55060W        W98113  19.076   6.471  28.798  0.0479  0.0500  0.1260
55061W        W98114  11.886  16.774   4.425 -0.1547 -0.2737 -0.0967
55062W        W98115  10.237   5.126  19.923  0.0428 -0.1514  0.2663
55063W        W98116  16.124   5.697  28.091 -0.0027 -0.1069  0.0814
55064W        W98117  11.764  31.136   4.015 -0.0947 -0.0241 -0.0525
55065W        W98118  19.464   2.988  25.954  0.3174  0.0867 -0.1142
55066W        W98119   8.722   9.417  21.503  0.2498 -0.1631  0.2734
55067W        W98120  31.497  24.867  25.173  0.0553  0.1060 -0.1741
55068W        W98121  15.726  21.901  20.325 -0.2009  0.4489 -0.2997
55069W        W98122   6.238  13.104  14.746 -0.4111 -0.4316 -0.1172
55070W        W98123  12.919   9.067  26.450  0.2707 -0.1203 -0.0797
55071W        W98124  12.859   8.196  25.698 -0.0485  0.1221  0.1631
55072W        W98125  14.130  31.038  16.268  0.0837  0.3289 -0.0506
55073W        W98126  12.263   8.923  22.505  0.1298  0.0738 -0.0370
55074W        W98127   8.059   7.358  15.992 -0.0435 -0.0007 -0.1114
55075W        W98128  19.547  15.297   7.043 -0.0196  0.0036 -0.2645
55076W        W98129   1.489   9.877  18.785  0.1811 -0.2236 -0.0055
55077W        W98130   7.103   8.975  15.829  0.2958  0.2241  0.0886
55078W        W98131  23.867   6.859  14.045 -0.0467 -0.1747 -0.1343
55079W        W98132   6.991  33.990  14.394 -0.0192  0.0772 -0.0728
55080W        W98133  16.045   6.561  24.519 -0.3379 -0.2253  0.1391
55081W        W98134  14.240   9.532  22.836  0.1881  0.0525 -0.2565
55082W        W98135  12.489   5.455  20.635 -0.2346  0.4153 -0.3309
55083W        W98136   7.902  13.768  19.676  0.0543  0.0031  0.1163
55084W        W98137  24.144  24.623   2.851  0.1636  0.2312 -0.3967
55085W        W98138   5.099  10.969  18.222 -0.1088 -0.1298 -0.1042
55086W        W98139  17.001   1.142  14.859 -0.1667 -0.4001  0.0819
55087W        W98140  29.392  12.773   0.657  0.0990 -0.0724 -0.1231
55088W        W98141   7.886  10.385   5.425  0.1353  0.0910  0.4021
55089W        W98142   0.611  10.156  28.137  0.0252  0.0182  0.0133
55090W        W98143  20.199  26.727   3.058 -0.0324  0.2512 -0.1425
55091W        W98144  12.468  33.177  24.460 -0.0801  0.0210  0.2461
55092W        W98145   8.946   5.228  19.151  0.0319  0.0044  0.1139
55093W        W98146  18.785   9.952  22.585 -0.2416  0.0868  0.2036
55094W        W98147  32.958  34.081  23.821  0.1014 -0.1863 -0.1932
55095W        W98148   7.992  31.966  26.643  0.2106  0.1117  0.0064
55096W        W98149  33.078  27.142  23.654  0.0259  0.2522 -0.0287
55097W        W98150   9.465  21.315  26.101  0.1227 -0.2865  0.1145
55098W        W98151  13.280   9.500  19.857  0.0276  0.1572  0.3721
55099W        W98152   6.016   0.460  17.298  0.0968  0.1380  0.0759
55100W        W98153  31.787   5.136  19.574  0.0858  0.0368 -0.0435
55101W        W98154  17.323   0.734  22.195 -0.1716  0.2706  0.0103
55102W        W98155  23.593   4.412  20.261 -0.2825 -0.2850  0.2086
55103W        W98156  24.553   0.636  14.100  0.0914  0.0692 -0.1632
55104W        W98157  22.377  16.379  20.472 -0.1241  0.2328 -0.1151
55105W        W98158   8.835  24.981  17.384 -0.1464  0.2107  0.1394
55106W        W98159  14.776  11.243  16.234  0.1064  0.0849 -0.0412
55107W        W98160  18.831  10.519  22.022 -0.2628  0.1931 -0.2623
55108W        W98161  27.745   9.217  23.039  0.0103  0.1089 -0.0563
55109W        W98162  20.422  16.330  22.757 -0.0567  0.2108 -0.2844
55110W        W98163  13.999  23.652  19.158 -0.1914 -0.2484 -0.2287
55111W        W98164   4.668  20.616  21.357 -0.0903 -0.0175  0.0233
55112W        W98165  15.381  14.128  27.673 -0.2658  0.0071 -0.1662
55113W        W98166  32.121  13.345  18.664  0.0547  0.1552  0.2269
55114W        W98167  18.025  14.103   4.068  0.0749  0.1820  0.1380
55115W        W98168  16.862  10.818  23.420  0.1508  0.0259  0.1028
55116W        W98169  17.980   7.067  13.717  0.0504  0.0189 -0.1643
55117W        W98170  19.972   0.668   8.567 -0.2483  0.1452  0.0930
55118W        W98171   4.937  11.779  23.384  0.4172 -0.1489 -0.1990
55119W        W98172   4.614  30.559  27.513 -0.0614 -0.0559 -0.1470
55120W        W98173  19.583   6.281  22.887 -0.4139 -0.1760 -0.0844
55121W        W98174  20.434   3.088  18.783 -0.0311  0.0865  0.3393
55122W        W98175  32.931  33.517  27.059 -0.0301  0.0401 -0.0183
55123W        W98176  17.094   8.720  29.002 -0.0108  0.2780  0.2336
55124W        W98177  20.674  22.350  25.530  0.0285  0.1428  0.0897
55125W        W98178  24.768  11.018  22.147 -0.0371  0.5227 -0.0501
55126W        W98179  12.821  17.218  24.420  0.4388 -0.0355  0.0371
55127W        W98180  32.792   9.941  14.191 -0.2480  0.4782  0.1376
55128W        W98181  33.146  10.980  17.744  0.3357 -0.2788 -0.0317
55129W        W98182  19.147   1.398  14.514  0.2331  0.1206 -0.1347
55130W        W98183  21.615  26.130  19.789  0.0014 -0.1021 -0.1507
55131W        W98184  18.181   4.554  18.974  0.0526 -0.1089 -0.0689
55132W        W98185  32.618  17.884  18.893  0.1131  0.2849  0.1415
55133W        W98186  17.519  12.462  15.021  0.2727 -0.0504 -0.0634
55134W        W98187  18.726   7.687  15.968 -0.2046 -0.0408  0.1577
55135W        W98188  28.109  17.137   3.922  0.1815 -0.2794  0.1005
55136W        W98189  23.724  10.720   1.323  0.0175  0.0669 -0.2351
55137W        W98190   3.993  19.865  24.706  0.4390 -0.0966 -0.2222
55138W        W98191  16.586  31.565   3.570 -0.0976  0.1226  0.1957
55139W        W98192   2.699   6.420  20.662 -0.0280 -0.0621 -0.0084
55140W        W98193  20.711  12.028  26.034  0.1227  0.1612 -0.0887
55141W        W98194  27.774  31.775  24.560  0.1105 -0.3207  0.1314
55142W        W98195   4.990  17.927  14.465 -0.7681  0.3510  0.0693
55143W        W98196  10.958  24.503  13.766  0.0477 -0.1428 -0.1968
55144W        W98197   5.671   9.811  15.958 -0.1890  0.0767  0.4214
55145W        W98198  28.478   2.209  28.074 -0.1223  0.2125  0.2591
55146W        W98199   2.260  11.662  17.242 -0.0383  0.0990 -0.3200
55147W        W98200   4.361  28.332   5.487  0.1683 -0.0640 -0.1423
55148W        W98201  25.806  18.380  15.248 -0.0694 -0.1217  0.1175
55149W        W98202  13.154   1.660  16.634 -0.2190  0.0522 -0.1832
55150W        W98203  13.480   5.040   3.374  0.0045 -0.4045  0.2153
55151W        W98204  10.189  24.664  23.579  0.0494 -0.2222 -0.0154
55152W        W98205  25.928   9.249  22.768 -0.1590 -0.1828 -0.1495
55153W        W98206  11.356  27.141  14.897 -0.0438  0.4429  0.2355
55154W        W98207  12.743  17.967  21.895  0.0664  0.1567  0.2548
55155W        W98208  14.500   3.798  15.176 -0.2925 -0.2216  0.2204
55156W        W98209  24.700   0.807  16.007 -0.1491  0.3515 -0.1035
55157W        W98210  18.847   4.503   1.537  0.1815  0.4807 -0.0357
55158W        W98211   9.129   1.532  17.218 -0.0361 -0.0328  0.1588
55159W        W98212  30.962  15.439  24.850  0.1411  0.1484  0.0111
55160W        W98213  10.751  11.531  21.274  0.0725  0.1580 -0.1782
55161W        W98214  17.773   0.593  27.094  0.0103  0.4065  0.0576
55162W        W98215   1.430   4.252   2.046  0.2238  0.2978  0.0142
55163W        W98216  16.405   4.069  21.765 -0.1082  0.0507  0.2867
55164W        W98217   7.884  34.184  25.588 -0.1430 -0.0043 -0.0223
55165W        W98218  27.027   3.172  20.972 -0.1120 -0.0777 -0.1005
55166W        W98219  16.309  30.037   0.810  0.2187  0.0372 -0.2462
55167W        W98220  10.048  30.157  14.869 -0.1088 -0.1857 -0.2377
55168W        W98221  18.780   8.847  17.309 -0.0135 -0.1412  0.2135
55169W        W98222  19.330   3.066   1.933 -0.2443  0.0426 -0.0548
55170W        W98223  12.500  25.108  24.475  0.1800 -0.2698 -0.1229
55171W        W98224  19.374  30.161  15.934 -0.0488 -0.1307  0.1263
55172W        W98225  19.546  31.989  26.957  0.0002  0.1099  0.0753
55173W        W98226   9.526  27.755  26.974 -0.0228 -0.0664 -0.2065
55174W        W98227  19.149  32.324  19.109 -0.2478  0.2907 -0.0298
55175W        W98228   5.976   4.243  13.852 -0.0526 -0.3866 -0.0342
55176W        W98229  31.172   6.949  25.701  0.4669  0.1340 -0.2063
55177W        W98230  31.416   0.437  19.733  0.0604 -0.3333 -0.2605
55178W        W98231  21.544  22.037  28.225 -0.1994  0.0088  0.2398
55179W        W98232   4.419  18.795  19.926 -0.4331  0.0928 -0.1384
55180W        W98233  10.521  34.489  19.419  0.0113  0.1790  0.2898
55181W        W98234  14.789   3.857  18.935  0.0305  0.1285  0.0825
55182W        W98235  10.154  20.428  23.703  0.0317  0.0273 -0.3914
55183W        W98236  32.451  32.021  16.534  0.0401  0.2289 -0.1276
55184W        W98237  27.481  29.546  24.866  0.1321  0.0030 -0.0608
55185W        W98238   7.320  15.136  19.887 -0.0662 -0.1735 -0.1583
55186W        W98239   8.990  17.932  15.432  0.0216 -0.2365  0.0200
55187W        W98240   3.483  14.191   3.408  0.0605  0.1403 -0.2364
55188W        W98241  29.072  10.198  24.164 -0.0808 -0.0040 -0.2403
55189W        W98242  12.019  17.699  22.623 -0.3328  0.0963 -0.1309
55190W        W98243   5.019   3.906   3.300 -0.0931 -0.1601 -0.1316
55191W        W98244  33.615  20.765  17.927 -0.1585 -0.0581  0.1386
55192W        W98245  31.503  12.082  21.260 -0.0043 -0.0889 -0.1714
55193W        W98246   4.644  18.849  14.418  0.0191 -0.0795  0.2783
55194W        W98247   6.414   4.012  26.760  0.2869 -0.3555 -0.1742
55195W        W98248  28.051   5.340  16.687  0.0021 -0.0661  0.0463
55196W        W98249   3.605  32.253   5.771 -0.1688 -0.1456 -0.0752
55197W        W98250  13.562  29.755  15.170  0.0502 -0.0703 -0.1184
55198W        W98251   1.565  11.555  21.595  0.1111 -0.0346  0.0923
55199W        W98252  21.664  19.266  13.781  0.2869  0.0875 -0.0492
55200W        W98253  23.731  18.574  23.751 -0.0215  0.3605  0.0049
55201W        W98254  13.230  13.670  24.622  0.0258  0.2589  0.0063
55202W        W98255   5.602  19.055  16.320  0.0366  0.0021  0.1758
55203W        W98256   8.816   7.625  22.310  0.0124  0.0721 -0.1626
55204W        W98257  10.350   5.550   3.641  0.0092  0.0915 -0.2475
55205W        W98258  16.096   2.284  20.523 -0.0078 -0.0242 -0.1603
55206W        W98259  22.761   6.387  26.732 -0.1398 -0.2049  0.0053
55207W        W98260  10.370  28.497  23.170  0.1003  0.1519  0.0976
55208W        W98261  11.591   2.651  14.889  0.1439  0.1698 -0.1888
55209W        W98262  30.250   3.892  15.449 -0.0161  0.2589 -0.1121
55210W        W98263   7.726  13.491  20.717 -0.0689  0.1069  0.0900
55211W        W98264  27.674  12.021  21.750  0.1944  0.2714  0.1580
55212W        W98265  15.454  20.529  14.648 -0.1841  0.4774 -0.0483
55213W        W98266  14.805   7.476  19.561 -0.1607 -0.1195 -0.0027
55214W        W98267  15.547  29.764  17.820  0.3161  0.1685  0.0981
55215W        W98268  17.421   0.266  21.890  0.1924 -0.0218  0.2076
55216W        W98269  14.260  11.185  20.779 -0.2715  0.0079  0.1569
55217W        W98270   6.176  18.534  19.437  0.0861  0.1211  0.1950
55218W        W98271   8.502   4.454  25.606  0.0579  0.0518 -0.0578
55219W        W98272  31.894   9.734  20.655  0.1311  0.1665  0.2599
55220W        W98273  25.073  14.989   3.147  0.1472  0.1860  0.0808
55221W        W98274  22.289  30.196  16.041  0.1015  0.0118  0.0920
55222W        W98275  31.645  15.808  19.046 -0.0492 -0.1692 -0.0899
55223W        W98276  33.466  12.239  16.007 -0.1986 -0.0784  0.1636
55224W        W98277   7.883  13.057  23.567  0.0367  0.1978  0.2428
55225W        W98278  11.942  11.471  18.106  0.0465 -0.2754 -0.2012
55226W        W98279  13.338  24.020  17.407 -0.3973  0.5149 -0.3329
55227W        W98280  10.730  31.639  22.801 -0.1925 -0.0450 -0.1281
55228W        W98281  16.829  29.609  27.159  0.2599 -0.2031  0.1796
55229W        W98282  13.879  22.085  14.749 -0.1752 -0.1235 -0.3883
55230W        W98283  10.885   5.106  24.726 -0.1272  0.0619  0.2596
55231W        W98284  34.397   6.361  14.375  0.0237  0.3604  0.1199
55232W        W98285  17.228  29.559  14.121 -0.0209 -0.0118  0.0593
55233W        W98286  20.900   4.262  18.726 -0.0815  0.1559 -0.3608
55234W        W98287  15.567   7.109  25.524  0.2383  0.0327  0.0548
55235W        W98288   8.745  10.843  17.078 -0.0884  0.1368 -0.1402
55236W        W98289  12.669  12.760   0.894  0.5761  0.0806  0.1530
55237W        W98290  32.980   5.221  13.776 -0.1544 -0.1565  0.2738
55238W        W98291  10.128  22.635  18.191  0.4055  0.0746  0.0195
55239W        W98292  18.082  13.594  14.271 -0.1458 -0.1151 -0.0956
55240W        W98293  11.973   0.872  26.461 -0.2104  0.1763  0.4075
55241W        W98294  15.913  12.095  21.286 -0.0222  0.1548  0.0013
55242W        W98295  31.027   6.789  18.156 -0.0944 -0.1957  0.0128
55243W        W98296   3.228  13.614  28.961  0.2385  0.1530  0.0602
55244W        W98297  27.403   7.259  28.129 -0.1398 -0.0249  0.1578
55245W        W98298  12.146  34.619  20.307 -0.3990  0.1328 -0.0875
55246W        W98299   5.429  29.353  15.697 -0.4946 -0.3050  0.4782
55247W        W98300  18.728  29.322  22.582  0.2507 -0.1445  0.0320
55248W        W98301   9.305   0.156  26.533 -0.1361 -0.0897  0.1205
55249W        W98302  14.524  29.021  21.555  0.0833 -0.1897  0.0998
55250W        W98303   9.129  11.564  24.091 -0.1186  0.0397 -0.0282
55251W        W98304  25.807  19.668  14.776  0.1386  0.2199  0.1690
55252W        W98305  12.749   1.999  28.539  0.0282 -0.0986 -0.1689
55253W        W98306  22.228   8.620  26.293 -0.3211  0.1914 -0.0069
55254W        W98307  16.582   1.021  21.596 -0.1516  0.1041 -0.3639
55255W        W98308   6.835   0.644  17.158  0.2410 -0.0479 -0.0482
55256W        W98309  19.465  13.088  17.743 -0.2071 -0.0137  0.2512
55257W        W98310  23.860   0.717  23.308  0.1231  0.1514 -0.0539
55258W        W98311  12.166   7.077  15.453  0.3075 -0.4586  0.2502
55259W        W98312  18.273  14.178  12.787  0.0640 -0.2457 -0.0194
55260W        W98313   9.675   7.644  23.996 -0.0485 -0.3070 -0.2595
55261W        W98314  23.660   6.307  16.257 -0.2067 -0.1525  0.0608
55262W        W98315  24.835   0.978  19.496  0.0743 -0.0611  0.3384
55263W        W98316   4.133  14.175  25.838  0.2619  0.4855  0.1468
55264W        W98317  13.326  16.270  27.623  0.0972  0.0012  0.1024
55265W        W98318  18.553   5.709  16.679  0.1933  0.0801  0.0598
55266W        W98319  11.413  21.448  22.530 -0.4182  0.0601  0.1222
55267W        W98320  22.756  12.364  19.064 -0.1226  0.1497 -0.2176
55268W        W98321  32.098   7.129  15.855  0.1354  0.1356  0.2444
55269W        W98322  12.658   0.636  18.547  0.0721 -0.0227 -0.1039
55270W        W98323  17.235  11.151   1.132  0.1374 -0.2959  0.0581
55271W        W98324  34.024  10.593  22.020  0.5224  0.5916 -0.2174
55272W        W98325   8.487   7.984  22.297 -0.0864  0.0474  0.1298
55273W        W98326  17.499   4.972  21.626 -0.0668 -0.2481 -0.0277
55274W        W98327  13.553   1.054  14.670 -0.1384 -0.0743 -0.0754
55275W        W98328   8.653   9.705  25.642  0.0753 -0.3441 -0.3861
55276W        W98329  16.614   8.104   5.196  0.1343 -0.1000  0.0719
55277W        W98330   4.348   3.299   3.712 -0.0316 -0.1720 -0.0537
55278W        W98331   0.916   6.684  17.627 -0.0662 -0.0198 -0.3584
55279W        W98332  11.359   5.745  19.734  0.0600  0.1156 -0.0056
55280W        W98333   6.620  10.546   2.124 -0.2317 -0.0242  0.0037
55281W        W98334  13.922  19.665  21.311 -0.4404  0.2162  0.0384
55282W        W98335  13.978   0.652  17.469  0.1924 -0.3222  0.0766
55283W        W98336  26.324   4.660  17.763  0.3411 -0.2077  0.0039
55284W        W98337   6.838  27.885  21.578  0.0481 -0.0841 -0.0632
55285W        W98338  26.595   1.326  16.473 -0.0027  0.0237  0.2595
55286W        W98339  13.509  15.837  16.060 -0.1697  0.1642  0.1338
55287W        W98340  20.575   4.943  22.382  0.0241 -0.0133 -0.1707
55288W        W98341  33.406  18.329  17.639  0.1224  0.2087 -0.1971
55289W        W98342  13.104  27.140  17.388  0.4295  0.2049  0.1331
55290W        W98343  10.616  19.569  24.318 -0.0074  0.1007 -0.0925
55291W        W98344   4.223  18.930  27.891  0.2510 -0.2692 -0.0737
55292W        W98345   0.821  10.308  20.144 -0.0737  0.0106  0.0640
55293W        W98346  28.304   2.780  17.477  0.1258 -0.2487  0.0038
55294W        W98347  18.909  30.751  16.475 -0.1274  0.0978  0.0842
55295W        W98348  10.429  21.255  18.641  0.1426  0.2306 -0.2745
55296W        W98349  14.821  28.756  13.340 -0.0814  0.3607 -0.3357
55297W        W98350   5.889  21.322  16.281  0.2909  0.2368 -0.0469
55298W        W98351  27.637  12.104  23.073 -0.0195  0.1623  0.1220
55299W        W98352  14.588   3.992  27.266  0.0411 -0.0658  0.0936
55300W        W98353  15.932   7.935  25.779 -0.2307 -0.3206 -0.0869
55301W        W98354  25.474  15.662  16.145 -0.2369 -0.2494  0.0103
55302W        W98355  12.575  10.232  24.532  0.0768  0.0196  0.0415
55303W        W98356   2.952  24.449  15.466  0.0598  0.0472  0.1428
55304W        W98357  10.823  33.052  18.674  0.0616 -0.1301  0.0090
55305W        W98358  17.006  10.553  20.266  0.1386 -0.3709 -0.1989
55306W        W98359  29.688  10.614   2.769  0.3061  0.2092  0.0598
55307W        W98360  16.333   2.209  18.046 -0.1331 -0.3480 -0.0798
55308W        W98361  26.035   4.249  19.700  0.3581 -0.0282 -0.0383
55309W        W98362  32.626  26.321  14.874  0.0614  0.0204  0.0315
55310W        W98363  19.380  10.787  18.128 -0.1180 -0.2446  0.2170
55311W        W98364   8.029   8.770  19.026  0.0428 -0.1747 -0.1896
55312W        W98365   6.581  29.228   5.331 -0.5268 -0.0963  0.4052
55313W        W98366  16.595  11.296  17.356 -0.1075 -0.1709  0.0370
55314W        W98367  21.863  14.116  14.264  0.3304  0.0585 -0.1192
55315W        W98368   4.084  13.998  16.886 -0.0385 -0.1149 -0.3071
55316W        W98369  20.288  34.635  13.829 -0.1184 -0.0291  0.3313
55317W        W98370  27.751  30.737  14.945  0.1980 -0.1541 -0.1139
55318W        W98371  18.328  14.602  22.464  0.0344 -0.1888  0.0688
55319W        W98372  18.112   2.797  21.133 -0.4141  0.3791  0.0888
55320W        W98373   3.313  22.172  27.019  0.2267 -0.1396  0.0378
55321W        W98374   6.007   8.695  23.844 -0.1283  0.1058 -0.0994
55322W        W98375  13.719   4.738  15.003  0.1362 -0.2364 -0.0555
55323W        W98376   8.463  15.082  19.163  0.0707 -0.2554  0.0543
55324W        W98377   7.664  22.647  13.670  0.0723  0.2068  0.1163
55325W        W98378  11.350   7.699  23.523  0.0407 -0.2319  0.5626
55326W        W98379   0.317  28.997  17.557  0.1719 -0.3531 -0.0695
55327W        W98380  32.990  33.605  21.878 -0.1451  0.0733  0.0066
55328W        W98381   2.588   0.501  21.722  0.1692 -0.0254 -0.2964
55329W        W98382  21.021  17.536  13.136 -0.3429 -0.1840  0.2565
55330W        W98383  10.152  12.054  19.241 -0.1523  0.1150  0.2952
55331W        W98384  13.831   9.559   1.475  0.0498 -0.1089  0.2961
55332W        W98385  12.132   0.328  19.964  0.0353 -0.2742  0.2773
55333W        W98386   0.450   7.617  23.700  0.0237  0.1957 -0.1591
55334W        W98387   8.239  33.989  23.272 -0.1617 -0.0222 -0.0993
55335W        W98388  13.595  12.954  24.992  0.2090  0.0576 -0.0976
55336W        W98389   3.469   0.515  19.441 -0.1479 -0.0212 -0.3814
55337W        W98390  11.468   8.433   0.202 -0.1508  0.1030 -0.1550
55338W        W98391  13.709  28.985  14.428  0.0294  0.1455 -0.0025
55339W        W98392  10.402  25.751  15.272  0.2753  0.1951 -0.1910
55340W        W98393  30.857   0.550  18.729 -0.0092  0.2596  0.2479
55341W        W98394  13.475  12.950  16.626  0.1012 -0.2835 -0.0846
55342W        W98395   4.568  18.336  13.609 -0.0686  0.0807 -0.1914
55343W        W98396   9.987  17.274  23.452 -0.1720  0.3767  0.0299
55344W        W98397  32.964  24.795  19.442  0.2831 -0.2322 -0.1435
55345W        W98398   6.669  10.314   8.047  0.1121 -0.0814  0.2319
55346W        W98399  14.051  22.619  16.433 -0.1847  0.2121  0.3475
55347W        W98400  10.989  15.426  18.976  0.0965  0.0196 -0.1357
55348W        W98401   8.395  12.523  14.745  0.0183  0.0377 -0.1026
55349W        W98402  16.394  29.470  18.433 -0.3183  0.2826 -0.1100
55350W        W98403   9.724  12.144  23.354  0.1448  0.1343 -0.2166
55351W        W98404   5.526  20.850  21.724 -0.0683  0.1072 -0.1938
55352W        W98405   5.482  17.660  16.258 -0.1541 -0.2800  0.1451
55353W        W98406  22.477   5.064  15.954  0.2324  0.1401  0.2684
55354W        W98407  12.151  25.773  24.592  0.2864 -0.0935  0.2223
55355W        W98408  30.668  15.061   2.979  0.0106  0.1377 -0.1095
55356W        W98409   6.183  31.219   6.135  0.1629  0.1010  0.0721
55357W        W98410  15.772   1.896  25.517 -0.1270  0.5675 -0.2782
55358W        W98411  13.284  20.179  14.924 -0.1543  0.0315  0.0948
55359W        W98412  16.091  16.123  15.486  0.3694  0.0498 -0.2272
55360W        W98413  11.290  11.387  20.267 -0.0524  0.3360 -0.1425
55361W        W98414   6.547  17.281   3.619 -0.3162 -0.1463  0.1895
55362W        W98415   3.789  14.618  21.777  0.0331 -0.2311 -0.1888
55363W        W98416  25.388  20.201   0.484  0.3537 -0.1711  0.2004
55364W        W98417  14.759   3.874  24.962 -0.2852  0.0201 -0.1790
55365W        W98418   8.199  21.964  16.686 -0.0882 -0.0401  0.2933
55366W        W98419   7.271  11.345  14.892  0.3070  0.0689 -0.2712
55367W        W98420  31.657  10.141   3.503  0.2730 -0.0342 -0.1482
55368W        W98421  21.995  31.831  18.581  0.1234 -0.0362 -0.2020
55369W        W98422  14.120  14.989  28.472 -0.2042  0.2273 -0.1801
55370W        W98423  12.860  32.603  16.720 -0.1145  0.1385 -0.0070
55371W        W98424  18.457   8.300  23.533  0.1124  0.0365 -0.0720
55372W        W98425  19.040  31.329   2.347  0.2507 -0.0982  0.0759
55373W        W98426   5.219  15.680  17.424  0.3376 -0.0223  0.1766
55374W        W98427   2.703  32.797   2.583  0.2323 -0.1423  0.4084
55375W        W98428  18.536  12.669  14.607 -0.1611  0.0124  0.1899
55376W        W98429  20.506   4.339   0.423 -0.4988 -0.0547  0.0150
55377W        W98430  22.412  27.936  26.504  0.2564 -0.2719 -0.1267
55378W        W98431  16.800  27.134  23.978 -0.0612 -0.2575  0.4280
55379W        W98432   7.083   8.607   7.490 -0.2326 -0.2927 -0.0477
55380W        W98433   4.724   4.801  22.593 -0.0417  0.1522 -0.0955
55381W        W98434   1.890   7.970  24.984  0.1237  0.1339  0.1495
55382W        W98435   3.107   7.194  16.042  0.2121  0.1100  0.0163
55383W        W98436   6.317  33.884  17.171  0.0135  0.2082 -0.2549
55384W        W98437   8.336  31.663  15.029 -0.5295  0.3165 -0.7065
55385W        W98438   1.910  14.535  16.848  0.1539  0.2608  0.1433
55386W        W98439  17.176  24.403  15.056 -0.0238 -0.0914 -0.0504
55387W        W98440  17.966  16.090  12.476 -0.0437  0.0553 -0.0212
55388W        W98441   0.310  12.003  16.631  0.1396  0.0002  0.0823
55389W        W98442   5.735  18.729  20.774  0.1146 -0.0141  0.3388
55390W        W98443   6.225  16.267  13.766 -0.0250 -0.0319  0.1181
55391W        W98444  17.082  10.523  16.605  0.0558  0.0314  0.1583
55392W        W98445  12.811  14.088  23.403 -0.4268  0.0304 -0.0297
55393W        W98446   4.136  29.665  18.136 -0.1819 -0.4375  0.5020
55394W        W98447  24.669  23.052   5.045  0.2638  0.1893 -0.0294
55395W        W98448  12.573  19.078  15.534  0.1853 -0.0673 -0.2618
55396W        W98449   9.901  10.756  26.708 -0.0746 -0.1764 -0.2244
55397W        W98450   5.614   2.956  23.784  0.0608 -0.1975 -0.1204
55398W        W98451  14.380  33.877  24.645 -0.2234 -0.0929 -0.0842
55399W        W98452  13.589  28.888  26.269 -0.2584 -0.0374  0.3862
55400W        W98453  17.829  15.330  25.079  0.1096 -0.0322  0.2541
55401W        W98454  10.065   1.800  18.706 -0.1103 -0.0372  0.0917
55402W        W98455  25.341  10.632  22.925  0.2813 -0.3386 -0.0218
55403W        W98456  12.874   7.490  20.564  0.1728 -0.0893  0.0298
55404W        W98457  19.431  14.607  22.410  0.2269  0.0228 -0.1619
55405W        W98458  14.758   5.279  18.831 -0.3408 -0.2085  0.0201
55406W        W98459   1.051  33.998  18.358  0.1069  0.0043 -0.0073
55407W        W98460  13.986  28.003  16.736 -0.1083 -0.0049  0.0560
55408W        W98461   6.980  15.277   3.328  0.0401  0.2915  0.1226
55409W        W98462  12.947   1.723  18.218 -0.1974 -0.0352 -0.3561
55410W        W98463  12.988   7.840  27.832 -0.0085  0.0305 -0.1260
55411W        W98464  10.047  18.791  18.805  0.1651  0.1448 -0.1797
55412W        W98465  13.462  21.642  20.286 -0.2112 -0.0538 -0.4145
55413W        W98466   9.958   5.493  19.621  0.2039  0.0443 -0.0610
55414W        W98467  34.632  17.100  24.922  0.2126  0.1548 -0.0898
55415W        W98468   9.506  18.189  18.908  0.0672 -0.2543 -0.0899
55416W        W98469  18.634   0.608  16.626  0.2235 -0.0697  0.0946
55417W        W98470  15.356  28.655  19.282 -0.2695  0.1408  0.0822
55418W        W98471   4.895   6.774  20.050  0.0254  0.1012  0.0381
55419W        W98472   8.201  22.410   5.002  0.1172  0.1570  0.1987
55420W        W98473  23.560   5.506  19.282 -0.2608 -0.2042 -0.1069
55421W        W98474  12.265   7.741  16.552  0.0778  0.0459 -0.0194
55422W        W98475  19.261   7.188  15.163  0.3154  0.1639 -0.2576
55423W        W98476  16.582  15.744  14.343  0.4144  0.4252  0.1328
55424W        W98477   2.054  13.271  20.225  0.2575  0.0927 -0.0304
55425W        W98478  23.599  13.204  15.236 -0.1673  0.0788  0.1154
55426W        W98479  23.335  33.416   4.640  0.3040  0.1124  0.1564
55427W        W98480  18.208  22.976  14.893 -0.1250  0.1465 -0.3457
55428W        W98481  17.600  16.943   6.122 -0.0903  0.3080  0.0339
55429W        W98482  30.176  20.818  15.911 -0.3691 -0.2189 -0.1028
55430W        W98483  27.678  10.696  27.658 -0.3059 -0.1982 -0.2132
55431W        W98484  12.964   3.964  23.937  0.0230 -0.0635  0.0426
55432W        W98485  14.131  18.185  15.923 -0.0329  0.1713 -0.1606
55433W        W98486  13.544   0.306   2.736  0.2591  0.0940 -0.1031
55434W        W98487  20.779   7.073  24.778 -0.0812  0.2334 -0.1374
55435W        W98488  17.172   6.433  21.811  0.0544  0.1053 -0.0251
55436W        W98489  20.014  22.463  21.340  0.2044  0.0390  0.1321
55437W        W98490  18.828  34.317  20.845 -0.1042 -0.2193  0.1774
55438W        W98491  21.007   1.282  16.068 -0.1231 -0.1120 -0.0437
55439W        W98492  11.760  31.587  17.482  0.0860  0.0802  0.0686
55440W        W98493  21.415   1.410  14.839  0.2736  0.1127 -0.1335
55441W        W98494   1.038   6.105  19.982 -0.2304  0.4217 -0.1827
55442W        W98495  15.224  22.587  16.599 -0.0736  0.2953 -0.3310
55443W        W98496  23.246  10.171  19.503 -0.2072  0.0692  0.3323
55444W        W98497  12.553   7.417  21.713 -0.2249  0.0046  0.0041
55445W        W98498  12.674   5.782  18.161 -0.0013 -0.1557 -0.2515
55446W        W98499   4.731  17.865  16.760 -0.1207 -0.0871  0.0348
55447W        W98500   8.574  17.493  19.795  0.0977 -0.1641  0.1270
55448W        W98501  31.138  14.515  16.268  0.1577  0.0663 -0.0047
55449W        W98502  32.213   5.333   5.843 -0.0074  0.0613 -0.0148
55450W        W98503  17.847  20.024  14.735 -0.4531  0.2586  0.3264
55451W        W98504  18.553   8.084  24.695  0.0327 -0.0057  0.2076
55452W        W98505  23.991   8.270  21.318  0.0257 -0.1029  0.2037
55453W        W98506  18.861  28.846  27.896 -0.0055  0.3251 -0.1032
55454W        W98507  14.252  20.085  25.949 -0.0080  0.1328 -0.1110
55455W        W98508   3.950  29.806  13.694  0.1233  0.1239 -0.4032
55456W        W98509  18.518  34.067  17.093  0.0367 -0.0368  0.1537
55457W        W98510   6.589  14.486  19.208 -0.1394  0.1053 -0.0752
55458W        W98511   2.677   7.165  17.899 -0.1380 -0.0796  0.0248
55459W        W98512  16.231  24.595  24.781 -0.2746 -0.2702  0.0873
55460W        W98513  34.086   8.759   3.572  0.1363  0.1293 -0.1631
55461W        W98514   8.329  16.078  16.749  0.0102 -0.3813 -0.1461
55462W        W98515   9.354  18.904   4.294  0.0211  0.0110 -0.0323
55463W        W98516  13.926  22.822  16.912 -0.0014 -0.0233 -0.2001
55464W        W98517   4.406  31.457  29.069  0.2733 -0.2442  0.0928
55465W        W98518   6.403  33.929  23.504 -0.1909  0.1723 -0.4769
55466W        W98519  19.535  10.472  23.768 -0.1964  0.0195  0.2019
55467W        W98520  16.140  31.892  25.561 -0.0973 -0.2363 -0.4591
55468W        W98521  16.369   2.535  14.593 -0.0166 -0.0867  0.4281
55469W        W98522   2.950  13.554  15.479 -0.0287 -0.0540  0.0058
55470W        W98523  14.741   4.614  22.266 -0.2953  0.0886  0.2758
55471W        W98524   5.320  18.543  13.861  0.2428  0.4286 -0.0010
55472W        W98525   2.002  27.911  24.553 -0.3988  0.2165  0.0452
55473W        W98526  20.786  16.593  14.718 -0.1279 -0.1704  0.3902
55474W        W98527   6.037   9.554  28.512 -0.1149  0.2135  0.3375
55475W        W98528  30.860  14.830  15.698 -0.3229  0.3694  0.0963
55476W        W98529   6.937  29.768  16.156  0.1347  0.0025 -0.1017
55477W        W98530   3.264  22.693  26.618 -0.1288  0.1942  0.1216
55478W        W98531  21.042   6.747  16.006  0.1117  0.2390 -0.2843
55479W        W98532  16.609   6.200   2.633  0.2089  0.1058 -0.0137
55480W        W98533  21.091   4.146  25.539  0.1436  0.0413  0.3585
55481W        W98534   6.978   7.366  26.349 -0.0581  0.0948 -0.0405
55482W        W98535  13.835  11.258  20.490  0.0085 -0.0302 -0.4104
55483W        W98536  17.574  15.779  24.249  0.0758  0.2553 -0.1216
55484W        W98537   1.694   2.524  26.861  0.0553 -0.2519  0.2067
55485W        W98538  16.346  34.048   2.865 -0.0436  0.0175  0.3305
55486W        W98539   6.198  28.693  15.333  0.1026 -0.0340 -0.3553
55487W        W98540  34.648  19.318  19.611  0.1929  0.1851 -0.1411
55488W        W98541  19.488  12.732  23.577 -0.0371 -0.0145 -0.1600
55489W        W98542  25.500  15.148  16.629  0.0565  0.1256  0.0711
55490W        W98543  17.607   1.325  22.506 -0.0603  0.1183 -0.0413
55491W        W98544   0.844  18.836  17.536  0.1799 -0.1054  0.0341
55492W        W98545  28.308   2.167  23.827  0.2099  0.1486  0.3093
55493W        W98546   8.443  32.980  20.350 -0.2287 -0.0664  0.2348
55494W        W98547  15.363   2.843  25.495 -0.0957  0.3479 -0.2225
55495W        W98548  13.132   8.152  22.837  0.2570 -0.0754  0.0654
55496W        W98549  13.355   5.338  14.953 -0.1995  0.0010  0.1971
55497W        W98550  20.056   6.628   4.297 -0.1964  0.0077 -0.0660
55498W        W98551  20.648   8.834  23.155 -0.3844  0.0779 -0.0304
55499W        W98552  15.090  18.480  14.417 -0.1043 -0.1757  0.0139
55500W        W98553  21.448   0.406  18.574 -0.1200 -0.2450  0.2743
55501W        W98554  16.079  10.036  17.703 -0.3522 -0.2297  0.0701
55502W        W98555   5.385   5.899  24.462  0.0148  0.0531 -0.1447
55503W        W98556  22.614   1.306  16.100 -0.3098  0.2653  0.1300
55504W        W98557   7.147   5.407  18.627  0.1849  0.1056  0.3444
55505W        W98558  25.281  14.007  14.359 -0.0776 -0.1798 -0.0864
55506W        W98559   3.529   6.878   4.048 -0.0943  0.0915  0.6110
55507W        W98560  33.824  10.385  25.445 -0.0044 -0.0774 -0.0138
55508W        W98561   9.946  32.966  21.119 -0.0086 -0.2642 -0.0286
55509W        W98562   8.831  24.459   8.261  0.0539  0.0187 -0.1091
55510W        W98563   9.035  15.558  15.653  0.3484  0.1326  0.2744
55511W        W98564  27.663  13.727  18.454  0.3770 -0.3183 -0.1334
55512W        W98565  18.115   4.635  15.275  0.4497  0.1834  0.2690
55513W        W98566   1.988  30.676  17.471 -0.0112 -0.0849 -0.1503
55514W        W98567  12.360  13.814  21.065 -0.0253 -0.3081  0.2536
55515W        W98568  10.292  15.686  20.621 -0.1014  0.3034 -0.0885
55516W        W98569  19.274  23.180  18.102  0.2148  0.0360  0.0400
55517W        W98570  33.923  31.267   1.108  0.2872 -0.2090 -0.0617
55518W        W98571  23.011   4.812  21.392 -0.0064 -0.1513 -0.1247
55519W        W98572  33.476  25.862  23.100  0.1151 -0.2248 -0.1618
55520W        W98573  13.394   6.831   8.851  0.2233  0.1216 -0.1757
55521W        W98574  17.960  14.195  14.157  0.3230 -0.0329 -0.0480
55522W        W98575  10.117   4.632  26.388  0.1660  0.0284 -0.0940
55523W        W98576  27.999  12.587   1.150 -0.1432 -0.0541  0.1237
55524W        W98577  15.595  11.119  20.886  0.0318 -0.2807  0.2506
55525W        W98578  34.211  34.258  20.271  0.1881 -0.0265  0.0180
55526W        W98579  26.856  10.754  20.449 -0.3804 -0.2223  0.0778
55527W        W98580  21.566   9.171  24.645  0.2709 -0.0728  0.3801
55528W        W98581   8.080  25.219  25.997 -0.0597  0.0271  0.1526
55529W        W98582  10.162  19.172  15.914 -0.1065 -0.0154  0.0426
55530W        W98583  31.303  19.344  22.592 -0.0297 -0.0697 -0.1773
55531W        W98584  11.761   7.347  15.621  0.2381  0.1855  0.0653
55532W        W98585  13.093  15.932  22.937  0.3027 -0.0288 -0.0200
55533W        W98586  12.144  13.636  23.999  0.1157  0.0567  0.0345
55534W        W98587   5.427   8.989  21.028  0.1500  0.0164  0.2513
55535W        W98588  28.878   3.459  17.936  0.2433  0.1003 -0.2410
55536W        W98589  16.038  26.528  24.091  0.0601 -0.1227 -0.0111
55537W        W98590  31.225  11.375  14.958  0.2571 -0.1932 -0.0456
55538W        W98591  11.975   8.665  16.049 -0.0998  0.0267  0.3149
55539W        W98592  15.897  20.674  14.359  0.2423 -0.2768  0.0222
55540W        W98593  30.123  15.842  16.249 -0.1889  0.0627 -0.0441
55541W        W98594  15.075   7.025  18.677  0.2635 -0.1213 -0.2138
55542W        W98595   4.279   1.992   2.624 -0.1215  0.0237 -0.0043
55543W        W98596   3.452   9.858  17.938 -0.0948  0.0891  0.0086
55544W        W98597  12.812  27.574  20.945 -0.2911 -0.1041 -0.0519
55545W        W98598  28.707  24.779  25.899  0.0943 -0.1610 -0.0337
55546W        W98599   8.850  15.377  18.347  0.1123 -0.1126 -0.0247
55547W        W98600  10.687   0.875  22.533 -0.0771 -0.0090 -0.1381
55548W        W98601  34.046   0.282  16.967  0.0723 -0.2124 -0.2582
55549W        W98602   6.353   6.422  19.366 -0.3509 -0.0244 -0.2013
55550W        W98603  34.399  12.689   2.167 -0.2965 -0.1692  0.0777
55551W        W98604   5.610  30.882  23.305  0.3520  0.2363  0.1010
55552W        W98605  28.609  34.232  25.797 -0.1356  0.0998  0.1179
55553W        W98606  26.796   8.433  18.220 -0.0148 -0.0146 -0.4096
55554W        W98607  14.151  25.693  23.481 -0.2711  0.1830  0.1636
55555W        W98608  12.176   7.177  16.841 -0.0053 -0.2159  0.0784
55556W        W98609  13.115  16.926   4.248 -0.1581  0.0823 -0.0803
55557W        W98610  34.209  29.672   6.280 -0.0734  0.1416  0.0764
55558W        W98611  10.566  25.054  25.321  0.0480  0.2322  0.1073
55559W        W98612   4.609   1.984  20.291  0.0194 -0.0046 -0.1138
55560W        W98613  18.494   6.186  23.373 -0.3153  0.0718  0.1515
55561W        W98614  19.996  13.789   4.822  0.3519  0.0674  0.2230
55562W        W98615  14.755   5.828  15.440 -0.4376 -0.1710 -0.2326
55563W        W98616   3.417  12.934   3.394 -0.1640  0.3033 -0.1267
55564W        W98617  13.714  25.619  13.755  0.0661 -0.1460  0.1784
55565W        W98618  15.450   5.894  21.992 -0.1781 -0.1894  0.0957
55566W        W98619  15.777   8.286   0.361  0.0224  0.1074 -0.0439
55567W        W98620  15.948  12.513  25.830 -0.1375  0.0356 -0.2167
55568W        W98621   2.858  31.033  22.874 -0.0274 -0.0108 -0.0781
55569W        W98622  23.375  24.255  18.721  0.2708 -0.0622 -0.1057
55570W        W98623  29.181   8.175  18.816 -0.1024 -0.2200 -0.0404
55571W        W98624   6.638   6.933  15.001  0.1209 -0.1635 -0.1864
55572W        W98625   7.580  32.112  13.724  0.0536 -0.1544  0.3072
55573W        W98626   6.519  12.607  28.057 -0.0267  0.0544 -0.1466
55574W        W98627  31.494  15.818  25.426  0.1512  0.0548 -0.0433
55575W        W98628   4.867  20.989   5.048  0.0779  0.1534  0.0595
55576W        W98629  19.781  12.916  22.316  0.0109 -0.3101 -0.3145
55577W        W98630  18.884  10.087  28.869 -0.2090 -0.0876 -0.0454
55578W        W98631   6.522   8.737  21.976 -0.3249 -0.0814  0.1691
55579W        W98632   1.113   2.534  28.152 -0.1540 -0.3648  0.1114
55580W        W98633  27.813   4.129   2.528  0.2379 -0.0953  0.2764
55581W        W98634   8.836  19.583  26.939  0.0049  0.2360 -0.0545
55582W        W98635   8.456   9.414  20.595  0.0615 -0.4596  0.2892
55583W        W98636  13.925  26.672  16.678 -0.2071  0.3109 -0.0230
55584W        W98637   7.457  20.972  24.588  0.1306  0.0504 -0.0555
55585W        W98638  17.553   8.292  26.836  0.1588 -0.3428 -0.0084
55586W        W98639   6.069  33.398  23.926  0.0952  0.1895  0.1512
55587W        W98640  25.282  16.731  14.471  0.2494 -0.2531 -0.0229
55588W        W98641  17.309   3.369  18.450 -0.3108 -0.2583 -0.3549
55589W        W98642  30.068  14.320  23.746 -0.3435 -0.2148 -0.0621
55590W        W98643  15.982  13.981  16.802  0.0776 -0.2438  0.0813
55591W        W98644   9.749  19.556  17.894  0.0059  0.3203 -0.2371
55592W        W98645  17.277   8.381  24.611  0.0761 -0.2241  0.0961
55593W        W98646  20.782  26.114  15.419 -0.3194  0.1068  0.0491
55594W        W98647  20.445  12.161  24.365 -0.2724 -0.2008  0.1599
55595W        W98648   2.247   9.871  10.381  0.0119 -0.0997 -0.1284
55596W        W98649  17.961  28.345  28.714  0.1042 -0.0946  0.0437
55597W        W98650  23.912   5.381  21.450 -0.0520 -0.1478  0.0363
55598W        W98651   5.679  26.961  27.168  0.1735  0.2097  0.1315
55599W        W98652  28.597   2.077  17.809  0.0421 -0.2091  0.1609
55600W        W98653  13.920  27.119  24.512  0.1104  0.0346 -0.0694
55601W        W98654  10.560   8.985  23.541  0.0417 -0.2139  0.1161
55602W        W98655  21.907   2.860  25.503  0.0451  0.1714 -0.3291
55603W        W98656   1.085  26.626  22.458 -0.1025  0.2318 -0.4159
55604W        W98657  32.624  25.685   2.333 -0.2951  0.1109 -0.0191
55605W        W98658  20.331   6.678  14.808  0.2369 -0.5376 -0.1255
55606W        W98659  11.989  19.561  17.388 -0.0053 -0.1254  0.1827
55607W        W98660  29.891  17.599  17.805 -0.3084 -0.0967 -0.3121
55608W        W98661   8.631  11.752  16.709 -0.0748 -0.0691  0.1260
55609W        W98662  13.359  15.797  21.392 -0.1703 -0.1283 -0.4124
55610W        W98663  21.682  32.899  25.820 -0.0221 -0.1953 -0.0032
55611W        W98664  17.952  33.403  16.213 -0.0076 -0.0704  0.0032
55612W        W98665   8.638  22.787  26.695 -0.0216  0.2620  0.1418
55613W        W98666  17.133  14.072  13.798  0.0766  0.0254 -0.0046
55614W        W98667  13.242  34.575  21.218  0.0679  0.1830 -0.2624
55615W        W98668   7.584  14.528  19.520  0.1665  0.2773  0.0319
55616W        W98669   5.950   9.289  16.349  0.2299  0.0810 -0.0242
55617W        W98670   3.171  22.370   1.022  0.0626  0.0063  0.3726
55618W        W98671  26.951   6.670   4.210 -0.1307 -0.1955  0.2291
55619W        W98672   8.090   7.411   6.279  0.1111  0.0562  0.2085
55620W        W98673   9.190   0.943  28.539 -0.2104 -0.2741 -0.2229
55621W        W98674  23.878  31.378  23.501 -0.1081 -0.0505  0.4025
55622W        W98675  20.328   3.703  25.855  0.0006  0.0699 -0.4336
55623W        W98676  19.116  34.021  18.262 -0.1922 -0.0177 -0.1734
55624W        W98677   6.668   4.702  26.113 -0.2284  0.1115  0.0652
55625W        W98678  26.726   2.922  19.571 -0.1913 -0.2891  0.2785
55626W        W98679  11.487   0.044  23.268  0.2206 -0.2391  0.1578
55627W        W98680  10.764   9.223   2.537  0.0905  0.2182  0.0361
55628W        W98681  27.007  25.222   3.032  0.0804 -0.0114  0.2924
55629W        W98682  18.571   3.784  18.580 -0.0310 -0.1309 -0.1171
55630W        W98683   7.603  20.090  15.936  0.0924  0.0002 -0.2325
55631W        W98684  20.292  34.593   6.407 -0.0526 -0.2253 -0.2461
55632W        W98685   8.529  34.167  25.049  0.1356 -0.1324  0.3433
55633W        W98686  11.479   6.217  26.727  0.4639 -0.0856 -0.0288
55634W        W98687  23.001  12.634  14.241  0.1782  0.1627 -0.1886
55635W        W98688  27.618   9.647  15.678 -0.1026  0.0455  0.3168
55636W        W98689  14.503   7.992  25.165 -0.0373 -0.3986  0.3782
55637W        W98690  29.024   1.603  15.542 -0.2008 -0.2557  0.0313
55638W        W98691  31.743  26.036  23.137 -0.1377  0.3516  0.0352
55639W        W98692  27.508  24.740  15.995  0.4638 -0.3005  0.0266
55640W        W98693  19.192  34.177  28.123  0.4631 -0.3310  0.1493
55641W        W98694  16.313   8.023  16.213  0.6210 -0.2767 -0.0537
55642W        W98695  31.729   4.326  26.081  0.0408  0.1229  0.0359
55643W        W98696  10.390  33.609  13.753  0.3888 -0.0361  0.2053
55644W        W98697   6.405  15.847  15.654  0.2380 -0.0093 -0.2073
55645W        W98698  27.191   8.264   0.966 -0.2732  0.2826  0.2050
55646W        W98699  24.413  13.217  23.430  0.0983 -0.0903  0.1833
55647W        W98700  11.252  15.976  22.320 -0.0939 -0.2761  0.4139
55648W        W98701   8.044  31.729  19.355  0.0623  0.1679  0.1823
55649W        W98702   2.476  28.829  27.064  0.0940  0.4353 -0.3900
55650W        W98703  21.227   2.774  14.414 -0.1531  0.2066 -0.2031
55651W        W98704  12.930  13.246  16.712 -0.4072  0.0764  0.0531
55652W        W98705  15.967   3.726  19.422 -0.1020 -0.0415  0.1657
55653W        W98706  19.761   4.386  21.372 -0.1729 -0.0506 -0.0258
55654W        W98707  11.428   0.349  28.919  0.1499 -0.0140 -0.0488
55655W        W98708  11.356  14.690  25.306 -0.2764  0.1656  0.0273
55656W        W98709  19.434   9.990  20.915 -0.0406 -0.1297  0.1012
55657W        W98710   9.275   5.721  15.259 -0.2465  0.0549  0.0395
55658W        W98711   1.942  28.428  19.211 -0.1587 -0.0381  0.1236
55659W        W98712   5.161  26.423  21.280  0.1997 -0.1273  0.0168
55660W        W98713  26.899  31.675  16.707 -0.2861  0.3423 -0.1175
55661W        W98714  31.095  11.285  17.618  0.2505  0.1026  0.0740
55662W        W98715  26.569  11.670  16.114  0.0041 -0.0202 -0.3275
55663W        W98716  30.832  15.499  24.352  0.1115 -0.0540  0.0134
55664W        W98717  19.959  31.705  15.397 -0.2235  0.2430 -0.1560
55665W        W98718   4.939  19.698  21.983  0.3459  0.1953 -0.0385
55666W        W98719  20.309  12.481  15.545 -0.2220  0.0404 -0.1526
55667W        W98720   7.318  11.108  23.019 -0.0348  0.1363  0.4473
55668W        W98721   9.756  24.246  14.448  0.1574 -0.1633 -0.1389
55669W        W98722  13.697   0.459  22.732  0.0867  0.1425 -0.0640
55670W        W98723   4.400   4.162   8.223 -0.0925  0.2285  0.0065
55671W        W98724  21.417  11.724  18.688 -0.0470 -0.1061 -0.1113
55672W        W98725  19.465  22.342  16.551 -0.0940 -0.1245 -0.1506
55673W        W98726  14.930   4.178  26.831 -0.2136 -0.1613 -0.2229
55674W        W98727  22.657   0.419  17.219 -0.1940 -0.1662  0.1102
55675W        W98728  22.005   4.266  19.246 -0.0920  0.1942 -0.1544
55676W        W98729  10.661  24.419  27.134 -0.1208  0.0879  0.1831
55677W        W98730  24.160  11.166  17.293 -0.1190  0.2081 -0.2818
55678W        W98731  18.108   9.014  22.648 -0.2596  0.1780  0.2034
55679W        W98732  14.511  15.124  27.679  0.0953  0.0440  0.1422
55680W        W98733  32.154  23.396  15.020 -0.0490  0.2522  0.0463
55681W        W98734  29.151  25.623  22.816  0.1318 -0.0105 -0.0008
55682W        W98735  20.604  15.341   2.571 -0.1961  0.0709  0.1136
55683W        W98736  17.869  31.997  24.936 -0.1982 -0.2863  0.2000
55684W        W98737  10.263  32.091  24.078  0.1577 -0.2455  0.0443
55685W        W98738  17.962  15.002  12.983 -0.0332  0.0513 -0.2593
55686W        W98739  10.248  31.764  14.593  0.3437 -0.0118  0.1507
55687W        W98740   9.039  28.416  13.275  0.1790  0.1951 -0.2615
55688W        W98741  23.314  17.035   3.019  0.0550 -0.1918  0.0830
55689W        W98742   9.109  13.217  23.786 -0.2318 -0.0418 -0.2892
55690W        W98743  14.138   6.952  11.105 -0.3582  0.1185  0.0596
55691W        W98744  34.432  14.815  14.726  0.2861  0.0815  0.0834
55692W        W98745   8.447  24.976  18.696 -0.0861 -0.0060 -0.3617
55693W        W98746  15.521   9.997  24.273 -0.1455  0.2314  0.0081
55694W        W98747  25.692   6.571  21.184 -0.4411 -0.0842  0.2251
55695W        W98748  18.398   9.267  18.431  0.2644 -0.0317 -0.1788
55696W        W98749  22.676  12.845  20.799  0.1933 -0.0659  0.1431
55697W        W98750  23.162   0.565  14.229 -0.0144  0.0740 -0.0283
55698W        W98751   8.074  34.645  24.824 -0.1411 -0.0920 -0.1589
55699W        W98752  23.410   7.673  14.388 -0.0153 -0.1138 -0.0152
55700W        W98753  21.816  14.315  17.010 -0.0807  0.0921 -0.0546
55701W        W98754   3.908  21.161  24.978 -0.0204 -0.1259 -0.2159
55702W        W98755  20.605  32.768  25.785 -0.1948  0.3130 -0.2047
55703W        W98756  32.350  24.680  22.961 -0.0726 -0.3919  0.0037
55704W        W98757  30.639  17.834  22.659  0.0344  0.0259  0.3367
55705W        W98758  16.813  34.599  15.768 -0.1329 -0.0202 -0.0821
55706W        W98759  10.969   1.916  23.022 -0.0480  0.2391 -0.1092
55707W        W98760  32.915  17.324  19.000 -0.0581 -0.0589 -0.0531
55708W        W98761   2.638   8.725   1.108 -0.0530 -0.4246 -0.0024
55709W        W98762  15.010  23.403  17.164 -0.1939 -0.2960 -0.2639
55710W        W98763   0.114  26.883  24.005 -0.0363  0.1248  0.1108
55711W        W98764  16.493   4.738  28.302 -0.5055  0.0755  0.3043
55712W        W98765  16.145  11.079  16.552 -0.2066 -0.4274 -0.2462
55713W        W98766  27.361   4.285  26.185  0.2489 -0.0919 -0.0832
55714W        W98767  20.426   3.989  13.810  0.4099 -0.0516  0.1751
55715W        W98768  11.172  19.726  16.815 -0.0102  0.0408  0.0227
55716W        W98769   7.199   5.148  19.557  0.1117 -0.1155  0.1530
55717W        W98770   9.658  10.080   1.418 -0.1781  0.1831 -0.2229
55718W        W98771   4.668  13.132   9.703  0.0892 -0.0751 -0.2384
55719W        W98772   5.185  15.278  21.354 -0.0994  0.1332  0.2683
55720W        W98773   7.233   6.869  26.089 -0.1302 -0.0362  0.3178
55721W        W98774  10.527  10.802  15.769 -0.1355  0.2751 -0.2155
55722W        W98775  29.293  25.866  18.098 -0.1282  0.0709  0.1225
55723W        W98776  22.281   8.612  29.022 -0.4808 -0.0209 -0.0451
55724W        W98777   5.323  18.331  19.055  0.0773 -0.3086  0.4148
55725W        W98778  29.169  33.797  21.063  0.2109  0.0020  0.3112
55726W        W98779   8.808   1.001  15.324  0.0100  0.0565 -0.0839
55727W        W98780  16.201  11.579  24.723  0.1628  0.2137  0.0826
55728W        W98781   9.504  33.140  28.678  0.0098 -0.1850 -0.1003
55729W        W98782  27.743  29.667  23.911 -0.0837  0.2241  0.0615
55730W        W98783  32.444  20.229  18.178  0.0206  0.0057  0.0594
55731W        W98784   7.119  28.058  19.474  0.1012 -0.1152 -0.1987
55732W        W98785  10.728  15.214  23.671  0.0721 -0.2723  0.3646
55733W        W98786  11.684   8.952  24.063 -0.0698  0.3078  0.1024
55734W        W98787  14.376  32.697  21.939 -0.2044 -0.1947  0.1954
55735W        W98788  33.006   4.342  20.724  0.0635  0.0189  0.2112
55736W        W98789  21.043  13.725   6.942 -0.0270  0.0270  0.0278
55737W        W98790  12.769  34.003   0.191  0.0408  0.1213  0.2651
55738W        W98791   6.600   4.582  16.457 -0.2225  0.3180  0.1115
55739W        W98792  11.701   0.755  25.377 -0.0669 -0.1499  0.0868
55740W        W98793  22.774  29.555  25.146  0.1868  0.0298 -0.4475
55741W        W98794  14.990   1.355   1.406 -0.0319 -0.1254 -0.0366
55742W        W98795  12.813  15.786  17.027 -0.3157 -0.2525  0.0858
55743W        W98796  21.982  21.106   8.624 -0.0342 -0.0031 -0.3180
55744W        W98797  13.846  32.894  18.035  0.1746 -0.0348  0.2170
55745W        W98798  15.567  11.566  19.260 -0.0027  0.4500 -0.0820
55746W        W98799  16.816   3.897   8.629  0.0432 -0.1653 -0.2833
55747W        W98800  11.343   0.189  26.695 -0.3698  0.1915 -0.0069
55748W        W98801  24.283  29.134  28.142 -0.2263 -0.1124  0.2799
55749W        W98802  12.038   5.377  26.749 -0.1887  0.0203  0.1507
55750W        W98803  14.241  29.910  18.260 -0.0808  0.2369 -0.0639
55751W        W98804  11.802   8.252  20.143  0.2090 -0.0415  0.1189
55752W        W98805  33.438  18.613  23.542  0.1408  0.0568  0.1053
55753W        W98806  14.243  23.776  15.084 -0.0394  0.1539 -0.2128
55754W        W98807   2.943   8.158  28.426 -0.0996 -0.0049  0.0654
55755W        W98808   0.828  30.247  23.899  0.1779 -0.1684 -0.0194
55756W        W98809   7.866  21.825   9.327  0.0045 -0.2421  0.0306
55757W        W98810   4.102  14.294   0.506 -0.1150 -0.2572  0.1900
55758W        W98811  20.027  12.553  21.343  0.0509 -0.2196 -0.1154
55759W        W98812   1.480  24.860  29.023 -0.0814 -0.0096  0.0506
55760W        W98813  24.729  19.958  24.658 -0.0639  0.0540 -0.0556
55761W        W98814   8.479  11.655  19.141  0.2822 -0.0442 -0.3139
55762W        W98815  15.045   0.077  26.763  0.0539 -0.1552 -0.0610
55763W        W98816  28.499  22.870  17.826 -0.2242 -0.0034 -0.2460
55764W        W98817  15.330   6.690  18.992  0.1029 -0.0198  0.4850
55765W        W98818  11.514  33.375  18.227 -0.1041 -0.0064 -0.3776
55766W        W98819   8.983  16.937  22.191 -0.1887  0.0229  0.0333
55767W        W98820   2.052   0.342  19.951 -0.1024 -0.1477 -0.0108
55768W        W98821  28.248   0.019  18.920 -0.0914 -0.0154 -0.1731
55769W        W98822  23.563  22.136  16.833  0.0146 -0.2989  0.2800
55770W        W98823   5.727  21.722  14.402  0.0144 -0.0060  0.2812
55771W        W98824  26.359   4.965  29.094  0.0085  0.3573 -0.1021
55772W        W98825  13.470  11.838   7.444 -0.2734  0.0633  0.0796
55773W        W98826  13.364  25.536  29.084  0.1256  0.0230 -0.0156
55774W        W98827  31.233   7.905  26.021 -0.2177  0.2789 -0.0854
55775W        W98828   0.560  16.830  23.172  0.0602  0.0677 -0.2687
55776W        W98829  23.897   3.284  21.401  0.2984  0.1988 -0.0697
55777W        W98830  12.996   6.460  19.802  0.1395 -0.0912  0.0369
55778W        W98831  12.123  27.651  26.376  0.1716  0.1182 -0.0673
55779W        W98832  12.431   8.706  22.882 -0.0959  0.0541 -0.0116
55780W        W98833  13.626  10.823  20.189  0.2111  0.0174  0.1426
55781W        W98834  25.926  10.771  15.690  0.2577  0.0450 -0.0178
55782W        W98835  17.130   1.830  18.581 -0.1660  0.0177  0.0851
55783W        W98836  14.843   2.050  18.858  0.0194 -0.0286 -0.1070
55784W        W98837  24.464  14.121  20.905 -0.0233 -0.3670  0.0039
55785W        W98838  14.846   1.029  27.460 -0.0562  0.1912  0.1338
55786W        W98839  23.584   6.556  14.983  0.1452  0.0050  0.1927
55787W        W98840  22.312  14.307   5.791  0.2681  0.0898 -0.1084
55788W        W98841   7.318  22.320  13.174 -0.0445 -0.1467  0.2313
55789W        W98842  16.750  33.817  19.755 -0.0606  0.0498 -0.0250
55790W        W98843  12.557  17.879  15.413  0.0606 -0.0916  0.1403
55791W        W98844  33.105  15.216  21.965 -0.0270  0.0493  0.2604
55792W        W98845  15.547  21.249  14.968  0.1200 -0.0698  0.0319
55793W        W98846  12.618   3.288  15.021  0.0110 -0.1507 -0.1471
55794W        W98847  31.890  10.188  15.276 -0.1025  0.0774  0.2256
55795W        W98848   8.924  24.131  15.050 -0.2220  0.1190 -0.1584
55796W        W98849  14.210  24.597  24.455  0.0991  0.1632  0.2543
55797W        W98850  22.236  18.389  14.745  0.2505 -0.1766 -0.0353
55798W        W98851  18.488  11.448  15.984 -0.0338 -0.0688 -0.0320
55799W        W98852  23.185  12.062  15.317 -0.0422 -0.1285  0.2906
55800W        W98853  19.755  11.076  15.056 -0.2340 -0.2628  0.2401
55801W        W98854  13.029  18.929  14.110  0.0961  0.2279 -0.0283
55802W        W98855   1.681  12.464  21.162 -0.0363  0.1638  0.2799
55803W        W98856  32.967   3.415   8.381  0.2694  0.0088 -0.5089
55804W        W98857  17.632  12.074   1.924 -0.0360 -0.4020 -0.0761
55805W        W98858  22.774  19.502  23.597 -0.0683 -0.0436  0.4878
55806W        W98859  27.515   9.058  20.331  0.1140 -0.0889 -0.0687
55807W        W98860  11.764  24.694   0.840 -0.3052  0.1042 -0.0879
55808W        W98861   8.414   2.809  23.393 -0.1599 -0.0709 -0.1154
55809W        W98862  18.152  26.709  19.796  0.1538 -0.3008  0.1689
55810W        W98863  15.875   5.308  16.008 -0.0984 -0.3659 -0.0329
55811W        W98864  23.970  19.780  17.969  0.0883 -0.4658 -0.1631
55812W        W98865  16.117   1.244  27.727 -0.1114  0.1694  0.2579
55813W        W98866   7.046   5.540  23.536 -0.1224  0.4170 -0.2115
55814W        W98867  25.143  18.395  24.599  0.2756 -0.1540  0.3612
55815W        W98868  26.443  24.132  19.693  0.1299  0.2426  0.0276
55816W        W98869  21.739   0.683  14.517 -0.1422  0.0476 -0.0291
55817W        W98870  11.901  23.249  17.063 -0.0322  0.0191  0.1699
55818W        W98871  19.754  20.652  18.224  0.0983  0.0938 -0.0760
55819W        W98872   4.726  15.442   3.480 -0.0686 -0.2769  0.1343
55820W        W98873  25.501   9.104  14.348 -0.0274 -0.2903 -0.0867
55821W        W98874   8.895  29.012  22.468  0.0904  0.1372  0.0989
55822W        W98875   1.603  29.897  14.883  0.0703 -0.0129  0.1793
55823W        W98876   2.481   7.115  29.179 -0.0147 -0.1804  0.1162
55824W        W98877  11.593   4.610   0.310  0.0658 -0.2330 -0.0662
55825W        W98878  14.488  13.510  20.144 -0.1206  0.0174  0.0109
55826W        W98879   0.736  29.865  23.474 -0.0131  0.2979 -0.1755
55827W        W98880  13.786  14.365   8.835  0.0610  0.1888 -0.0967
55828W        W98881   5.044  18.799  15.455 -0.1734  0.0350  0.0161
55829W        W98882   5.070   9.451   5.582  0.2182  0.1036 -0.1723
55830W        W98883  34.376  33.427   2.418 -0.0671  0.0460  0.0722
55831W        W98884  12.056   5.973  22.177  0.2702 -0.1165 -0.3315
55832W        W98885   9.686  14.248   9.252  0.1523 -0.1458  0.1695
55833W        W98886  26.354  21.158  14.092 -0.1974  0.2271  0.2266
55834W        W98887   6.011  28.730  13.424  0.1326 -0.1866 -0.4081
55835W        W98888   2.154  32.472   7.646 -0.3100  0.2232 -0.0110
55836W        W98889  19.649   2.846  17.470 -0.0483  0.1014  0.2895
55837W        W98890   2.975   1.765  21.544  0.0473 -0.1083  0.0652
55838W        W98891  12.102  34.219  25.711 -0.1740  0.0862 -0.2561
55839W        W98892  17.589   7.211  10.348 -0.1155 -0.2717 -0.0695
55840W        W98893  15.873  10.018  14.264  0.0773 -0.0822  0.4283
55841W        W98894   2.467  11.409   1.232  0.1180 -0.1779  0.0686
55842W        W98895   5.796   9.593  21.537 -0.1184 -0.0880 -0.1216
55843W        W98896   8.809  33.497  14.832  0.0165  0.3603 -0.1011
55844W        W98897  21.506  22.681   4.243  0.1031  0.0167 -0.1133
55845W        W98898   8.278   5.468  20.433 -0.0944  0.0564  0.3447
55846W        W98899  32.851  17.366  22.306  0.4132 -0.2598  0.1382
55847W        W98900  24.624   3.642   2.387  0.1369 -0.2653  0.0767
55848W        W98901  13.803   3.691  15.772  0.2055  0.1674 -0.0066
55849W        W98902  16.400  10.921  26.857 -0.1397  0.1536 -0.2808
55850W        W98903  34.589  25.526  27.363  0.0383  0.0254  0.2992
55851W        W98904   1.337   9.379  18.554  0.2277 -0.2041  0.0999
55852W        W98905   1.817  17.083   4.422 -0.2881  0.1154 -0.1779
55853W        W98906  21.924  23.502  27.064 -0.3046 -0.1601 -0.1015
55854W        W98907   6.886   3.740  27.242 -0.1695 -0.0264  0.1608
55855W        W98908  13.375  10.336  20.272  0.3459  0.1986  0.0046
55856W        W98909  28.849  25.285  19.872 -0.0937 -0.2344 -0.0279
55857W        W98910   9.728  30.449  16.369  0.1332 -0.3518 -0.2016
55858W        W98911  17.162  10.337  18.426 -0.1395 -0.2355 -0.2464
55859W        W98912  17.944  12.050  28.887  0.2217 -0.1912 -0.4212
55860W        W98913  14.822  31.752  16.034 -0.1191 -0.0280  0.4212
55861W        W98914  14.365  23.077  23.701  0.0108 -0.2278  0.0257
55862W        W98915  18.353   4.693   0.456  0.0018 -0.2415  0.0206
55863W        W98916  10.657   3.538  13.883  0.0175 -0.2312  0.0928
55864W        W98917   3.456  26.253  13.558 -0.0853 -0.1932 -0.3730
55865W        W98918  19.660   2.371   8.731 -0.0553  0.1175 -0.0803
55866W        W98919  23.375   7.142  21.487 -0.0849 -0.3413 -0.2747
55867W        W98920  16.490  32.170  22.999 -0.0982  0.0534 -0.2030
55868W        W98921   8.042  31.160  28.618 -0.0756  0.4358  0.0673
55869W        W98922  29.330   9.277  26.942  0.1893  0.0691 -0.0344
55870W        W98923  16.911  26.321  26.177 -0.0614  0.0244 -0.1374
55871W        W98924  29.243   9.731  16.758  0.0588  0.1456  0.4272
55872W        W98925  13.081  14.035  25.005  0.0484  0.3103 -0.1155
55873W        W98926   8.870   7.184   3.292  0.2832 -0.3223 -0.0112
55874W        W98927  15.175  30.031  16.871 -0.0187 -0.1148 -0.3429
55875W        W98928  13.348  14.467  24.898  0.0218 -0.0262 -0.3715
55876W        W98929   8.097  31.130  27.154 -0.0746 -0.3458  0.1784
55877W        W98930  34.566   0.345  27.660 -0.0776 -0.0153  0.1009
55878W        W98931  11.475  18.968   7.644 -0.2433 -0.1031 -0.1237
55879W        W98932  12.015   0.821  24.273  0.0600  0.0559  0.0609
55880W        W98933  26.872  11.275  28.782 -0.0683  0.0371  0.0791
55881W        W98934   9.992   2.398   1.220 -0.1802  0.0083  0.0997
55882W        W98935   0.322   8.822  13.776  0.5399  0.0950 -0.1907
55883W        W98936  18.059  15.416  23.679 -0.2387 -0.0691  0.1247
55884W        W98937   7.249  10.234   0.424  0.2562  0.2993  0.0323
55885W        W98938   8.349  22.964  20.771  0.1885  0.1752  0.1881
55886W        W98939  12.032  20.583  16.539  0.1300  0.0979  0.0366
55887W        W98940  26.966  14.364  16.068 -0.0194  0.1939  0.0417
55888W        W98941  25.405  10.304  26.913 -0.1910  0.0867  0.2279
55889W        W98942  18.337   6.152  16.408  0.1086 -0.0069  0.0708
55890W        W98943  20.474  12.882  14.750 -0.0101 -0.1050  0.0514
55891W        W98944  13.328  12.405  24.418 -0.0032 -0.3321 -0.3274
55892W        W98945  14.991   3.235  21.909 -0.0154  0.0134  0.2014
55893W        W98946  29.235  34.643  20.477  0.2985  0.1940 -0.0048
55894W        W98947   8.857  10.598  19.656 -0.4711 -0.4037 -0.1648
55895W        W98948   5.979   1.526   1.741  0.1379  0.3113  0.3654
55896W        W98949  17.021   5.045  21.478  0.1448  0.2655  0.1233
55897W        W98950  11.624  18.932  23.865 -0.1444 -0.2191 -0.0925
55898W        W98951  15.722  12.363   6.828  0.0450  0.1312 -0.2905
55899W        W98952   6.778  20.435   2.927 -0.0842 -0.1892 -0.0299
55900W        W98953  14.132   8.067   0.208 -0.0843 -0.0893  0.0691
55901W        W98954  29.973  13.603   1.915  0.0158 -0.1159  0.0747
55902W        W98955   1.640   9.593  17.166 -0.3117 -0.1639  0.4758
55903W        W98956  27.291  22.067  23.182 -0.5362 -0.0797 -0.2519
55904W        W98957  31.557  14.824  27.019  0.0448 -0.1842  0.0597
55905W        W98958  33.430   5.357  24.190  0.2459  0.0716  0.1493
55906W        W98959  18.153  26.673  19.299 -0.1880  0.0990 -0.0853
55907W        W98960  11.512  22.594  18.772 -0.0378  0.1232  0.0015
55908W        W98961  28.883  27.027  26.163 -0.0214  0.3864  0.0965
55909W        W98962   2.061  22.421   1.439 -0.0286  0.1967 -0.1017
55910W        W98963   3.946  11.354  22.032 -0.1359  0.0781 -0.1863
55911W        W98964  10.029  11.208  18.432 -0.1099 -0.1969  0.0357
55912W        W98965  27.577   2.147  16.086 -0.1256  0.0277  0.3818
55913W        W98966  12.161  13.930  26.313 -0.2753 -0.1317  0.2737
55914W        W98967  13.957   9.627  14.547 -0.2312  0.0503 -0.0580
55915W        W98968  25.243   5.616  15.389 -0.3334 -0.1751  0.0515
55916W        W98969  11.708  33.993  24.479 -0.1137  0.1918  0.2572
55917W        W98970  15.219  26.300  17.863 -0.0760 -0.2667  0.0042
55918W        W98971   5.637   5.287  15.450 -0.0799  0.0214  0.0757
55919W        W98972  21.383  32.210  20.024  0.1435  0.1039 -0.0392
55920W        W98973  29.313   8.143  24.733  0.0322  0.0148  0.2845
55921W        W98974   5.848  25.660  13.766 -0.1084 -0.4012  0.2014
55922W        W98975  11.376  13.897   1.648 -0.3836 -0.0581  0.2125
55923W        W98976  17.686  15.838   0.733 -0.1681 -0.2032 -0.3756
55924W        W98977  32.937   3.414  27.740 -0.0791 -0.0665 -0.1750
55925W        W98978  11.087  17.663   3.579 -0.2035  0.0729  0.1192
55926W        W98979  21.610  18.019  27.960  0.0750  0.0235  0.2088
55927W        W98980   6.259  19.880  20.679 -0.1488  0.2749  0.1620
55928W        W98981  33.558   4.403  16.130 -0.1320 -0.2832 -0.1204
55929W        W98982   1.859   5.550  27.881 -0.1021 -0.1796 -0.1219
55930W        W98983  23.812   1.332  22.401  0.0720  0.1483  0.0587
55931W        W98984  13.052   4.237  17.840 -0.4035 -0.1983  0.0030
55932W        W98985   2.817  10.954  24.143 -0.1594 -0.2773  0.1522
55933W        W98986  32.946   7.249  16.369  0.2503  0.0872  0.1871
55934W        W98987  10.805   3.886  20.281  0.1887 -0.0479 -0.3664
55935W        W98988  33.010  28.166  25.112 -0.2237  0.3157 -0.1143
55936W        W98989   3.663  16.402  25.757 -0.1144  0.1442 -0.1156
55937W        W98990  20.724   7.902   0.501 -0.1089 -0.2601 -0.2394
55938W        W98991  24.746  19.596   1.992 -0.2412  0.1047  0.0933
55939W        W98992  27.789   4.814  16.422 -0.1612  0.1395 -0.1161
55940W        W98993   3.727   3.128  17.686 -0.0235  0.1441  0.2870
55941W        W98994  15.735  11.217  28.132 -0.0399  0.1659  0.1326
55942W        W98995  26.296  16.118  20.407  0.0199 -0.0111 -0.2975
55943W        W98996   6.539  16.602  24.459  0.0578  0.1686 -0.0927
55944W        W98997  27.246  17.553  17.853 -0.0289  0.1390  0.2017
55945W        W98998   6.985   5.744   1.018 -0.0357 -0.1071  0.0444
55946W        W98999  14.822   9.854  14.344 -0.2583 -0.1926  0.4623
55947W        W99000  10.810   3.869  16.185  0.0762 -0.1163 -0.2093
55948W        W99001  15.949   7.282   2.175 -0.2065  0.2101  0.1166
55949W        W99002   5.972  24.774  17.731 -0.1019  0.1317  0.1954
55950W        W99003   2.721  18.694  27.351  0.0981 -0.2693 -0.1876
55951W        W99004  21.239   8.974  25.656 -0.1375 -0.1289 -0.1797
55952W        W99005  14.138  17.340  14.876 -0.0768 -0.1663  0.0988
55953W        W99006  32.851  18.720  22.717  0.1102  0.0506 -0.0222
55954W        W99007  19.408  32.742  19.313 -0.2692  0.0082  0.3607
55955W        W99008  34.386  14.907  21.034  0.0493  0.0422 -0.0774
55956W        W99009  10.135   5.312  29.137  0.1184 -0.0325  0.0832
55957W        W99010  28.517  16.437   5.442  0.0278 -0.1822 -0.0583
55958W        W99011  11.824  13.054  21.861  0.1017  0.1144  0.1720
55959W        W99012  31.513  17.736  21.875  0.2591 -0.2780 -0.3318
55960W        W99013  21.371   9.131  19.656 -0.1550 -0.2496 -0.0336
55961W        W99014  12.915   5.590   4.735  0.1371  0.1130 -0.1591
55962W        W99015   9.299  14.307  22.147  0.0587  0.1605 -0.0385
55963W        W99016  15.687   6.564   1.825  0.3624  0.1034 -0.1428
55964W        W99017  23.301   8.839  16.168 -0.1161 -0.0698 -0.2654
55965W        W99018  19.800  26.538  26.308 -0.0376 -0.0857 -0.0569
55966W        W99019  21.373   2.970  14.840 -0.1402  0.0351  0.1304
55967W        W99020  20.127  31.119  17.563 -0.2586 -0.1693  0.2513
55968W        W99021   4.713  10.969  22.577  0.1645 -0.0062 -0.2459
55969W        W99022  16.119  26.275  21.819 -0.1375 -0.5785 -0.0456
55970W        W99023   7.128  10.083  17.430 -0.1580 -0.1105  0.3829
55971W        W99024  12.159   6.431  28.359  0.2693  0.0783  0.2969
55972W        W99025  13.616   1.292  24.616 -0.2104 -0.3611 -0.3115
55973W        W99026   8.374   4.934  25.323  0.0742 -0.1549 -0.1877
55974W        W99027  18.249  34.334  19.373 -0.2183  0.0755  0.0470
55975W        W99028  17.684  17.748  14.158 -0.3240  0.1163  0.1455
55976W        W99029  20.727  21.010  17.109  0.0185  0.0593  0.1592
55977W        W99030  11.843   3.180   6.402 -0.0189  0.0349 -0.0234
55978W        W99031  23.396   8.631  26.640 -0.4081 -0.1941 -0.1355
55979W        W99032   4.053  26.198  28.280  0.2302  0.1485  0.1387
55980W        W99033   3.719   1.654  15.130  0.1585  0.0497 -0.0017
55981W        W99034  14.570   6.037   4.661 -0.0879  0.0207  0.1102
55982W        W99035  28.335  30.375   1.093 -0.0271 -0.2550 -0.0825
55983W        W99036   3.911  23.979  17.483 -0.0138 -0.3827 -0.0401
55984W        W99037   7.933  17.608  19.446  0.0345  0.2122  0.0362
55985W        W99038   4.525  10.749  17.677 -0.1047 -0.0858  0.0156
55986W        W99039  10.571  21.746  20.134 -0.0557  0.0502 -0.2170
55987W        W99040   2.435  18.578  14.116  0.1103 -0.0273  0.0297
55988W        W99041  19.456  13.391  24.373 -0.2575 -0.2971  0.2242
55989W        W99042   0.756  10.657   0.854 -0.1217 -0.1428  0.0901
55990W        W99043  24.152  10.708  22.209 -0.0548  0.3198 -0.0392
55991W        W99044   9.391  32.379  21.646 -0.0437  0.1063  0.0781
55992W        W99045   6.603  21.985  14.327 -0.0117 -0.0012  0.1751
55993W        W99046  30.367  28.508  29.193  0.1911  0.0468 -0.0566
55994W        W99047  18.811   6.821  14.053 -0.0342  0.0173 -0.1494
55995W        W99048   0.609   6.007  23.103  0.0342 -0.0539 -0.0381
55996W        W99049   7.257   9.093  25.622  0.4129  0.0079  0.0582
55997W        W99050  28.078   2.057  26.585 -0.0920  0.1569  0.0599
55998W        W99051   8.401  20.485  24.485  0.0272  0.0922  0.0270
55999W        W99052  32.216   4.552   4.306 -0.0568  0.2501  0.0616
56000W        W99053  22.717   0.921  16.409 -0.3146  0.1952 -0.1053
56001W        W99054  22.291  13.949  22.656 -0.7277  0.0174  0.1525
56002W        W99055   9.750   6.752  25.383  0.2036  0.2029  0.1121
56003W        W99056   1.488   2.658  18.577  0.0534  0.0396 -0.1361
56004W        W99057  31.050  10.942  15.456  0.2795  0.1643 -0.1638
56005W        W99058   5.448  19.940  15.522 -0.0730  0.0832  0.0171
56006W        W99059   5.088   5.870  15.388 -0.1632  0.2287  0.1077
56007W        W99060  24.474  29.869   8.381 -0.0129  0.2217 -0.1733
56008W        W99061   2.968  15.614  27.676  0.3142 -0.3923  0.3331
56009W        W99062  24.376  18.669   1.386  0.1730 -0.1802  0.2879
56010W        W99063   8.951   6.148  27.442 -0.0256 -0.1533  0.0974
56011W        W99064  13.147  10.242  28.327  0.1558 -0.1091  0.0279
56012W        W99065   9.852  10.587  15.849  0.1334  0.1101 -0.0068
56013W        W99066   6.601   2.324  23.263  0.0618 -0.0737  0.0527
56014W        W99067  33.041  17.162   3.802  0.2819  0.0276  0.0194
56015W        W99068   8.603   7.359  27.890  0.0252 -0.4163  0.2555
56016W        W99069  16.973  34.358   6.015  0.0578  0.0778  0.0778
56017W        W99070  24.422   8.948  23.346 -0.2419  0.0152  0.1329
56018W        W99071  34.318  22.991   6.516  0.0220 -0.1440 -0.1580
56019W        W99072  10.351  32.088  15.968  0.4315  0.2336  0.2426
56020W        W99073   7.366   6.507  23.472 -0.0338 -0.2449  0.0407
56021W        W99074  30.411  11.935  23.872 -0.0801 -0.0465 -0.0361
56022W        W99075  16.307  34.140  15.183 -0.3871  0.0379  0.1153
56023W        W99076  10.604   5.705  16.354  0.0476 -0.3505  0.1439
56024W        W99077   5.961   3.939  21.230  0.1525 -0.0168 -0.1453
56025W        W99078   0.112   9.990   3.367  0.0500  0.0526 -0.1886
56026W        W99079   2.781   4.180  22.101  0.0109 -0.0461 -0.1406
56027W        W99080  15.610  28.474  16.041  0.1008 -0.1162 -0.1312
56028W        W99081   9.239  20.113  17.501 -0.2329 -0.1445  0.2612
56029W        W99082   5.599   3.230   6.307 -0.0997 -0.1776 -0.1262
56030W        W99083  15.585   6.349  21.767  0.1738 -0.0524 -0.3356
56031W        W99084  10.483   0.393  14.844  0.1304  0.0312 -0.4543
56032W        W99085  15.606  27.118   6.227  0.1764 -0.1280 -0.0826
56033W        W99086  19.787   6.512  21.460 -0.0592 -0.0395 -0.2393
56034W        W99087   5.669  24.377   3.809 -0.1963  0.0165  0.4108
56035W        W99088   5.956  15.868  19.700  0.1765  0.2220  0.4033
56036W        W99089   3.788   3.038   0.927  0.1337 -0.2480 -0.0159
56037W        W99090   8.142   5.497  26.666  0.1974 -0.1230  0.2132
56038W        W99091  23.804   5.569  17.491  0.2899  0.4854 -0.2251
56039W        W99092  14.346  10.734  23.206  0.1373  0.0005 -0.0569
56040W        W99093  12.014  10.996  24.356 -0.3487 -0.0753 -0.1007
56041W        W99094  14.602  32.558  16.663  0.3369 -0.1690 -0.0058
56042W        W99095  22.044  10.900  16.534  0.0012  0.1452  0.0086
56043W        W99096   7.286  11.147   7.679  0.4465  0.0480 -0.1221
56044W        W99097  12.768  13.548  15.827  0.1419  0.1870  0.2527
56045W        W99098   3.833   3.076   0.239 -0.0553  0.1334  0.1997
56046W        W99099  21.155  26.812  20.384 -0.0495 -0.0115  0.1185
56047W        W99100  20.451  15.385  13.198  0.1747 -0.3662  0.0339
56048W        W99101  24.691  31.806  16.784 -0.0687  0.0546  0.0883
56049W        W99102  10.382   9.384  26.628 -0.4637 -0.0349 -0.2019
56050W        W99103  15.657  30.044   2.115  0.3471 -0.0552  0.1875
56051W        W99104   6.785  15.216  16.515  0.1242  0.1582 -0.1984
56052W        W99105   5.352  33.299  25.415 -0.0499  0.0928 -0.1559
56053W        W99106   3.154   9.671  16.930  0.3934 -0.0810 -0.4214
56054W        W99107  22.649  28.866  17.736  0.0148 -0.0447  0.0124
56055W        W99108   5.972   2.882  10.792 -0.1106 -0.0376  0.2144
56056W        W99109   2.853  14.808   1.215  0.1755 -0.2777 -0.1242
56057W        W99110  23.882   2.751  24.382  0.2668  0.1151 -0.0983
56058W        W99111  15.534  21.768  16.335 -0.3087  0.1234 -0.1994
56059W        W99112   7.856  29.109   1.661  0.0960 -0.2567 -0.0431
56060W        W99113  13.642  29.450  23.791 -0.0019  0.1193 -0.1461
56061W        W99114  18.821  30.496  23.119  0.1971 -0.0689  0.0775
56062W        W99115  22.701  20.453  20.769 -0.0624 -0.0472 -0.0991
56063W        W99116  14.512  28.121   6.092 -0.2964 -0.0248  0.0404
56064W        W99117   4.959   7.131   1.220  0.1262 -0.2569 -0.0146
56065W        W99118   4.914  18.573  16.744 -0.3418  0.3753  0.0001
56066W        W99119  20.512  19.364  26.828 -0.1663 -0.2563 -0.1571
56067W        W99120  17.131   4.847  18.378  0.1777 -0.1486  0.0866
56068W        W99121  11.615  16.434  14.859 -0.0577  0.2461 -0.0563
56069W        W99122  12.566  17.387  17.962  0.0731  0.1904  0.1878
56070W        W99123  28.262  12.243  23.801 -0.0430  0.1205  0.0955
56071W        W99124  12.700   8.451  22.473  0.0762 -0.1066  0.4130
56072W        W99125  20.943   4.271   7.357  0.3302  0.1040  0.0929
56073W        W99126  10.670   9.105  17.687  0.0985 -0.0535  0.1995
56074W        W99127  29.845  23.130  24.802  0.0753 -0.3313 -0.0190
56075W        W99128   4.945   5.781  18.458 -0.2306 -0.0632  0.1822
56076W        W99129  18.497  14.316  24.724  0.2194 -0.3125  0.1498
56077W        W99130  24.768  19.042  20.865 -0.2289  0.2611 -0.0130
56078W        W99131  33.825  21.389  23.699 -0.0121  0.0348  0.0147
56079W        W99132  11.147   1.207  14.889  0.4400 -0.0094 -0.2183
56080W        W99133  29.468  14.290  14.745 -0.1476 -0.2077 -0.1263
56081W        W99134   3.853   0.246  20.209 -0.0890  0.2586 -0.1442
56082W        W99135  17.041   7.960  24.439 -0.0120 -0.2556  0.2031
56083W        W99136  15.921  25.410  23.261 -0.5660  0.0525 -0.4239
56084W        W99137  19.526   1.180   9.233 -0.1576 -0.0966  0.1374
56085W        W99138   1.244  28.341  16.882  0.0199  0.0633  0.1697
56086W        W99139  14.217  23.854  17.296  0.3907 -0.1474  0.2326
56087W        W99140  11.241  17.158  23.687  0.0349 -0.1785 -0.1411
56088W        W99141  30.204  23.203  17.536 -0.2047  0.1165 -0.3407
56089W        W99142   6.351   1.171  22.106  0.4836 -0.3518  0.2051
56090W        W99143   2.127  16.288   5.915  0.0206 -0.2698  0.4385
56091W        W99144  14.488   7.518  27.437  0.1078 -0.0017  0.0134
56092W        W99145   4.306   0.140   0.691  0.1347 -0.2753 -0.1003
56093W        W99146   1.498   4.127  19.915 -0.1398 -0.0615  0.0098
56094W        W99147  20.020  26.192  21.055  0.0266 -0.2301 -0.2893
56095W        W99148  10.262   5.744  21.758  0.1260 -0.1404 -0.0663
56096W        W99149  26.944  10.715  28.013  0.1192 -0.1790  0.2323
56097W        W99150  13.576  12.388  21.041  0.0142 -0.3287  0.1283
56098W        W99151  32.627  14.798  15.614 -0.0375  0.0064  0.0266
56099W        W99152  17.992  30.349  20.665 -0.0244 -0.2852  0.1123
56100W        W99153   7.183  16.729  17.715 -0.0521  0.1202  0.1604
56101W        W99154  22.045  10.526  18.524 -0.2038  0.2437  0.1150
56102W        W99155  13.862  21.248  25.260  0.0146  0.0979  0.0939
56103W        W99156  20.124   5.998  17.736 -0.0741 -0.1348  0.0884
56104W        W99157   5.870  20.366  23.450 -0.2519 -0.0097  0.0730
56105W        W99158   5.557   9.795   1.715  0.0184 -0.0458 -0.1232
56106W        W99159   2.801  14.863  27.359 -0.2614  0.1958 -0.1959
56107W        W99160  15.358   5.549  17.497 -0.2250 -0.2993 -0.0062
56108W        W99161  12.025   5.833  24.986 -0.1657 -0.1267  0.1425
56109W        W99162  14.050   3.954   4.461  0.3487  0.0133 -0.0359
56110W        W99163   6.440  10.588  25.258  0.2417  0.0373 -0.0301
56111W        W99164  20.878   1.685  19.306  0.1395  0.0257  0.2315
56112W        W99165  24.828  16.829  14.230  0.2580  0.0626  0.4167
56113W        W99166  34.255  23.254  15.494 -0.1267  0.4049 -0.1309
56114W        W99167   5.050  14.632   5.550 -0.0502 -0.2687 -0.4702
56115W        W99168   7.674  24.905  25.930 -0.1600 -0.0200  0.1367
56116W        W99169  29.607   4.808  16.257 -0.2102  0.1152 -0.0496
56117W        W99170  29.456  21.562  14.698  0.0347 -0.0042 -0.1632
56118W        W99171   5.333  14.779   7.731  0.0807 -0.0314  0.1040
56119W        W99172  17.753   8.367  23.362 -0.3313  0.2159 -0.0158
56120W        W99173  14.250  33.349  15.367  0.0816  0.0117  0.0818
56121W        W99174  21.415  28.342  14.917 -0.0502 -0.1502  0.1288
56122W        W99175  14.009  22.055  21.952  0.1449  0.1842  0.1071
56123W        W99176   8.390   5.619   3.150  0.0122 -0.1929  0.4727
56124W        W99177  17.117  34.009   7.645  0.2137  0.1759  0.0434
56125W        W99178  21.679  32.516  14.426 -0.4716  0.1287  0.0503
56126W        W99179  24.329  32.756  25.811  0.5425  0.0571  0.0029
56127W        W99180  15.183  32.451  17.394 -0.0401 -0.0859 -0.1879
56128W        W99181  13.074   7.814  19.726  0.1404 -0.0998  0.0912
56129W        W99182  10.958   2.681  18.570 -0.0891 -0.2748  0.3498
56130W        W99183  14.627  21.342   9.593  0.3559  0.0594  0.0792
56131W        W99184   0.984   7.843  19.057  0.2190 -0.0490  0.0826
56132W        W99185  16.456  32.342  21.241  0.2794 -0.4663 -0.0129
56133W        W99186  34.538   3.291  23.008 -0.0033 -0.1937 -0.2607
56134W        W99187  15.684   8.059  25.315 -0.2142  0.1795 -0.1268
56135W        W99188   9.639  25.308   4.177 -0.0383  0.1438 -0.0820
56136W        W99189  20.701  20.294  14.436  0.1414  0.1976  0.0007
56137W        W99190  16.375  30.427  16.723 -0.0058 -0.2915 -0.2782
56138W        W99191  12.125   6.089  20.012  0.0790  0.0722 -0.2948
56139W        W99192  11.553  11.190  25.556  0.0658  0.2522 -0.1110
56140W        W99193  25.963  11.807  14.874  0.1468 -0.0371 -0.1953
56141W        W99194  10.641  10.672  18.699  0.3421  0.1531 -0.2664
56142W        W99195   6.615  34.539  18.419  0.0445  0.0094 -0.0709
56143W        W99196  20.730  21.290  28.930 -0.0161 -0.0549 -0.0644
56144W        W99197   0.014  26.915   5.154 -0.3103  0.0316 -0.0349
56145W        W99198  17.832  11.608   5.998 -0.0143 -0.0187 -0.1457
56146W        W99199  18.582  27.229  14.064  0.0787  0.0474  0.1169
56147W        W99200  19.277   5.882  24.817  0.0061 -0.0935  0.1977
56148W        W99201  13.298  17.660  23.353 -0.0262  0.1442 -0.1014
56149W        W99202  11.502  12.579  22.068 -0.1291 -0.0860  0.3277
56150W        W99203   1.697  12.611  29.051 -0.2486 -0.0537  0.1996
56151W        W99204   6.581  23.761   9.356 -0.2978  0.0700  0.1018
56152W        W99205  29.251   0.248  25.187 -0.0899  0.0800 -0.1732
56153W        W99206  16.298   5.350   4.805  0.1159  0.1054 -0.2764
56154W        W99207  28.984  15.759  13.875 -0.0417 -0.0586  0.2090
56155W        W99208   3.704  12.875   0.219  0.0528  0.0113 -0.1209
56156W        W99209  20.608  21.622  14.209 -0.3284  0.0837  0.1637
56157W        W99210  32.966   3.582  22.812  0.1024  0.0208 -0.1668
56158W        W99211   8.028  17.735  22.170 -0.2092  0.3522  0.2670
56159W        W99212   0.162  10.070  19.371 -0.0850 -0.0303  0.0232
56160W        W99213   8.170  27.039  22.254  0.1014 -0.5628  0.3508
56161W        W99214  21.048   6.102   5.011  0.1700  0.1278 -0.1764
56162W        W99215  30.924   1.389  15.885  0.0494  0.0263 -0.1202
56163W        W99216  34.219   5.906  17.778  0.2020  0.2517 -0.1298
56164W        W99217  27.216   5.723  26.255 -0.1434 -0.0743 -0.3191
56165W        W99218   5.552  13.618  20.991  0.1640  0.0601  0.0650
56166W        W99219  18.808  10.816  25.285  0.0947  0.2802  0.0702
56167W        W99220  28.623   1.142  15.905 -0.2531 -0.2598 -0.0878
56168W        W99221   9.418  15.867  19.530  0.0530  0.0514  0.3544
56169W        W99222   6.755  25.967  22.012 -0.2667  0.0121 -0.0162
56170W        W99223  17.134  23.899   0.060  0.1512 -0.1307 -0.0607
56171W        W99224   5.529  22.277   0.454  0.2248  0.2544  0.0928
56172W        W99225   7.633  18.398  23.157  0.2677 -0.1240 -0.0401
56173W        W99226  18.353   1.464  23.378  0.0844 -0.0123 -0.2919
56174W        W99227  14.281  11.809   3.984 -0.0567  0.0664 -0.1703
56175W        W99228   2.489  13.607  15.597 -0.1234  0.1132  0.0113
56176W        W99229  30.029  33.216  25.412  0.1156 -0.0311 -0.1471
56177W        W99230  28.089  25.470  27.543 -0.2584  0.1706  0.0195
56178W        W99231  25.857   2.177  27.349  0.2344  0.1810  0.0660
56179W        W99232   6.259  12.973  15.219 -0.1108  0.1522  0.3104
56180W        W99233  16.169  12.488  15.710  0.2720  0.2133 -0.1015
56181W        W99234  17.998  24.039  17.975 -0.1806 -0.0197 -0.1185
56182W        W99235  27.286  13.950  20.893  0.2745  0.0508 -0.0030
56183W        W99236  15.769   9.247   6.984 -0.2735  0.1805  0.3851
56184W        W99237  14.541  21.675  24.641 -0.1666  0.4896 -0.4015
56185W        W99238   8.864  30.062  18.068  0.1500 -0.2828  0.0777
56186W        W99239  10.311   7.532  14.718 -0.0528 -0.1816  0.3402
56187W        W99240  11.381   7.679   2.929  0.1748  0.1947  0.0528
56188W        W99241   9.493  10.214  18.041  0.0944  0.1030 -0.0787
56189W        W99242  18.827  15.094  14.720 -0.0804 -0.0053 -0.0477
56190W        W99243  16.365  13.810  15.638 -0.2690  0.1004 -0.1612
56191W        W99244  14.488  17.271  25.891 -0.3299 -0.1230 -0.2145
56192W        W99245  19.738   7.432  26.352  0.0082 -0.1759  0.0467
56193W        W99246   5.075  23.047  20.958 -0.2672  0.0410 -0.1200
56194W        W99247  20.262  12.552  28.724 -0.0243  0.2314 -0.1125
56195W        W99248  25.434  10.008  16.730  0.0565  0.0892 -0.1167
56196W        W99249  18.089  10.356  22.720  0.0367 -0.4280 -0.1760
56197W        W99250  15.637  11.834  20.461  0.0810 -0.0779  0.1667
56198W        W99251   5.357   3.209  14.229 -0.2089  0.0879 -0.2348
56199W        W99252  12.218   1.114  21.076 -0.5446  0.0117 -0.1901
56200W        W99253  12.456  19.482  24.730 -0.3744 -0.0987  0.3245
56201W        W99254  18.350   7.583  15.390 -0.0449  0.0151 -0.1545
56202W        W99255  20.223  12.524  14.440  0.4895  0.1981  0.1422
56203W        W99256   8.800   0.730  21.084 -0.0539  0.1110 -0.1129
56204W        W99257   6.072  12.779  28.432  0.2491 -0.1557 -0.1248
56205W        W99258  20.813   5.916  24.115  0.1765 -0.1917 -0.4253
56206W        W99259   6.280   0.714  20.832 -0.2651 -0.3202  0.3590
56207W        W99260  30.096   2.077  16.875 -0.2316  0.2593  0.1383
56208W        W99261   4.739  22.687  26.337  0.0580 -0.1959 -0.1635
56209W        W99262  12.895  16.907   7.570  0.0573 -0.0014 -0.2319
56210W        W99263  11.949   5.750  17.625  0.0257 -0.0298 -0.0387
56211W        W99264  10.124  15.588   7.621  0.2728  0.2922  0.2892
56212W        W99265   6.582  11.121  15.531 -0.1584 -0.0643 -0.2040
56213W        W99266  33.052  14.672   5.047  0.2839 -0.0833 -0.1030
56214W        W99267  12.637  25.043  22.352  0.2545 -0.1284  0.1419
56215W        W99268  20.006  16.816  28.928  0.0320 -0.1989  0.0193
56216W        W99269  16.198  13.195  24.401  0.1065 -0.0415 -0.1398
56217W        W99270  21.265   3.403   3.125 -0.0289  0.3944  0.0417
56218W        W99271  13.483  27.278  15.642  0.2477  0.3109 -0.1387
56219W        W99272  12.173   9.296  21.323  0.1837 -0.0203  0.0535
56220W        W99273  26.959   7.060  28.396 -0.1895  0.0589 -0.0783
56221W        W99274   7.943   4.100  14.837  0.1509  0.2473 -0.0681
56222W        W99275   3.855  15.907  16.526 -0.0644  0.1124  0.1023
56223W        W99276  15.551   7.572   9.129  0.1947  0.3319  0.1407
56224W        W99277  12.151   9.359  27.669  0.2234  0.0067 -0.0978
56225W        W99278  28.650  33.648   3.431  0.0924 -0.0131  0.0272
56226W        W99279   2.235   9.262  15.417  0.1066 -0.0480 -0.0527
56227W        W99280  16.403   6.674  23.595  0.2767 -0.3172  0.0943
56228W        W99281  19.388   7.901  15.577 -0.2617  0.0764 -0.3143
56229W        W99282  33.212  20.047  19.006 -0.2803 -0.3600  0.1990
56230W        W99283  33.552  18.289   5.222 -0.3868 -0.1723 -0.0724
56231W        W99284   4.967  22.473  24.338  0.0763  0.1027  0.3312
56232W        W99285  22.101   2.657  27.720 -0.0727 -0.1604  0.0559
56233W        W99286  23.751   4.119  15.152  0.1416  0.0958  0.2156
56234W        W99287  13.241   2.833   0.924  0.0312 -0.1023  0.2543
56235W        W99288  34.443  12.190  19.235  0.0551 -0.0022 -0.0687
56236W        W99289  23.264   6.648  19.806  0.1004 -0.0441  0.0672
56237W        W99290  22.905  22.766  20.364  0.0016  0.2423 -0.1233
56238W        W99291  28.688  15.164   8.108 -0.2937  0.0935 -0.2845
56239W        W99292  29.391  12.317  21.348  0.1071 -0.0932 -0.1228
56240W        W99293  17.068  11.076  27.544 -0.1173  0.0297  0.1092
56241W        W99294   6.968   7.377   4.527 -0.1101 -0.2950  0.0109
56242W        W99295  13.316   5.889  15.136  0.1117 -0.0050  0.0920
56243W        W99296   7.674   9.785  23.448  0.1648 -0.0035  0.1114
56244W        W99297   5.369   9.976  18.129 -0.1964 -0.2198 -0.1762
56245W        W99298   5.760  18.578  18.635  0.1727  0.2835  0.2589
56246W        W99299  26.587  18.841   5.864  0.0822  0.3811 -0.2172
56247W        W99300   2.543  14.105   1.265  0.3617 -0.0758  0.2894
56248W        W99301   4.053  23.971  21.087  0.1086 -0.0391 -0.1723
56249W        W99302  16.310  14.095   5.366 -0.1748  0.2329  0.4383
56250W        W99303  10.501  23.557   8.098  0.2959  0.2251  0.1635
56251W        W99304   8.280   2.431   3.854  0.1259  0.2340 -0.0641
56252W        W99305  13.707  20.960  28.833 -0.3292 -0.0708  0.6096
56253W        W99306  31.617   0.276  24.329 -0.2558 -0.0959  0.0138
56254W        W99307  15.209  30.663  20.186  0.0786  0.0829  0.0597
56255W        W99308  21.621  11.460  26.122 -0.4734 -0.1569  0.0803
56256W        W99309  10.471  15.667  10.275  0.2749 -0.1992 -0.0184
56257W        W99310  19.190  33.495   6.710 -0.1511  0.0036 -0.0615
56258W        W99311   8.365  25.773  27.420  0.1701 -0.0743  0.0554
56259W        W99312  32.479   7.530   1.595 -0.0590  0.1446  0.0904
56260W        W99313   6.393  11.667  10.388  0.1091  0.1092 -0.1513
56261W        W99314   5.152  30.898  25.987  0.0421  0.2404 -0.0881
56262W        W99315  26.041  31.551   3.336  0.0170 -0.1912  0.2237
56263W        W99316  16.970  12.501  27.681  0.1497 -0.2209  0.1578
56264W        W99317   6.743   0.460  17.636  0.2150  0.1465  0.1725
56265W        W99318   5.494  12.793   8.054 -0.0815 -0.1694  0.1359
56266W        W99319  14.612  12.550  21.784  0.0418 -0.0879  0.0113
56267W        W99320   6.998  18.197  27.473 -0.0721 -0.0429  0.3487
56268W        W99321  25.216  10.350  28.362 -0.2096  0.3651 -0.1074
56269W        W99322  16.987   8.474  23.697  0.2776 -0.2144  0.1777
56270W        W99323  32.260   0.588  28.968 -0.0891 -0.0951 -0.2664
56271W        W99324  30.940  34.149  21.597 -0.0256 -0.0912  0.3438
56272W        W99325   2.470  14.135  28.539 -0.0522  0.2045  0.0030
56273W        W99326  22.986   7.828  28.392  0.1114  0.4249  0.3225
56274W        W99327  24.092  28.646  23.038 -0.0637  0.2352  0.1057
56275W        W99328  15.633   6.524  16.596  0.1535 -0.4481 -0.0357
56276W        W99329  13.943  13.335  25.039  0.1016  0.0316 -0.1864
56277W        W99330  20.689   1.333   1.922  0.1928 -0.0868  0.0724
56278W        W99331  32.054   3.846  21.965 -0.0231  0.3277 -0.1908
56279W        W99332  18.371  13.279   8.782 -0.2460 -0.2488  0.0342
56280W        W99333  19.965  33.085   2.984  0.0611  0.1119 -0.1732
56281W        W99334  10.873  14.823  23.890  0.1318  0.1970 -0.0283
56282W        W99335   5.251  13.562  21.436  0.1988 -0.2880 -0.0037
56283W        W99336  10.008   5.593   6.074 -0.0050 -0.0383  0.0081
56284W        W99337  19.936   9.896  25.202 -0.1252  0.1686  0.1559
56285W        W99338  18.793  31.131  26.011  0.1360  0.1898  0.1135
56286W        W99339  18.799   8.534  27.871  0.0787  0.0114 -0.1830
56287W        W99340   5.791  25.811  28.187  0.1603 -0.0908  0.0415
56288W        W99341   7.393   6.080   7.926 -0.0988  0.0657 -0.1447
56289W        W99342  10.906  14.081   1.961  0.0404  0.2160 -0.0013
56290W        W99343  17.634   7.040   3.049 -0.1938 -0.4191 -0.0458
56291W        W99344  20.624  14.846  21.901  0.1178  0.0799  0.0630
56292W        W99345   4.088  30.070  23.545  0.2126 -0.0231  0.0031
56293W        W99346  15.354   4.479  25.216  0.0207 -0.0165  0.1260
56294W        W99347   1.572  21.423  18.592 -0.1292 -0.0853  0.2245
56295W        W99348   7.222   7.323  18.287 -0.0553  0.2725  0.2926
56296W        W99349  10.039  25.749  24.259  0.2646 -0.0292 -0.1231
56297W        W99350  14.469  27.758   8.564  0.3397 -0.1484 -0.0996
56298W        W99351  14.036  27.101  19.687  0.0500  0.0210 -0.1909
56299W        W99352   4.274   5.796   3.428  0.0620  0.2671 -0.4149
56300W        W99353  18.323  25.144   0.579  0.1755  0.0192  0.0178
56301W        W99354  24.526   2.789  27.118 -0.1978 -0.1538  0.0847
56302W        W99355  23.979   2.120  19.907  0.1877 -0.0734  0.0756
56303W        W99356  16.859   2.498  21.730 -0.1109 -0.1083  0.4378
56304W        W99357   2.996  15.118   7.389  0.0339 -0.2483  0.0990
56305W        W99358  11.504  34.241   4.706  0.0723  0.0324 -0.1107
56306W        W99359  26.174   8.938  27.349  0.2839  0.3433 -0.4287
56307W        W99360  15.706   9.773   4.240 -0.1601 -0.3276  0.1675
56308W        W99361  32.200  14.631   5.139 -0.2823  0.3178  0.2592
56309W        W99362   2.057  16.034  13.484 -0.1486  0.3020 -0.1336
56310W        W99363   5.602   4.466   4.230  0.1183 -0.0361  0.1303
56311W        W99364   1.105  13.336   5.419 -0.1042  0.0467  0.2045
56312W        W99365  14.192  13.282  24.571  0.2686  0.3791  0.0403
56313W        W99366   5.456  11.105   2.025  0.4186 -0.2634 -0.2911
56314W        W99367  18.784  23.212  17.987  0.1154  0.1912  0.1424
56315W        W99368  12.799   5.150   1.595  0.1113  0.2328  0.0530
56316W        W99369  12.581   3.957   0.508  0.0166  0.0806 -0.0269
56317W        W99370  21.480  32.863   3.880 -0.0037  0.3328  0.2315
56318W        W99371  12.133   6.998   5.783  0.1817 -0.0951  0.1917
56319W        W99372  16.911  21.735  27.188 -0.2370 -0.3012 -0.1055
56320W        W99373  19.756  22.127  15.760 -0.0785 -0.0266 -0.1340
56321W        W99374  19.786  11.218  25.197 -0.1135  0.1040 -0.3180
56322W        W99375  11.342  13.200  22.027  0.0951  0.1558  0.2254
56323W        W99376   9.555  10.911  18.386 -0.0287 -0.0382  0.1188
56324W        W99377  15.958   4.133  24.137  0.0372  0.1057  0.0865
56325W        W99378  34.445  24.136  18.676  0.2620  0.1964  0.1884
56326W        W99379  26.062  22.263  25.673 -0.1842  0.0747  0.3053
56327W        W99380  28.353   3.498  21.402 -0.0113 -0.1184  0.0920
56328W        W99381  20.144  18.418   4.098  0.0153 -0.2821 -0.1496
56329W        W99382  10.258  10.230   2.666  0.1773  0.0817  0.0643
56330W        W99383  30.550   5.437  27.669  0.0134  0.1432  0.6288
56331W        W99384  16.960   6.584  16.955  0.0340  0.1430  0.0224
56332W        W99385  18.975  11.146   6.979 -0.0470  0.1271 -0.0760
56333W        W99386  10.022   9.520  25.157 -0.1785 -0.0415  0.0809
56334W        W99387  10.275  21.028  25.828  0.1013  0.0956 -0.0465
56335W        W99388   7.144  28.581  18.706 -0.1030  0.1492 -0.0831
56336W        W99389   2.182  23.572   4.631 -0.0280 -0.3773 -0.0631
56337W        W99390  16.132   6.122  15.837 -0.0006 -0.3147  0.1479
56338W        W99391  13.195   4.309  28.600 -0.0787 -0.0650 -0.2435
56339W        W99392   7.594   5.724  26.581  0.4605 -0.1071  0.4053
56340W        W99393  15.749  21.620  20.772  0.0552 -0.0612 -0.0555
56341W        W99394   8.560   7.885  14.051 -0.1459 -0.0054 -0.0599
56342W        W99395   0.271  13.379  24.180  0.2124 -0.0909  0.0376
56343W        W99396  19.047   2.683  15.480  0.0511  0.0842  0.0271
56344W        W99397  15.078  14.369  24.671 -0.1653 -0.0758  0.1020
56345W        W99398  20.492  10.859  17.280  0.0315 -0.0289 -0.0190
56346W        W99399  31.034  23.393   9.695  0.0962 -0.2235 -0.1406
56347W        W99400   5.563  10.074   3.116  0.0549  0.0511  0.2296
56348W        W99401   1.154   0.474   0.179 -0.0642 -0.2954  0.1266
56349W        W99402  21.132   8.224  18.858  0.0235  0.0391  0.4463
56350W        W99403   9.948  23.279   6.893  0.1737  0.1852  0.0074
56351W        W99404  18.984  33.495   7.468  0.1592  0.0983  0.2472
56352W        W99405   3.768  16.183  15.218  0.0922 -0.1126 -0.2957
56353W        W99406   6.571   2.057   0.233  0.0839 -0.2074 -0.2954
56354W        W99407  30.307  10.466  24.694  0.2228 -0.0550 -0.0522
56355W        W99408   5.510   3.368   2.059 -0.1080  0.1991 -0.1118
56356W        W99409   7.634   6.240   3.571  0.0647 -0.0015  0.0471
56357W        W99410  10.573  13.665   2.013  0.1640  0.1612  0.4517
56358W        W99411  25.270  30.008  13.591  0.1021 -0.2678 -0.2220
56359W        W99412   9.695  17.568  17.776  0.0804 -0.5011  0.1577
56360W        W99413   5.711  12.536   9.302 -0.0583 -0.1546  0.0843
56361W        W99414   6.273   6.312  24.546 -0.2670  0.1064 -0.0489
56362W        W99415  33.510  34.358   5.964 -0.2819 -0.2116  0.0874
56363W        W99416  17.411   4.244  18.775  0.1055 -0.0206 -0.1238
56364W        W99417  26.011   8.170  22.775  0.0668 -0.0809  0.2145
56365W        W99418   8.803  11.135   9.242 -0.1724  0.1451 -0.3149
56366W        W99419   3.998   3.647  20.521  0.2256  0.0371 -0.0483
56367W        W99420   5.882  10.586   3.365  0.1433 -0.0890  0.1859
56368W        W99421  29.262  28.581   9.206  0.0320 -0.0218  0.1834
56369W        W99422  12.863   9.260  23.601  0.4868  0.4837 -0.0313
56370W        W99423   3.311  12.765  24.926 -0.2792 -0.2413  0.1356
56371W        W99424  14.867   6.640  28.517 -0.3597 -0.1972  0.1193
56372W        W99425  15.533  28.121   6.224 -0.1762  0.1006  0.1953
56373W        W99426  13.164   5.172  17.657 -0.0722 -0.2880 -0.4219
56374W        W99427  16.473   4.266   6.296  0.0084  0.3624 -0.3823
56375W        W99428  27.929  15.252  18.946  0.1939 -0.0127  0.1793
56376W        W99429  10.836   5.833  26.859  0.0108 -0.0292  0.2539
56377W        W99430   2.090  13.032   8.126  0.0514 -0.2354 -0.0816
56378W        W99431  20.948   3.099  27.961  0.0888  0.0521 -0.1260
56379W        W99432  22.030  11.136   8.897 -0.2001 -0.2877  0.0478
56380W        W99433  34.097  20.266  27.966 -0.0191 -0.2720 -0.1421
56381W        W99434  11.864   7.740  28.429 -0.1775 -0.2552 -0.0277
56382W        W99435  10.632  17.631  25.025 -0.3597 -0.0457  0.1029
56383W        W99436  21.719   5.731  19.700 -0.0969 -0.0642 -0.0729
56384W        W99437   5.608  25.585  23.312  0.0778 -0.3331  0.0471
56385W        W99438  13.198  17.103  23.544  0.1130  0.0429 -0.1319
56386W        W99439  12.330   8.397  20.846 -0.2035 -0.1476  0.1565
56387W        W99440   0.028  20.607  21.473  0.3507  0.0525 -0.1118
56388W        W99441  14.318  33.309  21.747  0.1767 -0.3536 -0.0437
56389W        W99442   6.887  27.476   0.086 -0.2426 -0.1707  0.0852
56390W        W99443  20.113   7.669  20.765  0.0417  0.0776 -0.0691
56391W        W99444  16.045   3.109  24.872 -0.1230 -0.3015  0.2624
56392W        W99445  13.503  11.185  18.998 -0.0591 -0.0055 -0.0355
56393W        W99446  27.611  13.886  25.819 -0.4680  0.4122  0.0906
56394W        W99447   7.747  21.064   5.480 -0.0204  0.2786  0.0064
56395W        W99448  21.675  13.048   1.770  0.1156  0.0452  0.0813
56396W        W99449   5.859   0.116  16.253 -0.0449  0.2213  0.2395
56397W        W99450   8.268  25.945   8.673  0.1165 -0.1250  0.0883
56398W        W99451  33.018   6.113   3.889  0.1222 -0.1013  0.1801
56399W        W99452   2.875  30.133  25.577  0.0391 -0.3064 -0.0063
56400W        W99453  18.915  17.120  13.591 -0.0533  0.3308 -0.3529
56401W        W99454  22.132   5.602  20.634 -0.0327  0.1442 -0.0776
56402W        W99455   5.883  12.230   4.599  0.0636  0.1348 -0.0805
56403W        W99456  16.996  28.178   4.502 -0.2739  0.5878  0.0849
56404W        W99457  30.390   4.906  24.572 -0.1116 -0.0911  0.3099
56405W        W99458  14.555  27.400  15.045 -0.3259 -0.2487 -0.0802
56406W        W99459   6.910  16.681  24.064 -0.2850  0.0294 -0.0386
56407W        W99460   8.182  23.228   5.950 -0.2086  0.1131  0.2398
56408W        W99461   8.240   4.614  19.870  0.0692 -0.0022  0.1608
56409W        W99462  18.992   0.453  17.960  0.1556  0.1914  0.0605
56410W        W99463  24.023  22.868  22.386  0.2435  0.0027  0.0677
56411W        W99464  18.678  12.544  17.809 -0.0799  0.1822  0.0436
56412W        W99465   9.677   9.440  16.434  0.1532  0.0720 -0.3990
56413W        W99466  12.253   5.639  22.503  0.1943 -0.0222 -0.0030
56414W        W99467  18.617  15.405   3.179  0.2820  0.0120  0.0437
56415W        W99468  33.562   9.630  15.153 -0.1539  0.1328  0.1949
56416W        W99469  23.431   4.165   8.380  0.0145 -0.0014  0.0820
56417W        W99470  23.822  13.110  16.438 -0.0232  0.3789 -0.6213
56418W        W99471  27.798   7.507   0.122 -0.0526 -0.3807 -0.0082
56419W        W99472   3.003   0.449  28.515  0.0925  0.0527 -0.0470
56420W        W99473  16.484  14.422  27.581 -0.1646 -0.0811 -0.2755
56421W        W99474   2.060  20.532  18.362  0.0049  0.1162 -0.0872
56422W        W99475  32.802   8.842  22.395 -0.0308  0.0578  0.2287
56423W        W99476   6.092  24.944   9.443 -0.0255 -0.1251  0.2514
56424W        W99477  17.260   0.588   7.096  0.0121 -0.1034 -0.3210
56425W        W99478  21.109  13.511  28.798  0.2377  0.0130  0.1418
56426W        W99479  12.267   9.574  26.326 -0.3079  0.2275 -0.0529
56427W        W99480  23.269  30.708   1.823 -0.1790 -0.0759  0.1950
56428W        W99481  30.590   0.704   7.666  0.0314 -0.0435  0.1756
56429W        W99482   3.762  22.725  17.747 -0.0480 -0.2156 -0.0750
56430W        W99483   8.877  12.920   8.260 -0.0827  0.0795 -0.0328
56431W        W99484  21.019   6.817   0.742 -0.2599  0.0710  0.3037
56432W        W99485  24.505  19.245  19.449 -0.0152  0.0380  0.1128
56433W        W99486  13.450   0.521   8.610 -0.1351 -0.1237  0.2415
56434W        W99487   4.650  30.224  24.869 -0.2387  0.1936  0.0541
56435W        W99488  10.774  15.153  10.855 -0.4137  0.1315 -0.1640
56436W        W99489  23.136  16.622  21.724  0.2650 -0.1051  0.1402
56437W        W99490  28.428   8.484  26.212 -0.0954 -0.2483  0.2055
56438W        W99491   8.610  10.579  18.096 -0.0152 -0.2946 -0.3558
56439W        W99492  16.456  14.395  22.684  0.1269  0.1033 -0.1330
56440W        W99493  30.865   5.746  25.940  0.2077 -0.0600 -0.1388
56441W        W99494  34.679  15.141   6.507  0.0660 -0.3442 -0.1196
56442W        W99495   8.526  32.774   5.373  0.2298 -0.0394 -0.2319
56443W        W99496  21.874   2.573   8.567  0.0703  0.0567 -0.1039
56444W        W99497  15.471  27.889   7.787  0.1336 -0.2526 -0.0260
56445W        W99498  33.359  22.445  28.915  0.3493 -0.3794  0.0617
56446W        W99499  19.279  30.514  15.523 -0.2277  0.2745 -0.1073
56447W        W99500  23.302  14.936  25.443 -0.1577 -0.0861 -0.1890
56448W        W99501  18.583  31.835   0.048 -0.1243 -0.0447  0.1060
56449W        W99502  10.034   5.039  23.559  0.2711 -0.1166 -0.1372
56450W        W99503  17.883  15.890  13.012  0.2076 -0.0212 -0.0722
56451W        W99504   8.836  11.567   7.725 -0.0161 -0.1533 -0.2218
56452W        W99505  17.350  20.028   6.556  0.2323 -0.0095  0.0426
56453W        W99506  27.682  18.894  15.388  0.2295  0.3000 -0.0494
56454W        W99507   8.441  12.341   2.499  0.3399  0.1080 -0.0459
56455W        W99508  31.547  32.498  24.271 -0.2046 -0.0438 -0.1500
56456W        W99509  14.644   8.129  20.328 -0.0646 -0.1510 -0.5005
56457W        W99510   6.998  23.213  15.836 -0.1426  0.0736  0.0606
56458W        W99511   0.398   0.437   4.483 -0.1005 -0.0363  0.0211
56459W        W99512  24.010  18.464   5.511 -0.1369 -0.2265  0.1362
56460W        W99513   2.486  16.985  17.179 -0.0129 -0.0072 -0.1557
56461W        W99514  10.050   9.263  17.754 -0.2108 -0.0715 -0.0801
56462W        W99515  17.650   9.219  19.121 -0.1225  0.0356  0.2486
56463W        W99516  13.232  18.335  17.115  0.2087 -0.1991 -0.1871
56464W        W99517  32.977   4.856  18.076  0.2090 -0.1721 -0.0206
56465W        W99518   6.990   7.366   9.578 -0.1507 -0.0419  0.1658
56466W        W99519  14.890   2.095   0.702 -0.0949  0.2676  0.3224
56467W        W99520   4.390  13.645  26.669  0.3523 -0.2522  0.0878
56468W        W99521   2.684   7.862  15.889 -0.0987  0.0527  0.2085
56469W        W99522  21.305  32.941   8.749 -0.1731 -0.0508 -0.0472
56470W        W99523  32.759  13.181  13.868 -0.0417 -0.0836  0.1250
56471W        W99524  12.125  17.140  25.242  0.3981  0.2003 -0.1943
56472W        W99525  31.932  18.364   1.878 -0.0310 -0.0342  0.0359
56473W        W99526   0.133  27.570  25.993 -0.0290 -0.3266  0.0982
56474W        W99527   4.843  21.014  18.026 -0.0777 -0.0716 -0.0209
56475W        W99528   8.814  20.148   7.505  0.0283  0.2610  0.0500
56476W        W99529   5.152  10.307  17.711  0.1168  0.0273  0.1003
56477W        W99530   0.551   5.875  26.595 -0.0096 -0.1191  0.2189
56478W        W99531   9.724  16.450  18.773 -0.2857  0.0496  0.0868
56479W        W99532   8.809  21.159  22.719  0.1769 -0.2031  0.1872
56480W        W99533   9.706   0.493   7.598 -0.1914 -0.3096  0.2294
56481W        W99534   1.500  15.765  14.230  0.1308  0.1047  0.0121
56482W        W99535  17.352  21.045  27.870  0.1588 -0.2933  0.0369
56483W        W99536  21.282  13.779  19.723  0.0884  0.0955 -0.0245
56484W        W99537  24.152  11.795  24.564 -0.1054 -0.1893 -0.1874
56485W        W99538  20.711  19.720   5.321 -0.0472  0.3090 -0.2003
56486W        W99539   5.418  29.468  13.328  0.1462  0.2380 -0.1763
56487W        W99540  11.486   4.481   8.377 -0.1810 -0.0770 -0.2291
56488W        W99541  21.849  30.874  27.885 -0.0371  0.2218 -0.1767
56489W        W99542  18.208  13.141   0.491 -0.2351  0.2537 -0.4460
56490W        W99543  15.673  19.828  24.351 -0.0899 -0.1829  0.1562
56491W        W99544  13.229  33.112   2.672 -0.3954  0.1174 -0.3239
56492W        W99545  11.792   6.647  15.388  0.2659 -0.1613  0.0995
56493W        W99546  14.377   1.937  19.611  0.0404  0.0947  0.1815
56494W        W99547   4.916   2.758  23.209  0.3090  0.2142 -0.3341
56495W        W99548   2.374   7.281   1.148 -0.1194 -0.2638 -0.1963
56496W        W99549  11.597   0.990   7.409  0.0904  0.0746  0.0458
56497W        W99550  13.231   1.621  24.767  0.0582  0.0028 -0.1104
56498W        W99551  23.826  21.390   0.935 -0.1138  0.0046 -0.2902
56499W        W99552  18.415   9.453  26.320 -0.0293 -0.0080  0.0309
56500W        W99553   7.904  19.579  24.087  0.0833 -0.3149 -0.0985
56501W        W99554   3.387  17.039  27.374 -0.2557 -0.0555 -0.0756
56502W        W99555  10.657   5.453  26.408  0.1051 -0.0786 -0.1605
56503W        W99556  28.768  27.811  25.808 -0.3126 -0.0206  0.1454
56504W        W99557  20.368   8.967  14.297 -0.0137 -0.2847 -0.0754
56505W        W99558   5.714  26.024  19.869  0.0932  0.3195 -0.0738
56506W        W99559  34.390  20.017   8.884 -0.4658  0.0206 -0.0887
56507W        W99560  23.653  21.855  14.359 -0.0968 -0.1811 -0.0812
56508W        W99561   4.367  16.373  19.945  0.2314  0.1112  0.0498
56509W        W99562  14.710  13.245  15.957 -0.1776 -0.0450 -0.0064
56510W        W99563   5.285  21.784  28.995  0.0414 -0.1687 -0.0212
56511W        W99564  14.579  16.060  27.911  0.0344 -0.0238 -0.0919
56512W        W99565  10.838   6.693  24.260  0.0204 -0.2036  0.1093
56513W        W99566   3.772  12.416  25.851 -0.2138 -0.0763  0.3807
56514W        W99567   0.368   9.430  18.020  0.0603  0.0657 -0.1086
56515W        W99568  10.972  15.709  23.618  0.0338  0.0614  0.0795
56516W        W99569  18.341  10.379   4.529 -0.2446 -0.2654  0.0644
56517W        W99570  19.475   8.413   7.386 -0.1200 -0.0393 -0.2631
56518W        W99571  23.197   1.163  20.221  0.0053  0.3236  0.0459
56519W        W99572  34.544  25.656  17.495  0.0542 -0.1635 -0.1732
56520W        W99573  10.376  30.794   0.092  0.1079  0.1079  0.3733
56521W        W99574  18.035  23.492  16.468  0.1240 -0.1011  0.2663
56522W        W99575  19.278   4.516  24.061  0.1261 -0.3615 -0.1432
56523W        W99576  22.063   3.964   1.300  0.1133  0.2099  0.0144
56524W        W99577  26.952   5.417  15.692 -0.0847 -0.2593 -0.0943
56525W        W99578  12.040  29.611  25.526  0.0758 -0.0844  0.0443
56526W        W99579  20.877  19.897   4.458 -0.0454  0.3686 -0.0349
56527W        W99580  22.034  10.274  19.011 -0.2564 -0.2013  0.0571
56528W        W99581  29.995   5.185  25.074  0.2186  0.0414  0.0530
56529W        W99582  14.140   3.361  19.451 -0.0314  0.0007 -0.0286
56530W        W99583   4.084  12.339  23.423 -0.2647  0.0460 -0.3926
56531W        W99584   8.685  15.961  15.315  0.0108  0.3432  0.0682
56532W        W99585  28.738  13.382  21.875 -0.0679  0.1536 -0.1071
56533W        W99586  14.783   2.371   5.702  0.0143 -0.1495  0.0031
56534W        W99587  20.115   6.125  28.213 -0.2622  0.5055 -0.2389
56535W        W99588  20.925  10.023  14.782  0.0995  0.1737 -0.2414
56536W        W99589   7.268  11.715   1.676  0.2202 -0.0969 -0.0882
56537W        W99590  10.251  34.682  26.702 -0.1506  0.0646  0.1234
56538W        W99591  15.216   9.637   5.589  0.0194 -0.0307  0.3530
56539W        W99592  11.565   5.591   8.230  0.2047 -0.2072  0.0952
56540W        W99593  12.960   8.673   7.768  0.2035  0.0780  0.0977
56541W        W99594  11.125  13.053   1.272 -0.0600  0.1545  0.1382
56542W        W99595   5.024   6.969   6.412 -0.0375  0.1893 -0.1286
56543W        W99596   7.784  10.561   6.177 -0.0519  0.1429 -0.0115
56544W        W99597  10.584  12.046   3.977  0.3369 -0.0163  0.0913
56545W        W99598  32.368  20.374  22.035  0.0504  0.0875  0.0914
56546W        W99599  15.155   5.296   1.087  0.0016 -0.1927  0.0091
56547W        W99600   3.420  11.522  15.104 -0.0489  0.1143  0.2190
56548W        W99601  14.002  19.867  19.526  0.1210  0.1621 -0.1122
56549W        W99602  10.718   8.544   5.183  0.1186 -0.1954  0.2001
56550W        W99603  15.513  22.719  25.143  0.1874 -0.0903  0.1555
56551W        W99604  14.067  34.602   7.088  0.1526  0.2563 -0.1401
56552W        W99605  11.740   8.738  10.050 -0.1110 -0.2125 -0.1381
56553W        W99606   3.683  16.355   1.529  0.4051  0.0787 -0.0352
56554W        W99607  13.077   5.824   0.937 -0.4181 -0.1767 -0.3347
56555W        W99608  14.974  18.951  26.541 -0.1598 -0.2767 -0.1881
56556W        W99609   7.295   0.882  19.608  0.1799 -0.1079 -0.2847
56557W        W99610  14.537  19.322  24.650  0.0553  0.0093 -0.2184
56558W        W99611  32.097  27.271   6.241  0.2422 -0.0942 -0.0469
56559W        W99612  10.552  20.920   9.178 -0.0360  0.1213  0.2965
56560W        W99613  10.430   6.516  15.563 -0.0838 -0.0840 -0.0808
56561W        W99614  11.078   8.091   5.220  0.1099  0.0238  0.1630
56562W        W99615  12.236   4.403  21.063  0.1261  0.0425 -0.2450
56563W        W99616  12.878  17.881  19.431  0.3396 -0.1251 -0.0829
56564W        W99617  13.645  14.442  23.169 -0.2004  0.0833 -0.2708
56565W        W99618  15.575   5.568  16.995 -0.1339  0.0106  0.2638
56566W        W99619  11.492  31.930  15.293 -0.1503  0.1080 -0.4612
56567W        W99620  13.452   9.360  17.370  0.1362  0.1761 -0.1063
56568W        W99621  14.813   4.377  25.164 -0.2435 -0.0046  0.2413
56569W        W99622  25.189  33.844  20.824  0.2932 -0.1073 -0.1877
56570W        W99623  15.210  20.173  21.432  0.0993  0.0529  0.0187
56571W        W99624  13.388  17.115   6.838 -0.0556  0.1335  0.1862
56572W        W99625  14.128  29.084   1.892 -0.4018 -0.1429 -0.0142
56573W        W99626   4.867  26.450  27.454 -0.2350  0.0262  0.0391
56574W        W99627  22.115   7.295   2.837 -0.0269  0.2098  0.2194
56575W        W99628  21.592   6.568  25.046  0.1956 -0.1491  0.0145
56576W        W99629  11.657  15.458  23.136  0.0520 -0.0514 -0.0379
56577W        W99630  14.087  25.441   6.163 -0.1250  0.0544  0.2051
56578W        W99631   5.258  23.888  16.086  0.1074  0.0254 -0.1785
56579W        W99632  11.413   5.691  24.935  0.0507 -0.2030 -0.0907
56580W        W99633  27.152   2.717  20.770 -0.4153 -0.2325  0.2311
56581W        W99634   2.551   3.612  18.301 -0.0738 -0.0146 -0.1015
56582W        W99635  33.241   0.097  14.983  0.1189 -0.1481 -0.0919
56583W        W99636  29.410  13.100  20.340 -0.0792 -0.1577  0.0280
56584W        W99637   0.748   9.723  20.141 -0.0064  0.1524 -0.1037
56585W        W99638  21.090  16.753   9.786 -0.0379 -0.0691  0.0227
56586W        W99639  21.941  10.665  29.026 -0.3886  0.2626 -0.2358
56587W        W99640   2.176   2.440  25.847  0.1947 -0.1370  0.2694
56588W        W99641   6.065   1.174  28.963 -0.2718 -0.1213 -0.5229
56589W        W99642  25.443  25.862  27.256  0.2995 -0.1863 -0.0646
56590W        W99643  12.040  22.610   4.571 -0.2329 -0.0640  0.5058
56591W        W99644   5.315   6.316   8.276  0.0204  0.1311 -0.2786
56592W        W99645  17.355  23.023  19.434  0.0333 -0.2217  0.2192
56593W        W99646   9.792  34.552   5.521  0.2509  0.0184  0.1790
56594W        W99647   3.376   2.692   1.868  0.0768 -0.0040 -0.1159
56595W        W99648  16.201  15.246  23.233  0.3349 -0.4452 -0.1224
56596W        W99649  17.305   6.793  17.699  0.1364 -0.1160  0.0524
56597W        W99650  17.020  32.101   1.819  0.1664  0.0195  0.0408
56598W        W99651  18.354  24.576   1.725  0.0562  0.0709 -0.0437
56599W        W99652  18.743  11.015  23.565  0.1178  0.0721  0.0574
56600W        W99653  20.206   7.254   4.144  0.4838  0.1883  0.2406
56601W        W99654   0.182  13.834  19.083 -0.1346 -0.0952 -0.3373
56602W        W99655  27.316   4.698  24.863 -0.1118  0.2433  0.0112
56603W        W99656  13.364  22.426  13.852  0.1325 -0.1733  0.1966
56604W        W99657  25.274   9.963   9.634 -0.2002 -0.0583 -0.1548
56605W        W99658  21.358   8.130  28.933 -0.0788 -0.3208 -0.2129
56606W        W99659   6.131   9.184   9.000  0.1493  0.1935 -0.0285
56607W        W99660  15.544   7.910   9.729 -0.0672  0.0040 -0.2038
56608W        W99661   9.371  12.392  18.366 -0.1103 -0.3583 -0.0857
56609W        W99662  18.481  16.676   6.382  0.0674 -0.1717  0.0774
56610W        W99663  16.639   6.179  22.971  0.1357 -0.2495 -0.0995
56611W        W99664  20.627  25.315  17.059 -0.1050 -0.2051  0.2389
56612W        W99665  22.715  30.266  20.293 -0.0788  0.1607 -0.2088
56613W        W99666   2.677  20.526   8.358  0.0083 -0.6275  0.2277
56614W        W99667  17.518  32.522  22.486  0.0513  0.1128 -0.0784
56615W        W99668   5.497   1.382   1.612  0.2144  0.0256 -0.0080
56616W        W99669  33.661   7.844  14.428 -0.2389 -0.0775 -0.2571
56617W        W99670   3.824  17.720   1.513 -0.0435 -0.0786 -0.0749
56618W        W99671  28.101   6.165  28.355 -0.1153  0.4438 -0.0521
56619W        W99672   2.514   1.113  21.915 -0.1775  0.0658  0.2989
56620W        W99673  17.556  29.030   3.228 -0.0457 -0.0398  0.1177
56621W        W99674  17.567   6.148   5.395  0.2774 -0.1376  0.0258
56622W        W99675   3.834  25.411  14.152 -0.0518 -0.1878  0.0951
56623W        W99676  24.392  30.873   0.010  0.0609  0.0346 -0.3443
56624W        W99677  12.582   2.684   1.181 -0.1831 -0.2989 -0.0981
56625W        W99678   9.535  21.297  18.114  0.0938  0.2011 -0.3467
56626W        W99679  19.949   9.757   1.867 -0.0294  0.0284  0.0531
56627W        W99680  19.415   7.839  26.191  0.0774 -0.0750  0.0681
56628W        W99681   7.795  25.936  25.988  0.0347 -0.0032 -0.1546
56629W        W99682  10.913  21.941  20.934 -0.2074 -0.1938  0.4297
56630W        W99683  18.356   5.874  28.197  0.2448 -0.3477 -0.1363
56631W        W99684  13.146   5.425  25.119 -0.5885  0.0376 -0.1289
56632W        W99685  19.591   6.188  18.076 -0.1028 -0.0831  0.0963
56633W        W99686  14.739   2.693  18.945 -0.3452 -0.1455 -0.0187
56634W        W99687   6.468  10.938  27.416  0.0925  0.0569 -0.0639
56635W        W99688   6.150  14.143   4.976 -0.1662 -0.0346 -0.2144
56636W        W99689   6.820  10.983  22.246  0.2869  0.1787  0.2622
56637W        W99690  29.358  14.025  19.735  0.0104 -0.3081 -0.3351
56638W        W99691  16.660   0.649   5.891 -0.3566 -0.0106 -0.0362
56639W        W99692   1.216  15.272   3.634 -0.2066 -0.3348  0.1333
56640W        W99693  33.864   2.655   5.934 -0.1360  0.1323  0.1190
56641W        W99694   8.648  15.476   4.194 -0.1372 -0.2413  0.3017
56642W        W99695  25.750  13.702  28.895 -0.3720  0.0399 -0.0814
56643W        W99696  17.109  17.471  23.598 -0.2972  0.0809 -0.1799
56644W        W99697  10.972   8.837  10.760 -0.1502  0.0158  0.1694
56645W        W99698  22.990   0.064  20.997 -0.0296 -0.0890  0.0884
56646W        W99699   9.698  24.972  15.080  0.1281 -0.0512  0.1111
56647W        W99700  16.209  13.357  20.869 -0.0567  0.0174 -0.2025
56648W        W99701  13.397  23.074  16.880 -0.1653 -0.0352  0.1235
56649W        W99702  11.643   1.283   6.079  0.2431 -0.1501  0.1587
56650W        W99703   9.246   2.863   1.055 -0.5267 -0.0891 -0.0049
56651W        W99704   7.410  21.839  20.153 -0.4303 -0.1775  0.3304
56652W        W99705  25.888  14.343   4.077 -0.1850 -0.1396 -0.0816
56653W        W99706  16.536   1.200  27.530 -0.0590  0.2308 -0.2093
56654W        W99707   8.121   2.145  20.712  0.3909  0.0560  0.1661
56655W        W99708  13.825   7.354  11.103  0.3140  0.0275 -0.1554
56656W        W99709  22.058  12.711  22.059  0.2459  0.0599  0.2852
56657W        W99710  11.072  12.151  27.678 -0.0053  0.0956 -0.0782
56658W        W99711   6.965   6.991   7.817 -0.1066 -0.1206  0.0557
56659W        W99712  18.639  24.219  26.215  0.1760 -0.1774 -0.2197
56660W        W99713   8.245  20.410   9.699  0.2394 -0.1425 -0.2685
56661W        W99714  16.747   7.897  27.106  0.1207  0.2277 -0.1351
56662W        W99715  27.356   9.733   5.495  0.0992 -0.1832 -0.5523
56663W        W99716  34.307  14.063  24.199  0.1792 -0.1477 -0.0842
56664W        W99717   7.162  15.344   0.822  0.4076  0.0876  0.2065
56665W        W99718  23.005  32.300  21.988 -0.1209  0.2562  0.1343
56666W        W99719   7.439  10.690   1.310 -0.1629 -0.0110  0.1702
56667W        W99720  24.260  19.405  18.805 -0.0695 -0.0113 -0.0181
56668W        W99721   7.845  14.195  25.774  0.1866  0.1315 -0.1906
56669W        W99722   7.903  21.023   0.207  0.1499  0.0791 -0.1471
56670W        W99723  32.961   5.578  24.077 -0.0108  0.0579  0.1972
56671W        W99724  29.975  27.816  22.142  0.0087  0.1320  0.0828
56672W        W99725  10.048  11.786  21.595 -0.0457 -0.0702  0.1886
56673W        W99726  32.888  30.731   0.237 -0.2139  0.0216 -0.2363
56674W        W99727  33.172   8.511   6.367  0.1832 -0.0216 -0.1394
56675W        W99728   7.094  28.611  28.581  0.0272  0.1840  0.0945
56676W        W99729   9.026   5.662  16.679 -0.2256 -0.0567 -0.0562
56677W        W99730   6.697   8.328  28.533 -0.0892  0.1995 -0.0071
56678W        W99731  21.370   2.450  18.247 -0.1575 -0.0938  0.1362
56679W        W99732   5.311  17.376  24.762  0.0336 -0.1119  0.1852
56680W        W99733   6.953  27.729  22.561 -0.3593 -0.0216  0.2881
56681W        W99734   1.117  12.037  20.537  0.2746 -0.1171 -0.1581
56682W        W99735  22.901  15.181   2.492 -0.3609 -0.1833  0.0163
56683W        W99736  31.639  15.754   7.321  0.1821 -0.1544 -0.1202
56684W        W99737  10.778  12.823   2.525  0.2199 -0.0343  0.3493
56685W        W99738  25.815  27.175  24.749  0.1120  0.2058 -0.2977
56686W        W99739   2.501  12.554  22.312  0.0945 -0.0742 -0.0627
56687W        W99740  12.920  11.527  20.597 -0.0430  0.1205  0.0897
56688W        W99741  17.006  23.261  21.848 -0.1188 -0.0335 -0.0068
56689W        W99742  11.894  33.721   1.215  0.0224  0.1611 -0.1424
56690W        W99743  22.245  24.107  19.277 -0.0790  0.1077 -0.1401
56691W        W99744  11.893   1.183  26.109 -0.1600 -0.0825  0.0791
56692W        W99745   9.076   2.279  14.793  0.1937 -0.0788  0.1627
56693W        W99746   7.422  12.153  15.410  0.0235 -0.0301  0.0167
56694W        W99747   6.164  28.376  25.576 -0.1059  0.0697 -0.1588
56695W        W99748  10.534   6.627  15.087 -0.1810  0.1471 -0.1193
56696W        W99749   7.674   9.590  26.519  0.0722 -0.1144 -0.0168
56697W        W99750  17.482  13.874  27.239  0.1242 -0.0717  0.0719
56698W        W99751   6.151  31.439  21.212 -0.0396  0.5604 -0.1357
56699W        W99752  16.274  30.183  17.854  0.0271  0.1527 -0.0317
56700W        W99753  21.586  12.606   3.402 -0.0963 -0.0351  0.1774
56701W        W99754  16.417  21.143  29.002 -0.2131 -0.0067 -0.0109
56702W        W99755   3.338  21.899   9.600  0.0394 -0.0138 -0.1656
56703W        W99756   7.104  25.617  16.904  0.1598  0.2611 -0.1596
56704W        W99757   5.967  29.962  18.467 -0.4429  0.0486  0.2302
56705W        W99758  12.779   4.448  16.082 -0.3086  0.0744  0.1180
56706W        W99759   1.582  11.655  28.919 -0.0445 -0.0048  0.1805
56707W        W99760  33.932  15.774  13.512 -0.4002  0.1862  0.0173
56708W        W99761  18.355  12.335  26.967  0.0835  0.3145  0.0289
56709W        W99762  10.465   3.074  19.309  0.3389 -0.1745 -0.4914
56710W        W99763  32.721   9.587   0.127 -0.1967  0.0232 -0.0210
56711W        W99764  10.319  13.391  16.930  0.0497 -0.0220  0.0639
56712W        W99765  18.766  15.550  28.489  0.1177 -0.0866 -0.0652
56713W        W99766  13.587  30.404  15.811 -0.2040 -0.1409  0.4906
56714W        W99767   8.165  11.611  20.588 -0.0110 -0.3242  0.2719
56715W        W99768   9.994   8.836  15.589  0.3003 -0.0216  0.1339
56716W        W99769  12.174  15.130  19.658  0.2955  0.1783  0.1631
56717W        W99770  22.789  13.975  16.420 -0.1114 -0.0649  0.2150
56718W        W99771  15.980   2.086  26.428 -0.3410  0.1606 -0.1897
56719W        W99772   1.151  27.643  27.123  0.3734  0.0586  0.0874
56720W        W99773  32.481  31.831  15.184  0.0199  0.1420 -0.0656
56721W        W99774  32.293  25.365  17.295 -0.0772 -0.1479 -0.0041
56722W        W99775   9.113  19.363  19.236  0.2252  0.1796  0.0998
56723W        W99776   7.139  19.479  23.636 -0.0813  0.0792 -0.1749
56724W        W99777   9.784   9.315  17.033  0.2172  0.0491 -0.1014
56725W        W99778  22.039   1.479  15.519  0.3723  0.0224  0.0039
56726W        W99779  11.373  11.554  17.342 -0.1490  0.2262 -0.0613
56727W        W99780   8.269  14.289  22.004 -0.0140 -0.4551  0.1682
56728W        W99781  30.871  18.103  25.983 -0.0504  0.3158 -0.1900
56729W        W99782  18.904   5.385  26.101 -0.0220  0.1563  0.0588
56730W        W99783   0.477   1.872  19.209  0.0081  0.1730  0.1235
56731W        W99784  12.652   7.433  16.687 -0.1008 -0.1761  0.0215
56732W        W99785  19.881  20.951  15.542  0.0576  0.0390  0.0507
56733W        W99786  25.851  17.455  16.426 -0.1357  0.1081 -0.0572
56734W        W99787  31.104  32.965  20.745 -0.2521  0.0953 -0.4340
56735W        W99788  14.287   5.942  14.869 -0.1311  0.0925  0.3031
56736W        W99789  23.317   3.194  16.829  0.2977  0.0173  0.2482
56737W        W99790  13.984  24.296  16.002  0.1926 -0.1598 -0.0597
56738W        W99791   1.460  23.192  18.701 -0.3193 -0.0582  0.1238
56739W        W99792  22.922  16.149   7.406 -0.1514  0.1410  0.1353
56740W        W99793  12.368  13.538  24.463 -0.1898  0.4497 -0.1615
56741W        W99794  10.263  18.731  21.286 -0.1673 -0.5075  0.0676
56742W        W99795  16.801   9.715  27.121 -0.0089 -0.1486  0.1096
56743W        W99796  14.274  32.269  26.813  0.1628  0.1099 -0.2294
56744W        W99797  21.758  15.689  19.728  0.4276 -0.0358  0.0631
56745W        W99798  20.674  13.960  14.431  0.3495  0.1929  0.0936
56746W        W99799  12.746  12.671  16.888 -0.2946  0.1479 -0.0190
56747W        W99800  29.393  10.837  18.158  0.1567 -0.0803 -0.2267
56748W        W99801  15.206   3.687  17.474  0.1485 -0.2605  0.3250
56749W        W99802  13.676  18.942  20.246  0.0404 -0.0433  0.1939
56750W        W99803  15.509  18.234  14.258 -0.0988  0.0737  0.1387
56751W        W99804  13.676  21.408   9.964 -0.2028  0.0916 -0.3484
56752W        W99805  15.580  13.777  16.191 -0.3454 -0.0768 -0.1264
56753W        W99806   6.164   4.712  28.656 -0.2143  0.2860 -0.4814
56754W        W99807  12.327  20.941  14.946  0.0027  0.0782 -0.1573
56755W        W99808  13.493  31.857  16.568 -0.0924 -0.1401  0.1701
56756W        W99809  13.715  32.782  26.191  0.0404 -0.3286 -0.3605
56757W        W99810  16.661   6.991   4.326 -0.0826 -0.0322 -0.0803
56758W        W99811   7.384  20.897  16.908 -0.0257  0.1414  0.0078
56759W        W99812  13.486   6.173  15.632  0.2634  0.1964  0.4043
56760W        W99813  14.690  21.868  27.516  0.0190 -0.1941  0.1379
56761W        W99814  20.253  19.514  19.353  0.0895  0.3015 -0.0979
56762W        W99815  30.483  26.122  13.633  0.1001 -0.0742  0.2361
56763W        W99816   6.633   6.478  26.977  0.1127  0.0208 -0.1546
56764W        W99817  12.602  16.566   2.297 -0.1490 -0.0290 -0.3241
56765W        W99818  26.340   1.043  19.534  0.0809  0.0629  0.0021
56766W        W99819  11.778  28.032  24.311 -0.1787 -0.2331 -0.0432
56767W        W99820   1.063   7.775  13.526  0.0920  0.0041 -0.0838
56768W        W99821   7.293  13.809  24.226 -0.1786  0.0948  0.1487
56769W        W99822   5.246  32.450  15.960  0.1003  0.0941 -0.2814
56770W        W99823  17.207   4.837  19.685 -0.0625  0.0244 -0.1270
56771W        W99824   7.189  22.044  16.562  0.2433 -0.0393  0.3295
56772W        W99825   9.984  16.182  20.560 -0.1089 -0.3894  0.2117
56773W        W99826   5.608  21.795  19.572 -0.1704 -0.0154 -0.1778
56774W        W99827  15.500  16.180   4.074 -0.0774 -0.0009  0.1914
56775W        W99828  22.498  23.650  16.068  0.1056 -0.2755 -0.0053
56776W        W99829  33.575  26.985   0.965 -0.1576 -0.0227 -0.2520
56777W        W99830  21.085  16.396  19.393  0.2925 -0.0695 -0.1697
56778W        W99831  26.832  23.045   0.284  0.1081  0.1311  0.3194
56779W        W99832  20.412  30.445  16.941  0.0538  0.2326 -0.2130
56780W        W99833  28.561  15.402  14.102  0.2155  0.3045  0.1359
56781W        W99834  31.567  23.171  21.128  0.0115 -0.3241 -0.0587
56782W        W99835   5.676   6.504  14.914 -0.1261 -0.1504  0.3153
56783W        W99836  16.644  23.511  23.401 -0.1885  0.0169 -0.1287
56784W        W99837  17.637   9.304  22.351 -0.3898  0.0359 -0.0003
56785W        W99838  30.468  16.597  19.906 -0.0463  0.1795 -0.0865
56786W        W99839  23.295  14.101  14.517 -0.0282 -0.0210  0.0775
56787W        W99840  11.078   7.254  21.931  0.0775 -0.0552  0.1971
56788W        W99841  29.933  16.263  20.321 -0.0319  0.1447 -0.0642
56789W        W99842  13.637   6.771  16.365 -0.1317 -0.3148  0.3055
56790W        W99843  13.815   8.724  23.302 -0.3083 -0.0252  0.1928
56791W        W99844   9.568  11.879   1.545 -0.0758 -0.4524 -0.0018
56792W        W99845  34.107  27.214  14.050 -0.0448  0.0746  0.0291
56793W        W99846   5.507   7.118   3.355 -0.1928  0.2806  0.2676
56794W        W99847  18.481  25.279  24.574 -0.2702  0.0115  0.0630
56795W        W99848  14.239   5.674  16.854  0.1005 -0.2391 -0.4437
56796W        W99849   9.414  19.585  22.561  0.1278  0.0427 -0.2631
56797W        W99850   4.843  31.090  17.101  0.3648 -0.2878 -0.0957
56798W        W99851  11.417  20.306   0.692 -0.1993 -0.1489 -0.1819
56799W        W99852   3.150  17.236  26.031 -0.0676 -0.2127  0.1576
56800W        W99853  24.257  17.432  23.729  0.1235 -0.1980 -0.3757
56801W        W99854  13.911   5.416  26.756  0.2351 -0.1298  0.0478
56802W        W99855  12.244  19.019  19.981 -0.0746 -0.0931 -0.0434
56803W        W99856  18.208  13.621  14.822 -0.3664  0.0939  0.0082
56804W        W99857  20.390   3.673  18.179 -0.2713  0.2509  0.1653
56805W        W99858  23.621   3.419  22.223 -0.0399  0.1087  0.1447
56806W        W99859  11.575   1.278  25.557  0.1388  0.2734  0.0772
56807W        W99860   3.412   8.670  21.028  0.2988  0.0751  0.2461
56808W        W99861   6.309   6.672  19.870  0.1664 -0.2571 -0.1001
56809W        W99862  10.916  18.602  14.410  0.0526 -0.1805  0.1791
56810W        W99863   1.878  27.822  15.471  0.1064  0.0599  0.0781
56811W        W99864  34.587  32.360  15.461 -0.0751 -0.3559 -0.0280
56812W        W99865  30.560   9.895   6.075  0.0226  0.0510  0.1720
56813W        W99866   6.056  34.376  20.153 -0.0588 -0.0877  0.0338
56814W        W99867   9.121  26.539  14.519 -0.4472  0.1272  0.1376
56815W        W99868   1.114   2.660  16.566  0.1294 -0.3623  0.0871
56816W        W99869   5.504  24.377   4.408 -0.1677  0.2248  0.2940
56817W        W99870   0.050  21.426   2.791 -0.0997  0.0437 -0.0331
56818W        W99871   8.920   6.681  25.631 -0.2906 -0.0944  0.3167
56819W        W99872  17.718   7.064  28.856 -0.2444  0.1997  0.1264
56820W        W99873  19.624  14.011   1.823  0.1766  0.2629  0.0822
56821W        W99874  18.347   4.470  21.317 -0.0785 -0.3332 -0.2440
56822W        W99875  26.816   4.482  19.238  0.2150 -0.0680 -0.0884
56823W        W99876  11.536   4.563  16.904 -0.3557 -0.0374 -0.1350
56824W        W99877   8.836  12.728  19.892  0.0640 -0.2991 -0.0934
56825W        W99878  24.820  13.297  27.072  0.0539  0.0403 -0.0111
56826W        W99879  12.486  11.346  19.998 -0.0002  0.0234  0.1639
56827W        W99880  26.366  19.392  15.531  0.0163  0.0937 -0.0131
56828W        W99881  22.630  24.863  15.976 -0.1742 -0.1447 -0.1499
56829W        W99882  16.647  16.974  23.892  0.0128 -0.0382 -0.0801
56830W        W99883  15.733  13.673  22.292 -0.1172 -0.0363  0.4183
56831W        W99884  20.158  13.332  20.878  0.0264  0.1755  0.0088
56832W        W99885  10.334   9.334  27.137  0.0364 -0.0014 -0.1880
56833W        W99886   8.875  15.650  20.799  0.0109 -0.1477  0.0616
56834W        W99887   8.192   8.093  22.674  0.0545 -0.3052 -0.1481
56835W        W99888   4.333  17.324  17.470  0.1619  0.1522  0.1165
56836W        W99889  15.394  24.130  19.902 -0.0603 -0.0874  0.1374
56837W        W99890  13.049   5.305  14.400  0.0288 -0.1991  0.2046
56838W        W99891  18.777  20.533  18.142 -0.0443  0.2536  0.2254
56839W        W99892   8.656  12.910  22.875 -0.2242 -0.2964 -0.1113
56840W        W99893   7.860   4.576   2.161  0.2166 -0.1337 -0.0625
56841W        W99894   8.359  27.372  16.450 -0.0937  0.0116 -0.0943
56842W        W99895  21.816  11.939  20.523 -0.2770 -0.1830 -0.0742
56843W        W99896  21.742   3.106  18.214  0.2308 -0.1252  0.2107
56844W        W99897  11.979  20.904  17.357 -0.2207  0.0233  0.0246
56845W        W99898  23.073  18.761  22.445  0.0660  0.0775  0.0298
56846W        W99899  12.818  13.680  18.042  0.4145 -0.0508 -0.0682
56847W        W99900  10.306  18.925  19.357 -0.1675 -0.1899 -0.1577
56848W        W99901  20.496   9.517  21.662  0.0128 -0.0159  0.0787
56849W        W99902  10.961  13.687  17.728 -0.2577  0.1682  0.1251
56850W        W99903   4.135   7.380  23.293  0.1586 -0.1478  0.0975
56851W        W99904  22.657  14.330   8.196  0.0934  0.1213  0.1912
56852W        W99905  19.030  23.637  18.158 -0.1375 -0.1561 -0.1215
56853W        W99906  13.806  20.705  23.090  0.0434  0.1005 -0.0662
56854W        W99907  27.267  10.084  17.767 -0.1128 -0.2134 -0.2231
56855W        W99908  22.087  14.192  25.205  0.0216 -0.3591  0.1493
56856W        W99909   9.183  25.089  26.882 -0.1786  0.2000  0.0429
56857W        W99910   6.179  21.449  20.793 -0.1729 -0.2609 -0.1779
56858W        W99911   1.724  28.493  25.271 -0.1104 -0.2092 -0.1010
56859W        W99912  15.100  10.154  24.037 -0.1148 -0.1279  0.1122
56860W        W99913  13.339   7.715  16.649 -0.3800 -0.2910  0.3260
56861W        W99914  23.292  14.570  14.754 -0.0297  0.1127 -0.1390
56862W        W99915  18.380   4.241  17.694  0.0275  0.0057  0.1901
56863W        W99916  33.737   6.449  25.756 -0.1978  0.2057  0.0783
56864W        W99917  18.021   0.612  16.531 -0.0198  0.0490 -0.0038
56865W        W99918  22.959   6.878  23.888  0.1421  0.0165  0.2280
56866W        W99919  17.761   7.570  16.546 -0.0533 -0.1273 -0.3955
56867W        W99920  27.369  29.613  27.003  0.0440 -0.1763 -0.1136
56868W        W99921  18.561   4.688  19.842 -0.5423 -0.0987 -0.0721
56869W        W99922   4.039  18.783  23.274 -0.2149  0.0373  0.0827
56870W        W99923   3.798  30.089  26.960 -0.2840 -0.0106  0.0184
56871W        W99924  13.054  30.179  20.376  0.2072  0.0245  0.1207
56872W        W99925   8.941  12.094   2.432  0.2998 -0.3195 -0.1974
56873W        W99926   8.457  24.132  22.261  0.0322 -0.0248  0.0282
56874W        W99927   7.412  23.754  27.190 -0.1004  0.1219 -0.0454
56875W        W99928  10.439   6.868  19.494 -0.2699 -0.0791 -0.0397
56876W        W99929   9.359  25.959  15.951  0.0604 -0.0954 -0.2807
56877W        W99930  15.610   3.116  25.977 -0.0777 -0.1607 -0.0867
56878W        W99931  16.275  24.673  15.947  0.1085 -0.3771  0.1377
56879W        W99932  13.894   7.580  21.314  0.1328  0.0338 -0.1157
56880W        W99933  25.576  31.762  23.146 -0.1877  0.2387  0.3397
56881W        W99934   2.485   6.737  18.912 -0.0499 -0.0442  0.1181
56882W        W99935  20.036  24.284  16.051 -0.2054  0.2724  0.0741
56883W        W99936   7.356  19.834  14.765  0.2650 -0.2271  0.0597
56884W        W99937  20.687  10.519  16.319  0.2225 -0.0601 -0.0990
56885W        W99938   0.023  21.124  18.694  0.0471 -0.1069  0.2099
56886W        W99939  18.335   6.864  17.408  0.1041  0.1553  0.1414
56887W        W99940  16.938   8.803  22.944  0.1926 -0.0614 -0.0294
56888W        W99941  25.707  16.655  17.038 -0.1423 -0.3054 -0.0861
56889W        W99942  14.261  14.911  13.796 -0.2683  0.0433  0.2047
56890W        W99943   0.589   4.463  18.980  0.1538 -0.1311 -0.2882
56891W        W99944  23.263  22.601  21.762  0.1158  0.1292  0.1614
56892W        W99945  33.171  19.878  21.381  0.1078 -0.0112  0.4173
56893W        W99946  19.121  13.320  13.611  0.2484 -0.0738  0.0075
56894W        W99947  18.149   9.415  21.856  0.0388 -0.0477  0.1248
56895W        W99948  20.412   8.051  15.727  0.4894 -0.0082  0.1475
56896W        W99949   8.417  12.460  25.131 -0.4199 -0.0005  0.0184
56897W        W99950  10.607  12.438  16.536 -0.2248  0.1659 -0.2590
56898W        W99951  21.935  30.279   5.032  0.1867  0.0934 -0.0609
56899W        W99952   5.331  18.297  14.389 -0.0396 -0.1437  0.3375
56900W        W99953  22.223  17.583  18.106 -0.2090  0.0622  0.1496
56901W        W99954  19.758  23.324  26.590 -0.4432 -0.1749  0.0500
56902W        W99955  31.579  15.787  23.452 -0.0577  0.2189  0.3264
56903W        W99956  29.528  24.631  27.856 -0.0870  0.0108 -0.0602
56904W        W99957   8.918   5.781  26.958  0.1379  0.1562  0.2405
56905W        W99958   9.462  31.824  16.119  0.0099 -0.0235 -0.1414
56906W        W99959   6.736   6.751  24.704 -0.0513 -0.0506  0.1397
56907W        W99960  12.988  12.719  25.541 -0.1337 -0.3537  0.6331
56908W        W99961  12.303   1.326  24.868  0.1119 -0.2493  0.2527
56909W        W99962  20.357  15.700  14.923 -0.2035 -0.1566 -0.2260
56910W        W99963  21.982  15.042  17.520 -0.0815  0.0360  0.1239
56911W        W99964  11.788   7.919   7.104 -0.0040 -0.2203 -0.0214
56912W        W99965  15.442   2.385  19.579 -0.0521 -0.2411 -0.2128
56913W        W99966  12.468  16.100  19.241  0.0682 -0.0716 -0.1188
56914W        W99967  31.660  26.317  19.253 -0.0920  0.1590  0.0737
56915W        W99968  17.002   9.491  25.987 -0.1627  0.1019 -0.1348
56916W        W99969  25.536  17.322  15.981 -0.2489  0.2029  0.2167
56917W        W99970  11.371   9.437  26.978 -0.0673  0.2321  0.0479
56918W        W99971  10.210  11.176  23.418 -0.0664 -0.0910  0.0163
56919W        W99972  13.299  25.580  18.218 -0.0719 -0.0115  0.2576
56920W        W99973  12.177  29.448  21.006 -0.0023  0.1054 -0.1207
56921W        W99974  17.744  32.422   0.326  0.3189 -0.1870 -0.1502
56922W        W99975  30.880  13.651  13.948  0.0892 -0.1970  0.1409
56923W        W99976   1.239   9.818   0.879 -0.2984 -0.1697  0.1521
56924W        W99977  10.857  28.683  13.438 -0.1294  0.0141  0.1022
56925W        W99978  20.104  27.553  17.277 -0.1426  0.2310 -0.2080
56926W        W99979  32.625   5.354  27.621  0.1859 -0.0968 -0.4212
56927W        W99980  19.535  28.498  21.988 -0.5444 -0.2664 -0.0650
56928W        W99981  10.530  13.024  16.539 -0.1043  0.1167  0.1232
56929W        W99982  11.054  15.944  25.785 -0.0615  0.1179  0.1746
56930W        W99983  16.036  32.601  28.195  0.1399  0.2178 -0.0362
56931W        W99984   7.320  23.372  22.052  0.1625 -0.0907  0.1661
56932W        W99985  33.900   6.777  20.937 -0.1665 -0.0360  0.4274
56933W        W99986   6.258  11.025  16.471  0.0038 -0.1543 -0.0203
56934W        W99987  10.526  20.450  24.644  0.0116  0.0094  0.1354
56935W        W99988  19.263  12.561  20.074  0.2749 -0.3360  0.0653
56936W        W99989  15.184  13.020  15.193 -0.0606 -0.1708  0.1433
56937W        W99990  10.395  16.948  21.225  0.1313 -0.0420 -0.1968
56938W        W99991  15.008  13.209  29.163 -0.0799 -0.0679 -0.0819
56939W        W99992  23.563  10.565  26.273  0.2948 -0.1569  0.3103
56940W        W99993   9.898  13.582  15.518 -0.4010 -0.2136 -0.0178
56941W        W99994  16.319  22.839  18.084  0.1455  0.3072  0.0855
56942W        W99995  11.011  28.369  15.321 -0.1683  0.1975 -0.1176
56943W        W99996   2.615  29.669  26.560  0.0068  0.1441 -0.1264
56944W        W99997   5.273  13.218  21.748 -0.0425 -0.0358 -0.0109
56945W        W99998   3.680  22.071  15.783 -0.0750  0.3564  0.0770
56946W        W99999  32.419  11.758  25.687 -0.0228  0.0320  0.1336
56947W        W    0   9.995   2.140  14.491 -0.0289 -0.2186  0.0463
56948W        W    1  27.214  34.082  28.912 -0.0389  0.1675 -0.0642
56949W        W    2  17.360  11.043  22.544 -0.1859 -0.1036 -0.3595
56950W        W    3  21.809  20.419  18.997  0.2161 -0.1176  0.1020
56951W        W    4   9.709  13.135  20.803 -0.1254 -0.1152 -0.0803
56952W        W    5   9.562  10.409   3.750 -0.1920 -0.0301 -0.3130
56953W        W    6   4.444   9.096  15.735 -0.0960 -0.3593  0.1051
56954W        W    7  12.387   1.441  14.878  0.0142  0.1354  0.1071
56955W        W    8  16.200   7.509  17.358 -0.0620 -0.0149 -0.1856
56956W        W    9   2.666   9.604  22.389 -0.1417 -0.3163 -0.0780
56957W        W   10   7.806  16.613  15.559 -0.1817 -0.1609 -0.0797
56958W        W   11  16.208  30.534  14.977 -0.2553 -0.0141 -0.0861
56959W        W   12  24.722   3.538  17.688  0.1844  0.3245  0.5507
56960W        W   13  14.138   7.095  26.623  0.0532  0.1750 -0.0904
56961W        W   14  24.661  26.709  14.393 -0.1275  0.2746 -0.2982
56962W        W   15   4.023  21.298  22.197 -0.0160 -0.0325  0.3193
56963W        W   16   6.215  11.533  17.739  0.0300 -0.1754 -0.0145
56964W        W   17  28.141  19.549  18.404  0.0880 -0.0482  0.1121
56965W        W   18  17.061   7.913  15.453  0.0829 -0.4543 -0.1604
56966W        W   19  23.075  23.162  27.323  0.1227 -0.4360  0.0599
56967W        W   20   7.023   9.156  16.894  0.2049 -0.0995 -0.2688
56968W        W   21  14.907  32.468  19.842 -0.1167 -0.0543  0.1344
56969W        W   22  22.738  10.316  26.750 -0.3903 -0.0201 -0.0448
56970W        W   23  34.021  29.674  17.733  0.0942  0.1841 -0.1032
56971W        W   24   5.875  18.367  19.817  0.0243 -0.3932  0.0416
56972W        W   25  24.614  19.973  15.134 -0.0973  0.1141 -0.1665
56973W        W   26  16.059  11.493  18.414 -0.1568 -0.3775 -0.2003
56974W        W   27  10.616  18.117  25.590  0.1127 -0.0963 -0.0375
56975W        W   28  15.532   2.808  19.315 -0.0684  0.1860 -0.0867
56976W        W   29   7.353  11.744  23.486  0.3399  0.0507  0.2852
56977W        W   30  17.078  34.130  27.500  0.0083  0.0958 -0.0151
56978W        W   31   7.134  11.976  18.674  0.0288  0.0758 -0.1648
56979W        W   32   3.437   5.256   0.243  0.0068 -0.0263 -0.0559
56980W        W   33  11.446  19.411  18.401 -0.1260 -0.0995  0.2001
56981W        W   34   2.532  28.768   9.997  0.0826 -0.0743  0.0924
56982W        W   35   9.163   2.307  28.931  0.0819 -0.1146  0.0661
56983W        W   36  29.561   4.123   0.494  0.2185 -0.0880  0.0805
56984W        W   37  22.006   9.261  14.613  0.2972 -0.1180 -0.0840
56985W        W   38  16.352  23.049  27.106 -0.2205 -0.0577  0.1202
56986W        W   39  29.782  21.891  22.311 -0.1243 -0.0270  0.3788
56987W        W   40  11.596  22.412  16.995  0.2536  0.2549  0.3198
56988W        W   41  13.537  27.957  28.013 -0.4641  0.0634 -0.0499
56989W        W   42  27.016  20.679  19.222  0.1773 -0.1286  0.0266
56990W        W   43   4.128  17.975  17.241 -0.0743 -0.0297  0.0036
56991W        W   44   6.739  14.589  16.117  0.0215  0.1017 -0.1537
56992W        W   45  27.482  10.604  21.322  0.2332 -0.3287  0.0756
56993W        W   46   3.490  33.162  19.924  0.4028 -0.0745 -0.2120
56994W        W   47  32.205  17.545  15.941 -0.0801 -0.3332  0.0950
56995W        W   48  20.901  16.450  20.620  0.2465  0.4029  0.0494
56996W        W   49  10.148  18.046  17.091  0.1617  0.1419  0.2827
56997W        W   50   4.243  18.327  14.590  0.2935 -0.0627  0.1977
56998W        W   51  15.612  12.343  16.175 -0.2097  0.1135 -0.0253
56999W        W   52   7.396  19.804  16.562 -0.0371  0.2023 -0.2570
57000W        W   53  13.170   8.791  24.266  0.0232  0.0289  0.2712
57001W        W   54  32.156  21.745  22.368 -0.1118  0.0760 -0.2456
57002W        W   55   6.611  18.271  16.109 -0.1051  0.0949 -0.0941
57003W        W   56   7.624  25.168  17.274  0.2427 -0.1671  0.2113
57004W        W   57  22.344  10.721  18.189  0.4559 -0.0788 -0.0368
57005W        W   58   4.205  21.694   1.270 -0.0115  0.0854  0.2454
57006W        W   59   5.846   8.703  17.280  0.3541 -0.1675 -0.1021
57007W        W   60   9.167  14.737  17.078 -0.1446  0.1369  0.1572
57008W        W   61  13.266   0.714  21.698  0.2049  0.1216 -0.1682
57009W        W   62  27.877   5.257  29.196  0.1609  0.1071 -0.1245
57010W        W   63   5.645  25.340  14.684 -0.3295  0.2202 -0.0547
57011W        W   64  31.010  17.020  19.448  0.0247 -0.0470  0.2957
57012W        W   65  14.817   6.172  16.501  0.0219 -0.1808  0.1422
57013W        W   66  12.508  23.984   6.848 -0.0915  0.0308 -0.0853
57014W        W   67  20.358  17.366  22.839  0.4974 -0.1137 -0.2061
57015W        W   68   8.423  34.174  20.276  0.1405  0.0049 -0.1112
57016W        W   69  16.920   4.620  21.726 -0.0177  0.0049 -0.2610
57017W        W   70  13.855  24.704  17.516  0.0164  0.1081 -0.0628
57018W        W   71  16.654   5.978  18.982  0.1946 -0.1905 -0.2708
57019W        W   72   1.997  23.075  14.435  0.2518  0.0638  0.0247
57020W        W   73  31.059   8.507  26.508 -0.0765 -0.0127 -0.1802
57021W        W   74  12.611  16.428  23.503  0.3670 -0.0118  0.0125
57022W        W   75   6.791   6.728  21.628  0.2564 -0.2306 -0.1101
57023W        W   76   7.039  17.713  15.316  0.1415  0.3437 -0.0989
57024W        W   77   9.199  13.990  17.288  0.2889  0.0284 -0.1721
57025W        W   78   3.362  10.657  18.374  0.3884 -0.1357  0.1627
57026W        W   79  14.623  10.593  22.120 -0.0587 -0.0291  0.1400
57027W        W   80  29.355  17.544  20.895 -0.1607  0.0731  0.0827
57028W        W   81   2.399  23.415  14.351  0.0653  0.0176  0.2328
57029W        W   82  12.839  23.205  15.287  0.0417 -0.2445 -0.1210
57030W        W   83   7.617  34.254  17.351  0.1650  0.1643 -0.1393
57031W        W   84   7.576  11.771  15.650 -0.2325 -0.0948 -0.2146
57032W        W   85  18.631   4.030  19.461 -0.5628  0.1231  0.0203
57033W        W   86  17.364   8.533  14.361 -0.2504  0.1154 -0.1301
57034W        W   87  21.561  16.608  14.113  0.0876  0.3395 -0.1656
57035W        W   88  31.992  24.174  23.580 -0.3048  0.2091  0.3611
57036W        W   89  11.272  10.117   1.738  0.0264  0.1925 -0.0762
57037W        W   90   0.896  17.245  27.483 -0.1228 -0.0509  0.0564
57038W        W   91  14.856  12.351  15.202 -0.2719  0.1318 -0.1298
57039W        W   92   8.354  19.813  18.692 -0.0865  0.0647 -0.0867
57040W        W   93   0.538  19.094  15.156 -0.0486  0.2934 -0.1263
57041W        W   94  26.268  16.233  14.769  0.2263 -0.1394 -0.2086
57042W        W   95  20.819  15.513  15.673 -0.1511 -0.0572 -0.2996
57043W        W   96  29.867  24.638  15.223  0.2439 -0.2850  0.0626
57044W        W   97   3.241   1.015  15.166  0.3641  0.2389  0.0719
57045W        W   98  23.108   5.805  13.573  0.1072 -0.0741  0.2071
57046W        W   99   4.916  12.599   2.602  0.0479 -0.3994  0.2458
57047W        W  100  27.903   8.620  23.773  0.3111 -0.1905  0.0580
57048W        W  101  21.853  34.295  15.471  0.4899  0.1867 -0.2217
57049W        W  102  24.389  19.541  23.597  0.2436  0.0275 -0.2164
57050W        W  103  17.052   2.007   0.096 -0.2572 -0.0641  0.2154
57051W        W  104   2.863  28.573  25.859 -0.1889  0.0877 -0.2170
57052W        W  105  21.159  32.703  25.905 -0.1686 -0.1402  0.0274
57053W        W  106  17.082   4.770  27.206 -0.2675 -0.3723  0.3294
57054W        W  107   2.978   2.915   0.600  0.3758  0.0215  0.0928
57055W        W  108  13.283   3.492  17.048 -0.0620 -0.1718 -0.1060
57056W        W  109  27.492  27.810  25.085  0.0999 -0.0709  0.1360
57057W        W  110  13.761   6.324  21.370 -0.0239  0.1504  0.1202
57058W        W  111   3.458   8.967  21.882  0.0629  0.2784 -0.0207
57059W        W  112  16.479  25.484  22.959 -0.1085  0.0479 -0.1245
57060W        W  113  13.380  29.661  17.087 -0.0343 -0.2424 -0.1096
57061W        W  114   2.386   8.981  25.726 -0.3138 -0.1355  0.1989
57062W        W  115  17.330   7.549  15.289  0.1804  0.0514  0.3985
57063W        W  116   7.667  15.507   4.022  0.4328  0.0133 -0.3011
57064W        W  117  15.866  21.972  18.651 -0.2603  0.1214  0.2645
57065W        W  118  18.881  12.193   0.676 -0.1749  0.2015  0.1103
57066W        W  119  16.688  10.657  22.792  0.3527 -0.1378  0.1520
57067W        W  120  15.892  12.778  16.058 -0.0489  0.1124  0.0439
57068W        W  121  15.993   4.438   6.194 -0.0122  0.3575  0.2241
57069W        W  122   8.669  31.579  25.022 -0.0848 -0.2826 -0.2907
57070W        W  123   7.006  34.175  22.078 -0.1572  0.0347 -0.2209
57071W        W  124  16.922  10.298  20.873 -0.1032 -0.0915  0.1425
57072W        W  125   4.992  19.603  13.389 -0.0443 -0.0611  0.1398
57073W        W  126  24.706  12.814  23.872  0.0189  0.1116 -0.0872
57074W        W  127   0.439  12.588  28.512  0.1234 -0.0582 -0.0511
57075W        W  128   4.923  34.363  22.427  0.0832  0.1471 -0.0444
57076W        W  129  12.466  17.416  21.980 -0.0424  0.0795  0.0758
57077W        W  130  22.376  21.272  21.721 -0.1648 -0.3719 -0.1249
57078W        W  131  12.825  32.336  23.434  0.0945  0.0047 -0.0799
57079W        W  132  18.866  15.859  13.309  0.1653  0.1487 -0.1305
57080W        W  133  21.731  15.147  15.495  0.3128 -0.1338 -0.1878
57081W        W  134  13.635   3.856  14.649  0.2376  0.1211  0.4371
57082W        W  135  12.272  12.420  23.009 -0.1672  0.0308 -0.3552
57083W        W  136  22.837  13.236  21.365  0.1543 -0.0036  0.1060
57084W        W  137  21.758  23.019  18.737 -0.1314 -0.0376 -0.1300
57085W        W  138  22.035  17.481  16.400 -0.2629 -0.0218 -0.2992
57086W        W  139  12.189   2.121  26.631 -0.1709 -0.0194 -0.1486
57087W        W  140  17.712  10.247  28.992 -0.1495 -0.3834  0.2456
57088W        W  141  21.234  12.790  20.959  0.1475  0.4569 -0.0326
57089W        W  142  15.681  29.442  25.733 -0.0273  0.2745 -0.0173
57090W        W  143  18.241  33.959  15.413 -0.0451  0.4047 -0.1119
57091W        W  144  12.954  20.758  18.861 -0.2665  0.1028 -0.2760
57092W        W  145   8.275  11.313  18.798  0.0814 -0.2059 -0.2496
57093W        W  146   4.185  10.392  28.236  0.0252  0.0542 -0.0474
57094W        W  147  18.003   5.431  15.459  0.1119  0.0116 -0.2403
57095W        W  148  10.141  18.775  18.308  0.0989 -0.3680 -0.0069
57096W        W  149  10.277  11.427  15.710 -0.0029  0.4322  0.0123
57097W        W  150   2.218  12.914  15.590  0.1948 -0.1355  0.3569
57098W        W  151  17.778  24.604  24.054  0.0038  0.2868 -0.1869
57099W        W  152   6.960  15.143   1.881 -0.0827 -0.0050 -0.0001
57100W        W  153   3.135  21.261  14.568  0.0822  0.3111  0.2946
57101W        W  154  10.658   6.243  24.526 -0.1354 -0.0059 -0.0520
57102W        W  155  10.619   9.331  23.154  0.0028  0.2796  0.4965
57103W        W  156  31.376  14.069  20.676 -0.1587  0.2096  0.0053
57104W        W  157   9.517   8.616  28.888 -0.0485 -0.0553  0.3241
57105W        W  158  19.340  10.089  23.415  0.0974 -0.2677  0.2838
57106W        W  159  20.412   6.773  28.960 -0.1075  0.1887 -0.0365
57107W        W  160  12.187  28.986  16.171  0.1692 -0.2280 -0.0007
57108W        W  161  16.585  23.321  20.084 -0.0098  0.1436  0.4826
57109W        W  162  26.345  34.037  27.778 -0.2802  0.4768 -0.0781
57110W        W  163   3.961  13.898  13.933 -0.0446  0.0856 -0.1561
57111W        W  164  25.032   8.321  20.325 -0.2015  0.0024 -0.2600
57112W        W  165   8.049  15.709  20.775 -0.2869  0.3011  0.0291
57113W        W  166  19.803  12.679  24.309 -0.0330 -0.0488 -0.3200
57114W        W  167   0.338   5.697  14.638  0.0292 -0.0631 -0.0660
57115W        W  168   8.718   9.250  26.025  0.1295 -0.0033 -0.0903
57116W        W  169  21.169   0.229  25.875  0.2310 -0.2780  0.1717
57117W        W  170   0.856  13.814  23.546  0.1629  0.1025 -0.1535
57118W        W  171   8.309   9.933  27.074 -0.2040 -0.2094 -0.1344
57119W        W  172  15.216   1.451  26.960 -0.1305 -0.0480 -0.1164
57120W        W  173   7.492  15.136   4.291 -0.2151 -0.4071 -0.4252
57121W        W  174   4.231  31.787   9.159  0.2148 -0.2875  0.0905
57122W        W  175  22.771   3.792  25.606  0.2962  0.1198 -0.1463
57123W        W  176  12.034  13.494  20.737 -0.1195  0.3109  0.3041
57124W        W  177  15.132  23.348  17.694 -0.0695  0.0472  0.2521
57125W        W  178  22.006  19.379  21.618  0.0692  0.2000 -0.4061
57126W        W  179   8.660  21.876  19.497 -0.3623  0.1884  0.1481
57127W        W  180  12.146  12.293  16.206 -0.0417  0.1732  0.0696
57128W        W  181  28.433   4.193   3.804 -0.2388  0.3461 -0.0080
57129W        W  182  31.571  19.430  17.105  0.1653  0.0508  0.0226
57130W        W  183   1.552  11.998  19.870 -0.2524  0.1183  0.1433
57131W        W  184   9.549   3.571  21.394  0.2590 -0.1071  0.0164
57132W        W  185   1.031  20.069  24.256 -0.2228  0.0489  0.0718
57133W        W  186   0.258  13.056  20.345 -0.3815 -0.1186 -0.1792
57134W        W  187  18.917   7.574  19.532 -0.0559 -0.1378  0.0326
57135W        W  188  21.224   0.879  19.830  0.2346  0.0651 -0.5406
57136W        W  189  10.601  18.440  20.058  0.2644 -0.2033 -0.1891
57137W        W  190  25.605  10.689  22.515  0.0078 -0.0122 -0.0813
57138W        W  191  22.659  12.179  15.046  0.1813 -0.0414  0.2707
57139W        W  192   9.851   1.168  16.816 -0.2973  0.2212  0.3181
57140W        W  193   4.084  12.164  17.795 -0.2064  0.1805 -0.1242
57141W        W  194   5.634   8.047  20.898 -0.1643 -0.3196  0.3006
57142W        W  195  12.634   5.000  15.916 -0.2554  0.2418 -0.1513
57143W        W  196   9.530  20.510  20.997  0.2038  0.2150  0.0911
57144W        W  197  23.244  15.150  16.406  0.2060 -0.0381  0.0020
57145W        W  198  18.989  33.884  22.932  0.1798  0.1460 -0.3595
57146W        W  199  20.876   5.182  26.662  0.4523  0.1851 -0.4196
57147W        W  200  26.338   7.303  24.510 -0.0158 -0.0874 -0.1037
57148W        W  201  14.259  12.045  18.756  0.0931  0.1828  0.0255
57149W        W  202   4.924  24.579  14.107  0.0250  0.2519  0.2407
57150W        W  203   7.599  24.646  24.621 -0.1649 -0.2370  0.0557
57151W        W  204  19.839  21.182  20.065  0.1948 -0.2721 -0.1173
57152W        W  205   1.575  19.782  21.868  0.3149  0.0406 -0.3127
57153W        W  206  18.124  21.631  25.687  0.0136  0.3408  0.1303
57154W        W  207   4.813  27.341   3.370  0.0323  0.0988  0.0045
57155W        W  208   1.730  17.733  19.207 -0.2402  0.1086 -0.1772
57156W        W  209  33.417  16.292   3.983 -0.2512  0.0516  0.3749
57157W        W  210  21.541  18.196  20.871 -0.1749  0.0530  0.1669
57158W        W  211  11.328  30.588  14.649  0.0722 -0.3083 -0.0730
57159W        W  212   7.361  22.757   1.392 -0.0057 -0.0654 -0.1252
57160W        W  213  32.103  15.759  16.493  0.1235  0.1136 -0.1202
57161W        W  214  13.476   8.269  19.030 -0.0192 -0.2587  0.0350
57162W        W  215  12.148  33.745  16.273  0.0055  0.0118  0.0072
57163W        W  216  27.749  24.181  27.223  0.1248 -0.2273 -0.1222
57164W        W  217  21.632   7.870   4.173  0.0675  0.2933  0.1983
57165W        W  218  19.845  22.774  17.611  0.3272 -0.0154  0.0035
57166W        W  219  34.395   5.623  24.632 -0.2992  0.0318 -0.1257
57167W        W  220  12.910   2.402  20.137 -0.2276  0.0049 -0.1904
57168W        W  221   2.436  19.781   6.447 -0.3655  0.1015 -0.1050
57169W        W  222  14.950  12.775  23.833 -0.2233 -0.1531  0.5388
57170W        W  223  12.564  26.410  20.343  0.2769  0.0227  0.0293
57171W        W  224  26.198  16.237  19.878  0.0175 -0.0545 -0.0787
57172W        W  225   9.137   6.744  10.825  0.1814  0.0570  0.0316
57173W        W  226  24.355   3.852  18.312  0.1692  0.0265  0.0937
57174W        W  227  21.876  12.689   0.984  0.1421 -0.2876 -0.0321
57175W        W  228  32.739   8.050  20.186 -0.0796 -0.2798  0.0128
57176W        W  229  26.378  20.427  14.436 -0.0779  0.2433  0.1941
57177W        W  230   3.598  30.166   0.960  0.1358  0.0871 -0.0169
57178W        W  231  16.731  21.049  16.380 -0.1987 -0.0599 -0.0252
57179W        W  232  11.741  33.460  16.132 -0.0575  0.0601  0.0472
57180W        W  233   1.588  12.139  14.723 -0.0439 -0.1676 -0.1263
57181W        W  234   8.340   8.333  14.161 -0.1916 -0.0694  0.2551
57182W        W  235  18.371  18.297  12.743  0.2248  0.2036 -0.0423
57183W        W  236   5.620   5.498  28.535 -0.3702 -0.2434 -0.3166
57184W        W  237   3.046   5.215  24.998  0.2792  0.2171 -0.0076
57185W        W  238  10.741  24.317   4.353  0.1508  0.0739  0.0426
57186W        W  239  10.389   7.639  27.579  0.3918 -0.0568  0.0388
57187W        W  240   2.410  14.187  20.746 -0.1617  0.2408  0.0119
57188W        W  241  17.623  18.433  24.783 -0.3938  0.2622  0.1369
57189W        W  242  18.891  16.523   0.685 -0.3112  0.1921 -0.0060
57190W        W  243  22.949   9.125  20.911 -0.1656  0.0640  0.0986
57191W        W  244   9.935  33.007  18.834  0.1582  0.2961 -0.1365
57192W        W  245  14.118  21.416  18.632  0.1967  0.0452 -0.3081
57193W        W  246  22.419  19.666  21.875  0.0457 -0.2936 -0.0379
57194W        W  247  30.213  13.328  17.210  0.0449  0.4225 -0.2836
57195W        W  248  24.135  20.704  19.365 -0.3214 -0.0888 -0.3728
57196W        W  249  13.849   7.539  22.097  0.0091 -0.0206  0.3217
57197W        W  250   8.448   8.167  19.554 -0.0849 -0.3011 -0.0625
57198W        W  251   0.677  32.177  19.520 -0.1924 -0.1217  0.3410
57199W        W  252   1.375  18.093   4.934  0.2831  0.2368  0.1597
57200W        W  253   7.727   5.916  21.086 -0.0948  0.4291  0.0154
57201W        W  254  10.485   4.085  21.178  0.0807  0.4175  0.1758
57202W        W  255   7.801  12.028  28.621  0.0795  0.2288 -0.0550
57203W        W  256  13.614  32.577   4.837 -0.1067  0.0794  0.0487
57204W        W  257  25.892  29.519  27.061 -0.0540  0.2093  0.2950
57205W        W  258  13.268  28.527   4.748  0.0197 -0.1741  0.0962
57206W        W  259   8.268  14.732  20.801  0.1594 -0.1170 -0.1342
57207W        W  260   6.965  11.640  17.690  0.0047 -0.3644 -0.2777
57208W        W  261  17.633   5.749  15.529  0.2358  0.4720  0.1069
57209W        W  262   4.709  14.170  17.266  0.3160  0.2627 -0.3703
57210W        W  263  17.434   8.200  17.772 -0.1887 -0.1347 -0.1500
57211W        W  264   9.204  14.522  27.601  0.0287  0.1372  0.1241
57212W        W  265  19.021  32.775  15.260 -0.1536  0.2721 -0.0722
57213W        W  266  25.237  18.120  21.220 -0.0092 -0.0694 -0.0351
57214W        W  267  16.272   4.520  27.877 -0.0933 -0.1585 -0.0908
57215W        W  268  10.726   9.719  17.703 -0.0058 -0.1499 -0.2625
57216W        W  269  15.496   4.510   1.208 -0.0356  0.0478  0.0166
57217W        W  270  17.941  11.543  21.498  0.3194 -0.0734 -0.0936
57218W        W  271  12.702  11.566  16.659  0.0005 -0.2020 -0.1637
57219W        W  272  18.051   9.057  14.543  0.0359  0.0853 -0.1263
57220W        W  273  19.344  13.569  15.011 -0.1390  0.1914  0.0303
57221W        W  274  13.900  33.595  16.928  0.2640  0.2126  0.1103
57222W        W  275  11.238  14.545  25.840 -0.0785 -0.1398  0.2180
57223W        W  276  27.137  16.780  26.557  0.1800 -0.2874  0.0846
57224W        W  277  12.742  13.349  17.600 -0.0712  0.1819 -0.0774
57225W        W  278   5.311  27.453  13.590 -0.2806 -0.1760  0.1795
57226W        W  279  30.140  33.446  13.758 -0.0820  0.2211 -0.0329
57227W        W  280   7.216  23.753  21.097 -0.0518  0.0687  0.0619
57228W        W  281   2.236  18.998  23.467 -0.0146  0.1306  0.4753
57229W        W  282  18.119  23.031  20.073  0.0338  0.1262 -0.1420
57230W        W  283  10.161  18.178  25.877  0.1352 -0.0853  0.1189
57231W        W  284   9.552  15.982  21.675  0.0650 -0.3598  0.0645
57232W        W  285  18.341  24.925  18.771  0.0949  0.4466  0.0643
57233W        W  286   0.259  27.971  14.272  0.0581  0.1175  0.0050
57234W        W  287  16.449   7.080  21.193  0.0486  0.3425  0.0404
57235W        W  288  18.454   8.592  16.450 -0.1199  0.0235 -0.1532
57236W        W  289   4.008  29.959  17.644 -0.0574  0.5038 -0.2438
57237W        W  290   4.915  15.132  19.402  0.0779 -0.1110  0.1122
57238W        W  291  11.572   9.445  16.312  0.1244  0.2403 -0.3184
57239W        W  292  11.871   1.877  15.627 -0.3570  0.3270 -0.0904
57240W        W  293  22.061  16.560  27.145 -0.4003 -0.1957 -0.2051
57241W        W  294  31.455   1.295  25.367 -0.2463  0.0206 -0.0949
57242W        W  295  23.102  22.215  24.366 -0.0569 -0.2504 -0.2007
57243W        W  296   9.475  19.287  20.724  0.0083 -0.1959  0.0472
57244W        W  297  14.809   9.631  18.688  0.0677 -0.0992 -0.0737
57245W        W  298   9.862   9.973  17.119  0.3484  0.0126  0.3192
57246W        W  299   5.144   7.395  23.855  0.1633 -0.1991  0.0095
57247W        W  300  13.026   0.462   1.739  0.2115 -0.1933 -0.3062
57248W        W  301  22.461  14.712  17.444 -0.0437 -0.0374  0.0723
57249W        W  302  17.099   9.178  22.460  0.0832 -0.0822  0.1274
57250W        W  303  10.133  21.043  16.492  0.1468  0.0109 -0.0224
57251W        W  304   0.163   8.906  18.906 -0.1939  0.3316  0.1949
57252W        W  305   2.614  13.800  15.125 -0.0080  0.0489 -0.2653
57253W        W  306  16.660  12.360   0.922 -0.2337  0.0482 -0.0442
57254W        W  307   4.446   4.141  25.032 -0.0829  0.1919  0.2075
57255W        W  308  27.730   2.544  25.421 -0.0331 -0.1268  0.0691
57256W        W  309  13.807  19.971  27.573  0.4854  0.0548 -0.2524
57257W        W  310  31.763  17.493   0.652  0.3012 -0.0174 -0.0311
57258W        W  311  15.468  17.943  23.418  0.0583  0.0967  0.0830
57259W        W  312  33.611  29.466   1.554  0.1470  0.0749 -0.1847
57260W        W  313   7.188  24.151  24.768  0.2970  0.0038 -0.2982
57261W        W  314   8.928  25.624  21.018  0.1415  0.1666 -0.2310
57262W        W  315  10.019  24.877   1.302  0.6034 -0.0726 -0.1417
57263W        W  316   8.029  28.071  16.180  0.1638  0.2084  0.0192
57264W        W  317  15.543   2.099  17.397 -0.1411  0.1402 -0.1169
57265W        W  318   9.091   5.363  22.641  0.0711  0.1128  0.3036
57266W        W  319  33.112  12.044   8.419  0.4487 -0.0775  0.2733
57267W        W  320  32.531  20.893   1.255 -0.0773  0.1652  0.0176
57268W        W  321   8.529  10.633   2.133  0.1632  0.1639 -0.0696
57269W        W  322   7.699   8.714  26.900  0.2686  0.0683 -0.2734
57270W        W  323  10.807   3.224  25.248 -0.0629 -0.0232 -0.0041
57271W        W  324  13.406  22.868  15.670 -0.0318 -0.1019 -0.1737
57272W        W  325  33.855  12.893  16.735  0.0428  0.1306 -0.2983
57273W        W  326  23.284  31.405  16.669 -0.3663 -0.0609  0.1864
57274W        W  327   5.312  33.355  27.962  0.4297 -0.2996  0.0070
57275W        W  328  12.894   9.152  15.332  0.0162 -0.1826  0.0879
57276W        W  329  34.287   3.950  28.076  0.1690 -0.1854  0.3144
57277W        W  330   4.482  17.378  16.488  0.0557 -0.3849  0.3204
57278W        W  331  12.744   5.474  26.003  0.2224  0.2587 -0.1435
57279W        W  332   0.083   9.974  18.798 -0.0082  0.1600  0.2428
57280W        W  333   1.604   6.100  16.536  0.1636  0.1124 -0.1533
57281W        W  334   5.907  13.229   4.953  0.2138  0.1570 -0.4513
57282W        W  335  12.567  10.848   3.194  0.3466  0.0246  0.0045
57283W        W  336  14.501   8.837  28.058  0.1292  0.0206 -0.1175
57284W        W  337  15.500  16.510  19.093 -0.0262 -0.0101  0.1011
57285W        W  338  18.467   6.239  21.494 -0.0561 -0.3887  0.1764
57286W        W  339  23.845  19.839  22.816 -0.2273 -0.2477  0.0115
57287W        W  340   3.077  13.263  23.840 -0.1697  0.1497  0.2903
57288W        W  341  14.091  22.373  17.958 -0.0044 -0.1991  0.1329
57289W        W  342  13.564  14.492  16.208 -0.2606  0.2971 -0.0522
57290W        W  343  16.102  25.064  18.152  0.3354  0.1732 -0.0908
57291W        W  344  34.361  24.693  20.844 -0.0006  0.0714  0.2687
57292W        W  345  24.107  30.716  19.298  0.0197 -0.2236  0.1554
57293W        W  346  14.369  14.473   9.263  0.0260 -0.0507 -0.1396
57294W        W  347   4.295   8.500  25.233 -0.5107 -0.1390  0.0406
57295W        W  348  26.349  21.716  24.399 -0.1742 -0.3611 -0.2176
57296W        W  349   7.234  18.827  27.613 -0.1022 -0.3024  0.2277
57297W        W  350  32.535  19.635  28.232  0.0785 -0.1600 -0.0460
57298W        W  351  19.656  12.852  15.886  0.3052 -0.2232 -0.2192
57299W        W  352   9.638   2.652  17.000  0.2679  0.1051 -0.1006
57300W        W  353   8.420  13.759   5.332  0.0321  0.0495 -0.2251
57301W        W  354  11.322   6.308  19.921 -0.1505 -0.0868 -0.2393
57302W        W  355  16.058   7.727  18.449 -0.1333 -0.1871  0.2369
57303W        W  356  16.802   4.525  15.457  0.1426 -0.1806  0.5585
57304W        W  357  10.628  12.529  26.559 -0.0063 -0.3368  0.2229
57305W        W  358  32.972  15.925  24.177  0.2071 -0.1681  0.0782
57306W        W  359  13.542   9.815  21.728 -0.1349  0.1174  0.1304
57307W        W  360  24.253  17.588   6.649  0.3255  0.0207 -0.0851
57308W        W  361  10.158  27.400  22.619 -0.1782  0.0912 -0.4279
57309W        W  362  13.039  14.965  25.195 -0.1079  0.2603  0.1983
57310W        W  363   3.796  10.422   0.045  0.3313 -0.0657 -0.2852
57311W        W  364  20.787  16.884  22.154  0.1675  0.1404  0.3108
57312W        W  365   8.184  21.976  18.601 -0.1804 -0.0144 -0.3218
57313W        W  366  31.013   2.421  26.161 -0.0863 -0.3432 -0.1155
57314W        W  367  12.240   8.718  18.844  0.3636 -0.0809  0.0154
57315W        W  368  22.173  31.309  26.049 -0.1872  0.0351  0.0446
57316W        W  369  17.328  16.445   4.119  0.1613  0.0015 -0.3834
57317W        W  370  10.176  17.795   8.554 -0.0185  0.0828 -0.0873
57318W        W  371  22.904   6.969   3.633 -0.1247  0.1162 -0.2604
57319W        W  372   9.575  12.664   0.806 -0.6177  0.3492  0.0437
57320W        W  373  29.004  10.752  20.754 -0.0836  0.0918  0.0093
57321W        W  374   2.282  28.172   4.139 -0.2390 -0.0254 -0.0723
57322W        W  375  24.109  20.466  21.658  0.0468 -0.0582  0.1626
57323W        W  376  27.547  11.798  22.633  0.1037  0.1530 -0.1688
57324W        W  377  11.709   6.456  17.213  0.3193  0.0558  0.0095
57325W        W  378   7.123  34.038  15.835  0.1823 -0.2627 -0.0409
57326W        W  379  18.971   9.731  24.005  0.1042  0.0587  0.0255
57327W        W  380  27.924  24.769   2.748 -0.1091 -0.2397  0.2171
57328W        W  381  15.103  24.998  16.293 -0.0629  0.3457  0.1521
57329W        W  382  29.674   3.634  22.763 -0.0410 -0.0673 -0.2772
57330W        W  383  11.786  12.241  19.396 -0.2636  0.1874 -0.4098
57331W        W  384  14.556  32.254  23.398 -0.2398 -0.0560 -0.1847
57332W        W  385  32.519  15.877  18.117 -0.0568 -0.0782  0.0728
57333W        W  386  26.082  18.821  16.430  0.1307 -0.3232  0.2886
57334W        W  387  25.202  18.043  17.661 -0.2748 -0.1708 -0.2201
57335W        W  388   4.834  25.188  21.329 -0.3388 -0.1934 -0.0587
57336W        W  389   8.685  10.960  19.941  0.0953 -0.0508 -0.0617
57337W        W  390   5.591  13.931  19.623 -0.2912  0.2426 -0.0822
57338W        W  391  10.544   5.433  22.031  0.0733 -0.4022  0.0514
57339W        W  392  10.352   5.193   3.132  0.0959 -0.1921 -0.1589
57340W        W  393   6.105  19.046  14.872 -0.3031 -0.0252  0.2336
57341W        W  394  14.255  16.375  25.379  0.2408 -0.0111 -0.0002
57342W        W  395  11.437   4.916  13.962 -0.1222  0.1894  0.4443
57343W        W  396   8.435  25.463  24.322  0.0789  0.2149 -0.0370
57344W        W  397   5.346   4.109  14.426  0.1281 -0.2888  0.0760
57345W        W  398  12.399  31.600  18.268 -0.1094  0.1937  0.3854
57346W        W  399   7.985  13.927  15.888 -0.1584 -0.0355 -0.0255
57347W        W  400   2.789  11.761  17.190 -0.1364 -0.2413 -0.0050
57348W        W  401  13.935   2.875  17.176 -0.3057  0.2186 -0.0976
57349W        W  402  11.041  14.324  27.533 -0.0142  0.0995  0.0210
57350W        W  403   4.541  17.939  21.043 -0.0604 -0.0269 -0.2014
57351W        W  404  17.018  31.511  20.565  0.3433 -0.0727  0.1239
57352W        W  405  12.500   9.840  17.528 -0.3230 -0.2618 -0.0411
57353W        W  406  25.369  27.653  17.529  0.0580 -0.1730  0.0051
57354W        W  407   4.525  16.314  14.314  0.0661  0.4065  0.1521
57355W        W  408  15.332   0.627  17.817  0.0232 -0.2364 -0.1156
57356W        W  409  20.690  20.109  15.383 -0.2523 -0.1085 -0.0425
57357W        W  410   8.336  24.873  20.971  0.1342  0.0441  0.0031
57358W        W  411  32.459  15.697  23.154 -0.1366  0.2091 -0.2249
57359W        W  412   7.219  19.048  21.696 -0.2314 -0.1558 -0.3567
57360W        W  413  17.404   2.776  25.466 -0.1434  0.0216  0.1109
57361W        W  414  24.237  12.102   5.454  0.1465 -0.0047  0.0387
57362W        W  415  32.482  15.169  18.753  0.0648 -0.1912  0.0089
57363W        W  416   3.007  11.234   0.020 -0.0896 -0.2910 -0.2511
57364W        W  417   1.223  10.019  21.103  0.1072 -0.0615  0.1622
57365W        W  418  11.756   5.694  22.528 -0.1162  0.0244  0.3348
57366W        W  419  17.242  20.088  14.345 -0.2699  0.0634 -0.1989
57367W        W  420  11.319  20.916  20.082 -0.2082 -0.0716 -0.0252
57368W        W  421  21.863  21.867   8.038  0.3079  0.0528 -0.0437
57369W        W  422  10.051  24.763  12.814  0.0609 -0.2103 -0.1125
57370W        W  423   3.068   9.380  26.283  0.2693 -0.2332  0.2118
57371W        W  424  29.630  11.754  22.382  0.0708 -0.0206  0.1879
57372W        W  425  34.280  15.931  21.365 -0.2195 -0.1096 -0.2218
57373W        W  426   1.373  17.315  18.326  0.4236  0.0941  0.0638
57374W        W  427  16.875   7.532  15.083  0.1698  0.1076 -0.2867
57375W        W  428  12.436   9.910  28.827  0.4255  0.1402  0.1626
57376W        W  429   7.450   5.372  16.257  0.0027 -0.0178 -0.0314
57377W        W  430  10.124  13.430  16.363 -0.0461 -0.0620  0.2140
57378W        W  431  28.519   6.284   1.014 -0.1452 -0.2619 -0.1531
57379W        W  432  16.758   9.717  20.195 -0.1666  0.2051  0.2445
57380W        W  433  33.508  28.365   6.135 -0.1853 -0.0729  0.0973
57381W        W  434   6.827   5.610  17.312  0.0053  0.0890  0.2354
57382W        W  435  32.277  11.593  14.120  0.2211 -0.0347 -0.0451
57383W        W  436  15.751  12.422  26.299 -0.2276 -0.1935 -0.0801
57384W        W  437  28.128  13.196   0.461  0.0787  0.3186  0.2361
57385W        W  438   9.241  24.830  15.006  0.2318  0.2116  0.0237
57386W        W  439  26.051   2.157  15.507 -0.1325 -0.1607  0.0655
57387W        W  440  29.157   7.500  19.383 -0.1060 -0.0497 -0.1159
57388W        W  441  12.662   8.499  19.128 -0.2009  0.0469  0.3226
57389W        W  442  10.801  10.380  23.328 -0.3205  0.0437  0.1310
57390W        W  443  22.719  15.020  24.433  0.0034  0.0131 -0.1348
57391W        W  444  15.385   2.437  14.152 -0.2975  0.0069 -0.0932
57392W        W  445   1.022   8.945   3.421  0.0283 -0.2560 -0.0595
57393W        W  446  18.162  12.569  14.273 -0.3112  0.0057 -0.0454
57394W        W  447  10.783   7.175  21.588 -0.1648  0.3209 -0.2374
57395W        W  448  20.673   9.104  13.850 -0.0753  0.1448 -0.0064
57396W        W  449   1.236  12.552  20.209 -0.0220 -0.0539 -0.1766
57397W        W  450  14.486  28.246  14.914  0.1076 -0.1222  0.0224
57398W        W  451  17.067  11.578  25.881 -0.1501  0.0327  0.0762
57399W        W  452  22.932  21.789  26.801  0.4252 -0.3045 -0.2700
57400W        W  453   5.767  15.275  21.572 -0.0653  0.0368  0.2575
57401W        W  454  23.619  15.946  16.478 -0.2265  0.1109  0.0566
57402W        W  455   6.838  24.517  15.483 -0.1272 -0.0309  0.0227
57403W        W  456  14.464   8.483  17.919 -0.1749 -0.2561 -0.1004
57404W        W  457  10.147   5.774  18.452 -0.0330 -0.1028  0.2462
57405W        W  458   7.312  19.064  18.311  0.2615 -0.0646 -0.3727
57406W        W  459  13.198  32.363  20.106  0.0164  0.0454  0.2411
57407W        W  460  11.748   9.032  16.188 -0.1383  0.0734  0.3374
57408W        W  461   5.970  21.890  18.705  0.1296 -0.0411  0.2496
57409W        W  462   5.529  11.028   2.952 -0.2582 -0.3155  0.0366
57410W        W  463  33.452  11.400  20.466  0.0158  0.0883 -0.3347
57411W        W  464  14.732   6.079  15.961  0.0681 -0.2321  0.0500
57412W        W  465  20.778  29.127  22.198 -0.0544  0.1231 -0.2206
57413W        W  466   9.008  25.429  17.439  0.1717  0.0352  0.2261
57414W        W  467  15.221  18.287  13.830 -0.2042  0.1979  0.0053
57415W        W  468  31.389  27.294  21.257 -0.0884 -0.0144  0.0236
57416W        W  469   4.314  29.047  27.368 -0.3054  0.2098 -0.0168
57417W        W  470  11.461  20.160  17.560 -0.2977  0.0878  0.3546
57418W        W  471  14.739  30.160  26.462 -0.0724  0.0385 -0.2127
57419W        W  472  13.828  24.713  15.013 -0.0491 -0.0949  0.0247
57420W        W  473  16.290  27.847  17.773  0.1556 -0.2815 -0.0778
57421W        W  474   7.774   9.889  15.452 -0.1764 -0.1103 -0.1800
57422W        W  475  10.237   8.706  25.470 -0.1722 -0.3676  0.1005
57423W        W  476   7.024   9.626  19.587 -0.1721  0.0255  0.2559
57424W        W  477   2.184   7.976  23.501  0.0904 -0.1964 -0.0602
57425W        W  478  15.204   7.491   5.338  0.2605 -0.0651 -0.2874
57426W        W  479  10.900  18.368  22.049  0.0904 -0.0946 -0.1651
57427W        W  480  12.910  13.917  24.195 -0.0585 -0.0541  0.2541
57428W        W  481   8.268   6.913  15.659  0.1070  0.1320  0.0756
57429W        W  482  12.967  15.822  14.235  0.0111  0.0049  0.1894
57430W        W  483   1.006  17.775  22.310  0.1818  0.0993 -0.1095
57431W        W  484  20.207  11.128   1.037  0.4031 -0.2240  0.0525
57432W        W  485   2.983   5.603  15.136 -0.1318 -0.3689 -0.1462
57433W        W  486   8.855  11.474  15.308 -0.1576 -0.0317  0.0357
57434W        W  487  14.078   4.971  22.918  0.0688 -0.1048 -0.0409
57435W        W  488   8.232  26.459   0.679 -0.0819 -0.1228 -0.3340
57436W        W  489  10.548  13.181  28.060 -0.1016  0.3198  0.0392
57437W        W  490  10.429  21.190  19.165  0.4306  0.0851  0.0084
57438W        W  491  10.471  11.878  21.802 -0.1676  0.0399 -0.2151
57439W        W  492  13.691  10.818   3.464 -0.0411 -0.0767  0.0922
57440W        W  493  32.272  14.006  19.606  0.1180 -0.0478  0.2807
57441W        W  494  19.564   4.756  22.846  0.2804 -0.1372  0.1517
57442W        W  495   8.620  15.201  20.908  0.3325  0.1702  0.0414
57443W        W  496  11.005  18.158  15.719  0.0234 -0.2217 -0.0466
57444W        W  497  18.695  16.604  12.997 -0.0380  0.1569  0.0462
57445W        W  498   9.723  21.677  20.294  0.2578  0.0737  0.1116
57446W        W  499  11.196   3.973  27.747 -0.4127 -0.0284 -0.0572
57447W        W  500  22.667   5.207  15.510 -0.2333  0.1775 -0.0189
57448W        W  501  10.557  11.082  23.070  0.1469 -0.2962  0.3943
57449W        W  502  10.867  16.565  23.977 -0.0087 -0.0633  0.4299
57450W        W  503  16.494  28.307  17.853  0.2257  0.1355  0.2422
57451W        W  504  18.264   9.209   5.648  0.2251 -0.1684 -0.2995
57452W        W  505   9.218   9.425  19.395  0.0077  0.3282  0.6207
57453W        W  506  21.887   9.748  17.596  0.3225 -0.3536 -0.0357
57454W        W  507  25.104  26.414  21.491 -0.3766  0.3288  0.0280
57455W        W  508   2.919   5.133  23.041 -0.1296 -0.1283 -0.1109
57456W        W  509  23.721  18.352  27.083 -0.2337 -0.0846 -0.0528
57457W        W  510  10.881  17.846  21.393 -0.1024 -0.6563 -0.0203
57458W        W  511   8.279  10.984  16.563 -0.0459 -0.2016  0.1130
57459W        W  512  25.697  16.028  26.563 -0.0505 -0.1766 -0.3133
57460W        W  513  10.344  14.148   6.916  0.3008  0.0158  0.0274
57461W        W  514   9.463   4.355  16.401 -0.0524 -0.0280 -0.0990
57462W        W  515  31.358  15.584  18.104  0.0476 -0.2804 -0.0536
57463W        W  516   9.591  25.749  22.837 -0.1586 -0.0513 -0.0632
57464W        W  517  17.438   6.166  15.793 -0.1257 -0.7540 -0.3269
57465W        W  518  12.061  16.315  17.370  0.4543 -0.1433  0.2292
57466W        W  519   3.486  13.774  17.262  0.1081 -0.3525 -0.2539
57467W        W  520   4.353  12.681  14.844  0.0852 -0.3239  0.1250
57468W        W  521  17.962  32.846  18.772 -0.1510 -0.1789 -0.0136
57469W        W  522  13.228  26.008   2.482 -0.1810  0.1491  0.1088
57470W        W  523  28.339   7.624  15.866  0.0755  0.1490 -0.1595
57471W        W  524  34.537   3.794   0.167  0.1470 -0.3209 -0.1036
57472W        W  525  17.243  32.110  15.177  0.0751 -0.4055 -0.1595
57473W        W  526  17.096  11.493  22.632 -0.0501 -0.0496  0.1072
57474W        W  527   8.188   0.278  15.473 -0.0219 -0.0437  0.0136
57475W        W  528   0.101  15.631  18.543 -0.4758 -0.0875  0.0360
57476W        W  529  14.083  15.207  23.574 -0.0749  0.0300  0.1976
57477W        W  530  21.158  14.439   4.500  0.0228  0.3061 -0.2132
57478W        W  531  22.449  23.191  15.392  0.2226  0.3799 -0.4813
57479W        W  532  11.053   1.816  15.593  0.2982  0.3843  0.2108
57480W        W  533   8.058  23.871  22.746 -0.1435  0.1739  0.1202
57481W        W  534   9.266  10.242   4.878 -0.0560 -0.2902 -0.1349
57482W        W  535  20.262   4.903  18.026 -0.0069  0.0387 -0.0056
57483W        W  536   8.613  12.582  21.488  0.1312 -0.3155  0.4070
57484W        W  537  24.172   4.008  20.663 -0.1875  0.1062  0.2920
57485W        W  538  14.769   2.625  24.133 -0.4137 -0.0814  0.2951
57486W        W  539   8.091  22.819  17.560  0.3012  0.4714 -0.3288
57487W        W  540  22.814   3.110  26.455 -0.0254 -0.1945  0.1550
57488W        W  541   2.815   6.034  18.605 -0.0456  0.1817  0.1363
57489W        W  542  22.399  22.527  17.510 -0.1895  0.3681 -0.1888
57490W        W  543  11.690   7.842  10.699  0.2444  0.0988  0.0196
57491W        W  544  15.576  31.631  20.667  0.1531  0.0911 -0.0926
57492W        W  545   1.152  12.081   6.673 -0.2548  0.0618  0.2466
57493W        W  546   4.700  12.953  24.729  0.1203 -0.1784  0.0803
57494W        W  547   5.717  16.311  13.961 -0.0772  0.2052  0.0447
57495W        W  548  13.150  23.238  14.906 -0.2670  0.1390  0.2250
57496W        W  549  11.322   1.703  13.907 -0.0274  0.1244 -0.1372
57497W        W  550   8.641  25.634  26.523 -0.0595  0.1978 -0.0487
57498W        W  551   0.041   7.885  27.919 -0.0524  0.1443 -0.0175
57499W        W  552  15.383   4.955  25.478 -0.1551 -0.0102 -0.0283
57500W        W  553  19.456  10.910  14.404  0.0394  0.3239 -0.1075
57501W        W  554  13.870   4.108  20.984  0.0876 -0.4004  0.0206
57502W        W  555   6.101  10.175  15.832  0.3378 -0.2154 -0.1851
57503W        W  556  17.519   6.298  19.078  0.0181  0.3168  0.0951
57504W        W  557  13.138  13.688  16.522 -0.0488  0.1367 -0.1278
57505W        W  558   7.106   9.227  16.360 -0.0649  0.3090 -0.1497
57506W        W  559   9.868  16.112   2.665  0.2044 -0.1354  0.3012
57507W        W  560   9.328   6.999  25.634  0.1485  0.1294 -0.0067
57508W        W  561   1.193  29.963   9.189 -0.0072  0.2274 -0.0715
57509W        W  562  18.723   7.777   6.058 -0.0835  0.0139  0.0832
57510W        W  563   5.456  14.895  17.599 -0.3671  0.0795  0.1157
57511W        W  564  34.198   9.255  16.207  0.0134  0.2192 -0.1029
57512W        W  565  16.197  26.780  24.938  0.1102  0.1840 -0.3591
57513W        W  566   9.438  13.567  18.219  0.1034  0.2360 -0.0798
57514W        W  567   2.419  11.717  18.417  0.0733 -0.0806  0.0152
57515W        W  568   7.186  33.695  26.991 -0.3744 -0.0749 -0.1119
57516W        W  569   9.348  13.733   3.353 -0.2710 -0.1574  0.2609
57517W        W  570  14.477  14.184   7.787  0.0722  0.1586 -0.0430
57518W        W  571  14.836   9.577   6.108 -0.0342  0.1165  0.0286
57519W        W  572   9.430  14.116  23.998 -0.0287  0.3291  0.0140
57520W        W  573  24.866  25.741   5.038  0.0151  0.1054  0.1627
57521W        W  574   6.751  12.762   3.471 -0.2684  0.2402 -0.1630
57522W        W  575  20.757  31.237  27.881 -0.0772 -0.0616 -0.0410
57523W        W  576   9.551  15.494  21.847 -0.1635 -0.2536  0.1311
57524W        W  577   5.181  30.489  29.135 -0.2196  0.2035  0.1564
57525W        W  578   7.597  12.854   8.495  0.2238  0.1407  0.1813
57526W        W  579  12.848   6.774  27.631  0.0505 -0.0033 -0.0893
57527W        W  580  12.529  14.274   0.372 -0.0625 -0.0922 -0.0622
57528W        W  581  16.169   3.569  28.696 -0.1012  0.4850  0.3261
57529W        W  582  20.212  18.988  19.018 -0.1690 -0.0489 -0.1561
57530W        W  583   8.332  11.367  23.630 -0.3788 -0.1810 -0.0338
57531W        W  584   1.675  30.422  16.604  0.1467 -0.3764  0.0398
57532W        W  585  19.841  12.692  19.953  0.0120 -0.0853  0.1526
57533W        W  586   7.332  32.151   9.150  0.0709  0.1328  0.0561
57534W        W  587   2.437   1.722   1.924  0.0328 -0.0699 -0.1567
57535W        W  588  13.560  31.181   3.635  0.1578  0.3533  0.1085
57536W        W  589  19.697  10.434  21.025 -0.1439 -0.0668  0.0980
57537W        W  590  10.939   1.748  10.454 -0.0432  0.0836 -0.1241
57538W        W  591  14.559  16.802   6.168 -0.1348  0.2018  0.0805
57539W        W  592  15.240   6.213  27.845 -0.3198 -0.1576 -0.2513
57540W        W  593  13.997   5.757   0.928 -0.1254  0.1330 -0.1150
57541W        W  594   6.357  29.208  19.870  0.3621 -0.0784  0.1907
57542W        W  595   1.856  16.603  13.246 -0.0746  0.0079  0.1078
57543W        W  596  11.931   5.244  20.462  0.0581 -0.0349  0.0211
57544W        W  597   3.445   0.024  21.448 -0.2368  0.0596 -0.2044
57545W        W  598   7.287  13.176   2.909  0.0145 -0.1539  0.5069
57546W        W  599  10.318  12.484   7.871  0.0212  0.0000  0.0045
57547W        W  600   3.204  30.435  24.549 -0.1317 -0.3691  0.1478
57548W        W  601  26.194  21.502   7.134  0.0054 -0.0887  0.0999
57549W        W  602  22.180  10.483   1.084  0.0110  0.1712 -0.3142
57550W        W  603   1.161   8.593   2.767  0.2428 -0.3206  0.3630
57551W        W  604  14.298  16.310   2.552  0.0303 -0.0815  0.0076
57552W        W  605  31.048  28.639  15.532 -0.0673  0.0550 -0.2756
57553W        W  606   6.254   7.242  16.591  0.0960  0.0161  0.4510
57554W        W  607  22.465   0.796   0.531 -0.2578  0.0824 -0.0298
57555W        W  608  30.741  14.881   6.563  0.0943 -0.0890 -0.2000
57556W        W  609  13.471  32.298  17.423  0.0452  0.2309  0.0000
57557W        W  610  13.094   3.773   8.109 -0.1886  0.1555  0.3738
57558W        W  611  18.542  32.828  29.171  0.0964 -0.2860 -0.6531
57559W        W  612  21.421  11.430  17.151 -0.0924  0.3787  0.1004
57560W        W  613  21.214  16.506  13.640 -0.1412  0.0257  0.0794
57561W        W  614   0.040  15.222  22.789  0.0010 -0.2375  0.0093
57562W        W  615   5.435  31.024  27.464 -0.0693  0.0004 -0.0676
57563W        W  616  18.602  30.087  25.383  0.0057  0.2140 -0.0752
57564W        W  617  16.243  18.406  23.840 -0.0055  0.0898  0.2217
57565W        W  618   8.574  17.799   6.196  0.1886  0.1069 -0.0111
57566W        W  619  20.243  32.753  19.828 -0.1025  0.0969 -0.1343
57567W        W  620  32.233  29.746  21.634  0.2223 -0.0778 -0.0784
57568W        W  621  10.965   4.692  23.430  0.1354  0.0297  0.2498
57569W        W  622  13.625  11.475   3.327 -0.2192 -0.2053  0.1832
57570W        W  623  18.624  15.405   2.256 -0.0203 -0.2999  0.2020
57571W        W  624   5.532  29.267  26.513 -0.0918 -0.0795  0.1135
57572W        W  625  19.621   7.320  19.399  0.0729  0.1172  0.1799
57573W        W  626  16.052   9.765   2.673 -0.0042 -0.0060 -0.1653
57574W        W  627   5.265   3.727  20.687 -0.2845  0.1871  0.2189
57575W        W  628   8.650  12.835  15.662 -0.2101  0.3192 -0.0032
57576W        W  629  26.819  29.671  18.981 -0.0409  0.0231  0.3345
57577W        W  630   4.630  19.571  21.607 -0.0866  0.0923  0.0563
57578W        W  631  33.414  15.190  20.609 -0.3727 -0.1498  0.2396
57579W        W  632   3.441   5.526   9.911 -0.0214  0.1896  0.1076
57580W        W  633  24.116  10.785  19.991 -0.1450  0.0186  0.1339
57581W        W  634   9.075   7.135  28.799 -0.0983  0.2626  0.0543
57582W        W  635  17.879  18.297  13.335 -0.1098 -0.1208  0.1559
57583W        W  636   9.409   7.058  19.167  0.0664  0.2502 -0.2457
57584W        W  637  26.157  26.742  15.383  0.1856 -0.0515  0.1234
57585W        W  638   7.829  28.452   2.319 -0.1531 -0.0664  0.2138
57586W        W  639  12.759  16.089   0.931  0.0900  0.0295 -0.1089
57587W        W  640   6.529  15.043   4.976  0.0735 -0.1048 -0.2398
57588W        W  641   7.385  13.327   0.707 -0.3123 -0.0097  0.0648
57589W        W  642   1.314  12.395  15.895 -0.3003 -0.3695 -0.4628
57590W        W  643  15.422  22.440   1.590 -0.0519 -0.1145 -0.1385
57591W        W  644  10.272   7.252   6.879  0.0447  0.2396  0.1725
57592W        W  645   7.011  16.296  19.634 -0.1395  0.2221  0.0122
57593W        W  646  23.243   8.319  16.228 -0.1270  0.3849 -0.0093
57594W        W  647  14.056  13.144  22.451 -0.0095 -0.0244  0.2846
57595W        W  648   6.226  14.917  22.134 -0.1900 -0.1120 -0.1811
57596W        W  649  13.331   2.879  21.574  0.2322 -0.1786  0.0657
57597W        W  650  22.767   6.636   2.327 -0.2178 -0.2070 -0.2452
57598W        W  651  27.464   7.603  20.579 -0.0191  0.1173 -0.0473
57599W        W  652  12.435   0.137   0.738 -0.0051 -0.1528 -0.0232
57600W        W  653  17.068  25.194   9.206  0.0398 -0.2389 -0.2493
57601W        W  654  14.638  24.036  17.547 -0.2153  0.0152 -0.1771
57602W        W  655   3.823  18.932  24.128 -0.0300 -0.0181 -0.1674
57603W        W  656   5.666  13.766  15.760  0.3023  0.0518  0.1902
57604W        W  657   7.985  19.668  21.477 -0.0299  0.1447  0.1326
57605W        W  658  30.848   2.763  16.596  0.0748  0.2384  0.1441
57606W        W  659  32.835  14.037   4.001 -0.2704 -0.3870 -0.0370
57607W        W  660  14.295   8.449  25.135  0.2080  0.1758 -0.2500
57608W        W  661  33.726   3.620  20.437  0.0863  0.1361  0.0683
57609W        W  662  20.140  33.758  23.311  0.0119 -0.3155 -0.1618
57610W        W  663   4.952  29.380  14.086  0.0323 -0.1230 -0.0819
57611W        W  664   5.048  25.353   3.488  0.0528  0.0824  0.1297
57612W        W  665   9.707  12.711  23.272 -0.4282  0.3206  0.0956
57613W        W  666  10.957   9.759  22.340  0.2070  0.0848 -0.2059
57614W        W  667  33.236   7.700  27.889 -0.3990 -0.1744 -0.1559
57615W        W  668   9.243  20.076  22.975  0.0241  0.1908 -0.2692
57616W        W  669  23.820  10.638  13.779  0.2048 -0.0768 -0.1549
57617W        W  670  13.356  17.390  26.423  0.1345  0.0617 -0.2211
57618W        W  671  20.884  14.438  13.581  0.0871 -0.1488  0.1603
57619W        W  672  26.776  20.104  14.540 -0.0709 -0.0192 -0.0213
57620W        W  673  18.761   8.368  14.791  0.0747  0.3089 -0.0768
57621W        W  674   7.946  11.527  15.996 -0.1679  0.0686 -0.1209
57622W        W  675  29.602  22.676  20.591  0.2383  0.3319 -0.1031
57623W        W  676  12.072  16.277  23.523  0.0692  0.1320 -0.2011
57624W        W  677   5.013  21.044  24.209  0.3733  0.0509 -0.1441
57625W        W  678   9.459  32.313  19.505 -0.0290  0.2915  0.1464
57626W        W  679  13.322  30.007  21.511  0.0833  0.0556 -0.0153
57627W        W  680  10.121  14.541   2.965  0.3241 -0.0916  0.0209
57628W        W  681  17.371   8.929  17.365 -0.0914 -0.1843 -0.0900
57629W        W  682   2.417  17.626  16.764  0.1083  0.0063 -0.0282
57630W        W  683   6.503  17.861   7.834 -0.0556 -0.1683 -0.2372
57631W        W  684  23.023  19.748   7.727  0.0435  0.1644 -0.0888
57632W        W  685   9.425   4.067  27.893 -0.0336  0.4018  0.1019
57633W        W  686   5.084  10.196  21.128 -0.0283 -0.1156 -0.2255
57634W        W  687   8.588  15.406  14.115  0.2181 -0.1804 -0.3811
57635W        W  688  10.619  26.660   8.894  0.0089 -0.1458 -0.0005
57636W        W  689  22.809  10.157  21.023  0.3024  0.0374 -0.0927
57637W        W  690   2.192   4.679  28.393  0.2104 -0.3139  0.2162
57638W        W  691  15.700   9.883   0.823 -0.0757  0.2026 -0.0300
57639W        W  692   8.982  10.460  15.020  0.0468  0.0149  0.2250
57640W        W  693   0.454  21.145  27.962  0.1975 -0.1382  0.1997
57641W        W  694  10.858  22.847  13.203  0.0137  0.0950 -0.0923
57642W        W  695   2.179  26.034  22.647 -0.1934  0.1390 -0.1773
57643W        W  696  19.027  13.253  22.556  0.0893 -0.2073 -0.0557
57644W        W  697  16.038  26.132  20.822 -0.0005 -0.1404 -0.1851
57645W        W  698   0.231   9.323   7.280 -0.0049 -0.3992 -0.1612
57646W        W  699  30.464  18.835  14.311 -0.2679  0.0094 -0.0707
57647W        W  700   3.975  11.915  25.697 -0.1123 -0.0762  0.0650
57648W        W  701  20.432  33.281  15.624  0.1321  0.2636  0.2206
57649W        W  702   5.654  23.734  18.871 -0.1385  0.3147 -0.0384
57650W        W  703   1.785  33.065  15.973 -0.0772  0.1549  0.0609
57651W        W  704  21.892  13.258  13.761 -0.1270  0.1699 -0.0814
57652W        W  705   3.182  11.403  25.007 -0.2886 -0.1715  0.2720
57653W        W  706   6.584  10.998  19.623 -0.1748  0.0131 -0.2497
57654W        W  707  18.785  15.366  27.539 -0.1525  0.0053 -0.1230
57655W        W  708  18.739   0.426   9.675  0.2291  0.2420  0.1609
57656W        W  709  20.594  12.850  19.549  0.0667  0.0016  0.2579
57657W        W  710  30.921  11.800   2.260  0.1005  0.1227  0.0702
57658W        W  711   1.983  10.775  16.565  0.0975 -0.1141  0.1197
57659W        W  712  25.616  13.262  17.786 -0.1902 -0.0158  0.2902
57660W        W  713   7.421  12.554  28.195 -0.2190  0.1397 -0.1888
57661W        W  714  12.344  28.649  23.499  0.0241 -0.0157 -0.2877
57662W        W  715  17.802  32.452  24.798 -0.1491  0.1381 -0.2801
57663W        W  716  11.011  14.942  15.640 -0.2616  0.1113  0.0490
57664W        W  717   5.869  22.662   0.302 -0.3026  0.1010 -0.0687
57665W        W  718  13.046  11.702  15.296 -0.0615  0.2875 -0.3960
57666W        W  719  25.436  16.729   4.237  0.0331 -0.0982  0.3049
57667W        W  720  12.786  26.766  16.297 -0.1337 -0.0192  0.1229
57668W        W  721  11.392   8.445  14.638  0.0636  0.1789 -0.0339
57669W        W  722  33.754  19.324   4.041  0.1292  0.1181  0.1984
57670W        W  723   8.215  14.265  21.047 -0.0470 -0.0970  0.1675
57671W        W  724  17.636   8.581   5.117 -0.0134 -0.0898 -0.0970
57672W        W  725  18.831  10.711  27.718 -0.1986 -0.0148 -0.2187
57673W        W  726  12.638   3.174  24.199  0.1974  0.0827 -0.0739
57674W        W  727   8.647  11.770  18.272  0.3943  0.0137  0.1294
57675W        W  728   1.899   2.233  24.784 -0.1582  0.2850  0.2723
57676W        W  729  12.809   1.283  17.982 -0.2893  0.0860  0.0163
57677W        W  730  29.280   6.867  16.538  0.1058 -0.0417 -0.1145
57678W        W  731  14.791  22.219   8.479  0.3433  0.3339  0.4431
57679W        W  732   3.956  14.078  21.908  0.0072  0.0218  0.0029
57680W        W  733   4.752   5.972  18.888  0.1794  0.1374  0.1062
57681W        W  734   9.367   3.081  21.971  0.0796 -0.0662  0.1272
57682W        W  735  24.334   7.340   8.748  0.1254 -0.1167  0.1723
57683W        W  736   4.073  23.811   2.708  0.0849  0.1701  0.1475
57684W        W  737  26.063   5.107  15.732 -0.1100 -0.1931  0.1357
57685W        W  738  24.712  11.033  27.512 -0.0234  0.1960  0.0977
57686W        W  739  18.508  32.749  28.568  0.1037  0.0334  0.0378
57687W        W  740  18.625  13.247   5.749  0.0216 -0.0886  0.2700
57688W        W  741  34.169  24.613  16.023 -0.1222  0.1179  0.0521
57689W        W  742  13.523  10.475  17.604 -0.0188  0.1391 -0.4634
57690W        W  743  25.591  12.968  24.924  0.0378  0.1226 -0.0907
57691W        W  744  18.466  27.595  20.986 -0.0023 -0.0367 -0.1342
57692W        W  745   2.300  15.778  28.177  0.1064 -0.0236  0.2136
57693W        W  746   8.760  16.300  10.021 -0.1664  0.1550  0.0938
57694W        W  747  16.210   0.610  19.859 -0.0066 -0.2849 -0.0750
57695W        W  748   2.109  14.710  18.558  0.1374 -0.0655 -0.0785
57696W        W  749  18.299  22.265  21.122 -0.0896 -0.2885  0.0104
57697W        W  750  21.838   7.182  19.448  0.3039  0.3194 -0.1072
57698W        W  751  17.692   5.503  24.158 -0.0728  0.1584 -0.5481
57699W        W  752  17.884   9.354  21.435  0.1537  0.1826  0.0146
57700W        W  753   2.004   8.288   7.885  0.0433  0.1498  0.1878
57701W        W  754  16.513   1.645  23.259 -0.3158 -0.2750 -0.0350
57702W        W  755  10.972   6.453  23.236 -0.1529 -0.2230  0.2083
57703W        W  756  32.186  22.324   4.767 -0.0094  0.2205  0.1898
57704W        W  757  22.836  11.782   1.795 -0.0965 -0.3498  0.0366
57705W        W  758  17.784   6.797   5.286 -0.2178  0.0040  0.0437
57706W        W  759  10.618  17.860  17.085  0.2692  0.0272  0.0800
57707W        W  760   4.397  10.243  14.165 -0.0037  0.0237 -0.1164
57708W        W  761   1.781  23.972  16.664  0.0520  0.1101  0.0666
57709W        W  762  15.056   5.822  26.053 -0.1144 -0.0935 -0.2152
57710W        W  763  26.634  32.360  15.726  0.0461 -0.0159  0.0693
57711W        W  764  22.437  30.345  24.759  0.2523  0.1870  0.1067
57712W        W  765  29.194  14.214   0.978 -0.2045  0.0138 -0.1101
57713W        W  766  33.302  16.153  14.555 -0.2212  0.2226 -0.0574
57714W        W  767  20.324   4.107   1.733 -0.1437  0.0759 -0.1261
57715W        W  768   9.803  15.112  25.695 -0.0036 -0.0257  0.1058
57716W        W  769  27.285   0.152  25.956  0.1666 -0.2704  0.0735
57717W        W  770  14.090  21.474  24.896  0.2606 -0.0494 -0.3243
57718W        W  771   3.941   0.403  16.450  0.0285  0.0811 -0.0211
57719W        W  772   3.397  16.105  16.414  0.1124  0.1773  0.2487
57720W        W  773  15.133   4.264   3.177 -0.0307 -0.1017 -0.0805
57721W        W  774  15.602   7.184   6.503 -0.0330 -0.0421 -0.1256
57722W        W  775  32.222  16.924   6.731 -0.0159  0.1904 -0.0191
57723W        W  776  15.623  25.268  18.998  0.1235  0.1810 -0.0250
57724W        W  777  19.964  20.568  14.527  0.1499 -0.1539  0.2841
57725W        W  778  16.243   8.448   0.819 -0.1212  0.2937  0.0894
57726W        W  779   5.705  17.171  13.140  0.0815 -0.0524  0.1987
57727W        W  780  31.009  32.977   0.104  0.4637  0.4495  0.3136
57728W        W  781   1.478  14.878  13.818 -0.1127  0.1757 -0.1809
57729W        W  782   6.751  21.897   5.574  0.0225 -0.2865 -0.0248
57730W        W  783  30.088  23.556  23.427  0.0005  0.2439 -0.0511
57731W        W  784  11.997  26.937  21.495  0.1447  0.3926  0.1121
57732W        W  785   8.335  28.188  13.838 -0.1027 -0.0050  0.0974
57733W        W  786  22.972   5.295  17.434 -0.0128 -0.1234  0.0402
57734W        W  787  13.192  19.983  24.502 -0.2391  0.2349  0.0344
57735W        W  788   8.200   3.793  27.593  0.1811 -0.4063 -0.0636
57736W        W  789  33.340  14.696  21.875  0.3609 -0.2055 -0.3353
57737W        W  790   9.753   4.318  26.196 -0.0678 -0.1377  0.2173
57738W        W  791  11.899  12.163  16.673 -0.0073  0.2333  0.0895
57739W        W  792   7.174  18.593  18.251 -0.1417 -0.1187  0.1672
57740W        W  793  13.288  21.481  15.924  0.0919 -0.2167  0.4221
57741W        W  794  30.587  15.405  23.604 -0.1217  0.3192  0.2287
57742W        W  795  22.856  18.293  24.969 -0.3102  0.1487  0.1052
57743W        W  796   7.385  15.285  16.421 -0.2430  0.0755 -0.5581
57744W        W  797   3.785  12.876  26.239 -0.1165  0.1508 -0.1611
57745W        W  798  23.642  29.997  15.525  0.1047  0.0239  0.0319
57746W        W  799  16.147  17.861  23.898  0.0756 -0.0822  0.1564
57747W        W  800  13.362   7.551  21.210 -0.4174 -0.1727  0.1304
57748W        W  801  30.076   9.280  18.930  0.0037  0.0551  0.2471
57749W        W  802   8.593  10.490   0.121 -0.1752  0.2415 -0.0617
57750W        W  803  28.023  26.570  14.184  0.0759  0.0110 -0.3351
57751W        W  804   0.222  34.500  28.383 -0.1863 -0.0870 -0.1530
57752W        W  805  11.568   9.960   5.950 -0.2203 -0.0029  0.0233
57753W        W  806  10.850  24.584  24.311 -0.0244 -0.0215  0.1748
57754W        W  807  13.514  26.727  21.225  0.0640 -0.3049 -0.0209
57755W        W  808  34.265  22.909  28.681  0.0160  0.3074  0.1031
57756W        W  809   2.727  15.735   5.835 -0.4261 -0.2338 -0.4015
57757W        W  810  22.041  31.923  19.500  0.2278  0.1747  0.1735
57758W        W  811   4.672  23.152   6.537  0.0784  0.3289 -0.1914
57759W        W  812   7.493  15.096  22.643 -0.2800 -0.0171 -0.0785
57760W        W  813  25.703  17.514   7.772  0.2243 -0.3348 -0.1470
57761W        W  814  26.584   7.497  27.232 -0.3604  0.1611  0.2229
57762W        W  815   1.527  27.075  17.861 -0.1049 -0.0763  0.1407
57763W        W  816   6.080  13.487  15.956 -0.2285 -0.1040 -0.0657
57764W        W  817  17.966  17.597   8.669  0.3600  0.0302  0.3507
57765W        W  818   6.724  16.380  23.649 -0.2645 -0.1481  0.2300
57766W        W  819  11.232  11.054  20.636 -0.1857  0.1070 -0.1391
57767W        W  820   2.455  17.918  20.123 -0.2117 -0.2888  0.1517
57768W        W  821  14.612  15.563  24.661  0.0518  0.0475  0.0427
57769W        W  822  22.460   6.795   8.326  0.2401 -0.1115  0.2800
57770W        W  823   8.289  22.007  27.929 -0.3779  0.1590 -0.1855
57771W        W  824  23.153  13.718  24.475  0.0856 -0.0455 -0.1206
57772W        W  825  24.233  15.725  16.753  0.3217 -0.0073 -0.2340
57773W        W  826   6.942  14.182   9.545 -0.3134 -0.1383  0.0545
57774W        W  827   2.062   5.642  21.015 -0.0972  0.0618 -0.0267
57775W        W  828  27.142  33.262  28.698 -0.1492 -0.0930  0.1819
57776W        W  829  21.018   4.082  24.504 -0.2308  0.2359 -0.1317
57777W        W  830  12.422   4.268  26.071  0.0759  0.0584 -0.3921
57778W        W  831  16.827   1.074  24.061  0.0998  0.1379 -0.1077
57779W        W  832   3.440  21.039  15.534 -0.0295  0.0166 -0.2034
57780W        W  833  22.802  22.539  19.950  0.1110 -0.2328 -0.0521
57781W        W  834  12.711  14.272  25.660  0.2291  0.0506  0.2956
57782W        W  835  12.969   3.185  17.418 -0.1145 -0.2442  0.0441
57783W        W  836  22.959   0.455  24.996 -0.1275 -0.2597  0.2040
57784W        W  837  17.331   4.849  26.779  0.1883 -0.1544 -0.2258
57785W        W  838  32.721   6.466   4.025  0.1617 -0.3206  0.0422
57786W        W  839   4.075  16.188  21.350 -0.2163  0.1639 -0.1171
57787W        W  840   6.143   0.541  28.425 -0.1545  0.0113  0.2205
57788W        W  841  18.941   9.025  19.604 -0.0658 -0.6701 -0.2268
57789W        W  842   9.830  19.083  28.780  0.3326 -0.0658 -0.2472
57790W        W  843  14.651  10.105  17.065 -0.1309  0.1398 -0.2805
57791W        W  844   2.286  11.199   4.159  0.0648 -0.2032  0.1675
57792W        W  845   5.519  10.699  17.634 -0.1739  0.0432  0.0027
57793W        W  846   9.158   5.859   3.382 -0.0318 -0.0493  0.1458
57794W        W  847   8.293  13.660  28.737  0.1219  0.1698  0.1431
57795W        W  848   4.381  18.730   2.293 -0.0381  0.1124  0.1296
57796W        W  849   7.316   2.148  19.511 -0.1551  0.0658 -0.1121
57797W        W  850   7.778  24.743  27.623  0.0226 -0.2853 -0.0512
57798W        W  851   6.534  31.617   5.863  0.3071 -0.0393  0.0032
57799W        W  852  32.859  28.076  17.952  0.0471 -0.1050 -0.0857
57800W        W  853  19.660   6.003  26.836 -0.0700 -0.2082 -0.1621
57801W        W  854  14.281  33.818  18.129 -0.1839  0.0469 -0.1047
57802W        W  855  17.064   1.240   0.377 -0.3148  0.0857  0.1017
57803W        W  856  20.071  17.154  14.669  0.1039  0.0894  0.0476
57804W        W  857  27.224   5.172  18.211  0.1877 -0.1386  0.2047
57805W        W  858   2.948  18.847  25.367 -0.0934  0.3087 -0.2108
57806W        W  859  10.559  18.737  25.207  0.2767  0.3718 -0.1578
57807W        W  860   8.018   5.253  21.660 -0.0905  0.0388 -0.1697
57808W        W  861  24.171   9.888  23.362  0.1479  0.0565 -0.3041
57809W        W  862   9.288   7.855  16.170 -0.0491 -0.0783 -0.4895
57810W        W  863  15.992  11.343  23.910 -0.1747  0.0076 -0.3345
57811W        W  864   9.884  15.948   1.196 -0.1831 -0.2512 -0.0559
57812W        W  865   8.383  10.463  19.894 -0.1861  0.2446  0.0236
57813W        W  866   3.568  19.530   2.687  0.0588  0.1487  0.1629
57814W        W  867  19.065  12.100  19.143  0.0712 -0.0200  0.2312
57815W        W  868  26.614  17.978  15.227  0.2875  0.1804 -0.0242
57816W        W  869  12.739   1.316  14.052  0.1284 -0.2189 -0.0877
57817W        W  870   0.696   3.944   8.587 -0.0404  0.0259 -0.1770
57818W        W  871  34.084  14.697  18.513 -0.1281 -0.0231 -0.0467
57819W        W  872  19.463   7.911   5.111  0.4401  0.0728 -0.2306
57820W        W  873  24.706  31.928  19.846 -0.0436  0.1149 -0.1452
57821W        W  874  34.488  26.373  21.604 -0.1754  0.1013 -0.3093
57822W        W  875   8.310  15.228  19.990 -0.2843 -0.4678 -0.1268
57823W        W  876  11.237  16.137  18.450 -0.1431 -0.0385  0.2433
57824W        W  877   0.813  27.627  22.865 -0.1858  0.0955  0.0314
57825W        W  878  17.114  10.566  22.426  0.0183 -0.0294 -0.2317
57826W        W  879  29.349  31.849   5.295 -0.2033  0.0824 -0.1694
57827W        W  880  26.526   0.178  22.771  0.0944 -0.2203  0.0018
57828W        W  881  14.052  29.409  18.370  0.3449 -0.0300 -0.0769
57829W        W  882  25.500  34.550   9.747  0.3110  0.1335 -0.1402
57830W        W  883  22.334  11.165   5.867 -0.0702 -0.2451  0.2406
57831W        W  884  33.467  17.604  21.167 -0.5180  0.0244  0.4071
57832W        W  885  19.550   9.232  23.023 -0.2916 -0.0777 -0.1498
57833W        W  886  10.987  22.532  14.655 -0.0568  0.0910  0.2177
57834W        W  887  20.588  14.400   6.640 -0.1011  0.0860  0.0600
57835W        W  888  14.058  18.013  17.347  0.0714  0.1942 -0.2607
57836W        W  889  31.330   5.201   2.620  0.0292 -0.0471 -0.0632
57837W        W  890   0.100  12.017   8.957  0.0471 -0.1100 -0.1421
57838W        W  891   6.050   9.854  18.509 -0.2871 -0.0874 -0.3162
57839W        W  892  27.699   4.800  15.547  0.3562  0.0157 -0.0158
57840W        W  893   1.723   7.940  26.545  0.1434  0.3268 -0.2413
57841W        W  894  13.401  10.826   6.484 -0.1918  0.3629 -0.2238
57842W        W  895  20.853   8.268  27.241  0.2795  0.2422  0.4000
57843W        W  896  14.360  10.392   3.810 -0.2071 -0.0092 -0.3108
57844W        W  897   0.222  15.106   0.002 -0.0862  0.1262 -0.0174
57845W        W  898  13.989   2.544  14.082  0.0145  0.2890 -0.1923
57846W        W  899   3.898  28.624  28.557 -0.0683  0.2401 -0.0011
57847W        W  900  28.302  15.330  19.688 -0.2568  0.0939  0.2761
57848W        W  901   4.146  21.379  16.703 -0.0168 -0.2231  0.1943
57849W        W  902  19.571  13.363   4.031  0.1128 -0.1324  0.0081
57850W        W  903  24.223  34.025  26.452  0.0084 -0.3141 -0.1241
57851W        W  904  13.003  17.335   7.264  0.1083 -0.0116 -0.0681
57852W        W  905   5.926  11.043  18.785 -0.2002 -0.0438 -0.1096
57853W        W  906   3.676  21.882  16.333  0.0187  0.3944 -0.0949
57854W        W  907  26.189   6.701  24.992  0.0044 -0.0600 -0.1716
57855W        W  908   7.183   9.604  17.042 -0.1084  0.1195 -0.3387
57856W        W  909  12.744  13.390  19.329 -0.1033 -0.2254  0.0918
57857W        W  910  13.606  22.821  19.568  0.0714  0.1515 -0.1959
57858W        W  911  12.391  16.674  18.384 -0.0132 -0.2525 -0.2313
57859W        W  912  15.620  25.620   0.915 -0.0385 -0.2491 -0.1603
57860W        W  913   9.693   6.170  28.191  0.0921  0.4002  0.0517
57861W        W  914  14.613  13.857   9.764 -0.3412 -0.0718  0.2422
57862W        W  915  21.278   5.038  21.931 -0.1375  0.2707  0.1115
57863W        W  916  12.215  30.888   2.500 -0.0338 -0.3769 -0.1740
57864W        W  917   7.326  18.115  20.051 -0.0669  0.1228 -0.0146
57865W        W  918  10.342  13.772   4.098 -0.0815 -0.3393  0.1203
57866W        W  919   3.708  13.929  20.487 -0.2142 -0.2032 -0.1939
57867W        W  920   3.879  31.954  13.834 -0.1779  0.0675  0.1172
57868W        W  921   6.431   0.157  20.744  0.0036  0.0015  0.3777
57869W        W  922  16.603  29.407  15.692  0.1642 -0.0927  0.2127
57870W        W  923  25.023   0.226  22.480  0.3450 -0.3070  0.0957
57871W        W  924   8.590   3.568  14.265  0.0699  0.1626 -0.1068
57872W        W  925  24.459  33.737  24.329 -0.0293  0.0450  0.1551
57873W        W  926  28.047  28.672  14.158 -0.1314  0.1593 -0.3402
57874W        W  927  10.279  10.100  15.020 -0.0456  0.0157 -0.0166
57875W        W  928  14.226  23.954  15.662 -0.2528 -0.1592 -0.1722
57876W        W  929  25.305  27.655  14.304 -0.1779  0.3080 -0.1742
57877W        W  930  12.416  15.542   1.055  0.0789 -0.0936  0.2101
57878W        W  931  32.243  16.084  15.935 -0.2759 -0.0952 -0.2979
57879W        W  932   3.089  17.489   2.130  0.1505  0.0479 -0.2315
57880W        W  933  20.574  30.582  25.562  0.0974  0.1703  0.0964
57881W        W  934   8.179  30.230  15.876 -0.2359 -0.1143 -0.0680
57882W        W  935  22.597   9.433   3.997  0.1810  0.0627  0.0376
57883W        W  936  32.066  10.766   8.078  0.2201 -0.3071 -0.0442
57884W        W  937   6.108   7.446  27.563 -0.0646  0.0015  0.0653
57885W        W  938  16.163  15.010  15.776 -0.0534 -0.1028 -0.0368
57886W        W  939   5.235   5.864  15.872 -0.0686 -0.3123 -0.1942
57887W        W  940  25.365  30.620   4.118  0.1160 -0.1249 -0.2859
57888W        W  941  23.854  13.204   0.664 -0.1018  0.2298  0.1911
57889W        W  942  20.786  34.158   0.194  0.1257  0.1830 -0.0660
57890W        W  943  32.202  34.583  27.339 -0.2604  0.1902 -0.1450
57891W        W  944   4.056   9.195   7.267 -0.1219  0.2979  0.0959
57892W        W  945  22.508   5.875   6.417 -0.1574  0.1221  0.0112
57893W        W  946   1.543  11.181  15.049 -0.0001 -0.2060 -0.3413
57894W        W  947   8.788   5.153  20.492 -0.1426  0.1398 -0.0231
57895W        W  948   4.004   6.599   5.392 -0.2307  0.2516 -0.2078
57896W        W  949  20.331  16.503  13.971  0.3786 -0.0227  0.2771
57897W        W  950   0.023  15.493   4.067 -0.1311  0.0252  0.1266
57898W        W  951  20.005   9.044   9.144  0.0539 -0.0918 -0.0961
57899W        W  952  24.873  13.984  21.745 -0.0987  0.0542 -0.1238
57900W        W  953   8.220   8.010  21.862 -0.1825  0.4699  0.1364
57901W        W  954  15.044   6.365  14.240 -0.1361 -0.2520 -0.1211
57902W        W  955   9.636   8.391  18.973 -0.2504 -0.1950  0.3049
57903W        W  956  10.826  10.511   5.105 -0.2027  0.1083  0.0453
57904W        W  957  20.564  33.920  21.471 -0.0614  0.2617 -0.3276
57905W        W  958  19.126   9.970   0.710 -0.0451 -0.2982 -0.0558
57906W        W  959   4.647   7.476   8.163 -0.2635 -0.3873  0.1344
57907W        W  960  16.183   6.340  20.234  0.0138  0.1389  0.1024
57908W        W  961   1.823  10.453  21.300  0.2003 -0.1313  0.0937
57909W        W  962  14.336   5.353  25.927  0.3811  0.1207  0.0475
57910W        W  963  20.527  13.823  15.317  0.3182 -0.0341  0.0196
57911W        W  964   3.321  10.070  22.064 -0.1070  0.2373 -0.1115
57912W        W  965   6.606  27.707  14.129 -0.3444 -0.0938 -0.0470
57913W        W  966  16.519   8.997  23.793  0.2782  0.0954 -0.4204
57914W        W  967  33.623   7.630   5.403 -0.0352 -0.0833 -0.0956
57915W        W  968  22.574  19.307  14.403  0.1089  0.0132  0.1960
57916W        W  969  29.362  15.341  27.073 -0.1297 -0.3996  0.0222
57917W        W  970   9.592   3.802  26.003 -0.1321 -0.3162  0.0068
57918W        W  971  17.366  26.846  17.983 -0.1508  0.1369  0.1464
57919W        W  972  20.346  26.230  17.398 -0.1318 -0.1070 -0.0635
57920W        W  973  34.234  26.903   8.901  0.0404  0.0850  0.0025
57921W        W  974  20.957  13.459  14.621  0.2359 -0.1357 -0.0645
57922W        W  975   3.955  12.905  18.819 -0.2567 -0.1004 -0.0027
57923W        W  976  17.463  14.947   3.676  0.1204  0.1185  0.1839
57924W        W  977  16.746   6.092  25.717 -0.0089  0.1226  0.1658
57925W        W  978  19.122  16.184   7.363 -0.1617 -0.1228 -0.0817
57926W        W  979  20.688   1.103   9.123 -0.0429 -0.2207  0.1549
57927W        W  980  11.410   1.655  23.924  0.0135  0.1019 -0.4936
57928W        W  981  10.916  25.261   2.154  0.1688 -0.5076  0.2527
57929W        W  982  12.253  10.899  28.918  0.0063 -0.1460 -0.0483
57930W        W  983   1.392  22.739  27.266 -0.3600 -0.1480 -0.2106
57931W        W  984   1.460  20.913   6.932 -0.1919 -0.0175  0.0428
57932W        W  985  10.209  26.647  28.354  0.0355 -0.1927 -0.0011
57933W        W  986   3.316  19.103  17.021  0.0923  0.3182 -0.0264
57934W        W  987   2.828   0.372   1.897 -0.1959 -0.1210 -0.1077
57935W        W  988  16.571  20.360   6.255  0.0832 -0.3867 -0.0664
57936W        W  989  13.419  19.495  18.242  0.3373 -0.0620  0.3012
57937W        W  990   4.455  11.985  25.520  0.1141  0.0074 -0.5206
57938W        W  991  11.241   5.899  15.603  0.1924 -0.1336 -0.0408
57939W        W  992  14.307  14.242  20.741 -0.1494  0.1499  0.0119
57940W        W  993  18.093  20.216  16.785 -0.1398 -0.0236 -0.1289
57941W        W  994  11.624  26.687  17.104 -0.3498  0.1848  0.0542
57942W        W  995   4.995   4.729  28.466 -0.0660 -0.0759 -0.1581
57943W        W  996  28.160  28.434   9.075  0.2096  0.1335  0.3348
57944W        W  997  15.580  13.938  20.680  0.2452 -0.1104 -0.0562
57945W        W  998  14.552   0.865   6.907  0.0756 -0.3556 -0.1255
57946W        W  999  25.098  10.429   7.419 -0.1111 -0.0950  0.2321
57947W        W 1000   2.508   5.455  15.297  0.0591 -0.1864  0.1346
57948W        W 1001  33.511  21.731  20.821  0.0399 -0.1183  0.2048
57949W        W 1002   9.311  21.441  25.010  0.2481 -0.1634 -0.0091
57950W        W 1003   5.306  17.853  19.242  0.2499  0.0823  0.0071
57951W        W 1004  14.847   5.413  15.753  0.4138 -0.0309  0.4096
57952W        W 1005  30.237   5.646  24.141  0.1094 -0.2723  0.1961
57953W        W 1006  19.059   4.705   2.923  0.0956  0.0155  0.1648
57954W        W 1007  28.125  17.819   1.534  0.2306  0.2508 -0.4797
57955W        W 1008  11.635   7.885   5.152  0.1422  0.0575  0.1960
57956W        W 1009   6.912   8.442  10.866  0.1710 -0.0342 -0.1456
57957W        W 1010  29.344   9.859   5.801  0.1861 -0.1751 -0.0120
57958W        W 1011  23.989  10.389  28.767  0.3315  0.0904  0.0386
57959W        W 1012   1.796  11.074  21.517  0.0804  0.0886  0.0046
57960W        W 1013  25.431  34.037  22.406  0.1786 -0.2829  0.1510
57961W        W 1014  17.840  31.283  20.733  0.2038 -0.1981  0.2732
57962W        W 1015   0.164  14.662   4.428  0.0482 -0.4098  0.1902
57963W        W 1016  17.384  22.630  22.800  0.3199  0.1487  0.2469
57964W        W 1017  23.453   4.990  21.531  0.0754 -0.1343 -0.1920
57965W        W 1018  10.424  16.555  23.244  0.2858  0.0879 -0.2966
57966W        W 1019  13.316  27.127   6.819 -0.0093 -0.0416 -0.0022
57967W        W 1020  16.144   7.357   1.596  0.0797  0.0883 -0.1970
57968W        W 1021  10.553  18.840  16.724 -0.1056 -0.4192 -0.0110
57969W        W 1022  31.202  20.646   3.328 -0.0843  0.1550 -0.0928
57970W        W 1023  18.011   1.515  25.745 -0.0161  0.2892  0.0398
57971W        W 1024   6.703  16.487   7.887  0.0630  0.0230  0.1703
57972W        W 1025   5.126  18.608  26.383  0.0657  0.1420 -0.1446
57973W        W 1026   7.222  11.125  27.882  0.0925  0.1774  0.0440
57974W        W 1027  25.167  21.696   1.595 -0.0319 -0.2385  0.0770
57975W        W 1028  33.523  32.982   3.944  0.1065 -0.0865 -0.0363
57976W        W 1029   3.473  18.840  19.047 -0.0916 -0.1017 -0.0280
57977W        W 1030  15.258  34.521  26.100 -0.2152  0.3242  0.0898
57978W        W 1031   0.978   3.056  27.216  0.0806  0.2330  0.2493
57979W        W 1032   8.966  20.874  27.911 -0.0876 -0.4156  0.2925
57980W        W 1033  19.960  16.699   2.659 -0.6294 -0.2148 -0.1553
57981W        W 1034  22.029  16.322   7.613 -0.2021 -0.0344  0.1187
57982W        W 1035   8.525  14.672  22.985  0.4240  0.0795  0.0100
57983W        W 1036  15.665  12.273   4.241  0.0927  0.2358  0.1075
57984W        W 1037  11.248  17.994  28.834  0.1066 -0.1070 -0.0537
57985W        W 1038  12.400  12.201   0.203  0.1241  0.2111 -0.0304
57986W        W 1039  23.163  32.164   4.895  0.0157 -0.0685  0.0119
57987W        W 1040  20.388  25.094  28.629 -0.2210 -0.0367  0.1302
57988W        W 1041  18.331  14.674   0.073  0.2654  0.1519  0.0356
57989W        W 1042  32.828   6.055  19.313 -0.2168  0.1047 -0.1452
57990W        W 1043   7.669  20.208  16.677  0.0713 -0.0651 -0.2238
57991W        W 1044  19.436  16.769   1.385  0.0027 -0.0009  0.0013
57992W        W 1045  29.777  27.199   3.827  0.1190 -0.2692 -0.0562
57993W        W 1046  31.434   9.143  25.927 -0.0031 -0.0038  0.0350
57994W        W 1047   6.516  15.158  20.332 -0.0505 -0.2393  0.0103
57995W        W 1048  20.068  20.703  15.940  0.2259 -0.1375  0.2260
57996W        W 1049   9.282  24.265  14.231  0.0711  0.4231  0.3595
57997W        W 1050  10.063  28.410   2.182  0.0404 -0.0388 -0.1154
57998W        W 1051   4.653   9.957   2.555  0.2075 -0.1028  0.2349
57999W        W 1052   5.777  30.456  17.222 -0.0247 -0.0646 -0.0757
58000W        W 1053  13.531  30.527  23.661  0.0673 -0.0623 -0.2251
58001W        W 1054   6.253  24.188  18.354  0.4895 -0.0280  0.3055
58002W        W 1055   6.091  24.885  28.836  0.1424  0.0388  0.3164
58003W        W 1056  11.804  18.471  24.113  0.2858 -0.0698  0.0947
58004W        W 1057  12.788   9.038  16.224  0.2694  0.2576 -0.1454
58005W        W 1058  34.254   9.416  17.235  0.1756  0.0050 -0.2143
58006W        W 1059  20.146  21.034  22.041 -0.1246 -0.3541  0.1040
58007W        W 1060   6.925   7.421  27.378  0.0590 -0.2019 -0.1295
58008W        W 1061  25.179  18.047  21.783 -0.1539 -0.2200  0.1328
58009W        W 1062  15.686   7.278  21.850 -0.2033  0.1746  0.0459
58010W        W 1063  14.740  10.540   2.307 -0.0805 -0.2950 -0.1163
58011W        W 1064  16.250  16.955   2.622  0.2436 -0.0648  0.0998
58012W        W 1065  12.156  16.315  21.098  0.1541 -0.0448  0.1724
58013W        W 1066  10.209  12.876  26.813  0.0982 -0.0588 -0.1597
58014W        W 1067   8.102  19.482   3.708  0.2360  0.1251  0.0749
58015W        W 1068   9.935  19.385  19.934 -0.2117  0.3700 -0.0494
58016W        W 1069   5.117  11.926  24.996 -0.1935 -0.1194  0.1444
58017W        W 1070  19.191   8.134  19.820  0.0107  0.0083  0.2443
58018W        W 1071   8.039  23.773  18.242 -0.0556 -0.0828  0.0664
58019W        W 1072  19.951  20.453  10.097  0.0651 -0.1080 -0.4092
58020W        W 1073  12.123   6.905  28.241 -0.1778  0.0452 -0.2923
58021W        W 1074  14.659   0.788   3.480 -0.0025  0.0004  0.3019
58022W        W 1075  19.088  31.366  23.606  0.0802  0.1125  0.4559
58023W        W 1076  12.754  32.489  15.846 -0.2813 -0.1855  0.0826
58024W        W 1077   9.505  15.731  28.788  0.0872 -0.1600 -0.3849
58025W        W 1078   2.133   9.567  20.739  0.1191  0.2816  0.0825
58026W        W 1079  16.883  13.070   8.479  0.1133 -0.0517  0.1005
58027W        W 1080   3.352  18.707  15.085 -0.0161  0.1334  0.1501
58028W        W 1081  33.445  26.582  24.265 -0.0601  0.1185 -0.0235
58029W        W 1082   7.404   8.526  15.907 -0.2062  0.1895 -0.1711
58030W        W 1083   6.423  14.905  15.459 -0.1535 -0.1982 -0.1053
58031W        W 1084  14.084   4.327   4.064 -0.1012  0.1080 -0.0624
58032W        W 1085   9.971   3.743  17.698  0.2641  0.1625  0.1175
58033W        W 1086   2.850  14.875  28.358 -0.2643  0.0782 -0.2506
58034W        W 1087  21.147  11.586   0.972  0.0313  0.0082 -0.0248
58035W        W 1088  13.856   5.823  25.386 -0.3337  0.2042  0.2710
58036W        W 1089   7.145  17.150  18.115  0.0502 -0.0295  0.2473
58037W        W 1090  14.005   0.592  27.347 -0.0509 -0.0453 -0.0518
58038W        W 1091  19.686  28.043   7.008 -0.5461  0.2020 -0.1656
58039W        W 1092   5.836   2.677   8.254  0.0290 -0.0252  0.3681
58040W        W 1093  21.972   2.845  22.903  0.0031  0.1865  0.0080
58041W        W 1094  10.718  11.902  18.865  0.0093 -0.2118 -0.2012
58042W        W 1095  11.345  33.344  20.778  0.0466 -0.0818  0.0227
58043W        W 1096   0.703   6.682   4.336 -0.0324  0.1583 -0.0066
58044W        W 1097   6.677  26.187   7.558  0.0246  0.1890  0.0291
58045W        W 1098  15.418  11.326   9.769  0.1938 -0.2945  0.0418
58046W        W 1099  13.522  19.808   3.440  0.0077  0.1242 -0.1263
58047W        W 1100  16.638  28.566  28.985 -0.2809  0.1635 -0.3671
58048W        W 1101   6.065  26.264  28.454  0.6004 -0.2611 -0.1733
58049W        W 1102  22.654  20.684  15.057 -0.2201 -0.0230 -0.1497
58050W        W 1103  33.273  31.592  23.169  0.1846 -0.0796  0.0468
58051W        W 1104  20.670   4.097  16.062  0.1868 -0.2278  0.0017
58052W        W 1105  13.522   6.496   0.610 -0.2576 -0.3535 -0.0475
58053W        W 1106   7.824  10.032  22.644  0.3083 -0.0825 -0.0648
58054W        W 1107  29.354  14.761  23.476 -0.2832 -0.1702  0.0303
58055W        W 1108  14.934  15.780  26.279  0.0038 -0.1564  0.1722
58056W        W 1109   3.176  19.504   3.776 -0.1337  0.2956 -0.2070
58057W        W 1110  30.855  27.391  24.311  0.2445 -0.3824  0.1197
58058W        W 1111  13.047  11.011  20.930 -0.0931  0.2103  0.0034
58059W        W 1112   0.114  15.914  17.581 -0.1879  0.7356  0.0304
58060W        W 1113   0.400  19.318  24.597 -0.0634  0.1205 -0.1883
58061W        W 1114   4.467  11.767   2.851 -0.0873  0.1441  0.1484
58062W        W 1115  13.096   5.766  14.700  0.1263 -0.4879 -0.1075
58063W        W 1116  15.293  18.601  14.938 -0.0222  0.1269  0.1549
58064W        W 1117  21.180  11.791  23.976  0.1837  0.3188 -0.4105
58065W        W 1118   8.616   9.203   5.108  0.1085 -0.1194  0.1128
58066W        W 1119  20.583  20.749  25.128  0.2152 -0.2248 -0.1947
58067W        W 1120   6.182  11.854   0.874 -0.4776 -0.0331  0.0738
58068W        W 1121   9.500   6.845  21.386 -0.0951  0.1917  0.2283
58069W        W 1122   7.376  11.061   0.306  0.0289 -0.3087  0.2901
58070W        W 1123  21.457  15.621   9.550  0.1241 -0.3263  0.0083
58071W        W 1124  29.851  10.633  24.639 -0.2682 -0.0424  0.2748
58072W        W 1125   5.001  24.229   5.430 -0.2797 -0.4621 -0.0105
58073W        W 1126  29.638  14.095   5.463  0.2019  0.1123  0.0227
58074W        W 1127  17.927  31.370   6.629  0.1725 -0.1967  0.0735
58075W        W 1128  19.640  29.804  14.911  0.1077  0.0589 -0.0826
58076W        W 1129  21.380  13.035  27.249 -0.2126 -0.1120 -0.0859
58077W        W 1130   6.993  12.651   2.951 -0.0625 -0.1735 -0.0542
58078W        W 1131  11.284  21.932  29.131 -0.1570  0.0103  0.0269
58079W        W 1132  33.934   2.158   0.682  0.0004 -0.1664 -0.0697
58080W        W 1133  33.216  21.708  24.849  0.3517  0.1093  0.4258
58081W        W 1134   8.680  21.261   7.490 -0.4533  0.0771 -0.1366
58082W        W 1135  19.641  16.729   5.432  0.4138 -0.5155 -0.0460
58083W        W 1136  20.802  15.674   1.680 -0.1524 -0.0155  0.1220
58084W        W 1137  33.399  16.506   6.935 -0.0763  0.2243  0.2551
58085W        W 1138  19.946   9.677  26.898 -0.1115 -0.1261 -0.1108
58086W        W 1139   7.124  10.534   2.688 -0.1320 -0.2810  0.0207
58087W        W 1140   7.870  19.219   9.361  0.0331 -0.2006 -0.1036
58088W        W 1141  21.172  14.590  20.421 -0.0907 -0.2398  0.1627
58089W        W 1142   5.535   5.647  26.435  0.0486 -0.0534  0.0198
58090W        W 1143  22.646  20.452  10.154 -0.0500  0.2478  0.0417
58091W        W 1144  12.206  16.701   9.182  0.2702  0.1893  0.0881
58092W        W 1145   9.542  21.121  28.052 -0.1889  0.0841 -0.2151
58093W        W 1146  24.473  10.773  23.680 -0.0046 -0.1476 -0.1702
58094W        W 1147  24.598  30.011  23.999  0.4367 -0.1709  0.1308
58095W        W 1148  33.871   8.582   2.783  0.2288 -0.0120 -0.2082
58096W        W 1149  10.243   0.893  22.321 -0.0370  0.1184  0.0803
58097W        W 1150  13.333   1.222  28.492  0.0344  0.1887  0.1378
58098W        W 1151  24.405  13.049  27.818  0.3387  0.1071 -0.3528
58099W        W 1152   1.382  14.736   3.038  0.1536 -0.0223  0.2029
58100W        W 1153  19.554  31.509   4.227 -0.1442  0.2017  0.1616
58101W        W 1154   6.361  14.028  22.154  0.2864 -0.0600 -0.0495
58102W        W 1155   9.565  23.693   0.774 -0.1189  0.0180  0.0553
58103W        W 1156  18.647   5.349  25.590 -0.1256  0.0544  0.0409
58104W        W 1157  22.085  25.422  27.844 -0.0950 -0.0533  0.0531
58105W        W 1158  31.908  22.499  18.585 -0.4030  0.1827 -0.0941
58106W        W 1159   9.013   4.619   7.110  0.1617 -0.1759  0.1158
58107W        W 1160  14.894  27.284  22.407 -0.1867  0.1420 -0.0163
58108W        W 1161  17.521  12.218  16.024  0.0499 -0.0151  0.1583
58109W        W 1162  23.325  15.658  19.060 -0.2109 -0.0872  0.1818
58110W        W 1163   6.438  16.759  17.512 -0.2200  0.1396 -0.0767
58111W        W 1164   2.415   3.990  29.085 -0.1350  0.0834  0.1856
58112W        W 1165  23.742  33.760  29.041  0.2130 -0.2030 -0.0877
58113W        W 1166  11.156  11.618  16.862  0.1517  0.1934  0.1187
58114W        W 1167   4.559  19.380  24.375 -0.0559 -0.2304 -0.1424
58115W        W 1168  16.299  10.020  27.060 -0.2513 -0.0079 -0.0895
58116W        W 1169  25.486  11.229  17.795 -0.0128 -0.0054 -0.3762
58117W        W 1170  15.935  18.196  25.700  0.1469 -0.0832 -0.3044
58118W        W 1171  23.979   5.399  20.615  0.2145 -0.0785 -0.3543
58119W        W 1172  18.125  12.194  19.294 -0.4459 -0.1186 -0.5493
58120W        W 1173   2.251  18.331  24.953 -0.1749 -0.1362 -0.0163
58121W        W 1174   4.303  24.446  26.552  0.0228 -0.2264 -0.2474
58122W        W 1175  11.269  16.797  17.261  0.1654  0.2588 -0.1091
58123W        W 1176  14.987   4.495   3.554 -0.3860  0.4839  0.2477
58124W        W 1177   3.759  33.899   2.905 -0.3508 -0.0905 -0.0207
58125W        W 1178  29.055  16.223   3.964 -0.0080  0.2118  0.0710
58126W        W 1179  16.509  14.617   3.206 -0.0913 -0.1583  0.0343
58127W        W 1180  14.714  34.338  13.917  0.0187  0.0857  0.1385
58128W        W 1181  16.806   4.886  29.171  0.1642  0.2512 -0.2232
58129W        W 1182  26.417   9.431   7.896  0.0474  0.2731 -0.0560
58130W        W 1183  10.023   2.911   1.077  0.0110  0.0515  0.0524
58131W        W 1184   9.398  13.685   5.055  0.0872  0.1065 -0.1830
58132W        W 1185   7.735  12.206   9.588 -0.1050 -0.4140  0.4635
58133W        W 1186   3.302   7.257  14.663  0.0178 -0.0127  0.0551
58134W        W 1187  12.141  19.216   6.535 -0.3072 -0.0873 -0.2205
58135W        W 1188  33.175  33.915  21.498 -0.1635 -0.3434  0.1069
58136W        W 1189   0.894  16.798  20.988 -0.1388  0.0284  0.3312
58137W        W 1190  15.146   6.635  18.383 -0.0915 -0.3550 -0.0212
58138W        W 1191  10.290   1.834   5.463 -0.0066 -0.0971 -0.1444
58139W        W 1192  15.273   6.501   3.962 -0.0215 -0.2090 -0.2120
58140W        W 1193   8.810  10.875  10.212  0.2426  0.3534 -0.1346
58141W        W 1194  10.079  17.919  14.424  0.2516 -0.1554  0.1726
58142W        W 1195   3.509   0.902   0.347 -0.0995 -0.3106  0.0394
58143W        W 1196   4.346  17.099   2.669 -0.2958 -0.2759 -0.1158
58144W        W 1197  16.258  13.512  23.635 -0.2099 -0.0050  0.1347
58145W        W 1198  16.289  31.607  24.140 -0.0894 -0.1392  0.0068
58146W        W 1199   6.116  32.756   5.813  0.3044 -0.1040 -0.2244
58147W        W 1200  11.001   5.876  28.337 -0.1659 -0.0354 -0.4344
58148W        W 1201  24.674  18.273  28.739  0.0928 -0.0204 -0.3720
58149W        W 1202  16.455  13.904  27.746  0.5328 -0.3597  0.0946
58150W        W 1203  33.993  14.224  20.139  0.2027  0.3715 -0.1925
58151W        W 1204  31.614   2.903  20.043 -0.0387 -0.1209  0.3115
58152W        W 1205  19.862   0.733  24.538 -0.3646 -0.1795 -0.1602
58153W        W 1206  27.220  19.838  23.618 -0.3523 -0.0674 -0.0948
58154W        W 1207  10.827  13.883  27.526  0.0120 -0.3134 -0.2221
58155W        W 1208   9.140  34.355  24.711  0.1906  0.2480 -0.1191
58156W        W 1209  15.186  15.760  15.352 -0.2597 -0.0555 -0.3008
58157W        W 1210  14.913   9.790  17.359  0.0383  0.0236 -0.3102
58158W        W 1211   4.322   9.128  23.914 -0.1280 -0.0831  0.1691
58159W        W 1212  14.470   7.997  22.574 -0.1679 -0.0189  0.1657
58160W        W 1213  22.558   5.097  23.621 -0.2107 -0.1210  0.1255
58161W        W 1214  14.329  31.948  23.037 -0.0491 -0.3930  0.0313
58162W        W 1215   2.624  26.788   0.617  0.0316 -0.2407 -0.2366
58163W        W 1216   0.256   9.667   4.844 -0.0173  0.1391  0.3019
58164W        W 1217  12.963  22.223  26.940 -0.0159  0.2653 -0.1852
58165W        W 1218   8.454  17.154  16.253 -0.1915 -0.1582 -0.0167
58166W        W 1219  15.596  12.392  22.161  0.0003  0.0273 -0.3382
58167W        W 1220  24.667  28.751  20.200  0.2141 -0.0097 -0.2490
58168W        W 1221  14.747   7.967  14.867  0.2080 -0.0879  0.1161
58169W        W 1222  20.703  33.197   4.773 -0.0923 -0.2490 -0.1126
58170W        W 1223  34.360  11.937   3.197 -0.0297  0.1684 -0.2503
58171W        W 1224   8.364   4.662  27.604  0.0621  0.0424 -0.0960
58172W        W 1225  23.067  12.232  28.877 -0.0643 -0.1913 -0.0533
58173W        W 1226   7.926  27.447  25.931  0.2883  0.1175  0.0843
58174W        W 1227  16.590  26.371  25.135  0.0989  0.1250  0.1692
58175W        W 1228  31.146  17.060   2.772  0.1071 -0.2436 -0.1023
58176W        W 1229   9.445  18.604   2.756 -0.0741  0.1771 -0.1402
58177W        W 1230   7.831  27.884   8.342 -0.0519 -0.0997  0.0267
58178W        W 1231  12.935  23.370  25.873 -0.1734 -0.1180 -0.5074
58179W        W 1232  31.351   0.533   0.020  0.2322 -0.3798  0.0166
58180W        W 1233  31.347  26.809   0.164  0.3128 -0.1812  0.0069
58181W        W 1234  13.395   8.656  11.338  0.0163 -0.3129 -0.0094
58182W        W 1235   7.937  18.825   0.796 -0.0528 -0.0794 -0.1655
58183W        W 1236   7.009  11.228  19.503  0.2671 -0.0651 -0.2263
58184W        W 1237  13.082   5.111   2.479 -0.2647  0.2621  0.4185
58185W        W 1238   8.280  23.662   0.312  0.4356 -0.1339  0.3688
58186W        W 1239  13.957  11.123   0.338 -0.3042  0.0912  0.1740
58187W        W 1240  20.007  18.703  21.068 -0.0269  0.1405 -0.2012
58188W        W 1241  17.334   7.147   5.472 -0.0766 -0.1750 -0.0027
58189W        W 1242  13.690  15.384  23.204  0.1791  0.1649  0.0173
58190W        W 1243   8.005  19.556   5.280  0.2959 -0.0706  0.0165
58191W        W 1244  22.002  21.608  26.501  0.0093 -0.3116 -0.2643
58192W        W 1245  17.380  19.230   5.674  0.1789  0.1159  0.0850
58193W        W 1246   9.434  11.685   4.275  0.1290 -0.1222 -0.2394
58194W        W 1247  34.540  29.480  19.926  0.0482 -0.2810 -0.0475
58195W        W 1248   7.451  16.479  21.132 -0.1445  0.2131  0.0925
58196W        W 1249   7.836   5.382  19.975 -0.1853 -0.0508 -0.0417
58197W        W 1250  30.073  10.918  26.914  0.1218 -0.2680  0.2095
58198W        W 1251  17.015   7.867  27.602 -0.0224 -0.1756 -0.2889
58199W        W 1252  14.625   6.574  23.709  0.5251  0.0330 -0.0604
58200W        W 1253  11.484  32.101  20.530 -0.0253  0.1244  0.3476
58201W        W 1254  12.602   6.786  15.314  0.2128  0.0958  0.0044
58202W        W 1255  22.743  10.686  23.091 -0.2725 -0.1940 -0.0847
58203W        W 1256  11.112   6.615  29.163 -0.5541  0.2486  0.0366
58204W        W 1257  15.517   1.364   7.213  0.1605 -0.5296 -0.0785
58205W        W 1258  20.799  24.677   1.887  0.1535 -0.0408  0.0458
58206W        W 1259  15.286   6.554   0.234  0.0851  0.0765  0.1356
58207W        W 1260  34.245   7.451  17.772  0.0477  0.2895 -0.1323
58208W        W 1261  20.187  23.725   3.913  0.2159  0.2809  0.1125
58209W        W 1262  12.937   0.222  23.315  0.1923  0.0169  0.1482
58210W        W 1263  18.427  28.188  25.183 -0.1214 -0.1845  0.2073
58211W        W 1264  18.422   2.141   3.940 -0.4105 -0.1313  0.3229
58212W        W 1265  14.449  14.454  25.211 -0.2369 -0.0129  0.1088
58213W        W 1266  16.139   0.083   1.460  0.2242  0.0917 -0.0586
58214W        W 1267   5.518   3.775   5.403 -0.0482  0.1309 -0.1380
58215W        W 1268  30.116  15.923   4.134 -0.0717  0.1825  0.2461
58216W        W 1269  14.638  23.315  18.256  0.2420  0.3310 -0.2202
58217W        W 1270  33.335  13.308  27.839  0.0405  0.0676 -0.0094
58218W        W 1271  20.032  27.633  25.910 -0.0710 -0.0373  0.2205
58219W        W 1272  11.221  34.066   6.679  0.0497  0.3345  0.1368
58220W        W 1273   9.852  26.802  20.980 -0.0794 -0.2416 -0.3645
58221W        W 1274  11.846  20.832  24.321  0.1385  0.1589  0.2627
58222W        W 1275   2.436  20.110  17.148 -0.0381  0.0719 -0.3359
58223W        W 1276  16.777  13.015   5.093  0.1255  0.0401 -0.5407
58224W        W 1277  19.357  11.910  22.438 -0.0649  0.0016  0.0342
58225W        W 1278  17.568   0.887  25.261 -0.2955  0.0817  0.3612
58226W        W 1279  10.390  15.740  25.246 -0.0942  0.2565 -0.1046
58227W        W 1280  13.099   4.075  18.918 -0.1560 -0.1674 -0.0454
58228W        W 1281   9.187   9.957  20.496 -0.3271 -0.0194 -0.0910
58229W        W 1282  17.405  20.199  28.255 -0.0358 -0.2943 -0.3114
58230W        W 1283  13.457   9.792   1.737  0.0702 -0.2471 -0.3513
58231W        W 1284  13.966  14.123  24.052 -0.0210  0.2865 -0.3174
58232W        W 1285  13.666  22.034  26.756  0.1164 -0.1471  0.0983
58233W        W 1286   8.167   0.866   0.813  0.0403 -0.1610  0.1618
58234W        W 1287  12.988   5.578  18.525 -0.2467 -0.0465 -0.0381
58235W        W 1288   8.966  16.252  16.700 -0.1708 -0.2738 -0.0958
58236W        W 1289  14.978   1.514  22.679 -0.2079 -0.1410 -0.3009
58237W        W 1290  21.173  11.665  26.994  0.4503 -0.1437 -0.3253
58238W        W 1291  17.758  26.594  14.890  0.0429  0.0438 -0.3542
58239W        W 1292   3.590  10.525  23.663  0.1109 -0.2406 -0.1190
58240W        W 1293  11.299  33.704  24.701  0.1982 -0.2501  0.1011
58241W        W 1294   9.953  32.696  28.892  0.0073 -0.0435  0.2123
58242W        W 1295   4.598  21.773  15.492  0.1252  0.1058 -0.3833
58243W        W 1296  16.370  11.870  25.130  0.1885 -0.3084  0.2353
58244W        W 1297  18.689   0.558  28.498 -0.0143 -0.2141 -0.0737
58245W        W 1298  10.592  17.051  27.733 -0.1318  0.3541  0.2671
58246W        W 1299  32.329  18.730  19.740 -0.1757 -0.1168 -0.1914
58247W        W 1300  15.809  22.449  26.172 -0.0076  0.1158 -0.0945
58248W        W 1301  21.630  27.365  17.980  0.4334  0.1295 -0.1795
58249W        W 1302  33.166  10.529  17.920  0.2268 -0.2464  0.0489
58250W        W 1303  10.693  27.882  15.203 -0.1035  0.3156  0.0767
58251W        W 1304  25.368  19.907  16.850  0.2049 -0.0365 -0.0859
58252W        W 1305  11.427   1.433  27.015 -0.1616 -0.1794  0.0063
58253W        W 1306  22.443  16.114  25.311  0.1670  0.3336 -0.2122
58254W        W 1307  24.465  18.852  21.711  0.2026 -0.2814  0.2356
58255W        W 1308  30.460  13.457   7.867 -0.3252  0.0591 -0.0737
58256W        W 1309  33.801  20.591  15.761  0.1050 -0.1650 -0.1346
58257W        W 1310  16.266   1.587  21.441  0.1373  0.1416 -0.1307
58258W        W 1311  21.386  15.593  14.688  0.0261 -0.2520 -0.4487
58259W        W 1312  27.107  10.843  22.762 -0.1326 -0.2345 -0.0257
58260W        W 1313   6.448  15.559   6.473 -0.1361 -0.1253  0.1932
58261W        W 1314  21.836  12.492  28.983  0.4153  0.0422  0.0331
58262W        W 1315  10.522  22.800  21.687 -0.1953 -0.0449  0.0797
58263W        W 1316   1.965  21.710   2.452 -0.0728  0.0048 -0.0129
58264W        W 1317   9.414  11.209   3.844  0.3136  0.2391 -0.2284
58265W        W 1318  34.109  14.710   3.784  0.0579 -0.2530 -0.1120
58266W        W 1319  11.048   9.287  25.848 -0.1015 -0.1223 -0.1609
58267W        W 1320   1.525  14.427   7.819  0.3365  0.1299  0.2071
58268W        W 1321  33.829   8.608  14.584 -0.1257  0.0053 -0.0647
58269W        W 1322  15.606   0.870  14.018  0.0188  0.0317 -0.0235
58270W        W 1323  11.039  17.110  26.429  0.0207 -0.0130  0.1206
58271W        W 1324  16.573   5.760  28.362 -0.1567 -0.3074  0.0715
58272W        W 1325  16.070   8.984  20.280  0.1198  0.2828  0.1724
58273W        W 1326  33.951  12.020  18.119 -0.2266  0.3017  0.0469
58274W        W 1327  30.126  27.672   8.403 -0.1298 -0.0780  0.0039
58275W        W 1328   6.755  20.295  19.835 -0.1484 -0.2448 -0.1575
58276W        W 1329  12.607  18.600  29.058  0.2560  0.0030 -0.0050
58277W        W 1330   7.674  19.468   4.023  0.3199  0.1426  0.1603
58278W        W 1331   7.783  20.498  19.573 -0.4530 -0.0957 -0.0232
58279W        W 1332   7.785  14.584  17.030 -0.1008  0.0340 -0.0520
58280W        W 1333  14.127  26.676  17.955  0.2375  0.3376  0.1275
58281W        W 1334  12.337   3.080  28.622  0.2451 -0.2688 -0.1383
58282W        W 1335  14.077   7.021   0.990  0.2306  0.0827  0.0601
58283W        W 1336   4.484  14.898  15.028 -0.0579 -0.1538 -0.1416
58284W        W 1337   4.249   4.255  25.508  0.0434 -0.3087  0.1645
58285W        W 1338  24.081   3.953  25.350 -0.0017 -0.1337 -0.2050
58286W        W 1339  17.260  27.761  27.044  0.2890  0.3477 -0.1827
58287W        W 1340  20.582   6.019  23.222  0.0127  0.0560  0.1859
58288W        W 1341  15.496  29.939  22.148  0.0646 -0.1254  0.2326
58289W        W 1342  30.758  10.114   8.035  0.1247 -0.1115 -0.1210
58290W        W 1343  18.834  16.189  23.960 -0.0114 -0.0841 -0.0085
58291W        W 1344  23.337  24.606   9.237 -0.1314 -0.1674 -0.1141
58292W        W 1345  13.639  27.014   0.757  0.0529 -0.1539  0.2282
58293W        W 1346   4.205  23.778   8.292 -0.2681 -0.1825  0.2671
58294W        W 1347   8.314   8.921  16.545  0.2805  0.6457  0.0715
58295W        W 1348  14.796   9.402  21.374  0.1837 -0.0396 -0.0570
58296W        W 1349  28.140  23.624   1.982 -0.2025 -0.2067  0.0940
58297W        W 1350  23.561  13.993  16.887  0.0785  0.0177  0.1657
58298W        W 1351  18.726   3.678   3.961  0.3544  0.2077  0.4127
58299W        W 1352  17.071   8.675   3.728  0.2154  0.1805 -0.3325
58300W        W 1353  10.272  12.291  28.743 -0.0363 -0.4351  0.0406
58301W        W 1354  18.104  13.108  21.158 -0.3676 -0.2196 -0.4324
58302W        W 1355  17.077   5.617  26.778  0.1447  0.1872 -0.0826
58303W        W 1356  21.084   1.075   1.528  0.0584 -0.1003 -0.1889
58304W        W 1357  15.042  32.438   8.359 -0.0480  0.0443 -0.0563
58305W        W 1358  14.860   9.361   9.580 -0.3156 -0.3521 -0.3880
58306W        W 1359  22.220  34.364   1.524  0.1110 -0.1354 -0.0168
58307W        W 1360  24.698  16.466  18.949  0.0277 -0.0543 -0.0353
58308W        W 1361   6.054   0.622  16.045  0.3554 -0.2417  0.0338
58309W        W 1362   9.084  34.350  28.942 -0.1090  0.1198 -0.1638
58310W        W 1363   5.920  23.085  16.433  0.1144 -0.2291  0.1898
58311W        W 1364  13.011  20.143  18.837 -0.0788  0.1381  0.2225
58312W        W 1365  13.911  11.504  21.509  0.0762  0.2915 -0.1250
58313W        W 1366  14.861  27.172   0.298 -0.0913 -0.0063 -0.1257
58314W        W 1367  19.953   2.306   0.554  0.1114 -0.0882  0.2385
58315W        W 1368  18.793  25.655   4.296 -0.0993 -0.1558 -0.0503
58316W        W 1369   5.841  19.502  24.955 -0.0715 -0.0291  0.1857
58317W        W 1370   3.792  11.736   7.998 -0.0642  0.1164  0.2593
58318W        W 1371   6.342  30.624   0.229 -0.1958 -0.0988 -0.0278
58319W        W 1372  11.538  18.496  28.469  0.0506 -0.0490  0.6295
58320W        W 1373  32.968  11.555  27.818 -0.0561 -0.2315  0.3686
58321W        W 1374  16.575   5.580  25.546 -0.2555 -0.0560 -0.1349
58322W        W 1375   9.517  20.320  26.086 -0.0085  0.3308 -0.1935
58323W        W 1376  18.735   0.543   2.959 -0.2777  0.4658 -0.2851
58324W        W 1377   9.643   0.800   7.958  0.2821  0.1392 -0.2542
58325W        W 1378  24.691  14.140  28.158  0.2739 -0.0914 -0.2812
58326W        W 1379  20.783   3.644  26.795  0.0548 -0.1774 -0.1447
58327W        W 1380   9.685   5.232  15.043  0.0609 -0.1120  0.3644
58328W        W 1381   6.779  30.789  27.278 -0.2519 -0.2092 -0.1203
58329W        W 1382   5.281  17.616  27.898 -0.0997  0.1928 -0.1595
58330W        W 1383  18.326  20.865   3.041  0.0428 -0.1650  0.0170
58331W        W 1384  34.364   3.888  18.560 -0.0580 -0.1382 -0.3778
58332W        W 1385  10.680  23.934   3.951 -0.0535  0.1723 -0.3537
58333W        W 1386   0.862  27.603  26.610 -0.3494 -0.1844 -0.2006
58334W        W 1387  17.398   1.774  10.607 -0.1284  0.0273  0.1574
58335W        W 1388  16.234  19.015  22.280 -0.0745  0.2362 -0.0806
58336W        W 1389   3.777   8.972   8.200 -0.0229 -0.1533  0.0670
58337W        W 1390  33.342   4.312   7.897  0.0225  0.0185 -0.0261
58338W        W 1391   8.626  22.860   9.603  0.4946  0.0629  0.1198
58339W        W 1392  14.560   8.983  19.035 -0.1022 -0.0822 -0.1838
58340W        W 1393   9.355  15.149   2.799  0.0407  0.0259 -0.1059
58341W        W 1394  16.104  17.851   3.371 -0.2598  0.0409  0.2063
58342W        W 1395  15.857  10.346  22.951  0.2812  0.0239  0.0454
58343W        W 1396   5.604  19.045  20.328  0.1988  0.1396 -0.0895
58344W        W 1397  26.181   5.184  20.824 -0.0102 -0.1419  0.0521
58345W        W 1398  12.410  17.174  10.565  0.2769  0.1925 -0.3412
58346W        W 1399  18.986   5.138   4.562  0.4053 -0.2985 -0.0792
58347W        W 1400  21.516   4.308   0.382  0.1298  0.1564 -0.4698
58348W        W 1401   3.453  14.110  29.112 -0.0111  0.2088  0.0951
58349W        W 1402   8.452  30.676   5.417 -0.0099  0.0430  0.0607
58350W        W 1403  19.048  16.035   8.846  0.2139  0.2092 -0.0591
58351W        W 1404  25.153  17.728  18.991  0.0742 -0.2974 -0.1156
58352W        W 1405  33.518  17.854  13.157  0.1387 -0.0832 -0.1077
58353W        W 1406  14.922  25.374  21.919  0.1277 -0.1484  0.0627
58354W        W 1407  13.713   9.063   0.643 -0.2313  0.2652  0.0008
58355W        W 1408   7.577  16.731   8.416 -0.0750 -0.2119  0.1993
58356W        W 1409  24.803   0.542   4.437 -0.3659 -0.2386 -0.0104
58357W        W 1410  30.487  18.288  22.527  0.2903 -0.0698  0.0953
58358W        W 1411  15.812  13.033  21.280 -0.0982 -0.0857 -0.0170
58359W        W 1412   3.165  14.242  25.329 -0.3514  0.3458  0.2202
58360W        W 1413  11.856  16.111  24.481 -0.0447  0.0533 -0.1737
58361W        W 1414  22.185  29.846  18.428  0.1541 -0.0941  0.1588
58362W        W 1415   3.598   7.085  17.347  0.4601 -0.1942 -0.0402
58363W        W 1416  17.652  12.643  20.456 -0.2338  0.0396 -0.2866
58364W        W 1417  26.804  13.225  22.788 -0.0432  0.0493 -0.2418
58365W        W 1418  33.602  28.543  15.080  0.4591 -0.0713 -0.0848
58366W        W 1419  18.806  13.011  14.367  0.2545  0.0487  0.2610
58367W        W 1420  11.842   6.474  14.921 -0.1621 -0.0970 -0.1998
58368W        W 1421  11.426  19.220  23.001 -0.3784 -0.3536 -0.0825
58369W        W 1422  18.335  23.820  24.196 -0.0535  0.2163  0.1942
58370W        W 1423   9.554  22.062  17.308 -0.0054 -0.2026  0.0150
58371W        W 1424   8.632  11.487  21.936  0.2144 -0.3149 -0.0070
58372W        W 1425  33.306  16.161  22.328 -0.1356 -0.0896 -0.3867
58373W        W 1426  24.063  34.091  15.303  0.1909  0.1520  0.1843
58374W        W 1427  11.155  26.987  13.580 -0.2313 -0.1735 -0.0264
58375W        W 1428  14.461  19.370  20.604 -0.2829  0.0629 -0.2232
58376W        W 1429  20.456   8.474  25.223  0.0007  0.2717 -0.3376
58377W        W 1430  15.082  31.613  19.000 -0.0922  0.1588 -0.0701
58378W        W 1431   8.877  21.577  25.291 -0.0859 -0.3398 -0.0574
58379W        W 1432  19.168  22.210  18.192 -0.2518 -0.3932 -0.1861
58380W        W 1433  13.390   0.683  24.697 -0.0834 -0.0567  0.3779
58381W        W 1434  34.666  20.656  23.114 -0.0020 -0.2675  0.0583
58382W        W 1435  12.526  13.686  18.586  0.2027 -0.1219  0.0119
58383W        W 1436  32.622  16.801  14.303 -0.1003  0.1914  0.2656
58384W        W 1437  18.343  27.756  18.252  0.0328  0.0410 -0.2925
58385W        W 1438  34.398  13.461  15.242  0.2207 -0.0785  0.2944
58386W        W 1439   3.092  14.732  27.931 -0.0900 -0.0014 -0.0874
58387W        W 1440   4.138  17.019  16.700 -0.0252  0.0584  0.2834
58388W        W 1441  28.993  27.070  22.013  0.1631 -0.3508 -0.3630
58389W        W 1442  13.296   7.060  15.989 -0.1304  0.1803 -0.0437
58390W        W 1443   7.607  20.698  20.055 -0.1389  0.1884  0.3347
58391W        W 1444   4.799  14.430  20.065  0.1320  0.1384 -0.0760
58392W        W 1445   8.573  21.762  20.094  0.3275 -0.0040 -0.2276
58393W        W 1446  15.940  12.160  24.536  0.0948  0.2578  0.4372
58394W        W 1447  24.021  30.981  23.858 -0.1250 -0.3415 -0.1178
58395W        W 1448  16.823  28.841  18.065 -0.5354 -0.1072 -0.1501
58396W        W 1449  30.452  23.404  18.470 -0.0026 -0.0699  0.1251
58397W        W 1450   3.540   1.980  17.019  0.3102  0.1097 -0.4431
58398W        W 1451   6.668  28.537  18.648 -0.2419  0.2046  0.1645
58399W        W 1452  12.887  27.714  22.187  0.0872 -0.0899 -0.1275
58400W        W 1453   5.562   8.297  17.695  0.2167  0.1410 -0.0343
58401W        W 1454   0.513  15.800  14.087  0.1253  0.1855 -0.2292
58402W        W 1455   4.756  17.540  14.219 -0.1625 -0.2943  0.1103
58403W        W 1456  26.423  28.356  24.578 -0.4445 -0.1383  0.2453
58404W        W 1457   6.812  16.719  19.787  0.1344 -0.0275  0.1928
58405W        W 1458  13.795  22.775  15.958 -0.3292  0.0749  0.0976
58406W        W 1459  14.562  18.916  14.472 -0.0211  0.3404 -0.2721
58407W        W 1460   9.820  14.478  20.592 -0.0101 -0.1657  0.1396
58408W        W 1461   0.913  31.939  22.702 -0.1560 -0.3228 -0.1646
58409W        W 1462   0.915   1.665  16.982 -0.1292 -0.0031  0.1297
58410W        W 1463   1.329  22.552  13.922  0.0499  0.4801 -0.0097
58411W        W 1464  20.968   1.293  20.159  0.4968  0.2390  0.0211
58412W        W 1465  29.053  10.496   0.292  0.0019  0.1574  0.1277
58413W        W 1466  11.697   8.798  18.284  0.2137 -0.0989 -0.0470
58414W        W 1467  13.703  34.577  16.508 -0.1202  0.2091  0.0920
58415W        W 1468  13.613  20.646  17.294  0.0038  0.0354 -0.0024
58416W        W 1469   9.688  25.939   6.627 -0.0037 -0.1280 -0.4378
58417W        W 1470  12.115  18.683  20.879 -0.0146  0.0521 -0.0633
58418W        W 1471  17.903  15.897  14.919 -0.1838 -0.1876  0.1780
58419W        W 1472  12.636   8.523  16.684  0.1533 -0.0507  0.0245
58420W        W 1473  17.141   8.011  26.708 -0.1404 -0.1390  0.1970
58421W        W 1474  17.405  32.187  20.924  0.1184  0.0878  0.2846
58422W        W 1475   6.170  19.319  19.268 -0.1516 -0.0281 -0.1033
58423W        W 1476   4.546  21.269  22.515 -0.0889  0.2229  0.0801
58424W        W 1477  31.040  18.743  15.115 -0.3474 -0.0005 -0.2614
58425W        W 1478   4.540   1.665  18.358  0.0756  0.5073  0.3746
58426W        W 1479   5.553  13.473  27.325 -0.1242 -0.0126 -0.1775
58427W        W 1480   4.521  25.094  15.863 -0.0665  0.0666  0.0282
58428W        W 1481   4.642  19.607   5.091 -0.0825 -0.0777  0.2355
58429W        W 1482   5.519   6.570  24.166  0.2147  0.0587 -0.5080
58430W        W 1483   0.673  25.063  20.958  0.1601  0.0611 -0.1001
58431W        W 1484   4.056  18.794  22.290 -0.0605  0.0635 -0.1834
58432W        W 1485  14.110   3.307  18.438  0.2069  0.0463  0.0392
58433W        W 1486  11.750  16.278  16.224  0.1954  0.2959  0.2549
58434W        W 1487  20.755  34.584  18.166 -0.0154 -0.1316  0.0093
58435W        W 1488  12.378   0.685  15.189 -0.0723  0.0888 -0.3046
58436W        W 1489  16.898  27.020  21.222  0.1831 -0.0363 -0.2552
58437W        W 1490  14.789   7.065  14.469 -0.3007  0.2718 -0.0484
58438W        W 1491   6.591  13.946  15.404 -0.0768  0.1168  0.0906
58439W        W 1492  22.443  23.869  17.617  0.1453  0.2323 -0.1798
58440W        W 1493  13.583  24.819  14.564  0.2135  0.0905 -0.0937
58441W        W 1494  18.592  24.937  21.406 -0.1119 -0.0845 -0.0254
58442W        W 1495  18.317  11.191  13.758 -0.2673  0.2381  0.2798
58443W        W 1496  15.215   7.755  20.393  0.3288 -0.0562  0.2828
58444W        W 1497  13.521  12.172  15.652  0.0402  0.0877 -0.1380
58445W        W 1498   0.790  10.515  17.789 -0.1246  0.2310  0.2278
58446W        W 1499  25.031  29.547  14.358 -0.0494  0.0513  0.1788
58447W        W 1500   0.978   8.875  15.642 -0.3493 -0.2055 -0.1575
58448W        W 1501  22.870  13.347  25.061 -0.0579  0.0771 -0.0446
58449W        W 1502  18.095   8.534  15.003 -0.4101 -0.1309  0.0719
58450W        W 1503  28.972  12.206  15.193 -0.1831 -0.0785  0.2303
58451W        W 1504  16.825  15.918  27.776  0.3670  0.1282  0.1496
58452W        W 1505   2.007  12.000  19.024 -0.1822  0.3104 -0.1175
58453W        W 1506  22.208   5.000  24.024 -0.1604 -0.1192 -0.2491
58454W        W 1507   8.562  22.786  28.504 -0.0706 -0.1082 -0.5273
58455W        W 1508  15.861  28.032  16.844 -0.0815  0.2639 -0.0486
58456W        W 1509  22.257  17.774  24.072 -0.3914  0.0786  0.0950
58457W        W 1510  18.976  13.601  22.192  0.1144 -0.0075  0.0583
58458W        W 1511   2.171  32.437   1.925  0.0787 -0.0421 -0.0358
58459W        W 1512  31.334  10.917  20.514 -0.0368  0.1129 -0.4495
58460W        W 1513  24.595   5.331  17.788 -0.0458 -0.1850  0.0177
58461W        W 1514  12.869  13.595  23.619  0.1170  0.0351 -0.3313
58462W        W 1515   8.764  11.990  24.371 -0.2081 -0.1111  0.1350
58463W        W 1516  19.903   6.006  21.611 -0.0122 -0.2058 -0.0088
58464W        W 1517  17.509  11.700  21.020 -0.1185  0.2285  0.0215
58465W        W 1518  27.302  30.706  16.695  0.0988 -0.1471 -0.1424
58466W        W 1519   7.336  16.994  14.753 -0.0082 -0.2985 -0.1558
58467W        W 1520   3.806  20.777   3.326  0.0078  0.2033 -0.2867
58468W        W 1521  26.516  16.510  15.423  0.1654 -0.1373  0.3126
58469W        W 1522  17.268  21.163  16.333 -0.0504 -0.3235  0.1397
58470W        W 1523   3.598   1.290  20.489 -0.1987  0.0071  0.0350
58471W        W 1524  21.284  32.430  20.573  0.0543 -0.2434 -0.1721
58472W        W 1525  15.257  26.632  19.304 -0.1992  0.0980 -0.2386
58473W        W 1526  26.963   1.270  20.807  0.0346  0.0156 -0.4558
58474W        W 1527   8.000  22.794  18.878  0.0144  0.0305 -0.1065
58475W        W 1528  14.495  22.745  25.872  0.0017  0.2519  0.1716
58476W        W 1529   3.653  22.041  13.965  0.0042 -0.4259 -0.0919
58477W        W 1530  21.551  12.588  18.646  0.4596  0.2502  0.1733
58478W        W 1531  29.741  18.695  14.816  0.3794  0.0992  0.0690
58479W        W 1532  24.364  17.376  21.687  0.1345  0.0158 -0.1354
58480W        W 1533   9.654  14.704  23.157 -0.2573  0.2706  0.0109
58481W        W 1534  20.590   7.235   0.474 -0.0007  0.0241  0.2709
58482W        W 1535  14.016   0.377   4.344 -0.0150 -0.1526 -0.1159
58483W        W 1536  26.593   8.270  15.991 -0.1787 -0.0294  0.4863
58484W        W 1537  19.785  12.140  16.192  0.1167  0.1350  0.2561
58485W        W 1538  29.875  13.033  23.374 -0.3590 -0.2206  0.0246
58486W        W 1539  18.091  21.150  15.781  0.4041  0.0901  0.1626
58487W        W 1540   4.758  31.912  18.781 -0.1466 -0.0760  0.1897
58488W        W 1541  18.440  24.507  21.211  0.3031 -0.0077 -0.0316
58489W        W 1542  11.262  16.133  21.865  0.0974 -0.1243 -0.0872
58490W        W 1543  23.678  12.665  23.146  0.1298  0.2093  0.0284
58491W        W 1544  20.280  12.306  17.450  0.1426 -0.1636 -0.3156
58492W        W 1545   4.709  27.196  20.824  0.0526  0.1681 -0.1404
58493W        W 1546   7.393  12.931   5.266  0.2126 -0.0738  0.3305
58494W        W 1547   9.495  14.470  16.571  0.1631 -0.0651 -0.2309
58495W        W 1548  14.050  10.623  26.163 -0.1341  0.2729 -0.2235
58496W        W 1549  32.605  12.428  23.976 -0.3488  0.0836 -0.0610
58497W        W 1550   8.069  15.966  24.103  0.0398 -0.0531 -0.1836
58498W        W 1551   6.459  29.038  17.580 -0.0461  0.0223  0.0206
58499W        W 1552   9.874  19.365  22.552 -0.0843 -0.1066 -0.1897
58500W        W 1553   1.830  13.667  19.463  0.2005 -0.2689 -0.0420
58501W        W 1554   9.055  27.124  17.383  0.0570 -0.1328 -0.2286
58502W        W 1555  17.035  12.002  16.842  0.1041 -0.3489 -0.0065
58503W        W 1556  19.240  23.784  14.971  0.0557 -0.2518 -0.0530
58504W        W 1557  22.850   1.008  17.718 -0.0393  0.0396  0.1228
58505W        W 1558  12.804  26.018  23.572 -0.0341  0.0066  0.0353
58506W        W 1559  19.534  32.346  18.269  0.1673  0.0063 -0.0193
58507W        W 1560   3.685  16.444   0.331 -0.0587 -0.3264  0.1939
58508W        W 1561  22.454  22.223  15.014 -0.0687 -0.1005 -0.2576
58509W        W 1562   4.403  15.182  18.671  0.0352  0.0589 -0.0326
58510W        W 1563  20.772  22.934  21.418 -0.1293  0.1214  0.1537
58511W        W 1564   8.267  29.456  12.938 -0.0673 -0.0399 -0.0740
58512W        W 1565   6.570  24.821  21.798  0.3677  0.1130  0.1105
58513W        W 1566  19.351  26.429  29.127  0.0288  0.1771  0.0897
58514W        W 1567  28.642  28.744  20.489  0.1501  0.3100 -0.2757
58515W        W 1568  23.553  14.349  13.940 -0.1521  0.0447  0.1066
58516W        W 1569  13.880  16.023  24.648 -0.0687  0.0673  0.0494
58517W        W 1570  13.976  19.458  26.673  0.1216  0.0747 -0.1135
58518W        W 1571  16.614  17.732  13.401 -0.1293  0.4328 -0.3139
58519W        W 1572  25.094  28.275  27.567  0.1070  0.0326  0.1216
58520W        W 1573  15.372  27.886  15.067 -0.1831 -0.0393  0.3062
58521W        W 1574  13.683  21.227  16.561 -0.1653  0.0168  0.0263
58522W        W 1575   0.120  12.082  29.149  0.1454 -0.3166 -0.0632
58523W        W 1576  18.483  30.387   0.122  0.0333 -0.1424 -0.3518
58524W        W 1577  22.682  23.635  14.939  0.2559  0.0094 -0.0491
58525W        W 1578  11.660  14.294  19.134  0.0712  0.1146  0.2292
58526W        W 1579  10.681  16.671  28.367  0.1530  0.0379  0.2157
58527W        W 1580   9.329  17.771  19.377 -0.0338 -0.2525  0.0934
58528W        W 1581   5.441  20.492  17.409  0.0086  0.3963 -0.0094
58529W        W 1582  13.262  20.494  21.983  0.2289  0.0968 -0.0902
58530W        W 1583  16.552   0.634  26.149 -0.3757 -0.0078 -0.0345
58531W        W 1584  12.115  19.852  13.721 -0.0047  0.3795  0.1509
58532W        W 1585  19.665  12.953  17.296  0.0738 -0.1037 -0.0963
58533W        W 1586  26.003  15.692  22.927 -0.2027  0.3336  0.1559
58534W        W 1587  32.113   5.995  26.748  0.3663 -0.0755 -0.0506
58535W        W 1588   8.676  10.074  25.915 -0.1055 -0.1625 -0.0687
58536W        W 1589   9.390  27.185  17.803  0.1779  0.3744 -0.1736
58537W        W 1590  24.006  20.517  17.001 -0.4740  0.1167 -0.2973
58538W        W 1591  27.704  15.823  26.974  0.1630 -0.0084  0.1359
58539W        W 1592   9.663  14.369  25.106  0.2690 -0.1835 -0.0781
58540W        W 1593   9.305  23.260  25.321 -0.0266  0.1542 -0.1445
58541W        W 1594   0.852   3.220   0.038 -0.0230  0.0374  0.3169
58542W        W 1595  34.001   2.699  16.687 -0.0894  0.0314 -0.0488
58543W        W 1596   6.665  12.822  21.391 -0.0131 -0.1258 -0.1874
58544W        W 1597  28.094   1.516  28.172 -0.0815  0.3520  0.1464
58545W        W 1598  14.468   5.052   5.893 -0.3355  0.1813  0.2013
58546W        W 1599  23.727  15.059  24.554  0.0468  0.1103  0.1001
58547W        W 1600  27.108  25.829  14.632  0.0048  0.1951 -0.1071
58548W        W 1601  23.563   4.303   5.677  0.0387  0.0202 -0.0411
58549W        W 1602  22.211   5.037  14.792  0.1501 -0.1718  0.2747
58550W        W 1603  12.586  33.581  21.292  0.2287  0.3662  0.2445
58551W        W 1604  29.823  27.591  27.617  0.1222  0.1636 -0.2154
58552W        W 1605   3.217  21.319  19.363 -0.0864 -0.1796  0.0982
58553W        W 1606  23.709  29.064  19.117 -0.2271 -0.2192  0.1243
58554W        W 1607  11.859   7.539  20.357  0.4461  0.2619  0.2086
58555W        W 1608   5.374  15.866  16.412 -0.0508  0.0215  0.1459
58556W        W 1609   4.549  12.166  16.979 -0.2958 -0.2083  0.3862
58557W        W 1610   1.852   6.501  20.046 -0.0156  0.0033 -0.3601
58558W        W 1611  16.623  22.217  16.904 -0.1589 -0.2147  0.2856
58559W        W 1612  18.598  10.940  16.935 -0.1663  0.1495 -0.1753
58560W        W 1613   7.911  14.107  15.110 -0.0910  0.0247 -0.0587
58561W        W 1614  13.607  17.136  15.891  0.0296  0.0225  0.2992
58562W        W 1615   9.692   2.266  15.512 -0.2382 -0.0736  0.0745
58563W        W 1616  10.323  20.772  20.920  0.3210  0.0976  0.3524
58564W        W 1617   3.188  11.484  19.133  0.2208  0.2085 -0.0181
58565W        W 1618   5.630  18.682  14.257  0.1089 -0.1183  0.1264
58566W        W 1619  23.442  28.370  15.297 -0.0553  0.0577  0.0638
58567W        W 1620  22.620  26.074  27.347 -0.1219  0.0966  0.4108
58568W        W 1621   7.617  28.366  17.501  0.0991  0.0265 -0.1363
58569W        W 1622   8.405  11.404  19.638  0.1684  0.0703  0.1413
58570W        W 1623  33.342  21.776  28.547 -0.2003  0.1097  0.0246
58571W        W 1624   2.979  13.696   0.676 -0.0252 -0.0335  0.2470
58572W        W 1625   9.441   6.981  22.191  0.0699  0.2167  0.0007
58573W        W 1626   9.598  15.620  16.718 -0.0164 -0.0435 -0.2662
58574W        W 1627  22.102  25.250  22.278  0.0431  0.2786  0.1028
58575W        W 1628  10.491  34.673  21.977 -0.0913  0.2095 -0.2302
58576W        W 1629   4.867  15.187  26.136  0.0925  0.0498  0.0356
58577W        W 1630  23.412  33.847  25.860  0.1450  0.0896 -0.2525
58578W        W 1631  31.641  27.037  21.668 -0.2862  0.0194  0.1764
58579W        W 1632  26.288  22.668  19.659  0.1071  0.1551 -0.1437
58580W        W 1633  17.651  15.313  13.203 -0.0604  0.1127  0.1540
58581W        W 1634  25.958  12.894  22.839 -0.2637  0.0326 -0.0860
58582W        W 1635   4.242  13.858  20.741 -0.1302  0.2056 -0.2228
58583W        W 1636  10.663   3.292  28.196 -0.0211  0.1828 -0.1427
58584W        W 1637  30.042  21.533   0.704  0.0804 -0.0492 -0.1971
58585W        W 1638  13.594  19.861  22.967  0.1619  0.3078 -0.1356
58586W        W 1639  27.712  31.379  21.658  0.0289  0.0795 -0.1670
58587W        W 1640  13.151   8.547  21.981  0.3172  0.1791  0.1407
58588W        W 1641   2.161  21.924  20.323 -0.1185 -0.1453  0.1207
58589W        W 1642  19.203  14.629  13.561  0.4252  0.1737  0.0894
58590W        W 1643   7.702  18.816  18.302 -0.0604  0.1090 -0.0612
58591W        W 1644   1.109  25.304  19.542 -0.2033 -0.0924  0.0502
58592W        W 1645  20.301  13.689  14.919  0.2116  0.3825 -0.4981
58593W        W 1646  31.239   9.744  21.502  0.2596 -0.1624 -0.4745
58594W        W 1647  16.462   7.522  23.573 -0.0200  0.0198  0.0550
58595W        W 1648  11.627   9.421  24.101 -0.0643 -0.1093 -0.4246
58596W        W 1649   9.244  13.588  16.398 -0.1389 -0.0268  0.0356
58597W        W 1650  22.991  17.382   4.617 -0.1782 -0.0622 -0.1567
58598W        W 1651   9.499   2.211  22.105 -0.0946 -0.1953  0.0844
58599W        W 1652   4.306  16.113  24.233  0.3420  0.0922  0.3637
58600W        W 1653  11.837  14.745  22.506  0.2838  0.1297  0.0452
58601W        W 1654  18.961  18.876   2.103  0.2135  0.1311  0.0158
58602W        W 1655   7.335  14.456  27.400  0.0637 -0.0528 -0.2735
58603W        W 1656   3.263  18.766  25.828  0.1076 -0.2233  0.0954
58604W        W 1657   7.726  23.190  18.846 -0.0450 -0.4818  0.1763
58605W        W 1658  21.246   5.007  27.669 -0.1403  0.1196 -0.3849
58606W        W 1659  23.654  13.130  18.257 -0.0686 -0.1536  0.0391
58607W        W 1660  22.446  26.168  16.957  0.0195 -0.3356  0.1694
58608W        W 1661  29.975   6.674  22.326 -0.1469  0.0435  0.2090
58609W        W 1662  12.094   1.038  25.642  0.1008  0.0092 -0.4062
58610W        W 1663  19.452   5.264  22.954  0.0533 -0.4346 -0.1670
58611W        W 1664   7.363   2.742  21.721 -0.2537 -0.0349 -0.2937
58612W        W 1665  12.566  24.640  17.149 -0.0049  0.2979  0.2331
58613W        W 1666   8.997  20.609  19.738  0.0866 -0.3818 -0.2412
58614W        W 1667  26.795  12.616  15.043  0.2339  0.2072 -0.0756
58615W        W 1668   4.785  12.051  15.996  0.1953  0.3537 -0.0365
58616W        W 1669  17.195  26.300  18.319  0.1172  0.0132  0.2588
58617W        W 1670   3.584  17.740  20.965 -0.1429 -0.3144  0.0362
58618W        W 1671  18.361  22.357  24.009 -0.2897 -0.0308  0.3437
58619W        W 1672  25.901  23.418  24.380  0.2205  0.1284  0.0485
58620W        W 1673  13.774  19.466  23.208 -0.1895 -0.2387 -0.2147
58621W        W 1674   4.477  12.424  23.115 -0.1583  0.0869 -0.0324
58622W        W 1675  22.163  29.722  20.908 -0.0756 -0.1507  0.1621
58623W        W 1676  13.952  15.490  18.015 -0.0903 -0.0715 -0.1069
58624W        W 1677  12.182   0.462  26.641 -0.1397  0.1265 -0.1418
58625W        W 1678  12.388  25.809  24.016 -0.2567 -0.0895 -0.2183
58626W        W 1679  19.996  17.979  14.133 -0.1270 -0.3151  0.1810
58627W        W 1680  19.141   5.043  18.557  0.2378 -0.0671  0.1655
58628W        W 1681  29.714  12.218   3.373  0.0189  0.0264 -0.1240
58629W        W 1682  11.888   5.972  19.097  0.0449 -0.0246  0.2021
58630W        W 1683  24.740   9.315  25.647 -0.3331  0.0542  0.0579
58631W        W 1684  33.290  26.919  17.875 -0.0987  0.0184 -0.1990
58632W        W 1685   3.299  26.095   0.706 -0.0723  0.2589 -0.2858
58633W        W 1686  21.280  10.053  18.987  0.0355  0.2779 -0.2273
58634W        W 1687  23.398  12.031  17.931 -0.1302  0.3567 -0.2478
58635W        W 1688   3.111  12.727  18.504 -0.3910 -0.2310 -0.0265
58636W        W 1689  12.013  13.720  19.389  0.3028 -0.0387  0.0660
58637W        W 1690  22.263  26.833  23.399 -0.2443  0.2375  0.2435
58638W        W 1691  31.845  18.261  22.667 -0.0920 -0.1117  0.3761
58639W        W 1692   5.446  23.765  13.768 -0.1314 -0.0839 -0.1840
58640W        W 1693   0.727  17.639  25.341 -0.3263  0.2874 -0.1573
58641W        W 1694  28.360  24.810  23.389  0.1068  0.1468 -0.1506
58642W        W 1695  26.075  27.140  19.713 -0.0421  0.0385  0.2790
58643W        W 1696  16.753   0.700  22.510 -0.3680 -0.0565  0.2517
58644W        W 1697   3.819  15.001  22.891 -0.2533 -0.1212 -0.0360
58645W        W 1698  29.324  13.914  27.355  0.0321  0.0644 -0.1749
58646W        W 1699  14.605  15.472  17.279  0.0288  0.0629 -0.0352
58647W        W 1700   4.132  19.555  21.541  0.0279  0.0316  0.0814
58648W        W 1701   0.521  26.692  21.032 -0.1364 -0.1866  0.0858
58649W        W 1702  11.220  24.685  22.875  0.1060  0.2838 -0.2242
58650W        W 1703   3.691  15.728  21.797 -0.2733 -0.0355 -0.0623
58651W        W 1704  13.903   6.750  21.481  0.1984  0.2603 -0.1102
58652W        W 1705  10.319  13.364  20.993  0.3876 -0.2117 -0.1786
58653W        W 1706  14.078   9.739  15.398 -0.0886  0.0481 -0.3111
58654W        W 1707  28.188  25.815  15.662 -0.3529 -0.1814  0.0487
58655W        W 1708  29.340  17.440  16.244 -0.1749 -0.0362 -0.3836
58656W        W 1709  31.704  14.332  17.238  0.1790 -0.1648  0.0227
58657W        W 1710  32.900  13.693  28.653 -0.1470  0.2392  0.0544
58658W        W 1711  12.768   1.501  17.500 -0.1196  0.1380  0.0925
58659W        W 1712   8.037  21.417  28.619 -0.1644  0.1332 -0.0556
58660W        W 1713  25.636  18.549  14.322 -0.2448 -0.0367  0.1401
58661W        W 1714  13.627  14.134  21.412  0.0427 -0.0211 -0.2675
58662W        W 1715  23.076   9.057  18.716 -0.0998 -0.2721 -0.2345
58663W        W 1716   9.115  10.142  19.027  0.1335 -0.2916 -0.0815
58664W        W 1717  28.127  24.362  16.346  0.0434  0.1744  0.0231
58665W        W 1718  32.168  23.714   1.250  0.3846  0.1212  0.0523
58666W        W 1719   6.395  13.945  18.924  0.1760 -0.3673 -0.3374
58667W        W 1720  17.516  13.739  13.654 -0.2756  0.1123  0.0696
58668W        W 1721   5.104  23.915  18.941 -0.0057 -0.0352 -0.3252
58669W        W 1722   8.558  30.570  24.179 -0.1407 -0.0372 -0.3487
58670W        W 1723   9.949  14.968  25.032  0.1735  0.1851 -0.1074
58671W        W 1724  21.469  15.261  17.862 -0.0136  0.1558 -0.0206
58672W        W 1725  17.039   9.707  17.226  0.0198 -0.1579 -0.2607
58673W        W 1726  24.681  21.564  21.052 -0.2220 -0.1406  0.1264
58674W        W 1727  12.378  21.923  14.599  0.2413 -0.2110 -0.1340
58675W        W 1728  16.215   1.622  20.848  0.5798  0.0140 -0.2878
58676W        W 1729  33.421  34.197  17.909 -0.0714  0.0949 -0.0215
58677W        W 1730  28.181  16.246  26.018 -0.0139 -0.2035 -0.0716
58678W        W 1731   1.248  19.716  21.516  0.1324 -0.0563 -0.0167
58679W        W 1732  18.213  11.364  14.967 -0.0946  0.0503  0.0433
58680W        W 1733  32.679   5.956  22.981 -0.1755 -0.1516  0.1393
58681W        W 1734  13.621  19.657  18.701  0.0207 -0.1101  0.2488
58682W        W 1735  25.492   3.473  19.567 -0.1360 -0.2649  0.3701
58683W        W 1736   9.291  25.324  22.709 -0.1464  0.0033 -0.2936
58684W        W 1737  31.968   9.997  21.902 -0.3442 -0.1028  0.2731
58685W        W 1738   9.572  19.960  24.226  0.1405  0.4733  0.3722
58686W        W 1739  22.255  29.043  20.862 -0.0813 -0.1204 -0.2708
58687W        W 1740  10.346   2.705  16.158 -0.0622 -0.1376  0.2910
58688W        W 1741   1.747  23.502   6.875  0.0242 -0.3920  0.1800
58689W        W 1742  21.406  30.172  22.852 -0.0593 -0.0037  0.0399
58690W        W 1743  16.684  14.169  15.739  0.2325  0.0864 -0.1301
58691W        W 1744  20.123  12.525  13.425 -0.3274  0.1789  0.2405
58692W        W 1745  29.662   6.886   2.693 -0.0270 -0.0704 -0.0820
58693W        W 1746   1.457   3.516  19.147  0.3372  0.1506 -0.1466
58694W        W 1747  25.261  15.417  13.089  0.1523  0.1088  0.1055
58695W        W 1748  21.035  29.682  17.014  0.0292  0.0749 -0.1279
58696W        W 1749  23.383  13.858  13.327  0.0096 -0.1846 -0.2048
58697W        W 1750   1.562   8.839  17.339 -0.1559  0.1299  0.4068
58698W        W 1751  16.615   0.169   7.183  0.1577 -0.0937  0.1137
58699W        W 1752   6.122  29.655  23.076  0.0305  0.1504  0.0655
58700W        W 1753  18.118  10.262  16.331  0.3135  0.0154  0.1430
58701W        W 1754  13.192   8.550  17.853  0.1517 -0.1723 -0.2118
58702W        W 1755  12.053   9.289  25.007 -0.0455  0.1758 -0.1097
58703W        W 1756  25.882  20.031  14.398  0.1680  0.0663 -0.1952
58704W        W 1757  16.808   4.986  20.553 -0.0525  0.2241 -0.1683
58705W        W 1758   6.674  18.882  12.788 -0.2592  0.0464  0.2314
58706W        W 1759  24.945   7.739  14.704 -0.1217  0.2460  0.0620
58707W        W 1760  19.295  11.308  23.402 -0.1200  0.0285  0.0387
58708W        W 1761   8.334  23.618  25.268 -0.2185  0.0450 -0.2795
58709W        W 1762  19.544   6.905  21.751 -0.0589 -0.0881 -0.4028
58710W        W 1763  16.755   4.762  19.469  0.0286 -0.1478  0.0316
58711W        W 1764  15.099  12.508  16.142 -0.2261 -0.0412 -0.1199
58712W        W 1765  19.942  16.237  24.685 -0.0801  0.1321  0.2162
58713W        W 1766  29.154   2.761  14.603  0.3513 -0.4190 -0.2207
58714W        W 1767  32.894  34.509  23.601 -0.0135  0.0015  0.0778
58715W        W 1768  12.457  14.873   1.798 -0.0972 -0.2008  0.0173
58716W        W 1769  20.129  27.285  16.317 -0.1619 -0.1441 -0.2175
58717W        W 1770   4.788  10.911  26.248  0.0331  0.3396 -0.1912
58718W        W 1771  23.888  18.728  26.126  0.1196 -0.1466 -0.1884
58719W        W 1772   8.663  11.290  16.116  0.3459 -0.3492 -0.0400
58720W        W 1773  21.419  20.688  21.626 -0.0041  0.0846 -0.2524
58721W        W 1774  17.122  11.719  17.251  0.0150 -0.1011  0.1600
58722W        W 1775   6.525  17.159  28.356 -0.2290  0.0292 -0.1575
58723W        W 1776   7.579  11.485  26.103 -0.2875 -0.0316 -0.0731
58724W        W 1777   8.341  10.273  18.899  0.0329  0.1189 -0.0896
58725W        W 1778  16.674  27.695   7.031  0.2123  0.0529  0.0455
58726W        W 1779  10.357  24.402  19.150  0.2805  0.1140  0.1874
58727W        W 1780  15.091   8.980  19.506  0.0035 -0.1969  0.0704
58728W        W 1781  20.449  12.828  17.440 -0.3543  0.0307 -0.2377
58729W        W 1782  14.650  28.355  23.781 -0.0005  0.0423 -0.2722
58730W        W 1783  12.344  34.099  17.162  0.1908 -0.2511 -0.0294
58731W        W 1784  20.929  30.933   5.373 -0.1193 -0.1436 -0.0977
58732W        W 1785  15.193   7.509  28.605 -0.1589 -0.0321  0.0622
58733W        W 1786  22.317  20.704  17.185 -0.0875  0.2279  0.0608
58734W        W 1787  17.370  24.862   0.256  0.1058  0.2764  0.1987
58735W        W 1788   1.777  11.661  17.496 -0.2184  0.1908  0.0189
58736W        W 1789  26.521  18.835  24.230 -0.1127  0.2137 -0.1090
58737W        W 1790  17.531  18.850  14.920  0.1400  0.1985 -0.0812
58738W        W 1791  14.750  33.260   5.076 -0.0835  0.0690  0.1583
58739W        W 1792  21.205   6.274  15.823  0.0837 -0.1257  0.0527
58740W        W 1793  21.746  20.274  27.978  0.2506  0.1285 -0.3253
58741W        W 1794  22.195   3.018  26.935  0.1929  0.0827 -0.0532
58742W        W 1795   9.073   7.452  23.007  0.1971 -0.1463  0.0223
58743W        W 1796   7.578   2.119  28.515  0.1998  0.1269 -0.0361
58744W        W 1797  15.145  15.019  23.605  0.1126 -0.3367 -0.0577
58745W        W 1798   6.278  23.916   0.953  0.0973  0.1477  0.2019
58746W        W 1799  24.509  16.714  21.291 -0.1109  0.0913  0.0696
58747W        W 1800  15.747   0.186  20.728 -0.2625  0.0104 -0.1296
58748W        W 1801   8.132  18.195  24.630  0.0531 -0.1756 -0.0230
58749W        W 1802  11.662   8.294   1.555 -0.1165 -0.3011 -0.4248
58750W        W 1803  28.145  18.711  19.233 -0.0408 -0.1966 -0.1626
58751W        W 1804  29.722  22.691  24.387  0.0685  0.0176  0.1212
58752W        W 1805  16.338   6.360  24.158 -0.0927  0.0353 -0.2765
58753W        W 1806  24.132  24.092  24.626 -0.0513 -0.2383  0.1121
58754W        W 1807  10.958  23.208  13.528  0.3320 -0.2524  0.1183
58755W        W 1808  14.295  23.666  27.812 -0.2702  0.2918  0.0106
58756W        W 1809  32.716   6.861  25.554  0.2328  0.4271 -0.3584
58757W        W 1810   7.931  26.581  21.588 -0.0911  0.2216 -0.0618
58758W        W 1811  15.682  10.714  28.340  0.0171 -0.0586  0.2796
58759W        W 1812  10.926  14.017  25.160  0.2680  0.0856 -0.0563
58760W        W 1813  18.582  31.812  15.589  0.0825 -0.2163  0.2262
58761W        W 1814  10.896  34.012  19.733  0.0377  0.1489 -0.0532
58762W        W 1815  24.494  14.283  14.879  0.0489 -0.2861 -0.0180
58763W        W 1816  18.833  11.166  17.341 -0.2925  0.0356 -0.3146
58764W        W 1817  16.209  11.682  16.473  0.0746  0.0291 -0.0320
58765W        W 1818   8.646  17.995  17.634 -0.4639 -0.1723 -0.2762
58766W        W 1819  21.394  20.373  23.134 -0.2826 -0.3935  0.3405
58767W        W 1820  26.130  23.683  28.588 -0.2616 -0.0229  0.1456
58768W        W 1821   7.743  12.435  18.105  0.3304  0.1794 -0.0419
58769W        W 1822   9.752  17.593  14.687 -0.0510 -0.0662  0.0817
58770W        W 1823  12.928  15.931  14.726 -0.0782 -0.5410  0.1038
58771W        W 1824  22.447  14.459  21.679  0.2014 -0.0506  0.0391
58772W        W 1825   8.197  14.941   1.422  0.0948 -0.2572 -0.0042
58773W        W 1826   9.315  13.483  22.437 -0.2750 -0.1630  0.0427
58774W        W 1827  12.262  25.747  22.813  0.2792 -0.0344  0.0766
58775W        W 1828  24.299  28.861  17.636  0.0855 -0.1724  0.1321
58776W        W 1829  25.883  21.655  21.568 -0.2995 -0.0505  0.1463
58777W        W 1830  19.995  10.931  25.670  0.1101 -0.6529  0.5742
58778W        W 1831  29.738  19.994  14.876 -0.0430  0.0374  0.1779
58779W        W 1832  23.345  28.724  19.029  0.0870  0.0245 -0.1667
58780W        W 1833  23.147  22.458   6.683  0.2021 -0.3743 -0.1386
58781W        W 1834  17.000   5.861  20.963  0.4056  0.1829 -0.1622
58782W        W 1835   1.972  24.999  26.807  0.1582 -0.0455 -0.0786
58783W        W 1836  22.129  14.558  14.038 -0.0984 -0.0030  0.1028
58784W        W 1837  29.017  18.093  22.618 -0.1251 -0.1922  0.0577
58785W        W 1838  16.661  10.608  18.435  0.0277 -0.0060 -0.3969
58786W        W 1839  19.275   5.723  20.264 -0.2841 -0.1287  0.0310
58787W        W 1840   4.372   1.422  21.882 -0.1425  0.0496  0.0259
58788W        W 1841  30.621  26.361   2.875  0.0347  0.0949 -0.0043
58789W        W 1842   5.292  17.274   3.625  0.1094 -0.0813  0.0839
58790W        W 1843  21.233   2.009  18.044  0.0517 -0.1384  0.0757
58791W        W 1844  16.682  30.359  18.451  0.1387  0.1813  0.0413
58792W        W 1845  22.150  21.776  23.768 -0.0220  0.1406  0.3751
58793W        W 1846   4.889  25.229   2.185 -0.0928  0.0746  0.0500
58794W        W 1847  32.479  11.336  21.115  0.0494 -0.0915  0.2387
58795W        W 1848   1.180  13.641  25.986 -0.0456  0.0666  0.0462
58796W        W 1849   7.809   7.912  25.326 -0.1995  0.0672 -0.2250
58797W        W 1850  24.723  20.056  19.461  0.2537  0.1464  0.3669
58798W        W 1851  13.111   4.328  22.075  0.2002 -0.2681 -0.0533
58799W        W 1852   9.646  12.477   6.366  0.3710 -0.0029  0.0049
58800W        W 1853   7.863  24.195  19.453  0.2272 -0.1087 -0.1896
58801W        W 1854  28.346  25.004  15.997 -0.1917  0.0848 -0.0648
58802W        W 1855  11.378  13.689  10.050  0.3535 -0.2819 -0.2518
58803W        W 1856   1.620  16.607  20.572 -0.1928 -0.2766 -0.1751
58804W        W 1857  31.689  10.073  24.683 -0.2073 -0.0314  0.1114
58805W        W 1858   9.210  24.568  23.039 -0.0628  0.0446  0.0549
58806W        W 1859   5.918  12.122  20.919 -0.3575 -0.0248 -0.1903
58807W        W 1860  16.803   9.498  19.743  0.2589 -0.2076 -0.0177
58808W        W 1861  22.330  29.994  21.864 -0.0225 -0.2041  0.0711
58809W        W 1862   4.429  15.104  19.135  0.3562  0.0590 -0.2085
58810W        W 1863  18.705  10.072  18.749 -0.0466  0.2321 -0.0814
58811W        W 1864   5.010  14.758  17.132 -0.1515  0.3691 -0.0428
58812W        W 1865  23.311  16.381  18.604 -0.3690  0.1959 -0.2592
58813W        W 1866   1.221  23.797  25.155  0.0639  0.0528  0.0200
58814W        W 1867  13.673   8.189  18.591 -0.0516  0.1927 -0.1828
58815W        W 1868   1.186  15.464  15.145 -0.2350  0.1004 -0.0526
58816W        W 1869  18.058  31.198  19.462 -0.1128  0.1991  0.0056
58817W        W 1870  25.319  19.050  22.080 -0.1612 -0.1716  0.2755
58818W        W 1871  11.412  28.948  14.212 -0.2351 -0.0234  0.1228
58819W        W 1872   3.128  17.632  20.042 -0.0107 -0.0390 -0.1547
58820W        W 1873  11.350   1.382  16.410 -0.2532  0.2804 -0.3197
58821W        W 1874  26.011  26.311  28.411 -0.0288  0.1427 -0.0479
58822W        W 1875  19.173   2.203  20.266 -0.0494 -0.0669  0.1751
58823W        W 1876  12.673  32.253  21.805  0.1820  0.1792  0.2117
58824W        W 1877  15.423   8.285  16.605 -0.1936  0.0985  0.2888
58825W        W 1878  10.294  12.310   5.220  0.0542  0.2184 -0.0311
58826W        W 1879  34.373   7.654  24.225 -0.1240 -0.0825 -0.1829
58827W        W 1880  14.146  17.204  14.424  0.3471 -0.1904 -0.0222
58828W        W 1881  22.407  20.296  14.717  0.1507 -0.1847  0.0963
58829W        W 1882  13.506  15.727  15.273  0.0099  0.0131 -0.2603
58830W        W 1883  10.785  13.322  18.230 -0.0193 -0.0172 -0.1844
58831W        W 1884  30.739  12.499   6.898 -0.2076  0.2340  0.0173
58832W        W 1885  32.486  11.741   1.498  0.0459  0.5552  0.1971
58833W        W 1886   8.902  20.878  15.901 -0.3373  0.0194  0.2275
58834W        W 1887   0.272  15.252  15.040 -0.0296 -0.2424 -0.0556
58835W        W 1888  24.649  14.627  21.253 -0.0744  0.0376  0.0517
58836W        W 1889   3.147  15.207  16.942 -0.0960  0.2795  0.2153
58837W        W 1890   7.213  21.339  27.303  0.0095 -0.0178  0.1593
58838W        W 1891   8.298  13.786  21.845 -0.1912  0.2042  0.0618
58839W        W 1892  14.654  17.788  26.753  0.0833  0.1514 -0.3941
58840W        W 1893   0.778   1.253  20.974  0.0786  0.3701  0.1701
58841W        W 1894  21.672  24.155  17.048  0.1754  0.1388 -0.0746
58842W        W 1895  12.937  32.732  22.067  0.0604 -0.1992  0.0479
58843W        W 1896   6.763   2.622  21.275  0.2818 -0.0559  0.0578
58844W        W 1897  20.525  19.208  22.690  0.1433 -0.0110 -0.1948
58845W        W 1898  20.024   9.794  18.647 -0.2347  0.0957  0.1019
58846W        W 1899   8.743  12.287   0.392  0.3074 -0.0454 -0.0577
58847W        W 1900   7.620  11.599  21.126 -0.1470  0.0107  0.0452
58848W        W 1901  24.758  25.863   1.797 -0.1960  0.0901  0.0079
58849W        W 1902  22.564  15.719  21.414 -0.2291  0.1496  0.1095
58850W        W 1903   9.310  32.958  17.725  0.1856 -0.2103 -0.1040
58851W        W 1904  14.873  10.987  17.332  0.0097  0.2885  0.0802
58852W        W 1905   0.151  23.607  24.225  0.1507  0.3194 -0.1569
58853W        W 1906   6.346   7.252  20.618 -0.0441  0.2820  0.0944
58854W        W 1907   7.151   4.177  24.349 -0.1336 -0.4908 -0.2676
58855W        W 1908  14.711  24.448  17.806 -0.2005 -0.2569 -0.3760
58856W        W 1909   3.188   8.463  23.090  0.0065  0.1658  0.0079
58857W        W 1910   7.505  17.463  13.658  0.0366  0.0397  0.0788
58858W        W 1911   5.578  25.479  19.526 -0.1669  0.2090 -0.0496
58859W        W 1912   5.961   1.348  21.484 -0.2434  0.1661 -0.0975
58860W        W 1913   6.947  28.405  12.739  0.1043  0.2942 -0.3079
58861W        W 1914  12.708  29.858  23.887 -0.1572 -0.1571  0.1493
58862W        W 1915   8.015  30.279  16.861 -0.2636 -0.0204  0.1554
58863W        W 1916  13.520  27.051   1.520  0.0759  0.0385 -0.1585
58864W        W 1917   8.322  14.515   2.789 -0.0210  0.0625  0.1197
58865W        W 1918   4.440  27.795  15.827 -0.2719  0.1071 -0.1793
58866W        W 1919  13.408  12.884  21.731 -0.1613  0.5368 -0.0484
58867W        W 1920  22.002   6.024  28.642 -0.1154  0.3950 -0.0826
58868W        W 1921   9.637   3.951   6.065  0.1603 -0.0131  0.0784
58869W        W 1922  21.272  15.858  15.656 -0.0327 -0.0834 -0.0852
58870W        W 1923   5.920  15.368  20.341  0.1085 -0.0787  0.0691
58871W        W 1924   0.900  27.419  19.450 -0.0879 -0.1102 -0.0495
58872W        W 1925   7.460  10.361  15.976 -0.0521 -0.2115  0.1371
58873W        W 1926  24.508  30.866  26.168 -0.2589  0.0828  0.3575
58874W        W 1927  34.536  32.011  19.709 -0.2321  0.0466  0.0283
58875W        W 1928  12.519   9.373  28.611 -0.0638 -0.3432 -0.0644
58876W        W 1929   1.107  26.444  19.385 -0.0389 -0.2188 -0.1557
58877W        W 1930  19.773  11.761  20.955 -0.2696  0.0081 -0.0530
58878W        W 1931   3.126  18.316  19.335 -0.3314  0.0940 -0.0313
58879W        W 1932   1.427  17.307  21.198  0.0825 -0.1841 -0.0251
58880W        W 1933  31.872  27.610  23.008 -0.1981 -0.1101  0.0217
58881W        W 1934   7.121  33.758   9.094 -0.1713 -0.3508 -0.1482
58882W        W 1935  33.508   2.756  26.715 -0.0285  0.1596  0.1455
58883W        W 1936   4.661  17.979  17.330  0.0658  0.1111 -0.2248
58884W        W 1937  31.671  15.326  23.188  0.0149  0.1169  0.0429
58885W        W 1938  22.905  21.406   2.675 -0.1592 -0.0029 -0.2245
58886W        W 1939  14.707  12.174  26.323 -0.1363  0.1891  0.0436
58887W        W 1940  21.410   9.091  17.095 -0.0897 -0.1744 -0.2430
58888W        W 1941  33.235  10.181  14.858  0.1431  0.2123  0.0148
58889W        W 1942  13.620  22.255  20.406  0.0019  0.1208  0.1421
58890W        W 1943  11.731  18.559  14.112  0.0358 -0.1400  0.1364
58891W        W 1944  16.276   7.912  23.947 -0.0777 -0.2662 -0.2186
58892W        W 1945   5.096  29.123   3.450 -0.1396 -0.0231  0.2563
58893W        W 1946   2.266  15.402   4.100  0.1469 -0.3844  0.0832
58894W        W 1947   7.995  18.078  14.272  0.0941 -0.3499 -0.0139
58895W        W 1948  24.138  10.349  20.946  0.0592  0.0583 -0.0487
58896W        W 1949   9.301  15.399  18.549 -0.1483  0.0303 -0.2255
58897W        W 1950  13.777  26.211  15.585 -0.0811 -0.2928  0.0891
58898W        W 1951   8.130   9.128  19.382  0.2693 -0.0459 -0.0529
58899W        W 1952   0.485  26.933  17.192 -0.1187  0.1183 -0.0549
58900W        W 1953  26.570  26.791  16.555  0.1844 -0.1168 -0.0327
58901W        W 1954   4.084  17.926  23.484 -0.0078  0.0744 -0.1948
58902W        W 1955  28.828   2.873  24.859 -0.0177  0.0848  0.0961
58903W        W 1956   4.351  23.693  16.341 -0.2406  0.0218  0.3299
58904W        W 1957  21.135  12.922  19.727  0.3210  0.0572 -0.1293
58905W        W 1958  12.962  11.954  15.700 -0.1539 -0.0788 -0.4042
58906W        W 1959  20.381  24.559  18.174 -0.1576  0.2610  0.0121
58907W        W 1960   8.229   9.094  27.006 -0.3515  0.1078  0.0919
58908W        W 1961  16.412  25.188  20.479 -0.2013  0.1730  0.1146
58909W        W 1962  34.018  19.823  18.184  0.0408 -0.0083 -0.1664
58910W        W 1963  33.798  11.460   5.887  0.1670  0.0288 -0.2677
58911W        W 1964  13.520   9.829  22.493 -0.0539 -0.1393 -0.0387
58912W        W 1965  33.259  26.718   4.075 -0.3583  0.0351 -0.1032
58913W        W 1966  13.363  11.176  25.046  0.1751 -0.2563 -0.0617
58914W        W 1967  10.560  15.958   0.434 -0.0467  0.1337  0.5652
58915W        W 1968  10.163   6.210  16.667  0.3266  0.0044  0.0626
58916W        W 1969  25.046  12.845  22.977  0.2278  0.0990 -0.0266
58917W        W 1970  13.658  22.215  21.328 -0.0946  0.3771 -0.0281
58918W        W 1971  34.219  20.069  19.548  0.3518 -0.0593  0.3895
58919W        W 1972  10.988   8.492  22.676  0.0929  0.1595 -0.1841
58920W        W 1973   5.578  32.100  16.054  0.2788  0.3141  0.1310
58921W        W 1974   3.321  11.541  28.472 -0.1087  0.0148  0.0237
58922W        W 1975   2.927  29.020  16.186 -0.1601  0.0567  0.0563
58923W        W 1976  14.558  10.923  25.893  0.1378  0.0829 -0.0998
58924W        W 1977  12.162  13.737   7.597 -0.0106 -0.0138  0.2061
58925W        W 1978  17.300  18.963  23.948  0.1776 -0.2076 -0.0402
58926W        W 1979  20.682  25.294  14.757  0.0127  0.1279  0.2106
58927W        W 1980  11.744  18.963  24.341  0.2576  0.0288 -0.0365
58928W        W 1981  29.557   3.353  14.976 -0.1588 -0.0726  0.0534
58929W        W 1982  10.412  16.316  25.743 -0.4327  0.0251 -0.2209
58930W        W 1983   7.246  20.391  29.193 -0.0660 -0.0187 -0.0903
58931W        W 1984  20.814  28.015   9.406 -0.1952 -0.1813 -0.0117
58932W        W 1985   9.421  18.876  14.026  0.2496  0.0241 -0.1797
58933W        W 1986   4.904  17.080  13.543 -0.2119  0.1961 -0.1866
58934W        W 1987   1.831  20.963  15.942  0.1526  0.2310 -0.3626
58935W        W 1988  21.527   7.043  17.362  0.0927 -0.1490 -0.1443
58936W        W 1989  20.664  10.773   5.008 -0.1955 -0.1121  0.3091
58937W        W 1990  24.540  18.042  27.013  0.0919  0.1392 -0.1935
58938W        W 1991  15.396  30.547  24.811 -0.1471  0.0276  0.0772
58939W        W 1992   7.145  18.239  20.951 -0.2917 -0.1450  0.2651
58940W        W 1993   6.205   2.766  28.956  0.0709  0.0229  0.0895
58941W        W 1994  29.960  18.060  13.456 -0.1314  0.1074  0.0618
58942W        W 1995  14.958  21.975  15.580 -0.0838  0.2702  0.1633
58943W        W 1996   0.818  19.459  19.802  0.1388  0.2451 -0.1938
58944W        W 1997  21.029   4.608  26.334 -0.0631 -0.1288 -0.0090
58945W        W 1998  24.238  17.919  16.392 -0.1554 -0.0437  0.2118
58946W        W 1999  14.672  16.841  28.487 -0.0952 -0.0942 -0.2910
58947W        W 2000  11.433   7.513  28.296 -0.0861  0.1234 -0.0342
58948W        W 2001   0.315  24.734  15.719 -0.1770  0.0795 -0.2394
58949W        W 2002   1.058   9.544   1.716 -0.1026  0.0214  0.1218
58950W        W 2003  22.064   4.812   4.923  0.2415  0.0011 -0.0024
58951W        W 2004   2.789   6.874  27.542 -0.0295 -0.0621 -0.1698
58952W        W 2005   4.042  21.078   4.080  0.0308 -0.1736  0.0111
58953W        W 2006  13.918  21.695  16.708  0.3746 -0.0827  0.0914
58954W        W 2007  16.263  24.125  18.358 -0.0195 -0.1065  0.0115
58955W        W 2008  23.315  29.831  21.904 -0.1116 -0.1127  0.0255
58956W        W 2009   6.865  20.724  24.009  0.2208  0.0334  0.0514
58957W        W 2010   4.093  21.252  21.698  0.1853  0.2694  0.2318
58958W        W 2011  17.112  17.626  24.327 -0.0511 -0.1301 -0.2714
58959W        W 2012  11.338  24.449  24.421 -0.1161 -0.0224  0.0110
58960W        W 2013   4.506  31.248  18.349  0.1264  0.3685 -0.1371
58961W        W 2014  24.614  10.747   3.448 -0.0429  0.0593  0.1004
58962W        W 2015  16.167  34.249  25.136 -0.3573  0.1340  0.0660
58963W        W 2016  29.749  22.025  21.851  0.1100 -0.1377 -0.1127
58964W        W 2017  14.526  22.269  20.858 -0.0461  0.0981 -0.2275
58965W        W 2018  27.703  23.477  23.751 -0.1546 -0.1833 -0.1560
58966W        W 2019  18.917  16.263  13.784  0.1024 -0.1568  0.0569
58967W        W 2020   4.666   1.672   2.500  0.0977  0.0855 -0.0524
58968W        W 2021  18.323  24.073  20.047  0.3906 -0.0506  0.1800
58969W        W 2022  22.247  19.496  16.259 -0.2144 -0.3351 -0.0888
58970W        W 2023   5.292  10.672  15.805 -0.1275 -0.1056  0.1134
58971W        W 2024   4.344  10.600  26.120 -0.0372 -0.2368 -0.2295
58972W        W 2025  19.954  20.379  14.085  0.0808 -0.0333  0.0897
58973W        W 2026   8.028  31.657   0.163  0.0244 -0.0337 -0.1451
58974W        W 2027  19.868  21.835   1.760  0.0047  0.0720 -0.3353
58975W        W 2028  13.321  25.257  24.875 -0.0233  0.1872  0.0189
58976W        W 2029   7.927   6.358  16.169 -0.2081 -0.1844 -0.0463
58977W        W 2030  21.980  17.484  27.852  0.1112 -0.0095 -0.2392
58978W        W 2031  20.606  11.399  16.458  0.0890 -0.0046 -0.1529
58979W        W 2032  27.129  15.710  17.649 -0.0562 -0.0694 -0.3547
58980W        W 2033   4.987  26.957   5.216 -0.0504  0.2233 -0.0774
58981W        W 2034   2.806  16.192   9.434  0.0276  0.1787  0.1441
58982W        W 2035   5.339   7.243  21.927 -0.1439  0.0240 -0.0558
58983W        W 2036  17.745  10.131  26.263 -0.1487  0.0423  0.4643
58984W        W 2037  15.027  20.843   7.655  0.1019  0.1733 -0.1913
58985W        W 2038  16.116  12.592  21.464  0.1330 -0.0353  0.1820
58986W        W 2039   5.854  21.906  26.265 -0.2043 -0.1619 -0.2588
58987W        W 2040  16.851   5.226  22.979 -0.0941  0.0215  0.0053
58988W        W 2041  21.800   9.316  27.171  0.1776  0.2275 -0.2900
58989W        W 2042   7.887  11.995  16.206 -0.0124  0.0231 -0.1127
58990W        W 2043   0.425  20.170  13.750  0.2634 -0.0706  0.0297
58991W        W 2044   1.968  19.963  17.882 -0.0290 -0.0125  0.3256
58992W        W 2045  20.760   9.250  17.351  0.1823  0.1970 -0.2652
58993W        W 2046  13.165  11.641  25.395 -0.1388  0.3425  0.0909
58994W        W 2047   1.164  33.802  24.752 -0.0106  0.1145 -0.0585
58995W        W 2048  20.114  20.914  14.197 -0.2234  0.1700  0.1044
58996W        W 2049  31.143   6.600  28.536 -0.3833  0.1877 -0.1668
58997W        W 2050  33.773   8.986  16.331  0.3364 -0.1154  0.0187
58998W        W 2051   8.505  19.559  17.364 -0.2097  0.1623  0.0609
58999W        W 2052   7.794   4.302   6.269  0.1528  0.0386 -0.0437
59000W        W 2053   3.266  20.168   2.841 -0.0646  0.1681 -0.1586
59001W        W 2054  18.307  25.738  16.597 -0.1111 -0.1313  0.0598
59002W        W 2055   8.902   4.853  19.452 -0.4273  0.1852  0.1341
59003W        W 2056  10.079  12.672   5.897 -0.3603  0.2053  0.1939
59004W        W 2057  25.028  16.580  17.289 -0.2367 -0.1672 -0.1339
59005W        W 2058   3.166  22.277  14.051  0.1152  0.0171 -0.0421
59006W        W 2059   9.433  20.202   8.595  0.1949  0.1573  0.3835
59007W        W 2060   0.567  26.927  18.667 -0.0350  0.0291 -0.0424
59008W        W 2061  20.653  14.838  14.068 -0.0909  0.4706  0.3504
59009W        W 2062   7.053  21.853  24.489 -0.1584 -0.2911  0.2173
59010W        W 2063   4.840  18.866  23.337  0.2298 -0.2038  0.3357
59011W        W 2064  31.183  25.019  25.574 -0.1725  0.0289  0.1236
59012W        W 2065   5.472  21.984  17.840 -0.0197 -0.1407 -0.0861
59013W        W 2066  21.671   2.521  23.422 -0.4291  0.0785 -0.0134
59014W        W 2067  23.711  31.242  21.091  0.0222  0.1594 -0.0546
59015W        W 2068  34.095  19.609  20.773 -0.1042  0.0218  0.1025
59016W        W 2069   8.127  22.568  14.915 -0.1909  0.1578  0.0034
59017W        W 2070  31.706   3.040  23.160  0.3095 -0.2063 -0.0095
59018W        W 2071  34.094  17.285  22.982  0.1880  0.1003 -0.1155
59019W        W 2072  15.662  24.407  23.688  0.0685  0.1272  0.0534
59020W        W 2073  18.949  30.224  16.758  0.1015 -0.2545 -0.1812
59021W        W 2074  12.703   4.159  25.326 -0.0722 -0.0975 -0.0902
59022W        W 2075  19.668  24.802  25.301 -0.1372  0.0127 -0.1348
59023W        W 2076  23.962  16.268  22.759 -0.2935  0.0522  0.2185
59024W        W 2077   6.640  17.367  19.215  0.2151  0.0539 -0.0016
59025W        W 2078   2.726  20.469  15.065  0.0374  0.0728  0.3577
59026W        W 2079  13.842  19.227  13.352  0.4463 -0.0347 -0.1341
59027W        W 2080   7.981  20.671  15.256 -0.3637  0.1019  0.0702
59028W        W 2081  25.221  18.733  15.963 -0.1014  0.0358 -0.0475
59029W        W 2082   1.899  14.198  16.085 -0.0763  0.1276 -0.0733
59030W        W 2083  30.801  29.069  21.482 -0.5366 -0.4095  0.1901
59031W        W 2084   5.280  26.925  20.234  0.1624  0.3057  0.1190
59032W        W 2085   1.556  27.111   3.673 -0.1778  0.0711  0.2849
59033W        W 2086  11.655  17.737  20.238 -0.0604  0.1575 -0.0328
59034W        W 2087  23.342   9.284  14.374  0.1352  0.0975  0.2592
59035W        W 2088  15.042  30.693   2.107 -0.0552 -0.0227 -0.0367
59036W        W 2089  17.079  30.931  14.911 -0.0035 -0.1947 -0.1115
59037W        W 2090  10.127  28.123  26.212  0.1701 -0.0933 -0.0703
59038W        W 2091   5.228  17.910  14.958 -0.2783  0.1069 -0.0387
59039W        W 2092  11.820  13.675  17.128  0.1348 -0.0083 -0.0544
59040W        W 2093  27.669  20.812  18.512  0.2519 -0.0457 -0.2462
59041W        W 2094  29.453   1.659  21.725 -0.4052  0.0024  0.0879
59042W        W 2095  13.071   7.585  26.362  0.3099  0.0864 -0.1466
59043W        W 2096  10.303  33.258  17.383 -0.0149 -0.0930 -0.2481
59044W        W 2097  23.635   3.319  28.710  0.0768  0.1907 -0.0538
59045W        W 2098   3.380  22.740   2.669  0.2634  0.2906 -0.0837
59046W        W 2099  31.065  28.400  13.409  0.0460 -0.1278  0.1196
59047W        W 2100   2.421   0.820  14.670  0.2411  0.3518 -0.2394
59048W        W 2101  15.297  18.959   2.642 -0.0686  0.2992 -0.3207
59049W        W 2102  16.040   8.057  20.765  0.4456  0.0095  0.3353
59050W        W 2103  23.434  19.401  24.746 -0.1217 -0.1410  0.0923
59051W        W 2104  24.561  23.960   2.508 -0.1443 -0.0678  0.0995
59052W        W 2105   2.862  21.359   3.627  0.1362  0.0874 -0.3070
59053W        W 2106  13.291  21.980  17.642  0.0474 -0.0169 -0.0937
59054W        W 2107   9.132   0.103  15.917 -0.1828 -0.2129  0.0272
59055W        W 2108  10.215  20.312  15.968 -0.3414  0.2217  0.2715
59056W        W 2109  14.288   8.452  25.631  0.0123  0.0448  0.0950
59057W        W 2110  10.373  27.773  15.825 -0.1304  0.0182 -0.3075
59058W        W 2111  25.963  24.625  18.562  0.0143 -0.1437  0.0211
59059W        W 2112  13.939  11.582   0.149  0.0138  0.1348 -0.1753
59060W        W 2113   9.719  17.603  22.831  0.0069 -0.1963  0.2047
59061W        W 2114   7.077  10.814  25.328  0.4407 -0.0170 -0.0875
59062W        W 2115  13.778   1.332  20.180 -0.2550 -0.0795  0.0316
59063W        W 2116  18.068   9.496  16.432 -0.0694  0.2055  0.2449
59064W        W 2117  11.877  26.288  19.167  0.0873 -0.1716 -0.2396
59065W        W 2118  23.587  17.541  15.118  0.0425 -0.3964  0.2503
59066W        W 2119   4.628  20.232   7.372 -0.2979 -0.2862  0.0479
59067W        W 2120  14.229  30.783  26.566  0.1033 -0.3727  0.0913
59068W        W 2121  14.154  14.731  26.882  0.0465 -0.0323  0.0292
59069W        W 2122   6.282  25.075  18.917  0.2627  0.1378  0.0009
59070W        W 2123  11.336  23.341  27.700  0.3556  0.0428 -0.0353
59071W        W 2124  15.182  20.825  23.749 -0.3788  0.1893  0.2772
59072W        W 2125  14.255   9.719  25.928  0.0572  0.1028 -0.2518
59073W        W 2126  33.992  15.731  23.540  0.0027 -0.2841 -0.0855
59074W        W 2127  20.507  21.902   4.402  0.0887 -0.1723  0.1937
59075W        W 2128  18.685   6.399  16.177  0.0272  0.4196  0.2401
59076W        W 2129  24.694  32.232  21.200 -0.1268  0.1882 -0.0755
59077W        W 2130  20.634   5.713  24.595  0.1246 -0.1219  0.0330
59078W        W 2131  12.237  25.607  28.583  0.2158  0.3338  0.4478
59079W        W 2132   2.764  19.536  24.962  0.2250  0.0965 -0.0116
59080W        W 2133  29.997  25.034  21.652 -0.3654  0.1033  0.1107
59081W        W 2134   5.314  23.552  18.499 -0.3125  0.0356  0.0279
59082W        W 2135   3.605  16.926  22.808  0.2063 -0.3420  0.1759
59083W        W 2136  20.082  26.439  15.434 -0.1535 -0.1860 -0.2196
59084W        W 2137  26.936  23.079  19.199 -0.2672 -0.2018 -0.2100
59085W        W 2138   8.640  17.864  27.850  0.0927 -0.1250  0.2123
59086W        W 2139  17.059  29.110  13.878 -0.1743  0.1007 -0.2919
59087W        W 2140   9.546  19.028  17.023 -0.1737 -0.0684  0.2676
59088W        W 2141  20.270  21.392  20.171  0.3074  0.3693  0.0469
59089W        W 2142  18.073  26.163  17.997  0.2609  0.2838  0.0461
59090W        W 2143   9.954  16.643  22.357  0.1487  0.0176 -0.3349
59091W        W 2144  28.963  17.942  28.974 -0.0934  0.0174  0.0508
59092W        W 2145  24.777  28.849   3.291  0.0625  0.7139  0.0191
59093W        W 2146  13.395   5.701   4.574  0.0798  0.2003 -0.4235
59094W        W 2147  13.416  11.589  21.804  0.0388 -0.1197  0.1947
59095W        W 2148   8.393  26.325  18.509  0.0340 -0.3229  0.1328
59096W        W 2149   8.389  14.079   9.504 -0.0775 -0.0269 -0.0278
59097W        W 2150  13.198  23.322  19.501 -0.0642 -0.4399  0.0621
59098W        W 2151  12.994   2.332   1.017 -0.3140 -0.0656  0.2068
59099W        W 2152   8.386   3.149  11.074  0.0822 -0.0165  0.1307
59100W        W 2153  30.319  21.183  27.841 -0.0492  0.1059 -0.0311
59101W        W 2154  18.324  23.514  19.300 -0.1982  0.0763 -0.1801
59102W        W 2155  10.973  11.793   4.235  0.1048 -0.2424  0.1158
59103W        W 2156  10.715  10.676   1.369 -0.1817  0.0692 -0.1620
59104W        W 2157   7.436   5.569   2.040  0.0224 -0.0427  0.2833
59105W        W 2158  10.797  12.695  19.299 -0.0144  0.3934  0.0291
59106W        W 2159  25.189   4.270   7.508  0.0772 -0.0832 -0.0286
59107W        W 2160   6.254   5.493  24.945  0.2495 -0.5413 -0.0615
59108W        W 2161  23.002  23.725  20.559 -0.1474  0.2693 -0.0612
59109W        W 2162   9.404  24.542  22.092 -0.2269 -0.2766  0.1770
59110W        W 2163   7.667  24.210  21.771 -0.0051 -0.1258 -0.5767
59111W        W 2164  22.531  20.292  17.914  0.1141  0.0848  0.0539
59112W        W 2165  20.413  16.383  20.769 -0.1230  0.1390 -0.0570
59113W        W 2166   5.327  29.892  17.863 -0.1866  0.0862 -0.2468
59114W        W 2167  16.488  17.898  25.630 -0.0555  0.2480 -0.2587
59115W        W 2168  23.661  10.050  25.482  0.1641 -0.3901 -0.4048
59116W        W 2169  23.819   0.968  27.699 -0.0930  0.2446 -0.1289
59117W        W 2170  18.656  23.559   3.361  0.2437  0.2259 -0.0669
59118W        W 2171  34.220  17.147  27.702  0.1303 -0.1354  0.0552
59119W        W 2172  12.655  20.413  17.716 -0.1209 -0.1986  0.1467
59120W        W 2173   2.950   2.019   2.865  0.0002 -0.0270  0.1024
59121W        W 2174  13.149  28.037  15.230  0.3494  0.0702 -0.1013
59122W        W 2175   5.821  34.113   6.128 -0.0420  0.1525  0.1373
59123W        W 2176  26.774  15.309   3.063  0.1053 -0.0961  0.1876
59124W        W 2177  28.708  15.155  24.991 -0.1444 -0.2137 -0.1297
59125W        W 2178  10.353  13.641   1.528  0.1041 -0.0618  0.0279
59126W        W 2179  10.060  32.264  28.684 -0.2871  0.3889  0.1002
59127W        W 2180   6.068  25.584  18.500  0.3142  0.2194  0.0980
59128W        W 2181   4.019  33.317   7.906  0.2232  0.0969  0.0080
59129W        W 2182  11.862  25.311   2.051 -0.0883  0.1887 -0.2593
59130W        W 2183  12.051  26.571  28.401 -0.1980  0.2973  0.0255
59131W        W 2184   7.075  17.026  18.815  0.0507  0.1085  0.2169
59132W        W 2185  20.927  24.494  25.562  0.0209  0.1682  0.0274
59133W        W 2186  20.817  19.348  21.206  0.0131 -0.1305  0.1583
59134W        W 2187   1.895  15.913   2.040 -0.3021  0.0020  0.2365
59135W        W 2188   2.156  12.838  23.145 -0.2152 -0.2123 -0.2071
59136W        W 2189   2.119  20.015  13.960  0.2152  0.1280  0.1022
59137W        W 2190  15.234   6.997  22.892  0.0919  0.2142  0.1074
59138W        W 2191  18.399   6.211  15.345  0.2497 -0.1913  0.0295
59139W        W 2192   1.191  14.344   0.371  0.0895  0.0274  0.0065
59140W        W 2193  12.909  18.414  13.840  0.0931  0.0019 -0.2003
59141W        W 2194  17.778  27.624  15.629 -0.1290 -0.2424  0.0693
59142W        W 2195  34.622   7.485  14.437 -0.2530  0.0749 -0.2275
59143W        W 2196   4.956  25.185  27.420 -0.2340 -0.0279 -0.1670
59144W        W 2197   4.021  30.059   5.682  0.0506  0.0947  0.3200
59145W        W 2198   1.387  23.564  17.599  0.0002  0.2479 -0.1372
59146W        W 2199  13.290  10.718  21.248 -0.3591 -0.1247 -0.0078
59147W        W 2200   5.338  13.400  22.649 -0.4307  0.1709  0.1554
59148W        W 2201  18.686  23.719  17.751 -0.0089 -0.1456  0.0101
59149W        W 2202  18.927  25.880   3.283 -0.2644 -0.1822  0.0582
59150W        W 2203  19.326  13.330  24.955 -0.0673  0.0059  0.0405
59151W        W 2204  22.911   7.837  17.202 -0.3035 -0.0411 -0.0796
59152W        W 2205   3.103   0.310  24.754  0.0226 -0.1241  0.0773
59153W        W 2206  14.236   5.860  20.620 -0.2435  0.0153  0.1999
59154W        W 2207   1.320  12.776  26.395 -0.1213  0.0641  0.0814
59155W        W 2208   4.154  23.038   4.373 -0.0596  0.3812  0.0945
59156W        W 2209  18.339  21.326   5.349  0.0965  0.2513 -0.0539
59157W        W 2210   7.899  28.495  12.460  0.0651 -0.1875  0.0912
59158W        W 2211  18.334  23.111  24.537  0.0239 -0.0077 -0.1671
59159W        W 2212  20.475  29.599  25.638  0.0938 -0.0755 -0.2676
59160W        W 2213  15.221  13.757  22.123  0.2561  0.4107 -0.1789
59161W        W 2214  13.587  28.307   9.008 -0.2203 -0.2805  0.0110
59162W        W 2215  13.042  21.755  10.585 -0.0229  0.1983 -0.1076
59163W        W 2216  27.444  17.544  15.783 -0.0280 -0.0607 -0.0787
59164W        W 2217   3.637  23.491  17.136  0.1091 -0.1689  0.0584
59165W        W 2218   7.273  15.839  14.072  0.0787 -0.1015  0.0324
59166W        W 2219  13.442  17.723  13.887 -0.4961  0.1598  0.1884
59167W        W 2220  19.808   2.425  21.432 -0.2540 -0.2508 -0.0667
59168W        W 2221  13.542  18.793  23.843  0.0548 -0.2642 -0.0013
59169W        W 2222  24.439   3.770   1.721 -0.3426 -0.1078  0.0062
59170W        W 2223  22.496  18.349   7.474 -0.0427 -0.2403 -0.2435
59171W        W 2224   2.717  10.035   5.441 -0.1017  0.2410 -0.1361
59172W        W 2225  18.508   3.180   5.762  0.0935  0.2242  0.0352
59173W        W 2226  18.837  22.364  22.117  0.1948  0.1284  0.0428
59174W        W 2227  19.963  33.875  16.484 -0.0758  0.2237 -0.2648
59175W        W 2228  16.728  24.178  19.796 -0.2017  0.0901 -0.1337
59176W        W 2229  30.091  22.359  22.285 -0.1958 -0.2823 -0.1870
59177W        W 2230  26.502   8.371  26.634  0.2170  0.2258 -0.2896
59178W        W 2231  14.995  17.633  24.298  0.0906 -0.2054 -0.0543
59179W        W 2232   3.705  13.683  27.754 -0.2180 -0.0445  0.0951
59180W        W 2233  11.920  19.162  22.748 -0.1297 -0.1715 -0.0154
59181W        W 2234  33.145  20.284  13.815  0.0710 -0.2139 -0.0358
59182W        W 2235   4.657   9.129   0.174 -0.1126 -0.2204 -0.2310
59183W        W 2236  30.869  21.632  26.526  0.1677 -0.4012  0.1364
59184W        W 2237  13.944  14.568  20.631  0.2046 -0.2382 -0.2170
59185W        W 2238  10.455  10.266  20.460  0.3036 -0.1854  0.0732
59186W        W 2239  32.679  18.288   6.962 -0.1975 -0.2113 -0.0690
59187W        W 2240   7.305   8.765  28.045 -0.0797 -0.0633 -0.0107
59188W        W 2241   8.446  19.608  19.368  0.0764 -0.1799 -0.2647
59189W        W 2242  19.752  23.415  21.417 -0.0114  0.1517  0.2446
59190W        W 2243  16.121  21.940   6.284  0.0905 -0.2882 -0.1370
59191W        W 2244  22.534   6.583  18.223  0.0230  0.2091  0.2222
59192W        W 2245   8.913  22.625   1.099  0.0222 -0.3168 -0.0032
59193W        W 2246  15.735  34.014  20.848  0.1043  0.1214  0.2088
59194W        W 2247  14.931   1.723   6.675  0.2102 -0.0850  0.0578
59195W        W 2248  17.313   5.317  25.444 -0.3597 -0.0022  0.1151
59196W        W 2249  23.964   9.045   0.237 -0.2202 -0.0611 -0.0815
59197W        W 2250  32.554  12.129  18.276 -0.1212  0.1869  0.6267
59198W        W 2251  26.989  33.118   1.364  0.0740  0.1117 -0.0534
59199W        W 2252  34.236   9.001  10.550 -0.3243 -0.2191 -0.0037
59200W        W 2253   4.436  22.914  21.375 -0.0739 -0.1958 -0.2808
59201W        W 2254  25.604  15.444  24.632 -0.1097 -0.1557  0.0046
59202W        W 2255  12.456  21.794  21.341  0.0807 -0.0863  0.0118
59203W        W 2256   4.724  26.191   6.131 -0.1800 -0.0363 -0.0076
59204W        W 2257  13.973  14.363  15.603 -0.4438  0.2016 -0.2473
59205W        W 2258   5.758  28.522  12.839  0.0911  0.2019 -0.2155
59206W        W 2259   7.675  29.475  16.270 -0.0909 -0.0816  0.0432
59207W        W 2260  17.108  31.507   7.733 -0.0221 -0.0443  0.1514
59208W        W 2261  26.339   4.916  15.359  0.1288  0.1336 -0.2493
59209W        W 2262  16.380  13.388   2.441 -0.2417  0.2236 -0.0274
59210W        W 2263  12.351   4.066   3.146 -0.2579  0.0258 -0.1591
59211W        W 2264  25.737  29.046   3.695  0.0738  0.0090 -0.3718
59212W        W 2265  31.534  15.444  27.527  0.0429 -0.1927 -0.0894
59213W        W 2266  31.923   4.725  15.571  0.4465  0.0210 -0.1334
59214W        W 2267  10.490   6.581  20.298  0.1750  0.1738  0.3534
59215W        W 2268   8.086  18.632  23.057 -0.2989  0.0582 -0.0207
59216W        W 2269  28.429  34.565   0.563  0.0197 -0.1657 -0.2921
59217W        W 2270  29.769   1.193  19.058 -0.0343  0.0348  0.0991
59218W        W 2271  29.603  18.577  29.040  0.1000 -0.0377  0.2200
59219W        W 2272   8.303  23.783  23.170 -0.0461  0.1351 -0.3181
59220W        W 2273  13.099  11.135  22.737 -0.4902 -0.2588  0.1001
59221W        W 2274  17.416  18.098  19.724 -0.2090  0.1149 -0.2179
59222W        W 2275   4.276   5.665  14.283  0.1306  0.0731  0.0459
59223W        W 2276  22.934  22.795  25.174 -0.0468 -0.1526 -0.1665
59224W        W 2277   0.384  23.634  19.525  0.0552  0.1213  0.0017
59225W        W 2278  30.080  13.183  15.399  0.0781 -0.0333  0.0155
59226W        W 2279   8.142  28.502  14.959 -0.1201  0.1619  0.3300
59227W        W 2280  21.842  26.634  21.567 -0.1299  0.2511  0.1809
59228W        W 2281   8.806  16.578   4.297  0.0319 -0.0540 -0.1967
59229W        W 2282  10.242  10.338  20.007  0.0644 -0.3718  0.2708
59230W        W 2283   8.187   9.920  23.074  0.0659  0.3847 -0.1758
59231W        W 2284   7.395  23.309  14.300  0.0105 -0.0842 -0.3688
59232W        W 2285   0.172  14.289  20.564 -0.1082  0.1245  0.2011
59233W        W 2286   1.136  27.790  14.970 -0.1555 -0.0993  0.0777
59234W        W 2287   8.810  14.885   2.088 -0.0087 -0.1524 -0.0172
59235W        W 2288  13.411   5.742   6.808 -0.2531 -0.1837 -0.1599
59236W        W 2289  10.921   3.082  20.813 -0.2211 -0.2880 -0.1040
59237W        W 2290  11.349  25.574  25.184 -0.2002  0.0094  0.1809
59238W        W 2291  29.916   9.681  20.987 -0.0518 -0.0582 -0.1533
59239W        W 2292  19.723  16.653  15.178  0.0327  0.3104 -0.2239
59240W        W 2293  17.722  29.521  28.640  0.0975 -0.0428  0.0471
59241W        W 2294  11.105  15.053  18.202 -0.0520 -0.1612  0.1236
59242W        W 2295  13.474  33.980   6.974  0.2347 -0.0949  0.0344
59243W        W 2296  29.611  28.813  17.406 -0.0581  0.1078 -0.3177
59244W        W 2297  11.162  12.106  22.053 -0.2161  0.1639  0.2159
59245W        W 2298   9.144   1.012  14.501  0.0815  0.0335 -0.0297
59246W        W 2299  11.593  28.231  21.735  0.0165 -0.2508 -0.1821
59247W        W 2300  24.287   3.913   0.307  0.1349  0.0693 -0.2391
59248W        W 2301  10.001  15.138  19.992 -0.2689 -0.1588 -0.0438
59249W        W 2302  30.960  17.923   4.224 -0.1319  0.0416  0.1002
59250W        W 2303   1.504  10.146  24.360  0.1627 -0.1277 -0.1346
59251W        W 2304  19.894  32.181  24.519 -0.3519 -0.1698 -0.0444
59252W        W 2305  13.884   8.189   2.318  0.2822  0.0936 -0.0174
59253W        W 2306  11.630  23.121  28.531  0.2365  0.1194 -0.1695
59254W        W 2307  12.297  25.557  20.854  0.0944  0.2193 -0.2601
59255W        W 2308  26.075  21.055  17.292  0.0181 -0.0708  0.0957
59256W        W 2309  19.740   3.625  23.974 -0.0953 -0.0898 -0.3237
59257W        W 2310   3.265  16.221  23.212 -0.1034 -0.0058 -0.1850
59258W        W 2311   7.900  16.576  16.953 -0.0456 -0.0831 -0.1347
59259W        W 2312  24.364  11.035  28.469 -0.0642 -0.1608 -0.1952
59260W        W 2313  15.082  10.950  20.867  0.0248 -0.0714 -0.0860
59261W        W 2314  10.122  33.310  21.438 -0.0445 -0.1582 -0.0413
59262W        W 2315   9.515   3.626   2.437  0.3139  0.1029 -0.1942
59263W        W 2316   9.353  23.268  13.703 -0.0116 -0.1800  0.2637
59264W        W 2317  14.981  12.932   3.212  0.0028 -0.0146  0.4014
59265W        W 2318  18.190  22.532   0.092  0.0386  0.1208 -0.3870
59266W        W 2319   0.725  10.000  22.331 -0.0188  0.0010 -0.0619
59267W        W 2320  12.077  33.007   8.862  0.0203 -0.0814  0.0753
59268W        W 2321  17.905  17.944  17.940 -0.1142  0.2892  0.2599
59269W        W 2322  32.014  20.937  26.510  0.0278 -0.0451 -0.1006
59270W        W 2323  31.244  21.366  25.768  0.0498 -0.1664 -0.0187
59271W        W 2324  11.001   5.360   0.259  0.1840  0.3560  0.2693
59272W        W 2325  16.839  31.603  27.465 -0.0596 -0.2870 -0.1537
59273W        W 2326  17.340  15.758  14.955  0.1294 -0.0271 -0.2421
59274W        W 2327  15.145   9.213   5.906  0.1674 -0.2192 -0.0299
59275W        W 2328  13.034   6.051  22.209  0.1106 -0.0240 -0.0358
59276W        W 2329   3.265  20.308  21.332 -0.0849 -0.3568 -0.0466
59277W        W 2330   7.035   2.187  21.138 -0.0535 -0.0365 -0.1626
59278W        W 2331  30.049  24.337   1.451 -0.2699 -0.0956  0.0456
59279W        W 2332   6.163  27.704  16.544  0.0491 -0.1634  0.0524
59280W        W 2333  31.920  22.487  28.091  0.0470 -0.1617 -0.0813
59281W        W 2334   0.924  24.469  14.951  0.2045  0.3803  0.0151
59282W        W 2335   0.898  23.732  28.854 -0.1464 -0.0074 -0.0135
59283W        W 2336  34.452   3.570   6.862 -0.0826 -0.0470 -0.0647
59284W        W 2337  31.493  13.227   9.884 -0.1873 -0.1165  0.0140
59285W        W 2338  16.123  23.429   5.124  0.0627  0.3582  0.1384
59286W        W 2339  34.615   9.798   2.333 -0.4086 -0.2383  0.3162
59287W        W 2340  24.333  18.352  16.622  0.1806  0.0046  0.1978
59288W        W 2341  28.310  30.856  25.923 -0.1088 -0.2353 -0.1344
59289W        W 2342   7.305  18.421  15.073 -0.1059  0.0622 -0.2326
59290W        W 2343  21.915   4.725  15.234  0.0029 -0.0524  0.3592
59291W        W 2344  11.159   6.239  26.299  0.1062 -0.0705 -0.1572
59292W        W 2345   5.429   3.091  28.794 -0.3809  0.2225 -0.0141
59293W        W 2346  27.328  10.955  20.082  0.1445 -0.2112 -0.1272
59294W        W 2347  18.365  24.380  18.031 -0.2666  0.2159 -0.0514
59295W        W 2348  32.610  23.587  27.908  0.2559 -0.1143  0.0274
59296W        W 2349  20.992  16.175  13.306  0.1051 -0.0656  0.0203
59297W        W 2350   9.585   5.791  26.484 -0.1077 -0.1341 -0.0592
59298W        W 2351  26.943  16.687  17.955  0.1097  0.0998 -0.1045
59299W        W 2352   9.439  18.000  25.375  0.5017  0.0483  0.0423
59300W        W 2353   0.280  26.109  17.757 -0.0774  0.0258 -0.2764
59301W        W 2354   2.879  15.144   4.053 -0.0258 -0.0649 -0.1877
59302W        W 2355  17.237  21.768  20.034  0.0127 -0.0854 -0.2571
59303W        W 2356  28.587  10.405  18.062  0.1428  0.0387 -0.1749
59304W        W 2357   7.388  24.190  22.858  0.0988  0.2511 -0.2551
59305W        W 2358   7.952   3.282  18.461  0.0724  0.0703 -0.2088
59306W        W 2359  26.780  12.137   6.767 -0.4047 -0.1975  0.2861
59307W        W 2360   8.032  12.853   1.461 -0.3537  0.0055  0.0249
59308W        W 2361  30.436  15.675  20.484  0.2128 -0.1267  0.2256
59309W        W 2362   8.270   1.822  25.830  0.1097 -0.3029  0.0560
59310W        W 2363  34.422  19.150  14.668  0.2451 -0.0379 -0.0285
59311W        W 2364   7.943  34.246  19.225 -0.2708 -0.1280 -0.1476
59312W        W 2365   0.614   5.121  16.636 -0.2106  0.2762 -0.1014
59313W        W 2366  12.208  17.661   5.732 -0.2680 -0.0459 -0.1156
59314W        W 2367  16.994  16.129  24.914  0.0378 -0.2010 -0.2436
59315W        W 2368  11.032  16.036  16.954  0.1037 -0.0065 -0.0901
59316W        W 2369   6.760  19.027  21.996  0.1620  0.2418 -0.2308
59317W        W 2370  16.322  11.720  23.748  0.4105 -0.0908 -0.5424
59318W        W 2371  10.744  13.655   8.178 -0.2145 -0.0814  0.2425
59319W        W 2372  15.472   3.824  28.178  0.2698 -0.3073  0.2677
59320W        W 2373  11.447  25.399  16.981  0.0035  0.1359 -0.2503
59321W        W 2374   4.624  10.846   0.295  0.2114 -0.0116 -0.2914
59322W        W 2375  11.806  24.358  18.103 -0.1636 -0.0341 -0.1844
59323W        W 2376  10.226  15.675   9.829 -0.0385 -0.0216  0.0588
59324W        W 2377   2.171   8.507  25.724  0.0265  0.1276 -0.1563
59325W        W 2378   8.382   9.759   2.786  0.0070 -0.1646 -0.0859
59326W        W 2379  22.720  34.352   1.884  0.1421 -0.0175  0.0107
59327W        W 2380  11.051  25.227   1.646  0.3182  0.2002  0.0793
59328W        W 2381  16.156   7.723   1.969 -0.0638  0.0432 -0.1271
59329W        W 2382   8.700  29.835  22.369  0.2250  0.1881 -0.0349
59330W        W 2383  12.364  19.001   5.218 -0.3325 -0.4401  0.0886
59331W        W 2384  19.353   4.876  28.645  0.1223 -0.2151  0.2128
59332W        W 2385  10.961   2.885  24.794 -0.3406  0.2615  0.1942
59333W        W 2386  33.775  16.923   5.888  0.0918  0.0637  0.2727
59334W        W 2387   3.125  16.080  18.762 -0.1905  0.0032  0.5590
59335W        W 2388  26.533  14.899  18.391 -0.0184 -0.0332  0.2223
59336W        W 2389   9.477  23.997  19.405 -0.1495  0.1246  0.0725
59337W        W 2390  17.677  20.639   6.047 -0.0652  0.0148  0.2286
59338W        W 2391  24.756   8.655   7.489  0.2446 -0.2095 -0.1596
59339W        W 2392   0.967  17.462  18.612 -0.2666  0.2599  0.2525
59340W        W 2393  21.093  14.032  28.613 -0.1750 -0.0868  0.1542
59341W        W 2394   6.467  32.636  28.221 -0.1490  0.0633 -0.1728
59342W        W 2395   4.237  25.383  17.775  0.1333  0.2016 -0.0649
59343W        W 2396  13.753  25.005  17.118  0.0187 -0.4536  0.3650
59344W        W 2397   3.145  19.064  28.532 -0.0108 -0.3230 -0.0552
59345W        W 2398   4.489  30.472  25.277 -0.2112  0.2062 -0.0430
59346W        W 2399  24.538   9.060   3.662  0.1127  0.1125  0.0673
59347W        W 2400  19.932  31.415  16.957  0.1738 -0.2185 -0.1077
59348W        W 2401  16.492  10.332  13.746 -0.0851  0.0147 -0.1650
59349W        W 2402  17.735   7.794  20.652 -0.1486 -0.2013  0.2567
59350W        W 2403   4.619   1.893   1.982 -0.0778  0.1456  0.1138
59351W        W 2404   9.883  14.362   6.287 -0.0163  0.0819 -0.1156
59352W        W 2405   3.869  17.272  26.765  0.2033 -0.4298 -0.0222
59353W        W 2406   1.992  12.191   4.639  0.0669  0.2429 -0.0415
59354W        W 2407  21.653  20.967  19.979 -0.0682 -0.2317 -0.0150
59355W        W 2408  23.941  12.252  24.891 -0.1143 -0.0257  0.2089
59356W        W 2409  29.050   2.037  26.132  0.0525  0.0611 -0.0871
59357W        W 2410  16.435  26.851  16.387  0.2539 -0.0075  0.4215
59358W        W 2411  31.215  17.668   7.220 -0.3458  0.1160 -0.0080
59359W        W 2412   3.165  21.043   5.735 -0.1693  0.1362  0.0828
59360W        W 2413  18.792  11.465  20.724  0.0893 -0.3194  0.2031
59361W        W 2414  25.249  17.734  18.453  0.0205  0.0891  0.2981
59362W        W 2415   1.935   5.135  26.949 -0.3107  0.4809 -0.1882
59363W        W 2416  31.298  23.873   5.919 -0.0256  0.0667  0.1209
59364W        W 2417  12.722  14.858   8.027  0.0815 -0.0254 -0.1356
59365W        W 2418  20.680  11.684  16.847  0.3392  0.1478  0.0230
59366W        W 2419   3.335  13.968   8.650 -0.1628  0.2900  0.1154
59367W        W 2420  11.277  17.410   3.214  0.0105  0.1570 -0.3846
59368W        W 2421   9.742  11.350   3.453  0.0810  0.1520 -0.1512
59369W        W 2422  15.381   8.783  18.129  0.2643  0.2776 -0.0196
59370W        W 2423  14.147  11.519  25.555 -0.0383 -0.0518 -0.2699
59371W        W 2424  17.586   7.953  24.541 -0.2462 -0.1959  0.0701
59372W        W 2425   4.887  22.581   2.642 -0.4389 -0.1813  0.2722
59373W        W 2426   8.865  22.467  14.455  0.0149  0.2361 -0.1483
59374W        W 2427   3.759  20.324  21.654 -0.0286 -0.2013  0.0975
59375W        W 2428  17.356  24.220  27.262 -0.0326  0.4304  0.2062
59376W        W 2429  18.795   8.180  17.847  0.0219 -0.0243  0.0123
59377W        W 2430   2.916  14.952  21.765 -0.0748 -0.3576 -0.2489
59378W        W 2431  10.564  15.623  17.347  0.0380  0.1870 -0.1946
59379W        W 2432  32.825  14.391  23.260  0.0781  0.0762 -0.0699
59380W        W 2433   9.664   4.253  19.812 -0.0312 -0.2155  0.3577
59381W        W 2434  19.962  14.238  25.943  0.1122  0.0692  0.0551
59382W        W 2435  12.202  10.261  25.844  0.0844 -0.2471  0.1160
59383W        W 2436  32.048  26.476   3.321 -0.1244 -0.0693  0.2112
59384W        W 2437   3.903   0.007  16.825 -0.1460  0.2173 -0.1836
59385W        W 2438  26.353   3.878  22.193 -0.2155  0.1181 -0.0752
59386W        W 2439  21.651  28.310  25.377  0.3642 -0.3153 -0.2480
59387W        W 2440   2.545  20.528  13.767  0.1113 -0.0279 -0.1478
59388W        W 2441  15.061   5.864   3.051 -0.1018 -0.2146  0.1963
59389W        W 2442  13.680  20.770  16.278  0.4953  0.0088 -0.3397
59390W        W 2443   8.421  13.831  27.589  0.0745  0.3125 -0.0572
59391W        W 2444  25.544  20.407  17.752  0.2340 -0.3082 -0.1000
59392W        W 2445  15.109  13.275  15.606  0.1127 -0.0279 -0.0372
59393W        W 2446  14.040   4.591  27.997 -0.3655  0.2576  0.4747
59394W        W 2447  11.689  25.534   7.405 -0.0465 -0.1416  0.0113
59395W        W 2448   5.325   7.441  19.203  0.0273  0.1019  0.3269
59396W        W 2449  13.345   1.174  15.114  0.3981 -0.1549 -0.3555
59397W        W 2450  22.316  19.950  15.813 -0.0692 -0.0388  0.4224
59398W        W 2451  33.398  23.247   6.524 -0.2903  0.5706 -0.1499
59399W        W 2452   6.061  15.331   3.459  0.0456 -0.2255  0.3418
59400W        W 2453   3.208  18.038  23.708  0.1054  0.4272  0.2706
59401W        W 2454  28.482  18.881  16.636 -0.1240 -0.4421 -0.1283
59402W        W 2455  23.966  17.220  19.648 -0.1164 -0.1647 -0.0354
59403W        W 2456  10.891  33.739   2.917  0.1809  0.4219 -0.0598
59404W        W 2457  16.766  33.297  19.854 -0.3729  0.3342  0.0051
59405W        W 2458  15.049  28.746  10.484 -0.0443 -0.3291  0.2903
59406W        W 2459  13.226   1.581  23.766  0.1782 -0.2661 -0.3229
59407W        W 2460  29.517  21.552  18.367  0.2077  0.2602 -0.0040
59408W        W 2461  31.266  32.174  16.960 -0.2764  0.1624  0.0556
59409W        W 2462  12.906  14.901  20.254  0.0512  0.0310 -0.5613
59410W        W 2463   2.099  21.121  25.746 -0.3051  0.2708  0.0442
59411W        W 2464   0.879   2.038  25.749  0.0292 -0.1271 -0.1773
59412W        W 2465  29.344  16.829   0.423 -0.0836  0.2184  0.1189
59413W        W 2466  12.821  18.624  25.834 -0.0162 -0.0801  0.1796
59414W        W 2467  29.153  15.257  17.706  0.1299 -0.0529  0.2601
59415W        W 2468   5.695  16.674   6.678 -0.0291 -0.0917 -0.0537
59416W        W 2469  10.815  20.251  17.443 -0.0586 -0.0226 -0.2859
59417W        W 2470  10.545   9.102   8.654 -0.2089 -0.1517  0.1043
59418W        W 2471  30.196  15.864  19.287  0.0445 -0.3728 -0.3440
59419W        W 2472  31.223  11.791  25.034 -0.2218 -0.1270  0.0021
59420W        W 2473  14.147  32.933  20.891 -0.1351 -0.1398 -0.1984
59421W        W 2474  34.323  10.900  21.175  0.0988  0.0907 -0.1068
59422W        W 2475  12.637   8.579  19.628 -0.3154  0.2587 -0.2939
59423W        W 2476  25.505   8.435  24.186  0.2233  0.0553 -0.0846
59424W        W 2477  10.430  17.282   7.218 -0.0137  0.1385 -0.0808
59425W        W 2478  30.321  24.988  20.240 -0.0156  0.0876  0.1512
59426W        W 2479   8.917  19.838  14.570 -0.0434 -0.0210 -0.0117
59427W        W 2480  18.765  23.692  22.258 -0.0846 -0.0126  0.0266
59428W        W 2481  17.034  31.838  22.396  0.1029  0.4588 -0.0285
59429W        W 2482  25.685  19.935  18.599 -0.0669  0.2542  0.2079
59430W        W 2483  20.963  18.975  22.533  0.1346 -0.1461  0.0186
59431W        W 2484  15.821  12.402  19.907 -0.3850 -0.3800  0.1048
59432W        W 2485   4.448   5.537   0.844  0.0846  0.1731  0.1325
59433W        W 2486  21.623  23.636  23.981 -0.3379 -0.0199  0.0332
59434W        W 2487  13.936  20.768  14.802 -0.0071 -0.0995 -0.2650
59435W        W 2488   7.925  24.834   6.216 -0.0652  0.4786  0.1479
59436W        W 2489  21.275   1.664  17.711 -0.2919 -0.3092  0.2567
59437W        W 2490  14.338  13.137  26.740 -0.1009 -0.0361  0.3305
59438W        W 2491  29.307  13.022  17.189 -0.2879  0.0883  0.2469
59439W        W 2492  11.226   9.942  11.714 -0.0964  0.0058  0.1635
59440W        W 2493   0.643  14.113  17.846  0.0304  0.0629 -0.0574
59441W        W 2494  17.778  11.606  28.052 -0.3066  0.1621 -0.1717
59442W        W 2495  14.171  16.852  15.688 -0.2550  0.2702 -0.4196
59443W        W 2496  19.928   9.417  19.792 -0.0698 -0.1901 -0.0522
59444W        W 2497   2.476   2.596  28.649  0.0250 -0.2372 -0.0417
59445W        W 2498  11.070  11.145  16.981 -0.3297 -0.1223  0.2783
59446W        W 2499   2.600   6.344   0.938  0.2500  0.2272  0.1627
59447W        W 2500  29.308  11.805  24.825 -0.1176  0.0671  0.0302
59448W        W 2501  28.113  12.173  24.376  0.1990 -0.0071  0.0325
59449W        W 2502  16.158  13.037   3.959  0.0367  0.3938 -0.0164
59450W        W 2503  20.665   9.529   7.579 -0.0838 -0.1004 -0.2801
59451W        W 2504  27.316   7.954  24.955  0.3997  0.0336  0.1124
59452W        W 2505   6.892  22.150   4.526  0.0229  0.0852 -0.2448
59453W        W 2506   5.608   7.237   9.757 -0.2022  0.0042 -0.0766
59454W        W 2507  19.094  11.967  18.105 -0.2566 -0.3700  0.2202
59455W        W 2508   7.970   7.647  21.378 -0.3564  0.0483  0.0636
59456W        W 2509  33.310  18.902  19.290  0.0364  0.2564 -0.2280
59457W        W 2510  29.698  26.358   0.878 -0.1887  0.1330  0.2356
59458W        W 2511   1.714  26.564  26.270  0.0491 -0.3981 -0.1874
59459W        W 2512  29.427  16.130  28.172  0.1563 -0.1278  0.2065
59460W        W 2513  13.332  16.488   1.002 -0.0252  0.1799 -0.0961
59461W        W 2514   8.678  26.504  24.343 -0.4728  0.2424  0.1917
59462W        W 2515  27.207  15.721   7.658  0.2358 -0.4202  0.0992
59463W        W 2516   4.910   8.227  26.403 -0.1722 -0.2325  0.1499
59464W        W 2517   3.290   9.398   6.259  0.1040  0.2644 -0.2058
59465W        W 2518   1.626  11.974  21.328  0.1011 -0.2004 -0.0738
59466W        W 2519   5.212  21.742   8.218 -0.1647 -0.0206  0.0797
59467W        W 2520   7.055  16.843  24.515  0.0714  0.3517 -0.1868
59468W        W 2521  32.114   8.467  24.953  0.0913  0.0693 -0.0682
59469W        W 2522   6.692  18.382  15.533 -0.0902 -0.0146  0.2913
59470W        W 2523  10.837   9.661  11.821  0.0297 -0.4944  0.0068
59471W        W 2524  14.783  28.523  21.478  0.1146 -0.0723  0.0857
59472W        W 2525  13.775  24.526  24.197 -0.1508 -0.2895 -0.1436
59473W        W 2526  22.497   8.909  14.434 -0.1977  0.1340 -0.0540
59474W        W 2527  10.690  11.421   2.254 -0.1260 -0.4667  0.2737
59475W        W 2528  21.744   9.905  22.362 -0.0922  0.1416  0.2837
59476W        W 2529   5.770  26.648   3.428 -0.1032  0.1600 -0.1410
59477W        W 2530   3.638  19.603  16.953  0.0745 -0.2259  0.1852
59478W        W 2531   7.185  14.011  20.837  0.0342 -0.1132 -0.0772
59479W        W 2532   5.457  21.084  16.266 -0.0109 -0.5140 -0.0730
59480W        W 2533   1.791  11.189   4.415  0.2140 -0.0827  0.0931
59481W        W 2534   4.610   8.744  24.985  0.2980  0.1379 -0.3570
59482W        W 2535  22.029   8.725  25.829 -0.3180 -0.1207 -0.1074
59483W        W 2536  17.215  28.074   0.223 -0.0980 -0.1643  0.1520
59484W        W 2537   4.056  14.359  24.280 -0.1782  0.2241  0.0765
59485W        W 2538   6.136   5.353  19.335  0.0406  0.4803  0.1090
59486W        W 2539  11.647   3.582  26.121  0.3428 -0.3472  0.1764
59487W        W 2540  34.651  13.227   1.316  0.0287  0.1119 -0.0214
59488W        W 2541  17.220  13.432  26.974 -0.0448  0.1091  0.1244
59489W        W 2542  23.186   1.272  16.283 -0.0177  0.1005 -0.0371
59490W        W 2543  10.197  10.540   6.495 -0.3069  0.1925 -0.1522
59491W        W 2544  12.491  18.621  16.242  0.2255  0.1484 -0.2231
59492W        W 2545  13.509   9.551   9.856 -0.4433  0.0816  0.2456
59493W        W 2546  10.968  34.595  28.425  0.1306  0.0616 -0.0466
59494W        W 2547  19.623  13.979  21.266  0.2621 -0.2184 -0.2832
59495W        W 2548   7.240  19.662  24.534  0.0620  0.3126 -0.0192
59496W        W 2549  31.430  12.594  25.600 -0.0535 -0.0705  0.1407
59497W        W 2550  32.926  25.704  21.149 -0.0379  0.0242 -0.1820
59498W        W 2551   2.157  20.521  15.782 -0.0534 -0.1299 -0.2631
59499W        W 2552  14.151  24.746  14.616  0.0080 -0.0458  0.2041
59500W        W 2553  14.962  16.124  26.740  0.0611  0.0661  0.0894
59501W        W 2554  20.575  31.706  20.993 -0.0061  0.2421 -0.1821
59502W        W 2555  17.569   6.184  23.889 -0.0005  0.2067 -0.2068
59503W        W 2556  12.624  22.697  16.711 -0.0272 -0.2706  0.0231
59504W        W 2557   8.792  19.841  22.685  0.1130 -0.2090  0.0722
59505W        W 2558   6.974   8.576  19.133  0.2986 -0.0857  0.0507
59506W        W 2559  29.552  31.309  19.320  0.2311  0.1289  0.2104
59507W        W 2560  11.365   9.138  20.332  0.0770  0.1473 -0.3433
59508W        W 2561  10.818  31.422  19.537 -0.0415  0.1477  0.1338
59509W        W 2562  13.855  18.211  18.387 -0.2119  0.2289  0.0157
59510W        W 2563  20.295  17.078  24.117  0.0338  0.0581 -0.0554
59511W        W 2564  22.147  20.667  19.814  0.1694 -0.0251  0.3419
59512W        W 2565  12.286  15.993  16.006  0.2668 -0.0051  0.1266
59513W        W 2566   9.621  23.293  14.607 -0.2134 -0.1303 -0.0998
59514W        W 2567  15.543  25.807  27.389  0.0756 -0.1156 -0.1538
59515W        W 2568   3.040  11.848  21.229  0.0308 -0.2579 -0.2214
59516W        W 2569   3.858   6.941   8.567  0.1535 -0.1887  0.3091
59517W        W 2570  11.921  32.242  21.603 -0.0282 -0.5193  0.2614
59518W        W 2571   3.362  22.687   6.834  0.0332 -0.0415 -0.4636
59519W        W 2572  18.806  10.328  20.987  0.2829  0.2908 -0.2670
59520W        W 2573  22.131  12.269  26.192 -0.4983  0.1347  0.0690
59521W        W 2574  29.679  26.269   8.892 -0.0369  0.0145 -0.1723
59522W        W 2575  13.825  21.125  17.317 -0.1556 -0.3384 -0.1610
59523W        W 2576  17.401   1.159  27.808 -0.1371  0.4291  0.0930
59524W        W 2577  33.790  15.796   1.326  0.2131  0.0265  0.2196
59525W        W 2578  14.178  22.873  15.037 -0.1411  0.1253  0.1955
59526W        W 2579  27.999   3.395  23.142  0.0493 -0.1199 -0.3272
59527W        W 2580   8.487  27.590   3.377  0.0984 -0.4390  0.1510
59528W        W 2581  10.345  10.702   9.732 -0.0024 -0.0346  0.1916
59529W        W 2582  10.102  12.853   4.416  0.1148  0.0118 -0.0405
59530W        W 2583  15.273  25.889  18.814  0.1874  0.1647  0.0124
59531W        W 2584  16.000  31.651  21.023 -0.1714  0.1217 -0.1009
59532W        W 2585   1.534   9.219  28.693 -0.0655  0.0977 -0.1664
59533W        W 2586  34.112  10.585  27.634  0.2143 -0.0397 -0.1962
59534W        W 2587   8.587   4.478  10.873 -0.0367  0.1822 -0.2374
59535W        W 2588  31.017  19.309   8.825  0.3866 -0.1063  0.3961
59536W        W 2589   0.058  21.074   9.374  0.1596 -0.0306  0.0931
59537W        W 2590  12.705   9.784   3.986  0.0236 -0.0788 -0.3157
59538W        W 2591  16.307   3.459  21.819  0.2419  0.1009 -0.1066
59539W        W 2592  30.287   2.880  10.215  0.0587 -0.0538 -0.1743
59540W        W 2593   0.240  20.673  27.663  0.2741 -0.0738 -0.3104
59541W        W 2594  17.372  11.625  25.496  0.0217 -0.1503  0.0875
59542W        W 2595  27.487   8.627   1.034 -0.2223  0.0603  0.0341
59543W        W 2596   4.342  27.204  28.177  0.1698  0.0763  0.3376
59544W        W 2597  18.450  13.382   6.870  0.0465 -0.0058  0.1635
59545W        W 2598  25.151  34.028  15.495 -0.0106  0.2065 -0.1427
59546W        W 2599   4.997  27.827  23.201  0.1364 -0.1553  0.1362
59547W        W 2600  10.846  32.074   9.706 -0.0305 -0.0456  0.2280
59548W        W 2601   9.976  31.696   8.687  0.2734  0.2198  0.0088
59549W        W 2602  33.432  23.075   2.768 -0.2222 -0.0486  0.2880
59550W        W 2603  14.629  12.380   1.143  0.0776 -0.2945  0.2001
59551W        W 2604  11.715  11.277  20.562 -0.1754  0.0350 -0.0147
59552W        W 2605  26.049  31.296  17.230  0.0597  0.1396 -0.1274
59553W        W 2606  28.639  18.152   2.324 -0.0938  0.1355  0.1896
59554W        W 2607  28.736  14.627   5.258  0.2135 -0.3147  0.2848
59555W        W 2608   1.480  15.245  21.602  0.0109  0.0413  0.0260
59556W        W 2609  17.957  30.605   5.994 -0.1114  0.2055  0.1090
59557W        W 2610  19.129  13.080  19.104  0.4095 -0.2748  0.0964
59558W        W 2611   0.523  29.281  19.420  0.1801  0.1675  0.1819
59559W        W 2612   4.918   1.104  21.387 -0.0110 -0.0277 -0.0833
59560W        W 2613  14.303  25.957  28.605 -0.2851 -0.2469 -0.0918
59561W        W 2614  28.228  26.334  26.634 -0.1437  0.0275  0.1371
59562W        W 2615   9.027  25.288   4.999 -0.0969  0.2839  0.0269
59563W        W 2616   5.531  26.306  28.347 -0.0731 -0.0609  0.0403
59564W        W 2617   4.630   9.374   9.488 -0.4437  0.2360  0.1555
59565W        W 2618  17.241   8.493  20.974 -0.0549  0.3066 -0.3366
59566W        W 2619  24.211  32.035  24.846 -0.1072  0.1680  0.1487
59567W        W 2620  34.398  23.205   6.038 -0.2207  0.0706 -0.0563
59568W        W 2621  23.809   3.043  20.134 -0.3198 -0.0651 -0.0928
59569W        W 2622   3.871  24.380   3.716  0.4115 -0.6419 -0.2193
59570W        W 2623   0.524  16.575   7.235  0.0545  0.1086 -0.0030
59571W        W 2624   7.762  18.238  15.697 -0.0674 -0.2421  0.1609
59572W        W 2625   9.030   5.758  16.194 -0.3735  0.2208  0.0903
59573W        W 2626  23.120   1.262   3.057 -0.1091 -0.0249 -0.0384
59574W        W 2627  13.493   9.941   2.703  0.0213 -0.3096 -0.0898
59575W        W 2628   3.684   0.660  24.208  0.2915  0.2128  0.0744
59576W        W 2629   4.554  15.570  19.577  0.0185 -0.0733 -0.1375
59577W        W 2630   9.159   6.877  24.731 -0.0648  0.1655 -0.3927
59578W        W 2631  28.127  29.474   9.430  0.1564  0.0401 -0.3964
59579W        W 2632  19.414  12.823  18.722  0.0108  0.1210  0.0747
59580W        W 2633   7.361   5.995   9.260  0.0020  0.0721 -0.0254
59581W        W 2634  31.906  28.276  17.677 -0.2586  0.2380 -0.0973
59582W        W 2635  11.048  12.991   2.954  0.2854  0.2390 -0.2484
59583W        W 2636   1.141   5.286  16.383  0.0860 -0.1835 -0.2493
59584W        W 2637  13.201  31.997  23.133 -0.0079 -0.1997  0.0137
59585W        W 2638  13.868   7.730   5.226 -0.0025  0.2030  0.1110
59586W        W 2639  33.354   6.106  24.520  0.0663  0.0026  0.1969
59587W        W 2640   0.111   2.710  26.662  0.0333 -0.2246  0.0830
59588W        W 2641  33.342  20.707  27.612 -0.1184 -0.0209  0.1999
59589W        W 2642  27.473  29.474   4.253  0.0602  0.1083 -0.0807
59590W        W 2643   9.377   9.521   7.101 -0.3100  0.0464  0.0519
59591W        W 2644  20.813  21.492   6.336 -0.1757  0.1676  0.4298
59592W        W 2645   9.129  14.445   3.432  0.1544 -0.1482  0.0181
59593W        W 2646   5.402  33.482   1.657  0.3554  0.1199  0.0918
59594W        W 2647  10.264  24.617   8.962 -0.1888  0.0623 -0.0492
59595W        W 2648   3.815  27.400   5.671 -0.2126 -0.1238  0.1326
59596W        W 2649   1.452   0.416  20.095 -0.1672 -0.0954  0.2024
59597W        W 2650  20.365  13.583   4.480 -0.2570 -0.1569 -0.2964
59598W        W 2651  13.494  31.553  25.809 -0.0275 -0.1854  0.2743
59599W        W 2652  32.240  17.686  19.699 -0.0292  0.0381  0.0915
59600W        W 2653   0.381   4.989   1.357  0.1172  0.1278  0.1382
59601W        W 2654   4.342  25.304  28.077  0.1848  0.0213  0.1670
59602W        W 2655  28.593   6.944  28.404  0.0586 -0.0549 -0.1365
59603W        W 2656   0.616  12.423  27.827 -0.1990  0.3068 -0.1368
59604W        W 2657  33.646  23.728  19.016  0.1630  0.2873  0.1097
59605W        W 2658   2.714  12.491  18.170 -0.0351  0.0101 -0.0720
59606W        W 2659   8.063  13.865  20.705 -0.2043 -0.2875 -0.2404
59607W        W 2660   4.052  25.626  24.532 -0.2260  0.1850 -0.2735
59608W        W 2661   9.564  10.033  23.952 -0.1669 -0.0006 -0.1872
59609W        W 2662  18.575  28.215   5.152 -0.0687 -0.3716  0.1569
59610W        W 2663  28.015  28.002   3.081 -0.0738 -0.1995  0.1168
59611W        W 2664  17.348  13.664   1.325 -0.3404  0.0343  0.3345
59612W        W 2665   1.370  32.158  26.684 -0.2632 -0.1861  0.0120
59613W        W 2666  10.162  21.943   1.544 -0.1903 -0.1169 -0.2911
59614W        W 2667   8.536  16.049   2.351 -0.2458 -0.0875 -0.0663
59615W        W 2668  31.947   5.813   2.031  0.0290  0.2125 -0.0888
59616W        W 2669  21.594  23.780  25.855 -0.2720 -0.0578 -0.1064
59617W        W 2670  19.224   5.057  22.532 -0.3136 -0.1235  0.1730
59618W        W 2671   7.879  11.178   2.479 -0.2294  0.4899  0.0814
59619W        W 2672   3.702  11.977  28.614  0.1168  0.2597  0.1492
59620W        W 2673  16.748   8.760   2.864  0.1212 -0.0489 -0.0256
59621W        W 2674  31.897  24.785  14.084 -0.0960  0.1276  0.1202
59622W        W 2675  32.171  11.939   3.316 -0.2759 -0.1661 -0.0121
59623W        W 2676  13.975  12.716  10.230 -0.0666 -0.1346  0.1056
59624W        W 2677   3.600  15.532  18.329  0.1868  0.1905 -0.3056
59625W        W 2678  17.475  14.164  22.686  0.0699  0.3274 -0.3970
59626W        W 2679  19.211  10.546  28.765  0.3822 -0.2394  0.0701
59627W        W 2680   2.827  11.010   7.483  0.3303 -0.2195  0.3835
59628W        W 2681  24.086  24.260   1.509  0.1075  0.0481 -0.0783
59629W        W 2682  22.178   3.204  19.069 -0.3222 -0.1954  0.0168
59630W        W 2683  21.160  11.129  23.340 -0.0894 -0.3712  0.1049
59631W        W 2684   6.216  12.867  16.282 -0.1089 -0.0314  0.0331
59632W        W 2685  16.865  11.822   1.519 -0.0749  0.1354 -0.1460
59633W        W 2686  23.363  21.557  20.562  0.1346 -0.1326  0.1686
59634W        W 2687   4.583  22.260  10.007  0.0616  0.0950 -0.4113
59635W        W 2688   8.460  26.451  21.528 -0.0604 -0.1671 -0.2456
59636W        W 2689  24.691   0.312   5.487 -0.1531  0.2215  0.1057
59637W        W 2690  13.171  24.704   3.001  0.2911  0.0059  0.1524
59638W        W 2691  15.526  26.354   7.701 -0.1525  0.1910 -0.2159
59639W        W 2692  12.859  26.402  28.000  0.1049  0.0003 -0.1949
59640W        W 2693  24.500  27.781  28.831  0.3261 -0.1365  0.0171
59641W        W 2694  17.772   3.064   9.395 -0.1426 -0.2483 -0.0324
59642W        W 2695  17.144  11.620  21.927  0.4066  0.0656  0.0900
59643W        W 2696   2.274  23.208   8.138 -0.1292  0.3371 -0.0416
59644W        W 2697  33.056  18.218  25.497 -0.2855 -0.0338 -0.1749
59645W        W 2698  14.906  19.823  28.251 -0.1817  0.2514 -0.0945
59646W        W 2699   5.502  32.170  26.053  0.0734 -0.0221 -0.1312
59647W        W 2700   1.219  17.355  22.104 -0.4937  0.2061  0.2392
59648W        W 2701  13.833  20.740  19.835  0.1845 -0.0740  0.0822
59649W        W 2702   7.861  14.326  20.615 -0.1383  0.2028  0.1642
59650W        W 2703  30.474  23.248  18.986  0.0130 -0.0540 -0.0153
59651W        W 2704   7.653  11.689   2.502 -0.0881 -0.2466 -0.3004
59652W        W 2705  20.790   8.689   6.105 -0.0766  0.1126  0.1813
59653W        W 2706   8.643  15.619  27.980  0.0044 -0.3600  0.3906
59654W        W 2707  21.623  16.698  27.480  0.0324 -0.1717  0.2366
59655W        W 2708  23.763  14.142   2.005  0.5281 -0.0664 -0.0079
59656W        W 2709   7.848   7.633  17.905  0.2590  0.2440  0.1790
59657W        W 2710  21.434  28.560  25.820  0.1267  0.2100  0.0230
59658W        W 2711  27.542   2.084  27.638  0.1959 -0.0828  0.0402
59659W        W 2712  19.373  22.161  14.132  0.1148 -0.0810  0.1745
59660W        W 2713   2.244   6.714  25.694 -0.0853  0.1217  0.0546
59661W        W 2714  34.224   7.887  23.837 -0.3322  0.1337 -0.1529
59662W        W 2715  18.351   6.468   0.966 -0.2511  0.0495 -0.2508
59663W        W 2716  25.269  22.060  13.876 -0.0494 -0.2195 -0.0522
59664W        W 2717  29.065  23.966   3.498 -0.2090  0.1605  0.2943
59665W        W 2718  16.940  13.713  25.787  0.1825 -0.0239  0.2643
59666W        W 2719   4.761   3.393   3.262 -0.2301 -0.0674  0.0333
59667W        W 2720  16.974   0.628  25.437  0.0077  0.0781  0.0746
59668W        W 2721  15.832  19.971   0.805  0.4060 -0.0106  0.1547
59669W        W 2722  13.812  32.505   3.589  0.2691  0.2009 -0.3688
59670W        W 2723  15.257   1.551   0.611 -0.0651  0.1465 -0.0460
59671W        W 2724   8.185  18.271   9.315  0.0600 -0.1397  0.0718
59672W        W 2725  34.041  20.713   2.317  0.0108 -0.1154 -0.2396
59673W        W 2726   0.852  22.899  14.710 -0.0608 -0.0812 -0.0855
59674W        W 2727  30.416  19.302   1.889 -0.0189  0.0657  0.2097
59675W        W 2728   1.610   8.112  27.021 -0.0495 -0.3151 -0.3094
59676W        W 2729   5.312  10.728  19.575  0.1902  0.1779  0.1873
59677W        W 2730  11.716  14.992  19.646 -0.0089  0.0106 -0.0583
59678W        W 2731  12.958   7.999   3.551  0.0901  0.2001 -0.1766
59679W        W 2732  13.264  11.285  20.250  0.1164 -0.2023 -0.2225
59680W        W 2733  18.292   7.552   5.383 -0.0923 -0.2826 -0.0779
59681W        W 2734   6.243  13.850  28.617 -0.1486 -0.0510 -0.1286
59682W        W 2735   5.475  23.711   6.777 -0.0188 -0.3097 -0.1664
59683W        W 2736   4.206  34.571   1.129 -0.0372 -0.1123 -0.0425
59684W        W 2737  13.892   4.812  21.654 -0.3075  0.0906  0.1746
59685W        W 2738  14.708  14.392   5.160  0.1854  0.0714 -0.0681
59686W        W 2739  15.338  28.382   1.077 -0.2080  0.1273 -0.0565
59687W        W 2740  28.263  16.704  18.876 -0.0073  0.0905 -0.0445
59688W        W 2741  10.319  13.541  22.673  0.2067 -0.1870  0.1636
59689W        W 2742   5.141  17.848  17.110 -0.0430  0.2011  0.1128
59690W        W 2743   8.012  18.427  16.907  0.3640  0.1004 -0.1777
59691W        W 2744   2.007   8.301  28.645 -0.0395  0.0585 -0.0299
59692W        W 2745   2.977  20.205  26.189 -0.1865  0.1303  0.5942
59693W        W 2746   0.597  13.828   8.831 -0.0632  0.2289 -0.2303
59694W        W 2747   7.994  22.249  18.969  0.0220 -0.0773  0.0155
59695W        W 2748  13.381  26.327  10.497  0.2064  0.1139 -0.0827
59696W        W 2749  16.033  10.636   6.930 -0.0446  0.1331 -0.2399
59697W        W 2750  10.072   7.964   0.810 -0.1855  0.0062 -0.0685
59698W        W 2751  11.380  20.598  21.018 -0.1292 -0.1481  0.0523
59699W        W 2752  11.034  13.214  26.352 -0.0525 -0.0843 -0.0653
59700W        W 2753   4.669  31.925   7.558  0.1126  0.1230 -0.1604
59701W        W 2754   7.906  12.424   1.720 -0.0139 -0.1057 -0.0271
59702W        W 2755  33.602  13.311  24.659  0.0927  0.0667 -0.0744
59703W        W 2756  25.270  21.103  21.747 -0.0742 -0.3545  0.1523
59704W        W 2757  23.630  21.695  25.622 -0.0313  0.2995  0.0220
59705W        W 2758  14.366  19.516   7.979 -0.0097  0.0688  0.3862
59706W        W 2759  16.551  14.063   4.895  0.3411  0.0041  0.0085
59707W        W 2760  20.957   2.563  21.900  0.2139  0.0127  0.3162
59708W        W 2761   3.403   6.627  20.182  0.2586  0.1100 -0.1219
59709W        W 2762  19.435  24.775   1.245  0.2279 -0.2429  0.0940
59710W        W 2763  22.945  12.084   4.099 -0.0441 -0.1802  0.0496
59711W        W 2764  12.436  24.878  17.759 -0.0334  0.1158  0.0241
59712W        W 2765   3.766  17.210  16.104 -0.0419  0.0056 -0.0179
59713W        W 2766   9.638  29.944  22.511 -0.5067 -0.1467  0.1462
59714W        W 2767  33.425  16.191  21.790 -0.2278 -0.0499 -0.2827
59715W        W 2768  10.841  14.347  21.753 -0.1025  0.0162  0.1322
59716W        W 2769  10.784  11.092   3.818 -0.0994 -0.1059  0.0173
59717W        W 2770  30.894   7.837   1.874  0.2670  0.0596  0.0060
59718W        W 2771   4.333   7.985   9.276 -0.1180 -0.0146 -0.1349
59719W        W 2772  28.186   1.697  22.595 -0.1553  0.2284 -0.0032
59720W        W 2773  33.463  21.942  26.646 -0.1621 -0.0649 -0.1171
59721W        W 2774  15.301  15.974  22.701 -0.4267 -0.1692  0.0331
59722W        W 2775  28.404  25.730  22.481 -0.1856  0.1560 -0.0109
59723W        W 2776  11.854  12.236  28.764 -0.0007 -0.0518  0.0907
59724W        W 2777  23.927  27.621  20.908 -0.2218 -0.1604 -0.0239
59725W        W 2778   9.504  21.570  14.113  0.2405 -0.0718 -0.0031
59726W        W 2779  10.336   0.400  16.155  0.0286 -0.0212  0.0773
59727W        W 2780  12.812  29.629   4.104 -0.0252  0.0779  0.1796
59728W        W 2781  17.279  20.096  26.470  0.0355 -0.1018  0.2350
59729W        W 2782  22.085  23.214  27.602 -0.3361  0.3384 -0.1076
59730W        W 2783  21.781   8.852  26.344 -0.1927  0.0363  0.0089
59731W        W 2784   6.828  13.231  25.961  0.1657  0.0813 -0.0078
59732W        W 2785   9.212   2.643  20.481 -0.0288 -0.1228  0.1520
59733W        W 2786   8.393  27.390   2.359  0.2261  0.1086 -0.2153
59734W        W 2787  32.711   6.100  17.689  0.0667 -0.1999 -0.3932
59735W        W 2788  17.909  13.223  24.936 -0.3457  0.1408 -0.0945
59736W        W 2789  19.829   6.855  24.127  0.0207  0.1409  0.2743
59737W        W 2790  15.880  23.344   2.436  0.1254 -0.1172 -0.1449
59738W        W 2791   6.689   6.276  27.946 -0.0745 -0.0678 -0.0810
59739W        W 2792  11.536  12.001   2.919 -0.1559 -0.1731 -0.0771
59740W        W 2793   7.990   4.146  22.578  0.0380 -0.0346 -0.0680
59741W        W 2794  12.384  14.161   8.892 -0.3349 -0.0924  0.0408
59742W        W 2795   3.943  23.264  27.368  0.1086  0.2662  0.0766
59743W        W 2796   9.173   8.564   7.267  0.1272 -0.1059  0.0554
59744W        W 2797  15.226   7.074  24.481 -0.2678  0.3413  0.3616
59745W        W 2798  21.467   6.684  28.290 -0.3010 -0.0393  0.0472
59746W        W 2799   8.765  12.297  25.696  0.1151 -0.0664 -0.0154
59747W        W 2800  10.458  15.730  17.805 -0.2239 -0.1940  0.1389
59748W        W 2801  18.418   4.793   6.115  0.0841 -0.0535  0.0953
59749W        W 2802   2.740  10.023  24.520  0.1173 -0.0207 -0.3476
59750W        W 2803  15.773  27.780  20.034  0.0311 -0.1368 -0.1960
59751W        W 2804  10.824  20.545   1.462 -0.1410 -0.1176  0.1504
59752W        W 2805  26.768  11.051  28.340 -0.2270  0.2019 -0.1374
59753W        W 2806  17.536  12.517   2.179  0.0569 -0.0970 -0.1787
59754W        W 2807   5.873  22.104  20.426 -0.0366  0.0440 -0.0075
59755W        W 2808  16.431  11.452  19.936 -0.0941 -0.0358  0.0934
59756W        W 2809   8.950  28.913  20.542  0.1145 -0.1957 -0.2490
59757W        W 2810  19.905   5.444  26.491 -0.1129 -0.0204  0.1781
59758W        W 2811   7.549   6.280   1.207  0.0483 -0.1374  0.1365
59759W        W 2812   8.057  11.437   9.580  0.0530  0.1353  0.1732
59760W        W 2813  32.183  17.949  17.946 -0.1295 -0.0215 -0.2028
59761W        W 2814  16.922  19.252  24.207 -0.1699 -0.1112  0.1755
59762W        W 2815  19.874  23.578  20.594  0.2765  0.2538 -0.0214
59763W        W 2816   5.717  13.902   0.159  0.1602  0.0031 -0.1388
59764W        W 2817  28.429   9.914   7.515  0.0695 -0.2037  0.1069
59765W        W 2818  28.193  23.941  25.403 -0.3855  0.0725 -0.3416
59766W        W 2819   5.431  20.659  16.952  0.0142  0.3397 -0.1635
59767W        W 2820  29.837   6.027   9.907  0.2122 -0.0907  0.3027
59768W        W 2821   3.086  22.570  21.956 -0.1009 -0.1764  0.1815
59769W        W 2822   9.859  19.812   5.607 -0.0387 -0.3089 -0.1987
59770W        W 2823  11.899   1.776  14.635  0.1214  0.0782 -0.3031
59771W        W 2824  11.051  23.973  27.930  0.2014  0.3284  0.0379
59772W        W 2825  12.845  23.168   1.224 -0.3273 -0.0910 -0.2537
59773W        W 2826  26.680  29.049   6.020 -0.0352  0.0075  0.1961
59774W        W 2827  19.372  16.432   6.354 -0.0083 -0.2917 -0.0999
59775W        W 2828  34.599  28.354  19.250  0.1349 -0.0314  0.3954
59776W        W 2829  14.386  16.294  14.656  0.1430 -0.2070 -0.1383
59777W        W 2830   2.575  18.914  16.802 -0.0532 -0.3277  0.1090
59778W        W 2831  14.020  19.362  16.878  0.1654  0.2595  0.1642
59779W        W 2832  13.898  31.386  24.863 -0.1985  0.0853  0.2737
59780W        W 2833  20.633  10.501   2.041  0.1957 -0.2114  0.0773
59781W        W 2834  34.236  18.349  21.005  0.1291  0.0882  0.0215
59782W        W 2835  18.235  17.350   3.902 -0.0525  0.3751  0.2382
59783W        W 2836  26.378  16.603  28.443 -0.1707 -0.2024 -0.0841
59784W        W 2837  15.831   8.298  21.169  0.1683  0.3407  0.0539
59785W        W 2838  22.979  17.114   9.273  0.1197 -0.0651 -0.2114
59786W        W 2839  32.933  19.999   3.013 -0.0764 -0.2124 -0.4045
59787W        W 2840   9.522  12.985  26.543  0.0099 -0.2676 -0.0934
59788W        W 2841   9.297  32.328  25.829  0.1989  0.0403 -0.0795
59789W        W 2842   6.772   7.510  27.914  0.2996 -0.0914  0.2911
59790W        W 2843   0.847  21.161  14.524  0.0951  0.0824 -0.2802
59791W        W 2844  26.685  16.818  24.248  0.3868 -0.2556  0.1595
59792W        W 2845   4.529  31.123   0.960 -0.2132  0.0024  0.0027
59793W        W 2846  19.757  27.329   4.200  0.1422  0.1679 -0.3119
59794W        W 2847  13.988  27.083   2.622 -0.1532 -0.3966  0.2606
59795W        W 2848  10.948   7.716  26.561  0.1094 -0.0936  0.0440
59796W        W 2849  11.826  31.184  24.759 -0.0460 -0.0230  0.0590
59797W        W 2850  31.149  14.369  22.016 -0.0430  0.0279 -0.2873
59798W        W 2851  14.410  14.449   6.979 -0.0988  0.2620  0.1810
59799W        W 2852  25.984  21.903  26.999  0.1680 -0.0903  0.2946
59800W        W 2853   5.049  29.876  15.702 -0.1480  0.4014 -0.2161
59801W        W 2854  11.365   7.282   1.740  0.0451 -0.2808  0.3576
59802W        W 2855   9.646  33.343  16.918  0.0954  0.2688  0.0477
59803W        W 2856  11.005   5.716  26.102 -0.0592 -0.1553  0.2003
59804W        W 2857   1.269  31.522  28.514 -0.0487 -0.1443  0.1387
59805W        W 2858  19.940  13.791  15.624  0.0119 -0.0807  0.0097
59806W        W 2859   9.998   7.112  25.150 -0.0476  0.0832  0.2202
59807W        W 2860  13.023  22.526  18.862 -0.3673  0.1862 -0.3588
59808W        W 2861   0.685   2.379  16.552 -0.3610 -0.1361 -0.0598
59809W        W 2862  17.036   8.148   3.493  0.2040 -0.1794 -0.0723
59810W        W 2863  21.337  20.589  10.490 -0.0516  0.1657  0.1803
59811W        W 2864  15.985  29.839  20.095  0.0671 -0.4049  0.1324
59812W        W 2865   3.929  19.301   4.345  0.1760  0.0427  0.0587
59813W        W 2866  19.011  16.383  25.065 -0.2075 -0.0503 -0.1283
59814W        W 2867  26.943  28.854  19.104  0.1201  0.5681  0.2024
59815W        W 2868   6.737  10.060  20.893 -0.1343 -0.3331 -0.1518
59816W        W 2869   9.604  14.072   9.732 -0.2482 -0.0628 -0.1500
59817W        W 2870  24.991  28.073  23.636  0.0284 -0.0130  0.1685
59818W        W 2871  13.774  18.472  25.872  0.1482 -0.0434  0.1173
59819W        W 2872  13.882  24.524  19.940 -0.2348 -0.1239  0.0894
59820W        W 2873  11.940   8.182   0.273 -0.0185 -0.1798 -0.1168
59821W        W 2874  22.023  17.745   1.927  0.1692  0.0381  0.0344
59822W        W 2875  29.081  21.755   1.133 -0.0127  0.3984  0.2078
59823W        W 2876  20.048  16.624  26.416 -0.0429 -0.0226 -0.1379
59824W        W 2877  19.844  29.972  28.946 -0.1139  0.0611 -0.1125
59825W        W 2878   2.113  13.561  27.630  0.2721  0.1847 -0.0318
59826W        W 2879   5.195   7.765   6.045  0.1156 -0.1964 -0.2240
59827W        W 2880  16.240  11.115   1.114 -0.0063  0.4013  0.2164
59828W        W 2881  10.678   4.330  25.417 -0.0899 -0.0709  0.0621
59829W        W 2882  15.747   4.156  23.556 -0.0758 -0.0603  0.2091
59830W        W 2883  21.296  25.506  22.578  0.1221  0.0375  0.1083
59831W        W 2884  21.174  15.196  14.882 -0.0961 -0.1486  0.0670
59832W        W 2885  30.619  16.356  23.077 -0.2955  0.0239 -0.0360
59833W        W 2886  20.693  12.514  24.097 -0.0807  0.1394  0.0128
59834W        W 2887   5.507   5.639  24.008  0.2330  0.1760 -0.1461
59835W        W 2888   5.686  19.139  14.450 -0.2829 -0.0749 -0.1817
59836W        W 2889   8.839  18.166  24.807  0.1746  0.1352  0.2076
59837W        W 2890  16.717  26.609   5.174  0.1090 -0.1282  0.0446
59838W        W 2891   1.905  11.379   0.670 -0.0145 -0.1438  0.0873
59839W        W 2892  17.057  15.129  28.810  0.1483  0.0757  0.1112
59840W        W 2893   4.929  22.901   0.474 -0.0286 -0.1481 -0.0662
59841W        W 2894   8.491  23.436  24.824  0.0308  0.2637 -0.0635
59842W        W 2895  11.368  19.603  26.676  0.1421  0.0413  0.0958
59843W        W 2896  21.946  26.493   8.932 -0.0339  0.1969  0.2994
59844W        W 2897  20.447   0.552   5.657  0.2302  0.0140 -0.2034
59845W        W 2898  20.056  17.824   9.463 -0.0339  0.1011  0.1440
59846W        W 2899  14.119  31.818  19.983  0.1048 -0.1106 -0.2360
59847W        W 2900   9.976  18.261  27.332  0.0250 -0.0462  0.0713
59848W        W 2901  26.771  28.526   9.751 -0.1317 -0.0808 -0.0489
59849W        W 2902   6.249  24.536   8.828  0.0522  0.3073 -0.0924
59850W        W 2903   8.844  15.148  28.031 -0.0999 -0.3647  0.2713
59851W        W 2904   2.058  31.651  25.426  0.0348 -0.2462 -0.2743
59852W        W 2905   7.259  13.910  27.679 -0.0268 -0.1077  0.0791
59853W        W 2906   6.351  24.603  26.141  0.1576 -0.0946 -0.3766
59854W        W 2907  15.459  17.097   3.701 -0.0725  0.2390 -0.0644
59855W        W 2908  17.084   5.805  10.294 -0.0994  0.3501  0.2870
59856W        W 2909   0.388  30.013  26.860  0.2404  0.1910 -0.0464
59857W        W 2910  32.311  24.441   5.368 -0.0233  0.0129  0.2342
59858W        W 2911  32.287   4.924  22.821 -0.1277  0.3070 -0.1432
59859W        W 2912  13.452   9.020  28.916  0.1014  0.1377  0.1558
59860W        W 2913   2.869   8.285   1.956 -0.1915  0.0873 -0.2637
59861W        W 2914  11.040  22.757  27.641  0.0901 -0.1258 -0.2025
59862W        W 2915  11.024  17.666  21.869  0.0950 -0.0860 -0.4151
59863W        W 2916  23.887  19.402  17.122 -0.2715  0.3057 -0.0911
59864W        W 2917   9.622  19.377  21.732 -0.1617  0.1175 -0.1127
59865W        W 2918  16.351  34.499   2.611  0.1884  0.2429  0.2490
59866W        W 2919   3.156  10.252  24.548 -0.0625  0.4936  0.1081
59867W        W 2920  12.938   0.768  23.219  0.1534 -0.2286  0.1558
59868W        W 2921   5.006  22.888   3.081  0.1013 -0.2635  0.3189
59869W        W 2922  18.103  12.755   8.509 -0.0990 -0.1655 -0.2876
59870W        W 2923  34.059   8.466  23.014  0.3276  0.4578  0.0772
59871W        W 2924  18.515   6.170   7.460 -0.1458 -0.0676 -0.0594
59872W        W 2925  16.174  28.269  23.756 -0.2913  0.2633  0.0961
59873W        W 2926   5.536  17.315  15.359 -0.0105  0.5829 -0.0734
59874W        W 2927  34.287  20.957  14.611 -0.1108 -0.1112 -0.2583
59875W        W 2928  29.132   1.677  14.102 -0.0482 -0.0685  0.0279
59876W        W 2929  12.776   0.762   2.971 -0.0389 -0.3246  0.0319
59877W        W 2930  24.092  27.212  24.698 -0.1848 -0.0598  0.2143
59878W        W 2931  15.709  10.639  13.299  0.2691  0.1707  0.1983
59879W        W 2932  27.937  26.779  24.952 -0.1165  0.0183 -0.0019
59880W        W 2933   9.923  25.975   2.329  0.1383  0.0394  0.1170
59881W        W 2934  14.725  13.800  14.845  0.0524 -0.0162 -0.0568
59882W        W 2935   3.727  30.249  23.825 -0.1150 -0.2205 -0.0888
59883W        W 2936   6.996  20.521  22.723 -0.0322  0.3791 -0.3770
59884W        W 2937  33.941  17.362  15.482  0.1110  0.1662  0.1176
59885W        W 2938  18.325  12.556   1.311 -0.1197 -0.0336  0.3181
59886W        W 2939   1.786   9.926   5.332 -0.2046  0.0154  0.1869
59887W        W 2940   6.645  12.456  27.206  0.0730 -0.0593  0.1141
59888W        W 2941  15.023  20.112  24.186 -0.0146  0.2103  0.2002
59889W        W 2942  13.374  10.426   6.827  0.2090  0.1403  0.1261
59890W        W 2943   4.559  10.561  24.407  0.1282  0.2890 -0.1537
59891W        W 2944   5.449  14.755  27.817  0.5664  0.4845 -0.0409
59892W        W 2945  19.152  17.831   9.508  0.1093 -0.1206 -0.0760
59893W        W 2946  11.190  16.596  18.622 -0.1525  0.0306 -0.2930
59894W        W 2947  25.412  24.959   0.126 -0.1055 -0.1369 -0.1036
59895W        W 2948  16.100  12.951   2.095  0.0809 -0.0975  0.2273
59896W        W 2949  19.618   5.757  21.113  0.0293  0.3498  0.0592
59897W        W 2950   6.788   8.961   2.739  0.0860 -0.1144 -0.3665
59898W        W 2951   3.173  24.779   7.898  0.0969  0.0976 -0.0898
59899W        W 2952  27.692  11.536  25.477 -0.1160  0.3314  0.2504
59900W        W 2953   9.452  11.934   7.426 -0.0859 -0.4255  0.2143
59901W        W 2954  15.915  29.394  22.484 -0.2582 -0.2072 -0.4318
59902W        W 2955   6.159  25.668   1.782  0.1783 -0.1632  0.2301
59903W        W 2956  28.571   6.889  26.476  0.0316  0.0780  0.1231
59904W        W 2957  15.282  30.770  19.308 -0.1950 -0.1622 -0.1808
59905W        W 2958  23.188   0.650  20.345  0.0743  0.0141 -0.1005
59906W        W 2959   8.377  23.044  20.184 -0.3791  0.0772 -0.0980
59907W        W 2960   2.684  32.004  16.652  0.1679  0.0914  0.0194
59908W        W 2961   4.643  13.182  20.782  0.0259  0.3981  0.4702
59909W        W 2962   3.382  18.354   3.339 -0.0603  0.1488 -0.1223
59910W        W 2963  19.270  20.469  28.202 -0.1307  0.1366 -0.4514
59911W        W 2964  15.280   7.630  27.336 -0.3090  0.3168  0.1590
59912W        W 2965  12.651   5.876   5.370 -0.1071 -0.0898 -0.1342
59913W        W 2966  12.945  11.663  27.158  0.3206 -0.2889  0.3347
59914W        W 2967  14.029  18.123  23.466  0.2815  0.1262  0.0663
59915W        W 2968  11.434   8.467  27.042  0.2378  0.0064 -0.2286
59916W        W 2969  18.080  30.085   5.977  0.1772 -0.1413  0.0887
59917W        W 2970   3.898  25.956  21.000 -0.0151 -0.0643 -0.0214
59918W        W 2971  19.342   5.127   1.888  0.3048 -0.1568 -0.2400
59919W        W 2972   3.585  17.716  21.575  0.4053  0.3541 -0.1120
59920W        W 2973  20.049   8.314   4.696 -0.0069 -0.0220 -0.0902
59921W        W 2974  27.667  31.006   5.546  0.1144  0.3131  0.0649
59922W        W 2975  20.206  10.705  14.967 -0.3044  0.0049 -0.0308
59923W        W 2976  14.690  10.083  24.835  0.0051 -0.2500  0.0047
59924W        W 2977  26.060  12.216  16.095  0.3296  0.2187 -0.0881
59925W        W 2978  31.619  16.374  23.289 -0.1465 -0.1717 -0.1536
59926W        W 2979   6.283  23.230   6.845 -0.0434  0.1660  0.0539
59927W        W 2980  10.876   3.845  18.506 -0.0756 -0.2642 -0.2399
59928W        W 2981  34.476  23.349  16.173  0.3191  0.0509 -0.0185
59929W        W 2982   9.482  31.249   1.982  0.2291  0.0678 -0.1942
59930W        W 2983  13.453  20.546  10.607 -0.2961 -0.4283  0.2351
59931W        W 2984  32.573  23.559   0.253 -0.0021  0.1488  0.1276
59932W        W 2985  24.638  29.713   9.838 -0.1986 -0.1044 -0.1457
59933W        W 2986  19.089  30.784  28.593 -0.1636  0.0518 -0.0202
59934W        W 2987  11.447  22.330  21.868 -0.1595  0.0017  0.2099
59935W        W 2988  32.973  16.703   5.332 -0.1830  0.1614  0.0814
59936W        W 2989  32.619   8.567   3.389 -0.1331  0.0161 -0.4179
59937W        W 2990   5.449  13.366   9.940  0.1816 -0.2842 -0.1247
59938W        W 2991  14.866  21.898   0.965 -0.0321  0.1386  0.1537
59939W        W 2992   5.916  22.335   8.675 -0.2098 -0.0586  0.4381
59940W        W 2993  16.186   4.781  25.044 -0.1801 -0.0989  0.3491
59941W        W 2994  17.452  15.056  26.345 -0.0589 -0.3578  0.3568
59942W        W 2995  18.903  20.485  14.438  0.0328 -0.0407  0.3451
59943W        W 2996   4.324   0.359  16.188  0.0083  0.1763 -0.1212
59944W        W 2997  21.109   0.214   9.239 -0.0852 -0.0510  0.0214
59945W        W 2998  32.742   5.820   9.887  0.3219  0.0925  0.2657
59946W        W 2999  15.731  28.849   6.943  0.0480 -0.0479  0.0133
59947W        W 3000   0.851  14.269  19.507  0.2324  0.2732 -0.2794
59948W        W 3001  11.305  13.434  15.922 -0.0558 -0.0254  0.0457
59949W        W 3002  23.176   5.812  14.179  0.2157  0.0084  0.3121
59950W        W 3003   6.282  18.366  27.019  0.1407 -0.1606 -0.0280
59951W        W 3004  10.016   8.608  18.600  0.0006 -0.2684  0.1013
59952W        W 3005  16.739  17.665  19.424 -0.2416  0.0701  0.1117
59953W        W 3006  11.078  19.274  20.835  0.4951 -0.0868 -0.0011
59954W        W 3007  12.929  26.186   0.393  0.0103 -0.0967  0.1412
59955W        W 3008   6.991  23.010  17.988 -0.1739 -0.0892  0.0041
59956W        W 3009  31.155  12.165   7.064  0.0963 -0.1659 -0.1139
59957W        W 3010  17.960   4.506  17.129  0.2640 -0.0612  0.1295
59958W        W 3011  10.556  14.608  19.608 -0.0228  0.0326 -0.0428
59959W        W 3012  16.986  21.676   6.865  0.2196  0.2099 -0.1389
59960W        W 3013  12.972  18.953   5.071  0.0231  0.0608 -0.2164
59961W        W 3014   4.758  13.891   2.089 -0.0415  0.0934 -0.2978
59962W        W 3015  10.280  15.048  28.616  0.0027 -0.1768 -0.4023
59963W        W 3016   5.045  28.807   8.830 -0.2497  0.0331  0.0731
59964W        W 3017  19.415   9.233   8.486 -0.3982 -0.1586 -0.1425
59965W        W 3018  25.521   9.441  16.611  0.2391  0.1660 -0.2185
59966W        W 3019   1.265  18.389  23.958  0.2806 -0.0377  0.2505
59967W        W 3020   8.558  28.100  28.289 -0.1219 -0.0237  0.1690
59968W        W 3021   5.379   5.062  28.572 -0.0943  0.2062 -0.1463
59969W        W 3022  31.696  13.042  20.432  0.1686 -0.0492 -0.3993
59970W        W 3023   8.216  32.532  14.737  0.0592 -0.0620  0.0046
59971W        W 3024  17.588  22.273   2.064  0.0446  0.0122  0.1734
59972W        W 3025   5.210  27.666   3.011  0.0138 -0.2202 -0.0311
59973W        W 3026  14.363   2.542   3.360 -0.0367  0.2802  0.1294
59974W        W 3027  12.756   7.292   2.917 -0.0100  0.1203  0.0327
59975W        W 3028   3.879   9.325  21.860  0.0824  0.1537  0.0053
59976W        W 3029  23.862  14.539  17.280  0.3132  0.0894  0.0674
59977W        W 3030  17.133  22.979  19.940 -0.1738 -0.1489 -0.1185
59978W        W 3031  25.159  27.357   1.521 -0.0442 -0.3424  0.4699
59979W        W 3032   5.302  21.164   4.854  0.0069 -0.0490 -0.1438
59980W        W 3033   6.553  21.278  20.014 -0.2037 -0.1973  0.0118
59981W        W 3034  17.298   8.259  24.129  0.0846  0.0923  0.1485
59982W        W 3035  24.735  28.733  29.169  0.0713 -0.0691 -0.1556
59983W        W 3036  15.986  34.171  18.658  0.1369  0.1385  0.1588
59984W        W 3037  17.418   7.807  14.863  0.2325  0.1839 -0.2882
59985W        W 3038  26.684  22.025  21.123 -0.1514  0.2361  0.1502
59986W        W 3039   6.227  22.643  24.996  0.2513 -0.3110  0.0721
59987W        W 3040   3.360  25.414  21.251  0.0667  0.2762 -0.0304
59988W        W 3041   3.580  18.511  15.533 -0.1409 -0.0094 -0.0257
59989W        W 3042  18.151  10.017  15.544 -0.0061  0.1424  0.2944
59990W        W 3043  13.765  28.721  17.800  0.0798 -0.1187  0.4477
59991W        W 3044  11.046  34.110  16.113 -0.0385  0.0285 -0.1850
59992W        W 3045  13.034  29.222  19.463  0.0575 -0.0101 -0.0988
59993W        W 3046  19.409  17.388  14.035  0.1615 -0.2932  0.2010
59994W        W 3047   9.200  15.849  21.412  0.0971  0.2053  0.1814
59995W        W 3048   8.725   0.095   6.148 -0.1586 -0.2914 -0.1133
59996W        W 3049  11.884   9.820  18.047  0.1648  0.1369 -0.2563
59997W        W 3050  24.329  28.934  18.429 -0.1746 -0.1157 -0.1425
59998W        W 3051  27.385  17.183  24.679  0.0131 -0.1787 -0.0197
59999W        W 3052   0.140   7.092  14.694 -0.0425 -0.1347 -0.1037
60000W        W 3053  13.252  17.669  14.573  0.0953 -0.3715  0.2022
60001W        W 3054  19.174  32.711   3.565 -0.1700  0.1074 -0.0284
60002W        W 3055  14.261  12.414  16.607  0.1350 -0.0679  0.1171
60003W        W 3056  17.558   1.089  28.293  0.2211  0.0888 -0.1123
60004W        W 3057  33.897  12.148   3.348  0.0841  0.0836  0.0241
60005W        W 3058  21.342  24.173  25.711 -0.2192  0.1644 -0.0279
60006W        W 3059  25.452  17.603  14.350 -0.1370 -0.0602  0.0081
60007W        W 3060  10.762  17.769  22.555 -0.1368 -0.1930 -0.0704
60008W        W 3061   4.495  21.393  17.979 -0.2784  0.1765 -0.1129
60009W        W 3062   4.091  27.503  14.144  0.1745 -0.2469  0.1661
60010W        W 3063  18.527  21.586   0.964 -0.1425 -0.3219  0.2259
60011W        W 3064  11.685  25.595  20.764  0.0941 -0.0318 -0.2029
60012W        W 3065  12.357  21.565  14.249 -0.3065  0.2108 -0.0561
60013W        W 3066   5.112   5.715  17.999 -0.1811  0.1941 -0.1007
60014W        W 3067  12.428  21.108  23.067 -0.5282  0.0737 -0.3999
60015W        W 3068  23.533  31.964  27.371 -0.2765 -0.2303 -0.2765
60016W        W 3069  10.418  28.825  13.394  0.1557 -0.0692 -0.2805
60017W        W 3070  11.390  34.177  21.502  0.0385 -0.2307 -0.1418
60018W        W 3071  20.808  33.913  25.153  0.2614 -0.2243 -0.0283
60019W        W 3072   3.165  19.560  20.136  0.0318 -0.1691 -0.0521
60020W        W 3073  20.105  31.901  20.575  0.2443  0.1830  0.2708
60021W        W 3074  32.377  27.514  20.099  0.0344  0.1779 -0.0490
60022W        W 3075   7.281  17.692  20.424 -0.0234  0.0131  0.2491
60023W        W 3076  22.321  15.522  19.073  0.1585 -0.0030  0.1389
60024W        W 3077   5.124  22.202  13.038  0.1870  0.0800 -0.1703
60025W        W 3078  23.704  20.357  22.753  0.0591  0.1174 -0.0413
60026W        W 3079  10.157  11.983  18.625 -0.0657  0.0526  0.0446
60027W        W 3080  18.352  29.484  14.901  0.1832 -0.0804  0.0139
60028W        W 3081  13.765  17.890  17.903 -0.2188 -0.1142  0.3121
60029W        W 3082  12.580  26.251   4.823  0.2669 -0.0981  0.1103
60030W        W 3083   5.123  15.506  16.964  0.2461  0.1132  0.3654
60031W        W 3084  16.194   0.601  17.862  0.3106 -0.0250  0.3359
60032W        W 3085  31.823  16.731  23.905 -0.1698 -0.2596  0.0867
60033W        W 3086   9.097  23.510  15.493  0.1166  0.2877 -0.0462
60034W        W 3087   1.717  27.526  18.787  0.1674  0.0318 -0.1417
60035W        W 3088   4.817  16.857  15.558  0.2779  0.0552  0.2925
60036W        W 3089   9.885  29.923  14.464  0.0105 -0.1250 -0.0613
60037W        W 3090  12.304  20.262  22.036  0.1417  0.1732 -0.1413
60038W        W 3091   8.090  33.929  14.502  0.1735 -0.3507 -0.0967
60039W        W 3092  13.330   6.884  26.877 -0.1267 -0.3742 -0.0089
60040W        W 3093   9.115  26.594  19.019  0.0149  0.0272 -0.0191
60041W        W 3094  10.395   1.472  26.103  0.1901  0.1606  0.0694
60042W        W 3095   9.901  26.674  22.201  0.1703 -0.0357  0.3309
60043W        W 3096   3.664  27.005  27.820 -0.1887  0.0206  0.1580
60044W        W 3097  22.501   8.552  19.018 -0.1609 -0.0838  0.0458
60045W        W 3098   4.373  24.568  17.213  0.0475 -0.0766 -0.1286
60046W        W 3099  16.596  10.573  20.568  0.3145 -0.2586 -0.3410
60047W        W 3100  23.318   3.238  16.207  0.1395  0.0244  0.0122
60048W        W 3101   9.281  30.568  20.332  0.1371  0.3583 -0.0237
60049W        W 3102  14.861  23.331  24.451 -0.0781 -0.0171 -0.1557
60050W        W 3103  16.046  19.545  13.569  0.3941  0.1339 -0.0480
60051W        W 3104  21.511  18.412   0.658  0.0139  0.0101 -0.1346
60052W        W 3105  27.195  27.560  21.696  0.0776 -0.1042  0.0265
60053W        W 3106   5.530  11.714  28.962 -0.3372 -0.0320  0.1204
60054W        W 3107  26.065  15.946  13.772 -0.0902  0.1855  0.1467
60055W        W 3108  25.670   8.552  13.474  0.0309  0.4132 -0.0402
60056W        W 3109  13.848  17.703  17.019 -0.0880  0.1066 -0.2146
60057W        W 3110  14.625  13.300  18.302 -0.1336 -0.3400 -0.0921
60058W        W 3111  10.886  16.129  24.454 -0.1169  0.0971  0.0300
60059W        W 3112   2.830  16.347  25.755 -0.1012  0.0806  0.0297
60060W        W 3113  27.202  15.220  25.572  0.1329  0.1868  0.1726
60061W        W 3114   3.695  21.302  23.285 -0.1740 -0.1363  0.2805
60062W        W 3115  11.511   1.241  15.281  0.0812  0.0433 -0.0916
60063W        W 3116  26.005  34.521  16.926 -0.2019  0.0385  0.2007
60064W        W 3117   1.974  18.765  13.286  0.1391  0.2288  0.1742
60065W        W 3118  14.209  23.796  26.227  0.0772 -0.1902  0.1478
60066W        W 3119  16.791  19.934  13.277  0.2568  0.1644  0.1625
60067W        W 3120  12.154  22.101  20.469 -0.0659 -0.2365  0.1240
60068W        W 3121  10.992  22.337  16.108  0.0577  0.0180 -0.0996
60069W        W 3122   2.525  17.226  15.835 -0.1885 -0.1867 -0.0538
60070W        W 3123   3.526  23.030  19.099 -0.1398 -0.1015  0.0822
60071W        W 3124  17.983  21.799  16.379 -0.0649 -0.2250 -0.0210
60072W        W 3125   4.947   8.327  15.000 -0.0194  0.2347  0.3259
60073W        W 3126   1.708  19.632  16.072 -0.1711 -0.0159  0.1045
60074W        W 3127   4.319  25.037  17.093 -0.0832 -0.1260  0.1157
60075W        W 3128  23.483  33.857  16.532 -0.0206 -0.0328  0.2113
60076W        W 3129  33.958   5.266  17.310 -0.0280  0.1864 -0.1851
60077W        W 3130  22.122  22.850  16.268 -0.2426  0.2053  0.1179
60078W        W 3131   9.769  17.488  19.493 -0.3396  0.2503  0.0567
60079W        W 3132   9.000   6.701  19.345  0.2878 -0.0431 -0.2460
60080W        W 3133  12.929  17.425  19.256 -0.2495  0.1302  0.1233
60081W        W 3134  16.428  26.277  19.163 -0.1597  0.0443 -0.0262
60082W        W 3135  33.844  33.251  15.993 -0.0258  0.0068  0.1948
60083W        W 3136  24.872  21.044  20.333 -0.0185 -0.1204 -0.3065
60084W        W 3137   3.073  15.001  23.276 -0.0014 -0.1335 -0.1545
60085W        W 3138  20.751  31.964  16.238  0.1133  0.0350  0.2667
60086W        W 3139  31.126  31.155  23.448 -0.3851 -0.1623  0.0679
60087W        W 3140   5.996  10.509  19.171 -0.0454 -0.2240  0.1267
60088W        W 3141  34.102  18.755  16.489  0.2505 -0.2043  0.0400
60089W        W 3142  31.852  20.674  24.811 -0.0392 -0.1027 -0.1626
60090W        W 3143   1.920  33.629  24.369 -0.1643 -0.0970 -0.1659
60091W        W 3144   7.679  15.145  14.619 -0.0882 -0.2061  0.0482
60092W        W 3145   7.595  14.452  17.512  0.0349  0.0728 -0.0514
60093W        W 3146  21.095  27.268  28.741 -0.1759  0.4282 -0.1435
60094W        W 3147  12.167  24.951  17.209  0.1542 -0.1096  0.2072
60095W        W 3148   2.037  12.833  16.063  0.3949  0.2056 -0.2455
60096W        W 3149   4.154  23.063  15.200 -0.0899 -0.1920  0.1969
60097W        W 3150   9.031  18.726  23.580 -0.0206 -0.0087  0.3670
60098W        W 3151  22.990  18.036  14.389 -0.0930 -0.0469 -0.1063
60099W        W 3152  26.066  28.337   1.101 -0.1954  0.1919 -0.1493
60100W        W 3153  29.008  23.046  23.232 -0.2853 -0.1268 -0.1989
60101W        W 3154   2.330  14.083  21.859  0.0434  0.0862  0.3085
60102W        W 3155  13.787  17.133   3.027 -0.0826 -0.0105  0.3335
60103W        W 3156  33.443  30.138  19.097  0.2923  0.2891  0.0361
60104W        W 3157   5.324  15.038  23.903 -0.1578  0.2825 -0.1933
60105W        W 3158  15.314  16.314  14.214 -0.0082 -0.4641  0.0406
60106W        W 3159   1.441   9.413  16.703 -0.2464 -0.3064  0.1596
60107W        W 3160  14.877  31.578  16.628 -0.1627 -0.2024 -0.1399
60108W        W 3161   8.840  26.593  27.938 -0.1420  0.1745 -0.0769
60109W        W 3162  21.664   7.704  27.295 -0.0708  0.0547 -0.0758
60110W        W 3163   9.049  32.932  18.170 -0.0038  0.2008  0.2678
60111W        W 3164   3.774  20.373  22.311  0.1028  0.0192 -0.0089
60112W        W 3165  20.979   3.036  24.294  0.5626  0.1326  0.3875
60113W        W 3166  11.169  23.231  14.216 -0.0999 -0.2360 -0.2803
60114W        W 3167   4.712  33.398  20.458  0.3163  0.0705 -0.2783
60115W        W 3168  12.639  19.877  18.581 -0.1453 -0.2320  0.0822
60116W        W 3169  29.909   4.636  23.423  0.2469 -0.2330 -0.1853
60117W        W 3170   7.367  20.396  17.048  0.0223  0.2892 -0.1478
60118W        W 3171   4.235  25.710  28.327 -0.0397  0.1092 -0.4153
60119W        W 3172   7.973   5.409  15.434  0.0544  0.0326 -0.1108
60120W        W 3173  12.076  25.222  21.691  0.0225 -0.2490  0.0788
60121W        W 3174   0.776  13.972  27.234  0.1382 -0.1202  0.0254
60122W        W 3175  23.444  17.950  27.174 -0.2404 -0.1417 -0.1531
60123W        W 3176   9.463  14.931   0.807  0.2703  0.1460  0.4178
60124W        W 3177  29.434  18.567  17.035 -0.2878  0.2434 -0.5001
60125W        W 3178   9.788  16.891  13.507  0.2351  0.1815  0.1014
60126W        W 3179  18.153   3.105  16.449 -0.1233  0.2963  0.2700
60127W        W 3180   8.473  15.270  17.423 -0.0920 -0.0430  0.1107
60128W        W 3181  12.021  28.814  19.238 -0.0949  0.0644 -0.2043
60129W        W 3182   7.773  21.931  25.880 -0.2112  0.0147 -0.0061
60130W        W 3183   4.213  12.029  16.526  0.2442 -0.1779 -0.0656
60131W        W 3184  19.623  19.955  14.370 -0.0319 -0.0159  0.0634
60132W        W 3185   5.320  28.426  16.863 -0.2655 -0.4025 -0.2142
60133W        W 3186  22.601  18.883  19.266  0.1014 -0.2853  0.0391
60134W        W 3187   0.138  18.421  19.548  0.0763 -0.3146  0.3721
60135W        W 3188  14.619   5.409  20.658  0.0835 -0.0040  0.3453
60136W        W 3189  12.798  26.524  18.102 -0.4198 -0.4047  0.0533
60137W        W 3190   3.097  21.575  22.589 -0.0737  0.0572 -0.1968
60138W        W 3191  10.206  10.737  16.159  0.0117 -0.0765  0.0110
60139W        W 3192   4.171  34.526  18.931 -0.2988  0.3084  0.0081
60140W        W 3193   7.692  19.479  16.102  0.4931 -0.2388  0.0985
60141W        W 3194  13.450  32.545  19.664  0.3324  0.1068  0.0042
60142W        W 3195  10.151  20.313  14.552 -0.0063  0.0388 -0.0594
60143W        W 3196  17.153   5.731   5.205 -0.1462  0.3799 -0.5464
60144W        W 3197  19.823  31.159  26.855  0.3012  0.2844 -0.1623
60145W        W 3198  28.770  22.711   2.627  0.3378 -0.2395  0.1863
60146W        W 3199  16.062   1.802  27.455  0.2560  0.0028  0.0839
60147W        W 3200   6.344  23.837  15.928 -0.0008  0.1633 -0.1988
60148W        W 3201   7.304  22.853  15.479 -0.3158  0.1274 -0.1940
60149W        W 3202   2.723   3.668  18.763 -0.0954 -0.0964 -0.1242
60150W        W 3203  26.279  18.207  16.455 -0.0030  0.1346  0.0924
60151W        W 3204  27.709  28.707  17.705 -0.2751 -0.2532  0.0591
60152W        W 3205  11.580  16.278  19.895  0.0357 -0.2384 -0.1624
60153W        W 3206  13.220  30.481  19.456 -0.1344  0.2041 -0.2801
60154W        W 3207  12.519  10.291  27.623  0.1130 -0.4855 -0.0396
60155W        W 3208   4.723  20.816  17.567  0.1699  0.3620 -0.2546
60156W        W 3209  21.797  29.957  20.576 -0.1305  0.1449  0.1439
60157W        W 3210  10.127   0.624  18.602  0.0602 -0.1086  0.2512
60158W        W 3211  20.760  20.751  18.128  0.2838  0.0788 -0.1305
60159W        W 3212   3.247  25.893  21.056 -0.1415 -0.2419 -0.0121
60160W        W 3213   3.239   2.263  23.333 -0.2282  0.2134 -0.1829
60161W        W 3214   5.397  27.740  17.899  0.1240 -0.0339  0.0490
60162W        W 3215  12.011   6.664  23.965 -0.0139 -0.1162 -0.0693
60163W        W 3216   6.466   8.279  22.270 -0.2284 -0.0487  0.3523
60164W        W 3217   6.912  17.691   5.322 -0.1718  0.1310 -0.2225
60165W        W 3218   8.127  17.301  19.034  0.1453 -0.0591 -0.0855
60166W        W 3219  31.519  22.112  19.185 -0.1564 -0.4267  0.1818
60167W        W 3220  11.528   9.531  17.782  0.0556 -0.0028 -0.2944
60168W        W 3221  16.429  23.700  17.903 -0.1612  0.1772 -0.1402
60169W        W 3222  29.232  27.464  19.393 -0.1569 -0.0440  0.2258
60170W        W 3223   1.966  11.599  27.615  0.0500 -0.0663 -0.2938
60171W        W 3224   7.424  31.370  24.461  0.0301 -0.2284  0.1332
60172W        W 3225  24.775  23.513  19.487 -0.0465  0.0324 -0.4860
60173W        W 3226  30.987   4.287  26.883 -0.2156  0.4231  0.0068
60174W        W 3227   2.389  17.806  21.570  0.1442  0.1524  0.2060
60175W        W 3228  14.013   1.414  19.214  0.3329 -0.0049  0.3974
60176W        W 3229  16.211  27.996  27.444  0.2225  0.1626 -0.1060
60177W        W 3230  34.612  30.685  14.788 -0.4052  0.1793 -0.2198
60178W        W 3231   1.741  27.952   0.078 -0.0970 -0.1972 -0.3114
60179W        W 3232  13.074  26.116  18.360 -0.0950  0.1789 -0.2320
60180W        W 3233   6.551  25.050  20.020  0.4179  0.0817  0.1963
60181W        W 3234   8.010   5.902  15.274 -0.4056 -0.1752 -0.0223
60182W        W 3235   3.636  32.769  26.440  0.0159 -0.0184  0.2204
60183W        W 3236  29.213   5.823  20.293  0.1919  0.0716 -0.2183
60184W        W 3237  20.666  18.504  22.618  0.1380  0.1976  0.2717
60185W        W 3238  10.857  19.283  19.456  0.0012 -0.2988  0.3026
60186W        W 3239  10.441  11.039  21.662 -0.0764  0.0407  0.1337
60187W        W 3240  27.117  19.854  25.070  0.0203 -0.4105 -0.2161
60188W        W 3241  19.821  22.255  17.920  0.1059 -0.2352 -0.2216
60189W        W 3242  13.002  31.941  16.351  0.3918  0.1142  0.3356
60190W        W 3243  14.682  12.130  28.337  0.0541 -0.1602  0.1661
60191W        W 3244   8.208   7.524  14.627 -0.0030  0.3746  0.2099
60192W        W 3245   7.740  10.685  29.182  0.0160 -0.3406  0.2572
60193W        W 3246  13.212  26.727  24.118  0.0834 -0.1999  0.1326
60194W        W 3247  12.375  22.051  17.778 -0.2568 -0.3255 -0.0667
60195W        W 3248   9.314  29.288  18.868 -0.4245 -0.0368  0.3398
60196W        W 3249  19.068   7.764   7.956  0.1087  0.1246  0.0812
60197W        W 3250  10.663  28.625  19.498 -0.0398  0.0510  0.0551
60198W        W 3251   9.937   4.009  25.663  0.1052  0.0678 -0.2207
60199W        W 3252   6.119   4.018  27.925 -0.1850  0.0983 -0.0498
60200W        W 3253  15.153  23.789  25.036  0.0487  0.0998 -0.1169
60201W        W 3254   7.011   2.076  25.922  0.1802 -0.3211  0.0306
60202W        W 3255  12.959  20.194  23.966 -0.2843  0.1484  0.1501
60203W        W 3256   7.398  26.984   2.756  0.0281 -0.2164 -0.0739
60204W        W 3257   4.559  23.221  18.549 -0.1470 -0.1778  0.3106
60205W        W 3258   8.758  18.173  14.053  0.0591 -0.0366  0.0070
60206W        W 3259   8.164  22.399  27.680  0.2155 -0.0417 -0.3773
60207W        W 3260  15.362  22.593  22.027  0.1378  0.2590  0.2512
60208W        W 3261  18.265  14.491  24.259 -0.1861 -0.2501  0.2524
60209W        W 3262   2.221  29.951  19.072  0.2558 -0.0412 -0.0344
60210W        W 3263  33.583  27.456  25.319 -0.0103 -0.1493  0.0212
60211W        W 3264  29.781  26.980  16.715 -0.1469 -0.0784  0.1732
60212W        W 3265  12.400  12.306  26.051 -0.0258 -0.0863  0.1365
60213W        W 3266  24.511  14.991  24.220 -0.1983  0.0737 -0.0922
60214W        W 3267  12.124  20.830   3.431  0.2665  0.1794  0.2912
60215W        W 3268   7.966  15.638  21.302  0.1131 -0.1421  0.2289
60216W        W 3269  26.237  18.802  21.713 -0.1617  0.0831 -0.2644
60217W        W 3270   1.527  22.956  14.147  0.2695 -0.0949 -0.0624
60218W        W 3271   2.066  15.518  26.156  0.0708  0.1374  0.0469
60219W        W 3272  34.371  22.912  15.171 -0.1803 -0.0436  0.1504
60220W        W 3273  32.450   1.545  15.405  0.2893  0.1007  0.1831
60221W        W 3274  29.201  23.974  15.127 -0.0862 -0.4070 -0.1415
60222W        W 3275  27.845  18.934  22.993  0.1397 -0.2042  0.0010
60223W        W 3276   6.264  23.131  14.698 -0.0480  0.0475  0.2130
60224W        W 3277   1.882  18.416  15.260 -0.3399 -0.2772 -0.1589
60225W        W 3278   8.457  11.901   0.455 -0.2824  0.1656  0.0172
60226W        W 3279  21.232  18.768  19.388  0.0628 -0.2106  0.0445
60227W        W 3280  30.926  31.432  28.634 -0.2182  0.1926  0.1460
60228W        W 3281  21.232  25.182  19.603  0.0280  0.0136 -0.1027
60229W        W 3282   2.486  29.076  23.638 -0.0835 -0.3307 -0.0297
60230W        W 3283   9.523   7.469  21.646  0.0626  0.3614 -0.0406
60231W        W 3284   9.851  25.151  14.598 -0.1630  0.2686  0.0573
60232W        W 3285  23.642  21.836  21.252  0.0016 -0.2379 -0.0188
60233W        W 3286  29.936  12.423  18.063 -0.2578  0.1373 -0.1590
60234W        W 3287  15.996  11.632  22.368 -0.0602  0.0726 -0.2251
60235W        W 3288  13.691  15.559  22.218  0.2713 -0.2012  0.0114
60236W        W 3289  30.554  12.638   2.840 -0.0633 -0.1728 -0.2788
60237W        W 3290   1.109  19.944  18.941  0.1953  0.0065  0.0393
60238W        W 3291   9.991  10.831  15.018 -0.2637 -0.2466  0.0125
60239W        W 3292  23.306  24.561  16.978 -0.0870 -0.2318 -0.2727
60240W        W 3293  27.783   3.250  24.122  0.1339 -0.0080  0.0710
60241W        W 3294  20.958  31.915  22.395 -0.3028 -0.1331 -0.1525
60242W        W 3295   0.390  29.141  16.377  0.1284 -0.0505 -0.2094
60243W        W 3296  25.213  15.396  17.615  0.1012  0.1343 -0.1375
60244W        W 3297  13.654  34.086  24.030  0.0451 -0.0218  0.0831
60245W        W 3298  11.738  24.381  19.356  0.0659 -0.0220 -0.1318
60246W        W 3299  23.294   7.356  15.296 -0.0141  0.0792  0.0799
60247W        W 3300   8.073  14.567   1.062 -0.0153  0.1026 -0.1385
60248W        W 3301   1.178  19.061  17.222  0.0707 -0.5280  0.0861
60249W        W 3302  19.309  31.202  20.399 -0.0396  0.1046 -0.0748
60250W        W 3303   2.810  22.067  23.544 -0.1933 -0.0290 -0.0457
60251W        W 3304  19.855  16.383  14.346  0.0415 -0.2768 -0.0326
60252W        W 3305  13.250  15.691   0.181 -0.3034  0.0649  0.0235
60253W        W 3306   9.807  25.172  14.085  0.1299 -0.1085 -0.2763
60254W        W 3307   6.039  30.686  14.933  0.1131 -0.0742  0.1834
60255W        W 3308  17.881  23.716  19.295 -0.1239  0.0867  0.2803
60256W        W 3309  23.104  18.553  19.179 -0.0894 -0.0817  0.0988
60257W        W 3310  33.868  20.483  13.817  0.0465  0.0445  0.1413
60258W        W 3311  24.449  33.368  21.603 -0.0813  0.1469 -0.1315
60259W        W 3312   1.335  25.498  22.887  0.2446 -0.0420 -0.1230
60260W        W 3313  29.965  31.989  17.202 -0.0952 -0.3042  0.2110
60261W        W 3314  12.319  33.380  19.667  0.1726  0.1464 -0.0512
60262W        W 3315   5.252  24.394  17.896 -0.1286  0.2323 -0.0477
60263W        W 3316   4.736  23.349  16.554 -0.0202  0.4518 -0.1203
60264W        W 3317  32.312  23.394  18.956  0.0112  0.2242 -0.2514
60265W        W 3318  26.568   8.687  15.656 -0.0564  0.0133 -0.1100
60266W        W 3319  26.892  21.692  17.668 -0.3385 -0.0782  0.0194
60267W        W 3320  12.457  17.616  19.322  0.3345  0.2035  0.3460
60268W        W 3321   1.643  22.021  24.911  0.0275 -0.0031 -0.1527
60269W        W 3322   7.644   4.842  16.457  0.1262  0.3277 -0.2446
60270W        W 3323  12.613   9.912  19.795  0.0049  0.2569  0.2185
60271W        W 3324  21.134  11.978  19.159 -0.0090 -0.3531  0.1152
60272W        W 3325  21.380  25.192  26.957  0.1820  0.1249 -0.0143
60273W        W 3326  22.283  13.095  18.310 -0.1023  0.1326  0.2989
60274W        W 3327   7.755  17.496  15.086  0.0006  0.1131 -0.0763
60275W        W 3328   2.462  22.502  16.523 -0.1875  0.0010 -0.2034
60276W        W 3329   8.636  33.519   3.664  0.3823  0.1712 -0.0489
60277W        W 3330   2.054  11.148  20.653 -0.0726  0.2170  0.2054
60278W        W 3331  31.888  27.276  17.288 -0.4044 -0.0155 -0.0758
60279W        W 3332   7.149  30.083  19.734  0.1750 -0.2652 -0.0416
60280W        W 3333  15.767  27.701  28.356  0.0889  0.0363 -0.0648
60281W        W 3334   8.045  25.258  23.024  0.0707 -0.0907 -0.0088
60282W        W 3335  13.149   6.988  15.417  0.2842  0.0532  0.1153
60283W        W 3336  34.069  27.624  27.003 -0.2921 -0.0784 -0.2741
60284W        W 3337  26.674  11.603  16.620 -0.2151  0.2343 -0.1852
60285W        W 3338   5.330  20.382  27.478 -0.1429  0.0959  0.1433
60286W        W 3339  34.573  20.457  21.945  0.1943  0.2069  0.0017
60287W        W 3340  33.943  21.343  25.762  0.0074  0.2390 -0.0621
60288W        W 3341   4.284  29.573  20.285  0.2002 -0.0107  0.1008
60289W        W 3342  25.992  32.024   4.744 -0.3541 -0.0070  0.2390
60290W        W 3343   6.588  30.324  13.155 -0.2724 -0.1850  0.1691
60291W        W 3344   6.906  31.409  20.892 -0.1219  0.0570 -0.0621
60292W        W 3345  11.082  11.672  18.614 -0.1824 -0.1124 -0.1051
60293W        W 3346   7.669  19.768   8.122  0.2324  0.1324 -0.2956
60294W        W 3347   1.219   9.562  22.898  0.3723  0.3370  0.3957
60295W        W 3348  22.252  19.259  22.782  0.1184  0.0595 -0.1658
60296W        W 3349  21.313   9.264  22.490  0.0940 -0.1752 -0.3419
60297W        W 3350  12.709  26.519  14.201 -0.1243  0.1285  0.1074
60298W        W 3351  15.168  26.340  15.556  0.2493  0.1312 -0.1539
60299W        W 3352   5.634   2.623  13.712  0.1780 -0.1621  0.3383
60300W        W 3353  23.814  25.633  18.387  0.3168 -0.3862  0.2438
60301W        W 3354  15.929  21.662  18.179  0.0841 -0.2697  0.2209
60302W        W 3355  17.594  10.561  22.520  0.0974 -0.2442  0.1018
60303W        W 3356   6.804  19.121  17.508 -0.0164 -0.0006 -0.1534
60304W        W 3357   7.549  31.304  13.452  0.2963  0.1291  0.2234
60305W        W 3358   2.223   2.239  28.891 -0.1875 -0.1532  0.1293
60306W        W 3359   4.335   3.777  26.304 -0.1395  0.1744 -0.3061
60307W        W 3360  19.222  20.724   2.975 -0.1214  0.0128  0.1748
60308W        W 3361   8.026  22.895  24.162  0.4009 -0.2483 -0.0207
60309W        W 3362  22.980  21.582  25.170 -0.1531 -0.0367 -0.0789
60310W        W 3363  20.722  13.759  19.661 -0.1870  0.1512 -0.1624
60311W        W 3364  19.673  27.203  15.438 -0.1339  0.1807  0.1041
60312W        W 3365  13.536  13.248  25.356  0.0588 -0.1375  0.2804
60313W        W 3366  11.009   9.689  15.492 -0.0316  0.1786  0.1987
60314W        W 3367   8.426  22.265  16.264  0.0035 -0.1400 -0.1486
60315W        W 3368  10.172  31.041  17.257 -0.1136  0.0780  0.0852
60316W        W 3369  14.330   2.598  23.867  0.2679  0.0350 -0.0894
60317W        W 3370  19.191  29.299  17.349  0.1299 -0.2233  0.1198
60318W        W 3371   0.023  23.690  21.583 -0.1541  0.2234  0.2948
60319W        W 3372  11.976  16.742  26.079 -0.1390 -0.3266  0.0979
60320W        W 3373  15.701  24.604  20.597  0.2328  0.1902 -0.0931
60321W        W 3374  12.396  28.374  22.915 -0.0295 -0.0120  0.3000
60322W        W 3375   2.308  33.074  16.008 -0.2047  0.2513  0.0857
60323W        W 3376  18.269  19.733  15.748 -0.0252  0.0014  0.1816
60324W        W 3377  24.566  11.405  16.504  0.0107 -0.3990  0.1158
60325W        W 3378  13.048  17.917  15.587  0.0674 -0.1928  0.0506
60326W        W 3379   3.832  12.248  15.480 -0.2972  0.0100  0.0206
60327W        W 3380  11.125  21.647  18.879 -0.1502 -0.0135 -0.2807
60328W        W 3381   4.100  11.703  17.554  0.1000 -0.0698 -0.2591
60329W        W 3382   2.777  14.151  15.653  0.3539  0.1665 -0.0460
60330W        W 3383  15.888  19.485  13.102  0.0009  0.1350 -0.2113
60331W        W 3384  20.078  19.127  23.474  0.1124  0.2659  0.5086
60332W        W 3385   3.512  23.138  26.560  0.1287  0.1767 -0.1976
60333W        W 3386  20.185  15.459  15.311 -0.1069 -0.2513  0.4788
60334W        W 3387  30.136   8.125  26.651  0.2533  0.2006  0.3110
60335W        W 3388  13.905  21.084   0.971  0.2106 -0.1328 -0.1297
60336W        W 3389  15.930  20.507   5.486  0.0476  0.1522 -0.2051
60337W        W 3390   2.205  30.164  18.208  0.1464 -0.1602  0.0662
60338W        W 3391  30.540  26.565  16.828  0.2387 -0.0633 -0.0256
60339W        W 3392  13.931  23.366  23.837 -0.0754  0.2514  0.1624
60340W        W 3393   7.536  19.493  15.214 -0.2581  0.2114  0.2309
60341W        W 3394  22.694  29.599  13.851  0.2374 -0.2929  0.0505
60342W        W 3395  15.846  34.231  16.113 -0.1749 -0.3251  0.0689
60343W        W 3396   1.731  18.490  17.869  0.0542  0.1452 -0.2660
60344W        W 3397  31.356  17.755  16.074  0.1682  0.0015  0.1004
60345W        W 3398   1.379  24.152  14.427  0.0484  0.0428 -0.1458
60346W        W 3399  21.287  24.403  14.870  0.1907 -0.3615  0.0033
60347W        W 3400  18.225  22.155  17.359  0.2076  0.1179  0.1756
60348W        W 3401  28.914  27.095  16.296  0.0152  0.1314  0.0663
60349W        W 3402   6.724   6.685  22.847 -0.3636 -0.1653  0.1306
60350W        W 3403   7.569  20.801  27.824 -0.2278  0.0922 -0.0439
60351W        W 3404  14.373  24.468  18.326 -0.2797  0.2295  0.0688
60352W        W 3405   4.843  18.028   2.232  0.0097 -0.0846 -0.4189
60353W        W 3406  14.540  31.308  27.923 -0.2445  0.0574 -0.1163
60354W        W 3407  12.481  19.442  14.650 -0.0212  0.1635  0.0041
60355W        W 3408   3.694   9.350  18.675  0.0508  0.1442  0.1719
60356W        W 3409   9.731   6.145  16.316  0.0611  0.1853 -0.3409
60357W        W 3410   6.150  33.059  15.829 -0.0688  0.0546 -0.4113
60358W        W 3411  23.275  13.250  16.290  0.2155  0.0239  0.3501
60359W        W 3412   6.917   1.375  24.148 -0.1951  0.1373  0.1209
60360W        W 3413   4.908  20.932  21.109 -0.1883  0.0188 -0.0915
60361W        W 3414  25.494   1.660  16.638 -0.0848 -0.2854  0.2758
60362W        W 3415  31.423  25.781  17.294 -0.2148  0.2430  0.0148
60363W        W 3416  24.003  21.716  19.237 -0.2524  0.1666 -0.1029
60364W        W 3417  12.581  29.065  13.916 -0.0286  0.0226  0.0133
60365W        W 3418  17.138  22.430  13.446  0.0488 -0.2594 -0.0994
60366W        W 3419   5.397  12.605  19.482  0.0011  0.1316 -0.1024
60367W        W 3420  14.680   7.256  18.428 -0.0526  0.2596 -0.0937
60368W        W 3421  12.609  25.096  26.109 -0.0848  0.2901 -0.0327
60369W        W 3422  20.824  24.547  17.886 -0.1027  0.1106 -0.1597
60370W        W 3423   4.245   0.444  15.139 -0.0693 -0.1757 -0.0315
60371W        W 3424  32.330   4.612   8.203  0.1348 -0.2600 -0.4792
60372W        W 3425   8.331  29.265  12.445  0.1905 -0.1393  0.1801
60373W        W 3426   9.736   2.149  17.127 -0.0475  0.4139  0.1258
60374W        W 3427   6.608   0.145  22.498  0.3292 -0.1637  0.0866
60375W        W 3428   4.228  29.729  15.900 -0.1012 -0.0321 -0.0544
60376W        W 3429  32.980  27.471  23.287  0.1289 -0.0226  0.0161
60377W        W 3430  18.218   8.571   0.080  0.0159 -0.1167  0.0907
60378W        W 3431   9.239  25.551  16.297 -0.0220  0.0926  0.0413
60379W        W 3432   3.535   9.715  16.225 -0.1007  0.1234  0.2298
60380W        W 3433  11.759  22.087  17.644 -0.1322  0.0834  0.0437
60381W        W 3434   8.609   3.936  16.634  0.1402  0.0167  0.1379
60382W        W 3435  10.906  12.884  24.104 -0.2058 -0.1288 -0.1314
60383W        W 3436  10.451  30.855   3.956 -0.5005  0.0285  0.1577
60384W        W 3437   9.006  15.608   0.613  0.0066 -0.0385  0.0791
60385W        W 3438  24.450  22.386  24.534 -0.0373 -0.3175 -0.0531
60386W        W 3439  15.146  26.756  15.912 -0.1298 -0.2176 -0.3392
60387W        W 3440   7.612  24.754  21.744 -0.0348  0.0668 -0.0614
60388W        W 3441  25.477   0.591   5.541  0.2286  0.3168  0.1534
60389W        W 3442  21.631  26.884  20.553 -0.3672  0.1275  0.1647
60390W        W 3443  19.894  10.130  16.229  0.1562  0.1864 -0.2174
60391W        W 3444   4.362   7.271  24.829 -0.1189  0.0582  0.0681
60392W        W 3445  25.491  17.783  23.427 -0.3464 -0.2164 -0.0423
60393W        W 3446  15.095  28.346  17.593 -0.0890  0.2569  0.2339
60394W        W 3447  10.828  28.798  17.289 -0.0611 -0.1597  0.2725
60395W        W 3448  14.706  21.707  23.110  0.2852 -0.0153 -0.2338
60396W        W 3449  17.840  25.274  17.256 -0.1590  0.0841 -0.0624
60397W        W 3450  21.002  14.957  17.832  0.0864  0.1116 -0.2165
60398W        W 3451   4.590  21.783  21.328 -0.1679 -0.2929 -0.3166
60399W        W 3452  19.704  21.131  16.690  0.1759  0.0661 -0.1155
60400W        W 3453   5.203  11.116  23.339 -0.1776  0.0003 -0.0650
60401W        W 3454  23.813  21.370   9.163 -0.0304  0.0789  0.1080
60402W        W 3455  24.621  22.496  17.241  0.0408 -0.0341  0.0553
60403W        W 3456  30.433  23.200  19.523 -0.0784  0.1881  0.1469
60404W        W 3457  10.628   5.524  29.054  0.1138  0.0235  0.2384
60405W        W 3458   9.339  20.644  15.676  0.0660  0.2031 -0.0061
60406W        W 3459  15.863   7.705   7.528  0.1348  0.0456 -0.1196
60407W        W 3460   9.510  32.936   6.597 -0.2248  0.2048  0.2825
60408W        W 3461  24.145  20.120  14.385  0.2286 -0.0116 -0.0319
60409W        W 3462  31.407   8.073  24.999  0.4957  0.1412 -0.2159
60410W        W 3463   8.209   0.371  24.176 -0.2293  0.2362 -0.1060
60411W        W 3464   6.840   8.767  28.288  0.1594 -0.0501 -0.1147
60412W        W 3465  20.007  12.994  14.599  0.0129 -0.1877 -0.0732
60413W        W 3466   5.181  13.815  24.277 -0.1254 -0.1783 -0.3832
60414W        W 3467   9.923  32.738  23.479  0.0249 -0.0493 -0.1677
60415W        W 3468  19.703  12.563  14.616  0.1086 -0.1345  0.1891
60416W        W 3469  22.500  25.004  21.327 -0.1316  0.1729  0.1181
60417W        W 3470  19.749   9.384  18.619 -0.0688  0.0328 -0.0725
60418W        W 3471   4.430  11.565  24.322  0.0757 -0.1937 -0.4167
60419W        W 3472  10.423  17.081  17.837 -0.2027 -0.1252 -0.0650
60420W        W 3473  11.321   0.667  26.515 -0.0869  0.0955 -0.0607
60421W        W 3474  26.923  19.442  19.018 -0.1693 -0.3018 -0.2082
60422W        W 3475  10.854  11.578  22.253 -0.0499  0.1335 -0.1670
60423W        W 3476  22.085  21.137  18.952  0.3705  0.2584  0.3491
60424W        W 3477   5.522  33.006   1.507  0.4084  0.3925  0.0174
60425W        W 3478   9.970   2.343  27.101 -0.3701  0.0522  0.1896
60426W        W 3479   2.109   1.740   3.883 -0.2608  0.1310 -0.1093
60427W        W 3480   7.292  20.954  19.007 -0.0380 -0.3350  0.0063
60428W        W 3481   5.310  24.972   4.245 -0.0086 -0.0264 -0.1776
60429W        W 3482   5.744  10.880  19.334 -0.0252  0.3029 -0.1418
60430W        W 3483  31.399  32.202  16.478  0.1657 -0.2915 -0.1245
60431W        W 3484  23.396  20.557  14.689  0.1927  0.1772  0.2370
60432W        W 3485  10.327  14.763  17.751  0.0523  0.2507  0.0060
60433W        W 3486  11.027  32.003  24.238 -0.0851  0.0809  0.1187
60434W        W 3487  22.300  20.047  27.807 -0.1334  0.0541 -0.2222
60435W        W 3488   4.471  30.610   8.833 -0.0326 -0.2207 -0.0212
60436W        W 3489  12.958   7.127  27.159  0.0150  0.1592 -0.1411
60437W        W 3490   7.311  16.159   7.534  0.0546 -0.2385  0.2477
60438W        W 3491   1.071  22.479  20.275 -0.1479  0.1284  0.1662
60439W        W 3492  23.749  29.251  16.415  0.0158 -0.0772  0.1121
60440W        W 3493   1.945   3.400  24.452  0.1894  0.0189 -0.0394
60441W        W 3494  24.851  24.817  25.908 -0.2595  0.1567  0.0058
60442W        W 3495  20.849  24.202   5.184  0.0474  0.2265  0.0096
60443W        W 3496  18.373   8.758  17.655 -0.1706  0.2151  0.0317
60444W        W 3497  25.545   7.840  15.369  0.0639 -0.1744 -0.2710
60445W        W 3498   0.767  22.670  28.858  0.2415 -0.3140  0.2202
60446W        W 3499  25.180   3.359  18.419  0.3615  0.0454 -0.2305
60447W        W 3500  27.207  31.620  22.395 -0.1037  0.2789 -0.0518
60448W        W 3501  20.995  10.302  25.032  0.1681  0.2240 -0.3050
60449W        W 3502   9.812  16.357  17.673 -0.0413 -0.1516 -0.1197
60450W        W 3503   5.831  19.498   0.288 -0.1682 -0.1463  0.0132
60451W        W 3504  21.028  22.668   3.357 -0.4356  0.0407 -0.1367
60452W        W 3505   8.518  32.073  21.002 -0.1107  0.2053  0.2307
60453W        W 3506  17.943  31.028  19.023  0.0548  0.1463 -0.3591
60454W        W 3507  20.659   3.307  21.231  0.0638  0.1357  0.1603
60455W        W 3508  22.588  29.248  17.273  0.0031 -0.1690  0.1587
60456W        W 3509   2.648  26.046  17.651  0.2724 -0.0499  0.1372
60457W        W 3510   3.841  17.491  14.330  0.2055 -0.5470  0.0358
60458W        W 3511  32.381  10.742  14.730 -0.1981 -0.1227 -0.2249
60459W        W 3512  25.971   2.564  15.966 -0.1845  0.0907 -0.2062
60460W        W 3513   8.679  14.540  28.742 -0.1945  0.2338 -0.0536
60461W        W 3514   8.355  11.756  21.046  0.1157  0.2230 -0.0036
60462W        W 3515  28.414  17.960  21.615 -0.0387 -0.1679  0.2981
60463W        W 3516   9.883  22.455  14.463 -0.0185  0.0811  0.3120
60464W        W 3517   8.725  17.734  17.193 -0.3641 -0.3680 -0.2702
60465W        W 3518  12.477  18.165  19.640 -0.0746 -0.1453 -0.1043
60466W        W 3519  22.487  24.519  22.178  0.2396  0.1779  0.1995
60467W        W 3520  20.130  30.399  19.071 -0.0066 -0.2287 -0.1082
60468W        W 3521   9.533  22.588  15.105 -0.2318 -0.3334 -0.1649
60469W        W 3522   4.613  23.137  19.490  0.0088  0.0063 -0.0556
60470W        W 3523   5.105  22.006  16.170  0.0965 -0.2038 -0.0110
60471W        W 3524  19.612  13.750  16.866 -0.1839 -0.0579 -0.0989
60472W        W 3525   0.019  30.960  17.882  0.0936 -0.1994  0.3125
60473W        W 3526  26.568  24.505  15.883  0.0425 -0.1440 -0.3186
60474W        W 3527   7.200   8.348  24.721 -0.1607  0.1833  0.0761
60475W        W 3528   9.519  22.304  21.107  0.2233  0.1495 -0.1671
60476W        W 3529  11.424  16.434   0.513  0.3161  0.0478 -0.1146
60477W        W 3530   9.483  20.403  19.974  0.1162  0.0309  0.0838
60478W        W 3531  23.952  22.833   1.461  0.0615  0.2264  0.1143
60479W        W 3532  20.293  10.181  16.974 -0.2050 -0.0587  0.2275
60480W        W 3533  26.129  22.096  27.455 -0.2944 -0.0286 -0.0027
60481W        W 3534  11.012   8.635   0.342 -0.1384  0.0220  0.1930
60482W        W 3535  19.413  23.671  22.391  0.1484 -0.2491  0.0835
60483W        W 3536   2.504   4.387  20.341 -0.3644 -0.0856  0.2605
60484W        W 3537  29.554  26.508  27.849 -0.0196  0.0298  0.1328
60485W        W 3538   7.040  15.566   2.806 -0.1984 -0.1611  0.2417
60486W        W 3539  22.869  17.566  15.864 -0.0493 -0.1034 -0.0706
60487W        W 3540  17.420  26.298  26.278  0.0736  0.1858  0.0983
60488W        W 3541  33.211  22.385  15.059  0.1880 -0.2292 -0.2242
60489W        W 3542  31.605  33.872  24.626  0.2574 -0.3842  0.2909
60490W        W 3543  25.557  27.216  17.160  0.0088 -0.5019 -0.0979
60491W        W 3544  16.925   7.381  16.648  0.0943  0.2344  0.5418
60492W        W 3545   1.875   4.515  21.876  0.2148  0.1968  0.0654
60493W        W 3546   7.093  25.013  28.961 -0.0203 -0.1303  0.0123
60494W        W 3547  15.880   5.236   5.065  0.0509  0.0052  0.0167
60495W        W 3548  24.588  22.101  15.611  0.0470 -0.1028 -0.0130
60496W        W 3549  23.822   1.082   0.551 -0.0148 -0.1432 -0.0892
60497W        W 3550  18.950  21.389  17.555 -0.2670  0.2247  0.0620
60498W        W 3551  15.089  15.785  16.579  0.0703 -0.3061  0.3510
60499W        W 3552   3.888  18.813   2.286  0.2264  0.1033  0.0273
60500W        W 3553  19.263  15.015  14.527 -0.2444  0.3324 -0.0503
60501W        W 3554   7.568  21.045  20.830 -0.0623 -0.1473  0.0721
60502W        W 3555  17.056  31.239  16.723  0.1180  0.1992  0.3022
60503W        W 3556  20.236  11.173  14.913 -0.0316 -0.0522  0.2261
60504W        W 3557   2.654  29.635   3.012 -0.0966  0.1307  0.0526
60505W        W 3558  20.144  27.801   5.460  0.1717 -0.3032  0.0677
60506W        W 3559  20.446  20.536  14.051 -0.0299 -0.1031 -0.0527
60507W        W 3560  30.065  11.590  17.331 -0.0088 -0.1151  0.1144
60508W        W 3561   9.221  33.786  21.722  0.0397 -0.0973  0.0130
60509W        W 3562  11.819  22.636  22.344  0.1174 -0.0450  0.1036
60510W        W 3563  18.680  24.180  18.983  0.2103  0.0406  0.0763
60511W        W 3564  14.726  14.836  22.465  0.0499 -0.1477 -0.0312
60512W        W 3565   2.107  18.163  17.837 -0.0648  0.2665 -0.4914
60513W        W 3566   0.534  18.504   3.067  0.2188 -0.2026 -0.0875
60514W        W 3567   8.797  29.691  16.120 -0.0295  0.0878 -0.0146
60515W        W 3568   2.602  10.557   5.426 -0.0295 -0.2466 -0.2277
60516W        W 3569   5.458   6.773  28.413  0.0193 -0.2027 -0.0034
60517W        W 3570   5.005   8.194  14.491 -0.0351  0.0737  0.0430
60518W        W 3571   6.259  18.033  19.558  0.0886 -0.2636 -0.0145
60519W        W 3572  17.480  32.979  18.796  0.2487 -0.1050 -0.0548
60520W        W 3573   3.338  16.011  27.653  0.3102 -0.0217  0.1646
60521W        W 3574   6.809  33.330  14.791  0.1173 -0.3600  0.0828
60522W        W 3575  19.925  29.181  21.023  0.1261  0.1697 -0.1744
60523W        W 3576   1.866   8.287  17.424 -0.3141  0.3632 -0.3108
60524W        W 3577  16.957  12.069  21.432 -0.1171  0.0121 -0.3410
60525W        W 3578   3.792  24.570  20.135  0.0627 -0.2572  0.1266
60526W        W 3579  16.161   0.997  25.153 -0.1800  0.1945  0.2371
60527W        W 3580   9.984   2.764  26.279  0.1610  0.2204 -0.1512
60528W        W 3581  16.008  13.767  28.188 -0.1798 -0.0877 -0.1131
60529W        W 3582  21.718  13.637  14.403  0.2281  0.0873  0.0497
60530W        W 3583   4.633  29.529  21.733  0.1466 -0.0944 -0.0854
60531W        W 3584   2.117   6.841  21.231 -0.3039  0.3011 -0.0972
60532W        W 3585   7.273  31.543  25.757 -0.0360  0.0771 -0.0408
60533W        W 3586  11.136  15.032  20.268 -0.1289 -0.2135  0.0355
60534W        W 3587   1.543  18.208  26.131 -0.1783  0.4179  0.3233
60535W        W 3588   8.428   0.624   1.743  0.3081  0.0303  0.2453
60536W        W 3589  21.541  21.484  29.017 -0.3472  0.1902  0.0515
60537W        W 3590   1.770  21.901  14.445 -0.1330 -0.1154 -0.1793
60538W        W 3591  12.885  28.433  16.094  0.1989 -0.1173 -0.0113
60539W        W 3592  18.554   7.301  14.723  0.1396 -0.2974  0.0598
60540W        W 3593  14.342  11.204   0.042  0.0875  0.0534 -0.0355
60541W        W 3594  33.044  12.539  23.543  0.1018 -0.0763 -0.0505
60542W        W 3595  30.319  31.635  23.544 -0.0015  0.2236  0.1732
60543W        W 3596  21.278  25.030  21.025  0.0530 -0.0928  0.1562
60544W        W 3597  18.396  33.625  27.231  0.0955  0.0768 -0.0382
60545W        W 3598  15.618  18.156  26.850  0.5872 -0.1485  0.2899
60546W        W 3599  20.903  11.095  15.491  0.0942  0.1508  0.0017
60547W        W 3600   0.443  19.267   5.358 -0.0102 -0.4421 -0.0058
60548W        W 3601  12.611  18.931  26.668 -0.1839 -0.1858  0.0553
60549W        W 3602  30.274  14.326  16.482 -0.1581 -0.0311 -0.0469
60550W        W 3603   4.106  30.771  22.906  0.0630  0.2077 -0.1384
60551W        W 3604  17.031   3.685  17.015  0.1459 -0.1892  0.1729
60552W        W 3605   6.692  31.274  19.478 -0.1354  0.2720  0.3472
60553W        W 3606  15.642  16.921  14.566  0.0541  0.1698  0.0234
60554W        W 3607  17.850  18.247  12.688 -0.1637 -0.0456  0.2366
60555W        W 3608  33.729  34.677  25.324 -0.2612 -0.1194  0.2978
60556W        W 3609  11.239  15.532  20.978  0.0833 -0.1652  0.2183
60557W        W 3610   8.415  25.582  20.851  0.0156  0.1233  0.2902
60558W        W 3611   1.348  22.559  22.541 -0.1469  0.1311 -0.3476
60559W        W 3612  10.312  12.587  22.695 -0.2099 -0.1369  0.2065
60560W        W 3613  10.339  17.560  28.421 -0.4007  0.0576 -0.1163
60561W        W 3614  20.368  20.040  14.126  0.1294  0.0460  0.1584
60562W        W 3615   8.273  27.639  15.996  0.3282  0.1339  0.3080
60563W        W 3616   7.588  13.655   3.015  0.1012 -0.2603 -0.2944
60564W        W 3617  30.943  10.960   2.760  0.0203  0.0257  0.0762
60565W        W 3618   9.897  32.390  24.011 -0.0902 -0.1059  0.1661
60566W        W 3619   3.313  17.571  20.573  0.2732 -0.1602  0.1538
60567W        W 3620   9.582   8.706  18.410  0.2770  0.1409 -0.3870
60568W        W 3621   6.685  26.760  22.356  0.0801  0.2819  0.0556
60569W        W 3622  15.461   4.920  14.191  0.2931  0.0384  0.1658
60570W        W 3623  34.424   3.668  19.281 -0.0200 -0.2710  0.1549
60571W        W 3624   3.587  12.884  27.548  0.2995 -0.2563 -0.1127
60572W        W 3625  11.837  16.200  20.481 -0.0458  0.1413 -0.2686
60573W        W 3626  26.620  18.735  27.785 -0.0686 -0.3767  0.3104
60574W        W 3627  14.687  18.491  28.119  0.1596  0.1444 -0.1573
60575W        W 3628  24.877  13.196  19.539 -0.0382  0.2807  0.0746
60576W        W 3629  18.149  29.662  17.024  0.0657 -0.1712  0.0832
60577W        W 3630   8.434  16.634  16.869  0.1423 -0.1744  0.1593
60578W        W 3631  22.813   5.387  25.029 -0.2330  0.1753  0.0418
60579W        W 3632  12.374   4.032   1.838 -0.1517 -0.1412  0.2606
60580W        W 3633  11.778   6.936  17.081  0.0793 -0.0151  0.1534
60581W        W 3634  17.726   5.024  17.981 -0.2884 -0.0864 -0.0029
60582W        W 3635  18.717  22.222  22.704 -0.3025  0.2288  0.0927
60583W        W 3636   6.825   8.829  20.587 -0.0998  0.3483 -0.0718
60584W        W 3637  12.728  17.271  15.352  0.0572  0.0024 -0.2629
60585W        W 3638  19.371  15.592  14.024  0.3616  0.3101 -0.1324
60586W        W 3639  27.512  19.372  15.904  0.3321  0.2482 -0.1180
60587W        W 3640  11.022  31.318  24.967 -0.0083  0.1018 -0.3580
60588W        W 3641  23.488   0.356  22.344 -0.1199  0.2469  0.0987
60589W        W 3642  31.219  29.956  19.158 -0.3658 -0.1774 -0.0383
60590W        W 3643  13.318  17.569   6.514 -0.1515  0.0492 -0.3596
60591W        W 3644   7.235  31.274  26.390 -0.3405 -0.0089  0.1867
60592W        W 3645  10.691  27.674  19.498 -0.0810 -0.0053  0.0125
60593W        W 3646   1.512   3.089  25.639  0.0853 -0.1947 -0.0155
60594W        W 3647   7.964  19.884  25.091  0.0587  0.1645 -0.2007
60595W        W 3648  26.554  26.525   8.838 -0.2211 -0.1304  0.0029
60596W        W 3649  20.371  12.174  16.837 -0.0234  0.3925  0.0732
60597W        W 3650  33.802   6.171  17.927 -0.1416  0.0782  0.0448
60598W        W 3651   2.224  19.342  24.164 -0.2607 -0.0495  0.1487
60599W        W 3652  10.674  23.424  20.112  0.4364 -0.1671  0.1606
60600W        W 3653  19.171  26.480  23.991 -0.1637  0.1249  0.2727
60601W        W 3654  26.944  30.992   8.633 -0.0479  0.2573  0.0261
60602W        W 3655   0.084  15.906  21.633  0.1054  0.3345  0.1695
60603W        W 3656  24.769  10.470  19.664 -0.4329  0.1821  0.2035
60604W        W 3657   3.675   2.569  17.981  0.4868 -0.2216  0.2493
60605W        W 3658  13.320   7.789  14.820 -0.1485 -0.3459 -0.2903
60606W        W 3659  27.726  26.359  17.469 -0.0418  0.0356 -0.3491
60607W        W 3660  11.238  19.456  14.472 -0.4151 -0.4872  0.2848
60608W        W 3661  18.188  13.592  25.115  0.1737  0.4183  0.1373
60609W        W 3662  32.379  24.026  19.469 -0.1877 -0.0115 -0.0399
60610W        W 3663   5.483  23.834  28.464 -0.0420  0.0495  0.0704
60611W        W 3664  16.785  14.685  28.699 -0.2336 -0.2614 -0.1675
60612W        W 3665  11.344  15.395  25.050 -0.0282 -0.1856  0.2085
60613W        W 3666  13.003  27.307   5.665  0.1069  0.1236  0.0588
60614W        W 3667  23.346  22.454  25.921 -0.0170  0.6578  0.2111
60615W        W 3668  27.734  18.807  24.897  0.1101  0.2161  0.2555
60616W        W 3669  23.612   2.103  18.841  0.1960 -0.3521  0.1533
60617W        W 3670  18.225  17.782  14.207  0.0789 -0.1596 -0.0939
60618W        W 3671  34.106  16.344  14.025  0.1990 -0.2281 -0.0379
60619W        W 3672   7.134  21.088  16.480 -0.0174  0.0361  0.1394
60620W        W 3673  32.737  24.703  14.271 -0.2468  0.0801 -0.0568
60621W        W 3674  16.589  10.465  29.109  0.0528 -0.1795 -0.0525
60622W        W 3675  15.093  18.833   6.872  0.3514  0.0691 -0.3305
60623W        W 3676  20.700  33.977   4.259 -0.0631  0.2467 -0.0397
60624W        W 3677  12.335  18.442  23.861 -0.3533  0.0512  0.1297
60625W        W 3678   9.032  32.059   5.180  0.0208 -0.1634  0.2233
60626W        W 3679  25.856  27.429   1.066  0.0052 -0.0463  0.2559
60627W        W 3680   4.687   6.162  15.304 -0.1824  0.0946 -0.0155
60628W        W 3681  10.753  27.321  13.618 -0.0863 -0.0680 -0.3205
60629W        W 3682  23.115  28.431  21.919 -0.2443  0.0319 -0.2522
60630W        W 3683  33.648  17.416   3.332 -0.1622  0.0115  0.1499
60631W        W 3684   8.625   9.577  15.867 -0.0629 -0.1903  0.1657
60632W        W 3685  12.145  16.893  20.162  0.0868 -0.0693  0.1274
60633W        W 3686   7.184  33.786  25.818 -0.0401  0.0211  0.2207
60634W        W 3687  33.208  17.518  23.492  0.0133  0.1407 -0.3392
60635W        W 3688   4.237  21.057  17.616 -0.1324  0.1662 -0.3229
60636W        W 3689   4.191  16.064  22.574 -0.1900 -0.2188 -0.0140
60637W        W 3690  11.806  19.633  22.773  0.2839 -0.1854  0.0226
60638W        W 3691   9.816  18.601  23.997 -0.0166  0.0979 -0.1317
60639W        W 3692  19.898  15.916  15.167 -0.0420 -0.0342  0.0682
60640W        W 3693   0.171  26.431  20.502  0.0178  0.0149 -0.1339
60641W        W 3694  23.987   1.158  24.782  0.1348 -0.4222  0.0872
60642W        W 3695  14.858  23.279  23.740 -0.0618 -0.0410 -0.0327
60643W        W 3696   4.795  23.334  28.404 -0.2191 -0.1352  0.2003
60644W        W 3697   8.168   1.256  18.197 -0.2858  0.0162 -0.2159
60645W        W 3698  14.367   9.987  14.623  0.1015 -0.1679 -0.0583
60646W        W 3699  20.011  11.687   2.090  0.2280  0.1158 -0.0050
60647W        W 3700  32.519  12.560  26.048  0.2643  0.1298  0.2240
60648W        W 3701  13.785  21.612  14.078  0.3700  0.3166 -0.0529
60649W        W 3702  27.517  21.340  22.570 -0.0409 -0.2097 -0.0313
60650W        W 3703  14.687  20.589  21.177 -0.2367  0.0227  0.0409
60651W        W 3704  15.094  22.123   1.791  0.3250 -0.1454 -0.3066
60652W        W 3705  11.754   4.139   3.440 -0.2691 -0.0186  0.5070
60653W        W 3706  19.605  24.119  17.970 -0.1348  0.2027 -0.3635
60654W        W 3707   9.826  15.526  15.858 -0.1585 -0.0179 -0.3275
60655W        W 3708  34.530  15.702  15.695 -0.1204 -0.0187 -0.0364
60656W        W 3709   4.560  24.843  24.474  0.3372  0.0466 -0.0394
60657W        W 3710  20.254   3.404  19.594  0.0621 -0.2845 -0.1171
60658W        W 3711   5.035  14.349  17.598  0.1750 -0.0555 -0.0731
60659W        W 3712  14.713  32.735  17.444  0.1964  0.0230  0.1858
60660W        W 3713   1.090  15.501  28.807  0.3643  0.2337 -0.2687
60661W        W 3714  16.828  31.896  14.993 -0.0925  0.0153 -0.1539
60662W        W 3715  13.270  19.671  22.561 -0.2452  0.0509  0.0196
60663W        W 3716  30.554   6.061  23.343  0.1957  0.1375  0.0461
60664W        W 3717  13.939  22.983  22.395 -0.0057  0.0413  0.2257
60665W        W 3718   4.062  32.292  27.228  0.2555 -0.1419 -0.1503
60666W        W 3719   9.830   2.847  14.738 -0.1593 -0.0555 -0.0255
60667W        W 3720  11.225   2.508  25.382  0.2752 -0.0046 -0.2173
60668W        W 3721   6.186  19.650  13.965 -0.2250  0.0696  0.2901
60669W        W 3722   0.136  14.747  16.597 -0.0138 -0.1832  0.0017
60670W        W 3723  19.757  18.354  14.639 -0.2766 -0.2459 -0.1688
60671W        W 3724   0.235  14.836   6.877  0.4272  0.3018  0.0978
60672W        W 3725  28.583   1.915  22.266  0.0081  0.2309  0.2298
60673W        W 3726   6.093   2.658  20.211 -0.0492 -0.0298  0.2642
60674W        W 3727   5.872   9.844   4.545 -0.1290 -0.1934 -0.0636
60675W        W 3728  15.143  21.269  19.994  0.0288  0.0969 -0.0238
60676W        W 3729  18.609  13.636  16.694  0.1939 -0.0961  0.0031
60677W        W 3730   1.716  14.919  21.239  0.0191 -0.3069 -0.0374
60678W        W 3731   1.772  25.137  14.244  0.1375 -0.1024 -0.1660
60679W        W 3732  22.866  19.707  19.775 -0.0873  0.2698 -0.2829
60680W        W 3733  34.686  17.821  16.944 -0.1491  0.2376  0.1775
60681W        W 3734  17.406  30.608  24.328 -0.2822  0.3717  0.0792
60682W        W 3735  28.540   9.842  20.521  0.0420  0.0632 -0.0350
60683W        W 3736  34.276  26.832   1.522  0.3170 -0.2697  0.2590
60684W        W 3737  12.111  14.530  27.523  0.1250  0.0699 -0.1952
60685W        W 3738  12.311   9.313  19.908  0.0798 -0.3136  0.1006
60686W        W 3739   0.636  13.662   2.206 -0.0447 -0.2541  0.1598
60687W        W 3740   5.807   7.818  19.140  0.1464  0.1273  0.0660
60688W        W 3741  10.994  23.227  15.118 -0.0345  0.0082  0.1475
60689W        W 3742   2.943  19.827   2.073 -0.0017 -0.2506 -0.1423
60690W        W 3743  25.006  29.092  14.231  0.2804 -0.0016  0.0826
60691W        W 3744   5.159  17.275   1.790 -0.0372 -0.1481 -0.0027
60692W        W 3745   6.001  30.533  15.462  0.2470 -0.0098  0.0732
60693W        W 3746  34.618  12.570  17.027  0.0470  0.1511 -0.2392
60694W        W 3747  10.553   0.802  20.550 -0.2052 -0.1786  0.2246
60695W        W 3748   7.641  16.123  15.490  0.2452  0.0195 -0.1837
60696W        W 3749  31.465   5.989  18.264 -0.2747  0.0660 -0.2558
60697W        W 3750  16.674  29.906  19.924 -0.1386  0.2475 -0.0386
60698W        W 3751   8.246   3.021  16.951  0.1331 -0.1014  0.4244
60699W        W 3752  20.036  12.153  20.716  0.1710 -0.0415 -0.1004
60700W        W 3753   6.570  16.548  14.468  0.2917  0.2474 -0.3008
60701W        W 3754   0.328  31.485  14.330  0.0399  0.1343 -0.0753
60702W        W 3755   1.179  26.195  17.104  0.2430  0.1108 -0.4620
60703W        W 3756  30.027  21.081  17.146  0.0226 -0.4629  0.1719
60704W        W 3757  22.742  14.005  22.868 -0.0144  0.4843  0.1278
60705W        W 3758  14.676   1.473  18.090  0.2282  0.3115 -0.2586
60706W        W 3759   0.169  20.686  16.956  0.3069  0.0544 -0.0033
60707W        W 3760   5.689  13.400  14.523 -0.2194  0.0448 -0.1541
60708W        W 3761   5.391  15.163  28.164  0.1909 -0.1877 -0.0517
60709W        W 3762  20.703  11.946  27.924 -0.0284 -0.1408  0.2841
60710W        W 3763  19.749  26.668  19.313  0.0583  0.0520  0.3900
60711W        W 3764  19.228  10.782   0.916  0.0075  0.0079 -0.0676
60712W        W 3765  31.257   9.031  22.385  0.0855  0.1194  0.1126
60713W        W 3766  22.214   0.845  16.535 -0.1791 -0.3569  0.2238
60714W        W 3767  17.484  32.652  14.517 -0.0244  0.3046 -0.1001
60715W        W 3768   1.150   0.633  22.717 -0.1031  0.1035 -0.0632
60716W        W 3769   2.813  19.000  26.752  0.0337 -0.0063  0.0762
60717W        W 3770  12.165  30.499  21.684 -0.0928 -0.3119 -0.0477
60718W        W 3771  19.337   1.798   5.692  0.0499 -0.3042  0.0746
60719W        W 3772   6.111  21.659   4.086 -0.0649 -0.2888  0.0331
60720W        W 3773  14.653   8.008  16.009  0.1907 -0.0413 -0.2769
60721W        W 3774   3.478  19.608  14.190  0.0934  0.3086 -0.0183
60722W        W 3775  23.026  23.086  27.833 -0.4939 -0.4876  0.0072
60723W        W 3776  34.437  30.933  18.399  0.0519 -0.0071  0.4705
60724W        W 3777  24.207  16.149  18.798 -0.1674  0.0410  0.1520
60725W        W 3778  14.453  11.421  26.032 -0.1541  0.4398  0.3375
60726W        W 3779  17.751  12.705   5.538  0.0307  0.0144 -0.0778
60727W        W 3780  29.127  23.602  13.730 -0.3519 -0.1416  0.2224
60728W        W 3781   6.071  23.482  19.654 -0.3284 -0.2259 -0.0566
60729W        W 3782  12.100  29.632  17.792  0.0054  0.0503 -0.1892
60730W        W 3783  17.655  10.503  18.550 -0.3035  0.4403 -0.1478
60731W        W 3784  23.606  16.793  20.591  0.1118 -0.0799  0.1872
60732W        W 3785  22.317   9.015  16.265 -0.4501 -0.1757 -0.5195
60733W        W 3786  12.264   2.192  22.117 -0.2358 -0.0772 -0.4430
60734W        W 3787   8.427  12.621   6.293 -0.3446 -0.0522 -0.0175
60735W        W 3788  20.614  24.740  17.270  0.0104 -0.0189 -0.0054
60736W        W 3789  18.778  16.575   5.194 -0.2019 -0.1335  0.0636
60737W        W 3790  15.208   9.748  18.957 -0.3055  0.0341 -0.2251
60738W        W 3791   5.150   7.382  27.853  0.3011  0.1218  0.0192
60739W        W 3792  11.057  22.840  18.244  0.0339  0.1541 -0.0287
60740W        W 3793   8.437   3.092   3.175 -0.1761  0.1278  0.3239
60741W        W 3794  23.652  22.662  20.263  0.0975 -0.0781 -0.0076
60742W        W 3795  30.166  17.636  23.432 -0.0050 -0.1102 -0.1304
60743W        W 3796  16.638  12.055   3.137 -0.0035 -0.2739  0.1102
60744W        W 3797   5.155  20.264   6.858 -0.1255 -0.3471 -0.2830
60745W        W 3798  21.898  32.253  26.339 -0.1199 -0.0157 -0.2468
60746W        W 3799   8.932  15.988  19.753 -0.1415 -0.0203  0.1944
60747W        W 3800  27.646  19.996  21.876  0.3892  0.0407  0.0955
60748W        W 3801  31.379  31.236  13.403 -0.2297 -0.0026 -0.1149
60749W        W 3802  14.708   4.653   4.852  0.1921  0.1488  0.4532
60750W        W 3803  10.369  31.911  18.384  0.1352 -0.0404 -0.2799
60751W        W 3804  13.644   4.541  20.786  0.1230 -0.0328  0.1732
60752W        W 3805  29.610   0.446  17.816 -0.0910 -0.0350 -0.1034
60753W        W 3806  30.704  15.222  14.481 -0.1355  0.2722 -0.0239
60754W        W 3807  30.214  33.748  19.374  0.0268  0.0512 -0.2149
60755W        W 3808  21.988   2.788  20.824 -0.2918  0.0251  0.0933
60756W        W 3809  11.690  27.324  19.151 -0.2809  0.0276  0.0853
60757W        W 3810   3.049  10.172  17.660  0.2117 -0.2815 -0.0330
60758W        W 3811  33.925  19.695  17.278  0.0846 -0.1172  0.1172
60759W        W 3812  24.615   6.499  22.710 -0.0918 -0.1001  0.3245
60760W        W 3813  10.951  17.087  23.174 -0.1540 -0.0281 -0.1590
60761W        W 3814  13.289   1.234  29.015 -0.0005  0.1696  0.1933
60762W        W 3815  28.103  14.252  16.562 -0.0023  0.0594 -0.0360
60763W        W 3816   2.813  18.942   3.235  0.1805  0.1107 -0.0015
60764W        W 3817  13.739  23.715   1.700  0.2877 -0.3474 -0.0936
60765W        W 3818   3.127  22.396  17.964 -0.4897 -0.0381 -0.0136
60766W        W 3819  27.818  12.881  29.043 -0.0299  0.1032  0.1315
60767W        W 3820  31.996  25.276  20.138  0.1464  0.0833 -0.2493
60768W        W 3821  13.705  13.063  22.053 -0.0464 -0.2694  0.2773
60769W        W 3822   7.851  22.057  23.965  0.1289 -0.4177 -0.0744
60770W        W 3823   8.710  20.224  14.057  0.0348  0.1558 -0.1496
60771W        W 3824  17.937  21.705  14.824 -0.2563  0.0288 -0.0727
60772W        W 3825   4.638  21.358  21.007  0.1772 -0.3656 -0.2551
60773W        W 3826  33.345  11.836  22.984  0.2900 -0.1450  0.0331
60774W        W 3827   3.018  21.490  28.013 -0.0424  0.1292  0.2688
60775W        W 3828   9.768  10.845   9.199 -0.1621 -0.0728  0.0113
60776W        W 3829  15.444   5.030   2.049 -0.2319  0.2903  0.1920
60777W        W 3830  13.256  20.555  19.603  0.0356 -0.2813  0.2589
60778W        W 3831  13.548   2.825  14.367  0.3891  0.2928 -0.0521
60779W        W 3832   3.454  23.773  17.469 -0.0147  0.0279 -0.2230
60780W        W 3833  22.053  18.147  15.174 -0.1504  0.0851  0.2471
60781W        W 3834  27.234  13.697  18.161  0.1293 -0.0379  0.2268
60782W        W 3835  12.611  21.306  25.831 -0.0872  0.2882 -0.2065
60783W        W 3836  12.965   8.842  19.285 -0.0115  0.0362  0.1073
60784W        W 3837  14.032  16.604  24.438  0.0974 -0.1234 -0.0457
60785W        W 3838  17.474  12.685  13.348  0.1451  0.1677  0.1083
60786W        W 3839   6.725  12.684   9.454 -0.0597 -0.3507 -0.4227
60787W        W 3840  32.377  14.594  25.011  0.2517  0.1407  0.0727
60788W        W 3841   0.914   9.128  22.201 -0.0471 -0.0071  0.0328
60789W        W 3842  31.345  28.033   1.350  0.0857  0.2230 -0.0992
60790W        W 3843   1.285  18.659   6.485  0.4076  0.1003  0.1386
60791W        W 3844  16.158  25.110  29.046  0.1352 -0.2586  0.1922
60792W        W 3845   3.235  21.852  28.815  0.1804  0.0581 -0.0478
60793W        W 3846   2.019  17.218  19.257  0.2060  0.3568  0.0206
60794W        W 3847  33.744  24.351  18.098  0.0279  0.1119 -0.1556
60795W        W 3848  33.873  24.241  15.441  0.2018 -0.0701 -0.1664
60796W        W 3849  14.760  23.600   1.142  0.0902  0.4419  0.0674
60797W        W 3850  13.205  21.871  21.506  0.0803 -0.1883 -0.0460
60798W        W 3851  11.878   9.275  22.285 -0.3134 -0.2617 -0.2347
60799W        W 3852  15.665   8.576  25.131  0.0519 -0.2659 -0.0071
60800W        W 3853  22.599  27.030  17.012  0.1293 -0.0035 -0.0590
60801W        W 3854  11.116  21.948   4.759 -0.4363  0.1948  0.1987
60802W        W 3855  22.950  22.866  16.783 -0.0859 -0.0999 -0.0029
60803W        W 3856   2.932  13.242   1.727  0.3216 -0.0358 -0.1789
60804W        W 3857  15.554  15.536  15.053  0.0329 -0.1301  0.0244
60805W        W 3858  29.725   3.170  26.991  0.1413 -0.1403  0.1425
60806W        W 3859  17.570   9.754  17.946 -0.1898 -0.3169  0.0163
60807W        W 3860   2.234  13.054  18.828 -0.0549 -0.1062  0.0768
60808W        W 3861  19.433   0.254   0.014  0.0219  0.1035 -0.1118
60809W        W 3862  34.577  22.438  17.065  0.0990  0.2622 -0.1551
60810W        W 3863  14.242  22.297  19.429 -0.0031 -0.2196  0.1527
60811W        W 3864   4.447  15.553  29.094  0.4976  0.0936  0.1321
60812W        W 3865  10.784  25.766  23.196 -0.0772  0.0069  0.0158
60813W        W 3866  23.391  18.398  16.091  0.0363 -0.1931  0.2300
60814W        W 3867  34.651  30.167  21.220 -0.1340 -0.2131  0.1588
60815W        W 3868  18.937  33.684  19.378 -0.2732  0.0650 -0.1315
60816W        W 3869  12.357   3.506   3.649 -0.1186  0.1883 -0.1160
60817W        W 3870  14.816  17.839  24.761  0.2005 -0.1217 -0.0186
60818W        W 3871  14.712  29.166  23.844  0.0233 -0.0601  0.1826
60819W        W 3872  10.601  27.877   0.352  0.1366 -0.2404 -0.2174
60820W        W 3873  21.968  24.820   8.435 -0.1731 -0.1780 -0.0119
60821W        W 3874  14.433  21.436  14.176 -0.1699  0.0893 -0.0632
60822W        W 3875   6.173  16.840   1.410 -0.1359 -0.1923 -0.0740
60823W        W 3876   9.336  27.366   1.289  0.2158  0.3468 -0.3460
60824W        W 3877  34.239  20.157   2.476  0.0650  0.0500  0.1065
60825W        W 3878  26.825  10.852  15.084 -0.0190 -0.2104 -0.0814
60826W        W 3879   8.771  10.402  10.050  0.4335 -0.2071  0.0344
60827W        W 3880   7.479  19.500   7.797  0.0333  0.0495 -0.2778
60828W        W 3881  24.326  17.180  14.491  0.2380 -0.0983  0.2640
60829W        W 3882  24.244  20.635   6.064 -0.2133  0.2248  0.0868
60830W        W 3883   5.012  34.046  21.918  0.1210  0.1134 -0.1312
60831W        W 3884  10.948  12.943  19.679  0.1548 -0.1022  0.1827
60832W        W 3885   7.792  15.164  24.640 -0.0667 -0.0873  0.0242
60833W        W 3886  34.494  25.734   4.050 -0.1034 -0.0517  0.1046
60834W        W 3887  13.728   9.819  23.068  0.0013  0.1445 -0.0948
60835W        W 3888   6.107  25.928   4.775 -0.3797  0.0080  0.1068
60836W        W 3889   8.165  31.826   1.437 -0.0595 -0.2628 -0.1674
60837W        W 3890  14.869  23.990   7.752 -0.3469 -0.2313  0.1945
60838W        W 3891  15.595  28.525  24.257 -0.0492 -0.1605 -0.0317
60839W        W 3892   5.186  18.229  22.410 -0.0791  0.1883 -0.2000
60840W        W 3893  10.960  22.028   1.104 -0.1351  0.2262  0.0331
60841W        W 3894  11.989  25.109  25.974 -0.2504  0.2345  0.0637
60842W        W 3895  16.896  12.578  21.994 -0.5543  0.1247  0.2525
60843W        W 3896   7.960  13.883  20.222  0.0656 -0.1662  0.3271
60844W        W 3897   9.854   6.936  23.048 -0.0668  0.2227 -0.0548
60845W        W 3898  21.008  14.533   0.102  0.2203 -0.1470  0.1120
60846W        W 3899   9.552  34.550  25.470 -0.4459  0.0989 -0.2640
60847W        W 3900  13.830  31.413  24.358  0.1588 -0.1061 -0.1431
60848W        W 3901  22.545  27.712  24.817 -0.0538  0.0344  0.1309
60849W        W 3902   3.805  22.760  15.449  0.2251 -0.2517  0.0178
60850W        W 3903  22.923  31.101  24.183 -0.0056  0.1012  0.0774
60851W        W 3904   8.384  26.227  13.012 -0.0892  0.0147 -0.3511
60852W        W 3905  26.787   3.813   8.437 -0.3000 -0.0346 -0.3493
60853W        W 3906   7.188  32.418  24.803 -0.0353  0.3235  0.2055
60854W        W 3907  14.217  16.633   6.778 -0.0035 -0.2668  0.0848
60855W        W 3908  18.679   1.878   1.869  0.0116  0.1270  0.0781
60856W        W 3909   4.382   0.226  25.134  0.2232  0.3823 -0.4738
60857W        W 3910  13.248  22.053  14.684 -0.0915 -0.0145 -0.0100
60858W        W 3911  31.750  23.160  25.232 -0.0920 -0.2469  0.2313
60859W        W 3912   5.308  34.644  16.164  0.4186 -0.1182 -0.1878
60860W        W 3913   6.946  12.192  28.763 -0.4342 -0.0037 -0.1058
60861W        W 3914   5.830  23.391  18.529 -0.0952 -0.0227 -0.1066
60862W        W 3915   5.912  22.236  26.674 -0.2377 -0.2011 -0.0172
60863W        W 3916  15.646  32.782   5.880  0.1338  0.0398 -0.3162
60864W        W 3917  16.698  27.395  20.193 -0.2493  0.0367 -0.0466
60865W        W 3918  22.425  19.459  17.322  0.1082 -0.1615 -0.0071
60866W        W 3919  19.194   7.340  28.929  0.1567  0.1389 -0.0754
60867W        W 3920   7.421   3.207  19.811  0.2602 -0.1325 -0.4779
60868W        W 3921  13.369  22.938   5.929 -0.1489 -0.1183  0.0922
60869W        W 3922   8.161  23.744  28.952 -0.1797  0.1235  0.1409
60870W        W 3923   7.352  24.402  18.697  0.0835 -0.1188  0.0339
60871W        W 3924  27.272  13.061  23.027 -0.1352 -0.0573  0.0875
60872W        W 3925  13.501  20.963  15.570 -0.0670  0.1455  0.0490
60873W        W 3926  13.354  17.348  28.769  0.2678  0.1551  0.0136
60874W        W 3927   1.576  29.850  23.433  0.0414 -0.2222 -0.1231
60875W        W 3928  20.840  13.673  27.794  0.0072  0.1276 -0.0073
60876W        W 3929   6.318   7.125  14.150  0.0686  0.1421 -0.1730
60877W        W 3930  17.587  29.949  15.088 -0.1056 -0.1749 -0.1022
60878W        W 3931   1.209   5.891  17.682  0.0189  0.0278  0.1491
60879W        W 3932  12.601   7.642  16.158 -0.2599  0.0364  0.0271
60880W        W 3933  16.380  10.524  18.886  0.0041  0.0346 -0.2715
60881W        W 3934  16.986  16.284  14.897  0.2241  0.0902  0.3461
60882W        W 3935  21.710  25.427   2.885 -0.1362  0.2154  0.1335
60883W        W 3936  10.097  27.825  27.538  0.2669  0.3429 -0.0249
60884W        W 3937  14.421  18.747   8.628  0.0647  0.1730  0.1990
60885W        W 3938  20.597  18.101   1.469  0.0651  0.0664 -0.1116
60886W        W 3939  13.441   0.587  27.822  0.4067  0.1095 -0.2483
60887W        W 3940   5.453  20.513  26.370 -0.0282  0.0732  0.0794
60888W        W 3941  17.486  25.627   0.618  0.3035 -0.1412 -0.0717
60889W        W 3942   1.296   6.428  16.267 -0.3225 -0.2779 -0.1303
60890W        W 3943  16.556   2.762  20.809 -0.2135  0.1083  0.0456
60891W        W 3944  12.837  13.860   8.711 -0.1625 -0.3674  0.0223
60892W        W 3945  10.572  25.011  15.187 -0.0649 -0.2882 -0.0913
60893W        W 3946   8.975  28.336  23.579 -0.1341 -0.2790  0.0901
60894W        W 3947   4.249  15.581  23.343 -0.2084  0.0811 -0.1450
60895W        W 3948  18.882  12.390   6.096  0.2305 -0.2094 -0.0896
60896W        W 3949  15.083  17.702  23.098  0.3040  0.0440 -0.0757
60897W        W 3950   9.452  12.380  16.151  0.0518 -0.1808  0.3540
60898W        W 3951  22.250  33.153  10.081  0.1494 -0.0339  0.0387
60899W        W 3952  28.963  32.048  22.056 -0.0924 -0.0092 -0.0233
60900W        W 3953  21.964  28.196  18.192  0.3695 -0.1306  0.0397
60901W        W 3954  16.744  14.346   0.919 -0.1284  0.0609 -0.1604
60902W        W 3955   4.572  26.539  18.220  0.0831 -0.1429 -0.2489
60903W        W 3956   5.468  19.857  25.955  0.0330 -0.0975 -0.2045
60904W        W 3957  12.291  30.871   3.137 -0.0578 -0.4362  0.2143
60905W        W 3958  32.673   9.353  21.137  0.1030  0.0437 -0.0033
60906W        W 3959  13.640  13.102   1.856  0.0597  0.0162 -0.1088
60907W        W 3960  10.621   5.897  27.319 -0.1154  0.1640  0.0371
60908W        W 3961  10.441  14.785   5.079 -0.1982  0.1745  0.1100
60909W        W 3962  34.545  31.352  27.909  0.3998  0.3451  0.2985
60910W        W 3963   8.517  27.997  26.136 -0.0237  0.0337  0.2275
60911W        W 3964  10.578  13.866  20.697  0.2915 -0.1033  0.2358
60912W        W 3965   7.080  20.492  16.054 -0.1446  0.1290  0.1824
60913W        W 3966  34.625  18.902   4.808  0.0860 -0.0456 -0.0815
60914W        W 3967  28.031   0.107   0.813 -0.0463  0.1373  0.1769
60915W        W 3968  18.544  10.873  22.101 -0.0449 -0.1102  0.2903
60916W        W 3969   8.267  13.146  21.888  0.2837  0.0020  0.3053
60917W        W 3970  33.953  26.783  18.650  0.2300 -0.2085  0.1422
60918W        W 3971  34.615   6.275   2.324  0.1128  0.2130 -0.1471
60919W        W 3972  33.320  12.195  20.945 -0.1145 -0.1057 -0.0656
60920W        W 3973  28.041  21.560  14.757  0.0918  0.0295  0.0618
60921W        W 3974  34.489  29.667  18.071 -0.2119  0.1306 -0.1990
60922W        W 3975   2.914  13.999  27.328  0.2947 -0.0903  0.1171
60923W        W 3976  10.655  29.328  23.327  0.1883  0.0631  0.0423
60924W        W 3977   9.477  16.144   8.549  0.0272 -0.1505 -0.0164
60925W        W 3978  10.134  24.024   5.751  0.1299  0.1250  0.1066
60926W        W 3979  23.828  21.878  16.111 -0.0667  0.1226  0.3649
60927W        W 3980   2.930   1.933  26.917 -0.2593 -0.1367 -0.0260
60928W        W 3981  22.474  32.409   6.252  0.3263  0.1099  0.0148
60929W        W 3982   2.355  12.430  28.042  0.0012  0.0239  0.2746
60930W        W 3983   7.010  23.316  28.255 -0.2528  0.2927 -0.0514
60931W        W 3984   6.684  15.166  14.468 -0.1442 -0.0074 -0.2721
60932W        W 3985  34.261  27.458  16.359  0.2566 -0.2688 -0.4143
60933W        W 3986  22.451  17.895  27.268 -0.1730 -0.0909 -0.0067
60934W        W 3987   0.041   7.304  15.155  0.1080 -0.1695  0.2426
60935W        W 3988  34.235   2.139   2.181  0.0961 -0.0448  0.0345
60936W        W 3989  17.801  24.160  21.712 -0.1092  0.3670  0.0960
60937W        W 3990  19.150  26.652  14.333  0.0569 -0.0382  0.0407
60938W        W 3991  33.921  21.107   6.232 -0.1486  0.0907 -0.0068
60939W        W 3992  19.198  13.529   9.171 -0.1847  0.1021  0.3458
60940W        W 3993  19.749  30.059  19.110 -0.4340  0.2427 -0.0210
60941W        W 3994  10.339  16.268  22.383  0.5379  0.0334 -0.3130
60942W        W 3995  25.733  14.463  19.402  0.1583 -0.1306 -0.2561
60943W        W 3996  22.104  24.923   7.780 -0.0938 -0.1436 -0.0004
60944W        W 3997   9.544   0.272  21.879 -0.0167 -0.3061 -0.0852
60945W        W 3998  16.213  17.231  13.890  0.1748 -0.2441 -0.2730
60946W        W 3999  33.328  18.922  22.695  0.0340 -0.1710  0.1594
60947W        W 4000  31.863  27.746   6.812 -0.0933  0.2480 -0.3503
60948W        W 4001  10.554  12.547   6.863  0.1534 -0.1199 -0.0649
60949W        W 4002  29.830   9.955  23.520  0.2975 -0.1070 -0.0775
60950W        W 4003  31.163  25.199   1.859 -0.2236 -0.0600  0.0646
60951W        W 4004   6.924  23.317  17.075 -0.1287  0.0602 -0.1521
60952W        W 4005  18.556  26.215   8.903 -0.0322 -0.3033  0.3398
60953W        W 4006  34.637  16.971  25.425  0.1158  0.0703 -0.0357
60954W        W 4007  33.896  15.966  27.831 -0.2047  0.1222  0.1787
60955W        W 4008   4.022  33.019   4.010  0.0873 -0.0527  0.1154
60956W        W 4009   2.217  19.928  16.704 -0.1801 -0.0717  0.3540
60957W        W 4010  10.280  17.400  27.420 -0.1184  0.2377  0.2002
60958W        W 4011   9.378  28.420  26.135 -0.1624 -0.1723 -0.3309
60959W        W 4012  12.733  11.688   4.384  0.0326  0.0449 -0.3750
60960W        W 4013  21.472  31.961   1.765  0.0011  0.1145 -0.1994
60961W        W 4014   4.638  17.031  18.812  0.0724  0.0663  0.1818
60962W        W 4015  15.895  17.452  27.463  0.0434  0.0353  0.4789
60963W        W 4016  18.708   7.498  17.008  0.0634  0.0208 -0.0803
60964W        W 4017  18.795   8.011  16.903 -0.1208  0.1157 -0.0469
60965W        W 4018  26.300  13.218  17.822 -0.1734  0.2749  0.0426
60966W        W 4019   3.869  33.180  16.347  0.1219  0.2534  0.1426
60967W        W 4020  11.336  22.759  14.299 -0.0973  0.1583 -0.0071
60968W        W 4021  27.955   0.045   8.396  0.0143  0.0729 -0.0809
60969W        W 4022   2.524  18.590  23.632 -0.1945  0.2732  0.2064
60970W        W 4023   2.924  28.996  17.327 -0.0269  0.0312  0.3454
60971W        W 4024   5.425  13.705  28.130 -0.0691 -0.2192  0.1053
60972W        W 4025  29.073  21.223  23.603  0.3108  0.1078  0.0784
60973W        W 4026  21.008  16.571   4.068 -0.2907 -0.1466  0.0753
60974W        W 4027  14.935  26.992  25.712  0.1022 -0.0313  0.0291
60975W        W 4028  23.061   2.446  16.702 -0.0804 -0.2929  0.0334
60976W        W 4029  17.287   9.398  19.466  0.0440 -0.0878  0.1473
60977W        W 4030  12.135  11.695  18.481  0.0065  0.2083 -0.1204
60978W        W 4031  12.083  16.806  27.893 -0.1224 -0.0986  0.2349
60979W        W 4032   6.655  25.741  20.743  0.1252  0.2313  0.0524
60980W        W 4033  14.750  20.816   7.234 -0.4116  0.3110 -0.0323
60981W        W 4034   4.213  25.085  14.350 -0.1353 -0.0335  0.0789
60982W        W 4035   8.490  17.867  20.181  0.1349 -0.0204  0.3168
60983W        W 4036  34.380   1.997  27.125  0.2728 -0.1025  0.2980
60984W        W 4037  29.022  28.224  13.347 -0.0475 -0.0877  0.0216
60985W        W 4038  18.133  11.326   9.155  0.0027 -0.1493  0.4193
60986W        W 4039  11.599  22.833  17.263 -0.0229  0.0863 -0.1968
60987W        W 4040   3.661   0.166  26.446 -0.1504  0.2842  0.2131
60988W        W 4041   6.210  17.055  24.226  0.2529  0.2116 -0.0261
60989W        W 4042  16.238  27.987  24.589 -0.1495  0.1963 -0.0319
60990W        W 4043   3.461  18.122  14.375 -0.2856  0.0488 -0.1152
60991W        W 4044  16.645  26.375  21.900  0.0556  0.0462 -0.2030
60992W        W 4045  16.518  12.883  15.772 -0.1325  0.2831 -0.0142
60993W        W 4046  12.789  16.661  15.487  0.2556 -0.0371 -0.1496
60994W        W 4047   6.421  21.533  27.584 -0.0141  0.0178 -0.0617
60995W        W 4048  34.648  10.424   1.290  0.0008  0.1886 -0.0112
60996W        W 4049   7.695  16.646  23.623  0.0984 -0.2283  0.2438
60997W        W 4050  13.721  29.042  15.935 -0.0636  0.2147  0.0300
60998W        W 4051   0.322  30.576   2.495  0.1338  0.1684 -0.3330
60999W        W 4052   3.175   6.853  25.730 -0.0945  0.2300  0.2123
61000W        W 4053   0.941  28.947  18.204 -0.0981  0.1874  0.0780
61001W        W 4054  17.918  23.661   0.058  0.0975 -0.2265  0.2188
61002W        W 4055  26.424  26.753  26.935 -0.1100  0.1090  0.1246
61003W        W 4056  10.172  16.223  16.745 -0.1435  0.1095 -0.0951
61004W        W 4057  11.268  18.583  24.047 -0.3394 -0.2436 -0.0548
61005W        W 4058  14.702  14.982   5.512  0.3532 -0.1012  0.0807
61006W        W 4059   8.679  14.035   5.721  0.0420  0.2438 -0.0633
61007W        W 4060  19.918  23.971   1.468 -0.0497 -0.0370 -0.0889
61008W        W 4061   1.760  28.347   9.619 -0.1121  0.0381  0.0506
61009W        W 4062  11.843  23.548   3.698 -0.2095  0.0678  0.2686
61010W        W 4063  17.503  30.275   2.341 -0.1765 -0.1251 -0.0588
61011W        W 4064  10.287  31.543   7.565 -0.2492 -0.2215 -0.0405
61012W        W 4065   2.653  21.082  24.672 -0.1836 -0.2527  0.1070
61013W        W 4066   3.612  18.145   1.568  0.0098 -0.1749  0.3419
61014W        W 4067  14.994   8.386  24.038  0.1873  0.1066 -0.1781
61015W        W 4068  15.347  19.495  15.800  0.1484 -0.1855  0.1684
61016W        W 4069   4.919  23.822   2.925 -0.0029 -0.0010  0.2935
61017W        W 4070  14.918  21.570  22.218 -0.1645  0.1994 -0.0865
61018W        W 4071  31.916  34.564  17.506 -0.1280  0.2273 -0.2517
61019W        W 4072  16.108  19.535   0.568 -0.4766  0.2600  0.0627
61020W        W 4073   7.351  21.007  20.356  0.1852 -0.4605  0.2888
61021W        W 4074  21.458  10.239  16.600 -0.2637  0.1800  0.3075
61022W        W 4075  26.079   9.043   8.805 -0.1251  0.1643 -0.1146
61023W        W 4076   8.080   8.089  25.697 -0.2098 -0.0157  0.0481
61024W        W 4077  23.938  28.562  20.690  0.0769 -0.0091  0.2495
61025W        W 4078  25.245  30.657  23.178 -0.0950 -0.4557 -0.3344
61026W        W 4079   4.281  21.267  20.629  0.0339  0.0310 -0.1480
61027W        W 4080  18.438  19.008  25.378 -0.0387  0.0603  0.1454
61028W        W 4081  13.111  29.027  26.416 -0.3478  0.1171 -0.1861
61029W        W 4082  17.743  32.200  14.724  0.1534 -0.0663 -0.0277
61030W        W 4083  22.184  22.839   0.057  0.0039 -0.2845  0.2817
61031W        W 4084  13.308  32.790  18.361  0.1270 -0.0312  0.1792
61032W        W 4085  14.061  23.868  16.784  0.0662 -0.2644  0.2274
61033W        W 4086   5.559  15.373  17.260 -0.2832  0.2081  0.1652
61034W        W 4087   9.624  21.287  16.709  0.0878  0.0899 -0.2556
61035W        W 4088  27.825   6.290   3.791 -0.0802  0.1970 -0.1133
61036W        W 4089  33.582  31.708   1.018 -0.0624 -0.0226 -0.0791
61037W        W 4090  31.279  30.150   0.084  0.2931 -0.3183  0.0362
61038W        W 4091   6.377  17.878  16.411  0.1867  0.0936 -0.0428
61039W        W 4092  19.772  19.977  28.258 -0.0858  0.2497 -0.2707
61040W        W 4093  16.007  29.249  16.448 -0.1265  0.0144  0.3052
61041W        W 4094   3.763  24.417  26.816  0.0489  0.0254  0.2012
61042W        W 4095  26.155  26.549   5.910 -0.0941  0.0298 -0.1565
61043W        W 4096  14.616  28.888   3.577  0.0324 -0.0185  0.2874
61044W        W 4097  14.891  27.087  28.947 -0.0741 -0.4327  0.1616
61045W        W 4098  15.132  13.738   5.875 -0.2269 -0.1213  0.3330
61046W        W 4099   8.980  22.605   6.683  0.0455  0.0319  0.3252
61047W        W 4100  32.395  19.181  20.724 -0.0722 -0.1336 -0.2721
61048W        W 4101  14.197  20.574  22.874 -0.1371 -0.0881 -0.4639
61049W        W 4102  10.266  19.137  17.982  0.1992 -0.2009 -0.4340
61050W        W 4103  10.264  32.964   8.273  0.2360  0.1327 -0.0205
61051W        W 4104   6.162  17.398   9.126 -0.0638  0.0991 -0.1363
61052W        W 4105   9.563  21.651   1.207 -0.1312  0.0039  0.0001
61053W        W 4106  17.653  27.592  27.781 -0.0361  0.0520 -0.2736
61054W        W 4107   5.641  26.836  18.921  0.3064 -0.1517  0.1129
61055W        W 4108  11.886  32.297  15.209  0.0064  0.1547  0.0925
61056W        W 4109   2.168  30.094   1.343 -0.2509 -0.0658 -0.3862
61057W        W 4110   6.359  30.606  17.344 -0.1163 -0.0460  0.0284
61058W        W 4111   3.665  22.507  27.162 -0.0005  0.0622 -0.0183
61059W        W 4112  10.768  12.519  20.764  0.0582 -0.1954  0.1737
61060W        W 4113   3.921  31.904  23.275  0.4171 -0.2073  0.1053
61061W        W 4114  10.200  30.332  22.138 -0.2857 -0.2147 -0.1042
61062W        W 4115   9.351  22.701  18.657 -0.0230  0.5163 -0.0228
61063W        W 4116  28.999  10.538  10.884 -0.1410 -0.1063  0.0026
61064W        W 4117   6.183  19.310   2.426 -0.1449 -0.0085 -0.2657
61065W        W 4118  16.555   7.603   9.120 -0.0681  0.1467  0.3682
61066W        W 4119  13.761   3.023  21.231  0.0319  0.0587  0.2751
61067W        W 4120  10.280   6.458   9.895 -0.1486  0.0224 -0.0478
61068W        W 4121  12.002  13.888  17.515 -0.0299  0.2121 -0.1212
61069W        W 4122   2.476  24.105  19.117  0.2552 -0.0111 -0.3175
61070W        W 4123  20.816  12.335  19.283 -0.1799  0.1035 -0.1759
61071W        W 4124  12.847  19.182  17.430  0.2521 -0.1302  0.0396
61072W        W 4125  11.637  19.908  22.262  0.3605  0.1199  0.0305
61073W        W 4126  17.606  13.073  20.793  0.3567 -0.3374  0.1550
61074W        W 4127   5.161  21.501  18.921  0.2261 -0.0042  0.1035
61075W        W 4128  12.975  34.654  21.828  0.0581  0.0268 -0.0555
61076W        W 4129  25.014  22.402  16.913  0.0937  0.2006  0.1142
61077W        W 4130   5.400  27.146  16.827  0.0206 -0.1116 -0.2839
61078W        W 4131   5.205  19.929  16.029 -0.2678  0.0225  0.1058
61079W        W 4132   5.902  18.312   9.189  0.3897 -0.3050 -0.0792
61080W        W 4133  11.522  34.333  15.974  0.1177  0.1978  0.0622
61081W        W 4134  23.098  17.159  19.142  0.0333  0.1565 -0.1001
61082W        W 4135  26.577  28.467  18.242  0.2909  0.0043 -0.1295
61083W        W 4136   5.418  10.921   0.129  0.4736 -0.0697 -0.1907
61084W        W 4137  15.541  21.063   4.799  0.3229 -0.1143  0.0390
61085W        W 4138  29.475  23.604   4.780  0.0902 -0.1310 -0.0063
61086W        W 4139   4.651  32.295  25.090  0.1920  0.3083  0.1108
61087W        W 4140  22.264  29.018   2.136  0.0512  0.0172 -0.1687
61088W        W 4141   4.822   7.407  21.713  0.0681  0.0971  0.2516
61089W        W 4142  10.150  34.366  28.543 -0.2264  0.0835  0.0256
61090W        W 4143   3.790  15.356  20.881 -0.2819  0.1617  0.2115
61091W        W 4144  12.895  21.551  24.389 -0.1309  0.0905 -0.3127
61092W        W 4145  23.117   8.557  25.921 -0.2813  0.1800  0.0223
61093W        W 4146  14.445  21.205  21.062  0.1452  0.1606  0.0272
61094W        W 4147  13.515  13.518  21.565  0.2484  0.2197  0.1668
61095W        W 4148  12.344  25.076  20.731 -0.2761  0.4568 -0.2549
61096W        W 4149   4.946  27.931  17.766 -0.1202  0.2192  0.0100
61097W        W 4150   5.053  12.757   6.726  0.1083 -0.0489  0.0899
61098W        W 4151  13.631   1.196   5.211  0.4099 -0.1368 -0.1391
61099W        W 4152   2.511  17.658  19.341 -0.0136  0.2593  0.1478
61100W        W 4153   8.530  22.753  18.943  0.3011  0.1087  0.2083
61101W        W 4154   9.774  25.276  21.845 -0.2481 -0.0291 -0.2577
61102W        W 4155   2.027  21.746   0.848  0.0854  0.0118  0.1221
61103W        W 4156  14.026  14.665  16.040 -0.2261  0.3156 -0.5951
61104W        W 4157  12.206  28.585  17.731 -0.2208  0.1322 -0.0491
61105W        W 4158  18.431  29.203  17.439 -0.0562 -0.1351 -0.0427
61106W        W 4159  11.639  25.371  14.472  0.1487  0.1571 -0.1215
61107W        W 4160  29.250  19.216   4.302  0.2204  0.1819 -0.3669
61108W        W 4161   3.559  25.032   0.589  0.1496  0.2210 -0.0091
61109W        W 4162   7.706  23.474   5.844 -0.2298 -0.0626  0.0186
61110W        W 4163  26.851  26.224  14.089  0.1080  0.2072  0.2831
61111W        W 4164  14.652  25.539   8.844 -0.2584  0.2324 -0.0324
61112W        W 4165  15.671   3.032  15.718  0.0630  0.0611 -0.3445
61113W        W 4166  21.333  18.449  13.937  0.1950 -0.3154 -0.0443
61114W        W 4167  13.080  29.810   3.021 -0.0524  0.3654 -0.5057
61115W        W 4168   2.931  32.443  22.706 -0.1998 -0.0193  0.0297
61116W        W 4169  15.646  22.270   5.514  0.0156 -0.1739  0.2632
61117W        W 4170  10.890  15.286  27.117 -0.1906  0.0253 -0.0298
61118W        W 4171  11.519  27.961   8.231  0.5418 -0.1154 -0.0821
61119W        W 4172   1.219  30.526  16.718 -0.1792 -0.1214 -0.2449
61120W        W 4173  19.623  29.498   4.768 -0.0470 -0.1459  0.1123
61121W        W 4174  25.451   1.839  15.001  0.2293  0.1584 -0.0918
61122W        W 4175  19.339  30.489  24.074  0.2119 -0.0116  0.1030
61123W        W 4176  23.152  18.994  29.102 -0.1435  0.2381  0.0632
61124W        W 4177  34.594  14.611  18.649 -0.0496 -0.0039 -0.1441
61125W        W 4178   4.701  28.323  18.666  0.1294 -0.0632 -0.3943
61126W        W 4179  26.522  30.377  25.802 -0.2090  0.0242 -0.2221
61127W        W 4180  22.111  11.348  17.880 -0.0168  0.3149 -0.0396
61128W        W 4181  31.035  31.969  14.065  0.1409 -0.0169  0.0271
61129W        W 4182  18.557  32.591  20.782 -0.0594 -0.0084 -0.1499
61130W        W 4183  18.869  15.833  15.166  0.2190  0.3436 -0.1705
61131W        W 4184   4.353   9.705   5.307  0.0498  0.0639 -0.2510
61132W        W 4185  33.710   5.030  21.503  0.0618 -0.3545 -0.1745
61133W        W 4186  34.066   7.565   9.501 -0.1505  0.1109  0.0329
61134W        W 4187  11.473   0.902  22.265 -0.0909  0.0768  0.1143
61135W        W 4188  10.428  18.902  16.216  0.2831  0.0882 -0.0882
61136W        W 4189  24.270  11.709  21.108  0.2026 -0.2576  0.2075
61137W        W 4190  33.666  22.932  19.329 -0.1295  0.0853 -0.4569
61138W        W 4191  25.565  22.829  18.903  0.1601 -0.1194  0.3521
61139W        W 4192   5.737   2.206   0.709  0.0217  0.0528  0.2754
61140W        W 4193  15.665   8.042  14.989  0.2141 -0.1561  0.0760
61141W        W 4194   0.365  26.279  19.135 -0.0290 -0.1707  0.4369
61142W        W 4195   8.348  29.029  14.606  0.0552  0.0743 -0.2189
61143W        W 4196  20.462  18.275  20.415  0.2969 -0.1989 -0.1487
61144W        W 4197  12.740  25.079  14.095  0.1621 -0.1954 -0.1206
61145W        W 4198  13.953  10.718  22.690  0.2847  0.2125  0.0591
61146W        W 4199   0.999  10.507   1.917 -0.2027  0.0835 -0.1629
61147W        W 4200   6.765  22.675  18.851 -0.1986  0.1603 -0.1070
61148W        W 4201  19.951  15.677   4.144 -0.0641  0.3278  0.1010
61149W        W 4202   7.278  20.746  28.763 -0.1414  0.2101 -0.0351
61150W        W 4203   4.288  21.597  17.570  0.0024  0.1879  0.0290
61151W        W 4204   2.480  17.382   0.437  0.0050  0.0527 -0.1086
61152W        W 4205  24.961  12.464   7.176 -0.3280  0.0291  0.4644
61153W        W 4206   3.864  20.477  18.664  0.3145 -0.0326 -0.0170
61154W        W 4207   0.430  20.805   0.875  0.0952  0.2576  0.3699
61155W        W 4208  27.337   3.020  23.383  0.0006 -0.3670  0.0428
61156W        W 4209  22.354  15.533  27.403  0.1732 -0.1477  0.4990
61157W        W 4210   5.306  21.824  22.172 -0.2068 -0.0587  0.0631
61158W        W 4211  22.098  18.989  19.517  0.0791 -0.0599 -0.0797
61159W        W 4212  17.746  24.041  25.747 -0.0012 -0.1201  0.0973
61160W        W 4213  13.421  24.834  24.453  0.1484 -0.2612  0.4074
61161W        W 4214   0.259  29.919  22.712 -0.2376 -0.3268  0.1037
61162W        W 4215   9.362  13.974  22.522 -0.0061 -0.0005  0.3042
61163W        W 4216  10.868  16.120   1.883  0.1477 -0.1151  0.0134
61164W        W 4217  30.749  23.752   6.939  0.2741 -0.2030  0.3352
61165W        W 4218  26.166   6.860  17.115 -0.0991  0.3447 -0.0925
61166W        W 4219   4.207  21.351   2.209  0.1679 -0.0278  0.0329
61167W        W 4220   5.849  29.919  22.267  0.1383 -0.1005 -0.5522
61168W        W 4221  27.006  28.413  24.536  0.2434 -0.0890 -0.0265
61169W        W 4222  13.367  30.204  20.819 -0.0749  0.0057  0.0488
61170W        W 4223   9.084  17.054  15.827  0.1218 -0.3039  0.4082
61171W        W 4224  17.832   3.060  23.223 -0.0196  0.1915  0.0370
61172W        W 4225  15.719  26.038   1.213  0.0017 -0.2192  0.0107
61173W        W 4226  13.719  29.559   0.807 -0.0877  0.1126 -0.4486
61174W        W 4227   7.303   7.200  21.102  0.0975 -0.0222  0.2633
61175W        W 4228  23.543  30.842  20.854 -0.0055 -0.0364 -0.1136
61176W        W 4229  16.645  14.097  21.468 -0.2291  0.0954  0.2707
61177W        W 4230  28.797  22.739   1.142  0.0292  0.3342  0.1049
61178W        W 4231  13.563  17.097  17.358 -0.2545 -0.0698 -0.3301
61179W        W 4232  18.641   5.312  25.065  0.1495 -0.0520  0.1275
61180W        W 4233  18.850  29.619   3.332 -0.1403  0.0773  0.2525
61181W        W 4234  15.197  12.132   9.342  0.1006 -0.3096 -0.0909
61182W        W 4235  12.264  32.462   7.450 -0.1254  0.0714 -0.0724
61183W        W 4236   2.619   4.712   1.016 -0.5195 -0.1141 -0.0705
61184W        W 4237  16.191  10.242   0.822  0.1841  0.2347  0.0490
61185W        W 4238  34.501   8.976  26.014  0.0426 -0.0210  0.2216
61186W        W 4239  21.674   7.618  28.109 -0.1360  0.1060  0.0376
61187W        W 4240  25.331   9.827  26.574  0.0405 -0.0046 -0.2040
61188W        W 4241  23.875  28.811  21.165 -0.0996 -0.1567  0.0082
61189W        W 4242  31.019  13.389  28.405  0.0635 -0.0751 -0.1121
61190W        W 4243  33.214  24.500  29.003  0.1217 -0.1668  0.0227
61191W        W 4244   7.522  24.001   7.493  0.0800  0.1308  0.1500
61192W        W 4245   9.639  21.783   6.505  0.0030  0.1149  0.0764
61193W        W 4246  33.667  26.827  19.163 -0.0565 -0.2158 -0.1342
61194W        W 4247   5.176  30.754  21.772  0.0534  0.0287  0.1915
61195W        W 4248  22.559  22.643  10.411 -0.3558  0.1436  0.1046
61196W        W 4249  14.558  19.795   9.554 -0.2036  0.1492 -0.0323
61197W        W 4250  12.308  33.358  15.900  0.1081 -0.0433 -0.0578
61198W        W 4251   8.455  10.500   2.889  0.0361  0.0305 -0.1322
61199W        W 4252  34.662  26.115  25.197 -0.1768  0.3896  0.0146
61200W        W 4253  12.554   8.869   6.277  0.0354 -0.1526 -0.1425
61201W        W 4254  17.215  11.928  19.463  0.1343  0.1580  0.1287
61202W        W 4255   5.525  26.794  28.167  0.2591 -0.0701 -0.1157
61203W        W 4256   9.134   7.070  16.645  0.0706  0.1370  0.3710
61204W        W 4257  20.357  17.794   1.105  0.0028 -0.0212 -0.0364
61205W        W 4258  14.147   7.310   8.938 -0.3207  0.0617 -0.0195
61206W        W 4259  24.825  25.585  16.509 -0.0514  0.1009 -0.1287
61207W        W 4260   6.858  16.963   7.761 -0.0247  0.2051  0.0587
61208W        W 4261  21.092  18.644  15.698 -0.0162 -0.3812 -0.1251
61209W        W 4262  19.886  21.124  18.345  0.2299 -0.0908 -0.4666
61210W        W 4263  24.770  20.620  17.309 -0.1969  0.2056  0.3061
61211W        W 4264  10.113  23.065  20.894 -0.0454 -0.0082  0.0677
61212W        W 4265   6.399  26.600  24.683  0.0992  0.2619  0.0868
61213W        W 4266  27.055   3.665   7.975 -0.1519  0.2510 -0.0266
61214W        W 4267  34.479  17.627  18.901 -0.0333  0.0274 -0.0504
61215W        W 4268  12.822  26.549  19.214 -0.3371  0.2860 -0.0358
61216W        W 4269  15.168  28.485  13.643 -0.0399 -0.0356  0.1111
61217W        W 4270   4.554  25.747  25.685 -0.1136 -0.1455  0.0221
61218W        W 4271   8.092  26.096   1.569  0.0450  0.2326  0.4135
61219W        W 4272  10.161  20.665   7.612  0.1295  0.0593 -0.0202
61220W        W 4273  14.330  24.745  15.908 -0.2345 -0.0035 -0.1318
61221W        W 4274   2.026  13.535   3.943  0.2890 -0.0044 -0.0344
61222W        W 4275  11.845  19.056   3.036 -0.4009 -0.1069 -0.1452
61223W        W 4276   2.331  17.235   7.723  0.1182  0.0874  0.0702
61224W        W 4277   9.236  28.323  21.005 -0.0307 -0.1123 -0.2619
61225W        W 4278  15.137  20.863  15.027  0.0936  0.1137  0.1655
61226W        W 4279  20.270  24.681   2.145  0.0959 -0.0022  0.3002
61227W        W 4280  25.243  16.899  10.326  0.0658 -0.0092  0.0114
61228W        W 4281   8.936   6.219   0.613 -0.2086  0.2446 -0.1133
61229W        W 4282  23.362  14.785   1.420  0.0525 -0.0814  0.1483
61230W        W 4283   5.818  18.232  20.932  0.4362 -0.2267  0.1312
61231W        W 4284  11.451  27.976  18.369 -0.2090  0.0338  0.1597
61232W        W 4285  27.701   6.206   6.050 -0.0466  0.0954  0.0433
61233W        W 4286   3.782   1.357   0.259 -0.0878  0.2147 -0.1698
61234W        W 4287   6.263  27.934  28.752  0.0165 -0.2489  0.0568
61235W        W 4288  31.857  13.259  26.213  0.0365  0.2190  0.0952
61236W        W 4289  13.597  16.151   2.058  0.0346 -0.1975  0.3967
61237W        W 4290  11.333  34.586  27.128  0.1687 -0.2720 -0.1763
61238W        W 4291  12.524  18.215   5.074  0.0065 -0.1644  0.2853
61239W        W 4292  10.454   9.170  21.921 -0.2805  0.2215 -0.0892
61240W        W 4293  17.711  31.483   3.676  0.2379  0.3164  0.1200
61241W        W 4294   9.617  24.917  26.833 -0.2713  0.0159  0.1712
61242W        W 4295   2.243  17.609  22.145 -0.0061  0.1840 -0.0806
61243W        W 4296  18.709  23.942   4.265  0.3733  0.1676  0.1159
61244W        W 4297   5.108  23.279   1.215 -0.2973  0.1529  0.3961
61245W        W 4298   9.788  28.224   7.990 -0.1803 -0.2043 -0.2171
61246W        W 4299  17.276  31.284  27.512 -0.0531  0.3195 -0.1039
61247W        W 4300  18.555  12.924  21.308 -0.2030 -0.0238  0.0705
61248W        W 4301  34.390   8.599  21.493  0.1978  0.1398 -0.0656
61249W        W 4302  24.227   0.371   2.230  0.3464  0.2640  0.0651
61250W        W 4303  31.481  26.664  21.917 -0.1423 -0.3514 -0.1497
61251W        W 4304   9.726   9.579   8.345 -0.1576  0.2498  0.2454
61252W        W 4305   1.405  11.829   5.775  0.0320  0.0926  0.2578
61253W        W 4306  28.781  32.356  20.808  0.1379 -0.3509  0.0414
61254W        W 4307  13.585  23.310  26.577 -0.0327  0.3293 -0.2328
61255W        W 4308   7.433  33.556  24.369 -0.0105 -0.0619  0.0861
61256W        W 4309  11.815  22.267   0.803 -0.0718 -0.1042 -0.1596
61257W        W 4310   9.948  25.782   0.920  0.0051 -0.4410 -0.3472
61258W        W 4311   7.585  20.823   8.977  0.1841 -0.1419 -0.0015
61259W        W 4312  10.586  10.139  25.708  0.0708 -0.3481  0.0097
61260W        W 4313  18.512  32.286  25.521 -0.1845  0.0192  0.0798
61261W        W 4314  18.211  24.520   6.141  0.2269 -0.0768  0.1125
61262W        W 4315  15.073  21.647  19.673 -0.0711  0.0445  0.1491
61263W        W 4316  12.150  25.912   4.856  0.0499 -0.1848  0.1060
61264W        W 4317  18.936  26.499  22.539 -0.4177 -0.1021  0.1415
61265W        W 4318  12.391  18.284  10.670  0.1892 -0.1976 -0.2180
61266W        W 4319  30.674  25.511   9.771  0.0448  0.0758 -0.0542
61267W        W 4320  19.938   2.894   9.443 -0.2378  0.1356  0.0123
61268W        W 4321  11.999   5.109  28.319 -0.0753  0.0605  0.0147
61269W        W 4322  12.710   1.943  27.969 -0.0155  0.1477 -0.1523
61270W        W 4323   6.406  14.317  27.053  0.0066 -0.1671 -0.0002
61271W        W 4324  13.848  25.789  27.454 -0.1167 -0.1844  0.1055
61272W        W 4325  19.139  16.018  14.140 -0.2606 -0.1061  0.1095
61273W        W 4326  31.993  18.086   3.182  0.1289  0.0101  0.1444
61274W        W 4327   0.163  26.821  18.972 -0.1272 -0.1275  0.0730
61275W        W 4328  10.765  15.019  26.661 -0.1461 -0.2485 -0.0020
61276W        W 4329  26.253  11.205   4.371 -0.0097  0.0845  0.2878
61277W        W 4330  11.953  27.352   5.063  0.1730 -0.3908  0.0751
61278W        W 4331   0.976  34.494  28.970 -0.1386 -0.1053  0.1569
61279W        W 4332  25.511  34.513  15.446 -0.0844  0.0258 -0.0992
61280W        W 4333   5.774  24.573  24.812 -0.3078 -0.0442  0.3606
61281W        W 4334   7.699   6.720   8.413 -0.0224 -0.1252  0.1093
61282W        W 4335   8.822  22.128  20.430  0.0252 -0.1915 -0.1515
61283W        W 4336  33.970  32.453  26.975  0.1909 -0.1500 -0.1524
61284W        W 4337  12.249  15.592  24.934 -0.2046 -0.1097  0.1228
61285W        W 4338  14.036  16.510  26.370 -0.0035  0.0275 -0.0054
61286W        W 4339  14.247  24.113  28.624 -0.2872 -0.0223  0.1780
61287W        W 4340   4.382  25.210   9.119  0.2891  0.0836 -0.0061
61288W        W 4341   3.821  12.673  25.148  0.0654  0.1060 -0.2105
61289W        W 4342   5.512  28.509  27.026  0.0545  0.0446 -0.1124
61290W        W 4343   1.001   0.770   1.228 -0.1088 -0.0729 -0.0583
61291W        W 4344  14.770  21.953  24.298  0.1307  0.0182 -0.2351
61292W        W 4345  17.241  22.329  20.748 -0.0358 -0.0987  0.1452
61293W        W 4346  22.673  10.945   1.921  0.1884 -0.1333 -0.3354
61294W        W 4347   7.790  10.255  21.714  0.1204  0.1942 -0.0123
61295W        W 4348  24.655  33.154  27.609 -0.1192 -0.0382  0.0810
61296W        W 4349   9.742   8.356  28.544 -0.1089 -0.1355  0.0206
61297W        W 4350  19.512  19.604  23.786 -0.1366 -0.0690  0.0767
61298W        W 4351  15.484  21.236  16.518  0.3705  0.1943  0.3466
61299W        W 4352  32.750  32.105   2.109  0.1032  0.1826 -0.0234
61300W        W 4353  18.517  14.983  26.866 -0.0363 -0.1878 -0.2857
61301W        W 4354  28.393  15.780   6.219  0.0800 -0.0818  0.1915
61302W        W 4355   0.580   3.124   4.889 -0.0581 -0.0970 -0.1280
61303W        W 4356  23.136  28.877   1.186 -0.0953 -0.0712  0.2164
61304W        W 4357   3.085  19.634   4.534  0.2118  0.1949 -0.1501
61305W        W 4358   8.971  16.215  27.957 -0.1074  0.1715 -0.1757
61306W        W 4359  24.962   4.042   4.725 -0.3502  0.3018  0.1735
61307W        W 4360  31.599  18.504  27.547 -0.2501 -0.1882 -0.0159
61308W        W 4361  14.481  21.046   2.614  0.0372  0.0968  0.1926
61309W        W 4362  10.298  12.755  25.019 -0.3323 -0.1473  0.2654
61310W        W 4363  18.678  25.245   6.260 -0.1912 -0.2509  0.0435
61311W        W 4364  20.293  20.729  17.779  0.1235  0.1513 -0.0549
61312W        W 4365   3.885  25.654  19.093  0.1778  0.1738 -0.0015
61313W        W 4366  22.586  25.960  29.098  0.2130  0.1833  0.1325
61314W        W 4367   4.105   4.156   7.017 -0.0665  0.0280  0.1192
61315W        W 4368  11.395  23.749  17.111  0.2350 -0.1426  0.0008
61316W        W 4369  16.150  22.182   7.472 -0.1405  0.1694  0.0088
61317W        W 4370  23.522  30.630   8.732  0.3060  0.1471  0.2080
61318W        W 4371  20.781   9.603  20.861 -0.1727  0.2912  0.3169
61319W        W 4372  13.285  17.666   8.804  0.2836  0.1123  0.1839
61320W        W 4373  13.496  12.438  21.559  0.0538 -0.0215  0.2261
61321W        W 4374  14.223  14.252  26.089  0.0779  0.1291 -0.1236
61322W        W 4375  33.311   3.833   0.954  0.3104  0.1289  0.0139
61323W        W 4376   3.908  13.183  21.890 -0.3725 -0.0399  0.0476
61324W        W 4377   3.777  15.686  28.519  0.0293 -0.2837  0.0899
61325W        W 4378  12.963  14.046  22.390  0.2159  0.1807 -0.2066
61326W        W 4379   2.114  18.351  23.773 -0.0899  0.0018 -0.1296
61327W        W 4380  19.607  12.548   2.869 -0.0612  0.1998  0.1880
61328W        W 4381   6.048  17.928  24.922  0.2406  0.0765  0.0715
61329W        W 4382   5.758  31.387  24.122  0.1176  0.1918  0.0390
61330W        W 4383  17.532  19.703   4.563  0.1291  0.0414  0.1108
61331W        W 4384  27.196  26.379  24.840 -0.0094 -0.0594 -0.2629
61332W        W 4385  27.835  32.524   0.499  0.0169 -0.1428  0.1268
61333W        W 4386   3.441  16.729  20.670  0.0248 -0.0954  0.1574
61334W        W 4387  12.283  19.040  19.156  0.0431  0.2645  0.1209
61335W        W 4388  15.132  28.334   7.338  0.2790  0.1282  0.1972
61336W        W 4389   9.179  19.948  15.487  0.2419 -0.0267 -0.0445
61337W        W 4390  17.511  26.766   1.118 -0.0575  0.0410 -0.0831
61338W        W 4391  11.039  16.077  27.858 -0.1632  0.1493  0.0828
61339W        W 4392  17.424   4.120  21.302  0.1679 -0.0433  0.2674
61340W        W 4393   1.557  18.454  28.178  0.0596 -0.0356 -0.0310
61341W        W 4394   1.937   6.696  27.245 -0.2460 -0.0791  0.1185
61342W        W 4395   6.861   0.318  15.530 -0.0986  0.0504  0.2545
61343W        W 4396  31.561  11.474  25.980  0.1508  0.0568 -0.1720
61344W        W 4397  10.596  32.375  18.628 -0.0466  0.1461  0.0726
61345W        W 4398   2.037   2.869  19.867  0.3692 -0.1251 -0.1429
61346W        W 4399  22.048  18.549  22.787 -0.2256  0.1841  0.0840
61347W        W 4400  13.832  24.277  26.208  0.0192  0.0761 -0.0874
61348W        W 4401  18.459  22.521   7.639  0.0530 -0.0718  0.1293
61349W        W 4402  16.375  28.639  25.332  0.1243  0.3111  0.2679
61350W        W 4403   2.806  23.090  19.383 -0.3822 -0.1400 -0.1809
61351W        W 4404   7.223   3.893  25.033  0.0432  0.1401 -0.1184
61352W        W 4405   9.117   1.302  25.500 -0.1472 -0.1145  0.0480
61353W        W 4406   6.704  26.371  26.765  0.2387 -0.1511 -0.1670
61354W        W 4407   8.455  27.543  17.001 -0.3027 -0.2133 -0.1869
61355W        W 4408   6.479  29.470  12.981  0.0462  0.3102 -0.3597
61356W        W 4409  12.792  24.841   7.268  0.0865 -0.2774 -0.0136
61357W        W 4410   7.154  13.822   1.932  0.1543 -0.0880  0.0115
61358W        W 4411  15.143   9.710   1.485  0.0412 -0.0157 -0.1528
61359W        W 4412  32.082  30.456   5.545 -0.3023  0.1655 -0.3578
61360W        W 4413  23.598  20.578  25.985  0.1702  0.0184 -0.1267
61361W        W 4414  24.475   4.070   6.835  0.1741 -0.3161 -0.0797
61362W        W 4415  12.594   0.517   3.572 -0.0644  0.0093 -0.1139
61363W        W 4416  34.295  25.788  23.006 -0.1289 -0.0583 -0.4767
61364W        W 4417  20.624  11.504   0.957  0.1954 -0.0716 -0.1487
61365W        W 4418  13.376   3.403   3.710  0.1040 -0.0267 -0.0980
61366W        W 4419  13.672  17.489   7.737  0.0868  0.0607 -0.2250
61367W        W 4420  10.034  27.356  21.754  0.1105  0.1728 -0.3081
61368W        W 4421   2.131  29.608  17.333  0.2078  0.1198  0.1165
61369W        W 4422  11.093  26.422  14.140  0.4626 -0.2295 -0.1023
61370W        W 4423  13.800  31.368   2.153 -0.2604  0.0254 -0.1326
61371W        W 4424  10.015   3.556  18.606  0.3445  0.1118 -0.0079
61372W        W 4425  26.960  13.083  21.809 -0.0450 -0.5610  0.2101
61373W        W 4426   6.878  16.163  23.234 -0.0687 -0.1356 -0.1382
61374W        W 4427  15.692  22.387   9.213  0.0973  0.1261 -0.0429
61375W        W 4428   7.022  22.055  17.806 -0.0904  0.3024  0.1468
61376W        W 4429  11.819  10.868  23.809 -0.2507 -0.2590  0.0250
61377W        W 4430   7.116   8.111  19.476  0.1795  0.0230 -0.0983
61378W        W 4431  12.995  30.881   9.459 -0.3713  0.1221 -0.2887
61379W        W 4432  21.141  29.020   6.144 -0.1904 -0.2040  0.1112
61380W        W 4433  27.343  25.725  28.753  0.2531 -0.1178  0.3412
61381W        W 4434  13.974  16.266  23.698 -0.0432 -0.1573 -0.2593
61382W        W 4435  15.912  26.599  21.054  0.3866 -0.0214 -0.1282
61383W        W 4436   9.650  16.127  24.870 -0.3882  0.1157 -0.1128
61384W        W 4437  21.326  19.439   5.572 -0.0178 -0.0888 -0.0348
61385W        W 4438  21.284   5.915   1.068 -0.0608 -0.0305 -0.2759
61386W        W 4439  14.943   2.751  26.555  0.2984  0.3122  0.1054
61387W        W 4440  31.231  31.328   0.730 -0.3151  0.0628 -0.0219
61388W        W 4441   6.520   5.635   3.861  0.0342 -0.2325  0.0151
61389W        W 4442  20.666  28.950  23.449 -0.1398  0.3376  0.0994
61390W        W 4443  27.708  28.577   7.556  0.0508  0.0928 -0.1470
61391W        W 4444  34.541  29.468  15.049 -0.1181  0.1979  0.1451
61392W        W 4445  15.676  11.324   7.876  0.1486 -0.1649  0.0408
61393W        W 4446  16.950  25.795   3.449 -0.3821  0.0376  0.0928
61394W        W 4447  28.802  16.277  18.942  0.4986 -0.2873  0.1778
61395W        W 4448  27.071  31.881  19.657  0.1667 -0.0737 -0.4179
61396W        W 4449   1.689  23.505  25.131 -0.4999  0.1234  0.1494
61397W        W 4450  15.400   9.225   0.157  0.2368  0.2504  0.2508
61398W        W 4451   8.470  15.288   9.039 -0.0801  0.0309 -0.0074
61399W        W 4452  34.369  21.476  17.878 -0.1425  0.2857  0.1418
61400W        W 4453  16.209   0.818  28.490 -0.4850 -0.1940  0.2153
61401W        W 4454  16.210  28.028  13.688  0.2001 -0.1660  0.0603
61402W        W 4455   8.323   9.569   3.247 -0.0940  0.0532  0.2735
61403W        W 4456  11.507  17.350   8.834 -0.0139 -0.2295  0.3313
61404W        W 4457  24.628  19.274   5.216  0.4416 -0.2113  0.0001
61405W        W 4458  34.455  15.492  21.671 -0.3803  0.1050  0.2067
61406W        W 4459  26.340  32.431  22.928  0.2213  0.0714  0.2268
61407W        W 4460  17.196  13.027   3.710 -0.0821  0.1325  0.1598
61408W        W 4461  15.999  21.186   0.136  0.0919 -0.2395 -0.0417
61409W        W 4462  10.587  24.409  14.091 -0.1306 -0.2005 -0.1620
61410W        W 4463   6.332  21.538  23.481 -0.2853  0.1243 -0.1689
61411W        W 4464  20.729   0.075  29.176  0.0871  0.0479  0.1732
61412W        W 4465   3.163  32.535  14.409  0.2093 -0.1188  0.0516
61413W        W 4466   1.980  30.745   4.742  0.1271  0.0247 -0.0576
61414W        W 4467  13.943  29.589  17.025 -0.0448 -0.1497 -0.2325
61415W        W 4468  13.546   9.956  19.950  0.0751  0.0692  0.3784
61416W        W 4469  20.739  33.970  28.896  0.2489 -0.2367  0.0145
61417W        W 4470  21.293  13.067   6.118 -0.0504  0.1175  0.2066
61418W        W 4471  19.723  27.652  15.649 -0.0925 -0.0043  0.1006
61419W        W 4472   0.979  18.921  22.109 -0.2351  0.3123 -0.3452
61420W        W 4473  28.533  22.352   9.560 -0.0052  0.2038  0.0299
61421W        W 4474  25.987  21.360  16.923  0.2688 -0.1162  0.1363
61422W        W 4475  32.354  13.410   2.117 -0.0854 -0.3762  0.0144
61423W        W 4476  11.092  13.236  24.437 -0.0758  0.0306 -0.1453
61424W        W 4477  19.662  23.806  25.942  0.0381  0.1189 -0.0175
61425W        W 4478  18.917  10.915  13.522  0.0827 -0.1791 -0.1140
61426W        W 4479   8.963  20.705  25.440 -0.1476  0.2117 -0.1125
61427W        W 4480   4.023  11.374   0.220  0.1933 -0.0904 -0.2702
61428W        W 4481  15.707  19.528   7.663  0.2800  0.1437  0.0771
61429W        W 4482   8.495  32.057   1.962 -0.0002  0.0908  0.1061
61430W        W 4483  34.220  16.296  19.570 -0.0149  0.1006  0.0725
61431W        W 4484  12.030  10.549   1.823 -0.1249  0.0459  0.1010
61432W        W 4485  31.446  29.537  28.058 -0.2676 -0.0835 -0.0402
61433W        W 4486  19.387   9.016   2.473  0.3264 -0.0084 -0.0722
61434W        W 4487   4.000  30.653  26.073 -0.1798  0.0378 -0.0075
61435W        W 4488  13.822  11.195   9.744  0.0294  0.1648 -0.0422
61436W        W 4489  18.357  26.071  21.476 -0.1846  0.0103  0.1949
61437W        W 4490  15.409  31.123  24.770  0.3004  0.1951  0.0650
61438W        W 4491  20.697  10.463   0.609 -0.1996  0.0809  0.1308
61439W        W 4492   0.039  16.869   7.385  0.0433 -0.0804 -0.1226
61440W        W 4493   5.602  24.406   2.406 -0.0235  0.0102 -0.1405
61441W        W 4494   2.973  25.726   3.243 -0.0439  0.0450  0.3851
61442W        W 4495  13.267  27.797  17.889  0.0867 -0.1421 -0.3372
61443W        W 4496  15.139   0.185  19.906 -0.1509 -0.0997 -0.1135
61444W        W 4497  15.802  11.374  24.386  0.1234 -0.0059  0.2130
61445W        W 4498   6.646  24.875   8.886  0.1158 -0.5594 -0.2635
61446W        W 4499   7.918  25.010   2.201 -0.0335 -0.1064  0.2821
61447W        W 4500  10.507  24.333   0.108  0.0216 -0.2654 -0.2269
61448W        W 4501   1.382  21.901   2.353 -0.2333  0.0488 -0.0507
61449W        W 4502  24.276  27.766   3.492 -0.0178  0.0915  0.2110
61450W        W 4503  14.879  23.581  25.862  0.0311 -0.1272 -0.0302
61451W        W 4504  12.316   0.476   6.989  0.0667 -0.3052  0.1407
61452W        W 4505   3.253  14.377   6.967  0.1218  0.1695  0.0217
61453W        W 4506  12.230  28.059  27.374 -0.4183  0.1076  0.1959
61454W        W 4507  15.035  20.992  21.620 -0.1526 -0.0148 -0.2226
61455W        W 4508  14.502   3.581  10.091  0.1487 -0.2189  0.0398
61456W        W 4509  10.631  23.495  15.843 -0.0310  0.2181 -0.0353
61457W        W 4510  12.359  20.999  23.660 -0.0279  0.0415  0.1709
61458W        W 4511  26.731   8.349  20.741 -0.1152  0.0112  0.0295
61459W        W 4512  18.100  24.543  26.615 -0.1895  0.0769 -0.0669
61460W        W 4513   8.868  28.895  21.988 -0.0860 -0.1882  0.0951
61461W        W 4514   6.204  10.085  24.408  0.2170 -0.0787  0.0696
61462W        W 4515  34.262  13.527   3.114 -0.1027 -0.2335 -0.3481
61463W        W 4516   9.642  20.800  21.646  0.1444  0.5041  0.0831
61464W        W 4517  23.245  32.781   6.519  0.1725 -0.4732 -0.0920
61465W        W 4518   1.505  32.844   4.779  0.0672 -0.0485 -0.0241
61466W        W 4519  29.836   1.377   4.014 -0.2242  0.0521 -0.2224
61467W        W 4520  20.447  14.043   0.750 -0.3147  0.0727 -0.0266
61468W        W 4521  20.429   6.726   9.356 -0.2119  0.2421 -0.1881
61469W        W 4522   9.248  26.732  27.697  0.4267 -0.0242 -0.2066
61470W        W 4523  27.492   9.391  21.584 -0.0313 -0.1270 -0.1386
61471W        W 4524   8.129  30.424  16.360 -0.2683 -0.1105 -0.1083
61472W        W 4525   3.151  29.254  25.348  0.1152  0.1560  0.0455
61473W        W 4526  15.479  18.524  21.723 -0.0812 -0.2530  0.3322
61474W        W 4527  27.332  26.016   0.313 -0.1247  0.2791  0.1838
61475W        W 4528  34.435   4.240   4.903  0.0004  0.0998  0.0752
61476W        W 4529   2.339  26.543  13.702  0.0113 -0.0240  0.4838
61477W        W 4530  27.381  15.804  23.544 -0.3186  0.3839 -0.1696
61478W        W 4531  11.411  34.529   9.079  0.3394 -0.2795  0.3899
61479W        W 4532   9.892  28.916  17.799 -0.2433  0.1464  0.0703
61480W        W 4533   5.231  21.744   2.607 -0.2425  0.3450 -0.2419
61481W        W 4534   2.374  19.974   9.142 -0.1222 -0.0259 -0.1908
61482W        W 4535  21.130  17.800   8.835 -0.0573  0.2248  0.0754
61483W        W 4536  13.212  24.531   8.537 -0.1430 -0.1098 -0.1256
61484W        W 4537  30.354   5.738  25.928 -0.4679  0.0511  0.2099
61485W        W 4538  13.453  19.092   2.804  0.1233  0.2506  0.3864
61486W        W 4539   2.413   7.970   9.805  0.0665 -0.4058  0.0300
61487W        W 4540   2.491  21.285   4.811 -0.1566  0.0416 -0.4496
61488W        W 4541   2.368  29.798  25.431  0.0389 -0.0419  0.0520
61489W        W 4542   7.054  18.699   8.980  0.1909  0.2616 -0.1297
61490W        W 4543  30.083  21.448   3.607 -0.0496 -0.0404  0.2711
61491W        W 4544   1.105  20.461  26.507 -0.0692 -0.0407 -0.2383
61492W        W 4545  21.258  32.587   9.076 -0.3334 -0.0952  0.1035
61493W        W 4546  18.231  15.912  28.001  0.0179  0.0786  0.3201
61494W        W 4547  13.155  18.675  20.909 -0.2155 -0.2089  0.2046
61495W        W 4548  24.845  16.581   5.101  0.2639  0.4007  0.0346
61496W        W 4549   8.502  20.005   0.475  0.2185 -0.0991  0.3044
61497W        W 4550  16.043  20.871   6.895 -0.0017 -0.1892 -0.0944
61498W        W 4551  27.004  22.387   5.500 -0.3659  0.1268  0.0212
61499W        W 4552   2.145  17.167  23.620 -0.1514  0.0087 -0.1076
61500W        W 4553  10.322  18.638  27.824 -0.3548 -0.1042  0.0523
61501W        W 4554  12.040   3.387  22.854 -0.3463 -0.2160  0.0473
61502W        W 4555  15.670  20.830  24.356 -0.0524 -0.1390 -0.0494
61503W        W 4556  16.605  15.862  14.855  0.0395  0.0370 -0.2107
61504W        W 4557   7.996  18.900  21.897 -0.0142  0.1787  0.3028
61505W        W 4558  25.594  24.430  19.223 -0.1462  0.0309 -0.2059
61506W        W 4559  15.310  32.550   4.285 -0.2088  0.1880  0.2385
61507W        W 4560  30.185   8.693  24.244 -0.2471  0.4058  0.3001
61508W        W 4561  26.517  33.009  18.502  0.5444 -0.1676  0.1201
61509W        W 4562   6.698  31.025   6.059  0.0489 -0.3198  0.3465
61510W        W 4563   7.308  34.215   2.482 -0.2307 -0.1672 -0.0339
61511W        W 4564  19.685  14.104   4.566  0.2138 -0.2403  0.0161
61512W        W 4565  17.240  17.661  15.405  0.2817  0.0437 -0.1835
61513W        W 4566  13.542  20.724  18.623 -0.2351  0.0246 -0.4117
61514W        W 4567   9.572   2.709  16.194 -0.1167 -0.0548  0.0733
61515W        W 4568  21.221  24.177   4.072  0.1809  0.2023  0.2406
61516W        W 4569   5.009  14.612   4.500 -0.0141  0.1868  0.2706
61517W        W 4570  24.902  18.477   9.773  0.0414  0.1367 -0.1707
61518W        W 4571  12.209  23.491   0.656 -0.0096  0.2051  0.0713
61519W        W 4572   4.635  13.227   3.274  0.1610 -0.2599  0.1458
61520W        W 4573  14.850   0.494   9.587 -0.0167 -0.0907  0.2309
61521W        W 4574  11.369  20.008   6.395  0.2783  0.0834 -0.4212
61522W        W 4575   4.348  10.245  22.995 -0.0543 -0.2964  0.0601
61523W        W 4576  18.065  22.955   4.392  0.0301 -0.1103 -0.0680
61524W        W 4577  34.133  26.393   4.657 -0.2695 -0.2130  0.0321
61525W        W 4578   4.828  20.791  13.895 -0.1615 -0.0659 -0.0068
61526W        W 4579  29.498   9.331   5.860  0.1833  0.3433  0.0047
61527W        W 4580  15.010  18.688  28.948  0.3256  0.0893 -0.2235
61528W        W 4581  10.825   0.789   4.628 -0.1188  0.0775  0.0363
61529W        W 4582   6.356  29.871  14.597 -0.0272  0.1768 -0.1324
61530W        W 4583  17.597  23.307  26.295 -0.1018 -0.0769 -0.0900
61531W        W 4584  27.938  33.462   0.348 -0.1186  0.1693 -0.0301
61532W        W 4585   7.746   4.955   9.699 -0.3336  0.3012 -0.1408
61533W        W 4586  19.847  14.151   5.744 -0.3043  0.0136 -0.0370
61534W        W 4587  11.609  11.142  17.502 -0.0614 -0.1963 -0.3122
61535W        W 4588  20.179  24.266   3.224 -0.4436  0.0496 -0.2748
61536W        W 4589  18.209  21.196  26.958 -0.1461  0.2225  0.3004
61537W        W 4590  32.502  15.228   0.034  0.1501  0.2136  0.2024
61538W        W 4591  27.149   3.018  24.873  0.0081  0.4310  0.1628
61539W        W 4592  33.103  20.580   7.907  0.3348 -0.3221  0.1460
61540W        W 4593  30.350   6.100  25.584  0.1753  0.0493  0.0756
61541W        W 4594   4.991  32.620  15.024 -0.0485 -0.1391  0.2840
61542W        W 4595  22.137  29.187   6.428  0.1035 -0.1648 -0.0557
61543W        W 4596   7.879  23.719  17.239 -0.0989  0.2071  0.0134
61544W        W 4597   5.961  19.017  24.889 -0.3324 -0.1569  0.0329
61545W        W 4598  19.066  15.577   5.154  0.1126 -0.1668  0.0002
61546W        W 4599   1.301  17.689  26.283 -0.3538 -0.0197  0.1881
61547W        W 4600  13.437  13.125  19.110  0.0980  0.0446 -0.0024
61548W        W 4601  25.176  21.990   3.958  0.0216  0.1705  0.2871
61549W        W 4602  27.278   4.758   3.438  0.2368  0.2256 -0.2599
61550W        W 4603  22.468  23.215  19.265 -0.0091  0.1093 -0.1028
61551W        W 4604   2.605  33.959   3.268 -0.0216  0.0815  0.2309
61552W        W 4605   0.034  14.499   5.749 -0.1476 -0.2874 -0.0654
61553W        W 4606  12.440   5.431  18.397  0.3035  0.1921  0.1368
61554W        W 4607   0.901  30.659   1.548  0.2962 -0.1209  0.2410
61555W        W 4608   3.505  15.576   6.207  0.0082  0.0305 -0.0185
61556W        W 4609   0.198  20.021   7.444 -0.1481 -0.4034 -0.2438
61557W        W 4610  11.788  17.218  18.156 -0.0855 -0.1886  0.1569
61558W        W 4611   7.069   0.059  24.528  0.0063 -0.0094  0.2611
61559W        W 4612  11.845  13.880  10.497 -0.1636  0.0354  0.3173
61560W        W 4613   3.184  25.882  14.395 -0.3256  0.3278 -0.0920
61561W        W 4614  31.821  21.256   4.069 -0.0766  0.3378 -0.0748
61562W        W 4615  12.671  19.901   4.346 -0.0589 -0.0463  0.2989
61563W        W 4616  22.181  30.812   3.399 -0.1217  0.0865  0.2717
61564W        W 4617  14.861  25.640   7.786  0.0706  0.0537  0.0339
61565W        W 4618   4.936  23.822   8.800  0.1163  0.1131  0.1166
61566W        W 4619   7.824  14.681   3.009 -0.3545  0.0388  0.2402
61567W        W 4620  31.166  13.484   0.701 -0.1007 -0.1927  0.0105
61568W        W 4621  18.590   8.205   5.074  0.0817 -0.1462 -0.0518
61569W        W 4622  16.647  21.091   6.759  0.3215  0.2441  0.0181
61570W        W 4623   8.448  32.395  18.967  0.3231 -0.1446 -0.0561
61571W        W 4624  11.865  12.254  25.670  0.2057  0.3919  0.2491
61572W        W 4625  11.418  30.139   2.012 -0.0777  0.1721  0.1625
61573W        W 4626  11.910  22.303   8.927 -0.0306  0.2641  0.2617
61574W        W 4627   2.073  20.278   0.409 -0.1533  0.0514 -0.1364
61575W        W 4628  15.944  20.804   4.686  0.0883  0.0837  0.4508
61576W        W 4629  25.132  12.495   0.498 -0.0803 -0.1652 -0.0358
61577W        W 4630  10.775  13.339   6.758 -0.0814  0.0752  0.1307
61578W        W 4631  29.944   0.368   8.860  0.0467 -0.1186 -0.1024
61579W        W 4632   9.319  34.327  21.711 -0.1343  0.2093 -0.0808
61580W        W 4633   3.076  20.291   1.985  0.3068 -0.0877  0.0374
61581W        W 4634  18.819   4.548   5.951 -0.0373 -0.1766 -0.1535
61582W        W 4635  20.041  10.664   3.942  0.2064  0.0989  0.3333
61583W        W 4636  30.791  22.922   9.430 -0.2260 -0.0387  0.1443
61584W        W 4637   1.672  19.920   2.174  0.0896 -0.2173  0.2922
61585W        W 4638  33.024  26.165  15.771  0.0800 -0.0804  0.1212
61586W        W 4639  22.006  15.194   1.844 -0.1135 -0.0420 -0.1945
61587W        W 4640  12.018  19.589  14.857  0.1008  0.1200 -0.0684
61588W        W 4641  17.779  14.871  27.305 -0.2175 -0.1164 -0.2813
61589W        W 4642  18.134  22.165  20.633 -0.0900 -0.2266  0.2381
61590W        W 4643   3.324   5.067   1.352  0.1955  0.2810  0.1501
61591W        W 4644  17.117  32.604  27.776  0.0339  0.1218  0.2682
61592W        W 4645  16.939  19.101  13.870 -0.2289 -0.0300  0.2329
61593W        W 4646  24.209  24.786   6.746  0.0935  0.1332 -0.1326
61594W        W 4647   8.965  12.720  22.134  0.3244 -0.0116  0.0712
61595W        W 4648  12.721  12.566  24.217 -0.0617  0.0426  0.0328
61596W        W 4649  16.142  23.824  25.217 -0.1093  0.0391  0.1254
61597W        W 4650   2.792  26.325  18.384 -0.0227 -0.3658  0.2032
61598W        W 4651  22.492  21.583   6.712 -0.1019  0.1669  0.1574
61599W        W 4652  13.076  12.951   3.562  0.0948 -0.2525 -0.3351
61600W        W 4653  20.516   7.258   1.627  0.0011 -0.1019 -0.2502
61601W        W 4654   0.783  21.919   7.154  0.0956 -0.0845  0.4362
61602W        W 4655   3.232   9.166   5.006 -0.2191 -0.1490  0.3082
61603W        W 4656   8.889  19.737  19.498  0.1767 -0.1965 -0.0636
61604W        W 4657  10.888  22.889   2.342 -0.1375 -0.1418 -0.1014
61605W        W 4658  15.105  33.794  15.068  0.0382 -0.1127  0.2451
61606W        W 4659   9.990  29.440   8.491 -0.0629  0.0453  0.0024
61607W        W 4660   8.219  18.155   1.405 -0.0858 -0.1650 -0.2651
61608W        W 4661  12.750  19.762   0.231  0.2020 -0.0888  0.0227
61609W        W 4662  32.597  27.116  25.046  0.2842  0.1948 -0.1797
61610W        W 4663  31.912  24.624   3.617  0.0169 -0.0374 -0.0521
61611W        W 4664  17.220  14.411   0.959 -0.1320 -0.0270 -0.2951
61612W        W 4665  17.327   8.145   4.791 -0.0102 -0.0740  0.0586
61613W        W 4666   8.258  11.192  21.376  0.0193  0.0494 -0.0947
61614W        W 4667   4.753  25.266  23.348 -0.1754  0.0454 -0.1361
61615W        W 4668  10.363   2.126   3.550 -0.2018  0.1230  0.0420
61616W        W 4669   0.059  19.548   6.183  0.1473  0.0962 -0.2594
61617W        W 4670   3.410  23.883  23.099 -0.0656  0.2375 -0.0454
61618W        W 4671   7.729   9.447   0.766  0.1334  0.1134  0.1084
61619W        W 4672   1.608   6.627  28.624 -0.2911  0.0413 -0.1770
61620W        W 4673   5.642  26.632  25.166  0.0789  0.3746 -0.1659
61621W        W 4674  10.481  11.041  21.132  0.1723  0.0992 -0.1227
61622W        W 4675  17.676  24.137   2.974  0.1724 -0.1572  0.1865
61623W        W 4676  23.381  16.674   0.415 -0.0332 -0.2714 -0.2146
61624W        W 4677  13.450  31.091  23.452 -0.3219 -0.1038  0.2532
61625W        W 4678   7.257  16.141   2.797 -0.0003  0.0579 -0.0016
61626W        W 4679   5.383  19.018   3.717 -0.0905 -0.0243 -0.1227
61627W        W 4680  12.112  27.469  27.234  0.0834 -0.0533 -0.1662
61628W        W 4681   1.302  26.339  13.636  0.0727 -0.0949 -0.0374
61629W        W 4682  14.423  25.069  24.343 -0.0301  0.0001 -0.0238
61630W        W 4683  19.579  14.558  15.976 -0.2396 -0.2501 -0.1237
61631W        W 4684   2.927  33.590  28.543  0.4045 -0.3446  0.0409
61632W        W 4685  14.341  18.005  13.389  0.1395  0.3410 -0.0610
61633W        W 4686  14.431  10.427  25.093  0.0168  0.2634  0.0743
61634W        W 4687   0.776  16.826  20.458  0.3418  0.0721 -0.0188
61635W        W 4688  21.596   5.210   3.065 -0.1740  0.2109  0.4206
61636W        W 4689   4.319  16.407   3.881 -0.1961 -0.0289 -0.0109
61637W        W 4690  14.603   8.869   1.147 -0.0978  0.3014  0.3324
61638W        W 4691  28.167  21.575  25.114  0.0469  0.0040  0.0878
61639W        W 4692  13.752  26.348  10.047  0.0384  0.2834 -0.1713
61640W        W 4693   8.033  33.120  27.801  0.0251 -0.0144 -0.1823
61641W        W 4694  10.501  19.962  26.445 -0.0213  0.0222 -0.4273
61642W        W 4695  18.224  21.751  15.725  0.3943  0.2081  0.0003
61643W        W 4696  11.947  14.393  16.185 -0.3345  0.0147  0.1641
61644W        W 4697  29.795  26.896  14.641 -0.1426 -0.2212  0.0587
61645W        W 4698   4.642  26.710  25.313 -0.0121  0.0687 -0.1383
61646W        W 4699  11.107  28.857  20.425  0.0371 -0.2324 -0.0852
61647W        W 4700  23.483  10.915  18.576 -0.0915 -0.0047 -0.2763
61648W        W 4701   2.847  24.799  19.052 -0.1334  0.1057 -0.3465
61649W        W 4702  11.995  11.084  19.793  0.0722 -0.1282 -0.0164
61650W        W 4703   3.947  29.910  18.863  0.0288 -0.2930 -0.3516
61651W        W 4704   9.633   0.480  19.963  0.3709  0.3821 -0.0507
61652W        W 4705   3.428  26.893  14.554 -0.0419 -0.2020  0.3928
61653W        W 4706  12.907  21.024  21.889  0.1344 -0.0039  0.2587
61654W        W 4707  11.884  18.781  25.953  0.1648  0.0781 -0.1547
61655W        W 4708  10.900  28.072  18.232  0.0705  0.4639 -0.1006
61656W        W 4709  18.562  11.764  14.720 -0.1364 -0.0335 -0.6824
61657W        W 4710   6.085  16.668  19.840  0.0325 -0.2022  0.1496
61658W        W 4711  20.029  23.908  16.381  0.2923  0.0704 -0.0088
61659W        W 4712  31.373  25.637  18.786 -0.2748 -0.0680  0.1998
61660W        W 4713   5.186  19.334  16.121  0.0951  0.2864 -0.2541
61661W        W 4714  18.521  20.536  14.071 -0.1534 -0.0359 -0.1742
61662W        W 4715   9.995   2.719  27.432 -0.1086 -0.0275  0.0034
61663W        W 4716   4.503  31.533  15.391 -0.1332  0.1593  0.0045
61664W        W 4717  13.874  21.233  19.761  0.0016  0.2618 -0.1739
61665W        W 4718  10.838  15.839  23.151 -0.2691  0.0654 -0.1476
61666W        W 4719  15.971  18.047  14.267 -0.0338 -0.0736 -0.1957
61667W        W 4720  16.657  28.299  16.402 -0.1631  0.3924 -0.0144
61668W        W 4721  33.755  25.513  25.362 -0.3324  0.0570  0.1172
61669W        W 4722  21.326  26.087  26.115 -0.1085 -0.2161  0.1751
61670W        W 4723   1.409  23.561  28.037 -0.3164 -0.1044 -0.2621
61671W        W 4724  30.025  24.251  14.915  0.3297  0.0509 -0.0542
61672W        W 4725  25.958  23.818  14.887  0.0983  0.1509 -0.1893
61673W        W 4726   9.322  25.799  21.274  0.1037  0.0503  0.0603
61674W        W 4727   4.833  26.556  15.422  0.1982  0.0566 -0.4318
61675W        W 4728  13.426  20.522  28.828 -0.3461 -0.1885  0.0689
61676W        W 4729  15.858  30.627  14.027 -0.1359  0.0408 -0.1365
61677W        W 4730  19.103  30.333  20.469  0.0769  0.0291 -0.0188
61678W        W 4731  29.409  13.863  18.323 -0.1792  0.0892  0.0695
61679W        W 4732   1.939  16.475  14.576 -0.1690  0.0828 -0.1126
61680W        W 4733  17.183  29.729  21.584 -0.1150 -0.6195 -0.1293
61681W        W 4734   6.438  22.684  18.463  0.0086  0.1988  0.0285
61682W        W 4735  20.144  21.803  20.480 -0.0528  0.3126 -0.1406
61683W        W 4736   5.502  18.933  25.706 -0.2696  0.2704  0.0606
61684W        W 4737  17.906   0.775  26.555 -0.0124 -0.0578  0.1915
61685W        W 4738  12.266  32.877  19.670 -0.3001  0.0841  0.4775
61686W        W 4739  23.772  28.510  15.775 -0.4128  0.0515 -0.0311
61687W        W 4740  31.281  32.549  17.888 -0.1757 -0.2121 -0.0153
61688W        W 4741   0.205  27.292  18.842 -0.0522  0.1124 -0.1918
61689W        W 4742  19.765  27.973  17.906 -0.0574  0.0939 -0.1711
61690W        W 4743  33.782  23.282  15.617  0.0779  0.3996  0.0608
61691W        W 4744  23.727   9.100  21.476 -0.0140  0.1384  0.1452
61692W        W 4745  30.166  29.587  13.409 -0.1974  0.2378 -0.0359
61693W        W 4746  15.432  27.232  15.831  0.3196 -0.0971  0.2529
61694W        W 4747   8.246  15.014  24.816  0.0779 -0.1202 -0.0313
61695W        W 4748   6.512  14.053  19.448  0.0501 -0.1007 -0.1669
61696W        W 4749  11.646  18.255  15.613 -0.0622  0.0696  0.0785
61697W        W 4750  17.406  26.650  20.476 -0.3287 -0.1027 -0.0488
61698W        W 4751   5.837  14.933  17.963 -0.0003  0.0275 -0.3396
61699W        W 4752  21.559  21.298  19.635 -0.3573 -0.0291  0.1264
61700W        W 4753  10.894  17.478  17.104 -0.0626  0.1801  0.2668
61701W        W 4754   4.736  15.426  18.439 -0.1877  0.0062  0.1800
61702W        W 4755  24.662  16.011  19.233  0.1743  0.4140  0.0145
61703W        W 4756   8.466  18.525   3.157 -0.0614 -0.1992  0.0719
61704W        W 4757  25.965   4.577   6.212 -0.0324 -0.1818 -0.0122
61705W        W 4758  10.225   2.602  14.895 -0.0969  0.0679  0.2565
61706W        W 4759  33.464  24.005  14.632  0.0453  0.1853  0.0575
61707W        W 4760   6.375  22.151  26.136  0.1800  0.1786  0.2972
61708W        W 4761  13.557  25.516  21.828  0.2508  0.2321 -0.0600
61709W        W 4762   2.533  21.771  23.969  0.2582 -0.1130 -0.2656
61710W        W 4763  14.910  22.649  18.806  0.1125 -0.2682 -0.0092
61711W        W 4764  13.476   2.373  14.154  0.2840 -0.0323 -0.0446
61712W        W 4765   6.880   4.977  16.162  0.2016  0.2122  0.4730
61713W        W 4766   6.461  29.069  17.069  0.1785 -0.0813 -0.1197
61714W        W 4767   0.644  27.757  25.302 -0.1125 -0.0647 -0.0759
61715W        W 4768   6.066  14.667  14.549 -0.1700 -0.0591  0.0617
61716W        W 4769   5.872  33.891  26.787  0.1316 -0.0645 -0.0092
61717W        W 4770  30.933  34.340  28.896  0.2369 -0.1037  0.1681
61718W        W 4771   2.707  24.318  16.809 -0.0392 -0.2551 -0.0025
61719W        W 4772  31.782  29.273  13.076  0.2396 -0.1923 -0.3805
61720W        W 4773  21.796   8.774  16.732 -0.0596  0.1563 -0.1388
61721W        W 4774  33.106  12.872  13.951  0.0015 -0.0914  0.4964
61722W        W 4775  30.583  25.211  17.144  0.2015 -0.1248  0.0370
61723W        W 4776  34.178  32.176  20.145 -0.0138  0.0257 -0.1248
61724W        W 4777  11.621  16.137   0.235  0.0023 -0.0989  0.2930
61725W        W 4778   3.706   4.204  22.005 -0.3523 -0.1583  0.0394
61726W        W 4779  19.311  17.189  12.796  0.1367  0.5190 -0.0159
61727W        W 4780  12.967  14.283  21.943  0.2838 -0.3236  0.1269
61728W        W 4781  14.578   7.253  16.834 -0.2184 -0.0999 -0.0954
61729W        W 4782  11.749  10.398  26.255 -0.1505  0.0167  0.1281
61730W        W 4783  23.369  24.333  15.706  0.3806  0.1386 -0.0159
61731W        W 4784  17.914  24.636  23.204 -0.0264 -0.0206 -0.0600
61732W        W 4785  21.725  18.239  28.381 -0.4643 -0.3804  0.1477
61733W        W 4786  13.152  27.735  19.426 -0.1194 -0.0554  0.0517
61734W        W 4787  19.826  25.674  15.334 -0.1873  0.3368 -0.1120
61735W        W 4788  18.984  16.050  14.656 -0.0929 -0.2158 -0.5549
61736W        W 4789  27.877  22.821  24.445  0.0119 -0.0072 -0.0180
61737W        W 4790  13.654  30.809  19.327 -0.3138 -0.0864 -0.1175
61738W        W 4791   5.423  19.174   7.647  0.1242  0.4157  0.0613
61739W        W 4792  13.739  23.096  15.404  0.2918  0.0180  0.0030
61740W        W 4793   0.157  24.212  17.076 -0.4419 -0.1773 -0.0446
61741W        W 4794  32.984  23.840  24.386  0.1842 -0.0581  0.2359
61742W        W 4795   3.541   7.288  27.756 -0.0776 -0.3304  0.0645
61743W        W 4796  23.134  24.332  24.663 -0.1471  0.0778 -0.4265
61744W        W 4797  22.682   3.952  19.949  0.1391 -0.0235 -0.1741
61745W        W 4798  25.508  33.933  18.452 -0.2091  0.1082  0.0855
61746W        W 4799   8.965  10.486  17.705 -0.1212 -0.1025 -0.0600
61747W        W 4800  34.238  27.304  15.836  0.0022  0.0172 -0.1377
61748W        W 4801  10.395  26.615  16.721  0.0726 -0.0473  0.1957
61749W        W 4802  16.742   8.317  16.316 -0.1897  0.0141 -0.0571
61750W        W 4803   0.872  16.321   1.740  0.1569  0.2675  0.2512
61751W        W 4804  20.283  11.321   2.332 -0.2206  0.0372  0.2000
61752W        W 4805  32.923  19.898  14.348  0.0234 -0.3706  0.3900
61753W        W 4806   8.894  18.649   1.544  0.4106 -0.0635 -0.3047
61754W        W 4807   2.752  22.618  19.562 -0.3562 -0.0220 -0.2932
61755W        W 4808  23.648  13.256  26.563 -0.2454 -0.1703  0.0689
61756W        W 4809  17.359  31.820  16.528 -0.1213  0.0584 -0.3679
61757W        W 4810   3.380  32.626  15.304  0.1108  0.0257 -0.3500
61758W        W 4811  33.199  27.201  15.677  0.0399  0.0193  0.0086
61759W        W 4812   5.616  29.081  14.012  0.0342 -0.1171  0.0182
61760W        W 4813   7.280   8.017  21.839  0.1214  0.1591 -0.2115
61761W        W 4814   8.791  18.642  13.914  0.0930  0.1472 -0.1816
61762W        W 4815  11.762  23.341  18.583  0.1815  0.1486 -0.0049
61763W        W 4816   6.487  23.532  17.337  0.0205  0.1902  0.0971
61764W        W 4817  26.764  22.152  27.051 -0.0056 -0.0027 -0.2634
61765W        W 4818  15.871  27.946  16.223 -0.2141  0.0718 -0.0130
61766W        W 4819  17.325  29.376  20.196  0.1067 -0.1016 -0.0389
61767W        W 4820  23.645   1.650  15.488 -0.1988 -0.3284 -0.1822
61768W        W 4821   3.206   3.969  15.318  0.3798  0.0419 -0.0795
61769W        W 4822   9.034  28.864  16.791 -0.0866  0.0220  0.1195
61770W        W 4823  14.872  29.759  27.904 -0.0488  0.1474 -0.1090
61771W        W 4824  12.427  21.414  22.530  0.0120 -0.2673  0.1147
61772W        W 4825  33.144  19.434  18.060  0.0933  0.1396  0.2903
61773W        W 4826  17.106   2.144  19.589  0.1260  0.0790  0.1032
61774W        W 4827  18.145  21.201   1.301  0.1472  0.0881  0.0962
61775W        W 4828   8.413  22.760   1.176  0.0506  0.0351  0.0934
61776W        W 4829   8.149  25.573  17.617 -0.0052 -0.0296  0.0571
61777W        W 4830  29.973  27.139  17.657  0.0514 -0.4448 -0.1661
61778W        W 4831   1.823  26.757  18.116 -0.2682  0.0670  0.2072
61779W        W 4832  20.243  22.943  23.574 -0.1360  0.0980  0.0070
61780W        W 4833  20.472  21.948  16.192  0.2416 -0.2144 -0.0335
61781W        W 4834   8.374  19.535  16.872  0.1281 -0.1889 -0.2149
61782W        W 4835   3.474  26.291  27.150  0.0332 -0.2119  0.3040
61783W        W 4836  19.970  32.662  26.004  0.0373  0.0851 -0.2203
61784W        W 4837   3.865  27.426  16.007  0.2149  0.2802  0.2468
61785W        W 4838   9.599   7.211  26.018 -0.3035 -0.1925 -0.0351
61786W        W 4839   9.145  24.193  16.858 -0.0700 -0.1831 -0.2384
61787W        W 4840  17.455   8.727  21.296  0.6345  0.3203  0.0033
61788W        W 4841  18.769  24.345  15.372 -0.2241  0.0147  0.6415
61789W        W 4842   7.139  14.913  18.237  0.0443 -0.0944  0.1739
61790W        W 4843  14.371  25.759  29.058 -0.2367  0.1605 -0.1722
61791W        W 4844  26.086  24.988  25.848  0.1515 -0.2208  0.2086
61792W        W 4845  14.338  13.114  17.933  0.2084  0.1375 -0.1249
61793W        W 4846  23.968  17.440  17.251 -0.0007 -0.0956 -0.1584
61794W        W 4847  26.967  34.274  20.862  0.1684  0.0104 -0.0697
61795W        W 4848  22.808  27.477  19.344 -0.0356 -0.1667 -0.1032
61796W        W 4849  16.539  11.556  14.742  0.0309  0.0923  0.2625
61797W        W 4850  27.353  32.620  14.726 -0.2509 -0.0757  0.0338
61798W        W 4851  34.419  25.209  18.778  0.0635 -0.0886  0.0833
61799W        W 4852  29.096  30.828  17.893  0.1472 -0.0186  0.0406
61800W        W 4853   8.713  28.578   3.423 -0.0789 -0.1269  0.1488
61801W        W 4854  23.292   4.884  20.482 -0.3724 -0.3378  0.0629
61802W        W 4855  31.770  18.275  27.114 -0.0652 -0.1197  0.2391
61803W        W 4856  29.523  32.070  15.605  0.0802 -0.0665  0.0068
61804W        W 4857  15.506   7.368   3.060  0.1285 -0.1348  0.2186
61805W        W 4858  16.600   0.929  17.556 -0.1859  0.1449 -0.1064
61806W        W 4859  17.114   8.923  14.671  0.1413 -0.0607 -0.0273
61807W        W 4860  10.509  18.532  19.007 -0.1360  0.0256  0.2038
61808W        W 4861   6.947  23.742   7.189 -0.3367  0.4314  0.0900
61809W        W 4862   7.912  33.080  17.277 -0.0959 -0.0111  0.3048
61810W        W 4863  18.518  32.711  19.580  0.1625 -0.4301 -0.0148
61811W        W 4864   9.383  17.991  17.833  0.0702 -0.1722 -0.0351
61812W        W 4865  12.299  26.768   9.430 -0.0395 -0.3920 -0.3023
61813W        W 4866   7.339  26.372  18.423  0.1122  0.1488 -0.0855
61814W        W 4867  21.515  30.400  26.147  0.3166  0.0216  0.1023
61815W        W 4868   2.599  29.602  23.778 -0.0322 -0.0889  0.0258
61816W        W 4869   8.307  33.459  28.852  0.0357 -0.1339 -0.0040
61817W        W 4870   8.352  25.352  13.990 -0.0413 -0.0631 -0.1041
61818W        W 4871  16.393  32.997  16.717 -0.0283  0.1670 -0.2030
61819W        W 4872  33.601  22.465  15.310 -0.2672 -0.2715 -0.0044
61820W        W 4873   3.767  18.426  22.119 -0.0835  0.1720 -0.1660
61821W        W 4874  34.548  20.597  15.286  0.0499 -0.3540 -0.0412
61822W        W 4875   9.529   5.427  19.381 -0.0171 -0.0620 -0.3025
61823W        W 4876   9.454  22.109   5.430  0.1177  0.0593  0.1103
61824W        W 4877   8.173  25.708   6.349  0.1387 -0.1453  0.1632
61825W        W 4878  10.755  22.891  17.148  0.0361 -0.0761 -0.2307
61826W        W 4879   7.896  18.184  28.502  0.0856  0.1976 -0.1208
61827W        W 4880  28.759   1.524  18.348  0.0483 -0.1200 -0.0024
61828W        W 4881   9.789   3.898   0.344 -0.0359 -0.0418 -0.0799
61829W        W 4882   1.615  10.102  27.558  0.2373 -0.0630 -0.3839
61830W        W 4883  31.827  29.351  19.789  0.2493 -0.4083 -0.5044
61831W        W 4884  12.332  16.873  18.872  0.1795 -0.2897  0.3828
61832W        W 4885  14.651  29.698  23.168 -0.1392 -0.2099 -0.1051
61833W        W 4886  12.875  20.161  18.120  0.3490 -0.0868  0.3520
61834W        W 4887  16.468  33.388  18.370  0.2962  0.3194 -0.2718
61835W        W 4888  26.882   2.239   0.070  0.2927  0.1856 -0.0591
61836W        W 4889  33.959   5.626  25.300 -0.1389  0.0450  0.0050
61837W        W 4890  21.885  31.278  22.554  0.2098 -0.1952 -0.1494
61838W        W 4891   9.608  25.633  18.947 -0.0482  0.1091  0.2768
61839W        W 4892  10.637  33.310  17.808  0.1763 -0.0678 -0.0372
61840W        W 4893  19.798  25.255  18.573 -0.3432 -0.0203  0.4234
61841W        W 4894   8.352  15.777   5.929  0.2156  0.2443 -0.0194
61842W        W 4895   9.687  24.938  24.437  0.2777 -0.0353  0.2294
61843W        W 4896  20.926   1.622  16.805  0.0741 -0.0600 -0.2167
61844W        W 4897  27.126  27.920  24.702  0.0460 -0.2508  0.2791
61845W        W 4898  14.470  13.536  21.497  0.1435  0.2089  0.4323
61846W        W 4899  14.678  17.293  23.330 -0.1432 -0.3370 -0.0030
61847W        W 4900  12.923  17.344  21.163 -0.1916 -0.1175 -0.1167
61848W        W 4901  11.863  30.086  20.383  0.1404  0.1775  0.2192
61849W        W 4902  19.393  25.826  19.394 -0.2677  0.0208  0.0813
61850W        W 4903  13.193  15.376  23.023 -0.1984 -0.2717 -0.1748
61851W        W 4904  15.852  11.865  13.658 -0.2414  0.0989 -0.3129
61852W        W 4905   3.327  17.675  26.290  0.0637 -0.2245 -0.2240
61853W        W 4906  13.672  32.109  18.749 -0.0704  0.0939 -0.2700
61854W        W 4907  12.974   6.276  15.845 -0.0611 -0.1304 -0.1642
61855W        W 4908  14.303  20.218  21.852 -0.1809  0.0252 -0.1987
61856W        W 4909  18.390  33.409  21.693  0.0203 -0.2881  0.1872
61857W        W 4910  13.523  20.210  24.200 -0.1506 -0.0048 -0.0368
61858W        W 4911  18.650  13.553  15.721 -0.0615  0.0249  0.2525
61859W        W 4912   9.423  15.398  21.274 -0.4035 -0.0051  0.1707
61860W        W 4913  26.755  18.051  17.316  0.4303  0.1883  0.1946
61861W        W 4914  23.634   8.414  15.957  0.0290 -0.1927 -0.0271
61862W        W 4915   8.233  22.879  27.275  0.2423 -0.1274  0.2838
61863W        W 4916   2.358  25.380  20.223 -0.2356 -0.0498  0.2959
61864W        W 4917  11.554  11.308  24.990  0.0450 -0.2411  0.2088
61865W        W 4918  12.675  31.097  21.534  0.0951 -0.0626  0.0240
61866W        W 4919  20.963  29.942  20.718 -0.3234 -0.0562 -0.0813
61867W        W 4920  18.654  11.318  22.568  0.1721  0.3236  0.0341
61868W        W 4921  33.749  30.309  23.367 -0.2210 -0.4461  0.1544
61869W        W 4922  30.308  22.092   1.917 -0.1108  0.1940 -0.1780
61870W        W 4923  27.648   6.125  18.469 -0.3251 -0.0290  0.2276
61871W        W 4924   6.053   7.971  16.821  0.0025 -0.1186 -0.1308
61872W        W 4925  19.028  32.078  14.224 -0.0254  0.0022  0.0951
61873W        W 4926   0.021  17.101   5.048  0.1938 -0.0493  0.0528
61874W        W 4927  19.633   2.370  23.100  0.3127 -0.2886  0.2233
61875W        W 4928   8.881  32.351  19.560 -0.0031 -0.0259  0.1840
61876W        W 4929  17.240  27.194  22.996 -0.2106  0.0836  0.2474
61877W        W 4930  15.958   0.425   0.856  0.0097  0.1222 -0.0799
61878W        W 4931  24.880  20.562  18.177 -0.2230  0.0800  0.0081
61879W        W 4932   8.287  24.025  13.715  0.5992 -0.0731 -0.0103
61880W        W 4933  26.657  19.671   0.684  0.0109  0.1515 -0.1339
61881W        W 4934   9.997   4.384  24.798  0.2041 -0.1362  0.2100
61882W        W 4935  25.662   2.983  19.451 -0.1597 -0.0672 -0.0667
61883W        W 4936  19.099   2.035   1.661  0.4267 -0.2373 -0.3772
61884W        W 4937  28.282  17.320  20.046 -0.1799 -0.2333  0.0547
61885W        W 4938  28.609  20.679  18.753  0.0668  0.1852  0.0571
61886W        W 4939   4.175   6.403  28.136  0.0626  0.2100  0.0543
61887W        W 4940   6.271  23.543  23.169  0.3034  0.0824 -0.0266
61888W        W 4941  23.216  24.887  23.860 -0.2470 -0.0512 -0.2097
61889W        W 4942  12.557  27.846  26.531 -0.2849 -0.1934  0.1263
61890W        W 4943  12.522  21.589  17.193 -0.0781 -0.0608  0.0749
61891W        W 4944  16.686  27.914  17.497  0.1481  0.4161  0.0083
61892W        W 4945   8.438  17.076  15.025  0.0289  0.0338 -0.0254
61893W        W 4946   7.315  32.438  22.209  0.1228 -0.0998  0.1082
61894W        W 4947  24.615   8.277   5.236 -0.1866  0.5065  0.1061
61895W        W 4948   5.497  20.404  24.634 -0.1410 -0.7423 -0.1217
61896W        W 4949  32.046  15.477  18.701 -0.2437 -0.0995 -0.1662
61897W        W 4950   5.677  16.965   2.046  0.1320  0.0788 -0.1737
61898W        W 4951  19.423  10.258  18.158  0.0055  0.1497 -0.1406
61899W        W 4952   3.864  17.262  14.770  0.0513  0.2379  0.1847
61900W        W 4953  15.041   0.217  22.818  0.0598  0.0433 -0.2441
61901W        W 4954   2.967  32.972  13.921  0.1864  0.1297  0.0587
61902W        W 4955   4.416  24.844  18.073 -0.2058  0.0479  0.1835
61903W        W 4956   1.388  18.608  14.019 -0.3028 -0.1340  0.2815
61904W        W 4957   4.475  23.215  16.139 -0.2910 -0.0094  0.1147
61905W        W 4958  14.127  29.258  14.279  0.1603 -0.0983  0.0730
61906W        W 4959  15.214  20.557   0.082  0.0041  0.0685 -0.0278
61907W        W 4960   4.868  11.929  19.914 -0.0918 -0.2402 -0.3433
61908W        W 4961   8.298   8.014  24.911 -0.0886  0.0998  0.0690
61909W        W 4962  21.311  25.655  21.038  0.1141 -0.1179  0.3464
61910W        W 4963  31.389  33.466  16.283 -0.1148 -0.1465  0.2265
61911W        W 4964  28.675  31.682  14.190  0.0647 -0.0354 -0.2415
61912W        W 4965  33.030  25.493   4.413 -0.1035 -0.1017 -0.1363
61913W        W 4966  22.385   4.938  20.024  0.1247  0.1105  0.2525
61914W        W 4967   1.723   9.608  18.350 -0.0561 -0.1924 -0.0412
61915W        W 4968   8.220  16.772  18.859 -0.2144  0.2371 -0.1081
61916W        W 4969   1.765  18.653   1.097  0.1247 -0.4483  0.1572
61917W        W 4970   8.941  26.975  20.937  0.0651 -0.0250  0.0043
61918W        W 4971   1.304  17.720  20.882  0.1604  0.0476 -0.1939
61919W        W 4972  11.825  17.064  15.508  0.2948  0.2607 -0.0397
61920W        W 4973  15.419  22.033  22.805 -0.0826 -0.1345  0.0564
61921W        W 4974  20.544  25.518  20.002  0.1055 -0.0507  0.0975
61922W        W 4975  11.430  23.314  16.133  0.0132 -0.2256 -0.0574
61923W        W 4976  18.294  27.925  14.543  0.0159 -0.2208  0.0368
61924W        W 4977   3.653  23.223  19.985 -0.2822  0.0622  0.0348
61925W        W 4978  20.687  19.596   9.039  0.2618  0.2440  0.2419
61926W        W 4979  12.971  18.589   2.227  0.2974  0.1782 -0.2534
61927W        W 4980   7.800  23.037  22.000 -0.0849  0.3260  0.0615
61928W        W 4981  28.614   9.171  28.126 -0.0697 -0.0608  0.1594
61929W        W 4982   9.301  30.159  26.883  0.1705  0.2588  0.0589
61930W        W 4983  28.730  27.567  19.080  0.3570  0.0494  0.4203
61931W        W 4984  30.480  19.903   3.979 -0.0360  0.0630 -0.0383
61932W        W 4985  25.122  22.629  22.033 -0.2886 -0.1252 -0.1024
61933W        W 4986  21.468  17.429  13.672 -0.3764 -0.0795 -0.1186
61934W        W 4987   4.086  33.968  14.257  0.1487  0.1437  0.3253
61935W        W 4988  22.212  34.257  18.096  0.0281  0.1198  0.0697
61936W        W 4989  14.103   2.285  25.104 -0.0758 -0.0314  0.1570
61937W        W 4990  19.965  12.864   3.824 -0.2463 -0.1672 -0.1366
61938W        W 4991  22.421  27.895  19.859  0.1491  0.1562  0.0622
61939W        W 4992  22.314  22.618  21.807  0.2512 -0.0689  0.0401
61940W        W 4993   7.469  14.063  17.785  0.1028  0.1333 -0.0528
61941W        W 4994   2.408  25.391  14.341 -0.0519 -0.2234 -0.2693
61942W        W 4995  16.855  24.598  23.532  0.0867  0.1215 -0.0557
61943W        W 4996  12.807   8.299  20.933 -0.0872  0.3028  0.0403
61944W        W 4997  10.368  31.126  17.798 -0.2878 -0.2912 -0.0788
61945W        W 4998  15.135  32.879   7.010 -0.0914  0.2922  0.1610
61946W        W 4999  22.586  26.476  24.747 -0.1999  0.2062  0.0981
61947W        W 5000  17.035  25.777  27.825 -0.2177  0.2671 -0.0054
61948W        W 5001  31.636  16.566  19.720 -0.3805 -0.0402 -0.0362
61949W        W 5002  14.480  19.839  14.140 -0.1276 -0.2215  0.0828
61950W        W 5003  17.295  33.976  15.390 -0.1868 -0.1259 -0.3080
61951W        W 5004  24.905  18.447  19.984  0.0966 -0.3872 -0.1044
61952W        W 5005  11.192   1.800  18.073  0.0107  0.0113  0.0043
61953W        W 5006  33.807  10.905  25.493  0.2580 -0.3719 -0.1169
61954W        W 5007  16.038   1.396  16.686 -0.1571 -0.2338 -0.1698
61955W        W 5008  23.084  32.567  19.892  0.0071 -0.0944 -0.0294
61956W        W 5009   9.673  20.787  18.301 -0.2461 -0.1457  0.3724
61957W        W 5010   7.756  22.855  18.477 -0.1167  0.2001  0.0173
61958W        W 5011  25.904  18.096  15.995 -0.0406 -0.2558  0.0708
61959W        W 5012  16.203  28.646  20.920 -0.0498 -0.2966  0.0440
61960W        W 5013   0.722  17.407  14.333  0.0749  0.1843  0.2301
61961W        W 5014  15.993  11.468  18.962  0.1650 -0.3907  0.2663
61962W        W 5015   5.886  16.664  21.819 -0.0657 -0.0945  0.1871
61963W        W 5016   6.124  11.276  27.094 -0.0481 -0.1002  0.0605
61964W        W 5017   3.416  26.623  17.382 -0.3019 -0.3294 -0.1207
61965W        W 5018   7.534   5.723  25.078 -0.3240  0.0718 -0.2360
61966W        W 5019  31.482   3.264  28.075  0.1511  0.2807  0.1324
61967W        W 5020   6.524  22.395  22.400 -0.0192  0.0700  0.1933
61968W        W 5021   9.013  24.442  28.311 -0.2070  0.1013 -0.0330
61969W        W 5022   7.229  13.936   3.502  0.1537 -0.1959 -0.2969
61970W        W 5023   4.150  10.751  19.647  0.1646 -0.3117 -0.0527
61971W        W 5024  17.874  28.253  16.799 -0.2088 -0.1009  0.1986
61972W        W 5025  33.783  24.738  20.912  0.2480 -0.1689  0.0223
61973W        W 5026   6.920  20.670   4.518  0.1843  0.0962 -0.0184
61974W        W 5027  11.578   2.373  15.491 -0.3842  0.1102  0.3337
61975W        W 5028  14.023  20.154  21.422 -0.0668 -0.0421 -0.1970
61976W        W 5029   6.394  20.890  23.814 -0.2255 -0.1427  0.0710
61977W        W 5030  14.308  23.789  23.584 -0.1217  0.2609  0.1053
61978W        W 5031   5.172  30.696  19.186  0.0288  0.0011  0.0156
61979W        W 5032  20.717  21.299  15.678  0.0508  0.0523  0.1262
61980W        W 5033   6.670  12.930  17.330  0.0719  0.2454 -0.0267
61981W        W 5034   8.073  20.129  24.695 -0.0662  0.0771 -0.0043
61982W        W 5035  12.394  26.890  14.388  0.0283  0.3878 -0.2035
61983W        W 5036  18.545   9.113  19.965 -0.1178 -0.0987  0.0320
61984W        W 5037  24.796  22.218  29.065  0.1406 -0.1828  0.2907
61985W        W 5038  24.108  10.911  14.635 -0.0021 -0.4986  0.1754
61986W        W 5039   6.593   3.178  26.346  0.1070  0.2835  0.1162
61987W        W 5040   5.518  10.753   1.023  0.1510  0.1089  0.0202
61988W        W 5041  32.683  27.901   1.263  0.1051 -0.2070  0.0247
61989W        W 5042  31.896  22.305  21.262 -0.1747  0.1868 -0.0719
61990W        W 5043  24.052  18.641  27.465 -0.2361  0.0057  0.2361
61991W        W 5044  13.339  20.953  15.069 -0.1730  0.2903  0.3104
61992W        W 5045  23.118  15.520  20.776  0.0498  0.2464 -0.2426
61993W        W 5046  11.762   7.509  17.644 -0.0264  0.4436 -0.0857
61994W        W 5047   1.389  32.760  25.887 -0.2553 -0.0124  0.0981
61995W        W 5048   4.409  31.874   3.500 -0.1066 -0.1170  0.0873
61996W        W 5049  25.631  18.241  18.659  0.4357 -0.2675 -0.1873
61997W        W 5050  10.413  26.322  15.126  0.1089 -0.0526 -0.2889
61998W        W 5051   3.520  32.506  21.741 -0.0551  0.0029 -0.2241
61999W        W 5052   4.195  16.311  19.115  0.0802 -0.2316 -0.0668
62000W        W 5053  13.985  29.456  22.328  0.1382 -0.2724 -0.0657
62001W        W 5054  19.187  13.805  15.941  0.1832  0.1179  0.0629
62002W        W 5055  18.241  27.335  14.495 -0.2194 -0.3428 -0.4055
62003W        W 5056  16.068   5.229  15.415 -0.0214  0.0794 -0.0499
62004W        W 5057  29.818  21.911  23.190 -0.1618  0.0230  0.1998
62005W        W 5058   6.503  13.065  15.669 -0.0942 -0.2144 -0.1007
62006W        W 5059   1.936   8.068  27.841  0.0887  0.1318  0.0027
62007W        W 5060  14.360  23.505  16.508  0.2174  0.0582  0.1925
62008W        W 5061  12.845  16.944  18.931  0.4943 -0.1077  0.5140
62009W        W 5062   6.551  21.759  19.773 -0.2086  0.2693 -0.2567
62010W        W 5063  33.664   9.634  23.464 -0.2147 -0.1664  0.2024
62011W        W 5064   7.915  32.446  15.892  0.3120  0.2324  0.1364
62012W        W 5065  15.364  33.407  26.322 -0.3978  0.1897 -0.1685
62013W        W 5066  15.415  11.974  18.338  0.1312 -0.4901 -0.0424
62014W        W 5067  10.454   2.252  22.279 -0.1501  0.0496  0.2706
62015W        W 5068  32.921  22.368  18.925  0.3914  0.0697 -0.1346
62016W        W 5069  24.872  15.050  19.058  0.1440  0.0822  0.2929
62017W        W 5070   4.747  15.582  20.896 -0.3086  0.1849  0.0733
62018W        W 5071   8.479  18.696  17.016 -0.0774 -0.2743  0.3009
62019W        W 5072   6.768   9.389  15.749 -0.1365  0.2035 -0.0224
62020W        W 5073  18.371   5.127  15.232 -0.1068  0.0789  0.3492
62021W        W 5074   8.988  11.629  15.811 -0.0201 -0.3432 -0.0044
62022W        W 5075   2.085   2.711  22.266  0.1365 -0.1241  0.1130
62023W        W 5076  13.996  24.923  28.991 -0.0495  0.1692  0.4282
62024W        W 5077  10.578  24.607  25.750  0.1579  0.0489  0.0580
62025W        W 5078   3.858  22.574  18.269  0.1122  0.0594  0.3699
62026W        W 5079  17.216  17.592  13.492 -0.0436 -0.0896  0.2895
62027W        W 5080  32.764  25.992  23.167 -0.2163  0.1079  0.0794
62028W        W 5081  10.776  33.520  18.952 -0.0534 -0.2816 -0.2505
62029W        W 5082  26.108  25.930  18.085 -0.3216  0.1369  0.3097
62030W        W 5083  30.656  17.364   3.258 -0.0150 -0.1815  0.1471
62031W        W 5084  13.420  29.697  21.035  0.0710 -0.1583 -0.0645
62032W        W 5085  33.837  21.016  22.506 -0.0814 -0.0055  0.3857
62033W        W 5086  17.417  21.687  16.479 -0.1151  0.0706  0.1723
62034W        W 5087  11.474  22.277  14.606  0.1825  0.1618 -0.0609
62035W        W 5088  27.157  22.029  22.631  0.2204 -0.1964 -0.0044
62036W        W 5089  11.844  19.647   6.381 -0.2238  0.3963 -0.1576
62037W        W 5090  24.919   0.863  16.860  0.0886 -0.2748  0.4217
62038W        W 5091  13.013   4.554  23.198 -0.2745  0.0701 -0.0149
62039W        W 5092  11.293  21.176   8.900  0.1850  0.1043 -0.0371
62040W        W 5093  17.968  18.759  14.194  0.1965 -0.3263  0.3400
62041W        W 5094   1.606  24.292  28.879  0.0877 -0.0291  0.1317
62042W        W 5095  14.120  16.547  23.286 -0.0039  0.1357 -0.0245
62043W        W 5096  30.435  11.748  15.020 -0.0854  0.1484 -0.2252
62044W        W 5097  19.440  15.255  13.628 -0.1904 -0.1742  0.3462
62045W        W 5098  18.199  19.902  22.729  0.1414  0.0597 -0.1442
62046W        W 5099  14.658  33.217  20.182  0.1384 -0.2828  0.4440
62047W        W 5100  31.639  28.492  19.808 -0.0345 -0.3009  0.0649
62048W        W 5101  15.472  12.348  24.574  0.1118 -0.1934  0.0697
62049W        W 5102   6.943  24.503  23.112 -0.0465 -0.4010  0.1648
62050W        W 5103  11.689   4.395  20.929  0.0407  0.0447  0.0214
62051W        W 5104  14.145  12.115  20.933 -0.1477  0.0472  0.0298
62052W        W 5105  18.892  30.214   7.709  0.0089  0.2424  0.1243
62053W        W 5106   9.286  29.834  16.581  0.0541  0.0181  0.0658
62054W        W 5107  24.697  19.617  20.291 -0.3270  0.3248  0.1027
62055W        W 5108   9.766  26.544   1.457  0.1068 -0.0912  0.1603
62056W        W 5109   8.239  18.823   8.907 -0.3103  0.1310 -0.1310
62057W        W 5110  16.810  13.698  16.482 -0.3951  0.0206  0.2146
62058W        W 5111   8.176  30.853  24.814 -0.0825 -0.0185 -0.1822
62059W        W 5112  14.137  10.917  26.589 -0.1382  0.1770  0.1274
62060W        W 5113  10.325  26.629  21.835 -0.0502 -0.0811 -0.2918
62061W        W 5114   9.653  30.947  26.683  0.0954  0.0729  0.2377
62062W        W 5115  30.007  18.040  20.821 -0.1535 -0.0469 -0.1076
62063W        W 5116  10.092   6.134  24.230  0.2196  0.0239  0.0439
62064W        W 5117   3.122  17.751  25.213  0.0866 -0.0291  0.0328
62065W        W 5118   9.448  29.773  17.464 -0.1009 -0.1289 -0.3332
62066W        W 5119  13.556  26.891  26.297  0.0087  0.0407  0.1654
62067W        W 5120   4.290  13.611  15.814  0.1087 -0.0895 -0.1082
62068W        W 5121  11.739  24.044  14.973 -0.0268 -0.0598  0.2465
62069W        W 5122  10.035  21.945  13.562 -0.1411 -0.0426 -0.2229
62070W        W 5123   7.282  21.976  26.115 -0.1683 -0.1402  0.2331
62071W        W 5124   7.126  19.918  21.060  0.3109 -0.1387 -0.0797
62072W        W 5125  17.507  24.196  14.766  0.1095  0.2765 -0.0599
62073W        W 5126   1.031  32.101  14.522 -0.2868  0.2736 -0.1197
62074W        W 5127  12.818  25.462  21.058  0.0173  0.0961 -0.1622
62075W        W 5128   4.292  12.492  27.089  0.2382  0.1066 -0.2440
62076W        W 5129   7.757   8.308   1.240 -0.1211 -0.1322 -0.2372
62077W        W 5130  17.308  21.676  17.509 -0.0700  0.0413  0.0439
62078W        W 5131  23.931   3.607   0.574  0.1990 -0.1081  0.0887
62079W        W 5132   3.460  32.704  16.446 -0.1976 -0.4273 -0.0105
62080W        W 5133   9.601  22.486   6.782  0.1455  0.1801  0.0729
62081W        W 5134  10.702  34.343  15.801 -0.1891 -0.0660 -0.1400
62082W        W 5135  23.164   5.095  27.229  0.2322  0.3534  0.0787
62083W        W 5136   6.948  23.515  14.271 -0.0866  0.1575 -0.1346
62084W        W 5137  14.992  29.169  28.840  0.0247 -0.4035  0.1055
62085W        W 5138  24.900  26.470  28.199  0.0111 -0.1045  0.2112
62086W        W 5139  33.991  24.908  21.617 -0.1520  0.0085 -0.1984
62087W        W 5140  24.825   1.553  17.725  0.1739  0.0710  0.3687
62088W        W 5141  19.703  33.890   1.419 -0.2079 -0.0719 -0.3263
62089W        W 5142   5.467  23.028   3.193  0.0371 -0.0051  0.1056
62090W        W 5143  16.528  24.446  17.398  0.0695 -0.4593  0.1756
62091W        W 5144  24.933   3.296  20.763 -0.1285  0.1219  0.0158
62092W        W 5145  30.170  27.362   0.707  0.0481  0.1192  0.2939
62093W        W 5146   6.164  27.805  20.859  0.0257  0.1094  0.2268
62094W        W 5147  29.593  15.453  19.740 -0.1039 -0.0215  0.1069
62095W        W 5148  25.017  13.981  27.782 -0.5658  0.1975  0.0602
62096W        W 5149  33.961  17.865   1.006 -0.1563  0.1967  0.0953
62097W        W 5150  31.108  29.682  14.294  0.0466  0.2187 -0.2043
62098W        W 5151   0.962   6.205  17.394 -0.2702 -0.1617 -0.2129
62099W        W 5152   7.428  21.590  28.966  0.2648 -0.0310  0.0371
62100W        W 5153  12.551  13.262  24.052 -0.3756  0.0528  0.1631
62101W        W 5154  22.365   0.981  14.653 -0.1696  0.1341  0.0621
62102W        W 5155  24.762  17.712  26.528 -0.2576  0.3995 -0.3263
62103W        W 5156   6.798  17.823   2.554 -0.1270 -0.2318  0.1407
62104W        W 5157  15.056   7.520   9.022 -0.1480  0.2871  0.0674
62105W        W 5158   8.686  15.839  23.794 -0.0958  0.0912  0.0236
62106W        W 5159   4.410  21.667  28.088 -0.2143 -0.0061 -0.2072
62107W        W 5160  34.446   5.162  23.068 -0.1302 -0.2994 -0.2380
62108W        W 5161   5.113   8.636  17.703 -0.1771 -0.3161  0.2073
62109W        W 5162   8.621   0.134  23.880 -0.0940 -0.3117 -0.3540
62110W        W 5163   5.679  30.551   1.122 -0.1504  0.0853  0.0635
62111W        W 5164   4.505  19.613  26.504  0.1497 -0.0121  0.0479
62112W        W 5165  24.523  17.266  18.079 -0.2710 -0.2818  0.0606
62113W        W 5166  26.167  27.571  20.600 -0.0439  0.1835  0.0612
62114W        W 5167  18.026  11.966  20.281 -0.2127 -0.2150  0.0815
62115W        W 5168  14.756  25.991  17.044 -0.4161 -0.4087 -0.0137
62116W        W 5169   3.134  18.161  24.576 -0.3063  0.0801 -0.1432
62117W        W 5170  31.882  12.629  20.638 -0.3433 -0.2711 -0.0651
62118W        W 5171  24.341  22.246  14.575  0.1454  0.0393  0.2149
62119W        W 5172   5.571  28.529   5.042  0.0014 -0.0923  0.1111
62120W        W 5173  14.731  19.883  22.879 -0.0590  0.1208  0.3309
62121W        W 5174   0.400  12.924   8.066  0.0086 -0.2402 -0.1200
62122W        W 5175  10.079  24.346  14.020 -0.1810 -0.1125  0.4385
62123W        W 5176  19.790  20.902  22.482  0.3204  0.4050 -0.0612
62124W        W 5177  13.823  29.104   1.503 -0.1993 -0.0618  0.0392
62125W        W 5178  12.686  22.751  22.226 -0.0519 -0.1866 -0.1717
62126W        W 5179  13.630  22.349  17.684 -0.1780 -0.0608 -0.1970
62127W        W 5180   0.244  14.844  18.993  0.0233  0.0100  0.0036
62128W        W 5181  26.279  10.268  21.378 -0.0290  0.0640  0.1143
62129W        W 5182  30.356  15.485  24.077 -0.1633 -0.2745  0.0479
62130W        W 5183  17.697  23.553  22.380 -0.0164 -0.4686 -0.1231
62131W        W 5184  29.826  26.032  26.479 -0.1869 -0.1115 -0.1975
62132W        W 5185  17.179  17.115  12.748  0.1388 -0.6420  0.0798
62133W        W 5186  13.072  16.539  20.005 -0.0563  0.3869  0.1627
62134W        W 5187  10.392  24.592  18.387 -0.1240  0.2477  0.1055
62135W        W 5188  34.088  20.987   3.943 -0.0426  0.0299 -0.4386
62136W        W 5189   1.612   3.102  16.008 -0.0441  0.4667 -0.1898
62137W        W 5190  24.202   7.357   1.782 -0.0389 -0.1058 -0.1546
62138W        W 5191  24.138  28.259  17.616  0.3038 -0.2253 -0.0407
62139W        W 5192  11.389  19.983  18.120 -0.3990  0.1078 -0.3196
62140W        W 5193  12.334  26.596  19.304 -0.0215 -0.0580 -0.0111
62141W        W 5194  13.982   6.370  21.815 -0.2785 -0.0420  0.0675
62142W        W 5195  11.810  23.168  24.566  0.2123  0.1005 -0.1015
62143W        W 5196  17.372  10.982  14.541  0.1530  0.1637 -0.1892
62144W        W 5197  27.016  11.975  16.484  0.1176 -0.0215 -0.0970
62145W        W 5198   4.649   4.804   3.038 -0.1625  0.1559 -0.5794
62146W        W 5199   2.191  21.534  18.457  0.1683 -0.0308  0.0508
62147W        W 5200  25.801  26.730   7.341  0.1148 -0.2946 -0.1200
62148W        W 5201  23.355  25.306  18.227 -0.2233  0.0883 -0.0617
62149W        W 5202  13.859  28.444  14.681 -0.1055 -0.1581  0.0687
62150W        W 5203  28.371  23.226  14.802  0.0175  0.0884  0.1282
62151W        W 5204  31.917   1.275   5.375  0.1450 -0.1304  0.1088
62152W        W 5205  24.271  14.849  17.380 -0.0617 -0.2355 -0.3786
62153W        W 5206   4.284   0.707  17.782 -0.0602 -0.1583 -0.0397
62154W        W 5207  14.035  24.816  23.511 -0.3222  0.1866  0.0815
62155W        W 5208   4.923  25.218  15.594  0.0054 -0.0378 -0.0175
62156W        W 5209   3.329   0.543  27.644  0.0537  0.2373  0.1929
62157W        W 5210  20.387  10.110  24.081 -0.2325 -0.1056  0.2170
62158W        W 5211  18.610  23.118  25.462 -0.1200  0.2786  0.0350
62159W        W 5212   0.772  17.140  25.783  0.0529  0.1364 -0.1056
62160W        W 5213  12.440  32.915  23.531 -0.2294  0.0155 -0.1385
62161W        W 5214   6.746   2.183  14.608 -0.3901  0.3993 -0.1221
62162W        W 5215   0.001  33.313  16.512  0.2278 -0.0032 -0.0458
62163W        W 5216   3.803  33.537  20.688  0.0500  0.2032 -0.0104
62164W        W 5217  17.333  26.572  15.178 -0.1289 -0.0550 -0.2418
62165W        W 5218  22.432  12.462  17.565  0.0135 -0.1963  0.3139
62166W        W 5219  22.473  34.600  20.863  0.0437  0.0230 -0.3326
62167W        W 5220   0.023  30.412  29.188 -0.3392  0.0462 -0.1692
62168W        W 5221  15.112  24.494  21.798 -0.0038 -0.4381 -0.0531
62169W        W 5222   8.816   0.394  20.689  0.2227 -0.3066 -0.0198
62170W        W 5223   2.665  26.777  20.856  0.2032 -0.1875  0.3777
62171W        W 5224  15.882  33.979  16.639  0.1008  0.3675 -0.0028
62172W        W 5225  13.136  20.517  27.415  0.1296  0.0510 -0.2484
62173W        W 5226   4.283   8.566   0.384 -0.2139 -0.3169  0.2506
62174W        W 5227  28.429  19.188  15.888  0.4134 -0.1910 -0.0910
62175W        W 5228  17.531   2.410  17.335 -0.0917  0.2979 -0.0268
62176W        W 5229  12.841  26.253  26.524 -0.2662 -0.1571  0.0912
62177W        W 5230  34.002  16.695   1.366  0.1226  0.2485  0.2397
62178W        W 5231  16.861  32.457  28.616 -0.0481 -0.3262  0.1099
62179W        W 5232   2.098  10.661  21.780  0.4192 -0.3382  0.1505
62180W        W 5233  10.555   2.411  20.412 -0.3119 -0.0847  0.1246
62181W        W 5234   6.844  14.401  27.646  0.1461  0.2232  0.0535
62182W        W 5235  15.520  18.479   2.985  0.0241  0.1295  0.0597
62183W        W 5236   5.125  17.662   9.850 -0.0401 -0.2254 -0.2865
62184W        W 5237  24.484   2.696  14.466 -0.3334  0.0049  0.2139
62185W        W 5238  21.206  26.446   2.168  0.0677 -0.1290  0.0883
62186W        W 5239   4.653  13.728  20.440  0.3056  0.0751  0.0058
62187W        W 5240   4.870  16.049  15.013 -0.1674 -0.2207 -0.1305
62188W        W 5241   5.526  18.474  22.769 -0.0616  0.1253  0.0002
62189W        W 5242   9.436  24.330  24.025 -0.0935  0.0010 -0.2496
62190W        W 5243  15.799  32.102  22.285  0.2729  0.2066  0.2403
62191W        W 5244   1.813  29.087  25.176  0.2050 -0.1252  0.0558
62192W        W 5245  33.506  27.644  25.787 -0.1641  0.1345  0.0729
62193W        W 5246   5.099  20.405  14.068  0.1031  0.1064 -0.0297
62194W        W 5247  12.573  30.779  22.373 -0.2552 -0.0900 -0.0113
62195W        W 5248  21.543  20.925  25.043  0.2641 -0.2207 -0.0986
62196W        W 5249   2.719  13.031   8.021  0.6379  0.0609 -0.0821
62197W        W 5250  25.899  25.854  24.515  0.0686  0.1611  0.1017
62198W        W 5251  11.354  14.648  22.634  0.2788 -0.3839  0.2579
62199W        W 5252   2.804  27.963   6.805  0.0804 -0.3399  0.1546
62200W        W 5253  10.964  15.766  24.133  0.2566  0.2383  0.0192
62201W        W 5254  29.555  23.241  22.184  0.1299  0.0322 -0.2679
62202W        W 5255  19.751   9.251  14.636  0.1480  0.0219  0.2601
62203W        W 5256  19.666  31.941  24.895  0.0385  0.0511  0.0738
62204W        W 5257   8.987  33.862  16.261 -0.7386  0.1153 -0.0787
62205W        W 5258  22.107  25.704  22.874  0.2069 -0.2653  0.1144
62206W        W 5259  25.951  19.258  20.969 -0.1874 -0.1822  0.2057
62207W        W 5260  10.916  21.314  19.350  0.4570  0.2840 -0.0550
62208W        W 5261  10.011  27.481  20.271  0.0551 -0.1134  0.0195
62209W        W 5262  19.361   1.729  21.796  0.1311  0.2949  0.0571
62210W        W 5263  22.417  32.828  17.719  0.0222 -0.0701 -0.1407
62211W        W 5264  30.208  12.728  15.039  0.0148  0.2208 -0.1118
62212W        W 5265  18.303  24.410  18.755  0.1114  0.0942  0.1575
62213W        W 5266  11.634  25.773   4.872  0.3669 -0.1016  0.0842
62214W        W 5267   0.975  27.167  15.875 -0.0416  0.1203 -0.2285
62215W        W 5268  22.124  22.029  20.561 -0.0503  0.2506  0.1397
62216W        W 5269  34.095  16.827  28.140  0.1077  0.0685  0.0417
62217W        W 5270   0.365   1.029  17.495  0.0156 -0.3029  0.4325
62218W        W 5271  26.484  11.931  24.746 -0.1092 -0.2631 -0.2039
62219W        W 5272   5.529  33.545   0.727  0.2636 -0.0775  0.2461
62220W        W 5273  24.769  23.319  22.999 -0.1636 -0.1497  0.1556
62221W        W 5274   7.252  16.488  28.513  0.2008  0.0094 -0.2972
62222W        W 5275  15.793  23.621  28.819 -0.0800 -0.2479 -0.2621
62223W        W 5276  28.568  29.887  22.766 -0.2312 -0.0096  0.1829
62224W        W 5277  17.163  32.173   9.462 -0.1163 -0.0465 -0.1632
62225W        W 5278  13.267  34.648  20.714 -0.0640 -0.1878 -0.3778
62226W        W 5279  17.559  13.284  22.562 -0.0293  0.2137 -0.0549
62227W        W 5280  17.795   9.272  17.226  0.0478 -0.0886 -0.1482
62228W        W 5281   2.033  23.392  19.006  0.0731 -0.0014  0.1266
62229W        W 5282   2.104  33.097  21.095 -0.2188  0.0848 -0.0847
62230W        W 5283  20.074  25.740  20.820  0.2025  0.1769  0.1363
62231W        W 5284  17.153  30.842  17.050  0.0242  0.0352  0.4452
62232W        W 5285  10.581  21.640  19.029  0.1316 -0.3028  0.0625
62233W        W 5286  12.863  27.373   0.234  0.1160  0.0080  0.2769
62234W        W 5287   3.929   6.249  17.696  0.1292 -0.1914 -0.1097
62235W        W 5288   9.308  23.049  15.268 -0.1585  0.0217  0.1635
62236W        W 5289   4.600  31.270  14.091 -0.1404 -0.1258 -0.1453
62237W        W 5290  17.926   2.754  15.331  0.3203  0.3521 -0.1145
62238W        W 5291  22.594  12.511  18.265  0.0640 -0.1480  0.0062
62239W        W 5292  32.797  12.610  24.497 -0.0361  0.0295  0.3400
62240W        W 5293   7.676  29.167  19.705 -0.2624 -0.2609 -0.0754
62241W        W 5294   6.905   0.304  25.247 -0.0367  0.0731  0.0080
62242W        W 5295  23.519  30.099  17.524 -0.3261  0.0740 -0.3074
62243W        W 5296   2.904  21.012  18.104  0.2359  0.1927 -0.1414
62244W        W 5297  14.562  16.435   8.650  0.4212 -0.1294  0.0167
62245W        W 5298   8.802  20.250  21.561 -0.1601 -0.1513  0.2089
62246W        W 5299  27.010   1.052   3.568 -0.1377  0.1287  0.3270
62247W        W 5300  22.134  19.045  16.536  0.1816  0.0273 -0.1583
62248W        W 5301  20.615   7.523  19.239  0.1230 -0.0719 -0.3352
62249W        W 5302  11.656  15.144  25.380  0.0630 -0.1568  0.0333
62250W        W 5303  23.460  25.846  16.479 -0.0772 -0.1806 -0.5028
62251W        W 5304  17.108   4.484  16.881  0.0198 -0.2897 -0.0112
62252W        W 5305   4.435  26.269  16.694 -0.3618 -0.3181 -0.0044
62253W        W 5306  11.120  27.507  18.413  0.2115 -0.3794 -0.2172
62254W        W 5307  19.274  27.527  27.799  0.0575 -0.0665 -0.0492
62255W        W 5308  13.584  33.164  23.605 -0.1106  0.0050 -0.2991
62256W        W 5309  25.857  19.724  20.260  0.1747 -0.2112  0.1279
62257W        W 5310   0.568  26.269  26.510  0.1991  0.0246 -0.1793
62258W        W 5311  26.495   7.448  16.473 -0.2355 -0.2557 -0.0655
62259W        W 5312  20.488  22.671  22.095  0.0074  0.0470 -0.2423
62260W        W 5313  29.220  20.685  20.474  0.0658  0.1941 -0.2407
62261W        W 5314  30.976  28.064   4.980  0.2262 -0.0005  0.1938
62262W        W 5315  10.332  20.073  27.041 -0.2630  0.0601 -0.0979
62263W        W 5316  31.281  11.329  23.252  0.2305  0.1008  0.1018
62264W        W 5317  23.794   3.722  17.942 -0.1150  0.0413  0.2073
62265W        W 5318   1.606  19.926   5.989 -0.1085 -0.1390 -0.3425
62266W        W 5319   4.976   4.431  22.032  0.0179 -0.0372 -0.2417
62267W        W 5320   7.508  17.972  14.997  0.4374 -0.0098  0.0100
62268W        W 5321   4.018   7.836  22.840 -0.1058 -0.2980 -0.0218
62269W        W 5322  23.736  29.619  24.654  0.0319 -0.0842  0.0042
62270W        W 5323  25.517   2.590  20.815 -0.3734  0.0328 -0.0790
62271W        W 5324  11.607  26.225   2.892  0.2238 -0.0940 -0.1519
62272W        W 5325  11.346   3.273  16.617  0.0531  0.4113 -0.1595
62273W        W 5326   9.376  25.649  20.722  0.1566  0.0600  0.0431
62274W        W 5327  18.567  28.369  20.243 -0.0934 -0.2005 -0.1115
62275W        W 5328  23.021   5.630   0.293 -0.2282  0.2321  0.0375
62276W        W 5329  13.025   5.710  24.570  0.0105  0.0719 -0.2884
62277W        W 5330  11.685  27.164  17.229  0.1815 -0.3149 -0.0853
62278W        W 5331  23.274  24.257  27.952  0.3711  0.1717 -0.1031
62279W        W 5332  12.695  10.776  16.697 -0.1393  0.2284 -0.1911
62280W        W 5333  14.590  31.322  22.675  0.1522  0.0374  0.0434
62281W        W 5334   7.859  31.479  17.027  0.1221  0.3250  0.4191
62282W        W 5335  34.137  34.374   4.460  0.0019 -0.1352 -0.3197
62283W        W 5336  28.028  20.838   5.520 -0.2655 -0.0353  0.0609
62284W        W 5337   2.585  24.614  28.451  0.3221 -0.0745  0.1280
62285W        W 5338  32.887  29.828  25.265 -0.1082  0.0322 -0.0667
62286W        W 5339   3.539  27.732   5.149 -0.2039 -0.1172  0.1157
62287W        W 5340  13.234  29.546  27.688  0.2229  0.1384 -0.1031
62288W        W 5341  17.619  25.803   1.597  0.4045 -0.3365 -0.0565
62289W        W 5342   4.105  19.084  21.455  0.1278 -0.1074  0.2287
62290W        W 5343  30.503  25.687   2.016  0.4185  0.0929 -0.0296
62291W        W 5344   3.088  27.157  24.395  0.2176 -0.1016 -0.2033
62292W        W 5345  24.303  10.671  17.202 -0.2192  0.2183  0.1666
62293W        W 5346   4.728   6.139  22.995  0.1146  0.0420  0.0082
62294W        W 5347  16.285   3.030  14.970 -0.2036  0.0073 -0.2138
62295W        W 5348  11.064  23.458  24.298 -0.2040 -0.1999  0.2116
62296W        W 5349  19.973  21.260   0.641  0.0010  0.0545  0.0165
62297W        W 5350   1.166  34.229  23.309 -0.1671  0.2915 -0.0516
62298W        W 5351  19.105  26.897  19.394  0.2854  0.5358 -0.0068
62299W        W 5352  25.959  13.645  18.111  0.2844  0.1900 -0.0878
62300W        W 5353  33.619  18.682  22.005 -0.0259  0.0145 -0.0878
62301W        W 5354  10.944   0.499  27.357  0.1203 -0.2045 -0.0907
62302W        W 5355   9.857  12.687  20.817 -0.1473  0.1993  0.0926
62303W        W 5356  22.661  23.187  10.138 -0.0072 -0.0800  0.3346
62304W        W 5357  28.980  32.726  19.964  0.0752  0.3267 -0.3934
62305W        W 5358   5.072  26.674  14.863  0.2087  0.2421  0.1032
62306W        W 5359   0.072  27.095  17.345  0.0399  0.1964  0.3273
62307W        W 5360   7.356  20.362  21.029  0.2889 -0.3415 -0.0517
62308W        W 5361  11.282  21.123  19.043 -0.0541  0.0174 -0.0247
62309W        W 5362  23.647  23.665  22.612  0.3859  0.1471 -0.0399
62310W        W 5363  18.182   2.993   0.994  0.1159 -0.3163  0.0569
62311W        W 5364  20.049  19.285  14.415  0.2820  0.1933 -0.1639
62312W        W 5365   7.020   1.543  17.236 -0.3878  0.0893  0.1684
62313W        W 5366  31.207   1.125  14.889 -0.1462  0.2653  0.2517
62314W        W 5367  20.228  22.935  17.306  0.5403 -0.2321  0.0682
62315W        W 5368  26.368  33.291  25.689 -0.0626 -0.3262  0.2928
62316W        W 5369   7.411  27.124  24.642  0.0637  0.1352 -0.2880
62317W        W 5370  16.360  26.285  23.195  0.0600  0.1840 -0.0527
62318W        W 5371  11.693  24.822   8.444  0.0287 -0.1044 -0.0841
62319W        W 5372   5.543  31.613  28.208 -0.0206  0.3302 -0.1273
62320W        W 5373  12.871  30.076  15.777  0.1517 -0.2828 -0.2774
62321W        W 5374   0.471  30.387   3.333  0.0510 -0.0451  0.0812
62322W        W 5375   6.585   3.523  15.114  0.0369  0.1074 -0.0225
62323W        W 5376   9.147  16.181  23.143  0.2888  0.0292 -0.2926
62324W        W 5377  13.209  20.414   6.071  0.2894  0.0687 -0.2201
62325W        W 5378  30.304  11.463  24.572  0.2934  0.0813 -0.3666
62326W        W 5379  15.238   2.742  27.954 -0.1146 -0.2782  0.0632
62327W        W 5380  10.494  18.193  24.086 -0.5111  0.2969 -0.1750
62328W        W 5381   5.382  27.364  15.403 -0.1645 -0.0048  0.0490
62329W        W 5382  16.383  12.748  16.245 -0.1485 -0.0836 -0.0804
62330W        W 5383  19.710   2.616  17.972  0.0800  0.3508 -0.2130
62331W        W 5384   1.549  34.061  21.302 -0.1294 -0.1869  0.0654
62332W        W 5385  24.164  26.094  20.257 -0.2744 -0.0144  0.4119
62333W        W 5386  19.470  31.824  16.165  0.0396 -0.1675 -0.1056
62334W        W 5387   8.518  31.205  22.079 -0.0691 -0.0548 -0.0083
62335W        W 5388   6.366   7.725  16.173  0.4749 -0.0527  0.0967
62336W        W 5389  31.578  19.794  24.452 -0.1473 -0.0237  0.0697
62337W        W 5390  25.809  24.083  21.442 -0.2879 -0.0151 -0.1241
62338W        W 5391  13.956   8.280  23.748  0.1689 -0.0110 -0.2112
62339W        W 5392  11.445  26.876   4.255  0.1274 -0.0132 -0.1774
62340W        W 5393  18.354  20.034  26.945 -0.0579 -0.0208 -0.2343
62341W        W 5394   9.846  14.078   2.973 -0.2930 -0.1268  0.0007
62342W        W 5395  12.481  20.870  19.083  0.0214 -0.1022  0.0001
62343W        W 5396  31.015   9.583  15.310  0.0508  0.3568 -0.2888
62344W        W 5397  29.030  30.524  27.469  0.0005  0.3454  0.1367
62345W        W 5398  17.587  21.139  16.756 -0.2084  0.3528 -0.2712
62346W        W 5399  28.472  31.728   7.912  0.3118 -0.2129 -0.1618
62347W        W 5400  14.838  28.689  14.371 -0.0876  0.0020  0.2210
62348W        W 5401  18.439  28.060  21.440  0.3378  0.0422  0.0766
62349W        W 5402  29.100  31.409  27.013  0.0139  0.0819 -0.1806
62350W        W 5403  12.537  26.022  20.709 -0.1005 -0.5349  0.0080
62351W        W 5404  20.002  21.752  16.006 -0.0557  0.0751 -0.1950
62352W        W 5405  22.024  18.762  26.877  0.1432 -0.1470 -0.0876
62353W        W 5406  20.134  23.843  17.333  0.1239  0.1229 -0.0367
62354W        W 5407  12.894  21.420  26.310  0.3598 -0.1106 -0.1044
62355W        W 5408  27.831  22.000  27.639 -0.2928 -0.0202 -0.0794
62356W        W 5409  29.786  26.485  25.582  0.3376 -0.1558  0.0617
62357W        W 5410  11.775  30.905   9.362 -0.0026 -0.0262 -0.0474
62358W        W 5411  19.070   0.054   0.592 -0.1533 -0.0713 -0.2554
62359W        W 5412  29.050  20.864  16.018 -0.1964  0.0248 -0.2315
62360W        W 5413   5.769  28.190  14.068 -0.1178  0.0077 -0.0820
62361W        W 5414   5.854  34.616  25.057  0.0235  0.0205 -0.1417
62362W        W 5415  24.193  23.300  17.900 -0.0307  0.0649  0.0092
62363W        W 5416   8.941  22.243  16.337 -0.0983 -0.1011 -0.1467
62364W        W 5417  31.142   1.462  21.312 -0.1816  0.1211  0.0912
62365W        W 5418  27.271  19.828  15.607 -0.0539 -0.3839  0.0715
62366W        W 5419  28.169  20.439  24.348 -0.3887 -0.3287 -0.2335
62367W        W 5420  16.759   1.136  15.492 -0.0081  0.0210 -0.0302
62368W        W 5421  16.254  25.146  16.982  0.1436 -0.2755  0.1946
62369W        W 5422   2.321  26.004  18.087  0.0248 -0.5043 -0.1694
62370W        W 5423   9.447  23.626   4.517  0.2343  0.0144 -0.0691
62371W        W 5424  13.882  11.845  17.802 -0.2515 -0.2013  0.1176
62372W        W 5425   6.478  23.192  20.934  0.0953 -0.0636 -0.3367
62373W        W 5426  12.130  12.255  24.065 -0.1532 -0.0984  0.3018
62374W        W 5427   2.970  14.116   1.926  0.1759  0.1042  0.0773
62375W        W 5428  20.993  26.149   7.141 -0.0689 -0.0374 -0.0433
62376W        W 5429  15.399  23.346   7.764  0.2589  0.2181 -0.0110
62377W        W 5430   2.636  16.077  18.004  0.1822 -0.0718  0.2243
62378W        W 5431  20.090  33.759  17.968 -0.0624  0.1016 -0.0588
62379W        W 5432  21.763  24.131  18.499  0.1173 -0.4442 -0.1572
62380W        W 5433   2.160  17.603  20.602 -0.2821  0.1923  0.1535
62381W        W 5434  22.655  19.797  15.508 -0.0087  0.0527 -0.0950
62382W        W 5435  24.759  26.258  23.223 -0.1051 -0.0429 -0.1718
62383W        W 5436   4.328  16.950  22.696 -0.0983 -0.1325  0.2703
62384W        W 5437  23.957  22.127  17.722  0.2012 -0.0656 -0.1292
62385W        W 5438  14.346   1.483  26.715  0.1595  0.0224 -0.1494
62386W        W 5439   7.307  19.386  26.963  0.1049 -0.1862  0.0663
62387W        W 5440   5.171   2.986   1.314 -0.2636  0.2234 -0.2234
62388W        W 5441  17.673  14.810  13.461  0.0722  0.0089 -0.0571
62389W        W 5442  15.835  24.460  15.619  0.1111  0.1608 -0.1872
62390W        W 5443  20.040  13.220  17.036 -0.0194 -0.5053 -0.2760
62391W        W 5444   0.929   1.604  20.593 -0.1477  0.1529  0.2476
62392W        W 5445  18.548  31.461  22.717  0.0082 -0.2700 -0.1047
62393W        W 5446  20.769  22.976  16.100 -0.1927 -0.0411 -0.0161
62394W        W 5447  28.028  26.284  20.639  0.2461 -0.1502 -0.2189
62395W        W 5448   6.847  27.387  22.913 -0.2245  0.1227 -0.1124
62396W        W 5449  17.305  32.394  18.203 -0.2382  0.0437 -0.1473
62397W        W 5450   9.632  19.043  18.669  0.0203  0.3840 -0.0017
62398W        W 5451  14.922  12.969  10.167  0.0163  0.0488 -0.3252
62399W        W 5452  24.279  17.288  18.509 -0.0202 -0.0098 -0.2751
62400W        W 5453  24.979  24.414  20.782  0.4104  0.1576  0.1077
62401W        W 5454  13.695  24.935  22.151  0.4480 -0.1087  0.3421
62402W        W 5455  31.814  14.245  18.389  0.1833  0.0157  0.0879
62403W        W 5456   8.621   0.392  21.536 -0.0511  0.2214  0.1036
62404W        W 5457   6.727  23.092  13.735 -0.1589 -0.0053  0.2515
62405W        W 5458  34.307  28.406  20.185 -0.3248  0.0055  0.0728
62406W        W 5459   8.811  25.506  16.577 -0.0548  0.0839 -0.1433
62407W        W 5460   4.417  27.628   1.876 -0.2792  0.1695 -0.0173
62408W        W 5461  18.536  33.663  25.884 -0.2875 -0.1709  0.0655
62409W        W 5462  22.944  17.271  14.222  0.2801 -0.0208  0.2357
62410W        W 5463  10.080  27.640  23.699  0.2453  0.1721  0.1811
62411W        W 5464   4.931  29.751  14.977  0.2943 -0.1375 -0.1305
62412W        W 5465  20.023   3.154  17.805 -0.0918 -0.0434 -0.0462
62413W        W 5466  15.168   1.261  16.675 -0.1265  0.0206 -0.1082
62414W        W 5467  33.373   6.919   8.363  0.1937 -0.0628  0.0558
62415W        W 5468  21.805  32.549  16.990 -0.0525 -0.1308  0.0175
62416W        W 5469   7.046  19.275  16.004 -0.1553  0.3054 -0.0510
62417W        W 5470   3.589  19.884  14.979  0.1291 -0.0801  0.2793
62418W        W 5471  13.927  25.005  24.164  0.0467 -0.0342  0.0401
62419W        W 5472  18.041  17.368   7.487  0.0335 -0.1565 -0.3587
62420W        W 5473  31.145  22.590  22.094 -0.2324  0.2403 -0.2610
62421W        W 5474  32.360  34.371  21.836 -0.0502 -0.0828  0.0172
62422W        W 5475   8.691  16.531  18.988  0.0924 -0.1574 -0.1598
62423W        W 5476  22.636  24.123  21.713  0.1947 -0.1457  0.1152
62424W        W 5477   5.393  14.775  10.268 -0.2482 -0.1012 -0.3696
62425W        W 5478  21.077  31.556  25.287 -0.0985 -0.2527  0.0556
62426W        W 5479  17.873   1.587  27.996  0.1235  0.4462 -0.0326
62427W        W 5480  20.380  22.001  17.937 -0.0609  0.0871 -0.0810
62428W        W 5481  13.510  13.854  17.552  0.0089  0.1436 -0.1251
62429W        W 5482  16.968  12.535  25.859 -0.1539  0.0505  0.1436
62430W        W 5483  11.065  26.279  20.442  0.1816  0.2435  0.1454
62431W        W 5484  25.198  12.327  28.144 -0.2987 -0.0072 -0.0362
62432W        W 5485  15.761  22.299  22.297 -0.1859 -0.1830  0.0524
62433W        W 5486  27.264  31.981  26.851 -0.3780 -0.0129 -0.0542
62434W        W 5487   1.673  14.481  19.360 -0.0960  0.3232 -0.1230
62435W        W 5488   8.720  21.842  16.125 -0.0349  0.2322 -0.0478
62436W        W 5489  26.352  15.854  23.358  0.1654  0.4183  0.0164
62437W        W 5490   5.595  31.364   4.602  0.0454  0.1929 -0.0564
62438W        W 5491  32.705  12.031  22.373 -0.2836 -0.0992  0.1982
62439W        W 5492  14.046  23.327  14.855 -0.6370 -0.0664 -0.1449
62440W        W 5493  16.514  20.761  24.587  0.0328 -0.3349 -0.0437
62441W        W 5494  11.395   0.255  21.809  0.4943 -0.1188 -0.3225
62442W        W 5495  25.913   1.633  22.899 -0.1368 -0.0996  0.3000
62443W        W 5496   5.678  20.807  15.882  0.1835  0.0676 -0.1561
62444W        W 5497   2.029  24.340  19.228 -0.1780 -0.1547  0.2933
62445W        W 5498   6.598  20.391   0.197 -0.1789 -0.4085  0.1634
62446W        W 5499  13.171  10.215  17.262 -0.0164  0.1155  0.2437
62447W        W 5500  33.500  19.985  25.052 -0.0223 -0.0531  0.0953
62448W        W 5501  15.412  21.250  26.705  0.1100 -0.1138 -0.1939
62449W        W 5502  26.536  25.779  15.157 -0.1940 -0.0460 -0.0072
62450W        W 5503  26.463  31.615  14.738  0.0613  0.0219 -0.2867
62451W        W 5504  21.421  11.178  14.378  0.1402  0.1602  0.2380
62452W        W 5505  18.581  23.860  27.243 -0.2526  0.0188  0.0171
62453W        W 5506  23.241  25.341  17.588 -0.1035 -0.4885  0.1763
62454W        W 5507  13.829   8.491  26.063  0.4193  0.1657 -0.0393
62455W        W 5508   2.084  32.673   2.364  0.1060  0.0247  0.0042
62456W        W 5509  29.073  16.491  25.230  0.0526 -0.1185  0.0794
62457W        W 5510  15.514   3.885  24.486 -0.0046 -0.1565 -0.1476
62458W        W 5511   6.181  20.893  20.504 -0.3023 -0.3174  0.1466
62459W        W 5512   8.627   1.947   2.615  0.2103 -0.2997 -0.0314
62460W        W 5513  24.054  14.775  14.278 -0.1443 -0.0282 -0.1448
62461W        W 5514  13.687   3.967  25.462  0.0558 -0.1433 -0.1993
62462W        W 5515   0.463  26.540  16.702  0.2265  0.0927 -0.0819
62463W        W 5516   8.912  12.296  24.724  0.1126 -0.0146 -0.0621
62464W        W 5517  12.047  11.092  21.088 -0.0504 -0.1869  0.3507
62465W        W 5518  28.461  24.847   2.335  0.4049  0.1629  0.0224
62466W        W 5519  26.487  21.911  15.592  0.0802 -0.0457 -0.0261
62467W        W 5520  34.279  20.376  21.212  0.2431  0.0488 -0.1278
62468W        W 5521   1.376  32.488  20.473 -0.0705 -0.1182 -0.0548
62469W        W 5522   7.049  22.758   6.547  0.0668 -0.0669  0.0305
62470W        W 5523  24.589  11.891  16.371 -0.2059 -0.0461  0.1541
62471W        W 5524  33.415  19.909  19.708  0.0530 -0.1072 -0.0718
62472W        W 5525  32.402  29.407  21.233  0.0609 -0.2171  0.1833
62473W        W 5526  15.464  34.151  14.846 -0.2759 -0.2290 -0.0837
62474W        W 5527  13.352  28.588   2.250 -0.1952 -0.1041  0.2619
62475W        W 5528  10.405  26.665  22.337 -0.1477  0.1069  0.1213
62476W        W 5529  21.173  23.130  21.072  0.3069 -0.0108  0.2750
62477W        W 5530   5.523  26.566  16.129 -0.1760 -0.0627 -0.1692
62478W        W 5531  22.424  23.204  14.734  0.0106 -0.1759  0.1869
62479W        W 5532   5.126  15.097  28.831  0.0742 -0.0836  0.1281
62480W        W 5533  20.766  15.467  15.102  0.0608 -0.0606  0.1718
62481W        W 5534  17.809  20.835   6.653 -0.0567  0.0972 -0.2865
62482W        W 5535  22.300  23.345  24.651 -0.0204 -0.1048  0.4364
62483W        W 5536  32.488   3.454  17.038  0.1211  0.0108 -0.1592
62484W        W 5537   9.001  14.327  23.784 -0.1998 -0.1090  0.1813
62485W        W 5538  28.169  32.230  15.383  0.1314 -0.0100  0.1383
62486W        W 5539  25.292   5.265  26.832 -0.0959  0.0107 -0.0872
62487W        W 5540   9.781  13.550  22.656 -0.2659  0.0890  0.1885
62488W        W 5541  24.023  22.836  21.792  0.0958 -0.0535  0.5501
62489W        W 5542   6.497  11.888  14.378 -0.0846 -0.0103  0.1298
62490W        W 5543  14.734  17.858  15.136 -0.4291 -0.1169 -0.2990
62491W        W 5544   9.523   6.660   7.696  0.1161 -0.2083 -0.3008
62492W        W 5545  15.594  26.083   3.860 -0.3748  0.2618  0.0196
62493W        W 5546  33.657  25.368  24.628  0.0678 -0.0832 -0.1114
62494W        W 5547  18.747  33.769  28.472  0.1577 -0.1352 -0.0428
62495W        W 5548  11.005  34.640   5.481  0.1235  0.0675  0.0764
62496W        W 5549  20.192  23.196  20.497 -0.1099  0.0775 -0.0979
62497W        W 5550  15.967   5.341  14.854 -0.1154 -0.1833 -0.0040
62498W        W 5551   2.553  13.012  28.715  0.2111 -0.2714 -0.0891
62499W        W 5552  23.705  18.268  24.707 -0.1773 -0.0047 -0.0991
62500W        W 5553   0.470  29.498  17.272 -0.1738  0.0186 -0.2150
62501W        W 5554  18.990   2.830  20.914  0.0786 -0.4918  0.2091
62502W        W 5555  24.637  20.707  14.627  0.1576 -0.0989  0.0465
62503W        W 5556  30.801  27.363  19.802 -0.0714  0.0312 -0.0905
62504W        W 5557  11.871  17.963  27.633  0.1171 -0.1248  0.1735
62505W        W 5558  29.797  34.074  28.049 -0.1826  0.1295 -0.1501
62506W        W 5559   9.093   3.061  25.984  0.0233  0.2674 -0.0794
62507W        W 5560  21.299  27.747  22.208 -0.2364  0.0253  0.0387
62508W        W 5561  23.839  29.950  19.210  0.0065  0.0721 -0.0027
62509W        W 5562  25.001  19.746   0.514 -0.1724  0.0124 -0.1683
62510W        W 5563  11.429  28.290  23.291  0.2869  0.2036 -0.0821
62511W        W 5564   6.018  26.836  24.913  0.0060 -0.1399 -0.3002
62512W        W 5565  16.548   2.239  28.685  0.1387  0.3219 -0.0202
62513W        W 5566  25.854  32.085  21.967 -0.2566  0.0146  0.0862
62514W        W 5567  23.814  28.145  28.410  0.0676 -0.1382  0.0343
62515W        W 5568   7.598  18.260  14.609  0.1888  0.0460 -0.3252
62516W        W 5569  18.219  18.033   0.761  0.1073  0.2401  0.1943
62517W        W 5570  29.539  24.059  19.575 -0.1105  0.1665  0.0183
62518W        W 5571  23.164  29.194  25.355  0.0080 -0.0142  0.0667
62519W        W 5572   4.849  19.106   4.431 -0.0679  0.0954 -0.0852
62520W        W 5573   1.869  21.865  27.046  0.2539  0.1101  0.1264
62521W        W 5574  28.833  11.680   8.032 -0.1291 -0.1830 -0.0187
62522W        W 5575  11.944  31.534  18.484  0.0094  0.1774  0.3287
62523W        W 5576   2.807   7.991  18.634  0.0028  0.0401 -0.0878
62524W        W 5577  18.464  14.229  28.328  0.1762 -0.1668  0.3958
62525W        W 5578   5.652  33.658  28.900 -0.1144 -0.0832 -0.1287
62526W        W 5579   6.503  17.369  17.826 -0.1231  0.2133 -0.0401
62527W        W 5580  16.542  25.700   8.014 -0.1494 -0.2292 -0.1061
62528W        W 5581  19.188  32.116   3.491  0.2648  0.3008  0.0737
62529W        W 5582  13.464   2.427  22.569  0.0669 -0.0529 -0.1733
62530W        W 5583  18.229  21.565  17.193 -0.2733  0.0142 -0.4763
62531W        W 5584  20.381   2.270  28.100 -0.0525 -0.3316 -0.1349
62532W        W 5585  12.850  33.951  17.121 -0.0175  0.1359 -0.1711
62533W        W 5586  32.163  29.707  22.485  0.3242  0.2752  0.3670
62534W        W 5587  12.590  20.315  20.286  0.0616  0.0387 -0.1450
62535W        W 5588  14.618  29.788   5.568 -0.1741  0.1894  0.0264
62536W        W 5589  11.123  26.653  14.911 -0.1509  0.2420 -0.0437
62537W        W 5590  18.247   3.259  25.947  0.2722  0.5387 -0.3173
62538W        W 5591  19.602  21.949  16.225 -0.0669 -0.0257  0.3161
62539W        W 5592  33.955  30.560  21.713  0.0926  0.0046 -0.0613
62540W        W 5593  11.824  18.358  22.245  0.1501  0.3135  0.0568
62541W        W 5594   5.027  24.052  25.966  0.0917 -0.0047  0.3960
62542W        W 5595  10.831  18.342   8.848 -0.0506  0.1713 -0.1717
62543W        W 5596  19.214  30.684  10.535  0.0778 -0.2771 -0.2005
62544W        W 5597   6.571  30.491   8.395  0.2818  0.0982 -0.0137
62545W        W 5598  20.574  13.459   3.717 -0.1403  0.1659  0.0186
62546W        W 5599   5.203   9.012  23.003  0.5063  0.2292 -0.1536
62547W        W 5600   3.254  17.913   8.526 -0.2585  0.0274 -0.0557
62548W        W 5601  13.298  33.913  22.554  0.0170 -0.1537 -0.0632
62549W        W 5602  17.981  24.252  14.897  0.2734 -0.1012  0.0443
62550W        W 5603  19.243  27.639   5.134 -0.0760 -0.0290  0.1402
62551W        W 5604   0.895  21.907  22.439 -0.0605 -0.3448  0.2623
62552W        W 5605  32.841  17.942  23.502 -0.0391 -0.3308  0.0997
62553W        W 5606   8.633   2.003  22.320  0.2177  0.3299 -0.3211
62554W        W 5607  10.363  27.222  15.929  0.3101  0.6267  0.1129
62555W        W 5608  23.543   1.864  27.604  0.0246  0.4646  0.1161
62556W        W 5609  24.097  29.268  21.864  0.1166 -0.1348 -0.0345
62557W        W 5610   5.074  16.049  28.480 -0.2480  0.0315  0.1122
62558W        W 5611  12.725   5.243  23.920  0.0559  0.1221  0.0103
62559W        W 5612  20.987  22.205  19.643 -0.1742  0.4317  0.2147
62560W        W 5613  16.427  16.143  13.269 -0.3816 -0.0849 -0.1394
62561W        W 5614  12.700  24.605  14.707 -0.0083  0.0585  0.1472
62562W        W 5615   8.445  34.561   2.221 -0.2098  0.0288  0.1033
62563W        W 5616   4.138  17.035  24.651 -0.2296  0.2376 -0.2200
62564W        W 5617  13.448  19.889  20.629 -0.1569  0.3820  0.2061
62565W        W 5618  34.560  19.578   2.390  0.2826  0.1349 -0.0353
62566W        W 5619  31.304  31.622  21.968 -0.0928 -0.0440  0.1428
62567W        W 5620   1.381  23.903  28.565 -0.0748 -0.2568  0.0804
62568W        W 5621  18.777   1.716  14.553 -0.1106  0.0651 -0.2153
62569W        W 5622  20.377  15.233   8.300 -0.0423 -0.1870 -0.0893
62570W        W 5623   9.385  24.699   4.616 -0.0835 -0.0794  0.2176
62571W        W 5624  22.768  25.613  24.100 -0.1786  0.0918  0.1290
62572W        W 5625  31.812  28.560  18.653  0.1683 -0.0199  0.1861
62573W        W 5626  33.285  24.262  22.810 -0.0357 -0.2862  0.4822
62574W        W 5627  31.492   4.071  24.310 -0.2951 -0.0327 -0.2282
62575W        W 5628  23.045  14.910  14.434 -0.1561  0.0316 -0.0796
62576W        W 5629  11.774   6.067  28.257 -0.1391  0.1971  0.0048
62577W        W 5630  11.591  16.584   5.268  0.2273  0.3376 -0.1152
62578W        W 5631   8.652  31.131  24.867  0.0065 -0.0078  0.3501
62579W        W 5632  18.477  34.506   3.537  0.2295 -0.1300  0.1798
62580W        W 5633   6.521  18.685  17.647 -0.1130  0.2089 -0.1019
62581W        W 5634  13.249  22.267   1.967  0.3984 -0.1102 -0.1363
62582W        W 5635  10.343  24.750  19.785 -0.1124  0.1587 -0.0483
62583W        W 5636   4.463  18.039  28.570  0.2491  0.2073 -0.0010
62584W        W 5637  29.836   7.318  26.909 -0.1669 -0.0795  0.0964
62585W        W 5638   6.200  19.701   4.867  0.0941 -0.2374 -0.0153
62586W        W 5639  21.633  17.143   6.123  0.0934  0.0988 -0.1941
62587W        W 5640  17.495  22.914   2.693  0.1118  0.1607  0.0738
62588W        W 5641  11.377  31.950  18.305 -0.2412 -0.0432  0.0263
62589W        W 5642  11.694  23.098  14.366  0.0156  0.0083  0.0806
62590W        W 5643   6.770  16.242   6.223  0.5219  0.0116  0.0904
62591W        W 5644  11.458   7.387  23.876  0.1846 -0.0101 -0.0770
62592W        W 5645   9.127  19.802  19.074 -0.0069  0.0056  0.0698
62593W        W 5646  15.907   2.695   0.322 -0.3675  0.2002  0.2393
62594W        W 5647  18.237  17.403  28.704 -0.0464  0.0125 -0.2361
62595W        W 5648   1.830   1.952  21.577 -0.2573 -0.2222 -0.1480
62596W        W 5649  22.273  24.074  14.851 -0.3534 -0.0059 -0.2783
62597W        W 5650  18.493  25.220   5.042  0.0432  0.1336 -0.0081
62598W        W 5651  18.201   5.649   3.935 -0.2301  0.2456  0.3425
62599W        W 5652  26.539  27.770   5.095  0.0622  0.0791  0.1581
62600W        W 5653  33.255  25.148   5.300  0.1277  0.0567 -0.1147
62601W        W 5654   9.364  12.086   6.579  0.1523 -0.0637  0.0288
62602W        W 5655  28.722  23.933  21.242 -0.0550 -0.1332  0.0651
62603W        W 5656   1.135  18.207  20.755 -0.2593 -0.0986  0.0533
62604W        W 5657   9.503   5.700  16.240  0.2149  0.2194 -0.1338
62605W        W 5658   7.948  23.291  25.267  0.2838 -0.2780 -0.1342
62606W        W 5659  13.824   1.602  25.793 -0.0881 -0.3379 -0.0330
62607W        W 5660  12.567  23.609  21.104  0.1027 -0.0996 -0.2131
62608W        W 5661  10.886  21.764  24.407  0.4277  0.0997  0.3695
62609W        W 5662   6.602  12.622  23.917 -0.0302 -0.0155  0.3212
62610W        W 5663  31.714  26.434   6.599 -0.1356  0.2463 -0.1233
62611W        W 5664   1.392  28.625  19.727  0.4032 -0.5167  0.2401
62612W        W 5665  18.241   3.514  23.480  0.1452 -0.2192 -0.0103
62613W        W 5666   7.206   8.441  28.425 -0.0310 -0.0429 -0.0811
62614W        W 5667  14.602  23.163   5.459 -0.2054  0.1303 -0.0366
62615W        W 5668  16.435  16.329  24.834 -0.0210 -0.2318 -0.0653
62616W        W 5669  33.707  17.383   6.882 -0.3090 -0.2631 -0.1988
62617W        W 5670   6.735  27.867  18.760  0.0965  0.4028  0.2472
62618W        W 5671  13.213   2.108  26.666  0.4166  0.0328 -0.1258
62619W        W 5672   6.658  11.335  17.429  0.3661  0.1053 -0.0173
62620W        W 5673  14.894  26.042  26.796  0.1137 -0.0039  0.0535
62621W        W 5674  17.223  28.346  16.031  0.0750 -0.4075 -0.2942
62622W        W 5675  11.333  19.618  23.917  0.1268 -0.1122 -0.3563
62623W        W 5676  19.024  19.098  29.143  0.2151 -0.1980 -0.1943
62624W        W 5677   4.373  20.883   0.184 -0.1096  0.0432  0.0317
62625W        W 5678  14.696  28.556  13.887  0.1485  0.0234  0.2683
62626W        W 5679   8.608  28.619  14.822 -0.1334 -0.3374 -0.0630
62627W        W 5680  16.916  20.495  14.358 -0.1767  0.0626 -0.1551
62628W        W 5681   3.747  25.720   1.179  0.0577  0.1031 -0.2283
62629W        W 5682   1.835  27.424  15.052  0.1700 -0.0279  0.1160
62630W        W 5683  12.611  20.831   3.471  0.2104  0.0070  0.3201
62631W        W 5684  16.521  12.879  10.560 -0.0847  0.1539 -0.0408
62632W        W 5685  24.073  21.099   7.681 -0.1228 -0.0689 -0.0563
62633W        W 5686   4.983  22.256  14.120 -0.0187 -0.1263  0.0119
62634W        W 5687   8.500  10.494  16.797 -0.0819  0.3617 -0.1346
62635W        W 5688  14.092  21.494  13.729  0.0569 -0.0223 -0.0041
62636W        W 5689  17.567  28.706  16.768 -0.2460  0.1266  0.1277
62637W        W 5690  22.451  26.026  25.870 -0.1582 -0.3106  0.0878
62638W        W 5691  17.711  14.667  14.012  0.0227 -0.0010 -0.2936
62639W        W 5692  20.272  31.973   1.676 -0.2965 -0.1976  0.0826
62640W        W 5693  33.651  23.180  18.875  0.0850  0.1434 -0.0072
62641W        W 5694  11.794  25.913  23.389  0.0615  0.2070  0.1404
62642W        W 5695  23.806  22.354  27.602 -0.0396  0.3694 -0.0510
62643W        W 5696  12.661   8.536   1.115  0.4302 -0.0563  0.1664
62644W        W 5697  14.686  32.063  24.607  0.0417  0.0869  0.1161
62645W        W 5698  13.338  29.281  19.067  0.0299  0.1372  0.1734
62646W        W 5699   5.927  30.810  27.629  0.1598 -0.0714 -0.1030
62647W        W 5700  22.522  24.318  19.683 -0.1472  0.0436 -0.0990
62648W        W 5701  29.186   1.028  22.132 -0.0162  0.2462  0.0500
62649W        W 5702  23.819  20.692   3.217 -0.0152 -0.3199 -0.1000
62650W        W 5703  17.750   3.651  21.114 -0.2919 -0.0290  0.3004
62651W        W 5704  19.659  17.327  21.593  0.2356 -0.1713  0.2220
62652W        W 5705  16.966  12.259  19.146  0.1659 -0.2745 -0.1637
62653W        W 5706  14.830  18.031   8.004  0.0877 -0.0021 -0.2848
62654W        W 5707   6.335  24.436   1.782 -0.1177 -0.4964  0.3160
62655W        W 5708  22.953  31.234  21.922  0.0279 -0.3002  0.3343
62656W        W 5709   3.085   5.277  26.411  0.0347  0.0386  0.0369
62657W        W 5710   7.020  30.658  15.531  0.1627 -0.0302 -0.1482
62658W        W 5711   6.163  31.869  15.116  0.1519 -0.1693 -0.2323
62659W        W 5712  11.914  32.499  20.791  0.1820  0.3136  0.1824
62660W        W 5713   0.890  21.829  18.695 -0.0524  0.0810 -0.2664
62661W        W 5714  14.258  17.631  24.067  0.0494  0.2457  0.3129
62662W        W 5715  16.919  29.074  22.224  0.3396  0.0054  0.0718
62663W        W 5716  16.152  21.592  21.565  0.3830  0.1962  0.0662
62664W        W 5717  22.905  30.124  13.449  0.1301  0.0464  0.1679
62665W        W 5718  11.825   3.824  20.393 -0.2602 -0.2938 -0.1968
62666W        W 5719  19.046   2.070  14.340 -0.1456 -0.1918  0.2012
62667W        W 5720  24.060  24.504  27.434  0.1938  0.0514  0.0720
62668W        W 5721  16.847  25.078  25.237  0.1516 -0.1298 -0.0542
62669W        W 5722  19.007  32.870  19.645  0.0562 -0.1486 -0.4332
62670W        W 5723   4.118  19.815   8.772 -0.2316 -0.2392 -0.0190
62671W        W 5724   7.891  14.411  16.498 -0.1981  0.0937  0.0183
62672W        W 5725   0.916  21.075  28.073 -0.2135 -0.1087  0.4195
62673W        W 5726   2.256  29.916  21.357  0.3816 -0.0697  0.0512
62674W        W 5727  29.453  30.884   3.667 -0.2056 -0.0036  0.0308
62675W        W 5728  21.453   1.979  14.999 -0.2485  0.0788  0.2057
62676W        W 5729  12.541  17.082  19.325  0.1297  0.0409  0.1133
62677W        W 5730  31.572  15.434  28.861 -0.2075  0.2707  0.1039
62678W        W 5731   6.676   3.864   0.850  0.0626  0.0183  0.2752
62679W        W 5732   1.283  20.901   3.908 -0.0237 -0.1432 -0.2879
62680W        W 5733  25.630  31.957  17.269  0.0383 -0.0203  0.0670
62681W        W 5734  22.182  15.976  15.590 -0.0949  0.0335 -0.0890
62682W        W 5735  16.566  26.496  27.397 -0.1344 -0.1674  0.1426
62683W        W 5736   5.383  21.394  13.014 -0.1783  0.1263  0.2181
62684W        W 5737  21.490  25.427  23.767 -0.0838  0.1277  0.0617
62685W        W 5738   2.042  18.050   2.093  0.3194  0.0539  0.1814
62686W        W 5739   7.473  19.291  16.506  0.0106 -0.2008  0.1099
62687W        W 5740   7.463  21.482  21.556  0.0892 -0.1353  0.3357
62688W        W 5741  20.235  22.134  14.323  0.2765 -0.2963 -0.2392
62689W        W 5742  10.165  28.743  22.188  0.3129  0.0165  0.1385
62690W        W 5743   7.734  13.266   7.398 -0.0028  0.1453 -0.2840
62691W        W 5744  15.846  21.522   8.931  0.3673  0.1367  0.2425
62692W        W 5745   8.520  31.888  19.415  0.3064 -0.0246 -0.1170
62693W        W 5746   9.300  26.255   7.056  0.0427 -0.0861  0.3994
62694W        W 5747  32.295  29.524  16.136  0.0103 -0.0941 -0.3760
62695W        W 5748  17.096  16.715  15.086  0.1558  0.0521 -0.0758
62696W        W 5749  32.690  29.536  21.594  0.2852  0.0612  0.3463
62697W        W 5750  13.957  26.510  22.695  0.2103 -0.5468 -0.0188
62698W        W 5751   3.368  34.552   5.001  0.0764  0.0617 -0.1336
62699W        W 5752  16.399   1.742  17.135  0.0326  0.0483 -0.1982
62700W        W 5753  19.822  18.308  22.866  0.2259 -0.0751  0.1875
62701W        W 5754  28.806  26.293  17.945  0.0511 -0.0505  0.1996
62702W        W 5755  31.083  18.619   0.106 -0.1559  0.1506  0.1096
62703W        W 5756   8.079  18.916  24.294 -0.1596  0.1874  0.0433
62704W        W 5757  12.287  20.110  21.068  0.0689  0.0742  0.0149
62705W        W 5758  19.091  27.975   4.327 -0.2118  0.1043  0.0267
62706W        W 5759  11.206  23.732  23.374 -0.2183  0.1341 -0.2195
62707W        W 5760  27.649  22.822  17.463 -0.0187 -0.0187 -0.0292
62708W        W 5761   8.477  28.593  26.776  0.1910  0.0458 -0.1790
62709W        W 5762  14.926  19.438  22.679 -0.0745  0.0728  0.1536
62710W        W 5763  19.566  24.024   0.526 -0.0826  0.0307  0.1240
62711W        W 5764   7.194  17.870  24.082 -0.3173  0.1032  0.0760
62712W        W 5765  29.594  18.553  21.440  0.3119  0.3780 -0.0034
62713W        W 5766   9.534  24.403  18.593 -0.2318 -0.3081 -0.1201
62714W        W 5767  31.999  28.332  16.610  0.1861  0.2219  0.0178
62715W        W 5768   7.333  19.245  22.178 -0.1949  0.3905 -0.0626
62716W        W 5769  28.281  19.501  15.497 -0.1208  0.1271 -0.1890
62717W        W 5770   7.731  26.908  18.542  0.3337 -0.0600 -0.0916
62718W        W 5771  26.285  29.307  28.432 -0.1793 -0.0092 -0.0899
62719W        W 5772  25.335   1.338  18.421  0.0627  0.0876 -0.1443
62720W        W 5773  11.359  17.093  15.657  0.1817 -0.2033  0.2432
62721W        W 5774  32.835  14.455  15.100  0.2189 -0.1481 -0.1705
62722W        W 5775  26.326  26.879   3.345 -0.0449 -0.2819  0.1579
62723W        W 5776  14.380  11.377  21.714 -0.1242  0.1506 -0.1437
62724W        W 5777  10.017  34.074  28.957  0.0963  0.0268  0.0445
62725W        W 5778  30.256  12.146  17.706 -0.3549 -0.0465  0.3994
62726W        W 5779  11.666  22.715  28.011  0.1515 -0.0325  0.0840
62727W        W 5780  13.336  13.712  19.731 -0.0888  0.1037  0.2199
62728W        W 5781   4.778  14.989  21.195  0.0093  0.0491  0.0237
62729W        W 5782  16.491  24.763  29.172  0.1713  0.2518 -0.1711
62730W        W 5783  11.401  20.611   9.633 -0.1321 -0.0697 -0.1144
62731W        W 5784   3.683  21.175   9.224  0.0545  0.0556 -0.0485
62732W        W 5785   4.763  21.064  27.783  0.0112 -0.0838  0.1294
62733W        W 5786   7.320  20.499  26.311  0.0674 -0.0946  0.0557
62734W        W 5787  33.390  13.855   2.845  0.0512  0.1078  0.2400
62735W        W 5788  13.969  24.074  18.209 -0.1644 -0.0962  0.1793
62736W        W 5789  25.183  30.115   9.312  0.2674 -0.2063  0.1949
62737W        W 5790   9.458  17.500  25.904  0.2632  0.3863  0.2952
62738W        W 5791  27.299   4.576  19.502 -0.3756  0.0868 -0.0299
62739W        W 5792  15.326  19.706  21.431 -0.3970  0.1646 -0.1069
62740W        W 5793   2.900  29.582  27.389  0.2579 -0.2034 -0.2403
62741W        W 5794  15.596  12.682  17.102 -0.1257 -0.0735 -0.0955
62742W        W 5795  11.471  29.982   7.377 -0.0169 -0.2212  0.2606
62743W        W 5796  15.521  19.459  25.848  0.0309  0.2699  0.2078
62744W        W 5797  24.911  25.798  20.001  0.1431 -0.0367  0.1052
62745W        W 5798  16.113   4.345  14.563  0.0082  0.0104 -0.2721
62746W        W 5799  30.896   6.435  16.738  0.2751  0.0576  0.3131
62747W        W 5800  13.998  19.296   3.419 -0.3075 -0.0492  0.2466
62748W        W 5801  17.171  31.364  15.761  0.1020  0.1202  0.0743
62749W        W 5802  10.870  28.743  22.443  0.2964 -0.0177 -0.2321
62750W        W 5803  14.203  17.921   2.862 -0.0623  0.0795  0.1153
62751W        W 5804  19.283  29.883  17.586 -0.0357 -0.0691 -0.1417
62752W        W 5805   8.224  19.276  18.721  0.3092  0.0976 -0.0279
62753W        W 5806   2.535  21.401  14.546 -0.0176  0.1858  0.2681
62754W        W 5807   6.056  24.100  20.059  0.0678 -0.2301  0.3056
62755W        W 5808  30.380  28.648   1.865  0.0033 -0.1667  0.0140
62756W        W 5809   5.194  14.651  19.413  0.1656  0.0561  0.2280
62757W        W 5810  30.222  27.373  16.654 -0.1477  0.0474  0.1019
62758W        W 5811   9.619  20.656   1.111  0.0108 -0.2198  0.3115
62759W        W 5812  12.616   5.890  15.831 -0.0204  0.2003 -0.0754
62760W        W 5813  23.324  26.716  16.099  0.3282 -0.1045  0.4415
62761W        W 5814  12.019  22.726   1.468  0.1396 -0.3097 -0.1328
62762W        W 5815   5.552  29.918  16.402 -0.2247 -0.0707 -0.3359
62763W        W 5816  17.971  27.772   5.545 -0.0172  0.0188 -0.3349
62764W        W 5817   4.081  31.072  20.331  0.2220  0.0441 -0.2752
62765W        W 5818  15.450  28.667  15.598  0.0872  0.1308 -0.2514
62766W        W 5819   3.722  28.914  23.051 -0.0392  0.2642  0.3657
62767W        W 5820  12.088  29.390   7.284  0.4821 -0.1937 -0.4287
62768W        W 5821  11.400  28.124  23.770  0.2849 -0.1573 -0.1274
62769W        W 5822  14.033   5.317  25.523  0.2587  0.2551  0.1580
62770W        W 5823  18.756  33.460  24.024  0.2734  0.0273  0.1499
62771W        W 5824   2.371   0.893   0.707  0.0946  0.0070  0.0956
62772W        W 5825  10.800  31.975  14.629 -0.0799  0.0732 -0.1109
62773W        W 5826   8.673  33.483  21.507  0.5106 -0.0208  0.1554
62774W        W 5827  11.161  14.411  10.624 -0.1468  0.1688  0.0642
62775W        W 5828   3.153  13.797  22.702 -0.1328  0.0437 -0.1331
62776W        W 5829  11.943  31.647  22.457 -0.2546 -0.2722  0.2034
62777W        W 5830  34.023  17.945   3.964 -0.0838 -0.0695 -0.0330
62778W        W 5831   2.669  20.137  24.335 -0.0356  0.3140 -0.5682
62779W        W 5832  19.804  32.410   6.919 -0.0934  0.0887 -0.0471
62780W        W 5833  25.348  20.190   6.761  0.3688 -0.1214 -0.3608
62781W        W 5834  17.981   2.442   2.122  0.0387  0.1538  0.0585
62782W        W 5835  19.682  17.567  18.440  0.4416  0.2436 -0.1233
62783W        W 5836  11.036  20.783  21.831 -0.2517  0.0091  0.2388
62784W        W 5837  27.978   8.445   2.318 -0.1946 -0.0180 -0.2742
62785W        W 5838  24.768   3.985  20.059 -0.0843  0.1378  0.1494
62786W        W 5839   9.239  12.334  14.420 -0.0471 -0.0345  0.0361
62787W        W 5840   2.204  27.802  15.076  0.1611 -0.1552  0.0863
62788W        W 5841  10.588  22.783  23.066 -0.0319 -0.1481 -0.2373
62789W        W 5842   6.780  30.676  23.366 -0.0426  0.1403  0.1821
62790W        W 5843  14.696  26.055  25.823 -0.0320 -0.1555 -0.0127
62791W        W 5844  24.613  15.637  15.236  0.0473 -0.1458 -0.2398
62792W        W 5845   6.935  17.423  15.748 -0.0952  0.1058  0.0154
62793W        W 5846   4.404  19.001  18.396 -0.0205  0.1588 -0.0026
62794W        W 5847   9.390  17.036  22.519 -0.2074 -0.2555 -0.3524
62795W        W 5848  12.319   8.176  18.849  0.2330  0.0955 -0.2370
62796W        W 5849   8.098  18.603  15.926  0.1444 -0.2226  0.1467
62797W        W 5850  22.891  29.723   2.376  0.1086  0.1563  0.0759
62798W        W 5851  26.492  24.775  24.496 -0.2596 -0.0635  0.0949
62799W        W 5852  18.531  26.424  18.110 -0.2964  0.2827 -0.2436
62800W        W 5853  31.342  25.634   6.148  0.0948  0.0982 -0.0261
62801W        W 5854   9.831  21.281   9.310 -0.3047  0.1414 -0.1652
62802W        W 5855   6.803   7.703  18.191  0.1030  0.1402 -0.0386
62803W        W 5856  28.354  17.476  25.030  0.2611  0.0325  0.3301
62804W        W 5857  13.500  17.693  25.118  0.0852  0.1055  0.1213
62805W        W 5858   9.160  29.115   5.215  0.0681  0.4586 -0.2619
62806W        W 5859  17.397  23.406  17.096  0.2217 -0.0357  0.0847
62807W        W 5860  34.293  24.328  28.166  0.0462 -0.0881 -0.2294
62808W        W 5861  29.237   0.892  20.697 -0.0296 -0.0131  0.0940
62809W        W 5862  19.483  33.275   6.149  0.1865 -0.0197  0.1823
62810W        W 5863  29.662  29.408  27.742  0.2051 -0.2848 -0.0991
62811W        W 5864  25.218  20.782  17.916  0.1883  0.3130 -0.4983
62812W        W 5865   0.608  32.530  25.040  0.1858 -0.2582 -0.0004
62813W        W 5866   3.747  34.112  20.700  0.1152 -0.0749  0.1854
62814W        W 5867  10.891  27.633  24.166  0.1274  0.0941 -0.3139
62815W        W 5868  19.573  25.727  16.806  0.0654  0.1280  0.2096
62816W        W 5869   6.576  24.908  14.534 -0.1605  0.2240 -0.1775
62817W        W 5870  13.718  28.192  25.888  0.0399  0.2413 -0.0399
62818W        W 5871  20.365  10.580   1.637  0.3240  0.0848  0.1426
62819W        W 5872   9.636  21.537  27.674  0.1881  0.1831  0.2509
62820W        W 5873  21.805  33.205   3.734  0.0686  0.0180  0.0854
62821W        W 5874  16.113  12.343  16.196  0.1332 -0.2044  0.2050
62822W        W 5875  20.326  29.029  22.493  0.2889  0.0608  0.1806
62823W        W 5876  22.516  18.217  19.765 -0.1753 -0.0814 -0.0594
62824W        W 5877  16.668  34.435   9.385 -0.1550 -0.2285 -0.2116
62825W        W 5878  20.814  25.074  23.035 -0.0904  0.0299 -0.0884
62826W        W 5879  28.785  30.636  18.889  0.1417 -0.0763 -0.0717
62827W        W 5880   0.896   9.772   4.733 -0.0424  0.3978  0.0958
62828W        W 5881   7.674  22.092  14.599 -0.1075 -0.0252 -0.0680
62829W        W 5882  11.436  17.402  15.291  0.0751 -0.2799  0.2594
62830W        W 5883  11.654  13.335  20.388  0.2555  0.2592 -0.1953
62831W        W 5884  10.202   4.153   6.126 -0.1138  0.2666  0.3193
62832W        W 5885  26.577   9.713  24.814 -0.2851 -0.0441 -0.1070
62833W        W 5886  11.117  33.607  18.387 -0.1667  0.2422  0.0938
62834W        W 5887  19.094  26.414  16.980  0.0693  0.0598 -0.6417
62835W        W 5888   6.163  32.705  27.784 -0.4207 -0.1009  0.0063
62836W        W 5889  21.458  28.693  15.359 -0.0521 -0.0716 -0.0110
62837W        W 5890  13.458   6.511  28.188  0.1489  0.0065 -0.0664
62838W        W 5891  14.365  21.019  17.532 -0.1906 -0.0305 -0.1310
62839W        W 5892  16.860  29.167  28.919 -0.3620  0.3521 -0.2072
62840W        W 5893   5.898  19.858  15.437  0.2589 -0.2491  0.2624
62841W        W 5894  12.205   5.452  24.532 -0.0502 -0.0894  0.1310
62842W        W 5895  15.729  24.086   0.987 -0.2062 -0.4052 -0.1230
62843W        W 5896   7.498  18.337   2.066 -0.0894  0.0576  0.0486
62844W        W 5897   6.588  30.133  16.313 -0.1634 -0.2655  0.0173
62845W        W 5898   5.163  27.833  14.349  0.3179  0.0577  0.0032
62846W        W 5899  10.811   7.607   5.937  0.2727  0.4512 -0.0471
62847W        W 5900   7.478  34.274  15.241 -0.0448  0.3314 -0.0187
62848W        W 5901  19.336   1.531  10.130  0.2493 -0.1253 -0.0743
62849W        W 5902   8.866  31.289   1.395  0.6786  0.1205 -0.0512
62850W        W 5903  12.386  21.600  26.565 -0.0152 -0.0300 -0.0734
62851W        W 5904  25.713   3.182  23.025  0.0020 -0.0588 -0.3115
62852W        W 5905  21.329   4.716   1.799  0.0155 -0.4636 -0.1668
62853W        W 5906  15.060  24.459  16.992 -0.2941  0.0308  0.0910
62854W        W 5907  10.208   2.805   4.246 -0.3234  0.1896  0.0293
62855W        W 5908  21.661  13.474  27.031 -0.0865 -0.0752  0.0688
62856W        W 5909  12.341  22.892  20.155  0.2619 -0.1869 -0.3873
62857W        W 5910  17.013  19.421  28.597  0.0832  0.0768 -0.0888
62858W        W 5911   1.472  22.997   0.920 -0.1975 -0.0923  0.2943
62859W        W 5912  24.496  19.324  27.865  0.1091 -0.0405  0.4160
62860W        W 5913   4.862  24.106  19.840 -0.2036  0.0759  0.1857
62861W        W 5914  13.030  19.970  16.430 -0.2927 -0.1152  0.2044
62862W        W 5915  21.000  18.827  25.746 -0.2909 -0.2627  0.0973
62863W        W 5916   6.047  19.536  22.537  0.2496  0.1045  0.0245
62864W        W 5917  12.696  31.675   6.617  0.0898  0.4277 -0.0571
62865W        W 5918  12.435  21.278  21.953 -0.1591 -0.1062 -0.0921
62866W        W 5919  17.947   5.224  27.095  0.4447 -0.2281 -0.0039
62867W        W 5920   4.172  17.211  18.823  0.1800  0.0364  0.0108
62868W        W 5921  17.272  24.323  21.035  0.1229 -0.2876  0.4999
62869W        W 5922  17.072  11.963  14.136  0.2409  0.0191 -0.2065
62870W        W 5923  11.088  29.792   8.965  0.2067  0.0704  0.0603
62871W        W 5924  18.129  25.861  15.337 -0.0736 -0.1320  0.2614
62872W        W 5925  11.302  13.411  27.111  0.2185 -0.0189 -0.1728
62873W        W 5926  19.966  26.007  17.074 -0.1035 -0.1817 -0.2011
62874W        W 5927  17.142   3.592   3.940  0.0178  0.2443  0.0320
62875W        W 5928   2.030   4.302  20.222 -0.2150 -0.3174  0.0199
62876W        W 5929  16.537  18.113   0.064  0.0790 -0.3182 -0.0267
62877W        W 5930   3.112  12.371  20.897  0.1339  0.0702 -0.1215
62878W        W 5931  15.825   0.112   7.291  0.2280 -0.0136  0.0634
62879W        W 5932  16.005  29.805  16.305  0.1574  0.2897  0.0529
62880W        W 5933   2.719  17.200  25.359 -0.1179  0.0557 -0.0871
62881W        W 5934   9.060  28.541  15.773 -0.1615 -0.4827 -0.0206
62882W        W 5935  21.594  27.445  22.863  0.1010  0.0415 -0.3473
62883W        W 5936  21.900  25.986  15.345  0.0598  0.0656  0.2813
62884W        W 5937  10.360  25.996   2.696  0.0367  0.3195 -0.4026
62885W        W 5938   2.440  25.586   4.087 -0.1485  0.0009  0.1571
62886W        W 5939  11.550  25.356   3.493 -0.2167  0.4141  0.1244
62887W        W 5940  20.303  18.716   2.440  0.1351 -0.0892  0.2623
62888W        W 5941  16.277  29.136  17.934 -0.0174 -0.1278  0.0460
62889W        W 5942  12.320  10.829  19.492 -0.2746  0.0517 -0.2443
62890W        W 5943  13.075  26.174  19.578  0.1528 -0.0102  0.0265
62891W        W 5944  16.083  27.158  23.271  0.2576 -0.1944 -0.0146
62892W        W 5945  32.055   7.537   7.104  0.1442 -0.0714 -0.0084
62893W        W 5946  13.249  27.744   4.140 -0.0245 -0.2972  0.0691
62894W        W 5947   4.739  15.712   0.314 -0.0980  0.1637 -0.0013
62895W        W 5948  31.717  14.041   1.102 -0.1893  0.0994 -0.0019
62896W        W 5949  11.586  23.082   2.339 -0.0746 -0.0584 -0.0779
62897W        W 5950  21.402  27.066   3.569 -0.0624  0.2906  0.0390
62898W        W 5951  10.297  34.525  21.552  0.0494 -0.0151 -0.0469
62899W        W 5952  19.990  21.904  16.525  0.3540  0.1234  0.2063
62900W        W 5953   0.091   5.495  14.240  0.0415 -0.2250 -0.1038
62901W        W 5954  18.323  31.512   0.991 -0.3165  0.0009 -0.0771
62902W        W 5955   8.249  22.174   0.430 -0.2638  0.0666 -0.1217
62903W        W 5956  13.926  23.503  22.691  0.1493 -0.1944  0.3757
62904W        W 5957   2.048  28.273  14.903 -0.1239  0.1965  0.3250
62905W        W 5958   1.745  30.769  15.182  0.2567 -0.0155 -0.0473
62906W        W 5959   7.503  27.640  27.453 -0.0045  0.2834 -0.1223
62907W        W 5960  32.740  11.324   4.232 -0.0290  0.1620 -0.0679
62908W        W 5961   1.315  28.115  22.286 -0.1415  0.0984  0.3853
62909W        W 5962  27.258  16.070   2.480  0.2174 -0.1155  0.0280
62910W        W 5963  26.194  24.401  21.576 -0.0782  0.0762  0.1913
62911W        W 5964   9.726  17.264  28.279  0.1042  0.0565  0.1025
62912W        W 5965  24.096  29.314  27.685  0.1970 -0.0820 -0.0500
62913W        W 5966  15.050  10.403  19.263  0.0060  0.2013  0.0070
62914W        W 5967   4.340   4.797  22.939  0.2684  0.2237  0.0834
62915W        W 5968   3.368  14.836  21.963 -0.1175 -0.0724  0.0020
62916W        W 5969  25.143  20.231  25.272 -0.0967 -0.0023 -0.2065
62917W        W 5970   4.739  10.255  20.773 -0.0788 -0.0437  0.2963
62918W        W 5971  20.713  22.986  18.838  0.0946  0.0904  0.1087
62919W        W 5972  29.970  21.248  24.125  0.2172  0.3259  0.0095
62920W        W 5973   1.997  23.621   5.545  0.2040  0.2505  0.1929
62921W        W 5974  19.655  33.596  17.087  0.1175  0.1597 -0.0759
62922W        W 5975  32.131  17.799  17.304  0.1589  0.2301  0.2431
62923W        W 5976  10.484  25.848   0.807 -0.3291 -0.0459 -0.0994
62924W        W 5977  12.257  21.204   2.197 -0.0134 -0.4462 -0.0321
62925W        W 5978   2.766  13.533  28.756 -0.0831  0.3985 -0.0425
62926W        W 5979  27.113  27.697  27.035 -0.1857 -0.0625 -0.2851
62927W        W 5980   1.280   5.071  24.966  0.0393  0.0856  0.0734
62928W        W 5981  20.407  25.964   1.960 -0.0221  0.2726 -0.3380
62929W        W 5982  25.776  26.098  25.916  0.0910 -0.2183  0.0841
62930W        W 5983  22.179  20.299   7.487  0.2515 -0.0684 -0.1897
62931W        W 5984  11.189  19.105  24.084  0.1870  0.1297  0.0598
62932W        W 5985   7.411  13.964  15.347 -0.1344 -0.1396 -0.2143
62933W        W 5986  31.061  18.649  26.000  0.0547 -0.1856  0.1141
62934W        W 5987   2.877  13.285   0.423  0.0728 -0.0328  0.1520
62935W        W 5988   5.000  12.119  28.284  0.2143  0.1833  0.2911
62936W        W 5989   6.395  15.696  28.685 -0.1975  0.0306  0.2834
62937W        W 5990  24.261  20.957   6.500  0.3318 -0.0589  0.1298
62938W        W 5991  17.373  11.217   8.980 -0.0067  0.4188  0.0272
62939W        W 5992   5.187  11.188  24.603 -0.3015  0.4043  0.4060
62940W        W 5993   9.111  31.601  25.298  0.1421 -0.1704  0.1073
62941W        W 5994  16.017   9.583   3.907  0.1032 -0.1928 -0.0915
62942W        W 5995   4.498   3.987  24.558  0.0421  0.2115 -0.2585
62943W        W 5996   9.700   0.647  20.786 -0.0793  0.1509 -0.0914
62944W        W 5997   1.329  26.115  23.544  0.1601  0.1103  0.0406
62945W        W 5998  10.565  29.422  26.468  0.4792  0.0599  0.0348
62946W        W 5999  22.286  14.107   7.213 -0.0519  0.0890  0.0830
62947W        W 6000  20.544  26.075  24.047  0.1804 -0.0096  0.1685
62948W        W 6001  11.882  22.144   2.267  0.0520  0.1588 -0.3690
62949W        W 6002   8.247  16.307  18.592 -0.0422  0.0611 -0.1820
62950W        W 6003   0.211  15.919   7.818 -0.1550  0.0187 -0.1241
62951W        W 6004  11.354  27.877  13.201  0.2317  0.0139 -0.3495
62952W        W 6005  23.915  31.183  23.048 -0.0451  0.0122  0.0273
62953W        W 6006  17.841   3.816   8.174 -0.1572 -0.0416 -0.0168
62954W        W 6007  25.292  26.272  28.425  0.1444  0.1359 -0.0671
62955W        W 6008  27.516   6.705  15.711 -0.1224 -0.2743 -0.0537
62956W        W 6009  16.207  19.305   8.796  0.0291  0.0146 -0.3881
62957W        W 6010  15.710  17.626  23.035  0.0749  0.0299 -0.3451
62958W        W 6011   1.089   4.322  26.812 -0.1206  0.0179  0.1743
62959W        W 6012   5.346  26.397  26.635  0.0627 -0.5037  0.5314
62960W        W 6013   9.580  13.078  22.589 -0.1909  0.2100  0.2410
62961W        W 6014  18.546  34.082   8.291  0.3712  0.0721  0.1042
62962W        W 6015  17.424  16.235  13.957 -0.3266  0.2774  0.0200
62963W        W 6016  10.197  14.633   5.850 -0.0090  0.0987 -0.0495
62964W        W 6017   2.127  19.814  27.622  0.1942 -0.1739 -0.0969
62965W        W 6018  13.906  27.330   7.836 -0.1746 -0.1239  0.0612
62966W        W 6019   0.637   4.909   6.116 -0.1680 -0.1547 -0.0293
62967W        W 6020  28.445  26.767  16.182 -0.0112 -0.1245 -0.0807
62968W        W 6021   2.307  19.476  21.195  0.0874 -0.0129 -0.3628
62969W        W 6022  28.671  21.438  29.088 -0.2737 -0.1170  0.0008
62970W        W 6023  14.258  21.455   0.961  0.1252 -0.3004  0.3021
62971W        W 6024   0.268   9.606  27.695 -0.0541 -0.3004 -0.1546
62972W        W 6025   2.102   1.996  23.553 -0.0249 -0.0413 -0.0792
62973W        W 6026   3.826  22.027  25.809  0.0545  0.0799  0.3061
62974W        W 6027  13.231  25.504  27.109  0.0239 -0.3728 -0.1950
62975W        W 6028   4.885  19.811  19.184  0.0205 -0.4458 -0.0672
62976W        W 6029  17.446  11.290  21.305  0.1154  0.2072 -0.1638
62977W        W 6030  21.848  18.836  16.223 -0.0896  0.0542  0.1223
62978W        W 6031  15.212  21.233   0.057 -0.3657  0.3626 -0.0870
62979W        W 6032  20.808  24.440   6.616 -0.1614 -0.1847 -0.1644
62980W        W 6033  20.706  16.852  26.790 -0.0040  0.0446 -0.0739
62981W        W 6034   2.616  25.822   0.069 -0.1197  0.0176  0.0074
62982W        W 6035   5.827  27.334  19.631 -0.1472  0.0635  0.1408
62983W        W 6036   3.051  16.207  18.281 -0.1690  0.1183  0.0102
62984W        W 6037   6.473  22.955  18.082  0.3822  0.1262  0.0583
62985W        W 6038  22.109  16.355  15.216  0.0597 -0.4694  0.0241
62986W        W 6039   3.234  28.883   5.988  0.0389 -0.2447 -0.2675
62987W        W 6040   9.688  14.940   0.344  0.0104  0.1753 -0.0948
62988W        W 6041  10.626  19.937  23.782  0.2506 -0.0209  0.1115
62989W        W 6042  33.189   4.369  27.281  0.1430  0.0126 -0.1785
62990W        W 6043  27.421  22.734  27.213 -0.2090  0.0114 -0.2197
62991W        W 6044   1.544  28.422  16.030 -0.3647 -0.1287 -0.0190
62992W        W 6045  14.170  17.709  26.711 -0.1016 -0.3858 -0.4215
62993W        W 6046  14.032  23.577  14.316  0.1888  0.4133 -0.1069
62994W        W 6047  33.718  31.402   0.161 -0.0191  0.1322 -0.0132
62995W        W 6048  26.356  26.488  22.497  0.1484  0.3101  0.3046
62996W        W 6049  21.260  12.216   3.409  0.1736 -0.2335 -0.2176
62997W        W 6050  18.411  14.136   7.981  0.1581  0.2593  0.2338
62998W        W 6051  19.901  21.554   6.567 -0.0064 -0.3458  0.0800
62999W        W 6052  21.901  19.655  17.526 -0.0968 -0.4417 -0.2273
63000W        W 6053  21.135  31.292   8.675 -0.1068 -0.0848  0.1444
63001W        W 6054  17.745  27.390   3.354  0.2780  0.0302 -0.0118
63002W        W 6055  31.356   9.212   5.885  0.0288 -0.1702  0.0242
63003W        W 6056  24.818  14.907   1.958 -0.4197  0.0511  0.0996
63004W        W 6057  31.613  26.228   1.811  0.0661 -0.0907  0.0035
63005W        W 6058   4.496  23.339  25.673  0.0382 -0.2402  0.1166
63006W        W 6059  22.405  25.348  23.184  0.0895 -0.0354 -0.0156
63007W        W 6060  18.960  19.731   9.327  0.0358  0.4108 -0.2301
63008W        W 6061  20.110   5.601   8.365 -0.1616 -0.0728 -0.2811
63009W        W 6062  22.243  15.706   2.081 -0.4110 -0.2523 -0.0013
63010W        W 6063  10.149  21.546  19.965  0.1720 -0.1870 -0.0741
63011W        W 6064  26.579  12.606   4.931  0.2225  0.0941 -0.2868
63012W        W 6065  10.179  31.288  24.710 -0.0490 -0.0206  0.3141
63013W        W 6066   1.146  16.732   0.099 -0.2725 -0.2017 -0.1086
63014W        W 6067  10.786   4.050   3.152  0.0450  0.1190  0.2174
63015W        W 6068  31.411   0.713   8.548  0.0296  0.2003 -0.0747
63016W        W 6069  18.250  24.184  22.221  0.2972 -0.1192 -0.0095
63017W        W 6070  15.069   5.085  21.981  0.5337  0.0788 -0.4802
63018W        W 6071  14.029  14.530  28.324  0.3025 -0.0135  0.1944
63019W        W 6072   4.529  13.825   8.220 -0.2260  0.1366 -0.1337
63020W        W 6073  27.810  31.036   9.495  0.0911  0.2191  0.2000
63021W        W 6074  19.343  14.450   4.671 -0.3278 -0.2739  0.1535
63022W        W 6075  10.141  29.473   6.011 -0.2049  0.3046  0.1771
63023W        W 6076  18.905  16.557  27.400 -0.0896 -0.1142  0.1905
63024W        W 6077  14.059  20.154  17.960  0.1296 -0.0969 -0.0145
63025W        W 6078  13.970  28.699  25.855 -0.0548 -0.2229  0.1575
63026W        W 6079  24.160  16.670  22.562  0.0258  0.2942  0.3620
63027W        W 6080  30.990  20.797   6.939  0.0756  0.2365 -0.4240
63028W        W 6081  15.166  31.677   5.014 -0.0045  0.0378  0.0169
63029W        W 6082  34.061  24.100  22.990  0.1026  0.1211  0.0458
63030W        W 6083  19.889   3.311  10.126 -0.1217  0.2777  0.3499
63031W        W 6084   9.999  25.637   2.729 -0.0142  0.0178 -0.0158
63032W        W 6085  10.829  34.565   4.885 -0.1868  0.0391 -0.2132
63033W        W 6086  15.858  27.793   5.199 -0.1963  0.2651 -0.0250
63034W        W 6087  17.179  23.826   2.906  0.0335 -0.2831  0.0202
63035W        W 6088   7.698  25.619  23.053 -0.0556  0.4162  0.0239
63036W        W 6089  34.013  13.922   4.068  0.1402  0.1468 -0.0602
63037W        W 6090  21.207  13.848  24.155 -0.0457  0.0357  0.1631
63038W        W 6091  18.466   2.302  28.356 -0.1948  0.1071 -0.0908
63039W        W 6092  11.437  13.185   9.240 -0.0664  0.3044  0.2177
63040W        W 6093  15.663  24.967   7.451 -0.3555  0.2033 -0.0202
63041W        W 6094  14.985  21.822  17.253  0.0147  0.0502  0.0594
63042W        W 6095  32.071  11.444   3.343  0.2023  0.0491 -0.0507
63043W        W 6096  12.841  32.123   6.650 -0.2240 -0.4234 -0.1456
63044W        W 6097  16.439  21.974   7.116 -0.1782  0.0615 -0.1215
63045W        W 6098  22.014  11.551   5.803  0.0145  0.0185 -0.3358
63046W        W 6099  33.871   5.808   2.172  0.1616 -0.0653  0.2098
63047W        W 6100  11.921  32.342  26.619  0.0808  0.0724  0.0714
63048W        W 6101   8.059   1.421  21.603 -0.0258  0.1946 -0.0187
63049W        W 6102  10.538   5.390  23.857  0.0168  0.0040  0.1897
63050W        W 6103   8.750  32.649  23.900 -0.5660  0.0239  0.1604
63051W        W 6104   3.649  19.520  14.606 -0.1026  0.0596  0.1203
63052W        W 6105  16.302  15.233  14.316 -0.0119 -0.3550  0.1865
63053W        W 6106   7.160  24.943   5.279 -0.0611  0.1293  0.0798
63054W        W 6107   5.911  27.061  21.713  0.0329 -0.0095 -0.0060
63055W        W 6108  31.379  22.908  22.771  0.0925 -0.1947  0.1056
63056W        W 6109   7.346  28.190   3.260 -0.2996 -0.2792 -0.0105
63057W        W 6110   4.510  15.417  21.320 -0.1251  0.2840  0.3401
63058W        W 6111  26.384  24.751  23.842  0.2346 -0.1096  0.0607
63059W        W 6112   8.656   2.218  16.966  0.0339 -0.2784  0.0933
63060W        W 6113  10.860   9.234  20.467  0.2080 -0.3908 -0.0172
63061W        W 6114   5.274  12.625  23.992 -0.0434 -0.1116 -0.0065
63062W        W 6115   5.973  26.666   2.086 -0.1134 -0.3633 -0.1352
63063W        W 6116  14.033  20.401  26.594 -0.1379 -0.2568  0.1071
63064W        W 6117   9.692  12.086  25.698  0.0610 -0.0176  0.0403
63065W        W 6118  34.446   1.812   8.710 -0.0278 -0.1700  0.3391
63066W        W 6119   8.258  10.602   5.664  0.1885 -0.3491 -0.1422
63067W        W 6120  15.601  21.945   9.496 -0.5311  0.0495  0.0972
63068W        W 6121  25.350  29.575   8.057  0.1406 -0.1077 -0.2807
63069W        W 6122   3.045  31.540   0.274 -0.0453 -0.3132 -0.2458
63070W        W 6123  25.407  17.117   2.314 -0.0112 -0.1374 -0.0464
63071W        W 6124   4.810  24.342   3.164  0.2680  0.1122  0.1071
63072W        W 6125   5.794   8.984  26.640  0.0416  0.0565  0.0576
63073W        W 6126  17.437  26.986  20.077 -0.1102  0.1423  0.0481
63074W        W 6127  16.523  25.092  15.810 -0.1098 -0.1070 -0.1270
63075W        W 6128   7.263  31.233  18.324 -0.0036 -0.3274 -0.0645
63076W        W 6129  33.492  12.670  23.891  0.3761  0.0098  0.0303
63077W        W 6130   7.867  15.268  16.085 -0.0539 -0.1528  0.0415
63078W        W 6131  15.748  30.546  22.756  0.2460  0.1953 -0.0385
63079W        W 6132  12.738  30.890  14.434  0.3971  0.0354 -0.1709
63080W        W 6133  24.103  31.581   1.215 -0.0771 -0.4273  0.3310
63081W        W 6134   9.176  18.006  14.404 -0.0547 -0.2360  0.0213
63082W        W 6135  25.327  24.588  18.747 -0.3449  0.0137  0.0764
63083W        W 6136   7.553  29.887   0.746  0.0011  0.1598  0.1415
63084W        W 6137  16.290  33.993  16.161 -0.0153  0.2293 -0.0390
63085W        W 6138  30.680  23.356  17.633  0.0423  0.2719 -0.2124
63086W        W 6139  18.161  17.424   4.414 -0.3282 -0.4382  0.2893
63087W        W 6140   8.464  33.319   8.562 -0.1165 -0.1255 -0.0233
63088W        W 6141   7.593   3.348  18.092 -0.3024  0.0460 -0.1682
63089W        W 6142  16.360  25.582   4.063 -0.2355 -0.2635 -0.2176
63090W        W 6143   0.484  19.020   7.578  0.0434 -0.3612 -0.3555
63091W        W 6144   7.300  29.725   9.102 -0.1517  0.1224  0.1515
63092W        W 6145  13.963  30.637   3.520  0.1137 -0.0478 -0.4376
63093W        W 6146  14.104  16.831   0.544 -0.1073 -0.2516 -0.1269
63094W        W 6147  29.966  12.982  21.547 -0.2431 -0.0011 -0.1308
63095W        W 6148   2.809  31.502  13.589  0.0242 -0.0961 -0.2609
63096W        W 6149  26.144  34.581  20.951  0.2135 -0.2487 -0.1809
63097W        W 6150  14.734  22.076  21.275  0.0373 -0.1422 -0.0736
63098W        W 6151  34.299  19.324  28.962  0.1609 -0.2564 -0.1048
63099W        W 6152  10.038   1.681  27.884  0.1661 -0.0744  0.3389
63100W        W 6153  12.511  31.233   4.596  0.0151 -0.0576 -0.4490
63101W        W 6154   0.949  33.954  13.220 -0.1936  0.1331  0.0241
63102W        W 6155  32.233  27.590   8.396 -0.1458 -0.5198 -0.0363
63103W        W 6156  18.808  24.287  24.292 -0.0104  0.0683  0.1723
63104W        W 6157   6.326  28.337  27.327  0.0767 -0.0031  0.1629
63105W        W 6158  21.618  25.516  26.061 -0.1275  0.2400 -0.0183
63106W        W 6159  31.781  22.028   6.636 -0.2346 -0.0602 -0.1083
63107W        W 6160  12.656  24.875   7.762 -0.0431 -0.0965  0.2216
63108W        W 6161  21.556   0.098  22.510  0.1210 -0.5577  0.1336
63109W        W 6162  24.427  25.727  17.445  0.1020 -0.0144  0.4328
63110W        W 6163  17.769  27.134  29.011  0.0635 -0.0912  0.1994
63111W        W 6164  25.157   1.222  24.013  0.1535 -0.0365 -0.2473
63112W        W 6165   9.770  19.063   6.237  0.1272  0.0723  0.3072
63113W        W 6166  13.472   6.242  18.878  0.2410  0.1108 -0.0435
63114W        W 6167  17.475  22.733   8.760  0.0462 -0.2954 -0.1579
63115W        W 6168   6.368  19.536  13.152  0.4130 -0.1476 -0.1917
63116W        W 6169  19.945   7.850  26.266  0.0009 -0.1068 -0.4376
63117W        W 6170  13.615  23.684  21.955 -0.1763 -0.0997  0.1190
63118W        W 6171  12.190  22.889  14.246  0.1090  0.1297 -0.1393
63119W        W 6172   6.343   8.659  17.338 -0.1202  0.4322  0.0226
63120W        W 6173  25.929  30.825  29.082  0.0155  0.0721 -0.2285
63121W        W 6174   4.129  30.538  23.882  0.3049 -0.3368  0.2055
63122W        W 6175  18.894  22.785   7.457 -0.0852  0.0704 -0.1471
63123W        W 6176   6.189  18.597   7.056  0.1195 -0.0862 -0.2076
63124W        W 6177   5.556  19.731   6.972  0.1819  0.2219  0.0547
63125W        W 6178  11.833  25.397  28.901 -0.1948  0.0428 -0.1057
63126W        W 6179  23.508  15.801   2.451  0.0522  0.0910  0.0370
63127W        W 6180  13.913   6.913   2.291  0.2276 -0.0926  0.0531
63128W        W 6181  14.900  25.217   4.996 -0.1507 -0.2542 -0.1426
63129W        W 6182  10.526  10.233   9.818  0.0484  0.2255 -0.0475
63130W        W 6183   0.166  20.493   6.994 -0.2524  0.1039 -0.3837
63131W        W 6184   4.952  28.885  23.883 -0.3286  0.0586  0.1139
63132W        W 6185  17.925  30.341  18.500 -0.1583 -0.1264  0.1710
63133W        W 6186  31.507  24.074  17.634  0.1789 -0.1251  0.1225
63134W        W 6187   5.701  23.902  18.379 -0.1855  0.3244  0.1414
63135W        W 6188  25.349  22.850  23.629 -0.2109 -0.0406  0.1340
63136W        W 6189  25.273  26.793   3.813 -0.0682  0.2249  0.4018
63137W        W 6190  15.999  25.215  22.457  0.4272 -0.0194 -0.1673
63138W        W 6191  26.828  23.126  22.151 -0.0008 -0.2851  0.3652
63139W        W 6192  16.296  30.366  15.441  0.0686  0.2495  0.1423
63140W        W 6193  34.685  23.060  13.674 -0.0898  0.1975 -0.0619
63141W        W 6194   7.505  17.079  22.331 -0.1025 -0.2199 -0.1137
63142W        W 6195  20.415  27.661  23.765  0.1480 -0.0714  0.0555
63143W        W 6196   6.985  12.799  28.167 -0.0784 -0.2750 -0.0086
63144W        W 6197  26.746   0.051   7.390  0.0709 -0.1462  0.1301
63145W        W 6198  15.761   6.176   0.209  0.3285  0.0703  0.0316
63146W        W 6199   2.013  23.450  18.301  0.0134 -0.1218 -0.0063
63147W        W 6200  13.217   5.012  23.246  0.2958  0.2022 -0.2179
63148W        W 6201  11.158  11.268  24.565  0.2693  0.0899 -0.0627
63149W        W 6202   3.663  11.760  22.318 -0.1827  0.2535  0.1272
63150W        W 6203   1.475  29.158  27.045  0.1071  0.2169  0.3511
63151W        W 6204  13.200  30.287   1.837 -0.2060  0.1735  0.0379
63152W        W 6205  26.408  10.696  19.878 -0.1503  0.1334  0.0281
63153W        W 6206  33.252  30.792  19.461  0.0606 -0.1118 -0.2407
63154W        W 6207  33.496  30.131   5.246 -0.0271  0.4460  0.1921
63155W        W 6208   0.831  20.277  14.059  0.0636 -0.3359  0.1563
63156W        W 6209  11.499  23.292  25.941 -0.1528  0.3078 -0.0163
63157W        W 6210  26.291  26.374  17.116 -0.1841 -0.1510 -0.0736
63158W        W 6211   1.143  16.663   1.901 -0.0136  0.1989 -0.0405
63159W        W 6212  19.518  24.337  15.946 -0.0144 -0.1049  0.0563
63160W        W 6213  21.916  16.716  29.164 -0.2079  0.0262 -0.4434
63161W        W 6214  25.031  23.603  23.458 -0.1123 -0.1327 -0.1288
63162W        W 6215  33.945  26.142  26.417  0.2269  0.1477 -0.0668
63163W        W 6216  20.311  11.968  22.579 -0.3437  0.0636  0.1264
63164W        W 6217  12.309  11.378  24.327  0.1099  0.1586  0.1389
63165W        W 6218   6.792   7.440   7.750  0.0453 -0.3106 -0.2599
63166W        W 6219   1.179   4.556   1.498 -0.0989  0.0695  0.1780
63167W        W 6220   8.573  25.370  26.047  0.1534 -0.2642 -0.1064
63168W        W 6221  26.231  27.102   2.053 -0.1119 -0.0509  0.1776
63169W        W 6222  28.094  33.418  19.112  0.2765 -0.1368 -0.1769
63170W        W 6223  17.722  32.937   9.500  0.0139 -0.1560  0.1152
63171W        W 6224  10.338  30.367   5.138  0.0477 -0.2269 -0.0477
63172W        W 6225  32.969  25.675  16.006  0.2245  0.0166  0.0023
63173W        W 6226  27.674  15.122  28.104 -0.0873  0.0849 -0.0617
63174W        W 6227  19.643  33.992   2.375  0.1145  0.0850 -0.1310
63175W        W 6228  23.250  32.512   0.695 -0.0742 -0.2720  0.3005
63176W        W 6229  23.182   4.148   2.143  0.0523  0.0028  0.3252
63177W        W 6230   9.129  17.770  25.028 -0.0594  0.0697  0.0921
63178W        W 6231  26.178  28.061   6.451  0.3226 -0.1009 -0.3598
63179W        W 6232   5.596   3.201  28.327 -0.2616  0.0005  0.0990
63180W        W 6233  29.349   3.648   3.763  0.2599  0.1366 -0.0100
63181W        W 6234   5.494  21.033   6.198  0.2817  0.3163  0.0529
63182W        W 6235  30.188  25.803  15.639  0.1950 -0.0741 -0.0586
63183W        W 6236   6.686  28.679   0.401  0.0803  0.3300 -0.3064
63184W        W 6237  23.381  28.184  27.555 -0.0588  0.0345 -0.1425
63185W        W 6238   9.053  25.351   5.902 -0.1656 -0.0963  0.0113
63186W        W 6239  15.853  28.285   7.667 -0.0089  0.0511 -0.0100
63187W        W 6240  17.694   9.228  23.247  0.1392 -0.0882 -0.0777
63188W        W 6241  21.226  11.370   5.495 -0.1361  0.0905  0.0514
63189W        W 6242   9.749   9.069  21.897  0.0597  0.3249  0.0287
63190W        W 6243  16.001  21.833  19.098 -0.3205 -0.1849 -0.1037
63191W        W 6244  10.853  26.763  18.972 -0.0655  0.0657 -0.0069
63192W        W 6245   6.194  18.494   2.176 -0.0326  0.2815 -0.0197
63193W        W 6246  26.271   3.303   2.239 -0.0464  0.2192 -0.1186
63194W        W 6247  20.237  26.847  27.214  0.0739 -0.1162  0.4467
63195W        W 6248   7.934  29.779   4.223  0.0335  0.1736  0.1831
63196W        W 6249   5.339  29.727  22.264  0.4195 -0.1904 -0.1067
63197W        W 6250   7.708  20.255   0.796 -0.0285  0.0692 -0.4926
63198W        W 6251  33.411  21.295   8.734  0.0443  0.0069  0.2062
63199W        W 6252  13.770  30.747  26.275 -0.0374  0.0672  0.1250
63200W        W 6253   9.337  20.677   3.524 -0.1478 -0.1439 -0.1350
63201W        W 6254  13.077  16.688  27.486  0.2420  0.2126  0.0868
63202W        W 6255  17.268  14.055  15.659 -0.0357  0.0654  0.0249
63203W        W 6256   4.908  32.939  28.806  0.1111  0.1944  0.1334
63204W        W 6257   0.361  21.446   3.603 -0.2341  0.4282 -0.0520
63205W        W 6258  25.860  25.240  26.289 -0.1808 -0.3856 -0.3853
63206W        W 6259   6.127   6.406  15.704  0.0384 -0.2761 -0.2084
63207W        W 6260  13.725  21.610  17.222  0.0508 -0.1736 -0.0375
63208W        W 6261  19.319  23.569   7.182  0.0449 -0.0874  0.1156
63209W        W 6262   4.705   1.075  15.629 -0.2564  0.3135 -0.2057
63210W        W 6263   3.483  18.785  17.335 -0.1467  0.1198  0.1790
63211W        W 6264   9.906  32.914  22.090  0.1349 -0.0436  0.2730
63212W        W 6265  22.725  26.132   5.066 -0.1105 -0.0543 -0.4386
63213W        W 6266  10.045   1.785  26.316  0.1856  0.0425  0.2611
63214W        W 6267   8.644  10.230   9.461 -0.1787  0.2111  0.0438
63215W        W 6268  19.034  31.277   3.364  0.2880 -0.2539 -0.1104
63216W        W 6269  23.455  29.825   3.021 -0.0356  0.0781 -0.1584
63217W        W 6270  16.358  32.057  24.282  0.0738 -0.0422  0.0010
63218W        W 6271  30.920  25.566  28.437  0.2461 -0.0684 -0.1827
63219W        W 6272  34.328  21.868   5.343 -0.2292 -0.1948  0.0328
63220W        W 6273   1.937   9.994  23.265  0.1276 -0.0750  0.0972
63221W        W 6274  16.834  27.057  15.116  0.2842 -0.0262  0.2012
63222W        W 6275  12.729  15.696   5.125 -0.2022  0.0156  0.0354
63223W        W 6276  31.193  34.402  26.099 -0.0041  0.1115 -0.0667
63224W        W 6277   0.554  19.570  25.615 -0.1079 -0.4081 -0.2062
63225W        W 6278  13.905  30.030  23.789  0.0644  0.1961 -0.2950
63226W        W 6279  27.575  27.253   2.658 -0.1152 -0.3718  0.0643
63227W        W 6280   9.387  10.547  17.484  0.0798  0.2262 -0.1350
63228W        W 6281  11.559  26.941   0.789 -0.0642 -0.1467 -0.2293
63229W        W 6282  27.738  31.924  24.063 -0.1121 -0.0196  0.2936
63230W        W 6283   9.990  28.190  23.336 -0.1889  0.2611  0.2500
63231W        W 6284  19.590  22.662  22.139  0.1032  0.0510 -0.2189
63232W        W 6285  12.162  22.361   7.212 -0.0622 -0.0847 -0.2273
63233W        W 6286   8.879  25.721  21.720 -0.0781 -0.0017 -0.1547
63234W        W 6287   0.375  22.129   6.900 -0.1566  0.0303 -0.0259
63235W        W 6288  11.233   0.817   8.957 -0.0330 -0.2676 -0.0775
63236W        W 6289  27.064  20.533  21.227 -0.0313 -0.0186  0.0336
63237W        W 6290   7.887  18.961  28.151  0.0898 -0.2518  0.1934
63238W        W 6291  15.613  24.421  17.721 -0.2029 -0.0873 -0.1747
63239W        W 6292   6.802  27.569   4.441  0.4671 -0.0346 -0.1406
63240W        W 6293  13.850  29.881  15.617  0.0561  0.1038  0.1173
63241W        W 6294  12.835  19.753  23.674  0.1423  0.2507 -0.0872
63242W        W 6295  34.396  27.382  22.160  0.0210  0.6018  0.0373
63243W        W 6296  27.663  21.960   6.636 -0.0611  0.1362 -0.0631
63244W        W 6297   3.538   7.516  28.656  0.0146  0.0549  0.4378
63245W        W 6298   9.228   5.005   6.900  0.0463 -0.0647  0.1244
63246W        W 6299  27.265  20.975  29.157 -0.0242 -0.0371 -0.3022
63247W        W 6300   9.515  23.946   2.136 -0.0798  0.0803  0.0030
63248W        W 6301  24.173   1.420  22.774  0.0361  0.5843  0.0845
63249W        W 6302   9.512  23.793  28.796 -0.0915 -0.1232 -0.0518
63250W        W 6303  22.552   5.134   4.656 -0.1611 -0.1822  0.1435
63251W        W 6304  12.855   7.734  21.993 -0.0233 -0.2467  0.0534
63252W        W 6305   4.296  27.317   0.769 -0.1592  0.2837  0.1359
63253W        W 6306  15.528   0.055   8.739 -0.1237  0.1187 -0.1569
63254W        W 6307   9.407   9.006   9.226  0.1255  0.1864 -0.0311
63255W        W 6308  20.237   7.445  21.617  0.0333 -0.1762 -0.2019
63256W        W 6309  30.641  16.498  26.119 -0.1691  0.0661  0.0073
63257W        W 6310  19.383  24.096  17.462 -0.0438  0.0523 -0.5749
63258W        W 6311  20.479   6.364  24.052  0.0170  0.2355  0.0779
63259W        W 6312  34.670  10.474  19.727 -0.1090  0.0937 -0.2145
63260W        W 6313  31.203  17.671   8.719 -0.2459  0.0674 -0.0435
63261W        W 6314   4.467  14.448   9.448  0.0298 -0.1721  0.1345
63262W        W 6315   9.543   3.930  27.091  0.0402 -0.1721  0.1109
63263W        W 6316   8.151   4.291  27.794  0.0807  0.4857 -0.0230
63264W        W 6317  17.880  29.205   8.640  0.1727  0.1603  0.0579
63265W        W 6318  13.862  11.717  19.613 -0.1045 -0.2783  0.1223
63266W        W 6319   9.462  20.822  26.330  0.3796  0.1352 -0.0862
63267W        W 6320  30.073  17.401  27.627 -0.1251 -0.0937  0.2389
63268W        W 6321  18.788  25.466  16.332 -0.1389  0.1605 -0.1125
63269W        W 6322  19.713  14.444   5.016  0.1525  0.0791  0.2720
63270W        W 6323  34.335  12.463  20.347 -0.0456  0.1210  0.0581
63271W        W 6324   1.873  31.549   2.104  0.1284 -0.2767  0.4770
63272W        W 6325  13.416  29.312  26.023 -0.1815 -0.1623  0.2358
63273W        W 6326   9.584   4.309   2.650  0.0723  0.0421  0.1826
63274W        W 6327  10.701  16.567   2.157 -0.2223 -0.2049 -0.0534
63275W        W 6328  27.261  19.301  23.859  0.0859  0.0748 -0.1454
63276W        W 6329  17.675  25.028  23.543 -0.0501 -0.1195 -0.2444
63277W        W 6330  18.781   4.125  21.123 -0.0997 -0.0483  0.0269
63278W        W 6331  12.216  12.964  28.775 -0.3207 -0.2430  0.0413
63279W        W 6332  14.015   8.631   2.441 -0.3882  0.0803  0.1305
63280W        W 6333  20.481  10.064   4.516 -0.0728 -0.1284  0.0187
63281W        W 6334   8.461  18.341  16.117  0.0802 -0.0880 -0.1166
63282W        W 6335  13.259  10.890   9.921 -0.0733  0.0816 -0.1206
63283W        W 6336  26.978   6.383  25.783 -0.3897 -0.2084 -0.0009
63284W        W 6337  26.540   1.863  18.250 -0.0418 -0.2364 -0.1062
63285W        W 6338  25.008  25.990  27.003  0.1796  0.0529  0.1840
63286W        W 6339  10.210  24.877  14.850 -0.1580  0.2179  0.2098
63287W        W 6340  11.069  14.715   5.850  0.2334 -0.0054  0.3319
63288W        W 6341  27.652   4.558   2.136  0.2221 -0.1164 -0.2463
63289W        W 6342  16.233   3.489  10.515 -0.0577  0.2966 -0.1584
63290W        W 6343   3.167  29.251   3.942 -0.0233  0.1252  0.0442
63291W        W 6344  13.051   9.773  11.518 -0.3072 -0.0504  0.2792
63292W        W 6345  22.397  12.134   7.863  0.2740 -0.0408 -0.1887
63293W        W 6346  18.605  13.176   2.231 -0.0327 -0.1284  0.0001
63294W        W 6347  15.310  24.495  26.700 -0.2917 -0.0952  0.2835
63295W        W 6348  14.276  12.339  17.655  0.0425  0.0788 -0.0398
63296W        W 6349  28.741   7.677   8.199 -0.0258 -0.0652  0.3304
63297W        W 6350  20.847  20.603  10.550 -0.3304  0.2439 -0.0022
63298W        W 6351   5.788  20.668   2.850 -0.5284 -0.0401 -0.0155
63299W        W 6352  11.350   2.726  17.728  0.2006  0.1009  0.3881
63300W        W 6353  19.924   7.770  27.521  0.2997  0.2174  0.0503
63301W        W 6354  28.617  24.682  16.988  0.0365 -0.2294 -0.1179
63302W        W 6355  12.693  10.996  25.943 -0.2644  0.0574 -0.1022
63303W        W 6356  17.151  21.877   0.766 -0.0568  0.1482 -0.0133
63304W        W 6357  29.156  18.225   4.947 -0.0007  0.0233 -0.0983
63305W        W 6358   0.391  18.114  26.357 -0.2800 -0.1365 -0.1526
63306W        W 6359  29.103  26.156  14.306 -0.2216  0.2150 -0.2009
63307W        W 6360  20.623  32.760  28.379 -0.0272  0.0846  0.3161
63308W        W 6361   5.907  18.250  26.658 -0.1217 -0.1088 -0.0014
63309W        W 6362  17.420  24.440  22.890  0.0935  0.0584  0.1379
63310W        W 6363   6.830  16.072  18.892 -0.1705  0.1820  0.4493
63311W        W 6364   8.659  18.506  20.773 -0.0447  0.0587  0.1262
63312W        W 6365   0.756  25.190  26.553 -0.1044  0.0136  0.2603
63313W        W 6366  32.741  21.751  18.456  0.1106  0.0401  0.3368
63314W        W 6367  24.412   2.886  15.637 -0.2309 -0.0966  0.0063
63315W        W 6368   9.621   2.048  19.573 -0.1612 -0.1738  0.0621
63316W        W 6369  16.422  22.000  17.467 -0.0551 -0.0821  0.0180
63317W        W 6370  33.555  31.885  13.527 -0.2364 -0.1095 -0.0370
63318W        W 6371  26.813  18.074  18.577 -0.1962 -0.0606  0.2346
63319W        W 6372   5.530  22.665  23.468 -0.0989 -0.0846 -0.0769
63320W        W 6373   7.469  22.263  25.171  0.0697 -0.0332 -0.2421
63321W        W 6374  12.052   4.356  22.754  0.2792  0.1371  0.0752
63322W        W 6375  29.246   2.475   7.475 -0.0387  0.2351 -0.2996
63323W        W 6376  34.569  34.433  22.710  0.2951 -0.0217  0.2379
63324W        W 6377  15.495  13.658  15.639 -0.1555 -0.1716  0.0541
63325W        W 6378   3.575   1.644  21.590  0.2627 -0.1613  0.3501
63326W        W 6379   6.569  23.630  16.836 -0.0661 -0.3936 -0.0931
63327W        W 6380  12.638  22.667  14.365 -0.2032 -0.2712  0.2065
63328W        W 6381   8.387  20.586  16.006  0.1160  0.1993  0.0936
63329W        W 6382   4.190  20.030  17.558  0.1899  0.2481  0.2115
63330W        W 6383  32.665  25.211   2.310 -0.2128  0.0879 -0.2832
63331W        W 6384  33.659  25.985  17.927 -0.2227  0.2300  0.3435
63332W        W 6385   4.050  33.848  18.758 -0.0887 -0.1220 -0.0617
63333W        W 6386   6.685   7.770   3.219  0.0631  0.0192 -0.0358
63334W        W 6387  27.739  30.853  22.971 -0.0899  0.0410  0.0626
63335W        W 6388  30.980   2.686  14.126  0.0105  0.1425  0.2320
63336W        W 6389  14.004   1.482  25.237  0.0690  0.2226 -0.2023
63337W        W 6390  33.849   8.732  21.557 -0.2475  0.2727  0.0877
63338W        W 6391  12.025  30.919  20.418 -0.1582 -0.4112 -0.1040
63339W        W 6392   2.493  26.798  18.514 -0.0657  0.0305  0.2544
63340W        W 6393   9.203  27.095  18.759  0.2404 -0.0403  0.1482
63341W        W 6394  21.547  13.050  23.719  0.4563 -0.0977 -0.0389
63342W        W 6395  27.987   6.505  20.188 -0.4561  0.1646 -0.1213
63343W        W 6396  22.902  31.655  17.377 -0.3528  0.1381 -0.0271
63344W        W 6397  10.915  22.932  23.379  0.0688 -0.2564 -0.2643
63345W        W 6398  23.561  31.015  16.987 -0.3031 -0.1806  0.2341
63346W        W 6399  12.274  29.694  19.561  0.2246 -0.0172 -0.1149
63347W        W 6400  22.730  23.284  20.272  0.0307  0.2145 -0.1930
63348W        W 6401   7.738  18.307  19.870 -0.0186  0.1230  0.2791
63349W        W 6402  19.982   1.106  19.365 -0.2604  0.1557  0.0068
63350W        W 6403  10.881  31.810  26.269 -0.0855 -0.2516 -0.0665
63351W        W 6404   4.880  26.023  16.139 -0.1511  0.0091 -0.0104
63352W        W 6405   2.101  26.031  23.153  0.1111  0.3719  0.1525
63353W        W 6406  13.525  33.637  23.472  0.1854 -0.0653  0.2451
63354W        W 6407  26.461   1.978  19.131 -0.1948  0.1840 -0.0889
63355W        W 6408  21.382  30.751  23.441 -0.1850  0.2687 -0.0547
63356W        W 6409   6.914  26.437  19.903 -0.5747 -0.1076  0.1960
63357W        W 6410   3.970   8.102  23.779  0.0893  0.2340 -0.2665
63358W        W 6411   3.339  17.386  19.548 -0.1608  0.4379  0.1648
63359W        W 6412  11.207  23.264  17.917  0.2646  0.1426 -0.1429
63360W        W 6413  32.760  21.776  24.486 -0.0966  0.0959  0.1474
63361W        W 6414   9.648   7.133  19.616  0.0131 -0.4366 -0.2070
63362W        W 6415  27.335  27.198  22.709 -0.0829 -0.1075  0.0989
63363W        W 6416  11.220  32.691  26.472  0.3095  0.0854  0.2555
63364W        W 6417  29.809   4.608  17.811  0.2580  0.1095  0.1239
63365W        W 6418  25.986  31.723  18.236  0.1285 -0.4204 -0.5125
63366W        W 6419  33.118  27.728  21.979 -0.1088  0.0365 -0.1080
63367W        W 6420  33.056  14.714  18.174 -0.0315 -0.1927  0.1707
63368W        W 6421  25.237  18.611  18.422 -0.1199  0.0081  0.3194
63369W        W 6422  21.759  26.358  24.182  0.3750 -0.0695 -0.3245
63370W        W 6423  32.857  24.989  20.468 -0.1025 -0.0885 -0.0113
63371W        W 6424  29.519  17.614  23.848 -0.0935 -0.1537  0.1470
63372W        W 6425   2.841  23.922  20.015 -0.1992 -0.0772  0.2643
63373W        W 6426  34.461   3.283  23.545  0.2552 -0.0382 -0.2590
63374W        W 6427   9.243  32.607  16.138  0.3446  0.2703 -0.3944
63375W        W 6428   4.109   2.162  25.524  0.3632  0.3302 -0.1898
63376W        W 6429  10.868  26.370  18.207  0.2838 -0.0499  0.0402
63377W        W 6430  13.818  33.385  18.695  0.0270 -0.1185  0.1982
63378W        W 6431  27.061  23.276  14.411 -0.0250 -0.0747 -0.3201
63379W        W 6432  16.514  29.250  23.885 -0.0219 -0.0115  0.2664
63380W        W 6433  23.216  12.452  21.566 -0.2011  0.0724  0.1079
63381W        W 6434  14.840   7.472   0.806 -0.4783  0.0763  0.5597
63382W        W 6435  12.294   4.834  14.189 -0.1208 -0.2775 -0.0542
63383W        W 6436  21.246  21.169  25.899  0.2233  0.1325  0.0917
63384W        W 6437   4.833  28.045  19.147  0.0072 -0.2255 -0.3435
63385W        W 6438   3.589  18.296  17.109 -0.3653 -0.0368 -0.0712
63386W        W 6439   1.431  25.773  15.739  0.0204 -0.3596  0.2186
63387W        W 6440   4.110  19.974  18.467 -0.0331 -0.2974 -0.1714
63388W        W 6441   1.422   1.899  24.931  0.1439  0.0538 -0.0432
63389W        W 6442   8.199  26.816  16.713  0.0902 -0.0105 -0.0584
63390W        W 6443   0.512   1.164  15.964 -0.0222  0.2906 -0.1323
63391W        W 6444  24.090  24.132  14.132  0.0816 -0.1622 -0.2301
63392W        W 6445  29.170  26.324  13.838  0.1119 -0.2025  0.1764
63393W        W 6446  19.493  24.342  25.197  0.2868  0.1749 -0.0586
63394W        W 6447  13.454  18.235  21.221 -0.0035 -0.2840  0.1530
63395W        W 6448  16.612   3.240  21.414  0.2244  0.3228 -0.0757
63396W        W 6449   1.564   6.984   3.192 -0.0198 -0.0704 -0.1571
63397W        W 6450   9.947  27.665  24.474 -0.0991  0.0106 -0.1800
63398W        W 6451  33.864   1.231  16.191  0.1603  0.0996  0.0624
63399W        W 6452  29.671   1.318  17.314  0.5325  0.3013  0.0851
63400W        W 6453  25.729  31.413  26.312  0.1804 -0.1784  0.0861
63401W        W 6454  17.658  20.973  22.042  0.1393  0.3326  0.5094
63402W        W 6455  31.812  30.002  15.779  0.1304  0.0834  0.0050
63403W        W 6456   1.202  10.721  16.655  0.2333 -0.2642  0.0673
63404W        W 6457  10.558  22.916  27.567 -0.3869 -0.0473 -0.3368
63405W        W 6458  12.085  17.796  26.630 -0.0397 -0.0216  0.0337
63406W        W 6459  10.405  24.553  24.563  0.3389 -0.2518 -0.1683
63407W        W 6460   6.022  23.297  26.928 -0.1984  0.0466  0.1092
63408W        W 6461   8.405  28.648  17.010 -0.1547  0.2739 -0.3636
63409W        W 6462  23.495  17.822  18.931  0.1378 -0.2751  0.3292
63410W        W 6463   3.527  14.804  14.052 -0.0768 -0.2742 -0.2574
63411W        W 6464   1.008  10.152  24.601  0.1317  0.1056 -0.0605
63412W        W 6465  30.860  24.796  16.303  0.0299  0.4702 -0.1947
63413W        W 6466   5.342  14.757  15.541 -0.1161 -0.1015  0.3256
63414W        W 6467  16.505   9.463  20.571 -0.0316 -0.0157 -0.3161
63415W        W 6468   4.450  31.289   2.889 -0.1108  0.0409 -0.1384
63416W        W 6469  24.931  31.865  16.052  0.1639 -0.0960 -0.1152
63417W        W 6470  34.558   0.655  22.456 -0.2516  0.0924 -0.1364
63418W        W 6471   8.653  17.335   2.284 -0.0103  0.0759 -0.0460
63419W        W 6472  11.655  29.328  24.855 -0.2635  0.1136  0.2394
63420W        W 6473  12.122  15.857  14.209  0.0290  0.1400 -0.1061
63421W        W 6474  29.974   1.610  14.623 -0.0823  0.0145  0.0653
63422W        W 6475  20.388  20.950  19.964  0.3920 -0.0038 -0.1069
63423W        W 6476  21.132   1.392  21.907  0.0372  0.3239  0.0773
63424W        W 6477  14.465   2.039  18.422 -0.0177  0.0082 -0.0664
63425W        W 6478   5.836  21.975  15.679  0.2180  0.1397 -0.2649
63426W        W 6479   4.633   5.501  16.687 -0.0596 -0.2393  0.0762
63427W        W 6480  16.197  28.037  23.157  0.1807 -0.0931  0.2756
63428W        W 6481   3.821   1.175  16.047 -0.2141 -0.2363 -0.1079
63429W        W 6482  11.134  29.052  16.428 -0.1255 -0.0582  0.1133
63430W        W 6483  18.188  31.198  18.537  0.4288  0.3908 -0.1069
63431W        W 6484  28.696  32.138   0.325 -0.0685 -0.0398 -0.0688
63432W        W 6485   9.952  20.743  22.794 -0.0164  0.1948 -0.1831
63433W        W 6486  12.310  33.348   9.244  0.1065 -0.0043  0.0738
63434W        W 6487  15.958  31.456  15.897 -0.3345 -0.0733 -0.0918
63435W        W 6488  17.671  28.065  17.243  0.1556  0.2071  0.2782
63436W        W 6489  23.290   5.250   2.099  0.1067  0.3129  0.0956
63437W        W 6490   8.767   5.733  21.803  0.1288  0.2686 -0.1086
63438W        W 6491  23.217  16.976  22.650  0.2662  0.0982  0.0265
63439W        W 6492   9.283  11.308  22.378 -0.0094  0.0737  0.0165
63440W        W 6493  14.732   9.145   0.100  0.3768  0.0388  0.0357
63441W        W 6494  12.392  13.526   1.880 -0.0672 -0.4598 -0.1142
63442W        W 6495   7.376  24.846  21.282  0.3474 -0.1290  0.0318
63443W        W 6496   3.735  27.548  27.622  0.0654  0.3689 -0.0131
63444W        W 6497  15.687  31.633  24.976 -0.1565 -0.4091  0.1444
63445W        W 6498  13.548  21.604  16.302  0.3458 -0.2839 -0.1601
63446W        W 6499  18.713   0.178  23.154 -0.0054 -0.0498 -0.1028
63447W        W 6500  22.856  26.161  17.656 -0.0051 -0.1311  0.0953
63448W        W 6501  17.190  18.670   2.146 -0.0869  0.1819  0.0144
63449W        W 6502   7.304  16.552  21.653  0.1406  0.0795 -0.2773
63450W        W 6503  32.871  28.492  21.325  0.0546  0.3361 -0.2115
63451W        W 6504   4.242  19.132  17.888  0.1094 -0.1418 -0.2657
63452W        W 6505  11.642  19.025  25.600 -0.2086 -0.2596 -0.1045
63453W        W 6506   9.879  29.056  28.857 -0.1472  0.3940 -0.0269
63454W        W 6507  22.370   3.125  14.450 -0.0328 -0.1101 -0.0346
63455W        W 6508  11.953  21.409   2.634  0.1299 -0.1047  0.1321
63456W        W 6509  32.393  32.769  21.964 -0.2378  0.2562 -0.0077
63457W        W 6510  17.277  33.797  25.183 -0.1077  0.2326  0.0902
63458W        W 6511  10.524  24.635  14.550  0.2390 -0.1504 -0.2516
63459W        W 6512  15.693  30.664  17.917 -0.2284  0.1689  0.0694
63460W        W 6513  26.770  26.795  14.658 -0.1140 -0.0747  0.1792
63461W        W 6514  19.134  32.876  21.841 -0.1335  0.1369  0.1094
63462W        W 6515  23.932  30.734  27.578  0.2169  0.1882 -0.0899
63463W        W 6516   8.542  14.078  23.949  0.0926 -0.1528 -0.3193
63464W        W 6517  22.585  29.557  25.934 -0.0146  0.0023 -0.0185
63465W        W 6518  19.610  25.544  24.014 -0.2669  0.1107 -0.1128
63466W        W 6519  11.674  29.294  20.066  0.2177 -0.2399 -0.1081
63467W        W 6520  20.058  25.352  23.774 -0.0942 -0.2454  0.0986
63468W        W 6521  20.781  31.519  19.778  0.0459 -0.0381 -0.3045
63469W        W 6522   6.765  18.117   0.107 -0.0140  0.3000  0.1603
63470W        W 6523   7.995  26.339  20.575  0.5032  0.2021 -0.0310
63471W        W 6524   7.034   4.730  20.757 -0.2232 -0.4778 -0.0782
63472W        W 6525   0.655  26.726  16.165  0.0094  0.1263 -0.0699
63473W        W 6526  22.106  13.091  17.330  0.0091 -0.0023  0.2300
63474W        W 6527  18.285  31.326  21.124  0.3541  0.1577  0.0374
63475W        W 6528  24.545  21.774  14.743  0.0137  0.3682 -0.0383
63476W        W 6529  14.685   6.152  15.019 -0.2146 -0.0399  0.1804
63477W        W 6530  26.277   2.290  18.776  0.0574  0.1598  0.1254
63478W        W 6531   8.795  31.901  15.226 -0.1877  0.0430 -0.3771
63479W        W 6532   7.991  24.313  18.308 -0.0896 -0.0311  0.3247
63480W        W 6533  33.637  20.477  15.183  0.0211 -0.0688  0.0898
63481W        W 6534   8.974  24.858  24.619 -0.1471  0.0780  0.0112
63482W        W 6535   2.539  28.812  17.082  0.1801 -0.0421 -0.2270
63483W        W 6536   9.307  28.554  14.198  0.0133  0.0235  0.0993
63484W        W 6537   9.623   2.736  20.213 -0.4358 -0.2452 -0.1124
63485W        W 6538  12.082   1.521  18.949 -0.2850 -0.1641 -0.1000
63486W        W 6539  28.684   4.410  16.772  0.1360  0.1193 -0.2004
63487W        W 6540   7.605  22.811  17.556 -0.0820  0.0225  0.1888
63488W        W 6541  11.936  24.338  25.597  0.0271  0.1560  0.0630
63489W        W 6542  16.003  31.838  23.840 -0.1422  0.0808  0.0801
63490W        W 6543  24.908  27.506  23.068  0.2891 -0.1371 -0.0771
63491W        W 6544  18.025  28.539  26.010 -0.0086  0.0521 -0.3479
63492W        W 6545  14.037  19.274  25.719  0.1892  0.2348  0.2383
63493W        W 6546  10.694  18.714  22.865 -0.0393  0.4263 -0.1206
63494W        W 6547  10.575  31.532  21.037  0.0699  0.1322  0.1948
63495W        W 6548   9.908  32.476  22.476  0.0332 -0.0685 -0.1137
63496W        W 6549  10.329   1.680  15.087  0.2229 -0.1000  0.0019
63497W        W 6550  13.196  13.823  17.091  0.0181 -0.3373  0.1005
63498W        W 6551  19.555  32.150  15.162  0.2226  0.1757 -0.2612
63499W        W 6552  24.491  23.538  28.198  0.1207 -0.1679 -0.0359
63500W        W 6553   3.849   1.169  28.129  0.1419 -0.2626 -0.1276
63501W        W 6554  13.311  13.324  21.985  0.0927  0.1112 -0.1123
63502W        W 6555  27.719  10.022  19.888 -0.0839  0.3180 -0.0527
63503W        W 6556   9.828   8.043   3.113  0.2722 -0.0030  0.1840
63504W        W 6557   8.952  25.190  15.273 -0.0532 -0.1174 -0.0790
63505W        W 6558   6.420  18.723  15.880  0.1355 -0.0920 -0.0348
63506W        W 6559   6.205  31.530  21.705  0.1680 -0.1190  0.1191
63507W        W 6560  19.023  28.662   6.776  0.0637 -0.0630 -0.1536
63508W        W 6561  14.380  32.529  18.840 -0.0292 -0.0252 -0.0019
63509W        W 6562  23.211  28.421  24.181  0.1799 -0.1354  0.0843
63510W        W 6563   8.525  10.797   6.352  0.1342 -0.0141 -0.0365
63511W        W 6564  29.503   0.574  20.324  0.1243 -0.1925 -0.0833
63512W        W 6565  22.429  30.408  24.273  0.1013  0.3091  0.2104
63513W        W 6566   8.360  29.961  13.837 -0.2075  0.1107 -0.0481
63514W        W 6567   0.611  18.236  19.846 -0.0445 -0.1679  0.0629
63515W        W 6568   0.052  20.980  17.354 -0.0089 -0.1319  0.0061
63516W        W 6569   9.765   0.703  22.008  0.0887 -0.0013 -0.0197
63517W        W 6570  31.679  34.267  18.025 -0.1709 -0.1979 -0.0014
63518W        W 6571  22.368   1.046  26.767  0.2671  0.3491  0.1766
63519W        W 6572  20.503  24.827  27.926  0.4451  0.4849 -0.1102
63520W        W 6573  15.414  22.308  14.580 -0.1799 -0.0597 -0.0785
63521W        W 6574   2.107  32.289   1.362  0.1336  0.0610 -0.1335
63522W        W 6575  20.236   0.059  19.241 -0.1716 -0.0540 -0.1075
63523W        W 6576  25.459  23.813  20.649 -0.0693  0.0047 -0.0835
63524W        W 6577   2.358  23.941  23.003 -0.1387  0.1042  0.0808
63525W        W 6578  13.746  31.316  17.923  0.0936  0.2117  0.0507
63526W        W 6579  19.485  32.789   3.160 -0.1434  0.0854  0.0559
63527W        W 6580   8.898  19.774  24.963 -0.2876  0.1535  0.0614
63528W        W 6581   4.093  27.020  23.433  0.1321  0.2691  0.2739
63529W        W 6582  24.060  24.783  19.922  0.2569 -0.3116 -0.2576
63530W        W 6583  19.828  12.752  16.880  0.1419 -0.1554  0.1664
63531W        W 6584  15.759  24.422  21.381 -0.0525  0.2730  0.1219
63532W        W 6585   5.796  33.538  13.965  0.0193 -0.0327  0.0710
63533W        W 6586  15.288  32.384  25.348 -0.2441 -0.1025  0.0090
63534W        W 6587  24.554  28.863  14.279  0.1293 -0.0133 -0.1065
63535W        W 6588  15.153  25.363  22.900 -0.3472 -0.0172 -0.1331
63536W        W 6589   1.901  32.151  19.590 -0.1501 -0.0982  0.0608
63537W        W 6590  11.004  23.514  25.234  0.0044  0.3765 -0.1489
63538W        W 6591   1.160  19.867   0.595  0.0817  0.3466 -0.1432
63539W        W 6592  19.458  25.805  21.770 -0.0489 -0.1980 -0.2840
63540W        W 6593  10.694  20.262  22.449  0.1127  0.0300  0.1437
63541W        W 6594  32.974  17.582  15.717  0.1761 -0.2118 -0.0573
63542W        W 6595  11.238   6.351  18.119 -0.0203 -0.0289 -0.0398
63543W        W 6596  33.474  29.521  15.625 -0.1249  0.1063 -0.0680
63544W        W 6597  12.577   6.937  22.126  0.0653 -0.0397  0.2035
63545W        W 6598  14.724  20.259  28.523  0.2652 -0.1640  0.0266
63546W        W 6599  10.887  21.073  22.230  0.0651  0.0995  0.0251
63547W        W 6600  11.022   4.843  18.187  0.0370 -0.0944  0.0223
63548W        W 6601  19.099   4.720  18.165  0.0071 -0.0918 -0.1959
63549W        W 6602  34.201   1.148  23.031 -0.3089 -0.0760 -0.3481
63550W        W 6603  10.618  28.496   3.300 -0.1296 -0.1684 -0.2093
63551W        W 6604  13.873  19.460  22.059 -0.3339  0.2342  0.0558
63552W        W 6605  24.377   6.308  28.021  0.0561  0.0423 -0.0231
63553W        W 6606   8.981  26.983  14.585  0.3093 -0.0656 -0.0607
63554W        W 6607  10.839   9.202  19.665  0.0671 -0.1530 -0.1544
63555W        W 6608  19.146  24.089   1.593  0.1116 -0.0213 -0.0664
63556W        W 6609  17.909  33.317  23.014 -0.1558  0.2306  0.0602
63557W        W 6610   7.610  18.800  14.576 -0.3543 -0.0690 -0.0292
63558W        W 6611   7.864  26.499   1.039  0.0317  0.2211 -0.1277
63559W        W 6612   4.115  27.139  16.397 -0.1188 -0.1282  0.0307
63560W        W 6613  12.478  23.626  22.475 -0.2653  0.0578  0.0156
63561W        W 6614   2.551  16.894  17.907 -0.0148  0.2822  0.1245
63562W        W 6615   3.039  23.330  14.536  0.1772  0.1896  0.2536
63563W        W 6616  12.482  20.200  21.540  0.0274  0.2605  0.1976
63564W        W 6617  17.591  27.265  18.615 -0.1704  0.1308  0.0423
63565W        W 6618  16.412  26.425  14.871  0.4468 -0.1611 -0.2802
63566W        W 6619  19.770  22.034  19.290 -0.1839 -0.1667  0.0565
63567W        W 6620  15.581  25.619  22.657  0.0169  0.1212  0.2616
63568W        W 6621   2.509  32.390  25.146  0.0390  0.3252 -0.2174
63569W        W 6622  16.996  23.191  26.449 -0.1351  0.1137  0.1341
63570W        W 6623  15.722  32.581  23.939  0.1950 -0.2076  0.3315
63571W        W 6624  17.904   7.144  16.133  0.0664  0.1527 -0.0131
63572W        W 6625  34.241  23.918  25.764  0.0541 -0.1418 -0.2933
63573W        W 6626   9.950  13.680  25.017 -0.0705  0.0972  0.0230
63574W        W 6627  28.143  25.386   0.676  0.0545  0.1801 -0.2456
63575W        W 6628  28.727  21.802  24.319  0.0517 -0.0132 -0.0870
63576W        W 6629   6.878  32.300   7.340 -0.0386  0.1798 -0.1621
63577W        W 6630   1.245   7.740  15.932 -0.2248 -0.2009  0.2202
63578W        W 6631   3.098  20.468  19.893 -0.4684 -0.0578 -0.1717
63579W        W 6632   4.704  29.846  14.475 -0.2620 -0.0548  0.0623
63580W        W 6633  23.713  30.493  13.524 -0.1234  0.0612 -0.0571
63581W        W 6634  19.121   9.395  17.041  0.2458 -0.0005  0.2451
63582W        W 6635  30.667  18.174  16.832  0.1871  0.2482  0.1344
63583W        W 6636  26.349   6.842  15.732  0.2398 -0.0472  0.1317
63584W        W 6637  33.436   9.207  15.949 -0.0091  0.5518  0.1266
63585W        W 6638  31.469  25.759  23.990 -0.1900 -0.2299 -0.0372
63586W        W 6639   5.180   3.337  20.273 -0.0665  0.0517 -0.1211
63587W        W 6640  11.707  30.655  14.298  0.1483  0.0680  0.1136
63588W        W 6641   7.106  21.252   6.773 -0.1207 -0.1179  0.2238
63589W        W 6642   8.365  13.307   4.337 -0.1983  0.2148  0.0973
63590W        W 6643  11.608  24.367  15.689 -0.4276 -0.1464  0.1412
63591W        W 6644   0.151  22.794  17.380  0.0484 -0.2537  0.0394
63592W        W 6645  11.585  29.454  23.377  0.1611  0.0312  0.0576
63593W        W 6646  15.867  28.464  25.361  0.0080 -0.0189  0.0477
63594W        W 6647  19.436  22.989  27.556  0.0674 -0.0319 -0.2339
63595W        W 6648  11.424  18.289  22.568  0.2078 -0.1968  0.2755
63596W        W 6649  14.612  22.396  14.340  0.1384 -0.0054  0.4266
63597W        W 6650  34.239  24.636  23.533  0.0477 -0.0330  0.0884
63598W        W 6651  11.664  32.362  19.089 -0.2703 -0.0526 -0.0222
63599W        W 6652  24.148  29.718  18.531  0.0246 -0.2721 -0.0706
63600W        W 6653  30.812  14.262  23.194  0.0160 -0.2502  0.2730
63601W        W 6654  34.058  25.714  18.078 -0.1367  0.2463 -0.2298
63602W        W 6655   4.301  19.607  21.039 -0.2698 -0.1548 -0.1475
63603W        W 6656  21.907   0.960  15.560 -0.2016  0.1629  0.1236
63604W        W 6657  21.179  27.628  23.103  0.1715 -0.0022 -0.0127
63605W        W 6658   4.256  28.822  17.025  0.0732 -0.1680  0.4359
63606W        W 6659  29.550  28.602  28.742 -0.0795  0.2402  0.1560
63607W        W 6660   6.733   2.525   2.803 -0.0915  0.1979  0.0089
63608W        W 6661   9.527  33.063  18.209 -0.0730 -0.2139  0.1405
63609W        W 6662  17.983  30.279  14.968 -0.1038  0.1314 -0.2273
63610W        W 6663  24.251   0.506  16.779  0.2552  0.2883  0.1553
63611W        W 6664  20.316  20.656  27.930 -0.0341  0.0085  0.0342
63612W        W 6665  13.995  33.197  17.243 -0.3656 -0.1539  0.0307
63613W        W 6666   6.150  18.845  14.308 -0.3249  0.2742 -0.2443
63614W        W 6667  32.701   7.032  22.031  0.0413 -0.1359  0.1460
63615W        W 6668   6.878   9.425  24.917 -0.0025  0.4257 -0.2566
63616W        W 6669   0.662  29.177  15.223  0.1733  0.1579 -0.1570
63617W        W 6670  16.577  26.816  16.907 -0.1502 -0.2725  0.1666
63618W        W 6671   7.929  32.883  26.361 -0.2498  0.1490 -0.1273
63619W        W 6672  22.319  25.060  23.587  0.3612  0.0829  0.2021
63620W        W 6673  13.065  20.953  19.353 -0.2419  0.2144  0.1701
63621W        W 6674  33.257   8.954  24.516 -0.1839 -0.0592 -0.3973
63622W        W 6675  19.452  32.178  26.170  0.1668 -0.1155  0.1325
63623W        W 6676   5.841  24.702  16.308 -0.0837 -0.0530  0.3905
63624W        W 6677   9.029  10.539  27.139 -0.0195 -0.0578 -0.1329
63625W        W 6678  10.740  26.222  23.583 -0.0280  0.1530  0.0690
63626W        W 6679  10.685  24.936  17.193  0.2716  0.3188 -0.0315
63627W        W 6680  19.150  24.211  20.708 -0.2610 -0.1083 -0.0164
63628W        W 6681  13.502   1.039   9.516 -0.0073 -0.1253  0.0488
63629W        W 6682  33.888  29.473  25.000  0.1241 -0.2244  0.1867
63630W        W 6683   2.645  32.063  16.143  0.3744  0.0211  0.0699
63631W        W 6684  13.036  19.596  18.790  0.0435 -0.1849  0.1528
63632W        W 6685  11.684   4.554  24.654  0.0797 -0.0430 -0.0202
63633W        W 6686  22.719  20.011  20.871  0.0635 -0.2104  0.3544
63634W        W 6687   7.926  29.601  22.636  0.0678  0.2662 -0.1897
63635W        W 6688  25.067  25.212  28.566  0.3075  0.0186 -0.0986
63636W        W 6689  20.361   8.312  21.218  0.4495 -0.1320  0.1707
63637W        W 6690  28.255   0.949  22.214 -0.0838  0.1316 -0.2722
63638W        W 6691  16.727  16.702  13.318  0.3492 -0.0841  0.1714
63639W        W 6692   6.783   0.412  21.782  0.0357 -0.0997 -0.2273
63640W        W 6693  25.409   0.109  18.684  0.2061  0.1807  0.1115
63641W        W 6694  29.940  28.230  18.594 -0.1151 -0.0234 -0.2256
63642W        W 6695   0.904  20.657   7.560 -0.0144 -0.0999 -0.0405
63643W        W 6696   6.872  17.746  16.836  0.2364  0.2918  0.2610
63644W        W 6697  28.501  23.982  19.796 -0.1251  0.0850 -0.0336
63645W        W 6698  13.747  23.649  17.402 -0.1419  0.0063  0.2005
63646W        W 6699   8.461   1.544  18.836 -0.3744  0.0735  0.0079
63647W        W 6700  25.503   6.081  23.142 -0.1155  0.3140  0.1703
63648W        W 6701  25.662  28.546  25.815  0.0033  0.1060  0.0223
63649W        W 6702  15.012   3.249  28.594 -0.0684 -0.1130 -0.1526
63650W        W 6703   4.946   7.144  16.917 -0.2208  0.1632  0.0631
63651W        W 6704  31.973  16.546  15.634  0.2719  0.0190  0.0011
63652W        W 6705   0.971  11.919  28.719  0.1380 -0.1087  0.2980
63653W        W 6706  24.285  11.927  18.480  0.0954  0.2846  0.0615
63654W        W 6707  16.327  11.779  13.892  0.1873  0.2158 -0.0878
63655W        W 6708  24.998  29.704  25.388  0.0094 -0.3139  0.1542
63656W        W 6709   0.711  33.429  21.384  0.2649  0.0940 -0.1461
63657W        W 6710  16.284  33.813  22.489  0.3617 -0.0095 -0.0595
63658W        W 6711  34.354   3.851  27.211  0.0709  0.2335  0.1679
63659W        W 6712  22.431  21.089  19.852  0.2146  0.1736 -0.0899
63660W        W 6713  11.231   6.814  22.878 -0.1786  0.0859  0.0339
63661W        W 6714  25.431   5.318  14.196  0.0885  0.0213  0.2500
63662W        W 6715  14.108  13.349  10.154  0.1654  0.1168  0.2622
63663W        W 6716  22.041  25.028  17.759  0.0684 -0.3318 -0.0549
63664W        W 6717  26.087  13.609  19.448  0.3090  0.2563 -0.0116
63665W        W 6718   8.277   4.043  17.214 -0.2581 -0.0867  0.0476
63666W        W 6719   8.893  30.296  19.144 -0.1450  0.2929  0.0369
63667W        W 6720  10.228  26.160  19.713  0.3494  0.0754 -0.1025
63668W        W 6721  15.988   2.647  16.877  0.0628 -0.3345 -0.1124
63669W        W 6722   3.378  18.593   1.307  0.0280  0.0703 -0.2285
63670W        W 6723  20.951  20.465  15.971 -0.1174 -0.0923 -0.1772
63671W        W 6724  21.939  21.600  19.224 -0.0297 -0.0040 -0.0853
63672W        W 6725   3.210  10.615  22.154  0.0988 -0.0477 -0.0513
63673W        W 6726  29.048   1.152  24.727  0.0592 -0.0127 -0.1257
63674W        W 6727   0.322  31.796  14.770 -0.3802  0.1426  0.1460
63675W        W 6728   5.266  24.088  15.094 -0.2100 -0.1857 -0.1308
63676W        W 6729  13.973   0.551  20.510 -0.0443  0.1726 -0.0287
63677W        W 6730  10.685  19.382  16.088 -0.0771  0.1225  0.1305
63678W        W 6731  12.014  20.102  26.814 -0.1999 -0.1178 -0.0830
63679W        W 6732  13.166  22.227  17.204 -0.2350  0.1995  0.0413
63680W        W 6733  21.629  32.537  23.814  0.1383  0.3093  0.1010
63681W        W 6734   3.260  27.910  13.327  0.1239 -0.0224 -0.2180
63682W        W 6735   6.306  25.542  23.234  0.1137  0.2487  0.2426
63683W        W 6736   0.487   2.604  27.014 -0.0033  0.0342 -0.1765
63684W        W 6737   8.714  28.403  19.817 -0.4154  0.3105  0.3366
63685W        W 6738  32.662  33.318  24.355 -0.0341 -0.1550 -0.1569
63686W        W 6739  11.346  19.537   0.491  0.2496 -0.1135 -0.0904
63687W        W 6740  12.486  24.068   5.356 -0.1404 -0.0350 -0.1045
63688W        W 6741   2.104  34.604  14.490  0.0477 -0.1075 -0.1452
63689W        W 6742   6.448   8.687  20.913 -0.1727 -0.0838 -0.0618
63690W        W 6743  18.189  27.787  18.815  0.0015 -0.1034 -0.1235
63691W        W 6744  17.803  30.934  25.686  0.5483  0.1128 -0.2297
63692W        W 6745   4.103  10.107  16.824 -0.0004  0.0145 -0.0199
63693W        W 6746   5.513  34.229  21.983 -0.0282  0.1319 -0.0578
63694W        W 6747  21.137   8.226  14.678  0.1820 -0.3740  0.0656
63695W        W 6748  32.393  19.667   6.794  0.1410  0.4327  0.4187
63696W        W 6749  22.653   0.030  28.575 -0.1418 -0.0264  0.1065
63697W        W 6750  13.711   0.863  19.623 -0.2279  0.2594  0.2215
63698W        W 6751  31.637   1.460  25.809 -0.0535 -0.3017 -0.0890
63699W        W 6752  24.202  25.878  27.838 -0.0730  0.1783 -0.2816
63700W        W 6753  11.811  18.460  25.057  0.0103  0.0866  0.2013
63701W        W 6754   7.071  19.246  24.353 -0.0188 -0.0892  0.1587
63702W        W 6755  33.113  26.747  14.385 -0.0840  0.1744 -0.0306
63703W        W 6756  28.105  17.170  17.733  0.0258 -0.0461 -0.0271
63704W        W 6757  13.843  22.277  23.602  0.2375  0.2091 -0.2025
63705W        W 6758   7.882  16.883  14.837 -0.2321  0.4413 -0.4058
63706W        W 6759   1.032  33.528  23.751 -0.0706  0.2847 -0.1482
63707W        W 6760  17.971   1.128  23.583 -0.1365 -0.2067 -0.1396
63708W        W 6761  18.484  30.995   4.879  0.1818  0.1252 -0.2867
63709W        W 6762  26.666  27.167  22.308 -0.1804 -0.0577 -0.0712
63710W        W 6763  19.471  27.613  28.295  0.1715 -0.0417  0.2217
63711W        W 6764  27.120  19.669  18.073 -0.0353  0.0890 -0.0936
63712W        W 6765  20.816  23.095  23.540 -0.0326 -0.1734  0.0882
63713W        W 6766  19.460  32.640  17.770 -0.2706  0.1977  0.0539
63714W        W 6767  18.783  27.710  21.422 -0.1879  0.0081  0.0310
63715W        W 6768   7.701  26.896  26.524 -0.4142 -0.1263  0.2867
63716W        W 6769  19.611  28.459   0.645  0.2449  0.1232  0.2443
63717W        W 6770  22.027  22.857  18.306  0.1869 -0.0962  0.2667
63718W        W 6771  32.675  16.831  27.297  0.1278 -0.1454  0.0347
63719W        W 6772  17.451  34.543  16.522 -0.1109 -0.0577  0.5343
63720W        W 6773  16.792  19.767  29.179 -0.0810 -0.1067  0.1799
63721W        W 6774  12.312  18.658   4.319  0.1201 -0.0934  0.0105
63722W        W 6775  21.509  31.256  22.095  0.1286 -0.0945 -0.0083
63723W        W 6776  14.508  16.318  23.658 -0.3244  0.0893  0.0579
63724W        W 6777   7.761  20.901  24.208  0.0768 -0.3339  0.0155
63725W        W 6778  14.388  22.585  21.281 -0.0280  0.2309  0.0054
63726W        W 6779  14.694  11.038   7.338 -0.3395  0.1138  0.0187
63727W        W 6780  28.828  23.281   7.102  0.0904  0.1777 -0.3381
63728W        W 6781   8.624  26.963  14.207  0.0861  0.0034 -0.1154
63729W        W 6782  18.047  30.899   0.556  0.3993 -0.0834  0.0307
63730W        W 6783   0.613   4.051   4.163 -0.2600 -0.0044 -0.2235
63731W        W 6784   5.434   4.193  28.201 -0.1948 -0.1715 -0.0311
63732W        W 6785  16.466  26.797  23.221 -0.0269 -0.4232  0.2906
63733W        W 6786   2.111   1.093  19.539  0.0348 -0.2304 -0.1418
63734W        W 6787  14.161  21.923  13.932 -0.1474  0.1563 -0.1493
63735W        W 6788  26.200  24.554  27.640  0.0035 -0.1227 -0.0575
63736W        W 6789   3.212  14.221  16.031  0.5700 -0.1019 -0.0072
63737W        W 6790  28.920  25.538  17.984  0.2648  0.1193  0.2654
63738W        W 6791  10.771  32.674  14.699 -0.0797 -0.0394 -0.2292
63739W        W 6792   5.009  33.880  18.335 -0.1655  0.0818  0.4035
63740W        W 6793  25.859  11.530  16.801  0.1080  0.0283  0.1660
63741W        W 6794  18.372  20.090  15.001 -0.1590 -0.3662 -0.1590
63742W        W 6795  19.143  32.086   0.177 -0.2394 -0.0315  0.0087
63743W        W 6796  10.984  20.842  24.072 -0.0819 -0.3485 -0.2513
63744W        W 6797  31.687  12.875  15.875 -0.0397  0.0216 -0.0510
63745W        W 6798   3.234  29.022  13.078  0.3367  0.2834  0.0080
63746W        W 6799  16.561  25.503  16.287 -0.0654  0.0073  0.0440
63747W        W 6800  21.065  16.618  23.515 -0.1233 -0.4059 -0.3544
63748W        W 6801   9.526  14.849  15.616 -0.0194  0.1572  0.2822
63749W        W 6802  19.384  10.125  17.019  0.1086 -0.0047 -0.0319
63750W        W 6803   6.549  29.431  14.145 -0.1441 -0.0482  0.1636
63751W        W 6804  14.612   7.802  19.932 -0.0942  0.1588  0.1621
63752W        W 6805  13.547  26.299  24.130 -0.2656 -0.0148 -0.1067
63753W        W 6806   7.362  19.304  20.661 -0.1020 -0.0828 -0.0905
63754W        W 6807  27.714  24.385  14.485  0.0409  0.0934 -0.1648
63755W        W 6808  12.315  26.630  24.606 -0.0686  0.0336 -0.2431
63756W        W 6809  19.319  29.777  18.975  0.2929  0.4824 -0.1454
63757W        W 6810  12.476  24.211  17.248 -0.1342  0.3907  0.0659
63758W        W 6811   2.493  22.992  24.981  0.0391  0.1648  0.0041
63759W        W 6812  10.188  29.911  14.032 -0.0636 -0.3100 -0.5158
63760W        W 6813   9.493  14.982  18.772  0.2698  0.0837 -0.0382
63761W        W 6814  14.254   2.897   2.338 -0.2501 -0.1050  0.0405
63762W        W 6815  19.497   2.202  21.775  0.0893 -0.1333 -0.1334
63763W        W 6816  10.418  23.810  14.866  0.1804 -0.0082  0.0959
63764W        W 6817  11.083  21.133  15.411  0.2755  0.0496 -0.0540
63765W        W 6818  16.224   6.048  28.475 -0.0242 -0.1813  0.2456
63766W        W 6819  13.119  26.856  27.797  0.1226 -0.1782 -0.1257
63767W        W 6820  29.772  17.011  16.207  0.2751 -0.2138  0.1628
63768W        W 6821  11.367  15.307  27.079  0.2142  0.0620 -0.0903
63769W        W 6822   2.991  17.759   5.235  0.0539  0.2196  0.1605
63770W        W 6823  16.436  19.878   0.402  0.1481 -0.0942  0.0127
63771W        W 6824  11.194  21.983  25.641 -0.2115 -0.1030 -0.0695
63772W        W 6825   7.926  21.157  24.674 -0.0209  0.0321 -0.1735
63773W        W 6826  19.072  22.074  28.565 -0.2753  0.2805  0.0839
63774W        W 6827  14.882  11.003  18.841  0.3660 -0.3490  0.1226
63775W        W 6828  29.167  24.734  28.925 -0.1287 -0.1321  0.0974
63776W        W 6829   8.342  25.001   5.691  0.0741 -0.0979 -0.0030
63777W        W 6830   1.128  19.937  26.184 -0.0006  0.1728  0.0046
63778W        W 6831   6.408   7.337  14.778 -0.0703 -0.2605 -0.0481
63779W        W 6832  21.692  22.479  24.302 -0.0670 -0.0065 -0.1111
63780W        W 6833  25.461  24.075  29.097  0.0078 -0.2573  0.0082
63781W        W 6834  16.586  30.842  14.948 -0.3428 -0.2952 -0.0674
63782W        W 6835  13.876  30.829  25.563 -0.1399 -0.0554 -0.0611
63783W        W 6836   9.587  26.270  17.929 -0.2707  0.1522  0.0185
63784W        W 6837  33.216  33.298  22.411 -0.2103 -0.1546  0.2389
63785W        W 6838   9.076  29.355  22.138 -0.1659 -0.0499  0.0149
63786W        W 6839  33.110  14.301  26.038  0.1237  0.1922 -0.0378
63787W        W 6840  10.060  16.909  21.812 -0.2797  0.0368  0.0247
63788W        W 6841   0.233  30.801  15.682 -0.0105  0.0359 -0.0235
63789W        W 6842   7.630  33.050  22.385  0.2183  0.0134  0.2081
63790W        W 6843  15.104  20.491  17.210  0.4290 -0.2782 -0.1124
63791W        W 6844  32.252  32.853  14.231 -0.0093 -0.0871  0.0925
63792W        W 6845  15.638  29.136  19.394  0.0939  0.2022 -0.2269
63793W        W 6846   8.086  25.291  19.514 -0.1365  0.2179 -0.0706
63794W        W 6847   6.355  20.891   7.930  0.1457  0.2046 -0.3519
63795W        W 6848  21.537  20.658  14.388 -0.1518 -0.1903  0.6543
63796W        W 6849   7.447  21.544  25.770  0.2090  0.1288  0.2420
63797W        W 6850  17.922  19.167  13.151 -0.0320 -0.1865 -0.1884
63798W        W 6851  21.259  22.773  17.009 -0.1371  0.0068 -0.3901
63799W        W 6852   5.339   4.797  25.833 -0.1211 -0.0849  0.3746
63800W        W 6853   2.820  27.543  24.794 -0.0496 -0.0156 -0.0686
63801W        W 6854  26.695  12.971  14.742 -0.2233  0.2560 -0.0299
63802W        W 6855  22.238  34.537  26.945  0.0296 -0.1424  0.0318
63803W        W 6856  31.515  28.926  20.525 -0.4154 -0.0845  0.0299
63804W        W 6857   6.697  13.491  24.578 -0.1357 -0.0940  0.0069
63805W        W 6858  11.613  24.093  24.705 -0.3489 -0.2214 -0.2303
63806W        W 6859  26.128  12.912  24.861 -0.2387  0.2541 -0.3808
63807W        W 6860   4.049  15.311  19.544  0.0341  0.1508 -0.0462
63808W        W 6861  13.736   3.418  14.914 -0.2930  0.3284 -0.0395
63809W        W 6862  25.998  26.424  20.123 -0.0251  0.0322  0.2434
63810W        W 6863   6.114  17.083  21.076 -0.0191 -0.1593  0.0355
63811W        W 6864  16.646  23.101  15.011 -0.0174  0.2851  0.0722
63812W        W 6865  13.178  34.070  23.420  0.0418 -0.2697  0.0876
63813W        W 6866  23.388  18.801   1.214  0.1663 -0.2055 -0.2259
63814W        W 6867  11.449  13.484  16.408  0.2010  0.0729  0.0235
63815W        W 6868  13.923  29.488  21.674  0.1133 -0.0965 -0.1645
63816W        W 6869  27.697  28.660   2.569 -0.1103  0.0934  0.0821
63817W        W 6870  23.829  28.220  18.130  0.0850  0.1612  0.1296
63818W        W 6871  19.937   3.166   6.522 -0.2449  0.0129 -0.0027
63819W        W 6872   9.664  19.726  25.424 -0.1378  0.1578 -0.1187
63820W        W 6873  30.739   7.527  16.684 -0.1489  0.1463 -0.3332
63821W        W 6874  25.589  21.529  21.195  0.2141  0.0586 -0.3950
63822W        W 6875   6.012  12.316  27.858  0.0482  0.0742 -0.0816
63823W        W 6876  17.784   2.066  17.580 -0.0702  0.0210 -0.0378
63824W        W 6877  27.586   5.303  14.825 -0.4398 -0.2878 -0.1881
63825W        W 6878  10.417  29.726  18.026  0.1120 -0.0377  0.2926
63826W        W 6879  22.391  11.499  13.496 -0.0681  0.0308 -0.3540
63827W        W 6880   2.397  30.868  16.680 -0.0927 -0.0057 -0.1001
63828W        W 6881  25.108  23.535  14.846 -0.1424 -0.3338  0.1297
63829W        W 6882  18.625  31.238  27.056  0.2601  0.0957 -0.2584
63830W        W 6883  13.894  25.760  15.703  0.0551  0.2304  0.2268
63831W        W 6884  10.611  28.149  14.725  0.0179 -0.0951 -0.1688
63832W        W 6885   3.696   2.597  19.413 -0.0762 -0.2508  0.2078
63833W        W 6886  10.489   6.532  17.678 -0.1996  0.1193 -0.2405
63834W        W 6887   1.148  28.258   2.907 -0.0384  0.0443  0.1665
63835W        W 6888   9.393  22.819  24.803  0.0316  0.0981 -0.1486
63836W        W 6889   0.362  20.696  15.228  0.0856  0.0972  0.1273
63837W        W 6890  14.827  16.295  14.408 -0.1415 -0.1904 -0.0756
63838W        W 6891  18.323  34.040  27.007  0.1840  0.2460 -0.0450
63839W        W 6892   9.666  23.348  20.325  0.1109  0.2172 -0.1058
63840W        W 6893   8.041  34.619   7.314  0.2291 -0.1209 -0.1865
63841W        W 6894  15.934   9.345  19.612 -0.2720  0.2875 -0.0975
63842W        W 6895  16.532  28.764  27.133  0.1102 -0.0664 -0.1542
63843W        W 6896   4.126  19.739  15.638  0.0612 -0.0299 -0.1613
63844W        W 6897  12.810  22.858  23.117 -0.0938 -0.1342 -0.4583
63845W        W 6898  12.259  23.154   1.402 -0.2439 -0.1321  0.1078
63846W        W 6899  32.390   5.627   4.085 -0.0314  0.0078 -0.0008
63847W        W 6900   6.106  31.707  13.215  0.0689 -0.0145  0.1085
63848W        W 6901  25.215  16.883  26.959  0.0658  0.0123  0.0316
63849W        W 6902   5.686  27.916  14.493 -0.1814  0.1780 -0.2044
63850W        W 6903   5.735  28.662  13.834 -0.0742 -0.0303  0.0409
63851W        W 6904  32.407   0.901   3.715 -0.0065 -0.1360  0.0348
63852W        W 6905   2.680  24.274  15.025 -0.1315 -0.2386  0.3015
63853W        W 6906  13.914  31.519   1.023  0.2464 -0.3298  0.1864
63854W        W 6907  16.604  29.347   3.064 -0.1161 -0.0555  0.0990
63855W        W 6908  13.949   1.820  18.331 -0.0234 -0.3909 -0.3393
63856W        W 6909  11.171  10.721  28.779  0.1900 -0.0322  0.1178
63857W        W 6910  14.572   5.929  17.206 -0.3477 -0.2607 -0.0877
63858W        W 6911   6.069   3.972   0.546  0.0254  0.0681  0.0106
63859W        W 6912  34.240   3.959  19.739 -0.0444  0.0399 -0.3318
63860W        W 6913  17.905   2.514  10.388  0.0011 -0.2813  0.0117
63861W        W 6914   4.977  12.745  15.594 -0.0128  0.0178 -0.2482
63862W        W 6915   8.133  32.429  10.263  0.0140 -0.1813  0.3294
63863W        W 6916  25.023  32.247  22.405  0.2929 -0.2496 -0.0588
63864W        W 6917  13.565  20.712   1.770  0.3211 -0.0461  0.0305
63865W        W 6918   3.202  26.618  14.909 -0.1469 -0.0334  0.1940
63866W        W 6919   0.971  27.983  16.675  0.0445 -0.2877  0.0548
63867W        W 6920   7.598  26.213  24.537 -0.1867  0.0892  0.1579
63868W        W 6921   9.198  30.598  18.347  0.0978  0.1894 -0.1150
63869W        W 6922  30.487   7.547  15.392  0.2257 -0.2034 -0.0074
63870W        W 6923   5.196  13.314  14.949 -0.0626 -0.2474  0.1134
63871W        W 6924  19.528   7.797  26.631 -0.2160 -0.0501  0.0578
63872W        W 6925   0.115  32.517  26.455 -0.2170  0.0213  0.2943
63873W        W 6926  17.775  33.725  16.609  0.3658 -0.0438  0.2608
63874W        W 6927  29.320  27.942  16.735  0.1815  0.3394  0.1205
63875W        W 6928  17.516   9.742  18.446 -0.0488 -0.1582  0.1371
63876W        W 6929  33.329  31.629  19.948  0.1788 -0.3712 -0.3410
63877W        W 6930  20.585  19.953  20.163  0.1228  0.1534 -0.1437
63878W        W 6931   6.491  31.118  21.006  0.1821 -0.0576  0.2054
63879W        W 6932  23.059  29.140  28.413  0.0553 -0.0370 -0.1558
63880W        W 6933  16.738  25.452  23.408 -0.2476 -0.1881 -0.3201
63881W        W 6934  10.678  30.719  21.571 -0.2461  0.0371 -0.0540
63882W        W 6935   9.565   1.281  28.781  0.0663 -0.3133  0.0051
63883W        W 6936  24.381  24.329  19.683 -0.2086  0.0489 -0.3718
63884W        W 6937   1.642   5.393  24.487 -0.2064  0.1436 -0.0140
63885W        W 6938   8.458  32.572  19.446  0.1900 -0.2453 -0.2994
63886W        W 6939  13.098  25.046  22.090  0.3827  0.1448  0.0448
63887W        W 6940  29.072  19.418  14.698 -0.1949  0.0703  0.2495
63888W        W 6941  10.420  31.457   3.631  0.1493 -0.0748 -0.3024
63889W        W 6942   1.787  26.582  14.525  0.2183  0.0539 -0.0789
63890W        W 6943  27.372   8.041  15.494  0.0100 -0.0514  0.0594
63891W        W 6944  23.186  26.412  18.598  0.0742  0.2047 -0.1940
63892W        W 6945  24.747  30.001  22.116  0.0463 -0.1415  0.0710
63893W        W 6946  21.320  21.899  19.889  0.2075  0.1507 -0.1683
63894W        W 6947  11.143  25.395  14.375  0.1327  0.0397  0.4725
63895W        W 6948  22.713  32.134  27.886 -0.3089  0.2008 -0.0029
63896W        W 6949  14.152  26.313  16.937  0.0316 -0.1574 -0.0858
63897W        W 6950   5.266   9.024   0.940  0.0823  0.1133 -0.0994
63898W        W 6951   1.536  28.477  22.588  0.0820  0.1841 -0.2641
63899W        W 6952   1.852   6.317  16.128 -0.2883  0.3494 -0.0362
63900W        W 6953   4.906   7.271  25.660 -0.1603 -0.0457  0.3528
63901W        W 6954   1.754  17.543  24.187  0.1411  0.4009  0.1009
63902W        W 6955  10.500  32.966  24.205  0.1366 -0.1006 -0.0542
63903W        W 6956   7.109  28.189  22.737 -0.0097 -0.2275  0.2793
63904W        W 6957  11.756  23.108  25.084  0.0004  0.1832 -0.2170
63905W        W 6958  19.980  23.337  24.173 -0.0334 -0.3235 -0.2337
63906W        W 6959   9.330   4.825  16.558 -0.3062 -0.0520 -0.2987
63907W        W 6960   0.559  26.844  26.231 -0.2344 -0.1882  0.2326
63908W        W 6961  33.667  24.764  17.850  0.2597 -0.3463 -0.1328
63909W        W 6962  15.643  27.603  26.389  0.1164 -0.1623  0.2053
63910W        W 6963   3.810  30.038  21.580 -0.2413  0.3940  0.0071
63911W        W 6964  34.597   0.976  21.674 -0.0619 -0.2338 -0.2354
63912W        W 6965   2.379  15.129  27.105  0.1723  0.1416  0.1954
63913W        W 6966  12.892  17.974  26.947  0.0463  0.0874 -0.3092
63914W        W 6967  11.197  26.002  16.279  0.0403  0.0155  0.1095
63915W        W 6968  29.771  28.440  16.040 -0.3967 -0.0265 -0.2118
63916W        W 6969   6.750  28.195  22.373 -0.0011  0.1238  0.0415
63917W        W 6970   1.291  28.544   3.455 -0.1581  0.2320 -0.2248
63918W        W 6971   6.091  10.350  17.117 -0.1793  0.2012  0.0086
63919W        W 6972   6.160  33.316   3.663 -0.2236 -0.4172 -0.1277
63920W        W 6973  13.006   2.575  17.006 -0.1996  0.0979 -0.2217
63921W        W 6974  23.553   2.295  17.563 -0.1526  0.1349 -0.1115
63922W        W 6975  24.279   9.777  17.567 -0.3637  0.1796  0.1088
63923W        W 6976   4.238   7.929  24.150  0.0450  0.0431  0.0326
63924W        W 6977  20.224  13.470  16.022 -0.4908 -0.2102  0.3805
63925W        W 6978  12.709   0.685  16.327  0.0298  0.1372 -0.1277
63926W        W 6979  31.403   7.407  20.666  0.0440  0.0899  0.2203
63927W        W 6980  10.338  21.100  14.719  0.0070  0.3464 -0.0722
63928W        W 6981   7.740  13.561   7.865  0.0365 -0.0510 -0.0986
63929W        W 6982  30.701  20.249  21.487 -0.0468  0.2559 -0.1480
63930W        W 6983   5.479  28.027   1.273  0.2827  0.0212  0.2071
63931W        W 6984   5.106   6.910  17.307  0.0307 -0.2011  0.0898
63932W        W 6985  14.010  17.331  16.164 -0.1239 -0.1339  0.0427
63933W        W 6986  22.251  13.760  15.018 -0.0931  0.2702 -0.2274
63934W        W 6987   3.756  21.268  17.719  0.0866  0.0913  0.1693
63935W        W 6988  16.245  25.909  26.658 -0.3049  0.0584 -0.0838
63936W        W 6989  18.811   2.915  17.140  0.0241  0.0730  0.0261
63937W        W 6990  15.534  32.468  28.139 -0.1127 -0.0819  0.1097
63938W        W 6991  17.230  26.399   0.438 -0.4180  0.1600 -0.0659
63939W        W 6992  29.313  20.170  25.784 -0.1013  0.0396  0.5287
63940W        W 6993  21.189  19.566   7.540  0.0748 -0.2171  0.0250
63941W        W 6994   2.326  25.951   3.637 -0.1032  0.2304  0.0033
63942W        W 6995  17.113  26.523  17.683 -0.0747  0.1458  0.2726
63943W        W 6996   9.550  19.471  19.550 -0.0722  0.1734 -0.0092
63944W        W 6997  18.051   7.245  19.123 -0.3493 -0.2421 -0.2868
63945W        W 6998  30.670   5.930  20.329  0.0777  0.1705 -0.1155
63946W        W 6999   8.960  21.150  23.658  0.0117 -0.0486 -0.0075
63947W        W 7000   4.023  20.572   4.324  0.0887 -0.1324 -0.3752
63948W        W 7001  26.386  32.078  23.836  0.1117 -0.0566 -0.1393
63949W        W 7002  27.384   5.156  15.722 -0.0650 -0.1044  0.1401
63950W        W 7003  10.433  32.506  18.152 -0.1501 -0.1042 -0.2608
63951W        W 7004   3.622  27.111   3.349  0.1464  0.2642  0.3842
63952W        W 7005  18.914  26.981  15.498 -0.1741 -0.0294 -0.1537
63953W        W 7006  33.697  25.980  17.137  0.1540 -0.0102  0.0315
63954W        W 7007  20.440  27.226  18.285 -0.1878  0.0292  0.0892
63955W        W 7008  12.169  23.995   4.948  0.0639  0.0835 -0.1396
63956W        W 7009  17.296  20.555  15.150 -0.0357  0.0987 -0.3415
63957W        W 7010   9.809  14.092  23.619 -0.0010 -0.1786  0.0947
63958W        W 7011  22.622  11.047  22.453 -0.2438 -0.1266  0.0458
63959W        W 7012   7.268  29.804  23.401 -0.1486 -0.0909  0.1408
63960W        W 7013   4.455  23.635  20.424 -0.3199 -0.1223 -0.1959
63961W        W 7014  14.870   1.184  23.859 -0.0295  0.2756 -0.2578
63962W        W 7015  30.391  22.362  14.865 -0.2194 -0.0122 -0.0837
63963W        W 7016  27.163  21.313  15.151  0.0123 -0.0871 -0.2875
63964W        W 7017   5.140  34.241  23.344  0.1069  0.0262  0.3856
63965W        W 7018  28.034  28.852   7.828  0.1273  0.0519  0.3434
63966W        W 7019  18.978  26.367  16.481 -0.1267  0.2391  0.0858
63967W        W 7020   7.974  19.097  26.087 -0.2990  0.0304 -0.1653
63968W        W 7021   8.313  33.000  21.812  0.1313  0.2143 -0.0539
63969W        W 7022  18.810  28.967   0.880 -0.1440  0.4922  0.5050
63970W        W 7023  15.548   4.421  24.595 -0.1596 -0.1878  0.2739
63971W        W 7024  17.355   4.444  21.699 -0.0534 -0.0842  0.1569
63972W        W 7025  17.639  29.021  17.717 -0.0234 -0.1397  0.2017
63973W        W 7026   3.056  26.815  20.082  0.1512 -0.1157  0.0953
63974W        W 7027   9.048  29.886   2.154  0.0777  0.0547 -0.2539
63975W        W 7028  15.985  16.759   2.195 -0.0653 -0.1544 -0.0892
63976W        W 7029  21.652   5.032   0.724  0.2974  0.2898 -0.0814
63977W        W 7030  11.448  26.139  13.876  0.0543  0.1668 -0.1101
63978W        W 7031  19.896  15.621  24.108  0.1971  0.2230 -0.1994
63979W        W 7032   7.636  26.498  17.197 -0.0340  0.1682 -0.0120
63980W        W 7033   4.328  17.640   1.544  0.3084  0.0913 -0.3290
63981W        W 7034   5.705  20.136   7.301 -0.1781  0.1099 -0.0350
63982W        W 7035  23.957  31.961  19.186 -0.0566 -0.0662 -0.0236
63983W        W 7036   4.470  31.904  14.589 -0.1161  0.1433 -0.1307
63984W        W 7037  33.332   4.375   0.940 -0.0898 -0.0936 -0.0020
63985W        W 7038  24.028  29.317  21.399 -0.0345 -0.1200  0.0372
63986W        W 7039   6.567  21.862  24.723 -0.0731 -0.0965  0.0027
63987W        W 7040  25.584   0.221  27.364  0.0187 -0.1505  0.0228
63988W        W 7041  27.145  11.100  16.937 -0.4187 -0.3524  0.1747
63989W        W 7042  27.257  21.740  20.777 -0.0853  0.1716  0.1439
63990W        W 7043   5.907  32.531  17.600 -0.0066 -0.0242 -0.3133
63991W        W 7044   4.932   2.018  19.569  0.1951 -0.2031 -0.0099
63992W        W 7045  13.969  27.576  21.261  0.0440  0.2490  0.0858
63993W        W 7046   8.148  27.714   5.803 -0.0879 -0.1074 -0.3416
63994W        W 7047   6.297  15.436  19.935  0.0658 -0.4142  0.3289
63995W        W 7048  19.182  32.512  22.777  0.1655  0.0886 -0.0705
63996W        W 7049  27.428  23.664  23.398  0.0480  0.1326 -0.0702
63997W        W 7050  13.325   7.751  19.222 -0.1334 -0.0027  0.0718
63998W        W 7051  22.278  25.204  16.190 -0.2064  0.1170 -0.1617
63999W        W 7052  12.379  18.848  20.487 -0.2082  0.1053 -0.2165
64000W        W 7053  18.852  23.182  22.125 -0.2465  0.1736  0.2564
64001W        W 7054  13.403   5.261  15.818  0.5279 -0.1264  0.2255
64002W        W 7055  20.896  21.343  22.024  0.2393 -0.1061  0.2114
64003W        W 7056  24.680  34.246  26.637  0.0619  0.0867 -0.0563
64004W        W 7057  10.043  14.007   8.001 -0.1774  0.2734 -0.1821
64005W        W 7058   7.623   4.185  18.002 -0.2685 -0.0873 -0.5055
64006W        W 7059   8.513  17.701  22.964  0.2770 -0.2886  0.1895
64007W        W 7060   0.216  27.918  20.433  0.0447 -0.1449 -0.0503
64008W        W 7061  22.642   2.443  22.250 -0.1147  0.0283  0.0804
64009W        W 7062   4.332  28.008   6.209 -0.1949  0.4879  0.1245
64010W        W 7063  24.682  15.484  24.021  0.1899 -0.0846 -0.0811
64011W        W 7064   7.827  27.446  18.566  0.0238 -0.0812  0.1960
64012W        W 7065  14.441   5.683  15.768 -0.2548  0.3614  0.2263
64013W        W 7066   2.456  23.995  23.512 -0.1801 -0.2215 -0.1607
64014W        W 7067  20.303  31.399  17.961 -0.2043  0.1118 -0.1804
64015W        W 7068  27.403  21.856  15.412  0.0213  0.0821 -0.5106
64016W        W 7069   7.001  17.464  26.455 -0.0867  0.2329  0.1569
64017W        W 7070   8.547  28.669  13.121  0.1004 -0.3012 -0.1267
64018W        W 7071  33.050  15.076  19.112  0.0632 -0.0951  0.3153
64019W        W 7072  22.591  21.616  25.563 -0.0344 -0.1387  0.0891
64020W        W 7073  31.665  29.383  23.856 -0.0082  0.0753 -0.1787
64021W        W 7074   9.382  33.431  19.187 -0.2697 -0.1825 -0.0038
64022W        W 7075   8.063   8.412  28.602 -0.2123 -0.3074 -0.3363
64023W        W 7076  16.220   5.133  28.149  0.1976  0.0173 -0.0668
64024W        W 7077  12.378  28.337  26.487  0.1225  0.0858  0.0656
64025W        W 7078   8.469  25.540  22.643  0.0079  0.4594 -0.0941
64026W        W 7079  25.860  17.632  15.829  0.2455 -0.0015 -0.2215
64027W        W 7080  10.087  29.585  16.221  0.1749  0.1853  0.2880
64028W        W 7081   9.506  29.652  14.735  0.0927 -0.1587  0.1121
64029W        W 7082   5.907  28.051  19.160  0.0805 -0.0708 -0.2130
64030W        W 7083  11.591  33.612   0.824 -0.1977 -0.3624  0.0934
64031W        W 7084   4.346   8.125  17.519  0.2485  0.0698  0.1771
64032W        W 7085  12.661  18.318  27.210 -0.1203  0.1777  0.0802
64033W        W 7086  10.475  15.090  27.027  0.0756  0.0422 -0.1796
64034W        W 7087  22.847   3.862  15.830 -0.0906 -0.0937 -0.1082
64035W        W 7088   3.951  33.117  23.011 -0.2220  0.0823 -0.2583
64036W        W 7089  13.779   7.783  15.809 -0.0306  0.0135 -0.2261
64037W        W 7090  24.833  22.516  21.383 -0.4002  0.1909  0.0334
64038W        W 7091  15.605   0.848  25.948  0.0013 -0.0680 -0.0025
64039W        W 7092  10.427  31.034   2.938 -0.1858  0.3539 -0.2212
64040W        W 7093  26.084  33.611  27.781 -0.1878 -0.1245 -0.1317
64041W        W 7094   9.879  18.873  20.783 -0.0328  0.1825  0.0021
64042W        W 7095  14.936  27.907  24.385  0.0223 -0.2068 -0.0807
64043W        W 7096  16.147  27.258   8.591 -0.3066  0.1711 -0.0046
64044W        W 7097  32.871   6.531  28.043  0.0871  0.0470 -0.1459
64045W        W 7098  13.846  28.656  23.767  0.0171 -0.2985  0.0144
64046W        W 7099  33.841  21.209  21.632 -0.4331  0.1776  0.3798
64047W        W 7100  22.206  15.033  13.923 -0.1386 -0.0209  0.3907
64048W        W 7101   8.887  27.974  27.781  0.2366  0.0344  0.2597
64049W        W 7102  26.844   1.432  22.906 -0.3743  0.1168 -0.0276
64050W        W 7103  13.044  13.474  24.177  0.1201  0.0581  0.0502
64051W        W 7104  20.251   2.441  19.569 -0.1318  0.1452 -0.1394
64052W        W 7105   1.435  33.799  24.176  0.0669 -0.0700  0.1175
64053W        W 7106  17.113   0.029  22.713 -0.2386  0.1530 -0.1803
64054W        W 7107  11.515  34.626  15.492 -0.1100 -0.3687  0.1053
64055W        W 7108  32.268   2.523  22.954 -0.1214  0.0753 -0.0098
64056W        W 7109  23.110  29.530  14.214  0.1880 -0.1524 -0.0688
64057W        W 7110  17.070  25.948  18.915  0.1183  0.0287  0.3171
64058W        W 7111   5.912  21.147  21.619  0.1557 -0.1601 -0.0008
64059W        W 7112   2.187  34.281  14.915 -0.2096 -0.0724 -0.0127
64060W        W 7113  17.640  16.747  13.839 -0.2703 -0.0944  0.3946
64061W        W 7114  18.549   2.072  22.263  0.2017  0.2026 -0.0192
64062W        W 7115  32.757   1.381  24.405 -0.0335 -0.1060  0.2047
64063W        W 7116  12.204  17.004  17.949  0.2084 -0.1041 -0.1905
64064W        W 7117  26.916  18.539  18.777 -0.1310 -0.1019 -0.0444
64065W        W 7118  33.020  22.884   5.223  0.0231  0.1049 -0.3357
64066W        W 7119  18.619  21.199   1.275  0.1466  0.0686 -0.0257
64067W        W 7120   6.229  29.304  14.562  0.3347 -0.0290 -0.0146
64068W        W 7121  15.465   0.827  17.133  0.4195 -0.1290 -0.0952
64069W        W 7122   7.732  16.928  17.372  0.0495 -0.1259 -0.1107
64070W        W 7123   2.044  14.893  19.783 -0.2982 -0.0871  0.3166
64071W        W 7124   5.404  27.642  14.898  0.1335  0.0399 -0.0116
64072W        W 7125  21.277  34.472  26.727  0.1631 -0.2427 -0.2645
64073W        W 7126  15.908  21.090  23.747 -0.3795 -0.3986 -0.1629
64074W        W 7127  16.054  25.417  17.325  0.1875 -0.1671 -0.0919
64075W        W 7128  17.315  23.998  18.858 -0.0625 -0.0966 -0.1097
64076W        W 7129   4.018  19.891   3.071  0.1726 -0.2527  0.1980
64077W        W 7130   8.461  16.287   4.504  0.0761 -0.1151 -0.0444
64078W        W 7131   0.663  25.689  19.883  0.1278 -0.2706 -0.2074
64079W        W 7132   8.543  34.039  17.978 -0.3230 -0.2820  0.0384
64080W        W 7133  17.037   1.342  13.965  0.0350  0.1892  0.1243
64081W        W 7134   9.565  29.725  28.120  0.1555  0.0966  0.2779
64082W        W 7135  17.525   2.741  15.666 -0.4264  0.0892 -0.1290
64083W        W 7136  12.739  22.331  20.380 -0.0054 -0.1270  0.2593
64084W        W 7137  11.114  25.997  18.361  0.0822 -0.2636 -0.0153
64085W        W 7138  15.792   8.825  21.667  0.0196  0.0579  0.2539
64086W        W 7139  10.567  16.918  16.584  0.0575 -0.1397 -0.0861
64087W        W 7140   6.795  28.277   4.928  0.3555 -0.0312 -0.1144
64088W        W 7141  15.754  15.241  15.471 -0.2523  0.1255 -0.0664
64089W        W 7142   8.545  26.923  18.129  0.0497  0.0995 -0.0523
64090W        W 7143  12.289  25.439  16.404  0.1773  0.1991  0.0742
64091W        W 7144  23.849  34.183  23.903  0.1256  0.2666 -0.1655
64092W        W 7145   7.166   3.212  26.118  0.0443 -0.1611  0.1580
64093W        W 7146  11.707   4.266  23.092  0.0937 -0.1504 -0.2391
64094W        W 7147   3.809   9.312  23.872  0.0819  0.2715  0.0189
64095W        W 7148   6.066   6.688  23.594  0.1470 -0.4903  0.0436
64096W        W 7149  24.236  33.522  16.070  0.0457  0.1368 -0.1267
64097W        W 7150  20.060  19.503   7.215 -0.0388 -0.3277  0.1762
64098W        W 7151   2.234  32.138   8.677  0.1475 -0.1042  0.2640
64099W        W 7152   5.251  18.724  20.664 -0.0968 -0.0695 -0.1434
64100W        W 7153  11.674   4.476  15.966  0.2399  0.0508  0.4253
64101W        W 7154   1.535  30.552  20.286 -0.1305  0.0914  0.4368
64102W        W 7155  10.725  32.353  24.126 -0.0822 -0.0804  0.0850
64103W        W 7156  14.140  33.199  23.324 -0.3634  0.1448 -0.1676
64104W        W 7157   1.918  22.428  20.944  0.0901  0.0249  0.3821
64105W        W 7158  15.822  18.277  29.173  0.2430  0.0508  0.1713
64106W        W 7159  10.365  24.130  26.015  0.0591 -0.1367 -0.0915
64107W        W 7160  16.555   6.316  26.762 -0.2433  0.2673 -0.1495
64108W        W 7161  12.684  33.988   8.637 -0.0475 -0.1767 -0.1254
64109W        W 7162  27.953  17.713   2.925 -0.1659 -0.0434  0.0093
64110W        W 7163  27.570   2.804   5.554  0.2126 -0.0327 -0.2166
64111W        W 7164  24.233  23.201  23.636 -0.0783  0.2356  0.0922
64112W        W 7165   1.561  32.741  15.623 -0.1277  0.0685 -0.0288
64113W        W 7166  16.357  27.132  15.474  0.0202  0.0850 -0.3603
64114W        W 7167  11.616  25.193   1.510 -0.2779  0.1480 -0.1144
64115W        W 7168  12.050  33.052  24.859 -0.3060  0.1713  0.1006
64116W        W 7169  11.862   2.216  20.018 -0.1324  0.1977  0.0509
64117W        W 7170   9.511  28.417   7.690  0.2559 -0.0762  0.1889
64118W        W 7171   1.585   3.942  21.855 -0.0779  0.1285  0.0230
64119W        W 7172   4.491   3.703   6.282  0.0741  0.0681  0.3221
64120W        W 7173   0.490  19.489  19.388 -0.2666  0.2719  0.0843
64121W        W 7174  29.911  29.939  19.539  0.0513  0.0772 -0.3087
64122W        W 7175  17.122  25.631  17.145  0.0371  0.1319 -0.1357
64123W        W 7176   8.175  17.498  23.262 -0.2159 -0.0622  0.0826
64124W        W 7177  21.174  17.094  21.597 -0.5367  0.1299  0.0070
64125W        W 7178   9.475  12.932  19.846  0.1807  0.0195  0.0864
64126W        W 7179   2.801   0.716  17.433  0.0445 -0.1575 -0.1517
64127W        W 7180  11.332  11.507   0.011  0.2266 -0.0494  0.1436
64128W        W 7181  10.702   8.900  27.011  0.1534  0.3691 -0.2811
64129W        W 7182  19.761  30.428  28.766  0.0675 -0.1425 -0.2783
64130W        W 7183   4.043  26.087   6.356 -0.0653  0.0078 -0.1886
64131W        W 7184  17.913  22.416  24.730  0.3801 -0.3398 -0.1468
64132W        W 7185  10.645  15.616   1.954 -0.1900 -0.1419 -0.1916
64133W        W 7186  16.925  21.987  20.918 -0.2176 -0.0368  0.0114
64134W        W 7187   3.358  27.112  15.134  0.0889  0.0539  0.0948
64135W        W 7188   8.815  27.979  13.606  0.1386  0.0224 -0.4394
64136W        W 7189   1.122  11.109  17.060  0.1531  0.3535 -0.4195
64137W        W 7190  24.317  21.438  23.065  0.2729  0.0453  0.4190
64138W        W 7191   6.716  23.570  26.198  0.0562  0.0866  0.0067
64139W        W 7192  14.683  15.992  25.463 -0.2116 -0.2758  0.1763
64140W        W 7193  14.903  10.550  15.313  0.0020 -0.2586 -0.2534
64141W        W 7194  33.940  26.104  23.236  0.1281 -0.1432 -0.2241
64142W        W 7195   7.395   5.364   0.973  0.2046 -0.0375 -0.2592
64143W        W 7196  17.816  24.894   1.452  0.2618  0.2639  0.0896
64144W        W 7197   7.479   2.383   1.868 -0.1187  0.0095  0.0890
64145W        W 7198  17.575  10.081  15.630 -0.0642  0.0691 -0.0382
64146W        W 7199  13.643  13.037  17.754  0.2210 -0.0546  0.3060
64147W        W 7200   2.403  13.513  18.852 -0.1700  0.1679 -0.0403
64148W        W 7201  18.202  26.170  14.948 -0.2422 -0.0440  0.1748
64149W        W 7202  10.854  28.284  17.135  0.0793  0.0031 -0.2354
64150W        W 7203  12.049   6.617  25.857  0.0361 -0.3280  0.2328
64151W        W 7204   5.135  22.577  25.431  0.0381  0.1415  0.2092
64152W        W 7205  33.668  19.019  26.628  0.2143  0.1242 -0.1858
64153W        W 7206  20.451  12.092  19.531 -0.1602  0.3359  0.0603
64154W        W 7207   9.080  29.368  20.758  0.1048  0.2604  0.0235
64155W        W 7208   3.084  34.219  24.235 -0.0486  0.1080  0.0888
64156W        W 7209  11.011  23.299  20.962  0.0683  0.1263 -0.0211
64157W        W 7210  10.842   0.476  17.265 -0.1974 -0.1517 -0.0595
64158W        W 7211  13.353  10.242   0.607 -0.3980  0.1380  0.6430
64159W        W 7212  34.153  22.994  15.922  0.0412  0.0964  0.2674
64160W        W 7213  12.502   0.075  26.929 -0.0406 -0.1247 -0.1798
64161W        W 7214  26.885  27.161  25.742 -0.1286 -0.0167 -0.2307
64162W        W 7215  12.066  14.796   4.779  0.3029 -0.0942 -0.3316
64163W        W 7216   4.561  26.516   8.913 -0.0654 -0.0879  0.1023
64164W        W 7217  13.761  24.999  20.714  0.1129 -0.1199 -0.1893
64165W        W 7218  15.568  25.627  24.291 -0.0734  0.1712  0.2110
64166W        W 7219  21.261  18.972  24.111  0.0079  0.2857  0.3587
64167W        W 7220  16.765  30.080  28.662  0.0346  0.0414  0.0363
64168W        W 7221  10.314  15.051   0.390  0.2883  0.0294  0.0920
64169W        W 7222  15.485  20.465  22.528 -0.1398  0.0916  0.3646
64170W        W 7223  17.283   0.346  28.925  0.0683  0.2067  0.0205
64171W        W 7224  12.230   9.490  10.520 -0.1925 -0.2907  0.3480
64172W        W 7225  11.698  29.646  27.288 -0.0905 -0.1436 -0.1073
64173W        W 7226   7.684   6.875  23.607 -0.1067 -0.2527 -0.2637
64174W        W 7227  34.309  24.397   0.499 -0.2345 -0.1734 -0.1381
64175W        W 7228   2.225  30.134  16.576  0.0569 -0.1150  0.4436
64176W        W 7229  18.976  26.006  22.649  0.0273  0.0915 -0.1242
64177W        W 7230   9.636  29.527  18.481  0.1596  0.0495 -0.0204
64178W        W 7231   6.995   0.162  18.275  0.0731  0.2529 -0.1001
64179W        W 7232   2.302  22.609  23.199  0.3581  0.0989  0.1931
64180W        W 7233   3.333  32.166  20.386  0.0752 -0.0504  0.0920
64181W        W 7234  31.711  23.865  18.693  0.1120  0.0032 -0.0605
64182W        W 7235  12.638  33.480  20.399  0.2411  0.0450  0.2600
64183W        W 7236  21.423  19.701  15.946  0.2602  0.1462 -0.0214
64184W        W 7237  33.859  29.089  18.234 -0.0521  0.0637 -0.3914
64185W        W 7238   1.074   6.248  21.152 -0.0528 -0.0096  0.1390
64186W        W 7239  15.741   0.011   3.871 -0.1237 -0.0534 -0.0437
64187W        W 7240  32.005  25.742  20.011  0.4162 -0.3902 -0.2925
64188W        W 7241  14.125  27.714  26.822 -0.3161  0.1695 -0.3570
64189W        W 7242  11.676  25.857  19.718 -0.1422 -0.0538  0.0916
64190W        W 7243   6.071  23.452  24.537  0.0634  0.0782 -0.1100
64191W        W 7244  11.953  24.628  22.626  0.0530  0.0800 -0.0839
64192W        W 7245   5.417  27.324  27.487  0.3374  0.3147  0.3443
64193W        W 7246  11.348  23.002  25.287  0.2775 -0.3335  0.3976
64194W        W 7247  19.009  31.217  21.712  0.0860  0.2469 -0.0944
64195W        W 7248  27.604   3.083  22.885 -0.0026  0.3115 -0.4501
64196W        W 7249  21.266  31.297  18.627  0.0312  0.3739 -0.1735
64197W        W 7250  11.471  21.704  19.336  0.1667 -0.2707 -0.4220
64198W        W 7251  17.452   4.587  20.661 -0.2629 -0.2634  0.4591
64199W        W 7252   0.414   1.880  17.373 -0.0843 -0.0365  0.0512
64200W        W 7253  20.921  19.669  24.729 -0.0627 -0.0747 -0.0884
64201W        W 7254   7.351   8.136   3.810  0.0249 -0.3571 -0.1662
64202W        W 7255  30.679  26.737  18.484  0.2245 -0.0569 -0.0623
64203W        W 7256  12.586  32.047  15.937  0.2558  0.1326 -0.3781
64204W        W 7257  12.590  12.577  17.878 -0.0123  0.2956  0.2018
64205W        W 7258   2.486  25.382  28.283 -0.0700 -0.2388 -0.4079
64206W        W 7259  10.300  19.861  14.623  0.0485  0.1413  0.0794
64207W        W 7260  20.617   5.412  15.310  0.2509  0.0312  0.2484
64208W        W 7261  26.443  33.687  23.583  0.1427  0.0403 -0.0369
64209W        W 7262   2.520  28.736   5.190  0.3224  0.1296 -0.0028
64210W        W 7263  19.530   4.919  11.191  0.0174  0.0632 -0.3653
64211W        W 7264   7.759  33.504  24.010  0.1694  0.1377 -0.0512
64212W        W 7265  17.515  23.796  20.173 -0.1639 -0.1459 -0.0312
64213W        W 7266   4.240  19.041  17.406  0.0711  0.2584  0.0058
64214W        W 7267  10.746  23.904  13.967  0.1619  0.0605 -0.0790
64215W        W 7268  34.349  31.155  17.554 -0.2851 -0.1140 -0.1680
64216W        W 7269   1.316  23.238  27.224 -0.0782 -0.0618 -0.2053
64217W        W 7270  26.062  29.053   8.269 -0.0860  0.1602  0.2483
64218W        W 7271   6.395  17.899  15.793 -0.5156 -0.0603  0.1101
64219W        W 7272   4.530   3.703  21.043 -0.1494  0.0309 -0.0672
64220W        W 7273  16.221   6.716  27.300 -0.0237  0.1368 -0.2355
64221W        W 7274  15.640  28.406  17.651 -0.0845  0.3675  0.0401
64222W        W 7275  18.654  26.048   7.366 -0.0977 -0.1150 -0.0146
64223W        W 7276   1.916  13.456  21.277  0.1249  0.0093  0.3075
64224W        W 7277   6.105  29.005  16.784  0.0377 -0.0461 -0.0673
64225W        W 7278  24.216  26.632  21.849  0.2780  0.0598 -0.1858
64226W        W 7279   9.363   4.719   0.168  0.1033 -0.0876 -0.0802
64227W        W 7280   3.059  26.027  23.355  0.0553  0.1454  0.0073
64228W        W 7281  10.588  11.026  17.410 -0.1809 -0.0427  0.1529
64229W        W 7282  24.266  21.685  17.758  0.2734  0.2749 -0.0446
64230W        W 7283   7.883  21.143   7.082 -0.0590 -0.0471 -0.0270
64231W        W 7284   6.966  13.405  24.166  0.0497  0.1928 -0.0381
64232W        W 7285  11.220  17.800  24.909 -0.1152  0.1231  0.1349
64233W        W 7286  10.954  32.577   7.478  0.1271 -0.1946 -0.1657
64234W        W 7287  16.630  24.888  24.504 -0.0768  0.2851  0.0619
64235W        W 7288  23.291  21.644   7.938 -0.0280 -0.3408  0.3049
64236W        W 7289   7.389  31.980  14.677 -0.0932  0.0505 -0.2530
64237W        W 7290  19.982  30.739  14.090 -0.1162  0.1599 -0.1392
64238W        W 7291   4.154   7.616  19.747 -0.3210  0.1127 -0.1100
64239W        W 7292   2.858   4.220   4.362 -0.1339  0.2049  0.1148
64240W        W 7293  15.831  27.874  25.405  0.0870  0.0317  0.1074
64241W        W 7294  18.003   6.230  23.635 -0.2396  0.0792  0.4593
64242W        W 7295  18.565  32.352  21.200  0.2709 -0.3107 -0.0957
64243W        W 7296  18.926   4.756   1.131 -0.1042 -0.0432  0.1806
64244W        W 7297   8.385   6.428   3.429 -0.0517 -0.3966  0.0725
64245W        W 7298  30.532  29.037   7.058 -0.0036  0.3114 -0.0517
64246W        W 7299  22.942   2.688  23.656 -0.1395  0.0609 -0.2462
64247W        W 7300  21.517  30.972  22.590 -0.0703 -0.1723  0.0269
64248W        W 7301   8.917   9.346   7.319  0.2435  0.0441 -0.1353
64249W        W 7302  18.752  12.496  21.470 -0.0296 -0.3072  0.0083
64250W        W 7303  25.148  34.345  20.583  0.0112  0.0067 -0.0658
64251W        W 7304  20.189  25.071  16.452 -0.0942  0.1018 -0.3717
64252W        W 7305  20.141  25.423  17.889 -0.0531  0.0325 -0.2545
64253W        W 7306  16.812   0.655  21.975  0.1947 -0.0599 -0.3562
64254W        W 7307   2.098  25.547   2.829 -0.1434 -0.0879  0.1772
64255W        W 7308  15.809  27.470  14.762  0.2038  0.2409 -0.0084
64256W        W 7309  28.839  33.016  27.467 -0.2375  0.2827 -0.0366
64257W        W 7310  16.764   6.571  16.494 -0.1275  0.1159 -0.2011
64258W        W 7311  19.109  14.866  16.922 -0.0782  0.0001 -0.2760
64259W        W 7312  11.010  24.293  21.379  0.0248  0.0925  0.1007
64260W        W 7313  32.852  20.123  22.240 -0.2992  0.0225 -0.0405
64261W        W 7314  26.433  25.979   9.417 -0.1386  0.0407  0.2048
64262W        W 7315   7.648  21.882  13.362 -0.1047 -0.3178  0.2461
64263W        W 7316  16.480  12.896  24.677  0.1363  0.0692 -0.0407
64264W        W 7317   9.730   0.774  29.054  0.0841  0.1475 -0.1697
64265W        W 7318  31.141  26.281  13.630  0.0570 -0.0628  0.0139
64266W        W 7319  34.128   1.017  14.424  0.2248 -0.4954  0.3369
64267W        W 7320  17.527  33.440  24.448 -0.2191 -0.0214  0.3093
64268W        W 7321  15.614  30.058  29.003  0.1831  0.3274  0.2083
64269W        W 7322  34.160  25.379  15.552 -0.2443  0.0730  0.0787
64270W        W 7323  30.502  21.208  14.603  0.3614 -0.2419  0.1013
64271W        W 7324  16.187  27.291   9.087 -0.1362 -0.0764  0.0478
64272W        W 7325  10.920  28.838   1.589 -0.3166 -0.0148 -0.5018
64273W        W 7326  16.408   8.980  23.086  0.2902 -0.0952 -0.0770
64274W        W 7327  11.926   3.980   4.654  0.1326 -0.2903  0.4638
64275W        W 7328   8.886  21.307  16.113 -0.0864  0.0963 -0.2022
64276W        W 7329   9.725  28.582   0.701 -0.0585 -0.0086 -0.2719
64277W        W 7330   6.308  21.708  21.210  0.0779  0.0145  0.0269
64278W        W 7331  30.373  21.396  17.399 -0.0052  0.3301  0.1145
64279W        W 7332  22.088  20.948  21.368  0.2413  0.1275  0.0891
64280W        W 7333  19.279  33.232  28.581 -0.1119 -0.5952 -0.2972
64281W        W 7334   0.288  24.716  19.297  0.0039  0.1004 -0.0867
64282W        W 7335  17.597   0.942  23.345  0.1688  0.1723  0.2755
64283W        W 7336   8.356  33.798  22.231 -0.1820 -0.0415 -0.0589
64284W        W 7337  14.258   2.958   3.636  0.0940  0.1851 -0.1286
64285W        W 7338  16.823  22.890  27.453  0.0084  0.3057  0.0211
64286W        W 7339   4.675  30.156  23.827 -0.0618 -0.0297 -0.0548
64287W        W 7340  18.721   0.148  17.014  0.2775  0.0872 -0.1778
64288W        W 7341  13.602   6.115  16.151 -0.1300 -0.2824 -0.1188
64289W        W 7342  10.105   5.828   0.744 -0.2137 -0.0739  0.1772
64290W        W 7343   2.527   6.902  26.253 -0.0054  0.2171  0.0982
64291W        W 7344  11.626  22.593  23.818 -0.1010  0.0421 -0.2356
64292W        W 7345  13.511   1.969  16.427 -0.1419 -0.3572 -0.0702
64293W        W 7346  32.881  21.042  14.363 -0.0366 -0.2656 -0.1139
64294W        W 7347  26.006  16.579   6.125  0.3137  0.0767  0.1313
64295W        W 7348   9.097  21.763   7.174 -0.0097  0.0082  0.0348
64296W        W 7349  24.745  11.839   4.665 -0.0841 -0.2115 -0.2078
64297W        W 7350   4.435  17.091  14.835 -0.1716  0.1742  0.0241
64298W        W 7351  28.122  19.231  27.998  0.0127  0.2261  0.1930
64299W        W 7352  24.043  22.920  28.446  0.0153 -0.0890 -0.1530
64300W        W 7353  10.549   8.691  22.158 -0.1016 -0.2261  0.0514
64301W        W 7354   7.437   6.555  24.002 -0.1653 -0.3703 -0.0030
64302W        W 7355  21.409  28.860  20.802 -0.1641 -0.0095 -0.1679
64303W        W 7356   8.229  11.335  22.226  0.1152  0.0246  0.1313
64304W        W 7357   7.002  27.323  16.199 -0.1034 -0.1405 -0.0041
64305W        W 7358  11.698  21.320   6.393  0.0696  0.1075 -0.1611
64306W        W 7359  13.308   0.436  27.400  0.0939  0.4464  0.0578
64307W        W 7360   4.054  13.265  28.539 -0.2113  0.1483 -0.0258
64308W        W 7361  12.817   4.095   6.055 -0.1638 -0.4625  0.0366
64309W        W 7362  28.480  28.680   0.607 -0.1077  0.0419  0.1311
64310W        W 7363   9.035  27.850  22.703  0.2575 -0.1809 -0.4250
64311W        W 7364  16.650  11.053   0.827  0.1565 -0.0106 -0.1339
64312W        W 7365  12.290   8.597  17.068 -0.3332  0.3187 -0.0010
64313W        W 7366  16.196  21.988   2.546 -0.0590  0.1583 -0.0737
64314W        W 7367   8.302  30.549  23.779 -0.0040  0.1114 -0.0143
64315W        W 7368  12.003  14.638  26.204 -0.0525 -0.2584 -0.2640
64316W        W 7369  20.669  30.377  21.987 -0.1790  0.1161  0.1826
64317W        W 7370  23.192  26.982  20.738  0.3446 -0.3675  0.1957
64318W        W 7371  21.554   9.319   3.186  0.0792  0.0579  0.1102
64319W        W 7372  11.298  16.664  15.172 -0.0274  0.0319  0.0909
64320W        W 7373  23.327  12.010  20.754  0.0350 -0.2112  0.0349
64321W        W 7374   5.116  17.009   6.301  0.1500  0.1735 -0.2113
64322W        W 7375  11.602  20.170  28.943 -0.1602  0.3809  0.0964
64323W        W 7376  28.719  14.191  26.342  0.1915 -0.1790  0.0304
64324W        W 7377  12.581  25.297   7.484 -0.3595 -0.1582 -0.1356
64325W        W 7378   3.324  31.494  18.063 -0.0631 -0.0317  0.0533
64326W        W 7379  20.398  28.752  24.381 -0.0683 -0.0680 -0.0370
64327W        W 7380   6.109  19.971  18.396 -0.2276 -0.1470  0.1714
64328W        W 7381  29.610   6.627  28.850  0.2854 -0.2600 -0.1057
64329W        W 7382  26.040  30.841  26.353  0.0299  0.1532 -0.2130
64330W        W 7383  20.026  22.927  16.865 -0.0331 -0.0191  0.1440
64331W        W 7384  15.660   3.129  17.235 -0.0237  0.0332 -0.0720
64332W        W 7385  12.188  20.553  24.617 -0.1225 -0.0621  0.0408
64333W        W 7386  29.180   9.094   6.197  0.1981 -0.1709  0.2473
64334W        W 7387  30.390   7.842   7.448  0.2170  0.0873 -0.1414
64335W        W 7388  20.455  28.755  18.087  0.2489 -0.0406  0.1107
64336W        W 7389   5.293  29.228  16.154  0.1383 -0.0685  0.2176
64337W        W 7390   8.715  23.008  15.707  0.1235 -0.0503  0.0674
64338W        W 7391  28.550   4.044  28.029  0.1257  0.0427 -0.2142
64339W        W 7392  31.889  11.999  26.950  0.0931  0.1924  0.2810
64340W        W 7393  31.217  31.602  15.407 -0.1035 -0.0733 -0.2080
64341W        W 7394  24.244  24.867   9.645 -0.0200  0.1528 -0.1260
64342W        W 7395   3.240  21.788   1.754 -0.0679  0.3123  0.2130
64343W        W 7396  21.846  33.968   3.211  0.0844  0.0651 -0.1794
64344W        W 7397  31.723  22.571  20.090 -0.2797  0.0920  0.1610
64345W        W 7398   5.983  32.123   3.397  0.1060  0.0340  0.1091
64346W        W 7399  22.062  10.835  22.378 -0.1272  0.0054 -0.0936
64347W        W 7400  17.122   6.179  25.263  0.1435  0.0727  0.0290
64348W        W 7401   1.346  21.867  18.896 -0.0641 -0.1709  0.0764
64349W        W 7402   1.732   1.608  23.296 -0.1971  0.1344  0.2420
64350W        W 7403  16.983  12.176  17.470 -0.1265  0.2055 -0.0610
64351W        W 7404   3.936  15.174  18.491  0.2395  0.1167  0.1409
64352W        W 7405  27.974  24.205  20.708 -0.1961 -0.1315 -0.0393
64353W        W 7406  12.880  24.943   6.681  0.2092  0.3753  0.3822
64354W        W 7407   9.960   6.804  19.290 -0.1406  0.1943  0.1738
64355W        W 7408   6.612  23.471  19.930 -0.1015 -0.2479 -0.1752
64356W        W 7409  12.154  20.065   7.129 -0.3297  0.0464  0.0534
64357W        W 7410  26.658  11.200  21.552  0.3250  0.0252  0.0304
64358W        W 7411  15.711  29.562  23.931  0.2337  0.2505  0.1774
64359W        W 7412  18.629  27.097  17.436 -0.3428  0.2693  0.0392
64360W        W 7413  12.408  29.177   1.622  0.0061  0.1507 -0.2026
64361W        W 7414  24.885  19.145   2.246 -0.2243  0.1025  0.0612
64362W        W 7415  32.496  29.410  22.749  0.0016  0.0670 -0.0826
64363W        W 7416  31.582  31.057  19.380 -0.0057  0.0566  0.0024
64364W        W 7417  15.497  13.915  14.208  0.1680 -0.1121  0.2842
64365W        W 7418  15.865  21.595  16.688 -0.1765 -0.4473  0.0222
64366W        W 7419  21.131   2.936  19.511 -0.2862 -0.1596  0.3512
64367W        W 7420  12.409  16.929  26.829 -0.0773  0.1094 -0.1673
64368W        W 7421  21.977  33.441  24.826  0.4517  0.0901 -0.2407
64369W        W 7422   5.026  21.341   8.630  0.0456 -0.1985  0.2799
64370W        W 7423   1.804  28.789  14.345  0.1202 -0.1052 -0.1745
64371W        W 7424  32.768  10.687  27.708  0.0320  0.2039 -0.0879
64372W        W 7425  14.231  26.064  15.328 -0.0484  0.3263  0.0811
64373W        W 7426  11.552  22.672  25.949  0.1698 -0.3479 -0.0493
64374W        W 7427  22.215  25.205  24.990 -0.0085  0.1640 -0.2184
64375W        W 7428  21.341  19.693  17.477  0.1396  0.1920  0.2805
64376W        W 7429  33.931  18.305  14.107  0.2610  0.2656 -0.0643
64377W        W 7430  12.839  10.123  23.575  0.1451 -0.2675  0.0062
64378W        W 7431  31.517  20.861   4.098  0.2395  0.1278  0.0012
64379W        W 7432   0.410  27.863  22.738  0.2384  0.2012 -0.2049
64380W        W 7433  10.444  15.215  15.957 -0.2609  0.0658  0.0998
64381W        W 7434   8.699  18.449  25.441 -0.0600  0.0312  0.0491
64382W        W 7435   9.524  20.932  24.765 -0.0898 -0.7157  0.0892
64383W        W 7436   6.348  14.471  10.134  0.1076  0.3369  0.0684
64384W        W 7437   3.075  29.666  26.409  0.1364 -0.1171  0.3888
64385W        W 7438   5.208  14.586  16.354  0.1463  0.1573  0.0608
64386W        W 7439  16.932  32.016  14.106 -0.0696  0.1729  0.2312
64387W        W 7440  16.139  29.798  27.548 -0.0517  0.0304  0.2635
64388W        W 7441  13.329  15.763  26.114  0.2277 -0.0922 -0.3454
64389W        W 7442  16.555  30.301  29.085 -0.1936 -0.0934 -0.0123
64390W        W 7443   8.134  29.154   8.845 -0.3170  0.0878 -0.2043
64391W        W 7444   9.116  27.865   4.690  0.1028 -0.0036 -0.2612
64392W        W 7445  28.958   7.672  23.313 -0.2383 -0.3113  0.0278
64393W        W 7446  11.457  23.044  26.802 -0.3750 -0.2745 -0.2904
64394W        W 7447   9.075  13.925  18.299 -0.1265 -0.0473  0.1007
64395W        W 7448  11.047  16.516  16.896  0.0798 -0.2153  0.0287
64396W        W 7449  13.575  21.308  19.346  0.1318  0.1450  0.1315
64397W        W 7450  24.427  23.765  21.524  0.0060  0.1099  0.0581
64398W        W 7451  15.110  29.005  16.484 -0.2477 -0.1018 -0.1821
64399W        W 7452   5.425  11.145  19.069  0.0961 -0.4711 -0.3664
64400W        W 7453  14.753  24.388   1.014 -0.2921 -0.3578 -0.1536
64401W        W 7454  10.416  20.523   3.410  0.2070  0.0212  0.0116
64402W        W 7455  12.863  21.978  24.668 -0.0444  0.0872  0.0105
64403W        W 7456   1.348  29.117  18.464  0.1498  0.2520  0.2445
64404W        W 7457  24.097  23.896  17.781  0.0531 -0.1561  0.0382
64405W        W 7458  34.641   5.439   7.648 -0.2187 -0.0330 -0.2343
64406W        W 7459  19.985  29.394  28.221  0.3152  0.0500 -0.0919
64407W        W 7460  17.647  27.738  23.993 -0.1858 -0.1545  0.0299
64408W        W 7461   5.219  20.093   1.701  0.4643  0.2304  0.1213
64409W        W 7462  21.183  20.313  18.196  0.1938  0.1778 -0.1176
64410W        W 7463   5.988  32.870   2.349  0.2122  0.0117  0.3259
64411W        W 7464  11.385  29.666  14.835  0.1897  0.0890  0.2067
64412W        W 7465   6.412   6.352  28.414  0.1135  0.0817  0.0959
64413W        W 7466  24.130  24.789  23.548 -0.3802 -0.0368  0.3300
64414W        W 7467  12.857  29.459  16.483  0.0613 -0.0344  0.0745
64415W        W 7468  14.762   5.335   3.598 -0.0075 -0.0368 -0.0886
64416W        W 7469  20.849   1.323  18.619 -0.0552 -0.1405  0.1354
64417W        W 7470  15.133  19.866   1.376  0.0242  0.0092 -0.0352
64418W        W 7471  21.584  22.026   2.435  0.2839 -0.1762 -0.0599
64419W        W 7472  12.096   3.743  17.064 -0.1165  0.3224 -0.1092
64420W        W 7473   9.807   8.083  21.005 -0.1341 -0.3022 -0.4307
64421W        W 7474   9.588   3.904  18.541  0.1754  0.0397 -0.3419
64422W        W 7475   8.014  20.009   8.849  0.0692  0.1852 -0.0155
64423W        W 7476  14.210  16.019  27.535 -0.0167  0.0214 -0.1047
64424W        W 7477  16.198  31.471  26.375 -0.3433 -0.1432  0.1336
64425W        W 7478   2.541   1.672  22.973  0.2888 -0.1836 -0.0632
64426W        W 7479   0.443  24.604   1.914 -0.0511  0.1002  0.1784
64427W        W 7480  10.478  20.999  17.466 -0.1636 -0.1064 -0.1097
64428W        W 7481  17.878  10.657  16.820 -0.0992 -0.2021 -0.1841
64429W        W 7482  21.118   2.317  21.525 -0.4309 -0.2525  0.0135
64430W        W 7483  10.123  22.982   8.583 -0.2314  0.4456  0.3413
64431W        W 7484  15.151  12.384   0.931 -0.3561 -0.3441 -0.0208
64432W        W 7485  10.268   6.997  23.476  0.2627  0.0770  0.0704
64433W        W 7486  26.928  34.430  28.084  0.2226  0.0017 -0.2207
64434W        W 7487  13.263  23.823   8.114 -0.3008  0.0721  0.1670
64435W        W 7488   3.702  10.493  19.719  0.0608  0.0429 -0.0651
64436W        W 7489  20.790  31.568  22.762  0.0096 -0.3893  0.1187
64437W        W 7490  10.327   2.123   0.555 -0.1077  0.1355 -0.1680
64438W        W 7491  23.359  22.786  10.677  0.1411  0.5964  0.0375
64439W        W 7492   8.028  11.199  25.909 -0.1659  0.0493  0.0078
64440W        W 7493   3.737  14.635  15.491 -0.2494  0.1015  0.5319
64441W        W 7494  33.050  11.044   7.381  0.1459 -0.1759  0.1345
64442W        W 7495  14.046  28.306  28.261 -0.4077 -0.0301  0.0281
64443W        W 7496   2.890  21.525   2.823 -0.1266  0.5117  0.0531
64444W        W 7497  17.145  12.096  10.373  0.0774  0.1202 -0.2763
64445W        W 7498  14.188  16.860  26.730 -0.0897 -0.0430 -0.0846
64446W        W 7499   5.740   1.604  16.500 -0.3122 -0.1801 -0.0532
64447W        W 7500   3.211  22.175   3.443  0.1958 -0.2722 -0.0093
64448W        W 7501  12.660  33.398  19.338 -0.1064  0.2127 -0.0083
64449W        W 7502  27.853   1.822  20.865  0.0339 -0.1439  0.1939
64450W        W 7503  18.861  31.972   3.848  0.0924  0.0033 -0.0056
64451W        W 7504  11.818  19.213  15.293 -0.0054 -0.0922 -0.2401
64452W        W 7505   1.051   5.078   6.380  0.1815 -0.3837  0.2796
64453W        W 7506   9.426  13.261  19.329  0.0237 -0.1031  0.1621
64454W        W 7507   3.107  28.350   3.656  0.0770 -0.4046  0.0176
64455W        W 7508   9.506  24.954   1.485  0.0781 -0.0213 -0.1454
64456W        W 7509   2.567   8.260  20.214 -0.1362  0.0321  0.2856
64457W        W 7510  16.445  33.227  16.270  0.3537  0.2273 -0.2372
64458W        W 7511  17.165  33.824   4.133 -0.1587  0.0544  0.0085
64459W        W 7512   4.560  30.508   4.489  0.2748 -0.1373  0.3705
64460W        W 7513   9.052  32.471   9.276  0.0211  0.2604  0.0980
64461W        W 7514   1.830  19.272  23.883  0.3596 -0.0652  0.2220
64462W        W 7515  33.521   0.785  22.771 -0.0355 -0.1153  0.1237
64463W        W 7516   5.378  24.426   1.327  0.0154 -0.3166 -0.2877
64464W        W 7517  16.528  24.743  22.249 -0.0709 -0.2226  0.0804
64465W        W 7518   6.442   2.179   6.678 -0.0816  0.1021  0.0681
64466W        W 7519   4.108  30.253  25.109 -0.0497  0.0694 -0.0942
64467W        W 7520   5.170  31.692  28.503 -0.0026  0.3621 -0.0912
64468W        W 7521  13.007  25.899  21.869  0.0074  0.0354 -0.0623
64469W        W 7522   3.834  14.827  28.663 -0.0693 -0.2583 -0.0050
64470W        W 7523  32.921  25.727  21.731  0.4202  0.1873 -0.0865
64471W        W 7524  21.225  11.929  28.064 -0.0018  0.1928  0.0124
64472W        W 7525  15.266  25.833  28.303  0.0199 -0.3443  0.3951
64473W        W 7526  25.229  23.188  24.851 -0.0832 -0.3019 -0.0276
64474W        W 7527  13.050  27.785  16.898  0.4357 -0.2940  0.0872
64475W        W 7528  10.992  25.003   8.931  0.2756  0.1290  0.1525
64476W        W 7529  14.127  20.024  15.744 -0.1843 -0.0014  0.2228
64477W        W 7530  23.600   4.272   4.195 -0.0177 -0.1868  0.0127
64478W        W 7531   7.855   8.051  21.041 -0.2627  0.2085  0.1632
64479W        W 7532  23.364   0.909  28.759 -0.1474  0.0854  0.0556
64480W        W 7533  33.783  34.175   0.598 -0.0073 -0.0321 -0.3258
64481W        W 7534  29.956  21.461  13.508 -0.3851 -0.0284  0.0021
64482W        W 7535  33.308   4.456  26.097 -0.2510  0.1219 -0.0750
64483W        W 7536  13.510  10.737  23.396 -0.3076  0.0051  0.1998
64484W        W 7537   6.948  21.436  27.702 -0.2135  0.1107  0.2647
64485W        W 7538  18.688  28.441  17.753  0.2259  0.1390  0.0202
64486W        W 7539  21.108  27.911   4.447  0.0495 -0.0397  0.1099
64487W        W 7540  13.030  30.966   7.648 -0.0371 -0.3201 -0.0811
64488W        W 7541   6.953   1.015  15.955  0.3084 -0.1256  0.4215
64489W        W 7542   8.974  23.583  13.729 -0.0430  0.1451 -0.1728
64490W        W 7543  27.533  10.538  17.874 -0.2151  0.4282  0.0351
64491W        W 7544  14.772  25.382  15.323  0.1019 -0.0559  0.1832
64492W        W 7545   1.388  11.558  20.230 -0.0013  0.3160  0.2191
64493W        W 7546  14.215   6.598   0.750  0.1745  0.0162  0.0421
64494W        W 7547  32.232  23.606  17.171  0.2229 -0.0488  0.3765
64495W        W 7548  14.599  17.952  16.019 -0.0375  0.5807  0.0509
64496W        W 7549  21.049   3.705  21.295 -0.1161 -0.3371 -0.0969
64497W        W 7550   0.778  23.773  27.185 -0.2188 -0.1683 -0.2932
64498W        W 7551  15.418  32.451  15.243 -0.0703  0.1918 -0.0760
64499W        W 7552  13.981  33.891  26.028 -0.0267  0.1860 -0.0160
64500W        W 7553  10.991  24.570  14.377 -0.1428 -0.1617 -0.0189
64501W        W 7554  10.309  19.820  19.993  0.3766  0.0341  0.4262
64502W        W 7555  19.023  31.206   5.684 -0.1260 -0.2317  0.3669
64503W        W 7556  17.976  32.171  22.031  0.2062 -0.0697  0.0855
64504W        W 7557  12.732  18.738  17.685 -0.1971  0.2404  0.3976
64505W        W 7558   1.869  18.634  21.328  0.0243 -0.1828 -0.0723
64506W        W 7559   1.327  12.294  10.542 -0.4033 -0.3011 -0.0076
64507W        W 7560  29.183  20.028  24.592 -0.1482 -0.1747  0.1791
64508W        W 7561   9.433   8.301   3.800  0.0446 -0.0064  0.1517
64509W        W 7562   4.027  18.189  26.407 -0.3501  0.3608  0.0680
64510W        W 7563  12.936  17.697  17.913 -0.3399 -0.2328  0.5717
64511W        W 7564  10.201  30.709   5.631  0.2065 -0.2936 -0.3050
64512W        W 7565  27.656  21.422   7.466 -0.1141 -0.3645  0.1233
64513W        W 7566  17.895  28.970  20.545 -0.0981  0.1179 -0.1081
64514W        W 7567  21.440  29.581  27.332  0.1667  0.4369 -0.2997
64515W        W 7568  19.296  29.376   8.139  0.1273  0.0436 -0.0172
64516W        W 7569  10.346  27.577   6.196 -0.0359 -0.3262  0.3740
64517W        W 7570  18.662  30.781  10.299 -0.0921  0.0916  0.1140
64518W        W 7571   9.475  26.900   7.605 -0.0195 -0.2746 -0.0690
64519W        W 7572  11.399  20.592  21.525  0.1117  0.2139  0.1928
64520W        W 7573  19.247  34.159  21.113  0.0379 -0.2606  0.0503
64521W        W 7574  22.287  15.577   3.202 -0.1649 -0.2723  0.0376
64522W        W 7575   3.397  24.101  25.692  0.0621 -0.2909  0.0879
64523W        W 7576   1.511   6.751   3.724 -0.0603 -0.3477  0.0256
64524W        W 7577  21.488   2.351   3.030  0.3299 -0.1104 -0.1162
64525W        W 7578  11.173  24.581  27.265 -0.0807  0.1271  0.0263
64526W        W 7579   6.626  32.345   5.460 -0.1600 -0.1460  0.1995
64527W        W 7580  33.598  28.710  29.028  0.0117 -0.0622 -0.2051
64528W        W 7581  21.528  21.755   4.826 -0.0237 -0.0809 -0.3457
64529W        W 7582   4.369   0.047  28.378 -0.2314 -0.2588 -0.0555
64530W        W 7583   9.201  23.353  27.899 -0.1033 -0.0066  0.0299
64531W        W 7584   4.284  31.549   0.891 -0.2335 -0.1148 -0.1396
64532W        W 7585   2.424  29.942  29.174  0.2462  0.4265 -0.1449
64533W        W 7586  18.545  30.608   6.572  0.0629 -0.0567  0.1976
64534W        W 7587   3.898  34.180   1.417  0.1049 -0.0781 -0.0855
64535W        W 7588  10.797  33.843   2.454  0.1518 -0.1182 -0.1178
64536W        W 7589  13.693  28.957  18.759  0.1762  0.1752  0.3339
64537W        W 7590  10.676   3.498   1.017  0.1346 -0.2134 -0.4130
64538W        W 7591  19.294   9.856  28.095 -0.0394  0.0342  0.1037
64539W        W 7592   2.090  29.572  13.878  0.3704 -0.2240  0.0951
64540W        W 7593   9.037  18.821  25.844 -0.1893 -0.1327  0.1291
64541W        W 7594  24.389  31.835  20.757 -0.1654 -0.2254  0.0584
64542W        W 7595  30.096  24.818  25.252 -0.3210 -0.5841 -0.0461
64543W        W 7596  31.097  20.142   1.267  0.0959 -0.1887 -0.1185
64544W        W 7597  29.076  25.088  18.286 -0.3519  0.0464 -0.1779
64545W        W 7598  31.065  18.823  20.898 -0.0387 -0.0887 -0.1275
64546W        W 7599  28.034  18.575  20.155 -0.0365  0.1263 -0.2250
64547W        W 7600   4.211  19.277   5.138  0.2298 -0.2771 -0.0733
64548W        W 7601  21.346  22.349  21.058  0.0525  0.0214  0.2924
64549W        W 7602  13.446  26.972  17.699  0.1271  0.2588  0.0572
64550W        W 7603  16.856  33.784   8.091  0.2524  0.1149  0.0973
64551W        W 7604   7.583  31.477   3.234 -0.0371 -0.2901 -0.1557
64552W        W 7605  21.919   2.208   0.733  0.0929  0.2802  0.1475
64553W        W 7606   7.501  32.698   2.921  0.0769  0.2146  0.1859
64554W        W 7607  33.858  28.171  14.754  0.1323  0.1356 -0.0476
64555W        W 7608  12.442   2.554  27.597 -0.1426 -0.3715  0.2573
64556W        W 7609  12.152  16.858   0.016  0.2828  0.2435 -0.1529
64557W        W 7610  10.508  15.541  28.766  0.1282  0.0680  0.1973
64558W        W 7611  31.127  24.290  16.339 -0.2964  0.0113  0.0804
64559W        W 7612  32.921   7.970  15.770 -0.0377 -0.2958 -0.0131
64560W        W 7613  19.325   0.085  23.326  0.1884  0.0151 -0.0546
64561W        W 7614   3.058  23.742  27.306 -0.0797 -0.0759 -0.1629
64562W        W 7615  32.324  13.147  23.137  0.0108  0.0078  0.0458
64563W        W 7616  30.488   7.104  27.430 -0.0289 -0.4833  0.2649
64564W        W 7617   8.051  22.504   0.868  0.0567  0.1142  0.2068
64565W        W 7618  33.243  30.631  20.055  0.4775  0.0185 -0.0655
64566W        W 7619   3.939  10.791   5.090  0.0619  0.1911  0.1527
64567W        W 7620  30.781  33.098  25.953 -0.1487 -0.0489  0.1849
64568W        W 7621  17.945  25.470  19.834 -0.1009 -0.4587 -0.0931
64569W        W 7622  20.365  13.866  16.450  0.1817  0.2214 -0.1726
64570W        W 7623  15.616  19.074   6.920 -0.2208 -0.2570 -0.0887
64571W        W 7624  13.713  14.420  19.307  0.0251 -0.4573 -0.0135
64572W        W 7625   1.540  25.071  19.511 -0.0210 -0.1533  0.1988
64573W        W 7626  19.031   7.620   0.808 -0.4523  0.0630 -0.1743
64574W        W 7627  17.264  12.876  29.114 -0.0498 -0.2077 -0.1420
64575W        W 7628   0.062  20.587   8.528 -0.2511  0.0164 -0.3393
64576W        W 7629  20.032  30.608  24.884  0.0830 -0.3020  0.4295
64577W        W 7630  26.155   6.096  18.860 -0.0896 -0.0304  0.0358
64578W        W 7631   0.453  31.934  15.664  0.2443 -0.1369 -0.1316
64579W        W 7632  25.505  34.452   5.795  0.0115 -0.3185  0.1483
64580W        W 7633   9.503   1.413  25.187 -0.2748 -0.2838 -0.1132
64581W        W 7634  21.637   7.783   1.265  0.3144  0.1263 -0.1480
64582W        W 7635  32.334  24.865   3.188 -0.0566 -0.0411 -0.1517
64583W        W 7636   9.061  21.548  21.135  0.0267  0.3281  0.2668
64584W        W 7637  34.484  23.081  19.979 -0.1027 -0.2177  0.0257
64585W        W 7638  33.160  19.987  21.879  0.0648  0.0348  0.0892
64586W        W 7639  30.419  16.902   2.302  0.2477  0.2826  0.1553
64587W        W 7640  10.415  30.816   1.038 -0.1776  0.1421 -0.1725
64588W        W 7641  11.416  15.862  24.274  0.0356  0.0134 -0.0341
64589W        W 7642  29.660   8.013   7.384  0.2778  0.0711  0.1659
64590W        W 7643   1.417  12.447   4.722  0.2012 -0.1832  0.0558
64591W        W 7644  33.996  17.594  18.170 -0.0313  0.2059 -0.2490
64592W        W 7645   6.170  18.598  28.925 -0.1487  0.0976  0.0147
64593W        W 7646  19.381  31.692  20.322  0.0321 -0.1071 -0.2558
64594W        W 7647   2.008  31.106   1.740  0.1239  0.1559  0.1326
64595W        W 7648   9.645  22.432   2.537  0.2550 -0.2840 -0.0454
64596W        W 7649   9.584  26.145  23.162  0.1913 -0.0294 -0.1230
64597W        W 7650  28.470   3.430  24.704 -0.0802  0.2037 -0.1826
64598W        W 7651   6.327   2.443  19.252  0.1910 -0.0197 -0.2314
64599W        W 7652  16.890   9.062  18.228  0.0695 -0.2186 -0.0953
64600W        W 7653   7.504  32.941  16.493  0.0504 -0.0652  0.0554
64601W        W 7654  14.829  25.449   4.536 -0.0881 -0.0863  0.0013
64602W        W 7655  10.910  30.598   4.022  0.1443 -0.0370  0.3654
64603W        W 7656  12.074  21.288   7.418  0.0293 -0.2120 -0.2959
64604W        W 7657   5.823   2.187   2.403  0.1127 -0.1390 -0.3149
64605W        W 7658  24.833  24.355  16.721  0.0535 -0.2431  0.2694
64606W        W 7659   5.268  34.429   0.359 -0.0234  0.0677  0.0368
64607W        W 7660   9.922  15.514  26.546 -0.1457  0.0690 -0.3190
64608W        W 7661  19.037   4.626  19.585  0.2061 -0.0668 -0.2550
64609W        W 7662   8.226  31.119  15.638 -0.2980 -0.1124 -0.0161
64610W        W 7663  22.249   5.214  21.800 -0.0156 -0.0394  0.2360
64611W        W 7664  13.692  28.248  22.957 -0.0587  0.1713  0.0800
64612W        W 7665  21.673  30.903   8.247 -0.4287 -0.2943 -0.0812
64613W        W 7666  15.893  31.469  21.533  0.1375  0.1768 -0.0974
64614W        W 7667   5.098  11.912  22.536 -0.0573  0.2303 -0.1631
64615W        W 7668   5.893  23.265  20.544  0.3407 -0.1713  0.1426
64616W        W 7669   9.286   8.105  17.571  0.0705  0.0560 -0.1402
64617W        W 7670   9.946  23.605  14.434  0.0083 -0.2012 -0.1726
64618W        W 7671  15.475  22.254  24.879 -0.4547  0.1718  0.0575
64619W        W 7672   7.065  30.586  19.850 -0.2557  0.0956  0.2042
64620W        W 7673   6.966   4.449   1.822  0.3928 -0.2932  0.0495
64621W        W 7674   4.005   2.471  23.678 -0.2885  0.0102 -0.0429
64622W        W 7675  23.012  11.125  10.557 -0.0302 -0.0116  0.3824
64623W        W 7676  23.190  23.212  23.623 -0.1549 -0.1122  0.0737
64624W        W 7677  20.415  26.034  19.340 -0.0828 -0.1624  0.1548
64625W        W 7678   1.442  19.127  26.331  0.2267 -0.2136 -0.1097
64626W        W 7679  16.025  15.737  16.479 -0.2459  0.3146 -0.2070
64627W        W 7680  34.243  32.098  16.553  0.1789  0.2003 -0.0891
64628W        W 7681  15.040  16.223   9.589 -0.1407 -0.1294 -0.1706
64629W        W 7682  23.040  30.827   3.703  0.1070 -0.1650  0.1475
64630W        W 7683  21.935  24.621  27.863  0.0201 -0.1459 -0.1336
64631W        W 7684   1.137   1.222  25.899 -0.3350  0.2786  0.0926
64632W        W 7685  14.805   4.878  25.130 -0.0216  0.0089  0.0565
64633W        W 7686   0.625  29.525  16.225  0.1212 -0.2183  0.4519
64634W        W 7687   2.994   0.246   4.058  0.3345 -0.3490  0.1722
64635W        W 7688  23.009  26.386  27.740 -0.0529  0.0062  0.0506
64636W        W 7689  25.685   9.906   8.386  0.2552 -0.0511 -0.1023
64637W        W 7690   6.030  25.830  28.732  0.3421 -0.1543 -0.0068
64638W        W 7691  23.161   2.348  16.224  0.4027  0.2448  0.0291
64639W        W 7692  18.631  31.169   0.797  0.0365  0.0462 -0.1420
64640W        W 7693   3.032   6.526  21.056 -0.0669  0.3660 -0.0083
64641W        W 7694  20.378  10.496  20.882  0.0383  0.0387  0.1293
64642W        W 7695   2.875  14.485  26.179  0.1688 -0.0471  0.0316
64643W        W 7696  21.310   3.282  28.763  0.0112  0.3093  0.1386
64644W        W 7697   7.495  32.965  17.038  0.1130  0.0494 -0.0941
64645W        W 7698  19.944  22.216  27.641  0.2835 -0.2301  0.4478
64646W        W 7699  19.127  28.805   0.095 -0.0288 -0.0179  0.0515
64647W        W 7700  30.978  30.261  18.541  0.2017  0.0031 -0.2628
64648W        W 7701  20.660   9.425  26.732 -0.1536  0.1433  0.0316
64649W        W 7702  19.007   0.160  19.390  0.1463  0.1077 -0.0796
64650W        W 7703  29.964  28.700  16.420 -0.0426 -0.0235  0.0500
64651W        W 7704  11.949  12.615  24.383  0.0706 -0.0234 -0.1764
64652W        W 7705  11.881  13.493   4.354  0.1770  0.1411  0.0470
64653W        W 7706   9.555   3.445   4.078 -0.1917 -0.1515 -0.3261
64654W        W 7707   2.467   1.210  28.538 -0.2594  0.0595  0.5291
64655W        W 7708  21.370  19.273  25.827 -0.1915  0.1742 -0.4038
64656W        W 7709  12.518  24.858   0.284  0.1040 -0.1611 -0.2010
64657W        W 7710  14.824   5.092  24.657  0.0141  0.3888 -0.2283
64658W        W 7711   9.467  12.358   1.643  0.2724 -0.1447  0.2870
64659W        W 7712  14.516   1.529   6.263 -0.2748  0.2426 -0.0310
64660W        W 7713  17.793  26.792   3.442  0.1536  0.0446  0.1949
64661W        W 7714  31.896   1.706  22.930  0.2219  0.1522  0.4252
64662W        W 7715   6.825  30.924   3.981 -0.0288  0.0224 -0.1757
64663W        W 7716  20.708  23.198  28.336  0.0395  0.0795 -0.2909
64664W        W 7717  19.591  24.531   9.170 -0.3413  0.0254  0.1149
64665W        W 7718  11.729  25.651  13.177 -0.0129 -0.0775  0.2748
64666W        W 7719   6.728  27.083  17.530  0.1041  0.0445  0.0520
64667W        W 7720  26.379   0.604  25.077 -0.2689 -0.0104 -0.1844
64668W        W 7721  16.818  22.768   6.237 -0.1902  0.1257 -0.0070
64669W        W 7722   7.142   5.348  26.554  0.2474 -0.2187  0.1387
64670W        W 7723  11.210  16.200  22.769 -0.0228  0.2913 -0.2051
64671W        W 7724  11.728  32.516  17.661  0.0066  0.1855  0.0313
64672W        W 7725   4.609  16.685  20.259  0.0652  0.1138  0.3747
64673W        W 7726   2.427  19.695  24.519 -0.2378 -0.0095  0.0997
64674W        W 7727  20.975  30.660   3.597 -0.1460 -0.1673  0.2144
64675W        W 7728   7.315  34.248  16.928 -0.3665 -0.0557 -0.1133
64676W        W 7729  26.568  20.551  16.762  0.1206  0.2845  0.1866
64677W        W 7730   7.991  20.233  18.000  0.1837 -0.2223  0.2134
64678W        W 7731  32.721  26.378   8.205  0.0050 -0.0458 -0.1303
64679W        W 7732   7.888  25.181   3.251 -0.0944  0.3995  0.4036
64680W        W 7733  26.658   1.671  27.615 -0.1190 -0.2952  0.3258
64681W        W 7734  17.713  30.680  25.199 -0.0122  0.3907  0.0372
64682W        W 7735   8.325  10.384  23.889 -0.1640  0.6300 -0.1403
64683W        W 7736  13.564  30.437  19.933  0.1646 -0.3258  0.0542
64684W        W 7737   8.566  18.863  24.351  0.0688  0.1545 -0.1443
64685W        W 7738  16.937  25.266   3.567  0.1568 -0.1341 -0.1954
64686W        W 7739  13.475  31.262   0.837 -0.0203  0.3135 -0.0915
64687W        W 7740  25.338   3.942  17.044 -0.0268  0.0986  0.1513
64688W        W 7741  14.597  11.053  19.930  0.1025  0.1099  0.0776
64689W        W 7742  12.833  19.787  19.907  0.1723  0.0778  0.0925
64690W        W 7743  19.719  32.556   8.549 -0.1961 -0.1432 -0.0225
64691W        W 7744  14.313   0.052   8.033  0.2915 -0.1678  0.2993
64692W        W 7745  12.480  22.809  25.999  0.0069 -0.1955 -0.0034
64693W        W 7746   4.692   0.479  28.443 -0.0418  0.0380 -0.0505
64694W        W 7747  23.558  21.330   8.714  0.1110  0.0730 -0.1958
64695W        W 7748   9.510   6.459  25.725 -0.0484 -0.2540 -0.1701
64696W        W 7749  11.438  21.327  19.807  0.0567 -0.0093  0.4164
64697W        W 7750   8.207  26.769  24.101  0.0965  0.0122 -0.1851
64698W        W 7751  25.665  25.752   0.615 -0.0035 -0.1087  0.0694
64699W        W 7752  15.742  29.723   1.603  0.0295 -0.0027  0.0305
64700W        W 7753  22.870  33.848  28.557  0.2024  0.0053 -0.1076
64701W        W 7754  19.689  27.814   5.189 -0.0442 -0.2263 -0.1566
64702W        W 7755  21.754  24.025  19.084  0.2107 -0.1939 -0.2435
64703W        W 7756   6.163  15.613   9.056 -0.0055 -0.0360 -0.0866
64704W        W 7757   2.668   6.470  27.150  0.0285  0.0456 -0.2198
64705W        W 7758  11.663  19.931  26.451  0.0169 -0.1912  0.0550
64706W        W 7759   9.601  18.656  23.093 -0.1815 -0.2468  0.0140
64707W        W 7760  32.476   9.995  24.304  0.0397 -0.1032 -0.1065
64708W        W 7761  24.740  22.248  16.331  0.2565  0.0176 -0.3284
64709W        W 7762  18.375  27.497   2.373  0.1477  0.0155 -0.0542
64710W        W 7763  24.680  31.430  19.024 -0.0608 -0.0671  0.1938
64711W        W 7764  28.898  27.535   5.341 -0.0102 -0.5157 -0.0951
64712W        W 7765  21.899   6.718  15.937 -0.0160 -0.1923  0.1949
64713W        W 7766   7.418  23.008   3.703  0.1251 -0.1975 -0.0373
64714W        W 7767   6.768  30.732  13.536  0.0188 -0.2278  0.0946
64715W        W 7768   3.771  30.872   3.124 -0.0531  0.1639  0.0244
64716W        W 7769  12.653  30.909  23.719 -0.2106 -0.0748  0.0004
64717W        W 7770   3.149  23.168   0.643 -0.1378 -0.1274 -0.1489
64718W        W 7771  31.927   0.966   0.552  0.3148 -0.2982  0.2567
64719W        W 7772  20.651  18.699   8.876  0.0532  0.2490 -0.4273
64720W        W 7773  14.314  32.981   1.834  0.0980 -0.2430 -0.0832
64721W        W 7774   3.629   4.612  26.108 -0.0793  0.2957 -0.0798
64722W        W 7775   8.858  29.051   3.830  0.1291  0.2868 -0.3137
64723W        W 7776   5.965  19.413  20.474  0.3664  0.2826 -0.0122
64724W        W 7777  26.289  34.659   7.059 -0.0617 -0.2760  0.1912
64725W        W 7778   9.352  27.975  26.472 -0.1813  0.0006  0.1288
64726W        W 7779   1.039  28.263  14.804 -0.1125  0.0781 -0.1516
64727W        W 7780  28.834  24.758   4.897 -0.0663 -0.0094  0.0426
64728W        W 7781  33.801  25.764   0.041  0.1596 -0.5207 -0.0628
64729W        W 7782  22.438   2.152  25.453  0.0192 -0.2053 -0.0071
64730W        W 7783  16.958   0.295   7.983 -0.1135 -0.0151 -0.0312
64731W        W 7784   7.363  26.015  12.667  0.1677 -0.1821  0.0218
64732W        W 7785   7.089  20.392  14.748 -0.1666 -0.0632 -0.0224
64733W        W 7786  15.740  18.215   2.651  0.1557  0.2820  0.0719
64734W        W 7787   6.453  23.634   3.232  0.1297  0.0976  0.0723
64735W        W 7788  25.627  26.909  10.164  0.3940 -0.3707  0.2138
64736W        W 7789  27.853  25.540   2.168  0.2132  0.0526 -0.1722
64737W        W 7790  13.492  22.052  16.594 -0.0171  0.1129  0.1082
64738W        W 7791   7.364  26.567   1.924 -0.1760  0.3386  0.0265
64739W        W 7792   7.914   4.677   4.122 -0.1856  0.0376 -0.0964
64740W        W 7793   7.604  28.517  16.366  0.0455 -0.0416 -0.2546
64741W        W 7794  15.045  20.473  27.706 -0.2086  0.1620  0.4095
64742W        W 7795  27.984  20.050  21.014  0.0023  0.1071 -0.2080
64743W        W 7796  20.995  25.203   7.541 -0.3339 -0.0143 -0.0836
64744W        W 7797   5.072   3.362   2.865  0.0917  0.1790  0.0214
64745W        W 7798  15.509   6.010   8.591 -0.0741  0.0766  0.0972
64746W        W 7799  25.416   0.290   0.685 -0.1867 -0.1954  0.0524
64747W        W 7800  22.944  23.113   9.601  0.1485  0.1943  0.0467
64748W        W 7801  29.468   0.228  23.828  0.1011 -0.1836 -0.1293
64749W        W 7802   5.144  34.269  26.271 -0.0716  0.2222  0.3568
64750W        W 7803  29.535  22.900  19.874 -0.0142 -0.1206  0.0161
64751W        W 7804  12.979  24.276  25.243 -0.2284 -0.2087  0.2399
64752W        W 7805  30.670  21.523   0.228 -0.0994 -0.0267  0.0933
64753W        W 7806  19.642   8.913  21.954 -0.0100 -0.1758 -0.0089
64754W        W 7807  10.822  24.886  28.099 -0.2950  0.4363 -0.1255
64755W        W 7808  11.400  27.976  28.166  0.0798 -0.1803  0.1946
64756W        W 7809  22.594  20.219   0.226  0.2106 -0.1022  0.2105
64757W        W 7810  28.838   2.860  18.531  0.2164  0.1691  0.0945
64758W        W 7811   8.852  29.565   2.527 -0.0119  0.1473 -0.1796
64759W        W 7812  16.248  18.412  25.330 -0.2153 -0.2745  0.1075
64760W        W 7813  17.140  32.288   0.247 -0.1235 -0.1348 -0.1171
64761W        W 7814  31.699   5.934   0.195 -0.1838  0.0154  0.1513
64762W        W 7815  27.444  30.175  26.966  0.0186 -0.0235 -0.1709
64763W        W 7816   7.585  24.409  15.877 -0.2719  0.1662 -0.2373
64764W        W 7817  16.583  15.296  29.046 -0.2550 -0.0449  0.1181
64765W        W 7818  14.638   3.466  27.010 -0.1461  0.3881 -0.3570
64766W        W 7819   1.846  18.315  16.255 -0.1312  0.0981  0.2958
64767W        W 7820   3.575  30.723  23.063  0.0120  0.0620 -0.0537
64768W        W 7821  21.674  12.336   2.382 -0.0145 -0.1126  0.0850
64769W        W 7822  12.324  16.436  22.835  0.0996  0.0618 -0.0818
64770W        W 7823  14.565   1.579   1.130  0.0386  0.0678  0.0416
64771W        W 7824   1.378  12.477  25.227 -0.3276  0.0321  0.0774
64772W        W 7825   1.244   3.520  19.597 -0.1987  0.0158 -0.0393
64773W        W 7826  14.672  20.060  15.411  0.1451 -0.0386  0.1880
64774W        W 7827   6.178   2.318   8.066  0.0653 -0.2547 -0.1739
64775W        W 7828  15.103  31.151  16.945 -0.0021  0.2360 -0.0536
64776W        W 7829   5.379  16.311   8.870  0.0264  0.0315 -0.1410
64777W        W 7830   7.491  16.670  26.143 -0.2349 -0.1458 -0.1648
64778W        W 7831   3.553  32.375   3.693  0.2962  0.3467  0.2110
64779W        W 7832  20.374  28.974  23.933  0.0729  0.2219  0.1045
64780W        W 7833   3.432  34.543  16.153  0.1609 -0.0335 -0.0109
64781W        W 7834  27.481  14.262   2.434  0.0628 -0.2896 -0.1255
64782W        W 7835  34.110   2.378  27.238  0.0182  0.4173 -0.1604
64783W        W 7836  29.078  19.844  23.981 -0.0703 -0.0324  0.3415
64784W        W 7837  11.433   3.210   1.114 -0.2908 -0.1786  0.0363
64785W        W 7838  18.732   4.672  17.717  0.1326  0.0640  0.2128
64786W        W 7839  16.041  19.754  25.493 -0.1187  0.1159 -0.1057
64787W        W 7840  14.487   9.822   3.037 -0.0581  0.4078  0.1592
64788W        W 7841   5.905  14.891  22.549  0.1037 -0.0356 -0.0730
64789W        W 7842   9.406  19.571   7.233  0.0464 -0.0237  0.0792
64790W        W 7843  26.452  12.808   0.375 -0.0171  0.0384  0.0995
64791W        W 7844  11.999  22.546  15.072 -0.0113 -0.0430  0.0860
64792W        W 7845   6.914  26.570  27.474 -0.0142 -0.0232 -0.1200
64793W        W 7846  17.464   0.066  24.151 -0.0551  0.1794  0.2140
64794W        W 7847  18.105   7.853   0.754  0.1727  0.0871  0.1676
64795W        W 7848  14.179  31.577   9.351  0.2664  0.1669 -0.3620
64796W        W 7849   6.215  23.893  14.887 -0.3444 -0.1532  0.0205
64797W        W 7850   5.196   1.979   8.310  0.1276 -0.2051  0.0844
64798W        W 7851  26.349  21.888   8.833  0.1724  0.1293 -0.2929
64799W        W 7852   2.814  25.794   4.505 -0.0938 -0.2543  0.0618
64800W        W 7853  18.344  20.240  23.776  0.0212 -0.0256  0.0957
64801W        W 7854   7.743  24.969   3.703  0.2133  0.0555 -0.2929
64802W        W 7855  22.662  23.898   0.196 -0.0751 -0.1018 -0.2078
64803W        W 7856  15.454  24.971  28.574  0.2136 -0.0369 -0.1849
64804W        W 7857  12.140  21.981   5.989  0.1438  0.0877  0.0578
64805W        W 7858  22.232  12.302   2.426 -0.1918  0.1887  0.1438
64806W        W 7859  12.600   1.620  20.929  0.0135  0.0779  0.1440
64807W        W 7860  19.261  29.891  26.561  0.0947 -0.0335 -0.5693
64808W        W 7861  16.435  16.952   4.177  0.1041  0.2316  0.0079
64809W        W 7862  11.576   8.497  19.192 -0.0213 -0.0252 -0.2403
64810W        W 7863   9.357   4.462  28.862 -0.2402  0.3925 -0.1512
64811W        W 7864  11.524  15.645  19.067 -0.0384  0.1689 -0.2797
64812W        W 7865   7.405  11.786   4.434 -0.0250  0.1895 -0.1943
64813W        W 7866   9.043  14.075   8.336 -0.2701 -0.0925  0.0058
64814W        W 7867  15.789  28.017   8.157  0.1451 -0.1305  0.1797
64815W        W 7868   6.623  10.526  19.761 -0.0611 -0.0349 -0.0421
64816W        W 7869   5.509  31.548  18.074 -0.1805 -0.3180 -0.0987
64817W        W 7870  27.557  28.992   7.803 -0.1303  0.0381  0.0712
64818W        W 7871  30.789  24.793   1.857 -0.1525  0.1345 -0.0163
64819W        W 7872   8.053  25.252  15.634  0.2439 -0.1759  0.0178
64820W        W 7873  14.536   0.854   1.243  0.2177  0.2448  0.0128
64821W        W 7874  24.439  27.638  24.455 -0.0032 -0.0588  0.0699
64822W        W 7875   6.784  26.331  25.700  0.1567  0.0555 -0.2177
64823W        W 7876  21.712   6.630  27.386  0.0250  0.0519 -0.1560
64824W        W 7877  21.110  29.732   6.966  0.1356 -0.1854 -0.3960
64825W        W 7878  28.358  12.392   1.438 -0.0516  0.0405 -0.0285
64826W        W 7879  11.981  22.829   7.076 -0.2206 -0.0104 -0.1396
64827W        W 7880  11.575  24.272  22.612  0.0199 -0.2670 -0.1123
64828W        W 7881  13.461  31.883  17.659 -0.0085  0.0670  0.0348
64829W        W 7882   8.411  25.703   1.193  0.0895  0.2625 -0.0936
64830W        W 7883  11.840  32.124  21.094  0.3426  0.1666  0.0212
64831W        W 7884  25.474  29.174   2.032  0.0340 -0.0034  0.0962
64832W        W 7885  13.011  27.338   2.861 -0.3376 -0.1315  0.1696
64833W        W 7886  20.973  31.754  24.366  0.1899 -0.2303 -0.0741
64834W        W 7887  31.325   9.660  28.895 -0.0024 -0.4896 -0.1982
64835W        W 7888   3.749  22.605  26.611  0.1293 -0.0541  0.1148
64836W        W 7889  33.580  32.979   1.902 -0.0330  0.1463  0.4380
64837W        W 7890  22.882  23.335  16.494 -0.0893 -0.0012 -0.0915
64838W        W 7891   4.417  22.590  24.221 -0.0472 -0.1045 -0.4423
64839W        W 7892  19.504  19.087  12.975  0.3024  0.0283  0.0090
64840W        W 7893  12.991  27.192  22.480  0.0820  0.0566  0.1503
64841W        W 7894  16.193  28.492  17.503 -0.1064 -0.0107 -0.0300
64842W        W 7895   1.685  30.033   3.115 -0.1194 -0.0815 -0.4715
64843W        W 7896   2.807   8.843   0.287 -0.3469  0.0168  0.2955
64844W        W 7897  12.916  31.044  20.562  0.1071 -0.1679 -0.0902
64845W        W 7898   4.935   8.269  22.860  0.3124 -0.1779 -0.2677
64846W        W 7899  10.432   5.442   7.706 -0.1026  0.1519  0.0422
64847W        W 7900  20.806  28.187  28.137  0.0457 -0.1133 -0.2310
64848W        W 7901  14.830  27.494  21.526  0.1518  0.0359  0.2637
64849W        W 7902   8.177  22.777  28.139  0.2380 -0.1424  0.0786
64850W        W 7903  13.963  11.018  25.684 -0.1920 -0.0970 -0.0548
64851W        W 7904   9.724  17.004  27.277  0.0697 -0.2482  0.0999
64852W        W 7905  13.194  33.451  22.698 -0.1363 -0.0858 -0.2711
64853W        W 7906  25.170  10.370  13.845 -0.2818 -0.1998  0.0284
64854W        W 7907   1.004  26.935  24.589 -0.0667 -0.2441  0.2169
64855W        W 7908   6.910   2.763  22.930  0.7016 -0.1361 -0.0103
64856W        W 7909  15.518  14.522   8.470 -0.1461  0.0646  0.3020
64857W        W 7910   5.775  11.165   8.748 -0.0175 -0.1219  0.1840
64858W        W 7911  11.975  21.605  10.372  0.1852  0.2644  0.4371
64859W        W 7912  10.509  12.987   9.514 -0.2404  0.1711 -0.1997
64860W        W 7913  16.723  26.114   9.668 -0.2077  0.1104  0.0003
64861W        W 7914  34.277  29.254  24.080 -0.0697 -0.1363 -0.2007
64862W        W 7915  23.539  29.360  21.731  0.1683  0.0853 -0.0250
64863W        W 7916   3.937   7.614   7.141  0.1842  0.1506 -0.1412
64864W        W 7917  27.977  25.694  22.241  0.0458 -0.0198 -0.0361
64865W        W 7918   7.323  23.318  28.601 -0.0328  0.0282 -0.1341
64866W        W 7919  18.180  10.491   3.753 -0.1929  0.0824 -0.0741
64867W        W 7920  13.780  23.169  22.977  0.1867  0.2293 -0.0584
64868W        W 7921  13.130  20.826   8.776  0.3255 -0.4458  0.1824
64869W        W 7922  23.449   3.361   8.413 -0.3897  0.0352 -0.0148
64870W        W 7923  30.066  33.456  26.307  0.4283  0.0047  0.0545
64871W        W 7924   5.839  16.530   5.624 -0.2223 -0.0748  0.2963
64872W        W 7925  11.025  19.221  18.683 -0.1033 -0.2635  0.2357
64873W        W 7926  12.572  32.452  25.111  0.0067  0.1526  0.0143
64874W        W 7927  21.445  11.474  28.410  0.1374  0.1530  0.0158
64875W        W 7928   4.464  32.505  28.672 -0.0282 -0.1117  0.2385
64876W        W 7929  17.693  14.456  10.365  0.0133 -0.1688  0.0600
64877W        W 7930  15.336  17.521   2.736 -0.0860 -0.0754 -0.1185
64878W        W 7931   5.977   6.913  27.657  0.1409 -0.2442 -0.2502
64879W        W 7932  34.247  33.350  24.053 -0.2292  0.0433  0.4013
64880W        W 7933  23.290  33.367   6.039  0.0948  0.2039 -0.1368
64881W        W 7934  12.752  26.695  20.758  0.2896 -0.1345  0.2777
64882W        W 7935  12.757   5.577   9.065  0.2044 -0.2998 -0.0402
64883W        W 7936   1.334  20.019   5.526 -0.1699  0.2474 -0.0419
64884W        W 7937   4.094   5.360  20.953 -0.2212  0.0614  0.0295
64885W        W 7938  27.782  29.193  23.883  0.0112 -0.0266 -0.0157
64886W        W 7939  22.089  27.191   5.202 -0.0607 -0.1218  0.1141
64887W        W 7940   8.772  23.935   2.761  0.0568  0.0285  0.3587
64888W        W 7941   8.256  27.750  24.704 -0.0232 -0.0618 -0.2295
64889W        W 7942  26.929  27.855  26.278 -0.2092 -0.0544  0.4098
64890W        W 7943  24.927  17.708  22.413 -0.0485  0.0772 -0.4158
64891W        W 7944  14.642   8.570   1.870 -0.2364 -0.0497  0.0428
64892W        W 7945  25.717  26.231   9.185 -0.2247 -0.1953 -0.1723
64893W        W 7946   3.382   1.324  15.908 -0.0541 -0.1325 -0.1330
64894W        W 7947   7.472  30.348   0.513  0.3575 -0.0309 -0.3374
64895W        W 7948  16.500   1.102   0.216  0.2652 -0.4009 -0.3860
64896W        W 7949   9.940  20.934  26.902  0.1070  0.3333 -0.1161
64897W        W 7950  33.961  27.114   6.308  0.1235 -0.0379  0.3090
64898W        W 7951  17.911   3.933  23.145 -0.1112 -0.0384  0.0292
64899W        W 7952  24.034  12.908  22.712  0.2118  0.4387  0.1322
64900W        W 7953  18.290  33.253  20.804  0.4303 -0.0993 -0.1413
64901W        W 7954  12.827  14.703  17.782 -0.1921  0.1996 -0.2365
64902W        W 7955  19.167   8.198   3.155  0.0164 -0.0628  0.0175
64903W        W 7956   8.898   8.132  24.958 -0.2484 -0.1321  0.2632
64904W        W 7957  15.960  25.594  27.609  0.0687  0.1733  0.3311
64905W        W 7958  34.494  10.892   1.520 -0.0382 -0.3059 -0.2717
64906W        W 7959  15.764  19.145  24.268 -0.0489  0.3104 -0.0562
64907W        W 7960  15.458  21.906  25.608  0.3527 -0.1195  0.1472
64908W        W 7961  11.279  28.337   3.827 -0.0410 -0.0185 -0.1951
64909W        W 7962   7.610   4.595   8.784  0.0493 -0.2526  0.0678
64910W        W 7963  16.232  23.875   4.951 -0.0924  0.1264  0.0395
64911W        W 7964  11.594  21.887  19.851  0.0484  0.2358  0.3080
64912W        W 7965   5.948  26.775  21.299 -0.2270 -0.1843 -0.1248
64913W        W 7966   1.251  28.990  17.774  0.2276 -0.1835  0.1225
64914W        W 7967   9.852  30.892   5.969  0.1419 -0.1499 -0.0986
64915W        W 7968  16.569  32.143  26.459 -0.1607  0.2617  0.2083
64916W        W 7969   3.315  24.414  19.184 -0.2804  0.0299  0.1116
64917W        W 7970  33.125  26.742  26.087  0.2374  0.2897 -0.0088
64918W        W 7971  11.710  21.946  17.170  0.1093 -0.1066 -0.2171
64919W        W 7972  34.634  22.345  20.625  0.2560  0.3749 -0.0499
64920W        W 7973  29.237  28.375   1.803  0.0071 -0.3084 -0.1501
64921W        W 7974  34.024  22.718  23.427  0.2984 -0.1336 -0.0946
64922W        W 7975  30.233  23.726  29.143  0.3355  0.1547  0.1327
64923W        W 7976   7.122  22.108   6.864  0.1460 -0.4301  0.4015
64924W        W 7977  13.102  14.665  20.655 -0.3452  0.6786  0.2623
64925W        W 7978  15.306   3.117  18.362 -0.0718  0.2512 -0.0080
64926W        W 7979  10.650  19.878   0.957  0.2648 -0.1006 -0.1125
64927W        W 7980  12.200  30.962   5.842  0.0406 -0.0076 -0.1507
64928W        W 7981  29.908  22.529  14.875  0.1813  0.1874 -0.0918
64929W        W 7982   7.053  26.391  22.178  0.1275  0.0350  0.1316
64930W        W 7983  25.020  33.904  23.190  0.0713  0.0315 -0.1721
64931W        W 7984  11.251  28.613   4.755 -0.0429  0.3043  0.1550
64932W        W 7985   8.003  31.428   5.088 -0.0595 -0.2544  0.1827
64933W        W 7986  30.277  12.464   5.642  0.1583  0.3982  0.1228
64934W        W 7987   7.911  24.639  13.689 -0.3094  0.0646  0.1746
64935W        W 7988   7.505  26.761  24.343 -0.2149 -0.0773  0.1162
64936W        W 7989  34.114   3.763   0.520 -0.2651  0.4509  0.3234
64937W        W 7990  21.137   3.833   9.168 -0.0290 -0.1657  0.0767
64938W        W 7991  23.110   2.826  18.662  0.0930  0.0497  0.3548
64939W        W 7992   1.991  28.561   9.117  0.0067 -0.0009 -0.1552
64940W        W 7993  21.915  16.045   8.507  0.1330  0.1261 -0.1842
64941W        W 7994  23.925  30.767  18.183 -0.0392 -0.0054 -0.0958
64942W        W 7995  16.747  26.536  10.002  0.0115  0.3729 -0.2325
64943W        W 7996  19.964   0.302   4.074 -0.1956 -0.0383 -0.0836
64944W        W 7997  15.118   3.893   7.067 -0.1429 -0.3576 -0.0649
64945W        W 7998  12.277  17.119   2.954  0.0340 -0.0650  0.0484
64946W        W 7999  27.216   6.281   2.240 -0.1323  0.0947  0.1633
64947W        W 8000  13.514  34.379   2.661 -0.0236 -0.0380 -0.2719
64948W        W 8001   5.698  28.325  23.827  0.0869  0.1473  0.1319
64949W        W 8002  18.227   5.846   4.984 -0.0833  0.0687 -0.0693
64950W        W 8003  34.560  28.249   4.038 -0.1199 -0.0240  0.2187
64951W        W 8004   1.493  30.010   7.852  0.0972 -0.1161  0.2794
64952W        W 8005   7.616  17.996  22.238  0.0583 -0.3192  0.1057
64953W        W 8006  20.726   0.829  26.913 -0.1438 -0.0607  0.1007
64954W        W 8007  16.901  24.904   4.464 -0.1037  0.3009 -0.1962
64955W        W 8008  33.462  10.519   6.757  0.0705  0.1430 -0.0578
64956W        W 8009   5.543  31.587  21.466  0.0116  0.0869  0.1645
64957W        W 8010  20.899   1.756  24.485  0.0404  0.0914  0.0852
64958W        W 8011   9.455  19.682   8.648  0.2850 -0.0012 -0.1864
64959W        W 8012  34.433  26.156   4.360  0.0157  0.0157  0.3471
64960W        W 8013   4.745   7.511  24.467  0.1432 -0.1607  0.1978
64961W        W 8014  23.317  16.055   3.445 -0.1238  0.2044  0.0317
64962W        W 8015   8.745  28.128   3.944  0.1785 -0.1920  0.0561
64963W        W 8016   8.071  29.195  23.912  0.0361 -0.2952  0.0995
64964W        W 8017  16.633  16.397   8.926 -0.1628 -0.0092 -0.3119
64965W        W 8018  28.488  15.365  20.541 -0.0483  0.1122 -0.4876
64966W        W 8019   9.225  31.424   9.175 -0.2437 -0.5702  0.2221
64967W        W 8020  33.576  29.218   4.803 -0.1849  0.2962 -0.0256
64968W        W 8021   3.348  25.525  28.110  0.0379  0.1656 -0.1558
64969W        W 8022  28.533  25.502  26.367  0.0191 -0.0407  0.2491
64970W        W 8023   0.661  11.635   1.374  0.0424  0.1891 -0.0247
64971W        W 8024   8.394   9.766  10.094  0.1424  0.1434  0.1716
64972W        W 8025  23.378  29.522   7.727  0.2703 -0.1589 -0.1458
64973W        W 8026  26.124   3.396   1.245  0.1517 -0.1240 -0.0024
64974W        W 8027  24.851  27.259   9.220  0.1799  0.1744 -0.0115
64975W        W 8028  18.431  29.296  24.452 -0.0998  0.1029  0.1939
64976W        W 8029   3.221   4.027  16.686 -0.0672  0.2114  0.1984
64977W        W 8030  33.784  14.345  18.826 -0.4633 -0.0045  0.3386
64978W        W 8031   8.523  17.582  17.899 -0.1166  0.4061  0.2861
64979W        W 8032  21.747  25.894  17.728  0.2872 -0.1141 -0.0642
64980W        W 8033   1.232   1.650  16.437 -0.3509  0.0960  0.0748
64981W        W 8034  13.392  25.984  16.292 -0.5946 -0.1739 -0.0359
64982W        W 8035  25.033  31.094  18.870 -0.2559  0.0157  0.3129
64983W        W 8036  17.333  23.529  14.713 -0.0003 -0.1050  0.5226
64984W        W 8037  14.161   2.368  19.344 -0.3243  0.0685  0.0561
64985W        W 8038  11.922  30.711  19.192  0.0539 -0.1182  0.1410
64986W        W 8039   8.889  19.168  22.784 -0.1486  0.2345  0.0261
64987W        W 8040  11.058  22.144  24.097 -0.6844 -0.1246  0.0944
64988W        W 8041  11.605  22.255  23.473 -0.0688  0.0663  0.0797
64989W        W 8042  30.118  18.850  18.643  0.1022  0.1495 -0.0172
64990W        W 8043   3.798  26.032  22.605  0.0696  0.2104  0.0780
64991W        W 8044   3.828  26.365   7.331 -0.0636 -0.2045 -0.0360
64992W        W 8045  23.837  26.636  15.249  0.1738 -0.2049  0.1166
64993W        W 8046  14.617   0.601  26.419  0.6306  0.1151  0.1332
64994W        W 8047  12.879  18.476  19.705  0.0017 -0.2234  0.0979
64995W        W 8048  20.623  21.564  23.029 -0.1402 -0.0710 -0.1833
64996W        W 8049  17.085   2.390  23.925 -0.2068 -0.1212  0.0151
64997W        W 8050  10.552  14.543  20.961  0.0718  0.1072 -0.1585
64998W        W 8051  12.846   5.802  25.054  0.3362  0.2669 -0.0883
64999W        W 8052   4.698  16.395  15.590  0.0987 -0.2536  0.1060
65000W        W 8053  11.308  16.065  20.664 -0.4659 -0.3731 -0.0060
65001W        W 8054  14.450  21.887  18.678 -0.4913  0.3001  0.0948
65002W        W 8055   7.463   0.445  24.378  0.0509 -0.0272  0.1740
65003W        W 8056   7.676  27.402   0.340  0.0321  0.0164  0.1719
65004W        W 8057   7.266   4.226   0.083  0.1670  0.0440  0.0093
65005W        W 8058   0.652   1.877  13.467  0.0605 -0.1184 -0.1230
65006W        W 8059  15.850   3.703  25.842 -0.1477 -0.1231  0.1267
65007W        W 8060  13.652  33.122  25.658  0.1650 -0.1487 -0.3810
65008W        W 8061  25.213  32.268  21.071 -0.1524 -0.0258  0.1272
65009W        W 8062  16.326   9.655  21.608  0.0998  0.0217  0.0643
65010W        W 8063  14.682   5.197  21.535 -0.2311 -0.0616 -0.3653
65011W        W 8064  29.867  31.194  16.158 -0.1314  0.1125 -0.2693
65012W        W 8065  13.924  20.942  27.239 -0.0871 -0.2601  0.0371
65013W        W 8066  32.023  24.526  20.500 -0.0546 -0.0715  0.1798
65014W        W 8067   3.224  32.682  18.807  0.1452 -0.2315 -0.0072
65015W        W 8068  18.515  30.508  16.650  0.1254  0.1524  0.1265
65016W        W 8069  12.064   7.309  24.706 -0.0774  0.0304 -0.1347
65017W        W 8070  15.297  32.877   3.277 -0.0513  0.0230  0.0609
65018W        W 8071   9.182   1.755   7.101 -0.1900  0.0036  0.2362
65019W        W 8072   4.824  26.552  24.059 -0.0228 -0.0879  0.0124
65020W        W 8073  32.597   0.907  23.786 -0.1737  0.0488  0.2539
65021W        W 8074  13.606   3.047  21.953  0.1925  0.1910 -0.1968
65022W        W 8075  21.435  21.242  16.658 -0.3032 -0.1040 -0.1885
65023W        W 8076  22.964   4.568  22.984 -0.1321 -0.0112  0.0782
65024W        W 8077   8.843  19.987  19.908  0.2090  0.0643 -0.0684
65025W        W 8078   6.009  23.858  23.480 -0.1523 -0.1178  0.4221
65026W        W 8079  15.489  30.605  15.640 -0.2345  0.0598 -0.0280
65027W        W 8080  12.400  30.592  15.622 -0.0782 -0.1102 -0.2245
65028W        W 8081   7.016  26.004  19.094 -0.0375 -0.0057  0.1184
65029W        W 8082   3.560  25.698  17.422 -0.0051 -0.1720 -0.1328
65030W        W 8083  12.657   3.435  14.423  0.2122 -0.0614 -0.0674
65031W        W 8084   5.146  19.190  22.560 -0.1686 -0.0865  0.2347
65032W        W 8085   4.294  22.011  16.622  0.0905  0.3885 -0.1714
65033W        W 8086  11.822  30.891  16.746 -0.0990  0.0398 -0.2947
65034W        W 8087  30.974  33.942  24.149 -0.0228  0.0984  0.1877
65035W        W 8088  22.252   5.855  17.560 -0.1030 -0.0766 -0.2412
65036W        W 8089  15.090  26.261  21.998  0.0659 -0.0752 -0.0785
65037W        W 8090  14.185  21.805  24.296  0.2036 -0.3430  0.2543
65038W        W 8091  32.035  23.960  20.046 -0.0162  0.1394  0.0900
65039W        W 8092   7.311  26.705  19.724 -0.1783 -0.1703 -0.2207
65040W        W 8093  16.216  24.929   5.654 -0.0173  0.1623 -0.1146
65041W        W 8094  13.355  30.976  20.727  0.2749 -0.4870 -0.1045
65042W        W 8095   9.873  34.572   1.341  0.1808  0.1189  0.4356
65043W        W 8096  13.708   6.310  17.629 -0.1802  0.0546  0.0179
65044W        W 8097  10.733  28.431  24.561  0.0539 -0.0609  0.0011
65045W        W 8098   2.589   1.320  13.817  0.0955  0.3493  0.3289
65046W        W 8099  16.933  29.117  22.986 -0.0506  0.2292 -0.1244
65047W        W 8100   8.541  28.059  23.491 -0.0705 -0.1430  0.0057
65048W        W 8101  28.656   1.946  15.871  0.2267 -0.1788  0.4532
65049W        W 8102  34.046   1.630  21.245  0.1480 -0.0745 -0.4027
65050W        W 8103  14.588  15.272   4.560 -0.0845  0.1018 -0.2855
65051W        W 8104  17.817  28.573  21.817 -0.1122  0.0945  0.0443
65052W        W 8105  31.405   7.607  18.372 -0.0684 -0.3021 -0.0963
65053W        W 8106   6.711  33.527  19.623 -0.1218  0.1457 -0.1592
65054W        W 8107  26.904  33.516  20.104  0.2072 -0.1457 -0.0444
65055W        W 8108  25.261  32.095  18.913 -0.2248  0.0613  0.0775
65056W        W 8109  20.966   6.900  15.361  0.2754 -0.3903 -0.1111
65057W        W 8110   6.077   6.827  14.923 -0.1242  0.0612  0.0648
65058W        W 8111  16.042   7.235  20.562  0.2742  0.1378 -0.0075
65059W        W 8112   9.251  16.843  18.260 -0.1516 -0.2748 -0.3390
65060W        W 8113  12.656   3.325  18.753 -0.1865  0.2840 -0.0417
65061W        W 8114  22.778   3.667  21.858 -0.0356 -0.1177  0.3951
65062W        W 8115   5.335   2.357  14.443 -0.2773  0.1291  0.2484
65063W        W 8116   1.417  19.057  27.073 -0.0318  0.0381 -0.1429
65064W        W 8117  16.660   7.760  26.650  0.2550  0.0905  0.0581
65065W        W 8118  10.395  21.199  20.710  0.0204 -0.2507  0.0746
65066W        W 8119   7.082  24.821  26.659 -0.1236 -0.2236 -0.2281
65067W        W 8120  11.848  19.462   0.520  0.1219 -0.0651  0.1907
65068W        W 8121  19.942  24.116  21.898  0.0985 -0.2136  0.1176
65069W        W 8122  14.111  32.912  25.765 -0.1219 -0.0648 -0.0055
65070W        W 8123  19.156  27.870  18.392  0.0405  0.0055 -0.2767
65071W        W 8124  13.651  29.660  24.255 -0.0984  0.1532  0.0159
65072W        W 8125  34.527  22.080  19.145  0.3721 -0.0738  0.0104
65073W        W 8126  28.543   0.833  26.193 -0.6752  0.1314  0.1670
65074W        W 8127   6.460  27.964  17.771 -0.0826 -0.1652  0.0407
65075W        W 8128  20.823  32.869  15.706  0.0089  0.3713 -0.0415
65076W        W 8129   1.119   0.517  14.861 -0.0628 -0.0127 -0.0400
65077W        W 8130  12.831  16.344  23.006  0.0811 -0.1957 -0.1269
65078W        W 8131  20.452   5.278  22.777 -0.0530  0.0243 -0.4588
65079W        W 8132  34.133  30.576  13.757  0.0381 -0.0855 -0.1958
65080W        W 8133   8.366  26.953  23.624  0.0284  0.2623 -0.0218
65081W        W 8134   9.339  25.182  20.877 -0.0543 -0.1957 -0.2139
65082W        W 8135  32.583   5.666  22.339 -0.2654 -0.1639 -0.4891
65083W        W 8136  34.015   7.881  17.257 -0.0158  0.0260  0.0747
65084W        W 8137   6.806   8.583  24.530  0.1666  0.0657  0.1041
65085W        W 8138   3.799   6.300   1.140 -0.1561  0.0357 -0.1499
65086W        W 8139  14.659  34.280  19.115  0.1251  0.1160  0.3449
65087W        W 8140  16.743  24.982  20.873 -0.1643  0.0443  0.0783
65088W        W 8141  11.857  10.612  21.342  0.0582  0.1963  0.1703
65089W        W 8142  27.873  33.656  26.911  0.3049  0.0473 -0.0573
65090W        W 8143  19.432  13.825  13.101  0.0787  0.0979 -0.2019
65091W        W 8144   4.090  34.236   7.402 -0.3141  0.1826 -0.2039
65092W        W 8145  13.913  31.003  29.094  0.0238  0.0160 -0.2582
65093W        W 8146  17.760   1.142  17.025  0.1505  0.2852 -0.1886
65094W        W 8147  14.322  31.890   3.665 -0.0319 -0.1149  0.0539
65095W        W 8148   7.175  31.495  21.646 -0.2409  0.0818  0.2441
65096W        W 8149  30.114   2.274  23.159 -0.0478 -0.1588  0.1415
65097W        W 8150   7.835  23.589  26.195  0.1111 -0.0208  0.4271
65098W        W 8151   2.398   9.672  23.380  0.2474 -0.3603 -0.1759
65099W        W 8152  20.374  34.586  17.014  0.2970 -0.0186  0.0741
65100W        W 8153  16.672  24.554  22.774 -0.2122  0.0938 -0.1824
65101W        W 8154  10.833  18.262  16.755 -0.1268 -0.1666  0.2180
65102W        W 8155  26.323  28.345  19.295 -0.1481  0.1873 -0.0087
65103W        W 8156  13.834  23.868  14.767  0.0204 -0.0505 -0.0666
65104W        W 8157  24.059  22.895  20.351  0.1989 -0.1437  0.0777
65105W        W 8158  27.390  30.621  27.455  0.1178 -0.1412 -0.0561
65106W        W 8159  10.109  33.897  22.363  0.4986 -0.2414 -0.1635
65107W        W 8160  18.610  33.980   1.339  0.1964 -0.2542  0.0027
65108W        W 8161   6.553  27.992  13.684 -0.1705  0.2717 -0.2248
65109W        W 8162   5.923  31.893  19.334  0.2036 -0.0199 -0.0615
65110W        W 8163   9.036  15.919  17.639  0.1040 -0.2707  0.1896
65111W        W 8164  17.918   1.659  23.855  0.0038  0.0697 -0.1129
65112W        W 8165  34.547   0.017  17.295 -0.0479  0.0031  0.0384
65113W        W 8166   6.750  12.050   6.459  0.1566  0.2557 -0.0202
65114W        W 8167   4.592   2.937   3.345  0.1082 -0.1323 -0.1140
65115W        W 8168  18.783  29.785  15.220  0.0361 -0.2331  0.2188
65116W        W 8169  15.950  15.350  23.679  0.0622 -0.1009  0.0769
65117W        W 8170   8.194   1.291  16.932 -0.1013 -0.2466 -0.2656
65118W        W 8171  13.373  11.811  16.045 -0.2491  0.2373 -0.0574
65119W        W 8172   5.243  15.946  27.573 -0.3399  0.2078 -0.3153
65120W        W 8173   4.677  26.773  14.585 -0.0748 -0.0781  0.1415
65121W        W 8174  23.372  14.298   2.474  0.2415  0.1499 -0.0374
65122W        W 8175   8.933  31.012  19.662  0.0030  0.0661 -0.2660
65123W        W 8176  27.731  29.784  26.668  0.0317 -0.1249  0.1008
65124W        W 8177   8.359   2.779  19.167  0.1829 -0.0432  0.2020
65125W        W 8178  18.254  31.865  25.655  0.0361  0.0964  0.1946
65126W        W 8179   7.881  13.996  23.279  0.3901 -0.1241 -0.0552
65127W        W 8180  29.327   1.334  14.644  0.1549  0.2336  0.0526
65128W        W 8181  18.813  26.151   2.219  0.0322 -0.0003 -0.0194
65129W        W 8182   1.516   8.431  27.482  0.1033  0.0538 -0.0375
65130W        W 8183  15.681  25.614  16.723  0.2592 -0.3049  0.1025
65131W        W 8184  12.205  32.187  16.407  0.1374  0.0966  0.4792
65132W        W 8185  15.336   2.881  21.872 -0.1666 -0.0023  0.1512
65133W        W 8186  11.207  29.158  25.566  0.0365  0.0583  0.1339
65134W        W 8187   6.911   8.706  27.797 -0.1577 -0.0025 -0.2688
65135W        W 8188  18.776  21.876  17.375 -0.4133  0.2234 -0.0534
65136W        W 8189  11.503  30.725  17.788 -0.2087  0.1954  0.2863
65137W        W 8190  22.444  10.386  23.429  0.0988  0.3433 -0.1901
65138W        W 8191  33.499  11.394  17.979 -0.0004  0.1120 -0.2436
65139W        W 8192   9.277  28.856  20.108 -0.5014 -0.0979  0.1373
65140W        W 8193  14.681  31.295  21.441  0.0009  0.1752  0.1061
65141W        W 8194   0.218  30.821   0.201 -0.5325  0.1380 -0.1953
65142W        W 8195  16.077  23.259  23.341 -0.1634 -0.2332  0.2162
65143W        W 8196  26.877  22.969  23.522 -0.0531 -0.1716  0.0355
65144W        W 8197   1.934   4.017  27.775 -0.1447  0.1008  0.2792
65145W        W 8198  16.143  24.328  16.914  0.0309 -0.0721 -0.1728
65146W        W 8199   4.971  30.635   3.488 -0.0130 -0.0028 -0.0001
65147W        W 8200   1.937  11.276  28.951  0.3071  0.0299  0.0261
65148W        W 8201   0.180  12.849   1.132 -0.2104  0.1102  0.0706
65149W        W 8202   1.178  10.750  23.583  0.0296  0.2117  0.0402
65150W        W 8203   1.432   3.493  16.322 -0.0332  0.0309  0.0033
65151W        W 8204  25.480   8.135  17.690  0.1347 -0.0168  0.0631
65152W        W 8205  30.626  17.860  26.435 -0.3515  0.0854  0.0744
65153W        W 8206  12.336   1.727  17.577  0.2968 -0.0125 -0.0370
65154W        W 8207  15.791   7.451  20.961  0.0839 -0.0907 -0.2922
65155W        W 8208  10.287  19.405  24.634  0.1582 -0.2909  0.0183
65156W        W 8209  20.917  23.598  14.925  0.3202 -0.0624 -0.3162
65157W        W 8210  31.425  19.582  20.505 -0.2121 -0.2954 -0.1880
65158W        W 8211   5.390  31.384   5.311  0.1649 -0.1294  0.1611
65159W        W 8212  18.696  33.288  18.061 -0.1334  0.0169  0.2100
65160W        W 8213   2.983  25.523  18.904 -0.3381  0.2001  0.0591
65161W        W 8214  13.867  32.034   1.351 -0.3409 -0.1977 -0.3855
65162W        W 8215  28.576   5.442  25.171 -0.1217  0.2946 -0.1179
65163W        W 8216  18.652   7.631  21.091 -0.1175  0.4308 -0.1169
65164W        W 8217   5.102  24.400  18.853  0.0671  0.2743 -0.1412
65165W        W 8218  17.938   9.458  18.129  0.0091  0.0175  0.0820
65166W        W 8219  28.074  25.167  20.242  0.1886  0.0072  0.2462
65167W        W 8220  34.197   8.949  14.727  0.1938 -0.4491  0.0092
65168W        W 8221  27.646  32.432  16.671 -0.0117 -0.0365 -0.1826
65169W        W 8222  13.534  31.966  18.220 -0.0102  0.0318 -0.2128
65170W        W 8223  21.515  24.592  28.336  0.4503 -0.2891 -0.2127
65171W        W 8224   5.187   4.505  21.411 -0.1312 -0.2928 -0.1500
65172W        W 8225  13.001  24.046  15.865  0.0892 -0.0470  0.4314
65173W        W 8226  31.449  30.469  21.449  0.0104 -0.1337 -0.0574
65174W        W 8227  15.069  31.529  17.945 -0.2133  0.1794 -0.3154
65175W        W 8228  15.306  16.085   1.711 -0.0684 -0.4510  0.2956
65176W        W 8229  27.739   0.646   3.879 -0.2377 -0.0771  0.0221
65177W        W 8230  11.773   2.789  17.160  0.2210 -0.3324 -0.2469
65178W        W 8231  13.625  26.314  16.944  0.2336  0.3134  0.0420
65179W        W 8232  18.347   8.622   1.176 -0.3681  0.1405  0.1230
65180W        W 8233   5.463  22.366  13.340 -0.0689 -0.1107  0.0462
65181W        W 8234   8.309  30.210  20.675 -0.0015  0.0896  0.2584
65182W        W 8235   9.379  14.780  22.582  0.2162  0.2072 -0.0813
65183W        W 8236   1.634  19.137   1.243  0.0738 -0.0890 -0.0831
65184W        W 8237  22.092   1.034  19.430  0.0887 -0.1261 -0.1040
65185W        W 8238  29.746   2.432  17.084 -0.0363 -0.2011 -0.0745
65186W        W 8239   9.990  29.594  14.858  0.1500 -0.0963 -0.3515
65187W        W 8240  11.275  32.002  20.989 -0.1962  0.1185 -0.0599
65188W        W 8241  18.750   0.187  14.819 -0.2090 -0.3286 -0.0604
65189W        W 8242   7.427  13.219  23.745  0.0272 -0.0797 -0.1838
65190W        W 8243  25.741  21.542  22.761 -0.0155  0.1515 -0.3957
65191W        W 8244  32.898  26.575  17.985 -0.1699 -0.3427 -0.1151
65192W        W 8245  10.989   5.037  28.185 -0.0775  0.1791 -0.2132
65193W        W 8246  31.300  33.209  22.491  0.2801 -0.1861  0.1339
65194W        W 8247  16.447  23.295  19.536  0.1679 -0.1437 -0.1038
65195W        W 8248   8.940  23.687  21.987  0.2361  0.0397  0.4688
65196W        W 8249  33.116  30.738  21.554 -0.0676 -0.0147  0.1981
65197W        W 8250  14.171  14.220  17.571 -0.0676 -0.2107  0.0669
65198W        W 8251  23.218  31.111  18.315  0.0669  0.2800 -0.1503
65199W        W 8252   4.394   2.373  17.619 -0.0626 -0.0793  0.0086
65200W        W 8253   4.610  30.578  15.816  0.1159  0.2387 -0.2286
65201W        W 8254  22.168  23.800   0.492 -0.2275 -0.2857  0.1477
65202W        W 8255   9.909  34.254  25.198 -0.2641  0.0816  0.1438
65203W        W 8256   1.582  29.242  21.149 -0.2963  0.0118 -0.1827
65204W        W 8257   8.852   4.247  20.434 -0.0735  0.1827 -0.0961
65205W        W 8258   9.458   1.294  16.463  0.0198 -0.0119 -0.1858
65206W        W 8259  13.427   8.428  15.559 -0.1028 -0.0368 -0.1908
65207W        W 8260   3.985  19.827  19.096 -0.1631  0.0339  0.1624
65208W        W 8261  26.642  27.970  23.907 -0.2053 -0.1034  0.0462
65209W        W 8262  18.744   2.685  17.985  0.2251  0.1882 -0.2103
65210W        W 8263  27.619  26.289  16.435  0.1890  0.2418  0.0095
65211W        W 8264  12.257  22.356  20.037  0.0335 -0.1683 -0.1874
65212W        W 8265  18.106   4.032  17.279  0.2096 -0.0383  0.4002
65213W        W 8266  20.675  15.268  23.012 -0.0298 -0.0403  0.1271
65214W        W 8267  21.729  34.041  15.041  0.0901  0.2484 -0.0549
65215W        W 8268  22.203  27.239  18.854 -0.0677  0.2265  0.2637
65216W        W 8269  13.277  33.605  16.125  0.0224 -0.2579 -0.0768
65217W        W 8270  15.976  20.267  28.775 -0.0697  0.0346  0.0280
65218W        W 8271   6.305   9.834  18.957  0.1791  0.1640  0.2211
65219W        W 8272  13.062  30.136  23.652 -0.1224 -0.1417 -0.0553
65220W        W 8273  24.437   2.881  22.526 -0.2048 -0.0040 -0.1489
65221W        W 8274  16.900  32.844  24.018  0.0052 -0.3880 -0.0355
65222W        W 8275  32.876  25.805  24.115  0.1073 -0.1980 -0.0063
65223W        W 8276   5.829  15.726  18.895  0.0101  0.0203 -0.0310
65224W        W 8277  18.937  28.743  15.360  0.0225  0.3111  0.0955
65225W        W 8278   1.016  20.887   4.326  0.1699  0.0593 -0.3608
65226W        W 8279  17.982  24.950  27.587  0.1012 -0.1298  0.0847
65227W        W 8280  22.072  24.703  16.348 -0.3933  0.2509 -0.0077
65228W        W 8281  22.841   3.554   8.068  0.0162 -0.3144  0.1758
65229W        W 8282  11.638  31.971  16.317  0.1587  0.0488 -0.0248
65230W        W 8283   8.011  23.462  14.585  0.0618  0.2137 -0.0058
65231W        W 8284   4.710  26.169  17.832 -0.1987  0.0651 -0.0064
65232W        W 8285  16.544  17.351  28.469  0.0841 -0.4953  0.0571
65233W        W 8286   1.466  25.430  20.503 -0.0507 -0.2283  0.1154
65234W        W 8287  20.086   5.043  24.008  0.2856 -0.1497 -0.0620
65235W        W 8288  22.005  32.405  25.860  0.1816 -0.0648 -0.2777
65236W        W 8289  11.256  23.373  19.321  0.1245  0.1413 -0.0292
65237W        W 8290  13.914   7.156  20.661 -0.1550 -0.0504  0.3496
65238W        W 8291  24.209   9.356  22.192  0.1542  0.1769 -0.0205
65239W        W 8292   1.326  32.264  17.295  0.2041  0.0731  0.2319
65240W        W 8293  20.106  32.785  28.509  0.1174  0.0851 -0.3812
65241W        W 8294  16.427  25.778   1.644 -0.0989 -0.0872 -0.0222
65242W        W 8295   7.496  26.151  13.267  0.0952  0.3167  0.0506
65243W        W 8296  12.568   1.834  20.241 -0.0485 -0.0939 -0.1051
65244W        W 8297  24.857   5.264  16.137 -0.1669 -0.2111 -0.1113
65245W        W 8298   2.030  16.758   2.828  0.1159 -0.0749  0.0618
65246W        W 8299  10.148   1.837  16.186 -0.1027  0.1186 -0.5207
65247W        W 8300   0.829   4.116  15.173 -0.0533 -0.0872  0.0540
65248W        W 8301  27.102  20.976  14.729  0.0426 -0.0675 -0.0828
65249W        W 8302  10.752  18.665  15.883  0.4442  0.0720 -0.2091
65250W        W 8303   5.010  15.683  26.109  0.2712  0.0365 -0.0240
65251W        W 8304   6.330  15.248   2.469 -0.0026 -0.0014 -0.1918
65252W        W 8305  27.792  30.271   3.160  0.0254 -0.2944  0.2602
65253W        W 8306   9.750  24.021  15.539  0.1963  0.2828 -0.0598
65254W        W 8307  15.488  27.892   2.246 -0.2903 -0.0748  0.1490
65255W        W 8308  17.879  28.957  16.041 -0.0212 -0.0084  0.2610
65256W        W 8309   8.677  27.826  18.267  0.1252  0.0180  0.0537
65257W        W 8310  18.630  33.450  21.176  0.0683 -0.0669 -0.0197
65258W        W 8311   8.441  29.501  15.438 -0.1502  0.0997  0.0671
65259W        W 8312  25.090   7.222  27.593 -0.1989 -0.1859  0.2024
65260W        W 8313  34.286   1.391  25.720 -0.3034 -0.3000  0.0561
65261W        W 8314   7.183  29.735  18.657  0.1738  0.0965  0.0659
65262W        W 8315  15.312  25.336  15.384 -0.0230 -0.0087 -0.2652
65263W        W 8316  12.655  22.530  17.812 -0.1613 -0.4723 -0.1071
65264W        W 8317  24.291   2.714  24.101  0.0018  0.2978  0.2312
65265W        W 8318  16.517   6.827  15.332 -0.2865  0.0822  0.2281
65266W        W 8319  20.350   3.184  20.873  0.1741  0.5415 -0.2709
65267W        W 8320  18.297  31.898  16.790 -0.2832  0.1482 -0.0098
65268W        W 8321  10.929  23.017  24.575  0.0269 -0.3114  0.0833
65269W        W 8322  15.925   2.291  17.625 -0.1782 -0.0285  0.3775
65270W        W 8323   7.754  29.902  18.894  0.0082 -0.2826  0.0030
65271W        W 8324   6.220  30.580  19.990 -0.1131  0.2816  0.2531
65272W        W 8325  12.956   0.260  20.491  0.0298 -0.1136 -0.0426
65273W        W 8326  23.605   8.592   3.967 -0.4633 -0.1467 -0.3256
65274W        W 8327  11.111   3.674  19.131  0.4348 -0.0266 -0.0335
65275W        W 8328  24.338  19.077  17.276 -0.0156  0.1314 -0.0249
65276W        W 8329  19.996   1.126  14.518  0.0015  0.3844  0.0677
65277W        W 8330  13.839  33.793  24.455 -0.0297 -0.2951  0.1058
65278W        W 8331  14.322   3.513  18.825  0.2363  0.0294  0.0879
65279W        W 8332  13.480  19.714  14.005  0.1351 -0.2528 -0.2290
65280W        W 8333   6.599  26.024  15.933  0.0175  0.2750  0.3335
65281W        W 8334   4.127  19.529  17.212  0.0335  0.2090 -0.1051
65282W        W 8335  20.798  30.662  15.417 -0.0415  0.3388  0.0625
65283W        W 8336  31.485  29.814   2.242  0.0491 -0.1591  0.0053
65284W        W 8337   8.773  24.882  27.527 -0.3932  0.2249  0.1806
65285W        W 8338  16.805  29.793  16.230 -0.3242  0.1756 -0.2300
65286W        W 8339   8.102  32.716  27.558  0.0400  0.1936  0.2210
65287W        W 8340  27.619  30.547  26.386 -0.1210  0.1123  0.0974
65288W        W 8341   0.553  28.841  22.700  0.1077  0.4131 -0.0592
65289W        W 8342  13.904  23.776  19.671  0.0130  0.1770 -0.0008
65290W        W 8343  12.398  33.098  21.382 -0.0214  0.0826  0.3418
65291W        W 8344   3.605  25.829   4.052 -0.0354 -0.0939 -0.0595
65292W        W 8345  13.654  19.345  19.940  0.1145 -0.1313 -0.0385
65293W        W 8346  19.815   5.828  19.437 -0.0708  0.0616 -0.2263
65294W        W 8347  14.651  28.695  14.869 -0.0996 -0.2027 -0.1629
65295W        W 8348   1.668  29.767   1.958  0.2579 -0.3353  0.0505
65296W        W 8349  23.219  20.513  28.740 -0.4253  0.1193  0.1360
65297W        W 8350  26.236   1.962  23.107 -0.3291 -0.0284  0.3853
65298W        W 8351  18.979  24.029  14.373 -0.1555  0.0366  0.3271
65299W        W 8352  19.241  31.843  26.444 -0.0758 -0.0019 -0.2950
65300W        W 8353   2.231  31.885  28.335 -0.1612 -0.0549  0.0718
65301W        W 8354   3.564  31.722  20.705  0.0293  0.0980 -0.0932
65302W        W 8355  14.425  19.619  24.201 -0.1313 -0.0720 -0.3257
65303W        W 8356   3.403   8.093  26.140 -0.0596  0.2356 -0.0879
65304W        W 8357  10.036  15.281  19.074  0.1565 -0.1467  0.1373
65305W        W 8358  23.405   4.253  24.257 -0.0926 -0.0432 -0.0807
65306W        W 8359  12.545   1.259  20.014  0.1784 -0.1990  0.2178
65307W        W 8360   9.766  23.492  16.114  0.0351  0.2369 -0.0642
65308W        W 8361   5.807  17.749  26.561 -0.3305  0.0403  0.0770
65309W        W 8362   2.292  27.443   3.033  0.1207  0.2102  0.0925
65310W        W 8363   0.234   8.295  16.434  0.1118 -0.1376 -0.0405
65311W        W 8364  31.123  34.651  19.516  0.1159  0.1881  0.1016
65312W        W 8365  12.508   5.702   0.076  0.1899  0.0250  0.0740
65313W        W 8366  29.000   5.549  29.068 -0.0954 -0.1062 -0.2303
65314W        W 8367  20.298  29.116  23.005  0.0102 -0.1226 -0.1338
65315W        W 8368  16.607  23.509  16.051  0.1514  0.2388 -0.0058
65316W        W 8369  16.763  33.913  17.480  0.0347  0.1803  0.2067
65317W        W 8370   2.518  29.495  17.851 -0.0184  0.0706  0.1372
65318W        W 8371   4.461  27.772  17.740 -0.2098 -0.2457  0.0110
65319W        W 8372  32.013  20.689   0.853  0.5795 -0.1075 -0.1488
65320W        W 8373  15.852  21.870  29.092  0.0020 -0.1530  0.1837
65321W        W 8374  31.043  15.665  25.503  0.1052 -0.1254  0.0592
65322W        W 8375  12.719   9.364  19.134 -0.3964  0.0779  0.1528
65323W        W 8376   2.182  31.844  26.124 -0.1518  0.0259 -0.0714
65324W        W 8377  23.515  22.916  18.268 -0.3415 -0.3123 -0.1049
65325W        W 8378  29.731  23.032  18.887 -0.1912  0.0181  0.1565
65326W        W 8379  10.818  28.851  17.804  0.0707 -0.3289 -0.0133
65327W        W 8380  26.146   1.219  21.381  0.1094 -0.3982  0.1960
65328W        W 8381  12.503  29.502  17.427 -0.0680 -0.0019 -0.0243
65329W        W 8382   9.107  21.557  17.924 -0.1723 -0.0819 -0.0472
65330W        W 8383   2.954  24.748  19.629  0.0967 -0.0145  0.3547
65331W        W 8384  15.545   8.525  28.248  0.0873  0.1008 -0.0268
65332W        W 8385   0.374  11.910  19.794 -0.1313 -0.1070  0.3315
65333W        W 8386   8.006  12.824  14.895  0.1231 -0.0361 -0.3183
65334W        W 8387   9.309   3.514  22.189 -0.0487  0.0688  0.0236
65335W        W 8388  15.886   2.129  15.236  0.0345  0.1496  0.0114
65336W        W 8389  14.216  20.616   9.632 -0.0197 -0.3307  0.2131
65337W        W 8390   6.283  20.722  14.676 -0.1935 -0.3148 -0.1573
65338W        W 8391  11.250  29.328  14.455  0.0838  0.0972  0.1900
65339W        W 8392  20.992  19.374   3.561  0.1201 -0.2714 -0.0303
65340W        W 8393  15.252   4.177  16.046  0.0027  0.1638 -0.3170
65341W        W 8394  25.116  25.019  19.645  0.1687 -0.4805 -0.0326
65342W        W 8395  13.334  11.498  27.494  0.1785 -0.1906  0.2887
65343W        W 8396   4.632   0.564  27.971  0.1610 -0.1515  0.1036
65344W        W 8397   9.377  18.718  15.940 -0.1902 -0.1063 -0.1790
65345W        W 8398  33.261  25.384  17.455 -0.1698 -0.3579  0.1754
65346W        W 8399   3.178  18.832  24.826  0.1861  0.1075 -0.0621
65347W        W 8400  21.602   3.013   2.357 -0.1775 -0.0315  0.0043
65348W        W 8401   3.476   9.775  13.630  0.0796 -0.3327 -0.2581
65349W        W 8402   6.720   5.183  17.046 -0.1323  0.0505 -0.0089
65350W        W 8403  29.121  25.655  28.813 -0.0475  0.0043  0.0603
65351W        W 8404  22.902  30.093  19.299 -0.2465 -0.0934  0.1140
65352W        W 8405   4.603   5.032  23.504 -0.0592  0.0155  0.0199
65353W        W 8406   2.350  28.896  20.035 -0.0265 -0.0577 -0.2338
65354W        W 8407  11.371  32.940  21.307  0.1442  0.0617 -0.1737
65355W        W 8408  17.197  29.351  14.534  0.2705 -0.1486 -0.2839
65356W        W 8409  28.650  21.275  18.605  0.1802  0.0929 -0.0428
65357W        W 8410   9.459  32.121  17.672 -0.0507  0.0962  0.1261
65358W        W 8411  13.836  25.757  20.445  0.2890  0.3168 -0.1199
65359W        W 8412  15.138   3.119  19.455 -0.0027 -0.2213 -0.7509
65360W        W 8413   7.295  25.370  21.702  0.2296  0.3208 -0.1300
65361W        W 8414  19.672  27.123  19.433 -0.2436 -0.1833  0.1223
65362W        W 8415   6.975   0.875  22.149 -0.0255 -0.2428 -0.1203
65363W        W 8416  28.128  13.729  17.175 -0.0500  0.0586  0.1485
65364W        W 8417  11.377  13.310  26.634 -0.1104  0.0094  0.2091
65365W        W 8418  31.028   3.499   2.425  0.0130 -0.0652  0.1677
65366W        W 8419   9.042   2.531  28.165  0.4029  0.0847  0.3532
65367W        W 8420  13.473   6.702  22.578  0.2650  0.0846  0.1771
65368W        W 8421  21.857  33.773  14.577  0.1645 -0.1227 -0.2308
65369W        W 8422  15.152  29.738  17.448  0.1507 -0.1351 -0.2447
65370W        W 8423  20.410   3.626   2.606  0.0244 -0.3497  0.0529
65371W        W 8424   6.174  33.489  17.369  0.0433 -0.0807  0.0814
65372W        W 8425  21.279  16.449  14.570  0.1538  0.2363  0.1064
65373W        W 8426  33.415  26.949  27.787 -0.1214 -0.1174  0.2856
65374W        W 8427   2.921  28.510  16.331 -0.2290  0.2060 -0.1543
65375W        W 8428  31.452   0.241  22.580 -0.0148  0.1427 -0.1131
65376W        W 8429   7.003  30.633  14.202  0.0094 -0.1611  0.1140
65377W        W 8430  15.110  27.272  22.860  0.2549  0.2319 -0.0250
65378W        W 8431   2.404  29.096  24.117  0.2217 -0.2204 -0.1309
65379W        W 8432   3.144  30.190  18.765 -0.3009 -0.2261  0.1093
65380W        W 8433   9.583  25.707  17.296 -0.0198  0.0830  0.0615
65381W        W 8434   9.997  31.247  15.554 -0.1738 -0.0378 -0.0394
65382W        W 8435  15.248   5.247  25.917 -0.0087  0.0505  0.0554
65383W        W 8436  10.250  33.480  16.268 -0.0373  0.1622  0.0561
65384W        W 8437  24.719   7.268  15.889  0.3936 -0.0604 -0.1211
65385W        W 8438  17.578   7.712  22.744  0.1308  0.1360 -0.1380
65386W        W 8439  16.937  34.617  18.388 -0.2204  0.1595 -0.1869
65387W        W 8440  32.219  19.817  19.005  0.0217 -0.0360 -0.0631
65388W        W 8441  14.921  23.276  27.254 -0.1148  0.2504 -0.0072
65389W        W 8442  17.692   2.038  14.765 -0.1090 -0.2338 -0.0830
65390W        W 8443  16.476   0.747  17.040 -0.3281  0.1107  0.1216
65391W        W 8444  14.334   2.240   2.832 -0.1252 -0.3778 -0.1586
65392W        W 8445  24.825  31.775  21.707  0.3043  0.1050  0.5120
65393W        W 8446  12.477  13.315  23.447  0.0966 -0.1980  0.0559
65394W        W 8447  19.278  27.402  26.502  0.2411 -0.0137 -0.1502
65395W        W 8448  33.635   2.351  19.081 -0.0151 -0.1383  0.0345
65396W        W 8449  20.032   6.753   3.332  0.0804  0.0417 -0.0095
65397W        W 8450  19.514  18.304  21.548  0.1704  0.1192 -0.0717
65398W        W 8451  33.963  29.316  19.491 -0.1396  0.0978  0.3709
65399W        W 8452  28.937  24.588  16.086 -0.2190 -0.1900 -0.0047
65400W        W 8453  15.181  22.946  27.543  0.0031  0.2373  0.2332
65401W        W 8454  17.923  25.789  25.636  0.0288  0.0511  0.1604
65402W        W 8455  33.163  25.885  19.296 -0.0830 -0.0556  0.1688
65403W        W 8456  19.963  21.637  18.532 -0.2117 -0.1356 -0.0564
65404W        W 8457   4.058  25.230  15.647  0.1745  0.3120  0.2336
65405W        W 8458  10.003  28.842  13.690  0.1242 -0.4343  0.0240
65406W        W 8459   7.136  20.587  12.726 -0.1635  0.1146 -0.0493
65407W        W 8460   1.923  29.370  25.960 -0.1940  0.0013  0.1054
65408W        W 8461  31.673   3.752   5.318  0.0655  0.0496 -0.2625
65409W        W 8462  12.833   9.930  27.402  0.0531 -0.1385 -0.1802
65410W        W 8463  12.565  28.735  18.725 -0.2758 -0.0047 -0.0100
65411W        W 8464   3.771  26.879  18.674  0.2019 -0.0303  0.0440
65412W        W 8465  17.889   1.225  24.989 -0.0740 -0.0423 -0.1834
65413W        W 8466  34.384   5.156  21.302  0.1622 -0.0501  0.2135
65414W        W 8467  16.066  27.110   5.183 -0.1324  0.3183  0.1060
65415W        W 8468  13.557  27.895  20.668 -0.1693  0.1122 -0.2660
65416W        W 8469  14.816  18.662  16.725 -0.1918 -0.1683 -0.2830
65417W        W 8470  27.451  27.273  18.952  0.0630  0.0221  0.1846
65418W        W 8471  16.010  18.883   5.125 -0.1235 -0.1065 -0.0854
65419W        W 8472   7.582  14.556  28.856  0.1755 -0.1927  0.0152
65420W        W 8473  12.978   9.169  22.056  0.1953  0.1229  0.1798
65421W        W 8474  22.000   1.381  29.111  0.1774  0.0453  0.0902
65422W        W 8475   3.255   6.635  24.151 -0.3564  0.0275 -0.1386
65423W        W 8476  12.329  26.092  15.642  0.0524 -0.3009  0.0256
65424W        W 8477  30.650  32.120  24.387  0.0877 -0.1641  0.0756
65425W        W 8478  15.576   6.483  20.258  0.1510  0.1800 -0.1148
65426W        W 8479  34.040   6.825  19.946  0.3355 -0.1069  0.0807
65427W        W 8480  25.976  25.322  14.945  0.5735  0.2374  0.2182
65428W        W 8481  18.013  23.592  26.181  0.0266 -0.0992  0.1093
65429W        W 8482  10.202   0.892  27.110  0.0917 -0.0244 -0.0035
65430W        W 8483  11.349   9.743   6.805 -0.3004  0.1613 -0.1180
65431W        W 8484  31.657  17.175  16.361 -0.1351  0.1818  0.1328
65432W        W 8485  11.907  33.032  15.968 -0.2281 -0.0412  0.1419
65433W        W 8486   6.476  31.623  16.846  0.1083  0.1581 -0.0401
65434W        W 8487   3.407  33.981  20.308  0.0592 -0.1328  0.2366
65435W        W 8488  31.563  10.564  20.243 -0.0085 -0.0440 -0.0905
65436W        W 8489  11.315  30.333  14.225 -0.0402 -0.0652 -0.0377
65437W        W 8490   5.075  32.708  25.444 -0.4310  0.1342  0.0709
65438W        W 8491  12.211   9.093  23.870  0.0199  0.1494  0.1236
65439W        W 8492  31.155   2.880  17.878  0.0260  0.0362  0.1068
65440W        W 8493  11.231  31.655  20.584 -0.0925 -0.2499  0.0102
65441W        W 8494  28.851  13.402  21.148  0.0807 -0.2015  0.1055
65442W        W 8495  12.172  26.640   0.122 -0.0850  0.1360 -0.2063
65443W        W 8496  14.242   9.515  22.266  0.0886  0.2545  0.0021
65444W        W 8497  16.540   5.604  26.051  0.0139 -0.2020 -0.0464
65445W        W 8498  11.151  34.218  17.198  0.2480 -0.0701 -0.2215
65446W        W 8499  11.097  27.793  17.880  0.1205  0.1713 -0.2493
65447W        W 8500  20.493  25.039  15.576 -0.2287 -0.2027  0.2656
65448W        W 8501  23.559   0.225  14.839  0.3363 -0.1456 -0.0837
65449W        W 8502  16.394   9.400  21.098  0.0438 -0.2125  0.2467
65450W        W 8503  22.326   1.560   4.002  0.0210  0.1510 -0.2579
65451W        W 8504  16.963  31.597   1.804  0.1151  0.1657  0.1164
65452W        W 8505   9.427  33.972  19.959 -0.2799  0.0557  0.1107
65453W        W 8506  12.032   2.793  25.733 -0.2703  0.2335 -0.0457
65454W        W 8507  27.273  20.771  18.849 -0.2473  0.0440  0.0112
65455W        W 8508  17.877   2.652  23.596  0.3314 -0.3216  0.4018
65456W        W 8509  29.294   0.675  18.501  0.2471 -0.0091  0.2409
65457W        W 8510   9.199   6.802   1.318  0.2631  0.0615  0.0318
65458W        W 8511  12.618  19.811   8.959 -0.0644 -0.0908 -0.1497
65459W        W 8512  16.738  13.397  13.960  0.3582 -0.1034 -0.3644
65460W        W 8513  10.555  27.405  26.078  0.2338 -0.1155  0.1215
65461W        W 8514  12.183  19.815   0.384 -0.3311 -0.0010  0.0578
65462W        W 8515  34.037  23.458  23.884 -0.4986 -0.3847 -0.2455
65463W        W 8516  25.967  24.133  23.403 -0.3218  0.0278 -0.0497
65464W        W 8517  12.919  31.288  23.440 -0.0989 -0.1019  0.2903
65465W        W 8518  30.826   7.390   5.029 -0.2681  0.1413  0.0710
65466W        W 8519  22.732   2.643  14.617  0.0815  0.0540 -0.0711
65467W        W 8520  13.828  19.574  28.864  0.2346 -0.1114  0.2211
65468W        W 8521   9.770  23.564  24.523  0.2090 -0.1574 -0.0222
65469W        W 8522  23.583  27.046  15.765 -0.2262  0.1190 -0.0308
65470W        W 8523   5.263   0.068  23.353  0.0377 -0.2546 -0.2960
65471W        W 8524  13.475  19.486  19.102  0.3991  0.1898 -0.0094
65472W        W 8525  10.704  26.254  19.430  0.1198  0.2927 -0.2020
65473W        W 8526   9.856   3.881  21.658 -0.0124 -0.0114  0.2632
65474W        W 8527  16.622  26.503  15.911  0.3077  0.0157  0.1460
65475W        W 8528  15.169   0.309  16.063  0.0260 -0.2671 -0.0024
65476W        W 8529  34.059  16.031  24.396  0.0567  0.0935  0.1034
65477W        W 8530   2.106  25.316  16.681 -0.2163 -0.0599 -0.1155
65478W        W 8531  20.445  24.905   1.044 -0.3692 -0.1324  0.2331
65479W        W 8532   2.658   1.784  15.573  0.1662  0.2556  0.0465
65480W        W 8533  28.439  29.558  25.249  0.1301  0.1012 -0.4144
65481W        W 8534  24.011  13.897  16.728  0.3163 -0.1453 -0.0301
65482W        W 8535   7.520  30.260  18.700 -0.2019 -0.2079 -0.1020
65483W        W 8536  29.213  31.144  26.628  0.2087  0.0371  0.1319
65484W        W 8537  22.086  34.390  14.981  0.1113  0.0251 -0.1832
65485W        W 8538   7.933  32.474  24.387 -0.0881 -0.0747  0.0836
65486W        W 8539  14.540  12.340  17.106 -0.3316 -0.1349  0.0908
65487W        W 8540  10.397  16.432  24.374  0.1399  0.2032  0.2050
65488W        W 8541  20.370  24.132  23.072  0.1425 -0.3187 -0.0126
65489W        W 8542  10.877   4.198   2.258 -0.0289 -0.0070  0.1144
65490W        W 8543  22.634   3.810  15.004 -0.1409 -0.3254  0.0477
65491W        W 8544  17.934  24.548  21.960  0.2323  0.2074  0.1133
65492W        W 8545   1.381  30.182  25.594 -0.1434  0.1977 -0.2247
65493W        W 8546   3.947  20.921  21.340 -0.0490  0.2876 -0.1259
65494W        W 8547  18.030  16.684  22.101 -0.2526  0.0587  0.0331
65495W        W 8548  19.275  30.545  15.017 -0.0487  0.0078 -0.1529
65496W        W 8549  25.079  25.446  23.647 -0.2466  0.0667 -0.0023
65497W        W 8550   3.875  26.522   1.733 -0.2252 -0.2458 -0.1536
65498W        W 8551  24.891  26.866   7.243  0.0266 -0.1763  0.1605
65499W        W 8552  14.531   0.122  21.986  0.0269  0.0961  0.3662
65500W        W 8553   8.794  28.123   8.071  0.0197 -0.0755  0.0800
65501W        W 8554  18.319  32.850  26.648  0.1151 -0.4056 -0.3893
65502W        W 8555  34.504  23.328  19.526  0.2736 -0.1180 -0.2779
65503W        W 8556  33.464  20.697  17.426 -0.0924  0.1241 -0.1623
65504W        W 8557   5.407  17.605  22.942 -0.3755 -0.2927 -0.3791
65505W        W 8558  26.492  24.318  24.047 -0.2505 -0.0411  0.0660
65506W        W 8559  24.375  30.551  15.663  0.0042  0.1335  0.0514
65507W        W 8560  17.166  30.403  15.715 -0.0003  0.2015 -0.0848
65508W        W 8561  13.667   8.209  21.327  0.2691 -0.3677  0.0658
65509W        W 8562  15.509  33.225   7.082  0.2359  0.0867  0.0259
65510W        W 8563  14.615  29.430   3.794  0.0629 -0.0174 -0.2397
65511W        W 8564  12.304  26.682  13.921  0.0030 -0.0802 -0.2953
65512W        W 8565  12.926  22.644  17.101 -0.1314 -0.2774  0.1057
65513W        W 8566  20.418   0.921  22.235 -0.2597 -0.0597  0.0497
65514W        W 8567   5.679   8.974   6.050  0.0982 -0.3096 -0.0953
65515W        W 8568  18.494   7.944   8.772 -0.0006  0.1284  0.2839
65516W        W 8569   6.613   1.876   2.927  0.2244 -0.0221 -0.0477
65517W        W 8570  12.263   8.154  16.082 -0.0370 -0.1953 -0.0356
65518W        W 8571  17.864  24.687  18.892 -0.1855  0.0295  0.1083
65519W        W 8572  21.888  15.729  13.330 -0.0300 -0.3542  0.0739
65520W        W 8573   9.717   7.117   2.292 -0.2361  0.0477 -0.1072
65521W        W 8574  10.083  19.944  22.707  0.1033  0.1816  0.0353
65522W        W 8575   6.955  32.860  14.628  0.3559 -0.1262 -0.1454
65523W        W 8576  17.344  27.376  14.808 -0.0387 -0.1035  0.2433
65524W        W 8577   1.021  32.864   7.002 -0.1713 -0.1766 -0.0126
65525W        W 8578   7.741  29.837  14.321 -0.0631  0.0569  0.1429
65526W        W 8579  15.859  20.354  15.415 -0.1066  0.1109 -0.0276
65527W        W 8580  14.378  13.738  18.320 -0.0950 -0.1810  0.1870
65528W        W 8581   6.482   9.102  18.208  0.1963  0.2597  0.1329
65529W        W 8582  17.122  22.809  20.996  0.2024 -0.0857 -0.1809
65530W        W 8583   8.168   7.360  18.349  0.0598 -0.1330  0.0109
65531W        W 8584  23.608   1.182  15.167  0.0342  0.0754 -0.0679
65532W        W 8585  11.776  23.982  26.849  0.0944  0.0626 -0.0522
65533W        W 8586   8.348  24.465   0.501  0.0817 -0.1977  0.1136
65534W        W 8587   5.573  23.639  15.257  0.2003  0.0464 -0.2498
65535W        W 8588  32.660  29.949  21.981  0.1789 -0.0270  0.0609
65536W        W 8589  28.550   2.815  16.113  0.3666 -0.2795 -0.0207
65537W        W 8590  13.574   9.725   5.403  0.1481 -0.2315  0.3111
65538W        W 8591  14.683  26.636   0.062  0.0951  0.2736 -0.2265
65539W        W 8592   4.978  21.175  25.033 -0.0816 -0.0300 -0.4329
65540W        W 8593  10.467  29.232  16.534 -0.1181  0.1691  0.0558
65541W        W 8594  24.942  22.917  19.855  0.1300  0.2075 -0.2087
65542W        W 8595   8.168   4.150  26.756 -0.1313 -0.1087 -0.6472
65543W        W 8596  34.052   5.855  18.285 -0.2326  0.0626 -0.2808
65544W        W 8597  21.625  10.821  22.072  0.2564 -0.2546 -0.0093
65545W        W 8598   4.025  32.775  23.657  0.1381 -0.0505  0.0905
65546W        W 8599   9.833  23.370  21.581  0.1536  0.1978  0.3203
65547W        W 8600  15.568  25.814   7.100 -0.2699  0.0690  0.2121
65548W        W 8601  11.771  27.720  20.753  0.0174  0.0110 -0.1996
65549W        W 8602  17.930  24.064  24.041  0.1167 -0.0741  0.4280
65550W        W 8603  15.966  32.841  17.752 -0.0388  0.2667  0.2153
65551W        W 8604  19.801  29.998  15.699  0.0047 -0.0452  0.1938
65552W        W 8605  23.051  15.035   6.508 -0.0447 -0.2739  0.1116
65553W        W 8606  11.402  25.675  14.085 -0.0169 -0.2910  0.1229
65554W        W 8607  28.396   3.291  18.236  0.1118 -0.0229 -0.0315
65555W        W 8608  11.482  11.241  24.200  0.2941 -0.0644  0.0534
65556W        W 8609  12.343   4.244  22.319  0.0894  0.2234 -0.0301
65557W        W 8610  11.915   1.322  27.149  0.0406 -0.2278 -0.2892
65558W        W 8611  12.196  20.117  24.933 -0.1332  0.0750 -0.2377
65559W        W 8612  16.723   3.167  20.087  0.0636  0.3730 -0.1754
65560W        W 8613  14.511  31.509  27.492  0.1036  0.0193  0.0783
65561W        W 8614  25.641  24.644  22.812  0.2030 -0.1756  0.1705
65562W        W 8615  15.650   2.947  26.892 -0.0736  0.1937  0.3328
65563W        W 8616  12.625  34.077  15.375  0.0308  0.6156 -0.3720
65564W        W 8617  10.863  20.636  20.939  0.1569  0.2612  0.1121
65565W        W 8618   0.396  24.026  19.830 -0.3768 -0.3432 -0.0634
65566W        W 8619  10.001  25.556  26.643  0.2380  0.3157  0.0524
65567W        W 8620  18.635  23.890  21.797 -0.0271 -0.1830 -0.0907
65568W        W 8621  18.974  20.981  18.000 -0.4451  0.1986 -0.0517
65569W        W 8622  10.613  27.269  17.582  0.1935 -0.2030  0.3510
65570W        W 8623   3.461  18.169  26.452  0.0636 -0.3006  0.2939
65571W        W 8624   4.335  28.266  17.220 -0.0916 -0.2589 -0.3850
65572W        W 8625  10.289  14.795   4.524 -0.0298 -0.1448 -0.0888
65573W        W 8626  15.344  19.906  13.698 -0.0031 -0.0648  0.0170
65574W        W 8627  32.062  32.548  15.354  0.0952  0.0354  0.0992
65575W        W 8628   4.579  30.298  20.420 -0.0826  0.1133 -0.1401
65576W        W 8629  18.473  28.391  26.308  0.0073  0.0985  0.3479
65577W        W 8630   8.697   5.427  27.629  0.0172 -0.1234 -0.1833
65578W        W 8631   1.985  19.119   9.207 -0.0763 -0.1541 -0.0919
65579W        W 8632  19.855  33.364  27.090  0.4255 -0.1392  0.1243
65580W        W 8633  22.216  33.172  21.487  0.2732 -0.0171  0.0455
65581W        W 8634   0.115   1.902  27.476 -0.2845  0.0582  0.0412
65582W        W 8635  16.029  13.432  27.024  0.3479 -0.2274 -0.0751
65583W        W 8636  24.014  19.355  28.191 -0.0147 -0.1107  0.0849
65584W        W 8637  11.313   2.264  16.752  0.0215  0.1296 -0.1504
65585W        W 8638   0.024  32.831  15.894 -0.1709  0.1516  0.1098
65586W        W 8639   0.932  33.442   2.203  0.2653 -0.3012 -0.2988
65587W        W 8640   1.973  31.416  25.927  0.4889  0.1362  0.0508
65588W        W 8641   9.931  31.900  18.011 -0.2752  0.1447 -0.2042
65589W        W 8642   4.693  28.509  19.304  0.0928  0.0592 -0.2576
65590W        W 8643   2.316  23.754  17.959  0.2325 -0.1554 -0.1786
65591W        W 8644   6.920  23.000  24.221  0.0132 -0.0870 -0.3693
65592W        W 8645  15.276  28.616  14.557  0.1222  0.0590  0.0772
65593W        W 8646  10.735  27.234  13.131  0.0820  0.1007 -0.1047
65594W        W 8647   2.487  32.730  22.649  0.0442  0.1323  0.3441
65595W        W 8648  12.538   1.561  28.755  0.0770  0.1579 -0.0089
65596W        W 8649  30.802  32.906   5.493  0.1963 -0.2345 -0.1899
65597W        W 8650  22.050  18.416  16.638  0.1932 -0.0993  0.3817
65598W        W 8651   8.470  29.502  18.354 -0.2385 -0.0734  0.1662
65599W        W 8652  15.257  29.368   4.798 -0.2204 -0.1068  0.1410
65600W        W 8653   4.610  30.754  14.552  0.1718 -0.0498 -0.2729
65601W        W 8654  17.284  20.897  24.210 -0.1180  0.0394 -0.0489
65602W        W 8655   2.714  22.319  17.648 -0.2555 -0.0170  0.2081
65603W        W 8656  18.994  28.594   5.286  0.1062 -0.2682  0.3464
65604W        W 8657  18.505  23.006   6.302  0.0520  0.1055  0.0497
65605W        W 8658   0.531  25.309  14.561  0.0567 -0.0533 -0.2106
65606W        W 8659  20.176  22.412  24.477  0.0774 -0.1145 -0.1886
65607W        W 8660  33.360  33.829  23.885  0.2568  0.3401  0.4154
65608W        W 8661   0.807   2.267  20.323  0.0144  0.2966  0.1133
65609W        W 8662  19.400  31.532  15.175 -0.2363  0.1680 -0.1302
65610W        W 8663   6.552  19.075  18.963 -0.2330 -0.0985 -0.2510
65611W        W 8664  19.170  29.242  19.062  0.2916  0.1407  0.1927
65612W        W 8665  19.950   0.087  17.141  0.1413 -0.0958  0.2237
65613W        W 8666   7.723  21.985  20.682 -0.1536 -0.0684  0.1406
65614W        W 8667  29.187  28.039  25.693  0.0036  0.1355  0.0839
65615W        W 8668  20.179  30.850  23.894  0.2164  0.0615  0.0972
65616W        W 8669   6.554   4.736  29.022  0.4640  0.2911  0.0123
65617W        W 8670  29.902  18.213  17.009  0.1803 -0.0694 -0.0018
65618W        W 8671  32.328  23.421  23.875  0.1500  0.2131  0.3325
65619W        W 8672   9.311  11.414  17.408  0.2726  0.0561 -0.4358
65620W        W 8673  28.494  29.891  17.189 -0.0556  0.0438 -0.1606
65621W        W 8674  24.793   1.709  24.857 -0.0387  0.0277 -0.0784
65622W        W 8675  10.187  33.076   7.594  0.0045 -0.0383 -0.0161
65623W        W 8676  25.972   3.663  26.248 -0.1665 -0.0898  0.0793
65624W        W 8677  23.424  24.822  25.868  0.7419 -0.0265  0.1685
65625W        W 8678  10.660  25.290  14.317  0.0109  0.1132 -0.1237
65626W        W 8679  16.598  21.716  15.111 -0.0923 -0.2124  0.2451
65627W        W 8680   6.838  12.282  15.479  0.1170 -0.2528  0.1821
65628W        W 8681   2.289   0.621  20.399  0.2933  0.1754  0.1089
65629W        W 8682   6.792  27.800  26.214  0.3246 -0.0274  0.0520
65630W        W 8683   6.122  13.482  18.050  0.0354 -0.0128 -0.0680
65631W        W 8684   4.939   7.108  14.477  0.1934 -0.0398 -0.1038
65632W        W 8685  27.937  25.380  21.864 -0.2384 -0.1600  0.1228
65633W        W 8686   3.878  34.428  16.388 -0.1752  0.0937  0.1851
65634W        W 8687  19.075   6.779  20.907  0.0913 -0.2880 -0.2895
65635W        W 8688   9.564   3.029  25.717 -0.1999 -0.1704 -0.1235
65636W        W 8689  14.966   3.869  18.318  0.2968  0.0859 -0.3185
65637W        W 8690   6.054  15.724   6.816  0.1639 -0.0749  0.0457
65638W        W 8691  10.022   6.905   0.917 -0.1016 -0.0151 -0.1036
65639W        W 8692   9.349  21.723   2.530  0.1916  0.3532  0.0841
65640W        W 8693  14.203  30.337  10.291 -0.3268 -0.1063 -0.2533
65641W        W 8694   3.200  28.077  28.290 -0.0853  0.1145  0.1490
65642W        W 8695   4.157   0.417   9.414  0.2836 -0.2193  0.0430
65643W        W 8696  32.418  15.039  22.614 -0.3946 -0.2161  0.1708
65644W        W 8697  24.536  30.611  19.614  0.1598  0.0298  0.1803
65645W        W 8698  15.023  33.372  14.831  0.1809 -0.1068  0.3047
65646W        W 8699  23.256  32.122  24.775  0.0600  0.0482  0.1301
65647W        W 8700  18.936   4.212  14.234 -0.1024 -0.2927  0.4202
65648W        W 8701  27.737  32.964  17.956  0.0448 -0.3284  0.2188
65649W        W 8702  10.364  12.431  19.589 -0.2267 -0.1929 -0.2126
65650W        W 8703  19.518  27.423  23.541 -0.0937  0.0793 -0.2516
65651W        W 8704   1.434  14.553  25.191  0.2155 -0.0243 -0.3594
65652W        W 8705  29.598  24.039   3.633  0.1043 -0.0646 -0.2404
65653W        W 8706  26.125   6.323  18.379 -0.0080 -0.1176  0.0838
65654W        W 8707  16.334  30.780  19.780  0.1953  0.1111 -0.0977
65655W        W 8708  10.743  31.129  21.897  0.1349 -0.1760 -0.1461
65656W        W 8709   0.684   2.512  22.480  0.1686  0.0103 -0.1074
65657W        W 8710  13.411  25.305  14.544 -0.1186  0.0346  0.0349
65658W        W 8711  14.271  32.641  15.223 -0.1011  0.1070 -0.0159
65659W        W 8712  23.234   5.980   1.132 -0.1522 -0.0408  0.0723
65660W        W 8713  26.852  33.999  23.208 -0.2483 -0.2143 -0.2042
65661W        W 8714   8.605   9.525  26.871  0.0404 -0.1583 -0.3274
65662W        W 8715  15.686  27.292  25.770 -0.0977  0.2929 -0.1808
65663W        W 8716  30.647   0.552  27.887 -0.0340 -0.0009  0.0523
65664W        W 8717  12.176  23.864  18.156  0.0936 -0.1250 -0.0327
65665W        W 8718   4.281   1.156   0.994  0.0190  0.1036 -0.2069
65666W        W 8719  12.779   4.025   9.911 -0.1353  0.1821 -0.3370
65667W        W 8720  13.819  24.690  21.566  0.3373 -0.3470 -0.0104
65668W        W 8721   5.495  17.694  24.425 -0.1335 -0.1435  0.2015
65669W        W 8722  18.826   0.328   6.046  0.1462 -0.1083 -0.1262
65670W        W 8723  20.330  33.617   4.123  0.0378 -0.0505 -0.1698
65671W        W 8724   2.738  13.294  28.331 -0.1048  0.1483 -0.1020
65672W        W 8725   7.445   5.359  20.332  0.1297  0.1585  0.1606
65673W        W 8726  17.175  26.195  21.987 -0.0965 -0.2450  0.1925
65674W        W 8727   8.655  20.512   7.271  0.1310  0.1041 -0.0158
65675W        W 8728  31.570   0.994  16.766 -0.3166 -0.1488 -0.1792
65676W        W 8729  26.077  17.591  17.560  0.1168 -0.1716 -0.0151
65677W        W 8730   2.982  31.644  16.699 -0.1294  0.1131 -0.0656
65678W        W 8731  30.481   0.191  17.862  0.0617 -0.1096  0.1547
65679W        W 8732  13.767  18.130  26.364  0.0810 -0.1828  0.5354
65680W        W 8733  18.373  26.561  20.303  0.0056 -0.2290  0.1363
65681W        W 8734  25.649  24.270  24.509  0.1172 -0.3237 -0.3223
65682W        W 8735   8.417  20.784   0.580 -0.1030  0.0467  0.0701
65683W        W 8736  17.431  20.477   2.139  0.0436  0.3363  0.1472
65684W        W 8737  20.933  26.265   8.898 -0.5048  0.0739 -0.0242
65685W        W 8738  11.706  30.269  18.347 -0.1065  0.0703  0.1612
65686W        W 8739  15.097  24.576  28.478  0.0408 -0.0541  0.2241
65687W        W 8740  25.712  32.594  22.641  0.5454 -0.0436  0.0007
65688W        W 8741   4.943   9.376  26.697  0.2004  0.3103 -0.0455
65689W        W 8742  16.578  12.413  22.555 -0.1094  0.0992 -0.2668
65690W        W 8743   1.744  22.062  22.618 -0.1590 -0.3990  0.0120
65691W        W 8744  13.606   4.363  25.920 -0.1352  0.1550 -0.1643
65692W        W 8745  20.510  14.215  15.635  0.2267 -0.0785  0.1011
65693W        W 8746  21.137   4.622  14.199  0.1234 -0.0220 -0.1506
65694W        W 8747  13.408  32.073   1.794 -0.0750  0.1075  0.0116
65695W        W 8748  12.193  20.429  19.556 -0.0227  0.1787  0.2136
65696W        W 8749  12.652  27.343  25.618  0.2400 -0.0202  0.1701
65697W        W 8750  20.316  26.192   0.767 -0.3568 -0.2456 -0.0869
65698W        W 8751   4.763  24.137  23.172 -0.1029  0.0612 -0.2212
65699W        W 8752  27.382  30.422  21.758 -0.0880  0.2069  0.1978
65700W        W 8753   9.193   2.169  14.317 -0.1617  0.2027 -0.1832
65701W        W 8754   3.693  32.736  13.335 -0.1114 -0.2119  0.0586
65702W        W 8755   0.205   2.888  13.755  0.2438 -0.1860 -0.2330
65703W        W 8756  24.456  22.184   0.876 -0.0235  0.1163 -0.1495
65704W        W 8757  23.585  14.305  17.626 -0.2459 -0.1178 -0.3265
65705W        W 8758   3.985  30.980   5.326 -0.1733  0.1336 -0.0077
65706W        W 8759  13.147  19.268  20.168  0.2398 -0.4335 -0.2024
65707W        W 8760   6.394  12.282  15.077 -0.1260  0.1294 -0.3900
65708W        W 8761  18.397  20.003   0.507  0.3777  0.2078 -0.1525
65709W        W 8762  32.699  29.044  21.997  0.0576 -0.2404 -0.1052
65710W        W 8763   7.802   7.300   1.005 -0.1216  0.0316 -0.3508
65711W        W 8764  20.631  31.660  18.288 -0.1120 -0.0650 -0.1505
65712W        W 8765  16.706  32.684  25.495 -0.1836  0.1610 -0.2095
65713W        W 8766   4.006  28.616  14.876  0.2007  0.1906 -0.0199
65714W        W 8767  33.629  30.075  29.072 -0.1110  0.0687 -0.2249
65715W        W 8768   6.267  17.886  26.788 -0.1994 -0.1251 -0.0563
65716W        W 8769   7.859  22.795  27.613  0.0349 -0.1113  0.1995
65717W        W 8770  24.996   3.604  17.334 -0.0861  0.0707  0.2196
65718W        W 8771  16.872  21.781  16.780 -0.0387 -0.2023  0.1579
65719W        W 8772  34.302   8.954  21.847 -0.0341  0.0511 -0.4808
65720W        W 8773  33.040  12.635  19.506 -0.3213  0.0734  0.1575
65721W        W 8774  19.669  29.401   1.493  0.0622 -0.2561  0.2224
65722W        W 8775   5.315  24.048  26.921 -0.1345 -0.1583  0.3259
65723W        W 8776   3.025  27.447  13.342 -0.0304 -0.1165  0.0342
65724W        W 8777   8.733   1.357  18.346  0.1386 -0.3057 -0.0660
65725W        W 8778   5.990  29.381  24.621 -0.0348  0.2310 -0.1314
65726W        W 8779  19.131  33.430  16.782  0.1613 -0.1148 -0.0081
65727W        W 8780  17.095   0.229  14.899 -0.2006 -0.1500  0.3014
65728W        W 8781   6.931  28.899  28.994  0.1953  0.1623 -0.0755
65729W        W 8782  26.043   3.382   4.432  0.0313  0.2713 -0.1751
65730W        W 8783  24.880  20.947  19.576  0.4419  0.0434  0.0439
65731W        W 8784  20.009  29.548  20.225  0.0598 -0.0382 -0.1204
65732W        W 8785   5.995  15.319  24.710 -0.0071 -0.0989 -0.1314
65733W        W 8786  19.224  24.569  21.930 -0.0902  0.2050  0.0552
65734W        W 8787  25.235  23.773  15.629 -0.1425  0.1659 -0.0891
65735W        W 8788   8.577   9.011  19.133  0.0388 -0.0941 -0.0018
65736W        W 8789   8.273   4.547  21.956  0.1023 -0.2791 -0.0151
65737W        W 8790  13.777  24.786   4.449 -0.0333 -0.1030  0.1339
65738W        W 8791  18.672  33.740   5.299 -0.0006  0.0415  0.0929
65739W        W 8792  22.879  12.301  23.885 -0.2826  0.2037 -0.0045
65740W        W 8793  15.620   3.258  19.035  0.0244  0.0787 -0.1560
65741W        W 8794  12.290  33.154  17.546 -0.0015 -0.0846 -0.0619
65742W        W 8795  11.317  30.710  19.941  0.1746 -0.2397  0.0124
65743W        W 8796  18.497  31.546  10.316  0.1178  0.0124 -0.2951
65744W        W 8797  13.558  24.344  15.504  0.0999  0.1800  0.0267
65745W        W 8798  19.836   3.349  17.411  0.0508  0.2363 -0.0210
65746W        W 8799   6.402  24.296  21.554  0.1094  0.2223 -0.0869
65747W        W 8800  13.102  25.109  15.405 -0.1937  0.4698 -0.2335
65748W        W 8801  19.016  26.585  18.079  0.0682 -0.1041 -0.0795
65749W        W 8802  11.954  30.627  14.848  0.0447  0.0098  0.2345
65750W        W 8803  12.253   0.654  17.430  0.0803  0.1715 -0.0249
65751W        W 8804  16.305  27.890  24.087 -0.0247  0.0700 -0.0937
65752W        W 8805  31.985  29.111   3.840 -0.0914 -0.0610  0.3410
65753W        W 8806   9.348  21.933  21.517 -0.0794 -0.0131 -0.1561
65754W        W 8807  33.098   6.254   2.455  0.0694 -0.1218 -0.2398
65755W        W 8808   4.518   9.537  28.576  0.1320  0.1569  0.1579
65756W        W 8809   0.581   6.149  27.868  0.1047  0.1708 -0.1092
65757W        W 8810   9.889  29.805  18.019 -0.0924  0.1477 -0.1559
65758W        W 8811   7.213  33.179  22.627 -0.3749 -0.1082 -0.2317
65759W        W 8812  20.022  30.790   4.270 -0.1525  0.2661  0.1619
65760W        W 8813  13.852  24.460  14.285 -0.2270  0.1640  0.1686
65761W        W 8814  21.262   1.823  20.275 -0.1910 -0.0741 -0.0731
65762W        W 8815  16.770  32.095   8.707  0.0894  0.0427 -0.0327
65763W        W 8816  24.558   9.455  21.899  0.1103 -0.0663 -0.3224
65764W        W 8817  16.104  24.498  19.135  0.1201  0.2430  0.0499
65765W        W 8818  26.124   3.940  20.931 -0.0891 -0.2519 -0.2993
65766W        W 8819  15.254   7.603  17.464  0.1717  0.0486 -0.2127
65767W        W 8820  25.952  13.322   0.009 -0.2134  0.0285 -0.3475
65768W        W 8821  23.515  30.786  16.097  0.1708  0.1674  0.0748
65769W        W 8822   1.884  25.975   3.072  0.0810  0.3107 -0.2979
65770W        W 8823  18.914  21.658  14.773  0.0338 -0.3414  0.2223
65771W        W 8824  21.587  29.838  24.774  0.3148  0.1368 -0.1601
65772W        W 8825  18.600   5.992  23.851  0.0851  0.3373  0.0067
65773W        W 8826   7.732  24.681  20.458 -0.0247 -0.0654 -0.0881
65774W        W 8827  29.477   7.843  18.312 -0.3317 -0.1503 -0.2712
65775W        W 8828   1.936  23.972  18.224 -0.1444  0.3623 -0.3969
65776W        W 8829  13.815  31.304  28.172  0.0803  0.0079  0.0884
65777W        W 8830   4.617   2.302   1.114  0.0506 -0.0423 -0.0914
65778W        W 8831   7.974  33.491  25.106  0.1345  0.1409 -0.1118
65779W        W 8832  13.070  18.347  20.174  0.0550  0.1349 -0.0273
65780W        W 8833   4.149  33.153  28.854  0.2103  0.2376  0.0361
65781W        W 8834  34.579   4.222  26.058  0.0675  0.0657  0.0165
65782W        W 8835  18.484   9.647  15.739 -0.2609 -0.1031  0.0356
65783W        W 8836  27.173  23.514  20.595  0.2143 -0.0938 -0.1010
65784W        W 8837   8.900  34.415  17.928 -0.0037  0.0713 -0.1479
65785W        W 8838  12.115  27.921   8.035 -0.0373 -0.1195  0.0760
65786W        W 8839   9.652   0.857  16.354 -0.0927  0.0842  0.2439
65787W        W 8840  13.591  16.127  22.217  0.0637 -0.2969 -0.0692
65788W        W 8841   2.212  19.851  18.707 -0.2215  0.1456  0.3021
65789W        W 8842   5.352  18.535   5.639 -0.3101  0.1678  0.4712
65790W        W 8843  13.529  31.377  29.137 -0.0731 -0.2353 -0.1217
65791W        W 8844   6.415   0.271  15.354  0.0842  0.0690  0.4447
65792W        W 8845   1.934  22.653  16.480  0.4040 -0.3055  0.3403
65793W        W 8846  17.456  21.756  14.377 -0.1546 -0.3279  0.0059
65794W        W 8847   3.488  29.538  13.636  0.1972  0.3355 -0.2573
65795W        W 8848  11.696  27.411  23.137  0.4123  0.2321 -0.3235
65796W        W 8849  16.405  19.564  28.694  0.3261  0.5184  0.0087
65797W        W 8850   5.879  27.816   9.193 -0.4590  0.0215 -0.1632
65798W        W 8851  21.995  24.695  25.362  0.1925 -0.3097  0.0773
65799W        W 8852  24.744   0.570  25.741  0.1051 -0.2733  0.5322
65800W        W 8853  12.369  33.117   4.713  0.0075  0.0648 -0.0542
65801W        W 8854  15.456  33.724  16.912  0.2907  0.0009  0.0352
65802W        W 8855  14.172   7.827  15.043  0.0144  0.2531  0.1895
65803W        W 8856  22.266  33.890  18.418 -0.1017  0.3704 -0.1582
65804W        W 8857   7.176  29.046   0.499 -0.1751  0.1579 -0.0936
65805W        W 8858  15.148  33.684  14.434 -0.1366  0.3311 -0.1919
65806W        W 8859  14.937  29.991  25.551 -0.0759  0.3505  0.0694
65807W        W 8860   2.521  21.810   2.444 -0.2111  0.1519 -0.1796
65808W        W 8861  14.611  17.465   4.927 -0.0933  0.1701  0.0409
65809W        W 8862   3.034   9.057  15.870 -0.0931 -0.0448 -0.1070
65810W        W 8863  14.661  22.522  26.312  0.2877  0.1141  0.0314
65811W        W 8864  11.889   3.960  26.802  0.1563 -0.0842  0.0838
65812W        W 8865  29.117  28.395  22.498  0.1057  0.0637 -0.1794
65813W        W 8866  24.384   0.391  16.102  0.2519 -0.1146 -0.2527
65814W        W 8867  12.419   4.614  15.212  0.2889  0.3964 -0.0199
65815W        W 8868  14.760  26.392  18.387  0.2692  0.3991 -0.0337
65816W        W 8869  34.192  23.451   7.294 -0.0966 -0.0942 -0.0678
65817W        W 8870  18.468  27.368  23.590  0.0448 -0.1692  0.1691
65818W        W 8871  13.606  11.237  24.104  0.0348  0.2444  0.4526
65819W        W 8872   2.327  20.236  20.745  0.2743  0.1427  0.1436
65820W        W 8873  33.044   1.379  26.161  0.1040 -0.2227  0.1623
65821W        W 8874   6.622  28.090  22.879 -0.2314  0.3556  0.0212
65822W        W 8875  31.446  23.465  16.180 -0.0224  0.0156  0.0367
65823W        W 8876  18.243   1.326   6.217  0.0060 -0.0271 -0.0755
65824W        W 8877  16.613  28.511   0.518 -0.0154 -0.3307 -0.2001
65825W        W 8878  18.232  28.767  10.228  0.3733 -0.3270  0.1882
65826W        W 8879  10.410  31.102  22.942  0.1377  0.2149 -0.0733
65827W        W 8880  19.248   8.443  16.238  0.2147 -0.4700 -0.0677
65828W        W 8881  29.730  17.715  28.642 -0.0442 -0.2423  0.3191
65829W        W 8882  17.427  10.195  18.014  0.2500  0.2486 -0.2847
65830W        W 8883  18.221  26.842  26.601 -0.0169  0.2018 -0.4610
65831W        W 8884  12.025  15.112  17.834 -0.0093  0.1669  0.1553
65832W        W 8885  28.920  33.314  15.743  0.1535  0.0970  0.1398
65833W        W 8886  19.727  27.959  21.246  0.0533  0.3133  0.2499
65834W        W 8887   1.366  20.208  21.666  0.0399  0.3093 -0.0912
65835W        W 8888  12.346  22.768  18.930 -0.1367 -0.2481 -0.3651
65836W        W 8889  13.134   4.252  27.464  0.3320 -0.0221  0.1091
65837W        W 8890  24.729  27.131  27.230 -0.1945  0.1915  0.2046
65838W        W 8891   0.594   4.009   6.314 -0.0960 -0.2791 -0.1208
65839W        W 8892   3.009  34.679  16.430 -0.1654 -0.0032 -0.4138
65840W        W 8893   1.314  16.192  20.192 -0.1151  0.1047 -0.0842
65841W        W 8894  10.981   3.029   1.697 -0.0674  0.2292 -0.2550
65842W        W 8895  18.564  17.528  13.522 -0.1729  0.0077  0.1991
65843W        W 8896   7.473  27.228  18.928  0.0654 -0.3973  0.0788
65844W        W 8897  12.796  34.331  28.307  0.0572  0.0774  0.0052
65845W        W 8898  32.556   8.399  24.474  0.4957 -0.0842 -0.1112
65846W        W 8899  12.939  14.957   1.754 -0.0269  0.1691  0.1784
65847W        W 8900  10.456  22.049  24.273  0.1035  0.2690 -0.0140
65848W        W 8901   6.721  14.435   0.878  0.4310  0.0337 -0.0006
65849W        W 8902  26.436  33.324  14.190  0.0966 -0.3754 -0.2431
65850W        W 8903  18.966  19.383   3.281 -0.2006 -0.0150 -0.3037
65851W        W 8904   5.727   0.804  28.458  0.0200 -0.0263  0.1737
65852W        W 8905  15.865  28.910  17.632  0.2179 -0.2024 -0.1103
65853W        W 8906  23.528  19.037  18.308 -0.0573  0.0468 -0.0960
65854W        W 8907  20.635  31.375   9.336  0.0387 -0.2186  0.0577
65855W        W 8908   5.726  22.372   3.689  0.1194  0.2143 -0.2683
65856W        W 8909  30.036  25.580  20.862 -0.0194 -0.1920  0.0179
65857W        W 8910   7.102   2.273  18.652 -0.0276  0.0218 -0.3737
65858W        W 8911  16.576  30.138  24.506  0.1169  0.0711 -0.0830
65859W        W 8912  32.547  32.962  16.682 -0.2099 -0.0214  0.1040
65860W        W 8913  17.500  25.199   9.512  0.1574 -0.0653 -0.3595
65861W        W 8914   2.538   9.662  26.746 -0.0330  0.1318  0.0580
65862W        W 8915   9.578  34.632   3.139  0.4236 -0.0007 -0.0012
65863W        W 8916   3.219   0.067  13.723  0.2721  0.0763  0.1058
65864W        W 8917   3.977   8.612   2.799  0.0495 -0.1034  0.0043
65865W        W 8918   3.917  27.318  23.812  0.1392  0.0250  0.2511
65866W        W 8919  13.893   0.897  26.075 -0.0353 -0.0839  0.1516
65867W        W 8920  16.100   1.004   2.079  0.2046  0.4145 -0.3261
65868W        W 8921  13.979   2.431  23.325 -0.1119  0.2142 -0.0735
65869W        W 8922  10.478  33.179  19.786 -0.1598 -0.0157  0.3703
65870W        W 8923  15.364  19.480  27.018  0.1418  0.2925  0.3666
65871W        W 8924  18.438  30.675  26.258  0.0838 -0.0511 -0.0651
65872W        W 8925  21.250  13.651  20.700 -0.0573 -0.2028 -0.1842
65873W        W 8926   1.902  29.253  14.446 -0.2741 -0.1508  0.2203
65874W        W 8927  21.003  14.667  15.014 -0.1903 -0.0035  0.2169
65875W        W 8928  14.382   2.411  16.526 -0.0569  0.1418  0.1605
65876W        W 8929   9.490  29.165  25.037  0.1952  0.1680  0.0985
65877W        W 8930  21.422  10.969  16.344 -0.1928 -0.0605  0.2392
65878W        W 8931  16.207  26.922  17.910 -0.1736 -0.0925  0.2034
65879W        W 8932  23.610  30.764  24.111 -0.1033 -0.0629  0.0302
65880W        W 8933  17.321  10.352   1.319  0.0114 -0.2832  0.2715
65881W        W 8934  20.006  23.183  23.132 -0.2659 -0.0512  0.1530
65882W        W 8935  11.963   3.137  15.202 -0.1255 -0.0675 -0.0325
65883W        W 8936  34.274   0.068   6.875 -0.2307 -0.1036  0.1566
65884W        W 8937  17.543  23.857  19.707  0.1173  0.3773  0.0016
65885W        W 8938  26.852  28.259  23.348 -0.1967 -0.0844 -0.0612
65886W        W 8939   9.057   1.834  25.782  0.2634  0.1260 -0.2532
65887W        W 8940  28.326  27.632  28.347  0.2585  0.0990  0.1842
65888W        W 8941  10.046  24.670  14.382  0.0907 -0.1145  0.0054
65889W        W 8942  32.655  18.035  20.088 -0.2456 -0.1793 -0.3497
65890W        W 8943  28.098  23.845  28.935 -0.0147  0.1694  0.2785
65891W        W 8944   4.251  20.049   0.448 -0.0861 -0.1326  0.2469
65892W        W 8945  10.028   1.075   9.625  0.0763 -0.0734 -0.2124
65893W        W 8946  17.026  32.510  23.569  0.1574  0.1474 -0.1424
65894W        W 8947  20.073  17.631  24.435 -0.2268  0.0811 -0.1482
65895W        W 8948  12.799  23.852   0.753 -0.1821  0.1381  0.0560
65896W        W 8949  16.462  27.831  22.768  0.1436 -0.1302 -0.0895
65897W        W 8950  16.323  33.924   0.436  0.0932  0.2665  0.0213
65898W        W 8951   5.736  29.095  28.807 -0.2161  0.0843  0.3887
65899W        W 8952  24.009  34.160  27.272  0.0050 -0.1437 -0.3555
65900W        W 8953   9.564  16.061   7.422  0.0571 -0.0701  0.1453
65901W        W 8954  31.940  20.717  22.911  0.1234  0.0873 -0.3826
65902W        W 8955   8.287  29.544  20.280 -0.4308 -0.0971  0.1080
65903W        W 8956  24.041  25.826   1.770  0.0874  0.0195 -0.6891
65904W        W 8957  24.501  25.900  25.443  0.1311  0.0756 -0.0234
65905W        W 8958  32.083  30.431  24.791  0.1075  0.2008 -0.1155
65906W        W 8959  23.457   6.278   2.974 -0.3078  0.2391 -0.1081
65907W        W 8960  10.865  16.339  26.019 -0.2032 -0.1033 -0.0204
65908W        W 8961  20.459  24.748  21.347 -0.0166  0.0727  0.0029
65909W        W 8962   0.127  24.187  19.412  0.2512  0.0667 -0.1547
65910W        W 8963  25.422  23.105  13.931 -0.1338 -0.0238  0.2191
65911W        W 8964  14.777  29.765  14.650 -0.0167 -0.3707 -0.0726
65912W        W 8965   9.269  30.584   7.915 -0.1969  0.1851 -0.0902
65913W        W 8966   6.674  29.621   2.266 -0.0851 -0.2980  0.1762
65914W        W 8967  31.725   9.355  15.725  0.3434 -0.0200  0.1426
65915W        W 8968  21.155   6.343  27.589 -0.0453 -0.4354 -0.0785
65916W        W 8969  32.683   5.608  21.688 -0.2221 -0.1475 -0.1401
65917W        W 8970  21.861  29.472  18.614  0.5867 -0.1338 -0.0418
65918W        W 8971   4.910  32.538  14.178 -0.0279  0.0844 -0.1353
65919W        W 8972  22.044  13.636  21.960  0.0071  0.3024 -0.1606
65920W        W 8973  33.645  28.689  16.492  0.0518  0.1084  0.3357
65921W        W 8974  24.278  23.511   0.175 -0.0070  0.1141  0.0739
65922W        W 8975   6.132  31.137  20.657 -0.2423 -0.0680 -0.0931
65923W        W 8976  16.211  27.882  21.232  0.4515 -0.0491 -0.0442
65924W        W 8977  10.671   1.612  23.606  0.0720 -0.2297  0.4169
65925W        W 8978  18.821  24.838   8.766  0.1221 -0.2661  0.3313
65926W        W 8979   0.335  22.056  19.264  0.0355  0.3545 -0.3510
65927W        W 8980   8.778   1.551  23.710  0.4827  0.1119 -0.0652
65928W        W 8981  12.760  24.797   0.977  0.0091 -0.0695 -0.2879
65929W        W 8982  10.998   2.349  22.796  0.1446 -0.0113 -0.0175
65930W        W 8983  18.774  22.667  24.905 -0.2396 -0.2740  0.0604
65931W        W 8984  10.614   3.293   0.554  0.1026 -0.1020  0.1275
65932W        W 8985  19.616  28.480  17.694 -0.0744  0.1037 -0.2469
65933W        W 8986   2.030  11.027  24.365  0.0172 -0.2638 -0.2403
65934W        W 8987  18.115  23.895  27.716 -0.2793  0.0313  0.0032
65935W        W 8988  22.361  27.759  14.925  0.1015 -0.3526  0.2985
65936W        W 8989   7.918  33.445   2.943 -0.0874  0.1425 -0.0425
65937W        W 8990  15.512  33.056  18.163 -0.1549  0.1913 -0.1772
65938W        W 8991  12.843  24.647   4.027  0.0213  0.3222 -0.2294
65939W        W 8992  19.754  34.517   6.556  0.2857  0.0529 -0.1086
65940W        W 8993  21.630   1.554  18.237  0.0081  0.1687  0.0363
65941W        W 8994  14.557  10.298  20.895 -0.1294 -0.1300  0.2384
65942W        W 8995   8.983  32.314  17.955 -0.2072  0.0176 -0.3390
65943W        W 8996   6.666  24.858   1.724 -0.0356  0.1416 -0.3267
65944W        W 8997  27.411  34.583  18.600 -0.3472  0.2153  0.0463
65945W        W 8998  28.183  29.253   1.490  0.3349  0.0636  0.1093
65946W        W 8999  10.271  12.451  18.734  0.0052 -0.0326 -0.3681
65947W        W 9000   3.153  25.242   8.870  0.2002  0.0458 -0.0418
65948W        W 9001   1.398  11.175  26.307 -0.1055 -0.1571  0.0107
65949W        W 9002   7.362  14.875  15.552  0.0215  0.0778  0.2266
65950W        W 9003   5.248  13.665   4.565 -0.1988 -0.1260 -0.2194
65951W        W 9004  32.924  24.167  16.599  0.3145 -0.0126  0.2199
65952W        W 9005  21.626   6.348   6.047 -0.2646  0.0319 -0.2689
65953W        W 9006   0.592   6.905   3.876 -0.0767 -0.1614 -0.1334
65954W        W 9007   8.725  18.962  25.305  0.1259 -0.0066  0.4099
65955W        W 9008  15.889  33.861   3.784 -0.1707  0.0515  0.1486
65956W        W 9009  10.154  24.283  18.089 -0.1249  0.1478  0.0718
65957W        W 9010   9.606  28.972  14.416  0.0034  0.1788 -0.1597
65958W        W 9011  26.638  26.456  15.311  0.3847 -0.0164  0.0489
65959W        W 9012  21.051  27.589  25.511 -0.1787  0.2049  0.0672
65960W        W 9013  11.145  32.872  24.623  0.0819 -0.0469 -0.0959
65961W        W 9014  13.670  25.970  14.183 -0.0140 -0.0233  0.0941
65962W        W 9015  28.338  13.359  15.057  0.2720  0.1206 -0.0936
65963W        W 9016  10.051  28.932   0.788 -0.0151 -0.0044 -0.0562
65964W        W 9017   3.351   3.409  13.766 -0.0902  0.2676 -0.0729
65965W        W 9018  13.004  28.144   6.046  0.2609 -0.0183  0.0007
65966W        W 9019  25.831  28.538  16.522  0.2306 -0.2057 -0.0588
65967W        W 9020  30.868  23.367  25.609 -0.2563 -0.1245 -0.0111
65968W        W 9021  17.881  32.963   0.658  0.1541  0.3166  0.0315
65969W        W 9022   5.400  15.079  18.046  0.1704 -0.0573 -0.3034
65970W        W 9023  17.532  25.112  27.697  0.1785  0.3015 -0.1145
65971W        W 9024  22.533   8.391  25.243 -0.1508 -0.1604 -0.2958
65972W        W 9025  12.402   2.293  14.077 -0.3476  0.2526 -0.0363
65973W        W 9026  33.762  16.058   3.590  0.1579  0.1150 -0.4377
65974W        W 9027  13.789  12.112   4.056 -0.2584  0.1019 -0.1625
65975W        W 9028   8.753  30.997  21.076 -0.0798 -0.1175 -0.0161
65976W        W 9029   1.164   0.948   8.752  0.1652 -0.0830 -0.2589
65977W        W 9030  10.327   9.475  15.642 -0.0526 -0.1911 -0.1176
65978W        W 9031  14.818  28.801  21.907 -0.3441 -0.1101 -0.4219
65979W        W 9032  21.017  21.780  16.945 -0.1196 -0.4097 -0.0765
65980W        W 9033  27.954   3.769  25.876 -0.1278 -0.2269  0.1070
65981W        W 9034  15.476  27.831  18.783  0.0386  0.0346 -0.2375
65982W        W 9035   9.361   6.628  21.808  0.0229  0.4807  0.2747
65983W        W 9036  24.397  11.267  17.752  0.1386 -0.1073  0.4134
65984W        W 9037  18.079  10.911   5.282 -0.0033 -0.2329  0.0475
65985W        W 9038  13.629   2.683  15.495  0.0720  0.0154 -0.1257
65986W        W 9039   4.161  25.572   1.403 -0.0814 -0.1645 -0.1540
65987W        W 9040   6.937   1.050   3.934 -0.0617  0.0032  0.0626
65988W        W 9041  17.828  21.403  27.150  0.1323 -0.2371 -0.1506
65989W        W 9042   6.758  32.099  26.529  0.0971 -0.1007 -0.0880
65990W        W 9043  24.195   8.661  14.984 -0.0514  0.1326  0.0417
65991W        W 9044  31.528  21.727  28.406  0.1161  0.0542 -0.1477
65992W        W 9045  25.490  19.722  19.835 -0.3865  0.0888  0.0204
65993W        W 9046  20.286  25.063  23.088  0.1690  0.1586 -0.0089
65994W        W 9047   8.620   7.225  22.771 -0.1047 -0.1214  0.1844
65995W        W 9048  28.166  30.547  16.575 -0.0297  0.1831 -0.2969
65996W        W 9049   1.642  25.253  16.995 -0.1608 -0.0289 -0.0166
65997W        W 9050  21.467   0.437  17.113 -0.0786 -0.1687 -0.0108
65998W        W 9051  12.324   4.302  19.220  0.2194 -0.3231 -0.1729
65999W        W 9052  22.391  19.578   2.948 -0.3968 -0.0237  0.0120
66000W        W 9053  13.418  33.190  25.130 -0.3935  0.2917  0.0369
66001W        W 9054  29.634  25.624   1.477 -0.1271 -0.0587 -0.0079
66002W        W 9055  10.588  28.034  23.327  0.2690  0.0548  0.0942
66003W        W 9056   3.711  25.302  21.774  0.0668  0.1659  0.0006
66004W        W 9057   3.489   7.132  18.369 -0.2610  0.0209 -0.0101
66005W        W 9058  12.613   5.549  24.279 -0.1746 -0.1319 -0.0176
66006W        W 9059  17.514  10.503   8.785 -0.2260  0.0852  0.1384
66007W        W 9060  21.307  28.187  28.400 -0.0009 -0.0322  0.0374
66008W        W 9061  12.784  27.768  15.442 -0.3950 -0.1116 -0.2084
66009W        W 9062  13.975  11.977  18.300  0.0380  0.1184 -0.0589
66010W        W 9063   6.697  17.458  26.054  0.3084  0.4743 -0.0431
66011W        W 9064  11.069   3.335  23.917 -0.0291 -0.1413  0.1395
66012W        W 9065  16.745  28.106  23.181  0.1704 -0.3390  0.3339
66013W        W 9066   2.032  30.932  18.533  0.0935  0.2162  0.0811
66014W        W 9067  18.596  12.288   3.918 -0.1487 -0.0406 -0.0558
66015W        W 9068   5.888   1.096   7.131 -0.1027 -0.0027 -0.2366
66016W        W 9069  25.688  23.953  19.163  0.3350  0.0919 -0.0480
66017W        W 9070   9.121  32.442   8.773 -0.2033  0.1383 -0.0864
66018W        W 9071  33.475  32.842  17.462  0.0940  0.0984 -0.4341
66019W        W 9072  14.367  19.719  13.573  0.0311 -0.3443 -0.1059
66020W        W 9073  14.934  23.900  26.305 -0.5618 -0.0609 -0.0132
66021W        W 9074   5.816  14.439  27.586  0.3291 -0.1133  0.0180
66022W        W 9075  28.727  27.727  24.775 -0.2011 -0.3834  0.0385
66023W        W 9076  15.425  29.529  23.521 -0.0980 -0.4112  0.1920
66024W        W 9077  12.925  20.456  28.523  0.1532 -0.3661  0.2588
66025W        W 9078  11.092  31.138   0.368 -0.1918 -0.0269  0.2158
66026W        W 9079  11.362  12.535   3.960 -0.2795  0.1084 -0.2275
66027W        W 9080  11.929   9.394  23.182 -0.1155  0.1664 -0.1498
66028W        W 9081   5.793  16.457  23.004 -0.3054 -0.2434  0.0316
66029W        W 9082  11.486   1.616  26.486 -0.1315  0.2559  0.0441
66030W        W 9083  23.608  28.576  22.046 -0.0688  0.0337  0.0886
66031W        W 9084   5.829  31.203  18.309  0.0418 -0.1186 -0.3214
66032W        W 9085  12.859  22.007   6.667 -0.2513 -0.1334  0.2105
66033W        W 9086  22.636  26.070   1.125 -0.0927 -0.2853  0.2043
66034W        W 9087  24.136   0.960  24.333  0.0025  0.2227 -0.1775
66035W        W 9088   8.700  20.813  26.423 -0.1180 -0.0107  0.2120
66036W        W 9089  27.189  26.087  23.675  0.2422  0.1439  0.0458
66037W        W 9090  30.202  15.682   1.857  0.2252 -0.0195  0.3048
66038W        W 9091   2.656  33.938  16.864  0.1943  0.2785 -0.0986
66039W        W 9092   7.194  28.979  25.706 -0.3539 -0.0417  0.0256
66040W        W 9093   7.133  27.014  24.096  0.0043  0.1535  0.0492
66041W        W 9094  13.636   8.631  20.084  0.0854  0.0540 -0.1076
66042W        W 9095  13.183   0.635   8.173 -0.0337  0.0412 -0.2125
66043W        W 9096  15.950  29.954  27.071  0.0687 -0.3146 -0.1309
66044W        W 9097  18.558  27.271  21.373 -0.0650  0.0286  0.0220
66045W        W 9098  10.163   2.394  24.695  0.2776  0.2057  0.1491
66046W        W 9099  11.060  24.704  21.084  0.0555 -0.1431 -0.2556
66047W        W 9100   8.835  17.787  14.784  0.0981  0.0771  0.1575
66048W        W 9101   3.505  17.219   4.331 -0.1804  0.0856  0.1193
66049W        W 9102  20.323  10.644  18.223 -0.4738  0.1979 -0.0729
66050W        W 9103  23.592  18.236   4.236  0.0057  0.0589  0.0275
66051W        W 9104  14.392  30.971  28.900  0.0147 -0.1005 -0.0508
66052W        W 9105  26.275  12.168  27.028  0.3076  0.2372  0.0819
66053W        W 9106  30.284  19.651  17.818 -0.0130  0.3961  0.0140
66054W        W 9107  29.209  28.401  15.842  0.0638 -0.0986  0.0418
66055W        W 9108  26.464   3.548   8.664 -0.0884 -0.0904  0.0547
66056W        W 9109  18.067  28.951  25.706  0.3505 -0.1216 -0.0831
66057W        W 9110  18.298  21.491   4.674  0.0330 -0.0797  0.0568
66058W        W 9111  24.573  34.044  22.137  0.0207  0.1635 -0.2056
66059W        W 9112   5.288   0.517  25.569  0.2782 -0.1368 -0.4171
66060W        W 9113  24.575  26.599  22.188  0.0433  0.0692 -0.0389
66061W        W 9114  22.220  14.288  19.242  0.1906 -0.2138  0.1860
66062W        W 9115  31.683  30.727   3.328 -0.0674 -0.0016  0.0681
66063W        W 9116  32.266  29.369  19.622  0.0483 -0.1570  0.4100
66064W        W 9117  21.742   9.354   3.863 -0.0659 -0.0830 -0.0585
66065W        W 9118  20.341  22.546  29.034 -0.0011  0.1019  0.2381
66066W        W 9119  20.621  28.815  15.560  0.0078  0.0760 -0.1075
66067W        W 9120  29.476  27.836   3.891 -0.0676  0.1260  0.0763
66068W        W 9121   8.096  29.940  24.460  0.1007 -0.2203 -0.1129
66069W        W 9122  12.038  18.720   6.853  0.2095  0.0508 -0.2833
66070W        W 9123  33.088   2.039  18.475  0.0249 -0.0057 -0.3238
66071W        W 9124  15.385  28.386  28.797 -0.2251 -0.0277  0.2864
66072W        W 9125   5.087  22.538  14.637 -0.0390  0.2340 -0.0325
66073W        W 9126   1.062  23.476  16.495  0.0325  0.1629  0.1263
66074W        W 9127   3.881   6.221   0.282 -0.0912  0.6183 -0.1477
66075W        W 9128  27.914  31.384  26.238 -0.2938  0.0599 -0.2567
66076W        W 9129  33.741  16.864   8.159  0.0681 -0.1783  0.1213
66077W        W 9130  10.822  33.299  23.767  0.1474  0.3316  0.1823
66078W        W 9131  12.435  11.329  27.837 -0.1650 -0.1121  0.0668
66079W        W 9132  17.614  26.654  23.640  0.1216  0.0413 -0.2097
66080W        W 9133  22.718  10.791  25.177 -0.4243 -0.0520 -0.1503
66081W        W 9134  27.474  26.233  20.499  0.1810  0.2760  0.2377
66082W        W 9135  32.217  33.043  23.178  0.3470 -0.2663  0.0122
66083W        W 9136  28.497  29.513  17.608 -0.2210  0.5131  0.3341
66084W        W 9137  27.518  21.924  19.754 -0.1883  0.0060 -0.2431
66085W        W 9138   8.625  21.554  24.215  0.0835  0.1126  0.2541
66086W        W 9139   5.966  29.938   1.593 -0.1618  0.0249  0.1919
66087W        W 9140  15.085  31.647  25.967 -0.0119  0.1600 -0.1993
66088W        W 9141  31.855  11.320  15.925  0.0071  0.1839  0.0720
66089W        W 9142  12.380   2.695  21.337 -0.3588 -0.1890  0.0135
66090W        W 9143   7.582  32.268  25.799 -0.2641  0.1679 -0.1661
66091W        W 9144   7.722   8.223  27.267  0.1449  0.2109  0.0140
66092W        W 9145  12.511  27.683  16.437 -0.1489 -0.0912  0.4188
66093W        W 9146  22.065   1.815   0.438 -0.1217  0.0877 -0.4727
66094W        W 9147   6.628   1.764  15.608  0.2603  0.1442  0.2355
66095W        W 9148  14.749  20.407   7.622  0.0155  0.2177 -0.1404
66096W        W 9149  20.223   7.172   9.615 -0.0605  0.0793 -0.0930
66097W        W 9150  20.215  22.104  21.665 -0.1540  0.0106 -0.2708
66098W        W 9151   5.459  22.949  18.376 -0.0985 -0.1580  0.0676
66099W        W 9152  27.455  27.966  21.701 -0.0466 -0.1376  0.3705
66100W        W 9153  21.001   1.841  21.710 -0.1199  0.3996 -0.0097
66101W        W 9154   7.259  25.627  19.737  0.0625 -0.0207 -0.1053
66102W        W 9155   7.168   5.292   7.259 -0.1650  0.0993 -0.0645
66103W        W 9156   8.641  11.176  23.334  0.0016  0.3754  0.1409
66104W        W 9157  25.314  19.274   6.159  0.1210  0.3479 -0.3355
66105W        W 9158  10.220   1.103  20.185  0.1304  0.0858 -0.0433
66106W        W 9159  12.092   2.441  16.379  0.0136  0.0105  0.1127
66107W        W 9160  11.825  25.958  26.284 -0.0713 -0.4120  0.0340
66108W        W 9161  12.866   0.656  20.089  0.2724 -0.0062  0.0836
66109W        W 9162  17.111   2.133  25.477 -0.0751  0.0458 -0.0740
66110W        W 9163  16.159  15.765  14.119  0.3406  0.1983 -0.1124
66111W        W 9164  12.204  28.241  19.013 -0.2352  0.2081  0.1468
66112W        W 9165  13.438  24.690  26.392 -0.1267  0.0066  0.0271
66113W        W 9166  30.274  29.819  20.971  0.0926  0.0444  0.2652
66114W        W 9167  17.176  23.400   0.796  0.1068  0.0594 -0.0707
66115W        W 9168  14.802  28.160  14.540  0.1027  0.3289  0.1648
66116W        W 9169  12.505  14.460  23.498 -0.1135  0.3654  0.0851
66117W        W 9170  11.834   7.972  16.362  0.0046 -0.1512 -0.2580
66118W        W 9171  11.509  26.063  22.934  0.1095  0.1881 -0.4781
66119W        W 9172  11.078   7.162   0.290  0.0066 -0.2297 -0.2087
66120W        W 9173  33.401  26.299  28.570 -0.0404 -0.0621 -0.2126
66121W        W 9174  33.651  11.240   1.379 -0.1700  0.2094 -0.0148
66122W        W 9175  25.140   1.078   3.720 -0.1927  0.3301 -0.0431
66123W        W 9176  15.589  30.742   1.201 -0.1176 -0.0124 -0.1254
66124W        W 9177  15.351  15.556  16.988  0.1514  0.1797  0.1158
66125W        W 9178  12.974  20.369   7.942  0.1210  0.0595  0.1302
66126W        W 9179   5.229  22.423  22.924 -0.0796  0.0387  0.0656
66127W        W 9180  32.216  15.673  17.658  0.3786  0.2289 -0.3276
66128W        W 9181  13.307  32.045  24.476  0.2086  0.2386 -0.1551
66129W        W 9182  22.779  25.183   0.463 -0.2979 -0.1685 -0.5956
66130W        W 9183  12.076   0.453  19.121  0.0941 -0.3017 -0.0162
66131W        W 9184  21.723  13.143  27.644 -0.0901 -0.0841  0.2092
66132W        W 9185  19.488  20.502  29.176 -0.1196 -0.4125  0.0017
66133W        W 9186   6.921  29.165  17.389 -0.2600 -0.1177  0.0368
66134W        W 9187   2.753   2.528  25.275 -0.3403 -0.2897 -0.2240
66135W        W 9188  18.876   3.189   7.822  0.0748  0.1018 -0.4656
66136W        W 9189  27.535   0.863   1.750  0.0451  0.0326 -0.2568
66137W        W 9190  12.581   4.857  28.867  0.1408 -0.0379 -0.1351
66138W        W 9191   8.965  17.202   0.282 -0.1553 -0.0016 -0.1130
66139W        W 9192   4.706  17.158   7.595  0.1431 -0.0060 -0.0407
66140W        W 9193  27.868  25.569  21.305  0.1008  0.2365 -0.0103
66141W        W 9194  15.638  26.804  19.103 -0.2225 -0.2312 -0.1741
66142W        W 9195   7.745  26.898   9.478  0.2046  0.0396 -0.1254
66143W        W 9196   2.176   0.551   2.436  0.0441 -0.1481 -0.0420
66144W        W 9197   4.943  22.073  26.434  0.0089 -0.2822  0.0607
66145W        W 9198  11.009  30.461  26.925 -0.1467  0.3057  0.0377
66146W        W 9199   6.788  28.277  14.937  0.0232  0.0539  0.0843
66147W        W 9200  14.327  27.887   1.798  0.0606 -0.1318  0.2095
66148W        W 9201   3.596  22.187  19.567  0.2177 -0.0944  0.0522
66149W        W 9202  25.182   1.138  28.415 -0.2256 -0.1449 -0.4609
66150W        W 9203   7.996  29.568  17.351  0.4876  0.3541  0.0637
66151W        W 9204  30.807   0.717  17.193  0.3039 -0.0057 -0.0332
66152W        W 9205  17.156   5.604  15.495 -0.0330 -0.0801  0.1941
66153W        W 9206  21.213  25.937  16.353  0.1865  0.0206 -0.0095
66154W        W 9207  19.452  29.883   1.335 -0.0242 -0.2137  0.0440
66155W        W 9208  20.538   9.518   2.641  0.1570 -0.0725 -0.1254
66156W        W 9209  20.517  22.308   7.628  0.0579  0.0889 -0.1296
66157W        W 9210   0.923  32.478   9.790 -0.0977 -0.0930 -0.0533
66158W        W 9211   8.661  21.681   1.115 -0.0857  0.1928  0.0383
66159W        W 9212  11.878  19.739  25.621  0.0099 -0.0016  0.4010
66160W        W 9213   8.477  19.052  26.121  0.1360 -0.1126  0.2635
66161W        W 9214  21.528  12.857  13.930 -0.4429  0.0301 -0.2448
66162W        W 9215  13.021  15.668  27.567 -0.0650 -0.1036  0.2802
66163W        W 9216   2.601  19.688  27.864  0.2038 -0.2008 -0.0897
66164W        W 9217  14.653   8.634   3.368  0.1479  0.1516 -0.0840
66165W        W 9218  27.985   9.605  21.614  0.3550 -0.1013 -0.2418
66166W        W 9219   1.257   2.379  27.701 -0.2027 -0.2858  0.0534
66167W        W 9220   1.590  25.481  22.030 -0.5253 -0.2066  0.3320
66168W        W 9221  15.189   2.828  17.485 -0.1148  0.1483 -0.2241
66169W        W 9222  14.952  14.229  22.322 -0.1966 -0.5866 -0.3716
66170W        W 9223  31.128  25.064  14.808 -0.2929  0.0676  0.0305
66171W        W 9224   9.983  32.146   7.541 -0.0052  0.1852  0.1702
66172W        W 9225  15.879  29.296  29.006  0.3398 -0.4511 -0.1369
66173W        W 9226  13.609  31.238   6.336 -0.0111  0.2351  0.0565
66174W        W 9227   9.631   6.119  25.260  0.0565  0.0596 -0.0442
66175W        W 9228   5.221  14.290  20.677 -0.1381 -0.1991 -0.2026
66176W        W 9229  34.211  32.139  25.311 -0.2211 -0.0559  0.1216
66177W        W 9230   9.426  25.025  22.155 -0.0524  0.2956 -0.0917
66178W        W 9231  10.681   8.419  25.391  0.0284  0.1451  0.1570
66179W        W 9232  10.353  10.251  18.437 -0.2319  0.3040 -0.0355
66180W        W 9233  10.599  17.270  24.423  0.1692 -0.1340 -0.1255
66181W        W 9234  15.047  16.694   2.544 -0.2353  0.0662  0.2159
66182W        W 9235  14.734  16.389  23.220 -0.1351 -0.4560  0.0412
66183W        W 9236   7.604  26.651  28.073 -0.1958 -0.0556  0.0252
66184W        W 9237  19.616  25.347   1.540 -0.0057  0.1289  0.0479
66185W        W 9238   3.555  19.339  28.621  0.0174 -0.0097 -0.0853
66186W        W 9239   2.834  24.122   2.216 -0.2773 -0.0102 -0.0053
66187W        W 9240  27.207  31.677   9.759  0.3012  0.0684  0.3208
66188W        W 9241  23.879  14.418  19.361  0.0082  0.0979  0.1617
66189W        W 9242  30.947  27.829   0.994  0.0682  0.1918  0.0047
66190W        W 9243  11.492  19.568   1.437 -0.0479 -0.2593  0.0522
66191W        W 9244  30.931  20.012   0.357  0.2526  0.4102 -0.1338
66192W        W 9245   4.643  12.844  21.183 -0.1356 -0.3201 -0.0227
66193W        W 9246  23.966  30.854  17.632 -0.1724  0.1108 -0.3032
66194W        W 9247  25.349  27.967   0.115  0.1816  0.1348  0.0650
66195W        W 9248  33.415   2.687  28.897  0.1914 -0.2065 -0.3720
66196W        W 9249  11.602   0.640   1.678 -0.0258  0.1660  0.2934
66197W        W 9250   2.607  25.024   2.760 -0.1874  0.1122 -0.2331
66198W        W 9251   1.655  20.376  16.790 -0.0050 -0.0374  0.1685
66199W        W 9252  20.804  27.763  19.085 -0.0230 -0.0422  0.0161
66200W        W 9253  22.234  28.067   1.724  0.0628 -0.0582 -0.3225
66201W        W 9254  20.079  22.564  19.819  0.1131 -0.1645 -0.2790
66202W        W 9255  24.328  33.725  28.652 -0.1344  0.1146  0.0477
66203W        W 9256  20.307  29.686  27.935 -0.2992  0.0293  0.0056
66204W        W 9257   9.208   9.046  18.124 -0.0387 -0.0727 -0.1691
66205W        W 9258   4.283   6.181  18.033 -0.1595  0.1491  0.3056
66206W        W 9259  10.313  22.599  26.493  0.0198 -0.2180 -0.1147
66207W        W 9260  20.245   5.633  23.025  0.0666  0.1258  0.1617
66208W        W 9261  29.048  29.718  22.792  0.2054 -0.0590  0.0102
66209W        W 9262  26.208  34.197   3.997  0.0379 -0.3070  0.0200
66210W        W 9263  16.342  32.150   0.286  0.0025 -0.1444  0.4190
66211W        W 9264  13.664  33.009  20.542  0.1131  0.0032  0.1516
66212W        W 9265  11.898  15.149  20.842  0.1349  0.1020 -0.1691
66213W        W 9266  12.297  24.757  26.461  0.0471  0.2565 -0.1486
66214W        W 9267  18.597   3.517  23.118  0.0172 -0.0991  0.1516
66215W        W 9268  17.437   9.869  16.087 -0.2774  0.1446 -0.3816
66216W        W 9269  31.934  20.024  18.129 -0.0439 -0.2527  0.2729
66217W        W 9270  19.889  24.443   0.665  0.0266  0.0343  0.1261
66218W        W 9271   8.194  29.312   6.777 -0.0447  0.0013 -0.1230
66219W        W 9272  14.880  33.916  26.976 -0.1515  0.3439 -0.2044
66220W        W 9273   7.505  21.495   9.314 -0.0610  0.0850  0.0170
66221W        W 9274  21.416  10.006   3.072  0.0464 -0.0850  0.1795
66222W        W 9275  31.300  30.767  16.230 -0.2235  0.2061  0.3455
66223W        W 9276  12.586  33.357  23.732  0.0646 -0.0542 -0.1877
66224W        W 9277   3.838  31.850   2.364 -0.2832 -0.0652 -0.0423
66225W        W 9278  17.815   5.071   3.255 -0.1384  0.3964  0.2329
66226W        W 9279  13.404  23.764   6.802  0.1028 -0.0146  0.1496
66227W        W 9280  15.558  12.243  23.510 -0.0373 -0.0503  0.0879
66228W        W 9281   5.520  16.501  10.465  0.2558  0.0375  0.1152
66229W        W 9282  14.524  33.988   5.769 -0.1551 -0.1708  0.0436
66230W        W 9283  11.365  25.227   6.476 -0.1339 -0.2007  0.1435
66231W        W 9284  23.998   7.803  19.273  0.1786 -0.0009  0.2090
66232W        W 9285  10.922  21.915  19.285  0.0195  0.0399 -0.0184
66233W        W 9286  22.312  16.102  27.311 -0.1316 -0.1634  0.2549
66234W        W 9287  24.585  32.269   1.719 -0.0094  0.1523  0.1205
66235W        W 9288   2.371   4.403   9.243  0.0814  0.3405  0.0139
66236W        W 9289  26.845  34.664  29.053 -0.0921 -0.1655  0.0827
66237W        W 9290   5.667  26.029   6.138 -0.2826 -0.3754 -0.2828
66238W        W 9291   7.057  32.337  22.939 -0.1095 -0.1301  0.0966
66239W        W 9292   9.045  31.883  19.776  0.0011  0.0156  0.1200
66240W        W 9293   3.429   7.147   1.140  0.0263  0.3701 -0.0829
66241W        W 9294   7.544  28.589   7.586 -0.1207 -0.1439  0.0135
66242W        W 9295  13.792  34.542  24.966 -0.1144  0.0052 -0.0018
66243W        W 9296  17.455  34.112  16.373  0.1942 -0.0971  0.1290
66244W        W 9297  32.862  33.961  23.058 -0.0790  0.1826 -0.2960
66245W        W 9298  25.241  33.364  20.969  0.0560  0.0570 -0.1062
66246W        W 9299   4.080   4.963  25.456 -0.0602  0.0313  0.1451
66247W        W 9300  15.675  15.690  14.159 -0.1378  0.1959  0.5082
66248W        W 9301   3.859   2.851  27.155 -0.1290 -0.1812 -0.1857
66249W        W 9302  10.691   0.056   6.710  0.1225  0.1486 -0.1320
66250W        W 9303  17.141  26.685   8.719 -0.2259 -0.0229 -0.1922
66251W        W 9304  16.224   3.024   0.569  0.2210  0.2218 -0.1947
66252W        W 9305  24.047  14.501   1.114 -0.1082 -0.0096  0.0356
66253W        W 9306  10.171  31.777  19.776 -0.0531  0.2420 -0.3109
66254W        W 9307  18.726  18.961   1.447  0.2539 -0.2790 -0.1708
66255W        W 9308  11.249  29.551   2.627  0.1710  0.0455  0.0127
66256W        W 9309  17.946  28.462  27.325 -0.2056  0.3003 -0.1774
66257W        W 9310   7.806  28.575  23.423  0.1256  0.0286 -0.1271
66258W        W 9311  13.732  20.289  15.030  0.1641  0.0513 -0.0892
66259W        W 9312  25.277  28.775  25.566  0.3544  0.3498 -0.0699
66260W        W 9313   4.591  16.495   3.207 -0.0092 -0.6470  0.0433
66261W        W 9314   2.816  10.346  18.962 -0.0735 -0.0219 -0.0737
66262W        W 9315  12.285  28.142   0.402 -0.2171  0.0263 -0.1360
66263W        W 9316  28.914  26.743  24.687 -0.0723 -0.0601  0.2627
66264W        W 9317  24.840  28.212  14.772 -0.0546  0.4463 -0.2006
66265W        W 9318  16.311  25.786  21.153  0.0395 -0.0737  0.3134
66266W        W 9319  24.824  26.466  19.553 -0.0312 -0.2295 -0.0220
66267W        W 9320  26.425  19.717   1.129  0.1235  0.0847 -0.0172
66268W        W 9321  22.117  27.861   9.627  0.1980 -0.0631 -0.2061
66269W        W 9322   8.235  17.840  17.532  0.0889  0.1413 -0.2549
66270W        W 9323  12.966  19.316  23.832  0.0544 -0.0957 -0.0425
66271W        W 9324  11.673  12.092  22.259  0.1357 -0.0490  0.1560
66272W        W 9325  22.065  14.166  15.233  0.2333 -0.0875  0.0883
66273W        W 9326   7.170   7.066   5.438  0.0281 -0.3770 -0.2143
66274W        W 9327  20.921   4.360  14.585  0.1344 -0.0736 -0.2142
66275W        W 9328  32.463  22.138  20.351 -0.2089 -0.2977 -0.0724
66276W        W 9329  15.952  27.003  16.296 -0.1722 -0.0962 -0.4623
66277W        W 9330  21.287  33.432  18.762  0.3577  0.0553  0.1501
66278W        W 9331  27.226  24.429  15.807 -0.1137  0.2844 -0.2292
66279W        W 9332  31.948   2.548   5.759  0.3994  0.0764  0.0340
66280W        W 9333  29.136  34.192  22.095 -0.1718 -0.1076  0.4412
66281W        W 9334  31.649   4.236  13.565 -0.1681  0.0338 -0.0919
66282W        W 9335  25.547  25.430   2.571  0.1933 -0.1266  0.0511
66283W        W 9336  16.787  22.188   0.855 -0.0772  0.0432  0.1726
66284W        W 9337   0.848  27.766  17.475  0.1397  0.1694 -0.0097
66285W        W 9338   4.158  10.886  21.724  0.1116  0.1773 -0.0245
66286W        W 9339  31.498  20.672  23.027 -0.2460  0.0291 -0.1535
66287W        W 9340  29.672   3.950  21.207  0.2107 -0.0217 -0.0411
66288W        W 9341  25.441  26.360  25.625  0.5633 -0.1939 -0.1294
66289W        W 9342  21.277  26.470  20.892 -0.2672  0.1408 -0.0710
66290W        W 9343   1.681  29.083  18.828  0.0899 -0.3078  0.1977
66291W        W 9344  22.907  21.104  24.427  0.1862 -0.1392 -0.4166
66292W        W 9345  12.340   5.940   7.672  0.1879 -0.0652 -0.1501
66293W        W 9346   9.917  11.544  25.118  0.2708 -0.0365  0.5511
66294W        W 9347  16.850  32.166  29.068 -0.2367 -0.0929 -0.2016
66295W        W 9348  30.648  22.609  14.239 -0.1205 -0.0570 -0.0583
66296W        W 9349  18.382  27.613  19.634 -0.0724 -0.0725  0.2529
66297W        W 9350  17.808  13.750  23.283  0.0441 -0.1957 -0.1433
66298W        W 9351  32.221  33.849   4.046 -0.0714 -0.1947 -0.0079
66299W        W 9352  13.453  29.291  20.710 -0.4003  0.1921 -0.0346
66300W        W 9353  10.628  29.852   5.118 -0.0686 -0.1782 -0.0944
66301W        W 9354  14.778  24.897  28.202  0.2840 -0.1890  0.1187
66302W        W 9355  16.116  22.247   0.856 -0.1193  0.0845  0.2413
66303W        W 9356  30.689  25.547  14.222  0.2564  0.1564 -0.0272
66304W        W 9357  12.086   3.871  24.475 -0.1538 -0.0401 -0.2869
66305W        W 9358  18.680  31.029  16.110  0.1785 -0.2125  0.1681
66306W        W 9359  24.642  11.166  19.167  0.0034  0.0404 -0.3363
66307W        W 9360  12.280   8.381  24.481  0.2584 -0.1389  0.0650
66308W        W 9361   8.150  19.978  26.100 -0.0013  0.1665  0.0407
66309W        W 9362  13.341   9.238   2.757  0.1926  0.0237 -0.0634
66310W        W 9363   8.915   0.748   6.534  0.1376  0.0319  0.1525
66311W        W 9364  30.769  33.827  22.866 -0.1638  0.0029 -0.0958
66312W        W 9365   7.075  26.503   8.685  0.2170 -0.3344  0.3525
66313W        W 9366  25.072   3.659  15.643  0.1120 -0.0777  0.1452
66314W        W 9367   1.772   7.168  13.827  0.0352  0.0735  0.0164
66315W        W 9368   3.522  30.102   7.763 -0.3165 -0.1203  0.3809
66316W        W 9369  28.842   4.114  24.270  0.3843 -0.1718 -0.2485
66317W        W 9370   0.188  12.149  20.151  0.1802 -0.0362 -0.1231
66318W        W 9371  17.479   4.075   2.275  0.4119  0.0056 -0.1122
66319W        W 9372  16.318  15.519  13.465 -0.0709  0.1722  0.0070
66320W        W 9373  11.371  27.725  23.423 -0.2893 -0.1164  0.1351
66321W        W 9374  19.526  22.513  27.687 -0.1760 -0.2333 -0.2590
66322W        W 9375   9.934  29.197  26.173  0.1257 -0.3030  0.0166
66323W        W 9376   4.910  22.521  20.513  0.0471 -0.2588  0.0487
66324W        W 9377  18.217   2.395  23.167  0.2293  0.1379  0.0952
66325W        W 9378  25.252  32.513  18.646 -0.1506 -0.0619 -0.0425
66326W        W 9379  18.107  18.076   4.152 -0.3867 -0.0538  0.0144
66327W        W 9380  23.043   1.325  20.872  0.1114  0.1664 -0.1080
66328W        W 9381  15.394  13.123  21.569  0.0103 -0.0780 -0.1987
66329W        W 9382  26.666   0.618   9.589  0.0140 -0.2762 -0.5076
66330W        W 9383  19.133   0.084   2.494  0.2777 -0.0735 -0.1519
66331W        W 9384  12.254  27.042  26.381  0.2155 -0.0186  0.1287
66332W        W 9385   0.391   4.957  25.745 -0.0768 -0.1166  0.1467
66333W        W 9386  12.892   4.560  18.252  0.0472  0.0688  0.0451
66334W        W 9387  34.564   5.165  14.536 -0.1814  0.1553 -0.2380
66335W        W 9388  23.842  19.062  14.856 -0.0662  0.1656  0.1042
66336W        W 9389   2.032   7.312  15.325 -0.0071 -0.3358  0.2987
66337W        W 9390   2.130   3.946  14.729  0.0571 -0.3889 -0.0052
66338W        W 9391  10.384  25.797   2.267 -0.1370  0.1226 -0.3592
66339W        W 9392  22.447  19.176  16.911 -0.2186  0.1823  0.2480
66340W        W 9393  12.164  20.536   0.519 -0.0418 -0.2651 -0.0022
66341W        W 9394  10.109  28.067   0.239  0.0333  0.1188 -0.1450
66342W        W 9395  28.065  22.063  25.241 -0.0780  0.1925 -0.0520
66343W        W 9396   5.582   4.660  25.357  0.0428 -0.1715  0.1792
66344W        W 9397  26.437   4.889   6.445 -0.0618 -0.0117  0.1353
66345W        W 9398  18.734  22.516  20.581 -0.0119  0.0811  0.2366
66346W        W 9399  33.103  16.835   2.322 -0.0889 -0.0658 -0.0055
66347W        W 9400  19.743  15.864   3.740 -0.0196  0.1051  0.1634
66348W        W 9401   5.038   1.937  18.596  0.0887  0.2064  0.2416
66349W        W 9402  34.467  28.306   1.859  0.1614 -0.1889  0.0346
66350W        W 9403  15.840  26.975  24.255  0.1052 -0.2099 -0.0256
66351W        W 9404  31.689  26.917   6.495  0.3582 -0.1426  0.0853
66352W        W 9405  30.384  21.055   5.232 -0.2236  0.2171  0.0435
66353W        W 9406  30.173  29.742  17.199  0.0975  0.5089  0.0070
66354W        W 9407  32.099  33.876   7.962  0.3196 -0.0067 -0.0984
66355W        W 9408  14.682  32.200   6.648  0.0942 -0.3319 -0.1489
66356W        W 9409  24.155  28.760  22.157  0.1462 -0.1353  0.3753
66357W        W 9410  26.107  10.160  26.752 -0.2487 -0.3777  0.0277
66358W        W 9411  13.796  29.589  28.990 -0.1349  0.2281  0.0993
66359W        W 9412  21.738  30.753   0.538  0.0781 -0.2086 -0.2110
66360W        W 9413  31.561   6.882  14.666 -0.1249 -0.0395 -0.1074
66361W        W 9414   2.865  12.906  22.889  0.1979  0.0047 -0.1173
66362W        W 9415  13.321  12.638  11.327  0.1417 -0.0021  0.3632
66363W        W 9416  28.070  27.164   2.374  0.0415 -0.0827 -0.3697
66364W        W 9417   7.498  25.183  12.729  0.0969  0.3507 -0.0329
66365W        W 9418   6.767  31.803  21.763  0.0898  0.2587  0.2622
66366W        W 9419  18.534  30.548  28.608  0.0327 -0.2155  0.0126
66367W        W 9420  17.433  26.436   4.592  0.0781 -0.2097 -0.0228
66368W        W 9421  19.289  18.634  29.173 -0.2917 -0.4044 -0.4176
66369W        W 9422  14.717   0.571   8.177 -0.2213  0.3622 -0.1611
66370W        W 9423  24.586   6.347  22.256  0.1148 -0.1176 -0.0240
66371W        W 9424  24.655   1.585  20.340  0.1031  0.0286 -0.1198
66372W        W 9425  11.454  17.500   3.855 -0.0901  0.1647  0.1368
66373W        W 9426  10.228  32.319  16.402  0.2039  0.1054  0.2550
66374W        W 9427  15.431  23.677  22.096 -0.0816  0.0245 -0.1067
66375W        W 9428  15.117  27.885   3.380  0.0527  0.0845  0.0255
66376W        W 9429  28.287  18.110   8.722 -0.3287  0.2671  0.2863
66377W        W 9430   4.655  22.929   7.365 -0.1663 -0.0255  0.2012
66378W        W 9431  31.511  20.499   1.515 -0.4042  0.2209 -0.1343
66379W        W 9432  16.114  34.235  24.589  0.1923  0.1741 -0.0345
66380W        W 9433   6.816  22.635   8.154  0.0175  0.0691  0.1116
66381W        W 9434  30.488  22.463  17.924 -0.2105  0.0149 -0.2780
66382W        W 9435  11.859  16.298  26.981  0.2181  0.2473  0.0475
66383W        W 9436  19.149  31.527   7.785 -0.2317  0.1054 -0.0825
66384W        W 9437  18.360  31.093  28.721  0.0480  0.2471  0.0990
66385W        W 9438   5.774  30.540  19.073  0.0235 -0.0467  0.2524
66386W        W 9439   1.649  19.598   5.529  0.0550  0.0431  0.1720
66387W        W 9440   8.434  29.975   7.439  0.2254 -0.2622  0.0430
66388W        W 9441  14.047  31.203  16.755 -0.3033 -0.2460 -0.2342
66389W        W 9442   9.869   0.284  25.629 -0.1875 -0.1648 -0.1413
66390W        W 9443  18.725  22.389  20.054 -0.3800 -0.2239 -0.2637
66391W        W 9444  31.336  34.458  15.664 -0.1154 -0.3595  0.0633
66392W        W 9445  31.811  17.390  25.299 -0.1802  0.1408  0.0010
66393W        W 9446   7.129  16.157  17.565 -0.1410 -0.0166 -0.0667
66394W        W 9447  13.540   5.492  19.808 -0.2767 -0.0980 -0.0053
66395W        W 9448  14.012  27.619  17.832  0.0593 -0.2999 -0.0018
66396W        W 9449   2.345   2.908  27.342 -0.0528 -0.1164 -0.0443
66397W        W 9450  28.406   0.518  19.201 -0.0202 -0.1960  0.0910
66398W        W 9451  10.487   9.242  22.498  0.0105  0.0742 -0.2214
66399W        W 9452   1.843   5.029  16.046 -0.0482  0.0190 -0.0714
66400W        W 9453   3.665  32.917   2.332 -0.0538  0.0744  0.0369
66401W        W 9454  24.699  29.078  27.776  0.3212 -0.2415 -0.1522
66402W        W 9455  14.190   3.785  20.785  0.0627 -0.1203 -0.4794
66403W        W 9456  11.754  30.707  24.610  0.2211  0.1077  0.0115
66404W        W 9457  32.834  23.225   5.877  0.0981  0.2908  0.0161
66405W        W 9458   2.717  18.680   4.553  0.4266  0.0030 -0.2679
66406W        W 9459   7.697   1.504  18.414 -0.1313 -0.2902  0.2395
66407W        W 9460  19.552  11.328  27.270 -0.2871  0.2225 -0.0021
66408W        W 9461   8.572  33.367   2.141  0.0693  0.1771 -0.1525
66409W        W 9462  20.199   3.978   1.201  0.2386 -0.0137  0.0522
66410W        W 9463  32.161  34.647  15.948  0.1412  0.1059  0.1963
66411W        W 9464  10.852  23.519   9.427  0.2794  0.1880 -0.2234
66412W        W 9465  11.773  30.379  26.550  0.1397 -0.1200 -0.1992
66413W        W 9466  18.014  20.425  10.051  0.1330  0.0263  0.3835
66414W        W 9467   3.580  24.136  18.249  0.1216  0.1061 -0.1224
66415W        W 9468  34.437  19.731  19.846  0.1970 -0.0753 -0.1249
66416W        W 9469   1.541  23.087   6.693 -0.0866  0.1398 -0.0177
66417W        W 9470  17.447  12.294  27.209  0.0693  0.1315 -0.0625
66418W        W 9471   8.018  23.324   5.354 -0.0109  0.1723  0.0470
66419W        W 9472  16.036  25.266  24.923 -0.1801  0.1851 -0.2801
66420W        W 9473  11.065  20.653  22.367 -0.6189  0.1646 -0.1285
66421W        W 9474   7.933  30.689  27.893 -0.1193  0.0047  0.1510
66422W        W 9475  30.708  19.766   9.715 -0.0184  0.2886  0.3270
66423W        W 9476  12.298  27.839  26.916 -0.0803  0.1964  0.2500
66424W        W 9477   1.240  25.547  27.469 -0.5781 -0.3367  0.3655
66425W        W 9478   4.199  18.390   6.683  0.0574 -0.2142  0.1087
66426W        W 9479  11.858   4.426  26.172 -0.4022 -0.2841 -0.0638
66427W        W 9480  12.971  25.647   8.647 -0.1273  0.0258  0.1082
66428W        W 9481  16.447  18.564   5.424 -0.0119  0.0512  0.0203
66429W        W 9482  15.390  21.022  22.143 -0.3870  0.0524 -0.0095
66430W        W 9483   5.303  29.936   4.930 -0.0383  0.4293 -0.2169
66431W        W 9484  13.416  10.818  20.701  0.1001  0.0131 -0.0978
66432W        W 9485  16.220  22.517  28.455 -0.0836  0.0257 -0.1263
66433W        W 9486  17.890   6.232  22.433  0.2401  0.1923  0.0946
66434W        W 9487  30.407   0.291   6.309  0.3480  0.2435  0.0166
66435W        W 9488  29.464  13.327  18.016  0.1275  0.0567 -0.1497
66436W        W 9489   8.599   6.021   7.228  0.2071 -0.2459 -0.0644
66437W        W 9490  23.457  12.855  26.326 -0.1387 -0.1626 -0.0198
66438W        W 9491  29.503  19.546  17.368  0.1869  0.1590 -0.1298
66439W        W 9492  30.982  25.657  19.509 -0.2951 -0.1499 -0.0468
66440W        W 9493  19.789  26.768   0.303 -0.3443  0.1230 -0.0471
66441W        W 9494  14.703  23.395   5.975 -0.1222 -0.1272  0.0987
66442W        W 9495  18.275  25.511  23.091  0.3571  0.2820 -0.2580
66443W        W 9496   4.881  29.933  21.301  0.1318 -0.2344 -0.2750
66444W        W 9497  12.282  21.376  18.271  0.2996 -0.1518 -0.0016
66445W        W 9498   2.569  31.062  21.328 -0.1595  0.0140 -0.1330
66446W        W 9499   6.887  32.836  24.969 -0.3723 -0.4795 -0.3143
66447W        W 9500  16.369   0.487  26.940 -0.0354 -0.0251  0.1548
66448W        W 9501  13.679  29.145   6.443 -0.3985 -0.1509 -0.0743
66449W        W 9502  17.947   2.770   3.358  0.0321 -0.2725  0.0004
66450W        W 9503  15.065  34.294  26.543  0.0156 -0.0441 -0.1688
66451W        W 9504   5.786  24.523  19.914 -0.2721  0.0491 -0.2685
66452W        W 9505  24.107  23.024  14.753 -0.0226  0.1800 -0.1571
66453W        W 9506   4.819   4.907  24.306 -0.2252  0.2966  0.0101
66454W        W 9507  30.908  28.963  22.452 -0.4754  0.2672  0.0011
66455W        W 9508  18.620   7.191  15.542 -0.1991  0.3786  0.0693
66456W        W 9509   5.462  23.603  28.959 -0.1581  0.1135 -0.0102
66457W        W 9510  13.238  26.326  27.707  0.0042  0.1552  0.4782
66458W        W 9511  11.164   6.891   5.327 -0.3082  0.1978  0.5344
66459W        W 9512  13.423  10.658  28.474 -0.2788 -0.0696 -0.0931
66460W        W 9513   3.895  20.775   0.468  0.2159  0.2219  0.1022
66461W        W 9514   9.410  29.145  23.339  0.0869  0.1306  0.0338
66462W        W 9515  14.590  27.790  21.974 -0.2115  0.3017 -0.1366
66463W        W 9516   6.511   0.492   4.907  0.1836 -0.0900 -0.2389
66464W        W 9517  30.168   6.877   9.581  0.1825 -0.1227 -0.0807
66465W        W 9518  22.677  18.826  15.372 -0.3122 -0.0310 -0.0849
66466W        W 9519  14.766   0.794  24.981  0.1664 -0.2108  0.1531
66467W        W 9520  29.501  26.822  21.425 -0.2680 -0.2450 -0.0674
66468W        W 9521  12.147   6.297  26.267  0.1474  0.1157 -0.3748
66469W        W 9522  23.473  25.273   2.832 -0.4041 -0.1916 -0.0876
66470W        W 9523  20.286  31.351  15.414  0.2107  0.0145 -0.0473
66471W        W 9524  21.454  27.929  24.458 -0.1968 -0.0379 -0.1629
66472W        W 9525   5.743   8.032  15.610  0.0870 -0.2030 -0.3426
66473W        W 9526  17.547   5.825   0.058  0.3981  0.2151 -0.0262
66474W        W 9527  32.482   7.025  23.894 -0.0248 -0.1872 -0.1015
66475W        W 9528  10.550   8.075  20.420 -0.0043 -0.1763 -0.1228
66476W        W 9529   3.795  31.848  24.778  0.2917 -0.0645 -0.1230
66477W        W 9530   9.644  30.933  16.522 -0.0792  0.2782  0.1883
66478W        W 9531  10.943  20.435  22.890 -0.1738 -0.1598  0.1302
66479W        W 9532  31.207  15.691  26.956  0.0454 -0.2095 -0.1403
66480W        W 9533   4.312  29.650  13.212 -0.4052  0.0507 -0.2289
66481W        W 9534   4.766  32.979  24.488 -0.0283 -0.1499  0.1468
66482W        W 9535  32.545  15.093  21.692  0.0735 -0.1348 -0.0108
66483W        W 9536  13.141  23.459   8.454  0.0386  0.2931  0.1883
66484W        W 9537   8.589  21.419  19.705 -0.0518  0.0333  0.1701
66485W        W 9538  19.520  28.534  20.015 -0.0473 -0.3524 -0.0647
66486W        W 9539  11.029  32.778  17.306 -0.0448  0.3284  0.0255
66487W        W 9540   1.981   0.381  23.839 -0.2802 -0.2603 -0.0142
66488W        W 9541   1.972   6.650   3.053 -0.0886  0.0047 -0.1577
66489W        W 9542  26.022   3.914  29.077 -0.0700 -0.2143 -0.0040
66490W        W 9543   6.059  32.135  18.260  0.1531  0.1279  0.1634
66491W        W 9544  33.257  13.109  25.885 -0.2922 -0.1299 -0.0278
66492W        W 9545  15.222  21.051   8.007  0.0571  0.1267 -0.3703
66493W        W 9546  29.626   6.487   0.785 -0.2701  0.1339  0.0730
66494W        W 9547   6.425  29.869  15.119  0.0296  0.0747  0.4282
66495W        W 9548  16.108  16.264  27.195  0.1235 -0.1051  0.0748
66496W        W 9549  29.909  33.794  14.033  0.1104  0.0395  0.0328
66497W        W 9550  34.408  17.216  23.487  0.1509 -0.2087  0.0187
66498W        W 9551   3.216  22.204  23.164  0.1596 -0.0426  0.0030
66499W        W 9552  27.801  34.242   2.390 -0.1485 -0.2307 -0.0282
66500W        W 9553  33.991   4.863  25.704  0.1550 -0.2911  0.4864
66501W        W 9554  16.725   1.598   0.110 -0.1764 -0.0234  0.1247
66502W        W 9555  30.753   3.425   1.819  0.3080 -0.1145 -0.1000
66503W        W 9556  14.944  30.608  27.157  0.1558 -0.0151 -0.0177
66504W        W 9557   0.054  20.320  25.706  0.1540 -0.3091  0.2950
66505W        W 9558  23.148   5.824  21.695  0.0270 -0.1068 -0.1509
66506W        W 9559   5.863  18.331   4.845  0.0638  0.0233 -0.1145
66507W        W 9560  23.321  22.953   3.270 -0.1115 -0.2181 -0.0291
66508W        W 9561  16.543   7.407   3.754 -0.0190  0.1535 -0.0535
66509W        W 9562  21.160  28.383   0.948 -0.3289  0.1338 -0.1151
66510W        W 9563  13.991  26.891  22.382 -0.1014  0.2011 -0.0195
66511W        W 9564  25.918   8.854  28.730  0.1489 -0.1609 -0.0950
66512W        W 9565  16.004  25.203   1.670 -0.1344  0.0754 -0.2135
66513W        W 9566  14.471  13.734  24.649  0.1391 -0.2587  0.1922
66514W        W 9567  32.502  10.369  26.541  0.0371 -0.1508 -0.1697
66515W        W 9568  18.080  30.780   3.342  0.4923  0.1765  0.1530
66516W        W 9569  26.512   9.885   5.196 -0.0838 -0.0496  0.0408
66517W        W 9570   8.429   1.158   7.219  0.0386  0.0609  0.2085
66518W        W 9571  15.756   2.281   3.161 -0.2306  0.2907 -0.0538
66519W        W 9572  10.674  31.422  24.545  0.0202  0.2232  0.2486
66520W        W 9573  19.655  28.118  28.991  0.0168  0.3797  0.0765
66521W        W 9574  19.221  17.591  15.013 -0.1449 -0.0682  0.1546
66522W        W 9575  26.293  30.528  18.661 -0.0653  0.1550  0.1134
66523W        W 9576  17.738  21.518  15.951 -0.2638 -0.1805 -0.0421
66524W        W 9577  18.227  33.123   0.283 -0.2611  0.2171 -0.0607
66525W        W 9578   5.155  18.162   3.429  0.2162 -0.2428  0.0754
66526W        W 9579  21.961   5.076  17.386  0.2125  0.1053 -0.1250
66527W        W 9580  17.661   8.929  19.869 -0.2919  0.0280  0.1173
66528W        W 9581  10.009  34.536  24.401  0.5868  0.2501 -0.1390
66529W        W 9582  23.126   2.056  29.157  0.0100 -0.1194  0.1062
66530W        W 9583  33.674   7.583  20.012  0.2123  0.3176  0.0636
66531W        W 9584  19.467   8.918  20.336  0.1666 -0.1199  0.0197
66532W        W 9585  13.809  26.495   7.497 -0.2565  0.0758 -0.0686
66533W        W 9586  15.645  20.232   2.065  0.1583  0.0785 -0.3159
66534W        W 9587  11.691   3.556  16.769 -0.3180  0.0009 -0.1353
66535W        W 9588   8.956  13.653   3.713 -0.1274  0.1706  0.1242
66536W        W 9589  24.081  17.276  19.063  0.0052 -0.0288  0.0246
66537W        W 9590  24.706   9.700  15.924  0.0899  0.1617  0.0527
66538W        W 9591   0.332   4.961  17.162  0.2450  0.0536  0.1303
66539W        W 9592  22.428   3.887   3.881  0.0190 -0.1594  0.0107
66540W        W 9593  26.845  19.326  20.943 -0.0347 -0.3809  0.3715
66541W        W 9594  33.600   3.421  15.911  0.0271 -0.2109  0.2055
66542W        W 9595  17.089   9.851   4.351  0.1126 -0.1503  0.2785
66543W        W 9596  32.821   3.480  22.292 -0.2749  0.1373 -0.1669
66544W        W 9597  11.549   5.279   6.668 -0.0618  0.1785  0.0853
66545W        W 9598  28.114  27.178  17.506  0.1154  0.0177 -0.4418
66546W        W 9599  23.797   3.629   4.534  0.0488  0.3223  0.0554
66547W        W 9600   0.200   2.998  24.118  0.0613  0.0190 -0.1997
66548W        W 9601   0.587  23.356   0.108 -0.1041  0.1626  0.0499
66549W        W 9602  14.432  31.370  16.062 -0.3239 -0.0799  0.1509
66550W        W 9603   7.067  10.807   2.245 -0.0719 -0.6125  0.3899
66551W        W 9604  13.841   3.976  24.742 -0.1917  0.4083  0.2062
66552W        W 9605  32.413  28.440  26.693 -0.0526 -0.1964 -0.2783
66553W        W 9606   4.877   9.908  23.690  0.0828 -0.0807  0.1895
66554W        W 9607  16.932  33.988  24.149  0.2918 -0.0354 -0.2524
66555W        W 9608   2.413  30.309  14.840 -0.3200  0.4311 -0.1543
66556W        W 9609   6.710  31.205   8.007  0.1070  0.0062 -0.1622
66557W        W 9610  13.850   8.974   8.629  0.0513 -0.1523 -0.2691
66558W        W 9611  16.629  32.158   5.559 -0.0269  0.0775  0.0410
66559W        W 9612   2.743   1.673  23.476 -0.0054 -0.0501 -0.0434
66560W        W 9613   6.783  20.466  24.407  0.1094  0.2165 -0.2907
66561W        W 9614  33.036   8.484  24.586 -0.1468  0.0790  0.1188
66562W        W 9615  26.695  30.013  15.450 -0.5163 -0.0618  0.0858
66563W        W 9616  32.142  25.683   6.152 -0.0606 -0.3949  0.0614
66564W        W 9617   8.510  17.393  26.361 -0.0948  0.0758 -0.0503
66565W        W 9618  22.044  18.625  29.163  0.3068  0.3660  0.0164
66566W        W 9619   7.182  30.901   2.311 -0.0953  0.2037 -0.1664
66567W        W 9620   1.791  28.467   1.771 -0.0539  0.0178  0.2774
66568W        W 9621   8.153  21.467   1.148  0.2443  0.3405 -0.0776
66569W        W 9622  22.923  23.444  15.917 -0.4571  0.0240  0.2073
66570W        W 9623   4.607  28.217  22.071  0.2732 -0.0524 -0.0431
66571W        W 9624   9.756  16.484   3.803 -0.2910  0.0898  0.1377
66572W        W 9625  15.245   5.650  23.839  0.0982 -0.2390  0.1453
66573W        W 9626  24.870  20.807  24.656 -0.1568  0.0687 -0.0049
66574W        W 9627  26.889  29.652  26.239 -0.1942 -0.1981  0.2985
66575W        W 9628   0.984  10.951  28.334  0.0483 -0.0011 -0.1417
66576W        W 9629  21.291  16.820  26.797  0.1437  0.3903 -0.1730
66577W        W 9630   3.031  25.834   2.319  0.0914 -0.0884 -0.1974
66578W        W 9631   3.881  32.360   4.769 -0.2558 -0.0193 -0.1738
66579W        W 9632  18.939  22.687  18.617  0.0094 -0.0491 -0.2215
66580W        W 9633  17.908  27.207  19.893 -0.0984  0.0339 -0.0234
66581W        W 9634  25.296  31.845   6.624 -0.0212  0.0906 -0.0425
66582W        W 9635   5.070   1.782  24.243 -0.0370  0.1140  0.5643
66583W        W 9636  21.376  32.733   4.451 -0.0406  0.0085  0.1496
66584W        W 9637  28.311  26.342   2.688  0.2111  0.1687  0.1989
66585W        W 9638  14.530   0.693   1.797  0.0853 -0.0872 -0.2002
66586W        W 9639   4.297  28.749   8.782 -0.1960 -0.0554  0.3053
66587W        W 9640  15.364   4.430   9.025  0.1158 -0.0904 -0.0210
66588W        W 9641  19.914  32.971  22.195  0.1077  0.0440 -0.4594
66589W        W 9642  13.924  11.229  22.043 -0.0934  0.2514 -0.1306
66590W        W 9643  20.836  25.771  16.709  0.1487  0.3616 -0.0726
66591W        W 9644   9.988  32.946  14.377 -0.0668 -0.1018  0.0579
66592W        W 9645  17.600  25.946  22.165 -0.0741  0.3584 -0.2219
66593W        W 9646   0.694   4.486  25.964  0.1094 -0.0687  0.2958
66594W        W 9647  25.192   0.503  25.414  0.0648  0.1297  0.3220
66595W        W 9648  23.573  17.662  25.814 -0.1770  0.0223  0.0701
66596W        W 9649  18.726   6.000   6.994  0.1065 -0.1786 -0.1420
66597W        W 9650  12.194  22.837   0.035 -0.3637 -0.0822 -0.1210
66598W        W 9651  12.594  33.753  23.307 -0.2384 -0.0177  0.0377
66599W        W 9652  29.930   7.764  14.832 -0.0118 -0.0854  0.3142
66600W        W 9653   6.382  22.452  15.315  0.0257  0.0225  0.0385
66601W        W 9654  10.385  28.085   7.206  0.0903 -0.2117 -0.1733
66602W        W 9655   8.690  23.223  22.123  0.0293  0.1323  0.0480
66603W        W 9656   1.419  26.925  20.230 -0.0664  0.0557 -0.2973
66604W        W 9657  17.944  26.563  18.876 -0.1139 -0.4612  0.1749
66605W        W 9658   2.845  20.624  25.978  0.0826 -0.0248 -0.0757
66606W        W 9659   6.214  17.008   5.260 -0.3553  0.0745 -0.3263
66607W        W 9660  18.792   3.573  27.407  0.3068 -0.1076  0.1539
66608W        W 9661  10.408  22.277  26.827 -0.3289  0.0613  0.1077
66609W        W 9662  30.393  29.304  10.033 -0.3626 -0.2869  0.2430
66610W        W 9663  28.081  17.983  17.601  0.0308 -0.3553 -0.2390
66611W        W 9664   2.470   6.890   5.762 -0.0209  0.0142 -0.0704
66612W        W 9665  11.852  15.603  24.320  0.1499 -0.1303 -0.2204
66613W        W 9666   3.910  28.423   1.059 -0.0650 -0.2658 -0.1346
66614W        W 9667  20.485  30.200  23.254  0.1209  0.1259 -0.0762
66615W        W 9668   8.405  14.431  28.312 -0.2645  0.1975  0.1309
66616W        W 9669  13.448  24.916  25.186  0.0791  0.2479  0.2687
66617W        W 9670  15.027  10.027  10.070 -0.0196  0.0806 -0.0463
66618W        W 9671  19.631  27.449  16.100  0.1392 -0.3170  0.1357
66619W        W 9672  34.613  24.958   5.892  0.0091 -0.2994 -0.0214
66620W        W 9673   5.502   3.528   5.839 -0.1383 -0.0994  0.0505
66621W        W 9674   8.121  23.231  26.490  0.3894 -0.4019  0.0947
66622W        W 9675   9.019  26.781   9.104  0.1143 -0.2544 -0.2357
66623W        W 9676   8.419  25.750  13.160  0.0382  0.0986  0.2254
66624W        W 9677  21.178   6.881  17.703  0.0599 -0.0693 -0.0504
66625W        W 9678   9.383   1.760   9.649 -0.0800  0.0222  0.1373
66626W        W 9679  30.223  20.712   6.475 -0.0537 -0.1226 -0.2715
66627W        W 9680  22.767   6.040  23.477  0.2650 -0.0493 -0.4580
66628W        W 9681  10.620  13.764  20.081 -0.0259  0.1249  0.0471
66629W        W 9682  19.511  29.848  21.459 -0.1097  0.2247 -0.1584
66630W        W 9683   9.132   8.523  26.555  0.2008  0.1447  0.0217
66631W        W 9684  19.672  14.218   8.897 -0.0170 -0.1678 -0.1009
66632W        W 9685   9.118  26.137   9.801 -0.2068  0.1131 -0.3463
66633W        W 9686  19.227  21.458   3.137  0.0293 -0.0222  0.0028
66634W        W 9687  11.516  14.653   9.282  0.3655  0.0145 -0.0547
66635W        W 9688  15.286  22.336  20.840 -0.0874 -0.0557  0.2964
66636W        W 9689  10.950   6.424   4.646  0.1243 -0.0648  0.0151
66637W        W 9690   2.493  30.744  20.867  0.2122 -0.3061  0.0488
66638W        W 9691  15.807  32.249   9.930  0.1076  0.0137  0.0742
66639W        W 9692   3.905  27.392   1.039  0.2374  0.0542 -0.2244
66640W        W 9693   4.827   8.328   1.178  0.0856 -0.2025  0.1646
66641W        W 9694  27.497  25.683  20.258 -0.1492 -0.2495  0.2285
66642W        W 9695  13.130   3.552  18.695 -0.0530 -0.1244 -0.0397
66643W        W 9696   7.542  25.935  18.383  0.2182 -0.0546 -0.3112
66644W        W 9697  14.405   7.105  16.261  0.1590 -0.0155  0.0489
66645W        W 9698   1.303  28.734  21.006  0.3386 -0.1126 -0.0176
66646W        W 9699  31.175   3.753  19.881 -0.1897  0.1954 -0.0160
66647W        W 9700  10.657   0.902  19.926 -0.1136 -0.2250 -0.0112
66648W        W 9701  24.132  15.281  14.220 -0.1016  0.0049 -0.4472
66649W        W 9702  12.244   9.769  25.778 -0.2015  0.3142 -0.0121
66650W        W 9703  14.990   2.416  20.254 -0.0640 -0.1323 -0.0044
66651W        W 9704  33.890  32.607  15.095 -0.0326  0.1076  0.0571
66652W        W 9705   8.112  27.261  14.432 -0.1074 -0.0217  0.3250
66653W        W 9706   8.287   3.057  15.503  0.0596 -0.3079  0.4224
66654W        W 9707  12.050   4.754  18.461 -0.3581  0.2232  0.1610
66655W        W 9708  28.915   2.447  22.721  0.1452 -0.1511 -0.0343
66656W        W 9709  33.087  29.123  16.513 -0.2010 -0.1588 -0.0267
66657W        W 9710  11.612  34.511   4.267 -0.2862  0.0846  0.0783
66658W        W 9711   5.125  10.440  26.877 -0.3183 -0.0992 -0.1544
66659W        W 9712  13.443  18.743  22.300 -0.2223 -0.2031  0.0009
66660W        W 9713  31.651   0.558  13.566  0.1346  0.1159 -0.1314
66661W        W 9714  15.886  32.930  18.947  0.2580  0.0401 -0.1104
66662W        W 9715  26.948  31.299  18.855 -0.1192 -0.3018 -0.0798
66663W        W 9716  20.170   3.982  12.567  0.4324 -0.1741  0.0575
66664W        W 9717  10.245  24.897  16.335 -0.0911 -0.1478  0.0726
66665W        W 9718  19.173  21.363  16.726 -0.0349  0.2475 -0.1253
66666W        W 9719  26.549  33.675   2.332  0.1944  0.1419 -0.0210
66667W        W 9720  32.387   5.024  26.650 -0.0109 -0.0060 -0.0236
66668W        W 9721  20.741   5.712  28.973  0.0511 -0.1237 -0.4471
66669W        W 9722  14.743  24.247  22.409  0.1730 -0.1875 -0.0113
66670W        W 9723   6.631  16.185  26.388 -0.0260  0.0679 -0.3961
66671W        W 9724  18.048  33.891  28.900  0.1281  0.3813  0.2229
66672W        W 9725   3.913  27.537  21.867  0.0017  0.1901 -0.2051
66673W        W 9726   7.055  34.483  15.662 -0.0491  0.0212  0.1157
66674W        W 9727   3.802  23.372   6.144 -0.0868 -0.2254  0.1702
66675W        W 9728  18.821   4.567   2.479 -0.0039  0.0349  0.1943
66676W        W 9729  27.699  28.869  21.511  0.0122  0.0026 -0.1569
66677W        W 9730   7.794  28.021  24.148  0.0789  0.0675  0.1216
66678W        W 9731   1.565   6.828  15.979  0.1424 -0.1394 -0.2148
66679W        W 9732   2.476  23.782  15.186  0.0489 -0.0537  0.2142
66680W        W 9733  14.185   6.095  25.049  0.0886  0.0534  0.0612
66681W        W 9734  31.363   5.349  21.112 -0.2622 -0.1382 -0.0803
66682W        W 9735  15.981  29.137  26.004 -0.0600 -0.2420  0.2325
66683W        W 9736   8.211   8.985  13.591 -0.0477  0.1437  0.0665
66684W        W 9737  13.040  25.819  26.716  0.0129 -0.0023 -0.0479
66685W        W 9738   4.822   2.804  21.942  0.0954  0.1267 -0.4100
66686W        W 9739  29.386  22.208  23.133 -0.0616 -0.2286 -0.2562
66687W        W 9740  33.143  20.559  19.597  0.0856  0.1729  0.0907
66688W        W 9741  10.325   9.179  25.313 -0.1824  0.2278 -0.0150
66689W        W 9742  14.802  28.576  16.668  0.1020  0.5452 -0.2127
66690W        W 9743  34.388  32.393  18.311  0.2862  0.0108  0.1954
66691W        W 9744  15.193  15.176  16.664 -0.0870 -0.1499  0.2477
66692W        W 9745  14.576   1.870  17.122  0.0570 -0.0548  0.1067
66693W        W 9746   8.454  32.367  25.589  0.2205  0.0305  0.0053
66694W        W 9747  21.744  24.995  23.623 -0.1823 -0.1815 -0.1495
66695W        W 9748  14.659  26.195   6.428  0.2353  0.0366 -0.1842
66696W        W 9749  12.907  29.752  26.027 -0.0586 -0.2260  0.0320
66697W        W 9750  13.687  34.057  27.150 -0.3044 -0.0623  0.0560
66698W        W 9751  17.816  32.544   3.481 -0.0180 -0.0963 -0.0313
66699W        W 9752  10.975  27.293  16.687 -0.1233  0.0258 -0.1323
66700W        W 9753  10.579  27.808  13.763 -0.1243  0.0589 -0.1909
66701W        W 9754   0.558  30.329  14.391 -0.1062  0.0635  0.1615
66702W        W 9755  14.927  20.252  16.252  0.2520 -0.0812 -0.1167
66703W        W 9756   9.220  31.780  23.148  0.1035 -0.3039  0.0379
66704W        W 9757  22.937   6.313  20.071  0.0192  0.0665  0.4046
66705W        W 9758  18.687  29.210  19.778  0.1100 -0.0047  0.1002
66706W        W 9759  16.839  25.469  24.917 -0.2441 -0.1959 -0.1552
66707W        W 9760  16.421  33.455  17.412  0.0060  0.3368 -0.2542
66708W        W 9761  24.283  27.145  20.772 -0.1200  0.1278 -0.0773
66709W        W 9762  20.470  29.228  20.282 -0.1065  0.2309  0.0569
66710W        W 9763  20.178  13.743  19.589 -0.1592 -0.2862  0.0615
66711W        W 9764   9.219   0.306  14.845 -0.1255  0.0660 -0.0546
66712W        W 9765  12.150  27.131  23.784  0.0473  0.0091 -0.2750
66713W        W 9766  24.331   2.226  15.573  0.0174  0.0879 -0.0009
66714W        W 9767  11.491  25.569  18.349 -0.1464  0.0805 -0.0137
66715W        W 9768  24.890  33.036  24.559  0.0538  0.0938 -0.0015
66716W        W 9769  15.818  22.210  20.967  0.1567  0.0903 -0.1235
66717W        W 9770  16.948   2.873  20.572  0.1207  0.0992 -0.0089
66718W        W 9771   4.715  14.110  15.717  0.1527  0.1659 -0.1370
66719W        W 9772  16.748  27.401  27.377  0.2545 -0.3239 -0.1975
66720W        W 9773  10.737  30.082  28.725  0.2910 -0.0318  0.0018
66721W        W 9774  14.326  30.698  20.896 -0.0438  0.0694  0.3098
66722W        W 9775  33.248   1.594  16.325  0.3402  0.3050  0.1876
66723W        W 9776   0.625   5.104  18.997  0.2903  0.0758 -0.0470
66724W        W 9777  28.899  21.013  15.396  0.1349 -0.2851  0.0267
66725W        W 9778  16.839  27.275  10.322  0.0453  0.1443 -0.1968
66726W        W 9779  30.014  30.616  14.326  0.0471  0.1820  0.1717
66727W        W 9780  19.165  31.835  19.003  0.3416  0.3651  0.2728
66728W        W 9781  21.476  23.312  27.009 -0.0441 -0.0023 -0.3540
66729W        W 9782  17.122   2.351  16.570 -0.3329  0.2947  0.0387
66730W        W 9783  13.207  17.427  15.242  0.1885 -0.1459 -0.1363
66731W        W 9784  12.941  23.292  20.907  0.0464  0.1564 -0.0054
66732W        W 9785  12.660  28.923  22.302  0.1178 -0.0707  0.2393
66733W        W 9786  13.235   5.441  18.110  0.2694 -0.1074  0.0189
66734W        W 9787  14.415   0.563  20.085  0.0859  0.1668  0.1589
66735W        W 9788   8.323   7.966  23.639  0.0741 -0.0193  0.1135
66736W        W 9789  20.328  29.791   2.519 -0.3146  0.2069  0.2952
66737W        W 9790   5.938   4.987  22.847 -0.1230 -0.4098  0.1057
66738W        W 9791   1.873  29.019  16.621 -0.0537 -0.1005  0.3049
66739W        W 9792  18.015  22.422  15.641  0.0855 -0.0899 -0.0004
66740W        W 9793   4.775   7.006  28.944 -0.1241  0.1578 -0.2393
66741W        W 9794  21.016  31.663   3.552 -0.0811  0.0826  0.0824
66742W        W 9795   0.527  17.217  16.267  0.6579  0.0560  0.3494
66743W        W 9796  12.986   0.123   2.217 -0.2229 -0.1111 -0.2110
66744W        W 9797  32.307  15.191  14.715  0.2891 -0.2892  0.0898
66745W        W 9798   6.272  34.603  14.497 -0.2807  0.1939  0.0645
66746W        W 9799  13.967  28.342  19.118 -0.2956 -0.0637 -0.0827
66747W        W 9800  13.398  30.644  21.075 -0.0287  0.3388  0.3639
66748W        W 9801  28.388  33.582  15.578 -0.0099  0.1250  0.0616
66749W        W 9802  32.539   5.079  16.644 -0.1126 -0.1301 -0.2130
66750W        W 9803   9.940  29.390  14.320 -0.0553  0.0230 -0.2119
66751W        W 9804  13.800   7.671  20.482  0.0383 -0.0536  0.1967
66752W        W 9805  23.717  12.770  14.362 -0.1131  0.1209  0.3964
66753W        W 9806   5.318  25.180  15.027  0.0302 -0.0088 -0.1979
66754W        W 9807  20.595   2.909  21.760 -0.4735  0.1867  0.0508
66755W        W 9808  18.452   3.301  22.715 -0.1791  0.0822 -0.0990
66756W        W 9809   9.786  31.414  16.428  0.0576  0.3291 -0.0786
66757W        W 9810  12.977  33.165  24.291 -0.2092  0.0431  0.1618
66758W        W 9811  15.405  26.553  22.301  0.1341 -0.0460 -0.1178
66759W        W 9812  18.393   1.134  26.168 -0.2410 -0.2269 -0.1025
66760W        W 9813  17.006  19.854  13.732  0.3080 -0.1287 -0.1421
66761W        W 9814   9.132  33.638  22.628 -0.0017 -0.0366 -0.1189
66762W        W 9815  31.530  31.597  17.815  0.1817  0.0321 -0.1464
66763W        W 9816  10.555   3.550  19.470  0.1094 -0.2485 -0.0221
66764W        W 9817   8.175  30.925  22.747  0.0434  0.1176  0.3371
66765W        W 9818  27.425   4.363  15.628  0.0956 -0.0315  0.2109
66766W        W 9819  20.869  12.737  18.555 -0.1225 -0.0167 -0.2930
66767W        W 9820  11.312  30.733  15.295  0.3651  0.2311  0.0466
66768W        W 9821   5.562  23.226  16.886  0.2250 -0.1807 -0.2843
66769W        W 9822   8.451  25.769  19.447  0.1003 -0.1766 -0.0489
66770W        W 9823  26.339  34.067  14.697  0.0804 -0.1360 -0.1868
66771W        W 9824   1.241   8.915  21.662  0.1689 -0.2250 -0.1020
66772W        W 9825  11.362   6.662  15.059 -0.0057 -0.1299 -0.1261
66773W        W 9826  10.540  32.090  23.630  0.1311 -0.2552  0.0408
66774W        W 9827  20.932  33.194  17.444 -0.2463  0.1701  0.4075
66775W        W 9828  13.873  27.079  21.517  0.1041 -0.0713  0.3993
66776W        W 9829  17.731  26.670  15.520  0.1584 -0.1032  0.2338
66777W        W 9830   8.561   1.328  20.495  0.0975  0.0017 -0.4580
66778W        W 9831  16.631  30.725  23.880  0.2893 -0.1567 -0.0764
66779W        W 9832  19.742  34.034  15.386  0.0919 -0.0978 -0.3259
66780W        W 9833  16.038  20.399  13.505 -0.1412 -0.0985  0.2669
66781W        W 9834  25.596  23.744  22.696  0.1298 -0.1982  0.0729
66782W        W 9835   6.182  14.593  15.878 -0.1102  0.2778  0.2364
66783W        W 9836  31.780   6.884   0.004  0.3804  0.1252 -0.1335
66784W        W 9837   8.165  11.052  16.086  0.1690 -0.2248 -0.1649
66785W        W 9838  18.625  32.584  24.645 -0.3134 -0.1961  0.1553
66786W        W 9839  14.888  31.890  24.158  0.0814 -0.0677  0.0564
66787W        W 9840  25.602  33.824  25.621 -0.1496 -0.1892 -0.0020
66788W        W 9841   7.069  21.887  20.578 -0.1771  0.0137  0.0615
66789W        W 9842   2.061  12.742  21.444 -0.4801 -0.0113  0.1986
66790W        W 9843  11.635   4.911   9.682 -0.0231 -0.3831  0.0488
66791W        W 9844  12.946  10.085  16.383  0.2168  0.2003  0.2938
66792W        W 9845  17.704   4.273  15.209  0.1399 -0.0374 -0.2617
66793W        W 9846  19.961  32.993  24.346  0.2961 -0.1184  0.0317
66794W        W 9847  27.671  27.200  15.767  0.2301  0.0491  0.1946
66795W        W 9848  12.625   1.362   1.819  0.1213  0.1292 -0.2048
66796W        W 9849  12.640   1.829  14.126 -0.1126  0.0969  0.1709
66797W        W 9850  22.000  29.869  19.002  0.2417 -0.2547 -0.1097
66798W        W 9851  16.889  25.515   1.440 -0.1398  0.1448  0.1352
66799W        W 9852  15.615  19.321  28.447  0.0021  0.1789  0.2168
66800W        W 9853   5.285  29.696  25.747  0.1171  0.2070 -0.3223
66801W        W 9854  19.504   1.111  14.401  0.0127  0.1785 -0.2612
66802W        W 9855  22.536  15.143  18.243 -0.2560 -0.1394  0.1665
66803W        W 9856   4.493   5.999  28.319 -0.0692  0.1612 -0.1822
66804W        W 9857   9.535  10.915  22.829 -0.0408  0.1073 -0.3799
66805W        W 9858  14.155   7.170  18.308  0.2663 -0.0803 -0.3158
66806W        W 9859  13.989  32.157   1.922  0.1449  0.1963 -0.0493
66807W        W 9860  33.352  26.650  13.927 -0.1089  0.0870 -0.1850
66808W        W 9861  19.690   9.084  17.140  0.0218 -0.0991 -0.3228
66809W        W 9862  27.718   5.731  28.237 -0.0051  0.0883  0.0377
66810W        W 9863  19.873  10.363  25.406  0.2232 -0.0087 -0.5843
66811W        W 9864  14.615   0.105  14.053  0.0026  0.0664  0.0953
66812W        W 9865  11.476   1.470  22.547  0.1768 -0.1584 -0.1823
66813W        W 9866  15.122  26.086  20.684 -0.0385  0.0113  0.2457
66814W        W 9867  10.077  21.336  17.469  0.0836  0.1610 -0.1388
66815W        W 9868   0.024  26.534  13.957  0.0604  0.0683  0.1805
66816W        W 9869  12.398   6.232  14.109  0.0584  0.2194 -0.0640
66817W        W 9870   9.842  23.786  22.021  0.1612  0.1045  0.0929
66818W        W 9871  16.034   7.634  21.798  0.0107 -0.1427  0.0514
66819W        W 9872  10.130   5.353  25.949 -0.1151  0.0024 -0.1629
66820W        W 9873   9.198   2.848  19.840 -0.4155  0.0016 -0.1025
66821W        W 9874  22.316  15.508  27.972  0.1869 -0.0270  0.1731
66822W        W 9875  30.287  21.381  16.706  0.0172 -0.0113  0.0633
66823W        W 9876  19.452  13.203  28.429  0.0202 -0.0615  0.2930
66824W        W 9877  18.381   3.495  17.234  0.0518 -0.0875  0.2252
66825W        W 9878  26.964   0.611  18.947  0.0227 -0.0399  0.0181
66826W        W 9879  14.296  16.089  15.154 -0.0644 -0.1043 -0.0564
66827W        W 9880   0.504  34.055  17.107 -0.0417  0.0192  0.2572
66828W        W 9881  14.220  19.795  23.767 -0.0043 -0.0404 -0.2670
66829W        W 9882   1.374  31.340   0.456 -0.2389  0.4146 -0.0962
66830W        W 9883   3.022  22.871  14.314 -0.1795 -0.2835  0.1165
66831W        W 9884   4.507  29.037  21.654  0.1390  0.2250 -0.2711
66832W        W 9885  11.099   0.576  19.045  0.1308 -0.1606 -0.2712
66833W        W 9886  18.578  10.749   3.203  0.1998 -0.0593  0.0339
66834W        W 9887  11.704  23.990  26.344  0.0975  0.2678  0.3717
66835W        W 9888  18.617  16.663  24.258  0.0905  0.1411  0.0349
66836W        W 9889  16.884  21.783  15.770 -0.3339  0.2457 -0.1160
66837W        W 9890   5.145  25.080   0.849  0.0080 -0.1158 -0.0053
66838W        W 9891   6.934  19.600  15.062  0.0711  0.3225 -0.1258
66839W        W 9892   7.677  28.652  19.659 -0.0562  0.0069 -0.2675
66840W        W 9893  13.453  30.092  18.100  0.2204  0.0765  0.1491
66841W        W 9894  18.262  22.855  23.977  0.0145  0.1783  0.0108
66842W        W 9895   8.367  29.817  17.889 -0.0946 -0.0254  0.2223
66843W        W 9896  31.214  12.003   3.386  0.0564 -0.1878 -0.0129
66844W        W 9897   7.665   4.374  15.277 -0.0845  0.1015 -0.2219
66845W        W 9898  25.857   8.701  20.251  0.0845 -0.2084  0.1813
66846W        W 9899  12.394  23.072  16.925 -0.4748 -0.1462 -0.0375
66847W        W 9900  20.448  14.962   1.246  0.1274 -0.0506 -0.1338
66848W        W 9901   8.367  13.975  16.389  0.1369  0.0867  0.1589
66849W        W 9902   7.318  32.720  13.732 -0.1448  0.1522 -0.0068
66850W        W 9903  11.021  25.595  16.057 -0.0924 -0.5402 -0.1454
66851W        W 9904  25.720  27.686  15.585 -0.0774 -0.1643  0.0237
66852W        W 9905   6.766   8.888  16.508 -0.0677 -0.0455 -0.1119
66853W        W 9906   6.929   1.565  27.142  0.0191 -0.2800 -0.1038
66854W        W 9907   2.280  12.132  22.513  0.4873 -0.0406 -0.2451
66855W        W 9908   8.105  34.253  23.606  0.2137  0.0052 -0.0025
66856W        W 9909  17.288  25.465  25.069  0.0093 -0.2014 -0.1721
66857W        W 9910   7.207  33.495  14.544 -0.1408  0.3510  0.1492
66858W        W 9911   7.980  18.271  13.807  0.0701 -0.1561 -0.0496
66859W        W 9912  11.322  26.887  15.361 -0.4861  0.3866 -0.2946
66860W        W 9913   1.018   4.755  22.117 -0.1459  0.2669  0.1235
66861W        W 9914  13.333  24.957  15.917  0.1018  0.2815 -0.2081
66862W        W 9915   6.634  20.013   1.654  0.1102 -0.1380 -0.1329
66863W        W 9916  17.478   1.197   1.620  0.1704  0.0704 -0.0197
66864W        W 9917  15.056  33.579  22.979  0.2138 -0.0802 -0.0809
66865W        W 9918  18.846   7.130  26.246  0.0257  0.1581  0.0357
66866W        W 9919  30.650  27.340   3.816 -0.0123  0.3454  0.2482
66867W        W 9920   9.559   2.469  14.579  0.2526 -0.1280 -0.0129
66868W        W 9921  23.506   0.541   6.155  0.4391  0.1383  0.0583
66869W        W 9922   3.728  29.777  14.328 -0.3653 -0.0359  0.0982
66870W        W 9923  15.225   1.689  19.551  0.0591 -0.2943  0.0182
66871W        W 9924  22.397  27.159  22.740  0.1341  0.3795  0.3324
66872W        W 9925  29.922   4.414  20.469 -0.0396  0.0933  0.1233
66873W        W 9926   4.922  30.260  23.001 -0.1149  0.1703 -0.0027
66874W        W 9927   7.340   4.497  24.708 -0.0781 -0.5535 -0.1161
66875W        W 9928   2.942  34.304  25.880  0.2488  0.1670 -0.3609
66876W        W 9929   7.803   8.428  16.310  0.2156  0.4400  0.1330
66877W        W 9930  18.635   4.916  24.674  0.3276 -0.0244 -0.0472
66878W        W 9931   6.072  14.620  16.923  0.0768 -0.1708  0.1107
66879W        W 9932  25.147   4.253   4.259  0.2531  0.0361  0.1085
66880W        W 9933  24.700   6.515  15.514 -0.1413  0.3672  0.0695
66881W        W 9934   6.680   8.127  19.098  0.3220  0.0804 -0.4022
66882W        W 9935  14.958  13.273  22.366 -0.3420  0.1839 -0.0740
66883W        W 9936  13.554  27.482  17.580 -0.1698  0.0073 -0.0682
66884W        W 9937  30.491  31.004  15.572  0.2419 -0.0437  0.0659
66885W        W 9938  33.077  27.741  18.190  0.0971 -0.4070  0.0420
66886W        W 9939   9.386  21.335  22.424 -0.0439  0.1385 -0.0204
66887W        W 9940  27.717   8.120  17.095  0.1549  0.0571 -0.0325
66888W        W 9941  28.587   5.073  17.777 -0.0911  0.0553  0.1472
66889W        W 9942   9.784   4.956   2.488 -0.3383  0.2193 -0.1015
66890W        W 9943  13.397  23.229  20.046  0.1624 -0.1249  0.2231
66891W        W 9944  12.958  34.440  15.359 -0.1349 -0.2947  0.1083
66892W        W 9945  28.057   7.176  15.535 -0.0751  0.0379 -0.2294
66893W        W 9946  20.331  20.668  22.468  0.2723  0.2085  0.2185
66894W        W 9947  28.566  28.947  20.908 -0.1628 -0.2414  0.0536
66895W        W 9948  10.898  23.445  16.938 -0.1047  0.0387  0.1169
66896W        W 9949   4.185   9.244  14.301 -0.0393  0.0397  0.2585
66897W        W 9950   2.312  30.894  19.050 -0.1201 -0.2503 -0.1885
66898W        W 9951  21.132   4.909   0.960  0.2107 -0.1002  0.1236
66899W        W 9952   2.976   3.477  20.260  0.1466 -0.1602  0.1560
66900W        W 9953  13.405  30.939  28.947 -0.2504  0.2333  0.1758
66901W        W 9954   6.369  27.743  18.225 -0.0280  0.0574 -0.2982
66902W        W 9955   7.868   9.484  26.974 -0.1921  0.3619  0.1700
66903W        W 9956   0.164   3.913  14.202  0.3287 -0.0662  0.0573
66904W        W 9957  17.294  23.308  15.561  0.0600  0.1395  0.0797
66905W        W 9958   2.885  26.944  21.368  0.2421  0.0307 -0.1155
66906W        W 9959   7.454   9.780  24.875 -0.0794 -0.1243 -0.0018
66907W        W 9960  16.492   4.763   6.403 -0.0579  0.4052  0.0539
66908W        W 9961  12.579  28.862  16.896 -0.1512  0.1757 -0.1755
66909W        W 9962  29.606  34.231  17.504 -0.1392  0.2362 -0.0655
66910W        W 9963  34.316  30.030  13.769 -0.1314 -0.1210  0.1349
66911W        W 9964  12.014  30.575  16.208 -0.0748  0.0383 -0.0307
66912W        W 9965  14.727  22.782   2.549  0.0885 -0.3274 -0.1772
66913W        W 9966  33.157   3.328  24.068 -0.1702 -0.1748  0.2999
66914W        W 9967   2.280  26.948  19.464 -0.0350  0.0185 -0.0043
66915W        W 9968  27.036  31.468  15.274  0.0281  0.0959 -0.2139
66916W        W 9969   0.332  17.095  24.565 -0.2503  0.2061  0.0846
66917W        W 9970  13.473  28.654  18.351 -0.1066  0.0334 -0.1506
66918W        W 9971  12.575  33.371  28.243 -0.0810 -0.0613 -0.0072
66919W        W 9972  28.035  22.423  25.624  0.0076 -0.2040  0.1377
66920W        W 9973  26.662  27.746  20.540 -0.1406  0.0126 -0.0737
66921W        W 9974  19.119  29.203  20.091 -0.2428  0.1317 -0.1507
66922W        W 9975  33.839  12.382  16.313 -0.3690  0.1605 -0.0023
66923W        W 9976  12.565  32.133  23.797  0.1243  0.0490  0.4175
66924W        W 9977  28.398   7.142  26.933 -0.0620 -0.1069 -0.0320
66925W        W 9978  11.231   6.885  18.204  0.1492  0.0359  0.0579
66926W        W 9979   7.056   6.733  15.669  0.0758 -0.0872  0.3951
66927W        W 9980  22.503  26.398  17.437  0.1674  0.2008 -0.0929
66928W        W 9981  22.103  22.223   0.597 -0.4615  0.0201 -0.3632
66929W        W 9982  17.660  25.639  16.968 -0.0380  0.1791  0.1218
66930W        W 9983  14.358   7.291  20.907  0.1066  0.2056 -0.0499
66931W        W 9984  14.030   7.109  15.413 -0.0087  0.2738 -0.0414
66932W        W 9985  18.979  21.869  17.976  0.0006  0.2282 -0.0164
66933W        W 9986   9.376   0.503  16.559 -0.3035 -0.0125 -0.2526
66934W        W 9987  24.481  34.053   1.438  0.0448  0.0971 -0.0378
66935W        W 9988  11.102  22.368   5.566 -0.1136  0.2153  0.0881
66936W        W 9989  30.999  23.225  15.335  0.4222  0.0133 -0.3057
66937W        W 9990   3.954  20.642   1.076  0.0123 -0.2911 -0.0607
66938W        W 9991  27.749   2.172  15.614 -0.0760 -0.2249 -0.0120
66939W        W 9992   9.384   8.107  15.684 -0.0119  0.1181  0.0985
66940W        W 9993  22.256   4.440  21.503 -0.1462 -0.1504  0.2043
66941W        W 9994   4.631  32.986  15.862 -0.0074 -0.1139 -0.0211
66942W        W 9995   9.669  27.532  17.572 -0.0512 -0.0962  0.2079
66943W        W 9996  16.687  31.817   7.757  0.0692 -0.0579  0.0038
66944W        W 9997  11.220  14.047  25.936  0.3348 -0.2175  0.2326
66945W        W 9998  10.791   0.747  14.757 -0.1986 -0.1107  0.0161
66946W        W 9999  17.624  32.785  26.126 -0.1969 -0.0630 -0.3109
66947W        W10000   9.020  18.257  15.013  0.1702  0.0452 -0.1619
66948W        W10001  17.192   0.432  24.963 -0.0686 -0.0906 -0.0737
66949W        W10002  12.589  30.291   6.603  0.2173  0.0092 -0.0128
66950W        W10003  18.979  28.303  28.481 -0.0713 -0.1393  0.1369
66951W        W10004  15.300   3.438  24.664  0.1624 -0.0471  0.2524
66952W        W10005  16.648  24.762  26.066  0.0574  0.3207  0.2683
66953W        W10006   8.846  33.724  22.044  0.6021  0.2120 -0.0519
66954W        W10007   1.186  31.055  21.143 -0.1792  0.1808  0.2410
66955W        W10008  10.267  29.343   6.512 -0.0151  0.3686  0.2477
66956W        W10009   1.590  12.769  28.240  0.2584 -0.0882 -0.2162
66957W        W10010  18.456   3.044  21.834 -0.1064  0.1037  0.0619
66958W        W10011   7.926   9.578  19.540  0.1069  0.2508  0.0282
66959W        W10012  34.516   0.944  17.262 -0.2481  0.1078 -0.1000
66960W        W10013  12.650  16.761  15.020  0.1244  0.4497 -0.3398
66961W        W10014   3.223   6.596  22.897  0.0464 -0.2141  0.0642
66962W        W10015  20.313  31.100  22.991  0.0803  0.2065  0.0993
66963W        W10016  25.635  29.740   2.064 -0.0718  0.0111 -0.0643
66964W        W10017  17.183  33.466  19.708  0.1905  0.0989 -0.0506
66965W        W10018  16.817  18.346  24.500 -0.1905 -0.0093 -0.1011
66966W        W10019  17.205  11.214  26.410  0.0196  0.1534 -0.0637
66967W        W10020  16.312   4.314  25.350 -0.1188  0.0210  0.2463
66968W        W10021  14.964  29.608   5.197  0.0356  0.0464  0.0730
66969W        W10022  29.794  31.429  15.256  0.0203 -0.0020  0.1175
66970W        W10023   9.995  31.685  15.906 -0.2341 -0.2395  0.0292
66971W        W10024  15.415   1.636  17.528  0.1942  0.2056 -0.1806
66972W        W10025   9.473   3.653  24.019  0.1121  0.0741 -0.1595
66973W        W10026  29.349  14.884   8.808 -0.0330 -0.0198  0.3794
66974W        W10027  14.005   1.311   3.654  0.3876  0.0221  0.0697
66975W        W10028  10.988   2.852  21.944 -0.1367  0.0188 -0.2779
66976W        W10029  18.700  33.940  15.522  0.1154  0.0318 -0.2294
66977W        W10030  24.402  20.100  26.398 -0.2603 -0.1540  0.0280
66978W        W10031  14.512  32.857  20.520 -0.0306  0.2668  0.2004
66979W        W10032  11.950  25.580  23.784 -0.1051  0.2499  0.2570
66980W        W10033  10.619  32.019  24.515 -0.0370  0.0793 -0.0502
66981W        W10034  13.101   3.690  27.218 -0.1657 -0.0041 -0.2597
66982W        W10035  34.010  19.909  25.026 -0.1476 -0.2689 -0.0458
66983W        W10036  21.610   9.820  24.753 -0.1364  0.1270  0.1773
66984W        W10037  17.902  34.231  16.539  0.0146 -0.3514  0.0872
66985W        W10038  16.584  23.120   6.785 -0.0499 -0.3079  0.2170
66986W        W10039  11.868  24.012  21.626 -0.0394  0.0070 -0.3107
66987W        W10040  11.020  25.032  17.829 -0.0158 -0.1764 -0.1602
66988W        W10041  15.403  28.911  29.003  0.1591  0.0952  0.3322
66989W        W10042  15.142  26.587   5.101  0.0098 -0.0225 -0.2291
66990W        W10043   7.350   8.528  21.549  0.0290  0.3351  0.2191
66991W        W10044  13.325  25.263  17.701  0.1053 -0.1118 -0.1887
66992W        W10045  19.015  30.902   1.131 -0.1556 -0.0889  0.3002
66993W        W10046  11.446   7.755  16.612 -0.3314 -0.3112 -0.1471
66994W        W10047  22.409  16.746  26.352 -0.2656  0.1541  0.2768
66995W        W10048   6.208   9.105  19.880 -0.0234  0.0561  0.2771
66996W        W10049  18.484  21.324  25.312 -0.1622 -0.1274 -0.0703
66997W        W10050  33.334   8.671  28.934  0.1933 -0.0110 -0.3332
66998W        W10051  12.520   0.911   0.319 -0.1344  0.1025  0.1004
66999W        W10052  16.390  21.820  23.557 -0.1252 -0.0816 -0.2804
67000W        W10053  18.324  11.880   5.898  0.1678  0.2337 -0.0467
67001W        W10054  27.289  30.993  21.628  0.0541  0.3288  0.2173
67002W        W10055  28.524  26.579  25.806  0.0143  0.1379 -0.2026
67003W        W10056  19.525   9.795  21.717 -0.0078 -0.2562  0.1818
67004W        W10057  18.467  27.134  25.188 -0.0506  0.0018  0.2353
67005W        W10058   1.861  33.668  27.776 -0.3886  0.0562  0.2459
67006W        W10059  33.921  28.794  20.334 -0.4760  0.1618 -0.1144
67007W        W10060  12.230  21.107   6.530  0.1035 -0.0778 -0.0311
67008W        W10061  10.017  21.959  17.653  0.1852 -0.0693 -0.1531
67009W        W10062  17.575   6.443  17.964 -0.2836 -0.2094 -0.0422
67010W        W10063  22.808  18.468  20.130 -0.1361  0.0518  0.0959
67011W        W10064   6.835   3.135  16.728 -0.1819 -0.0953 -0.0645
67012W        W10065  15.229  33.716  27.672 -0.0592  0.0717  0.2260
67013W        W10066  10.722  10.167  18.864 -0.0947  0.2071 -0.2507
67014W        W10067  23.637  30.994  15.581 -0.1617 -0.1378  0.1232
67015W        W10068   4.061  23.745  17.064 -0.1891  0.0348 -0.1337
67016W        W10069  16.064   0.671  24.586  0.4419  0.0761  0.0282
67017W        W10070  14.006  25.434  21.348  0.2839 -0.1341 -0.0846
67018W        W10071  24.643   2.468  26.279  0.2313  0.2924 -0.2649
67019W        W10072   8.441  34.458  27.290 -0.2292 -0.1022  0.0942
67020W        W10073   2.143  25.690  29.013 -0.4379 -0.0901 -0.1728
67021W        W10074   4.225  30.046  12.965  0.1205 -0.3234 -0.4325
67022W        W10075  17.237   3.685  16.017  0.1032  0.0146 -0.2478
67023W        W10076  25.361  20.422  10.008 -0.1618 -0.3894  0.1031
67024W        W10077  32.698  31.698  14.173  0.2314  0.5889 -0.2509
67025W        W10078  11.148  27.003  22.515 -0.1077  0.4025 -0.0113
67026W        W10079  24.375   2.093  20.270  0.2050  0.0763 -0.2076
67027W        W10080  15.507   9.239  26.385  0.2047 -0.3325  0.0332
67028W        W10081  10.881   6.585  20.028 -0.0740 -0.1225  0.1058
67029W        W10082  14.751  21.475   0.039 -0.0468  0.1148 -0.5026
67030W        W10083  22.513   6.127  28.880  0.1374 -0.1257  0.0601
67031W        W10084  21.595  23.626  18.800  0.2278  0.0482  0.2587
67032W        W10085  12.743  26.526  15.664 -0.0838 -0.0139  0.0275
67033W        W10086  15.694  27.003  14.611  0.0084 -0.0144  0.1193
67034W        W10087  22.380   7.450  16.638  0.0275  0.0936  0.0277
67035W        W10088   4.515  26.043   1.549  0.0863 -0.0712 -0.0889
67036W        W10089   9.151  26.404   1.427  0.0237  0.0579 -0.1212
67037W        W10090  33.652  13.505   1.476 -0.1191 -0.1606  0.0816
67038W        W10091  18.281  27.658  25.294  0.1805 -0.3484 -0.1260
67039W        W10092   9.175   5.538  26.584  0.2397  0.3329  0.0666
67040W        W10093  24.425  32.218  19.041 -0.1049 -0.1831 -0.3906
67041W        W10094  25.965   5.376  15.350 -0.3158  0.2626 -0.2101
67042W        W10095   6.665   2.517  15.006 -0.4042  0.1860 -0.0346
67043W        W10096   0.689   4.141  19.457 -0.1166 -0.1644  0.1216
67044W        W10097   8.599   0.793   0.361  0.0461  0.0388 -0.1668
67045W        W10098   5.671   3.059  16.371  0.0009 -0.0067  0.0239
67046W        W10099  15.324  23.148  15.262 -0.1411 -0.1099  0.0981
67047W        W10100   2.435   2.128   6.880  0.2098  0.2730 -0.1538
67048W        W10101   8.565  31.870  20.004 -0.1799  0.2978 -0.5278
67049W        W10102   4.292  20.496   0.642  0.1062 -0.0498  0.0366
67050W        W10103  15.754  32.738  15.609 -0.1290 -0.0970  0.1202
67051W        W10104   9.735  25.977  20.774 -0.1134  0.3000 -0.1086
67052W        W10105   8.658   6.946   2.079 -0.0790  0.0346  0.2027
67053W        W10106  17.324  12.013  22.791  0.3441  0.1310 -0.0466
67054W        W10107  15.304  32.027  24.923  0.0344  0.0551 -0.0638
67055W        W10108  18.690   4.153   1.002 -0.3667  0.0458  0.4816
67056W        W10109  25.832   5.385  22.000 -0.1543 -0.3303 -0.0922
67057W        W10110  10.936  30.925  23.803  0.1317  0.0383  0.4286
67058W        W10111  14.109  20.291  19.894  0.0986  0.1359 -0.1330
67059W        W10112  27.357   8.215  14.099 -0.0310  0.1178 -0.1932
67060W        W10113  16.894  30.716   0.810  0.2664  0.0785  0.0123
67061W        W10114   4.542  29.239  22.177  0.1200 -0.0506  0.0388
67062W        W10115  12.130  29.189  19.679  0.1503  0.1204  0.3069
67063W        W10116  11.330   8.304   3.928  0.2506  0.0220  0.2069
67064W        W10117  17.376  13.489  13.151 -0.1842 -0.4642 -0.2608
67065W        W10118  10.772   4.294  14.310 -0.0605 -0.1023 -0.0879
67066W        W10119  10.725   1.619  16.836 -0.0885 -0.0757 -0.3633
67067W        W10120  19.154  20.882  15.874  0.1439 -0.1848  0.0426
67068W        W10121  12.548  25.878  17.501 -0.1783 -0.0568  0.1143
67069W        W10122  15.369  12.967  22.052  0.3612  0.0734 -0.0494
67070W        W10123  32.581  17.915  17.650 -0.0756  0.2379 -0.0877
67071W        W10124   4.688  30.801  14.087  0.0778 -0.1580 -0.1151
67072W        W10125  17.914   9.005   5.362 -0.2284  0.1963 -0.3839
67073W        W10126  24.927  17.634  16.237 -0.0115 -0.1023 -0.0917
67074W        W10127   4.260  30.450  16.279  0.0393  0.0970  0.4698
67075W        W10128  32.068   1.488   0.331  0.1200 -0.2335  0.0167
67076W        W10129   0.647   9.488  25.268  0.0209  0.2343  0.3721
67077W        W10130  13.542  27.378   3.905  0.0551 -0.0347  0.0795
67078W        W10131  10.250  29.860  24.601  0.0098  0.1183 -0.0230
67079W        W10132  17.126   6.170  17.813 -0.1528  0.2814  0.2083
67080W        W10133  13.162  31.925  20.428  0.0863  0.2003  0.0826
67081W        W10134  13.268  29.442   4.011  0.0915  0.1874  0.2894
67082W        W10135  20.307  12.629   5.736 -0.0603  0.0897  0.0330
67083W        W10136  15.901   3.316  26.424 -0.2596  0.1050  0.0936
67084W        W10137  18.119   5.276  24.101  0.1612 -0.1824 -0.2695
67085W        W10138  17.262  13.149   1.289  0.0844 -0.0022 -0.2176
67086W        W10139   1.597  24.602  16.190  0.1389  0.1611  0.0536
67087W        W10140  20.156  22.040   4.774 -0.2817 -0.0791  0.0787
67088W        W10141   0.583   4.959   5.577  0.3816 -0.0350  0.0612
67089W        W10142  22.314  12.494  19.291 -0.0843 -0.0612 -0.2693
67090W        W10143  14.288  33.639  17.320  0.1874 -0.2660  0.0181
67091W        W10144  14.844  28.022  21.577  0.0872  0.1560 -0.0357
67092W        W10145  14.550   2.618  17.429  0.0760  0.0443 -0.3042
67093W        W10146  32.201  18.839  28.197  0.0257  0.1246  0.2382
67094W        W10147  10.808  22.362  13.242 -0.0843 -0.1830 -0.2284
67095W        W10148  24.975   3.283  16.835  0.0122 -0.0776 -0.1943
67096W        W10149   4.233  21.433  18.494 -0.1416 -0.1433  0.1113
67097W        W10150   0.333  32.963  20.562 -0.4626  0.0274 -0.0352
67098W        W10151  31.094   0.350  27.010 -0.0935  0.2154  0.0234
67099W        W10152  13.448  17.943  24.246 -0.2376  0.0368 -0.0386
67100W        W10153   6.507  33.311   0.516 -0.0672 -0.2139  0.0770
67101W        W10154  16.641   9.101  21.769 -0.0592  0.4659 -0.2894
67102W        W10155  17.795  29.533  27.420 -0.0408 -0.2622  0.1431
67103W        W10156  16.608   1.327   3.168  0.2308 -0.0597 -0.0132
67104W        W10157   7.670   3.206   4.466 -0.1750  0.1919  0.0166
67105W        W10158  17.637   3.625  25.452  0.4300 -0.3124  0.0175
67106W        W10159  16.395  27.631  26.566  0.0188  0.1461 -0.2631
67107W        W10160   3.398  31.856  14.820 -0.1000  0.1562  0.1867
67108W        W10161  18.363  28.244  21.968 -0.1495  0.2573 -0.2877
67109W        W10162  15.805  21.400  18.571  0.1702  0.1073 -0.1335
67110W        W10163  16.416   0.261  15.795 -0.0340 -0.0578 -0.1052
67111W        W10164  33.633  21.795  24.486  0.2475 -0.0988 -0.1584
67112W        W10165  27.169   6.383  27.199 -0.4938 -0.0502  0.0179
67113W        W10166  16.843  30.387  28.306 -0.2456 -0.2212 -0.0491
67114W        W10167   9.412  32.155  24.606  0.1717  0.0946 -0.2576
67115W        W10168  16.336  29.453  17.342 -0.1905 -0.0691  0.2030
67116W        W10169  34.067   6.467  22.308 -0.1540 -0.2425 -0.4452
67117W        W10170  10.085   0.569  20.233 -0.1915 -0.1483 -0.0781
67118W        W10171  17.159  28.038   9.273  0.1793 -0.0353  0.1835
67119W        W10172   8.953  29.889  13.324 -0.1763 -0.0533 -0.0461
67120W        W10173  15.792  19.141  15.815 -0.3598 -0.0218 -0.3141
67121W        W10174  30.641  21.443  20.818 -0.0941  0.0185 -0.0153
67122W        W10175  27.936  19.436  21.443  0.1922 -0.1032  0.2970
67123W        W10176  22.442   3.913  16.193 -0.6416  0.1942 -0.0773
67124W        W10177   4.409  14.734   8.556 -0.2133 -0.2050 -0.0096
67125W        W10178  24.103   9.194  17.024 -0.0573  0.1410  0.1003
67126W        W10179  27.260  34.619  22.612  0.0633  0.1057  0.0590
67127W        W10180   9.382  30.960   2.966 -0.0107 -0.0176  0.0131
67128W        W10181  11.172  13.259  17.398 -0.0061  0.0656 -0.0708
67129W        W10182  22.066   4.732  22.814 -0.3472  0.1618  0.1927
67130W        W10183   8.642  28.558  13.576 -0.0762 -0.2080 -0.3673
67131W        W10184  27.373  14.810  17.860 -0.2205 -0.0081  0.1220
67132W        W10185  19.627   5.005  25.478  0.0477  0.1594 -0.2125
67133W        W10186  33.844  25.306  28.464 -0.1505 -0.2096  0.0125
67134W        W10187  28.078  28.488  27.977  0.1683 -0.1729 -0.0612
67135W        W10188  32.026  18.378  23.115  0.0472  0.1530 -0.2464
67136W        W10189  12.777  31.378  14.601  0.1558  0.1657 -0.1753
67137W        W10190   5.858  29.734  15.773 -0.2800  0.1527 -0.1621
67138W        W10191  33.509   0.445   2.954  0.0824 -0.0631 -0.0682
67139W        W10192   1.595  15.400  15.868 -0.1144  0.1105 -0.2757
67140W        W10193  24.821  26.625   4.213 -0.0749 -0.3675  0.1079
67141W        W10194  19.052   6.319  28.287 -0.1090 -0.1619  0.1625
67142W        W10195   9.705  25.611  14.575 -0.0240 -0.1540 -0.0725
67143W        W10196  15.112  10.286  27.083 -0.0989  0.0063  0.0365
67144W        W10197  16.282   3.226  15.857 -0.0513 -0.1511 -0.2138
67145W        W10198   6.502   5.712  19.282  0.1402  0.0506  0.0153
67146W        W10199  19.748   7.364   0.914  0.0278 -0.1327 -0.0870
67147W        W10200  17.810  29.892  25.942 -0.1414  0.0792  0.0373
67148W        W10201  24.262  30.231  22.041 -0.2075  0.0440  0.0873
67149W        W10202  20.332  15.090  22.203  0.2576  0.5274 -0.0029
67150W        W10203  24.944  24.469  22.640 -0.0874 -0.2468  0.0544
67151W        W10204  31.407  27.167  25.182 -0.1081 -0.2156  0.1989
67152W        W10205  16.853  13.680  15.422 -0.3317 -0.3431  0.1159
67153W        W10206  30.364  26.456  25.613  0.2683  0.0591  0.2249
67154W        W10207  10.083   3.157  19.781 -0.3450  0.0172  0.0410
67155W        W10208   7.084  31.501  25.310  0.0387  0.0241 -0.0208
67156W        W10209  11.127  20.247  21.918  0.1348 -0.2617  0.0556
67157W        W10210  19.726  30.149  25.011 -0.0473  0.1619  0.0772
67158W        W10211   0.334  16.689  13.683 -0.2252  0.0589 -0.1365
67159W        W10212   8.931  10.988  15.760 -0.1138 -0.0812 -0.1188
67160W        W10213   2.731   2.590  14.970 -0.1392 -0.4551  0.1101
67161W        W10214  11.425  30.865  26.261  0.3162  0.2069  0.1663
67162W        W10215  10.283  23.380  19.569  0.3598  0.1805 -0.0062
67163W        W10216   9.268  11.153   5.838 -0.1196 -0.0060 -0.1221
67164W        W10217  27.133  31.020   3.095  0.1085  0.2589  0.2604
67165W        W10218   7.036  11.293   6.441 -0.1389  0.1547  0.2433
67166W        W10219  13.681   2.232   9.159  0.0621 -0.0252  0.2312
67167W        W10220  17.443  19.456  25.676  0.1435 -0.1108 -0.2322
67168W        W10221   9.104  31.125  20.266  0.4426 -0.1909  0.0869
67169W        W10222  14.795  29.866  17.142 -0.0886 -0.3880 -0.1539
67170W        W10223   5.981   2.762  26.981 -0.0362 -0.0597  0.1974
67171W        W10224  15.742   8.176  26.488  0.0562  0.1823 -0.0021
67172W        W10225   2.837   9.485   6.710  0.1852  0.0911 -0.0249
67173W        W10226  26.026   3.570  17.749 -0.0901  0.4065  0.0411
67174W        W10227  19.196   5.489   5.528 -0.1960  0.2374  0.1023
67175W        W10228  12.687  30.743  17.007 -0.1274 -0.1251 -0.1718
67176W        W10229   0.960  23.106  18.905  0.1584  0.2512 -0.1225
67177W        W10230  18.374  12.758  24.086  0.2452  0.1518 -0.2149
67178W        W10231  29.104  32.473  15.203 -0.0365  0.0120  0.0788
67179W        W10232  14.560  28.643  20.691 -0.2573 -0.1107  0.0033
67180W        W10233  10.621  12.106  26.859 -0.1277  0.1019 -0.0752
67181W        W10234  29.487   8.421  19.164  0.4134 -0.2627  0.0862
67182W        W10235   5.703  18.117  19.439 -0.3393 -0.0613  0.0378
67183W        W10236   2.344   7.136  25.206 -0.0827  0.0897 -0.0547
67184W        W10237   7.937   1.658  15.486 -0.1830 -0.0427 -0.1030
67185W        W10238  14.686  33.140   2.301  0.3223  0.1514  0.2106
67186W        W10239   0.153   0.856   5.878  0.1275 -0.1299 -0.0011
67187W        W10240  11.670   0.784  25.941 -0.2001  0.0816 -0.2954
67188W        W10241  10.865  31.742   1.891  0.1051 -0.0361 -0.0695
67189W        W10242  17.262   8.038  27.180  0.0622 -0.0503 -0.0752
67190W        W10243  14.703  24.429  28.828  0.0521  0.3752  0.2826
67191W        W10244  22.818  18.003  21.046 -0.1100 -0.1846  0.0359
67192W        W10245  25.240  18.380  14.551  0.1151 -0.1130 -0.0096
67193W        W10246  14.209  25.218   1.048  0.0040  0.1265 -0.0744
67194W        W10247  10.236   4.977   7.859  0.2900 -0.0059 -0.1607
67195W        W10248   9.729   0.734   0.375 -0.0346 -0.2284  0.3655
67196W        W10249  16.003  27.772  18.766  0.1670 -0.2596 -0.1340
67197W        W10250   9.724  32.838  16.925 -0.0936  0.0967  0.1445
67198W        W10251  31.404   7.440  15.488  0.1246 -0.0041  0.2918
67199W        W10252  14.612  13.254  24.789 -0.2428  0.0118  0.0357
67200W        W10253   4.793   2.310   0.192 -0.0711  0.2174 -0.0421
67201W        W10254   9.466  27.417   1.767 -0.3013 -0.2857  0.2429
67202W        W10255   2.074  29.315  21.550 -0.2241  0.1559 -0.0186
67203W        W10256  22.300   4.937  13.675 -0.1651 -0.3050  0.3329
67204W        W10257   5.094  12.000  28.854 -0.0795 -0.1572  0.0849
67205W        W10258  34.067  28.082   2.393 -0.0648  0.1793  0.0301
67206W        W10259   3.315  29.367  29.059  0.0447  0.0482 -0.4142
67207W        W10260  33.467  22.257  27.032 -0.1762 -0.1648 -0.0259
67208W        W10261  10.476   3.099  14.077 -0.0495 -0.2091  0.1052
67209W        W10262   5.626   5.532  22.176  0.0052  0.2644  0.0882
67210W        W10263  32.800  23.546  18.734 -0.2126  0.0725 -0.0233
67211W        W10264  29.579   1.738  22.543 -0.1140  0.2606  0.1492
67212W        W10265  27.255   8.459  23.306  0.1589  0.1376 -0.0503
67213W        W10266  34.586  30.194  15.634  0.1858 -0.3885 -0.1874
67214W        W10267  18.614  19.518  24.213  0.1074  0.0730  0.3096
67215W        W10268   9.980   2.044  20.961  0.0471  0.0019 -0.4248
67216W        W10269   5.440  25.417  24.641  0.1687 -0.2411  0.1510
67217W        W10270  11.714   8.774  22.315  0.0237  0.2455  0.2819
67218W        W10271  28.276  32.713  20.265  0.0627  0.0630 -0.1651
67219W        W10272  15.726  23.610   1.197 -0.0123 -0.0066  0.1342
67220W        W10273  16.315   8.458  29.159 -0.0721 -0.2351  0.0568
67221W        W10274  15.281  11.788  23.661  0.0159  0.0818 -0.0764
67222W        W10275   3.585   2.625  20.937 -0.1476  0.3364  0.1500
67223W        W10276  16.625  11.738   4.934  0.1673 -0.0289  0.0416
67224W        W10277  12.847   2.349   6.427 -0.0478 -0.0613  0.0638
67225W        W10278  17.533   4.177  22.680 -0.0388  0.0009  0.0191
67226W        W10279  15.089   3.311  25.775 -0.1056  0.0754 -0.2101
67227W        W10280  29.042  32.032  15.802 -0.1203 -0.0101  0.0692
67228W        W10281  15.238  29.305  13.702  0.0048  0.1347  0.0322
67229W        W10282  15.277   6.536  28.814 -0.1828 -0.0827  0.0619
67230W        W10283  12.814  33.989  18.576 -0.0383 -0.0588  0.1972
67231W        W10284  33.189   3.292   5.853  0.2275  0.0195  0.1852
67232W        W10285  19.550  34.489  17.247 -0.2971 -0.2847 -0.0083
67233W        W10286  24.403  32.464  18.066  0.1654  0.2703 -0.4214
67234W        W10287  12.629   2.410  21.005 -0.1309 -0.1044  0.0745
67235W        W10288  34.192  24.741  20.415 -0.2171 -0.0226  0.1889
67236W        W10289  16.333  26.408  22.348  0.1445 -0.2010  0.0721
67237W        W10290  14.437   0.338  16.131 -0.3872  0.1364 -0.2762
67238W        W10291  12.513  27.570   6.368  0.0546 -0.1636 -0.0662
67239W        W10292  11.124  26.106   2.530  0.3366  0.1742  0.2107
67240W        W10293   9.037   0.966   6.056 -0.1652  0.0064 -0.2291
67241W        W10294  28.036  16.778  15.619 -0.1843  0.0787 -0.0585
67242W        W10295  26.546  15.237  28.323  0.0669  0.1817 -0.0319
67243W        W10296   6.520  32.130  27.047  0.2805 -0.0014 -0.1923
67244W        W10297   6.716  22.294  24.558 -0.1820  0.0854 -0.2867
67245W        W10298  21.368  33.971  22.788 -0.2897  0.1845  0.0324
67246W        W10299  19.179   2.909  25.205 -0.1037  0.2618 -0.3091
67247W        W10300  17.314  34.561  22.282 -0.1027  0.1727  0.2596
67248W        W10301  21.393   0.929  21.815  0.3040  0.0133 -0.1531
67249W        W10302  22.732  32.217   3.913  0.2596 -0.2868  0.0713
67250W        W10303  22.110   8.816  23.547  0.1935  0.1191 -0.2281
67251W        W10304   7.322  29.588  15.941 -0.0365  0.3021  0.0151
67252W        W10305  25.178  20.504  14.622  0.1015 -0.0429  0.2416
67253W        W10306   9.711  34.366   7.091  0.1247  0.0777  0.1213
67254W        W10307  21.277   2.601  22.318 -0.2604  0.3397 -0.1519
67255W        W10308  29.581  31.285  20.697 -0.1542  0.0691  0.2798
67256W        W10309  16.091  30.384  23.172  0.1649  0.1509 -0.0475
67257W        W10310   8.359  19.996   4.537 -0.1951  0.1592  0.2990
67258W        W10311   8.271  16.548  20.836 -0.1852  0.1691  0.0660
67259W        W10312   9.962  32.544   9.047 -0.1525  0.3224  0.3294
67260W        W10313   5.952  24.018  14.448  0.1580  0.0652 -0.0358
67261W        W10314  24.351  25.047  26.015  0.2416  0.0156  0.0676
67262W        W10315  19.892  30.880  16.205 -0.0125 -0.1615  0.1695
67263W        W10316   8.982  24.958  28.518 -0.1356  0.0203 -0.2525
67264W        W10317   8.249   1.531   4.255 -0.0601  0.1143  0.0180
67265W        W10318  13.282  14.099   1.556 -0.1549 -0.0065 -0.2788
67266W        W10319   0.652   0.637  17.783  0.1608 -0.0873  0.1097
67267W        W10320   9.830  31.281  18.512 -0.0958 -0.0085 -0.1667
67268W        W10321  17.459  31.685   8.075 -0.4705  0.0960 -0.3849
67269W        W10322  26.598   6.454  24.742  0.0368 -0.1086 -0.1129
67270W        W10323  32.280   1.623  17.881  0.0641 -0.2154  0.3119
67271W        W10324  12.958   6.529   2.408  0.1753 -0.0839 -0.0551
67272W        W10325  13.037  28.339  18.233  0.1350 -0.2393  0.2902
67273W        W10326  10.125  15.956  25.621  0.3008 -0.4423  0.0531
67274W        W10327  15.820  28.771  18.622 -0.2552 -0.2604  0.0123
67275W        W10328   0.250  18.115  28.746 -0.3068  0.1550  0.1100
67276W        W10329  23.890  24.421  19.602  0.1305 -0.0090  0.0941
67277W        W10330  32.020   8.880  15.278  0.0236  0.0700 -0.1193
67278W        W10331  28.951  33.740  22.357  0.1084 -0.2892  0.0976
67279W        W10332  14.998   2.448  25.488  0.0838  0.1893  0.0693
67280W        W10333  26.446   9.561  19.835  0.1973 -0.1643  0.0351
67281W        W10334   0.730  22.175  28.678 -0.0499 -0.1274  0.2307
67282W        W10335   8.660  31.815   5.415 -0.2002  0.3500 -0.3580
67283W        W10336   2.813  28.007  20.698  0.4920 -0.0471  0.0905
67284W        W10337  29.622  28.673  18.407 -0.1529 -0.0923  0.1946
67285W        W10338   9.210  24.337  20.530 -0.0814  0.1795 -0.0036
67286W        W10339  30.487  29.390  17.306 -0.0409  0.3495  0.2747
67287W        W10340  11.741   0.711  17.384  0.2550 -0.1276 -0.0009
67288W        W10341  17.681   6.898  21.619  0.0549 -0.0864  0.1791
67289W        W10342  16.661  22.697  21.192  0.0720  0.1210  0.2126
67290W        W10343  29.208   3.205  23.229  0.1936 -0.0029 -0.2961
67291W        W10344   5.435  29.504  23.979  0.1224 -0.3243 -0.1591
67292W        W10345  10.907   1.402  26.236  0.1242  0.2678 -0.0716
67293W        W10346   3.732  16.348   3.768  0.3092  0.0207  0.2449
67294W        W10347   6.569  13.448  26.404  0.0027 -0.1147 -0.2038
67295W        W10348  13.148  32.310   7.729  0.0207 -0.1939 -0.2578
67296W        W10349  10.233  32.450   1.890  0.4435 -0.0004  0.0229
67297W        W10350  19.742  19.623   2.221  0.0712  0.1239  0.1904
67298W        W10351  20.689  24.962  19.269  0.0250 -0.1455  0.1226
67299W        W10352  14.683   0.395  16.935 -0.0549  0.1196  0.0608
67300W        W10353  15.385  22.531  24.478  0.1220 -0.1443 -0.3107
67301W        W10354  11.996  14.589  23.120  0.1022 -0.0801 -0.1000
67302W        W10355   6.504  22.712   1.005  0.1489  0.1206  0.0957
67303W        W10356   5.419   9.296  19.248 -0.3371 -0.0995  0.1242
67304W        W10357  13.856  10.058   4.683 -0.1885 -0.0631 -0.1035
67305W        W10358  22.053  28.232  21.017 -0.1336  0.0325  0.0974
67306W        W10359  10.316  27.167   6.418 -0.0074  0.1612  0.0651
67307W        W10360  12.356   5.644  18.868  0.0958  0.1574  0.0904
67308W        W10361   8.027  28.019  13.203 -0.3691 -0.1826  0.3201
67309W        W10362   5.520   0.437  23.693  0.1347  0.2338  0.1703
67310W        W10363   4.346  33.010  16.989  0.1592 -0.1943  0.5837
67311W        W10364   7.069  31.411   9.785 -0.2565  0.1394  0.0875
67312W        W10365   7.700  32.150   8.349 -0.1356  0.3137  0.0310
67313W        W10366  11.405  23.928   1.790  0.2895  0.2934 -0.0558
67314W        W10367   0.361  29.567  23.074  0.0243  0.1774  0.0218
67315W        W10368  24.087  25.697  24.103 -0.2890  0.2904  0.1911
67316W        W10369   9.889  26.894  22.663  0.1740 -0.0881 -0.0687
67317W        W10370  14.868  30.060   1.565 -0.0833 -0.1635 -0.0476
67318W        W10371  33.013   4.142  16.982  0.4857 -0.0299 -0.0136
67319W        W10372  12.835   0.788  14.153  0.1073  0.0154  0.1834
67320W        W10373  15.575  21.462   5.139  0.0006  0.0220 -0.1642
67321W        W10374   7.160  23.236   5.913 -0.1439  0.0170  0.2723
67322W        W10375  23.950   1.212   9.156 -0.3156 -0.0796  0.2457
67323W        W10376  14.816  22.214  16.035  0.1242 -0.0725  0.1888
67324W        W10377  16.048   4.277  20.694 -0.2048 -0.1430  0.2364
67325W        W10378   9.169  32.820   9.694 -0.0205  0.2910  0.3583
67326W        W10379  10.344  13.938  24.219 -0.2062 -0.0095 -0.1777
67327W        W10380   5.552   9.363  22.872  0.0530  0.2306  0.2760
67328W        W10381  30.912   2.874  20.679 -0.1566  0.1952  0.0126
67329W        W10382  25.880  33.793  16.762 -0.0251 -0.1382 -0.0015
67330W        W10383  13.496  33.025  15.437  0.1869 -0.0887  0.3017
67331W        W10384  19.305  20.084  27.831 -0.3343 -0.0800 -0.0429
67332W        W10385  13.420  28.555   8.107  0.0899 -0.1326 -0.1114
67333W        W10386   5.897   3.629   2.339 -0.1840  0.1711 -0.0450
67334W        W10387  12.142   1.269   1.314  0.0241 -0.2847  0.1462
67335W        W10388   6.533  33.032  23.828  0.1800  0.0494 -0.2900
67336W        W10389  20.519   2.898   7.488  0.1136 -0.0615 -0.2287
67337W        W10390  14.473  24.839  10.275 -0.0252  0.2211  0.1113
67338W        W10391  22.371   2.606  19.395 -0.0347 -0.0157 -0.0249
67339W        W10392   9.928  31.862   3.020  0.0370  0.0001  0.3224
67340W        W10393  32.768  34.015  27.113 -0.3597  0.0054 -0.1245
67341W        W10394  22.635  15.033   5.959  0.0768  0.1426  0.2475
67342W        W10395  10.458   7.422  17.683 -0.2278  0.2607 -0.1042
67343W        W10396   2.419   0.039  21.840 -0.1258 -0.0353  0.0517
67344W        W10397  30.685  27.375  17.186  0.1647  0.0681  0.1049
67345W        W10398  24.874  23.041   3.573 -0.3749 -0.1839 -0.1790
67346W        W10399  31.497   4.223  21.110 -0.1236 -0.0143  0.0067
67347W        W10400  30.217  14.194  19.660 -0.0550  0.0026  0.3295
67348W        W10401   6.246   9.002  21.628 -0.3715 -0.2838 -0.0550
67349W        W10402  10.501   9.000   1.434  0.1668  0.3027  0.1096
67350W        W10403  26.900   2.148   4.401  0.0124  0.0923  0.1292
67351W        W10404   4.767  31.416  21.156 -0.1543 -0.0145 -0.1636
67352W        W10405   9.243   0.022   5.760  0.1733  0.0348  0.3516
67353W        W10406  16.085  30.009   2.973 -0.0502  0.2292 -0.4696
67354W        W10407  18.814  11.772   8.104  0.1524  0.1031 -0.1984
67355W        W10408  33.616  14.194   5.546  0.0973 -0.0545  0.0828
67356W        W10409  11.388  26.598  24.921  0.1567  0.1199  0.0010
67357W        W10410  11.166  29.648  20.928 -0.1365  0.4002  0.1177
67358W        W10411   6.844  24.151  21.658 -0.2065 -0.0249 -0.1440
67359W        W10412  12.503  34.416   8.896 -0.3464 -0.1454  0.0194
67360W        W10413  17.339  28.784  21.827  0.2926 -0.2282 -0.1342
67361W        W10414   2.269  17.120  25.600  0.2103 -0.0086 -0.1299
67362W        W10415  14.312  14.721  23.538 -0.1343 -0.4115 -0.0759
67363W        W10416  11.052  26.387  18.670  0.2662 -0.0450  0.0525
67364W        W10417  21.261   2.741   4.480  0.0718  0.2106 -0.2633
67365W        W10418  21.454  30.687  16.061 -0.2630  0.0202 -0.0937
67366W        W10419  21.841  11.762  17.948  0.1146 -0.0453 -0.2001
67367W        W10420  18.624  24.662   9.227  0.0956 -0.0683  0.3208
67368W        W10421   6.784   7.716   6.115 -0.0712 -0.2400 -0.1017
67369W        W10422  28.888  12.382  26.829  0.0498  0.0264 -0.1086
67370W        W10423  21.022  28.716   4.414  0.1134 -0.3535  0.0354
67371W        W10424   9.262  17.343  24.913 -0.1112  0.1018  0.1250
67372W        W10425   8.095  27.288  13.534  0.2850  0.0403  0.2272
67373W        W10426   2.490   2.171  25.539 -0.0530 -0.1808 -0.1565
67374W        W10427   6.109  26.023  19.071  0.2215 -0.0754 -0.0569
67375W        W10428  18.205  27.737  23.032 -0.0317  0.1296 -0.0337
67376W        W10429  14.353   0.705  21.816 -0.1623 -0.0321 -0.2068
67377W        W10430  21.721  10.869  27.703  0.1025 -0.0221  0.2249
67378W        W10431  28.287  32.131  13.552  0.0162 -0.0002 -0.1468
67379W        W10432   4.300  31.434   3.920 -0.0616 -0.0774  0.1444
67380W        W10433  19.387  25.579  28.637  0.0769 -0.1774  0.0003
67381W        W10434   6.550  10.766  23.608  0.1757  0.0029  0.1515
67382W        W10435  16.582  20.244   0.753  0.2376  0.1611 -0.0184
67383W        W10436  26.138  17.581  21.608 -0.1671 -0.1640  0.1573
67384W        W10437  17.403  24.707  24.452 -0.1534 -0.1789 -0.1287
67385W        W10438  23.378  29.771  21.430 -0.2085  0.2954 -0.3357
67386W        W10439  17.987   2.616  17.210 -0.1088 -0.4453 -0.0213
67387W        W10440  12.483  28.477  26.034  0.4562  0.0582 -0.1552
67388W        W10441  10.728  21.665   0.772  0.1236 -0.0047  0.0710
67389W        W10442   8.691   8.795  10.276  0.1037 -0.2510 -0.1131
67390W        W10443  11.287  19.736   7.608  0.1505  0.2245 -0.1730
67391W        W10444  16.488  11.494  20.494  0.4065  0.1766  0.2088
67392W        W10445   1.768  18.857  19.649 -0.2958  0.0748  0.2204
67393W        W10446   4.256   8.989   1.156 -0.0816  0.3650 -0.2741
67394W        W10447  12.597  20.685  27.570  0.1723  0.0472  0.0161
67395W        W10448  22.759  21.503  19.943 -0.4902 -0.0046 -0.0646
67396W        W10449  33.545  30.185   2.941  0.0066 -0.0227 -0.0735
67397W        W10450   6.360  27.140  24.709 -0.0284 -0.0184  0.1122
67398W        W10451   4.302  26.631   3.106 -0.0982 -0.2557 -0.0042
67399W        W10452  19.769  16.225  14.819 -0.1178  0.2161 -0.0363
67400W        W10453  17.544  14.535   6.527 -0.0635  0.1961 -0.2172
67401W        W10454  31.978   9.794  22.622 -0.2422  0.2129  0.0058
67402W        W10455  23.950  26.044   2.201 -0.0718 -0.0438  0.3843
67403W        W10456  14.938  30.883  19.815 -0.0985  0.0195  0.3267
67404W        W10457   1.712  19.415   7.613  0.1090  0.0514  0.2463
67405W        W10458  19.810  17.872  21.920  0.1895  0.1706  0.1120
67406W        W10459  19.307   1.871   1.191  0.2238  0.1760 -0.2719
67407W        W10460  22.555  28.464  10.445  0.2578 -0.1870 -0.2830
67408W        W10461  14.210  12.807  21.961 -0.3324  0.3697  0.3168
67409W        W10462   3.966  22.265  29.186 -0.0453 -0.2478  0.0906
67410W        W10463  17.778  32.173  28.132 -0.1682 -0.2058  0.1061
67411W        W10464  20.519  22.886   2.177  0.0201 -0.0832  0.2061
67412W        W10465  12.679  32.123   7.538 -0.2630 -0.0731  0.2849
67413W        W10466   9.922  23.480   9.893 -0.1133  0.0346  0.0701
67414W        W10467   0.739  32.098   0.122  0.0600  0.1674  0.3026
67415W        W10468  17.609  29.090  23.956 -0.2149 -0.6379 -0.0122
67416W        W10469  25.853   3.233  28.733  0.0104  0.0162 -0.1985
67417W        W10470  18.920  30.425  17.205 -0.2901 -0.3275  0.1846
67418W        W10471  12.522   9.363  24.974  0.1081  0.2029  0.2672
67419W        W10472  25.653  34.293  16.612 -0.3228  0.1927 -0.0453
67420W        W10473   6.720  31.287  21.887 -0.1157 -0.0553  0.1514
67421W        W10474  13.877  23.178  25.169 -0.0128  0.2509 -0.1597
67422W        W10475  18.745  31.336  23.194  0.1785 -0.0907 -0.1312
67423W        W10476  26.050  16.518   5.449 -0.0068  0.2173 -0.1319
67424W        W10477  10.536   9.180   5.640 -0.0177  0.3473  0.0262
67425W        W10478  11.234  14.595  23.625 -0.0418  0.0328 -0.1611
67426W        W10479  28.420   1.160  21.009 -0.0208  0.1145  0.2987
67427W        W10480  11.427   0.261  24.776  0.2333  0.3585  0.0938
67428W        W10481  11.417   1.401  20.270 -0.0357  0.0667 -0.3274
67429W        W10482  17.992   3.843   4.588 -0.1837  0.4063 -0.0057
67430W        W10483  23.934  20.935  16.489 -0.1382 -0.2776 -0.0244
67431W        W10484   4.592   7.930  17.927  0.0179  0.2700  0.0549
67432W        W10485  17.384   6.030   9.812  0.1618  0.1673 -0.2483
67433W        W10486  14.887  32.556   5.723 -0.0627  0.0091 -0.1975
67434W        W10487   5.182  29.350  24.802 -0.1722  0.1630  0.0735
67435W        W10488  13.074  32.344   4.939 -0.1093 -0.3257  0.0462
67436W        W10489  21.746   6.074  25.227  0.1160  0.0020 -0.1872
67437W        W10490  31.680  24.282  22.685  0.2029 -0.1009 -0.1545
67438W        W10491  11.003  32.398  20.716 -0.1015  0.1209  0.2383
67439W        W10492  27.657  28.070  19.793 -0.0731  0.2724  0.0743
67440W        W10493   1.502  33.866  22.272  0.0213  0.3600  0.0139
67441W        W10494  22.123  31.490   3.195 -0.0640  0.1923 -0.0221
67442W        W10495  10.753   1.279  21.225 -0.1462 -0.0030  0.0939
67443W        W10496  25.778  29.801  19.229  0.1065 -0.1939 -0.2024
67444W        W10497  13.358  28.626  15.838 -0.1385  0.0653 -0.0098
67445W        W10498  24.769   0.286  17.931  0.0326  0.3060 -0.0277
67446W        W10499   3.348  33.398   1.447  0.0018 -0.0326  0.2866
67447W        W10500   5.829  27.532  21.862  0.0084  0.0133  0.2305
67448W        W10501   4.587  16.091   6.255  0.2342 -0.1008 -0.2820
67449W        W10502  29.640   9.925   5.383  0.0391 -0.1378 -0.0577
67450W        W10503  29.925  26.129  22.667  0.2304 -0.0369 -0.0002
67451W        W10504   8.611  27.297   8.465 -0.2195 -0.0003  0.0285
67452W        W10505  22.065  18.528  26.070  0.0664  0.0607  0.0317
67453W        W10506  34.128   4.217  24.325 -0.1463  0.4756  0.0747
67454W        W10507  30.706  29.107  23.230  0.0375 -0.1181 -0.2940
67455W        W10508  20.690   1.864  26.104 -0.2350 -0.1280 -0.2410
67456W        W10509   8.712  25.250  24.716  0.1336  0.1199  0.2349
67457W        W10510  34.196  34.422   7.460  0.1409 -0.1346 -0.0762
67458W        W10511  18.383  20.972  15.233 -0.0927  0.2056  0.1744
67459W        W10512   7.083  27.563  21.267  0.4800 -0.4919  0.4339
67460W        W10513   5.765  11.832   1.776  0.2876  0.0339 -0.0799
67461W        W10514  24.481  24.486   3.291 -0.1116 -0.1399 -0.0992
67462W        W10515   9.534  19.478  18.403  0.2051  0.0118 -0.0743
67463W        W10516  10.670  29.421   5.800 -0.1363  0.0639  0.0563
67464W        W10517  20.224   3.186  21.490  0.0638  0.0018 -0.3816
67465W        W10518   4.016  13.912  26.928  0.4076  0.2399 -0.1245
67466W        W10519  14.669  12.967  15.473  0.3444 -0.2337  0.0120
67467W        W10520  20.728  20.249  17.822  0.0021  0.0376  0.1854
67468W        W10521  14.002   5.354  22.610  0.3507 -0.0472 -0.0143
67469W        W10522   9.643  26.162   0.571  0.3681 -0.0362 -0.2214
67470W        W10523  16.948   1.467   9.511 -0.1738 -0.2386 -0.2702
67471W        W10524   5.792   9.760  28.022 -0.1812 -0.1264 -0.1739
67472W        W10525  15.414  24.037   3.671  0.1987 -0.3121  0.1518
67473W        W10526  15.377  24.662  14.879 -0.0064  0.0443 -0.0155
67474W        W10527  19.787  12.438  19.049 -0.2527  0.0682 -0.1804
67475W        W10528   9.474  21.763  14.587  0.2679  0.1941  0.0747
67476W        W10529  10.950  34.178   1.159  0.1053 -0.0503 -0.2679
67477W        W10530  24.006   2.010  15.258  0.2703  0.1844  0.0997
67478W        W10531   3.598  31.663  28.624  0.0199  0.2055  0.0450
67479W        W10532  12.915  14.833  23.703  0.2427 -0.1377  0.0353
67480W        W10533  10.712  32.377  22.167 -0.0903 -0.0740  0.2471
67481W        W10534   0.659   6.339  16.446 -0.4462  0.0717 -0.3059
67482W        W10535   2.465  25.652   1.700 -0.0124 -0.1908  0.1896
67483W        W10536  19.568  28.280  27.597  0.0009  0.0489  0.1590
67484W        W10537  18.921  20.873  22.115 -0.2850  0.2333 -0.1736
67485W        W10538  33.848  32.693  14.149 -0.0219  0.1423 -0.1764
67486W        W10539   7.992  27.379   0.917 -0.1048 -0.1251  0.1729
67487W        W10540  10.750  30.120  17.202 -0.2522 -0.2002  0.1255
67488W        W10541  15.850  26.384  18.589  0.0951 -0.1111  0.2105
67489W        W10542   5.036   4.997   0.369  0.1817 -0.0078  0.3575
67490W        W10543  20.685  27.340  22.796 -0.2133  0.0562 -0.0987
67491W        W10544  15.244  10.941  23.171  0.0460  0.0556 -0.1256
67492W        W10545  30.948   1.930  27.932 -0.0367 -0.0483  0.0039
67493W        W10546  21.200   2.155  24.379 -0.1608  0.1983 -0.0148
67494W        W10547  15.542  30.539  28.409 -0.0004  0.1958 -0.0474
67495W        W10548   9.999   4.132  28.425  0.1695  0.1469 -0.1168
67496W        W10549  19.144   3.966  27.117  0.2700 -0.1376  0.1096
67497W        W10550  19.442  29.062  14.252  0.3819  0.3485 -0.1021
67498W        W10551  16.673  26.878  14.682  0.0341 -0.0458 -0.0283
67499W        W10552  26.993  14.501  21.133  0.0547  0.2934 -0.1441
67500W        W10553  32.094   4.846  25.305 -0.0710  0.2299  0.0259
67501W        W10554   6.433  20.463  19.444  0.1256  0.2940 -0.2209
67502W        W10555  21.282   5.092  26.285 -0.1398 -0.1186  0.0297
67503W        W10556  12.758   1.004  28.805  0.2552  0.0720  0.0137
67504W        W10557   2.482  13.244  23.181 -0.1413 -0.4223 -0.0884
67505W        W10558  17.184   7.705   9.131 -0.1136  0.0559 -0.0930
67506W        W10559  18.109  28.642  20.219  0.1927 -0.2376 -0.1224
67507W        W10560  23.615   0.975   7.009  0.1847 -0.1032  0.0418
67508W        W10561   5.384   0.703  22.658 -0.1364  0.0288 -0.0062
67509W        W10562  21.679   2.807  27.846  0.0521 -0.0839 -0.1919
67510W        W10563   1.530   6.976  14.692  0.1435  0.0131  0.1509
67511W        W10564  20.493  11.170   3.248 -0.0648 -0.1437 -0.1411
67512W        W10565   9.189  28.134  17.454  0.0560  0.0472 -0.2982
67513W        W10566  25.302  29.922  24.731 -0.0309  0.1699 -0.0188
67514W        W10567   0.531  27.942  24.775  0.3180  0.0705  0.0083
67515W        W10568  27.396  21.731   5.244  0.4310  0.0192  0.1037
67516W        W10569  29.713  30.925   6.376  0.0147  0.1092 -0.0581
67517W        W10570  16.450  27.160   3.136 -0.0095 -0.0388  0.1630
67518W        W10571  33.076   9.682   4.580 -0.0935  0.2795  0.0356
67519W        W10572   7.831   2.564   2.228  0.2587  0.2099  0.2976
67520W        W10573  15.811  20.061  23.047 -0.0044 -0.5025 -0.0538
67521W        W10574  16.334   5.733  28.879 -0.0677  0.1889  0.1626
67522W        W10575   5.994   7.783   3.349 -0.3675 -0.0272 -0.0749
67523W        W10576   3.160   5.734  26.996  0.1428  0.0906  0.2066
67524W        W10577  15.565   0.360  26.224 -0.1314  0.1104  0.3683
67525W        W10578  10.869  22.434   6.437  0.0372  0.2277 -0.1030
67526W        W10579   3.219  28.111  25.890 -0.0471  0.2416  0.1272
67527W        W10580  17.829  23.310   0.645  0.1274  0.1806  0.2046
67528W        W10581   4.781  26.617  16.891  0.0476 -0.0207 -0.1062
67529W        W10582  21.324  34.013   1.383  0.0582  0.1642 -0.1236
67530W        W10583  12.795  11.777   5.156  0.1585  0.2470  0.2395
67531W        W10584  22.869   6.090   6.009 -0.1198 -0.2048  0.3248
67532W        W10585  13.532  23.482   7.765 -0.3905 -0.3528  0.3632
67533W        W10586  24.177  22.206  28.896 -0.2035 -0.0068 -0.2733
67534W        W10587  13.338  28.923  25.026  0.0499  0.0969  0.0227
67535W        W10588  17.379  25.562  27.436  0.0324 -0.2774 -0.0463
67536W        W10589  25.762   2.558  14.341 -0.0477  0.0750  0.1401
67537W        W10590   4.196  21.627  28.937  0.1541  0.0300  0.2466
67538W        W10591  15.373  29.936  16.080 -0.4522  0.1360  0.0177
67539W        W10592  16.649   4.224  18.547  0.0257  0.0618 -0.0441
67540W        W10593  12.703  27.175  25.153 -0.1387 -0.3493 -0.0731
67541W        W10594  19.324   0.457  19.934  0.1325  0.0250 -0.0537
67542W        W10595  12.640  18.120  20.152  0.0534 -0.2426 -0.5456
67543W        W10596  19.897  14.331   7.444  0.0179 -0.0084 -0.2557
67544W        W10597  18.462  26.581  15.024  0.1201 -0.1323  0.0939
67545W        W10598   0.682   8.314  18.407 -0.0600  0.2237  0.0114
67546W        W10599   1.377  30.041  18.704  0.0483 -0.1219 -0.6141
67547W        W10600  19.931   1.017   0.035  0.0924  0.0416  0.0875
67548W        W10601   8.455  30.017  16.262 -0.0804 -0.3046  0.0171
67549W        W10602  27.107  32.631  20.979  0.0206 -0.0156  0.0727
67550W        W10603   7.660  25.114  23.251 -0.0317  0.0645  0.1163
67551W        W10604  11.720  34.620  21.489  0.1702  0.1503 -0.1142
67552W        W10605   1.242   5.443   8.196 -0.0307 -0.0312  0.0771
67553W        W10606   4.202   8.334  15.219 -0.2376 -0.0811 -0.0064
67554W        W10607  12.610   6.523  19.521  0.0136  0.2731 -0.3927
67555W        W10608   5.733   7.288  23.465  0.1064 -0.1645  0.1561
67556W        W10609  24.596  10.027  14.943  0.0080 -0.1235 -0.0319
67557W        W10610   4.049   3.753  16.836  0.1257 -0.2782 -0.0628
67558W        W10611  30.058  33.886  26.650 -0.1132  0.1125 -0.3010
67559W        W10612  12.440  13.122  20.902  0.0600 -0.2754  0.2587
67560W        W10613  27.999  22.663  16.535 -0.1644  0.0057 -0.0347
67561W        W10614  11.510  31.428  15.200 -0.2211 -0.2498  0.1816
67562W        W10615  28.345   3.950   0.265 -0.2409 -0.0203  0.0272
67563W        W10616  12.967   9.789  17.312 -0.0183  0.1332 -0.0310
67564W        W10617  17.597  25.161  14.635 -0.5129 -0.0431  0.2821
67565W        W10618  19.576  33.840  14.423 -0.0664 -0.1700  0.1616
67566W        W10619   6.082   1.678  20.602  0.1221  0.0671  0.1248
67567W        W10620  25.083  33.148  15.021 -0.0476 -0.0964 -0.0253
67568W        W10621  11.499  10.957  25.982 -0.0403  0.0365  0.3898
67569W        W10622  34.012   1.803  25.051  0.1852 -0.1759 -0.2313
67570W        W10623  29.190   4.882   1.115  0.2710  0.1711 -0.1684
67571W        W10624   7.609  15.091  18.421 -0.2734 -0.0868 -0.2374
67572W        W10625  11.918  18.838  22.391  0.6723  0.2682  0.0649
67573W        W10626   1.478   7.900  16.477  0.1442  0.1378 -0.1913
67574W        W10627  21.493  30.568  27.792 -0.3146 -0.1356  0.3181
67575W        W10628  16.257   3.572  28.179 -0.1987  0.3510 -0.1074
67576W        W10629  32.832  34.079  13.673  0.1330  0.1247 -0.2511
67577W        W10630  20.601  13.034  24.919  0.0617 -0.0259  0.0907
67578W        W10631   4.102  20.553  16.148 -0.2277 -0.1586 -0.2545
67579W        W10632  33.927  25.061  16.954  0.2025  0.0331  0.0348
67580W        W10633  10.169  20.748  19.320  0.1406  0.1203 -0.0890
67581W        W10634  15.642  31.045  13.832  0.0320 -0.1395 -0.0061
67582W        W10635   7.650  10.119  18.221 -0.3678  0.1693  0.1995
67583W        W10636  23.482  14.492  16.370  0.1014  0.0601 -0.1019
67584W        W10637  24.227   0.198  14.112  0.0050  0.1221 -0.0576
67585W        W10638  21.583   1.571  22.303 -0.1091 -0.1883  0.3180
67586W        W10639   4.016  18.051  20.902 -0.3648  0.2700 -0.1259
67587W        W10640  13.621   6.521  17.170 -0.1493 -0.1306 -0.1633
67588W        W10641  15.983  10.565  17.822  0.0424  0.3160 -0.0636
67589W        W10642  17.259  30.868  15.477  0.1357 -0.2212 -0.0454
67590W        W10643   7.843   8.324  26.581 -0.1445  0.0209  0.1398
67591W        W10644  17.543  15.915   9.173  0.0520 -0.1832 -0.0740
67592W        W10645  18.935   7.673  22.680 -0.0112  0.2268 -0.0401
67593W        W10646  24.980  30.803  21.810  0.0174  0.1144  0.2161
67594W        W10647   2.019  27.819  14.008  0.0717  0.3851 -0.2160
67595W        W10648  19.800   7.331  20.595  0.0724  0.1016  0.1621
67596W        W10649  13.656   9.341  28.519 -0.1906 -0.3255  0.0475
67597W        W10650  19.861  17.465   9.826  0.3811  0.3052  0.2044
67598W        W10651  26.253  31.232  18.526  0.1532  0.1981 -0.1550
67599W        W10652  10.357  20.867  22.463  0.2222 -0.0960  0.0296
67600W        W10653  19.316   9.826  20.374  0.1315  0.0040  0.0532
67601W        W10654   7.233  31.287  13.829 -0.1926  0.2282 -0.2272
67602W        W10655  25.051   6.403  15.074 -0.2754  0.0712  0.1079
67603W        W10656  15.151  11.441  23.261  0.0201 -0.4224 -0.0109
67604W        W10657   8.401  29.017  18.499 -0.0556 -0.2540  0.1995
67605W        W10658  11.086  24.021   5.307 -0.1120 -0.3622  0.0149
67606W        W10659  31.307   3.737  16.301  0.0439 -0.0134 -0.0904
67607W        W10660   6.325   4.746  20.945 -0.0702 -0.2153  0.1387
67608W        W10661  22.451  17.934  23.429  0.0100 -0.1856 -0.0731
67609W        W10662  29.138  32.343  21.505 -0.0265  0.0559 -0.1046
67610W        W10663   4.510   9.661  29.195 -0.0810  0.1185  0.0185
67611W        W10664  32.585   2.866  17.482 -0.0131  0.1239  0.1507
67612W        W10665  22.349  33.859  22.714 -0.0797 -0.0438  0.2059
67613W        W10666  20.433  31.505   0.492 -0.0062 -0.0571  0.1298
67614W        W10667  24.310  34.649  27.369 -0.2149 -0.2391  0.0635
67615W        W10668  21.286   7.270  14.761 -0.0800 -0.0952 -0.1494
67616W        W10669  17.153  29.684  20.643 -0.1199  0.2267  0.2109
67617W        W10670   2.329  25.170  17.102 -0.1384  0.0059  0.3156
67618W        W10671  15.205   5.162  25.017  0.1486  0.2985 -0.1326
67619W        W10672  16.566  31.110  21.996 -0.1387 -0.0064 -0.0441
67620W        W10673  23.393  30.566  20.432 -0.0571  0.2122  0.1927
67621W        W10674  12.522   4.449  23.288  0.2032 -0.1683  0.0238
67622W        W10675  15.356  31.529  17.262 -0.2369 -0.2595 -0.0426
67623W        W10676  15.130  10.992  21.377 -0.0909 -0.2160  0.0844
67624W        W10677   8.989  10.080  18.030  0.1740  0.0373  0.1285
67625W        W10678  19.783   1.801  27.497  0.1403  0.0703 -0.3405
67626W        W10679  19.109   9.234  25.396 -0.0186 -0.1281  0.1066
67627W        W10680  24.610   2.169  21.885  0.0117 -0.3050 -0.1435
67628W        W10681  31.371  14.019   4.821  0.4145 -0.0144  0.2357
67629W        W10682  32.574   2.906  17.979  0.1252 -0.0871 -0.1431
67630W        W10683   3.267  30.707  22.645 -0.1417  0.1825 -0.5327
67631W        W10684  23.155  26.350  18.085  0.0199  0.2062  0.0857
67632W        W10685  11.240  18.216  17.851 -0.2725  0.0648  0.1269
67633W        W10686  13.445  30.759   0.655  0.2690 -0.1330  0.0987
67634W        W10687  19.579   6.336  28.733  0.0362 -0.1340 -0.1046
67635W        W10688  24.361  15.541  23.692 -0.0766  0.0298 -0.2391
67636W        W10689  18.882  27.808  23.510 -0.2752  0.0961  0.1268
67637W        W10690  21.216   1.669  15.802 -0.1574  0.0957 -0.0540
67638W        W10691  20.420  27.410  22.092  0.1525  0.2998  0.0153
67639W        W10692  23.322  15.597   7.253  0.1930 -0.1151 -0.2810
67640W        W10693  13.171   7.438  15.182 -0.1439  0.3465  0.0639
67641W        W10694  23.985   1.184  16.337  0.0413 -0.1563  0.1302
67642W        W10695   5.018  14.434  14.363 -0.1592 -0.4351 -0.0141
67643W        W10696   7.897   1.760   9.813 -0.0531  0.1503  0.1317
67644W        W10697  12.881  10.605  19.941 -0.0259 -0.0887 -0.0727
67645W        W10698  18.116  34.634   7.924  0.0576  0.2797  0.1361
67646W        W10699   9.419  29.566  25.328  0.2030  0.1140  0.0351
67647W        W10700  11.629  10.930  20.202  0.0831 -0.1399  0.1790
67648W        W10701   1.006   4.357  18.370 -0.2205 -0.3195 -0.1644
67649W        W10702   9.632  34.113  20.459 -0.0469  0.0244 -0.0119
67650W        W10703  17.555  30.827  15.015 -0.0488  0.0811 -0.1346
67651W        W10704   7.284   5.116   0.496  0.3211 -0.0381  0.2466
67652W        W10705   0.556   6.235  20.853 -0.2601 -0.0836  0.0902
67653W        W10706  11.961  32.720  18.140 -0.1242 -0.1473  0.3440
67654W        W10707   6.232  29.651   1.263  0.2139  0.0934  0.2422
67655W        W10708  15.610  26.279  19.386  0.1849  0.0468  0.0658
67656W        W10709  10.739  12.296  21.722  0.2292  0.1553 -0.0728
67657W        W10710  24.103  27.532  23.124  0.1371  0.1605  0.0545
67658W        W10711  23.979  28.393   9.778 -0.2201 -0.0165  0.1984
67659W        W10712   1.420  13.121  21.909  0.0251  0.1623 -0.0988
67660W        W10713  22.754   3.073   9.586  0.0981  0.0778  0.1121
67661W        W10714   2.812   1.571  22.545  0.0255  0.3671 -0.1883
67662W        W10715  16.455  16.635  14.607  0.0966 -0.0194  0.0933
67663W        W10716  15.444  24.376  15.322  0.1103 -0.2695 -0.1839
67664W        W10717  15.663  24.125  20.385 -0.2146 -0.0315 -0.1214
67665W        W10718  14.559  27.748  25.737  0.1436 -0.0736 -0.0860
67666W        W10719  21.234  28.101  19.608 -0.0025 -0.2092 -0.0654
67667W        W10720  26.131   8.539  18.172  0.2828 -0.0502 -0.1164
67668W        W10721   7.858  21.198  22.896 -0.0931  0.1621  0.1021
67669W        W10722  16.034  22.058  15.453  0.2444  0.3981 -0.3046
67670W        W10723  18.332   8.123  19.959  0.0586 -0.1690  0.3805
67671W        W10724  21.184  16.564  24.419  0.2878  0.2663 -0.0372
67672W        W10725  14.150   0.938  19.913  0.0042  0.0205  0.1074
67673W        W10726  11.003  18.357  24.432  0.0510  0.0110  0.3025
67674W        W10727  16.836   7.864  20.283  0.0413 -0.0845 -0.0265
67675W        W10728  10.752   3.401  21.971  0.2686 -0.0158 -0.1729
67676W        W10729  22.342  12.761  14.457 -0.0213 -0.2840  0.0631
67677W        W10730  18.935   7.864  24.971 -0.1488 -0.0203 -0.1692
67678W        W10731  25.562  12.655   7.499 -0.0373  0.1734 -0.2966
67679W        W10732   6.024  29.193  22.820  0.4362 -0.3672  0.3619
67680W        W10733  27.301  32.306  13.776  0.0001  0.3054 -0.3036
67681W        W10734   1.382  18.055  14.130 -0.1636 -0.0034  0.0819
67682W        W10735  10.114   2.054  15.773  0.0572  0.2190 -0.0623
67683W        W10736  31.441  31.691  14.701  0.1371 -0.0318  0.0650
67684W        W10737  26.396   6.446  23.328  0.1014  0.0529 -0.2315
67685W        W10738  15.845  18.696   1.091  0.1718  0.0950  0.5298
67686W        W10739  28.513   0.157  17.967  0.1989  0.0079 -0.1712
67687W        W10740   2.653  24.893  22.673 -0.1810 -0.4195 -0.1668
67688W        W10741   6.684  11.251  15.021 -0.0761  0.1148  0.1821
67689W        W10742   7.771   2.340  14.362 -0.2209 -0.1840  0.3234
67690W        W10743  11.728   5.990  14.825 -0.2640 -0.1331 -0.2171
67691W        W10744  22.819  33.866  17.218  0.0474  0.0794 -0.0148
67692W        W10745  11.025  33.515   4.592  0.0228 -0.2114  0.1504
67693W        W10746  19.960   2.584   4.148  0.2194 -0.0640  0.2936
67694W        W10747   0.150   6.855  25.438  0.2899 -0.1962  0.1802
67695W        W10748  24.075   3.275  21.933  0.1898 -0.0999 -0.1055
67696W        W10749  11.036  29.541  16.552 -0.2558 -0.5299  0.1962
67697W        W10750  14.957  32.194   7.171  0.0249  0.1894 -0.0233
67698W        W10751  11.820   3.704  18.292 -0.0309 -0.1801  0.1386
67699W        W10752  16.208   2.166  16.172 -0.0590  0.0390  0.0809
67700W        W10753  34.082  10.981  26.711 -0.1238  0.1072  0.0866
67701W        W10754   7.484  10.891  15.091  0.0820  0.0518  0.0255
67702W        W10755  12.595  15.830  25.154 -0.1369  0.0878 -0.1420
67703W        W10756  22.337  34.084  17.147 -0.0897 -0.0250 -0.0609
67704W        W10757  29.967  31.569  14.799 -0.2119 -0.0897  0.0858
67705W        W10758  15.861  31.160  22.589 -0.2551 -0.2481  0.3159
67706W        W10759   0.175  11.553   0.245 -0.0614 -0.0204  0.1877
67707W        W10760  20.796  25.575  19.530  0.0441 -0.0062 -0.2503
67708W        W10761   9.159   0.879  20.783 -0.2157 -0.2052  0.3194
67709W        W10762  22.539   1.333  21.131  0.1601  0.1486  0.1552
67710W        W10763   6.873   3.107   9.150 -0.0757 -0.0109  0.1042
67711W        W10764  18.150   6.897  21.308 -0.2059  0.0237 -0.2472
67712W        W10765   2.914  24.974  24.865  0.2170  0.1057 -0.1939
67713W        W10766  23.748  14.565  15.811  0.1530 -0.3408  0.0654
67714W        W10767  29.318  22.028  15.648 -0.0530 -0.0119 -0.2299
67715W        W10768   2.934   2.522  16.314  0.0944  0.1010 -0.0811
67716W        W10769  32.966  29.801  17.951 -0.3476 -0.1801  0.0836
67717W        W10770   7.088  16.604  23.102 -0.1839 -0.0107 -0.2326
67718W        W10771   7.235   2.008  14.742 -0.1395 -0.0814 -0.2621
67719W        W10772  11.113  30.299   8.988 -0.1551 -0.1821 -0.0585
67720W        W10773  17.193  10.224  25.571 -0.2695 -0.0202 -0.2262
67721W        W10774  19.940   0.524  21.021  0.0357  0.1037 -0.1201
67722W        W10775  20.804   3.120  26.940 -0.1148  0.2732  0.2854
67723W        W10776   8.190   3.689  18.680  0.0181  0.2404  0.1151
67724W        W10777  21.900   1.505  23.333  0.2340  0.0857  0.1014
67725W        W10778   7.944  24.135   0.681  0.3848  0.2128  0.2714
67726W        W10779   3.836   6.650  15.039 -0.1664  0.0287  0.2681
67727W        W10780  11.203  33.588  17.838  0.0743 -0.1344  0.2345
67728W        W10781   9.154  31.270  20.808  0.0023 -0.2791 -0.4367
67729W        W10782  17.703  28.630  17.317 -0.0064  0.0555 -0.1463
67730W        W10783   8.436   4.673  17.698 -0.0290  0.1058 -0.3341
67731W        W10784  22.275  31.942  27.904 -0.0414  0.0265  0.1233
67732W        W10785  24.724  31.694  23.504  0.0878  0.2460  0.2668
67733W        W10786   2.898  11.597  15.321  0.1641  0.1777  0.2886
67734W        W10787   4.813  16.228  20.278  0.0989  0.1631 -0.0146
67735W        W10788  25.276  28.648  15.353  0.0973 -0.0507 -0.1307
67736W        W10789  11.715  15.881  21.641 -0.1780 -0.1057  0.0023
67737W        W10790  17.239   5.249  18.087  0.0879 -0.1303 -0.1098
67738W        W10791  16.520  29.269  20.749 -0.0931 -0.2206  0.0481
67739W        W10792   6.181   4.182  19.860  0.0205  0.2305  0.1259
67740W        W10793  27.439   7.547  15.394 -0.4806  0.2679  0.1093
67741W        W10794   9.646  10.998  15.326 -0.2433  0.0513 -0.0216
67742W        W10795  11.395   4.623  19.872 -0.1337 -0.0229  0.0932
67743W        W10796  13.840  30.611  14.965 -0.0536 -0.0734 -0.0253
67744W        W10797  21.650   2.581  17.099  0.0000  0.1613 -0.0284
67745W        W10798  13.644   5.910  19.398  0.1666  0.0576  0.0787
67746W        W10799  20.641  30.653  14.878  0.1397 -0.3011  0.0320
67747W        W10800  16.245  26.850  15.895 -0.1689 -0.1566  0.1138
67748W        W10801  18.336  32.221  15.765 -0.2208 -0.1895  0.1420
67749W        W10802  25.192  19.068  17.371  0.0623  0.1249  0.2766
67750W        W10803   4.650  34.110  23.508  0.2368 -0.0675  0.0235
67751W        W10804  27.458  31.144  28.287  0.0784 -0.2309 -0.2347
67752W        W10805  11.689  21.568  17.506 -0.1521 -0.0763 -0.1521
67753W        W10806  16.753   6.694  21.389 -0.2014 -0.1551 -0.0514
67754W        W10807  13.759  30.169  20.364  0.2780  0.1610  0.3616
67755W        W10808  20.160   3.970  14.247 -0.1023  0.2138 -0.1763
67756W        W10809  10.813  15.494  18.363 -0.1423  0.1010 -0.2005
67757W        W10810  23.914  24.182  15.465  0.3000 -0.1811 -0.1231
67758W        W10811  15.806   0.629  26.989 -0.2015 -0.2823  0.2516
67759W        W10812  17.126   3.737  22.843  0.2007 -0.1295 -0.1368
67760W        W10813  10.623  34.365  26.853 -0.0198 -0.2905  0.2880
67761W        W10814  10.795  22.679  15.779 -0.0115 -0.0416 -0.1061
67762W        W10815  14.326  26.636  13.091 -0.3874 -0.0935 -0.1700
67763W        W10816   9.968   8.469  16.323  0.2173 -0.2072 -0.3149
67764W        W10817   6.336   0.917  26.733  0.0566  0.0779  0.1247
67765W        W10818   7.962  32.637  15.207  0.0108  0.2043  0.1385
67766W        W10819  22.402   6.308  24.473 -0.2157 -0.3074 -0.2334
67767W        W10820   9.967  19.625  25.930 -0.0134 -0.1303  0.0441
67768W        W10821  19.348  27.830   0.170 -0.0391 -0.0719  0.0962
67769W        W10822   0.581  32.221  13.864  0.0696  0.0548 -0.2064
67770W        W10823   6.314  11.962   3.772 -0.1807 -0.1177 -0.0909
67771W        W10824  30.460  23.435  23.043 -0.0830 -0.0406  0.3119
67772W        W10825  19.254   3.837  15.620 -0.2130  0.2495  0.1098
67773W        W10826  10.395  10.033  16.451  0.0434 -0.0445  0.0636
67774W        W10827  20.194  30.451  21.789  0.0627  0.5773 -0.0601
67775W        W10828  10.081  30.714  17.760  0.0269 -0.1176 -0.5127
67776W        W10829  21.842   2.027  22.127  0.3218  0.1771  0.0481
67777W        W10830   4.817  34.370  15.763  0.0394 -0.1637 -0.1171
67778W        W10831   3.493   4.279  23.042 -0.3883  0.0888  0.1355
67779W        W10832  15.540   7.277  18.646  0.1125  0.1055 -0.0164
67780W        W10833  21.227   1.573  23.224  0.0915  0.1326 -0.0575
67781W        W10834   0.555  27.130  19.155 -0.0905 -0.0195  0.1402
67782W        W10835  26.449   7.588  15.181  0.2008 -0.0347  0.0780
67783W        W10836  13.171  33.431  20.010  0.2466 -0.0410 -0.1934
67784W        W10837  28.446   8.675  16.176  0.0754  0.0413  0.1155
67785W        W10838  13.252  13.622  14.642  0.1387  0.0515  0.0210
67786W        W10839  11.702   3.315  25.096 -0.1672 -0.2297  0.1019
67787W        W10840   5.862   9.321  25.120  0.0675  0.0323  0.0559
67788W        W10841  12.813  11.508  24.192  0.2150 -0.3845  0.3174
67789W        W10842   9.806  19.801  18.709  0.0481  0.1680 -0.0583
67790W        W10843  31.122  18.349  24.414 -0.0026  0.0721 -0.0863
67791W        W10844  19.130   0.263  27.798  0.1021  0.3084 -0.1208
67792W        W10845   4.945   5.709   2.122 -0.1397 -0.2926  0.1177
67793W        W10846  22.751   1.218   1.565  0.0864  0.0400 -0.2049
67794W        W10847  19.970  31.720  23.553 -0.0928  0.0231  0.0391
67795W        W10848   0.213   2.126  17.806 -0.2168  0.2409 -0.0024
67796W        W10849  29.245   3.719  21.375 -0.1421 -0.1589  0.1939
67797W        W10850  29.518  30.032  19.897  0.0750  0.4011  0.1488
67798W        W10851   9.024  18.050  22.203  0.1143  0.1351 -0.2151
67799W        W10852  12.795   8.981   5.854  0.3561  0.1355  0.1743
67800W        W10853   8.517   1.620   8.613  0.1771  0.1099 -0.1274
67801W        W10854  22.228   2.787  24.661 -0.2634 -0.1959  0.0378
67802W        W10855  18.282   0.235  25.845  0.3760 -0.0721 -0.2893
67803W        W10856  10.324  22.001  19.771  0.3738 -0.2371 -0.5221
67804W        W10857  32.104   6.607  27.715  0.1574  0.1244 -0.1146
67805W        W10858   7.523   1.093  20.748 -0.1937  0.0389 -0.2508
67806W        W10859   9.917  32.186  13.899 -0.0372  0.2308  0.1415
67807W        W10860  23.073  29.494   0.597  0.3396  0.0660 -0.1752
67808W        W10861  15.554   7.578  21.387 -0.0222  0.3603  0.1042
67809W        W10862  23.548  16.875  21.808 -0.1922  0.2607  0.0481
67810W        W10863  21.013   4.878  23.513  0.0447  0.1172  0.0614
67811W        W10864  25.658  23.025  21.611  0.1782 -0.0611  0.0208
67812W        W10865  23.353   2.884  26.404 -0.0561 -0.0835 -0.1574
67813W        W10866  16.438   1.916  18.943  0.0064  0.0922  0.1105
67814W        W10867  26.412  12.556  16.326  0.2738  0.1917 -0.2049
67815W        W10868  20.891   0.568   3.267  0.2257  0.0909  0.0437
67816W        W10869  10.670  23.550  22.184  0.4080  0.2627  0.0456
67817W        W10870   5.763  21.258  15.656  0.0088 -0.0534  0.2643
67818W        W10871  34.420  32.991  22.793 -0.3001 -0.2135 -0.1132
67819W        W10872  25.563  16.194   2.248 -0.2221 -0.3076 -0.0981
67820W        W10873  13.313  26.282  21.145 -0.0050 -0.0007  0.1562
67821W        W10874   2.969  29.562   0.309  0.3537  0.0941 -0.1391
67822W        W10875   9.139  28.165  14.890  0.3378 -0.0116  0.2220
67823W        W10876  26.354   5.821  19.296  0.1984 -0.3005 -0.1624
67824W        W10877  13.895   7.586   1.016  0.1020 -0.2919 -0.1579
67825W        W10878   8.433  30.474  13.949 -0.0393 -0.1105 -0.1910
67826W        W10879   7.730  24.587  22.731  0.0035  0.0289  0.0753
67827W        W10880  27.491  11.681  21.309  0.0494  0.2224 -0.3294
67828W        W10881  21.186   6.706  21.668  0.0351  0.1303  0.1475
67829W        W10882  11.418   4.595  20.490 -0.1990 -0.0981 -0.3698
67830W        W10883   0.140   3.820  16.242 -0.0498  0.0596  0.2328
67831W        W10884  14.197  22.971   0.666 -0.2342 -0.0969  0.0508
67832W        W10885   6.193   8.825  25.941 -0.1210 -0.1371  0.3462
67833W        W10886  23.556   3.320  14.675  0.1349  0.1123  0.0414
67834W        W10887  18.088  34.668  19.044  0.0795  0.0163 -0.1324
67835W        W10888  28.551  33.615   6.577  0.2962  0.1088 -0.1319
67836W        W10889  17.644  31.800  23.821  0.0537 -0.2338 -0.0169
67837W        W10890  32.986   0.114  22.375 -0.0472  0.0746 -0.0145
67838W        W10891  20.077   5.092  28.849 -0.0893 -0.0657 -0.1145
67839W        W10892  15.723  25.845  18.584 -0.3306  0.0411  0.1666
67840W        W10893  18.138  28.445   1.609 -0.0003 -0.0216  0.2109
67841W        W10894  30.378  34.243  19.424  0.0449 -0.0802 -0.0229
67842W        W10895   9.055  14.245  20.763 -0.0565 -0.2085  0.2098
67843W        W10896  34.062   8.432  19.286  0.1856 -0.0263 -0.0474
67844W        W10897  11.835   9.011  20.070  0.2090 -0.0900  0.2379
67845W        W10898  32.974   0.621  23.070 -0.2938  0.0324  0.0407
67846W        W10899  16.253  23.987  26.606  0.1761 -0.0442 -0.2581
67847W        W10900  33.059  11.519  25.250 -0.0937 -0.0354 -0.0423
67848W        W10901  20.551  27.987  27.737  0.0966  0.1398 -0.0075
67849W        W10902   1.382  31.264  19.033 -0.0369 -0.0092  0.2215
67850W        W10903  23.933  32.724  27.262  0.1178 -0.0695 -0.3229
67851W        W10904  14.691   3.942  16.956  0.1706 -0.1798 -0.0461
67852W        W10905   9.188   8.562   4.621 -0.2588  0.0944  0.1839
67853W        W10906  11.796  32.475  22.849  0.0021 -0.0768  0.5424
67854W        W10907   0.104  15.276  27.372  0.0117 -0.0155 -0.0601
67855W        W10908  13.805   4.515   0.556 -0.0878  0.0577  0.2493
67856W        W10909   8.332   3.471   3.951  0.3345 -0.0185  0.2664
67857W        W10910  21.421  17.943  13.778  0.0205 -0.0296 -0.1034
67858W        W10911  16.292   3.826  17.820 -0.1307 -0.2742  0.0672
67859W        W10912  10.431   8.454   3.375  0.1004 -0.1697  0.1194
67860W        W10913  22.552   0.876  14.215  0.1648  0.1708 -0.0795
67861W        W10914  21.706  22.871   1.560 -0.1534  0.0829  0.1008
67862W        W10915  25.056  30.513  27.621 -0.0910 -0.0717  0.1853
67863W        W10916   0.119   0.697  17.829 -0.3307  0.1190 -0.1497
67864W        W10917  20.979   5.916  23.466 -0.0463 -0.0524 -0.0507
67865W        W10918   7.570  16.967  18.914  0.0533  0.1825  0.0063
67866W        W10919  24.732  13.485   2.904 -0.2655  0.0908  0.1666
67867W        W10920  14.465  32.564   8.380  0.1829 -0.2216 -0.0848
67868W        W10921  25.466  12.787  15.979  0.0555  0.0577  0.1437
67869W        W10922  30.656   7.931  20.727 -0.0876 -0.1624 -0.4548
67870W        W10923  16.374  11.329  15.158  0.2162  0.1482 -0.2071
67871W        W10924  11.263  30.386  16.267 -0.0964 -0.1643 -0.0375
67872W        W10925  12.187  11.022  16.500 -0.0301  0.3372 -0.0342
67873W        W10926  19.218  33.513  24.156  0.3414  0.1540 -0.1773
67874W        W10927  22.839  21.608  15.555  0.2414  0.2260 -0.2260
67875W        W10928  10.996   6.967  25.196 -0.0350  0.2112 -0.2676
67876W        W10929  27.635  25.235  19.041  0.1130  0.3174  0.0838
67877W        W10930   8.809  18.855  21.836 -0.0833 -0.0244  0.2834
67878W        W10931  25.857  15.607   5.811 -0.1602 -0.0483 -0.0616
67879W        W10932  17.366  30.007  15.511 -0.2449  0.2426 -0.0678
67880W        W10933  19.289  24.686  20.753 -0.0466 -0.0515  0.2977
67881W        W10934  21.040  24.855  23.464 -0.0737 -0.0946 -0.0375
67882W        W10935   5.613  10.348  17.309  0.4718  0.3775 -0.1469
67883W        W10936  17.988   1.420   3.859 -0.2316 -0.3052 -0.3152
67884W        W10937  20.517   5.680   5.899 -0.0918  0.0259  0.0813
67885W        W10938  18.463  10.040   0.005  0.0733 -0.1508 -0.0626
67886W        W10939  21.419   4.985   1.345  0.0532  0.1218  0.2050
67887W        W10940   6.958  27.763  14.944  0.0218 -0.1968 -0.3895
67888W        W10941   9.508   2.797  22.398  0.1166  0.1227  0.0636
67889W        W10942  21.604   2.773  25.952  0.3328 -0.4048  0.2592
67890W        W10943  10.596  31.168  18.912 -0.0258 -0.0238 -0.0731
67891W        W10944   6.757   6.861  24.066  0.2326 -0.0107  0.1825
67892W        W10945   9.985  12.266  15.133  0.1021 -0.2547  0.4548
67893W        W10946  13.046  29.896  16.651  0.2170 -0.2810  0.0107
67894W        W10947   7.093  30.527  16.980  0.2634  0.0651  0.1749
67895W        W10948  23.109   9.163  17.573 -0.1734 -0.1339 -0.2679
67896W        W10949  26.856   6.120  28.483  0.2561 -0.0602  0.2589
67897W        W10950  15.768   7.113  19.643 -0.0400  0.2984  0.2408
67898W        W10951  16.726  30.673  15.435  0.1869 -0.1192  0.2001
67899W        W10952  24.425  27.798  23.516  0.1045 -0.1671 -0.0255
67900W        W10953  11.117   8.118  17.017  0.1493 -0.1226 -0.0723
67901W        W10954  26.256  32.845  22.292  0.2158 -0.1947 -0.0017
67902W        W10955   0.634   9.309  16.980  0.0473 -0.0145  0.3235
67903W        W10956  20.561   3.211  25.943  0.1878  0.1694 -0.1194
67904W        W10957  29.512   2.799  18.707 -0.2354  0.0318  0.0987
67905W        W10958   3.498  28.908  15.619 -0.2794 -0.2034 -0.0839
67906W        W10959  20.503   7.500   3.745 -0.1167  0.1769  0.2887
67907W        W10960   8.436   4.062  15.127  0.1889 -0.1413  0.2528
67908W        W10961  14.467   9.393  15.451 -0.2351 -0.1977 -0.2372
67909W        W10962  14.314  10.370  24.631  0.0044 -0.1490 -0.1351
67910W        W10963  26.711  19.049  19.226  0.0538 -0.0631  0.0899
67911W        W10964  19.141   7.133  19.379  0.1986  0.1409  0.2859
67912W        W10965   1.384   0.731  18.236 -0.1366 -0.1595 -0.1703
67913W        W10966  12.686  32.442  18.904 -0.0141 -0.0424 -0.2956
67914W        W10967   7.863  27.894  15.686  0.0175  0.2044  0.0289
67915W        W10968  15.842  33.076  24.116  0.0288 -0.2318 -0.1473
67916W        W10969   7.337   1.226  23.826 -0.2609  0.0605  0.0977
67917W        W10970  16.376   6.103  17.682  0.0752 -0.0066  0.2133
67918W        W10971   2.928  14.908  19.910  0.0534  0.3586  0.0210
67919W        W10972   4.159   2.479  19.086  0.1248  0.2613  0.0587
67920W        W10973  21.919  33.451  23.451  0.4615  0.0639 -0.3914
67921W        W10974  26.725  10.513  19.576  0.0343  0.1408 -0.0541
67922W        W10975  29.937  10.340   4.902  0.2689  0.1954  0.0864
67923W        W10976   5.665  32.065  21.797 -0.3530  0.3172  0.1143
67924W        W10977  11.638  10.166   0.273 -0.2454 -0.2205 -0.0673
67925W        W10978  15.309  24.291  26.253 -0.2484 -0.0161  0.0769
67926W        W10979  21.905   1.524  26.065  0.0829 -0.0805 -0.2538
67927W        W10980   7.040   3.523  17.042  0.0649  0.0523 -0.2510
67928W        W10981  10.966   6.381  27.152  0.0319  0.2071  0.2742
67929W        W10982  17.416   4.213  20.278  0.6362 -0.2714 -0.1993
67930W        W10983  12.975  30.813  26.185  0.2008  0.1143  0.0089
67931W        W10984  24.879  32.509  20.766 -0.0791 -0.1651 -0.1152
67932W        W10985  17.114   1.506   5.398 -0.0547 -0.1352 -0.2513
67933W        W10986  17.966   1.883  21.821  0.3120 -0.1398  0.0438
67934W        W10987  19.530  30.805  14.254 -0.0473  0.0724  0.3800
67935W        W10988  17.299   8.909  15.649 -0.0786 -0.3196 -0.0622
67936W        W10989   0.192   0.548  14.296 -0.0315  0.1839 -0.2714
67937W        W10990  12.771   9.150  19.630  0.0956  0.1543  0.0107
67938W        W10991   7.945   1.863  21.739 -0.1528 -0.1450 -0.2919
67939W        W10992  13.193  12.228  23.296  0.1368  0.2062 -0.1286
67940W        W10993  23.182   7.006   4.462  0.0028 -0.1494  0.0575
67941W        W10994  10.733  29.844  15.767  0.3565 -0.0142  0.1401
67942W        W10995  29.323   8.994  20.253  0.6421  0.3074 -0.0399
67943W        W10996  13.057  28.683  20.149 -0.0214  0.0725 -0.0517
67944W        W10997  14.580  21.167  16.436  0.0105  0.1193 -0.1585
67945W        W10998  23.149  27.946   0.206 -0.1534  0.3492  0.1811
67946W        W10999   6.556   2.309   4.556 -0.0493  0.0580  0.0038
67947W        W11000   2.380   4.578  17.076 -0.0855 -0.0153  0.0786
67948W        W11001   2.396  14.019  23.870  0.0894 -0.1074 -0.2826
67949W        W11002  30.254  10.151  17.560 -0.0298 -0.2304 -0.1781
67950W        W11003  17.967  30.032  17.781 -0.0231 -0.0392  0.3150
67951W        W11004  19.470   8.895  24.067 -0.2871 -0.3905  0.1992
67952W        W11005  20.251  29.500  26.156 -0.0384  0.4322  0.0509
67953W        W11006   9.622   9.621  23.171 -0.4329 -0.1447 -0.0960
67954W        W11007  23.974  26.980  16.137  0.2747 -0.0292  0.0374
67955W        W11008  10.585  27.619  18.625 -0.2686 -0.1470  0.4647
67956W        W11009   5.586  25.675  16.392  0.1511 -0.3946  0.0652
67957W        W11010  11.222  11.720  25.605 -0.0624 -0.4441  0.1056
67958W        W11011  22.201  30.680  19.342 -0.2734 -0.2557  0.0589
67959W        W11012  27.896  30.386  15.269  0.1665 -0.0326 -0.2149
67960W        W11013  24.564  16.435  24.077  0.0840 -0.1781  0.1874
67961W        W11014  14.937   9.560  22.031 -0.2060 -0.2240  0.1377
67962W        W11015   2.275  15.955   1.279  0.2885 -0.0822  0.0066
67963W        W11016  18.269  29.834  23.434 -0.2075 -0.0244 -0.0036
67964W        W11017  11.936  28.289  23.068  0.0280 -0.2329 -0.0643
67965W        W11018  17.407   3.212  23.572 -0.3543 -0.0254  0.1798
67966W        W11019  22.038  30.002  19.555 -0.0614  0.3487 -0.0545
67967W        W11020  29.812  16.651  18.733  0.2215 -0.1969  0.2117
67968W        W11021   7.864  20.183  20.389  0.1958 -0.0385  0.5358
67969W        W11022   5.828   5.011   7.066  0.1690 -0.3278 -0.1578
67970W        W11023  27.080   9.355  28.389 -0.1841 -0.1202  0.1462
67971W        W11024  20.782   1.053  14.413 -0.0146 -0.5039  0.0601
67972W        W11025  18.453  33.443  24.924  0.1443  0.2524  0.0630
67973W        W11026  12.732  10.991  19.173 -0.2390 -0.3377 -0.0757
67974W        W11027  31.304   5.268  18.157  0.1016  0.1245 -0.1872
67975W        W11028  20.930  31.779  19.314 -0.0796  0.1852 -0.2782
67976W        W11029  30.335  29.643  26.580  0.0565  0.0169  0.0145
67977W        W11030  24.342   5.681  15.379  0.1082 -0.1374  0.0548
67978W        W11031   2.295  29.935  17.694  0.3016 -0.2104  0.0722
67979W        W11032   9.602  11.535  23.436  0.0033  0.0039 -0.1667
67980W        W11033   7.170  22.600  24.581 -0.0123  0.0249 -0.1161
67981W        W11034  14.059  12.578  21.150 -0.0845  0.1397  0.0210
67982W        W11035  22.589   6.438  27.296 -0.2242 -0.1096  0.1089
67983W        W11036  29.286   2.529   2.482 -0.0191 -0.0887  0.2645
67984W        W11037  15.923  31.081  18.416  0.0154  0.5085  0.0667
67985W        W11038  11.794  28.913  18.262 -0.0131 -0.1253  0.0863
67986W        W11039  11.597   0.452  22.352 -0.0527  0.0201  0.2419
67987W        W11040  20.368   9.800  28.595 -0.3258  0.0498 -0.1083
67988W        W11041  23.838   7.005   4.594 -0.1731 -0.0147 -0.0977
67989W        W11042   9.178  13.131  21.443  0.1300 -0.0109  0.0257
67990W        W11043  19.640  20.893  23.488  0.0264  0.3509  0.0872
67991W        W11044  22.877  14.257  20.356  0.1266 -0.1358  0.1604
67992W        W11045   4.651  28.863  14.386  0.2661 -0.0082 -0.1709
67993W        W11046  13.949  22.212  20.864  0.2096  0.3804  0.0985
67994W        W11047  19.854  34.436  19.024  0.0141  0.0113 -0.3090
67995W        W11048  15.318  12.354  26.016  0.1096 -0.1590 -0.2216
67996W        W11049  25.448   5.068  22.104  0.1518  0.1158  0.0473
67997W        W11050  14.638   2.024  16.612  0.0112 -0.0046  0.2897
67998W        W11051  24.109  33.605  25.610  0.0354  0.0679 -0.1408
67999W        W11052  28.852   3.668  28.148  0.1551 -0.3589  0.0045
68000W        W11053   0.410   1.019  19.435 -0.2442 -0.1314  0.2881
68001W        W11054  24.254  28.903  20.793 -0.0294  0.1090 -0.1156
68002W        W11055  25.439  33.989   0.471  0.4087  0.1374  0.0548
68003W        W11056  19.756  13.877  15.136 -0.0728  0.1820 -0.2964
68004W        W11057  11.062  27.994  21.654  0.1118  0.2032  0.0722
68005W        W11058  31.677  13.894  15.459 -0.2184 -0.0073 -0.0341
68006W        W11059   5.753  21.510  18.015  0.2840 -0.2338 -0.2308
68007W        W11060  20.049  34.256  19.966  0.1552 -0.1945  0.1789
68008W        W11061   1.563  29.417  15.119  0.2134 -0.2379  0.0518
68009W        W11062  10.335  10.284  27.121 -0.2208  0.0766 -0.1293
68010W        W11063  33.189  16.066  25.428  0.1853  0.3239  0.1447
68011W        W11064  25.317   0.304  16.149 -0.1168  0.1916 -0.2972
68012W        W11065   3.620  19.122  19.463  0.0478 -0.1581  0.0791
68013W        W11066  23.728  19.204   5.476  0.0351  0.0501 -0.0818
68014W        W11067  23.334  28.549  17.527  0.2057 -0.1628  0.1463
68015W        W11068  25.403   0.889  18.662  0.1290  0.1403  0.2933
68016W        W11069  21.738   5.106  14.922 -0.0463 -0.3944 -0.2509
68017W        W11070  14.758  33.655  17.064  0.1711  0.1591  0.2050
68018W        W11071  17.047  31.069  21.812 -0.0081  0.2380  0.1896
68019W        W11072   8.876   7.980  17.029 -0.2536 -0.0238  0.0091
68020W        W11073  21.413   0.119   6.872  0.1530  0.0594  0.0834
68021W        W11074  19.487   0.956  25.231  0.1500  0.2560 -0.0147
68022W        W11075   8.321  12.966  21.400 -0.5076 -0.0417 -0.4598
68023W        W11076  22.300  20.850  14.630  0.0835 -0.0587 -0.1864
68024W        W11077   9.448  33.615  24.118  0.1766  0.1147 -0.2482
68025W        W11078  14.307  27.604  16.881 -0.1581 -0.1274  0.0117
68026W        W11079  30.296   8.249  17.308  0.2071 -0.2919  0.4965
68027W        W11080  11.054  31.989  15.796 -0.1607  0.0043 -0.0731
68028W        W11081  29.847  12.822  16.559 -0.2993 -0.0188  0.0128
68029W        W11082  26.298  25.548  25.434 -0.1535  0.0223  0.0046
68030W        W11083  12.197  33.399  23.230  0.0420  0.0482  0.0303
68031W        W11084  22.766  34.463  15.280  0.0632  0.2249  0.2853
68032W        W11085  27.145  22.593   3.561 -0.3213 -0.0807 -0.2496
68033W        W11086  20.017   1.749  15.492  0.0603  0.1155  0.2340
68034W        W11087  14.792   7.375  17.349  0.2216 -0.0544  0.0693
68035W        W11088  26.453   5.391  15.518 -0.1009 -0.0065 -0.2262
68036W        W11089   7.185   6.520  28.759  0.2391 -0.2707 -0.1599
68037W        W11090  19.283   6.352  20.974 -0.2369 -0.2413 -0.1746
68038W        W11091  32.067   6.255  22.051  0.0489  0.2225  0.2120
68039W        W11092  14.663  22.430  16.467 -0.0839 -0.2028  0.1167
68040W        W11093  13.637  11.981   3.167 -0.0569 -0.1520  0.0681
68041W        W11094  12.929   2.013  22.487 -0.1852  0.3380 -0.2755
68042W        W11095  21.562   7.279  23.986  0.1342  0.0883  0.1983
68043W        W11096  21.038  26.147  29.182 -0.0111  0.1641  0.1404
68044W        W11097  20.467  34.556  16.186 -0.0711  0.0700 -0.1160
68045W        W11098   7.906  22.354  28.855 -0.0984  0.3727 -0.3796
68046W        W11099  10.055  31.550  25.086  0.0896 -0.2159  0.0425
68047W        W11100  10.023  26.611  15.354 -0.0681 -0.1852  0.2745
68048W        W11101  19.971   1.472  24.004  0.2715  0.3395  0.3142
68049W        W11102  11.331  27.035  25.400 -0.2541  0.1269  0.0860
68050W        W11103  16.080  33.343  27.547  0.0153  0.0715 -0.2040
68051W        W11104  22.765  34.616  22.258 -0.1099 -0.1480  0.0504
68052W        W11105  25.789  10.350  24.464  0.1899 -0.1870 -0.0716
68053W        W11106  13.688   3.784  27.014  0.2419 -0.1120  0.1439
68054W        W11107  20.965  25.058  17.381 -0.1090  0.1812 -0.1574
68055W        W11108  17.804   4.191  19.996  0.2037 -0.0666 -0.0199
68056W        W11109  18.340   4.815  18.035 -0.2122  0.0163 -0.2074
68057W        W11110   6.750  27.552  25.689 -0.3432 -0.3718  0.0787
68058W        W11111  22.454   1.399  16.578 -0.1236 -0.3634  0.0430
68059W        W11112   8.320  24.910  13.598  0.1031 -0.0314 -0.2239
68060W        W11113   5.006   7.811   0.378  0.1494  0.0348 -0.0056
68061W        W11114   6.752   8.930  14.307 -0.0558  0.4233  0.2731
68062W        W11115  19.399  30.675  16.284 -0.0334 -0.0498  0.0025
68063W        W11116  31.115  30.353  21.856  0.2261  0.0572  0.1085
68064W        W11117   3.827   0.444  25.992 -0.1207 -0.1828  0.0497
68065W        W11118  17.705  23.751   8.292  0.0197  0.2252  0.1623
68066W        W11119  16.079  15.194  25.635 -0.2002 -0.2202 -0.0414
68067W        W11120  23.115  28.049  17.392  0.0384  0.1807  0.2064
68068W        W11121  13.649  32.466  20.171  0.1297 -0.0337  0.2844
68069W        W11122  27.396   0.591   4.738 -0.3042  0.2205  0.1304
68070W        W11123   4.914   1.391  18.464 -0.0092  0.0423  0.2783
68071W        W11124   8.609  23.173  16.164  0.1116 -0.1384 -0.1933
68072W        W11125  21.882  20.473  20.737 -0.2762 -0.0943  0.1507
68073W        W11126  21.192   5.955  27.160 -0.0381 -0.1623 -0.1411
68074W        W11127   9.478  26.221   5.947  0.1661  0.2038 -0.0268
68075W        W11128  18.772   3.993  17.862  0.2291 -0.2474 -0.2413
68076W        W11129  18.039   8.888   2.388  0.0250  0.0075  0.2728
68077W        W11130  12.283  19.062  18.620 -0.0003  0.0971 -0.2141
68078W        W11131   9.470  29.224  19.834  0.0321 -0.2584  0.2232
68079W        W11132  19.526   4.030  23.760  0.1606 -0.2628 -0.1512
68080W        W11133  28.969  17.647   3.221  0.2815 -0.1081 -0.2768
68081W        W11134  20.623  28.228  24.497  0.0418  0.2873 -0.2131
68082W        W11135  12.590  21.709  21.863 -0.0615  0.1107  0.1721
68083W        W11136  22.973   9.672  29.009 -0.1909 -0.1756 -0.2809
68084W        W11137  16.073  32.814  23.642 -0.2925  0.0922 -0.0991
68085W        W11138  23.868  33.687  18.433  0.1110 -0.0778 -0.1565
68086W        W11139  12.725  16.309  18.172 -0.0900  0.0146  0.4930
68087W        W11140   3.540  12.630   1.170  0.1699 -0.2614 -0.0554
68088W        W11141  30.649  25.975  18.499 -0.0862 -0.0281  0.0045
68089W        W11142   3.725   3.830  13.597 -0.2149  0.0737 -0.1588
68090W        W11143  15.819  14.027   9.734 -0.0734  0.3671 -0.2617
68091W        W11144  24.506  19.370  25.673  0.0443  0.1786 -0.1038
68092W        W11145  18.266   0.362   4.774  0.2266  0.0728  0.3060
68093W        W11146  17.632  33.807  28.049  0.3178  0.1480  0.1598
68094W        W11147   8.805   2.639  25.228  0.2052  0.2295  0.1809
68095W        W11148  12.171   4.459  24.602  0.1842 -0.1230  0.0312
68096W        W11149  18.787  12.543  15.019  0.4320 -0.0066 -0.1836
68097W        W11150  19.793  12.265  14.211 -0.0205 -0.2120  0.2209
68098W        W11151  33.722   7.455  17.543  0.1859 -0.0614  0.2381
68099W        W11152  11.214  27.492  19.279 -0.0535  0.1903  0.0778
68100W        W11153  10.437  20.491  21.684  0.0643 -0.4080 -0.1908
68101W        W11154  10.522   7.423  17.185 -0.0827 -0.1342  0.2808
68102W        W11155  24.239  28.020  18.003 -0.0001  0.1066 -0.1474
68103W        W11156  13.947   0.342  21.888  0.3352 -0.1025  0.0521
68104W        W11157   8.556  30.571  16.614  0.2304  0.0305 -0.0036
68105W        W11158  24.703  19.300  16.898 -0.0747 -0.1339  0.0137
68106W        W11159  22.208  15.200  15.337  0.1033  0.0159  0.0735
68107W        W11160   4.423  29.988  18.507 -0.3028  0.0324  0.0770
68108W        W11161  20.520  12.064  26.562 -0.2107  0.0639 -0.1074
68109W        W11162  27.616   2.693  15.743  0.0989 -0.0273  0.0685
68110W        W11163   7.214   1.502  19.380  0.0074 -0.1484 -0.0001
68111W        W11164  19.593  13.747  18.976  0.3174  0.0114  0.0494
68112W        W11165   4.558  32.466   0.837 -0.0654  0.2301  0.2048
68113W        W11166  16.731  11.044   4.033 -0.1662  0.1116 -0.1178
68114W        W11167  19.518  12.173  23.112 -0.0452 -0.2223  0.0328
68115W        W11168  12.255  26.897  25.446  0.0307 -0.1479  0.1793
68116W        W11169  24.355   1.829  16.223 -0.3047  0.0614  0.0084
68117W        W11170  14.782  26.576  19.401  0.1460 -0.1093  0.0227
68118W        W11171  13.538   3.012  22.430 -0.2406 -0.0629  0.3214
68119W        W11172  26.320  19.184  14.559  0.2047 -0.0847  0.1599
68120W        W11173  16.857  34.178  17.033  0.2174 -0.1044  0.2405
68121W        W11174  15.126   6.879  21.052  0.0188 -0.1142 -0.1174
68122W        W11175  12.149  26.188  22.115  0.0087 -0.0407  0.3438
68123W        W11176  15.296  34.671  28.437 -0.1218  0.0361  0.1582
68124W        W11177  28.180   3.272  17.257 -0.0576  0.1311  0.0037
68125W        W11178  25.501  26.234  14.521  0.4146 -0.1386 -0.2544
68126W        W11179  28.112   8.602  17.848 -0.0831  0.1651 -0.1056
68127W        W11180  13.372  10.669  24.232 -0.0753 -0.0002  0.0200
68128W        W11181  23.501  29.556  14.569 -0.0634  0.0699  0.1785
68129W        W11182   3.174   9.433  16.436  0.2627  0.0044  0.2844
68130W        W11183  26.371  12.504  18.667 -0.0531 -0.1971  0.2284
68131W        W11184  16.321  28.516  19.400  0.0705  0.0703 -0.1106
68132W        W11185  19.947  13.230  14.171  0.1943  0.2851  0.0454
68133W        W11186  22.517  34.384  14.800 -0.2407  0.3317 -0.2773
68134W        W11187  34.510  22.397  19.617  0.0691  0.3235 -0.0930
68135W        W11188  30.129   1.392  23.779 -0.3864 -0.1189 -0.0814
68136W        W11189  20.272   1.536  22.358  0.2948  0.0419 -0.5280
68137W        W11190  19.341  26.795  21.834  0.0557 -0.3951 -0.1478
68138W        W11191  28.328  18.051   9.676  0.1516  0.3928  0.1677
68139W        W11192  13.910  29.775   2.331 -0.1610 -0.0466 -0.0228
68140W        W11193   9.810  34.540  14.590  0.1086 -0.0137 -0.0798
68141W        W11194  19.976   6.926  17.611 -0.2316 -0.0410 -0.0233
68142W        W11195  17.518  30.724  21.733 -0.0365  0.1144  0.1037
68143W        W11196  32.598  24.203  14.320 -0.1166  0.1366 -0.3266
68144W        W11197  34.488  10.795   2.518 -0.1099 -0.1418  0.0301
68145W        W11198  20.592  29.709  17.465  0.2891 -0.3597 -0.4064
68146W        W11199  30.815  33.019  21.336  0.0315 -0.0743  0.1066
68147W        W11200   8.409   3.610  18.243  0.0033 -0.0136  0.1988
68148W        W11201  29.004  23.102  29.142 -0.0252  0.1928 -0.0072
68149W        W11202  11.090   5.381  26.750  0.2101  0.0851  0.1360
68150W        W11203  32.014  27.695   7.571 -0.0780 -0.4200  0.1909
68151W        W11204   3.143  17.553   4.382 -0.0605  0.1702 -0.2494
68152W        W11205  31.765  30.903  16.044  0.1137  0.0662 -0.2017
68153W        W11206  10.066   9.272   2.595  0.0187 -0.4648 -0.0513
68154W        W11207  23.930   2.294  20.426  0.2122  0.0576 -0.1935
68155W        W11208  16.024   5.607  25.457 -0.3433 -0.1295  0.0359
68156W        W11209   5.311  27.823  21.322 -0.0202 -0.0421 -0.1020
68157W        W11210  15.115  29.428  15.154  0.0323  0.0223  0.1949
68158W        W11211   4.212   8.001  27.068  0.0456  0.0834  0.1420
68159W        W11212  30.127   2.059  18.213 -0.1232  0.1514 -0.1083
68160W        W11213   1.538  10.076  26.601 -0.0142  0.1711  0.1682
68161W        W11214   1.655   5.643  14.141 -0.0902  0.1933 -0.0222
68162W        W11215  20.427   4.118  20.791  0.1883 -0.5014 -0.1902
68163W        W11216  24.701  19.682  21.052  0.2354 -0.2012 -0.0200
68164W        W11217  28.980   5.423  22.537 -0.1531  0.3057  0.1996
68165W        W11218   6.144  18.533  17.242  0.0716 -0.1216  0.1741
68166W        W11219  18.948   6.260  25.964  0.0394 -0.0200 -0.1032
68167W        W11220  10.962   8.607  21.820 -0.0291  0.1676  0.1586
68168W        W11221  16.865  27.517   1.070 -0.3323  0.1399 -0.4074
68169W        W11222  16.638  23.680   1.915  0.2215  0.0678  0.3216
68170W        W11223  18.465  31.634  26.612 -0.0794 -0.0340 -0.1634
68171W        W11224  32.837  13.910  19.845 -0.1824 -0.2893 -0.1914
68172W        W11225   8.688  27.892   1.460  0.2776 -0.0293  0.1447
68173W        W11226   4.794  31.445  27.619 -0.1401 -0.1028 -0.0550
68174W        W11227  14.722  28.688  18.038  0.0537  0.1533  0.2577
68175W        W11228  29.027  26.325   4.600  0.1158  0.0286  0.0027
68176W        W11229  32.916   5.243  16.381  0.1588 -0.2118  0.1045
68177W        W11230  12.304   0.193  13.941  0.1687 -0.0088 -0.1523
68178W        W11231  13.908  25.187  19.773 -0.4588  0.1715  0.0659
68179W        W11232  28.293  31.473   2.332 -0.1229  0.1378  0.0337
68180W        W11233  17.772  25.495  23.981  0.0045 -0.2329 -0.0451
68181W        W11234  16.217  25.590  28.898 -0.3612  0.1841  0.0292
68182W        W11235  21.500  27.180  18.408 -0.4376  0.1390 -0.1070
68183W        W11236  11.567  29.116  14.813  0.1285  0.0198  0.1220
68184W        W11237  12.492  16.170  21.478  0.0828  0.1296  0.0424
68185W        W11238  26.400  25.065  15.082 -0.1094  0.1372 -0.1357
68186W        W11239  16.693  14.635  15.374 -0.0148 -0.1228  0.2626
68187W        W11240   2.602  27.484   5.669  0.1486 -0.0439 -0.2279
68188W        W11241  19.861  12.439  25.289 -0.1275  0.2349 -0.3000
68189W        W11242  17.166  31.289  23.173  0.1255  0.1934 -0.0195
68190W        W11243  21.356  31.013  19.110  0.1095 -0.1474  0.0437
68191W        W11244  22.514   9.109  20.360  0.0304 -0.1822 -0.1691
68192W        W11245  10.509  24.091  13.262  0.1000 -0.1391  0.0890
68193W        W11246  32.453  33.076  27.844 -0.2510  0.2351 -0.0332
68194W        W11247  22.907   1.076  18.500  0.0939 -0.2470  0.1330
68195W        W11248  15.404   3.864  19.820  0.0292 -0.2908  0.0274
68196W        W11249  16.897  34.037  14.170 -0.0001  0.0188  0.1081
68197W        W11250  10.958  28.847   3.052 -0.1936 -0.1527  0.0673
68198W        W11251  11.649  32.930  20.875 -0.2078 -0.2051 -0.3327
68199W        W11252  19.211  12.325  15.877 -0.1720 -0.1150 -0.0110
68200W        W11253  26.701   9.461  22.757  0.1387 -0.2533  0.0904
68201W        W11254  13.341  30.320  19.021  0.0057 -0.2180  0.0407
68202W        W11255  17.520   3.973  25.786  0.0283 -0.2718 -0.1156
68203W        W11256  21.268   1.453   2.554  0.0640  0.0344  0.1475
68204W        W11257  24.331   4.924  16.176  0.2670 -0.1936 -0.1469
68205W        W11258  14.661  29.243  26.972 -0.0225  0.1191  0.0694
68206W        W11259  17.009   5.907  21.858  0.3177 -0.3049 -0.1422
68207W        W11260  21.218  34.625  19.507  0.3697  0.1182 -0.2372
68208W        W11261   2.966   6.046   3.019  0.0987  0.1904  0.5331
68209W        W11262  13.730  34.510  26.787  0.2426 -0.0485 -0.0595
68210W        W11263  10.488  15.173  25.048 -0.0246 -0.0035 -0.1798
68211W        W11264   5.918   1.236  18.841  0.2835  0.0241  0.2435
68212W        W11265  15.764   2.285  25.112 -0.1617  0.2024  0.0709
68213W        W11266  29.362  31.114  16.823 -0.0990 -0.0024 -0.2144
68214W        W11267  16.567   7.651  20.594 -0.1699 -0.0325 -0.0952
68215W        W11268  12.080   3.331   4.005  0.1510 -0.2505  0.3638
68216W        W11269  21.378  28.674  18.951 -0.0231  0.1121  0.0126
68217W        W11270  19.956  19.608  20.808  0.2109 -0.1076 -0.1653
68218W        W11271   3.537   3.276   8.263  0.1613 -0.0230 -0.1615
68219W        W11272   2.795  29.783   7.059  0.1169  0.0326 -0.1703
68220W        W11273  23.404  29.396  16.089 -0.4367  0.0948  0.0351
68221W        W11274  24.465  32.839  20.914  0.1001 -0.0554 -0.0030
68222W        W11275  11.611  29.151   5.756  0.2062 -0.0917 -0.0913
68223W        W11276  10.478   2.905  17.203  0.1173  0.3514  0.1272
68224W        W11277  20.154   3.714  20.888 -0.0472 -0.2328 -0.1073
68225W        W11278  15.324  14.471   0.118  0.0651 -0.1337 -0.2343
68226W        W11279  30.449   8.136  24.367  0.0408  0.1133 -0.0243
68227W        W11280  28.975   8.098  14.892 -0.4152 -0.2508  0.0441
68228W        W11281   3.435  23.329  22.436 -0.1549  0.1752  0.2890
68229W        W11282  19.971  13.447  16.495 -0.0531  0.2922 -0.0944
68230W        W11283  28.739  31.300  20.571 -0.1235 -0.0638 -0.1096
68231W        W11284   6.245   2.042  23.019  0.1129  0.0676  0.1253
68232W        W11285  17.685  23.533  17.586 -0.2831  0.2585  0.3654
68233W        W11286  24.245  24.862  21.488  0.0033 -0.0101  0.0724
68234W        W11287  18.769  10.788  23.064  0.0083  0.1669 -0.0718
68235W        W11288  16.228  33.400  20.576  0.1620  0.2062  0.0009
68236W        W11289   9.801   8.622  25.229 -0.1263  0.0676  0.0106
68237W        W11290  11.219   0.269  19.404  0.0752 -0.0084 -0.4045
68238W        W11291  18.341  31.055  16.955 -0.0032 -0.0507 -0.2498
68239W        W11292   8.120  32.139  22.162  0.1211  0.2256 -0.0937
68240W        W11293  17.674   2.722  19.169 -0.1553 -0.1686  0.1144
68241W        W11294  17.533  33.539  18.885  0.2326 -0.0299  0.2704
68242W        W11295  16.092  23.615  23.755  0.0262 -0.1152  0.0405
68243W        W11296   1.342   8.305  20.299  0.1521 -0.1197  0.0738
68244W        W11297   7.314   7.448  20.240  0.0900  0.4960  0.3592
68245W        W11298  30.287   2.800  14.517 -0.0364  0.4076 -0.0150
68246W        W11299  12.965  20.636  20.092  0.0410  0.0420  0.0510
68247W        W11300  21.633  20.675  18.384  0.3680  0.0943  0.4330
68248W        W11301  17.898  27.607  18.405 -0.2432 -0.0309  0.1364
68249W        W11302  17.774   9.126  23.923 -0.1349  0.4375 -0.0014
68250W        W11303  22.135  14.778  17.040 -0.0632  0.0907 -0.1978
68251W        W11304  26.665  14.498  18.636  0.1909  0.1834  0.1932
68252W        W11305   0.487   4.620  23.317  0.0310 -0.0955  0.1834
68253W        W11306   9.081   3.420  21.703  0.0342  0.2151  0.1888
68254W        W11307  34.448   1.165  27.801  0.1135 -0.1871  0.3546
68255W        W11308  11.075   1.791  25.832 -0.1316  0.0808  0.0519
68256W        W11309  28.022  30.814  26.349 -0.1161 -0.1274  0.1325
68257W        W11310   5.649   2.535  17.097 -0.0703 -0.0101 -0.2746
68258W        W11311  18.777  24.651  18.924 -0.3534 -0.0504  0.2745
68259W        W11312   6.852  12.213   3.634 -0.1554  0.1332 -0.0472
68260W        W11313  15.621  17.748  24.216  0.0318  0.2220  0.1436
68261W        W11314  25.199  30.780  18.005  0.0621  0.3033  0.1155
68262W        W11315  18.572  24.185  23.830 -0.0943  0.0363  0.4115
68263W        W11316  14.659  10.629   0.488  0.2025 -0.1079  0.2126
68264W        W11317  32.455   5.383   8.432  0.0950 -0.2672  0.0230
68265W        W11318   7.918   1.492  25.981 -0.0050  0.3677  0.0625
68266W        W11319  11.539  13.669  21.834  0.0830 -0.3481  0.2505
68267W        W11320  16.159   4.199  21.155 -0.1025  0.1145  0.2173
68268W        W11321  14.194  33.787  15.124 -0.1946  0.0223 -0.0600
68269W        W11322  16.626  31.677  19.844  0.2393  0.1460  0.0895
68270W        W11323  11.572   4.297  15.520  0.0231  0.0067 -0.0238
68271W        W11324  18.444   6.577  23.732  0.1695  0.0329  0.0274
68272W        W11325  15.443  22.628  19.941  0.1145  0.1361 -0.1457
68273W        W11326  25.904   0.392  24.910 -0.3087  0.0205 -0.3780
68274W        W11327  30.107  27.347  25.392  0.3077 -0.0077 -0.1066
68275W        W11328  10.097  27.148  25.847 -0.0012 -0.1469 -0.1105
68276W        W11329  22.491   7.578  14.483 -0.1863  0.2947  0.1060
68277W        W11330  19.871  28.923  14.366 -0.2309  0.2080  0.1694
68278W        W11331  13.862  30.924  19.772  0.2051  0.3282  0.0047
68279W        W11332  20.997   4.020  20.077  0.1414  0.1309  0.0303
68280W        W11333  20.749   1.406  23.394 -0.3188  0.0615 -0.1181
68281W        W11334  12.566   6.009  22.556 -0.1103  0.2693  0.3253
68282W        W11335   4.399  19.229  13.962 -0.0971 -0.1837  0.1153
68283W        W11336  14.815  33.901  20.960 -0.2107 -0.1280  0.0081
68284W        W11337  10.713  30.989  14.785 -0.1692  0.0632 -0.2174
68285W        W11338  17.070  21.826   2.510 -0.2381 -0.0569  0.2060
68286W        W11339  22.485   3.857  28.349 -0.0252 -0.0103 -0.1687
68287W        W11340  18.061  11.397  26.749  0.1299  0.0947  0.3142
68288W        W11341  32.567  32.407  28.058  0.0654  0.2176 -0.0750
68289W        W11342  24.345   3.307  17.411  0.0495 -0.1515 -0.0376
68290W        W11343   5.030  11.277  18.672  0.1177  0.4670  0.0039
68291W        W11344  22.960  25.718  17.008  0.3444  0.1239 -0.0368
68292W        W11345  17.396  31.746  15.988  0.4549  0.2205 -0.3970
68293W        W11346  23.391   5.030  16.136 -0.1181 -0.2365  0.4152
68294W        W11347  18.528   9.514   2.602 -0.0481  0.2755 -0.0505
68295W        W11348  17.891  28.716  18.433 -0.0139  0.1687  0.4449
68296W        W11349   6.657  20.010  17.219  0.1921  0.2209  0.1630
68297W        W11350  27.363   6.663   6.019  0.1834  0.2265 -0.0545
68298W        W11351  18.771   2.892  23.325 -0.1176  0.2329  0.0915
68299W        W11352  11.191  32.610  14.976  0.0679 -0.0731  0.0444
68300W        W11353   5.643   5.598   6.014 -0.3229 -0.1815 -0.1500
68301W        W11354  26.504   2.998  26.110  0.1184 -0.0012  0.2907
68302W        W11355  19.806  21.519  15.523 -0.1656 -0.1646  0.1854
68303W        W11356  18.496   1.880  16.299  0.4901  0.1964  0.1572
68304W        W11357  11.310   4.133   3.245 -0.0195  0.2957 -0.1084
68305W        W11358   5.496   0.366  26.419  0.3950  0.2150 -0.3202
68306W        W11359  18.898  27.483  18.819  0.0197 -0.1673  0.1081
68307W        W11360   9.841   0.889  19.814 -0.0821  0.0511  0.1682
68308W        W11361  19.871  23.531  18.679 -0.0723  0.2520  0.1787
68309W        W11362   5.053  32.940  14.672 -0.1069 -0.0411  0.1122
68310W        W11363  24.818  14.163  17.268  0.1470 -0.4223 -0.2050
68311W        W11364  16.095  30.499  18.271  0.0413 -0.1925  0.0348
68312W        W11365  14.380  13.999  16.611 -0.1227  0.4288  0.2555
68313W        W11366  19.115  28.973  25.215  0.3752 -0.0345 -0.1661
68314W        W11367  12.941   1.647  22.811  0.0604 -0.2987 -0.0305
68315W        W11368  28.509   6.184   1.577  0.0974  0.3719  0.0636
68316W        W11369  24.177  24.059  22.421 -0.2276 -0.1265  0.1056
68317W        W11370  19.809   8.706  27.527 -0.1669 -0.2256 -0.2960
68318W        W11371  16.331   1.740   3.183  0.0228 -0.2610 -0.0146
68319W        W11372  24.879   5.303  16.659  0.0519  0.1165  0.0591
68320W        W11373  17.545   1.596   1.299 -0.1537  0.0863  0.0908
68321W        W11374  27.908   0.261  19.335 -0.0496 -0.0862  0.0427
68322W        W11375  18.046   1.497  18.655  0.0253  0.0368  0.2929
68323W        W11376  10.491   5.407  14.681 -0.1898 -0.1265 -0.0564
68324W        W11377  25.104  28.159  28.066 -0.1775  0.0154 -0.1323
68325W        W11378  28.683   3.941  28.498  0.1453  0.0153 -0.1297
68326W        W11379  31.439  32.085   3.817  0.0329 -0.0778 -0.1278
68327W        W11380  17.165  18.740  15.235  0.0019  0.1121 -0.0298
68328W        W11381  19.728   9.040  21.330  0.2106  0.1747  0.1582
68329W        W11382  17.572   1.817  20.352  0.1066  0.0742 -0.0947
68330W        W11383  23.263  33.066  17.452 -0.0754 -0.0915 -0.2784
68331W        W11384  11.715  11.847  19.679  0.3272  0.2284 -0.0845
68332W        W11385  19.633   8.894   7.379 -0.0320 -0.0653  0.1220
68333W        W11386  13.837   4.080  17.041  0.2240  0.4585  0.2373
68334W        W11387  11.273  10.393  22.468  0.0115  0.0466 -0.2132
68335W        W11388   9.087  32.136  29.077  0.0598  0.0055  0.0264
68336W        W11389  19.834  34.226  22.421 -0.4854  0.0277 -0.2966
68337W        W11390  15.378   4.183  18.291 -0.2451  0.2398 -0.2317
68338W        W11391  12.626   1.898   0.696 -0.0314  0.1007 -0.0440
68339W        W11392   6.134   2.050   2.983 -0.1172 -0.1430  0.1636
68340W        W11393  12.809   7.425   1.310  0.0104 -0.1057 -0.0389
68341W        W11394  15.149  33.333  16.873 -0.0758 -0.0138  0.0150
68342W        W11395  26.494  30.301  18.148  0.1836 -0.1553  0.0597
68343W        W11396   6.333   9.207  22.048 -0.2239  0.0985  0.3607
68344W        W11397  26.380  13.553   9.247  0.1611 -0.0624 -0.1529
68345W        W11398  15.020  31.867  17.333  0.1220 -0.5171  0.0504
68346W        W11399  14.523  33.923  23.791 -0.2357  0.0062 -0.3198
68347W        W11400  13.780  34.358  22.367 -0.0175 -0.1587 -0.0581
68348W        W11401  20.926  30.135  19.176 -0.0286 -0.2974 -0.0391
68349W        W11402  23.720   5.730   4.159 -0.0522 -0.1961  0.2536
68350W        W11403  15.555  26.706  20.728 -0.1517 -0.1722  0.2364
68351W        W11404  20.769   5.931  25.788  0.3908  0.0986 -0.0654
68352W        W11405  24.927  17.367   2.483  0.2349  0.2639 -0.0056
68353W        W11406  12.888  25.078  25.629 -0.1491  0.1794  0.0367
68354W        W11407  14.323  31.761  24.304 -0.0944  0.2181 -0.1464
68355W        W11408  17.686  31.200   5.328 -0.2632  0.0799 -0.4244
68356W        W11409   7.577  15.227  18.962  0.3535  0.0185 -0.3265
68357W        W11410  16.350   7.343  28.147  0.2486  0.3323 -0.1229
68358W        W11411  22.641  28.330  19.727 -0.3108  0.0457  0.2610
68359W        W11412  24.758  24.417  15.145  0.1469  0.3105  0.2789
68360W        W11413  30.079   6.634  14.691  0.1135  0.1599  0.1708
68361W        W11414   8.450  34.321  15.363  0.0967  0.0083 -0.0261
68362W        W11415  14.383   4.219  16.116  0.3176  0.2488  0.0485
68363W        W11416  26.391  27.896  25.922  0.0794  0.0310 -0.2521
68364W        W11417  11.920  10.214  27.788  0.1001  0.0742  0.1189
68365W        W11418  24.226  24.470  20.344  0.1824 -0.0156  0.0761
68366W        W11419  25.013  21.110   5.273 -0.0701 -0.3190  0.0924
68367W        W11420  33.394   7.078   1.842  0.1339  0.1223 -0.0024
68368W        W11421  11.369  28.393  20.364 -0.0711  0.1288 -0.1995
68369W        W11422  25.241  32.007  21.960  0.1756 -0.0618 -0.0720
68370W        W11423  12.040  12.470  17.521 -0.0640 -0.1624 -0.3911
68371W        W11424  26.926  22.097  27.512  0.3806  0.2947 -0.0004
68372W        W11425  24.946   7.500  19.735 -0.0129  0.0733 -0.4416
68373W        W11426  21.168   2.127  15.949 -0.1867 -0.3251 -0.0723
68374W        W11427   1.083  18.966   3.796  0.1464 -0.0758 -0.4121
68375W        W11428   2.387   8.666  28.802  0.0343  0.0233  0.2134
68376W        W11429   8.514  34.555  15.807 -0.0283  0.0037 -0.0536
68377W        W11430   9.423  27.117   2.111  0.1860  0.0707 -0.1769
68378W        W11431  10.699   6.527  16.858  0.2799 -0.0488 -0.2413
68379W        W11432   6.878  28.660   7.713  0.0188  0.1187 -0.2222
68380W        W11433   7.745   1.289  17.854  0.0265  0.0146 -0.1551
68381W        W11434  25.411  14.117  21.718 -0.1051 -0.2089  0.3320
68382W        W11435  10.759  12.483  15.686  0.0177  0.0217 -0.0959
68383W        W11436  16.597   9.009   6.054 -0.3229 -0.1532  0.2890
68384W        W11437  19.197  32.400  15.550 -0.0134  0.2890  0.1642
68385W        W11438  28.607  17.477  13.852 -0.3813  0.0195 -0.0115
68386W        W11439  24.544   4.276  14.370  0.1879 -0.1983  0.0838
68387W        W11440  16.598  13.444  22.803 -0.0457  0.0127  0.1831
68388W        W11441   0.875  33.308  16.009  0.1055 -0.2721  0.2977
68389W        W11442  17.307  21.048  21.511  0.0952 -0.2818 -0.0592
68390W        W11443  10.621  11.894   9.236  0.0846 -0.0704  0.3283
68391W        W11444  21.357  19.503   4.667  0.5359  0.1102 -0.3252
68392W        W11445  31.033  27.860  20.116 -0.1788 -0.1774  0.5016
68393W        W11446  19.526  33.744  22.384  0.2660  0.1181  0.3025
68394W        W11447  21.657  15.902  25.548  0.0037 -0.0246  0.1657
68395W        W11448  11.303  12.448  20.942  0.1788  0.4341 -0.2274
68396W        W11449  15.968   0.295  26.608 -0.1208 -0.3045  0.1518
68397W        W11450  18.346  25.585   4.635  0.1250  0.0600 -0.2485
68398W        W11451  11.130  15.776   6.745 -0.2871  0.0998 -0.1244
68399W        W11452  33.456  32.822  22.900  0.0397 -0.3572  0.1630
68400W        W11453  25.354  19.087  15.685 -0.0706  0.0326  0.0469
68401W        W11454  29.446   5.283   0.045  0.1707  0.1420 -0.2867
68402W        W11455  14.660   6.846  27.030  0.0276  0.0436  0.2202
68403W        W11456  14.173  26.550   0.090  0.1994 -0.1391 -0.0129
68404W        W11457  28.907  11.332  14.659 -0.3604  0.0772 -0.0060
68405W        W11458  12.509  28.060   6.223 -0.1426 -0.2410 -0.0708
68406W        W11459   7.127  16.403  29.008 -0.0058  0.3475 -0.1042
68407W        W11460  10.289   9.429  27.655 -0.0086  0.2601 -0.1061
68408W        W11461  12.647  32.991  16.256  0.3712 -0.0657  0.2554
68409W        W11462  28.036  27.613  26.291  0.2048 -0.1987  0.0525
68410W        W11463  22.694  12.846   0.888  0.0470 -0.2869  0.5774
68411W        W11464   9.784  30.465   5.732  0.1344  0.4124  0.1849
68412W        W11465   7.300   1.537   7.086 -0.2817 -0.2878 -0.2154
68413W        W11466  22.702   0.356  15.418 -0.1517 -0.1856 -0.0306
68414W        W11467  25.150  33.952  25.426  0.0147  0.1535 -0.0848
68415W        W11468   3.628   8.520  15.298 -0.0359  0.3539 -0.0028
68416W        W11469  15.075  33.196   9.504 -0.1734  0.1721 -0.1522
68417W        W11470  26.982  27.099  18.829  0.0562 -0.2424 -0.1499
68418W        W11471  15.484   2.206  23.309  0.1372 -0.3978  0.1235
68419W        W11472  25.634   5.318   0.991 -0.1246  0.2634 -0.1616
68420W        W11473  13.971   2.767   5.566  0.0369  0.3180 -0.1531
68421W        W11474  21.234  31.471  19.905 -0.2468  0.0554 -0.1653
68422W        W11475  20.599  26.904  19.519  0.0240  0.4411 -0.0324
68423W        W11476  20.053   6.722  16.333 -0.0314 -0.1799 -0.3692
68424W        W11477  24.068  10.419  14.558 -0.0597  0.4491  0.0725
68425W        W11478  23.081   3.204  28.880 -0.0318  0.1311 -0.1517
68426W        W11479  19.988  12.294   0.528 -0.4210 -0.2443 -0.1167
68427W        W11480  10.913  32.720  28.508 -0.0213  0.1701  0.1294
68428W        W11481  34.124  30.915  21.037 -0.2573  0.0829  0.1823
68429W        W11482  13.010  26.501  16.750  0.0322 -0.2281  0.3554
68430W        W11483   9.569  18.530   5.167 -0.1331  0.1459 -0.0040
68431W        W11484  17.404  15.385  14.541 -0.1797  0.0166  0.1352
68432W        W11485   8.236   6.723  18.240 -0.0938 -0.2024  0.1086
68433W        W11486  17.698   0.211   0.406  0.0317 -0.2319  0.1671
68434W        W11487  25.487  28.433  19.830 -0.2186  0.1312 -0.0290
68435W        W11488  23.908   9.999   3.970  0.0746 -0.0140  0.0861
68436W        W11489  11.374  26.030   6.092  0.1346  0.1087  0.0447
68437W        W11490  13.374  13.717  22.365 -0.0806 -0.1213 -0.0505
68438W        W11491  23.211   4.404   9.502 -0.0280 -0.1333  0.0589
68439W        W11492  23.106   2.085  18.798  0.0961 -0.0850 -0.1413
68440W        W11493   7.679   4.305   1.628  0.2240  0.2841 -0.0399
68441W        W11494   1.867  18.249  18.287  0.1282  0.0263  0.0064
68442W        W11495  18.974   9.763  15.630  0.2858 -0.2570 -0.0582
68443W        W11496  10.199  26.303  26.133 -0.2807 -0.1254  0.2886
68444W        W11497  15.360  10.833  19.007  0.1495 -0.0169  0.1109
68445W        W11498   3.859   1.216  21.988 -0.1037  0.0388 -0.0867
68446W        W11499  28.438   3.274  23.579 -0.2062 -0.0454  0.0968
68447W        W11500  26.216  32.624  18.454 -0.0976  0.1211  0.2700
68448W        W11501  30.262   6.571   2.265 -0.4261  0.0735 -0.1717
68449W        W11502  31.316   1.995  25.786 -0.1876 -0.3250  0.1024
68450W        W11503  28.458  32.787   4.781  0.1231  0.2672  0.2416
68451W        W11504  23.925  17.028  14.236 -0.3722  0.3412 -0.0760
68452W        W11505   8.611  21.290  26.128 -0.1628  0.0683 -0.2265
68453W        W11506  11.499   7.995  28.687  0.0613 -0.0156  0.0168
68454W        W11507  15.785  28.380  19.447  0.2398 -0.0741 -0.2299
68455W        W11508  20.478   3.450  23.319 -0.1257  0.0541 -0.0558
68456W        W11509  19.442  13.711   8.760 -0.4022  0.0550 -0.0123
68457W        W11510   9.390   4.560  28.164 -0.1629 -0.1029  0.0847
68458W        W11511  24.768  11.518  19.541 -0.1381 -0.2431 -0.1015
68459W        W11512  28.005  20.485   9.478  0.2282  0.2637 -0.2087
68460W        W11513   9.118   6.317  20.625  0.1904 -0.1185  0.0411
68461W        W11514  23.113  18.997  19.462 -0.1072 -0.3137  0.0413
68462W        W11515  18.866  23.614  16.887 -0.0504 -0.1204  0.2302
68463W        W11516  14.926  20.352  14.732  0.0999  0.0891  0.1476
68464W        W11517  13.566  32.381   9.321 -0.2190  0.0605  0.4139
68465W        W11518  33.952  27.801  21.814 -0.1065  0.0154 -0.3640
68466W        W11519   1.905  14.469  21.556 -0.0449 -0.0959 -0.0566
68467W        W11520  10.888  31.177   3.174  0.2287 -0.1977 -0.3783
68468W        W11521   6.104  29.241  13.889  0.0938  0.2535 -0.1128
68469W        W11522  20.278   1.485   5.950  0.2643  0.4948 -0.1172
68470W        W11523   5.992  27.093  27.512  0.4335  0.1716  0.0228
68471W        W11524  23.778   0.053  27.488 -0.0406  0.1320 -0.1417
68472W        W11525   2.332  33.803  15.224  0.0646  0.1084 -0.0455
68473W        W11526  25.333  14.216  27.388  0.2040 -0.2538 -0.3127
68474W        W11527   9.585  34.337  19.124 -0.1858  0.3318  0.1529
68475W        W11528  26.465  32.376  19.558 -0.2410  0.2072  0.0099
68476W        W11529  30.469   4.932   6.972  0.1899  0.1131  0.2465
68477W        W11530  27.905   3.457  27.861 -0.3670 -0.1641 -0.6504
68478W        W11531  25.110   5.748  16.395 -0.1109 -0.1388  0.1973
68479W        W11532  21.587  16.516  28.818 -0.2059 -0.0240 -0.1264
68480W        W11533  14.951   4.685  23.578 -0.4133 -0.0246 -0.3072
68481W        W11534  11.885   9.246  26.831 -0.0475 -0.0035  0.0657
68482W        W11535  12.970   3.696   3.842 -0.0612  0.0891  0.0966
68483W        W11536  20.449  33.153   5.825  0.1242 -0.3720  0.2125
68484W        W11537  32.875   7.609  20.001 -0.0202 -0.0582  0.1956
68485W        W11538  29.178  12.501  28.140 -0.2233 -0.0713  0.0477
68486W        W11539  22.705  27.994  16.204  0.0433 -0.1864  0.1383
68487W        W11540  26.064   1.186  13.929  0.4376  0.1227 -0.2578
68488W        W11541  25.334   5.032   4.555  0.0348  0.2704  0.0431
68489W        W11542  14.848   6.107  19.602  0.2434  0.2958  0.5911
68490W        W11543  12.952   6.819   5.831 -0.1312 -0.3008 -0.0354
68491W        W11544   4.437  12.348   2.221  0.1034  0.1056  0.1565
68492W        W11545  26.667   7.920  21.488 -0.1424  0.1733  0.1548
68493W        W11546  28.165   4.365  27.981  0.2622  0.0083 -0.0455
68494W        W11547  11.066  25.962  14.344  0.2271 -0.2298 -0.2647
68495W        W11548   5.847  23.671   4.218 -0.0841 -0.2337  0.0575
68496W        W11549   9.700  13.721  23.251  0.0399  0.2431 -0.0464
68497W        W11550   6.392  16.441  17.162 -0.3274  0.1851  0.0499
68498W        W11551  18.048   6.040  25.487 -0.0312 -0.0463  0.1570
68499W        W11552   1.976   7.029  16.800 -0.1475  0.2181  0.0624
68500W        W11553  26.899   1.664  28.464 -0.1296  0.1478  0.1425
68501W        W11554  26.274   6.272  28.028 -0.0907 -0.0613  0.1352
68502W        W11555  15.450  28.510  15.120  0.4495 -0.2917 -0.0338
68503W        W11556  26.206   6.378  17.087  0.2922  0.0002  0.1886
68504W        W11557  16.431   1.894  29.021 -0.1703 -0.6005  0.3973
68505W        W11558  31.842   7.308  18.197 -0.0784  0.0837  0.1555
68506W        W11559  32.666  31.542  23.298  0.1532 -0.0297 -0.1550
68507W        W11560  23.576  32.555  22.808 -0.4033  0.0799  0.0192
68508W        W11561  19.730  21.934  17.170 -0.0964 -0.0048  0.0587
68509W        W11562  26.574  28.150  21.577  0.1563  0.1928 -0.3088
68510W        W11563   9.191  26.297   2.746 -0.0785 -0.0015 -0.0717
68511W        W11564  33.375  12.155  26.343 -0.2254  0.3180 -0.2213
68512W        W11565  31.019  16.648  27.248 -0.2660  0.0095 -0.3923
68513W        W11566  20.933  26.890  24.093 -0.1922  0.0745  0.1482
68514W        W11567  22.836   7.008  15.028 -0.2034  0.0966  0.2463
68515W        W11568  21.330   8.643  14.985  0.0922  0.1851 -0.0459
68516W        W11569  24.844  29.713  18.386 -0.1056  0.3286 -0.2508
68517W        W11570  13.816   1.910  17.330 -0.0302 -0.2010 -0.0837
68518W        W11571   5.071  26.348  25.832 -0.1675  0.3073  0.1204
68519W        W11572  17.358   2.976   0.914  0.1797  0.2665  0.2298
68520W        W11573  21.246   7.293   4.272  0.2837  0.3037 -0.1751
68521W        W11574   9.078  33.137  18.645  0.3496 -0.0242  0.1256
68522W        W11575  31.396  12.890  24.275 -0.3925 -0.3105 -0.1260
68523W        W11576  12.829   2.192  23.276  0.0139 -0.0896  0.0707
68524W        W11577  24.258   8.096  24.339  0.1493  0.0027 -0.0518
68525W        W11578  21.105  31.660   8.302  0.2092  0.1168 -0.1618
68526W        W11579  15.118   6.180   3.532 -0.0430  0.3015  0.0068
68527W        W11580  15.767   0.783  19.556 -0.1447  0.1482  0.0150
68528W        W11581  23.370  12.214  23.989 -0.2232 -0.3922  0.0053
68529W        W11582  14.824   7.327  21.129 -0.0438  0.0889  0.2817
68530W        W11583  11.098  11.705  28.585  0.0977 -0.0107  0.0733
68531W        W11584  27.381  17.594  22.850 -0.2757 -0.1282 -0.0619
68532W        W11585  16.853   6.120   4.362 -0.0438 -0.1957 -0.6045
68533W        W11586  28.593   4.265  21.926  0.2370  0.2559  0.1155
68534W        W11587  15.880  15.631  24.723 -0.0662 -0.2589 -0.1189
68535W        W11588  29.894  34.022  16.630  0.0184  0.1512 -0.2252
68536W        W11589   2.145  27.334  14.210 -0.3305  0.0441 -0.0811
68537W        W11590  28.921  30.449  26.426 -0.0264 -0.1219  0.2822
68538W        W11591  10.188  19.802  15.066 -0.0041  0.0209 -0.5498
68539W        W11592   7.225  30.790  23.744  0.3403  0.0487  0.1915
68540W        W11593  24.631  33.220  21.157  0.1511 -0.1626  0.0430
68541W        W11594   2.571   9.516   1.649 -0.0518 -0.3036  0.0680
68542W        W11595  19.719  31.999  27.435 -0.0256 -0.1728 -0.1257
68543W        W11596   2.772  23.883   3.612  0.1566  0.1841 -0.0555
68544W        W11597   9.558  11.402   2.798 -0.0457 -0.2785 -0.0271
68545W        W11598   6.729  22.680  24.933 -0.1065  0.1214  0.0052
68546W        W11599   1.025  34.203  16.420 -0.3005 -0.3907  0.2308
68547W        W11600  10.860   9.835  16.502 -0.0516 -0.1821  0.1127
68548W        W11601  33.698   3.035   8.768  0.1499  0.1140 -0.0541
68549W        W11602  11.069  28.251  17.587 -0.1484  0.2651 -0.1232
68550W        W11603  33.049  33.727  28.833  0.0597  0.0718  0.0546
68551W        W11604  16.940  33.137  27.112 -0.0160  0.1725 -0.0926
68552W        W11605  19.224  27.563  21.813  0.4436 -0.1107 -0.2999
68553W        W11606  27.417   0.492  15.255 -0.0906  0.0509 -0.0527
68554W        W11607   9.072  29.310   8.619  0.2642 -0.0744 -0.1188
68555W        W11608   4.059  11.185  21.311 -0.1517 -0.0026 -0.3731
68556W        W11609   9.978  14.397  24.008 -0.2806 -0.0181  0.1424
68557W        W11610  11.018  19.346  13.503 -0.0331 -0.0056 -0.0287
68558W        W11611  18.773  34.440  14.493  0.2233 -0.0281  0.1809
68559W        W11612  20.692   9.118   0.055 -0.1906  0.1090 -0.3754
68560W        W11613  15.214  29.095   9.976  0.3086  0.1714  0.1426
68561W        W11614  12.523  12.887  23.092 -0.3719  0.0234 -0.0246
68562W        W11615  26.732  23.549   3.860  0.1922 -0.2821  0.1246
68563W        W11616   6.205  15.071  18.443 -0.0212 -0.1462  0.0025
68564W        W11617  16.263   7.518   0.998  0.2989 -0.1310  0.1717
68565W        W11618  15.596  30.878  23.756 -0.2233  0.0724  0.1887
68566W        W11619   9.218  27.438  23.053  0.1048  0.1517 -0.0471
68567W        W11620  34.483   6.684   3.467  0.0246 -0.0491 -0.2003
68568W        W11621   7.003  24.865  22.199  0.2882 -0.3181  0.1784
68569W        W11622  13.930  21.050  25.815 -0.1438 -0.3849  0.2267
68570W        W11623  14.353  26.066   1.717  0.5333 -0.1539  0.2121
68571W        W11624  22.243   9.848  24.664  0.0327  0.4683 -0.0133
68572W        W11625  31.836   8.106   2.170 -0.0163  0.0443 -0.2061
68573W        W11626  34.295   3.159  27.827 -0.4533 -0.0524  0.0634
68574W        W11627  17.970   7.515  23.780  0.1069 -0.0727 -0.2054
68575W        W11628  25.167  21.109   3.863  0.1834 -0.0856 -0.2372
68576W        W11629  12.738  21.401  18.484 -0.2583 -0.1735 -0.1968
68577W        W11630   1.490  16.706  26.176  0.0960 -0.2408 -0.0814
68578W        W11631  13.257  10.535  16.267 -0.0039  0.1883 -0.0931
68579W        W11632  13.472  22.303  28.849 -0.1688  0.0381 -0.2942
68580W        W11633  20.700   6.971  15.785  0.2844  0.2329  0.3690
68581W        W11634   5.893  33.223  27.687  0.0236  0.1338  0.2901
68582W        W11635  13.214   6.811  22.992 -0.0181  0.1035 -0.1391
68583W        W11636  29.608   6.814  24.074  0.3091  0.0588 -0.0851
68584W        W11637   9.687  23.390  22.874 -0.0075 -0.1644 -0.0954
68585W        W11638  17.457   6.140  23.427 -0.0785 -0.0559 -0.0320
68586W        W11639  14.776   3.038  14.167 -0.2233 -0.2473 -0.2232
68587W        W11640  20.093  11.663  15.090 -0.0695  0.0565  0.0541
68588W        W11641  16.362  24.145  20.568 -0.3686 -0.0008  0.0292
68589W        W11642  30.552  25.502  19.310 -0.2595  0.2364 -0.1375
68590W        W11643  22.916  34.276  19.524  0.1244 -0.0677 -0.2432
68591W        W11644  21.222  21.334  26.384  0.2005 -0.1121  0.0406
68592W        W11645  11.739   9.720  27.728  0.3416 -0.0239 -0.0536
68593W        W11646   9.801   2.384   1.725  0.0711  0.2648 -0.2044
68594W        W11647  27.608  31.777  20.991  0.0041  0.1894  0.0194
68595W        W11648  14.866  22.832  23.974 -0.2539 -0.2202 -0.2911
68596W        W11649   8.101  34.063  15.033 -0.1183 -0.2366  0.0164
68597W        W11650   0.706   2.724   2.486 -0.0926  0.1905 -0.1859
68598W        W11651  33.362  13.673  16.485 -0.2677  0.0539  0.1111
68599W        W11652   8.837   1.342  26.229 -0.1458 -0.4108  0.5038
68600W        W11653   4.102  29.066  25.189 -0.0782 -0.3133  0.1059
68601W        W11654  16.545  33.287  18.897 -0.2129 -0.3869 -0.1924
68602W        W11655  19.967  23.615   3.155  0.0311  0.1608  0.0365
68603W        W11656  33.783  14.064  28.982 -0.0502 -0.0052  0.0855
68604W        W11657   9.196  32.765  19.429  0.1253  0.0678  0.0633
68605W        W11658  14.356  21.924  28.832  0.0600 -0.3455  0.1008
68606W        W11659   5.827   7.715   0.039 -0.0523  0.0959  0.2892
68607W        W11660  15.225   4.932  26.495 -0.1920 -0.2744 -0.3349
68608W        W11661  24.135  20.454  17.980  0.2009  0.2697  0.2035
68609W        W11662  22.310   3.012  25.091  0.2714  0.0876 -0.1331
68610W        W11663  15.185   6.876   9.847 -0.2245  0.0438 -0.2794
68611W        W11664   0.868   6.043  27.040  0.0069  0.0559 -0.0703
68612W        W11665  15.735  27.897  27.546 -0.0847 -0.2036 -0.0822
68613W        W11666   2.308   0.691  17.729  0.0164  0.0731 -0.0247
68614W        W11667  19.651  30.352   1.511  0.1988  0.0953 -0.0562
68615W        W11668   1.555  33.246  15.611 -0.0888 -0.0705 -0.0522
68616W        W11669  14.031  31.483  15.109  0.3895  0.0238 -0.1648
68617W        W11670   5.873  32.166   2.880  0.0320  0.0558 -0.0180
68618W        W11671  21.439   0.979   8.447 -0.3934 -0.0740  0.2237
68619W        W11672  20.886  33.787   0.606  0.0768  0.0528  0.1007
68620W        W11673  12.515  15.721   0.531 -0.1794  0.1746  0.1659
68621W        W11674  31.998  26.361   2.843 -0.2059  0.2827 -0.1589
68622W        W11675  15.284  10.102  26.603 -0.1009  0.2692  0.0647
68623W        W11676  20.407   5.433  26.623 -0.2465 -0.2244 -0.1199
68624W        W11677  30.500  21.070  22.482  0.2001 -0.1567  0.1437
68625W        W11678  28.673   8.722   8.107  0.0478 -0.0401 -0.1100
68626W        W11679  16.005  32.652  14.013 -0.1907  0.1598 -0.0296
68627W        W11680  10.007  20.429  27.317 -0.2413 -0.0191  0.3657
68628W        W11681  26.439   4.312  16.049  0.1209  0.0855  0.0668
68629W        W11682  17.389   3.911  27.263 -0.0099 -0.1066  0.2147
68630W        W11683  27.540  33.287  22.026  0.0410 -0.2332  0.0918
68631W        W11684  10.510   2.763  24.771  0.1933 -0.2957  0.0048
68632W        W11685  32.019  11.746   9.196  0.2085  0.0612  0.0026
68633W        W11686  25.651   5.312   0.452  0.0338 -0.2581  0.0560
68634W        W11687  11.674   1.912   0.689  0.0015 -0.2072  0.1237
68635W        W11688  30.337   2.719  22.865  0.0316  0.2246 -0.1363
68636W        W11689  21.961  18.675  20.947  0.0516  0.1323 -0.3024
68637W        W11690   7.625   2.682  18.783  0.0045  0.1423  0.0839
68638W        W11691  29.495  34.522  13.759  0.1826  0.2355  0.0382
68639W        W11692  16.991  15.422  27.414 -0.0207  0.1528  0.4291
68640W        W11693   7.669  32.700   7.537  0.0265 -0.0623 -0.1963
68641W        W11694  13.680  15.543  29.113  0.0601 -0.0001 -0.0282
68642W        W11695  15.529  13.653   1.987 -0.1093  0.1447  0.0405
68643W        W11696  23.280  27.512  16.689  0.1798  0.0848 -0.0755
68644W        W11697   8.378  13.463  19.268  0.1880 -0.1252  0.1212
68645W        W11698  14.504   8.238  18.740  0.0411 -0.2599  0.2493
68646W        W11699   9.040  28.402  20.455  0.0359 -0.1332  0.0909
68647W        W11700   3.521  14.033  13.831 -0.0002 -0.5345 -0.2535
68648W        W11701  11.770  10.571  16.557  0.0422 -0.3174 -0.0111
68649W        W11702  18.448  10.199  20.000 -0.2241 -0.2226  0.0710
68650W        W11703   6.550   3.766   0.158  0.5236  0.1772 -0.1850
68651W        W11704   8.329  28.369  20.790  0.1911 -0.0068 -0.2311
68652W        W11705  29.737  34.021   8.487 -0.0397 -0.0538  0.4668
68653W        W11706  17.820  32.825   8.486 -0.1800  0.3579  0.2156
68654W        W11707  17.936  29.447  17.457  0.0261 -0.0006 -0.0217
68655W        W11708  26.243   6.008  16.072  0.2352  0.0118 -0.1945
68656W        W11709   0.269   7.733  22.765 -0.2068  0.0697  0.0155
68657W        W11710  30.689  14.300  19.786 -0.1555  0.2884  0.0262
68658W        W11711  30.490  34.297  14.154 -0.1762  0.2034 -0.0484
68659W        W11712   8.971  33.673  25.843 -0.1133  0.0607  0.0890
68660W        W11713  14.908   5.587  27.551 -0.3101 -0.0718 -0.2148
68661W        W11714  31.214  26.522  17.346 -0.0691 -0.2013  0.1638
68662W        W11715  19.588   4.818  20.212 -0.0321 -0.2600  0.1724
68663W        W11716  30.565  26.937  21.400 -0.3144  0.1086 -0.3778
68664W        W11717  24.932   8.829   3.829 -0.2559 -0.2630 -0.0368
68665W        W11718  29.342  31.690   4.378 -0.3299  0.0877 -0.2150
68666W        W11719  23.871  13.090  19.083  0.1969  0.2421  0.0118
68667W        W11720  10.224   2.445  17.128  0.2093 -0.1188  0.1743
68668W        W11721  13.492   1.045  26.443  0.0138  0.0985 -0.0840
68669W        W11722  33.037  31.835  24.048  0.1669  0.4859  0.2127
68670W        W11723  12.401  25.294  21.307 -0.0430  0.1614 -0.2626
68671W        W11724  18.835  22.222  25.651  0.0896  0.1075 -0.0825
68672W        W11725  14.384  20.850  15.471 -0.0242  0.1022 -0.0739
68673W        W11726  16.025  27.894  27.916  0.0486 -0.0231 -0.0496
68674W        W11727   0.630  21.383  24.741 -0.0814  0.0157  0.1022
68675W        W11728   9.067   0.878  19.126  0.2012  0.1070  0.3359
68676W        W11729  26.075  26.551   0.841 -0.0277  0.1063 -0.0794
68677W        W11730  21.744   1.401   2.380 -0.0423 -0.2116 -0.0414
68678W        W11731   6.097  10.617  16.683 -0.1771  0.3010 -0.3230
68679W        W11732  15.799  27.913  14.532 -0.1826 -0.0486  0.2604
68680W        W11733  13.957   2.323   7.141  0.3828 -0.1644 -0.1908
68681W        W11734   4.378  25.056   4.385 -0.0372  0.0533 -0.0628
68682W        W11735  23.775  17.394  28.614  0.1488  0.1540 -0.1227
68683W        W11736  26.629   1.456  15.210  0.0420  0.1074  0.1961
68684W        W11737  11.920   8.930  28.894  0.1781 -0.0021  0.0567
68685W        W11738  17.368  28.817  26.588  0.3013  0.0363  0.1231
68686W        W11739  18.152   2.439  17.601  0.1853 -0.1119 -0.0339
68687W        W11740  10.806   4.494  28.116  0.1094  0.0132 -0.1896
68688W        W11741  19.953  16.259  27.810 -0.3145  0.2987  0.1065
68689W        W11742  25.361   6.817  14.714  0.0872 -0.2979 -0.0079
68690W        W11743  31.154  31.579  27.282  0.3298 -0.3719  0.1688
68691W        W11744  25.236   1.159  20.315  0.3774 -0.0556  0.1271
68692W        W11745  12.794  10.113  18.641 -0.2939 -0.5022 -0.0945
68693W        W11746  20.033  12.066  19.201 -0.2464  0.1244  0.0476
68694W        W11747   8.739  18.056  23.199 -0.0381  0.0401  0.2433
68695W        W11748  19.013  30.058  22.285  0.3254 -0.3127 -0.1933
68696W        W11749  19.555  30.256  27.370 -0.0200 -0.0519 -0.0629
68697W        W11750  19.558  32.486   0.045 -0.4074  0.2976  0.0030
68698W        W11751  16.623   3.510   9.772 -0.0059  0.2915 -0.1056
68699W        W11752   7.237   5.114  22.362  0.1499  0.4865 -0.1010
68700W        W11753  14.862  16.415  21.890 -0.3996 -0.4955 -0.3396
68701W        W11754  14.389  30.525   9.753 -0.0614 -0.0932  0.2706
68702W        W11755  20.626  25.490  18.102  0.0061  0.0805 -0.0586
68703W        W11756  15.954   8.584  20.634 -0.0357  0.2518  0.3826
68704W        W11757  16.311   7.339  26.592  0.0923 -0.2829  0.2670
68705W        W11758  11.977  27.987  16.670  0.1540  0.0300  0.1256
68706W        W11759  20.992   4.739   1.418 -0.0793 -0.1122 -0.0408
68707W        W11760  20.700   2.678  26.584  0.1532  0.0368 -0.1862
68708W        W11761   7.113   9.853  28.876  0.3206  0.1779  0.0044
68709W        W11762   8.756  31.485   4.169 -0.0365  0.0657 -0.1736
68710W        W11763  16.567  23.990  25.009  0.0819 -0.2136 -0.2933
68711W        W11764  23.041   1.651  15.460 -0.3352 -0.0200  0.2304
68712W        W11765   2.726   0.919  26.115 -0.0691 -0.0773  0.4643
68713W        W11766  29.902   1.185  25.353  0.2393 -0.1336 -0.1840
68714W        W11767  13.546  10.552  15.187 -0.1583  0.0205  0.0454
68715W        W11768  24.430  33.667   6.411 -0.3877  0.1519  0.1781
68716W        W11769   6.657  24.264  25.554 -0.0207 -0.0104 -0.1985
68717W        W11770  13.174  12.452   3.308 -0.0155  0.0871  0.2789
68718W        W11771  17.735  34.219  22.197 -0.0847  0.1554 -0.0212
68719W        W11772  14.212  19.251   3.879 -0.0668 -0.3625 -0.1671
68720W        W11773  11.160  26.112   3.101 -0.1235 -0.2012  0.0493
68721W        W11774  17.000  33.410  25.935  0.3188 -0.3601 -0.0606
68722W        W11775   7.488  23.375  17.263 -0.2070  0.0925 -0.0509
68723W        W11776   3.155  30.218  19.241  0.0189  0.1335  0.1007
68724W        W11777   6.980  10.180  26.694 -0.0261 -0.1418 -0.0918
68725W        W11778   8.330  33.338   6.423 -0.1916  0.0490 -0.1563
68726W        W11779  17.231  11.928   5.435  0.1018  0.3674 -0.0229
68727W        W11780  18.483  28.834  21.226  0.2283 -0.0418  0.0850
68728W        W11781  18.430  30.081  17.902 -0.1436 -0.2150 -0.1579
68729W        W11782  21.392   0.955  15.701  0.0692  0.2130 -0.0079
68730W        W11783   8.247   6.279  20.501 -0.2543 -0.0943 -0.0953
68731W        W11784  23.566   4.697   3.319  0.0661 -0.1087 -0.2053
68732W        W11785  12.508   6.948  28.951 -0.0811  0.1002 -0.0358
68733W        W11786  10.729  32.890  10.057  0.2930  0.1808  0.2377
68734W        W11787  10.763  14.771  20.053 -0.3165 -0.1442  0.1342
68735W        W11788   9.966  22.656  16.042  0.0805 -0.2359  0.0566
68736W        W11789  18.799  32.286  27.298  0.0119  0.0291 -0.2469
68737W        W11790  24.283   3.770   3.639  0.4031  0.0571 -0.1512
68738W        W11791  31.522   0.422  25.919  0.1752  0.0974 -0.2629
68739W        W11792   7.256   9.765  21.271 -0.1551  0.0504  0.3021
68740W        W11793  23.087  33.709  25.528  0.4239  0.0050  0.0232
68741W        W11794  18.644  23.172  22.609  0.4336  0.1953  0.0315
68742W        W11795  29.958  29.611   6.504  0.1561  0.1503  0.2373
68743W        W11796  22.476  21.643   2.847 -0.3652  0.1431  0.1496
68744W        W11797  16.219  31.348  23.347  0.2236 -0.2267  0.1515
68745W        W11798  12.185  31.148   1.581 -0.1325 -0.0502 -0.1072
68746W        W11799   5.605  28.192  17.683 -0.1046 -0.0695 -0.1695
68747W        W11800  19.988   0.002  17.603 -0.2752  0.1695  0.0994
68748W        W11801  25.892  23.324  27.749  0.1827  0.2775 -0.3298
68749W        W11802  12.061   3.295  14.128  0.3216  0.0195  0.0830
68750W        W11803  16.705  11.790   6.633  0.0195  0.1229 -0.0402
68751W        W11804  25.757   0.196   0.144  0.2266 -0.4312 -0.3251
68752W        W11805  20.474  14.328   0.008 -0.1502  0.1722  0.3227
68753W        W11806   8.621   2.065  19.983  0.1860 -0.2984 -0.4257
68754W        W11807   0.345   1.134   2.534  0.0384 -0.2147  0.0036
68755W        W11808  29.018   5.895  19.232 -0.5048 -0.1726  0.1198
68756W        W11809  15.321  28.047  28.381 -0.2895  0.0601 -0.0136
68757W        W11810   6.162  16.155  26.010 -0.2017  0.3362  0.1085
68758W        W11811  16.436  20.333  14.407 -0.0107 -0.0802 -0.2299
68759W        W11812  27.680  27.605  21.952 -0.2173 -0.0354  0.0100
68760W        W11813  11.900  25.340  21.199 -0.2801  0.0561  0.0706
68761W        W11814  12.091  23.083  15.646  0.1066  0.1772 -0.1439
68762W        W11815  19.826   7.804  21.948  0.0584 -0.0095 -0.0829
68763W        W11816   8.725  33.007  19.523 -0.1603 -0.1355 -0.1288
68764W        W11817   7.015   3.622   2.599  0.2686  0.1388 -0.1723
68765W        W11818  31.735  31.406   6.461 -0.0058 -0.1178 -0.0856
68766W        W11819  20.983  33.882  27.799 -0.1026 -0.0008 -0.3578
68767W        W11820   7.922   9.963  20.534 -0.0501  0.7176  0.2288
68768W        W11821   5.202  28.440  20.526 -0.0601  0.1311 -0.2217
68769W        W11822  15.132  34.344  20.827  0.1264 -0.0178  0.4209
68770W        W11823  29.550   8.587  24.610 -0.0356 -0.0602 -0.0191
68771W        W11824  30.017  13.769  16.939  0.0584  0.0559  0.2928
68772W        W11825   8.229  11.836  22.081 -0.0461 -0.5282  0.0308
68773W        W11826  15.612  15.125   1.764 -0.0883 -0.4453  0.1487
68774W        W11827  25.028  27.930  19.350  0.0832  0.0715  0.4767
68775W        W11828  28.872   3.837  26.000 -0.2471 -0.3273  0.2200
68776W        W11829   7.285  19.789  19.705 -0.1218  0.0966  0.0649
68777W        W11830   8.795   6.078  28.314 -0.3881  0.1187 -0.1386
68778W        W11831   2.564  10.183   4.462 -0.1143 -0.4756 -0.2523
68779W        W11832   6.806   4.833  10.130  0.0923  0.0322  0.0067
68780W        W11833  21.237   8.799  23.944 -0.0152  0.1094 -0.0693
68781W        W11834  26.611   2.629  27.889 -0.2782 -0.0378  0.1418
68782W        W11835  24.508  34.651  28.109 -0.0947 -0.0584 -0.2937
68783W        W11836  13.983  13.629   4.879  0.0145 -0.0007  0.0365
68784W        W11837  25.792  13.136  24.006  0.2929 -0.1226 -0.0216
68785W        W11838  13.822   6.963  27.097  0.0315  0.0759 -0.1809
68786W        W11839  15.155  31.174  26.542  0.2600 -0.2083 -0.0265
68787W        W11840   6.475  15.681   7.309  0.4773  0.0908 -0.0870
68788W        W11841   7.186  25.188  13.657 -0.0460  0.0590  0.2046
68789W        W11842   4.038  31.267  25.434  0.1911 -0.1564 -0.0491
68790W        W11843  14.923  32.932  22.298 -0.0596  0.0071  0.2340
68791W        W11844  30.887  10.550   5.701 -0.1940  0.0059 -0.1749
68792W        W11845  19.357  27.915  23.678  0.0625 -0.0418  0.1894
68793W        W11846  23.906  15.256   0.933 -0.3488 -0.1783  0.1202
68794W        W11847   8.738  33.438  24.046 -0.1423  0.2370 -0.2923
68795W        W11848   4.043   7.683   3.821 -0.2269  0.3642 -0.1053
68796W        W11849   1.351  11.282  18.945 -0.0350 -0.0131 -0.0554
68797W        W11850  16.190  13.246  22.140  0.0014  0.0387 -0.3546
68798W        W11851  12.947  34.531   6.914 -0.0735  0.0966 -0.2000
68799W        W11852  12.227  32.517  17.651  0.0137  0.2568 -0.0468
68800W        W11853   5.211   6.118  21.571 -0.2432 -0.1544 -0.1491
68801W        W11854  24.922  33.637   5.085 -0.5253 -0.1640  0.0737
68802W        W11855  25.129  12.833  26.966  0.0344  0.1210 -0.0661
68803W        W11856  23.114  33.753   3.744 -0.0441  0.1220 -0.4338
68804W        W11857   8.383  14.332  27.482 -0.0491  0.1020  0.1490
68805W        W11858  11.409   8.357  24.840 -0.2958 -0.0967  0.0951
68806W        W11859  21.716  26.430  28.610 -0.3075  0.1814 -0.4333
68807W        W11860  21.000   5.362   5.801  0.3008  0.1995 -0.1619
68808W        W11861   3.463  24.653  19.574 -0.0655 -0.2874  0.1489
68809W        W11862  17.891   9.134   4.893  0.2188 -0.0335 -0.0852
68810W        W11863   3.547   1.265   1.541  0.0247  0.1619 -0.1941
68811W        W11864  17.402  18.865   2.846  0.1790  0.0829 -0.0271
68812W        W11865  13.701  19.806  23.550 -0.1072 -0.2289 -0.0354
68813W        W11866  27.517  11.533  21.752 -0.0042 -0.0809 -0.0502
68814W        W11867  32.769  22.528  20.193 -0.2918  0.3116 -0.0094
68815W        W11868   7.575   4.883   3.799 -0.1349 -0.1262 -0.0819
68816W        W11869  32.943  31.662  27.033 -0.2039  0.3243  0.0599
68817W        W11870  15.042   3.692  16.500 -0.0795  0.0363 -0.2111
68818W        W11871  12.344  18.500  15.733  0.0718  0.1265  0.0221
68819W        W11872   5.274   4.938   4.179 -0.0631 -0.2438 -0.2090
68820W        W11873   4.189   7.083  23.762  0.1516 -0.0406 -0.2502
68821W        W11874  13.035  34.068  10.195  0.0994 -0.2317 -0.6248
68822W        W11875   8.313  27.978  22.141 -0.0956 -0.0370  0.3959
68823W        W11876   3.181  34.356   1.050  0.1972 -0.1992 -0.0766
68824W        W11877   7.457   4.954   3.264  0.1788  0.1377 -0.3968
68825W        W11878  14.442  10.441  22.725  0.0440  0.3227  0.1423
68826W        W11879  19.168   5.037  17.770  0.2863 -0.2163  0.1518
68827W        W11880  18.262  23.390   4.242 -0.1551  0.1796  0.0029
68828W        W11881  14.495   8.858  22.614  0.0226  0.0570  0.0878
68829W        W11882  10.084   4.021   6.886  0.1063  0.3439 -0.3100
68830W        W11883  29.572  22.270   6.641  0.0922  0.0478  0.1480
68831W        W11884  18.376  12.151   0.928  0.2116  0.1402 -0.2370
68832W        W11885  17.812  33.925  20.565 -0.1022 -0.2478 -0.0721
68833W        W11886  22.414  30.884  28.521 -0.0381  0.2525 -0.0265
68834W        W11887  23.106   9.137  15.759  0.0235  0.2547  0.2422
68835W        W11888   4.281   7.021   3.158 -0.1046  0.0097 -0.1052
68836W        W11889  15.094  19.730  14.163 -0.0579 -0.0620 -0.0677
68837W        W11890  22.840  11.090   2.431 -0.0244 -0.0009  0.0179
68838W        W11891  11.640   0.321   4.517 -0.0857  0.2177 -0.3053
68839W        W11892  13.461  24.373   5.079  0.1857 -0.0667  0.0668
68840W        W11893  16.619   6.111  10.326 -0.1064  0.0012  0.2282
68841W        W11894  19.569  22.489  19.062 -0.2617  0.2828  0.2082
68842W        W11895  15.046  16.634   9.163 -0.2261 -0.1319  0.0342
68843W        W11896  13.345   7.107   9.445 -0.3264 -0.1669  0.0907
68844W        W11897  12.253  26.150  14.374  0.2631  0.2617  0.3152
68845W        W11898  21.214  33.417   5.234  0.3828  0.0211  0.2192
68846W        W11899   7.529  15.511   1.758 -0.1780  0.1349 -0.3068
68847W        W11900  25.020  14.874  14.257  0.0801  0.2825 -0.0654
68848W        W11901   4.099   5.040  24.386  0.0512 -0.2690 -0.2398
68849W        W11902  11.794   4.752  27.924  0.0370  0.2382 -0.1177
68850W        W11903  18.337   3.365  23.977 -0.0441  0.1647 -0.0760
68851W        W11904  14.211  33.274   4.866 -0.3306 -0.0700  0.0050
68852W        W11905  23.194  32.255  26.442  0.0901 -0.0088 -0.1919
68853W        W11906   0.762  26.073   5.474 -0.1499  0.1476 -0.1384
68854W        W11907  23.759   5.953  20.081  0.1219  0.2860  0.1525
68855W        W11908  26.896  31.893  14.797 -0.1377  0.0721  0.2446
68856W        W11909  16.739   2.309  22.614  0.2147  0.3683  0.1465
68857W        W11910   9.096  11.984   1.604 -0.3071 -0.2026 -0.0567
68858W        W11911  17.193   1.218  17.304 -0.2889  0.3028  0.2171
68859W        W11912   5.028   0.420  14.190 -0.1099  0.0505  0.0940
68860W        W11913   8.611  23.838   1.144 -0.3308 -0.1187  0.0779
68861W        W11914  33.824   5.940  21.727  0.0288 -0.4047 -0.1929
68862W        W11915  19.844   7.106   1.955  0.1962  0.1164 -0.2023
68863W        W11916  32.450  31.986  27.702  0.2067  0.2870  0.0615
68864W        W11917  22.050  12.928   0.585  0.1978 -0.0383  0.1643
68865W        W11918  22.263  32.391   3.533  0.1284  0.0006  0.1158
68866W        W11919  17.165  14.409  25.774 -0.0690 -0.3403 -0.0520
68867W        W11920  17.798  16.352   0.566  0.1563 -0.0238  0.0683
68868W        W11921   2.014  25.720   1.420 -0.2662  0.1077 -0.1681
68869W        W11922  28.865   2.854  28.701  0.2206 -0.2104  0.1056
68870W        W11923  22.626   6.794  22.987  0.1339 -0.0206  0.2351
68871W        W11924  16.564   4.443  21.420  0.0434  0.1383  0.0246
68872W        W11925  29.606   9.754   0.345  0.0971 -0.3543 -0.0246
68873W        W11926   7.758  27.001  21.373  0.2638 -0.0563  0.0310
68874W        W11927  21.340  32.386  14.867 -0.2576  0.0656 -0.2390
68875W        W11928  20.440  17.499  26.242 -0.1284  0.2202 -0.0543
68876W        W11929  18.952   8.395   7.430 -0.0268  0.3338 -0.0304
68877W        W11930  13.651  28.680  20.059 -0.2797  0.1327 -0.3820
68878W        W11931   9.308  18.479   0.778  0.0070  0.1495  0.2000
68879W        W11932  12.324  20.785  24.086  0.5562  0.2507 -0.1680
68880W        W11933   7.910  33.255  26.747  0.0135 -0.0410  0.0321
68881W        W11934   7.007  33.902   6.823 -0.1596 -0.0067 -0.0077
68882W        W11935  29.016  28.790   2.509  0.0530 -0.1361 -0.1871
68883W        W11936   7.457   4.025   4.483 -0.0219  0.2710 -0.0920
68884W        W11937  26.283  16.842  17.728  0.2874  0.1447  0.3130
68885W        W11938  17.766  14.766  24.286 -0.3301  0.1041 -0.0359
68886W        W11939  20.799  32.796  17.758 -0.0523 -0.2008  0.1542
68887W        W11940   6.904  18.529  19.165 -0.3103  0.0275  0.2110
68888W        W11941  16.415   1.078   9.156 -0.0604 -0.1724  0.1347
68889W        W11942  17.321   2.785  16.474  0.1024  0.0489 -0.1492
68890W        W11943  27.133   5.477  28.855 -0.0805 -0.1763 -0.0936
68891W        W11944  16.629   1.738  17.983  0.1419 -0.0565  0.0592
68892W        W11945  29.936  25.355   0.171 -0.2048  0.2136  0.2499
68893W        W11946  23.175  10.336   9.451  0.3681 -0.0545  0.2230
68894W        W11947   4.925  30.625   2.145 -0.1628 -0.0001  0.3099
68895W        W11948  24.005  12.309  28.919 -0.1183 -0.1450 -0.0552
68896W        W11949  27.018   4.839  25.819 -0.1279  0.0109 -0.0953
68897W        W11950   9.423  12.646   3.743  0.2894  0.1826 -0.1586
68898W        W11951  20.677  12.857   1.991 -0.4195  0.0233 -0.0182
68899W        W11952   7.050  24.317   2.899 -0.3366  0.1497 -0.0869
68900W        W11953  29.394  11.049  15.387 -0.2392 -0.1039  0.0018
68901W        W11954   6.905  26.435  26.265 -0.1025 -0.1970 -0.1987
68902W        W11955  32.433   7.812   4.416 -0.1185  0.1864 -0.2151
68903W        W11956  14.086  32.459   7.796  0.4452 -0.0755 -0.0333
68904W        W11957  24.038  31.318   0.728 -0.3034  0.0048 -0.1227
68905W        W11958  13.276   9.281  22.565 -0.1577 -0.2230 -0.1805
68906W        W11959   2.581   1.420  16.585  0.3166 -0.1149 -0.0594
68907W        W11960  17.162  27.427   3.688  0.0132 -0.0242 -0.3564
68908W        W11961  20.269  31.204  10.633 -0.1024  0.0920  0.2435
68909W        W11962  25.545  16.588  27.181  0.0217 -0.0717  0.0744
68910W        W11963   0.195  27.534   0.070  0.2137 -0.0342  0.0919
68911W        W11964  14.165   2.525   7.793  0.0587 -0.1073 -0.0065
68912W        W11965   3.164   8.043  10.089  0.2899  0.2075 -0.1460
68913W        W11966  12.295  27.012  24.967  0.0933 -0.0192 -0.3012
68914W        W11967  15.345  15.447  26.231  0.1780 -0.1953  0.1557
68915W        W11968  19.318  31.969   4.068 -0.0613  0.3266 -0.0746
68916W        W11969  15.007  17.266  27.039 -0.0864  0.2650 -0.1563
68917W        W11970  20.100  18.129  23.259 -0.4163  0.0309  0.2783
68918W        W11971  15.166   2.086   4.180  0.1341 -0.1464  0.1265
68919W        W11972  14.544  30.790  17.643 -0.2000  0.0542  0.0947
68920W        W11973  21.943  13.932   5.579 -0.0474  0.0700 -0.2366
68921W        W11974  24.454   9.682  26.605 -0.2036 -0.0372  0.1672
68922W        W11975  15.990  32.475  23.079 -0.0445  0.0835 -0.1184
68923W        W11976  22.007   7.579  27.705 -0.2233  0.1540 -0.2470
68924W        W11977  12.513  29.490   3.112  0.0655  0.1634 -0.0471
68925W        W11978  26.174   8.897  19.586  0.1625  0.0081 -0.0653
68926W        W11979  10.429  24.200   6.141  0.1521 -0.1392 -0.1295
68927W        W11980  12.412  25.185  20.209  0.0685  0.3531 -0.0409
68928W        W11981  13.924  25.646   4.768  0.1291 -0.1143  0.0932
68929W        W11982  13.666  34.072   4.612  0.0750  0.0576 -0.0884
68930W        W11983  25.207  34.608   7.107  0.0243 -0.0531 -0.4372
68931W        W11984   1.069  10.687  29.155 -0.0970 -0.1596  0.3031
68932W        W11985   8.059  17.621   8.649  0.1051  0.0649  0.0025
68933W        W11986  29.063   6.883  10.066 -0.0931  0.0383  0.0966
68934W        W11987  12.201   0.776  26.039  0.1594 -0.2285 -0.2109
68935W        W11988   1.899  20.792  15.471  0.1780  0.0784 -0.0176
68936W        W11989  18.961  17.166  14.054 -0.1144  0.0745 -0.0743
68937W        W11990   8.434  34.491  16.673 -0.3288  0.0109  0.2902
68938W        W11991   1.315   2.399   1.039  0.0614 -0.0042  0.0163
68939W        W11992  11.387  11.412  19.011 -0.0745 -0.1587 -0.2161
68940W        W11993   8.735  30.156  17.206  0.1151 -0.2176  0.0767
68941W        W11994   7.652   0.469  17.673 -0.0656 -0.0166  0.0111
68942W        W11995  23.112  12.720  24.437  0.3822  0.1517  0.2840
68943W        W11996  22.790   3.321   0.605  0.0370 -0.1742 -0.0461
68944W        W11997  25.476   0.436  23.308 -0.3458  0.1646 -0.1092
68945W        W11998   6.121   1.011   4.926 -0.0593  0.0609 -0.1484
68946W        W11999  16.064  18.402  26.801 -0.2428 -0.2835 -0.0195
68947W        W12000   8.047   6.942  25.458  0.0059 -0.0341 -0.1125
68948W        W12001  27.148  13.314  26.357 -0.0800  0.2719  0.1494
68949W        W12002  15.241   7.838   5.718  0.3208  0.1908 -0.1114
68950W        W12003  18.444   5.616   1.567  0.1145 -0.0633 -0.0946
68951W        W12004  19.453  32.024   7.148  0.2601  0.0606  0.1108
68952W        W12005  19.851  29.706   6.940 -0.2673 -0.0951  0.2785
68953W        W12006  15.233  27.450  19.056  0.1301 -0.3021 -0.2081
68954W        W12007  18.137   1.311  15.581  0.1076 -0.2113  0.0651
68955W        W12008  33.217  19.492  20.498 -0.2895  0.1037  0.1014
68956W        W12009   1.449  24.371   2.838 -0.0416  0.3745 -0.3063
68957W        W12010  15.487  11.126   6.476  0.0537 -0.2667  0.0237
68958W        W12011  25.525  19.414  16.025 -0.1885  0.0735 -0.1869
68959W        W12012  17.327   9.600  25.580  0.0028 -0.0915 -0.4191
68960W        W12013  21.634   4.047  26.202 -0.0245  0.3076 -0.0131
68961W        W12014  33.740   0.894  28.334 -0.2769  0.0184 -0.0664
68962W        W12015  11.338  24.081  21.023  0.0648 -0.2997  0.0568
68963W        W12016  16.993  28.612  25.018  0.1442  0.0096  0.1006
68964W        W12017  18.907  21.758  24.467  0.1254 -0.0932  0.0782
68965W        W12018  23.148   0.876   7.738  0.2466  0.0646  0.0858
68966W        W12019  23.629  10.568  16.273  0.0612  0.0599 -0.0710
68967W        W12020  13.053  27.271   2.332  0.1465 -0.1655  0.1382
68968W        W12021   2.606  31.475  22.706  0.1972  0.1472 -0.1707
68969W        W12022   8.002   6.986   6.003 -0.0428 -0.2090 -0.2032
68970W        W12023  32.849  25.421  19.290  0.0689 -0.3188 -0.1474
68971W        W12024  25.347   1.766  26.311 -0.0924  0.1164 -0.1497
68972W        W12025  13.485  25.828   4.568  0.2428 -0.0675  0.2337
68973W        W12026  27.765   1.435  28.560 -0.1677  0.0438  0.3024
68974W        W12027  20.456  33.136   1.051  0.0801 -0.0085 -0.2647
68975W        W12028  17.876  27.137   0.279  0.0519 -0.2694  0.0777
68976W        W12029   7.938  10.542  18.999 -0.3160 -0.0979 -0.0817
68977W        W12030  19.630  25.357   4.335  0.3247 -0.0983  0.1578
68978W        W12031  15.039  33.140  17.444  0.2735  0.1846 -0.1730
68979W        W12032   4.439  30.956  15.377  0.1476 -0.0933 -0.0773
68980W        W12033   8.223  19.062   0.051  0.1068  0.0623 -0.0744
68981W        W12034  12.689   1.092  20.845 -0.1209  0.2109  0.0593
68982W        W12035  22.530   6.723  24.730  0.0051 -0.0709  0.0642
68983W        W12036   8.220   7.132   8.138 -0.1131 -0.0168  0.0083
68984W        W12037  13.487   9.904  20.558 -0.3800  0.3716 -0.0863
68985W        W12038   9.176  28.423   8.189  0.0793 -0.2189 -0.4575
68986W        W12039   2.223  26.545   0.444  0.1600 -0.1166  0.0787
68987W        W12040  26.334  34.067  19.183  0.1496  0.0479 -0.3146
68988W        W12041  21.895  22.447   5.442 -0.1937  0.1878  0.0258
68989W        W12042  17.612  26.954  22.865  0.1157 -0.0380 -0.0188
68990W        W12043  18.458   3.143  19.708  0.0258 -0.1093 -0.3428
68991W        W12044   9.649   1.687   5.380 -0.2281 -0.1343  0.1579
68992W        W12045  29.158   3.611  23.659  0.3608 -0.1329 -0.0921
68993W        W12046   1.905  12.657  23.558 -0.1442 -0.4249  0.1640
68994W        W12047  32.075  15.197  21.364 -0.0955 -0.2491  0.2705
68995W        W12048  11.177  22.164   6.168 -0.2950  0.0286 -0.2929
68996W        W12049   6.854   7.836  28.257 -0.0513 -0.3130 -0.2570
68997W        W12050  21.915   9.136  27.651  0.0346 -0.0121  0.2885
68998W        W12051  21.664   1.735  18.705  0.0068  0.1488  0.1828
68999W        W12052  16.546  26.277  28.869  0.0389  0.0890 -0.2610
69000W        W12053  16.334  31.028  15.383  0.0022  0.0795  0.0190
69001W        W12054  23.964   5.530   9.383 -0.0763 -0.1261  0.1909
69002W        W12055   7.077  26.957   3.621 -0.0895 -0.1701  0.0574
69003W        W12056  19.532  23.503  20.942  0.1528 -0.1078 -0.0492
69004W        W12057  13.838   4.310  14.737  0.2917  0.1561  0.0725
69005W        W12058   9.563  20.746  14.332  0.2923  0.2668  0.0761
69006W        W12059  29.201   5.651  14.984  0.0198  0.1709  0.1677
69007W        W12060  24.014  30.925  14.762 -0.4344 -0.0547 -0.2383
69008W        W12061  11.269   5.659  17.040  0.1934  0.2476  0.0825
69009W        W12062  30.976  30.509  24.445  0.0192 -0.1505  0.2063
69010W        W12063  16.182   6.619  21.259  0.0995 -0.1098  0.0915
69011W        W12064   5.256   5.315   7.973 -0.0105 -0.0964  0.0496
69012W        W12065  24.291  20.526   1.166  0.2368 -0.1146 -0.2657
69013W        W12066  10.574  28.304   4.769  0.1515 -0.3276  0.0624
69014W        W12067  27.522  33.610  27.316 -0.0215 -0.0124  0.1775
69015W        W12068  31.093  23.621  25.221 -0.0765 -0.2137  0.0447
69016W        W12069  14.884   7.297  27.164 -0.1095  0.0636 -0.2201
69017W        W12070  13.197  31.369  20.320 -0.0579  0.0071 -0.0825
69018W        W12071   7.201  30.562   3.765 -0.2436 -0.1935 -0.0108
69019W        W12072   0.174   5.342  24.904 -0.1764 -0.0229 -0.0886
69020W        W12073  12.289  31.577   3.233  0.0890  0.0880 -0.1420
69021W        W12074   2.898   9.218  17.943 -0.0427  0.0146  0.0671
69022W        W12075   7.245   4.124   1.458  0.2152 -0.1108 -0.1228
69023W        W12076   9.984  24.562  19.425  0.0013  0.1495 -0.2232
69024W        W12077   2.596   4.557  24.414 -0.1325  0.3993  0.0434
69025W        W12078  24.219   9.805  13.880 -0.1198 -0.1110  0.1635
69026W        W12079  32.998  24.288  27.148 -0.1170  0.0278 -0.3134
69027W        W12080  12.546  30.497   4.136  0.0048 -0.0286 -0.3062
69028W        W12081  14.485  11.841  29.067  0.1015  0.0091 -0.0777
69029W        W12082  21.692  14.211  24.323  0.1039 -0.1375  0.1166
69030W        W12083   7.940  29.715  15.489 -0.3088 -0.1904 -0.2707
69031W        W12084   2.459   3.017  18.110  0.2790  0.0584  0.0548
69032W        W12085  10.981  15.060   5.474 -0.1425  0.1821 -0.3597
69033W        W12086  16.595  33.049  25.915 -0.1020  0.1770  0.1202
69034W        W12087   8.864   3.319  22.148 -0.1183  0.6315  0.0098
69035W        W12088  18.193  25.551  27.508 -0.2307  0.2960 -0.2022
69036W        W12089  17.885   5.833   7.563  0.0871 -0.0275 -0.3912
69037W        W12090  13.346   3.190  25.373 -0.0086 -0.0276  0.3008
69038W        W12091  10.830  20.668  18.776  0.1686 -0.1642 -0.1512
69039W        W12092  18.786  29.722   4.679  0.0270  0.2160 -0.0058
69040W        W12093  22.358   6.771   6.047 -0.0291 -0.0084  0.1675
69041W        W12094  12.660   0.929  26.830 -0.0925 -0.1344  0.2301
69042W        W12095  23.251  33.240   7.211 -0.1140 -0.2561  0.0397
69043W        W12096  29.458   4.597  18.657  0.0380  0.4271  0.2440
69044W        W12097  18.357   3.371  26.971  0.0150 -0.2577 -0.1613
69045W        W12098   9.765   9.248   0.981  0.1135 -0.2213 -0.0592
69046W        W12099   2.159  19.429   4.619  0.0131 -0.1458 -0.1080
69047W        W12100  22.537   7.964  28.126 -0.0735 -0.1430  0.1560
69048W        W12101  15.795  24.702  25.495 -0.1826 -0.1843 -0.2123
69049W        W12102   6.869  17.479   7.776 -0.1393 -0.0244  0.1665
69050W        W12103  15.674   3.894  27.302  0.2306 -0.1107 -0.3710
69051W        W12104  14.627  19.844   3.193 -0.0313  0.2318 -0.2158
69052W        W12105   5.831   2.431  24.584  0.0214 -0.2406  0.4861
69053W        W12106  17.430  12.494   1.212 -0.2983 -0.0534 -0.0873
69054W        W12107  11.080  10.232  25.622 -0.0397  0.1295  0.3084
69055W        W12108  20.386   1.395  20.147 -0.2215 -0.1453  0.0509
69056W        W12109  16.095  18.372   2.956  0.1037  0.2058 -0.1592
69057W        W12110  25.494  15.814  19.720  0.1208  0.0412 -0.1193
69058W        W12111  10.135  25.093  26.503  0.1196  0.2857 -0.0361
69059W        W12112   4.603  28.947  16.687 -0.1171  0.3345  0.3895
69060W        W12113  17.463  24.121   1.671 -0.1559 -0.0229 -0.0797
69061W        W12114  10.954  16.409  28.847  0.0396 -0.0240 -0.1111
69062W        W12115  10.684  24.400  23.778 -0.0427 -0.4206 -0.2315
69063W        W12116  12.806  26.439  23.979  0.2668  0.0848  0.1650
69064W        W12117  17.977  31.991  24.224 -0.0134 -0.2460 -0.0666
69065W        W12118  20.754  20.524  24.228  0.1241  0.2240 -0.1093
69066W        W12119  23.310   9.825  15.991 -0.0638 -0.0533 -0.0549
69067W        W12120   5.043   2.900  26.903 -0.3005  0.1393 -0.1197
69068W        W12121   5.248  13.770  14.727  0.2612 -0.0993 -0.1669
69069W        W12122  11.231  10.097  15.233  0.0624  0.0714  0.0211
69070W        W12123  13.369  30.041   9.902 -0.2531  0.2995  0.2475
69071W        W12124  32.222  21.073  24.896 -0.1920 -0.2128 -0.3472
69072W        W12125  15.136  25.326  17.472  0.0592 -0.1893 -0.1065
69073W        W12126  25.836  26.808   6.788 -0.2393 -0.3351 -0.2808
69074W        W12127   9.913  21.420   3.678 -0.0148 -0.0233  0.0288
69075W        W12128  13.102   4.693   8.239 -0.1456  0.0954 -0.0800
69076W        W12129  17.703   1.608   1.838  0.1893 -0.2123  0.0224
69077W        W12130  13.300  12.704   0.638 -0.0970  0.2711 -0.1672
69078W        W12131  18.817  29.891  23.504  0.1538 -0.0224  0.2079
69079W        W12132  27.681   0.524  17.885  0.1442  0.5436 -0.1482
69080W        W12133  21.671  26.903  28.976  0.0131 -0.0909 -0.3430
69081W        W12134  14.526  24.076  18.122  0.1128 -0.0928  0.0186
69082W        W12135  21.891  25.272  25.639  0.0672  0.1141  0.1936
69083W        W12136  25.426  26.479   8.752  0.0883 -0.1579 -0.3170
69084W        W12137  28.579   7.157  22.641  0.0152 -0.3390  0.3397
69085W        W12138  21.867   5.533   7.320  0.2795 -0.1677 -0.2147
69086W        W12139  19.757  28.815  17.335  0.3367 -0.5860  0.1859
69087W        W12140  19.632   0.124   2.691  0.1769  0.3679 -0.1053
69088W        W12141  13.436  10.828  10.519 -0.4037 -0.1727 -0.0642
69089W        W12142  26.004  11.918   0.596  0.1740 -0.1756 -0.0378
69090W        W12143  15.855  30.355   3.416  0.0251 -0.0765 -0.1235
69091W        W12144  21.361  23.967  17.421 -0.0485  0.0223 -0.0026
69092W        W12145   7.552  31.185  28.602  0.0653 -0.3268  0.0224
69093W        W12146  19.370  29.455   5.712  0.1419 -0.1285 -0.3439
69094W        W12147  20.447  28.240   6.295  0.0161 -0.0581 -0.0288
69095W        W12148  10.725   5.753   4.073 -0.2135  0.0664 -0.3027
69096W        W12149   6.605   8.388  26.529  0.2084 -0.2693 -0.0281
69097W        W12150  19.651  23.172   2.328  0.0016 -0.2530 -0.1882
69098W        W12151  14.139  32.288  20.117 -0.1958 -0.0251  0.1100
69099W        W12152  17.823  34.214  23.197  0.2400  0.1252  0.1218
69100W        W12153  23.541   5.526  16.185  0.5012 -0.1665 -0.0974
69101W        W12154   8.229   1.129   1.873  0.1722  0.1698 -0.0318
69102W        W12155  24.153  11.807  26.601  0.0657  0.1084 -0.3708
69103W        W12156  17.976   3.987   7.176  0.0417  0.2158  0.0408
69104W        W12157  27.003  33.932  23.694  0.0287 -0.0741 -0.1198
69105W        W12158  22.272  22.126  22.427  0.3366  0.1048 -0.2110
69106W        W12159  21.124   8.890  23.382  0.1594  0.0184 -0.0473
69107W        W12160  14.682  18.707  27.017 -0.2787  0.0016  0.0441
69108W        W12161  25.261  18.746  28.307 -0.0007 -0.2295  0.0375
69109W        W12162  16.688   7.256   3.283 -0.2118 -0.1160 -0.1296
69110W        W12163  25.419  18.909  18.077  0.0888 -0.1274 -0.1677
69111W        W12164   7.893   6.113  22.862 -0.1920  0.5253  0.2683
69112W        W12165  20.139  14.770   8.548 -0.0369 -0.0974 -0.2093
69113W        W12166  16.699   2.737  26.258 -0.1968  0.0020  0.2141
69114W        W12167  12.976   2.619   2.978  0.0334 -0.1734  0.1588
69115W        W12168   9.951  10.297  10.505 -0.3185 -0.0922  0.0516
69116W        W12169   1.373  29.220   5.491  0.0195 -0.2936 -0.1108
69117W        W12170  12.409  29.030  26.002 -0.0146 -0.1082  0.1295
69118W        W12171   9.623   2.533  21.409 -0.0321  0.1341  0.0329
69119W        W12172   4.866   6.025  24.423  0.3189 -0.0093 -0.0093
69120W        W12173  24.869  32.228  26.558 -0.1487  0.0444  0.3872
69121W        W12174   9.703  13.925  21.706 -0.3050 -0.2134 -0.1156
69122W        W12175   9.394  12.402  27.071 -0.1881  0.0368  0.4496
69123W        W12176  20.175  30.909  22.168 -0.2096  0.0916 -0.2144
69124W        W12177  17.169  28.942   9.907  0.0573  0.2564 -0.2089
69125W        W12178  13.520   4.606   3.178  0.1357  0.2685 -0.2083
69126W        W12179  13.891  34.328   1.300  0.1121 -0.1874 -0.0141
69127W        W12180  29.415   5.823  26.169 -0.1397 -0.0086  0.1285
69128W        W12181  12.460  18.757  21.629 -0.0439  0.3764  0.2048
69129W        W12182  22.958   9.888   6.285 -0.2722 -0.0055  0.0458
69130W        W12183  19.350  33.627  14.826 -0.2552 -0.1750  0.0053
69131W        W12184  10.014   9.215  29.173  0.1554  0.0117 -0.3967
69132W        W12185  15.231  21.378  21.839 -0.4127 -0.3889  0.2419
69133W        W12186  22.723   1.339  25.563  0.0940  0.1550  0.0449
69134W        W12187   2.107  31.252  22.912 -0.1091 -0.2789 -0.0575
69135W        W12188  12.511  24.534   0.642  0.0327  0.0127 -0.1101
69136W        W12189  20.978   1.246   0.969 -0.2279 -0.1330 -0.1199
69137W        W12190  23.545   0.982   1.173 -0.2999 -0.1352  0.1799
69138W        W12191   8.014   3.440   2.380 -0.2412 -0.0436  0.1182
69139W        W12192  10.176  29.798   4.128 -0.4851  0.2355  0.0996
69140W        W12193   6.968   8.527  16.137 -0.0959  0.4224 -0.0491
69141W        W12194  12.311   1.666  13.826  0.0483  0.1146  0.1952
69142W        W12195  19.684  28.022   6.327 -0.1515 -0.0210  0.3248
69143W        W12196  14.203  14.960  15.248  0.1453  0.0796  0.4364
69144W        W12197  34.457   5.605  14.816  0.1756 -0.1323  0.1068
69145W        W12198  22.456   2.195  27.591 -0.0452  0.0542 -0.2629
69146W        W12199  12.646  34.179   7.053 -0.1767 -0.1240  0.1593
69147W        W12200  14.293   9.689   6.844 -0.0884 -0.0723 -0.0205
69148W        W12201  25.593   4.912  16.866 -0.0925 -0.1659 -0.0463
69149W        W12202  23.870  32.021   8.522  0.0626 -0.1461 -0.1342
69150W        W12203  13.669   7.774   1.425  0.1295 -0.1671  0.1859
69151W        W12204  13.734  28.279   2.811  0.0648 -0.2743 -0.2737
69152W        W12205  17.927  25.295  22.671 -0.4231  0.1755 -0.4075
69153W        W12206  31.614   7.002  27.878  0.3756 -0.1752 -0.2796
69154W        W12207  14.505  34.167  26.448 -0.2150  0.2663 -0.2353
69155W        W12208  25.797  26.933   7.826 -0.2346 -0.0376 -0.3548
69156W        W12209  18.066  30.093  24.544 -0.0890  0.2240  0.2056
69157W        W12210  14.993   2.571  15.097 -0.0161 -0.1771  0.1170
69158W        W12211  33.025  20.241   6.290  0.1002 -0.0059 -0.0913
69159W        W12212  22.367  30.936  14.262 -0.5302 -0.0547 -0.2038
69160W        W12213  10.259  14.830   6.329 -0.1244 -0.0195 -0.0631
69161W        W12214   7.247   3.254  24.072 -0.3049 -0.1142  0.0294
69162W        W12215   4.677  33.640   9.642  0.0048 -0.1177 -0.0587
69163W        W12216  29.122  33.392   3.384  0.3695  0.0969 -0.2320
69164W        W12217  22.021  26.063  23.904  0.3778 -0.4764  0.1166
69165W        W12218  12.597  15.538   2.363  0.2546 -0.0044 -0.1517
69166W        W12219  19.875   8.705  25.113  0.2464 -0.0740  0.1777
69167W        W12220  12.456  21.024  29.156 -0.1344 -0.0433  0.1431
69168W        W12221  23.395   2.625  14.035 -0.2915  0.0501 -0.1645
69169W        W12222  33.746   7.393   7.654  0.0871  0.0960 -0.2665
69170W        W12223  15.996  11.521   3.782  0.0730 -0.0663 -0.0975
69171W        W12224  30.950   4.592   6.412 -0.1988 -0.1835  0.3039
69172W        W12225   7.947  24.633  27.123 -0.3255 -0.0023 -0.2279
69173W        W12226  11.142   0.402   6.284 -0.0028 -0.0753  0.1513
69174W        W12227  12.198  10.421  19.201  0.0208 -0.0638  0.0196
69175W        W12228  19.131  29.762   7.761  0.1014  0.1247 -0.0869
69176W        W12229  22.549  20.453  26.927 -0.1767  0.0958 -0.2919
69177W        W12230  29.077  25.096  21.762 -0.3165  0.3415  0.2044
69178W        W12231  23.189   3.255   6.014  0.1109 -0.3873  0.0575
69179W        W12232  22.807   0.887  23.811 -0.2444 -0.0012  0.0801
69180W        W12233  12.186   4.352   4.305 -0.1124 -0.2151 -0.0564
69181W        W12234  27.123  12.548   0.496 -0.1365 -0.2963 -0.2220
69182W        W12235  14.002   8.580   6.663 -0.2110  0.3458  0.3069
69183W        W12236  17.376  11.509  28.382  0.3869  0.0791  0.2047
69184W        W12237   0.018  33.071   4.636 -0.0592  0.0529 -0.1998
69185W        W12238  19.837   0.690  26.016 -0.0005 -0.0801  0.0624
69186W        W12239   3.277   2.520  25.533  0.0721 -0.2334 -0.0395
69187W        W12240   7.994  32.453   5.381  0.2260  0.0591  0.0105
69188W        W12241  30.181   7.631   2.437  0.0335 -0.0588 -0.3769
69189W        W12242  23.447  10.846  27.634  0.1137  0.0927 -0.3530
69190W        W12243  24.478  22.714   9.141  0.3304  0.1703 -0.3203
69191W        W12244  19.695   1.054   8.519  0.2267  0.2514 -0.1013
69192W        W12245  23.915  32.764  22.153 -0.1524 -0.2358  0.2783
69193W        W12246   8.924  16.917  25.069 -0.0800  0.2147 -0.3764
69194W        W12247  17.207  33.658   3.276 -0.0860 -0.0206  0.0606
69195W        W12248  21.935  19.023  15.608 -0.4373 -0.1196 -0.4931
69196W        W12249  10.668  12.741   7.577  0.2477 -0.0784 -0.0416
69197W        W12250   3.708  10.907  22.078  0.0483  0.1972  0.0520
69198W        W12251  20.301   9.797  26.507 -0.5171  0.0740  0.0304
69199W        W12252  17.130  19.929  12.961  0.4674 -0.0762  0.0162
69200W        W12253  11.197  21.071   2.229  0.1015 -0.0315  0.2801
69201W        W12254   8.059  22.322  23.211  0.1112 -0.1754  0.1879
69202W        W12255  19.113   3.990   5.855  0.1113  0.0137  0.4398
69203W        W12256  17.206  23.536  22.215 -0.2240 -0.1408 -0.0008
69204W        W12257  20.081   5.763  26.920 -0.3842 -0.0341 -0.3353
69205W        W12258  34.086  16.391  25.910  0.0480 -0.0029 -0.0860
69206W        W12259  18.490  25.275  27.790 -0.0181  0.0987 -0.0815
69207W        W12260  26.611  13.360   5.482 -0.0700  0.0280  0.0733
69208W        W12261  17.926  11.492  26.290 -0.2857 -0.0002  0.1448
69209W        W12262  19.101  22.339  21.670  0.1276 -0.4320 -0.0133
69210W        W12263  23.466   2.373  28.886  0.0355  0.1047 -0.2692
69211W        W12264  28.618  18.236  14.866  0.3254  0.3571  0.0313
69212W        W12265  14.933   2.935  20.251 -0.2157  0.0040 -0.5840
69213W        W12266   7.039  12.678  17.614  0.4378  0.0635 -0.2756
69214W        W12267  23.659  30.588   6.079  0.0781  0.2998 -0.0546
69215W        W12268  18.972  11.464  16.060 -0.0637  0.2130 -0.0697
69216W        W12269  31.895  21.789  20.252 -0.2566  0.1147  0.1394
69217W        W12270  21.339   0.719  28.742  0.1508 -0.2111 -0.0228
69218W        W12271  22.178  15.659  17.297  0.0437 -0.0541  0.2957
69219W        W12272  26.884  10.422   1.140 -0.0010 -0.1038 -0.2113
69220W        W12273  15.920  34.420  27.090  0.2194 -0.0319  0.3339
69221W        W12274  22.824  16.272  17.918 -0.0789  0.2375  0.2566
69222W        W12275  23.855  33.926  28.559 -0.0220 -0.1217  0.2164
69223W        W12276   9.170   3.972   5.472 -0.4950  0.1893  0.0496
69224W        W12277   9.037  32.219   4.705  0.2743  0.1765  0.1819
69225W        W12278  16.738  16.892  14.262  0.2153  0.0586  0.1105
69226W        W12279  14.346   3.479  22.760  0.1421 -0.1192 -0.1191
69227W        W12280  15.664   7.634  20.561  0.2077  0.4964  0.1259
69228W        W12281  26.817  33.934  16.849  0.1085 -0.1640 -0.0002
69229W        W12282  20.006  25.746  27.471  0.3815 -0.0357  0.1764
69230W        W12283  17.551  33.894  14.959  0.0117  0.0158 -0.2098
69231W        W12284  12.767  31.955  14.427  0.0664  0.0324 -0.0757
69232W        W12285  26.473  21.804  17.982 -0.2914 -0.2975  0.2265
69233W        W12286   5.350  15.013  25.865 -0.1226  0.0704  0.0414
69234W        W12287  16.128  22.143  14.834  0.1904  0.0082  0.0690
69235W        W12288  26.904  32.401  17.379 -0.1526 -0.0763  0.1449
69236W        W12289   8.810   1.975  15.288 -0.0642 -0.0790 -0.0262
69237W        W12290  20.590   4.539   1.806 -0.0315  0.2378 -0.1981
69238W        W12291  20.583  19.759  16.383  0.0063  0.1348 -0.0636
69239W        W12292  28.824  33.457  23.700 -0.1527 -0.1789 -0.1031
69240W        W12293  25.422   1.362  16.058 -0.3007 -0.1848 -0.1930
69241W        W12294  15.253   0.661  24.647  0.0170  0.0017  0.2780
69242W        W12295  18.980  29.197   6.774  0.1148 -0.1444 -0.1587
69243W        W12296  13.686  25.412  16.785  0.3219  0.4982  0.0634
69244W        W12297   4.785  13.501  24.030 -0.0654 -0.3107  0.1348
69245W        W12298  14.896  13.023  21.879  0.0652  0.1355 -0.0633
69246W        W12299  28.206  32.104  23.313 -0.2215 -0.1310 -0.1310
69247W        W12300  25.750  31.423  23.488  0.1162  0.0962 -0.4068
69248W        W12301  25.349   0.850  19.492  0.0276 -0.3489 -0.5812
69249W        W12302  25.233  23.332  23.777  0.0069  0.0092  0.0301
69250W        W12303  11.298  10.400  17.325  0.2831 -0.1817  0.0243
69251W        W12304  20.110   4.476   3.927 -0.1827  0.0875 -0.1721
69252W        W12305  32.249  10.426  17.256 -0.1747  0.2540 -0.3000
69253W        W12306  24.867  14.191  25.299  0.1070 -0.0634  0.0777
69254W        W12307  28.192  17.743  16.980 -0.0516  0.1349 -0.2168
69255W        W12308  18.440   1.833  15.795  0.0117  0.1469  0.1983
69256W        W12309  15.765  28.901  22.353 -0.4384 -0.3489 -0.2037
69257W        W12310  11.063  17.775  14.257 -0.0859  0.3109  0.2034
69258W        W12311  21.488   2.504  25.505 -0.1103 -0.2041 -0.2480
69259W        W12312   8.782   7.628  20.911  0.1161 -0.1190 -0.1089
69260W        W12313   7.321  24.295  22.079  0.0140  0.0336 -0.3096
69261W        W12314  24.373  10.756  19.528 -0.0799  0.3053  0.4120
69262W        W12315  22.695  20.728  17.496 -0.2248  0.0161  0.1647
69263W        W12316  25.549  11.136  27.861  0.3144  0.1713 -0.1605
69264W        W12317   5.791  26.801  16.570 -0.0554 -0.1182 -0.0056
69265W        W12318   5.337  33.472   8.969 -0.0747 -0.1368 -0.2626
69266W        W12319  13.198  32.745  16.262  0.2597 -0.2629  0.1525
69267W        W12320  12.745   7.242  15.441 -0.2573  0.0298  0.2290
69268W        W12321  26.314   9.572  20.778  0.3979 -0.2489 -0.3886
69269W        W12322  21.738  24.261   7.505  0.0422  0.0181 -0.1175
69270W        W12323   7.398  10.549  19.693 -0.0492 -0.0320  0.0545
69271W        W12324   7.852  13.608  22.936  0.0567 -0.2674 -0.3267
69272W        W12325  22.789  12.902   3.181 -0.3522 -0.0684  0.0788
69273W        W12326  21.719   7.871  26.046  0.0174 -0.2710 -0.1641
69274W        W12327  25.517  32.847  18.887  0.0151  0.1533 -0.0447
69275W        W12328  16.911   2.811  25.300 -0.1232 -0.0046 -0.2722
69276W        W12329  10.396  28.983  16.076 -0.0770  0.0656 -0.1453
69277W        W12330  14.135  34.330  17.261 -0.1760 -0.1843  0.0275
69278W        W12331  27.048   5.991  27.519 -0.2205  0.1443 -0.2832
69279W        W12332  24.311   3.262  20.263  0.1480  0.1539  0.0268
69280W        W12333   8.357   8.803  18.260  0.0798  0.0861 -0.2394
69281W        W12334  18.463  33.547   5.964  0.3309  0.2688 -0.0433
69282W        W12335  30.359  11.029  23.401 -0.0963 -0.1780  0.2060
69283W        W12336  23.998   2.017  17.385 -0.0023  0.3020 -0.0570
69284W        W12337  25.477   7.263  20.436  0.0390  0.0705  0.0519
69285W        W12338  19.488  30.751  18.955  0.2026 -0.1726  0.2031
69286W        W12339  18.757   6.452  18.871  0.2758 -0.3196  0.2256
69287W        W12340  30.457  10.649  17.721  0.2028  0.0328  0.2880
69288W        W12341  18.340  11.177  28.866 -0.3386 -0.2467  0.3865
69289W        W12342  19.446   7.776  27.398 -0.0475  0.1162 -0.0881
69290W        W12343   7.972   7.231  26.154  0.0567  0.0396 -0.0464
69291W        W12344  19.666  31.020  27.576 -0.0660  0.4235  0.0067
69292W        W12345  15.075   2.788  17.998 -0.1019  0.1909  0.0732
69293W        W12346  14.667  21.898  14.252 -0.2015 -0.0348 -0.2449
69294W        W12347  34.334  33.318  25.441  0.0509  0.1880  0.3015
69295W        W12348  16.580  16.002  25.181  0.0051  0.1441  0.1114
69296W        W12349  22.410  26.246   4.372  0.3815  0.1784  0.0039
69297W        W12350  18.520  11.086  19.815  0.2009  0.1177  0.0632
69298W        W12351   6.982   4.003  18.740  0.1819 -0.1457 -0.1582
69299W        W12352   8.811   7.963   1.661  0.1201 -0.0051  0.3065
69300W        W12353  21.668   7.055  14.497  0.2338  0.1016 -0.0321
69301W        W12354  18.646   3.665  19.039 -0.0962 -0.1248 -0.1054
69302W        W12355  27.685  20.749  28.517  0.0090  0.1753 -0.2425
69303W        W12356  14.963   0.589   1.174  0.0785 -0.0685 -0.1157
69304W        W12357  27.731  21.222  14.517  0.3744  0.0471 -0.0760
69305W        W12358   9.069  34.304  19.257 -0.1023  0.0521  0.1106
69306W        W12359  13.302   5.195  19.102  0.2666  0.3120  0.3194
69307W        W12360  25.862  31.231  24.232 -0.0608  0.1717  0.0747
69308W        W12361   8.697   7.177  21.414 -0.3489  0.2956 -0.0328
69309W        W12362  15.249  17.760  13.461  0.0374 -0.3548 -0.0099
69310W        W12363   6.987  12.476  21.438  0.2800  0.1560 -0.0363
69311W        W12364  16.796   2.159  14.570 -0.0795 -0.2104 -0.0152
69312W        W12365  21.063  10.850   2.063  0.1002 -0.1487 -0.0916
69313W        W12366  25.199  34.165  19.592  0.1013 -0.2550 -0.0908
69314W        W12367   7.861   3.068  17.216  0.1721 -0.0245  0.3859
69315W        W12368  13.954  12.801  23.309 -0.0445  0.3326 -0.2670
69316W        W12369  24.063  33.968  25.959  0.1779  0.2043 -0.2502
69317W        W12370  15.533  21.549  15.854  0.1059  0.0710  0.3520
69318W        W12371  10.105  33.086  15.959  0.2867  0.2661  0.2527
69319W        W12372  10.105  10.105  20.939  0.0752 -0.0664 -0.2278
69320W        W12373  12.528  30.784  20.350  0.4700 -0.1281  0.1032
69321W        W12374  20.475  14.319  13.843 -0.1269 -0.2785  0.1558
69322W        W12375  28.094   4.508  14.770 -0.3386  0.0203  0.2446
69323W        W12376  15.530  33.220  18.659  0.0450  0.1025 -0.1898
69324W        W12377  24.296   4.859   4.425  0.1656  0.0836 -0.1191
69325W        W12378  23.705  14.385  22.807 -0.0251 -0.0067 -0.1092
69326W        W12379   0.140  31.721  24.094  0.0977  0.0514 -0.1646
69327W        W12380  14.275  29.760  14.672  0.1914  0.4049 -0.1143
69328W        W12381  17.077  31.680  23.529  0.0438  0.2479 -0.2322
69329W        W12382  14.013  24.277  19.515 -0.2828  0.2720 -0.2134
69330W        W12383   2.351  28.065   2.436  0.2142 -0.1263 -0.1681
69331W        W12384  24.993  27.203  19.907  0.0585  0.1118  0.0341
69332W        W12385  24.368  19.092  15.716 -0.0161  0.1611 -0.1587
69333W        W12386   8.983   1.756  24.091  0.2843 -0.0739  0.2476
69334W        W12387   6.685  17.474  14.348  0.1498  0.2719  0.0551
69335W        W12388  11.293   2.287  19.438  0.1086 -0.0451  0.2759
69336W        W12389  10.324  27.343   1.628  0.2479  0.0992  0.1206
69337W        W12390  15.088   8.835  29.097  0.3044  0.4032  0.0534
69338W        W12391  12.367   3.026  19.583 -0.0652 -0.1567 -0.1291
69339W        W12392  17.396  18.376  13.402 -0.2167  0.0646  0.0998
69340W        W12393   0.023  10.258  17.441 -0.0832 -0.1302 -0.0149
69341W        W12394  11.651   8.046  21.559  0.2732  0.3129  0.1409
69342W        W12395  22.999   2.254  20.984 -0.0418  0.0518  0.0560
69343W        W12396  19.428  34.286  19.883 -0.5693 -0.1134  0.2508
69344W        W12397  15.842   7.754  26.232  0.0957 -0.0547 -0.2199
69345W        W12398  21.304  29.815  15.782  0.1128  0.0832 -0.3449
69346W        W12399  12.866   2.037  24.933  0.1521  0.3850  0.1793
69347W        W12400  16.952   1.100  20.307 -0.0561  0.1974  0.1382
69348W        W12401  26.985   1.045  14.776 -0.0806  0.0920 -0.1223
69349W        W12402  12.306   4.991  20.571  0.2908 -0.2272  0.0583
69350W        W12403  20.350   8.558  15.059  0.0460 -0.1066 -0.1154
69351W        W12404  25.313  10.749  15.355 -0.0650 -0.0012  0.0747
69352W        W12405  10.425  17.122  13.905  0.0614 -0.0337 -0.3596
69353W        W12406   6.294   5.435  16.485  0.0322  0.1994 -0.3138
69354W        W12407  11.295  13.215  17.888  0.2424  0.1691 -0.2653
69355W        W12408   8.707  27.748  20.075 -0.3048  0.0891 -0.0282
69356W        W12409  15.873   3.723  18.084  0.1366 -0.0303  0.0977
69357W        W12410  33.709  31.066   2.942 -0.1058  0.0305  0.1777
69358W        W12411   2.407  33.141  28.609  0.0809 -0.1477 -0.0812
69359W        W12412  15.181   8.122  21.817  0.0752  0.0768  0.1258
69360W        W12413  22.827   6.614  13.825  0.1952 -0.1257 -0.1918
69361W        W12414  13.116  32.589  19.281 -0.2894  0.0526 -0.1460
69362W        W12415  18.895  33.267  16.001 -0.1964  0.1636  0.1483
69363W        W12416  15.914  34.562   1.040 -0.0919 -0.1722  0.0270
69364W        W12417  25.163   9.424  14.298  0.0083  0.1277 -0.2041
69365W        W12418  19.944  30.332  14.973 -0.1885  0.1476  0.0328
69366W        W12419  15.081  33.114  18.913 -0.0422 -0.1267 -0.2690
69367W        W12420   1.067   5.359  16.896  0.1139  0.1807  0.1055
69368W        W12421  19.266   3.123  24.110 -0.1315  0.0392 -0.1177
69369W        W12422  13.944  22.866   7.951  0.2347 -0.0875 -0.3065
69370W        W12423  24.046  24.733   1.385  0.0926 -0.0790 -0.1244
69371W        W12424  20.101   5.712  20.326  0.0671 -0.3895  0.1449
69372W        W12425  18.187   3.505  18.038  0.1747 -0.2149  0.2135
69373W        W12426  11.872   7.107   0.107  0.0840 -0.1180  0.1592
69374W        W12427  18.921  14.108  24.668  0.3409  0.2410  0.1528
69375W        W12428  11.293   8.979  16.531 -0.1154  0.1613 -0.0237
69376W        W12429  27.121   7.849  17.206 -0.1548  0.2963  0.5182
69377W        W12430   3.886   1.466  26.191  0.2642 -0.3211 -0.2077
69378W        W12431  11.357  27.161  20.184  0.1317 -0.1675  0.1735
69379W        W12432  33.702  31.560   4.009 -0.1075  0.1899  0.0389
69380W        W12433  19.267   1.893  27.184  0.0861  0.0011 -0.0661
69381W        W12434  18.435   4.892  28.346  0.1530  0.1253 -0.3448
69382W        W12435  13.323  27.619   6.113  0.1560 -0.0242 -0.0182
69383W        W12436  13.860  26.191  19.977 -0.0449  0.0599  0.2374
69384W        W12437  29.664   8.637  17.686  0.1394 -0.1003 -0.0793
69385W        W12438  16.488  16.056  28.221 -0.1504  0.2468 -0.1344
69386W        W12439  20.470  32.934  28.824  0.1966  0.0557  0.2714
69387W        W12440  19.460   2.709  21.127  0.3101  0.1183  0.2934
69388W        W12441   9.935   7.965  22.736 -0.0103 -0.4503 -0.2810
69389W        W12442  11.959  33.739  13.843  0.3250 -0.0193 -0.1865
69390W        W12443  20.635  24.444   1.273  0.1832 -0.0553  0.0839
69391W        W12444  12.853  29.373  27.260  0.1248  0.2338 -0.1506
69392W        W12445  11.548  17.021   4.020  0.0169  0.2589  0.1559
69393W        W12446  24.116  31.589  20.473 -0.2830 -0.0739  0.0954
69394W        W12447   9.410  32.988  22.228  0.0889  0.2422  0.1610
69395W        W12448  14.844  28.231  16.323 -0.0608  0.1405  0.0551
69396W        W12449  17.565  32.653  19.158  0.0677  0.4276  0.0832
69397W        W12450   8.529   4.862  22.397  0.1369  0.2451 -0.1830
69398W        W12451   2.173   7.335  18.307 -0.1955  0.2841 -0.0969
69399W        W12452  18.913   1.651   3.192  0.0960  0.1582 -0.0913
69400W        W12453  29.624   1.210  23.960 -0.0203  0.5428 -0.0468
69401W        W12454   5.728  32.411  14.451 -0.0629 -0.0061 -0.0812
69402W        W12455  30.855  14.720  14.762 -0.0249  0.0834 -0.0251
69403W        W12456   1.019  18.758   2.514 -0.1545 -0.1465  0.1024
69404W        W12457  27.587   5.076  19.546  0.0261 -0.2993  0.1274
69405W        W12458  19.900  28.405  22.902 -0.0783 -0.5331  0.0472
69406W        W12459  14.174  16.650  15.131  0.1092 -0.2893  0.1556
69407W        W12460   2.931   0.036  21.684  0.2523 -0.0053 -0.0738
69408W        W12461  17.732  26.783  28.092  0.0406 -0.0547  0.1166
69409W        W12462  14.430   1.806  20.593 -0.0017 -0.1018  0.1901
69410W        W12463  32.142  33.906  14.287  0.0392 -0.0724 -0.0439
69411W        W12464  33.611   4.812  16.662 -0.0391  0.0980 -0.0746
69412W        W12465  15.088  30.718  28.115 -0.1023 -0.1280 -0.0005
69413W        W12466  11.937   4.223  27.725 -0.0173 -0.2000 -0.1072
69414W        W12467  20.427   0.682  22.728  0.1146  0.1313  0.0534
69415W        W12468   2.208   5.683  19.091 -0.2746  0.1597  0.0822
69416W        W12469   8.402   8.526  10.691 -0.1087 -0.3503 -0.0312
69417W        W12470  13.355   0.040  16.942 -0.3025 -0.0793  0.0400
69418W        W12471  16.138   8.902  22.661  0.0051  0.0623  0.0121
69419W        W12472   3.370  28.754  18.785  0.0004  0.2563  0.1832
69420W        W12473  15.140  30.493  21.140 -0.0685 -0.2499 -0.1303
69421W        W12474   2.445  20.478  21.156 -0.0239  0.1126 -0.3068
69422W        W12475  30.997   6.195   2.996 -0.2071 -0.3134 -0.0175
69423W        W12476  14.178  34.194  28.327  0.0436 -0.0894  0.2422
69424W        W12477  29.662  13.452  22.278 -0.1791 -0.2702 -0.0153
69425W        W12478  24.222  31.293  19.627 -0.1961 -0.1928  0.0291
69426W        W12479  22.878  11.649  23.021 -0.1683 -0.2029 -0.1845
69427W        W12480  28.457  29.094  19.567  0.1365  0.2831 -0.0054
69428W        W12481   3.666  29.088  13.777  0.0923  0.2582 -0.0974
69429W        W12482  14.820  11.880  22.688 -0.3101 -0.0507 -0.1253
69430W        W12483   7.046  14.759  21.995 -0.1394 -0.0885 -0.2141
69431W        W12484  16.378  23.585  18.986  0.1026 -0.1246 -0.1356
69432W        W12485   9.883   5.468  21.870  0.2289 -0.0790  0.0130
69433W        W12486   8.200  12.263  27.219 -0.0686 -0.1263  0.0512
69434W        W12487  19.857  27.618  22.653 -0.2768 -0.0093 -0.0767
69435W        W12488  14.128   8.380   9.919  0.0927  0.3454  0.0377
69436W        W12489  11.238  13.710   8.347  0.0524 -0.3130 -0.2823
69437W        W12490   0.902   2.427  24.577 -0.0260  0.0128  0.2682
69438W        W12491  12.655   8.920  28.472 -0.1273  0.0035  0.3930
69439W        W12492   5.926  26.441  20.929  0.1479  0.0255 -0.3529
69440W        W12493   9.705  23.885  14.017 -0.0017  0.4240  0.1852
69441W        W12494  11.613   8.243  15.528 -0.0635 -0.1247  0.0949
69442W        W12495  18.504  18.671  25.008  0.1643 -0.1427  0.1446
69443W        W12496  24.542   7.061  17.440  0.5358  0.0836  0.0093
69444W        W12497  24.374   7.612  17.843 -0.1333 -0.3041  0.2671
69445W        W12498  24.896  10.401  14.651 -0.2623 -0.1699 -0.2036
69446W        W12499  29.148   4.337  26.510 -0.0150  0.1992 -0.1434
69447W        W12500  14.088  11.678  14.794  0.1284  0.0632  0.0583
69448W        W12501  10.758  27.552  21.695 -0.0475 -0.3637  0.0100
69449W        W12502  19.819   0.223  23.769 -0.3151  0.2309 -0.2175
69450W        W12503  25.609  31.024   4.249  0.0949 -0.1849 -0.1825
69451W        W12504  25.584   6.211  25.740  0.0036  0.0026 -0.0445
69452W        W12505  14.803   0.132  27.593  0.1156 -0.1273 -0.1839
69453W        W12506   6.332  15.225   4.067 -0.1199 -0.0931 -0.1464
69454W        W12507  23.544   5.730  20.552 -0.0911 -0.1187 -0.1169
69455W        W12508  11.105  10.509  20.991  0.0179 -0.0722 -0.1278
69456W        W12509  22.639   9.049  16.702 -0.2277 -0.2764 -0.1837
69457W        W12510  11.611  31.607  14.715 -0.0703 -0.0824 -0.0155
69458W        W12511  17.869   5.989  25.980  0.1492 -0.1203  0.0145
69459W        W12512  12.439   3.997  16.055  0.2131  0.2610 -0.0576
69460W        W12513   1.174  32.824   4.358  0.2800 -0.2502  0.0536
69461W        W12514  27.671   0.663  23.619 -0.4123  0.0222  0.1255
69462W        W12515  31.484  27.787  19.409 -0.1899  0.3026  0.3349
69463W        W12516  21.290  23.583   0.752 -0.1496  0.1811 -0.5269
69464W        W12517  24.303  16.733  24.803 -0.2397  0.1804  0.1655
69465W        W12518  28.328  33.533   1.660 -0.5094 -0.0616  0.1264
69466W        W12519   6.429  31.689  22.187  0.1328  0.0442 -0.0697
69467W        W12520  20.120  19.074  22.242 -0.0701 -0.2357 -0.0316
69468W        W12521  25.985  10.681  16.176 -0.1139  0.2277 -0.0748
69469W        W12522  13.531  34.102  25.902  0.2212  0.0850 -0.1908
69470W        W12523  14.769   4.638  26.776 -0.0018  0.1016 -0.2398
69471W        W12524  22.548  13.296  15.733 -0.1779 -0.0256  0.0056
69472W        W12525   8.245  18.429  18.983 -0.0409  0.0418  0.1162
69473W        W12526   6.953   7.710   3.687 -0.1403  0.2081 -0.0754
69474W        W12527   1.774   1.342  26.696  0.0425 -0.1109 -0.2208
69475W        W12528  21.916  10.525  22.963  0.1797 -0.0306  0.3146
69476W        W12529  11.739   4.629  16.482 -0.0235 -0.1529 -0.1231
69477W        W12530  13.844   5.324  20.211 -0.3161 -0.1508  0.1560
69478W        W12531  19.844  15.755  20.785 -0.1559  0.1113 -0.2428
69479W        W12532  16.834  19.397  14.954  0.2091 -0.1563 -0.3572
69480W        W12533  17.556   2.306  16.840  0.1875 -0.0380 -0.2081
69481W        W12534  20.074  12.978  19.469  0.1801  0.3398 -0.1264
69482W        W12535  17.799   4.882  16.603  0.0221 -0.4121 -0.0300
69483W        W12536  14.805   9.073  23.501 -0.0946 -0.1418 -0.2337
69484W        W12537  20.065   2.224  20.419 -0.0664 -0.3562 -0.1198
69485W        W12538  29.549   2.235  28.917 -0.3675 -0.0968 -0.1441
69486W        W12539  21.903   9.852  18.306 -0.1351  0.0772 -0.1176
69487W        W12540  17.342   6.623  26.612  0.1014  0.1636  0.1193
69488W        W12541  10.540   8.215  21.669 -0.0304  0.0526  0.0712
69489W        W12542  18.310  33.542  14.279  0.1414  0.1350  0.3187
69490W        W12543  19.591  31.439  22.246 -0.1825  0.2134  0.2704
69491W        W12544   8.393  11.621  26.551 -0.0680  0.0824 -0.0586
69492W        W12545  19.325  26.988  23.876  0.0627  0.1786  0.0230
69493W        W12546  13.434   4.402  18.178  0.3171  0.1049  0.1820
69494W        W12547  30.497   7.515  19.903  0.0786 -0.0178 -0.1503
69495W        W12548  32.893   3.544   0.758 -0.2445 -0.0185 -0.2699
69496W        W12549  12.651  12.842  23.636  0.1288 -0.1349  0.1608
69497W        W12550  12.742  14.669  16.118 -0.2322  0.0480 -0.0810
69498W        W12551  23.568  17.968  17.845 -0.2401 -0.0185 -0.3540
69499W        W12552  12.960  31.869   4.995 -0.1779  0.1979 -0.1883
69500W        W12553  21.415   6.823  25.582 -0.1632  0.1249  0.1326
69501W        W12554  11.873   5.240   5.680  0.2105 -0.0231  0.0172
69502W        W12555  21.582  33.197  22.121  0.1559  0.1045  0.0774
69503W        W12556  15.956   1.587   9.502 -0.0146 -0.1617  0.2108
69504W        W12557  21.421   8.640  25.309 -0.1338  0.0287  0.1828
69505W        W12558  34.096  34.541  19.784  0.0308  0.0872  0.0491
69506W        W12559  14.143  15.099  15.770 -0.0688 -0.3348  0.2943
69507W        W12560  30.721  31.896  23.414 -0.1500 -0.3494  0.0370
69508W        W12561  21.659   6.954  21.604  0.0886 -0.1679 -0.3686
69509W        W12562   8.710  12.469  24.249 -0.0664  0.1134 -0.3175
69510W        W12563  11.208  15.661  17.887 -0.1465  0.1483 -0.0251
69511W        W12564   6.720   6.700  20.486 -0.1642  0.0249 -0.0668
69512W        W12565  26.034  17.103  17.297  0.1410 -0.1008  0.1870
69513W        W12566  19.981  19.047  15.727 -0.0316 -0.0403 -0.2816
69514W        W12567  21.619  11.994  26.112  0.0573 -0.1417 -0.2023
69515W        W12568  19.505   1.903  20.019  0.2385  0.0925 -0.1272
69516W        W12569   8.681  33.516  26.208 -0.1158 -0.0340  0.1274
69517W        W12570  16.833  24.932  17.109 -0.4018  0.2152 -0.0875
69518W        W12571  16.808   8.314  25.456 -0.0784  0.0419  0.0331
69519W        W12572  17.504  31.296  21.588 -0.1086 -0.0072 -0.1593
69520W        W12573   9.876  28.341  21.450  0.1160 -0.2580 -0.1038
69521W        W12574  20.857   3.526  28.884  0.1013  0.1860 -0.0454
69522W        W12575   7.834  18.948  24.915  0.1833 -0.0914 -0.1284
69523W        W12576  10.059  33.979  16.392  0.1567  0.0160 -0.0965
69524W        W12577  15.434  30.297  25.751  0.0195  0.0207  0.1095
69525W        W12578  24.686  33.271  16.167  0.1880  0.0675  0.0151
69526W        W12579  15.967  24.225  26.251 -0.2099 -0.0468 -0.2456
69527W        W12580  20.092  10.776  23.115 -0.0603 -0.0969  0.4302
69528W        W12581  16.338  22.632  14.739 -0.4036  0.1726 -0.3410
69529W        W12582  14.452   5.422  26.956 -0.1501 -0.3462  0.1503
69530W        W12583  23.051   3.007  24.111 -0.2210  0.2316 -0.2245
69531W        W12584   7.523   6.292  22.214 -0.2187  0.0621  0.3998
69532W        W12585   8.722  24.560  22.800  0.0635 -0.0694 -0.0229
69533W        W12586  26.466   9.686  21.241  0.3064  0.1522 -0.5612
69534W        W12587   7.114  33.162  16.722  0.0708  0.1213  0.1735
69535W        W12588   0.571  33.004  23.721 -0.0878  0.1742  0.1533
69536W        W12589  15.101   9.028  18.668  0.1308 -0.0007 -0.0624
69537W        W12590  28.362   5.218   0.574  0.0177 -0.2162 -0.2163
69538W        W12591   7.807  11.563  28.977  0.0733  0.2671  0.1059
69539W        W12592  16.300  12.024  17.398  0.0367  0.0898 -0.3815
69540W        W12593  19.149   1.728  22.707 -0.4569 -0.0905  0.2793
69541W        W12594  18.928  10.461  22.478  0.0722  0.1236 -0.1554
69542W        W12595  23.881  31.850  28.494  0.0444 -0.2756 -0.2315
69543W        W12596   9.866  28.065  27.038 -0.4927  0.2310  0.2176
69544W        W12597  13.429  12.217   8.628 -0.1160 -0.2007  0.0480
69545W        W12598  34.478   4.588  19.357  0.0407  0.0014  0.1615
69546W        W12599   8.617  20.264  14.576  0.0707 -0.0426 -0.0420
69547W        W12600  17.422  17.627  15.855 -0.1455 -0.3678  0.2504
69548W        W12601  15.017  31.451  24.042  0.0333  0.1734  0.3402
69549W        W12602  21.104   4.843  20.747 -0.0631  0.2621  0.3425
69550W        W12603   0.900   4.504  22.995 -0.1829 -0.0625  0.1919
69551W        W12604  26.587   7.136   3.197 -0.0892 -0.1247 -0.1247
69552W        W12605  26.823  33.419  18.647  0.1870  0.1380 -0.4200
69553W        W12606  17.851   3.167  14.877 -0.0451  0.1271  0.0074
69554W        W12607  30.812  11.494  24.739  0.1858  0.0087  0.1782
69555W        W12608  28.081  34.267  18.068 -0.2594  0.1998  0.3031
69556W        W12609  16.142  12.538  23.238 -0.2846  0.3193 -0.0221
69557W        W12610  28.601   5.650  22.001  0.2447  0.2194 -0.1396
69558W        W12611  13.151  12.324  17.902 -0.4537  0.1594 -0.2050
69559W        W12612  16.796   7.247  21.451 -0.0277 -0.3560 -0.1674
69560W        W12613   7.358   3.203  24.564  0.0964  0.0745  0.0059
69561W        W12614  21.853   6.990  20.465  0.0332 -0.0913  0.2061
69562W        W12615  23.844  31.553  25.808 -0.2123  0.1129 -0.4285
69563W        W12616  29.480   8.188  13.997 -0.0323 -0.1414 -0.1365
69564W        W12617  29.876   3.553  17.718 -0.0419  0.0525  0.0881
69565W        W12618   4.591   0.857   1.234 -0.1335 -0.2068 -0.3678
69566W        W12619  22.170  33.204  23.910  0.2488  0.0368  0.2090
69567W        W12620  23.172   6.993  27.641  0.4010  0.3425  0.0941
69568W        W12621   9.786   5.693  17.532  0.0145 -0.0967 -0.0178
69569W        W12622  11.976  19.062  17.258  0.4178  0.1571 -0.1040
69570W        W12623  29.039  28.642  24.029 -0.1649  0.4752 -0.1095
69571W        W12624   6.285   7.256  22.196 -0.1191 -0.3168  0.2339
69572W        W12625  22.530  24.838  16.551 -0.2931 -0.0529 -0.1646
69573W        W12626  30.758  11.145  28.717  0.0400 -0.0571  0.1005
69574W        W12627  20.012   1.959  14.614 -0.0895 -0.0019 -0.2380
69575W        W12628  25.260  33.182  16.557  0.1197 -0.0567 -0.3834
69576W        W12629   0.019   4.731  15.871  0.1499  0.0591 -0.1186
69577W        W12630  11.690  25.593  15.526  0.2713  0.0677 -0.2920
69578W        W12631  15.242  11.488  16.151 -0.0271 -0.2417 -0.2780
69579W        W12632   9.780   1.532   1.039  0.0754 -0.0342  0.1469
69580W        W12633  24.969  33.805  24.602  0.1463 -0.0675  0.2084
69581W        W12634  15.936  31.391  19.312  0.2971  0.1814  0.2324
69582W        W12635   4.369   2.159  26.781 -0.2216 -0.0442  0.0188
69583W        W12636  28.273  34.045  18.510  0.1174 -0.2449  0.1773
69584W        W12637  14.195  11.236  14.974  0.4393  0.2242  0.0130
69585W        W12638  22.298  17.750  21.296  0.0436  0.1613 -0.0374
69586W        W12639  21.559  25.481  24.496  0.0666  0.0544 -0.1627
69587W        W12640  15.174   8.166  15.068 -0.0851  0.0037  0.1175
69588W        W12641  23.136  17.602  21.164 -0.2982  0.1288  0.2203
69589W        W12642   0.795   3.134  20.727 -0.1806 -0.1258 -0.0648
69590W        W12643  27.348  13.925   1.109 -0.1692  0.0110  0.1777
69591W        W12644  31.721  20.867  23.474 -0.3797  0.1284  0.2372
69592W        W12645  12.274  10.179  15.526  0.2132  0.2807  0.0908
69593W        W12646  22.756  15.723  14.993 -0.1430  0.3364 -0.0226
69594W        W12647  23.540  18.359  18.954  0.1611  0.0693 -0.3227
69595W        W12648  27.148  34.226  24.606 -0.0754 -0.2577 -0.2275
69596W        W12649   4.989  29.782   2.918  0.1817  0.0181 -0.2012
69597W        W12650  15.766   8.737  15.480  0.0133  0.2324  0.1869
69598W        W12651  27.094  23.687  28.893  0.0756  0.0655 -0.0994
69599W        W12652  16.181  10.581  15.978 -0.0204  0.1401 -0.1043
69600W        W12653  13.441  11.508  22.339  0.0309  0.0461 -0.0291
69601W        W12654  33.610  14.890  20.284 -0.0933  0.1760  0.0584
69602W        W12655  30.699  17.825  16.274  0.4347 -0.1564  0.2688
69603W        W12656  25.934  28.249  24.305 -0.0280  0.1667 -0.0989
69604W        W12657  21.429  26.521  19.991 -0.0029  0.0598 -0.2283
69605W        W12658  15.142   8.711  19.934 -0.0589  0.2813  0.0933
69606W        W12659  24.871   4.769  24.800  0.0516  0.0696  0.1350
69607W        W12660  16.458   0.879   6.786 -0.1823 -0.1334  0.0014
69608W        W12661  20.473  12.932  15.443  0.3194 -0.0982  0.0597
69609W        W12662  10.223   6.679  22.061 -0.1185 -0.0313  0.1438
69610W        W12663   2.437   3.671  19.207  0.1734 -0.0104 -0.0807
69611W        W12664  25.707  10.935  27.427  0.1462 -0.1565 -0.0232
69612W        W12665  19.098  28.175  17.430 -0.1808  0.0485  0.0441
69613W        W12666  14.229  13.310  18.691  0.1725 -0.3057 -0.1333
69614W        W12667  21.897  26.725  24.543  0.0796 -0.2194  0.1234
69615W        W12668   0.967   5.394  21.420 -0.0204 -0.0646 -0.0514
69616W        W12669   6.964   3.048  18.869  0.2620  0.1195  0.2399
69617W        W12670  22.940  19.853  22.107  0.0414  0.1272  0.0725
69618W        W12671  21.078   8.542  21.780 -0.0406 -0.1071 -0.0836
69619W        W12672  23.566  10.601  26.751  0.3250 -0.3101  0.0309
69620W        W12673  21.661   9.387  28.801 -0.1856  0.0266  0.5262
69621W        W12674  13.618  34.139  23.413  0.0085  0.0977 -0.0811
69622W        W12675  32.784   0.605   3.495 -0.0015  0.1375  0.2227
69623W        W12676  13.110  22.528  14.243  0.0820 -0.0851  0.2976
69624W        W12677  11.764   6.403  28.751 -0.1183  0.0903 -0.3363
69625W        W12678  12.896  13.019  19.953 -0.0055 -0.1579  0.2178
69626W        W12679  18.124   6.522  28.950  0.0095  0.1987 -0.0052
69627W        W12680  16.312  24.858   1.842  0.0021  0.2079 -0.0933
69628W        W12681   4.218  31.516  21.943  0.2986  0.0135  0.1737
69629W        W12682  21.457  12.179  15.330 -0.1393  0.2499  0.1498
69630W        W12683  17.625   1.592   7.047 -0.3932  0.1410 -0.0556
69631W        W12684  16.958  26.419  24.653  0.3991  0.0549  0.1460
69632W        W12685   3.087  13.345  25.042  0.1488  0.0553  0.1534
69633W        W12686  23.174  23.096  21.096 -0.2891  0.0317  0.1023
69634W        W12687  18.226   2.613  20.534  0.3671  0.4074  0.1169
69635W        W12688   6.434  25.470  26.758 -0.1802  0.3257 -0.1185
69636W        W12689   8.666  12.055  21.355 -0.0693  0.3892 -0.0261
69637W        W12690  17.080  10.850  24.924  0.0464  0.2838  0.1168
69638W        W12691  19.366   3.315  20.255 -0.1729 -0.2455 -0.1634
69639W        W12692  13.053  10.850  20.373  0.1515  0.0363 -0.1567
69640W        W12693  22.937  23.474   0.951 -0.2004 -0.2229 -0.0889
69641W        W12694  24.209   6.197  20.215  0.0409  0.0744 -0.3151
69642W        W12695  24.987   4.697  22.893  0.1066  0.1582 -0.0287
69643W        W12696  14.557  34.206  23.397  0.0242  0.2065 -0.0794
69644W        W12697  28.034   3.944  26.472  0.0572  0.1052  0.5032
69645W        W12698  18.072  34.127   3.448 -0.3306 -0.2911  0.1608
69646W        W12699  17.477  29.640  24.230 -0.1352 -0.2777 -0.0943
69647W        W12700  27.409  18.769  18.154  0.0072 -0.0148  0.0222
69648W        W12701  23.806  12.388  23.814 -0.1369  0.1684 -0.2173
69649W        W12702  30.149  19.304  20.056  0.1826 -0.0781 -0.1956
69650W        W12703  12.335  34.176  26.283 -0.2129  0.0378 -0.1446
69651W        W12704   3.466   2.281  23.749  0.3361  0.0273 -0.0289
69652W        W12705   2.663  31.756  26.185  0.0979 -0.0039 -0.0764
69653W        W12706  20.118   2.518  21.008 -0.2338 -0.1508  0.3120
69654W        W12707   1.883  28.492   4.401  0.0450  0.0761  0.1508
69655W        W12708   9.981  31.336  26.796  0.2239  0.2454  0.2314
69656W        W12709   9.289  33.692   8.435  0.0906 -0.1842 -0.0423
69657W        W12710  16.233   1.813  15.485 -0.3231 -0.3575 -0.2391
69658W        W12711  33.132  12.391  19.001 -0.0906 -0.0200 -0.0400
69659W        W12712  13.466  12.596  17.627  0.0699  0.1286 -0.1283
69660W        W12713  15.099  32.658  22.730 -0.1436  0.1141 -0.2120
69661W        W12714  29.730  33.655  22.771 -0.0792  0.0243 -0.1430
69662W        W12715  17.101  12.333  15.754  0.0679 -0.2562  0.0138
69663W        W12716  21.444   8.134   2.599  0.0383 -0.2173 -0.6703
69664W        W12717  19.807  31.341  17.860 -0.1614 -0.2845 -0.0793
69665W        W12718  14.154  32.539  19.298 -0.2540 -0.2064  0.1043
69666W        W12719   2.611   2.109  15.075  0.0721 -0.1735 -0.2217
69667W        W12720  13.089   1.178  23.546 -0.2040  0.2440 -0.0694
69668W        W12721  11.045  33.293  25.524  0.0027 -0.1321  0.1569
69669W        W12722  15.425  34.112  15.411 -0.1653  0.0956 -0.0721
69670W        W12723  20.926  28.232  19.252  0.1934  0.1764  0.0117
69671W        W12724  15.730   0.513  14.885  0.0199 -0.2107 -0.0465
69672W        W12725  26.077  21.701  14.695 -0.1699  0.2473 -0.1173
69673W        W12726  16.237   7.530  23.138 -0.1156  0.1617 -0.1491
69674W        W12727  25.739   3.957   2.615  0.2276  0.1388  0.3300
69675W        W12728   8.377   9.408  28.557 -0.2318  0.2659  0.3935
69676W        W12729  24.918   9.553  17.209 -0.0886 -0.0841  0.0925
69677W        W12730  12.174   3.596  21.364  0.2835  0.0934 -0.0139
69678W        W12731  14.955  23.544  26.779 -0.0929  0.0025  0.1137
69679W        W12732  19.263   4.857  16.481  0.0872 -0.0861 -0.0041
69680W        W12733  21.755  32.715  10.413 -0.1399 -0.1577 -0.2244
69681W        W12734  29.758  29.390  13.674  0.1281  0.1094 -0.1590
69682W        W12735   3.049   8.340  23.600  0.1897  0.3518  0.3238
69683W        W12736  17.322  33.282  28.539  0.1298 -0.3140  0.0109
69684W        W12737  12.815   7.330  22.298  0.4460 -0.4656  0.1488
69685W        W12738   2.769  27.449  17.409 -0.0600 -0.1272 -0.2334
69686W        W12739   9.391   7.327  27.452  0.0776 -0.1319  0.2124
69687W        W12740  20.540   8.091   3.177 -0.2365  0.2673  0.2868
69688W        W12741  12.034  14.561  28.018 -0.2475  0.3233  0.2927
69689W        W12742   6.869   1.641  25.778  0.2961  0.2061 -0.2913
69690W        W12743  24.147  19.004  19.170 -0.1405 -0.3423 -0.2834
69691W        W12744   5.063  10.624  25.460  0.0925 -0.1309 -0.1819
69692W        W12745  19.665   0.036  16.460 -0.2030  0.2990 -0.0522
69693W        W12746   9.718  33.165   2.361  0.1303 -0.0037 -0.0270
69694W        W12747  19.084  12.850  15.828  0.0156  0.1268  0.0454
69695W        W12748   9.416  14.244  20.361 -0.0641 -0.1386 -0.1789
69696W        W12749  15.080   4.269  19.748 -0.0345 -0.2708  0.1861
69697W        W12750  33.312  15.578  26.646  0.1480  0.1632  0.0399
69698W        W12751  17.983   3.326   8.404  0.3418 -0.0760  0.3159
69699W        W12752  14.388   6.582  22.942 -0.1978 -0.0321 -0.1332
69700W        W12753  19.176  20.494   1.910 -0.3549  0.3171  0.0495
69701W        W12754  21.029  25.254  22.199 -0.0201 -0.0612 -0.4120
69702W        W12755  15.383  29.603  18.250  0.0786  0.3786 -0.0706
69703W        W12756  33.861   2.607  18.235  0.3501  0.3766 -0.5333
69704W        W12757  14.181  30.425  22.071  0.2185 -0.2468 -0.1179
69705W        W12758   8.740  26.714  19.923 -0.1180  0.0156  0.1386
69706W        W12759  17.578  28.024  20.163  0.3004  0.1324 -0.1200
69707W        W12760   9.227  13.312  15.149  0.0556  0.0216  0.1085
69708W        W12761   6.745  26.440  13.500  0.1338 -0.2536 -0.0060
69709W        W12762  23.357   7.040  14.912 -0.1210 -0.1244  0.0753
69710W        W12763   1.471  32.993  21.688 -0.2042 -0.0573 -0.1043
69711W        W12764  26.374  20.508  15.909 -0.2485  0.0605 -0.1990
69712W        W12765  17.653  32.972  24.679  0.3571 -0.1770 -0.0670
69713W        W12766  31.858  10.220  20.634  0.1012  0.0860  0.1721
69714W        W12767   4.944  34.036  16.339 -0.0231 -0.4425 -0.3721
69715W        W12768   9.350  18.382  21.124  0.0280 -0.2809  0.1749
69716W        W12769  13.553  11.248   0.070 -0.0305 -0.1038 -0.0554
69717W        W12770   9.737  28.348  28.273 -0.0271 -0.0199  0.0112
69718W        W12771  10.711   5.822  21.575 -0.2058  0.0358 -0.0615
69719W        W12772  24.252  33.118  26.745 -0.1017  0.0281  0.2846
69720W        W12773  13.104   0.655  24.224  0.3100 -0.0344  0.1301
69721W        W12774  22.233  34.611   1.024 -0.3479 -0.1838 -0.0595
69722W        W12775  26.844   8.624  29.113  0.0455 -0.1752  0.0902
69723W        W12776  23.143  27.195  19.021 -0.3483 -0.1579 -0.1116
69724W        W12777  17.420  24.583   1.623  0.0318 -0.1101 -0.0363
69725W        W12778   9.925  28.980  17.323 -0.2995  0.0057 -0.4808
69726W        W12779  17.231  14.278  22.265 -0.2524 -0.2851 -0.0692
69727W        W12780  34.269   3.209  20.210  0.0743  0.0567 -0.1623
69728W        W12781  33.690  30.678  18.692  0.1056  0.1630  0.0167
69729W        W12782  27.919   4.134  25.533  0.1312  0.1993  0.2790
69730W        W12783  12.835   4.287  14.995  0.0993 -0.3394  0.1712
69731W        W12784  15.464  24.206  23.285 -0.0282  0.4423  0.0065
69732W        W12785  28.442   5.364   2.395 -0.1625 -0.0723  0.1996
69733W        W12786  16.901  10.879  17.678  0.1204  0.0004 -0.1697
69734W        W12787   3.920  25.643  16.358 -0.0521  0.0941  0.1457
69735W        W12788  27.646   8.351  16.557 -0.1662  0.2171  0.3124
69736W        W12789  31.793   8.596  26.360 -0.1091 -0.1334 -0.2727
69737W        W12790  31.853   7.833  24.203  0.3346  0.1415  0.0933
69738W        W12791  14.159   0.525  14.761 -0.0215  0.0569  0.1255
69739W        W12792  28.161   5.756  24.274 -0.3987 -0.1516 -0.0121
69740W        W12793  19.181   8.845  22.948 -0.2439 -0.0559 -0.2617
69741W        W12794  23.564  25.122  15.631  0.0899  0.0255 -0.0671
69742W        W12795  21.822  28.692  14.873  0.1304  0.0361  0.0759
69743W        W12796  34.560  22.115  16.672 -0.0591 -0.0811  0.2078
69744W        W12797  18.896  28.237  21.332  0.0548 -0.1395 -0.1523
69745W        W12798  30.749  10.454  18.292 -0.1002  0.0398 -0.4120
69746W        W12799  21.437   6.419  18.516  0.0011  0.2187  0.1217
69747W        W12800  17.324  16.501   1.949  0.2644  0.2536  0.0154
69748W        W12801   0.943  31.567  21.929  0.0321  0.1953  0.2062
69749W        W12802  24.421  24.487  14.345  0.0734 -0.0711  0.2607
69750W        W12803  21.755  12.247  25.700 -0.0173 -0.2239  0.0959
69751W        W12804  27.171  31.171  19.881 -0.4229  0.0237 -0.1213
69752W        W12805   3.852  28.349  13.337 -0.1238 -0.0579 -0.1891
69753W        W12806   7.110   9.544   4.036 -0.0340 -0.1269  0.1760
69754W        W12807  23.307   7.172  23.385 -0.1829 -0.0081  0.2413
69755W        W12808   8.423  19.700  16.304 -0.0650 -0.2393  0.0522
69756W        W12809  30.355  27.611  24.390 -0.1878  0.1046 -0.1535
69757W        W12810  27.748  32.533  19.367 -0.1090  0.1056  0.2612
69758W        W12811  27.540  11.197   1.028 -0.0579 -0.1720  0.1336
69759W        W12812  18.394  20.731  17.338  0.7915  0.0764  0.1191
69760W        W12813  19.730   0.651   4.311 -0.1466 -0.4365 -0.1037
69761W        W12814   2.898  18.919   0.556 -0.1294  0.0143  0.0496
69762W        W12815  15.858   8.757   0.950  0.2985  0.2097  0.1401
69763W        W12816  12.756  14.210  17.717  0.1550 -0.1003 -0.0754
69764W        W12817  10.350  10.578  21.489  0.0003  0.0967 -0.1030
69765W        W12818  27.977   7.806  21.365 -0.1741  0.0888  0.1510
69766W        W12819  14.521  17.083  22.745  0.1879 -0.0417  0.0232
69767W        W12820  11.042  26.875  27.962  0.1744  0.0171 -0.3108
69768W        W12821  15.464   8.363  14.662 -0.0632  0.0341 -0.0639
69769W        W12822  11.703   3.430  16.263 -0.0423 -0.1817  0.1620
69770W        W12823  13.430  28.035  18.930 -0.6013  0.0284 -0.2583
69771W        W12824   9.202  26.299  15.103 -0.5450 -0.0515  0.0104
69772W        W12825   9.043  12.036   7.591 -0.3681  0.0064  0.2664
69773W        W12826  17.381   5.070  22.470  0.0382 -0.0133  0.2217
69774W        W12827   9.167  14.311   2.698  0.1332 -0.4646  0.0338
69775W        W12828   4.784  18.406  14.586 -0.1883  0.2985 -0.3368
69776W        W12829   5.342  31.147  22.111 -0.0716 -0.1304  0.1154
69777W        W12830   9.846  18.006  22.477  0.0321  0.3722  0.2557
69778W        W12831  23.042  13.731  17.979 -0.0275  0.2452 -0.1751
69779W        W12832  15.458  21.615   0.950 -0.2082 -0.2511 -0.0053
69780W        W12833  16.409   0.672  16.073  0.0198  0.0971  0.0958
69781W        W12834  22.386  26.153  25.365 -0.0059  0.0181 -0.1173
69782W        W12835  10.411  11.552  18.154  0.1580 -0.0798 -0.3422
69783W        W12836  10.972   4.821  25.913  0.1354  0.1722  0.4513
69784W        W12837  12.913  25.504  23.472  0.0133  0.0330 -0.0187
69785W        W12838   5.624   4.903  15.776  0.2475  0.0325 -0.2082
69786W        W12839   2.643  32.972  25.653 -0.2306 -0.0935  0.1549
69787W        W12840  15.671  17.594  23.666  0.4121  0.1822 -0.0900
69788W        W12841  12.096  15.258  23.983 -0.2522  0.2958  0.1445
69789W        W12842  33.739  24.702  20.000 -0.0614 -0.1801  0.2645
69790W        W12843  34.453  27.609   5.627  0.3861  0.0067 -0.3022
69791W        W12844  15.747  34.643  16.387  0.0742 -0.1599  0.2828
69792W        W12845  33.741   3.474  14.547  0.4098  0.0768  0.5029
69793W        W12846  17.703  29.813  22.456  0.2463 -0.4116 -0.2146
69794W        W12847  20.225   0.906   0.416  0.1931 -0.1992 -0.1727
69795W        W12848  15.088   8.938  20.687  0.2223  0.2613  0.4023
69796W        W12849  14.359  31.059  24.878 -0.2206  0.5417 -0.1191
69797W        W12850  33.310  27.604  19.656  0.2570  0.1724  0.1840
69798W        W12851  14.580   0.953   0.247 -0.0230  0.1719  0.1467
69799W        W12852   2.567   5.388   2.742  0.1018 -0.2995  0.1850
69800W        W12853  10.958  18.941  20.038 -0.1376  0.3067  0.0642
69801W        W12854  14.028   5.056  19.161  0.3055  0.0722  0.2511
69802W        W12855  22.779   5.404  28.713  0.3426  0.0745  0.2355
69803W        W12856   3.147   3.656  19.137 -0.1922 -0.2134  0.0589
69804W        W12857  18.025   1.077  15.097 -0.1687 -0.4363  0.0367
69805W        W12858  18.842  22.684  15.748  0.1904 -0.0594  0.0910
69806W        W12859  19.713  27.362  21.979 -0.1395  0.0854  0.1257
69807W        W12860  17.110   3.776  27.874  0.0094 -0.2013  0.1721
69808W        W12861  17.620   6.584  28.874 -0.3169 -0.0292  0.2501
69809W        W12862  10.495  21.142  15.475  0.3273  0.0962 -0.0348
69810W        W12863  16.274  30.783  25.849 -0.0198  0.1719 -0.2351
69811W        W12864  22.699  13.476  14.912  0.3874 -0.1720  0.1261
69812W        W12865  18.923   7.005   6.541 -0.2759  0.0840 -0.0736
69813W        W12866  18.641  18.753  13.461 -0.3109  0.3117 -0.2135
69814W        W12867  30.783   6.997  24.731  0.2293 -0.0199  0.1142
69815W        W12868  25.435  25.226  18.077 -0.0802 -0.1174 -0.0708
69816W        W12869  31.278  29.125   2.291 -0.0183 -0.1108  0.1890
69817W        W12870  25.022  13.003  21.904  0.1285  0.1457 -0.1321
69818W        W12871  13.540   5.050  26.431  0.0832  0.1241 -0.0832
69819W        W12872  21.649  30.443  17.436  0.2365  0.0507  0.2964
69820W        W12873   9.536  26.640  22.879  0.1803  0.0465 -0.2062
69821W        W12874  25.127  16.715  26.360 -0.3767  0.0174  0.0448
69822W        W12875  12.094   1.305  26.614  0.0410 -0.0974 -0.1044
69823W        W12876  12.539  12.326  20.999  0.2420 -0.6183  0.1666
69824W        W12877  12.762  12.910   1.897  0.3221 -0.3802  0.2959
69825W        W12878  28.696   0.789  28.446  0.0694 -0.2367  0.1169
69826W        W12879  31.303   3.193  18.471  0.0212 -0.3555 -0.0612
69827W        W12880  15.124  18.238   3.267 -0.1919 -0.0200 -0.2827
69828W        W12881  21.112   4.797   7.561  0.0531  0.0320  0.0590
69829W        W12882  33.381   3.473  21.680 -0.1491 -0.1569  0.1148
69830W        W12883  22.059   9.648  28.930 -0.2831  0.1610 -0.1594
69831W        W12884  21.787  11.915  28.260 -0.1911 -0.1721 -0.2659
69832W        W12885  24.714  29.797  24.533  0.0502 -0.1405 -0.0525
69833W        W12886  19.771  26.483  16.459 -0.0211 -0.0487 -0.0348
69834W        W12887  21.531  34.535  24.283  0.4815  0.0238  0.2404
69835W        W12888  34.090  13.472  14.657  0.0458 -0.0004 -0.1551
69836W        W12889  23.290  16.798  15.907  0.0176 -0.0492 -0.0771
69837W        W12890  23.464  28.643  24.558  0.0449  0.0721  0.2193
69838W        W12891  11.621  16.401  20.971  0.0772  0.1082  0.2070
69839W        W12892   9.296  28.255  16.126 -0.0601 -0.1958  0.1391
69840W        W12893  13.293  34.050   9.758 -0.0308 -0.0259 -0.1508
69841W        W12894   6.537  32.698  20.346 -0.0722  0.0018 -0.3923
69842W        W12895  18.718  24.484  19.380 -0.0814  0.1848  0.3143
69843W        W12896   1.944  34.437  20.278 -0.0379 -0.1390  0.4179
69844W        W12897   1.282   4.700   2.018 -0.1339 -0.0662  0.0292
69845W        W12898  14.281  28.419  27.707  0.2028 -0.0495 -0.5093
69846W        W12899   2.674   8.561  16.743 -0.1035 -0.0858  0.0458
69847W        W12900  14.907   3.727  24.500  0.2087  0.2806  0.2787
69848W        W12901  17.712  29.203  23.389  0.4504  0.0516 -0.2056
69849W        W12902  17.683   3.571  15.811  0.0892 -0.1889  0.1835
69850W        W12903  12.318  10.209  22.134 -0.2917 -0.0875  0.1261
69851W        W12904  23.414  28.133  14.108 -0.2005 -0.0694  0.0943
69852W        W12905   8.333  32.741   1.349 -0.6640 -0.1775 -0.0156
69853W        W12906  11.125  24.480  15.416  0.4017 -0.1143 -0.0541
69854W        W12907  29.912  34.522  19.660 -0.0577 -0.0338 -0.0883
69855W        W12908  20.035   5.465  14.482  0.2702  0.0888  0.0435
69856W        W12909  20.442   7.029  19.015  0.1911  0.0829  0.1824
69857W        W12910  30.484   7.954  21.239  0.1086 -0.1935 -0.1562
69858W        W12911  23.337   5.914  20.947 -0.3416  0.3093  0.2152
69859W        W12912   4.523  14.569   1.442  0.4951  0.0346 -0.1137
69860W        W12913   7.177   0.154  22.744  0.1324 -0.2323  0.0101
69861W        W12914  26.266   0.789  14.885  0.2821 -0.6146 -0.2427
69862W        W12915   1.023  16.036  15.745 -0.0389  0.1037 -0.4868
69863W        W12916  14.223  26.223  27.563 -0.5587 -0.1601  0.0675
69864W        W12917  17.463  10.268   7.856  0.1196  0.0678  0.2724
69865W        W12918   3.814   0.216  18.651 -0.0064 -0.2345 -0.1797
69866W        W12919  12.487  32.216  29.142  0.3074  0.0433 -0.1030
69867W        W12920  12.589   2.197  19.732 -0.0130 -0.1109 -0.1144
69868W        W12921  25.393  30.432  24.494  0.1948  0.1166 -0.1083
69869W        W12922  34.144   9.362  23.609  0.0083 -0.0837 -0.1357
69870W        W12923   8.463  14.744  14.855  0.3076  0.3616  0.2652
69871W        W12924  21.487  22.756  20.834 -0.0313 -0.2704  0.1248
69872W        W12925   4.048  14.964  14.656  0.0895 -0.0427  0.1946
69873W        W12926   1.223   8.804  20.583 -0.1401  0.1218  0.3330
69874W        W12927   8.694   7.100   0.576  0.0612  0.0301 -0.1821
69875W        W12928  16.307  34.028  25.623  0.2469  0.0840  0.2623
69876W        W12929   8.558  32.358   9.306 -0.3564  0.1008 -0.0891
69877W        W12930  17.917  22.923   9.495  0.0575  0.1619  0.3056
69878W        W12931  31.264  13.919  27.083 -0.0142 -0.0868  0.1025
69879W        W12932  18.838  15.855  27.957  0.0455 -0.1379  0.0116
69880W        W12933  14.313  32.120  17.794 -0.0941 -0.0207  0.0041
69881W        W12934  14.831  18.994  27.478 -0.1746 -0.0288  0.2341
69882W        W12935  28.043   9.077  19.649 -0.2003  0.0321  0.2979
69883W        W12936  11.181  12.482  16.007 -0.0994 -0.1252 -0.2910
69884W        W12937  20.021  32.243  22.152  0.0961  0.1638 -0.0732
69885W        W12938  12.162  30.485  25.586  0.3894 -0.0176  0.0062
69886W        W12939  12.176  14.581  21.541 -0.0294  0.4127 -0.1205
69887W        W12940  30.535   4.654  15.649  0.0786  0.0082  0.1832
69888W        W12941   2.206  20.231  27.278 -0.0784  0.1987 -0.2225
69889W        W12942   6.327  15.400  21.822 -0.1224 -0.0116 -0.2429
69890W        W12943  15.205   3.247  17.170  0.1016  0.0259 -0.0929
69891W        W12944  16.543   2.882  25.697 -0.0557  0.2046 -0.0466
69892W        W12945  16.060   4.615  15.940 -0.2169 -0.0795  0.2921
69893W        W12946   6.745   4.780  20.356  0.1053  0.1095  0.0133
69894W        W12947  25.465  34.061  22.967  0.3924  0.1496 -0.0248
69895W        W12948  20.974  30.682  20.259  0.1540 -0.0220  0.0331
69896W        W12949  11.472  10.305  25.309  0.0721  0.0062  0.1083
69897W        W12950  19.035  20.823  14.776  0.1308  0.2468  0.0281
69898W        W12951  19.624  22.553  22.604 -0.1315 -0.0108 -0.2575
69899W        W12952  18.828   0.232  19.878  0.3781 -0.1034  0.0959
69900W        W12953  14.136  29.613  28.509 -0.2497  0.1319  0.0079
69901W        W12954  30.495   7.313  22.052  0.1856  0.3403  0.0804
69902W        W12955  19.502  27.483   7.512  0.0442  0.0741  0.0348
69903W        W12956   2.622   1.423  13.023  0.1160  0.0875  0.3551
69904W        W12957  22.965  11.180   6.608 -0.3190 -0.0780 -0.1278
69905W        W12958  13.994  34.066   5.932 -0.0819  0.1805  0.1359
69906W        W12959  15.507  12.659  21.407 -0.3905  0.2680 -0.1173
69907W        W12960  22.181   3.243  20.997 -0.0782 -0.0193  0.0294
69908W        W12961  13.821   5.053  17.047  0.0714 -0.0469 -0.0718
69909W        W12962  30.505   1.237  20.427 -0.1922  0.0896  0.1325
69910W        W12963  28.250   5.619  26.716 -0.0954  0.2747  0.0423
69911W        W12964  24.874  25.921  28.047  0.2807 -0.1614  0.2619
69912W        W12965   9.535   4.040   8.786 -0.3188 -0.3123 -0.2398
69913W        W12966  14.976  25.555  21.378 -0.0720 -0.0251 -0.0876
69914W        W12967  18.452  27.893  26.538  0.1134  0.1556  0.0715
69915W        W12968  26.170  33.052  17.647  0.3381  0.3215  0.2489
69916W        W12969  13.290  12.989  19.590  0.1823 -0.0402 -0.1955
69917W        W12970  21.957  15.125  18.045 -0.0122  0.1017  0.0166
69918W        W12971  31.172  11.163  23.862  0.0152 -0.0180  0.2302
69919W        W12972  11.311  34.502  15.062  0.0841 -0.0028  0.0075
69920W        W12973  17.907  27.087  19.042  0.2698 -0.2606 -0.0132
69921W        W12974  15.840  10.689  28.833  0.0740  0.2779  0.0092
69922W        W12975  11.108  17.937  26.163  0.0356  0.0771 -0.2789
69923W        W12976  27.725  29.094   5.061 -0.2437 -0.0942 -0.0231
69924W        W12977  12.352  32.857  18.698 -0.1128  0.0817 -0.3509
69925W        W12978  26.746  17.250  14.966  0.1847 -0.5990  0.0787
69926W        W12979  15.318  32.351  16.899  0.1038 -0.1828 -0.1054
69927W        W12980  13.400  21.028  19.728 -0.0828 -0.0322  0.0884
69928W        W12981  26.696  24.342  20.735  0.1707  0.0836 -0.0594
69929W        W12982  28.814   6.627  25.602  0.3677  0.0539 -0.0214
69930W        W12983  21.805  13.600   4.655  0.0423 -0.1738 -0.0284
69931W        W12984  18.441  25.701  15.992  0.0495 -0.0944  0.2054
69932W        W12985  15.776  31.530  24.390 -0.0483 -0.1727  0.0198
69933W        W12986   9.402  15.226  23.509 -0.0925 -0.0377 -0.2816
69934W        W12987   8.819  27.440  13.985  0.1061 -0.1471 -0.0662
69935W        W12988  15.771   6.934  17.819  0.1190 -0.0610  0.0250
69936W        W12989  29.411  23.061  22.913  0.0324 -0.1580 -0.1152
69937W        W12990   8.904  23.975  28.362 -0.1136  0.1402 -0.0549
69938W        W12991  25.407   5.526  20.473  0.1676  0.1655 -0.2085
69939W        W12992  16.221  12.199  26.237 -0.3594 -0.1690 -0.1394
69940W        W12993  29.806   0.499  17.296 -0.1165  0.0694 -0.0884
69941W        W12994  26.782   1.080   5.520  0.1218 -0.5429 -0.0753
69942W        W12995  12.320  10.192  23.573  0.0774 -0.0297  0.3747
69943W        W12996  19.699  32.541  15.518  0.2812  0.0561 -0.4274
69944W        W12997  21.133  15.304  23.154  0.0636  0.1454 -0.1621
69945W        W12998  16.105   3.801  15.232  0.1955  0.0172  0.0362
69946W        W12999   5.740  34.309  18.770 -0.1165 -0.2910  0.1616
69947W        W13000  28.152   6.159  18.117  0.0340 -0.2872  0.1684
69948W        W13001   7.004   0.033  20.781  0.1475  0.1148 -0.3107
69949W        W13002  34.020  27.036  28.562  0.2154  0.1097  0.1589
69950W        W13003  16.378   1.820   6.525 -0.0441  0.0118  0.0509
69951W        W13004  14.211  26.097  15.824 -0.1577 -0.0599  0.0074
69952W        W13005  16.286   7.318  24.009  0.0639  0.1212 -0.1285
69953W        W13006  27.437  12.200  21.288  0.0210  0.1078 -0.1243
69954W        W13007  24.808  10.147  17.281 -0.2810  0.3214  0.1061
69955W        W13008  25.521  17.772  19.938 -0.2400 -0.0442  0.0274
69956W        W13009   3.870  13.229   3.890 -0.0837  0.0342 -0.0267
69957W        W13010  13.718   6.472  24.736  0.0656 -0.2913  0.0954
69958W        W13011  30.501   2.368   1.810  0.0877  0.0014  0.0970
69959W        W13012  12.015  12.716   7.388  0.0071  0.1753 -0.0912
69960W        W13013  30.258   0.032   4.567  0.3162 -0.1276 -0.2482
69961W        W13014  10.623  32.395  17.630 -0.1981 -0.0732 -0.0198
69962W        W13015  28.666   1.184  25.884 -0.2282 -0.1853  0.0742
69963W        W13016  32.883   1.847  16.988 -0.0104 -0.1153  0.2862
69964W        W13017  10.877   2.092  19.743 -0.0051  0.0569  0.0175
69965W        W13018   8.754  11.510  21.357  0.1348 -0.1785  0.1362
69966W        W13019  23.271  10.200  16.292 -0.2693 -0.1709 -0.1359
69967W        W13020  25.698  32.689   0.345 -0.2810 -0.0351 -0.1383
69968W        W13021  25.014   1.183  22.619 -0.0212 -0.1103  0.0469
69969W        W13022  21.735  32.536   1.008  0.0848 -0.4099 -0.1538
69970W        W13023  27.814   1.148  19.467 -0.2902  0.0794  0.0134
69971W        W13024  32.039  10.881  19.113  0.1986  0.1467  0.0062
69972W        W13025  15.376   0.427   9.607 -0.0151  0.2013 -0.0491
69973W        W13026  12.470  21.375  20.070 -0.0528  0.2200 -0.3088
69974W        W13027  11.290  10.042  22.143  0.1533  0.1319  0.2563
69975W        W13028  20.163   6.449  26.271  0.0700  0.0490  0.1238
69976W        W13029  29.304   4.566   4.130  0.1797 -0.0317 -0.0594
69977W        W13030   1.859   0.700  19.608  0.0596 -0.0120 -0.2934
69978W        W13031  11.024  12.223  26.607  0.0889 -0.1439  0.2455
69979W        W13032  18.989   2.888  27.848  0.1950 -0.0686 -0.0200
69980W        W13033  19.380  32.262  14.605 -0.2372 -0.0317 -0.0843
69981W        W13034  18.373  24.712  17.541 -0.3831 -0.1322 -0.3534
69982W        W13035   7.326   5.983  27.111 -0.0616  0.1401  0.0099
69983W        W13036  13.817  11.397  17.600  0.0982  0.4032 -0.1409
69984W        W13037  21.923  22.884  24.526 -0.0748 -0.1578 -0.0735
69985W        W13038  27.634   4.548  16.867 -0.0061  0.0341  0.3877
69986W        W13039  29.812   3.487  17.208 -0.0633  0.1737  0.2549
69987W        W13040  23.402  15.833  19.557  0.1408  0.1000 -0.1173
69988W        W13041  19.070   9.087  29.001 -0.0439 -0.2853 -0.0823
69989W        W13042  11.949   9.910  26.169  0.4060  0.0053  0.1740
69990W        W13043  14.118  29.581  19.562  0.0693 -0.1515 -0.1703
69991W        W13044  11.904   2.459  21.916  0.2846 -0.2505 -0.1063
69992W        W13045  17.134  31.082  20.314 -0.1081 -0.1890 -0.2275
69993W        W13046  18.518   2.984  25.325 -0.2309  0.1100  0.0942
69994W        W13047   8.117  15.263   6.341  0.0669  0.1638 -0.1413
69995W        W13048  27.413   6.648  16.227 -0.0197  0.0709 -0.2017
69996W        W13049  12.863  21.994  24.141 -0.2490  0.2296  0.1708
69997W        W13050   6.880  17.944  15.764  0.0760  0.0343  0.2349
69998W        W13051  26.838   2.766  18.193  0.0200 -0.0560 -0.0800
69999W        W13052  15.218  16.932  27.799 -0.0293 -0.0743  0.0875
70000W        W13053  20.521   6.891  20.847 -0.2171  0.3906  0.1435
70001W        W13054  24.667   2.846  16.097  0.4319  0.0351  0.2383
70002W        W13055   5.321  26.009  21.585 -0.1390 -0.0908 -0.2033
70003W        W13056  12.325  26.433  20.814 -0.0188  0.2223 -0.0110
70004W        W13057   7.602   6.083  24.221 -0.0027  0.0006 -0.3823
70005W        W13058  18.880   5.965  22.606 -0.2990 -0.0483  0.0333
70006W        W13059   0.881   3.944  22.769  0.0942  0.0160 -0.1927
70007W        W13060  12.542  28.120  20.793  0.0552  0.2014 -0.0043
70008W        W13061   5.467  30.745   4.466 -0.0607  0.1911  0.0979
70009W        W13062  22.015   4.297  23.279 -0.0218  0.1809 -0.0572
70010W        W13063  16.223  32.058  20.344  0.1507 -0.1774 -0.1238
70011W        W13064  30.795  21.993   2.884 -0.0801 -0.0035 -0.2533
70012W        W13065  21.080  33.770  27.332 -0.0164  0.0546 -0.0466
70013W        W13066   2.138  14.301  17.736 -0.0031 -0.1797  0.1222
70014W        W13067  30.310  18.888  18.232  0.0353  0.0441  0.1053
70015W        W13068   2.998  10.431  25.037 -0.1895 -0.4606 -0.0214
70016W        W13069  20.854   5.394  22.340  0.0082  0.1450 -0.1440
70017W        W13070  11.134  17.111  18.945  0.0466 -0.0697  0.1726
70018W        W13071  22.602   7.689  14.020  0.2639  0.1748 -0.2729
70019W        W13072  18.180  12.659  22.586 -0.2271  0.1071 -0.0033
70020W        W13073  26.068  33.897   2.292 -0.1880  0.0823 -0.3127
70021W        W13074  34.078   2.991  23.139  0.0994 -0.0741  0.1052
70022W        W13075  14.655   2.938  25.525  0.1177 -0.0496 -0.1664
70023W        W13076   8.983  33.111  19.110 -0.1681  0.0509  0.0663
70024W        W13077  24.407   4.561  24.066 -0.1558  0.1249  0.0842
70025W        W13078  16.697  23.202  15.464 -0.0422 -0.2509  0.0015
70026W        W13079  21.480   2.770  20.878  0.0798  0.0039  0.0501
70027W        W13080  18.438  21.677   3.520 -0.1827 -0.0748 -0.3258
70028W        W13081   8.915  27.051  25.036 -0.0918 -0.0046 -0.2786
70029W        W13082  12.458  34.015  24.267 -0.2392  0.2051 -0.0636
70030W        W13083  14.259   3.013  17.703  0.1755 -0.0530  0.4216
70031W        W13084  17.999   9.082  25.808  0.4034 -0.1605 -0.0435
70032W        W13085  11.187   6.547  16.893 -0.0463 -0.2015 -0.0608
70033W        W13086  16.004  21.911  17.042 -0.1168  0.1022 -0.0104
70034W        W13087   3.190   1.517  20.283 -0.4397  0.3395  0.1181
70035W        W13088  13.079  33.623   9.996 -0.0940 -0.0492 -0.1015
70036W        W13089  34.491  29.592   4.732  0.1863  0.2226 -0.0782
70037W        W13090  19.145  20.877  14.281 -0.1080  0.3387 -0.0232
70038W        W13091  21.191   5.754  20.943  0.2884 -0.1696 -0.0403
70039W        W13092  19.237   0.817  18.211  0.0934  0.0528  0.0675
70040W        W13093  22.335  20.351   3.378  0.0561 -0.0804  0.3851
70041W        W13094  14.785   1.509  20.395  0.2419  0.1061  0.2884
70042W        W13095  14.235  18.035  15.451  0.0828 -0.3688  0.3332
70043W        W13096  13.775  25.044  20.224 -0.1806  0.1781  0.0335
70044W        W13097  20.578  30.639  22.950  0.0785  0.1309  0.0819
70045W        W13098  26.313  26.692  24.741 -0.2468  0.2124 -0.1323
70046W        W13099   8.576  26.612  29.023 -0.1571 -0.5068 -0.0597
70047W        W13100  30.060  18.859  15.304  0.4423 -0.4120  0.0759
70048W        W13101  25.305  12.017  20.841 -0.0430 -0.0146 -0.1624
70049W        W13102  22.732   3.285   1.679  0.0233 -0.0291 -0.0918
70050W        W13103  16.522   9.130  17.873  0.1728  0.0827  0.0303
70051W        W13104  27.174  15.862   8.812 -0.1112  0.1454 -0.0492
70052W        W13105   0.991  27.220   0.916 -0.1200 -0.1264  0.1359
70053W        W13106  21.811  13.427  13.276  0.2126  0.0155  0.0428
70054W        W13107  24.313  14.868  22.722  0.0102  0.2102 -0.0298
70055W        W13108  15.112   1.763  21.666  0.1305 -0.1430 -0.1195
70056W        W13109   2.638  11.106   5.550 -0.2492  0.0688  0.2096
70057W        W13110  32.384   7.672  15.774  0.0436 -0.0597 -0.1580
70058W        W13111   2.316  33.969  22.521 -0.3377 -0.2427 -0.0788
70059W        W13112  14.247  12.071  20.374 -0.1625 -0.3081 -0.1663
70060W        W13113  28.336   0.319   8.129 -0.0377 -0.1064 -0.3154
70061W        W13114  16.459  34.279  19.077 -0.0319 -0.2043  0.0050
70062W        W13115  27.803  26.863   4.315 -0.1973  0.0244  0.0324
70063W        W13116  26.920   7.660  16.169 -0.0197  0.1020  0.2015
70064W        W13117  28.306   6.200  27.892 -0.1571 -0.0373  0.1871
70065W        W13118  12.295  19.416  22.971  0.0291  0.0702 -0.5195
70066W        W13119  22.127   2.712   1.530 -0.0050  0.0212  0.2922
70067W        W13120   9.130   7.886  15.196  0.3035 -0.0612  0.0018
70068W        W13121   4.136  33.521  19.291 -0.0873 -0.3866  0.1441
70069W        W13122  28.480  28.724  24.509  0.1472 -0.0679 -0.1969
70070W        W13123   6.180  13.887  15.711 -0.1665 -0.0044 -0.1092
70071W        W13124  29.861  14.346   2.785 -0.0415 -0.0207 -0.0125
70072W        W13125  20.777  26.813  21.883 -0.1480  0.2872  0.1009
70073W        W13126  20.931  10.292  28.629 -0.1555  0.1185  0.0308
70074W        W13127   4.508   8.992   7.372 -0.1741 -0.0563 -0.0023
70075W        W13128  24.571  13.659  21.344  0.4321  0.1628  0.0248
70076W        W13129   0.610  10.861  22.419  0.1425  0.0210 -0.0540
70077W        W13130  11.238   5.954  23.189  0.3491 -0.2387  0.2415
70078W        W13131  12.423  33.805  27.999 -0.1970  0.1918  0.0732
70079W        W13132  18.561  10.587  19.566 -0.1538 -0.2766 -0.1076
70080W        W13133  10.685  14.185  18.455  0.0474  0.0297  0.2443
70081W        W13134  33.565  27.813  17.304  0.0859  0.0190 -0.1274
70082W        W13135  21.904   7.633   0.289  0.2891 -0.0660  0.0189
70083W        W13136  20.228   1.686  17.593  0.2667  0.1168  0.1090
70084W        W13137   4.913   9.635   4.263  0.3454 -0.1454 -0.0278
70085W        W13138  13.111   7.141   4.720 -0.2317  0.2078  0.0233
70086W        W13139   8.911  20.447  20.231  0.0242 -0.3038  0.3913
70087W        W13140  24.358  18.157  14.973 -0.2196 -0.1840  0.2063
70088W        W13141  16.457   0.371   8.210  0.0591  0.0960  0.0876
70089W        W13142  30.926   5.242  22.883 -0.1083  0.1532 -0.0799
70090W        W13143  16.076  27.678   0.294  0.2112  0.0404  0.1379
70091W        W13144  31.735   8.822   1.847  0.1863  0.1733  0.0619
70092W        W13145   6.122  16.350   1.347  0.0399  0.1451  0.1129
70093W        W13146   4.263  13.996   0.853  0.0156 -0.3937 -0.1593
70094W        W13147  19.783   1.134  24.855  0.3127 -0.2965  0.0220
70095W        W13148   8.578   2.991   9.880  0.0611 -0.1500  0.0921
70096W        W13149  15.090  11.051  19.894 -0.1508  0.0495 -0.2186
70097W        W13150  12.825  11.085  29.000 -0.4614  0.3198 -0.0525
70098W        W13151  15.317   1.610  24.700  0.2069 -0.2886 -0.2135
70099W        W13152  26.168   4.554  21.963  0.3367 -0.3794 -0.2087
70100W        W13153   8.652  20.517  19.253  0.4172  0.1426 -0.1832
70101W        W13154  20.954   2.061   0.062  0.1216 -0.0683  0.1275
70102W        W13155   2.149  22.687  14.010 -0.0346  0.3613  0.0902
70103W        W13156  18.300  26.989  23.948 -0.0669  0.2149 -0.0463
70104W        W13157  24.023   9.367  23.448  0.1354  0.4427 -0.0047
70105W        W13158  11.813   3.889  21.562  0.1580  0.0885 -0.2736
70106W        W13159  18.542   2.776  16.338  0.3178 -0.2541 -0.3363
70107W        W13160   7.544  14.824   3.841  0.0091  0.0169  0.1768
70108W        W13161   4.996  31.189  15.350 -0.1163  0.2729 -0.3163
70109W        W13162  18.693  24.850  17.862 -0.0210 -0.0231 -0.2000
70110W        W13163   7.535   9.647  17.430  0.1587  0.1743  0.2666
70111W        W13164  31.936  29.812  28.804  0.4731  0.0987  0.1698
70112W        W13165   5.326   8.509  16.380  0.1684 -0.2195 -0.1009
70113W        W13166  21.203   5.561   2.906  0.0517 -0.2159  0.4170
70114W        W13167   7.673  28.835  20.145  0.2570  0.2895 -0.2455
70115W        W13168  16.262  34.219  27.992  0.2217 -0.1330 -0.1580
70116W        W13169   9.985  34.015   6.753  0.1597  0.0424  0.4247
70117W        W13170  14.324  10.010  19.347 -0.0883 -0.3444  0.1588
70118W        W13171  12.636  28.181  27.743  0.0489  0.0605  0.3146
70119W        W13172  14.890  29.776  23.692  0.1156 -0.0542  0.0317
70120W        W13173  18.554   9.823   4.880  0.0661  0.2935  0.4194
70121W        W13174  18.462   6.350  20.556 -0.1254 -0.0014 -0.2166
70122W        W13175  31.470  15.655  21.738  0.0333 -0.2270  0.1824
70123W        W13176   4.288   8.378  17.996  0.4500 -0.0638  0.0003
70124W        W13177  10.873  32.827  17.859  0.2825  0.0945  0.2729
70125W        W13178  15.306  14.627  25.165  0.4180 -0.1481  0.0712
70126W        W13179  18.801   5.974  20.415  0.2326  0.1561  0.0704
70127W        W13180   7.803   5.930  22.057  0.0508  0.0175  0.1001
70128W        W13181  22.437  33.565  20.570  0.0248 -0.1019  0.0295
70129W        W13182  11.909   1.307  20.143 -0.0879 -0.1689 -0.2808
70130W        W13183  23.005  29.238  15.112  0.3426 -0.1417  0.2891
70131W        W13184   3.505   8.887  14.100 -0.1097  0.0821 -0.0349
70132W        W13185  28.906  11.158  20.276  0.1068  0.2107 -0.1028
70133W        W13186   7.353   4.048  25.561  0.2188 -0.1432  0.0289
70134W        W13187  23.473   8.836  14.621  0.0671  0.3815  0.2989
70135W        W13188  15.874  11.487  15.182  0.0464 -0.0777  0.0167
70136W        W13189   3.796  15.372   1.369 -0.0586 -0.0128 -0.1748
70137W        W13190  34.390   7.977  22.913  0.0889 -0.2498  0.3383
70138W        W13191  30.367  19.353  15.060 -0.3440  0.0270  0.0894
70139W        W13192  10.595  19.815  17.437 -0.0075 -0.1792  0.1925
70140W        W13193  22.337  20.692  18.944 -0.1761  0.1749  0.2339
70141W        W13194  11.928  24.794   1.321  0.0535  0.0806 -0.2286
70142W        W13195  30.033  22.461  25.415  0.0342 -0.1541  0.1557
70143W        W13196  24.863   5.294  24.129  0.4727 -0.2369  0.1600
70144W        W13197  18.233   0.847  15.465  0.2844 -0.6892 -0.0048
70145W        W13198  33.918  17.252   5.608  0.0992  0.2286 -0.1748
70146W        W13199   6.755   0.090  16.034  0.0361 -0.1101  0.2141
70147W        W13200   4.573  14.431  24.168  0.0824  0.3656  0.0597
70148W        W13201  12.129   3.586  15.041 -0.0917 -0.3961  0.2293
70149W        W13202  25.372  31.611  27.409 -0.1172 -0.0271 -0.1458
70150W        W13203  24.247   8.200  14.219  0.1812 -0.1452  0.1507
70151W        W13204  26.102  10.263  19.772 -0.0307  0.1238 -0.1695
70152W        W13205  24.025  17.117  23.440  0.1873 -0.0111 -0.0633
70153W        W13206   4.024   9.869  23.034 -0.1902  0.0969 -0.0965
70154W        W13207  13.365  33.430  16.814  0.0667 -0.3385 -0.0567
70155W        W13208  19.063  15.224  23.071  0.1401  0.0482 -0.2965
70156W        W13209  13.559  31.817  20.781 -0.0099  0.0807  0.1340
70157W        W13210  13.481  14.995   3.908 -0.0359 -0.0087  0.3727
70158W        W13211  10.189  14.142  20.242 -0.1135  0.0225  0.1349
70159W        W13212  19.845   6.841   0.060 -0.1529 -0.1532 -0.0824
70160W        W13213   7.397   0.012  24.084  0.0191 -0.0222 -0.1735
70161W        W13214  11.736  31.077  18.403  0.1234  0.1271  0.1288
70162W        W13215  12.554  31.700  16.356 -0.0089  0.0688 -0.1567
70163W        W13216   4.077  31.672   3.093  0.4403 -0.4577  0.1996
70164W        W13217  10.720   8.265  15.363  0.2219  0.0830  0.1105
70165W        W13218  27.554  29.913  23.036  0.0505 -0.0541  0.1638
70166W        W13219  31.333   4.122  18.264  0.0582 -0.1174 -0.1428
70167W        W13220  11.082  11.259  19.824  0.2066 -0.2556  0.0585
70168W        W13221  28.805   8.084  20.877  0.1780 -0.2022 -0.1947
70169W        W13222   8.223  10.575  15.127  0.0930 -0.0370  0.0102
70170W        W13223  14.883  34.565   2.829 -0.0727  0.2538  0.0307
70171W        W13224  30.969  24.014   1.801 -0.1920 -0.1421  0.1593
70172W        W13225  20.969  34.605  25.318 -0.2202  0.0857  0.1535
70173W        W13226  13.687   1.380   5.686  0.1637  0.2058  0.0363
70174W        W13227  14.107  10.523  11.040 -0.0058  0.1395 -0.1639
70175W        W13228  17.036   6.099  15.462 -0.1209  0.1682 -0.0876
70176W        W13229  22.814   7.503  14.867  0.2477 -0.3655 -0.1044
70177W        W13230   6.679  22.025   7.398 -0.0272 -0.0860  0.0561
70178W        W13231  27.073  15.311  19.011 -0.1066 -0.2967  0.1459
70179W        W13232  21.891   2.905  19.476 -0.3036 -0.1094  0.0416
70180W        W13233  33.340   3.007  13.861 -0.3391 -0.2717  0.1624
70181W        W13234   6.538   6.825  17.683 -0.1833 -0.1902 -0.4667
70182W        W13235  13.364   4.007  20.773 -0.2563  0.0320  0.0925
70183W        W13236  17.606  16.578  23.770  0.1488 -0.1404 -0.1317
70184W        W13237   7.369   5.560  26.090 -0.3034  0.0539 -0.2877
70185W        W13238   5.800  13.079  26.109 -0.1439 -0.1047  0.2091
70186W        W13239  14.718   4.956  25.888  0.0581 -0.0564 -0.1300
70187W        W13240  23.917  32.975   6.777 -0.1910  0.0531  0.2570
70188W        W13241  12.983   7.508  24.830 -0.3413  0.1597 -0.1215
70189W        W13242  29.621  31.007  27.537 -0.0299  0.2382 -0.0408
70190W        W13243  19.900   0.739  14.155  0.0291  0.0438 -0.2871
70191W        W13244  22.520  29.374  28.616 -0.1421  0.2160 -0.0693
70192W        W13245   5.805  21.920  22.156 -0.1249  0.1962 -0.1886
70193W        W13246   7.052  21.179  20.784  0.1676  0.0898  0.2423
70194W        W13247  14.182  34.157  24.186 -0.3001 -0.0582  0.2802
70195W        W13248  16.958  29.813   5.395 -0.2518  0.0185 -0.0136
70196W        W13249   5.459  18.401  21.976  0.1537  0.0867  0.1979
70197W        W13250  28.120  32.917   1.698 -0.1905 -0.3945 -0.0416
70198W        W13251   1.324   8.426   4.738  0.2540 -0.1678 -0.0683
70199W        W13252   7.516  26.859   1.068  0.1888 -0.2576 -0.0396
70200W        W13253   1.472  14.499  25.711 -0.1669  0.2378 -0.4608
70201W        W13254  15.689  15.845   8.395 -0.3588  0.0062  0.2806
70202W        W13255   3.385   0.982  25.116  0.0225  0.2124  0.1839
70203W        W13256   1.713   8.609  16.809  0.1267 -0.0700 -0.0901
70204W        W13257  27.271  13.285  24.199 -0.3744 -0.2038  0.0219
70205W        W13258  26.659  16.948   2.193  0.1698 -0.1376 -0.0250
70206W        W13259   5.101   2.957   6.209 -0.0617  0.1137 -0.0022
70207W        W13260  32.867  32.350  23.899 -0.0966  0.1374 -0.2545
70208W        W13261  23.819   2.570  26.418  0.1411 -0.1429 -0.1625
70209W        W13262  18.980   9.396  22.909 -0.1172  0.1345 -0.0087
70210W        W13263  31.627  20.876   5.342 -0.1242  0.0792  0.0746
70211W        W13264  14.863  30.444  17.756  0.0767  0.1508 -0.1843
70212W        W13265  31.637   9.622   9.714  0.1383 -0.2975  0.1970
70213W        W13266   2.987   6.688   7.535  0.2659  0.2059  0.0671
70214W        W13267   4.789  25.733  14.413 -0.3060  0.2367  0.1525
70215W        W13268  17.121  24.680  18.066  0.2311 -0.1543 -0.1296
70216W        W13269  18.990  33.241  26.073  0.2867  0.0880  0.0523
70217W        W13270  10.994  26.061   9.505 -0.0504 -0.1206  0.0291
70218W        W13271   1.862   5.837   2.270 -0.0514 -0.1846 -0.3317
70219W        W13272  21.414   5.102  17.322 -0.1050 -0.0316  0.0794
70220W        W13273  14.101  13.903  27.787  0.1678 -0.1737 -0.2315
70221W        W13274  17.073  31.479   4.024 -0.0890 -0.1599  0.2548
70222W        W13275  17.271  30.487  25.324 -0.0408  0.0764 -0.0443
70223W        W13276  30.410   1.931  15.434  0.1224  0.2426  0.2359
70224W        W13277  20.277  21.699   5.525  0.0022 -0.2751 -0.2973
70225W        W13278  12.213   2.060   7.960 -0.2000  0.1344  0.1100
70226W        W13279  34.567  24.633  19.545 -0.1988  0.0062  0.1042
70227W        W13280  13.976   6.178  19.683 -0.0213 -0.3923 -0.0830
70228W        W13281  24.506  11.199  22.936 -0.0771  0.4859  0.0117
70229W        W13282  10.686  15.541  26.705  0.0837  0.1245 -0.4176
70230W        W13283  17.121   2.889  28.150  0.2488  0.0978  0.0626
70231W        W13284   6.793   0.466   6.385  0.1577  0.0889 -0.1736
70232W        W13285  20.682  21.593  17.887  0.2662 -0.1176  0.0642
70233W        W13286  15.626   1.124  28.085 -0.2277 -0.0865 -0.1152
70234W        W13287  12.451  32.664  19.262 -0.1163 -0.0829  0.0271
70235W        W13288  20.322  13.580  18.740 -0.0640  0.0270  0.1816
70236W        W13289  29.941  15.203  20.070  0.0053 -0.1111  0.0874
70237W        W13290  20.836  10.968  26.815 -0.1629  0.1083 -0.0185
70238W        W13291  18.995   5.033  25.255 -0.0244 -0.0259 -0.0211
70239W        W13292  18.653   0.114  18.832 -0.0952 -0.1377 -0.0902
70240W        W13293  31.634   2.402  18.677  0.2425 -0.1371 -0.1587
70241W        W13294   9.810  27.646  16.629 -0.2894 -0.4562 -0.0994
70242W        W13295  25.512   5.985  29.005  0.0265 -0.1643  0.1162
70243W        W13296  23.916   9.880  14.274 -0.1593 -0.0890  0.3902
70244W        W13297  14.238  30.652  23.087  0.1152  0.0170 -0.1378
70245W        W13298   0.782   5.802  27.513  0.3078 -0.0904  0.0434
70246W        W13299  10.842  33.437  22.388  0.0687 -0.0959 -0.0809
70247W        W13300  24.661   1.969  21.053  0.1292 -0.1159 -0.3438
70248W        W13301  31.960  14.760   7.195  0.0319 -0.2281 -0.1063
70249W        W13302   1.431  26.508  17.949  0.1739 -0.0542 -0.1644
70250W        W13303   9.397  29.478   0.384  0.1968 -0.0050 -0.1588
70251W        W13304  11.146   2.789   0.152  0.0273 -0.1452  0.1595
70252W        W13305  22.567  30.751  19.938  0.3431 -0.1651 -0.2101
70253W        W13306  34.475   8.177   3.573 -0.1207  0.3038  0.3075
70254W        W13307  25.566  29.117   1.466 -0.1825 -0.0163  0.2243
70255W        W13308  13.890   5.962  16.557  0.0945  0.2736  0.1369
70256W        W13309  10.611   5.555   8.626 -0.0912  0.4245  0.3185
70257W        W13310  24.554  34.270  15.300 -0.2288 -0.0311  0.0375
70258W        W13311  18.123   7.597  22.616 -0.2800 -0.0194  0.0203
70259W        W13312  28.656  17.971  22.317  0.1417  0.0149  0.4399
70260W        W13313  12.104   3.281  18.185 -0.0927 -0.1458  0.1397
70261W        W13314  15.070  19.808  22.322 -0.4334  0.2417 -0.0880
70262W        W13315  12.181  15.546  16.732 -0.2311 -0.1647 -0.1269
70263W        W13316   7.169  12.526  15.747  0.1129  0.0736  0.1285
70264W        W13317  17.285  25.022   5.016 -0.2578  0.0767  0.2815
70265W        W13318   4.545  14.229  20.520  0.0679  0.0285  0.1024
70266W        W13319   8.491  16.682  18.314 -0.1086  0.0527  0.0627
70267W        W13320  12.023  12.357   1.700  0.2162 -0.3698 -0.0654
70268W        W13321  22.269   5.192  28.752 -0.4226  0.0332  0.0217
70269W        W13322  14.792  30.162  20.653 -0.1162  0.0002 -0.2569
70270W        W13323  11.510  23.797  27.909  0.1051 -0.0706  0.3731
70271W        W13324   5.908  17.052  27.196 -0.0521  0.2125  0.1970
70272W        W13325  11.123  25.348  23.567 -0.0359 -0.0453  0.3152
70273W        W13326  25.957   5.640  18.992 -0.3012  0.1349  0.2670
70274W        W13327  12.362  26.208  17.941  0.0303 -0.1169  0.0019
70275W        W13328  25.440   4.939  19.662 -0.2638 -0.0054  0.2885
70276W        W13329  11.222  32.886  20.684  0.1226 -0.0632 -0.2502
70277W        W13330  23.905  11.596  24.210 -0.1682 -0.2123  0.0285
70278W        W13331   5.933  11.823   0.061  0.1597  0.0096  0.2735
70279W        W13332  20.265   4.656  10.685  0.1809  0.1426 -0.1034
70280W        W13333  24.893  14.745  22.180  0.0647  0.0536  0.1465
70281W        W13334  16.457   4.793  23.254  0.4116  0.0207  0.2447
70282W        W13335  13.906  15.185  26.309 -0.1262 -0.0556  0.0521
70283W        W13336  14.366   6.109  24.048 -0.2569 -0.0189  0.1182
70284W        W13337  13.904   7.407  19.194  0.3753  0.3289  0.1835
70285W        W13338  19.917   2.319   1.847 -0.0769  0.0610  0.0082
70286W        W13339  34.644  25.230  16.834  0.0995 -0.0874 -0.0081
70287W        W13340  18.524  26.144  22.578  0.1170 -0.0734 -0.0915
70288W        W13341  19.272   9.709   7.410 -0.0090  0.0243  0.0528
70289W        W13342  11.115  33.145  28.947  0.2820  0.1382  0.3673
70290W        W13343   5.274  10.541   0.531 -0.0272 -0.1618 -0.1455
70291W        W13344   1.117  11.538  28.935 -0.0137  0.1274 -0.0451
70292W        W13345   9.239   9.861  21.013  0.0591 -0.1934  0.3092
70293W        W13346   6.762  19.819  17.744  0.3141 -0.1702  0.0484
70294W        W13347  27.812   0.121  22.474 -0.1090 -0.1774  0.0075
70295W        W13348  10.878  14.970   4.619  0.1990 -0.4854 -0.0689
70296W        W13349  15.072  13.337   9.267 -0.0080 -0.0462  0.7256
70297W        W13350  17.151   3.705  14.284  0.0853 -0.1421 -0.1336
70298W        W13351  13.215   4.892  15.199  0.2918  0.0151 -0.1739
70299W        W13352  23.463   5.313   3.191  0.1093 -0.0268  0.0304
70300W        W13353  32.068  33.568   8.771 -0.0804  0.0458 -0.0873
70301W        W13354  14.634  33.438  20.813 -0.2631 -0.0457  0.0114
70302W        W13355   4.166   3.586  24.531  0.0357  0.0386 -0.2029
70303W        W13356  13.296  14.422  22.370 -0.6094 -0.2286 -0.0378
70304W        W13357   9.856  14.590   0.053 -0.0651  0.0885 -0.2380
70305W        W13358   2.478  25.042   0.985  0.1553 -0.0520 -0.1813
70306W        W13359  10.166  33.721  21.757 -0.0701  0.2063 -0.1913
70307W        W13360   9.773  13.566  16.957  0.0507 -0.1528 -0.1802
70308W        W13361  22.558   6.052   1.507  0.1647  0.0336  0.0367
70309W        W13362  12.037   4.498  21.998 -0.0334  0.0499 -0.0510
70310W        W13363  29.986  19.389  25.525 -0.0761  0.3173 -0.0428
70311W        W13364  22.179   2.809  17.921 -0.2257 -0.2274 -0.0108
70312W        W13365  13.094   3.753  22.043 -0.0793  0.1502  0.1813
70313W        W13366  12.866  25.052  17.565 -0.2783  0.0665  0.0098
70314W        W13367  19.726   8.299  19.551  0.2615  0.2126  0.1731
70315W        W13368   2.064   0.692  27.139  0.0430  0.1612 -0.1227
70316W        W13369  21.411   0.898   1.012  0.0870  0.1955 -0.0229
70317W        W13370  19.808   4.288  24.326 -0.0027  0.0242  0.0912
70318W        W13371  32.045   3.110  19.127 -0.3253 -0.3155 -0.1105
70319W        W13372   8.454  23.816  16.254  0.1342  0.2391 -0.2381
70320W        W13373   2.815  11.646  15.793  0.1188 -0.3826 -0.3170
70321W        W13374  27.911  23.649  25.098  0.0127 -0.2471 -0.4377
70322W        W13375  14.778  25.855  20.987  0.2111  0.0972  0.1450
70323W        W13376   8.337  27.996  25.255  0.0388  0.1515  0.2670
70324W        W13377  28.284  16.959  28.527 -0.3901  0.0773  0.1489
70325W        W13378   7.509  28.440  20.350 -0.2688 -0.0694 -0.0622
70326W        W13379  25.986   5.848  28.762 -0.0587 -0.1113 -0.0378
70327W        W13380  11.954   1.310  22.498  0.0214 -0.0859 -0.0577
70328W        W13381  18.282  20.713   0.463  0.0292 -0.2294  0.1697
70329W        W13382  17.615  19.754   5.608  0.0623 -0.2011  0.2715
70330W        W13383  23.915  30.397   5.123 -0.3364  0.3695  0.0677
70331W        W13384  20.504  31.951  17.164 -0.0939  0.0572 -0.1341
70332W        W13385  18.082   6.803  26.657 -0.1706  0.3598 -0.0137
70333W        W13386  18.318  16.574  15.107 -0.2558 -0.3612 -0.3421
70334W        W13387   0.316   5.609  28.774  0.1513  0.2628 -0.1757
70335W        W13388  24.422   8.887   0.648  0.3159 -0.0517  0.0622
70336W        W13389  18.532  17.241  15.300  0.2715  0.2176  0.5388
70337W        W13390  19.934  18.634   1.560 -0.2568  0.3906 -0.1200
70338W        W13391  22.670   3.351  22.256 -0.1072 -0.1368 -0.1666
70339W        W13392  21.774  26.943  25.467 -0.1734 -0.0773  0.0226
70340W        W13393  32.034  32.572  22.726 -0.0183  0.0767  0.0391
70341W        W13394  18.055   3.515  16.163  0.1471  0.0336  0.0998
70342W        W13395  13.053   4.428  20.578 -0.3511  0.1636 -0.1508
70343W        W13396  22.988  15.224  28.160 -0.0267  0.1563 -0.2639
70344W        W13397  33.061  23.891  17.844  0.3060  0.5120  0.1800
70345W        W13398  19.166   1.359  17.295 -0.1784  0.0345  0.2165
70346W        W13399  11.129  11.284  25.906  0.0422 -0.0866  0.1662
70347W        W13400  18.611   6.659  20.200 -0.1814 -0.0713 -0.0291
70348W        W13401  17.348  26.233   1.768 -0.3397 -0.1968 -0.1068
70349W        W13402   5.891  11.928   9.909 -0.1245 -0.0290  0.2622
70350W        W13403  13.181  14.572  18.928 -0.1723 -0.2226 -0.0796
70351W        W13404  12.590  25.230  17.202 -0.2276 -0.4031  0.2177
70352W        W13405   5.536  13.356  22.163  0.1707 -0.0311 -0.0302
70353W        W13406  22.545   4.062  26.184 -0.0271 -0.2126 -0.3183
70354W        W13407   6.676   9.012  20.037  0.3161  0.1146 -0.0220
70355W        W13408  14.730  32.239  17.542  0.1017 -0.0072 -0.2863
70356W        W13409  13.987   8.541   1.965  0.2773  0.1722  0.3433
70357W        W13410  27.531   6.048  27.333 -0.0251  0.1507  0.2512
70358W        W13411  13.809  22.344  18.542 -0.4680 -0.1644 -0.2421
70359W        W13412  12.900  19.819   6.758  0.3899 -0.2713  0.0328
70360W        W13413  12.158  32.787  24.348  0.0385 -0.0170 -0.1306
70361W        W13414  17.921  33.401  25.665  0.1974 -0.3650 -0.0170
70362W        W13415  32.293  32.431  20.536 -0.2300 -0.0085 -0.3242
70363W        W13416  18.496  31.687   4.123  0.1968  0.5044 -0.2914
70364W        W13417  20.676   4.189  24.869 -0.0414 -0.1962 -0.2474
70365W        W13418  14.206   9.079   8.165 -0.0829 -0.0551  0.0635
70366W        W13419  19.119   4.604   0.079 -0.0524 -0.0707 -0.0323
70367W        W13420   8.886   4.457  13.948  0.1135 -0.0282  0.2436
70368W        W13421  11.722   9.766  22.273 -0.1467  0.2536 -0.1674
70369W        W13422   2.228   0.281  23.413  0.0149 -0.2307 -0.0823
70370W        W13423  10.313  28.863   4.744 -0.0201  0.1657  0.1187
70371W        W13424  11.906  12.127  15.794  0.0452  0.1584  0.0894
70372W        W13425  10.641  14.682  25.712 -0.2932  0.3676  0.1099
70373W        W13426  10.549  20.470   1.047 -0.2180 -0.1088 -0.2597
70374W        W13427   9.484   8.894  18.867  0.0555 -0.1914  0.1442
70375W        W13428  28.953   5.334  13.778 -0.2866  0.0098  0.0799
70376W        W13429  22.149  32.679  20.768 -0.2311  0.1051 -0.0178
70377W        W13430  10.624  13.258   2.412 -0.1285  0.1247 -0.2884
70378W        W13431  19.546  18.182  28.212  0.2211  0.2522  0.1458
70379W        W13432  34.651  32.262  16.801 -0.0901 -0.1110  0.2378
70380W        W13433  19.776  29.935  17.779  0.1089 -0.2116  0.2512
70381W        W13434  10.302  22.826  28.115 -0.1446 -0.1097  0.0637
70382W        W13435  13.988  32.219  25.320  0.1865  0.1192  0.1695
70383W        W13436  21.439   6.211  22.215 -0.3757 -0.3920 -0.2128
70384W        W13437  18.444   7.252  18.766 -0.1715  0.1152  0.0878
70385W        W13438   8.286   9.193  15.784  0.2917  0.2468  0.1555
70386W        W13439   5.713   1.565   3.533 -0.1282  0.2144  0.0950
70387W        W13440  15.676  31.095  15.738 -0.0503  0.0045  0.1715
70388W        W13441  24.328   5.468  21.755  0.0009 -0.1973  0.0692
70389W        W13442  19.900   6.380  25.293  0.2233 -0.0531 -0.2802
70390W        W13443  14.260   6.788  20.634  0.0698  0.0740 -0.2030
70391W        W13444   7.874  17.028  29.138  0.0124 -0.1544 -0.1263
70392W        W13445   7.307   7.073  22.786 -0.2283  0.1830  0.3495
70393W        W13446  27.903  33.464  22.457 -0.2494 -0.2492 -0.3534
70394W        W13447  22.069   2.152   2.934 -0.0800  0.0024 -0.0482
70395W        W13448  24.024   4.697  17.967 -0.1323 -0.1866 -0.3488
70396W        W13449  10.167   6.690   5.043  0.1028  0.3679 -0.0684
70397W        W13450  18.872  33.429  17.180 -0.0796 -0.0642 -0.1848
70398W        W13451  17.047   5.011   4.768  0.0222 -0.0600 -0.0837
70399W        W13452  18.124  22.131  14.780  0.0163 -0.0683  0.0671
70400W        W13453  18.883  12.665  24.042  0.1314 -0.2835  0.0199
70401W        W13454  21.586  34.167  23.823 -0.1051 -0.1189 -0.0398
70402W        W13455   2.756  18.825  20.570 -0.0906  0.0385 -0.2688
70403W        W13456  20.687  34.479  27.092 -0.3044 -0.1924  0.2053
70404W        W13457   2.973   8.598   4.219  0.2830 -0.0237 -0.0381
70405W        W13458  32.062  29.684  17.111 -0.2354  0.3113 -0.1828
70406W        W13459  13.079   3.295  16.087  0.2218  0.0368  0.1613
70407W        W13460  12.061  25.990  28.229  0.3314 -0.1617 -0.0716
70408W        W13461  20.430   6.095  21.231  0.0932 -0.0113  0.0918
70409W        W13462  22.223   4.748  28.988 -0.1178  0.0534 -0.1290
70410W        W13463  10.842  17.444  18.026 -0.1770 -0.0672 -0.0257
70411W        W13464  11.110  20.726   6.487  0.1124  0.0443 -0.2181
70412W        W13465  12.569  25.458   3.384 -0.1309 -0.1711  0.0556
70413W        W13466  22.936  15.147  25.095  0.2771 -0.2991 -0.0596
70414W        W13467  31.600  32.305   7.400 -0.0379 -0.1087  0.1148
70415W        W13468  12.813   0.105  24.519 -0.1764 -0.1638  0.0296
70416W        W13469  11.135  22.913  26.069  0.4215 -0.1065  0.0691
70417W        W13470  14.091   9.617  28.488  0.1396 -0.1354  0.1242
70418W        W13471  14.284  16.600  27.323 -0.0098  0.0355 -0.0029
70419W        W13472  32.245   6.538   2.547 -0.0555 -0.0257 -0.1576
70420W        W13473   3.420  22.779  23.185  0.1586 -0.1058 -0.0470
70421W        W13474  13.104  21.500  14.866  0.2221  0.1677  0.0403
70422W        W13475   9.206   7.904  14.200  0.0864  0.0034 -0.1013
70423W        W13476  31.020  12.513  21.210 -0.0632  0.0205 -0.2498
70424W        W13477   8.629   6.324  19.233  0.0598 -0.0586  0.2023
70425W        W13478   7.839  19.670  24.668 -0.4092 -0.0028  0.2217
70426W        W13479  15.062   4.959   6.604 -0.0248 -0.4166  0.2393
70427W        W13480  28.063  20.819  27.908 -0.2488 -0.1042 -0.1159
70428W        W13481  10.238   9.611  15.129  0.0328 -0.0738  0.0734
70429W        W13482  15.228  29.992  18.799 -0.0142 -0.1830 -0.1106
70430W        W13483  30.738  18.350  20.299  0.0865 -0.1751 -0.1078
70431W        W13484  19.055   3.739  22.111 -0.0825  0.0167  0.0308
70432W        W13485   3.072  29.066   4.392  0.0191  0.0311 -0.5064
70433W        W13486  19.549  12.150  18.175 -0.2096  0.1966  0.1616
70434W        W13487   8.769  30.224   0.013  0.1738  0.1691 -0.1987
70435W        W13488  12.193  33.469  20.152 -0.3123  0.0450  0.2380
70436W        W13489  12.135   1.201   1.828  0.0641 -0.0322  0.0702
70437W        W13490  10.829  16.413   1.015  0.3283 -0.2716  0.1576
70438W        W13491   2.421  16.770  14.537 -0.1330  0.0364  0.2606
70439W        W13492  15.583  11.050   0.896 -0.4235  0.2079 -0.3437
70440W        W13493  22.119  19.179   5.223  0.3803 -0.3673 -0.0738
70441W        W13494  27.707  20.762  14.822  0.2070 -0.0844  0.1295
70442W        W13495  20.151   0.066  16.566 -0.0362  0.1404 -0.3556
70443W        W13496  26.544  14.957  20.548  0.0264  0.1968  0.0955
70444W        W13497   6.370   7.591   9.670 -0.1179  0.1758 -0.2557
70445W        W13498  19.942  14.195   2.237 -0.2785 -0.0432  0.0774
70446W        W13499   3.225  28.567  21.949  0.1422 -0.2575 -0.2490
70447W        W13500  29.881  33.647  21.162  0.0773  0.4302  0.0111
70448W        W13501  12.089  11.023   9.411 -0.2761 -0.0254  0.0400
70449W        W13502   1.082  15.945   3.096  0.1004  0.2076  0.1716
70450W        W13503  15.724  18.139  24.710  0.0595  0.3285 -0.0335
70451W        W13504  18.597   7.371  22.917 -0.2761 -0.0786 -0.0890
70452W        W13505  20.386   8.932  19.462 -0.2667  0.3547 -0.0809
70453W        W13506   8.410   4.946   4.209  0.3170  0.1894  0.0108
70454W        W13507  17.494  32.599   9.165  0.0930 -0.2449 -0.0640
70455W        W13508  29.111  20.928  18.892 -0.1221 -0.3385 -0.0220
70456W        W13509  12.241   2.653   4.527  0.2374 -0.2176  0.1393
70457W        W13510  12.500   0.611  19.808  0.2357 -0.0076 -0.1852
70458W        W13511  21.472  10.673  23.413 -0.1196  0.1271 -0.1069
70459W        W13512   0.763  14.424  15.118 -0.1465  0.0958  0.0289
70460W        W13513   7.121   9.574   5.122 -0.0397 -0.2356 -0.1536
70461W        W13514  12.329  10.473  16.995  0.1118 -0.0532 -0.1153
70462W        W13515  14.960  11.786  15.202 -0.0586 -0.0281  0.1370
70463W        W13516  31.231   2.727  28.009  0.0407 -0.1403 -0.0761
70464W        W13517  27.374   0.902   4.346  0.1128 -0.2081  0.0626
70465W        W13518  10.114  11.154  17.153  0.0870 -0.0146 -0.2113
70466W        W13519  18.443  29.282  18.949 -0.3429  0.1943 -0.1913
70467W        W13520  13.474  22.842   1.785  0.0304 -0.1275  0.0629
70468W        W13521  16.979   0.354   9.102  0.1003 -0.0685  0.4699
70469W        W13522   9.950   9.685   9.334  0.1023 -0.2270 -0.0172
70470W        W13523   1.151  16.918  21.884 -0.0644  0.1718  0.1217
70471W        W13524  11.631   1.229   4.313  0.0681 -0.0799  0.0659
70472W        W13525  20.598  17.258  20.166 -0.3581  0.0641  0.2001
70473W        W13526  17.818  29.324   2.699  0.0900  0.2302  0.0194
70474W        W13527  12.370   7.004  23.615  0.0364 -0.0468 -0.2964
70475W        W13528  10.738  28.178  14.074 -0.0352  0.1190  0.2057
70476W        W13529  14.104  11.944   8.065  0.1411 -0.0723  0.1938
70477W        W13530  13.116  11.102  27.150  0.1390 -0.1011 -0.0024
70478W        W13531  12.293  32.779  15.426  0.1015 -0.0696 -0.1984
70479W        W13532   3.963   5.368   2.127  0.0255 -0.1925  0.1685
70480W        W13533  15.245  34.280  13.734  0.0753 -0.1219 -0.2535
70481W        W13534   4.679  33.808  24.287  0.0391 -0.0595 -0.1181
70482W        W13535  20.958  29.988  21.804 -0.0685 -0.0263 -0.3775
70483W        W13536  17.888   6.429  14.889 -0.1706 -0.2680 -0.0913
70484W        W13537  14.954   9.278  19.091 -0.0493 -0.0498 -0.0430
70485W        W13538  24.035  14.709   4.207 -0.2078 -0.0971 -0.0228
70486W        W13539  25.044  17.156  18.789  0.1641 -0.0705  0.2928
70487W        W13540  21.775  21.338   9.919  0.0375 -0.1728  0.1591
70488W        W13541  19.833  32.564   2.784  0.0302  0.1705 -0.1689
70489W        W13542   5.608  16.847  24.070  0.1109  0.3045  0.2953
70490W        W13543  20.302   2.992  27.716 -0.4803  0.3205 -0.0279
70491W        W13544  14.621  15.564  25.192  0.0877 -0.1975 -0.1124
70492W        W13545  27.599  32.802  22.902 -0.0351 -0.2389  0.0781
70493W        W13546  13.457   0.091   1.867 -0.0337  0.0103  0.0466
70494W        W13547  10.050  18.873  19.916  0.2816 -0.0463 -0.2402
70495W        W13548  21.014   1.742   9.775 -0.0424  0.1946  0.0090
70496W        W13549  17.637  10.001   6.359  0.4422 -0.3077 -0.2744
70497W        W13550  13.944   2.296   3.152 -0.0112  0.1973 -0.4394
70498W        W13551  15.723   1.414   5.276  0.2072 -0.1445 -0.0768
70499W        W13552  20.498  28.626  20.086 -0.0987 -0.3039 -0.0086
70500W        W13553   3.138  33.331  15.577 -0.2286  0.1283  0.1821
70501W        W13554  12.847  28.201   6.728 -0.1494 -0.0665  0.2345
70502W        W13555   0.426   5.859  24.139  0.0330  0.2033 -0.3435
70503W        W13556   9.874   0.321   1.915  0.1170 -0.0073 -0.2483
70504W        W13557   9.693  34.081   8.757 -0.3154 -0.0222 -0.1272
70505W        W13558  17.643  16.074  24.658 -0.1893 -0.0997 -0.1738
70506W        W13559  12.309  13.522  19.031 -0.0546 -0.1241  0.2161
70507W        W13560   4.957  24.250   9.669 -0.2754 -0.0606  0.2147
70508W        W13561  22.000   4.477   6.986 -0.1276 -0.0568  0.0240
70509W        W13562  18.112  10.807  22.438 -0.2276 -0.2137 -0.1751
70510W        W13563  23.987  16.083  21.827  0.0072  0.1468  0.2075
70511W        W13564  16.665   2.007  18.407 -0.0785  0.1850  0.1808
70512W        W13565  20.813   8.354  14.319  0.0346  0.0210  0.2400
70513W        W13566  22.145   5.635  24.234  0.2422 -0.2658 -0.0535
70514W        W13567   3.657   0.218  25.579  0.2611 -0.0050 -0.0544
70515W        W13568  14.175  22.131  21.312 -0.3247  0.1424 -0.1947
70516W        W13569   0.504  31.013  25.397  0.0015 -0.1045  0.0977
70517W        W13570  18.401   4.561  24.108 -0.4769 -0.2699  0.2928
70518W        W13571  10.217  17.621  22.382  0.2528 -0.1698  0.1279
70519W        W13572  26.964   9.922  22.841 -0.0646 -0.0043 -0.0053
70520W        W13573  32.033  31.392   3.171  0.2010 -0.1550 -0.2451
70521W        W13574  12.980  34.299   3.254 -0.0575 -0.0069  0.3675
70522W        W13575   7.382  19.591  15.723 -0.1633  0.1831 -0.1454
70523W        W13576  13.418   6.260  16.682  0.0114  0.1665 -0.0923
70524W        W13577   1.342  20.258  25.831  0.2275 -0.0893  0.1440
70525W        W13578  17.764   8.324  18.935  0.2382  0.0652  0.1192
70526W        W13579  32.945   6.599  18.948  0.2675 -0.1076  0.1221
70527W        W13580  23.957   8.604  14.528 -0.1837 -0.1287 -0.1609
70528W        W13581  10.522   3.440  17.232  0.1907 -0.1476  0.0643
70529W        W13582  12.015   8.720  17.925  0.1177  0.1697  0.0009
70530W        W13583   2.860  29.939   5.983 -0.2082 -0.0544  0.2030
70531W        W13584  13.999   5.118  24.485  0.1846  0.0485  0.0852
70532W        W13585   9.394  26.178  20.469 -0.4459 -0.1408 -0.1437
70533W        W13586  19.735   0.343  23.258 -0.0673  0.1306 -0.0427
70534W        W13587  11.401  15.620   5.014  0.2323 -0.1655 -0.2474
70535W        W13588  26.885   2.933   3.847 -0.1630  0.2095 -0.1088
70536W        W13589  30.891   7.158   7.442  0.0488  0.1997 -0.1938
70537W        W13590  10.206  12.229  16.210  0.0254 -0.0435 -0.1612
70538W        W13591   8.251  12.393   3.481 -0.0741 -0.0005 -0.0057
70539W        W13592  18.088  10.548  26.125  0.2247 -0.1724 -0.1272
70540W        W13593  10.425  34.037  21.501  0.0321 -0.2467  0.2237
70541W        W13594  21.383  28.890  14.619 -0.1177  0.1067  0.1397
70542W        W13595  23.782  34.674   9.980  0.0117 -0.0878 -0.0230
70543W        W13596  10.967   6.748  17.765  0.1100  0.0730  0.0405
70544W        W13597   7.472  18.384   5.974 -0.0723 -0.1174  0.0202
70545W        W13598  17.351  11.494  14.956 -0.1668  0.0698 -0.0470
70546W        W13599  18.612  23.111  21.063 -0.0486  0.0046  0.1357
70547W        W13600   8.366  32.646  16.577  0.1582  0.1510 -0.0791
70548W        W13601   9.351  14.689   1.193 -0.0707 -0.1905  0.0288
70549W        W13602  29.209  20.021   7.758  0.3206  0.1328 -0.1633
70550W        W13603  30.821   8.098  15.318 -0.0461 -0.0103 -0.1070
70551W        W13604  15.037  17.291  28.325 -0.1156  0.1358 -0.2025
70552W        W13605  18.768  26.297  14.572  0.2421  0.2560  0.3215
70553W        W13606   1.557  19.270  15.762 -0.0197  0.1402  0.2665
70554W        W13607  29.275  16.010  25.404  0.0994 -0.4853 -0.1841
70555W        W13608  14.325   6.734  16.954 -0.0950  0.0178  0.2132
70556W        W13609   3.138   3.088   2.188 -0.4153  0.0746 -0.3385
70557W        W13610   1.713  31.580  23.602 -0.0678 -0.4211  0.2442
70558W        W13611  20.163   5.294  18.282  0.2212 -0.2110  0.2765
70559W        W13612  13.625   6.576  23.079  0.0308  0.0590 -0.2040
70560W        W13613  22.353   9.782  28.542  0.1744 -0.0737 -0.0239
70561W        W13614  12.734  28.927  28.537  0.1381  0.1115 -0.3063
70562W        W13615  15.160  17.229  23.418 -0.1783  0.2003 -0.1966
70563W        W13616  12.411  24.417  18.665 -0.0893  0.0894 -0.0407
70564W        W13617  16.042  26.599   5.617  0.0583  0.0311 -0.0126
70565W        W13618  21.646  11.039   9.164  0.0726  0.0387 -0.0035
70566W        W13619  10.300  14.591  20.116 -0.2450  0.1269  0.1156
70567W        W13620   8.650   6.388  26.970 -0.1925 -0.2043 -0.3449
70568W        W13621  23.202  24.106  23.420 -0.1421 -0.0832  0.0635
70569W        W13622   4.703   5.091  25.323 -0.2039  0.1974  0.4547
70570W        W13623  32.199  16.963  14.153 -0.1826 -0.1962 -0.2486
70571W        W13624  12.935  16.535   4.024  0.1344 -0.2069  0.0504
70572W        W13625  26.276  34.440  25.383  0.1065 -0.0000  0.1034
70573W        W13626  21.632  20.104  14.268  0.1127 -0.0449  0.2966
70574W        W13627  21.526   4.865   2.690  0.4358 -0.1874 -0.1514
70575W        W13628  17.848   6.623   0.934  0.3734  0.1241 -0.0053
70576W        W13629  31.051  18.290   1.342 -0.2255  0.0044 -0.2066
70577W        W13630  27.666   9.136  26.494 -0.0174 -0.1199  0.0084
70578W        W13631   8.651   1.264   2.729 -0.2577  0.2665  0.2725
70579W        W13632  23.708   5.455   3.604  0.0614 -0.3673  0.0963
70580W        W13633  11.237   5.057  21.531 -0.0467  0.1428 -0.0277
70581W        W13634  25.220   7.867   7.596 -0.0696 -0.3612  0.1610
70582W        W13635  32.362   7.340   8.357  0.1120  0.0290 -0.4044
70583W        W13636  13.497  33.433  22.274 -0.0980 -0.1937  0.2868
70584W        W13637   3.589   5.283   4.944 -0.1058  0.2003  0.1114
70585W        W13638  32.944  13.704   3.664 -0.0184 -0.0787 -0.1246
70586W        W13639   6.818  13.718  21.005  0.1001 -0.0270 -0.0137
70587W        W13640   6.105  19.476  17.167 -0.3560  0.3842 -0.0401
70588W        W13641   8.874   8.405   8.936 -0.0958 -0.3627  0.0432
70589W        W13642  18.203  30.581  28.928 -0.2074 -0.0054  0.2599
70590W        W13643  19.981  13.313   4.858  0.0732  0.2147 -0.0196
70591W        W13644  15.833   0.958  19.070 -0.1572 -0.0694 -0.2306
70592W        W13645  14.690  29.521   2.313 -0.2506 -0.0110  0.1660
70593W        W13646  24.866   6.902   0.782  0.0165  0.0640  0.0192
70594W        W13647  10.490  32.432  19.611 -0.2072  0.2919 -0.3586
70595W        W13648   1.819  11.068  22.883 -0.0999  0.0277 -0.6858
70596W        W13649  23.566  32.710   0.158 -0.0568 -0.0759 -0.0840
70597W        W13650  15.957  21.717   7.743 -0.3237  0.0352  0.0735
70598W        W13651   7.796  17.128  27.683 -0.2296  0.0304  0.0081
70599W        W13652  28.391   6.317  18.529 -0.0966  0.0021 -0.0512
70600W        W13653  15.170  31.437  21.330 -0.1026  0.4096 -0.1157
70601W        W13654   7.026  12.316   4.499  0.3854  0.3050 -0.1822
70602W        W13655  23.813   2.344  15.647  0.1101 -0.1344 -0.0766
70603W        W13656  25.083  22.236  10.031  0.1396 -0.0185  0.5228
70604W        W13657  22.730   0.076  28.006  0.0641 -0.3232 -0.0018
70605W        W13658  31.127   6.265  25.265 -0.0569 -0.0945  0.3493
70606W        W13659   7.396   3.922  17.247  0.4362  0.2670 -0.0434
70607W        W13660  19.762   9.752  18.149 -0.0588  0.1571 -0.0793
70608W        W13661   7.822  12.025  20.243  0.1066 -0.1944  0.0234
70609W        W13662  13.523  31.102   1.295  0.3213 -0.0363 -0.1540
70610W        W13663  15.540   5.527   2.159 -0.0679 -0.3554 -0.1002
70611W        W13664  12.400  10.285  21.385 -0.0568 -0.0188 -0.0617
70612W        W13665  19.665   1.852  27.951 -0.1205 -0.3704 -0.0360
70613W        W13666  34.388  34.293  19.445 -0.1088 -0.0361  0.0529
70614W        W13667  17.321   7.194  23.894  0.0074 -0.0459 -0.0680
70615W        W13668  13.827  33.339   6.663 -0.1822  0.0737  0.0321
70616W        W13669  17.739   5.569  28.898 -0.0951  0.4300  0.1323
70617W        W13670  26.332   5.729  14.942  0.1716  0.0910 -0.2008
70618W        W13671   3.590   7.600  26.176 -0.0478 -0.1830 -0.2405
70619W        W13672  10.259  28.616  21.384 -0.2278 -0.1962  0.0111
70620W        W13673   2.618  18.566  25.160 -0.2644  0.0847  0.0752
70621W        W13674  30.585   9.637  20.986 -0.3469  0.1068 -0.2193
70622W        W13675  11.931  23.856  23.863  0.1002  0.3074  0.2625
70623W        W13676  14.159   4.587   8.007 -0.1299 -0.1217  0.1548
70624W        W13677  24.851   9.823  26.265  0.1174  0.0200  0.0099
70625W        W13678  21.288  28.444   3.302  0.0642 -0.0472 -0.3646
70626W        W13679  17.635  22.383   9.223 -0.0088  0.0863 -0.3270
70627W        W13680   2.496  14.434   5.129 -0.1089 -0.1774 -0.1063
70628W        W13681   8.348  14.518  16.535 -0.1970  0.1751  0.2086
70629W        W13682  30.338  24.285  24.014 -0.0813  0.2263 -0.2611
70630W        W13683  15.825  23.267   3.282 -0.4070 -0.0276 -0.2061
70631W        W13684   6.475  30.515  21.962  0.0489  0.1966 -0.1125
70632W        W13685  23.608  24.766   2.837  0.1147 -0.1666  0.0231
70633W        W13686  14.732   0.300   9.129 -0.0273 -0.0047  0.0366
70634W        W13687   9.234  29.791   8.463 -0.0628 -0.0489 -0.0804
70635W        W13688   4.281  25.689  22.443  0.3565 -0.2863 -0.0348
70636W        W13689   9.944   3.554  19.496 -0.0132  0.1872 -0.1545
70637W        W13690   5.939  28.931   1.511  0.0995  0.1482  0.0097
70638W        W13691  33.210   1.305   5.366  0.1575  0.0466 -0.1798
70639W        W13692  12.120  34.212  24.693 -0.0704  0.1007  0.1262
70640W        W13693  22.634   6.584  15.383 -0.0612  0.0093  0.2834
70641W        W13694   4.487  24.570  25.699 -0.3863 -0.0978 -0.2009
70642W        W13695   8.930   0.715  14.878  0.0287 -0.1227 -0.0400
70643W        W13696  16.792  29.405   4.320 -0.3551  0.3992  0.0604
70644W        W13697  30.468   2.296   8.226 -0.1764 -0.2116 -0.1974
70645W        W13698  25.338  15.066   4.154 -0.1017  0.1006 -0.2473
70646W        W13699  19.392  31.957   5.877  0.1598  0.1132 -0.1025
70647W        W13700  19.859  34.433  25.898 -0.2109 -0.2465 -0.3335
70648W        W13701   9.528  19.009   2.457  0.0410 -0.1074  0.3901
70649W        W13702  20.918  27.969   3.069  0.3647  0.2054 -0.0598
70650W        W13703   2.983  31.196   6.145  0.1440 -0.1302 -0.0379
70651W        W13704  24.554  24.922  19.620  0.1450  0.2521  0.1321
70652W        W13705   6.962  13.677   9.725 -0.0648 -0.1617  0.1906
70653W        W13706  14.270  15.821   5.360  0.3168 -0.0423  0.3418
70654W        W13707  24.732  12.638   6.675  0.1999  0.0204  0.1360
70655W        W13708   5.968  34.556   3.939 -0.1382  0.1238  0.3405
70656W        W13709   3.613  32.498   3.181 -0.2868 -0.1061 -0.0034
70657W        W13710  11.773   8.581  24.430 -0.1884  0.0470 -0.0295
70658W        W13711  17.812   8.292   7.055 -0.2613 -0.3448  0.0320
70659W        W13712  21.103  30.295  18.479  0.1467 -0.1991 -0.1388
70660W        W13713  15.011   1.812   8.919  0.2187 -0.1180  0.2050
70661W        W13714  25.680  14.418  18.413 -0.3099 -0.1619 -0.3379
70662W        W13715  29.457   8.118  17.817 -0.3348 -0.1090  0.0423
70663W        W13716  23.033   0.653  28.374 -0.0190 -0.2363  0.3092
70664W        W13717  10.504  21.372  22.765 -0.0169  0.3102 -0.0680
70665W        W13718  15.931   2.458  21.136 -0.2183  0.0139  0.1928
70666W        W13719  24.754  21.338   4.009 -0.1097 -0.3291  0.0810
70667W        W13720  23.166   0.072   0.164  0.1118 -0.1243 -0.1571
70668W        W13721  31.356  26.155   7.497 -0.0265  0.0509  0.0198
70669W        W13722   8.427  15.829   2.999 -0.0462  0.0231  0.3060
70670W        W13723  11.408  33.197   6.787 -0.1701  0.1160  0.0247
70671W        W13724  19.343   1.440  20.160 -0.1580 -0.1485 -0.2280
70672W        W13725  18.190   0.386  27.767  0.0329  0.1904 -0.2049
70673W        W13726  34.168  11.585  24.250  0.0178  0.0613  0.0520
70674W        W13727   9.848   7.257  22.541 -0.0198  0.0907 -0.1334
70675W        W13728   7.093   5.830  17.821 -0.0452  0.0051 -0.0187
70676W        W13729   1.119  26.863   1.711 -0.0981 -0.1138  0.1519
70677W        W13730   9.311   6.852   5.977 -0.0810 -0.0755 -0.1476
70678W        W13731   6.979  22.611  22.461  0.1472  0.2852 -0.2976
70679W        W13732   0.807   1.922   4.191 -0.0714 -0.0314  0.1244
70680W        W13733  14.501  34.201  25.069  0.3385  0.2563 -0.2889
70681W        W13734  33.369  28.197  18.192  0.1439 -0.0469 -0.0024
70682W        W13735  26.826   5.741  13.675 -0.0275  0.1781  0.2095
70683W        W13736  12.094  29.122  17.699  0.0323  0.2851  0.0881
70684W        W13737   6.111   2.947  19.135 -0.0961  0.0865  0.2347
70685W        W13738  11.126   5.070   9.787 -0.2640  0.0345  0.0776
70686W        W13739  11.835  18.894  23.313  0.1448 -0.1892  0.0944
70687W        W13740   0.212  27.033   4.731  0.1083  0.0345  0.1261
70688W        W13741  10.302  19.008  22.760  0.1952  0.0264  0.2782
70689W        W13742  28.283  18.333   1.667  0.1174 -0.4784 -0.1246
70690W        W13743  17.810   7.637   2.200 -0.0653  0.0878 -0.0193
70691W        W13744   7.431  27.942  16.209 -0.1515  0.0920  0.0767
70692W        W13745  33.877  33.222  21.467 -0.3361  0.1376  0.0224
70693W        W13746  32.401   5.288  25.227  0.0139 -0.1640 -0.2890
70694W        W13747  15.736  25.401  28.836  0.3931  0.3762 -0.0661
70695W        W13748   3.011  10.330  19.872 -0.0176 -0.0070 -0.0631
70696W        W13749  13.719  12.384  25.563  0.1561  0.0474 -0.1236
70697W        W13750  34.340  30.724   0.842 -0.1648  0.1402  0.0697
70698W        W13751  19.511  33.811  15.839 -0.0792 -0.0889 -0.1626
70699W        W13752   7.133  27.706   3.140  0.0802 -0.2170 -0.0623
70700W        W13753  19.996  12.409   8.766 -0.4639  0.1949 -0.1713
70701W        W13754  13.857   6.782  24.373  0.1830  0.0401  0.0777
70702W        W13755  20.838   7.725  18.077  0.0430 -0.1565  0.0658
70703W        W13756  11.553  33.494  25.268  0.1545  0.0601 -0.1916
70704W        W13757   9.118   8.172   1.313 -0.2186  0.0105  0.0138
70705W        W13758  32.217  31.373   5.917 -0.2381  0.1426 -0.0604
70706W        W13759  19.159  11.890  24.608  0.1948 -0.1387  0.1072
70707W        W13760  17.810   8.136   4.966  0.1709 -0.4362 -0.1035
70708W        W13761  25.864  32.361  17.063  0.1091  0.0634  0.0731
70709W        W13762  17.333  33.335  17.914 -0.1559  0.1199  0.0516
70710W        W13763   8.105  14.238   5.372 -0.0470  0.0267  0.0192
70711W        W13764   2.382   2.892   0.919 -0.0498  0.1541  0.1662
70712W        W13765  16.419  13.034  23.021  0.2381 -0.1166 -0.2908
70713W        W13766  18.707   8.924  24.667 -0.1578 -0.0266 -0.0624
70714W        W13767  27.169   3.716   5.640  0.0022  0.0374 -0.3773
70715W        W13768  14.968  23.670   7.363 -0.1153  0.3482 -0.1600
70716W        W13769  26.357  18.355  22.042  0.1720 -0.2664  0.0605
70717W        W13770  14.055  29.853  26.600  0.0399 -0.3193  0.3603
70718W        W13771  30.749   1.533  28.694 -0.0745 -0.2841  0.1479
70719W        W13772  24.544   4.366   3.042 -0.0421 -0.0927  0.1806
70720W        W13773  13.696  21.648   0.212  0.0229  0.0459 -0.0898
70721W        W13774  22.744  11.138  18.892 -0.2168  0.1628  0.4793
70722W        W13775  28.317  34.207   1.490  0.0428  0.0456  0.0311
70723W        W13776  14.347  14.987   5.028 -0.0465 -0.0217  0.3668
70724W        W13777   0.489   2.646  18.623  0.0272  0.1653  0.3527
70725W        W13778   6.313   5.970  14.405 -0.2777  0.0579  0.1637
70726W        W13779  29.994  33.624   5.058 -0.1482  0.0737 -0.0631
70727W        W13780  18.274   6.955   7.864 -0.2451 -0.2961 -0.1165
70728W        W13781  16.077   5.813   3.094 -0.1232 -0.2673  0.4027
70729W        W13782   9.482  18.025  22.102  0.0795 -0.0201 -0.0817
70730W        W13783  22.867   0.420  22.446  0.3225 -0.1101  0.0775
70731W        W13784  29.021  29.635  14.564  0.1207  0.0656 -0.0878
70732W        W13785  10.604  11.067  26.639 -0.0567  0.1417  0.1358
70733W        W13786  20.311  33.575  24.852 -0.2035 -0.0353  0.4948
70734W        W13787  30.542  14.026  23.942  0.3459  0.1166 -0.1037
70735W        W13788  17.507   5.772  19.218  0.0606  0.2524  0.0863
70736W        W13789  20.704   8.406  18.143  0.1931  0.2344 -0.0513
70737W        W13790   1.992  24.554   3.106  0.2320  0.1699  0.2300
70738W        W13791  15.796   6.489   1.010 -0.0340 -0.0025  0.0196
70739W        W13792  32.312  16.556  23.988 -0.1304  0.1762  0.0493
70740W        W13793  11.716  34.322   0.127 -0.1427 -0.0932  0.1954
70741W        W13794  18.414  25.496   2.490  0.1033 -0.0596  0.2814
70742W        W13795  23.162   5.055  25.202 -0.0270  0.1096  0.1128
70743W        W13796  21.233  34.456  28.399  0.1913 -0.0316 -0.1774
70744W        W13797  13.646  33.799  16.558  0.1259  0.0159  0.1574
70745W        W13798   8.043  20.060   5.247  0.0685 -0.2193 -0.5483
70746W        W13799  24.283  28.744  19.277 -0.1185  0.2034  0.0043
70747W        W13800  23.819  23.667  27.714 -0.2720  0.2390  0.0733
70748W        W13801  25.899  12.038  15.303 -0.2427 -0.2426  0.0274
70749W        W13802  15.756  31.607  22.055  0.2258  0.0040  0.1605
70750W        W13803   7.851   9.539   3.325  0.0324  0.2025 -0.0418
70751W        W13804   8.649  29.469   6.059  0.0289  0.2846 -0.0224
70752W        W13805   6.352   0.072   1.283  0.1121  0.0392  0.1953
70753W        W13806  19.042  15.584  14.411 -0.0219  0.1095  0.2508
70754W        W13807   4.044  21.691  26.164  0.1159 -0.1367  0.0880
70755W        W13808  23.375   3.665  27.087 -0.3942 -0.1322 -0.4024
70756W        W13809  17.106  32.507  24.403  0.0621 -0.2635 -0.1047
70757W        W13810  22.664  30.961   6.690  0.2857 -0.0035 -0.1484
70758W        W13811   9.644  15.643   8.732 -0.1919 -0.0515 -0.0196
70759W        W13812   0.377   5.322  20.700 -0.1274  0.0845 -0.2917
70760W        W13813  18.240  31.690   7.772  0.1237 -0.2066 -0.1435
70761W        W13814  26.471  24.991  26.588 -0.0640 -0.0949 -0.1501
70762W        W13815  21.686  30.243  25.153 -0.0271 -0.1710 -0.3164
70763W        W13816  23.766  22.810   3.035  0.1236 -0.2319  0.2845
70764W        W13817  15.549   9.050  27.854 -0.0842 -0.2197  0.1376
70765W        W13818  14.377   5.197   6.426  0.1401 -0.0276 -0.0497
70766W        W13819  20.782  17.025  13.016  0.0027 -0.0329 -0.2049
70767W        W13820   1.684  25.908  20.006 -0.2367 -0.1891  0.0045
70768W        W13821  12.874  21.336   1.460 -0.1089 -0.0052 -0.1415
70769W        W13822  34.081  10.755   2.189  0.1536  0.3042 -0.1785
70770W        W13823  24.118   2.399  21.844  0.0979  0.3146  0.1137
70771W        W13824  19.520   8.545   6.028 -0.1221 -0.2098 -0.0313
70772W        W13825  17.530   8.753   6.522  0.0560  0.1258  0.2657
70773W        W13826  16.938  31.978  15.556 -0.0483  0.1293 -0.0219
70774W        W13827   8.024  16.822  25.494  0.0545 -0.1280  0.1215
70775W        W13828  26.605  11.541   4.061  0.1266  0.0808 -0.1260
70776W        W13829  13.756  32.024  28.568  0.0079 -0.0720  0.0177
70777W        W13830  15.101  21.488   0.509  0.3646 -0.2699 -0.1253
70778W        W13831  10.045   4.977  22.827  0.0078 -0.3433 -0.1540
70779W        W13832   3.769   7.782   9.409  0.1502 -0.4763 -0.1369
70780W        W13833  29.408   3.084  20.553 -0.2141 -0.3656 -0.1729
70781W        W13834   7.022  12.102   1.967  0.4141 -0.1140  0.1028
70782W        W13835  14.220  33.384  15.894 -0.0256  0.0483 -0.3606
70783W        W13836   0.155  32.126  13.444 -0.0150  0.2078  0.0210
70784W        W13837  15.225   5.260   6.990  0.2433 -0.0912 -0.1052
70785W        W13838  26.234  12.353  20.745 -0.3504  0.0674 -0.1195
70786W        W13839  32.687  32.433  10.054 -0.0410  0.1839  0.2884
70787W        W13840  19.848   0.206   2.236 -0.3038 -0.0083 -0.0563
70788W        W13841   2.707   7.227  18.716  0.2304 -0.2020 -0.1677
70789W        W13842   3.807   1.477   7.421 -0.1487  0.0739 -0.0669
70790W        W13843   4.238  16.957  21.104 -0.1886  0.2025 -0.1881
70791W        W13844  19.877   2.623   3.588  0.1303  0.0273  0.1694
70792W        W13845  31.083   2.811  22.512 -0.0704  0.1315  0.3330
70793W        W13846   8.628   9.501  22.003 -0.1514  0.3728  0.0964
70794W        W13847   7.058   9.995   8.048  0.5864 -0.1127 -0.3049
70795W        W13848  16.746   6.787  26.028 -0.3108  0.1714 -0.2306
70796W        W13849   1.247  13.059   6.745  0.0408  0.1143 -0.1192
70797W        W13850  29.784   8.871   6.615  0.0192  0.2627 -0.3884
70798W        W13851  30.954  33.909   7.366 -0.2214  0.1439  0.0733
70799W        W13852  16.583  13.199  28.412  0.2689  0.0529  0.2372
70800W        W13853  25.101  17.059   5.351  0.2402 -0.0604 -0.3381
70801W        W13854  26.290  18.364  10.090  0.1635  0.1148  0.0171
70802W        W13855  12.817  32.858   2.880  0.2144 -0.0808 -0.0758
70803W        W13856  24.517  30.439  27.680  0.2308  0.1221 -0.1689
70804W        W13857  23.718  13.587  17.015  0.3009 -0.1743  0.2033
70805W        W13858  26.835   6.314  21.525  0.1887 -0.0302  0.0490
70806W        W13859  25.175  25.984   3.156 -0.1564 -0.1185  0.3902
70807W        W13860  11.419   3.726   3.504 -0.3541  0.0580  0.2636
70808W        W13861  12.569   6.158  18.518 -0.1408  0.2046  0.2166
70809W        W13862   9.135  30.747   3.523  0.0252  0.0701  0.0348
70810W        W13863   5.448   9.286  24.216  0.2234 -0.3811  0.0633
70811W        W13864  15.230  19.488  27.996  0.2491 -0.1338  0.1025
70812W        W13865  13.824  24.450  17.997  0.0639  0.0056 -0.0714
70813W        W13866   4.386   5.591  25.170  0.1387  0.1090 -0.0280
70814W        W13867   5.221  31.098   7.130 -0.3352  0.0632  0.0768
70815W        W13868   6.164   7.434  21.630 -0.3135  0.1940  0.0199
70816W        W13869  15.804   9.177   8.755 -0.0328  0.1943 -0.2443
70817W        W13870  23.992   5.868  18.400 -0.1188 -0.1164 -0.0013
70818W        W13871  15.153  34.000  24.222  0.1150 -0.1110  0.1669
70819W        W13872  18.942  12.701  21.029  0.0629 -0.0089  0.1337
70820W        W13873  11.465   2.018  15.854  0.0984  0.1469 -0.2030
70821W        W13874  13.845  22.472   1.872  0.1599 -0.1866  0.0407
70822W        W13875  20.121   1.343   8.600  0.0908 -0.0079 -0.0399
70823W        W13876   7.303  17.632  23.046  0.0089 -0.0152  0.0963
70824W        W13877   5.916  13.364   2.513  0.3000  0.0968 -0.2997
70825W        W13878  24.376   9.294   2.445 -0.2376  0.0110  0.3755
70826W        W13879   7.315   7.321   7.715 -0.0299  0.0723  0.0354
70827W        W13880  24.588   1.822  15.804  0.1448  0.1126  0.1446
70828W        W13881  21.445   0.447  21.891 -0.1705  0.0065  0.1801
70829W        W13882   4.530   8.392  17.020  0.0428  0.3975  0.1204
70830W        W13883  15.616  14.371  28.832  0.3597  0.2064 -0.0111
70831W        W13884   0.116  33.013   6.667 -0.1571 -0.2984 -0.0447
70832W        W13885   1.283  23.908   5.928  0.1712 -0.1439  0.2834
70833W        W13886   0.985  10.901   6.657 -0.1813 -0.1869 -0.0821
70834W        W13887   4.037  22.629  14.576  0.2017 -0.0145  0.0075
70835W        W13888  26.002  23.998   6.821  0.3887 -0.3146  0.2625
70836W        W13889  21.363  15.444  27.030 -0.0056  0.3404  0.2252
70837W        W13890  12.970   4.857  22.825  0.0087 -0.3471  0.2506
70838W        W13891  24.904   0.919   7.721  0.2285 -0.2857 -0.0559
70839W        W13892  11.741  31.226  26.060  0.1080  0.1366 -0.2714
70840W        W13893  22.297  17.191  17.483 -0.2110  0.0232 -0.1243
70841W        W13894   7.368  11.058   6.836 -0.0358 -0.2273  0.0917
70842W        W13895  14.813  12.960  28.732  0.3355 -0.2478  0.0132
70843W        W13896  18.199  14.142   1.596  0.1655  0.0240 -0.0526
70844W        W13897  26.374  32.172  24.373  0.0500 -0.4927  0.1706
70845W        W13898  20.715   3.845   6.665 -0.0417 -0.0982 -0.0476
70846W        W13899  20.915  13.968  22.500  0.1914  0.0655  0.0069
70847W        W13900   2.019   1.021  22.644 -0.0723  0.0036  0.2888
70848W        W13901  11.812  15.509  26.882 -0.1015 -0.3354  0.0619
70849W        W13902  19.932  30.183   8.145 -0.3195  0.1301 -0.0249
70850W        W13903   0.355  12.613  23.863 -0.1310  0.1876  0.0014
70851W        W13904  16.600  21.754   2.844 -0.0199 -0.4900 -0.1268
70852W        W13905  10.604   4.756  24.514 -0.0911 -0.4985  0.0545
70853W        W13906  10.876   3.169  15.876 -0.2575  0.0021 -0.0112
70854W        W13907  19.558  33.249  25.265  0.0600 -0.0970  0.1222
70855W        W13908  14.639  31.586  19.223 -0.1556  0.4056  0.2017
70856W        W13909  25.870  29.206   9.392 -0.0606 -0.2641 -0.0093
70857W        W13910   6.115  27.449   3.662 -0.0365  0.1340  0.0413
70858W        W13911  30.051  20.208  24.567  0.1153  0.3011  0.2931
70859W        W13912  30.849  33.074   2.796  0.0450 -0.2221  0.0713
70860W        W13913   7.625  11.914   5.307 -0.0992 -0.1800  0.0497
70861W        W13914   9.525   7.050   1.788  0.0487 -0.1171  0.5139
70862W        W13915  25.716   0.103   4.862 -0.4728 -0.1748 -0.0557
70863W        W13916  18.682  12.220   5.630 -0.1031 -0.0952  0.0244
70864W        W13917  17.762   3.210  21.421  0.1540  0.2626  0.3594
70865W        W13918  19.641  27.800  11.047 -0.0542 -0.2916  0.2243
70866W        W13919  19.604  24.485   3.783 -0.2515 -0.1144  0.3573
70867W        W13920  22.040  13.669   5.116  0.1900 -0.0181  0.0041
70868W        W13921  32.901  19.280   2.090 -0.1692 -0.2661 -0.1128
70869W        W13922  10.861  10.570  10.491  0.0429 -0.0042  0.1529
70870W        W13923  31.584   7.659  25.649 -0.2298 -0.1391  0.0199
70871W        W13924  17.206  29.177  17.969  0.1410 -0.3084 -0.1128
70872W        W13925  27.763   0.422   1.072 -0.1604 -0.1147 -0.0512
70873W        W13926  20.169  29.767   6.539 -0.1216 -0.1505 -0.0534
70874W        W13927  14.424  29.478  27.969 -0.0029  0.0818 -0.3534
70875W        W13928  23.590  24.731   4.649 -0.2003  0.0577  0.0845
70876W        W13929  16.536  10.715  25.896 -0.2852  0.2374  0.0034
70877W        W13930   6.237  15.334   5.742 -0.0012 -0.0230 -0.0536
70878W        W13931  14.191  23.100  15.678 -0.0219 -0.0588 -0.2598
70879W        W13932  16.459   7.707  25.682 -0.1197 -0.0650 -0.0460
70880W        W13933   8.261  16.352   7.810  0.0898  0.0079  0.3453
70881W        W13934   8.934   6.251  17.866  0.1689  0.1856 -0.0201
70882W        W13935  25.913  11.375  17.719  0.1125  0.1063 -0.3405
70883W        W13936  20.801  10.378  17.143 -0.0498  0.3400  0.2759
70884W        W13937  27.699   8.377  21.578 -0.0483 -0.0854  0.1452
70885W        W13938  27.817  30.608  21.579  0.2717  0.3341  0.2440
70886W        W13939  28.542  18.031  22.823  0.1336  0.1529  0.2890
70887W        W13940  29.971  29.734  14.383 -0.1227 -0.0048 -0.0715
70888W        W13941   1.194   0.507  23.617  0.1956  0.1772  0.0676
70889W        W13942  22.426   1.405  18.434 -0.0290  0.1778 -0.0316
70890W        W13943  33.064   6.332  16.792  0.4334  0.2177  0.1383
70891W        W13944   9.148  16.953  14.553 -0.3663 -0.0425 -0.6261
70892W        W13945  14.183   6.108  16.186  0.0008 -0.0737 -0.0888
70893W        W13946  13.540  15.638  16.469 -0.0555 -0.2336 -0.2127
70894W        W13947  24.589   2.887  20.821  0.2409  0.0874 -0.0869
70895W        W13948   5.226   0.111  20.042 -0.2456 -0.0597  0.1930
70896W        W13949  16.920   6.665  14.888  0.2143 -0.2571 -0.2245
70897W        W13950   7.407  33.889  22.892  0.1571  0.0381  0.2760
70898W        W13951  14.255  14.742   0.848  0.0906  0.0822  0.0493
70899W        W13952  25.591   4.858   0.637  0.2609 -0.1510 -0.0781
70900W        W13953   6.824  10.089  17.942 -0.2297  0.1361 -0.2081
70901W        W13954  31.866   4.506  17.414  0.0292 -0.3502  0.2068
70902W        W13955   5.471  12.011  28.471 -0.2570  0.1799  0.1574
70903W        W13956  11.541  32.067   3.991  0.0348  0.0301  0.0561
70904W        W13957  25.069   5.659   0.633 -0.1496  0.1184  0.0567
70905W        W13958  24.038  28.344  27.149 -0.1739 -0.0259 -0.0579
70906W        W13959   7.573   0.015   5.949 -0.1981  0.0220 -0.3479
70907W        W13960  20.871  11.650  28.800  0.2101 -0.1470  0.2828
70908W        W13961  21.900  27.658  14.811  0.1321 -0.0814 -0.2318
70909W        W13962  19.543  25.433  22.459  0.1546 -0.0371  0.0122
70910W        W13963   3.659   7.871  21.160  0.2545  0.3334 -0.1802
70911W        W13964  19.780  28.157  23.884  0.1691  0.2362  0.1453
70912W        W13965   6.998  16.740  22.567  0.0399  0.1888  0.0062
70913W        W13966  27.624  15.734  21.424 -0.1840  0.2162 -0.1595
70914W        W13967   8.778  17.341  14.782  0.1000 -0.1944 -0.0787
70915W        W13968  15.754   3.415  27.981  0.1780 -0.0942 -0.0511
70916W        W13969  16.192  33.687  15.416  0.0896  0.0796  0.1711
70917W        W13970  13.502  31.721  26.660 -0.1529  0.2847 -0.1179
70918W        W13971  34.150   3.411  26.380  0.1389  0.1127 -0.1532
70919W        W13972   2.681  15.437  24.134 -0.0494 -0.3697 -0.3179
70920W        W13973  10.485  11.570  23.070 -0.0488 -0.0044 -0.0740
70921W        W13974  20.818  11.833   1.277 -0.0806 -0.1497 -0.2168
70922W        W13975  16.400   8.868  16.613 -0.0485  0.0600  0.2560
70923W        W13976  34.396  28.198  18.539 -0.1265 -0.2693  0.1888
70924W        W13977  13.885   9.464   6.688 -0.1449 -0.1734 -0.1445
70925W        W13978  18.752  23.324  19.412 -0.1160 -0.1056  0.2571
70926W        W13979  15.465  28.756  17.349  0.1956  0.3162 -0.0171
70927W        W13980  20.843   4.704  21.126  0.1284 -0.0261  0.0179
70928W        W13981  12.841  34.167  17.574 -0.2719 -0.1906 -0.1379
70929W        W13982  10.707   2.269  18.772  0.1167 -0.1695 -0.2689
70930W        W13983  17.148  20.989  15.479  0.4439  0.3273  0.0372
70931W        W13984  19.488  15.018  15.188  0.0284  0.0228 -0.3136
70932W        W13985  15.382   7.793  15.330 -0.0904 -0.0807 -0.1147
70933W        W13986   2.218  15.517   3.575  0.1599  0.1986  0.0584
70934W        W13987   9.661  12.321   6.911 -0.1250 -0.1374 -0.3739
70935W        W13988  20.211  13.609  27.180  0.2136 -0.1171 -0.0627
70936W        W13989  14.591  12.475  15.768  0.0695 -0.1945  0.2003
70937W        W13990   9.762  11.513  20.156  0.0602 -0.0116  0.2706
70938W        W13991  18.286  33.319  17.598  0.3094 -0.3176 -0.0715
70939W        W13992  29.035   1.731  16.879 -0.1869 -0.0919 -0.1466
70940W        W13993  22.138  28.687  24.280  0.3591  0.0530  0.0293
70941W        W13994  30.211  23.992  20.168  0.2227 -0.1227 -0.1023
70942W        W13995  10.237  10.031   3.109 -0.1018  0.0044 -0.2513
70943W        W13996  18.589   6.809  14.558 -0.0397 -0.1145 -0.0792
70944W        W13997   0.761  11.021  17.877 -0.0072 -0.1789 -0.0405
70945W        W13998  34.562   4.720  15.279 -0.0281  0.1514  0.2361
70946W        W13999  33.673  18.386  16.342 -0.2827  0.2286 -0.1228
70947W        W14000  21.433  12.388  22.784 -0.1424  0.0143  0.0391
70948W        W14001  26.640  20.492  14.861  0.3872  0.2296  0.0104
70949W        W14002  34.072   8.984  15.272 -0.1856 -0.2936  0.3577
70950W        W14003  14.751  25.916  26.347 -0.1962  0.1487  0.0863
70951W        W14004   6.326  12.519  18.287 -0.0777 -0.0180 -0.0180
70952W        W14005  24.110  31.343  27.019  0.0466  0.3267  0.1054
70953W        W14006   4.966   2.023  18.114 -0.1202  0.0211 -0.0767
70954W        W14007   4.595  32.689   3.052  0.1509 -0.3804  0.0357
70955W        W14008   6.889  15.183  14.959  0.1692 -0.0064  0.0326
70956W        W14009   4.732  18.233  22.726 -0.1889  0.1159 -0.2351
70957W        W14010  19.403  24.040  16.896  0.0904 -0.3114  0.1228
70958W        W14011  28.430   7.048  15.917  0.0210 -0.1256  0.0292
70959W        W14012  10.861  28.459  22.910 -0.0477 -0.0512  0.1304
70960W        W14013  26.496   1.141  13.697 -0.0998  0.2219 -0.0119
70961W        W14014   8.478   8.286  15.792 -0.1029 -0.0860 -0.1113
70962W        W14015  11.839   4.396  23.922  0.1034  0.0844  0.0835
70963W        W14016   9.392  11.782   3.227  0.0433  0.1472 -0.1541
70964W        W14017   6.788  14.171   3.671  0.0592 -0.0207 -0.1279
70965W        W14018  14.866  29.498  13.879  0.1076 -0.0881 -0.0657
70966W        W14019   6.514   1.897   0.787 -0.0250  0.2785  0.0030
70967W        W14020   9.061  17.852  23.678 -0.2858  0.0684  0.2637
70968W        W14021  25.884  30.072  20.855 -0.4134 -0.0578  0.2895
70969W        W14022  32.867   2.934  22.211  0.3098  0.2519 -0.1867
70970W        W14023  21.157  12.031  16.330  0.0767  0.1009  0.2783
70971W        W14024  19.421  33.133  19.630 -0.0111 -0.1173 -0.2192
70972W        W14025   3.366   4.165  14.471  0.2098 -0.2342  0.1167
70973W        W14026   7.784  10.097  24.731  0.3261  0.0247  0.2339
70974W        W14027  28.953  20.288  14.357  0.0386  0.1114 -0.0732
70975W        W14028   9.206   1.466  29.141  0.0995 -0.1684  0.2441
70976W        W14029  34.153  14.366  18.083 -0.1437  0.2522  0.1840
70977W        W14030  10.837   2.681  15.968  0.1084  0.1113  0.0519
70978W        W14031  17.537  22.790  20.781 -0.0681 -0.0986  0.1597
70979W        W14032  12.795   4.362  19.148 -0.0479  0.1162 -0.4311
70980W        W14033  29.957   2.442  21.893 -0.0885 -0.0560 -0.0401
70981W        W14034  26.157  23.354   0.801 -0.1912  0.1510 -0.0721
70982W        W14035  30.261   9.853  19.878 -0.4332  0.0887 -0.1214
70983W        W14036   3.232   7.103  22.809 -0.2360  0.2438 -0.0461
70984W        W14037  14.369   9.772   3.843 -0.1644  0.0380 -0.2356
70985W        W14038  12.361  32.525  22.145  0.1158 -0.2680 -0.1192
70986W        W14039  14.510  27.756  22.491  0.0548 -0.2297  0.1255
70987W        W14040  20.558   4.612  27.170  0.3075 -0.2672  0.0084
70988W        W14041  22.991   6.020  19.323 -0.1682  0.0328  0.3506
70989W        W14042  22.049  11.056  18.342  0.1150  0.2122  0.1192
70990W        W14043   7.533  14.501  21.219 -0.0596 -0.3787  0.2182
70991W        W14044  30.736   5.923  18.414  0.0016 -0.1736  0.2744
70992W        W14045  16.834   3.287  18.283 -0.1329 -0.0273  0.0053
70993W        W14046  15.351   1.816  16.873  0.1602 -0.0825 -0.0837
70994W        W14047  17.525   8.726  27.149 -0.1958  0.1796  0.0059
70995W        W14048  15.292   5.474  23.075  0.2561  0.0653  0.0769
70996W        W14049  23.007  18.579  15.009  0.0154 -0.0149  0.0155
70997W        W14050  13.301   5.943  18.537  0.5205 -0.1724  0.3156
70998W        W14051   8.755  22.380  24.347 -0.0102  0.1493 -0.1627
70999W        W14052  12.143  19.983  27.426 -0.1219  0.0698  0.1384
71000W        W14053  16.277   5.539  19.541 -0.4156 -0.2090 -0.3008
71001W        W14054   6.211   8.141  19.228  0.1059 -0.2435  0.0671
71002W        W14055   9.891  16.460  17.197  0.1347 -0.0462 -0.2472
71003W        W14056  12.916  16.461   0.645 -0.0838  0.3061  0.0605
71004W        W14057  20.021  22.986  20.087 -0.4857 -0.1963  0.0870
71005W        W14058  14.540   6.842  22.300 -0.0644  0.0674 -0.2052
71006W        W14059  12.037  22.999  23.782  0.3424 -0.4423 -0.2605
71007W        W14060  19.016  10.396  19.766 -0.0646  0.0177  0.0027
71008W        W14061  27.791   6.276  25.334  0.2518  0.0129  0.0876
71009W        W14062  11.135  19.886  20.130 -0.0458  0.0410 -0.1714
71010W        W14063  18.511   1.860  26.516  0.1999 -0.0420  0.1108
71011W        W14064  30.530   2.058  21.446 -0.0361  0.1237 -0.2259
71012W        W14065  25.120  13.622  19.214  0.2998 -0.1906 -0.1984
71013W        W14066  17.001   0.249  26.467 -0.2298 -0.0093  0.2245
71014W        W14067  25.989   9.810  16.634 -0.3087  0.0059  0.2581
71015W        W14068   0.879  21.518  20.145 -0.1806 -0.1567 -0.2350
71016W        W14069   1.319  11.041  20.302  0.1327  0.3151  0.2531
71017W        W14070  24.869  17.355  15.071  0.2043  0.3002  0.0693
71018W        W14071  22.470   9.253  20.962 -0.0801  0.0008  0.0604
71019W        W14072  15.952   8.277   4.020 -0.3633 -0.0002  0.1228
71020W        W14073  18.869   4.704  28.579 -0.3390 -0.0145 -0.1548
71021W        W14074   6.875  32.936  13.650  0.2910 -0.0992 -0.0297
71022W        W14075  16.819   5.331  17.736  0.0714 -0.1360 -0.0550
71023W        W14076   0.975  24.240  16.032  0.1577  0.1442  0.0479
71024W        W14077  13.425  12.827  21.221  0.2000 -0.0964  0.1440
71025W        W14078   4.332  15.462  20.549  0.0226 -0.3559  0.0741
71026W        W14079  18.518   3.698  26.064 -0.0579 -0.0157  0.1509
71027W        W14080  12.933  28.571  16.609  0.0216  0.1488 -0.0748
71028W        W14081   2.292  20.893  26.639 -0.2480 -0.1553  0.1404
71029W        W14082  20.617  21.778  20.545 -0.1188  0.1262  0.0731
71030W        W14083  31.352  12.973  21.918  0.2071  0.2805  0.1426
71031W        W14084  34.123   5.955  23.974 -0.1038  0.0731  0.1748
71032W        W14085   3.466   2.473   1.035  0.0246  0.0206 -0.0603
71033W        W14086  12.071   7.276  17.315 -0.3371  0.0717 -0.0387
71034W        W14087   9.299   9.738   9.955 -0.0454 -0.2606  0.0555
71035W        W14088  25.712  12.484  19.895 -0.0960 -0.0074 -0.1274
71036W        W14089  13.427  26.635  21.707  0.0451  0.1371  0.0041
71037W        W14090   4.516  11.162  19.567  0.3200  0.3960  0.2658
71038W        W14091  31.594  14.574  23.810  0.1345 -0.1099  0.1972
71039W        W14092  31.142  11.557  24.240 -0.1718  0.0000  0.2527
71040W        W14093  11.499  13.200  26.188  0.1506 -0.3589 -0.3591
71041W        W14094   2.437   6.824  21.685 -0.0227 -0.3235 -0.0251
71042W        W14095  19.513  25.020  21.173 -0.0587 -0.0893  0.0791
71043W        W14096  12.757   9.081  23.073 -0.0788 -0.0069 -0.1872
71044W        W14097  24.169   4.610  22.217 -0.1777 -0.1290 -0.1329
71045W        W14098  23.763   4.318   7.506 -0.1871 -0.1497  0.1001
71046W        W14099  20.206  30.553   5.725  0.1148 -0.1423 -0.1925
71047W        W14100  10.765  11.361  20.792  0.3185  0.1001  0.1670
71048W        W14101  25.437  17.894  22.430  0.5239  0.2412  0.4852
71049W        W14102  19.698  12.878   8.751 -0.1229  0.1678  0.0095
71050W        W14103   9.604  30.920  15.581  0.0442 -0.0924  0.5517
71051W        W14104  32.296  17.049  15.244 -0.4372 -0.2532 -0.1154
71052W        W14105   3.558   0.777  20.776  0.2665 -0.0051 -0.1444
71053W        W14106   2.675  10.981  25.092 -0.1832 -0.0003  0.0767
71054W        W14107  14.626   8.695  20.071 -0.0967  0.0197  0.2501
71055W        W14108  14.117  20.674  21.774 -0.0793  0.1670 -0.4171
71056W        W14109  13.839  33.193  27.069  0.1390 -0.0297 -0.3201
71057W        W14110   5.648   8.025  22.887  0.0396  0.1542  0.1447
71058W        W14111  10.066  13.658  26.824  0.0889 -0.0274  0.1829
71059W        W14112   7.693  16.034  27.660  0.2638 -0.3981 -0.0157
71060W        W14113  21.557   4.683   4.594  0.1025 -0.0375  0.3363
71061W        W14114  33.483   1.231   3.628 -0.1575 -0.1434  0.0759
71062W        W14115   7.939  10.223  15.790  0.0627  0.0844  0.1863
71063W        W14116  10.691  13.131  10.287  0.0494  0.1852  0.2959
71064W        W14117   8.799   8.673  18.027  0.1628 -0.0382  0.0652
71065W        W14118   8.274  33.192  26.133 -0.0253  0.3555  0.0648
71066W        W14119   9.374  14.612  24.088  0.1459 -0.0602  0.3300
71067W        W14120  28.600  12.225  23.287 -0.1306 -0.1756  0.3252
71068W        W14121  26.116  21.184  15.201  0.2209 -0.1981  0.0885
71069W        W14122  14.112   2.818  16.217 -0.0230  0.3889 -0.2844
71070W        W14123  20.147  10.441  18.675 -0.0758  0.1741 -0.2724
71071W        W14124  10.119   6.000  19.531 -0.2959 -0.1453 -0.2376
71072W        W14125  16.176  21.844  21.010  0.1352  0.0598 -0.1221
71073W        W14126  15.726  17.297  15.605 -0.0748 -0.3006 -0.0287
71074W        W14127  11.836  34.170  23.557  0.0582 -0.0646  0.2994
71075W        W14128  10.134  13.019  28.545  0.3371  0.2214 -0.0708
71076W        W14129  11.417   8.130   6.822 -0.1239 -0.2540 -0.1313
71077W        W14130  20.348  34.097  18.438  0.2313 -0.2028  0.3298
71078W        W14131  13.810   9.799  16.184 -0.1069  0.1261  0.1947
71079W        W14132  22.036   5.265  16.329  0.0074 -0.1046  0.2544
71080W        W14133  19.221   4.088  24.475 -0.1823  0.3224  0.1844
71081W        W14134  30.455  19.082  15.555  0.3413  0.2518  0.0051
71082W        W14135  13.250  11.302  15.195  0.1603  0.1659  0.1846
71083W        W14136   9.805  11.209  19.773  0.0054  0.2011 -0.1818
71084W        W14137  29.817   4.510  22.946 -0.0975  0.0063 -0.0832
71085W        W14138  19.474  22.877  19.915  0.1123  0.0036 -0.1518
71086W        W14139  25.419  12.408  15.316  0.0503 -0.0640 -0.0829
71087W        W14140   8.359   6.710  16.161  0.2054 -0.1467 -0.0005
71088W        W14141   5.566  32.186  17.442  0.0174  0.1880 -0.1760
71089W        W14142  11.494   4.925  14.764  0.1630  0.1742 -0.1741
71090W        W14143  22.908   9.475  19.042  0.0208 -0.0568  0.0923
71091W        W14144  19.455   8.555   2.821  0.0619 -0.1152 -0.0872
71092W        W14145  14.331  30.041   4.098 -0.3475 -0.1180  0.0781
71093W        W14146  22.112  12.517  13.402 -0.1198  0.1034 -0.0561
71094W        W14147  10.649  29.949  18.506  0.2282  0.0666 -0.1500
71095W        W14148  21.065   6.154  19.371 -0.2283 -0.0948  0.2223
71096W        W14149   0.114   9.038  23.058  0.3772  0.0733 -0.0770
71097W        W14150  24.855  16.843  23.982 -0.0287  0.0314  0.1952
71098W        W14151  27.252  15.887  16.367 -0.3391 -0.0112  0.1867
71099W        W14152  19.788   9.340  22.203 -0.0976 -0.1256 -0.1442
71100W        W14153  10.592   2.919  27.648  0.2664  0.2246 -0.0302
71101W        W14154  25.460   5.738  19.037 -0.2219 -0.3630 -0.1788
71102W        W14155  10.079  21.522  23.219  0.1720 -0.2363  0.0729
71103W        W14156   3.303  14.895  15.421  0.0522  0.2018 -0.1153
71104W        W14157   6.530   6.468  23.869  0.2469  0.0781 -0.0637
71105W        W14158  12.811  13.940   1.805 -0.3276  0.1377  0.0211
71106W        W14159  12.053  28.733  20.810  0.0156  0.3576  0.1864
71107W        W14160  27.009  17.959  24.245  0.0173  0.2461  0.1683
71108W        W14161  21.925  18.450  13.672 -0.2282 -0.2413 -0.0338
71109W        W14162  13.673  34.605  24.003  0.4618 -0.2263 -0.1309
71110W        W14163  12.001   8.020  15.685  0.2266  0.2060  0.1895
71111W        W14164   6.914   4.061  27.916  0.2793 -0.0375 -0.0392
71112W        W14165  10.063  16.633  17.992 -0.1986 -0.0655 -0.2627
71113W        W14166  26.063  16.419  15.180 -0.0360 -0.1419  0.3711
71114W        W14167  17.972  15.412  22.874 -0.0051 -0.2040 -0.1240
71115W        W14168   3.582  33.495  16.042  0.1689 -0.2699  0.0113
71116W        W14169  15.125  11.137  25.015 -0.0096  0.1839  0.1091
71117W        W14170  34.199   8.862  23.516 -0.1803  0.0484 -0.0777
71118W        W14171  22.306   4.767  26.892  0.0929  0.1238  0.1001
71119W        W14172  13.643   5.197  27.089 -0.1923 -0.1961 -0.1219
71120W        W14173  25.782  16.554  15.620  0.0176  0.1734 -0.0267
71121W        W14174  33.290  17.513  16.922 -0.0078 -0.2255 -0.0725
71122W        W14175   9.023   4.826   1.470  0.1088 -0.0352  0.2310
71123W        W14176   5.691  13.233  18.022  0.4532  0.0309  0.0540
71124W        W14177  21.376   3.240  17.742  0.2798  0.1565  0.3176
71125W        W14178  14.660  28.624  25.832  0.0213  0.0068  0.0118
71126W        W14179  13.213   1.184  20.804  0.2269 -0.0304 -0.2086
71127W        W14180   4.883  24.659  21.939  0.2849  0.0949 -0.0056
71128W        W14181  23.977  27.808  25.689  0.1579  0.0523 -0.0542
71129W        W14182  25.625   1.321  14.224  0.1548 -0.0117  0.0537
71130W        W14183   9.121   5.655  27.435 -0.2459 -0.1315  0.0863
71131W        W14184  12.062  28.575  18.591  0.1020  0.0768 -0.0759
71132W        W14185  19.697   6.789  23.595  0.2522 -0.2810 -0.1179
71133W        W14186  20.352   9.983  20.114 -0.2114 -0.1471 -0.1053
71134W        W14187  11.806  20.820  24.837 -0.1011 -0.2113 -0.1535
71135W        W14188  16.264  25.296  22.072 -0.0748  0.0003 -0.0723
71136W        W14189   3.301   5.639  16.501 -0.1922  0.1344 -0.2285
71137W        W14190  15.941   0.211  24.419  0.1423  0.1162  0.0878
71138W        W14191  10.908   7.663  16.125  0.2208 -0.0075 -0.1979
71139W        W14192  21.460  14.352  16.055  0.2802  0.1143 -0.0289
71140W        W14193  11.218  13.441  18.871 -0.2597 -0.3520  0.2074
71141W        W14194  26.417  18.231  17.640  0.1112  0.1683 -0.7897
71142W        W14195  10.521   1.185  23.319  0.0769 -0.1539 -0.0988
71143W        W14196  13.135  15.564  15.626  0.0721  0.2155 -0.0468
71144W        W14197  24.056  34.360  16.623 -0.1145  0.2963  0.0422
71145W        W14198  22.567  26.483  27.077  0.1101  0.1918  0.4248
71146W        W14199  11.871  28.320  22.159  0.1263  0.4440  0.1238
71147W        W14200   9.948  28.338  19.950  0.2812  0.0442  0.0284
71148W        W14201   8.454  18.949  19.053 -0.2501  0.1205 -0.1405
71149W        W14202  25.577   4.112  24.037 -0.2556  0.0008 -0.1777
71150W        W14203  10.447  23.800  18.078  0.1499  0.1361 -0.0219
71151W        W14204   8.142  22.953  13.887  0.3868 -0.0282 -0.0133
71152W        W14205  10.285   2.643  15.374 -0.2252  0.3297  0.1777
71153W        W14206  10.226  15.217  23.767 -0.2440  0.0621 -0.0094
71154W        W14207  17.445  10.766  26.626  0.5073 -0.2883 -0.3156
71155W        W14208  22.146  23.011  17.468  0.0079  0.2467 -0.4269
71156W        W14209   0.662   0.989  14.755 -0.0433  0.1380  0.2239
71157W        W14210  22.115   1.929   3.437 -0.0396 -0.0167  0.1204
71158W        W14211  12.849   8.150  17.738 -0.0354 -0.5164  0.1863
71159W        W14212  27.386   7.260  14.424  0.3708  0.0257  0.0631
71160W        W14213  24.534  33.796  19.249  0.1214 -0.1999  0.0941
71161W        W14214  13.970  19.773  14.151 -0.0445  0.2377  0.3092
71162W        W14215   5.951  15.574   4.090 -0.1861 -0.0230  0.1338
71163W        W14216  24.642  14.724  15.136  0.1139  0.0219  0.1523
71164W        W14217  13.110  27.129  14.877 -0.0676 -0.1165  0.0289
71165W        W14218  17.194  27.597   2.461  0.1185 -0.0176  0.0093
71166W        W14219  11.255  22.039  24.596  0.1841  0.3521  0.1895
71167W        W14220  17.071  27.427  15.980 -0.4114 -0.0459  0.3747
71168W        W14221  17.527   1.197  25.782 -0.0008  0.0261  0.2543
71169W        W14222  15.911  31.551  17.409 -0.1235  0.3238  0.0064
71170W        W14223  26.161  11.613  16.419  0.0000 -0.0309  0.1420
71171W        W14224  11.156   2.036  24.885 -0.1522 -0.1279 -0.0925
71172W        W14225  11.015  13.033  22.960 -0.0581  0.1624  0.1866
71173W        W14226  23.997  14.871  24.180  0.1257 -0.1626 -0.3084
71174W        W14227  13.970   5.144   6.159  0.2014 -0.0439 -0.1056
71175W        W14228  24.392   6.161  18.079  0.4285  0.1176 -0.1213
71176W        W14229  13.618  18.226  17.541 -0.0183 -0.1081  0.1118
71177W        W14230   3.390   2.402  26.400  0.0303 -0.0541  0.4149
71178W        W14231   3.345   2.932  17.948  0.0756  0.1359 -0.1073
71179W        W14232  25.369  15.879  15.710 -0.1688  0.1556  0.2651
71180W        W14233  29.642  16.804  22.908 -0.0709  0.1161 -0.3717
71181W        W14234  17.645  13.260  15.650  0.2281  0.0118 -0.0204
71182W        W14235  19.083   6.703  20.104 -0.1521  0.0217  0.0329
71183W        W14236  24.937  14.536  21.643  0.0259 -0.1325 -0.0895
71184W        W14237   5.101  16.788  18.712  0.0612  0.1920 -0.1937
71185W        W14238   9.451   1.003  15.874  0.1381  0.1033  0.5314
71186W        W14239  10.737  33.632  20.026  0.0083 -0.3360  0.1252
71187W        W14240  12.792  14.440  19.219  0.0604  0.1792  0.0750
71188W        W14241   9.649  13.476  26.672 -0.2390  0.3143 -0.3516
71189W        W14242  15.081  20.374   1.178  0.2106 -0.3156  0.2968
71190W        W14243  25.816  18.042  16.481 -0.0358  0.0434  0.2613
71191W        W14244  16.355  19.298  14.077 -0.0156  0.0085 -0.2397
71192W        W14245  22.109   5.561  14.862 -0.2491 -0.0123 -0.2671
71193W        W14246   2.239   5.285  21.555 -0.3961  0.0901  0.2933
71194W        W14247  24.443  33.405  14.877 -0.1142 -0.1631 -0.0215
71195W        W14248   8.171  12.234  17.136 -0.6413  0.0186 -0.0420
71196W        W14249  16.440  24.724  18.012  0.0905  0.3843  0.1509
71197W        W14250  13.471  11.278  28.350  0.0390 -0.1344  0.4843
71198W        W14251  12.410   2.589  21.884  0.0353  0.0830 -0.0672
71199W        W14252  21.736  24.882  15.521  0.0914 -0.0616  0.1680
71200W        W14253  23.211  14.847  28.832  0.0460 -0.0507 -0.1114
71201W        W14254  20.323   6.976  16.723 -0.0339  0.2725 -0.1567
71202W        W14255  11.709  18.596  21.192  0.3092 -0.0406  0.1682
71203W        W14256  27.305  13.590  19.286  0.2648  0.2855  0.1936
71204W        W14257   9.921  11.745   1.962 -0.1725 -0.0104 -0.1225
71205W        W14258   9.150   7.278  28.058 -0.0893  0.4436  0.1443
71206W        W14259  15.451  25.499  24.864  0.1005 -0.2845  0.0428
71207W        W14260   4.836  12.511  19.577  0.1597  0.0758  0.0337
71208W        W14261   3.375  30.784  26.066 -0.2821 -0.3675  0.0633
71209W        W14262  13.161   6.686  22.214  0.0089  0.0898  0.0379
71210W        W14263  27.589   3.822  20.076 -0.4064  0.6752  0.1489
71211W        W14264  24.064   6.256  17.202 -0.1128  0.0413  0.3061
71212W        W14265  21.150   1.746  14.644  0.0540 -0.0475  0.0320
71213W        W14266  12.326   7.619  17.046  0.0057 -0.3336 -0.2811
71214W        W14267  10.112   1.880  26.924 -0.0483 -0.2661 -0.2110
71215W        W14268  14.184  10.930  27.674  0.2323 -0.0244 -0.3354
71216W        W14269  16.102  13.997  24.171 -0.1088  0.1912 -0.0756
71217W        W14270  32.946  17.071  15.683  0.0053  0.0052 -0.5245
71218W        W14271  17.196  33.839  23.724  0.4552  0.0338 -0.0118
71219W        W14272  28.466  11.515  20.749 -0.2360  0.1774  0.0692
71220W        W14273  12.013  17.922  16.635  0.2180 -0.2802  0.1366
71221W        W14274  33.505   6.568  16.666  0.1328 -0.1855  0.0174
71222W        W14275  13.636  21.618  13.563 -0.2094 -0.1362 -0.0368
71223W        W14276  26.105  17.729  15.061  0.2360 -0.1315 -0.0014
71224W        W14277   1.392  11.961  21.794 -0.2976  0.0523 -0.1538
71225W        W14278  14.087  34.614  14.651  0.3344 -0.0124  0.0298
71226W        W14279  13.787  24.424  19.089 -0.1480  0.2468 -0.2313
71227W        W14280  11.188  27.907  15.299 -0.0672 -0.3535  0.0570
71228W        W14281  21.984   5.707  22.929 -0.2390  0.0343 -0.0509
71229W        W14282  33.448   7.801  28.729 -0.0709 -0.1441 -0.2522
71230W        W14283  12.739  23.413  16.135  0.0306  0.3825 -0.2782
71231W        W14284  12.161  15.135  22.406 -0.2326 -0.2854 -0.0660
71232W        W14285  22.358  17.320  15.472 -0.1716 -0.1381  0.0266
71233W        W14286  11.954  28.332  13.679 -0.1081  0.2059 -0.0042
71234W        W14287   6.609  11.514   3.795 -0.0361 -0.1344  0.2439
71235W        W14288  10.954   1.606  28.326  0.0095 -0.2223 -0.0567
71236W        W14289  21.956  15.956   0.482 -0.0051 -0.0066  0.1461
71237W        W14290  13.177  18.468  17.583  0.0279 -0.1237  0.1425
71238W        W14291  11.406  11.875  20.324 -0.2019 -0.0027 -0.1806
71239W        W14292  23.026   2.245   0.727  0.1637 -0.0252  0.1744
71240W        W14293   8.416  19.568  25.960 -0.0136  0.1484  0.0391
71241W        W14294  14.821   9.467  17.022  0.0328 -0.5931  0.1410
71242W        W14295   6.572  10.389  27.061 -0.0532  0.0612 -0.1151
71243W        W14296  26.747   9.584  16.995  0.3092 -0.3516  0.0801
71244W        W14297  15.428  18.124  14.768  0.0986 -0.0442  0.0258
71245W        W14298  12.826   2.667  16.534  0.1295  0.1179 -0.0239
71246W        W14299  33.444   8.886  19.552  0.0860 -0.2284  0.0716
71247W        W14300   3.397  30.668  15.464  0.0241 -0.0514 -0.1363
71248W        W14301  13.147  22.072  20.433  0.0239 -0.0153  0.2700
71249W        W14302   7.676  17.717  15.708  0.0895  0.1781  0.0022
71250W        W14303  20.020  31.989  17.081  0.0594 -0.4474 -0.2958
71251W        W14304  22.301  28.267  22.815 -0.3670 -0.1271  0.0651
71252W        W14305  18.654   9.479  24.635  0.1727 -0.2170 -0.0657
71253W        W14306   5.466  23.637  25.734 -0.0766 -0.0339 -0.0030
71254W        W14307  24.054   7.117  26.232 -0.2286 -0.0957  0.1375
71255W        W14308  22.084  33.464  22.309 -0.0983 -0.1022  0.1425
71256W        W14309  25.499   1.246  15.222  0.0564 -0.0015  0.1346
71257W        W14310  19.283  12.210  21.679  0.0356 -0.1053 -0.2252
71258W        W14311   4.865   2.623  16.954 -0.1202 -0.0976  0.1847
71259W        W14312  23.945  11.200  18.755 -0.3459  0.3589 -0.1219
71260W        W14313  13.384  24.307  14.405  0.0670 -0.1952  0.0622
71261W        W14314  12.898   6.760  15.791  0.0080  0.1815  0.2160
71262W        W14315  13.211   0.032  16.368  0.2344  0.1574  0.0443
71263W        W14316   7.238  31.552  28.870  0.0093 -0.1827 -0.0876
71264W        W14317  10.117  15.947   3.999 -0.0414  0.0062 -0.1952
71265W        W14318  31.265  17.238   1.329  0.1059  0.1362 -0.1242
71266W        W14319  24.458  28.110  16.698 -0.3537  0.1151  0.1999
71267W        W14320  21.571  15.492  28.351  0.0565 -0.1371 -0.2743
71268W        W14321  19.211   7.745  13.814 -0.0088  0.0096  0.0265
71269W        W14322  23.947   8.839   5.427 -0.1232 -0.2084 -0.2022
71270W        W14323  15.721   1.919  23.735  0.0956  0.1684  0.2409
71271W        W14324  32.197  14.275   1.061 -0.0914  0.0463 -0.0910
71272W        W14325  27.606   7.369  19.785 -0.3243  0.2357  0.0130
71273W        W14326  32.376  10.026  17.869  0.2252 -0.1923 -0.1439
71274W        W14327  13.184   5.288  20.686  0.0025  0.2362  0.0214
71275W        W14328  22.020  15.097  23.703  0.0063 -0.1215  0.0386
71276W        W14329  32.127  10.291  21.459 -0.0244 -0.0424 -0.1393
71277W        W14330  16.194  11.449  26.907  0.3159  0.3122  0.1492
71278W        W14331  17.293  18.433  14.814  0.0233 -0.1569  0.1286
71279W        W14332  12.492  27.049  22.609 -0.3599 -0.1040  0.1121
71280W        W14333  26.062   8.726  16.597 -0.4287  0.0918  0.1646
71281W        W14334  12.614   9.303  20.413  0.0563  0.1129 -0.2776
71282W        W14335  23.956   3.956   1.761 -0.0811  0.0099  0.1302
71283W        W14336  12.464   4.661   0.088  0.1523 -0.3380 -0.0718
71284W        W14337  17.830   1.893   9.821 -0.1330 -0.2796  0.1224
71285W        W14338  16.726   5.792  26.465  0.2794 -0.0694  0.0441
71286W        W14339  32.843  27.779  15.157 -0.2215 -0.3256  0.3611
71287W        W14340  19.913   8.118  20.987 -0.0750 -0.2925  0.2215
71288W        W14341  16.345   8.219  27.134 -0.1687  0.0067  0.0079
71289W        W14342  18.565  33.937  14.496  0.0514  0.1131 -0.1624
71290W        W14343   8.900   0.991  26.672  0.1367 -0.2315  0.0912
71291W        W14344   9.736   7.851  17.456  0.2222  0.0021  0.2203
71292W        W14345  17.292  12.117  21.858  0.1774 -0.1438 -0.2168
71293W        W14346   1.520  12.609  16.302  0.0766 -0.3063  0.0841
71294W        W14347  17.597   1.535  18.366 -0.1960 -0.1442  0.2988
71295W        W14348  25.848  33.743  25.186 -0.1206  0.0752 -0.0114
71296W        W14349  21.861  33.292   2.609  0.2730  0.3325  0.2754
71297W        W14350  28.179   8.419  24.715  0.2559  0.1800 -0.1735
71298W        W14351  34.618  19.681  15.481 -0.1471  0.1408 -0.0618
71299W        W14352  32.026  16.056  14.772  0.1217 -0.0936  0.0181
71300W        W14353   7.699  12.634  17.010  0.1166 -0.3060  0.0594
71301W        W14354   7.058   9.736  20.820 -0.4681  0.1384 -0.1474
71302W        W14355  28.743  30.271  20.601 -0.0039  0.2306  0.1093
71303W        W14356   2.767   8.370  19.406 -0.1251  0.0151  0.0705
71304W        W14357  22.356  15.263   2.460  0.1358 -0.0190 -0.1730
71305W        W14358  23.496   6.285  20.428  0.4060  0.0738  0.2039
71306W        W14359  21.615  23.573  28.317 -0.3851 -0.0152 -0.0789
71307W        W14360  12.820  16.758  26.241  0.0591  0.1690  0.1661
71308W        W14361  20.622  33.203   4.307  0.1240 -0.0496  0.0246
71309W        W14362  31.889  13.373  18.167 -0.1438 -0.0374 -0.3257
71310W        W14363   6.931   6.436  20.050 -0.0915 -0.1706 -0.2947
71311W        W14364  13.290  23.282  15.423  0.3848 -0.1790 -0.2247
71312W        W14365  18.763  14.523  14.646  0.0995  0.0670  0.3473
71313W        W14366  19.668   2.059  23.504 -0.2323 -0.1798  0.0015
71314W        W14367  15.776   0.897  23.743 -0.2880 -0.1545 -0.3053
71315W        W14368  30.241  17.308  21.587  0.0673 -0.1731 -0.2521
71316W        W14369   8.228  30.734  27.520 -0.0174  0.0039 -0.0236
71317W        W14370   1.418   9.561   4.559 -0.3121  0.1326 -0.0893
71318W        W14371   2.569   3.240  14.521 -0.3506  0.0558  0.1484
71319W        W14372  24.744   0.964  20.677  0.2208  0.2325 -0.0628
71320W        W14373  22.857  26.078  18.409  0.4864 -0.1989  0.1069
71321W        W14374  20.466  14.348   2.067  0.3099 -0.0335 -0.2047
71322W        W14375  10.729  20.125  19.917  0.0381 -0.0729 -0.1457
71323W        W14376  15.619   4.979  22.698  0.0467  0.1774 -0.1570
71324W        W14377  26.447   9.610  15.716 -0.2183  0.2093 -0.1563
71325W        W14378  27.151  16.908  24.351  0.1445  0.1987 -0.2802
71326W        W14379   9.134   4.689  18.248  0.0051  0.2130  0.3302
71327W        W14380   5.709  13.171  18.896  0.0283  0.1139  0.2469
71328W        W14381  20.451   1.023  18.480  0.2299 -0.0259  0.0540
71329W        W14382  11.487  11.783  21.438 -0.1406  0.1533  0.0170
71330W        W14383  34.225  14.747   2.764  0.1633 -0.1235  0.0642
71331W        W14384  34.133  12.063  27.656  0.1509  0.0749  0.1298
71332W        W14385  16.425   8.626  19.422 -0.2389 -0.0035  0.0830
71333W        W14386  25.801   4.475  19.043  0.1354  0.0807 -0.2830
71334W        W14387  28.224  12.647  26.016  0.0851  0.2303  0.0581
71335W        W14388  24.668   5.447   3.834  0.0954  0.0839  0.0066
71336W        W14389  27.472  26.371  21.852 -0.0246 -0.2886 -0.1103
71337W        W14390   9.739  19.811  20.198  0.1232 -0.3640  0.2485
71338W        W14391  23.662  11.023  14.990  0.1516  0.2536 -0.0272
71339W        W14392  20.426  24.508  19.021  0.0593 -0.0008  0.0315
71340W        W14393  15.483  10.759  17.858 -0.4099  0.3085 -0.2930
71341W        W14394  13.029  12.549   2.810  0.1523 -0.2795 -0.0544
71342W        W14395  14.182  12.402  18.122 -0.1121  0.4599  0.0382
71343W        W14396  25.242  10.436  18.470 -0.0395 -0.2794 -0.0452
71344W        W14397  16.214  25.977  22.206 -0.1032 -0.1745  0.1612
71345W        W14398  14.746  15.883  15.201  0.1646 -0.0804 -0.1707
71346W        W14399  17.124  17.017  24.165  0.2337 -0.1024 -0.0657
71347W        W14400  27.845  16.931  16.496 -0.0907 -0.0097 -0.4177
71348W        W14401   8.050  14.302  19.384 -0.3427  0.0755  0.2624
71349W        W14402  26.698  20.517  17.520 -0.1770 -0.0066 -0.2357
71350W        W14403  16.852   8.519  20.203  0.2557 -0.0440 -0.2633
71351W        W14404  16.512  13.859   2.381 -0.0059 -0.1164  0.1042
71352W        W14405  26.602   1.026   2.389  0.0501  0.1976 -0.0018
71353W        W14406  24.186  25.047   0.283 -0.0031 -0.2082  0.3668
71354W        W14407  33.466  27.958  25.193 -0.0831  0.0445 -0.1773
71355W        W14408  28.756  21.288  26.759 -0.0118 -0.0513 -0.1678
71356W        W14409  28.801  17.368  18.828  0.0322 -0.0585  0.1058
71357W        W14410  23.556  11.810   2.394 -0.0458 -0.0395  0.3729
71358W        W14411  16.434   8.785  18.219 -0.0152 -0.0198 -0.1058
71359W        W14412  12.951   1.114  15.428  0.0630  0.1916 -0.1591
71360W        W14413   7.027  25.776  25.164 -0.1063 -0.0873 -0.0445
71361W        W14414  16.111   7.058   0.380  0.0259 -0.4537 -0.0674
71362W        W14415  18.432   4.971  29.095  0.1280 -0.1074 -0.1032
71363W        W14416  23.885  29.512  18.951  0.2988  0.1539  0.0457
71364W        W14417  28.658  20.350  21.945 -0.1447  0.1221  0.3076
71365W        W14418   6.299  15.205  27.243  0.0710 -0.1499  0.2647
71366W        W14419  27.607  19.104  20.597 -0.2340 -0.3047  0.3534
71367W        W14420  14.807  13.738  22.457 -0.1348 -0.1333  0.1577
71368W        W14421   7.005  12.326  21.919 -0.1973  0.4316 -0.1441
71369W        W14422   7.509   7.172  17.229 -0.1969 -0.1602  0.4070
71370W        W14423  19.264  32.694   8.332 -0.7989 -0.2796  0.3649
71371W        W14424  22.116   5.940  26.989 -0.2355  0.3389 -0.0866
71372W        W14425  20.601  11.010  21.042  0.0589  0.0228  0.0076
71373W        W14426  12.494  12.352  16.593  0.3156  0.1010 -0.2855
71374W        W14427  24.424  10.632  27.434  0.3395  0.0284 -0.4327
71375W        W14428  18.888  18.916  14.429  0.0068 -0.0810 -0.0782
71376W        W14429  18.877   6.949   5.578  0.0182  0.0410 -0.1085
71377W        W14430  18.061  12.544  21.263  0.1178  0.1083  0.0216
71378W        W14431  21.078  22.567  19.205  0.2496  0.4963  0.1723
71379W        W14432  13.587  11.618  15.579 -0.1929  0.0247 -0.0308
71380W        W14433   4.529   7.440  23.768 -0.0654 -0.2178 -0.2356
71381W        W14434   8.558   9.046  28.874  0.1731 -0.0209  0.0308
71382W        W14435  11.040   3.108  25.698  0.4781 -0.2006 -0.2130
71383W        W14436   5.899   9.544  14.903  0.0369  0.1071  0.0960
71384W        W14437  14.780  10.671  21.606  0.0087  0.1164 -0.0315
71385W        W14438  16.317   1.909  23.671 -0.0527 -0.1787 -0.3236
71386W        W14439  11.338  13.613  22.335 -0.1190 -0.0749  0.5800
71387W        W14440   9.712  10.789  20.316  0.0722  0.1237 -0.2010
71388W        W14441  20.281  29.934  17.004 -0.1444 -0.2147  0.2553
71389W        W14442  29.254  30.113   3.958 -0.1627  0.0245 -0.1813
71390W        W14443  20.904  14.212   2.768  0.1927  0.0323  0.1809
71391W        W14444  11.957   8.816  16.635  0.0318 -0.3712 -0.2489
71392W        W14445  30.051   3.773   2.843  0.0492  0.0877  0.0542
71393W        W14446   9.716  19.246  16.203  0.2137 -0.0026  0.0069
71394W        W14447   5.964  32.418  21.448 -0.1410  0.0837  0.2457
71395W        W14448   6.042  24.133  28.125 -0.1076  0.2548 -0.1877
71396W        W14449  26.118  19.647  24.628  0.1326 -0.1240  0.0401
71397W        W14450  16.343   5.078  20.752  0.2537 -0.0254  0.0135
71398W        W14451   4.966   5.098   3.760  0.1721  0.1121  0.2347
71399W        W14452  25.197   7.822  21.243 -0.0262 -0.1551  0.0042
71400W        W14453   9.968  14.053  15.418  0.0440  0.2410  0.1126
71401W        W14454  12.542  26.108  28.211 -0.2142 -0.1239 -0.1229
71402W        W14455  23.901  11.890   0.268 -0.2539 -0.1855 -0.1640
71403W        W14456  28.120  11.251  17.862 -0.2681  0.0862  0.2784
71404W        W14457  14.294   6.055  19.210 -0.1227  0.3740 -0.0378
71405W        W14458  11.103  30.091   3.810 -0.0945 -0.1210 -0.1161
71406W        W14459  15.631   3.693  22.719  0.1498 -0.1826 -0.0161
71407W        W14460  14.602  12.527  25.099 -0.0560 -0.0867 -0.1126
71408W        W14461  16.820   0.940  16.004 -0.0145  0.3058  0.0890
71409W        W14462  18.045  28.111  20.357 -0.1890  0.3137  0.0157
71410W        W14463  17.636  13.966  22.196  0.0724  0.2097 -0.0902
71411W        W14464  29.872  13.258  25.172  0.2909  0.0538 -0.2187
71412W        W14465  11.057   8.255  17.588 -0.0276  0.1096 -0.2087
71413W        W14466   5.474   9.782   4.229 -0.0074 -0.0752 -0.2211
71414W        W14467   8.369   9.892  28.205  0.0074 -0.0964  0.1964
71415W        W14468  18.662   2.081  19.732  0.2094 -0.2246  0.2937
71416W        W14469  26.710   2.929   2.854 -0.0274 -0.2686 -0.0037
71417W        W14470  27.287  10.957  19.065  0.0321  0.1541 -0.0803
71418W        W14471  11.820   9.334  29.137 -0.1621  0.3428  0.0519
71419W        W14472   2.968  32.476  15.599 -0.2174  0.1374  0.0089
71420W        W14473  11.290  34.488  28.071 -0.0967  0.0463 -0.1127
71421W        W14474  13.957  13.907  17.900 -0.0937 -0.1225  0.0697
71422W        W14475  22.981  15.885   3.782  0.3366 -0.0039  0.0090
71423W        W14476   7.229   2.310  22.229  0.0247  0.0675 -0.1564
71424W        W14477  26.997   3.535  27.908 -0.1703  0.3715 -0.1964
71425W        W14478  17.689   0.361  21.415 -0.0801  0.0839  0.1462
71426W        W14479   7.920   8.215  17.936  0.3519  0.0956  0.1653
71427W        W14480  11.039  10.051  21.126 -0.1948  0.1367  0.1698
71428W        W14481  18.898  15.629  13.878  0.0585 -0.0522 -0.1804
71429W        W14482  12.557  14.259  19.639 -0.1658 -0.0715 -0.0397
71430W        W14483  10.582  30.391  26.715  0.1261 -0.1228  0.0654
71431W        W14484  18.686   2.407  26.549  0.2825 -0.1571 -0.3681
71432W        W14485  23.125  31.010  14.837 -0.1392 -0.2225 -0.1844
71433W        W14486  21.568  29.591  19.018  0.0949  0.1652  0.4913
71434W        W14487  11.799  13.313  10.048  0.1128  0.0221 -0.0219
71435W        W14488  17.656   6.297  28.411  0.1025 -0.0324 -0.2008
71436W        W14489  33.837  11.411  27.922 -0.0417 -0.0537 -0.2443
71437W        W14490  18.623   5.130  13.982 -0.1538 -0.3087  0.1703
71438W        W14491  24.002  15.412  25.161 -0.2395 -0.0155 -0.2619
71439W        W14492  12.289  14.688  18.446  0.1056  0.0316  0.1508
71440W        W14493  30.287  24.579   2.785 -0.0846 -0.1807  0.0059
71441W        W14494  11.135  20.300  18.495 -0.2794  0.3696 -0.2188
71442W        W14495  20.004  13.788  14.201 -0.0943 -0.3197 -0.2091
71443W        W14496  28.698   3.690  13.888  0.2147 -0.0578 -0.1702
71444W        W14497   5.806  20.964  16.801 -0.0633 -0.1693  0.1793
71445W        W14498   8.864  15.559  20.107 -0.1217  0.2791 -0.2465
71446W        W14499   7.330  10.328  14.475  0.0161 -0.4616 -0.2061
71447W        W14500   8.471  34.286  21.293  0.2019 -0.2886  0.1131
71448W        W14501  18.021   6.822  20.839 -0.1964  0.1857  0.1802
71449W        W14502  31.013  17.787  13.958 -0.2444 -0.1647  0.0242
71450W        W14503  25.936  24.860  26.559  0.0587 -0.1356 -0.0077
71451W        W14504  17.899  19.356  14.909  0.0053  0.1587  0.2973
71452W        W14505   8.774  22.623  21.835  0.1522  0.1188  0.4621
71453W        W14506   6.342  16.892  25.746 -0.2343 -0.0893  0.0867
71454W        W14507  15.441  12.904  15.804  0.2334 -0.0822  0.1318
71455W        W14508  12.126   1.667  18.497 -0.3122  0.3341  0.2474
71456W        W14509   8.935  29.329  26.268 -0.3327 -0.1288  0.3407
71457W        W14510  17.815   4.117  21.728  0.0618  0.6020 -0.2475
71458W        W14511  19.628  21.088  19.611 -0.0177  0.0996  0.1106
71459W        W14512   0.936  11.471  18.707  0.0896 -0.2045  0.0033
71460W        W14513  17.742  31.601  17.191  0.4011 -0.0932  0.0752
71461W        W14514  18.597   2.502  24.211 -0.0844  0.0749 -0.0693
71462W        W14515   9.647  10.722  24.560  0.0824  0.1160 -0.0383
71463W        W14516  12.628   3.692  26.218  0.4813  0.1524 -0.0884
71464W        W14517  30.452   3.469  25.260 -0.1496 -0.0049 -0.3172
71465W        W14518  18.262  30.309  21.893  0.0328  0.1214  0.0740
71466W        W14519  11.593   8.457  23.962 -0.0098  0.0432 -0.2525
71467W        W14520   1.419   8.511  15.197 -0.0262 -0.0645  0.4064
71468W        W14521  20.600  11.792  28.439 -0.4582 -0.3330  0.3805
71469W        W14522  15.281  12.076  27.167 -0.1304 -0.2467 -0.0537
71470W        W14523  18.178   5.422  29.116  0.1352  0.1862 -0.2537
71471W        W14524  28.526   4.262  23.038  0.1723 -0.0050  0.1628
71472W        W14525  15.654  11.406  15.819 -0.1172  0.1503 -0.3078
71473W        W14526   8.257  16.969  24.992 -0.1155  0.1160  0.1211
71474W        W14527  13.862  25.720  28.111  0.2289 -0.3196 -0.1461
71475W        W14528  21.307  30.397  19.983  0.0605  0.4633  0.3310
71476W        W14529   9.545  31.781  19.724  0.0414  0.3598  0.2801
71477W        W14530   2.951  29.312  14.894 -0.1185 -0.1912 -0.0310
71478W        W14531  20.062  30.809  16.915  0.1643 -0.0523  0.0237
71479W        W14532  23.165   0.156   1.264  0.0374 -0.1653  0.1562
71480W        W14533  19.551   9.431  20.285  0.2375 -0.0164  0.0232
71481W        W14534   9.663  13.296  16.308  0.0519  0.1074  0.1898
71482W        W14535   7.736  17.145  19.387  0.1361 -0.0825 -0.1810
71483W        W14536  30.283   6.150  24.194  0.1284  0.1267 -0.0529
71484W        W14537  16.593  33.128  21.731  0.3409 -0.1225  0.4690
71485W        W14538  14.119  10.646  16.684 -0.2534 -0.1309 -0.0176
71486W        W14539  25.021   7.644  15.193  0.1160  0.3138  0.2467
71487W        W14540  15.503   6.277  17.573 -0.1956  0.0947  0.0722
71488W        W14541  19.531   4.653  19.347 -0.3271  0.3470  0.0068
71489W        W14542  13.686   2.673  24.731  0.0912 -0.1514 -0.1828
71490W        W14543   7.838  11.382  25.463  0.0302 -0.4184 -0.1781
71491W        W14544  23.862   3.968  20.044  0.2852 -0.1428 -0.0156
71492W        W14545  10.620  11.155  20.343  0.0616 -0.0646  0.1502
71493W        W14546  25.449   4.415   0.936  0.2811  0.0879  0.0306
71494W        W14547  30.522  14.848   5.553 -0.2204 -0.2948 -0.0443
71495W        W14548   0.787   8.723   1.391  0.0729  0.0218  0.0437
71496W        W14549  22.171   0.055  20.171  0.0672 -0.2729 -0.0764
71497W        W14550  11.199  13.513  19.479  0.4105 -0.0495  0.0198
71498W        W14551  31.369  10.197  25.088 -0.0268  0.1190 -0.0965
71499W        W14552  10.319   6.674  17.116  0.1985 -0.4032 -0.2388
71500W        W14553  14.213   6.578  18.380 -0.0439 -0.1795  0.0730
71501W        W14554  13.682  10.774  26.480  0.0656 -0.0900  0.4573
71502W        W14555  31.596  33.320  23.600 -0.2291  0.1078  0.0250
71503W        W14556  16.614   9.502  17.004  0.2966 -0.2014  0.1111
71504W        W14557  27.169   2.034  15.787 -0.3212 -0.1719  0.2057
71505W        W14558  26.664  25.789   2.199 -0.2186 -0.1336  0.2542
71506W        W14559  19.475  30.553  25.235 -0.1160  0.4073  0.0342
71507W        W14560  12.169  34.497  13.647  0.2653  0.1305 -0.0377
71508W        W14561   7.708  18.907  15.026  0.1204 -0.0861  0.2158
71509W        W14562   2.253   6.898  17.918 -0.3936  0.0038 -0.1448
71510W        W14563  12.551  31.130  25.565  0.1809 -0.2774 -0.1508
71511W        W14564  18.854   9.174   2.403  0.0591 -0.3507 -0.2710
71512W        W14565  31.554   7.537  15.015 -0.1877 -0.0013  0.0781
71513W        W14566  26.588   5.311  24.232 -0.0391 -0.1066 -0.1212
71514W        W14567  27.318   3.260  14.861 -0.1671 -0.1640  0.1019
71515W        W14568  23.563  29.203  21.259 -0.0498  0.2842 -0.1490
71516W        W14569  16.291   5.985  26.288 -0.0919 -0.1182  0.0661
71517W        W14570  20.277  13.003  16.549  0.4632  0.2262  0.3114
71518W        W14571  22.615  18.318  15.229  0.0682 -0.1316 -0.0032
71519W        W14572   0.795  21.177  27.096 -0.0105  0.2514  0.1286
71520W        W14573  26.120  22.974  18.240  0.1041 -0.1551 -0.0921
71521W        W14574   0.198  32.916  15.429 -0.0305 -0.0993 -0.0446
71522W        W14575   9.998   6.340  25.680 -0.1001  0.0312  0.0795
71523W        W14576  12.633   8.982  17.147 -0.1472  0.1016 -0.0097
71524W        W14577  18.607  29.650  19.932  0.1400 -0.0481 -0.1008
71525W        W14578  11.999   0.169   3.886 -0.3226 -0.3444 -0.2763
71526W        W14579  31.545   6.949  22.006 -0.0650  0.2835 -0.1350
71527W        W14580   8.470  15.102  23.826  0.3461 -0.2515  0.1941
71528W        W14581  21.259  18.321  24.705 -0.0889 -0.0612  0.1108
71529W        W14582  22.503   1.444  22.196  0.1511  0.0063 -0.2129
71530W        W14583   5.355   2.101   2.251 -0.0556 -0.1216 -0.0652
71531W        W14584   7.479   5.552  14.475  0.0505 -0.1137  0.3127
71532W        W14585  12.627  13.098  17.175  0.2347  0.3306  0.0416
71533W        W14586  11.413  18.601   3.943  0.0161 -0.0790 -0.1372
71534W        W14587  17.320  24.477  19.712 -0.1255  0.0603 -0.0855
71535W        W14588   9.645  13.050  21.459 -0.0601  0.1431  0.0690
71536W        W14589  21.325  22.290  16.194  0.0589 -0.3892 -0.1803
71537W        W14590  18.394   4.934  21.062  0.1844 -0.2143  0.0335
71538W        W14591  22.752  31.604  22.680  0.2272 -0.0088  0.0154
71539W        W14592  16.529  22.999  17.376 -0.3588 -0.0789  0.1291
71540W        W14593  15.728   6.266  28.397 -0.1345 -0.0567 -0.0972
71541W        W14594  14.587  24.957  20.766 -0.0176  0.1704  0.5592
71542W        W14595  33.577  12.901  15.390 -0.0831 -0.0926  0.0068
71543W        W14596  23.496   2.627  23.650 -0.0074  0.0090  0.2544
71544W        W14597  26.803  17.599  28.456  0.3522  0.0016 -0.0868
71545W        W14598  22.963   2.178  28.699 -0.0283  0.1617  0.0013
71546W        W14599  16.169  23.251   6.193  0.0910  0.0519  0.2027
71547W        W14600  22.282   6.065  19.471  0.1111 -0.1127 -0.0987
71548W        W14601  13.575  23.657  18.583  0.2451 -0.1800  0.0834
71549W        W14602   4.924  14.449  21.060  0.1268  0.0411 -0.0112
71550W        W14603   5.389  21.580  16.065  0.2647 -0.3333 -0.1777
71551W        W14604  13.455  19.948  21.387  0.1077 -0.1523 -0.1845
71552W        W14605   5.307  11.548  23.086  0.0096 -0.5470  0.0751
71553W        W14606  12.074  19.761  22.046  0.3182 -0.1631  0.2131
71554W        W14607  16.317  15.195  26.952  0.2330 -0.3639  0.0620
71555W        W14608  24.550  18.207  16.087 -0.1418 -0.0412 -0.0946
71556W        W14609  12.384  12.317  27.008 -0.0601 -0.1492  0.2276
71557W        W14610   9.050   9.671  25.931  0.1161  0.2914  0.3245
71558W        W14611  17.910  10.048  20.842 -0.1728 -0.1124 -0.0133
71559W        W14612  18.291   3.190  21.422  0.2192 -0.1655  0.2150
71560W        W14613   5.055  19.206  14.642  0.1676  0.1144 -0.0338
71561W        W14614  31.917  16.200  22.440  0.0443  0.1581  0.0637
71562W        W14615  25.174   5.800  23.455 -0.0125 -0.1296 -0.0516
71563W        W14616  20.390  13.394  14.540 -0.2881 -0.2287 -0.0200
71564W        W14617   6.649   9.584  21.065  0.0882  0.1267  0.1893
71565W        W14618   2.719  29.591  21.447  0.0014  0.1689  0.3348
71566W        W14619  15.137  21.583  24.096  0.0954 -0.0339  0.1744
71567W        W14620  12.241   3.708  22.348 -0.0658  0.0707  0.0838
71568W        W14621  17.584   6.358  24.452  0.0802 -0.0344  0.0878
71569W        W14622   4.275  17.589  14.836 -0.1459 -0.3783  0.1919
71570W        W14623  18.079  18.343   2.147 -0.0117 -0.3075 -0.1732
71571W        W14624  34.599   8.089  20.519  0.0959 -0.0913 -0.0885
71572W        W14625  34.152  18.143  29.106  0.3760  0.0724 -0.0099
71573W        W14626  21.152  13.012  28.852  0.1024 -0.3886 -0.0388
71574W        W14627  21.709   4.341  27.341 -0.0819 -0.0259  0.1736
71575W        W14628   9.751  13.099  19.038 -0.3213  0.4484  0.1370
71576W        W14629  26.374  25.883  28.563 -0.2960 -0.0781 -0.2582
71577W        W14630  18.241  22.437  20.244 -0.1181  0.2893  0.0476
71578W        W14631   1.646  13.657   0.609  0.0103 -0.0659  0.0288
71579W        W14632  17.084   6.778   8.858 -0.2126  0.1265 -0.0462
71580W        W14633   7.584  15.582  20.961  0.0420 -0.4075  0.4960
71581W        W14634  21.205   6.208  25.360 -0.0870 -0.1440  0.1536
71582W        W14635  15.489   0.550  19.135  0.0614  0.1409 -0.0648
71583W        W14636  23.157  10.358   7.584  0.0662  0.1005 -0.1503
71584W        W14637   4.611   4.502   5.709 -0.3389 -0.0833 -0.0910
71585W        W14638  26.008   1.347  16.592  0.0231 -0.0007  0.2224
71586W        W14639  22.658   4.287  14.936 -0.1073  0.0476 -0.1896
71587W        W14640  15.485  11.520   1.237  0.2058  0.1821  0.0017
71588W        W14641  13.661   2.882  25.622  0.1322 -0.0353 -0.2604
71589W        W14642   4.649   1.480  20.604  0.0816 -0.0493  0.0754
71590W        W14643  14.261   0.217  21.491 -0.1094  0.0251  0.0678
71591W        W14644   6.220   6.155  13.972 -0.0886  0.1088  0.0710
71592W        W14645  22.995   4.215  21.957  0.0106 -0.3296  0.0414
71593W        W14646   4.851  15.826  24.078 -0.1998  0.2071 -0.2103
71594W        W14647  33.978   6.726  16.545  0.3793  0.0499 -0.1492
71595W        W14648   7.013  15.169  20.291  0.1854 -0.1746  0.1146
71596W        W14649  10.887  22.692  16.572  0.1106  0.2724  0.0182
71597W        W14650  25.878  21.491   0.089  0.1790 -0.1428  0.2307
71598W        W14651  12.422   0.176  21.263 -0.0689 -0.2361  0.0140
71599W        W14652  24.027   0.153  16.448  0.3024  0.0423 -0.0412
71600W        W14653   8.780   8.552  20.473  0.1034  0.1427  0.2289
71601W        W14654  27.001   8.580   5.128  0.3291 -0.0755  0.1878
71602W        W14655  20.966  31.369   5.024  0.1441 -0.0572  0.1274
71603W        W14656   2.356  16.253  27.431 -0.0314 -0.1770 -0.0529
71604W        W14657  29.944   9.414  14.607 -0.0226 -0.0222  0.3577
71605W        W14658  15.429  10.612  20.752 -0.0141 -0.0160  0.3135
71606W        W14659  19.496   8.101  21.198 -0.1085 -0.0373 -0.0844
71607W        W14660   8.900  29.162  17.703  0.0713  0.1747  0.1198
71608W        W14661   0.413  25.894  17.157 -0.2551  0.0329  0.1111
71609W        W14662  10.655   0.285   3.700 -0.0969 -0.2102  0.0610
71610W        W14663  22.844  12.614  22.783 -0.4931 -0.1772  0.0858
71611W        W14664  17.751   5.262  21.985 -0.1697  0.0948  0.1043
71612W        W14665  25.166  19.263  28.933 -0.2020  0.2584 -0.0591
71613W        W14666  10.468   8.061   8.993  0.0216 -0.1313 -0.2696
71614W        W14667   6.858  13.807  20.497 -0.0322  0.2776  0.1664
71615W        W14668  28.581  15.227  26.453  0.2060  0.0957  0.3121
71616W        W14669   5.897   7.341  20.702  0.0413  0.0692  0.2235
71617W        W14670   5.286  14.010  21.115  0.2055 -0.0073 -0.1043
71618W        W14671  24.743   7.237   6.194  0.0666  0.1854 -0.0522
71619W        W14672  14.787  30.986  20.250 -0.5817  0.3586 -0.0761
71620W        W14673  13.357   2.809  27.642 -0.3267 -0.1666  0.1734
71621W        W14674  24.989  33.265  17.582  0.0695  0.2273  0.0022
71622W        W14675   9.913  22.453  17.727 -0.0462  0.0869 -0.0401
71623W        W14676  18.885  27.323  21.001  0.5180  0.0910  0.0088
71624W        W14677  34.348  11.271  18.270  0.3803  0.4764  0.1189
71625W        W14678   1.549  13.383  26.194 -0.2360  0.0363  0.0903
71626W        W14679  15.749  31.738  26.986 -0.0326 -0.0519 -0.0877
71627W        W14680   8.118  15.399  25.068  0.2711  0.0330  0.0117
71628W        W14681  19.897   3.448   9.581 -0.1738  0.0532  0.0548
71629W        W14682  14.094   3.618  16.271 -0.0380  0.2297 -0.0938
71630W        W14683  28.437   5.465  28.950 -0.2071 -0.2608 -0.0131
71631W        W14684  10.772  23.416  26.423 -0.0328 -0.0808  0.2251
71632W        W14685   0.404  10.284  23.709  0.1739  0.1759 -0.0195
71633W        W14686  23.956  29.304  17.603 -0.1478 -0.1369 -0.1388
71634W        W14687   7.566   9.488  23.904  0.4304 -0.1397  0.4871
71635W        W14688  24.701  20.498  16.606  0.2093 -0.1149  0.1898
71636W        W14689  19.218   2.920  15.844 -0.3510  0.0869 -0.1199
71637W        W14690  21.931   1.408  26.618  0.0489 -0.2820  0.1194
71638W        W14691  15.478   8.794  24.631  0.0030  0.1636 -0.3057
71639W        W14692  21.812  16.718  15.891 -0.1728 -0.0948 -0.2325
71640W        W14693  25.019  25.918  28.930  0.0404 -0.2651 -0.0111
71641W        W14694  32.275  16.811  17.066 -0.2902 -0.0731 -0.3180
71642W        W14695  23.657  15.194  21.911 -0.3290  0.0174 -0.0456
71643W        W14696  15.318   9.822  27.091 -0.1847 -0.4166 -0.1813
71644W        W14697  32.703   3.073   7.351  0.3872  0.0848  0.3344
71645W        W14698  12.237  22.263  19.406 -0.2518 -0.1261 -0.0682
71646W        W14699  20.114   4.643   1.639  0.0945  0.1515 -0.2059
71647W        W14700  27.934  27.434   3.408 -0.1357  0.2516  0.0789
71648W        W14701  33.631  30.662  27.512 -0.3218 -0.0111 -0.2584
71649W        W14702  26.664   0.087  14.405  0.0425 -0.1644  0.2753
71650W        W14703  18.127   1.211  17.323  0.1832  0.0340 -0.0557
71651W        W14704   0.229  14.234   4.989  0.1325 -0.2110 -0.0331
71652W        W14705  13.172  10.042  18.352 -0.0108 -0.0050  0.2050
71653W        W14706  13.309   0.724  15.380  0.1323  0.1500 -0.2095
71654W        W14707  14.159  20.510  21.000  0.2789 -0.0632 -0.2104
71655W        W14708  19.192  10.507  18.539 -0.3300  0.0831 -0.0804
71656W        W14709  23.666  12.206  15.449 -0.2873  0.1941  0.0550
71657W        W14710  25.707  25.630  18.217 -0.0495 -0.1353 -0.3284
71658W        W14711  25.932  17.635  17.111 -0.1638 -0.0759  0.1575
71659W        W14712   3.465  21.809   2.221  0.1252 -0.5143 -0.0162
71660W        W14713   0.090  12.733  19.193 -0.3260  0.0655 -0.0932
71661W        W14714  20.552   4.774  20.244 -0.1318  0.0878 -0.1088
71662W        W14715   8.793   7.163  20.820 -0.0558 -0.0729  0.0306
71663W        W14716  24.184   8.737  19.088  0.0903  0.0691 -0.1199
71664W        W14717  15.737  33.295  17.578  0.2208 -0.0434  0.3028
71665W        W14718   5.437  15.116  19.442  0.0052  0.0891 -0.2014
71666W        W14719  32.569  16.956  18.204 -0.0750 -0.2089 -0.3275
71667W        W14720  12.748   4.542  24.620  0.2226  0.2666  0.0336
71668W        W14721  34.140  12.951  24.819 -0.1340 -0.0329 -0.0539
71669W        W14722  33.549  28.926   6.847 -0.1058 -0.0467  0.0211
71670W        W14723  14.402  34.142  27.893  0.1930 -0.2438 -0.1237
71671W        W14724  22.340  10.259  22.934  0.0536  0.2311  0.2262
71672W        W14725  33.417  14.617  16.874 -0.1335 -0.0321  0.1211
71673W        W14726   5.538   5.830   9.538 -0.4978 -0.1229 -0.0729
71674W        W14727  26.559  14.487  22.509 -0.0117  0.1437  0.3034
71675W        W14728  13.062  10.107  19.442 -0.0882 -0.1968 -0.1514
71676W        W14729  25.408  21.424  24.203  0.0646 -0.0163 -0.3719
71677W        W14730  22.575   1.483  15.296  0.1999  0.2785 -0.0595
71678W        W14731  12.583  12.142  17.565  0.1056  0.1171 -0.1067
71679W        W14732  22.434  18.674  16.785 -0.0256  0.2693  0.0032
71680W        W14733  21.116  33.834  21.559  0.0370  0.1513 -0.0465
71681W        W14734  10.712  10.289  19.599 -0.1807  0.0293 -0.0428
71682W        W14735  16.497   1.267  21.055 -0.1642  0.2795  0.1923
71683W        W14736  25.022  19.097  13.870  0.1947 -0.1912 -0.0101
71684W        W14737  18.277  14.491  14.716  0.0577  0.0734 -0.2248
71685W        W14738  11.926   6.493  16.078 -0.1900 -0.2546  0.0744
71686W        W14739  17.393   9.323  28.014  0.2648 -0.2033  0.0436
71687W        W14740  11.116  13.432  23.227  0.0776  0.3577 -0.0171
71688W        W14741   4.880   0.727  21.068  0.0490 -0.0735 -0.1847
71689W        W14742  20.457   2.501  15.059 -0.2586 -0.1098 -0.1781
71690W        W14743  28.846  31.256   1.345 -0.0286 -0.5851 -0.0474
71691W        W14744  22.280  32.851  28.321  0.1189  0.0907  0.2114
71692W        W14745  11.637   5.567  16.719 -0.5600  0.2541 -0.1069
71693W        W14746   6.706  27.377  25.214  0.2186 -0.4250  0.3757
71694W        W14747  13.207   8.835   4.966  0.1898  0.0081 -0.0739
71695W        W14748   8.993  15.644  16.750  0.3877  0.2654  0.0831
71696W        W14749  29.304   7.105  16.095  0.0390 -0.1149  0.2635
71697W        W14750  25.947   2.109  14.976  0.0460  0.0947  0.0235
71698W        W14751  27.356  20.531  27.558 -0.3812  0.1813  0.0021
71699W        W14752   9.812   8.849  20.572  0.1124  0.2926  0.3449
71700W        W14753  22.498  12.699  27.054 -0.1969 -0.1013  0.2278
71701W        W14754  21.075   6.085  16.247  0.0344  0.0954  0.3331
71702W        W14755  29.398  28.884  27.437 -0.1630 -0.2952  0.2121
71703W        W14756   6.569   8.818   0.550  0.0998  0.2137  0.0299
71704W        W14757  25.981   9.135  17.390  0.1068 -0.0298 -0.0023
71705W        W14758  13.540   8.711  25.198 -0.4069  0.4215 -0.0171
71706W        W14759   8.268  12.103  20.620  0.2124  0.0974  0.1545
71707W        W14760  32.733   7.557  21.150 -0.1940 -0.1989 -0.0165
71708W        W14761   1.837  18.372  18.801 -0.0173  0.2240  0.0974
71709W        W14762  12.646   5.914   3.954  0.1566  0.3617 -0.1797
71710W        W14763  15.379   9.353  25.373 -0.1063  0.1581 -0.1969
71711W        W14764  17.711  30.507   5.156 -0.1154  0.1605  0.2551
71712W        W14765  15.257  16.551  27.438  0.1100 -0.1832 -0.2628
71713W        W14766  23.495  22.700  16.871 -0.2762 -0.0295 -0.4471
71714W        W14767  16.138   3.356  17.147  0.0776  0.1538 -0.1614
71715W        W14768  18.080  11.402  23.139 -0.3972 -0.1576  0.5220
71716W        W14769  21.108  33.348  20.500  0.2315  0.2644 -0.0262
71717W        W14770  20.021   2.766  21.903  0.0821 -0.2962 -0.0297
71718W        W14771   9.358   8.833  25.384  0.0666 -0.0002 -0.0254
71719W        W14772  10.961   0.588  24.456 -0.2828  0.1406  0.4523
71720W        W14773  22.890  19.134  21.194  0.0383 -0.1163  0.1219
71721W        W14774   6.412  13.556  22.066 -0.4215  0.1257 -0.0809
71722W        W14775   4.305  19.578   6.156  0.4083 -0.2144  0.0688
71723W        W14776  17.074   3.356   1.934 -0.2234  0.1368 -0.2019
71724W        W14777  19.326  11.348  26.466  0.0558  0.3341 -0.3769
71725W        W14778  12.506  33.764  15.021  0.0702 -0.4107  0.1624
71726W        W14779  21.021  15.625  16.177  0.0483 -0.0483  0.0842
71727W        W14780  34.479  32.433  18.926 -0.1106 -0.3864  0.2723
71728W        W14781   6.195  10.070  10.182 -0.2400 -0.0092  0.1495
71729W        W14782   3.128   7.655  27.710 -0.0006  0.0570 -0.1415
71730W        W14783   9.529   7.244   0.113 -0.0852 -0.1326 -0.0815
71731W        W14784  29.190  34.573   7.763 -0.2524 -0.0286  0.0298
71732W        W14785  10.029   3.953   7.776 -0.3300 -0.1261 -0.2053
71733W        W14786   3.771   3.742  28.921 -0.0106  0.2047  0.2123
71734W        W14787  33.324   4.755  24.237 -0.1637  0.3911  0.4897
71735W        W14788  12.215  28.303  21.231  0.2399  0.1668  0.0426
71736W        W14789  22.116  12.103  14.358 -0.2150  0.2047 -0.0927
71737W        W14790  26.596  34.462  26.361 -0.1118 -0.0528 -0.3407
71738W        W14791  33.945  24.276  20.879  0.1872  0.0688  0.0788
71739W        W14792  29.257   0.787  28.432  0.0393  0.0476  0.0531
71740W        W14793  15.792   5.814  17.368  0.1580 -0.0638  0.0634
71741W        W14794  25.305   1.515  28.784 -0.1426  0.2665 -0.0234
71742W        W14795  14.924   8.648  21.527 -0.1014  0.1730 -0.1998
71743W        W14796  26.145   7.458   2.779 -0.3179 -0.1077  0.1347
71744W        W14797  27.211   8.125  27.235 -0.2401  0.1124 -0.1585
71745W        W14798   7.358  32.816  28.021  0.0267  0.1474 -0.1163
71746W        W14799  15.608   5.656  28.358 -0.0176 -0.1141 -0.1491
71747W        W14800  14.716  21.446  21.407  0.3868 -0.0394 -0.0896
71748W        W14801  27.305  15.375  25.093 -0.2135  0.0527 -0.0885
71749W        W14802  24.927  26.909  25.970 -0.1268  0.1833  0.1486
71750W        W14803  24.755  31.679   4.157 -0.2370 -0.4394 -0.0018
71751W        W14804  16.319   2.803  14.083 -0.2708  0.1740  0.1286
71752W        W14805   1.229  29.630  28.141  0.2961 -0.1502  0.3310
71753W        W14806  17.261   9.919  26.081 -0.0729 -0.0598 -0.0378
71754W        W14807  22.892  16.338  22.120  0.1416  0.0075  0.4235
71755W        W14808  16.463   5.014   3.038  0.0665  0.1674 -0.0355
71756W        W14809  16.162  14.261  29.047  0.0665 -0.1937 -0.0371
71757W        W14810  18.276   5.516  17.076 -0.0099  0.0442 -0.2146
71758W        W14811  11.103   3.822  15.758 -0.3781  0.1781  0.1155
71759W        W14812   2.947  15.314   0.011  0.2576 -0.0931  0.0679
71760W        W14813  24.087   8.209  14.843 -0.0507  0.3019  0.0937
71761W        W14814   8.518   3.863  24.367 -0.0536 -0.4477 -0.4288
71762W        W14815  24.654  33.036  17.208  0.1551 -0.0427 -0.1682
71763W        W14816  32.930  19.915  20.339 -0.2176  0.1162  0.0469
71764W        W14817  21.473  22.812  27.687 -0.0684 -0.2922 -0.3949
71765W        W14818   2.498  12.148  20.307 -0.3009  0.4348  0.0783
71766W        W14819  20.478   9.983  24.934 -0.3235 -0.0029  0.0845
71767W        W14820  32.465   5.547   8.949  0.0108  0.1952 -0.0223
71768W        W14821  17.911   6.754   2.267 -0.1768  0.0526  0.1363
71769W        W14822  10.461  11.875  20.555 -0.0141  0.0895  0.2178
71770W        W14823  32.827   3.246  26.372 -0.1860 -0.0236 -0.1238
71771W        W14824  20.645  16.448  15.680 -0.1478 -0.2215 -0.0607
71772W        W14825  11.554  20.445  20.353  0.0257 -0.0516 -0.0095
71773W        W14826   4.207  27.251  20.709 -0.0359  0.0929 -0.2745
71774W        W14827   6.732   3.559  23.180  0.2328  0.1948 -0.1284
71775W        W14828  16.014  31.715  29.126 -0.3269 -0.1258  0.0429
71776W        W14829  19.114   5.684  22.967  0.0411 -0.0904 -0.0765
71777W        W14830  28.250  19.607  22.393 -0.0748 -0.1450 -0.0470
71778W        W14831  16.489   4.877   9.418  0.1333  0.0415 -0.2232
71779W        W14832  26.570   5.081   5.441 -0.1219  0.0502  0.1694
71780W        W14833  15.568   1.387  17.137  0.0218  0.2440  0.0675
71781W        W14834  21.221  27.141  11.168 -0.1128  0.1616  0.0848
71782W        W14835  15.698  15.626  27.813  0.1277 -0.0756  0.0693
71783W        W14836  17.578   5.969  18.203 -0.4661 -0.3309  0.2952
71784W        W14837  17.629  20.360  14.337 -0.1345  0.1165 -0.0146
71785W        W14838  26.707  24.730  22.744 -0.0981  0.0321  0.1999
71786W        W14839  32.253   1.866  22.386  0.1423 -0.0077  0.2429
71787W        W14840  16.989   4.755   1.421 -0.3072 -0.2297 -0.0494
71788W        W14841  21.055   3.846  25.052  0.0231  0.1057 -0.1806
71789W        W14842  32.746  17.705  17.187  0.1987  0.0456  0.2099
71790W        W14843   3.294   8.857  24.453  0.0286 -0.0096 -0.0911
71791W        W14844   1.632  20.639  19.800  0.1769 -0.0788  0.0048
71792W        W14845   5.029   7.826  22.529 -0.1225  0.0223 -0.1886
71793W        W14846  13.684  12.128  23.265 -0.3002  0.2003 -0.1122
71794W        W14847  24.266   0.162  22.705 -0.4424  0.2677  0.3262
71795W        W14848   9.120  19.449  19.838  0.0979 -0.2857  0.1093
71796W        W14849  13.593  12.505  19.623 -0.0840  0.1493  0.1493
71797W        W14850   4.582  13.308  19.666  0.2318  0.2161  0.0382
71798W        W14851   8.829   6.834  26.667 -0.2339  0.3145 -0.1892
71799W        W14852  16.013   1.436   2.270 -0.2474 -0.0868 -0.2914
71800W        W14853  18.628  14.236  15.676 -0.1003  0.0893  0.0461
71801W        W14854   7.924   1.886  27.180 -0.1990 -0.1924  0.0925
71802W        W14855   9.787  25.857  17.721  0.0834 -0.0412 -0.1250
71803W        W14856  13.602  11.104   1.914  0.2327 -0.0171  0.0979
71804W        W14857  11.157  24.792  20.103  0.0210 -0.0698 -0.0163
71805W        W14858   4.821   4.639   7.415  0.1130 -0.0428 -0.1126
71806W        W14859  11.234   9.073  17.076 -0.1329 -0.0795  0.0809
71807W        W14860  11.857  21.378  20.754 -0.2901  0.0090 -0.0092
71808W        W14861  17.185   3.714  20.207  0.0813  0.0927  0.1707
71809W        W14862  31.202  16.975  22.800  0.0364  0.3525 -0.0604
71810W        W14863  27.326  20.022   5.184  0.0617 -0.0632 -0.0781
71811W        W14864  19.000   6.954  22.996 -0.0466  0.3257 -0.1929
71812W        W14865  22.603   7.450  21.466 -0.2508  0.0943 -0.4606
71813W        W14866  26.655  24.748  17.038 -0.0630  0.1245 -0.1554
71814W        W14867  18.373  31.334  24.467 -0.0393  0.1098  0.2834
71815W        W14868  20.604  11.345  14.078 -0.1986  0.0428 -0.3406
71816W        W14869  28.405  19.927   0.838  0.0724  0.0189 -0.3696
71817W        W14870  12.846  21.661  17.600 -0.2740  0.2685 -0.3197
71818W        W14871   0.377  19.596  16.086 -0.2288  0.0833  0.2454
71819W        W14872  16.126  14.207  15.820  0.2543 -0.2110 -0.0301
71820W        W14873  34.504  11.201  19.582 -0.3617  0.0074 -0.0384
71821W        W14874   5.218  10.102  24.591 -0.1568  0.2311  0.1349
71822W        W14875  25.827  33.631   1.174  0.0535 -0.1317  0.2923
71823W        W14876  11.492  23.877   5.583  0.0405 -0.0490  0.2165
71824W        W14877  12.407   1.894   7.172 -0.0077 -0.1617  0.1165
71825W        W14878  30.498   6.496  27.700 -0.1102 -0.0320  0.2697
71826W        W14879  10.038  14.197  17.585 -0.0404 -0.3052  0.0360
71827W        W14880  23.115  31.495   0.235  0.3055  0.0004 -0.2226
71828W        W14881   6.758  16.984  14.653 -0.2140 -0.0511 -0.1775
71829W        W14882  17.415  33.405   4.963  0.2146  0.3203  0.0113
71830W        W14883  25.574   9.354  28.572 -0.0170 -0.3469  0.2901
71831W        W14884   5.247  31.199  15.882  0.4737  0.0227  0.0285
71832W        W14885  23.046  16.835   4.659 -0.1217  0.0821  0.1718
71833W        W14886  13.292  33.787  23.050 -0.0331  0.0015 -0.1148
71834W        W14887  26.852  33.109  27.604  0.1966 -0.2608  0.4612
71835W        W14888  18.911  15.915   3.306 -0.0726  0.1148  0.0393
71836W        W14889  20.964   9.737  25.752 -0.1655  0.3469  0.0659
71837W        W14890  23.145   9.496  16.783  0.0319 -0.1714 -0.0040
71838W        W14891  23.284  16.865  26.874 -0.0134  0.0807 -0.2808
71839W        W14892  11.325  11.039  23.751 -0.0935 -0.0948 -0.3615
71840W        W14893  30.520  16.775  15.703  0.2062 -0.0330 -0.3515
71841W        W14894  24.007  26.814  20.428  0.1487 -0.1305  0.2944
71842W        W14895  12.508   7.368  22.682  0.0787  0.3897 -0.1186
71843W        W14896  21.708  30.025  25.876 -0.0393 -0.3740  0.1169
71844W        W14897  14.145   0.751  13.933  0.0067 -0.0130  0.1739
71845W        W14898   9.911  12.907   1.996 -0.3176  0.2418 -0.4216
71846W        W14899  15.036  14.800  26.945  0.1464 -0.0501  0.0181
71847W        W14900  17.666   9.618  14.015 -0.1174 -0.3985 -0.0499
71848W        W14901   0.761  34.452  14.618 -0.0067 -0.1367 -0.0444
71849W        W14902  20.245  13.097  21.626  0.0966  0.0321 -0.0926
71850W        W14903  30.382  25.947  16.947  0.0774 -0.0591 -0.0011
71851W        W14904   7.673  17.316  26.718 -0.1967 -0.0832  0.2856
71852W        W14905  13.806   4.131  10.544  0.2058 -0.1295  0.0556
71853W        W14906  23.662  12.254  16.613  0.2352 -0.2404 -0.1568
71854W        W14907  17.910  23.429  17.062  0.0720 -0.1485  0.2479
71855W        W14908  12.120  17.308  28.299  0.4378 -0.0606  0.1092
71856W        W14909  11.494  18.492  20.179  0.3451  0.2435  0.1345
71857W        W14910  10.075   0.305  21.688 -0.4241  0.0491 -0.4111
71858W        W14911  18.989  31.799  16.366 -0.3232  0.1938  0.1118
71859W        W14912   7.108   5.982  17.317  0.0119 -0.0757  0.4128
71860W        W14913  32.295  14.667  28.609  0.1318  0.5672  0.0315
71861W        W14914  34.495  29.630  22.898 -0.1703  0.2345  0.2451
71862W        W14915  17.831   0.634  16.981  0.0756 -0.1823  0.1382
71863W        W14916  21.047  15.107  21.023 -0.1159 -0.0446  0.3165
71864W        W14917  23.532   5.224  25.679 -0.2443  0.1408  0.3748
71865W        W14918  25.079   1.830  19.292  0.2805 -0.0566  0.2752
71866W        W14919  22.544  13.013  17.606  0.0013  0.1315  0.0796
71867W        W14920  29.576   9.933  21.848 -0.0929  0.1432 -0.1641
71868W        W14921   8.537  16.633  27.845  0.0683  0.2210 -0.0916
71869W        W14922  20.538   5.930  17.404 -0.1527 -0.1744  0.1862
71870W        W14923   5.172   6.803  26.524 -0.1006  0.1225 -0.0330
71871W        W14924  28.879  19.807  20.678 -0.1779 -0.0883 -0.1417
71872W        W14925  15.273   7.756  26.225  0.1641 -0.1853 -0.1080
71873W        W14926  14.526  18.763   5.597  0.2687  0.0878 -0.0696
71874W        W14927  24.817  28.890  17.685  0.2005 -0.4847 -0.0087
71875W        W14928  17.829  12.708  15.374  0.2600 -0.3475 -0.1475
71876W        W14929   9.182   9.567  21.638  0.3808  0.2575  0.1457
71877W        W14930  26.740  27.001   1.210 -0.1368  0.0397 -0.1984
71878W        W14931   8.238  13.277   3.382  0.0641 -0.4074  0.1598
71879W        W14932   8.826   0.961  27.683  0.0530  0.0601 -0.1653
71880W        W14933  24.099   5.822   1.258 -0.0405  0.0507  0.0697
71881W        W14934   5.431  16.467  14.799 -0.2462 -0.0486  0.0838
71882W        W14935   3.575  13.272  21.175  0.1558 -0.2911 -0.0654
71883W        W14936   7.493  14.009  26.075  0.2279  0.2659 -0.2270
71884W        W14937  27.972   3.804   5.564  0.1281 -0.1082  0.1467
71885W        W14938   1.055  18.876  14.239  0.1965 -0.0505 -0.1548
71886W        W14939   1.746  33.380   2.363 -0.0108 -0.1704  0.3478
71887W        W14940   8.178  11.194  28.482  0.0088  0.0990  0.0476
71888W        W14941  28.043  27.768  24.487  0.0225  0.2026  0.0096
71889W        W14942  28.485   9.954  27.506 -0.0227 -0.0137  0.0782
71890W        W14943  26.369  24.055  20.556  0.0057 -0.0784  0.1003
71891W        W14944   0.658  13.644  20.318 -0.0156  0.2152 -0.2615
71892W        W14945   1.535  29.981  27.295 -0.1716  0.2301 -0.1112
71893W        W14946  26.125   4.783  27.294  0.3728  0.0823  0.0824
71894W        W14947  24.856  20.560  20.403 -0.0067 -0.0055 -0.0414
71895W        W14948  30.356   0.688  18.760  0.0502  0.2002 -0.3460
71896W        W14949  14.716  25.425  24.042 -0.0712  0.1066  0.1256
71897W        W14950  32.453  13.978  25.350  0.1048  0.1415 -0.2886
71898W        W14951  15.326  28.316  10.545  0.1622  0.0298 -0.1507
71899W        W14952  11.967  29.910  23.263  0.3605 -0.0252  0.2052
71900W        W14953  12.217  11.065   1.282 -0.2584 -0.2901  0.0270
71901W        W14954   6.322  13.141   4.068 -0.1144 -0.0087  0.1146
71902W        W14955  10.829   9.255  16.391 -0.2787  0.1995  0.0445
71903W        W14956  20.557   6.062   7.141  0.3749  0.1188  0.0843
71904W        W14957   0.229   7.567  18.263 -0.0585  0.0857 -0.0578
71905W        W14958   3.726  23.614  23.778  0.1362  0.1568  0.1199
71906W        W14959  11.319  12.134   1.014  0.1165  0.0493  0.0992
71907W        W14960  15.263   4.397   2.120 -0.1811 -0.1669 -0.1106
71908W        W14961   7.127   0.350   2.495 -0.1348 -0.0311 -0.1464
71909W        W14962   7.536  19.016  28.517 -0.1479  0.0534  0.0612
71910W        W14963  19.138   2.389  17.963 -0.2570  0.0819  0.2432
71911W        W14964  15.277  21.857  20.720 -0.0848  0.5067  0.1905
71912W        W14965  10.766  22.696  22.474 -0.0181 -0.0890  0.3693
71913W        W14966  14.336   1.815  17.989  0.0113 -0.1922  0.1944
71914W        W14967  21.613   6.089  18.002  0.4155 -0.3280  0.1588
71915W        W14968  18.113  14.004  24.639  0.5634 -0.1574  0.4098
71916W        W14969   8.657  25.953  23.629  0.0593 -0.2324  0.3231
71917W        W14970  17.322   4.677  23.701 -0.2076  0.1538 -0.0195
71918W        W14971  19.184  10.918  16.865 -0.3117 -0.0922 -0.1623
71919W        W14972  18.236   4.240  16.805 -0.1015 -0.2919 -0.2120
71920W        W14973  22.644   9.340  25.638 -0.0506 -0.1351 -0.0768
71921W        W14974  21.415  21.280  26.848 -0.0669  0.2716 -0.0326
71922W        W14975  11.827  17.465  25.001 -0.0342  0.4447  0.2480
71923W        W14976  10.361  10.250  26.149 -0.2027  0.2825 -0.0376
71924W        W14977  14.927  24.294  24.153  0.1509 -0.1474 -0.0555
71925W        W14978  14.397   8.489  22.331 -0.3564  0.1751 -0.2636
71926W        W14979   3.801   6.557  28.595 -0.3264  0.1953 -0.3088
71927W        W14980   6.178   1.856  27.191 -0.1992 -0.1648 -0.0967
71928W        W14981  23.328  19.324  19.223 -0.1267  0.0592  0.0077
71929W        W14982   2.987   6.779  20.446 -0.0283  0.0147  0.3012
71930W        W14983  22.130  34.399  22.587  0.1059 -0.1145  0.1137
71931W        W14984  33.301  12.515  18.503 -0.0546  0.2261  0.0143
71932W        W14985  15.230  12.541  20.618 -0.2435 -0.3276 -0.1968
71933W        W14986  23.450  16.220  17.081  0.0959 -0.0979 -0.1296
71934W        W14987   9.281  15.902  17.060 -0.0102 -0.3730  0.0537
71935W        W14988  13.571  34.274  19.063  0.1650  0.2252 -0.2902
71936W        W14989   7.170  21.824  23.389 -0.0447 -0.0628 -0.0786
71937W        W14990  12.720  24.344   7.318 -0.2015 -0.2431  0.1341
71938W        W14991  19.829   4.716  20.956  0.4043 -0.2505  0.1689
71939W        W14992  21.902  16.522  18.833 -0.2644  0.4096  0.2972
71940W        W14993   5.803  25.465   0.315  0.1169  0.0960 -0.0562
71941W        W14994  16.191  31.783   5.926 -0.1560 -0.0209  0.2754
71942W        W14995   9.238  27.585  13.712  0.0246 -0.0069  0.0523
71943W        W14996  11.266  31.869  28.894 -0.0108  0.0461  0.3807
71944W        W14997  13.571  21.398  20.749 -0.1173  0.1223  0.1752
71945W        W14998  19.928   6.525   3.802  0.2112 -0.4334  0.1728
71946W        W14999   0.963  26.321  22.025  0.0954 -0.1816  0.1771
71947W        W15000  12.011  24.268  16.208 -0.2836 -0.3883  0.0335
71948W        W15001  15.841  10.491  18.819 -0.0151 -0.0072 -0.4408
71949W        W15002  33.526  18.658  24.685 -0.0931  0.1731  0.0795
71950W        W15003  22.642  21.955  20.350  0.0367  0.1478 -0.2454
71951W        W15004  32.474  20.136  20.660 -0.1769 -0.2143  0.3219
71952W        W15005  28.899   7.325  14.784  0.0910  0.4932  0.0271
71953W        W15006  32.229   6.060  23.946  0.0076  0.0458 -0.1019
71954W        W15007   8.933  33.149   3.509  0.2668 -0.0717 -0.0843
71955W        W15008  10.804   6.180  17.684  0.0732  0.1931  0.0481
71956W        W15009  12.757  32.475  27.738 -0.2897  0.1299  0.1857
71957W        W15010  13.885  14.670  23.850 -0.0837 -0.0373  0.1090
71958W        W15011   3.520  33.914   6.316 -0.0822  0.4310  0.2234
71959W        W15012   2.241  32.701  25.451 -0.1496  0.1267 -0.2842
71960W        W15013  10.648  18.470  14.843  0.1381 -0.0518  0.0751
71961W        W15014   7.118  34.329  21.060 -0.1203 -0.1931  0.2419
71962W        W15015   8.959  11.086  26.125 -0.1457  0.1479  0.0392
71963W        W15016  24.523  14.771   4.278 -0.1807 -0.0340 -0.1962
71964W        W15017  21.773   2.389  20.530  0.2484 -0.1772  0.1217
71965W        W15018  10.206  30.910  22.206 -0.2477  0.2376  0.1154
71966W        W15019   3.733  30.608   1.759  0.0510  0.0980 -0.2373
71967W        W15020  33.859  27.816  16.281 -0.0731 -0.0647  0.0986
71968W        W15021  29.950  16.015   0.279 -0.0283  0.1067  0.1735
71969W        W15022  20.731  30.363  14.475  0.1515 -0.1372  0.4163
71970W        W15023  14.420  22.597  26.792 -0.0751  0.0583  0.1686
71971W        W15024  16.963   2.566  27.580 -0.1681 -0.0299 -0.3041
71972W        W15025  10.468  15.412  26.131 -0.2476  0.1478 -0.1102
71973W        W15026   6.752   5.950  20.067 -0.0983  0.3595 -0.0332
71974W        W15027  24.389  25.973   1.476  0.1366  0.1379 -0.2155
71975W        W15028   4.935   5.400  17.105 -0.1119 -0.1399  0.1713
71976W        W15029  34.149  14.507  24.378 -0.0953 -0.0212  0.0147
71977W        W15030  33.236  23.284  25.428  0.0226  0.3080  0.2123
71978W        W15031  21.930  17.767  28.336  0.0256  0.0206 -0.0561
71979W        W15032   5.964  24.197   7.997 -0.0745 -0.4422 -0.0572
71980W        W15033  30.647  27.113  20.452  0.0843  0.3878 -0.1799
71981W        W15034  21.321   4.114  24.061  0.1116 -0.1370  0.0890
71982W        W15035   8.137  21.628  19.792  0.0023 -0.1331 -0.5598
71983W        W15036  23.093  14.898  18.279  0.1551 -0.0284 -0.1037
71984W        W15037  34.279  16.677  16.137 -0.0454 -0.1320  0.1727
71985W        W15038  30.185   0.545  17.672  0.3612  0.2841 -0.0426
71986W        W15039   9.909   8.722  17.896 -0.0738  0.0062 -0.1532
71987W        W15040  26.331  23.884   4.216  0.0765  0.3918  0.0854
71988W        W15041  19.772   0.627  17.443 -0.1816 -0.0329  0.0730
71989W        W15042  28.436   7.452  25.205 -0.0115  0.0580 -0.0325
71990W        W15043   5.269  14.082  21.564 -0.1206 -0.1464 -0.1114
71991W        W15044  15.139   4.686   2.969  0.1800 -0.0087  0.0999
71992W        W15045  10.780   6.667   6.313 -0.1868 -0.3299  0.0021
71993W        W15046   4.444   8.970  27.420 -0.2081  0.4719 -0.1118
71994W        W15047  17.570  30.105   6.140 -0.1706  0.1721  0.3468
71995W        W15048  20.822  33.418  19.413 -0.0417 -0.0237 -0.0270
71996W        W15049  19.566   0.028   4.273 -0.0473 -0.1119 -0.0204
71997W        W15050  10.409   9.246  28.111  0.2021  0.0474  0.1206
71998W        W15051  16.201   3.770  22.319  0.0595 -0.2757  0.0960
71999W        W15052  10.607  19.733  16.538  0.0012  0.2062 -0.1231
72000W        W15053  20.278  12.606  24.479  0.0028 -0.0680 -0.5818
72001W        W15054   0.463  33.726  18.696  0.0210 -0.2386 -0.2085
72002W        W15055  22.365  12.643  21.193 -0.0335  0.0828  0.0646
72003W        W15056  33.565   4.020   0.144  0.0800  0.1989  0.3997
72004W        W15057  11.034  27.064  21.627  0.3835 -0.1817  0.0058
72005W        W15058  19.797   3.756  26.663  0.0063  0.0048 -0.2529
72006W        W15059  19.512   9.107  15.082  0.0432  0.3851  0.2619
72007W        W15060  23.286  33.280  26.795 -0.0440 -0.0827  0.1558
72008W        W15061   5.664  20.790  15.366  0.0456 -0.2713  0.0226
72009W        W15062   6.188   4.786  22.505  0.2545 -0.0425  0.1084
72010W        W15063  18.541  26.149  17.705  0.0712 -0.2256  0.3530
72011W        W15064  26.849   3.664  23.146 -0.2764 -0.1077  0.1443
72012W        W15065  28.302  10.710  10.253 -0.1139 -0.1843  0.2220
72013W        W15066  18.306  14.515   1.910 -0.0596 -0.1278 -0.0390
72014W        W15067  14.378   2.497   6.362 -0.3989  0.1124 -0.2746
72015W        W15068  10.471  13.459  22.205 -0.3654 -0.0990 -0.2078
72016W        W15069  28.742  23.497  19.915  0.0074 -0.1266  0.4699
72017W        W15070  19.601  17.600  12.484  0.1273 -0.2898 -0.0826
72018W        W15071  27.177  33.113  18.857 -0.0471 -0.0187  0.1410
72019W        W15072  11.838  15.888  18.648  0.3587  0.1742 -0.3663
72020W        W15073   9.202   7.816  27.870  0.1969 -0.2857 -0.0712
72021W        W15074  17.371   5.391  16.886 -0.2671  0.1191 -0.0407
72022W        W15075   7.546  34.542   7.357  0.1920 -0.0611 -0.0315
72023W        W15076   9.702  14.012  16.579  0.0912 -0.1602  0.0432
72024W        W15077  16.495  12.687  15.221  0.0519  0.0981  0.1371
72025W        W15078   5.024  17.997  26.683  0.1919  0.0197 -0.2205
72026W        W15079   7.193  31.338  20.345  0.1540  0.1269 -0.0187
72027W        W15080  21.326  24.008  15.864  0.1300 -0.1148 -0.2989
72028W        W15081   6.135   5.122  18.488  0.0234 -0.0613  0.2814
72029W        W15082   1.153   2.444  16.076 -0.0803  0.0163 -0.1879
72030W        W15083   5.992   6.019  20.496 -0.0829  0.0139  0.2552
72031W        W15084  33.222  10.863   5.896  0.2496  0.0231 -0.1388
72032W        W15085  22.503   6.579  21.462 -0.2241  0.1631  0.2707
72033W        W15086  31.931   6.205   1.732  0.0428  0.2135 -0.2457
72034W        W15087  26.371  12.268  19.144  0.1386  0.0823 -0.4276
72035W        W15088   9.732   9.331   5.718 -0.2715  0.1715 -0.2180
72036W        W15089  18.340   6.736  15.472 -0.0853 -0.0927 -0.1571
72037W        W15090  17.995  30.654  27.549  0.1689  0.0671  0.0655
72038W        W15091   6.996  33.363  10.074  0.4144  0.3652  0.2330
72039W        W15092  27.080  24.059  26.135  0.1180  0.0347 -0.0572
72040W        W15093   1.039   6.961  23.361 -0.2189 -0.0469 -0.0427
72041W        W15094  18.693   5.835  18.752  0.3098  0.0244  0.0317
72042W        W15095  24.713   1.754  14.574  0.0402  0.1178  0.4843
72043W        W15096   8.717  21.765  18.128  0.1261 -0.0693 -0.0828
72044W        W15097  21.104   7.743  14.808  0.0177 -0.0846  0.1632
72045W        W15098  16.558  18.009  24.146 -0.1173  0.0996 -0.1048
72046W        W15099  26.213  27.788   8.967 -0.1831  0.1852  0.2351
72047W        W15100  32.920  19.319  28.530 -0.4116 -0.1704 -0.4498
72048W        W15101  32.270  10.266   6.550  0.3185  0.1746 -0.2096
72049W        W15102  30.718  11.327  22.076  0.0144  0.1858 -0.0156
72050W        W15103  19.205  15.827  23.799 -0.2462 -0.1244  0.0440
72051W        W15104   3.362   8.660  26.305 -0.2533 -0.4624  0.0174
72052W        W15105  25.913  13.589  23.999  0.6492  0.2327  0.2164
72053W        W15106  10.562  31.544   3.079  0.1956 -0.1285 -0.0335
72054W        W15107  15.670   0.757  28.532 -0.0018 -0.2223 -0.0730
72055W        W15108  26.182  15.149   0.568  0.1891  0.0972 -0.0882
72056W        W15109   9.238   7.459  18.716  0.2558  0.0816 -0.5661
72057W        W15110  19.862  10.782  18.942 -0.3284  0.1921 -0.2679
72058W        W15111  18.582   7.236  14.233  0.0770 -0.0241  0.1925
72059W        W15112   8.837   2.029  27.668 -0.1386 -0.1339  0.2203
72060W        W15113  22.405  17.373  23.506  0.0851  0.0131 -0.0486
72061W        W15114  24.421  26.574   6.514 -0.1653 -0.1546 -0.2660
72062W        W15115  20.086  24.429   1.246 -0.1200  0.3327 -0.3273
72063W        W15116  11.278  13.845  25.520  0.2051  0.1550 -0.1037
72064W        W15117   4.967  13.921  14.337 -0.1682  0.1263 -0.1234
72065W        W15118  13.481   7.373  25.044 -0.3060 -0.0029  0.0915
72066W        W15119  14.539  10.013  27.773  0.2167 -0.0374 -0.2264
72067W        W15120   8.091  12.797   3.162 -0.0436  0.0632  0.3275
72068W        W15121  12.279  31.696  22.808 -0.0135 -0.0354  0.1209
72069W        W15122  16.499  28.292   3.608 -0.1042 -0.2754 -0.3593
72070W        W15123  32.573   2.798  15.098  0.1061  0.3432  0.0118
72071W        W15124   0.347   7.609  20.691 -0.0620 -0.1302 -0.0216
72072W        W15125  26.004   7.750  20.743  0.1232 -0.3231 -0.0946
72073W        W15126  11.103   6.017  21.293 -0.0122 -0.1760 -0.0286
72074W        W15127  13.086  13.317   4.909  0.2891 -0.1494  0.3628
72075W        W15128  30.941   0.953  20.393 -0.1144  0.3275 -0.0396
72076W        W15129  26.752  16.925  15.776 -0.0661 -0.1148 -0.3064
72077W        W15130  23.973  26.767   8.658 -0.0742 -0.1494 -0.0895
72078W        W15131  10.095  31.318  28.595 -0.1977  0.2760 -0.0393
72079W        W15132   9.106  33.587  19.779  0.1229  0.1752  0.1746
72080W        W15133  22.932   0.847  17.216  0.1855 -0.1267  0.2336
72081W        W15134  22.848  10.031  14.988  0.1611 -0.0650  0.1080
72082W        W15135  18.676  12.016  26.706 -0.0842 -0.3455  0.0755
72083W        W15136   9.350  30.619  28.431 -0.0231  0.1168 -0.0677
72084W        W15137  22.351  26.034  24.911 -0.0272  0.0508 -0.2968
72085W        W15138  11.623  11.789   8.856  0.0405  0.1436 -0.0273
72086W        W15139  21.922  12.838   4.447  0.0852 -0.0666 -0.5080
72087W        W15140  26.517  19.989  28.682 -0.1151  0.1221 -0.1792
72088W        W15141  21.319   9.511   0.940  0.1312 -0.1249  0.3739
72089W        W15142  23.021  14.730  18.779 -0.2388 -0.0442 -0.3553
72090W        W15143  13.920   9.512  18.583  0.2078  0.0400  0.2051
72091W        W15144   4.405  14.984  27.503 -0.0949 -0.0386 -0.0663
72092W        W15145  31.948   4.625  20.674 -0.1266  0.3241  0.0955
72093W        W15146  23.869  16.234  19.565  0.3621 -0.0563  0.0198
72094W        W15147  12.416   8.221   0.849  0.0495 -0.1749 -0.1307
72095W        W15148  27.782  28.199  21.405  0.0321 -0.1497 -0.0757
72096W        W15149  17.690  17.528   9.553 -0.2972  0.0172  0.0688
72097W        W15150   2.176  33.144  25.870 -0.1868 -0.1414  0.1479
72098W        W15151  26.017   8.738  26.689  0.1878  0.0227  0.2281
72099W        W15152  12.476   2.326  25.268 -0.4853 -0.0439  0.1834
72100W        W15153  14.139  18.909   6.963 -0.0508  0.1923 -0.1529
72101W        W15154  18.800  26.406  23.608 -0.1974  0.0343  0.0899
72102W        W15155  10.557  30.688  26.247 -0.0249 -0.1620  0.0233
72103W        W15156  18.942  11.736  22.747 -0.0688  0.2686  0.2296
72104W        W15157  19.311  11.733  16.653 -0.2764  0.0371  0.2748
72105W        W15158  31.750   9.784  26.826  0.1929 -0.0066 -0.0338
72106W        W15159  12.786   6.858  16.782  0.1736 -0.1095  0.2226
72107W        W15160  25.715  12.817   1.981 -0.2394  0.1297  0.1353
72108W        W15161   6.765  12.074  26.124 -0.0957 -0.3663  0.3267
72109W        W15162  19.648  10.613  15.145  0.3349 -0.1801  0.3362
72110W        W15163  18.195   7.864  26.262 -0.1164  0.0010  0.0194
72111W        W15164  16.468   0.003  27.909 -0.1661  0.1350  0.2972
72112W        W15165   3.903   9.946  19.999  0.0602  0.1142 -0.0211
72113W        W15166  28.938   4.122  23.811  0.3024 -0.1205 -0.0156
72114W        W15167   3.847  15.243  28.310  0.0725  0.0647  0.0819
72115W        W15168  23.437  24.990  17.226 -0.2196  0.0185 -0.3610
72116W        W15169  15.378   8.381   1.675 -0.0295 -0.1496  0.1380
72117W        W15170  13.571   3.927  22.764  0.3379  0.2080  0.0672
72118W        W15171  19.741   7.012   4.117 -0.1713 -0.0854 -0.0415
72119W        W15172  12.684  20.221  19.793  0.1138 -0.2262 -0.1522
72120W        W15173  11.616  17.973   7.170 -0.1202 -0.1259 -0.1279
72121W        W15174   9.567   6.043  29.174  0.0995 -0.0669  0.0448
72122W        W15175  18.519  15.276  22.337 -0.1039  0.0490 -0.0282
72123W        W15176  30.423  21.969  24.471 -0.0441  0.1746  0.2121
72124W        W15177  21.141  16.778   3.403 -0.1223 -0.1300  0.0776
72125W        W15178   4.519   7.155  15.259 -0.2814  0.1764  0.4256
72126W        W15179  14.132   9.494   5.531 -0.0666  0.0562 -0.1174
72127W        W15180  12.877   5.638   6.947  0.0193 -0.2082 -0.1280
72128W        W15181  23.659  15.035  22.377 -0.1294  0.1382  0.3540
72129W        W15182   0.531   8.561   6.255  0.0914  0.1098  0.3117
72130W        W15183  19.397  28.042   8.674 -0.2744 -0.1424  0.1573
72131W        W15184  23.047  22.761  18.115  0.0506 -0.0071 -0.0117
72132W        W15185  13.893   7.568   7.479 -0.1825  0.1135  0.1784
72133W        W15186   7.961  11.014  15.285  0.1660 -0.0115 -0.0432
72134W        W15187  14.410   4.310  22.936 -0.1332  0.1244 -0.1564
72135W        W15188  16.383   7.725  24.902  0.2421 -0.1263  0.1373
72136W        W15189   9.545  23.934  25.829 -0.2764 -0.1763  0.0760
72137W        W15190  10.757  21.904   6.300 -0.4147  0.1230  0.0807
72138W        W15191  19.565   3.842  19.949  0.0192  0.2799  0.2442
72139W        W15192  17.319   9.387  17.532 -0.4128 -0.2426  0.4504
72140W        W15193  31.886  11.385  17.571 -0.2062 -0.0949  0.2972
72141W        W15194  30.522  12.605  27.126 -0.1379 -0.3638 -0.0729
72142W        W15195  16.090  16.415  14.966 -0.2346  0.1110 -0.0756
72143W        W15196  23.836  12.219  27.164  0.2969  0.1375 -0.2414
72144W        W15197  32.328  11.954  16.676 -0.3059 -0.2053 -0.2084
72145W        W15198  19.798   5.816  29.101  0.1281  0.2251 -0.0551
72146W        W15199  21.585  21.184   2.669  0.1203  0.0058 -0.0462
72147W        W15200  21.385  29.517  18.422 -0.1047  0.0381 -0.1748
72148W        W15201  16.333   1.917   5.608 -0.2157  0.0560 -0.3417
72149W        W15202  14.929   6.400   8.263  0.0939 -0.1470  0.2763
72150W        W15203  17.576  18.702   4.480  0.0210  0.0942  0.0477
72151W        W15204  12.400  32.925  14.975  0.1837 -0.3580 -0.2308
72152W        W15205   7.112  11.639   3.629  0.0388 -0.0224 -0.1205
72153W        W15206  30.319   4.522  17.712  0.1074  0.4554 -0.1645
72154W        W15207  21.545   6.213  20.859  0.1332 -0.1451 -0.0319
72155W        W15208  28.480  18.964  22.445 -0.0631  0.0004 -0.1670
72156W        W15209  11.203  11.623  24.158  0.3796 -0.0010 -0.3538
72157W        W15210  16.627  18.024  27.442 -0.0441 -0.0630 -0.3704
72158W        W15211  27.289   0.511  18.143 -0.0452 -0.0034  0.2751
72159W        W15212  27.206  13.804   3.506 -0.1541  0.4567 -0.2577
72160W        W15213  13.041   5.136   5.043  0.1807  0.1094  0.0417
72161W        W15214   3.794   7.180  22.075  0.3779  0.0652 -0.1309
72162W        W15215   0.187   2.693  28.938  0.2018 -0.3004  0.2937
72163W        W15216   5.861  15.613  14.828  0.2136 -0.0267 -0.0313
72164W        W15217   5.299  29.698  22.751 -0.0296  0.1002 -0.1108
72165W        W15218  23.155  15.231  20.408 -0.2026 -0.0257 -0.1087
72166W        W15219   7.216  19.812  16.109  0.0530  0.2170 -0.2180
72167W        W15220   9.676   4.004  19.405  0.1229  0.0230  0.0414
72168W        W15221  26.404   0.244  23.303 -0.4987 -0.1551  0.0545
72169W        W15222   8.527   6.286  24.214 -0.0809 -0.0363  0.0417
72170W        W15223  28.639  25.967  25.562  0.1505 -0.4700 -0.0392
72171W        W15224  12.739  18.469  24.919 -0.0986  0.0174  0.0508
72172W        W15225   0.036   5.806   5.280  0.3273 -0.1629  0.1931
72173W        W15226  12.795  21.151  24.773  0.2070  0.0377 -0.1171
72174W        W15227  10.513  22.811   0.926 -0.2880 -0.0534  0.2066
72175W        W15228   8.654  12.461  23.114 -0.1619  0.1013  0.1686
72176W        W15229  32.952  32.513  22.100 -0.1818  0.0971 -0.2030
72177W        W15230   9.037  10.695   7.692  0.0168  0.0590  0.0336
72178W        W15231   6.314  31.429  15.967 -0.0930  0.1365 -0.3906
72179W        W15232  16.709   8.061   7.961  0.3600  0.0005 -0.5096
72180W        W15233  14.264  18.269   5.073 -0.1999 -0.3291 -0.0274
72181W        W15234  22.006  31.544  29.159  0.2173  0.1718 -0.1029
72182W        W15235  22.961   0.412   6.192  0.0913 -0.0435 -0.1279
72183W        W15236  24.780  17.076  27.131 -0.0730 -0.0878  0.0570
72184W        W15237   1.346  16.074  18.840 -0.2904 -0.4167  0.0055
72185W        W15238  23.010   5.178  24.522 -0.0576 -0.1225 -0.2631
72186W        W15239   1.638   4.731  21.495  0.0051  0.0338  0.0355
72187W        W15240  31.466   6.710  20.277 -0.2604  0.1026 -0.2642
72188W        W15241  26.829   6.686  24.322  0.0346 -0.1966 -0.0347
72189W        W15242  26.939  11.482  24.428 -0.1425  0.0126  0.1283
72190W        W15243   6.913  10.567  17.495  0.5324  0.2453 -0.0716
72191W        W15244  12.300  12.535  28.992  0.0683 -0.0294 -0.1560
72192W        W15245   1.583  20.441   2.123  0.2683 -0.0216 -0.0278
72193W        W15246  28.196  33.281  21.454 -0.0896 -0.1850 -0.1291
72194W        W15247   7.009  13.687  16.073 -0.1120 -0.1958 -0.3594
72195W        W15248  22.710  13.935   5.079  0.1193 -0.0361 -0.2338
72196W        W15249   2.874   3.951  17.451  0.0809  0.0168  0.0623
72197W        W15250  14.932  10.332  20.516 -0.2292 -0.1843  0.0913
72198W        W15251  29.962  17.813  27.904  0.1766 -0.0947 -0.0941
72199W        W15252  22.114   0.759   2.791  0.0617  0.1087 -0.1501
72200W        W15253  22.785  28.811  15.721 -0.0734  0.0988 -0.3697
72201W        W15254   3.125  13.859   9.535 -0.0348 -0.0542 -0.0614
72202W        W15255  14.538   8.463  24.365  0.0904  0.2982  0.0681
72203W        W15256   5.477   7.579   3.914  0.1639 -0.2391  0.1470
72204W        W15257   6.103  26.615  25.977  0.1984 -0.1604  0.2937
72205W        W15258  18.385   4.222  26.094  0.0954  0.0795  0.0328
72206W        W15259  28.295   5.780   8.275 -0.0754  0.0702 -0.1865
72207W        W15260  27.092  29.415   7.761 -0.2166 -0.1389 -0.2618
72208W        W15261  20.421  28.311  28.747  0.0178 -0.2211 -0.3398
72209W        W15262  17.190  12.468  20.809  0.4201 -0.1778 -0.0037
72210W        W15263   9.604   8.156   5.424 -0.0728 -0.0994  0.4341
72211W        W15264  18.399  34.527  23.321 -0.0499  0.1110  0.0108
72212W        W15265  17.900  14.922  22.185  0.2671 -0.3118 -0.0999
72213W        W15266  15.197  16.638  14.568  0.2005 -0.0218 -0.1694
72214W        W15267  24.696  22.153   0.398 -0.3885 -0.0422  0.2035
72215W        W15268  25.092  19.599  15.973  0.3420  0.0483  0.0116
72216W        W15269  17.549   7.465  26.135  0.3843 -0.3460  0.3812
72217W        W15270  33.939  17.295   4.519  0.5097  0.2549 -0.0115
72218W        W15271   8.757   4.568  23.819 -0.0773  0.0129 -0.0637
72219W        W15272   6.433  30.398   0.693  0.0625  0.2654  0.2587
72220W        W15273  18.089   0.266  26.719 -0.0341  0.1467  0.0555
72221W        W15274  16.929  28.237   6.081  0.0084  0.3239  0.3547
72222W        W15275  29.182   0.311  14.139 -0.2825  0.0381  0.0179
72223W        W15276  17.775   7.311  16.991  0.0861 -0.0842  0.1463
72224W        W15277  23.884  20.403  23.547 -0.0933  0.2631 -0.3391
72225W        W15278  20.618  16.168   5.484  0.1285  0.0962 -0.1353
72226W        W15279  16.521  15.569  25.377 -0.1981  0.0331 -0.0763
72227W        W15280  13.799   0.152  27.536  0.0743  0.0986 -0.0481
72228W        W15281   6.989  22.720  27.738  0.2226 -0.0624  0.1257
72229W        W15282   8.193   8.074   1.420  0.1160 -0.0312 -0.0732
72230W        W15283   8.408  17.477  26.912 -0.1197 -0.1583 -0.0207
72231W        W15284   4.486   9.917  28.201  0.1568 -0.0864  0.1617
72232W        W15285  15.099   2.168   5.421  0.2236 -0.1769 -0.1283
72233W        W15286  21.703   7.972  20.625 -0.0113  0.0694  0.2353
72234W        W15287  14.054  30.884   1.871  0.0142  0.0239  0.0346
72235W        W15288  32.623   8.916  20.874  0.0312  0.0523 -0.1780
72236W        W15289  15.349   0.962  23.518  0.0427  0.0536 -0.1007
72237W        W15290  24.666   6.190  24.827  0.0071  0.1434  0.4268
72238W        W15291   7.082  14.637  20.264  0.2076 -0.0709 -0.4028
72239W        W15292  22.558  34.369  26.023 -0.0564 -0.0532 -0.1727
72240W        W15293  20.156  21.185  19.616  0.0053  0.3295 -0.0967
72241W        W15294  22.499   9.226  27.457 -0.0810  0.0914  0.0780
72242W        W15295  22.210  14.406   0.953 -0.6018 -0.3408  0.0987
72243W        W15296  15.473   6.187  10.472 -0.0796 -0.0636  0.2453
72244W        W15297  13.023   2.569  26.857  0.1176 -0.3216  0.0487
72245W        W15298   9.788   2.685  15.213 -0.2349  0.2459  0.1209
72246W        W15299   8.746   9.042  24.768 -0.0832  0.0005  0.1148
72247W        W15300  31.871  12.426  21.257  0.0697  0.2634 -0.1383
72248W        W15301  20.847   9.055  15.278 -0.2508  0.2453  0.4286
72249W        W15302  22.273  14.274   0.150 -0.2761  0.3420  0.0276
72250W        W15303  23.654  27.354  17.754  0.3722 -0.2945  0.0377
72251W        W15304  22.292   6.672  27.663 -0.1046 -0.2481 -0.2735
72252W        W15305  11.313  20.236  23.295  0.1008 -0.1333 -0.1018
72253W        W15306  14.810   8.830   9.605 -0.2552  0.1236 -0.1468
72254W        W15307  23.490   8.942   4.768  0.0745 -0.0064 -0.2713
72255W        W15308  10.786   3.776  27.401 -0.0136  0.4296  0.1381
72256W        W15309   6.024  24.701  17.173 -0.1089 -0.0661 -0.0368
72257W        W15310  15.169  27.361  26.599  0.1929 -0.1828  0.1428
72258W        W15311  18.165  13.617  25.849 -0.0366  0.4105 -0.0764
72259W        W15312  13.075   3.714   1.140  0.0625 -0.0616 -0.0315
72260W        W15313  22.275  27.296   4.179  0.3317  0.0156 -0.0915
72261W        W15314  16.579  26.944   2.247  0.1150 -0.2459 -0.1242
72262W        W15315  14.516  15.130  24.975  0.0486  0.0311 -0.0839
72263W        W15316  17.605  18.346  23.458 -0.0805 -0.1005 -0.0812
72264W        W15317  24.830   8.360  25.603  0.2450  0.0687 -0.2194
72265W        W15318  17.298   2.987  24.503  0.2135  0.3840  0.0983
72266W        W15319  16.536  30.558  22.127 -0.1768  0.0628 -0.0946
72267W        W15320  13.003   1.734   1.084 -0.2555  0.2396 -0.0441
72268W        W15321   2.270  14.853   0.591  0.1284  0.0031  0.0834
72269W        W15322  21.302  26.452   5.385 -0.1332 -0.1554 -0.0380
72270W        W15323  25.406   9.526  15.234  0.2017 -0.0066  0.2866
72271W        W15324  17.846  21.930  17.738  0.5166  0.1025 -0.1556
72272W        W15325   4.687   6.859  17.648 -0.0514  0.0058  0.0183
72273W        W15326   8.182  15.357   8.003  0.0481 -0.1306  0.0442
72274W        W15327   0.684   8.291   5.453 -0.0079  0.3416 -0.0568
72275W        W15328  31.928   0.926   1.873  0.2290 -0.2117 -0.1573
72276W        W15329   3.667   1.561  23.504  0.3466 -0.4846  0.1088
72277W        W15330   9.374  30.946   4.064 -0.0527 -0.0508 -0.3146
72278W        W15331  20.724  15.450  20.894  0.1454 -0.1227  0.1506
72279W        W15332  16.260  22.028  27.288  0.1815 -0.0625 -0.0075
72280W        W15333  23.618  24.671  15.422  0.0574 -0.0986  0.1829
72281W        W15334  27.716  27.420   1.533  0.1969 -0.0068 -0.1285
72282W        W15335   3.140  23.683   0.794  0.1947  0.1291  0.1393
72283W        W15336  31.341  19.201  15.937 -0.0355  0.0629 -0.0596
72284W        W15337   8.397  28.698  22.737  0.1800 -0.0204  0.0934
72285W        W15338  14.426  34.305  25.988  0.0118 -0.0217 -0.1991
72286W        W15339  23.340   2.363   7.974 -0.1184 -0.2405  0.0871
72287W        W15340  28.153  11.151  15.942  0.0220 -0.1336  0.0240
72288W        W15341   3.558  32.333  19.637 -0.1622  0.3345 -0.2047
72289W        W15342   6.717   5.403  24.733 -0.3768  0.3267 -0.0549
72290W        W15343  19.120   9.365  24.927  0.2075 -0.2018  0.1242
72291W        W15344   3.891   5.799   1.893  0.1573  0.1057 -0.0530
72292W        W15345  27.991  30.612  24.288 -0.1007 -0.0319  0.0104
72293W        W15346  22.451   8.296  21.803 -0.1373  0.1357 -0.0419
72294W        W15347  23.618  16.072  19.979 -0.3218  0.1790  0.1432
72295W        W15348  12.354   3.984   8.206 -0.0186  0.1932  0.3627
72296W        W15349   1.646   4.994  18.085 -0.0265 -0.1973 -0.1191
72297W        W15350   3.241   8.271   5.279 -0.0456  0.1538  0.0817
72298W        W15351  16.256   8.736  21.896  0.1245 -0.0924 -0.2998
72299W        W15352  27.469   0.963  25.365 -0.2364  0.1246 -0.2925
72300W        W15353  22.364  16.713  18.806 -0.2575  0.0868 -0.2306
72301W        W15354  10.647  32.164  26.863 -0.0467  0.1447  0.0195
72302W        W15355  19.808  12.853  28.649  0.1913  0.0559  0.2389
72303W        W15356  13.130  10.736  25.801  0.0008  0.0401  0.3269
72304W        W15357  11.873  15.489   4.328 -0.0451  0.1696 -0.1558
72305W        W15358   2.587  15.258  16.832  0.1878 -0.0374  0.1083
72306W        W15359  14.400  12.200   5.427  0.1446  0.1570 -0.1278
72307W        W15360   7.032  33.389  20.420  0.1126 -0.2166 -0.0310
72308W        W15361   2.558  13.216   5.999 -0.1976  0.1561  0.0331
72309W        W15362  19.896  20.558  28.708  0.1568 -0.0111  0.0048
72310W        W15363  25.000  34.310   4.088  0.1615 -0.0242  0.2453
72311W        W15364  29.460  20.696  23.849  0.1558  0.0386  0.2321
72312W        W15365   8.822   8.732   2.080 -0.0031  0.1072 -0.3253
72313W        W15366  11.593  13.415  20.936 -0.4138  0.1344 -0.1828
72314W        W15367  12.297   7.658  24.078 -0.1598  0.2440  0.0596
72315W        W15368  29.964   6.261   7.465 -0.2103 -0.0461 -0.1035
72316W        W15369  21.285  10.712  26.933 -0.1023 -0.1986  0.0708
72317W        W15370  22.858   9.872  26.977 -0.1687 -0.0936  0.2326
72318W        W15371  16.355  33.994  26.449  0.2861  0.0586 -0.2037
72319W        W15372   6.030  14.697  20.979 -0.1884  0.3979  0.2468
72320W        W15373   8.143   6.834   1.902  0.2041 -0.0012 -0.4549
72321W        W15374   3.340   6.489  21.501  0.0844  0.0635  0.0250
72322W        W15375  20.053  16.109  27.242  0.1157  0.1940 -0.0313
72323W        W15376  19.428  11.164  22.605 -0.0812 -0.3993 -0.2233
72324W        W15377   4.598  30.055  20.864 -0.3146 -0.3493 -0.1495
72325W        W15378   1.795  32.553   6.519  0.0315  0.0069  0.1986
72326W        W15379  14.120   8.815   5.921 -0.0433  0.1451  0.1921
72327W        W15380  22.006  29.174   2.606 -0.0973  0.1890  0.2384
72328W        W15381  12.780  21.028   2.528 -0.2463  0.1019 -0.2021
72329W        W15382   3.920  13.742  26.393 -0.1571 -0.3467  0.0245
72330W        W15383  25.477   5.791  22.149 -0.1655  0.0085 -0.0744
72331W        W15384  24.580   3.063   1.146  0.0488  0.1929 -0.1548
72332W        W15385  15.496  14.917  22.544 -0.0495  0.1995  0.1585
72333W        W15386  34.413  20.721  16.654 -0.2101 -0.0590  0.1947
72334W        W15387  13.264  14.356   1.152  0.1751 -0.1356  0.2513
72335W        W15388  33.327  31.742  27.474  0.2878  0.0051 -0.0974
72336W        W15389   2.879  25.108   1.951  0.0177  0.3769  0.2675
72337W        W15390  25.557  16.013   0.814 -0.0420  0.0514  0.0645
72338W        W15391   9.894  15.233   0.668  0.4165 -0.0432  0.1325
72339W        W15392  21.247  12.715  24.907 -0.0639 -0.1978  0.2100
72340W        W15393  12.301  17.867  13.576 -0.3744  0.0818  0.2561
72341W        W15394  16.809  24.595  10.502  0.3155 -0.2065  0.0861
72342W        W15395  18.688   8.865   2.073 -0.2300 -0.1798 -0.2780
72343W        W15396   9.871   8.920  24.011 -0.0389  0.1316 -0.2064
72344W        W15397  29.897   4.309  28.352  0.2160 -0.2533 -0.0611
72345W        W15398  10.325   5.163  24.540 -0.1186  0.1564  0.1508
72346W        W15399  12.046  17.576  18.866  0.0344 -0.0483 -0.0033
72347W        W15400  33.495  10.593  21.962 -0.1916 -0.0779  0.0116
72348W        W15401  21.322  16.716  25.536  0.2954 -0.3730 -0.2172
72349W        W15402  33.515   2.353   9.263 -0.1299 -0.3241  0.1411
72350W        W15403   9.325  21.111  27.623 -0.0310 -0.1380  0.1814
72351W        W15404  10.939   9.424  28.262 -0.0006 -0.2291 -0.1883
72352W        W15405   2.136   6.773   0.007  0.1373 -0.0389 -0.1223
72353W        W15406  27.868   3.286  14.257  0.0714  0.3129 -0.2046
72354W        W15407  33.864   3.065  26.184  0.0869 -0.1041 -0.0545
72355W        W15408   8.899   6.190  26.545  0.2025 -0.0267  0.1166
72356W        W15409  12.498  31.485  17.350 -0.0239 -0.0795 -0.0811
72357W        W15410  24.383   4.443  25.409 -0.4949  0.0146  0.0186
72358W        W15411  29.406   4.586  14.263  0.0351  0.2504  0.2104
72359W        W15412   5.432  24.052  21.763 -0.3193 -0.0386  0.0354
72360W        W15413   6.528  34.176  13.883 -0.0105 -0.1868 -0.1929
72361W        W15414  19.771  18.506   2.585  0.2068 -0.0291 -0.1144
72362W        W15415  25.327  13.869  14.792  0.0186  0.2192 -0.7422
72363W        W15416  21.704  34.469  18.110  0.0581  0.2649  0.3170
72364W        W15417  26.339   0.980   7.700 -0.0952 -0.2642 -0.0918
72365W        W15418   8.225  24.708  20.220 -0.1743  0.2830 -0.2238
72366W        W15419  30.029   6.635  27.439 -0.4781  0.0884 -0.1743
72367W        W15420   8.938  13.435  26.253  0.0063  0.1177  0.4047
72368W        W15421   9.483   0.086  27.297  0.4736  0.0090  0.0870
72369W        W15422  33.939  15.506  16.995 -0.1999 -0.3268  0.1247
72370W        W15423  32.459  28.449  17.717 -0.0171 -0.1504 -0.0211
72371W        W15424  14.562  14.278   1.397 -0.0096  0.1880  0.0218
72372W        W15425  26.642  28.293  16.912  0.1817  0.0746  0.0724
72373W        W15426  32.753   5.421  17.001  0.0623  0.0053 -0.1123
72374W        W15427  13.779   3.397  28.222 -0.0761  0.1138  0.4666
72375W        W15428  15.520  16.137  15.646 -0.0485 -0.0353  0.1375
72376W        W15429  23.595  15.517  13.366 -0.2487 -0.0807 -0.1592
72377W        W15430  16.255   2.054  21.071  0.0797  0.0278  0.2376
72378W        W15431  16.204  33.615  21.064 -0.0422 -0.5554  0.2651
72379W        W15432  25.267  27.048   7.996  0.1171  0.1121 -0.1215
72380W        W15433  12.898   0.665  27.644 -0.2137 -0.2670  0.0587
72381W        W15434  33.764   8.602  15.238  0.1357  0.2757 -0.0186
72382W        W15435  33.397  18.134  24.389 -0.0557 -0.1019  0.1182
72383W        W15436  28.776   4.257  22.440  0.0127  0.2321 -0.2300
72384W        W15437  26.158   8.319  20.771  0.0278 -0.0448  0.0498
72385W        W15438  28.101   7.307  19.905 -0.1293 -0.1031  0.0931
72386W        W15439  21.837   8.599  28.862  0.2499  0.4302  0.0277
72387W        W15440  16.926   7.120  28.244 -0.0512  0.0733  0.0892
72388W        W15441  18.333  12.333  17.486 -0.4546  0.0233  0.1552
72389W        W15442  22.505   7.696  29.187 -0.3336 -0.1299  0.2257
72390W        W15443  21.378  34.048  28.854 -0.0714 -0.1849  0.2502
72391W        W15444  26.442  22.862  15.105 -0.0188  0.0640  0.1807
72392W        W15445  30.307  21.329  17.944  0.2972  0.1590 -0.1238
72393W        W15446  12.414   8.329  25.876 -0.0484 -0.1403  0.2396
72394W        W15447  18.706  20.974   9.340 -0.1813  0.0032  0.2801
72395W        W15448  25.556   9.079  20.530  0.1056  0.2448 -0.1470
72396W        W15449   7.655   1.786  19.644  0.0534  0.2565 -0.0113
72397W        W15450   3.620  31.913  18.103 -0.1469 -0.0207 -0.1251
72398W        W15451   3.684  16.160   9.971  0.0483  0.2073  0.0728
72399W        W15452  25.488  16.312  25.659 -0.2205 -0.1343 -0.0128
72400W        W15453  16.565   9.757  15.585  0.0980 -0.0684 -0.1568
72401W        W15454  10.354   6.167   5.376  0.0524 -0.1014  0.1265
72402W        W15455  28.685  16.510  24.349 -0.3141 -0.2907 -0.0562
72403W        W15456   9.463  33.181   1.898 -0.1880 -0.0998 -0.2450
72404W        W15457  16.660  34.315   3.824 -0.1073 -0.1048  0.1471
72405W        W15458   8.817  13.699   2.054  0.1071  0.1116 -0.1026
72406W        W15459  32.637  10.833  28.515  0.0379  0.0119  0.0461
72407W        W15460  27.225   0.435   8.706 -0.2585  0.1185 -0.1761
72408W        W15461  17.730   7.306   0.354  0.1518 -0.2793  0.0393
72409W        W15462  16.370  11.078   3.630 -0.3168 -0.2299 -0.2921
72410W        W15463  16.307   4.901  16.856 -0.1729  0.2852 -0.2046
72411W        W15464  23.900  31.826   8.076 -0.1977  0.0524 -0.2269
72412W        W15465  18.036  17.527  22.759  0.2174 -0.0298 -0.0311
72413W        W15466  33.125   9.960   1.337 -0.2950 -0.1248 -0.1017
72414W        W15467  11.529  12.758   6.507 -0.0959 -0.3657  0.0028
72415W        W15468  11.977  11.433  17.216 -0.0523 -0.0055 -0.0249
72416W        W15469   5.863  11.949  19.302 -0.0826 -0.2664  0.0633
72417W        W15470  16.568  34.449  27.241 -0.1978 -0.0467  0.0525
72418W        W15471   3.199   5.322  25.460 -0.0181  0.0586  0.2511
72419W        W15472   3.969   0.274  13.536  0.0790  0.0829  0.0537
72420W        W15473   8.362  18.342  21.259 -0.0996  0.1235 -0.0392
72421W        W15474  20.062   8.829  15.798  0.4114 -0.0927  0.1652
72422W        W15475   9.515  15.516  18.950  0.0274  0.0187 -0.0669
72423W        W15476   5.668   7.264  28.488 -0.0866 -0.0989 -0.1613
72424W        W15477  14.131  22.992   0.149 -0.4004  0.0379  0.1385
72425W        W15478   4.927  11.417   4.580  0.1812 -0.1512 -0.1528
72426W        W15479   9.795  15.158  21.649  0.2725 -0.1312  0.2552
72427W        W15480  14.194  11.961   2.004 -0.3644  0.2744 -0.1187
72428W        W15481  17.935  14.503  24.667  0.0411  0.0047  0.0729
72429W        W15482  11.086  15.235   9.447  0.3098  0.1474 -0.2068
72430W        W15483  18.782  17.620   0.161 -0.0383  0.1366  0.0118
72431W        W15484   6.260  11.255   3.997 -0.0379 -0.2514  0.0039
72432W        W15485  22.923   6.066  20.533  0.1166  0.0630  0.3433
72433W        W15486   8.382   8.490   7.567 -0.2554 -0.0662 -0.2719
72434W        W15487   8.699   8.580  23.101  0.0855 -0.2154 -0.3042
72435W        W15488  22.259   9.067  21.325  0.2082 -0.1713 -0.1040
72436W        W15489   4.190  17.788   6.942  0.0813  0.0352  0.1420
72437W        W15490  24.167   9.019  20.468  0.0259 -0.1303 -0.1051
72438W        W15491  19.193  28.081   8.226 -0.0146  0.0811  0.0476
72439W        W15492  14.022  13.167   3.727  0.2444 -0.0525 -0.1832
72440W        W15493  20.368  33.145  27.053  0.2522  0.1286  0.2292
72441W        W15494   5.385  12.668  18.825  0.1631  0.0031  0.0810
72442W        W15495  16.897  22.192   6.794  0.2347 -0.3083 -0.1196
72443W        W15496  21.488   4.902  20.400  0.0652 -0.1584 -0.0160
72444W        W15497  34.411   0.259   2.768 -0.0518  0.3689  0.0936
72445W        W15498  23.732   8.813   3.512  0.0026  0.3436 -0.0808
72446W        W15499  16.124   4.274   4.585 -0.1369  0.0464  0.0996
72447W        W15500  23.268   0.017   1.702  0.1418  0.2168 -0.1143
72448W        W15501  19.113   7.016   9.023 -0.0960 -0.2865  0.1020
72449W        W15502  11.001  21.895   5.264  0.3581  0.0729  0.1424
72450W        W15503  25.892  22.723   6.298  0.0679  0.3115  0.1555
72451W        W15504  31.329  21.336  16.413 -0.3533 -0.0924  0.1913
72452W        W15505  14.787  14.750  15.056 -0.1317 -0.2122 -0.0146
72453W        W15506  28.134   3.484   5.071 -0.1191  0.1553  0.2399
72454W        W15507  31.820   4.746   5.165  0.0246 -0.0952 -0.0439
72455W        W15508  21.078  23.269  27.667 -0.1946 -0.0936  0.3106
72456W        W15509  10.844   9.589  22.803 -0.1806 -0.1018  0.0800
72457W        W15510   2.364   6.507  14.831 -0.0786 -0.0298 -0.0998
72458W        W15511  20.403   9.164  17.683  0.2218  0.1100  0.0431
72459W        W15512  10.407  11.825   6.236 -0.1718  0.0501  0.2047
72460W        W15513  31.840   3.067   3.814  0.2854 -0.1571 -0.0173
72461W        W15514  16.978   9.715  23.931  0.2497  0.0495 -0.0765
72462W        W15515  27.342  13.006  27.451  0.0335 -0.0321  0.0194
72463W        W15516  12.424  22.666  15.562 -0.1059 -0.0138  0.2306
72464W        W15517  11.422   0.202   2.393 -0.1219  0.0358 -0.2525
72465W        W15518  26.876  20.315  25.036 -0.0148 -0.0278  0.0358
72466W        W15519  17.364  34.423  18.415  0.1553 -0.4142  0.2100
72467W        W15520   8.736   5.982  10.190 -0.1329  0.2149 -0.0189
72468W        W15521   3.519  13.855  25.431  0.1465 -0.0106  0.4016
72469W        W15522  12.083   4.421  23.533  0.0228 -0.2097 -0.0494
72470W        W15523  20.211  28.819  20.421 -0.0900 -0.0726 -0.0970
72471W        W15524   3.615   3.217  27.436  0.1704  0.1007  0.0527
72472W        W15525  21.495   6.308  24.176  0.0553  0.0058 -0.0406
72473W        W15526  29.154  34.652  26.984 -0.1661 -0.3308  0.0105
72474W        W15527  16.014   6.830   5.075  0.1708 -0.0569  0.0663
72475W        W15528  29.207   7.799  23.955 -0.1528 -0.1588 -0.0601
72476W        W15529  23.242  34.035   9.709  0.0814 -0.1614  0.1355
72477W        W15530  21.847  17.868  17.262 -0.0487  0.1573 -0.1881
72478W        W15531  34.558  30.853  17.181 -0.0065  0.2227  0.3901
72479W        W15532  17.248  21.945  16.091  0.2033 -0.1760 -0.0958
72480W        W15533   2.434  34.492   7.718  0.0073  0.1474  0.4311
72481W        W15534  22.185  18.278  24.814  0.1199  0.1044  0.0707
72482W        W15535  31.475  31.608  18.357  0.0260  0.2404  0.0297
72483W        W15536   5.357   5.303  23.726 -0.2881  0.1944 -0.0972
72484W        W15537  17.264   4.245   2.748 -0.0850  0.3016  0.0671
72485W        W15538   3.565   9.945  15.329  0.0091 -0.1161  0.0663
72486W        W15539  31.535  25.650  26.353 -0.1169 -0.1769 -0.0086
72487W        W15540   4.788  11.403   8.579 -0.0086  0.0089  0.0178
72488W        W15541   4.818  11.936   7.109 -0.1622 -0.0093  0.1565
72489W        W15542   1.652  18.999   8.270  0.1244 -0.0447 -0.1074
72490W        W15543  15.939  32.737  28.724 -0.2061 -0.2289  0.1298
72491W        W15544  13.706  10.667   5.388  0.0742 -0.0905  0.1726
72492W        W15545  22.385   6.082  15.630 -0.0537 -0.3068 -0.1849
72493W        W15546  29.703   5.095   5.271 -0.0949 -0.0682  0.0796
72494W        W15547  14.480  30.670  28.500 -0.3230 -0.1033 -0.0457
72495W        W15548   0.969  12.819  19.868  0.1514  0.2221 -0.2803
72496W        W15549  34.021   7.302  23.103  0.0615  0.5090 -0.1539
72497W        W15550   3.355  20.527   2.494  0.0027 -0.1920 -0.2918
72498W        W15551  16.124  13.429  27.809 -0.1763  0.2014 -0.2101
72499W        W15552  17.942   4.307  16.316  0.2176 -0.0362 -0.1790
72500W        W15553   6.218  15.378  18.823 -0.2722 -0.0680 -0.2183
72501W        W15554   9.440  17.005   0.293 -0.0449  0.0409 -0.0668
72502W        W15555  12.064  12.502   2.259  0.3018  0.0156 -0.1415
72503W        W15556  15.222  34.310   5.254 -0.0365 -0.1260  0.2397
72504W        W15557   9.638  33.860  26.379 -0.1698 -0.0813  0.1351
72505W        W15558  27.802  32.797   8.660  0.0149  0.3951  0.0803
72506W        W15559  24.081   0.738  18.287  0.0229  0.0470 -0.2581
72507W        W15560   3.454  31.355   3.797  0.0770 -0.0707 -0.0525
72508W        W15561  12.788   3.629   9.339  0.3753 -0.0118 -0.0299
72509W        W15562  14.348  15.483  15.472  0.0981 -0.3492  0.0813
72510W        W15563  25.006   2.250   6.230  0.0443 -0.1650  0.3547
72511W        W15564  25.929  32.134  27.899  0.5438  0.1316 -0.1554
72512W        W15565  23.501   8.535  28.543 -0.3387 -0.1097  0.0069
72513W        W15566  31.571  11.189   3.434 -0.2256  0.0462  0.2231
72514W        W15567  20.526  13.115  24.427  0.1701  0.0144 -0.0219
72515W        W15568  28.677   7.202   7.159  0.2445 -0.0851  0.1655
72516W        W15569   9.329   8.342   0.570 -0.0316 -0.1069  0.1326
72517W        W15570  26.353  10.696   7.368  0.1472 -0.2238 -0.0638
72518W        W15571   8.799   2.750   3.016 -0.0023  0.0777 -0.0668
72519W        W15572  14.397  10.880  28.647 -0.0737  0.2181  0.2145
72520W        W15573   5.782  13.982   3.963 -0.1749 -0.2225  0.0127
72521W        W15574  20.219   1.925   4.798 -0.0287  0.2668  0.2005
72522W        W15575   3.559   3.363   1.200 -0.0549  0.0267  0.1198
72523W        W15576  10.833   5.284  25.722  0.0311 -0.0334  0.1466
72524W        W15577  10.894  12.951   5.296  0.1520 -0.0754  0.0740
72525W        W15578  28.908  29.362   3.927 -0.5095  0.1178  0.0757
72526W        W15579   7.893   6.811  15.974 -0.5149 -0.2008 -0.0908
72527W        W15580  22.099   9.013  18.598 -0.1637 -0.0563 -0.1434
72528W        W15581  30.422  15.941   2.700  0.0078  0.2466 -0.2530
72529W        W15582  17.045  12.902   6.624  0.3020  0.0371  0.0486
72530W        W15583  11.284  26.109   1.006 -0.0642  0.1864  0.1108
72531W        W15584  10.771  27.226  22.899  0.3700 -0.2781 -0.1588
72532W        W15585   5.577   1.156   3.042 -0.3122 -0.0029 -0.0642
72533W        W15586   9.051   9.631  26.871 -0.2566  0.3255 -0.0589
72534W        W15587   5.736  24.648  23.740  0.2167 -0.0572  0.1599
72535W        W15588  34.078  31.091  21.525 -0.1301 -0.0734 -0.1559
72536W        W15589  11.391  21.118   9.782  0.1017  0.1055  0.0967
72537W        W15590  33.920   8.667   5.957  0.1348 -0.0301  0.0285
72538W        W15591  12.091   5.554   4.821 -0.0525  0.1298  0.0684
72539W        W15592   0.780  15.886  27.379  0.2809 -0.1553  0.0516
72540W        W15593   5.959   4.147   7.542  0.1774  0.0958  0.4810
72541W        W15594  26.043  11.710  22.011 -0.1992  0.1092 -0.0420
72542W        W15595  26.187  15.112  17.920  0.2256  0.1444 -0.0904
72543W        W15596  19.772  11.041   9.016  0.0869  0.0888  0.2661
72544W        W15597  16.764  24.445  15.373  0.2123  0.2015  0.0556
72545W        W15598  17.551  22.885  17.290  0.4602  0.2304 -0.0725
72546W        W15599  31.422  23.006   0.532  0.1895  0.1766  0.0226
72547W        W15600  23.504  14.576  24.514  0.1941 -0.1564 -0.1358
72548W        W15601  30.777  15.484  17.414  0.0864  0.0497  0.2122
72549W        W15602   1.473  23.280  22.318 -0.2734 -0.0845  0.0425
72550W        W15603  13.405  26.454   4.162  0.1349 -0.1063 -0.0461
72551W        W15604  20.845   3.901  19.615 -0.2612 -0.0073 -0.3233
72552W        W15605  20.110   5.836  23.436 -0.4016  0.0014 -0.1091
72553W        W15606  11.121  10.863  20.144 -0.0680 -0.0401 -0.0970
72554W        W15607   7.955   6.930  27.412  0.1773  0.0971 -0.1057
72555W        W15608  20.021  11.888  22.137  0.2924  0.1807  0.2797
72556W        W15609  15.105  11.027  18.357 -0.1127  0.3609  0.2207
72557W        W15610   8.456   7.549  23.504  0.1903 -0.1508 -0.0269
72558W        W15611  26.353  23.915   0.266 -0.1226 -0.0560 -0.1194
72559W        W15612  30.656   1.953  22.435  0.0559  0.1823 -0.2747
72560W        W15613  17.632   8.749  14.746 -0.1131 -0.1116 -0.0869
72561W        W15614  12.562  27.499  14.104 -0.1548 -0.0423 -0.1677
72562W        W15615  18.073  10.566  19.783  0.0427 -0.3890 -0.0188
72563W        W15616  16.010   1.692  28.729  0.0215 -0.0049  0.1550
72564W        W15617   9.807  18.685  20.299  0.4498  0.0382 -0.3063
72565W        W15618  20.713   7.104  19.442 -0.1850 -0.0532  0.0919
72566W        W15619  18.598  10.389  16.211  0.4480 -0.0019  0.2664
72567W        W15620  14.490   6.432  17.885  0.3043 -0.0085  0.0744
72568W        W15621  10.565  14.347  17.513  0.2745  0.0712  0.2733
72569W        W15622  32.675  28.437  16.050 -0.0746  0.1909  0.1414
72570W        W15623  31.809  22.148  19.550 -0.0405 -0.0715  0.0433
72571W        W15624  18.686  31.775  13.977 -0.1142  0.0423  0.1035
72572W        W15625   5.123  10.277  25.048 -0.0127 -0.3961  0.1480
72573W        W15626  15.003  10.172  20.065 -0.2110 -0.5859 -0.1879
72574W        W15627  21.094  30.606  26.461  0.0781 -0.3802 -0.1281
72575W        W15628  10.814   2.564  26.809  0.1102 -0.2399 -0.0392
72576W        W15629  25.528  14.828  14.122  0.2639  0.1824  0.0566
72577W        W15630  33.926  18.331  18.336  0.1276  0.0583  0.0620
72578W        W15631   7.879  23.582  19.592 -0.1236  0.0651 -0.1163
72579W        W15632   4.855  17.722  16.271 -0.0977 -0.1597  0.0603
72580W        W15633  27.290   8.993  25.173 -0.0437  0.0890  0.2648
72581W        W15634  10.744  24.094  15.223 -0.0681 -0.0956 -0.0965
72582W        W15635  21.938  27.756  16.301 -0.2811  0.2525 -0.0159
72583W        W15636  10.760  18.890  26.173  0.2665 -0.0290 -0.0641
72584W        W15637  26.935  18.748   0.773  0.4408 -0.0879 -0.1147
72585W        W15638  16.567  15.149  15.489  0.0659 -0.1701  0.0616
72586W        W15639  17.427   6.292  16.291 -0.1646  0.1538 -0.0247
72587W        W15640  10.500  20.245  14.923  0.0426  0.0636 -0.2947
72588W        W15641  10.476  29.579  28.606 -0.1755 -0.0262 -0.4361
72589W        W15642  10.886  13.800  22.387  0.0254  0.4111 -0.0132
72590W        W15643   4.840  22.179  18.605  0.1893  0.0154 -0.5490
72591W        W15644   4.265  14.351  22.720 -0.3376  0.1578 -0.0309
72592W        W15645  22.809  30.049  14.511  0.0472 -0.0529  0.0735
72593W        W15646   2.869  15.006  22.816  0.1375 -0.1461 -0.1686
72594W        W15647  16.050   1.062  20.662  0.1110  0.2220  0.1893
72595W        W15648   3.202   4.791  21.584  0.1570  0.1700 -0.1356
72596W        W15649  15.781  28.342  19.982  0.4268 -0.0518  0.1567
72597W        W15650  20.703   5.828  20.930 -0.1606  0.0256 -0.0740
72598W        W15651   7.940  33.207   8.745 -0.1524  0.0685  0.1310
72599W        W15652  25.728  18.925  15.156  0.1608 -0.2256  0.1158
72600W        W15653  13.801  25.417  23.944 -0.2295 -0.0899  0.0276
72601W        W15654  17.371   7.960  21.917  0.0736  0.0258 -0.4117
72602W        W15655  33.226  11.899  17.291 -0.2690 -0.0719 -0.2037
72603W        W15656  14.277  10.054   3.384 -0.4758 -0.1011 -0.0198
72604W        W15657   4.178  17.901  16.686  0.4075 -0.0367  0.0450
72605W        W15658  11.063  18.849  14.820 -0.0780 -0.1431 -0.0548
72606W        W15659   7.174   5.648  27.448 -0.2055  0.2824 -0.0828
72607W        W15660   9.861  11.233  18.874 -0.0987 -0.2889 -0.1457
72608W        W15661  13.976  13.224  20.087 -0.1044 -0.2159 -0.0406
72609W        W15662  19.328  30.583   6.137 -0.0699 -0.0648  0.2932
72610W        W15663  12.837   5.580  17.630 -0.1072  0.1175 -0.0283
72611W        W15664   4.938  18.312  23.192  0.0187  0.0825  0.3949
72612W        W15665  14.968  19.086   0.045  0.3919 -0.3330  0.0653
72613W        W15666  26.146  28.612  17.926  0.0502 -0.0492 -0.0012
72614W        W15667  12.333  32.440  16.798 -0.1511 -0.0062 -0.0089
72615W        W15668  11.753  14.336  18.659  0.3045  0.1675  0.0431
72616W        W15669  22.198   8.708  20.465  0.1220 -0.2373  0.0296
72617W        W15670  18.029   8.423  24.795 -0.0713 -0.2448  0.1696
72618W        W15671  22.931   1.378  16.731 -0.2472  0.2445  0.2707
72619W        W15672  18.155   6.143  28.517 -0.0032 -0.0779 -0.1991
72620W        W15673  30.306  15.286   0.655  0.3336  0.2670 -0.3211
72621W        W15674  19.234  10.596  20.173  0.0621  0.1126  0.0143
72622W        W15675  13.917  25.143  24.793  0.1912  0.5216 -0.0976
72623W        W15676   7.874   9.397  25.014  0.0496  0.0387  0.3487
72624W        W15677  17.662  11.793  16.104 -0.0918 -0.0929 -0.1139
72625W        W15678  15.626  28.301  16.532  0.0527  0.1574  0.0988
72626W        W15679  16.442  28.819  26.159 -0.1652  0.0984 -0.0712
72627W        W15680  11.604   2.819  13.380  0.1450 -0.0047 -0.1840
72628W        W15681  11.919   7.031  19.908  0.0111  0.3569 -0.0938
72629W        W15682  18.111   3.490  23.009 -0.2332 -0.1283 -0.2756
72630W        W15683  24.637  13.391  19.055 -0.1627  0.3951 -0.0744
72631W        W15684  21.490  33.719  23.524 -0.0905  0.0384 -0.0468
72632W        W15685  26.963   4.147  23.389  0.1056  0.3768 -0.0673
72633W        W15686   0.680  31.582  17.726 -0.2597 -0.1565 -0.0236
72634W        W15687   2.490  17.266  29.179  0.0582  0.2037  0.0737
72635W        W15688  16.267   7.513  20.970  0.3617  0.0808 -0.0576
72636W        W15689  18.386  11.190  17.603 -0.0179  0.3568  0.1792
72637W        W15690  13.815  10.294   3.762 -0.1912  0.2098 -0.4005
72638W        W15691   5.435  20.357  14.461 -0.0148 -0.2714 -0.0623
72639W        W15692   9.849   4.058  16.267 -0.1262 -0.1241 -0.3349
72640W        W15693  20.642  22.112  16.985 -0.0060 -0.1942  0.1420
72641W        W15694   8.485  15.947   1.118 -0.0792  0.2822  0.4115
72642W        W15695  11.399  14.634  18.938  0.1439  0.0468 -0.0693
72643W        W15696  18.300   6.125  16.899  0.1604 -0.2802 -0.1600
72644W        W15697  10.274   4.077  24.171  0.2516 -0.0872  0.0970
72645W        W15698   4.766  29.801  22.133  0.0476 -0.1771  0.0660
72646W        W15699  29.461  24.816  13.879 -0.0543  0.1612  0.2956
72647W        W15700   5.153  15.030  16.759  0.2047  0.0339 -0.1461
72648W        W15701  31.391  24.514  25.586  0.3562 -0.1754  0.0051
72649W        W15702  21.577  14.180  18.060  0.0872  0.0757  0.0238
72650W        W15703   0.618  21.751  19.624 -0.0000 -0.0015 -0.2522
72651W        W15704  13.679  26.528  17.779 -0.2669 -0.0110  0.0130
72652W        W15705  18.350  26.349  24.632  0.0903 -0.0430 -0.1282
72653W        W15706   4.502  28.149   2.099 -0.0422  0.1248 -0.0987
72654W        W15707  17.787  29.241  25.345  0.3668 -0.0662 -0.1367
72655W        W15708  24.551   4.496  17.133  0.1555  0.1764 -0.0865
72656W        W15709  23.510  16.818  15.439 -0.0488  0.1194  0.0499
72657W        W15710  17.840  20.001  23.299  0.2570 -0.1941 -0.0459
72658W        W15711  17.109   5.320  17.323  0.1272  0.0579  0.0771
72659W        W15712  15.969   1.761  17.393  0.3911 -0.2925 -0.0144
72660W        W15713   2.800   7.282  17.358 -0.0246 -0.0308  0.3338
72661W        W15714  19.429   7.566  14.465 -0.2046  0.0909 -0.0449
72662W        W15715  10.497  24.456  20.852  0.1010  0.0758 -0.2526
72663W        W15716   9.013  16.022  20.283 -0.0963 -0.1452  0.0495
72664W        W15717  12.999   4.469  23.694 -0.0309  0.2492 -0.0287
72665W        W15718  13.466  26.426  16.430 -0.1072  0.2606 -0.2705
72666W        W15719  17.744  16.446  14.248  0.0351  0.0568 -0.1974
72667W        W15720  12.224  32.422   2.078 -0.3863 -0.2241 -0.0733
72668W        W15721   9.293  32.630  15.579  0.1407 -0.1641  0.0278
72669W        W15722  11.792  14.722  18.066 -0.0118  0.0528  0.2873
72670W        W15723  13.307  21.707  18.058  0.3135  0.1859  0.1039
72671W        W15724  23.435   4.842  18.608  0.0244 -0.2524  0.1755
72672W        W15725  15.852   6.643  25.917  0.1782 -0.0150 -0.0146
72673W        W15726   7.955  29.057  18.824  0.2051 -0.1868 -0.2025
72674W        W15727  24.605  15.457  25.122  0.1567 -0.0547  0.1468
72675W        W15728  22.731  25.806  18.800  0.0921 -0.3342  0.3426
72676W        W15729   9.865  12.190  21.151 -0.1813  0.0277  0.0516
72677W        W15730  20.538  12.202  14.703 -0.2581 -0.3776  0.1179
72678W        W15731  17.287  10.496  15.204 -0.0577 -0.2564 -0.0353
72679W        W15732  12.224  16.431  16.181  0.0731  0.0816  0.0403
72680W        W15733  12.051  14.938  16.713  0.0740 -0.0022  0.1049
72681W        W15734  25.952  12.966  15.676 -0.4708 -0.1332  0.0289
72682W        W15735  18.209   1.245  21.493  0.3583  0.1052 -0.5387
72683W        W15736  25.074  32.578  28.265 -0.1436  0.1756 -0.2301
72684W        W15737  11.834  20.416  15.383 -0.1222 -0.2283  0.2143
72685W        W15738  21.331  21.997  22.607 -0.1198 -0.0685  0.1283
72686W        W15739  15.957  20.227  22.614  0.0001 -0.0302 -0.2342
72687W        W15740  14.997   0.550  22.457 -0.0806 -0.1949 -0.1173
72688W        W15741  24.668   9.212  15.909  0.0164 -0.1278  0.0751
72689W        W15742  21.070   9.211  14.079 -0.5074 -0.1812  0.3150
72690W        W15743   2.561  25.430  16.555 -0.1324 -0.2735 -0.1006
72691W        W15744   7.062   8.745  20.137  0.0450  0.3317 -0.1727
72692W        W15745  34.570   8.750  16.780 -0.4414  0.0405  0.3473
72693W        W15746  25.985  21.407  13.868 -0.0495  0.0357 -0.1737
72694W        W15747  15.212  10.219  18.182  0.3130  0.0652  0.0248
72695W        W15748  23.561  15.424  25.564  0.2334  0.2184 -0.2676
72696W        W15749  14.912   5.594  21.774 -0.1811  0.0348  0.1449
72697W        W15750  18.365  12.031  24.603  0.1450  0.0687 -0.2527
72698W        W15751  23.963   2.368  18.429  0.0542  0.0142  0.1724
72699W        W15752   3.458  14.764  22.526 -0.0660 -0.0542 -0.1514
72700W        W15753  30.732  20.502   0.277  0.3884  0.0544 -0.2527
72701W        W15754   8.974  12.473  26.157  0.0360  0.1314  0.1363
72702W        W15755   2.439  32.452  16.523  0.0571 -0.4310 -0.2759
72703W        W15756  13.119   7.832  20.866 -0.0518 -0.0626  0.0927
72704W        W15757  13.033  22.864  16.573  0.2259  0.1808 -0.1241
72705W        W15758   7.081  22.600  15.874  0.1836 -0.0874  0.0833
72706W        W15759  32.062  13.508   6.982  0.4240  0.1077 -0.1081
72707W        W15760  16.604  10.160  25.704  0.0236  0.0238 -0.2990
72708W        W15761  17.535   4.550  16.119  0.2847  0.3714 -0.0982
72709W        W15762   2.501  24.876  20.376 -0.0728 -0.2019  0.1409
72710W        W15763  20.619  33.592  22.260 -0.1072  0.2669 -0.3044
72711W        W15764  11.578  10.929  20.977  0.1571 -0.0808  0.1178
72712W        W15765  19.698  31.715  18.837  0.3341 -0.1845  0.2100
72713W        W15766  10.602  25.525   8.156 -0.0282  0.0614 -0.0092
72714W        W15767  16.224   6.943   1.830  0.1810  0.1244 -0.1842
72715W        W15768  26.305  31.399  25.101 -0.0195 -0.0802  0.0434
72716W        W15769  10.232   7.870  21.493 -0.2076  0.2439  0.0374
72717W        W15770  28.504  21.813  14.523  0.0479 -0.2163 -0.0499
72718W        W15771   0.801  11.263   2.531  0.4004  0.0422 -0.4200
72719W        W15772  19.996  12.060  20.152  0.2115  0.1149 -0.1881
72720W        W15773  14.934  12.370  20.227  0.0977 -0.1993 -0.3861
72721W        W15774  23.928  27.803  26.194  0.0140 -0.0544  0.1026
72722W        W15775  32.442  13.870  19.106 -0.2376  0.3117 -0.2391
72723W        W15776  32.811  22.445  17.650 -0.2897  0.2319  0.1600
72724W        W15777  21.731  11.570  19.684 -0.0253 -0.0410  0.0022
72725W        W15778  19.190   6.636   6.790  0.4773 -0.0167  0.1853
72726W        W15779  29.440   5.859  22.985 -0.0272 -0.2183 -0.2642
72727W        W15780  18.975   2.352  23.275  0.0138 -0.0625 -0.0114
72728W        W15781  23.231  28.256  14.656  0.2188  0.2611  0.0530
72729W        W15782   9.506  34.013  17.826 -0.4722  0.3200  0.0382
72730W        W15783   1.972   5.305  10.229 -0.1623 -0.0755 -0.1820
72731W        W15784  25.132  18.112  14.169  0.1816 -0.1737  0.1639
72732W        W15785  13.630  23.958  19.272 -0.2722 -0.0049 -0.1913
72733W        W15786  12.831  17.738  27.992 -0.0023 -0.0925  0.1292
72734W        W15787  23.079  13.154   4.493  0.1123  0.2150 -0.2717
72735W        W15788  18.419  25.782  26.427  0.0578 -0.0085 -0.1313
72736W        W15789  23.755  10.224  22.173  0.1209  0.0943 -0.1364
72737W        W15790  33.687  21.293  24.186 -0.2743 -0.0725  0.0129
72738W        W15791  21.766  34.418  20.100 -0.2968 -0.0579 -0.1335
72739W        W15792  14.534   4.778  26.331 -0.1996 -0.1507 -0.3013
72740W        W15793  31.485  31.487  21.536 -0.2168 -0.1057  0.1847
72741W        W15794  32.360   8.796  14.145 -0.0446 -0.2241 -0.0779
72742W        W15795  22.330  31.881  24.912  0.1574 -0.0749 -0.1723
72743W        W15796  14.076  12.851   0.248 -0.1868  0.1505  0.2146
72744W        W15797  21.250  22.016  15.742  0.1910  0.0199  0.1464
72745W        W15798  13.270  34.222  22.195 -0.1102  0.0194  0.2355
72746W        W15799  23.663  16.046  22.267 -0.1554  0.0242  0.2468
72747W        W15800   3.615  19.016  26.579  0.4010 -0.1906 -0.0967
72748W        W15801  21.225  26.819  17.695 -0.0394 -0.0273 -0.0761
72749W        W15802   6.289  18.827  23.977 -0.0906 -0.3638 -0.2249
72750W        W15803  23.225   1.992  14.600  0.1646 -0.0947  0.0561
72751W        W15804   3.689  19.274   1.596 -0.2650  0.1626 -0.1634
72752W        W15805   9.980   9.232  25.682  0.2322 -0.0784  0.3302
72753W        W15806   5.360   9.989  16.595  0.0528  0.1117 -0.2350
72754W        W15807   5.003  14.283   0.039 -0.0873  0.0957 -0.1643
72755W        W15808  31.708   6.838  15.801 -0.0852  0.0351  0.0681
72756W        W15809  24.774   0.785  22.352 -0.2479 -0.0116 -0.0249
72757W        W15810  15.187  13.176   2.799 -0.1635 -0.4937  0.1139
72758W        W15811  14.942  16.703  16.193 -0.1764  0.2592 -0.0933
72759W        W15812   7.378  17.804  17.081  0.0247  0.1925 -0.4479
72760W        W15813  23.700  17.482  20.350  0.2752 -0.0825 -0.1742
72761W        W15814   6.271  13.644  24.880  0.1223  0.0883  0.2900
72762W        W15815  13.684   0.040  22.956 -0.1759 -0.1616 -0.3426
72763W        W15816  33.157   5.656  20.448  0.1213 -0.0087  0.2677
72764W        W15817  21.451  18.848  16.597  0.1529 -0.1945  0.1501
72765W        W15818  20.647  22.827  24.447  0.3117 -0.1278  0.1359
72766W        W15819  15.710  33.550  21.153  0.0759 -0.2889  0.0062
72767W        W15820  12.024  23.493  20.669 -0.1239 -0.0850 -0.0201
72768W        W15821  12.338  32.500  18.424  0.2621 -0.0734  0.1329
72769W        W15822   1.370  11.418  18.396 -0.1207 -0.3785 -0.4175
72770W        W15823  24.085  18.487  15.807 -0.1795 -0.4808  0.0849
72771W        W15824  24.427  27.483  21.804  0.1935 -0.1707  0.3267
72772W        W15825  24.891  16.869  21.008  0.0549 -0.0270 -0.1405
72773W        W15826  25.375   9.167  25.461 -0.1627 -0.3583  0.1555
72774W        W15827  17.151   4.589   8.051 -0.3068  0.0656 -0.2145
72775W        W15828   7.745   7.476  24.486 -0.0651 -0.1407  0.0098
72776W        W15829  19.165  34.458  16.361 -0.0445  0.0815 -0.3345
72777W        W15830  32.585   7.723   9.406 -0.3103  0.0933 -0.0764
72778W        W15831  20.100  17.052  20.179  0.0674  0.4555  0.0382
72779W        W15832  20.304  17.305  12.884 -0.0839 -0.0606 -0.1744
72780W        W15833  24.794  23.079  26.359 -0.1262  0.0484  0.1289
72781W        W15834  10.885   6.605  17.326  0.0141  0.2138 -0.0462
72782W        W15835  22.028  10.343  22.519  0.1634 -0.0137  0.0689
72783W        W15836  29.817  32.916  21.656  0.0773  0.2794  0.3005
72784W        W15837  15.569   8.029  22.359 -0.1085 -0.0501  0.0608
72785W        W15838  13.159   2.225  28.377  0.0889 -0.2206  0.0933
72786W        W15839   8.518   7.713  21.511 -0.0254 -0.3700 -0.1671
72787W        W15840  13.300  13.871  17.999 -0.0322  0.0763  0.1418
72788W        W15841   4.149   1.273   5.412 -0.0391  0.0384  0.0568
72789W        W15842  18.385  22.593  24.625 -0.0243  0.1131  0.0639
72790W        W15843  17.546   9.754  17.237 -0.2536  0.0617  0.0700
72791W        W15844  10.452  14.266  18.927  0.0058  0.0974  0.2246
72792W        W15845  25.308   4.539  16.214 -0.3361  0.4040 -0.0474
72793W        W15846   8.603  17.778  15.666  0.0526 -0.1896 -0.3169
72794W        W15847  13.008  26.834  14.461 -0.2668 -0.0827  0.0816
72795W        W15848   5.863  10.717  18.094  0.3257 -0.2281 -0.2486
72796W        W15849  21.744  29.975  22.512 -0.4303 -0.0836 -0.1814
72797W        W15850   2.801   0.911  16.407  0.4712 -0.1914 -0.0138
72798W        W15851  17.852  34.201  21.587 -0.2781 -0.0595 -0.1324
72799W        W15852  18.990  12.210  22.586  0.2259  0.1044  0.0625
72800W        W15853   6.150  28.464  25.057  0.0579  0.1467 -0.1550
72801W        W15854  16.018   6.248  14.406  0.2633 -0.3849  0.0392
72802W        W15855  32.403  20.450  23.584  0.0545  0.3262  0.0805
72803W        W15856  34.249   9.797  20.193 -0.2149 -0.0164  0.0751
72804W        W15857  32.521   9.221  19.933 -0.1233 -0.1630 -0.1167
72805W        W15858  14.112  15.128  14.729 -0.1792 -0.0350  0.1419
72806W        W15859  28.694  19.026  17.902 -0.0665  0.1821 -0.1667
72807W        W15860  10.660  22.809  21.220 -0.2341 -0.3701  0.0442
72808W        W15861  23.031   5.289  21.564  0.0771 -0.1865 -0.0158
72809W        W15862  20.105   6.376   5.220  0.0680  0.0369 -0.1901
72810W        W15863  12.019  29.065  15.036 -0.1521 -0.4287  0.0128
72811W        W15864  17.564   8.174  20.923  0.1175  0.0149 -0.0032
72812W        W15865   9.245  19.970  16.724  0.1967  0.0428  0.1787
72813W        W15866  22.714  17.308  14.994  0.1859  0.2702  0.1679
72814W        W15867  16.919   4.127  21.600 -0.2690  0.0754  0.1654
72815W        W15868  22.004  10.208   3.265  0.2628  0.0639  0.2888
72816W        W15869  16.636  11.824  18.265 -0.0953 -0.0299 -0.0558
72817W        W15870  11.857   5.318  19.234  0.0181 -0.1830  0.1699
72818W        W15871   5.239  19.627  27.767  0.1485 -0.1768 -0.3035
72819W        W15872  13.909  26.163  14.588 -0.0831  0.1379 -0.1222
72820W        W15873  12.321  18.292  16.678  0.2637  0.0442 -0.0359
72821W        W15874  20.134  24.120  17.741 -0.0567  0.1855  0.0784
72822W        W15875  13.265   8.695  15.959  0.4296  0.3281  0.0718
72823W        W15876   4.668  18.310  25.841  0.0945  0.0367  0.0464
72824W        W15877  27.559   4.233  19.142 -0.1845 -0.1130 -0.1346
72825W        W15878  33.949  10.637  14.876  0.0412 -0.1014 -0.1472
72826W        W15879  20.914  26.825   2.265 -0.3250  0.0531  0.2685
72827W        W15880   4.234   6.641  18.906  0.0039  0.3953 -0.0734
72828W        W15881  17.372  23.960  16.472 -0.3451  0.0373  0.0424
72829W        W15882   8.761  12.575  15.215  0.3725  0.3023  0.0226
72830W        W15883  30.932  27.342  18.101  0.0400 -0.1871 -0.0796
72831W        W15884  21.719  32.184  15.965  0.1473  0.0457 -0.1371
72832W        W15885   5.471  19.766  13.443 -0.2581  0.2318 -0.0314
72833W        W15886   8.565  19.115  16.791 -0.1810 -0.0367 -0.3168
72834W        W15887   5.799  17.298  23.766 -0.0506  0.3343  0.0046
72835W        W15888   0.806  25.476  12.590 -0.3111  0.0515  0.0600
72836W        W15889  13.135  31.364  15.041  0.3762 -0.1042 -0.3465
72837W        W15890  16.884   6.697  23.442  0.0392 -0.0408  0.3432
72838W        W15891  19.172  18.711  14.086  0.1191 -0.0526  0.3028
72839W        W15892  21.362  21.089  14.566 -0.3074  0.0193  0.2246
72840W        W15893   7.234  26.812  15.862  0.0831 -0.0635 -0.0428
72841W        W15894   8.758  27.849  27.299  0.0238 -0.2872  0.1426
72842W        W15895  14.228   6.646  16.356 -0.0693  0.0871  0.0298
72843W        W15896  18.055  22.319  22.873  0.1334  0.2760 -0.1423
72844W        W15897  13.956  33.422  19.495  0.2787  0.0084 -0.3174
72845W        W15898  13.938  12.711   3.978 -0.0787  0.1170 -0.0704
72846W        W15899   6.013  23.060   7.376  0.3465 -0.0794  0.0094
72847W        W15900   2.270  16.718  24.131 -0.0670 -0.1216 -0.0549
72848W        W15901   9.523  20.589  13.829  0.0742  0.1311  0.3014
72849W        W15902  16.914   4.198  21.076 -0.2065 -0.1558 -0.0493
72850W        W15903  22.521   0.171  21.830 -0.1067  0.2520 -0.0975
72851W        W15904  22.815  22.530  15.424  0.2331 -0.2673 -0.1987
72852W        W15905  24.760  15.521  21.448  0.1835 -0.2843 -0.1136
72853W        W15906  14.805  24.801  24.059 -0.2259  0.2916  0.2428
72854W        W15907  24.731   6.332   6.720  0.0160  0.1783  0.2430
72855W        W15908  34.035  16.790  18.680 -0.0380 -0.0474  0.4492
72856W        W15909   9.601  32.541  17.537  0.2261  0.1191  0.0286
72857W        W15910  17.803  11.303  20.882 -0.2076 -0.3862 -0.0840
72858W        W15911  16.225  30.381  27.379  0.2459 -0.2384 -0.2792
72859W        W15912  16.867   7.825  16.952 -0.1490 -0.3928  0.0841
72860W        W15913  15.069  27.622  25.755 -0.2793 -0.1868 -0.2331
72861W        W15914   0.637  15.145   1.993 -0.0308  0.0138 -0.1628
72862W        W15915  11.216   5.048  27.072  0.0154  0.2790 -0.2367
72863W        W15916  16.288  23.312  21.196 -0.1594 -0.0781  0.2370
72864W        W15917  16.754   0.912  22.981 -0.1677 -0.0876 -0.2481
72865W        W15918   1.280   1.507  15.564 -0.0702  0.2615  0.1007
72866W        W15919  21.112  12.776  22.548 -0.0260  0.0533 -0.3434
72867W        W15920  18.546  34.370  24.249 -0.0843  0.2550  0.2455
72868W        W15921  18.181  11.703  21.929 -0.0889 -0.0506 -0.2338
72869W        W15922  11.220  21.383  24.753  0.1249  0.1457 -0.2530
72870W        W15923   5.252   6.543  27.116 -0.0921  0.1191 -0.3680
72871W        W15924  13.747   1.602  14.801 -0.1091  0.2052  0.1844
72872W        W15925   7.240   2.776  19.559  0.1663  0.1625 -0.1672
72873W        W15926  24.636  18.117  17.587  0.0162  0.3018 -0.0300
72874W        W15927  26.327  12.757  17.608 -0.0005  0.0487  0.2593
72875W        W15928  17.164   0.123  18.791  0.2761  0.3914  0.0574
72876W        W15929  12.345  11.895  16.415 -0.1299  0.3272  0.1130
72877W        W15930   2.594   7.127  21.320 -0.2912  0.2926  0.0508
72878W        W15931  12.995  20.655  22.858  0.0836  0.0149 -0.0658
72879W        W15932  10.150   6.357  28.082  0.0725 -0.1401  0.2051
72880W        W15933  25.082  17.200  15.573  0.0217  0.0274 -0.0016
72881W        W15934  22.478  34.121  20.788 -0.2115  0.0102 -0.2851
72882W        W15935   8.168  17.057  17.088 -0.2279 -0.0847 -0.0282
72883W        W15936  16.813  30.235  25.281 -0.0918 -0.1918  0.0930
72884W        W15937  17.073  33.870  16.163 -0.2904  0.0366 -0.2251
72885W        W15938  25.819  20.610  27.851  0.0036  0.2498 -0.2066
72886W        W15939  25.590  27.043  19.371 -0.0744  0.0248 -0.0791
72887W        W15940  14.052  10.423  27.363 -0.2010  0.2294  0.0973
72888W        W15941  11.288  17.592  19.879  0.1968  0.1374 -0.1412
72889W        W15942  23.807   8.387  17.804 -0.1386 -0.1871  0.0916
72890W        W15943  15.667  20.991  18.745 -0.0980  0.2139 -0.2790
72891W        W15944   1.643  16.857  18.511  0.1104 -0.2205  0.0561
72892W        W15945   9.785  10.654  17.946  0.4305  0.0429  0.2641
72893W        W15946  10.167  17.423  22.964 -0.0745 -0.0438  0.1953
72894W        W15947   5.890  17.962   2.148 -0.2132  0.0235 -0.0017
72895W        W15948   9.107  22.664  23.044 -0.1560  0.0650 -0.3948
72896W        W15949  13.496  34.587  21.950 -0.1713  0.1317  0.1313
72897W        W15950  13.764  22.226  22.330  0.2754  0.0614  0.1298
72898W        W15951  28.146  13.306  25.407  0.2580 -0.1448 -0.2791
72899W        W15952  23.523  12.761  19.454 -0.2693 -0.3516  0.3709
72900W        W15953  17.170  18.744  14.364  0.2868 -0.4311  0.1567
72901W        W15954  18.289  23.012  21.651  0.3245  0.0627 -0.1807
72902W        W15955  27.445  31.103  27.739 -0.0740 -0.3683  0.0996
72903W        W15956  17.260  29.284  21.461 -0.1671  0.1519 -0.0815
72904W        W15957  24.759  27.473  19.002  0.0239 -0.2689  0.1934
72905W        W15958   6.017  11.595  14.398  0.1220  0.2805  0.2936
72906W        W15959  22.458  15.328  17.756  0.0303  0.2184 -0.1182
72907W        W15960  23.773  21.718  18.278  0.1760 -0.1726  0.1184
72908W        W15961   1.252  12.635  14.106  0.1205 -0.1288 -0.0243
72909W        W15962  22.613   2.933   2.413 -0.0092  0.2078 -0.1238
72910W        W15963  31.529  26.394  15.975  0.0615 -0.1688 -0.3236
72911W        W15964  29.424   8.250  19.631  0.2051  0.0374  0.0087
72912W        W15965  24.921  16.662  20.090  0.0671  0.0154 -0.1880
72913W        W15966   3.036   6.460  19.884 -0.1550  0.3852 -0.0859
72914W        W15967   6.361  33.164  27.810  0.3337  0.0728 -0.1365
72915W        W15968  24.273  17.805  18.477  0.1981  0.1795  0.0039
72916W        W15969   8.260  19.588  20.287 -0.3662 -0.0010 -0.0156
72917W        W15970  32.473  32.697   0.372 -0.2849  0.1557 -0.1192
72918W        W15971   0.546   3.095   2.199 -0.0578 -0.0320 -0.0588
72919W        W15972  20.475  23.287  21.802 -0.2438 -0.0430  0.1411
72920W        W15973  24.885  32.967   0.057 -0.1274 -0.0752 -0.2248
72921W        W15974  31.588  11.656  26.509 -0.1456  0.1098  0.4002
72922W        W15975  13.543  12.103  24.663 -0.0328 -0.0797 -0.1273
72923W        W15976   9.702   3.499  24.414 -0.2215  0.4784  0.1616
72924W        W15977  26.828   5.840  21.635  0.2083  0.1702  0.1720
72925W        W15978  30.784  18.835  21.719 -0.0656 -0.1247  0.6323
72926W        W15979  18.768  31.894  14.982  0.2992 -0.0762  0.0300
72927W        W15980  10.351  19.391  20.255 -0.0215 -0.0736 -0.0048
72928W        W15981  11.460  30.701  26.742 -0.2690  0.1812  0.1162
72929W        W15982  16.006  26.526  19.594 -0.2743 -0.1836 -0.1185
72930W        W15983   1.602  13.400  10.303  0.2173 -0.2663 -0.1857
72931W        W15984   9.333   5.891  22.528 -0.2767 -0.3970  0.1756
72932W        W15985  26.798  18.220  15.607 -0.4895 -0.0528  0.2817
72933W        W15986  24.402  22.076  17.490 -0.0689 -0.1323 -0.0275
72934W        W15987  14.671   7.390  22.233  0.2304  0.4210  0.1190
72935W        W15988  10.462   8.508   0.199 -0.2140  0.1620 -0.1354
72936W        W15989  19.060   6.705  14.635 -0.1389 -0.1180 -0.4356
72937W        W15990  19.104  10.417  27.315 -0.0363  0.1244 -0.1154
72938W        W15991   7.735  21.703  18.538  0.1722  0.2605 -0.1175
72939W        W15992  21.027   0.928  17.866  0.2430 -0.0350 -0.2342
72940W        W15993  20.691   9.119  19.077 -0.1113 -0.1783  0.4683
72941W        W15994  29.876  11.471   1.788  0.0420 -0.0059 -0.0473
72942W        W15995  13.137   6.329  24.252 -0.0966 -0.0825 -0.1820
72943W        W15996   3.757  18.519  22.735 -0.0361  0.2731  0.0117
72944W        W15997  23.548  20.117  21.294  0.1173 -0.1615  0.0139
72945W        W15998  24.552   7.715  15.061  0.1859 -0.3111  0.1714
72946W        W15999   4.715   7.210  20.652  0.4130  0.0137  0.1094
72947W        W16000  10.047   4.418   2.631  0.1196 -0.1893  0.3264
72948W        W16001  30.844  13.654  16.071  0.1025  0.2978 -0.1452
72949W        W16002   7.868  14.034  17.331 -0.1269 -0.1826 -0.2422
72950W        W16003   9.966  18.944  21.759 -0.1979  0.1560  0.1298
72951W        W16004  20.077   5.226   5.481 -0.1605 -0.2158 -0.0408
72952W        W16005  18.364   9.248  20.444 -0.4093 -0.1333  0.0287
72953W        W16006  26.698   1.150  18.251 -0.1165  0.0752  0.0378
72954W        W16007   6.802  31.883  18.915  0.3361  0.1185 -0.3132
72955W        W16008  13.311  21.753  24.325 -0.3540 -0.0374 -0.0399
72956W        W16009  16.546  10.944  14.893 -0.0294 -0.1790 -0.1387
72957W        W16010   5.880  14.057  21.022  0.0200  0.1897  0.1244
72958W        W16011  11.923   9.341   0.538 -0.0742 -0.0816  0.1222
72959W        W16012  32.171  17.514  17.701 -0.1437 -0.0006 -0.1363
72960W        W16013   4.017  29.431  19.231  0.0224 -0.3216 -0.1482
72961W        W16014   9.194   4.984  28.353 -0.0964 -0.2061  0.0225
72962W        W16015  13.834   8.419  15.975  0.0563 -0.1824 -0.0060
72963W        W16016  33.465   1.762   6.937  0.2210 -0.0542  0.1035
72964W        W16017  25.856   4.455   8.435  0.2052 -0.0473 -0.2796
72965W        W16018  13.783  23.869  15.853 -0.2376 -0.0235 -0.0036
72966W        W16019  33.172  17.413  16.127  0.0728  0.0950  0.0699
72967W        W16020  13.899  21.114   1.467 -0.0255  0.1260  0.0908
72968W        W16021  29.502  23.227  23.402 -0.1870  0.3874 -0.2738
72969W        W16022  34.578  27.586  24.987 -0.0475  0.2594 -0.3093
72970W        W16023  19.708  17.100  14.992  0.2739 -0.1920 -0.0945
72971W        W16024  19.159  33.199  14.979  0.0894 -0.0743  0.0323
72972W        W16025   0.455  24.373  17.981 -0.0480 -0.1450 -0.4129
72973W        W16026   3.118  34.156   3.544  0.0034  0.2615  0.1072
72974W        W16027  30.902  16.565  14.351  0.0999  0.3303  0.0515
72975W        W16028  16.212   9.913  25.540 -0.1271  0.0249 -0.0015
72976W        W16029   7.540  21.916  23.008  0.1135  0.0111  0.0948
72977W        W16030  10.461  26.806  15.676  0.1946  0.1551 -0.1039
72978W        W16031   1.806  12.223  25.406 -0.1931  0.0627 -0.2190
72979W        W16032   7.234  19.008  17.095  0.0209  0.4263  0.1326
72980W        W16033   4.521   8.750  21.676  0.0004  0.2344 -0.2797
72981W        W16034  22.144   1.432   6.785  0.0532  0.1676  0.0275
72982W        W16035  30.159   9.643   4.032  0.1032  0.2677 -0.0562
72983W        W16036  17.666  22.047   0.725 -0.0707 -0.3638 -0.0255
72984W        W16037  25.016  11.068  15.782 -0.1153  0.4551 -0.1158
72985W        W16038  16.157  26.686  14.466  0.0670  0.3114 -0.0481
72986W        W16039  19.776   2.289  18.821  0.1318 -0.1274  0.2554
72987W        W16040  16.021  11.897  14.853  0.0962  0.4709  0.2454
72988W        W16041   8.964   8.547  27.154 -0.1627 -0.1357 -0.3179
72989W        W16042  33.312   8.942  13.974  0.2241 -0.0160 -0.0644
72990W        W16043  20.790  18.218  14.384  0.1742  0.1825 -0.3657
72991W        W16044   9.039   7.132  20.292  0.0022  0.2021  0.4127
72992W        W16045  18.267  12.651  18.093  0.0409 -0.2381 -0.1639
72993W        W16046   5.144  18.766  14.429  0.0000 -0.0172  0.1029
72994W        W16047  12.344   1.780  21.332  0.0264 -0.3899  0.1165
72995W        W16048  23.045   3.079   7.341  0.2226 -0.2716  0.0187
72996W        W16049   1.144  14.507  28.010 -0.1141 -0.2313  0.1975
72997W        W16050  22.654  17.663  17.835 -0.0114 -0.1641  0.2057
72998W        W16051  28.337  17.520  17.363  0.2330 -0.0459  0.0120
72999W        W16052  17.407   7.130  17.352 -0.2532  0.2780 -0.0379
73000W        W16053  15.212  34.090  20.284 -0.1033 -0.5284  0.1925
73001W        W16054  22.218   9.463  20.582 -0.2231 -0.1890  0.0013
73002W        W16055  22.265  11.127   1.169 -0.1235 -0.0593  0.0427
73003W        W16056   4.504  20.397  25.447 -0.3653  0.1771  0.3284
73004W        W16057  15.672  23.732  24.987  0.0446  0.1570  0.2229
73005W        W16058  27.330  34.481   2.638 -0.0197  0.3471 -0.1692
73006W        W16059  15.111  23.396   0.211 -0.1690  0.1367  0.2598
73007W        W16060   4.402  20.946   4.848 -0.1736 -0.1373 -0.1331
73008W        W16061   2.815   4.886  26.330 -0.0359 -0.1798 -0.3406
73009W        W16062   5.690   0.190  27.699  0.2876  0.0531  0.0468
73010W        W16063  12.714  12.524  18.543  0.3323  0.2312 -0.2538
73011W        W16064  10.581   4.003   8.149 -0.0699 -0.1741  0.0983
73012W        W16065  28.111  17.447  21.585  0.1695  0.1851 -0.1800
73013W        W16066  27.318  24.146  14.771  0.0137  0.4066  0.1079
73014W        W16067  10.712   8.769  28.183  0.6258 -0.4542  0.4627
73015W        W16068  12.707  13.240   2.262 -0.0782 -0.1665 -0.1284
73016W        W16069  13.000   6.085  17.664  0.5186  0.1622  0.1724
73017W        W16070   2.507  18.266  25.536 -0.0292 -0.2024  0.0764
73018W        W16071  22.861  10.545  14.946  0.1256 -0.0640 -0.0873
73019W        W16072  33.903  15.643   6.937 -0.0463  0.1520  0.0087
73020W        W16073  34.025  11.471   3.228  0.0064 -0.0308  0.0190
73021W        W16074  19.205  29.385  16.799  0.2137  0.4173  0.0452
73022W        W16075   1.169  14.181  25.999  0.1846  0.1642 -0.3540
73023W        W16076  19.402  23.224   0.962  0.0165 -0.0501  0.2100
73024W        W16077  26.696   6.785  23.018 -0.1374 -0.2351  0.0464
73025W        W16078  18.779  19.130  13.729  0.1217  0.1985  0.2825
73026W        W16079   8.301   8.772  23.978 -0.0622 -0.4264 -0.0663
73027W        W16080  24.311   9.701  19.206  0.1639 -0.0488  0.0587
73028W        W16081  25.691   3.897  20.469  0.0030 -0.2034 -0.2776
73029W        W16082  16.668  30.939  22.534 -0.4248  0.0861 -0.0142
73030W        W16083   9.494  27.072  16.470 -0.0014 -0.3620 -0.0375
73031W        W16084   8.922  11.149  24.968 -0.3858 -0.0580  0.1158
73032W        W16085   6.128  16.056  26.750 -0.0759 -0.2835 -0.0100
73033W        W16086  18.386  11.685  22.765 -0.0755  0.0283  0.1907
73034W        W16087   1.886  14.531   6.632  0.3220  0.1601  0.0326
73035W        W16088  19.559  10.744   3.201 -0.0561  0.0265  0.0257
73036W        W16089  22.896  30.735  26.160  0.1605 -0.0075  0.1183
73037W        W16090  19.751   4.650  14.588  0.2074  0.4102 -0.2927
73038W        W16091  17.605   2.118  18.414 -0.0928  0.1225  0.0481
73039W        W16092  11.359   3.633  20.090  0.1524 -0.1622 -0.0910
73040W        W16093   6.036   7.563  23.048 -0.3814  0.2345 -0.3144
73041W        W16094  17.436  26.597  17.340  0.2682  0.0991 -0.0334
73042W        W16095  15.149  12.085  24.248 -0.3178  0.0047 -0.2011
73043W        W16096  25.585  30.031   0.829  0.0158  0.0823  0.0392
73044W        W16097   9.184   7.034  23.379  0.1429  0.2300  0.2704
73045W        W16098  19.177   6.054  27.746  0.1557 -0.1115 -0.1157
73046W        W16099  18.006   7.314  15.629  0.2849  0.1134  0.0143
73047W        W16100  22.019  30.547  17.881  0.2870 -0.0312  0.0948
73048W        W16101  27.337  12.634   1.581  0.0904 -0.1694 -0.2080
73049W        W16102  21.124   5.981  24.492  0.0368  0.0831  0.0872
73050W        W16103  22.335  12.246  18.598 -0.3564 -0.0240  0.0645
73051W        W16104  28.059   3.491  26.289 -0.1029 -0.0263  0.1784
73052W        W16105  11.460  27.741   1.308 -0.1246 -0.3425 -0.0599
73053W        W16106  24.442   8.507  15.469 -0.2913  0.0599 -0.0697
73054W        W16107   5.363   6.931  23.150 -0.0137  0.3827 -0.2156
73055W        W16108  12.808   8.472  28.408  0.1738  0.0151 -0.0983
73056W        W16109  18.348  10.256  21.312  0.1278 -0.2839 -0.4225
73057W        W16110  29.321  32.194  22.845 -0.0638 -0.0384 -0.1804
73058W        W16111  11.846  17.429  14.944  0.1378  0.1205  0.2555
73059W        W16112   3.138  14.672   2.923  0.2295 -0.0478  0.2284
73060W        W16113  25.248  10.106  21.269  0.2598 -0.1185 -0.1430
73061W        W16114  22.292  10.113  17.558 -0.2490  0.0481 -0.2356
73062W        W16115   1.040  14.176  22.566 -0.2214 -0.0307 -0.1227
73063W        W16116  20.785  13.496  17.792 -0.0757  0.1526  0.1889
73064W        W16117   5.770  19.880  25.503 -0.1059 -0.0066 -0.0591
73065W        W16118   7.041  26.429  13.020  0.0257 -0.0056  0.2910
73066W        W16119  11.570   7.532  24.710 -0.0222  0.0621 -0.2274
73067W        W16120  11.726  15.440  21.266  0.0265 -0.0076  0.2095
73068W        W16121  22.987   3.980  17.680 -0.0437  0.1218 -0.1004
73069W        W16122   0.318  17.456   4.882  0.0952  0.1072  0.0466
73070W        W16123   2.301  21.548  20.672 -0.3870 -0.1510 -0.0749
73071W        W16124  20.937  16.053  19.874 -0.2152 -0.0326  0.1199
73072W        W16125  33.090  31.670   5.102 -0.0655 -0.2078 -0.0225
73073W        W16126  12.167  30.031  14.779 -0.2004 -0.0877 -0.2066
73074W        W16127  21.860  21.082  14.714 -0.0647  0.0391 -0.3963
73075W        W16128  34.681   8.549  26.947  0.0608 -0.0026 -0.0046
73076W        W16129  17.159  18.281  24.910 -0.0955  0.3753  0.1933
73077W        W16130  13.909  16.932  14.765 -0.0302 -0.4816  0.3423
73078W        W16131  14.402  31.061  20.537 -0.1581 -0.1013 -0.0307
73079W        W16132  27.543   6.970  24.789 -0.2503  0.2632 -0.0840
73080W        W16133   5.732  15.881  18.110 -0.0343 -0.0231 -0.2711
73081W        W16134  24.436  11.438  18.686  0.0433 -0.0365  0.0653
73082W        W16135  19.858   4.890  26.442 -0.1052 -0.1214 -0.0743
73083W        W16136  19.078  11.590   9.570  0.1535 -0.1538  0.2699
73084W        W16137  20.112   9.881  21.664  0.1132  0.0199  0.2054
73085W        W16138  20.099  12.590  14.889 -0.0830  0.1591  0.1911
73086W        W16139   2.405  22.481  15.972  0.1540  0.2192 -0.1938
73087W        W16140  17.933   6.760  15.228 -0.0072 -0.1602 -0.2014
73088W        W16141  13.190   4.023  19.939  0.1620  0.1514 -0.6067
73089W        W16142  26.438   6.738  14.573 -0.1762 -0.0648 -0.1180
73090W        W16143  20.817   4.560  15.377  0.0696 -0.0605  0.3229
73091W        W16144   1.792  17.328  18.801 -0.1069 -0.0587 -0.3150
73092W        W16145  18.202   9.429   4.131 -0.1159 -0.3245  0.0016
73093W        W16146  29.395  20.418  16.205 -0.0540  0.1577 -0.1371
73094W        W16147   3.276   1.464   6.789 -0.0192 -0.3618  0.0927
73095W        W16148  24.595  11.739   0.700 -0.0355  0.0904  0.0563
73096W        W16149  12.585  12.031  19.968 -0.0951 -0.0985  0.3244
73097W        W16150  20.833  18.457  13.964  0.0684 -0.2543  0.1178
73098W        W16151  13.448  28.055  14.775  0.0141 -0.3712 -0.1576
73099W        W16152   9.320  17.181  17.829  0.0256 -0.2116  0.0394
73100W        W16153  26.318  27.888  16.988 -0.2079  0.0916  0.2148
73101W        W16154  14.227   2.532  28.922  0.2665  0.0968 -0.0247
73102W        W16155  10.147  22.841  25.578  0.2251  0.0524 -0.3033
73103W        W16156   4.857   1.202  18.998 -0.1444 -0.4579 -0.0122
73104W        W16157   8.367   3.964  22.256 -0.0891  0.0445  0.1280
73105W        W16158  18.832   5.373  18.845  0.0385 -0.0022 -0.1470
73106W        W16159  29.114  22.568  22.894 -0.1949  0.3592  0.1163
73107W        W16160  27.761  23.457  19.067 -0.2180  0.0865  0.3201
73108W        W16161  22.976  11.280  19.537 -0.1617  0.4173  0.0478
73109W        W16162  25.858  12.338  14.504 -0.1739 -0.3630 -0.0995
73110W        W16163  10.198  12.385  26.864 -0.2288 -0.1778  0.1604
73111W        W16164   9.028  20.531  17.813 -0.2458 -0.1538  0.0301
73112W        W16165   9.075  14.513  21.293 -0.0044  0.3595  0.1035
73113W        W16166  27.315  18.155  18.777 -0.1097  0.0809 -0.2414
73114W        W16167  14.022  28.006  13.440 -0.2193 -0.0046  0.1697
73115W        W16168  28.969  16.854  17.408  0.1692 -0.0881 -0.1100
73116W        W16169  14.504   4.828  28.088  0.3055  0.3135  0.2323
73117W        W16170  23.073   3.633  19.936 -0.2681  0.0746 -0.1081
73118W        W16171  14.283  18.625  22.210  0.1107 -0.3217  0.1189
73119W        W16172  14.741   8.028   5.062 -0.1438  0.4344  0.1434
73120W        W16173  31.968   8.727  20.387 -0.1982 -0.2273  0.1377
73121W        W16174  16.878   5.390  20.896  0.0977  0.3201 -0.2034
73122W        W16175  10.296  22.975  19.183  0.3098  0.1062 -0.1156
73123W        W16176   9.081   4.421  15.686  0.1004  0.2677  0.2534
73124W        W16177  12.326  14.964  15.645  0.0034 -0.2495 -0.1172
73125W        W16178   2.521  16.897  22.275 -0.0105  0.2055  0.0351
73126W        W16179  23.450   1.755  21.678 -0.0118 -0.0417  0.1934
73127W        W16180  20.932  11.183  24.092  0.0945  0.5180 -0.0944
73128W        W16181   4.876  17.673  19.180 -0.3128 -0.2135  0.1348
73129W        W16182  12.385  12.553   4.992  0.1698  0.1803 -0.1654
73130W        W16183   5.413  13.005  15.433  0.1618  0.0819 -0.0284
73131W        W16184  22.273  29.602  19.795  0.1415  0.2168 -0.0982
73132W        W16185  18.437   8.973  28.046 -0.0769 -0.0967 -0.1935
73133W        W16186   3.192  28.190  16.007 -0.0753 -0.0664 -0.1012
73134W        W16187  14.857  12.168  22.135  0.2124 -0.0961  0.2676
73135W        W16188  20.601   5.804  20.025 -0.1967 -0.2166 -0.0274
73136W        W16189  17.164  26.771  19.555  0.1493 -0.2681  0.0925
73137W        W16190  24.924   4.956  18.002 -0.2351  0.0983 -0.3336
73138W        W16191  18.574  22.121  19.210 -0.3302 -0.0862  0.0700
73139W        W16192   5.777  27.914  15.713  0.3216  0.0115  0.0045
73140W        W16193  26.368  11.476  18.616  0.1039  0.0064  0.1039
73141W        W16194   6.244   9.973  28.180 -0.5202  0.1802 -0.1734
73142W        W16195  32.449   2.271  23.407  0.0507  0.0703 -0.1777
73143W        W16196  13.940  18.293  22.545 -0.0213 -0.1247 -0.2258
73144W        W16197  13.693  10.260  23.409  0.4067  0.4393  0.2166
73145W        W16198  31.630  15.452   3.870 -0.1548  0.1029  0.1086
73146W        W16199   8.739   8.541  20.971  0.2081  0.2482 -0.1350
73147W        W16200  30.059   3.987  19.266 -0.0474  0.1415 -0.4683
73148W        W16201  17.249  33.960   6.056  0.0152 -0.1818  0.2035
73149W        W16202  23.996   3.036  25.866  0.2409  0.2009 -0.1092
73150W        W16203  21.860   5.633   2.959 -0.0928 -0.0427  0.3513
73151W        W16204  11.162   1.608  18.666 -0.0128  0.1474  0.0677
73152W        W16205  29.211  10.771  23.479 -0.0804 -0.0325 -0.2486
73153W        W16206  13.840   7.477  24.717  0.0020 -0.0865 -0.2244
73154W        W16207  28.405  27.653  21.369  0.1242  0.0244 -0.4715
73155W        W16208  13.148  11.202  21.981 -0.0803 -0.0836 -0.3161
73156W        W16209  18.612  15.136  23.176 -0.0096  0.4107  0.0707
73157W        W16210   9.942  11.681  25.683  0.1342  0.0079  0.1295
73158W        W16211   3.373   7.036   3.029 -0.2278  0.0497 -0.2104
73159W        W16212  30.579  13.098  15.412 -0.3285  0.1599  0.1307
73160W        W16213  25.052  23.718  19.887 -0.0563  0.0009 -0.1631
73161W        W16214  16.087  11.635   0.164  0.0417  0.0082  0.0902
73162W        W16215  33.220   4.939  21.368 -0.2082 -0.2554 -0.1357
73163W        W16216  21.973  34.389  24.527  0.1006 -0.0657  0.2588
73164W        W16217  26.199  19.390  16.536 -0.2116  0.0962 -0.5441
73165W        W16218  15.655   9.805  17.673 -0.0780  0.0858 -0.1059
73166W        W16219   3.735  12.313  26.875  0.0321  0.0412  0.0829
73167W        W16220  13.877   6.411   1.966 -0.1061 -0.2143 -0.0716
73168W        W16221  11.860   7.557   1.082 -0.1885  0.1766  0.1763
73169W        W16222   7.088   1.750  17.723  0.0586 -0.0845  0.1018
73170W        W16223  16.804  15.364  13.272  0.1201 -0.1905  0.3425
73171W        W16224  11.009  27.775  20.670 -0.0426  0.0542  0.2009
73172W        W16225   6.551   3.198  19.121  0.0802  0.0491  0.1129
73173W        W16226  11.123  19.529   0.011 -0.1138  0.3124  0.3083
73174W        W16227  24.704  16.870  15.302  0.1874  0.1119 -0.1121
73175W        W16228  20.218   4.930  15.980  0.2532  0.1690  0.1528
73176W        W16229  25.646  10.480  19.966  0.0709 -0.0928 -0.0913
73177W        W16230  21.779  25.982  27.463  0.5146 -0.0286 -0.0312
73178W        W16231  11.502   7.847  20.616  0.4405 -0.3297  0.1221
73179W        W16232  15.805  13.235  15.756 -0.0747 -0.0158 -0.0749
73180W        W16233  27.556  12.452  20.639 -0.0305  0.2783 -0.0284
73181W        W16234  15.332  33.653  27.164 -0.0446  0.3855  0.3149
73182W        W16235  15.927  25.108  20.551 -0.2623  0.2665  0.2133
73183W        W16236  14.525   2.646  17.932 -0.0534  0.1775 -0.0537
73184W        W16237  17.554   1.987   0.195 -0.3398 -0.0143 -0.0073
73185W        W16238   9.375  13.309   5.494 -0.0600  0.0144 -0.2615
73186W        W16239  22.352   4.662  20.701  0.0315 -0.0844 -0.1395
73187W        W16240  19.455  13.152  22.833 -0.0878 -0.1478 -0.0288
73188W        W16241  22.669  11.933  25.125 -0.0509  0.1500 -0.1347
73189W        W16242  19.354   4.199  24.932  0.2400 -0.0367  0.2156
73190W        W16243   9.188   5.800  28.442  0.4625 -0.0463 -0.2502
73191W        W16244  21.021  12.960  14.887 -0.1642  0.3073 -0.3458
73192W        W16245  15.887  17.608  13.823  0.4373  0.1088  0.0789
73193W        W16246  17.111   6.173  29.145  0.1039 -0.0025 -0.2478
73194W        W16247  24.758  15.374  13.242 -0.1621  0.0783  0.0340
73195W        W16248  21.149  22.371  14.430  0.1816  0.1957  0.4005
73196W        W16249  11.781   5.973  19.600  0.0782 -0.0530 -0.1661
73197W        W16250  19.322   4.757   1.489  0.2174 -0.1126  0.1556
73198W        W16251  22.572   5.629  20.420  0.1635  0.0131 -0.1567
73199W        W16252  20.027  10.245  19.097 -0.0303 -0.2770  0.1379
73200W        W16253  21.586   3.681  17.476  0.1401  0.2279 -0.1361
73201W        W16254  12.382   6.752  15.820 -0.2053 -0.2119  0.1138
73202W        W16255  22.558   0.510  26.677 -0.0970  0.1469  0.2475
73203W        W16256  15.619  11.999  19.050 -0.1072 -0.1078  0.0618
73204W        W16257   6.604   6.749   5.955 -0.2743 -0.4066  0.2402
73205W        W16258   8.157  32.029  23.614  0.2703  0.4598  0.0011
73206W        W16259   7.396   2.723   4.090  0.0395 -0.0557  0.0932
73207W        W16260   6.600  27.437  21.086 -0.0686 -0.1456  0.4689
73208W        W16261  29.040  13.772  25.362 -0.0715  0.1204 -0.1228
73209W        W16262  24.946  10.010  20.860 -0.0332 -0.1014 -0.3336
73210W        W16263  16.782  15.488  15.162  0.0326 -0.1194  0.0570
73211W        W16264  21.496  33.943  21.274 -0.0043  0.3665 -0.0697
73212W        W16265  22.602   5.109  19.078 -0.1755  0.4404  0.3379
73213W        W16266  11.453  28.630  22.256  0.0983  0.1665 -0.3390
73214W        W16267  11.173  21.650  20.169 -0.1543 -0.2450 -0.0389
73215W        W16268  17.272  27.551  15.540  0.1281 -0.0982 -0.2200
73216W        W16269  17.016   8.844  22.010  0.2469  0.1042  0.0502
73217W        W16270  17.002  11.299  23.454 -0.5114  0.0675 -0.0714
73218W        W16271  31.045  16.027  15.124 -0.3650  0.0712 -0.2295
73219W        W16272  31.532  29.058  15.009 -0.3138  0.0385  0.0052
73220W        W16273  12.974   8.014  26.712 -0.1514 -0.0540 -0.0274
73221W        W16274  12.663   1.643  19.746  0.1703  0.1916 -0.0685
73222W        W16275  11.151  12.962  23.463 -0.1149  0.1708  0.2452
73223W        W16276  12.894   8.758  17.491  0.1154 -0.0823 -0.2185
73224W        W16277   6.180   0.224  27.977  0.1155  0.1628  0.1011
73225W        W16278  27.965  19.423  20.421  0.3534 -0.0720 -0.1542
73226W        W16279  26.370  21.907  21.499 -0.0259  0.1240  0.0055
73227W        W16280  18.166  26.749  17.450  0.0285  0.0102 -0.0710
73228W        W16281   8.060  17.446  15.815  0.0443  0.0182 -0.3326
73229W        W16282  22.102  14.248  18.279 -0.2147  0.4086 -0.0366
73230W        W16283   4.521  30.973  20.547 -0.3326  0.0902 -0.2218
73231W        W16284  18.781  12.746  16.819  0.2885 -0.0302  0.0750
73232W        W16285  31.710  26.611  21.444 -0.0010 -0.1817 -0.2129
73233W        W16286  17.324  31.849  27.389 -0.0195 -0.2047  0.2329
73234W        W16287  24.250  13.859  14.161 -0.0390 -0.1317  0.0585
73235W        W16288  24.236  29.137  16.529  0.0728  0.2613  0.3905
73236W        W16289  24.382  16.886  21.849 -0.0836 -0.1048  0.2562
73237W        W16290   8.184   0.948  21.601  0.2677  0.3341  0.0445
73238W        W16291  30.430   0.019  23.558  0.0944 -0.2815 -0.0283
73239W        W16292   7.879   5.814  23.347  0.0511  0.2480 -0.2309
73240W        W16293  25.369  16.308  16.067 -0.1629  0.1183 -0.1919
73241W        W16294  30.733  18.274  18.374 -0.0579 -0.2948  0.0133
73242W        W16295  18.955  16.906  12.517  0.0910 -0.2865 -0.0372
73243W        W16296  13.842   0.361  16.920  0.1796 -0.2079  0.5791
73244W        W16297  32.865  28.320   7.075  0.1298 -0.0878  0.0674
73245W        W16298  15.675  27.933  21.162 -0.0046  0.0739  0.1315
73246W        W16299  14.698   1.605  21.399 -0.0456 -0.0838  0.2093
73247W        W16300  23.652   6.286  15.426 -0.1502  0.1617  0.1800
73248W        W16301  20.363   9.725  24.414  0.2647 -0.1176  0.2568
73249W        W16302   9.325   6.844   2.436 -0.2617 -0.0770 -0.0743
73250W        W16303  26.456   3.437  21.739  0.1923 -0.3283  0.1882
73251W        W16304   6.457   7.409  21.127  0.2430  0.0213  0.2010
73252W        W16305  17.527  18.925  13.986 -0.2000  0.0890 -0.2269
73253W        W16306  29.598  11.107  16.436  0.0408 -0.2658  0.0064
73254W        W16307  24.964  13.853  16.870 -0.2546 -0.2915 -0.0297
73255W        W16308  11.246   8.820  22.264  0.2022 -0.2338  0.2564
73256W        W16309  23.644   4.914   1.395  0.2314  0.1237  0.3494
73257W        W16310  27.093  24.117  20.957  0.2371  0.1147 -0.0460
73258W        W16311  31.414  18.306  25.596  0.2471  0.0945 -0.0471
73259W        W16312  22.462  10.482  15.334 -0.1903  0.4796 -0.1775
73260W        W16313  13.532  19.235  16.822  0.2077 -0.1367  0.3213
73261W        W16314   1.896  15.392   7.586 -0.1219 -0.0231  0.2613
73262W        W16315  16.475  28.510  23.383  0.1031  0.1184  0.0603
73263W        W16316  26.925   5.044  17.167 -0.2556 -0.0810  0.1312
73264W        W16317   6.490  29.345  23.220 -0.0111 -0.0257 -0.0013
73265W        W16318   7.064  14.418  23.146  0.0757  0.0593 -0.0150
73266W        W16319  21.052   7.173  26.302 -0.1175 -0.1682 -0.1682
73267W        W16320  30.940  30.190  15.164 -0.1933 -0.0763  0.2296
73268W        W16321  17.093  33.251  16.946 -0.2372  0.1309  0.0084
73269W        W16322  23.630  17.881  16.613 -0.1490 -0.0794  0.0552
73270W        W16323  17.620   4.911   0.515  0.1361 -0.1622 -0.1428
73271W        W16324  25.698  30.969  16.471 -0.1686  0.0574 -0.0812
73272W        W16325  15.805  27.599  21.538  0.4057  0.0220 -0.1566
73273W        W16326  12.885  19.166  14.588  0.1302  0.0027  0.0302
73274W        W16327  28.319   8.859   1.093 -0.1256  0.3785  0.4050
73275W        W16328  32.655  24.841  15.157 -0.0792  0.0806 -0.2718
73276W        W16329  25.345  18.655  17.111  0.2197  0.0658  0.0241
73277W        W16330   3.695   3.614  15.196  0.1443 -0.0901 -0.0656
73278W        W16331  15.056  10.366  26.050  0.4967 -0.0604 -0.1762
73279W        W16332  11.301  17.308  16.840  0.0211  0.0907  0.0135
73280W        W16333  21.457   3.534  18.730  0.1102 -0.2106  0.0161
73281W        W16334   6.550  17.476  21.879 -0.1479  0.0184 -0.1063
73282W        W16335   4.824   8.447  15.516 -0.1439  0.1163 -0.0732
73283W        W16336  31.011  21.994  19.993  0.0038 -0.0351  0.0487
73284W        W16337  29.153   6.160  19.668 -0.1880 -0.0941 -0.0371
73285W        W16338  15.698   1.662  15.004 -0.2872 -0.1095  0.0544
73286W        W16339  14.282   6.096  15.409 -0.0985  0.1723 -0.2454
73287W        W16340  13.734  14.086  13.785  0.3309 -0.0857  0.0254
73288W        W16341  27.346  13.698  16.855  0.1223 -0.1047 -0.1692
73289W        W16342  14.186  14.685  27.386  0.1202  0.0381  0.1490
73290W        W16343   9.258  12.264  22.431 -0.0071 -0.2931  0.1237
73291W        W16344  18.288   8.538   4.033 -0.0144 -0.0606  0.0219
73292W        W16345   8.606  13.028  19.127 -0.1104  0.0932  0.1520
73293W        W16346   2.117   7.423  27.037  0.1385 -0.0822 -0.2058
73294W        W16347  23.764  16.280   0.555  0.0377  0.1219 -0.1259
73295W        W16348  26.717   7.144  15.558  0.1591 -0.4543  0.0439
73296W        W16349  27.127  22.370  24.362  0.2908 -0.0490 -0.1698
73297W        W16350  25.398  14.803   1.300 -0.1549  0.3748  0.0506
73298W        W16351  32.973  16.724  22.428 -0.0982 -0.0991  0.2539
73299W        W16352   0.794  10.178  21.641 -0.2828  0.0723  0.1305
73300W        W16353  17.553   4.744  24.349 -0.2238 -0.1043 -0.1706
73301W        W16354  20.387  11.004  15.432  0.0544  0.0571  0.1005
73302W        W16355  25.737   9.807  17.967 -0.0123 -0.2429  0.1199
73303W        W16356   0.513  10.790  22.904 -0.0797 -0.0050  0.0336
73304W        W16357  14.203  20.422  15.308  0.4124 -0.1020  0.1768
73305W        W16358  27.147  29.599  14.533 -0.3939 -0.0302 -0.0783
73306W        W16359  30.195  16.026  17.928 -0.1762 -0.1330 -0.2438
73307W        W16360  32.614  24.913  26.209  0.0227  0.0416  0.0094
73308W        W16361  25.704   2.426  23.673 -0.0663  0.2450 -0.0354
73309W        W16362  25.644  21.923  18.941 -0.3337  0.2178  0.2361
73310W        W16363   9.466  29.191  19.346 -0.0992 -0.2164  0.0910
73311W        W16364  22.783  34.275  17.476  0.2027 -0.0494  0.2385
73312W        W16365  11.715  21.865  20.525 -0.2503  0.1008 -0.3353
73313W        W16366   0.027  10.794  25.486  0.2913  0.1919  0.0964
73314W        W16367  10.577  27.129  16.394  0.0530 -0.3726  0.5065
73315W        W16368   6.082  32.401  25.940  0.2904 -0.1244  0.1511
73316W        W16369  27.972  21.300  22.243  0.2249 -0.1230 -0.3127
73317W        W16370  33.714  24.963  20.453 -0.1507  0.0995  0.0497
73318W        W16371   6.915   1.850  21.628 -0.0922  0.0631 -0.1560
73319W        W16372   9.764  11.283  26.006  0.2081 -0.1424 -0.0432
73320W        W16373  20.244  18.641  20.615 -0.2481  0.0771  0.0732
73321W        W16374   9.175  20.975  23.162  0.1784  0.5519 -0.0920
73322W        W16375   1.328  21.921  20.282  0.1277  0.0237 -0.2540
73323W        W16376  14.360  11.847  19.838 -0.1402  0.1415  0.0667
73324W        W16377  12.497  15.161  23.695 -0.0017  0.6361  0.1066
73325W        W16378  32.808  14.082  17.251 -0.0661 -0.2437  0.0126
73326W        W16379  24.658   7.238  26.094  0.0718 -0.3560 -0.1790
73327W        W16380  14.193  16.501  24.879  0.4284  0.1738  0.0786
73328W        W16381   4.640   8.784  16.030  0.2822 -0.0021  0.0234
73329W        W16382  15.208  26.023   1.284  0.0195 -0.0496  0.0630
73330W        W16383  15.707  26.842  17.624  0.2772 -0.3063  0.9040
73331W        W16384  19.349  17.730  14.403  0.1117  0.0651  0.0206
73332W        W16385  23.249   7.387  19.358 -0.3520 -0.0810 -0.2050
73333W        W16386  25.490   5.330  24.761 -0.0705 -0.0041  0.0603
73334W        W16387  15.016  10.123  18.680 -0.0779 -0.1257  0.0253
73335W        W16388  19.676   2.279   2.963  0.2996 -0.1332 -0.2775
73336W        W16389   6.843  17.100  17.557  0.1410  0.4288  0.1910
73337W        W16390  14.049  14.014   1.133  0.1762  0.0094 -0.1300
73338W        W16391  25.671   6.664  22.714 -0.0557  0.2353 -0.2713
73339W        W16392  26.787  32.103  19.289 -0.0631  0.2913  0.0566
73340W        W16393  15.020   1.626  15.576  0.2242  0.0067  0.1821
73341W        W16394  34.375  11.874  14.682  0.1692  0.0946  0.1294
73342W        W16395  17.618   4.187  14.538  0.3909  0.2900 -0.1786
73343W        W16396   4.841   8.679  17.239  0.1600  0.0614 -0.5233
73344W        W16397   8.471   9.916  19.280  0.2889  0.2267  0.1180
73345W        W16398   0.798   8.343  17.045 -0.1117 -0.0131 -0.1000
73346W        W16399  26.289  20.975  24.978  0.0393  0.0346 -0.1085
73347W        W16400  23.602  20.576  16.451  0.0666 -0.2747 -0.0170
73348W        W16401  14.815  22.865  28.459 -0.1056 -0.1207  0.1869
73349W        W16402  18.271  10.299  21.846  0.1366  0.0403 -0.2182
73350W        W16403  23.975  33.519  23.276 -0.1043 -0.1701 -0.1682
73351W        W16404   6.880  29.269   9.085 -0.2011 -0.0918 -0.1648
73352W        W16405   9.939  10.413  22.826  0.2986 -0.0646 -0.1539
73353W        W16406   7.628   8.339   0.015  0.2146 -0.1317 -0.1903
73354W        W16407  16.234  29.960  15.882  0.2200  0.2801 -0.0194
73355W        W16408  20.753   1.444  22.866 -0.3927 -0.1050  0.0804
73356W        W16409  15.505  12.499  28.479  0.2875  0.2396  0.2270
73357W        W16410   1.712  20.940  22.752 -0.2770 -0.0339 -0.0006
73358W        W16411   0.286   2.167  16.230  0.1757  0.0008 -0.0541
73359W        W16412  20.375  20.066  19.397 -0.1837 -0.1738 -0.0732
73360W        W16413  17.371  16.389  19.102  0.2847 -0.2334 -0.0910
73361W        W16414  26.377  13.580  19.018  0.0886 -0.0754  0.1279
73362W        W16415  21.499  32.117  22.249 -0.1559 -0.0480  0.1811
73363W        W16416  33.647  11.854  14.447 -0.0472  0.0776  0.2878
73364W        W16417  15.734   0.712   0.502 -0.4012 -0.2047  0.1229
73365W        W16418   5.752   6.776  25.639 -0.2057  0.0202  0.0257
73366W        W16419  21.900  25.566  23.986  0.0595  0.2410 -0.1303
73367W        W16420   1.302  11.813   2.683  0.1101 -0.0160  0.2106
73368W        W16421  19.704  17.637   0.632 -0.0504 -0.0132  0.0133
73369W        W16422  25.331  20.830  24.526 -0.0242 -0.3266  0.1680
73370W        W16423   9.901   1.305   6.420 -0.1514 -0.2398  0.2218
73371W        W16424  10.369  22.357  15.936 -0.2124  0.1972  0.1011
73372W        W16425  11.055   3.407   6.607 -0.0655 -0.2331 -0.0978
73373W        W16426   2.623  14.462  28.095 -0.2194  0.3697  0.2985
73374W        W16427   4.777  11.175  23.688  0.0393 -0.2351  0.1237
73375W        W16428  12.065   3.499  23.830  0.0794 -0.3608  0.2047
73376W        W16429  19.059  26.994  16.283 -0.0737  0.1955 -0.1194
73377W        W16430  13.557  12.670  16.192 -0.0333 -0.0356  0.1611
73378W        W16431  14.664  21.466   6.333 -0.1745 -0.0538  0.0574
73379W        W16432  12.656  12.088  15.344 -0.0336  0.2106 -0.1718
73380W        W16433  24.130   0.497  19.242 -0.0628  0.0742  0.1799
73381W        W16434  10.061  25.142  15.377  0.0477  0.2604  0.3803
73382W        W16435  15.974  11.344  20.561  0.0507  0.2038 -0.1221
73383W        W16436  18.440  14.691  15.250 -0.1692  0.1147  0.0063
73384W        W16437  10.618   3.216  15.365 -0.0640  0.0091 -0.3178
73385W        W16438  28.132  16.478  23.090 -0.0772 -0.0308  0.3419
73386W        W16439  28.110  31.042  15.874  0.1408 -0.4021  0.3018
73387W        W16440   1.471  20.265  18.109 -0.0625  0.0514  0.0278
73388W        W16441   2.000  34.551   3.182  0.3532 -0.3240  0.0264
73389W        W16442   3.118  22.723   3.247 -0.3147 -0.4678 -0.0857
73390W        W16443   2.546  16.531   4.922 -0.1953 -0.0475 -0.0169
73391W        W16444   4.976  34.050  25.291  0.2575  0.0621 -0.1767
73392W        W16445  30.015   2.629   1.864  0.1820  0.3241  0.0370
73393W        W16446  31.676  18.003  23.076  0.1608  0.3583 -0.1655
73394W        W16447  24.025   7.449  27.336  0.0565  0.0978  0.3671
73395W        W16448  18.002  11.738  14.732 -0.1143  0.1801 -0.3035
73396W        W16449  20.710  22.729  19.414  0.0391 -0.2348  0.1306
73397W        W16450  13.951  17.266  15.418 -0.1726 -0.2923  0.1440
73398W        W16451  14.660   5.158   6.821  0.1539  0.1488 -0.2446
73399W        W16452  14.781  33.889  17.870 -0.1153 -0.1785 -0.2659
73400W        W16453   7.001   9.209  20.944 -0.0554 -0.0968  0.0464
73401W        W16454   0.035  18.407  13.020  0.2246  0.1620  0.0853
73402W        W16455  21.979   3.913   1.857 -0.0362  0.0309  0.1805
73403W        W16456  15.326  10.870  16.944  0.0288  0.0980  0.1863
73404W        W16457  18.894  11.537  24.328  0.0494 -0.1399  0.2790
73405W        W16458  17.652   3.261  22.355  0.0476 -0.0171  0.3422
73406W        W16459   8.258   1.764   5.451 -0.1993 -0.0281  0.3922
73407W        W16460  18.393  18.521   0.913  0.1673 -0.3909 -0.0700
73408W        W16461  17.925   9.870  10.117 -0.1972  0.1835 -0.0397
73409W        W16462  22.013  26.361  22.466  0.0768  0.0367  0.0514
73410W        W16463  21.097   3.769   1.363  0.1444  0.0611 -0.0014
73411W        W16464   6.030  31.417  26.326  0.0546 -0.1419  0.0011
73412W        W16465  18.229   4.969  20.526  0.0938 -0.1046  0.0227
73413W        W16466  19.714   2.300  26.416 -0.2298  0.0801  0.0182
73414W        W16467  25.961  34.512  26.158  0.0524  0.0457 -0.2288
73415W        W16468  33.747  33.377  28.171 -0.0411 -0.0881 -0.2385
73416W        W16469  20.467  12.012   8.273 -0.2842 -0.0983  0.0082
73417W        W16470  12.980  16.647   9.394 -0.0828  0.2522  0.0184
73418W        W16471  11.819   6.267  27.244 -0.0393 -0.1716 -0.2351
73419W        W16472  25.566  17.761  17.397  0.0895  0.0435  0.2362
73420W        W16473  30.538  18.425   6.108  0.0163 -0.0828  0.0256
73421W        W16474  30.498   9.717  25.395  0.0550 -0.0348  0.0016
73422W        W16475   9.326   9.782  16.346  0.1025 -0.0602  0.1055
73423W        W16476  27.131  18.773  27.647 -0.0386 -0.0379  0.0829
73424W        W16477  13.540   8.268  26.782  0.2181  0.0473 -0.2725
73425W        W16478  15.016   9.768  16.130  0.0753  0.0103  0.3651
73426W        W16479  17.291  14.853  14.595 -0.1499 -0.1507  0.1909
73427W        W16480   1.674   9.761  22.750 -0.0812  0.1379  0.0572
73428W        W16481  21.878  23.155   3.022  0.0706  0.0863  0.1194
73429W        W16482  30.333   8.668  22.146 -0.2523  0.0831 -0.3221
73430W        W16483  22.190  30.519  27.938  0.1941  0.0812  0.4990
73431W        W16484   2.948  31.231   1.523  0.0533 -0.4752 -0.1792
73432W        W16485  20.630  18.050   2.151  0.0798 -0.1192  0.1991
73433W        W16486  16.549  18.876  10.152 -0.1648 -0.0906 -0.1286
73434W        W16487  15.304  30.903  25.182 -0.0070  0.1358 -0.0501
73435W        W16488  34.638  13.387  20.666 -0.1138  0.3424 -0.1374
73436W        W16489  13.620  24.531   2.769 -0.0206 -0.1646 -0.0044
73437W        W16490  29.695  20.103  27.368  0.1127 -0.5973 -0.1131
73438W        W16491  29.315   3.785  27.902  0.0481 -0.0257 -0.0731
73439W        W16492  18.456   8.064  16.454  0.0136 -0.2442 -0.2800
73440W        W16493  29.194   6.865  14.618  0.1221  0.0263  0.0387
73441W        W16494   1.794   4.130  18.127  0.0279  0.0717 -0.0191
73442W        W16495  17.606  25.705   6.313  0.3975 -0.1306  0.1929
73443W        W16496  22.720  20.972  21.958 -0.1420  0.2427 -0.2489
73444W        W16497  16.951   1.451  20.839  0.0111 -0.1052 -0.2404
73445W        W16498  16.714  11.372   1.818  0.1362  0.1496  0.2435
73446W        W16499  31.730   9.544  23.403  0.1350  0.0509 -0.4852
73447W        W16500  24.495  33.900  14.912  0.0512 -0.2291  0.4013
73448W        W16501   8.911   7.512  26.603 -0.0573  0.2096  0.1904
73449W        W16502  14.620   1.302  16.428 -0.0420  0.0853 -0.0211
73450W        W16503  27.500   1.047  28.433  0.3510 -0.5131  0.0458
73451W        W16504  15.179  10.069  27.947  0.0616 -0.1271 -0.2869
73452W        W16505  16.952   3.612  15.152  0.2620 -0.1289 -0.4305
73453W        W16506  21.917  17.198  17.219  0.1488  0.3670  0.2404
73454W        W16507  26.038   8.245  26.830 -0.2214  0.2653 -0.0392
73455W        W16508  10.654  31.023  16.849  0.0876  0.0642 -0.1649
73456W        W16509  10.360  11.394  26.371  0.1946 -0.1263  0.1480
73457W        W16510  23.183  22.475  16.527 -0.1861  0.0600 -0.0150
73458W        W16511  17.233  15.896  18.123  0.0773 -0.0684 -0.0818
73459W        W16512  12.370  11.134  14.919 -0.3788  0.1419 -0.3070
73460W        W16513  19.842  13.667   0.040 -0.0422 -0.1547 -0.1720
73461W        W16514  17.918  11.007   2.759  0.0975 -0.0229 -0.0640
73462W        W16515  34.294  23.623  17.245 -0.0786 -0.0307 -0.1512
73463W        W16516  13.599   4.528  19.917 -0.0870  0.1158  0.2684
73464W        W16517   7.629  12.656   1.278  0.2368  0.0144 -0.0111
73465W        W16518  12.200   6.218  23.755 -0.2524  0.0578 -0.1352
73466W        W16519  27.226   1.516  17.600 -0.0565  0.1887  0.2612
73467W        W16520  11.581   1.402  14.406 -0.1151 -0.2754 -0.1984
73468W        W16521  21.137  10.342   2.117  0.1408  0.2975  0.0185
73469W        W16522  34.556  32.198  26.030  0.1434  0.5606  0.0010
73470W        W16523  14.604   5.134  14.282  0.1287  0.1319 -0.1941
73471W        W16524  12.265  30.987   4.251  0.2545 -0.0937  0.0257
73472W        W16525  18.661  17.799  17.774  0.0466 -0.1340 -0.2015
73473W        W16526   8.856   2.962  17.576  0.0687 -0.1502 -0.1437
73474W        W16527  19.311   8.578  21.036  0.0031 -0.1342  0.0098
73475W        W16528  30.267  18.414  20.438 -0.2998  0.2946 -0.1024
73476W        W16529  13.698  21.209  20.242 -0.3025  0.2252 -0.1577
73477W        W16530  14.569  22.501  17.979  0.0996  0.2614 -0.1210
73478W        W16531  16.965  16.006  18.570 -0.2900  0.3581  0.3047
73479W        W16532  13.921  12.237   8.920 -0.0944  0.0520  0.1818
73480W        W16533  12.402  18.054  22.688 -0.1433  0.1802 -0.0520
73481W        W16534  13.414  11.357   8.849  0.1722 -0.0275  0.0099
73482W        W16535   5.673  28.931  15.489 -0.3049  0.2957  0.0255
73483W        W16536  29.700   7.964  28.433 -0.1014 -0.0308 -0.0712
73484W        W16537   8.658   4.805  25.979  0.0615  0.0274 -0.1922
73485W        W16538  27.225   7.764  19.838  0.0954  0.1329  0.3478
73486W        W16539   4.285  12.432  17.458  0.2937 -0.3358  0.0746
73487W        W16540  29.939   6.350   7.943 -0.2861 -0.0422 -0.1048
73488W        W16541   9.389   0.847   1.973  0.0719  0.2170 -0.0610
73489W        W16542   8.349   8.930  20.760  0.3536  0.0735  0.1754
73490W        W16543  19.167  10.510  25.348 -0.3798 -0.2061 -0.0123
73491W        W16544   7.920  19.110  19.129  0.2020  0.1223  0.1411
73492W        W16545  12.970  17.024  27.044  0.1866 -0.0630 -0.1470
73493W        W16546   0.004  23.630   7.200 -0.2294 -0.2063 -0.0094
73494W        W16547   5.244   2.093   5.280  0.3275  0.2008 -0.0351
73495W        W16548  24.055  15.214  16.552 -0.1704 -0.0876  0.1401
73496W        W16549   7.844  19.990  14.538  0.0069  0.1261  0.0090
73497W        W16550  16.956  29.523  22.672  0.3563  0.1793  0.2460
73498W        W16551   2.968  17.096  16.618  0.0562  0.0689 -0.4050
73499W        W16552  25.148  15.497  25.511 -0.0384 -0.0687 -0.1551
73500W        W16553  22.174   8.087  29.060 -0.0739  0.0368 -0.1579
73501W        W16554   9.035  17.008  20.724  0.0612 -0.2436 -0.1764
73502W        W16555  13.380   9.654  19.172 -0.1579  0.1852 -0.3672
73503W        W16556  19.889   7.183   3.116  0.3753  0.0966  0.1488
73504W        W16557   3.874   9.154  23.413  0.1695 -0.1525  0.2276
73505W        W16558  15.044   8.648   1.446  0.0704 -0.0797  0.1942
73506W        W16559  23.728  12.678  17.975  0.0995  0.1967  0.1844
73507W        W16560  19.140  18.768  13.541 -0.2691 -0.0579 -0.1425
73508W        W16561   6.450   1.024   0.028 -0.2158  0.1072  0.1680
73509W        W16562  22.550  28.450   0.897 -0.0106  0.4269 -0.2080
73510W        W16563  25.043  11.684  26.363 -0.2041 -0.0878  0.3129
73511W        W16564   0.736  16.693  19.962  0.4507  0.1611  0.2606
73512W        W16565  33.402   7.486   3.370  0.0553  0.0404  0.0828
73513W        W16566  17.153  12.704  27.174 -0.0791  0.1312  0.1602
73514W        W16567   8.330  10.927  19.575  0.2623  0.1254  0.0845
73515W        W16568  16.011  10.975  23.102  0.1679  0.1063  0.1049
73516W        W16569  31.700  32.312  22.442  0.0601 -0.0886 -0.0950
73517W        W16570  17.477  27.316  22.556  0.3504 -0.0593  0.0136
73518W        W16571  12.614   4.090  26.525 -0.1921  0.2851  0.1835
73519W        W16572   7.791  13.455   3.414  0.0238 -0.0546  0.1435
73520W        W16573  13.093   5.336  15.377 -0.2128 -0.0261  0.0211
73521W        W16574   4.264  34.586  28.838 -0.1023 -0.0380 -0.0534
73522W        W16575  11.119   6.493  20.447 -0.1106 -0.0637 -0.1992
73523W        W16576  27.001   6.747  24.857 -0.0597 -0.0141  0.2449
73524W        W16577   8.850  15.597  21.976 -0.2845 -0.0906 -0.1993
73525W        W16578   9.359  15.745  20.054  0.0101  0.0577  0.1203
73526W        W16579   5.803   4.043  16.285  0.0981 -0.2984  0.2415
73527W        W16580  22.072  22.672  19.937 -0.1329 -0.1767 -0.2426
73528W        W16581  19.302  18.204  15.610  0.2575 -0.1142 -0.1760
73529W        W16582  27.653  10.084  20.459 -0.0039 -0.0577  0.0548
73530W        W16583  31.442   2.082  22.967  0.0867  0.0582 -0.0051
73531W        W16584  24.440   8.318  27.796  0.0720  0.1804  0.2362
73532W        W16585  12.293  24.911  14.934  0.2113  0.2320  0.0380
73533W        W16586  18.692  13.817  14.555  0.0735 -0.0920 -0.0661
73534W        W16587   4.779  12.551   9.979 -0.1228 -0.1238  0.0433
73535W        W16588  15.039  17.007  22.549 -0.1755  0.1613  0.0662
73536W        W16589  17.312  10.961  15.148  0.1599  0.1003  0.0600
73537W        W16590   4.714  18.270   2.968  0.0688  0.2841 -0.2366
73538W        W16591  16.553  27.468  25.725  0.2384  0.4188  0.0145
73539W        W16592  15.481  20.878  10.117  0.0721 -0.0038  0.4370
73540W        W16593  11.224  34.658  21.379 -0.3132 -0.1016 -0.2174
73541W        W16594  23.215  21.624  21.125 -0.3444 -0.3125  0.2678
73542W        W16595   9.278   4.678  26.008 -0.1238  0.1087  0.0829
73543W        W16596  28.193  18.770  16.145 -0.1760  0.0020 -0.0247
73544W        W16597   8.722  20.079  28.626  0.1963  0.0466 -0.0401
73545W        W16598  10.255   5.760  17.249  0.0591  0.2641  0.1346
73546W        W16599  26.122  15.211  23.830 -0.0442  0.5019 -0.3096
73547W        W16600  15.820  21.792  10.339  0.1518 -0.0633  0.2669
73548W        W16601  24.649  19.746  23.149 -0.0366 -0.2526  0.1083
73549W        W16602  17.432  33.359  27.165 -0.1639 -0.1320  0.2242
73550W        W16603  18.526  31.463   5.896  0.1863 -0.2062  0.1333
73551W        W16604   8.530  34.230   0.854 -0.0613 -0.2067 -0.1587
73552W        W16605  29.222   3.085   1.752 -0.2516 -0.2794  0.2837
73553W        W16606  14.964   9.765  18.243  0.2162 -0.0073  0.0627
73554W        W16607  25.053  15.118  16.105 -0.0566  0.1464 -0.1166
73555W        W16608  18.412  12.219  24.111 -0.1167  0.3326 -0.1537
73556W        W16609  15.926   7.504  28.486 -0.3297  0.2587  0.0508
73557W        W16610   1.806  29.280  22.554 -0.0352  0.3661  0.1402
73558W        W16611   3.467   9.025  27.582  0.1917  0.1660 -0.2854
73559W        W16612   1.442  16.707  28.928 -0.1677  0.0225  0.1751
73560W        W16613  20.990   2.247  14.457 -0.1645 -0.3130 -0.0642
73561W        W16614   2.021  18.421  22.175  0.1520 -0.0056 -0.1175
73562W        W16615  11.535   6.820  18.985  0.0405 -0.0641  0.0734
73563W        W16616  16.033  10.555   9.184 -0.2468  0.1143  0.0913
73564W        W16617  26.645  22.900  15.616  0.1276 -0.0943 -0.1218
73565W        W16618  29.384  17.488  18.974 -0.1863 -0.0483 -0.1253
73566W        W16619  17.774  15.438   2.770 -0.0466 -0.0098  0.3172
73567W        W16620  29.918  17.276  18.232  0.0707 -0.0673 -0.1845
73568W        W16621  14.886  18.590   1.961  0.2947  0.0245 -0.1533
73569W        W16622  12.239   4.732  21.525 -0.0142 -0.0182 -0.2520
73570W        W16623  26.840  14.027  20.688 -0.0435  0.1190 -0.1828
73571W        W16624   7.130  13.484  25.023 -0.0436 -0.0764 -0.4453
73572W        W16625  22.583   0.955   2.698  0.0297 -0.0571  0.0151
73573W        W16626   7.275  15.231  20.728  0.1181 -0.1186 -0.0598
73574W        W16627   0.465   5.342  20.174  0.0972  0.1089 -0.2399
73575W        W16628   4.641  12.999  24.224  0.0890  0.0233  0.0390
73576W        W16629  10.633  11.926  18.407 -0.3947  0.1847  0.1704
73577W        W16630  28.205  15.952  17.330  0.2852 -0.5444 -0.0773
73578W        W16631  17.162  19.811  14.780 -0.0257  0.3333  0.0621
73579W        W16632  33.495  27.326  18.187  0.2821 -0.1507 -0.1770
73580W        W16633   2.212  14.585  27.445  0.4085  0.1342 -0.0396
73581W        W16634  13.773  30.221  29.040 -0.1542 -0.1856  0.3313
73582W        W16635  18.646  10.150  15.423  0.3164  0.1815 -0.1087
73583W        W16636  23.040  10.934  14.702  0.2607 -0.0046 -0.3570
73584W        W16637   7.388  16.152   4.748  0.0416  0.0672  0.1774
73585W        W16638  16.848  21.354   5.437  0.2809  0.2165 -0.0339
73586W        W16639  22.418  22.467  20.261  0.4657  0.0876 -0.0086
73587W        W16640   5.028   2.459  18.382  0.2629 -0.1924  0.5229
73588W        W16641  21.515  32.511   7.980  0.1247 -0.2906  0.2930
73589W        W16642  23.584   2.959   6.834 -0.0311 -0.2244 -0.1179
73590W        W16643   8.650   8.409   1.412 -0.2163  0.2295  0.0704
73591W        W16644  18.658   0.961   5.362  0.2983  0.0467  0.0250
73592W        W16645  22.848  30.101   3.313  0.2494 -0.1117  0.3047
73593W        W16646   5.486  31.574   4.043  0.3048  0.0018  0.2309
73594W        W16647   7.345  15.052   0.462  0.1710 -0.2658  0.1546
73595W        W16648   3.371   8.755  20.245 -0.0653 -0.4685 -0.3929
73596W        W16649  18.072  21.751   0.513 -0.1972 -0.2572  0.0456
73597W        W16650  14.245   5.239   9.501  0.0857 -0.0625 -0.1027
73598W        W16651  22.250  10.941   4.943 -0.2530  0.4734 -0.1866
73599W        W16652  10.478  14.788  22.358 -0.2072  0.0869 -0.0155
73600W        W16653  13.108  22.758  21.789 -0.1991  0.0209 -0.3652
73601W        W16654   8.335  11.912   9.482 -0.0678  0.0921 -0.1612
73602W        W16655   3.671   3.715  21.839  0.2535  0.0640 -0.1873
73603W        W16656   3.519  20.088  17.109 -0.0488 -0.1445 -0.1206
73604W        W16657  10.416  10.624  23.617  0.0878  0.1298  0.0488
73605W        W16658  13.818  16.920  16.914 -0.0160  0.4122 -0.2117
73606W        W16659  21.323  21.393  25.007  0.1135 -0.3551 -0.1725
73607W        W16660  21.937   8.216   7.266  0.0551  0.2035  0.0407
73608W        W16661  17.313  18.812  18.684 -0.1180 -0.1570 -0.2058
73609W        W16662   9.442  27.872  22.992 -0.1066 -0.0411 -0.1230
73610W        W16663   0.782  19.638  22.743 -0.1806  0.0067  0.2276
73611W        W16664   4.171   7.008  21.781 -0.0022 -0.1170 -0.2134
73612W        W16665  14.445  32.724  19.960  0.2719 -0.0841 -0.0867
73613W        W16666   3.384  19.112  21.784 -0.1636  0.1332 -0.0917
73614W        W16667  21.146   9.780  26.620  0.0605  0.3276 -0.1103
73615W        W16668  24.345  19.864  21.356 -0.3790 -0.2241 -0.0295
73616W        W16669   1.011  15.067  23.112  0.2124 -0.2077  0.0219
73617W        W16670  19.508  31.708  29.198 -0.1659 -0.1576  0.1695
73618W        W16671   8.184  13.922  23.665 -0.0447 -0.0130 -0.2621
73619W        W16672  26.447  14.412  18.144 -0.4152 -0.0948 -0.0079
73620W        W16673   6.333   0.585  27.109  0.0250 -0.1871  0.0412
73621W        W16674  18.014  24.408   9.362  0.0885  0.0817 -0.0342
73622W        W16675  24.451  13.914  25.074  0.1249  0.0088  0.1882
73623W        W16676  15.205  34.678   3.950 -0.1767  0.0118  0.3759
73624W        W16677  19.005  24.472   7.708  0.1456  0.0995  0.3488
73625W        W16678   6.958  14.154  21.339 -0.3041 -0.1489  0.2297
73626W        W16679  17.984   6.113  21.114  0.0821 -0.1146 -0.0209
73627W        W16680  22.649  19.760   8.015 -0.0621  0.1247  0.2385
73628W        W16681  14.031   0.503   1.962 -0.1694 -0.2288 -0.2386
73629W        W16682   5.874  16.126  25.572  0.0958 -0.1201  0.0747
73630W        W16683  19.446   5.494  22.375  0.0570 -0.3519 -0.0285
73631W        W16684  33.507  33.682  14.472 -0.1346 -0.1417  0.3316
73632W        W16685   5.787   2.170  19.038 -0.1696 -0.1362  0.2608
73633W        W16686   9.379  26.646  21.826 -0.0787  0.2224  0.0797
73634W        W16687   7.626   0.994   5.511 -0.0010 -0.1937  0.4541
73635W        W16688   5.997  21.651  15.342  0.1932 -0.0769  0.0538
73636W        W16689   9.602  13.674   1.026  0.0865 -0.0210  0.2213
73637W        W16690  19.363   5.549  24.430 -0.0882 -0.0942  0.5683
73638W        W16691  27.628   7.724  26.041  0.2143 -0.1830 -0.0980
73639W        W16692  17.742   9.663  16.797 -0.1725  0.0751 -0.1724
73640W        W16693  17.002  19.413  27.023  0.0216  0.0790 -0.0776
73641W        W16694  19.421  22.690   0.778 -0.0221  0.2495 -0.3204
73642W        W16695  24.387  28.263  17.178  0.1338  0.0726  0.1294
73643W        W16696  16.828  16.708  12.831 -0.1499 -0.1353 -0.1706
73644W        W16697  14.351  12.541  15.285 -0.0977  0.1092  0.0068
73645W        W16698  20.180   9.514  27.672  0.1607  0.1804  0.1190
73646W        W16699  19.093   1.430   7.828 -0.2861  0.1532 -0.1529
73647W        W16700  20.702   6.292  25.449 -0.1615  0.0527  0.1068
73648W        W16701   7.972  18.457  21.565 -0.1591  0.2050 -0.2290
73649W        W16702  23.545  23.417  18.469 -0.0019  0.0127 -0.3389
73650W        W16703  23.011  33.831   2.563  0.2486  0.0715 -0.1587
73651W        W16704  20.563  23.361  15.761 -0.1002  0.1221  0.2329
73652W        W16705  21.455   2.952   0.394  0.0435  0.1801  0.0098
73653W        W16706  17.751  17.184  21.001 -0.0068  0.1974  0.0055
73654W        W16707  29.056   3.334  27.907  0.0264 -0.1617  0.1717
73655W        W16708  26.573  21.899  14.845 -0.0268 -0.0395  0.1535
73656W        W16709  24.381  20.786  24.803  0.2309 -0.1859  0.3766
73657W        W16710  19.436   9.983  23.891 -0.0248  0.2740 -0.0948
73658W        W16711  26.336  14.069   2.718 -0.0641  0.1573 -0.0227
73659W        W16712  15.659   4.832  27.227  0.1675  0.0783  0.0506
73660W        W16713   7.522  13.592  17.466  0.3395 -0.0684 -0.1856
73661W        W16714   5.939  21.888  17.191 -0.2497  0.1414  0.3387
73662W        W16715  12.452   1.858  25.836 -0.0754 -0.3281 -0.1542
73663W        W16716  14.494   1.005  14.807 -0.3955  0.3507  0.0902
73664W        W16717   4.552  18.836   0.854  0.0144 -0.1140 -0.1508
73665W        W16718   5.844  29.036  20.685  0.0329 -0.1132  0.0876
73666W        W16719  17.238   3.918   5.735  0.2113 -0.3996  0.2014
73667W        W16720  19.545   9.351   7.152  0.0670 -0.1030 -0.0217
73668W        W16721  33.294   4.773  22.416  0.0219  0.0934  0.0229
73669W        W16722  27.430   4.028  16.129 -0.2703  0.5002  0.0510
73670W        W16723   9.963  14.684   3.477 -0.0753 -0.2398 -0.3004
73671W        W16724   7.466  24.147   5.307 -0.1220  0.1829  0.1800
73672W        W16725  16.794  10.344   1.582  0.0776 -0.2217 -0.1803
73673W        W16726  26.394  18.727   6.746 -0.0572 -0.0979 -0.0186
73674W        W16727  19.141  25.347   2.115 -0.0045  0.1345  0.0084
73675W        W16728  13.814  12.195   2.229  0.2013 -0.2091 -0.1496
73676W        W16729  22.217  10.911  25.451 -0.0061  0.2774 -0.0547
73677W        W16730   6.179  11.136   8.347 -0.3359  0.0949  0.0928
73678W        W16731  21.133  20.240   6.994 -0.2613 -0.2109  0.2208
73679W        W16732  10.278  11.489  21.989 -0.3189  0.3362 -0.2099
73680W        W16733  17.966  12.183   1.222  0.0806  0.0311  0.2119
73681W        W16734  17.599  26.460  16.517 -0.0541  0.1340  0.2485
73682W        W16735  25.068   3.347  24.885  0.0974 -0.1636  0.1439
73683W        W16736  16.650  31.379   0.268 -0.0671 -0.0692 -0.2224
73684W        W16737  13.117  21.521   5.756 -0.1017 -0.0809 -0.0370
73685W        W16738  30.305  22.529   5.430  0.2778  0.2981 -0.1734
73686W        W16739  16.384   8.811   8.592  0.0526  0.1988  0.0644
73687W        W16740  14.224  21.994  26.837 -0.0860  0.1976 -0.0202
73688W        W16741  20.905  20.294  16.653  0.0282 -0.3068 -0.2937
73689W        W16742   9.412  24.436  22.602 -0.0901 -0.1448 -0.0899
73690W        W16743   6.595   3.916   8.850  0.2066 -0.3285 -0.0619
73691W        W16744  15.914  11.965  22.007  0.2004  0.2860  0.0319
73692W        W16745   6.626  28.307   2.726  0.4409 -0.0673  0.2885
73693W        W16746  23.922   3.475  25.506 -0.2278  0.0989 -0.2053
73694W        W16747  31.342  14.970   9.067  0.0934  0.0906  0.1986
73695W        W16748  31.923  20.975  15.128  0.1666  0.1677  0.3977
73696W        W16749  19.625   2.810  25.041 -0.0482  0.2916 -0.4738
73697W        W16750  21.106  14.738  22.178 -0.0396  0.1426 -0.0694
73698W        W16751  16.398   7.052   2.824  0.1005 -0.0857 -0.0322
73699W        W16752  23.691   1.676  19.952  0.0813 -0.2096 -0.2784
73700W        W16753  22.912  15.047   3.001  0.2150 -0.0891  0.3893
73701W        W16754  22.309  11.781  14.760  0.1987  0.0089 -0.3395
73702W        W16755  18.628   6.300  25.458 -0.0284  0.2221 -0.2029
73703W        W16756  16.417   6.920  24.302  0.0066  0.0036  0.1286
73704W        W16757  24.974   4.519   2.058  0.4057 -0.2319  0.2626
73705W        W16758   6.989   8.238   3.441 -0.1877  0.0878  0.0411
73706W        W16759   7.152   4.251  27.257  0.1813  0.1435  0.1476
73707W        W16760  19.471  15.877   8.543  0.0123  0.2493 -0.0519
73708W        W16761  14.478  18.250  21.602  0.1563 -0.1875  0.1452
73709W        W16762  16.995  11.459   5.152  0.0973  0.0081 -0.0941
73710W        W16763  20.061  16.897   7.956 -0.3370  0.0724  0.0827
73711W        W16764  13.304  15.187  10.958  0.0610 -0.1211 -0.0529
73712W        W16765  12.695   8.882  27.004  0.0215 -0.1337 -0.2217
73713W        W16766  18.731  11.167   8.222 -0.2563 -0.0662  0.2324
73714W        W16767  14.328  13.636  26.871  0.0883  0.2453 -0.0073
73715W        W16768  12.512  31.477   5.074  0.3754  0.1401 -0.1328
73716W        W16769  27.227  22.586  23.325 -0.2549 -0.2383 -0.3069
73717W        W16770  28.951  16.309  14.934 -0.1724 -0.2251 -0.1763
73718W        W16771   4.514  18.155   9.227  0.3754 -0.1663  0.1988
73719W        W16772   1.382  21.392   3.585 -0.0970  0.0994 -0.0283
73720W        W16773  23.367  21.617  16.434  0.2081 -0.4198  0.0538
73721W        W16774  18.356  26.737  21.393 -0.2552  0.0202  0.1544
73722W        W16775   3.488   1.915   1.255  0.2594 -0.0042  0.3799
73723W        W16776  29.524   8.148   4.779 -0.0024 -0.4195  0.4091
73724W        W16777   1.969  32.458   4.972 -0.2269  0.2043  0.1852
73725W        W16778  34.372   8.282   2.202 -0.3934 -0.1034  0.2626
73726W        W16779  16.311  16.000   5.473  0.0795 -0.0799  0.3253
73727W        W16780  30.384  17.900  19.609 -0.2943  0.1335  0.2897
73728W        W16781  11.982   7.043  15.977 -0.0301 -0.0316 -0.3384
73729W        W16782  10.132   5.658  24.708 -0.3316  0.0313  0.5752
73730W        W16783  11.937  30.453   4.805  0.1100  0.1080  0.1463
73731W        W16784  12.538  21.269   9.586  0.1558  0.0456 -0.3127
73732W        W16785   6.614  13.640  25.879  0.2434 -0.0363 -0.1855
73733W        W16786  12.454  18.398  25.346 -0.2331  0.0351 -0.1643
73734W        W16787  26.961   7.429  15.074  0.0620  0.0142 -0.0082
73735W        W16788  12.132  14.573  10.799 -0.0137  0.0485  0.0920
73736W        W16789  22.504  15.266  28.352 -0.2459 -0.1925 -0.0426
73737W        W16790  23.034  11.164   8.790  0.0945 -0.0664 -0.1506
73738W        W16791   7.269   9.295  28.132 -0.0323  0.0029  0.0081
73739W        W16792  20.394   1.964  19.619 -0.2259  0.0167  0.1313
73740W        W16793  21.192   9.415  16.516  0.0335  0.0701 -0.2738
73741W        W16794   0.716  10.818   9.371 -0.0169  0.2377  0.1441
73742W        W16795  10.949  28.719  15.786  0.1104 -0.0173 -0.0911
73743W        W16796  11.596   5.990  17.185 -0.0687  0.2580  0.1341
73744W        W16797  16.184  32.533   5.111  0.0756 -0.1690  0.0637
73745W        W16798  26.683   7.437  21.782 -0.0240  0.0178 -0.4232
73746W        W16799  32.989  32.119   4.872 -0.0472  0.1138  0.0980
73747W        W16800  18.175  15.078  13.560  0.3113 -0.5105  0.1791
73748W        W16801  10.678   1.888  22.023 -0.2503 -0.1494 -0.1358
73749W        W16802   8.292  15.499   7.474  0.1084  0.3848 -0.1618
73750W        W16803  21.758   1.929  20.793  0.0142 -0.1470  0.3537
73751W        W16804  24.513  29.747  20.679 -0.0768  0.3031  0.1375
73752W        W16805  21.031   1.851  16.390 -0.0593 -0.1279 -0.3998
73753W        W16806  13.927  11.843  21.879  0.1667  0.3127  0.1881
73754W        W16807  18.230  25.147  20.219  0.1784 -0.0070 -0.2156
73755W        W16808  29.315  11.081  17.478 -0.0017 -0.1605 -0.0815
73756W        W16809  23.118   6.770   9.634 -0.0189  0.0849  0.0133
73757W        W16810  28.972  14.044   6.053  0.3034  0.0451 -0.0768
73758W        W16811  18.515  17.207  24.106 -0.1484  0.2508 -0.1490
73759W        W16812  25.263   4.456  26.114  0.0857 -0.0451 -0.1673
73760W        W16813  18.107  12.990  18.837 -0.0152 -0.1856 -0.1067
73761W        W16814  13.121   8.240   2.885  0.0341  0.0127 -0.0543
73762W        W16815  10.514  29.840  20.780  0.1975  0.0819  0.0027
73763W        W16816  26.205  22.547   1.856 -0.2838 -0.1411 -0.2905
73764W        W16817  18.884  13.468  16.272  0.0549 -0.2070 -0.1788
73765W        W16818  33.768  10.499  24.920  0.1269 -0.1386 -0.2613
73766W        W16819  28.620  30.905   5.131 -0.1803 -0.0856  0.0355
73767W        W16820   6.685  23.806   1.281  0.2006  0.0576  0.0576
73768W        W16821  13.461  13.628  19.187 -0.0311  0.1079  0.2059
73769W        W16822  10.562  12.828  18.528 -0.0959  0.0426 -0.0097
73770W        W16823  25.095  16.076  19.034  0.2421  0.0744 -0.3276
73771W        W16824  32.891   8.283  29.139 -0.0960  0.1745  0.0804
73772W        W16825  21.267  32.853  22.494 -0.1482  0.0258  0.0400
73773W        W16826  22.497  16.901  27.451 -0.3651 -0.0984  0.1426
73774W        W16827  20.381   7.343  22.441 -0.4034  0.1155 -0.0272
73775W        W16828  15.602  22.329  18.175 -0.1593  0.0257  0.0664
73776W        W16829  13.599  15.038   7.575 -0.0745  0.3553 -0.1388
73777W        W16830  11.508  18.382  29.012 -0.0531  0.4629 -0.1264
73778W        W16831   6.714   7.267   3.569 -0.0617 -0.2673 -0.2964
73779W        W16832  25.101   9.749   6.466 -0.1383 -0.2371  0.4277
73780W        W16833  29.901   4.346   4.355 -0.0456  0.0394 -0.3244
73781W        W16834  16.508   9.845  24.364  0.2929 -0.1954  0.0653
73782W        W16835  10.113  16.239  22.958  0.2382 -0.0149 -0.0194
73783W        W16836   9.469  13.488  10.205 -0.4657  0.1605  0.0811
73784W        W16837  23.907   9.359  27.743  0.1915 -0.1228  0.3436
73785W        W16838  12.225   9.549  16.749 -0.1436  0.2287  0.4138
73786W        W16839   7.061   2.326  21.624  0.3078 -0.0906  0.1365
73787W        W16840  13.786   3.818   6.808  0.1114 -0.0024  0.1081
73788W        W16841   1.039  24.835   8.271 -0.1636 -0.0646  0.0788
73789W        W16842  17.419  11.480   8.543  0.1189 -0.1553 -0.0125
73790W        W16843  26.516  27.054  28.217  0.1450 -0.0378  0.0788
73791W        W16844  29.013  12.146   2.479 -0.0845  0.2870  0.2490
73792W        W16845  12.184  12.977  25.322 -0.3332 -0.0770  0.0253
73793W        W16846  17.455   9.486  22.853  0.1053  0.2481 -0.1555
73794W        W16847   6.380   6.893  28.551 -0.2109 -0.0089 -0.1308
73795W        W16848  15.518   6.906  18.270  0.1632  0.1288 -0.1517
73796W        W16849  13.459  22.598  25.571  0.0050  0.0060  0.2268
73797W        W16850   2.167  13.688  23.379  0.1679  0.2184 -0.3761
73798W        W16851  17.369  30.272   3.751  0.0774 -0.4068  0.0138
73799W        W16852   3.079  15.025   5.337 -0.2469  0.1331  0.2316
73800W        W16853  10.606  29.156  15.648  0.0476  0.1253  0.0190
73801W        W16854   5.896  32.176   5.722  0.2493  0.0628  0.0433
73802W        W16855  12.996  25.208   4.302  0.1101 -0.0632  0.1764
73803W        W16856   2.135  33.198  27.953  0.0947 -0.1241 -0.1482
73804W        W16857  23.720   4.875  16.976 -0.1794 -0.3061 -0.0636
73805W        W16858  11.671  21.537   1.194 -0.0814 -0.1676 -0.0404
73806W        W16859  15.367   5.905  23.430 -0.0566  0.1090 -0.0694
73807W        W16860   5.575  15.561  19.325  0.3020  0.0535 -0.2178
73808W        W16861  17.419  11.628  24.295 -0.1483 -0.1004 -0.1618
73809W        W16862   2.848  32.194  24.842  0.0488 -0.0941 -0.0317
73810W        W16863   7.338  22.708  25.021 -0.2282 -0.1667 -0.2277
73811W        W16864  23.449  20.605  26.480  0.2128 -0.3199 -0.0345
73812W        W16865  32.405   3.516   1.097 -0.1353  0.0839 -0.2622
73813W        W16866  21.410  10.707  21.011  0.2442  0.1564 -0.1335
73814W        W16867  32.193  31.987  14.509  0.0778  0.0789 -0.1659
73815W        W16868  11.424  13.300   2.827 -0.4179  0.1427  0.3151
73816W        W16869  19.826  10.381   1.505  0.1164 -0.0397 -0.0079
73817W        W16870  16.934   3.379  24.408 -0.1185 -0.0962  0.2109
73818W        W16871  14.167   6.093   5.968 -0.0254  0.0103  0.1040
73819W        W16872  30.655  14.027   7.043 -0.0219  0.2942 -0.2595
73820W        W16873  16.855  11.143   5.944  0.1586  0.3109  0.2408
73821W        W16874  14.826   8.242  10.316 -0.3348 -0.1801 -0.0269
73822W        W16875  17.633  13.736  23.856  0.0953  0.2930 -0.1414
73823W        W16876  15.655  17.842  15.642 -0.4394 -0.1590 -0.1925
73824W        W16877   4.843   9.979  29.015 -0.1545  0.2114 -0.1001
73825W        W16878   9.838  21.876  25.723  0.0555  0.2029 -0.1453
73826W        W16879  19.933  17.328  21.134  0.2432  0.1325  0.2927
73827W        W16880  11.504   1.486   7.445  0.2775 -0.1408 -0.1552
73828W        W16881  15.875  26.268  23.704 -0.1434 -0.0054 -0.1565
73829W        W16882   9.214  30.112   0.885 -0.1751 -0.0524  0.0027
73830W        W16883  15.978  21.083   2.512 -0.1140 -0.1107 -0.0235
73831W        W16884  23.711  29.939   9.882  0.3667 -0.0186 -0.3973
73832W        W16885   8.268  10.129  21.422  0.2008  0.0711  0.0169
73833W        W16886  23.615  32.128   1.782 -0.0639 -0.2311  0.2401
73834W        W16887  30.254  10.300   1.389 -0.1512 -0.2516 -0.0158
73835W        W16888   8.802  28.449  18.449 -0.1822 -0.1976 -0.0726
73836W        W16889  17.292  27.603  25.062 -0.2532 -0.3656 -0.1414
73837W        W16890  20.185   8.096  21.672  0.0625  0.1497 -0.2849
73838W        W16891  13.248  26.041  15.335  0.0044 -0.3715  0.1169
73839W        W16892  21.855  28.217  24.435 -0.3912 -0.0568 -0.1409
73840W        W16893  14.832  24.648   7.774 -0.1815  0.0959 -0.0429
73841W        W16894   8.419  12.848  11.046 -0.1825  0.1832  0.1058
73842W        W16895  15.019  16.753  13.442  0.1045 -0.1172 -0.0516
73843W        W16896   8.249  12.186   0.866 -0.0966  0.0920  0.1435
73844W        W16897  12.688   1.070  14.969 -0.1715  0.4355 -0.3976
73845W        W16898  14.999  10.590  16.582  0.1399  0.2244 -0.1882
73846W        W16899  25.714   9.597  27.233 -0.1538  0.1503 -0.1949
73847W        W16900   6.291  14.985  17.720  0.0610 -0.0795 -0.2309
73848W        W16901  24.679  11.884  24.477  0.1385 -0.0524  0.1216
73849W        W16902  15.420   3.785   8.310 -0.5973 -0.1265  0.3493
73850W        W16903  32.836  13.654  14.472 -0.0344  0.1207  0.1464
73851W        W16904  28.867  27.117   4.982 -0.0440  0.0047 -0.0636
73852W        W16905  17.922  15.500   4.328 -0.4144 -0.2745 -0.0552
73853W        W16906   9.634   8.164  26.894 -0.3295 -0.1008  0.0250
73854W        W16907  11.338  15.924  16.202 -0.0688  0.3480 -0.3458
73855W        W16908  34.599  13.721  24.400  0.2742 -0.0476  0.2470
73856W        W16909  18.278   3.308  27.464 -0.1498 -0.0335 -0.2294
73857W        W16910  27.143   2.151  16.287 -0.0533 -0.0342  0.1369
73858W        W16911  21.585   7.510  25.767 -0.1840  0.2771  0.0795
73859W        W16912  16.629  15.032   2.897 -0.0585 -0.6715  0.1849
73860W        W16913  33.948  15.377  28.746  0.2628 -0.1442  0.0332
73861W        W16914  20.874  11.761   8.008  0.1173 -0.0355  0.0891
73862W        W16915  14.054  14.622   2.427  0.1417 -0.0074  0.1588
73863W        W16916  17.821   8.733   0.492 -0.1956  0.2203 -0.4700
73864W        W16917  27.385  10.975  11.284  0.0198  0.0264  0.2223
73865W        W16918  15.883  31.400  18.001 -0.1953 -0.1062 -0.0270
73866W        W16919  24.662   9.438   8.091  0.0945  0.3246 -0.0195
73867W        W16920  10.052   2.573  18.052  0.0357  0.1283  0.0311
73868W        W16921  26.802  30.812  25.850 -0.0094 -0.1843  0.1204
73869W        W16922   4.606   6.814  18.621 -0.0174  0.1118 -0.1899
73870W        W16923  19.694  17.178  26.523  0.0180 -0.0158  0.0614
73871W        W16924  17.692  13.390  21.264 -0.0033  0.0971  0.0029
73872W        W16925   7.050  17.307  24.205  0.0820 -0.0305 -0.0648
73873W        W16926  12.964   1.201  16.488 -0.1155  0.3186  0.1024
73874W        W16927  19.926   5.253  25.112  0.0128  0.0892 -0.0888
73875W        W16928   3.754   0.949  26.406  0.0606 -0.0545 -0.2105
73876W        W16929  21.270  19.440   0.802  0.0817  0.0150  0.2304
73877W        W16930  31.610   4.591   6.154  0.0639 -0.1771 -0.1493
73878W        W16931  15.189  10.747  22.514 -0.0035 -0.0695 -0.2407
73879W        W16932  10.676  17.611   3.210  0.0878 -0.0568  0.0102
73880W        W16933  16.764  17.456  15.596 -0.0134 -0.2602  0.2546
73881W        W16934   9.851   1.094  18.461 -0.1821  0.0658 -0.1628
73882W        W16935  23.693   4.538   3.759  0.0562 -0.1009  0.2889
73883W        W16936  17.065  11.855   3.460 -0.0741 -0.3347  0.1178
73884W        W16937  29.211   6.443  16.307  0.1272  0.2317  0.1126
73885W        W16938  17.503  28.429  20.488  0.0008  0.1515 -0.0997
73886W        W16939  23.110   2.927   3.401  0.2766 -0.4728 -0.2830
73887W        W16940  19.819   9.468  26.403 -0.0938  0.1744 -0.1290
73888W        W16941  24.895   6.622  24.044 -0.2620  0.0621  0.2344
73889W        W16942  10.228  16.637  16.411 -0.0759 -0.0453  0.2459
73890W        W16943  10.702   3.346  24.344  0.1998  0.2544  0.2382
73891W        W16944   8.135  26.944  13.922  0.2014  0.1181  0.0142
73892W        W16945  18.341  26.272   0.739  0.1775 -0.0542  0.2166
73893W        W16946   7.961  12.350  23.775 -0.1926  0.2844 -0.4576
73894W        W16947  24.223  15.550  17.379 -0.0322 -0.2492 -0.0468
73895W        W16948  10.532  10.087  24.410 -0.1951  0.0437 -0.0836
73896W        W16949   3.000  31.930  26.591 -0.1962  0.2678  0.1024
73897W        W16950  31.239  33.675   7.979  0.2459 -0.0704  0.0013
73898W        W16951  21.619  19.493   1.920  0.1814 -0.0791 -0.1929
73899W        W16952  32.635  13.232  14.637 -0.0936 -0.2306 -0.2440
73900W        W16953  11.324   1.950  27.512  0.0522 -0.0526  0.2586
73901W        W16954   0.804   8.336  24.367  0.1900  0.1962  0.1054
73902W        W16955   5.074  12.123  20.335  0.2526 -0.0003  0.1144
73903W        W16956  18.789   8.196   7.825  0.0781 -0.0881 -0.2777
73904W        W16957   9.293  24.045   7.634  0.1459  0.0062 -0.0925
73905W        W16958  33.923  17.290  14.128  0.2105 -0.1498  0.2022
73906W        W16959   8.404   5.610   3.830 -0.0524 -0.0228 -0.2685
73907W        W16960  31.568  28.905  26.360 -0.1390  0.0601 -0.2939
73908W        W16961  15.820  14.082   8.809 -0.0389 -0.1038  0.1924
73909W        W16962   4.686   5.188   8.681  0.3699 -0.2924 -0.1123
73910W        W16963   0.614  22.694  16.219 -0.0512 -0.1409 -0.2681
73911W        W16964  27.122   1.837  28.939 -0.0339 -0.3643 -0.4497
73912W        W16965  22.929  32.900   1.647  0.2205 -0.1073 -0.0883
73913W        W16966  28.029  34.176   0.837 -0.0615 -0.1477  0.0668
73914W        W16967  34.548  31.591  24.581 -0.1464 -0.0420 -0.0927
73915W        W16968  33.082  17.307   8.880  0.0864  0.1756  0.4215
73916W        W16969  30.388  33.223  23.977  0.2174 -0.3657 -0.4052
73917W        W16970  10.583  10.279   0.112 -0.0433 -0.0114 -0.0014
73918W        W16971  18.640   2.076  27.761 -0.2308 -0.0525  0.1166
73919W        W16972  22.739   9.701  18.654 -0.0041  0.0563 -0.0202
73920W        W16973  24.048  16.696  13.750  0.0984 -0.2044 -0.2078
73921W        W16974  27.866  10.469   1.768 -0.0435 -0.1444 -0.2381
73922W        W16975  10.288  30.030  21.272  0.1028  0.0728  0.1732
73923W        W16976  20.061  11.945  21.254  0.1055  0.0686 -0.2155
73924W        W16977   6.182  16.484   8.054 -0.1629 -0.0827 -0.0098
73925W        W16978  31.483  14.939   7.020 -0.0573  0.1079  0.0899
73926W        W16979  19.743   5.889  23.721  0.1220 -0.1202 -0.1239
73927W        W16980  25.850  16.288   2.740 -0.2167 -0.1529 -0.1850
73928W        W16981  16.289   7.318  10.727  0.0294  0.2782 -0.0979
73929W        W16982   9.678  15.286  28.631 -0.3262  0.0981  0.1662
73930W        W16983   5.624  13.250  25.114 -0.1956  0.1431 -0.0037
73931W        W16984   5.834  33.137  18.149 -0.1315  0.2120 -0.0933
73932W        W16985  33.063  18.512  26.523 -0.1050 -0.1311  0.2337
73933W        W16986   4.227  17.769  22.979  0.1140 -0.0191  0.0540
73934W        W16987  30.580  22.779   7.981  0.0726  0.1344 -0.1389
73935W        W16988  12.621   9.236   2.009 -0.0240 -0.0441 -0.1186
73936W        W16989  27.436  18.529  24.328  0.0823  0.1438 -0.0843
73937W        W16990   6.173  16.899   0.003 -0.3343  0.0058  0.0199
73938W        W16991  19.953  18.739   4.958 -0.2064 -0.2510 -0.0539
73939W        W16992  15.349   3.672  27.741  0.1375 -0.0280  0.0623
73940W        W16993  18.956  21.359   0.871  0.2782 -0.0591  0.0253
73941W        W16994  34.072  17.713  19.193  0.1215 -0.2936 -0.1625
73942W        W16995   8.513  23.816  21.759 -0.1306 -0.2455  0.1783
73943W        W16996  25.220  18.409  27.969 -0.4473 -0.0713  0.0207
73944W        W16997  34.214  21.294  24.480  0.0902  0.1454  0.2462
73945W        W16998  19.610  14.806  23.798 -0.4227 -0.1399 -0.0649
73946W        W16999  20.480  17.955  13.938  0.0217 -0.2013 -0.2109
73947W        W17000   7.746  10.531  23.666 -0.0058  0.0170 -0.2056
73948W        W17001  21.566   4.234  17.303  0.1253 -0.0283  0.0919
73949W        W17002   2.683   8.865  21.951  0.0790  0.1745 -0.1997
73950W        W17003   0.072   6.201  24.125 -0.2482 -0.0280 -0.0036
73951W        W17004  16.823   8.169   1.478  0.2744 -0.1605 -0.2745
73952W        W17005  10.381  22.193  24.974  0.2827 -0.0748  0.2188
73953W        W17006  24.636  23.724  28.705  0.1384  0.1815 -0.1442
73954W        W17007   8.429  26.304  27.244 -0.4091  0.0273  0.1469
73955W        W17008  31.944  19.766   0.336  0.2302  0.0841 -0.3630
73956W        W17009  25.130  28.937   2.351 -0.0842  0.3424  0.1394
73957W        W17010  25.908   1.518   1.049  0.0826  0.1140 -0.0115
73958W        W17011  20.995  19.250  19.305  0.2490 -0.2072 -0.3077
73959W        W17012   9.191  32.601  19.918 -0.1501  0.0025  0.2195
73960W        W17013  19.322   4.381   5.337 -0.0737  0.1313 -0.0583
73961W        W17014  12.604  31.526  13.735  0.0017 -0.0267 -0.0017
73962W        W17015  33.307  33.987  22.806 -0.0838  0.0556 -0.1241
73963W        W17016  22.971   7.351  28.056 -0.3375 -0.3724  0.0156
73964W        W17017  27.502   1.545   1.242 -0.0745  0.2361 -0.1721
73965W        W17018   9.976  27.481  28.269 -0.1658  0.1392  0.1362
73966W        W17019  29.876   8.308  19.478 -0.1915 -0.1201 -0.1177
73967W        W17020  18.565  29.665  21.164  0.0572 -0.0143  0.0871
73968W        W17021  12.141   8.971  24.661  0.0430 -0.1224  0.1771
73969W        W17022   6.320   5.374   1.662 -0.3343  0.0917  0.2536
73970W        W17023  18.835  30.504  25.710  0.0380 -0.0182 -0.1767
73971W        W17024   7.858   7.570  20.885  0.3336 -0.0710 -0.0824
73972W        W17025  31.053  13.575   5.996 -0.3666  0.0127 -0.1723
73973W        W17026   4.263  14.872   1.803  0.0695 -0.4085  0.0231
73974W        W17027   8.054  33.820  17.572 -0.2301  0.2677 -0.3057
73975W        W17028  16.412  11.962  28.027 -0.1751 -0.2123 -0.0129
73976W        W17029  31.474  12.735   2.510  0.1759 -0.0274 -0.3358
73977W        W17030   4.897   8.983   6.869  0.1963 -0.0066  0.0636
73978W        W17031  22.022  17.932  27.606 -0.0471  0.2684 -0.1616
73979W        W17032  22.050  11.089  19.703 -0.0230  0.0463  0.0978
73980W        W17033  19.518   7.335  16.862 -0.2444  0.1193 -0.0905
73981W        W17034  19.058  12.716   2.145  0.1651  0.0101 -0.0291
73982W        W17035  31.314  26.496  24.338  0.1124  0.1091  0.1391
73983W        W17036  12.838  24.199  23.413 -0.3435  0.4249  0.0175
73984W        W17037   0.878   7.750   8.452 -0.2208 -0.3848  0.1650
73985W        W17038  18.182  15.082  24.170  0.1872 -0.3717 -0.1207
73986W        W17039  11.653  14.641  21.771 -0.0107 -0.0135  0.0003
73987W        W17040  18.238   3.397  20.949  0.1496  0.0191 -0.1178
73988W        W17041   6.814   3.506  23.696 -0.0805  0.1384  0.3859
73989W        W17042  26.684  13.632   2.646 -0.0910  0.0066 -0.0324
73990W        W17043  26.711  15.199   0.841 -0.1299  0.2550  0.1152
73991W        W17044  25.489  11.681   8.133 -0.0682 -0.1139 -0.0404
73992W        W17045  21.547  21.880   1.930  0.3276  0.4663 -0.0459
73993W        W17046  24.456  26.003  24.360 -0.0281  0.3662  0.1289
73994W        W17047   6.583   8.061  21.058 -0.1282  0.4136  0.0693
73995W        W17048  18.724  21.440  18.521 -0.0509  0.1184 -0.1450
73996W        W17049  11.199   9.672  18.595  0.3318  0.1010  0.0675
73997W        W17050  12.693  26.906   0.485  0.0325  0.0057  0.2185
73998W        W17051   2.532  19.768  15.613  0.2873 -0.2855  0.0322
73999W        W17052  11.208  13.518  10.986  0.0952  0.0164  0.0109
74000W        W17053  18.913   0.565  10.858 -0.0661  0.0428 -0.0754
74001W        W17054  19.228   2.354  18.831  0.0775  0.0802 -0.2881
74002W        W17055  18.297   5.991  27.727  0.2283 -0.0228 -0.0492
74003W        W17056  18.668  17.065  18.801  0.1385  0.0843 -0.3359
74004W        W17057  11.444   6.628  27.015 -0.2013 -0.1511 -0.0031
74005W        W17058  15.382   8.921  17.660 -0.0271  0.4197  0.2899
74006W        W17059  21.003  27.282  27.389 -0.2006 -0.0581 -0.2419
74007W        W17060  23.788  12.002  17.111  0.2901 -0.0163 -0.3252
74008W        W17061  17.163  10.050  20.263  0.2932 -0.2765 -0.0515
74009W        W17062  14.806  20.637  28.130  0.0232 -0.0810  0.0050
74010W        W17063  12.858   6.346   5.351  0.0360 -0.0874  0.0527
74011W        W17064  26.062  19.693  18.896  0.3081  0.0458  0.0448
74012W        W17065  18.955   5.101  10.091 -0.1479 -0.0589  0.0845
74013W        W17066  17.061   3.233  27.764  0.0397  0.1780  0.0053
74014W        W17067  28.657  26.920  28.995 -0.1079  0.2275 -0.0607
74015W        W17068   0.576  22.499  27.935  0.1756  0.0100 -0.0374
74016W        W17069  17.419  12.767  15.679  0.3310  0.0967  0.0824
74017W        W17070  19.166   5.417   2.388  0.0659 -0.1583  0.3546
74018W        W17071  13.671   0.916  17.082 -0.1238  0.2164 -0.1231
74019W        W17072   3.161  21.660  16.731 -0.0879 -0.2069 -0.1139
74020W        W17073  11.491  30.095   0.340  0.3455 -0.3463  0.1292
74021W        W17074  23.007   5.502  15.949  0.3195 -0.1783  0.0262
74022W        W17075  27.713   4.666  17.807 -0.1041  0.2714 -0.0921
74023W        W17076  27.010   2.132   1.895  0.2591 -0.0539  0.1334
74024W        W17077  24.148  19.130   5.004  0.0543 -0.0026 -0.1165
74025W        W17078   9.692  31.452   2.776  0.1914 -0.0469  0.0064
74026W        W17079   1.272   3.910   8.661 -0.0961  0.0061 -0.2009
74027W        W17080   7.903  18.729  25.695  0.1105  0.1094  0.3226
74028W        W17081  19.480  18.029   0.878 -0.2932  0.0340 -0.0029
74029W        W17082   3.505  13.067  18.528 -0.1345  0.1464 -0.0484
74030W        W17083  34.519  11.901   6.615 -0.1021 -0.2224 -0.3430
74031W        W17084  21.296  16.694   0.480 -0.0460  0.0491 -0.0856
74032W        W17085  13.794  17.875  10.329  0.3337 -0.2189  0.0603
74033W        W17086  14.497  15.378   2.942 -0.0373 -0.0243  0.1103
74034W        W17087   6.787   4.352   6.246  0.0126 -0.0168  0.1862
74035W        W17088   8.058  18.836  18.680 -0.2564 -0.2716  0.0606
74036W        W17089  15.793   4.060  25.399 -0.0503 -0.1906 -0.0800
74037W        W17090  18.597   0.600  24.738  0.0659 -0.2321 -0.0785
74038W        W17091  26.007  11.001   2.458  0.2683 -0.3195 -0.0689
74039W        W17092  32.815  12.008  19.164 -0.0954  0.0795 -0.0528
74040W        W17093  30.790  29.156   0.767  0.0150  0.4123  0.2889
74041W        W17094   7.698  14.428  25.278  0.0621  0.2075  0.1147
74042W        W17095  18.263   2.838  16.872 -0.1272  0.2512 -0.1003
74043W        W17096   4.678  15.960   7.033  0.3005  0.0007 -0.0798
74044W        W17097  13.894  22.911  18.693  0.2701  0.1037 -0.0408
74045W        W17098  19.762   0.531  16.319 -0.1329 -0.0705 -0.4235
74046W        W17099  10.547   6.831  22.437 -0.1516 -0.0488 -0.0163
74047W        W17100   7.708  32.105  26.288 -0.0697 -0.1619 -0.1499
74048W        W17101  21.709  17.783  29.033 -0.3822  0.0434 -0.2176
74049W        W17102  12.812  21.761  16.046  0.3281  0.0747  0.1813
74050W        W17103  17.481  16.935   1.738  0.2115  0.0958  0.2998
74051W        W17104  20.629  15.110   7.307  0.0551  0.0021 -0.0257
74052W        W17105  23.465   4.567  15.212  0.2240 -0.1780 -0.3400
74053W        W17106   5.902  10.715   8.051  0.1143  0.1841  0.3319
74054W        W17107  24.838  17.252  14.465  0.2331  0.1962  0.2637
74055W        W17108  12.423  21.917   4.184  0.1779  0.2949 -0.1836
74056W        W17109  11.573  17.737   9.676  0.0444 -0.0090  0.3749
74057W        W17110  11.904   1.924  17.962 -0.4588  0.0352 -0.1969
74058W        W17111  10.857  29.495  15.326 -0.2105 -0.3718 -0.0934
74059W        W17112  33.979   9.809   3.206  0.0657  0.1659 -0.1326
74060W        W17113  15.826  27.024  20.408  0.1609 -0.1485 -0.0620
74061W        W17114  17.864  10.030  23.510  0.1259 -0.0457 -0.3917
74062W        W17115  25.668  14.779  18.755 -0.2378 -0.0481  0.2833
74063W        W17116  15.260  15.692  24.573  0.1203  0.0066 -0.3225
74064W        W17117   0.821  21.135   7.632  0.0577 -0.1654 -0.0715
74065W        W17118  14.759  13.138   8.167  0.2145  0.0751  0.0438
74066W        W17119   7.817   2.384   3.277 -0.0316 -0.2131 -0.1766
74067W        W17120  18.473  14.010   0.769  0.2678 -0.4030 -0.1636
74068W        W17121  25.171  18.409   6.048 -0.1812  0.2041 -0.3584
74069W        W17122  21.331   5.451   6.168 -0.0728  0.0532 -0.0150
74070W        W17123  13.185  23.667   1.722  0.0316 -0.1942 -0.0835
74071W        W17124   7.621  12.386  19.916 -0.1443  0.0507  0.1085
74072W        W17125  10.830  18.683   7.795  0.1048  0.0765 -0.1305
74073W        W17126  19.651  17.248   6.711 -0.3787 -0.1477  0.1906
74074W        W17127  13.935  28.487  16.063 -0.5264 -0.2240 -0.3428
74075W        W17128  19.428  11.083   8.513 -0.2527  0.1036 -0.1764
74076W        W17129  27.021  15.553   0.568 -0.1176 -0.0620 -0.0544
74077W        W17130  19.091  23.451   5.939  0.0697 -0.0459 -0.0957
74078W        W17131  28.009   8.382  21.118 -0.0211  0.5716  0.0729
74079W        W17132  25.264  15.379  29.041 -0.2555  0.0876 -0.2537
74080W        W17133  25.097  16.174   5.334  0.0693  0.0445 -0.1215
74081W        W17134  17.441  16.682   0.362 -0.2128  0.0270  0.0651
74082W        W17135  11.444   5.952   4.484 -0.0099 -0.3709 -0.0796
74083W        W17136  19.303   4.547  14.267 -0.1793 -0.2226 -0.2355
74084W        W17137  13.802   8.201  19.999  0.1169 -0.1368 -0.1231
74085W        W17138  12.566  11.323  10.104  0.1907  0.1585  0.2516
74086W        W17139  26.424   7.827  24.287 -0.2841  0.4682 -0.1368
74087W        W17140  21.941  20.053   4.226 -0.1510  0.1693 -0.3958
74088W        W17141   9.033  13.291   6.220  0.1910 -0.4185 -0.2673
74089W        W17142  14.686  16.969  27.294 -0.3161  0.1247  0.2166
74090W        W17143  16.562  10.835  28.199 -0.3799  0.0978  0.0993
74091W        W17144  31.050  12.516  20.007 -0.0949 -0.4470 -0.0002
74092W        W17145   2.942  11.498  16.775 -0.2911 -0.2052  0.0279
74093W        W17146  23.610  18.503   0.917  0.0314  0.0092  0.0624
74094W        W17147  26.672   5.637  19.617  0.0862 -0.1146 -0.1402
74095W        W17148  20.700   6.265  10.239  0.1135 -0.0628 -0.0796
74096W        W17149  21.123   4.288   5.619 -0.1781  0.0805  0.0242
74097W        W17150  22.171  18.801   3.322 -0.0321 -0.2699  0.0337
74098W        W17151  21.223  15.947  26.114 -0.1699 -0.0707 -0.0494
74099W        W17152  24.535   3.252   7.510 -0.0812 -0.2748  0.1815
74100W        W17153  25.046  16.001  20.376 -0.1766  0.2936 -0.3943
74101W        W17154   8.419   8.174   1.856  0.1339  0.0659  0.0129
74102W        W17155   7.485  21.901  24.821 -0.0231  0.3143 -0.2103
74103W        W17156   8.037   9.338   5.482 -0.2243 -0.5285  0.1632
74104W        W17157  12.594  16.992   9.211  0.5000 -0.2306 -0.0332
74105W        W17158  15.758   8.520   4.932  0.0936  0.0933  0.1380
74106W        W17159  19.403  26.483  16.118 -0.0243 -0.1711  0.1550
74107W        W17160  24.481   2.868  24.558  0.0987 -0.1788  0.1888
74108W        W17161  22.473   4.881   7.200 -0.0683 -0.2034  0.2931
74109W        W17162  16.438  29.350   7.920 -0.4357  0.2241 -0.1147
74110W        W17163  18.335  15.305   5.604  0.0971  0.1347 -0.0780
74111W        W17164  15.702  22.029   7.457 -0.1554  0.0442 -0.3443
74112W        W17165  21.235   7.310   0.193  0.2155  0.1358 -0.1137
74113W        W17166  34.188  15.303  19.406 -0.0354  0.2404  0.1536
74114W        W17167  23.483   4.978  19.512 -0.0390  0.1276  0.2767
74115W        W17168  28.563  15.352   7.201  0.2205 -0.1969  0.2476
74116W        W17169  29.279  12.538  16.744 -0.3387  0.0865 -0.0689
74117W        W17170  24.923  16.230   2.920  0.0581  0.0582  0.1168
74118W        W17171  13.616  14.035  29.132  0.2774  0.0177 -0.0813
74119W        W17172   5.192  28.609  28.146  0.1994  0.4133 -0.0975
74120W        W17173   5.570  16.815  27.686  0.1220 -0.1818  0.0996
74121W        W17174  30.187  17.499  14.651 -0.2656  0.1229 -0.1745
74122W        W17175  13.151  28.520   8.771  0.1943 -0.2474 -0.1775
74123W        W17176   1.001  13.072  17.155  0.1984 -0.3024  0.1811
74124W        W17177  22.845  32.620  26.375  0.1368  0.1048  0.0537
74125W        W17178   6.504  13.897   8.042  0.1185 -0.0858 -0.0289
74126W        W17179  19.981   6.175  27.239  0.1190  0.2034 -0.0324
74127W        W17180  20.760   6.769  26.995 -0.1867 -0.0938  0.1267
74128W        W17181  14.008   1.046   7.700  0.4089  0.0720  0.0147
74129W        W17182   7.662  18.613  28.938 -0.1648 -0.2635  0.3814
74130W        W17183  33.296   6.033  28.695 -0.0838  0.0850  0.1284
74131W        W17184  23.873  26.581   7.065 -0.2824 -0.0220  0.0592
74132W        W17185  11.555  12.048  27.406 -0.2751 -0.3707  0.0968
74133W        W17186  10.436  13.916   4.639 -0.1632 -0.0553  0.1127
74134W        W17187  21.975  32.892  23.495  0.0018 -0.5375 -0.1162
74135W        W17188   6.363  28.933  14.940 -0.1574 -0.1501 -0.0730
74136W        W17189  13.744   5.293  18.080  0.1583 -0.0533  0.1220
74137W        W17190  31.365  18.653  14.633 -0.1714 -0.1196 -0.0721
74138W        W17191  15.723  22.122  16.651 -0.2019 -0.2528  0.0072
74139W        W17192   1.856  15.287  14.904  0.0628 -0.2482  0.2071
74140W        W17193  34.084  20.996  23.467  0.2937 -0.1930  0.4085
74141W        W17194  12.135  13.445  17.769  0.2113  0.1760  0.1907
74142W        W17195  16.168  27.208  10.318 -0.0653  0.1022  0.1429
74143W        W17196  16.189  10.105  15.903  0.1401  0.0296  0.0163
74144W        W17197  16.157  17.683   0.379  0.0391  0.1766 -0.0774
74145W        W17198  28.114  28.775  20.413  0.0377  0.1656 -0.1298
74146W        W17199  21.637   7.428  24.513 -0.4124 -0.0555  0.2871
74147W        W17200   6.741  24.444  20.327  0.2806 -0.2516  0.0047
74148W        W17201  15.716  33.953  18.056 -0.2257  0.0597 -0.0617
74149W        W17202  12.997  19.061  21.162  0.2966  0.0220 -0.0279
74150W        W17203  12.210  18.831  16.729  0.1084 -0.0369 -0.2384
74151W        W17204  33.839  18.162  21.418 -0.1526  0.0032 -0.1316
74152W        W17205  29.147  17.646  27.907  0.1250  0.3050 -0.1602
74153W        W17206   2.098  10.496  14.893 -0.3572  0.0981  0.0217
74154W        W17207  31.955  34.105  22.001  0.0301 -0.3212  0.1268
74155W        W17208  28.695   4.931   7.173 -0.0059 -0.1839  0.2252
74156W        W17209   6.460  16.839  27.375 -0.0467  0.5107  0.0743
74157W        W17210  22.391   6.488  19.865  0.0895 -0.2257  0.1632
74158W        W17211  23.217  23.609  24.371  0.1454 -0.1001 -0.2698
74159W        W17212  17.797  29.336  20.996  0.0328  0.2041 -0.0468
74160W        W17213   4.143  14.930  15.876  0.1136  0.1387  0.3145
74161W        W17214   4.481  11.455  17.325  0.0292  0.1181  0.2679
74162W        W17215  15.584  30.990   9.603 -0.2536 -0.1387 -0.3415
74163W        W17216  23.999  23.550  18.356 -0.0651 -0.1067 -0.0853
74164W        W17217  14.565  24.267  24.540 -0.1463  0.2897 -0.1655
74165W        W17218  21.246  11.879  28.584 -0.1501  0.2760  0.1137
74166W        W17219  22.522   0.425  13.996 -0.3997  0.1378 -0.0352
74167W        W17220  17.269  24.952  26.570 -0.0526 -0.1861 -0.0336
74168W        W17221  32.502  25.948  16.017 -0.0742 -0.2132  0.0571
74169W        W17222   8.951  33.656  19.214 -0.2347 -0.0179  0.2992
74170W        W17223  19.008  13.318  15.365 -0.3764 -0.0075 -0.2472
74171W        W17224  25.779  18.811  19.986  0.1364  0.1181  0.0042
74172W        W17225  12.860   4.977  24.357  0.0954 -0.0366  0.1123
74173W        W17226  16.238  22.562  23.988 -0.3996 -0.1403  0.2555
74174W        W17227   5.418  22.053   4.569  0.1370 -0.0611 -0.1636
74175W        W17228  25.236  26.331  23.271 -0.0797 -0.0151  0.1158
74176W        W17229  33.900   8.793  23.940 -0.0903  0.3222  0.0360
74177W        W17230  25.406   9.736  21.666 -0.0697  0.0985  0.2633
74178W        W17231  14.807  30.341  15.363 -0.1084 -0.1017 -0.2190
74179W        W17232   8.076  33.524  17.052 -0.0952  0.0882  0.1409
74180W        W17233  12.316  19.166  17.548  0.1323  0.1801  0.0327
74181W        W17234  25.561  17.471  26.401 -0.3215  0.3370  0.1419
74182W        W17235  11.690  25.211   0.586  0.2725 -0.2048  0.0171
74183W        W17236  30.316  23.643  18.009  0.2627  0.0751 -0.1309
74184W        W17237  30.296   4.470  26.755 -0.2737 -0.1041 -0.0078
74185W        W17238  15.603  19.896   2.889 -0.0047 -0.2244  0.0924
74186W        W17239  13.466  11.421   1.504  0.2170 -0.1826 -0.1784
74187W        W17240  21.097  26.292  23.414  0.3268  0.2367 -0.0229
74188W        W17241  25.592  22.329  16.238  0.1504 -0.0881 -0.3680
74189W        W17242  16.847  14.484  13.962  0.0404  0.2322  0.1340
74190W        W17243  11.144  19.557  24.363  0.4686 -0.1751 -0.2450
74191W        W17244   8.404  21.577  27.548  0.1503  0.0561 -0.0335
74192W        W17245  18.455  26.583  22.340  0.3699 -0.1041  0.1421
74193W        W17246  25.403  29.433  23.831  0.0089 -0.2278  0.1608
74194W        W17247  10.341  24.681  24.054  0.2092 -0.0792  0.1746
74195W        W17248  28.918  12.781  22.130 -0.1505  0.0718  0.2458
74196W        W17249   3.799  22.991  14.887  0.1789  0.1794 -0.1057
74197W        W17250  12.866  21.248  15.974  0.2196 -0.1762 -0.2149
74198W        W17251  16.817  10.646  16.189 -0.0785 -0.2878 -0.2266
74199W        W17252  31.656  21.372  17.126 -0.1511  0.1581  0.1309
74200W        W17253  22.243  27.195  20.042  0.0199  0.3240  0.1885
74201W        W17254  18.137  20.401  22.589  0.0981  0.3005 -0.1685
74202W        W17255  19.580  13.375  20.658  0.1404 -0.0808  0.0263
74203W        W17256  14.859   9.012  21.817 -0.0167 -0.1445 -0.1808
74204W        W17257  18.176   9.465  22.341 -0.1126 -0.4224  0.2327
74205W        W17258   6.413  18.723  13.694  0.2885 -0.1521 -0.2122
74206W        W17259  16.512  19.461  24.000 -0.0608  0.1383 -0.0156
74207W        W17260  11.824  24.887  14.116  0.2605 -0.1697  0.2772
74208W        W17261  13.875   4.596  17.147  0.0513  0.1223  0.1366
74209W        W17262  13.216  18.990  21.834  0.2102 -0.1664  0.0506
74210W        W17263  15.847   5.431  17.705 -0.1636 -0.1928  0.2296
74211W        W17264   6.473  27.626  17.035  0.2518  0.1523 -0.0838
74212W        W17265  29.921  13.016  19.704 -0.1406  0.1169  0.2656
74213W        W17266  20.689  34.118  19.205 -0.1790  0.2114  0.1060
74214W        W17267  14.832   4.379  16.206 -0.1572 -0.1507  0.1853
74215W        W17268  18.015  17.381  14.444 -0.1071 -0.1849  0.0487
74216W        W17269  28.182  22.310  16.904 -0.1036  0.0940  0.1640
74217W        W17270  16.062  23.200  19.973  0.4865  0.0175 -0.3318
74218W        W17271   9.926  17.287  18.685 -0.1473  0.0590  0.2191
74219W        W17272   8.374  21.014  20.468  0.0158  0.1537 -0.2207
74220W        W17273  21.136   2.443   4.110 -0.0543 -0.0456  0.1048
74221W        W17274  11.675  21.846  21.499  0.0660  0.4345  0.0799
74222W        W17275  16.302  23.344  18.253 -0.1877 -0.1177 -0.0086
74223W        W17276  19.002  10.406  16.535  0.1333 -0.1608 -0.0496
74224W        W17277  22.520  22.903  20.037  0.3336 -0.0531 -0.0315
74225W        W17278   7.295  25.704  15.156  0.2003  0.3378 -0.2638
74226W        W17279  17.479   3.960  19.211  0.0004 -0.4066  0.2114
74227W        W17280   2.939   8.424  21.102  0.0246  0.0059 -0.1716
74228W        W17281  30.449  13.032  19.582 -0.0231 -0.0187 -0.0850
74229W        W17282   8.775  23.759  24.504  0.1923 -0.0029 -0.2336
74230W        W17283   9.560  28.369  19.162 -0.4173 -0.2426 -0.3742
74231W        W17284   7.735  16.062  21.070 -0.1490 -0.0827  0.0440
74232W        W17285  21.178  26.033  14.853 -0.0679  0.1453 -0.0225
74233W        W17286   3.544  17.582  24.265 -0.0661 -0.1665  0.1612
74234W        W17287   8.527  22.038  13.744 -0.1976  0.5267  0.4127
74235W        W17288  12.304  33.844  25.422  0.0081 -0.1604 -0.4038
74236W        W17289  15.470  12.322   7.538  0.2897  0.4051  0.0259
74237W        W17290   6.451  31.929  21.344 -0.1946 -0.4891  0.1657
74238W        W17291  29.241  28.292  21.109  0.2922  0.1843 -0.2741
74239W        W17292  24.277  34.209  19.490  0.0457  0.0509 -0.2086
74240W        W17293  12.631   3.327  22.545 -0.0278 -0.3813 -0.1068
74241W        W17294  21.602  12.104  18.873 -0.1863  0.0535 -0.0166
74242W        W17295  24.152  23.128   1.862  0.1894  0.2439  0.3955
74243W        W17296   5.726  23.057  15.356 -0.0313  0.0801 -0.0120
74244W        W17297   6.414  19.253  21.184  0.0892 -0.1995 -0.3221
74245W        W17298  13.198  22.242  24.353 -0.2229  0.0997 -0.0143
74246W        W17299   3.627  21.282  21.095 -0.0119 -0.1879 -0.0211
74247W        W17300  11.695  30.636  19.612  0.0545  0.2361  0.1843
74248W        W17301  13.841  18.441  21.012 -0.1489 -0.0640 -0.1221
74249W        W17302  19.520   8.945  22.473  0.1356 -0.4204 -0.2803
74250W        W17303  26.816   5.384  28.261 -0.1227  0.0273 -0.0362
74251W        W17304   0.405  20.268  24.858 -0.3120  0.1228  0.1790
74252W        W17305  24.138  28.493  25.267  0.0473 -0.0726  0.1883
74253W        W17306   2.049   6.216  26.358 -0.2164 -0.1820  0.1746
74254W        W17307  30.319  14.762  27.159  0.1161 -0.1118  0.0266
74255W        W17308  20.410   8.186   1.839 -0.0877 -0.1148 -0.1211
74256W        W17309   9.166   6.164  18.263 -0.2525  0.0775 -0.0800
74257W        W17310  25.838  17.423  14.060  0.0825  0.1290  0.1577
74258W        W17311   3.411   6.705  20.717 -0.0831 -0.1040 -0.2157
74259W        W17312  15.310  33.367  21.459  0.0076 -0.1043  0.2033
74260W        W17313  21.830   4.181  14.819 -0.3247  0.3077  0.0177
74261W        W17314  23.954  15.102  18.925  0.4946  0.0508 -0.0079
74262W        W17315  23.923  28.507   4.554  0.2058 -0.0474 -0.1517
74263W        W17316  11.212  17.614  23.851 -0.1916  0.1107 -0.2269
74264W        W17317   1.590  18.893  22.229  0.1621  0.4002  0.0981
74265W        W17318   5.703   8.272  25.921  0.3466 -0.0522  0.1864
74266W        W17319  10.892  23.437  19.663  0.2023  0.0171  0.3175
74267W        W17320  26.467   3.037  27.446  0.1839  0.1380 -0.1336
74268W        W17321  21.884  11.524  15.165  0.0718  0.1511  0.0721
74269W        W17322  10.606  16.582  24.811 -0.2722  0.0323  0.2482
74270W        W17323   1.194  16.743  19.595 -0.3114 -0.0075  0.1144
74271W        W17324  15.466  22.561  22.871 -0.1390 -0.1758  0.3034
74272W        W17325  14.872  18.999  15.869  0.0176 -0.2853  0.1001
74273W        W17326   3.517  20.174  13.481  0.2583 -0.2254  0.1661
74274W        W17327  21.485   0.335  14.808  0.3217 -0.1689  0.1219
74275W        W17328  22.509  21.198  16.886 -0.2735  0.3131  0.0890
74276W        W17329  33.267  15.252  24.794  0.1476  0.1535 -0.1787
74277W        W17330   3.218  19.031  14.201  0.0523 -0.1060 -0.1636
74278W        W17331  12.707   2.374  15.355  0.2965 -0.0273 -0.0004
74279W        W17332  16.805  23.426  14.646 -0.0167  0.1320  0.1306
74280W        W17333  10.143   4.599  24.397 -0.1015  0.1293 -0.0667
74281W        W17334  24.456  25.598  21.949 -0.0808 -0.1237 -0.0565
74282W        W17335  20.825  26.306  21.055  0.0467  0.0044  0.1032
74283W        W17336   5.312  23.077  25.711 -0.0694  0.1245 -0.1716
74284W        W17337  14.335  13.391  13.838 -0.0930  0.0761 -0.0399
74285W        W17338  29.330  28.702  19.266  0.0658  0.0958 -0.1151
74286W        W17339  11.613  14.597  24.907  0.2536  0.0031  0.0180
74287W        W17340  16.184  13.460  21.335  0.2287 -0.1911 -0.2352
74288W        W17341  17.341  24.759  17.142 -0.1131 -0.0841  0.2447
74289W        W17342   9.839  20.215  17.413  0.0865 -0.2312 -0.0492
74290W        W17343   1.363  26.089  17.535 -0.1220 -0.0946 -0.0109
74291W        W17344  30.705  25.260  13.392  0.2341  0.1847  0.0891
74292W        W17345  11.464   9.732  19.043 -0.0159 -0.0904  0.1960
74293W        W17346   6.703  32.304  16.247  0.3334 -0.2302  0.1273
74294W        W17347  33.781  30.501   5.066  0.1213 -0.0581 -0.2264
74295W        W17348   2.332  19.114  25.993  0.1965 -0.1914 -0.1425
74296W        W17349   6.256  18.366  16.450  0.2474 -0.0434  0.2000
74297W        W17350  13.359   9.796   5.912 -0.2785  0.0573 -0.1621
74298W        W17351  24.580  29.180  17.342 -0.0881 -0.0430  0.0635
74299W        W17352  18.010  10.978  19.328  0.1385  0.0773 -0.0629
74300W        W17353  34.444   7.082  26.520 -0.1628  0.1682  0.2602
74301W        W17354   3.898   5.628  16.341 -0.1250 -0.0691  0.2516
74302W        W17355  24.106  12.084   3.224  0.0882  0.2573 -0.0289
74303W        W17356  23.577  23.262  27.893  0.0063 -0.1895 -0.0001
74304W        W17357  26.929   0.227  23.378 -0.0212  0.0187  0.6229
74305W        W17358  22.660   7.036  14.568  0.0383 -0.1687 -0.0040
74306W        W17359  19.955   7.918  24.360  0.0993 -0.1245  0.0553
74307W        W17360  23.867   9.316  19.136  0.0116 -0.3054  0.1400
74308W        W17361  17.515   4.757  17.525  0.2468 -0.0464 -0.0520
74309W        W17362   1.733  17.364  26.785 -0.2118 -0.1076 -0.1852
74310W        W17363  18.171   9.522  17.021  0.1935 -0.3004  0.3604
74311W        W17364  24.218   2.064  16.671  0.2117 -0.0688  0.0589
74312W        W17365  17.954   5.474  18.477 -0.1293 -0.4582  0.1661
74313W        W17366   3.239  27.602  19.587  0.0073  0.2024  0.0072
74314W        W17367  10.367  14.707  23.875 -0.5743  0.3844 -0.2142
74315W        W17368   5.869  10.659  16.192 -0.0504  0.0550  0.0689
74316W        W17369  24.099   1.766  19.605  0.0093  0.0174 -0.0711
74317W        W17370   7.283  21.679  15.565  0.0980  0.2580 -0.3346
74318W        W17371   8.707  29.027  27.154  0.2382 -0.0602  0.1334
74319W        W17372  16.421  10.492  21.854 -0.1129  0.2126 -0.1958
74320W        W17373  24.029  21.985  20.045 -0.3145  0.0200  0.0960
74321W        W17374  22.201  16.842  13.982  0.2181 -0.1361  0.1433
74322W        W17375   3.380  21.542  29.186 -0.1179  0.1446 -0.0096
74323W        W17376   8.737  20.603  28.548 -0.4044  0.0776  0.1160
74324W        W17377  30.959  22.400  18.571  0.0670  0.2274  0.1123
74325W        W17378   5.619  19.749  22.380  0.0931  0.0449 -0.1416
74326W        W17379   2.320  10.662  21.288 -0.0187  0.0948  0.1425
74327W        W17380   9.092   4.318  17.798 -0.0109 -0.1689 -0.0382
74328W        W17381   0.505  17.789   0.367 -0.0366  0.2354 -0.0434
74329W        W17382  24.488  25.389  17.045  0.1330 -0.0253 -0.1485
74330W        W17383  16.149  11.366  25.277 -0.3401  0.1198 -0.1155
74331W        W17384  26.287   6.797   5.204 -0.0081 -0.1528 -0.1835
74332W        W17385  14.099  26.428  22.182 -0.1052  0.0490 -0.1301
74333W        W17386  16.683   8.076  24.768 -0.1914 -0.0610  0.0923
74334W        W17387  23.111  10.226  14.135  0.2310 -0.1207  0.0609
74335W        W17388  32.783  31.834  24.487  0.1572  0.2589 -0.1590
74336W        W17389  28.408   6.137  22.709  0.3497  0.2333 -0.0610
74337W        W17390  30.470  12.203   4.553 -0.2140  0.2533 -0.1450
74338W        W17391  11.762  23.445  15.674  0.2765  0.0969  0.1266
74339W        W17392  29.700   8.074  23.160  0.0311  0.0750 -0.0706
74340W        W17393  21.467  33.386  16.555 -0.1090  0.1904 -0.2371
74341W        W17394   8.513   5.685  15.153 -0.1246 -0.0989  0.1361
74342W        W17395  11.845   2.320  13.996  0.1701 -0.0639  0.0604
74343W        W17396   2.734   8.669  14.395 -0.1418 -0.2076  0.1243
74344W        W17397   5.881   7.516  22.022 -0.0702  0.2217 -0.0162
74345W        W17398  31.279  10.281  22.916 -0.3086 -0.0512 -0.0111
74346W        W17399  28.788  15.793  25.729  0.2510  0.0374  0.0980
74347W        W17400  12.888  22.318  16.060  0.4868  0.1701  0.0035
74348W        W17401  19.621   4.737  25.886  0.4771 -0.1928 -0.1785
74349W        W17402  13.777  29.357  22.820 -0.0047  0.1343 -0.1645
74350W        W17403  33.679  31.497  19.267  0.1744  0.0667 -0.2532
74351W        W17404  18.142  16.806  13.927  0.1838 -0.1017  0.4139
74352W        W17405  20.565  29.949  21.007  0.0988  0.2104  0.1542
74353W        W17406  13.686  28.191  15.714  0.1929  0.0342  0.0544
74354W        W17407  33.429  26.249  23.469 -0.1770 -0.2677 -0.0280
74355W        W17408  27.780   9.729  23.762 -0.0814  0.3823 -0.0726
74356W        W17409  15.709   9.390  15.756 -0.0089 -0.1785 -0.3447
74357W        W17410   9.242  18.665  17.319  0.0309 -0.1134 -0.1945
74358W        W17411  23.600  11.462   0.163 -0.0503 -0.3614 -0.0955
74359W        W17412   8.676   0.997  14.269 -0.0851 -0.0546 -0.0566
74360W        W17413   8.441  28.491  17.948 -0.1166 -0.2041 -0.1136
74361W        W17414  22.504  10.161  23.929 -0.0996 -0.3005  0.1586
74362W        W17415   8.954  25.691  19.493 -0.3339  0.0880 -0.1096
74363W        W17416  16.262  22.809  20.273 -0.2948 -0.0936  0.1805
74364W        W17417   6.344  17.131  15.183 -0.2747 -0.0583 -0.1722
74365W        W17418   8.123   8.820  19.888  0.1087  0.1288  0.2213
74366W        W17419  21.994  12.261  16.791  0.0552 -0.2108  0.0528
74367W        W17420  10.512  33.840  14.856  0.2799 -0.1301 -0.0273
74368W        W17421  25.033  19.870  19.874 -0.0930 -0.1773 -0.0307
74369W        W17422   7.633  29.342   0.642 -0.1197 -0.3075  0.0652
74370W        W17423   1.484  17.512  16.483 -0.1091  0.0741  0.1277
74371W        W17424  24.604  24.707   4.800  0.1815 -0.0809 -0.0415
74372W        W17425  20.020  15.002  15.311 -0.1489 -0.0900 -0.0577
74373W        W17426  12.843  34.467  16.717 -0.3301 -0.3375  0.0373
74374W        W17427  16.906  27.797  18.520  0.1212 -0.2292 -0.0502
74375W        W17428  28.314  19.982  16.989  0.1365  0.2787  0.0751
74376W        W17429  10.880  31.017  19.263  0.1345 -0.0341 -0.0112
74377W        W17430  10.514   8.360   6.906 -0.0724 -0.2659  0.0113
74378W        W17431  27.733  23.336  23.237  0.3857  0.1428 -0.2309
74379W        W17432  23.151  30.808  21.925  0.1820  0.0828 -0.1563
74380W        W17433  10.856  25.818  21.598 -0.1905 -0.1284  0.2920
74381W        W17434  21.530  28.800  17.851  0.1859 -0.0642  0.3048
74382W        W17435   1.433  13.366  25.575 -0.0259 -0.1568 -0.2973
74383W        W17436  15.131  15.163  25.313  0.4378 -0.2470 -0.2728
74384W        W17437  20.523  21.333  19.207  0.0389  0.0980 -0.0133
74385W        W17438  30.626  25.403  19.846  0.1798 -0.1458  0.1190
74386W        W17439  10.217  34.011  20.176  0.0581  0.1586 -0.0007
74387W        W17440  21.567  16.737  21.687  0.0697 -0.0667  0.6689
74388W        W17441  18.286  25.395  19.386  0.1524 -0.0230  0.1306
74389W        W17442  29.530  21.870  17.481  0.3072  0.1071 -0.1333
74390W        W17443  22.023  11.141  25.996  0.1176 -0.1854 -0.2413
74391W        W17444   7.609  12.286  14.851  0.0375  0.1429  0.1077
74392W        W17445   0.737  10.028  24.021 -0.2497 -0.0948  0.0785
74393W        W17446  10.384  16.174  16.260  0.1685 -0.2733  0.0826
74394W        W17447  34.185   3.295  26.917 -0.0571  0.0527  0.1591
74395W        W17448  22.112   5.729  16.212 -0.3616  0.0198  0.1857
74396W        W17449  20.699  13.517  25.123 -0.2976 -0.4731  0.2780
74397W        W17450  24.557   4.205  21.057  0.0194 -0.1512 -0.0996
74398W        W17451  14.511  13.622  17.848  0.1466  0.1645  0.2932
74399W        W17452  16.758  21.124   1.048  0.0866  0.0236  0.2670
74400W        W17453   6.935  19.753  23.188  0.2056 -0.3054  0.1123
74401W        W17454   2.992  34.340   3.980  0.5283  0.0443  0.0362
74402W        W17455  33.057  21.004   3.651 -0.0572  0.0313  0.0640
74403W        W17456   2.154  10.205  17.368 -0.2997  0.1839 -0.1359
74404W        W17457  16.813  12.077  13.710 -0.0543  0.2611  0.2939
74405W        W17458   5.251  22.166  23.986 -0.0536 -0.3284 -0.1951
74406W        W17459  13.484   8.467  23.587  0.1822 -0.3669 -0.0055
74407W        W17460  11.134  11.623  15.441 -0.3859 -0.0287  0.1169
74408W        W17461  12.407  11.078  25.276 -0.1106  0.0765  0.0117
74409W        W17462  22.553  10.143  27.227 -0.0356  0.2991 -0.1806
74410W        W17463  34.144  27.576  20.005  0.0069  0.0199  0.1056
74411W        W17464   5.338   8.991  26.813  0.0525 -0.0924  0.0413
74412W        W17465  27.739  12.214  18.483 -0.0698 -0.5077 -0.3184
74413W        W17466  18.470  34.456  21.602  0.3502  0.5453  0.3223
74414W        W17467  27.077   2.083  27.366 -0.1738  0.1463  0.1631
74415W        W17468   5.367   8.590  18.176  0.0779  0.0188  0.1141
74416W        W17469  24.222  16.746  15.266  0.0559  0.2984 -0.2009
74417W        W17470  26.252   1.605   0.671 -0.1893 -0.0107 -0.0022
74418W        W17471  12.735   9.851  24.870 -0.1253 -0.2362 -0.0974
74419W        W17472  19.996  24.911  18.052 -0.0758  0.2272  0.2401
74420W        W17473   7.734  31.158  18.540  0.1969 -0.3932  0.0350
74421W        W17474   5.943  22.545  27.072  0.0810 -0.1258  0.1900
74422W        W17475  27.653  15.538  15.177  0.1435  0.0579  0.0648
74423W        W17476  14.448  29.281  25.113 -0.0557  0.0499 -0.0730
74424W        W17477  28.813  22.078  18.057  0.0276 -0.1180 -0.2314
74425W        W17478  21.571  28.276  15.644 -0.4200 -0.0034  0.1604
74426W        W17479  16.283  32.605  27.201  0.3328  0.2062 -0.0625
74427W        W17480   6.272   2.329  17.944 -0.2148  0.0358  0.1072
74428W        W17481  23.485  19.964  19.882 -0.2649  0.1316  0.2940
74429W        W17482  14.799  19.316  15.442 -0.0002  0.1120  0.0998
74430W        W17483  17.147  29.121  15.486  0.0797  0.2695 -0.0099
74431W        W17484   8.047  29.585  23.555  0.0184  0.2494 -0.0027
74432W        W17485  10.880  12.615  22.750  0.2003 -0.0865 -0.0865
74433W        W17486  14.070  27.806  25.392 -0.2696 -0.0081 -0.2189
74434W        W17487  30.447  19.903  15.315 -0.4671 -0.5054 -0.0852
74435W        W17488  25.868  19.323  15.546  0.4656 -0.0662  0.1474
74436W        W17489   2.389  25.523  15.417  0.3271 -0.0333  0.2713
74437W        W17490  13.162  11.534   2.684  0.0757 -0.0406 -0.1405
74438W        W17491   7.632  13.714  18.133  0.1927  0.3315  0.0151
74439W        W17492  22.000  31.544  25.650  0.0171 -0.0190  0.2013
74440W        W17493   2.625   7.331   7.307 -0.0604  0.1767 -0.1576
74441W        W17494  27.123  21.901  26.036  0.1555 -0.0083 -0.1561
74442W        W17495   8.933  23.613  15.011  0.0878 -0.1468  0.2089
74443W        W17496  33.207  25.203  16.579  0.0914 -0.1487 -0.1763
74444W        W17497  21.133  27.819  18.692 -0.1554  0.3110  0.3222
74445W        W17498  18.135  19.094  18.430 -0.1392  0.3388 -0.0501
74446W        W17499   9.195  15.996  25.817  0.3890  0.1731  0.0539
74447W        W17500   0.490  14.682  14.303 -0.0360 -0.2075  0.0495
74448W        W17501   0.079  33.542  13.240 -0.1014  0.2781  0.2854
74449W        W17502  27.372  22.979  22.557  0.2878 -0.0259 -0.1102
74450W        W17503  25.026  23.494  18.502  0.2453 -0.1867  0.2263
74451W        W17504   6.813  21.856  18.335 -0.1182  0.2517 -0.0581
74452W        W17505  28.904  12.671  16.318 -0.0576  0.1033  0.0388
74453W        W17506  18.703  26.130  19.061  0.1202 -0.0673 -0.1407
74454W        W17507  14.874  12.196  21.546  0.0471  0.0069 -0.0853
74455W        W17508   1.579   6.637   1.505 -0.1038 -0.0135  0.3456
74456W        W17509  10.029  21.563  14.817 -0.2998  0.1040  0.0977
74457W        W17510  27.866  18.191  20.393  0.3584 -0.0762  0.2339
74458W        W17511  11.692  20.725  19.562  0.0863  0.1173  0.2294
74459W        W17512  29.211  25.728   5.134  0.1689  0.1461 -0.0709
74460W        W17513  19.604  20.993  20.493  0.1120  0.3419 -0.3606
74461W        W17514  20.256   7.628  18.866 -0.1949  0.0964 -0.2150
74462W        W17515  24.866  24.333  25.687 -0.0398 -0.0001  0.0624
74463W        W17516  12.441  16.054  23.197 -0.3805 -0.1424  0.0635
74464W        W17517  32.028   9.905  19.927 -0.2568 -0.2411  0.0538
74465W        W17518  11.004  10.659  15.371  0.2106  0.2197 -0.0945
74466W        W17519  19.133   6.058  18.799 -0.0296 -0.2661 -0.0573
74467W        W17520  21.092  14.606  17.460 -0.2410  0.1148 -0.0191
74468W        W17521   5.593   0.157  28.183 -0.0355  0.1463  0.1400
74469W        W17522  23.649  20.381  28.512  0.4665 -0.0302  0.3778
74470W        W17523   7.497   9.275  17.821 -0.0150  0.0549  0.0388
74471W        W17524  33.279   3.506  21.109 -0.0888 -0.1276  0.1053
74472W        W17525  13.661  25.229  15.099  0.1435  0.0978 -0.1893
74473W        W17526  27.705  25.110  26.813  0.0742 -0.1101  0.0741
74474W        W17527  10.997   7.258  24.348 -0.2707  0.3349  0.1588
74475W        W17528  15.187  23.175  24.100 -0.0337 -0.0097  0.2185
74476W        W17529  14.940  12.905  20.241  0.1377  0.2460  0.1556
74477W        W17530  21.014  19.553  14.563  0.3638 -0.2594  0.2366
74478W        W17531  28.625  15.833  21.373 -0.0084  0.0359 -0.0082
74479W        W17532  11.085   7.254  28.046 -0.3235 -0.0619 -0.0759
74480W        W17533  15.766  27.890  19.207  0.2030 -0.0228  0.4336
74481W        W17534  22.468   7.701  18.557 -0.2999 -0.2036  0.0287
74482W        W17535  26.121   0.024   3.289  0.0378  0.2074  0.0899
74483W        W17536  24.106  27.616  14.748 -0.0576  0.2881 -0.0341
74484W        W17537  19.563  20.615  15.695  0.2791  0.0676  0.3270
74485W        W17538  19.272  27.107  15.128 -0.1417 -0.1544 -0.1355
74486W        W17539  12.383  13.410  24.922 -0.1217  0.2532  0.3123
74487W        W17540  12.767   3.131   3.858 -0.0579 -0.2489 -0.0313
74488W        W17541   5.854  11.125  18.288  0.0755  0.1677 -0.1166
74489W        W17542  26.300  11.182  23.273  0.0984  0.0835 -0.1024
74490W        W17543  22.412  16.113  20.908 -0.0618 -0.1486  0.0066
74491W        W17544  15.344   4.878  24.456  0.2020  0.0431  0.1386
74492W        W17545  14.084  16.049  17.800 -0.0659 -0.1571 -0.2026
74493W        W17546   8.794  20.796  20.517  0.3246 -0.2786  0.5214
74494W        W17547  16.442  18.014  24.999  0.2097  0.2136 -0.1372
74495W        W17548   1.857   9.584  28.851 -0.1880 -0.0873 -0.0095
74496W        W17549  26.075  20.710  15.403  0.0558  0.4926  0.0069
74497W        W17550  19.883   5.404  21.511 -0.0159  0.0775  0.1313
74498W        W17551  31.677  13.209  27.550 -0.1702  0.1437  0.1174
74499W        W17552   2.783  19.374  22.394 -0.1759  0.2722  0.1232
74500W        W17553  23.692   3.985  13.748 -0.1431 -0.1692  0.0941
74501W        W17554  32.063   2.178  17.816  0.0078  0.1191  0.0443
74502W        W17555   9.195  12.833  18.312  0.0080 -0.3716  0.0759
74503W        W17556  19.797   4.224   2.946 -0.0555  0.0436  0.0589
74504W        W17557  22.892  21.104  20.836 -0.2280 -0.0469 -0.1624
74505W        W17558   8.273  32.549  21.186 -0.1846 -0.0250 -0.2258
74506W        W17559  18.196   1.291  19.560  0.1329  0.1251 -0.0118
74507W        W17560  10.128  14.795  22.889  0.2566 -0.3759  0.0440
74508W        W17561  31.441  31.180  23.903 -0.0833  0.0513 -0.3091
74509W        W17562  12.396  29.602  18.732 -0.0052 -0.0579  0.0462
74510W        W17563  20.382  26.846  18.621  0.2087  0.1036  0.3356
74511W        W17564   2.537  16.988  19.539 -0.2136 -0.0499  0.2230
74512W        W17565   9.900   8.014  19.256  0.0729 -0.0285  0.0162
74513W        W17566   9.314  14.164  19.838 -0.0559  0.1726  0.1449
74514W        W17567  27.506  14.371  17.636  0.2683 -0.1102  0.1002
74515W        W17568   1.315   7.617  18.793  0.0185 -0.0023 -0.1368
74516W        W17569  24.490  11.983  19.786 -0.0517  0.5736  0.0879
74517W        W17570  27.249  32.967  21.743  0.2133 -0.1111  0.1858
74518W        W17571   6.302  22.558  21.640 -0.1999 -0.0643 -0.4166
74519W        W17572  17.320  19.398  15.784 -0.1180 -0.1059  0.0150
74520W        W17573   8.527  25.164  23.257  0.0346  0.1678  0.1037
74521W        W17574  15.301  11.427  16.647  0.0302 -0.0580  0.3165
74522W        W17575  19.122  22.003  13.691  0.1199 -0.1072 -0.2737
74523W        W17576  26.584  24.134  10.252  0.2873  0.0559 -0.0075
74524W        W17577  22.308  25.705  28.736 -0.1390  0.1061  0.0576
74525W        W17578  17.072  24.808  22.712 -0.0993 -0.0761 -0.1537
74526W        W17579   9.187  10.305  28.114 -0.5695 -0.3064 -0.2561
74527W        W17580   0.096   6.382  25.401 -0.2096 -0.2348  0.1093
74528W        W17581  17.034   5.021   3.784 -0.2328  0.0224  0.0623
74529W        W17582  23.911   5.145  24.522  0.0091  0.2620 -0.1235
74530W        W17583  33.651   7.517  29.091 -0.3599  0.0873  0.3640
74531W        W17584  24.358   6.052  24.458 -0.0896  0.1090 -0.0097
74532W        W17585  20.432  29.430  14.754  0.1441  0.0134  0.2169
74533W        W17586  25.589  34.185  25.264 -0.2334  0.2986  0.1631
74534W        W17587  28.910  20.783  21.093  0.1367  0.3236  0.2735
74535W        W17588  17.284  25.939  16.697  0.0305  0.1949 -0.1303
74536W        W17589  10.389   0.354  26.307  0.2156  0.1089 -0.0264
74537W        W17590  19.465  13.462   7.663  0.3066  0.2792 -0.1774
74538W        W17591  19.018  28.851   4.900  0.0275 -0.1325 -0.0965
74539W        W17592   8.629   0.893  18.208 -0.3923 -0.1569  0.0909
74540W        W17593   6.215   1.506  19.094 -0.0821  0.1950  0.0683
74541W        W17594  14.196   8.066  15.774 -0.3592  0.0341 -0.2353
74542W        W17595   9.919  26.211  24.697  0.2379  0.0971 -0.1621
74543W        W17596  15.778  27.877   7.373 -0.0516 -0.1679 -0.2634
74544W        W17597   2.036  16.664  25.477 -0.0054 -0.1203 -0.1429
74545W        W17598   6.904  16.867   0.735 -0.1747  0.0287 -0.4738
74546W        W17599  13.300  24.622  14.923  0.0532 -0.1352  0.2567
74547W        W17600  23.870  18.278  16.500 -0.3273  0.1818  0.0543
74548W        W17601  19.384   4.893  23.336  0.0527 -0.1033 -0.0717
74549W        W17602  11.433  15.333  16.256 -0.0376  0.3165  0.0377
74550W        W17603   9.863  28.726  21.741 -0.0354  0.0745 -0.2130
74551W        W17604  11.307  21.747  16.640 -0.1103 -0.3108 -0.3140
74552W        W17605  24.933  22.435  19.951 -0.1191 -0.0111 -0.0671
74553W        W17606  11.791  22.635  14.096  0.0898 -0.3081  0.3942
74554W        W17607  19.854  12.278  21.848 -0.1557 -0.3485 -0.0566
74555W        W17608  10.462  17.607  25.609  0.1777  0.1950 -0.1803
74556W        W17609  12.575  15.910  15.055  0.2865 -0.0183 -0.2836
74557W        W17610  27.276  11.670  27.740 -0.1917 -0.0888 -0.0055
74558W        W17611  10.871  17.416  18.658 -0.0034  0.3072  0.1604
74559W        W17612  24.403  15.851  21.685 -0.1452 -0.1845 -0.0275
74560W        W17613  14.949  17.567  15.960  0.0207  0.0066 -0.0328
74561W        W17614  20.869   9.631  15.180 -0.1996 -0.1229 -0.1674
74562W        W17615   1.751  25.116  15.882 -0.1795 -0.2652  0.2737
74563W        W17616  15.507  12.059  19.513  0.1143 -0.1694 -0.3724
74564W        W17617   6.523  21.832   0.978  0.4972 -0.1364 -0.3763
74565W        W17618   3.145  34.462  24.686  0.1614 -0.1077  0.1756
74566W        W17619   4.495   8.045  26.077 -0.2105 -0.0274  0.1215
74567W        W17620  10.819   0.695   2.047  0.0680  0.0265  0.0953
74568W        W17621   7.678  11.940  24.787  0.1677 -0.2361  0.2449
74569W        W17622  11.865   0.000   2.525 -0.0203  0.1828 -0.1872
74570W        W17623  12.375  17.195  22.929 -0.1182  0.3095  0.2118
74571W        W17624  20.004  18.485  18.827 -0.1557 -0.0158  0.2027
74572W        W17625  16.467  29.012  24.357 -0.2346  0.1261 -0.2945
74573W        W17626   6.900   2.160  16.144 -0.1752 -0.5013 -0.0062
74574W        W17627  16.515  23.841  16.445 -0.3441  0.1103  0.0070
74575W        W17628  26.400  23.565  17.956 -0.1388  0.2614 -0.1055
74576W        W17629  23.120  24.998  19.655  0.0210 -0.0738 -0.1616
74577W        W17630   3.951   9.859  26.486  0.2600 -0.3622  0.0439
74578W        W17631   7.127   6.458  24.745 -0.0969  0.2460 -0.1975
74579W        W17632   1.731  12.875  14.715 -0.1492  0.0186  0.0006
74580W        W17633  29.287   5.760  18.624 -0.1655 -0.1658  0.0258
74581W        W17634  14.214  20.745  17.117 -0.1331  0.0591  0.1766
74582W        W17635  26.764  13.399  22.174  0.1542 -0.0683 -0.0961
74583W        W17636  15.427  30.710  24.241 -0.1925 -0.1731 -0.1648
74584W        W17637  29.811  11.874  16.926 -0.1708  0.0671  0.2441
74585W        W17638  21.668   8.373  14.620 -0.0666  0.0599 -0.0506
74586W        W17639   7.066  14.674  16.710  0.2054  0.2023 -0.1763
74587W        W17640  10.090  24.810  21.855  0.1838  0.0716  0.0888
74588W        W17641  18.316  31.922  25.114  0.1175  0.2134 -0.0888
74589W        W17642  17.649  12.321  23.105  0.0841 -0.1399 -0.0319
74590W        W17643  16.745  16.978  19.185  0.2315  0.2813  0.1727
74591W        W17644  12.227  18.251  17.592  0.1292  0.2004  0.1059
74592W        W17645  24.290  16.789  13.329  0.1066 -0.0139  0.2370
74593W        W17646  11.490  19.872  19.796  0.4578  0.1196  0.0236
74594W        W17647  17.725  18.097  18.812 -0.0658  0.1417 -0.0225
74595W        W17648  30.799  20.960  23.526  0.2662 -0.1169  0.1445
74596W        W17649  11.769  18.753  14.947  0.1931  0.0766  0.3154
74597W        W17650  33.851   7.512  24.888  0.1332 -0.0411 -0.1502
74598W        W17651  13.646  28.287   0.562  0.2040 -0.2048  0.1509
74599W        W17652  25.468  25.360  22.281 -0.3829 -0.0809  0.1198
74600W        W17653  22.768   2.883  22.325  0.0974 -0.0923 -0.5163
74601W        W17654  31.732  11.082  21.870  0.3703 -0.4774  0.0897
74602W        W17655  14.198  27.485  16.060  0.0334  0.3821  0.1658
74603W        W17656  23.924  16.525  21.587  0.3184  0.1551 -0.0427
74604W        W17657  26.263  11.934   0.107  0.1147  0.0855  0.1843
74605W        W17658  25.095  17.454   4.854 -0.4646  0.2397 -0.0840
74606W        W17659  27.842  30.418  19.445  0.1225 -0.2010 -0.2650
74607W        W17660  19.425  30.895  23.587 -0.1759  0.2351  0.1028
74608W        W17661  22.097   8.804  14.813  0.0561  0.1562  0.0875
74609W        W17662   6.968   4.802  19.123  0.1361  0.0278  0.1214
74610W        W17663   8.808   5.645   6.908 -0.0461  0.1043  0.3425
74611W        W17664  30.856  19.304  16.980 -0.0980 -0.1820  0.1744
74612W        W17665  16.220  19.753  14.839 -0.0482  0.0686 -0.0128
74613W        W17666  31.179   8.082  20.087 -0.1739  0.0192  0.1332
74614W        W17667  31.191  25.603  26.735  0.0381  0.0129 -0.1213
74615W        W17668  33.242  27.384  19.145  0.0613  0.2512 -0.1129
74616W        W17669  22.030  21.291  17.938  0.0118 -0.2910 -0.1855
74617W        W17670  33.791   4.499  20.333 -0.2492 -0.2876  0.1881
74618W        W17671  25.990  19.151  26.186 -0.1915  0.1116  0.2051
74619W        W17672  22.956  14.450  26.102 -0.0095  0.0018 -0.0749
74620W        W17673  28.159  11.267  19.392  0.2434  0.0377 -0.1697
74621W        W17674  11.448  19.997  24.314  0.1138 -0.0713  0.0298
74622W        W17675  12.122  12.148   9.925 -0.1355 -0.0628  0.1812
74623W        W17676  31.421  31.479  19.692 -0.1493 -0.1731  0.0264
74624W        W17677  11.323  17.885  20.537  0.0097  0.1866 -0.3751
74625W        W17678  31.874  34.034  17.632  0.2554 -0.1074 -0.1146
74626W        W17679  27.709  13.251  22.209  0.0788  0.1820  0.0809
74627W        W17680  15.668   0.228  18.767  0.1075  0.1322 -0.0358
74628W        W17681   1.051  31.453   4.112  0.0047 -0.1851  0.4285
74629W        W17682  14.689  17.345  14.956 -0.0436 -0.0585 -0.1704
74630W        W17683   2.211  25.527  18.999  0.3574 -0.1090 -0.0829
74631W        W17684  24.909  18.925  27.904 -0.0571  0.1457  0.1265
74632W        W17685   3.943  10.579  25.089 -0.4470 -0.0466 -0.0606
74633W        W17686  19.915  15.733  13.016  0.2142  0.1119 -0.0267
74634W        W17687  20.868  30.422  18.064  0.1548  0.0351 -0.0355
74635W        W17688  33.339  15.795  17.734  0.2427  0.2133  0.0780
74636W        W17689  30.715  22.140  20.435 -0.1125  0.0053  0.2257
74637W        W17690   4.614  22.732  13.807 -0.0877  0.2245 -0.1234
74638W        W17691  20.469   5.133  19.033 -0.1061 -0.1406 -0.2422
74639W        W17692  27.837  32.969  15.940 -0.3157  0.2069 -0.0742
74640W        W17693  30.756  15.745  23.251  0.2548 -0.0227 -0.0671
74641W        W17694  21.721  15.882  17.198 -0.2084 -0.0873  0.0764
74642W        W17695  24.500  19.248  19.968 -0.1340 -0.4251 -0.1156
74643W        W17696   7.344  23.699  23.303  0.0286  0.0228  0.3303
74644W        W17697  21.640   8.066  18.854 -0.0833  0.0631 -0.1561
74645W        W17698  24.356   5.085  28.535 -0.2078 -0.3778 -0.4293
74646W        W17699  18.958  13.995  23.105 -0.2011 -0.0504  0.1390
74647W        W17700  24.436   8.478  21.647  0.2273 -0.0211 -0.0732
74648W        W17701  24.392  23.374  20.324 -0.2377 -0.2848 -0.0735
74649W        W17702  30.824  10.579  18.801  0.0502  0.1008 -0.2310
74650W        W17703  18.815  11.670  16.557  0.1276  0.1558 -0.1723
74651W        W17704  25.457  16.988  17.326  0.1331  0.0067 -0.0074
74652W        W17705  27.154  23.015  15.437  0.0141  0.1342 -0.0087
74653W        W17706   8.433  15.740  15.931  0.0206 -0.1167  0.1696
74654W        W17707  12.788  26.619   3.420 -0.0941  0.4877  0.2960
74655W        W17708  19.472  20.186  24.598 -0.0862 -0.0773 -0.3397
74656W        W17709  26.375  32.242  17.220 -0.2425 -0.0596 -0.0340
74657W        W17710  28.879  13.534  15.796 -0.1823 -0.3458  0.2254
74658W        W17711   5.911  16.034  13.482  0.0109  0.2166 -0.0315
74659W        W17712  14.140  34.547   5.702 -0.2152 -0.0204  0.0179
74660W        W17713  33.361  23.821  14.125 -0.3176 -0.0420 -0.0136
74661W        W17714  14.293  16.810   1.894  0.2614  0.0399  0.1737
74662W        W17715   4.315  32.437  14.738  0.1421  0.2396 -0.0227
74663W        W17716  17.509  10.989  25.152  0.2518  0.1634  0.2510
74664W        W17717  17.383  16.782  18.755  0.2306  0.1829  0.1151
74665W        W17718  18.805   6.668  17.541 -0.2012  0.1291  0.1522
74666W        W17719  22.063  13.070  16.833 -0.2224  0.0277 -0.0660
74667W        W17720   4.403  18.849  21.087  0.3113 -0.1136  0.2568
74668W        W17721  19.260  10.559  21.228  0.1600 -0.3227 -0.3342
74669W        W17722   7.368  12.758  18.016 -0.4638 -0.0887  0.4781
74670W        W17723  17.053  22.907  17.391  0.2759  0.1996  0.0274
74671W        W17724  22.577  21.661  16.115 -0.1112 -0.2520 -0.0079
74672W        W17725   9.781  16.688  16.673  0.1656 -0.2196 -0.0597
74673W        W17726  12.932  15.955  17.914 -0.0181 -0.0188  0.1406
74674W        W17727  16.948  16.467  14.040 -0.1725  0.3079 -0.0688
74675W        W17728  14.409  26.857  25.891 -0.1310  0.1742 -0.0479
74676W        W17729  22.592  12.532  20.386  0.0788 -0.1278 -0.1449
74677W        W17730   0.035   9.613  15.442 -0.0087  0.3259 -0.3810
74678W        W17731  15.793  11.686  20.939 -0.0977  0.1865  0.2154
74679W        W17732  20.421  29.628  18.350  0.5314  0.1910  0.4504
74680W        W17733  17.462  23.859  25.269 -0.0124 -0.2245 -0.1188
74681W        W17734  16.046  25.562  22.795  0.0917  0.3811 -0.0265
74682W        W17735  25.636  22.641   4.564 -0.2526 -0.1288 -0.0171
74683W        W17736  21.101   9.587  14.644  0.1978 -0.0042 -0.0664
74684W        W17737  19.334  13.246  23.315 -0.1209  0.1837 -0.1544
74685W        W17738  14.603   4.127  14.188  0.0433 -0.3587 -0.0604
74686W        W17739   8.724  13.210  29.200  0.1080 -0.0905  0.1674
74687W        W17740  15.249  18.209  22.072  0.3037 -0.2610 -0.1194
74688W        W17741   7.856   9.047  17.443 -0.1589 -0.2846 -0.0503
74689W        W17742  19.893  10.718  14.122  0.1675  0.1073  0.4738
74690W        W17743  14.340  13.941  22.286  0.1186 -0.1436 -0.0567
74691W        W17744  23.133  25.667  18.541 -0.3020 -0.2591 -0.0482
74692W        W17745   9.604  21.007  25.743  0.2974  0.3177  0.3228
74693W        W17746   3.650  28.338   5.941  0.0589 -0.3054  0.1359
74694W        W17747  21.200  10.366  21.244  0.0683 -0.1886  0.3306
74695W        W17748   0.263   4.753   2.682 -0.2017 -0.1549 -0.1917
74696W        W17749  19.486  19.658  24.847  0.6271 -0.2212  0.2906
74697W        W17750  28.574  33.855   0.349  0.1442 -0.1093 -0.0494
74698W        W17751  24.139   5.181  17.957 -0.1102 -0.4272 -0.0145
74699W        W17752  33.044   6.381  14.841 -0.0494 -0.3298 -0.0399
74700W        W17753  18.335  12.368  25.490 -0.0495 -0.1758  0.1408
74701W        W17754  30.055  28.470  14.833  0.4320  0.0342 -0.3852
74702W        W17755  23.699  19.207   4.835 -0.0978 -0.1237  0.0444
74703W        W17756  26.066   6.040  20.821  0.1636  0.3072 -0.0820
74704W        W17757   3.811   7.396  28.155 -0.1358 -0.1576  0.5275
74705W        W17758   2.090  14.000  25.685  0.0164 -0.0614 -0.0522
74706W        W17759   9.299  20.680  16.167  0.0137  0.0423 -0.1842
74707W        W17760  22.102  11.867  27.327 -0.0319 -0.0387  0.1395
74708W        W17761  12.260  12.810  16.965 -0.1910  0.1079  0.2477
74709W        W17762  18.109   0.167   6.640 -0.1083  0.1391 -0.2460
74710W        W17763   7.524  21.397  18.854  0.2388 -0.1952  0.0387
74711W        W17764  16.927  20.435   2.165 -0.0728  0.1341 -0.1364
74712W        W17765  11.595   4.568  23.434 -0.1223 -0.0885 -0.0166
74713W        W17766  19.342  24.860   0.665 -0.0260  0.2658  0.0211
74714W        W17767   4.186  10.244  24.730 -0.1516  0.0156  0.1055
74715W        W17768  23.726  21.700  22.703 -0.1480  0.1984  0.0138
74716W        W17769   4.759  29.046  16.190  0.1346  0.1655  0.0388
74717W        W17770  13.687  18.314   9.310  0.2279  0.1022  0.1846
74718W        W17771  15.243  11.374  24.581  0.0796 -0.0854 -0.1117
74719W        W17772  19.269   7.240  18.084 -0.4889 -0.1354 -0.0447
74720W        W17773  10.736   8.909  25.018 -0.1989  0.1126 -0.0135
74721W        W17774  11.664  10.600  18.598  0.0254 -0.2369 -0.1790
74722W        W17775  33.482  12.660  19.143  0.0739 -0.0598 -0.1012
74723W        W17776  24.718   1.305  28.068 -0.2499  0.1118  0.1224
74724W        W17777   0.701  17.019  17.341  0.0172 -0.1601  0.0736
74725W        W17778  26.692  34.412  18.576 -0.2407  0.2473  0.2460
74726W        W17779  23.928  24.262  19.096 -0.2465 -0.0127 -0.0221
74727W        W17780  15.952  24.498  18.172  0.0640  0.1072  0.1924
74728W        W17781   1.774  23.775  21.451 -0.2204  0.1583  0.2054
74729W        W17782  33.846  31.411  16.164 -0.0685 -0.4557 -0.5426
74730W        W17783  23.071  12.214  14.718 -0.0597  0.2835  0.3933
74731W        W17784  15.220   6.929  15.967 -0.2678  0.1066 -0.0434
74732W        W17785  29.277  24.909  21.073 -0.0926 -0.0347  0.0612
74733W        W17786  11.878  18.582   1.029 -0.0930  0.3151 -0.1229
74734W        W17787  17.492  16.790  18.158 -0.0677  0.3010  0.0273
74735W        W17788  16.441   6.637  17.315  0.0338 -0.1035 -0.1656
74736W        W17789   5.025  21.838  23.666  0.0873  0.3345 -0.0018
74737W        W17790   7.484  22.495  15.247 -0.0217  0.3889 -0.0774
74738W        W17791  22.064   1.243  17.366 -0.2281 -0.2024  0.1741
74739W        W17792   9.849  14.861  15.225 -0.2645 -0.1079  0.3438
74740W        W17793  12.216  15.548  15.185 -0.0174  0.1145  0.1181
74741W        W17794  15.265  21.409  25.736  0.0252  0.2755 -0.1556
74742W        W17795   9.498  23.656  15.043  0.1226  0.0849 -0.0215
74743W        W17796  25.574  27.556  28.748 -0.1141  0.1525 -0.0921
74744W        W17797  20.695  31.157  20.764 -0.1855  0.1777  0.0960
74745W        W17798   6.842  23.141   3.355 -0.1741  0.1461  0.0566
74746W        W17799   7.719  22.274  17.265 -0.1687  0.1784  0.3352
74747W        W17800  13.287  16.296  18.299  0.1702 -0.1188 -0.1333
74748W        W17801  13.402  26.806  16.909  0.5169  0.5016 -0.1851
74749W        W17802  18.254  12.441  15.524  0.1012 -0.1171 -0.0870
74750W        W17803   4.663  14.029  16.731 -0.2625 -0.2762  0.1077
74751W        W17804  10.409  30.592  14.734  0.0185 -0.1704 -0.0374
74752W        W17805  10.312   7.045  21.692  0.0175 -0.1149  0.0086
74753W        W17806  10.311  29.747   5.554 -0.1971 -0.0197  0.2586
74754W        W17807  23.833  19.410   9.353 -0.0164 -0.5253 -0.1714
74755W        W17808  26.459  29.281  17.812  0.0849 -0.0180  0.2344
74756W        W17809  24.559  19.500  15.191  0.0594  0.1183  0.1030
74757W        W17810   5.482  12.505  15.411  0.0146  0.5862  0.1314
74758W        W17811  23.351  10.031  21.326 -0.1780  0.0091  0.0830
74759W        W17812  22.417  15.219  17.260 -0.2398 -0.0258 -0.1782
74760W        W17813  10.875  17.414  13.935  0.1898  0.2425  0.3147
74761W        W17814  27.571   9.212  15.017  0.2100 -0.2278  0.0813
74762W        W17815  21.254  18.976  25.302  0.3481 -0.0463 -0.3834
74763W        W17816  20.320  12.131  25.302 -0.2128  0.0459 -0.1183
74764W        W17817  29.333  16.221  27.658  0.1965  0.1202 -0.0095
74765W        W17818  27.168  25.447  27.448  0.0582 -0.0759  0.0962
74766W        W17819   9.618   3.195  19.984  0.1445 -0.0792  0.0129
74767W        W17820   2.608  20.982  27.338  0.1698 -0.0136 -0.0942
74768W        W17821  17.251  19.024  13.533 -0.2005 -0.0580  0.1207
74769W        W17822  15.572  15.820  25.050  0.0893 -0.1360 -0.0995
74770W        W17823  11.368  21.006  15.057  0.0567  0.0056  0.2026
74771W        W17824  17.432  29.513  15.620  0.1699  0.1924 -0.1442
74772W        W17825  19.740   7.372  14.974  0.1370 -0.2111  0.0280
74773W        W17826  26.310  26.833  20.018  0.1279 -0.0122  0.2505
74774W        W17827  20.414  30.531  26.320  0.0049  0.0884  0.1872
74775W        W17828  19.825   9.680  20.668  0.0277  0.2554 -0.0799
74776W        W17829  26.464  16.754  14.928 -0.0862  0.1423  0.0769
74777W        W17830  22.898  20.181  24.155 -0.1099  0.1604  0.2934
74778W        W17831  10.369  34.337  17.554 -0.0093  0.2016  0.0905
74779W        W17832   2.250  11.131  20.149  0.0228  0.1551  0.0496
74780W        W17833  10.799  23.921  23.101 -0.0993 -0.5851  0.1255
74781W        W17834  16.592  21.820  25.803 -0.0253  0.1544 -0.1978
74782W        W17835   8.190   9.711  25.915 -0.0796 -0.4190 -0.1022
74783W        W17836  26.232  10.060   0.497  0.1718  0.0900 -0.3861
74784W        W17837   9.895  15.480  18.598  0.2286  0.1180 -0.1018
74785W        W17838   7.580   9.113  16.076 -0.2922 -0.2549  0.3294
74786W        W17839  22.335   9.008   3.307  0.0250  0.1126 -0.0077
74787W        W17840   8.223   6.473  18.961  0.1738  0.0413  0.0182
74788W        W17841  16.668  24.431  18.331 -0.0266 -0.2173  0.1062
74789W        W17842   3.071  15.140  15.804  0.3190 -0.3043  0.0372
74790W        W17843  12.966  16.035  13.742 -0.3381  0.0660  0.0271
74791W        W17844   8.948  14.310  15.881  0.3371  0.1675 -0.3635
74792W        W17845  16.864  33.295   7.819 -0.1191  0.0223 -0.1688
74793W        W17846  15.639  26.089  17.679  0.0309  0.1736  0.2342
74794W        W17847  29.298  22.505  19.674  0.1352  0.2657  0.0870
74795W        W17848  17.173  23.355  14.255 -0.2257  0.0569 -0.1374
74796W        W17849  18.896  22.538   4.262  0.2256  0.0034  0.0634
74797W        W17850   6.583  13.578  15.794 -0.1679  0.0143  0.1216
74798W        W17851  13.456  11.119  15.647 -0.1344  0.1069 -0.2535
74799W        W17852  11.944  19.277   0.005 -0.0606  0.1246  0.1729
74800W        W17853  32.387  13.615   1.692  0.4060 -0.0036 -0.2968
74801W        W17854  12.374  14.317  26.048  0.1126 -0.0059  0.0045
74802W        W17855  11.815  15.667  15.968  0.1381  0.3111 -0.0056
74803W        W17856   1.649  14.196   6.346 -0.0873  0.0086 -0.0661
74804W        W17857  14.396  21.977  16.466 -0.0090 -0.0112 -0.2007
74805W        W17858  15.540  31.173  24.221  0.0769  0.0759 -0.1366
74806W        W17859  13.778  14.610  21.376  0.1146  0.2197 -0.0994
74807W        W17860  29.665  21.021   0.698  0.1416  0.0862  0.1974
74808W        W17861  12.840  26.310  21.057  0.0000 -0.1319  0.0726
74809W        W17862  32.387  14.724   1.160 -0.1793  0.2993  0.4273
74810W        W17863  21.409   8.512   0.059  0.0905 -0.1459 -0.0847
74811W        W17864   4.652  28.130  13.063  0.3346 -0.1025  0.0713
74812W        W17865   9.755  11.168  18.044  0.0637  0.1651 -0.3199
74813W        W17866  20.206  28.585  23.238  0.1820 -0.0363  0.0057
74814W        W17867  15.519   9.251  25.879 -0.2023 -0.0369 -0.1222
74815W        W17868  16.953  28.119  26.060 -0.0297  0.2225 -0.1618
74816W        W17869  13.548  13.580  23.003 -0.3689  0.2001 -0.1246
74817W        W17870  25.441  15.751  14.412 -0.1314 -0.1801  0.0264
74818W        W17871  13.462  27.406   2.529 -0.0102  0.2987 -0.1066
74819W        W17872  21.691  19.050  17.901 -0.0738  0.1159 -0.1582
74820W        W17873  23.442  13.509  22.230  0.1066  0.0192 -0.1678
74821W        W17874   7.115  26.264  22.630  0.2313 -0.2154 -0.2897
74822W        W17875  24.015  18.673  18.195  0.2875  0.0817  0.1986
74823W        W17876  23.797  14.689   2.556 -0.1196 -0.1881  0.1757
74824W        W17877   2.238  12.175  18.185  0.0767  0.2745 -0.1388
74825W        W17878   0.341  18.315  20.272 -0.0141 -0.1001  0.0663
74826W        W17879  27.614  13.297  16.678 -0.2319 -0.0316 -0.0600
74827W        W17880  24.147   7.727  19.811 -0.1151  0.2158  0.1592
74828W        W17881  13.812  33.052  16.762 -0.0816  0.2937  0.0446
74829W        W17882  11.966  17.226  19.243 -0.2250  0.3064  0.0564
74830W        W17883   4.711   6.094  25.815  0.2827  0.0847 -0.0633
74831W        W17884   6.941  19.946  22.575 -0.1871 -0.0384  0.0042
74832W        W17885  22.271   9.619  15.003 -0.2432 -0.0441 -0.0631
74833W        W17886  16.930   7.154  20.099 -0.1553  0.2720 -0.0557
74834W        W17887  25.138  18.547  22.739  0.1782 -0.0160  0.2253
74835W        W17888  20.393   9.315  24.063  0.1584  0.0458  0.0304
74836W        W17889  21.597   9.146   5.601 -0.0069 -0.2265  0.0203
74837W        W17890  26.624   3.158  18.929  0.2079 -0.3904  0.2511
74838W        W17891  28.135  21.974  21.049  0.1843 -0.0370 -0.1529
74839W        W17892  24.277  22.184  23.670 -0.0207  0.1324  0.0856
74840W        W17893   3.505  17.193  21.612  0.2230  0.0474 -0.0579
74841W        W17894  16.174  15.001   9.013 -0.0307 -0.1543  0.1745
74842W        W17895  17.297  24.469  16.754  0.0051  0.2543 -0.1569
74843W        W17896   5.072  13.698  22.356 -0.0202  0.3187 -0.1060
74844W        W17897  12.262  31.769  20.226  0.2435 -0.3026  0.3451
74845W        W17898   4.281  22.729  16.073  0.1700 -0.1221  0.0166
74846W        W17899  21.665  12.274  15.835 -0.0392 -0.3124 -0.3417
74847W        W17900   0.096  14.510  26.415 -0.1088  0.3317 -0.0540
74848W        W17901  12.970  20.758  29.090  0.1019  0.3295 -0.1321
74849W        W17902  18.792  21.463  14.296 -0.0663  0.0212 -0.1073
74850W        W17903  32.275  27.434  24.416  0.6091 -0.4956 -0.2934
74851W        W17904  24.563  18.352   9.331 -0.1948 -0.0273  0.0824
74852W        W17905  13.495   6.529  27.105  0.2199  0.0568  0.1275
74853W        W17906  31.954   7.990  14.482  0.1459  0.1898  0.2633
74854W        W17907  12.771  18.893  16.549 -0.1125  0.1376  0.3277
74855W        W17908  14.201  10.896  24.897 -0.0323 -0.0222 -0.1630
74856W        W17909  30.420  23.287  25.424 -0.2072 -0.2832 -0.1332
74857W        W17910  19.967  28.712  18.447  0.2766 -0.2136  0.3081
74858W        W17911   4.345  29.268  17.908 -0.1105  0.0514  0.0511
74859W        W17912  33.034  33.054  22.046 -0.1507 -0.0225 -0.0246
74860W        W17913  29.844  23.538   1.894  0.2613  0.2138 -0.1610
74861W        W17914   6.263  29.829  27.729  0.1012 -0.1246  0.0590
74862W        W17915  25.912  21.362  14.368 -0.3822 -0.0264 -0.4027
74863W        W17916  12.709   9.896  21.400 -0.1863  0.0520  0.2439
74864W        W17917  23.802  31.872  23.323 -0.2258  0.2192 -0.0783
74865W        W17918  17.406  12.164  21.194  0.2194 -0.2350 -0.2592
74866W        W17919  14.163  17.962  21.162 -0.1524  0.1132 -0.1923
74867W        W17920  15.620  18.674  14.496  0.2678 -0.0466  0.2061
74868W        W17921   9.091  23.733  19.124  0.1162  0.3569 -0.2713
74869W        W17922   5.344  11.049   3.401 -0.0607  0.1991  0.0266
74870W        W17923  15.569   0.147   5.343 -0.1584 -0.0211 -0.0990
74871W        W17924   6.538  18.914   4.599  0.1760  0.1853 -0.0705
74872W        W17925  22.462  21.504  21.268  0.2704 -0.2136 -0.0607
74873W        W17926  18.438  16.770  17.941  0.1737 -0.2006 -0.0838
74874W        W17927  18.719  18.454  19.047  0.3039 -0.0825 -0.1341
74875W        W17928  16.594  31.986   5.098 -0.0880  0.2760  0.2205
74876W        W17929  16.483  16.280  18.739 -0.1685 -0.0933  0.5890
74877W        W17930  16.226  17.345  18.195 -0.2280 -0.3821  0.1524
74878W        W17931  24.173  26.169  17.244  0.2819  0.0151  0.0219
74879W        W17932   7.569  20.555   6.986 -0.0445  0.2233 -0.1190
74880W        W17933  17.963   0.969  26.042  0.2049  0.0080 -0.0166
74881W        W17934  29.972   5.852  27.471 -0.0176  0.0484 -0.0978
74882W        W17935  24.159  14.057  15.177 -0.5272  0.1602 -0.1915
74883W        W17936  16.217  15.374  19.112  0.0250 -0.1166  0.2810
74884W        W17937  26.446  25.747  21.266 -0.1137 -0.2212  0.0722
74885W        W17938  16.086  15.731  19.926  0.0346 -0.1347 -0.3067
74886W        W17939  30.178  10.649  28.268 -0.0999 -0.0176 -0.0614
74887W        W17940   9.219  13.558  17.058 -0.1592  0.1302 -0.3607
74888W        W17941  13.354  18.789  26.040 -0.3137  0.3930  0.0120
74889W        W17942  19.100  17.050  19.027 -0.2225  0.0044 -0.2971
74890W        W17943  16.871  17.988  17.520 -0.0216  0.1711  0.1458
74891W        W17944  12.616   3.229  17.936  0.1244  0.2030 -0.3144
74892W        W17945  32.177  21.089  28.266  0.3034 -0.1149 -0.1205
74893W        W17946  32.744  16.371  13.815 -0.1594  0.0326  0.3374
74894W        W17947  33.224  14.420   7.041  0.0601  0.2518 -0.1512
74895W        W17948  15.482  10.145  19.098  0.1113  0.2339 -0.0030
74896W        W17949  24.557  16.429  18.401  0.2045 -0.0477 -0.1499
74897W        W17950   7.659  29.374  25.650  0.1938  0.1463  0.4931
74898W        W17951   7.038  18.688   0.637  0.1578 -0.3696  0.2987
74899W        W17952  31.359  12.920  18.582  0.0305  0.2030  0.1719
74900W        W17953   6.940  25.975  19.628 -0.0715 -0.2648  0.1165
74901W        W17954   4.718  26.134  24.377 -0.1900  0.2410  0.4772
74902W        W17955  17.587  17.272  19.315 -0.0902  0.0977 -0.0023
74903W        W17956  28.518  24.640  27.271  0.0909 -0.1299  0.0481
74904W        W17957   9.424  11.641  17.888  0.1792 -0.1482  0.5712
74905W        W17958  18.094  18.750  18.793  0.1327  0.0610 -0.0409
74906W        W17959  18.077  18.910  26.645  0.3517 -0.2210 -0.0946
74907W        W17960  16.722  17.079  19.647 -0.0075  0.0891  0.2093
74908W        W17961  17.820  16.020  18.405  0.2543  0.0567 -0.0263
74909W        W17962  14.335  28.888  13.965  0.2594 -0.2759 -0.3185
74910W        W17963  29.208  17.024  21.801  0.0796 -0.2277 -0.0586
74911W        W17964  21.114   0.183  16.849  0.1010  0.1018  0.2542
74912W        W17965  13.469   5.215  16.403 -0.1054  0.0639  0.2627
74913W        W17966  26.299  13.833  17.754 -0.0718  0.1744 -0.0122
74914W        W17967  17.917  15.271  17.690 -0.2281 -0.0352  0.3893
74915W        W17968   7.677  18.693  22.745  0.2061 -0.2605  0.1523
74916W        W17969  16.617  15.550  18.832  0.2084  0.4088  0.0569
74917W        W17970   6.485  17.179   2.724 -0.0640 -0.0623 -0.1086
74918W        W17971  16.753  16.156  19.557 -0.2255 -0.1575 -0.1520
74919W        W17972  16.553  17.246  18.789 -0.0524  0.0937  0.1365
74920W        W17973  27.458  24.263  28.095 -0.1178  0.5300 -0.0179
74921W        W17974  22.218  19.123  10.391  0.1188 -0.0208 -0.1484
74922W        W17975  26.594  19.907  26.190 -0.0868  0.3258  0.2825
74923W        W17976  17.547  15.030  18.145  0.1590  0.0272  0.0634
74924W        W17977  26.887  25.813   0.164 -0.1778  0.1587 -0.1125
74925W        W17978  14.157  18.432  16.429 -0.2137 -0.1023  0.2388
74926W        W17979  19.736   9.535   2.291 -0.0743 -0.0561 -0.0475
74927W        W17980  12.933  12.909  18.995  0.1696 -0.1377  0.0225
74928W        W17981  19.055  17.650  19.110 -0.2484  0.1361  0.1108
74929W        W17982  17.534  17.633  19.642  0.2182 -0.0610 -0.0857
74930W        W17983  15.944  15.552  18.158 -0.1397  0.0599 -0.2404
74931W        W17984   0.145  23.127   0.192  0.1746 -0.1274  0.0220
74932W        W17985   9.484  28.984  16.454  0.3024  0.3489 -0.0199
74933W        W17986  16.098  11.795  10.467  0.1536  0.0914  0.0096
74934W        W17987  18.885  17.929  15.382  0.5757  0.1218 -0.0387
74935W        W17988  11.420  14.184  21.120  0.1277 -0.0252  0.1449
74936W        W17989  20.578  19.087  17.525 -0.0243  0.0546 -0.2389
74937W        W17990  16.374  17.942  19.331 -0.0592  0.3738  0.0616
74938W        W17991  27.484  29.584  16.234 -0.0081  0.0810 -0.2289
74939W        W17992  18.671  17.695  18.755 -0.0782 -0.1287  0.3696
74940W        W17993  26.363  23.580   3.316 -0.0908 -0.1955 -0.1434
74941W        W17994  17.884  17.898  19.850 -0.0866  0.4153  0.1773
74942W        W17995  24.176   8.477  22.676  0.1625 -0.0173  0.0468
74943W        W17996  18.029   8.952  22.118 -0.0323 -0.0389  0.5173
74944W        W17997   5.913  30.983  15.324  0.0236 -0.1660  0.2754
74945W        W17998  16.350  16.402  19.983 -0.0590 -0.1996  0.0320
74946W        W17999  16.492  17.860  17.901  0.0457 -0.0174 -0.0959
74947W        W18000  19.942  22.930  16.322 -0.1378 -0.3328  0.1497
74948W        W18001  10.194  24.338  21.717  0.0423 -0.0150 -0.0171
74949W        W18002  15.949  17.789  18.074  0.1307 -0.0841 -0.2274
74950W        W18003  17.683  18.264  17.554 -0.0931 -0.0649  0.1189
74951W        W18004   6.102  15.299  13.853 -0.2225  0.0390  0.1106
74952W        W18005  17.591  16.184  18.013 -0.1468 -0.0742  0.2424
74953W        W18006  28.251  10.873  15.487 -0.2121 -0.4389 -0.1124
74954W        W18007  18.468  16.349  18.274 -0.0639  0.2430  0.1567
74955W        W18008  18.263  16.282  18.689 -0.2709  0.0515 -0.1679
74956W        W18009  21.360  16.728   5.821 -0.0467  0.0744 -0.0197
74957W        W18010  15.566  15.866  17.946 -0.1444  0.1306  0.1365
74958W        W18011  22.315  15.893  25.989  0.3462 -0.1292 -0.1975
74959W        W18012  17.411  17.334  17.979 -0.0861  0.0527  0.1132
74960W        W18013  21.555  19.387  21.845 -0.1186 -0.0749  0.1540
74961W        W18014  19.319   4.675   7.207 -0.0241 -0.2115  0.0960
74962W        W18015  17.941  16.642  19.524  0.0970  0.0977 -0.1406
74963W        W18016  17.200  17.280  19.593  0.0861 -0.2780  0.0047
74964W        W18017   5.495   7.675  26.476 -0.3497  0.0317 -0.0904
74965W        W18018  17.101  17.425  19.060  0.2014 -0.2246  0.0012
74966W        W18019  15.950  16.633  19.833 -0.0427  0.2364  0.0953
74967W        W18020  20.532   4.104  24.230 -0.2807 -0.2606 -0.4403
74968W        W18021  19.357  18.381  18.603 -0.4550  0.1815  0.1304
74969W        W18022  19.344  18.009  18.272  0.1999  0.0309 -0.3329
74970W        W18023  10.246  27.418  13.927 -0.0419 -0.2768  0.2030
74971W        W18024   6.723   6.362  25.027 -0.3604 -0.0844 -0.1298
74972W        W18025  30.869  23.172   4.888  0.1054 -0.2311 -0.2277
74973W        W18026  17.812  17.010  18.494 -0.0161 -0.1657  0.2762
74974W        W18027  16.634   6.451  25.162  0.0855  0.0580  0.1505
74975W        W18028  18.103  18.343  19.092 -0.1679  0.0579  0.1952
74976W        W18029  25.644  18.530   0.230 -0.0497 -0.0328  0.1179
74977W        W18030  16.345  10.302  18.083  0.2543 -0.0844  0.0144
74978W        W18031  18.269  17.378  18.608 -0.3576  0.0794  0.0863
74979W        W18032  16.243  16.992  19.123 -0.0645  0.1074  0.2448
74980W        W18033  16.777  18.161  18.570  0.4525  0.0132  0.0179
74981W        W18034  22.212   4.471  22.431 -0.1846  0.0619  0.2266
74982W        W18035  10.717  25.433  17.970  0.0236 -0.2075 -0.2297
74983W        W18036  17.750  16.427  18.801  0.1221 -0.1720  0.4082
74984W        W18037  16.963  18.305  19.632 -0.0268  0.0121 -0.4134
74985W        W18038  15.745  20.807  14.931 -0.4070 -0.1155 -0.2329
74986W        W18039   8.668  16.747  23.229  0.1933 -0.1898  0.0432
74987W        W18040  16.068  15.318  19.590  0.1472  0.1855  0.1058
74988W        W18041  23.569  30.165  19.918 -0.4968 -0.3271  0.0956
74989W        W18042   7.927   6.752  22.080 -0.1714 -0.1258 -0.3647
74990W        W18043  17.208  18.289  18.316 -0.0889  0.3915 -0.1698
74991W        W18044  28.912   9.989   4.213  0.1796 -0.0120  0.0516
74992W        W18045  26.408  19.324  22.591 -0.1118  0.0761 -0.0258
74993W        W18046  32.469  24.863  17.127 -0.0826 -0.1196  0.0200
74994W        W18047  18.347  29.261  10.521  0.0719 -0.1860  0.0981
74995W        W18048  18.580  13.868  13.012  0.0728 -0.0625  0.0459
74996W        W18049  13.575  32.493  21.545 -0.0028  0.1245  0.0486
74997W        W18050  24.769  17.550  18.447  0.0420  0.4173 -0.0820
74998W        W18051  17.528  17.695  18.974 -0.0188  0.0161  0.2607
74999W        W18052  13.647  15.546   4.019  0.2386 -0.4513  0.1877
75000W        W18053  34.093  30.625  22.608 -0.0640 -0.0034  0.0532
75001W        W18054  17.927  15.404  18.191  0.0772  0.4453 -0.1968
75002W        W18055  11.650  16.914  20.262 -0.2521  0.0295  0.1580
75003W        W18056   5.057  12.219   8.554 -0.2932  0.1397  0.5503
75004W        W18057  29.055  19.835  22.467 -0.0557  0.0465 -0.0012
75005W        W18058  26.558  19.675  27.169  0.0493  0.3156 -0.2434
75006W        W18059  23.732  15.877  17.832 -0.0068  0.0308  0.1045
75007W        W18060   1.864  26.537  13.444  0.4387 -0.1132  0.0824
75008W        W18061  16.367  16.751  19.564  0.1185  0.2535  0.0781
75009W        W18062  18.145  16.784  18.825  0.0757 -0.1004  0.1289
75010W        W18063  16.376  18.084  18.817 -0.0432 -0.1175  0.0083
75011W        W18064  27.789  11.519   4.360  0.1003 -0.3915  0.0396
75012W        W18065   4.791   9.455  15.579  0.3634 -0.0978  0.0700
75013W        W18066  17.410  15.929  18.712 -0.2456 -0.0452  0.0151
75014W        W18067  17.665  16.211  19.508  0.0985  0.1382  0.1809
75015W        W18068   3.620  19.818  15.853 -0.0056 -0.1546  0.0564
75016W        W18069  18.793   0.240   8.381  0.0259 -0.1751  0.1808
75017W        W18070  21.378  31.475  20.406  0.2357 -0.0349 -0.1205
75018W        W18071  17.229  18.216  18.831 -0.0471 -0.2833  0.0249
75019W        W18072  17.884  17.888  19.323  0.1680 -0.0964 -0.0250
75020W        W18073  15.528   2.008   1.380 -0.4435 -0.5693 -0.2746
75021W        W18074  16.714  16.727  20.064 -0.0485 -0.0166  0.4071
75022W        W18075  17.947  17.351  19.044 -0.3197  0.2042 -0.0931
75023W        W18076  18.002  18.185  18.348 -0.0368 -0.0549  0.1517
75024W        W18077  17.959  16.512  18.351  0.2653 -0.0240  0.1239
75025W        W18078  10.366   0.214   2.024 -0.1217 -0.0458  0.0522
75026W        W18079   3.772  18.390  27.266 -0.0730 -0.1784 -0.1174
75027W        W18080   8.199  31.207  25.770  0.0716  0.0529  0.3315
75028W        W18081  31.713  26.711  27.826 -0.1883  0.2432 -0.0468
75029W        W18082  16.391  16.360  18.278 -0.1000 -0.1119  0.1295
75030W        W18083  17.526  17.178  20.429  0.0430  0.0779  0.1393
75031W        W18084  18.756   9.035  16.823 -0.2774  0.0274  0.0496
75032W        W18085  12.386  11.161  15.414  0.1146 -0.0156  0.1603
75033W        W18086   0.196  23.167  24.751 -0.4178 -0.2561  0.1904
75034W        W18087  15.919  18.614  19.488 -0.2419 -0.0042  0.0601
75035W        W18088  11.179  18.786  17.716 -0.0849  0.1422  0.0444
75036W        W18089  18.424  17.458  19.154  0.1269 -0.0714 -0.0802
75037W        W18090   6.358  12.161  15.657  0.2177  0.1541  0.1339
75038W        W18091  13.966  31.872  17.567 -0.1314 -0.1102 -0.0517
75039W        W18092  18.211  18.602  18.181  0.0418 -0.0215  0.0652
75040W        W18093  11.387  25.728   2.780 -0.0605 -0.1387  0.4445
75041W        W18094  33.400  34.504  27.579 -0.0131  0.1391  0.0549
75042W        W18095   8.753  10.488  18.682 -0.0037 -0.1133 -0.1155
75043W        W18096  16.969  17.666  17.933 -0.0886  0.0871 -0.0156
75044W        W18097  17.670  18.184  20.180  0.2165  0.0300 -0.0898
75045W        W18098  17.260  16.919  19.165  0.2606 -0.2250 -0.0491
75046W        W18099  14.686  17.924  25.261 -0.2545 -0.2047 -0.0331
75047W        W18100  15.949  16.589  19.247 -0.2231 -0.0460  0.3619
75048W        W18101  10.828  23.926  16.751  0.0008  0.1849 -0.1495
75049W        W18102  11.750  25.539  27.524  0.1723 -0.0275 -0.1612
75050W        W18103  34.025  14.311  25.948 -0.2756  0.1124 -0.0475
75051W        W18104  15.044   0.893   4.843  0.0528 -0.1825 -0.1124
75052W        W18105  15.922  16.194  18.996 -0.3441 -0.0470 -0.0507
75053W        W18106  16.571  17.373  17.893 -0.2862  0.0562 -0.0170
75054W        W18107  17.231  16.122  19.763  0.1180  0.5398  0.3536
75055W        W18108   4.193  15.062  27.960  0.2655  0.0629  0.2700
75056W        W18109   6.829  26.191  27.971 -0.0832 -0.1263 -0.1316
75057W        W18110  29.714   9.310  24.117  0.0586  0.0358  0.2453
75058W        W18111  18.290  17.798  18.377 -0.2033 -0.1496  0.3794
75059W        W18112  14.745  10.109   3.834  0.2814 -0.0494 -0.1234
75060W        W18113  33.491  17.886  22.943 -0.3173  0.3642 -0.3198
75061W        W18114  16.946  16.624  19.465 -0.0076 -0.0401 -0.1925
75062W        W18115  17.195  15.392  17.980  0.0832  0.0842  0.0499
75063W        W18116   1.884   8.261  16.391  0.2186  0.0096  0.0814
75064W        W18117  18.280  17.930  19.571 -0.1983 -0.3884  0.0349
75065W        W18118  22.550  19.059  25.011  0.0680 -0.1378  0.0772
75066W        W18119  16.478  17.566  20.483 -0.1414 -0.0348 -0.2579
75067W        W18120  17.164  17.898  19.345  0.1332 -0.0520  0.2055
75068W        W18121  32.446  19.081   7.247 -0.1396 -0.4008  0.3907
75069W        W18122  18.203  16.979  19.245  0.1476 -0.2148  0.1587
75070W        W18123  22.282  23.666   7.901 -0.2183  0.1903 -0.1024
75071W        W18124  32.052  22.202  22.588  0.0497  0.1002  0.0769
75072W        W18125  17.539  17.615  20.678  0.4038  0.1433 -0.0446
75073W        W18126  16.620  17.718  18.330 -0.0493  0.1326 -0.3459
75074W        W18127  17.193  16.691  25.507  0.0436 -0.0556 -0.2435
75075W        W18128  22.378  22.040   9.189 -0.1593  0.0103 -0.2215
75076W        W18129  17.024  17.713  19.853 -0.3806  0.1337  0.4094
75077W        W18130   2.047  11.593  19.457  0.0607  0.0203 -0.1827
75078W        W18131  10.831  15.329   8.103  0.1186  0.0121  0.0201
75079W        W18132  23.695  18.925  25.567  0.1647  0.0396  0.0916
75080W        W18133   8.906  23.610  25.048  0.2139  0.0073  0.0040
75081W        W18134   8.978   6.112   3.781  0.2756 -0.0073  0.0606
75082W        W18135  30.321  10.435  29.059  0.1105  0.4517  0.1460
75083W        W18136  10.539  14.027   5.588 -0.3523 -0.1043 -0.0123
75084W        W18137  16.454  15.648  19.584 -0.0986 -0.0368  0.0447
75085W        W18138  26.558  25.549  26.806 -0.0920 -0.1947 -0.0348
75086W        W18139  10.282  10.630   3.159 -0.1245 -0.1684  0.1697
75087W        W18140  23.255  18.436   1.846  0.0083  0.2009 -0.0926
75088W        W18141   9.635  33.354  20.767  0.0115  0.1680 -0.0073
75089W        W18142  27.463  11.597   0.599  0.0649 -0.2740  0.1140
75090W        W18143  18.615   7.890  26.538  0.0506  0.0644 -0.0915
75091W        W18144  15.431  25.062   6.513  0.2445  0.0994  0.3291
75092W        W18145  25.069   8.860  28.084 -0.0629 -0.0223  0.0447
75093W        W18146  18.615   9.235   3.530  0.0995  0.2170  0.0532
75094W        W18147  28.477  22.738   7.319  0.0222  0.2577  0.1971
75095W        W18148   8.189  10.814   7.272 -0.0054 -0.0224  0.2934
75096W        W18149  12.748  23.195   2.515  0.0474 -0.2853  0.0873
75097W        W18150   8.745  17.954  25.350 -0.2137  0.1119 -0.2909
75098W        W18151  11.924  11.989  22.728 -0.0373  0.2662 -0.0145
75099W        W18152   6.062  18.717  22.646  0.0053  0.1203  0.2036
75100W        W18153  29.407   9.785  22.368  0.2068  0.1527  0.0987
75101W        W18154  11.148  26.536  22.428 -0.0292 -0.1562  0.1950
75102W        W18155  18.618  24.715  18.416  0.0786 -0.3617 -0.0260
75103W        W18156   7.671   7.446  18.333  0.0215  0.1489  0.3040
75104W        W18157   7.302  10.907   6.173  0.0234  0.2379  0.1343
75105W        W18158  14.825  10.732  23.038  0.0024 -0.0109 -0.0052
75106W        W18159  17.280  24.979   7.028  0.1849  0.0673 -0.1336
75107W        W18160  28.474  30.196  22.287 -0.3471 -0.0872 -0.1068
75108W        W18161  14.581  12.695  20.476 -0.1122 -0.1250 -0.0232
75109W        W18162  10.277  31.167   8.078 -0.2359 -0.0846  0.1050
75110W        W18163  25.133  22.963  25.427 -0.2876  0.1217  0.1217
75111W        W18164  17.151  22.053   9.237 -0.1716  0.1933  0.1264
75112W        W18165  32.272  15.002  10.456 -0.0905 -0.0096  0.0390
75113W        W18166  21.150  34.021   7.164 -0.2110  0.1748  0.0292
75114W        W18167  17.341  20.611  25.898  0.3262 -0.3500 -0.1597
75115W        W18168  30.945   9.537  28.168  0.1790 -0.3935  0.0130
75116W        W18169  14.071  10.548  22.228 -0.2998  0.0651 -0.3618
75117W        W18170   3.891  11.181  28.365  0.0055 -0.1988  0.1065
75118W        W18171  19.542  16.594  28.125  0.1451  0.2096 -0.1837
75119W        W18172  19.968   1.771  26.529 -0.0851  0.0394  0.0331
75120W        W18173  34.450  31.599  25.346 -0.2123  0.4068 -0.2934
75121W        W18174  22.275  15.025   4.958  0.1298  0.0561 -0.1371
75122W        W18175  21.676   9.527   1.846  0.0642 -0.5973  0.0200
75123W        W18176  11.610   3.308  18.575 -0.0593  0.1874 -0.0022
75124W        W18177  15.061  33.354  25.380 -0.1063 -0.1799 -0.1792
75125W        W18178  19.512  23.231   2.825  0.1787  0.2678  0.0737
75126W        W18179  16.944   1.706   8.742 -0.0921 -0.1011  0.2686
75127W        W18180   7.746  32.147   2.341  0.1624  0.0537 -0.0409
75128W        W18181   3.398  11.844  18.879 -0.2823 -0.2986  0.1866
75129W        W18182   0.971  14.139  23.093  0.3066 -0.2572 -0.2496
75130W        W18183   2.228  26.237   6.110  0.0209 -0.0106 -0.2740
75131W        W18184  33.014  11.358  20.652 -0.0871 -0.0392  0.0377
75132W        W18185   5.309   8.957   1.436  0.2162  0.0748  0.2856
75133W        W18186  24.355  13.390  24.324  0.2521  0.0833  0.2312
75134W        W18187  21.994   7.480   1.492  0.2331  0.1002  0.3156
75135W        W18188  25.280  17.397  17.110 -0.1104 -0.2760 -0.2031
75136W        W18189   9.261  22.042   3.786 -0.0875 -0.4378  0.1359
75137W        W18190  17.318  17.111  20.000  0.2552 -0.0803  0.2073
75138W        W18191  12.640  17.600   7.045  0.1596 -0.4106 -0.0123
75139W        W18192  18.294  32.079   6.795 -0.0827  0.1040  0.1381
75140W        W18193  17.695   9.637   7.804 -0.2798  0.2027  0.2094
75141W        W18194  31.282  17.153   7.155  0.0533  0.2012  0.0228
75142W        W18195  23.799  30.160  26.292 -0.3608 -0.1005 -0.2105
75143W        W18196   9.717   0.176  24.621  0.1090 -0.1369 -0.1724
75144W        W18197  15.540   8.862  25.522 -0.0864 -0.1414  0.1428
75145W        W18198  10.551  15.075  29.003  0.0977 -0.0369 -0.3893
75146W        W18199   7.408  13.896  22.078 -0.0779  0.2151  0.2154
75147W        W18200  16.301  29.051  21.726 -0.0530  0.1019  0.0465
75148W        W18201  22.107  22.417  17.051 -0.1486  0.1579 -0.1546
75149W        W18202   5.079  19.824   7.154 -0.1262 -0.0264  0.3432
75150W        W18203   7.039  10.957  23.637  0.3444  0.1451 -0.0782
75151W        W18204  26.251  12.158  22.865  0.0744  0.2727 -0.0368
75152W        W18205  19.235  16.281   1.152  0.1983  0.2074  0.3170
75153W        W18206  29.190   3.369  13.652  0.2163 -0.1489  0.1598
75154W        W18207   0.718  21.691  26.369  0.2745 -0.0554  0.3143
75155W        W18208  12.103  20.076  18.704 -0.1344  0.0307  0.2159
75156W        W18209  14.542  30.492   4.178  0.3772  0.0193  0.1332
75157W        W18210   1.123  13.308  17.971 -0.0681 -0.0787 -0.0156
75158W        W18211  22.246   2.829   8.384 -0.1771  0.0468  0.0777
75159W        W18212  26.945  18.689   1.779 -0.0635 -0.1855 -0.0260
75160W        W18213  21.827  13.901  14.823 -0.0320 -0.1910  0.0149
75161W        W18214  21.067  23.436   2.630  0.0008 -0.0378  0.1710
75162W        W18215   7.007   1.574   8.903 -0.0418 -0.0321  0.0985
75163W        W18216   6.598   9.196  22.479 -0.0857 -0.3370  0.2691
75164W        W18217  16.108  17.815  29.072  0.0590  0.0899 -0.2296
75165W        W18218   6.202  26.241   6.155  0.0552  0.0810 -0.3934
75166W        W18219   5.985  26.858   5.535 -0.1697 -0.3573  0.1286
75167W        W18220  24.735  23.682   6.611 -0.0210 -0.1927 -0.0182
75168W        W18221  20.876   1.790  27.457 -0.1866  0.1512 -0.2241
75169W        W18222  15.645   1.994   6.073 -0.0034  0.0448 -0.0540
75170W        W18223  20.097  32.093  24.056  0.1789 -0.1425 -0.2247
75171W        W18224   8.041  16.326  27.411  0.0829  0.0037 -0.1009
75172W        W18225   5.342   9.744  29.182 -0.1037 -0.1823  0.1228
75173W        W18226  14.519  12.337  22.489 -0.0872  0.0814  0.1409
75174W        W18227  31.037  22.316  24.195  0.0665 -0.0212 -0.3193
75175W        W18228  18.642   4.236  20.004  0.0568  0.1242 -0.0194
75176W        W18229  18.428  16.285  28.303  0.0459 -0.0164 -0.2151
75177W        W18230  34.449  16.224  15.797 -0.1894 -0.2659 -0.0823
75178W        W18231  30.005  12.115  20.104 -0.1041 -0.3187  0.1606
75179W        W18232  10.456  17.160  14.429  0.4326 -0.0720 -0.1104
75180W        W18233  33.977  25.488   6.532  0.1317 -0.2540  0.1693
75181W        W18234  13.403  13.324   4.487  0.0629 -0.1124  0.1519
75182W        W18235  22.401  11.718   7.172  0.0172  0.1049 -0.2134
75183W        W18236  24.514  23.180  27.395 -0.1127  0.1942  0.2545
75184W        W18237   0.042  15.332  23.277  0.1636 -0.0672 -0.1119
75185W        W18238   9.161  15.177   7.151  0.3550 -0.3778 -0.0566
75186W        W18239  15.382  19.894   6.553 -0.0761 -0.0730  0.3211
75187W        W18240  25.199   9.020   7.522 -0.1671 -0.0013 -0.0229
75188W        W18241   0.871  17.619  26.621  0.2359 -0.2503  0.0444
75189W        W18242   0.454  12.366   8.300  0.0168 -0.1466 -0.1634
75190W        W18243   8.281  23.360  21.165  0.2297  0.0904  0.1492
75191W        W18244   8.954  15.953   2.080 -0.2241 -0.2349  0.1081
75192W        W18245  33.012   5.663   8.038 -0.1782 -0.1510  0.1037
75193W        W18246  24.676  10.042   0.890  0.1747  0.1112 -0.0067
75194W        W18247  18.904   2.567   4.603  0.0000 -0.1119  0.0913
75195W        W18248  20.511   2.766  25.395  0.1452  0.0240  0.0143
75196W        W18249  19.751  20.180   9.659  0.0701 -0.2942 -0.3179
75197W        W18250   5.541  22.120  17.320  0.1478 -0.2320  0.1249
75198W        W18251  15.813  21.222   3.661  0.1952 -0.0690  0.1414
75199W        W18252  29.218  16.657  20.678  0.1085  0.1302 -0.1801
75200W        W18253   1.364   6.988   0.617 -0.0742 -0.0994  0.0233
75201W        W18254  22.614   3.534   7.337 -0.0387 -0.1325 -0.2690
75202W        W18255   1.080  22.423  27.072  0.0103  0.1832 -0.2487
75203W        W18256  15.484  17.521  16.514 -0.2505  0.0918  0.3391
75204W        W18257   7.891   3.284  16.758  0.1943  0.3287 -0.0670
75205W        W18258  25.596  14.383  20.883 -0.1824 -0.2583 -0.3107
75206W        W18259  12.872  10.378   0.804  0.1861 -0.0550 -0.0296
75207W        W18260  13.697   3.814  20.026 -0.3938  0.3610 -0.1821
75208W        W18261   8.118  16.934   5.036 -0.1478 -0.0055  0.1512
75209W        W18262  18.027   8.802  24.463 -0.1807 -0.2213  0.0631
75210W        W18263  17.564  14.015  28.891 -0.0189 -0.3247  0.3539
75211W        W18264  23.055  14.278  13.650  0.1027  0.0814  0.3985
75212W        W18265  10.868  31.020   0.990 -0.2031  0.1691  0.0809
75213W        W18266  15.055  28.469  15.832  0.4498 -0.1379  0.0845
75214W        W18267  20.751  12.892  16.745 -0.0365  0.0191 -0.1305
75215W        W18268   9.405  21.533  25.602  0.1086 -0.1167 -0.2329
75216W        W18269   4.074   6.860  28.327 -0.1909 -0.0686  0.1552
75217W        W18270   4.895   2.834  25.638  0.1623 -0.1026 -0.0714
75218W        W18271   5.650  11.917  26.988  0.1684  0.1706  0.0830
75219W        W18272   9.216  17.772   1.389  0.0111  0.0695 -0.0014
75220W        W18273  17.777  18.619   3.692  0.1742  0.0449 -0.1735
75221W        W18274  13.263  31.932  27.566  0.1947  0.0825  0.1255
75222W        W18275  18.809  22.543   9.939 -0.2368 -0.6490 -0.1939
75223W        W18276  27.541  17.318   4.704 -0.0986  0.1074  0.1176
75224W        W18277  20.884  14.999  29.131 -0.1010  0.1005  0.0804
75225W        W18278  17.994   1.631   1.028  0.1372 -0.0144 -0.0615
75226W        W18279   6.873  27.803   6.172 -0.2824 -0.0589 -0.0074
75227W        W18280  33.388   6.520   9.732  0.4135  0.0212  0.2359
75228W        W18281  14.973  18.113   2.036  0.2512 -0.0388  0.1325
75229W        W18282  13.848   2.192  27.018  0.1769  0.4613  0.0531
75230W        W18283  29.621  18.142  22.830 -0.1001  0.0499  0.0183
75231W        W18284  23.576  20.338   6.744  0.1740  0.0697  0.0263
75232W        W18285  18.869   7.488   6.725  0.0948  0.0172  0.1619
75233W        W18286   8.061  16.639   4.625 -0.0530 -0.0489 -0.0793
75234W        W18287  18.914  19.517   8.340 -0.1904 -0.0522 -0.0050
75235W        W18288   1.201   7.263  27.083  0.0883  0.0814  0.1993
75236W        W18289  21.526  24.025  16.416  0.2110 -0.0426  0.0528
75237W        W18290   9.558   3.264  25.238 -0.1647  0.1609  0.1654
75238W        W18291  33.188  10.461  24.276 -0.3213  0.1379  0.1204
75239W        W18292   0.433  21.674  22.480  0.1101 -0.2460 -0.0495
75240W        W18293  13.843   5.996  15.137  0.2666 -0.2851  0.0052
75241W        W18294  18.791  16.307  19.451  0.1172 -0.2748 -0.1462
75242W        W18295  20.333   9.878   0.182  0.0982  0.1502 -0.1269
75243W        W18296  13.564  17.760  27.617 -0.1241 -0.0244  0.0181
75244W        W18297   8.085  13.785   5.717 -0.1934 -0.0876  0.1663
75245W        W18298  20.479  20.480  23.811 -0.3474  0.2231 -0.0403
75246W        W18299  30.739  13.382   9.125 -0.1067  0.1399 -0.0313
75247W        W18300  17.068  21.168  14.825 -0.1260  0.2129  0.0186
75248W        W18301   5.845  16.373   2.837 -0.0126  0.4047  0.1245
75249W        W18302  11.898   3.960  21.076 -0.2547  0.0735  0.2037
75250W        W18303  34.538   9.350  28.400 -0.0894  0.1968  0.0803
75251W        W18304   3.066  11.402   9.036  0.1567 -0.0216 -0.0935
75252W        W18305   1.359   0.003  15.338  0.1887 -0.2687 -0.0144
75253W        W18306  15.090   7.016   7.271  0.1140 -0.2839  0.2975
75254W        W18307  11.067  22.353   2.550  0.1138 -0.0439  0.0074
75255W        W18308   9.009  15.695   3.069  0.3029 -0.1903 -0.0551
75256W        W18309  21.853   4.886  18.322  0.0030 -0.0590  0.1107
75257W        W18310  22.382   9.781  25.539  0.0157  0.4491  0.1788
75258W        W18311   4.738  22.126  24.081 -0.0404 -0.0354  0.0860
75259W        W18312  25.039   9.423  27.388  0.0286  0.3040 -0.0542
75260W        W18313  12.220  18.474   0.540  0.3004 -0.3870 -0.0893
75261W        W18314  21.333  14.851  27.822 -0.3814  0.0406 -0.0062
75262W        W18315  11.064  11.025   1.444 -0.0269  0.0888  0.0607
75263W        W18316   5.321  15.707   8.765  0.0605 -0.1432  0.2873
75264W        W18317   0.634  13.699  17.514 -0.2707  0.2115  0.1227
75265W        W18318  32.407  25.856  22.747 -0.0797 -0.2513 -0.0338
75266W        W18319   9.944  29.718  26.745 -0.2341 -0.0734  0.1877
75267W        W18320   9.470   8.217  22.566 -0.1406  0.3673 -0.0316
75268W        W18321  20.519   2.230  21.084  0.2808 -0.3721 -0.1008
75269W        W18322  12.083  17.546  16.969  0.1125  0.0275 -0.1632
75270W        W18323  11.183  20.456  19.993 -0.3627 -0.0123 -0.3409
75271W        W18324  18.871  13.813  27.176 -0.1201  0.0418  0.2396
75272W        W18325  17.086  20.288   0.687 -0.1083  0.0560 -0.0906
75273W        W18326  11.998  34.151   4.194 -0.0587 -0.2965 -0.1285
75274W        W18327  20.833  10.236   9.593  0.0344  0.0419 -0.0100
75275W        W18328  15.970  18.342  18.572  0.0266 -0.0894  0.0442
75276W        W18329  13.522   3.890  24.081  0.2211 -0.2645 -0.2317
75277W        W18330  18.568   1.886   8.628 -0.2867  0.0180  0.0090
75278W        W18331  24.710  15.857  16.536  0.0789 -0.0459  0.0743
75279W        W18332  25.809   7.684  20.247 -0.1938  0.3829  0.1434
75280W        W18333   9.723  17.293  21.716 -0.1003 -0.0259  0.4717
75281W        W18334  25.218   4.667  20.084  0.3426 -0.2711  0.1607
75282W        W18335   9.157  24.114   3.992 -0.1350  0.1505 -0.0223
75283W        W18336   8.241  11.900  23.665  0.0828 -0.1751  0.1241
75284W        W18337  22.756  27.099   5.392  0.1453 -0.0813  0.2245
75285W        W18338  20.498  14.914  26.553 -0.2201  0.1685 -0.0879
75286W        W18339   8.786  23.355  17.215 -0.0320 -0.3047  0.0506
75287W        W18340   7.031   3.601  26.411 -0.1854  0.2896  0.2452
75288W        W18341  27.346   5.765  23.791 -0.2219 -0.0159  0.2296
75289W        W18342  25.681  17.129   5.513  0.1334 -0.2996 -0.1824
75290W        W18343  25.693  15.698   2.254 -0.1092  0.0812 -0.2690
75291W        W18344  25.862   3.809   7.117 -0.4185  0.0502  0.0407
75292W        W18345  30.355  19.177  24.983 -0.0254 -0.1464 -0.0701
75293W        W18346  14.060  31.066  27.846  0.1147 -0.3106 -0.0431
75294W        W18347  10.417   5.289   2.122 -0.1063  0.1599 -0.3916
75295W        W18348  11.645  10.417  16.078 -0.1093  0.1861 -0.1937
75296W        W18349  10.034  21.515  27.259 -0.0811  0.2817 -0.0793
75297W        W18350  20.477  13.460   3.220  0.0235  0.0929 -0.1574
75298W        W18351   4.539  11.341   0.073 -0.1810  0.2751 -0.4246
75299W        W18352  15.896  16.107  18.367  0.3684  0.5114  0.0534
75300W        W18353  22.439  19.466   6.697 -0.0204  0.1386 -0.4155
75301W        W18354   3.294  13.378  17.526  0.0694  0.1394 -0.0334
75302W        W18355  12.767   9.786  24.371  0.1337 -0.1511 -0.1286
75303W        W18356  20.354  30.638  19.835 -0.0425  0.1014 -0.0222
75304W        W18357  24.106   1.949   0.621 -0.1099 -0.0879 -0.0479
75305W        W18358   7.375  27.674  20.764  0.0824  0.0082  0.0843
75306W        W18359  18.325  12.376   6.582  0.2225  0.0139 -0.2396
75307W        W18360   5.214   0.598  28.448  0.0503  0.1134 -0.0657
75308W        W18361  22.683  30.209   2.006  0.0728  0.0441 -0.4173
75309W        W18362  14.020  26.178  27.087  0.1777  0.1108  0.3035
75310W        W18363  22.645  27.682   9.000 -0.1406  0.0825  0.1974
75311W        W18364   2.432  19.112   6.536  0.1677  0.0443 -0.3658
75312W        W18365   3.814  16.317   1.067  0.0138 -0.0813 -0.0147
75313W        W18366  10.198  10.902  11.091 -0.1236  0.1227 -0.0600
75314W        W18367  17.663  17.841  13.344 -0.1027 -0.0390  0.1271
75315W        W18368   9.400  10.143  17.137  0.1321 -0.0833 -0.3383
75316W        W18369  10.067  23.566  28.149  0.3433 -0.2954 -0.2239
75317W        W18370   0.389  33.580  22.486  0.0268  0.0640  0.1896
75318W        W18371  21.062  16.625  17.033  0.0235  0.2108  0.1910
75319W        W18372  16.736  18.692  19.108 -0.0211 -0.3613 -0.1696
75320W        W18373  17.769   3.895   0.988  0.0049 -0.1986 -0.1221
75321W        W18374  28.849  27.347   7.085  0.0445  0.2561  0.2044
75322W        W18375  23.570  10.846  28.170 -0.1385 -0.4035 -0.0455
75323W        W18376   2.581  23.738  21.197 -0.0274  0.3044  0.0772
75324W        W18377  19.563  30.011   9.302  0.1493  0.4279  0.1416
75325W        W18378  18.647   4.232  27.933  0.1584 -0.1314 -0.2552
75326W        W18379  24.737  17.558   2.064  0.3019 -0.3233 -0.0944
75327W        W18380   6.557   0.852   6.570 -0.1117  0.0592 -0.0294
75328W        W18381  14.884   2.093  19.733 -0.1141  0.2312  0.0848
75329W        W18382  13.635  18.052  15.753 -0.2023 -0.1596 -0.2410
75330W        W18383  17.755  17.705  18.480 -0.1571 -0.0314  0.1111
75331W        W18384  14.201  16.851  27.716 -0.1394 -0.0305  0.0050
75332W        W18385   0.156  18.154  26.800  0.0911 -0.1253 -0.3413
75333W        W18386   7.573   4.504   4.567 -0.0547 -0.0717  0.0451
75334W        W18387  22.441  24.741  25.950 -0.0559  0.1927  0.0154
75335W        W18388  24.853  17.917  25.740  0.0656 -0.0835  0.0872
75336W        W18389  17.028  20.736   8.529  0.1498 -0.1494  0.1662
75337W        W18390  33.829  15.207  24.971  0.2347 -0.0406  0.0726
75338W        W18391  28.121  25.066  23.019  0.1044 -0.1981 -0.0200
75339W        W18392  26.768   2.503  20.517 -0.1947 -0.0182  0.3459
75340W        W18393  19.238  16.374   1.675 -0.1151  0.0355  0.2434
75341W        W18394  21.953  25.637   6.888  0.1842  0.4766  0.0055
75342W        W18395  33.991  18.343   9.020  0.0650 -0.0224 -0.3465
75343W        W18396  12.443  14.352  16.927 -0.1804 -0.2041 -0.1331
75344W        W18397   9.860  26.474  18.350 -0.0504 -0.0281  0.0830
75345W        W18398  12.300  10.898   4.373 -0.0366 -0.2447  0.0599
75346W        W18399  10.477  23.197   6.902  0.0244  0.0577 -0.0912
75347W        W18400  26.394  25.029   1.855  0.1807 -0.2646 -0.1022
75348W        W18401  13.321  16.571  15.250 -0.1605  0.2320  0.1561
75349W        W18402  16.169  23.436   3.615 -0.0915 -0.0259 -0.2429
75350W        W18403  19.000   8.580   1.863  0.1371 -0.3946 -0.4638
75351W        W18404  19.334  10.897   7.867 -0.0021  0.4297 -0.0233
75352W        W18405  10.056   1.916   0.206  0.2063  0.3275 -0.0640
75353W        W18406  11.459  29.540  28.876  0.1703 -0.2041 -0.1896
75354W        W18407  20.349   9.292   6.117  0.3847 -0.1884  0.2448
75355W        W18408   9.118   8.703   4.095 -0.1775  0.2276  0.1916
75356W        W18409  22.295  27.587   8.694  0.2231  0.0815 -0.1201
75357W        W18410  21.278  11.003  22.412 -0.0613 -0.3845  0.2028
75358W        W18411  21.686   6.507  14.530 -0.5665  0.0357  0.3312
75359W        W18412  12.212  24.685   8.215 -0.2611  0.2186 -0.1782
75360W        W18413   9.867  20.725  27.790  0.3985 -0.0539 -0.3425
75361W        W18414  21.279  14.101   5.222 -0.0965  0.2931  0.0796
75362W        W18415   6.760  31.194   1.523 -0.1689  0.1888 -0.2129
75363W        W18416  14.133  20.534  25.096 -0.1685  0.2629 -0.3263
75364W        W18417  10.064   8.913   9.620  0.0868 -0.1577  0.0382
75365W        W18418  21.840  18.440   9.828 -0.0732 -0.1120  0.2254
75366W        W18419  19.798  18.415   3.752 -0.0685  0.0867  0.0755
75367W        W18420  10.813  24.931  27.223 -0.0150  0.1837 -0.0958
75368W        W18421  32.854  33.480   2.633 -0.1881 -0.1890 -0.1149
75369W        W18422  16.265  25.749  23.352 -0.1502  0.0895  0.0995
75370W        W18423  12.108  15.595  18.258 -0.2352 -0.1021 -0.0096
75371W        W18424   4.626  24.346  27.732 -0.2002  0.1661 -0.2685
75372W        W18425   4.819  31.993   8.929  0.0036 -0.1830  0.1376
75373W        W18426  13.706  14.632  27.211  0.4040  0.0023  0.2339
75374W        W18427  17.538   1.303   3.774  0.1492 -0.2224  0.1668
75375W        W18428   5.278  14.023   5.302  0.1178 -0.0746  0.5324
75376W        W18429  15.660  23.246  17.749  0.1753 -0.2544 -0.2384
75377W        W18430  24.420  20.172  22.350  0.3645  0.2179  0.0902
75378W        W18431   1.807   3.018  25.063  0.2641 -0.0261  0.2223
75379W        W18432  26.922  18.375   4.919 -0.2055  0.3655  0.0750
75380W        W18433   8.373  12.979   8.156 -0.1609 -0.1903 -0.1528
75381W        W18434   5.607  10.540  25.938  0.0925  0.0637  0.0364
75382W        W18435  16.318  17.306  19.491  0.0248 -0.1684 -0.0675
75383W        W18436  11.463  22.683  20.363 -0.2005  0.0992 -0.0052
75384W        W18437  24.820  24.668  18.265  0.1988  0.0376 -0.0432
75385W        W18438   5.796  17.406  22.612 -0.3184 -0.2002 -0.1715
75386W        W18439  20.095  27.499   8.969  0.0691 -0.2075  0.0348
75387W        W18440  31.884   5.785   1.326  0.1652  0.0610  0.1514
75388W        W18441  19.711   0.996  28.357 -0.0423 -0.0721  0.0453
75389W        W18442   3.064  17.213  27.845 -0.0866 -0.0804 -0.0638
75390W        W18443  26.881  33.340  17.784  0.1081  0.0575  0.2282
75391W        W18444   7.047  15.775   5.940  0.3792  0.1230  0.2655
75392W        W18445  22.569  13.912  23.450  0.0531  0.3712 -0.1006
75393W        W18446  30.237   1.624   0.346 -0.0461  0.3046 -0.2886
75394W        W18447  30.244  15.016  18.707  0.2152  0.1764  0.6607
75395W        W18448   9.322  14.820  10.097  0.2498 -0.0880 -0.1049
75396W        W18449  25.832  32.426   7.548  0.0267  0.0251  0.1916
75397W        W18450  29.766  19.957   1.521 -0.2050 -0.1885  0.0247
75398W        W18451  15.535  18.701   4.836  0.0852 -0.0604  0.1009
75399W        W18452  18.202  12.018  18.369 -0.2480 -0.1009 -0.1237
75400W        W18453  16.040   1.176  21.241 -0.0793  0.2089  0.1319
75401W        W18454  33.562   1.428  20.984 -0.0496 -0.0353 -0.1543
75402W        W18455  24.595   3.057   9.342  0.1631  0.0155 -0.3291
75403W        W18456  20.992  15.529   5.722 -0.0262  0.0071 -0.3114
75404W        W18457  11.818  34.372  27.265  0.1245 -0.0909 -0.2799
75405W        W18458   2.752  10.816   1.734 -0.1546  0.0861 -0.0710
75406W        W18459  14.825   9.886  26.963  0.3057  0.2577  0.0058
75407W        W18460  21.775   0.573   1.157  0.1068 -0.1878 -0.1280
75408W        W18461  20.285   9.275  23.558  0.2112 -0.0519 -0.4844
75409W        W18462  10.891  28.144   6.771  0.0173 -0.0228 -0.5255
75410W        W18463  26.219  22.280  28.952 -0.1530  0.0386  0.1726
75411W        W18464  19.594  17.278   8.677 -0.0989 -0.1829  0.2642
75412W        W18465  22.243  16.925  14.923 -0.1455  0.1147  0.0301
75413W        W18466  24.955  32.570   3.219 -0.2436 -0.2098 -0.0697
75414W        W18467  15.062   3.579  28.189  0.0334  0.2199 -0.2411
75415W        W18468  25.722   4.843  24.485  0.0900  0.2260 -0.0192
75416W        W18469  30.716   8.134   5.510  0.1167 -0.3212  0.0104
75417W        W18470  23.957  26.856   9.859 -0.1702  0.1905  0.0478
75418W        W18471  17.155  29.308   7.043  0.3470 -0.0401 -0.2332
75419W        W18472  18.800   6.432   5.669 -0.3566  0.0655  0.1265
75420W        W18473   5.567  27.955  23.477  0.0693 -0.1120  0.0687
75421W        W18474  24.710  22.415  27.496  0.0042 -0.1800 -0.0222
75422W        W18475  27.360  14.302   7.762 -0.2258  0.1003  0.0486
75423W        W18476  16.720  29.054  25.361  0.0159 -0.0580 -0.1934
75424W        W18477   9.410  17.907   6.724  0.3492 -0.3163 -0.0146
75425W        W18478  16.488  13.436  24.933 -0.0917  0.2829  0.0855
75426W        W18479  21.113  23.618  27.281  0.0272  0.2208 -0.1029
75427W        W18480   0.252   0.572   5.134  0.0653  0.1664 -0.2211
75428W        W18481  28.146   9.883   9.707  0.0500  0.0087 -0.0611
75429W        W18482  18.004   7.332   6.817 -0.1149  0.1788  0.2665
75430W        W18483  10.623  12.440   3.573 -0.0557  0.1520 -0.1900
75431W        W18484  12.493  24.922   2.929 -0.1621 -0.1343  0.1477
75432W        W18485   7.574  22.300  27.712 -0.1325  0.0248  0.0945
75433W        W18486   5.599  18.256  28.333  0.0011 -0.1496 -0.0846
75434W        W18487  28.398  14.985   1.592 -0.2805  0.1523 -0.1500
75435W        W18488  20.914   5.869   1.522  0.1387 -0.2258  0.0209
75436W        W18489  19.838   9.144   2.742  0.4801 -0.1220 -0.3852
75437W        W18490  25.537  16.065  27.073 -0.1449 -0.1140 -0.3868
75438W        W18491  18.155  20.151   8.362  0.2075  0.2283 -0.0680
75439W        W18492   4.006  11.321   9.227  0.1818  0.0875 -0.1063
75440W        W18493   2.085  34.044   7.532 -0.3470 -0.0599 -0.2512
75441W        W18494  10.698  20.714  27.887 -0.0165 -0.1426 -0.1114
75442W        W18495   7.503  31.449  27.969  0.1368 -0.0170 -0.1575
75443W        W18496  14.687   4.783  15.953 -0.1015  0.0500 -0.1997
75444W        W18497  31.379  20.793  15.114  0.2051 -0.1075 -0.0253
75445W        W18498  12.439  18.096   7.990 -0.0078  0.0935  0.3109
75446W        W18499  34.281   4.998  19.723  0.0229 -0.1130  0.0150
75447W        W18500  14.862  26.930   2.687 -0.0827 -0.0188 -0.0691
75448W        W18501   2.949  16.326  25.231 -0.0472 -0.1891  0.2442
75449W        W18502  18.720  11.728   2.708 -0.0899  0.0353 -0.0324
75450W        W18503  13.976  10.441  21.631 -0.0107 -0.0510 -0.1516
75451W        W18504   8.832  24.037   7.912 -0.0216 -0.0352 -0.2194
75452W        W18505  34.580  13.707   7.856  0.2370 -0.1065 -0.0518
75453W        W18506   7.394  12.542  26.939  0.1383  0.1172 -0.1375
75454W        W18507  16.995   8.887   5.816 -0.1042  0.0522 -0.2315
75455W        W18508  13.314  20.120   3.805 -0.3188  0.4919 -0.0740
75456W        W18509  21.686   9.188   1.066  0.1824  0.0256 -0.4767
75457W        W18510   5.976   5.309  19.790  0.2988 -0.1586  0.0354
75458W        W18511  22.959   6.860   2.793 -0.0956 -0.2881  0.3546
75459W        W18512  10.037   7.450  25.924 -0.0246 -0.2095 -0.0038
75460W        W18513  10.198  14.542   1.518  0.0102 -0.1055  0.3319
75461W        W18514  12.228  10.945   7.919 -0.1982 -0.4073  0.0491
75462W        W18515  13.844  11.812   4.438  0.1661  0.2337  0.1832
75463W        W18516  10.582  14.522   7.759  0.1237  0.1909 -0.2474
75464W        W18517  29.527  16.643  24.607 -0.5498 -0.0636  0.0539
75465W        W18518  20.973  34.124   9.008  0.0715 -0.1183 -0.0182
75466W        W18519  34.380  31.455   2.557  0.0057  0.1173  0.1819
75467W        W18520   3.203  16.519   8.919  0.1235  0.2990 -0.1060
75468W        W18521   8.735   9.788   1.258 -0.2503 -0.2868  0.0408
75469W        W18522   2.272   3.359   7.302 -0.0751  0.2480  0.0457
75470W        W18523  32.620  20.244  27.125 -0.1308  0.1762 -0.1399
75471W        W18524  25.662   9.176   9.033 -0.2621 -0.1425  0.0674
75472W        W18525  20.273  34.422  24.607  0.1042 -0.0322  0.0502
75473W        W18526  33.855  18.985  23.992 -0.1911  0.0075 -0.2480
75474W        W18527  14.699  30.784   1.061  0.2823  0.0625 -0.4027
75475W        W18528  17.948  31.730  23.435 -0.0735 -0.2234  0.4813
75476W        W18529   8.138  12.857  25.235  0.2471  0.0543 -0.0564
75477W        W18530  26.076  26.926  23.366 -0.4095  0.0231  0.2378
75478W        W18531  20.241  26.502  19.322  0.1686  0.0495 -0.0993
75479W        W18532  22.904  13.230  27.533 -0.0977 -0.0363 -0.0167
75480W        W18533   5.256  22.270   2.441  0.2049  0.2001  0.0550
75481W        W18534  14.924  27.814  14.908  0.4131 -0.1523  0.0595
75482W        W18535  12.670  27.438  28.450  0.0770 -0.1959 -0.1704
75483W        W18536  19.430   0.273  17.309 -0.2409  0.0078  0.0080
75484W        W18537  14.465   1.219  20.668 -0.1942  0.0618  0.1169
75485W        W18538   4.360   8.406  15.961  0.3080 -0.0145 -0.0970
75486W        W18539   5.568  30.457  13.673  0.2952  0.4244  0.0833
75487W        W18540  20.449  20.747  14.575 -0.1167 -0.2255  0.1291
75488W        W18541   4.959  30.068  18.470 -0.1645 -0.1035 -0.0461
75489W        W18542   5.095   7.585  16.787 -0.0172  0.0523  0.1119
75490W        W18543  11.829  29.563  28.473  0.1668  0.2171  0.1018
75491W        W18544  23.943  32.453  21.673 -0.0284  0.0450 -0.2662
75492W        W18545  15.235  12.785  27.964 -0.3406  0.3097 -0.0651
75493W        W18546   2.029  23.754  24.830 -0.0637  0.2884 -0.2546
75494W        W18547  24.006  18.111  18.168  0.2561  0.2541 -0.1742
75495W        W18548   4.381  14.583   2.456 -0.0325  0.0126  0.0260
75496W        W18549  19.975  24.223  18.866 -0.0156 -0.1231 -0.0075
75497W        W18550  13.200   3.520  20.684 -0.0820 -0.4517 -0.0703
75498W        W18551  28.540  20.771  16.068  0.2792 -0.2383 -0.0919
75499W        W18552  16.674  23.288   6.261  0.0784 -0.0032 -0.1630
75500W        W18553  29.377  13.542  16.474  0.1943 -0.1759 -0.1298
75501W        W18554  21.574   7.618  25.035  0.0438  0.0271 -0.0389
75502W        W18555   8.724  23.034  16.649 -0.0686  0.0625  0.3147
75503W        W18556  13.732  27.415  24.136 -0.0119  0.0416  0.0453
75504W        W18557  24.641  23.314  14.852 -0.1067 -0.0522  0.2680
75505W        W18558  20.540   1.911  23.061  0.0040  0.0016 -0.0268
75506W        W18559   8.238   7.916  17.637 -0.0093 -0.0604  0.3558
75507W        W18560  20.283  17.792  14.945  0.3797 -0.1841 -0.2464
75508W        W18561   8.763  29.074  14.856 -0.1185 -0.2687  0.0695
75509W        W18562   0.901  28.764  24.592 -0.0645 -0.3153  0.0012
75510W        W18563  30.011  26.669  23.615  0.1014 -0.0686  0.2163
75511W        W18564  12.121  33.193  14.553 -0.2482  0.2473  0.2305
75512W        W18565  11.168  17.481  21.359 -0.4891  0.2808  0.3214
75513W        W18566   6.748  21.444  13.464 -0.3779  0.0096 -0.0258
75514W        W18567  20.881  17.472  24.357  0.1446 -0.0744  0.1677
75515W        W18568  12.461   4.658  18.936 -0.1734 -0.0650 -0.2192
75516W        W18569  18.724  25.099  15.807 -0.3190 -0.0737 -0.2813
75517W        W18570  32.961  26.309  21.693 -0.1023  0.5555 -0.3020
75518W        W18571  25.513  33.380  28.541  0.1581 -0.1232 -0.2712
75519W        W18572  31.677  21.150   0.738 -0.1995 -0.2563  0.0734
75520W        W18573  18.744   6.769  22.227 -0.0343 -0.0211  0.2396
75521W        W18574  22.472  20.116  20.432  0.3418 -0.2350  0.4329
75522W        W18575   7.945  19.518  14.540 -0.2069  0.3114 -0.1228
75523W        W18576  15.103  20.636  22.201  0.1398  0.1316  0.0086
75524W        W18577  20.448  27.427  25.732  0.0247  0.0822  0.4230
75525W        W18578  17.842  17.170   3.551 -0.2888  0.4332  0.3845
75526W        W18579   5.409  14.705  20.894 -0.1044 -0.1173  0.3306
75527W        W18580  19.945   9.220  25.964  0.0508 -0.1812  0.1491
75528W        W18581  11.944  15.276  16.339 -0.1409  0.0256 -0.1079
75529W        W18582  27.606   9.649  20.165 -0.1037 -0.1564  0.2240
75530W        W18583  14.776  10.508  18.874 -0.0760 -0.0435 -0.4090
75531W        W18584  12.748  31.544   2.463  0.1966 -0.0236 -0.2678
75532W        W18585  23.596   4.352  21.162 -0.1229 -0.1163  0.0239
75533W        W18586  16.834  29.931  25.725  0.1718  0.2465  0.1362
75534W        W18587   4.700  18.229  26.405  0.1102 -0.0765 -0.2532
75535W        W18588   7.923   9.559  24.503  0.2215 -0.1444 -0.1004
75536W        W18589  23.236  12.597  28.625  0.2960 -0.0016  0.1930
75537W        W18590  23.803  19.743  24.980 -0.1510 -0.0958 -0.2179
75538W        W18591  14.791  13.978  21.937 -0.0601 -0.2543 -0.0097
75539W        W18592  10.586  14.895  22.857  0.0256  0.3296 -0.0962
75540W        W18593  16.560  25.044  22.680  0.1657  0.2220 -0.1760
75541W        W18594  16.984  20.025  23.449  0.1260 -0.2214 -0.3383
75542W        W18595  24.104  13.831  14.623 -0.2911 -0.0006  0.0628
75543W        W18596   1.100  15.091   2.080  0.1615 -0.0684  0.2108
75544W        W18597  25.486  23.970  20.152  0.1014 -0.0865 -0.2664
75545W        W18598  34.632  23.594  14.518 -0.1995 -0.3476 -0.1653
75546W        W18599   7.765   1.036  21.167  0.2731  0.2519  0.1362
75547W        W18600   6.606  16.235  19.364 -0.2634 -0.2698  0.0439
75548W        W18601  14.471  19.296  26.645 -0.0903  0.0287  0.3049
75549W        W18602   6.857   9.466  15.167  0.0178 -0.1944  0.0012
75550W        W18603   9.706  16.916  19.292 -0.0406  0.1312 -0.1726
75551W        W18604  22.496  14.618  15.341  0.1584 -0.0450  0.2358
75552W        W18605  13.711  19.833  19.928  0.0115  0.1146 -0.2580
75553W        W18606   5.452  27.103  22.425  0.1461  0.1261  0.2890
75554W        W18607   1.813  16.645  21.363 -0.0193 -0.1078  0.2380
75555W        W18608  11.241   6.465  20.904  0.2026 -0.0066 -0.0180
75556W        W18609  29.462  26.544  14.395 -0.0346  0.2728 -0.0594
75557W        W18610   4.260  33.467  14.358  0.0176 -0.0305  0.1108
75558W        W18611   6.900   7.292  19.445 -0.0872  0.1622  0.1135
75559W        W18612  32.184  20.847  23.794  0.1092  0.0174  0.0500
75560W        W18613  14.559  28.693  22.877  0.1798  0.0968  0.3232
75561W        W18614   9.191  18.862  22.245 -0.4376 -0.1712  0.0665
75562W        W18615  14.588  16.411  15.918 -0.3039 -0.0539  0.3291
75563W        W18616  10.034  18.004  20.672  0.0457  0.2003  0.2475
75564W        W18617   1.834  12.345  28.153  0.2046  0.3061  0.3268
75565W        W18618   3.266  20.167  19.212  0.1623 -0.2481 -0.0433
75566W        W18619  14.731  29.635  25.818 -0.1212  0.0139 -0.2258
75567W        W18620   8.240  23.975   4.639 -0.3055 -0.2587 -0.1491
75568W        W18621   4.299  21.757  17.063 -0.1211 -0.0246 -0.0544
75569W        W18622   4.135  18.142  13.731 -0.1626  0.0746  0.1984
75570W        W18623   2.168   2.740  26.401 -0.0455  0.4066  0.1066
75571W        W18624  22.719  29.624  17.873  0.0526 -0.0332  0.0069
75572W        W18625   5.841  26.181   9.399 -0.0487 -0.0880  0.1528
75573W        W18626  21.674  29.839  21.360 -0.0160 -0.0493 -0.2141
75574W        W18627  13.826   7.043  23.290 -0.0439 -0.0112  0.1666
75575W        W18628  10.100  17.065  16.697  0.2844 -0.1587 -0.0051
75576W        W18629  14.652  16.079   6.364  0.0121 -0.2558  0.0076
75577W        W18630  24.626  12.813  15.751 -0.3219  0.3259 -0.0410
75578W        W18631  18.671   8.566  18.648  0.0621 -0.1340  0.2477
75579W        W18632  11.024  10.785  24.811 -0.1142  0.1120  0.1749
75580W        W18633  27.564  19.112  21.365 -0.3018  0.1517  0.1103
75581W        W18634  10.931  14.244  17.836  0.0318  0.3483  0.1007
75582W        W18635  10.165  28.965   6.892 -0.1882 -0.1188 -0.1689
75583W        W18636  21.120   6.973  18.498  0.1979 -0.1636 -0.1140
75584W        W18637   1.669  24.546  18.876 -0.2048 -0.1187  0.0826
75585W        W18638  13.414  18.753   6.674 -0.0647  0.1899  0.1162
75586W        W18639  30.765  24.166  20.319  0.2752 -0.0453  0.3141
75587W        W18640  14.742  23.452  19.313  0.2338  0.2809 -0.0087
75588W        W18641   0.210  17.073   1.536  0.0105  0.1257  0.1567
75589W        W18642  20.594  18.840  13.746 -0.0246 -0.1076  0.0087
75590W        W18643  11.970  11.833  23.685 -0.0011  0.1847 -0.0681
75591W        W18644   4.614   6.241  16.369 -0.0004 -0.1563 -0.2589
75592W        W18645  10.627  19.527  17.933 -0.4616 -0.1542  0.0240
75593W        W18646   5.237  22.775  15.168  0.2359 -0.2138 -0.1243
75594W        W18647   8.651   7.376  18.509 -0.0954 -0.3387  0.1197
75595W        W18648  17.294   0.249  26.059 -0.0145 -0.0259 -0.1042
75596W        W18649  10.409  28.370  16.070  0.0074  0.0353 -0.1095
75597W        W18650  15.960  14.215  23.022  0.1580 -0.0352 -0.1374
75598W        W18651  11.663  22.039  18.563  0.1877 -0.3400 -0.3979
75599W        W18652  29.388  21.272   2.310  0.1731 -0.2799  0.3877
75600W        W18653   7.752  29.344  27.736  0.1414  0.0114  0.1692
75601W        W18654  14.062  31.664  20.533 -0.3794 -0.0290 -0.0822
75602W        W18655  32.248  34.411  16.702 -0.0967 -0.2129 -0.0570
75603W        W18656  33.953   5.346  19.622  0.1300 -0.1371  0.0723
75604W        W18657  12.170  18.419  21.301  0.0596  0.0205 -0.0444
75605W        W18658  22.535  16.480  16.181  0.0222  0.2143 -0.1527
75606W        W18659  21.142  25.207  21.657 -0.2694 -0.0507 -0.0868
75607W        W18660  19.481  23.936  22.790  0.1572 -0.5033 -0.0055
75608W        W18661   3.670  33.803  19.385 -0.5293 -0.0909  0.2976
75609W        W18662   5.201  15.271  24.344 -0.0534 -0.0232 -0.1253
75610W        W18663  28.848  14.450  19.634 -0.1727  0.1990 -0.3492
75611W        W18664  11.587  18.995  21.972  0.2190 -0.1443 -0.1343
75612W        W18665  21.760   3.585  22.650 -0.1459 -0.3257 -0.0976
75613W        W18666  11.544  22.547  21.378  0.0673  0.2764  0.3126
75614W        W18667  10.673  18.664  21.655  0.2799  0.1631  0.0052
75615W        W18668  17.283   6.903  22.521 -0.1708  0.3650 -0.1091
75616W        W18669  29.743  15.725   5.116 -0.0007 -0.3083  0.1636
75617W        W18670   4.447   3.101  24.841 -0.1289 -0.1095 -0.4163
75618W        W18671  30.188  28.229  17.710  0.2122  0.0597 -0.3269
75619W        W18672   5.259  24.442  26.073  0.1921 -0.1737  0.5850
75620W        W18673  10.979  21.490  17.448  0.0020  0.1575 -0.0011
75621W        W18674  29.022  13.922  21.124  0.1017 -0.0199 -0.3939
75622W        W18675  33.534  30.344  15.283 -0.2205 -0.2067  0.1524
75623W        W18676  24.776  24.458  21.645  0.1110 -0.1776  0.0603
75624W        W18677  33.793  21.398  21.090 -0.3597  0.0856  0.2617
75625W        W18678  21.503  17.436  17.326  0.0888 -0.2771  0.0343
75626W        W18679  16.226  18.517   0.839  0.1101  0.1097  0.0671
75627W        W18680  25.183  29.286  23.295 -0.0402 -0.0252 -0.1601
75628W        W18681  22.659  20.244   7.680  0.1502 -0.1575  0.3570
75629W        W18682  23.796  11.429  17.771 -0.1247  0.2621  0.1927
75630W        W18683  11.607  22.300   5.908  0.1679  0.0059  0.0337
75631W        W18684  28.375  18.571  23.403 -0.1372  0.0966 -0.0672
75632W        W18685  23.903  19.003  18.659  0.1438 -0.1619  0.1292
75633W        W18686  31.422  28.102  17.705  0.0524 -0.0777 -0.0336
75634W        W18687  24.500  16.701   7.330  0.0145 -0.0560 -0.0018
75635W        W18688  15.438   4.130  28.570  0.1720  0.2755  0.0430
75636W        W18689  23.037  27.653  22.388  0.0352 -0.0751  0.1109
75637W        W18690  14.333  26.695  26.539 -0.2566  0.1647 -0.2038
75638W        W18691  16.697  29.142  26.894 -0.0684 -0.1592  0.2224
75639W        W18692  24.468   9.911   3.595  0.0698 -0.0017  0.2164
75640W        W18693  28.459  23.376  26.322 -0.0705  0.3477 -0.0536
75641W        W18694  21.471  25.929  20.240  0.0658  0.0963  0.3535
75642W        W18695  17.974  21.095  25.154 -0.0576 -0.2221  0.0163
75643W        W18696  15.616  22.511  27.561  0.3011 -0.0546 -0.4111
75644W        W18697  26.626  19.796  22.348 -0.0837 -0.1045 -0.4361
75645W        W18698  10.741  24.320  18.720 -0.1486 -0.0609 -0.0120
75646W        W18699   0.636  28.971  15.930 -0.2292  0.0626 -0.4757
75647W        W18700  14.413   8.906  17.605 -0.4626 -0.2650 -0.2402
75648W        W18701  17.892   0.048  27.615  0.2504 -0.2436  0.1023
75649W        W18702   7.377  17.505  16.061 -0.0462 -0.2209  0.1794
75650W        W18703  29.901  20.969   0.147  0.1159  0.2010 -0.0940
75651W        W18704  20.187  16.868  15.290  0.1824 -0.3459 -0.0136
75652W        W18705  10.403  19.513  15.557 -0.0559  0.0604 -0.0626
75653W        W18706   1.459  27.286  14.809  0.1443  0.2765  0.1342
75654W        W18707  15.128   9.323  15.881 -0.3953  0.1062  0.3073
75655W        W18708  22.408  33.311  21.903 -0.0621 -0.5721 -0.1573
75656W        W18709   6.261  22.809  13.744 -0.2226 -0.0804 -0.1791
75657W        W18710  15.386   0.526  20.409  0.2574  0.4778 -0.2010
75658W        W18711  11.753  18.256  18.527 -0.1129 -0.0555 -0.0824
75659W        W18712   3.444  26.056  15.358 -0.2106  0.0819  0.0602
75660W        W18713   0.270  16.430  28.125 -0.1132 -0.0410 -0.2400
75661W        W18714  15.413  15.349  12.710  0.2631 -0.0850 -0.0105
75662W        W18715   5.917   3.351  15.817 -0.3416  0.1123 -0.0656
75663W        W18716  25.995  23.574  17.554  0.1984  0.2817 -0.0611
75664W        W18717   9.469  21.104   8.877  0.3589 -0.1026 -0.3070
75665W        W18718  20.131  22.491  15.302  0.1318 -0.4183 -0.0285
75666W        W18719  11.486  16.944  23.083 -0.0234  0.1295 -0.3187
75667W        W18720  17.511   4.014  16.250 -0.1528  0.1292 -0.0492
75668W        W18721  15.949  25.382  25.497 -0.2058  0.1564 -0.0272
75669W        W18722  28.692  13.003  15.918 -0.1978 -0.1979  0.0100
75670W        W18723  24.057  24.952  15.594  0.0171 -0.0376  0.1844
75671W        W18724  17.901  27.601  20.234  0.0049 -0.1320 -0.1618
75672W        W18725  25.200  16.455  21.809 -0.1477 -0.0290  0.1209
75673W        W18726  21.442  16.383  28.013  0.0209 -0.2666  0.0260
75674W        W18727   4.975  17.955  17.764 -0.1589  0.0228  0.0763
75675W        W18728  23.618  22.670  15.064 -0.0121  0.4763  0.4879
75676W        W18729   6.313   1.925   4.279  0.0917  0.0662  0.2839
75677W        W18730   0.285  33.835  19.681  0.0523  0.0449 -0.2479
75678W        W18731   7.096  30.782  18.020  0.1559 -0.2546 -0.0372
75679W        W18732  17.281  21.157  13.789  0.0197 -0.0596  0.1946
75680W        W18733  13.648  14.452  20.200 -0.0681 -0.0270  0.1252
75681W        W18734  10.879  24.927  13.109  0.0763 -0.1049  0.0459
75682W        W18735  10.087  20.622  14.897 -0.2348  0.1248  0.6113
75683W        W18736  30.199  29.112  19.137 -0.1219 -0.0499 -0.1886
75684W        W18737  15.322  23.473  19.166  0.2598  0.0535 -0.3590
75685W        W18738   9.190  19.177   3.923  0.0082  0.0924 -0.0960
75686W        W18739  23.573  28.067  15.840  0.0783  0.1569 -0.3011
75687W        W18740  22.263  26.091  26.681  0.0192 -0.2958 -0.0658
75688W        W18741  20.688  27.321  19.285 -0.1205  0.0615 -0.2797
75689W        W18742  12.380   3.941  27.845 -0.0088 -0.0714  0.1006
75690W        W18743  27.376  15.637  16.819  0.1112 -0.1111 -0.3206
75691W        W18744  27.420  30.711  19.278 -0.1465  0.0252  0.3651
75692W        W18745  20.377  30.963  21.701  0.0366  0.0485 -0.2254
75693W        W18746  34.154  22.131  21.713 -0.0860 -0.0229 -0.0131
75694W        W18747   8.547  15.339  27.611 -0.1993 -0.1579  0.0718
75695W        W18748  18.323  30.472  18.230 -0.0499  0.2707  0.4099
75696W        W18749  19.783  30.682  27.195  0.1028  0.1612 -0.1967
75697W        W18750  11.212  11.047  19.280 -0.1036 -0.0167  0.0062
75698W        W18751  17.047  26.956  22.612 -0.1202  0.7473  0.1347
75699W        W18752   6.459  20.131  20.272  0.0899  0.0676  0.0145
75700W        W18753  13.128  22.314  19.952  0.0190 -0.2976 -0.1341
75701W        W18754  16.355  15.388  14.767  0.1425  0.0260 -0.0185
75702W        W18755  10.264  25.224  17.199 -0.2700 -0.3656  0.2730
75703W        W18756  24.829  12.541   5.398 -0.2176  0.1756 -0.2797
75704W        W18757  18.419  13.659  28.850  0.0220  0.0297 -0.0592
75705W        W18758  14.316  26.523   2.331  0.0353 -0.0584 -0.1314
75706W        W18759  22.292  15.444  15.878 -0.0216 -0.4022 -0.1390
75707W        W18760  28.408   9.378  21.754  0.0508  0.0047  0.0850
75708W        W18761  17.780  29.483  17.980  0.0756 -0.0236  0.1038
75709W        W18762  19.381  16.327  14.453  0.0306 -0.0234 -0.0926
75710W        W18763  19.718  11.023  15.686  0.0733  0.1204 -0.0405
75711W        W18764  29.701  24.668  21.036 -0.0915  0.0143  0.1330
75712W        W18765   5.608  30.194  20.002  0.0842  0.1118  0.0954
75713W        W18766  19.214  25.218  20.398 -0.0445  0.1343  0.0307
75714W        W18767  20.051  16.450  15.663  0.0229  0.1786  0.2583
75715W        W18768  21.424  16.382  21.373  0.0412  0.4511  0.1836
75716W        W18769   3.323   0.518  15.239  0.0352 -0.1450  0.1109
75717W        W18770  29.026  11.564  28.207 -0.0258 -0.2507  0.1879
75718W        W18771   7.184  18.604  16.750 -0.1548  0.0531  0.0360
75719W        W18772  14.849  24.762  20.409  0.3856  0.3120  0.0005
75720W        W18773  11.787  17.819  15.306  0.2144 -0.1946 -0.4247
75721W        W18774   9.386  21.755   2.043 -0.1915  0.0564 -0.1760
75722W        W18775  27.431  18.747  16.971 -0.0018  0.1817 -0.1998
75723W        W18776  12.188  30.531  16.776 -0.0633  0.3743 -0.0646
75724W        W18777  22.549  21.143  18.778 -0.1965 -0.0349  0.3103
75725W        W18778   9.352  27.838  21.222  0.1253  0.0353 -0.0695
75726W        W18779  11.275  18.305  20.800  0.2600  0.0378 -0.2660
75727W        W18780   9.286  31.953  23.619  0.1624  0.1864 -0.0671
75728W        W18781   5.261  17.029  15.765 -0.2895  0.0674  0.0620
75729W        W18782  13.985   6.096   7.380  0.2139 -0.0606  0.0063
75730W        W18783   0.013  20.270  17.737 -0.0267 -0.1501  0.0829
75731W        W18784  13.688  18.192  16.982 -0.0247  0.1310 -0.0885
75732W        W18785  20.813  20.309  23.266  0.2508 -0.0707 -0.0130
75733W        W18786  16.977  13.038  14.948  0.0140 -0.0819  0.2440
75734W        W18787  23.825  22.828  24.655  0.0783 -0.3079  0.1282
75735W        W18788   9.907  27.610   1.732 -0.0952  0.0670 -0.1052
75736W        W18789  13.422  25.248   4.520 -0.2982  0.1335  0.1441
75737W        W18790   4.846  11.560  20.408  0.2237  0.3125  0.2311
75738W        W18791  19.849  24.416  17.544 -0.0703 -0.0753  0.1415
75739W        W18792  13.528  28.207  23.480  0.1019 -0.0057 -0.1142
75740W        W18793  31.396  21.883  27.903 -0.2063 -0.5930 -0.1413
75741W        W18794  15.515  17.376  14.754  0.2705  0.1010  0.3513
75742W        W18795  23.289  23.204  16.925  0.0613  0.2897  0.1415
75743W        W18796   7.078  27.004  24.978 -0.1536 -0.0635  0.0074
75744W        W18797   4.700  29.323  19.096  0.0757  0.2911 -0.1506
75745W        W18798  20.874  32.509  26.264  0.0252 -0.0471  0.0548
75746W        W18799  23.126   0.575  19.839  0.2478 -0.2130 -0.2736
75747W        W18800  25.615  26.498   9.654 -0.1241  0.0906  0.0327
75748W        W18801  20.826  17.141  21.149 -0.3227  0.1810 -0.2981
75749W        W18802  25.039  13.526  14.403 -0.1624 -0.1249 -0.4328
75750W        W18803  17.711  11.109   0.312 -0.0443  0.1086 -0.0472
75751W        W18804   4.966  12.369   0.048 -0.2120  0.0032  0.0025
75752W        W18805  22.147  32.731  16.646  0.1481  0.0579  0.0603
75753W        W18806  23.995  20.609  14.846  0.3071 -0.0320 -0.4332
75754W        W18807  32.996  10.793  22.978  0.2333  0.0820  0.0222
75755W        W18808   1.153   4.596  23.999  0.2365 -0.2095  0.0825
75756W        W18809   5.156  19.182  23.625 -0.2956  0.0369 -0.1141
75757W        W18810  15.286  17.690  24.826 -0.2221  0.0658 -0.1428
75758W        W18811  33.892   9.374   1.907 -0.0935 -0.0811 -0.1695
75759W        W18812  15.291  27.025  23.978  0.2598  0.0186 -0.2731
75760W        W18813  14.333  17.574  15.341 -0.2851  0.2042  0.2564
75761W        W18814  26.685  27.340   2.175 -0.2236 -0.3286  0.0410
75762W        W18815  34.394  16.779  21.745 -0.0200  0.0853  0.0191
75763W        W18816  23.656  13.623  16.520 -0.1232  0.3252  0.0130
75764W        W18817  34.154  22.427  15.095 -0.0417  0.2598  0.1837
75765W        W18818  12.879  20.856  17.574 -0.0831 -0.0075 -0.0363
75766W        W18819  24.284  21.251   0.497  0.0349 -0.0063  0.3760
75767W        W18820  28.571  23.915   5.832  0.2276  0.1725 -0.0547
75768W        W18821  20.986  33.600  20.107  0.0861  0.1007  0.0498
75769W        W18822  10.510  30.632  23.894  0.0945  0.4574  0.1551
75770W        W18823  31.458  26.530  19.693  0.2736  0.2540  0.0193
75771W        W18824   9.796  17.717  23.264  0.0342  0.1815 -0.1712
75772W        W18825  17.042  22.625  28.816 -0.2454 -0.1574  0.0403
75773W        W18826  16.179   7.862  22.269 -0.0110 -0.1326 -0.0427
75774W        W18827  20.416  30.870  17.263 -0.2203  0.2255  0.2540
75775W        W18828  20.537  13.358  16.881  0.1377  0.1107  0.1608
75776W        W18829  26.309  34.177  21.222  0.1472  0.0936 -0.2389
75777W        W18830  14.426  25.263  25.038 -0.1181  0.3037  0.3827
75778W        W18831  14.867   8.917  16.232 -0.0546 -0.0960  0.1739
75779W        W18832  20.386  22.241  15.725 -0.0885  0.1574  0.2066
75780W        W18833  18.878  19.248  15.515 -0.1284  0.0000  0.2114
75781W        W18834  24.067  12.478  16.827 -0.2513 -0.2032  0.1954
75782W        W18835   8.228   2.493  23.758 -0.2627 -0.0249  0.0926
75783W        W18836  24.359  26.780  21.364 -0.0204  0.1471  0.1220
75784W        W18837  13.156   9.525  20.430 -0.1279 -0.1593 -0.1122
75785W        W18838  10.132  21.496   0.466  0.0342  0.2196  0.0787
75786W        W18839  32.590   8.370  18.257 -0.1138 -0.0654  0.0507
75787W        W18840  19.492   1.315  18.790 -0.1122  0.0999  0.0785
75788W        W18841  22.982  30.979  15.370  0.1453  0.0667  0.2102
75789W        W18842  18.888  28.118  16.599 -0.1222 -0.1054  0.3625
75790W        W18843  17.645  23.057  16.798 -0.1277  0.0805  0.2489
75791W        W18844  22.398  21.465  20.297  0.1454  0.0166  0.1160
75792W        W18845  12.776  24.383  25.933  0.1438  0.2127 -0.2179
75793W        W18846  27.667  12.909  27.090  0.0186  0.1090  0.1783
75794W        W18847  22.378  12.550  23.055 -0.2135 -0.0596  0.2102
75795W        W18848  17.438  29.685  18.771 -0.0395 -0.1590 -0.1018
75796W        W18849   0.488  22.631  17.807 -0.1978 -0.0904  0.1228
75797W        W18850   9.502  17.957  13.687 -0.0203 -0.0943 -0.1387
75798W        W18851  20.151  12.548  16.029 -0.0388 -0.0404 -0.2046
75799W        W18852  17.745  22.194  14.514 -0.0336 -0.0827  0.1477
75800W        W18853  18.001  28.461   2.190 -0.3066  0.2260  0.0698
75801W        W18854  18.712  29.155   1.473 -0.1746 -0.1817 -0.1084
75802W        W18855  13.766  28.268  18.593 -0.1199 -0.1062 -0.3482
75803W        W18856  22.863   9.672  21.771  0.2788 -0.3348  0.0425
75804W        W18857  25.402  25.302  19.053  0.0632  0.1135 -0.2793
75805W        W18858  30.472  22.536  16.929 -0.0826  0.4319  0.0958
75806W        W18859  29.982  15.644   0.982 -0.1626  0.0181 -0.0468
75807W        W18860  13.896  25.189  17.599 -0.0800  0.2308  0.1954
75808W        W18861  16.609  13.627   1.232 -0.2688  0.0607  0.4396
75809W        W18862   9.196  15.187  26.366  0.0085  0.1232  0.1788
75810W        W18863  29.292  28.644  13.645  0.3390  0.1410 -0.0048
75811W        W18864  16.446  19.828  24.798 -0.2417 -0.1150 -0.1278
75812W        W18865  32.642  23.308   2.042 -0.0720 -0.3172  0.1292
75813W        W18866   5.178  26.947  24.152 -0.3029 -0.4001 -0.1489
75814W        W18867  27.955  12.723  18.280 -0.1077  0.0225  0.3011
75815W        W18868  11.887  16.006  16.898 -0.0906  0.4283 -0.0568
75816W        W18869  22.684   1.947  17.774  0.0505  0.2968  0.0269
75817W        W18870   4.812  20.095  22.700 -0.3534  0.0265 -0.0394
75818W        W18871  13.755   0.390  14.478 -0.0431  0.2231 -0.1105
75819W        W18872   7.924  10.443  26.475 -0.0584 -0.0648 -0.1265
75820W        W18873   1.465  20.032  23.966  0.2637 -0.0252  0.0059
75821W        W18874  13.301  20.232  22.934  0.1365  0.0031  0.2479
75822W        W18875   8.349  14.600  19.086 -0.3391 -0.2231 -0.0057
75823W        W18876   9.299   7.658  26.288 -0.1132 -0.3545  0.2581
75824W        W18877  11.908  11.047  15.256  0.0655 -0.2826  0.0104
75825W        W18878  34.268  26.981  26.763  0.0539 -0.1939 -0.1110
75826W        W18879  28.300   9.040  27.747 -0.0016  0.0498  0.4020
75827W        W18880  18.907  29.870  20.396  0.1341 -0.1593  0.0672
75828W        W18881  19.324  21.900   2.944  0.3680  0.0267  0.0457
75829W        W18882  24.332  14.355  16.655 -0.1469  0.3206  0.1214
75830W        W18883   6.875   9.101  22.058 -0.2159  0.0725  0.0337
75831W        W18884  26.238  16.260  28.901 -0.3173 -0.1382  0.0090
75832W        W18885   1.170  27.591  15.700  0.3304  0.0182 -0.0010
75833W        W18886  22.703   3.351  13.161 -0.0312 -0.0116  0.0159
75834W        W18887  22.175  14.390  16.615 -0.2366  0.1253 -0.3016
75835W        W18888   9.189  18.517  21.833  0.6062 -0.2204  0.1856
75836W        W18889  24.674   7.663   1.922 -0.4520 -0.1043  0.1075
75837W        W18890   9.332  22.217  15.551  0.5453 -0.1757  0.1149
75838W        W18891  15.785  15.435  16.015  0.0106  0.0366  0.3998
75839W        W18892  27.902  29.440  15.968  0.0024 -0.0908  0.1514
75840W        W18893  17.594  16.943  24.248  0.1485  0.3430  0.1851
75841W        W18894   8.842  23.201  15.235  0.5479  0.1438  0.1624
75842W        W18895   8.866   7.309  17.709 -0.1242 -0.0044 -0.1936
75843W        W18896  21.195  20.434  15.171 -0.2557 -0.1276 -0.0231
75844W        W18897  23.520  20.073  23.683 -0.2531 -0.1636 -0.0605
75845W        W18898   4.055  18.467  19.703 -0.0025  0.0504 -0.3581
75846W        W18899  28.716  17.590  22.706 -0.1968  0.2200  0.1764
75847W        W18900  11.185  14.075  22.035  0.2429  0.0953 -0.0253
75848W        W18901  13.925   7.596  26.295 -0.0236  0.0290 -0.2010
75849W        W18902  24.494  30.929  17.144 -0.2669  0.2013  0.2619
75850W        W18903  23.863  10.243   1.530  0.1110  0.0206 -0.0485
75851W        W18904  13.918  17.724  18.333  0.1503  0.3878  0.2850
75852W        W18905   0.792  12.928  26.550  0.2310 -0.1240  0.0591
75853W        W18906   3.732  33.322  15.579 -0.2053 -0.2406 -0.4249
75854W        W18907  26.035  12.728  17.076 -0.0222 -0.0491 -0.0114
75855W        W18908  16.481  23.468  17.418  0.2231  0.1761  0.0837
75856W        W18909  20.649  24.651  23.242  0.2410 -0.2314  0.0902
75857W        W18910  13.499   0.910  24.268  0.0005  0.2719  0.2656
75858W        W18911  33.247   2.663   3.724 -0.2191  0.0265  0.0286
75859W        W18912  17.634  27.278  22.017  0.0141  0.1936  0.1319
75860W        W18913  17.965  25.921  21.823 -0.0205 -0.1737 -0.0321
75861W        W18914  25.306  20.283  18.225  0.1159  0.1203  0.1942
75862W        W18915  10.382  14.904  15.561  0.3041  0.0107 -0.1880
75863W        W18916  14.252  22.726  28.361  0.2801  0.0991  0.0698
75864W        W18917   8.007  15.136  27.766 -0.0998 -0.1729 -0.0370
75865W        W18918  17.188  34.148  17.428  0.0469  0.1061 -0.2078
75866W        W18919  25.940  16.385  23.485 -0.0958 -0.3860  0.1114
75867W        W18920  14.770  32.742   9.579 -0.2880 -0.2387 -0.0523
75868W        W18921   6.710  11.192  18.515 -0.3441  0.5483 -0.0052
75869W        W18922  19.508  23.986  21.189  0.0578  0.1736  0.0670
75870W        W18923  28.415  14.150  19.439 -0.1721 -0.2762 -0.0312
75871W        W18924  24.273  13.076  19.396  0.0728 -0.0801 -0.0723
75872W        W18925  22.326  20.432  16.141  0.0934  0.1134 -0.3463
75873W        W18926   8.895  16.171  17.261  0.2579 -0.0807 -0.1097
75874W        W18927  14.677   2.425  21.951  0.1144  0.1840 -0.0277
75875W        W18928   9.881  29.758  13.306 -0.0963  0.0948  0.1590
75876W        W18929  24.346  28.519  24.376 -0.1158 -0.1591 -0.1196
75877W        W18930  12.895  32.824   6.735  0.2051  0.2272 -0.0155
75878W        W18931   6.850  34.064   0.889  0.0499 -0.0275 -0.0066
75879W        W18932  33.427  19.150  23.227  0.1913  0.0506  0.0450
75880W        W18933   7.061  13.657  16.911  0.2686  0.2938  0.0210
75881W        W18934   1.076  27.975  21.080  0.0410 -0.2557  0.1092
75882W        W18935  17.386   1.737  15.624 -0.0357 -0.0221  0.1708
75883W        W18936   1.467  28.342  20.131  0.2653  0.1997  0.0767
75884W        W18937   2.038  33.934   5.980  0.2721 -0.0964 -0.2006
75885W        W18938  19.998  24.720  18.641  0.1997  0.1489 -0.4564
75886W        W18939  14.410  30.297  13.961 -0.0639  0.2268 -0.1286
75887W        W18940  22.269  20.246   5.671  0.0773  0.1334  0.0268
75888W        W18941  29.256  16.537   1.525  0.1666 -0.0686  0.0183
75889W        W18942  18.974  22.968  19.783  0.4149 -0.1261  0.0822
75890W        W18943  10.387  14.097   1.746 -0.1048  0.1016  0.0168
75891W        W18944  22.521  33.023  18.651  0.0113 -0.1479 -0.2207
75892W        W18945   6.499  34.043  14.372 -0.1553  0.3649 -0.1078
75893W        W18946   4.939  13.676  18.054 -0.2134 -0.0905 -0.1883
75894W        W18947  32.714  24.909  18.956  0.1253 -0.0480  0.1494
75895W        W18948  24.605  14.354  21.968 -0.2754 -0.3650 -0.3063
75896W        W18949  24.150   1.380  21.955  0.0035  0.1488 -0.1850
75897W        W18950  31.741  21.013  25.145  0.2497 -0.2145  0.2914
75898W        W18951  30.718  23.574  21.248 -0.1306  0.1232  0.1287
75899W        W18952  25.628  29.996  24.347 -0.1158  0.2889  0.1327
75900W        W18953  30.747  14.751  22.068  0.4189  0.3538 -0.1299
75901W        W18954  16.545  24.658  27.018 -0.1335 -0.3994 -0.0083
75902W        W18955  12.042   4.237  15.749 -0.2885 -0.2629 -0.0110
75903W        W18956  10.625  28.668  18.920  0.0346  0.0376 -0.0262
75904W        W18957   7.840  33.043  25.902 -0.0644  0.0347 -0.0543
75905W        W18958   9.935  27.165   2.188  0.0428 -0.1822  0.3155
75906W        W18959  10.706  14.579  15.197  0.4096  0.1495 -0.0132
75907W        W18960  23.102  30.572   8.471  0.1445 -0.1105  0.1122
75908W        W18961  15.990   1.034   5.194  0.2438 -0.0485 -0.0870
75909W        W18962  15.115  14.560  22.664 -0.0158  0.2544 -0.5081
75910W        W18963  15.745  33.245  28.678 -0.1214  0.0872  0.1519
75911W        W18964  21.467  14.628  14.185 -0.1199  0.2977 -0.0761
75912W        W18965  22.248  18.622  24.481  0.2355  0.1790  0.2052
75913W        W18966   3.522   6.648  26.065 -0.1741  0.1450  0.2991
75914W        W18967   6.291  21.538  23.944 -0.0185  0.0371 -0.0102
75915W        W18968  13.735  33.028   6.143  0.0103 -0.0185  0.1533
75916W        W18969   9.040   9.659  25.290  0.1955  0.4307 -0.0373
75917W        W18970  22.137  28.758  21.865 -0.2157  0.1137 -0.2665
75918W        W18971   9.251  17.330  26.336 -0.1706 -0.2511  0.0142
75919W        W18972   6.820  28.171  20.178 -0.1961  0.0447 -0.0228
75920W        W18973  12.048  15.961  22.895  0.0827  0.2129  0.2876
75921W        W18974  21.241   9.147  15.004  0.2740 -0.0881 -0.0764
75922W        W18975  20.127   0.890  19.771 -0.1090 -0.2250 -0.2351
75923W        W18976  15.018  16.052  15.694  0.2334 -0.0233  0.0898
75924W        W18977  20.393  24.284  18.612 -0.1124  0.0354  0.1337
75925W        W18978  11.672   0.694  14.648  0.0842  0.0329  0.0474
75926W        W18979  15.350  17.990  23.870 -0.6503 -0.2763  0.2755
75927W        W18980  22.174   8.877  15.334  0.0770 -0.0783 -0.0977
75928W        W18981  21.163  21.454  19.845 -0.0291  0.0234  0.4030
75929W        W18982  14.513  27.760  20.748  0.1559 -0.0007  0.1261
75930W        W18983  34.330  29.431  17.433  0.0434  0.1121  0.3094
75931W        W18984   1.312  24.585  28.575 -0.3509  0.0707  0.2069
75932W        W18985  23.165  14.561  23.831 -0.1213 -0.1997 -0.0371
75933W        W18986  20.539  27.728  14.841  0.1968 -0.0056 -0.6180
75934W        W18987  24.944   8.408  27.890 -0.1819  0.1548 -0.2040
75935W        W18988  20.989  19.197  15.559  0.0848  0.1994  0.0940
75936W        W18989  12.984  15.988  16.610 -0.0476  0.0788 -0.2141
75937W        W18990  20.826  13.791  14.915  0.3224 -0.2832 -0.4290
75938W        W18991   4.361  15.101  18.179 -0.2427  0.0532  0.0720
75939W        W18992   6.811  24.135  28.963 -0.0614  0.0000 -0.2035
75940W        W18993   9.062  10.007  23.786 -0.0246  0.1791 -0.2449
75941W        W18994  26.414   8.668  16.186 -0.0043 -0.0624 -0.3192
75942W        W18995   4.433  16.786  14.092 -0.2385  0.0210 -0.1434
75943W        W18996   8.215  29.395  13.427 -0.2516  0.1323  0.1971
75944W        W18997   1.354  26.607  16.871  0.1819 -0.2218  0.0936
75945W        W18998  32.435  26.447  18.085 -0.1291  0.0820 -0.2924
75946W        W18999  26.043  30.006  14.795 -0.0080 -0.0839 -0.2338
75947W        W19000  16.719  10.235   2.676  0.0091 -0.4816  0.1338
75948W        W19001   8.799  10.464  20.177 -0.0139 -0.2442 -0.0518
75949W        W19002  12.174  14.776  23.607  0.1308  0.0064  0.3270
75950W        W19003   8.609  16.797  17.372 -0.1106 -0.4385  0.3512
75951W        W19004  18.161   9.751  18.465  0.0076  0.0190  0.0964
75952W        W19005   3.419  16.127  25.380 -0.0739  0.0895  0.1224
75953W        W19006  24.566   4.025  15.744 -0.1297  0.3767  0.0870
75954W        W19007  18.222  26.478   5.656 -0.0502  0.4419  0.1247
75955W        W19008  17.503   2.036  25.184  0.1086  0.3259 -0.3040
75956W        W19009  18.892  20.224  22.177  0.1010 -0.0032 -0.2014
75957W        W19010  25.737   7.166  14.923  0.0125  0.1869 -0.5566
75958W        W19011  19.477   9.458  14.218 -0.1504  0.1027  0.0792
75959W        W19012  10.714   7.339  16.516  0.0187 -0.3019 -0.1100
75960W        W19013  17.929  22.598  27.766 -0.1332  0.1134 -0.1305
75961W        W19014  18.645  12.157  19.585  0.2826 -0.1176  0.0192
75962W        W19015  14.963  21.855  14.826 -0.2530  0.2977  0.0169
75963W        W19016  22.309  29.403  18.796  0.2465  0.0018 -0.2392
75964W        W19017   7.284  28.128  14.680  0.1035 -0.1982 -0.1652
75965W        W19018  19.562  34.121  16.294 -0.1924 -0.0706  0.0122
75966W        W19019  32.587  16.805  28.160  0.0320  0.1705  0.1146
75967W        W19020  13.059  30.028  14.502  0.0406 -0.1154  0.1713
75968W        W19021  22.344  20.885  23.549 -0.1602  0.1048  0.0936
75969W        W19022   9.317   8.834  17.269  0.0777 -0.0808 -0.2288
75970W        W19023  10.621  23.813  19.490  0.3352 -0.0642 -0.1117
75971W        W19024   3.311  28.609  17.301 -0.0434  0.0193 -0.0265
75972W        W19025  23.044  20.122  24.738  0.0661 -0.0038 -0.3272
75973W        W19026   3.893  33.896  13.456 -0.3113  0.1519  0.1243
75974W        W19027  25.448  22.530  19.271  0.1227 -0.1018 -0.0481
75975W        W19028  23.945   6.346  15.845 -0.1402 -0.1281 -0.1413
75976W        W19029  25.520  23.133  25.236 -0.0243 -0.1990 -0.1159
75977W        W19030  11.750  20.844  17.776 -0.0773  0.0074 -0.4043
75978W        W19031  23.908   3.356  18.275 -0.2406  0.0920  0.3595
75979W        W19032  25.773   5.137   6.453 -0.2833  0.0923  0.0007
75980W        W19033  30.538  18.812  24.672  0.0032  0.4575  0.0119
75981W        W19034   5.723  19.944  14.984 -0.1208 -0.0510 -0.2137
75982W        W19035  14.298  26.065   0.421 -0.1882 -0.0763 -0.0535
75983W        W19036  21.723  22.123  26.410 -0.2842  0.1458 -0.1898
75984W        W19037  16.031  10.588  15.438  0.0285  0.2682  0.0630
75985W        W19038  22.184  25.142  19.400  0.0024  0.1647  0.2524
75986W        W19039  24.948  24.496   1.757  0.2063 -0.2027  0.2123
75987W        W19040  21.799  18.289  16.233  0.0970  0.2495  0.0510
75988W        W19041  34.111   9.327  22.675 -0.1977 -0.2172 -0.3168
75989W        W19042  25.208  17.922  24.656 -0.1613 -0.0164 -0.0814
75990W        W19043  32.387  14.642  18.814  0.0264  0.4019 -0.2534
75991W        W19044  16.943  24.401  23.102 -0.2918  0.1429 -0.2240
75992W        W19045  25.375  22.755  16.014  0.1398  0.0720  0.1518
75993W        W19046   9.206  25.758  23.096  0.0585 -0.1115 -0.0868
75994W        W19047   5.060  15.988   0.618 -0.0378 -0.0804  0.3825
75995W        W19048  32.061   9.564  22.185  0.2199  0.1119 -0.1182
75996W        W19049  13.527  14.024  14.672  0.0337 -0.0367 -0.3570
75997W        W19050  13.707  15.878  21.781 -0.2212  0.2098  0.1716
75998W        W19051   3.181  23.863  16.143 -0.1342 -0.1929 -0.2354
75999W        W19052  12.314  26.433   1.094  0.0866 -0.1750  0.0297
76000W        W19053   8.933   7.720  16.490 -0.0801  0.0263 -0.0590
76001W        W19054  24.208  18.527  28.761  0.1120  0.1558  0.0433
76002W        W19055  16.865  33.527  25.234  0.1086 -0.1023 -0.1459
76003W        W19056  13.305  26.881   2.564  0.2522  0.1500  0.0530
76004W        W19057  22.324  22.416   1.848 -0.2047 -0.0535 -0.2610
76005W        W19058  33.581   7.115  15.115  0.0643 -0.0960  0.0140
76006W        W19059  17.636  17.371  13.131 -0.4390 -0.0061  0.0105
76007W        W19060  22.097  23.147  20.192  0.1883  0.1269 -0.0037
76008W        W19061  31.017  14.172  24.188 -0.0082 -0.1397  0.1338
76009W        W19062  16.417   1.411  15.717  0.0825 -0.1124 -0.1499
76010W        W19063  23.272   6.633   0.030 -0.0051  0.1305  0.1402
76011W        W19064  20.171  13.712  17.837 -0.2231 -0.3023  0.1682
76012W        W19065  19.739   3.234  16.895  0.5568  0.0300 -0.3258
76013W        W19066  27.786  29.380  15.472  0.1318 -0.2986  0.2058
76014W        W19067  24.785  32.631  18.304  0.0600  0.1087 -0.2186
76015W        W19068  27.021  26.597   1.154 -0.3359  0.2367 -0.3205
76016W        W19069   7.667  29.955  15.107  0.2021  0.2160 -0.3047
76017W        W19070   9.700  12.650  16.919 -0.3989 -0.1442  0.2603
76018W        W19071   1.477  16.166  28.682  0.2688  0.2916  0.1446
76019W        W19072  23.152  21.357  24.767  0.3536  0.1739  0.6403
76020W        W19073  12.981  19.504  22.145 -0.3068 -0.0596 -0.2222
76021W        W19074  20.831  25.822  20.918  0.0384 -0.3568 -0.1046
76022W        W19075  17.668  30.371  18.059  0.0880  0.0246 -0.1639
76023W        W19076   5.132  19.719  15.035 -0.3148 -0.1928 -0.0874
76024W        W19077  12.259  19.398  15.970 -0.0102 -0.0612 -0.2447
76025W        W19078   4.350  34.352  14.100 -0.0400  0.0369  0.2450
76026W        W19079  18.753  33.473  14.639 -0.2305  0.2531 -0.1726
76027W        W19080  15.076  18.928  14.550  0.2744 -0.0102 -0.1974
76028W        W19081  13.221  21.085  21.431  0.3083  0.1188 -0.0130
76029W        W19082   9.315  10.303   2.420 -0.1214  0.2366 -0.0394
76030W        W19083  33.927  23.249  24.371  0.1921 -0.0124  0.1388
76031W        W19084   3.489  21.626  26.083 -0.1191 -0.0721  0.0549
76032W        W19085  19.971  24.416  27.028  0.1472  0.1716 -0.1435
76033W        W19086  33.120  13.000  23.598 -0.1288  0.1297 -0.2741
76034W        W19087  11.952  19.888  23.153  0.1803  0.0680 -0.0298
76035W        W19088  16.263   7.888  17.635 -0.2419  0.1936 -0.4110
76036W        W19089   3.686  27.410  18.685  0.4101  0.1208  0.0776
76037W        W19090  21.366   4.148  16.095  0.0345 -0.0005  0.1209
76038W        W19091  25.159  18.137  23.171 -0.0301  0.0952  0.0756
76039W        W19092  12.536  27.759  16.953  0.2492  0.1099 -0.0908
76040W        W19093  34.076  34.460  22.572  0.0854  0.0287 -0.0728
76041W        W19094  15.138  16.188  25.269  0.0656 -0.0744 -0.2545
76042W        W19095   2.001  15.656  15.340 -0.1178  0.0102  0.2247
76043W        W19096  10.492  22.268  20.154 -0.1042 -0.1740  0.1752
76044W        W19097  25.043   2.070  23.368  0.1045  0.4180 -0.1108
76045W        W19098  26.671  22.919  21.700 -0.2299  0.0958  0.1336
76046W        W19099   7.349   9.400  24.487  0.1746  0.1298  0.1110
76047W        W19100  16.313  29.712  22.403 -0.0449 -0.1221 -0.1119
76048W        W19101   0.841  19.013  26.545  0.1137 -0.1193 -0.2677
76049W        W19102  16.053  28.320  18.569 -0.0103  0.2207 -0.0544
76050W        W19103  18.857  33.882   2.404 -0.3417  0.0477 -0.2469
76051W        W19104   6.744  26.850  15.695 -0.0221 -0.0257 -0.0600
76052W        W19105  29.192  10.165  26.749 -0.1587 -0.0146  0.0448
76053W        W19106  33.806  20.505  18.493  0.1269  0.1218  0.0155
76054W        W19107  31.614  31.739  16.926  0.0108  0.2257 -0.1432
76055W        W19108  11.184  22.338  26.020 -0.1561  0.0392 -0.0217
76056W        W19109  12.311  17.817  18.474  0.4355  0.1577 -0.2150
76057W        W19110  17.520  33.021  17.105  0.0057  0.3007  0.0504
76058W        W19111   3.967  20.967  26.659 -0.0900  0.1053 -0.3091
76059W        W19112  29.814   8.551   0.728 -0.0669  0.2049 -0.2628
76060W        W19113  23.455   2.039  15.941 -0.2885 -0.4075  0.1596
76061W        W19114   2.951  23.897  23.699  0.0141 -0.0003 -0.4012
76062W        W19115  34.297  25.236   3.969  0.0756 -0.1622 -0.4326
76063W        W19116  20.499   9.841  26.036 -0.0635  0.0798 -0.0537
76064W        W19117  12.720  10.046  22.538  0.3761  0.1102  0.0222
76065W        W19118  28.629  19.356  20.561  0.1875  0.0259 -0.0462
76066W        W19119  16.487  15.502   5.394  0.1524 -0.3808  0.1924
76067W        W19120  28.267  31.195  21.194  0.0683  0.0496  0.0102
76068W        W19121  13.995  24.990   6.387 -0.1254 -0.0342 -0.1150
76069W        W19122  23.841  21.168  19.505  0.1428  0.0167  0.1916
76070W        W19123  16.100  22.376   1.590 -0.2287 -0.0602 -0.0191
76071W        W19124  34.064   9.013   8.956  0.1932 -0.2962  0.1606
76072W        W19125  14.413  17.019   3.713 -0.0836  0.2779 -0.3685
76073W        W19126   1.392  20.212  19.633 -0.0314 -0.1434 -0.2172
76074W        W19127  11.742  29.011  22.461 -0.1560 -0.1974  0.0534
76075W        W19128  32.225  12.839  22.675  0.1490 -0.2423 -0.0765
76076W        W19129  32.111  31.128   4.602 -0.3038 -0.1249  0.0116
76077W        W19130   4.532  11.227  17.786 -0.0762  0.1904  0.2653
76078W        W19131  33.209  13.892  17.697 -0.0206  0.2722  0.1089
76079W        W19132  25.395   9.431  18.105  0.2003  0.1646  0.0241
76080W        W19133  32.348   3.612  22.356 -0.0966 -0.1302  0.1848
76081W        W19134  10.309  18.447  19.542 -0.0170  0.0787  0.2176
76082W        W19135   7.093  12.427  16.351  0.4105  0.1335  0.1157
76083W        W19136  23.357   1.642  20.276  0.1349  0.1176 -0.0763
76084W        W19137   6.627  23.507  18.681 -0.0047  0.2755 -0.2098
76085W        W19138   2.868   0.399  27.546  0.0711 -0.1381  0.1701
76086W        W19139  33.625  14.605   1.067 -0.1584 -0.1730 -0.1023
76087W        W19140  25.786  19.979  26.634  0.0213 -0.1509 -0.0620
76088W        W19141  31.423  28.328  24.955  0.1701  0.1042  0.1478
76089W        W19142   9.679  32.842  20.685  0.0522 -0.1539  0.2294
76090W        W19143  25.865  22.087   4.592  0.3920  0.3030  0.0000
76091W        W19144  13.609  28.307  15.212  0.2769  0.3678  0.0591
76092W        W19145   4.805  10.280  22.298 -0.2159  0.1567 -0.0468
76093W        W19146  15.185  13.176  24.805  0.0157 -0.1066 -0.1497
76094W        W19147  26.554  20.582  15.353  0.0605  0.0331  0.0430
76095W        W19148  11.167  24.429  21.874  0.0750 -0.0020 -0.2471
76096W        W19149  23.638  29.875  17.983 -0.1393 -0.0921 -0.2292
76097W        W19150   6.022  22.961  27.447 -0.0913  0.1774 -0.0312
76098W        W19151   7.555  22.283  17.732 -0.0793 -0.3308  0.0416
76099W        W19152   9.377   8.102  22.025 -0.0188 -0.2930 -0.1203
76100W        W19153  22.818  14.375   0.954 -0.1717  0.0658  0.2651
76101W        W19154  33.383  20.301  12.939 -0.1524 -0.0387  0.0241
76102W        W19155  27.474  16.753  18.987 -0.1712  0.2740  0.0424
76103W        W19156   7.401  23.223  23.025 -0.2857  0.0737  0.1928
76104W        W19157  30.148  17.450  17.025  0.2491  0.2748  0.2743
76105W        W19158  26.073   0.273  25.403  0.0418 -0.0639  0.2720
76106W        W19159  33.811  25.910   1.299 -0.0528 -0.1385  0.0078
76107W        W19160   8.862  26.028  15.775 -0.2233 -0.0150  0.1943
76108W        W19161   7.054  26.031  15.525  0.0029 -0.2814  0.0293
76109W        W19162  25.708  27.382   7.604 -0.2381 -0.2152  0.1463
76110W        W19163   6.760   5.227  17.721  0.1436  0.2143 -0.0213
76111W        W19164  17.939  31.128  24.710  0.1757 -0.4694 -0.2015
76112W        W19165  33.227   0.003  20.058  0.0065 -0.0967 -0.1496
76113W        W19166  21.140  13.557   0.190  0.1644 -0.2761 -0.1277
76114W        W19167   5.183  15.744   1.096 -0.1987 -0.1368 -0.1544
76115W        W19168  13.562  17.743  28.724 -0.0361  0.0012  0.2849
76116W        W19169  29.943  15.015  27.599 -0.4423  0.0755 -0.2192
76117W        W19170  15.952  30.269   4.377 -0.0053  0.0420  0.1479
76118W        W19171   8.617  18.702  15.368 -0.3826 -0.3291  0.0439
76119W        W19172  25.459  10.334  16.107 -0.2022  0.0316 -0.1806
76120W        W19173   7.789  29.189  22.365  0.0413  0.1106  0.0312
76121W        W19174  22.306   6.112  17.076 -0.2630  0.1389  0.0551
76122W        W19175  33.131  23.530   0.347  0.0549 -0.2278 -0.2829
76123W        W19176   7.043  18.560   8.312  0.0816  0.1165 -0.2047
76124W        W19177   7.214  21.394  15.943  0.1666 -0.2589  0.1154
76125W        W19178  11.225  19.501  15.712 -0.4073 -0.0763 -0.1951
76126W        W19179   1.310  16.252   0.031 -0.2267  0.2266  0.1201
76127W        W19180  25.815  27.031  21.175 -0.0018  0.5334  0.0531
76128W        W19181   2.264  19.586  20.075  0.0970 -0.1309  0.3283
76129W        W19182  24.631  31.563  22.116 -0.0438 -0.2888  0.0781
76130W        W19183  12.390  22.495  17.137 -0.0089  0.1308 -0.1460
76131W        W19184  19.782  28.681   1.826  0.2194  0.3052 -0.1551
76132W        W19185  28.407  16.749  22.116  0.3073  0.1633 -0.1563
76133W        W19186   1.468   2.707  20.811 -0.0595  0.3516 -0.1439
76134W        W19187  15.436  30.890  18.597  0.1084  0.2329  0.0799
76135W        W19188  10.830  29.273  18.738  0.0164  0.3597  0.0141
76136W        W19189  29.535  15.346  22.615  0.0343 -0.5398 -0.0054
76137W        W19190  14.122  23.131   5.443 -0.0134  0.2361  0.1019
76138W        W19191  18.172   0.699  17.413  0.0273  0.2276 -0.0269
76139W        W19192   2.249   4.171  15.166  0.1846  0.0924 -0.3607
76140W        W19193   2.187  12.035   7.337 -0.0746 -0.1384 -0.3208
76141W        W19194   1.654  21.735  14.885  0.1670 -0.0629 -0.1721
76142W        W19195  25.163  15.735  14.819  0.0348  0.1730 -0.2431
76143W        W19196  20.841  20.442  17.099  0.2025  0.0679 -0.3490
76144W        W19197  10.917  25.003  25.706  0.1267  0.4799 -0.1349
76145W        W19198   6.320  30.867  18.318 -0.2200 -0.0744 -0.0650
76146W        W19199  29.937  15.306  24.565  0.0973 -0.0711  0.0499
76147W        W19200  13.243   1.996  27.204  0.5568 -0.0309 -0.1940
76148W        W19201  33.926  32.968  17.593  0.0872 -0.1046 -0.0430
76149W        W19202  13.428   0.693  25.990  0.1121 -0.0929  0.3896
76150W        W19203   1.036  23.560   7.499 -0.1545  0.0211  0.2144
76151W        W19204  12.794  14.321   6.888  0.0101  0.1355  0.1545
76152W        W19205  14.438   2.955   5.374  0.1918  0.0606  0.1388
76153W        W19206  19.337  23.956  24.933  0.2383  0.1560 -0.2158
76154W        W19207  20.456   5.360  23.376 -0.1560 -0.4007 -0.2400
76155W        W19208   5.120  19.547  15.689  0.1994  0.2903 -0.1432
76156W        W19209  13.800  23.174   5.068  0.3716 -0.1285  0.4014
76157W        W19210  23.568  22.811  22.098 -0.1201 -0.0441  0.0193
76158W        W19211  22.930  18.887  18.401  0.0727  0.0900  0.0894
76159W        W19212   9.598  23.185   0.887 -0.1449 -0.1978  0.2446
76160W        W19213   1.854  20.459  13.810  0.0761  0.1336  0.2777
76161W        W19214  12.168  11.808  19.922  0.1251 -0.1907  0.0512
76162W        W19215  22.188  32.358  23.560 -0.0716  0.0920 -0.1849
76163W        W19216  24.634  16.667  20.527 -0.0500  0.1457  0.1068
76164W        W19217  34.642  21.621  18.354 -0.1520  0.2114 -0.1266
76165W        W19218  15.184  30.903   4.494 -0.1160  0.2462 -0.0455
76166W        W19219  26.227   5.915   1.947 -0.2664 -0.2871  0.1712
76167W        W19220  21.755  18.094  14.704  0.3459 -0.0449 -0.3286
76168W        W19221  32.123   8.840  18.392  0.0013 -0.0440 -0.3132
76169W        W19222  20.972  23.023  18.403 -0.0389  0.2772  0.1429
76170W        W19223   8.579  25.626   2.098 -0.1142  0.1173 -0.0142
76171W        W19224  27.695   3.535   9.973 -0.2769  0.2230  0.0082
76172W        W19225  30.468  16.696   6.232 -0.0084 -0.1412 -0.1044
76173W        W19226  24.183  30.519  27.097  0.0370  0.3274 -0.0463
76174W        W19227   6.054  22.750  22.565 -0.0260  0.0309  0.0882
76175W        W19228  18.306  20.745  16.026 -0.1719  0.4885 -0.2248
76176W        W19229  11.315  21.885  17.609  0.2659  0.0602 -0.3961
76177W        W19230  15.196  17.826  27.011 -0.1991  0.0874  0.1849
76178W        W19231   2.562   0.160  18.112  0.3043 -0.1336 -0.2374
76179W        W19232  17.154  25.775  20.766 -0.1832  0.0946  0.0878
76180W        W19233  22.693  22.958  17.331  0.4419 -0.1587 -0.2312
76181W        W19234  18.173  24.444  19.619 -0.0589  0.1221 -0.1922
76182W        W19235   1.007  28.566  20.114 -0.0885 -0.0032 -0.1624
76183W        W19236   4.167  14.503  19.316 -0.0927 -0.2778  0.2667
76184W        W19237  17.992  20.693  17.024  0.1100  0.1749 -0.0051
76185W        W19238   2.120  12.936  23.938  0.2121 -0.0289  0.0379
76186W        W19239  26.405  24.305  15.408 -0.0139 -0.1991 -0.0089
76187W        W19240  16.041   2.805   3.163 -0.2634  0.0063 -0.3496
76188W        W19241   6.735   1.526  19.288 -0.0758  0.0160 -0.2345
76189W        W19242  14.934  20.193  26.350  0.2882 -0.0787  0.1817
76190W        W19243   8.817  26.428  21.869 -0.0794 -0.1370 -0.0310
76191W        W19244  26.327  28.661  15.391 -0.2765 -0.2463  0.2734
76192W        W19245  19.019  21.801  16.913  0.1220 -0.1050  0.3463
76193W        W19246  12.120  33.731  21.112 -0.1288 -0.1238  0.3098
76194W        W19247   2.374  15.930  24.028  0.0529  0.1859 -0.2635
76195W        W19248  34.073  15.876   4.005 -0.2684  0.4828 -0.2723
76196W        W19249   7.978  33.378  13.636 -0.0310 -0.2751 -0.0668
76197W        W19250  13.561  22.702  21.537 -0.1801  0.1597  0.0096
76198W        W19251  30.955  27.794   2.412  0.1651 -0.4372  0.0309
76199W        W19252  28.523  18.480  25.649  0.0948 -0.0891 -0.2869
76200W        W19253  13.956  32.411  25.818 -0.2192  0.1598 -0.0215
76201W        W19254  31.130  14.942  23.725  0.0914 -0.1050  0.2816
76202W        W19255  32.971  19.892  24.159  0.1404 -0.0901  0.3273
76203W        W19256  11.497  30.592  15.882  0.0825  0.1457 -0.1918
76204W        W19257  16.403   7.026   2.296  0.1508 -0.0673  0.1068
76205W        W19258   1.398  16.123  17.285  0.2196 -0.0211 -0.0178
76206W        W19259   3.640   5.288  25.614 -0.0529  0.1094 -0.3252
76207W        W19260  14.941  22.803  14.517  0.0378  0.1041 -0.1753
76208W        W19261  23.339  15.855  15.846 -0.2519 -0.2356  0.0835
76209W        W19262  16.683  22.461  26.680 -0.1126 -0.0344 -0.0082
76210W        W19263  34.494  24.222  20.960 -0.0158  0.0028 -0.0665
76211W        W19264  27.227  25.091  20.778  0.1335 -0.1674 -0.2841
76212W        W19265  28.590  16.850  26.530 -0.3414  0.0666  0.0714
76213W        W19266  26.377  23.006   0.425 -0.0686 -0.0746 -0.0552
76214W        W19267  21.045  32.047  20.846  0.1115 -0.0442 -0.4061
76215W        W19268  32.887  28.794  17.336  0.0332 -0.1394 -0.0946
76216W        W19269  16.252   4.933   1.319 -0.0697 -0.1401  0.1281
76217W        W19270   6.116  32.544  20.898 -0.0781 -0.0614  0.1333
76218W        W19271  13.660  16.625  24.818 -0.0731  0.3246 -0.0421
76219W        W19272   0.044   3.428   9.749 -0.2301  0.0841 -0.1894
76220W        W19273  26.922  33.872  20.523 -0.0016  0.0572 -0.1074
76221W        W19274  27.896  23.319  24.261 -0.1234  0.0612 -0.0297
76222W        W19275  23.708  31.070  26.054  0.2123  0.3694 -0.0320
76223W        W19276  26.259  34.534  23.560 -0.1546 -0.1113 -0.1360
76224W        W19277   5.501  21.181  13.743 -0.5390  0.1770 -0.0118
76225W        W19278   2.801  20.225  17.593  0.0511 -0.1401  0.0398
76226W        W19279   1.808  11.309  25.293  0.2078  0.0255  0.3206
76227W        W19280  10.363  18.550  27.263 -0.3910  0.0683 -0.0894
76228W        W19281  24.937  23.755  17.541 -0.1242 -0.2357 -0.0423
76229W        W19282  10.940  10.818  22.356 -0.1318  0.0326 -0.1363
76230W        W19283  18.670  13.143  17.358 -0.0267  0.4737  0.1062
76231W        W19284  30.897  10.581  14.439 -0.1623 -0.2895  0.0661
76232W        W19285  11.683  20.224  16.649 -0.1826 -0.0185 -0.1254
76233W        W19286  13.976  21.749   1.267 -0.0919 -0.0347  0.1183
76234W        W19287   9.564  34.358  19.623  0.3434 -0.1341  0.1626
76235W        W19288  27.447  28.486  21.642 -0.3845 -0.2833  0.3807
76236W        W19289  28.445  24.147   8.982 -0.0129  0.3769  0.3399
76237W        W19290   1.307  19.850  18.429  0.0478 -0.1797 -0.0640
76238W        W19291  23.583   1.496  20.732 -0.2548 -0.0342 -0.0091
76239W        W19292  22.912  33.880  20.606 -0.0279 -0.0526 -0.1305
76240W        W19293  27.994  17.154  25.883 -0.0899  0.1652 -0.1412
76241W        W19294  31.414  12.191   4.266 -0.1704  0.1899 -0.0772
76242W        W19295  32.820  19.108  19.748 -0.0021  0.0190 -0.0451
76243W        W19296  10.941  15.982   0.058  0.4129 -0.0651  0.3185
76244W        W19297  29.742  18.972  23.903  0.2551  0.0498  0.3317
76245W        W19298  34.546  20.678   3.829 -0.0086 -0.1527 -0.1438
76246W        W19299  22.984   6.792  28.199 -0.0522  0.2629  0.1239
76247W        W19300   5.406  28.355   1.787 -0.2718  0.0362 -0.1773
76248W        W19301   9.864  28.453  20.408 -0.0719 -0.2027  0.0662
76249W        W19302  26.688  29.880  21.486 -0.0879 -0.1598 -0.1353
76250W        W19303  12.572  23.705   5.069  0.1641 -0.2322  0.1246
76251W        W19304  13.368   4.194  21.238 -0.0725  0.1130 -0.0865
76252W        W19305   8.736   3.179  17.141  0.2886 -0.2232  0.2657
76253W        W19306  18.550  17.959  19.172  0.1271 -0.3190  0.0981
76254W        W19307  22.944  24.842  26.174  0.3335  0.2936  0.4391
76255W        W19308  18.110  19.850  14.341  0.2748  0.1936  0.1945
76256W        W19309  21.745  25.757  26.609  0.0381  0.2053  0.0255
76257W        W19310  16.385  23.425  22.407  0.0474  0.2984 -0.0031
76258W        W19311  30.823  21.025  28.546 -0.0105  0.1387  0.1342
76259W        W19312  22.473  24.363  20.170  0.3621  0.4921  0.4070
76260W        W19313   9.853  27.909  28.480 -0.4115 -0.0053  0.3727
76261W        W19314   3.921  14.699  24.637  0.2578 -0.0427 -0.1749
76262W        W19315  29.896   5.931  22.786  0.1204 -0.1832 -0.0547
76263W        W19316  22.045  19.269  27.168  0.2633 -0.3271 -0.2775
76264W        W19317  17.514  18.258  19.227 -0.1041 -0.0386 -0.2910
76265W        W19318  23.908  26.592  16.942 -0.0278 -0.1656 -0.0429
76266W        W19319  15.416  34.453  19.879  0.4576 -0.0184 -0.0413
76267W        W19320  23.673  32.897  15.176 -0.0787  0.0225  0.1194
76268W        W19321  11.784  15.542   5.764  0.1699  0.0720 -0.0549
76269W        W19322  13.686  26.510  29.194  0.1231  0.0061 -0.1733
76270W        W19323  23.376  10.767  27.174 -0.4218 -0.0170  0.2133
76271W        W19324  25.805  26.993  25.592  0.1298  0.1268  0.0906
76272W        W19325  25.561  18.865   8.544  0.1386  0.3244  0.2557
76273W        W19326   6.579   3.821  14.711 -0.0264 -0.1952 -0.2031
76274W        W19327  30.123  21.481   9.772 -0.0134  0.1621 -0.0828
76275W        W19328  31.303  24.975   1.462  0.0096  0.1214 -0.0701
76276W        W19329  27.843  23.782  28.244 -0.3378 -0.0239 -0.0644
76277W        W19330   1.059  13.631  21.354  0.0881  0.0419 -0.1208
76278W        W19331  18.852  19.740  23.126  0.0830  0.0196 -0.1306
76279W        W19332  21.201  12.267  27.575  0.0793 -0.0694  0.0484
76280W        W19333  17.427  21.829   4.652 -0.2395  0.1418 -0.1723
76281W        W19334  13.615  27.449  26.152 -0.0953  0.1163  0.2170
76282W        W19335   4.210  26.136  24.335 -0.2415  0.2836 -0.1659
76283W        W19336  14.930  13.277  21.432  0.0652  0.0232 -0.1968
76284W        W19337  25.001  24.465  26.773 -0.1792  0.0445 -0.1812
76285W        W19338  21.157  30.357   1.873 -0.1548  0.0760 -0.0139
76286W        W19339  24.291  20.273  19.638 -0.1860  0.0466  0.1384
76287W        W19340   6.068  21.449  22.064 -0.2525 -0.1616  0.2627
76288W        W19341  20.851  20.728  20.096 -0.1867  0.4039  0.1610
76289W        W19342  29.809   2.489  19.014 -0.2357  0.0022  0.0100
76290W        W19343  17.307  24.954  22.042  0.1498 -0.1283 -0.2216
76291W        W19344  12.817  14.221   9.118  0.0308 -0.0676  0.1458
76292W        W19345  26.179  29.166  15.451  0.1334 -0.0845  0.1073
76293W        W19346  23.375  21.322   5.210 -0.0523  0.0288  0.1732
76294W        W19347  12.107  25.695   7.925 -0.1062  0.0115  0.3677
76295W        W19348  11.653  31.928   3.154  0.2470 -0.4270 -0.1121
76296W        W19349  28.047  12.256  15.570 -0.0049  0.0205 -0.1133
76297W        W19350  10.482   3.153   1.582  0.2402  0.0727  0.2242
76298W        W19351   4.515  25.529   1.726 -0.0933 -0.2924 -0.1612
76299W        W19352  13.210  34.318  26.231  0.1578 -0.2274 -0.2522
76300W        W19353  10.192  25.809   5.182 -0.1516  0.1572  0.0208
76301W        W19354  25.288  32.099  23.804 -0.2951 -0.3796 -0.1198
76302W        W19355  23.346  13.446  25.387  0.1600  0.0872  0.1476
76303W        W19356  17.395  33.122  25.147 -0.1889 -0.1185  0.1481
76304W        W19357   0.195  15.906  13.550  0.1468 -0.1501  0.4153
76305W        W19358  17.534  14.487   0.020 -0.2772  0.0488  0.4021
76306W        W19359   4.591  24.567   9.474 -0.0087 -0.3633  0.3031
76307W        W19360  20.047  23.476   1.363  0.1191  0.1998 -0.1733
76308W        W19361  19.929  13.258   2.486  0.1833  0.1183  0.0371
76309W        W19362   0.588   6.817  16.127  0.1189 -0.0299  0.0553
76310W        W19363  33.289  24.367  25.930  0.1542  0.1727 -0.0977
76311W        W19364  19.125  29.865  19.472  0.0092 -0.0447  0.2570
76312W        W19365  18.720  25.734  29.167  0.0434 -0.1864  0.2748
76313W        W19366   5.613  34.015  14.042  0.2062 -0.2943  0.1507
76314W        W19367  18.676  23.110   3.832  0.0217 -0.1552 -0.1370
76315W        W19368  17.892  17.878  20.470  0.0112  0.2724  0.1577
76316W        W19369   3.625  34.546  14.695  0.2360 -0.1780 -0.0254
76317W        W19370  15.808  33.114   0.751 -0.1587 -0.2191 -0.0357
76318W        W19371  22.244  19.219  24.022 -0.2130  0.1849 -0.0327
76319W        W19372  13.416  21.793  28.935  0.0601  0.1599  0.4742
76320W        W19373  25.390  27.809  28.352  0.4736  0.3447  0.1081
76321W        W19374   3.409  28.645   7.942 -0.0122  0.0221  0.1479
76322W        W19375  18.144  17.818  18.864  0.2158 -0.0641  0.1549
76323W        W19376   0.475   5.477  18.652  0.2037 -0.0559 -0.1439
76324W        W19377  33.203   9.981  17.893 -0.1521 -0.0934  0.0281
76325W        W19378  25.172  34.395   3.086  0.3418  0.0719 -0.1419
76326W        W19379  30.447  27.438   0.247 -0.2778  0.2458 -0.0169
76327W        W19380  17.195  17.752  18.662  0.1745 -0.1690  0.0992
76328W        W19381   3.484  21.346  27.853 -0.3739 -0.4517 -0.0758
76329W        W19382   7.155  32.952  25.483 -0.0708 -0.1991 -0.1371
76330W        W19383  19.641  19.295   8.863  0.0049 -0.3393 -0.1070
76331W        W19384  16.969  16.558  18.855  0.3276 -0.1291  0.0893
76332W        W19385  12.466  25.433  17.687  0.0299  0.0646  0.0733
76333W        W19386   7.606  25.133   8.351 -0.3096 -0.0241 -0.0473
76334W        W19387  10.269  12.511   7.313 -0.0291 -0.0115  0.0989
76335W        W19388  11.518  23.458  13.498  0.2796  0.5205 -0.2730
76336W        W19389  20.538  16.121  25.460  0.0389  0.0619  0.3066
76337W        W19390  19.402  28.460   7.804  0.0503 -0.0455 -0.1137
76338W        W19391  19.050   6.407  18.446  0.0828  0.1925  0.2692
76339W        W19392  24.613   1.000  22.823  0.3227  0.2725  0.2333
76340W        W19393  31.146  19.183  14.728  0.0905 -0.1968  0.0994
76341W        W19394  13.958  28.434  13.074 -0.1898  0.1323  0.1150
76342W        W19395  33.622  17.979  19.122 -0.1442 -0.1110 -0.1826
76343W        W19396  26.161  18.345  18.792 -0.0390 -0.0886  0.0995
76344W        W19397  12.445  33.889  17.733 -0.3582  0.0302 -0.0129
76345W        W19398   7.345  12.437  25.984  0.4571  0.0278  0.3621
76346W        W19399  24.867  30.093   0.199 -0.2180 -0.0922 -0.0863
76347W        W19400  32.917  33.596  18.617 -0.2671  0.3187  0.4859
76348W        W19401   4.931  17.990   4.837  0.0923  0.1002 -0.5218
76349W        W19402  25.421  24.225   3.906  0.0568 -0.0480 -0.0525
76350W        W19403  17.769  18.615  19.968  0.3766 -0.1410  0.6679
76351W        W19404  18.967  12.014  27.090  0.1746  0.0847  0.0918
76352W        W19405  17.038  18.088  20.136  0.0325 -0.1328 -0.0115
76353W        W19406  15.016  16.726  23.588 -0.2608  0.0962  0.2345
76354W        W19407  12.019  25.116  27.326  0.3683  0.2060 -0.2248
76355W        W19408  18.345  27.361   9.187 -0.2744  0.0352 -0.2356
76356W        W19409  33.860  32.238  18.157 -0.0420  0.0282  0.4260
76357W        W19410  17.304  24.403  15.545 -0.3958 -0.0617  0.0926
76358W        W19411   5.450  11.137  15.662 -0.0699  0.0469  0.3125
76359W        W19412  24.987  23.989  25.329  0.2787 -0.0634 -0.2747
76360W        W19413  11.181  20.344  15.755  0.3120  0.0062 -0.1609
76361W        W19414  11.788  17.648   9.194 -0.0905 -0.0034 -0.2060
76362W        W19415  16.431  15.893  19.142 -0.0388 -0.2375  0.1234
76363W        W19416  13.764  13.735  19.958 -0.2260  0.1048 -0.2187
76364W        W19417  28.583  10.017  19.181 -0.3909 -0.0005  0.2888
76365W        W19418  28.904  17.210  16.475  0.1359  0.2331  0.2547
76366W        W19419  32.090  21.098  15.584 -0.3010 -0.1936 -0.1045
76367W        W19420  26.597   0.281  19.608 -0.1719  0.1643 -0.0315
76368W        W19421  20.787   1.376  27.768  0.0316 -0.1443 -0.1299
76369W        W19422  24.813  27.505  19.524 -0.1413 -0.3443 -0.1016
76370W        W19423  15.261  21.087   7.180  0.4376 -0.0845  0.0909
76371W        W19424  25.886   3.053  17.046 -0.0610 -0.0005 -0.0733
76372W        W19425   8.996  17.563  21.346 -0.2600 -0.1351 -0.2184
76373W        W19426   0.225  13.460  24.766  0.2817 -0.1614  0.0034
76374W        W19427  18.695  18.867  18.102 -0.1421  0.1442 -0.1157
76375W        W19428  17.144  16.576  19.933  0.0584 -0.0287  0.1533
76376W        W19429  23.019  24.773  15.627  0.0031 -0.1714 -0.0914
76377W        W19430   2.620  16.375  24.239  0.3948  0.1122 -0.1207
76378W        W19431  16.543  18.069  19.828  0.0776 -0.1518  0.2174
76379W        W19432  21.292  21.938  24.776  0.1662 -0.0621  0.0636
76380W        W19433   1.605  22.293   8.148  0.2940  0.1511 -0.0179
76381W        W19434  15.023   5.105  16.365  0.1072  0.1179 -0.0711
76382W        W19435  17.337  16.382  18.449 -0.4219  0.0996  0.3548
76383W        W19436   4.547  12.533  23.601  0.2267  0.1429  0.4692
76384W        W19437  12.694  30.613   7.737 -0.0869 -0.1766  0.1438
76385W        W19438  19.365  29.917  24.734  0.2459 -0.1528 -0.1100
76386W        W19439  27.085  23.001   0.961 -0.0961  0.2758 -0.1291
76387W        W19440   8.641  18.908   5.299 -0.4445  0.0077 -0.0331
76388W        W19441  18.605  19.193  18.478 -0.0068  0.0011  0.0606
76389W        W19442   2.971  24.681  14.876 -0.0071 -0.0638 -0.1675
76390W        W19443  11.192  26.297  28.955  0.1194  0.4221 -0.3478
76391W        W19444   1.193  23.933   6.495  0.1419  0.1410 -0.5247
76392W        W19445  26.765  29.828  28.247  0.0235 -0.2204  0.0780
76393W        W19446  15.616  10.844  22.869  0.2619  0.2256  0.1663
76394W        W19447   8.532  25.915  25.272 -0.0555 -0.3899 -0.0380
76395W        W19448  33.718  21.632   3.199 -0.1312  0.1653 -0.0346
76396W        W19449  32.068  33.427   9.768 -0.0982  0.0482  0.0497
76397W        W19450  19.431  30.822   0.756 -0.0490 -0.2235  0.1324
76398W        W19451  18.580  32.596  18.721 -0.0219 -0.0897 -0.1190
76399W        W19452  10.048  27.728  23.069 -0.3197  0.0009  0.0223
76400W        W19453  31.780  13.017   2.751 -0.4006  0.2196 -0.2370
76401W        W19454  25.051  28.008  15.212 -0.3693 -0.3148  0.0829
76402W        W19455  11.842  13.666   1.419 -0.0063  0.2435 -0.0173
76403W        W19456   3.481  28.753  26.286 -0.3395  0.1462 -0.2476
76404W        W19457  26.250  31.546  16.048 -0.1629 -0.0130  0.1986
76405W        W19458  21.926  29.287   4.566  0.2217 -0.3327  0.0286
76406W        W19459  23.019  18.810  13.516 -0.0638 -0.1612  0.0004
76407W        W19460  34.169  21.240  27.119 -0.2407  0.0893  0.0910
76408W        W19461   7.962  21.391   7.932  0.0885  0.1466 -0.0218
76409W        W19462  11.379  26.105  20.123 -0.0432  0.0706  0.0123
76410W        W19463  11.010  24.445  22.377 -0.2046 -0.0728  0.3135
76411W        W19464  33.069  30.165  16.281  0.2003 -0.0630 -0.0551
76412W        W19465   0.076   9.988  17.024  0.3905 -0.0736  0.1320
76413W        W19466   3.413  30.939  28.086 -0.0812 -0.0363 -0.1269
76414W        W19467  14.347  19.243  23.903 -0.2252 -0.1202 -0.1759
76415W        W19468  15.332  27.003  20.134  0.1592  0.1111 -0.0354
76416W        W19469   0.171  20.393  26.237  0.1592  0.1365 -0.2570
76417W        W19470   5.356  22.758  16.382 -0.4176  0.0890 -0.1147
76418W        W19471   7.197  15.665   4.040 -0.0394  0.0824 -0.3705
76419W        W19472  31.318  15.057  25.075  0.1832  0.0173  0.1639
76420W        W19473  11.333   8.348  20.796 -0.0461  0.0573  0.0973
76421W        W19474  15.128   7.855  23.132  0.3696  0.0670 -0.0025
76422W        W19475  34.247   0.763  21.307 -0.1411 -0.0567 -0.1694
76423W        W19476   8.518  19.352   2.320  0.0800  0.0275 -0.0139
76424W        W19477   3.917   5.217  17.041  0.3053  0.4668 -0.1399
76425W        W19478  25.587   7.202  27.295 -0.0709 -0.1631  0.1434
76426W        W19479  15.062  31.155  22.792 -0.2396  0.2823  0.0597
76427W        W19480  14.128  16.333  27.973 -0.0142  0.1358  0.0057
76428W        W19481   5.403   8.729   1.885 -0.0188  0.0661 -0.0550
76429W        W19482  30.912  14.394  26.821 -0.1920 -0.0186 -0.0988
76430W        W19483  30.367  28.609  16.677 -0.2831  0.2323  0.3179
76431W        W19484   2.535  18.116   9.143  0.0955 -0.2435  0.0804
76432W        W19485   4.446  16.704  16.274  0.0582 -0.2917 -0.1806
76433W        W19486   5.845  20.583  29.073  0.1639  0.0764 -0.2589
76434W        W19487   6.045  21.569  19.608 -0.0367 -0.0902 -0.2573
76435W        W19488   3.190  23.874  17.888 -0.1541 -0.0202 -0.4845
76436W        W19489   6.646  13.824   3.288  0.0208 -0.1933 -0.1833
76437W        W19490   3.840  20.868  27.761  0.2916 -0.0060  0.1676
76438W        W19491  17.463  17.267  18.778 -0.0953 -0.1650 -0.1619
76439W        W19492  23.805  31.977   3.156  0.3771  0.1005 -0.1121
76440W        W19493  17.081  21.339  28.324  0.0448  0.0335 -0.2743
76441W        W19494  13.317   5.522  22.208  0.1160 -0.0053 -0.0661
76442W        W19495  34.557  25.686  18.610 -0.0671 -0.0169 -0.0400
76443W        W19496  19.749  24.333  20.900 -0.0445  0.1161  0.0808
76444W        W19497  19.844  28.106  18.358  0.0975  0.2761  0.0023
76445W        W19498  11.267  30.451  23.537  0.1214  0.3740  0.0215
76446W        W19499  20.243  25.385  19.585  0.1347  0.0389 -0.1597
76447W        W19500  16.000  15.816  19.383  0.4247  0.0926  0.2485
76448W        W19501  17.055  17.637  20.374  0.2319 -0.0713 -0.0691
76449W        W19502  16.365   0.348  20.280 -0.2498 -0.0720 -0.3591
76450W        W19503  16.648   9.112   0.428  0.1618  0.1013  0.1358
76451W        W19504   5.829  24.495  21.399 -0.0556  0.0378 -0.0048
76452W        W19505  11.706  20.917   4.205  0.1661  0.0795 -0.0647
76453W        W19506  11.246  33.946  10.250 -0.0109  0.0358 -0.3680
76454W        W19507  22.878   4.590  27.965  0.2325  0.1171  0.3245
76455W        W19508  21.043  34.459  28.919 -0.0777  0.1816  0.2949
76456W        W19509  18.179  16.249  19.286  0.0106  0.1384  0.0272
76457W        W19510  15.733  10.353  27.095 -0.3428 -0.0506  0.1473
76458W        W19511  10.796  24.875  14.056 -0.0056  0.4609 -0.2489
76459W        W19512  18.944  18.084  18.650  0.0583 -0.0534 -0.1192
76460W        W19513  25.158  33.564   5.981 -0.4215 -0.0752  0.0244
76461W        W19514   3.974  26.277  26.912 -0.4918 -0.1928 -0.2030
76462W        W19515   6.019  26.011  29.197 -0.0464 -0.0779  0.1962
76463W        W19516  14.467   1.242   1.615  0.3150  0.2497  0.2323
76464W        W19517  21.115  22.955   7.010  0.3000  0.0768 -0.0643
76465W        W19518   4.407  18.135  23.922 -0.1218 -0.3223  0.0002
76466W        W19519  18.557  22.310   5.628  0.2939 -0.0476 -0.0450
76467W        W19520  32.578  13.934   1.259 -0.3428  0.1049  0.0031
76468W        W19521  17.325  27.873  10.887  0.0320 -0.2484 -0.0947
76469W        W19522  20.828  10.900   4.196  0.0930  0.1099  0.2403
76470W        W19523  18.057  25.370   7.022 -0.0220 -0.1625  0.2219
76471W        W19524  24.936  12.530  22.582 -0.0724 -0.0459 -0.2029
76472W        W19525   1.166  11.196  21.172  0.1052  0.2184 -0.0059
76473W        W19526   8.806   7.132  26.177 -0.1436  0.0959 -0.3259
76474W        W19527  10.525  20.731   7.965  0.1473  0.2816 -0.1332
76475W        W19528   9.719  19.863   3.938  0.0320 -0.2715 -0.2075
76476W        W19529  19.125  16.010   2.530 -0.2660  0.0100  0.0292
76477W        W19530  28.443  25.044   7.002 -0.0283  0.1684 -0.1864
76478W        W19531  11.788  24.750   2.854 -0.0504 -0.1768  0.3274
76479W        W19532  12.171  23.852  26.582  0.3977  0.1432 -0.1178
76480W        W19533  29.464  34.124   9.032  0.0134 -0.1383 -0.1273
76481W        W19534   4.611  22.660   0.798  0.1822 -0.1185 -0.0620
76482W        W19535   9.507  23.122   6.134 -0.1274 -0.0663 -0.1186
76483W        W19536   5.582  23.285   8.708  0.4156 -0.0542  0.0805
76484W        W19537  13.930  34.657   6.616 -0.4263  0.0428  0.0706
76485W        W19538  33.578  25.884  18.829 -0.0981 -0.1016 -0.3006
76486W        W19539  17.970  11.561  19.168 -0.1149  0.0744 -0.1528
76487W        W19540   9.152  18.342  28.576 -0.2413 -0.0874  0.0407
76488W        W19541  15.689  26.203   3.257 -0.3040  0.1036 -0.1434
76489W        W19542  17.618   5.748  26.647  0.2559  0.2249  0.2426
76490W        W19543  20.759  29.710  26.260  0.1903 -0.2442  0.0284
76491W        W19544  10.915  31.152  25.485  0.0576  0.1098  0.2840
76492W        W19545  23.981   8.911   4.841  0.3345 -0.4544 -0.0694
76493W        W19546  16.434  30.564   8.620 -0.0277 -0.0040  0.3357
76494W        W19547  27.327  27.258  26.608  0.0100  0.1586 -0.0179
76495W        W19548   7.533  25.310  16.806  0.0167  0.2945 -0.1542
76496W        W19549  18.626  29.859   4.220  0.1336 -0.2743 -0.0031
76497W        W19550  10.125  29.891   6.438 -0.1125 -0.0611 -0.1445
76498W        W19551  34.021  33.102   4.161 -0.1153  0.2400 -0.2106
76499W        W19552   6.245  30.775  23.762 -0.0199  0.2430 -0.1029
76500W        W19553  12.722  18.324   0.425  0.1247  0.2196  0.0073
76501W        W19554  10.984  28.057  19.609  0.0467  0.3106 -0.1528
76502W        W19555  28.533  23.288   3.826  0.2603 -0.0267  0.0624
76503W        W19556   9.066  33.781  23.766  0.2867  0.0001 -0.5037
76504W        W19557   1.904  23.403   6.388  0.0054 -0.1169  0.1467
76505W        W19558  25.507  31.114  16.878 -0.3422 -0.0197  0.1135
76506W        W19559  14.782  16.084   0.281  0.0984 -0.0139 -0.0812
76507W        W19560  16.355  19.878  22.660  0.1248  0.0974  0.2911
76508W        W19561  19.813  25.420  19.900  0.0942  0.2759  0.3222
76509W        W19562  15.282  19.554   2.217 -0.0386  0.1901  0.2886
76510W        W19563  12.953  21.137  20.002 -0.3129  0.1243 -0.3412
76511W        W19564  18.377  15.896   1.619 -0.2720  0.0585 -0.0951
76512W        W19565  24.044  23.403   2.533  0.0286  0.1419  0.0495
76513W        W19566  33.340   8.634  18.045  0.0864  0.0460 -0.0011
76514W        W19567   9.412  11.707   3.756 -0.2485 -0.1493  0.3301
76515W        W19568  27.350   7.015  24.201 -0.3251 -0.3489 -0.3815
76516W        W19569  17.957  22.167   6.961  0.1167 -0.0775 -0.1709
76517W        W19570  18.465  24.784   0.268  0.1214  0.1345 -0.0995
76518W        W19571  31.946  17.772  14.808 -0.0416 -0.0898  0.2861
76519W        W19572   7.629  16.469   5.944 -0.4117  0.3251 -0.0116
76520W        W19573   6.287  29.589  26.558 -0.1955  0.0385 -0.1778
76521W        W19574  23.299  28.921  21.778  0.0391 -0.0998 -0.0177
76522W        W19575  15.112   4.571   7.625  0.0770  0.0413  0.3244
76523W        W19576  22.444  12.041  26.900  0.4014 -0.0602 -0.0076
76524W        W19577  21.150  28.109  26.733 -0.0427  0.2180 -0.0427
76525W        W19578   9.192  10.028  18.520 -0.0147  0.0687 -0.1376
76526W        W19579   4.962  24.876   3.717  0.0731  0.2077 -0.2463
76527W        W19580  17.197  25.572   7.584 -0.3704 -0.2150 -0.1212
76528W        W19581  17.314  32.734   8.228  0.2777  0.2438  0.2145
76529W        W19582   2.873  16.181   8.609 -0.1901  0.4427 -0.1508
76530W        W19583   8.605  21.645   0.596 -0.0383  0.1237  0.0089
76531W        W19584  16.809  24.172   2.770 -0.3208 -0.0340  0.0182
76532W        W19585  14.773   5.299   0.790 -0.0674  0.6046 -0.1433
76533W        W19586  17.618  22.189   4.327 -0.1413  0.2416 -0.0785
76534W        W19587   5.964  22.047  25.798 -0.4243 -0.1459 -0.2239
76535W        W19588  17.195   6.063   1.505  0.1130 -0.0141 -0.1140
76536W        W19589  24.503   0.021  15.755  0.0910 -0.1550  0.0140
76537W        W19590  32.399  30.009   7.380 -0.1002  0.0169  0.2704
76538W        W19591  26.108  21.691   4.136 -0.1127 -0.1517 -0.1200
76539W        W19592  22.612   8.516   5.077 -0.4752  0.0849 -0.1084
76540W        W19593  24.762  11.745   2.580 -0.1126 -0.0601  0.1639
76541W        W19594  21.149   0.999  26.282  0.1711  0.1425  0.4518
76542W        W19595  17.739  20.231  15.801 -0.0155  0.1885 -0.2415
76543W        W19596  32.031  15.687  27.497  0.0612 -0.1092  0.1599
76544W        W19597  12.221  19.132  25.039 -0.1031 -0.0833  0.2165
76545W        W19598  16.576  14.604   6.223 -0.1637 -0.0201  0.0780
76546W        W19599  17.543  23.074   1.434 -0.1299  0.0806 -0.1789
76547W        W19600  12.666  10.386   3.109 -0.1668  0.0360 -0.3365
76548W        W19601   1.256  19.669  20.072  0.0466 -0.3300  0.0004
76549W        W19602  19.482  17.164   2.290 -0.1810  0.1370 -0.0245
76550W        W19603  26.023  12.685   6.669  0.0946 -0.3036  0.3410
76551W        W19604   5.029   3.767   5.595  0.0562 -0.4005  0.2065
76552W        W19605   6.894  20.906  27.154  0.0465  0.0348  0.0414
76553W        W19606  32.287  12.996   0.250 -0.0239  0.0836  0.0045
76554W        W19607  17.263   2.073   7.423  0.2211  0.0912  0.2542
76555W        W19608   3.288  12.891  22.268 -0.3535 -0.1993  0.2782
76556W        W19609   8.973  29.846   8.951 -0.0989  0.3334 -0.0448
76557W        W19610   2.317  20.993   0.377  0.0944  0.0349  0.1729
76558W        W19611  24.096  18.573  18.916  0.0609 -0.3708 -0.0355
76559W        W19612  28.386   9.646   1.418  0.1600 -0.1848  0.1566
76560W        W19613  21.510   7.902   8.084 -0.1710  0.2449  0.2177
76561W        W19614  23.135  16.644  18.222  0.1185 -0.1233 -0.2116
76562W        W19615  30.675  13.834  18.992  0.2459  0.0861  0.1279
76563W        W19616  23.853  15.751  24.035 -0.0449 -0.4775  0.0703
76564W        W19617   8.398   7.963  26.207  0.1597 -0.2957  0.1047
76565W        W19618  15.918  31.438   7.935  0.0452 -0.1155 -0.0555
76566W        W19619  18.820   2.111  27.289 -0.0366 -0.0879  0.1434
76567W        W19620  14.140  19.105  26.329  0.1132  0.0336  0.1132
76568W        W19621  29.298  16.850   9.753  0.1203  0.0214  0.0218
76569W        W19622  34.427  33.088  20.148  0.0884 -0.0858 -0.3379
76570W        W19623  18.963  29.403   7.473 -0.1716  0.0136 -0.0072
76571W        W19624  19.579  29.231  24.603  0.0070  0.1946  0.1512
76572W        W19625  19.138   7.152  23.552 -0.3911 -0.2613  0.1623
76573W        W19626  32.553  32.023   6.130  0.0343 -0.0448  0.1126
76574W        W19627  23.581   6.765  20.690  0.0197  0.2155  0.1214
76575W        W19628  30.648  34.441  22.530 -0.1338  0.0340  0.1389
76576W        W19629  19.704  19.613  25.719 -0.4465 -0.0348  0.3500
76577W        W19630  18.790  33.274  27.100 -0.1214  0.0570  0.2625
76578W        W19631  25.743   5.746  23.523  0.5062 -0.2428  0.4065
76579W        W19632   8.854   1.210  27.160  0.0455  0.1907  0.0773
76580W        W19633  32.192  20.611   6.574 -0.1993 -0.3657 -0.1487
76581W        W19634  26.261   9.351  25.261 -0.0681 -0.0569 -0.2786
76582W        W19635  17.622  15.449  10.173 -0.3302 -0.2169 -0.1917
76583W        W19636  27.433  29.622  15.039 -0.2166 -0.1892 -0.4216
76584W        W19637  29.469  19.536  21.612 -0.1477 -0.0692  0.1945
76585W        W19638  19.253  29.064  26.133 -0.1416 -0.2948  0.0460
76586W        W19639  25.253   7.420   2.510 -0.1752 -0.2085 -0.0437
76587W        W19640  11.059  19.785   1.967  0.2206 -0.0159 -0.1807
76588W        W19641  18.056   6.507  21.572 -0.0239 -0.0913 -0.1347
76589W        W19642  18.898  32.842   6.396 -0.2678  0.1683  0.0115
76590W        W19643  26.773  23.793  18.848 -0.3256  0.1131 -0.0619
76591W        W19644  16.408   7.778   7.463  0.0829 -0.0140  0.1090
76592W        W19645  11.011  11.878  21.577 -0.1941  0.1671 -0.2516
76593W        W19646   7.132  13.042   3.361 -0.2808 -0.1754 -0.4316
76594W        W19647   7.528  33.948   3.723  0.2037  0.0331  0.3222
76595W        W19648  11.583  10.707   4.250  0.0555  0.2217 -0.2221
76596W        W19649  10.573  33.507  21.223 -0.2333  0.1888  0.1767
76597W        W19650  21.963  25.651  20.128  0.1914  0.0328  0.2073
76598W        W19651   9.133  21.564   0.850 -0.1473 -0.0221  0.0934
76599W        W19652   2.827  21.647  25.578  0.2122 -0.1978 -0.4157
76600W        W19653  19.995  28.139   9.853  0.1780 -0.1943  0.0483
76601W        W19654  13.701  33.901   3.641  0.1753  0.2639 -0.2315
76602W        W19655  26.323  25.429   5.661  0.0695 -0.3101  0.0272
76603W        W19656   8.339  24.886   6.584  0.2033  0.1105  0.0898
76604W        W19657  18.412  14.693  25.816  0.1159 -0.1589 -0.1958
76605W        W19658  20.214  20.619   6.028  0.1831  0.1981 -0.2264
76606W        W19659  28.487  15.801   9.368  0.0641 -0.3594 -0.0958
76607W        W19660   2.931  17.484  22.299 -0.0440 -0.1696  0.0953
76608W        W19661  18.191  24.106   1.849 -0.1628  0.2713  0.1803
76609W        W19662   5.018   5.438   6.535  0.0237 -0.0129  0.1619
76610W        W19663  24.707  24.833  26.400 -0.0774  0.0200 -0.0270
76611W        W19664  24.238  30.081   7.018 -0.3123  0.2595  0.1510
76612W        W19665   6.906  27.521   7.227 -0.0227 -0.0052  0.1394
76613W        W19666  27.336  28.313  24.968  0.0855  0.1080 -0.0434
76614W        W19667   9.268  23.828  23.572 -0.1282 -0.2031  0.0585
76615W        W19668  20.416   9.170   4.295 -0.0720  0.0810 -0.0673
76616W        W19669  28.812  26.762   6.366 -0.1744  0.1151  0.0971
76617W        W19670  23.073  20.696  26.772  0.3610 -0.1298  0.2888
76618W        W19671  14.923   2.930  16.693 -0.1206  0.1328 -0.0162
76619W        W19672  22.107   3.438   3.830  0.2232  0.3527 -0.0147
76620W        W19673   1.679  29.575  26.869 -0.1876 -0.0297  0.1579
76621W        W19674  14.135  14.429  23.059 -0.1172  0.0906 -0.1593
76622W        W19675   6.052  10.089  25.152 -0.0773  0.1135 -0.0602
76623W        W19676  16.700  17.588   8.088 -0.0279  0.1967 -0.0761
76624W        W19677  11.052  21.863  13.412 -0.3393  0.1320 -0.0152
76625W        W19678   5.790  15.449  16.304  0.6238  0.1363  0.0830
76626W        W19679  20.702  29.858   6.647  0.0818 -0.0415 -0.2770
76627W        W19680   8.182  22.051   6.366 -0.1182  0.1542  0.0572
76628W        W19681  20.501  32.029  23.542  0.3980 -0.0445 -0.1236
76629W        W19682  19.582  14.555  25.594 -0.0395  0.0228 -0.2507
76630W        W19683  18.799  21.445   0.043  0.1247  0.2322 -0.3714
76631W        W19684  26.941  21.167   8.726  0.2680 -0.0734  0.1172
76632W        W19685  16.461  26.910  20.327  0.1617 -0.0691 -0.1909
76633W        W19686  11.291  16.975  28.323 -0.2575  0.2348 -0.0114
76634W        W19687  11.019  24.039  13.005  0.1763  0.3642  0.0112
76635W        W19688  34.295  14.957  27.289  0.1624  0.0203 -0.2532
76636W        W19689   8.753   5.782   4.634 -0.1487 -0.0481  0.1030
76637W        W19690  28.934  13.571  26.493 -0.1388 -0.0753 -0.3918
76638W        W19691  14.518  27.864   8.067  0.0962  0.2196 -0.1550
76639W        W19692  26.416  33.889   1.887 -0.0994  0.1700 -0.0595
76640W        W19693  15.377  19.469   4.852 -0.3332 -0.0650 -0.1955
76641W        W19694  24.553  13.318   2.329  0.1455 -0.0666  0.0182
76642W        W19695   0.050  21.006   8.157  0.3114 -0.1957 -0.1667
76643W        W19696  21.853   8.376   4.479  0.2030 -0.5024 -0.0178
76644W        W19697  24.389  17.065   1.189 -0.3068  0.2149 -0.3081
76645W        W19698  32.173  33.360   8.161 -0.1215 -0.1649 -0.1237
76646W        W19699  28.996  15.492  18.218 -0.0683  0.2188  0.3525
76647W        W19700  34.293   8.978   3.119  0.4619 -0.0572 -0.6589
76648W        W19701   6.574  13.479   6.275 -0.0071  0.2435 -0.0647
76649W        W19702   5.517   9.064   5.596  0.0818 -0.0353  0.4534
76650W        W19703  26.042  31.098   6.380  0.3738  0.2135 -0.0006
76651W        W19704  30.719  34.229   0.818  0.3792 -0.0652 -0.0904
76652W        W19705  18.240  10.359   1.418  0.3604  0.0146 -0.0803
76653W        W19706  11.818  21.743   0.714 -0.2842  0.3335  0.0412
76654W        W19707  12.204  15.204  26.268 -0.1379  0.4416 -0.0512
76655W        W19708  20.306   1.158  23.469 -0.0528  0.1585 -0.0613
76656W        W19709  20.319  31.683   7.338  0.0211 -0.1439 -0.0652
76657W        W19710  13.469  27.134  21.759 -0.0190 -0.1408  0.0602
76658W        W19711  22.020   4.237  21.970  0.0750  0.1950  0.1767
76659W        W19712  23.005  30.460   2.297 -0.2210  0.2016 -0.0393
76660W        W19713  13.589  14.760   6.000  0.0240 -0.1311 -0.1749
76661W        W19714  16.595  32.886   7.072 -0.0273 -0.0347 -0.1571
76662W        W19715  16.045  11.279   9.570 -0.2507  0.1151 -0.2527
76663W        W19716  22.319  16.072  23.321 -0.0314 -0.0989 -0.1009
76664W        W19717   9.213  15.786   8.913  0.0084  0.2544 -0.0836
76665W        W19718  17.708  20.554  13.346  0.1163  0.0348 -0.1405
76666W        W19719  21.825  33.371   1.365 -0.1020  0.1174 -0.2773
76667W        W19720  14.271  28.543   3.841 -0.2037 -0.0247 -0.2947
76668W        W19721  18.619  23.972  27.867 -0.0093  0.0096 -0.0715
76669W        W19722  17.576  11.907  19.983 -0.0578  0.2666 -0.1321
76670W        W19723  14.315  15.086  16.984 -0.0919  0.0333 -0.0611
76671W        W19724   6.706  32.000  23.033 -0.2381  0.1717  0.2841
76672W        W19725  24.718  34.091  28.558 -0.1028  0.0513 -0.3721
76673W        W19726  13.678  17.982  14.209  0.1342  0.0032  0.0720
76674W        W19727  17.150  21.354  22.666 -0.0347 -0.0378  0.2597
76675W        W19728  14.793  23.327  28.988 -0.1823 -0.0272 -0.4206
76676W        W19729   2.008  26.511  21.934 -0.1105  0.0962  0.0940
76677W        W19730   7.833  26.629  22.273  0.2078 -0.3120 -0.2298
76678W        W19731   8.288  24.808   9.041  0.0416  0.2924  0.2686
76679W        W19732  17.027  11.368  17.616 -0.3317  0.1187  0.1291
76680W        W19733  25.740   7.433  15.455 -0.0748 -0.3444 -0.0178
76681W        W19734  22.206  28.583  19.387 -0.4115 -0.0944 -0.2970
76682W        W19735  13.999  10.175   8.288 -0.1059 -0.3884 -0.2234
76683W        W19736  31.648  20.745  19.132 -0.0716  0.1708 -0.2175
76684W        W19737  23.032   9.225  29.139 -0.0966  0.1987 -0.1247
76685W        W19738  19.829  30.118   3.647 -0.1898  0.2281 -0.0054
76686W        W19739  16.181   8.916   6.233 -0.1441  0.2214 -0.0216
76687W        W19740   7.594  21.455   0.266 -0.2869 -0.0221  0.1741
76688W        W19741   7.617  26.418  25.699  0.4088  0.5119 -0.1019
76689W        W19742  29.721  19.103  27.247  0.0049 -0.1588  0.1807
76690W        W19743  11.514  33.711  23.530  0.3324 -0.2693  0.3132
76691W        W19744   1.175  23.611  26.904 -0.1451 -0.2548  0.0383
76692W        W19745  15.068  18.220  21.600 -0.1369 -0.3854 -0.0223
76693W        W19746  29.766  32.446  24.782  0.0954 -0.1465  0.3458
76694W        W19747  21.211  27.729  27.213 -0.0961 -0.2665 -0.0950
76695W        W19748  23.128   8.127  27.420 -0.1329  0.2365  0.1144
76696W        W19749  31.633  23.924   5.235 -0.0306 -0.2346 -0.0874
76697W        W19750  26.973  21.680   4.451 -0.3367 -0.1358  0.2375
76698W        W19751  13.627  15.048  24.318  0.1705  0.0092  0.2553
76699W        W19752  31.229  25.578   5.291 -0.0375  0.0636 -0.1357
76700W        W19753  16.141  18.189   3.746  0.1488  0.0424  0.2889
76701W        W19754   7.360  15.104  15.064  0.1506  0.2676 -0.0726
76702W        W19755  21.637  32.028  27.302  0.4072 -0.0933  0.0382
76703W        W19756  19.305  16.765   3.805  0.1435  0.2391 -0.0960
76704W        W19757  22.282  26.693  19.982 -0.2024 -0.1295 -0.0748
76705W        W19758  15.573  20.623   4.307  0.2569  0.0318 -0.4118
76706W        W19759  10.809  16.419   3.068 -0.0130  0.1803  0.1834
76707W        W19760  29.287  18.856  25.314  0.2086  0.3397  0.1837
76708W        W19761  12.706  10.875   2.008  0.0060  0.1779  0.1684
76709W        W19762  13.855  13.194  13.828 -0.0785  0.3183 -0.1677
76710W        W19763  12.232  10.498  17.922 -0.1197  0.2891 -0.3184
76711W        W19764  19.322  27.208  28.726  0.3105 -0.0568  0.1078
76712W        W19765   8.512  17.805   4.159 -0.3478 -0.0138 -0.0211
76713W        W19766  20.583  20.647   4.100 -0.2071 -0.2146  0.1986
76714W        W19767  12.709  25.886   3.866 -0.0465 -0.0621  0.0376
76715W        W19768  27.923  12.433   7.396 -0.1326  0.1506 -0.2479
76716W        W19769  22.134  17.940  18.430 -0.0006 -0.0408  0.1852
76717W        W19770  17.564  15.248  28.974 -0.2068  0.0328  0.2872
76718W        W19771   9.147  29.748  18.415 -0.1358  0.1669 -0.1546
76719W        W19772  27.350   1.233  14.303  0.1097  0.2717 -0.1665
76720W        W19773  26.767   7.064   6.436  0.1312  0.1397  0.2241
76721W        W19774   7.185  32.855   2.033 -0.0577  0.0144  0.0841
76722W        W19775  21.660  13.870  20.704 -0.0417  0.0885  0.0622
76723W        W19776  20.637  22.266   2.084  0.0685  0.1119 -0.2359
76724W        W19777  20.443  28.136   3.049 -0.0910  0.0966  0.0604
76725W        W19778   2.770  13.462  22.646  0.0715  0.1638  0.2762
76726W        W19779   6.309  18.827   0.096 -0.0071  0.0439 -0.2295
76727W        W19780  13.178  24.210   9.007  0.0637 -0.0530 -0.0343
76728W        W19781  18.773  33.171  28.735  0.1559  0.2583  0.0466
76729W        W19782   8.051  20.248  23.481  0.1669 -0.4477 -0.1555
76730W        W19783  24.593  20.347  25.480 -0.0363 -0.0744 -0.1102
76731W        W19784   0.853  34.101  25.154  0.2736 -0.0576 -0.0927
76732W        W19785  13.058  21.479   9.610 -0.1316  0.0157  0.0763
76733W        W19786  10.436  22.822  20.107 -0.2900  0.5120  0.0893
76734W        W19787  10.146  26.931   8.842  0.1463  0.1922 -0.2678
76735W        W19788  16.143  29.564  10.585 -0.5976  0.3471  0.4856
76736W        W19789   8.721  15.138   1.562 -0.0178 -0.1035 -0.2526
76737W        W19790  23.166   8.234   0.246  0.1628 -0.2856 -0.0354
76738W        W19791   6.549  17.751  18.181  0.0869 -0.0918 -0.1505
76739W        W19792  26.413  25.053  27.114 -0.2075 -0.1072 -0.1736
76740W        W19793  15.832  25.076  10.116 -0.1211  0.3325 -0.3787
76741W        W19794   0.128  30.992  16.176  0.1842  0.0315 -0.0881
76742W        W19795  24.062  10.863  14.160 -0.0747 -0.0371  0.1704
76743W        W19796  30.211  20.188   8.077 -0.2788 -0.3407 -0.2840
76744W        W19797  25.583  16.413  15.101 -0.2401 -0.1231 -0.0104
76745W        W19798   3.496  25.348  20.708  0.1162 -0.0200 -0.1935
76746W        W19799   3.755  15.602  17.642  0.0141  0.2136 -0.0988
76747W        W19800  20.242  23.955  27.820 -0.3243 -0.1472 -0.3004
76748W        W19801  12.113  22.498  23.667 -0.1844  0.3383  0.0318
76749W        W19802  22.710   8.397   7.663  0.3843 -0.0548  0.0857
76750W        W19803  23.650  24.747   7.119 -0.2478  0.2598 -0.0233
76751W        W19804   5.394  14.199   5.793 -0.0600 -0.1226  0.2444
76752W        W19805   4.226  18.553  28.310  0.0788 -0.2080  0.3094
76753W        W19806   8.910  33.988  19.601  0.0030 -0.1177  0.0822
76754W        W19807  32.861   2.757   2.586 -0.2309 -0.1612  0.1454
76755W        W19808  14.081  24.860   8.525 -0.1986 -0.3032  0.1801
76756W        W19809   1.768  16.923   5.046 -0.2018  0.1322  0.0118
76757W        W19810  12.971  27.694  25.644  0.3185 -0.2019 -0.0812
76758W        W19811  24.370  30.133   7.991 -0.0065  0.2174  0.1678
76759W        W19812  21.416  11.967   1.647  0.1992 -0.1731  0.1991
76760W        W19813  33.758   3.863   6.246  0.1478  0.1293 -0.0214
76761W        W19814  26.510   6.608   6.052  0.0898  0.0971 -0.2128
76762W        W19815  22.011  22.267  17.529 -0.1030 -0.0952  0.1576
76763W        W19816  13.072  20.924   6.246 -0.2392 -0.1903 -0.1143
76764W        W19817  31.753  11.859  16.757 -0.0360 -0.3860 -0.0577
76765W        W19818   3.419   2.434   8.465 -0.5055  0.2087  0.1850
76766W        W19819  20.179   9.426   0.251  0.0431 -0.0523  0.0848
76767W        W19820  22.887  31.910  25.006 -0.0539 -0.1284  0.1452
76768W        W19821   1.232  15.110   8.911  0.2962  0.0621  0.0359
76769W        W19822  18.465  15.584   1.264 -0.2506  0.0544 -0.1575
76770W        W19823  14.406  25.776   7.935  0.3192  0.0674  0.1650
76771W        W19824  15.630   8.254  15.463 -0.0547 -0.1918  0.2642
76772W        W19825  27.077   0.362  20.945 -0.0520 -0.0789 -0.0387
76773W        W19826  22.486  21.894   5.737 -0.0745  0.1239  0.4487
76774W        W19827  22.827   4.362  24.343 -0.2076 -0.2923 -0.1670
76775W        W19828   5.208  13.512  27.684 -0.0509 -0.1344 -0.0278
76776W        W19829   1.684  24.146   9.732 -0.3081 -0.2090 -0.3030
76777W        W19830  20.794   1.454   1.359 -0.0499  0.2064  0.1592
76778W        W19831   2.453  21.380   0.652  0.1854  0.0640 -0.0816
76779W        W19832  14.647  31.449   1.453 -0.2178  0.1632  0.2878
76780W        W19833  19.608  26.689  15.466 -0.0801  0.2183  0.4017
76781W        W19834   9.497   9.258  28.196  0.1973 -0.0380  0.0349
76782W        W19835  15.767  32.561  22.031 -0.2803 -0.0219  0.0206
76783W        W19836   2.854  19.594   9.070  0.3241  0.3820 -0.0971
76784W        W19837   6.121  13.048  27.054  0.0502 -0.0307 -0.0086
76785W        W19838   2.350  11.222  15.046 -0.1976  0.4310 -0.0601
76786W        W19839   3.516  16.498  24.429 -0.2451  0.1729  0.2754
76787W        W19840   5.218  20.746   2.924  0.0015  0.4645  0.1010
76788W        W19841  26.298  16.101  16.190 -0.0352 -0.2010 -0.1391
76789W        W19842  29.319  20.520   6.435  0.2097 -0.0109 -0.1462
76790W        W19843  18.868   1.571  25.130 -0.2569  0.2450 -0.4825
76791W        W19844  29.784  15.254   8.867  0.0299  0.1464 -0.2490
76792W        W19845  28.828  27.023  20.103  0.1949 -0.1011  0.1019
76793W        W19846  20.778  15.907  19.362  0.1384  0.1654 -0.0628
76794W        W19847   4.127  32.183  15.968  0.2054 -0.3633 -0.3743
76795W        W19848  13.852  23.494  25.929 -0.3874  0.2750  0.2766
76796W        W19849  32.698   0.711   7.638 -0.2675  0.0146 -0.0823
76797W        W19850  12.700  20.607   5.889 -0.2240  0.0132  0.3729
76798W        W19851   8.243   9.418   7.542  0.0184  0.2475 -0.3928
76799W        W19852  20.950  32.369   2.969  0.2702 -0.2548 -0.0968
76800W        W19853  28.895   1.535   4.917 -0.3197  0.1480  0.1403
76801W        W19854  21.993  19.870  24.658 -0.0071 -0.0355 -0.0799
76802W        W19855  21.330   7.276  21.897 -0.0544 -0.2355 -0.1781
76803W        W19856  24.622   3.406  23.242 -0.1514 -0.1402 -0.1623
76804W        W19857  21.323  34.273   2.020 -0.0746  0.1301  0.0818
76805W        W19858  12.378  22.941  25.491  0.0436 -0.1014  0.0344
76806W        W19859   2.019  13.882   7.099 -0.1144  0.1754 -0.1578
76807W        W19860  32.774   5.668   3.711 -0.2932 -0.1966 -0.1997
76808W        W19861   5.113  18.656  19.434  0.4230 -0.0797 -0.2157
76809W        W19862  32.329  26.055  25.860  0.0728  0.1275 -0.2113
76810W        W19863  15.420   4.585  20.015  0.1301  0.2888 -0.0178
76811W        W19864  19.107  14.137   0.954  0.0329  0.2175 -0.0319
76812W        W19865  12.781  18.515  20.581 -0.2163  0.3708 -0.0230
76813W        W19866  26.527   4.127   0.090 -0.3537 -0.1347 -0.1106
76814W        W19867  28.543  17.720  24.137 -0.0275  0.0389 -0.0550
76815W        W19868  33.447  21.874  20.049  0.1191 -0.0497  0.3918
76816W        W19869  29.156  33.797  26.595 -0.0312  0.1930 -0.1455
76817W        W19870  16.335   3.136  17.668 -0.0848  0.1547 -0.2298
76818W        W19871  33.452  30.903  15.552  0.3942  0.3750  0.0267
76819W        W19872  15.222  25.981   0.783 -0.1210  0.3276  0.2914
76820W        W19873  22.035  16.090  12.969 -0.0890 -0.1398  0.1165
76821W        W19874  31.070  26.456   5.417  0.1215  0.2837  0.1924
76822W        W19875  23.105  24.991  25.227  0.1698  0.0726 -0.3162
76823W        W19876  18.527  13.451   0.823  0.0023  0.1583  0.0700
76824W        W19877  17.858  27.954  17.680  0.0058 -0.0128 -0.0158
76825W        W19878  24.810   5.056  23.365 -0.1589  0.2185  0.2598
76826W        W19879  23.583  25.905  28.785  0.3645  0.0019  0.0171
76827W        W19880  24.350  26.326   1.845 -0.2161 -0.2760 -0.0660
76828W        W19881  20.343  23.996  19.274  0.0226 -0.0800 -0.0919
76829W        W19882  19.857  17.164  24.327  0.2602 -0.2968  0.2934
76830W        W19883  14.789   5.571  28.410  0.2275 -0.0232  0.1966
76831W        W19884  27.154  14.278  25.251  0.2955 -0.0343  0.1651
76832W        W19885  16.036  21.540   2.733 -0.1162  0.3648 -0.3335
76833W        W19886   8.478  18.764  25.735  0.0926 -0.3177  0.0178
76834W        W19887   5.916   7.582  28.796 -0.0561 -0.0500  0.0690
76835W        W19888  22.045  18.452   8.150 -0.1124 -0.0774 -0.1051
76836W        W19889  16.429  28.831  10.664 -0.0466  0.0443  0.1436
76837W        W19890  21.276  14.935   7.933  0.3548 -0.1127  0.0361
76838W        W19891  11.196  11.636  27.553 -0.1279 -0.2470  0.2360
76839W        W19892  12.849  24.052   1.789  0.3554  0.0204 -0.1444
76840W        W19893  11.092  25.527   3.187  0.0326 -0.3719 -0.2258
76841W        W19894  18.511  24.684   6.973  0.0769 -0.0301 -0.2657
76842W        W19895  25.992  31.084  23.765 -0.0267  0.2340 -0.4905
76843W        W19896  18.006  31.865   7.366  0.0396 -0.2490 -0.1238
76844W        W19897  20.786  13.177  28.529 -0.1174 -0.1800 -0.2062
76845W        W19898  22.720  25.413  19.537 -0.2248  0.1120 -0.1808
76846W        W19899  24.685  15.127  23.052  0.4648 -0.0978  0.3528
76847W        W19900  26.339   0.806   8.503 -0.3468  0.0018 -0.0272
76848W        W19901  19.475  10.625  26.959 -0.0290 -0.0435  0.1101
76849W        W19902  20.472   0.262  24.156  0.0830 -0.0467 -0.0095
76850W        W19903   7.729   5.663   5.612  0.1277 -0.2294  0.2151
76851W        W19904   9.436  26.225  18.962  0.1921 -0.0037  0.0107
76852W        W19905   8.331  20.841  25.992  0.0801 -0.0025  0.1345
76853W        W19906  18.485  13.149  27.759  0.1366  0.1772  0.0270
76854W        W19907   7.424  14.610   2.740  0.3606  0.3653  0.0705
76855W        W19908  18.202  16.551  27.859  0.0694  0.2454 -0.1459
76856W        W19909  22.320  30.725   7.018 -0.1731  0.0935 -0.0803
76857W        W19910  17.573  15.269  22.508 -0.2147  0.2116 -0.2675
76858W        W19911   1.391  31.004  20.270 -0.0407  0.2161  0.1472
76859W        W19912  10.050  20.708   9.967 -0.2372 -0.0021 -0.0059
76860W        W19913  29.113  18.577   6.422  0.2028 -0.0266  0.1921
76861W        W19914   9.591   5.717   5.756  0.2753  0.3307  0.2461
76862W        W19915  10.307  21.680  29.200 -0.1278  0.0009 -0.1848
76863W        W19916  10.682  10.001   2.242 -0.1045  0.0868 -0.0338
76864W        W19917  27.177  21.586  26.408 -0.2276 -0.0203 -0.0219
76865W        W19918   1.464  27.441  17.511  0.0668 -0.2134 -0.2382
76866W        W19919  11.055  24.040   4.623 -0.1037  0.0512  0.0168
76867W        W19920   1.993  15.480  28.413  0.0061 -0.0281  0.1735
76868W        W19921   2.053  12.356  20.452  0.0395  0.1162 -0.1461
76869W        W19922   5.231  20.201   9.242 -0.3414  0.0349 -0.0624
76870W        W19923  11.075   4.537  29.146 -0.1181 -0.1817  0.1882
76871W        W19924   7.474  14.824   4.825 -0.3058 -0.2219  0.1660
76872W        W19925  12.764  17.202   6.208 -0.0376 -0.0484 -0.0469
76873W        W19926  11.301  28.182  18.785 -0.0470  0.1634  0.1042
76874W        W19927   4.240   2.790   0.166 -0.0560 -0.0724  0.0191
76875W        W19928  17.002  20.283  15.890  0.0357  0.1785  0.0847
76876W        W19929  13.158  15.990  24.109  0.1620  0.1663 -0.4037
76877W        W19930  28.787  16.841  23.863 -0.1113  0.1870  0.1749
76878W        W19931  26.311   8.189   7.666  0.2865  0.0827  0.1496
76879W        W19932  10.471  12.730   5.555  0.0126 -0.1632  0.0125
76880W        W19933   5.946  11.960   6.891 -0.0395  0.1767 -0.1352
76881W        W19934  34.659  26.774   3.147 -0.0526  0.0700 -0.1526
76882W        W19935  26.779  23.811   1.222  0.0968  0.1471  0.0969
76883W        W19936  18.035   8.686   9.789  0.3709  0.1727  0.2020
76884W        W19937  26.330  16.899   9.011 -0.4413 -0.0289  0.1632
76885W        W19938  27.222  12.730   4.365 -0.0257 -0.0831  0.3006
76886W        W19939   3.133  14.651   7.970  0.0613 -0.2798  0.1818
76887W        W19940  12.206  25.288  26.907  0.0512 -0.0255  0.0807
76888W        W19941  14.608  23.822   4.141  0.1097  0.0550 -0.1761
76889W        W19942  10.912  21.815  26.105 -0.0962  0.0501  0.1748
76890W        W19943  23.485  14.952   7.857  0.1144  0.1732 -0.1217
76891W        W19944   7.873  16.329   4.143  0.2205  0.0328  0.2709
76892W        W19945  23.855  20.534   1.443  0.1464  0.0682 -0.2218
76893W        W19946  20.036  25.177   3.100 -0.0531  0.1186  0.0589
76894W        W19947  31.664  11.318   8.570  0.0533 -0.1777  0.0442
76895W        W19948   5.061   6.804  22.176  0.2855  0.1944  0.0396
76896W        W19949  13.773  19.220   6.612 -0.2036  0.2126 -0.1037
76897W        W19950   9.534   1.206  20.793  0.3316  0.2517 -0.1266
76898W        W19951  17.629   0.113   2.774  0.1514 -0.2686 -0.0173
76899W        W19952   7.411  30.298  15.528  0.0303  0.3705 -0.2462
76900W        W19953  16.759   1.612  28.019  0.1719  0.2057 -0.0987
76901W        W19954  28.811  23.349  17.787 -0.2635 -0.2551 -0.0070
76902W        W19955   4.724   4.493   1.568 -0.3802  0.2035 -0.1077
76903W        W19956  21.508  26.495  22.418 -0.1164 -0.0082 -0.4154
76904W        W19957  12.290  27.039  17.138  0.1504  0.0518 -0.0722
76905W        W19958   3.987  11.506  27.124 -0.0511 -0.1191 -0.1511
76906W        W19959   9.114  24.659  16.010  0.1278 -0.2297  0.2647
76907W        W19960  11.962  24.097  22.331 -0.0513  0.1349 -0.0648
76908W        W19961  25.395  32.261  17.574  0.1984  0.0254  0.1861
76909W        W19962   9.208  31.905  18.025 -0.0353 -0.2515  0.3408
76910W        W19963  23.373  22.533  23.548  0.0749  0.1377  0.1416
76911W        W19964  18.960  13.118  23.018  0.0770 -0.0856  0.0901
76912W        W19965  25.946  15.667  16.244 -0.2350 -0.4777  0.1083
76913W        W19966  19.453  30.046  20.106  0.1912  0.0877  0.0038
76914W        W19967  16.836  27.422  24.450 -0.2663 -0.1743 -0.0231
76915W        W19968  14.612  25.775  14.976 -0.0290 -0.2380 -0.1512
76916W        W19969  30.606   9.214  16.764 -0.0353 -0.0017  0.1189
76917W        W19970  24.240  21.654  23.528  0.2480 -0.0082  0.0938
76918W        W19971  25.588  31.294  25.300  0.4147 -0.0484 -0.0468
76919W        W19972   3.720  32.951  17.985  0.0483  0.0226  0.1819
76920W        W19973  11.746  33.997  19.786  0.1387  0.1382  0.1003
76921W        W19974  12.525  24.235  16.341  0.2343 -0.2847 -0.3236
76922W        W19975  29.455  24.486  16.179  0.0650  0.2219 -0.2346
76923W        W19976   4.425  22.151   3.584  0.0832 -0.1351 -0.0234
76924W        W19977   6.590  29.273  28.896 -0.1566  0.4615  0.2036
76925W        W19978  22.508  22.084  16.762  0.1706 -0.2452  0.0396
76926W        W19979  26.434  30.653  28.037 -0.0693 -0.2791  0.3943
76927W        W19980   3.169  19.731  25.163 -0.1458 -0.0029 -0.0445
76928W        W19981  21.272  19.080  18.838  0.1373 -0.0027 -0.1257
76929W        W19982  25.812  22.441  13.539  0.3084 -0.0546  0.0778
76930W        W19983  12.104  18.687  18.281 -0.1013 -0.0908  0.3281
76931W        W19984  24.823  21.860  16.727 -0.1010  0.1524  0.2751
76932W        W19985   8.140  33.916   1.493  0.2086  0.1057 -0.0469
76933W        W19986  12.001  14.976  21.792  0.2496 -0.1863 -0.3239
76934W        W19987  12.090  21.030  22.409 -0.0949  0.0201  0.1190
76935W        W19988   8.179  19.441  15.946  0.2459 -0.2367 -0.1861
76936W        W19989  17.376  21.336  21.884  0.0080 -0.0115 -0.1984
76937W        W19990  15.654  21.634  26.893 -0.3944  0.3974 -0.2075
76938W        W19991   2.151  31.030  21.608  0.0575 -0.1033 -0.0510
76939W        W19992  11.705   3.706  19.405 -0.0397  0.0834 -0.1542
76940W        W19993  12.694  16.317  18.728 -0.3035 -0.0258 -0.0035
76941W        W19994   6.948  29.200  27.901  0.0414  0.0354  0.1465
76942W        W19995   1.840  17.676   1.162 -0.2394  0.0071 -0.0476
76943W        W19996  20.934  18.706  16.419 -0.0611 -0.0012 -0.0272
76944W        W19997   7.643   5.164  22.117 -0.1694  0.0433  0.0066
76945W        W19998  31.860  20.527  26.710  0.3109  0.5903 -0.1493
76946W        W19999  26.314  33.878  18.118 -0.0661 -0.1077  0.0092
76947W        W20000  28.001   0.485  14.676  0.1249 -0.0321 -0.2740
76948W        W20001  20.872  30.760  19.264  0.2656  0.0018  0.3075
76949W        W20002  12.108  21.250  17.769  0.0656 -0.1461  0.2181
76950W        W20003  12.156  12.327  19.813 -0.0120 -0.1858  0.0345
76951W        W20004  10.385  16.091  18.889  0.1545  0.0678  0.2301
76952W        W20005  16.952  16.636  14.556 -0.0596 -0.3207 -0.0866
76953W        W20006  10.368  31.542  17.160 -0.1316 -0.1013 -0.1384
76954W        W20007   2.676  12.642  18.728 -0.2747  0.2221 -0.1995
76955W        W20008  15.759  32.714  16.902 -0.2881 -0.0634  0.0333
76956W        W20009   8.988  25.500  24.027 -0.5864  0.2481  0.1864
76957W        W20010  11.377  27.447  15.514  0.3056  0.0128 -0.3964
76958W        W20011   7.945  20.541  25.503 -0.0737  0.2703  0.0679
76959W        W20012  33.638  23.162  19.867 -0.2183  0.3118 -0.3393
76960W        W20013   8.083  21.202  14.558  0.2133 -0.0786  0.0023
76961W        W20014   3.530  15.994  18.427  0.1605  0.1722 -0.1315
76962W        W20015   2.296  23.933  21.630 -0.0606  0.0434 -0.0241
76963W        W20016  26.120  26.861  26.531  0.5397  0.2006  0.3402
76964W        W20017  15.235  15.852  14.373 -0.1275 -0.2104  0.0934
76965W        W20018   0.817  28.979  29.075  0.0398 -0.1965 -0.0695
76966W        W20019  22.462  18.837  21.150 -0.0107 -0.0260  0.0872
76967W        W20020   8.751  19.191  18.082  0.1324  0.0074  0.2093
76968W        W20021   8.546  17.200  18.512 -0.1535 -0.0366 -0.0997
76969W        W20022  13.835  15.767  14.913  0.0700 -0.3259  0.3309
76970W        W20023   4.075   4.516  25.839 -0.0855  0.2990 -0.1767
76971W        W20024  34.145  13.136  21.529 -0.3072  0.2813 -0.3250
76972W        W20025  12.626  26.311  22.059 -0.0675  0.0323  0.0024
76973W        W20026  23.713  17.119  15.931 -0.0848  0.0769  0.0263
76974W        W20027  24.975   7.101  26.475 -0.2060  0.0655 -0.0747
76975W        W20028  18.455  14.324  16.372  0.1496  0.0363 -0.1318
76976W        W20029  26.844   6.580   1.928  0.2077 -0.0658  0.0274
76977W        W20030   2.396  25.619  24.162  0.0905 -0.2112 -0.1989
76978W        W20031   8.568   0.718  19.204  0.1298  0.1974 -0.4191
76979W        W20032   3.751  30.628  16.218  0.3335  0.3416  0.1308
76980W        W20033  12.603  20.148  16.973 -0.1080 -0.1340  0.1784
76981W        W20034  13.645   6.262  25.605 -0.3145 -0.2660 -0.1029
76982W        W20035  28.176  25.609  16.593  0.1420  0.3129  0.5331
76983W        W20036   7.690  15.742  18.618 -0.1005 -0.0259 -0.4194
76984W        W20037   3.896   6.548  24.183 -0.1177 -0.1142  0.1189
76985W        W20038   6.952  11.532  18.765  0.4068 -0.0391  0.0040
76986W        W20039  21.600  21.251  19.130  0.0084 -0.1097  0.2301
76987W        W20040  23.169  27.445  15.571 -0.0297  0.0626  0.0832
76988W        W20041  12.419  11.239  18.812  0.0591  0.2856 -0.5731
76989W        W20042   2.492  19.132  13.858 -0.2629 -0.0626  0.1005
76990W        W20043  26.254  15.389   3.124  0.4201 -0.0339 -0.0489
76991W        W20044  19.715  21.696  20.811 -0.2419  0.0604 -0.0125
76992W        W20045  23.786  11.791  18.330 -0.0594 -0.2807  0.1489
76993W        W20046  12.117  26.528  20.122 -0.0227  0.1328 -0.0989
76994W        W20047   0.551  19.419  14.289 -0.0154 -0.1555 -0.0159
76995W        W20048  22.171  16.973  19.266  0.3733  0.1877 -0.0378
76996W        W20049   2.470  20.473   2.557  0.1257  0.0913  0.0179
76997W        W20050  12.908  27.320  15.504  0.3883  0.2629  0.0555
76998W        W20051  24.629  30.661  23.092  0.0158 -0.0897  0.0144
76999W        W20052  26.346  24.030  18.659  0.1609 -0.3467 -0.2099
77000W        W20053  13.942  13.691   0.803 -0.1333  0.1564  0.0164
77001W        W20054  22.309  14.858  17.877  0.3104 -0.0233  0.4695
77002W        W20055  19.073  22.803  21.942 -0.0393 -0.2289 -0.0350
77003W        W20056  23.988  32.496  14.468  0.2388 -0.0952 -0.1016
77004W        W20057   4.275   6.807  28.863  0.1364 -0.3000 -0.4834
77005W        W20058   2.838  26.985  17.559 -0.1688 -0.2025  0.1637
77006W        W20059  22.610  30.468  21.592 -0.1730 -0.0510 -0.0932
77007W        W20060  13.574   2.423  17.504  0.2242 -0.1268 -0.1258
77008W        W20061   9.957  23.379  14.969 -0.1766  0.0803 -0.1980
77009W        W20062  24.703  13.626  17.332  0.0613  0.1580  0.2837
77010W        W20063  23.878  22.117  19.563  0.3234  0.0209 -0.0975
77011W        W20064  17.502  28.203  21.698  0.1367  0.0221 -0.0184
77012W        W20065  12.155  16.905  15.218 -0.1923 -0.0785  0.1318
77013W        W20066  10.544  22.382   4.572  0.0241 -0.1677 -0.0150
77014W        W20067  33.425  15.728  19.352  0.0448 -0.1580  0.0480
77015W        W20068  24.694  25.070  28.101 -0.1117  0.0550  0.1208
77016W        W20069  17.457   5.919  22.505  0.1336 -0.0836  0.3311
77017W        W20070  27.636  28.617  16.259 -0.1999 -0.0482  0.3086
77018W        W20071  21.544  21.564  21.532  0.0851  0.0281 -0.1072
77019W        W20072  25.279  16.186  19.996  0.0376  0.1972 -0.4653
77020W        W20073   6.746  11.754  25.736  0.0726  0.0837 -0.0986
77021W        W20074  14.040  29.365  26.668 -0.0697  0.3467  0.0468
77022W        W20075  22.656  23.614  21.434  0.0190 -0.2025 -0.1396
77023W        W20076   8.421  24.772  16.588  0.4611  0.0451 -0.3117
77024W        W20077  27.487  26.264   5.386  0.0030  0.1464 -0.0776
77025W        W20078   8.678  18.593   7.552  0.2641 -0.0156  0.1473
77026W        W20079   8.522  28.149  13.198  0.0448  0.1030 -0.0298
77027W        W20080  14.401  31.117  23.597  0.3730 -0.1389  0.0305
77028W        W20081  15.863  31.490  16.386 -0.2881 -0.0721  0.1156
77029W        W20082   2.954  31.086  13.230  0.1709  0.1301  0.3239
77030W        W20083  15.145  26.929  14.670  0.2940  0.0626  0.1485
77031W        W20084   9.166  33.216  23.913 -0.2599 -0.0148  0.1531
77032W        W20085   8.946  14.194  20.192  0.1656  0.2297 -0.0627
77033W        W20086  21.366   2.232  16.536  0.2428  0.0274  0.3198
77034W        W20087   5.789  34.256  20.684 -0.1762 -0.2583  0.0126
77035W        W20088   5.874   1.044  16.379  0.0946  0.1854 -0.2846
77036W        W20089   4.052   3.354  23.903 -0.1356  0.0779 -0.0779
77037W        W20090  21.477  32.499   5.389 -0.1841 -0.0988  0.2521
77038W        W20091   9.179  18.758   1.142  0.0806 -0.1361 -0.1276
77039W        W20092  13.582  27.591  20.243  0.0765  0.0297 -0.0166
77040W        W20093  19.873  25.186  19.259 -0.0007 -0.0244 -0.1042
77041W        W20094  33.676  15.031  21.923  0.0004 -0.0478  0.0351
77042W        W20095  19.966   0.737  21.546  0.0945  0.2695 -0.2333
77043W        W20096  33.965   9.300  21.647  0.0564  0.2375 -0.2111
77044W        W20097  23.184  29.012  28.983  0.0539  0.1875 -0.2638
77045W        W20098  20.444  23.348  21.277  0.2803 -0.1427  0.2368
77046W        W20099   7.536  23.827  22.055  0.0009 -0.1477 -0.0264
77047W        W20100  10.625  17.392  20.601  0.0431  0.0043  0.3207
77048W        W20101  23.700  17.563  21.124  0.0257  0.1572  0.0080
77049W        W20102  15.768  34.486  18.349  0.1013  0.0142 -0.1022
77050W        W20103   8.007  32.945  15.828 -0.0185  0.0260 -0.1668
77051W        W20104  13.968  22.408  27.012  0.0935 -0.3146 -0.1711
77052W        W20105  33.759  16.741  14.087 -0.3009  0.3050 -0.0992
77053W        W20106  19.637   9.800  22.180  0.2321 -0.2627  0.0135
77054W        W20107  27.877  21.852  16.745  0.0740 -0.3395  0.0025
77055W        W20108  22.873   4.347  16.937 -0.1629 -0.0825  0.2088
77056W        W20109  19.296  32.156  17.542  0.0137  0.0087  0.3166
77057W        W20110  18.684  13.096  15.937  0.0818 -0.2444 -0.2150
77058W        W20111   7.954  13.699   5.243  0.1140  0.0174  0.0294
77059W        W20112  10.426   1.289  15.417  0.0755  0.1003  0.0054
77060W        W20113  18.717  18.538   7.881 -0.3972 -0.1697  0.1152
77061W        W20114  24.932   2.608  17.302  0.0203 -0.1035  0.2523
77062W        W20115  23.882  25.317  19.261  0.1299  0.0562  0.2281
77063W        W20116  25.378  24.616  15.929 -0.3144  0.1055 -0.0595
77064W        W20117   6.377  24.014  26.265  0.5123 -0.2934 -0.4107
77065W        W20118   4.579  17.268  19.229  0.4763  0.6133  0.2083
77066W        W20119   9.180  30.811  26.747 -0.0621 -0.2844 -0.0277
77067W        W20120  24.543  28.701  13.597 -0.0270 -0.1466  0.2926
77068W        W20121   7.350  27.257  18.244  0.1973 -0.0821 -0.0616
77069W        W20122  11.649  10.972   6.783 -0.1892  0.1667  0.0376
77070W        W20123  16.483  33.905  20.243  0.1070 -0.1490 -0.2024
77071W        W20124  29.733  24.035  21.322  0.0921  0.3033  0.0439
77072W        W20125   6.908  30.485  24.962 -0.0035 -0.0538 -0.2622
77073W        W20126   4.438  15.172  16.163 -0.2059 -0.3103 -0.0494
77074W        W20127  18.637  18.431  28.695  0.0570  0.0768 -0.1458
77075W        W20128  31.397  30.250  28.779 -0.1737 -0.3310 -0.2126
77076W        W20129  13.494   3.848  17.888  0.1586  0.1309  0.0270
77077W        W20130  22.797  13.153  19.942 -0.0681 -0.3741 -0.2423
77078W        W20131  32.401   1.504  19.320 -0.1618 -0.0834 -0.4294
77079W        W20132  10.468  14.822  24.564  0.2946 -0.5392 -0.0784
77080W        W20133  16.012   5.681  22.616 -0.1782  0.1715 -0.1500
77081W        W20134   4.441  28.343   5.007 -0.2867  0.0158 -0.1155
77082W        W20135   1.265  30.855  23.916 -0.2063  0.1116  0.1705
77083W        W20136  25.888  27.121  15.600  0.2871  0.0492  0.0448
77084W        W20137  34.565  18.678   6.450  0.0842 -0.1603 -0.3556
77085W        W20138  11.347  21.491  22.032 -0.1419 -0.3477 -0.1345
77086W        W20139   3.275  29.976  15.530 -0.0146 -0.2757 -0.2315
77087W        W20140  16.749  27.054  15.932  0.1251 -0.0984 -0.0424
77088W        W20141  20.506   0.467  19.669 -0.1091 -0.0915  0.3582
77089W        W20142  11.445   4.326  25.849 -0.2134 -0.2336 -0.0801
77090W        W20143  18.279  20.969  14.293  0.1426 -0.1277  0.1005
77091W        W20144  16.830  29.015  16.462 -0.0091 -0.0124 -0.2336
77092W        W20145   2.997  32.599  20.292  0.1708  0.2931 -0.0169
77093W        W20146  14.939   6.903  25.641  0.0925  0.1762 -0.1850
77094W        W20147  24.785  14.265  24.240  0.1442 -0.2348  0.1778
77095W        W20148  21.391  24.676  25.619 -0.2323  0.1853  0.0009
77096W        W20149  28.541  26.831   3.625  0.1119 -0.0663  0.2485
77097W        W20150  17.031  24.566  20.698 -0.0456  0.2293 -0.0168
77098W        W20151   5.029  17.794  18.392  0.1659  0.0635 -0.3372
77099W        W20152  10.410   1.654  23.095  0.2242  0.1246 -0.3365
77100W        W20153  14.860  19.232  14.919  0.3880 -0.2199  0.0465
77101W        W20154  21.266   4.925  16.794 -0.3231 -0.0301 -0.3876
77102W        W20155  19.280   0.984  23.949  0.0695 -0.1178 -0.1621
77103W        W20156  26.885  16.342  18.338  0.1583 -0.2037  0.1084
77104W        W20157   2.421   3.787  15.534 -0.4252  0.0282  0.0166
77105W        W20158   2.367  13.550  21.570 -0.3269 -0.1819  0.2016
77106W        W20159  12.457  22.872  21.126  0.2970 -0.1928 -0.1676
77107W        W20160  11.470  30.757  28.339  0.1450 -0.2275  0.0053
77108W        W20161  10.601   2.709   1.916 -0.0161 -0.1312 -0.0524
77109W        W20162  22.446  26.160  28.398 -0.0261 -0.0506 -0.1435
77110W        W20163   7.148  26.227  16.589  0.1561 -0.0218  0.0127
77111W        W20164  33.751  11.455  23.338  0.0159 -0.0820 -0.3156
77112W        W20165  19.585  12.532  19.539  0.2502  0.3309  0.0432
77113W        W20166  18.761  30.412   1.588  0.1293 -0.0396 -0.1317
77114W        W20167  12.560  24.203  17.820 -0.0562  0.2174  0.4071
77115W        W20168  27.029  16.972  23.860 -0.3758  0.0593 -0.0091
77116W        W20169  13.306   3.884  14.976 -0.1347 -0.2415  0.1439
77117W        W20170  32.209  20.800  20.246 -0.0572  0.0125 -0.0273
77118W        W20171  24.442  24.515  22.469 -0.2306 -0.2132 -0.0626
77119W        W20172  26.937  13.302  27.170 -0.0100  0.0954 -0.1215
77120W        W20173  20.278  12.148  15.166 -0.3784  0.0957  0.0172
77121W        W20174  14.039  27.098  20.577 -0.0863  0.2097  0.4779
77122W        W20175  17.800  29.192  20.104  0.2031  0.3662 -0.0249
77123W        W20176  22.284  18.867   7.743 -0.1768 -0.3284  0.1982
77124W        W20177  27.977   9.616  17.865 -0.1679  0.2988  0.0853
77125W        W20178   2.928   3.780   0.092 -0.1936  0.0372  0.0246
77126W        W20179   3.272  28.555   3.253 -0.1624 -0.1677  0.1734
77127W        W20180  16.929  34.585   0.670  0.0727  0.0222  0.1295
77128W        W20181  14.294  16.562  17.714  0.0315  0.3579 -0.0931
77129W        W20182  15.129  22.511  21.619 -0.3344 -0.0826  0.1957
77130W        W20183  19.580  24.933  18.927  0.1494 -0.2426  0.1972
77131W        W20184  21.884  29.495  22.668 -0.0703  0.0502  0.2831
77132W        W20185  27.854  23.493  14.768  0.4143 -0.6629  0.0319
77133W        W20186  20.101  16.684  14.855 -0.1240 -0.1150  0.0949
77134W        W20187  25.747  24.933  19.371 -0.1384 -0.0696 -0.2967
77135W        W20188   5.684  22.212  23.664  0.1211  0.0724 -0.1886
77136W        W20189   7.044   0.946  23.203 -0.0325 -0.2007 -0.0455
77137W        W20190  22.086  22.112  18.625  0.0258 -0.1888 -0.2873
77138W        W20191  26.631  17.446  15.412 -0.0884 -0.2339 -0.1061
77139W        W20192  15.398  23.155  17.323 -0.0890  0.3160 -0.0060
77140W        W20193  14.043  15.477  21.856  0.0367  0.1795 -0.2002
77141W        W20194  11.669  29.491  25.878 -0.3949  0.0680  0.0272
77142W        W20195  27.936  15.566  16.924  0.0541  0.2259  0.1422
77143W        W20196  16.840  16.537  25.205  0.1352 -0.3333  0.0006
77144W        W20197   0.031   9.404  17.083  0.0381 -0.1484  0.0841
77145W        W20198  15.090  25.646  17.081  0.3296 -0.0605 -0.6844
77146W        W20199   9.192   8.513  20.758 -0.2192  0.3270 -0.1566
77147W        W20200  31.674   0.071  15.930  0.0229  0.1152 -0.2960
77148W        W20201   3.050  28.705  16.883  0.1672  0.0456 -0.0934
77149W        W20202  13.258  14.276  17.368 -0.0424 -0.0168 -0.0447
77150W        W20203   4.316  13.188  15.108 -0.0683  0.0488  0.2939
77151W        W20204  10.205  20.840  21.911 -0.0226 -0.2010  0.1312
77152W        W20205  14.528  34.014  22.917  0.0819  0.1501 -0.2694
77153W        W20206  20.037   7.126  23.270  0.1993  0.0107  0.2202
77154W        W20207  26.524  20.918  20.443  0.0126  0.2821  0.0480
77155W        W20208  21.552  26.265  21.776 -0.1623  0.1064  0.0764
77156W        W20209  23.579  17.246  26.075  0.0043 -0.2972  0.1721
77157W        W20210  11.754  28.441   2.594 -0.1595  0.1803  0.1211
77158W        W20211  33.089  26.178  18.919  0.2821  0.0279  0.0077
77159W        W20212  17.367  30.429  17.403 -0.2541 -0.1171 -0.1458
77160W        W20213  23.340  14.057   3.850  0.1239 -0.0875  0.1033
77161W        W20214  11.290  11.716  25.106 -0.0343 -0.3424 -0.3635
77162W        W20215  30.033  21.549  20.404 -0.4957  0.1259 -0.2274
77163W        W20216  26.400  19.731  23.186  0.4786  0.3282 -0.1349
77164W        W20217  33.340   8.367  16.667  0.2732  0.3651 -0.1725
77165W        W20218   1.905  16.657  24.546 -0.1269 -0.4171 -0.2142
77166W        W20219   3.483  22.103  25.172 -0.3754  0.3164 -0.1885
77167W        W20220   7.716   2.687   0.840 -0.3887  0.1164 -0.4782
77168W        W20221  25.088  21.739  25.531  0.1825 -0.1610  0.1645
77169W        W20222   5.828   5.677   1.508  0.0553  0.0096  0.3460
77170W        W20223  14.731  33.456  15.202  0.0074 -0.1152 -0.0571
77171W        W20224  13.952  20.381   7.736  0.0666 -0.0904  0.3406
77172W        W20225   3.629  27.039  24.133 -0.0608  0.0621  0.0382
77173W        W20226  23.325  33.338  19.327  0.0451 -0.2146  0.3170
77174W        W20227  23.554  10.528  22.933 -0.4484  0.3047  0.1181
77175W        W20228  10.645  27.426  17.086  0.0501 -0.0343 -0.1319
77176W        W20229  20.943  24.224  26.043 -0.0657 -0.2802  0.1211
77177W        W20230  24.855  14.061  15.889 -0.1471 -0.1786 -0.0356
77178W        W20231   6.840  29.698  21.099 -0.1204  0.0505 -0.1270
77179W        W20232  10.845  10.809  21.592 -0.0611 -0.2352 -0.2214
77180W        W20233  20.535  18.082  15.238 -0.2176  0.0967 -0.0879
77181W        W20234  31.357  19.322  15.460  0.2531  0.2556 -0.1044
77182W        W20235  13.025  16.344  21.517  0.0250 -0.0239 -0.2149
77183W        W20236  18.813   4.754  16.941  0.1156  0.1153  0.0357
77184W        W20237   6.641  18.376  19.544 -0.0124  0.2998  0.5162
77185W        W20238  26.515  32.003  16.757  0.2096 -0.1587 -0.0379
77186W        W20239  23.787  20.170  15.996  0.2231  0.1140  0.1137
77187W        W20240  14.413  19.610  27.105  0.0178  0.1729  0.0096
77188W        W20241  25.120  34.006  18.022  0.0072 -0.2832  0.2715
77189W        W20242   9.832  10.414  25.353  0.0509  0.0926  0.1016
77190W        W20243  13.971  25.791  16.923 -0.0626  0.1721 -0.1209
77191W        W20244   3.186  19.212  22.620 -0.0967  0.2662  0.1144
77192W        W20245  29.300   2.605  28.587 -0.0275  0.0014 -0.0280
77193W        W20246  12.835  28.523  14.003 -0.0575 -0.1879 -0.2194
77194W        W20247  16.761  34.381   2.854 -0.1815  0.1676 -0.2048
77195W        W20248  15.346  30.796  17.329  0.1135  0.0278  0.0605
77196W        W20249  22.298  19.097   0.576  0.3061 -0.0125 -0.0675
77197W        W20250  11.635   9.972  17.260 -0.1560 -0.3190  0.1989
77198W        W20251  32.289  29.064  15.293  0.0996  0.3224 -0.0413
77199W        W20252  12.406  33.834  18.825  0.3167 -0.1324 -0.1444
77200W        W20253  27.186  32.999  16.700 -0.0662  0.4393  0.0009
77201W        W20254  26.417  29.100  20.628  0.2113  0.1238  0.0205
77202W        W20255  26.637   3.690  15.202  0.4704 -0.1090  0.0542
77203W        W20256  18.442  22.645  22.806 -0.0145  0.1488  0.1596
77204W        W20257  33.285  24.193  13.761  0.0659  0.3176  0.3173
77205W        W20258  31.374  33.511  29.005 -0.1779  0.0343  0.0978
77206W        W20259  14.872  28.353  20.207  0.0144  0.3520  0.0493
77207W        W20260  18.981  26.428  18.559 -0.1680 -0.0697 -0.3941
77208W        W20261  26.159   0.394  21.315  0.4091  0.0481  0.0514
77209W        W20262   3.555  16.689  20.144 -0.0927 -0.0621 -0.2470
77210W        W20263  32.706  32.176  25.336 -0.0473 -0.0192 -0.0055
77211W        W20264  31.197  20.369  16.051  0.1184 -0.1874 -0.1201
77212W        W20265  21.159  22.773   6.543 -0.2228  0.3435 -0.0590
77213W        W20266   9.005  23.897   0.790  0.0764  0.1692 -0.1832
77214W        W20267   4.219  26.355  20.488  0.0030 -0.2521  0.0129
77215W        W20268  28.447   2.593  23.516  0.1416  0.1233 -0.0181
77216W        W20269   9.436  10.356  24.974 -0.0771 -0.0338 -0.0622
77217W        W20270  10.599  12.307  19.120  0.1172  0.1342  0.0221
77218W        W20271   9.683  14.470   0.523 -0.1253  0.2122  0.0012
77219W        W20272   9.731  23.126  21.983 -0.0388 -0.2347  0.1103
77220W        W20273  19.070  30.049  18.673  0.0230 -0.1443  0.2162
77221W        W20274   6.876  25.026  27.487  0.0165 -0.4010 -0.2057
77222W        W20275   7.513  28.045  17.181 -0.2464  0.1668  0.1457
77223W        W20276  18.566  29.219  25.689 -0.0175  0.0938  0.1137
77224W        W20277  17.923  22.845  22.792 -0.2161 -0.1765  0.3160
77225W        W20278  12.558  14.046  20.600 -0.0090 -0.0309 -0.0022
77226W        W20279   0.442  22.460  25.374 -0.1976  0.0638 -0.1968
77227W        W20280  18.193  29.438  21.933  0.0595  0.0028 -0.3219
77228W        W20281   9.421  20.903  22.685  0.1141 -0.2196 -0.0840
77229W        W20282  19.852  26.822   0.884 -0.0639 -0.1168  0.1173
77230W        W20283  10.120  13.141   4.843 -0.0204  0.0153  0.1177
77231W        W20284  13.553  28.755   3.465  0.1187 -0.2613 -0.0687
77232W        W20285  29.727  30.529  15.708  0.4713  0.0914  0.1250
77233W        W20286  12.449  11.664  20.371  0.0874  0.0269 -0.1508
77234W        W20287  33.862  31.362  14.835 -0.3121  0.2012  0.1024
77235W        W20288  16.743   7.810  25.278  0.2977  0.1247  0.1958
77236W        W20289  20.552  30.724  20.461 -0.0514  0.0780  0.2296
77237W        W20290  10.353  24.497   1.091  0.3773  0.1613 -0.0784
77238W        W20291  14.630   9.204  27.155 -0.1020  0.1241  0.2423
77239W        W20292  33.782  14.994  19.802 -0.0863  0.1161 -0.1694
77240W        W20293  24.677  22.638  15.430  0.1185 -0.1059  0.1655
77241W        W20294  10.613  12.411  18.111 -0.2628  0.0190 -0.1561
77242W        W20295  32.870  15.136  20.670  0.1265  0.0844  0.0868
77243W        W20296  15.726  33.855  20.365  0.0842  0.2468 -0.2481
77244W        W20297  12.715  22.618  19.328  0.1644  0.1193  0.2012
77245W        W20298   0.271  11.323  22.561  0.2618  0.0577 -0.0976
77246W        W20299  19.879  22.331  14.015  0.0623 -0.1324  0.4327
77247W        W20300  16.327  24.262   2.691 -0.1209 -0.0203  0.3152
77248W        W20301   1.374   9.404  21.867 -0.2124 -0.0157  0.1195
77249W        W20302  21.379  23.218   2.393 -0.3337  0.0334 -0.0298
77250W        W20303  12.831  31.045  19.442  0.2207 -0.1475 -0.1441
77251W        W20304  13.501   1.752  16.965  0.0337  0.1081 -0.2257
77252W        W20305  26.860  32.960  23.503 -0.1952 -0.0462  0.0590
77253W        W20306  29.964  29.232  14.370  0.3886 -0.0540 -0.0863
77254W        W20307   7.153  32.055  19.682  0.1244  0.2209  0.1866
77255W        W20308  10.672  22.684   8.665 -0.0935  0.0069  0.2699
77256W        W20309  30.813  17.440   2.803  0.2856  0.4044 -0.1249
77257W        W20310  23.057  15.318  14.869 -0.0851  0.1916 -0.5360
77258W        W20311  13.487  31.227  22.356  0.0164 -0.1162 -0.4519
77259W        W20312   5.374  13.889  22.701  0.0869 -0.0854  0.1704
77260W        W20313   2.167  28.575   7.700 -0.0263  0.0088  0.0067
77261W        W20314  27.049   1.224  18.894 -0.0849  0.2886 -0.2013
77262W        W20315   6.879  14.466  20.981 -0.0074 -0.1257 -0.0162
77263W        W20316  17.903  23.727   3.883  0.0777  0.0645  0.1029
77264W        W20317  30.176   0.264  14.107 -0.4392 -0.3382  0.0716
77265W        W20318   9.932  11.489  22.354  0.2489 -0.1082  0.5223
77266W        W20319  16.925  29.997  15.291 -0.1184 -0.0297  0.2740
77267W        W20320  15.139  23.913  20.251 -0.0696  0.3448 -0.0464
77268W        W20321  34.679  22.992  20.403  0.0184  0.6949  0.1221
77269W        W20322  11.969  30.058  26.293  0.0239  0.2256 -0.0399
77270W        W20323   6.960  26.999  21.946 -0.0968 -0.0056  0.2415
77271W        W20324  25.212   0.204   2.872  0.0546 -0.2411 -0.0326
77272W        W20325  16.718  11.920  19.493  0.3526  0.1311  0.2641
77273W        W20326   7.040   8.508  14.665 -0.1200  0.2057 -0.1640
77274W        W20327  27.553  24.335  18.491 -0.1279  0.1351  0.1326
77275W        W20328  22.874  20.764  14.642  0.0069  0.3711  0.1997
77276W        W20329   7.972  20.028  13.644 -0.3856 -0.0006 -0.0991
77277W        W20330  17.225  24.399  18.555  0.5729 -0.2099 -0.1847
77278W        W20331   6.284  22.219  19.743 -0.3394 -0.4396 -0.0952
77279W        W20332  31.972  18.240  17.428  0.0642 -0.0615 -0.0760
77280W        W20333  22.118  17.522  18.751 -0.4323  0.0744  0.2813
77281W        W20334  26.131  15.441  13.583 -0.0554  0.0204 -0.2095
77282W        W20335  32.708  17.529  18.537  0.2092  0.1273 -0.2395
77283W        W20336  29.378   1.988  15.322  0.3153 -0.2848  0.1563
77284W        W20337  34.021  31.312  20.696  0.0447  0.0761 -0.3317
77285W        W20338  26.787  27.803  10.360  0.3840 -0.3106  0.0682
77286W        W20339  27.572  20.510  25.712 -0.2188 -0.4084  0.1150
77287W        W20340  15.665  34.101  22.291  0.1439  0.1021 -0.1460
77288W        W20341  26.539  20.379  23.960 -0.3536 -0.2114  0.1279
77289W        W20342   2.421  29.218  21.871  0.2149 -0.0612 -0.0062
77290W        W20343   9.714  19.817  20.698  0.3691 -0.1469  0.2146
77291W        W20344  15.350  20.617  14.147  0.2602  0.0047  0.2959
77292W        W20345  13.677   3.246  20.781 -0.0441 -0.2312  0.4631
77293W        W20346  33.435  14.257   0.707 -0.3836 -0.0502  0.0539
77294W        W20347  33.014  13.090  21.478  0.0676  0.2037 -0.0798
77295W        W20348  13.536   2.921  19.526 -0.1941  0.0334  0.0394
77296W        W20349  18.063  34.139  18.860 -0.5641 -0.1684 -0.0729
77297W        W20350  15.961   7.337  20.077 -0.2327 -0.2312  0.0296
77298W        W20351  28.958  19.038   6.811  0.1151  0.2131  0.0915
77299W        W20352  17.136  14.542  15.593  0.2844 -0.0957 -0.1258
77300W        W20353  22.069  23.393  21.523  0.2945  0.0387  0.2186
77301W        W20354  34.198   4.009   1.917  0.0174 -0.0252  0.0332
77302W        W20355  15.061  21.584  17.817 -0.0668 -0.0585 -0.1936
77303W        W20356  23.202  30.988   5.990  0.2370 -0.3190 -0.1108
77304W        W20357   8.383  32.009  24.166 -0.1517  0.0375 -0.1733
77305W        W20358  33.192  13.390  17.470 -0.3084  0.3265  0.0711
77306W        W20359  14.223  32.931  17.603  0.0550  0.1982  0.1944
77307W        W20360  10.366  22.947  22.151  0.2207 -0.2684  0.1614
77308W        W20361  24.456  26.454  28.445  0.2677 -0.2185  0.0555
77309W        W20362   2.600  26.375  16.937  0.2568  0.1239 -0.1629
77310W        W20363  23.004   3.954   8.400 -0.0463  0.0886 -0.2204
77311W        W20364  25.502  21.145  22.821  0.1799 -0.1492  0.1404
77312W        W20365   5.998  13.919  20.443 -0.0118 -0.1309  0.2695
77313W        W20366   0.906  33.898  20.531 -0.3303 -0.0772 -0.0178
77314W        W20367   8.698  25.385  27.429 -0.0133 -0.0358  0.1353
77315W        W20368  10.803  23.871  18.500 -0.1597  0.5208  0.0762
77316W        W20369  28.487   6.708  22.807  0.0095 -0.1096  0.0968
77317W        W20370  27.614  28.108  20.807 -0.1667 -0.0252  0.4850
77318W        W20371  23.032  32.870  15.979 -0.1871  0.3223 -0.1758
77319W        W20372   3.415  21.190  18.064 -0.1916 -0.2468  0.1015
77320W        W20373  14.565  26.517  17.137  0.1043 -0.0116 -0.0987
77321W        W20374  18.079  26.435  21.732 -0.2455  0.1228 -0.1307
77322W        W20375  25.808  24.075   2.539 -0.3318 -0.0136  0.4281
77323W        W20376  27.710  26.459  19.127  0.0179  0.3910  0.2155
77324W        W20377  13.245   9.179  19.472 -0.2717 -0.1572  0.1128
77325W        W20378  23.587   1.733  28.112  0.0975  0.0532 -0.3188
77326W        W20379  10.576   9.855  23.129 -0.0075  0.1790  0.3336
77327W        W20380  22.914  22.569  17.573 -0.0755 -0.1150  0.1327
77328W        W20381  29.374  33.001  17.264  0.1899  0.1243  0.0022
77329W        W20382  30.872  23.136  25.138 -0.0732  0.0698  0.0300
77330W        W20383   0.900  27.440  16.701  0.1226  0.0069 -0.0388
77331W        W20384   4.525  13.810  22.021  0.0789  0.0932  0.1157
77332W        W20385  27.992  29.014  28.048  0.0912 -0.3284  0.3116
77333W        W20386  19.378  26.764  18.379  0.0917 -0.2622  0.0029
77334W        W20387  34.383   6.815  14.540 -0.0114  0.0364 -0.0004
77335W        W20388  14.176   5.904  22.416  0.0782  0.0870  0.2837
77336W        W20389   7.148  21.536  17.916 -0.0856  0.0344 -0.1704
77337W        W20390  29.975  18.761  22.370  0.0380  0.0772  0.1715
77338W        W20391  23.076  27.020  26.639  0.0128 -0.1578 -0.0707
77339W        W20392   2.212  17.743   0.132  0.2302 -0.0028  0.0716
77340W        W20393   2.423  24.227  25.672 -0.2535 -0.0198  0.0996
77341W        W20394  19.389  33.589  26.095 -0.0273  0.0285  0.0621
77342W        W20395  11.180  13.141  18.455  0.2357 -0.0759 -0.0970
77343W        W20396  16.746  28.866  14.683 -0.2479 -0.1669  0.0885
77344W        W20397  33.951   5.834  19.353 -0.0291  0.1654 -0.1757
77345W        W20398   8.193   2.150   2.721  0.1611 -0.0115  0.0460
77346W        W20399  24.049  22.581  26.788 -0.0380 -0.0166 -0.2348
77347W        W20400  28.113  27.392  15.763 -0.2122 -0.3354  0.1760
77348W        W20401  34.357   6.969  25.454 -0.2147 -0.2973 -0.0128
77349W        W20402   3.780   1.841   0.289 -0.1364  0.2377 -0.1203
77350W        W20403   2.195  22.168  14.675  0.1481  0.1048 -0.1371
77351W        W20404   3.869   8.485  16.592  0.0779 -0.2106 -0.0632
77352W        W20405  10.425  20.460  17.306 -0.0645  0.0855 -0.2455
77353W        W20406  16.383  18.715   2.802 -0.0996  0.3143  0.0427
77354W        W20407  16.249   0.538  23.548  0.0217 -0.1431  0.2380
77355W        W20408  19.962  12.748  23.630  0.2356  0.1599  0.0511
77356W        W20409  24.076  17.523  25.726  0.0278  0.0264 -0.1236
77357W        W20410  16.154  32.804  16.123  0.0924  0.0676 -0.3024
77358W        W20411  11.710  30.932  20.074 -0.0693 -0.0847 -0.0568
77359W        W20412  27.988  22.676  14.013  0.3441 -0.0263  0.0696
77360W        W20413   4.141  15.724  15.124 -0.1879 -0.0429 -0.0385
77361W        W20414  30.198  14.236   6.025  0.2804 -0.0718  0.0472
77362W        W20415   4.122  11.394  25.562  0.2430 -0.1678  0.0157
77363W        W20416  18.811   7.214   0.596 -0.1071 -0.1362  0.0730
77364W        W20417   1.473  30.203  13.432 -0.1123  0.3481  0.0988
77365W        W20418  33.973  10.403  28.756 -0.0148  0.0266 -0.0475
77366W        W20419  29.707  20.445  16.588 -0.2740 -0.1240  0.0217
77367W        W20420  21.077  30.866  28.639 -0.3164 -0.1944  0.0938
77368W        W20421  16.974  30.145   2.399  0.2618  0.1062 -0.1083
77369W        W20422  13.222  14.976  17.908 -0.1196 -0.0898 -0.2240
77370W        W20423  22.603  15.754  15.486  0.0918 -0.1148  0.1171
77371W        W20424  12.456  13.714  19.616  0.1965  0.2088  0.1789
77372W        W20425  27.393  22.570  21.541 -0.2675  0.2565  0.1613
77373W        W20426  15.380   7.421  29.124 -0.0137 -0.1724 -0.0349
77374W        W20427  30.235  10.812   4.010 -0.0906 -0.0128  0.0355
77375W        W20428  25.865  21.181   1.760  0.3444  0.1083  0.0497
77376W        W20429  32.230  15.614  15.478 -0.1459 -0.1969 -0.2369
77377W        W20430  15.023  33.135  16.286 -0.1119 -0.0077 -0.0153
77378W        W20431  22.641  16.306  24.491 -0.0025  0.2632 -0.0347
77379W        W20432  25.395  31.938  26.386 -0.0012 -0.1169  0.7439
77380W        W20433  13.849   3.479  18.009  0.4666  0.1808 -0.0535
77381W        W20434   2.365  22.628  14.495  0.0566  0.2296 -0.1620
77382W        W20435  23.584  18.998  19.635 -0.1953 -0.0008 -0.2770
77383W        W20436   9.628  20.253  28.207  0.2166 -0.1329 -0.1799
77384W        W20437   8.887  24.453  20.988 -0.1946 -0.0423 -0.4538
77385W        W20438  12.651  18.857  23.961  0.1872  0.2490  0.1429
77386W        W20439  16.192  23.005  18.652  0.2700  0.2140 -0.4025
77387W        W20440   2.560  28.112   7.642  0.2667  0.2145  0.0048
77388W        W20441   2.318  25.496  18.330 -0.2216  0.0503  0.2549
77389W        W20442  11.904  22.422  17.327 -0.2164  0.0123  0.1120
77390W        W20443   6.900  25.688  28.172 -0.0252 -0.4522 -0.3651
77391W        W20444  33.083   3.249  23.216 -0.0937 -0.0051 -0.2944
77392W        W20445  18.410  26.960  22.672 -0.3375 -0.0079 -0.1833
77393W        W20446   5.475  22.296  15.801  0.3275  0.1147 -0.3819
77394W        W20447   7.684  20.515  17.749 -0.1844 -0.0774  0.3949
77395W        W20448  25.028   6.828  23.591 -0.0364  0.4127  0.1767
77396W        W20449   9.775  33.638  18.080  0.0778 -0.2685 -0.2947
77397W        W20450   1.824   5.329  19.021 -0.2993  0.2150 -0.0381
77398W        W20451  19.353  22.481  21.266 -0.0190  0.0141 -0.2024
77399W        W20452  18.860  32.620  28.873  0.1090  0.2712  0.3077
77400W        W20453   8.910  22.633  26.260  0.2235  0.0967  0.0740
77401W        W20454  30.095  17.286   1.551 -0.0004  0.2298 -0.2706
77402W        W20455   4.535  21.195   7.337 -0.1013 -0.0426 -0.2016
77403W        W20456  10.256  16.859  24.579 -0.4797  0.2631  0.1542
77404W        W20457  17.222  19.857  28.917  0.0054  0.3203  0.0564
77405W        W20458   4.360  26.631  21.558  0.2243 -0.2824  0.0201
77406W        W20459  20.886  17.348  14.887 -0.2346 -0.0468 -0.1564
77407W        W20460  20.644  22.669  18.239 -0.0905 -0.1504  0.0676
77408W        W20461  25.715  24.230  15.025  0.1057  0.0038  0.1215
77409W        W20462  14.689  28.308  18.756 -0.1593 -0.0566 -0.0383
77410W        W20463  11.780  27.464  23.629 -0.0521  0.2412  0.0116
77411W        W20464  33.107  19.717  18.548 -0.1664 -0.2747 -0.0154
77412W        W20465  21.614   2.314  21.120 -0.0717  0.2987  0.0664
77413W        W20466   6.602  21.203   2.928 -0.1020 -0.1957 -0.0828
77414W        W20467  24.363  32.804  14.116  0.2893  0.1338  0.0071
77415W        W20468  15.777   9.990  17.202  0.0785 -0.2238 -0.0184
77416W        W20469  25.560  13.768  25.302  0.2207 -0.1592 -0.1239
77417W        W20470  10.455  25.889  25.488  0.0853 -0.1819 -0.3128
77418W        W20471   5.190   4.826  17.644 -0.1879  0.0839 -0.3418
77419W        W20472  20.649  18.481  24.006 -0.0077  0.0699  0.1019
77420W        W20473   8.828  23.139  19.766  0.0020 -0.2253  0.2810
77421W        W20474  17.024  32.335  25.782 -0.1129 -0.0628  0.3775
77422W        W20475  11.129  27.109  23.924 -0.0999 -0.6551  0.2196
77423W        W20476   9.456  24.482  13.409 -0.2206  0.1300 -0.3342
77424W        W20477  16.712   5.113  18.721 -0.1747 -0.0296  0.1118
77425W        W20478  16.511  34.151  14.481  0.1378  0.1012 -0.0557
77426W        W20479  12.639  14.160  21.387  0.2108  0.0701  0.0965
77427W        W20480   2.059   3.736  24.034  0.0293 -0.0713  0.0009
77428W        W20481  13.133  22.994   3.466  0.0783  0.0260  0.2353
77429W        W20482  14.019  21.112  15.667 -0.2486 -0.1055  0.1479
77430W        W20483   9.590  25.671  14.055  0.2192 -0.0619  0.1195
77431W        W20484  15.122  11.333  19.257  0.1439 -0.1219  0.1813
77432W        W20485  19.644  27.281  24.101  0.5411  0.1147 -0.0985
77433W        W20486  22.282  25.635  25.217  0.1520  0.1247  0.0442
77434W        W20487  15.351  22.610  17.186  0.0668  0.0098  0.2999
77435W        W20488  29.837  24.905  13.526  0.0382  0.1392  0.0448
77436W        W20489  20.196  23.494  25.347 -0.1824 -0.0433 -0.2559
77437W        W20490   2.318  11.537  19.848  0.1031  0.2235 -0.2115
77438W        W20491  31.822  14.168  22.944 -0.1218 -0.1669  0.1613
77439W        W20492   4.010  28.376  22.240 -0.2191  0.0534  0.1195
77440W        W20493  17.049  22.603  23.732  0.0058  0.0843 -0.1022
77441W        W20494  15.535  20.248  22.073 -0.0485  0.1988  0.0264
77442W        W20495  19.305  26.646  27.858 -0.4205  0.1637  0.3630
77443W        W20496  12.971  25.952  27.964 -0.1626  0.4925  0.1375
77444W        W20497  21.404   2.642  16.213  0.0050 -0.0978  0.1297
77445W        W20498  20.569   1.400  16.258 -0.0249 -0.0490 -0.0975
77446W        W20499  20.733  15.760  13.424  0.1398  0.1467 -0.0038
77447W        W20500  31.195  24.182  24.755 -0.2006  0.0590  0.0925
77448W        W20501  20.579  18.889  14.810  0.1679  0.0720  0.1838
77449W        W20502  24.872  18.166  14.909  0.3180  0.2104 -0.0210
77450W        W20503   5.120  10.290  10.391 -0.2672  0.1325 -0.2071
77451W        W20504   5.921  28.576   4.535 -0.1885 -0.1184  0.0494
77452W        W20505   0.471   7.656  16.747 -0.2555 -0.0073 -0.0632
77453W        W20506  19.288  19.164  14.226 -0.0417 -0.4421 -0.0629
77454W        W20507   9.443  15.901  17.947  0.3369  0.1873 -0.2321
77455W        W20508  12.586  21.279  17.844 -0.0510  0.1254 -0.0002
77456W        W20509  18.599  29.325  27.757 -0.1819 -0.0966  0.1765
77457W        W20510  15.542  18.593  26.591 -0.0196 -0.0595  0.2087
77458W        W20511  29.885   2.022  20.889 -0.0029 -0.0309 -0.0572
77459W        W20512   5.854   7.472  28.034 -0.1119  0.1320  0.1909
77460W        W20513  17.728  33.706   2.478 -0.0326 -0.0782  0.1775
77461W        W20514  24.891  21.854  19.696  0.2001 -0.2912 -0.0912
77462W        W20515   0.917  27.426  18.733  0.0290 -0.5324  0.0094
77463W        W20516   3.057   6.174  27.372  0.1696 -0.2433  0.1926
77464W        W20517   3.419   9.961   0.836  0.0673  0.0507  0.4603
77465W        W20518   9.361   9.853  15.443  0.0319  0.0380 -0.1819
77466W        W20519  27.007  28.864  26.402 -0.0097  0.2138 -0.1211
77467W        W20520  11.034  22.550  18.716  0.4007 -0.4094 -0.0009
77468W        W20521  17.130  28.977  16.838  0.1613  0.0427 -0.1633
77469W        W20522  26.945  23.837  14.561  0.0502  0.1535  0.1010
77470W        W20523  13.791  33.107  16.001 -0.1484 -0.1001  0.0797
77471W        W20524   6.635  15.283  26.213 -0.1961  0.2167 -0.0769
77472W        W20525  31.999  34.654  22.042 -0.0611 -0.2034 -0.2043
77473W        W20526   4.870  31.977   3.452 -0.2937 -0.1085  0.1848
77474W        W20527  28.969  18.529  14.777  0.0208 -0.2597 -0.2710
77475W        W20528  10.413  15.620  16.408 -0.3986  0.0367  0.1877
77476W        W20529  20.801  14.997   8.566  0.3913  0.3551  0.2614
77477W        W20530   4.764   0.396  22.056 -0.0573 -0.4255  0.0790
77478W        W20531  17.686  29.721  24.865  0.0733 -0.1550  0.1606
77479W        W20532   5.601   4.596  18.976  0.1838  0.3380  0.1553
77480W        W20533  18.106  23.124  18.082 -0.2132  0.3253  0.1732
77481W        W20534  16.025  20.163  14.570  0.1131  0.1423 -0.1162
77482W        W20535   8.666  33.964  23.997 -0.1276  0.2005  0.0576
77483W        W20536   7.845   0.144  28.087  0.2333  0.2687 -0.0374
77484W        W20537  29.976  31.154  21.092 -0.1909  0.1755 -0.1117
77485W        W20538   0.537  16.583  19.474  0.1384 -0.1153  0.2556
77486W        W20539  16.640  28.745  23.964 -0.3500 -0.1611  0.2159
77487W        W20540  21.846  15.692   6.494  0.1170 -0.2007 -0.1038
77488W        W20541  15.211  29.211   5.396  0.0338 -0.0366  0.0179
77489W        W20542   7.091  18.660  22.961 -0.0055 -0.1245 -0.1959
77490W        W20543   4.626   4.070  21.986 -0.2382 -0.0896 -0.0146
77491W        W20544  14.368  13.921   6.381 -0.1321 -0.3655 -0.1666
77492W        W20545  24.255   3.009  19.297  0.4181 -0.3104  0.0753
77493W        W20546  18.509  29.609  25.392 -0.1452 -0.0634  0.1172
77494W        W20547  23.692  28.201  22.905 -0.0703  0.0826 -0.2305
77495W        W20548   1.142  14.391  20.508 -0.0127  0.1263 -0.0358
77496W        W20549   8.876  25.771  15.210 -0.2342  0.2756  0.1502
77497W        W20550  24.925  28.743  24.168  0.0396 -0.0370 -0.5733
77498W        W20551  12.863  27.848  14.345  0.1517  0.0561 -0.0034
77499W        W20552  26.799   3.985  16.200 -0.0435  0.1344 -0.1876
77500W        W20553   3.159   8.053  22.326  0.0560  0.2299 -0.1348
77501W        W20554   5.100  11.265  16.992  0.1442 -0.2039 -0.1993
77502W        W20555   7.634   0.568  28.941  0.0267 -0.2280  0.2112
77503W        W20556   9.920  16.136  15.456 -0.3172  0.1663 -0.0132
77504W        W20557   6.295  25.036  25.447 -0.1806  0.2729 -0.1079
77505W        W20558  15.855  12.542   5.274  0.0278  0.0278 -0.2596
77506W        W20559   8.717  23.008  17.601  0.0879 -0.1424 -0.3677
77507W        W20560  13.152   1.107  24.581  0.2126  0.1899 -0.0778
77508W        W20561   2.215  31.768   6.797 -0.5168  0.1322  0.2464
77509W        W20562  19.246  21.670  27.147 -0.0095  0.0185 -0.0062
77510W        W20563   3.291  25.028  24.128  0.2024 -0.0132  0.0905
77511W        W20564  30.647  17.008  16.539 -0.0620 -0.1014 -0.1167
77512W        W20565  15.131  11.955  19.907 -0.1852  0.2777  0.1753
77513W        W20566  12.604  31.754  21.686  0.0871  0.0114  0.3033
77514W        W20567  33.358  18.438  17.105  0.1566  0.3202 -0.0693
77515W        W20568  26.650  17.097  17.946 -0.3008  0.0076  0.1969
77516W        W20569  23.890  16.139  16.853 -0.0820 -0.0631  0.1187
77517W        W20570  24.126  10.878   2.288  0.1100  0.1352  0.0467
77518W        W20571  28.069  25.918  21.633 -0.2920  0.0427 -0.1267
77519W        W20572   4.198  19.653  16.156 -0.2266  0.2785 -0.2803
77520W        W20573   7.573  22.555  28.427  0.1344  0.2359  0.2753
77521W        W20574   9.292  15.316   8.858  0.2017  0.0176  0.1006
77522W        W20575   6.668  11.708  18.394 -0.4206 -0.1149 -0.0036
77523W        W20576   6.853  24.758  26.196 -0.1724  0.2624 -0.0013
77524W        W20577  11.463  22.483  15.120 -0.2786 -0.1646 -0.0293
77525W        W20578   6.345  16.464  23.209  0.1545  0.0408  0.0914
77526W        W20579  16.230  22.737   1.296  0.0877 -0.1807 -0.2153
77527W        W20580   4.638  24.228  13.839 -0.1545  0.1772 -0.0160
77528W        W20581  12.962   4.093   2.607 -0.1594 -0.2940  0.0049
77529W        W20582   1.918  26.355  17.807  0.0975  0.1098 -0.0101
77530W        W20583  13.951  30.600  14.041  0.0635 -0.0263 -0.3059
77531W        W20584  32.777  23.416  23.608 -0.0229 -0.1506  0.0599
77532W        W20585   6.980   9.916  15.197 -0.1715 -0.3460  0.0887
77533W        W20586  29.772  21.186  14.330  0.0589  0.0387 -0.3368
77534W        W20587  14.207   9.048  15.724  0.0591  0.1846  0.0432
77535W        W20588  24.349  29.427  23.226  0.1640 -0.0501  0.1284
77536W        W20589  12.047  24.621  28.378 -0.1653 -0.2248 -0.3608
77537W        W20590  26.704  30.365  26.679 -0.0580 -0.1375 -0.3034
77538W        W20591  33.708   2.667  14.951 -0.2417 -0.0134 -0.1509
77539W        W20592   8.107  20.930  21.987  0.3375  0.3144 -0.0570
77540W        W20593   5.666  14.371  27.025  0.2032  0.0225 -0.0000
77541W        W20594  17.495  18.195   9.321  0.0121  0.0695 -0.2201
77542W        W20595  28.049  21.779  17.503  0.1172 -0.1135  0.1807
77543W        W20596  17.052  25.533  26.636  0.0831 -0.0570 -0.0164
77544W        W20597   0.177   1.993  15.734 -0.2089  0.1324 -0.2083
77545W        W20598  17.779  22.454  19.910  0.1099 -0.3127  0.2924
77546W        W20599   4.777  20.425  23.658 -0.1529 -0.0016  0.1092
77547W        W20600  12.125  22.474  18.606 -0.0848  0.2369 -0.0618
77548W        W20601  13.118  31.577  17.466 -0.3091 -0.0981  0.1564
77549W        W20602  19.824  20.537  15.204 -0.1044  0.0667 -0.0513
77550W        W20603  29.709  14.255  17.558  0.1216  0.0819  0.2795
77551W        W20604   5.910  26.732  15.184 -0.1252 -0.4388  0.2038
77552W        W20605  20.658  18.988  23.482 -0.1305  0.1624  0.2140
77553W        W20606  19.457  27.047  21.063 -0.2164 -0.0235  0.0491
77554W        W20607  16.639  28.637   8.607  0.0621  0.1953  0.0063
77555W        W20608   6.125  24.297  21.042 -0.0857 -0.0939 -0.0255
77556W        W20609  20.287  18.987  15.270  0.0403  0.0938 -0.1139
77557W        W20610  14.112  21.049  23.472  0.4045 -0.3219 -0.0269
77558W        W20611  15.805  17.790   2.893 -0.0367  0.1957 -0.0722
77559W        W20612  22.541  25.902  15.999  0.0058  0.0721  0.0330
77560W        W20613  26.005  27.895  23.901  0.0293  0.1970  0.0792
77561W        W20614  15.516   2.048  21.365  0.2370  0.0718 -0.1199
77562W        W20615  18.021  12.781  16.712  0.4880 -0.2759  0.1198
77563W        W20616  28.765  28.008  21.438 -0.1371  0.1792 -0.0891
77564W        W20617   0.109  11.818  18.070 -0.2744  0.0899  0.0767
77565W        W20618  16.418  33.696  14.926 -0.1584 -0.0096 -0.0978
77566W        W20619   1.462   1.409  15.094  0.0834  0.0928 -0.0863
77567W        W20620  13.422  33.171  26.221 -0.2533  0.2906 -0.1881
77568W        W20621  15.382  26.076  16.875 -0.0512  0.0538 -0.1706
77569W        W20622  31.537  24.120  21.279  0.0622 -0.1243  0.0525
77570W        W20623   7.880  20.679  16.755  0.0078  0.3847 -0.1516
77571W        W20624   5.948  23.872  22.977  0.0985 -0.0939  0.0380
77572W        W20625  10.402  26.600  19.120  0.1156  0.0718 -0.2822
77573W        W20626  31.807  22.034  20.843  0.0976  0.1616 -0.1826
77574W        W20627  30.733  27.132  15.723 -0.0925 -0.0374 -0.0427
77575W        W20628  19.288   0.025  20.160  0.1032 -0.0909  0.0713
77576W        W20629  12.817   8.744  25.991 -0.0755 -0.0283 -0.3593
77577W        W20630  20.591  24.863  24.906 -0.0235  0.2215 -0.2567
77578W        W20631  22.336  21.767  19.458 -0.0817 -0.2087 -0.2080
77579W        W20632   0.475  28.714  24.263  0.0339  0.4336 -0.0273
77580W        W20633  15.335  17.737   1.786 -0.1308 -0.0311 -0.0134
77581W        W20634  22.787  28.290  20.618  0.1907 -0.0378  0.1062
77582W        W20635  30.377  15.284  16.766 -0.2400  0.0435  0.0733
77583W        W20636  10.654  17.842  15.615  0.1013 -0.0172 -0.3380
77584W        W20637  23.622  15.090  20.106  0.2490 -0.2058 -0.0063
77585W        W20638  15.395  32.850  20.501  0.2319  0.0752 -0.1179
77586W        W20639  27.101  25.350  16.029  0.0217 -0.0889 -0.2824
77587W        W20640  12.481   3.648  25.485  0.0149  0.2298  0.0810
77588W        W20641  23.029   1.514   8.739  0.0368  0.2761 -0.0446
77589W        W20642  29.155  30.970  27.216 -0.1615 -0.1912 -0.0436
77590W        W20643   8.028  27.784  28.422  0.1169  0.1473 -0.0282
77591W        W20644  28.317  32.230  17.702 -0.0524 -0.0916  0.0273
77592W        W20645  19.178  29.447  22.623  0.1004 -0.3842  0.0295
77593W        W20646   2.664  15.757  19.670  0.0635  0.1019  0.1791
77594W        W20647  20.060  29.587  15.625 -0.1513 -0.0318 -0.0723
77595W        W20648   7.537  23.815  28.649 -0.2891 -0.0933 -0.1544
77596W        W20649  15.250   9.539  26.692  0.0465  0.1149  0.2246
77597W        W20650  19.730  24.007  20.082 -0.1358  0.0282 -0.1444
77598W        W20651  13.957  19.000  16.160  0.2839  0.1202  0.3734
77599W        W20652  19.476  18.349   1.749  0.0306  0.2862  0.0321
77600W        W20653  17.866  27.792  19.704  0.1524  0.0559 -0.2788
77601W        W20654  13.326  28.459  26.281 -0.0448  0.1381  0.3700
77602W        W20655  28.629  25.943  14.458  0.0327 -0.3962 -0.0060
77603W        W20656  13.425  12.441  17.091 -0.0836  0.2282 -0.1000
77604W        W20657  24.646  25.755  19.149 -0.3719 -0.1840 -0.2305
77605W        W20658  14.284  24.951  17.419  0.2637 -0.2430 -0.1792
77606W        W20659   7.685  21.334   1.248 -0.0226 -0.0629  0.1381
77607W        W20660   5.808  23.602   2.713 -0.4746 -0.1892 -0.0382
77608W        W20661  11.516  34.542  19.624 -0.0261 -0.0577 -0.0054
77609W        W20662  10.837  16.914  14.694  0.2744  0.0513  0.0736
77610W        W20663  34.590  34.079  20.565  0.0634 -0.3482  0.0978
77611W        W20664   0.501  10.878  18.810  0.1751  0.0487  0.0395
77612W        W20665  18.996  16.600   9.081 -0.1560  0.0509 -0.0334
77613W        W20666   9.952  19.037  24.856  0.1511  0.1409  0.0642
77614W        W20667   7.958  33.066  23.788  0.1260  0.0150  0.1536
77615W        W20668   5.535  28.352   6.375  0.0533 -0.0557 -0.0227
77616W        W20669  16.261   0.808  21.973 -0.0227 -0.0419  0.1073
77617W        W20670   9.866  18.209  28.470  0.0943 -0.2078 -0.2344
77618W        W20671  14.918  33.838  22.509  0.0110  0.0332 -0.2149
77619W        W20672  15.168  17.709  26.126 -0.3178  0.4511  0.0850
77620W        W20673  28.311  23.111  14.069  0.1944 -0.2199 -0.0787
77621W        W20674  23.511  23.326   2.872 -0.0094  0.2614 -0.0383
77622W        W20675  30.796   1.714   7.188  0.1999 -0.1581  0.4024
77623W        W20676  27.996  23.198   1.559  0.0425  0.1857 -0.1515
77624W        W20677  11.273  27.730  13.751 -0.1716 -0.2323 -0.1986
77625W        W20678  23.211  27.735  20.129  0.2965 -0.2446  0.0005
77626W        W20679  25.152  30.974  22.739 -0.1965 -0.0477 -0.2925
77627W        W20680  19.186   0.961  21.354  0.1225 -0.1803  0.0067
77628W        W20681  17.655  17.113  26.771  0.2034 -0.1452  0.0342
77629W        W20682  26.715   3.730  18.215  0.2436 -0.3470 -0.0656
77630W        W20683  31.965  24.030   0.847  0.3275  0.1541  0.1353
77631W        W20684  20.002  21.340  23.739 -0.0617 -0.0737  0.4517
77632W        W20685  22.218  28.777  16.260  0.1057  0.2186 -0.1207
77633W        W20686  15.149  24.131  14.767  0.0170  0.1172 -0.0379
77634W        W20687   7.657   4.116  15.748 -0.4991  0.0918  0.0280
77635W        W20688   5.924  29.658  14.743 -0.0664  0.2189 -0.3308
77636W        W20689  12.841   2.896  19.345 -0.2483 -0.4502  0.0269
77637W        W20690   2.889  21.835  18.938 -0.2375 -0.0483 -0.0239
77638W        W20691   0.400  10.037  22.840 -0.2242  0.0364 -0.0235
77639W        W20692  19.965  26.078  26.114  0.0171  0.1487 -0.3513
77640W        W20693  14.733  31.780  17.733 -0.0933  0.1060 -0.1039
77641W        W20694  21.231  25.843  18.566 -0.3896  0.0128  0.0258
77642W        W20695  12.794  31.424  28.254 -0.2801  0.2344  0.1383
77643W        W20696  14.328  34.304  21.592 -0.1084  0.1077 -0.0721
77644W        W20697  12.150  33.362   0.848  0.4317 -0.2490  0.0533
77645W        W20698  25.769  29.151  20.779 -0.0162  0.1140  0.2219
77646W        W20699  12.053  25.813  17.690 -0.1899  0.0020  0.1227
77647W        W20700   4.629  19.394  19.288  0.0220 -0.1540  0.0726
77648W        W20701  14.705  24.522  25.362 -0.2308  0.2225 -0.0209
77649W        W20702  21.293  18.092  21.876  0.0628  0.0095 -0.5757
77650W        W20703   2.443   1.569  17.045  0.1256 -0.1637 -0.1883
77651W        W20704  20.115   0.448  16.859 -0.1050 -0.1781  0.2481
77652W        W20705  24.738   1.266  23.676 -0.0307 -0.1574  0.2749
77653W        W20706   6.775  20.937  18.041 -0.1273  0.0315 -0.0369
77654W        W20707  28.618  29.294  26.815 -0.1673  0.1619 -0.3662
77655W        W20708  11.580  28.444  26.273 -0.4597  0.0493 -0.1263
77656W        W20709   7.188  18.108  25.458  0.2148  0.2111 -0.1425
77657W        W20710  24.361  14.370  17.145  0.2101 -0.0856  0.1098
77658W        W20711   1.530   7.624  20.845 -0.0233 -0.0942 -0.1772
77659W        W20712   1.392  21.427   5.781  0.3053 -0.0266 -0.0259
77660W        W20713  23.841  21.473  28.497 -0.1151 -0.1822  0.1631
77661W        W20714  25.422  22.587  25.230  0.1502 -0.3938  0.0539
77662W        W20715   8.037   9.517  16.648  0.2974  0.1751 -0.2455
77663W        W20716  24.571  27.177  14.234 -0.2237  0.2872  0.2860
77664W        W20717   8.269  27.792  17.416 -0.0319 -0.3968  0.1049
77665W        W20718  32.920  23.963   1.170  0.3483  0.1068 -0.2102
77666W        W20719  10.618  21.288  25.573 -0.0527 -0.1330 -0.0246
77667W        W20720  16.629  11.133  27.734  0.2181 -0.1019 -0.0794
77668W        W20721  19.883  24.611  19.162 -0.0970  0.0007  0.3808
77669W        W20722  17.962  21.847  21.074  0.0255  0.2437  0.1672
77670W        W20723  22.250  21.170  15.037  0.1736  0.1129 -0.3178
77671W        W20724  22.244  19.160  26.663 -0.0383 -0.0959  0.1202
77672W        W20725  12.510  26.437  15.188  0.0933  0.5079 -0.0610
77673W        W20726  10.992  20.363  17.948 -0.1367 -0.1747  0.2793
77674W        W20727  15.952  16.909  16.040  0.0843  0.0426 -0.1133
77675W        W20728  19.302  19.846   2.406  0.0259  0.2578 -0.0681
77676W        W20729   1.884  21.944   3.501  0.0158 -0.1423  0.0137
77677W        W20730  28.994  23.517  26.808 -0.1301 -0.1829  0.2512
77678W        W20731  27.491  30.227  28.014 -0.0779  0.2883 -0.0859
77679W        W20732   9.849  20.983  22.370  0.1925  0.2044  0.1129
77680W        W20733  26.749  25.786  19.232  0.1167  0.6589 -0.0485
77681W        W20734  22.448  16.399  17.651 -0.1250  0.0111 -0.2553
77682W        W20735   1.087  17.497  16.963 -0.0512 -0.0646 -0.1032
77683W        W20736  19.389   7.405  16.372  0.0289 -0.1301  0.1756
77684W        W20737  32.616  20.394  19.503  0.2157  0.1429  0.3108
77685W        W20738  15.365  26.184   5.020 -0.1813 -0.0154  0.2903
77686W        W20739   7.121  26.643  22.938 -0.4877 -0.1008  0.1221
77687W        W20740  25.861   4.878  17.793 -0.0092 -0.2582 -0.0602
77688W        W20741  19.841  12.199  17.741 -0.0516 -0.3139 -0.1343
77689W        W20742  17.064  28.391   0.621 -0.0858  0.1435 -0.1567
77690W        W20743  12.803  23.221   3.770 -0.1918 -0.1325  0.0018
77691W        W20744   8.735  29.565  14.990 -0.3170 -0.2017  0.0826
77692W        W20745  15.231  25.311  25.635  0.2331  0.2530  0.4750
77693W        W20746  29.400   4.852  17.614  0.2180 -0.1788 -0.1486
77694W        W20747  22.322  28.429  17.487  0.2408 -0.0394  0.1060
77695W        W20748  28.260  14.468  25.284 -0.1085  0.1202  0.0059
77696W        W20749   7.579  32.291  15.088 -0.0841 -0.0772 -0.2302
77697W        W20750  29.546  19.048  23.202 -0.0503  0.2462  0.3220
77698W        W20751  14.898  23.708  18.429 -0.0797 -0.1276  0.0778
77699W        W20752   7.112  17.658  19.925 -0.1709 -0.0643 -0.0212
77700W        W20753  15.291  28.923  26.749  0.0099  0.0749  0.0968
77701W        W20754   4.636  26.247  14.538 -0.0010 -0.0016 -0.3613
77702W        W20755  17.500  23.344  25.528 -0.2176 -0.2472  0.1634
77703W        W20756   2.614  13.381   6.767  0.0800 -0.1287 -0.0412
77704W        W20757  17.116   4.265  15.906  0.0118 -0.2311  0.0474
77705W        W20758  10.805  24.549  19.834  0.1715  0.1478 -0.0032
77706W        W20759   6.738  20.574  23.571 -0.1113  0.0377  0.0390
77707W        W20760  11.988  21.482   6.894  0.2289  0.0624 -0.2759
77708W        W20761  23.915  27.105   7.197  0.1714  0.0999 -0.2939
77709W        W20762  28.638  13.824  22.031  0.0884  0.1871 -0.0115
77710W        W20763   8.825  25.777  26.105  0.1635 -0.1939  0.0059
77711W        W20764  33.778   8.503  16.486 -0.0799  0.0560 -0.4373
77712W        W20765  24.413   0.311  18.316  0.1617 -0.4486  0.2319
77713W        W20766   9.927  18.829  13.828 -0.1030 -0.1722 -0.0043
77714W        W20767  26.478  18.138   3.269 -0.3570 -0.0080 -0.1783
77715W        W20768  25.663   0.552   6.675 -0.0814 -0.0982  0.0331
77716W        W20769  33.607  19.999   4.539 -0.0598  0.1158  0.0124
77717W        W20770   7.967  20.458   7.448 -0.0436 -0.0056  0.1316
77718W        W20771  24.553  30.442  25.125  0.1053 -0.0477 -0.1524
77719W        W20772   9.357  29.612   0.959 -0.0313  0.0250 -0.1654
77720W        W20773  12.747  20.947  18.166 -0.1887  0.1619  0.2991
77721W        W20774  16.661  31.077   1.725 -0.0349  0.1310 -0.2495
77722W        W20775  19.066  23.744   4.588  0.2421 -0.2056 -0.0387
77723W        W20776   7.342  16.778  19.354  0.0698  0.0922  0.1020
77724W        W20777   6.469   4.826  27.162  0.0105  0.0675  0.0491
77725W        W20778  13.093  29.615  14.285  0.3662 -0.1394 -0.2706
77726W        W20779  16.477  12.063  14.866  0.3551 -0.3828 -0.1798
77727W        W20780  16.200  24.582  22.644  0.0010 -0.0915  0.0773
77728W        W20781  19.189  29.883  14.349 -0.1030  0.2722 -0.1982
77729W        W20782  12.965   6.257  26.238  0.0271 -0.1318  0.0173
77730W        W20783   4.492  30.994   0.182  0.1845 -0.3248  0.0197
77731W        W20784  33.363  31.431   0.621 -0.1458 -0.1046  0.1839
77732W        W20785  19.909  30.893  23.421 -0.0183 -0.0343  0.1910
77733W        W20786  22.299   4.416  20.218 -0.2801  0.0034 -0.1595
77734W        W20787  14.941  32.985   1.016  0.0034 -0.0384 -0.4763
77735W        W20788  11.867  18.209   4.993 -0.0694  0.0942 -0.3601
77736W        W20789  11.663  30.834  23.573 -0.2091  0.1124 -0.0426
77737W        W20790   3.328  19.410  14.999 -0.0022  0.0202  0.2174
77738W        W20791  16.357  16.825  15.098 -0.0470 -0.1693 -0.0160
77739W        W20792  17.391  30.976  18.793  0.3238  0.0903  0.1232
77740W        W20793  17.318  17.860  24.703  0.1635  0.5942 -0.0061
77741W        W20794  16.518  28.394  22.901 -0.1161  0.1176 -0.1054
77742W        W20795  33.841  30.794   1.648 -0.4876  0.1092 -0.2000
77743W        W20796  11.602  25.195  15.297 -0.0597 -0.1960 -0.2103
77744W        W20797  12.884   7.395   0.764 -0.0385  0.0706  0.0227
77745W        W20798  33.534   3.864  17.322  0.0543 -0.3375  0.0508
77746W        W20799   9.781  22.988  21.247 -0.0802 -0.2914 -0.2443
77747W        W20800  10.585  17.227  22.636 -0.0424 -0.3149  0.0406
77748W        W20801  11.224  25.113   0.452  0.0991 -0.0390  0.1027
77749W        W20802  23.538  27.774   3.881 -0.1425  0.2571  0.0658
77750W        W20803   3.015  14.182   1.412  0.1145 -0.0423  0.0034
77751W        W20804  12.320  31.854  13.984  0.0663 -0.1781  0.0576
77752W        W20805  14.001   8.830  28.182 -0.0248  0.2109  0.0740
77753W        W20806   8.416  32.415  20.146 -0.3486  0.1432  0.1474
77754W        W20807  11.272  26.385  15.443 -0.2506  0.1013  0.1902
77755W        W20808  24.496   7.169  20.444 -0.0814 -0.1150  0.1507
77756W        W20809   6.128  24.319  19.500  0.2223 -0.1868 -0.1237
77757W        W20810   8.598  31.416   3.145  0.1805 -0.0654  0.0714
77758W        W20811   8.823   6.170  25.665 -0.1833  0.0279 -0.0079
77759W        W20812   6.042  27.425  24.426 -0.0101  0.0383 -0.2409
77760W        W20813  12.732  18.845  27.917  0.0496 -0.2739 -0.0387
77761W        W20814  12.636   9.680   5.124 -0.2423 -0.3328  0.0805
77762W        W20815  11.160   7.639   5.071  0.0942  0.0301 -0.2309
77763W        W20816  34.108  23.613  27.882  0.3667 -0.0076 -0.1729
77764W        W20817  23.500  21.278  14.239 -0.0052  0.1019  0.1909
77765W        W20818   5.415  30.420   2.414  0.2999  0.2620  0.1006
77766W        W20819  18.113  16.275  13.280  0.1476  0.3035  0.1833
77767W        W20820  11.869  26.094  20.224 -0.1030 -0.1426 -0.1764
77768W        W20821  30.936  21.563   3.683 -0.3232 -0.1934  0.1762
77769W        W20822  15.190   2.451  18.586 -0.1685 -0.1239  0.0320
77770W        W20823  12.749  23.237  23.949 -0.3303 -0.0040  0.1161
77771W        W20824   9.868  22.791   6.118  0.2050 -0.1342 -0.2485
77772W        W20825  10.039  15.191   3.275  0.1466  0.0571  0.0245
77773W        W20826  18.006  33.519  15.161 -0.0054  0.1585  0.2244
77774W        W20827  27.782  22.930  19.211  0.1814  0.1739 -0.0311
77775W        W20828  11.280  14.170  19.387 -0.1647  0.2425 -0.1206
77776W        W20829   1.314  24.071  16.832  0.3989 -0.0860 -0.2006
77777W        W20830  13.673   9.650   4.254 -0.2391 -0.2305  0.1142
77778W        W20831  34.386  22.280  28.475  0.0842 -0.0594 -0.3080
77779W        W20832   8.025  15.170  22.292  0.2208  0.0788 -0.0790
77780W        W20833  13.344  14.944  18.533  0.0085 -0.1287  0.1858
77781W        W20834  24.094  23.930   8.235  0.0175 -0.0715 -0.0254
77782W        W20835  15.373  27.081  18.765 -0.0693 -0.1665  0.1108
77783W        W20836   0.973  30.348   8.512  0.0295  0.1771 -0.1233
77784W        W20837  13.122   6.577   4.648 -0.5104 -0.1072  0.1220
77785W        W20838  12.472  20.564   3.056 -0.4054 -0.0044  0.3601
77786W        W20839  31.752   9.042  23.696 -0.1721 -0.1222  0.0650
77787W        W20840  25.017  25.137  16.924 -0.1194  0.0975 -0.0541
77788W        W20841  12.097  30.711   0.012  0.2751 -0.0469 -0.1911
77789W        W20842   9.471  12.397  20.088  0.1142 -0.1249  0.0381
77790W        W20843  22.826  18.491  25.547  0.0558 -0.0649  0.0601
77791W        W20844  23.611  17.803  18.279 -0.0545 -0.3231 -0.2817
77792W        W20845   8.572  33.113   1.696 -0.2444 -0.0614  0.0875
77793W        W20846  11.387  22.853  24.763 -0.1033 -0.2276 -0.0207
77794W        W20847  15.765  25.344  27.183  0.1891  0.1222 -0.2653
77795W        W20848   9.856  20.733  19.715  0.0421  0.1973  0.3834
77796W        W20849  16.295  24.261  28.320 -0.1812  0.0415 -0.2203
77797W        W20850  11.197  22.455  15.548 -0.2046  0.0206  0.0345
77798W        W20851  11.118   6.551  25.920  0.0877  0.0849  0.0036
77799W        W20852  27.943  23.182  16.594 -0.2930  0.0621  0.1837
77800W        W20853  12.025  26.486  21.281 -0.1624  0.1829  0.3157
77801W        W20854   4.412  20.461   7.754  0.0105  0.1770  0.1073
77802W        W20855  13.984  11.760  15.935  0.1751  0.1122  0.0993
77803W        W20856   5.428   0.172  17.915 -0.0757 -0.0543  0.3058
77804W        W20857  20.625   6.177   6.414 -0.0876  0.3403  0.1837
77805W        W20858  15.371  17.291  23.956  0.1773  0.1301  0.0005
77806W        W20859  17.908   3.894  15.403  0.0260 -0.0917  0.1330
77807W        W20860   1.169  27.928  28.197 -0.0117  0.2623 -0.1338
77808W        W20861   0.955  28.061  25.936  0.2391  0.0883 -0.0701
77809W        W20862  25.639  24.048  27.957 -0.0798  0.0750  0.0117
77810W        W20863  18.654  21.695  24.876 -0.1042  0.0761 -0.2253
77811W        W20864   3.398  28.237  21.574  0.0582 -0.2555  0.0968
77812W        W20865   9.985  20.525  16.973 -0.1185  0.0162 -0.2887
77813W        W20866   8.584  20.209  23.421 -0.1749 -0.0245  0.0960
77814W        W20867  21.923  25.425  23.412 -0.0295  0.0270  0.0254
77815W        W20868   6.583   7.846  27.154 -0.1383  0.0699 -0.1876
77816W        W20869   6.328  18.786  24.589 -0.0683  0.1726  0.1560
77817W        W20870  19.429  17.454   8.190  0.2546 -0.3358  0.1903
77818W        W20871   5.936  17.678  19.467 -0.1363 -0.2106  0.0185
77819W        W20872   9.062  12.193  21.118  0.1179  0.1014  0.3625
77820W        W20873  11.249  14.934   4.151 -0.1504 -0.2793  0.2919
77821W        W20874  24.659  21.615  26.313 -0.1030  0.4011 -0.3264
77822W        W20875   9.615  27.502  24.058 -0.2074 -0.0929 -0.3599
77823W        W20876   7.641  15.642  23.928  0.3301 -0.2017  0.0678
77824W        W20877  25.544  28.307   9.335  0.1326 -0.0591 -0.1525
77825W        W20878  32.813  23.082   6.613 -0.1980 -0.1024  0.1682
77826W        W20879  32.072  32.771  25.940 -0.0773  0.4671  0.0384
77827W        W20880   6.053  21.954  19.345 -0.1932 -0.1116  0.0775
77828W        W20881  31.117  23.667  15.189 -0.0630 -0.3833 -0.0100
77829W        W20882  13.851   4.636  23.786 -0.0651  0.2849 -0.4378
77830W        W20883  16.718  25.955   6.909 -0.1970  0.1061 -0.3059
77831W        W20884  18.549   0.053   0.469 -0.0768  0.1403 -0.0508
77832W        W20885   4.939   2.150  16.157 -0.2269 -0.1777 -0.0868
77833W        W20886  18.536  33.888   0.176  0.0194  0.0454  0.1908
77834W        W20887  34.551  16.009   6.824  0.1268  0.2267  0.2217
77835W        W20888  13.914  28.897   8.681 -0.1218  0.2871 -0.0607
77836W        W20889  15.809  33.617  15.730  0.2430 -0.0619  0.1761
77837W        W20890  30.113  18.192   4.348 -0.0161  0.1627 -0.0082
77838W        W20891   9.378  28.495  16.698 -0.0345 -0.3120 -0.1844
77839W        W20892  13.447  18.212  18.868  0.0719 -0.1170  0.1946
77840W        W20893  11.913  32.041  14.786 -0.0315  0.1068 -0.2365
77841W        W20894   8.040  29.212  15.439 -0.1989 -0.2995 -0.1704
77842W        W20895   4.797  33.404  17.478 -0.2270 -0.2790 -0.2647
77843W        W20896  20.931  13.510   8.787  0.1016  0.3514 -0.0680
77844W        W20897  23.799  28.372  16.239  0.0723 -0.4104 -0.2662
77845W        W20898  13.396  21.008  25.569 -0.1007  0.0941 -0.1224
77846W        W20899   9.729  17.702  19.051 -0.3527 -0.4230 -0.5038
77847W        W20900  30.634  16.287   9.558  0.1934  0.0666 -0.2062
77848W        W20901  26.911  17.261  21.015 -0.1839 -0.4756 -0.0722
77849W        W20902  17.267  24.091  25.717 -0.0995  0.2475 -0.0272
77850W        W20903   4.113  19.619  29.115 -0.2714  0.1024 -0.0426
77851W        W20904  28.742  30.032   8.114  0.1462  0.2826 -0.0105
77852W        W20905   8.061  16.313  14.094  0.0671 -0.1816  0.0666
77853W        W20906  19.413  28.200  25.569 -0.2033 -0.2601  0.1021
77854W        W20907  25.892   1.056  17.565  0.0338 -0.0580 -0.0475
77855W        W20908  14.541  29.109  26.522  0.2593  0.0423  0.3949
77856W        W20909   8.428   5.136   1.468  0.1350  0.0652 -0.0944
77857W        W20910   9.552   7.971  23.058 -0.2759  0.0972  0.1857
77858W        W20911  20.852  25.681  22.258  0.2706 -0.1856 -0.2621
77859W        W20912  30.670  14.312  22.231  0.1771 -0.0437 -0.3112
77860W        W20913  10.342  31.238  16.233  0.0755 -0.2059 -0.1212
77861W        W20914   8.510  17.236  21.862 -0.1972 -0.0790 -0.1664
77862W        W20915   5.683  26.329  21.394  0.2019  0.2125  0.1433
77863W        W20916  12.249  10.414  28.586 -0.0991 -0.1497 -0.1742
77864W        W20917  26.699  21.261  23.246 -0.0348 -0.0616 -0.1061
77865W        W20918  23.980   0.217  21.441  0.0618  0.1062 -0.0486
77866W        W20919  19.724  17.498  26.886  0.0618 -0.0833 -0.2008
77867W        W20920   9.341  32.180  16.385 -0.0326  0.1469 -0.0824
77868W        W20921   5.638  27.699  16.280 -0.4320  0.3699 -0.1439
77869W        W20922   5.023  28.453  14.603 -0.3072  0.2201  0.1075
77870W        W20923  15.971  27.431  24.671 -0.0589  0.3169  0.3658
77871W        W20924  12.511  13.965  19.124 -0.1731  0.0281 -0.2231
77872W        W20925   7.762   2.635  15.746 -0.0036  0.3207  0.0207
77873W        W20926   4.997  21.004  19.801  0.1084  0.1193 -0.1111
77874W        W20927  22.497  22.685   8.266  0.1917  0.0489 -0.0020
77875W        W20928  21.014  11.263  16.728  0.1444  0.1214 -0.1878
77876W        W20929  26.892  28.806   0.026  0.2002 -0.1813 -0.2316
77877W        W20930  17.481  23.830  15.619 -0.1722 -0.1074  0.1865
77878W        W20931  22.503   9.105   5.441 -0.1485  0.1899 -0.1266
77879W        W20932  25.288  11.583  22.536  0.2566 -0.1622 -0.1429
77880W        W20933  27.525  21.026  24.729 -0.4067  0.0317  0.0674
77881W        W20934  28.185   1.598  17.299 -0.1595 -0.1142 -0.3273
77882W        W20935  18.031  17.225  12.846  0.0584  0.1114 -0.0226
77883W        W20936  23.661  19.485  21.626  0.0328 -0.0303  0.1239
77884W        W20937  12.134   3.987  28.972  0.0542 -0.1234 -0.0058
77885W        W20938  25.012  28.328   7.465  0.0394 -0.1817 -0.0246
77886W        W20939  14.846  28.190  20.706  0.0752 -0.1095  0.1282
77887W        W20940  12.166  12.656   3.605 -0.1399 -0.2780 -0.1224
77888W        W20941  24.303  17.707   4.466  0.2270  0.1481  0.0707
77889W        W20942  20.089  21.084  26.014  0.0188  0.1061  0.0559
77890W        W20943   0.574  16.619  17.599  0.2855 -0.1061  0.0440
77891W        W20944  17.577   4.131  28.529  0.2312 -0.1392 -0.1375
77892W        W20945  27.625  33.577  19.030 -0.3353  0.2354  0.1568
77893W        W20946  22.629   4.251   3.051  0.0326  0.0621  0.2640
77894W        W20947   2.940  18.659  19.041  0.2569  0.3134  0.0686
77895W        W20948  10.637  21.252  29.084  0.0495  0.0477 -0.2259
77896W        W20949  10.554  10.774   7.731 -0.3559  0.1066 -0.4603
77897W        W20950  19.896  13.887  20.091  0.0738  0.0042  0.0120
77898W        W20951  29.439   0.244  18.241 -0.1180 -0.1755  0.0782
77899W        W20952  16.043  27.249  27.997 -0.0541  0.0181  0.2134
77900W        W20953  22.004  32.709   1.374  0.0157  0.0765  0.0699
77901W        W20954  20.671  10.533  24.054 -0.2499 -0.0573  0.1167
77902W        W20955  11.427  24.660  27.990  0.1156  0.1727 -0.0085
77903W        W20956  29.530  24.835   2.040  0.0305 -0.2237  0.0785
77904W        W20957  24.763   8.158  18.370  0.1581 -0.1018 -0.1889
77905W        W20958  33.401  26.421   7.237  0.1753  0.1155  0.1641
77906W        W20959  14.509  23.124  24.176 -0.0335 -0.0570 -0.1980
77907W        W20960  10.233  27.616  15.389 -0.0102 -0.0153 -0.1669
77908W        W20961  18.480  15.628   8.915  0.2374 -0.4589 -0.0503
77909W        W20962  33.115  27.187  22.825 -0.0246  0.2887 -0.1513
77910W        W20963  10.959   6.851  16.585  0.0468 -0.0751  0.1303
77911W        W20964  10.415  30.948  19.448  0.2578 -0.0547  0.2183
77912W        W20965   8.690  21.471  17.002  0.1112  0.1289  0.0180
77913W        W20966   2.555  24.237  14.578 -0.1126  0.0424 -0.2606
77914W        W20967  34.166  11.158  17.442 -0.0428  0.1140 -0.0388
77915W        W20968  11.454  14.577  16.873 -0.2804  0.0985  0.0765
77916W        W20969  24.031   4.149   2.921  0.0614 -0.0870 -0.3154
77917W        W20970  10.498  14.336  16.998  0.1621 -0.2123  0.0298
77918W        W20971  20.558  21.977   5.242  0.2694 -0.0420  0.0953
77919W        W20972   7.399   2.898  18.163 -0.0379 -0.2928 -0.0465
77920W        W20973  19.461  24.025   4.346  0.0042 -0.1216  0.3567
77921W        W20974  13.218  22.970  26.457  0.0788  0.2202  0.1912
77922W        W20975  21.118  19.983  26.411 -0.1212 -0.1614  0.3160
77923W        W20976  29.662  32.561   7.410  0.1338 -0.1415 -0.1334
77924W        W20977  18.572  21.741  22.682 -0.0078 -0.0737  0.3809
77925W        W20978  24.049  12.880  21.309  0.2020 -0.2065 -0.2100
77926W        W20979   6.661  16.665   5.347 -0.0898  0.2180  0.1148
77927W        W20980  17.447  29.457   3.526  0.0350 -0.0128  0.2172
77928W        W20981  16.065   5.343  23.979 -0.6382  0.2799 -0.2912
77929W        W20982  32.664  14.868  28.907  0.3198  0.0065  0.1129
77930W        W20983  21.911   3.134   0.309 -0.2508 -0.1473 -0.1697
77931W        W20984  11.786  25.627   0.212 -0.0704  0.0371  0.2307
77932W        W20985  26.768  10.905  15.658  0.0335 -0.0110  0.2369
77933W        W20986  15.091  22.652  19.592 -0.0255  0.1568  0.0608
77934W        W20987  33.769  15.953  15.133  0.2522 -0.2151  0.0294
77935W        W20988  23.067  33.127  23.903  0.4533 -0.3535  0.0309
77936W        W20989   8.677  28.276   6.426  0.0494 -0.0425  0.0537
77937W        W20990  10.070  33.206  17.823 -0.1319 -0.3696  0.0488
77938W        W20991  23.322  26.715  26.960  0.1739 -0.1003 -0.3043
77939W        W20992   2.473   7.898  27.625  0.1771  0.4728  0.0149
77940W        W20993   9.338  29.177  28.780  0.0751  0.1744  0.0273
77941W        W20994  19.914  29.461  27.702  0.0677 -0.0530  0.0813
77942W        W20995  17.342  21.597  17.020 -0.1545 -0.0507  0.2352
77943W        W20996   7.947   5.292  16.350  0.1764 -0.0279 -0.0740
77944W        W20997  15.372  14.316   2.702 -0.0918  0.1288  0.3502
77945W        W20998  27.225  18.612  16.573 -0.1928 -0.2514  0.1555
77946W        W20999   4.400  17.875  15.393 -0.2243 -0.1596 -0.0080
77947W        W21000  24.772  15.944  26.914  0.2157 -0.3034 -0.0027
77948W        W21001  16.799  21.239  27.214 -0.2260  0.0497  0.1733
77949W        W21002  19.122  28.180  16.072  0.1822 -0.2367 -0.0988
77950W        W21003  14.864   0.140  15.671 -0.2973 -0.2606 -0.0929
77951W        W21004  13.130  23.888  16.781 -0.3837  0.1094 -0.1799
77952W        W21005  18.832  14.684  15.662  0.0873 -0.0137 -0.0662
77953W        W21006   4.318  29.075  14.743  0.1546 -0.0016  0.0553
77954W        W21007  16.154  19.011  27.038  0.1962  0.0002 -0.0261
77955W        W21008   5.394   0.651  14.510 -0.1381 -0.2151 -0.3827
77956W        W21009   6.425  17.660  16.865 -0.2143 -0.2528 -0.0452
77957W        W21010  21.925  30.702  25.149 -0.0234 -0.2717 -0.0169
77958W        W21011   3.851  11.913  20.283  0.1444 -0.0718  0.2348
77959W        W21012  20.016  17.232  23.221  0.0866  0.3532 -0.0531
77960W        W21013  29.591  25.646  25.616  0.1707  0.1513  0.0630
77961W        W21014   4.653   8.594  22.658 -0.1274  0.2839  0.0536
77962W        W21015  19.166   1.881  18.029 -0.0653  0.5537  0.1366
77963W        W21016   5.439  10.233   7.323 -0.0619  0.5247 -0.1753
77964W        W21017  19.534  27.976  19.213  0.1269 -0.1676  0.1982
77965W        W21018  12.751  21.874  15.057 -0.2880  0.0864  0.0964
77966W        W21019  27.502  14.529  24.185 -0.0737  0.2301  0.2658
77967W        W21020  15.208  27.391   7.589  0.0210  0.3354 -0.2811
77968W        W21021  11.539  31.467  18.913 -0.0437  0.2708  0.1624
77969W        W21022  30.420  10.369  22.998 -0.0235  0.2309 -0.0480
77970W        W21023  16.449   3.092  16.483 -0.0430  0.0042 -0.1387
77971W        W21024   3.310  29.931  20.291  0.0705  0.2312  0.1052
77972W        W21025   8.786  28.108  25.720  0.3214 -0.0546 -0.1223
77973W        W21026  24.528  30.999  14.345 -0.0725 -0.1141 -0.0139
77974W        W21027  14.615  25.263   7.966 -0.0070  0.1202 -0.0205
77975W        W21028  17.312  24.438  23.949  0.0162 -0.0674 -0.1983
77976W        W21029  20.937   0.359  16.340  0.2094 -0.0126  0.3114
77977W        W21030  10.875  25.078  16.566 -0.0883  0.2333 -0.2291
77978W        W21031  20.075  34.214  27.286  0.2211  0.1041  0.4146
77979W        W21032  30.391   3.940  25.057  0.1141 -0.0824 -0.0406
77980W        W21033   5.385  27.827  27.338  0.0208  0.1004  0.0576
77981W        W21034   2.120  23.815  27.423 -0.0377 -0.0775  0.2117
77982W        W21035   9.269  23.686  24.393 -0.0668 -0.2460  0.2397
77983W        W21036   0.330  21.793  14.296  0.2319 -0.1393  0.1217
77984W        W21037  27.467  25.658  10.219  0.0733 -0.1316  0.3512
77985W        W21038  11.921  17.353  27.826  0.3887 -0.3026 -0.0936
77986W        W21039  20.139  32.967  18.984  0.1956 -0.1010 -0.0561
77987W        W21040   3.325  14.402   4.634 -0.0533 -0.2602 -0.0408
77988W        W21041  25.983  30.971  19.321  0.2539 -0.2157 -0.0287
77989W        W21042  12.535  18.580   5.915 -0.5122 -0.1156  0.2005
77990W        W21043  16.635  23.617  20.525 -0.0443  0.0166 -0.2158
77991W        W21044  19.255  21.665  14.337  0.0223 -0.1438 -0.2894
77992W        W21045  20.554  28.177  23.305  0.0937 -0.0168 -0.4070
77993W        W21046  17.428   7.234   7.994 -0.2555  0.1776 -0.0820
77994W        W21047   7.498  15.718  17.811 -0.1687 -0.2851 -0.1056
77995W        W21048  20.776  23.296  10.355 -0.1827 -0.0651 -0.0141
77996W        W21049   6.078   4.782   4.840 -0.0005  0.0507 -0.0554
77997W        W21050  29.772  22.915   6.925  0.1104 -0.0113  0.1889
77998W        W21051   1.067  29.494  12.933  0.0943 -0.1493 -0.0675
77999W        W21052  18.480  25.551   7.360  0.0365 -0.1608 -0.3559
78000W        W21053  20.220   1.665  26.973 -0.1891  0.2064 -0.0205
78001W        W21054  10.698  22.934  19.560  0.2754  0.4045 -0.1855
78002W        W21055  13.016  33.269  24.800  0.0915 -0.1893  0.1188
78003W        W21056   3.641  30.732   0.116  0.0123 -0.0883 -0.0584
78004W        W21057   6.838   3.159  27.087  0.2847  0.1454 -0.0808
78005W        W21058  13.706  31.470  17.406  0.2041 -0.3024 -0.2763
78006W        W21059  14.015  27.482   8.401  0.0203 -0.0586  0.2614
78007W        W21060   9.849  30.761   1.145 -0.1158  0.0853  0.3131
78008W        W21061   9.910  19.566   9.859  0.1197  0.1258  0.1500
78009W        W21062  13.821  21.471  28.817  0.3222  0.1327 -0.0005
78010W        W21063  22.354  28.222  18.974  0.2560  0.0792  0.1956
78011W        W21064   3.557  12.939  28.088 -0.1248  0.1199 -0.3004
78012W        W21065   4.057  33.046  24.068  0.1493 -0.1734 -0.1207
78013W        W21066   5.382  29.376   6.735 -0.2696  0.1164  0.1807
78014W        W21067  23.743  23.121   3.527 -0.1176  0.0970 -0.1688
78015W        W21068  32.789  29.491  19.007  0.0554 -0.2605 -0.0030
78016W        W21069   4.022  34.390  21.040  0.1397 -0.0512 -0.0634
78017W        W21070   0.598  13.986  22.526  0.1826  0.0699 -0.0184
78018W        W21071  23.434   0.997  20.633 -0.2256  0.0121 -0.0791
78019W        W21072   4.982   2.664  28.919  0.1989 -0.1342 -0.0360
78020W        W21073   6.367  22.120  20.197  0.2992 -0.0857 -0.0639
78021W        W21074   9.524  32.397   1.287  0.1020 -0.3568 -0.0720
78022W        W21075  16.676  29.947   3.812  0.4843 -0.1084  0.0502
78023W        W21076  14.409   9.655  19.742  0.0980 -0.2828  0.2844
78024W        W21077  19.157   0.364   1.557 -0.1204  0.1339 -0.1422
78025W        W21078  11.382  20.711   1.114 -0.2780  0.1239 -0.3738
78026W        W21079  27.109  21.393  25.471  0.1930  0.0123 -0.1505
78027W        W21080   7.527  12.970  27.902 -0.2030 -0.1736  0.1211
78028W        W21081  29.168  24.387  19.398 -0.3947  0.0048  0.0877
78029W        W21082  14.315  10.744   5.047 -0.0128 -0.1016 -0.1595
78030W        W21083  24.907  32.382  17.896  0.0960  0.2489  0.1809
78031W        W21084  24.048  30.167  15.875 -0.1980 -0.3204  0.0293
78032W        W21085  19.462  26.776  25.310  0.2507  0.3227 -0.2978
78033W        W21086   5.253   9.243  21.502  0.2340 -0.2846  0.3112
78034W        W21087   7.814  24.762  20.931  0.0046 -0.1359  0.1547
78035W        W21088  26.409   2.960  14.783 -0.1020 -0.2313 -0.0945
78036W        W21089   4.801  13.741   9.883 -0.2585 -0.0339 -0.1288
78037W        W21090  18.188  27.870  27.967 -0.2457 -0.1091 -0.3475
78038W        W21091  18.107  32.121  23.754  0.1772 -0.1370  0.1916
78039W        W21092  32.906  23.813  20.884  0.0112 -0.0421 -0.1806
78040W        W21093   3.804  11.689  16.946  0.0239  0.0992 -0.2234
78041W        W21094  14.396  18.897  24.304  0.1140  0.1846 -0.2234
78042W        W21095  27.641  33.743   1.503  0.0397  0.1549 -0.0793
78043W        W21096   4.412  22.491  13.351 -0.0500 -0.0992 -0.1234
78044W        W21097  19.875  26.879  27.977 -0.5277  0.1726  0.1582
78045W        W21098  16.678  16.099   2.544 -0.2080 -0.0762  0.2423
78046W        W21099  17.572   9.285  25.856  0.0940 -0.1018  0.2501
78047W        W21100  15.032  28.423  25.413  0.4969  0.2031 -0.1075
78048W        W21101  16.244  22.570  17.657  0.1195 -0.0839  0.0599
78049W        W21102  10.153  13.415   3.757  0.5884 -0.0372 -0.0440
78050W        W21103  13.402  28.978   6.812 -0.2284 -0.0045  0.0826
78051W        W21104   6.377  20.294  23.725 -0.1490  0.0047  0.2359
78052W        W21105   9.738   5.843  16.944  0.1656  0.0847 -0.1795
78053W        W21106  24.361  16.402  19.306  0.2367 -0.1355  0.0403
78054W        W21107   4.052  19.985  22.092  0.0082 -0.0702 -0.2030
78055W        W21108  20.581  26.560  15.413  0.3515  0.0750 -0.2172
78056W        W21109   5.927  24.559  14.919  0.1201 -0.2602 -0.1282
78057W        W21110  27.056  22.172  25.519 -0.1411  0.1554  0.2903
78058W        W21111  19.615   2.914  22.252  0.0765  0.1760  0.2176
78059W        W21112  20.214  25.364   0.849 -0.0091  0.1611  0.1356
78060W        W21113   0.063  34.055  22.328  0.0952  0.0679  0.2656
78061W        W21114  15.041  20.938  23.247 -0.1111 -0.2453 -0.3635
78062W        W21115   5.189  31.225   4.333 -0.1411 -0.1114 -0.1776
78063W        W21116   2.013   9.436   0.873 -0.2564  0.0454 -0.0901
78064W        W21117  26.498  30.571   3.891  0.0005 -0.1848  0.2178
78065W        W21118  14.496  33.297   2.972 -0.1572  0.2578 -0.2113
78066W        W21119  15.449  17.513   6.668 -0.1149  0.0603  0.1910
78067W        W21120  13.629  30.929  15.974 -0.0834 -0.1015 -0.4909
78068W        W21121   2.113  30.685   4.280  0.2482 -0.0612  0.2233
78069W        W21122  24.671  16.923   1.721 -0.0783  0.0501  0.2452
78070W        W21123  13.812   7.024  16.951  0.0910  0.0135 -0.1533
78071W        W21124  19.970  26.743  21.176 -0.1165  0.2981  0.0590
78072W        W21125  10.974  27.407   8.703  0.1720  0.2900 -0.0313
78073W        W21126  16.113  31.431  16.932 -0.2213 -0.1283 -0.0923
78074W        W21127  24.265   8.515  23.192 -0.1650  0.0986 -0.0343
78075W        W21128   3.413   4.961  18.349  0.0056 -0.1421  0.2125
78076W        W21129  31.713  12.023  18.794  0.1364 -0.3168  0.0186
78077W        W21130  16.505  21.926   8.346 -0.1387  0.1527  0.0042
78078W        W21131  33.230  28.850   2.756 -0.2227  0.0612  0.0702
78079W        W21132  13.904  29.276  26.098  0.3013  0.2365  0.0602
78080W        W21133  14.930  19.035   2.329  0.1009 -0.1110 -0.1697
78081W        W21134  26.836  25.603  26.436 -0.1532  0.1950 -0.0018
78082W        W21135   7.911  19.117   1.895 -0.0309  0.2401 -0.0248
78083W        W21136  21.849  11.592   3.551 -0.2218  0.2379  0.0064
78084W        W21137  34.421  27.905  16.096 -0.1177  0.0123 -0.1858
78085W        W21138  23.077  12.863  27.240 -0.0689 -0.3369 -0.2737
78086W        W21139  29.480   3.571   1.961 -0.1191 -0.0607 -0.2265
78087W        W21140  13.026  34.312  19.291 -0.0227 -0.0712 -0.1373
78088W        W21141  15.142  14.349  21.309  0.1556 -0.0741  0.0814
78089W        W21142   7.619  17.311   2.197 -0.2629 -0.2320  0.0619
78090W        W21143  14.165  29.968  17.462 -0.0853 -0.1344  0.0741
78091W        W21144  23.880  33.453  28.691  0.0770 -0.0431 -0.1253
78092W        W21145   7.627  27.037  22.798  0.1412 -0.0962 -0.0611
78093W        W21146  17.502   0.841  19.099  0.2969 -0.0248 -0.0757
78094W        W21147  17.476  23.593   0.430 -0.0425  0.3583  0.0426
78095W        W21148  34.350  10.292  25.508  0.4125 -0.1715 -0.2814
78096W        W21149   0.820  15.562  19.334 -0.3461 -0.2123 -0.0595
78097W        W21150  28.670  17.089  14.199 -0.0874 -0.0707  0.1812
78098W        W21151   8.334  18.696   1.074 -0.0868 -0.1742  0.0720
78099W        W21152  25.009  24.096  22.200 -0.2260  0.0041 -0.1704
78100W        W21153  24.063  29.645  17.216 -0.1365 -0.1273  0.1239
78101W        W21154  14.781   8.184   0.039 -0.0290 -0.1067  0.0510
78102W        W21155  14.479  17.902  23.364 -0.3484 -0.1256  0.0309
78103W        W21156  15.125  28.911  28.020 -0.2169  0.0154  0.0503
78104W        W21157  23.347  30.764   0.886  0.1524  0.2873 -0.1008
78105W        W21158  27.497   7.241   4.322 -0.0267 -0.0551 -0.1329
78106W        W21159  15.737  29.089  23.829 -0.0828 -0.1118 -0.0841
78107W        W21160  14.405  32.710   2.517  0.0075  0.1880 -0.1836
78108W        W21161  30.109  28.065   2.650  0.3722 -0.1912 -0.1523
78109W        W21162  19.916  22.384   0.023  0.4651 -0.2694  0.2301
78110W        W21163   9.316  15.699   7.017  0.1918 -0.0609 -0.1190
78111W        W21164  27.359  23.328   1.817  0.0585  0.0513 -0.0760
78112W        W21165  13.551  27.673   7.210  0.0254  0.1038  0.1293
78113W        W21166  14.732  29.192  25.589 -0.1079 -0.1568  0.0773
78114W        W21167  21.920  31.414   1.730 -0.0359  0.3750  0.2342
78115W        W21168  11.707   6.368   9.285  0.2013 -0.2354  0.1553
78116W        W21169   6.492   2.070  16.874 -0.1988 -0.1883  0.2741
78117W        W21170  30.524  16.930   7.733 -0.0020  0.1819  0.1385
78118W        W21171  28.101   7.212   0.490  0.3139 -0.0411  0.4555
78119W        W21172  28.773  17.384   6.187  0.1440 -0.1201 -0.0789
78120W        W21173  24.054  19.908   5.063  0.2024  0.0499  0.0323
78121W        W21174   7.052  27.030  28.234 -0.0908  0.0663 -0.3691
78122W        W21175   9.235  23.119  22.917  0.0719  0.0470 -0.0523
78123W        W21176   6.846  33.312  28.672  0.2463  0.3038 -0.2958
78124W        W21177  16.963   1.438  10.084  0.1218  0.2238  0.0727
78125W        W21178   7.483  21.555  20.629  0.1640  0.1932  0.0538
78126W        W21179  11.037  21.384  13.487 -0.1884  0.0644  0.1211
78127W        W21180   6.338  10.281  20.632  0.0589  0.1411 -0.4317
78128W        W21181  20.004  24.699  20.274 -0.2728  0.2484  0.0022
78129W        W21182  32.823  31.578  19.085 -0.1947  0.1064  0.0544
78130W        W21183  18.153  13.441  13.840 -0.1332 -0.1217 -0.0820
78131W        W21184   3.947  31.234   4.428  0.1073 -0.0044 -0.4685
78132W        W21185  31.679   4.128  25.173  0.0979  0.1003 -0.0548
78133W        W21186  15.565  15.710  13.081  0.0240  0.0100  0.1590
78134W        W21187  10.676  23.147   0.574  0.0430  0.1579 -0.3131
78135W        W21188   2.242  30.199   4.251 -0.1690  0.0617  0.3436
78136W        W21189  17.952  31.606  20.291  0.1590 -0.1762  0.3992
78137W        W21190  28.559  24.007  22.200  0.0369  0.2855 -0.0870
78138W        W21191  18.620   6.140   5.286  0.0628  0.0590 -0.1334
78139W        W21192  16.042  25.725  21.751  0.0546  0.2387 -0.1236
78140W        W21193  13.170   1.069  26.827 -0.2417 -0.0110 -0.0771
78141W        W21194  26.382  22.118  22.452  0.1943  0.3507  0.0652
78142W        W21195  30.530   2.939  26.270 -0.0124 -0.5985 -0.0016
78143W        W21196  23.094  14.971  20.898  0.0058 -0.2433  0.1178
78144W        W21197   9.715  26.733  28.072  0.0804 -0.1921  0.1643
78145W        W21198   9.015   0.636  17.466 -0.0160 -0.1045 -0.1939
78146W        W21199  25.208  12.408  21.202  0.2380  0.0165 -0.0450
78147W        W21200  27.875  20.963  20.788  0.0625  0.0520  0.2641
78148W        W21201  23.005  30.127   6.668 -0.3435  0.2715  0.1667
78149W        W21202  23.072  33.465   5.241  0.2323 -0.4239 -0.1085
78150W        W21203  15.856  30.398  27.067 -0.1363  0.0598  0.0750
78151W        W21204  29.454  31.542   3.102 -0.0503 -0.1969  0.0315
78152W        W21205  10.627  19.795   4.290 -0.0574  0.1188  0.0474
78153W        W21206  23.525   6.194   8.714 -0.1246 -0.2757 -0.1075
78154W        W21207  12.584  22.503  23.727 -0.3834  0.2858  0.0184
78155W        W21208  27.060   6.488  19.809  0.0787 -0.3567 -0.0753
78156W        W21209  22.635  22.341  19.505  0.1158  0.3129  0.4200
78157W        W21210  12.854  17.509  20.161  0.0529  0.3629  0.1800
78158W        W21211   7.259  14.716   4.419  0.0774 -0.1110  0.1395
78159W        W21212   6.128  30.637   6.076 -0.2854 -0.0301 -0.1067
78160W        W21213  10.482   1.657   9.372  0.0914  0.0351 -0.1293
78161W        W21214   6.872  19.304   5.949 -0.2955  0.3191 -0.1474
78162W        W21215  21.863  28.955   4.973  0.2429 -0.1860 -0.1885
78163W        W21216   7.958  34.653   0.299  0.2022  0.1116 -0.2086
78164W        W21217  31.914  26.765   9.071  0.1615 -0.0679 -0.0678
78165W        W21218  24.137   4.042   7.365  0.0064  0.1952 -0.2310
78166W        W21219  24.200  20.375   3.037  0.1212  0.0819 -0.2420
78167W        W21220  24.310   1.441  21.251 -0.0013 -0.1382 -0.2822
78168W        W21221  27.184  27.116  14.410  0.1653  0.1065  0.1736
78169W        W21222  31.758  19.325  28.404  0.1396  0.0700 -0.4723
78170W        W21223  11.023  26.706  26.544 -0.0730 -0.5215 -0.0280
78171W        W21224  33.995  12.023  24.529 -0.1141  0.1072 -0.2130
78172W        W21225   9.140  10.912   7.084 -0.0914 -0.2164  0.1152
78173W        W21226   3.520  20.423   8.843 -0.0698 -0.1362  0.3140
78174W        W21227  32.283  10.196  27.256 -0.2434 -0.1293 -0.0005
78175W        W21228  26.713   2.580   9.702 -0.1914  0.0568 -0.0533
78176W        W21229  22.097  12.496   2.967  0.1295 -0.2725  0.0708
78177W        W21230  29.118  16.047  29.053  0.2042  0.0228 -0.0947
78178W        W21231  18.872  19.547  14.129 -0.1581 -0.0530  0.1775
78179W        W21232  13.034   6.655   8.029  0.1067 -0.1134 -0.0496
78180W        W21233  19.051  20.695   0.758 -0.0091  0.0197 -0.1958
78181W        W21234  23.751  33.133  10.504  0.0488  0.0586  0.0356
78182W        W21235  25.887  33.593  18.281  0.1649 -0.2504 -0.1213
78183W        W21236   8.313  12.370   2.971 -0.0388 -0.0857 -0.0031
78184W        W21237  27.002  27.976  21.493  0.0751  0.3168  0.0549
78185W        W21238  11.365  14.341   5.387  0.5002 -0.0161  0.1676
78186W        W21239  22.521  22.618  23.994  0.1399 -0.1871 -0.3267
78187W        W21240  17.991  12.653   6.346  0.3103 -0.0831 -0.1281
78188W        W21241   3.400   6.340   0.758  0.1707  0.0567 -0.0506
78189W        W21242  14.792  18.479   8.102  0.0348 -0.2441 -0.3389
78190W        W21243   2.988  31.331   5.273 -0.0517 -0.0080 -0.0133
78191W        W21244  30.289  34.419   3.092 -0.1639 -0.3578  0.1506
78192W        W21245  34.316  21.511  28.132 -0.0924 -0.0138  0.1741
78193W        W21246  15.513  32.438   3.384 -0.2041  0.0156 -0.2017
78194W        W21247  14.341  29.913   6.869  0.0682  0.1155 -0.3206
78195W        W21248  31.126  21.500  28.712  0.0607 -0.0402 -0.0267
78196W        W21249  32.467  24.567   7.932 -0.1363 -0.0171 -0.4231
78197W        W21250  12.159   1.473  24.361  0.2544  0.2252  0.2792
78198W        W21251  19.892  28.284  15.747 -0.0507 -0.0871  0.0749
78199W        W21252  16.080  22.606  26.766 -0.0745  0.4234  0.0587
78200W        W21253  20.970  29.034  17.869 -0.0333 -0.4488  0.0011
78201W        W21254  16.697   2.521  15.638 -0.1966 -0.1785  0.2749
78202W        W21255  28.784  11.535   1.250 -0.1506  0.1557  0.0545
78203W        W21256   7.168  24.872   3.989 -0.1143 -0.0514  0.2509
78204W        W21257  21.737  23.043  19.802  0.0590  0.1972  0.2812
78205W        W21258   9.700  13.292  27.891 -0.0082  0.2488 -0.0248
78206W        W21259  27.578  31.356  22.731  0.2925 -0.3716 -0.0631
78207W        W21260   4.602  22.151  23.507 -0.0930  0.4242  0.1661
78208W        W21261  12.313  30.004  21.769  0.2648 -0.1290  0.0399
78209W        W21262   9.865  16.236  25.350 -0.4350 -0.1237  0.2092
78210W        W21263  16.475  20.869  28.149 -0.1576 -0.2314  0.0528
78211W        W21264  14.836  33.718  20.405  0.0006  0.3826  0.1223
78212W        W21265  31.262  25.042   8.603 -0.1202  0.1448 -0.0967
78213W        W21266   2.809  31.130  15.795  0.0063  0.0662 -0.1135
78214W        W21267   6.962  22.833  25.812  0.3101  0.2029  0.0057
78215W        W21268  22.503  30.054   4.200 -0.1323  0.2252  0.0145
78216W        W21269   2.976  33.600   2.016  0.1179 -0.0649  0.1746
78217W        W21270  11.627  29.884   1.014 -0.0022 -0.1422 -0.0813
78218W        W21271  33.674  11.101   0.821  0.1468  0.3238 -0.3726
78219W        W21272  20.264  25.210  17.396  0.4579 -0.1655 -0.1846
78220W        W21273  24.562  27.107   9.867  0.0370  0.1520 -0.2451
78221W        W21274  21.259   2.919  15.349 -0.0412 -0.0804 -0.4349
78222W        W21275  11.186  24.219   2.243 -0.0863 -0.1950  0.0856
78223W        W21276  24.397   1.593  18.666 -0.1462 -0.3717 -0.1850
78224W        W21277  10.306  28.544  25.936 -0.1613  0.0673 -0.0122
78225W        W21278  15.189  24.774   4.949  0.1556 -0.1417  0.2870
78226W        W21279  15.600  33.764  19.331  0.2841  0.3137  0.0083
78227W        W21280  21.457  33.237   1.690  0.0135  0.0166  0.0570
78228W        W21281  10.442  24.370  14.907  0.0250 -0.0857 -0.0519
78229W        W21282  22.387  29.638  28.206  0.4497  0.0825  0.0389
78230W        W21283   6.581  20.426  14.904  0.1231 -0.0073  0.1670
78231W        W21284  25.244   2.044   2.681  0.3502  0.1309  0.0705
78232W        W21285   2.329  28.689  19.482  0.0628  0.3320  0.0353
78233W        W21286   7.842  27.914   4.396  0.0439  0.2571  0.2315
78234W        W21287  24.500  31.755   5.868 -0.1865  0.1798  0.0554
78235W        W21288  30.698   8.342   4.077 -0.0613  0.0078 -0.0983
78236W        W21289  10.804  19.193  28.223 -0.1389  0.0644 -0.1004
78237W        W21290  10.715  16.681  27.413  0.2637 -0.1647  0.2224
78238W        W21291   4.836  22.901  24.124 -0.0963 -0.4403 -0.0628
78239W        W21292  18.113  25.988  10.295  0.1891 -0.0836  0.1149
78240W        W21293  22.243  25.088   9.942  0.1444  0.0674  0.2873
78241W        W21294  28.001   3.383   7.872  0.1471  0.0670 -0.1141
78242W        W21295  27.129  19.792   4.089 -0.1014  0.3881  0.5447
78243W        W21296  17.484  24.197   9.202 -0.3032  0.0236  0.0290
78244W        W21297  23.763  11.555   6.358 -0.1782  0.2416  0.2380
78245W        W21298  25.119  21.589  18.248 -0.1710 -0.1678  0.1085
78246W        W21299   1.100   4.863  18.167 -0.1918  0.0577 -0.1700
78247W        W21300  12.601  11.220  22.981 -0.3952  0.1955  0.0090
78248W        W21301   7.811  22.878   5.095  0.0992  0.0915  0.0325
78249W        W21302  13.667  18.204  23.008  0.4689  0.1453 -0.0585
78250W        W21303  24.233  29.186   7.506  0.1578 -0.0497 -0.0906
78251W        W21304  19.302  28.794   6.364 -0.2979 -0.1605 -0.2740
78252W        W21305   6.567  25.170  25.031 -0.1369  0.1750 -0.1087
78253W        W21306  15.905  20.882  26.542 -0.0620 -0.0431 -0.1354
78254W        W21307   9.729  22.305  28.614  0.0912  0.1344 -0.1082
78255W        W21308   0.127  31.956  15.263  0.1711  0.0444 -0.4209
78256W        W21309  18.901   8.001  23.048  0.1807  0.1452 -0.0839
78257W        W21310   7.104  31.495  16.253 -0.0582  0.2841 -0.2616
78258W        W21311  26.932   7.079  27.313  0.3845 -0.0559  0.0408
78259W        W21312  17.016   0.284  17.885 -0.0111 -0.0151 -0.3242
78260W        W21313  13.605  30.964   8.831 -0.0395 -0.1495  0.0486
78261W        W21314  11.751  17.966  19.250 -0.1002  0.0204 -0.0073
78262W        W21315  23.357  23.903  24.716 -0.0676  0.2068 -0.0041
78263W        W21316  15.765   4.620  24.153 -0.0497  0.0441 -0.1681
78264W        W21317  15.495  21.717  19.917 -0.0435  0.1217  0.2473
78265W        W21318   1.615  29.037   1.482  0.3399 -0.2363  0.0800
78266W        W21319   8.601  24.719  15.031 -0.1284  0.0293  0.2525
78267W        W21320  19.320  22.897  19.330  0.0988 -0.1641 -0.1108
78268W        W21321  17.714  19.506  25.189  0.3556  0.2864  0.0612
78269W        W21322  22.377  15.979  24.239 -0.0115  0.2285 -0.0680
78270W        W21323  20.723   0.501  22.278  0.1891 -0.0817  0.0151
78271W        W21324  19.471  15.768   0.424 -0.0669  0.1293 -0.1454
78272W        W21325  11.226  16.820  29.173  0.1308  0.1518 -0.2346
78273W        W21326  16.880   8.103  28.558 -0.0754  0.0491  0.0714
78274W        W21327  18.399  17.493  23.135 -0.1750 -0.1939 -0.0294
78275W        W21328   1.678  29.634   1.031 -0.0284  0.0324 -0.1460
78276W        W21329  25.578   3.456  24.939  0.1908 -0.2197 -0.2215
78277W        W21330   3.151  28.231  16.653 -0.3507  0.0308  0.1074
78278W        W21331  13.406  34.667   6.015 -0.1015  0.0886  0.0046
78279W        W21332  25.467  29.196  15.020 -0.0776 -0.1046 -0.0059
78280W        W21333   6.023  26.342  19.515  0.1126 -0.0706 -0.0559
78281W        W21334   1.814  22.518  14.402  0.0358  0.0497 -0.1808
78282W        W21335  18.530  21.861  21.123 -0.2619 -0.2846 -0.0519
78283W        W21336  13.762  26.214  18.689  0.0007  0.0427  0.0422
78284W        W21337   6.174   5.933   2.285 -0.2714  0.1312  0.0814
78285W        W21338  23.054  24.990  16.761  0.0264 -0.0307 -0.0387
78286W        W21339  30.332  25.407   0.647 -0.1930  0.0948  0.1359
78287W        W21340  20.101   8.295  22.709  0.0511 -0.1336  0.0583
78288W        W21341  15.413  30.515   3.583  0.3392  0.4650  0.0117
78289W        W21342  25.475  21.470   8.653 -0.2469 -0.1578 -0.1442
78290W        W21343   5.998  34.646   4.579 -0.0135  0.2586  0.1967
78291W        W21344  26.737   0.386  21.341 -0.0624  0.2706  0.0436
78292W        W21345   4.045  26.650  26.536  0.0019  0.0358 -0.1352
78293W        W21346  12.077  13.010  27.350  0.0555 -0.2282 -0.1699
78294W        W21347   2.513  17.711  25.493  0.2253  0.2340  0.2122
78295W        W21348  12.922  33.122   9.817 -0.1847 -0.1336  0.1889
78296W        W21349   5.080  23.721   1.610  0.2637  0.1061  0.1484
78297W        W21350   2.871   2.855  22.500  0.0615 -0.1207 -0.3446
78298W        W21351  16.190  28.286   8.021 -0.0806 -0.1152 -0.3285
78299W        W21352  16.231  24.545  18.589  0.0276  0.1204 -0.0210
78300W        W21353   5.719  33.428   5.568 -0.1924 -0.2691  0.0341
78301W        W21354  13.182  12.264  25.535 -0.2170 -0.2348 -0.1415
78302W        W21355  22.552  23.132  24.075 -0.1018  0.0923  0.3494
78303W        W21356   5.918  25.263   4.566 -0.0080 -0.1305  0.3181
78304W        W21357  11.943  11.320   4.581  0.0216  0.2070 -0.0790
78305W        W21358  14.194  25.406  16.533 -0.0749  0.0836 -0.2927
78306W        W21359  13.142  20.404   0.521 -0.2218  0.2231  0.2605
78307W        W21360  17.921  32.957  26.948  0.1948 -0.1547 -0.0104
78308W        W21361  13.006   5.790  26.462 -0.0079 -0.1845 -0.1745
78309W        W21362  22.183  19.707   5.289  0.1526 -0.0065 -0.3341
78310W        W21363   0.799  34.659  16.943 -0.0594  0.2049 -0.2552
78311W        W21364   0.191  28.749  14.663 -0.2961  0.1136  0.3239
78312W        W21365  31.161  20.787  26.720 -0.0605  0.1287 -0.2791
78313W        W21366  20.748  23.459   3.657  0.3004  0.3135 -0.1816
78314W        W21367  11.838  13.393  28.362 -0.3179 -0.3094  0.0929
78315W        W21368  17.812  22.648   3.063  0.0459 -0.1690 -0.1172
78316W        W21369  20.040   0.184  18.777 -0.1906 -0.0698 -0.1127
78317W        W21370  26.542   8.009  18.707  0.0854 -0.1343 -0.2818
78318W        W21371  28.153  24.261   8.468  0.2310  0.2941  0.1866
78319W        W21372  14.868  20.673  27.286 -0.0023  0.0727 -0.2050
78320W        W21373   7.881   3.446  15.500  0.1363 -0.1336 -0.0660
78321W        W21374   2.786  21.208  15.448 -0.0882  0.3243 -0.2747
78322W        W21375   5.573   1.548  24.811  0.0514  0.4722 -0.1906
78323W        W21376   9.603  31.509  23.471 -0.1775 -0.2018 -0.0675
78324W        W21377  19.728  16.424   4.064  0.1717 -0.0552  0.0374
78325W        W21378  30.809  21.288  29.012 -0.2366  0.2319  0.0758
78326W        W21379  24.511   0.966  24.848  0.1734  0.4599  0.0023
78327W        W21380  24.004  16.530   7.151  0.1015 -0.0621  0.1261
78328W        W21381  20.181  23.276  28.545 -0.1983 -0.0480  0.2838
78329W        W21382  11.584  26.975   2.904 -0.1410 -0.0323 -0.2378
78330W        W21383  14.001  15.970  26.640 -0.4401 -0.0146 -0.0835
78331W        W21384   9.929   1.537  20.645  0.1498 -0.1671 -0.1633
78332W        W21385  14.678  30.766   6.336 -0.2734 -0.0293 -0.1443
78333W        W21386  19.767  14.229  20.886 -0.2402 -0.0828 -0.2740
78334W        W21387   9.312  13.445   1.460  0.0270 -0.0345  0.1487
78335W        W21388  25.645  16.165  14.151  0.2852 -0.0343 -0.0194
78336W        W21389  11.111  17.968   8.096 -0.0698 -0.0046 -0.1213
78337W        W21390  32.262  20.578   2.169 -0.0524  0.1867 -0.1621
78338W        W21391  23.205  18.405  21.981  0.3699 -0.3332 -0.1333
78339W        W21392  16.884  33.161   1.500  0.0815 -0.1087  0.0929
78340W        W21393  11.604  34.047  15.471 -0.1689  0.4394 -0.0751
78341W        W21394  16.984  23.211  10.024  0.2097  0.1182  0.2833
78342W        W21395  32.097  14.782  27.822  0.0483 -0.2037 -0.0717
78343W        W21396  17.360  29.191  18.786 -0.1537  0.2199  0.1581
78344W        W21397  28.002  16.020  15.030 -0.1692 -0.0016 -0.2697
78345W        W21398  22.265  18.939   8.738  0.1163  0.2683  0.4002
78346W        W21399  29.968  12.656  21.998  0.1980  0.2166  0.0890
78347W        W21400  14.521  33.051   6.949 -0.4485  0.0808  0.1673
78348W        W21401  11.321  17.235  28.852 -0.0630  0.1091 -0.1614
78349W        W21402  16.210  16.354   7.447  0.0632  0.1225  0.2278
78350W        W21403  26.155  30.407   6.838 -0.1304  0.0117 -0.1931
78351W        W21404  17.244   6.249   8.094 -0.0633  0.0028 -0.3255
78352W        W21405  22.383  19.604  26.752 -0.1493  0.0144  0.3055
78353W        W21406  11.481  26.011  24.962  0.1753 -0.0303 -0.2163
78354W        W21407  17.051  33.019   7.278 -0.1468  0.2106 -0.0512
78355W        W21408  18.256  27.355  16.485 -0.0449  0.2417  0.4172
78356W        W21409  20.413  12.657   7.271 -0.0961 -0.0515  0.0501
78357W        W21410  19.846  23.204   4.144  0.0204  0.0501 -0.1284
78358W        W21411   7.984   1.785  18.741 -0.0453 -0.2907  0.2683
78359W        W21412  17.523  27.789  20.623  0.0157  0.0918 -0.4149
78360W        W21413  21.766  16.368   8.874 -0.1050 -0.0021 -0.0718
78361W        W21414  11.118  25.440  21.893 -0.1759  0.0895 -0.1520
78362W        W21415  18.658  21.488  27.095  0.0493  0.1886 -0.0807
78363W        W21416  13.211  26.428   5.678  0.2116  0.0046  0.3521
78364W        W21417  25.599  34.298   4.870  0.0683 -0.0697  0.0034
78365W        W21418  21.260  30.322  20.460  0.2660 -0.3989  0.1422
78366W        W21419  26.154  28.733  24.281  0.0248 -0.1195  0.1704
78367W        W21420  25.189  23.938  25.771  0.1811  0.0560 -0.1599
78368W        W21421   8.459  16.312   0.412 -0.0963  0.0172 -0.2294
78369W        W21422  22.661  27.256   1.413  0.1024 -0.2184  0.1337
78370W        W21423   7.264  26.790  25.862  0.2935  0.0198  0.3178
78371W        W21424  10.179  25.147  29.155 -0.3545 -0.2052 -0.0769
78372W        W21425  27.653   7.048   0.330  0.0037 -0.0052 -0.1351
78373W        W21426  20.345  31.505  21.665 -0.1727  0.0255  0.0186
78374W        W21427  34.537  18.627   7.142  0.2640  0.2196 -0.4694
78375W        W21428  14.467  15.985  15.641 -0.0163  0.4659 -0.0136
78376W        W21429  21.370  27.715  19.174  0.2514  0.0563  0.1657
78377W        W21430  16.123  15.968  27.630 -0.0258  0.1730  0.0456
78378W        W21431  14.598  10.323   4.246 -0.2246  0.1941 -0.0108
78379W        W21432  30.328  20.311  25.075 -0.0593 -0.0912  0.0029
78380W        W21433   8.405  18.459   6.702  0.0694 -0.2277  0.0123
78381W        W21434  11.149  14.102  26.419 -0.1936  0.1474 -0.0628
78382W        W21435  16.239  19.244   6.237 -0.2184  0.2731 -0.2299
78383W        W21436  32.210   1.902  29.150  0.0850 -0.3129  0.1039
78384W        W21437  10.076  12.359  10.438  0.2261  0.0806  0.1507
78385W        W21438  14.923  18.426  20.887  0.0561  0.3775  0.0043
78386W        W21439  18.902  20.224   2.391 -0.0958  0.4726 -0.1083
78387W        W21440   7.864   7.236   7.704 -0.1229 -0.1671 -0.0108
78388W        W21441   7.932  14.908   4.516  0.0597 -0.1968 -0.4401
78389W        W21442   6.632  22.240  25.085  0.0188  0.2222 -0.2437
78390W        W21443  11.411  20.196  20.761  0.1190  0.0974 -0.1403
78391W        W21444  11.448  31.856   7.768 -0.0919  0.1053  0.3111
78392W        W21445  33.938  13.111  18.622 -0.0339 -0.1203  0.0529
78393W        W21446   7.677  16.504   2.157  0.0225  0.0586 -0.0182
78394W        W21447   6.024  11.880  15.359 -0.0878 -0.0998  0.1207
78395W        W21448   7.439  32.324   5.178  0.1711  0.0012  0.1454
78396W        W21449   8.597  24.546  27.909  0.1470  0.0166 -0.0545
78397W        W21450  19.382  25.538   7.879 -0.1301  0.2469  0.1109
78398W        W21451  20.569  33.028  10.135  0.1880 -0.0457  0.1658
78399W        W21452   7.596  22.037   6.300  0.0170 -0.2241 -0.0213
78400W        W21453  12.211  26.573  26.118  0.0247  0.0588 -0.0126
78401W        W21454  13.986  24.180  20.296 -0.2111  0.2256  0.1701
78402W        W21455  31.200  13.299   6.511  0.1084  0.1439  0.1056
78403W        W21456  13.719  15.639  26.821  0.0738 -0.0891  0.1443
78404W        W21457  10.254   4.237   3.371  0.0469  0.2149  0.2343
78405W        W21458  13.647  33.665  14.687 -0.2696  0.0284  0.2908
78406W        W21459  10.616  22.872  14.781  0.2524 -0.3482  0.0189
78407W        W21460  17.377  15.775   9.855  0.2444 -0.2416 -0.2758
78408W        W21461  11.567  26.434   4.025  0.1595 -0.3698 -0.0211
78409W        W21462  25.615  20.785   3.737 -0.0010  0.1998 -0.2180
78410W        W21463  13.132  25.356  28.630 -0.0435 -0.1376 -0.2461
78411W        W21464  33.821  22.825  21.938 -0.3499 -0.0283 -0.1378
78412W        W21465   6.666  25.724   2.006 -0.3632  0.1900  0.0991
78413W        W21466   5.147  30.634   7.270 -0.0002 -0.1487  0.0089
78414W        W21467  30.079   3.449   0.804  0.1083  0.3027  0.0497
78415W        W21468  23.761  24.723   9.364 -0.1299 -0.0284  0.2433
78416W        W21469  19.060  19.036  25.530  0.4507  0.1375  0.4185
78417W        W21470  19.976  33.798  27.748 -0.0304  0.2718  0.1463
78418W        W21471  10.432  32.300   2.302 -0.1447 -0.0516 -0.0460
78419W        W21472  22.498  17.200  17.953  0.3568  0.0515 -0.0123
78420W        W21473   9.010   9.912  15.842 -0.1106 -0.1711 -0.0587
78421W        W21474  15.158  32.151   2.548  0.1802  0.4372  0.2009
78422W        W21475  11.657  22.097  22.500 -0.3023 -0.1279  0.0555
78423W        W21476  28.260  31.645   3.701  0.0321 -0.1858  0.1934
78424W        W21477  11.956  18.678  20.274 -0.0737 -0.1701 -0.1069
78425W        W21478  21.490  11.541  20.214 -0.0819 -0.1691  0.1380
78426W        W21479  22.395  19.802  22.779  0.1332  0.0597 -0.1274
78427W        W21480  24.502  20.277   3.869  0.1633  0.3270 -0.0991
78428W        W21481  33.400   3.423  23.576  0.2660  0.0939  0.0652
78429W        W21482  14.401  13.292  25.232  0.0792 -0.0180  0.1532
78430W        W21483  17.227   4.829   3.397 -0.2868 -0.2577 -0.0207
78431W        W21484  11.743  15.913  23.398 -0.5447  0.0068 -0.0840
78432W        W21485   9.235   3.358   1.201 -0.0430  0.1223  0.1198
78433W        W21486   4.761  20.150  19.830  0.2751 -0.0035 -0.1205
78434W        W21487  34.168  32.977  25.795  0.2893 -0.1132 -0.1791
78435W        W21488  33.217  29.671  28.226  0.0935 -0.1584 -0.0987
78436W        W21489  16.654  10.296  14.938 -0.3012 -0.0429 -0.1062
78437W        W21490  13.677  19.265   2.378  0.0371  0.1135  0.2138
78438W        W21491  16.564   9.882  26.114  0.1098  0.1878 -0.3918
78439W        W21492  21.014  29.434  15.913 -0.1847 -0.0861 -0.2114
78440W        W21493  31.102  24.751  28.035 -0.5225  0.0200 -0.0344
78441W        W21494   8.223  17.125  18.112 -0.0367  0.1197  0.2650
78442W        W21495   6.263  19.636  27.082  0.0418  0.2084 -0.0894
78443W        W21496  23.939  21.033  27.689  0.0773  0.0265 -0.1545
78444W        W21497  20.251  26.676   0.638  0.0263  0.0424  0.0665
78445W        W21498  11.204  21.912  22.718  0.2253 -0.0710 -0.1203
78446W        W21499  13.566  19.970   2.489  0.1801 -0.0495 -0.2954
78447W        W21500  16.094  33.371  23.220  0.1153  0.1159  0.0246
78448W        W21501   6.434  18.420  23.625 -0.4399  0.0149 -0.0158
78449W        W21502  23.253  17.949   5.386  0.0864  0.1524 -0.0925
78450W        W21503   1.226   5.911  23.897  0.0347 -0.0579  0.2776
78451W        W21504  18.496  22.740  22.020 -0.0581  0.0182 -0.2354
78452W        W21505   9.852  34.188  28.036 -0.0585 -0.0907  0.0417
78453W        W21506   9.454  24.029   7.066  0.0264 -0.1270 -0.0538
78454W        W21507  27.733  27.791  25.848  0.3217 -0.3717  0.0944
78455W        W21508  19.830  30.368  16.188  0.1983  0.0970 -0.4240
78456W        W21509  29.521  26.813   7.855  0.2144 -0.3246 -0.0674
78457W        W21510   7.548  31.651  21.964  0.2789  0.1949  0.0791
78458W        W21511  20.871  19.923   5.746 -0.1327 -0.0737  0.1140
78459W        W21512  30.295   3.404  16.981  0.0566  0.2187 -0.1378
78460W        W21513  32.109  31.292   4.035  0.1517 -0.0383  0.0146
78461W        W21514  22.449  32.469   9.634 -0.3104 -0.2901 -0.4515
78462W        W21515  25.712  25.723   8.213  0.1544  0.3374 -0.0956
78463W        W21516  16.642  25.209  28.940 -0.0479 -0.2382 -0.1774
78464W        W21517  19.225  34.584   5.299 -0.1080 -0.0937 -0.0452
78465W        W21518  17.458   6.017  24.790  0.1503  0.0827 -0.2730
78466W        W21519   4.359  31.738  23.398  0.2048 -0.1925  0.0448
78467W        W21520  12.513  30.360  22.054  0.1725 -0.0743  0.4386
78468W        W21521  28.780  31.413   9.147  0.1330 -0.1239  0.1677
78469W        W21522   5.562  17.719  19.792 -0.2700  0.1977 -0.1886
78470W        W21523  25.569  23.482  18.937 -0.3662  0.2069  0.1312
78471W        W21524  33.021  21.902   6.792 -0.2988  0.4287 -0.0404
78472W        W21525   1.087  15.414   0.164  0.0261 -0.1838 -0.2837
78473W        W21526  18.985  17.677   3.598 -0.1748  0.2122 -0.1515
78474W        W21527  20.807  33.455  14.312 -0.0552 -0.1196  0.0388
78475W        W21528  22.970  27.004  27.576 -0.2265  0.2731  0.1213
78476W        W21529  28.042  17.241   9.298 -0.2869 -0.0141  0.3574
78477W        W21530  22.413  21.100  22.355  0.0786 -0.1646  0.0097
78478W        W21531  16.991   1.079   1.939 -0.1457 -0.2765 -0.3736
78479W        W21532  20.723  31.917   2.049 -0.0093  0.0636  0.0656
78480W        W21533  28.211  17.001   2.256  0.0003 -0.1021 -0.0692
78481W        W21534  12.858  26.644   1.266  0.0356 -0.1120 -0.2749
78482W        W21535  19.653  21.399   5.952  0.0109  0.2545 -0.1671
78483W        W21536  15.729   9.724   1.321  0.0932  0.0780  0.4258
78484W        W21537  23.991   7.764  23.571 -0.2106 -0.1084  0.0579
78485W        W21538  20.080  20.853  20.330  0.3666  0.3751  0.1435
78486W        W21539  20.895  33.544   4.024 -0.0446  0.2358  0.3477
78487W        W21540  12.267   5.748   8.777  0.0999  0.4524  0.1202
78488W        W21541  17.325   2.325   0.515  0.0564  0.2341 -0.2218
78489W        W21542  20.349  23.077  18.465 -0.1484  0.0141 -0.1562
78490W        W21543  13.202  16.552   8.093 -0.0519  0.0468  0.3253
78491W        W21544  20.857  25.877  23.370  0.0461 -0.4646  0.0813
78492W        W21545  30.802  22.013   0.207  0.0546  0.0482 -0.1608
78493W        W21546   3.968  32.200  24.174 -0.0176  0.0909 -0.0727
78494W        W21547  29.336  19.014   0.489 -0.4904 -0.1832  0.0426
78495W        W21548   1.298  20.330  22.511 -0.2218 -0.1205 -0.0718
78496W        W21549  26.978  23.237  20.965 -0.1237  0.1112 -0.0914
78497W        W21550  24.547  21.386  28.809  0.0299  0.1065  0.1814
78498W        W21551  22.195   4.339   3.981  0.0517 -0.1139 -0.2450
78499W        W21552  21.550  28.213   0.081 -0.0873 -0.0033  0.0211
78500W        W21553   7.810  10.736  27.565 -0.4135  0.3363  0.0327
78501W        W21554   6.515  19.632   2.684 -0.1977  0.0197 -0.2147
78502W        W21555  14.700  19.691   5.349 -0.2696 -0.2099 -0.0247
78503W        W21556   8.051  17.287   4.673  0.3233 -0.1731  0.0786
78504W        W21557  32.291  29.064   7.540 -0.0350 -0.1234 -0.0928
78505W        W21558  10.017  23.451   3.613 -0.2649 -0.5337  0.1983
78506W        W21559  21.262  31.138  20.749  0.1958  0.0215  0.2142
78507W        W21560  28.249   7.767   1.712  0.2142  0.3142 -0.0349
78508W        W21561  29.277  14.734   2.121  0.1642  0.0533  0.0777
78509W        W21562  26.242  22.841  26.407  0.1837  0.1289 -0.1111
78510W        W21563   4.957  24.584  28.172  0.0218  0.0506 -0.0536
78511W        W21564  21.632  29.987   1.003  0.0994 -0.0207 -0.0424
78512W        W21565  15.232   0.458   5.099  0.0775  0.3292  0.1101
78513W        W21566  25.872  22.369   9.558  0.1962  0.0865  0.2474
78514W        W21567  15.168  20.580   7.298  0.0128  0.0402  0.0523
78515W        W21568  15.341  24.908   8.766  0.2554 -0.2043  0.3616
78516W        W21569  19.148  24.474   0.473 -0.0766 -0.0320  0.3106
78517W        W21570  11.740  12.493  22.651 -0.2425 -0.1881  0.0552
78518W        W21571   6.401  17.618   4.556  0.3958 -0.1786 -0.3121
78519W        W21572   8.184   5.972   6.284  0.3341 -0.0040 -0.1050
78520W        W21573  15.111  13.803  25.992 -0.2875  0.0895 -0.3137
78521W        W21574  27.118   6.309  14.809 -0.1537  0.0610  0.1092
78522W        W21575  11.963  27.772   4.708  0.0897 -0.0769  0.0615
78523W        W21576  20.506  26.399  19.779  0.2540  0.1360 -0.2152
78524W        W21577  16.087  23.935   4.367 -0.2612 -0.1009  0.0245
78525W        W21578   8.518  21.933  28.372 -0.0184  0.3354 -0.0283
78526W        W21579  25.066  25.085   0.638  0.2702 -0.0590 -0.0221
78527W        W21580  14.520  24.000  25.937  0.2196 -0.1517 -0.1111
78528W        W21581  21.204  27.107  26.243  0.1439  0.0931 -0.1776
78529W        W21582  27.061  21.413   5.274  0.0179  0.0348 -0.1268
78530W        W21583  17.364  20.996   2.489 -0.1642 -0.1234 -0.3327
78531W        W21584  25.370  18.933   2.201 -0.2382 -0.2065  0.0514
78532W        W21585  30.473  23.219  27.900  0.1532  0.2045  0.0531
78533W        W21586  30.237  26.719   3.031  0.0918  0.0577 -0.0708
78534W        W21587  16.365  26.393  17.077  0.0715  0.0600  0.0248
78535W        W21588  24.072   5.998   7.767 -0.1917 -0.1963  0.3226
78536W        W21589   8.724  18.331   0.028  0.1137 -0.0860 -0.0423
78537W        W21590  11.029  17.684   9.579  0.0032  0.1202 -0.0739
78538W        W21591  15.742  23.409   6.046 -0.1429  0.0511 -0.4379
78539W        W21592  30.576  13.273   2.092  0.1333  0.1994  0.3022
78540W        W21593  30.901  26.668   3.194  0.2025  0.2220  0.0311
78541W        W21594  18.993  16.778   7.375 -0.2745 -0.0265 -0.0045
78542W        W21595  15.329  15.659  15.812 -0.0710 -0.1310 -0.3226
78543W        W21596  18.688  23.079  27.874  0.2182  0.2116  0.0299
78544W        W21597   3.315  11.976   2.005  0.0876  0.1744  0.2428
78545W        W21598  19.714  19.605  27.391  0.3512 -0.1598 -0.5190
78546W        W21599   0.842  25.742   0.644  0.2919  0.0421  0.1996
78547W        W21600  22.965  31.884   7.531 -0.2215 -0.1227 -0.0347
78548W        W21601  12.996  20.345   6.815  0.1305 -0.1536  0.2478
78549W        W21602  14.205   8.106  26.094 -0.0333 -0.1070  0.2130
78550W        W21603  14.306  17.109   8.951  0.2713 -0.0239 -0.0402
78551W        W21604  14.040  10.429   6.206 -0.0330 -0.0046  0.0896
78552W        W21605  11.665  21.632   6.029 -0.0166  0.2384 -0.0972
78553W        W21606  22.804  19.501  28.444  0.2325  0.4196 -0.0450
78554W        W21607  22.539   5.168   3.732  0.1026  0.3663  0.1544
78555W        W21608  19.568   2.655  23.584  0.0491  0.1147 -0.1704
78556W        W21609   2.586  34.647   3.955 -0.0696 -0.1850  0.0618
78557W        W21610  21.534   3.295  16.787  0.0687 -0.2903 -0.1984
78558W        W21611   2.698  28.052  28.258 -0.0627 -0.2947  0.0243
78559W        W21612  16.282   1.596   7.468 -0.0884  0.0407 -0.0510
78560W        W21613  19.151  17.922   0.529 -0.4355  0.0404  0.0870
78561W        W21614  16.388  33.069  27.321 -0.4425 -0.0892 -0.1930
78562W        W21615  21.738  27.932  15.183 -0.0416 -0.1321 -0.1158
78563W        W21616   0.482  27.724   3.710  0.0451  0.2455 -0.2704
78564W        W21617   8.121   6.318  21.822 -0.0217 -0.0150 -0.0945
78565W        W21618  23.612  16.878  13.873  0.0480 -0.2944  0.2030
78566W        W21619  27.671  21.226  27.231  0.1942  0.0197 -0.0551
78567W        W21620  22.936  30.376  24.794  0.0214  0.0192  0.3500
78568W        W21621  31.702  29.061  19.103  0.0032  0.3170 -0.0574
78569W        W21622  34.147  26.228  13.503  0.1544  0.1174 -0.0296
78570W        W21623   3.198  10.397  26.195  0.0718  0.2503  0.3622
78571W        W21624   7.166  16.655  23.603 -0.0678 -0.0524 -0.2083
78572W        W21625  23.113   9.483   0.734 -0.1003 -0.1852 -0.2060
78573W        W21626  11.251  23.570  18.399 -0.2027  0.0922  0.2046
78574W        W21627  11.945  13.106  15.196 -0.0783  0.1352 -0.2126
78575W        W21628  29.627  23.519  21.185 -0.2212 -0.2839  0.1859
78576W        W21629   7.858  21.123  20.419 -0.1555  0.0920 -0.0799
78577W        W21630  20.224  24.060  29.074 -0.2258  0.3360 -0.1163
78578W        W21631   8.447   4.176  21.259  0.0823  0.0530 -0.0960
78579W        W21632  33.108  25.331  14.517 -0.2254  0.1197 -0.0423
78580W        W21633  19.528  24.814  23.084 -0.1588 -0.0179  0.1375
78581W        W21634  11.661  17.750  23.666  0.0970 -0.0175 -0.0110
78582W        W21635   6.174  22.948  25.649 -0.1190 -0.2005  0.0361
78583W        W21636  15.723  23.224  18.881  0.1209 -0.1622  0.0830
78584W        W21637  13.697  32.332  23.556  0.0610 -0.0701  0.1618
78585W        W21638  22.253   1.115  24.946  0.1275  0.1715  0.0541
78586W        W21639  15.538   8.794  16.826 -0.0234 -0.0741 -0.0881
78587W        W21640   7.294  19.071  13.512 -0.1897 -0.2910  0.2718
78588W        W21641  14.588  25.203  16.176 -0.1429 -0.1269  0.0647
78589W        W21642  12.779  16.115  27.844 -0.0261  0.1178  0.0982
78590W        W21643  19.906   5.429  27.465 -0.4714  0.0883 -0.0808
78591W        W21644  22.893  21.438  20.482  0.1673  0.0010  0.1445
78592W        W21645  24.426   5.890  21.999 -0.2111 -0.2332  0.1172
78593W        W21646   3.750  29.634   2.746  0.1475 -0.1905 -0.2611
78594W        W21647  26.808  19.999  16.811 -0.2821  0.3507  0.0656
78595W        W21648  13.828   2.205  22.196  0.0928 -0.1444 -0.1189
78596W        W21649  15.384  32.150  25.807 -0.0856 -0.1003  0.1673
78597W        W21650  25.703   2.472   4.910 -0.0329  0.2168  0.2329
78598W        W21651  19.623  26.591  24.861  0.0030 -0.0065  0.1147
78599W        W21652   4.505  27.120  26.136  0.1171  0.2211 -0.0996
78600W        W21653  25.788  31.576  20.629 -0.1292  0.1788 -0.0543
78601W        W21654  28.930   0.034  25.909  0.1152  0.0380 -0.0753
78602W        W21655  23.179  18.911  15.397  0.3220  0.2846  0.0898
78603W        W21656  10.116  27.893  20.717  0.0923  0.4667 -0.1119
78604W        W21657   8.193  25.120  23.999  0.3678  0.0100  0.0498
78605W        W21658  12.118  14.129  23.363 -0.0069  0.1231  0.0373
78606W        W21659   0.685   8.050  26.663  0.3591  0.3940  0.0668
78607W        W21660  22.114  16.908  16.304  0.2326 -0.2235  0.1298
78608W        W21661  24.565   0.273  18.847  0.1449 -0.0599  0.1888
78609W        W21662   5.129  12.234  15.021 -0.1190  0.0933  0.2650
78610W        W21663  14.883   2.862  28.347  0.0598 -0.0329 -0.0956
78611W        W21664  26.237  26.145  16.663 -0.0363  0.0120 -0.1743
78612W        W21665  30.850  21.362  26.955  0.0519 -0.4216  0.3091
78613W        W21666  18.909  28.941  15.879  0.3147 -0.0370 -0.3582
78614W        W21667  19.836  24.399  15.047  0.0174 -0.1805 -0.0831
78615W        W21668  14.317  26.919  17.356  0.1198 -0.2511 -0.2500
78616W        W21669  11.467  19.461  25.695  0.0317 -0.0439 -0.0327
78617W        W21670  20.935  17.614  13.646 -0.1029  0.0535  0.2163
78618W        W21671  30.935  10.250  15.907 -0.0335  0.1896  0.0407
78619W        W21672  28.201   1.246  29.033  0.0193  0.1403 -0.2660
78620W        W21673  18.159  14.440  25.506 -0.0556 -0.0168  0.0395
78621W        W21674  13.870  27.953  16.147  0.0694  0.0457 -0.0127
78622W        W21675  10.220   3.007  22.768 -0.0390 -0.3005  0.1255
78623W        W21676  28.408  17.007  23.508 -0.4024  0.2059  0.0465
78624W        W21677  14.024  20.358   8.640 -0.0048  0.0032 -0.2618
78625W        W21678   4.240  24.657  24.133  0.2716  0.0921  0.1357
78626W        W21679   8.319   6.843  17.666  0.0379  0.0341  0.0449
78627W        W21680   3.958  14.698  16.305 -0.0331 -0.1485  0.2713
78628W        W21681   4.106  28.312  16.039  0.0799 -0.1193 -0.0853
78629W        W21682  15.095  25.249  24.298 -0.1778 -0.2694 -0.0757
78630W        W21683  30.916  12.836  23.410  0.1997  0.0397  0.1985
78631W        W21684   3.241  28.461  14.904 -0.2918  0.0856 -0.1055
78632W        W21685  13.675  15.032  28.142  0.1348 -0.1739  0.2510
78633W        W21686  17.117   2.654  19.584  0.0436  0.0563  0.0961
78634W        W21687  31.896  25.885  14.209  0.0373  0.0474  0.1664
78635W        W21688  22.028  19.249  17.142 -0.1690  0.1496 -0.2617
78636W        W21689  28.456  30.227  28.958  0.2208  0.3334  0.0489
78637W        W21690   5.318  18.328  16.886 -0.0053  0.1523 -0.2984
78638W        W21691  21.779  11.575  17.473 -0.2462 -0.1486 -0.1307
78639W        W21692  20.409  34.150  15.628 -0.0743 -0.1544  0.1634
78640W        W21693  16.345  24.612  23.181  0.0699 -0.0503  0.1719
78641W        W21694   6.682  34.516   1.924 -0.1033 -0.2261 -0.0456
78642W        W21695   8.275  10.200   0.381 -0.1319  0.1390  0.1836
78643W        W21696  19.068  21.953  22.465 -0.1724  0.0615 -0.1352
78644W        W21697   3.730  21.085  19.093 -0.1486 -0.1141  0.1689
78645W        W21698  24.590   3.028  17.075 -0.0259 -0.1350  0.1026
78646W        W21699  15.528  14.402  16.253 -0.1177 -0.0578  0.1837
78647W        W21700   9.559  18.850  23.553  0.0812  0.3092 -0.1788
78648W        W21701  20.733  32.111  26.429  0.0796 -0.0362  0.2501
78649W        W21702   4.406  32.540  19.919 -0.0657  0.2120 -0.0308
78650W        W21703  22.822  33.297  19.503 -0.3635  0.2203  0.1916
78651W        W21704   9.481  18.159  15.330  0.0403 -0.1296  0.1642
78652W        W21705  14.487  31.443  20.171 -0.1426  0.1093 -0.3020
78653W        W21706  14.557  34.252  18.191 -0.0610  0.2440 -0.0666
78654W        W21707  15.912  24.177  17.352 -0.0735 -0.0902 -0.2084
78655W        W21708  27.161   3.521  18.490 -0.1340 -0.2326 -0.0987
78656W        W21709  30.820   6.098  19.320 -0.0283 -0.0265  0.2558
78657W        W21710   5.983  23.132  21.954 -0.1172 -0.4104 -0.0176
78658W        W21711  25.504  27.248  18.573  0.1345  0.3600 -0.2561
78659W        W21712  13.825  26.046  16.525  0.3377  0.0915 -0.2284
78660W        W21713   4.602  18.695  27.596 -0.4094  0.1712 -0.0302
78661W        W21714  34.569  30.549  26.222  0.0972  0.3744  0.2711
78662W        W21715   3.121  32.507  24.035 -0.1880 -0.3576 -0.2223
78663W        W21716  24.742  25.394  20.662  0.0103  0.0270 -0.2023
78664W        W21717   9.847  22.105  16.874  0.3957  0.0443  0.1312
78665W        W21718  10.848  22.321  22.886 -0.1646 -0.2352  0.1755
78666W        W21719  31.567   6.013  25.320  0.0530 -0.1797 -0.1030
78667W        W21720  18.280  31.625   7.010 -0.1063  0.2363 -0.2739
78668W        W21721  13.144  31.465  20.872  0.1907  0.0840  0.0534
78669W        W21722  13.182  21.980   4.097  0.3582  0.0142 -0.2474
78670W        W21723  12.712  24.925  19.354 -0.0558 -0.0610  0.2495
78671W        W21724  12.995  28.277  27.416  0.0913 -0.0001 -0.0727
78672W        W21725  22.570  25.061  22.255  0.1757 -0.1909 -0.0126
78673W        W21726  15.009  30.003  15.030 -0.1242 -0.1428 -0.0159
78674W        W21727  22.209  33.528  21.123 -0.3956 -0.1171  0.0164
78675W        W21728  15.424  28.620  26.374 -0.0130  0.2269 -0.0648
78676W        W21729   4.266  16.994  19.832 -0.1567  0.1045  0.1244
78677W        W21730   9.373  30.633  17.915  0.0681  0.1100 -0.2538
78678W        W21731   7.182   5.043  16.577 -0.2621 -0.0892 -0.0278
78679W        W21732  25.113  31.682  16.483 -0.2059 -0.1579 -0.2373
78680W        W21733  26.343  23.851  16.966  0.1088 -0.0004 -0.0350
78681W        W21734  22.097  23.696  25.846  0.0456  0.2563  0.3715
78682W        W21735  12.513  29.043  20.823  0.0289  0.1440  0.0004
78683W        W21736   6.398  27.399  27.585 -0.0698 -0.0029 -0.0266
78684W        W21737   9.093  14.967  17.503  0.0814 -0.0013 -0.0740
78685W        W21738   8.952  26.743  13.530 -0.0245  0.3715  0.2931
78686W        W21739   5.388  23.426  20.583 -0.2943  0.2571  0.4299
78687W        W21740  15.508  20.789   3.758  0.1486  0.0024 -0.1353
78688W        W21741  11.642  22.264  25.682 -0.1344 -0.3641 -0.1683
78689W        W21742  20.681  10.773  19.563 -0.4155 -0.0786  0.0837
78690W        W21743   7.155  21.149  17.513 -0.1621  0.4027  0.0213
78691W        W21744  23.723  11.604   0.831  0.2332  0.1276 -0.1234
78692W        W21745  11.028  22.805  13.815  0.1782 -0.0489 -0.0214
78693W        W21746  32.029  29.177  20.357  0.2315 -0.1046  0.0275
78694W        W21747  13.416  16.444  27.123 -0.1189 -0.0463  0.1510
78695W        W21748   0.419  27.383  16.810  0.2378  0.1005  0.0173
78696W        W21749   8.540  33.329  19.909 -0.1751 -0.2157  0.1810
78697W        W21750  19.765   4.904  21.499  0.1524 -0.3226 -0.0062
78698W        W21751  26.024  19.454  21.500 -0.1583 -0.1272  0.0019
78699W        W21752   3.033  26.495  14.410  0.0752  0.0641  0.0699
78700W        W21753  12.444  10.627   1.075 -0.1517  0.0190 -0.1921
78701W        W21754  18.329  29.699  17.614  0.3298  0.0388 -0.1325
78702W        W21755  28.186   7.056  15.045 -0.1770  0.1972 -0.1879
78703W        W21756   5.572  31.960  15.319  0.1413  0.3349  0.0048
78704W        W21757  15.321  22.209  16.290 -0.0341 -0.0664 -0.2924
78705W        W21758  17.917  25.404  26.779 -0.3116  0.1592  0.1171
78706W        W21759  21.411  26.563  25.997 -0.0806  0.1523  0.0181
78707W        W21760  29.982  28.971  14.767 -0.0120  0.0438  0.1384
78708W        W21761   7.624  18.895  16.807 -0.3382 -0.0070 -0.0682
78709W        W21762   9.055  26.729  14.047 -0.0429  0.2761  0.0016
78710W        W21763  10.248  26.065  13.427  0.0507  0.1921 -0.4438
78711W        W21764   5.240  28.009  15.248  0.0065  0.1125 -0.1754
78712W        W21765  27.971  17.544   1.111 -0.3806 -0.0112 -0.0138
78713W        W21766  28.716  16.752  19.107 -0.1387  0.0130 -0.1565
78714W        W21767   2.606   2.424  26.690  0.0659  0.0583 -0.1356
78715W        W21768  15.796  27.627  22.066 -0.0196  0.2544  0.0344
78716W        W21769  32.798  31.003  17.323  0.1982 -0.0252  0.1540
78717W        W21770  14.972  10.542  17.865  0.1808 -0.3248  0.3502
78718W        W21771  14.130  19.916  15.222  0.2594 -0.2560  0.2064
78719W        W21772   9.584  31.819  15.620 -0.0255  0.2128  0.1639
78720W        W21773   4.149  21.784  15.893  0.3574  0.1661 -0.1005
78721W        W21774  19.571   0.168  28.677  0.1235  0.0346 -0.2835
78722W        W21775  26.608  31.218   1.108 -0.3464  0.2371  0.1719
78723W        W21776  25.379  29.259  26.461 -0.3253 -0.1346  0.2325
78724W        W21777  22.956  32.058  21.360  0.1935  0.0034  0.1592
78725W        W21778  34.410   4.400   6.668 -0.3924 -0.1693  0.4022
78726W        W21779  12.138   7.594  19.025  0.2129 -0.0512  0.0728
78727W        W21780  21.281   3.792  26.943  0.1859 -0.0364  0.0185
78728W        W21781  16.513  32.529  22.669 -0.0207  0.1461  0.3276
78729W        W21782  15.274  32.770  18.509  0.1920 -0.2052  0.0613
78730W        W21783   3.367   3.389   6.810 -0.1632  0.2164  0.1016
78731W        W21784   7.500  23.792  17.528  0.0908  0.1762  0.0370
78732W        W21785   5.815  13.679  22.630  0.0852 -0.1340  0.3827
78733W        W21786  13.209   6.201  28.548  0.1766 -0.0877  0.0922
78734W        W21787  17.633  14.243  13.589  0.1802  0.0778 -0.0649
78735W        W21788  11.951  12.677  22.234  0.1303  0.1809 -0.0720
78736W        W21789  15.768  22.778  21.749  0.1132  0.1773  0.2000
78737W        W21790  29.310   2.494  25.624  0.0686  0.1024  0.0862
78738W        W21791  25.466  22.850   1.950 -0.0571 -0.1949  0.0474
78739W        W21792  31.621   6.776  23.942 -0.3177 -0.0626  0.1097
78740W        W21793  16.246   2.460  21.914 -0.3500 -0.3609  0.0193
78741W        W21794  14.521  26.825  18.951 -0.0419 -0.0460  0.3560
78742W        W21795  15.133  19.976  21.900 -0.1168 -0.1205  0.3352
78743W        W21796  23.806   8.861  15.324  0.0890  0.1322 -0.0059
78744W        W21797  10.907  13.646  24.783 -0.2459  0.4226  0.0087
78745W        W21798  29.140  27.960   3.073  0.0189 -0.0977  0.0640
78746W        W21799  29.442  15.095  20.692 -0.1361 -0.0592  0.0682
78747W        W21800   8.627  30.319  13.459 -0.0486 -0.3325 -0.2511
78748W        W21801   4.770  13.043  23.649 -0.2946 -0.1914 -0.1636
78749W        W21802   7.673  25.454  15.465  0.1721 -0.1290 -0.0295
78750W        W21803  21.446   9.303  21.675 -0.3372  0.1275  0.0545
78751W        W21804  22.907  20.178   8.152  0.0839  0.0049 -0.1518
78752W        W21805   9.428  15.927  20.993 -0.3403 -0.2356 -0.0756
78753W        W21806  12.650  20.625   0.271  0.1394 -0.1746 -0.1173
78754W        W21807   0.226  32.270  24.884  0.1609 -0.0797  0.2099
78755W        W21808  16.238  20.658  14.781  0.6314 -0.0378 -0.1990
78756W        W21809   8.504   1.434   2.169 -0.0084 -0.0325  0.0053
78757W        W21810  13.016  23.734  20.744 -0.0715  0.2942  0.1953
78758W        W21811  30.563   9.346  26.678 -0.0361  0.1010  0.1458
78759W        W21812  20.274   9.135  16.574  0.1852  0.1127 -0.1505
78760W        W21813  18.123  29.905  18.255  0.2530 -0.3607 -0.2960
78761W        W21814  18.256   4.546  27.955 -0.1459  0.2506 -0.1432
78762W        W21815  15.525  20.504  15.983  0.0459 -0.0258 -0.1192
78763W        W21816  20.434  11.481   5.969  0.0331 -0.0904 -0.0851
78764W        W21817   1.436  27.754  25.904  0.2196  0.1317  0.0317
78765W        W21818  18.412   5.496  15.830  0.0471 -0.2395  0.1816
78766W        W21819   7.132  23.010  17.404 -0.2566 -0.0271 -0.0697
78767W        W21820  21.643  31.012  19.575  0.2624  0.0971 -0.0785
78768W        W21821  14.613  27.042  16.918 -0.2960  0.3466  0.1814
78769W        W21822  25.545   4.457  19.658  0.3031  0.1683  0.0479
78770W        W21823   4.966  20.038  15.471  0.1669  0.2256 -0.4981
78771W        W21824  19.481  28.656  27.255 -0.2568 -0.2764  0.1552
78772W        W21825  29.859   8.983  24.502  0.3320 -0.1606  0.3698
78773W        W21826   2.326   2.395   3.104  0.0008 -0.0251 -0.2294
78774W        W21827  23.682   0.710  14.940 -0.0572 -0.0806  0.0744
78775W        W21828  11.349  22.664  28.495  0.3971  0.2936 -0.0707
78776W        W21829   3.591  33.475  20.261  0.2100  0.0127  0.1767
78777W        W21830  14.547  30.124  21.704  0.3558  0.1222 -0.0230
78778W        W21831  11.367  15.484  22.369 -0.1715 -0.0387  0.1326
78779W        W21832  16.414  33.115  25.377 -0.1149 -0.1104 -0.1078
78780W        W21833  29.735  21.481  19.451  0.1591  0.1010 -0.0198
78781W        W21834   8.442  32.955  16.133  0.0584 -0.1646 -0.1736
78782W        W21835  13.961  26.948  13.355  0.0275  0.2982  0.0268
78783W        W21836   9.314  24.019   1.157 -0.4371  0.1049 -0.0984
78784W        W21837  10.885   1.768  14.211 -0.5329  0.0951 -0.1341
78785W        W21838   9.847  13.643  18.910  0.2090  0.2702 -0.0664
78786W        W21839   9.319  31.862  18.711 -0.0644 -0.0231 -0.3795
78787W        W21840  22.089  29.524  21.367  0.2863 -0.1898  0.1016
78788W        W21841   0.283   7.200  16.912 -0.0309  0.1518 -0.1363
78789W        W21842  11.659  13.231  21.390 -0.3550 -0.0855 -0.0166
78790W        W21843  18.091  24.466  15.400 -0.2141 -0.0989  0.0508
78791W        W21844  16.108   0.033  18.003 -0.1095  0.2010 -0.1748
78792W        W21845  13.036  21.008  15.482 -0.0255 -0.1037  0.2403
78793W        W21846  14.970  27.303  16.617  0.4903  0.3940  0.1029
78794W        W21847  21.337  19.804  27.429 -0.1223 -0.1150  0.4448
78795W        W21848  20.865  22.616  25.110  0.0254  0.2200 -0.3003
78796W        W21849  21.303  11.488  24.307  0.4795  0.1347 -0.1157
78797W        W21850   8.945  29.258  19.218 -0.1659  0.1238 -0.0116
78798W        W21851  21.846  34.028  20.424  0.1285  0.3093  0.1797
78799W        W21852  22.402  30.200  23.358 -0.0929 -0.2426 -0.1606
78800W        W21853  32.919  34.105  24.761 -0.3965 -0.1386 -0.0676
78801W        W21854   9.820  25.221   7.021 -0.1463  0.0383  0.1328
78802W        W21855  21.419  15.612  14.177 -0.0978  0.1689 -0.2306
78803W        W21856  25.362   3.267  27.765  0.0247  0.2398  0.2222
78804W        W21857   7.829  30.056   3.146  0.1455 -0.1181  0.1630
78805W        W21858  13.648  14.315  18.248  0.0094 -0.0993 -0.3698
78806W        W21859  10.959  23.465  18.764 -0.0014 -0.0546  0.0176
78807W        W21860   9.412  31.685  16.582  0.0306 -0.2123 -0.4731
78808W        W21861  33.975  20.607  14.355  0.0091 -0.0564  0.0942
78809W        W21862  10.311   4.016  27.652  0.4198 -0.0551  0.0925
78810W        W21863  18.988  30.738  19.062  0.0518 -0.0532  0.0210
78811W        W21864  25.013  34.024  15.029  0.0717  0.0845  0.0206
78812W        W21865   5.455  28.640  23.507  0.3479  0.0220  0.0787
78813W        W21866  19.488   0.980  20.972 -0.1932  0.2277 -0.2046
78814W        W21867   5.931  21.352   2.083  0.1094 -0.1078  0.4920
78815W        W21868  14.484   2.057  14.020  0.0533 -0.5093  0.1326
78816W        W21869  26.430  19.315  27.672 -0.1872  0.1961 -0.1859
78817W        W21870  21.031   9.671  13.816 -0.2001  0.1369 -0.2535
78818W        W21871  16.860   5.728   1.292 -0.1158  0.1451 -0.3367
78819W        W21872   6.970  20.007   3.310 -0.1569  0.0909 -0.1772
78820W        W21873  21.093  29.907  28.381  0.0831 -0.1711 -0.1264
78821W        W21874  19.462  32.024  21.934 -0.2049 -0.0037  0.1322
78822W        W21875  25.913  32.944  29.167 -0.1167 -0.1587  0.3904
78823W        W21876  17.456   7.176  21.234  0.2228  0.1942 -0.0657
78824W        W21877  28.650  26.470  19.335 -0.0729 -0.0164  0.0543
78825W        W21878  22.874  25.398  18.287 -0.0098  0.0285 -0.0736
78826W        W21879  19.190   7.316  21.724 -0.2200  0.0757  0.2858
78827W        W21880   4.666   3.347  29.170  0.0387  0.3289 -0.0101
78828W        W21881  25.076  16.574  19.233  0.0023  0.0003  0.1762
78829W        W21882  10.257  20.823  20.060 -0.2532 -0.1178 -0.0436
78830W        W21883  26.352  32.675  14.958  0.1574  0.2950  0.1999
78831W        W21884   3.037  12.432  16.764  0.0665  0.0476  0.2285
78832W        W21885  15.234  27.286   5.769  0.2042  0.4123  0.1328
78833W        W21886  10.041  11.753  23.053  0.1659  0.1400  0.2893
78834W        W21887  19.044  30.381   2.380  0.0126  0.1897  0.1697
78835W        W21888  11.077  31.396  16.705 -0.0237 -0.1307 -0.1286
78836W        W21889   7.603  30.591  17.005 -0.1258  0.0639 -0.3105
78837W        W21890  17.419  15.677  13.970  0.0115  0.1781  0.1661
78838W        W21891   4.990   6.920  15.653 -0.2257  0.0648  0.1393
78839W        W21892  10.083  22.093  23.536  0.2033  0.1232 -0.1502
78840W        W21893  32.851  25.019  23.055  0.2299  0.0434 -0.1130
78841W        W21894   0.976  24.288  24.126  0.0959 -0.0786  0.0994
78842W        W21895  12.990  24.263   4.362 -0.0899  0.0526 -0.2362
78843W        W21896   1.813  28.888  20.757  0.2615  0.3234 -0.2193
78844W        W21897   7.419   2.121  29.087  0.0533  0.2311 -0.3286
78845W        W21898  13.781  14.854  15.479 -0.0215  0.0025 -0.0331
78846W        W21899  10.232  18.307  20.338 -0.0550 -0.3460  0.0997
78847W        W21900   2.575  20.517  27.483 -0.2041 -0.0176 -0.3683
78848W        W21901  16.403  26.897  21.037  0.0049 -0.3342 -0.1372
78849W        W21902   9.978   0.821   3.907 -0.0721  0.0442  0.0180
78850W        W21903   8.392  30.949  19.573  0.0981 -0.2351  0.0545
78851W        W21904  34.331  26.452   3.311  0.1116  0.1100 -0.1475
78852W        W21905   7.907  33.845  21.836 -0.0595  0.2997 -0.4541
78853W        W21906  15.802  16.361   5.106  0.1563 -0.3502 -0.1533
78854W        W21907  10.626  19.772  20.392 -0.2631  0.0413  0.0085
78855W        W21908   3.224  25.732  27.218  0.3391  0.4137  0.0024
78856W        W21909   8.460  22.430  28.082 -0.0128 -0.3178 -0.1103
78857W        W21910  13.227  25.267  22.653  0.1601  0.0211  0.1439
78858W        W21911   5.902  34.414  25.935 -0.0006  0.4919 -0.0049
78859W        W21912   6.919   0.816  18.598 -0.2927 -0.1202 -0.1329
78860W        W21913  18.579  26.066  15.253  0.0088 -0.2975 -0.1749
78861W        W21914  17.870  26.163  22.598  0.1321  0.4518 -0.1258
78862W        W21915  13.263  24.723  19.491  0.4151  0.0162  0.2074
78863W        W21916  20.589  13.968  17.879  0.2315  0.2118 -0.1243
78864W        W21917  20.409   0.207  26.641 -0.1749  0.1163  0.0538
78865W        W21918  23.064  33.759  22.382  0.0577 -0.0206  0.2315
78866W        W21919  13.519  26.055  24.715  0.0783 -0.2943  0.3368
78867W        W21920  10.597  23.649  13.542 -0.1780  0.1387  0.3439
78868W        W21921  19.713  11.979   0.885 -0.0572  0.1180  0.0792
78869W        W21922  26.825  32.740   2.772 -0.2347  0.2086  0.0920
78870W        W21923  13.600   8.818  16.357  0.0975 -0.1079  0.3169
78871W        W21924  17.846  24.885  16.181 -0.1870 -0.0407 -0.4251
78872W        W21925   5.440  26.268  20.223  0.1557  0.2537 -0.1249
78873W        W21926  12.971   2.349  19.406 -0.0323 -0.0554  0.0947
78874W        W21927  19.371  32.729  19.926 -0.0143 -0.2562 -0.2332
78875W        W21928  18.765  30.278  22.613 -0.0724  0.4783 -0.0944
78876W        W21929   5.422  20.769  24.064  0.1764  0.0167  0.1047
78877W        W21930  24.782  23.941  18.859  0.0819 -0.0932  0.1910
78878W        W21931   8.759  25.426  18.622 -0.0792  0.1026  0.1656
78879W        W21932  30.995  27.516   4.202 -0.3410  0.1630 -0.1708
78880W        W21933  22.794  28.635  18.715  0.2194  0.0594  0.3974
78881W        W21934  28.802  20.326  27.863 -0.1709  0.2196 -0.0612
78882W        W21935  16.661  21.373  26.030  0.1912  0.0155 -0.1899
78883W        W21936   8.632  25.185  19.615 -0.1294 -0.0587  0.0964
78884W        W21937  27.352  21.277  15.719  0.0455 -0.2745  0.1008
78885W        W21938  10.848  23.220  21.504  0.2644 -0.0847 -0.1577
78886W        W21939  23.321   1.233  22.102 -0.0784  0.4603  0.2196
78887W        W21940  13.753   0.064  17.315  0.0648  0.0273  0.2553
78888W        W21941   7.280  13.979  19.714 -0.2041 -0.1557 -0.3363
78889W        W21942  25.565   6.363  13.638 -0.0234  0.1337  0.3069
78890W        W21943  17.272  14.678  13.759 -0.0447  0.1628 -0.1639
78891W        W21944   8.929  30.352   0.503  0.1084  0.6608 -0.0226
78892W        W21945  14.857  27.719  20.119 -0.1988 -0.0376  0.3218
78893W        W21946  26.061  30.088  25.685 -0.0608  0.2025 -0.2509
78894W        W21947  16.036   9.192  25.648  0.0133  0.2095 -0.2018
78895W        W21948  19.297   0.721  16.038  0.1288 -0.1284 -0.1519
78896W        W21949  24.803   6.729  28.709 -0.0746 -0.1015 -0.1729
78897W        W21950  21.372  30.115  24.240 -0.1236 -0.0669  0.1151
78898W        W21951  12.423   3.010  14.237  0.0070  0.0979  0.3712
78899W        W21952  12.996  21.305  25.447 -0.0237  0.2703 -0.0347
78900W        W21953  29.101  25.365  23.269  0.1234 -0.5721 -0.0234
78901W        W21954   9.494   3.121  24.667 -0.1226  0.0636 -0.1572
78902W        W21955   4.133  31.566   5.830  0.1577  0.0925  0.1394
78903W        W21956  12.967  23.533  14.498 -0.2318 -0.2429 -0.1058
78904W        W21957   6.582  13.137   2.114 -0.2969 -0.1785 -0.2031
78905W        W21958  10.253  29.444  20.524 -0.2842 -0.1984 -0.3990
78906W        W21959   5.788  28.391  20.109  0.1358 -0.1818  0.0611
78907W        W21960  15.199  30.617  20.670  0.1621  0.2650 -0.3004
78908W        W21961  10.607  33.280  15.975  0.0498  0.2476  0.2938
78909W        W21962   3.239  24.851  26.701  0.1898  0.1353  0.0960
78910W        W21963  12.342  29.904  16.948 -0.0496  0.0017  0.1837
78911W        W21964   8.570  15.693  19.287  0.0886 -0.2149  0.2429
78912W        W21965  10.689  29.044  13.064 -0.5031 -0.0533 -0.1716
78913W        W21966  16.083  28.383  16.249 -0.0728 -0.0358 -0.0408
78914W        W21967  11.160  17.930  23.456 -0.0560 -0.0389 -0.2915
78915W        W21968  23.740  32.997  19.446 -0.3438  0.0925 -0.2007
78916W        W21969   1.176   0.799  21.820 -0.1150 -0.0441 -0.3392
78917W        W21970   9.294  26.069  27.689 -0.2944  0.2513  0.1927
78918W        W21971  16.286  22.855  16.300 -0.0276  0.0131  0.0475
78919W        W21972  10.802  28.763  20.071 -0.3063 -0.1358 -0.3237
78920W        W21973  10.417  29.664   8.308  0.2469  0.0580  0.1252
78921W        W21974   3.043   9.964  29.147 -0.0739 -0.3211  0.0662
78922W        W21975  11.581  21.316  18.645 -0.0698  0.0627 -0.3008
78923W        W21976   0.524   6.945   5.917 -0.1162  0.2525 -0.0027
78924W        W21977  23.261   1.373  26.312 -0.0707 -0.1418  0.3213
78925W        W21978  19.998  33.291  18.134 -0.3922 -0.1342 -0.0764
78926W        W21979   7.637  19.244  17.921  0.2323 -0.2383 -0.2673
78927W        W21980  16.256  21.639  13.569 -0.0690  0.3057  0.2470
78928W        W21981  14.279  24.235  22.127 -0.0651  0.0226  0.1056
78929W        W21982  20.318   9.290  24.736  0.2607  0.1633 -0.2017
78930W        W21983  18.670  25.275  14.906  0.0420 -0.0150  0.2469
78931W        W21984   3.078  27.256   2.481 -0.0555 -0.2307  0.0780
78932W        W21985  31.163  30.577  25.643 -0.0199 -0.0774  0.0486
78933W        W21986  18.781  20.815   9.793  0.1196  0.3882 -0.2779
78934W        W21987  20.664  25.112  19.755  0.0664  0.0816  0.0495
78935W        W21988   7.224  28.490  14.243 -0.1472 -0.0734  0.0774
78936W        W21989  13.026  20.093  20.358 -0.1372 -0.2114  0.0902
78937W        W21990  12.607  33.088   0.293  0.0885  0.4520  0.0531
78938W        W21991   8.557  15.884  25.983 -0.2723 -0.2855 -0.1912
78939W        W21992  14.928   1.717  25.047  0.0907  0.2127  0.0840
78940W        W21993  16.845  23.555  17.073 -0.1461 -0.4921  0.4657
78941W        W21994  24.325  32.485  22.027 -0.3271  0.4255  0.0612
78942W        W21995   3.134  14.623  14.990  0.0399  0.0900 -0.0486
78943W        W21996  11.822  21.560  28.930  0.1269 -0.0284  0.0036
78944W        W21997  11.540  19.091  26.077 -0.2598  0.0773  0.0875
78945W        W21998   0.159  33.237   7.180 -0.4627 -0.1149 -0.2597
78946W        W21999  24.638  28.153  24.412 -0.2135 -0.1164  0.1112
78947W        W22000  24.010   0.211  15.123 -0.1485 -0.0957 -0.0034
78948W        W22001  16.668  29.951  18.741 -0.1801  0.1913 -0.0336
78949W        W22002  31.878   0.236  15.177 -0.0480 -0.1076  0.0939
78950W        W22003  11.252  25.216  22.776 -0.1364 -0.0907  0.1563
78951W        W22004  13.292  33.913  17.643 -0.0931  0.0077  0.0711
78952W        W22005   1.448   0.603  23.151 -0.2744  0.0007  0.3466
78953W        W22006  18.707  19.132   6.699  0.0362 -0.0518 -0.2080
78954W        W22007  26.831  32.474  14.685 -0.2219  0.1265 -0.3110
78955W        W22008  10.491   7.476  21.309 -0.1277  0.2413  0.1101
78956W        W22009  13.450  22.838   3.111  0.1718  0.0808  0.1296
78957W        W22010  16.405  31.971  20.862 -0.4109 -0.2996  0.0660
78958W        W22011  11.389   1.620  14.894 -0.2924 -0.1325  0.0251
78959W        W22012   7.697   6.274  18.942  0.1857 -0.0245 -0.2986
78960W        W22013   8.898  25.000  18.426 -0.0962  0.0259  0.1765
78961W        W22014  12.515  11.924   7.118  0.2782  0.0583 -0.0330
78962W        W22015  24.336   2.046   1.034  0.0709 -0.2207 -0.1429
78963W        W22016  10.817  26.762  13.881  0.2791  0.0903  0.3426
78964W        W22017   6.764  19.827  20.738 -0.0750  0.2227  0.3983
78965W        W22018  21.122  26.614  17.188  0.0372  0.0418 -0.1127
78966W        W22019  20.920  22.559  18.646  0.2752  0.2583 -0.1528
78967W        W22020  20.837  27.049  17.416  0.0921  0.3160 -0.2872
78968W        W22021  18.133  32.925  23.295  0.1117  0.1709 -0.1660
78969W        W22022  12.571  26.457  18.768  0.0515  0.2385 -0.0806
78970W        W22023   7.089  13.182   2.436  0.3306  0.1311 -0.0003
78971W        W22024  25.779  24.965  17.271 -0.0131  0.2273  0.0960
78972W        W22025  14.506   9.746  21.788  0.2239 -0.0863  0.2235
78973W        W22026  17.757   6.919  19.430  0.1922  0.0923  0.2403
78974W        W22027  23.976   2.219  21.398 -0.0808  0.0155 -0.0835
78975W        W22028  13.298  26.650  18.125 -0.2189 -0.0400 -0.1294
78976W        W22029  29.592   6.958  17.873 -0.0333 -0.1855 -0.1308
78977W        W22030  12.541  23.034  27.923  0.3145  0.1588  0.0691
78978W        W22031   3.646  24.294  24.694 -0.0801  0.2282  0.1189
78979W        W22032  14.327  24.908  21.551 -0.2441  0.1041 -0.0598
78980W        W22033   1.199  26.162  18.379  0.2918  0.2681  0.0368
78981W        W22034  24.989  25.037  14.718 -0.1136 -0.1524 -0.2301
78982W        W22035   6.593  31.099  23.564  0.0641  0.1737 -0.3021
78983W        W22036  14.093  18.532  26.270 -0.0072 -0.0555  0.2435
78984W        W22037  14.159   3.133  27.019  0.1861 -0.2494  0.1650
78985W        W22038  14.507   2.905  28.733 -0.0596 -0.1350  0.2953
78986W        W22039  17.073  32.994  18.493 -0.0661 -0.1172  0.1068
78987W        W22040  19.390  24.895  14.329 -0.5500 -0.0637  0.2638
78988W        W22041   5.260   6.855   5.633 -0.3964  0.0431 -0.1079
78989W        W22042  28.790  22.594   3.959 -0.2916 -0.0542 -0.1020
78990W        W22043  28.024   0.524  15.193  0.3390  0.0596  0.0732
78991W        W22044  14.285  24.344  23.421 -0.0580 -0.1929  0.0819
78992W        W22045  27.197   1.229   0.454 -0.1850 -0.0442 -0.1901
78993W        W22046   1.159  32.357  16.424 -0.0604 -0.0388  0.2014
78994W        W22047  12.436  27.293  27.574  0.3456  0.1160 -0.0293
78995W        W22048  12.534  22.169  22.704  0.4177 -0.0712  0.0951
78996W        W22049  32.226  27.184  13.396  0.0080  0.2480 -0.1318
78997W        W22050  28.549  20.846  14.526 -0.2562  0.3310 -0.1194
78998W        W22051  15.565   4.869  21.089  0.0860  0.2007  0.0039
78999W        W22052   8.390  28.748  21.720 -0.2118 -0.2901 -0.1065
79000W        W22053  12.737   1.579  16.183  0.1271  0.0651  0.0861
79001W        W22054   4.591  21.815   4.337 -0.2682 -0.2152 -0.1607
79002W        W22055  11.409   5.390  19.426 -0.0661 -0.1160 -0.0253
79003W        W22056  18.881   1.659  26.806  0.1225  0.1810 -0.0702
79004W        W22057  16.804  21.881  24.043 -0.1647  0.1949  0.2781
79005W        W22058  12.498  29.812  23.122  0.0131  0.1768  0.1888
79006W        W22059  15.763  32.703  25.275 -0.0064 -0.2026 -0.2144
79007W        W22060  25.986  29.616   9.195  0.2676 -0.1259 -0.0467
79008W        W22061   0.234  25.998  22.353 -0.0339 -0.0933  0.0365
79009W        W22062  10.166   3.911  15.873 -0.0421 -0.2550 -0.0439
79010W        W22063   8.552  12.898   4.653  0.0495 -0.0999  0.1335
79011W        W22064  19.239   8.940  24.584 -0.1787 -0.3079  0.2851
79012W        W22065  33.395  21.361  22.622 -0.1521  0.0947 -0.1845
79013W        W22066  11.418  24.579  23.647 -0.0372  0.0925 -0.1031
79014W        W22067  19.355  12.576  16.803  0.0096  0.4164  0.2011
79015W        W22068  23.154  16.052  16.697  0.0230 -0.1821 -0.1508
79016W        W22069  12.099  23.703  18.731  0.2309 -0.3423  0.1210
79017W        W22070   9.663  19.310   7.637  0.0390  0.2543 -0.1177
79018W        W22071  21.316  16.236  20.346  0.0351 -0.2133  0.1149
79019W        W22072   4.408  22.948  17.564 -0.1522  0.0809 -0.3056
79020W        W22073  20.430  23.410  23.530  0.0993 -0.3186  0.1938
79021W        W22074  21.608   3.209   5.812 -0.1511 -0.0737 -0.0013
79022W        W22075  19.488  23.097   3.370 -0.1598 -0.3236  0.3805
79023W        W22076  23.347  27.279  28.283 -0.1415 -0.1443  0.1211
79024W        W22077   7.372   0.673  22.455  0.2337 -0.1944  0.4292
79025W        W22078  14.140  34.330  25.359 -0.3367  0.0818  0.0008
79026W        W22079  15.720  27.261  19.910 -0.2018 -0.2730 -0.0367
79027W        W22080  16.368  31.599  17.655 -0.0284 -0.0877  0.1142
79028W        W22081  10.356  24.022  18.503 -0.2023 -0.1693  0.0760
79029W        W22082  19.260  28.309  16.947 -0.0056 -0.4464 -0.0508
79030W        W22083  11.314  16.427  24.248  0.0828  0.0592  0.0235
79031W        W22084   3.922  33.178   1.181  0.3551 -0.0060 -0.0107
79032W        W22085   9.046  18.579  28.982 -0.0670 -0.0895  0.2135
79033W        W22086   4.166  21.903  14.075  0.0045  0.3512 -0.0671
79034W        W22087  34.456  28.687  18.790 -0.0131  0.0216  0.1428
79035W        W22088  25.427   6.599  24.276 -0.2821  0.1250  0.1598
79036W        W22089   2.076  11.444   2.592  0.1688 -0.0608  0.1237
79037W        W22090  25.576   1.744  22.565  0.0811  0.1465 -0.1064
79038W        W22091  14.402  30.319   3.324  0.1861 -0.0309  0.0953
79039W        W22092  22.657   2.848  24.383 -0.1563 -0.1754 -0.2079
79040W        W22093  26.050  19.744  15.341 -0.0277  0.1746  0.0621
79041W        W22094  19.513   9.729  16.795  0.1224  0.2132 -0.4691
79042W        W22095   3.083  13.307  10.398  0.1597  0.1135  0.2699
79043W        W22096  16.190  29.183   5.227  0.0517  0.1577  0.4044
79044W        W22097  21.752   5.311  21.891 -0.1500  0.1137 -0.0740
79045W        W22098  31.789   2.335   1.326  0.1281 -0.0775  0.1843
79046W        W22099  14.941  22.380  28.253 -0.4863 -0.1264  0.1893
79047W        W22100  11.740  13.942  20.271  0.0925 -0.2420  0.0641
79048W        W22101  16.488  29.846   9.217  0.1679 -0.3517 -0.1063
79049W        W22102   4.302  26.547  15.602 -0.0169  0.1999 -0.1387
79050W        W22103  11.701  30.152  16.131  0.1751  0.1532 -0.0984
79051W        W22104   1.165  17.995   2.595  0.0306  0.0704 -0.1073
79052W        W22105   3.783  26.245  17.600 -0.0376  0.0184 -0.0124
79053W        W22106  12.129  33.208  16.359 -0.2223  0.2267 -0.3833
79054W        W22107  12.067  32.654  16.400  0.0764  0.0380  0.0134
79055W        W22108  20.527   4.959   2.343  0.1923 -0.0210 -0.0616
79056W        W22109  34.079  28.785  21.782 -0.0922 -0.1640  0.4108
79057W        W22110  11.277   4.607  21.354 -0.2832  0.0824 -0.3664
79058W        W22111  15.186  14.956  27.542 -0.1400 -0.1012  0.2861
79059W        W22112  20.940  32.864  21.505  0.1837 -0.3088  0.3248
79060W        W22113   2.941  18.838  24.390 -0.0774  0.1722 -0.5066
79061W        W22114  29.113  25.102  18.793 -0.3072  0.1975  0.0300
79062W        W22115   4.919  26.882  19.941  0.1937  0.0554 -0.3727
79063W        W22116  29.039  26.124  22.005 -0.1512  0.0062  0.0271
79064W        W22117  13.955  28.916  18.315  0.1351 -0.0050 -0.1161
79065W        W22118  20.918  18.543  21.847  0.0483  0.1100  0.1229
79066W        W22119   2.490  24.862  26.618 -0.0898  0.0375  0.1152
79067W        W22120  29.597   3.173  15.915  0.0813  0.1949  0.1009
79068W        W22121  22.218  19.890  22.309  0.2402 -0.1243  0.1029
79069W        W22122  19.809  24.280  15.550 -0.1252  0.0499 -0.0675
79070W        W22123   3.834   5.009  14.662 -0.1762  0.1272  0.0379
79071W        W22124  27.282  26.251  15.473  0.0400  0.1763 -0.3792
79072W        W22125  17.871   4.319  26.000  0.1485  0.2039 -0.0560
79073W        W22126  24.516  32.187  17.636  0.2852  0.1778  0.0577
79074W        W22127  24.815   7.402  17.749 -0.4464 -0.1793 -0.2615
79075W        W22128  13.686  19.252  21.196  0.1091  0.1499 -0.0148
79076W        W22129  13.979  27.990  20.947  0.1449  0.0728 -0.3174
79077W        W22130  10.062  21.110  16.951 -0.0939 -0.0370 -0.0521
79078W        W22131   4.290  30.827  25.666 -0.1233 -0.0357  0.0389
79079W        W22132  19.231  23.988  16.069 -0.2483 -0.1757 -0.4574
79080W        W22133  29.952  19.034  20.714  0.1054 -0.1007 -0.0090
79081W        W22134  20.482  26.334   8.413  0.1783  0.3260  0.1434
79082W        W22135   4.936  21.842   7.820  0.0754  0.0953  0.1720
79083W        W22136  17.832  11.942  17.495 -0.0290 -0.0350  0.0470
79084W        W22137  15.407  29.136  27.581 -0.0495  0.0327 -0.1223
79085W        W22138  25.267  31.221  27.748  0.2464  0.1792 -0.1183
79086W        W22139  11.065   3.723  20.817  0.2613  0.1201 -0.1668
79087W        W22140  11.253   7.948  21.151  0.0891  0.0002  0.0495
79088W        W22141  20.700   7.940  19.630  0.0677 -0.0999  0.0087
79089W        W22142  21.357   0.474  19.383 -0.1425 -0.1781 -0.1998
79090W        W22143  18.725  22.550  21.434  0.0078 -0.3011  0.2119
79091W        W22144  30.783  22.416   5.241 -0.1645 -0.1813 -0.0120
79092W        W22145   4.757   5.642  22.276  0.2789 -0.1357 -0.0509
79093W        W22146   7.283  14.399   3.643 -0.0515 -0.1486  0.1981
79094W        W22147   9.277  16.607  20.420  0.0722  0.1457 -0.1852
79095W        W22148  10.464  27.378   1.083 -0.1250  0.3431 -0.0758
79096W        W22149   3.570   6.499  25.524  0.0465 -0.1727  0.3490
79097W        W22150  14.390   1.446  28.800 -0.0678  0.1749  0.1504
79098W        W22151  25.877   2.749  17.845 -0.2367 -0.0601 -0.0245
79099W        W22152  34.373  11.597  20.567 -0.1350  0.2927 -0.1775
79100W        W22153  17.780  15.689  23.415  0.1820 -0.1600  0.1641
79101W        W22154  26.144   2.851  23.644 -0.2476  0.1868  0.2385
79102W        W22155  14.056  23.044  25.581  0.1858  0.0105  0.1127
79103W        W22156   2.676   8.888  14.813  0.3185  0.2062 -0.1278
79104W        W22157  10.093  13.690  23.576 -0.2903  0.1704  0.1124
79105W        W22158  25.420  17.819  22.944 -0.2250  0.1889 -0.0432
79106W        W22159  11.354  15.616  25.563 -0.2867 -0.2139  0.4442
79107W        W22160  31.531  11.216  24.245  0.0806  0.4512 -0.2098
79108W        W22161   3.882  28.504  17.261  0.1886 -0.1257  0.1613
79109W        W22162  10.071  27.128  15.414 -0.0089  0.1696 -0.4215
79110W        W22163  13.142  30.530  21.512  0.1214 -0.0884 -0.1340
79111W        W22164  26.483  15.500  15.247  0.1878 -0.0959  0.0914
79112W        W22165  15.950  17.979   4.236  0.0029  0.1729  0.1431
79113W        W22166  21.490  32.453  19.588 -0.1855 -0.0304  0.2726
79114W        W22167   0.280  25.044  19.674 -0.0407  0.0143  0.3097
79115W        W22168  24.334  27.775   2.775 -0.0762 -0.1758  0.1597
79116W        W22169  18.478  24.553  20.636 -0.1982  0.1060 -0.0544
79117W        W22170  22.272  22.569  15.388 -0.1826  0.2236  0.1617
79118W        W22171   4.036  28.844  14.377  0.1361  0.1725  0.2585
79119W        W22172  12.794  24.800  13.731  0.1644  0.2329  0.0045
79120W        W22173   3.826   9.332  17.656  0.2649 -0.1543 -0.1098
79121W        W22174  17.508  26.159   6.241  0.3352 -0.0293 -0.2242
79122W        W22175   3.538  23.476  25.214  0.3466  0.0239  0.0644
79123W        W22176  27.142  31.254  20.500  0.0492 -0.2895 -0.3006
79124W        W22177  25.514  24.362  17.691  0.0512 -0.0099 -0.3158
79125W        W22178   2.062  21.222  27.005 -0.2572  0.0533  0.0381
79126W        W22179   8.275  31.700  26.288 -0.0190 -0.0492 -0.3414
79127W        W22180   4.228  30.561  14.286  0.0457 -0.2165 -0.0631
79128W        W22181  31.246  17.603  20.121  0.0851 -0.1330 -0.0448
79129W        W22182  16.044  29.085  15.105  0.1205  0.2688 -0.0973
79130W        W22183   9.695  32.411   2.973  0.1587 -0.2406  0.0278
79131W        W22184  21.090  26.189  20.063 -0.0956 -0.2958 -0.0187
79132W        W22185   7.346  13.891  16.417 -0.2644 -0.1072 -0.0521
79133W        W22186  16.740   9.971  16.846  0.1172 -0.0717  0.1190
79134W        W22187  24.425   1.931   3.439 -0.0276 -0.1567  0.4236
79135W        W22188  16.950  24.029  28.784  0.1194  0.2782  0.1201
79136W        W22189  10.689  19.207   1.131  0.2504  0.0839  0.3158
79137W        W22190   7.064  20.286  23.846  0.1999  0.1582 -0.1463
79138W        W22191  12.521  28.569   9.511  0.1619  0.0406  0.1569
79139W        W22192   0.445  30.720  18.740 -0.1238 -0.3937  0.0596
79140W        W22193  28.771   2.634  16.537  0.2541  0.3059 -0.0362
79141W        W22194  24.957  19.103  28.460  0.2399  0.0926  0.1080
79142W        W22195  11.548  20.992  16.118 -0.2078  0.0538 -0.1782
79143W        W22196   2.728  16.533  21.231  0.0731  0.0652 -0.1337
79144W        W22197   5.943  32.844   3.733 -0.0558  0.1781  0.0057
79145W        W22198  15.733   7.891   3.201 -0.1143  0.2059  0.0341
79146W        W22199  10.276  33.414  14.996  0.0939 -0.1770  0.1405
79147W        W22200   6.522  14.171  20.929 -0.0186  0.1733 -0.1137
79148W        W22201   0.320  31.561  28.179 -0.0708  0.0286  0.1339
79149W        W22202  11.192  29.372  19.083  0.1608  0.0139 -0.3150
79150W        W22203   7.254   2.371  24.557  0.0117  0.0026 -0.4386
79151W        W22204  17.885  26.141   5.824 -0.1905 -0.2364 -0.1560
79152W        W22205  15.511  34.549  17.956 -0.1834 -0.1236  0.0561
79153W        W22206  20.794   3.671  22.902 -0.0563 -0.1002  0.4413
79154W        W22207  22.081  16.730  20.797 -0.0255  0.0806  0.1821
79155W        W22208  22.254  16.339  19.190 -0.0357  0.1655  0.2106
79156W        W22209   5.629  14.956  20.178  0.0456 -0.1792  0.0844
79157W        W22210  24.800  23.987  27.903  0.0414  0.3770 -0.2411
79158W        W22211  25.947  32.489  18.916 -0.4034 -0.0244 -0.1848
79159W        W22212  28.032   7.818  23.272  0.1548 -0.1357  0.0261
79160W        W22213   7.740  31.612  20.993 -0.0251  0.2937 -0.2830
79161W        W22214   8.323   1.450  15.952  0.0602  0.4061 -0.1402
79162W        W22215  27.829   2.584   1.106  0.1163 -0.1422 -0.3938
79163W        W22216   2.522   8.052   2.946  0.2358  0.0262  0.0791
79164W        W22217  29.420  15.281  20.237  0.1963  0.0629  0.0256
79165W        W22218  28.334   5.464  18.020  0.0817  0.1285  0.1780
79166W        W22219  12.677  11.720  17.772  0.0340 -0.0421 -0.1175
79167W        W22220  13.736  12.020  20.597  0.1521  0.3915  0.0663
79168W        W22221  16.361  24.100  21.054 -0.0059 -0.0333 -0.1278
79169W        W22222  24.801  28.476  16.839 -0.1110 -0.1366 -0.1001
79170W        W22223  24.643   3.415  19.874 -0.0498  0.0506 -0.0151
79171W        W22224  12.159   5.661  19.397 -0.0571 -0.1172  0.0963
79172W        W22225  25.492  17.751  25.356  0.0545 -0.0687 -0.3792
79173W        W22226  21.081  20.743  27.044  0.1853 -0.0141 -0.2889
79174W        W22227  22.342  31.244  22.711  0.0517  0.0083  0.5040
79175W        W22228  19.557  22.827  16.688 -0.0854  0.0589  0.0658
79176W        W22229  33.171  18.880   3.270  0.1935 -0.0623 -0.0091
79177W        W22230  19.752  31.801  21.074 -0.0089  0.2783  0.0614
79178W        W22231  14.577  15.193  23.525  0.2292 -0.1893  0.0523
79179W        W22232  14.332  30.564  15.300  0.2245  0.1522  0.1100
79180W        W22233  20.652  31.350   3.720 -0.2780  0.3338  0.1081
79181W        W22234  23.087  25.142  22.478  0.4441  0.3761  0.0627
79182W        W22235  12.144  26.608  24.001 -0.1742 -0.0054 -0.0313
79183W        W22236  10.497   3.257  24.817  0.0713  0.1070  0.1600
79184W        W22237  20.883  22.628  20.369  0.1124 -0.1719 -0.2651
79185W        W22238  12.810   1.964  23.891  0.0879 -0.2193  0.3323
79186W        W22239  21.732  23.356   4.296  0.0943  0.0889  0.0412
79187W        W22240   9.602  27.653  16.170  0.2643 -0.1401  0.0958
79188W        W22241  33.281  22.290  26.119  0.0199 -0.1733  0.0195
79189W        W22242  33.432   2.684  22.225  0.2012  0.1644  0.1855
79190W        W22243  10.119   1.441  23.430  0.1115 -0.1313  0.0707
79191W        W22244  11.218  27.057  21.131  0.1681 -0.1853  0.1237
79192W        W22245   9.778  26.981  15.047  0.0806  0.3248 -0.2164
79193W        W22246  15.448  19.712  12.976 -0.3091 -0.0114 -0.3006
79194W        W22247  14.580  27.312   4.807 -0.1169  0.1332  0.4004
79195W        W22248  14.088  14.369  16.455  0.0300 -0.0338  0.1063
79196W        W22249  34.606   3.438  28.487 -0.1447 -0.2490  0.0395
79197W        W22250  11.016  15.755  24.756  0.1049  0.0450  0.1055
79198W        W22251   8.709  16.447   2.146  0.1767 -0.2632 -0.0562
79199W        W22252  11.290  32.662   3.704  0.1766 -0.0778  0.0558
79200W        W22253   8.900  29.514  15.579  0.0190 -0.0869 -0.2585
79201W        W22254  12.856  19.176   0.379  0.0181 -0.0471  0.0010
79202W        W22255  28.741  20.910  22.334  0.3655 -0.1216  0.1292
79203W        W22256   2.251  18.058  22.950  0.0186  0.6026  0.3534
79204W        W22257   7.253  27.347  22.136  0.4047  0.2453  0.1690
79205W        W22258  13.887  10.155  17.421  0.0645 -0.1123  0.1792
79206W        W22259  25.970   4.348  16.153 -0.0825  0.2944  0.0376
79207W        W22260   5.463   6.678   1.637  0.0770  0.0242  0.1998
79208W        W22261   4.074  30.764  16.643  0.1852 -0.2808  0.0255
79209W        W22262  17.857  27.100  18.063 -0.0884  0.1686 -0.1455
79210W        W22263  13.534  21.377  18.333 -0.1803  0.2333 -0.0540
79211W        W22264   6.092  18.430  14.020 -0.1987 -0.2243  0.0790
79212W        W22265  11.096  23.990  15.599 -0.0659 -0.3571 -0.2425
79213W        W22266  33.234  18.802  19.810  0.0256 -0.1748  0.0559
79214W        W22267  22.948  19.641  24.595  0.0335 -0.1220 -0.0102
79215W        W22268  23.100  13.646  16.681  0.2586  0.1518  0.1165
79216W        W22269  22.636   6.498  14.877  0.0116 -0.3495  0.0358
79217W        W22270  18.891  13.987   9.607  0.0904  0.1706  0.0582
79218W        W22271  13.795  18.088  27.978  0.0249 -0.1546 -0.0366
79219W        W22272  21.309   4.864  18.832  0.3541  0.3335  0.0638
79220W        W22273  25.836  32.985  24.579  0.2642  0.2732 -0.2173
79221W        W22274  26.198   5.894  20.218  0.1185 -0.3228 -0.0681
79222W        W22275  16.447  32.429  25.940 -0.1828  0.3251 -0.2805
79223W        W22276   9.340  21.712  18.883  0.1959  0.1303 -0.0443
79224W        W22277  21.686  20.108  17.468  0.0638  0.1464  0.1556
79225W        W22278  19.571   0.924  19.146 -0.2357  0.0998  0.1996
79226W        W22279   3.888  33.802  15.803  0.1674  0.1055  0.1502
79227W        W22280   2.771  25.753  25.028  0.2495 -0.3140  0.1593
79228W        W22281  25.401  29.278  27.284  0.0642 -0.1280  0.2201
79229W        W22282  14.470   4.479  24.035  0.1477  0.3544 -0.2389
79230W        W22283   7.800  32.211  28.721  0.0577  0.2471 -0.1202
79231W        W22284   1.487   0.934   3.048 -0.1706  0.1204  0.1719
79232W        W22285   8.716   1.156  20.024  0.0341  0.1020  0.0205
79233W        W22286  14.694   8.668  17.021 -0.1168 -0.1688  0.2259
79234W        W22287  16.604  26.027  16.200 -0.0207  0.2959  0.4064
79235W        W22288   0.837  25.736  18.047 -0.1200 -0.0153  0.1042
79236W        W22289  34.023  22.835  25.687 -0.2345 -0.0143  0.0965
79237W        W22290   7.420  27.178  26.162 -0.0367  0.3721  0.0317
79238W        W22291  17.532  33.516  17.026 -0.1424 -0.3470 -0.1152
79239W        W22292  29.833  23.592  15.731 -0.1339  0.2513  0.0064
79240W        W22293  26.617  28.925   3.889 -0.1991 -0.0418  0.0277
79241W        W22294  32.129  22.934   4.455 -0.3374 -0.1751 -0.1615
79242W        W22295  32.537  10.196   3.690 -0.2292  0.4780 -0.0615
79243W        W22296   8.523   2.474   5.575  0.1171  0.1791 -0.1254
79244W        W22297   6.034  31.804  16.105  0.0810  0.2225 -0.1150
79245W        W22298  21.352  32.025  13.926  0.0656  0.2068  0.0358
79246W        W22299  18.293  23.976  25.894 -0.1159  0.2308 -0.1129
79247W        W22300  17.314  30.997  25.477  0.2954 -0.3318 -0.1357
79248W        W22301  34.388  28.158  28.769 -0.3219  0.2279  0.1276
79249W        W22302  11.611  26.982  18.143  0.2935 -0.4420 -0.1271
79250W        W22303  30.033  32.355  15.503  0.1583  0.1366 -0.0031
79251W        W22304  10.130  16.365  18.509  0.0783  0.0406  0.0186
79252W        W22305  16.620  21.510  26.842  0.1588  0.3694 -0.0143
79253W        W22306  14.813  17.384   9.106 -0.0166  0.0855 -0.1027
79254W        W22307   6.895  27.564  18.369  0.1522  0.2370  0.0323
79255W        W22308  20.489  20.387  16.219 -0.0852  0.1714 -0.2537
79256W        W22309  23.655  10.804  16.864  0.0007 -0.0957 -0.4990
79257W        W22310  17.389  27.561   3.031  0.1291  0.1703 -0.2436
79258W        W22311  30.198  16.369  18.439  0.3070 -0.0279  0.2179
79259W        W22312   2.690  30.957  19.464  0.0017 -0.0567 -0.1292
79260W        W22313  14.238  17.049  22.353 -0.2040 -0.0628  0.2547
79261W        W22314  22.211  29.372  26.242  0.1281  0.0248  0.0924
79262W        W22315  26.983  32.605  23.156 -0.0713  0.2410  0.0584
79263W        W22316  19.905  33.514  20.082 -0.0568 -0.2516 -0.1852
79264W        W22317  34.503  30.998  26.366  0.2764  0.3042 -0.2308
79265W        W22318  10.792   2.948   7.031  0.2302  0.0661 -0.2099
79266W        W22319  23.524  20.332  23.229 -0.1216  0.1114 -0.0241
79267W        W22320   5.074  25.141  16.439 -0.1253 -0.0797 -0.0544
79268W        W22321  17.036  11.511  20.358  0.5094  0.3387 -0.2351
79269W        W22322  26.754   5.697  14.593 -0.1114  0.0756  0.0167
79270W        W22323  14.269  25.784   2.128 -0.0441 -0.1226 -0.2420
79271W        W22324  10.607   7.093   0.936  0.2749 -0.1944  0.2409
79272W        W22325  22.402  27.965  20.576  0.0737  0.0065  0.4802
79273W        W22326  14.787   8.240  24.722 -0.2740  0.2723  0.2286
79274W        W22327  21.421  13.859  15.793 -0.2482 -0.0107 -0.1766
79275W        W22328  11.953  20.578  22.279  0.2248  0.1499  0.0257
79276W        W22329  16.006  27.267  23.874 -0.1879  0.2917  0.0300
79277W        W22330  18.261   4.404  18.482  0.1429 -0.1624  0.1260
79278W        W22331  11.382  14.204  25.172 -0.0719  0.2952 -0.0316
79279W        W22332  22.484  26.373  27.905 -0.1818 -0.1055  0.5429
79280W        W22333  30.365   1.616  18.263 -0.3511  0.1804  0.0687
79281W        W22334  25.051  32.214  27.865 -0.2126  0.2935 -0.0893
79282W        W22335  22.604  26.520  16.402 -0.1845  0.1812 -0.1521
79283W        W22336   8.558  16.432   1.582  0.0654 -0.1215 -0.0170
79284W        W22337   8.396  17.593  22.484 -0.0705 -0.1101  0.1109
79285W        W22338  15.481  26.107  14.953  0.0067 -0.0068 -0.0895
79286W        W22339  15.058  26.772  22.643  0.2091  0.1499 -0.0004
79287W        W22340   4.530  26.024  14.046 -0.2574  0.4908 -0.1596
79288W        W22341  32.109  21.869  22.942 -0.0118 -0.0139 -0.0240
79289W        W22342  26.942   3.001  14.591 -0.1204  0.0574  0.0283
79290W        W22343  19.995  18.735  24.804  0.0041  0.0856  0.1773
79291W        W22344  21.261  30.152  17.152 -0.2278  0.0528  0.0299
79292W        W22345   8.760  18.522  19.005 -0.2444 -0.0169  0.3720
79293W        W22346  20.428  29.283  29.005  0.0485  0.0523  0.0408
79294W        W22347  11.168   7.817  24.785  0.2594 -0.0517 -0.1716
79295W        W22348  23.713  29.573  24.175  0.4468  0.1911 -0.0856
79296W        W22349   6.294  29.274  18.042 -0.0401  0.2076  0.1750
79297W        W22350  13.858  23.231  17.758  0.0907  0.1164 -0.2583
79298W        W22351   2.322  21.878  16.133  0.1306  0.1775 -0.0370
79299W        W22352  33.242  34.494   4.669 -0.1755  0.1694 -0.3754
79300W        W22353  21.778  19.713  27.149  0.0124 -0.1273 -0.0737
79301W        W22354  17.904  28.732  15.058 -0.0395 -0.2144  0.2411
79302W        W22355   7.562   4.695  16.970 -0.2030  0.0163  0.2267
79303W        W22356  11.302  12.637  18.614  0.1380  0.0760 -0.1109
79304W        W22357  10.166   3.249  18.952  0.0523  0.0846 -0.3795
79305W        W22358  18.458  26.379  16.451  0.1722  0.0933  0.1528
79306W        W22359   9.668  27.572  14.628 -0.0482 -0.1752  0.1681
79307W        W22360  21.784   6.808  15.296 -0.0116 -0.1549  0.3380
79308W        W22361  24.698  30.865  20.467  0.0625  0.0633  0.0756
79309W        W22362  24.719  19.163  16.416 -0.2107  0.1836  0.0190
79310W        W22363  17.492  33.826  24.126 -0.4416  0.1101  0.0842
79311W        W22364  14.987  30.874   2.591  0.2423 -0.2469 -0.1221
79312W        W22365  28.275  21.614  24.331  0.2128 -0.0088 -0.2050
79313W        W22366   8.576   5.680  16.365 -0.0051 -0.1008  0.0138
79314W        W22367   6.502  30.625  28.924 -0.0562 -0.3838 -0.1654
79315W        W22368  22.962   7.269  15.909  0.1038 -0.2089  0.0655
79316W        W22369  19.223  27.320  19.645 -0.0852  0.1786  0.3037
79317W        W22370  25.654   9.474   2.029 -0.1221 -0.0486  0.3451
79318W        W22371  15.788   3.635  26.776  0.1055 -0.3060  0.0567
79319W        W22372  24.006   9.156  18.219  0.0903 -0.2889  0.0433
79320W        W22373  15.427  28.665  16.790  0.3102 -0.1291  0.0921
79321W        W22374  18.042  17.025  24.596  0.0653  0.0267 -0.0745
79322W        W22375   5.844  30.639   0.609 -0.3775  0.0604 -0.0490
79323W        W22376  16.365  25.704  24.864 -0.0706 -0.0943  0.0807
79324W        W22377  10.175  20.163  23.194 -0.1988 -0.1604 -0.0229
79325W        W22378  27.561  18.729  19.901 -0.1837 -0.2729  0.0282
79326W        W22379   8.437  32.140  18.503 -0.2458  0.2016 -0.0630
79327W        W22380  20.621  10.811  24.484  0.1165 -0.0637 -0.0617
79328W        W22381  30.880  14.066  27.486 -0.2187 -0.0735  0.2218
79329W        W22382  26.525  31.361   1.647 -0.2964 -0.0538  0.0108
79330W        W22383  20.158  23.226  18.974  0.0246  0.1028 -0.0203
79331W        W22384  13.595  33.461   2.099  0.1773  0.0626 -0.3322
79332W        W22385  11.144   3.314   0.288  0.0222  0.0732  0.0948
79333W        W22386  25.338  32.432  28.623  0.1930 -0.3672 -0.1131
79334W        W22387  27.208  13.293  18.855  0.2539 -0.0157 -0.0715
79335W        W22388  23.808   1.713  28.568  0.2163 -0.2613  0.1155
79336W        W22389   5.045  33.541   4.879  0.3124  0.0582 -0.4659
79337W        W22390  19.462  29.058  22.028  0.0544 -0.3523  0.1581
79338W        W22391  29.317  19.762  15.093  0.0249  0.2381  0.1603
79339W        W22392  16.676  23.172   1.951 -0.1126  0.0753  0.1410
79340W        W22393  18.306   0.808  14.786 -0.6173  0.0882 -0.0947
79341W        W22394   8.749  31.136  14.497  0.5443  0.1916  0.2482
79342W        W22395   9.638  25.451   2.414 -0.0347  0.1942  0.1558
79343W        W22396  22.207  25.761  18.611  0.0233  0.3732  0.0865
79344W        W22397  10.328   3.556  22.341 -0.4911 -0.0698 -0.3582
79345W        W22398  26.590  13.741  14.962  0.0058  0.0275  0.0183
79346W        W22399  22.508   6.585   7.206  0.0622 -0.1666 -0.2917
79347W        W22400   7.664  14.040  19.327 -0.0166  0.1099 -0.0680
79348W        W22401  23.705  16.950  19.220 -0.1807 -0.1609 -0.0542
79349W        W22402   8.854  27.998   0.916 -0.1745 -0.0639 -0.1948
79350W        W22403  30.179  33.308  23.119 -0.0921 -0.0698  0.2450
79351W        W22404  11.112  26.133  17.730  0.0045 -0.0133 -0.1666
79352W        W22405  32.453  14.170  24.747  0.3789 -0.2335 -0.2782
79353W        W22406  25.282  31.412  20.944 -0.0298  0.0462 -0.0414
79354W        W22407  19.167  30.904  17.283  0.0228 -0.0518  0.2956
79355W        W22408   8.950   3.298  18.326 -0.1559  0.1514 -0.0475
79356W        W22409   3.712  12.885  21.472 -0.0029  0.0961  0.0575
79357W        W22410  12.383  14.495  16.417  0.1882  0.2247 -0.3058
79358W        W22411   6.453   4.087  15.088 -0.2072  0.0503 -0.0622
79359W        W22412  18.466  18.601  26.755  0.2008 -0.0360 -0.1802
79360W        W22413  26.965   2.597  16.974 -0.1129 -0.1775 -0.0695
79361W        W22414  17.356  24.711  14.684 -0.1130  0.0749  0.0361
79362W        W22415  15.201  26.955  24.933 -0.0139  0.0137  0.0032
79363W        W22416  10.160  24.548  23.087  0.0042  0.1471  0.1251
79364W        W22417  24.211  33.358   4.017  0.1811  0.0937 -0.1986
79365W        W22418   8.506  16.902   1.950  0.0463 -0.0753  0.3787
79366W        W22419  21.114  19.930   0.119 -0.0494  0.1611  0.0435
79367W        W22420  20.270  33.371  14.281  0.0460 -0.3550  0.2617
79368W        W22421   4.332   1.716   5.707  0.0938  0.0494  0.1389
79369W        W22422  25.098  33.261   5.504  0.1533 -0.1164 -0.0049
79370W        W22423   3.418  20.259  28.566  0.2546  0.0526 -0.3356
79371W        W22424  15.601   5.175  17.367 -0.2037 -0.0811  0.1181
79372W        W22425   2.800  32.343   5.396  0.0920  0.2407  0.1478
79373W        W22426  19.394   1.561  25.554 -0.2229  0.1422  0.0694
79374W        W22427  27.103  33.485  18.190  0.1271  0.1434 -0.0774
79375W        W22428  21.578   5.570  14.813  0.1839  0.4172  0.1298
79376W        W22429  30.616  30.028  26.395  0.3300  0.2042  0.1159
79377W        W22430   0.304  13.026  13.982  0.0541  0.1685  0.1722
79378W        W22431   9.310  25.615  28.800  0.3576 -0.1296  0.1884
79379W        W22432  23.156  16.913   1.730  0.2219 -0.0201 -0.2761
79380W        W22433  25.484  27.561   8.804  0.0784  0.1439 -0.0766
79381W        W22434  17.269  24.952  15.122  0.0949  0.0626  0.1532
79382W        W22435   7.403  13.483  19.805 -0.0475 -0.1540  0.0671
79383W        W22436   9.944  14.307  16.214  0.2280 -0.0410  0.2389
79384W        W22437  12.292  15.551  28.329  0.2431  0.1763 -0.1195
79385W        W22438  15.059  24.458   8.152 -0.1922  0.1687 -0.1645
79386W        W22439  22.233  23.884   4.010 -0.0557  0.0769 -0.3049
79387W        W22440  18.824  14.754   9.030  0.0433 -0.0030 -0.0587
79388W        W22441  21.633  24.679  17.038 -0.0540  0.0285 -0.2947
79389W        W22442  18.012  25.069  23.137  0.0579 -0.1335  0.1114
79390W        W22443  30.589  25.955  15.380  0.3119  0.0079 -0.0230
79391W        W22444   3.901  30.295  18.517  0.1628  0.1087 -0.1667
79392W        W22445   5.532  30.996   1.471 -0.1004  0.2602 -0.0107
79393W        W22446  21.962  30.612  16.042 -0.1277 -0.3045 -0.2081
79394W        W22447  21.973  25.680  19.131  0.0359  0.2315 -0.2346
79395W        W22448  32.108  34.512  26.805 -0.0176 -0.0953 -0.2221
79396W        W22449  10.003  21.265  23.956  0.1949 -0.2950  0.1118
79397W        W22450   6.793  18.683  18.623 -0.0464 -0.1080  0.1371
79398W        W22451  30.529  25.448  17.571  0.1125 -0.4639 -0.1325
79399W        W22452  10.160  24.696  17.645 -0.1518 -0.0179 -0.1779
79400W        W22453  32.597  24.454   0.099  0.2790 -0.0235  0.0681
79401W        W22454  12.517   8.172  28.214  0.2651 -0.1735 -0.1099
79402W        W22455  24.395  29.348  15.591 -0.0199 -0.2234 -0.2266
79403W        W22456  18.426   6.430  14.074 -0.0206 -0.0322 -0.0073
79404W        W22457   4.851  28.441   4.574  0.2685 -0.0488  0.0154
79405W        W22458  19.290   4.804  14.738 -0.0887  0.1263 -0.0118
79406W        W22459  29.808  18.905   0.265  0.0896  0.0393 -0.0949
79407W        W22460  25.516   8.707  26.747 -0.3548  0.1556 -0.0450
79408W        W22461   9.990  12.629   4.962  0.1241 -0.1526 -0.2059
79409W        W22462   8.797  31.550   7.835 -0.2817  0.1247  0.1206
79410W        W22463  16.258  25.430  20.079  0.0768 -0.0447  0.2576
79411W        W22464  14.213  22.268  25.414 -0.0047 -0.0651  0.1000
79412W        W22465  32.516  32.686  19.545  0.2501 -0.0391  0.4155
79413W        W22466  15.491  25.168  14.946  0.2616 -0.0428 -0.3350
79414W        W22467  12.338  20.884  20.003 -0.0203 -0.1223  0.2047
79415W        W22468  15.806  25.857   7.543  0.0475  0.0483 -0.0985
79416W        W22469  10.327  31.428  19.254 -0.1615  0.1143  0.1896
79417W        W22470  10.524  11.864   8.012 -0.3771  0.3972 -0.4241
79418W        W22471  33.776   3.014  28.882  0.0830  0.0210  0.1284
79419W        W22472   8.856  25.090  14.739 -0.0556 -0.0524  0.4047
79420W        W22473   0.756  15.106  18.884 -0.1947  0.3463 -0.1305
79421W        W22474  18.477   3.619  21.377  0.1023 -0.0143 -0.2141
79422W        W22475  18.417  23.487   6.621 -0.1128 -0.0167  0.1274
79423W        W22476   8.504  26.462  23.842 -0.0140 -0.0380 -0.1831
79424W        W22477   6.814  28.477  14.508  0.0616  0.4675 -0.4629
79425W        W22478   3.327   9.193   7.570 -0.1152 -0.2534 -0.1538
79426W        W22479  30.874  25.218   4.264  0.0003 -0.0248 -0.1212
79427W        W22480  22.558  26.003   3.324 -0.0482 -0.0376  0.1580
79428W        W22481  16.586  29.744  26.735 -0.2886 -0.0893 -0.0998
79429W        W22482  32.464   9.035  27.880 -0.0508  0.0718 -0.2302
79430W        W22483  15.641  19.705  14.413  0.1134 -0.1137 -0.2350
79431W        W22484  12.161  30.939  25.927 -0.2630  0.3131  0.0823
79432W        W22485   7.792  32.185   8.842 -0.0208 -0.1058  0.0257
79433W        W22486  19.247  21.996   2.475  0.2017 -0.1834  0.0460
79434W        W22487  13.779  28.435  27.874  0.0834  0.1749 -0.3459
79435W        W22488  18.496  12.122  15.238 -0.4522 -0.2149 -0.1731
79436W        W22489  28.237  27.951   9.062 -0.2671  0.0006  0.3458
79437W        W22490  19.771  10.320  21.545 -0.1836  0.3981  0.2668
79438W        W22491  13.115  26.346  14.450 -0.1756 -0.0270  0.0027
79439W        W22492  17.177  13.593  14.108 -0.2385  0.1921  0.2272
79440W        W22493   8.173  33.337  28.330  0.0186 -0.0743  0.1249
79441W        W22494   0.399  19.612   2.231 -0.0554  0.1636 -0.1352
79442W        W22495  16.622  32.106  21.841  0.1087  0.0547 -0.3703
79443W        W22496  14.081  19.191   4.682  0.2140  0.0866 -0.1713
79444W        W22497  20.544  11.500  15.293 -0.1417  0.1866 -0.3772
79445W        W22498   8.148   3.706  23.074  0.1672 -0.1462  0.2479
79446W        W22499   4.749  23.844  25.542  0.2750  0.0627 -0.0591
79447W        W22500  21.938  26.709  16.180  0.0009  0.0288  0.0800
79448W        W22501  29.265  31.880  27.431  0.0661 -0.3129  0.1359
79449W        W22502  30.681  31.649   4.003 -0.1474 -0.3395 -0.0016
79450W        W22503  19.359  26.216   7.782  0.0193 -0.1523 -0.2211
79451W        W22504  28.175  34.310  27.973 -0.3912 -0.4662 -0.0081
79452W        W22505  17.871  23.294  19.597  0.0543 -0.0213  0.1265
79453W        W22506  23.933  32.312  28.737  0.0079  0.0858  0.0285
79454W        W22507  21.548  19.058  20.756  0.4413 -0.1904 -0.0448
79455W        W22508  27.378  29.085  14.382  0.1322 -0.2448 -0.2543
79456W        W22509  21.945   3.233  15.073 -0.1384 -0.0021 -0.0497
79457W        W22510  33.268  23.882  27.668 -0.0250  0.0111 -0.1060
79458W        W22511  15.594   0.572   7.985  0.1201 -0.2594 -0.1365
79459W        W22512   7.401  23.784  19.607  0.1243  0.2130 -0.2222
79460W        W22513  17.160  30.094  18.593 -0.0562  0.1084 -0.1325
79461W        W22514   9.976  34.020  19.264  0.0401  0.2458  0.2634
79462W        W22515  17.748  30.913  19.818 -0.2395 -0.0749 -0.0860
79463W        W22516  17.299  10.280  21.615  0.0346 -0.2808  0.2698
79464W        W22517  17.999  28.912  21.029 -0.2320  0.2371  0.0536
79465W        W22518  31.553  20.798  21.612 -0.0999 -0.1271  0.0037
79466W        W22519   2.478  25.685  20.611  0.1402 -0.2696  0.1623
79467W        W22520  11.086  20.030   1.444 -0.2188 -0.1076  0.2454
79468W        W22521  20.094  33.977   2.596  0.1118 -0.0247  0.1324
79469W        W22522  22.652   3.896  26.648 -0.2134  0.3033 -0.1019
79470W        W22523   4.141  20.860   1.459  0.4269 -0.0264 -0.0690
79471W        W22524  25.986  23.821  19.574  0.0198 -0.3281 -0.0690
79472W        W22525  17.748  34.304  24.231 -0.2968 -0.1677 -0.6060
79473W        W22526   0.608   9.056  25.648  0.1514 -0.0104  0.1040
79474W        W22527  28.830   5.782   8.406 -0.0426  0.0858 -0.1280
79475W        W22528  15.657  12.379  15.670 -0.1214 -0.3125 -0.1254
79476W        W22529   9.219  26.443  22.322  0.2285 -0.1669 -0.0247
79477W        W22530  18.186  34.594  15.343  0.0412  0.1733 -0.1425
79478W        W22531  26.062   0.643  28.033 -0.1553 -0.2377 -0.1185
79479W        W22532  10.035  16.556  14.559 -0.0493  0.3034  0.0263
79480W        W22533  23.266  13.969  25.283  0.1348 -0.0339  0.2933
79481W        W22534  22.489   1.463  28.379  0.0691  0.1001  0.2336
79482W        W22535  28.148  27.799   4.210  0.0555 -0.0664 -0.3283
79483W        W22536  34.075  21.621  24.072 -0.1403  0.0389  0.0545
79484W        W22537   1.139  32.183  18.835  0.3774 -0.3036  0.1751
79485W        W22538   3.522  14.802  24.912 -0.0126 -0.0644 -0.0031
79486W        W22539  10.783  22.080  25.195  0.0326  0.0795 -0.0088
79487W        W22540  23.983  28.027  23.601  0.0418  0.2540 -0.1214
79488W        W22541  24.441  26.215  18.339 -0.0395 -0.2608 -0.1859
79489W        W22542   8.360  11.368  25.220  0.3481  0.1918 -0.0830
79490W        W22543  10.647  23.103  25.956  0.0568  0.2586  0.1679
79491W        W22544  25.114   3.121   5.816  0.5750  0.2020 -0.0078
79492W        W22545  10.154  20.461   8.127 -0.0061  0.0424  0.1567
79493W        W22546   1.315  24.745  19.923 -0.1612 -0.2770  0.2940
79494W        W22547   5.626  27.658  13.243  0.2366 -0.0675 -0.0787
79495W        W22548  12.924  33.865  19.033  0.3563 -0.1249 -0.1398
79496W        W22549  17.691  13.259   1.726  0.1752  0.3061 -0.1540
79497W        W22550   6.662  29.507  14.790  0.1558  0.1282 -0.0309
79498W        W22551  34.211  11.198  27.613 -0.1949 -0.2930  0.1817
79499W        W22552  14.384  26.805  16.516 -0.0549 -0.3058 -0.3118
79500W        W22553  10.505  27.880  23.829  0.3604  0.0833  0.2088
79501W        W22554  13.052  30.207  16.184  0.0980 -0.1143 -0.1364
79502W        W22555  23.996   0.392  24.539  0.0828  0.1394 -0.2381
79503W        W22556  10.224  24.075  22.855 -0.0084  0.5425 -0.0255
79504W        W22557  11.246  26.332  21.899 -0.2101 -0.1859 -0.0451
79505W        W22558  20.284  10.284  14.032 -0.3097 -0.2809 -0.2108
79506W        W22559  15.993  21.168  25.286 -0.5017  0.1204 -0.1678
79507W        W22560  23.743  26.937  25.696 -0.0819 -0.2991 -0.0072
79508W        W22561  20.006   3.323  28.140  0.1058  0.1699  0.2758
79509W        W22562  19.825   1.345  26.123 -0.0373 -0.1961  0.1881
79510W        W22563  28.292  20.127   3.957 -0.0024  0.4416  0.0530
79511W        W22564   6.684  19.572  18.887  0.3763  0.1837 -0.1450
79512W        W22565  15.552  28.963  20.905 -0.0682  0.4529  0.2156
79513W        W22566  19.542  24.946   5.082  0.1952 -0.0317  0.2681
79514W        W22567  10.958   3.110   1.090 -0.1333  0.0504 -0.2593
79515W        W22568  10.875  19.930  24.568  0.0493  0.0489 -0.0736
79516W        W22569  11.062  13.405  28.383  0.1072  0.2869  0.1394
79517W        W22570   9.997  25.759  16.772  0.2270  0.4196 -0.2849
79518W        W22571  18.228  16.580  28.913 -0.2242 -0.3260  0.0379
79519W        W22572  33.443   3.586   4.165  0.1931 -0.0585  0.2780
79520W        W22573  29.935  20.255  14.418  0.0075  0.1992  0.0237
79521W        W22574  19.454   0.587   8.532 -0.1638  0.0773 -0.2157
79522W        W22575  33.776  25.906  19.679 -0.0098  0.1050  0.1907
79523W        W22576   0.306  27.950  27.579 -0.1095  0.2443  0.0442
79524W        W22577   2.463  27.310   3.901  0.3305 -0.0126 -0.2028
79525W        W22578  16.638  27.921   5.734  0.1060  0.0736  0.2226
79526W        W22579  15.946  30.406  14.539  0.0391  0.2754  0.2315
79527W        W22580  23.347  29.789  18.977  0.0301  0.3549 -0.1000
79528W        W22581  21.847  31.922  21.414  0.0690 -0.2908 -0.0318
79529W        W22582  15.712  13.494  14.068 -0.0050  0.0292 -0.2389
79530W        W22583  10.679   3.482  25.644  0.0084 -0.0961 -0.2312
79531W        W22584  11.141  34.172  15.613  0.2987 -0.0880 -0.1069
79532W        W22585   6.799   2.938   5.768 -0.1159 -0.3868 -0.4101
79533W        W22586  14.369  22.209   3.701  0.1808  0.1023  0.2392
79534W        W22587  13.865  29.187  17.941  0.2872  0.3398  0.3309
79535W        W22588  15.491  30.268   3.133  0.0213  0.0203 -0.0979
79536W        W22589  26.422  22.453  15.796  0.2303 -0.1057  0.1394
79537W        W22590  15.581   7.684  20.051  0.1229 -0.1218  0.2577
79538W        W22591  24.265  30.941   6.635  0.2224  0.1348  0.0616
79539W        W22592   8.389  30.241  27.662  0.0148 -0.0691 -0.1030
79540W        W22593  25.091  11.168  16.296 -0.1582 -0.0369 -0.0600
79541W        W22594  29.796   0.639  28.048  0.2215 -0.0022  0.0103
79542W        W22595  32.781  34.215  21.195 -0.2070  0.0285 -0.4477
79543W        W22596   7.961   3.937   8.820  0.0383 -0.1994 -0.4503
79544W        W22597  12.718   3.509  18.295 -0.0197 -0.0420 -0.0181
79545W        W22598   3.096  30.086  19.879  0.1416 -0.0792  0.0585
79546W        W22599  25.954   1.502  23.418 -0.0275  0.0197  0.0652
79547W        W22600  29.593  33.665  15.823 -0.0433 -0.2245 -0.0367
79548W        W22601  14.438  28.623  26.257 -0.1260  0.0577 -0.2901
79549W        W22602  12.908  27.878   7.530 -0.1004 -0.1628  0.3385
79550W        W22603  14.604  10.977  17.758 -0.1265  0.2109  0.1504
79551W        W22604   8.262  29.722   0.278 -0.2091  0.3658 -0.0268
79552W        W22605  23.804   7.895   9.082 -0.0225  0.0259  0.1833
79553W        W22606   0.114   0.023  24.792  0.1386 -0.2578 -0.0960
79554W        W22607  27.050   9.399   5.185 -0.1305  0.2235 -0.4318
79555W        W22608  19.363   9.597  26.627  0.0769 -0.2804 -0.0410
79556W        W22609   7.054   0.565  20.920 -0.1082 -0.0384  0.2358
79557W        W22610  25.387  25.750  24.032 -0.1642 -0.1597 -0.1795
79558W        W22611  21.461  34.013  17.876 -0.1582  0.1068  0.1135
79559W        W22612  12.397  18.021  21.462 -0.0988  0.0466  0.2300
79560W        W22613  11.556  29.128  18.687 -0.0508  0.2651  0.0105
79561W        W22614   8.971  25.440  28.383 -0.2453 -0.2030  0.0517
79562W        W22615  28.226  32.216  17.202  0.0193 -0.2866  0.1986
79563W        W22616   0.220  15.013  24.240 -0.0566  0.1400 -0.0486
79564W        W22617  10.504  31.216   5.576  0.0204  0.3482 -0.0939
79565W        W22618   9.146   5.808  26.143 -0.2143 -0.1046  0.3494
79566W        W22619  22.083  29.121  23.399  0.1872  0.1091 -0.0321
79567W        W22620  26.600   7.335  23.076 -0.3040  0.3681 -0.1316
79568W        W22621   6.253  20.002  14.944 -0.0647  0.1187 -0.0677
79569W        W22622  11.804  29.307  19.130 -0.0823  0.0218  0.3118
79570W        W22623  17.154   0.987  20.801  0.0340 -0.4158 -0.0500
79571W        W22624  24.969   5.112  22.115  0.2365  0.3237 -0.1639
79572W        W22625  24.959  32.346   4.532 -0.3560 -0.1775  0.2065
79573W        W22626   9.429  14.532  20.979 -0.0789  0.0606 -0.2825
79574W        W22627  29.455   3.316  20.030 -0.0616 -0.0071 -0.1926
79575W        W22628   6.995   5.679   2.249 -0.0735 -0.0036  0.0297
79576W        W22629  19.674  23.725  24.590 -0.2971 -0.0498 -0.1159
79577W        W22630  19.662  21.731  20.234  0.0317  0.1144  0.0916
79578W        W22631  17.685  24.773   3.457  0.2689  0.1062  0.1956
79579W        W22632  28.204  13.591  27.655  0.1686  0.1167 -0.1472
79580W        W22633   5.235  25.836  28.177  0.0937 -0.2907  0.2076
79581W        W22634  28.339   0.617  21.762 -0.1101 -0.0015  0.0176
79582W        W22635  21.004  21.087  25.150  0.4025  0.2589  0.0019
79583W        W22636  23.852  32.450   8.235  0.1133 -0.5190  0.0010
79584W        W22637   2.045  32.633  16.238  0.2425  0.1136 -0.0066
79585W        W22638   3.338  31.792  29.062 -0.1516 -0.0206  0.2439
79586W        W22639  28.093  26.235  16.724 -0.1745 -0.3577 -0.2202
79587W        W22640   7.154   7.518  22.062 -0.1819  0.3154 -0.0872
79588W        W22641  24.827  31.311  21.257  0.2641  0.3147 -0.0760
79589W        W22642  13.905  30.936  23.477 -0.3275 -0.3502  0.0080
79590W        W22643  13.070  20.317  13.384 -0.0489  0.1899  0.2385
79591W        W22644   2.660  18.380  28.959  0.0036 -0.0128  0.1343
79592W        W22645   6.239  14.353  20.607 -0.0577 -0.1737  0.0417
79593W        W22646   3.797  14.169   1.047  0.3519 -0.0447 -0.1175
79594W        W22647  17.017   1.966   6.927  0.1214  0.5536  0.1911
79595W        W22648   6.621  22.631  17.720 -0.1081 -0.4129  0.0097
79596W        W22649  25.261   6.708  21.056 -0.2981  0.2451 -0.1609
79597W        W22650  27.396  23.751   0.701 -0.3679  0.0834  0.2026
79598W        W22651  13.512  19.913   1.991 -0.0546 -0.1161 -0.4763
79599W        W22652  34.596  10.878  14.776  0.0277 -0.2974 -0.0673
79600W        W22653  17.370  24.427  14.248  0.1157  0.0320  0.2291
79601W        W22654  22.045  18.305  20.637  0.4005  0.2306  0.0457
79602W        W22655  29.242   5.156  24.587  0.1330 -0.2568  0.1064
79603W        W22656   0.358  13.577   5.906 -0.4190 -0.0709 -0.0171
79604W        W22657   8.057  34.592  22.192  0.0916  0.2351 -0.0391
79605W        W22658  23.934   2.108  25.539  0.1119  0.0245  0.3346
79606W        W22659  17.337   2.667   1.337  0.0072  0.0248 -0.2615
79607W        W22660  27.367  22.334   4.794  0.0368 -0.3899  0.1251
79608W        W22661  16.066  32.945   1.247  0.1215  0.1826 -0.0316
79609W        W22662  32.962   2.726  19.527 -0.0099  0.1075  0.0497
79610W        W22663   9.708  23.711   4.101  0.1732 -0.0810 -0.2703
79611W        W22664  34.477  19.092  16.483 -0.0519  0.0468 -0.2465
79612W        W22665   7.652  27.082   4.038  0.0716 -0.1936  0.0443
79613W        W22666  26.220  31.136  23.339 -0.2240 -0.3303  0.0590
79614W        W22667  15.327  22.931  20.365  0.1617  0.1410 -0.3717
79615W        W22668  11.790  33.488  24.829 -0.0359  0.2221 -0.2052
79616W        W22669  16.697  16.951  15.460  0.2128  0.2758  0.0834
79617W        W22670  10.917  12.527  21.308  0.0565  0.0303 -0.2054
79618W        W22671  32.878  26.912  21.567 -0.0046  0.2274  0.0674
79619W        W22672  29.011  29.549   1.506  0.0393 -0.1748  0.0133
79620W        W22673  25.683   0.252   8.277  0.2771  0.2409  0.1246
79621W        W22674  11.847  26.215   0.992  0.0051  0.1168  0.3090
79622W        W22675  12.406  16.390  15.239 -0.0231 -0.0118 -0.3796
79623W        W22676  12.302   0.245  15.585 -0.0640 -0.2414 -0.1578
79624W        W22677  19.061  27.891  20.498  0.0906  0.1782 -0.1313
79625W        W22678   9.335  23.258  15.888 -0.0865 -0.2364 -0.2858
79626W        W22679   9.340  16.394   6.636  0.1118 -0.1108 -0.2191
79627W        W22680   3.844  32.772  25.799 -0.0432  0.1294 -0.2479
79628W        W22681  11.844   5.389  25.004 -0.1111  0.2491 -0.2195
79629W        W22682  10.663  27.940  26.112 -0.3832  0.0655  0.0681
79630W        W22683  31.637  21.830  26.716 -0.0711 -0.2312 -0.2907
79631W        W22684  13.879  18.480  24.287 -0.0127  0.1781 -0.0788
79632W        W22685  15.565  23.217  21.957 -0.0921 -0.0774  0.0691
79633W        W22686  27.698  29.002  20.827  0.2053  0.0423  0.0527
79634W        W22687  17.720   1.856  22.568 -0.1965  0.2102  0.1496
79635W        W22688  14.410   2.897  16.781 -0.2228  0.0890 -0.0446
79636W        W22689  21.852  21.863  22.465  0.0746  0.1003 -0.1332
79637W        W22690  20.496  25.457  27.366 -0.1008 -0.1767  0.2181
79638W        W22691  18.518  24.247  26.832 -0.1668 -0.0405 -0.3763
79639W        W22692  20.675  30.365   9.274  0.1401 -0.1125  0.2106
79640W        W22693  17.714  32.288   2.110  0.2195  0.0822 -0.1353
79641W        W22694  12.817  28.552  21.967  0.4754  0.0372  0.0309
79642W        W22695  10.136  22.079   6.272  0.3576  0.1726 -0.2029
79643W        W22696  11.216  25.060  13.979  0.1471 -0.0466  0.0195
79644W        W22697  19.579  30.008  22.956 -0.2728  0.1291 -0.1709
79645W        W22698  20.567  28.645   2.079 -0.2490  0.1104 -0.3586
79646W        W22699  33.736  14.715  21.369 -0.0296 -0.0661  0.1183
79647W        W22700  15.600  20.375   0.570 -0.0527 -0.0193  0.1669
79648W        W22701  29.734  21.656  23.791  0.0473  0.2311 -0.2874
79649W        W22702  18.984  27.414  28.282  0.0445 -0.0628 -0.1669
79650W        W22703  11.677  20.250   3.621  0.2048  0.0062  0.1108
79651W        W22704  21.262  19.478  17.026 -0.0189 -0.0484  0.2596
79652W        W22705  13.803  32.094   8.899  0.2059 -0.1084 -0.0987
79653W        W22706  23.080  25.466  19.046 -0.0939 -0.0799  0.0881
79654W        W22707  21.033  29.795   5.906 -0.1445  0.0033  0.0820
79655W        W22708  20.123  27.395  19.428 -0.1314 -0.0129 -0.0435
79656W        W22709  13.465  16.678  16.594  0.2684  0.0061 -0.0440
79657W        W22710  21.661  23.603   0.444 -0.0008  0.1877  0.2697
79658W        W22711  24.636  23.201  28.644 -0.2444 -0.2062 -0.0344
79659W        W22712  15.816  32.264   5.943 -0.1822 -0.2651  0.2155
79660W        W22713  18.995   4.383  17.258 -0.0653  0.1405 -0.0806
79661W        W22714  20.598  24.117  14.777  0.3226 -0.1267  0.0254
79662W        W22715  14.115  27.673  22.839 -0.2078 -0.2400 -0.0453
79663W        W22716  28.953   1.231   7.106 -0.0546 -0.0059 -0.2808
79664W        W22717  33.921  18.850  18.255 -0.1355  0.0590  0.2730
79665W        W22718  16.425  12.097   1.333  0.0620 -0.0791  0.4432
79666W        W22719  19.761  10.469  22.624  0.2637 -0.1819  0.3241
79667W        W22720   7.627  10.901  16.716 -0.0046 -0.0568  0.0123
79668W        W22721  23.841   1.926  22.444 -0.1969  0.1818  0.3283
79669W        W22722  18.240  30.519  20.115 -0.2160 -0.2501 -0.2226
79670W        W22723  11.340   3.926  22.886 -0.0381  0.0449  0.1237
79671W        W22724  20.392   8.787  22.683 -0.1988  0.0414  0.1924
79672W        W22725  16.901  27.938  27.399 -0.1124 -0.1756  0.4214
79673W        W22726   3.371   4.479   8.078 -0.0278 -0.0518 -0.2379
79674W        W22727  24.571   1.428   6.994 -0.3211 -0.1900  0.0849
79675W        W22728   2.332  12.869  19.741 -0.0370  0.1063 -0.2890
79676W        W22729  29.324  16.121  20.390 -0.1548 -0.0671  0.0764
79677W        W22730   6.762  25.327  16.726  0.2694 -0.0211  0.3085
79678W        W22731  19.740  31.589  20.631 -0.1301  0.3511  0.2097
79679W        W22732   8.640   2.642  14.904  0.2308  0.3409  0.0605
79680W        W22733   7.232  33.140  28.464 -0.0151  0.0271 -0.2011
79681W        W22734  29.917  25.388  21.995 -0.1220 -0.0969  0.1095
79682W        W22735  33.093  27.504  13.801 -0.1094  0.1410  0.1145
79683W        W22736  24.266  12.282   2.378  0.3501 -0.0362 -0.1628
79684W        W22737  12.014  23.821  25.387  0.1156 -0.1565 -0.1086
79685W        W22738  19.876   4.099  15.177  0.0429 -0.0271  0.0566
79686W        W22739  18.555  24.181  17.629  0.0174 -0.1021 -0.4901
79687W        W22740  18.136   7.950   1.824  0.0057  0.1681  0.2875
79688W        W22741  23.553  28.783  13.332  0.0778 -0.2089  0.3118
79689W        W22742  12.789  25.754  28.416  0.1275  0.2300 -0.0527
79690W        W22743  22.169   6.507   2.997 -0.0428 -0.3639 -0.4456
79691W        W22744   3.299  25.490  22.755 -0.1008  0.0855 -0.2149
79692W        W22745  27.248  29.268  20.901  0.2651 -0.2362  0.1649
79693W        W22746  15.918  19.315  17.289  0.2853 -0.0715 -0.1142
79694W        W22747  10.871  28.031  21.112 -0.0588  0.0748  0.0148
79695W        W22748   8.881  34.251  14.739  0.2208  0.0530  0.3458
79696W        W22749   7.755  31.905  25.016  0.0259  0.0103  0.3168
79697W        W22750  13.085  33.800  16.572 -0.0839 -0.2479  0.2261
79698W        W22751   5.972  14.352  26.099  0.1357 -0.1092  0.0834
79699W        W22752  32.754  23.402  23.111 -0.3092 -0.1557  0.3001
79700W        W22753  22.483  11.131   3.622 -0.1676  0.4878  0.2490
79701W        W22754  10.650  14.554   1.733 -0.3634  0.1146  0.0180
79702W        W22755  11.289  25.868  22.549  0.2580  0.3677  0.0013
79703W        W22756  12.403  18.829  26.003 -0.3739 -0.1141  0.1492
79704W        W22757  16.149   6.537  25.023  0.1648 -0.0627  0.1152
79705W        W22758  20.671  29.163  26.117 -0.0874 -0.1727 -0.3970
79706W        W22759  23.670  10.378  19.317  0.0774  0.0015 -0.0053
79707W        W22760  11.193  15.053  25.665 -0.0702  0.0924 -0.1644
79708W        W22761   2.838  21.494  20.674  0.0603 -0.0570 -0.0718
79709W        W22762  27.686  33.371  28.661  0.0415 -0.0825 -0.1593
79710W        W22763  22.385  31.869  16.145  0.1143 -0.0202  0.0610
79711W        W22764  14.641  34.026   1.009 -0.2826  0.2252 -0.2786
79712W        W22765  17.850  24.836   9.290  0.0954 -0.1408 -0.0488
79713W        W22766  13.400   8.128   3.288 -0.4644 -0.0957 -0.3461
79714W        W22767  19.451  23.997   3.823  0.3460  0.2089  0.3016
79715W        W22768   1.945  30.147  14.557  0.0101  0.4112 -0.2918
79716W        W22769  13.730  23.749  26.339  0.1552  0.2742  0.4532
79717W        W22770  10.372  14.903  15.000 -0.0854  0.0661 -0.1095
79718W        W22771   5.581  17.350  21.275  0.1792 -0.3801 -0.5002
79719W        W22772  13.861  22.635  27.555  0.1630 -0.3779 -0.0380
79720W        W22773  30.696  15.174  26.178  0.0330  0.3569  0.0291
79721W        W22774  20.374   2.175  18.684 -0.1196 -0.1085  0.1983
79722W        W22775  15.774  25.233  18.548  0.1398 -0.1973 -0.2602
79723W        W22776  12.680  27.620  27.850  0.0997  0.2775  0.0459
79724W        W22777   4.281  34.223  17.417 -0.0181 -0.0662 -0.0330
79725W        W22778  33.506   4.720  25.616  0.1228  0.2949 -0.0473
79726W        W22779  23.543   2.717   9.537 -0.1194  0.3766 -0.4839
79727W        W22780  11.406  16.651  18.113 -0.5692 -0.0282  0.1869
79728W        W22781  30.113  27.912  19.529  0.1946  0.0476  0.2265
79729W        W22782   4.087  23.778   1.685 -0.2570 -0.0068 -0.1818
79730W        W22783  25.917   6.108  19.334  0.2318  0.0516  0.2780
79731W        W22784  11.647   9.550  20.167 -0.1625  0.1577 -0.0750
79732W        W22785  17.748  33.022  28.785 -0.1236  0.0281  0.1271
79733W        W22786  10.025  11.741  26.159  0.0252 -0.3624  0.2685
79734W        W22787  29.412  27.377  27.404 -0.0369 -0.0802 -0.0125
79735W        W22788  33.691   1.950  21.321  0.1524  0.1319 -0.1160
79736W        W22789   4.732  24.085  15.103 -0.2742 -0.1507 -0.1061
79737W        W22790  10.722  18.939   9.479 -0.1755 -0.0153  0.0639
79738W        W22791  15.380  27.757   4.914 -0.0059  0.0521  0.1477
79739W        W22792  34.474  21.855  26.233 -0.2374  0.0036  0.0559
79740W        W22793   7.314  19.543  20.156  0.1253  0.3478  0.1975
79741W        W22794  15.338  29.400   3.135 -0.3017  0.0566 -0.0358
79742W        W22795  26.784  31.090   0.261  0.2133  0.1106 -0.2325
79743W        W22796  15.872  13.544  16.566  0.1237 -0.1167  0.1896
79744W        W22797  32.313  24.641   1.488  0.1181  0.4493 -0.3639
79745W        W22798  23.898  32.775   7.729 -0.0016  0.0579  0.0512
79746W        W22799  19.346   9.978   3.950 -0.0860  0.0899  0.2130
79747W        W22800  10.796  26.206  26.571  0.1420  0.3145  0.1950
79748W        W22801  16.349  27.541   6.023 -0.0597 -0.0585 -0.1463
79749W        W22802   8.478  27.642  19.617  0.2291  0.0921  0.0366
79750W        W22803   4.477  26.998  15.374  0.0788 -0.1477 -0.1392
79751W        W22804  34.084  21.887  25.608  0.2883 -0.1924 -0.5728
79752W        W22805  19.371  27.174  19.075 -0.0732 -0.1475 -0.1132
79753W        W22806  23.261  34.097  22.028 -0.0559 -0.0086 -0.2017
79754W        W22807  10.589  19.088  15.701 -0.0608  0.1162 -0.2240
79755W        W22808  23.013  24.371   7.701 -0.2028  0.2598 -0.3081
79756W        W22809  24.118  29.710   9.601  0.1737  0.1291 -0.0168
79757W        W22810   3.675   9.531  19.638 -0.0470  0.2564 -0.2416
79758W        W22811  19.609   2.318  24.132  0.0035 -0.4296  0.1252
79759W        W22812   9.321  19.698  21.105 -0.1704 -0.1023  0.1641
79760W        W22813   8.586  13.764   4.516  0.2666  0.2404 -0.3962
79761W        W22814  32.261  25.594  13.921  0.2346  0.0328 -0.1912
79762W        W22815   9.671   8.264  29.166 -0.1487 -0.0921  0.2233
79763W        W22816  29.670  30.050  15.918 -0.3646  0.2072  0.1653
79764W        W22817   6.224   4.952  16.660  0.1365 -0.0749 -0.3269
79765W        W22818  33.487  26.069   0.415  0.0747  0.0737  0.0625
79766W        W22819  25.192  14.979   3.632  0.1143  0.1451  0.1051
79767W        W22820   5.017  26.371  19.899  0.2213  0.0558 -0.2098
79768W        W22821  25.787  21.156  23.768  0.0862 -0.0566  0.2003
79769W        W22822  22.915  20.695  22.404  0.4093  0.2808 -0.0047
79770W        W22823  20.838  10.811  23.178  0.1298  0.6274 -0.0146
79771W        W22824  12.834  23.436   9.348 -0.0750  0.0863 -0.2060
79772W        W22825  34.673  19.647  28.109 -0.0565  0.0589  0.0140
79773W        W22826  14.978   1.316  28.547  0.1527  0.0447 -0.0422
79774W        W22827  29.850   4.218   9.545 -0.1525 -0.2201 -0.1533
79775W        W22828   4.338   1.268   0.278 -0.2149 -0.1654  0.1264
79776W        W22829  15.535   0.054  25.682 -0.0966  0.1397  0.0408
79777W        W22830  23.848  24.668  28.432  0.1562  0.2384 -0.3592
79778W        W22831   1.543  23.633  24.322  0.2867 -0.2270  0.3698
79779W        W22832  21.789  11.761   1.480  0.0142 -0.0757 -0.2106
79780W        W22833  15.443  22.209   2.305  0.1146 -0.6029 -0.0199
79781W        W22834  14.544  29.924  22.188 -0.0514 -0.2184 -0.2256
79782W        W22835  10.591  28.294   8.173 -0.2691 -0.0734  0.1153
79783W        W22836   8.242   7.826  24.386 -0.0208 -0.1230 -0.3213
79784W        W22837  31.629  26.971  19.989  0.3221  0.0062 -0.0923
79785W        W22838   2.236  20.177   3.013 -0.0945  0.0273  0.1376
79786W        W22839  28.345   4.043  23.567 -0.0448  0.0144  0.2423
79787W        W22840  13.347   8.277   1.517  0.1057  0.0302 -0.1881
79788W        W22841  13.440  24.552  20.834 -0.1429 -0.0336  0.2717
79789W        W22842  13.213  29.056  15.748  0.3215  0.0748 -0.2229
79790W        W22843  24.994  28.802  25.128 -0.1109 -0.0953 -0.2670
79791W        W22844  33.598   4.140  22.438 -0.2372  0.3589  0.1966
79792W        W22845  14.180  16.979   6.416 -0.2769 -0.1672 -0.1311
79793W        W22846  10.485  19.751  25.172  0.3290  0.2672  0.0047
79794W        W22847   9.870  31.530  14.314 -0.3184  0.0151  0.1205
79795W        W22848  21.927   6.154  19.830  0.1510 -0.0503  0.0044
79796W        W22849   9.030  25.090   9.284  0.0731 -0.0400 -0.0615
79797W        W22850  10.118  33.946  17.655 -0.0962  0.0265 -0.1125
79798W        W22851  12.874  27.334   4.169 -0.0694  0.0247 -0.1441
79799W        W22852  16.354   2.403  26.414 -0.0081  0.3957 -0.4839
79800W        W22853  34.459  27.225  22.816 -0.3804 -0.2467 -0.2595
79801W        W22854  18.763  12.425   1.841  0.0831  0.0446  0.0324
79802W        W22855   9.735   1.680  24.192 -0.0691  0.1076 -0.1669
79803W        W22856  11.073  27.777   0.382  0.1134 -0.0645 -0.0783
79804W        W22857  16.212  22.586   4.252 -0.1778  0.2221 -0.0484
79805W        W22858  11.484  10.161   2.604 -0.0259  0.1334 -0.1444
79806W        W22859   1.016  22.316  27.563  0.1936  0.1310  0.0207
79807W        W22860  31.844  16.563  24.403 -0.2447 -0.1481  0.4026
79808W        W22861  21.693  31.593   2.209 -0.1086  0.3486 -0.3689
79809W        W22862  30.673   1.731   7.937 -0.2433 -0.2455 -0.0101
79810W        W22863  13.346   6.091  17.317  0.0505  0.1521  0.0798
79811W        W22864  16.275  20.193  26.215 -0.2441 -0.0191  0.1183
79812W        W22865   6.217  25.097  20.883 -0.3002 -0.2200 -0.0584
79813W        W22866  22.452  23.531   4.644  0.3056  0.3503  0.0927
79814W        W22867  24.037  18.982   9.015  0.2264  0.0542  0.0506
79815W        W22868  25.524  19.507  20.732 -0.2502 -0.1279 -0.1525
79816W        W22869  22.591  33.315   8.356 -0.0597  0.0754 -0.2264
79817W        W22870  21.947  24.152  15.267 -0.0275 -0.0154 -0.1468
79818W        W22871  23.703  23.821  22.066  0.0230 -0.3516  0.0204
79819W        W22872   8.504  12.575  26.091  0.3579  0.0510  0.1542
79820W        W22873   3.790  19.212   8.220  0.0190 -0.0390  0.0884
79821W        W22874   0.133  21.915  20.623  0.1890  0.0578 -0.2929
79822W        W22875  20.705  28.078  21.404 -0.0704  0.1019 -0.0644
79823W        W22876  10.332   3.932  23.014 -0.0088 -0.2101  0.1242
79824W        W22877   5.642  14.187  25.637  0.0549  0.1464  0.1534
79825W        W22878   6.587  21.281  27.136 -0.1669 -0.1189  0.1561
79826W        W22879  14.862  27.862   1.431  0.2748 -0.1436 -0.1367
79827W        W22880  11.403  32.793  17.975 -0.0916 -0.2803  0.1207
79828W        W22881  19.293  27.128   8.824  0.1293  0.0515  0.1484
79829W        W22882  11.247  22.764  16.085  0.2768  0.1854  0.0825
79830W        W22883  27.396  29.926   6.148  0.3370 -0.3568  0.2468
79831W        W22884   7.517  28.125   4.691 -0.1417 -0.1618  0.0847
79832W        W22885  21.270   2.878  27.233 -0.1055 -0.1022 -0.4751
79833W        W22886   8.466   5.007  17.178  0.0381 -0.2140 -0.2892
79834W        W22887  32.448  25.427  20.013 -0.1749 -0.1037  0.0998
79835W        W22888   6.178   3.916  27.165  0.3069 -0.0084  0.0722
79836W        W22889  22.664  11.832  13.736  0.1465 -0.0247  0.0099
79837W        W22890  12.063  31.442  25.710  0.1015  0.2036  0.0023
79838W        W22891   8.249  16.735  17.852 -0.4763 -0.1961  0.2689
79839W        W22892  20.363   0.248  24.655 -0.0309 -0.2484 -0.0672
79840W        W22893  11.555  24.856   6.730  0.0515 -0.0385 -0.0154
79841W        W22894  12.053   3.343  24.322  0.0572  0.1133 -0.0409
79842W        W22895  12.089   5.553  20.159 -0.0374 -0.1486  0.1673
79843W        W22896   9.376  33.855  24.645  0.2574  0.1970  0.2158
79844W        W22897   9.732  19.199  25.267  0.1801  0.2921  0.2398
79845W        W22898  14.779   5.610  26.597  0.2421  0.1584 -0.1258
79846W        W22899   9.467  21.429  26.632 -0.1340 -0.0050  0.2302
79847W        W22900  19.640  32.942  28.255 -0.1212  0.0989 -0.2863
79848W        W22901  17.998   0.417  15.167 -0.0702 -0.3755 -0.1069
79849W        W22902  10.852  10.070  21.885  0.2190  0.3662  0.5357
79850W        W22903   7.942  21.560  27.753 -0.1185 -0.2782  0.1724
79851W        W22904  16.134   5.781  26.969 -0.0545  0.0887 -0.3605
79852W        W22905  22.945  29.282   4.071  0.2890  0.2813  0.1639
79853W        W22906  27.826   0.633  23.110  0.2058  0.1220  0.4115
79854W        W22907  16.321  31.509   3.071 -0.0278 -0.2197  0.0021
79855W        W22908  19.484  21.909  17.866 -0.3709  0.0737  0.2652
79856W        W22909   3.268   0.041  15.189 -0.2566  0.3132 -0.1569
79857W        W22910   2.810  12.121  26.534  0.1366 -0.0749 -0.1357
79858W        W22911   7.654  10.187   1.457  0.1031  0.1234  0.3153
79859W        W22912  21.544  18.270   4.261  0.3076  0.1050  0.0937
79860W        W22913   7.113   4.633   4.033  0.6076 -0.0235 -0.3389
79861W        W22914   7.158   0.716   3.460  0.0687  0.0515 -0.0585
79862W        W22915   7.538  24.291   1.548 -0.3321 -0.2547 -0.1282
79863W        W22916  28.432  32.987  20.965  0.0709 -0.0637  0.0618
79864W        W22917  12.081  15.532   2.259  0.0363  0.1021  0.0287
79865W        W22918  11.414  24.567  14.042  0.1775 -0.2921  0.0892
79866W        W22919  25.002  20.530  10.281  0.2619  0.0678 -0.3009
79867W        W22920  15.780  32.480  17.336 -0.0737 -0.0369 -0.1058
79868W        W22921  13.119   6.195   0.607 -0.2604  0.2909 -0.1708
79869W        W22922  28.261   4.272  19.456 -0.1801 -0.0752  0.1056
79870W        W22923  22.773  34.361  17.957  0.0180  0.1173  0.3550
79871W        W22924   3.448  23.434  21.873 -0.1689  0.1147 -0.0985
79872W        W22925   7.067  33.706  19.349  0.1759  0.0915  0.0645
79873W        W22926  32.367   0.675  25.486 -0.0798 -0.2906 -0.0161
79874W        W22927  22.016  21.760   5.742  0.2819 -0.3574 -0.4544
79875W        W22928  22.547  33.772  16.710  0.0337 -0.0842 -0.2740
79876W        W22929  21.839  25.639   2.040  0.1611  0.1843  0.2316
79877W        W22930   1.529  24.900   5.065  0.1319  0.0190 -0.1296
79878W        W22931  28.197  32.704  17.267 -0.2268  0.1828  0.2552
79879W        W22932  14.189  25.465  25.424  0.0203  0.3020  0.0835
79880W        W22933   8.505  20.002  27.040  0.1906  0.1007 -0.0388
79881W        W22934  21.888  29.597  27.996  0.0268  0.0493  0.1026
79882W        W22935  17.103  20.058  22.950  0.0489 -0.2103  0.0647
79883W        W22936   2.872  23.834  24.893  0.1331 -0.3614 -0.2236
79884W        W22937  33.390   6.161   7.273 -0.1740  0.1764  0.2083
79885W        W22938  17.895  26.796  28.629 -0.2114 -0.1741  0.1398
79886W        W22939  14.460  14.985   3.364  0.0628  0.1682 -0.0817
79887W        W22940  17.858   5.249   8.983  0.1603 -0.0386 -0.0161
79888W        W22941   0.511   5.006  15.312 -0.2235 -0.0402  0.2469
79889W        W22942  16.859  27.926  28.319  0.2904  0.0313 -0.3622
79890W        W22943  27.963  11.594  23.522 -0.0417 -0.0225 -0.0811
79891W        W22944  24.803  13.872  18.828 -0.0644  0.2693 -0.3348
79892W        W22945   4.878   1.166   0.968  0.0786  0.1410  0.0288
79893W        W22946   3.036   4.944  19.971  0.0556 -0.2128  0.1751
79894W        W22947  31.727  18.715  22.832 -0.0518 -0.0713  0.2363
79895W        W22948  12.064  21.259  15.367  0.4093 -0.0351  0.0147
79896W        W22949  12.116  26.897   0.560  0.1279 -0.0710  0.0590
79897W        W22950  20.593  33.434  17.740 -0.0553 -0.0767  0.2825
79898W        W22951  28.170   1.861   2.355  0.2098  0.0177 -0.0498
79899W        W22952   9.416  23.423  24.851  0.3135 -0.0581  0.0936
79900W        W22953   8.144  12.168   2.107 -0.1389 -0.1090  0.0385
79901W        W22954  25.661  30.472   2.304 -0.1900 -0.0429 -0.0423
79902W        W22955  17.145   0.916  17.684  0.1213 -0.0552  0.2980
79903W        W22956   8.374  34.231  22.799  0.2149 -0.0412  0.2573
79904W        W22957  31.643  34.366   7.538  0.0018  0.0533 -0.3090
79905W        W22958   2.031  32.877  19.693  0.1675 -0.0809  0.0514
79906W        W22959  25.207  23.166   7.576  0.4066  0.2641  0.1702
79907W        W22960  19.188  21.464   2.178 -0.1938  0.1316 -0.1444
79908W        W22961  19.241  30.815  20.716 -0.2180 -0.0779 -0.0950
79909W        W22962  10.092  21.234  29.054 -0.1793  0.1241  0.1253
79910W        W22963  33.321  23.816  20.208  0.2138 -0.0515  0.2063
79911W        W22964  22.615  27.625   3.707 -0.1883  0.1800  0.0622
79912W        W22965  19.208  10.135  26.426  0.1134  0.4949 -0.1447
79913W        W22966  11.354  31.019  25.801  0.0799  0.1918 -0.0423
79914W        W22967  26.643  11.571  20.087  0.1127  0.1326 -0.2415
79915W        W22968   6.220   5.797  24.466  0.2550 -0.0939  0.3655
79916W        W22969  23.232  31.749  10.792  0.0931  0.0555  0.1564
79917W        W22970  14.675  28.612   4.161  0.1160  0.2030  0.1177
79918W        W22971  24.209  18.313   1.668 -0.0030  0.0959  0.2375
79919W        W22972  22.658  27.503   8.088  0.1329  0.0335 -0.2366
79920W        W22973   8.750  15.626  27.285  0.2965 -0.1015  0.1717
79921W        W22974   4.524  34.597   6.294  0.3095  0.0428 -0.3520
79922W        W22975  26.998  11.542   2.284  0.0602 -0.1710  0.3698
79923W        W22976   9.899  27.816  22.620  0.2184  0.0764  0.1493
79924W        W22977   8.512   5.886  27.308 -0.0460 -0.1768 -0.1022
79925W        W22978  14.824  31.011   8.885  0.2150  0.0846 -0.0599
79926W        W22979  34.343   0.665   0.538  0.0944 -0.1502  0.1925
79927W        W22980   0.991  32.610  17.943  0.0959  0.0696  0.2012
79928W        W22981   7.698  29.620  26.135  0.1533 -0.0076  0.0062
79929W        W22982   9.464  25.817  18.167 -0.1467  0.2535  0.4754
79930W        W22983  12.675   1.060   3.463 -0.0109 -0.1644 -0.1747
79931W        W22984  25.401  14.328  25.082 -0.0150 -0.0199 -0.2860
79932W        W22985  26.575  21.730  20.727  0.2802  0.0523 -0.0079
79933W        W22986  28.805   9.131  17.517 -0.2164 -0.0946 -0.1467
79934W        W22987  18.411  13.431  19.914 -0.4470  0.3315 -0.0735
79935W        W22988  20.792  24.865   5.901  0.1631 -0.0135 -0.0592
79936W        W22989  17.225  27.168  20.839 -0.2376  0.2063 -0.2305
79937W        W22990  15.381   0.522  26.777  0.0307 -0.2492  0.2809
79938W        W22991   1.306  25.343   7.599  0.1317  0.0597 -0.0551
79939W        W22992   6.695   6.882   9.043 -0.0861  0.1145  0.1967
79940W        W22993  26.552  12.467  26.634  0.3375  0.0496 -0.0675
79941W        W22994  29.646  29.891  21.303  0.0522 -0.1785  0.1735
79942W        W22995   4.802  27.233  27.477  0.1894  0.2377  0.1483
79943W        W22996  27.972  27.476   0.330 -0.0444 -0.1864  0.1072
79944W        W22997  15.636  22.240  19.000 -0.3258  0.1639 -0.0601
79945W        W22998   9.941   3.839   3.308 -0.0603 -0.2107 -0.1111
79946W        W22999  11.114  16.600   4.872  0.3433 -0.1098 -0.0787
79947W        W23000   6.161  20.841  21.925  0.0474 -0.2176  0.2769
79948W        W23001   5.235  34.601   6.900 -0.0683 -0.2625 -0.2436
79949W        W23002   8.954   3.609  16.872 -0.1287  0.1213 -0.1797
79950W        W23003  21.317  25.786  27.589  0.0566 -0.0846  0.2263
79951W        W23004  23.334  28.046   7.901 -0.1192  0.1156  0.1023
79952W        W23005  19.078   9.229  15.517  0.4674  0.4843  0.0762
79953W        W23006  23.574  16.234  25.312 -0.0080 -0.3450  0.1830
79954W        W23007  10.000  11.531   2.963 -0.0042  0.0684 -0.0076
79955W        W23008  32.041   4.038   3.225  0.0978  0.2325  0.1199
79956W        W23009   9.641   3.147  15.793 -0.0610  0.0779 -0.0273
79957W        W23010  13.206  18.098  16.120  0.0059  0.2431 -0.0767
79958W        W23011   6.359  25.184   6.706  0.1560 -0.0099 -0.3393
79959W        W23012  30.996  16.438  25.382 -0.0399  0.1770  0.2024
79960W        W23013  30.486   0.922   8.099 -0.0629 -0.0867  0.0762
79961W        W23014  25.740   1.495  21.475  0.0503  0.0822  0.2301
79962W        W23015  15.997  22.224  19.419  0.0906  0.2392  0.0353
79963W        W23016  24.574  17.303   9.249 -0.1320  0.2138 -0.3526
79964W        W23017   8.116  34.229  28.555 -0.2080  0.3087  0.1007
79965W        W23018  15.559  29.832  24.458 -0.1842 -0.1472 -0.0642
79966W        W23019   8.710  28.875  19.972 -0.1229 -0.0679 -0.3086
79967W        W23020   8.059  26.587  28.106  0.2725 -0.0041 -0.0191
79968W        W23021   1.722  25.219   1.443  0.0011 -0.1576 -0.1683
79969W        W23022  16.955  30.363  19.374  0.1189  0.4365  0.1778
79970W        W23023  31.346  25.191   2.394  0.0558 -0.1126 -0.0157
79971W        W23024  25.259   7.553  28.930 -0.0408 -0.2345  0.0208
79972W        W23025  19.465  23.719  27.317  0.1438  0.1238 -0.1200
79973W        W23026  21.421  27.361   6.755 -0.2882  0.1216 -0.2191
79974W        W23027  15.371  20.419  24.204  0.0008 -0.0131  0.3614
79975W        W23028  11.770  24.382   9.939  0.1180 -0.2270 -0.1344
79976W        W23029  11.532   0.063  18.498  0.0249 -0.1465 -0.0337
79977W        W23030  30.711  28.435   0.344  0.1668 -0.0361  0.0259
79978W        W23031   1.668  26.620  20.539 -0.1532  0.2284  0.0084
79979W        W23032  15.173  14.205  20.528  0.0260 -0.0295  0.1265
79980W        W23033  20.574   1.097  28.505  0.1821 -0.0851 -0.0449
79981W        W23034  10.768   6.834   5.866  0.2190 -0.1628 -0.0018
79982W        W23035  16.413   2.342   7.829 -0.3150  0.1517 -0.1354
79983W        W23036  20.199  18.612  23.104  0.0794  0.0170 -0.2700
79984W        W23037  12.164  32.819  26.332  0.4055 -0.0001 -0.2300
79985W        W23038  17.025  27.527  25.897 -0.1459  0.2621 -0.0479
79986W        W23039  13.134  26.425  23.499  0.2146 -0.1082 -0.0691
79987W        W23040  32.155  32.722  13.705  0.0784 -0.1588  0.1271
79988W        W23041  22.841  14.392  15.687 -0.0213  0.0544 -0.1032
79989W        W23042  19.621  25.331  20.784  0.2904 -0.1833  0.1034
79990W        W23043  12.159  20.262   3.408  0.0605 -0.1919 -0.1180
79991W        W23044  14.460  22.580  23.530 -0.0746  0.1425  0.0838
79992W        W23045  12.790   6.521  21.871 -0.2344 -0.0267  0.1433
79993W        W23046  12.358  24.931  22.744  0.2291 -0.3709  0.3006
79994W        W23047   7.526  17.139   4.208 -0.2763  0.0444  0.2655
79995W        W23048  22.744  28.067   4.049  0.1346  0.0487  0.3598
79996W        W23049   9.499  31.389   5.258  0.2240  0.2117  0.1210
79997W        W23050  26.535  25.252  24.126 -0.1912  0.0516  0.1075
79998W        W23051  10.509   2.188  24.987 -0.2157  0.3849  0.1149
79999W        W23052  10.324   1.867  25.349  0.0456  0.3394 -0.0707
80000W        W23053   6.918  19.865   2.803 -0.1057 -0.1001  0.3605
80001W        W23054  13.577   9.148  24.123 -0.2074  0.1654 -0.0230
80002W        W23055   8.137   1.615   1.923 -0.3712 -0.0619 -0.1857
80003W        W23056  20.416  26.227  21.286 -0.1210  0.4101  0.1525
80004W        W23057   0.410  22.173  22.369  0.0555  0.3933  0.3704
80005W        W23058  32.554  31.811  19.509 -0.0841 -0.0513  0.1935
80006W        W23059  16.531  17.092  24.915  0.0129 -0.1167 -0.0351
80007W        W23060  26.490   4.756  18.685 -0.1586 -0.0877  0.3105
80008W        W23061  26.110  32.918  22.778 -0.0739 -0.2391 -0.1419
80009W        W23062  12.168  12.444  19.205  0.0236 -0.0912 -0.0799
80010W        W23063  19.639  28.304  23.343 -0.1257  0.0915  0.1408
80011W        W23064  15.039   5.365   2.213 -0.0992 -0.0933  0.0565
80012W        W23065  33.181   8.380  23.669 -0.1892 -0.1506 -0.1489
80013W        W23066  24.746  31.643   3.669 -0.0880  0.2639 -0.0638
80014W        W23067  19.711  28.363  20.890 -0.2589 -0.1477  0.0283
80015W        W23068  30.484  16.197  16.022  0.0771  0.1970  0.0442
80016W        W23069  32.187  24.001   4.311  0.1404  0.1162 -0.4311
80017W        W23070   8.740  20.095  29.170  0.3732 -0.0148 -0.0206
80018W        W23071  11.664  16.570  29.177 -0.0935 -0.1468 -0.2203
80019W        W23072  20.186  24.871   0.464  0.0565 -0.2378  0.0629
80020W        W23073  14.496  26.529   3.419 -0.0553 -0.1135  0.0560
80021W        W23074   2.317  29.476  26.892  0.0410  0.1214  0.2086
80022W        W23075  16.642   0.685  27.349  0.1359  0.1196  0.2918
80023W        W23076  22.570  25.761   5.360  0.0707  0.1024 -0.0929
80024W        W23077  21.296   4.577  23.898 -0.0858  0.0552  0.0713
80025W        W23078  30.136  14.139   0.024 -0.0274  0.2559 -0.1376
80026W        W23079  22.474  33.760  13.768  0.0409  0.1028 -0.1734
80027W        W23080  12.932  29.384   9.698 -0.1661 -0.0810  0.1529
80028W        W23081   2.985  20.085   4.276 -0.0616  0.2073  0.0498
80029W        W23082  12.826  20.797  14.297 -0.1722  0.1121  0.0044
80030W        W23083  16.238   5.634  25.034 -0.1689 -0.0522  0.2623
80031W        W23084  11.672  27.342  25.127 -0.0576 -0.0914 -0.3171
80032W        W23085  16.676   1.716   1.924 -0.2044 -0.0632 -0.1019
80033W        W23086   7.186  33.473  17.690 -0.2123 -0.1255 -0.1596
80034W        W23087  22.698   7.611  22.048 -0.0539 -0.1297  0.1609
80035W        W23088  17.615  21.793   1.979  0.0031 -0.1642 -0.0442
80036W        W23089  17.608  24.084  20.725  0.1405 -0.1622 -0.2536
80037W        W23090  14.599  14.505   7.469  0.1414  0.1067 -0.0676
80038W        W23091  22.416  22.679   0.913  0.0917 -0.1251 -0.0630
80039W        W23092  30.787  32.471  15.873  0.1600 -0.3074 -0.2745
80040W        W23093  16.620  21.764   2.283 -0.1987 -0.0493  0.0504
80041W        W23094  19.267  13.088  28.910  0.4308 -0.1957  0.1101
80042W        W23095  25.747  14.003  15.189  0.2041  0.0056  0.1937
80043W        W23096  19.079  32.492  16.330 -0.0213  0.0255 -0.1115
80044W        W23097  15.417   1.694  28.785 -0.1304 -0.1410 -0.1535
80045W        W23098  30.542  30.552  27.512 -0.1467 -0.0113 -0.0730
80046W        W23099   8.645  12.141  17.312  0.1138  0.0400  0.0845
80047W        W23100  24.823  25.811  24.016 -0.2014  0.2777  0.3081
80048W        W23101  23.950  11.480   7.752  0.1782 -0.1166 -0.2038
80049W        W23102  22.805  25.583  23.507 -0.4981  0.0646  0.5042
80050W        W23103  17.552  18.406  27.832 -0.1354 -0.3774 -0.0117
80051W        W23104  22.407  18.464   8.537 -0.1333  0.2325  0.0071
80052W        W23105  11.534  23.455  19.698  0.0544  0.0718 -0.2500
80053W        W23106   2.156  27.995   8.828  0.0957 -0.2434 -0.0728
80054W        W23107  21.541   1.464  20.462  0.4513  0.1258 -0.3357
80055W        W23108  11.808  30.307  27.625 -0.1915  0.2774 -0.2627
80056W        W23109  23.930   4.726  23.786 -0.1759 -0.0639 -0.6554
80057W        W23110   6.733  12.639   7.932  0.2104 -0.1128  0.0737
80058W        W23111  32.456  29.265  18.756  0.1515  0.0255  0.0784
80059W        W23112  27.269  14.969  23.353  0.1846  0.2947 -0.3880
80060W        W23113  22.860  34.351  16.986  0.1330  0.1271 -0.2534
80061W        W23114  13.458  25.643  15.474 -0.2501  0.1376  0.3347
80062W        W23115   8.411  30.033  20.154 -0.0278  0.2985 -0.2101
80063W        W23116   3.425   9.108  20.626  0.1925 -0.4357 -0.0454
80064W        W23117  22.322  30.168  25.770  0.0552  0.2397  0.1933
80065W        W23118  17.398  22.355  18.799  0.2045  0.1004  0.2166
80066W        W23119  11.826   4.871  20.154  0.2296 -0.2712  0.0896
80067W        W23120  26.065   0.419  22.034 -0.2742  0.2355  0.0938
80068W        W23121  30.128  28.251  16.938 -0.0194  0.0339 -0.0803
80069W        W23122  25.728  22.383   2.306 -0.0127  0.1595  0.0461
80070W        W23123  16.929  18.108  22.365 -0.1056  0.0414 -0.0149
80071W        W23124   0.423   6.168  21.824  0.2043 -0.1146 -0.1041
80072W        W23125   5.855   6.088  24.240  0.0348 -0.1278 -0.0937
80073W        W23126  24.046  19.486  20.308  0.3169 -0.0753  0.0621
80074W        W23127   4.934  33.568  25.527  0.1401 -0.0397  0.2018
80075W        W23128  18.121   2.818   6.701  0.1406  0.1080  0.0396
80076W        W23129  30.641  21.991   5.000 -0.3677 -0.1043 -0.0128
80077W        W23130  25.565  31.217  24.797 -0.3089 -0.0465 -0.1296
80078W        W23131   2.727  27.546   4.620 -0.2077 -0.2913 -0.0810
80079W        W23132  22.464  24.168   4.432 -0.0050 -0.1800  0.1213
80080W        W23133   5.265  27.774  21.890 -0.0799 -0.0490  0.2208
80081W        W23134  28.401  22.309   4.239 -0.2459  0.0921  0.1953
80082W        W23135   4.934  24.541  24.762 -0.2697 -0.0736  0.2631
80083W        W23136  16.704  33.086  29.145 -0.2238 -0.2501 -0.2584
80084W        W23137   9.373  25.314  18.591 -0.0568 -0.2411  0.2130
80085W        W23138  25.551  28.222  26.387  0.0339 -0.0285 -0.0173
80086W        W23139   2.837   2.206   6.560  0.1534 -0.1026 -0.2048
80087W        W23140  15.248  21.054  24.764 -0.3044 -0.1747  0.0163
80088W        W23141  21.074  26.903   6.530 -0.0052 -0.0865  0.2774
80089W        W23142  18.425   5.341  20.790 -0.1191 -0.1919  0.1728
80090W        W23143   5.619  22.747   1.601  0.1984  0.2301  0.0018
80091W        W23144   3.757  16.697  24.016  0.1256 -0.3529  0.1252
80092W        W23145  19.030   5.687   9.178  0.2827  0.1261 -0.0916
80093W        W23146   0.966  30.599   1.001 -0.4437 -0.0428 -0.1327
80094W        W23147  13.666  13.123   6.712 -0.0755 -0.1999  0.0946
80095W        W23148   7.432   1.883  17.305  0.1018  0.0342  0.1890
80096W        W23149   2.206  27.289   7.129 -0.3522  0.1601 -0.0280
80097W        W23150  18.406   5.729   0.217 -0.1135 -0.0342 -0.1339
80098W        W23151   9.587  16.862   5.392  0.0558  0.1223 -0.0757
80099W        W23152   2.580  25.351  24.667 -0.0126  0.2488 -0.1631
80100W        W23153  10.641  14.405   6.004  0.0910 -0.0761 -0.0291
80101W        W23154   8.740  28.228   2.134 -0.1257  0.2869 -0.2021
80102W        W23155  28.248  29.665  26.419 -0.1585 -0.0474 -0.0455
80103W        W23156  34.515  28.411   2.346  0.0989 -0.2453 -0.1214
80104W        W23157  20.712  23.822   3.989 -0.0091  0.0388 -0.1638
80105W        W23158  15.085  26.204   8.613  0.0706  0.1577 -0.1846
80106W        W23159   6.127   2.541   4.376  0.0074 -0.0330  0.0771
80107W        W23160  18.046  22.305   0.504  0.1561  0.0698 -0.3525
80108W        W23161  19.767  31.388   1.262 -0.0096 -0.1301  0.0766
80109W        W23162  21.863  21.082  26.654  0.1792 -0.0759  0.2215
80110W        W23163  23.594  23.707  26.001 -0.3948 -0.5831  0.0355
80111W        W23164   7.057   8.278  25.899  0.0948 -0.2158  0.0085
80112W        W23165   6.567  24.786   6.352 -0.1869 -0.0477  0.0337
80113W        W23166   8.190  32.661   0.132 -0.1622  0.1142  0.2596
80114W        W23167   1.044  30.446  22.930  0.0632  0.0576 -0.1646
80115W        W23168   7.534  25.233   4.917  0.3361  0.2030  0.1919
80116W        W23169  29.452  32.777  29.004  0.1462 -0.1428  0.0998
80117W        W23170  34.231  30.686   8.546  0.0480 -0.0012 -0.0642
80118W        W23171  15.585  22.508  19.448  0.2139  0.2699 -0.1754
80119W        W23172  11.391  20.617  23.017 -0.1355  0.0500 -0.2028
80120W        W23173   1.401  31.293   3.729 -0.1745 -0.1408 -0.1682
80121W        W23174  22.465  18.076   8.280 -0.3416  0.0890  0.1568
80122W        W23175  11.981  22.959  25.898 -0.0678 -0.0108 -0.2065
80123W        W23176  23.955  20.969  20.413 -0.2794 -0.2396  0.1320
80124W        W23177  25.923  33.895  21.452 -0.0399 -0.0020  0.0218
80125W        W23178   8.949  25.117  27.970  0.2583 -0.0607 -0.0944
80126W        W23179  18.739  20.586  23.870 -0.0354  0.1400 -0.0549
80127W        W23180  17.708  27.244   2.491  0.0199  0.0404 -0.0540
80128W        W23181  24.006  15.055  25.541  0.2746 -0.1650 -0.0142
80129W        W23182  15.956  26.384  27.858  0.1239 -0.2459  0.0595
80130W        W23183  20.141  14.247  19.754  0.2343  0.1510 -0.1599
80131W        W23184   1.650  26.236  23.118 -0.3115 -0.3462 -0.0713
80132W        W23185   9.927   0.641  16.002 -0.0041  0.1109  0.2165
80133W        W23186  11.187  24.256  26.242  0.1352  0.1925  0.0608
80134W        W23187  30.607   6.879  23.643  0.2894  0.0410  0.2470
80135W        W23188  21.701  22.307  23.742  0.1086 -0.1545  0.0987
80136W        W23189   0.217  24.179   5.865  0.1815  0.0232  0.1284
80137W        W23190  12.833  13.014   8.537 -0.1620  0.3484 -0.0012
80138W        W23191  10.356   0.003  10.664  0.1209 -0.1431  0.2715
80139W        W23192  10.263   9.885   3.631  0.2559 -0.0547 -0.1935
80140W        W23193  10.172  19.654  16.015 -0.2854 -0.0035  0.0869
80141W        W23194  28.084  21.123   7.628 -0.1946  0.0385  0.1113
80142W        W23195  24.072  26.970   6.730  0.0479 -0.1914 -0.2778
80143W        W23196  20.870  23.824  15.679 -0.0407  0.0835  0.0160
80144W        W23197   2.287  21.577   6.682 -0.0520  0.1509  0.0112
80145W        W23198  25.795   0.949  29.199 -0.0257  0.0021  0.0762
80146W        W23199   9.469   9.248   9.958  0.0953 -0.0744 -0.2380
80147W        W23200   4.909  30.253  28.806  0.1258 -0.1301 -0.2856
80148W        W23201  10.261  18.171   9.886  0.1611 -0.2836 -0.1525
80149W        W23202  12.963  19.677  28.962  0.3877 -0.4943  0.2267
80150W        W23203  15.902  30.725  18.874 -0.1625  0.2653 -0.0057
80151W        W23204  12.394  27.888  28.772  0.0273  0.2856  0.1862
80152W        W23205   6.328  24.991  22.725 -0.0222  0.1860 -0.1110
80153W        W23206  16.019  32.143  14.007  0.2098  0.2813 -0.0655
80154W        W23207  10.920   3.109  16.927 -0.0672 -0.3042 -0.0481
80155W        W23208  20.276   2.237   5.452 -0.0229  0.0025 -0.1804
80156W        W23209  27.149  20.516  26.937  0.0759 -0.0262  0.2495
80157W        W23210  20.110  13.834   1.844 -0.2838 -0.1961 -0.1732
80158W        W23211  13.413  31.761  16.044  0.2421 -0.0117 -0.1478
80159W        W23212  18.272  11.447  23.962  0.0452 -0.1472  0.0402
80160W        W23213  11.077  11.673  28.077  0.3584 -0.0093 -0.0383
80161W        W23214  12.101  20.957  18.144  0.1961 -0.0022 -0.0131
80162W        W23215  22.947  30.119   0.181  0.1166 -0.1725 -0.0794
80163W        W23216   4.507  29.761  16.794 -0.3682 -0.1558  0.3042
80164W        W23217  17.644   3.092   8.091 -0.0475 -0.1121 -0.4274
80165W        W23218  21.757  34.035  25.571  0.0211  0.1670 -0.0184
80166W        W23219   9.827  19.816  22.335 -0.0601 -0.1695  0.0097
80167W        W23220  12.551  29.617   8.771 -0.2901 -0.2644  0.1542
80168W        W23221   4.899  26.218  22.484  0.3520 -0.0931  0.0388
80169W        W23222  25.671  20.942  18.666 -0.2444  0.0702  0.3121
80170W        W23223  23.702  11.922  19.914 -0.3345 -0.1566  0.1310
80171W        W23224  10.357  27.118  19.061  0.0387  0.1894  0.0859
80172W        W23225  26.800  29.184   2.569  0.1248  0.2754  0.1024
80173W        W23226  31.366  21.372   7.542 -0.2686 -0.4761  0.0484
80174W        W23227  16.807  20.366   7.470  0.0115 -0.1808 -0.0045
80175W        W23228  12.129   8.508  19.287 -0.1667 -0.1557  0.0159
80176W        W23229  15.371  33.394  25.811  0.0374 -0.2194  0.0985
80177W        W23230  34.335  22.740  22.540 -0.3864 -0.0058 -0.0609
80178W        W23231  13.877   3.241  24.132  0.2593  0.0398 -0.0445
80179W        W23232  10.555   1.759   2.894 -0.3056 -0.3026 -0.0046
80180W        W23233   5.248   5.814   5.521  0.2295  0.0528  0.0116
80181W        W23234  17.628   2.563   5.734 -0.1643 -0.0574 -0.0502
80182W        W23235  21.399  28.159   6.126  0.1484 -0.0487 -0.2755
80183W        W23236  17.164  24.160   4.179  0.2707  0.1127  0.1180
80184W        W23237  12.480  12.776  27.208  0.0580  0.1816 -0.3259
80185W        W23238  12.883  32.190  24.176 -0.2276 -0.2672 -0.2001
80186W        W23239  14.976  26.763  19.878  0.1868 -0.0859 -0.0463
80187W        W23240   7.616   0.199  22.402 -0.0834  0.0237  0.1321
80188W        W23241  19.645  22.767  23.428  0.0873  0.1320  0.1668
80189W        W23242  13.162  30.402  15.393  0.0025 -0.0011 -0.0737
80190W        W23243   4.369  31.003   4.266 -0.0093 -0.4125 -0.1267
80191W        W23244  27.745   4.477  22.440  0.2643 -0.2579 -0.1490
80192W        W23245  11.065  26.655   6.608  0.0673  0.0025 -0.2062
80193W        W23246   7.609  32.483   1.897 -0.0105  0.1917  0.0386
80194W        W23247  15.649  21.877   8.133  0.1911 -0.1803 -0.2490
80195W        W23248  20.140   0.522   1.973 -0.1652  0.1354  0.0095
80196W        W23249  29.596  11.488   4.384  0.1375  0.0127 -0.1252
80197W        W23250  11.162  33.775  25.468 -0.1908  0.3965 -0.3176
80198W        W23251   7.984  14.817   6.572  0.1977 -0.0421 -0.0648
80199W        W23252  19.578  23.099  27.100 -0.1792 -0.1402  0.1494
80200W        W23253  26.014   8.805   3.161 -0.0451  0.1312  0.2437
80201W        W23254  14.528  20.968  21.574 -0.2312  0.2353 -0.2438
80202W        W23255  16.823  20.887  21.470 -0.4820 -0.4734  0.1767
80203W        W23256   7.100  21.531   4.807  0.1123 -0.0767  0.1820
80204W        W23257  14.913  20.826   8.407  0.0902  0.0740  0.0556
80205W        W23258  33.884   4.151   2.946 -0.0153 -0.1075  0.3995
80206W        W23259  15.657   5.465  23.641 -0.0040  0.3343 -0.0554
80207W        W23260  13.999  19.010   8.612  0.1867  0.1692  0.0497
80208W        W23261  33.391  10.944  24.561  0.0981 -0.4928  0.0980
80209W        W23262  24.677  31.224   6.465 -0.0641 -0.1494  0.1126
80210W        W23263  23.015  26.838  14.207 -0.0594  0.1096  0.1382
80211W        W23264  17.260  13.834   7.148 -0.1842 -0.1389 -0.0719
80212W        W23265  19.065  29.895  22.784  0.0066  0.0410  0.3704
80213W        W23266   8.407  31.650  22.308  0.2582  0.1499 -0.0402
80214W        W23267  21.087  18.126   6.928 -0.0084 -0.0889 -0.2353
80215W        W23268  25.364  27.613   3.490 -0.1486  0.2133 -0.2428
80216W        W23269  14.813  16.209   3.510 -0.1016  0.0357 -0.2316
80217W        W23270  10.654  20.302  28.234 -0.0665 -0.0095  0.1820
80218W        W23271  26.020   2.316  19.219  0.0105  0.3336  0.1465
80219W        W23272   3.849  10.393   9.294  0.0038 -0.2288 -0.0385
80220W        W23273   1.593  24.420  18.094  0.2333  0.1970  0.2212
80221W        W23274   6.143  26.373   0.385  0.0114 -0.0990 -0.0425
80222W        W23275  30.744  12.063  22.430 -0.0355  0.2304 -0.3736
80223W        W23276  25.004  25.471   6.913  0.0115  0.0140  0.2181
80224W        W23277  14.300  18.868  25.926 -0.0669 -0.0042 -0.3317
80225W        W23278  26.492  24.880  23.180 -0.2836 -0.0612 -0.0846
80226W        W23279  29.145  30.268   5.657  0.2616  0.2106  0.0103
80227W        W23280  16.831  28.551   1.813 -0.1295  0.0651 -0.1201
80228W        W23281  26.123  33.750  17.298  0.0475 -0.0488 -0.2271
80229W        W23282  25.638  20.676  15.600 -0.1162  0.2748 -0.0120
80230W        W23283   6.597  34.637   4.496 -0.1476  0.0453  0.1687
80231W        W23284   7.318  13.142  18.920  0.4430  0.0059  0.1293
80232W        W23285  19.614   4.030  17.015  0.1372  0.0427 -0.1169
80233W        W23286  22.468   1.511   2.873 -0.0123 -0.1831 -0.0620
80234W        W23287  17.201   1.098  18.192 -0.0358  0.0941 -0.0976
80235W        W23288   9.210   9.352  23.278 -0.2629  0.0865 -0.1264
80236W        W23289  22.343  29.742  16.534 -0.1608 -0.0323 -0.0655
80237W        W23290  10.182  16.564  21.465 -0.1865 -0.0963 -0.2583
80238W        W23291  11.600   5.231  14.412  0.3640 -0.2347  0.0622
80239W        W23292  16.333   8.831  26.534  0.1550 -0.2280 -0.3296
80240W        W23293   5.301  25.781  16.850 -0.0877  0.0810 -0.2099
80241W        W23294  11.411  23.829   1.225  0.0663  0.1678 -0.1539
80242W        W23295  22.551  10.753  16.623 -0.0131 -0.0091  0.0644
80243W        W23296  16.532   3.973   9.089  0.2706  0.0463  0.1382
80244W        W23297  12.343   4.809  26.960  0.0279 -0.0778 -0.1739
80245W        W23298  22.896   5.071  16.233  0.1629  0.1143 -0.2757
80246W        W23299  19.425  33.043  15.383  0.1682 -0.0285  0.1339
80247W        W23300  21.953  18.184  14.205  0.1606 -0.2183 -0.2484
80248W        W23301  25.172   6.105  21.955  0.1434  0.1343  0.2431
80249W        W23302   8.111  33.267   2.053  0.0138 -0.0876  0.2438
80250W        W23303  20.421  28.863  19.164 -0.3519 -0.0177  0.1141
80251W        W23304  17.018  28.295  27.062 -0.0301  0.0377 -0.0217
80252W        W23305  15.156  29.124  22.986  0.0639  0.3271  0.1415
80253W        W23306  25.749  11.199  21.911  0.0050  0.2635  0.1138
80254W        W23307  15.743  28.960  24.475 -0.0790  0.1874 -0.2358
80255W        W23308  22.512  32.293  25.644 -0.0065 -0.2564 -0.1764
80256W        W23309  21.468   7.572  23.555  0.1483  0.0499 -0.1237
80257W        W23310  17.386   3.264  16.847 -0.2623 -0.3816  0.3964
80258W        W23311  32.781   0.709  21.662 -0.0716  0.2144  0.1347
80259W        W23312  19.915  11.720  14.063 -0.2095 -0.0779  0.1442
80260W        W23313  20.087  27.168  22.369  0.1364  0.0616  0.2435
80261W        W23314   6.639  33.980  16.794  0.2251 -0.0349  0.1720
80262W        W23315  20.459   9.702  25.339  0.3522 -0.4233 -0.1626
80263W        W23316  26.192  10.840  21.952  0.0158  0.1368  0.0923
80264W        W23317  29.211  15.772  21.176  0.0358 -0.0605  0.0640
80265W        W23318  18.904  25.900  15.677 -0.0145 -0.3194  0.0148
80266W        W23319  16.177  30.156  20.643 -0.1900  0.1467 -0.2170
80267W        W23320  33.672   7.079  16.328  0.3146  0.1837 -0.0226
80268W        W23321   8.846  30.799  14.835 -0.0772  0.0321 -0.0627
80269W        W23322   5.064   4.214  18.897 -0.1244  0.1982 -0.0014
80270W        W23323  20.662  24.385  21.094 -0.2081  0.1677  0.3831
80271W        W23324  17.519   7.593  23.613 -0.0207  0.0262  0.1630
80272W        W23325  19.389  10.783  19.714 -0.0840  0.2004  0.0314
80273W        W23326  20.277   1.989  15.871 -0.0512 -0.0104  0.1601
80274W        W23327  19.712   6.279  23.450  0.0677 -0.4025 -0.0392
80275W        W23328   8.956  10.267  20.818  0.2551 -0.0471  0.3585
80276W        W23329  15.091  22.579  26.709 -0.0172  0.0181  0.1413
80277W        W23330  23.617  29.280   4.593 -0.0501  0.0159  0.1014
80278W        W23331   8.058   4.058  15.419  0.2490  0.0066  0.6673
80279W        W23332  20.767   6.524  23.122  0.3749 -0.0674 -0.0298
80280W        W23333  30.357   1.254  19.559  0.1153 -0.3510  0.1303
80281W        W23334  20.741  33.338  13.676 -0.1202 -0.1396 -0.0616
80282W        W23335  16.960  17.504   2.242  0.3224 -0.1986 -0.0445
80283W        W23336   2.392  19.360  14.529  0.3783 -0.3843  0.2424
80284W        W23337   4.926  18.787  14.879  0.0914  0.0546 -0.1590
80285W        W23338   0.123   5.088  21.550  0.1167 -0.1598  0.1908
80286W        W23339  18.162  24.880  15.128 -0.1022  0.1840 -0.0427
80287W        W23340   5.578   4.947   0.199 -0.0664 -0.0889  0.0778
80288W        W23341   7.419   7.333  15.085 -0.2184 -0.2777 -0.1111
80289W        W23342  30.849  29.846   1.509  0.2679  0.2524  0.0848
80290W        W23343  16.324  27.405  18.539 -0.1583  0.3281  0.0291
80291W        W23344   9.706   5.299  18.037 -0.2181 -0.0265  0.1429
80292W        W23345  13.073  26.316  23.066  0.5302  0.0891 -0.0355
80293W        W23346   1.426  21.079  16.903 -0.2289 -0.0596 -0.3122
80294W        W23347  34.076  18.880  21.982  0.1047 -0.2120  0.0394
80295W        W23348  18.284   9.063  16.882  0.1113 -0.0349 -0.0420
80296W        W23349   9.235  29.585  28.501  0.4534 -0.1409 -0.1261
80297W        W23350   5.091  27.659   1.282 -0.0144 -0.3641 -0.1963
80298W        W23351  31.621  31.053  26.572  0.1234  0.0804 -0.3196
80299W        W23352  11.081   2.337  21.160  0.0817 -0.2681  0.1268
80300W        W23353  26.992  30.411  27.842 -0.1448 -0.0359 -0.0990
80301W        W23354   2.927  29.635  13.571  0.0717  0.1819  0.0446
80302W        W23355  13.561  33.233  21.613  0.1001  0.0430 -0.0690
80303W        W23356  25.808   2.367   8.874  0.0223 -0.1225 -0.0913
80304W        W23357  25.822  29.283  22.825  0.0389 -0.2104 -0.0178
80305W        W23358  23.914   1.129  18.586  0.3102 -0.0448 -0.2430
80306W        W23359   5.976   5.234   6.263 -0.0887  0.3672  0.3623
80307W        W23360  32.834  31.073  28.356  0.0294  0.3791 -0.0588
80308W        W23361  24.909  14.410  14.609 -0.0573 -0.0398  0.1897
80309W        W23362   6.863  28.800  15.205 -0.0380 -0.2693  0.0238
80310W        W23363  11.034  29.842   7.039  0.0697  0.2457  0.1319
80311W        W23364  12.487   6.425  21.467 -0.1210  0.1059 -0.0686
80312W        W23365  17.803  32.925  22.624  0.0147  0.0989  0.4220
80313W        W23366   8.540  26.561  14.567  0.0760 -0.0128  0.1386
80314W        W23367  12.624   6.345  17.125  0.3166  0.0206 -0.0817
80315W        W23368   6.599  25.267  13.983 -0.0033 -0.1259  0.0458
80316W        W23369  29.041  32.092  19.225 -0.1212  0.0135  0.0387
80317W        W23370  21.303  24.303  25.199 -0.0007  0.3581  0.0130
80318W        W23371  12.496  34.045  14.520 -0.1785  0.0061 -0.0284
80319W        W23372  17.268  16.377  12.769  0.0622 -0.1705  0.0414
80320W        W23373   6.791   7.393  20.368  0.0376  0.1852 -0.4076
80321W        W23374  25.745  11.696  20.549  0.1983  0.1262  0.2730
80322W        W23375  12.652  21.056   3.921  0.0526 -0.0413 -0.0809
80323W        W23376  22.134  32.626  14.113 -0.2244  0.1419 -0.3075
80324W        W23377  10.783  20.007  25.477  0.2126  0.1003 -0.1740
80325W        W23378  13.795  29.631   6.388 -0.0915  0.0863  0.0867
80326W        W23379  14.522  29.400  18.549  0.0007  0.0220  0.1343
80327W        W23380  19.379  33.654  20.990  0.0564  0.1802 -0.2456
80328W        W23381   2.975  13.091  18.118  0.0392 -0.3163  0.0258
80329W        W23382   4.041   9.858  14.905 -0.2422  0.0183 -0.1854
80330W        W23383   2.618  19.802  20.937  0.1878 -0.1097 -0.1343
80331W        W23384  14.205   7.563  22.490 -0.0990  0.1226 -0.0463
80332W        W23385  20.073  19.774  14.521 -0.1096 -0.0721 -0.0977
80333W        W23386   9.477   1.511  15.016 -0.0591 -0.2730 -0.1363
80334W        W23387  13.302  32.943  16.726  0.0130  0.1543  0.1419
80335W        W23388  22.840   2.021  22.493  0.3682  0.0218 -0.0148
80336W        W23389  20.918  23.465  16.965 -0.0186  0.1674  0.0956
80337W        W23390   6.385  31.619  13.609 -0.2958 -0.0624 -0.1041
80338W        W23391   6.535  34.470  15.591  0.4756  0.1885 -0.0741
80339W        W23392   6.982  33.556  22.236  0.1980  0.2285  0.0607
80340W        W23393   6.957   6.852  14.583 -0.1483  0.1091  0.0692
80341W        W23394  21.261  21.476  21.134 -0.0821  0.0697 -0.2085
80342W        W23395  11.509  32.012  22.485 -0.0986  0.2167 -0.0640
80343W        W23396  22.925  30.881   5.175  0.0163  0.2925 -0.3391
80344W        W23397   0.056  22.095  20.135  0.4046 -0.4504  0.0859
80345W        W23398  10.470   9.033  19.382 -0.0025  0.0088 -0.0818
80346W        W23399   3.276  31.906  24.009 -0.1588  0.2030  0.3770
80347W        W23400  14.935  29.310  25.094 -0.2772 -0.1105 -0.1554
80348W        W23401   7.563  30.856   3.367  0.1720  0.0401 -0.1201
80349W        W23402  17.672   0.523  17.691  0.3071  0.1369  0.2345
80350W        W23403  20.912   3.546  18.211  0.0957 -0.2185 -0.1543
80351W        W23404   8.542   3.864  25.828  0.3024  0.0253 -0.0225
80352W        W23405   2.035   1.771   6.062  0.1714  0.0480  0.1644
80353W        W23406   4.095  14.170  15.519  0.2154 -0.0983 -0.1648
80354W        W23407   9.048  20.183  19.392  0.0067  0.1242  0.1854
80355W        W23408  19.900  33.857   7.696  0.1622  0.3790 -0.1843
80356W        W23409   9.862   5.737   3.735  0.1082  0.2697 -0.0589
80357W        W23410   8.582   3.273  19.981  0.3024  0.0324 -0.1669
80358W        W23411  11.189  14.439  23.099 -0.1600 -0.1544  0.1826
80359W        W23412  25.368  29.566  26.879 -0.0415 -0.0890 -0.0763
80360W        W23413  27.619   3.804  18.712 -0.0064 -0.0537 -0.0120
80361W        W23414  16.553  29.372  27.971  0.0982 -0.0349 -0.2359
80362W        W23415  17.037  27.931  23.630 -0.0294 -0.0001  0.1134
80363W        W23416  13.183  17.419  13.525 -0.1090 -0.2416  0.0514
80364W        W23417  13.640  27.192  24.939 -0.0445  0.0816 -0.1028
80365W        W23418  22.394  17.467  15.973  0.1473  0.0954  0.0051
80366W        W23419  11.855  20.004   0.730 -0.0973 -0.0555 -0.1829
80367W        W23420   7.555  11.331  15.356  0.0259 -0.2966 -0.3269
80368W        W23421  19.060  27.096  18.213  0.2768 -0.0890 -0.3837
80369W        W23422  18.397  15.013  15.716  0.0411  0.0011 -0.0412
80370W        W23423  19.576  16.707  23.878 -0.3867 -0.0599  0.2305
80371W        W23424  11.558  13.794  23.160 -0.1538  0.0207  0.1068
80372W        W23425   1.080   8.341  14.179 -0.2132 -0.0576  0.2473
80373W        W23426  31.592  18.458  24.457 -0.0361  0.5106 -0.0305
80374W        W23427  19.750  31.082  20.559  0.0873  0.2721 -0.1180
80375W        W23428  11.145  32.785  27.904  0.0826  0.1024 -0.2084
80376W        W23429  11.928   0.616  22.796  0.2760 -0.0398 -0.0820
80377W        W23430  27.373  31.456   3.884  0.0694  0.2562  0.2643
80378W        W23431  18.029  27.551  17.896  0.1366  0.4967  0.1647
80379W        W23432   2.374  31.657  24.230  0.1059 -0.2059 -0.0064
80380W        W23433  21.333  33.265  23.423  0.0700  0.1744  0.0639
80381W        W23434   9.886  33.676  20.490  0.1532  0.3020 -0.0355
80382W        W23435  29.258   5.137  14.277  0.0031 -0.2762  0.6053
80383W        W23436   8.769   7.555   4.108 -0.1617 -0.1561 -0.0127
80384W        W23437   7.798  28.221  19.984 -0.0886  0.2620 -0.0576
80385W        W23438  19.171   0.170  10.661  0.1985 -0.1260  0.0461
80386W        W23439  17.117  10.391  27.509 -0.0267  0.0703  0.1326
80387W        W23440  15.108  31.287  15.175  0.1540 -0.0114  0.0288
80388W        W23441   8.255  28.549  16.145  0.0481 -0.0100  0.0148
80389W        W23442  10.346  20.716  18.843  0.1701 -0.2094  0.1302
80390W        W23443  10.077   6.286  28.579  0.1762 -0.0164  0.2345
80391W        W23444   7.233  34.371  18.007  0.0182 -0.1635  0.0817
80392W        W23445  16.638  33.433   7.223  0.2572  0.2373  0.0241
80393W        W23446  13.147  21.752  17.147  0.1251  0.1152  0.0217
80394W        W23447  25.626  29.709   0.391  0.1519  0.2882  0.1200
80395W        W23448  20.330  23.856  18.774  0.4353  0.0734  0.1810
80396W        W23449  11.985  12.650  16.606  0.0992  0.0572  0.2683
80397W        W23450   2.547  24.278  21.881 -0.4632 -0.0315 -0.3412
80398W        W23451   6.108  10.179  16.413  0.1430 -0.0340  0.0532
80399W        W23452   8.766  29.698  16.621 -0.0003  0.0494  0.1141
80400W        W23453  14.560  30.856  27.551 -0.1830 -0.2520  0.1661
80401W        W23454  19.448  28.082  28.538  0.1167 -0.3345 -0.0402
80402W        W23455  21.890  32.244  18.359 -0.0881 -0.2096 -0.0714
80403W        W23456   2.560  34.430  14.559 -0.0526 -0.1618  0.2319
80404W        W23457  19.080  28.646  17.944  0.0567 -0.1485  0.2502
80405W        W23458  19.548  19.878  21.722  0.0898 -0.2943  0.0549
80406W        W23459  31.812  10.196  25.991  0.1644 -0.0626 -0.0136
80407W        W23460  12.689  33.424  18.815 -0.1441  0.1678  0.3076
80408W        W23461  18.833  28.401  18.732  0.1201  0.1877  0.4310
80409W        W23462  15.360  33.435  28.417 -0.3947  0.2313 -0.2723
80410W        W23463  26.918  25.746  15.497 -0.1865 -0.0252 -0.1352
80411W        W23464  18.072  29.309   2.214  0.1714 -0.1101  0.0982
80412W        W23465   7.849   6.775  21.375  0.0577  0.3168  0.0949
80413W        W23466  18.829   1.949  15.494  0.2132  0.0494  0.0201
80414W        W23467  12.197  21.863  18.417  0.4957 -0.0632  0.2283
80415W        W23468  16.972  34.313  18.796 -0.0233 -0.1144  0.0183
80416W        W23469  12.489  24.049  15.914 -0.0519 -0.2666 -0.0142
80417W        W23470  12.334   2.379  25.752  0.1916 -0.1955  0.3672
80418W        W23471  13.682  10.933  21.537  0.2117  0.0210  0.4141
80419W        W23472  10.921  31.516  17.196 -0.1543 -0.2103  0.1786
80420W        W23473  31.365  21.232  24.926  0.0996  0.1827 -0.3031
80421W        W23474  10.237  32.397  15.237  0.1019  0.0415 -0.1455
80422W        W23475  16.989   9.983  18.801  0.0169 -0.0061 -0.2872
80423W        W23476  18.626  11.241  21.164 -0.0369  0.0576 -0.3485
80424W        W23477  21.389   4.813  13.748 -0.0938  0.0617 -0.1438
80425W        W23478  13.891  25.059   2.784 -0.0851  0.1376  0.2034
80426W        W23479  11.126  32.512  20.254  0.0411  0.1047  0.2120
80427W        W23480  24.932  28.106  14.289 -0.0628  0.2395 -0.4370
80428W        W23481  17.773   3.249  19.393  0.1317  0.0799  0.0037
80429W        W23482   0.135   9.551  21.539  0.3819 -0.2595  0.0085
80430W        W23483  26.916   1.216  24.767 -0.0348  0.1964  0.1342
80431W        W23484  12.882   0.504  19.549 -0.2045  0.0393 -0.1808
80432W        W23485  14.865  22.487  24.527  0.1657  0.2929  0.3108
80433W        W23486   7.895  29.141  24.893 -0.0263  0.0209  0.3928
80434W        W23487   3.519   7.849  22.885  0.1031  0.1054  0.0550
80435W        W23488  22.080   0.880   0.126  0.0638  0.2189  0.1533
80436W        W23489  24.055  22.555  14.820 -0.0273 -0.1478 -0.1217
80437W        W23490  21.793  33.174  25.377 -0.2720  0.0057 -0.2224
80438W        W23491   1.756  23.492  23.314 -0.0702 -0.0402  0.0932
80439W        W23492   4.917   4.074  21.447 -0.0628 -0.0681 -0.1463
80440W        W23493  15.782  33.853  25.847  0.0029  0.1675 -0.0364
80441W        W23494  16.694  22.541  25.833 -0.0888 -0.0494  0.3177
80442W        W23495   7.428   0.924  17.888  0.0150  0.1904  0.0866
80443W        W23496  27.385  12.700  14.988  0.3467 -0.0069  0.1163
80444W        W23497  26.693   8.161  19.190  0.1757  0.2680  0.1497
80445W        W23498  13.609   8.567  15.104 -0.0520  0.1000  0.0391
80446W        W23499  31.180  26.044  18.570 -0.2941 -0.2315 -0.0401
80447W        W23500  19.249  23.055  14.827 -0.0885  0.1569  0.0387
80448W        W23501  16.395  33.217  17.889 -0.0662 -0.3508 -0.0450
80449W        W23502  19.185  12.176  21.157  0.3268  0.1790 -0.0660
80450W        W23503  13.622  34.508  14.532  0.0912 -0.5659 -0.1097
80451W        W23504  26.498  29.397   1.371 -0.0783  0.1104  0.3557
80452W        W23505  17.726   5.593   4.087 -0.1208 -0.1357  0.1426
80453W        W23506  24.643   8.564   0.193 -0.2574  0.0001 -0.1521
80454W        W23507  18.797   0.522   3.961  0.2082 -0.1329  0.3530
80455W        W23508  15.057  22.377   0.777 -0.1415  0.2725 -0.2525
80456W        W23509  11.735  27.513  21.512  0.1263 -0.3775  0.2462
80457W        W23510  32.402   2.497  17.144 -0.4275  0.5484  0.0666
80458W        W23511  28.464  24.501  15.867  0.2841  0.0468 -0.2857
80459W        W23512  26.827   5.980  29.004  0.3926  0.0627 -0.2211
80460W        W23513   6.334   9.609   4.711 -0.0684  0.2127 -0.1181
80461W        W23514  25.955  33.378  27.417 -0.3902  0.2239 -0.1367
80462W        W23515  21.488  22.762  20.192  0.1825 -0.1109 -0.2074
80463W        W23516  15.668  23.807  23.530  0.0191 -0.0638  0.0552
80464W        W23517   5.645  20.963  22.188 -0.0720  0.0505  0.2865
80465W        W23518  12.754  26.369  17.635 -0.0382 -0.3088  0.2834
80466W        W23519  22.734   4.424   2.069 -0.0527  0.2108  0.1252
80467W        W23520  23.239  19.758  21.521  0.1246 -0.2108 -0.0834
80468W        W23521  17.214   8.889  20.399  0.2313 -0.1240 -0.1605
80469W        W23522  20.114  14.116  22.199  0.3176 -0.1426  0.2919
80470W        W23523   1.629  28.076  14.216 -0.0376 -0.1511  0.1471
80471W        W23524  26.970  34.686  26.817 -0.0748  0.0763  0.0414
80472W        W23525  14.800  31.242  26.050 -0.1632 -0.0380  0.0443
80473W        W23526  16.914   7.047  25.449  0.2082  0.3179  0.0869
80474W        W23527  27.763   5.187  24.455 -0.0581  0.0458  0.0549
80475W        W23528  12.705  17.094  18.446 -0.5192  0.0015  0.0470
80476W        W23529  10.422  25.570  16.912 -0.2313 -0.1268  0.2303
80477W        W23530   6.765   4.645  25.174  0.0145  0.2369 -0.0042
80478W        W23531  28.069  11.116  20.737 -0.0049 -0.2103  0.0878
80479W        W23532  13.405  28.470  22.559 -0.0772  0.1552 -0.3624
80480W        W23533  21.445   9.069  22.916 -0.0051 -0.2150 -0.0760
80481W        W23534  32.828  20.692  28.961  0.2039 -0.2953  0.0723
80482W        W23535  16.487  28.988  19.340  0.2717 -0.1637  0.2591
80483W        W23536  14.743  30.397  19.158 -0.1625  0.1225  0.1583
80484W        W23537  20.918   8.125  22.040  0.0836 -0.2353  0.0091
80485W        W23538  27.645  28.118   6.223 -0.3815 -0.1093 -0.2115
80486W        W23539   0.740   7.161  14.534  0.2591 -0.1910  0.3501
80487W        W23540  16.190  32.999  19.698 -0.2154  0.0283  0.1726
80488W        W23541  11.395  31.642  15.760  0.3713  0.3275 -0.3641
80489W        W23542   7.216  30.299  27.568 -0.2201  0.1301  0.0970
80490W        W23543  23.315   4.390  20.680 -0.4080  0.0597  0.2522
80491W        W23544  17.775   6.670  17.486 -0.2126 -0.2950  0.0554
80492W        W23545  25.904   1.722  15.277 -0.0414 -0.3421 -0.0006
80493W        W23546  18.910  24.734   2.693 -0.0112  0.2935  0.0768
80494W        W23547  28.767  18.559  26.312 -0.1123  0.1624 -0.2012
80495W        W23548  15.746  29.227  18.842  0.0565  0.0125 -0.1092
80496W        W23549   6.362  31.843  15.645 -0.1050  0.0867  0.0987
80497W        W23550  22.382  25.758  14.673 -0.3541  0.1565 -0.2329
80498W        W23551  11.340  24.816  13.534 -0.3724 -0.0498  0.0848
80499W        W23552   2.989  22.025   6.288  0.1968  0.0541 -0.0430
80500W        W23553   7.185   5.495  24.579 -0.1577  0.3124 -0.1575
80501W        W23554  11.407  30.004  16.560  0.3378 -0.0989 -0.0679
80502W        W23555   0.387  30.287  18.345 -0.0722 -0.3639  0.0621
80503W        W23556  19.475   2.558  18.430 -0.0538  0.2423 -0.0529
80504W        W23557  16.456  32.044  15.419 -0.1864  0.0057  0.0622
80505W        W23558  18.511  34.265  24.741 -0.0471 -0.1802 -0.0001
80506W        W23559  14.257   0.889  29.088  0.0150 -0.0201  0.0596
80507W        W23560   7.255  26.827   7.772 -0.0399  0.1176  0.0245
80508W        W23561  17.252   0.483  24.088 -0.0260 -0.1263  0.0545
80509W        W23562  19.336  33.400   0.931  0.2601 -0.0170 -0.0658
80510W        W23563  28.743  33.935  17.627  0.2362 -0.0917  0.1278
80511W        W23564  15.052  34.063  19.705  0.1825  0.2825 -0.0812
80512W        W23565  11.641  19.548  24.354  0.1666  0.0119 -0.1441
80513W        W23566   8.078  32.006  22.652 -0.0423 -0.3145 -0.2281
80514W        W23567  28.505  19.087  17.163 -0.2668 -0.2869  0.1673
80515W        W23568  17.132  29.434  25.645 -0.2200 -0.1356  0.1020
80516W        W23569   7.862  19.228  13.725 -0.0572  0.0161 -0.2370
80517W        W23570   0.821  34.207  22.873 -0.0827  0.0377 -0.1846
80518W        W23571  19.120   5.387   0.334  0.2547 -0.0600  0.1722
80519W        W23572   5.971  12.073  22.471 -0.1261 -0.0552 -0.2678
80520W        W23573  29.529   3.382  25.614  0.0792  0.2502  0.0895
80521W        W23574  11.728   1.754  19.945  0.0474  0.0275 -0.0498
80522W        W23575  12.115  25.949  16.565  0.0281 -0.0012 -0.0905
80523W        W23576  10.030  28.065  17.016  0.2531 -0.0304  0.1204
80524W        W23577  10.830  18.322  22.552 -0.2205 -0.3153  0.0179
80525W        W23578   6.187  31.331  23.310  0.0408  0.2233 -0.0949
80526W        W23579   5.078  23.246  24.837  0.2554  0.3537  0.0587
80527W        W23580   3.070  16.714   0.203  0.0770  0.1216 -0.0972
80528W        W23581   4.011  12.199  17.057 -0.1133  0.4969 -0.0816
80529W        W23582  16.167  32.368  26.630 -0.2065  0.0469  0.3881
80530W        W23583  12.175   3.557  16.075  0.3973  0.3102  0.0979
80531W        W23584  16.748   0.291  25.808  0.2742 -0.0302  0.0391
80532W        W23585  21.527  26.343  23.701  0.0069  0.0235  0.1050
80533W        W23586  27.993   5.089  21.667  0.1575  0.2971 -0.2274
80534W        W23587  15.519  32.111  26.615  0.1361  0.0738 -0.1678
80535W        W23588  32.413  13.547  16.672 -0.1755  0.1884  0.3521
80536W        W23589  17.147  22.876  21.522  0.2785 -0.0752 -0.0605
80537W        W23590  12.264   2.771  16.703  0.0522  0.1552  0.2175
80538W        W23591   6.028  27.402   1.713  0.3157 -0.2482 -0.2189
80539W        W23592   8.762   4.089  14.752 -0.2879  0.2921 -0.1377
80540W        W23593  16.552  33.392   0.618  0.0286  0.1178 -0.0311
80541W        W23594  10.315  30.595   2.121 -0.2371 -0.1690 -0.0378
80542W        W23595  20.136  30.611  17.623 -0.0146 -0.2377 -0.1208
80543W        W23596  13.069   9.918  21.023  0.3048  0.0334  0.0890
80544W        W23597  21.907   1.718  24.217 -0.2797  0.1730 -0.0724
80545W        W23598  11.825  26.842  21.943 -0.0079  0.1413  0.1296
80546W        W23599  17.337   1.041  24.064  0.1596  0.0076 -0.3486
80547W        W23600  11.561   8.268  28.259 -0.1868  0.0319  0.1773
80548W        W23601   2.919   1.261  19.961 -0.0324 -0.4749  0.0209
80549W        W23602   9.781  24.062  18.293  0.2390 -0.0993 -0.0395
80550W        W23603  31.903  30.384  14.700  0.0571 -0.1601 -0.1849
80551W        W23604  18.667  23.403  17.350 -0.0552 -0.1705 -0.3189
80552W        W23605  29.077   3.158  14.889 -0.1157  0.3399  0.1513
80553W        W23606  30.049  28.131  25.541 -0.1545 -0.0000  0.2758
80554W        W23607   4.056  21.122  18.131 -0.0301 -0.0687 -0.1268
80555W        W23608  13.560  31.576  21.476  0.1081  0.0484  0.1011
80556W        W23609   1.354   7.139  18.861 -0.2266 -0.1813  0.4252
80557W        W23610   5.171   4.900  22.283  0.2830 -0.2918  0.1241
80558W        W23611  21.318  26.988  28.329 -0.2856 -0.0735 -0.2061
80559W        W23612   4.309   3.029  24.222 -0.3399  0.0299  0.0180
80560W        W23613  24.857   1.582  23.315  0.1251  0.2299 -0.1267
80561W        W23614  31.163   7.128  16.487  0.2011  0.0582  0.0570
80562W        W23615  11.883  26.122  25.788  0.1222  0.0537  0.1018
80563W        W23616  10.986  12.071  20.572 -0.0804 -0.2493  0.3693
80564W        W23617   9.210  29.370  17.329  0.2910 -0.2332  0.1191
80565W        W23618   9.404   1.843   2.427 -0.1594 -0.1170 -0.1533
80566W        W23619   6.191  24.856  24.950 -0.1457 -0.2183  0.0514
80567W        W23620  11.203  29.909  24.901  0.1727  0.1574  0.0658
80568W        W23621  16.616  23.208  20.786 -0.3663  0.1586  0.2219
80569W        W23622  26.845  32.389  28.065  0.0612 -0.2920 -0.0281
80570W        W23623  22.497  32.637  27.722 -0.1013 -0.1975 -0.0589
80571W        W23624  16.429  17.265  14.362  0.1292 -0.1851  0.0335
80572W        W23625  15.306   0.336  21.238 -0.0070  0.1398  0.0527
80573W        W23626  13.297  23.741  16.051 -0.1132 -0.1185  0.2560
80574W        W23627  26.001  25.976   3.098 -0.0353  0.0997  0.0015
80575W        W23628  16.068  31.563  20.485 -0.1371 -0.2742  0.0888
80576W        W23629  19.800  14.885  21.067 -0.2076  0.1922  0.0113
80577W        W23630   5.796  26.530   2.928  0.0565 -0.1802  0.0067
80578W        W23631   9.941  12.427  17.785  0.3590 -0.0694 -0.1398
80579W        W23632  11.027  14.476  19.692 -0.0307  0.1059  0.1720
80580W        W23633   9.013   6.177  21.120  0.0358  0.1283  0.2431
80581W        W23634   4.644   7.168  17.292 -0.1172 -0.2688  0.1467
80582W        W23635   8.116   4.676  16.170 -0.1753 -0.3341  0.2127
80583W        W23636   6.038   3.538  26.754 -0.2022  0.0236 -0.0036
80584W        W23637  27.453  29.100   0.607 -0.2314 -0.1249  0.3815
80585W        W23638   4.749  27.437  15.582  0.2512  0.3007  0.5094
80586W        W23639   9.210   3.442  24.448 -0.0901  0.1168 -0.0302
80587W        W23640  11.617  33.503   1.720 -0.2363  0.0236  0.1964
80588W        W23641  12.669   2.944  20.992  0.0376  0.0425  0.1660
80589W        W23642  16.874  29.887  21.188  0.0169  0.0198 -0.3466
80590W        W23643  14.346  19.123  15.801  0.1362 -0.1215  0.1067
80591W        W23644  11.437   0.787   6.070  0.0369  0.1144 -0.0941
80592W        W23645   9.675  28.641   7.109 -0.0852 -0.0217  0.1332
80593W        W23646  13.480  22.896  17.749  0.2727  0.0081  0.1944
80594W        W23647  13.993  32.532  24.878 -0.4280 -0.2241  0.2162
80595W        W23648  10.169  27.733  16.251 -0.0499 -0.2467 -0.2658
80596W        W23649  11.593  32.379  26.267 -0.0692  0.0140 -0.2514
80597W        W23650   8.884  26.813  17.743 -0.1097 -0.0565 -0.0141
80598W        W23651  13.868   9.323   2.529 -0.1742  0.1673 -0.1399
80599W        W23652  13.303  21.469  15.378 -0.0590 -0.0772  0.0148
80600W        W23653  13.738  32.420   0.654 -0.3396 -0.0176 -0.1120
80601W        W23654  15.513  19.607  23.952  0.0436 -0.0975 -0.0262
80602W        W23655  16.886  30.179   2.914  0.0969  0.1031  0.0437
80603W        W23656   4.228  20.339  20.295 -0.3463  0.0808  0.2228
80604W        W23657   2.567  19.276  15.454 -0.4010  0.0005 -0.2830
80605W        W23658  11.521  23.798  15.971  0.0767 -0.3447  0.1309
80606W        W23659  16.698  20.500  16.194  0.2436  0.0939  0.0202
80607W        W23660   6.099  25.058   8.896 -0.2303 -0.1801  0.0278
80608W        W23661  20.654   0.975  19.907  0.1096  0.1165  0.3425
80609W        W23662  24.025   8.824  22.093  0.2647  0.1197 -0.0869
80610W        W23663  24.155  32.167  23.594  0.0653  0.0173  0.0545
80611W        W23664  15.543  23.296  26.532  0.3181  0.0213 -0.0830
80612W        W23665  24.485  12.535   4.695 -0.5735 -0.0801  0.1297
80613W        W23666   6.245  11.672   2.928 -0.2394 -0.0967 -0.3598
80614W        W23667  18.178  24.465  13.799 -0.0832  0.1679 -0.1265
80615W        W23668  13.525   1.538  26.629 -0.0548 -0.2055  0.0508
80616W        W23669  18.586  33.671   2.760 -0.0838 -0.2070 -0.3192
80617W        W23670   8.454   9.259  16.915  0.3499  0.0085 -0.0973
80618W        W23671   4.023  33.324  22.152 -0.2009  0.3833 -0.0222
80619W        W23672  20.408   4.062  18.717  0.0205  0.0141 -0.2711
80620W        W23673  17.145  33.851  18.761 -0.1465  0.1602 -0.2535
80621W        W23674   8.106   2.914  18.697  0.0123  0.3984 -0.3944
80622W        W23675  17.783  32.283  26.130  0.1498 -0.0714  0.2520
80623W        W23676   5.072  26.862  18.293  0.1003 -0.0440  0.2818
80624W        W23677  13.876  31.121  13.903 -0.0116  0.1660  0.2683
80625W        W23678  16.446  25.425  25.394  0.2363  0.1397 -0.1138
80626W        W23679  21.273   1.674  17.165  0.2440 -0.1269 -0.1187
80627W        W23680   5.760  30.687  15.905  0.0181  0.0932  0.0055
80628W        W23681  12.952  24.632  20.734 -0.0437 -0.1073 -0.3220
80629W        W23682  16.971  31.013  25.842  0.1226 -0.0386 -0.1541
80630W        W23683  25.456  22.862  14.893  0.0527  0.0130  0.3038
80631W        W23684  21.440  13.225  13.529 -0.1686  0.3559 -0.0753
80632W        W23685  28.655  18.705  17.490  0.3112 -0.0035 -0.0949
80633W        W23686  14.788  32.792  18.353 -0.0051 -0.2335  0.1481
80634W        W23687  26.882  15.523  16.459  0.3441 -0.0470 -0.3176
80635W        W23688  11.831  12.557  23.145  0.1170  0.1851  0.4860
80636W        W23689   8.914  25.889  16.274  0.0480  0.3102  0.0057
80637W        W23690  12.726  29.523  19.829 -0.2708 -0.0988 -0.0047
80638W        W23691  33.243   4.447  19.453 -0.1955 -0.1976 -0.0643
80639W        W23692  13.657  26.605  27.804 -0.2212  0.3585  0.0898
80640W        W23693  12.731  29.409  23.729 -0.2173  0.1454  0.4064
80641W        W23694  19.364  27.663  15.333  0.3002  0.1127 -0.1640
80642W        W23695  31.156  26.005  18.083 -0.0111  0.1762 -0.0006
80643W        W23696   7.796  16.110  22.149 -0.0030 -0.0064 -0.0489
80644W        W23697  20.431  12.388  27.857  0.0752  0.1781 -0.0337
80645W        W23698  18.943  15.845   5.954  0.3358  0.0661 -0.0040
80646W        W23699  32.365  19.621  26.729  0.2647 -0.0342 -0.2252
80647W        W23700  19.030  30.629   4.953 -0.0773 -0.0375 -0.0026
80648W        W23701  28.276  32.803  21.543  0.0921 -0.0259  0.2403
80649W        W23702  12.074  28.756  16.599  0.0642  0.0445 -0.1189
80650W        W23703  29.582  24.917  24.245  0.0523 -0.1148 -0.0526
80651W        W23704  14.552   3.516  21.045  0.0577  0.0924  0.1472
80652W        W23705  15.655  33.238  16.915 -0.0571 -0.4058  0.1197
80653W        W23706  12.060  11.899  29.186 -0.0720 -0.0027  0.1168
80654W        W23707  24.416   2.334  19.710 -0.1364  0.1478  0.1796
80655W        W23708  10.889  16.448  20.619 -0.0805  0.0360 -0.2575
80656W        W23709  16.606   9.971  25.187  0.1623 -0.3971 -0.1507
80657W        W23710   9.750   5.305  26.585 -0.1993 -0.2952  0.0554
80658W        W23711  15.436  29.650   3.888 -0.0300 -0.0627 -0.0606
80659W        W23712  15.687  31.949  16.539 -0.0769  0.1093 -0.1742
80660W        W23713  29.099  29.025  20.265 -0.2204  0.0876 -0.1721
80661W        W23714  28.655   9.131  17.984  0.1564 -0.2236  0.2790
80662W        W23715  19.938  32.942   2.452 -0.1638 -0.2385  0.4200
80663W        W23716  13.798   5.789  23.357 -0.0686  0.6112  0.1413
80664W        W23717  22.560  19.886  18.747 -0.1833 -0.0471  0.0932
80665W        W23718  25.890  16.406  13.783  0.0207 -0.1182 -0.0413
80666W        W23719   4.526  34.071   7.065  0.3185 -0.4300  0.0155
80667W        W23720  15.499   5.471  14.661 -0.3315 -0.0109 -0.0609
80668W        W23721  31.733   5.362  23.207  0.0893  0.1235  0.0461
80669W        W23722  30.537  27.633   9.253  0.1880 -0.1652  0.3120
80670W        W23723  11.944   3.619  13.733  0.0691  0.1483  0.1409
80671W        W23724   4.605  24.473  19.646  0.1353 -0.0856  0.0287
80672W        W23725  11.245  18.407  14.776  0.3093 -0.0811 -0.2353
80673W        W23726  22.668  27.068  23.650 -0.2748 -0.2807 -0.0556
80674W        W23727  20.868  32.330  21.523  0.2538 -0.1030 -0.1009
80675W        W23728   4.663  30.297   7.082 -0.4862  0.0161 -0.0187
80676W        W23729   2.440  32.388  17.710  0.0027 -0.0649  0.0341
80677W        W23730  21.517  32.983  20.696  0.0331 -0.0331  0.1116
80678W        W23731  13.134   0.420  17.728 -0.1570  0.3140  0.0923
80679W        W23732  22.164   1.927  20.495  0.0005 -0.2296  0.3331
80680W        W23733  18.296  29.461  18.086 -0.0186 -0.2168 -0.1532
80681W        W23734  19.748  32.430  19.647 -0.1895 -0.1276  0.2188
80682W        W23735  24.636  28.351  17.687  0.1165 -0.2890 -0.1540
80683W        W23736   9.087  25.403   8.831 -0.1309 -0.1403  0.1287
80684W        W23737  30.329  31.865  28.146  0.2116  0.1883  0.2015
80685W        W23738  21.976  26.529  14.623  0.2866  0.4392 -0.1386
80686W        W23739  26.451   4.428  18.178  0.2692 -0.0609  0.1218
80687W        W23740  26.084   5.103  24.780  0.0209  0.1638  0.0973
80688W        W23741  15.649  21.311  21.536  0.0802 -0.1875 -0.2549
80689W        W23742  15.665  30.592  16.999 -0.2863  0.3658  0.1605
80690W        W23743   4.382  18.901  18.882 -0.1459  0.0122 -0.3069
80691W        W23744  12.100   0.836  18.163 -0.2679 -0.3888  0.0761
80692W        W23745  23.424   3.853  16.303  0.0654  0.5968 -0.0260
80693W        W23746   1.196   0.019  23.532  0.2384  0.0026 -0.0691
80694W        W23747  22.940  25.513  28.777 -0.1648 -0.0986  0.1319
80695W        W23748  21.179   6.392  23.365  0.0783  0.2213  0.2404
80696W        W23749   0.571  20.332  28.546  0.1823  0.2036 -0.1874
80697W        W23750   6.005   2.706  16.542  0.2574 -0.1889  0.0907
80698W        W23751  29.678   4.343  21.470 -0.1719 -0.0832 -0.0043
80699W        W23752  19.470  22.152  22.272  0.0058  0.1775  0.1884
80700W        W23753  14.341   9.557  16.869 -0.2603 -0.0974  0.1191
80701W        W23754  15.010   1.199  21.430 -0.1914  0.0855  0.3009
80702W        W23755  16.953  24.944   7.924  0.1782  0.0881 -0.0130
80703W        W23756  27.327   1.720  16.604  0.0332 -0.0488  0.1299
80704W        W23757  12.974   9.274  15.825  0.0651 -0.0757 -0.1280
80705W        W23758  17.403  21.810  17.999  0.1707  0.0072 -0.0034
80706W        W23759  14.339  33.679  23.281  0.0850  0.0334  0.0756
80707W        W23760  10.237  12.078  18.009  0.0862  0.1044 -0.1853
80708W        W23761  10.504  21.611  24.075 -0.0527  0.0501 -0.1015
80709W        W23762   1.581   1.576  19.983  0.3868 -0.1443  0.0630
80710W        W23763  18.052  12.851  20.663 -0.1204 -0.4236 -0.3690
80711W        W23764   0.996   1.952  14.004  0.0212  0.0159  0.0018
80712W        W23765  20.722   1.540  24.905 -0.0229  0.1323 -0.2872
80713W        W23766  13.198   4.608  20.126 -0.1925  0.2356  0.4055
80714W        W23767  13.924  31.549  21.045  0.2741 -0.4223 -0.0198
80715W        W23768  25.262   9.636  21.163 -0.0007 -0.3517 -0.0483
80716W        W23769  14.763  29.585   1.804 -0.1040 -0.4691  0.1460
80717W        W23770  24.034  27.162   1.649 -0.0226 -0.1889 -0.1979
80718W        W23771  25.542  26.181  15.564  0.0358 -0.3981 -0.1450
80719W        W23772  23.191  34.305  25.809 -0.1956 -0.0494  0.1823
80720W        W23773   9.773  34.350  26.353  0.1833 -0.0440  0.1249
80721W        W23774  32.722  31.376  18.180  0.0820 -0.2016  0.0560
80722W        W23775  11.306   5.757   5.323 -0.2584 -0.0163  0.1449
80723W        W23776  11.048  20.131  24.079  0.0147  0.0622  0.0723
80724W        W23777   2.629  28.709  18.074  0.0047  0.0997  0.2750
80725W        W23778  27.682  21.719  24.959  0.3001  0.2354 -0.0238
80726W        W23779   9.058  27.710  14.615  0.2349 -0.2628 -0.1849
80727W        W23780  12.212  11.350  20.664 -0.4118 -0.0966  0.0034
80728W        W23781   7.031  30.845  20.985  0.1210 -0.2213  0.0387
80729W        W23782   9.522  25.641   0.396  0.2223  0.3722  0.0569
80730W        W23783  20.696   8.762  17.854  0.0115 -0.0334  0.1252
80731W        W23784   5.972  25.519  22.033  0.1606  0.0020 -0.0349
80732W        W23785   3.444  12.707  29.027 -0.0112 -0.0326  0.0011
80733W        W23786  33.502  17.366  19.760  0.2429  0.0600  0.3081
80734W        W23787  30.917   0.553  24.217  0.1740 -0.1549  0.1251
80735W        W23788   2.606  16.116  22.927 -0.0009  0.2372 -0.2865
80736W        W23789  28.458  23.321  20.840  0.2344  0.4057  0.0730
80737W        W23790  17.528  28.184  24.288 -0.4517  0.1133 -0.3366
80738W        W23791  17.929  24.524  17.835  0.0764  0.1457 -0.3554
80739W        W23792  18.940  17.428  26.085  0.2700 -0.0804 -0.0290
80740W        W23793  29.939   4.244   2.393  0.0045 -0.0075 -0.2438
80741W        W23794  26.112  33.554  26.377  0.3924 -0.1169  0.3473
80742W        W23795   1.959  21.593  21.884  0.1502 -0.0911 -0.0819
80743W        W23796   4.077  23.166  17.917  0.3338 -0.2874  0.0682
80744W        W23797  17.225   6.759  21.441  0.0571 -0.0636  0.1626
80745W        W23798  22.444  29.851  24.522 -0.1582  0.1449 -0.0312
80746W        W23799  12.889  29.569  20.273  0.3501 -0.0921  0.3376
80747W        W23800   8.931  24.342  22.404  0.0994 -0.1692 -0.0402
80748W        W23801  13.779   0.104  18.932 -0.0436 -0.1900  0.1480
80749W        W23802  11.846   2.996  17.643  0.3042  0.1037 -0.2018
80750W        W23803  22.383  22.726  21.329 -0.0829  0.4435  0.0306
80751W        W23804  28.199   3.616  23.806  0.0195 -0.0283 -0.2206
80752W        W23805  24.704  19.157  20.395 -0.0513  0.3135 -0.1682
80753W        W23806  25.693  30.915  21.176 -0.1121  0.3214 -0.2382
80754W        W23807  27.723  34.547  20.262  0.1819  0.1121  0.1899
80755W        W23808   0.942  25.334  15.132 -0.2082  0.3134 -0.0922
80756W        W23809  17.480  15.477  23.765  0.1693  0.1532 -0.3182
80757W        W23810   7.051  34.619  15.111  0.3208  0.0097  0.2170
80758W        W23811  27.841  23.163  22.786  0.2106  0.0787  0.1157
80759W        W23812  30.620  20.588  15.940 -0.0055  0.3969 -0.0279
80760W        W23813  21.785   5.012  13.507  0.1521 -0.0452 -0.2431
80761W        W23814  19.533   0.035   1.327 -0.0327 -0.0964  0.2408
80762W        W23815  17.921  23.776  20.485  0.1562  0.6272  0.1781
80763W        W23816  26.311   9.379  23.180  0.0670 -0.1131 -0.0405
80764W        W23817  13.612  23.006  14.908  0.0889  0.2089  0.2223
80765W        W23818  17.584  33.559  20.357  0.0853  0.1007 -0.4296
80766W        W23819  11.628  27.852  14.987  0.2296  0.2775 -0.2289
80767W        W23820  15.290   2.320  15.487  0.1288 -0.1316 -0.0694
80768W        W23821   3.034   8.649  20.629  0.2597  0.2968 -0.0227
80769W        W23822  23.089  30.759  22.578 -0.0002 -0.0811 -0.1416
80770W        W23823  29.581   5.149   4.790 -0.0051  0.0126 -0.0251
80771W        W23824   7.970   0.663  23.014 -0.1196  0.4472  0.0685
80772W        W23825  17.707   9.507   9.793  0.3101  0.4224 -0.1346
80773W        W23826   1.719  28.708  23.009 -0.1634  0.1018  0.0313
80774W        W23827   9.990  24.626  15.412 -0.0813 -0.3171  0.1646
80775W        W23828  25.716  17.313  17.750 -0.2350 -0.2043 -0.0602
80776W        W23829  11.280  24.734   0.805 -0.0252  0.1993 -0.0358
80777W        W23830  33.574   5.194  22.333  0.2212  0.0834 -0.3187
80778W        W23831  13.740   0.534  14.003 -0.2210 -0.1898  0.1598
80779W        W23832  21.414  32.507  18.580  0.2349 -0.0943  0.0340
80780W        W23833  32.274  26.002  24.185  0.0989  0.2442  0.1338
80781W        W23834  13.598  24.014  20.101 -0.2142 -0.2014 -0.3601
80782W        W23835  14.280   7.609  21.716 -0.0869  0.0787 -0.1351
80783W        W23836  13.168  27.070   3.249  0.3762 -0.2954  0.3372
80784W        W23837  11.307  34.075  19.432 -0.1917  0.0027 -0.1546
80785W        W23838  21.389   2.936  21.893 -0.0434 -0.0613 -0.0143
80786W        W23839   9.896  21.886   1.925 -0.0061  0.0586 -0.2101
80787W        W23840  26.244  29.980  18.503 -0.3728 -0.0355  0.3310
80788W        W23841  18.948   3.052  27.390 -0.1297 -0.1202  0.0828
80789W        W23842  23.247  17.945  24.991 -0.1283 -0.1407  0.0308
80790W        W23843  22.918  33.198  23.394  0.0206  0.3308  0.4943
80791W        W23844   1.615  24.446  26.018 -0.3770 -0.3822  0.1000
80792W        W23845   7.839   5.170  20.557  0.0367  0.2890 -0.2612
80793W        W23846  22.860  26.756  18.898  0.3948  0.1760  0.0055
80794W        W23847  21.339  23.289  19.671  0.1831  0.1007  0.2463
80795W        W23848  25.679   1.449  17.882  0.1399  0.0380  0.1627
80796W        W23849  14.437  30.420  22.470 -0.0177  0.2047 -0.0455
80797W        W23850  22.882  33.994  14.782 -0.0182 -0.0505  0.1227
80798W        W23851  22.998   0.988  22.840  0.1060  0.1658 -0.1360
80799W        W23852   7.664  18.153  22.682  0.1805 -0.3469  0.1086
80800W        W23853  17.032  27.739  15.108  0.3053 -0.3190 -0.2185
80801W        W23854   3.570  26.422  14.475 -0.0142 -0.1630 -0.3682
80802W        W23855  16.891  28.770  15.154 -0.1276  0.3785 -0.0620
80803W        W23856  14.539  21.245  13.643 -0.1897  0.2907  0.1141
80804W        W23857   7.434  29.798  13.881 -0.2598 -0.0964  0.0583
80805W        W23858  20.583  34.556   0.433  0.1023 -0.0253  0.1240
80806W        W23859  20.523  31.106  20.099 -0.0141  0.0499 -0.0381
80807W        W23860  25.975  32.315  17.592  0.1749  0.1557  0.0928
80808W        W23861   9.786  24.032  27.323  0.0199 -0.1752  0.2483
80809W        W23862   4.185  11.841  15.454 -0.1799  0.2415  0.1238
80810W        W23863  25.416  16.959  17.834 -0.0386  0.3907 -0.2909
80811W        W23864  22.543   1.339  23.089  0.0568 -0.3168  0.3205
80812W        W23865   8.732   9.469  19.115  0.1013 -0.2451 -0.3858
80813W        W23866  16.711   7.223  24.551  0.0799  0.2335 -0.1131
80814W        W23867  14.418   6.114   0.822 -0.1784 -0.1633  0.1316
80815W        W23868  15.155   6.844  23.470 -0.0094 -0.0890 -0.0031
80816W        W23869  11.863  22.652  24.701 -0.1110  0.0252  0.1742
80817W        W23870  14.925  32.757  20.259 -0.3988  0.2407  0.2738
80818W        W23871   8.896  19.956  17.100  0.2829 -0.0462 -0.1866
80819W        W23872  13.276  30.720   3.596  0.0077  0.1769  0.1783
80820W        W23873  20.432   3.142  20.047 -0.2856  0.2002 -0.0966
80821W        W23874  14.316  33.996   2.819 -0.1121 -0.0245  0.0226
80822W        W23875  22.078   4.531  17.407 -0.1267  0.2684  0.0304
80823W        W23876  27.314  11.020  28.383  0.5662 -0.0535 -0.0520
80824W        W23877  17.896  23.741  28.161 -0.2134 -0.1261  0.1913
80825W        W23878  21.337  29.693  14.295 -0.0647 -0.0066  0.2277
80826W        W23879   6.991  34.508  26.787 -0.0452 -0.1903  0.0842
80827W        W23880  31.118   0.940  18.553 -0.3342  0.3011 -0.0552
80828W        W23881  24.615   2.498  23.316  0.1442 -0.3444  0.1312
80829W        W23882  30.357  24.159  20.608  0.1651 -0.2117  0.2540
80830W        W23883  34.274   2.677  14.473  0.2050 -0.0914 -0.2668
80831W        W23884  10.769  18.511  27.582  0.2762  0.0369  0.0043
80832W        W23885  13.221   6.236  26.818 -0.0397  0.3729  0.0703
80833W        W23886   6.552   4.247  16.877  0.1010  0.2251 -0.0701
80834W        W23887  20.460   4.525  18.613  0.0722  0.3235 -0.1923
80835W        W23888  25.222  29.209  15.457  0.2377 -0.0253 -0.1248
80836W        W23889  12.826  31.791  17.146  0.0710  0.1270 -0.0678
80837W        W23890   7.246  22.898  19.076 -0.0284  0.1030  0.0441
80838W        W23891  19.540  18.208   5.281  0.1509  0.0287  0.0912
80839W        W23892  14.460   6.343  19.615  0.2083 -0.1673  0.0806
80840W        W23893  28.577  32.352  21.617 -0.0394 -0.0759 -0.0098
80841W        W23894  11.976  19.945  19.130 -0.3264 -0.1461 -0.1092
80842W        W23895   8.404  22.599  15.807  0.1254 -0.3574 -0.0729
80843W        W23896   2.932  16.110  17.516 -0.0245 -0.2608  0.2897
80844W        W23897   3.288  18.545  25.222  0.0827  0.4572 -0.0919
80845W        W23898  29.903  16.748  24.975  0.0137  0.1976 -0.0485
80846W        W23899   9.349  24.867  18.274  0.1801  0.1550 -0.3669
80847W        W23900   3.948  31.791  26.933 -0.0062 -0.1103 -0.1061
80848W        W23901  21.468  31.942  15.606 -0.1931  0.0152 -0.0999
80849W        W23902  24.569   8.280  15.042  0.0134 -0.1874 -0.1317
80850W        W23903  20.651  28.898  21.739 -0.0231 -0.1933 -0.0816
80851W        W23904   7.769  32.721   8.554  0.0999 -0.0998 -0.1667
80852W        W23905  22.572  32.862  15.949 -0.4319 -0.1972  0.6399
80853W        W23906   5.064  25.669  18.850  0.4561  0.1086  0.2262
80854W        W23907  17.739   2.014  27.057  0.1464 -0.0235  0.0104
80855W        W23908   1.525  13.681  17.586  0.1709  0.0355  0.0484
80856W        W23909  16.334  21.687   8.813  0.0045  0.1271 -0.1417
80857W        W23910  20.420  16.637  29.195  0.1111  0.1008 -0.3097
80858W        W23911   5.310  30.675  22.302 -0.0402 -0.1698  0.2846
80859W        W23912   9.314  27.368  14.900 -0.0376 -0.0031 -0.2344
80860W        W23913  27.148  26.795  19.251  0.1110  0.2829 -0.0707
80861W        W23914  17.551   3.708  18.699 -0.1534  0.1238  0.1013
80862W        W23915   4.757  34.476  20.782  0.0678 -0.0576  0.0117
80863W        W23916  13.578   3.232  18.619 -0.0920 -0.0254 -0.2319
80864W        W23917  17.453  12.856   0.842 -0.0026  0.2203  0.2132
80865W        W23918  26.709  25.413   0.571  0.2195 -0.1083 -0.0212
80866W        W23919  28.016  27.505  13.562 -0.0722  0.1568  0.0381
80867W        W23920  23.812  17.002  17.481 -0.0675  0.0377  0.2574
80868W        W23921   1.218  27.707   0.844 -0.3820  0.0787  0.1806
80869W        W23922   2.472   3.128  20.409 -0.0162  0.0866 -0.2476
80870W        W23923  23.258   0.579  14.764 -0.3406 -0.0100  0.2441
80871W        W23924  11.651  23.758   3.060  0.4214  0.0555 -0.0256
80872W        W23925  12.724  19.201  17.883  0.0525  0.1568 -0.0728
80873W        W23926  20.871  13.949  13.788  0.3150 -0.1413 -0.4466
80874W        W23927  27.186  20.275  15.983 -0.3292  0.0144  0.2507
80875W        W23928  32.996   1.154  24.033  0.0040  0.0762 -0.1812
80876W        W23929  31.569  16.735   2.741  0.3759  0.2352 -0.2121
80877W        W23930  27.558  22.981   5.970  0.3828 -0.1890  0.0318
80878W        W23931  14.648  13.982  13.721  0.4803  0.1044  0.2443
80879W        W23932   9.491   5.125  23.321  0.2774  0.1109 -0.4080
80880W        W23933  17.248  25.170  18.132  0.1996  0.2455 -0.2028
80881W        W23934  15.109  23.659  15.824 -0.3029 -0.2590  0.1066
80882W        W23935  18.346  31.384  26.145  0.0135 -0.1440  0.2322
80883W        W23936  12.816  31.605  18.538 -0.2084 -0.1314  0.0875
80884W        W23937   4.304  23.129  19.077  0.0542 -0.2782 -0.1949
80885W        W23938   6.733  23.925  14.970  0.2159 -0.3269  0.0712
80886W        W23939   7.458  33.701  20.052 -0.0870 -0.2200  0.1303
80887W        W23940  16.156  33.787  17.811  0.2621 -0.0530 -0.1160
80888W        W23941  13.093  26.326  20.484  0.1911 -0.4370  0.0442
80889W        W23942  10.790   6.502   2.973 -0.2014 -0.1895 -0.1426
80890W        W23943  11.642  28.309  19.883 -0.1677  0.1154 -0.1132
80891W        W23944   6.820  23.721  21.376 -0.1797 -0.0641 -0.0174
80892W        W23945  26.190   6.639  17.593  0.0729 -0.0879  0.2704
80893W        W23946  19.985   3.469   8.396 -0.1204 -0.1090  0.2295
80894W        W23947   9.187   1.352  14.065 -0.1134  0.1157 -0.3843
80895W        W23948  29.952  22.082  28.902  0.0525 -0.2788 -0.0304
80896W        W23949   5.201  12.122  23.796  0.1070  0.0112 -0.0372
80897W        W23950  31.631   3.900  16.799  0.0591 -0.1976  0.2818
80898W        W23951  30.813  24.529  15.387 -0.2470  0.0964 -0.4469
80899W        W23952  16.023  20.092  21.390  0.1326 -0.1588 -0.1025
80900W        W23953   6.096   8.973  17.641  0.0060  0.1628  0.1510
80901W        W23954   4.620  28.700  17.423 -0.2592  0.3771 -0.1876
80902W        W23955  20.046   2.077  27.261  0.1254  0.4332 -0.2215
80903W        W23956   4.553  11.451  23.356  0.3132 -0.2372  0.0936
80904W        W23957  33.334  20.334  18.271  0.1039  0.4742  0.0372
80905W        W23958   7.541  19.652  14.323  0.1566  0.1061 -0.0503
80906W        W23959  26.369   6.447  21.726  0.0858 -0.1423 -0.0321
80907W        W23960  24.291  24.727  16.082  0.1480  0.1635 -0.2182
80908W        W23961  24.208  21.421  22.255  0.1433 -0.2043 -0.3831
80909W        W23962  16.123  31.808  25.085 -0.1115 -0.0152 -0.0651
80910W        W23963  31.381  30.157  17.581 -0.0589 -0.0797 -0.1565
80911W        W23964  17.292   5.464  22.821  0.1406  0.0679 -0.2511
80912W        W23965  20.950  24.830  21.271 -0.4235 -0.2122 -0.1618
80913W        W23966   1.472  27.575  22.195 -0.0935 -0.1983  0.0687
80914W        W23967  27.596  27.629  24.583 -0.1305 -0.2911  0.3577
80915W        W23968   3.130   8.156  17.391  0.1768  0.0724  0.2096
80916W        W23969   6.587  27.206  23.789 -0.1850 -0.2983 -0.1509
80917W        W23970  15.601  22.995  24.443 -0.1830 -0.1941 -0.4588
80918W        W23971  17.794  34.183   1.349 -0.1241  0.0665  0.1269
80919W        W23972   9.289  28.640  22.245  0.2595  0.3893  0.2792
80920W        W23973  28.315   6.096  25.376  0.0465 -0.1005 -0.0249
80921W        W23974   2.832   0.842   2.167  0.1210  0.2408  0.0800
80922W        W23975  27.943  20.929  23.082 -0.1134  0.2700  0.0244
80923W        W23976  33.850  29.822  14.618 -0.0934 -0.0195  0.0554
80924W        W23977  20.518  25.362   6.681  0.1249 -0.0374  0.0917
80925W        W23978  29.604  13.939   4.922  0.1386 -0.0192 -0.1140
80926W        W23979  33.433  13.888  19.953 -0.1013 -0.4030  0.0454
80927W        W23980   9.001  26.293  25.743 -0.2206 -0.0237  0.1427
80928W        W23981  20.142   5.939  19.921 -0.0795 -0.1521 -0.0872
80929W        W23982  19.611   5.344   0.235  0.1585  0.2310  0.1788
80930W        W23983  19.674  30.772  25.666 -0.2175 -0.0010  0.1742
80931W        W23984  12.123  25.152  14.555  0.1645  0.2073 -0.1517
80932W        W23985  21.750  29.387   1.373 -0.2172  0.0058  0.1124
80933W        W23986  11.056   5.495  20.162  0.2200  0.1323 -0.0247
80934W        W23987  11.576  26.006   5.312  0.1058  0.3186 -0.2437
80935W        W23988   4.284  34.224  18.504  0.1317  0.1014 -0.0613
80936W        W23989   1.307   0.964  15.936 -0.0966 -0.0917  0.1505
80937W        W23990  17.045  25.533  28.921  0.1204  0.1016  0.1697
80938W        W23991  26.979  33.386  20.735  0.1707 -0.1127 -0.0706
80939W        W23992   1.006  20.366  19.310 -0.2309 -0.0122 -0.0463
80940W        W23993  14.333  11.532  14.360 -0.2296  0.2124 -0.4427
80941W        W23994  33.005  31.531  16.282  0.1126  0.2959  0.1989
80942W        W23995  11.202  28.172  15.800 -0.0467 -0.2413  0.0288
80943W        W23996   5.167   0.700  23.943 -0.0401 -0.0277  0.1403
80944W        W23997   9.199  20.896  20.069 -0.2185 -0.0916 -0.1740
80945W        W23998  24.639  34.071  27.948  0.3190 -0.0893  0.0985
80946W        W23999  22.229   8.344  20.843  0.2024  0.2494  0.2814
80947W        W24000   0.606   7.350  22.663  0.3597 -0.1991  0.0704
80948W        W24001  32.210   6.767  29.060  0.1236 -0.0017  0.1762
80949W        W24002  12.072  27.265  21.853  0.0141 -0.0279  0.1941
80950W        W24003  34.340   1.873  25.860  0.0871 -0.2589 -0.4016
80951W        W24004   1.269  19.705  23.487 -0.0433  0.0940  0.0531
80952W        W24005  17.112  25.418  21.088 -0.1714  0.4148 -0.0178
80953W        W24006  17.012   3.025  18.793 -0.0636 -0.1621 -0.0392
80954W        W24007  17.991  19.453  26.299  0.1046  0.1291  0.2109
80955W        W24008  24.611  21.690  17.304  0.4693 -0.0851  0.3082
80956W        W24009   2.588  25.271  18.728  0.0084  0.0320  0.3724
80957W        W24010  33.924   2.952  15.319 -0.0881  0.1269 -0.1770
80958W        W24011  27.432  31.374  18.677  0.0781  0.3442 -0.3980
80959W        W24012  23.543  29.142  22.742 -0.0128  0.0051  0.1177
80960W        W24013  29.765  13.787  28.976  0.2699 -0.1701 -0.2146
80961W        W24014   5.844  17.472  24.702 -0.0771  0.1142 -0.0677
80962W        W24015  13.618  31.111  21.118  0.1213  0.1440  0.2570
80963W        W24016  14.112  29.284  20.341  0.2364 -0.2446  0.2011
80964W        W24017  17.499  30.323   0.210  0.2987 -0.0879 -0.0377
80965W        W24018  11.401  32.619   5.610  0.2826 -0.1454  0.2838
80966W        W24019   6.991  23.203  23.312  0.2515  0.0065 -0.1476
80967W        W24020  25.971   8.348  15.295  0.0807  0.1327  0.0215
80968W        W24021  22.345  14.250  15.683  0.4749  0.2399 -0.0104
80969W        W24022   3.494  32.642  20.581 -0.0537  0.0173  0.1383
80970W        W24023  32.029  24.265  24.173 -0.1501 -0.0592  0.1200
80971W        W24024  19.834  29.331  22.227  0.5775  0.2922  0.0566
80972W        W24025   8.169  33.199  22.891  0.3647  0.4465 -0.1677
80973W        W24026   6.238   0.148  17.661 -0.1331 -0.2984  0.1060
80974W        W24027  18.471  28.181   4.375  0.2062 -0.0662  0.1118
80975W        W24028  21.742  26.853  20.069 -0.0619 -0.0663  0.3442
80976W        W24029  13.142   7.694  25.269 -0.2069  0.0094 -0.2006
80977W        W24030  29.664   7.096  25.488 -0.2389  0.0353 -0.1403
80978W        W24031  19.702  25.532   3.843  0.2578 -0.0351 -0.0813
80979W        W24032   5.555  21.491  21.278 -0.1787  0.2521 -0.2833
80980W        W24033  11.431  24.458  17.163  0.0334 -0.0124 -0.0514
80981W        W24034  22.754   0.893  19.780 -0.0441  0.4456  0.2162
80982W        W24035   1.262   9.431  28.280  0.0284  0.0895  0.0752
80983W        W24036  19.526   7.242   0.055  0.0405 -0.0266 -0.0146
80984W        W24037  24.306   2.987  19.773 -0.0798 -0.0092  0.1094
80985W        W24038  12.821  16.925  14.573 -0.2993  0.2028 -0.0811
80986W        W24039  30.637  18.332  16.322  0.0492  0.1410 -0.0650
80987W        W24040  15.090   7.066   3.870  0.1297  0.0479 -0.0549
80988W        W24041   9.271  30.597  16.391  0.2838  0.2078  0.1031
80989W        W24042  14.539  26.906  22.329  0.1959  0.0711  0.0010
80990W        W24043  20.350  33.526  16.027  0.0646 -0.0535  0.0262
80991W        W24044  14.388   8.939  24.445  0.1699  0.2553 -0.1746
80992W        W24045  20.251  15.244  23.230 -0.0498  0.0019 -0.0945
80993W        W24046  24.406  31.913  16.077 -0.0191  0.1654 -0.0782
80994W        W24047  34.228  33.900  25.296  0.0818 -0.3106 -0.4440
80995W        W24048   9.394  22.063  16.539  0.1014  0.1583 -0.0887
80996W        W24049  28.605   1.734   4.596 -0.0115  0.0304 -0.0683
80997W        W24050  29.099  34.156  27.019  0.2236  0.0720  0.2714
80998W        W24051  11.611  22.452   5.407  0.0636 -0.0076  0.1115
80999W        W24052  14.505  25.423  21.132  0.0593 -0.2952 -0.1450
81000W        W24053   4.803  32.821  23.122 -0.0922  0.1781  0.1597
81001W        W24054   7.324  30.954  21.551  0.0617 -0.1791 -0.0062
81002W        W24055   8.420   1.267  26.700 -0.4135 -0.3296 -0.1078
81003W        W24056  21.354  32.135  22.689  0.5618  0.1449  0.0513
81004W        W24057  25.987   4.186  23.760 -0.0289 -0.0257  0.2913
81005W        W24058  15.246  23.196  27.937  0.0185  0.0045 -0.0600
81006W        W24059  22.782  19.899  17.526 -0.1154  0.1128  0.2041
81007W        W24060  20.190  33.381  17.177  0.2184  0.0225 -0.0252
81008W        W24061  21.369   2.777   5.839  0.0153  0.1495 -0.4115
81009W        W24062   5.727  16.267   8.005  0.1730 -0.1254  0.3101
81010W        W24063   5.095   2.489   1.275  0.0469  0.0329  0.1445
81011W        W24064  30.045   4.107  17.974 -0.1268 -0.2905 -0.2707
81012W        W24065  23.387   4.181   2.584 -0.2664  0.0705 -0.2778
81013W        W24066  23.861  28.012  14.955  0.1647 -0.0512  0.0955
81014W        W24067  20.270  23.449   0.895 -0.2903 -0.1479  0.0447
81015W        W24068  17.804  31.841  19.497 -0.5216  0.1589  0.0701
81016W        W24069  24.329  30.447  16.940 -0.2718  0.1221 -0.0616
81017W        W24070  15.998   2.894  26.064 -0.0661  0.0920  0.1035
81018W        W24071  26.234   7.279  28.988 -0.0577 -0.1628 -0.0055
81019W        W24072  21.564  17.209  24.282  0.1288 -0.1068 -0.0047
81020W        W24073  31.449  24.574   7.772  0.1372  0.1402 -0.1687
81021W        W24074   3.082   5.254  17.351 -0.2973  0.0483 -0.1372
81022W        W24075  25.078  30.827   3.773  0.2264 -0.2494 -0.5107
81023W        W24076  24.573  24.142  17.107 -0.1720 -0.2786 -0.3192
81024W        W24077   0.009  34.061  21.047 -0.1858 -0.0248  0.1236
81025W        W24078  19.395   5.341  27.449 -0.1606 -0.0083 -0.2648
81026W        W24079  15.827   1.792  16.888 -0.0795 -0.3069 -0.3386
81027W        W24080  12.679  20.637  15.391 -0.2017  0.1370  0.0167
81028W        W24081  32.397   2.916  26.397 -0.3825 -0.2000 -0.1018
81029W        W24082  10.519  22.103  20.658 -0.4887 -0.3175  0.1939
81030W        W24083   3.387  13.137  14.858  0.0324  0.1877 -0.1591
81031W        W24084   2.648   0.719  13.512  0.0265 -0.0985 -0.0465
81032W        W24085  24.995  22.202  25.197  0.0906  0.2651  0.1631
81033W        W24086   8.843  32.303  27.111  0.0399  0.0767 -0.1064
81034W        W24087  20.461  32.757  22.717 -0.2374 -0.0876 -0.0570
81035W        W24088   5.766   0.784  14.246  0.0196 -0.2467  0.3465
81036W        W24089  19.779  28.064  22.436 -0.1810  0.0982 -0.1999
81037W        W24090  26.188  26.588   2.205  0.2571 -0.0423 -0.1156
81038W        W24091   1.085  27.790   5.817 -0.1584  0.0363 -0.1300
81039W        W24092  34.651   7.843  25.356  0.1064  0.2276 -0.1136
81040W        W24093  23.335   0.641  26.989 -0.0040 -0.2930  0.1763
81041W        W24094   3.947  23.680   7.338  0.4810 -0.1673 -0.3628
81042W        W24095  30.652  16.792  17.804 -0.0729  0.0961  0.0022
81043W        W24096  24.760  26.117   3.279 -0.0679 -0.2250 -0.1733
81044W        W24097  30.035  31.471  28.380 -0.1866 -0.0645  0.1144
81045W        W24098  25.717  32.785  26.481 -0.0484  0.1258  0.0541
81046W        W24099  10.353   2.098  14.793  0.0883  0.1547 -0.1621
81047W        W24100  21.218   1.743  24.978  0.2370 -0.1445  0.1358
81048W        W24101  14.612  30.358   7.688  0.0093  0.3520 -0.0826
81049W        W24102  12.735  27.225  24.589  0.2282  0.4764 -0.0733
81050W        W24103  18.275  29.819  26.169 -0.6060  0.1362 -0.2568
81051W        W24104  28.245  24.544   4.925 -0.1254  0.2848  0.1356
81052W        W24105  27.291   7.391   9.018 -0.0086 -0.0551  0.2159
81053W        W24106  11.507  26.958  20.726 -0.0988  0.2705 -0.0354
81054W        W24107  33.632  30.560  22.882 -0.0893  0.2488 -0.2887
81055W        W24108  17.493  28.800  20.871  0.0726 -0.2293  0.0651
81056W        W24109  19.377  33.078  22.237 -0.0427  0.0588  0.2016
81057W        W24110   7.164  25.156  17.117 -0.0055  0.3095  0.1860
81058W        W24111   3.278  23.372  22.936  0.0612 -0.0985  0.0245
81059W        W24112  14.687  20.470  24.992  0.0230  0.2486  0.0314
81060W        W24113  30.175   5.968  19.745 -0.2600  0.0666 -0.2729
81061W        W24114   6.643  30.171  17.465 -0.2529  0.1159  0.1378
81062W        W24115  30.584  25.315  18.022  0.0298 -0.1930  0.2909
81063W        W24116  32.469  19.757   8.005 -0.0359  0.0000  0.0465
81064W        W24117  15.718  31.861  20.253  0.0316 -0.0554  0.2652
81065W        W24118   9.784  24.196  13.657  0.2749  0.1310 -0.2541
81066W        W24119  17.461   0.790   1.883  0.1478 -0.2133 -0.2206
81067W        W24120  16.479  21.228  14.902 -0.0470 -0.1327 -0.2820
81068W        W24121  14.215   2.688  18.970  0.2111  0.1000  0.0133
81069W        W24122  26.415  24.822  15.549  0.0906  0.4591  0.1158
81070W        W24123  19.609  31.736  24.419  0.1943 -0.0927  0.2476
81071W        W24124  25.728   2.971  15.724 -0.0294 -0.0660  0.1993
81072W        W24125  17.302  22.465  13.938 -0.1203  0.1734 -0.5065
81073W        W24126  29.012  21.937  23.444 -0.2574 -0.3270  0.1846
81074W        W24127  30.629  30.569  15.209  0.2000 -0.2094  0.2232
81075W        W24128  20.844  25.644   7.661  0.2732 -0.3420 -0.0961
81076W        W24129  11.211  10.195   7.358  0.1063  0.2650  0.2341
81077W        W24130  11.528  14.920  15.475  0.2536  0.2596  0.2644
81078W        W24131   6.203  15.911  20.141 -0.1112 -0.0424  0.0739
81079W        W24132  10.433  19.250  17.467 -0.2890 -0.3209 -0.0723
81080W        W24133  20.982   3.142  22.064  0.0453 -0.0139 -0.0501
81081W        W24134  20.238  29.918  24.992 -0.0200 -0.4653  0.0757
81082W        W24135  21.589   1.149  15.243 -0.1285  0.2048 -0.0904
81083W        W24136  17.246   0.523  20.511  0.2337  0.2783  0.1386
81084W        W24137   7.523   6.713  17.507 -0.2908 -0.1191  0.1659
81085W        W24138  20.307  27.730   2.591 -0.3691 -0.1569 -0.0962
81086W        W24139  14.007  18.560  23.794 -0.1189 -0.1051  0.0917
81087W        W24140  15.448  15.532   0.763 -0.1676  0.2521 -0.2303
81088W        W24141   7.855  26.304  14.917  0.0880 -0.0869  0.1588
81089W        W24142  19.623  26.204  15.279  0.1863 -0.2136 -0.2741
81090W        W24143  18.384   0.962   4.916  0.1229 -0.0873 -0.6072
81091W        W24144  33.047   3.600  29.173  0.2143  0.0336  0.0742
81092W        W24145   8.666  19.111  18.558  0.3848 -0.0081  0.1192
81093W        W24146  21.122   6.581   7.818 -0.0498 -0.0811 -0.0041
81094W        W24147  15.653  33.398   3.798 -0.1299 -0.3790 -0.0997
81095W        W24148   4.936  32.907  26.491 -0.0584 -0.0078 -0.0852
81096W        W24149   9.869  16.648  26.994 -0.0896 -0.1102  0.0012
81097W        W24150  32.036   6.747  16.759  0.0940  0.0829  0.3157
81098W        W24151  17.454  28.407  22.171 -0.0219 -0.1928  0.1088
81099W        W24152   9.568  13.143  28.688 -0.0939  0.2943 -0.2621
81100W        W24153   6.593  25.261   3.060 -0.0973  0.0528 -0.1211
81101W        W24154   3.442  22.181  26.253 -0.2725  0.2000 -0.1725
81102W        W24155   8.216   6.062  23.839 -0.0010  0.0349  0.1268
81103W        W24156   6.396  28.535  22.443 -0.1337  0.1964 -0.2424
81104W        W24157  22.096   5.378  13.986  0.2242  0.1276  0.2485
81105W        W24158  23.379   6.056  28.661 -0.0500  0.0061 -0.2360
81106W        W24159  17.947  30.705   9.232 -0.1878  0.1649  0.2322
81107W        W24160  28.521  26.414  29.009  0.0763 -0.0447  0.1288
81108W        W24161  15.035  27.310  21.031 -0.0952  0.1313  0.1428
81109W        W24162  11.658  27.527  24.599  0.0603  0.1821  0.0099
81110W        W24163  20.598   8.494   0.983  0.3189  0.1908  0.0248
81111W        W24164  21.035  30.694  22.733 -0.0808 -0.0036 -0.0301
81112W        W24165   6.359  16.954  21.985  0.0145 -0.1405  0.0530
81113W        W24166   6.203   5.406  26.499 -0.0127  0.2178 -0.1201
81114W        W24167  10.391  25.827  23.488 -0.0240 -0.0707  0.1573
81115W        W24168   3.475   0.491  28.689  0.3479  0.0321  0.0441
81116W        W24169  30.102  28.436  26.920 -0.1174 -0.0870  0.2469
81117W        W24170  25.120   2.335   4.573  0.1355  0.0320  0.0693
81118W        W24171  18.184  26.053   4.596  0.1190  0.0219 -0.3292
81119W        W24172  31.816  17.104  26.740 -0.4134 -0.1214 -0.2120
81120W        W24173   6.479  20.017   4.067 -0.1288  0.3484 -0.1167
81121W        W24174  14.246  32.329  14.775 -0.1023 -0.2770  0.2453
81122W        W24175   9.318  11.070  16.642 -0.0548 -0.0018  0.1210
81123W        W24176  19.099  33.691   9.320 -0.7166 -0.1226  0.1437
81124W        W24177   7.923   0.220  20.953  0.0247  0.0360  0.3360
81125W        W24178  29.717  29.192  17.770  0.0076 -0.1598 -0.2597
81126W        W24179  16.228  29.662  20.954 -0.1648 -0.2704  0.0564
81127W        W24180  27.780  12.911  15.751 -0.0171  0.1425 -0.2021
81128W        W24181   4.632  29.299   2.287 -0.3101  0.0145 -0.1709
81129W        W24182  14.594  18.535  27.527  0.1252 -0.2131  0.0933
81130W        W24183  25.944  31.435  17.703  0.1376 -0.2219 -0.0850
81131W        W24184   4.779   0.661  21.645 -0.1447  0.3755  0.1497
81132W        W24185  25.142   7.140  24.433 -0.0025 -0.3053 -0.1213
81133W        W24186  16.540   3.228  28.904  0.1377 -0.1237 -0.0937
81134W        W24187  14.864   2.764  21.545 -0.0506  0.1759 -0.3362
81135W        W24188  18.449   3.028   2.356 -0.1846 -0.1285 -0.4340
81136W        W24189  19.208  27.765  25.321 -0.2543  0.2020 -0.0357
81137W        W24190  12.082  22.867   0.539 -0.3578  0.1807 -0.4045
81138W        W24191  19.063  28.517  21.741 -0.2235  0.3136 -0.2371
81139W        W24192  12.863  33.032  22.809 -0.1782 -0.1537 -0.0431
81140W        W24193  26.482  33.291  27.289 -0.0879  0.1867  0.0013
81141W        W24194   7.590   4.443  20.156  0.0380 -0.0096 -0.1811
81142W        W24195  13.681  26.266   6.417  0.0087  0.2618  0.1987
81143W        W24196  32.540   6.304  26.551 -0.1028  0.1219  0.2491
81144W        W24197  25.341  26.274  16.971 -0.3853 -0.1134  0.1014
81145W        W24198  21.598  30.088  27.663  0.1151 -0.1521 -0.0695
81146W        W24199  32.075  33.350  23.528 -0.3824  0.3144  0.2081
81147W        W24200  26.513   0.997  20.736 -0.1298 -0.1140 -0.1358
81148W        W24201  31.327  26.155  23.427  0.2980  0.1714 -0.0355
81149W        W24202  24.824  29.811  21.649 -0.1761  0.0426 -0.1532
81150W        W24203  34.009  26.461  21.526  0.1508 -0.2646  0.1603
81151W        W24204   2.882   1.950  24.513 -0.0260 -0.1894 -0.0165
81152W        W24205   2.281  25.113  23.978  0.1204  0.2603  0.2179
81153W        W24206  15.248  27.756  17.068  0.1514 -0.1756  0.1306
81154W        W24207  17.946  28.104  21.410  0.0337  0.4652  0.0545
81155W        W24208  14.295  23.418   0.870 -0.1577  0.0846  0.1487
81156W        W24209  12.831   6.742  26.245  0.1661 -0.1744  0.2749
81157W        W24210   6.668  19.384  28.522 -0.0161 -0.2128 -0.1034
81158W        W24211  18.671   2.969  23.876 -0.1999 -0.1317 -0.0137
81159W        W24212  19.705   3.240   0.433 -0.0414 -0.3532  0.0034
81160W        W24213   6.285   3.249  19.544 -0.1395  0.1756  0.1110
81161W        W24214  12.988   8.700  22.839  0.2428 -0.3031  0.0356
81162W        W24215  18.997  22.968  24.614  0.0304 -0.1502  0.2200
81163W        W24216  17.157   8.423  28.051  0.1793  0.0580 -0.0423
81164W        W24217   3.997  23.497  16.616  0.0391  0.0005  0.2620
81165W        W24218  11.160  29.593  23.021 -0.0779  0.0294 -0.1631
81166W        W24219  16.714  29.765   8.151  0.0658 -0.1562  0.1719
81167W        W24220  11.034   3.475  17.346 -0.0915  0.2063 -0.0117
81168W        W24221  31.537   0.698  26.950  0.0726 -0.1843  0.0377
81169W        W24222  12.989  26.975  26.866 -0.2861  0.0211 -0.1318
81170W        W24223  15.274   4.845   0.293 -0.0947 -0.1038 -0.3114
81171W        W24224   9.397  23.501   6.519  0.1978  0.0634  0.0027
81172W        W24225  16.688  34.553  22.636  0.1392 -0.3523 -0.1820
81173W        W24226  15.791  27.859  23.836  0.3072  0.1255 -0.0866
81174W        W24227  33.928   5.030  23.100 -0.1313 -0.3004 -0.1283
81175W        W24228  13.334  10.732   0.778  0.3041 -0.3832 -0.0590
81176W        W24229  17.748  34.397   2.413 -0.2955 -0.0925  0.2132
81177W        W24230  16.323  22.442  15.728  0.0683 -0.1727  0.0623
81178W        W24231  21.476  10.517   2.901  0.4003 -0.2328  0.1694
81179W        W24232   6.386  27.517  18.670  0.1318  0.1083  0.0826
81180W        W24233  14.255  26.739  19.417 -0.4205 -0.1310 -0.0423
81181W        W24234  14.771  21.932  17.661  0.3177  0.2829  0.0791
81182W        W24235  10.580   9.958  20.957  0.0266 -0.3257 -0.2582
81183W        W24236   2.075   1.545  27.665  0.0010 -0.2169 -0.0740
81184W        W24237  18.335  33.609  17.122  0.2142 -0.2517 -0.1330
81185W        W24238  18.909  27.669   2.686  0.2238 -0.2805  0.0287
81186W        W24239  11.042  28.790  21.464 -0.1292  0.0617  0.2213
81187W        W24240   5.262  28.893  25.657 -0.1267 -0.1082  0.2004
81188W        W24241  33.490   0.487  25.319 -0.0932 -0.0326  0.2900
81189W        W24242  32.549  22.157  17.194  0.0756 -0.0080  0.1164
81190W        W24243  12.650  10.193  20.870 -0.1327  0.1638 -0.3361
81191W        W24244  12.676  29.774   7.871 -0.0302 -0.0907 -0.1365
81192W        W24245  32.278  31.958   2.473  0.2979  0.1398  0.3521
81193W        W24246  16.304   1.381  29.034 -0.0512 -0.1602 -0.2372
81194W        W24247  25.880  33.777  18.812 -0.0986 -0.1585  0.1310
81195W        W24248  25.374   9.690  17.105  0.0372 -0.1810  0.0494
81196W        W24249  24.008   3.401  19.285  0.1659 -0.1924  0.2693
81197W        W24250   8.003  23.276  18.411  0.2119  0.0656  0.0520
81198W        W24251  19.042   9.477  21.140 -0.0703 -0.2331 -0.0820
81199W        W24252  22.012   1.162  21.080 -0.0811 -0.0814  0.1924
81200W        W24253  21.915  33.153  26.815 -0.1743  0.0327 -0.1084
81201W        W24254  31.192  27.737  25.695 -0.0583  0.0091 -0.4095
81202W        W24255  16.130  23.647  19.763 -0.0029 -0.2959 -0.0088
81203W        W24256  16.890  22.700  26.281  0.0309 -0.2180  0.2100
81204W        W24257  18.081   5.270  16.692 -0.2257  0.3775 -0.0521
81205W        W24258  23.053   8.943  21.643 -0.2136 -0.4174  0.1039
81206W        W24259   2.173  17.018  18.779  0.0013 -0.0109  0.5826
81207W        W24260  19.033  29.349  26.524  0.1896 -0.2121 -0.3859
81208W        W24261  24.811  15.949  15.601  0.0719 -0.2238 -0.0839
81209W        W24262  14.717  28.209   4.556  0.2887  0.1422 -0.2223
81210W        W24263  25.293  20.426  23.560 -0.4709  0.0751  0.0102
81211W        W24264  21.086  30.222  23.675 -0.1836 -0.0056  0.0626
81212W        W24265   6.060  27.134  23.769  0.0629  0.3344  0.0966
81213W        W24266  13.264  19.687  16.821  0.0183 -0.1963  0.3222
81214W        W24267  19.838  32.102   0.089  0.1413  0.0381 -0.0089
81215W        W24268  12.907  24.058  10.453 -0.0365  0.1425  0.0599
81216W        W24269  33.374  33.885  24.783  0.2793 -0.1206 -0.0219
81217W        W24270  30.344  21.883  14.292 -0.1882  0.2572 -0.0869
81218W        W24271  28.590  23.164  28.377 -0.3533 -0.0748 -0.1901
81219W        W24272  17.650  34.338   0.132  0.1226 -0.1113 -0.1371
81220W        W24273   7.834  31.521  26.496 -0.2666  0.2524 -0.1375
81221W        W24274  21.663  34.593  21.861 -0.0855  0.1252 -0.0087
81222W        W24275  14.906  13.520  28.799 -0.0053  0.0355 -0.1099
81223W        W24276  12.961  13.300   9.986  0.1415  0.0706 -0.1234
81224W        W24277  31.076   8.781  28.085  0.0424  0.1162 -0.4249
81225W        W24278  34.642  10.831   0.028  0.1405 -0.0100 -0.0581
81226W        W24279  12.798   2.165  20.526  0.0915  0.0004 -0.0269
81227W        W24280   5.947  24.249  17.495  0.1269  0.1859 -0.0202
81228W        W24281  34.631  25.771  16.942  0.0852  0.0071  0.0776
81229W        W24282  17.950   4.712   1.313  0.1414 -0.1952 -0.3572
81230W        W24283  14.149  22.819  23.237  0.4785  0.1657 -0.1214
81231W        W24284  19.856   3.436  21.756 -0.1457 -0.2723  0.0003
81232W        W24285  22.926  31.141  24.717 -0.1201  0.1598 -0.4032
81233W        W24286  17.317  34.411  15.010  0.2916  0.0174 -0.0226
81234W        W24287  18.450  24.745   5.694 -0.4696 -0.1659 -0.0004
81235W        W24288  30.199  29.118  19.744 -0.2731 -0.0850 -0.1462
81236W        W24289  32.200  10.175  29.133  0.1252 -0.0155 -0.2325
81237W        W24290  28.393  34.494  21.763  0.3242 -0.0080 -0.1830
81238W        W24291  19.638  16.121  15.518  0.0455 -0.1016  0.1491
81239W        W24292  17.036   4.341   2.254 -0.0505 -0.0515 -0.1482
81240W        W24293  28.644   7.859  21.966 -0.3972 -0.3366 -0.1297
81241W        W24294   8.179   0.234  25.576 -0.0091 -0.2469  0.0444
81242W        W24295  11.217  33.696  15.447 -0.0203 -0.2698 -0.1279
81243W        W24296  11.580  30.347  21.243 -0.1988  0.2233  0.2105
81244W        W24297  15.775  24.827   5.497 -0.1647  0.0373 -0.0370
81245W        W24298  24.044   0.380   6.634  0.0888 -0.1048 -0.1347
81246W        W24299   5.795  26.492  24.627  0.0118  0.2234  0.2085
81247W        W24300  13.366  29.305   3.548  0.1198 -0.2890 -0.0022
81248W        W24301   3.001  32.077   0.317  0.2588 -0.1707 -0.3353
81249W        W24302  19.709   8.065   7.720 -0.2001  0.2815 -0.0367
81250W        W24303  13.083  10.041  21.766  0.0923 -0.1700  0.1409
81251W        W24304  19.872  25.573   8.340  0.4044 -0.1486  0.0100
81252W        W24305  19.542   1.890  19.525  0.1178 -0.1730  0.2224
81253W        W24306  25.142  11.255  15.328  0.0457 -0.1159  0.1164
81254W        W24307  17.425   9.855   3.654 -0.2924 -0.3308  0.0114
81255W        W24308  27.688  20.876   9.439  0.1744  0.1720 -0.1461
81256W        W24309  27.771   1.060   5.179  0.1067 -0.0899  0.3582
81257W        W24310  19.875  32.481  19.137 -0.1959 -0.0315 -0.1047
81258W        W24311  20.861   6.911  16.761 -0.2546  0.1041 -0.0508
81259W        W24312  31.358  34.327  20.870 -0.1760  0.0070 -0.0181
81260W        W24313  30.466   8.411  16.270 -0.1820 -0.2173 -0.1383
81261W        W24314  17.746  19.705  24.107  0.0581  0.1280 -0.1887
81262W        W24315  20.586  33.688  28.432 -0.1723 -0.0133 -0.2695
81263W        W24316  10.587  19.209   8.817 -0.0005 -0.0838  0.0924
81264W        W24317   2.522  26.691  26.756 -0.1963 -0.1813 -0.0667
81265W        W24318  20.265   5.407  20.750  0.2913 -0.0689  0.0513
81266W        W24319  10.143   2.990   2.553  0.0068  0.2652  0.0405
81267W        W24320  32.423  21.247   3.079 -0.0419  0.0850  0.2361
81268W        W24321  22.805  27.741  14.584  0.3751  0.3615  0.0010
81269W        W24322   8.808   1.835   3.359  0.0175  0.2137 -0.2131
81270W        W24323  27.930  31.300  20.478  0.2185  0.1345 -0.0455
81271W        W24324  19.063  25.008  18.115 -0.0209  0.3946  0.0021
81272W        W24325  21.168   2.059  15.480  0.1352  0.0669 -0.1453
81273W        W24326  17.855  26.737  17.050  0.0753  0.0512  0.0637
81274W        W24327  16.668  25.789  28.636  0.2115  0.0884 -0.4838
81275W        W24328  23.575  28.087   1.657 -0.2733  0.0002  0.2706
81276W        W24329  19.617  28.549   0.152  0.0973  0.0530 -0.1001
81277W        W24330  15.766  34.126  27.804 -0.1350  0.0073 -0.1000
81278W        W24331  18.662  21.703  23.429 -0.0082 -0.3100  0.1554
81279W        W24332  11.054  11.005  21.092 -0.3774  0.0493  0.2286
81280W        W24333   2.562  26.363  14.606  0.0472 -0.2384 -0.1004
81281W        W24334  29.414  30.656  16.491 -0.0227  0.0456  0.0565
81282W        W24335  13.908   4.437   1.570 -0.1850 -0.2067  0.1467
81283W        W24336  15.264   1.563  21.164  0.0102 -0.2820 -0.0810
81284W        W24337  33.569  20.495  14.682 -0.1328  0.1887 -0.0942
81285W        W24338  14.495  15.781  26.517  0.2881 -0.0580  0.0064
81286W        W24339   2.916  21.360  18.918 -0.0414 -0.2471  0.0792
81287W        W24340   6.355  32.100  13.687  0.2881 -0.1375 -0.0268
81288W        W24341  12.018  29.590   6.151  0.0077  0.0520 -0.1012
81289W        W24342  13.215  24.733   4.386 -0.2509  0.2879 -0.3682
81290W        W24343  19.163  14.762  29.153 -0.0482 -0.3582 -0.1262
81291W        W24344   5.900  18.405   5.441  0.3065 -0.1376  0.0350
81292W        W24345  16.816  34.368   4.640 -0.1902  0.0964 -0.0547
81293W        W24346  32.314  18.597  16.544  0.0773 -0.1324 -0.0804
81294W        W24347  33.296   8.505  16.205  0.1007 -0.0384 -0.2207
81295W        W24348  21.126  14.691   8.911 -0.0953 -0.1710  0.3581
81296W        W24349  34.018   3.192  16.805  0.0611  0.0868  0.4192
81297W        W24350  20.421   0.039  15.674 -0.0154  0.3996 -0.1249
81298W        W24351  23.488  28.613  20.880 -0.3735  0.0108 -0.1391
81299W        W24352   3.885  33.264  14.138  0.2871 -0.0075  0.1105
81300W        W24353   1.606  17.299   6.684 -0.0761  0.0641 -0.0254
81301W        W24354  22.208   0.252  25.825  0.4453 -0.0394 -0.2073
81302W        W24355   5.915  17.309  23.122  0.1236 -0.4738 -0.2662
81303W        W24356   4.928  23.659   0.540  0.0526 -0.2539 -0.0585
81304W        W24357  26.105  33.227  24.919 -0.3581 -0.1156  0.1183
81305W        W24358   4.239  30.664   2.858  0.0334 -0.0451  0.1320
81306W        W24359   9.645   2.244   8.337 -0.0717  0.0310 -0.0797
81307W        W24360  30.473  19.548   1.321 -0.0557  0.2384  0.1400
81308W        W24361  24.239  28.364  18.875  0.1324  0.1667  0.1260
81309W        W24362   5.629   3.201   0.927  0.2041 -0.1199 -0.1257
81310W        W24363  19.943  32.606  17.961 -0.0656 -0.3322 -0.0965
81311W        W24364   7.857   6.310  20.185  0.2681 -0.3109  0.4983
81312W        W24365  31.718  18.241   4.781  0.0091 -0.0208 -0.2563
81313W        W24366   7.354  30.559  25.229 -0.3729  0.2443  0.1980
81314W        W24367  32.039   9.758   1.832 -0.0071 -0.1651 -0.0154
81315W        W24368  10.595  23.607   6.492  0.1807  0.1058 -0.0529
81316W        W24369  23.036   2.150  26.740 -0.0750 -0.1790 -0.2656
81317W        W24370  21.652  27.589  27.033 -0.1862  0.2782  0.1239
81318W        W24371  22.697  20.376  16.508  0.1306  0.0326  0.1511
81319W        W24372  12.432  27.817  19.211 -0.1619 -0.1325 -0.1577
81320W        W24373  31.892   0.607  25.656  0.2805 -0.0732 -0.0342
81321W        W24374  30.412  27.276  21.803 -0.1519  0.1376  0.3392
81322W        W24375  31.160   7.860  25.437 -0.2175  0.0210 -0.0899
81323W        W24376  24.522  25.047  15.597 -0.4435 -0.3089 -0.1119
81324W        W24377  20.167   6.169  16.185 -0.0051  0.1249 -0.1535
81325W        W24378  20.080  26.218  16.032 -0.2204  0.0107  0.0754
81326W        W24379  26.447  17.336   5.983 -0.1749  0.3253 -0.1826
81327W        W24380  28.538  22.331  18.994  0.0764  0.2057  0.1249
81328W        W24381  14.969  31.336  16.212 -0.3904 -0.2455  0.2261
81329W        W24382  21.607  29.454  23.625 -0.1065 -0.0384 -0.3145
81330W        W24383  25.104  15.301  26.424 -0.0686  0.3287 -0.0015
81331W        W24384   0.604  31.083  19.682 -0.0004 -0.1362 -0.0740
81332W        W24385  20.208   1.142  25.746  0.0693  0.0825  0.0587
81333W        W24386  23.270  34.445  19.244 -0.0658 -0.3206  0.2111
81334W        W24387  14.622  24.883  26.774  0.1877  0.0754  0.0785
81335W        W24388  12.267  29.627  23.568  0.0372 -0.2026 -0.3233
81336W        W24389  22.275   3.227  24.390  0.2253  0.2520  0.1787
81337W        W24390  27.413  26.140   7.079  0.0811 -0.0098  0.2083
81338W        W24391  11.623  16.375  17.126  0.1787  0.2228 -0.0566
81339W        W24392  21.046  27.968  14.828 -0.1577 -0.0730 -0.1928
81340W        W24393  19.009   7.032  25.286 -0.1197 -0.2360 -0.0939
81341W        W24394  32.969   5.785  22.658 -0.2774  0.0591 -0.2198
81342W        W24395  15.029  32.899  25.555  0.1649 -0.1308  0.0142
81343W        W24396   8.773   6.333  19.812  0.0119 -0.0272  0.2104
81344W        W24397   8.721  30.765  27.542  0.0027 -0.0897 -0.3529
81345W        W24398  24.622  15.317  16.635  0.0795 -0.0464  0.1402
81346W        W24399  14.238  21.965   9.294  0.1028 -0.3766  0.0677
81347W        W24400  20.659  29.543  24.797 -0.0087 -0.3795 -0.0666
81348W        W24401  32.297  22.460  26.845 -0.0869  0.1837 -0.0897
81349W        W24402   8.150  23.265  27.617  0.1872 -0.4512 -0.1887
81350W        W24403  13.493   5.739  24.832  0.0749 -0.1525 -0.2658
81351W        W24404  13.341  16.461  17.468  0.0822 -0.3218  0.0219
81352W        W24405  22.366  18.807  22.445  0.1811  0.2613 -0.1884
81353W        W24406   4.106  27.613  25.383 -0.0364  0.1499  0.1753
81354W        W24407  25.050  21.094  13.839 -0.1446  0.1947  0.1390
81355W        W24408  18.302   4.968  27.346  0.0574 -0.3158  0.1515
81356W        W24409  33.961  26.352  27.398 -0.0398 -0.1071 -0.1115
81357W        W24410  29.634  25.408  22.861  0.3666  0.0514 -0.2323
81358W        W24411  30.970  31.695  19.634 -0.0610  0.2074 -0.1931
81359W        W24412   8.206   1.972  16.071 -0.0143  0.2808  0.0505
81360W        W24413   6.152  29.030  26.890 -0.1363 -0.0518 -0.2313
81361W        W24414   5.900  15.456   2.434 -0.2154 -0.1755 -0.0545
81362W        W24415  14.575  32.836   6.152 -0.3445 -0.0876  0.0408
81363W        W24416  19.781  12.788  27.218 -0.0781 -0.4964  0.0605
81364W        W24417  15.408   2.645  16.470  0.3030  0.2568 -0.5373
81365W        W24418  24.688  33.010   5.721 -0.0965 -0.0437  0.0941
81366W        W24419  34.344  25.600  25.255  0.0949 -0.0501  0.0385
81367W        W24420  23.623  30.968  28.281  0.2819 -0.1915  0.2340
81368W        W24421   7.141  20.334  25.333 -0.0553 -0.1560 -0.1225
81369W        W24422  14.103  30.672  27.421  0.1311 -0.1554  0.0756
81370W        W24423  19.701   0.155   6.077 -0.1090  0.3295  0.0525
81371W        W24424   7.131  32.077   0.904 -0.2454 -0.1966  0.0265
81372W        W24425  21.704   7.620  19.225 -0.0305 -0.0437 -0.0120
81373W        W24426  22.338  18.202  23.864  0.0106 -0.2170 -0.3305
81374W        W24427  16.202  29.406  22.878  0.4039  0.0900 -0.2755
81375W        W24428  25.740  17.858  18.979  0.1764 -0.0618  0.0973
81376W        W24429  18.573  28.717  25.376  0.0285 -0.4537 -0.1409
81377W        W24430  14.550  33.238  17.385  0.0562 -0.1620 -0.2241
81378W        W24431  11.309   6.038  25.303  0.1149 -0.0835  0.0428
81379W        W24432  14.674  12.679  26.106 -0.0466  0.0774 -0.2210
81380W        W24433   3.447  28.165  27.636  0.0550 -0.3985  0.0274
81381W        W24434   3.841   3.755  14.549 -0.0403  0.1704 -0.1446
81382W        W24435   3.908   2.042   1.413 -0.1837  0.0850 -0.2926
81383W        W24436  29.419  28.810  26.393  0.1226 -0.0906 -0.0505
81384W        W24437  11.248  18.234  14.290 -0.2592  0.3073 -0.3106
81385W        W24438   7.067  25.364  20.622  0.1807 -0.0231  0.1506
81386W        W24439  16.647  29.940  24.949 -0.1081 -0.3833  0.0802
81387W        W24440   7.836  11.614  24.273  0.1236  0.0104  0.1523
81388W        W24441  12.671   0.895  26.313 -0.1163 -0.0184  0.0174
81389W        W24442  15.360  22.937   6.095 -0.0248 -0.1674  0.1540
81390W        W24443  14.998  31.366   4.629  0.3489  0.1284  0.0105
81391W        W24444  10.817  24.500  20.438  0.1397  0.2455  0.0284
81392W        W24445  10.574  19.339  18.406 -0.0527  0.1505  0.0683
81393W        W24446  12.281   1.355   5.229 -0.2564 -0.2216 -0.0016
81394W        W24447  30.478   2.876  25.340  0.1851 -0.0334  0.2556
81395W        W24448  18.541  32.531  24.082 -0.3017  0.0388 -0.0292
81396W        W24449   9.941  17.907  21.874  0.1648 -0.0969 -0.2392
81397W        W24450   6.073  20.352  19.122 -0.2807  0.1098  0.2426
81398W        W24451  15.525  27.502  27.015 -0.0313  0.1486 -0.0336
81399W        W24452  19.670  28.414  24.702 -0.3152 -0.3379  0.2402
81400W        W24453  15.317  27.375   3.195  0.0821 -0.2217  0.5858
81401W        W24454  24.225   1.639  20.063 -0.1053  0.0416  0.2666
81402W        W24455  21.084   0.798  17.397  0.3214  0.2302  0.3077
81403W        W24456  29.729  12.515  27.792 -0.0102 -0.0326  0.2140
81404W        W24457  24.060  28.676  28.213  0.0809 -0.2352  0.1244
81405W        W24458   9.737  33.602   5.332 -0.0152 -0.0831 -0.0444
81406W        W24459   4.818  32.319  17.959  0.3587 -0.0516 -0.1454
81407W        W24460  27.747   2.519  16.407  0.0636 -0.0687  0.0749
81408W        W24461  13.906  34.375   8.138 -0.0692 -0.2934 -0.1901
81409W        W24462  17.540  31.737  15.503 -0.0060  0.1081 -0.3183
81410W        W24463  30.448   5.198  22.682  0.2789 -0.1260  0.0202
81411W        W24464  13.061  29.500  25.549 -0.0286 -0.0727  0.2405
81412W        W24465  25.680  17.177  22.960 -0.2480 -0.2406  0.1787
81413W        W24466  29.890   5.743   7.353  0.1020 -0.1602 -0.4262
81414W        W24467  10.028  28.478  19.463  0.4261  0.3069 -0.1993
81415W        W24468  24.518  33.008   7.747 -0.1786  0.0282  0.3395
81416W        W24469  19.350  26.595  22.372  0.0108 -0.3166 -0.3568
81417W        W24470  23.583  19.335  25.249 -0.1891 -0.0339 -0.0368
81418W        W24471  16.951  28.619  18.731 -0.3681  0.0530  0.2238
81419W        W24472  13.915   1.919  19.253 -0.1285 -0.2171  0.0243
81420W        W24473  22.867  34.659   8.903  0.0777 -0.1825 -0.1437
81421W        W24474  32.017   7.473  25.827 -0.0473 -0.0122 -0.0224
81422W        W24475  17.420  20.575  15.664 -0.1529  0.1799 -0.3335
81423W        W24476   5.898  22.774  18.798  0.1023 -0.0886  0.1624
81424W        W24477  12.998  32.830   1.086 -0.2519 -0.2582 -0.0064
81425W        W24478  21.469  24.956  26.124  0.1634  0.2132  0.0255
81426W        W24479  30.649  33.824  14.430  0.1909 -0.0083  0.1909
81427W        W24480   2.345  22.763   6.693 -0.1615  0.2576  0.3621
81428W        W24481   2.442  28.891  21.403 -0.1503 -0.0152  0.0443
81429W        W24482   5.685   4.303  16.808  0.1489 -0.1677  0.0840
81430W        W24483  19.026   0.514  20.484  0.1587 -0.1487 -0.0300
81431W        W24484   8.928   3.793   4.718 -0.2368 -0.0698 -0.1092
81432W        W24485  21.614  29.796   4.296  0.1122  0.1177  0.0032
81433W        W24486   7.902  29.558  17.927  0.3002  0.1374 -0.1365
81434W        W24487   0.130  29.376  14.575 -0.1083 -0.0212  0.0903
81435W        W24488   1.266  22.551  15.539  0.3400  0.3081  0.1549
81436W        W24489  22.329  26.951  24.786  0.3394  0.0533  0.0619
81437W        W24490  22.763   1.104  26.467  0.2244 -0.1581 -0.0217
81438W        W24491  24.786  18.858  17.153  0.0019  0.1505 -0.3369
81439W        W24492  20.886  23.563   1.726  0.0846  0.1295  0.1251
81440W        W24493  25.815   8.443  16.182  0.2416  0.1809  0.2930
81441W        W24494  18.951  31.258  16.473  0.0066  0.3144 -0.1219
81442W        W24495  22.222   2.696  18.893  0.0296  0.0210  0.0705
81443W        W24496  19.147  24.183  10.160 -0.1213  0.0935  0.0056
81444W        W24497  15.162  33.716   2.977  0.3135 -0.2189 -0.1187
81445W        W24498  28.375  26.994   0.959  0.1710 -0.1549  0.0554
81446W        W24499  12.969  29.693  21.217  0.2173 -0.1914 -0.1464
81447W        W24500  17.715   1.428   6.615  0.3011 -0.1075  0.2625
81448W        W24501  27.969  10.792  18.810 -0.3290  0.0260 -0.0559
81449W        W24502   8.014  26.427   2.476  0.0981 -0.0471 -0.1247
81450W        W24503  21.766   8.616   6.603 -0.2073 -0.0082 -0.1439
81451W        W24504  25.019  28.898   8.350 -0.1243 -0.1160 -0.0652
81452W        W24505  29.794   6.323   0.312  0.1255 -0.2023  0.1227
81453W        W24506  12.239   3.453  29.049 -0.1698  0.0940 -0.0736
81454W        W24507  14.285  28.912   3.072 -0.3408  0.0749 -0.1086
81455W        W24508  11.009   2.901   3.234 -0.0495 -0.3068  0.1844
81456W        W24509  22.528  18.518   0.193 -0.0787 -0.0164 -0.0036
81457W        W24510  11.956  32.218  24.570 -0.1654  0.0357  0.2506
81458W        W24511   6.617   3.755   2.230 -0.4340  0.1754 -0.0016
81459W        W24512  21.355  10.209  26.350  0.3819 -0.1102 -0.2889
81460W        W24513  19.923  33.464  19.559  0.0108 -0.3238 -0.1301
81461W        W24514  21.070  22.441  22.709 -0.1163 -0.1164  0.3968
81462W        W24515  18.637  33.067   1.333  0.0704  0.2177  0.1207
81463W        W24516  12.224  25.335  19.179 -0.1889 -0.0204  0.0589
81464W        W24517  24.363  10.885   0.574  0.0618 -0.1613  0.1509
81465W        W24518  26.434   4.168   3.757 -0.0007 -0.0037  0.4272
81466W        W24519   2.877   5.271  25.885  0.1565  0.1424  0.0368
81467W        W24520  34.184   2.671   2.591 -0.1812 -0.1737 -0.0271
81468W        W24521  26.759  24.791  24.943  0.1198  0.1416 -0.1002
81469W        W24522  18.362   8.201   9.641 -0.1115  0.3002  0.2259
81470W        W24523  22.164   4.053  27.482  0.2799  0.0469 -0.0089
81471W        W24524   3.457   3.292   5.675 -0.0361  0.3170 -0.2490
81472W        W24525   9.822  17.639  16.949 -0.3200 -0.0549  0.2400
81473W        W24526   9.240   3.665   1.918 -0.1263 -0.0446  0.0702
81474W        W24527  20.479  25.212   4.568 -0.1334  0.2351 -0.1102
81475W        W24528  21.127  12.160  27.087  0.2180 -0.0760  0.0386
81476W        W24529  20.847   1.858   8.541  0.1033  0.2980  0.1220
81477W        W24530  20.011  25.170  21.061 -0.4791 -0.0358 -0.1961
81478W        W24531  14.624  22.299   0.014  0.1560 -0.0299  0.1968
81479W        W24532  19.004  29.717  25.532 -0.0642  0.0315 -0.0272
81480W        W24533  15.897   2.301  18.157  0.1270  0.0475  0.0986
81481W        W24534  15.274  21.283   3.661 -0.0219 -0.1323  0.0869
81482W        W24535   4.383  24.756  22.640  0.2408 -0.1900  0.2765
81483W        W24536  18.656   0.756  22.464  0.0965  0.1707  0.4812
81484W        W24537   7.225  27.978  22.210  0.3575 -0.1173 -0.4197
81485W        W24538  28.350  28.166  28.533  0.0921 -0.0966 -0.1735
81486W        W24539  12.416  19.368  23.861  0.3367  0.3457  0.1153
81487W        W24540  13.748  23.564  27.785  0.1190 -0.1251 -0.0149
81488W        W24541  15.900  34.059  22.737 -0.1155 -0.5418 -0.1100
81489W        W24542   9.183  32.983   6.237  0.0546  0.0837  0.0020
81490W        W24543  18.995   4.962  27.525  0.2353 -0.1839 -0.0479
81491W        W24544   2.911  20.620   2.338  0.3715 -0.0970 -0.2148
81492W        W24545  15.332   1.219  19.778  0.1480  0.1250  0.3935
81493W        W24546   1.202   7.612   9.299  0.0800  0.2193  0.0744
81494W        W24547  33.457   3.678  14.921 -0.0818 -0.1931  0.3021
81495W        W24548  15.292  34.497   2.605 -0.1342 -0.2504 -0.3725
81496W        W24549  32.589  30.161   5.382 -0.2592  0.0954  0.0732
81497W        W24550  15.288   5.669  20.084 -0.0736 -0.0936  0.2684
81498W        W24551  14.824  19.055   2.871  0.0048  0.0066  0.3072
81499W        W24552  15.591  32.077  14.873 -0.1733  0.1500  0.3318
81500W        W24553  18.305  33.796  20.919 -0.1257  0.2050  0.3830
81501W        W24554   4.049   3.518   2.663  0.0610 -0.2496  0.2185
81502W        W24555  30.744  22.870  17.845  0.1651 -0.1143 -0.1475
81503W        W24556  22.231  26.925  14.746  0.1283 -0.0756  0.0139
81504W        W24557  22.355  29.170  18.249  0.0491  0.0905 -0.0055
81505W        W24558   3.615   5.003  23.452  0.1012 -0.3264  0.1970
81506W        W24559  12.169  10.041   9.872 -0.0804  0.1136 -0.5059
81507W        W24560  11.243  21.013  22.685 -0.1528 -0.0702  0.1709
81508W        W24561  14.951  23.308   1.509  0.1813  0.2091 -0.0490
81509W        W24562  26.935   1.923   1.308  0.3025 -0.2108  0.1632
81510W        W24563  11.134  24.657  19.518 -0.2035 -0.1561  0.0624
81511W        W24564  20.998   2.876  17.682 -0.1638 -0.0962  0.0145
81512W        W24565  15.864  24.682   1.784  0.1154  0.3012 -0.1735
81513W        W24566   2.848  13.534  16.508 -0.1928  0.0951 -0.2582
81514W        W24567  28.869   9.264   3.091 -0.0595 -0.0830 -0.1811
81515W        W24568  34.560  29.391   1.062 -0.1680 -0.0654 -0.1359
81516W        W24569  13.614  29.163  20.298  0.2440 -0.1591  0.2112
81517W        W24570  26.561  25.174   4.713 -0.0547 -0.1365 -0.1853
81518W        W24571  19.800  20.635  25.907 -0.2217 -0.1133  0.1083
81519W        W24572  29.863  29.871  17.889 -0.0671  0.1700 -0.2302
81520W        W24573  23.409  12.752  20.014 -0.2695 -0.0081  0.1677
81521W        W24574  15.758  32.223  24.241  0.1725  0.1958  0.1042
81522W        W24575   1.424  16.647   8.700  0.3259 -0.1551 -0.1897
81523W        W24576   3.504  27.552  17.787 -0.2397  0.0922  0.1439
81524W        W24577  24.955  16.106  26.351 -0.0113 -0.0922 -0.1960
81525W        W24578  25.242  30.250  21.618 -0.0497  0.1561  0.0198
81526W        W24579  17.068  27.923   8.286 -0.1117  0.1331  0.1796
81527W        W24580  34.075  22.089  22.543 -0.2338 -0.1208  0.0844
81528W        W24581  12.587   6.425  20.042  0.0494 -0.0918  0.1284
81529W        W24582  15.932  29.243   8.668  0.1694 -0.1741  0.0746
81530W        W24583  18.056  25.065  21.260  0.1335  0.0189 -0.0279
81531W        W24584  16.927  22.739   0.267 -0.1041  0.1854  0.0471
81532W        W24585  21.310  24.742  22.578  0.0870 -0.0515  0.3838
81533W        W24586   4.486  29.531   8.989 -0.0504 -0.3826  0.0969
81534W        W24587  10.092  27.391  14.429 -0.1384 -0.0015  0.0627
81535W        W24588  10.117  30.674   1.665 -0.0882 -0.0622 -0.0486
81536W        W24589  17.922   1.745  15.701  0.0402 -0.1309 -0.0862
81537W        W24590   7.854  28.775   1.286 -0.0526 -0.0334  0.0164
81538W        W24591   9.726  20.949   2.235  0.2182  0.0784  0.3029
81539W        W24592   7.661   6.160   4.119 -0.0722 -0.2338 -0.0546
81540W        W24593  27.726  28.302  17.315 -0.2172 -0.0265  0.1441
81541W        W24594  18.018  24.608   0.460 -0.0695  0.2510 -0.0298
81542W        W24595   3.209   9.970  24.951  0.3612  0.1496 -0.0547
81543W        W24596  26.230  19.370  10.139 -0.0109  0.0532  0.1075
81544W        W24597  16.576   7.414   7.152 -0.0626  0.1649  0.3611
81545W        W24598  20.873  10.637  22.717 -0.1125  0.0547 -0.1847
81546W        W24599  25.730  32.935  22.289 -0.0414  0.0796  0.1229
81547W        W24600  14.171   6.666  24.953  0.0902  0.1167 -0.0123
81548W        W24601  25.003  32.070   0.222 -0.2386 -0.1125 -0.0858
81549W        W24602  20.666  15.514   6.199  0.3410  0.0172 -0.2642
81550W        W24603  21.802  25.471  27.436  0.0739 -0.1524  0.1356
81551W        W24604  19.577  13.599  21.593 -0.1060 -0.2709 -0.0680
81552W        W24605   7.616  28.377   7.107 -0.0724  0.1692 -0.0612
81553W        W24606   8.590   6.115   9.613 -0.1254 -0.0992  0.0156
81554W        W24607  22.712  30.055   4.704 -0.1279 -0.3571  0.1954
81555W        W24608  32.942   1.746  23.744 -0.2163  0.1147  0.0861
81556W        W24609  22.450  28.945   2.768  0.2317 -0.0737 -0.0929
81557W        W24610   4.858  33.664  19.944 -0.0337 -0.1213 -0.0429
81558W        W24611  28.507  11.670  26.647  0.3594  0.5106  0.0441
81559W        W24612  13.238   5.345   9.850 -0.0539  0.1018  0.3317
81560W        W24613  13.437  19.277  23.654  0.0371  0.0246 -0.5831
81561W        W24614  15.562   9.970  18.528  0.5029  0.0692 -0.0372
81562W        W24615  13.015  25.410  20.193  0.0384 -0.2327 -0.2234
81563W        W24616   7.507  31.462  24.976 -0.0423 -0.0863 -0.0069
81564W        W24617  13.111   4.139   0.723  0.1567 -0.1476 -0.1189
81565W        W24618  21.676   6.480  21.827 -0.1529  0.1018 -0.5093
81566W        W24619   0.187   3.557   1.521 -0.0231  0.0040 -0.1652
81567W        W24620  34.226  26.779  19.107 -0.1055 -0.0915  0.2743
81568W        W24621   5.367  25.935   5.225 -0.0926 -0.0246  0.2880
81569W        W24622   8.181  21.229   3.498 -0.0831  0.0777  0.0553
81570W        W24623  14.129  29.552   7.225  0.4112  0.0369  0.1362
81571W        W24624   6.845  13.421  18.504  0.0124  0.0686  0.0946
81572W        W24625  17.579  32.733   7.243  0.1328  0.0948  0.0590
81573W        W24626  17.842  30.640  10.188 -0.1062  0.0071 -0.0126
81574W        W24627  13.567  26.478  22.213  0.0116 -0.1933  0.0954
81575W        W24628  11.383  23.531  28.671  0.0540 -0.1135  0.0577
81576W        W24629  13.269   1.432  17.868  0.1104  0.1059  0.0292
81577W        W24630  33.866   4.585   0.883 -0.0878 -0.0009  0.1568
81578W        W24631   4.535   3.597  24.946 -0.0176  0.0868 -0.0170
81579W        W24632  24.474  24.445   7.535  0.2248 -0.0217  0.2395
81580W        W24633  29.785   3.804  18.270  0.1980  0.0856 -0.1872
81581W        W24634  16.507   4.330  20.293 -0.0774 -0.1215 -0.2598
81582W        W24635   7.440  33.466  21.287  0.0225  0.2501 -0.0791
81583W        W24636   2.633  25.545   4.908  0.1170 -0.1641 -0.1483
81584W        W24637  16.824  30.386   5.032  0.3396 -0.3195  0.4586
81585W        W24638   4.777   6.910  21.737 -0.0023  0.0847 -0.2055
81586W        W24639   8.084   4.892  24.885 -0.1370  0.1138  0.0714
81587W        W24640   2.432   8.665  13.963 -0.1314  0.0003  0.2420
81588W        W24641   4.280  16.928  23.943 -0.0935 -0.0440  0.2412
81589W        W24642  12.220   2.373   0.240 -0.3114 -0.0719  0.1557
81590W        W24643  22.966   2.348  18.413 -0.0833 -0.5408 -0.1596
81591W        W24644  22.317  28.432  18.468 -0.1555 -0.2762 -0.2040
81592W        W24645  15.781  30.889   7.906  0.1724 -0.0173  0.1909
81593W        W24646  15.727  31.294  20.293 -0.1021  0.0860  0.1589
81594W        W24647  22.039  30.049  24.803 -0.0787  0.1423 -0.1527
81595W        W24648  22.214   0.091   4.038  0.0447 -0.0209 -0.1920
81596W        W24649   3.271  24.939  20.936 -0.0862  0.2095 -0.3359
81597W        W24650   5.278   3.080  13.726 -0.0216  0.0203 -0.0841
81598W        W24651  27.621  18.015  15.855 -0.0044  0.0413  0.0475
81599W        W24652   8.496  29.308  16.759  0.0550 -0.3709 -0.1145
81600W        W24653  26.107  20.646   5.692  0.2018 -0.0167 -0.1754
81601W        W24654  25.408  28.082   2.303  0.0301 -0.0799 -0.1021
81602W        W24655   6.541   5.324  28.217 -0.0030 -0.0343  0.0217
81603W        W24656  18.383  23.271  22.080  0.1040  0.2651  0.1136
81604W        W24657  13.197  24.466  13.450  0.0054  0.1073  0.2647
81605W        W24658  16.904  17.333   1.456 -0.0291 -0.3632  0.2880
81606W        W24659  31.025   2.049  25.379 -0.1135 -0.5808 -0.3874
81607W        W24660  20.309  27.877  26.839  0.1698 -0.0686  0.1327
81608W        W24661  19.374  16.370   8.776 -0.0052 -0.2362  0.0665
81609W        W24662  22.560   7.080   9.059  0.3066 -0.1007  0.0230
81610W        W24663  17.389  13.250  24.435  0.0302 -0.0419 -0.1303
81611W        W24664   5.003  18.871  26.791  0.0689  0.1799  0.0482
81612W        W24665   7.755  26.339  28.446 -0.1609 -0.3661 -0.0400
81613W        W24666  17.721  27.071   7.852 -0.0052  0.3038 -0.0412
81614W        W24667  12.157   0.186  16.109  0.1118  0.0909 -0.0464
81615W        W24668   6.364   2.007  28.375 -0.0369 -0.0222 -0.0753
81616W        W24669  17.200   2.013  10.215 -0.2575  0.0720 -0.0015
81617W        W24670   0.695  18.804  21.434  0.2132 -0.1095  0.2251
81618W        W24671  29.929  26.021  25.657  0.1155 -0.0859  0.2948
81619W        W24672  21.284  34.357   4.057 -0.2576 -0.0308  0.0999
81620W        W24673  27.219  29.261  28.006 -0.0447 -0.1354 -0.2361
81621W        W24674  12.897  18.287  23.591  0.0879 -0.0537  0.1888
81622W        W24675  20.523  11.527   0.014 -0.1825 -0.0922  0.1481
81623W        W24676   3.525  13.917  26.647  0.3019 -0.1388 -0.0383
81624W        W24677  34.527  30.631  21.349 -0.2150  0.0250 -0.0999
81625W        W24678  12.701   4.335  18.624 -0.0240 -0.1455 -0.2177
81626W        W24679  23.640  33.752  17.081 -0.1490 -0.3092 -0.1127
81627W        W24680  20.321  32.709   5.943  0.0985  0.1266  0.2488
81628W        W24681   2.196  19.980  28.586 -0.2404 -0.0898 -0.0464
81629W        W24682  16.733   5.645  10.657  0.1505  0.1126  0.2195
81630W        W24683  18.892  28.379  22.739  0.1153 -0.0397  0.0007
81631W        W24684  33.856  24.151  27.857 -0.1692 -0.0208 -0.2549
81632W        W24685  27.803   4.276  16.379  0.4141 -0.0024 -0.2806
81633W        W24686   3.388  22.778   1.136 -0.3336 -0.0948  0.5065
81634W        W24687  25.790  29.697  21.738  0.1279  0.0112  0.2461
81635W        W24688   4.072  24.114  14.714  0.2175  0.0962  0.1374
81636W        W24689  14.173  25.193   0.555  0.3536  0.2016 -0.1707
81637W        W24690  18.822  17.665   9.023  0.3619  0.2273 -0.0088
81638W        W24691   5.414  32.468   7.276 -0.0535 -0.0236 -0.0842
81639W        W24692  13.622   0.324  17.757  0.1080 -0.0766 -0.0206
81640W        W24693  25.696  32.477  23.803  0.1936  0.0707  0.1343
81641W        W24694  24.191  28.223  19.349 -0.2831  0.1276 -0.3332
81642W        W24695   1.299  31.628  15.537 -0.0645  0.0934  0.2459
81643W        W24696   2.644   3.643  23.770 -0.0880  0.1977 -0.1457
81644W        W24697  11.757  31.635  22.969  0.1886 -0.3388 -0.1165
81645W        W24698   0.678   5.933   5.515 -0.0051  0.2624  0.0878
81646W        W24699  16.409  18.643  14.769  0.0801 -0.0229 -0.2275
81647W        W24700  13.273   5.006   6.063 -0.2373  0.0145  0.2454
81648W        W24701  19.259  15.478   4.704  0.0081 -0.0042  0.1255
81649W        W24702  10.548  29.032   0.860  0.1688  0.1122  0.2348
81650W        W24703  24.981  33.442  27.288  0.2203 -0.0983  0.1148
81651W        W24704  18.649  22.110   1.308 -0.2532 -0.1070  0.1889
81652W        W24705  29.954   3.613  16.700 -0.0510  0.3196  0.2567
81653W        W24706  16.875  31.852   0.302  0.2309  0.1664 -0.1851
81654W        W24707   6.749   9.209   2.256  0.0345 -0.2313  0.0379
81655W        W24708  24.827  25.621  23.229 -0.0081 -0.0156  0.1436
81656W        W24709  11.397  28.927   8.628 -0.0314  0.0079  0.1094
81657W        W24710  11.784  25.570  16.505  0.3174 -0.1516  0.0482
81658W        W24711  24.740   5.815  17.826 -0.0826 -0.3388 -0.4189
81659W        W24712   3.617  11.278   6.291  0.4109  0.1787 -0.3024
81660W        W24713  13.451  28.811   9.061 -0.0259  0.2382 -0.0155
81661W        W24714  15.810   2.023  22.300 -0.0932 -0.1718 -0.1688
81662W        W24715  30.512  12.028   5.531 -0.0722  0.1498  0.0112
81663W        W24716   9.556   9.330   4.709 -0.1061 -0.1812  0.0219
81664W        W24717  13.297   0.094  19.127  0.1182 -0.0438  0.2164
81665W        W24718   3.093  18.941  20.897  0.0160  0.2996 -0.0301
81666W        W24719   8.942  26.060   5.235 -0.0303 -0.0273  0.1928
81667W        W24720   4.120  27.084  21.629  0.1224 -0.0511 -0.3526
81668W        W24721   6.367  20.527   3.954  0.1369 -0.2361 -0.2632
81669W        W24722  31.059  21.709  16.617 -0.0696 -0.1404 -0.1111
81670W        W24723  29.456  33.362  21.138 -0.5301  0.1790  0.0215
81671W        W24724   3.850   0.783  22.644 -0.0681 -0.2239 -0.0463
81672W        W24725  32.931  16.502  23.933  0.0842  0.0588 -0.0590
81673W        W24726  13.986   1.163  21.165 -0.3361 -0.1053  0.0753
81674W        W24727  11.463  15.035  17.764  0.0060 -0.2801 -0.1341
81675W        W24728  16.863  30.671  15.995  0.0030 -0.0511 -0.1976
81676W        W24729  21.487  30.872  26.656 -0.0485 -0.0485 -0.2483
81677W        W24730  13.752  24.256   6.035  0.2231  0.2776  0.0634
81678W        W24731  26.527  11.868   0.499  0.2009 -0.1564  0.1198
81679W        W24732  11.648   0.664  23.998 -0.3451  0.2768 -0.1595
81680W        W24733  16.699  19.485  15.487 -0.0476 -0.1333 -0.3385
81681W        W24734  11.453  33.109  26.782  0.2282 -0.2020  0.0117
81682W        W24735   1.526  31.609  26.022 -0.1486  0.0641  0.2377
81683W        W24736  20.788   0.357   6.214  0.2808  0.1391 -0.2254
81684W        W24737   9.411  32.697  28.916 -0.1616  0.0436  0.1009
81685W        W24738  28.518   5.891  24.879  0.2169  0.2222 -0.2638
81686W        W24739  24.308   5.185   9.934 -0.2383  0.1890 -0.0725
81687W        W24740  17.661  19.293  23.836 -0.3637  0.1147  0.0868
81688W        W24741  10.608  26.693   8.030 -0.0181 -0.1402 -0.1021
81689W        W24742   7.219  28.524  22.273 -0.3502  0.0265  0.2515
81690W        W24743  21.898  11.214  28.591 -0.3059  0.2211  0.3261
81691W        W24744  22.798  11.073  17.079 -0.2877  0.2550 -0.1393
81692W        W24745   0.045  10.118  20.084  0.0971  0.1372 -0.1247
81693W        W24746   0.559  22.604  28.450 -0.0352 -0.0033  0.1154
81694W        W24747  32.185   4.360   9.431  0.1067  0.2687  0.4951
81695W        W24748   7.877  23.472   8.808  0.0209 -0.3416  0.1245
81696W        W24749  23.367  34.141  28.879  0.0378  0.0454  0.0046
81697W        W24750  33.802   6.933  28.631 -0.3129  0.0400  0.0415
81698W        W24751  20.613   4.707  16.126  0.0539 -0.0208 -0.4557
81699W        W24752  10.474  23.500  29.105  0.2034 -0.0029 -0.0227
81700W        W24753  23.176  24.444  17.895  0.0720 -0.0554 -0.0349
81701W        W24754   6.044   4.742  27.428 -0.1411  0.0598 -0.2943
81702W        W24755  10.054  22.213  24.544  0.2427 -0.1854 -0.3184
81703W        W24756  21.461  19.755   8.020 -0.4287  0.3635  0.3292
81704W        W24757   9.722  19.792   1.349 -0.2596 -0.2902  0.0994
81705W        W24758  20.085  20.551  16.454  0.0022  0.0428  0.1574
81706W        W24759  13.050  34.358  18.342 -0.1683 -0.0704 -0.1106
81707W        W24760   5.536   9.559  22.027  0.0604 -0.1711  0.2036
81708W        W24761   5.613  14.772   5.012 -0.2268  0.1853  0.1030
81709W        W24762  22.011   2.729   0.534  0.0286 -0.1888  0.2720
81710W        W24763  31.061  24.610   3.441  0.0200 -0.0825 -0.2373
81711W        W24764   5.912  30.455  20.391 -0.2658 -0.0383  0.2144
81712W        W24765   9.818  26.589   5.820  0.1696 -0.0500 -0.0814
81713W        W24766  22.025  29.099  24.627  0.1199 -0.0587  0.2356
81714W        W24767   2.287   2.284  15.655  0.1521 -0.2123  0.0588
81715W        W24768  16.179  21.384  20.829 -0.3013  0.2323  0.0412
81716W        W24769  14.640  21.177  24.704 -0.1497 -0.0045 -0.1546
81717W        W24770  20.413  33.700  19.362 -0.0258 -0.1494 -0.0991
81718W        W24771  32.551  16.543  22.689 -0.1056  0.1477 -0.2515
81719W        W24772  11.015  23.740  16.055  0.1362 -0.0585  0.1261
81720W        W24773  19.535  28.814  26.461 -0.1115 -0.0803  0.1679
81721W        W24774   8.354  33.672   9.582  0.0159 -0.0275  0.2035
81722W        W24775  18.143  29.979  22.839 -0.4142 -0.1308 -0.0486
81723W        W24776  25.863  31.391   5.895 -0.1201 -0.3137 -0.0988
81724W        W24777   8.723  31.602   9.321  0.3292  0.3398  0.1744
81725W        W24778  21.702  24.420  21.818  0.3277 -0.0829 -0.1922
81726W        W24779  20.280  23.918   6.107 -0.3041  0.0625 -0.1075
81727W        W24780  18.286   7.594  27.749 -0.2533 -0.0607 -0.2099
81728W        W24781  26.586   9.140   4.501 -0.2366  0.1256 -0.1502
81729W        W24782  21.716  26.032  22.196  0.1135  0.0176 -0.1044
81730W        W24783  25.171  33.749   0.153  0.1229  0.0812 -0.1838
81731W        W24784   9.339  30.544  20.995  0.0869 -0.0702 -0.2952
81732W        W24785  14.275   5.007  26.742 -0.1239  0.2888 -0.1520
81733W        W24786  24.138  28.726   8.493 -0.4615 -0.1788  0.2972
81734W        W24787   2.366  31.847   3.650  0.4201  0.0114  0.1205
81735W        W24788  20.359  25.910  17.789 -0.0803  0.3766 -0.0673
81736W        W24789  28.494  33.103   3.834  0.0248 -0.1763 -0.2006
81737W        W24790  24.121  31.026   1.598  0.0630 -0.2048 -0.0522
81738W        W24791  24.739  11.656  18.125  0.1281  0.0423 -0.0910
81739W        W24792  21.166  24.789  19.871  0.1829  0.1075  0.4039
81740W        W24793  23.186   3.101  24.602 -0.0395  0.3580  0.3687
81741W        W24794  13.826  19.745  25.855 -0.1256 -0.3624 -0.1379
81742W        W24795   2.844  11.886   8.110  0.6646 -0.0509 -0.2354
81743W        W24796  25.983   2.815   4.184 -0.0654 -0.2878  0.2886
81744W        W24797  26.274  18.842  27.417  0.1714 -0.1238  0.0559
81745W        W24798  13.044  24.365  16.551 -0.2973 -0.4056  0.0148
81746W        W24799  11.111  17.229   4.152  0.0960 -0.0822  0.2838
81747W        W24800  20.421  10.442   7.975 -0.1672 -0.1166 -0.3576
81748W        W24801  12.395  27.993  16.075  0.0104  0.1825 -0.0283
81749W        W24802   3.481  14.358  28.089  0.0855 -0.0676  0.3118
81750W        W24803  27.733  28.752  24.315 -0.0728  0.1612  0.0562
81751W        W24804  23.066   9.021  17.084  0.3117  0.3045  0.2683
81752W        W24805  22.136  20.350   2.727  0.0418  0.2107  0.1335
81753W        W24806   8.609   2.170   9.841 -0.2305 -0.0335 -0.3134
81754W        W24807  12.844   8.828  27.947 -0.0775 -0.1096  0.0645
81755W        W24808  12.194  25.371  24.233  0.2799 -0.1012  0.2065
81756W        W24809  22.698  28.287  10.006  0.0491 -0.0505 -0.1972
81757W        W24810  12.373  34.310  19.045  0.1714 -0.3582  0.1704
81758W        W24811  19.483   6.305   8.660  0.0706  0.0366  0.0641
81759W        W24812   3.824  13.919  24.393 -0.1016  0.0053  0.1998
81760W        W24813  33.320   4.063  19.071 -0.0729 -0.1479 -0.2521
81761W        W24814  25.357  18.575  24.184  0.4150 -0.1906  0.1377
81762W        W24815  15.505  33.876  23.874 -0.0907 -0.2100 -0.0798
81763W        W24816  31.799  23.563   0.869  0.1936 -0.3134 -0.2608
81764W        W24817  16.654  31.264  24.553  0.0977 -0.0127 -0.1074
81765W        W24818   9.944  31.354   3.754 -0.0095 -0.1245 -0.1147
81766W        W24819  23.380  14.670  19.334 -0.1350 -0.1931 -0.2298
81767W        W24820  26.661  30.907   8.167  0.2595 -0.2855 -0.0275
81768W        W24821  24.572  21.997  28.081  0.2182  0.1180  0.2684
81769W        W24822  19.606   8.674  27.007  0.0273 -0.0568 -0.0730
81770W        W24823  15.568  27.458  24.033  0.1117 -0.0888 -0.0287
81771W        W24824   4.430  32.947  19.481 -0.2484  0.3696 -0.1208
81772W        W24825   4.822  11.265   7.514 -0.2544 -0.0496  0.2303
81773W        W24826   1.773   8.300  25.531 -0.3101  0.1079 -0.1334
81774W        W24827  17.666  33.534  24.937  0.0408  0.1892 -0.0091
81775W        W24828  26.783   5.727  15.306  0.2318  0.1580 -0.0588
81776W        W24829  20.676   6.344  23.618  0.0326 -0.3987  0.2117
81777W        W24830  21.319   6.416   1.000  0.1332  0.1296  0.4451
81778W        W24831   9.044  26.705  15.406 -0.1517 -0.0533 -0.3123
81779W        W24832  26.416  32.321  22.064  0.2058 -0.1137 -0.0163
81780W        W24833   9.246  32.761  16.618  0.1072 -0.1143 -0.1731
81781W        W24834  13.633  27.836   0.825  0.2008  0.0787  0.0006
81782W        W24835  27.873   1.959  23.734 -0.0233  0.2069 -0.0531
81783W        W24836   8.071  13.819   3.216 -0.0921  0.0918 -0.0525
81784W        W24837  23.127  29.517  18.464  0.2819  0.1213 -0.2554
81785W        W24838  23.036   0.136   6.883  0.0343  0.2633  0.2759
81786W        W24839  27.516   2.435   1.634 -0.0485  0.0576  0.1073
81787W        W24840  27.439  13.255  27.937  0.2347  0.1255 -0.1865
81788W        W24841  17.527  19.207   0.624 -0.0052  0.0018 -0.2584
81789W        W24842  10.961  12.845  18.884 -0.2004  0.1750  0.0631
81790W        W24843  24.614   8.360  16.725  0.0058 -0.3053  0.0765
81791W        W24844  12.475   5.254  28.454 -0.2630 -0.0054  0.0443
81792W        W24845  19.566   8.806   1.721  0.2457  0.1727 -0.0541
81793W        W24846  22.267  13.638  18.302  0.0209  0.0794 -0.0263
81794W        W24847  14.235   3.242  28.906 -0.2631  0.1791  0.1358
81795W        W24848  25.215   2.173   1.474 -0.1897 -0.3479  0.1940
81796W        W24849  26.069  26.929  26.024 -0.3302 -0.0273  0.2290
81797W        W24850   7.996   0.259  16.907 -0.3319 -0.1246  0.2194
81798W        W24851  26.366  31.398   4.368  0.0618 -0.0655  0.0620
81799W        W24852   7.869   0.708   5.035  0.1246 -0.0547  0.2671
81800W        W24853   7.230   3.818  18.340  0.2866  0.1430  0.2648
81801W        W24854  19.103  22.740   3.205  0.0212 -0.1174  0.3443
81802W        W24855  20.933   7.521  16.880  0.3130 -0.1587  0.3320
81803W        W24856  27.978   0.878  24.509  0.0359  0.2960 -0.1246
81804W        W24857  19.988   0.211  14.082  0.1127 -0.0802 -0.2203
81805W        W24858  32.493  28.693  28.040 -0.1142  0.1677 -0.2595
81806W        W24859  10.258  31.652  23.767  0.2103  0.0636 -0.0455
81807W        W24860  25.404  27.464  22.947 -0.0984  0.1738  0.0934
81808W        W24861  17.639  31.929  20.056  0.2333 -0.0844  0.1869
81809W        W24862  15.994  34.505  20.922  0.0474  0.2182  0.0225
81810W        W24863  24.145   6.876  23.651  0.2313 -0.1236 -0.0508
81811W        W24864   1.473  22.078  20.819  0.2098 -0.0395  0.3090
81812W        W24865  27.363  11.779  19.430  0.0952  0.0919 -0.0685
81813W        W24866   0.425  29.178  24.508 -0.1286 -0.0988  0.0070
81814W        W24867  22.550  19.133  18.664  0.0387  0.2642  0.3557
81815W        W24868   5.128  33.754  28.864 -0.2791  0.0601 -0.0522
81816W        W24869  12.190  31.449  26.380 -0.1019  0.0546  0.1183
81817W        W24870  28.493  20.755  17.464  0.1664  0.0288 -0.3052
81818W        W24871  16.892  31.927  26.879 -0.2191 -0.0952  0.1311
81819W        W24872   7.161  33.748  23.701 -0.2775 -0.0745  0.1000
81820W        W24873  14.737   3.221   3.705 -0.1114  0.2850 -0.1366
81821W        W24874  16.132  28.038  19.636  0.0619  0.1215 -0.1919
81822W        W24875  12.823  28.997  24.555  0.0103 -0.0968  0.0027
81823W        W24876  20.465   5.141   9.897  0.0535 -0.1131 -0.0248
81824W        W24877  17.794  18.168   3.420 -0.0067 -0.0167  0.2906
81825W        W24878  18.317   1.523   0.406 -0.1045 -0.2680 -0.0079
81826W        W24879  32.939  17.504   4.199 -0.1260 -0.0490  0.1951
81827W        W24880  27.559  25.301  19.989 -0.1917  0.0538  0.3486
81828W        W24881  19.173  34.218  27.139  0.1377  0.0628  0.1136
81829W        W24882  12.174  12.674   1.342 -0.2906 -0.1924  0.0997
81830W        W24883   9.450  22.239  26.972  0.1501 -0.2387  0.0008
81831W        W24884  25.340   7.155   0.325  0.2643  0.2618 -0.1097
81832W        W24885  12.571  26.837  20.057  0.0555 -0.1017  0.5114
81833W        W24886  16.653  27.371   3.604  0.2309 -0.0135 -0.1308
81834W        W24887  28.496  32.536   0.605 -0.2119 -0.0175 -0.1168
81835W        W24888  14.728   1.228  15.144  0.0896  0.0499  0.0106
81836W        W24889  12.084   1.088   0.306 -0.0178 -0.0349 -0.5215
81837W        W24890  21.410  25.634  15.504 -0.0881  0.0821 -0.0690
81838W        W24891  33.443  21.271   2.960  0.1383 -0.1161 -0.0918
81839W        W24892  26.252  26.198   4.498  0.0844 -0.1990  0.1154
81840W        W24893   7.711   2.436  26.206  0.3381  0.2743  0.1649
81841W        W24894  32.966  33.380   8.166  0.2121  0.0776 -0.1237
81842W        W24895  14.155  30.894  21.791 -0.2565  0.0228 -0.2932
81843W        W24896   7.367  10.529   1.794  0.3116  0.1971  0.2429
81844W        W24897  15.377   4.277  17.323  0.0129  0.0852 -0.1518
81845W        W24898  23.694  27.617   4.492 -0.1500 -0.0433 -0.4454
81846W        W24899  23.147  26.385  19.906 -0.3243 -0.0243 -0.0937
81847W        W24900  19.196  26.912  17.684 -0.1566 -0.0012  0.1644
81848W        W24901  26.376  27.688  26.405  0.1539  0.0009 -0.0226
81849W        W24902  16.318  25.049  18.640  0.0802 -0.1686  0.2680
81850W        W24903  20.106  29.637  18.960  0.0732  0.2595 -0.0388
81851W        W24904   6.279  22.280   5.705  0.1819 -0.3724  0.1868
81852W        W24905  19.298  30.917   3.082 -0.0481  0.2322  0.0040
81853W        W24906  23.051  10.074  28.100  0.1330  0.2849 -0.2462
81854W        W24907   1.927  30.665   8.346 -0.1443 -0.0030  0.0842
81855W        W24908  14.399  13.101   6.144  0.0408  0.0463  0.2042
81856W        W24909  25.219   5.988  20.429  0.0903 -0.0364 -0.0328
81857W        W24910   6.128   6.038  28.622 -0.1970  0.0025 -0.0259
81858W        W24911  14.060  29.399   4.922 -0.1991 -0.1337  0.1971
81859W        W24912   4.837  29.767  19.231 -0.0315  0.1274  0.2526
81860W        W24913  28.873  10.311   1.006 -0.3292  0.1768 -0.0445
81861W        W24914  26.641  11.665  28.522 -0.2863  0.1430  0.1806
81862W        W24915   6.254  17.742   1.772 -0.2536 -0.1554  0.3151
81863W        W24916  15.718   0.242  17.663  0.2390 -0.3884 -0.1900
81864W        W24917  14.761  21.214  27.511 -0.0569  0.0130 -0.1859
81865W        W24918  20.283  28.310   0.879  0.0436 -0.1292 -0.3631
81866W        W24919  21.031  28.189  29.181 -0.2036 -0.3326 -0.2631
81867W        W24920  10.619  20.661  17.815 -0.0913  0.0420 -0.1277
81868W        W24921  15.824  26.652  25.469 -0.3077 -0.1203 -0.0779
81869W        W24922  30.684  32.467  26.366  0.0879 -0.1769  0.1300
81870W        W24923   6.014  23.786  27.071  0.2996  0.0002  0.2774
81871W        W24924  22.020   0.551   1.912 -0.1331  0.1656  0.0801
81872W        W24925  24.884  33.926   2.028 -0.1653 -0.2511  0.0317
81873W        W24926  32.756  32.288  23.374  0.3728  0.0029 -0.1828
81874W        W24927   6.637  27.824  23.881  0.1609 -0.2730 -0.1385
81875W        W24928  18.699  25.725  22.279  0.1109 -0.1723 -0.2823
81876W        W24929   6.144  28.119   0.003  0.2320  0.0837 -0.3480
81877W        W24930  29.318  18.808  26.289 -0.0997  0.3183  0.2966
81878W        W24931   0.922  10.301  14.146  0.0031 -0.1174  0.0104
81879W        W24932  13.371   3.104   1.578 -0.0403  0.1518  0.1162
81880W        W24933  23.067  25.533  22.093  0.0924  0.0211  0.0350
81881W        W24934   9.253  16.427   8.853 -0.2267  0.0963 -0.3803
81882W        W24935   6.398  12.386  22.039  0.1486  0.2143 -0.0282
81883W        W24936   2.258   2.137   1.739 -0.0277  0.0780 -0.3121
81884W        W24937  13.315   2.979   6.713  0.0270  0.2717  0.1363
81885W        W24938  17.908   4.090  18.814 -0.0398 -0.1561  0.0521
81886W        W24939  19.726   0.081   0.413  0.3300  0.1470 -0.0046
81887W        W24940  12.032   4.209  20.623  0.1622  0.1032  0.1734
81888W        W24941  27.310  12.521  27.105  0.0701 -0.2171 -0.1268
81889W        W24942  31.162  23.839   0.125 -0.2369 -0.0691 -0.0408
81890W        W24943  24.372   8.937   7.101  0.0147 -0.0761  0.0573
81891W        W24944   7.337   4.274   8.226  0.2181  0.0062  0.0512
81892W        W24945  19.324   0.322   9.573 -0.0180  0.2628  0.1562
81893W        W24946  22.412  10.822   7.635  0.0796  0.0629 -0.0805
81894W        W24947   9.932  11.191  24.247  0.0713  0.0222 -0.0671
81895W        W24948   7.354  30.445  21.553 -0.0430  0.2300  0.0188
81896W        W24949   1.280   3.879  17.672  0.3681  0.1339  0.3871
81897W        W24950   8.785   1.263  19.228  0.3419 -0.4445  0.1905
81898W        W24951  10.229   0.522  28.575  0.0284  0.0907 -0.1819
81899W        W24952  13.563   9.879   0.027  0.1311 -0.0131 -0.1791
81900W        W24953   8.339  25.046  16.006 -0.0375 -0.0667 -0.2072
81901W        W24954   0.992  17.943  19.096  0.2393 -0.0077 -0.0617
81902W        W24955  17.206  28.214  15.082  0.3188 -0.2928  0.0236
81903W        W24956   4.620  31.420  22.237 -0.0947  0.2499 -0.0351
81904W        W24957   3.146   5.923  28.412 -0.3350  0.4791 -0.0095
81905W        W24958  20.630   3.228   0.743 -0.3154 -0.0845  0.2461
81906W        W24959  28.151  21.006  21.788  0.3146 -0.0088 -0.0396
81907W        W24960   0.869  29.416  15.751 -0.2487 -0.1148 -0.0222
81908W        W24961   2.874  25.554  20.961  0.0484  0.3184 -0.0189
81909W        W24962  33.627   5.752  14.409 -0.2131 -0.3759 -0.1271
81910W        W24963  16.000  16.761  27.017  0.0212  0.4671 -0.2397
81911W        W24964  13.605  16.684  16.048  0.3009 -0.0691 -0.0093
81912W        W24965  19.374   0.755  18.674  0.1279 -0.2418  0.0790
81913W        W24966  21.890  32.498  18.846  0.0044  0.1078  0.0480
81914W        W24967  12.411  23.632  28.888  0.0065 -0.0146 -0.2323
81915W        W24968  32.390  25.397  14.962  0.3720 -0.0745 -0.1672
81916W        W24969   8.595  24.629  16.012 -0.0962  0.2466  0.0535
81917W        W24970  12.869  32.422  19.711  0.3293 -0.3090  0.1871
81918W        W24971   0.556   7.138   4.597 -0.2338 -0.0181  0.0186
81919W        W24972  26.021   2.115  18.372  0.1313 -0.0639 -0.0320
81920W        W24973  16.670   6.923  15.822  0.2433 -0.0402  0.0898
81921W        W24974   8.640  23.699  14.422 -0.0349 -0.1620 -0.3933
81922W        W24975  11.961  28.186  20.810 -0.4512 -0.0653  0.2409
81923W        W24976   9.920  20.295  19.147 -0.1671  0.1627  0.2307
81924W        W24977   8.731   2.070  17.583 -0.0641  0.1651 -0.2055
81925W        W24978  13.289  25.656  14.973 -0.0916  0.0749 -0.0788
81926W        W24979   0.410  21.458  18.404 -0.3654 -0.0404  0.1558
81927W        W24980  11.443  33.484  25.790  0.0225  0.0218  0.1691
81928W        W24981  12.465   9.229  14.996 -0.1064  0.0524 -0.0089
81929W        W24982  18.488   2.600  19.632 -0.0911 -0.1252 -0.2816
81930W        W24983  21.211   1.940  18.581  0.0474 -0.0460 -0.1213
81931W        W24984  22.380   8.358  21.284  0.2590  0.0779 -0.2594
81932W        W24985  17.391  14.479  24.463  0.0886  0.5667 -0.0533
81933W        W24986  13.166  26.778  25.027 -0.2390 -0.0378  0.2077
81934W        W24987  11.653   1.810  25.592 -0.0356  0.2155  0.0395
81935W        W24988   9.406   6.693  23.067  0.0901 -0.0280 -0.3019
81936W        W24989  17.282   7.109  16.893 -0.3142  0.1874 -0.0055
81937W        W24990  22.979  31.648  22.186 -0.0425  0.0575 -0.1071
81938W        W24991   8.819   2.178   0.527  0.1818 -0.0435 -0.1306
81939W        W24992   4.088   4.289  28.054 -0.1395  0.3251  0.0138
81940W        W24993  21.174  33.854  16.661 -0.0834 -0.0977  0.2077
81941W        W24994   5.458  33.656  15.102  0.1867 -0.0162 -0.1559
81942W        W24995   9.864  32.240  16.961 -0.0101  0.0166 -0.3315
81943W        W24996  17.145   1.996  20.698  0.0960 -0.2444  0.1339
81944W        W24997  10.265   0.924  26.314 -0.1049 -0.0086 -0.1436
81945W        W24998  13.703  27.114  21.038 -0.2584  0.0263  0.3016
81946W        W24999  27.858  22.229   8.759  0.2798 -0.4133  0.2055
81947W        W25000  18.877  29.390  25.146 -0.0869 -0.1995 -0.1695
81948W        W25001   4.484  28.619  18.034 -0.1562  0.1978 -0.0076
81949W        W25002  20.438  23.913  20.173  0.0457 -0.2078 -0.0177
81950W        W25003  23.773  33.411  25.344 -0.0435 -0.3392  0.0183
81951W        W25004  21.878   5.507  18.046 -0.0937 -0.1635  0.0142
81952W        W25005  20.457  31.988   8.648 -0.2797  0.1490  0.2435
81953W        W25006   5.363  22.418  13.802 -0.2895 -0.1660 -0.0761
81954W        W25007  13.586   7.462  23.685 -0.0748  0.0820  0.0081
81955W        W25008  17.309  28.905   3.815 -0.2131 -0.1093 -0.2095
81956W        W25009  10.461  22.858  16.190  0.1706  0.0504 -0.1710
81957W        W25010  15.935  33.992  19.685  0.1011 -0.1861 -0.1209
81958W        W25011   6.967  23.772  17.439 -0.3472 -0.1021  0.2623
81959W        W25012   8.631  22.137  16.933 -0.1869  0.1749 -0.2046
81960W        W25013  19.607   2.726   1.171 -0.0821  0.3901  0.1325
81961W        W25014  14.108  12.804  28.952 -0.2849  0.0498  0.0151
81962W        W25015  13.509   6.469  19.512 -0.0858 -0.0100 -0.2565
81963W        W25016   2.405  17.425  18.011 -0.1294 -0.0539  0.3253
81964W        W25017  12.170  12.618  25.751 -0.0336 -0.0775 -0.1902
81965W        W25018  11.916   8.307  24.851  0.1777 -0.0125  0.0012
81966W        W25019  28.018   8.681  19.275  0.1929  0.1410 -0.0436
81967W        W25020  20.055  30.227  19.534 -0.1814 -0.0944 -0.0501
81968W        W25021  15.131  29.482  16.915  0.2395  0.1823  0.2806
81969W        W25022   8.831  33.617   0.797 -0.2100  0.0652 -0.0047
81970W        W25023   0.364  28.080   5.111  0.0842 -0.1076  0.0927
81971W        W25024  13.707   8.686  21.091 -0.0670 -0.1393  0.0367
81972W        W25025  10.158  20.631  15.427  0.0737 -0.0974  0.0263
81973W        W25026  18.409  29.830   4.966  0.0013 -0.0290 -0.4181
81974W        W25027   9.106   3.561  25.307 -0.1614 -0.0332  0.3907
81975W        W25028   2.413   3.897  14.234  0.2106  0.2405 -0.1736
81976W        W25029  22.247   5.285  17.757 -0.2105  0.3021 -0.5546
81977W        W25030   7.503  33.034  17.687  0.0779  0.0524 -0.1185
81978W        W25031  17.334  28.121  18.817 -0.1039  0.1503 -0.3462
81979W        W25032  13.544   3.001  18.172 -0.3313  0.0093 -0.0014
81980W        W25033  10.579  25.298  23.452 -0.1790  0.0448  0.0719
81981W        W25034  24.766  31.696  14.049 -0.0001  0.2079  0.5291
81982W        W25035  31.685  32.312  15.196  0.4018  0.0209  0.1132
81983W        W25036  21.654  28.955   1.619 -0.1063 -0.3220 -0.1408
81984W        W25037  14.414   3.679  15.855  0.0005  0.1326  0.1195
81985W        W25038  11.796   9.977  23.908 -0.1624 -0.0138  0.1546
81986W        W25039   3.665  28.194  21.168 -0.2689 -0.0637  0.1151
81987W        W25040  33.603  25.718   2.252  0.3710 -0.2821  0.1561
81988W        W25041  29.804   0.123   0.829 -0.3160  0.0046 -0.1447
81989W        W25042  13.556   7.496  17.034 -0.0196  0.0217  0.1437
81990W        W25043   9.844   1.206  17.597  0.0340 -0.0389 -0.2457
81991W        W25044  24.373  28.696  27.758 -0.0370 -0.0517 -0.0438
81992W        W25045  33.980  34.509  17.967  0.1685 -0.0977 -0.0180
81993W        W25046  32.671  25.126  17.634  0.0906 -0.3886 -0.4034
81994W        W25047  13.898   2.748  24.090 -0.1249  0.0367  0.0075
81995W        W25048   1.440  23.952  29.169  0.0120  0.1257  0.5122
81996W        W25049  12.286  30.760  14.263  0.0394  0.3452  0.1087
81997W        W25050  18.801   7.218  20.913  0.0442  0.0652  0.0877
81998W        W25051  17.810   0.481   3.742 -0.0850  0.2181  0.1988
81999W        W25052  14.530   8.170  26.697  0.0458 -0.0227  0.2110
82000W        W25053  13.292   5.859  24.188  0.0499 -0.0675 -0.1413
82001W        W25054   5.732  27.762  24.627  0.1415  0.3276 -0.0196
82002W        W25055  12.494  29.893  20.058  0.2752  0.0957 -0.0181
82003W        W25056  20.258   5.972  29.126 -0.4235 -0.0869 -0.1365
82004W        W25057   3.890  20.647  18.192  0.0247  0.0745 -0.3346
82005W        W25058  22.465   2.820  17.198  0.1394  0.1478 -0.1020
82006W        W25059  20.758   5.599   6.371 -0.1983  0.2698  0.0882
82007W        W25060  19.662   3.281  15.088 -0.2133 -0.1377  0.2268
82008W        W25061  24.518   3.514  13.697  0.0827  0.0324 -0.0804
82009W        W25062  18.204   7.747  16.153 -0.0187 -0.1583  0.0048
82010W        W25063  19.254  30.407   1.261 -0.1518 -0.0735 -0.4029
82011W        W25064  13.812  29.487  17.512 -0.0530 -0.2268  0.0592
82012W        W25065  24.795  33.382  23.359  0.0045 -0.0971  0.2427
82013W        W25066  15.104   2.918  24.744 -0.1055 -0.2351 -0.2790
82014W        W25067   8.208  33.543   3.349 -0.1823 -0.4350  0.0366
82015W        W25068   3.389  13.264  27.764  0.1047 -0.5484 -0.1680
82016W        W25069  13.807  28.308  20.504 -0.2246 -0.2336 -0.0904
82017W        W25070  17.943  31.039   3.842  0.2983 -0.0358 -0.0512
82018W        W25071  31.971  18.199  27.588  0.2506 -0.1104  0.0536
82019W        W25072  11.296   3.901  21.235  0.1636 -0.1030  0.3495
82020W        W25073   8.620  22.022  17.443  0.0234  0.0145 -0.0178
82021W        W25074  21.605  27.728  14.424  0.1314 -0.2014  0.1156
82022W        W25075  15.203  32.978  21.876  0.1896  0.0634  0.2318
82023W        W25076  25.395   7.875  18.879 -0.0198  0.1429 -0.0068
82024W        W25077  27.109   2.685  15.020 -0.3775 -0.5172 -0.4251
82025W        W25078  10.170   0.541  20.808 -0.1016 -0.0421  0.0928
82026W        W25079  17.731   4.446  25.520  0.1680 -0.2648  0.2034
82027W        W25080  27.141   9.168  22.315  0.1577  0.2663  0.0500
82028W        W25081  26.510   2.240  24.277 -0.0773 -0.1152 -0.2329
82029W        W25082  30.240  33.495  14.391  0.2855  0.0083 -0.1950
82030W        W25083   1.583  31.920  15.136 -0.0429 -0.0987  0.2540
82031W        W25084  13.195   2.788  22.961  0.0606  0.4574  0.3102
82032W        W25085  17.593  22.906  15.059  0.1468  0.2262  0.2009
82033W        W25086  21.792  16.875  26.761  0.0193 -0.0530  0.0547
82034W        W25087  12.351  11.462  21.383  0.1765 -0.3717  0.0141
82035W        W25088  15.763  29.567  26.288  0.1304  0.0675 -0.1118
82036W        W25089  11.421   1.866  22.228  0.1442  0.0460  0.1729
82037W        W25090  29.011   0.246  15.110 -0.4267  0.0499 -0.0648
82038W        W25091  31.888  33.973   2.227  0.1142  0.0842 -0.0311
82039W        W25092  19.264   4.347  16.802  0.1401 -0.1430  0.3230
82040W        W25093  24.927   8.110  18.895 -0.4086 -0.0048  0.1904
82041W        W25094  18.267   0.486  19.128 -0.2340 -0.0995 -0.1496
82042W        W25095   6.120   3.737  14.433 -0.1834 -0.0282  0.3148
82043W        W25096  15.955  34.331  17.674  0.0200 -0.0415 -0.0570
82044W        W25097  13.879   0.349  21.204  0.0638  0.1068 -0.1210
82045W        W25098   9.023  32.594  19.001  0.3533  0.4208 -0.0320
82046W        W25099  10.113  33.029  28.587 -0.1778 -0.3640 -0.1034
82047W        W25100  10.954   3.713  17.855 -0.2910 -0.1446  0.2728
82048W        W25101   9.599  31.814   8.282  0.1457 -0.1268 -0.1313
82049W        W25102   9.735  21.973  18.659  0.0579  0.3313  0.5954
82050W        W25103  16.967  23.293  19.201  0.0339  0.1871  0.0365
82051W        W25104   5.489  30.661  27.775  0.1607  0.2872 -0.0551
82052W        W25105  10.581  24.114  21.486 -0.2739  0.2760 -0.2834
82053W        W25106  24.995   7.396   0.585 -0.0416 -0.2505  0.0954
82054W        W25107  23.162  32.774  15.082  0.0908  0.1659 -0.1069
82055W        W25108  13.862   6.614  20.899  0.0507  0.0070  0.1102
82056W        W25109  23.425  10.342   3.362 -0.0018  0.0798  0.0164
82057W        W25110   6.403   1.024  17.882 -0.2398 -0.1325  0.1193
82058W        W25111  14.081   1.861  15.320 -0.0690  0.1323 -0.1821
82059W        W25112   2.733  33.313  16.388 -0.0030 -0.3138  0.0544
82060W        W25113  12.154  20.324  22.964 -0.0309 -0.0604 -0.0695
82061W        W25114   5.758  29.448  16.188 -0.1698  0.1008  0.1001
82062W        W25115  27.798  22.728  15.472 -0.1675 -0.1415  0.2066
82063W        W25116   9.373   0.407   0.622  0.0466  0.0841 -0.1897
82064W        W25117  14.853   0.805  19.278  0.0793 -0.0223 -0.4043
82065W        W25118   8.995  30.140  15.872  0.1527 -0.2573  0.0949
82066W        W25119   6.998  33.143  20.894 -0.2412  0.2331 -0.2931
82067W        W25120  11.866   7.032  21.501  0.0900  0.2056  0.1183
82068W        W25121  21.210  14.506  17.926 -0.2352  0.1351 -0.1501
82069W        W25122   7.506  25.848  14.210  0.0268 -0.2445 -0.1008
82070W        W25123  20.750  25.657   6.181  0.1104 -0.2007  0.1973
82071W        W25124  12.807  18.318  14.381 -0.2251  0.1610 -0.1261
82072W        W25125  16.731  32.112   9.727  0.2734  0.0400  0.0101
82073W        W25126  18.478  14.098  15.095 -0.2320  0.1918  0.1908
82074W        W25127  14.108  26.211  13.362  0.0834  0.2617  0.1908
82075W        W25128   4.233  24.132  19.457  0.0251  0.1729 -0.1300
82076W        W25129   7.654   5.945   2.461 -0.2164 -0.2518  0.1431
82077W        W25130  17.585  10.243  14.776  0.2411 -0.2284  0.0898
82078W        W25131  27.705  29.228  16.446 -0.0496 -0.2694  0.3608
82079W        W25132  19.754  32.752  14.566 -0.2568 -0.3268 -0.1970
82080W        W25133  18.636  34.374  16.290 -0.0631 -0.3027 -0.3405
82081W        W25134  15.256   2.614  25.065 -0.1554 -0.4606 -0.1919
82082W        W25135  17.175  25.290  23.417  0.0835 -0.0672 -0.1339
82083W        W25136  20.873  12.376   1.318 -0.0468 -0.1917 -0.2117
82084W        W25137  21.328  32.406  16.990 -0.0521 -0.1593  0.0224
82085W        W25138  33.734   3.593  26.339 -0.1392  0.1686  0.1637
82086W        W25139   4.659  33.677  20.910 -0.1164 -0.1681 -0.1136
82087W        W25140  20.908   4.692  18.342  0.0344  0.1127 -0.2670
82088W        W25141  26.957  29.237  24.302 -0.1872  0.0368 -0.0260
82089W        W25142  21.517   6.989  16.090  0.0691 -0.2866  0.3985
82090W        W25143  10.145  32.668  13.920 -0.0709  0.2486 -0.1844
82091W        W25144  14.425   5.581  20.223  0.1515  0.0876 -0.2347
82092W        W25145   6.616  20.874  21.701  0.2230 -0.1217 -0.4771
82093W        W25146  10.722   8.470  23.595 -0.2957  0.2014 -0.2420
82094W        W25147  16.064   0.416  18.370  0.1816  0.1343 -0.0307
82095W        W25148   9.156  32.141  16.806 -0.2772  0.2786  0.0628
82096W        W25149   8.335  31.481  19.696  0.0677 -0.1284  0.3583
82097W        W25150  17.772   2.633  14.875 -0.1067 -0.1613 -0.0685
82098W        W25151  10.273  18.032  28.606  0.0298  0.2043 -0.0680
82099W        W25152   9.066  19.639  17.499  0.0473 -0.2438  0.1385
82100W        W25153  26.855   3.731  18.936 -0.0372  0.0445  0.1043
82101W        W25154  14.553  19.385  28.264 -0.1750  0.0662 -0.4329
82102W        W25155  10.166   1.980  23.421  0.0693 -0.2218  0.2064
82103W        W25156  25.587  33.136  20.788  0.0232 -0.0119  0.2455
82104W        W25157   9.279   0.550  22.246 -0.2098 -0.0897  0.4643
82105W        W25158  27.551   2.066  26.604 -0.1388  0.2035 -0.2764
82106W        W25159   5.255  24.944  14.209  0.1204  0.1199  0.0184
82107W        W25160  29.278  30.756  15.936  0.2789  0.2404  0.0938
82108W        W25161  14.045  13.615  24.194  0.3346 -0.0228 -0.1995
82109W        W25162  12.429   1.731  24.023  0.0894  0.0998  0.2143
82110W        W25163  23.896  29.808  21.592 -0.2366 -0.0703 -0.0609
82111W        W25164  34.535  25.065  15.684 -0.2909 -0.0337  0.0794
82112W        W25165  17.156  29.952  17.151 -0.0787 -0.1956 -0.1119
82113W        W25166  10.534  28.064  17.888 -0.1577 -0.0263 -0.1331
82114W        W25167  24.676   3.319  21.188 -0.2838  0.0148  0.1231
82115W        W25168  21.683  28.474   2.712  0.1100 -0.0971  0.3264
82116W        W25169   6.277   7.757  22.382  0.3373 -0.5510 -0.1128
82117W        W25170  21.886  14.952  20.439 -0.4788  0.0343 -0.2229
82118W        W25171  13.551  28.268  27.497  0.1036  0.2312  0.1422
82119W        W25172  11.793   9.705  24.563 -0.1826  0.0427  0.4062
82120W        W25173  25.786   2.376  20.368  0.1172  0.0045 -0.2066
82121W        W25174  27.855  21.956  27.105  0.1680 -0.1278 -0.0939
82122W        W25175  19.814   9.293  17.593 -0.2609  0.0293  0.0348
82123W        W25176  16.858   2.238  26.163  0.0948  0.0275 -0.1389
82124W        W25177   7.573   4.709  26.309 -0.1666 -0.1463 -0.1087
82125W        W25178  16.835   8.527  14.942 -0.0746 -0.0161  0.1005
82126W        W25179  32.900  18.890  22.223 -0.1207 -0.0423  0.0662
82127W        W25180   5.492   6.332  21.217  0.1069 -0.0515 -0.0331
82128W        W25181   3.615  29.459  15.037  0.0472 -0.2288  0.0150
82129W        W25182  22.154   2.400  17.122  0.0340 -0.1250  0.0000
82130W        W25183  31.147   2.298  24.947  0.2768 -0.0708  0.5966
82131W        W25184  26.619  33.354  26.433  0.0159 -0.0901  0.1335
82132W        W25185  12.465  23.362  18.607 -0.0249 -0.1071 -0.2097
82133W        W25186  10.320  30.409  18.454  0.1825  0.1180  0.0428
82134W        W25187  27.408   6.436  22.012 -0.1070  0.0116 -0.1313
82135W        W25188  21.962   2.896  16.883  0.4467 -0.1548 -0.1878
82136W        W25189  11.758   5.397  15.630  0.0521  0.0481  0.2950
82137W        W25190  12.333   8.217  22.632 -0.1711  0.1679  0.0226
82138W        W25191  18.144  29.260  21.371  0.2438  0.0685  0.1741
82139W        W25192  26.750   9.313  26.954 -0.0704 -0.3678 -0.1838
82140W        W25193   8.163  33.484  15.731  0.1909 -0.2574 -0.1461
82141W        W25194  22.880   0.181  21.476 -0.0336 -0.0036  0.2630
82142W        W25195  17.340  26.764  21.310 -0.0671 -0.0915  0.0694
82143W        W25196   5.991  22.487  20.119 -0.1800 -0.2536  0.0498
82144W        W25197  19.754   4.966  15.085  0.0135 -0.0305 -0.0030
82145W        W25198  27.107  25.859  20.581 -0.0357  0.0281 -0.0547
82146W        W25199  11.848   7.226   1.538  0.2925  0.1132  0.0841
82147W        W25200  16.014  26.587  20.466 -0.0682 -0.1879 -0.1113
82148W        W25201  15.263   6.522  15.163 -0.2548 -0.3981  0.0447
82149W        W25202   4.756  23.280  23.802 -0.1332 -0.1411  0.1375
82150W        W25203  29.352  27.866   0.936  0.0655  0.3241  0.2658
82151W        W25204  29.064  28.382  19.689 -0.0186  0.0907 -0.0818
82152W        W25205  12.947  31.307   2.060 -0.0736  0.0679 -0.3218
82153W        W25206  14.882  33.002  19.805 -0.0848  0.1617 -0.0151
82154W        W25207  34.606   3.160  19.470 -0.0346 -0.0270 -0.0665
82155W        W25208  25.789  17.961  15.490  0.0744 -0.2999  0.4991
82156W        W25209   1.443  29.822   2.695 -0.2986 -0.0350 -0.4767
82157W        W25210  16.055  31.923  23.167  0.0170 -0.0029 -0.0328
82158W        W25211  26.388  21.923  22.919  0.1238  0.0902 -0.1619
82159W        W25212  19.723   2.038  22.658 -0.0319 -0.0316  0.0286
82160W        W25213  13.386  29.762  13.806 -0.2311  0.4480 -0.0616
82161W        W25214   4.406  30.159   6.590  0.0049  0.2027  0.0496
82162W        W25215  34.401   8.536  18.878 -0.0166  0.0014 -0.1235
82163W        W25216  13.275   4.504  14.893  0.0543 -0.0751 -0.2379
82164W        W25217   9.982  25.751  13.755  0.0266 -0.1595  0.1814
82165W        W25218  10.514  33.483  24.155  0.0900 -0.0847  0.3225
82166W        W25219  24.247   7.499  16.356  0.3945  0.2120 -0.0108
82167W        W25220  15.356  10.870   9.939  0.1016  0.0102  0.0210
82168W        W25221  15.264  30.109  20.763  0.0192 -0.0825  0.0204
82169W        W25222  12.424   2.663   5.407 -0.0537  0.1036 -0.0658
82170W        W25223   5.855   2.653  20.665 -0.1221  0.2401 -0.1716
82171W        W25224  28.652   0.430  14.253  0.1681 -0.2116  0.3902
82172W        W25225  23.353  32.925  13.790 -0.0891 -0.4505 -0.3146
82173W        W25226  19.882   1.795  16.144 -0.3255  0.1325 -0.1747
82174W        W25227  26.353   1.698  21.337 -0.0676 -0.1913  0.1625
82175W        W25228  18.292  22.649  17.494 -0.1831  0.2328  0.2744
82176W        W25229  14.628  20.912  26.598  0.2430  0.1941  0.2790
82177W        W25230   5.192  21.526  17.960 -0.1666  0.0706  0.4179
82178W        W25231  20.982   4.369  15.838  0.0032 -0.0113  0.1792
82179W        W25232  21.791   5.407   6.877 -0.3809  0.4110 -0.0800
82180W        W25233  24.062   3.495  17.078  0.0025  0.4087 -0.1227
82181W        W25234  32.059  23.116  15.404 -0.3102 -0.1381 -0.0975
82182W        W25235  12.317  30.879  16.457  0.0882  0.0499 -0.2324
82183W        W25236  11.173  23.592  20.072  0.0175 -0.0927 -0.1077
82184W        W25237  17.780  27.584  26.277 -0.2060 -0.2638  0.1622
82185W        W25238  11.078  20.746  18.295 -0.1040 -0.0285 -0.2174
82186W        W25239  18.985   1.353  18.156 -0.0573 -0.3559 -0.2525
82187W        W25240   3.952  33.099  26.745 -0.0274  0.0087  0.1781
82188W        W25241  22.108  23.242  24.238  0.0569  0.0871 -0.2627
82189W        W25242  30.397  27.680  16.972 -0.3095  0.0381 -0.0481
82190W        W25243   3.211  15.440  23.687 -0.0613  0.1877  0.3501
82191W        W25244   9.397  19.370  28.996  0.0125  0.0532  0.1933
82192W        W25245   6.945   0.155  17.235  0.0801 -0.1954 -0.1178
82193W        W25246  15.030   5.202  18.227 -0.3362  0.1959  0.0930
82194W        W25247  14.817  22.671  16.970  0.0982 -0.0108 -0.1876
82195W        W25248  24.424  17.033   4.348 -0.0307 -0.1217  0.0417
82196W        W25249  14.860  32.281  22.421 -0.0992 -0.0942  0.0976
82197W        W25250  14.040  32.247  13.350  0.0625 -0.0037  0.1691
82198W        W25251  21.583   9.942  27.474 -0.0020 -0.0858 -0.0096
82199W        W25252  21.277  31.298  14.899  0.2876  0.3042 -0.1929
82200W        W25253  19.320  31.735   0.470  0.2763  0.1824  0.1362
82201W        W25254  21.776  12.747  16.626  0.2589  0.2448 -0.2542
82202W        W25255  16.938   1.418  17.723  0.0240  0.0014  0.0282
82203W        W25256  25.664  32.076  18.489  0.1742 -0.0922  0.0672
82204W        W25257  17.463   0.290  22.508  0.1537  0.0004  0.0460
82205W        W25258  12.077   8.144  17.961 -0.0662 -0.0917 -0.0167
82206W        W25259   3.542  16.053  26.297 -0.0061 -0.2086  0.0522
82207W        W25260   1.302  22.600  17.099  0.2371 -0.0164 -0.1245
82208W        W25261  17.877   5.804  20.535  0.0452 -0.0493  0.0027
82209W        W25262  25.249  32.225  15.276  0.0280 -0.0823 -0.0095
82210W        W25263  26.620  31.631  27.397 -0.1632  0.2308 -0.3282
82211W        W25264  14.796   4.878   8.020  0.2903 -0.0645 -0.4015
82212W        W25265  19.444  30.054  23.778 -0.1604  0.1724 -0.0168
82213W        W25266  13.023  27.387  27.440 -0.1898  0.0129 -0.3782
82214W        W25267  15.167  27.801  23.894 -0.1701 -0.1415 -0.0328
82215W        W25268   1.651   7.408  14.921 -0.3988  0.2061  0.0819
82216W        W25269  14.048   6.617  22.310  0.1188  0.2482  0.0068
82217W        W25270  10.316  26.856  17.643  0.2307  0.3579 -0.1222
82218W        W25271  20.745  18.227  28.166 -0.0359  0.0004 -0.0229
82219W        W25272  30.059  11.716  27.475  0.1721  0.0470 -0.1370
82220W        W25273  12.174  29.048  17.211 -0.1887  0.0768 -0.1114
82221W        W25274  24.190  25.283  24.889  0.0570  0.1940 -0.0806
82222W        W25275  20.906   2.359   1.715  0.3592 -0.2536  0.3499
82223W        W25276   1.436  28.079  16.356 -0.3081 -0.1677 -0.1844
82224W        W25277  21.040   5.774  19.802  0.1032  0.2812  0.1894
82225W        W25278  26.719  22.518  17.165  0.1208 -0.0374  0.1700
82226W        W25279   7.367   6.248  17.674 -0.0635  0.0790  0.1647
82227W        W25280  30.216  29.479  14.040 -0.0282 -0.2522  0.0382
82228W        W25281  13.127  25.998  26.134  0.1963 -0.0481 -0.1318
82229W        W25282   8.160   5.438  18.834 -0.1764 -0.1955 -0.2431
82230W        W25283  27.307   6.691  20.249  0.0993 -0.1291 -0.1194
82231W        W25284  12.582  29.991  21.149  0.0049  0.1716 -0.1134
82232W        W25285  11.188   9.698  16.153  0.2905 -0.2304  0.0452
82233W        W25286  18.615   3.921  15.027 -0.2730 -0.1976  0.2987
82234W        W25287  28.248   8.911  15.173 -0.0613  0.0937  0.1227
82235W        W25288  24.789   0.626  21.372  0.2649 -0.4697  0.4074
82236W        W25289  10.954   9.730  21.493 -0.2952  0.1122 -0.0405
82237W        W25290  15.744   5.491  27.867  0.1008 -0.0234 -0.1804
82238W        W25291   0.784   7.548  19.386 -0.0346  0.1686  0.4302
82239W        W25292  15.954  23.056  24.078  0.0902 -0.4932 -0.1477
82240W        W25293  26.129  23.878  15.546  0.1404  0.0791 -0.0141
82241W        W25294  34.145   2.267  24.271 -0.0579  0.1583  0.2237
82242W        W25295  16.337  26.254  27.002  0.2239  0.0388 -0.0745
82243W        W25296  16.964   5.428  15.019  0.1338  0.2054  0.1857
82244W        W25297  34.514  34.056   5.225 -0.3468  0.2768  0.0226
82245W        W25298   5.443  29.952  18.367  0.0227 -0.2058 -0.0203
82246W        W25299   0.824  25.796  21.201  0.1138 -0.0430  0.1615
82247W        W25300  30.847  11.324  16.748  0.1350 -0.3052  0.1502
82248W        W25301  25.054  19.683  15.109 -0.1037 -0.0799 -0.0426
82249W        W25302  24.577   1.672   1.431  0.2414 -0.0992  0.0257
82250W        W25303  15.155  15.266  15.308  0.2331  0.3149  0.1604
82251W        W25304  16.263   3.128  21.089  0.0057  0.0661  0.0517
82252W        W25305  13.486  26.673  14.803 -0.0649  0.2024  0.2357
82253W        W25306  12.524  27.024  21.599  0.0304 -0.2012  0.2835
82254W        W25307  23.199   6.275  15.591 -0.2234 -0.0116  0.1396
82255W        W25308  32.992   1.195  23.512 -0.0432  0.2167 -0.1272
82256W        W25309  27.019  33.555  27.673 -0.0059 -0.1632  0.0870
82257W        W25310  21.379  15.974  16.599  0.1089  0.0103 -0.2357
82258W        W25311  10.428  25.999  23.957  0.0234  0.1548 -0.2044
82259W        W25312   1.474  15.068   7.790  0.1150  0.0470 -0.1466
82260W        W25313  18.851   0.531  19.050 -0.3194 -0.2123  0.1641
82261W        W25314  21.603  18.532  19.624  0.1227 -0.0958  0.2596
82262W        W25315   8.762  34.354  20.803  0.0959 -0.3962 -0.1283
82263W        W25316   8.681   3.956  15.600 -0.2997 -0.0945 -0.0961
82264W        W25317  12.926  30.793  18.084 -0.1828 -0.2048 -0.0321
82265W        W25318  18.971  13.291  26.902  0.1218  0.1412  0.0039
82266W        W25319  10.844  22.445  17.941 -0.3828 -0.1901 -0.4176
82267W        W25320  11.109   4.992  18.701 -0.3797 -0.1957 -0.1100
82268W        W25321  17.916  21.387  24.606  0.3418 -0.2018 -0.2647
82269W        W25322  27.229  24.453  23.927  0.4126 -0.0538  0.1637
82270W        W25323  19.985   7.138  27.688 -0.2997 -0.2503  0.1496
82271W        W25324  20.049   3.593  15.491 -0.2645 -0.0005  0.3128
82272W        W25325  13.720   4.859  22.552 -0.2034  0.0391  0.0149
82273W        W25326  28.570  34.287  26.733 -0.1461 -0.2106  0.4049
82274W        W25327  23.862  18.324  29.188 -0.1590  0.2270  0.1637
82275W        W25328   8.991  23.981   1.516  0.2071 -0.1927  0.0833
82276W        W25329  20.188  26.320  26.532  0.1698  0.0590 -0.1048
82277W        W25330  17.971  33.984   2.173 -0.2173 -0.3250  0.1653
82278W        W25331  16.007   7.002  21.064 -0.1401  0.1053 -0.0245
82279W        W25332  32.117  16.704  26.515  0.1647  0.1599 -0.1382
82280W        W25333  30.350   7.444  21.110  0.0837  0.0381 -0.2642
82281W        W25334  22.252   5.511  25.715  0.0913  0.1538  0.3567
82282W        W25335  13.898  29.561  13.823  0.0346  0.0220  0.0626
82283W        W25336  24.237  31.836  26.937 -0.2898  0.2551  0.2860
82284W        W25337  12.543   5.747  17.169  0.3522 -0.0311  0.0295
82285W        W25338   8.137  25.963  28.784  0.3430  0.1698 -0.0288
82286W        W25339   9.068   9.459  14.885  0.1228 -0.0800  0.1094
82287W        W25340  15.703  28.586  20.555 -0.0776 -0.2745  0.0578
82288W        W25341  23.195   6.170  27.695 -0.3877 -0.0074 -0.1465
82289W        W25342  10.235  12.761  26.253 -0.2624  0.1846 -0.0510
82290W        W25343  19.669  33.188  19.181  0.1639  0.2934 -0.3779
82291W        W25344  15.565   7.002  20.756  0.0816 -0.0606 -0.1703
82292W        W25345  15.591  34.227   3.901 -0.3061 -0.0651 -0.1003
82293W        W25346  16.333  24.179  22.888  0.2601 -0.1774 -0.0548
82294W        W25347   6.353  29.982  19.446  0.0209  0.0201 -0.0229
82295W        W25348  15.175  31.117  15.787  0.0722 -0.0771 -0.1442
82296W        W25349   5.271  24.095  25.468  0.1424 -0.3095 -0.0129
82297W        W25350   4.999  28.402  17.777  0.1148  0.1438  0.1016
82298W        W25351  14.459   4.656  23.506  0.0562  0.1933 -0.0610
82299W        W25352  30.096   2.345  27.229 -0.2828  0.4954  0.0640
82300W        W25353  17.717  25.840  27.104  0.0359  0.1143  0.0532
82301W        W25354  16.989   6.586  15.496 -0.1932  0.0275  0.2374
82302W        W25355  19.762   6.695  18.043  0.0399 -0.2043 -0.1792
82303W        W25356   6.584  32.848  20.942  0.0977 -0.0144  0.0059
82304W        W25357  13.757   6.234  22.702 -0.1522  0.1106 -0.3073
82305W        W25358  10.190   4.510   4.567  0.1296  0.1014  0.1176
82306W        W25359  14.021   8.510  24.556  0.1976  0.0030  0.0468
82307W        W25360  27.988   6.406  21.934  0.3370 -0.2139 -0.3563
82308W        W25361   2.215  12.302   1.044 -0.3084 -0.0380 -0.2359
82309W        W25362   6.983  19.120  19.525  0.1189  0.0984  0.3094
82310W        W25363  21.851   1.216  14.651 -0.2579  0.1250  0.1269
82311W        W25364  10.209  33.719  16.836 -0.1206 -0.0789  0.1525
82312W        W25365  20.870  22.120  25.154  0.1454 -0.1635  0.1100
82313W        W25366  21.541   5.118  27.098 -0.0340  0.0468  0.1585
82314W        W25367  19.772  25.084  24.852  0.1294  0.1662  0.2185
82315W        W25368  30.741  30.749   0.128 -0.1336 -0.2358  0.1592
82316W        W25369  18.830  22.117  19.616 -0.0170 -0.0433 -0.0981
82317W        W25370  22.793   6.611  19.603 -0.1508  0.1771 -0.0337
82318W        W25371  20.720  29.322   6.052  0.1851  0.0666 -0.0406
82319W        W25372   8.768  27.425  20.561  0.0118 -0.2612  0.0352
82320W        W25373  26.003  29.023  17.582 -0.3481 -0.1930 -0.6103
82321W        W25374  25.353  26.179  27.903 -0.3131 -0.0700 -0.1752
82322W        W25375  16.029   7.803  19.008  0.0701  0.0570 -0.2040
82323W        W25376  25.306  32.143  19.437  0.1162  0.0337 -0.1254
82324W        W25377   7.911  16.401  14.569 -0.0113  0.2008 -0.3367
82325W        W25378  23.856  14.404  18.109  0.3138 -0.2503 -0.2290
82326W        W25379  19.637  22.844  21.559  0.2469  0.0200 -0.1613
82327W        W25380  18.095   0.747  25.125  0.1341  0.1219  0.3402
82328W        W25381  23.785  27.130  22.383 -0.3141  0.0389 -0.1674
82329W        W25382   3.241  27.217  17.337 -0.1078 -0.2963 -0.1027
82330W        W25383  14.703  30.579  18.645  0.0009 -0.3933 -0.6292
82331W        W25384  10.526  12.446  23.175  0.4681  0.4028  0.2114
82332W        W25385  12.168  27.716  27.713  0.0970 -0.1338  0.1278
82333W        W25386  23.721  18.641  28.837 -0.0174 -0.3561 -0.1453
82334W        W25387  11.529   0.959  27.222 -0.1666 -0.2416 -0.0109
82335W        W25388  15.938  31.711  14.969  0.1432 -0.4124  0.3784
82336W        W25389   6.744   5.629   7.451  0.2623 -0.0290 -0.2250
82337W        W25390  11.814  31.502  16.042 -0.0588  0.1053 -0.3473
82338W        W25391  24.131   0.289   8.409 -0.3072 -0.0890  0.4455
82339W        W25392  19.225  26.464  17.463  0.1934 -0.3318 -0.0543
82340W        W25393  13.440   3.936  18.550 -0.0444  0.1103 -0.0260
82341W        W25394  21.082   8.912  21.447  0.1079  0.5072 -0.2038
82342W        W25395   3.244  25.249  26.326 -0.2255  0.0273 -0.0080
82343W        W25396  27.715  33.911  16.537  0.0801 -0.0633  0.0598
82344W        W25397   5.179   4.323   3.905  0.1632 -0.0089 -0.0654
82345W        W25398   6.373  14.633  27.475 -0.0803  0.1878  0.1993
82346W        W25399   8.338   2.301   4.331 -0.1880 -0.2222 -0.3375
82347W        W25400  13.529  29.388  14.174 -0.1078 -0.2887 -0.0446
82348W        W25401  34.200  13.521  18.586  0.1728  0.0463  0.3630
82349W        W25402  15.529   2.493  15.038  0.2553  0.2691 -0.0615
82350W        W25403  26.174  15.142  20.830 -0.3491 -0.0416  0.2353
82351W        W25404  24.046   3.028  14.714  0.1795  0.0048  0.2819
82352W        W25405  14.304  29.666   2.011 -0.0331 -0.0503 -0.0279
82353W        W25406  25.393  33.452  25.317 -0.2967 -0.1571  0.1909
82354W        W25407  34.028  13.581  27.070  0.2621  0.1701 -0.1711
82355W        W25408  14.049  17.179  24.072  0.4023 -0.0215  0.2101
82356W        W25409   1.955  23.158  13.974 -0.0417  0.0940  0.1651
82357W        W25410   7.591  33.142  19.041  0.0457 -0.0911 -0.0649
82358W        W25411  19.138   6.365  16.353 -0.3684  0.1544  0.0436
82359W        W25412  14.796  10.015   7.113 -0.1944  0.3817 -0.0169
82360W        W25413  15.366   3.216   0.457  0.0413 -0.0459  0.0103
82361W        W25414  27.807  12.988   0.849 -0.3307 -0.2705  0.1613
82362W        W25415  26.532  34.447   0.718  0.3530  0.0921 -0.1097
82363W        W25416  25.390  22.660  14.290  0.1960  0.1844 -0.2185
82364W        W25417   2.798   4.457   5.739  0.0838  0.2332 -0.1596
82365W        W25418   8.591  23.041  26.286  0.2623 -0.0858 -0.0828
82366W        W25419  15.028  34.507  17.192  0.4187 -0.0283 -0.0979
82367W        W25420   1.544  21.530  25.098 -0.2956  0.2249 -0.0159
82368W        W25421  21.773  25.894  21.143 -0.2610 -0.1088  0.0348
82369W        W25422  32.104   3.151  20.126  0.1514 -0.0266  0.0174
82370W        W25423   3.011   9.583   3.093 -0.0473 -0.3396 -0.3732
82371W        W25424  23.643  33.364   0.870  0.0226  0.0599 -0.0926
82372W        W25425   8.871  28.826  18.729 -0.1969 -0.1612  0.0116
82373W        W25426   9.211  15.461  17.418  0.2078 -0.1507 -0.1760
82374W        W25427  16.621  32.218  23.876  0.0215  0.1321 -0.0149
82375W        W25428  17.227   4.315  15.246 -0.0659  0.2340 -0.2132
82376W        W25429   3.710  29.537  21.846 -0.4243 -0.0655  0.0468
82377W        W25430  32.859   3.548  14.514  0.2159  0.0648 -0.1546
82378W        W25431  12.122  33.720  26.522  0.0096 -0.3040  0.1121
82379W        W25432  10.904   0.176  21.764  0.0604 -0.0745 -0.1724
82380W        W25433   4.211  13.563  21.651 -0.1105 -0.0260 -0.1808
82381W        W25434  14.714  31.477   5.047  0.0125  0.1603 -0.0056
82382W        W25435  31.849  26.988   9.847 -0.0602 -0.2859  0.2558
82383W        W25436  24.911  27.352  21.148 -0.0361  0.1658 -0.1098
82384W        W25437  29.120  13.551  29.176  0.0349  0.1880 -0.4555
82385W        W25438  15.147   5.631   7.835 -0.2329  0.0009  0.2426
82386W        W25439  27.114  19.099  16.720  0.0192  0.2722  0.0007
82387W        W25440  27.759  13.512   4.290 -0.1094 -0.2020 -0.3696
82388W        W25441  12.050  34.107  19.391  0.0871 -0.4594  0.0796
82389W        W25442  20.320   0.536   4.841  0.1148 -0.2885  0.1144
82390W        W25443  32.225   2.152  19.077  0.1083  0.2676  0.0057
82391W        W25444   4.698   8.760  24.110 -0.2115  0.2296 -0.0653
82392W        W25445  11.939  26.888  24.373  0.0678 -0.0491  0.0631
82393W        W25446  15.476   9.609  15.382 -0.0381 -0.2431 -0.2143
82394W        W25447  16.389   8.381  16.689  0.0237  0.0889 -0.0595
82395W        W25448  33.017   0.069   3.815 -0.0934  0.2522 -0.0789
82396W        W25449  19.680  17.050   3.939  0.4166 -0.0236  0.3416
82397W        W25450  18.380   7.941   5.710 -0.1387 -0.0269 -0.2105
82398W        W25451   2.978  28.542   0.847  0.1156 -0.2025  0.0515
82399W        W25452  12.295  10.538   3.502  0.2446 -0.0605  0.0541
82400W        W25453  15.971   7.784  19.742  0.3185 -0.2497  0.1670
82401W        W25454  18.196  31.791  14.871  0.1538  0.0267 -0.0856
82402W        W25455  26.585   3.333   1.057  0.2843  0.2602 -0.0968
82403W        W25456  18.535   3.007  27.743  0.0569 -0.4148  0.0023
82404W        W25457   6.066  26.215  15.814 -0.4572  0.1970  0.3036
82405W        W25458  22.437  34.392  24.096  0.0386  0.2755 -0.1932
82406W        W25459  21.702  25.563   1.005  0.2403  0.1428  0.1092
82407W        W25460  16.569  23.700  22.921  0.2099 -0.3720 -0.4727
82408W        W25461  18.166  26.451   9.377  0.1500 -0.0237 -0.2527
82409W        W25462   6.179  27.735   4.400 -0.0633 -0.0456  0.0859
82410W        W25463   5.633  18.572  16.458  0.0458 -0.1126 -0.0907
82411W        W25464  20.109   2.667  20.185 -0.0292 -0.1424 -0.0038
82412W        W25465  33.519  15.306  16.813 -0.0157  0.2504 -0.0267
82413W        W25466  19.103  20.695   9.184 -0.2970  0.2862  0.0732
82414W        W25467  20.345   5.743  27.943  0.0267  0.0685 -0.3025
82415W        W25468  28.550   3.647   1.119 -0.0998 -0.0882 -0.0567
82416W        W25469   2.974  15.401  19.908 -0.0778  0.0787  0.2904
82417W        W25470  11.998   9.829   0.647  0.3786  0.2702 -0.0123
82418W        W25471  31.689  34.676  19.797  0.0352  0.1522 -0.1337
82419W        W25472  27.465   8.758  28.036  0.1498 -0.0556  0.0440
82420W        W25473  31.470  24.241  18.461  0.3075 -0.0301 -0.0457
82421W        W25474   8.128   6.675  24.508 -0.0665  0.0199 -0.0027
82422W        W25475  29.634  11.978  27.536 -0.0490 -0.0722  0.2137
82423W        W25476   9.446  15.348   3.722 -0.1150 -0.0374 -0.0105
82424W        W25477  14.341  20.015  25.059  0.2423  0.0671  0.3799
82425W        W25478   8.577  23.908  15.269  0.0974  0.2078 -0.1431
82426W        W25479  15.811  34.225   1.466  0.0202 -0.1004  0.0632
82427W        W25480   7.643  33.160  27.129 -0.1625 -0.1583 -0.0865
82428W        W25481  26.041  31.176  28.679  0.2655  0.2022  0.0621
82429W        W25482  21.993  34.233   5.538  0.0750  0.1537 -0.3164
82430W        W25483  33.090   0.912  27.397  0.1968 -0.0336  0.0142
82431W        W25484  16.022   4.206  18.115 -0.2029 -0.1122  0.0388
82432W        W25485   9.805  31.904  22.303  0.2183 -0.0682 -0.0617
82433W        W25486  19.217  28.414  28.061  0.3363  0.0099 -0.1280
82434W        W25487   1.218   3.044  22.932 -0.2360 -0.3919 -0.2691
82435W        W25488  15.554   3.220  23.672 -0.1310 -0.2207  0.1127
82436W        W25489  30.450  29.571   0.916 -0.2880 -0.2228 -0.0638
82437W        W25490  23.350   5.059  22.006  0.3183 -0.0432 -0.0645
82438W        W25491   5.358  16.872  25.471 -0.2976 -0.3992 -0.1274
82439W        W25492  10.084   4.624  19.859  0.0897 -0.0574  0.0201
82440W        W25493  30.625  34.060   3.311 -0.1049  0.3296  0.0779
82441W        W25494  24.902  24.690  19.954 -0.1112  0.0393  0.0192
82442W        W25495   4.093   8.875  26.547  0.1185 -0.2374 -0.0286
82443W        W25496  11.600   0.280  27.307  0.2128  0.1050  0.1943
82444W        W25497   8.181  12.047  28.264  0.4577  0.1468 -0.0147
82445W        W25498  21.859  31.346  21.660 -0.0046 -0.0546 -0.2159
82446W        W25499  13.695  26.222  25.610  0.1168 -0.0314  0.0159
82447W        W25500  28.312  27.512  19.274  0.0224  0.0258 -0.2843
82448W        W25501  18.363   0.203  24.041  0.1713  0.2709  0.1359
82449W        W25502  20.331  26.336   6.334 -0.0034 -0.0352 -0.1349
82450W        W25503   6.501  29.253  21.989  0.1558 -0.1061  0.2889
82451W        W25504  25.839   1.814  26.244 -0.0937  0.1897  0.0170
82452W        W25505  18.802  32.396  15.902 -0.0470  0.0424  0.4871
82453W        W25506  25.851  22.468   5.032  0.2927  0.0113  0.2047
82454W        W25507  18.743  10.017  21.946  0.3085 -0.1018 -0.0809
82455W        W25508  26.733  16.282  17.105  0.1604  0.0730 -0.0566
82456W        W25509  14.237   1.908  25.691 -0.1822  0.0795  0.0880
82457W        W25510  29.170  22.304   3.900  0.0325 -0.2004  0.0566
82458W        W25511  18.756  29.927  17.499 -0.2022  0.2562  0.1240
82459W        W25512  24.644  30.352  23.575  0.0060 -0.2369 -0.2164
82460W        W25513  10.336  32.719  22.308  0.1881 -0.0590 -0.1253
82461W        W25514  22.515  10.024  16.636  0.1089 -0.0259 -0.0142
82462W        W25515  14.805  23.028  19.108 -0.2347  0.1870  0.2690
82463W        W25516  33.208  24.729  16.396 -0.2681  0.0914 -0.4486
82464W        W25517  30.185  12.820  21.120  0.0272  0.0419  0.0253
82465W        W25518  32.199  12.346  22.335  0.0188  0.0953 -0.1670
82466W        W25519  31.174  24.145   2.277 -0.0601 -0.0681 -0.3173
82467W        W25520  20.751  33.166   5.299  0.0064  0.1735 -0.0458
82468W        W25521  10.267   6.012  15.362  0.5160  0.1684 -0.0852
82469W        W25522  22.256   0.495  15.571  0.0953 -0.1547 -0.2440
82470W        W25523  33.996  29.768  29.055 -0.2350 -0.1632 -0.0951
82471W        W25524  18.632  31.380  18.178  0.4185  0.0302  0.1348
82472W        W25525   0.010  34.238   0.962 -0.2448 -0.0594  0.1516
82473W        W25526  18.122  26.962  22.241  0.1720  0.0992 -0.0794
82474W        W25527  21.751  17.566  18.383  0.1142  0.0749 -0.2173
82475W        W25528  22.145  31.031  15.824 -0.3904  0.0242  0.0071
82476W        W25529  14.782   8.242  23.450  0.1506 -0.0222 -0.3646
82477W        W25530  16.806  31.213  17.186 -0.0740  0.0824  0.0663
82478W        W25531   9.039  31.375  14.109 -0.1209 -0.2102 -0.0180
82479W        W25532  26.402  12.107  28.537 -0.0304  0.1527 -0.1089
82480W        W25533  14.631  10.342  14.911 -0.1358 -0.1528 -0.1166
82481W        W25534   5.348  19.539  21.783  0.3647 -0.2094  0.1323
82482W        W25535  32.305   6.147  17.953  0.4433 -0.0671 -0.4174
82483W        W25536  17.104  34.649   8.303 -0.1793  0.0023 -0.0806
82484W        W25537  17.845  15.211   2.064 -0.0760  0.1252 -0.1173
82485W        W25538  10.550   2.100  21.114 -0.0870 -0.2743  0.2256
82486W        W25539  11.360  29.888  21.356  0.1351  0.2096 -0.2417
82487W        W25540  25.698  30.307  27.475 -0.0065 -0.2642 -0.0312
82488W        W25541  14.832   4.809  18.613  0.2115  0.0435  0.0602
82489W        W25542  11.931  16.806  18.488  0.0576  0.0230 -0.2117
82490W        W25543  18.638  30.029  23.051 -0.4246  0.1864 -0.0938
82491W        W25544  26.884  12.417  27.943 -0.2501  0.0254 -0.3575
82492W        W25545  13.411  14.783   4.858  0.0450 -0.0336  0.1281
82493W        W25546  34.161  26.230   1.044  0.0691  0.0322  0.0626
82494W        W25547   4.995  21.587  15.686 -0.2148 -0.0714 -0.1949
82495W        W25548   3.013  30.965  14.826  0.2281 -0.3451 -0.3681
82496W        W25549  26.643  26.737  19.595 -0.0556  0.2774  0.0779
82497W        W25550   4.607   1.519   9.441 -0.2190 -0.0029 -0.1279
82498W        W25551  11.692   0.138   3.477  0.3710 -0.0471 -0.2520
82499W        W25552  12.688   8.133  19.853 -0.0053  0.0661 -0.0106
82500W        W25553   7.542  24.307  23.734 -0.1781  0.1159 -0.1904
82501W        W25554  20.718   2.070   1.270 -0.0879 -0.0976  0.0110
82502W        W25555   7.969   0.666  16.511 -0.0939 -0.1536  0.2232
82503W        W25556  16.825  32.557  14.170 -0.1629 -0.0144 -0.2670
82504W        W25557  14.702  24.399  27.967 -0.1837 -0.1635 -0.4395
82505W        W25558  14.765  21.990   2.631 -0.1985 -0.1911  0.1284
82506W        W25559  10.128   0.120  20.606  0.1446  0.0923  0.1450
82507W        W25560  20.209  21.172  17.083  0.2381 -0.1358  0.2705
82508W        W25561  12.317  24.779   4.283  0.1433  0.1271 -0.4763
82509W        W25562  15.303   6.037  22.930 -0.2341  0.1804 -0.0772
82510W        W25563  20.445  26.674   2.556 -0.1341 -0.2477  0.2148
82511W        W25564  13.473  24.159  26.541 -0.3152  0.4165  0.4085
82512W        W25565  28.155  31.359  17.924  0.3812 -0.2851 -0.1357
82513W        W25566  16.536   5.913   7.264 -0.1628  0.1263  0.0508
82514W        W25567   6.832  10.499   3.800 -0.0840 -0.0288  0.0348
82515W        W25568  10.125  28.320  12.460 -0.2430 -0.0820 -0.4976
82516W        W25569  31.424  31.746   0.915  0.2587  0.0110  0.4790
82517W        W25570  25.038  26.342   3.635  0.2318  0.1842  0.0339
82518W        W25571  10.619  25.874  16.030  0.0703 -0.0015 -0.2453
82519W        W25572   9.454  24.478  24.558  0.4676  0.2372  0.0720
82520W        W25573  20.681   1.821  18.269 -0.1355 -0.2230  0.0117
82521W        W25574  19.538   4.710  13.878  0.0099 -0.1362  0.5044
82522W        W25575  17.658   4.750   8.243 -0.1043 -0.0315  0.1559
82523W        W25576  24.724  17.325  22.046 -0.0891  0.0663  0.2049
82524W        W25577  18.286  28.569  18.067  0.0054 -0.0686 -0.1943
82525W        W25578  12.667  16.582   7.958  0.3129 -0.1587 -0.4335
82526W        W25579  13.640   5.128  15.303 -0.1142  0.1566 -0.4148
82527W        W25580   9.978  30.207  15.385 -0.4826 -0.0305 -0.0249
82528W        W25581  21.336   5.410  20.014 -0.0810 -0.0769  0.0316
82529W        W25582  28.350   0.356   5.124  0.2651 -0.0334 -0.2740
82530W        W25583  20.117  28.143  23.515  0.1893  0.1919 -0.1745
82531W        W25584   5.974  26.632   1.564 -0.1628  0.0158 -0.2397
82532W        W25585  18.324  29.622  18.575 -0.2093  0.0988  0.1323
82533W        W25586  14.213  24.679   2.551 -0.0858  0.1064 -0.2248
82534W        W25587  31.295  23.996  26.180 -0.0772 -0.1286  0.0880
82535W        W25588  17.543  24.155  19.262  0.2012 -0.0145 -0.5943
82536W        W25589  13.901  11.910   3.561  0.0457 -0.0337 -0.1173
82537W        W25590  23.546  21.955  25.053  0.1078  0.0254 -0.0628
82538W        W25591  24.395  11.604  19.170  0.2428  0.0848 -0.0163
82539W        W25592  22.488  11.880  24.139  0.1638  0.1396  0.2516
82540W        W25593   4.534  31.526   1.328 -0.3224 -0.2321  0.0285
82541W        W25594  31.956   4.812   2.297 -0.0245  0.0481  0.1946
82542W        W25595  31.334   6.360  14.476  0.1834  0.1259  0.0633
82543W        W25596   9.021  20.041  21.216  0.0242  0.0143  0.2205
82544W        W25597   3.403  18.587   2.254 -0.1093 -0.1635  0.1769
82545W        W25598  11.976  25.359  20.413 -0.2810  0.1893  0.1430
82546W        W25599   7.797   9.136  18.192 -0.0516 -0.1379  0.1144
82547W        W25600  31.468  15.416   2.065  0.2004 -0.0829  0.0038
82548W        W25601  14.325  31.402  14.653 -0.2976 -0.0976  0.1810
82549W        W25602   4.770  12.586  16.621 -0.0220 -0.1262  0.0542
82550W        W25603  28.509  34.495  25.323 -0.0251  0.0946  0.1315
82551W        W25604   4.144  28.415  20.146  0.0545 -0.1791 -0.2918
82552W        W25605   2.764  29.350   4.644  0.3367  0.0082  0.1782
82553W        W25606  17.157   0.097   3.047 -0.0658 -0.1337 -0.1318
82554W        W25607  23.360  31.563   7.424 -0.0530  0.0870 -0.1314
82555W        W25608  18.244  20.784   9.833  0.0926  0.2737 -0.2943
82556W        W25609   9.496  30.524  23.790  0.1571  0.3089  0.0075
82557W        W25610  15.073   5.030   2.646 -0.2283 -0.2813 -0.1966
82558W        W25611  15.908  29.808   8.624 -0.1809  0.1423  0.1175
82559W        W25612  22.476  34.549  15.728 -0.1275 -0.1133  0.0321
82560W        W25613  12.716  23.635  21.941  0.1850 -0.0448 -0.0341
82561W        W25614   9.471  30.561   1.962 -0.0197 -0.2018  0.0093
82562W        W25615  34.366  33.521   1.392  0.0505  0.1708  0.0806
82563W        W25616  32.938  29.866  25.757  0.0139 -0.1281  0.0506
82564W        W25617  15.601  23.428  23.204  0.1219 -0.2319 -0.1878
82565W        W25618   7.698  10.495  16.980 -0.0850  0.3010  0.0734
82566W        W25619  12.732  15.425  24.840  0.3477  0.1545 -0.0706
82567W        W25620  29.676  30.616  22.973 -0.3134  0.1418  0.2562
82568W        W25621  10.451  30.435   8.612 -0.1918 -0.1756 -0.1533
82569W        W25622  15.227   3.204   4.796 -0.1693  0.2474  0.3814
82570W        W25623  26.909   3.690  26.929 -0.0830 -0.2102  0.1089
82571W        W25624   7.365  25.383   5.337 -0.0284  0.2450  0.1002
82572W        W25625  12.183  28.259   3.458  0.2623 -0.2117  0.1827
82573W        W25626  10.446   0.812   3.623  0.0364 -0.1040  0.0297
82574W        W25627  20.523  24.440  16.830 -0.0741  0.3510 -0.2175
82575W        W25628  18.396  26.297  26.793 -0.2195 -0.1717  0.0511
82576W        W25629  21.940  22.418   7.024 -0.3133  0.0508 -0.0988
82577W        W25630  22.408  33.895  26.134 -0.1894  0.0510  0.2666
82578W        W25631  17.075   5.644   8.683  0.1184  0.0648 -0.1618
82579W        W25632   5.003   7.716  20.430 -0.0992  0.3295 -0.1169
82580W        W25633   5.654  32.541   1.342  0.0755 -0.0557  0.0146
82581W        W25634  22.501   6.521  28.073 -0.2289  0.3367 -0.1513
82582W        W25635  18.717   4.915  18.977 -0.1314  0.0125 -0.1843
82583W        W25636   7.033  27.182  28.790 -0.0684 -0.2038  0.1652
82584W        W25637  19.888  28.700   9.399 -0.2394 -0.1530  0.0737
82585W        W25638  20.935  26.681  28.342 -0.3371 -0.1779  0.1840
82586W        W25639  26.088  20.184  20.571 -0.1539  0.3109  0.1752
82587W        W25640  22.096   7.965  19.729  0.1941 -0.2153 -0.1060
82588W        W25641  32.265  33.569  19.220  0.0349 -0.1966 -0.2258
82589W        W25642  12.211  15.599   9.909 -0.1558  0.3606  0.2136
82590W        W25643  17.612  18.460   7.728  0.2072  0.2497  0.2310
82591W        W25644   5.799  22.262   7.760 -0.3954 -0.1472 -0.2473
82592W        W25645   2.070   0.638  28.978 -0.0376 -0.1359  0.1499
82593W        W25646  19.288  29.224   3.172 -0.1046  0.0304 -0.1844
82594W        W25647  20.307  23.496   4.744  0.1675  0.1813 -0.3327
82595W        W25648  17.132   6.726  19.267  0.0562  0.1019 -0.0486
82596W        W25649  18.830  29.477  17.656 -0.2597  0.1246 -0.1349
82597W        W25650  32.146  27.899  26.045  0.0021  0.1138  0.1874
82598W        W25651  19.026  16.115  23.219  0.2824 -0.0895 -0.3649
82599W        W25652  15.270   0.467   3.958 -0.2905 -0.0131  0.0721
82600W        W25653  23.330  32.140  25.685 -0.0255 -0.0086  0.1792
82601W        W25654  17.623   9.176  20.271  0.1957  0.2271 -0.0391
82602W        W25655  20.382  29.921   6.992 -0.3977  0.0290  0.2845
82603W        W25656  15.378   7.175   1.422  0.0786  0.1198  0.3640
82604W        W25657  10.662  28.366   1.600 -0.4147 -0.0000 -0.0129
82605W        W25658  24.872   7.303  25.641 -0.0351 -0.2438 -0.1653
82606W        W25659   5.009  23.932   5.872  0.1493  0.1603  0.2749
82607W        W25660  25.720   9.273   0.056  0.0635 -0.0943  0.0569
82608W        W25661   7.364  31.292   6.392 -0.2558 -0.0303 -0.3141
82609W        W25662  33.906  30.364  26.733  0.0396 -0.0942  0.1846
82610W        W25663  10.874  27.513   1.823  0.2683 -0.1505  0.2442
82611W        W25664  17.962  16.067   2.006 -0.2268 -0.0451  0.1879
82612W        W25665  16.749  25.028  10.131 -0.2941 -0.3344  0.2494
82613W        W25666  14.737   5.630   4.061 -0.1912 -0.3435  0.0689
82614W        W25667  33.891  27.430  26.051 -0.0242 -0.0528 -0.2713
82615W        W25668  29.670   1.977   5.785  0.0233 -0.0351  0.1884
82616W        W25669   0.348   0.286   6.680  0.0897  0.1353 -0.1391
82617W        W25670  27.271   4.921   1.975 -0.0631 -0.1822 -0.0010
82618W        W25671  20.277  28.721  29.010 -0.0121  0.2004  0.2115
82619W        W25672  23.332  12.491  15.676  0.1349  0.1255 -0.0738
82620W        W25673  32.801  25.456  25.048 -0.0349  0.2823 -0.4700
82621W        W25674  18.622  24.958  15.292  0.3254 -0.3718 -0.0983
82622W        W25675   5.080  20.221  25.655 -0.1277  0.0813  0.1377
82623W        W25676  17.510  19.553   2.174  0.0129 -0.1714 -0.4742
82624W        W25677   1.237  32.123   8.811 -0.0348 -0.0278  0.3418
82625W        W25678  10.564  24.843  23.294  0.3748 -0.1478  0.4783
82626W        W25679  14.083  11.125  26.155  0.0568 -0.0377 -0.0090
82627W        W25680  17.810  30.197  26.771 -0.0707 -0.3705  0.1036
82628W        W25681  11.377  27.448  20.841  0.0086  0.0151  0.1161
82629W        W25682  27.744   3.822  24.942  0.0527 -0.0356 -0.1196
82630W        W25683   5.432  15.948  16.953 -0.0388 -0.1807  0.3243
82631W        W25684  16.616  11.676   6.075  0.0522 -0.0224  0.1601
82632W        W25685  15.461  33.320  27.941 -0.1182 -0.2068  0.0120
82633W        W25686  16.570  22.664  15.306  0.1433 -0.2216 -0.2208
82634W        W25687  14.192  16.375   5.314  0.0495 -0.1781  0.0712
82635W        W25688  19.140  29.216  25.676  0.1985  0.3868  0.1842
82636W        W25689   7.479   9.625  28.576  0.0846  0.3207 -0.2149
82637W        W25690  10.504  16.591  18.929  0.2084 -0.1201 -0.1025
82638W        W25691   5.138  30.231  16.670  0.3056 -0.0755  0.0146
82639W        W25692  30.018  28.985   1.485 -0.1271 -0.1561 -0.2320
82640W        W25693  17.892  17.275  25.463 -0.0098 -0.0171  0.2429
82641W        W25694   1.656   1.582  18.605 -0.0662 -0.0192  0.1157
82642W        W25695  16.461  24.048   5.604 -0.2652 -0.0744  0.1423
82643W        W25696   9.961  27.760  14.111  0.1446  0.1485  0.2955
82644W        W25697  10.343  26.320   0.043  0.4166  0.0117 -0.1339
82645W        W25698  15.630  26.006  16.388 -0.1171  0.0647 -0.4235
82646W        W25699  12.326  27.669  24.639 -0.3332 -0.3190 -0.3072
82647W        W25700  13.111   9.036  17.905 -0.0762  0.0855  0.0561
82648W        W25701  20.959  28.833   7.304  0.1730  0.3339 -0.0542
82649W        W25702  15.359  27.173  20.607 -0.1125  0.1705 -0.2229
82650W        W25703   6.294  26.463   0.958  0.1281  0.0481 -0.1754
82651W        W25704  10.793  34.180  26.397 -0.0489 -0.1513  0.0605
82652W        W25705  34.430  25.698   7.921  0.1247  0.1098  0.0834
82653W        W25706  13.271  33.919   4.008  0.2607  0.0149  0.2484
82654W        W25707   5.666   6.590  27.920  0.1752 -0.0070 -0.1551
82655W        W25708   4.262  15.826  21.631  0.1099  0.3067  0.0347
82656W        W25709  34.440  22.608  24.358 -0.2931 -0.1657  0.0296
82657W        W25710  22.963  31.586   4.196  0.0770 -0.0398 -0.2544
82658W        W25711  12.464   9.428  16.058 -0.1792 -0.2588 -0.0221
82659W        W25712  12.998   4.745   9.282 -0.0829  0.0442 -0.0525
82660W        W25713  13.404  33.780  26.305 -0.1890  0.2537  0.1540
82661W        W25714  22.155   7.837   6.984  0.2670  0.0464 -0.2027
82662W        W25715   6.212  14.962   0.091  0.0652 -0.2608  0.1592
82663W        W25716  17.656  25.309  26.369  0.4665 -0.0614 -0.1568
82664W        W25717  10.063  27.110  19.816  0.2773 -0.1421 -0.1159
82665W        W25718  24.486   7.702  26.015 -0.1659 -0.1606  0.2346
82666W        W25719  22.632   7.026  27.905 -0.0486  0.0321 -0.0055
82667W        W25720  10.398  30.585   4.332 -0.0419  0.2521  0.3382
82668W        W25721   5.489  10.909  26.773 -0.3587  0.0765  0.4842
82669W        W25722  19.410  28.465  22.882  0.3627 -0.0932 -0.0598
82670W        W25723  13.140  30.663  28.030 -0.0604  0.0996  0.1443
82671W        W25724  19.332  15.071  22.163  0.0629  0.0344  0.0160
82672W        W25725  19.022  34.377  18.624 -0.1006  0.0528  0.2928
82673W        W25726   6.843   1.140  18.170  0.3341 -0.2108 -0.2050
82674W        W25727  29.065  22.442  23.558  0.0287  0.2256 -0.2530
82675W        W25728  21.981   3.192  19.864  0.1236 -0.0085 -0.0626
82676W        W25729  28.737   7.750  22.830  0.0636  0.0615  0.0294
82677W        W25730  15.674  28.979   9.057  0.1258 -0.2866  0.3344
82678W        W25731  24.303  31.337  25.761 -0.3014  0.0883  0.1173
82679W        W25732  12.522  16.237   2.714  0.1205  0.0141 -0.2027
82680W        W25733  22.335   4.683  28.013 -0.0624 -0.0103  0.2043
82681W        W25734  21.013  31.519  21.185  0.0383 -0.1090 -0.2006
82682W        W25735  10.523  23.317  15.072 -0.1480  0.0535  0.1029
82683W        W25736  25.561  23.286   2.144 -0.1228 -0.2616  0.1664
82684W        W25737  22.251   3.234  22.666  0.2207  0.1715  0.1391
82685W        W25738   6.447   6.998  20.209 -0.1120  0.1163  0.2261
82686W        W25739   4.084   2.622  20.860  0.0891 -0.2277  0.1254
82687W        W25740  11.836  14.334  17.709 -0.0021 -0.3446  0.1627
82688W        W25741   7.472   2.540  17.343 -0.0203  0.2417 -0.1754
82689W        W25742  28.241   3.319  27.471 -0.0971  0.0531 -0.0014
82690W        W25743  13.295  32.302   8.903  0.0855  0.0241  0.2442
82691W        W25744  13.613   3.801  17.367  0.0678  0.0515 -0.2273
82692W        W25745  26.583   5.750  18.725  0.1333  0.0432 -0.3018
82693W        W25746  11.401  12.096   7.129  0.1970 -0.2247 -0.2370
82694W        W25747  17.005  11.141   0.550 -0.0302 -0.1692  0.5071
82695W        W25748  22.843  29.351   1.483  0.0452  0.3278  0.1835
82696W        W25749   8.515  29.407  28.945 -0.2064 -0.3484  0.3206
82697W        W25750  24.547  31.069   8.993 -0.3023 -0.2341 -0.1057
82698W        W25751  22.802  32.491   6.577  0.1116  0.0074 -0.0482
82699W        W25752  21.622  13.541  28.542  0.3136  0.1527 -0.0144
82700W        W25753  26.753   5.828   6.102  0.0453 -0.0224 -0.1317
82701W        W25754  12.645   9.095   6.932 -0.1177  0.2541  0.0459
82702W        W25755  32.431  10.687   1.573  0.0909  0.3531  0.0037
82703W        W25756  33.321   5.521  23.700 -0.1198 -0.0850  0.2492
82704W        W25757  27.942  20.927   4.175 -0.0132 -0.0924  0.2108
82705W        W25758   3.235   0.658  20.400  0.0444 -0.2297  0.0436
82706W        W25759  20.466   8.165   5.025 -0.0723 -0.2418  0.2189
82707W        W25760  29.624   1.759  24.959 -0.0061  0.0761  0.2225
82708W        W25761  14.569  29.689  25.357  0.0960 -0.2497 -0.0982
82709W        W25762   4.429  32.522   7.726 -0.0370 -0.2339  0.0067
82710W        W25763  11.926  34.288   5.210 -0.2121  0.0121  0.0912
82711W        W25764  15.967  32.251  27.068 -0.0355  0.0680  0.1026
82712W        W25765  15.863  28.528  17.029  0.0109  0.0174  0.0341
82713W        W25766  23.134   7.039  20.855  0.0054 -0.1832  0.1320
82714W        W25767  12.580  20.117   9.415 -0.4945  0.1915 -0.0484
82715W        W25768   1.619  14.735   0.552 -0.1771 -0.0200  0.1434
82716W        W25769  22.330   2.533  26.863 -0.1676 -0.0584 -0.3193
82717W        W25770  16.685   1.764  10.404 -0.1103  0.2138  0.1295
82718W        W25771  31.002  25.795   6.972  0.1085 -0.1878  0.0622
82719W        W25772   9.596   3.074  21.493 -0.0531  0.2481  0.0941
82720W        W25773  12.646  16.779  17.988 -0.0830  0.1136  0.2214
82721W        W25774  26.187  25.470  19.529  0.5178 -0.1651  0.0308
82722W        W25775  12.471   0.391   2.965 -0.1151  0.3732 -0.2383
82723W        W25776   9.419  33.150  19.635 -0.3282  0.0146 -0.0500
82724W        W25777  22.908  10.303   1.893  0.1450 -0.0712 -0.1064
82725W        W25778  11.670  32.056  25.220 -0.0020  0.1704 -0.4194
82726W        W25779  24.138  26.401  28.015  0.4494  0.2468 -0.2644
82727W        W25780  26.384  24.543  26.679  0.2292  0.0220  0.2194
82728W        W25781  16.997   3.547   0.474  0.1776  0.1274  0.1344
82729W        W25782  20.798  28.847   5.820  0.0251  0.1278 -0.1884
82730W        W25783  14.466  23.472   2.705 -0.1400 -0.2908 -0.1230
82731W        W25784  19.067  24.893   4.184 -0.0578  0.1626 -0.2831
82732W        W25785  15.320   9.925  26.101  0.1668 -0.0063  0.0593
82733W        W25786   0.459  18.525  28.235 -0.0484 -0.1527 -0.0915
82734W        W25787  22.338  26.161   8.575 -0.3102 -0.1051  0.1248
82735W        W25788  12.041  26.102  18.707 -0.2153  0.2164 -0.0537
82736W        W25789   8.444  34.382  26.757 -0.1517 -0.0160 -0.0218
82737W        W25790  12.791  22.348   4.090  0.2112  0.0805  0.3816
82738W        W25791  31.164  19.498  20.938 -0.1455  0.2385 -0.2221
82739W        W25792   4.494  23.096   3.759  0.1748 -0.0002 -0.0351
82740W        W25793  16.902   7.769   1.186  0.2232  0.0564  0.0668
82741W        W25794   9.834   3.270  21.006 -0.1618 -0.0940  0.3292
82742W        W25795  22.759   2.475   4.949 -0.0710  0.2517  0.2716
82743W        W25796  11.693  22.071  20.940  0.1893  0.2961 -0.1173
82744W        W25797  17.210  25.965  11.182  0.0386 -0.2424 -0.3632
82745W        W25798  24.192   0.581  25.777 -0.4607  0.2956 -0.1903
82746W        W25799  15.141  32.020  15.481 -0.1754 -0.1575 -0.1613
82747W        W25800  21.841   7.053  27.667  0.0426  0.0749  0.0906
82748W        W25801  31.095  26.128  14.793 -0.1646 -0.0112  0.5543
82749W        W25802  13.436  19.487  26.654 -0.0745  0.2724  0.0774
82750W        W25803   0.594  23.704  22.290  0.1985  0.2547  0.3593
82751W        W25804  12.323  33.236  26.162 -0.1494  0.3000  0.1302
82752W        W25805  11.551   1.242   8.578 -0.1463  0.0164 -0.0270
82753W        W25806  21.380  32.558  19.085 -0.1705  0.1885  0.2353
82754W        W25807  18.882  23.546   0.956 -0.2802 -0.1245 -0.1184
82755W        W25808  20.226   0.323  20.608 -0.1677  0.0808  0.1021
82756W        W25809   8.494  25.257   0.016 -0.1523 -0.2187 -0.0805
82757W        W25810   9.686  17.074  26.716  0.0839 -0.0975 -0.0358
82758W        W25811  31.216  24.433  20.388  0.0492 -0.3458  0.0163
82759W        W25812  17.610  18.633  26.499  0.0201  0.0556  0.1032
82760W        W25813  15.112   6.915   0.775  0.0695  0.1533  0.1215
82761W        W25814   3.342   3.565  27.790  0.1621  0.0301 -0.0348
82762W        W25815  16.116   0.105  19.921  0.0090  0.1928 -0.1659
82763W        W25816  26.040  12.456   2.050 -0.4709 -0.3118  0.0281
82764W        W25817  31.552   1.950  21.667  0.0362 -0.1239 -0.4574
82765W        W25818  13.466  27.649  16.143  0.1356  0.1882  0.1569
82766W        W25819  23.076  32.309  16.131  0.1663  0.1081 -0.2368
82767W        W25820  11.210  22.193   7.217 -0.1825 -0.1291  0.3259
82768W        W25821  31.280  28.946   3.341  0.1567  0.1125 -0.3923
82769W        W25822  10.997   8.792  17.813  0.1532  0.0397  0.1113
82770W        W25823  26.906  22.410   6.298  0.1399 -0.0511  0.2827
82771W        W25824   2.774  10.041  28.631  0.0287 -0.0061  0.0947
82772W        W25825  18.107   8.211  23.014  0.1558 -0.0500 -0.2264
82773W        W25826  13.261   1.631   0.326 -0.0676 -0.2590  0.2584
82774W        W25827   0.921  33.479  22.437 -0.1366  0.1780 -0.2456
82775W        W25828  23.132   6.257   7.768  0.2167  0.4254  0.0424
82776W        W25829  21.290  34.679   2.219  0.0309 -0.1872 -0.0944
82777W        W25830  10.031  20.502   7.128 -0.0231 -0.0015 -0.3315
82778W        W25831  24.603  25.456  23.608 -0.0729 -0.2135 -0.2030
82779W        W25832  34.317   1.211  22.546 -0.0613  0.0323 -0.0328
82780W        W25833  14.287  18.006  14.948 -0.1312  0.1703 -0.1333
82781W        W25834  20.743  17.175  22.587 -0.2301  0.3389  0.0509
82782W        W25835   4.017  24.723   0.682 -0.1874  0.0366  0.0363
82783W        W25836   2.050   4.897  27.437  0.0642 -0.1642 -0.1095
82784W        W25837  21.435   2.846  10.613 -0.2698 -0.1626 -0.0252
82785W        W25838  27.224  17.836  18.312 -0.0679  0.0366  0.0958
82786W        W25839  20.630   7.383  26.047 -0.3797 -0.4054  0.1475
82787W        W25840  16.823  29.109  14.282  0.0572 -0.0739  0.0456
82788W        W25841  25.668  34.265   2.487  0.1122 -0.2422  0.2026
82789W        W25842  15.669  30.197   2.620 -0.2001 -0.0964  0.0337
82790W        W25843  14.520   4.659  24.690 -0.1396 -0.0273  0.1951
82791W        W25844  20.335  33.719  27.415  0.1061 -0.1198  0.2900
82792W        W25845  22.194  19.450  26.260 -0.1923 -0.0804  0.1801
82793W        W25846  27.189   7.222  21.404 -0.4036 -0.0359  0.0826
82794W        W25847  16.633   4.345  23.276 -0.1939 -0.0452  0.0443
82795W        W25848  13.823  24.451  23.694  0.1594  0.4102  0.0755
82796W        W25849  18.888  32.068  22.750 -0.1241 -0.2041 -0.1513
82797W        W25850   8.338   7.678   1.736 -0.0929 -0.0753  0.2897
82798W        W25851   6.696  26.616  23.794  0.0841 -0.0035  0.2100
82799W        W25852  33.659   3.692  22.042 -0.0695  0.4031  0.2009
82800W        W25853  30.709  22.842  18.369 -0.0734 -0.0099  0.0813
82801W        W25854  30.891   9.989  26.819  0.0067 -0.4641  0.1275
82802W        W25855  16.211   7.446  26.088 -0.4329  0.0856  0.0931
82803W        W25856   0.922  10.451  25.037  0.0647 -0.2979 -0.0557
82804W        W25857  14.142   2.312  20.552 -0.1126 -0.0847 -0.1741
82805W        W25858  21.200  16.093   7.960 -0.2854 -0.1656  0.4648
82806W        W25859  15.851   5.515  18.521 -0.0599 -0.1467 -0.1847
82807W        W25860  31.268   2.022   0.198  0.1887  0.3580 -0.3413
82808W        W25861  13.860   9.390  17.075 -0.0101  0.2906  0.4008
82809W        W25862   3.553  30.741  14.984 -0.1293 -0.2006 -0.0873
82810W        W25863  33.374   8.464   1.396  0.2240  0.0230  0.0728
82811W        W25864  19.047  23.511  16.403  0.0077  0.2179  0.0367
82812W        W25865  23.135  28.941  21.343  0.0491 -0.0199 -0.2775
82813W        W25866  17.174  30.525  18.912  0.4582 -0.3177 -0.1731
82814W        W25867  23.681   1.044  18.099 -0.1231  0.0360 -0.0123
82815W        W25868  25.399  34.626  17.073 -0.0702 -0.1393  0.1788
82816W        W25869  15.583   5.178  15.187 -0.1529 -0.0553  0.4722
82817W        W25870  15.938   4.102   2.857 -0.2064 -0.2020  0.0317
82818W        W25871  18.254   4.226  23.675 -0.0060 -0.0190 -0.0077
82819W        W25872  25.452  34.644  19.172  0.2620 -0.0795 -0.1187
82820W        W25873   4.581  16.442  20.654 -0.2623  0.0835  0.1430
82821W        W25874  12.873  25.862  17.993  0.1305 -0.1530  0.0739
82822W        W25875  19.218   2.416  21.426 -0.1214  0.3295 -0.0091
82823W        W25876  29.579  22.685  10.325 -0.0297  0.3557 -0.0587
82824W        W25877  23.405  28.003  26.259 -0.1669 -0.1138 -0.1443
82825W        W25878   2.649   9.583  20.837 -0.1932 -0.0679 -0.0138
82826W        W25879  21.869   3.262  27.851 -0.0106 -0.0231 -0.0717
82827W        W25880  17.841   5.912  16.380  0.1800 -0.2104 -0.4363
82828W        W25881  19.122  32.310  18.020  0.0303  0.0501  0.0777
82829W        W25882  15.975  15.038  24.640 -0.0880 -0.0682 -0.0194
82830W        W25883  15.304  11.644  21.373 -0.0126 -0.0350 -0.1024
82831W        W25884  20.543   6.674   3.374 -0.0945  0.1244  0.4155
82832W        W25885  10.994  15.572  16.005 -0.0795 -0.0371  0.0902
82833W        W25886  16.824   8.737  26.535 -0.0820 -0.0019  0.0100
82834W        W25887  31.816   1.579  15.640 -0.3020 -0.3259  0.2657
82835W        W25888   8.503  32.240  22.926  0.0848  0.3236 -0.0628
82836W        W25889  23.819  14.741  26.322  0.2026 -0.1328  0.2457
82837W        W25890  27.887  34.185  21.479  0.0040 -0.1192  0.2739
82838W        W25891   4.961  30.507  17.851 -0.1588 -0.4425 -0.0071
82839W        W25892  25.065  31.754  19.528  0.0291 -0.0479 -0.2473
82840W        W25893  18.779   5.071  17.320 -0.0669  0.0654 -0.2907
82841W        W25894  12.776   9.745  18.280 -0.0592  0.0493 -0.0673
82842W        W25895   7.146  26.552  24.709  0.1202 -0.0334 -0.2630
82843W        W25896  10.491  29.359  14.829  0.1090  0.1853  0.0317
82844W        W25897   4.095  24.002  15.277 -0.2763  0.0020  0.0797
82845W        W25898  12.202  31.586  17.777 -0.0445  0.0770  0.2506
82846W        W25899  23.080   6.285  14.146 -0.2331 -0.2567 -0.1591
82847W        W25900  26.022  20.123  25.437  0.0936  0.1302  0.1679
82848W        W25901  28.518  15.074  15.025  0.0845 -0.1966  0.1336
82849W        W25902  18.449  23.128  18.450  0.3213  0.0607  0.1865
82850W        W25903  11.999  16.150  14.632 -0.3029 -0.0304  0.1118
82851W        W25904   1.635  12.037  20.372  0.2121  0.0041 -0.0191
82852W        W25905  28.514   7.918  18.239  0.1681 -0.1135 -0.4209
82853W        W25906  13.108  30.586  23.927  0.1412 -0.4964  0.2974
82854W        W25907  26.195  21.176  20.166  0.1659  0.0818 -0.1320
82855W        W25908  27.668   9.364   4.192 -0.2999  0.2339  0.1827
82856W        W25909  19.828   8.450  17.961 -0.2130 -0.0652 -0.3312
82857W        W25910  12.217  29.881  18.285 -0.0645  0.2543  0.0564
82858W        W25911  11.238  27.497  21.648 -0.0774  0.2129 -0.0945
82859W        W25912  19.277   3.224  15.473  0.5179  0.1472 -0.0482
82860W        W25913   8.542  24.161  26.648  0.0844  0.1472  0.1955
82861W        W25914  19.930   1.453   1.637  0.2458  0.3091 -0.0140
82862W        W25915  24.171  30.484  25.394 -0.6708  0.0882 -0.2031
82863W        W25916  25.217   7.441  18.112  0.0319  0.2447 -0.2143
82864W        W25917  24.762  25.508  28.860  0.4145  0.1646 -0.0167
82865W        W25918  24.026  32.559  20.439  0.0221  0.0770  0.2968
82866W        W25919  20.430   6.040  27.088  0.1498  0.0461  0.0832
82867W        W25920   6.427  19.080  18.474  0.1413 -0.1695  0.1362
82868W        W25921   4.855  28.747  13.423 -0.0469 -0.2539  0.3712
82869W        W25922   1.296   1.594  17.311  0.2393  0.0912 -0.3998
82870W        W25923   5.786  27.304  24.901  0.2771  0.0864 -0.1048
82871W        W25924  17.036   3.677  17.477  0.1951 -0.1545 -0.0433
82872W        W25925   8.595  30.855  15.409  0.3150 -0.0255  0.3875
82873W        W25926  27.789   1.905  26.981 -0.0296  0.1744  0.3360
82874W        W25927  26.787   5.150  27.828  0.0505  0.1466 -0.1375
82875W        W25928  11.413   0.139  18.964 -0.2508 -0.4043 -0.0442
82876W        W25929  24.466  19.706  27.513  0.0920  0.1105  0.0647
82877W        W25930   8.924  30.220  18.628 -0.0124 -0.1419 -0.0470
82878W        W25931  29.959   8.719  21.322 -0.1618 -0.0255  0.3766
82879W        W25932   2.420   7.085  17.071 -0.0321 -0.3012 -0.2127
82880W        W25933  26.274  18.869  20.505  0.0763 -0.0508  0.1871
82881W        W25934  18.098  20.121  15.484  0.0292 -0.1705 -0.2704
82882W        W25935   7.774  32.532  29.080 -0.3078 -0.1152  0.0371
82883W        W25936   9.804  24.035  25.313 -0.2438  0.2183  0.0633
82884W        W25937  19.410   0.845  20.503 -0.1766  0.3395  0.2280
82885W        W25938   3.115  21.370  24.651 -0.1508  0.0584  0.1191
82886W        W25939   7.201   8.508  14.052 -0.2620 -0.1657  0.0142
82887W        W25940  17.052   7.262  17.679  0.3834  0.1983  0.5435
82888W        W25941  17.341   8.257  18.695  0.3681  0.0779 -0.1852
82889W        W25942  14.631   5.087  14.849 -0.0206 -0.1895 -0.0181
82890W        W25943  15.486   1.310  14.593  0.2610  0.0351  0.2425
82891W        W25944  15.841   9.795  27.804  0.0630 -0.0962  0.1053
82892W        W25945  12.719  30.660  16.018  0.1131 -0.1984 -0.1073
82893W        W25946  15.579   6.747  17.384 -0.5291  0.0483 -0.0149
82894W        W25947  31.655  24.242  22.088 -0.1082 -0.0744 -0.2286
82895W        W25948  21.483  28.403  21.076  0.2824  0.2300 -0.1333
82896W        W25949  16.505   8.029  19.939  0.2353 -0.2134 -0.1961
82897W        W25950  26.456  18.671  13.808 -0.3633 -0.0349 -0.1741
82898W        W25951  29.802  28.922  22.770 -0.1381  0.0761  0.1772
82899W        W25952  16.401   4.413  16.816  0.0502 -0.3053 -0.2792
82900W        W25953  21.060  27.532  14.510 -0.0497 -0.1646  0.1442
82901W        W25954  24.646   5.093  19.000 -0.0296  0.1906 -0.1230
82902W        W25955  18.065  33.961  14.717 -0.1657 -0.0848 -0.1715
82903W        W25956  20.425   5.554  17.793  0.2449  0.0264  0.0997
82904W        W25957  32.671  22.889   3.933 -0.3321  0.3012 -0.0672
82905W        W25958  20.182   9.063  21.498 -0.1641 -0.3139  0.5161
82906W        W25959  10.481   2.984  20.392  0.1077 -0.0780 -0.3183
82907W        W25960  18.036  30.743  15.167  0.1226 -0.0657 -0.0566
82908W        W25961  17.131  22.762  25.640  0.0109  0.1440 -0.0478
82909W        W25962  25.570   1.619  22.077 -0.2527  0.1348  0.2060
82910W        W25963   4.199  24.182  20.004  0.0625  0.0636 -0.2870
82911W        W25964  19.062  11.738  14.457  0.0772  0.0096 -0.2471
82912W        W25965  19.626   4.394  17.324 -0.0120  0.0376  0.2116
82913W        W25966  15.172  25.934   0.307 -0.2865  0.0455 -0.2162
82914W        W25967  23.424  28.506   9.141 -0.0194 -0.0424  0.4174
82915W        W25968  32.829   2.486  15.512  0.1603  0.0055 -0.1909
82916W        W25969  20.473  20.033  28.532  0.2390 -0.3055  0.1112
82917W        W25970  13.180   1.621  17.323  0.1053  0.1349 -0.1605
82918W        W25971  10.913  12.933  28.490  0.2237  0.1332  0.1327
82919W        W25972   2.744  14.010  13.374  0.0806  0.0086 -0.1047
82920W        W25973   0.394  17.461  26.337 -0.0283 -0.3452  0.1060
82921W        W25974  23.463  32.314  16.443  0.3056  0.1998  0.1375
82922W        W25975   7.396  13.214  16.933 -0.0307 -0.2511 -0.3016
82923W        W25976  17.144   7.368  19.619 -0.1120  0.0280  0.0408
82924W        W25977  19.246  20.167   2.776  0.2279 -0.0818  0.1223
82925W        W25978  25.717  28.832  19.114  0.1911  0.0331 -0.2436
82926W        W25979  29.473  33.317  21.692  0.0239 -0.0064 -0.3298
82927W        W25980   5.899   5.362  20.416  0.0854 -0.0055 -0.1112
82928W        W25981  21.603   3.190   6.681  0.3092  0.1226  0.2724
82929W        W25982   5.802  14.951  19.738 -0.2897  0.1645  0.0039
82930W        W25983   8.031  32.534  25.969  0.2078  0.3203 -0.1220
82931W        W25984  30.191  10.746  15.793 -0.0364 -0.1924  0.0527
82932W        W25985  13.212   7.800  23.785  0.0421 -0.2429  0.0847
82933W        W25986  30.167  34.625  19.231 -0.0292 -0.2091  0.3166
82934W        W25987   5.547   1.700  20.235  0.0898  0.0212 -0.3116
82935W        W25988  23.481   4.028  26.194 -0.1467  0.4125  0.1713
82936W        W25989   7.889   8.842  26.221 -0.2375 -0.0744  0.1722
82937W        W25990  25.121  20.983  14.849  0.3270  0.0904 -0.1444
82938W        W25991  28.496   8.069  22.457  0.1537 -0.0786  0.1291
82939W        W25992  12.998  33.981  28.926  0.1296  0.1729 -0.1813
82940W        W25993  16.198  10.241  19.759  0.1593 -0.0613  0.0729
82941W        W25994  10.446  33.707  19.360  0.3287  0.1493  0.0249
82942W        W25995  20.438   3.720  23.716  0.0133 -0.3232  0.0181
82943W        W25996  24.619  33.700  18.447  0.1186  0.1590 -0.0404
82944W        W25997  20.476  30.825  14.387 -0.2769 -0.1079 -0.3328
82945W        W25998  24.176  31.293  18.640 -0.0502  0.2542 -0.2575
82946W        W25999  22.670  13.937  15.917 -0.1967  0.2457  0.0799
82947W        W26000  16.125  28.161  22.673 -0.0382 -0.0828  0.1880
82948W        W26001  23.143   1.026   4.262 -0.3591 -0.4681  0.0788
82949W        W26002  24.820   7.604  16.710  0.1790  0.0115 -0.0205
82950W        W26003  25.087   1.370  16.809 -0.1184  0.3784 -0.1717
82951W        W26004  34.143   7.695  14.439  0.3248  0.1704 -0.0511
82952W        W26005  15.168   8.388  23.121 -0.1654 -0.1724 -0.0119
82953W        W26006  28.056   6.046  14.569 -0.0896 -0.1715  0.1387
82954W        W26007  20.480  28.952  16.121 -0.0699  0.0655  0.0104
82955W        W26008   5.621  28.904  20.224  0.2141  0.0677 -0.1055
82956W        W26009  14.544  33.409  23.668 -0.1468 -0.1628 -0.0583
82957W        W26010  23.626  19.217  20.117 -0.2871  0.1889 -0.2476
82958W        W26011   0.927  33.660  18.973  0.3257 -0.0476 -0.2110
82959W        W26012  23.468   6.503  18.021  0.1636  0.2560  0.2858
82960W        W26013   8.477   1.812  20.394 -0.0818  0.1386 -0.1724
82961W        W26014  19.647   6.306  20.604 -0.1947  0.3118  0.0147
82962W        W26015  28.807   8.241  16.383 -0.0611  0.1200  0.1624
82963W        W26016  19.719  21.917  23.861 -0.0210 -0.0135 -0.0496
82964W        W26017   8.585   4.225  17.562  0.1889  0.2185 -0.2314
82965W        W26018  27.177  25.999  16.771 -0.0213 -0.1644  0.1765
82966W        W26019   9.401   2.319  18.927 -0.2232 -0.1908 -0.1572
82967W        W26020  21.181   2.608   2.142  0.2867  0.0711 -0.1079
82968W        W26021  17.461  29.810  17.842 -0.0047  0.2202  0.1610
82969W        W26022  23.286  33.164  14.727 -0.0770 -0.1033 -0.3583
82970W        W26023  24.385  16.934  18.881  0.2583 -0.1366  0.1689
82971W        W26024  12.048   9.884  23.243  0.0313  0.1547  0.1057
82972W        W26025  20.087   0.318  22.849  0.0658 -0.0756 -0.3594
82973W        W26026  19.006  10.356  23.083  0.0047  0.0801  0.0568
82974W        W26027  22.303   4.004  18.153 -0.0845 -0.0531  0.0299
82975W        W26028  32.148  27.367  21.902 -0.2287 -0.1507 -0.0959
82976W        W26029   0.159   0.600   1.037  0.1351  0.5089  0.1036
82977W        W26030  17.596  32.230  24.002  0.1959 -0.6563 -0.1398
82978W        W26031  25.602   3.591  27.446  0.2369  0.3050  0.1087
82979W        W26032  21.997   4.045  21.268  0.3119  0.2619  0.0829
82980W        W26033   7.495  18.689   3.316  0.2369 -0.1556 -0.0160
82981W        W26034  15.083  33.736  18.255  0.0330  0.1542 -0.0593
82982W        W26035   1.782   7.897  15.584  0.0363 -0.2109 -0.1937
82983W        W26036  22.907  29.557  16.131 -0.0788  0.1682  0.1918
82984W        W26037  13.390   4.501  17.497 -0.0766  0.2102 -0.0935
82985W        W26038  22.570  27.299  24.477 -0.1400 -0.0501 -0.0419
82986W        W26039  21.527   0.948  16.630 -0.1702 -0.2676  0.0021
82987W        W26040  24.788   2.298  16.566 -0.2385 -0.4848  0.1125
82988W        W26041  17.828   9.036  21.050  0.2553  0.3176 -0.2169
82989W        W26042  13.680  29.533  14.643 -0.0319 -0.0947  0.1805
82990W        W26043  22.472   8.377  23.104  0.1533 -0.1038  0.0337
82991W        W26044  10.441   1.326  13.669 -0.0723 -0.1010  0.1438
82992W        W26045  13.271  31.215  14.557 -0.1352 -0.1432  0.1407
82993W        W26046  22.133   6.947   3.195  0.4020 -0.2417 -0.2488
82994W        W26047  22.647   5.503  19.408  0.2403  0.1380  0.0937
82995W        W26048  17.213   8.370  23.274 -0.3018 -0.0468 -0.0579
82996W        W26049   1.963   4.180  16.768  0.0350  0.4157  0.1382
82997W        W26050  18.408  24.071  23.353 -0.0615 -0.0783 -0.1105
82998W        W26051  17.745   2.657  20.670 -0.1269  0.2114  0.0379
82999W        W26052  33.181   2.429  16.862  0.0048  0.1157 -0.0978
83000W        W26053  23.971   6.686  21.040 -0.0072 -0.1246 -0.1203
83001W        W26054  13.040  12.846  16.176  0.1841  0.1186 -0.0940
83002W        W26055  34.050  18.359   0.902 -0.0660  0.4401 -0.0885
83003W        W26056  23.075  29.235  17.529 -0.0163  0.4637  0.2387
83004W        W26057  27.094   0.798  18.471 -0.0985 -0.2847  0.4472
83005W        W26058  24.650  21.128   9.259  0.0075 -0.0988 -0.0189
83006W        W26059  24.343  30.699  17.886  0.0512 -0.1906  0.0499
83007W        W26060  34.599  10.425  26.036  0.1660 -0.0620  0.1552
83008W        W26061  15.033  33.054  28.450 -0.1608 -0.2028 -0.4235
83009W        W26062  13.322  16.574  25.203 -0.0882 -0.0921  0.1098
83010W        W26063  17.101  21.977  18.953  0.2820 -0.1450 -0.1752
83011W        W26064  26.543   1.776  14.386 -0.0942  0.0862 -0.1738
83012W        W26065   2.193  18.429  24.400 -0.0926  0.0301  0.1120
83013W        W26066  27.649  26.647  23.282  0.3695  0.1355  0.0307
83014W        W26067  27.408  30.508  18.528  0.0463 -0.3243 -0.4340
83015W        W26068  26.649  33.958  24.520  0.2738 -0.2756  0.2462
83016W        W26069  14.382   5.575  23.700  0.0728 -0.0981  0.0545
83017W        W26070   1.169  28.738  27.310 -0.2000 -0.0982 -0.1283
83018W        W26071  20.515   2.908  15.349 -0.3499 -0.0523 -0.0692
83019W        W26072  11.566   0.925  20.343  0.1359 -0.0822  0.0783
83020W        W26073  21.663  23.680  19.464  0.0364  0.0331  0.3235
83021W        W26074  16.695  33.637  15.802  0.0167 -0.1655 -0.1904
83022W        W26075  22.183  23.613  19.410 -0.1556 -0.0724 -0.3448
83023W        W26076  24.795  23.056  14.440 -0.1708  0.0583  0.1328
83024W        W26077  12.180   7.085  25.426  0.2564 -0.1723  0.2767
83025W        W26078  18.944   1.033  23.118 -0.0410  0.3307 -0.1663
83026W        W26079  26.204  18.779  19.446 -0.0422  0.2112  0.0079
83027W        W26080  30.230   2.771  19.907  0.1791  0.0199  0.2738
83028W        W26081   0.771  31.600  14.635  0.0547  0.3122  0.0220
83029W        W26082  12.950   3.710  19.657  0.3730  0.1645  0.0562
83030W        W26083  13.851  15.328   9.426  0.2293 -0.1800  0.3174
83031W        W26084  27.500   4.150  17.718  0.1480  0.1798 -0.0948
83032W        W26085  32.608  29.352  16.485 -0.0422 -0.0392  0.0139
83033W        W26086  32.815  27.247  18.927 -0.0144  0.0245  0.2279
83034W        W26087  27.631  29.533  18.658 -0.2280 -0.1664  0.1463
83035W        W26088  20.366   6.526   7.375  0.0170  0.0624  0.2343
83036W        W26089  13.774   3.738  27.826 -0.0555  0.0169  0.1394
83037W        W26090  25.772  20.188  18.168 -0.2501 -0.1787 -0.1321
83038W        W26091   1.849  12.466  15.135  0.2832 -0.1515  0.1228
83039W        W26092   2.408   5.481  18.063 -0.1868  0.2145  0.3906
83040W        W26093  24.328   3.491  17.952  0.1104 -0.0666  0.0151
83041W        W26094  19.171   7.602  19.986  0.1410  0.1502  0.0249
83042W        W26095   2.791  26.842  14.620 -0.1579  0.0707  0.1147
83043W        W26096  11.017  15.555  15.077 -0.3402 -0.1079  0.2206
83044W        W26097   2.239   7.254  17.561  0.0451  0.1497  0.2230
83045W        W26098  10.999  34.612  24.227 -0.1142  0.1997 -0.1876
83046W        W26099  11.703  25.586  28.460 -0.0283  0.3343  0.0139
83047W        W26100  11.015  33.092  24.203  0.1214  0.4248 -0.2753
83048W        W26101  12.284   9.083  16.408 -0.1276  0.0523  0.1132
83049W        W26102   8.910  26.214  23.205 -0.0499 -0.2141  0.1047
83050W        W26103  19.495   6.108  16.646  0.4002 -0.1627  0.1511
83051W        W26104  23.425   3.908   0.107 -0.0978 -0.1952  0.1454
83052W        W26105  17.358   4.132  20.796  0.2556 -0.1920 -0.0590
83053W        W26106  30.375  17.047   1.217 -0.0972 -0.2860  0.2489
83054W        W26107  12.730  20.087  24.648 -0.1617  0.1174  0.1690
83055W        W26108  23.039   3.152  18.299  0.1656 -0.0873 -0.1427
83056W        W26109  28.880  28.477   6.556 -0.2251 -0.0417  0.0926
83057W        W26110  23.827   4.380  15.581 -0.3431  0.1607 -0.0879
83058W        W26111  18.640  24.828  16.829  0.1544  0.3275  0.0311
83059W        W26112  13.320  30.894  15.309  0.1082  0.0103 -0.1769
83060W        W26113  11.002  33.286  19.801 -0.0452 -0.0881  0.0036
83061W        W26114  25.014  34.056   6.543 -0.0570 -0.2508  0.1102
83062W        W26115  27.290  26.171  18.285  0.0272  0.0084  0.1773
83063W        W26116  15.611   3.934  17.697 -0.0607 -0.1798  0.0162
83064W        W26117   5.661  15.716  15.275 -0.2106 -0.0385  0.1176
83065W        W26118  18.306   8.160  22.199  0.0242 -0.0482  0.3225
83066W        W26119  14.487  26.363  17.898  0.0671  0.0450  0.0895
83067W        W26120  22.600   2.321  24.416 -0.2101  0.0799  0.2670
83068W        W26121  19.325  14.467  22.912 -0.2137 -0.1425  0.1336
83069W        W26122  16.346   1.518  17.609 -0.0796 -0.3142 -0.3959
83070W        W26123  18.745  11.629  24.793  0.2043  0.2725 -0.1682
83071W        W26124  21.842  17.697  21.623  0.1277  0.0060 -0.0945
83072W        W26125  18.107   0.842  17.851 -0.0890 -0.1874  0.3169
83073W        W26126  11.350  32.892   3.289  0.1136 -0.1721  0.1466
83074W        W26127  16.375  28.764  16.423 -0.1713 -0.0224 -0.4139
83075W        W26128  20.588  30.994  24.676  0.0341 -0.0205  0.3829
83076W        W26129  21.176  33.373  21.453 -0.0565 -0.0781  0.0399
83077W        W26130  23.858   3.125  19.646 -0.0567 -0.0240  0.1477
83078W        W26131  13.342  15.436  17.319 -0.2174 -0.2615  0.1885
83079W        W26132  17.811  30.046  21.672 -0.1475  0.1444 -0.0580
83080W        W26133  15.137   9.077  20.252  0.3161 -0.1299 -0.0259
83081W        W26134  30.189   3.609  28.042 -0.1575 -0.0760  0.0565
83082W        W26135  25.549  34.268  21.640  0.0095 -0.0834 -0.0828
83083W        W26136  30.190   5.288  18.308 -0.2441 -0.0356 -0.0091
83084W        W26137  32.875   8.893  14.790 -0.1605 -0.0694  0.1435
83085W        W26138  31.125   7.901  16.575 -0.1096  0.2181  0.3070
83086W        W26139  27.046   4.112  24.945  0.1088 -0.5108 -0.0155
83087W        W26140  22.504  33.054  20.278  0.0772 -0.2054  0.2081
83088W        W26141  25.835  30.602  27.833 -0.1131  0.1196  0.0650
83089W        W26142  28.183  29.335  13.586 -0.0909 -0.0449  0.2571
83090W        W26143  24.055  20.054  16.585 -0.0157 -0.0928  0.0071
83091W        W26144  11.847   8.492  21.869  0.0904  0.1070 -0.0839
83092W        W26145   6.409  33.490  23.284 -0.1660  0.3240 -0.2040
83093W        W26146  10.825  25.391  22.313  0.0305  0.1598  0.4152
83094W        W26147   5.900  18.677   8.749 -0.3505  0.1881 -0.1596
83095W        W26148  29.105   3.741  26.488  0.1126 -0.0467 -0.4585
83096W        W26149  11.306  25.899  15.718  0.0210 -0.2774  0.0110
83097W        W26150  14.545  31.852  26.956 -0.1908  0.0585 -0.0031
83098W        W26151  20.046   4.725  15.523 -0.0375  0.1378  0.2661
83099W        W26152  33.626  24.702  22.036 -0.0998 -0.1747 -0.0243
83100W        W26153  10.393  11.276  22.516 -0.1831 -0.0194  0.0834
83101W        W26154  22.868  31.687  28.128  0.3335 -0.0756  0.3304
83102W        W26155   8.200  26.538  18.094  0.0811 -0.2798 -0.0163
83103W        W26156  10.765   6.907  24.688  0.2304 -0.3252 -0.0777
83104W        W26157  30.597   0.989  17.974  0.2365 -0.2763 -0.1251
83105W        W26158   0.755  12.421  24.159  0.0313 -0.0204  0.2087
83106W        W26159  19.925  27.040  18.387 -0.2272  0.2145 -0.0311
83107W        W26160   9.061  20.669  14.056  0.0417  0.0073 -0.1462
83108W        W26161  21.459  14.814  20.878 -0.1158  0.0519 -0.3635
83109W        W26162   6.913  32.216  28.683 -0.2151  0.0891 -0.1899
83110W        W26163  16.413  32.287  18.208 -0.1171  0.3162 -0.0550
83111W        W26164  14.476  22.941  28.809  0.0106  0.1607 -0.2732
83112W        W26165  18.566  26.122  18.546  0.1097  0.2781 -0.1196
83113W        W26166  23.010  13.611  27.109  0.3442 -0.1928  0.2852
83114W        W26167  24.361  12.310  24.520 -0.1328  0.3499 -0.1283
83115W        W26168   4.719   0.120  25.867 -0.0731 -0.1300 -0.1933
83116W        W26169  23.295   7.112  25.474 -0.1001  0.3802  0.0757
83117W        W26170   2.589  27.795  15.342 -0.1710  0.3091  0.0848
83118W        W26171  21.404  11.570  19.309  0.0899  0.0968  0.0006
83119W        W26172  11.733  23.569  17.953  0.0280 -0.1825  0.2563
83120W        W26173  20.835  19.967  19.497 -0.5666  0.0221  0.1834
83121W        W26174  12.920  21.665  23.331 -0.0371 -0.0167  0.1260
83122W        W26175  28.749   8.192  25.962 -0.1894  0.4164 -0.0152
83123W        W26176  31.342   4.090  15.224  0.2939 -0.1041  0.0399
83124W        W26177  14.475   7.631  18.150  0.0607  0.1405  0.2817
83125W        W26178  28.609  26.605  26.330 -0.4221  0.1202  0.0397
83126W        W26179  23.110  28.273  18.914  0.0193  0.1033 -0.1315
83127W        W26180  15.573   5.679  15.098  0.2161  0.1366 -0.4158
83128W        W26181   2.033  34.035  17.690  0.1604  0.0657  0.0996
83129W        W26182  17.522  11.195  24.054  0.0871 -0.1141 -0.2678
83130W        W26183  22.111  28.716   6.129  0.2142  0.2827 -0.0998
83131W        W26184  25.495  19.683  15.572 -0.0073  0.0784 -0.0986
83132W        W26185  16.907  33.199  22.684  0.1251  0.0780  0.2867
83133W        W26186  15.798  23.898  22.928  0.0382  0.0839  0.1208
83134W        W26187   9.514  16.470  23.275 -0.2845  0.0473  0.4378
83135W        W26188  18.234  33.401  16.624 -0.0728 -0.3130  0.0925
83136W        W26189  25.265   8.363  23.421 -0.1892 -0.0064  0.0955
83137W        W26190  18.444   5.963  20.856  0.0437  0.1470 -0.0626
83138W        W26191  25.460   1.346  27.499  0.3801  0.1088 -0.0155
83139W        W26192  26.295   6.238  17.913  0.4755 -0.0511  0.1611
83140W        W26193  20.845  26.786  15.872  0.0502 -0.3519 -0.0824
83141W        W26194  30.869   0.130  22.190 -0.0611 -0.0902 -0.0429
83142W        W26195  21.232  20.908  17.326 -0.0234  0.2917  0.1952
83143W        W26196  32.878   2.129   0.631  0.0450 -0.1303 -0.0440
83144W        W26197  19.333  26.157  27.837 -0.1882 -0.0216  0.0837
83145W        W26198  12.471  33.070  20.053 -0.1854  0.2675 -0.2346
83146W        W26199  15.528   7.748  26.659 -0.0155 -0.1572  0.0711
83147W        W26200  24.485  27.226  28.198  0.4874 -0.0589 -0.3066
83148W        W26201  18.586   0.405   5.189  0.0927 -0.1336  0.0616
83149W        W26202  22.714   3.878  16.625 -0.0478  0.3411  0.3305
83150W        W26203  16.835   8.098  23.971 -0.1501 -0.4890  0.0100
83151W        W26204  22.381   0.411  23.222 -0.0223  0.2436  0.1505
83152W        W26205   8.542  25.867  18.793 -0.2869 -0.1000 -0.0820
83153W        W26206   7.704  31.988  20.608 -0.0049 -0.1235  0.3155
83154W        W26207  33.325  32.483  17.832  0.1523 -0.1662 -0.2166
83155W        W26208  25.152  12.740  19.656  0.0180  0.1569  0.1534
83156W        W26209   9.745  28.749  18.229  0.2085 -0.0300 -0.3205
83157W        W26210  12.854  32.319  14.914  0.2231 -0.2799 -0.1030
83158W        W26211  21.268  30.756  17.327 -0.2108 -0.3060  0.3397
83159W        W26212  12.655  10.703  25.516 -0.3526 -0.1884  0.0928
83160W        W26213  16.523  32.943  22.416  0.3292 -0.3825  0.1229
83161W        W26214  13.198  22.183  26.482  0.0487  0.1751 -0.2536
83162W        W26215   6.628  34.373  16.520 -0.0794 -0.1689 -0.0218
83163W        W26216  22.668  32.400  21.614 -0.0086 -0.0469  0.0927
83164W        W26217  12.197  24.862  18.478  0.0419  0.3137 -0.1458
83165W        W26218  11.069  27.048  19.758  0.0908  0.3095 -0.2118
83166W        W26219  24.455  34.117  22.751  0.1870  0.0918  0.0623
83167W        W26220   3.937   8.261  19.743 -0.3604  0.3843 -0.2942
83168W        W26221  28.853  22.654   4.470 -0.0381 -0.2047 -0.0984
83169W        W26222  20.067   1.453  21.409 -0.2132  0.0797 -0.1651
83170W        W26223   6.454   3.918  18.967 -0.5970  0.0247 -0.0283
83171W        W26224  27.961  30.226  28.101  0.2693  0.3325 -0.1710
83172W        W26225  22.336   1.453  24.015  0.2085 -0.2183 -0.2807
83173W        W26226  26.704  32.572  18.301 -0.0333 -0.1360 -0.1797
83174W        W26227  31.927  27.318  14.182 -0.0410 -0.2379  0.0525
83175W        W26228  27.592   2.961  20.500 -0.2267  0.0694 -0.0658
83176W        W26229   7.617   4.555   0.301  0.0511  0.0314  0.2283
83177W        W26230  25.420  24.615  20.914 -0.1207 -0.1328 -0.1073
83178W        W26231   8.205   1.635  26.331  0.1211 -0.1331 -0.2840
83179W        W26232  16.761  33.413   3.243 -0.2550 -0.0879  0.3755
83180W        W26233  20.888   5.913  14.520 -0.0145 -0.2761  0.6950
83181W        W26234  15.295   4.682  15.890 -0.1549  0.2516  0.0413
83182W        W26235  15.353   2.823  26.331  0.1887  0.2423 -0.1380
83183W        W26236  33.759   9.603  21.255 -0.0175 -0.3182 -0.0367
83184W        W26237  23.111  29.209  26.712  0.3081 -0.0733 -0.0185
83185W        W26238   9.962   2.704  18.897  0.2052 -0.0889  0.2296
83186W        W26239   9.193  18.728  27.303  0.0661 -0.1715  0.3351
83187W        W26240   6.521  29.682  21.663 -0.2584 -0.2351 -0.2036
83188W        W26241  33.469  16.404  18.083 -0.3756  0.3233 -0.1867
83189W        W26242  25.344  16.465  17.692  0.0328  0.1530  0.1880
83190W        W26243  29.808  25.662  18.287 -0.0186  0.0476 -0.0041
83191W        W26244   0.307   7.449  26.194  0.1779  0.0990  0.2519
83192W        W26245  18.770  25.720  18.353 -0.0749 -0.0893  0.0821
83193W        W26246  14.379  25.871  18.451  0.1894  0.5053 -0.1918
83194W        W26247  12.583  20.525  16.598 -0.2094 -0.2522  0.1434
83195W        W26248  19.915   6.792   9.396  0.2362  0.1836  0.1029
83196W        W26249  18.148  10.285  18.636 -0.2487 -0.2381 -0.4436
83197W        W26250  28.980  23.549  19.254  0.0060  0.2151  0.0922
83198W        W26251  11.557  27.094  24.723 -0.1545  0.1417 -0.3362
83199W        W26252  25.162  13.524  27.672 -0.1465  0.0813  0.2473
83200W        W26253  23.167  23.103  18.522  0.0289  0.2188 -0.1255
83201W        W26254  14.815  22.053  19.477 -0.0456 -0.0064  0.0700
83202W        W26255  24.292  33.459  22.922 -0.0739  0.0636  0.2575
83203W        W26256  13.117  16.878  19.399  0.3673  0.0487  0.1143
83204W        W26257  23.880  23.090  15.172 -0.0370 -0.1155 -0.3861
83205W        W26258  24.957  33.405  20.013  0.0260  0.0575  0.0471
83206W        W26259   9.799   0.488  27.664  0.2911  0.0818  0.2709
83207W        W26260   9.441  26.898  22.415  0.1295 -0.0213  0.0203
83208W        W26261  17.799  29.465  18.555  0.1373 -0.0639  0.0284
83209W        W26262  19.929  13.203  28.336 -0.1154 -0.1683 -0.1619
83210W        W26263  32.818  14.756  16.180 -0.1480  0.1046 -0.0784
83211W        W26264  22.667  20.836  18.423  0.1403  0.1783 -0.0309
83212W        W26265  22.944  13.836  17.455 -0.1154  0.3599  0.0315
83213W        W26266  21.166   7.156  16.383  0.1703  0.1475  0.3083
83214W        W26267   7.952  29.782  20.564 -0.0273  0.1333 -0.1720
83215W        W26268   5.542   1.420  26.505  0.2954  0.0511 -0.0646
83216W        W26269  26.088  28.588  26.152 -0.0406  0.0951  0.0387
83217W        W26270  21.510  18.299  16.655 -0.1181  0.0315  0.0168
83218W        W26271   5.739  26.776  19.457 -0.2066 -0.0438 -0.0621
83219W        W26272  25.056  10.214  21.721 -0.3585  0.0935 -0.2757
83220W        W26273  29.182  31.331  27.569  0.3644  0.0294  0.0134
83221W        W26274  27.000   8.081  21.140  0.1125  0.1951  0.0226
83222W        W26275   9.956   2.337  16.171 -0.5908 -0.0582  0.0159
83223W        W26276  22.110  11.017  27.927  0.1551 -0.4902 -0.0813
83224W        W26277  29.264  31.865  21.539  0.0497 -0.1771  0.0107
83225W        W26278  25.546  20.603  21.272 -0.1301  0.0204 -0.0264
83226W        W26279  30.153  26.105  16.086 -0.3199  0.0982 -0.1115
83227W        W26280   4.287  18.841  20.478  0.2725 -0.0575  0.1411
83228W        W26281  23.874  21.011  26.177  0.1388 -0.0795  0.1900
83229W        W26282   9.286  29.247  23.830 -0.3292  0.0391 -0.0151
83230W        W26283  28.869   7.679  20.004 -0.1071  0.1659 -0.0836
83231W        W26284  20.483  10.137  17.996 -0.0159 -0.2118 -0.2054
83232W        W26285  14.919   2.370  17.748 -0.0299 -0.2087  0.0988
83233W        W26286  23.347  26.604  16.937 -0.1519  0.0115 -0.1889
83234W        W26287   8.383   3.561  15.463  0.1324  0.0778  0.0869
83235W        W26288  12.935   8.216  17.220 -0.0073  0.1292 -0.1504
83236W        W26289  18.023  32.444  19.023  0.2222 -0.0674 -0.1043
83237W        W26290  12.349  21.485  18.814 -0.0060 -0.1388  0.1004
83238W        W26291  19.530  13.787  14.597  0.0377 -0.1755  0.1222
83239W        W26292  18.084  32.354  16.829  0.3520  0.0734  0.0370
83240W        W26293   7.382  33.445   0.273 -0.1429 -0.0191 -0.0521
83241W        W26294  12.180  14.324  23.896  0.2380  0.3615 -0.1278
83242W        W26295  27.323   9.701   8.341  0.0751  0.0670 -0.3833
83243W        W26296  15.655  31.277  26.509 -0.3087 -0.2231 -0.0374
83244W        W26297  24.646   7.000  24.345  0.0228  0.2015  0.0144
83245W        W26298  10.461  29.937  17.559  0.3118  0.3023  0.0005
83246W        W26299  28.126  18.010  28.022 -0.0502  0.0125 -0.0443
83247W        W26300  16.630   3.385  27.930  0.2653 -0.0498  0.0145
83248W        W26301  18.845  33.936  24.865  0.2403 -0.1176  0.0804
83249W        W26302  23.603  11.789   3.285 -0.6374 -0.0276 -0.2394
83250W        W26303   1.660   8.669  16.192 -0.0783  0.1947  0.0949
83251W        W26304  31.033  29.452  19.197  0.1810 -0.0916 -0.3024
83252W        W26305   7.366  21.204  22.105 -0.0642  0.0176  0.1379
83253W        W26306  31.069  13.302  29.041 -0.3232 -0.0062 -0.4753
83254W        W26307  23.792  17.347  24.424 -0.1494  0.3019  0.1348
83255W        W26308  24.651   0.277  27.564  0.1586 -0.1102 -0.2248
83256W        W26309  13.272   6.558  26.428  0.3401 -0.0891  0.1336
83257W        W26310  21.293  24.779  15.837  0.2512  0.0832 -0.0372
83258W        W26311  17.526  11.352  26.045  0.3320  0.0086  0.1375
83259W        W26312  29.613  24.918  14.318 -0.3001  0.1374 -0.2164
83260W        W26313  12.453  13.220  16.533 -0.0603  0.1762 -0.1659
83261W        W26314  12.289  28.894  21.288 -0.0696  0.0364  0.1832
83262W        W26315   1.055  30.199   7.528  0.0518 -0.1754  0.0044
83263W        W26316  10.863  13.456  21.053  0.1989 -0.3007 -0.1421
83264W        W26317  14.449   2.796  20.783 -0.2782  0.2051 -0.0522
83265W        W26318  13.643  28.993  15.457 -0.0615 -0.0881  0.1406
83266W        W26319  33.063  27.321   2.002 -0.3696 -0.1207  0.0026
83267W        W26320  15.030  29.442  20.001  0.0657 -0.2024 -0.1884
83268W        W26321   9.977  19.957  26.738  0.3538 -0.1774  0.1843
83269W        W26322  21.599  11.225   4.519 -0.0228 -0.3756 -0.0073
83270W        W26323  26.401   4.625  25.105 -0.0350  0.1618  0.1004
83271W        W26324  28.557  30.597  17.800  0.0893 -0.0658 -0.0558
83272W        W26325  17.519   4.046  15.651  0.0519  0.0009  0.2709
83273W        W26326  15.887   4.361  24.986 -0.0702  0.1029  0.0184
83274W        W26327  17.282  27.287  24.195  0.2236 -0.0372 -0.2327
83275W        W26328   4.300  11.537  20.495  0.1747 -0.0002  0.2603
83276W        W26329  18.579  16.095   5.315  0.0296 -0.0167 -0.0155
83277W        W26330  19.523   6.090  28.224  0.1615 -0.0390  0.0077
83278W        W26331  25.617  21.072  25.790 -0.1923  0.0015  0.1836
83279W        W26332  22.800   0.115   1.604  0.0039 -0.1564 -0.0022
83280W        W26333  32.254  17.546  24.926 -0.1592 -0.1828  0.0212
83281W        W26334  10.541   8.802  15.147  0.2301  0.1392  0.1818
83282W        W26335   0.281   0.424  22.283  0.1587 -0.0805 -0.0396
83283W        W26336  13.180  32.116  23.663 -0.0154  0.2274 -0.1095
83284W        W26337  20.745  18.643  19.639 -0.0082 -0.1723  0.2171
83285W        W26338  31.692  13.364  21.787  0.0519  0.2392  0.1049
83286W        W26339  29.171   6.070  15.914 -0.0440  0.0718 -0.2171
83287W        W26340   8.436   4.057  21.736 -0.2367 -0.2723 -0.0132
83288W        W26341  14.134   0.029  15.661  0.1122  0.1093 -0.0476
83289W        W26342  20.989  11.617  23.141  0.1680  0.4588  0.1306
83290W        W26343  19.695   1.528  23.614  0.2022 -0.0436 -0.1651
83291W        W26344   6.371   3.550  28.539 -0.0392  0.0213 -0.1344
83292W        W26345   1.321   1.478  21.062  0.2900  0.1072 -0.0517
83293W        W26346  25.217  13.289   1.038 -0.1227 -0.0794  0.0194
83294W        W26347  18.542  31.956  23.996  0.1493  0.0362 -0.1728
83295W        W26348  19.789   3.013  19.310  0.2756  0.1362  0.1439
83296W        W26349   9.673   3.178   8.637 -0.1196  0.3254 -0.0642
83297W        W26350  13.564  27.936  21.304  0.0513 -0.1497 -0.2339
83298W        W26351  32.906  17.839  16.712  0.0912  0.0640 -0.4131
83299W        W26352  23.225  15.386  14.393  0.2986  0.0997 -0.2431
83300W        W26353   1.661  34.502   4.166 -0.0728 -0.0150 -0.0870
83301W        W26354  24.522   3.038  23.820 -0.2027 -0.2502 -0.0796
83302W        W26355  22.718   7.780  21.063  0.0062 -0.3192 -0.0398
83303W        W26356  25.042   1.568  18.886 -0.0993 -0.0093 -0.0494
83304W        W26357  16.442  32.914  28.805 -0.0974 -0.0516 -0.4563
83305W        W26358  15.088   7.310  16.868 -0.3458  0.0919  0.0580
83306W        W26359  26.955  17.562  17.396 -0.2392 -0.2937  0.0032
83307W        W26360  12.628   7.688  28.194  0.3456 -0.0769  0.0144
83308W        W26361  29.427  32.661  22.767  0.1142 -0.0776  0.2102
83309W        W26362  20.366  18.469  14.006 -0.3105  0.1787 -0.2230
83310W        W26363  27.816  29.456   7.737  0.0782  0.4623  0.1010
83311W        W26364  12.041   1.106  14.484 -0.0940  0.0417 -0.2945
83312W        W26365   9.128  27.775  21.776 -0.0732  0.0427 -0.4085
83313W        W26366  13.800  30.542  20.787  0.0457  0.3050  0.3153
83314W        W26367   3.303  24.193  13.848  0.2463 -0.1751  0.0488
83315W        W26368   8.887  21.932  28.859 -0.0692  0.1099 -0.0921
83316W        W26369   9.972  23.340  24.142  0.0287  0.0697 -0.4543
83317W        W26370  20.535  10.646  16.817  0.0675 -0.0061 -0.0024
83318W        W26371  15.341  25.382  20.072 -0.1443  0.1142  0.0671
83319W        W26372  15.509  31.745  24.021  0.0508 -0.1755 -0.2073
83320W        W26373  12.175   1.801   2.526  0.1625 -0.1568 -0.1452
83321W        W26374  26.404   2.562   1.563 -0.1436 -0.0502  0.0006
83322W        W26375   6.013   4.697  21.961 -0.2699  0.1828 -0.3577
83323W        W26376  20.842   7.669  23.888  0.0931 -0.1980  0.1123
83324W        W26377  21.256   7.137  21.374  0.0183  0.0233  0.1343
83325W        W26378  12.746  32.525  22.561  0.0107 -0.1842  0.0387
83326W        W26379   6.647  29.586  17.140 -0.0349 -0.1008  0.0085
83327W        W26380  21.408  33.676  17.056  0.0692 -0.1285 -0.0581
83328W        W26381  21.536  16.793  18.497 -0.2972  0.1371 -0.0688
83329W        W26382  18.202   6.199  21.903  0.0828 -0.0018  0.2001
83330W        W26383  23.813  22.438  18.651 -0.2219  0.3366  0.3014
83331W        W26384   9.553   4.506  19.199 -0.2193  0.1026 -0.3049
83332W        W26385  17.162  28.313  24.591 -0.2094  0.3489  0.0247
83333W        W26386  17.388   8.707  18.970  0.1072  0.0097 -0.1696
83334W        W26387  18.295  12.686  15.103  0.0091 -0.2017 -0.0422
83335W        W26388  12.451  32.379  26.352 -0.0962 -0.0106 -0.0322
83336W        W26389  16.050   8.105  15.677 -0.0481  0.1538 -0.0502
83337W        W26390   9.783  16.293  28.198 -0.0987  0.3290  0.1549
83338W        W26391  20.262  33.450   6.230  0.0752  0.3796  0.0164
83339W        W26392  15.738   2.711   1.662  0.0331 -0.0219  0.2233
83340W        W26393   6.681  18.702   2.755  0.3320 -0.1478  0.1542
83341W        W26394  13.006  31.024   0.577  0.1026  0.2079  0.0098
83342W        W26395  11.662  33.039  14.831  0.3447 -0.1540 -0.1120
83343W        W26396   7.363   2.462  19.907 -0.2669 -0.0567  0.3797
83344W        W26397  14.868  22.494  15.510 -0.1268  0.3544  0.2034
83345W        W26398  19.010  22.536  14.650 -0.2072  0.0817 -0.4128
83346W        W26399  19.676  33.786   1.885 -0.3020 -0.1668  0.0698
83347W        W26400  12.894   5.464  16.227  0.0259  0.0539 -0.2661
83348W        W26401  11.607  21.317  27.099  0.0468  0.6322  0.2074
83349W        W26402  18.996  13.397  14.631  0.2082  0.0860 -0.1461
83350W        W26403  21.812  28.667  23.472  0.4205  0.3294 -0.1087
83351W        W26404   4.647   7.873  21.517  0.3857  0.0099  0.1214
83352W        W26405  25.807  15.346   0.141  0.0854  0.0583 -0.0848
83353W        W26406  20.919   0.739  21.117 -0.3058  0.1082  0.0425
83354W        W26407  11.708   0.757  15.196  0.0130 -0.1491 -0.0027
83355W        W26408  15.610  26.718   5.887  0.1594 -0.0354 -0.0799
83356W        W26409   2.647   5.131   5.918 -0.2328  0.0517  0.1784
83357W        W26410   9.150  23.087  16.343  0.0898  0.1547 -0.0572
83358W        W26411  27.127  28.474  20.932  0.0843  0.0452 -0.1252
83359W        W26412  10.272  26.004  27.670 -0.2307  0.0011 -0.0619
83360W        W26413   5.650  13.803   9.742  0.3171 -0.3139  0.2631
83361W        W26414  16.661   0.394   2.036  0.1177  0.3240 -0.1817
83362W        W26415  28.054  23.329  15.184  0.0857  0.1689 -0.0715
83363W        W26416  31.658  17.627  13.791  0.0853 -0.2845  0.1596
83364W        W26417   3.431  25.507  26.775  0.1404 -0.0925 -0.3206
83365W        W26418  13.241  19.386  20.792 -0.0543 -0.3323 -0.0960
83366W        W26419  27.339   8.188  14.588 -0.0349  0.0492 -0.1331
83367W        W26420  18.180  28.018  15.740  0.0658 -0.1969 -0.1700
83368W        W26421  15.568  31.539  19.868  0.0669 -0.2000  0.3584
83369W        W26422  17.934  32.062  17.212 -0.1583 -0.3105 -0.2035
83370W        W26423   0.557   5.996  17.774  0.2087 -0.3903 -0.0487
83371W        W26424  14.609   3.096   2.656 -0.0950  0.3044  0.2279
83372W        W26425  11.448  34.599  17.745 -0.2113  0.1710  0.0757
83373W        W26426  15.154   9.552   4.150 -0.2603 -0.0932 -0.1972
83374W        W26427  15.670  34.597  27.541 -0.0341  0.2900 -0.0125
83375W        W26428   7.687   0.962   0.956 -0.0044  0.0404 -0.3331
83376W        W26429  33.804   6.828   4.142  0.0305  0.0430  0.2190
83377W        W26430  15.615  10.768  26.186  0.4737 -0.0327  0.0867
83378W        W26431  30.383   6.862   1.448 -0.1533 -0.0948 -0.1587
83379W        W26432  20.380   2.208  26.906 -0.1177 -0.0906 -0.0886
83380W        W26433  16.350  34.048   3.461  0.4350 -0.1082 -0.5166
83381W        W26434   8.281  20.043  15.305  0.2624 -0.2056 -0.0190
83382W        W26435  27.552  29.870  15.520  0.1836  0.3589  0.0320
83383W        W26436  11.819  30.589  24.001 -0.2510 -0.3782  0.0519
83384W        W26437  17.137   7.503  27.000  0.0778 -0.0727  0.5407
83385W        W26438   6.110  11.660  20.951 -0.0945  0.0090  0.0437
83386W        W26439  24.430  23.630  17.468  0.3991  0.0020 -0.1634
83387W        W26440  11.822  13.289   6.696  0.3430 -0.1732  0.1905
83388W        W26441  25.409  30.782  14.909  0.1666 -0.2008  0.0254
83389W        W26442  26.173  22.266  19.985 -0.1648 -0.1117  0.3192
83390W        W26443  33.266   4.437   2.376 -0.1647 -0.3433 -0.0424
83391W        W26444  21.000  22.991  24.812 -0.3183 -0.1561  0.0394
83392W        W26445   0.045   2.259  16.736 -0.1806  0.2829  0.0355
83393W        W26446  29.479  27.545  23.719  0.0565  0.1267 -0.6318
83394W        W26447  24.810   2.674  18.907 -0.1189 -0.2085 -0.4113
83395W        W26448  28.341   4.739  22.539  0.1105  0.1583 -0.0710
83396W        W26449   7.860   5.953  28.365 -0.2483 -0.0391 -0.1710
83397W        W26450  29.102  33.215  28.906 -0.1530 -0.1991 -0.4310
83398W        W26451  19.865  11.151  19.727 -0.1646  0.0083 -0.2607
83399W        W26452  30.830  30.081  28.409  0.1044  0.0538  0.3644
83400W        W26453  12.553   7.169  20.353  0.4866  0.0809  0.1322
83401W        W26454  28.495   4.737   1.358  0.0799 -0.0397  0.1702
83402W        W26455  11.560  33.092  16.441  0.0580  0.1209  0.0164
83403W        W26456  15.687  29.729  21.100 -0.1216 -0.0616 -0.5044
83404W        W26457  11.314   6.643  22.384 -0.0938  0.3155  0.0724
83405W        W26458  31.942   6.171  28.751  0.0634  0.0616 -0.0112
83406W        W26459  16.042   5.040  21.243 -0.1869 -0.1595 -0.1033
83407W        W26460  10.483  34.620  18.459  0.2481  0.0615 -0.0768
83408W        W26461  31.586  21.828  22.421  0.0109 -0.0636  0.4250
83409W        W26462   0.635  22.012  25.436  0.1918  0.1136 -0.0775
83410W        W26463  24.864   0.141  14.714 -0.1555  0.0790 -0.3243
83411W        W26464   6.229   0.898  14.147  0.0800 -0.2390 -0.1259
83412W        W26465   0.521  30.855   6.284  0.1401  0.4157  0.3824
83413W        W26466   0.532   2.047  21.216 -0.2143 -0.0536  0.0863
83414W        W26467  19.670  22.352  14.483 -0.1663  0.0937 -0.3058
83415W        W26468   6.407  29.443  24.183 -0.0962 -0.0598 -0.0968
83416W        W26469  24.717  22.443  17.741 -0.0203  0.4184  0.1763
83417W        W26470  11.813  28.674  17.352 -0.0202 -0.1470  0.1602
83418W        W26471  30.331  34.003  27.931 -0.1218 -0.1435 -0.0304
83419W        W26472  10.752  24.624   0.881 -0.1491  0.1696 -0.2588
83420W        W26473  11.210  28.329  28.972  0.3218  0.2393 -0.1050
83421W        W26474  17.734   1.144  10.063 -0.1319 -0.2826 -0.1246
83422W        W26475  19.125   4.258  25.891  0.1183  0.0642  0.1669
83423W        W26476  19.238  15.937  13.636 -0.2612 -0.1746  0.5039
83424W        W26477   7.841  11.843  21.585  0.4090 -0.3355 -0.0287
83425W        W26478  28.482   4.060  19.848 -0.0590 -0.0347 -0.1018
83426W        W26479  21.902   8.719  19.323  0.1637 -0.2815 -0.1036
83427W        W26480   0.810  11.073  15.850  0.0837  0.2222 -0.0711
83428W        W26481  22.270  26.829  17.603 -0.1032 -0.1463  0.3855
83429W        W26482   4.744  27.936  15.395  0.2392 -0.0662  0.0323
83430W        W26483  11.840  29.254  14.443  0.0497 -0.1618 -0.0000
83431W        W26484  32.701   9.734  16.083  0.0813 -0.1684  0.3078
83432W        W26485  13.648  25.577  24.732 -0.2226 -0.2157  0.1557
83433W        W26486  34.365   2.672  23.351 -0.1953  0.3230 -0.0699
83434W        W26487  20.408  31.813  15.773  0.2030 -0.0012  0.1612
83435W        W26488  26.510   0.811  21.447 -0.1152 -0.0552 -0.0562
83436W        W26489  33.577   4.527  18.770 -0.0580 -0.4299 -0.1255
83437W        W26490  12.576  33.970  25.832 -0.2140 -0.1565  0.0527
83438W        W26491  30.572  33.127  21.769  0.1134  0.0992 -0.0368
83439W        W26492  22.020  27.326  16.694  0.1098  0.0720 -0.1276
83440W        W26493  19.047  25.032  19.577  0.2695  0.0621 -0.0510
83441W        W26494  14.823  25.554  28.121 -0.0401 -0.1173 -0.0356
83442W        W26495  12.129   3.076  23.291 -0.2722  0.0237 -0.2058
83443W        W26496  25.803  16.117  20.203  0.1761 -0.1800  0.0228
83444W        W26497  10.170   9.877   1.309 -0.3215 -0.1370  0.0065
83445W        W26498  16.912   0.162  24.050  0.1974  0.1438 -0.3934
83446W        W26499  27.548  14.309  28.540 -0.5459  0.0172  0.0923
83447W        W26500  13.074  14.258  16.855 -0.2199 -0.2486  0.1162
83448W        W26501  24.963   6.946  18.308  0.0754  0.2458 -0.1153
83449W        W26502  14.435  25.864  17.910 -0.2203  0.1353 -0.1254
83450W        W26503  13.817   7.079  16.006  0.0395  0.1287 -0.1705
83451W        W26504  33.040   1.357  21.695 -0.0590 -0.0473  0.2074
83452W        W26505  25.063  27.745  27.684 -0.0325  0.0888  0.2702
83453W        W26506  29.902  33.180  17.135  0.1066  0.0295  0.0417
83454W        W26507  20.489   8.966  16.168 -0.1586 -0.1992 -0.1272
83455W        W26508  22.088   8.356  17.823 -0.0359  0.2140  0.2632
83456W        W26509   8.961  10.412  15.850 -0.1156 -0.2344  0.1796
83457W        W26510  25.003  13.180  21.405 -0.2830  0.1330 -0.0339
83458W        W26511  32.713  30.245   4.762 -0.3124  0.2817 -0.0537
83459W        W26512  19.603  32.067  27.908 -0.2337 -0.1671 -0.3891
83460W        W26513  24.045  14.202   0.439  0.1911 -0.0348 -0.1669
83461W        W26514  19.687  32.058  19.293  0.1185 -0.2409  0.1857
83462W        W26515  13.374  25.374  25.754  0.1596 -0.0519 -0.1323
83463W        W26516  26.228  28.172  17.435 -0.2067 -0.1018  0.0222
83464W        W26517  32.555  34.652  16.304 -0.2112 -0.1234  0.3010
83465W        W26518  24.262  15.464  15.847 -0.2529 -0.1530  0.0199
83466W        W26519  19.569   7.719  21.549 -0.1413 -0.0261  0.2384
83467W        W26520  22.533   1.762   0.236  0.1740 -0.1990  0.1824
83468W        W26521  22.484  25.301  18.016 -0.4536  0.0286 -0.1042
83469W        W26522  28.761  33.746  28.432 -0.0741 -0.3425 -0.0944
83470W        W26523   9.733  11.237  24.786  0.1909  0.0290 -0.0229
83471W        W26524  25.847   3.537  21.779 -0.2515 -0.0461 -0.2190
83472W        W26525  25.101  21.284  23.095  0.0565  0.2002  0.3286
83473W        W26526  25.236  24.216  21.597 -0.2149 -0.0411 -0.0668
83474W        W26527  28.301  20.139   1.550 -0.0035 -0.1798 -0.5411
83475W        W26528  32.255   3.715   5.796 -0.0602 -0.0837 -0.2959
83476W        W26529  24.599  33.823  25.452 -0.0464  0.0801 -0.4841
83477W        W26530  24.036   9.430  29.012 -0.0321 -0.1255  0.0497
83478W        W26531  20.307  22.071  23.134 -0.0620 -0.1915 -0.0136
83479W        W26532  15.230   9.374  19.852 -0.0795  0.1311  0.1736
83480W        W26533  25.679  17.835  24.734 -0.0807  0.1172  0.0181
83481W        W26534  18.981  34.064  24.349  0.1687 -0.0433 -0.2782
83482W        W26535  24.286  30.175  20.933 -0.0704 -0.1951  0.0859
83483W        W26536  16.595  23.836  19.472 -0.1441  0.2976 -0.0487
83484W        W26537  16.584  17.959  14.503  0.2310  0.2447 -0.0185
83485W        W26538  13.322   4.423  29.088 -0.0203  0.2373  0.1897
83486W        W26539  12.475  33.831  28.519  0.2779  0.0271 -0.3513
83487W        W26540  26.615   0.874  18.704  0.2348  0.1055 -0.0150
83488W        W26541  27.789   4.475   4.932 -0.2279  0.0728  0.1587
83489W        W26542  20.099   1.416  15.969  0.2518  0.1679  0.3545
83490W        W26543   0.419  29.177  22.312 -0.1001  0.2204 -0.0420
83491W        W26544  34.329  17.826  13.640 -0.0099  0.0537 -0.1354
83492W        W26545   5.072   0.180  21.059  0.2547 -0.1193  0.2292
83493W        W26546   2.745   2.336  18.157  0.0552  0.3426  0.4241
83494W        W26547  32.598  21.145  27.990  0.0388 -0.4689  0.2186
83495W        W26548  21.369  31.454  16.776  0.0383 -0.2610 -0.1926
83496W        W26549  12.527  22.775   2.890  0.0042 -0.0424  0.0141
83497W        W26550  12.009   9.903   8.898 -0.3675 -0.1074 -0.0820
83498W        W26551   9.491   0.836   3.054 -0.1107  0.1545 -0.0942
83499W        W26552  26.798  28.194  20.690  0.1053 -0.1902 -0.4628
83500W        W26553  16.450   2.185  15.177  0.2088  0.2601 -0.0402
83501W        W26554  26.653  20.936  14.484  0.2932 -0.1978 -0.0753
83502W        W26555   7.403  32.958  21.373 -0.1838 -0.2017 -0.3683
83503W        W26556  32.631  17.740  21.471 -0.1181  0.0515  0.0847
83504W        W26557  32.677  33.967  27.998  0.2603  0.3471  0.0614
83505W        W26558   9.405  33.015  24.730  0.3232 -0.0223  0.0064
83506W        W26559  14.145   5.129  15.175  0.0098 -0.2043  0.0061
83507W        W26560  16.622   8.620  23.349 -0.1159 -0.2549 -0.3272
83508W        W26561  28.763  15.477  20.053 -0.0614  0.1137  0.3397
83509W        W26562  32.550  25.637  27.399 -0.3557  0.0163 -0.2771
83510W        W26563  26.787   3.634  19.609  0.1804 -0.3794 -0.3337
83511W        W26564  28.053  31.504  24.198 -0.1593  0.0030 -0.0394
83512W        W26565  15.094   4.202  25.977 -0.5562  0.1612  0.0825
83513W        W26566   5.685  28.118  19.604 -0.0442 -0.1159 -0.5134
83514W        W26567   0.719  10.008   2.066 -0.0275 -0.0183 -0.2725
83515W        W26568  22.056  18.049  26.214  0.0089 -0.1254  0.0288
83516W        W26569  10.708  16.239  26.539 -0.2746 -0.2544 -0.0759
83517W        W26570   5.583   1.384  15.092 -0.2847  0.2985  0.0890
83518W        W26571  17.460  29.844  22.029  0.0132 -0.0462 -0.4640
83519W        W26572  27.855  21.329   0.939 -0.0094 -0.0733 -0.0300
83520W        W26573  18.031  26.292  27.577  0.1280 -0.3073 -0.5505
83521W        W26574  17.355   8.296  14.860 -0.0970  0.1224 -0.4674
83522W        W26575   1.865   8.666  17.703 -0.1821 -0.0227  0.0039
83523W        W26576   3.061  34.442   2.402 -0.0134  0.1802 -0.2779
83524W        W26577   6.240  13.391  14.317 -0.1661  0.0911 -0.0550
83525W        W26578  26.884  11.025  14.013 -0.4897 -0.2704 -0.1806
83526W        W26579  28.247   7.378  13.843  0.2008 -0.1246  0.3785
83527W        W26580  13.395  16.351   5.318 -0.2026 -0.1519  0.2455
83528W        W26581  18.236  32.163   0.178 -0.0204  0.3141 -0.0854
83529W        W26582  17.523   3.137  28.006 -0.4559 -0.0997  0.0066
83530W        W26583  32.114  15.629  24.401  0.3884  0.1475 -0.1213
83531W        W26584  17.398   6.975   1.348 -0.1752 -0.1726 -0.5982
83532W        W26585   6.863  29.581  23.475  0.1202  0.0253 -0.4070
83533W        W26586  31.205   1.497   0.291 -0.2103 -0.0493  0.0171
83534W        W26587  22.559   2.141  22.885  0.0384  0.1571 -0.0619
83535W        W26588  20.534  20.619  16.730  0.5104 -0.0001  0.0091
83536W        W26589  15.762   8.665  19.964  0.1273  0.0246 -0.2269
83537W        W26590   4.195   2.501  18.158 -0.0437  0.0280  0.0801
83538W        W26591  18.723   7.637  16.444  0.1283 -0.1535 -0.1464
83539W        W26592  29.958  19.039  15.761 -0.3411 -0.3280 -0.0806
83540W        W26593  18.097   5.251  14.632  0.1516 -0.0644  0.1336
83541W        W26594  11.691   5.844  15.862 -0.1996 -0.0851 -0.0754
83542W        W26595  24.272  26.017  16.342 -0.0965  0.3408 -0.0417
83543W        W26596  24.468   5.562  25.417 -0.0208  0.1773 -0.0009
83544W        W26597  11.141  27.272  22.103  0.1834 -0.0322  0.0819
83545W        W26598  16.163   0.891  16.667 -0.1813 -0.1785 -0.0808
83546W        W26599  28.259  13.050  17.435 -0.3445 -0.0178  0.3010
83547W        W26600  10.564  28.444  13.123 -0.1864  0.3597 -0.3500
83548W        W26601  13.536  30.675  18.739 -0.5588 -0.1801 -0.1685
83549W        W26602  14.316  16.102  16.190 -0.1553 -0.3798 -0.0059
83550W        W26603  18.713  29.954   9.387  0.0503 -0.6133  0.0594
83551W        W26604  21.537   6.638  19.502 -0.2697  0.0531 -0.3366
83552W        W26605  28.927   0.088   3.525 -0.0690 -0.0023 -0.0905
83553W        W26606  25.001   2.802  16.870  0.1625  0.2096  0.1658
83554W        W26607  18.540   7.431  20.537 -0.1607  0.0555  0.2452
83555W        W26608  12.463   0.335  20.319  0.4996 -0.1241 -0.0033
83556W        W26609  18.785   1.097  27.075  0.2130  0.0254 -0.3617
83557W        W26610   2.297  30.015  22.604 -0.2633  0.0301  0.0209
83558W        W26611  15.737  27.396  19.067  0.0117  0.1526  0.2363
83559W        W26612  33.112  13.442  29.030 -0.0810 -0.3294 -0.0945
83560W        W26613  25.679   2.271   1.623 -0.0191  0.0132  0.0293
83561W        W26614  15.821   5.562   7.347  0.0255  0.2216 -0.1263
83562W        W26615  23.820  33.539  19.117  0.1572 -0.0597  0.1705
83563W        W26616  20.889   3.024  25.586  0.0686  0.1621 -0.2558
83564W        W26617  22.466  30.496  14.466  0.2033 -0.0646 -0.3977
83565W        W26618  18.099   5.409  23.198 -0.4561  0.3117 -0.1541
83566W        W26619  30.005  14.204  14.709 -0.3593 -0.2660 -0.0770
83567W        W26620  12.907  28.190   3.032  0.0316 -0.3900 -0.1717
83568W        W26621  24.555   4.098   0.890 -0.1601 -0.1742  0.0702
83569W        W26622  22.047  31.406   2.631  0.3055 -0.2016  0.1417
83570W        W26623   0.559  30.817   1.924  0.3932  0.0676  0.1328
83571W        W26624  17.842   4.960  25.279 -0.6823 -0.0834  0.2196
83572W        W26625  29.984   4.431  16.273 -0.2136  0.0486  0.0305
83573W        W26626  29.355  11.127  19.374 -0.1026  0.4925 -0.0341
83574W        W26627  17.266   1.894  16.111 -0.2039  0.0866 -0.3980
83575W        W26628  25.606   4.204  29.198 -0.0385  0.2037  0.3173
83576W        W26629  33.096   5.488  14.180  0.0052 -0.0219  0.0683
83577W        W26630   7.354  20.838  14.812 -0.2446  0.0696 -0.2131
83578W        W26631  29.768   3.562  14.375 -0.2170  0.0316 -0.0483
83579W        W26632  21.308   9.653  17.834 -0.1769 -0.2836 -0.2072
83580W        W26633   8.301  13.089   0.379  0.0393 -0.0213 -0.0940
83581W        W26634  20.339   7.111  19.871  0.3383  0.2985 -0.0773
83582W        W26635   7.915   5.035  17.952 -0.2252  0.1640  0.1110
83583W        W26636  12.387   9.484   3.216  0.3013  0.2093 -0.1547
83584W        W26637  24.233  32.884  17.434 -0.0261  0.2517 -0.4125
83585W        W26638  15.613  33.491  25.004  0.0520 -0.1343  0.1604
83586W        W26639  18.852  32.398  14.622  0.2214  0.2873  0.1350
83587W        W26640  23.982  29.324  15.284 -0.0228  0.1154 -0.1633
83588W        W26641  20.700  34.642  22.019 -0.1008 -0.1358 -0.1897
83589W        W26642  25.428   6.356  26.224 -0.0302  0.1202 -0.1286
83590W        W26643  19.770  13.618  23.922 -0.0803 -0.2838 -0.0651
83591W        W26644  16.940  30.556  21.787 -0.0615  0.0602 -0.0142
83592W        W26645  25.380   0.766  20.000 -0.0814  0.0151 -0.2617
83593W        W26646  13.438  14.517   1.792  0.0952  0.1612 -0.3578
83594W        W26647  12.566  23.227  16.538 -0.0475  0.0831  0.0673
83595W        W26648   7.889  16.102  18.306 -0.4145 -0.1990 -0.0045
83596W        W26649  18.903  30.587  21.028  0.1470  0.1875  0.1050
83597W        W26650  26.685  17.380   1.422 -0.4046  0.0311  0.5422
83598W        W26651  10.161  33.728   7.719  0.1432 -0.0829  0.0488
83599W        W26652  22.928  30.750   1.129  0.1910 -0.1595 -0.2368
83600W        W26653  20.236   3.491   3.128 -0.4752  0.3097  0.4653
83601W        W26654  29.615   4.113  22.378 -0.1139  0.1824  0.0784
83602W        W26655  23.785  27.578  28.309 -0.1648  0.0669 -0.1311
83603W        W26656  33.481   8.252  26.693 -0.2701 -0.2425 -0.1362
83604W        W26657  25.216  23.298  19.665 -0.0652  0.2725  0.2638
83605W        W26658  10.456  12.530  24.347  0.0910  0.0510 -0.1698
83606W        W26659  13.981  30.779  28.509  0.1751  0.1678  0.3647
83607W        W26660   3.509  21.165  26.780  0.0293 -0.1040 -0.2412
83608W        W26661  27.832  13.385   0.079 -0.3102  0.2262  0.2655
83609W        W26662  22.115  29.910  22.764 -0.1502 -0.3040  0.0886
83610W        W26663  12.623  30.878   2.125  0.0447 -0.1593 -0.0580
83611W        W26664  15.080  24.014  21.985 -0.0927 -0.0907 -0.0054
83612W        W26665  10.607  13.807  18.080 -0.0242  0.1929  0.1018
83613W        W26666  27.752  24.832  22.720 -0.1203 -0.1939 -0.0959
83614W        W26667  15.936   5.013   7.628  0.0018  0.0727  0.1435
83615W        W26668  21.444   4.842  25.171  0.2328 -0.3069  0.2246
83616W        W26669  26.977  25.942  26.825  0.1246 -0.0849 -0.1327
83617W        W26670  16.336   5.569  17.657  0.0750  0.0473  0.2756
83618W        W26671  27.450  20.353  18.666  0.1688  0.0845  0.1145
83619W        W26672  25.066   8.211  22.918  0.4051 -0.1891 -0.1505
83620W        W26673  16.717   9.095   9.634  0.0547  0.1911  0.0229
83621W        W26674  21.282   7.825  15.945 -0.1126 -0.1072  0.2118
83622W        W26675  31.935  27.600   4.401  0.2850  0.1384  0.0508
83623W        W26676  11.688  10.399  22.200 -0.1915  0.0679 -0.2080
83624W        W26677  16.765  10.113  17.339  0.1367  0.4006 -0.1870
83625W        W26678  11.569   3.352   3.842 -0.1850 -0.2505 -0.1152
83626W        W26679   6.508  10.078   1.586  0.1220 -0.3795 -0.1773
83627W        W26680  15.547   3.600  21.442 -0.0298 -0.4242 -0.0800
83628W        W26681  29.570  16.014  21.592  0.0459 -0.1931 -0.2223
83629W        W26682  13.397   3.134  24.863 -0.1629  0.0750 -0.0846
83630W        W26683   8.065  27.682  21.617  0.5819 -0.0518  0.1785
83631W        W26684  14.038  30.173  27.636  0.4704 -0.0146  0.1692
83632W        W26685   8.329  12.176  16.444 -0.0680  0.2252 -0.1341
83633W        W26686  27.472  21.012  13.696  0.2055  0.1607  0.0161
83634W        W26687  28.953   6.485  28.338  0.0503 -0.0635 -0.0568
83635W        W26688  15.234  31.278   0.165 -0.0421 -0.3710 -0.0697
83636W        W26689   9.415   8.258  18.497  0.3188  0.1602  0.0942
83637W        W26690  16.513  23.900   1.421  0.1492 -0.1792 -0.0995
83638W        W26691  32.692  28.457  24.869 -0.1093 -0.2216  0.5189
83639W        W26692  20.798   8.994  22.712  0.2530  0.3070  0.1009
83640W        W26693  11.922   2.513  15.900  0.0393 -0.2927 -0.1305
83641W        W26694  28.839   6.717   8.851  0.0218  0.0576 -0.1006
83642W        W26695  22.417  17.491   1.116 -0.3168 -0.2022  0.0611
83643W        W26696  12.284  28.821   4.803 -0.2578 -0.2410 -0.0012
83644W        W26697  17.141  23.667   7.385  0.0551 -0.0666  0.0466
83645W        W26698   1.992  33.769  22.127  0.0480  0.1271 -0.1291
83646W        W26699  25.253  14.287  17.681  0.3642  0.0446  0.1163
83647W        W26700  10.582   1.919   0.201 -0.0389  0.1082 -0.1205
83648W        W26701   8.982  27.345  27.026  0.0338  0.0361 -0.0425
83649W        W26702  20.418  24.187  27.413  0.3437  0.1611 -0.0217
83650W        W26703   0.340  10.301   0.988 -0.0099 -0.0476 -0.2486
83651W        W26704  18.640  22.055  21.640  0.2049  0.1542  0.2509
83652W        W26705  20.293   8.223  25.965  0.2893  0.0179  0.2905
83653W        W26706  13.404  17.119  21.152 -0.2211  0.1967  0.0109
83654W        W26707  34.341   5.381   0.821  0.0434 -0.0914  0.2554
83655W        W26708  14.234  28.618  21.747  0.0042 -0.1672  0.2887
83656W        W26709   4.474   8.040  19.681 -0.2492 -0.0893 -0.1409
83657W        W26710  24.027   4.859   6.348 -0.1884  0.0775  0.2652
83658W        W26711  25.002   1.002   1.096  0.2329 -0.1799  0.2269
83659W        W26712  18.205  15.497  14.945 -0.0262  0.0734 -0.1732
83660W        W26713  22.583   2.038  17.280 -0.0515 -0.1884 -0.0154
83661W        W26714  12.606   3.814   2.856 -0.1564  0.1347  0.1825
83662W        W26715  22.026   3.310  21.471  0.1877  0.0777  0.1742
83663W        W26716  27.086   8.944  19.697 -0.0298 -0.3781 -0.3244
83664W        W26717  18.958  33.074  18.524  0.1306 -0.1769 -0.0842
83665W        W26718  25.978  30.809  26.872  0.1741 -0.0369  0.1657
83666W        W26719  28.703  26.720  17.644 -0.0770  0.0959  0.1740
83667W        W26720  18.731  31.871  25.402 -0.2099  0.1085  0.1892
83668W        W26721  25.239  24.323  15.293  0.0243  0.3039 -0.2607
83669W        W26722   0.468   2.362  15.811 -0.2312 -0.2653 -0.3044
83670W        W26723  10.761  33.265  20.777 -0.3516 -0.1429  0.1016
83671W        W26724  17.871  30.961  28.877  0.5297  0.2653  0.0647
83672W        W26725  11.643  16.496   2.330 -0.0477 -0.0157 -0.1830
83673W        W26726  27.849   7.381  28.278  0.2728  0.1728  0.0173
83674W        W26727  10.390   1.229  25.481  0.1402 -0.1686  0.1600
83675W        W26728  25.671   5.581  24.335  0.2996 -0.2210  0.2019
83676W        W26729  30.926  32.088   0.129 -0.1601  0.0983  0.0257
83677W        W26730  18.898  13.500   4.629 -0.3246  0.0637 -0.0794
83678W        W26731   2.771  16.622  28.486  0.1051 -0.0694 -0.1084
83679W        W26732  10.542   4.516  14.711  0.1039  0.0210  0.2944
83680W        W26733  21.404  30.010  16.555  0.4570 -0.2652  0.0819
83681W        W26734  19.962  21.162   6.262  0.3254 -0.2660  0.0872
83682W        W26735   4.401  23.054  16.763  0.2071  0.0772 -0.0285
83683W        W26736  16.808  25.934  21.804  0.0694  0.2947  0.5351
83684W        W26737  22.640   0.008   4.266  0.0843 -0.2007  0.3841
83685W        W26738  11.738   0.715   6.944 -0.1168  0.0031 -0.1787
83686W        W26739  15.659   1.175   8.608  0.2087  0.2215 -0.1296
83687W        W26740  18.643   7.871   2.351  0.1083  0.1007 -0.2084
83688W        W26741  28.168  34.679  20.616  0.2585  0.3734 -0.0171
83689W        W26742  10.461   0.422   3.254  0.0271  0.0025 -0.0207
83690W        W26743  12.504  30.417   3.543 -0.1483  0.0137  0.1431
83691W        W26744  23.071   7.240  24.310  0.2875 -0.0790 -0.1806
83692W        W26745  27.638   0.899   1.127 -0.0353 -0.2014  0.4244
83693W        W26746  17.270   2.822   2.927  0.1728 -0.1818  0.3158
83694W        W26747  25.280  26.108  25.224 -0.0728  0.4366 -0.1153
83695W        W26748  30.499  21.664  28.130  0.1105 -0.1088  0.1903
83696W        W26749   4.540   6.196   3.175  0.0247  0.0977 -0.1046
83697W        W26750  25.307   6.723   5.681  0.1607  0.0726  0.0200
83698W        W26751  17.067   2.087  20.164  0.1406 -0.2098 -0.0574
83699W        W26752  12.433   1.152  18.877 -0.1580 -0.0621 -0.0979
83700W        W26753  14.838   9.508  19.595 -0.0328 -0.1488 -0.1491
83701W        W26754  30.041   2.863  15.220 -0.0417  0.0186  0.2124
83702W        W26755  26.178   6.883  22.939  0.0126 -0.1923  0.2776
83703W        W26756  28.227  18.078  21.063  0.2111 -0.2781  0.2808
83704W        W26757  28.128   2.880  15.805 -0.0396  0.0543  0.3396
83705W        W26758   0.193  33.610  27.076 -0.1641 -0.1142  0.1398
83706W        W26759  12.523   2.832  16.196  0.0006  0.2284  0.1525
83707W        W26760  22.782  34.323  19.038  0.0024 -0.0107  0.3206
83708W        W26761  11.085  12.631   0.616 -0.0362  0.1730 -0.2550
83709W        W26762  14.187   5.079  20.508 -0.4999  0.2473  0.0899
83710W        W26763   6.659  30.724  26.791  0.0735  0.0051  0.0039
83711W        W26764  18.554  32.578  17.015 -0.1269 -0.1570  0.0341
83712W        W26765  16.825   0.566   6.902 -0.1429 -0.1786  0.0313
83713W        W26766  16.599   7.079  28.587  0.1243 -0.0189  0.2110
83714W        W26767  28.400  14.355  20.725 -0.2044  0.1660 -0.1886
83715W        W26768  28.571   9.131  23.069  0.1023  0.0075  0.0366
83716W        W26769  18.229  29.949  28.032 -0.0209 -0.1360  0.3082
83717W        W26770  11.690   8.910   4.445 -0.3853  0.0746 -0.3339
83718W        W26771  15.347  13.903  29.045  0.0096 -0.0595  0.1410
83719W        W26772   2.263   2.969  23.667  0.0766  0.1168 -0.0570
83720W        W26773  34.305   3.741  25.973 -0.1663  0.0279  0.0066
83721W        W26774   8.410  26.578  20.655 -0.0295  0.1375  0.2764
83722W        W26775  17.266   5.567   8.212  0.2675  0.2329  0.1691
83723W        W26776  16.512   6.010   1.480  0.0863  0.3233 -0.1707
83724W        W26777   9.758   0.099  19.030 -0.2538 -0.2862 -0.1527
83725W        W26778  13.975  32.323  29.004  0.0503 -0.0007  0.2926
83726W        W26779   8.363  21.216  23.731 -0.1683  0.1375  0.2113
83727W        W26780  26.857   2.453  17.801 -0.5452  0.3010  0.0610
83728W        W26781  12.083  20.922   0.933 -0.1835 -0.2007  0.2078
83729W        W26782  26.991   0.941   2.665  0.0916 -0.0399 -0.0791
83730W        W26783   5.334  30.196  22.551  0.3240  0.0340 -0.4455
83731W        W26784   9.469  18.587  15.007  0.2571  0.0381  0.0743
83732W        W26785   2.690  22.547  27.983  0.0471 -0.0978  0.1978
83733W        W26786  20.843  31.876   7.647 -0.0034 -0.1042 -0.1659
83734W        W26787  23.122   7.236  27.188  0.1080  0.0278 -0.0826
83735W        W26788  23.929   2.204  24.108 -0.0465  0.0595  0.2641
83736W        W26789  30.454  15.250  16.229  0.0331 -0.2559  0.1007
83737W        W26790  17.871   7.082  23.433 -0.1957 -0.0294  0.2434
83738W        W26791  28.320  20.878  13.987 -0.3540 -0.0331 -0.0526
83739W        W26792  22.066   7.050   0.552  0.0314  0.2378 -0.1283
83740W        W26793  25.658  30.893   8.131 -0.1509  0.3261 -0.0274
83741W        W26794  24.032  32.517  17.720 -0.0977 -0.0801 -0.2324
83742W        W26795  27.277  28.454   2.760  0.0046  0.0051 -0.0464
83743W        W26796  12.181   3.543  23.293  0.2458 -0.0503 -0.0660
83744W        W26797  16.067  26.102  24.584  0.2160 -0.3791 -0.2146
83745W        W26798  24.206   0.656  15.105  0.1635 -0.2263  0.0676
83746W        W26799  13.801  29.449  15.449 -0.1623  0.2513  0.1234
83747W        W26800  25.653   7.152  15.847 -0.2189  0.0740 -0.1172
83748W        W26801  14.455  28.984  16.609  0.0997 -0.0283  0.0769
83749W        W26802  27.385   2.791  26.193 -0.0536  0.0077  0.4260
83750W        W26803  24.978  34.598  19.280  0.0089 -0.2362 -0.1394
83751W        W26804  20.914  32.040  19.802  0.0418  0.1600 -0.2917
83752W        W26805  19.792   6.765  25.045 -0.0432 -0.0943 -0.0092
83753W        W26806   3.613  31.765  14.308  0.0031 -0.1866 -0.2175
83754W        W26807  32.838  33.833  16.188  0.2711  0.3039  0.1555
83755W        W26808  28.007  11.358  15.476 -0.0656 -0.0435  0.0795
83756W        W26809   5.220  18.071  22.874 -0.0928 -0.1387  0.1523
83757W        W26810  28.173  10.885   2.253  0.3184 -0.2263  0.2542
83758W        W26811  16.588  28.898   5.439 -0.1334 -0.1850 -0.1551
83759W        W26812   1.686   0.339  18.232  0.1614  0.0576 -0.0131
83760W        W26813  13.343   3.533  25.753  0.2999  0.0609 -0.1565
83761W        W26814  11.787   5.852  25.921  0.1273  0.0018 -0.2152
83762W        W26815  23.953   3.621  20.981 -0.3849 -0.1388 -0.2146
83763W        W26816  31.958   7.493  15.480 -0.0155  0.0342  0.1082
83764W        W26817   2.194  30.626  15.214 -0.2924 -0.4136  0.2493
83765W        W26818  14.664  23.884  23.876  0.2200  0.2074 -0.1516
83766W        W26819  29.702   2.063   3.033  0.2793  0.1887  0.1339
83767W        W26820  17.785  26.519  14.365 -0.0622 -0.0743  0.2281
83768W        W26821  18.288  30.959  16.448 -0.1306  0.2417 -0.0502
83769W        W26822   6.510   8.548  21.433 -0.0523 -0.1471  0.3696
83770W        W26823   3.660  18.199  23.476 -0.0145 -0.2510 -0.1812
83771W        W26824  21.862  34.508  26.658 -0.3638  0.1477 -0.1790
83772W        W26825   9.439   7.506  17.714  0.3886  0.2933  0.0317
83773W        W26826  30.269  32.045  22.690 -0.3228 -0.1354  0.0239
83774W        W26827   3.229   8.651   6.940  0.2036 -0.0540 -0.0317
83775W        W26828  29.241   5.832  22.367  0.1731 -0.0013 -0.0956
83776W        W26829   6.467   3.655   3.513 -0.1416  0.0275  0.0757
83777W        W26830  23.181  18.846  19.975 -0.1509 -0.3114 -0.2985
83778W        W26831  23.411  32.577  17.707 -0.2113 -0.0747 -0.0424
83779W        W26832  16.528  29.881   3.177  0.0947  0.0585 -0.2276
83780W        W26833  17.606   8.754  18.378 -0.0441 -0.1320 -0.0730
83781W        W26834  29.625   4.625  15.813 -0.1677 -0.0280 -0.0539
83782W        W26835  22.667  32.628  29.196  0.0821 -0.0352  0.3190
83783W        W26836  11.020  13.034  27.921  0.0913  0.2340 -0.0834
83784W        W26837  10.987   5.892  18.058 -0.0232 -0.2376  0.1054
83785W        W26838   6.448  10.015  23.085  0.0968  0.1392 -0.0525
83786W        W26839  31.491   2.535  17.161 -0.0215  0.0878  0.0578
83787W        W26840  10.669  23.608  22.685  0.2443 -0.2358 -0.1094
83788W        W26841  15.053  15.942   4.819  0.0304 -0.0949 -0.0962
83789W        W26842  26.362  27.578   3.843  0.3176  0.2900 -0.1829
83790W        W26843  27.313  32.736   2.580  0.4534  0.1575 -0.2422
83791W        W26844  23.049   8.128  26.837 -0.1476  0.3903 -0.1395
83792W        W26845   4.430  19.781  18.907 -0.2245 -0.0888 -0.3354
83793W        W26846  10.621   4.455   8.621 -0.0235  0.0818 -0.0582
83794W        W26847  23.032  34.631  14.681 -0.0865  0.0962 -0.1853
83795W        W26848  19.657   6.480  16.221  0.0997 -0.2455 -0.0871
83796W        W26849  14.634   5.273  15.294  0.0274 -0.0279  0.3215
83797W        W26850  23.352  20.275   6.315  0.1696  0.2810  0.0839
83798W        W26851  15.965  33.919   9.780  0.0822 -0.0495 -0.0288
83799W        W26852  14.331  21.142   4.278 -0.0884  0.1312  0.0144
83800W        W26853  15.322  21.589   7.240 -0.1815  0.0990 -0.0723
83801W        W26854  25.271   6.940   3.702  0.0686  0.1966 -0.0123
83802W        W26855  13.366  33.744  20.395  0.0105  0.1565 -0.0035
83803W        W26856   8.938  24.890  13.707  0.1135 -0.2266 -0.0934
83804W        W26857  16.436   6.776  26.721  0.1837 -0.2688  0.0419
83805W        W26858  10.658  34.375  18.874  0.2775 -0.3903  0.2297
83806W        W26859  26.554   5.126  25.934  0.0893 -0.2675  0.2043
83807W        W26860  14.878  34.384  19.982  0.1782  0.0311 -0.3081
83808W        W26861  30.922   8.212  19.479  0.1762  0.1130 -0.0569
83809W        W26862  18.884  27.049  22.461  0.1802 -0.0110 -0.0247
83810W        W26863  24.583   9.531  23.177  0.0726 -0.0207  0.0937
83811W        W26864  16.005  26.946  22.730  0.3336 -0.0132  0.0169
83812W        W26865  16.354  10.466  28.655 -0.1721 -0.1351  0.4587
83813W        W26866  32.550  31.666  20.718  0.0849 -0.3034  0.0656
83814W        W26867  29.290   4.453  14.705 -0.1161 -0.0033  0.0119
83815W        W26868   3.567  16.065   7.330 -0.0408 -0.0720 -0.2723
83816W        W26869  24.374  24.550  15.442  0.0025  0.2017 -0.0966
83817W        W26870  19.001  34.651  18.139  0.0621  0.1625  0.4964
83818W        W26871  24.962  11.172  20.396  0.0403 -0.1651 -0.0463
83819W        W26872  21.116  28.687   5.414  0.0173  0.0089 -0.1414
83820W        W26873  17.677   1.269  26.357  0.2248  0.1508 -0.2111
83821W        W26874  17.479  28.523   0.741 -0.0026 -0.1747  0.2464
83822W        W26875  22.082   3.650   0.387  0.0128 -0.4285  0.1617
83823W        W26876  15.038   3.832   0.124  0.0418 -0.1946 -0.5382
83824W        W26877  24.615   5.617  14.718 -0.4008  0.0963  0.1139
83825W        W26878  20.708  12.537  29.171 -0.2672 -0.0528  0.3983
83826W        W26879  31.992  21.404   4.620 -0.1966  0.2383 -0.1414
83827W        W26880   9.536   7.250  28.398 -0.2826  0.1492  0.1759
83828W        W26881  13.567  17.772  16.587  0.3672 -0.3313 -0.1198
83829W        W26882  12.278  25.761  20.382 -0.1116  0.1139 -0.0334
83830W        W26883  26.168  33.609   8.043  0.1307  0.0406 -0.0316
83831W        W26884  14.688  12.280  16.249  0.1290 -0.0388  0.0287
83832W        W26885  24.046   6.664  16.956 -0.3592  0.0966  0.2260
83833W        W26886  21.722   1.392  19.094 -0.2350  0.0158  0.1804
83834W        W26887  24.637  12.528   1.989 -0.0304 -0.0359 -0.6068
83835W        W26888  15.904   2.456   8.142  0.1058  0.1336 -0.1447
83836W        W26889   0.554   6.365   5.188 -0.0468  0.2110 -0.1373
83837W        W26890   4.889  34.511  14.116  0.2436  0.2770 -0.0438
83838W        W26891  26.748   1.600   0.563  0.0602 -0.1118  0.1732
83839W        W26892  21.916  11.747   6.720 -0.0149  0.0236  0.1420
83840W        W26893  16.815  12.715  17.378 -0.3224 -0.4360  0.0316
83841W        W26894  13.203  12.442   5.690 -0.2931 -0.1376 -0.0449
83842W        W26895  20.338   4.916   4.418 -0.0832 -0.0549 -0.1727
83843W        W26896  28.206   1.848  25.759  0.2516  0.1394 -0.0042
83844W        W26897  27.279   6.281   1.171  0.2923  0.1670  0.0260
83845W        W26898  27.804  34.113  23.623 -0.0744  0.2463 -0.2262
83846W        W26899  28.527   8.205   9.218  0.0401 -0.2198  0.0119
83847W        W26900  27.458  15.205  10.035 -0.0061 -0.0776  0.0652
83848W        W26901  10.109  23.313   0.369 -0.1118 -0.2602  0.1179
83849W        W26902  22.406   8.975   4.990 -0.1093  0.2112  0.1106
83850W        W26903  24.079  34.375  23.101 -0.1231  0.0482 -0.0464
83851W        W26904  21.099  28.644  21.973 -0.2681 -0.1800 -0.0298
83852W        W26905   6.173  16.041  27.693  0.2500 -0.0510 -0.2349
83853W        W26906  14.822  13.698  15.705 -0.1324  0.2369  0.0692
83854W        W26907  11.623  17.497  17.725 -0.1947 -0.0462 -0.3008
83855W        W26908  16.475  30.979   3.545  0.0702 -0.1096 -0.0350
83856W        W26909   0.962   2.741  13.418 -0.1515  0.0062  0.0825
83857W        W26910  20.032   4.705  26.950  0.1176  0.2602  0.3140
83858W        W26911  17.836  12.537  17.213  0.0597  0.1756 -0.0454
83859W        W26912  12.693   5.113   4.722  0.0277 -0.1486 -0.2541
83860W        W26913   8.024  25.318  27.912 -0.0039  0.0455 -0.0056
83861W        W26914  10.492  27.549  20.431 -0.0145  0.1258 -0.0447
83862W        W26915  23.476  10.487  17.689  0.3482  0.0257  0.1681
83863W        W26916  28.269  20.407  21.573  0.2039  0.2799  0.0344
83864W        W26917  12.291  34.248  28.274 -0.2772  0.2285 -0.0408
83865W        W26918  23.274  23.679  17.165  0.2020 -0.1959 -0.0128
83866W        W26919   3.946  10.309  22.659  0.0461  0.1026 -0.0861
83867W        W26920  14.326   7.612  20.326 -0.0458  0.0480 -0.2489
83868W        W26921  31.213  14.239  16.974 -0.2404 -0.1605 -0.0820
83869W        W26922  25.785   9.316   0.630 -0.2133 -0.2673  0.1269
83870W        W26923  18.786   2.937  24.358  0.1626  0.0966 -0.2108
83871W        W26924  22.368  28.304  20.127  0.1958 -0.1883 -0.4745
83872W        W26925  19.778  32.034   0.858 -0.1623 -0.2186 -0.1250
83873W        W26926  10.641  12.870  20.445  0.3457 -0.0876  0.4174
83874W        W26927  21.328  34.512   0.905 -0.0900  0.2889 -0.2162
83875W        W26928   6.809  29.281  25.704  0.0023 -0.0127 -0.0553
83876W        W26929  27.900  11.931   4.670 -0.3510  0.0008 -0.1562
83877W        W26930  22.739   4.532  16.044  0.0132 -0.0119 -0.2409
83878W        W26931  11.963  23.122  17.822 -0.4516 -0.3688 -0.3948
83879W        W26932   5.988  31.201  16.261  0.0966 -0.1487  0.0878
83880W        W26933  14.223  30.997  26.035 -0.3706  0.2087 -0.2103
83881W        W26934  15.719   8.815  16.374  0.2829 -0.1012 -0.3580
83882W        W26935   5.830   6.134  29.036 -0.0394 -0.1741 -0.0233
83883W        W26936  23.605   9.580  20.962  0.1593  0.3552 -0.1501
83884W        W26937  15.304   5.526  19.147  0.0119  0.0335 -0.2438
83885W        W26938  25.795   4.428   2.588 -0.0599  0.1455  0.0657
83886W        W26939  16.010  19.010   4.590  0.0044 -0.0497  0.2252
83887W        W26940   6.333   6.417  18.508  0.0214 -0.2298 -0.1219
83888W        W26941  15.726  31.588  26.082 -0.1692  0.1947 -0.2171
83889W        W26942   7.796  25.781   1.824  0.2927  0.1239 -0.2135
83890W        W26943   3.592  29.424  26.592 -0.0546  0.0800  0.2686
83891W        W26944  13.654   5.084  23.585 -0.5460  0.1549 -0.0441
83892W        W26945  17.412   5.360  20.576 -0.3326 -0.1725 -0.3060
83893W        W26946  31.011  17.264  16.913  0.0781 -0.0510 -0.0713
83894W        W26947   4.156  26.375  14.745  0.0306  0.1591 -0.0255
83895W        W26948  10.895  22.473  20.860  0.2707  0.2144  0.0614
83896W        W26949  19.348   3.738  22.491 -0.2772  0.1507  0.1571
83897W        W26950   8.350  26.202   6.589 -0.0031  0.0058 -0.0092
83898W        W26951  21.584   5.919  16.208  0.1715 -0.1956 -0.0640
83899W        W26952  12.354   0.022  22.026  0.0482 -0.0031 -0.1193
83900W        W26953  33.233  22.552  22.863  0.0089 -0.1496 -0.0748
83901W        W26954  34.050   1.321  25.300 -0.0151 -0.1233  0.1327
83902W        W26955  16.558   5.887   7.768 -0.0249 -0.1859 -0.2344
83903W        W26956  20.194  27.393  25.109 -0.0148 -0.1495  0.1182
83904W        W26957  17.199  32.748  16.686 -0.0937 -0.1270  0.3932
83905W        W26958  30.643  28.444   6.009 -0.0265  0.0715  0.1647
83906W        W26959  25.680  19.894   8.167 -0.0422  0.1297 -0.0923
83907W        W26960  20.067   2.722  23.449 -0.1096  0.0612  0.0154
83908W        W26961  33.289  17.309  27.934  0.1947 -0.2126  0.1039
83909W        W26962  26.990  22.117   2.305 -0.0995  0.2998  0.0401
83910W        W26963   1.176  32.291  19.469 -0.0034  0.0517 -0.1624
83911W        W26964  23.660  17.021  22.269 -0.1797  0.2379  0.4796
83912W        W26965  13.088   0.980  22.111  0.0457  0.1123 -0.0247
83913W        W26966  25.120  18.836  23.851 -0.0827 -0.0126 -0.2553
83914W        W26967  11.864   9.528  25.425  0.3631  0.1048  0.2105
83915W        W26968  12.790  22.151  21.630  0.0651 -0.2529 -0.0105
83916W        W26969  25.051   2.955  25.462 -0.0054  0.2252  0.0841
83917W        W26970  11.871  30.371   1.790 -0.1256  0.1502  0.1718
83918W        W26971   6.926   1.210  15.020  0.1369 -0.1354 -0.0049
83919W        W26972   1.053   5.344  26.688  0.1328  0.0163 -0.1247
83920W        W26973  27.335   9.970   4.908 -0.1569  0.0413  0.1765
83921W        W26974  22.410  31.884  21.472  0.1960  0.0496  0.3283
83922W        W26975  24.213  27.531  18.827  0.1628 -0.2297  0.1627
83923W        W26976   9.384   4.182   0.112 -0.2208 -0.0735  0.2567
83924W        W26977  10.703  23.389  13.973 -0.3644  0.0748 -0.1951
83925W        W26978  34.407   2.781   1.960 -0.0321 -0.3016  0.3869
83926W        W26979  29.988  29.801  16.267 -0.0795  0.1395  0.0225
83927W        W26980  24.277   5.437  22.786  0.2698 -0.1009  0.0527
83928W        W26981   8.063   4.141   5.322 -0.0499 -0.4384 -0.2565
83929W        W26982  29.552  32.253  27.205 -0.1055 -0.0152  0.1072
83930W        W26983   9.148  28.874  17.365 -0.0348  0.0880 -0.1919
83931W        W26984  17.340  24.875  23.178  0.1438 -0.0441 -0.0652
83932W        W26985  17.737   8.379  24.380 -0.0336  0.0480  0.0610
83933W        W26986   8.240  25.152  20.544 -0.0024 -0.1208 -0.0248
83934W        W26987   7.887   4.932  23.144  0.0853  0.0675 -0.3783
83935W        W26988  30.594   8.969   2.998  0.2638 -0.4049 -0.3468
83936W        W26989  25.329   3.737  23.075 -0.1253  0.0406  0.1630
83937W        W26990  27.158   6.990  18.379 -0.1276 -0.1734  0.1141
83938W        W26991  31.748   8.244  28.523  0.0490  0.1678 -0.0406
83939W        W26992  15.055   9.480   7.071  0.0834  0.1512 -0.1263
83940W        W26993  30.698   4.052   0.348 -0.1107 -0.4081 -0.2226
83941W        W26994  34.116  32.968  13.815 -0.1362 -0.2421 -0.2473
83942W        W26995  21.281  31.683  23.478  0.2596  0.2882  0.0352
83943W        W26996  26.078  30.095  18.951 -0.1618 -0.2647 -0.0921
83944W        W26997  19.339  34.583  20.815 -0.0314 -0.2595  0.1613
83945W        W26998  26.852  34.174  24.121  0.0468 -0.0712 -0.1037
83946W        W26999  15.355  11.574  17.801  0.0743 -0.1277 -0.0684
83947W        W27000  29.696  30.199  14.317  0.0135  0.0335  0.2102
83948W        W27001   2.980  29.753  24.647 -0.1368  0.0040  0.0987
83949W        W27002  15.011  26.387  23.547  0.5108 -0.0024  0.2236
83950W        W27003  12.701   1.307  21.942  0.0426 -0.0592 -0.3574
83951W        W27004  19.296   2.827  20.094 -0.2799  0.1678 -0.0995
83952W        W27005  17.484   5.258  15.671  0.2091 -0.3008 -0.3613
83953W        W27006  19.911  13.407  21.893 -0.2223 -0.1059 -0.1116
83954W        W27007  23.525  34.662  15.738  0.3016 -0.2928  0.1468
83955W        W27008  20.002   7.649  23.321  0.3005 -0.0360  0.0261
83956W        W27009  21.690   6.348  25.632  0.1266 -0.0238 -0.2029
83957W        W27010  19.015  33.675  27.959 -0.4897 -0.3260  0.0467
83958W        W27011  34.536  22.970  26.494 -0.0282  0.0455  0.0635
83959W        W27012  16.762   7.038  23.759  0.1396  0.1467 -0.0432
83960W        W27013   7.540  33.569  18.592 -0.1197  0.2272  0.1396
83961W        W27014   6.857  12.536  16.916 -0.1130  0.0522  0.3403
83962W        W27015  18.305  30.734  18.825 -0.3026  0.1260  0.1467
83963W        W27016  16.539  10.497  17.617  0.1402  0.1338  0.0662
83964W        W27017  12.245  28.680   7.909 -0.0723  0.2677  0.3689
83965W        W27018  14.184  23.209  19.155  0.2220  0.0968 -0.0052
83966W        W27019  21.411   8.937  20.519  0.2930 -0.0733 -0.1932
83967W        W27020  18.928   4.295  22.026  0.2406  0.0401  0.1597
83968W        W27021  24.292  26.462   9.056 -0.0557 -0.3323  0.2675
83969W        W27022  11.703   4.210  28.167  0.4143 -0.1109  0.1843
83970W        W27023  15.590  29.721  21.631  0.0820  0.0209 -0.1325
83971W        W27024  19.347   3.058  19.604  0.1699 -0.1269  0.0908
83972W        W27025  27.557   9.945  16.511  0.3474 -0.0940  0.1595
83973W        W27026  22.036  15.811  19.354 -0.1657 -0.1115 -0.0434
83974W        W27027  21.371  21.031   2.069  0.0595 -0.2210  0.0251
83975W        W27028  25.808  29.220   0.481  0.0206 -0.1719 -0.0818
83976W        W27029  15.448  33.163  15.664 -0.1853  0.3322 -0.0357
83977W        W27030  23.822  29.189   3.088  0.2188  0.1082  0.0740
83978W        W27031  28.252  29.201  18.051 -0.1225  0.1233  0.2302
83979W        W27032  13.195  31.683  19.928 -0.0965  0.0511 -0.1218
83980W        W27033  25.478  25.495   1.594  0.1020  0.0655  0.0475
83981W        W27034  15.952   4.344  20.165  0.0424  0.0885  0.3425
83982W        W27035  28.455   9.527  17.723  0.2783  0.2118  0.0344
83983W        W27036  20.853   6.946  19.954 -0.0414 -0.0501  0.1305
83984W        W27037  26.764  28.147   7.501 -0.0986  0.4408  0.0925
83985W        W27038  12.924  10.513  15.659 -0.2018  0.1481 -0.0045
83986W        W27039   5.822  31.145  21.547  0.0161  0.0497  0.1985
83987W        W27040  29.651   2.246   6.664  0.0374  0.3435 -0.1950
83988W        W27041  16.916   9.249  20.774 -0.3121 -0.1920  0.3618
83989W        W27042   3.043  30.223   3.637 -0.0587  0.0990 -0.1758
83990W        W27043  32.282   9.949  25.043  0.1189 -0.2562  0.3100
83991W        W27044  18.129  10.053   5.074  0.0303 -0.3393 -0.0210
83992W        W27045  16.760   4.373   2.720  0.0573 -0.0697  0.0775
83993W        W27046  24.257  34.463  26.882  0.1337  0.3916  0.0533
83994W        W27047  17.704  27.071  14.770 -0.0780 -0.0132  0.0556
83995W        W27048  26.830  10.690  23.138  0.2286 -0.2548 -0.0029
83996W        W27049  10.522   5.140  22.585  0.0215 -0.0864 -0.1039
83997W        W27050  27.379  18.362  17.811  0.0770  0.3267  0.0216
83998W        W27051   1.595  32.625  17.541 -0.0111 -0.2275  0.0944
83999W        W27052  26.622  33.358  21.192 -0.4071  0.0876 -0.2649
84000W        W27053  16.882  25.301   4.916 -0.0624  0.1517 -0.0406
84001W        W27054  13.203   1.202   3.385  0.2509  0.0778 -0.0305
84002W        W27055   8.220   4.833  21.491 -0.1818  0.0809 -0.2860
84003W        W27056  29.284   8.140   0.370  0.1987  0.2954  0.1556
84004W        W27057  16.513   0.385  18.179  0.4128  0.0147 -0.1095
84005W        W27058  19.201   5.672  28.266 -0.2295 -0.1689  0.0090
84006W        W27059   9.580  20.499   0.487  0.2148 -0.2202 -0.1560
84007W        W27060  11.994   5.270  19.739 -0.0112 -0.2055  0.1352
84008W        W27061   2.004   2.233   6.579 -0.0840  0.3305 -0.2047
84009W        W27062  24.869  27.736  25.626 -0.0467  0.1283 -0.5933
84010W        W27063  13.694   2.173   2.029  0.2230 -0.0893 -0.2638
84011W        W27064   7.607  12.867   6.311 -0.0518  0.3163  0.2122
84012W        W27065   8.697   2.305  25.817  0.0187  0.2722 -0.1417
84013W        W27066  21.882   4.363   1.450  0.0816  0.3405 -0.2674
84014W        W27067  16.041  10.127  21.809  0.0541  0.0593  0.1362
84015W        W27068  13.921  19.924  26.413  0.0195 -0.0195 -0.2821
84016W        W27069  15.276  12.157   8.017 -0.0908 -0.3856  0.0049
84017W        W27070  16.809  25.030   1.767  0.3428 -0.0193 -0.3092
84018W        W27071  12.355   7.808  24.807 -0.1760  0.2022 -0.1464
84019W        W27072  24.529  29.705  26.904 -0.2444  0.2040  0.4804
84020W        W27073   9.237  28.871  27.157  0.2292 -0.1061 -0.2030
84021W        W27074  18.807  20.334  24.850 -0.0160  0.2328  0.1702
84022W        W27075  12.112   1.928  14.229 -0.1535  0.1745 -0.0829
84023W        W27076  15.471   1.784   9.338  0.0419  0.0468 -0.1554
84024W        W27077  17.016  27.616   0.131 -0.0162  0.0913 -0.1343
84025W        W27078  26.463  34.648  21.425 -0.2562  0.1528  0.0208
84026W        W27079  11.663  31.422  24.310  0.0603  0.1751  0.0963
84027W        W27080   9.952   9.249  28.360  0.2107  0.1536  0.1166
84028W        W27081  26.051  25.524   0.436  0.1092 -0.1566 -0.2239
84029W        W27082  26.431   0.333   9.264  0.0382  0.0274  0.1257
84030W        W27083  31.120  21.476  18.907 -0.2303  0.2530  0.0573
84031W        W27084   6.336   4.801  18.819 -0.1292  0.1330  0.2335
84032W        W27085  21.970  10.299   5.630 -0.1217 -0.0935  0.0240
84033W        W27086  30.167   5.318   3.334 -0.1874 -0.1578 -0.0266
84034W        W27087  18.209  17.021  14.801  0.0033  0.3613 -0.0310
84035W        W27088  18.949  32.001  21.227 -0.1825 -0.0352  0.1214
84036W        W27089  30.113  31.993  23.770 -0.3675 -0.1949 -0.1486
84037W        W27090  19.465   0.823  17.037  0.2715  0.0641  0.0730
84038W        W27091  26.311  12.295  26.256  0.0072  0.1147  0.2676
84039W        W27092  15.123   6.599   7.854 -0.1731 -0.0451 -0.1440
84040W        W27093  31.745  17.457  26.418 -0.2422  0.1698  0.0870
84041W        W27094  12.066   3.055  24.817  0.0149 -0.0810  0.1329
84042W        W27095  22.786   4.135  18.160  0.0273  0.2422 -0.0594
84043W        W27096  21.446   7.312  10.566 -0.1109  0.0248 -0.0719
84044W        W27097  20.118  29.051   1.926 -0.0913 -0.0399 -0.1928
84045W        W27098  21.084  33.407  24.959  0.1511  0.0452  0.0519
84046W        W27099  13.927  20.220  28.086 -0.0646  0.1276  0.3164
84047W        W27100  31.684   8.824   6.734 -0.0658 -0.1233 -0.0373
84048W        W27101  19.141  29.846   9.637  0.0268 -0.2871  0.2390
84049W        W27102  14.014   2.986  15.221 -0.2863 -0.2685  0.3188
84050W        W27103  16.005  11.506  28.499  0.0212  0.0391 -0.0831
84051W        W27104  17.918  33.465   9.286 -0.2088  0.0786  0.2163
84052W        W27105  12.769  25.379  16.563 -0.1570  0.0322 -0.4645
84053W        W27106  28.443   4.658   4.140 -0.0939 -0.0668  0.0660
84054W        W27107   9.533  11.936  18.452  0.0228  0.0787  0.1075
84055W        W27108   7.801   6.566  25.761 -0.2618 -0.0145  0.2163
84056W        W27109  29.398  12.383  29.019  0.0679 -0.3233 -0.0573
84057W        W27110  29.740  31.407  26.736  0.1977  0.0809  0.1456
84058W        W27111  20.094  25.529  21.925 -0.0942 -0.0503 -0.2178
84059W        W27112  10.029  33.334   8.039  0.0086  0.0021  0.2463
84060W        W27113  21.945   7.229  18.970  0.3531 -0.0411 -0.0721
84061W        W27114  12.175  31.075  19.538  0.0488  0.0647 -0.3142
84062W        W27115  31.764  30.375  25.543 -0.2083 -0.1397  0.1705
84063W        W27116  29.081   4.888   7.573  0.1777  0.1365 -0.1043
84064W        W27117  22.558   1.054   5.421 -0.0420 -0.0534  0.2488
84065W        W27118  15.913  14.546  15.518 -0.3588  0.0534  0.3532
84066W        W27119   0.862   8.694  27.864 -0.2653  0.2161 -0.2339
84067W        W27120   4.969  25.396  18.417  0.1499 -0.1730  0.0605
84068W        W27121  15.253  29.448  27.999 -0.1661 -0.1470 -0.0044
84069W        W27122  14.168   3.214  15.990  0.1604 -0.2435 -0.0228
84070W        W27123   0.165  14.378  24.967  0.2045  0.3004  0.1487
84071W        W27124  11.933  27.866  16.057 -0.2360 -0.3052 -0.0503
84072W        W27125  16.431  32.724  17.964  0.0533 -0.0924  0.1772
84073W        W27126  16.818  32.615   9.427 -0.0598  0.0979 -0.0472
84074W        W27127  22.275  17.182   0.417  0.4374 -0.1964  0.0934
84075W        W27128  19.933   7.946  17.828 -0.1099  0.0557 -0.1124
84076W        W27129  23.244   8.259  14.291 -0.0206  0.3546  0.1012
84077W        W27130  13.714  27.486   0.487  0.0073  0.0527  0.1237
84078W        W27131   0.197   6.168   5.595  0.6045  0.0752  0.2978
84079W        W27132  10.074   6.443  23.810 -0.0194  0.1679  0.0072
84080W        W27133  31.049  15.289  23.368 -0.0748 -0.0440  0.0162
84081W        W27134  27.503  11.936  28.162  0.1104  0.3273  0.1077
84082W        W27135  21.543  14.218  15.069  0.0132  0.0261  0.2779
84083W        W27136  23.274   2.360   4.248 -0.2109 -0.1457 -0.2474
84084W        W27137  23.848   3.872  28.046  0.5711  0.1232 -0.0637
84085W        W27138   2.962   4.235  28.523  0.0709 -0.1317  0.0081
84086W        W27139  21.788   4.900  23.759 -0.1181  0.1285 -0.3188
84087W        W27140  24.500  25.900  22.908 -0.1083 -0.1910 -0.0012
84088W        W27141  32.259  17.316  26.551 -0.1448 -0.2059 -0.0905
84089W        W27142  10.358   4.832  17.533  0.3789 -0.4003  0.1552
84090W        W27143   8.116   2.438  24.369  0.2952  0.0321 -0.1745
84091W        W27144  20.724  32.192   6.662  0.1930  0.5536  0.0313
84092W        W27145  24.527   3.219  28.931  0.0689  0.0728 -0.0284
84093W        W27146  30.893  24.720  25.930  0.0253 -0.0338  0.0908
84094W        W27147  21.443  18.316  13.409 -0.1402  0.2670  0.0773
84095W        W27148  13.181  31.296   5.946  0.4136 -0.1286 -0.0715
84096W        W27149   2.620  27.739  21.931  0.2452  0.1498  0.0061
84097W        W27150  26.205  34.554  18.419 -0.0830 -0.3356  0.0178
84098W        W27151   5.831  18.392  16.882 -0.2347 -0.0114  0.0871
84099W        W27152  18.217  24.717  17.035 -0.2429  0.0962 -0.0379
84100W        W27153  33.981   5.375  21.055  0.0536  0.0192  0.0246
84101W        W27154  33.136  13.686   5.175 -0.2403  0.3356 -0.1165
84102W        W27155  15.734   1.617  21.679 -0.0229 -0.1389  0.0867
84103W        W27156  20.554   1.176  23.895  0.0924  0.1273 -0.2073
84104W        W27157   3.792   3.554  19.862 -0.1806  0.4980  0.1061
84105W        W27158   2.081  26.032  24.067 -0.0281 -0.2030 -0.0838
84106W        W27159  17.561   4.726  22.097 -0.0209 -0.1344  0.0314
84107W        W27160   3.560  12.168  24.360  0.0693 -0.0039 -0.0734
84108W        W27161   7.697  31.130   2.358 -0.0361 -0.2707  0.1427
84109W        W27162  14.289  32.602  23.965  0.0723 -0.0245  0.0296
84110W        W27163   8.333  18.015   0.003  0.2200  0.1528  0.1621
84111W        W27164  12.555   7.456  25.698 -0.1114  0.2554 -0.1449
84112W        W27165  34.407  31.097  28.730 -0.2047 -0.1443  0.1344
84113W        W27166  16.596  27.472   5.347  0.4250 -0.1146  0.1292
84114W        W27167  23.310   9.663  19.381  0.2238  0.0546  0.0171
84115W        W27168   7.972  31.314  28.182  0.4446 -0.0557 -0.0362
84116W        W27169   6.839  23.209  19.143  0.0510 -0.1608 -0.0533
84117W        W27170  29.574  33.499  14.930 -0.2929  0.0844 -0.1213
84118W        W27171  24.609   7.737  18.704 -0.1053 -0.2495 -0.3009
84119W        W27172  11.672  14.274  25.635  0.2968  0.1885  0.0221
84120W        W27173  16.936   5.598  24.638 -0.2833  0.0645  0.3051
84121W        W27174  12.294  26.283   9.249 -0.0183  0.2601  0.0251
84122W        W27175  33.092  33.737  25.214 -0.1050  0.0107  0.0353
84123W        W27176   6.929  33.759  21.766 -0.0341 -0.1001 -0.0098
84124W        W27177  11.899  26.944  29.028 -0.1100 -0.1377  0.0943
84125W        W27178   3.824  14.738   4.637  0.2958 -0.1668  0.0176
84126W        W27179  14.707  26.715   6.452  0.0079  0.0919 -0.0756
84127W        W27180   0.684  14.703  21.228 -0.3226  0.3070  0.0276
84128W        W27181  13.867   8.717   4.556  0.1640  0.1580 -0.3064
84129W        W27182  31.689  34.620  23.991 -0.1089  0.2030  0.1463
84130W        W27183   7.339  10.844  16.150 -0.1398  0.0554 -0.1095
84131W        W27184  21.923   2.339  15.655  0.0634 -0.0212 -0.1287
84132W        W27185  24.825   8.914  27.246  0.1121  0.3277  0.3268
84133W        W27186   6.362   6.419   4.517  0.0443  0.2209  0.1652
84134W        W27187  18.823  14.055  21.943  0.2534  0.0554 -0.0074
84135W        W27188  19.428   2.824  27.576  0.2957 -0.1649  0.1133
84136W        W27189  25.702  24.491  28.892 -0.0218  0.2636 -0.0707
84137W        W27190  27.122  13.176  19.821 -0.3792  0.1146  0.0147
84138W        W27191  11.156  23.665  22.880 -0.1580 -0.3157  0.0708
84139W        W27192  18.852  13.806  29.070  0.3210  0.0214  0.0984
84140W        W27193  11.019  30.716   6.811 -0.3770 -0.0124  0.0503
84141W        W27194  28.804  29.169  14.393  0.2277 -0.1856  0.0197
84142W        W27195  21.076   3.687   0.303 -0.0322 -0.0572  0.2330
84143W        W27196  19.428  10.776   6.593 -0.3675  0.2247  0.0508
84144W        W27197  25.440  24.731  10.211 -0.0152 -0.0418  0.1165
84145W        W27198   8.241   1.585   2.556 -0.0880 -0.4116 -0.4058
84146W        W27199  13.233  28.194  19.777 -0.1174  0.0455 -0.4952
84147W        W27200   3.001   5.927   3.964 -0.1418 -0.1029  0.1363
84148W        W27201  17.969   5.810   8.280 -0.2391 -0.3342 -0.0499
84149W        W27202  13.474   2.555  17.982 -0.2419 -0.0679 -0.0362
84150W        W27203  18.513  10.716   8.380  0.1175 -0.1892 -0.0141
84151W        W27204  22.287   9.725  17.902  0.3495 -0.1276 -0.0087
84152W        W27205  26.749  22.283   4.436 -0.1932  0.1159  0.0197
84153W        W27206  24.968   0.067  19.773 -0.3058 -0.0800  0.0925
84154W        W27207  10.225   3.643  27.309  0.2162 -0.0205  0.2348
84155W        W27208  34.460  16.530   2.417 -0.4002  0.1891  0.0252
84156W        W27209  10.552   4.479   0.833  0.0104  0.3288 -0.0402
84157W        W27210  13.222   3.616  14.306  0.2798  0.2130 -0.1568
84158W        W27211   9.149   8.915  24.441 -0.2175 -0.1543 -0.3322
84159W        W27212  12.643   8.462  25.343  0.0174 -0.0067 -0.1863
84160W        W27213  19.205  24.999   7.841  0.0022 -0.2555  0.4537
84161W        W27214  20.440  28.579   7.189  0.0237 -0.4014  0.0590
84162W        W27215   1.605  15.137  19.772  0.0208 -0.2038 -0.3944
84163W        W27216  23.676  14.436   3.967 -0.0763 -0.3215 -0.2711
84164W        W27217  19.300  20.620  17.943  0.1204  0.1829  0.0794
84165W        W27218   8.962   0.299  25.096  0.0232  0.0316  0.0535
84166W        W27219  13.479   6.908  25.825 -0.0603 -0.2527 -0.1846
84167W        W27220   6.489  19.756   8.942 -0.0878  0.0200  0.4716
84168W        W27221  29.258  16.119   6.701  0.4036 -0.2416  0.2591
84169W        W27222  17.001  16.532   5.768  0.1734 -0.2680  0.0748
84170W        W27223  10.893  22.890  25.107 -0.0643  0.1113 -0.1559
84171W        W27224   2.862  23.936  26.840  0.0443  0.0819 -0.0739
84172W        W27225  20.372   5.075   1.808  0.0672  0.3153  0.2188
84173W        W27226  14.713  22.323   5.179  0.0223 -0.0838 -0.0814
84174W        W27227  22.772  11.011   4.894  0.0528  0.2217 -0.1442
84175W        W27228   0.287   4.988  18.693  0.0835  0.2630  0.1874
84176W        W27229  26.800   5.965   4.954 -0.1064 -0.0368 -0.0152
84177W        W27230  31.855  15.369   2.429  0.0826  0.1843  0.2827
84178W        W27231  24.975  23.520  26.117  0.1384  0.3260  0.1004
84179W        W27232  21.505   2.074   0.221 -0.0717 -0.3204 -0.0813
84180W        W27233  27.323  33.492  16.445  0.0576 -0.1229  0.0447
84181W        W27234  18.775  31.433   0.419  0.3871  0.0664 -0.0706
84182W        W27235  30.722  28.210   2.487  0.0478  0.1613  0.1474
84183W        W27236   8.386  10.344  24.982 -0.0577  0.0497  0.0078
84184W        W27237  28.685  18.463  27.025 -0.2603 -0.0397  0.0340
84185W        W27238  24.291   5.560  26.551  0.1755 -0.2693 -0.2209
84186W        W27239  21.935  15.935  23.653  0.1574  0.2520 -0.1268
84187W        W27240   8.140  16.903   6.466  0.0708  0.0362  0.0436
84188W        W27241  17.884   0.593   2.014  0.2403 -0.1750 -0.2130
84189W        W27242  24.259  31.742  25.481  0.0057 -0.2936  0.0214
84190W        W27243  22.790  24.755   4.014  0.2879 -0.0599 -0.2234
84191W        W27244  13.646  28.573   6.605 -0.2353  0.4844  0.1279
84192W        W27245  17.926   5.059  15.029 -0.0432  0.0709  0.2026
84193W        W27246  20.833  30.958   8.541  0.1359 -0.3458 -0.3853
84194W        W27247  16.193  23.516   2.039  0.0255  0.2051 -0.2463
84195W        W27248   8.282  21.318  22.274  0.0937 -0.3045 -0.2425
84196W        W27249  16.648   7.593   5.234 -0.0177  0.0108  0.0483
84197W        W27250  17.626   5.260   8.267 -0.4363 -0.0218  0.2706
84198W        W27251  12.024  29.657  20.161  0.0024  0.0449 -0.1762
84199W        W27252  12.517  13.980   6.652 -0.3095  0.1209  0.0844
84200W        W27253  17.583   5.111   6.826 -0.2178 -0.1921 -0.1716
84201W        W27254  26.973  28.186  28.617  0.0477 -0.1484  0.1053
84202W        W27255  27.102  27.108  15.482  0.2496 -0.0823 -0.0840
84203W        W27256   6.614   2.717   1.661 -0.2304 -0.0111  0.0169
84204W        W27257  10.015   9.131   5.015  0.1834  0.0405 -0.1295
84205W        W27258  30.093   9.307   6.799 -0.0880 -0.1850  0.5679
84206W        W27259  21.636  23.120  17.581 -0.0333 -0.0384 -0.0573
84207W        W27260   7.424  23.925  25.321 -0.1581  0.2193 -0.0770
84208W        W27261  12.736   6.494  24.557  0.0144 -0.0143  0.3492
84209W        W27262  19.923  24.939   4.481 -0.0577  0.2772 -0.1013
84210W        W27263  12.524  31.944   2.264 -0.0433 -0.0092  0.2761
84211W        W27264  27.055  16.020   8.019  0.2022 -0.1447  0.2841
84212W        W27265  15.576  30.305   6.392 -0.0090  0.1886 -0.2795
84213W        W27266  17.473   0.233   4.515  0.0644  0.2083 -0.2233
84214W        W27267  33.956  20.647  17.488 -0.0088  0.1625 -0.0340
84215W        W27268  19.305  28.560  20.828 -0.2341  0.0122  0.0653
84216W        W27269  16.955   7.484  22.631  0.0864  0.4105 -0.3460
84217W        W27270  19.912  19.884  13.964 -0.1629  0.0740  0.4309
84218W        W27271  27.184   7.187  17.858 -0.2054 -0.1400  0.2540
84219W        W27272  25.745  28.748  21.147  0.1695  0.1408 -0.3342
84220W        W27273  22.639   7.217  28.976  0.1445  0.0016  0.2280
84221W        W27274  16.563  17.434  16.026  0.0638 -0.3193 -0.1843
84222W        W27275  10.835  23.917  26.264  0.1390  0.0108 -0.1876
84223W        W27276  18.657   1.130  14.710  0.1275 -0.0821  0.0812
84224W        W27277  34.441  28.712   5.670  0.2058 -0.1791  0.0286
84225W        W27278  16.516   6.016  19.779  0.1516 -0.3206  0.1401
84226W        W27279  21.274  30.693  19.495  0.2095  0.2497 -0.0193
84227W        W27280  23.308  18.252  23.495  0.1146  0.4131 -0.0932
84228W        W27281   1.240   0.676  17.623  0.2692  0.2508  0.0249
84229W        W27282  26.545  21.425   9.128 -0.1012  0.0603 -0.0707
84230W        W27283  19.533   6.299  15.783  0.0044 -0.2268 -0.4733
84231W        W27284  27.250  17.418   3.933  0.0221  0.0308 -0.2093
84232W        W27285  13.547  29.946  27.889  0.0966  0.1674 -0.3963
84233W        W27286  29.645  28.022  13.974  0.1412  0.0513  0.0054
84234W        W27287   3.874  23.289   5.022  0.0470  0.0669  0.1460
84235W        W27288  24.652  32.200   0.750  0.2056 -0.0225 -0.0775
84236W        W27289   8.428  22.970  21.488 -0.0716  0.0244  0.1687
84237W        W27290  13.093  23.196   1.742 -0.5400 -0.1210  0.4142
84238W        W27291   1.418   1.169   7.328 -0.0193 -0.0002  0.0619
84239W        W27292  10.797  31.437   6.019 -0.0536  0.1331 -0.1757
84240W        W27293  19.313  16.286  23.649 -0.0097 -0.1349 -0.1520
84241W        W27294  25.128   3.791  27.682 -0.1885 -0.1738  0.0031
84242W        W27295  30.614  11.616  27.340 -0.3596 -0.4992 -0.1903
84243W        W27296  16.551   2.674   3.268  0.2564  0.2554  0.0167
84244W        W27297  22.768   8.367  20.923  0.1091  0.0309 -0.1481
84245W        W27298  17.363   9.982  15.204  0.2243 -0.0188  0.3855
84246W        W27299  23.550  15.659  21.653  0.3120 -0.0543 -0.1020
84247W        W27300  26.056   4.065  26.583 -0.1096  0.2482  0.1942
84248W        W27301  31.337  27.603  24.013 -0.1998  0.0306  0.3276
84249W        W27302  28.911   0.733   2.130  0.2896  0.3061  0.1568
84250W        W27303  25.856  28.116  13.619  0.0610  0.0729  0.1456
84251W        W27304  26.657  17.873  27.906 -0.1704 -0.0643 -0.0736
84252W        W27305   5.545  30.075   0.146 -0.2016 -0.2443 -0.0447
84253W        W27306   7.630  24.290   2.585  0.0576  0.4546 -0.2157
84254W        W27307   4.156  24.874  28.493 -0.1124 -0.0561  0.1811
84255W        W27308  19.992  25.175   6.646  0.0171 -0.0528 -0.0764
84256W        W27309   3.960  14.421  28.275  0.3095 -0.3080  0.3516
84257W        W27310  20.939  15.704   2.427  0.0673  0.1049  0.1383
84258W        W27311   4.599   9.010  20.459  0.1071  0.1175 -0.2671
84259W        W27312   6.706   2.054  27.579  0.2529 -0.3450 -0.1287
84260W        W27313   1.173   3.954   9.613  0.4069  0.0673  0.0590
84261W        W27314  20.280  12.180   7.378  0.5185 -0.0797  0.2176
84262W        W27315  18.913  30.293   6.826 -0.1485  0.0336 -0.0640
84263W        W27316  23.378  32.150  19.944 -0.0536 -0.3444 -0.1511
84264W        W27317  14.767  10.589  28.725  0.0701  0.2155  0.2764
84265W        W27318  18.969  33.991  18.994 -0.0224  0.0330  0.0417
84266W        W27319  19.653   9.750   8.287 -0.2702 -0.1767  0.0687
84267W        W27320  18.197  30.012   2.182 -0.1912  0.1875  0.0844
84268W        W27321   3.720  27.271  14.860  0.3898  0.1113 -0.0726
84269W        W27322   8.889  20.549   3.760  0.0095 -0.3495  0.2453
84270W        W27323  17.905  25.099  18.571 -0.3896 -0.0224  0.0070
84271W        W27324  34.613  18.500  16.420  0.1790 -0.1306  0.3054
84272W        W27325  24.303   6.632  24.069  0.1031 -0.2627 -0.1504
84273W        W27326  10.951  29.819   9.442  0.0947  0.0017 -0.2674
84274W        W27327  15.957  32.530   8.608 -0.0143 -0.0789  0.0741
84275W        W27328  19.652   3.626   3.177 -0.1696 -0.0498  0.0724
84276W        W27329  21.526  32.330  16.449 -0.1943 -0.0118 -0.2441
84277W        W27330  18.108  31.682  20.774 -0.0861 -0.3459 -0.2857
84278W        W27331  12.721  31.848   7.137  0.1234  0.2700  0.0575
84279W        W27332   3.200  30.613   9.250  0.3746  0.1460 -0.0397
84280W        W27333  11.391   5.751   1.564 -0.0459  0.1013  0.0047
84281W        W27334  21.878  32.988  17.500 -0.0115 -0.1137 -0.1673
84282W        W27335  16.023  26.074  26.254  0.0135 -0.0208 -0.0120
84283W        W27336   9.880   0.705   3.384 -0.2549 -0.0726 -0.0084
84284W        W27337  31.062   6.014   5.492  0.0541 -0.0073 -0.1415
84285W        W27338  32.560   6.600   6.299 -0.0178  0.1666  0.4381
84286W        W27339  19.732   5.467  23.394  0.1383  0.1665 -0.1764
84287W        W27340  32.845   1.846  22.303  0.1798 -0.0872  0.1161
84288W        W27341  15.532   3.099   3.400 -0.0530  0.0685 -0.0114
84289W        W27342  19.316   6.070   2.871  0.2613 -0.0875 -0.1817
84290W        W27343  30.781  33.524  21.517 -0.0467 -0.0464 -0.2439
84291W        W27344  32.895  28.507  23.151  0.1759 -0.0774 -0.0131
84292W        W27345  29.182  12.799  21.191 -0.0264 -0.3651 -0.1754
84293W        W27346   2.367  33.219  17.302 -0.1837 -0.2448  0.0397
84294W        W27347  23.148  34.240   3.637 -0.2936  0.1496 -0.0716
84295W        W27348  20.345   3.054   5.700 -0.0318 -0.2862  0.1535
84296W        W27349  20.441  19.467   3.470 -0.4053  0.2907  0.1806
84297W        W27350  26.658  31.631  25.572  0.1297  0.0648 -0.0793
84298W        W27351  10.042  19.140  21.301  0.1528  0.0243  0.2178
84299W        W27352  16.573  29.233  22.557  0.0348  0.0243  0.4247
84300W        W27353   0.221  30.982  13.748 -0.1434 -0.2710 -0.2763
84301W        W27354  19.348   1.896   7.853 -0.0777 -0.0714  0.0025
84302W        W27355  29.384   5.193  27.656 -0.2477  0.0668 -0.2386
84303W        W27356  17.245  23.088  16.477 -0.0021 -0.1455 -0.2508
84304W        W27357  29.330  33.012   3.802 -0.0770  0.3940  0.0705
84305W        W27358  12.226  12.725   5.492  0.1404 -0.1170 -0.2209
84306W        W27359   6.702   1.925  18.769  0.3359  0.0873 -0.0615
84307W        W27360   9.697  30.945  23.366  0.2629 -0.0439 -0.2353
84308W        W27361  21.092  24.722   7.372 -0.1383 -0.1923 -0.0724
84309W        W27362  32.486   3.692  28.194  0.2035 -0.0990 -0.0455
84310W        W27363  13.182  16.677   6.697 -0.1514  0.1700  0.0730
84311W        W27364  20.951  32.092   8.504  0.1089 -0.0523  0.0626
84312W        W27365   1.825   4.702   2.240  0.0895 -0.1767 -0.0281
84313W        W27366  12.232   8.818  19.854 -0.1593  0.1664  0.0860
84314W        W27367  23.123  14.498  27.071  0.1456  0.2457  0.0710
84315W        W27368   1.513  11.892   0.411  0.0735 -0.1054  0.0408
84316W        W27369  13.952   0.461  15.999 -0.3078  0.0756  0.1203
84317W        W27370   0.534  24.127  17.529 -0.0313  0.0884  0.0153
84318W        W27371  32.604  25.375   1.061  0.1270 -0.2274 -0.1204
84319W        W27372  10.209   8.012  28.614  0.1161 -0.2110  0.2264
84320W        W27373  21.220  30.173  24.737 -0.0155 -0.0852  0.2043
84321W        W27374  21.094  19.479   7.045  0.2949  0.2117 -0.1744
84322W        W27375   9.105   4.082  16.713  0.3715 -0.0273 -0.3257
84323W        W27376  24.153  19.491   5.405  0.0340 -0.2502 -0.1900
84324W        W27377  32.037  32.032   8.434  0.1512  0.5048 -0.1487
84325W        W27378  14.366  10.710   1.013  0.0436 -0.1332 -0.1518
84326W        W27379  22.479  13.668  28.620 -0.1675 -0.0736  0.4028
84327W        W27380  24.045  26.859   2.067 -0.3114 -0.3706  0.3411
84328W        W27381  14.050   6.172  27.054  0.1975  0.1251 -0.3362
84329W        W27382  30.416  15.563  28.785 -0.0806  0.1318  0.2517
84330W        W27383  20.233  11.623   9.970  0.0767  0.0917 -0.3495
84331W        W27384  14.935   4.336  18.580  0.0032  0.0787  0.0408
84332W        W27385  13.215  28.544   6.897 -0.1497  0.2178 -0.0514
84333W        W27386   1.777   2.502   4.767  0.2353  0.0377 -0.2674
84334W        W27387  13.779  34.616  20.869  0.0248 -0.1832 -0.4196
84335W        W27388   3.257   3.768  19.916 -0.1090 -0.1641 -0.0871
84336W        W27389  19.685  11.290  20.551  0.0913  0.3113  0.4673
84337W        W27390  18.373   7.376   3.425 -0.3819  0.0808 -0.0645
84338W        W27391  12.421  27.161   4.308 -0.1700  0.1390 -0.0245
84339W        W27392  21.734  28.321   4.883  0.2665  0.2015 -0.2463
84340W        W27393  22.320  17.829  24.715  0.3208 -0.3392  0.0530
84341W        W27394  13.217  12.960   5.677 -0.0081  0.2084  0.1751
84342W        W27395  23.370   7.171  14.162 -0.2216  0.0402  0.2129
84343W        W27396   4.160  10.786   3.715  0.2697 -0.0289  0.0036
84344W        W27397  26.675   8.599  22.288 -0.1126 -0.1123 -0.1024
84345W        W27398  30.096   4.661  15.018 -0.0774 -0.1263 -0.1451
84346W        W27399  11.229  33.596  21.664  0.2669  0.1202  0.0102
84347W        W27400  10.484   6.575  21.590 -0.2161 -0.0068 -0.3138
84348W        W27401  32.417  22.424  22.181 -0.0693 -0.1420 -0.0030
84349W        W27402  26.560   1.823  24.005 -0.1139  0.3351  0.0991
84350W        W27403   6.106   2.454   4.877 -0.1656 -0.1161 -0.2042
84351W        W27404   5.585  33.890  21.525 -0.1766  0.1616 -0.1495
84352W        W27405  19.328   1.867   3.643 -0.2698  0.0956  0.1635
84353W        W27406  21.526   6.769   2.348 -0.0271  0.1482 -0.0771
84354W        W27407  25.820  33.098  27.881  0.0434  0.1663  0.0753
84355W        W27408  19.518   2.328   1.479  0.0075 -0.2513  0.1067
84356W        W27409  18.165   9.651   6.979 -0.3052 -0.2802 -0.0378
84357W        W27410  12.168  29.040   6.113  0.3569 -0.0011  0.0356
84358W        W27411  24.225   4.776  20.425 -0.2628  0.2859  0.0439
84359W        W27412  19.996  18.218  27.218 -0.0759  0.0397 -0.1138
84360W        W27413  19.126   3.604  10.306  0.1561  0.0166 -0.0124
84361W        W27414  19.561   4.127  29.191  0.2852  0.2756 -0.0187
84362W        W27415  21.434   2.742  20.349  0.0911 -0.1748  0.3304
84363W        W27416   4.647   7.498   3.396  0.1341 -0.0790  0.1835
84364W        W27417   6.957  19.573   0.232  0.3263 -0.3197 -0.1062
84365W        W27418  27.285  12.707  19.800 -0.0368 -0.0450 -0.0034
84366W        W27419  14.707  13.433   2.658 -0.0560 -0.1781  0.2466
84367W        W27420  24.204  22.794  23.899 -0.1837 -0.1567 -0.2490
84368W        W27421  21.176  34.312  21.140 -0.0582 -0.1576  0.0999
84369W        W27422  20.033  25.168   4.062 -0.0548 -0.1796  0.0243
84370W        W27423  27.335  22.104  17.952  0.1875  0.0753  0.0476
84371W        W27424  19.033   1.861   6.094  0.2713 -0.0325  0.2726
84372W        W27425  31.999  21.748  26.267  0.1777  0.0195 -0.2111
84373W        W27426  19.009  22.833   9.501 -0.0296  0.3050  0.2443
84374W        W27427  24.551  14.640  14.236  0.1518 -0.4287  0.1686
84375W        W27428  17.347  31.958   2.962 -0.1237  0.1980 -0.2749
84376W        W27429  15.574  19.122  27.934 -0.1519  0.1047  0.2444
84377W        W27430  14.737   9.601   8.272 -0.0359  0.0242 -0.0381
84378W        W27431  22.871   4.934  19.934  0.2202 -0.0823  0.0829
84379W        W27432  32.658   1.788  14.953  0.2085 -0.3042  0.1312
84380W        W27433  16.088  10.782   2.042  0.0164  0.2124 -0.0231
84381W        W27434  25.459  24.043   8.140 -0.2512 -0.1215  0.1434
84382W        W27435  27.270  29.525  22.969 -0.0448  0.1004  0.1681
84383W        W27436  29.234  17.611  25.626  0.0632  0.1933 -0.1407
84384W        W27437  31.022  20.707  21.345 -0.0674 -0.0193  0.0949
84385W        W27438   3.727   0.199  27.405 -0.1889 -0.1271  0.1740
84386W        W27439  34.225  33.143   5.548 -0.0721  0.0722  0.0056
84387W        W27440  20.016   9.750  15.350  0.0327 -0.0455  0.1930
84388W        W27441  27.242  22.163   7.564 -0.0418 -0.0843  0.2595
84389W        W27442  31.258  18.767   0.536  0.2358  0.0306 -0.1020
84390W        W27443  30.438  14.656  22.465  0.1273  0.0232 -0.0780
84391W        W27444  14.837  18.850  14.068 -0.0879  0.2754  0.0949
84392W        W27445  19.260  13.472   2.354 -0.0094  0.0254  0.1336
84393W        W27446  27.284  22.464   0.801  0.0574  0.3305 -0.1039
84394W        W27447   7.587  19.965   2.818  0.2449 -0.0185  0.0995
84395W        W27448  20.042  24.056   5.126 -0.1079  0.0285 -0.1522
84396W        W27449  19.886   0.152  18.168 -0.2334 -0.1439  0.0779
84397W        W27450  30.107  10.985  22.586  0.3950 -0.1888  0.0535
84398W        W27451  13.614   1.791  24.428  0.0268  0.0913  0.0360
84399W        W27452  19.576   5.849   9.842  0.0964  0.2433  0.1487
84400W        W27453  25.382  34.397   7.928 -0.2100  0.2879 -0.1281
84401W        W27454  14.195  26.628  19.929 -0.3683 -0.0412 -0.0090
84402W        W27455  14.844   8.506   8.163 -0.6702 -0.2961 -0.1310
84403W        W27456  28.404  18.243   7.107 -0.3120  0.0478 -0.1068
84404W        W27457  23.291   7.834  24.259 -0.0822 -0.1539 -0.1924
84405W        W27458   9.928   3.162  24.099 -0.3970  0.1498 -0.2057
84406W        W27459  22.110   9.194   7.104 -0.3478  0.2276  0.0604
84407W        W27460  21.076  27.897  24.867  0.2370  0.0437 -0.3271
84408W        W27461  18.520  13.040  22.013 -0.1548  0.1686 -0.2984
84409W        W27462  27.234   0.837   5.122  0.1960 -0.1288  0.0540
84410W        W27463  12.654  12.069   9.497  0.1908 -0.0808 -0.0061
84411W        W27464  17.238   5.159  23.838 -0.0446  0.0850  0.1293
84412W        W27465  14.375   6.982  23.871 -0.3152 -0.1523 -0.0652
84413W        W27466  14.392  11.944  26.058  0.0369  0.1091 -0.2073
84414W        W27467  15.761  12.622  16.646 -0.0813  0.2380  0.2624
84415W        W27468  19.775  12.278  28.066  0.1290 -0.1969 -0.0555
84416W        W27469  22.965   3.317   2.573 -0.0310 -0.1834  0.1828
84417W        W27470  15.009  28.574  10.035  0.0315 -0.3244 -0.1595
84418W        W27471   8.831   4.159   6.399 -0.2089  0.1463 -0.2069
84419W        W27472   6.043   0.899   3.591 -0.0741  0.2082  0.0987
84420W        W27473  11.645  28.822  24.615 -0.2189 -0.0956 -0.1654
84421W        W27474   2.616   9.863  19.260 -0.3101  0.0230  0.0191
84422W        W27475  14.936   0.867   1.574  0.0597 -0.0587 -0.3607
84423W        W27476  25.819  22.016   8.626 -0.0018 -0.1392  0.3880
84424W        W27477  29.597   2.618  26.201 -0.1318  0.4266  0.2253
84425W        W27478  21.891   1.312  18.616  0.0509 -0.0029 -0.0493
84426W        W27479   0.487  23.515   3.905 -0.0872 -0.4422  0.2546
84427W        W27480  22.244  27.707  17.222 -0.3006 -0.1182  0.2004
84428W        W27481  11.964  33.048  28.518  0.0678  0.3004  0.1442
84429W        W27482  28.154  29.476   6.371 -0.2144 -0.2754 -0.0307
84430W        W27483   7.568   6.160   4.903  0.0632 -0.0186 -0.0956
84431W        W27484   5.376  18.679   9.190  0.2558 -0.0267  0.0270
84432W        W27485  16.640  24.072  23.259  0.0513 -0.0481 -0.0491
84433W        W27486   3.387  31.148   7.914  0.1830 -0.1475  0.1438
84434W        W27487  23.475  32.554  26.031 -0.0174  0.0667  0.0288
84435W        W27488   9.129  22.630  16.547  0.3640 -0.2201  0.0397
84436W        W27489  18.178  33.678   3.144 -0.2797  0.0692  0.0637
84437W        W27490   2.398  12.999  22.688  0.1304  0.1235  0.2687
84438W        W27491  25.006  24.148  15.919 -0.2567  0.1091  0.1524
84439W        W27492  26.554   4.365  28.205  0.1094 -0.2368 -0.0366
84440W        W27493  10.779  30.078   1.417  0.1024 -0.1233  0.0887
84441W        W27494  19.359   9.120  28.593 -0.0488  0.0944  0.0696
84442W        W27495  16.781  20.822  24.172 -0.1629 -0.0259 -0.1190
84443W        W27496  25.589   6.368   3.019 -0.0059 -0.1694 -0.0201
84444W        W27497   8.882  33.344   6.052 -0.4960 -0.1444 -0.0424
84445W        W27498  14.423  26.771  20.687  0.2531 -0.2995  0.3252
84446W        W27499   6.299  33.292  24.942  0.3306 -0.4474 -0.1300
84447W        W27500  10.215  17.441  24.715 -0.0838  0.1928  0.3767
84448W        W27501  28.453  22.378   3.383 -0.1515 -0.0069 -0.4667
84449W        W27502  10.313  31.820  20.733 -0.0094  0.2021 -0.0798
84450W        W27503  30.173   4.526  27.907  0.0685  0.0741  0.0654
84451W        W27504  23.021   5.217  14.774 -0.1626 -0.1736 -0.0419
84452W        W27505   9.271  15.458  16.330  0.0326 -0.1617  0.2381
84453W        W27506   7.863  19.919  28.105 -0.0143  0.1224 -0.1522
84454W        W27507   8.126   5.488  14.896  0.1298  0.0181 -0.2213
84455W        W27508  33.131  11.681   5.228 -0.0438  0.1595  0.3399
84456W        W27509  19.897   5.312  24.450  0.4552  0.3011 -0.1961
84457W        W27510  27.139  19.086   3.232  0.0338  0.2252 -0.3194
84458W        W27511  26.403  22.566  25.491  0.0203  0.0358  0.0964
84459W        W27512  18.824  30.762   8.628  0.2754  0.0763  0.2753
84460W        W27513  25.855   9.271  17.965  0.1252  0.0952  0.0055
84461W        W27514  22.419  27.485   1.951  0.0928  0.1221 -0.0898
84462W        W27515  16.874  26.205  28.453 -0.0473 -0.3461 -0.1291
84463W        W27516  13.743  26.644  24.794  0.1257  0.0449 -0.0817
84464W        W27517  33.267  34.219  20.456 -0.0349 -0.2188 -0.0223
84465W        W27518   6.657  21.302   1.736 -0.1705 -0.2979 -0.0135
84466W        W27519  34.126  25.902  15.607  0.2497  0.1922 -0.0559
84467W        W27520  29.291  12.088   1.074 -0.0470 -0.0086  0.1093
84468W        W27521  20.120  15.309  13.702  0.1158  0.0986  0.0421
84469W        W27522  34.393  29.748  16.587  0.1171  0.1684  0.2023
84470W        W27523   6.998   5.401  14.545  0.0984  0.0649  0.3149
84471W        W27524  27.075  29.644  29.138 -0.1122  0.1455  0.0030
84472W        W27525  15.661   4.561  19.556 -0.0119 -0.2866  0.3036
84473W        W27526  16.878   4.442  23.762 -0.0635  0.1916 -0.2775
84474W        W27527  17.480  33.927  21.572  0.0602  0.0350  0.1146
84475W        W27528  24.390  18.250  27.445  0.3974  0.1199 -0.1225
84476W        W27529  14.098   7.347   0.525  0.1803  0.0939 -0.0190
84477W        W27530  23.444   6.606   0.587 -0.1277 -0.2603 -0.0373
84478W        W27531  24.113   6.470  24.600 -0.2882  0.2849  0.1925
84479W        W27532  14.395  33.964  20.696 -0.2175 -0.0710  0.2163
84480W        W27533   7.463  28.318  21.836  0.1879  0.1226 -0.2322
84481W        W27534   7.749  22.962  15.256 -0.0387 -0.0660 -0.0208
84482W        W27535  32.992  33.574  25.665 -0.0845  0.4051 -0.0325
84483W        W27536  21.637  30.289  23.429 -0.3628 -0.1088  0.2437
84484W        W27537   8.418  32.453  23.430 -0.2300 -0.2991  0.0107
84485W        W27538  15.568  21.947  15.453  0.0245  0.1939 -0.0397
84486W        W27539   8.140  30.653  15.376 -0.1438  0.2383 -0.0132
84487W        W27540  23.237  29.777  15.823  0.0381 -0.2194 -0.0852
84488W        W27541  32.541  29.541   1.160  0.1207 -0.0619 -0.1587
84489W        W27542  16.119  26.713   3.089 -0.0783 -0.0385  0.1440
84490W        W27543   0.624  23.154  15.232 -0.4863 -0.1550 -0.1083
84491W        W27544  31.332  28.055   7.356 -0.0987 -0.1593 -0.0713
84492W        W27545  14.488  34.261  15.898 -0.0512 -0.2877 -0.0006
84493W        W27546   7.856   1.618  17.534  0.0252 -0.1008 -0.0874
84494W        W27547  13.058   2.200  13.983  0.0429  0.1286  0.1237
84495W        W27548  16.220  31.278  14.943 -0.0058 -0.0672  0.0822
84496W        W27549  15.764   8.123  21.684 -0.0416 -0.0577  0.0118
84497W        W27550   1.190  28.881  21.955  0.0205 -0.2579  0.0974
84498W        W27551  20.421  21.608  26.411 -0.0964  0.1438 -0.2117
84499W        W27552  24.234  34.176  14.550  0.2893 -0.3004  0.1091
84500W        W27553  25.042   1.067  21.441  0.0904 -0.0159 -0.1398
84501W        W27554  26.360   7.692  27.634  0.2634  0.1944  0.3461
84502W        W27555  11.215  13.362  20.583  0.4767 -0.1239 -0.0922
84503W        W27556  29.124  12.861  18.200 -0.0107 -0.1492 -0.3555
84504W        W27557  12.888   4.252  21.068 -0.1139 -0.2697  0.2367
84505W        W27558   9.834  34.424  17.716  0.1641  0.0742  0.1060
84506W        W27559   6.865   4.222  19.691 -0.4299  0.0259  0.0780
84507W        W27560  29.474   0.786  16.449  0.2269  0.0404 -0.0840
84508W        W27561  18.452   9.325  14.490 -0.1866 -0.1118 -0.0342
84509W        W27562  20.840  34.348  27.959  0.1645 -0.0660  0.0572
84510W        W27563   5.919   8.102  22.330  0.1522 -0.0029  0.1885
84511W        W27564  32.593  31.818  25.623  0.2141  0.0341  0.0133
84512W        W27565  27.705  33.957  17.922 -0.1482 -0.3380 -0.0080
84513W        W27566  29.504  23.791  23.515  0.0782  0.0821 -0.2113
84514W        W27567  21.468  31.460  29.170 -0.0518 -0.0527  0.0653
84515W        W27568   8.288  33.786  21.213 -0.1540 -0.1601  0.0489
84516W        W27569   9.871  29.498  20.168  0.1201  0.0067 -0.1305
84517W        W27570  24.093   7.854  13.835  0.0406  0.0567  0.3214
84518W        W27571  33.121  34.269  16.238 -0.2432  0.0511 -0.3899
84519W        W27572   6.808   1.704  15.070 -0.0251 -0.1376 -0.0507
84520W        W27573   9.395   6.365  24.761  0.1923  0.1686 -0.1657
84521W        W27574   4.158  16.855  17.235 -0.1923  0.2871  0.0834
84522W        W27575  13.890  32.199  17.136  0.0759 -0.2069 -0.4767
84523W        W27576  29.990   1.731  27.909  0.0168 -0.0635 -0.0364
84524W        W27577  25.801   9.997  17.049 -0.0165 -0.2725  0.2430
84525W        W27578   3.954  16.225  18.559  0.2059  0.1690 -0.0544
84526W        W27579  34.347  25.140  17.295  0.6174 -0.1663 -0.2002
84527W        W27580  12.749   3.167  16.551 -0.1020 -0.1463 -0.3362
84528W        W27581  27.592  11.770  20.050 -0.1694  0.0856 -0.0687
84529W        W27582   5.288  13.661  26.507 -0.0934  0.2541 -0.0582
84530W        W27583  22.423   3.541  13.872  0.1752 -0.1119 -0.2696
84531W        W27584  28.071   2.168  15.098 -0.0172 -0.1535 -0.0980
84532W        W27585   3.943  33.457   4.316  0.0016 -0.1084  0.0961
84533W        W27586  24.317  10.840  21.741  0.1251 -0.3992 -0.3354
84534W        W27587   1.250   6.879  27.826 -0.1090 -0.1598 -0.0059
84535W        W27588  10.980  12.583  28.008 -0.3260 -0.1599 -0.1687
84536W        W27589   6.095   7.752  21.041  0.1337  0.0454 -0.2718
84537W        W27590  32.044  18.301  16.841  0.0538 -0.0374  0.2666
84538W        W27591  27.805  23.598  24.623 -0.2352 -0.0946  0.1487
84539W        W27592  11.827  27.139  25.547 -0.1901  0.1300 -0.1458
84540W        W27593  25.246   2.515   2.730  0.1832  0.0252 -0.2593
84541W        W27594   5.432  32.789   3.677 -0.0993  0.0576  0.0242
84542W        W27595  14.921   9.090  15.338 -0.1241 -0.3564 -0.1897
84543W        W27596  15.654  29.886  23.182 -0.2938  0.3668  0.2846
84544W        W27597   8.536   5.434  20.941  0.1029  0.0262  0.0598
84545W        W27598  21.305   8.588  14.396  0.1828 -0.0657 -0.0997
84546W        W27599  26.802  16.914  27.828 -0.0510 -0.0228 -0.2231
84547W        W27600   5.273  27.192  28.371 -0.1044  0.0922 -0.3914
84548W        W27601  12.716   9.549  25.537  0.1218 -0.0485  0.1658
84549W        W27602  17.858   3.095  20.798  0.3956 -0.1338  0.0324
84550W        W27603   4.747   0.512  25.454  0.1215  0.2431  0.4043
84551W        W27604   1.562  17.399  27.342  0.0273 -0.3114  0.2073
84552W        W27605   3.436   0.393  18.969  0.1209 -0.1666  0.2410
84553W        W27606  20.454  11.666  27.441 -0.0025 -0.1179  0.0400
84554W        W27607   3.299   2.146  28.251  0.2451  0.2761 -0.2895
84555W        W27608  19.589   8.525  25.866 -0.0938  0.0772  0.0725
84556W        W27609   0.589   9.152   7.906  0.0753  0.1226  0.1232
84557W        W27610   8.067   5.508  16.806  0.1496  0.3209  0.2524
84558W        W27611  12.904  33.703  14.699 -0.1141 -0.0263  0.2496
84559W        W27612  27.110  23.222  16.967 -0.2875  0.1604 -0.0416
84560W        W27613  19.081   6.417  14.247 -0.1022 -0.3654 -0.2495
84561W        W27614  18.145   1.059  18.844 -0.4352  0.0292  0.1090
84562W        W27615  32.126   6.047  14.801 -0.0704 -0.1973  0.1670
84563W        W27616  14.190   9.731  25.362 -0.0657  0.0761  0.0680
84564W        W27617  12.088  11.769  22.142 -0.0584 -0.2208 -0.0950
84565W        W27618   6.013  26.409  17.195  0.1666 -0.2185  0.0027
84566W        W27619  27.813  25.279  16.546  0.1278 -0.1543  0.0131
84567W        W27620  26.692  17.225  16.166  0.0172 -0.0488 -0.0209
84568W        W27621  31.238  12.323  26.012  0.1282 -0.2692  0.0969
84569W        W27622  29.750   1.961   1.835  0.2689  0.2434  0.3703
84570W        W27623  13.630   6.376  19.970 -0.1413  0.0216 -0.1387
84571W        W27624   7.314  28.061  21.168 -0.3505 -0.2684  0.0325
84572W        W27625   8.825   4.409  20.886 -0.0740 -0.1559  0.0980
84573W        W27626  10.850  13.623   4.495  0.0313  0.2485  0.3845
84574W        W27627   7.734  20.124  25.820 -0.0857  0.1603 -0.0699
84575W        W27628  16.801  28.309  15.792  0.2109 -0.1183 -0.0558
84576W        W27629  13.293  32.588   0.314 -0.5307 -0.0519  0.0317
84577W        W27630  21.389  18.805  17.112  0.3437 -0.0132  0.1292
84578W        W27631  16.699  11.214  24.472 -0.0233 -0.1393 -0.1236
84579W        W27632  17.523   8.994  21.927 -0.0311  0.0161  0.5016
84580W        W27633  16.632   2.033  15.775 -0.0028 -0.1433  0.4135
84581W        W27634  22.560   4.073   0.531  0.2409 -0.0251 -0.0968
84582W        W27635   5.041   3.738  23.636 -0.2588 -0.1159 -0.2034
84583W        W27636  21.655  32.048  14.555 -0.0667  0.1220  0.0208
84584W        W27637  26.958  32.403  21.950 -0.4354  0.0381  0.2132
84585W        W27638   0.427   3.825  17.890 -0.1023 -0.1091 -0.0226
84586W        W27639  29.969  24.361  19.559  0.3116  0.0043 -0.0740
84587W        W27640   4.237  12.781  22.044 -0.0000 -0.0152 -0.1012
84588W        W27641  20.059   6.350  14.559  0.1086  0.0835 -0.2231
84589W        W27642  10.669   5.329   2.751  0.0958 -0.0515  0.3059
84590W        W27643  14.068  26.492  28.716 -0.0797  0.0299 -0.4367
84591W        W27644  29.713   7.739  17.495 -0.0504 -0.2294 -0.2922
84592W        W27645  16.326  18.827  26.025  0.2139 -0.2904  0.0611
84593W        W27646  17.952  27.641  23.599  0.1236  0.3174  0.0108
84594W        W27647  25.433   9.597  24.750  0.3061 -0.0104 -0.2984
84595W        W27648  21.149  31.186  23.614  0.1578 -0.1984  0.0429
84596W        W27649  32.439  10.079   9.368 -0.1074  0.1450 -0.0882
84597W        W27650  24.389  30.003  21.475 -0.0710  0.0864  0.0760
84598W        W27651  21.042  23.774  16.420  0.0824  0.0253  0.2066
84599W        W27652  14.178   0.165  22.916 -0.1203  0.0374 -0.2150
84600W        W27653  12.142  24.281  26.150  0.0720  0.1734  0.2966
84601W        W27654  24.853  10.420  23.821 -0.0461 -0.1411 -0.0849
84602W        W27655  22.763  15.582   8.389  0.3277  0.0843  0.2055
84603W        W27656  31.265   4.628  16.445 -0.1327 -0.1520  0.0128
84604W        W27657   9.457   8.603  15.569 -0.5280  0.1513 -0.1729
84605W        W27658   9.225  18.267  16.921  0.3224  0.2655  0.0892
84606W        W27659  21.620  30.739  14.732 -0.0509 -0.0838  0.3304
84607W        W27660   3.880   9.069  19.725 -0.1493  0.1923 -0.2021
84608W        W27661  12.336   1.990  15.552  0.2739  0.3885 -0.3687
84609W        W27662  24.116   0.183  18.691  0.0780  0.2644  0.1369
84610W        W27663   0.298  10.219  21.886  0.0471 -0.0346  0.1523
84611W        W27664  20.056  29.396  15.062  0.2861  0.0128 -0.1533
84612W        W27665  24.214  33.107  16.497  0.0532 -0.1753  0.2386
84613W        W27666   7.614   2.811  16.874  0.0259 -0.2011  0.1036
84614W        W27667  29.910  33.170  16.208  0.5938 -0.0519 -0.0462
84615W        W27668  22.678   8.860  22.077  0.2920 -0.1658  0.1799
84616W        W27669  14.782  33.053  16.718 -0.4888 -0.1022  0.1083
84617W        W27670  10.968  16.165  15.965 -0.3302  0.3152 -0.0668
84618W        W27671  15.920  25.304  14.713 -0.2068 -0.0992 -0.1348
84619W        W27672  16.589  34.480  16.611 -0.1863 -0.0551 -0.1887
84620W        W27673  23.321  25.062  19.212 -0.1035  0.1632  0.3223
84621W        W27674  17.128  32.434  21.619  0.3718 -0.2239  0.2071
84622W        W27675  22.245   2.597  14.478 -0.1560 -0.0503  0.2170
84623W        W27676  18.912   5.080  19.886 -0.0419  0.0519  0.0161
84624W        W27677  24.796  33.481   3.187  0.3992 -0.0109 -0.3529
84625W        W27678  31.507  13.433   1.991  0.1870 -0.5114 -0.3095
84626W        W27679  12.319   0.215  18.677 -0.0755  0.1020 -0.0353
84627W        W27680  19.874  32.251  23.540 -0.1486  0.3370 -0.2474
84628W        W27681  11.616  28.255  16.008 -0.2091  0.0923  0.1867
84629W        W27682  33.827  17.703  18.631 -0.0093 -0.0078 -0.0496
84630W        W27683   2.124  28.069   1.874 -0.0380  0.2257  0.1031
84631W        W27684  13.519  22.275  28.300  0.1326  0.1215 -0.0742
84632W        W27685   0.247   9.535   3.501  0.0260 -0.2036 -0.1721
84633W        W27686  22.118   8.953  27.284 -0.1325  0.0845 -0.0024
84634W        W27687  24.446   1.471  15.024 -0.1881  0.0105  0.2367
84635W        W27688  17.970  33.270  17.062 -0.3514 -0.0582  0.0602
84636W        W27689  21.843  11.536  14.657  0.4629 -0.0810  0.2001
84637W        W27690   0.036  13.538  15.741 -0.1266  0.1316 -0.0417
84638W        W27691   3.768  16.210  16.034  0.0740 -0.0118 -0.0024
84639W        W27692  27.206   5.263  22.563  0.0084  0.0380 -0.2688
84640W        W27693  25.528   2.211  22.326 -0.0133 -0.0292  0.1444
84641W        W27694  29.632  30.950  18.119 -0.2713  0.1260 -0.0239
84642W        W27695  33.059  12.091  23.317  0.0901 -0.1870 -0.2025
84643W        W27696   5.026   6.281  16.655  0.0867 -0.1484  0.1351
84644W        W27697   7.540   6.970  19.043 -0.1931 -0.1137  0.0056
84645W        W27698   6.432   6.341   5.694  0.0795 -0.0376  0.2616
84646W        W27699   5.748   2.012  22.557  0.2017  0.2341 -0.0247
84647W        W27700  22.361   2.636  25.505 -0.2858 -0.1942  0.1781
84648W        W27701   8.325   2.659  21.032  0.1917 -0.1079 -0.0096
84649W        W27702   5.415   4.951  16.284  0.0197  0.1167 -0.2750
84650W        W27703  14.487  33.496  19.635 -0.1949 -0.0272 -0.0422
84651W        W27704  20.969  32.243   0.761 -0.0990 -0.0414 -0.0143
84652W        W27705  31.230   5.911   6.777 -0.1308 -0.0824 -0.0944
84653W        W27706  19.393  10.817  18.886  0.2053 -0.0107  0.1250
84654W        W27707  15.671   4.851  16.158 -0.0687 -0.1497  0.0105
84655W        W27708   7.192   1.991  14.192 -0.0260 -0.0869 -0.1337
84656W        W27709  19.826   9.849  27.404 -0.0001 -0.3950 -0.0159
84657W        W27710  20.679   2.983  17.077 -0.1951 -0.0165  0.2448
84658W        W27711  24.772  24.469  10.289 -0.1473 -0.1056  0.2085
84659W        W27712  12.631  17.597  22.781  0.1601  0.3012  0.1404
84660W        W27713  17.578   4.222  10.175  0.2687  0.3479 -0.1997
84661W        W27714  24.673  30.536  22.219 -0.1061  0.2075  0.0272
84662W        W27715  23.645   3.408  16.575  0.0461  0.1456 -0.1117
84663W        W27716  18.937  11.998  13.961  0.3291  0.1290  0.4127
84664W        W27717   6.600  14.702  16.569 -0.2570 -0.0953 -0.3733
84665W        W27718   9.514   4.927  20.755 -0.2202  0.3112  0.2110
84666W        W27719  22.535  33.921  19.307  0.0250  0.1426 -0.3952
84667W        W27720  19.590  31.876  14.370  0.1209 -0.1858 -0.0662
84668W        W27721  12.286  22.958  13.731  0.1784  0.3035  0.0722
84669W        W27722  27.604  19.682  20.633 -0.3330  0.0944  0.6047
84670W        W27723  14.195  30.476  18.110  0.2394 -0.1664  0.0859
84671W        W27724  22.198  29.245  26.777 -0.1477  0.0894  0.1017
84672W        W27725  12.960  12.729   4.030 -0.2798 -0.1191  0.0462
84673W        W27726  17.081   0.211  16.389  0.0753  0.0997  0.2552
84674W        W27727   0.897  24.001  14.605  0.1592  0.0671 -0.2038
84675W        W27728  13.801   5.108   2.724  0.0682  0.3233  0.0297
84676W        W27729  15.940   4.850  28.744 -0.3270 -0.1089 -0.1298
84677W        W27730  10.193   0.424   6.068  0.1418 -0.0164  0.2844
84678W        W27731  23.808   0.546  10.280  0.1885 -0.0806 -0.0962
84679W        W27732   4.530  16.394   9.072 -0.0188  0.1796 -0.2723
84680W        W27733  26.975  32.961  24.875  0.0711  0.0988 -0.0024
84681W        W27734  21.871   0.607  19.414  0.1231 -0.1505 -0.0156
84682W        W27735  12.207   6.556  22.452 -0.0979 -0.2095 -0.1263
84683W        W27736  24.506   3.217   3.397  0.0612  0.1038 -0.1686
84684W        W27737  25.355  26.743  15.818 -0.2571 -0.0938 -0.2188
84685W        W27738  10.907   4.785  16.098 -0.2130 -0.0251 -0.0050
84686W        W27739  32.968  30.992  15.145  0.0545 -0.1692 -0.2652
84687W        W27740  21.537   7.262  22.987 -0.1320  0.3142 -0.0367
84688W        W27741  22.011   6.066  15.260 -0.1848  0.1158  0.0499
84689W        W27742  24.999  10.165  16.336 -0.0809  0.0988  0.0109
84690W        W27743  18.521  32.338  20.237  0.2335 -0.1041  0.1568
84691W        W27744  21.105  10.628  16.646  0.1384 -0.2171  0.1508
84692W        W27745  17.086   1.874   4.988 -0.1038  0.0392 -0.2249
84693W        W27746  22.763   3.674  24.788 -0.3861  0.1027  0.1568
84694W        W27747   1.201  16.013   0.930  0.0391  0.1212  0.1078
84695W        W27748  12.932  13.933  19.403  0.2690  0.4597  0.3422
84696W        W27749  20.779   4.809  18.847  0.2856 -0.1825 -0.0672
84697W        W27750  25.668  32.616  19.642 -0.0946  0.3299  0.1044
84698W        W27751   5.084   9.618  23.229 -0.2807  0.3997  0.2150
84699W        W27752  20.287  13.165  25.297  0.2087 -0.2028  0.1399
84700W        W27753   5.855  17.433   1.925 -0.3153 -0.1591  0.0436
84701W        W27754  14.167   5.553  16.139  0.1690 -0.2180  0.1866
84702W        W27755  27.584  31.896  18.496  0.1288 -0.0130 -0.0719
84703W        W27756  24.978   1.152  24.926  0.0718  0.0042 -0.0462
84704W        W27757  15.483  34.559  22.128 -0.3662  0.0325 -0.3988
84705W        W27758   6.948  30.223   2.824  0.2244 -0.1160 -0.0009
84706W        W27759  14.867  13.813  25.544  0.1141  0.0063  0.2492
84707W        W27760  20.855   4.999  27.956 -0.3680  0.0358  0.1670
84708W        W27761  18.338  21.546  16.139  0.1331  0.0715 -0.0163
84709W        W27762  21.011   5.843  24.998  0.1828  0.0819 -0.1059
84710W        W27763  14.479  14.320  23.792  0.0023  0.0876 -0.0718
84711W        W27764   7.077   7.267  25.844 -0.0247  0.1424 -0.0218
84712W        W27765   1.600   1.111  13.674  0.1010  0.1395 -0.0495
84713W        W27766  19.629   9.783   0.995  0.3162 -0.0748 -0.1818
84714W        W27767  20.562   4.758  14.243 -0.1255 -0.2503 -0.0900
84715W        W27768  17.811  30.846  18.548 -0.1543 -0.0073  0.1626
84716W        W27769   3.738  28.268  26.264  0.1271  0.0836  0.1870
84717W        W27770  27.571  14.055  15.679  0.2289 -0.0060 -0.1947
84718W        W27771   1.513  10.135  23.002  0.1189 -0.3553 -0.0398
84719W        W27772  29.004   7.921  26.768  0.1693 -0.1352  0.0236
84720W        W27773  21.280   0.540  21.392 -0.0684  0.0470 -0.1937
84721W        W27774   5.365  33.956  18.819 -0.0335  0.1224 -0.2941
84722W        W27775  25.575  32.304  26.696  0.0213 -0.0082 -0.2613
84723W        W27776  23.678   5.895  15.875  0.2765 -0.0728  0.2931
84724W        W27777  30.573  33.027  14.569  0.0126  0.0845 -0.4084
84725W        W27778  13.824  32.678   0.186 -0.1963  0.1690  0.3066
84726W        W27779  20.316   4.591  20.908  0.1274 -0.2296  0.1064
84727W        W27780  11.454  29.702  19.401 -0.2178 -0.1008  0.0328
84728W        W27781   0.699  24.368  16.591 -0.0719  0.2671  0.0262
84729W        W27782  15.096   0.240   2.557  0.1896  0.2437  0.1165
84730W        W27783  17.159   4.851  25.283  0.2860 -0.3137 -0.0170
84731W        W27784  22.009   9.849  14.663 -0.1210 -0.0747  0.1803
84732W        W27785   2.867   3.137   1.276 -0.0331 -0.0393  0.2308
84733W        W27786  10.698  29.836  13.908  0.0718 -0.2171 -0.0629
84734W        W27787  26.992   8.555  16.052  0.0059 -0.0175  0.3460
84735W        W27788  15.636   4.978  17.824 -0.1411 -0.0011  0.1194
84736W        W27789  27.028  19.020  28.982 -0.0746  0.0579 -0.0891
84737W        W27790  15.079   7.741  19.223 -0.0218 -0.0958  0.1376
84738W        W27791  26.222  12.566  21.800 -0.1348  0.2364 -0.1197
84739W        W27792  32.203   4.623   1.486  0.0328  0.1569 -0.0590
84740W        W27793   7.049   9.023  15.283  0.1423  0.0532 -0.0292
84741W        W27794   4.575   3.566  15.649  0.0339 -0.1185 -0.1012
84742W        W27795  10.934  16.977  28.676 -0.1884  0.0432 -0.0445
84743W        W27796  20.908  32.408  19.375  0.2932 -0.0172  0.0765
84744W        W27797  26.211  23.506   6.886 -0.2393 -0.2158 -0.0172
84745W        W27798  12.237   0.096  20.781  0.0915 -0.2148 -0.0593
84746W        W27799  22.429  13.220  25.573 -0.0186 -0.0921  0.0589
84747W        W27800  34.478   7.367   3.930 -0.0278 -0.0585  0.1018
84748W        W27801  21.342   1.579  15.310  0.0139 -0.6710 -0.1493
84749W        W27802  22.934   9.362   1.292 -0.5942  0.1185 -0.3161
84750W        W27803  14.084   3.551  14.513 -0.0856 -0.0983 -0.0640
84751W        W27804  27.841  33.600  17.355 -0.1417  0.0604 -0.3100
84752W        W27805  14.395  10.469  20.255  0.0314 -0.4695 -0.1443
84753W        W27806   5.103  12.862  18.440  0.2802 -0.0983  0.1497
84754W        W27807  30.934   7.721  19.681  0.2108  0.0122 -0.4609
84755W        W27808  23.942   6.188  16.755  0.1129 -0.1309 -0.2061
84756W        W27809  10.678   2.855  18.192  0.2669  0.3396  0.1964
84757W        W27810   4.275  12.038  15.973 -0.1608  0.1999 -0.1008
84758W        W27811   9.757   7.917  15.444 -0.0048 -0.1656 -0.1307
84759W        W27812  10.808   4.127  24.960  0.2378 -0.1055  0.0902
84760W        W27813  25.071  13.411  24.508  0.0536 -0.0516  0.3584
84761W        W27814  23.708  17.930  26.687 -0.0534  0.2717  0.0916
84762W        W27815  15.284  27.496  13.862 -0.1468 -0.1535  0.1209
84763W        W27816  13.631   7.137  15.074  0.2362  0.1721  0.2225
84764W        W27817  26.232  20.192   5.882 -0.3505 -0.0880  0.2633
84765W        W27818   5.830  10.486  14.483 -0.1618 -0.2405 -0.1518
84766W        W27819  32.570  31.356  26.910  0.1032 -0.2158 -0.1246
84767W        W27820  13.828   4.384  18.470  0.1389  0.2666 -0.0275
84768W        W27821  23.559  30.823  15.058  0.1536 -0.0693 -0.0344
84769W        W27822   8.873   3.753  18.459 -0.0006  0.3828 -0.5119
84770W        W27823  28.726   0.630  18.121 -0.0209  0.1147  0.1066
84771W        W27824  13.513  29.718   4.552  0.1129 -0.1673  0.0955
84772W        W27825  14.644   7.164  20.369 -0.4028 -0.0584 -0.0225
84773W        W27826  17.977  34.360  19.804 -0.3570  0.1354  0.1430
84774W        W27827  20.841  29.054  22.986  0.1197  0.2681 -0.2690
84775W        W27828  31.724  11.922  25.099  0.0971 -0.0629  0.2474
84776W        W27829   3.902  14.662   8.373  0.3131 -0.0030  0.1079
84777W        W27830  11.435  23.381  15.244 -0.1586  0.5055  0.3644
84778W        W27831  23.161   8.721  27.667 -0.1867 -0.2138  0.0935
84779W        W27832  22.598  27.531  16.898  0.0499  0.1137 -0.0477
84780W        W27833   6.613   9.500  14.391  0.3488  0.0524 -0.2994
84781W        W27834  16.680   1.480  18.860 -0.3065 -0.0078  0.0938
84782W        W27835  18.385   7.985  22.737  0.2345 -0.0314  0.0771
84783W        W27836  16.295   5.008  14.700 -0.1381 -0.2969  0.1071
84784W        W27837  19.250  14.955  16.054 -0.1830  0.2105 -0.4603
84785W        W27838  23.247  26.832  21.802  0.2309 -0.2137  0.1489
84786W        W27839  10.955   7.040  20.335  0.0607  0.2971 -0.1150
84787W        W27840  14.237   5.661  23.133  0.1485  0.2637 -0.2503
84788W        W27841  17.096  29.164  14.944 -0.1407 -0.0614 -0.3992
84789W        W27842   9.757  13.193  23.617  0.1239  0.0588 -0.0502
84790W        W27843  16.928  26.559  28.759 -0.0451 -0.0347 -0.1681
84791W        W27844  15.987   4.489  26.268  0.0394 -0.1907  0.1427
84792W        W27845  26.944   8.739  17.195  0.1303  0.1993  0.3151
84793W        W27846  30.861   1.951  14.508 -0.2343  0.0632 -0.3513
84794W        W27847  28.072   6.009  26.443 -0.0082 -0.3010 -0.2196
84795W        W27848  25.721  15.151  15.462 -0.0141 -0.0586  0.0089
84796W        W27849  12.778  28.808  17.808  0.0457 -0.0141 -0.0413
84797W        W27850  16.118   7.319  18.848 -0.0462 -0.0178 -0.1508
84798W        W27851   5.681   0.125   0.607  0.2086  0.1333 -0.0668
84799W        W27852  23.621  33.103  20.415 -0.0841 -0.0726  0.0240
84800W        W27853  31.104   1.696  16.776  0.1923  0.1760 -0.0438
84801W        W27854  21.197  20.810  19.184 -0.3428 -0.1680 -0.1343
84802W        W27855  30.551  13.672   2.890 -0.0779 -0.2026  0.2365
84803W        W27856  26.158   4.681  20.325 -0.1377  0.0766 -0.5548
84804W        W27857  24.331  13.909  19.046  0.0167 -0.2676 -0.1911
84805W        W27858  14.001  12.729  17.714  0.0730 -0.0623  0.4396
84806W        W27859   3.035  30.184   6.447 -0.0234  0.0377  0.0292
84807W        W27860  18.546   3.037  20.848 -0.1620  0.2372 -0.2808
84808W        W27861  31.331   5.487  14.018 -0.1371  0.0682 -0.2012
84809W        W27862  18.126   5.479  25.297  0.2720 -0.0806  0.1413
84810W        W27863  28.244   3.046  26.463  0.1319 -0.1406  0.1672
84811W        W27864  24.048  30.935  20.856  0.1921  0.1080 -0.2237
84812W        W27865  12.491   5.724  19.880  0.1167  0.1465 -0.0973
84813W        W27866  24.880  14.933  20.877 -0.1039 -0.2419 -0.0202
84814W        W27867  11.618  26.876  19.825 -0.2262 -0.1449  0.0946
84815W        W27868  33.577  22.532   5.126  0.2690 -0.1389 -0.0780
84816W        W27869  28.790   7.287  23.546  0.2556 -0.0517 -0.1483
84817W        W27870  15.868   8.255   1.086  0.1577 -0.0786  0.0998
84818W        W27871  15.085   5.030  19.062 -0.1400  0.2325 -0.1737
84819W        W27872   9.845   4.854  27.299  0.1008  0.0875  0.1297
84820W        W27873   0.542   4.132  15.626 -0.1541  0.2685  0.1389
84821W        W27874   0.799   0.121   0.375  0.1480 -0.2144  0.5129
84822W        W27875  22.948   6.671  17.840  0.1814 -0.1983  0.0201
84823W        W27876  14.675  27.948  28.471  0.0947  0.0839 -0.0930
84824W        W27877  32.724  16.727  18.875  0.0065 -0.1292  0.0155
84825W        W27878  28.269  28.158  21.320 -0.0097  0.0051 -0.2565
84826W        W27879  27.548  12.965  18.735 -0.2323 -0.0146 -0.1023
84827W        W27880   8.475  33.637  24.942  0.0608 -0.0546  0.0085
84828W        W27881  24.683   2.439  22.740 -0.1251 -0.1453  0.3814
84829W        W27882   3.525   7.272  18.842  0.1363  0.0233 -0.2265
84830W        W27883  17.999  34.680  20.799 -0.1589  0.3703 -0.1474
84831W        W27884  21.454  21.489  14.213 -0.0348 -0.1688  0.0439
84832W        W27885  15.132   0.303  17.099 -0.1797  0.1642 -0.0184
84833W        W27886  24.463  30.429   5.091 -0.0232 -0.0257 -0.0377
84834W        W27887   2.805  29.538  21.949  0.0372 -0.3261 -0.0519
84835W        W27888   9.012  29.831  19.377 -0.0313 -0.3116  0.2248
84836W        W27889  21.490  24.466  18.901  0.2039 -0.2650 -0.0213
84837W        W27890  25.564   0.511   2.761  0.3000 -0.2676 -0.1669
84838W        W27891  24.358  28.503  18.115  0.0347  0.2966  0.3455
84839W        W27892  15.915  27.302  26.731 -0.1230  0.1064  0.0388
84840W        W27893   6.736   7.914  18.650 -0.0296 -0.0260 -0.0839
84841W        W27894  22.027   0.353  26.582  0.1887  0.2335 -0.0681
84842W        W27895   7.332   3.022   0.887 -0.1587  0.1016  0.0488
84843W        W27896  15.413   8.333  25.597 -0.1860 -0.0851 -0.2708
84844W        W27897  24.477   9.356   3.262  0.0576 -0.0224 -0.0686
84845W        W27898  12.000  34.687  23.492 -0.0788  0.0797  0.0183
84846W        W27899  13.174  13.975  15.009 -0.2046  0.2892 -0.4268
84847W        W27900  21.099  12.818  28.287  0.0214 -0.1879  0.0450
84848W        W27901   9.752  16.291  19.575  0.5334  0.0666 -0.2033
84849W        W27902  13.551   7.878  22.871  0.0724 -0.0439 -0.1091
84850W        W27903  14.351   2.563  24.506  0.4202  0.1307 -0.2600
84851W        W27904  15.953  10.022  24.531  0.1634 -0.0404  0.1864
84852W        W27905  27.116   5.160   3.652 -0.0073 -0.0806  0.1887
84853W        W27906  25.472   8.405  15.174  0.0593 -0.3649 -0.1048
84854W        W27907  19.358  33.590  17.522  0.0857 -0.5144 -0.0571
84855W        W27908   7.197   4.506  18.013 -0.2386 -0.0832 -0.2638
84856W        W27909  33.780  14.715  26.857 -0.4117  0.1648 -0.1692
84857W        W27910  20.746  18.479  24.543 -0.1356 -0.0658 -0.4791
84858W        W27911  14.393  14.280  15.032 -0.0710  0.0323 -0.1787
84859W        W27912  11.620   8.498  16.421 -0.0240  0.0561 -0.1250
84860W        W27913  14.734  24.166  20.262 -0.0962  0.0114  0.1451
84861W        W27914  17.438  31.559   6.720  0.0336 -0.0076 -0.0442
84862W        W27915  22.064   8.238  14.938 -0.1591 -0.1583 -0.0943
84863W        W27916  16.113   6.521  14.852 -0.1134 -0.3277 -0.0004
84864W        W27917  16.700   2.705  23.014 -0.1298 -0.0879  0.0054
84865W        W27918  31.531  33.449  18.646 -0.0683  0.2719  0.0157
84866W        W27919   9.668  11.038  27.721 -0.0985  0.1579  0.1903
84867W        W27920   7.780  27.860  17.653  0.1257 -0.0420  0.1165
84868W        W27921  11.683  31.824  19.731 -0.1206  0.0724  0.0374
84869W        W27922  10.217  31.754  24.624 -0.1273  0.0218  0.0480
84870W        W27923  14.779   3.353  24.860  0.0819 -0.2119 -0.2863
84871W        W27924  13.167  28.097  13.956  0.2303 -0.4147  0.0429
84872W        W27925  27.171  15.576  13.440  0.2679 -0.2239  0.1382
84873W        W27926  27.100  17.395  25.787  0.2995 -0.1550 -0.0191
84874W        W27927  33.965  18.969  24.970  0.0600 -0.1795 -0.1366
84875W        W27928  11.351  14.672   1.230  0.0337 -0.0292 -0.0108
84876W        W27929  23.188  12.432  13.807  0.0060 -0.1269  0.1300
84877W        W27930  10.018   1.807  19.409  0.0992  0.0965 -0.1440
84878W        W27931  19.986  33.038  16.045  0.0075  0.0046 -0.0325
84879W        W27932   1.967   6.275   0.184 -0.0992 -0.0080 -0.0218
84880W        W27933   7.752  15.158   9.223  0.0626  0.2242 -0.4201
84881W        W27934  15.065   5.994  20.956 -0.0053  0.1512 -0.4078
84882W        W27935  24.647  31.238  28.938  0.1565  0.2998  0.1697
84883W        W27936  11.810   0.584  24.872 -0.1245 -0.1378 -0.0597
84884W        W27937  20.449  33.917  20.846  0.0505  0.0174  0.3601
84885W        W27938  29.687   9.405  19.285 -0.1781 -0.1015 -0.0492
84886W        W27939  16.899  33.200   2.439  0.2066  0.0927 -0.1661
84887W        W27940  22.941  16.933  17.251 -0.1746  0.0622  0.2003
84888W        W27941  31.129  32.993  14.662  0.2080 -0.1824  0.1691
84889W        W27942  13.950  27.056  17.716  0.3159 -0.2661 -0.1360
84890W        W27943  21.427   1.681  28.419  0.3378  0.2034  0.2031
84891W        W27944  22.162   0.337   6.906 -0.2278 -0.2233  0.2334
84892W        W27945  30.010  19.779  15.957 -0.1441  0.0422 -0.1027
84893W        W27946  32.720   7.200  22.606 -0.1598 -0.0762 -0.1926
84894W        W27947  28.084  26.803  25.721 -0.1687 -0.3457  0.0782
84895W        W27948  21.586   9.810   7.930  0.0127 -0.1423 -0.0776
84896W        W27949  15.642  10.047   2.646  0.0980 -0.0776 -0.2246
84897W        W27950  23.054  31.721  21.062  0.1408 -0.1674  0.0974
84898W        W27951  16.657  16.891  27.955 -0.0347  0.0058  0.2576
84899W        W27952  30.421  29.060  16.463  0.0459  0.4531  0.1430
84900W        W27953  13.625   3.376  14.394 -0.5870 -0.2000 -0.1154
84901W        W27954  13.833  12.744  18.177 -0.0199 -0.1338  0.2532
84902W        W27955  28.898   2.961  22.552  0.1701  0.0427  0.2303
84903W        W27956   3.748   1.289  23.895 -0.2407  0.2818  0.0210
84904W        W27957   0.476   8.344  15.869 -0.0938  0.2660 -0.3790
84905W        W27958   8.418   8.490  25.750  0.0906  0.3146  0.0081
84906W        W27959   3.246  26.236  26.194  0.0519 -0.5023 -0.2158
84907W        W27960  30.285  26.758  21.789 -0.0820 -0.1913  0.2604
84908W        W27961  20.494  28.881   0.305  0.0504  0.3808  0.0748
84909W        W27962  18.562  26.821  18.412 -0.0092 -0.0169  0.1218
84910W        W27963   7.912   0.793  22.522 -0.2058  0.3156  0.1882
84911W        W27964  24.671  31.270  24.729 -0.0825  0.1332 -0.3232
84912W        W27965  24.000  20.518  27.676 -0.1482 -0.1711  0.0766
84913W        W27966  15.896  27.117  19.452  0.1884 -0.1022 -0.0764
84914W        W27967  33.047  16.884  20.374  0.1754 -0.2435 -0.0365
84915W        W27968  10.665   1.470  19.951  0.5129  0.3323 -0.1490
84916W        W27969  12.837   0.495  25.205  0.1371  0.1167 -0.0598
84917W        W27970  27.095  23.804   1.787 -0.2537  0.0522 -0.0471
84918W        W27971  29.737  15.743  18.754  0.0999 -0.0189 -0.0814
84919W        W27972   8.365  30.378   1.721 -0.0139  0.0737  0.0225
84920W        W27973  21.166  12.453  17.833  0.2017 -0.0799  0.2191
84921W        W27974  17.216  12.899  16.512 -0.2019 -0.5367  0.0720
84922W        W27975  33.821  23.074  20.577  0.1394  0.0810 -0.0568
84923W        W27976  10.759  32.267  14.257 -0.1180  0.0866  0.4307
84924W        W27977  18.737  16.286  15.097 -0.3398  0.0103  0.3430
84925W        W27978   3.719  19.055  14.252  0.0110  0.2371  0.0478
84926W        W27979  18.028  12.517  22.030  0.1078  0.0612  0.2310
84927W        W27980  18.693  27.962  19.221 -0.0843  0.0384  0.1665
84928W        W27981  26.516  33.862  26.360  0.0334 -0.0538 -0.0113
84929W        W27982  18.191   1.121   1.160 -0.1347  0.0419 -0.3079
84930W        W27983  16.428  26.238  24.171 -0.0333 -0.2888  0.0818
84931W        W27984  31.363  31.776  25.785  0.1614  0.0719 -0.0674
84932W        W27985  25.982   9.418   2.779 -0.4121  0.0237  0.1863
84933W        W27986  25.483   5.931   2.245 -0.0659  0.2177 -0.2029
84934W        W27987  23.982  11.306   4.556 -0.1147 -0.1795 -0.1268
84935W        W27988  21.933  10.028  16.082  0.4864 -0.2661 -0.0919
84936W        W27989  26.038  32.331  28.354  0.2306 -0.0359  0.0740
84937W        W27990  31.235   6.363  17.202  0.0561 -0.1014 -0.2147
84938W        W27991  25.161  16.909  28.058 -0.0396  0.0382  0.1446
84939W        W27992  11.769  25.586   6.207 -0.2944 -0.0888  0.0113
84940W        W27993  20.033   9.380  21.069  0.1065  0.0776  0.0450
84941W        W27994  14.024   3.420  21.083  0.1283 -0.0394 -0.3755
84942W        W27995  10.287   4.368  16.139 -0.3150  0.0966 -0.1094
84943W        W27996  23.727   1.647  22.825 -0.1788  0.2296 -0.0453
84944W        W27997  11.850  30.046  21.564 -0.0918 -0.0932 -0.0666
84945W        W27998  11.525   7.903  14.997 -0.0358 -0.0768 -0.0887
84946W        W27999  25.013   5.096  19.312 -0.3148 -0.4954  0.4198
84947W        W28000   3.972  19.461  20.612 -0.4414 -0.0873 -0.2478
84948W        W28001  23.478  22.178   0.202 -0.3835  0.0028 -0.0306
84949W        W28002   5.030  25.612  17.701 -0.0878  0.1594  0.0846
84950W        W28003  32.039  17.430  28.356  0.1199 -0.0867 -0.1611
84951W        W28004  21.033  27.575  20.062  0.0759 -0.0117 -0.1190
84952W        W28005  19.490   2.115   2.068  0.2279 -0.0171  0.1162
84953W        W28006  14.529  10.829  16.984  0.0623  0.0886 -0.0287
84954W        W28007  25.233  34.379  20.022 -0.0594  0.0809  0.1575
84955W        W28008  14.733  12.936   2.776  0.1502 -0.4686  0.0833
84956W        W28009   1.260  31.155  17.156 -0.1649 -0.1184 -0.0109
84957W        W28010  14.371  12.905  16.754 -0.0733  0.0340 -0.5082
84958W        W28011   8.096   6.229   9.421 -0.0017 -0.0501  0.2940
84959W        W28012  28.211   6.611  18.860  0.0857  0.0366 -0.0417
84960W        W28013  14.831   1.040   9.212 -0.0440 -0.0657  0.1447
84961W        W28014  32.707   1.129  18.614 -0.2478 -0.1020  0.3863
84962W        W28015   2.412  13.703  24.339 -0.1026  0.1328  0.0738
84963W        W28016  20.571  32.994  15.227  0.0558  0.0754  0.1652
84964W        W28017  11.977  20.473  18.073 -0.1421  0.2394 -0.0284
84965W        W28018  11.252   4.820  20.916 -0.3755 -0.2852 -0.3188
84966W        W28019  11.239  11.177  28.745  0.2820  0.0683 -0.3052
84967W        W28020  34.428   5.060  17.127  0.0697 -0.0865  0.1307
84968W        W28021  26.701  29.809  13.765  0.0099 -0.4567  0.1036
84969W        W28022  25.753  14.257  17.465 -0.0926 -0.1276 -0.1985
84970W        W28023  15.991   5.149  23.464 -0.2422  0.4600  0.1701
84971W        W28024  15.442  32.503  21.533 -0.0389  0.0946 -0.1172
84972W        W28025  15.876  29.072  17.172 -0.0180 -0.2340  0.1087
84973W        W28026  27.533  11.359  23.608  0.1805  0.0463  0.1706
84974W        W28027  16.667   8.181   6.505 -0.1815 -0.1398 -0.0424
84975W        W28028  21.850   7.358  21.327 -0.0005 -0.0735  0.1591
84976W        W28029  28.759   8.178  25.393  0.1810 -0.2066 -0.0099
84977W        W28030  26.477   0.424  27.756  0.1101 -0.0282  0.0165
84978W        W28031  29.868  20.095  23.043 -0.0315 -0.2468  0.3547
84979W        W28032  13.136   4.157  22.545  0.0499 -0.0150  0.3607
84980W        W28033  21.621   4.516  28.674  0.0904  0.0635  0.0085
84981W        W28034  27.037   3.745  15.778 -0.0598 -0.2651  0.1122
84982W        W28035  19.133  12.466  18.155  0.1673 -0.3141 -0.2428
84983W        W28036  16.248   2.036  14.454  0.0813 -0.2689 -0.2551
84984W        W28037  27.924  17.803  18.457 -0.0808  0.2510 -0.3830
84985W        W28038  23.275   2.754  18.203  0.1723 -0.3495 -0.0530
84986W        W28039  28.508   2.626  21.216  0.1177  0.1518 -0.0856
84987W        W28040  34.011  30.147  28.148  0.0928  0.3695 -0.0834
84988W        W28041  25.051  15.383  27.929  0.3109 -0.0854 -0.0191
84989W        W28042  19.737  27.815   2.617 -0.1662 -0.1727 -0.0371
84990W        W28043  12.942   9.276  17.486  0.3554  0.2671  0.2753
84991W        W28044  28.183   1.137  15.264 -0.0707 -0.0154  0.1707
84992W        W28045   9.767   2.869  22.881 -0.2665  0.1283  0.0104
84993W        W28046  32.171  10.865  24.716 -0.1181  0.0813  0.2120
84994W        W28047  13.687   2.010  23.290  0.0584  0.0130  0.2342
84995W        W28048  23.259   7.643  14.876  0.2096 -0.2091 -0.0333
84996W        W28049  22.935  29.958  18.724  0.0336  0.0978 -0.1492
84997W        W28050  29.299   5.072  24.042 -0.1436 -0.2444  0.0071
84998W        W28051   5.807   4.333   2.332  0.0965  0.0449 -0.3241
84999W        W28052  24.088   2.561  28.112 -0.0265 -0.4121  0.0335
85000W        W28053  12.476   3.029   4.262 -0.0907  0.2223 -0.0361
85001W        W28054  21.250   8.255   2.182  0.2771  0.2242  0.0430
85002W        W28055  20.838   5.380  20.757  0.1716  0.0039  0.1591
85003W        W28056  13.898  21.615  20.052  0.0077 -0.0487  0.0147
85004W        W28057   4.969  32.431   3.823  0.0357  0.1460 -0.2058
85005W        W28058  26.677  14.584   3.650 -0.2676 -0.0065 -0.0857
85006W        W28059  15.699   5.166  18.848 -0.2453 -0.4477  0.3752
85007W        W28060   9.136  26.010  22.021 -0.1051 -0.2170  0.0074
85008W        W28061  27.146  31.809  18.676  0.1513 -0.0114 -0.0555
85009W        W28062  12.493   2.558  14.449 -0.0699 -0.0884 -0.1827
85010W        W28063  17.069  13.364  28.806  0.1975 -0.2798  0.0682
85011W        W28064  27.778  33.878  24.716  0.1926 -0.1115 -0.2853
85012W        W28065  18.455  33.730  14.978  0.0825  0.2898 -0.1848
85013W        W28066  20.797   3.004  24.875 -0.2118  0.0803  0.2119
85014W        W28067  21.289   9.552  24.465 -0.2395  0.2624  0.2546
85015W        W28068  26.646  24.179  22.885 -0.1121 -0.2986  0.0426
85016W        W28069  13.303   0.174  15.271 -0.0815 -0.2483 -0.0848
85017W        W28070  22.904  32.957  21.606 -0.1454 -0.1783  0.0832
85018W        W28071  22.959  15.004  19.313  0.0904 -0.1792  0.0199
85019W        W28072  28.667   5.419   0.223 -0.2226  0.0352 -0.1673
85020W        W28073  10.990   1.352  17.263 -0.0518 -0.1662 -0.3150
85021W        W28074  32.328  11.360   1.018  0.0970  0.0537 -0.1043
85022W        W28075   0.003   5.290   2.264 -0.0070 -0.2028  0.0691
85023W        W28076  10.984  30.195   3.281 -0.1760  0.0803  0.0618
85024W        W28077  14.637  26.231  15.617 -0.1777  0.0665 -0.0031
85025W        W28078  17.471  12.970  25.677  0.1849  0.0532 -0.0937
85026W        W28079  25.240  12.926  17.776  0.2459  0.0795  0.0269
85027W        W28080  18.515  32.520   1.146  0.0422 -0.0401  0.0525
85028W        W28081  30.582  28.211   1.706 -0.1337  0.2626 -0.1094
85029W        W28082  22.998  24.755   3.173 -0.1104  0.1833  0.2191
85030W        W28083  27.533  23.341  15.175 -0.0133  0.2743 -0.0441
85031W        W28084  21.359  26.145  25.329 -0.0289 -0.0746  0.4362
85032W        W28085  21.755  10.279  20.140  0.3229  0.2411 -0.2577
85033W        W28086  29.552  16.946   4.289  0.0784 -0.1378 -0.1512
85034W        W28087  17.447   0.263  18.380  0.0233  0.2489  0.1860
85035W        W28088  22.441   1.489   3.456  0.1339 -0.0120 -0.0971
85036W        W28089  23.246   5.877  23.403 -0.0666 -0.1613  0.0143
85037W        W28090  15.449   2.384  17.795 -0.1581 -0.4691  0.3981
85038W        W28091  22.992  15.325  28.674 -0.0048 -0.0059 -0.0424
85039W        W28092   7.585  14.607  20.131 -0.1513 -0.0233  0.0852
85040W        W28093  32.078   8.565  17.430 -0.0081 -0.0262  0.2756
85041W        W28094  24.725   5.060  22.561 -0.0884 -0.1559 -0.0973
85042W        W28095  20.839  29.532  19.714  0.0951  0.2234 -0.0865
85043W        W28096  29.928   9.439  24.706 -0.2182  0.0146  0.0956
85044W        W28097  32.870  31.690  27.590  0.4669  0.0031  0.2310
85045W        W28098  18.596  11.955  25.328  0.0629  0.1595  0.0783
85046W        W28099  33.815  18.945  16.826  0.0081 -0.1009  0.0472
85047W        W28100  28.072   1.965  27.827  0.1330 -0.0681  0.2641
85048W        W28101  25.181  31.285  26.636 -0.3600 -0.2099  0.3110
85049W        W28102  18.290  16.576  23.295 -0.1047  0.2945 -0.0908
85050W        W28103  32.502  21.064  25.805 -0.0856 -0.5338 -0.1509
85051W        W28104  32.491  32.944  18.886 -0.0836 -0.0181 -0.1937
85052W        W28105  23.522   5.815  22.808  0.0204  0.0122  0.0293
85053W        W28106  23.808   9.063   2.123  0.1150 -0.0614 -0.0900
85054W        W28107  21.242   9.218  19.122  0.0856 -0.0181  0.0930
85055W        W28108   2.436  20.989  26.092  0.2183  0.3198  0.1013
85056W        W28109  16.928   7.018  21.035 -0.0274  0.1798 -0.2316
85057W        W28110  18.567   5.559  24.070  0.0046 -0.0209 -0.1905
85058W        W28111  22.205   5.683   9.053  0.1519 -0.0997  0.0870
85059W        W28112   3.053  29.677  19.587 -0.0258 -0.2205  0.1168
85060W        W28113  19.391   2.553   2.265  0.2537  0.1728 -0.0903
85061W        W28114  12.254  20.626  14.253 -0.1629 -0.2071  0.0622
85062W        W28115  19.287  11.790  20.877 -0.2449  0.1965  0.0186
85063W        W28116  28.624  18.918  27.594 -0.2361  0.1544  0.0414
85064W        W28117  29.267   7.957  28.803 -0.1041 -0.0377  0.1628
85065W        W28118   8.936  21.138  20.855  0.1093  0.2162 -0.2955
85066W        W28119  29.289  34.124  14.567 -0.0056  0.2702  0.0452
85067W        W28120  14.880  14.705  16.951  0.1720  0.0512 -0.1303
85068W        W28121  17.336  34.022  24.540  0.2792  0.1474 -0.0885
85069W        W28122  26.820   2.241  25.576 -0.0725  0.3957  0.1318
85070W        W28123   8.389  28.281  24.833 -0.1940  0.0556  0.1709
85071W        W28124  14.157  29.473  23.892 -0.2632  0.1431 -0.1151
85072W        W28125   9.332  15.123  25.830 -0.3509 -0.1271 -0.1053
85073W        W28126  20.044   5.239  19.289  0.0728 -0.0036  0.0410
85074W        W28127  32.200  19.360  28.005  0.0365  0.0154  0.0748
85075W        W28128  14.734  30.640   6.873  0.0766 -0.2026  0.1773
85076W        W28129   9.653   0.777  25.627 -0.0845 -0.1376 -0.0707
85077W        W28130  23.380  17.010  16.343  0.0637  0.0920  0.0559
85078W        W28131   4.237  10.760  21.189 -0.0038 -0.0786 -0.1117
85079W        W28132  24.955  16.483  16.776 -0.1207  0.0822 -0.1034
85080W        W28133  23.564  20.928  15.122  0.2166  0.0540 -0.0466
85081W        W28134   2.181   1.071  17.085 -0.0199  0.2280 -0.2849
85082W        W28135  24.198  33.606  21.122  0.3420  0.1088  0.1276
85083W        W28136  11.254  33.235  16.072  0.0177  0.1169  0.2779
85084W        W28137  20.660  28.149  16.409  0.2196 -0.0467  0.3163
85085W        W28138   8.347   8.659  19.427 -0.1357  0.0586  0.1529
85086W        W28139  30.458   0.204  18.903 -0.2558 -0.0576  0.0792
85087W        W28140  20.209  11.602  25.014  0.1638  0.0944  0.0267
85088W        W28141   8.795  32.763  15.423  0.0023  0.3382  0.0368
85089W        W28142  21.888   6.849  16.971 -0.0234  0.1962  0.2349
85090W        W28143   2.078  22.483  13.292 -0.2070  0.0013 -0.0228
85091W        W28144  29.690   8.094  23.751  0.2771 -0.0560  0.1435
85092W        W28145  19.873  30.945  21.030 -0.2145  0.0798 -0.2307
85093W        W28146  34.248  20.247  16.440 -0.0825  0.2658  0.2064
85094W        W28147   0.212  25.739   9.043 -0.2614  0.1086  0.2994
85095W        W28148   4.259  18.346  27.206  0.4671  0.2128 -0.0128
85096W        W28149  16.142   9.642   8.035  0.0231  0.3585  0.1889
85097W        W28150   4.355   8.972  19.286  0.0160 -0.3527 -0.1750
85098W        W28151  10.506  16.070  26.937 -0.2031  0.1942  0.1646
85099W        W28152  18.882  12.157  24.314 -0.2347  0.1949 -0.0951
85100W        W28153  19.792   8.885  24.509 -0.2079  0.4148  0.1239
85101W        W28154  16.726  32.087  10.240 -0.0417 -0.1427 -0.3208
85102W        W28155   9.372  32.014   4.297  0.2489 -0.0667  0.1180
85103W        W28156  12.687   5.088  20.934  0.0177 -0.0866  0.0214
85104W        W28157  14.696  29.101  17.074 -0.0090 -0.5902 -0.0169
85105W        W28158  14.065   8.255  14.593 -0.0813  0.1547 -0.1461
85106W        W28159  33.710   3.704  21.431  0.1225 -0.1030  0.0428
85107W        W28160  33.357  20.934  20.396  0.5625  0.1377  0.0955
85108W        W28161  32.963   6.706  19.849  0.3904  0.2551  0.0742
85109W        W28162  23.296  34.230  23.578 -0.1293 -0.2317 -0.1325
85110W        W28163   6.631  29.051  13.843  0.2326 -0.0004  0.1206
85111W        W28164  31.165   2.751  14.961 -0.1093 -0.2398  0.2657
85112W        W28165  11.645  28.028  12.788 -0.1813 -0.0173  0.1117
85113W        W28166  30.584  12.504  23.188 -0.0043  0.2076  0.3656
85114W        W28167  12.882   6.019  20.104 -0.1442 -0.0398  0.0294
85115W        W28168   4.336   6.831   0.924  0.0839 -0.0271 -0.1888
85116W        W28169  11.988   1.762  23.140 -0.1027  0.1804 -0.0883
85117W        W28170  30.824   6.004   0.111 -0.1331 -0.5217 -0.0458
85118W        W28171   1.607  31.824  22.644 -0.3679 -0.2295 -0.2003
85119W        W28172  21.275  12.365  20.595 -0.1395  0.0524  0.0798
85120W        W28173   0.092  16.392  17.864  0.0599 -0.1487  0.0680
85121W        W28174  14.030   4.279  20.070 -0.2571  0.0876  0.0360
85122W        W28175   9.945  17.248   0.932  0.3476 -0.0899  0.0751
85123W        W28176  19.999  10.161  26.909  0.4650  0.0788 -0.1019
85124W        W28177  22.328  15.679  26.905  0.1546 -0.2208  0.1945
85125W        W28178  11.170  32.647  15.927 -0.1484 -0.0891 -0.0379
85126W        W28179   2.911  27.933  18.560  0.2488  0.2555 -0.0763
85127W        W28180  10.435  14.906  23.356 -0.1754  0.0806  0.1860
85128W        W28181  19.936  12.718  18.572 -0.2148 -0.0842 -0.0769
85129W        W28182  17.024  11.976   9.793  0.1850 -0.1147 -0.1473
85130W        W28183  19.155  27.409  15.724 -0.1362 -0.1693 -0.0559
85131W        W28184   7.017   6.058   1.976 -0.1838 -0.1361  0.2693
85132W        W28185   7.742  29.932  24.855  0.3149  0.0107 -0.1582
85133W        W28186  24.208  28.340   6.022  0.0155  0.2789 -0.0755
85134W        W28187  14.561   0.534  13.794  0.3239  0.0158 -0.3770
85135W        W28188  11.658   8.247  16.000  0.2201  0.1496 -0.0319
85136W        W28189  22.059   5.069  25.490  0.1833  0.1642 -0.0847
85137W        W28190  21.299   1.429  27.510  0.0907  0.0462  0.0155
85138W        W28191  15.359   0.653   0.860  0.0922  0.1349  0.1247
85139W        W28192  27.349  32.220  21.271 -0.0523  0.0292  0.1260
85140W        W28193  22.119   8.809   1.503  0.0946  0.0325 -0.0645
85141W        W28194   3.729   3.162  22.527  0.2008  0.2380  0.1465
85142W        W28195  26.186  14.336  26.971 -0.2992 -0.3156 -0.0232
85143W        W28196  24.163   8.765  14.069  0.1608  0.5573 -0.1200
85144W        W28197  32.781  14.945  17.806  0.5129 -0.0142  0.0204
85145W        W28198  10.449   8.121  22.613  0.3880  0.5118  0.1373
85146W        W28199  31.963  18.474   0.213  0.1071 -0.3796 -0.2294
85147W        W28200  20.483   0.773  20.823 -0.0452  0.1562 -0.5492
85148W        W28201  26.059  33.901   9.760  0.0608  0.0011 -0.0304
85149W        W28202  31.845   1.006  20.313 -0.0426  0.0346  0.1282
85150W        W28203  23.713   1.649  23.902  0.3461 -0.4385  0.1969
85151W        W28204  25.516  22.807  22.345 -0.2378  0.1697  0.0837
85152W        W28205  18.007   5.792  15.818  0.0544 -0.3640  0.2004
85153W        W28206  16.576  11.869  10.024 -0.1194 -0.3774  0.0190
85154W        W28207  22.143   0.782   4.715  0.1666 -0.3301 -0.2646
85155W        W28208  25.592   7.462  19.016  0.1900 -0.0457 -0.3485
85156W        W28209  15.668  20.544  23.061 -0.1555  0.1057  0.2891
85157W        W28210  26.746  27.219  17.908  0.0233 -0.0487  0.0175
85158W        W28211   4.955   6.055  14.285  0.0353 -0.0094  0.1409
85159W        W28212  23.295   2.998  22.775  0.1150 -0.0974  0.2478
85160W        W28213  29.980  17.229  25.854  0.2757 -0.2225 -0.1452
85161W        W28214  16.717   1.986   3.219 -0.3386  0.2178  0.1254
85162W        W28215  25.115   2.068  28.646  0.1935 -0.0844 -0.1319
85163W        W28216  10.294   9.150  23.952  0.0263 -0.1045 -0.3305
85164W        W28217  20.656  17.573  15.273  0.2333  0.0238 -0.0016
85165W        W28218  12.691   2.430   0.128 -0.2369  0.0765  0.1667
85166W        W28219   4.584   8.254  18.854 -0.1204  0.0446 -0.0724
85167W        W28220  28.329   0.819   4.859 -0.1769  0.1378  0.1786
85168W        W28221  19.926  12.949  18.112  0.1382  0.2249 -0.6026
85169W        W28222  15.986  24.041  28.695 -0.1306 -0.4526  0.1571
85170W        W28223   5.272   0.900  16.312 -0.0604  0.2875 -0.2174
85171W        W28224  23.840  30.569   1.690  0.0099  0.4986 -0.0822
85172W        W28225   6.516   7.337  15.674  0.2102  0.1124  0.0027
85173W        W28226  22.797  32.597  18.610 -0.4114 -0.0701 -0.2746
85174W        W28227   8.929  16.135  19.218  0.0348 -0.1739  0.0815
85175W        W28228  33.080   0.484  21.215  0.0021 -0.0409 -0.2789
85176W        W28229  19.422  24.046  19.698  0.2353  0.1394  0.2545
85177W        W28230  30.798   1.680  21.580 -0.2810  0.3109  0.1046
85178W        W28231  24.182  11.002   3.317  0.0069 -0.0409  0.1495
85179W        W28232  22.306  32.255  14.859  0.2850  0.2311 -0.0940
85180W        W28233  16.896   4.704  14.956 -0.2693 -0.1201 -0.2268
85181W        W28234  19.947   6.713   2.210 -0.1554 -0.0509  0.1267
85182W        W28235  27.786   3.333  26.649 -0.0647  0.3502  0.0840
85183W        W28236  29.920  16.480  16.251  0.2197  0.1105 -0.1889
85184W        W28237   9.077   7.374  24.766 -0.2241 -0.0609  0.1650
85185W        W28238  31.040   9.930  19.580  0.1368 -0.2050  0.2525
85186W        W28239  14.370  12.390  19.118  0.0259 -0.2088  0.0172
85187W        W28240  19.545   5.228  19.435  0.0627  0.2473  0.0262
85188W        W28241  24.518   8.004  26.709 -0.1564 -0.0644  0.2594
85189W        W28242  18.590   7.175  21.468 -0.1956  0.1532  0.0263
85190W        W28243  12.146   3.665  25.966 -0.3329 -0.3217 -0.0953
85191W        W28244  15.555  22.541  21.273  0.2131  0.0438 -0.2087
85192W        W28245  27.061  14.505  17.673 -0.1062  0.3314 -0.0597
85193W        W28246  12.380   8.060   2.343 -0.0452 -0.3837  0.1149
85194W        W28247  33.796  17.917  16.829 -0.2133  0.2368 -0.1110
85195W        W28248   2.352  26.554  25.920  0.1511  0.0539 -0.2884
85196W        W28249  29.016  34.568  25.055 -0.0043  0.0374  0.2840
85197W        W28250  27.929  11.984  21.200  0.2767  0.1015 -0.2131
85198W        W28251   2.286  15.653   2.252  0.1291  0.0718 -0.6141
85199W        W28252  34.518  32.494  22.756 -0.2913 -0.1642 -0.0731
85200W        W28253  18.513  34.354  26.023  0.1315  0.2872  0.0953
85201W        W28254  30.839   9.741  25.035  0.0991 -0.3106 -0.1409
85202W        W28255  24.659   2.200  28.481 -0.1307  0.0860 -0.4988
85203W        W28256  20.548   1.074  15.827 -0.0864  0.1512  0.2314
85204W        W28257  22.776  32.603  28.141 -0.3275  0.0491  0.0795
85205W        W28258  20.022   7.474  17.021  0.1287  0.0430 -0.0916
85206W        W28259   8.920  15.178  20.444  0.1441  0.0979  0.0372
85207W        W28260  24.186   1.396  26.218 -0.2710  0.1153 -0.1478
85208W        W28261  24.358   9.001   5.672  0.2317  0.2239 -0.2469
85209W        W28262  17.056  12.931   2.873 -0.0780 -0.0253 -0.2485
85210W        W28263  17.124  10.585  15.664  0.0204 -0.2284  0.0326
85211W        W28264  19.316  28.381  15.655  0.2925 -0.2303 -0.0668
85212W        W28265  14.288   9.808  18.836 -0.0877  0.1091 -0.2833
85213W        W28266  16.879  30.313  20.812 -0.2125 -0.0433  0.1551
85214W        W28267  18.983  10.985   1.503  0.1749 -0.0951 -0.4033
85215W        W28268  29.813   1.633  24.119  0.0732 -0.0305 -0.0298
85216W        W28269  15.664   9.154  10.879 -0.0302  0.0535 -0.0954
85217W        W28270  21.979   1.321  16.517  0.0639 -0.1063 -0.2861
85218W        W28271  19.441   7.298   2.834  0.1920 -0.1331  0.0289
85219W        W28272  29.959   3.751  18.788 -0.3127 -0.0795  0.2197
85220W        W28273   3.300  12.394  16.339  0.1806  0.3075  0.0529
85221W        W28274   8.365  23.757  20.372  0.2533 -0.0633  0.0316
85222W        W28275  19.730   4.240  25.905 -0.0612  0.4676 -0.0497
85223W        W28276  19.416  18.241  13.707  0.2017 -0.0629  0.1663
85224W        W28277   4.260   8.237  22.394  0.1157 -0.1959  0.0142
85225W        W28278  23.984  21.957   0.945 -0.0715  0.2227  0.1404
85226W        W28279  19.897  15.108  24.151 -0.1776 -0.2334 -0.0401
85227W        W28280   5.850  17.180  14.372  0.1733 -0.2894 -0.0802
85228W        W28281  13.490   0.282   6.446  0.0694  0.2744  0.1233
85229W        W28282  13.771  16.175  17.410 -0.0101  0.2505 -0.1258
85230W        W28283  25.418  34.663  26.948 -0.0792 -0.1733  0.1699
85231W        W28284  23.923   6.206  28.178 -0.2711 -0.0186 -0.2513
85232W        W28285  18.982  12.132  15.336  0.1145 -0.1750 -0.2902
85233W        W28286  26.753  20.793  24.877 -0.1383 -0.0374  0.0306
85234W        W28287   2.099  31.332   6.521 -0.0280 -0.0106 -0.1566
85235W        W28288  17.360   8.940  20.855  0.2438  0.0565  0.1426
85236W        W28289  25.098  14.313  16.287 -0.0381 -0.0241  0.1612
85237W        W28290  11.030   6.276  18.550 -0.4786  0.0782  0.0812
85238W        W28291   5.005  10.824  23.972 -0.2881 -0.3701  0.0032
85239W        W28292  11.437   2.394  20.770 -0.1948  0.0962  0.0751
85240W        W28293  33.279   2.185  21.329  0.0501  0.1161  0.2050
85241W        W28294   5.972  11.365  16.742 -0.1226 -0.1315 -0.2245
85242W        W28295  24.990   5.975  28.910  0.1538 -0.0844  0.0957
85243W        W28296  13.340   4.541   6.424 -0.0756  0.0861  0.1668
85244W        W28297  30.881  13.542  22.744 -0.1049  0.0260 -0.0209
85245W        W28298  31.690   6.489  21.737  0.0503  0.2503  0.2048
85246W        W28299  28.588  14.043  16.545 -0.3017  0.0670  0.1941
85247W        W28300  23.201   8.810  19.807  0.0957 -0.4164  0.3874
85248W        W28301  16.150  16.039  14.549  0.1056  0.0039 -0.1394
85249W        W28302  17.214  13.101  27.488  0.4223  0.1977  0.0215
85250W        W28303  24.549   3.381  26.946  0.0178  0.0460  0.0466
85251W        W28304  13.408  24.391  17.125 -0.0539  0.0745  0.0115
85252W        W28305  34.566  11.587  22.830 -0.1234 -0.2440  0.1857
85253W        W28306  25.569   9.120  27.429 -0.2800  0.2370  0.4167
85254W        W28307  20.032   6.353  24.295  0.0496 -0.2431 -0.0895
85255W        W28308  16.099   4.424  24.551  0.1655 -0.1784 -0.1120
85256W        W28309  20.416  13.573  27.630 -0.0584  0.4396 -0.1791
85257W        W28310  15.239  33.616  18.754 -0.1223 -0.0575  0.0942
85258W        W28311  24.041  32.105   7.276  0.2150  0.2883  0.1797
85259W        W28312  11.969  30.476  17.638 -0.0046  0.1002  0.0561
85260W        W28313  22.666   0.959  25.907 -0.1707  0.0672  0.0534
85261W        W28314  19.582  29.460  26.799  0.0972 -0.1248 -0.3407
85262W        W28315  12.004  26.345  22.918 -0.0125 -0.1361 -0.3252
85263W        W28316  14.056  32.832  24.460  0.3202 -0.2579  0.0001
85264W        W28317  21.632  33.060  23.767  0.2300  0.1319  0.1756
85265W        W28318  28.855  14.490  20.986  0.1733  0.1559  0.0064
85266W        W28319  26.582  20.763  18.161 -0.2849 -0.0320 -0.0564
85267W        W28320  13.324   9.080  16.764 -0.0276  0.1619 -0.2365
85268W        W28321  10.505  11.420   9.440 -0.1298 -0.3302  0.0874
85269W        W28322  33.208   9.121   4.634  0.0687  0.0452 -0.3102
85270W        W28323  30.340  13.256   1.514 -0.1878  0.0923 -0.0297
85271W        W28324  22.114   6.669   0.231 -0.1858 -0.2972  0.0390
85272W        W28325  24.750   6.003  22.925  0.3088  0.0370 -0.0739
85273W        W28326  25.843   2.719  27.332 -0.3680  0.1668  0.2018
85274W        W28327  13.864  30.164  24.446 -0.1509 -0.1260  0.1733
85275W        W28328  18.287   3.000  23.490 -0.1285  0.0682 -0.0877
85276W        W28329  16.512  29.308  27.412 -0.1226  0.1304 -0.0002
85277W        W28330  13.559  26.286  22.957  0.0810 -0.0659 -0.0713
85278W        W28331   1.723  11.462  23.182 -0.0506 -0.0983  0.1177
85279W        W28332  23.281  34.529   9.879  0.2797 -0.0795  0.1687
85280W        W28333  27.336  30.663  21.214  0.3861  0.0647  0.0847
85281W        W28334  15.489  17.946   1.387  0.0178  0.1588  0.1518
85282W        W28335  12.648  30.734  18.657 -0.3173 -0.1222 -0.2838
85283W        W28336   5.157  30.197   1.940  0.2827 -0.1190 -0.0029
85284W        W28337   1.833  31.954  25.788 -0.1170  0.4505 -0.2096
85285W        W28338  30.039  12.655   9.022  0.2006 -0.2679  0.2894
85286W        W28339  13.916  10.580  27.883  0.2285  0.1281  0.1239
85287W        W28340  17.043   4.741  14.367 -0.2059 -0.4485  0.0397
85288W        W28341  24.654  23.532   5.283  0.1414 -0.0674  0.0028
85289W        W28342  23.399  10.786   0.295 -0.1189  0.2864  0.5095
85290W        W28343  23.323   4.027  18.178  0.1485  0.1472 -0.2006
85291W        W28344  11.950  34.087  17.586 -0.0936  0.2648  0.2750
85292W        W28345  18.350  30.239  18.657 -0.0230 -0.0112 -0.1557
85293W        W28346   8.388  23.770  17.863 -0.1315 -0.0606  0.1251
85294W        W28347  10.209  26.286   1.489  0.0831 -0.1937  0.2938
85295W        W28348   7.887   5.009  25.392 -0.2253 -0.3594 -0.3129
85296W        W28349  13.321  13.626   0.445  0.1833 -0.0895  0.0973
85297W        W28350  12.772   0.872  21.746  0.2118 -0.3139  0.0691
85298W        W28351   7.353  29.098  14.731  0.2378  0.1402  0.3470
85299W        W28352  19.533   8.400  23.219  0.0411 -0.0768  0.1379
85300W        W28353  21.670   0.915  17.199 -0.0591 -0.0625 -0.3463
85301W        W28354  17.781  33.093   6.233  0.0327 -0.2309  0.0616
85302W        W28355  30.647  17.955  23.454  0.0551  0.1172  0.1114
85303W        W28356  24.926  15.411   1.898  0.0738 -0.0662  0.1463
85304W        W28357  10.169   5.936  16.287  0.3040  0.0726 -0.0564
85305W        W28358   6.526   8.281  19.582 -0.3672 -0.0002  0.0429
85306W        W28359  17.640  34.037   0.515  0.1809  0.1103 -0.1616
85307W        W28360  11.234  21.886  23.241  0.1287  0.0061  0.2794
85308W        W28361  23.899  19.867  21.560 -0.1114 -0.0025 -0.1052
85309W        W28362   7.266  14.468  17.977 -0.0014 -0.0595 -0.0556
85310W        W28363  26.961  10.664  16.651 -0.0478  0.2454  0.1043
85311W        W28364   7.903  21.760  20.236  0.0778 -0.0651  0.1679
85312W        W28365  26.401   2.981   1.328 -0.4012 -0.0931  0.0972
85313W        W28366   0.345  10.436  15.560 -0.1020 -0.2088  0.3010
85314W        W28367  23.979   5.672  24.226 -0.0004  0.2113  0.2775
85315W        W28368  19.852  27.939  20.155 -0.1118  0.2739 -0.0073
85316W        W28369  18.455   4.372  15.080 -0.4027 -0.0130 -0.0607
85317W        W28370  18.503   6.246  26.236  0.2647  0.3686  0.1405
85318W        W28371  24.881  13.977  18.270  0.2657 -0.0285  0.1221
85319W        W28372  28.714   9.304   9.161  0.0548  0.2536  0.0533
85320W        W28373  10.815  12.391  18.682 -0.3153  0.5364  0.0938
85321W        W28374  31.092   5.938  26.950  0.1304  0.1551 -0.1580
85322W        W28375   5.812   6.847  19.843  0.0106 -0.0293  0.2909
85323W        W28376  16.778   4.066  24.081  0.1602 -0.2830  0.1364
85324W        W28377  28.519  15.493  13.620 -0.3164  0.6187 -0.2752
85325W        W28378  30.154  27.401  19.348 -0.0587  0.1754 -0.0510
85326W        W28379   1.114   5.385  14.683  0.0476 -0.0026 -0.1073
85327W        W28380  15.553  11.894  24.447  0.1528  0.1644  0.4356
85328W        W28381  23.094   2.582  21.820  0.2449  0.0148 -0.0191
85329W        W28382  19.652  18.067  25.788 -0.1543  0.0930  0.1731
85330W        W28383  31.079  16.342  13.796  0.1673  0.0718  0.0790
85331W        W28384   0.215  24.633  24.485 -0.1769 -0.0955 -0.2404
85332W        W28385  31.297  32.414   8.508 -0.4743  0.0494  0.0645
85333W        W28386  13.876  28.441  26.312  0.3777  0.0235 -0.1760
85334W        W28387  22.450   0.666  19.452 -0.0827 -0.2660  0.1366
85335W        W28388  17.297   5.516  26.337 -0.0336 -0.0627 -0.0444
85336W        W28389  16.388  30.125  28.260  0.3112 -0.2503  0.2909
85337W        W28390  18.139  11.422   9.632 -0.0418 -0.1897 -0.3063
85338W        W28391  15.440   3.779  15.703 -0.1549  0.1746  0.0331
85339W        W28392  31.189   3.585  22.128 -0.2527  0.0087 -0.1149
85340W        W28393  11.911  11.359   2.916  0.0621 -0.0525  0.3300
85341W        W28394   8.008  27.004  24.471  0.0948 -0.0592 -0.0495
85342W        W28395  19.300   6.789  18.275 -0.0811  0.0643 -0.2639
85343W        W28396  28.437   6.076  16.111 -0.0759  0.0013  0.0091
85344W        W28397  12.390   1.853  27.001  0.2926  0.1982 -0.1833
85345W        W28398   4.783   5.716  23.407  0.0313 -0.4839  0.3187
85346W        W28399  30.815  12.818  16.614  0.2235 -0.1384 -0.2839
85347W        W28400  19.687   4.222  20.310 -0.0562  0.1365  0.0475
85348W        W28401   6.277   1.401  16.352 -0.1324  0.0064 -0.3569
85349W        W28402  12.289   2.484  27.060  0.1645  0.0757 -0.0985
85350W        W28403  14.848   8.683  22.303 -0.4044 -0.2451 -0.0552
85351W        W28404  17.818   5.228  17.143 -0.1263  0.0138 -0.1632
85352W        W28405  23.214  24.474   2.184  0.0492  0.0294 -0.3284
85353W        W28406  17.617  22.827  25.579 -0.0422 -0.1423  0.0215
85354W        W28407  33.747  29.160  17.227 -0.2642 -0.1157 -0.0787
85355W        W28408  26.987   0.163   4.133  0.2011  0.3266 -0.1440
85356W        W28409  10.557   8.645   6.494  0.2243  0.0293  0.2226
85357W        W28410  31.951  25.719  19.224  0.1293  0.2015 -0.0542
85358W        W28411  25.813   8.286  22.269  0.1782  0.0290 -0.0545
85359W        W28412   9.752  11.820  18.905  0.0556  0.0291 -0.0128
85360W        W28413   3.446   5.801   0.856 -0.0020 -0.0700 -0.0262
85361W        W28414  18.250   9.604  19.466  0.1320  0.2572  0.0118
85362W        W28415  15.032  10.509   2.723  0.1655  0.1229 -0.0588
85363W        W28416  17.709   7.795   4.534  0.1923 -0.1150 -0.0178
85364W        W28417  21.515   1.350  16.251  0.0470  0.3078  0.0656
85365W        W28418  30.273  20.138  17.917 -0.0734  0.5108  0.0261
85366W        W28419   4.821  23.489   6.083 -0.0797 -0.3496 -0.1165
85367W        W28420  26.864   1.441   2.267  0.3630 -0.2540 -0.0778
85368W        W28421  14.040  14.227  19.812  0.3856 -0.0112  0.1269
85369W        W28422  22.298  11.574   2.867 -0.1373  0.2901 -0.0604
85370W        W28423  21.309   3.880  28.130 -0.0933 -0.0399  0.0581
85371W        W28424   1.442   3.200  27.454 -0.0362  0.4256  0.0387
85372W        W28425  28.081  34.141  10.010 -0.1441 -0.0178  0.0658
85373W        W28426  18.816  23.708  15.355  0.3561 -0.0179  0.5519
85374W        W28427  28.623   7.813  15.537  0.2802 -0.2622 -0.2796
85375W        W28428  25.168  19.832  24.972  0.0062 -0.1171 -0.0445
85376W        W28429  12.754   1.277  23.097 -0.0380  0.1292 -0.0689
85377W        W28430  33.357  18.661  16.643 -0.0598 -0.0935  0.0356
85378W        W28431  25.041  15.876   3.284 -0.0183 -0.2351  0.0149
85379W        W28432  30.537  31.499   1.942 -0.3772 -0.1927 -0.3460
85380W        W28433   6.345  23.485   5.081 -0.3742 -0.2370  0.0926
85381W        W28434  13.318  27.366  26.992  0.0070 -0.2286 -0.3585
85382W        W28435  22.737  15.693  28.408  0.0716  0.3922  0.1591
85383W        W28436  14.042  34.433  19.176  0.2270 -0.1219 -0.2917
85384W        W28437  29.025   0.960  23.471 -0.1490 -0.1474  0.1338
85385W        W28438  22.428   2.479  27.997 -0.1229  0.2734 -0.0478
85386W        W28439  18.895   8.585  26.666 -0.1521 -0.3799  0.1676
85387W        W28440  16.864  14.689  23.119  0.0980 -0.1883  0.2023
85388W        W28441  13.919  23.370  27.031 -0.2481 -0.0397 -0.2826
85389W        W28442   9.642  20.708  19.078  0.0416 -0.1584  0.0626
85390W        W28443   9.960   6.918  25.798 -0.1465 -0.1470 -0.1080
85391W        W28444  25.979   6.306  23.091 -0.1675 -0.1364 -0.0171
85392W        W28445  29.118  10.822   0.717  0.0039  0.1615 -0.2445
85393W        W28446  10.109  28.661   2.638 -0.1149 -0.1906  0.2411
85394W        W28447  34.473  12.693  14.657 -0.3222 -0.0139 -0.2991
85395W        W28448  23.280   7.263  17.315 -0.1098 -0.2999 -0.0029
85396W        W28449  12.465   7.463  25.152 -0.2412 -0.0608 -0.0450
85397W        W28450  13.517   0.406  22.154 -0.0252  0.2538  0.1432
85398W        W28451  24.981  14.979  20.326 -0.1257 -0.1811  0.3903
85399W        W28452   7.168  28.393  26.587 -0.1184 -0.2085  0.2510
85400W        W28453  26.752   3.402   4.099 -0.2498 -0.2376 -0.1639
85401W        W28454  22.373  12.277  22.209 -0.0682 -0.1411  0.2137
85402W        W28455   2.605  10.670  23.738  0.0561  0.0364  0.2639
85403W        W28456  29.912   4.192  15.192 -0.2121  0.0212 -0.0350
85404W        W28457   3.456  20.175   3.313  0.1737  0.0914  0.0240
85405W        W28458   7.942   7.308  19.224  0.1317  0.2311 -0.0194
85406W        W28459   5.763  23.116   0.542 -0.0370 -0.0859  0.0363
85407W        W28460   6.557  33.833   9.069 -0.1509  0.2313  0.0471
85408W        W28461  22.733   5.028  27.789  0.0774  0.2025  0.3377
85409W        W28462  27.611  22.371  24.404 -0.2615 -0.0157 -0.1755
85410W        W28463  15.537  29.944   8.954 -0.1863  0.1609  0.0521
85411W        W28464  31.038  10.421  23.818 -0.3826 -0.2828  0.2475
85412W        W28465   8.679  30.555  23.445 -0.0626  0.2487 -0.1170
85413W        W28466  16.185  25.583   7.638  0.0070 -0.3937  0.2927
85414W        W28467  16.264   0.511  14.795 -0.3463  0.2523  0.2769
85415W        W28468  21.927  33.434  17.397 -0.1860  0.0769 -0.0146
85416W        W28469  28.219  32.496  24.541  0.1719  0.0193  0.2467
85417W        W28470  13.254   2.661  19.094 -0.2621 -0.1853 -0.1434
85418W        W28471  29.609  10.146  27.862 -0.0891  0.0156 -0.0309
85419W        W28472   8.843  30.770  15.787 -0.0355  0.1031 -0.1767
85420W        W28473  22.424   6.190  25.325 -0.2824 -0.0235 -0.0063
85421W        W28474  15.169  22.331  27.714  0.0780 -0.1500 -0.1894
85422W        W28475  12.575  34.153   2.321  0.3084 -0.0033  0.0331
85423W        W28476  25.017  31.979   2.477 -0.0981  0.1202 -0.0679
85424W        W28477  10.181  15.413  25.646 -0.1270 -0.1628  0.2785
85425W        W28478  31.875   9.756  27.845 -0.2416 -0.0997 -0.0248
85426W        W28479  23.713  24.346   2.390 -0.2743  0.2039 -0.0319
85427W        W28480  19.628   0.777   8.048  0.2407  0.0951  0.0004
85428W        W28481  30.479   2.004   9.489 -0.2415 -0.1739 -0.0366
85429W        W28482  12.353  16.218  20.419  0.0501  0.1969  0.2404
85430W        W28483  31.201  32.570   8.966  0.1150 -0.2307 -0.0160
85431W        W28484   8.294   2.604  28.337 -0.0393  0.2485  0.2363
85432W        W28485  18.744   6.967  17.104  0.2784  0.2676  0.2041
85433W        W28486   7.907  34.494  16.920 -0.1568 -0.0659  0.2993
85434W        W28487  18.723  17.250  26.795 -0.0323  0.1797  0.0305
85435W        W28488  26.332  21.657  19.504 -0.1523 -0.0012 -0.0761
85436W        W28489  16.637  33.959   6.744 -0.1400  0.1675 -0.0890
85437W        W28490  31.670   2.968  15.185 -0.2292 -0.0089  0.2064
85438W        W28491  14.413   6.552   0.280 -0.0268  0.2367  0.2194
85439W        W28492  34.571  31.462  13.708 -0.1440 -0.2329  0.2426
85440W        W28493  18.500   2.830  26.294  0.2248  0.3212 -0.1245
85441W        W28494  11.311  24.346   4.941 -0.0585 -0.3725 -0.0604
85442W        W28495  18.684  31.135  17.345  0.0808  0.2444  0.3045
85443W        W28496  20.886  14.162  15.256 -0.1093  0.0208  0.0501
85444W        W28497  29.357   0.443   0.708 -0.0335 -0.1194  0.2620
85445W        W28498  22.943   0.545   2.433  0.0767  0.1668 -0.1851
85446W        W28499  17.943   5.643  28.022 -0.2690  0.0993  0.1044
85447W        W28500  12.994   6.737  24.031 -0.3062  0.0599  0.0768
85448W        W28501  21.701  10.234  21.066 -0.2774  0.2007 -0.0620
85449W        W28502  17.962  16.821   7.548  0.0998 -0.0417 -0.0507
85450W        W28503   5.175   5.372  22.319  0.1779 -0.0603  0.0711
85451W        W28504  25.352  32.217  14.762 -0.1981 -0.1309  0.1729
85452W        W28505   6.434  23.113  16.477 -0.1274  0.1089  0.2518
85453W        W28506  15.011   0.436   3.555  0.1543 -0.1871  0.1474
85454W        W28507  28.526   4.188  18.888  0.0615  0.1812  0.0756
85455W        W28508   3.092  29.671  23.746 -0.2107  0.2848  0.0109
85456W        W28509  20.449   9.555  19.407 -0.0709  0.0631  0.2359
85457W        W28510  15.117  32.088  18.862 -0.0036  0.0679  0.0970
85458W        W28511  29.228  29.900   1.943 -0.2856 -0.0819  0.3538
85459W        W28512  15.668   6.724  29.170 -0.0328 -0.1200 -0.1584
85460W        W28513  14.518  26.914   0.919 -0.1003  0.1489 -0.4362
85461W        W28514  12.207   3.692  20.854 -0.0563 -0.2020  0.3600
85462W        W28515  23.372  17.254  17.418 -0.3876 -0.4263  0.0124
85463W        W28516  16.459   8.669  17.575 -0.1966 -0.1931 -0.2290
85464W        W28517  25.022  12.109  17.856 -0.0529  0.1938 -0.0226
85465W        W28518  12.543  17.941  20.669  0.2046 -0.2153  0.1117
85466W        W28519  28.934  12.297   8.301 -0.1248 -0.0601 -0.2768
85467W        W28520  33.829   4.104   3.648 -0.0314 -0.2286 -0.1259
85468W        W28521   8.917  32.560  27.964  0.1325  0.0027 -0.0199
85469W        W28522  19.300  33.892  23.777 -0.0726  0.0319 -0.0066
85470W        W28523  19.470  10.183  16.475  0.0359  0.1048  0.0248
85471W        W28524  20.037   5.516  22.591 -0.0322 -0.0360  0.3052
85472W        W28525  10.326   0.160  22.649 -0.3612 -0.1937  0.0302
85473W        W28526  33.950   9.352  14.982  0.1526 -0.0428 -0.0765
85474W        W28527  20.142  23.512  18.234 -0.0317 -0.0090  0.2071
85475W        W28528  15.656  13.077  23.505  0.4648  0.0875  0.5349
85476W        W28529  22.028   8.804  24.257  0.2448  0.1273 -0.1657
85477W        W28530  17.885   1.633  21.243 -0.1974 -0.0773  0.1563
85478W        W28531   0.288  13.711  25.403 -0.0424  0.1821 -0.2865
85479W        W28532  20.474  17.315   6.698  0.0775 -0.1662  0.0275
85480W        W28533  18.050  21.097  14.875  0.1916  0.0405 -0.1879
85481W        W28534  32.901  29.244  23.983  0.1109 -0.1652  0.0335
85482W        W28535  24.137   4.109  14.904 -0.1201  0.1833  0.0988
85483W        W28536  24.761   6.167  20.297 -0.4276  0.0755 -0.3341
85484W        W28537  15.412  13.824   3.485  0.0529  0.0773 -0.1284
85485W        W28538  29.842  22.384   0.992  0.0830 -0.2994 -0.3513
85486W        W28539  17.787   9.071  16.123  0.1182  0.0786  0.1253
85487W        W28540  25.980   8.032   2.540 -0.2251 -0.1183 -0.2389
85488W        W28541  24.891   5.744  23.864 -0.0917 -0.2593 -0.0384
85489W        W28542  10.622   7.378  19.852  0.2688  0.1744  0.0541
85490W        W28543  13.122  33.718  22.072  0.0590  0.1423  0.1568
85491W        W28544   0.923   3.045  21.284 -0.1189 -0.2332  0.3415
85492W        W28545   3.596  19.924  21.839  0.1013  0.0530 -0.2215
85493W        W28546   7.695  25.424  18.643 -0.2193 -0.1754 -0.6373
85494W        W28547  21.259  15.122  24.376  0.1726 -0.1890 -0.4975
85495W        W28548  11.852   6.572  20.740  0.4060 -0.2018  0.0085
85496W        W28549  29.272  11.303  25.140 -0.2334 -0.0658  0.0682
85497W        W28550  16.537  31.085  25.436 -0.1668 -0.1939 -0.5383
85498W        W28551  29.166  25.215   3.700 -0.2326  0.0872 -0.1475
85499W        W28552  14.827  24.406  25.958 -0.0849 -0.0869  0.0073
85500W        W28553  12.369   9.984   2.604 -0.0227 -0.0589  0.4112
85501W        W28554  17.149   2.813   6.553  0.2274 -0.0250 -0.3186
85502W        W28555   9.324  30.491  24.309 -0.3492  0.2627 -0.0293
85503W        W28556  24.610  30.513  24.126 -0.0984 -0.0538  0.0007
85504W        W28557  34.176  15.803  26.113  0.2467  0.1268 -0.0881
85505W        W28558   1.189  11.860  28.283  0.2235  0.0871  0.2120
85506W        W28559  19.131   5.437  14.691  0.1975 -0.5018 -0.1138
85507W        W28560  11.066  25.288  20.938 -0.0843  0.0435  0.0360
85508W        W28561   2.763  10.721  26.998  0.0621 -0.0114  0.1170
85509W        W28562  12.577  33.381  27.657 -0.2503 -0.1554 -0.0896
85510W        W28563  12.655   6.827  23.039  0.2251  0.3176  0.1645
85511W        W28564  15.715   7.398   7.077  0.2562 -0.1455  0.3531
85512W        W28565   6.803   5.324  22.120 -0.0851  0.4534  0.1017
85513W        W28566  23.181   2.221  25.931 -0.1627  0.1405  0.1909
85514W        W28567  12.463  28.241   5.738  0.0855 -0.0660 -0.1757
85515W        W28568  23.581   4.257  22.928 -0.0001 -0.0671 -0.0672
85516W        W28569  30.102  32.243  27.247 -0.1559 -0.0332  0.0491
85517W        W28570  30.883   7.942  19.003  0.0247  0.0222  0.2219
85518W        W28571  11.728   5.407  14.884  0.0186 -0.0030 -0.1258
85519W        W28572  31.630   6.206  14.836 -0.0904 -0.0470 -0.1913
85520W        W28573  25.802  10.782  20.978 -0.2232 -0.0663 -0.1301
85521W        W28574  14.942  33.939  15.512  0.2178 -0.3467 -0.3622
85522W        W28575  13.554   9.860  21.203 -0.0784 -0.4255  0.0366
85523W        W28576  19.967   5.534   3.554 -0.1245 -0.2786 -0.3305
85524W        W28577  29.063   0.909  27.182  0.0805  0.0057  0.1569
85525W        W28578  22.897  17.290  25.457  0.0944  0.2890  0.0477
85526W        W28579   9.525  12.869  20.386 -0.0744  0.3409 -0.0743
85527W        W28580  33.673  15.422  13.820  0.1223 -0.1020 -0.0470
85528W        W28581  27.415  14.130  27.624  0.1374 -0.4302 -0.0367
85529W        W28582  20.844   0.185  23.788  0.1579 -0.1307  0.1322
85530W        W28583  30.169   0.431   1.694 -0.3401  0.1676  0.3175
85531W        W28584   1.288   0.808   4.027 -0.2051 -0.0185  0.0814
85532W        W28585   0.986  19.150   7.547  0.2465 -0.0247  0.0697
85533W        W28586  24.879  10.852   7.786  0.1794  0.1136  0.0636
85534W        W28587  16.782  27.631  27.849  0.1390 -0.2812 -0.0623
85535W        W28588  23.895   7.348   9.456 -0.4852  0.1708 -0.2381
85536W        W28589  28.977  28.729   0.735  0.0216 -0.1496  0.1819
85537W        W28590  19.223  10.243   6.720 -0.0342  0.3754  0.0985
85538W        W28591   6.774   6.292  20.844 -0.1800  0.1799 -0.1566
85539W        W28592  11.986  24.142   5.389  0.2940  0.0891 -0.0216
85540W        W28593  10.676  10.235   3.285  0.2041 -0.0532  0.1447
85541W        W28594  11.634  13.351  23.540  0.2274 -0.0933 -0.1941
85542W        W28595  10.361   3.835  28.211 -0.0515 -0.1764 -0.0155
85543W        W28596   4.892   6.674  10.082 -0.2761 -0.0401  0.0038
85544W        W28597  15.255  29.017   5.848 -0.0817 -0.1629 -0.3764
85545W        W28598  14.135  22.277  14.261  0.3048 -0.2340 -0.1072
85546W        W28599  13.920  15.850  15.503  0.0132 -0.0087 -0.2394
85547W        W28600  13.666  30.497   7.902  0.2374  0.0551  0.1369
85548W        W28601  17.937  12.209  14.991 -0.0985 -0.0836 -0.2685
85549W        W28602  22.309   4.587  14.935 -0.0266  0.3010 -0.0874
85550W        W28603  19.131  30.821  24.930  0.1078 -0.0057 -0.0994
85551W        W28604  21.353  13.855   2.612 -0.3492  0.1452 -0.2334
85552W        W28605   3.359   7.214   8.455 -0.0338 -0.1173  0.0583
85553W        W28606  23.540   5.779  13.835  0.0732 -0.2869 -0.0051
85554W        W28607  14.870   0.775   0.682 -0.0590 -0.0828  0.0491
85555W        W28608  21.696   1.003   2.793 -0.0687 -0.0099 -0.1429
85556W        W28609  21.440  13.322  19.564 -0.2822 -0.0906  0.1171
85557W        W28610   0.730   4.617  26.440 -0.0874  0.1213 -0.0587
85558W        W28611  28.285  17.352  19.510  0.0871 -0.0277  0.0489
85559W        W28612  22.822   5.499  23.159  0.3498  0.2461  0.0281
85560W        W28613  13.611  26.501  27.044  0.1898 -0.1218 -0.0031
85561W        W28614  14.397  17.790   3.792 -0.0826  0.0577 -0.1485
85562W        W28615  21.051   2.563   0.554  0.0363 -0.2229  0.0586
85563W        W28616  20.232  31.274  15.940 -0.3118 -0.2306 -0.0889
85564W        W28617   8.610  19.180  15.183 -0.1925  0.1725  0.1864
85565W        W28618  18.707  14.231   1.476 -0.3130 -0.1813  0.1534
85566W        W28619   0.001  21.175  23.211  0.2232 -0.0195 -0.1366
85567W        W28620  14.609  10.680   4.587 -0.0805 -0.0111  0.2718
85568W        W28621  13.715  11.149   8.449  0.0507 -0.4191  0.2589
85569W        W28622  34.411   3.743  25.119  0.0657 -0.1123 -0.1091
85570W        W28623  22.299   1.873   5.573 -0.3529  0.0205 -0.1314
85571W        W28624   9.325  14.593   6.991  0.3227  0.0997 -0.3333
85572W        W28625   7.334   9.578  19.950 -0.2341  0.0593  0.1922
85573W        W28626  12.329  34.565  16.735  0.2303  0.0863 -0.0013
85574W        W28627  17.174  15.144  23.453 -0.0006 -0.0373  0.0168
85575W        W28628  25.602  29.803  22.692 -0.2019 -0.1313 -0.1046
85576W        W28629  22.123   2.225  24.623  0.1731  0.1532  0.0462
85577W        W28630  18.815  26.820  21.045 -0.0789 -0.4204  0.2512
85578W        W28631  13.309  28.846   5.687 -0.0144  0.3433  0.2254
85579W        W28632  13.093  30.251  19.844  0.2517  0.3362 -0.2203
85580W        W28633  18.994  21.584   2.675  0.1058  0.1292  0.1211
85581W        W28634  15.078  29.971  18.026 -0.0314  0.0868  0.1372
85582W        W28635  17.008   6.449   2.302 -0.0714  0.1449  0.0391
85583W        W28636  30.934   4.427   4.397  0.0176 -0.0026 -0.0750
85584W        W28637   8.799  30.588  18.050 -0.2070 -0.1625 -0.2153
85585W        W28638   0.755   9.982   9.520  0.0836 -0.0746 -0.4525
85586W        W28639   6.295  12.317   6.723 -0.1096 -0.0084  0.0038
85587W        W28640  32.521  33.634   5.709  0.0476  0.1327  0.1823
85588W        W28641  22.737   6.328  24.058  0.0542 -0.0094 -0.1877
85589W        W28642  21.459  22.717  23.857  0.0756 -0.0095  0.0545
85590W        W28643  26.321  33.733   3.193  0.2781  0.0569  0.1648
85591W        W28644  22.777  19.794  27.930  0.1987  0.2483  0.1236
85592W        W28645  18.047  33.275  28.000 -0.0035  0.0035 -0.0119
85593W        W28646  16.892  30.694  17.449  0.0902 -0.0867  0.2248
85594W        W28647  32.671  31.857  13.523 -0.0228 -0.1235 -0.1159
85595W        W28648   9.032  10.938  17.525  0.3565 -0.1882 -0.1277
85596W        W28649  20.652  17.130  14.085 -0.1856 -0.1859  0.4981
85597W        W28650  27.967   6.832  16.845  0.0718  0.1243  0.1702
85598W        W28651  10.704   3.772  24.533 -0.0677 -0.0813 -0.1327
85599W        W28652  10.316  24.475   2.517 -0.2991 -0.1317 -0.0993
85600W        W28653  27.513   3.390   7.932  0.1873 -0.0851 -0.1352
85601W        W28654  10.239   2.049  27.512  0.2154  0.1536 -0.2814
85602W        W28655  14.408  13.481  22.534  0.0267  0.0342 -0.2026
85603W        W28656   3.744   7.114   9.140 -0.0357  0.1274 -0.0077
85604W        W28657  16.830  11.414   3.683 -0.1614 -0.0415  0.1600
85605W        W28658   0.404  18.525  18.971 -0.1249  0.1455  0.1069
85606W        W28659  33.787   5.438   4.433 -0.1792 -0.2140  0.1600
85607W        W28660   2.310  32.963  17.812 -0.2443  0.0631 -0.1143
85608W        W28661  24.921  32.359  19.205  0.0160 -0.0774  0.2577
85609W        W28662  25.502  28.720  18.574 -0.1037  0.0861  0.1468
85610W        W28663  32.017   0.357  26.138  0.4021  0.1770  0.1250
85611W        W28664   3.537   6.847  21.199  0.0099  0.0848 -0.0338
85612W        W28665  23.767  33.169  22.992  0.1118  0.1269 -0.1653
85613W        W28666  23.673  32.456  25.459 -0.0372 -0.0122  0.0339
85614W        W28667  20.632  25.790   7.177  0.1040  0.1553 -0.0164
85615W        W28668  23.795   0.794  15.503  0.3905 -0.0877  0.6970
85616W        W28669  14.423  15.164  14.202 -0.2265 -0.3307 -0.1641
85617W        W28670  26.939   6.434  20.454  0.2299 -0.2088  0.0738
85618W        W28671  28.569   6.337   7.010  0.1829  0.0851  0.2838
85619W        W28672  31.588   8.744  17.535  0.1590  0.1673  0.2607
85620W        W28673   3.186  31.522  26.799 -0.1468  0.3193  0.1141
85621W        W28674  20.849   1.712  19.841 -0.0416 -0.0477  0.0053
85622W        W28675  24.878   1.666  17.257  0.1557  0.0418  0.2159
85623W        W28676  28.099  13.813  21.855  0.2340  0.0930  0.3744
85624W        W28677  12.952  17.355  14.816 -0.1556 -0.1894 -0.0191
85625W        W28678   8.396  26.378  22.630  0.2091 -0.0044 -0.0582
85626W        W28679  26.333  14.610  20.218 -0.0763 -0.1110  0.2755
85627W        W28680  23.426  21.071  20.708  0.4521 -0.0980 -0.2170
85628W        W28681  22.579   0.950  18.097 -0.1011 -0.1730  0.4025
85629W        W28682  15.004  25.028   6.804  0.2987 -0.3051 -0.1565
85630W        W28683  27.888  27.532  14.643  0.0584  0.1144  0.0664
85631W        W28684  30.291  13.295  14.421  0.1415 -0.1611  0.1540
85632W        W28685  10.919  22.542  19.810  0.0693  0.0050  0.1358
85633W        W28686  18.399   7.882  23.253  0.1304  0.0093 -0.1345
85634W        W28687  32.329  25.588   7.009 -0.0840 -0.1841  0.1733
85635W        W28688  13.075  26.274   8.096  0.0467  0.2781 -0.2058
85636W        W28689  19.322   7.693  23.740  0.0380  0.3459  0.1096
85637W        W28690  27.399  32.618  17.559 -0.1447 -0.1933 -0.1346
85638W        W28691  14.130  15.566  24.843  0.1720  0.1804  0.4904
85639W        W28692  22.202  27.560  15.850 -0.1737 -0.0370 -0.0816
85640W        W28693  14.991   7.847   7.521 -0.1228  0.1579 -0.1145
85641W        W28694  24.126  26.768  28.553  0.0930  0.1913 -0.0347
85642W        W28695  26.728  13.466  29.189  0.1251  0.1534  0.1394
85643W        W28696   7.406   3.124   9.021 -0.1027 -0.1802  0.1622
85644W        W28697  24.248  30.971  27.852 -0.0071  0.1903 -0.0625
85645W        W28698   9.108  25.604  15.613 -0.0886  0.1095 -0.0206
85646W        W28699  31.256  19.399  24.581 -0.2491  0.1610  0.1637
85647W        W28700  15.016  18.277  13.356  0.3052  0.1465 -0.1299
85648W        W28701  25.777  28.947  18.095  0.0193 -0.1237 -0.0710
85649W        W28702  22.810   4.122  28.720  0.0052  0.1220  0.0644
85650W        W28703  17.126   9.811  23.153 -0.4021 -0.1003 -0.1688
85651W        W28704  27.490   6.166  16.467 -0.1228 -0.0908 -0.3068
85652W        W28705  19.016  27.995  27.680 -0.2059 -0.0324 -0.4191
85653W        W28706  26.942   9.733   1.619 -0.0142  0.1462 -0.4242
85654W        W28707  14.613  30.816  22.731 -0.2292  0.1602  0.0196
85655W        W28708  28.428  13.898   1.351  0.2515 -0.3994 -0.0150
85656W        W28709  19.032  26.407  28.276 -0.2556  0.1047  0.0075
85657W        W28710  28.411  28.034  17.619  0.0609 -0.0501  0.2767
85658W        W28711  22.853  30.935  28.757 -0.0517  0.1028  0.1062
85659W        W28712  27.387   1.257   8.553  0.1933  0.0786  0.0698
85660W        W28713  30.396  23.206   5.290  0.1193 -0.0862  0.2715
85661W        W28714  24.873   4.938   5.300 -0.1920  0.1552  0.1486
85662W        W28715  26.582   4.607  20.681 -0.3433 -0.0343 -0.0962
85663W        W28716  16.895  15.289   6.629  0.0925  0.0267  0.1104
85664W        W28717  15.379   5.003  23.727 -0.0528  0.0395 -0.1641
85665W        W28718  10.728  29.643  17.188 -0.1802 -0.1795  0.2208
85666W        W28719  32.895   7.325  25.523 -0.1196  0.1772  0.0555
85667W        W28720   9.392  30.409  24.794 -0.2045  0.0627  0.0814
85668W        W28721  14.666   9.407   2.656  0.1420  0.5136  0.1502
85669W        W28722  18.594  25.445  20.933 -0.0700 -0.0266 -0.0178
85670W        W28723  29.917   8.725  27.679  0.0524 -0.0958 -0.0922
85671W        W28724  25.184  34.219  28.612 -0.1002 -0.0818  0.0593
85672W        W28725  24.859  21.455   5.633  0.0489 -0.0692 -0.3554
85673W        W28726  22.462  23.854  24.654 -0.3626  0.1750 -0.2207
85674W        W28727  27.566   7.439   3.870 -0.2017 -0.1388 -0.3378
85675W        W28728  14.910   4.194  22.752 -0.0867 -0.0548 -0.0815
85676W        W28729  11.901   6.679  10.536  0.0067  0.1163 -0.4323
85677W        W28730  20.227   9.134  21.986 -0.2251 -0.1471  0.1821
85678W        W28731  29.568   3.938  17.103  0.1735  0.1078 -0.0310
85679W        W28732  20.491  10.702  27.089  0.0618  0.4425  0.3543
85680W        W28733  29.675  23.628  28.049 -0.2006 -0.0156  0.1123
85681W        W28734  13.077  33.925   6.227 -0.1039 -0.0853 -0.0020
85682W        W28735  22.555  19.255  27.284 -0.0441 -0.2654  0.0624
85683W        W28736  25.732  31.688  27.797  0.0942  0.3157  0.1211
85684W        W28737  10.247   6.301   0.341 -0.0828  0.1126  0.0253
85685W        W28738  26.910   8.682  17.694 -0.1523  0.2106 -0.3387
85686W        W28739   4.573  28.655   7.315 -0.0642  0.4041  0.2198
85687W        W28740  22.071  30.729  24.556  0.0699 -0.1550  0.1411
85688W        W28741   4.529   7.670  15.139 -0.0243 -0.2189 -0.1898
85689W        W28742  14.223  25.743  14.594 -0.0774 -0.0121  0.0014
85690W        W28743  16.146  29.464  28.608  0.0305  0.1200 -0.1275
85691W        W28744   3.765  31.030  26.310  0.0053 -0.2135 -0.1429
85692W        W28745   8.677   4.816   0.264  0.0330  0.2878 -0.1351
85693W        W28746   0.626  13.534  14.908  0.1508 -0.0671 -0.1044
85694W        W28747  29.097  33.680   7.579  0.1444  0.0358 -0.1321
85695W        W28748  20.602  30.966   1.028 -0.2565 -0.2356 -0.0452
85696W        W28749  11.838  26.187  17.352 -0.0371  0.1412  0.0933
85697W        W28750  22.628  27.454   7.003 -0.2417 -0.3283  0.1275
85698W        W28751  25.880   2.100   7.587 -0.2975  0.1334 -0.2038
85699W        W28752  30.662  12.265  16.818  0.0304  0.1540  0.0776
85700W        W28753  12.925  33.104   5.023 -0.0583  0.1040  0.1279
85701W        W28754  13.044   6.838   1.774 -0.1387 -0.0755 -0.1488
85702W        W28755  23.200   5.459  26.000  0.0299 -0.0727  0.0638
85703W        W28756  11.709  20.610  14.949 -0.2703  0.0063  0.1495
85704W        W28757  19.828   0.539  29.018  0.0387 -0.2422  0.2741
85705W        W28758  11.596  11.117  28.365  0.0379 -0.1776  0.3602
85706W        W28759  33.262  12.790  14.406 -0.1426 -0.0219 -0.2812
85707W        W28760  18.230   3.063   2.899  0.2814 -0.0906 -0.1044
85708W        W28761  23.772  10.749   8.565 -0.0672 -0.5864 -0.2585
85709W        W28762  27.105  13.876   9.668 -0.2741  0.3642 -0.2123
85710W        W28763  23.777   3.883   5.472  0.0488 -0.1388  0.1188
85711W        W28764  33.038  10.115   5.458  0.0438 -0.1159 -0.1316
85712W        W28765  18.428  22.176  27.056 -0.0671 -0.0912 -0.0675
85713W        W28766  25.610  31.005  26.598 -0.0569 -0.1669  0.2042
85714W        W28767  31.831  12.609   4.020  0.0964  0.2243 -0.1695
85715W        W28768  16.413  12.170   8.081  0.3014  0.1326  0.0909
85716W        W28769  29.416   4.438   9.604 -0.0760  0.4407  0.2495
85717W        W28770  13.646   5.065  24.083  0.1892  0.1013  0.1671
85718W        W28771  23.458  16.452  22.111  0.0705  0.5566  0.0761
85719W        W28772   8.827   3.380  25.675 -0.1668  0.1198 -0.1517
85720W        W28773  19.200   3.507  23.773  0.0155  0.1763 -0.2630
85721W        W28774  18.771   0.146  15.392 -0.2200 -0.1100 -0.2188
85722W        W28775  15.234  30.674  18.135 -0.1081  0.2566 -0.0341
85723W        W28776  24.582  18.933   0.382  0.1970  0.3833  0.4753
85724W        W28777  27.510  31.424   1.711  0.1170  0.3974 -0.0014
85725W        W28778  30.294  11.620  21.570  0.2161  0.0109 -0.0091
85726W        W28779  20.694  16.887  23.754  0.3554  0.1551 -0.0370
85727W        W28780   1.790   5.050  20.032  0.0587 -0.0385  0.2036
85728W        W28781  29.093   6.310   4.506  0.4155  0.0204  0.1178
85729W        W28782  11.132  32.811   7.006 -0.0637 -0.0773  0.1204
85730W        W28783  17.582   9.680  28.346 -0.0116  0.1581  0.0444
85731W        W28784  22.728  10.340  19.413  0.4039 -0.3079 -0.2504
85732W        W28785  18.119   7.346  10.132  0.0113 -0.0616 -0.1570
85733W        W28786  13.666  13.608  27.844  0.2296 -0.1202 -0.0031
85734W        W28787   7.800   2.886   5.372  0.0364  0.0073  0.1540
85735W        W28788  11.538  15.144  21.658  0.1487 -0.1852 -0.1692
85736W        W28789   8.841   7.052  24.435  0.2549 -0.1891 -0.2918
85737W        W28790  20.265   6.368  22.387 -0.0652 -0.0733  0.1462
85738W        W28791   7.384  24.218  24.209 -0.2582 -0.0268  0.1498
85739W        W28792  10.377   8.711  17.792 -0.0205  0.0826 -0.0815
85740W        W28793  24.020  10.445  16.876 -0.0965 -0.3379  0.0295
85741W        W28794  24.962  31.292  24.279 -0.2030  0.3073  0.2972
85742W        W28795  22.376   3.016   3.735  0.0383 -0.1300  0.2670
85743W        W28796   5.784  30.149   0.742 -0.1775  0.2323  0.1901
85744W        W28797  26.260   5.314   6.619 -0.0933  0.0513  0.1635
85745W        W28798  28.516   3.494  25.950 -0.0098  0.2496 -0.2320
85746W        W28799   7.839  34.015  26.140  0.0538 -0.0024  0.1322
85747W        W28800  25.594  19.230   5.706  0.2411  0.2854  0.0624
85748W        W28801  27.563   2.360  23.950 -0.1458  0.2962 -0.0453
85749W        W28802  19.035   8.926   3.417 -0.0431 -0.1886 -0.0390
85750W        W28803  29.514  15.846  27.335 -0.0223  0.1554 -0.0974
85751W        W28804  18.793  19.803  27.885  0.0040 -0.0347 -0.4822
85752W        W28805  21.168   0.280  29.121  0.2362 -0.1200 -0.1585
85753W        W28806  31.632   3.725  27.884  0.0496  0.0110  0.2674
85754W        W28807   7.166  32.388   3.587  0.2087 -0.1661  0.1822
85755W        W28808  13.107  32.261   7.208 -0.1988  0.0978  0.0906
85756W        W28809  10.767  29.103  28.359 -0.1820 -0.2289  0.1565
85757W        W28810  22.331  16.362  28.263 -0.1350  0.1786 -0.2453
85758W        W28811  22.683  18.153   3.065  0.1564 -0.1908  0.0500
85759W        W28812  19.410   1.032  17.542 -0.0652  0.1008  0.2817
85760W        W28813   7.953   3.843  27.149  0.1912  0.1247 -0.2163
85761W        W28814  28.262   3.761  27.135  0.2362 -0.1328  0.2499
85762W        W28815   3.242  29.302  16.439 -0.0184  0.1621 -0.2298
85763W        W28816  23.421   7.476  22.216  0.1496  0.1455 -0.1135
85764W        W28817  17.086  29.861  25.229  0.1461  0.0797  0.2488
85765W        W28818  13.482  23.397   2.165  0.1439 -0.3602 -0.0793
85766W        W28819  26.190  30.810  24.144 -0.1040  0.1868  0.2561
85767W        W28820   6.247  30.614  18.800  0.1531  0.0863  0.1077
85768W        W28821  24.045   4.266  13.925  0.2859 -0.0411 -0.1076
85769W        W28822  29.068  12.769  25.238  0.0257 -0.3380  0.0799
85770W        W28823  21.216   0.778   9.045 -0.0313  0.1030  0.2745
85771W        W28824  17.682  11.709  14.356 -0.3129 -0.1747  0.1992
85772W        W28825  17.398   1.244  24.710  0.0306  0.2360 -0.0968
85773W        W28826   2.833  11.148  26.739  0.1368 -0.0090  0.2091
85774W        W28827  33.880   4.257  21.210  0.0785  0.0022  0.0553
85775W        W28828   4.790  21.614  29.074  0.1161  0.1109 -0.0707
85776W        W28829   5.894  32.635  23.496  0.0295  0.1544 -0.0554
85777W        W28830  26.952   2.981  23.861 -0.2286 -0.2289 -0.0314
85778W        W28831  19.651  29.012   4.932 -0.0851 -0.1563 -0.1242
85779W        W28832  25.199   9.048   9.400  0.0736 -0.2547  0.1177
85780W        W28833  13.051  16.917  17.660  0.0582 -0.1609 -0.0839
85781W        W28834  20.834   9.002  27.074 -0.3854  0.1929 -0.4783
85782W        W28835  16.913   5.437  23.515  0.1520  0.0326  0.2401
85783W        W28836  17.347  33.047  16.268  0.0799  0.0475  0.2751
85784W        W28837  27.837   1.335  20.255 -0.2007  0.0626  0.2617
85785W        W28838  17.978  25.172   1.005  0.0925  0.2379  0.1788
85786W        W28839   7.245  34.225  23.976 -0.0401  0.1129  0.0354
85787W        W28840   8.846   6.627  23.450 -0.1946  0.4340 -0.0930
85788W        W28841  11.465  30.149   3.442 -0.0997  0.4034 -0.4726
85789W        W28842  15.809   1.675  18.509  0.1650  0.1379  0.1114
85790W        W28843   8.135   2.209  24.910  0.2746 -0.2568 -0.2039
85791W        W28844   0.447  11.923  23.232  0.0601 -0.0261 -0.0239
85792W        W28845  17.427  10.638  25.457 -0.1128  0.0262 -0.3871
85793W        W28846  14.668  32.957   4.696 -0.1388 -0.0490  0.0842
85794W        W28847  33.737  11.631   1.013 -0.0061  0.0035  0.0224
85795W        W28848   9.086  31.864   3.886 -0.1464 -0.1338 -0.0494
85796W        W28849  27.413  31.451   4.374 -0.2737  0.1714 -0.1642
85797W        W28850  11.704  11.355  21.967  0.1508 -0.1681  0.2251
85798W        W28851  29.076  26.992  28.685  0.1339 -0.3970 -0.0185
85799W        W28852   7.065   7.338   5.872 -0.0207  0.0754  0.3358
85800W        W28853  27.853   9.619  14.109  0.1597 -0.0440  0.0565
85801W        W28854  29.486   8.647  27.936  0.1295 -0.1082 -0.1304
85802W        W28855  19.214   3.764   3.948 -0.2128 -0.1849  0.0137
85803W        W28856  24.354   6.265  18.570  0.1190  0.1704 -0.1489
85804W        W28857  10.259   6.394  19.312 -0.0828 -0.3546 -0.1739
85805W        W28858  18.416  33.063  17.191 -0.0701  0.0012 -0.2713
85806W        W28859  19.313  34.681   9.231 -0.2956  0.0557  0.2459
85807W        W28860  21.292  32.282  24.473 -0.1856 -0.0498  0.0737
85808W        W28861  13.181   5.572   9.380 -0.0126 -0.1160  0.0011
85809W        W28862  25.879  20.745  20.047  0.0621  0.0703 -0.3204
85810W        W28863   1.383  33.186  18.828  0.0048  0.0769  0.0992
85811W        W28864  24.680   1.148   8.215 -0.0309  0.2882 -0.0605
85812W        W28865  20.224  13.662   0.994 -0.1872  0.0755 -0.3866
85813W        W28866  20.708  34.064  15.208 -0.0198  0.1253 -0.2655
85814W        W28867  11.865  19.539  26.608  0.1155 -0.0119 -0.0702
85815W        W28868  20.037  17.857   6.242 -0.0757  0.1649  0.3368
85816W        W28869  32.153  13.084   5.477 -0.0200 -0.0466 -0.3027
85817W        W28870  16.964   0.026  10.037 -0.0739  0.0637 -0.5364
85818W        W28871  23.327  28.629  15.848  0.3306 -0.4333 -0.1190
85819W        W28872  18.791  11.301  26.165  0.3395  0.1487 -0.0912
85820W        W28873   4.400  32.798  20.395 -0.0640  0.3788 -0.0005
85821W        W28874  10.596  21.095   5.660  0.0285 -0.3146  0.2336
85822W        W28875  11.074  12.233  26.094  0.0143  0.0382  0.0731
85823W        W28876  17.649   0.078  15.250  0.1331 -0.0081 -0.1305
85824W        W28877  22.091   4.154  28.607 -0.3759  0.1548 -0.0472
85825W        W28878  19.333  32.318  24.650 -0.1024 -0.0203  0.1806
85826W        W28879  20.613   4.241  17.337  0.1603  0.4167  0.3764
85827W        W28880  20.379   9.448   7.174  0.2066 -0.2893  0.1047
85828W        W28881  14.059  11.765   3.026  0.1009 -0.0957  0.3724
85829W        W28882  31.623  14.064   8.756  0.2690  0.2050 -0.0181
85830W        W28883  31.755  32.494  27.402  0.0385 -0.0216  0.1684
85831W        W28884  23.657  10.083  19.784 -0.0345  0.1844  0.3233
85832W        W28885  24.416   0.759  17.386 -0.1314 -0.1674  0.0139
85833W        W28886  18.214  31.526  23.948  0.1904  0.1552 -0.3353
85834W        W28887   7.103   3.654   7.460 -0.3913 -0.0722  0.0489
85835W        W28888  13.446  23.345   0.244 -0.2750 -0.1941  0.1783
85836W        W28889  31.459   9.308  24.733 -0.1315  0.2094  0.1592
85837W        W28890  18.656   2.369  25.579  0.2420 -0.0003  0.0612
85838W        W28891  16.007   7.470  25.601 -0.2154 -0.2156  0.0236
85839W        W28892   1.962  32.988   5.215 -0.3858  0.2045 -0.3542
85840W        W28893  24.104   8.604   4.458 -0.1959 -0.3200  0.1021
85841W        W28894   1.453  29.361  16.514 -0.1950  0.3478 -0.2572
85842W        W28895  12.609  23.351   8.274  0.3710  0.1619  0.0519
85843W        W28896  18.200   1.186  28.023  0.1349 -0.1506 -0.1784
85844W        W28897  14.229  28.577   7.368  0.1692  0.2448 -0.2154
85845W        W28898   3.151  13.034  16.568  0.2051 -0.0745 -0.3463
85846W        W28899  21.145  10.542   7.492 -0.0647  0.0952  0.2466
85847W        W28900   9.300  14.145  19.150  0.1707  0.3070 -0.1914
85848W        W28901  23.501  32.009  28.749 -0.2005  0.0763  0.0930
85849W        W28902  19.825  33.946   8.182 -0.1512 -0.4460 -0.1288
85850W        W28903   9.878  29.520   0.697 -0.0597 -0.1509  0.0667
85851W        W28904  25.880   1.123  16.064 -0.1357  0.0676 -0.0396
85852W        W28905   8.486   8.039  14.539 -0.1032 -0.1276 -0.2463
85853W        W28906  25.181   6.577   1.049  0.0002 -0.0842  0.1858
85854W        W28907  26.602  13.601  27.475  0.1004 -0.2616  0.2710
85855W        W28908   5.292  24.480  21.558 -0.3359  0.2405  0.0835
85856W        W28909  10.208   0.013   9.040 -0.4233 -0.1439  0.1005
85857W        W28910  14.601  18.474  13.581 -0.0102  0.2285  0.0452
85858W        W28911  16.271  10.888  17.469 -0.0703 -0.0506 -0.2433
85859W        W28912  13.887  25.562  29.035  0.0959 -0.1287 -0.2813
85860W        W28913  13.222   3.847  27.987  0.2121  0.2934 -0.1034
85861W        W28914   7.378  33.703   5.118  0.3423 -0.0031 -0.0319
85862W        W28915  31.628   3.290  18.906  0.2814 -0.1112  0.0476
85863W        W28916  11.098   0.003  17.284  0.1134 -0.0376  0.1532
85864W        W28917  33.074   0.900  16.889  0.1579  0.2816 -0.2690
85865W        W28918  20.271  18.093  24.323  0.4059 -0.0382 -0.0207
85866W        W28919   3.290  14.248  18.749  0.2024 -0.0210  0.2385
85867W        W28920  20.242  34.023   9.749 -0.1362  0.1707  0.0680
85868W        W28921  22.741  27.614   7.511  0.0660  0.1735  0.0890
85869W        W28922  14.027   8.453  18.316 -0.0725  0.1168 -0.0240
85870W        W28923   0.036  13.134   5.969 -0.1005  0.2948 -0.1086
85871W        W28924   2.565  12.623  25.625 -0.2201 -0.1200  0.2565
85872W        W28925  23.247  33.360  27.911 -0.0760  0.2427  0.0133
85873W        W28926  25.463  28.084  18.911 -0.1110 -0.1186 -0.1884
85874W        W28927  14.890   4.233   4.702  0.0426 -0.0635  0.1134
85875W        W28928  29.214   3.919   1.702 -0.0052 -0.2390  0.1616
85876W        W28929  23.494   5.801  25.199  0.0454 -0.0356  0.0366
85877W        W28930  14.779   3.531   2.429 -0.4173  0.1594  0.1536
85878W        W28931  11.095  14.106   5.946  0.1037 -0.2684  0.1007
85879W        W28932  25.977   4.389  23.255 -0.0482 -0.2355  0.2714
85880W        W28933  13.650  20.790  19.337  0.0875  0.0183 -0.0128
85881W        W28934  19.352  30.764  18.086 -0.0292  0.0519  0.0088
85882W        W28935  14.156   4.632   5.091 -0.0307  0.0549  0.1287
85883W        W28936  20.016   0.306   6.498 -0.2289 -0.4538  0.1117
85884W        W28937   4.043  20.472   0.123  0.0698  0.2548  0.0936
85885W        W28938  20.573  28.065   7.207  0.1186  0.2058  0.4414
85886W        W28939  16.797  27.269  26.257 -0.1687 -0.3765  0.0648
85887W        W28940  23.989   4.594   9.863 -0.1499  0.1848 -0.2214
85888W        W28941  31.838  23.124   6.882  0.0929  0.0427  0.0435
85889W        W28942  31.872  33.968   7.305  0.3341  0.4894  0.1855
85890W        W28943  14.185   3.685  25.707  0.1130 -0.2065 -0.2346
85891W        W28944   1.819  18.424  27.661 -0.1748 -0.0899 -0.1858
85892W        W28945  25.249  11.279  24.186 -0.3192  0.1236 -0.0376
85893W        W28946  25.371   5.151  24.242 -0.1779  0.2580  0.1819
85894W        W28947  20.000   1.809  20.045  0.4240 -0.0762  0.0522
85895W        W28948  19.979  16.588   5.815  0.2400 -0.0990  0.1492
85896W        W28949  19.306  24.650   9.633  0.1134 -0.0402  0.0289
85897W        W28950  31.377  21.277  17.529  0.3115  0.3275 -0.1795
85898W        W28951  10.675  16.780   3.854  0.1133 -0.3102 -0.0844
85899W        W28952   7.756  19.951  19.475 -0.1399  0.1804  0.0498
85900W        W28953  29.918  28.983  21.119  0.2681  0.1036  0.0554
85901W        W28954  15.594  10.700  21.270  0.1498 -0.1289  0.5674
85902W        W28955  12.112  33.087  22.817 -0.3113 -0.1661 -0.0273
85903W        W28956  20.068  32.666   3.812 -0.2673 -0.0001  0.2295
85904W        W28957  11.510   1.364  27.610  0.1620  0.2038 -0.2491
85905W        W28958  17.975   4.335   4.521  0.1901 -0.4646 -0.1649
85906W        W28959  26.385   8.412   1.641  0.1323  0.0449  0.4437
85907W        W28960  20.738  26.515  20.236 -0.1964  0.0271  0.1315
85908W        W28961  19.573  34.072   6.438  0.3445  0.1557  0.0346
85909W        W28962  10.375  28.453  24.170 -0.0202 -0.2823  0.0156
85910W        W28963  14.143  32.171   9.965 -0.2357 -0.0053  0.0045
85911W        W28964  25.657  33.679  17.174 -0.1748 -0.1891 -0.2163
85912W        W28965  23.198   9.710   5.704 -0.1477  0.0384  0.0025
85913W        W28966  24.403   0.051  24.161  0.2031 -0.1384 -0.1774
85914W        W28967  20.967   4.329  23.542 -0.0766  0.0509 -0.0184
85915W        W28968   9.603   2.599   8.765  0.1338 -0.2438  0.0100
85916W        W28969  24.981  32.960  27.094 -0.1898  0.1776  0.0887
85917W        W28970  25.605   1.061  10.090  0.3931  0.3403 -0.0611
85918W        W28971  14.121  33.568  26.457  0.1162  0.1658 -0.0093
85919W        W28972  23.972   3.047   5.142 -0.1278 -0.1794 -0.0780
85920W        W28973   4.729  22.920  24.623 -0.1067  0.2813  0.1238
85921W        W28974  18.916   4.791  23.478  0.0127  0.0097  0.2937
85922W        W28975  30.615   3.408   0.947 -0.0954 -0.2263 -0.1738
85923W        W28976  17.408  33.608   9.255  0.2978  0.0023  0.2651
85924W        W28977  19.798  10.450  27.328  0.2052 -0.1001  0.1509
85925W        W28978  27.387   8.738   1.683  0.0744  0.3883  0.2432
85926W        W28979  10.772  10.533   0.514  0.0930  0.1939  0.2031
85927W        W28980  16.292   9.810  18.267 -0.0510  0.1888 -0.3104
85928W        W28981  32.094  17.729  27.879  0.1927 -0.0229 -0.0726
85929W        W28982   7.655  33.260  25.419  0.0798 -0.0244  0.0328
85930W        W28983  18.707  16.962   8.705 -0.2322  0.0129 -0.3558
85931W        W28984  27.906   6.501  17.801 -0.4438 -0.2206  0.0378
85932W        W28985  29.466   3.222  23.784  0.3080  0.0677  0.3692
85933W        W28986  20.285   3.173  22.017  0.0646 -0.0269  0.3840
85934W        W28987   2.880   4.015  20.206  0.1024  0.4324  0.2133
85935W        W28988  19.526  18.333  26.735 -0.0480 -0.0427 -0.1779
85936W        W28989  18.203  31.914  28.926 -0.0475  0.0015 -0.1028
85937W        W28990  27.693  15.602   9.116 -0.0377 -0.1755 -0.1619
85938W        W28991  28.252  11.337  28.792  0.0011 -0.4414 -0.0908
85939W        W28992  15.338  20.519   8.571 -0.3527  0.1360  0.1694
85940W        W28993  28.755  11.986   0.284 -0.4481  0.0373 -0.0633
85941W        W28994  16.269  22.003  18.414 -0.1997  0.0631 -0.0031
85942W        W28995  32.475  21.481   6.272 -0.0105  0.2193 -0.0502
85943W        W28996  34.565  19.859  29.005  0.2652 -0.3779  0.0352
85944W        W28997  11.477  13.238   8.206  0.1736 -0.0211  0.0252
85945W        W28998  20.544  28.744  17.571 -0.1161 -0.2961 -0.1011
85946W        W28999  28.971   4.659  19.362 -0.2689  0.1487 -0.0022
85947W        W29000  16.783   6.081  28.741 -0.0381 -0.0538  0.0614
85948W        W29001   4.204  14.723  23.686  0.1831 -0.3033  0.2362
85949W        W29002  18.970  11.513  20.081  0.0609 -0.3470  0.1700
85950W        W29003  25.274   2.008  25.003  0.1246 -0.0338  0.2119
85951W        W29004  11.192  32.541   4.250  0.0168 -0.1448  0.3262
85952W        W29005  18.116   2.752   5.756 -0.0391 -0.0442 -0.2160
85953W        W29006  30.385   7.748   8.954  0.0457  0.0595  0.2467
85954W        W29007  12.450  29.104  27.121 -0.1326 -0.1202 -0.0678
85955W        W29008  26.606  12.861  27.929 -0.2893  0.1954 -0.3123
85956W        W29009  16.222  28.083   4.688  0.0684  0.1093 -0.0060
85957W        W29010  16.680  15.372   1.033  0.1650  0.0354 -0.0730
85958W        W29011  18.248  15.837  22.448  0.1765  0.0208  0.0102
85959W        W29012  20.408  10.162  27.280 -0.0891 -0.0857  0.2239
85960W        W29013  14.876   3.920   2.801  0.1517  0.4964  0.1231
85961W        W29014  19.826  18.539   6.189 -0.3621  0.1784  0.1095
85962W        W29015  29.238   0.323  16.029 -0.1007 -0.1548 -0.1600
85963W        W29016  19.315  27.695   7.095  0.1087  0.0423  0.2292
85964W        W29017  28.177  29.522  23.516  0.3090 -0.1128  0.1128
85965W        W29018  24.310   7.662  23.955  0.0051 -0.1856  0.0079
85966W        W29019  19.281  14.520  24.529  0.0246 -0.0321  0.3203
85967W        W29020  21.752  21.956  22.961 -0.1179  0.2635 -0.1809
85968W        W29021   0.981  33.270  22.888  0.4202 -0.0698  0.3246
85969W        W29022  30.549  10.972   4.870  0.2623 -0.1634 -0.4601
85970W        W29023  25.631   4.306  18.504 -0.0906  0.0863 -0.0016
85971W        W29024   7.464   9.108  20.342  0.1472 -0.0475  0.2013
85972W        W29025  18.211   6.226  24.140 -0.0830  0.2522 -0.0751
85973W        W29026   4.540  11.213  21.311  0.1544 -0.0804 -0.2639
85974W        W29027  20.194  11.623  13.534 -0.1846 -0.2016 -0.0590
85975W        W29028  20.836  28.725   8.147  0.0404 -0.2240  0.1306
85976W        W29029  11.716  12.137  21.181  0.1137  0.1236  0.2493
85977W        W29030  28.515  27.854  18.683 -0.0401  0.2550  0.2544
85978W        W29031  32.829   4.285   7.707 -0.1230 -0.0884  0.0496
85979W        W29032  16.182   5.068   6.111  0.2221  0.2463 -0.0884
85980W        W29033  26.375   9.635   0.670  0.0689  0.2243  0.1556
85981W        W29034  29.165  10.008   5.310 -0.2407  0.3120  0.1541
85982W        W29035   4.302  28.086   1.627 -0.0662 -0.2191  0.0728
85983W        W29036  32.356  16.333  14.130 -0.1051 -0.0806 -0.3583
85984W        W29037  16.650  12.864   2.562  0.0087 -0.0510  0.1987
85985W        W29038  31.684  20.160   0.591  0.0923 -0.1953  0.0362
85986W        W29039  29.593  33.642  28.255  0.0740  0.0170 -0.0157
85987W        W29040  25.493  22.199   2.742  0.0518  0.0966 -0.0194
85988W        W29041  23.053  30.484   0.632 -0.2214 -0.4961 -0.2020
85989W        W29042  15.769  32.813  20.018  0.0358 -0.2764 -0.3816
85990W        W29043   6.658   3.499   7.333  0.0063  0.0145 -0.0927
85991W        W29044  19.213   5.242  21.957  0.0779  0.1933 -0.1992
85992W        W29045  17.547   1.475  24.198 -0.2941  0.1314 -0.2826
85993W        W29046  20.956   2.678   4.927 -0.0941  0.0581 -0.0960
85994W        W29047  32.319  30.968  28.765 -0.0161 -0.0551  0.1705
85995W        W29048  20.926   2.176  20.264 -0.2343  0.2101  0.1521
85996W        W29049  33.946  10.974   3.149  0.1454  0.2879 -0.1397
85997W        W29050  19.548  21.111  24.274  0.1859 -0.1591  0.4276
85998W        W29051  24.604   5.317   5.158 -0.0589 -0.0559 -0.0387
85999W        W29052  17.797   3.278   0.764  0.1374  0.3062  0.0393
86000W        W29053   0.924  10.383   6.937 -0.1981 -0.2854  0.1526
86001W        W29054  34.476   8.980  22.717 -0.1082 -0.0236  0.2257
86002W        W29055  30.695   3.087   7.148 -0.1284 -0.0568 -0.1719
86003W        W29056  21.913  31.623  23.042  0.1929 -0.0264 -0.0467
86004W        W29057  17.119   4.916   1.892  0.2308 -0.1131  0.3766
86005W        W29058  12.725   7.126   8.159  0.0004 -0.6338 -0.3222
86006W        W29059  19.123  20.918  21.251 -0.3290  0.1196  0.5210
86007W        W29060   2.920   0.382  22.090  0.0994  0.0383  0.2726
86008W        W29061  11.645  33.267  21.682 -0.0168 -0.0592 -0.1993
86009W        W29062  13.889  12.039  26.265  0.0258  0.0520  0.2034
86010W        W29063  13.356   1.449  16.143 -0.0610 -0.0607 -0.1007
86011W        W29064  31.816   1.473   6.699  0.0623  0.1054  0.1530
86012W        W29065   8.825  29.547   3.884 -0.0240 -0.3002  0.0293
86013W        W29066   3.140  31.266  23.765 -0.1750 -0.0510  0.0288
86014W        W29067  12.749   2.435   9.611  0.3616 -0.0420 -0.3402
86015W        W29068  27.039   0.491  27.888 -0.2686 -0.1686  0.0798
86016W        W29069   6.787  19.919   1.155 -0.1520  0.3027  0.1378
86017W        W29070  28.430  14.714  21.323 -0.2562 -0.1010 -0.0557
86018W        W29071  12.508  22.332  25.959  0.1802 -0.0282  0.4091
86019W        W29072  11.019  30.348   5.723 -0.1266 -0.3375 -0.5045
86020W        W29073  32.694  29.868  16.188  0.1839  0.0350 -0.1486
86021W        W29074  27.856  20.669   4.663  0.1658 -0.2157  0.0558
86022W        W29075  27.100   2.566  24.602  0.0609 -0.0938  0.3310
86023W        W29076   3.193  31.181  25.053  0.0406  0.0182  0.1196
86024W        W29077  18.574  19.439   4.939 -0.0843 -0.2665  0.2988
86025W        W29078  15.287   2.126  10.511  0.0409 -0.2063  0.1059
86026W        W29079  26.484   9.584  28.959  0.1630 -0.2427  0.2088
86027W        W29080   4.719  27.626  22.004 -0.1842  0.0166  0.0548
86028W        W29081  24.660   8.027   6.736  0.2341 -0.2011  0.1570
86029W        W29082  18.351  34.006   2.492 -0.1092  0.0521 -0.0439
86030W        W29083  28.733   2.910  26.641  0.1249  0.0185  0.2242
86031W        W29084  19.081   7.077  21.304 -0.1083  0.0168 -0.2065
86032W        W29085  25.750  14.221  16.908 -0.0581 -0.0718 -0.3308
86033W        W29086  23.757   4.753  27.308  0.2538  0.0744  0.0312
86034W        W29087  22.188   6.147   0.979 -0.1052 -0.0576 -0.1858
86035W        W29088  32.049   3.798   6.609  0.2514 -0.0194 -0.0239
86036W        W29089  26.867  13.295  23.888 -0.2676 -0.2333 -0.0694
86037W        W29090  24.648   5.840   2.392 -0.1051 -0.1240 -0.0251
86038W        W29091  13.564  15.900  20.090 -0.0786  0.4511  0.1213
86039W        W29092  16.655  27.977  20.185  0.0636  0.3283  0.0784
86040W        W29093  22.297  30.743  22.456  0.2421 -0.2478 -0.0112
86041W        W29094   0.074  26.465   2.481  0.1489  0.2776 -0.0492
86042W        W29095  16.479   6.467  22.081  0.2230  0.2052 -0.0780
86043W        W29096  14.969  20.029  23.311 -0.2056  0.1085 -0.0744
86044W        W29097  22.899   2.792  23.169 -0.0421  0.4294  0.0861
86045W        W29098  10.941  31.714   5.012 -0.0314 -0.1333 -0.1004
86046W        W29099  27.141  17.974  15.942  0.0045 -0.0369  0.0970
86047W        W29100   7.124  10.247  21.139  0.2405  0.0950  0.0978
86048W        W29101   7.846  32.695  28.027  0.2297  0.1964 -0.0061
86049W        W29102  21.658   8.232  25.569  0.3202  0.0191 -0.0387
86050W        W29103   0.153   2.125  25.154  0.1048 -0.2270 -0.0913
86051W        W29104  11.093  30.724   4.985  0.1220  0.0841 -0.0599
86052W        W29105  16.216  25.629  10.467 -0.1517  0.1447  0.1682
86053W        W29106   7.570  32.633  15.509 -0.0678 -0.2485  0.0239
86054W        W29107  21.912  27.967  21.451  0.0334  0.0831  0.0783
86055W        W29108  10.323  16.847   0.766  0.0214 -0.0957 -0.3066
86056W        W29109  17.391   8.031  27.862  0.0653  0.0127  0.0732
86057W        W29110  33.535  31.685   6.640  0.2498  0.0663 -0.0603
86058W        W29111  32.669  26.898   1.228 -0.2561 -0.1296 -0.2810
86059W        W29112  18.573  20.194  15.442  0.0192 -0.1310 -0.2576
86060W        W29113   0.941   6.599  19.797 -0.1202 -0.2448 -0.2079
86061W        W29114  20.262   7.617   3.296 -0.0032  0.2798 -0.1974
86062W        W29115  34.607  31.432   1.895 -0.2081  0.0775 -0.0929
86063W        W29116  20.705   4.906   7.973 -0.0141 -0.0045  0.1213
86064W        W29117  15.598  30.061  19.618  0.1609  0.1196 -0.1067
86065W        W29118  16.166  27.618   8.193  0.0507  0.1233 -0.2131
86066W        W29119  19.764  28.233  27.087 -0.0418 -0.0785 -0.0716
86067W        W29120  32.305  34.062  18.116  0.3296 -0.2476 -0.1437
86068W        W29121  28.244   7.087   6.354  0.0968  0.0001 -0.4016
86069W        W29122  22.938  12.749  23.881 -0.0792  0.1790 -0.1117
86070W        W29123  12.434  22.347   8.108  0.1336  0.1583  0.1035
86071W        W29124   5.842  22.761   4.095 -0.1239  0.1213 -0.0267
86072W        W29125  11.141  33.589   0.593 -0.0273  0.3418  0.0278
86073W        W29126  32.518  17.507  29.126  0.0107 -0.0396 -0.0529
86074W        W29127  31.090  13.833   3.904  0.1817  0.2891 -0.0101
86075W        W29128  16.640   7.060  16.327  0.2859 -0.1324  0.0314
86076W        W29129  26.676  28.786  24.346 -0.1056  0.0015  0.0274
86077W        W29130  12.811  29.687   9.247  0.1440 -0.2071  0.2289
86078W        W29131  32.174  21.457   7.231 -0.3535  0.1185 -0.5152
86079W        W29132   3.503  14.110  16.821 -0.0702  0.0503  0.0424
86080W        W29133  11.616   6.377  24.317 -0.0829 -0.0874  0.5149
86081W        W29134  13.477   7.395  20.735 -0.0193  0.1654  0.1489
86082W        W29135  14.305   5.491   8.806 -0.1567 -0.0517  0.2923
86083W        W29136  11.781  12.563  18.939  0.1086 -0.0530  0.2410
86084W        W29137  24.543  10.599  25.414 -0.0354 -0.1526  0.0656
86085W        W29138  14.355   8.207  21.793 -0.2404  0.0377  0.0595
86086W        W29139  19.468  13.719  26.350  0.0240  0.1280  0.0647
86087W        W29140   7.698  32.635  27.210  0.0709  0.0267  0.1270
86088W        W29141  16.600  17.386   3.944 -0.2948  0.1857  0.1678
86089W        W29142  34.628  17.496   2.369 -0.0584 -0.3309 -0.1673
86090W        W29143  22.043  12.537  18.368  0.1416 -0.2209  0.1029
86091W        W29144  20.698  12.842  20.723  0.1428 -0.1106 -0.0641
86092W        W29145  25.602  17.922  26.183 -0.0583 -0.0127  0.2779
86093W        W29146   9.351  22.439  16.150  0.1322  0.0889 -0.1893
86094W        W29147  19.476  14.415  26.722 -0.2525  0.2103 -0.2796
86095W        W29148  18.709  17.065  25.880 -0.0159  0.1468  0.0529
86096W        W29149  23.997  33.562  16.737 -0.2428 -0.0405 -0.1196
86097W        W29150  14.234   5.119  16.764 -0.0634  0.0986  0.0264
86098W        W29151  13.210  29.197  21.134 -0.0907  0.1530  0.2207
86099W        W29152   6.907  14.139   4.536  0.0623  0.0462 -0.0224
86100W        W29153  11.627  19.390  10.174 -0.0784  0.0677  0.0392
86101W        W29154  16.160  13.823   5.830  0.1590  0.0521  0.2210
86102W        W29155  15.981   3.101  28.858 -0.0370  0.2555  0.1760
86103W        W29156  22.586  29.293  23.603 -0.1523 -0.1321 -0.0063
86104W        W29157  21.652   6.814   3.357  0.1920 -0.1648  0.1168
86105W        W29158  12.533   7.416   2.281 -0.0788  0.2430 -0.2915
86106W        W29159   6.606   3.620  16.186  0.2441 -0.0721 -0.2669
86107W        W29160  14.025   6.172   4.077  0.2204  0.0448  0.0961
86108W        W29161   9.111  17.608   0.702 -0.1494  0.1800 -0.0918
86109W        W29162   0.274   8.619  28.257 -0.0948 -0.0998 -0.0569
86110W        W29163   0.090   4.063  20.209 -0.5865  0.0781 -0.1717
86111W        W29164   7.241   9.033  22.581  0.0939 -0.2302 -0.0006
86112W        W29165  14.593  29.926   9.911  0.0877  0.2248 -0.1884
86113W        W29166   1.761  13.218   8.561  0.1884  0.1114  0.2257
86114W        W29167  15.449  13.518  27.273 -0.2193 -0.0640  0.1210
86115W        W29168   7.246   2.546   7.375 -0.2584  0.1665  0.0144
86116W        W29169  28.292   6.865  19.301  0.0475  0.0449 -0.0802
86117W        W29170  16.908  34.058  21.718  0.2304 -0.0149  0.2949
86118W        W29171  15.286   8.604   5.257 -0.0466  0.1773 -0.1119
86119W        W29172  29.789  33.352   2.924 -0.4987  0.0016 -0.0617
86120W        W29173  22.055   0.643  25.077  0.2593  0.0519 -0.0797
86121W        W29174   4.390  20.733   7.313 -0.0852 -0.1034  0.0302
86122W        W29175  33.222   7.831  26.563 -0.0065 -0.1034  0.2870
86123W        W29176  10.033   4.636  14.636 -0.0694 -0.0181  0.2697
86124W        W29177  14.099   5.144  27.233  0.2893  0.0959  0.2634
86125W        W29178  16.174  33.526  16.576 -0.2443  0.1317  0.0926
86126W        W29179  13.158  12.152  18.341  0.0665 -0.1044 -0.1969
86127W        W29180   0.190   6.423  22.292 -0.1055 -0.1421 -0.2275
86128W        W29181   3.496   9.745   2.559 -0.0820  0.0068 -0.0536
86129W        W29182  27.485  14.967  18.878 -0.0186 -0.0001 -0.1486
86130W        W29183   8.246   2.816   5.120  0.0433  0.0440 -0.0525
86131W        W29184  20.499   6.829  22.359 -0.4490 -0.0408  0.2179
86132W        W29185   2.141  16.216  28.528 -0.0677 -0.0318 -0.0436
86133W        W29186  19.274   6.850   2.581  0.1205  0.1436  0.2125
86134W        W29187  22.667  21.389  19.488  0.1630 -0.3259 -0.2748
86135W        W29188  16.441  13.184  26.219 -0.0622 -0.2156 -0.0144
86136W        W29189   4.796  16.061  26.774 -0.0120 -0.3965  0.0174
86137W        W29190   6.265  14.455  22.569 -0.2025  0.0685  0.1362
86138W        W29191  11.181  22.757  21.687 -0.0658  0.1583 -0.0197
86139W        W29192  10.255  12.750  15.613 -0.0142 -0.1244  0.0380
86140W        W29193  18.196   9.797  20.354 -0.1762  0.0102 -0.0035
86141W        W29194  11.172  11.613  20.674 -0.0132 -0.1693 -0.0146
86142W        W29195   9.598   3.717  15.934  0.1509  0.1051  0.1209
86143W        W29196  25.308   0.496  21.557  0.3523  0.1336 -0.1338
86144W        W29197   9.849   8.725   0.769 -0.0839  0.1893  0.4660
86145W        W29198  29.899  19.939  28.719 -0.2216  0.0444 -0.0911
86146W        W29199  24.497   1.143  14.429 -0.2126 -0.0055  0.0342
86147W        W29200  21.374   6.734  22.170  0.3214 -0.1498 -0.1034
86148W        W29201  10.778   9.861  14.942  0.1191 -0.0609 -0.5364
86149W        W29202   0.327   1.590  17.791  0.0556  0.1142  0.2487
86150W        W29203  26.739  17.223  19.281  0.1567  0.0527  0.1211
86151W        W29204   0.760  12.374  14.800 -0.2925 -0.1489  0.4190
86152W        W29205   7.129   7.184  26.840  0.0321  0.3476  0.4483
86153W        W29206   4.719   6.111  23.831  0.1636  0.2533 -0.1775
86154W        W29207  11.555   4.442  14.799 -0.1518 -0.0956  0.1343
86155W        W29208  26.515   6.870  29.070  0.0353  0.1787  0.2135
86156W        W29209  28.007   4.367  14.294  0.0045  0.1628 -0.4344
86157W        W29210   5.916  24.615  14.331  0.2563 -0.0796 -0.0776
86158W        W29211  30.451  33.053  20.029  0.2004  0.0862 -0.1697
86159W        W29212  19.493   9.636   8.830 -0.1544 -0.1071 -0.0348
86160W        W29213   8.081  14.777  23.842 -0.1374 -0.1195  0.0667
86161W        W29214  13.508  12.609  18.509  0.0182  0.1498 -0.2366
86162W        W29215   2.232   6.455  20.874  0.3223 -0.2391  0.3196
86163W        W29216  31.570  13.143  16.458  0.1387 -0.0067 -0.0992
86164W        W29217   3.769  20.559  17.187  0.2102 -0.0956  0.0063
86165W        W29218  25.489  11.177  16.861 -0.0869  0.3029  0.2919
86166W        W29219   9.930  24.462  14.893  0.1299  0.0309  0.3407
86167W        W29220  34.054   6.705  17.154  0.1037  0.3467 -0.0192
86168W        W29221  22.795   7.909  21.658  0.1923 -0.1364  0.2239
86169W        W29222  26.167  25.236  23.360  0.2370 -0.3282  0.0836
86170W        W29223  14.153   4.524  16.721 -0.0343 -0.0841  0.1721
86171W        W29224   9.765   3.689  22.240  0.2645 -0.2055  0.0974
86172W        W29225  16.058   9.664  23.532  0.0963  0.2820  0.1330
86173W        W29226   9.644  13.108  15.390  0.1529 -0.0916  0.2431
86174W        W29227  25.283  12.112   4.720 -0.0174 -0.0232 -0.1320
86175W        W29228  19.197   3.518  18.117  0.1245 -0.1527  0.0999
86176W        W29229  16.145   4.260  17.334 -0.2495 -0.1404  0.0985
86177W        W29230  18.325   7.125  24.669  0.0007  0.2168  0.2618
86178W        W29231  16.060  10.513  21.439 -0.0019  0.0473  0.1172
86179W        W29232  29.089   9.098  22.175 -0.1007  0.1080  0.3297
86180W        W29233  11.916  19.828  18.220  0.2114  0.3469 -0.1484
86181W        W29234   8.402   0.349  15.963  0.1693  0.0042  0.1513
86182W        W29235   8.105  15.915   4.325  0.0046  0.0681  0.2820
86183W        W29236  34.122  20.304   5.129 -0.1957 -0.0368  0.2152
86184W        W29237  14.154   1.261  22.635  0.1247 -0.3548  0.0126
86185W        W29238  16.869  10.108   9.207  0.0368  0.1831  0.0487
86186W        W29239  26.477  19.803  17.691  0.3079 -0.2004  0.0292
86187W        W29240  30.014   5.832  25.258  0.0113 -0.0842 -0.2013
86188W        W29241  20.303  13.382   2.116 -0.0110 -0.0516 -0.0192
86189W        W29242  30.500  16.836  21.582  0.1558  0.6409 -0.1091
86190W        W29243  16.824   1.037  19.072 -0.3116 -0.0918 -0.0961
86191W        W29244   1.467  10.624   2.406  0.0516  0.0217  0.0772
86192W        W29245  12.959   4.013  18.326 -0.2110 -0.0458  0.1084
86193W        W29246  28.656  30.896  19.773 -0.3289 -0.0058 -0.2176
86194W        W29247  33.015  10.027  28.706 -0.0158 -0.2673 -0.3300
86195W        W29248  16.748   5.848  25.162 -0.1304 -0.1262  0.2010
86196W        W29249  10.774   6.284   0.294  0.3548 -0.1576  0.1846
86197W        W29250  19.093   7.451  23.124  0.0289 -0.0733  0.1839
86198W        W29251  17.761   0.225  28.602  0.1723  0.0848  0.3099
86199W        W29252  27.599  25.459  24.722  0.0750  0.0540 -0.5172
86200W        W29253  12.207   2.849  14.854  0.0501 -0.0175  0.0876
86201W        W29254  17.992  24.569  18.390  0.1654 -0.0130 -0.3990
86202W        W29255  18.691   0.625  15.707 -0.0593  0.1736 -0.1168
86203W        W29256   4.315   9.449  16.170 -0.0685 -0.1484 -0.0372
86204W        W29257  23.401  19.264  15.697 -0.1120 -0.0137 -0.0283
86205W        W29258  20.253  34.684  19.716  0.0953 -0.0068 -0.1283
86206W        W29259   7.235  28.920  17.052  0.3564  0.1155 -0.0122
86207W        W29260  26.693   0.612  18.251 -0.0036 -0.0442  0.0727
86208W        W29261  11.214   0.945  21.219 -0.1401 -0.1625  0.1050
86209W        W29262  18.351   0.651  16.088  0.0326  0.2142 -0.0999
86210W        W29263  20.553  34.113  17.020  0.0612 -0.0084 -0.1508
86211W        W29264  29.165  14.247  24.806 -0.2172 -0.2883 -0.0707
86212W        W29265  11.372  16.331  14.472 -0.2377  0.0757 -0.1822
86213W        W29266  24.237  10.344  14.067 -0.5158  0.0427 -0.0710
86214W        W29267  26.815  31.840  15.870 -0.0283 -0.1517 -0.0215
86215W        W29268  28.361   9.606  18.493  0.2504 -0.0786  0.2967
86216W        W29269  23.328   6.828  24.383  0.2237  0.3200  0.4346
86217W        W29270  23.864  31.920  21.653 -0.2818  0.0803 -0.0239
86218W        W29271  10.392  10.171  22.745 -0.1232 -0.0690  0.0358
86219W        W29272  26.569  13.174  24.814 -0.0467  0.0539  0.6126
86220W        W29273  28.601  26.456  24.303  0.1161 -0.3137  0.0933
86221W        W29274  22.404   7.195  22.739  0.0368 -0.1147 -0.1110
86222W        W29275  10.926  15.095  16.085 -0.0094  0.1941 -0.2381
86223W        W29276  33.546  14.883  15.777  0.0915  0.1283 -0.2906
86224W        W29277  18.378   8.090  17.619 -0.2058 -0.0921 -0.3742
86225W        W29278  10.745  13.267  18.705  0.0136 -0.0196 -0.3514
86226W        W29279  20.731   7.571  24.405  0.1642  0.2512 -0.0804
86227W        W29280  25.039  10.895  17.531 -0.0362  0.1514  0.2628
86228W        W29281  18.929  26.119  18.002 -0.0665 -0.1381 -0.2280
86229W        W29282  33.885   3.837  24.565  0.1234  0.0620 -0.2169
86230W        W29283  24.693  33.383   9.967  0.0705 -0.2559 -0.1352
86231W        W29284  11.493   9.108  25.987 -0.1057  0.1973  0.0379
86232W        W29285  27.016   0.109  15.204 -0.0280  0.2195  0.1593
86233W        W29286  17.402  10.875  17.558 -0.0333 -0.1919 -0.3320
86234W        W29287  14.465   0.612  19.613  0.2247  0.0985  0.0197
86235W        W29288   0.346   8.319   0.380  0.1974  0.2312 -0.1129
86236W        W29289  24.737   4.565  18.433 -0.1382 -0.0823  0.2087
86237W        W29290  23.603   6.394  17.072 -0.1480  0.3243 -0.2099
86238W        W29291  24.033   2.847  20.541 -0.0208  0.3900  0.0319
86239W        W29292  20.113   9.377  14.973 -0.0143  0.1565  0.1031
86240W        W29293  32.911   9.682  26.035  0.2061 -0.0648 -0.0213
86241W        W29294  24.580  21.532  19.417  0.1385 -0.1903  0.0330
86242W        W29295  10.812   9.916  20.071 -0.0404  0.2880  0.1545
86243W        W29296  17.292  33.695  19.286 -0.3501 -0.0170 -0.0588
86244W        W29297  27.550  18.866  23.945 -0.1452  0.0608  0.0860
86245W        W29298  29.027  21.970  19.477 -0.0374 -0.2846  0.0722
86246W        W29299   0.432   7.311  17.463 -0.1675  0.2728 -0.0676
86247W        W29300   9.563   6.450  15.461  0.0402 -0.0232  0.1069
86248W        W29301  10.519  10.856  15.158 -0.3142  0.0542  0.0090
86249W        W29302  30.088   2.669  26.326 -0.0509 -0.2796 -0.0312
86250W        W29303  21.827   4.043  24.130 -0.1922  0.0515 -0.2572
86251W        W29304  28.784   6.620  17.550  0.0120 -0.0078 -0.1939
86252W        W29305  28.688   1.747  25.925 -0.1570  0.1230 -0.2988
86253W        W29306  12.897  25.682  23.997  0.0560 -0.0468 -0.3486
86254W        W29307  12.722  30.458  26.485  0.0644 -0.0815 -0.0800
86255W        W29308  14.474  30.492  28.921 -0.1823 -0.1916  0.0868
86256W        W29309  17.144   7.546  25.387  0.0073  0.3249  0.1447
86257W        W29310  28.536  15.697  18.050 -0.2123 -0.0686  0.0832
86258W        W29311  18.828   4.593  26.194 -0.2925 -0.0075 -0.1363
86259W        W29312  15.374   2.715  22.356 -0.2410 -0.0317  0.0130
86260W        W29313   2.504   1.796  16.197  0.0312 -0.0206  0.1202
86261W        W29314   6.841  31.631   1.191  0.0548 -0.0340  0.4263
86262W        W29315  30.984  18.762  22.409  0.0952 -0.0096  0.2666
86263W        W29316   6.576  10.064  26.499  0.1156  0.1908  0.1509
86264W        W29317  18.883   9.558  21.609 -0.3620 -0.1199  0.0767
86265W        W29318  21.042  20.077  18.976  0.1430  0.0659  0.1837
86266W        W29319   2.271  12.548  17.368 -0.0325  0.0517 -0.1103
86267W        W29320  22.131  14.053  16.123  0.2153  0.1377 -0.1008
86268W        W29321  26.295  10.029   0.003  0.1409 -0.3738  0.1087
86269W        W29322  26.043   8.432  19.888 -0.0116 -0.2443 -0.0136
86270W        W29323  20.865  15.652  13.952  0.2363  0.1758 -0.2602
86271W        W29324  10.092   4.067  20.778 -0.2185 -0.1233  0.2246
86272W        W29325  27.918  11.210  14.958  0.3012  0.2322  0.0675
86273W        W29326  25.771   2.541  28.162 -0.2096  0.0617  0.1639
86274W        W29327  15.330  29.246   7.742 -0.3867  0.1858 -0.2905
86275W        W29328  17.656  13.400  14.484 -0.1147 -0.0809  0.1959
86276W        W29329   3.027   2.175   2.389  0.1515 -0.4569  0.0919
86277W        W29330  15.008   8.379  21.119  0.1882 -0.3936  0.0815
86278W        W29331  26.642  11.915  14.502 -0.1691 -0.0613  0.1467
86279W        W29332  13.258  23.923  14.099  0.0038  0.0747  0.1044
86280W        W29333  22.252  32.204  20.469  0.1545  0.3420 -0.0001
86281W        W29334  27.287  26.306  18.930  0.1637 -0.1199 -0.0472
86282W        W29335  17.860   7.188   1.355 -0.1728 -0.3038  0.2529
86283W        W29336  12.781  26.705  17.225 -0.0191  0.1303 -0.1086
86284W        W29337  15.462  32.236  20.602 -0.2236  0.0867  0.2239
86285W        W29338  18.926  31.058  17.789  0.0288  0.0095 -0.0151
86286W        W29339  28.269   8.004  26.046 -0.1263 -0.1430  0.4020
86287W        W29340  14.693   7.382   3.550 -0.0412 -0.1593 -0.4329
86288W        W29341  26.680   4.141  22.662  0.0875  0.1954  0.2892
86289W        W29342  22.756   9.538  15.025 -0.1544 -0.1245 -0.1019
86290W        W29343  11.828  16.105  15.742 -0.0921 -0.0097  0.1681
86291W        W29344  11.045  23.352  22.470 -0.0291  0.0391 -0.0998
86292W        W29345  31.691  10.485  18.021 -0.1233  0.0232 -0.3453
86293W        W29346  19.938   9.301  18.073  0.0242 -0.0202  0.4799
86294W        W29347  18.590   6.776   9.701 -0.3588 -0.0999  0.0924
86295W        W29348  24.389  12.666  19.755  0.0762 -0.0189 -0.3578
86296W        W29349  19.358   2.459  15.817  0.0351  0.5203 -0.0004
86297W        W29350   2.307  17.210  24.599 -0.0088 -0.0879 -0.0129
86298W        W29351  22.621  19.519  22.340  0.2841  0.0893  0.1122
86299W        W29352  14.597  11.636  23.121  0.2971 -0.1267 -0.0842
86300W        W29353   8.382   5.766  28.130 -0.1589  0.0947 -0.1791
86301W        W29354  27.755   3.809  17.243 -0.1427 -0.2285 -0.1508
86302W        W29355  18.712   3.436  14.843 -0.0053 -0.1868 -0.1658
86303W        W29356   6.833  31.395  13.570  0.0600  0.0707 -0.0160
86304W        W29357   1.357   9.925  13.587  0.1122  0.0279  0.0439
86305W        W29358  22.968  33.372  15.727 -0.1830  0.1067 -0.1197
86306W        W29359  22.415  31.528  19.251 -0.3999 -0.0279  0.1175
86307W        W29360  24.307  12.593  14.774 -0.2640  0.2850 -0.1319
86308W        W29361  20.954  13.557  16.024  0.5533  0.2171  0.2967
86309W        W29362   0.910   7.640  14.739 -0.0788 -0.5243 -0.0974
86310W        W29363   1.036  19.453  26.441  0.0516 -0.2290  0.4031
86311W        W29364  12.112   3.346  19.226  0.1063  0.1418  0.0663
86312W        W29365   7.471  30.870  19.777  0.0370  0.0588 -0.0778
86313W        W29366  14.243   1.131  18.708 -0.2392 -0.0160 -0.2144
86314W        W29367  21.374  18.321  18.397 -0.0456  0.3303  0.2902
86315W        W29368  20.777   3.329  22.471 -0.0669 -0.0364 -0.0840
86316W        W29369  23.961  29.365  15.896  0.2161 -0.0217 -0.2908
86317W        W29370   7.117   7.805  25.159  0.0558 -0.1014  0.1107
86318W        W29371  19.208   7.559  17.230 -0.0840 -0.0932  0.2223
86319W        W29372  11.152   3.848  22.036 -0.2846 -0.2259 -0.1373
86320W        W29373  27.476  14.779  15.235 -0.3017  0.0696  0.1443
86321W        W29374  22.422  25.399  15.293  0.2109  0.0517 -0.0593
86322W        W29375  21.794   4.385  15.814 -0.1618  0.0790 -0.0187
86323W        W29376  16.903  10.152  22.658  0.0990  0.1504 -0.0482
86324W        W29377  20.625   7.496  14.045  0.1194 -0.0945 -0.2466
86325W        W29378  12.346  32.600  21.590  0.2457  0.1785  0.0546
86326W        W29379  19.094  23.988  16.529 -0.1668  0.5778 -0.3464
86327W        W29380   5.085   1.144  15.902  0.0299 -0.2496 -0.1476
86328W        W29381  27.234  34.231  28.413  0.0083  0.3058  0.2070
86329W        W29382  21.557  18.705  15.861 -0.0823  0.0502 -0.1146
86330W        W29383   5.959   7.392  24.864  0.5032  0.2595  0.0484
86331W        W29384  19.784   8.889  18.318 -0.0673  0.2093  0.2288
86332W        W29385  18.907   9.498  18.016 -0.0028  0.1569  0.1649
86333W        W29386  19.764   3.354  19.821 -0.2208  0.1330  0.0812
86334W        W29387  14.854  30.908  22.337 -0.2819 -0.2577  0.1793
86335W        W29388  12.775  10.523  22.251 -0.3253 -0.0745 -0.0484
86336W        W29389  26.956   8.944  20.667 -0.3338 -0.2135  0.2732
86337W        W29390  11.463  14.929  15.976  0.1107  0.3274 -0.3188
86338W        W29391  27.670   9.490  28.318 -0.0044 -0.0286 -0.0508
86339W        W29392  19.302  14.018   0.114 -0.1464 -0.3854 -0.2875
86340W        W29393  27.683  16.808  25.633 -0.0685 -0.2361  0.2233
86341W        W29394  28.521   2.437   0.525  0.3594  0.0834 -0.1268
86342W        W29395  28.628   6.182  21.040 -0.3426  0.0151  0.1748
86343W        W29396  15.188   3.658  25.170 -0.1910  0.1331 -0.0408
86344W        W29397  12.996   6.375  22.731 -0.1931 -0.3438 -0.0749
86345W        W29398  23.118   5.496  25.426 -0.0861 -0.0915 -0.3338
86346W        W29399  11.888  16.520  15.398  0.1813  0.0692  0.0931
86347W        W29400  21.710   0.040  28.312 -0.2794  0.2201  0.0623
86348W        W29401  21.972  12.279  21.243  0.1200 -0.0592 -0.0873
86349W        W29402  11.277  18.015  18.371  0.3438  0.2956  0.1064
86350W        W29403  15.625  12.576  27.104 -0.1668 -0.4988  0.0338
86351W        W29404  23.651  32.988  23.539 -0.3824  0.2367  0.0935
86352W        W29405  30.961  12.752   3.293 -0.0004  0.0512 -0.1138
86353W        W29406  20.054  32.322  18.345  0.2846 -0.0610  0.0797
86354W        W29407  21.693  12.060  23.102 -0.0784 -0.1397  0.2262
86355W        W29408  16.301  13.063  21.669  0.0415  0.0247  0.4697
86356W        W29409  23.101   6.314   0.815 -0.0701 -0.1068 -0.3099
86357W        W29410  20.487  11.000  21.904 -0.1175 -0.1262 -0.1000
86358W        W29411   1.951  14.906  18.108 -0.0301  0.1448 -0.2566
86359W        W29412  31.912   8.387  20.666 -0.0239 -0.0168 -0.0490
86360W        W29413  33.173  10.852  15.084  0.2460  0.1906 -0.0241
86361W        W29414  16.986  14.781  24.376  0.0337  0.0233 -0.0424
86362W        W29415  10.444   4.723  15.655  0.1127 -0.0289  0.1796
86363W        W29416  16.802   5.182  18.228 -0.0894 -0.1756  0.0207
86364W        W29417  15.202  15.074   0.717 -0.0415  0.2861  0.1213
86365W        W29418  22.776  15.545  14.462  0.1775 -0.0717  0.0908
86366W        W29419  24.165  27.389  22.595  0.4137 -0.2658  0.0360
86367W        W29420  23.973  32.927  24.260 -0.0717  0.0920 -0.2236
86368W        W29421   7.757   6.637  20.474  0.0573 -0.0406 -0.1468
86369W        W29422  21.037  12.038  26.593 -0.1488 -0.0870  0.5177
86370W        W29423  24.096  12.455  18.280 -0.0705 -0.0699  0.0399
86371W        W29424  20.240  32.315  26.341 -0.0046  0.2750 -0.0003
86372W        W29425  11.375  20.926  24.549 -0.0064 -0.1846  0.0418
86373W        W29426  21.896   3.259  25.931 -0.0491 -0.2064 -0.2531
86374W        W29427  14.441   9.653  18.260  0.1001 -0.0019 -0.2177
86375W        W29428  17.729  30.807   0.967  0.1317 -0.0701 -0.0612
86376W        W29429  14.873  24.376  15.178  0.0814 -0.1786  0.1816
86377W        W29430  28.115   5.958  18.751 -0.2414 -0.2157 -0.3596
86378W        W29431  12.699  15.449  14.821  0.2734  0.0623 -0.1354
86379W        W29432   9.443   7.815  27.288 -0.1055  0.4511  0.0774
86380W        W29433  33.847   2.748  20.997  0.1059 -0.3571  0.0532
86381W        W29434  22.138  32.116  14.446 -0.0839  0.1995  0.3081
86382W        W29435  24.721   3.290  15.859  0.1475  0.0997  0.2397
86383W        W29436  25.808  11.891  19.580 -0.2802 -0.1641 -0.0349
86384W        W29437  11.633  12.890  17.713 -0.0090  0.0639  0.0684
86385W        W29438  27.221  18.286   1.588 -0.2340 -0.1224  0.4442
86386W        W29439   3.855  32.360  25.547 -0.1697  0.0043  0.2182
86387W        W29440   5.490   6.554   2.157 -0.0440 -0.0869 -0.3173
86388W        W29441  15.467   2.174   3.664  0.1345  0.1182  0.0228
86389W        W29442  16.489   0.359  24.462 -0.1826 -0.0723 -0.0071
86390W        W29443   3.946  34.025  21.511  0.0698 -0.0788 -0.0740
86391W        W29444  10.156   7.366  23.970 -0.2143 -0.1332  0.0117
86392W        W29445  20.921   0.597   2.659  0.4308 -0.1430  0.1504
86393W        W29446  15.202   8.169  26.510  0.4289  0.3900 -0.0562
86394W        W29447  25.802  10.792  20.457  0.1546 -0.0104 -0.0569
86395W        W29448  21.781   7.496   1.949  0.1122  0.1551 -0.3498
86396W        W29449  28.508  12.828  21.355  0.0713  0.1353 -0.3659
86397W        W29450  26.838   9.935  23.671  0.1008  0.0581 -0.1410
86398W        W29451  27.584   4.380   3.064 -0.1441 -0.0859  0.1529
86399W        W29452  12.441  21.063  14.134  0.0006 -0.0849  0.1460
86400W        W29453   4.779   9.854  26.558  0.0535  0.2454  0.1653
86401W        W29454  19.823  23.205  18.033  0.0892  0.1266  0.0584
86402W        W29455  22.787   7.766  15.836  0.0645  0.1071 -0.1807
86403W        W29456  29.213   5.289  18.451 -0.0324 -0.1616 -0.1633
86404W        W29457  18.806  31.956   0.555  0.1948  0.0929  0.1203
86405W        W29458  26.646   1.952  21.619  0.0356 -0.2333  0.5229
86406W        W29459  14.064  25.751  24.943  0.1012 -0.1279 -0.0452
86407W        W29460  10.471  24.015  17.054  0.2079 -0.1181 -0.3116
86408W        W29461  23.379  18.770  16.957 -0.0196 -0.0089 -0.2225
86409W        W29462  17.907  17.867   4.572  0.0798  0.0643 -0.0114
86410W        W29463  23.468   8.179  23.575 -0.5268  0.2196 -0.1183
86411W        W29464  11.946   1.747  22.205 -0.0541  0.1438  0.0625
86412W        W29465  28.260   2.120  20.066  0.0276  0.1344  0.4682
86413W        W29466  21.646  16.178  13.464 -0.2280 -0.0750  0.1136
86414W        W29467  28.540  15.338  18.422  0.3475  0.0253 -0.0580
86415W        W29468  20.249  31.672  16.712  0.3147 -0.0260 -0.2053
86416W        W29469  18.577   6.829  15.939 -0.2469  0.1180 -0.0968
86417W        W29470  20.783  18.844   1.777  0.0714 -0.2854 -0.0068
86418W        W29471  29.037   2.941  25.766  0.0843  0.0788  0.0522
86419W        W29472  18.281   9.205  15.951  0.1204 -0.0989  0.1203
86420W        W29473   5.230  26.623  16.558 -0.2376  0.3153  0.1747
86421W        W29474  17.895  26.155   1.804  0.0332 -0.1377 -0.3336
86422W        W29475   5.981  32.027  19.810 -0.2734  0.0676  0.2407
86423W        W29476  11.412   9.411  28.061 -0.2754  0.0104  0.4564
86424W        W29477  22.780  15.388  22.242 -0.1429 -0.0193  0.4733
86425W        W29478   7.996   9.903  19.196  0.1549  0.2756 -0.1768
86426W        W29479   2.738   2.427  19.265 -0.0572  0.0024  0.0658
86427W        W29480  13.220   9.687  24.830 -0.0843  0.5040 -0.1944
86428W        W29481  13.907  11.846  14.344  0.0500 -0.0675  0.1545
86429W        W29482  11.354   9.377   0.680  0.3166 -0.1217  0.1134
86430W        W29483  21.187  32.853  19.418 -0.1537 -0.1885  0.0282
86431W        W29484  21.330  20.438  19.928 -0.0003  0.1145 -0.4633
86432W        W29485  18.136  11.641  24.832  0.0254  0.2183  0.2589
86433W        W29486  33.133  18.881   2.294  0.0425 -0.5394  0.0400
86434W        W29487  20.308  25.839  26.487 -0.2104  0.1474  0.2919
86435W        W29488  20.951  23.999  22.086  0.0730 -0.1883 -0.1883
86436W        W29489  22.741  33.333  16.942  0.4686  0.0111  0.1624
86437W        W29490  19.995  13.611   0.573  0.1869  0.1533 -0.1086
86438W        W29491  16.553   4.700  14.374  0.0874 -0.1279 -0.4237
86439W        W29492  14.242  32.859  26.241  0.4938 -0.0952 -0.1748
86440W        W29493   1.771   9.142  17.004  0.3339  0.1303  0.0814
86441W        W29494  24.283  12.683   3.672 -0.2970 -0.0475 -0.0254
86442W        W29495   4.585  12.152  19.238 -0.2034  0.3040 -0.2277
86443W        W29496  26.019  10.374  15.320 -0.3037  0.1965 -0.0099
86444W        W29497  12.529  12.100  18.753 -0.0502 -0.2198 -0.0710
86445W        W29498  27.499   8.841  27.528 -0.2228 -0.0052 -0.1812
86446W        W29499  19.142   4.269   2.713 -0.0168  0.0043  0.0057
86447W        W29500   8.138  10.625   4.146 -0.2120 -0.1075 -0.2107
86448W        W29501  17.537  16.162   1.685 -0.3604 -0.2578 -0.0432
86449W        W29502  23.474   7.072   0.194 -0.2205  0.1852 -0.1442
86450W        W29503  33.114   4.895   2.033  0.2316  0.1165  0.0240
86451W        W29504   5.649  22.572  20.528  0.0510 -0.4367 -0.1735
86452W        W29505  31.222  16.496   1.974  0.2201 -0.1345 -0.0100
86453W        W29506  28.031  27.021  14.445 -0.2311 -0.0693 -0.3607
86454W        W29507  29.009   6.375  15.495  0.0673  0.3895 -0.2737
86455W        W29508  29.884   3.144  24.156  0.2251  0.1785  0.0507
86456W        W29509  28.851  34.275  16.762  0.1596 -0.1851 -0.0184
86457W        W29510  29.939  11.405  18.812 -0.0150 -0.1908 -0.0471
86458W        W29511  15.708  11.039  18.579 -0.0531  0.2290  0.0059
86459W        W29512  33.141  12.599  17.961 -0.0164  0.2924 -0.0640
86460W        W29513  20.667  31.518  23.587  0.2130  0.0514 -0.2118
86461W        W29514  20.149   5.803  18.227  0.0324 -0.3437 -0.6381
86462W        W29515  15.542  13.663  24.872  0.2297 -0.1639  0.2484
86463W        W29516  14.808  13.503  13.909 -0.3252  0.0870 -0.1439
86464W        W29517  16.180   1.462   5.445  0.0854 -0.1444 -0.0786
86465W        W29518  30.095   3.451  15.099  0.2693  0.0288  0.2274
86466W        W29519  30.626   0.791  20.922  0.0945 -0.1009 -0.1065
86467W        W29520  24.674  32.447   0.301 -0.1694  0.0699  0.1331
86468W        W29521  10.766  33.699  18.024  0.0559  0.0969 -0.3239
86469W        W29522  30.571  14.822  16.914  0.0062  0.0340  0.0656
86470W        W29523  18.018  31.651   4.067 -0.1418 -0.0553  0.1567
86471W        W29524  20.157  22.071   0.669  0.1479 -0.3137 -0.0089
86472W        W29525  30.590  20.006  19.999 -0.0706  0.3280  0.1522
86473W        W29526   3.155  14.539  16.916 -0.3011 -0.1237 -0.2085
86474W        W29527  10.667  18.808  22.167  0.3033  0.3762 -0.1838
86475W        W29528  10.195  18.076   0.953  0.1207 -0.0035 -0.0030
86476W        W29529  25.257  23.168  14.545  0.0347 -0.0761  0.2213
86477W        W29530  34.329   6.855  22.072 -0.1663 -0.0000  0.1055
86478W        W29531  25.908  32.781  15.279  0.0534  0.0480 -0.1265
86479W        W29532   8.209   8.649  28.975 -0.2785  0.1736  0.2596
86480W        W29533  32.137  24.969  28.102  0.1978 -0.0261 -0.0890
86481W        W29534  13.840  22.269   4.068 -0.2265  0.0610  0.0264
86482W        W29535  31.149   2.744  19.234  0.0461  0.2649 -0.3659
86483W        W29536   1.229  30.288  28.931 -0.2218 -0.1399  0.1049
86484W        W29537  23.878  19.348  23.619 -0.1331  0.0797  0.5383
86485W        W29538  33.759  16.794  26.195  0.1337  0.0960  0.0792
86486W        W29539  21.190   7.861  17.659  0.0581  0.0944 -0.1073
86487W        W29540   0.913  13.149  25.502  0.2014 -0.1414 -0.0430
86488W        W29541  21.701   6.922  17.810 -0.1612  0.1216 -0.1093
86489W        W29542   5.844   6.423  17.698  0.0173  0.0060 -0.3129
86490W        W29543  27.356   9.955  19.461 -0.1612 -0.3454 -0.0375
86491W        W29544  28.609  18.167   2.782  0.1307 -0.1916  0.3647
86492W        W29545  20.712  31.085  22.699  0.1886 -0.0173 -0.0805
86493W        W29546   2.451   5.962  19.399 -0.3094 -0.2496 -0.2940
86494W        W29547   9.814   4.704  16.518  0.0429  0.0645  0.0167
86495W        W29548   8.845  30.503  26.775  0.0487 -0.3423  0.0867
86496W        W29549  28.051   9.799  20.289  0.0459  0.0724  0.1114
86497W        W29550  15.038   8.095  25.825 -0.0920 -0.0047  0.1835
86498W        W29551  15.618   8.783   1.844 -0.0176  0.2976 -0.4206
86499W        W29552  18.647   8.215   3.279  0.0566 -0.2077  0.5120
86500W        W29553  17.629  18.631  12.947  0.1893 -0.0910 -0.1153
86501W        W29554  19.856  33.130  24.834  0.3179 -0.0351  0.1071
86502W        W29555  32.304  31.176  28.218  0.1930 -0.1671 -0.1242
86503W        W29556   0.316  34.216  22.718 -0.1498 -0.1116  0.2663
86504W        W29557  13.786  13.550   2.807  0.1466 -0.0435  0.2506
86505W        W29558   9.969  23.379  26.395  0.0761 -0.0044  0.0882
86506W        W29559  20.861   7.318  14.494  0.2106 -0.1310  0.0682
86507W        W29560  23.642  17.397  13.823  0.1965 -0.0254 -0.1312
86508W        W29561   0.475  10.580  21.073  0.1261  0.0166  0.0947
86509W        W29562  24.402  34.448  17.089 -0.0792  0.1386  0.1155
86510W        W29563   6.597   5.054  24.233 -0.1857  0.2331  0.2108
86511W        W29564  23.495   6.686  22.597 -0.0129 -0.0421  0.0835
86512W        W29565  26.881  32.069  20.683  0.0192 -0.3151  0.3118
86513W        W29566  21.202   5.241  21.120  0.0645 -0.0568 -0.0043
86514W        W29567  28.673   2.687  14.453 -0.1147  0.0798  0.1302
86515W        W29568   9.843  26.236  15.754  0.1108 -0.1738  0.2576
86516W        W29569  31.178  33.603  14.042 -0.0732  0.0939 -0.0043
86517W        W29570  20.698  20.532  14.944 -0.0334  0.0177 -0.1254
86518W        W29571   9.566   6.107  17.315  0.3240 -0.2799  0.1177
86519W        W29572  14.362  26.319  18.724  0.0392 -0.3348  0.2839
86520W        W29573   5.537  31.461  22.513 -0.2045  0.3822  0.2175
86521W        W29574   0.211  20.746  23.998  0.0534  0.2422 -0.2394
86522W        W29575  25.410  34.002   1.057 -0.1097 -0.2333 -0.2392
86523W        W29576   4.618   6.045  20.230  0.0534  0.2123 -0.2409
86524W        W29577  15.602  16.704   7.627 -0.4149 -0.1176 -0.2874
86525W        W29578  14.822  20.202   0.243  0.0941 -0.0376  0.4150
86526W        W29579  25.377   9.577  19.434 -0.1399 -0.0030 -0.0139
86527W        W29580  16.943   6.618  28.083 -0.2024  0.2755  0.1912
86528W        W29581  13.108   8.812  22.384  0.0847 -0.1674  0.0625
86529W        W29582  13.185  29.657  14.833  0.2016 -0.1097  0.1112
86530W        W29583  16.982  14.232  15.256 -0.0028  0.0514 -0.0163
86531W        W29584  17.376  22.134  22.713  0.4055  0.3543  0.0138
86532W        W29585  12.203  24.495   3.187 -0.0679  0.6251  0.1590
86533W        W29586  25.344   0.625   1.381 -0.1755  0.2799  0.0527
86534W        W29587  32.681   2.946  19.989  0.0932 -0.0659  0.1389
86535W        W29588  17.645   2.854  19.663  0.1544 -0.0673  0.1011
86536W        W29589  22.523  32.299  15.981  0.0809  0.1533 -0.1240
86537W        W29590   9.338   3.847  16.370 -0.1408  0.0378  0.0923
86538W        W29591  16.268  34.276  19.934 -0.3065 -0.1234  0.1569
86539W        W29592  25.314   3.712  16.619  0.1253  0.2872  0.0094
86540W        W29593  18.575  12.554  22.281 -0.3896 -0.0916  0.1247
86541W        W29594  30.838  12.695   7.355  0.0469 -0.3355  0.2785
86542W        W29595  21.103  22.684  18.021 -0.1159 -0.1112 -0.3600
86543W        W29596  17.477  11.441  17.415  0.1373 -0.1977 -0.0455
86544W        W29597  33.161   5.089   6.477 -0.0784 -0.0808  0.1878
86545W        W29598   5.545   0.983  23.084 -0.1679 -0.2558 -0.0783
86546W        W29599  10.166  13.717  15.020  0.0219 -0.0283 -0.0054
86547W        W29600  23.984  18.724  16.804 -0.0010  0.0083 -0.0152
86548W        W29601  22.603   1.773  16.839  0.1588  0.1279 -0.1620
86549W        W29602  25.402   4.286  14.950 -0.1864 -0.1308  0.2971
86550W        W29603   7.719  27.987  18.336 -0.2288  0.2646  0.1671
86551W        W29604  21.981  12.855  26.383  0.3733  0.1370 -0.2763
86552W        W29605  30.287  33.723  17.822  0.1950  0.0128 -0.2944
86553W        W29606  24.572  20.422  24.452  0.0377  0.0448 -0.0814
86554W        W29607  11.744  13.044  25.080  0.0401  0.1018  0.0127
86555W        W29608  32.133  10.744   2.734  0.2985 -0.1108  0.0857
86556W        W29609  16.647  34.310   0.338  0.0392 -0.1304  0.3081
86557W        W29610  33.130  18.866  16.285  0.2357  0.1554  0.0821
86558W        W29611  24.282  12.920  25.481  0.0722  0.3194  0.1960
86559W        W29612  27.012  15.832  19.913  0.1001  0.0797  0.0416
86560W        W29613  22.112  34.609  27.450 -0.0186  0.0009  0.0790
86561W        W29614  20.930  22.569  26.623 -0.0536  0.1352 -0.1105
86562W        W29615  22.931  15.882  19.357 -0.0808  0.1546  0.1585
86563W        W29616  14.970   0.103  22.282  0.3630  0.4223 -0.0258
86564W        W29617  16.511  11.093  23.745 -0.2085  0.1353  0.2395
86565W        W29618  14.010  13.754  21.320  0.4091 -0.2417 -0.0458
86566W        W29619  24.782  23.443  18.961  0.1063 -0.3257 -0.0927
86567W        W29620  18.683   7.273   6.142 -0.0904  0.4257 -0.5611
86568W        W29621  15.010  28.273  15.034  0.0316 -0.0715 -0.0138
86569W        W29622  18.890   2.525  18.421  0.0188  0.3685  0.0418
86570W        W29623   8.423   8.150  28.920 -0.3171 -0.2216 -0.1407
86571W        W29624  30.363   5.216  20.527  0.0760 -0.1424  0.4410
86572W        W29625  28.217   1.976  19.312  0.0963 -0.0631  0.4254
86573W        W29626  30.713   5.207  17.416  0.0487  0.1038  0.0888
86574W        W29627  23.674   4.839  27.793  0.0224 -0.0826 -0.0844
86575W        W29628  11.096   3.505  22.925  0.1078  0.2310  0.1975
86576W        W29629  12.219  23.323  17.461 -0.0549 -0.1459  0.0865
86577W        W29630  22.029  24.925  23.221  0.0373 -0.1491 -0.0368
86578W        W29631  25.454  33.912  16.367  0.0604 -0.0883  0.1233
86579W        W29632  15.359  12.592  22.549  0.1742  0.1140  0.0523
86580W        W29633  18.256   1.268   2.484 -0.2763 -0.2624 -0.2433
86581W        W29634  31.983   9.630  15.302  0.0423  0.0626 -0.2259
86582W        W29635  28.094   9.404  15.815 -0.0573  0.1929 -0.1472
86583W        W29636  18.144  18.202  23.474  0.1767 -0.2154 -0.5934
86584W        W29637  16.150   6.862  27.793  0.2985 -0.1725  0.0491
86585W        W29638  18.961  15.008  21.822 -0.0857 -0.2949  0.0278
86586W        W29639  29.291  18.801  19.504  0.0408 -0.2604 -0.0106
86587W        W29640  24.431  19.345  14.540 -0.0184  0.1871 -0.1481
86588W        W29641  16.607  15.763  12.889  0.1004 -0.2052  0.2084
86589W        W29642  26.408  30.869   0.006 -0.0304 -0.1677  0.0167
86590W        W29643  28.162  33.700  23.717  0.1833 -0.1083  0.0871
86591W        W29644  15.978  21.308  27.472 -0.0186 -0.1210  0.1758
86592W        W29645  11.482  12.546  16.654  0.1970 -0.6539  0.2208
86593W        W29646  28.299  20.068  27.720 -0.0320 -0.0406 -0.2805
86594W        W29647  11.799  10.014  19.911 -0.1878 -0.1673 -0.0696
86595W        W29648  33.063  13.724  14.041  0.0780 -0.2019  0.3699
86596W        W29649  12.708   7.860  22.528  0.0059  0.2432  0.0308
86597W        W29650  28.267  15.285  16.703 -0.0693  0.3238 -0.1606
86598W        W29651  21.192   8.670  19.872 -0.1179  0.3154  0.0657
86599W        W29652  16.992  12.476  29.091  0.1376 -0.0814 -0.1513
86600W        W29653  17.424   0.982   4.725 -0.3581 -0.3245 -0.2703
86601W        W29654  27.379   1.893  26.174 -0.0599  0.3725  0.2232
86602W        W29655  17.894   5.459  24.676  0.1206 -0.2904 -0.0651
86603W        W29656  22.574  19.102  20.276 -0.0994  0.0480  0.0171
86604W        W29657  26.752   5.419  22.352  0.0220  0.0565  0.4027
86605W        W29658  33.972  19.100  28.551 -0.1471 -0.0184 -0.2246
86606W        W29659  26.443   8.915  26.860 -0.1381 -0.0664 -0.2643
86607W        W29660   4.999   8.662  19.306  0.0356 -0.0609  0.2507
86608W        W29661  25.864   4.211  22.749 -0.1132 -0.0540  0.2243
86609W        W29662  20.420  16.293  14.495  0.0447  0.1389  0.2257
86610W        W29663   3.164  17.198  23.728 -0.3518  0.0530  0.0925
86611W        W29664  10.230   9.376   9.631  0.1119  0.0474 -0.1896
86612W        W29665  12.491  29.746  25.692  0.3249 -0.1791 -0.2578
86613W        W29666   5.333  12.584  26.764  0.0374  0.1289 -0.1772
86614W        W29667  12.382  11.716  19.055 -0.0273 -0.1517 -0.1559
86615W        W29668  31.504  14.520  20.897 -0.1802  0.1253  0.2044
86616W        W29669  14.362   6.060  20.023  0.1276 -0.0747  0.1903
86617W        W29670   8.342  19.410  20.857 -0.0898 -0.3358  0.1507
86618W        W29671   8.189  18.717  15.022  0.2145 -0.4266 -0.3184
86619W        W29672  22.455  18.152  28.832  0.0264  0.0656 -0.0293
86620W        W29673  22.953  34.467  21.822 -0.0364 -0.0095 -0.1371
86621W        W29674   7.401  22.754  18.069  0.0733 -0.0016  0.2617
86622W        W29675   3.572   5.686  24.612 -0.2457  0.1894 -0.0930
86623W        W29676   3.324  15.003   4.660 -0.1981 -0.2385 -0.0253
86624W        W29677  19.020   3.799  15.993  0.2307  0.0471 -0.1366
86625W        W29678  27.426  17.159  20.489 -0.1786 -0.1060 -0.1726
86626W        W29679  26.061   0.923  25.452 -0.1749 -0.1756 -0.1792
86627W        W29680  22.164  15.914  27.754  0.0728  0.0085  0.1284
86628W        W29681  17.369  34.486  15.612  0.1535 -0.1867  0.1936
86629W        W29682  23.490   1.676  22.174  0.1439  0.0679 -0.0118
86630W        W29683  21.810   0.219   0.785  0.2861 -0.1279 -0.0662
86631W        W29684  18.369   6.550  14.998  0.0756  0.2540  0.2246
86632W        W29685  26.250   3.613   7.889  0.0044  0.0164 -0.1142
86633W        W29686  26.163  14.312  19.146 -0.0132  0.1351  0.2059
86634W        W29687  22.059   1.076  22.419 -0.0145  0.1943  0.2491
86635W        W29688  30.144  16.664  27.311 -0.2468  0.3204  0.1359
86636W        W29689  17.503  12.286  17.665 -0.1150 -0.0578  0.1657
86637W        W29690  32.867  31.716  22.461  0.2065 -0.1424 -0.0532
86638W        W29691   4.560   5.882  14.602 -0.1244  0.1885 -0.5271
86639W        W29692   5.530  15.200  15.014  0.0319 -0.1338 -0.0741
86640W        W29693  21.164   2.073  19.738 -0.1732  0.0210  0.1920
86641W        W29694  18.747  29.481  17.159  0.0550  0.4162 -0.0761
86642W        W29695  23.894   7.244  21.390  0.1873  0.0227  0.0930
86643W        W29696  15.880  31.280  15.320  0.2037 -0.0035 -0.0962
86644W        W29697   9.265  20.447  15.065  0.1608  0.0808  0.1424
86645W        W29698  25.307  19.415  27.561  0.1281  0.2204 -0.1465
86646W        W29699   8.911  27.303   1.663 -0.0086  0.2065 -0.3639
86647W        W29700  28.770   7.347  15.805  0.1054  0.1285 -0.1142
86648W        W29701  11.592  12.376   1.452  0.2110 -0.2309 -0.0467
86649W        W29702   8.591  21.788  14.837 -0.0218  0.1492 -0.0675
86650W        W29703  18.206  30.876  21.309 -0.0659  0.1952  0.1417
86651W        W29704  12.953  19.473  19.252 -0.2863  0.3914 -0.1159
86652W        W29705  32.842  21.258  28.980 -0.1611 -0.1867  0.2615
86653W        W29706  15.296   4.035  21.235 -0.1249 -0.1990  0.1622
86654W        W29707   5.122   5.607   3.969 -0.2951  0.0311  0.3291
86655W        W29708   6.158   3.795  22.100 -0.0490  0.3876 -0.0428
86656W        W29709  25.870  12.125   9.137 -0.1748  0.3989  0.0110
86657W        W29710  27.271  17.943  17.374 -0.1400  0.0227  0.0147
86658W        W29711   5.588   6.338  15.843  0.0523  0.2357  0.1237
86659W        W29712  24.159   1.296   0.154  0.2292  0.1460 -0.0301
86660W        W29713  26.270  15.802  15.670 -0.0948 -0.4275 -0.0929
86661W        W29714  11.810  26.493  27.261 -0.1464  0.1760 -0.0721
86662W        W29715   8.688   9.038  21.171 -0.1979 -0.0063 -0.0701
86663W        W29716  21.377   7.214  18.087  0.0293  0.1723 -0.1590
86664W        W29717  10.656   2.524  14.531 -0.0819 -0.0882  0.1839
86665W        W29718  14.015  12.149  15.446  0.0373 -0.3133 -0.0767
86666W        W29719  21.007  15.336  13.309 -0.0911 -0.2022  0.2861
86667W        W29720  19.387   5.904  22.601  0.0065 -0.2325  0.0309
86668W        W29721  20.844   4.519  24.389 -0.0614  0.0299 -0.0906
86669W        W29722  15.904  19.442  28.805  0.0295  0.1770  0.1393
86670W        W29723  26.502  22.573  14.721  0.2227 -0.0714  0.0534
86671W        W29724  24.132  23.494  21.191 -0.3318 -0.0597 -0.0536
86672W        W29725  33.955   0.718  14.076 -0.2771  0.1571 -0.3518
86673W        W29726  16.323  17.691  14.088  0.1037  0.0314  0.1937
86674W        W29727  14.369   0.865   5.120 -0.2047  0.1932  0.0016
86675W        W29728  19.120   5.454   4.105 -0.0253 -0.1084 -0.0619
86676W        W29729  22.845  15.276  14.037  0.0212 -0.0022  0.3610
86677W        W29730  17.673   3.294  19.890  0.0053  0.3239 -0.0579
86678W        W29731  22.500   6.130  21.804  0.2739 -0.1192  0.0211
86679W        W29732  28.225  12.601  24.812 -0.4043  0.0857  0.1854
86680W        W29733  20.623   6.135  28.145 -0.1089  0.1509 -0.2662
86681W        W29734  32.430   4.021  20.095  0.3526 -0.0576 -0.2607
86682W        W29735  30.563  33.650  19.671  0.3423  0.2884  0.0219
86683W        W29736  19.641   3.339  26.338 -0.1068  0.2809 -0.1251
86684W        W29737  29.437   7.656  22.340 -0.5167  0.3310  0.0354
86685W        W29738  26.423  30.043  27.966 -0.4624 -0.0801 -0.0866
86686W        W29739  15.903   7.605  27.979 -0.1458 -0.0715  0.0446
86687W        W29740  14.697   2.674   2.438 -0.2604 -0.0267  0.3347
86688W        W29741  29.365  32.401   3.632 -0.1644  0.0517  0.2608
86689W        W29742  20.249   5.293  22.217  0.0355  0.0444  0.0394
86690W        W29743   9.270  14.466   6.225  0.0120 -0.0738  0.2406
86691W        W29744  28.260  13.199  29.093 -0.1632 -0.0413 -0.0507
86692W        W29745  24.348  28.207  14.888 -0.2847 -0.0881 -0.0189
86693W        W29746  21.004   3.778  15.909  0.0462  0.0521 -0.0221
86694W        W29747  23.969  30.941   5.279 -0.3741 -0.1051 -0.0830
86695W        W29748  27.860  18.752  14.506 -0.1491 -0.2327 -0.2827
86696W        W29749  13.866  14.875  17.050  0.1751 -0.1085  0.0577
86697W        W29750  13.131  15.157   1.327 -0.2319  0.1633 -0.0813
86698W        W29751  17.076  26.793  26.214  0.2086  0.0151 -0.1294
86699W        W29752  23.036  21.117  16.790  0.0977  0.1854 -0.0616
86700W        W29753   9.705   8.508  22.136 -0.2123 -0.1637  0.0963
86701W        W29754   4.187  10.287  19.775  0.0714  0.0356  0.1604
86702W        W29755  25.287  27.742  16.501 -0.2093 -0.0524  0.0931
86703W        W29756  18.107   9.828  14.218  0.0290 -0.2874  0.2720
86704W        W29757  25.206   9.121  21.184 -0.2081  0.0917 -0.0761
86705W        W29758  25.030  33.130   5.022  0.1084  0.2294 -0.0977
86706W        W29759  13.213   4.865  16.757  0.3029 -0.1171  0.4023
86707W        W29760  30.583  17.553   5.832 -0.5684  0.0155 -0.3247
86708W        W29761  27.999   5.662  17.695  0.0674 -0.2009  0.3661
86709W        W29762   0.035  26.032  19.370 -0.1634 -0.0640  0.0765
86710W        W29763  19.841  11.348  24.105 -0.1174 -0.0183  0.0308
86711W        W29764  22.248  26.824   2.187 -0.1778 -0.0141  0.1769
86712W        W29765  25.693   6.986  18.897  0.0789  0.1305  0.0457
86713W        W29766  13.603  34.169  19.564  0.2967  0.4308  0.1024
86714W        W29767  26.133  12.421  20.242  0.1366 -0.1648  0.4828
86715W        W29768  16.989  25.195  22.308 -0.2988  0.1811  0.1609
86716W        W29769  27.090  13.900   4.925 -0.0547 -0.0333 -0.0957
86717W        W29770  10.713  29.261  14.310 -0.0372  0.0667  0.2015
86718W        W29771  23.538   7.408  21.022 -0.3589  0.1878 -0.1718
86719W        W29772  24.283  15.023  13.864 -0.0562 -0.0910 -0.0729
86720W        W29773  20.146  10.202   5.586 -0.0865 -0.0858  0.0315
86721W        W29774   4.974  33.075   1.603 -0.0727 -0.0548 -0.3637
86722W        W29775  11.660   4.933  19.555 -0.1797 -0.3593 -0.0959
86723W        W29776   6.210   5.098  14.304  0.0456  0.0762  0.0115
86724W        W29777   4.660   3.831  18.178  0.0813  0.3739  0.2162
86725W        W29778  23.792  27.802   6.575  0.1844 -0.0786  0.0559
86726W        W29779  32.534   9.997  14.652  0.2366  0.1534  0.0359
86727W        W29780  20.671  20.202  29.194 -0.0410 -0.1165  0.1033
86728W        W29781  17.009  22.294  24.224  0.3252  0.0977  0.0860
86729W        W29782  29.249  13.479  25.731  0.1481  0.4052 -0.1630
86730W        W29783  26.662   1.012   1.394  0.2574 -0.4157  0.0595
86731W        W29784  14.236  10.375  28.874 -0.2436 -0.1432 -0.2241
86732W        W29785  25.303  12.578  21.670 -0.0673 -0.0426  0.1041
86733W        W29786  15.787  28.796  28.747 -0.1861  0.3367  0.1250
86734W        W29787  13.247  17.034  15.510 -0.0512 -0.1536 -0.2042
86735W        W29788  13.978  34.678  24.392 -0.1792 -0.1863 -0.0958
86736W        W29789  30.558  15.281  18.340  0.0319 -0.1235 -0.2177
86737W        W29790  13.286  10.149  15.763 -0.1699  0.0419 -0.0549
86738W        W29791  34.657   1.185  18.894  0.1504  0.1508 -0.2163
86739W        W29792  17.519  11.855  29.147 -0.0890  0.2589 -0.2182
86740W        W29793  21.807   7.877  21.166 -0.0604  0.1098  0.1759
86741W        W29794  15.862   9.761  19.929  0.3221 -0.0606  0.0102
86742W        W29795  25.054  15.532  20.540  0.1066  0.1127  0.2639
86743W        W29796  18.365   2.884  22.999 -0.0934 -0.0249  0.0596
86744W        W29797  20.290  33.080  24.992  0.1687  0.0462  0.0260
86745W        W29798  27.264   6.649  15.247  0.1716  0.1288  0.1533
86746W        W29799  30.174  33.710  20.546 -0.2312  0.0219 -0.1405
86747W        W29800  17.713  14.960   2.574 -0.0090 -0.2361 -0.0825
86748W        W29801  14.580  28.260  24.386 -0.0803  0.1055  0.2087
86749W        W29802  18.829   0.499  16.217  0.1529 -0.1001  0.2631
86750W        W29803  24.222  15.934  14.992  0.0977  0.3381  0.2171
86751W        W29804  31.708  23.784  22.375 -0.1004 -0.1977 -0.1555
86752W        W29805  21.974   0.054  21.019 -0.1384 -0.1288  0.3713
86753W        W29806  33.599  33.798   2.527  0.1802  0.0798 -0.3847
86754W        W29807  10.844  12.399  23.640 -0.2746 -0.2750  0.2096
86755W        W29808  19.000  29.905  28.150 -0.0385 -0.0622  0.0069
86756W        W29809   2.896  31.279  26.481  0.1730  0.3380  0.1203
86757W        W29810   0.981  18.677  22.632  0.0266  0.1818  0.0334
86758W        W29811  16.365   5.296  18.449 -0.0290  0.2769 -0.0726
86759W        W29812  30.949  20.938  20.137 -0.1245 -0.2808  0.0286
86760W        W29813  10.723  15.730  20.872  0.3275  0.3612  0.1963
86761W        W29814  21.996  19.145  21.131 -0.1106  0.1715  0.1139
86762W        W29815   5.616   2.242   6.744 -0.2667  0.0199  0.0903
86763W        W29816  26.143  14.190  26.153  0.1688  0.1203  0.0449
86764W        W29817  10.217  20.021   0.643 -0.1285  0.1097 -0.0603
86765W        W29818  32.164   9.291  21.173 -0.0707 -0.0539 -0.0492
86766W        W29819  23.689  10.374  14.217 -0.2838 -0.1030  0.1390
86767W        W29820  11.976   9.569  28.155 -0.1174  0.2612  0.2261
86768W        W29821  22.737  32.103  17.354 -0.0287 -0.0090 -0.1639
86769W        W29822  22.269   7.016  15.276  0.3908  0.1830  0.0002
86770W        W29823  27.436  18.525  16.065 -0.0654 -0.2348  0.1185
86771W        W29824  21.118   7.672  16.437  0.0960 -0.0055 -0.1614
86772W        W29825  11.703  16.291  23.031  0.0522  0.1444  0.0118
86773W        W29826   9.335   2.536  21.020  0.2033 -0.1627  0.1543
86774W        W29827  29.264  17.483  16.746 -0.1038 -0.1710  0.0056
86775W        W29828  15.348  28.092  16.146  0.5890  0.0811 -0.1716
86776W        W29829  25.541   7.296  16.364  0.2072  0.0799  0.0728
86777W        W29830  32.547  16.205  24.246 -0.0310 -0.1572 -0.2105
86778W        W29831  24.297  28.614  16.828  0.1655 -0.4269  0.1514
86779W        W29832   2.905  25.816  22.813 -0.1801  0.2110 -0.1799
86780W        W29833  25.338  20.486  17.298  0.3232  0.1328 -0.0601
86781W        W29834  10.112  10.948  16.623 -0.1156  0.0246  0.2007
86782W        W29835  17.642  32.189   1.117  0.1924  0.2036  0.0313
86783W        W29836  30.163  30.669  23.204 -0.0488  0.0440 -0.3670
86784W        W29837  22.206  25.678  16.247  0.1481 -0.2068  0.1828
86785W        W29838  22.909   1.631  26.585  0.1517  0.0039 -0.2272
86786W        W29839  29.210  34.177  13.530 -0.2838  0.1565 -0.3054
86787W        W29840   5.199  16.600  20.834  0.0601  0.0037 -0.1721
86788W        W29841  25.222   9.350  28.282  0.3800  0.1941 -0.2475
86789W        W29842  17.899  10.604  24.334  0.0684  0.0861  0.0238
86790W        W29843   5.494  31.662   1.808 -0.1715  0.3066 -0.0663
86791W        W29844  28.382  14.957  25.936  0.0180 -0.0019  0.0299
86792W        W29845  28.542  20.164  18.986  0.0471  0.0263  0.1548
86793W        W29846  27.520   2.512   2.473 -0.0320  0.1200  0.0294
86794W        W29847  15.377   9.628  16.635 -0.1207  0.2516 -0.0839
86795W        W29848   6.181  23.626   2.146 -0.2474  0.0580  0.2409
86796W        W29849   7.634  19.579   6.936 -0.0283  0.0142  0.2624
86797W        W29850   4.726   7.099  24.131  0.1640  0.1963 -0.1234
86798W        W29851  15.939   5.845  27.511  0.0419  0.1309  0.0575
86799W        W29852  14.882   7.141  15.032 -0.2152 -0.1851  0.0706
86800W        W29853  19.827   6.545   1.742 -0.3419  0.1151  0.4088
86801W        W29854  22.705  17.465  27.068  0.2832 -0.2897 -0.0137
86802W        W29855   7.881   3.305  19.533 -0.0863 -0.0382 -0.2220
86803W        W29856   6.294   9.817  18.041 -0.1282 -0.0162 -0.2692
86804W        W29857  19.778   1.372   2.874 -0.0706 -0.1210  0.0735
86805W        W29858  26.036   5.805  18.058  0.1344  0.0189  0.0846
86806W        W29859  20.637  27.730  24.739  0.1583 -0.0972 -0.2671
86807W        W29860   5.943  12.974  16.771  0.0456  0.0282  0.0582
86808W        W29861  12.337  14.134  27.920  0.2815 -0.2214 -0.1377
86809W        W29862  13.562  14.887  22.324 -0.1199 -0.1272  0.0512
86810W        W29863  27.559   1.483  19.814 -0.2485  0.0379 -0.0946
86811W        W29864  19.526   8.324  20.697  0.3755  0.4490  0.0254
86812W        W29865  30.650   1.934  17.849 -0.1974  0.0809 -0.0459
86813W        W29866  12.944   6.072  21.726  0.0205  0.3098  0.0020
86814W        W29867   8.195   4.204  25.980  0.0972  0.2212  0.0498
86815W        W29868  13.576  10.428  22.460  0.0539  0.3695 -0.1595
86816W        W29869  30.496  25.000  24.485  0.0203 -0.1813 -0.0491
86817W        W29870  16.300   7.066  19.763 -0.2916 -0.1207  0.1166
86818W        W29871   0.348  27.019  15.383 -0.1881  0.0851  0.1643
86819W        W29872  14.356  30.907   0.655  0.1460  0.1359 -0.0564
86820W        W29873  26.087  33.959  21.952  0.3929  0.0089 -0.1734
86821W        W29874   5.807  24.234  13.989 -0.3043 -0.0015  0.3024
86822W        W29875  21.049   8.361  20.300  0.0851  0.3916 -0.0745
86823W        W29876  10.502  25.124  17.602  0.0444 -0.0998 -0.1144
86824W        W29877  20.683  12.341   2.879 -0.0373 -0.3192 -0.1098
86825W        W29878  32.890   3.683  16.661  0.0797  0.1610 -0.0953
86826W        W29879   6.577   7.706  21.987  0.2784 -0.1459 -0.0486
86827W        W29880  15.139   2.978  27.417  0.2252 -0.2253  0.0974
86828W        W29881  21.745  12.790  17.256  0.1275 -0.1027  0.3658
86829W        W29882  27.768  17.298  20.135 -0.3263  0.1563 -0.1746
86830W        W29883  25.851   9.989  20.164 -0.0626 -0.2141  0.1031
86831W        W29884  12.159  27.455  28.778 -0.4862  0.0136  0.0892
86832W        W29885   5.248  12.584  23.015 -0.0398  0.0899 -0.1348
86833W        W29886  26.156  27.768  13.783  0.0765  0.0432  0.2105
86834W        W29887  15.692   6.977  16.329 -0.1597 -0.0722 -0.0364
86835W        W29888  21.427  19.160  15.959 -0.2158  0.3129  0.0418
86836W        W29889   7.275   6.612  23.000 -0.2192 -0.1413  0.0507
86837W        W29890  18.697   4.110  20.616  0.0094  0.1413  0.2826
86838W        W29891  19.285  19.247   2.090 -0.0076 -0.0112 -0.2025
86839W        W29892  19.383   0.820  25.721 -0.2135  0.3131  0.1562
86840W        W29893  26.014  27.135  18.707 -0.0749  0.1397 -0.0929
86841W        W29894  12.630  15.586  21.324 -0.0304  0.4405 -0.3049
86842W        W29895  21.342  13.782  14.798 -0.2098 -0.2056 -0.3555
86843W        W29896   8.552   5.906  21.304 -0.1531  0.2803 -0.3931
86844W        W29897  13.382   1.406  24.211  0.1907  0.2421  0.0855
86845W        W29898  20.868   1.985  20.721 -0.1243 -0.0894 -0.0360
86846W        W29899  15.163   4.728   5.216  0.1904 -0.2122  0.3216
86847W        W29900  20.986   3.666  22.182 -0.1923  0.1868 -0.0126
86848W        W29901  11.818  19.657  15.721 -0.1525 -0.1953 -0.1254
86849W        W29902  20.346  28.254  28.254 -0.1602 -0.1456  0.3548
86850W        W29903  22.525  33.830  17.964 -0.0183 -0.0630 -0.2406
86851W        W29904  13.110   4.718  26.488 -0.1101 -0.5913 -0.0920
86852W        W29905  15.813   8.848  23.157  0.0214  0.0161  0.0637
86853W        W29906  16.146  11.134  14.683 -0.1057 -0.0260  0.0493
86854W        W29907  19.718   7.241  14.133 -0.2147  0.0195  0.0881
86855W        W29908  10.681  11.151  22.124 -0.2557 -0.1136  0.0713
86856W        W29909  27.626   9.740  17.540 -0.1182 -0.1150  0.1013
86857W        W29910  12.542   5.756  13.972 -0.3315  0.4685  0.0235
86858W        W29911  13.649  11.778  24.229 -0.0166 -0.1155  0.2211
86859W        W29912  24.466   3.246  21.624 -0.0693 -0.1130 -0.2010
86860W        W29913  30.074   4.519  19.482 -0.2526  0.0007 -0.1641
86861W        W29914  22.514  33.417   5.350 -0.2809  0.1804 -0.0689
86862W        W29915  18.592   2.902  24.803 -0.1185 -0.3063 -0.4123
86863W        W29916   5.096  28.394  23.844 -0.0342  0.2918 -0.1002
86864W        W29917   3.011   6.810  15.301 -0.1863 -0.0961  0.0543
86865W        W29918  13.576  32.822  19.313  0.1232 -0.3134  0.0139
86866W        W29919  16.130  34.354  16.485  0.1007 -0.0474  0.2580
86867W        W29920  15.418  16.853  12.875  0.4251  0.0160 -0.0105
86868W        W29921  23.446  18.040   1.656  0.1775 -0.0147  0.2622
86869W        W29922   8.911  13.286  20.634  0.0737 -0.1848  0.0589
86870W        W29923  24.946  22.742  10.049 -0.3388  0.1528 -0.0806
86871W        W29924  20.912  23.937   5.614 -0.1431  0.3973  0.2965
86872W        W29925  16.689   6.039  24.261 -0.0172  0.0031 -0.0508
86873W        W29926   9.940  23.106  22.503 -0.3092 -0.0169  0.1380
86874W        W29927  29.054  21.721   5.316 -0.3784 -0.1662 -0.1330
86875W        W29928  18.281  19.406  14.105 -0.1574  0.0622  0.1722
86876W        W29929  23.965   1.591   2.625 -0.0974  0.0301 -0.1768
86877W        W29930   6.574   4.703  17.068 -0.0989 -0.1103 -0.0138
86878W        W29931  21.950  34.542  24.023 -0.1037  0.0422  0.2349
86879W        W29932  22.546  18.791  14.909  0.1996  0.0102  0.0205
86880W        W29933  17.194  12.304  26.236  0.0194  0.0499  0.3190
86881W        W29934  31.363  14.169  15.984 -0.2662  0.0665 -0.0014
86882W        W29935  22.910  17.639  19.121 -0.2181  0.1963 -0.0909
86883W        W29936  20.861  14.149   1.013  0.1363 -0.2320 -0.1089
86884W        W29937  17.588   3.340   2.198  0.4092  0.1539 -0.1271
86885W        W29938  12.589  16.027  24.606  0.0140 -0.0528 -0.0300
86886W        W29939  27.399   2.350  27.071  0.1330 -0.0738 -0.1130
86887W        W29940  28.681  27.711  17.317  0.0417  0.2906  0.0284
86888W        W29941  13.367  21.957  21.028 -0.3502 -0.2017  0.3960
86889W        W29942  10.559  14.034   2.956  0.0958  0.1805 -0.1191
86890W        W29943  15.497   5.237  26.836  0.0288 -0.1931 -0.0247
86891W        W29944  23.831  11.371   1.256 -0.3348 -0.2108 -0.3296
86892W        W29945  23.035  10.730  21.600  0.3047  0.0852 -0.0153
86893W        W29946  12.078  13.310  16.851  0.0051 -0.0282 -0.2100
86894W        W29947   6.765  13.772  16.531  0.1822  0.1977  0.0289
86895W        W29948  28.254  11.801  15.540  0.0609  0.0506  0.0449
86896W        W29949  23.411   7.135  15.772  0.1274  0.1076 -0.1916
86897W        W29950  27.487  16.319   4.471 -0.1607 -0.1177 -0.0827
86898W        W29951  17.544  10.738   4.813  0.2543 -0.2463 -0.1079
86899W        W29952  27.506  15.151  15.562  0.0064  0.1113 -0.1426
86900W        W29953   1.475   4.497  18.822 -0.0842 -0.0208  0.3237
86901W        W29954  26.101  33.063  24.162  0.0298  0.0626  0.0908
86902W        W29955  10.652  13.490  24.285 -0.1320  0.1370  0.0606
86903W        W29956  18.619   5.650  17.607  0.1562  0.0368  0.2221
86904W        W29957  23.444   2.135   3.224  0.0339 -0.0898 -0.0104
86905W        W29958  22.680  11.541   9.488  0.0253  0.0320 -0.2387
86906W        W29959   2.935  20.567  19.366  0.1464  0.0574 -0.1455
86907W        W29960  19.628   5.297  16.054 -0.3184  0.0385 -0.1712
86908W        W29961  17.437   1.951  28.911 -0.3005  0.0715  0.1390
86909W        W29962  26.775  19.021  21.322 -0.1697 -0.1208 -0.0387
86910W        W29963  18.749  13.067  19.578  0.1734 -0.1328 -0.0025
86911W        W29964  24.719  13.926  17.795  0.1980  0.2456 -0.2717
86912W        W29965  18.463  14.262  22.797 -0.0935  0.0614  0.0977
86913W        W29966  26.458   8.599  27.624  0.3419 -0.0603  0.1995
86914W        W29967  20.062  17.330  25.237  0.0114  0.1600  0.3793
86915W        W29968  23.378  33.608  21.053  0.1035 -0.1941  0.3742
86916W        W29969  12.473   2.066  14.600  0.1394  0.3211  0.1583
86917W        W29970   4.488   2.122  19.263 -0.3214 -0.0228 -0.0594
86918W        W29971  30.433  17.978   3.983 -0.0889  0.0157  0.0341
86919W        W29972  23.896  31.715  22.799 -0.0196 -0.1540  0.1086
86920W        W29973  32.713  13.337  24.076 -0.0656 -0.0897  0.0474
86921W        W29974  12.514  15.810  18.099  0.1544  0.1181  0.0776
86922W        W29975  21.852   8.811  16.230  0.3107  0.4935  0.5176
86923W        W29976  22.791  15.881  13.118 -0.1743 -0.1075  0.0592
86924W        W29977  23.506   5.310  28.637  0.1264 -0.0415  0.1416
86925W        W29978  22.730   1.836  19.755  0.3876 -0.3909 -0.1500
86926W        W29979  19.745   5.110  22.021 -0.1574 -0.1263 -0.0650
86927W        W29980  30.264  19.760  20.234 -0.0168  0.0440  0.0202
86928W        W29981  32.162  31.222  24.075  0.1866 -0.0749  0.2646
86929W        W29982  26.596  31.390  27.890 -0.0567 -0.0262 -0.1432
86930W        W29983   8.395  16.231  24.979  0.4639  0.2917 -0.2127
86931W        W29984   2.488  17.942   0.515  0.0614  0.0358  0.1445
86932W        W29985  33.986  11.783  16.713  0.0177 -0.0281 -0.1325
86933W        W29986  24.358   8.891  22.488  0.0502 -0.0382  0.0221
86934W        W29987  24.250  20.017  21.929  0.0016 -0.0813  0.1113
86935W        W29988  11.378   8.659  16.889  0.3512  0.3406  0.2977
86936W        W29989  29.659  22.461  18.342  0.0380  0.3640  0.0112
86937W        W29990  23.174  34.244  15.088 -0.1192  0.0783  0.0975
86938W        W29991  26.598  30.152  18.966  0.4581 -0.3989  0.3188
86939W        W29992  20.415   7.588  19.755  0.2011  0.0901 -0.0404
86940W        W29993   5.880  29.961  23.368  0.5286 -0.3055 -0.1235
86941W        W29994  28.970  14.568   2.818  0.0458 -0.1401  0.0561
86942W        W29995  18.240  28.510  16.066 -0.2690  0.2204 -0.0775
86943W        W29996  27.839  24.987  28.501 -0.0925  0.1439 -0.2193
86944W        W29997  14.629   7.305  24.945  0.1590 -0.1450 -0.1602
86945W        W29998  20.212   4.865   7.101 -0.4069 -0.0337 -0.2315
86946W        W29999   0.266  10.097   2.016 -0.1176  0.1854  0.0476
86947W        W30000  33.544  19.735  19.101 -0.3664  0.0418 -0.3569
86948W        W30001  27.814  26.973   5.550 -0.1147 -0.2863 -0.1186
86949W        W30002  22.514   4.321  23.004 -0.0892 -0.0295 -0.0732
86950W        W30003  20.159  20.860  23.675  0.3480  0.3165  0.2126
86951W        W30004  11.059  28.929  26.065 -0.4461 -0.0940  0.1685
86952W        W30005  22.899  19.964  14.564  0.1071  0.1523  0.1431
86953W        W30006  27.101  10.549  14.743 -0.0259  0.0048  0.0650
86954W        W30007  24.185   4.189  22.510 -0.3408 -0.0307  0.2631
86955W        W30008  22.028  21.404   0.022 -0.2991 -0.1294 -0.1781
86956W        W30009  14.640  29.224  14.239  0.0011  0.0812 -0.0248
86957W        W30010  16.336  10.528  27.191 -0.1394  0.0806 -0.1178
86958W        W30011  16.019  10.523  26.144 -0.1445  0.2092 -0.1759
86959W        W30012  24.521  15.876  26.094 -0.0300 -0.1323  0.0700
86960W        W30013  13.739  11.031   6.853  0.2189 -0.2117  0.0869
86961W        W30014   6.222  33.155  27.269  0.3831 -0.1224 -0.0161
86962W        W30015   5.270  20.624   4.118 -0.0748  0.1143  0.0613
86963W        W30016   2.189   5.833  15.475  0.3451 -0.2751 -0.0140
86964W        W30017  21.390  13.347  14.041  0.0564  0.0750  0.1847
86965W        W30018   0.910  21.389   1.674  0.0278  0.5110  0.2229
86966W        W30019   1.353  23.526  15.093  0.2655  0.2491 -0.0376
86967W        W30020  18.919  30.207  28.751  0.0519 -0.0336 -0.2559
86968W        W30021  10.551  28.877  14.660  0.0109  0.1955 -0.0514
86969W        W30022  14.493   2.049  10.604 -0.0611  0.0855 -0.0142
86970W        W30023   0.375  25.925  20.515 -0.0133 -0.1575  0.1501
86971W        W30024  16.936  30.080  22.829 -0.0456  0.2341 -0.0786
86972W        W30025  22.171  23.862  18.744 -0.4624  0.2376  0.0769
86973W        W30026  21.026   7.932   3.052  0.1924  0.0218  0.0150
86974W        W30027  24.021   8.550  23.984  0.0671 -0.1076 -0.2890
86975W        W30028   6.221   5.243  24.561  0.3044 -0.2906  0.1002
86976W        W30029  13.996   8.518  15.545  0.0427  0.1451  0.2843
86977W        W30030  10.740  20.414   9.072 -0.0913 -0.0086  0.3054
86978W        W30031  27.001  15.322  19.880 -0.0015  0.3704  0.2527
86979W        W30032   9.786   5.242   2.894  0.4297  0.1151 -0.2137
86980W        W30033  12.186  17.665  14.056 -0.2155  0.0529  0.0355
86981W        W30034  19.123  31.780  23.871 -0.0306  0.2131  0.1368
86982W        W30035  16.466  24.472   3.171 -0.0259  0.2363 -0.1913
86983W        W30036   0.810  31.676   1.133  0.1270 -0.1596  0.2038
86984W        W30037  12.147   9.251   1.679 -0.1591  0.4325 -0.0282
86985W        W30038  15.015  28.835   3.913 -0.2857  0.1903 -0.1140
86986W        W30039   5.446  30.996   0.917  0.2288 -0.0730 -0.2820
86987W        W30040  23.538  12.267  14.925 -0.1000  0.1761 -0.0916
86988W        W30041  10.238  19.899  21.002  0.3001 -0.2167 -0.3288
86989W        W30042  33.122  24.527   0.306  0.0605 -0.1167  0.2366
86990W        W30043  17.180  11.068   1.968  0.0005  0.2918  0.3627
86991W        W30044  31.733   1.891  24.238 -0.2545  0.1977 -0.1463
86992W        W30045   5.157  25.436   4.004  0.0262 -0.2630 -0.2293
86993W        W30046  32.270  17.028   8.944  0.1035  0.0402 -0.3031
86994W        W30047  13.779   4.282  25.092  0.0262  0.3094  0.0061
86995W        W30048  13.337  34.400  15.039 -0.1730 -0.1074  0.2719
86996W        W30049  19.952  20.569  26.357 -0.0995  0.1370  0.2666
86997W        W30050   9.664  12.927   5.610  0.0642 -0.3038 -0.0648
86998W        W30051  20.150   7.941  16.450 -0.1318  0.1187 -0.0338
86999W        W30052  13.912  27.919  26.383 -0.0310 -0.1999 -0.2641
87000W        W30053  10.032  12.351  23.072  0.2643 -0.2027 -0.2911
87001W        W30054  17.393  16.303   0.819 -0.1067 -0.0648 -0.0915
87002W        W30055  19.909  32.161  25.940 -0.0236 -0.1336 -0.2874
87003W        W30056  20.955  27.609  21.466  0.2280 -0.2303 -0.0998
87004W        W30057  31.535  14.742  21.911 -0.1291  0.0052 -0.0743
87005W        W30058  19.557  10.069  15.382 -0.1628  0.4114 -0.0607
87006W        W30059   5.519   2.915  15.781 -0.2506  0.1120  0.6720
87007W        W30060  10.261  27.424  19.444 -0.0069  0.0412 -0.3812
87008W        W30061   0.037  23.192   1.108 -0.0296 -0.3446  0.1253
87009W        W30062  25.293   2.714   4.809  0.0016 -0.0063  0.0089
87010W        W30063  13.745   3.248  15.626 -0.0615  0.2023 -0.1409
87011W        W30064  17.498   2.265  21.882  0.1864  0.1644 -0.1850
87012W        W30065  13.385  32.795  21.891 -0.0739 -0.0583  0.0800
87013W        W30066   2.937  31.689   6.150 -0.0890  0.0372 -0.3564
87014W        W30067  18.203  11.191  21.782 -0.2307  0.0324  0.2436
87015W        W30068  19.387  11.831   0.057 -0.0447 -0.1555  0.0286
87016W        W30069  21.755  31.210  28.878  0.2868  0.2237 -0.1928
87017W        W30070  18.409  10.582   5.019  0.0277  0.4317 -0.1539
87018W        W30071  14.881   9.469   3.106 -0.0579  0.2749 -0.0787
87019W        W30072  21.186  33.127  25.439  0.2676  0.1273 -0.4154
87020W        W30073   5.248  10.274   1.656  0.2845 -0.2378 -0.0265
87021W        W30074  33.151  30.129  28.490  0.0829  0.0557  0.1682
87022W        W30075   6.107  24.832   1.893  0.2261  0.3939  0.2429
87023W        W30076  31.051   7.603  23.599 -0.0488 -0.2469  0.1418
87024W        W30077   4.090   3.083  18.624 -0.3173  0.2028 -0.0426
87025W        W30078  34.051  23.246  25.295 -0.2008 -0.0264 -0.1799
87026W        W30079  31.863  13.750  26.106  0.1578  0.2495  0.1767
87027W        W30080   9.016   8.960  19.499 -0.1497  0.0900  0.4020
87028W        W30081  19.214  17.041  22.875  0.0419 -0.1792  0.0751
87029W        W30082   2.587  31.100  18.517  0.0535  0.0058 -0.1179
87030W        W30083  12.334  27.324  16.773 -0.1845  0.0497 -0.0706
87031W        W30084   4.236  18.787  14.135 -0.0565 -0.2424 -0.0739
87032W        W30085  15.076  14.577   1.499  0.0818 -0.0652  0.2106
87033W        W30086  25.844   3.855  16.091  0.1908 -0.0547  0.0904
87034W        W30087  15.556   3.585  26.203 -0.2400  0.1504 -0.1999
87035W        W30088  25.544   8.211  19.722  0.3367 -0.0233 -0.0486
87036W        W30089  13.739  33.359  29.010  0.0041 -0.0305  0.0536
87037W        W30090  15.612  26.242  20.530 -0.0954  0.3612  0.0201
87038W        W30091  14.616  31.952  14.711 -0.0494 -0.0490  0.3119
87039W        W30092  11.566  29.420  14.081  0.0919 -0.0114 -0.1912
87040W        W30093  16.690   5.171  24.109 -0.1348 -0.3897  0.0802
87041W        W30094   5.303  23.242  14.932  0.0412 -0.0177  0.3247
87042W        W30095   3.740   6.240  19.175 -0.1103 -0.0935  0.0855
87043W        W30096  10.076  17.636  17.465  0.1358 -0.0988  0.0435
87044W        W30097  21.951  20.754   7.269  0.2206  0.1815  0.0583
87045W        W30098  25.701  11.729  23.426  0.1599 -0.0236 -0.4108
87046W        W30099  10.744  17.655  16.095 -0.4079  0.0461 -0.2131
87047W        W30100   2.518   9.624  15.152 -0.0599  0.0684 -0.1312
87048W        W30101  17.591  15.355  15.481 -0.1480 -0.1162 -0.2068
87049W        W30102  26.369   7.113   9.961 -0.0346 -0.0077 -0.0518
87050W        W30103  24.895  11.453  16.883  0.1080  0.0863  0.1476
87051W        W30104  26.080  14.955  24.312 -0.0906  0.1849  0.0220
87052W        W30105  11.087   7.390  18.136  0.1359  0.1268 -0.0703
87053W        W30106  14.520  25.932  22.467 -0.1487 -0.2369  0.2335
87054W        W30107  30.853  20.407  20.079 -0.0213 -0.1639 -0.0086
87055W        W30108  34.214   7.762  23.312  0.1368 -0.1153 -0.0476
87056W        W30109   7.702   2.593  29.193 -0.0719 -0.0304 -0.1970
87057W        W30110  18.128   5.152  26.084 -0.1654 -0.0528 -0.2632
87058W        W30111  15.041  22.472  17.848  0.1121  0.2734  0.2051
87059W        W30112   7.955  14.879  18.720  0.0182 -0.0684 -0.2147
87060W        W30113  18.142  14.127   3.024 -0.0641  0.2495  0.0155
87061W        W30114  23.387  13.238  22.671  0.3583  0.1573  0.1082
87062W        W30115  20.316   7.233  18.567 -0.0645  0.4190  0.2812
87063W        W30116  28.294  25.602   5.463 -0.0158  0.1284  0.2794
87064W        W30117  11.631  34.148   1.887  0.1014  0.0063  0.0853
87065W        W30118  33.435   7.904  15.824 -0.0775 -0.1575  0.1319
87066W        W30119  13.503  33.660   0.393  0.0486  0.0876 -0.0262
87067W        W30120  20.105   6.233  20.378  0.1073  0.0366 -0.0739
87068W        W30121  14.857  12.659  14.325 -0.1194  0.1459  0.1309
87069W        W30122   8.250   4.268  24.101 -0.0359 -0.0751 -0.3584
87070W        W30123  30.522  10.219   8.473  0.0080 -0.0777  0.0113
87071W        W30124  14.293   9.639  21.310  0.2876  0.1581  0.1887
87072W        W30125  19.044  15.175  14.078 -0.0088 -0.1708  0.3407
87073W        W30126  21.844   1.969  14.120 -0.2794  0.3230 -0.0563
87074W        W30127   8.508   7.631   2.572  0.0911 -0.0939  0.0647
87075W        W30128  22.322  31.842  22.787 -0.0915  0.6254  0.0485
87076W        W30129  20.942   3.152   5.930  0.5103 -0.1951 -0.1017
87077W        W30130  23.505  11.443  16.020  0.0626  0.0617  0.2897
87078W        W30131  19.400  27.779   7.876  0.2325  0.0268 -0.0373
87079W        W30132  16.307   0.948   8.216  0.2542  0.0861  0.2387
87080W        W30133  15.184  11.813  26.736  0.0349  0.0470  0.1625
87081W        W30134  21.643  21.940  20.372 -0.1447 -0.3801 -0.2731
87082W        W30135  16.867   7.639  18.097  0.0032  0.3272  0.3966
87083W        W30136  19.789  26.767  22.227 -0.3065  0.1405  0.0365
87084W        W30137  30.180  11.294  25.565 -0.0922 -0.0702 -0.3132
87085W        W30138  16.762  30.172  17.902  0.0474  0.2762  0.2928
87086W        W30139  18.165   6.527   9.833 -0.0194 -0.2839  0.0654
87087W        W30140  14.731   6.610   5.229 -0.1114 -0.0982 -0.1024
87088W        W30141  20.684  31.136   6.701  0.2323 -0.1039 -0.0380
87089W        W30142  13.227  10.930   8.124  0.1306  0.1278 -0.0987
87090W        W30143  34.341  13.763  26.639  0.0509 -0.0081 -0.1054
87091W        W30144  22.792   1.511  17.573  0.1399 -0.1246 -0.1984
87092W        W30145  14.586   5.098  17.596  0.1427  0.2972  0.1248
87093W        W30146  26.900  33.827  21.522 -0.0774 -0.1180 -0.0121
87094W        W30147  32.800   4.529  22.393 -0.0171  0.0179  0.3429
87095W        W30148  16.436  14.555   5.521  0.1373  0.3689 -0.0068
87096W        W30149  26.542  11.160  24.285  0.0654 -0.0291 -0.0067
87097W        W30150  17.934   6.614  18.393 -0.2222 -0.0706 -0.3292
87098W        W30151   1.508  31.310  13.491 -0.1550  0.1495 -0.2482
87099W        W30152  27.095  23.238  26.481 -0.1386 -0.0358  0.0847
87100W        W30153  23.980  24.707  25.739  0.1983  0.1994  0.2357
87101W        W30154  11.845   3.366  22.298 -0.1800 -0.2856 -0.2985
87102W        W30155  27.286   8.880   6.009 -0.4865  0.0979 -0.2264
87103W        W30156  17.806  34.496  16.969  0.0375  0.0571 -0.2920
87104W        W30157  31.787   8.936   3.543  0.0228  0.0451  0.1873
87105W        W30158  16.433   0.420  10.067 -0.0934  0.0524 -0.3939
87106W        W30159  17.834  12.814  19.832 -0.0389  0.0986  0.0350
87107W        W30160   3.210  21.842  26.537 -0.1948  0.1280 -0.5517
87108W        W30161   9.034   3.577  28.603  0.0130  0.2862  0.3322
87109W        W30162  28.928  33.922  20.601 -0.0274  0.1896  0.1080
87110W        W30163  31.145   3.849   3.103  0.0392 -0.1463  0.1332
87111W        W30164   7.809  11.545  28.412 -0.2771 -0.0110 -0.1188
87112W        W30165  24.727   0.620  27.176  0.0098  0.1479 -0.2444
87113W        W30166  17.900  14.954   9.114 -0.0221  0.2915  0.0304
87114W        W30167  24.149   8.098  15.876 -0.1365 -0.1107  0.1088
87115W        W30168  17.960  23.958  25.002 -0.3699  0.1573  0.1834
87116W        W30169  18.943   1.103  20.440  0.2152 -0.3997  0.0883
87117W        W30170  33.390   2.519  23.484  0.3570 -0.1473 -0.1811
87118W        W30171  13.564  31.007  27.721  0.0800  0.1410  0.0773
87119W        W30172   0.649  14.019  28.925 -0.0324  0.2284  0.1691
87120W        W30173  13.340   3.819   2.822 -0.1343 -0.3805  0.3340
87121W        W30174  12.096   7.452  18.041  0.0710  0.2736  0.1235
87122W        W30175  11.555  34.658   1.053  0.1801  0.0235  0.0520
87123W        W30176   6.929  28.673  23.886 -0.0531  0.0258  0.1617
87124W        W30177  20.266  16.587  28.587 -0.1064  0.3613 -0.2085
87125W        W30178  15.385  23.085  22.872  0.2282 -0.1326 -0.0832
87126W        W30179  25.769   9.113   1.592 -0.4610 -0.0121 -0.1231
87127W        W30180  18.304  17.177  28.039  0.0374 -0.0569  0.0613
87128W        W30181  22.877  10.847  19.255  0.1734 -0.1533 -0.0350
87129W        W30182  20.200   8.316  16.058  0.1638 -0.1536 -0.2055
87130W        W30183   5.572  15.513  16.770 -0.1321  0.2747  0.0599
87131W        W30184  12.941  12.476   9.256 -0.0225  0.0323  0.1661
87132W        W30185  23.752  14.559  14.945  0.2036 -0.0475  0.4085
87133W        W30186   1.400  10.099   1.295 -0.0125 -0.0503 -0.2380
87134W        W30187  11.765  16.252  25.323  0.1604  0.1013 -0.1099
87135W        W30188   9.131  12.605  18.773  0.0337 -0.1323 -0.2638
87136W        W30189  23.630   7.719   0.902  0.0619 -0.1012  0.1078
87137W        W30190  16.642   3.737  22.083 -0.1657 -0.0023  0.1235
87138W        W30191  32.979  20.786  17.539 -0.0985  0.0881 -0.0520
87139W        W30192  13.168   1.410  18.529  0.0569 -0.0878  0.3578
87140W        W30193  22.597   7.656   2.144  0.0330 -0.0528  0.5295
87141W        W30194  15.277   9.437  21.692  0.1243  0.1245  0.1723
87142W        W30195  26.437  13.610   1.010  0.1152  0.2386  0.1353
87143W        W30196  23.338   2.353  26.421  0.0254 -0.1991 -0.0241
87144W        W30197  14.017   2.931  24.543 -0.0540 -0.0891  0.1896
87145W        W30198   2.157   7.899  20.312  0.1328 -0.3063 -0.2967
87146W        W30199  24.161   4.401  19.231 -0.0583  0.1710  0.0531
87147W        W30200  26.367   1.010   4.105 -0.0596  0.0426  0.0320
87148W        W30201   3.658   3.129  19.604  0.0515 -0.2507  0.0130
87149W        W30202  25.659  10.574  23.925  0.1344  0.1104  0.3056
87150W        W30203  23.778   6.657   0.193 -0.0725 -0.0822  0.0106
87151W        W30204  26.223  30.919  14.905  0.1087  0.0997 -0.1327
87152W        W30205  26.574  13.230   4.750 -0.1631  0.1175  0.1601
87153W        W30206  13.246  12.221  20.591 -0.2256 -0.0826 -0.1123
87154W        W30207  27.741  15.566   7.833  0.1138 -0.1096  0.1528
87155W        W30208   6.823   6.123  26.764  0.0643 -0.0234  0.0016
87156W        W30209  32.086   3.213  26.673  0.0955  0.1119  0.1161
87157W        W30210  21.231   5.263  28.257 -0.2740  0.0639 -0.2016
87158W        W30211  20.812  28.884  27.422 -0.0516  0.0351 -0.0649
87159W        W30212   7.093  11.839  18.165  0.2797  0.1268  0.0109
87160W        W30213  33.589   6.730  19.155  0.1556 -0.0348  0.1704
87161W        W30214  12.363  29.273   2.325 -0.0249 -0.4202  0.1791
87162W        W30215  24.225   9.842   7.070 -0.0538  0.1599  0.1550
87163W        W30216  22.308   8.829  17.616 -0.1928  0.0788 -0.0406
87164W        W30217   4.857  17.768  22.982 -0.1752 -0.0468  0.3915
87165W        W30218  23.287  18.191  22.445 -0.1567  0.0535 -0.4795
87166W        W30219  16.024   3.643  24.248 -0.0578  0.3194 -0.3765
87167W        W30220  29.300   5.418  23.171  0.0663 -0.0419 -0.0284
87168W        W30221   6.091   9.568  20.649 -0.1439  0.1998 -0.2674
87169W        W30222   8.811  13.863  16.216  0.1954 -0.0278 -0.0650
87170W        W30223  24.447   9.229  21.243 -0.0646 -0.2276 -0.1747
87171W        W30224  25.579  14.233   5.048  0.3629  0.1159 -0.0500
87172W        W30225   9.139   7.446  19.353  0.2202 -0.2203  0.2691
87173W        W30226  24.261   6.714  14.366 -0.1683 -0.2382  0.1374
87174W        W30227   2.391   2.086  19.944 -0.1018 -0.0007  0.3687
87175W        W30228  13.322  19.705  13.546 -0.2646 -0.2577 -0.1131
87176W        W30229  18.342   5.781  18.282 -0.0373  0.2214  0.1327
87177W        W30230  21.276  31.964   9.867 -0.2645  0.2616  0.1428
87178W        W30231  13.821  31.326  21.970 -0.0041  0.3034 -0.0504
87179W        W30232   6.643  18.182  27.829  0.2750  0.2869 -0.1592
87180W        W30233  20.956  23.981  17.091 -0.2336 -0.0856 -0.0595
87181W        W30234  21.572   8.220  15.899  0.1545  0.0960  0.0892
87182W        W30235  25.499  27.124  22.614  0.0696  0.1649  0.3518
87183W        W30236  16.649  13.527  21.693  0.1466  0.1269  0.2106
87184W        W30237  34.207  13.485  17.777 -0.0471 -0.2569 -0.2025
87185W        W30238  28.562  14.517  15.832 -0.3776 -0.2767  0.2421
87186W        W30239  22.932  23.797  26.121  0.1512  0.1285  0.0667
87187W        W30240  11.012   3.352   3.984 -0.3801  0.1441  0.3866
87188W        W30241  18.289   9.310   2.222 -0.1159  0.2958 -0.1932
87189W        W30242   8.991  11.767  17.653 -0.1228  0.0382 -0.1946
87190W        W30243  27.985  31.602   2.658  0.0908  0.1601 -0.1209
87191W        W30244  23.619  10.841  14.427 -0.2602  0.1351 -0.3460
87192W        W30245  22.538  20.759  22.742  0.0973 -0.1504  0.2106
87193W        W30246  14.084  10.009  24.393 -0.0631  0.0536  0.1266
87194W        W30247  21.656  24.251  17.862 -0.5516 -0.2088  0.1041
87195W        W30248   6.406  17.748  23.353  0.0361  0.2670  0.0571
87196W        W30249  23.015  34.034  25.107 -0.1381 -0.0241  0.1402
87197W        W30250  18.599  11.270  23.052 -0.0651 -0.1216  0.1049
87198W        W30251  24.071   1.360  20.660  0.2377 -0.2738  0.0581
87199W        W30252  11.787  17.002  17.059  0.3390  0.3670  0.0983
87200W        W30253  21.678  32.830   4.826  0.0827  0.2496 -0.0408
87201W        W30254   9.825  19.162  20.370  0.2250 -0.1320  0.2670
87202W        W30255  25.834  23.946   8.477  0.0183  0.1221  0.2013
87203W        W30256  31.364  14.739  17.262  0.3961  0.1218 -0.0532
87204W        W30257  23.574  34.567  17.247 -0.1145  0.0408 -0.1578
87205W        W30258  24.023   4.557   4.141 -0.1083  0.0079  0.0948
87206W        W30259  13.640   9.514   7.188 -0.0633  0.1656 -0.0174
87207W        W30260  13.123   6.193  16.316  0.0094 -0.0683 -0.0457
87208W        W30261  25.699  26.011  20.146 -0.0175  0.4018  0.2164
87209W        W30262  11.957   0.947  23.153  0.0159 -0.0359  0.0206
87210W        W30263  18.409   7.721  24.313 -0.1341 -0.0604 -0.0164
87211W        W30264  19.127   9.197  26.489 -0.1130 -0.2471 -0.0867
87212W        W30265  18.583  31.139   2.732  0.2817 -0.0932 -0.1445
87213W        W30266  21.632   6.331  21.383  0.0267  0.2101  0.3008
87214W        W30267   4.088   4.937  17.447 -0.1828  0.2243 -0.0329
87215W        W30268  27.801   3.174   3.243  0.0057 -0.2236 -0.1801
87216W        W30269  10.557   4.585  18.019  0.3802 -0.3777  0.2875
87217W        W30270  12.017  31.798   2.499  0.0219 -0.0402  0.0900
87218W        W30271   9.845  12.582  26.481  0.0426 -0.0369  0.1629
87219W        W30272  21.619   8.651  17.772 -0.2116 -0.1836 -0.0577
87220W        W30273  21.999  12.002  29.152  0.4151 -0.1253  0.0764
87221W        W30274  25.434   0.006  24.503 -0.0387  0.0725 -0.1753
87222W        W30275  20.558  14.959  25.601  0.3323 -0.2084  0.1734
87223W        W30276  24.644   8.511   3.425  0.0226 -0.2003  0.1620
87224W        W30277   1.131  10.185   6.432 -0.0117  0.1262  0.0948
87225W        W30278  14.469  21.481  20.646 -0.2629 -0.1140 -0.0850
87226W        W30279  23.554  11.791  17.466 -0.0205 -0.1352 -0.0702
87227W        W30280   4.284  12.160  21.575  0.2912 -0.2302  0.0174
87228W        W30281  25.218  22.737  17.268 -0.0217  0.1234 -0.2754
87229W        W30282  20.866   4.924  28.862 -0.0784  0.0008  0.0420
87230W        W30283  21.228  13.844  23.638  0.1786 -0.1317 -0.0735
87231W        W30284  10.910   7.744  23.072 -0.2425 -0.1550  0.0841
87232W        W30285  28.000   2.245  27.419  0.0272 -0.0347 -0.2965
87233W        W30286  20.429  16.204  24.956  0.1493  0.0279  0.1169
87234W        W30287   4.346   6.549   3.551  0.2747 -0.1039 -0.0569
87235W        W30288  29.821   7.210  23.523 -0.0634  0.1280 -0.2821
87236W        W30289  10.680  12.633  27.042  0.0632 -0.0692 -0.3704
87237W        W30290  16.473  10.610   3.952  0.2473  0.0068 -0.0990
87238W        W30291   0.876   1.340   4.627  0.4863  0.0705  0.1926
87239W        W30292   4.934  27.505  24.035 -0.3221 -0.0743 -0.1071
87240W        W30293  28.780  16.613  21.825  0.1639 -0.0003 -0.1640
87241W        W30294  19.119   3.796  27.678 -0.0182 -0.2404 -0.1414
87242W        W30295  18.604   7.039  17.831 -0.0311 -0.0623  0.3533
87243W        W30296  22.008   0.582  22.585 -0.1395  0.1026 -0.1212
87244W        W30297   1.839  20.339   1.627 -0.0733  0.0414 -0.0362
87245W        W30298  20.284   9.515  17.332 -0.0573  0.3523 -0.1532
87246W        W30299  18.525  32.010   2.041 -0.0936  0.0333  0.2870
87247W        W30300   7.831  11.378   5.306 -0.1375 -0.1628 -0.0932
87248W        W30301  20.220   6.232   2.512 -0.1068 -0.0960 -0.1355
87249W        W30302  20.631   6.669  21.761 -0.0451  0.0577  0.0795
87250W        W30303  29.842  32.649   5.523  0.0208 -0.1117 -0.0699
87251W        W30304  23.606   3.849  14.720  0.0016  0.2548  0.1815
87252W        W30305  23.840   5.777  26.546 -0.0224 -0.0841  0.2314
87253W        W30306  13.260   9.284  27.832 -0.0942  0.0283  0.0303
87254W        W30307  30.841  28.818   1.130 -0.2095 -0.0215  0.2163
87255W        W30308  11.030  20.260   0.277 -0.0765  0.0288  0.1747
87256W        W30309  14.017  10.101  22.502  0.1527  0.0501 -0.1917
87257W        W30310  17.824   5.265  22.830 -0.3151 -0.0409 -0.2673
87258W        W30311  18.894   2.485  14.613  0.2368 -0.0810 -0.1081
87259W        W30312  29.103   8.593  24.520 -0.4081 -0.1834 -0.0755
87260W        W30313   9.066  20.322  16.353 -0.0363  0.1113 -0.0356
87261W        W30314   3.302   4.711   3.314 -0.2682 -0.6015  0.0933
87262W        W30315  24.553  31.156  28.330  0.0433  0.1159 -0.1181
87263W        W30316  29.392  26.506  28.789  0.0165 -0.2352  0.0459
87264W        W30317  12.711  22.492   2.183  0.2701  0.1945  0.2872
87265W        W30318  23.414  27.491   3.498  0.0304  0.0781 -0.0346
87266W        W30319  28.948   7.436   0.939 -0.0922 -0.1466 -0.0003
87267W        W30320  12.072  14.805  24.957 -0.0070 -0.2095 -0.1480
87268W        W30321  34.162   3.408   9.694  0.0686 -0.1297  0.0846
87269W        W30322  24.783  24.593  27.791  0.1867  0.0813  0.1314
87270W        W30323   5.845  19.444   9.284 -0.1259  0.0972 -0.1890
87271W        W30324  21.459  33.726   1.833  0.0280  0.1279  0.1860
87272W        W30325   3.669   8.210   8.652 -0.0299 -0.1285  0.2846
87273W        W30326   5.202  16.902  19.547 -0.2170  0.0393  0.3480
87274W        W30327  28.939  32.867   4.896 -0.1565 -0.2361 -0.1482
87275W        W30328  28.703  27.483   1.684  0.1322 -0.0994 -0.1916
87276W        W30329  31.134  11.376  21.759  0.2424  0.2083  0.0048
87277W        W30330  19.099   4.734  20.262  0.0588  0.0644  0.2231
87278W        W30331  22.268  11.147  22.042  0.1779  0.1083 -0.0970
87279W        W30332  18.945  11.050  17.862 -0.1311  0.1109 -0.1255
87280W        W30333   3.076   7.789  24.262 -0.4728 -0.1593  0.2585
87281W        W30334  18.610  24.324  14.146 -0.3320  0.4201 -0.0546
87282W        W30335  12.964  25.115  16.174  0.0409 -0.0910  0.1576
87283W        W30336  15.722  12.390   1.836 -0.2063  0.3830 -0.0415
87284W        W30337  27.877  11.677   5.687  0.1686 -0.2568  0.0583
87285W        W30338  14.753   6.722  23.190 -0.0192  0.0350 -0.2158
87286W        W30339  27.141   0.008   3.639  0.2247  0.3339 -0.0915
87287W        W30340  28.861   9.621  19.398  0.0372  0.0099 -0.0973
87288W        W30341  11.365  10.083  20.239 -0.1748  0.0364 -0.1163
87289W        W30342  22.234  25.253  21.836  0.0602  0.5072  0.0222
87290W        W30343  17.532   4.649  20.068 -0.0200  0.0938  0.1032
87291W        W30344  26.900   6.026  24.029  0.2297 -0.1632  0.0266
87292W        W30345  31.027  16.461  23.905  0.1350  0.1154 -0.0547
87293W        W30346   2.821   2.159  15.870  0.1601  0.2173  0.1213
87294W        W30347  28.289  14.180  26.560 -0.1695  0.0261  0.1059
87295W        W30348   8.905  13.962  26.039 -0.0916 -0.0901 -0.0414
87296W        W30349   9.473   5.447  22.313  0.0081  0.3784  0.0289
87297W        W30350  19.746  16.104  13.388 -0.0236 -0.0431  0.1654
87298W        W30351  28.474   0.471  17.165  0.0314 -0.1350  0.1713
87299W        W30352  17.070  19.179  15.376  0.3471 -0.1319 -0.3649
87300W        W30353  17.499   4.420  27.321  0.2814  0.0323 -0.1158
87301W        W30354  27.160  11.249  23.061 -0.1164 -0.0130 -0.1680
87302W        W30355  17.748   7.055  28.270 -0.0113 -0.0004 -0.0142
87303W        W30356  19.309   3.898  15.027  0.2261  0.0543 -0.0803
87304W        W30357  30.327  11.440  25.099  0.3802 -0.0801  0.0534
87305W        W30358   3.086  23.183   5.850  0.1175 -0.2092  0.0607
87306W        W30359  29.265   5.920  17.409  0.3221 -0.2794 -0.1744
87307W        W30360  31.793  27.524  24.182  0.1606  0.3934  0.1458
87308W        W30361   8.162  34.453  25.304  0.0961  0.0713  0.1622
87309W        W30362   6.922   7.439  18.649  0.2115  0.1536  0.0747
87310W        W30363  28.978  12.454  20.348 -0.0913  0.0649  0.1873
87311W        W30364  16.077   7.236  22.175 -0.1284  0.2223 -0.0270
87312W        W30365  15.367  13.701  21.071  0.3346  0.0861 -0.0603
87313W        W30366  29.840   7.299  14.713 -0.2762  0.1292  0.1876
87314W        W30367  13.632  32.424   2.240  0.1592 -0.2173 -0.2465
87315W        W30368  31.457  15.149  19.579 -0.0143 -0.0350 -0.5045
87316W        W30369  24.925  16.771  21.538  0.0366 -0.0236 -0.0057
87317W        W30370  30.882   0.521  23.655  0.0549  0.0522 -0.4384
87318W        W30371  18.605  33.161   7.711  0.1132 -0.0394  0.2702
87319W        W30372  24.524   7.024  29.114 -0.0911 -0.4245 -0.1132
87320W        W30373   9.190   7.063  19.796  0.4031  0.1749  0.0011
87321W        W30374  30.578   9.913  26.443  0.0505 -0.0593 -0.3656
87322W        W30375  23.246  17.563  24.567  0.1064 -0.0220  0.1010
87323W        W30376  18.831   1.461  20.064  0.0917  0.1130  0.0077
87324W        W30377   8.605  29.710  21.931 -0.1674 -0.1298 -0.1427
87325W        W30378  20.280   7.466  27.291  0.3654 -0.0593  0.5289
87326W        W30379  24.656  12.146   3.336 -0.0596 -0.1309  0.0132
87327W        W30380  23.747  26.217   0.904  0.3542 -0.1993 -0.3394
87328W        W30381   3.437   3.531  25.221  0.2220  0.1755 -0.3375
87329W        W30382  22.713   2.508  15.955 -0.1430  0.0874 -0.0838
87330W        W30383  11.605  28.659  13.715 -0.0953  0.0034  0.0771
87331W        W30384  15.016   9.137  22.345  0.1458 -0.1536  0.2137
87332W        W30385  31.573  11.541   5.538  0.1908 -0.3345 -0.0481
87333W        W30386  24.113  11.533  16.885 -0.0270  0.0735  0.1295
87334W        W30387  27.862  13.810   1.338  0.0068 -0.2459  0.1415
87335W        W30388  31.355   1.542  20.279  0.1633  0.1152  0.2439
87336W        W30389  22.041   7.224   6.073 -0.2548  0.3941 -0.0746
87337W        W30390  21.836   6.008  14.785  0.2085 -0.2841  0.1519
87338W        W30391   8.862  32.908  26.125  0.0548  0.3008 -0.0989
87339W        W30392  29.418   3.886   6.889 -0.1460 -0.1699  0.1111
87340W        W30393   8.517  12.559  19.273  0.1764  0.2410  0.2161
87341W        W30394  23.359  26.906   0.860  0.2409 -0.1133 -0.0403
87342W        W30395  28.373  17.129   6.479 -0.0672 -0.2315  0.0605
87343W        W30396  10.170  12.024   7.707 -0.0954 -0.1487 -0.2356
87344W        W30397  24.581   4.698   4.839 -0.1759  0.0679 -0.0137
87345W        W30398  18.482  20.655  28.944 -0.0508 -0.1933  0.0318
87346W        W30399  25.281   0.667  28.511  0.1860  0.0533  0.1772
87347W        W30400  12.969  13.327  16.214 -0.2689 -0.2135 -0.1220
87348W        W30401   7.168  12.649  19.777 -0.2636  0.1278 -0.2168
87349W        W30402  20.233  34.204  23.544 -0.0956  0.2920  0.1303
87350W        W30403  20.982  19.863  28.294  0.0786 -0.2889  0.2410
87351W        W30404  25.676  24.958  15.162  0.0016  0.0254 -0.0417
87352W        W30405  30.722   9.066  28.258 -0.2346 -0.5663  0.2343
87353W        W30406  33.612  19.686  20.202  0.0370  0.2264  0.0820
87354W        W30407  11.637   0.111  16.050 -0.1844 -0.1349  0.3343
87355W        W30408   7.295   8.401  20.431  0.1678 -0.1258  0.0124
87356W        W30409  12.611  30.092   2.344 -0.0888  0.3172 -0.1297
87357W        W30410  11.754   8.149  19.486 -0.1847  0.0470  0.1004
87358W        W30411  24.990  19.776  27.673  0.0108  0.1364 -0.1464
87359W        W30412  17.286   6.992  27.901  0.0402  0.0047  0.0650
87360W        W30413  26.524   9.812  21.965 -0.2278 -0.2300  0.1728
87361W        W30414  11.144  17.538   7.761  0.0888 -0.0773  0.3526
87362W        W30415  12.743  20.206   1.111 -0.2653 -0.0773  0.1621
87363W        W30416  26.890   7.542  27.633  0.0183  0.0176 -0.1549
87364W        W30417  19.726   0.343   0.810 -0.4411 -0.3505  0.0714
87365W        W30418  14.924  20.689  20.778 -0.2656 -0.0508 -0.2020
87366W        W30419  16.452  14.769  29.159 -0.2049  0.0760 -0.1993
87367W        W30420  28.368  14.193  16.109  0.0591 -0.0321  0.3382
87368W        W30421  20.821  10.401  10.050  0.0704 -0.0802  0.0325
87369W        W30422  28.943  14.688   7.246 -0.1595  0.0008  0.2413
87370W        W30423  17.223  22.123  18.383 -0.1510 -0.0996  0.1428
87371W        W30424  16.084   9.245   8.338  0.3285  0.0124 -0.2017
87372W        W30425  25.440  30.904   7.698 -0.4654  0.1541  0.2471
87373W        W30426  19.048   8.809   5.963 -0.2118 -0.1140  0.1151
87374W        W30427   1.238   9.406  16.237  0.0166 -0.1555 -0.1422
87375W        W30428  14.982   1.789  18.418 -0.0111 -0.0438  0.0105
87376W        W30429  29.959  31.927   6.008 -0.0572 -0.3023 -0.1082
87377W        W30430  21.939  23.352   5.969 -0.2370 -0.1569 -0.1562
87378W        W30431  13.214   6.313  25.811  0.1621  0.0215 -0.0179
87379W        W30432   6.738  13.597   4.228  0.0261 -0.1272 -0.0197
87380W        W30433  18.091  10.261  20.349  0.0722 -0.0579 -0.3771
87381W        W30434  27.152  16.574  20.342 -0.1070 -0.2844 -0.0778
87382W        W30435  10.738  15.005  26.115  0.0976 -0.1176 -0.3773
87383W        W30436  10.067  30.944  18.747  0.1492  0.1064 -0.0152
87384W        W30437  19.320   8.207   7.960  0.1494 -0.2647 -0.1382
87385W        W30438   9.514   1.028  10.252  0.0547  0.0455 -0.3252
87386W        W30439  13.605  26.177  21.642 -0.2504 -0.0478  0.0998
87387W        W30440  17.194  12.675  18.963 -0.2122  0.0610  0.2554
87388W        W30441  13.062  33.800   1.441  0.0462 -0.0438  0.0743
87389W        W30442  32.741  28.503   4.643 -0.4323 -0.1682 -0.4138
87390W        W30443  18.832  16.238  27.002  0.0043 -0.2061  0.2586
87391W        W30444  14.891  16.121  13.893  0.1875  0.3301 -0.0482
87392W        W30445  34.520   5.612  23.387  0.1630  0.1742  0.0663
87393W        W30446  31.021  19.620  22.921 -0.1771  0.0464 -0.3598
87394W        W30447   5.957  14.412   6.686 -0.0770 -0.2957  0.1661
87395W        W30448  30.204  28.804  20.694  0.0496  0.2441  0.0977
87396W        W30449  20.439  22.742  20.508  0.1324 -0.1078 -0.1210
87397W        W30450  20.175  10.054  27.687 -0.0391  0.0959  0.1363
87398W        W30451  15.153  10.182   4.135 -0.0569 -0.1626  0.0515
87399W        W30452  20.799  11.281  27.715 -0.0179 -0.0742 -0.0280
87400W        W30453  19.915  16.306  22.532  0.1657  0.0124  0.1702
87401W        W30454   7.486  33.568  22.466  0.0432 -0.1072  0.1433
87402W        W30455  25.483  19.894  16.079 -0.0830  0.0096  0.1470
87403W        W30456  27.538  18.956   2.427 -0.1385  0.0972 -0.4972
87404W        W30457  17.304   7.835   2.119 -0.0771 -0.0547 -0.1179
87405W        W30458   7.638  14.964  27.447  0.1188 -0.2754  0.1447
87406W        W30459  18.713   3.516  18.170 -0.0087 -0.3755  0.0696
87407W        W30460  23.460   3.948   1.721 -0.0570 -0.1078  0.1588
87408W        W30461  25.186  34.543   0.528 -0.1203  0.2558 -0.1110
87409W        W30462   8.092  16.191  15.793 -0.0137  0.0769  0.1683
87410W        W30463  24.778  14.111  29.086  0.0795  0.4249 -0.1484
87411W        W30464  14.138  22.947   6.631  0.0048 -0.1324 -0.1732
87412W        W30465  17.801  18.129   5.351  0.1261  0.2901  0.1220
87413W        W30466  27.902  29.929  23.452 -0.0487  0.3602 -0.3203
87414W        W30467   5.054  14.771   6.885  0.2571  0.1881  0.2342
87415W        W30468  16.028  14.365   5.043  0.0725 -0.0728 -0.0300
87416W        W30469  15.411  18.606   7.229  0.2186  0.0545  0.0894
87417W        W30470  21.864  26.074  25.188  0.3505  0.0566 -0.1473
87418W        W30471  21.359  24.316  21.472 -0.1183  0.1234  0.0917
87419W        W30472   5.108  15.835   7.480 -0.3216 -0.0780  0.4083
87420W        W30473  23.888  17.971  14.931 -0.4377 -0.0050  0.2095
87421W        W30474  30.176  13.997  15.102 -0.5475  0.2165 -0.0784
87422W        W30475  16.852  18.914   9.220 -0.0205 -0.3020  0.2168
87423W        W30476  19.715  13.175   0.219 -0.1685 -0.2763  0.0216
87424W        W30477  23.207   3.105   2.965 -0.1716 -0.0901 -0.2156
87425W        W30478   9.891   7.732  19.688 -0.1160  0.0602  0.1097
87426W        W30479  26.883   8.803   8.995 -0.1679  0.0304 -0.0583
87427W        W30480  25.583  11.203   1.205  0.3358  0.0683  0.4101
87428W        W30481  16.777   9.004   7.072 -0.0164  0.1497 -0.0442
87429W        W30482  16.165  13.134   7.795  0.0448  0.0591  0.2990
87430W        W30483  11.019   0.957  24.775  0.0164 -0.0289  0.0801
87431W        W30484   1.672   7.525   9.353 -0.0481  0.1132  0.1405
87432W        W30485   2.675  23.799  16.923 -0.1296  0.3147  0.2181
87433W        W30486  29.741   7.637  16.248  0.5517  0.0418 -0.2669
87434W        W30487  25.388  28.263  14.393  0.0792 -0.2493  0.2259
87435W        W30488  19.026   0.151   4.311 -0.1304 -0.1085 -0.0194
87436W        W30489  19.519  11.576  23.826  0.3255 -0.1868 -0.1860
87437W        W30490   9.347   6.303   9.163  0.0281  0.2108 -0.1009
87438W        W30491   3.685   8.455  25.394  0.0125 -0.2888  0.0551
87439W        W30492  24.749   2.575  23.777 -0.1354  0.0750  0.0096
87440W        W30493  15.604  25.284  27.675 -0.0993 -0.0041 -0.2751
87441W        W30494  11.617  15.585   7.806 -0.1508  0.0340  0.1059
87442W        W30495  20.535  11.321  28.335  0.3170 -0.1980 -0.0478
87443W        W30496  15.647   2.068   8.371  0.0543  0.0358 -0.0016
87444W        W30497   0.221   9.509   2.865  0.1318 -0.1362 -0.2981
87445W        W30498  10.566  10.443  20.949 -0.0833  0.1978 -0.1312
87446W        W30499  26.503   7.171  28.620 -0.0640 -0.0834 -0.0597
87447W        W30500  16.701  32.828  21.085 -0.0086  0.0019 -0.0546
87448W        W30501  23.202   2.030   8.948 -0.0091 -0.1906 -0.0137
87449W        W30502  23.184  12.402   6.874 -0.2522 -0.0938  0.1690
87450W        W30503  17.309  22.008   9.707 -0.1185  0.2506  0.0253
87451W        W30504  19.555   6.784   2.997 -0.0297 -0.1352  0.0766
87452W        W30505   6.818  14.572  27.168  0.1541 -0.0982  0.0771
87453W        W30506   8.883  22.273  13.992  0.0001 -0.0860 -0.2897
87454W        W30507  19.314  13.474  25.891  0.1296  0.0471 -0.2752
87455W        W30508  15.327  29.151  22.471  0.0623 -0.2379  0.0379
87456W        W30509  13.516  13.548   6.475 -0.1628  0.2309 -0.0024
87457W        W30510  27.916  13.097  19.713 -0.0517  0.1142 -0.0802
87458W        W30511  16.710  16.086   7.045  0.1417  0.0374  0.0332
87459W        W30512  15.871   6.927  26.794 -0.0293 -0.3489 -0.1650
87460W        W30513  21.629   4.563  14.133 -0.0156  0.1454  0.0607
87461W        W30514  10.615  15.905  14.853 -0.0254 -0.1674 -0.1698
87462W        W30515  26.201  13.705   2.394 -0.2539 -0.0445  0.0645
87463W        W30516  30.111   6.480   0.952  0.1018  0.1627 -0.0696
87464W        W30517  10.549  16.743   5.119 -0.0510 -0.1899  0.0347
87465W        W30518  27.131   4.635   2.948  0.1492  0.0321  0.2524
87466W        W30519  21.929   7.950   2.610 -0.0684 -0.1139 -0.1119
87467W        W30520  12.373   1.254  17.674 -0.3588  0.3401 -0.3745
87468W        W30521  30.547  14.563  20.427 -0.0536  0.1105  0.0849
87469W        W30522  16.345  22.759  24.593  0.0051  0.2550  0.0938
87470W        W30523  24.282   2.586  22.964 -0.4131 -0.2137 -0.6084
87471W        W30524  30.499  15.840  25.621  0.0150  0.0469 -0.1296
87472W        W30525  31.935   0.576  18.428 -0.0688  0.2540 -0.1382
87473W        W30526  13.086  13.801   4.481  0.2119 -0.1962 -0.0177
87474W        W30527  11.539   6.804  25.849 -0.1525  0.1723  0.1695
87475W        W30528   1.623   5.831   6.020 -0.1930 -0.0123  0.0735
87476W        W30529  14.557   1.981   9.029  0.1451  0.0171  0.3712
87477W        W30530  32.489  12.534   2.453  0.0640 -0.0183  0.3613
87478W        W30531  21.653  34.650  18.539 -0.2954 -0.0121 -0.0160
87479W        W30532  21.322   4.576  27.165  0.1846 -0.0937 -0.0873
87480W        W30533   4.464  34.627   8.448  0.1850 -0.1112  0.1979
87481W        W30534  20.149  11.082   4.212 -0.1710  0.0428 -0.3093
87482W        W30535  27.358  14.285  26.798  0.0525  0.2748  0.5144
87483W        W30536  23.076  18.143   0.385  0.0045 -0.1834  0.0299
87484W        W30537  21.766   9.444  18.027  0.1110 -0.1449  0.3277
87485W        W30538  23.526  11.037  15.541  0.1209 -0.1148 -0.2734
87486W        W30539  25.016   5.691  21.251 -0.3733 -0.4047  0.1116
87487W        W30540  13.990   6.822  22.762  0.1472 -0.0418 -0.3769
87488W        W30541  21.172   6.332   1.469 -0.0971  0.0395  0.1289
87489W        W30542  20.062   2.773  22.831 -0.1911 -0.1155 -0.0066
87490W        W30543  34.015   8.394   5.534 -0.2307 -0.2105 -0.1019
87491W        W30544  25.232  29.931  15.878  0.0939 -0.2021  0.3857
87492W        W30545  12.662  17.097  21.589  0.0059  0.1191 -0.0534
87493W        W30546  23.164  20.554  17.686  0.2908 -0.2384 -0.2251
87494W        W30547  22.647   8.357   0.542 -0.1564  0.3647  0.1190
87495W        W30548  28.504   0.531  27.925  0.3012 -0.2174  0.0771
87496W        W30549  12.208  25.191  15.841 -0.2193  0.0263 -0.0146
87497W        W30550  14.391  16.055  14.247 -0.0419 -0.1754  0.1774
87498W        W30551  22.289  10.114   2.794  0.1868  0.2883 -0.2055
87499W        W30552  22.099  34.543   6.020  0.2657  0.1075 -0.1317
87500W        W30553  24.553   4.187  22.890  0.0682 -0.1212  0.0944
87501W        W30554  12.032   9.925   5.655  0.2442  0.1060 -0.0462
87502W        W30555  21.489  19.094  14.357  0.1822 -0.2005 -0.0022
87503W        W30556  23.290   3.028   1.486  0.1827  0.1411 -0.1233
87504W        W30557  33.661   7.035  28.170 -0.1107  0.0624  0.0598
87505W        W30558  10.009  33.622   2.385  0.1952  0.3061  0.1454
87506W        W30559  24.978  13.456   7.512  0.0974 -0.1266  0.0802
87507W        W30560  31.857  26.715   7.817 -0.2720 -0.1687  0.1867
87508W        W30561   1.022   3.027  21.880 -0.1322 -0.0748  0.0350
87509W        W30562   1.119  33.389  19.708 -0.0195 -0.0023  0.2184
87510W        W30563  22.823   7.889   7.475 -0.0399  0.2985  0.0061
87511W        W30564   5.270  15.658  20.924  0.0654 -0.2475  0.1734
87512W        W30565  17.242  20.729   4.613 -0.0926  0.0240  0.0604
87513W        W30566  29.042   5.845   7.603  0.0069  0.2210 -0.2331
87514W        W30567  12.303  13.982   4.802 -0.1845  0.4367 -0.1156
87515W        W30568  15.752  10.235  13.775 -0.0897  0.3004  0.2247
87516W        W30569  17.152  21.481  24.919 -0.2022  0.0449 -0.2652
87517W        W30570  29.700   1.069   1.242 -0.3502 -0.2428 -0.1088
87518W        W30571   7.209   1.464  26.659 -0.3180  0.0919 -0.0947
87519W        W30572   9.201   2.980   7.951 -0.1413 -0.0116 -0.3296
87520W        W30573  13.677  33.905  22.180 -0.4419  0.2580 -0.1159
87521W        W30574  19.130  22.117   1.572 -0.0322  0.2830  0.5431
87522W        W30575  15.252  17.181  26.078  0.0585 -0.1003  0.1455
87523W        W30576  23.672   7.000  28.881  0.2530  0.0886 -0.3591
87524W        W30577  10.247  16.078   5.962 -0.0630  0.3567  0.1290
87525W        W30578  23.603  15.050   5.505  0.1054 -0.0055 -0.1204
87526W        W30579  20.873   6.324  16.926  0.0328 -0.0349  0.1203
87527W        W30580   6.324   1.894   4.984 -0.0721  0.0871  0.3625
87528W        W30581  14.520   2.278  24.916  0.1456  0.1989  0.2163
87529W        W30582  24.997  18.287  13.733  0.1062  0.3183  0.3387
87530W        W30583  19.213   5.041  15.994  0.2075 -0.0466  0.1866
87531W        W30584  11.995  28.735   5.288 -0.0862 -0.1863  0.0305
87532W        W30585  22.490   1.897   6.783 -0.1597  0.2880 -0.1178
87533W        W30586  33.661   9.293  25.420 -0.0007  0.0293  0.2372
87534W        W30587   5.225  24.934  27.093  0.1077  0.1170  0.2086
87535W        W30588  22.808   5.207   1.666  0.2261 -0.2223 -0.2840
87536W        W30589  27.174  14.525  27.801 -0.4218 -0.3305  0.1170
87537W        W30590  12.406  33.742   8.975 -0.0521 -0.3956  0.1960
87538W        W30591  18.214  30.444  27.071 -0.0353  0.0217  0.2126
87539W        W30592  17.443   2.356  10.523 -0.0548  0.1105 -0.1866
87540W        W30593  22.745   1.969   8.684 -0.1623  0.0815 -0.2409
87541W        W30594  11.793   6.919   8.041 -0.0072 -0.0931 -0.3296
87542W        W30595  23.656   8.537  14.983 -0.1433  0.0765  0.0724
87543W        W30596  13.610  13.724  25.182  0.2652  0.0836 -0.0224
87544W        W30597  26.060   0.641   4.896  0.1719 -0.0188 -0.0942
87545W        W30598   4.538  29.737  24.095 -0.1724 -0.0203 -0.4467
87546W        W30599  25.899  25.054   4.038 -0.0799  0.0358 -0.0280
87547W        W30600  24.163   2.202  20.893 -0.1588  0.1178  0.0230
87548W        W30601   5.392   8.676  27.244 -0.2276  0.1764 -0.1387
87549W        W30602  14.672   0.460   5.282 -0.3485 -0.0537  0.2744
87550W        W30603  15.108  33.391   4.695 -0.1377  0.2125  0.2283
87551W        W30604  15.953  31.246  28.369 -0.0905  0.0545  0.1374
87552W        W30605  29.235  17.553  28.865 -0.1990  0.0263  0.2447
87553W        W30606  25.290  12.273   5.879  0.0250  0.0122 -0.1068
87554W        W30607  25.722   7.047  23.060  0.1054  0.2190 -0.0679
87555W        W30608  10.805  22.608  26.308 -0.1403 -0.1268 -0.3762
87556W        W30609  13.770  29.642  20.419 -0.2870  0.2746 -0.4017
87557W        W30610  18.468  22.931   1.326  0.0303 -0.1148  0.2445
87558W        W30611  20.002   2.472   1.372 -0.1252  0.1154  0.0130
87559W        W30612  24.905  10.388  24.688  0.2092  0.1184  0.1460
87560W        W30613  21.745   5.245  16.949 -0.0372 -0.0092  0.1156
87561W        W30614  13.493  24.873   8.878  0.1486 -0.2031 -0.0054
87562W        W30615  13.671   3.723  16.579  0.0404 -0.1318 -0.0668
87563W        W30616   0.229  32.553  21.797 -0.0556  0.0421 -0.0943
87564W        W30617   8.682   6.899   1.217  0.4402 -0.5528 -0.0593
87565W        W30618   7.069  19.000  18.986 -0.1236  0.0640 -0.2825
87566W        W30619  23.435   6.663   6.845 -0.1127 -0.2286  0.2367
87567W        W30620  19.223   9.933   2.961  0.1472  0.0337 -0.0403
87568W        W30621  18.740   8.745  25.843  0.0063  0.1055 -0.0454
87569W        W30622  10.087  10.627   4.033  0.1020 -0.1681 -0.2032
87570W        W30623   2.114   7.890   3.815 -0.0526 -0.1188  0.1463
87571W        W30624  19.613   8.601   4.721  0.3621  0.0382  0.4549
87572W        W30625  17.002   7.286   6.632 -0.0064 -0.3177  0.0753
87573W        W30626  10.719  16.767   8.316 -0.2449  0.1311 -0.1059
87574W        W30627  33.124  10.090   3.945  0.1852 -0.1530 -0.1879
87575W        W30628  25.298  14.106  19.154  0.1220 -0.2771 -0.2228
87576W        W30629   8.789   7.229   5.353  0.0122  0.1219  0.3124
87577W        W30630   8.924   0.564  21.900 -0.0734  0.1167 -0.1607
87578W        W30631  15.182   5.073  15.586  0.0595 -0.0292 -0.1527
87579W        W30632  26.588  10.272  28.891 -0.0999 -0.0779  0.0142
87580W        W30633  29.616  15.475  15.358  0.1942 -0.0567  0.1278
87581W        W30634  11.320  31.364  26.328 -0.1083  0.3985 -0.0270
87582W        W30635  26.715   3.923   2.326  0.1750  0.0820 -0.2601
87583W        W30636  19.252  14.396  14.401 -0.4584 -0.0515  0.2288
87584W        W30637  10.198  31.793  26.811 -0.0097 -0.2292 -0.0960
87585W        W30638  25.668   7.428  27.798  0.0298  0.1937 -0.3055
87586W        W30639  23.939   5.956  20.654  0.2245  0.1078  0.0202
87587W        W30640  22.562  27.738   1.547 -0.4490  0.1878 -0.3110
87588W        W30641  28.550   7.140   1.649  0.0204 -0.2447  0.2111
87589W        W30642   0.135  27.788   4.732 -0.1589 -0.0847 -0.3777
87590W        W30643  14.915  34.203  26.079  0.3261 -0.3590 -0.0688
87591W        W30644  27.713   3.017   7.194 -0.1047  0.0622  0.0838
87592W        W30645  23.425   7.902   0.007 -0.0854 -0.1159 -0.2467
87593W        W30646   3.116   6.766   8.462  0.0031  0.0756 -0.1295
87594W        W30647  10.868  22.362   2.068 -0.3257  0.1154  0.0458
87595W        W30648  17.198  11.390   3.355 -0.2275  0.1446  0.0501
87596W        W30649  28.253  17.772  23.103 -0.1016  0.1458  0.1592
87597W        W30650  25.741  29.981  28.569  0.0842  0.2127 -0.2277
87598W        W30651  15.852  21.525  22.350  0.0544  0.2645  0.1474
87599W        W30652   8.550   8.585  24.432  0.0200 -0.0435  0.1231
87600W        W30653  18.199  13.048  28.123 -0.2940  0.0223  0.2919
87601W        W30654   4.779   4.646  26.590  0.2450  0.0802 -0.1458
87602W        W30655  22.734  16.643  28.989  0.0101 -0.0442  0.2683
87603W        W30656  19.698  14.497  13.773  0.0927  0.1392  0.0285
87604W        W30657   8.849  10.698   9.361 -0.1423  0.0414  0.2382
87605W        W30658  26.797  27.909   9.815 -0.1257  0.3549  0.0325
87606W        W30659   9.770  15.261   1.872 -0.1202  0.1248  0.2603
87607W        W30660  25.216  34.446  16.356 -0.2086 -0.0408 -0.1935
87608W        W30661  25.608   3.197   8.490  0.3233  0.2724  0.1837
87609W        W30662  19.916   5.311  27.970 -0.0502  0.4393 -0.1936
87610W        W30663  24.844  13.240  13.593  0.0634  0.4166 -0.0548
87611W        W30664  26.370  29.687  27.490  0.3072 -0.0007  0.0914
87612W        W30665   7.264   7.605  16.073 -0.1267  0.1031  0.0410
87613W        W30666  28.144   9.245   3.928  0.1126 -0.1046 -0.0396
87614W        W30667   0.305   6.101  22.729 -0.2999 -0.2500 -0.3314
87615W        W30668  27.680   5.372   3.010  0.2656 -0.1724  0.1252
87616W        W30669  18.172   7.315  17.923  0.2313  0.0642  0.2741
87617W        W30670  21.820  23.338  26.123  0.1522 -0.1504  0.4923
87618W        W30671  27.263  21.405  14.592 -0.2894  0.0150  0.1054
87619W        W30672  24.946  19.823   5.620 -0.2373  0.2932 -0.0366
87620W        W30673  18.322  10.649  16.568  0.0040 -0.1425 -0.0377
87621W        W30674  11.860  14.760  19.182  0.1534  0.0764 -0.2247
87622W        W30675  11.960  24.233   8.355 -0.0806 -0.3746 -0.1554
87623W        W30676   2.781  32.453  24.383 -0.0273 -0.1491  0.0623
87624W        W30677   1.158  24.532   1.363 -0.2112  0.0275  0.0161
87625W        W30678  26.041  11.889   7.920 -0.0433 -0.3268  0.3264
87626W        W30679   0.482  21.123   9.144 -0.1385  0.2426 -0.0781
87627W        W30680   2.559  30.340  23.240 -0.1091 -0.1492 -0.0116
87628W        W30681  22.315  11.142  20.492 -0.0549 -0.0384 -0.1912
87629W        W30682  31.947   8.176  28.085  0.1092 -0.2012 -0.0134
87630W        W30683  26.829   7.253  24.667 -0.0358 -0.2859 -0.0671
87631W        W30684  29.040  22.691  25.476  0.1126  0.1078 -0.0675
87632W        W30685  19.163   0.260  18.821 -0.1599  0.3745 -0.0801
87633W        W30686   8.624  22.266  25.576 -0.1588 -0.2698 -0.0279
87634W        W30687  15.819  10.677  10.178  0.0998 -0.1675 -0.0257
87635W        W30688  14.579   0.783   5.619  0.0195  0.4544 -0.0079
87636W        W30689   5.611  15.828  23.674 -0.3729  0.0882 -0.1458
87637W        W30690  28.055   6.017  27.347 -0.1781  0.0672 -0.1278
87638W        W30691  14.193  25.331   3.221  0.0843  0.2886 -0.2155
87639W        W30692   6.012   7.797  20.530  0.0959  0.2211 -0.0591
87640W        W30693  28.834  19.050  19.637  0.2678 -0.0225 -0.1009
87641W        W30694   3.465  22.696  22.351  0.1022 -0.1964 -0.0503
87642W        W30695  16.815  21.721  18.278 -0.0895  0.2837  0.1689
87643W        W30696   4.628  18.647  19.428 -0.1534  0.1080 -0.2352
87644W        W30697  23.701  25.229   2.218 -0.0822  0.2701 -0.2683
87645W        W30698   9.314   7.721  28.361  0.0094 -0.0603  0.1361
87646W        W30699  24.914   0.331  26.141  0.6540 -0.1184 -0.0587
87647W        W30700  14.570  20.624   0.506 -0.1924 -0.0267  0.2665
87648W        W30701  13.202  12.344  16.024 -0.1775  0.1434  0.0492
87649W        W30702  12.861  15.121   9.651  0.2651  0.2347 -0.2363
87650W        W30703  31.784   9.880  27.349  0.0354 -0.1009  0.0719
87651W        W30704  13.275   4.057  25.118 -0.2802  0.1291  0.1981
87652W        W30705  22.692  25.333  16.476 -0.0237 -0.0314  0.2794
87653W        W30706  13.431  14.098   4.250  0.0052 -0.2469  0.1630
87654W        W30707  32.400   9.488   5.695  0.0337  0.1585  0.2745
87655W        W30708  22.765   4.458  22.362  0.1892 -0.1916  0.1238
87656W        W30709  19.327  12.386  14.932  0.2553  0.1060 -0.2256
87657W        W30710  25.883   9.553  18.406  0.2834  0.0388  0.2360
87658W        W30711   5.836  17.742  23.465 -0.2002 -0.0658  0.0866
87659W        W30712  10.398  28.470  20.287  0.3454  0.1591  0.1946
87660W        W30713   8.816   8.941  22.274  0.3030 -0.0050 -0.1400
87661W        W30714  34.352  16.070  19.969 -0.0580 -0.1417  0.0320
87662W        W30715  21.897  15.415   7.078 -0.5784 -0.0203 -0.4643
87663W        W30716  24.032  10.400  19.702 -0.0025  0.1978 -0.0885
87664W        W30717  25.072  33.012  18.503 -0.1297 -0.1256  0.1823
87665W        W30718  13.956  11.516  16.890  0.1391 -0.0176  0.0215
87666W        W30719  21.105   3.054  20.047  0.0481  0.0388 -0.3097
87667W        W30720  31.312  30.285   4.955 -0.0662 -0.3528  0.0974
87668W        W30721  22.768  14.995  13.611 -0.1854 -0.1932 -0.1345
87669W        W30722  27.778  31.901  22.011 -0.0454 -0.0345  0.0084
87670W        W30723  31.430  23.026   9.446 -0.1255  0.1625 -0.3395
87671W        W30724  10.902  29.610  24.612  0.4929 -0.0928 -0.2020
87672W        W30725  16.216  28.139  15.408  0.2301  0.0708 -0.0266
87673W        W30726  26.110  11.165  24.599 -0.0564  0.1254 -0.0855
87674W        W30727  26.264  13.004   5.277  0.2021  0.0358  0.2129
87675W        W30728  22.130   1.167   3.102 -0.2016  0.2616 -0.0410
87676W        W30729  16.879  12.528  16.637  0.1812  0.0960  0.2362
87677W        W30730  19.281  14.356   2.802  0.1346  0.2119 -0.1412
87678W        W30731   6.662   2.622   6.807  0.0202 -0.1227 -0.0055
87679W        W30732  26.189  12.898  16.637 -0.2846 -0.1900  0.1987
87680W        W30733  30.936   1.118  22.272  0.0960 -0.1274 -0.0909
87681W        W30734   9.139  34.168  18.777 -0.1876  0.3736  0.1775
87682W        W30735  15.402   3.418   6.136 -0.1835  0.0086  0.0015
87683W        W30736   6.357  17.586  20.847  0.0056  0.2616 -0.1810
87684W        W30737  19.092  27.338   3.027 -0.1924  0.2378  0.1704
87685W        W30738  32.647  19.154  28.910  0.0067  0.1619  0.2446
87686W        W30739  28.668  19.626   1.975 -0.0071  0.3634 -0.2023
87687W        W30740  27.648  20.464  26.799  0.0406  0.1959 -0.2069
87688W        W30741  17.518  11.146   6.200  0.1965 -0.0748  0.0338
87689W        W30742   7.894   9.732   7.724 -0.0545 -0.1075  0.2479
87690W        W30743  30.378  30.886  19.652  0.0630  0.0398  0.1202
87691W        W30744  29.583  10.078  28.976 -0.1625  0.1056  0.1725
87692W        W30745  20.640  29.625   8.553  0.0854 -0.1936 -0.0333
87693W        W30746  28.213  19.606   1.359 -0.0509  0.2848  0.0333
87694W        W30747  23.955   7.505  20.786  0.0379 -0.4169 -0.3355
87695W        W30748  16.490   5.291   6.485  0.0062  0.2712 -0.2050
87696W        W30749   7.876  23.426  14.036  0.1598  0.0938  0.0079
87697W        W30750  14.663   0.362  23.318 -0.4656  0.0701  0.0286
87698W        W30751  28.129   0.975   1.326  0.0538 -0.2177 -0.1761
87699W        W30752  25.883   6.938  27.563 -0.1547 -0.2386 -0.3060
87700W        W30753  13.467  14.718  25.487  0.0394 -0.1838  0.1263
87701W        W30754  25.985  19.540   1.287 -0.0760 -0.0740  0.0115
87702W        W30755  30.911  14.019   9.633 -0.1028 -0.1734  0.2942
87703W        W30756  15.618   3.169  22.714  0.0680 -0.2048  0.2655
87704W        W30757  28.196  13.973  23.039  0.2463 -0.2918  0.0517
87705W        W30758  18.661  19.366   6.282  0.0984 -0.2113 -0.3417
87706W        W30759  26.655  15.942  22.273 -0.2301  0.2004 -0.0046
87707W        W30760   0.862   6.349  18.476 -0.0036 -0.0681 -0.0336
87708W        W30761  19.845   8.242   2.317 -0.0140  0.2253 -0.0503
87709W        W30762  24.238  18.409  14.575 -0.3588 -0.1550  0.0154
87710W        W30763  16.328   0.768   3.994 -0.2408 -0.0312 -0.0928
87711W        W30764  19.965   6.042  27.744  0.0812  0.1106  0.0659
87712W        W30765  29.189  12.683  19.493 -0.2106 -0.3443  0.0606
87713W        W30766  31.184   3.285  21.200  0.0816  0.0567  0.0205
87714W        W30767  18.578  21.981   7.855  0.1860 -0.2169 -0.2523
87715W        W30768  17.325   7.842  20.433 -0.2266 -0.0825  0.1124
87716W        W30769  17.336   4.039  18.016 -0.1202  0.1598 -0.3231
87717W        W30770  22.666  27.049   4.357 -0.0300 -0.0134  0.1378
87718W        W30771  24.843  24.213   4.632  0.3344  0.3014 -0.1312
87719W        W30772   5.053   6.963  19.387  0.0290  0.1721 -0.1198
87720W        W30773   2.768   7.588  18.995 -0.0637 -0.0186  0.0722
87721W        W30774   6.491   3.618  10.419 -0.0861  0.0259  0.0837
87722W        W30775  24.774  15.155  17.380 -0.1419  0.0976  0.1985
87723W        W30776   1.838  27.021  16.937  0.0265  0.0030 -0.1438
87724W        W30777   4.707   9.629   8.980  0.1970  0.2450 -0.0642
87725W        W30778  23.870   6.379   3.254 -0.0266 -0.1530 -0.3205
87726W        W30779  20.166   5.326  28.369 -0.1384  0.0688 -0.1259
87727W        W30780  30.502   2.033  20.944  0.3559 -0.2097 -0.1267
87728W        W30781   5.765   7.789  27.387  0.4584  0.5548 -0.0255
87729W        W30782   9.404   5.378  14.664  0.2572  0.4406 -0.0060
87730W        W30783  20.739   9.974   2.066  0.0519  0.2445 -0.0152
87731W        W30784  19.798   8.445   1.416 -0.1238  0.2867  0.0141
87732W        W30785  28.469   7.751  21.526  0.1584 -0.2912  0.3362
87733W        W30786  11.137  31.696  26.784  0.1152  0.2253  0.2137
87734W        W30787  29.553  29.221   9.468 -0.2096  0.1927  0.2596
87735W        W30788  12.003   1.065   8.275  0.0094  0.0522 -0.0870
87736W        W30789   2.495  14.459  10.012  0.0162 -0.2349 -0.0974
87737W        W30790   8.930   1.604   9.856  0.0605  0.0780 -0.0841
87738W        W30791   8.275  22.746   7.770 -0.0745  0.2813  0.2316
87739W        W30792  13.070  10.525   1.970 -0.1964 -0.5852  0.4577
87740W        W30793  24.309  10.986   6.331 -0.2794 -0.0413 -0.0765
87741W        W30794  27.800  33.173  20.657 -0.1613 -0.1625 -0.3854
87742W        W30795  16.268   5.828   6.452  0.1258  0.1994 -0.0623
87743W        W30796  12.147   7.638   6.302 -0.0616  0.0707 -0.0936
87744W        W30797  13.236  11.367  28.833  0.0114 -0.2690 -0.1077
87745W        W30798  14.463   2.043  21.109 -0.1512 -0.2490  0.1099
87746W        W30799   9.089  11.589   9.013 -0.0168 -0.1037 -0.1451
87747W        W30800  27.149  19.680   2.623 -0.4543  0.1591 -0.1842
87748W        W30801   4.394  20.094  16.119 -0.1021 -0.1130 -0.1483
87749W        W30802  20.846  17.462   1.289  0.1706 -0.0567  0.1829
87750W        W30803  24.351  17.120  17.473  0.2862  0.2096 -0.0120
87751W        W30804  30.944   9.869   5.701 -0.3863  0.2380 -0.1439
87752W        W30805  20.620  18.235   7.830  0.0681  0.0695 -0.4365
87753W        W30806  12.929  34.482   9.415  0.4212  0.2307 -0.0237
87754W        W30807  23.334  24.157   0.362  0.0650 -0.1071  0.0479
87755W        W30808  17.875  15.206   3.802 -0.0626  0.0659  0.3540
87756W        W30809  21.783  13.985  23.470 -0.0065  0.1149  0.1690
87757W        W30810  29.495  17.648  17.458 -0.1839  0.0946  0.1359
87758W        W30811  33.881  32.905  26.348  0.1669  0.2571  0.0322
87759W        W30812  15.157  24.591  18.067  0.0309  0.2080 -0.0481
87760W        W30813  27.028  23.485   0.967  0.0935  0.3397 -0.1080
87761W        W30814  12.838  11.293   7.288  0.0642 -0.0701 -0.4793
87762W        W30815  26.407   4.312   1.000  0.0738  0.0722  0.0971
87763W        W30816   1.469   8.027   9.245 -0.0962 -0.2029 -0.2027
87764W        W30817  26.800   6.210  10.026 -0.0142  0.0292 -0.0108
87765W        W30818  19.137  14.151   6.913  0.2641  0.3164 -0.3018
87766W        W30819  33.219  15.215   1.522  0.2624 -0.2101 -0.1785
87767W        W30820  19.298  17.607  24.844  0.1347  0.3692 -0.2247
87768W        W30821   7.659  30.740  18.776  0.2101 -0.0897 -0.2551
87769W        W30822  15.250  23.637  18.093 -0.0977  0.0609  0.1919
87770W        W30823  25.617   1.859  28.928 -0.0493 -0.0137 -0.1322
87771W        W30824  25.331  17.018  19.203 -0.1173  0.1157  0.0693
87772W        W30825  19.964   6.334   6.471  0.2185  0.1861 -0.1717
87773W        W30826  15.194   8.282   7.860 -0.1806  0.0161 -0.1139
87774W        W30827  20.295  22.284  25.211 -0.1027  0.0739  0.2686
87775W        W30828  15.307  14.077  16.490 -0.0968  0.3364 -0.1050
87776W        W30829   6.031   3.647  19.787  0.0562 -0.3833 -0.0385
87777W        W30830  18.451  24.358   8.882 -0.1736 -0.0685 -0.0048
87778W        W30831   7.334  18.469   5.484  0.0375 -0.0449 -0.0722
87779W        W30832  12.341   2.768  22.923  0.0752 -0.0857 -0.0006
87780W        W30833  26.852  26.499  25.610 -0.2163 -0.1268  0.0598
87781W        W30834  20.411  26.881  19.977  0.0408 -0.3616 -0.0163
87782W        W30835  20.858   3.769   8.534  0.0592  0.3373  0.3388
87783W        W30836  23.606   4.482  10.141 -0.0103  0.0760  0.0069
87784W        W30837  12.111  10.132   9.354 -0.2582  0.4176 -0.2162
87785W        W30838  26.024  12.690  24.093 -0.0140 -0.0367  0.3744
87786W        W30839  12.461  29.545  29.047 -0.0479 -0.1589 -0.2475
87787W        W30840  19.866  18.271  26.236 -0.0657  0.1463  0.0298
87788W        W30841  12.113   7.388  28.953 -0.3323  0.1847 -0.0933
87789W        W30842  13.501   9.944  15.141 -0.3807 -0.2468 -0.0228
87790W        W30843  28.035  16.907  19.880  0.1296 -0.1020  0.2199
87791W        W30844  20.286  10.410  28.020  0.2437  0.1577 -0.0135
87792W        W30845  16.497   0.318   7.694  0.3557  0.0546  0.0536
87793W        W30846  19.979  16.354  21.959  0.2484 -0.1682 -0.1538
87794W        W30847  21.697  12.414  14.973 -0.2539 -0.4312  0.3308
87795W        W30848  20.373  13.324  19.687  0.0395 -0.0132 -0.0585
87796W        W30849  25.318  11.120  21.712  0.2047  0.0810  0.1920
87797W        W30850   7.740  12.869  18.985 -0.0777  0.0687  0.0771
87798W        W30851  19.366  19.678  14.028 -0.1994  0.0822  0.1169
87799W        W30852   3.278  10.189  28.356 -0.1687  0.0878  0.1335
87800W        W30853  30.831  29.980  19.874 -0.2775  0.1104  0.0652
87801W        W30854  19.224   0.296  16.362 -0.0971  0.1509 -0.2133
87802W        W30855  23.347  12.979  17.876  0.1806  0.0123  0.1854
87803W        W30856  14.236  13.032  20.666 -0.1011  0.4318  0.1954
87804W        W30857  11.740   5.573  18.814  0.0843 -0.1032  0.0595
87805W        W30858  28.528  10.156  15.317 -0.2364  0.0418  0.0360
87806W        W30859   1.584  31.241  17.857 -0.2561 -0.0283 -0.2333
87807W        W30860  24.555  10.718  27.917  0.0136 -0.0395  0.1622
87808W        W30861   3.211  19.209  25.110  0.0759  0.3428 -0.1823
87809W        W30862  21.012  12.660  21.998 -0.0269  0.2419 -0.1036
87810W        W30863  20.019  23.287  20.962  0.1922  0.3701 -0.0380
87811W        W30864   3.763  10.695  19.281 -0.2951 -0.1215  0.1279
87812W        W30865  28.487  10.867  16.540 -0.1294 -0.0380  0.0440
87813W        W30866  14.731  32.471  15.577  0.0947 -0.4646 -0.0420
87814W        W30867  24.019   4.815  22.813 -0.0713  0.0414  0.0329
87815W        W30868  12.041   8.980  20.940  0.1126 -0.2598 -0.2386
87816W        W30869   4.050   3.873   1.199  0.1912  0.1768  0.2385
87817W        W30870  20.597   4.096   4.993  0.0840  0.3226  0.3073
87818W        W30871   3.428  25.312  25.667 -0.0518  0.0532 -0.1452
87819W        W30872  21.656   3.206  20.805  0.1509  0.1657 -0.0657
87820W        W30873  18.691   8.830   1.501 -0.0363 -0.1517 -0.3429
87821W        W30874  11.680  33.278  23.385 -0.1866  0.1182 -0.0088
87822W        W30875  24.831   5.071  26.686 -0.3441  0.1445  0.0566
87823W        W30876   1.701  26.560  17.220  0.1666 -0.0144  0.1615
87824W        W30877  32.290   7.110  25.996  0.0923  0.0994 -0.1042
87825W        W30878   4.706   0.780  20.217 -0.0944  0.0869  0.1781
87826W        W30879  22.932  16.837   1.235  0.0650 -0.0408 -0.5235
87827W        W30880  18.644  32.428  28.212 -0.0226  0.3137  0.0343
87828W        W30881   6.957   6.307  26.213  0.3793  0.1919  0.0531
87829W        W30882  17.559  32.747  19.676  0.1335 -0.0297  0.0659
87830W        W30883  14.502  17.614   7.672 -0.0573  0.1337  0.0284
87831W        W30884  33.454  29.395  14.648  0.0742  0.3533 -0.2203
87832W        W30885  23.447   7.070  23.917 -0.2137  0.2630 -0.1144
87833W        W30886  29.878  20.611  18.431  0.0246  0.1536 -0.0548
87834W        W30887  32.832  29.396   0.082 -0.3352 -0.0641 -0.1468
87835W        W30888  12.541   5.109  25.705  0.1044  0.1988  0.0246
87836W        W30889   7.207  25.671   4.909  0.0437 -0.2628 -0.2251
87837W        W30890  25.411   2.650   9.099  0.2561  0.0498  0.4105
87838W        W30891   9.190   5.155   3.714 -0.1492 -0.2877 -0.2917
87839W        W30892  27.122  15.653  18.145  0.2114 -0.0406 -0.1619
87840W        W30893  11.120   9.727  20.602 -0.0514  0.0290 -0.1956
87841W        W30894  32.683  29.059  25.658  0.0733 -0.1644 -0.0201
87842W        W30895   6.216  20.371  20.668 -0.1809 -0.0770 -0.0083
87843W        W30896  15.357   2.008  19.913 -0.0356  0.1529  0.1120
87844W        W30897  15.672  12.266  21.681 -0.1386 -0.3412  0.0345
87845W        W30898  24.448  21.022   0.896 -0.0574  0.1805  0.2246
87846W        W30899  28.843  19.873  14.838 -0.0535  0.0358 -0.2914
87847W        W30900  19.745  19.297  13.334 -0.1391 -0.1102 -0.2371
87848W        W30901   6.027  11.209  25.110 -0.1582  0.0494 -0.0105
87849W        W30902  33.567   7.858  22.541 -0.1588  0.0615 -0.0892
87850W        W30903   2.042  18.020  14.939 -0.0066 -0.2098  0.1189
87851W        W30904  33.843   8.147  14.894  0.1573 -0.0076 -0.0684
87852W        W30905  29.598  14.289  26.037  0.0229  0.1343 -0.4961
87853W        W30906  13.911  21.683  18.237  0.1284 -0.0042  0.0907
87854W        W30907  10.044   3.253  20.317  0.0095 -0.0423  0.0522
87855W        W30908  19.044  25.474  22.628 -0.4241  0.1037 -0.0890
87856W        W30909  21.258   7.714  18.900 -0.0510 -0.2033  0.0533
87857W        W30910  24.231   7.540  23.027  0.0444 -0.0027  0.0559
87858W        W30911  32.095  34.049  18.569 -0.0041 -0.0515  0.1052
87859W        W30912   8.594  23.535  20.803  0.2691 -0.1785  0.0481
87860W        W30913   1.646   7.922  20.129 -0.1212 -0.0496  0.0574
87861W        W30914  21.369  25.457  16.506 -0.0372 -0.2938  0.0485
87862W        W30915  22.644   5.205  27.127  0.0298 -0.2381 -0.1178
87863W        W30916  27.760   0.214  26.235 -0.2326 -0.0754 -0.2370
87864W        W30917  10.650  19.644  28.355  0.1740  0.0143 -0.0506
87865W        W30918   9.835  13.008  14.445 -0.1213 -0.0841 -0.0419
87866W        W30919  20.076   4.783  22.229 -0.0215  0.1337 -0.2961
87867W        W30920   1.498  33.634  21.064  0.2614  0.2252 -0.2938
87868W        W30921   7.770   4.496  25.843  0.0067  0.0539  0.0324
87869W        W30922   8.052  18.507  14.565  0.0504 -0.0482  0.1171
87870W        W30923  23.505  23.404  16.007  0.0068  0.0472 -0.3479
87871W        W30924  12.861  20.882  16.321  0.0886 -0.0958  0.0596
87872W        W30925  33.045  16.376  23.412  0.0013 -0.1289  0.2347
87873W        W30926  13.053  33.066  25.895  0.1143  0.2112 -0.2828
87874W        W30927  13.611  34.008  20.075 -0.0652  0.3100 -0.0867
87875W        W30928   7.900  27.681  17.028 -0.2100 -0.2206  0.4797
87876W        W30929  15.124  21.811  19.166 -0.1154 -0.0930 -0.2924
87877W        W30930  12.520  18.821  21.150  0.0550 -0.0055 -0.1939
87878W        W30931  31.441   5.866  23.160  0.2537  0.1844  0.0502
87879W        W30932  31.635  21.810  14.832 -0.1915  0.0810 -0.0270
87880W        W30933  25.215  25.734  28.381 -0.1771 -0.1530 -0.0295
87881W        W30934  11.702  13.942  23.579 -0.1459 -0.0746 -0.1418
87882W        W30935  29.519  13.464  16.943 -0.1784  0.1888  0.0596
87883W        W30936  15.738  30.935  22.107 -0.0426  0.3045 -0.0795
87884W        W30937  24.505   1.128  29.055 -0.1732  0.1807  0.0256
87885W        W30938  19.523  27.207  18.578  0.1777 -0.2693  0.2871
87886W        W30939  21.488  14.450  21.249 -0.0708 -0.3154 -0.2228
87887W        W30940   1.202   9.119  17.504  0.2594  0.0031  0.4815
87888W        W30941  12.418  19.698  20.786  0.1077  0.3441  0.1575
87889W        W30942  33.111   5.475  18.380 -0.1236  0.0175 -0.0889
87890W        W30943  33.534   4.632  17.839 -0.2315 -0.1514 -0.1175
87891W        W30944  30.870   3.772  15.498 -0.1648 -0.1807  0.0230
87892W        W30945  32.055  11.013  16.426  0.1293  0.0316 -0.0707
87893W        W30946   5.840   8.428  28.036 -0.0437  0.0886  0.2047
87894W        W30947  34.504  21.555  25.061 -0.1125  0.1849  0.1019
87895W        W30948  27.765  28.536  23.814 -0.0894 -0.0340 -0.2239
87896W        W30949  20.831   3.766  18.990  0.2490 -0.0813  0.1175
87897W        W30950  34.122   9.811  19.501 -0.1421  0.1429  0.0901
87898W        W30951  20.753  16.587  25.259 -0.0547 -0.0910 -0.0897
87899W        W30952  32.976  25.519  28.901 -0.1074  0.2242 -0.0848
87900W        W30953  16.425   8.551  25.222 -0.2713 -0.2842  0.1634
87901W        W30954   3.115   7.041  20.886  0.1085  0.1142  0.2865
87902W        W30955  21.176  10.929  14.745 -0.2187  0.1103  0.1119
87903W        W30956  19.445  13.312  18.806  0.2029  0.0149 -0.2485
87904W        W30957  22.192   7.977  17.431  0.0417  0.1463 -0.0392
87905W        W30958  17.234   1.849  23.868 -0.0400  0.3161  0.0972
87906W        W30959  28.335   7.569  16.393 -0.1379 -0.1899  0.0977
87907W        W30960  10.889  22.647  15.170 -0.0524  0.1582 -0.1712
87908W        W30961  15.329   9.513  27.736  0.2357 -0.1125 -0.0355
87909W        W30962  26.930  13.971  21.226 -0.0165 -0.0645 -0.0199
87910W        W30963  19.880  16.883  25.227 -0.0943 -0.0207  0.2128
87911W        W30964   5.068   3.433  22.451 -0.0014  0.1384 -0.1718
87912W        W30965  18.875  14.342  15.254  0.1801  0.1313  0.4557
87913W        W30966  25.614  13.856  16.139 -0.2523 -0.1147 -0.2724
87914W        W30967  14.894  32.910  14.642  0.0913  0.0494 -0.1539
87915W        W30968  20.707  19.914  15.886  0.4118 -0.2078  0.2101
87916W        W30969  14.393  21.354  15.397  0.1584  0.0950 -0.1055
87917W        W30970  24.004  10.127  17.855 -0.1008 -0.0964  0.0962
87918W        W30971   0.516  28.542  21.542 -0.1532 -0.0772 -0.0044
87919W        W30972  22.632  22.296  24.507 -0.2154 -0.3401  0.0783
87920W        W30973  23.988   8.346  18.676  0.2438  0.0623 -0.1738
87921W        W30974   1.553  30.637  24.345  0.2530 -0.2968 -0.0754
87922W        W30975  24.306  10.164  17.284  0.2232 -0.1430 -0.0044
87923W        W30976  17.793   9.394  18.620 -0.0000  0.1143 -0.0290
87924W        W30977  26.468   8.791  20.757 -0.0807  0.0662 -0.0359
87925W        W30978   9.226  18.962  23.122  0.0118  0.2597 -0.5302
87926W        W30979  19.141   4.592  22.581  0.1049 -0.0276  0.4016
87927W        W30980   1.239  15.595  25.207 -0.1646  0.1802 -0.1620
87928W        W30981  19.621   3.100  25.448  0.4335  0.0732  0.0831
87929W        W30982  27.901   6.826  28.570  0.2244 -0.0900 -0.0160
87930W        W30983  22.160  16.781  22.486  0.0437  0.1864  0.0316
87931W        W30984  10.478  23.403  23.875 -0.1239  0.3131 -0.1513
87932W        W30985  27.087  29.444   0.970  0.0244 -0.3713 -0.1307
87933W        W30986  20.594   0.319  23.114  0.1051 -0.0590 -0.0214
87934W        W30987  21.636  22.410  24.815 -0.0836  0.3168  0.4336
87935W        W30988  33.252  30.774  14.251  0.0479  0.0599 -0.0270
87936W        W30989  27.089  11.610  23.479  0.3558 -0.2956 -0.1923
87937W        W30990  26.292  20.478  20.234  0.3017  0.1430 -0.0126
87938W        W30991  10.936  15.472  29.155 -0.0361  0.1460 -0.1641
87939W        W30992   6.404   5.527  25.963 -0.1901 -0.0734 -0.4135
87940W        W30993  24.371   9.962  14.479 -0.1363  0.1533 -0.0840
87941W        W30994  13.696  16.592  22.033 -0.4095  0.1151 -0.1012
87942W        W30995  23.465   0.737  18.405 -0.5136 -0.2171  0.0015
87943W        W30996   1.952  10.094  28.067  0.1249 -0.0881  0.0714
87944W        W30997  21.413  14.357  19.827  0.0997 -0.2412  0.0367
87945W        W30998  32.703  21.476  22.248 -0.1075  0.1734  0.0635
87946W        W30999  19.842  16.650  13.861  0.0020  0.4992  0.0370
87947W        W31000  22.044   5.816  26.139  0.1335  0.0365  0.1835
87948W        W31001  25.053  20.168   0.047  0.0770  0.2792  0.2099
87949W        W31002   5.539  25.690  17.890 -0.1459  0.1019  0.1918
87950W        W31003  30.910   5.585  20.936  0.3836 -0.2163 -0.0111
87951W        W31004  33.104  26.025  26.948  0.0171 -0.2009 -0.0380
87952W        W31005  26.551  30.909  25.001 -0.0122 -0.0974  0.2402
87953W        W31006  20.494  21.098  16.653 -0.0504 -0.0521 -0.2548
87954W        W31007   6.571  18.459  21.431 -0.0287 -0.0267  0.2726
87955W        W31008   7.754   2.812  19.827 -0.1429  0.0759  0.1356
87956W        W31009  33.022  18.225  20.843 -0.0833  0.3514 -0.0522
87957W        W31010  29.706  18.888  13.584 -0.1300 -0.1423 -0.0612
87958W        W31011   2.306   1.124  20.430 -0.0822  0.2051  0.1019
87959W        W31012   7.604  17.489  22.073  0.1018 -0.4450  0.0106
87960W        W31013  33.355   6.108  26.483 -0.0037  0.0575 -0.1935
87961W        W31014  14.904  12.831  27.560 -0.0974 -0.2470  0.0514
87962W        W31015  13.891  11.223  19.970  0.2070  0.1542 -0.0852
87963W        W31016  19.448  11.349  20.983  0.2996  0.1398 -0.0491
87964W        W31017   8.281   1.660   3.477  0.0475  0.0863 -0.0554
87965W        W31018  16.153   9.427   3.421  0.0247  0.0689  0.1664
87966W        W31019   3.670  12.380  14.984 -0.3232 -0.0296 -0.0222
87967W        W31020  22.687   3.787   2.600  0.3360  0.1184 -0.0312
87968W        W31021  32.139   4.700  16.450 -0.1413 -0.2796  0.2274
87969W        W31022  25.445  13.045  24.450  0.1815 -0.0743  0.1768
87970W        W31023   3.881  27.555  16.631  0.0339 -0.2835 -0.0820
87971W        W31024  22.621  16.436  19.955 -0.1074  0.2031 -0.0447
87972W        W31025  18.342  33.070  23.798  0.3420 -0.0854  0.2336
87973W        W31026  33.712  11.993  23.252 -0.1804 -0.1150  0.2115
87974W        W31027   4.588   9.019  28.418 -0.0185 -0.2554  0.2186
87975W        W31028  15.043  11.573  15.683  0.2284 -0.0034  0.5917
87976W        W31029  15.114  16.190  16.171 -0.1877 -0.1969  0.1119
87977W        W31030  32.355  11.547  15.266 -0.0400 -0.0770  0.3451
87978W        W31031   1.436  15.439  23.188 -0.0997 -0.2237 -0.2861
87979W        W31032  20.108   4.478  20.382 -0.0212  0.3138 -0.1670
87980W        W31033  10.440  16.589  27.010  0.2137  0.0262  0.3166
87981W        W31034  13.866  20.424  18.951 -0.2087  0.0030 -0.0681
87982W        W31035   7.265  28.120  15.211  0.0134  0.1731 -0.2636
87983W        W31036  22.977  17.859  27.171 -0.1423  0.0685  0.1273
87984W        W31037   3.134  34.197  15.223 -0.3256 -0.2035  0.0574
87985W        W31038   7.538  11.016  24.715  0.1366  0.1522  0.3238
87986W        W31039  30.161  13.288  26.682  0.1414 -0.1199  0.0884
87987W        W31040  16.992  11.570  18.071 -0.0616 -0.2417 -0.1076
87988W        W31041  23.521  20.500  28.041  0.2057 -0.1460 -0.1338
87989W        W31042  22.208   8.397   0.271  0.1754 -0.1901  0.0410
87990W        W31043  24.877  18.707  14.766 -0.1498  0.1615 -0.2739
87991W        W31044  12.281  18.006  17.157  0.0427  0.0435 -0.3396
87992W        W31045  25.186  23.187  18.910 -0.2424 -0.0879  0.1139
87993W        W31046   9.692  18.218  14.441  0.1392 -0.0373  0.3349
87994W        W31047   2.842  30.858   2.398  0.1698 -0.0765 -0.1447
87995W        W31048   2.945  24.313  18.927  0.0995 -0.0842  0.2287
87996W        W31049  24.057   8.591   8.259 -0.1046  0.1379  0.0308
87997W        W31050  23.593   5.319  28.135  0.2216  0.0690 -0.2741
87998W        W31051  32.637   2.298  19.911  0.1396  0.0791  0.0326
87999W        W31052  16.400   7.398  25.297  0.3394 -0.1470 -0.0191
88000W        W31053  14.346  24.706  25.886 -0.0626  0.0769 -0.1277
88001W        W31054  27.741  23.456  16.199  0.0066 -0.4757 -0.0941
88002W        W31055  18.042   5.338  20.173  0.0050  0.4814 -0.0213
88003W        W31056  11.256  11.857  22.468  0.2599  0.1481  0.1781
88004W        W31057  28.662  12.541  23.784  0.0071  0.0659  0.0643
88005W        W31058  22.134  15.271  20.754 -0.1932  0.1131  0.1412
88006W        W31059  17.924   3.462  28.342  0.4034 -0.1214 -0.1329
88007W        W31060  11.092  16.719  21.571  0.0959  0.5864  0.1162
88008W        W31061  14.456  16.780  13.454 -0.1541  0.1864  0.2569
88009W        W31062  13.451  10.668  22.923  0.1231  0.0645  0.4750
88010W        W31063  19.304   6.070  19.686 -0.4144 -0.1508 -0.2880
88011W        W31064  26.999  12.841  22.227 -0.0215  0.1538  0.1350
88012W        W31065  14.365  12.903  19.005 -0.0395  0.0664  0.2120
88013W        W31066   5.743   1.289  28.276 -0.0883  0.1020  0.2033
88014W        W31067  23.678  16.595  14.329  0.1891 -0.3337  0.2889
88015W        W31068  14.775  17.548  14.030 -0.3297  0.3446  0.0053
88016W        W31069   0.023  24.165  17.605 -0.2422 -0.0276 -0.0227
88017W        W31070   9.367  10.881  17.894 -0.3140 -0.3282 -0.0467
88018W        W31071  29.802  15.913  19.622  0.0951 -0.3015 -0.3608
88019W        W31072   2.172  20.702  17.570  0.1782 -0.0744  0.1847
88020W        W31073   4.780  23.545  27.306  0.1065 -0.0125  0.0835
88021W        W31074  12.200  13.753  20.318 -0.2082  0.0159  0.2431
88022W        W31075  19.915  27.879  18.836 -0.1618  0.1077  0.0820
88023W        W31076  31.948  16.343   2.673 -0.2679  0.2141  0.2232
88024W        W31077  14.835   0.248  14.518 -0.0827 -0.4429 -0.2597
88025W        W31078  30.079  23.002  27.653  0.3676 -0.0897  0.4000
88026W        W31079   9.722   6.666  17.983 -0.0909 -0.1325  0.0478
88027W        W31080  19.228  24.597  19.141 -0.2288 -0.3855  0.2141
88028W        W31081  17.215   2.317  14.731 -0.1370 -0.0623 -0.0125
88029W        W31082   2.303  11.977  20.721  0.1025 -0.0406 -0.1334
88030W        W31083  17.720  31.360  18.657 -0.0002 -0.0900  0.1620
88031W        W31084  14.264   8.648  18.757  0.3164  0.0496 -0.5496
88032W        W31085  21.040  19.748  15.581 -0.5035 -0.3218  0.0678
88033W        W31086  10.618  23.068  16.701 -0.1819  0.0905  0.1302
88034W        W31087  10.514  33.729  22.655  0.2321  0.4087  0.3020
88035W        W31088  32.308  18.242  27.017  0.2668  0.1765 -0.4087
88036W        W31089  21.790  16.066  28.141 -0.0095  0.1640  0.1103
88037W        W31090  25.322  19.514  14.684 -0.0388 -0.3837 -0.0595
88038W        W31091  17.385  10.860  20.186  0.2079 -0.1778  0.1535
88039W        W31092  14.713  15.212  13.711  0.1942 -0.0944  0.0307
88040W        W31093  13.041  33.763  25.958 -0.0816  0.2569  0.0243
88041W        W31094  31.530  30.774  20.233 -0.0156 -0.1688 -0.4765
88042W        W31095  17.571   9.496  24.215 -0.0275  0.0471  0.1259
88043W        W31096  23.764  11.165  18.254  0.1914 -0.1118 -0.3057
88044W        W31097   4.102  16.731  20.671 -0.1061  0.1658 -0.3869
88045W        W31098   9.030  21.869  17.047  0.0192  0.2521  0.1647
88046W        W31099   7.362  19.115  19.886  0.2010 -0.2003 -0.0873
88047W        W31100  18.065   6.089  23.164  0.0731 -0.0419 -0.0637
88048W        W31101   1.450  28.449  21.745 -0.0782 -0.0570 -0.2000
88049W        W31102  27.264  31.759   1.379 -0.1533 -0.0255  0.0401
88050W        W31103  25.617   2.455  18.196 -0.2750 -0.3713 -0.1026
88051W        W31104  20.902  14.413  21.817 -0.0894 -0.2733  0.0517
88052W        W31105  24.636  10.503  21.738 -0.2371 -0.1115 -0.1308
88053W        W31106  23.250   5.204  19.864 -0.1042  0.0170  0.0220
88054W        W31107  14.149  23.302  17.371 -0.3476 -0.1201 -0.2811
88055W        W31108   2.515  11.062  19.693  0.4206  0.2436 -0.0157
88056W        W31109  21.771  11.369  18.930 -0.3071 -0.1856  0.1353
88057W        W31110  32.746   0.278  14.747  0.0825  0.0481 -0.1438
88058W        W31111  12.785  11.240  17.856 -0.1443  0.0470 -0.1846
88059W        W31112  29.372  14.505  16.070  0.2843 -0.0132  0.0113
88060W        W31113  33.797  13.657  16.775  0.0611 -0.1256 -0.0572
88061W        W31114  26.545  23.574  16.601  0.0828 -0.1658  0.0049
88062W        W31115  13.480  19.343  28.102  0.2249  0.2416  0.4369
88063W        W31116  23.118  12.329  18.266 -0.0676  0.1061 -0.0926
88064W        W31117  31.451  34.661  16.723  0.0575  0.3514 -0.0403
88065W        W31118   9.665   9.260  20.188  0.1048  0.1884 -0.0976
88066W        W31119  10.263   3.936   8.612  0.2152 -0.0963  0.1635
88067W        W31120  23.695  19.753  23.305  0.0569 -0.3181 -0.3364
88068W        W31121  25.445   6.652  23.261  0.1528  0.7228 -0.4631
88069W        W31122   1.790  19.508  18.411 -0.2915  0.0043 -0.3611
88070W        W31123  32.910  21.304  24.700  0.0748 -0.1770  0.1180
88071W        W31124  28.715   4.184   5.456 -0.0040  0.0154  0.0788
88072W        W31125  13.694  20.464   8.285 -0.0145 -0.0419 -0.2083
88073W        W31126  30.863  24.412  13.599  0.0636  0.0307  0.1008
88074W        W31127  15.252   8.288  24.597 -0.3118 -0.2026  0.1771
88075W        W31128  21.765   0.630  25.487 -0.0143 -0.1358 -0.1177
88076W        W31129  21.100  20.585  25.069  0.1104 -0.1157 -0.3186
88077W        W31130  12.837  14.731  23.183  0.0511 -0.0564 -0.0964
88078W        W31131  28.481   5.994  20.547 -0.0523 -0.0718  0.2811
88079W        W31132  14.836  28.105  24.824 -0.2963 -0.1233  0.0266
88080W        W31133  34.040  22.790  24.573  0.0485 -0.0728 -0.1883
88081W        W31134  11.991  10.872  25.380  0.2549  0.2157 -0.0048
88082W        W31135  11.159  10.636  18.704  0.2704  0.0859  0.3399
88083W        W31136  31.136  14.843  21.092  0.0559 -0.0461 -0.1905
88084W        W31137   6.764  16.508  15.887 -0.1267  0.0125  0.2003
88085W        W31138  29.707  29.775  20.820  0.2533 -0.0398 -0.0094
88086W        W31139  29.997  24.894  27.115 -0.0072 -0.0558  0.4341
88087W        W31140  15.200  21.978   0.580 -0.0179 -0.0624  0.0918
88088W        W31141   3.540  14.105  23.964  0.0332  0.1792  0.1534
88089W        W31142  21.249  27.682  24.071 -0.2130  0.1623 -0.4186
88090W        W31143   6.504  14.146  15.915  0.1061  0.1651 -0.1256
88091W        W31144  26.491  12.334  15.416 -0.1610  0.1692  0.1107
88092W        W31145  11.540  15.141  22.688  0.0052  0.0909  0.2867
88093W        W31146  20.522  29.254  24.320  0.1687 -0.1974  0.0204
88094W        W31147  10.982   9.317   1.626  0.0931  0.2445 -0.0511
88095W        W31148  21.907  21.302  22.212 -0.1729 -0.3874 -0.1326
88096W        W31149  26.947  26.945  23.043 -0.2393  0.1493  0.3453
88097W        W31150  13.170  14.422  23.485 -0.2477 -0.3010 -0.0685
88098W        W31151  12.708  31.648  20.100 -0.4121  0.1805 -0.0167
88099W        W31152  11.821  26.940  23.339 -0.1109 -0.3038 -0.1307
88100W        W31153  24.237  12.109   0.617 -0.1435  0.0509  0.2656
88101W        W31154  12.482  14.889  11.011  0.0169  0.3510 -0.3059
88102W        W31155  17.598   5.165   1.926  0.1763  0.1186  0.3454
88103W        W31156   3.919  29.498  16.203 -0.0924  0.1022 -0.2441
88104W        W31157  25.951   8.726  27.798 -0.1681  0.0283  0.2425
88105W        W31158  15.639   6.235   2.238  0.0412  0.5593  0.1204
88106W        W31159   0.427  16.287  14.467  0.2198 -0.0398 -0.1389
88107W        W31160  13.002  32.493  26.412  0.0572 -0.2500 -0.0336
88108W        W31161  25.504   6.111  17.785 -0.1596  0.1556 -0.0687
88109W        W31162  17.199   7.772  17.710  0.3051 -0.0374  0.2323
88110W        W31163  33.240  23.195  20.665 -0.1683  0.0143 -0.2536
88111W        W31164  15.723  15.019  25.964  0.2895 -0.3024 -0.0195
88112W        W31165  11.364  15.570  21.871  0.1112 -0.0055  0.0617
88113W        W31166  17.472  27.021  25.232  0.2925 -0.1495  0.2026
88114W        W31167  30.392  17.203  28.615  0.0832  0.2852 -0.0049
88115W        W31168  20.727  11.863  14.376 -0.3188 -0.0477  0.0781
88116W        W31169   0.327  22.968  18.778  0.3201 -0.3843 -0.0032
88117W        W31170   0.336  14.912  16.141  0.1171  0.0145  0.2576
88118W        W31171  14.681  30.777  19.429  0.0136  0.0688 -0.1407
88119W        W31172   7.015  29.392  21.458  0.3288  0.0172  0.1260
88120W        W31173  13.534  28.549  19.003  0.3135  0.0596 -0.1553
88121W        W31174  19.269   9.069  27.030 -0.1652 -0.3145 -0.0360
88122W        W31175  10.627   0.462  18.698  0.3750 -0.0807  0.1415
88123W        W31176  34.338  27.118   0.995 -0.1415 -0.0809  0.3098
88124W        W31177  16.846  33.232  19.346 -0.0919  0.1527  0.2096
88125W        W31178  17.522  28.179  29.023 -0.0340  0.1609  0.1083
88126W        W31179  18.682  12.033  18.663  0.0292 -0.0916  0.0133
88127W        W31180  30.247   6.170  14.662  0.1746  0.1317  0.2547
88128W        W31181  14.943  11.061  15.418 -0.0574  0.3267  0.0854
88129W        W31182  22.498  15.624  19.545 -0.3365 -0.0495  0.0526
88130W        W31183  21.785  27.860  24.807  0.4583  0.1242  0.4876
88131W        W31184  18.298   7.494   5.904 -0.5467 -0.3383  0.0613
88132W        W31185  31.163  28.269  21.286  0.1378  0.0076  0.0649
88133W        W31186  12.727   9.374  27.663  0.1002 -0.3661 -0.1941
88134W        W31187  27.270   9.328  15.449 -0.0037 -0.0549 -0.1814
88135W        W31188  23.920   7.463  22.153  0.2440  0.1650  0.0007
88136W        W31189  34.512  15.138  13.870  0.4001  0.1542 -0.0171
88137W        W31190  15.001  12.908  20.866  0.2371  0.0498  0.0815
88138W        W31191  19.542  23.637  18.272 -0.1307  0.1249 -0.2268
88139W        W31192  31.313  26.705  15.623  0.0973  0.4078 -0.1148
88140W        W31193  16.421  21.393  14.060  0.1729 -0.0487 -0.0583
88141W        W31194   8.945  24.463  15.444 -0.0040  0.1518  0.1001
88142W        W31195  11.133   9.401  15.070 -0.2352 -0.1540 -0.0732
88143W        W31196  20.079   8.387  15.490 -0.0229  0.1359 -0.0203
88144W        W31197  24.312  20.791  17.510  0.0202  0.3575 -0.0940
88145W        W31198  32.340  22.332  20.963 -0.0301 -0.3212  0.1909
88146W        W31199   3.384   7.729  19.075 -0.3664 -0.0957  0.1866
88147W        W31200  31.103  17.995  23.047  0.0555  0.2985 -0.0653
88148W        W31201  13.332  26.509  18.622  0.0387  0.1187 -0.1440
88149W        W31202  23.289   8.667  25.116  0.5049 -0.0703 -0.0487
88150W        W31203   1.863  12.200  16.649 -0.2976  0.1112  0.0031
88151W        W31204  23.960  22.237  20.452  0.0500 -0.0207  0.0507
88152W        W31205  11.300  23.236  21.757 -0.1034 -0.3308  0.1342
88153W        W31206  22.316  11.273  17.377  0.0711  0.0361 -0.3836
88154W        W31207  29.086  10.960  14.973  0.1546  0.0297 -0.0865
88155W        W31208  16.313   8.522  20.070 -0.1867 -0.3830  0.0139
88156W        W31209  23.824  21.095  25.106  0.1834  0.1489  0.1646
88157W        W31210  25.547  17.737  16.769  0.1493  0.0439 -0.2942
88158W        W31211  10.663   7.735  20.887  0.0283  0.0863 -0.1755
88159W        W31212   6.786  15.718  14.804 -0.2261  0.0309 -0.1002
88160W        W31213   9.073  23.105  20.875  0.2329 -0.0070  0.0894
88161W        W31214  17.944   8.289  20.425  0.1310  0.1854 -0.0487
88162W        W31215  14.856  14.913  14.450  0.2135  0.0029  0.0835
88163W        W31216   8.480  19.331  23.064 -0.1697  0.1192 -0.2048
88164W        W31217  19.619  12.567  26.815  0.1874 -0.3806  0.2810
88165W        W31218  12.530  12.938  20.389 -0.2017  0.1498  0.0544
88166W        W31219  30.025  20.503  21.550 -0.0753  0.0863 -0.3132
88167W        W31220  31.262   5.535  15.094 -0.1734 -0.1344  0.2079
88168W        W31221  22.813  26.312  25.659  0.2557 -0.0436 -0.0737
88169W        W31222  32.771  11.128  17.532  0.1104  0.1341  0.1221
88170W        W31223  20.990   8.074  18.367  0.0357  0.2020  0.2033
88171W        W31224  23.143  14.875  15.107 -0.3024 -0.1183  0.0967
88172W        W31225   7.957  32.802  16.270 -0.2029  0.0649  0.0672
88173W        W31226  15.496   4.351  16.776  0.3667  0.2169  0.2197
88174W        W31227  21.762   4.811  27.426  0.0967 -0.1343 -0.0285
88175W        W31228  31.382   4.046  23.782  0.5460 -0.0295 -0.2479
88176W        W31229  20.827  18.851  19.089  0.3841  0.5470  0.0299
88177W        W31230  33.140  10.987  26.346 -0.2180  0.2135  0.0038
88178W        W31231  28.271  13.874   3.586  0.2262 -0.0025  0.1051
88179W        W31232  17.792   9.019  15.577  0.2163  0.0833 -0.2887
88180W        W31233   9.151  11.355  23.245 -0.2671 -0.3182  0.2398
88181W        W31234  19.578  25.715  27.894 -0.3842  0.1813 -0.1029
88182W        W31235  19.166  17.115   5.676  0.1346 -0.2413 -0.0254
88183W        W31236  26.866  13.901  25.835 -0.2903  0.1119 -0.1530
88184W        W31237   5.072  27.556  20.613 -0.3403 -0.1809  0.2683
88185W        W31238  34.072  22.259  17.715 -0.2342  0.4679 -0.4912
88186W        W31239  13.393  21.509  21.223 -0.0591  0.1612 -0.0328
88187W        W31240   4.792   5.754  19.913 -0.0672 -0.3582 -0.3320
88188W        W31241  15.100   3.148   1.701 -0.0428 -0.1945 -0.2082
88189W        W31242  13.428  16.081  17.881 -0.3855 -0.1844  0.0288
88190W        W31243  15.006  23.762  21.445 -0.3879  0.0539  0.3027
88191W        W31244  22.252  30.017  14.680  0.0859 -0.2624 -0.1316
88192W        W31245   9.386   0.033  25.029 -0.1406 -0.4227 -0.0534
88193W        W31246   3.439   4.302   3.581 -0.1400 -0.0687 -0.2927
88194W        W31247  30.557   0.352  15.127 -0.2916  0.0086  0.1190
88195W        W31248  12.257  24.900  13.855 -0.0481  0.0743 -0.2254
88196W        W31249  33.620  13.601  26.152  0.0111 -0.1432 -0.1824
88197W        W31250  22.991  32.316  15.132  0.2985  0.0856  0.2312
88198W        W31251  26.865  32.386  16.844 -0.0203 -0.1384 -0.0358
88199W        W31252  27.377  15.266  18.448  0.0313 -0.2271  0.0214
88200W        W31253  23.763  20.876   4.085 -0.2884 -0.0715 -0.1928
88201W        W31254  24.323  15.771  28.807  0.0871 -0.1207  0.0564
88202W        W31255  22.939  12.712  18.699 -0.0933 -0.2002  0.0823
88203W        W31256  25.851   2.602  17.391  0.0438 -0.2281 -0.3535
88204W        W31257   7.694  17.997  18.849 -0.0243  0.2188 -0.0414
88205W        W31258  28.911   6.463  18.409 -0.0861 -0.0648  0.2889
88206W        W31259  20.632  14.749  22.948  0.0909 -0.0723 -0.3732
88207W        W31260  11.667  24.159  14.130 -0.1236  0.1307  0.4739
88208W        W31261  27.834  10.064  15.931 -0.0345  0.1924 -0.0745
88209W        W31262  33.173  18.446  15.043 -0.0364 -0.2586 -0.0812
88210W        W31263   2.008  23.948  23.377  0.0986 -0.1375 -0.1235
88211W        W31264  33.395  11.490  28.656 -0.3407 -0.0504 -0.0981
88212W        W31265   9.215   5.681  25.321 -0.0907 -0.2835 -0.1737
88213W        W31266  22.979  10.708  22.190 -0.3261 -0.3272  0.1071
88214W        W31267   3.048  23.382  16.407  0.0805  0.0208  0.1111
88215W        W31268  22.886  15.398   9.374  0.2648 -0.4078  0.0730
88216W        W31269  24.528  18.086  22.404  0.1236 -0.4008  0.1014
88217W        W31270  26.031  27.499  19.345 -0.2110 -0.0970 -0.1275
88218W        W31271  12.233   3.361  26.371  0.1007  0.1991  0.0877
88219W        W31272  13.481  20.523  20.701  0.1367 -0.1276 -0.1234
88220W        W31273  16.683  10.807  21.513  0.3257 -0.1889 -0.0922
88221W        W31274  12.913   1.596   2.088  0.0237 -0.1292 -0.0165
88222W        W31275  27.804   8.896  18.352  0.2335  0.0126 -0.0609
88223W        W31276  18.031   9.624  24.079  0.1477 -0.0377  0.0031
88224W        W31277   3.471  10.022  16.585  0.0156  0.2338 -0.2459
88225W        W31278  16.277  32.887  23.106 -0.2863  0.1770  0.3294
88226W        W31279  14.440  32.529  24.672 -0.0192  0.1432 -0.1661
88227W        W31280   5.637  18.349   4.385  0.2356  0.0504  0.1061
88228W        W31281   8.766  16.879  15.421  0.1223  0.1362  0.1394
88229W        W31282  19.114  10.753   1.961 -0.0767  0.0755  0.0663
88230W        W31283  10.263  31.428  24.207  0.0197  0.1985  0.0023
88231W        W31284  22.517  21.793  18.528  0.0301 -0.1991  0.0732
88232W        W31285  20.793  12.462  26.430  0.1404  0.1073 -0.1574
88233W        W31286  10.571   5.280  20.981  0.0921 -0.1010  0.1204
88234W        W31287  27.806  27.378  22.554  0.1463 -0.1420 -0.1434
88235W        W31288  23.773  20.520  19.825  0.2931 -0.2627 -0.0289
88236W        W31289  12.018  11.093  18.459 -0.0661  0.1169 -0.0681
88237W        W31290   6.746  14.952  19.917 -0.1422  0.2735  0.0494
88238W        W31291  27.997   8.623  19.916  0.0310  0.1432  0.1862
88239W        W31292  20.816  16.843   0.676 -0.2710  0.0677  0.1670
88240W        W31293   3.505   9.027   0.690  0.2022 -0.0850 -0.0909
88241W        W31294  19.817  15.926  22.798 -0.2805  0.3852 -0.2793
88242W        W31295  29.397  22.557  14.907  0.0923  0.0590 -0.0120
88243W        W31296  25.383  12.150  14.396 -0.0666  0.1346  0.0410
88244W        W31297  20.149  10.643  28.822 -0.3339  0.0980 -0.3492
88245W        W31298  29.633   5.719   0.605 -0.2203 -0.0258 -0.1619
88246W        W31299  29.643  17.866   7.926  0.0163  0.2391 -0.0206
88247W        W31300  30.043  16.117  14.933  0.0336  0.0577  0.2433
88248W        W31301  30.378  27.151  26.574  0.0772 -0.3025  0.0050
88249W        W31302   9.698  10.035  16.654  0.3845  0.0682 -0.1916
88250W        W31303  12.509   1.133  16.263  0.1188 -0.1650 -0.1549
88251W        W31304  14.831  33.426   0.659 -0.0963  0.0777  0.1662
88252W        W31305  27.021  29.857  22.255 -0.2304  0.5122 -0.1719
88253W        W31306  24.829  20.662  27.478  0.3292 -0.2542 -0.1543
88254W        W31307  16.588   3.572  16.837 -0.2039 -0.0680  0.2657
88255W        W31308   7.497   3.068  27.695 -0.4072  0.1086  0.0136
88256W        W31309   9.064  18.994  24.324 -0.2869 -0.0735  0.1027
88257W        W31310  25.667  19.981  23.068  0.1736  0.1608  0.1280
88258W        W31311  21.048  16.876  14.982  0.2249 -0.0473 -0.1040
88259W        W31312  18.445  11.422  18.963 -0.1420 -0.0645  0.1195
88260W        W31313   8.500  10.149  23.365 -0.0029  0.1943  0.1608
88261W        W31314  22.263  13.535  23.456  0.1523 -0.0533 -0.0086
88262W        W31315  15.745   5.146   4.564 -0.0319 -0.0957  0.0218
88263W        W31316  24.214   2.192  25.012 -0.1312 -0.1163  0.1076
88264W        W31317  23.852  12.796  14.830 -0.1448 -0.0038  0.0915
88265W        W31318  19.937  13.340  22.590 -0.0547  0.1354 -0.0815
88266W        W31319  12.254  18.030  14.386 -0.1701 -0.1290 -0.1937
88267W        W31320  32.155   2.592  16.148 -0.1962 -0.1268  0.1649
88268W        W31321   5.378  21.110  17.206 -0.0973 -0.0124 -0.1308
88269W        W31322  15.491   6.020  28.850 -0.3428  0.0385  0.0302
88270W        W31323   1.064   1.055  21.367 -0.2000 -0.0087  0.0839
88271W        W31324  12.084  20.798  26.655  0.2000 -0.2916  0.0619
88272W        W31325  12.342  19.183  20.812 -0.0987  0.1334  0.0468
88273W        W31326  30.151  20.056  20.758 -0.0903  0.0297 -0.2708
88274W        W31327  20.835  18.489  14.777 -0.0777 -0.0054  0.2368
88275W        W31328   4.980  13.519   6.335 -0.2428 -0.0004  0.1401
88276W        W31329  14.908   6.206   5.614  0.0561  0.0528 -0.3930
88277W        W31330  19.450  22.582  15.560 -0.3381  0.1623 -0.1073
88278W        W31331  28.526  13.604   0.644 -0.0997 -0.2085  0.1292
88279W        W31332  17.615   8.544  15.720  0.1725 -0.2125 -0.0732
88280W        W31333  26.166  15.151  21.382 -0.1187  0.2927 -0.2805
88281W        W31334  10.079  11.250  22.934 -0.0044  0.0889 -0.2460
88282W        W31335  28.758  19.627  24.252 -0.3103  0.1246  0.4171
88283W        W31336  20.963  34.562   5.344  0.0037 -0.2145 -0.0101
88284W        W31337  25.137   8.115  24.303 -0.1049  0.1422  0.1740
88285W        W31338  18.199  28.736   3.877  0.3112 -0.0510 -0.0925
88286W        W31339  15.791  21.058  22.491 -0.3770  0.1220  0.0366
88287W        W31340  14.809   4.997  19.546  0.0987  0.3258  0.0711
88288W        W31341  29.129   2.265  20.539  0.1742  0.2519 -0.0992
88289W        W31342  21.020   9.779  20.441 -0.1601  0.1476  0.1253
88290W        W31343  17.949   0.327  22.574  0.1609 -0.1203 -0.1336
88291W        W31344  23.193  12.257  19.343  0.1017  0.0534  0.2565
88292W        W31345  32.467  28.415  22.822  0.0168  0.0945 -0.4309
88293W        W31346  23.361  10.647   2.922  0.0554  0.0314 -0.0284
88294W        W31347  13.849  13.627   2.211  0.0310 -0.1631 -0.3688
88295W        W31348  23.434  15.163  19.294 -0.0185 -0.0648  0.0701
88296W        W31349  11.810  34.517  15.057 -0.2528 -0.2310 -0.1903
88297W        W31350  26.823   1.025  19.353 -0.1655  0.2748  0.1056
88298W        W31351   7.330  10.766  15.569  0.1104  0.0468  0.0954
88299W        W31352  20.230  20.148  25.913 -0.0347 -0.3476 -0.0480
88300W        W31353  17.271  17.565  14.887  0.2260 -0.0090  0.1915
88301W        W31354   8.580  30.374  15.549 -0.1073 -0.3318  0.3954
88302W        W31355  24.999  28.265  19.762  0.2936 -0.1105 -0.2662
88303W        W31356   5.773  23.846  24.550  0.2603 -0.1321 -0.0077
88304W        W31357  21.281  10.387  15.377 -0.0640  0.1508  0.0795
88305W        W31358  24.452  12.914  20.806 -0.0957  0.0194 -0.1990
88306W        W31359  17.031   4.838  28.150 -0.2729 -0.0272  0.1442
88307W        W31360  10.565  22.329  14.959  0.0029 -0.0201 -0.1486
88308W        W31361  28.181   3.001  21.199 -0.1993  0.2842 -0.0868
88309W        W31362   0.162  25.330  28.242  0.0819  0.2024 -0.0723
88310W        W31363   6.446   3.469  24.599  0.1068 -0.0251  0.2832
88311W        W31364  29.551  30.011  14.722  0.2951  0.0856 -0.0436
88312W        W31365  19.951  18.194  15.046 -0.0861  0.2095 -0.0161
88313W        W31366  29.680   9.165  19.830 -0.0603  0.0130  0.1925
88314W        W31367  17.559  11.267  23.186 -0.0253  0.1408 -0.0667
88315W        W31368  15.772   5.397  20.186 -0.1870  0.0794 -0.2488
88316W        W31369   7.429  11.703  26.601 -0.3934 -0.1081 -0.3454
88317W        W31370   8.068  23.799  16.725 -0.1748 -0.1941 -0.0923
88318W        W31371  25.357  32.468  17.135  0.0535  0.0941  0.2690
88319W        W31372  10.741   1.838  20.252 -0.0345  0.4503 -0.1690
88320W        W31373   5.425  26.548  18.569  0.2784 -0.1164 -0.0461
88321W        W31374  25.890  18.741  22.955 -0.0156  0.0464  0.2628
88322W        W31375  16.728   8.794  18.646 -0.2646  0.0421 -0.1894
88323W        W31376  18.062  15.890  26.714  0.4711 -0.0096 -0.1713
88324W        W31377  18.238   7.630  21.351  0.1397  0.0132 -0.0257
88325W        W31378  29.088  13.769  19.208 -0.1704 -0.1004  0.1709
88326W        W31379  23.815  26.358  20.498 -0.1464  0.0946 -0.3279
88327W        W31380  26.138  14.527  18.636  0.2523 -0.1054 -0.3738
88328W        W31381  29.880  33.599  19.725 -0.0440  0.0939 -0.0132
88329W        W31382  27.959   3.225  20.165  0.0264 -0.4006  0.1170
88330W        W31383  27.182  13.547  17.670  0.1106 -0.0621  0.0716
88331W        W31384   7.590  29.417  15.164  0.1121  0.0880 -0.1757
88332W        W31385  11.895  25.767  16.960  0.0955 -0.0854 -0.1432
88333W        W31386  22.709   5.914  18.328 -0.2523  0.0178 -0.0277
88334W        W31387   6.469  25.727  22.365 -0.1368  0.0715  0.0051
88335W        W31388  16.390  34.485  25.670  0.5850 -0.1042  0.1964
88336W        W31389   1.384  15.422   4.587 -0.0076 -0.4342 -0.0025
88337W        W31390  10.741  30.213  27.834  0.0653 -0.0028 -0.1314
88338W        W31391  19.769  14.066  17.578 -0.1428  0.1557 -0.0858
88339W        W31392  24.303  30.175  19.312  0.2190 -0.3073  0.3456
88340W        W31393  31.176  17.740   1.498 -0.0936  0.1444 -0.1948
88341W        W31394   0.134  11.771  22.321 -0.0809  0.1068 -0.0082
88342W        W31395  11.949  22.104  14.821 -0.0390 -0.0515  0.1147
88343W        W31396  23.662  18.632  22.369  0.0289  0.1062 -0.1339
88344W        W31397  23.232  12.842  16.955 -0.3879 -0.1549 -0.2613
88345W        W31398  19.026   6.126  15.909 -0.1046 -0.0394 -0.2222
88346W        W31399   5.846   5.510  21.432  0.2284  0.1189  0.0724
88347W        W31400  20.218  15.960  22.014 -0.0794  0.0100  0.2137
88348W        W31401  21.164   5.732  19.111 -0.0736  0.1338  0.1311
88349W        W31402   7.300  30.099  19.094  0.0456  0.4975 -0.1227
88350W        W31403   1.011  21.152   5.884  0.0774 -0.0544  0.1016
88351W        W31404  27.048  11.891  21.162 -0.1131  0.2762  0.1256
88352W        W31405  16.331  19.687   4.049 -0.1184 -0.1518  0.1376
88353W        W31406  20.665  19.318  13.897  0.0262  0.0166  0.1969
88354W        W31407  33.005  18.672  18.346 -0.0186  0.3200  0.1632
88355W        W31408  15.118   9.198  27.398 -0.3573 -0.1370 -0.0849
88356W        W31409  18.430   6.230  17.709 -0.1138  0.2196  0.0052
88357W        W31410  29.802  17.518  20.654 -0.1779  0.2288  0.2352
88358W        W31411  17.543   4.861   1.043 -0.0611  0.2274  0.2857
88359W        W31412  14.372  11.876  17.993 -0.0490  0.2331  0.0349
88360W        W31413  27.363   9.494  16.278 -0.0212 -0.4476  0.2212
88361W        W31414   2.950   9.423   1.347  0.1052 -0.3065 -0.1079
88362W        W31415   5.753   9.343  15.860  0.2097 -0.0249 -0.0554
88363W        W31416  16.820   9.909  27.666 -0.1698 -0.1864 -0.2666
88364W        W31417  24.510  17.387  23.216  0.3936 -0.2388 -0.1258
88365W        W31418   9.136   8.801  15.928 -0.0544 -0.0333 -0.1678
88366W        W31419  22.708  15.283  15.175  0.1467 -0.1222  0.1809
88367W        W31420  23.212  13.065  28.846 -0.1069 -0.1895  0.0106
88368W        W31421  33.557  19.220  24.800 -0.0850 -0.4409  0.2450
88369W        W31422  11.487  10.167  17.735  0.0519  0.0394 -0.1734
88370W        W31423  29.643  17.195  16.938  0.0747 -0.1386 -0.1152
88371W        W31424  23.927  19.534  14.943  0.0004 -0.0504 -0.1538
88372W        W31425  15.629  19.402   2.655 -0.2392 -0.1622 -0.0648
88373W        W31426  23.048   1.467  21.472  0.0829  0.2675 -0.0554
88374W        W31427  18.895  26.217  20.304  0.1885  0.1257 -0.2085
88375W        W31428  15.110  13.633  23.399  0.1380  0.0072 -0.2198
88376W        W31429  29.152  13.041  24.204 -0.0565  0.0337  0.2097
88377W        W31430  19.533  31.673  17.008 -0.0827 -0.0468 -0.1202
88378W        W31431  26.269  17.783  15.563 -0.3057  0.1978 -0.0466
88379W        W31432   5.333  16.410  16.743 -0.0521  0.3266  0.0975
88380W        W31433  24.968  22.567  19.454  0.1023 -0.3251  0.2824
88381W        W31434  18.320  11.305  20.721  0.0433  0.3581 -0.1810
88382W        W31435  27.940  29.440  17.716  0.0299 -0.1786 -0.0265
88383W        W31436   3.102  23.442  17.706 -0.0282 -0.0773  0.0488
88384W        W31437  26.991  33.542   8.114 -0.0262 -0.0503 -0.0451
88385W        W31438   0.969  15.615  22.351 -0.2227 -0.0542 -0.4244
88386W        W31439  20.189   9.838  19.663 -0.0188  0.1838 -0.0053
88387W        W31440  30.986  32.144   8.982  0.1687  0.0396 -0.0060
88388W        W31441  12.901   0.357  21.495 -0.0164 -0.2587 -0.3100
88389W        W31442  18.773   5.665   0.735  0.0198  0.4159 -0.0500
88390W        W31443  21.624  33.726  16.213 -0.0502 -0.1230 -0.2146
88391W        W31444  27.376  18.839  14.609  0.2664  0.0181  0.0404
88392W        W31445  21.828  28.733  18.275 -0.2349 -0.2501  0.0027
88393W        W31446  22.772  12.088  17.495  0.0808  0.4792 -0.1299
88394W        W31447  16.888  20.339  24.179 -0.0541  0.0515  0.1904
88395W        W31448  27.412  12.881  25.776 -0.3785  0.0481 -0.3661
88396W        W31449  16.425  26.464  20.776  0.0749  0.0151 -0.1820
88397W        W31450  11.391  17.342   1.499  0.1470 -0.1592 -0.0590
88398W        W31451   2.238   6.112  18.746 -0.1160  0.0045  0.0253
88399W        W31452  23.779   4.037   3.685  0.0802 -0.0044  0.0500
88400W        W31453  32.224   6.951  20.901 -0.0731  0.1009 -0.1199
88401W        W31454  24.678  29.868   3.228 -0.5145 -0.1078 -0.1278
88402W        W31455  11.066  21.308  21.652 -0.0396 -0.1846  0.2389
88403W        W31456  21.008  10.563   2.706  0.1483 -0.0179  0.0778
88404W        W31457  20.608  11.992  29.151 -0.0152 -0.4547 -0.1085
88405W        W31458  16.006  20.626  15.898  0.1379  0.3050  0.2542
88406W        W31459  21.672  21.025  24.253  0.4009  0.4432  0.0743
88407W        W31460  23.505   2.861  14.801  0.0108 -0.2878 -0.1600
88408W        W31461  30.666   0.664   1.722 -0.0627  0.0866  0.1891
88409W        W31462  34.566  14.766  13.581 -0.2451  0.1500  0.0044
88410W        W31463  33.404  24.214  24.556  0.1838  0.2470  0.0565
88411W        W31464   9.717  22.200  15.877 -0.1499  0.0872  0.0136
88412W        W31465   0.162   6.801  20.204  0.1459  0.0666  0.0837
88413W        W31466  33.828  20.836  14.884 -0.1341  0.0871 -0.2571
88414W        W31467   4.955  30.810   4.142  0.1875 -0.0978 -0.0430
88415W        W31468  23.882   5.469  15.776  0.4289  0.0406  0.0047
88416W        W31469  30.017   1.075  14.354 -0.2107 -0.0567 -0.2872
88417W        W31470  25.403  14.902  19.274 -0.0066  0.1095  0.1935
88418W        W31471  16.482   7.503  16.959  0.0134  0.0326 -0.2894
88419W        W31472  21.753  24.109  14.811  0.1194  0.1063  0.2447
88420W        W31473  21.055   1.890  22.919 -0.0708  0.1131  0.2179
88421W        W31474  20.871   9.117  19.849 -0.2326 -0.5252 -0.0100
88422W        W31475  23.109   4.570   5.419 -0.0602 -0.1987  0.2784
88423W        W31476  16.536  29.414  16.390 -0.0759  0.0483  0.1650
88424W        W31477   2.350  24.811   3.264 -0.2988 -0.2303  0.2870
88425W        W31478  27.052   9.136   2.485 -0.1505  0.0403 -0.0583
88426W        W31479  19.230   4.808  17.283  0.1349  0.0200 -0.2712
88427W        W31480  14.816  12.135  28.876 -0.1514 -0.0517 -0.4721
88428W        W31481  12.183   2.523  19.644 -0.3341 -0.1577 -0.1417
88429W        W31482   1.966   4.530  18.440 -0.0744  0.1511  0.0184
88430W        W31483   6.296  14.005  28.140 -0.1111 -0.0117 -0.1743
88431W        W31484  11.461  26.006  19.181  0.2640  0.2616 -0.1638
88432W        W31485  32.927   4.129  14.541  0.1034 -0.0834 -0.3103
88433W        W31486  33.145  10.768  23.464  0.2015  0.0392  0.0494
88434W        W31487   8.234   4.722  28.117  0.0449  0.1941 -0.0534
88435W        W31488  34.445  19.171  20.138  0.0707  0.0282 -0.0271
88436W        W31489   1.063  24.680  13.567 -0.0207  0.1589  0.2116
88437W        W31490  21.289   3.479   2.336  0.1701  0.0981  0.0629
88438W        W31491  12.431  22.392  18.209 -0.1031 -0.1757  0.2701
88439W        W31492  29.257   3.663  14.603  0.0183  0.0091  0.1197
88440W        W31493  15.168  28.876   0.837 -0.0300  0.3336  0.0999
88441W        W31494  29.532  17.067  20.666 -0.0423 -0.2298 -0.0592
88442W        W31495  29.060  15.479  20.656 -0.0987 -0.1149  0.2347
88443W        W31496  23.836   9.561   0.245  0.4437  0.1541  0.2088
88444W        W31497   8.291   5.807  23.067 -0.0495  0.2479  0.1039
88445W        W31498  25.223  13.852  13.371  0.2173  0.0968  0.0305
88446W        W31499  24.187  16.858  19.385  0.2497  0.0598  0.3084
88447W        W31500  26.869  21.948  29.145  0.3045  0.2078  0.0252
88448W        W31501   9.983  18.314  19.102  0.1229  0.0883 -0.0493
88449W        W31502  22.454  11.990  19.191 -0.0124 -0.1761 -0.2265
88450W        W31503  24.669  33.285  22.121 -0.2043  0.0806  0.3361
88451W        W31504  16.969  31.136  26.318 -0.1119  0.1194  0.1436
88452W        W31505  20.839  24.716  20.705  0.3595 -0.1306 -0.0896
88453W        W31506  31.305   9.744   7.411  0.0987  0.1174  0.2956
88454W        W31507   5.224  26.096  26.223 -0.1636 -0.0099 -0.1331
88455W        W31508  12.550   9.026   3.401  0.0742 -0.1068  0.2242
88456W        W31509   7.115  27.255   1.871  0.0270 -0.1424 -0.1701
88457W        W31510  11.915  31.955  26.963 -0.1116  0.0863 -0.0684
88458W        W31511  28.919  32.235   5.308  0.3677 -0.3354  0.1228
88459W        W31512   9.262  13.622  18.992  0.2469  0.1208  0.0868
88460W        W31513  26.779  16.038  25.889  0.0768  0.1454 -0.1353
88461W        W31514  11.522   3.378  24.189  0.2048 -0.1668  0.0636
88462W        W31515  33.788   9.299  23.957 -0.1332  0.0329  0.0373
88463W        W31516  20.913  17.483  15.799  0.0579  0.2429  0.0052
88464W        W31517   1.518  11.129  26.962 -0.0189 -0.1174 -0.1278
88465W        W31518   1.679  24.912  18.321 -0.2569  0.1149 -0.0458
88466W        W31519  11.356   9.342  22.502 -0.1034  0.1623 -0.0097
88467W        W31520  24.566   6.446  26.629  0.0648  0.3560 -0.0160
88468W        W31521  19.971  32.028  16.186  0.0854  0.2002 -0.1010
88469W        W31522  23.940  19.375  22.581  0.0079  0.0292 -0.2811
88470W        W31523   5.482  17.044  20.395  0.0993 -0.1747  0.0169
88471W        W31524  26.068   8.349  14.779  0.0451 -0.3191  0.1521
88472W        W31525  12.304  33.297  25.553 -0.1127  0.0146  0.1052
88473W        W31526   8.065  12.196  14.563 -0.3867  0.2387  0.1284
88474W        W31527  26.892  13.798  15.927 -0.1644  0.0744  0.0947
88475W        W31528  25.485  34.180  15.058  0.0043 -0.2030  0.0734
88476W        W31529  21.488  25.768  19.009  0.0335  0.1447 -0.1037
88477W        W31530  15.271   0.258   1.366  0.1030 -0.0717  0.1727
88478W        W31531  10.249  23.959  22.376  0.1978  0.0769 -0.2956
88479W        W31532  29.152  20.173   0.291 -0.0598 -0.1224  0.0508
88480W        W31533   1.937  17.821  17.015  0.2281  0.2311 -0.2951
88481W        W31534  17.526  23.007  28.219 -0.1602  0.0842 -0.0276
88482W        W31535  28.727  30.481  14.862  0.1745 -0.4792 -0.0953
88483W        W31536  15.131  27.636  16.244 -0.0476  0.0123 -0.0375
88484W        W31537  26.380  32.562  14.460  0.0017  0.1501  0.0087
88485W        W31538  21.420  10.870  15.292  0.1937  0.0998 -0.0955
88486W        W31539  23.678  21.260  26.539  0.4633 -0.1315 -0.1280
88487W        W31540  28.009  18.029  24.562  0.3587 -0.0502  0.0586
88488W        W31541  25.492  21.878  15.416  0.0043 -0.0010 -0.0370
88489W        W31542   4.689  19.224  26.153 -0.0500  0.1547  0.0830
88490W        W31543  23.880  15.526  24.561 -0.0069  0.1755 -0.2313
88491W        W31544  17.894   9.580  15.971 -0.1800  0.2073 -0.1755
88492W        W31545  26.483  32.834  15.403  0.3190 -0.1346  0.0011
88493W        W31546  25.212  13.440  17.170  0.0440 -0.0148  0.1028
88494W        W31547  33.832  26.886  17.265 -0.0583  0.0657 -0.2203
88495W        W31548  27.998   7.441  16.719 -0.1796 -0.2642 -0.3068
88496W        W31549  25.040  32.884  24.098  0.1760 -0.1625  0.1958
88497W        W31550  18.060   2.592  22.680  0.3544 -0.2967  0.0813
88498W        W31551  24.872  24.933  18.715  0.0054  0.1000  0.1361
88499W        W31552  33.348  11.256  17.085  0.2479 -0.0552  0.1791
88500W        W31553  10.097  26.104  20.428 -0.0424  0.1426 -0.0378
88501W        W31554  22.358  19.733  17.789 -0.1630  0.0529 -0.1144
88502W        W31555  32.503  15.189  20.372 -0.0383  0.2886  0.1113
88503W        W31556   1.894   1.923  28.515 -0.1582  0.1458 -0.0476
88504W        W31557  21.686  33.687  24.518 -0.0125  0.2027 -0.1439
88505W        W31558  12.860   7.810  16.959  0.2105 -0.2354 -0.3376
88506W        W31559   0.234  12.175  21.991  0.0060 -0.3921  0.0317
88507W        W31560  12.220  18.196   4.574 -0.0109 -0.0648 -0.1516
88508W        W31561  13.030  10.725  26.770 -0.1748 -0.0431  0.1309
88509W        W31562  29.322  12.830  26.411  0.2297 -0.1728  0.4437
88510W        W31563  23.303  20.184  20.327  0.3305  0.1355 -0.1050
88511W        W31564  16.527  21.671  17.115  0.2245 -0.2548 -0.1384
88512W        W31565  12.867  15.354  23.447  0.0758  0.1502 -0.1881
88513W        W31566  26.797  10.222  19.182 -0.2169  0.2254  0.0685
88514W        W31567  12.920  11.021  15.500 -0.2629 -0.0166 -0.4699
88515W        W31568  21.536  25.839  17.286 -0.1676 -0.2556  0.1172
88516W        W31569  24.377  22.201   6.580  0.1844 -0.0057 -0.0070
88517W        W31570  12.690  13.036  15.821 -0.4282  0.0719  0.0013
88518W        W31571  19.976  14.037  13.782  0.1043  0.2301  0.1801
88519W        W31572  11.455  12.093  22.913  0.2101 -0.2699  0.2661
88520W        W31573  34.141  23.812  13.949  0.0240  0.3358  0.0411
88521W        W31574  16.672  23.198  17.869  0.2030  0.1538 -0.5139
88522W        W31575  26.590   6.537  20.008 -0.2779 -0.2159 -0.1104
88523W        W31576  13.868  20.373   6.468 -0.1384 -0.3544 -0.1350
88524W        W31577  21.378   6.698  18.097 -0.0222 -0.1281  0.2874
88525W        W31578  24.427   7.554   4.743  0.0206 -0.3117 -0.1436
88526W        W31579   2.855  34.065  21.545 -0.2593  0.1025 -0.0128
88527W        W31580  19.959  17.252  21.994 -0.1871 -0.3855  0.0457
88528W        W31581  33.083   9.354   5.080 -0.2090  0.2529 -0.0337
88529W        W31582  20.030  25.481   2.243 -0.1527 -0.1877 -0.0038
88530W        W31583  27.043   9.422  15.886 -0.1333  0.0717  0.1827
88531W        W31584  14.324   1.702  27.901 -0.3040  0.0250 -0.1137
88532W        W31585   2.496   4.404  23.051 -0.1124 -0.0660 -0.0818
88533W        W31586  19.037  10.208  17.383 -0.1663  0.2486  0.1811
88534W        W31587  16.489   1.002   1.178  0.0085  0.3517  0.1119
88535W        W31588  23.537  11.394  25.089 -0.0465  0.0673  0.0827
88536W        W31589  11.131   2.039   4.052  0.1027 -0.1439 -0.1030
88537W        W31590  20.072   4.028  24.020 -0.0186 -0.0037  0.0130
88538W        W31591  27.783  12.447  25.028  0.1897 -0.1977  0.1173
88539W        W31592  25.364   5.842  27.933 -0.0673  0.2895 -0.2662
88540W        W31593  19.942   4.216  23.563 -0.2836 -0.0725 -0.3064
88541W        W31594   4.938   0.834  16.691  0.2574 -0.1160 -0.0818
88542W        W31595  11.943  12.946  19.205  0.3811  0.3187  0.0580
88543W        W31596  18.152  11.011  18.837 -0.0819  0.0958  0.0766
88544W        W31597  20.111   8.272  18.291 -0.1784 -0.2439  0.2705
88545W        W31598  23.589   4.533  18.109  0.0018  0.1277 -0.0942
88546W        W31599   1.811  19.154  24.366 -0.0790  0.2294  0.1932
88547W        W31600  27.476  14.852  16.622  0.3869 -0.0936 -0.0362
88548W        W31601   8.252  22.434  25.203  0.2094  0.0371 -0.0322
88549W        W31602  21.874  10.649  21.279  0.0608 -0.0853 -0.3014
88550W        W31603  15.053  12.024  16.454 -0.1753  0.1860  0.1108
88551W        W31604  19.119  27.708  28.701 -0.1440  0.2233  0.0863
88552W        W31605  27.683  16.520   5.490  0.0720  0.1496  0.0413
88553W        W31606  27.172   8.503  21.523  0.0623  0.4586 -0.0809
88554W        W31607  18.163  19.179  14.525 -0.0983  0.0104 -0.1609
88555W        W31608   7.863   8.500  22.506 -0.2221 -0.1615 -0.1001
88556W        W31609  27.488  18.289  25.361 -0.2286  0.2078 -0.1277
88557W        W31610  24.597  14.815  16.903  0.0918 -0.0367 -0.0616
88558W        W31611  23.510  21.996  17.927 -0.0415  0.0745  0.1866
88559W        W31612  33.197  27.709  16.034  0.3316  0.0766  0.0716
88560W        W31613  21.759  30.062  26.414 -0.2206  0.1508 -0.0644
88561W        W31614  30.286  18.899  25.360  0.0910 -0.0245 -0.0529
88562W        W31615  33.422   7.505  16.579  0.1855  0.1457  0.4166
88563W        W31616  23.047   2.640  28.807 -0.1795 -0.1604  0.2174
88564W        W31617  11.300  20.519  13.962 -0.2203 -0.0707  0.1177
88565W        W31618  31.064  18.391   5.787  0.0428 -0.3538 -0.1762
88566W        W31619  13.077   2.752  28.220 -0.2806 -0.0481  0.0005
88567W        W31620   4.011   8.047  20.352  0.3644 -0.2403  0.1088
88568W        W31621  28.330   1.698  14.162 -0.2020  0.0462 -0.0223
88569W        W31622   7.812  26.609   4.229 -0.3485 -0.0864  0.0063
88570W        W31623  23.972  32.750  20.893 -0.0140 -0.0746  0.0315
88571W        W31624  12.794   6.026  19.595  0.0539  0.1334 -0.3305
88572W        W31625  30.002  11.252  23.124 -0.2509  0.2771 -0.2699
88573W        W31626  11.030  19.729  22.216 -0.0782  0.6216 -0.1626
88574W        W31627  33.623  12.298  27.576  0.1250 -0.0056  0.0369
88575W        W31628   4.994   6.651  14.397  0.2111  0.0395 -0.1245
88576W        W31629  27.042   9.132   7.710 -0.0404  0.0956  0.1066
88577W        W31630  25.046   4.252  20.827  0.2215 -0.0372  0.1090
88578W        W31631  15.168  24.680  23.700  0.0552 -0.1468  0.0060
88579W        W31632  11.588   6.587   5.200  0.1263  0.2360 -0.3111
88580W        W31633   6.821  22.786  21.657 -0.0090  0.0869  0.0225
88581W        W31634  26.426   7.704  19.839 -0.1680  0.2026 -0.1832
88582W        W31635   7.942  11.373  26.454  0.1146 -0.0396 -0.1910
88583W        W31636  24.814  13.915  14.925 -0.0691  0.0384 -0.2103
88584W        W31637  24.857   7.441  24.113  0.4085  0.0262 -0.1315
88585W        W31638   5.164   9.079  16.363  0.4579  0.1313  0.0574
88586W        W31639  23.372  14.332  20.717 -0.1081  0.0953 -0.0144
88587W        W31640  12.810  19.794  17.778 -0.2063 -0.0328 -0.1575
88588W        W31641   6.009   5.187  28.569 -0.2855 -0.2813 -0.1288
88589W        W31642  14.853   8.364   0.513  0.0798  0.2365  0.1275
88590W        W31643  27.059  14.491  17.151  0.1785 -0.1291 -0.4523
88591W        W31644  31.711  17.796  19.468 -0.1637 -0.1182  0.1768
88592W        W31645  20.825  30.607  17.122  0.0253 -0.3019 -0.2019
88593W        W31646  33.197  26.026  17.077  0.2577  0.0089 -0.0906
88594W        W31647  14.323   9.735  20.845 -0.0452 -0.2171  0.0738
88595W        W31648  15.070   2.386  28.407  0.1773  0.0323 -0.2282
88596W        W31649  17.895   9.423  20.686  0.1371 -0.0648  0.2951
88597W        W31650   8.534  12.336  19.850  0.1481  0.0848 -0.1993
88598W        W31651  13.869   7.676  25.147  0.1848 -0.1908  0.2732
88599W        W31652  19.334   1.781  25.067  0.0320  0.2072 -0.1142
88600W        W31653  33.575   5.516  21.329  0.2307  0.1897 -0.2539
88601W        W31654  28.061   7.791  28.014  0.0575  0.2584 -0.0145
88602W        W31655  25.591   8.006  20.689  0.1874 -0.2955 -0.0483
88603W        W31656  10.450  13.441   9.829 -0.3639 -0.1754 -0.1173
88604W        W31657  25.212  31.028  21.406  0.1545 -0.2976 -0.1304
88605W        W31658  20.407  16.941  20.939 -0.0589 -0.3685 -0.0641
88606W        W31659  23.419   8.143  18.014 -0.1010 -0.2973 -0.3174
88607W        W31660  26.739   5.237   3.228 -0.1644  0.1112  0.0118
88608W        W31661  28.898  28.977  24.433 -0.3998 -0.1900  0.0038
88609W        W31662  26.679  29.406  14.543  0.2831 -0.1641 -0.0246
88610W        W31663  29.413   1.000  28.009 -0.0917  0.0630  0.3183
88611W        W31664  26.230  12.679  23.555  0.0902 -0.1395  0.2368
88612W        W31665   2.670  15.288  13.396  0.0645  0.1741  0.1437
88613W        W31666  13.677  12.154  16.157 -0.0175 -0.2231  0.0470
88614W        W31667  20.598  26.008  20.117  0.2682 -0.0108  0.2319
88615W        W31668  10.652  16.584   6.610 -0.0375  0.1991 -0.1353
88616W        W31669  14.053  27.878  23.918 -0.0290  0.1226 -0.0357
88617W        W31670  29.276  31.052  23.625 -0.0031  0.0279 -0.0371
88618W        W31671  18.149   2.677   3.860  0.0179  0.1287 -0.0207
88619W        W31672  15.742  10.580  23.376  0.2341 -0.1256  0.1372
88620W        W31673  18.129  17.014   6.123  0.0242 -0.1129  0.1916
88621W        W31674  29.054   5.665  26.444  0.2713 -0.1767  0.1337
88622W        W31675  32.214   0.400   3.446  0.0317  0.0520 -0.0400
88623W        W31676  30.585  21.802  23.697 -0.0614 -0.3031  0.0422
88624W        W31677   8.206  14.096   2.493 -0.2986 -0.1147  0.1025
88625W        W31678  27.995  20.658   3.390 -0.1626  0.1232 -0.2660
88626W        W31679  32.697  34.012   9.774  0.3775  0.0723  0.0858
88627W        W31680  26.623   4.339   1.945  0.2781 -0.0777 -0.0821
88628W        W31681   8.125  20.480   0.116  0.0409 -0.0841  0.4317
88629W        W31682  25.770  30.457  18.645 -0.2753 -0.0891  0.1241
88630W        W31683  30.135   2.361  13.709 -0.0301 -0.1196  0.3094
88631W        W31684  25.148  13.578  16.502 -0.0162 -0.0116 -0.3568
88632W        W31685  20.889   1.978  17.375 -0.0526  0.0204  0.1484
88633W        W31686  18.878  14.768  12.908  0.2682 -0.0296  0.1748
88634W        W31687   7.467  20.223  19.902  0.0692  0.0838 -0.2269
88635W        W31688  20.922  25.228  20.757  0.2644 -0.3377 -0.1306
88636W        W31689   0.296  15.709  14.560  0.1658 -0.0367  0.0361
88637W        W31690  13.366  25.038  19.938  0.0121 -0.0971  0.2457
88638W        W31691   2.873   8.245  24.074  0.2171  0.1925  0.1085
88639W        W31692  25.333  16.415  28.162  0.0211  0.0531  0.0184
88640W        W31693  25.486  19.112  13.745 -0.1013  0.0191 -0.0661
88641W        W31694  25.264   1.362  23.539 -0.2151 -0.0096 -0.1176
88642W        W31695  21.439  31.886  18.510  0.2874  0.1711  0.1894
88643W        W31696  20.679  29.789  15.783  0.1577  0.3296  0.0582
88644W        W31697  16.102   4.111   8.900  0.0234 -0.0540  0.0755
88645W        W31698  19.564   8.562  17.061  0.1821 -0.0693 -0.0409
88646W        W31699  24.713   5.136  28.940 -0.0119  0.0502 -0.0304
88647W        W31700  21.675   1.935  17.826  0.0870 -0.0901  0.0023
88648W        W31701  26.391  13.427  22.571  0.2593  0.0150 -0.1168
88649W        W31702  26.416  14.323  25.141 -0.1629  0.1130  0.0007
88650W        W31703  16.143   3.505  29.185 -0.4187 -0.2297  0.1904
88651W        W31704  13.617  14.556  29.045 -0.0344 -0.1025  0.0407
88652W        W31705  29.720   5.088  15.891 -0.3248 -0.2092  0.2490
88653W        W31706  12.083   8.839  23.296 -0.3249 -0.1661 -0.0065
88654W        W31707  21.233  20.014  16.886 -0.3049  0.0481 -0.0156
88655W        W31708   5.781  17.830   1.601  0.2396  0.1663 -0.1911
88656W        W31709  25.163  10.370  17.611 -0.1252  0.0818  0.3476
88657W        W31710  27.987  13.449   4.730  0.2440 -0.1419  0.2248
88658W        W31711  20.725  18.820  14.309 -0.1670  0.3646 -0.1393
88659W        W31712  29.754  13.530  24.725  0.1319 -0.0229 -0.1946
88660W        W31713  22.303  10.074   7.292  0.3534 -0.1435 -0.1532
88661W        W31714  22.240  32.168   5.400  0.1556 -0.1781  0.1834
88662W        W31715  19.358   2.831   6.871  0.0968 -0.2557  0.2187
88663W        W31716  34.338   2.133  27.608  0.2342 -0.2119  0.0170
88664W        W31717  19.799  24.927   0.073  0.0009  0.0175 -0.1241
88665W        W31718   5.474  23.811  23.146  0.0751  0.1729  0.1213
88666W        W31719  16.029   0.206   2.862 -0.2103  0.0985  0.1007
88667W        W31720  24.786  14.237  27.360 -0.0775  0.0175  0.2338
88668W        W31721   2.075   6.290  25.388  0.0761  0.1284 -0.0639
88669W        W31722  26.046   8.687   8.457 -0.1980 -0.4149 -0.1251
88670W        W31723  27.684  16.209  16.341  0.0432 -0.0527 -0.1426
88671W        W31724  15.340  31.445   8.110  0.1432 -0.0379 -0.1547
88672W        W31725  19.791  16.999   0.593 -0.2815 -0.1558  0.0519
88673W        W31726  17.028  27.037  20.406  0.0239  0.0435 -0.2994
88674W        W31727  15.751  10.902  16.163 -0.5205 -0.1390 -0.0487
88675W        W31728  20.080   3.966  20.357  0.1344 -0.0522  0.5858
88676W        W31729  13.855  11.770  16.393 -0.0856 -0.2300  0.0697
88677W        W31730  30.255  12.821   1.759 -0.2775  0.2193 -0.0926
88678W        W31731   8.455  16.400  29.085 -0.1063  0.3399 -0.1909
88679W        W31732  10.100  14.582   2.456  0.3378  0.0372 -0.0039
88680W        W31733  24.682  23.483  23.827 -0.3270 -0.0269 -0.1133
88681W        W31734  25.659   0.743  22.752  0.0167  0.4856 -0.2539
88682W        W31735  29.104  21.583   5.814  0.1125  0.0492 -0.0151
88683W        W31736  12.925  10.181   2.688  0.1241 -0.0520  0.0013
88684W        W31737  14.324  24.092  10.871  0.2412  0.2610 -0.1040
88685W        W31738  29.019  15.902   7.991  0.1660 -0.0720  0.3966
88686W        W31739  14.346  15.543  21.463 -0.2077  0.2349  0.0233
88687W        W31740  23.565   7.830  20.766 -0.0703 -0.0993  0.1206
88688W        W31741  17.005  11.066  18.196  0.4243 -0.0969 -0.1543
88689W        W31742  28.612  22.651  26.868 -0.1885 -0.1125 -0.3915
88690W        W31743  20.935  22.419  21.335 -0.1755  0.0041 -0.2410
88691W        W31744  21.760   2.256   7.082 -0.0483 -0.0647 -0.1926
88692W        W31745  27.866  18.606   0.768 -0.0154  0.0022 -0.1652
88693W        W31746  21.778   6.972  19.942  0.3471 -0.3060  0.2881
88694W        W31747  12.078   5.952  28.600 -0.1429  0.1813 -0.0606
88695W        W31748  21.071  14.706  21.421 -0.0251 -0.0930  0.0506
88696W        W31749  25.022  27.914  17.753 -0.1451  0.0878 -0.1495
88697W        W31750  13.658  18.676  13.329  0.0494 -0.0286 -0.2686
88698W        W31751   6.116   5.423  27.359 -0.8510  0.1738  0.0519
88699W        W31752  16.187   6.442  21.696  0.3787 -0.0747  0.3077
88700W        W31753   8.264  10.796  28.200 -0.0447  0.1009 -0.3933
88701W        W31754   0.939  33.774   4.039 -0.0727  0.0941  0.1287
88702W        W31755  11.017  32.357  17.056  0.1694 -0.2981 -0.0296
88703W        W31756  11.993  16.549  18.018 -0.1606  0.1160  0.0134
88704W        W31757  29.642   1.553   5.466  0.3028  0.1216  0.1577
88705W        W31758   8.988  20.484  20.998 -0.0081  0.1318 -0.2088
88706W        W31759  24.601  16.765   2.894  0.4174  0.1840 -0.3283
88707W        W31760  25.752   3.421  20.443 -0.3640 -0.2982  0.2736
88708W        W31761  10.748   9.179  17.064  0.1091  0.3037 -0.0271
88709W        W31762   5.971  12.408  20.478 -0.0050 -0.1028  0.1323
88710W        W31763   6.857  31.545  15.804  0.3944 -0.0071  0.0398
88711W        W31764   5.222  11.551  28.540 -0.2192  0.1830 -0.3101
88712W        W31765  33.975  11.498   5.000 -0.0010  0.1282 -0.1577
88713W        W31766   4.002  32.368   0.981  0.1870 -0.0273 -0.0162
88714W        W31767  19.411  28.973  17.724 -0.2594  0.2003 -0.1470
88715W        W31768  23.197  24.951  14.735  0.0110 -0.1785  0.0468
88716W        W31769  24.645   4.465   0.481 -0.0104  0.4518 -0.1075
88717W        W31770  27.899   6.465  16.100  0.1981  0.1284 -0.0343
88718W        W31771   9.549  28.382  18.633  0.1807  0.0360  0.0608
88719W        W31772  16.242  18.636  13.343  0.2211  0.0507 -0.0471
88720W        W31773  10.366   2.069  20.041 -0.1310  0.0571 -0.1121
88721W        W31774  19.454   9.522   4.558 -0.1305 -0.0298  0.2703
88722W        W31775  21.579   4.353  23.034  0.0378 -0.0518  0.0489
88723W        W31776  23.291  18.360  19.818 -0.0484  0.0669  0.1724
88724W        W31777  28.461   8.194  21.286 -0.1393  0.2029 -0.1667
88725W        W31778   8.426   6.635  28.139  0.1339 -0.2982  0.1443
88726W        W31779  11.638   3.646  17.267 -0.1964  0.0385 -0.0728
88727W        W31780  28.029  14.953  19.346  0.0633 -0.1440  0.1294
88728W        W31781  19.130   1.291  24.315 -0.1788 -0.2859  0.2864
88729W        W31782  29.936  17.828  17.368 -0.0292  0.3182  0.1538
88730W        W31783  21.162  21.548   4.995 -0.1305  0.1673 -0.0403
88731W        W31784  18.494  22.513  15.187  0.0383  0.1225 -0.1796
88732W        W31785  22.998  21.443   3.195 -0.0712  0.1297  0.0879
88733W        W31786  24.887  19.965  20.576 -0.4065  0.1530 -0.1913
88734W        W31787   8.543  17.572  25.777 -0.1033 -0.3046  0.2092
88735W        W31788  15.160   3.717  22.538  0.0644  0.0489  0.2191
88736W        W31789  19.290   6.914  27.108  0.1607  0.2119  0.0671
88737W        W31790   1.108  16.467  20.668 -0.1142 -0.2492 -0.0299
88738W        W31791  30.675  18.740  21.234 -0.1732  0.1313 -0.2774
88739W        W31792  21.242   7.564  24.259 -0.2338 -0.0961 -0.0251
88740W        W31793  23.140   9.011   2.847 -0.1625 -0.1522  0.0561
88741W        W31794  25.477  16.393  18.237  0.1301 -0.3668  0.1118
88742W        W31795  28.179   7.915   1.212  0.2928 -0.1098  0.1573
88743W        W31796  24.527  16.687   3.491 -0.1013 -0.2126  0.1655
88744W        W31797   5.754  28.884   5.809 -0.0440 -0.0418  0.3652
88745W        W31798  17.379  18.737   6.767  0.0082  0.1499  0.0557
88746W        W31799  13.117   8.104  22.273  0.2350 -0.0829  0.0281
88747W        W31800  30.546  24.054   8.186  0.0318  0.1567 -0.2082
88748W        W31801  19.694  11.511  19.431  0.1134  0.3909  0.0870
88749W        W31802  27.349   7.218  20.241 -0.1339  0.0146 -0.0852
88750W        W31803  21.385   3.343  24.947  0.2748 -0.0350 -0.1590
88751W        W31804  30.063   9.533   3.506 -0.0322  0.3285 -0.2662
88752W        W31805   6.821  10.303  10.713  0.1010  0.0279 -0.0618
88753W        W31806  19.415  19.271  22.907  0.2885 -0.1604  0.0383
88754W        W31807  14.779   6.267  27.611  0.0357  0.0196  0.0474
88755W        W31808  23.327   9.232  19.155  0.4959  0.3156 -0.0299
88756W        W31809  10.643   3.053   2.911 -0.2677  0.0221 -0.3480
88757W        W31810  12.375   9.249  18.701  0.3177 -0.3638  0.3826
88758W        W31811  20.333  30.888  25.266 -0.1576 -0.0453  0.1040
88759W        W31812  25.833  16.021  25.954  0.4082 -0.0272 -0.2929
88760W        W31813   7.168   6.763  24.359  0.0012 -0.0471  0.0967
88761W        W31814  29.894  16.953  22.428  0.1565 -0.0320  0.2451
88762W        W31815  28.331  16.320   6.458  0.0995 -0.1810 -0.1003
88763W        W31816  26.751  12.310  21.850  0.1750 -0.3127 -0.0082
88764W        W31817  16.545  18.849   4.462 -0.0779  0.0914 -0.0385
88765W        W31818  14.322  13.764  15.168  0.1291  0.1066 -0.2127
88766W        W31819  11.737  31.746  20.769  0.0280 -0.1427 -0.0630
88767W        W31820  21.892  17.181  14.696 -0.0380 -0.0352 -0.0483
88768W        W31821  25.435   7.661  27.004  0.1349 -0.0661 -0.2466
88769W        W31822  23.123   5.492  16.473 -0.3706  0.1254 -0.0212
88770W        W31823  18.194  26.389  15.394 -0.1985  0.3054 -0.0155
88771W        W31824  22.889  12.263  21.933 -0.2546  0.1637  0.2724
88772W        W31825  13.115  27.447  24.985  0.1538 -0.0645 -0.2142
88773W        W31826   6.882  22.306  25.979  0.3461 -0.1700 -0.1439
88774W        W31827  21.524  21.931  18.392 -0.0472  0.0137  0.0366
88775W        W31828  26.971  27.142  21.916 -0.1594  0.0885  0.0018
88776W        W31829   5.209  32.921   1.982 -0.2000 -0.1192  0.0391
88777W        W31830  16.911   3.203  26.404 -0.1644  0.1376 -0.1885
88778W        W31831  30.659   2.750   5.272  0.2751 -0.0992 -0.3958
88779W        W31832  17.496  10.407  20.548  0.0568  0.0819  0.0296
88780W        W31833  12.300  27.545   3.244  0.0795 -0.0339  0.3529
88781W        W31834   0.620   1.524   2.425  0.4235  0.0417  0.1799
88782W        W31835   8.171  10.554  23.381  0.2407  0.1466 -0.1749
88783W        W31836  14.660  24.227  21.103  0.1669  0.1107  0.4286
88784W        W31837  18.100   5.519  28.538 -0.3598 -0.4380  0.2870
88785W        W31838  19.121  11.008  21.448 -0.1643 -0.1124 -0.1168
88786W        W31839  20.858  15.021  15.844 -0.1689  0.0127  0.0136
88787W        W31840   8.137   2.742   5.727 -0.1050  0.0010  0.1698
88788W        W31841  32.509  33.612  20.507  0.0191  0.0195  0.1244
88789W        W31842  19.726   1.304  21.959 -0.2300  0.0960 -0.1302
88790W        W31843   6.602  33.695  25.027 -0.3281 -0.2143 -0.0684
88791W        W31844   6.382  20.272  17.591  0.1500  0.3195  0.4630
88792W        W31845   3.596  15.565   8.522 -0.5400 -0.0546 -0.2259
88793W        W31846  10.060  16.129   0.355  0.2088  0.0074 -0.1159
88794W        W31847  24.232   5.776  17.209  0.1594  0.0408  0.2005
88795W        W31848  32.287  16.635  25.888  0.0021  0.1359  0.0693
88796W        W31849  11.841   6.960  17.623  0.4267  0.0082  0.0832
88797W        W31850   5.192   7.873  19.011  0.2176  0.3956 -0.2627
88798W        W31851  31.575  15.332  23.689  0.2518  0.2845 -0.0458
88799W        W31852  28.587  17.978  16.737  0.0943 -0.0239 -0.2383
88800W        W31853  12.692   6.370   2.810  0.0708  0.1901  0.0939
88801W        W31854   0.871   3.809   6.676  0.1815  0.0270  0.1142
88802W        W31855  23.202  30.907   2.311  0.1808  0.0040  0.1430
88803W        W31856  10.818  30.339   2.804 -0.2402 -0.1844  0.0808
88804W        W31857   7.667  13.061   4.489  0.1292  0.1135  0.2837
88805W        W31858  15.132  34.563   1.751  0.2533  0.0607 -0.3896
88806W        W31859  21.866   5.004  26.493 -0.1274 -0.1115 -0.2926
88807W        W31860  32.939  11.619  25.791  0.0362  0.4130  0.0951
88808W        W31861  28.095   7.684  22.242 -0.5759  0.1747  0.0793
88809W        W31862  17.898  10.382   0.605 -0.2543 -0.0817  0.2000
88810W        W31863  17.888  12.749  19.294 -0.0723  0.0253 -0.1339
88811W        W31864  23.470  33.009  22.042 -0.2201 -0.2657 -0.0727
88812W        W31865  16.952   7.972   7.483  0.1222  0.0291  0.2943
88813W        W31866  19.990  14.219   9.384 -0.4086 -0.0125 -0.4779
88814W        W31867  19.718  14.907  27.751  0.2508  0.0678 -0.3740
88815W        W31868  12.784  10.308  26.492 -0.0707  0.0080  0.2238
88816W        W31869   4.733   3.444  20.568 -0.1083 -0.1153  0.1034
88817W        W31870  20.924  19.458  25.586  0.2556  0.1272 -0.0515
88818W        W31871  20.724  14.598  19.286  0.0612 -0.0866  0.1556
88819W        W31872   3.894   6.265   6.753  0.0346 -0.0803 -0.1880
88820W        W31873  25.934   6.246   4.725 -0.1699  0.1586 -0.1393
88821W        W31874  31.344   8.536   4.626 -0.0911  0.0557 -0.0886
88822W        W31875   1.163   2.955  18.088 -0.1168 -0.1051 -0.0433
88823W        W31876  19.779  31.205  28.062  0.1287 -0.1723  0.1519
88824W        W31877   1.273   2.985  18.965  0.4838  0.0385 -0.0292
88825W        W31878  10.109  10.848  24.529  0.3296 -0.0018  0.0937
88826W        W31879  12.743  10.731  16.128 -0.2935  0.1615  0.0086
88827W        W31880  10.265   4.736  24.953  0.1709  0.0986 -0.0476
88828W        W31881  13.607   7.280   2.517 -0.1084  0.0907 -0.1554
88829W        W31882  24.564  13.714  20.643  0.0719  0.2813  0.3337
88830W        W31883  22.344   6.096  20.668  0.0782  0.1943  0.0039
88831W        W31884  23.639   5.329  25.204  0.4398  0.1586  0.2056
88832W        W31885  12.739  24.311   8.707  0.1088 -0.1150  0.1395
88833W        W31886  22.878   8.328  27.769  0.0205  0.1868 -0.0727
88834W        W31887   9.858   6.765  18.449  0.4036  0.0987 -0.0607
88835W        W31888  19.317  20.094   9.508  0.2559  0.0183 -0.2521
88836W        W31889  27.475   6.823  14.266  0.1167  0.0312  0.1432
88837W        W31890   5.601  15.607   3.680 -0.1184  0.2075 -0.3458
88838W        W31891  20.163  10.218   0.709  0.2681  0.2823  0.1290
88839W        W31892  23.111  10.603  25.681  0.1262  0.0843  0.0058
88840W        W31893   6.422  25.059  16.416 -0.2236  0.1059  0.0028
88841W        W31894  26.830  25.631  25.370 -0.0655 -0.0833  0.0533
88842W        W31895  26.992  25.054  23.152 -0.1064  0.0295  0.0815
88843W        W31896  15.176  22.119   2.814  0.1094  0.0765 -0.1704
88844W        W31897  14.722  23.890  16.551  0.0024 -0.3912 -0.1126
88845W        W31898  15.571  13.698   2.966 -0.0831  0.0833  0.0602
88846W        W31899  10.777   8.795  20.941 -0.1198 -0.0015  0.0645
88847W        W31900  28.615  30.048   1.442 -0.2062 -0.1676  0.0214
88848W        W31901  17.049   4.151  27.632  0.1745  0.0269  0.0192
88849W        W31902  13.348  11.860   9.048  0.1839 -0.1491  0.4543
88850W        W31903  30.605   8.878  23.944 -0.1664 -0.1074 -0.1259
88851W        W31904  24.895  32.882  23.554  0.1080 -0.2959 -0.0340
88852W        W31905   4.230  12.789   2.132 -0.0395  0.1136  0.0501
88853W        W31906  27.074  24.643   3.066  0.3455  0.0414 -0.0117
88854W        W31907   8.790   4.825  16.153  0.2151 -0.3090  0.2386
88855W        W31908   6.337  23.537   9.019  0.0681 -0.1172  0.3757
88856W        W31909   0.227  25.415  17.289  0.2666 -0.0942  0.2310
88857W        W31910  25.310  15.209  13.912  0.4141  0.1325  0.0715
88858W        W31911  19.362  14.115  21.768 -0.3363  0.1553  0.0653
88859W        W31912  21.470   0.171  26.242  0.2758  0.3533 -0.1728
88860W        W31913  18.722  11.780   0.949  0.1839 -0.1217  0.0169
88861W        W31914  30.407  23.967  27.197  0.0062  0.1127 -0.0314
88862W        W31915  15.984  18.064  13.055  0.0465 -0.1329 -0.0435
88863W        W31916   3.101  11.330  16.036  0.1093 -0.4088  0.0302
88864W        W31917  27.954  19.358  13.743 -0.0141  0.5244 -0.0828
88865W        W31918  19.114   9.821  16.423 -0.2600  0.2637 -0.0926
88866W        W31919  21.966   8.053   3.418 -0.2412  0.1444 -0.2240
88867W        W31920  21.604  11.330  17.990  0.2068  0.2430  0.0259
88868W        W31921  16.273  23.377  28.947 -0.0639  0.0757 -0.0678
88869W        W31922  14.466  11.620  24.379  0.2857 -0.1842  0.1205
88870W        W31923   5.902  27.822   0.738  0.0539  0.1440 -0.1754
88871W        W31924  20.572  30.460  13.959  0.0014 -0.0543 -0.2813
88872W        W31925   5.532  19.396  14.857 -0.2401  0.1797 -0.1411
88873W        W31926  31.924   1.273  17.708 -0.1326 -0.0676  0.0304
88874W        W31927  14.746  29.422  15.636  0.1519  0.2538 -0.2802
88875W        W31928  26.161  20.633  16.399 -0.1960  0.1113 -0.2895
88876W        W31929  29.825  13.287  15.941 -0.2065 -0.0468 -0.3316
88877W        W31930  28.953   8.743  18.435  0.3134 -0.1181  0.0847
88878W        W31931   1.134  19.150  16.681 -0.0896  0.1126  0.1208
88879W        W31932  17.187  32.780  13.980  0.1114  0.0977 -0.0316
88880W        W31933  26.227   8.297   8.661  0.1514 -0.2796  0.1177
88881W        W31934  24.112  16.119  16.397  0.1562  0.0047 -0.0879
88882W        W31935  33.069   8.974   0.614 -0.4596 -0.3870 -0.1120
88883W        W31936  20.770  34.002  22.007  0.0562 -0.1729 -0.0710
88884W        W31937   9.507  15.155  22.922 -0.0756  0.1131  0.1213
88885W        W31938  31.983   1.028  26.503 -0.0395  0.1389 -0.1560
88886W        W31939   6.305  20.976  14.286 -0.0503 -0.0332 -0.1237
88887W        W31940  13.216   9.509  21.415 -0.0041 -0.0752 -0.0279
88888W        W31941  32.835  33.496   3.669 -0.2053  0.2112  0.0815
88889W        W31942   0.232   2.247   7.143 -0.0100  0.2213 -0.1637
88890W        W31943  20.319  27.784  16.870 -0.0446  0.2129  0.1651
88891W        W31944  28.399  18.656   2.244 -0.2376  0.1756  0.1297
88892W        W31945  29.795   8.502  22.816  0.1992 -0.3167 -0.2515
88893W        W31946  26.936  18.369  16.126  0.4040  0.2191  0.4349
88894W        W31947  26.406   3.881  28.409  0.1444 -0.5112 -0.2595
88895W        W31948  21.505   6.728   0.632  0.0607 -0.0148  0.1917
88896W        W31949  23.395  17.134  19.648  0.1396 -0.2496 -0.0437
88897W        W31950  21.964  22.755   0.574  0.2203 -0.2972  0.0854
88898W        W31951  28.975  27.088  14.380 -0.0744  0.1318 -0.2411
88899W        W31952  14.636  21.030  19.465 -0.2644 -0.0905  0.0962
88900W        W31953  25.863   2.399  16.916 -0.0063  0.1203 -0.1708
88901W        W31954  28.939   4.514  14.044  0.0159  0.1146  0.3304
88902W        W31955  27.417   7.345  23.517  0.2128 -0.0894  0.0420
88903W        W31956  26.929  21.632   7.397 -0.1546 -0.2037 -0.2421
88904W        W31957  25.980   7.279  18.528 -0.0632  0.0219 -0.1210
88905W        W31958   3.756  24.156  19.766  0.3410  0.0374  0.1305
88906W        W31959  30.960  26.671  21.531 -0.4013 -0.1502  0.0617
88907W        W31960  17.272   1.924  15.048 -0.3035  0.1640  0.0756
88908W        W31961  14.307  16.687  16.930  0.1854  0.1082  0.0299
88909W        W31962  31.867   9.027  18.806  0.3375  0.0961 -0.2575
88910W        W31963  12.581  27.570  21.668  0.1524 -0.1976 -0.2350
88911W        W31964  23.123   9.857  24.110  0.1552  0.1869 -0.2325
88912W        W31965  28.592  29.777   2.073  0.2528  0.0745 -0.0073
88913W        W31966  19.757  16.372   2.253 -0.0714 -0.2862  0.3813
88914W        W31967  26.215  24.613  19.858  0.0189 -0.2286  0.0926
88915W        W31968   9.251  24.868  15.540 -0.0005 -0.0102 -0.2635
88916W        W31969  25.210   5.011  21.492  0.0630  0.1942  0.0726
88917W        W31970  15.849  12.133  27.207  0.3674 -0.0428 -0.2035
88918W        W31971   7.155  30.891  26.758  0.1660  0.0540  0.0784
88919W        W31972  18.579  12.152  10.178 -0.0794 -0.1646 -0.1723
88920W        W31973  17.769  10.694  28.298  0.0754 -0.1331  0.0276
88921W        W31974  15.926   8.884  21.148 -0.0119 -0.0640 -0.4155
88922W        W31975  14.318   6.319  21.408 -0.0512  0.0459  0.1297
88923W        W31976  19.743  28.542  25.352  0.0975  0.0498 -0.1473
88924W        W31977  23.731  18.544  18.570  0.0012 -0.2123  0.2709
88925W        W31978   2.622  23.444  13.360  0.2886  0.0190 -0.1656
88926W        W31979   8.416  33.847  19.835 -0.1286  0.2120  0.4412
88927W        W31980  23.643   7.392  17.614  0.1654 -0.0369 -0.0900
88928W        W31981  23.164  11.583  23.389  0.2290  0.0995  0.0323
88929W        W31982  29.911  13.961  18.002 -0.1627 -0.1001  0.0927
88930W        W31983   0.323  21.400  20.420 -0.0764  0.1346 -0.0231
88931W        W31984  20.353  24.752  20.848 -0.1676 -0.1562  0.3362
88932W        W31985  26.852   5.895  14.153  0.1672  0.1263  0.1566
88933W        W31986  21.707   9.745   3.458  0.0395 -0.2965 -0.1184
88934W        W31987  14.126  18.599  15.405  0.0614  0.0701  0.0885
88935W        W31988  21.515   8.131   3.119  0.0128 -0.3021  0.2344
88936W        W31989  22.180  25.945  27.145 -0.2360  0.0004 -0.0767
88937W        W31990  16.649   1.277   7.578  0.1519 -0.0713  0.3783
88938W        W31991  32.731  21.005   6.745 -0.1307 -0.0017 -0.2161
88939W        W31992   1.396  11.435  10.210 -0.1538  0.0625  0.0508
88940W        W31993  13.241  14.593  19.977  0.0898 -0.0958 -0.2839
88941W        W31994   9.056  12.197  23.417  0.0242  0.2342 -0.1300
88942W        W31995  18.743   3.425  26.441  0.1152  0.1272 -0.4574
88943W        W31996  14.519   8.032   4.130 -0.3624  0.0836  0.0955
88944W        W31997   3.999   8.360  17.137  0.2025 -0.1694 -0.2407
88945W        W31998  30.373   1.631  20.125 -0.0553  0.1654 -0.2554
88946W        W31999  18.463  18.162   3.056 -0.1429 -0.1724 -0.0824
88947W        W32000  21.019  32.970  20.873 -0.0795  0.0421 -0.2018
88948W        W32001  25.076  13.909  25.948 -0.1900  0.2551 -0.1139
88949W        W32002  13.110   8.159  28.786  0.0588  0.1882  0.2107
88950W        W32003  26.812  11.044  20.006  0.1560  0.1952  0.1217
88951W        W32004   8.919  28.193  12.863 -0.0319 -0.0268  0.2514
88952W        W32005  31.090   1.598   4.158 -0.0885 -0.1826  0.1753
88953W        W32006  33.182  26.735   1.475 -0.1221 -0.1700  0.1110
88954W        W32007  21.613  10.287  15.016  0.1990 -0.0780  0.0580
88955W        W32008  25.947   3.025  28.272  0.1152 -0.1138 -0.2438
88956W        W32009  32.142   1.377   3.733 -0.1604  0.2240  0.0896
88957W        W32010  28.190  14.568   6.788  0.2403  0.2649  0.1049
88958W        W32011  31.498  12.693   1.125  0.2076 -0.0057 -0.2369
88959W        W32012  28.820  27.103  15.799  0.0226 -0.1503  0.1868
88960W        W32013  27.535   4.028  27.680  0.0623 -0.1198 -0.1330
88961W        W32014  14.869   3.943  20.943  0.0773 -0.0105 -0.1869
88962W        W32015  10.739  18.244  23.036  0.0175 -0.2302  0.1348
88963W        W32016  18.207  10.116   9.256  0.1298  0.1939  0.1180
88964W        W32017  15.527  15.688   5.110  0.1956 -0.0467  0.1843
88965W        W32018   4.854  14.574   6.474  0.0251  0.1810 -0.0615
88966W        W32019  22.967  11.439   4.729  0.1921  0.0037 -0.0463
88967W        W32020  18.076   2.305  15.585  0.0039 -0.2490  0.1891
88968W        W32021   6.004  10.506  21.700  0.1603  0.0429  0.2339
88969W        W32022   5.824  15.476  20.951  0.1342 -0.1251  0.0563
88970W        W32023  31.332  14.318  15.353 -0.4362 -0.0536  0.0623
88971W        W32024   8.686   2.267   0.046 -0.1318  0.1015 -0.3416
88972W        W32025   9.248  16.514   9.965  0.1001  0.0209  0.2550
88973W        W32026  14.118  18.852  28.447 -0.1495 -0.3301  0.1802
88974W        W32027  19.035  16.017  28.984  0.1136 -0.1961 -0.3175
88975W        W32028  24.123   0.357  26.583  0.0958  0.0777  0.0486
88976W        W32029  13.865  15.140  28.943 -0.0572 -0.0299 -0.0091
88977W        W32030   0.197  16.580  27.519 -0.1028 -0.1212  0.1142
88978W        W32031  17.923  22.500  15.139 -0.0446  0.2120 -0.3487
88979W        W32032   8.675   6.751   4.787  0.0280 -0.1525 -0.1587
88980W        W32033  28.401  17.799  15.978 -0.0943  0.3328 -0.2906
88981W        W32034  25.103  12.806  27.843 -0.0795 -0.1111  0.1088
88982W        W32035  23.592  13.588   2.078 -0.1509  0.0615  0.0531
88983W        W32036  24.069   1.928  27.631 -0.4310  0.0861  0.0909
88984W        W32037  32.868   2.085  25.524 -0.0709 -0.1124  0.3561
88985W        W32038  10.686  18.023   2.281 -0.0374  0.2224  0.0060
88986W        W32039   8.729  16.028  14.812  0.1439 -0.1606  0.0645
88987W        W32040  31.884   8.955  24.147 -0.0439 -0.2009  0.1900
88988W        W32041  33.608  13.311   7.936 -0.2693  0.1337 -0.1762
88989W        W32042  31.519  22.105   2.206 -0.2407  0.0288 -0.2622
88990W        W32043  26.819   6.063  26.165 -0.0945  0.2143 -0.1163
88991W        W32044  24.421   6.267  19.125  0.0628 -0.2379  0.1630
88992W        W32045  24.099  21.750   8.953 -0.2553 -0.2552 -0.1435
88993W        W32046  29.223  12.693  24.617  0.2425 -0.0178  0.4593
88994W        W32047  27.405  13.461   9.857 -0.0454  0.3054  0.3703
88995W        W32048  17.640  31.191   0.571  0.2803 -0.1404 -0.0853
88996W        W32049  20.199  16.036   7.194  0.0782 -0.0275  0.2725
88997W        W32050  19.253  17.439  26.650 -0.3854 -0.0647  0.0841
88998W        W32051   4.794   7.881   0.986  0.0778  0.0445  0.2446
88999W        W32052  29.507  11.904  15.168 -0.1895 -0.2793  0.1861
89000W        W32053  14.795   5.423  25.062  0.0573  0.3368 -0.0704
89001W        W32054  16.636  17.091   2.324 -0.1121  0.3666  0.0273
89002W        W32055   0.808   4.099  28.173  0.1459  0.3965 -0.1572
89003W        W32056  26.626   1.245  21.236 -0.2495  0.1673  0.0159
89004W        W32057  11.956  33.230  24.386  0.3056  0.1051 -0.4798
89005W        W32058  23.912  11.121  21.430 -0.1194 -0.1250 -0.1202
89006W        W32059  17.660  22.107   6.111  0.0338 -0.0453 -0.1455
89007W        W32060  24.292  20.198   9.276 -0.0783 -0.0973 -0.0279
89008W        W32061  25.110  22.034  23.936  0.1092  0.1615  0.2131
89009W        W32062  22.897  16.474  10.056  0.1922  0.1649 -0.4689
89010W        W32063  28.249   6.651  19.749 -0.3929  0.1046 -0.0894
89011W        W32064  26.790  23.757  21.374  0.0635  0.2040  0.0436
89012W        W32065  16.068   9.018  26.897  0.4512 -0.1829 -0.2729
89013W        W32066  32.144   9.859  10.049 -0.1722  0.1516  0.2860
89014W        W32067  11.697  26.332  25.266 -0.0237  0.2800 -0.0594
89015W        W32068  34.667   4.587   1.302  0.1027  0.0699 -0.1425
89016W        W32069  26.820   8.036  26.348 -0.0453  0.2478 -0.2833
89017W        W32070  20.601   4.844  25.659 -0.2608  0.0196  0.0543
89018W        W32071  29.653   7.167   7.112 -0.1615  0.2455  0.0374
89019W        W32072  16.896  23.645  15.641  0.1262 -0.0008  0.1428
89020W        W32073  22.407  30.356  22.912  0.0866  0.1918 -0.2548
89021W        W32074  31.638  15.634   5.962  0.2139 -0.0402  0.0226
89022W        W32075  25.150  20.844  19.039  0.2862  0.2276 -0.1704
89023W        W32076  19.970  24.653   6.613  0.0385  0.2264  0.0562
89024W        W32077  15.855   4.003  27.770  0.2549  0.1724 -0.4312
89025W        W32078   3.621   1.914  14.678 -0.0369  0.0112 -0.0303
89026W        W32079  12.359   9.804  16.353 -0.0824 -0.1786 -0.0777
89027W        W32080  25.066   6.636  21.922  0.3493 -0.3725  0.0006
89028W        W32081  20.631   6.953  10.629  0.0133  0.0246 -0.0339
89029W        W32082  26.565  21.764  27.407 -0.1485  0.1336  0.0543
89030W        W32083  22.130   1.208   2.587 -0.2318 -0.0454 -0.1574
89031W        W32084   9.541  19.248  22.182  0.0063 -0.4139 -0.2391
89032W        W32085  22.046  13.551   0.680  0.2413  0.0974 -0.0334
89033W        W32086  26.699  15.643  19.017  0.1363 -0.4436  0.0091
89034W        W32087  23.361   6.143  14.602 -0.3140 -0.0178 -0.1044
89035W        W32088  21.628   8.064  26.530  0.0471  0.0679  0.1163
89036W        W32089  16.443  13.869  28.989 -0.3072 -0.2515 -0.2037
89037W        W32090   9.833   7.438   1.656 -0.0737 -0.1298 -0.2540
89038W        W32091  14.354   7.625  16.452  0.1672  0.1652 -0.1497
89039W        W32092  17.114   8.837   9.614  0.0664 -0.0547  0.0318
89040W        W32093  15.433  13.810  10.040 -0.2136  0.0236 -0.4249
89041W        W32094  25.539  14.625  17.212 -0.1922  0.0903  0.0669
89042W        W32095  19.489  15.852  23.375 -0.5393 -0.0964 -0.3369
89043W        W32096  10.841  11.998  16.812 -0.2591  0.3491 -0.3440
89044W        W32097  30.640  15.014   2.458  0.2411  0.1099  0.0096
89045W        W32098  22.601   9.487   0.741 -0.0244  0.1869  0.1066
89046W        W32099  15.501  15.903  26.354  0.2975  0.0367  0.0540
89047W        W32100  30.451   1.819  28.157  0.0321 -0.1159  0.0717
89048W        W32101  24.482  31.829   1.966 -0.2821 -0.2301 -0.1591
89049W        W32102   9.747   4.387   4.159 -0.2566  0.2448  0.3068
89050W        W32103  19.724   3.726  28.414 -0.0175  0.1385 -0.1105
89051W        W32104  11.162  17.935  22.916  0.0389  0.0284 -0.0838
89052W        W32105  20.328  24.861  29.113  0.0584 -0.1114 -0.2778
89053W        W32106  20.931   5.864  17.098 -0.0157  0.0322 -0.0569
89054W        W32107  24.749  13.288  20.930  0.1388 -0.1746 -0.0157
89055W        W32108  16.233  13.193  16.111 -0.2989  0.0742  0.1661
89056W        W32109  11.845  27.774   0.977  0.0759  0.3066  0.0451
89057W        W32110  27.808  15.575  27.627  0.0951  0.1939  0.2554
89058W        W32111  11.033   2.957  17.377 -0.1147  0.0324  0.1458
89059W        W32112   0.716  10.565  20.619 -0.2845  0.0078  0.1872
89060W        W32113  10.815  33.389  17.322 -0.0343  0.1529  0.1048
89061W        W32114   7.571   8.644  19.005  0.1086  0.2497  0.2122
89062W        W32115  24.323  11.688  25.868  0.0675  0.0413 -0.1168
89063W        W32116  33.251  23.740   5.905 -0.0636  0.0342  0.0652
89064W        W32117  25.509  25.896   4.302  0.0029 -0.0809 -0.0277
89065W        W32118  20.725  11.961  15.294 -0.2093  0.0491 -0.0521
89066W        W32119   4.160   7.958  21.968  0.1072  0.1321  0.1144
89067W        W32120  23.778  14.827  27.967  0.0490 -0.3161 -0.1649
89068W        W32121  34.463   9.649   3.713 -0.2154 -0.1617  0.4011
89069W        W32122   2.719   9.894   4.917  0.2984 -0.2007 -0.1845
89070W        W32123  19.630  15.381  21.200  0.2322  0.1196 -0.2519
89071W        W32124  18.807   8.671  23.757 -0.1349  0.2485  0.2011
89072W        W32125  18.777  29.964  21.502  0.1982  0.0614  0.0661
89073W        W32126   9.528  31.952  21.374  0.1594 -0.0107  0.0192
89074W        W32127  26.802  20.233  19.443 -0.4070 -0.0220  0.0002
89075W        W32128  32.500   6.576   1.709 -0.4382  0.0105 -0.0877
89076W        W32129  27.693  16.231  14.111 -0.2294 -0.2089  0.1591
89077W        W32130  27.588  22.535  15.899 -0.1226 -0.0098  0.1020
89078W        W32131  15.425  29.592  20.431  0.1114  0.2479 -0.1251
89079W        W32132  10.389  21.602  26.380  0.0161 -0.1238  0.0414
89080W        W32133  25.541  12.052  24.527 -0.1818  0.3859  0.0081
89081W        W32134  14.225  14.124   8.989  0.2040  0.0806  0.1730
89082W        W32135   8.467  27.172  15.781 -0.2549  0.0187 -0.0076
89083W        W32136   1.492   1.618  26.988 -0.0306 -0.1457 -0.1498
89084W        W32137  19.492  26.702   5.809  0.1546 -0.3362  0.1353
89085W        W32138  11.469   9.040   5.554  0.2399  0.0378 -0.3001
89086W        W32139  31.226   5.182  21.702 -0.1111  0.3398 -0.4275
89087W        W32140  14.246  11.438  18.261  0.0048 -0.2105  0.1646
89088W        W32141  17.456  16.689  20.315  0.2381  0.1733 -0.1715
89089W        W32142   2.203  12.666  19.242  0.0904  0.0933 -0.4272
89090W        W32143  28.582  19.352  26.965 -0.0577  0.2143 -0.0257
89091W        W32144  16.859   8.944  24.503  0.1445 -0.2303  0.5650
89092W        W32145  10.819  20.022  13.249  0.0928 -0.0992 -0.0678
89093W        W32146  20.657   7.660   5.727 -0.0225  0.1502  0.0448
89094W        W32147  28.307  20.725  23.419 -0.3401  0.0678 -0.0744
89095W        W32148   2.400  31.308   0.401 -0.2287  0.1324 -0.0047
89096W        W32149  17.307  17.939   8.276  0.1653 -0.3142  0.0361
89097W        W32150  24.381  14.740  25.586  0.0835  0.1891 -0.1078
89098W        W32151  13.713   5.467  19.074  0.0487  0.4122 -0.0782
89099W        W32152  34.566  30.200  20.517 -0.1516 -0.1638  0.1257
89100W        W32153  17.428  23.003  15.948  0.5453 -0.1405 -0.0003
89101W        W32154   9.437  25.056   3.787  0.1270  0.0881  0.1605
89102W        W32155  25.732  20.123  23.530 -0.2520  0.1443 -0.1914
89103W        W32156  17.292  14.004  14.495  0.2047  0.2062 -0.1494
89104W        W32157  23.241  15.029   4.718 -0.4275 -0.0328  0.2620
89105W        W32158   7.754  15.870  25.480 -0.1947  0.0610 -0.1287
89106W        W32159  28.134  10.633  23.434  0.0283 -0.0430  0.0327
89107W        W32160  17.315   8.787  26.658  0.2520 -0.1908 -0.1945
89108W        W32161   0.423  10.217  27.252  0.1059  0.0156  0.0560
89109W        W32162  29.924  27.069  24.878 -0.0615  0.2358  0.0639
89110W        W32163  21.343   5.775   3.657 -0.1724 -0.1042 -0.1316
89111W        W32164  23.728  13.444  23.119 -0.1011  0.0821 -0.0845
89112W        W32165  12.048  17.509  26.210  0.2475  0.1798 -0.1044
89113W        W32166  29.677  11.817  19.356 -0.2637 -0.2010  0.1622
89114W        W32167  19.373  21.443  19.906  0.0943  0.0537 -0.2302
89115W        W32168   2.565   4.206   7.199 -0.0605  0.2005 -0.0596
89116W        W32169  33.634  16.440  21.380 -0.1321  0.0005 -0.1694
89117W        W32170  17.042   5.299   6.780  0.0986 -0.2598 -0.1842
89118W        W32171   7.561  12.351   6.160  0.0200  0.0599  0.0984
89119W        W32172  22.185  16.927   7.060  0.2348  0.0121 -0.0111
89120W        W32173  14.762  15.491   5.569 -0.0710 -0.1921  0.2110
89121W        W32174  16.637  17.674   6.656  0.3301  0.1193 -0.0878
89122W        W32175  22.692  12.596  27.496  0.0576 -0.1385 -0.0628
89123W        W32176  29.140   7.997   9.926 -0.0842  0.2734  0.1976
89124W        W32177  22.219   5.515   4.561  0.0508  0.0898  0.0311
89125W        W32178  20.521  34.203   0.777  0.3261  0.2752 -0.1363
89126W        W32179   5.221  33.553  21.385  0.0742  0.0581  0.1444
89127W        W32180  21.466   3.439  15.439  0.2052 -0.1443 -0.6609
89128W        W32181  13.600   0.837  28.222  0.1226  0.1226  0.1103
89129W        W32182  19.698  13.121  21.469  0.0369  0.0739 -0.1759
89130W        W32183  18.021   3.036  20.306 -0.1035 -0.1127  0.2741
89131W        W32184  16.613  33.136   6.311  0.0658 -0.0018  0.0756
89132W        W32185   5.201   2.874  21.095 -0.1414  0.0264  0.1135
89133W        W32186  25.495  21.670   5.615  0.1010  0.3541  0.0724
89134W        W32187  16.595  10.079  20.516  0.0837 -0.0654 -0.0805
89135W        W32188  22.444  22.914  23.128 -0.0734 -0.1126  0.0581
89136W        W32189  21.776   3.073   1.353 -0.1104  0.1285 -0.1700
89137W        W32190   1.422  18.639   4.063 -0.0872  0.4235 -0.4040
89138W        W32191  29.458  12.107  25.843 -0.0874 -0.0416  0.0829
89139W        W32192  18.471  34.363   8.706  0.4628 -0.2483  0.0016
89140W        W32193   9.419   5.326  11.258 -0.0637 -0.0727  0.2406
89141W        W32194  27.659   3.113  24.604  0.3771 -0.1538 -0.2219
89142W        W32195  15.922  32.626   9.607 -0.3722  0.0721 -0.1712
89143W        W32196  32.159  30.490   3.476 -0.0188 -0.0990  0.0975
89144W        W32197  12.562  23.106  19.176  0.0739  0.4913 -0.2096
89145W        W32198  15.683  29.409  23.003  0.1969 -0.1769  0.1459
89146W        W32199  14.025  24.974   1.964  0.2196  0.1498  0.1285
89147W        W32200  27.453  11.376  22.207  0.2647 -0.2089 -0.0852
89148W        W32201  28.134  26.123  14.552 -0.1281 -0.0964  0.1138
89149W        W32202  22.315  16.008  24.754 -0.0197 -0.1707 -0.2828
89150W        W32203  16.921  11.109  20.089  0.3386  0.1078  0.2450
89151W        W32204   6.462  21.916   6.992 -0.1653 -0.1285  0.0508
89152W        W32205   9.808  14.433   6.776 -0.1065  0.0735 -0.0090
89153W        W32206   3.304  31.876  18.575  0.0080  0.0614  0.1381
89154W        W32207  12.009   0.828  23.684  0.0679 -0.1762  0.3783
89155W        W32208  34.111  12.989   1.903  0.1904 -0.0579 -0.0475
89156W        W32209  29.381  12.541  22.126  0.1629  0.1911  0.0959
89157W        W32210  23.251  26.509  19.099  0.2394  0.0338  0.0348
89158W        W32211  27.793  18.183  19.321 -0.1478 -0.2246  0.3392
89159W        W32212  20.369   6.320   0.484  0.0378  0.0831  0.3015
89160W        W32213  21.752  18.098   2.216  0.0962  0.1230  0.0011
89161W        W32214  14.620   9.914  15.704 -0.4039  0.0118  0.0613
89162W        W32215  18.424   8.603   9.279 -0.2780  0.3134 -0.0589
89163W        W32216  16.256  20.868  27.709  0.0910 -0.2468 -0.4081
89164W        W32217   8.765  16.021  27.571 -0.1551 -0.2919 -0.2367
89165W        W32218  34.392  23.922  15.828  0.4004  0.0736  0.2743
89166W        W32219   3.922  12.877  10.164  0.1923  0.0780 -0.1977
89167W        W32220  17.773  10.030  22.891  0.1036  0.0752 -0.3205
89168W        W32221  29.317  12.503   7.970 -0.1686  0.1106 -0.2060
89169W        W32222  30.495  17.731   8.366  0.2001 -0.0650 -0.0883
89170W        W32223  26.473  34.543  15.219  0.1249  0.2799 -0.1050
89171W        W32224  12.535   8.306   9.650 -0.2502 -0.2073 -0.2236
89172W        W32225  28.458  18.333  25.009 -0.1543 -0.0842 -0.1620
89173W        W32226  26.873  17.306  19.855 -0.0203 -0.0620 -0.1094
89174W        W32227  33.046  17.119  14.271 -0.0205 -0.0121 -0.0852
89175W        W32228   8.924   3.077  16.305  0.2402  0.0765  0.0183
89176W        W32229  33.013  25.213   2.677  0.0635  0.0999 -0.3480
89177W        W32230  12.235  16.005   4.096 -0.1483 -0.1370 -0.1641
89178W        W32231  16.092  13.966  23.431 -0.1867 -0.0587  0.0471
89179W        W32232  20.499  24.534  24.261  0.1693  0.0176  0.0476
89180W        W32233  13.873   3.055  25.058 -0.2933 -0.1228 -0.0587
89181W        W32234  15.285  28.104  14.607 -0.0862 -0.0064  0.2823
89182W        W32235  29.334  13.329   9.127  0.0280  0.2544  0.0701
89183W        W32236  22.425  12.054   1.961 -0.2457 -0.2040  0.0233
89184W        W32237  23.121   0.263  26.659 -0.0749 -0.0356  0.0561
89185W        W32238  31.393  21.649  26.285  0.0786 -0.0131  0.0065
89186W        W32239  22.443  18.618  18.264  0.2060 -0.0614  0.1576
89187W        W32240  12.762   2.606   4.478 -0.1916  0.2911  0.0665
89188W        W32241   3.170   2.652   3.785  0.3045  0.2279  0.2462
89189W        W32242  31.453  26.823  25.988  0.1536  0.1909  0.1176
89190W        W32243  34.355  16.086  14.447  0.1594  0.2551  0.1075
89191W        W32244  27.418   4.137  23.643 -0.0203  0.0591 -0.2649
89192W        W32245   1.064  34.560   7.124 -0.0095  0.1508 -0.3187
89193W        W32246   8.254   0.690  25.725 -0.1551 -0.0903 -0.0038
89194W        W32247  23.922  16.383  18.213 -0.0106 -0.0264  0.2036
89195W        W32248  22.421  26.512   1.301  0.0425  0.0684  0.1387
89196W        W32249  26.500   7.963  20.962  0.0914 -0.2357 -0.1039
89197W        W32250  33.784  11.770   6.407  0.3520  0.3882  0.1741
89198W        W32251  18.229  32.751   7.682 -0.0219  0.2637 -0.2130
89199W        W32252  21.160  13.710   2.085  0.0774 -0.1322 -0.0821
89200W        W32253   9.846   3.996  18.973 -0.0074  0.1581  0.1830
89201W        W32254  16.514   4.635   5.413 -0.2436 -0.2398 -0.0383
89202W        W32255  24.401  13.252  15.599  0.1659  0.0185  0.2507
89203W        W32256  22.135  17.361  28.624 -0.1391 -0.0778  0.1408
89204W        W32257  14.151  19.523  16.046 -0.1173  0.0190 -0.2240
89205W        W32258  11.761  29.561   2.585  0.1157 -0.0449 -0.0781
89206W        W32259  13.484  31.911   8.576  0.1385  0.1627  0.1419
89207W        W32260   4.249  18.312  21.229 -0.0198  0.0863  0.4288
89208W        W32261  23.992  29.391  19.983 -0.0654  0.0434 -0.1693
89209W        W32262  18.693   8.220  26.904  0.2475 -0.0867  0.0590
89210W        W32263  26.476   9.920  19.462  0.0052 -0.3429  0.1070
89211W        W32264  18.975  12.972   8.225 -0.0450  0.2044 -0.0616
89212W        W32265  31.266  13.084   1.204  0.2282 -0.1512  0.2148
89213W        W32266  15.058  12.592  17.065 -0.1630 -0.1239  0.1759
89214W        W32267  14.861   6.803  25.156 -0.0105 -0.0507 -0.3379
89215W        W32268  33.413   4.454  27.746  0.1473 -0.2741  0.2782
89216W        W32269  11.610   9.049   6.662  0.0176 -0.0702  0.2161
89217W        W32270  17.809  20.442  25.685  0.2280 -0.0930 -0.0515
89218W        W32271  24.811  29.579   0.994  0.0693  0.1004 -0.2135
89219W        W32272  24.486  26.623   4.659 -0.0498 -0.0815  0.2918
89220W        W32273  23.910  14.046  17.250 -0.0418  0.0661 -0.3279
89221W        W32274  18.741  29.379  20.349  0.2352  0.0545  0.0149
89222W        W32275  18.720  10.249  14.869 -0.0909  0.1636  0.4466
89223W        W32276  24.058  15.314  22.767 -0.0541 -0.1126  0.0207
89224W        W32277  14.245  12.993   8.951  0.2675  0.0296 -0.3461
89225W        W32278  19.393  15.748   0.902  0.2410  0.2115 -0.0500
89226W        W32279   2.684  19.279  20.261  0.1125  0.0525 -0.0644
89227W        W32280  22.951  13.266   0.596 -0.0312  0.3191  0.3235
89228W        W32281  27.657  17.325  14.812 -0.0268  0.1322  0.1146
89229W        W32282  19.385  34.527   7.459 -0.2251 -0.0390  0.1249
89230W        W32283  26.206   1.509   4.670 -0.2223  0.2168  0.0660
89231W        W32284  21.692  24.829  16.070  0.0268  0.1559  0.1446
89232W        W32285  14.055  16.919  16.426  0.0300  0.1642  0.4343
89233W        W32286  16.992  26.039  17.903 -0.0498  0.0355  0.2021
89234W        W32287   3.130  26.095   1.828 -0.1937 -0.0169  0.0245
89235W        W32288  23.694   4.502  28.674 -0.0661 -0.1356  0.2605
89236W        W32289   3.659   6.512   9.171  0.0086  0.1110  0.1186
89237W        W32290  14.907  30.169   3.176  0.1996  0.2336 -0.1295
89238W        W32291   5.743  11.016  27.257 -0.1959  0.0130 -0.2180
89239W        W32292  22.169  16.101   6.798  0.0475  0.0858  0.0864
89240W        W32293  19.660  27.876  21.794 -0.0445 -0.2155 -0.1813
89241W        W32294  23.912  13.909   9.642 -0.1885 -0.2161 -0.0238
89242W        W32295  26.688   0.283   8.734  0.0519 -0.1048  0.3062
89243W        W32296  27.359  10.879  27.129  0.0268 -0.1141 -0.3219
89244W        W32297  12.351   4.266  19.892 -0.1941  0.0422 -0.2512
89245W        W32298   2.378  11.586  22.377 -0.1359 -0.2344 -0.3260
89246W        W32299  26.859  12.084  26.443  0.4111 -0.0687  0.0154
89247W        W32300   8.411  21.602   7.834 -0.1989 -0.1766 -0.1590
89248W        W32301  29.522  15.613  24.784  0.4296 -0.1776 -0.0758
89249W        W32302  15.004  13.142   4.530 -0.2869  0.0505 -0.0620
89250W        W32303  21.677  24.930  22.886 -0.1520  0.3489 -0.0066
89251W        W32304  32.309  18.697  14.270 -0.1995 -0.1578  0.0704
89252W        W32305  20.751   1.184   7.278 -0.2176  0.0505 -0.0123
89253W        W32306  25.009  15.867   0.657  0.0957 -0.2003 -0.1718
89254W        W32307  33.855  20.076  19.938 -0.3325 -0.1455  0.1535
89255W        W32308  34.187   9.050  28.388  0.1821  0.1677 -0.0896
89256W        W32309  21.839   6.692   8.454 -0.2620  0.1571 -0.1313
89257W        W32310   8.713  32.478   0.500 -0.0542 -0.1412 -0.1352
89258W        W32311  15.168   4.868   0.807 -0.1751 -0.2318 -0.2130
89259W        W32312  26.476   1.264  14.761 -0.2498  0.1028  0.1859
89260W        W32313  15.117  12.097  14.818  0.2368 -0.0179 -0.3967
89261W        W32314   7.999  12.082  24.425  0.0174  0.2132  0.1664
89262W        W32315  20.490   2.246  27.456 -0.0223 -0.3855  0.1210
89263W        W32316   4.590  22.623   3.706 -0.2912  0.0799 -0.1709
89264W        W32317  23.685   4.007  20.725  0.0460 -0.0584  0.1175
89265W        W32318  23.354  21.410   7.205  0.1525 -0.1709  0.0947
89266W        W32319  21.852  16.556   5.748 -0.2777  0.0563  0.1467
89267W        W32320  20.310  12.675  17.017  0.1696  0.3024  0.2015
89268W        W32321  18.881   8.669  17.802 -0.0006  0.2267  0.1032
89269W        W32322  10.146  33.754   1.898 -0.1033 -0.2415 -0.1679
89270W        W32323  10.857   2.524   3.905  0.0874  0.0963 -0.3764
89271W        W32324  25.131  10.598   1.277 -0.2662 -0.1828  0.1149
89272W        W32325  16.950  10.308   5.542 -0.2257  0.0364 -0.0946
89273W        W32326  22.157  11.493  24.152  0.2043 -0.1807  0.3226
89274W        W32327  34.338  34.497   5.287 -0.1448  0.1242  0.2387
89275W        W32328  18.487  13.795  18.938 -0.1326 -0.0017 -0.0882
89276W        W32329   3.520  31.709  15.769 -0.0580  0.2116 -0.1587
89277W        W32330  24.187   3.140  13.600  0.0816 -0.1629 -0.0622
89278W        W32331  16.353  14.225  13.970 -0.1225 -0.0557 -0.1561
89279W        W32332  28.167   5.708   4.515  0.0170 -0.0845 -0.0907
89280W        W32333   1.895  12.504   3.529  0.0040 -0.2643  0.0109
89281W        W32334  22.211   5.748  21.891 -0.0583 -0.1857  0.0547
89282W        W32335  17.895   2.126   7.906 -0.1332  0.0920 -0.1514
89283W        W32336  24.105  28.006  14.461 -0.1120 -0.1357 -0.0589
89284W        W32337  23.543  25.550  24.671 -0.0352 -0.0517 -0.4374
89285W        W32338  31.729  11.767   4.086  0.1003  0.2085  0.1091
89286W        W32339  25.596  15.254  14.321  0.3269 -0.0231 -0.1331
89287W        W32340   9.453  12.880   3.155 -0.3855  0.3476 -0.0421
89288W        W32341  18.213  18.548   3.960 -0.2524 -0.0670  0.0909
89289W        W32342  23.465   9.897   9.211  0.0057 -0.0028 -0.3829
89290W        W32343  17.325   9.624   1.855 -0.1771  0.1429  0.0272
89291W        W32344   7.370   9.281  25.203 -0.2049 -0.0627  0.0351
89292W        W32345   6.813   9.288   0.479  0.0773  0.2230  0.2449
89293W        W32346  13.560  11.784  10.218 -0.1804  0.2558  0.0575
89294W        W32347  16.578  22.471  22.042  0.1436  0.2739 -0.3024
89295W        W32348  10.298   3.892   9.135  0.1105  0.2881 -0.0078
89296W        W32349   9.752  33.807  15.439 -0.1594 -0.1666 -0.0232
89297W        W32350  13.076   8.682  25.539 -0.3760 -0.0870 -0.3102
89298W        W32351  24.216  15.352  24.141 -0.2846 -0.1935  0.0600
89299W        W32352  32.570  33.945  17.504 -0.0859  0.0291 -0.2875
89300W        W32353  21.550   9.228   9.599 -0.0916 -0.1361  0.2006
89301W        W32354  21.251  13.910  18.287  0.0124 -0.1931 -0.0524
89302W        W32355  26.197   3.139  20.940 -0.2924  0.0351  0.0409
89303W        W32356  33.557  29.070   3.872  0.2179  0.3729  0.0558
89304W        W32357   1.122  11.513  22.457  0.2834 -0.0811 -0.0419
89305W        W32358  22.115   6.224  27.951 -0.2306 -0.0863  0.0141
89306W        W32359  27.858   4.713  24.103 -0.0672 -0.0833 -0.3235
89307W        W32360  16.384   8.747  17.091  0.5196  0.1905 -0.0920
89308W        W32361  13.485  18.645  28.541  0.2405  0.0605  0.0644
89309W        W32362   5.714  10.078  14.953  0.0635 -0.2463  0.2343
89310W        W32363  32.754  23.361  21.106 -0.1857 -0.1502  0.1069
89311W        W32364  10.429  21.070  27.190 -0.1480 -0.0345  0.1339
89312W        W32365  19.239  12.389  27.154  0.1816  0.1279 -0.0939
89313W        W32366  20.413  22.787  21.072  0.0590  0.1945  0.2382
89314W        W32367   8.998   0.416   0.957 -0.0615 -0.0590  0.0053
89315W        W32368  20.591   7.072  23.126  0.0400  0.1093 -0.0382
89316W        W32369  18.469  18.754  27.682  0.2250  0.2180 -0.1439
89317W        W32370  32.420  16.728  24.959  0.2209 -0.1652 -0.2388
89318W        W32371  28.654  11.108   7.272 -0.2801 -0.0847  0.3657
89319W        W32372  12.734  17.809  21.128  0.0099 -0.0200  0.0596
89320W        W32373  19.083  33.610  25.605 -0.0602  0.0935  0.1684
89321W        W32374  18.897  18.725   1.010 -0.1061  0.3588  0.0672
89322W        W32375  21.968  17.521  22.146  0.0193  0.3070  0.1586
89323W        W32376  29.411   7.044   6.649  0.0053  0.0366 -0.0012
89324W        W32377  25.325  10.818  18.053 -0.0091 -0.0244 -0.3449
89325W        W32378  17.797  24.183   2.077  0.0207 -0.2509 -0.0117
89326W        W32379   7.343  21.569  16.419  0.0424 -0.0442 -0.0434
89327W        W32380  33.321  25.110  24.400  0.0408 -0.2035  0.0692
89328W        W32381  22.869  18.736   3.563  0.0290 -0.0757 -0.0877
89329W        W32382  33.048   0.783  18.421  0.1555  0.1931  0.1537
89330W        W32383  31.062  14.789   1.193  0.0584 -0.0156 -0.1555
89331W        W32384  19.585   8.215   6.442 -0.1510  0.0312 -0.0120
89332W        W32385  20.540   0.731  18.069 -0.0953 -0.0993 -0.0925
89333W        W32386  19.525   9.604  25.101  0.2454 -0.0184 -0.0145
89334W        W32387  13.307  29.764  20.542  0.0370 -0.1365 -0.1515
89335W        W32388  19.602   9.987  24.753  0.0133 -0.1696 -0.1313
89336W        W32389   7.216  28.003  12.972 -0.0925 -0.0078  0.2238
89337W        W32390  18.845   5.498  15.185  0.0764  0.2905  0.1803
89338W        W32391  24.914  23.468   0.814  0.1030 -0.0043  0.4557
89339W        W32392  14.912   5.227   1.749 -0.0429  0.0998  0.0504
89340W        W32393  19.135   9.097   1.977  0.1191  0.0537 -0.1689
89341W        W32394  28.335   7.980   9.666 -0.0589  0.1090  0.2376
89342W        W32395  18.979  20.036  26.493  0.0384  0.0816 -0.0144
89343W        W32396  18.620   5.312  28.707 -0.0592 -0.1989 -0.0223
89344W        W32397  17.863   2.917  28.393  0.0259 -0.0978 -0.2906
89345W        W32398   2.991  26.598   1.964  0.2060  0.0043  0.0827
89346W        W32399   0.210  10.288  25.499  0.0576  0.0537 -0.1298
89347W        W32400  14.304  16.283  24.110  0.2823  0.1959  0.2234
89348W        W32401  22.239  33.987  22.244 -0.0683 -0.3806  0.0687
89349W        W32402  11.829  21.520  16.746 -0.0301  0.0909  0.2849
89350W        W32403  10.939  23.923   7.416 -0.1474  0.1269  0.1680
89351W        W32404  21.852   8.472  27.534 -0.1460 -0.1942  0.1921
89352W        W32405  26.455  11.975  18.773  0.0507  0.3790  0.1971
89353W        W32406  20.226  17.954   4.329 -0.1468  0.4117  0.1007
89354W        W32407  28.694   3.786  22.100  0.1103  0.1091 -0.0381
89355W        W32408  17.554  11.132   3.095  0.3692  0.1343 -0.1832
89356W        W32409  11.105  10.535  21.955 -0.0282 -0.0171  0.3660
89357W        W32410  14.635  18.343  15.249 -0.1410 -0.1339  0.1710
89358W        W32411  14.204   8.969  26.743 -0.1953 -0.3139  0.1624
89359W        W32412   9.210  11.996  10.836  0.1557  0.0158 -0.0822
89360W        W32413  18.715   9.144  17.691 -0.0955  0.0233 -0.3312
89361W        W32414  23.742  19.773  25.520  0.0211 -0.0138  0.2016
89362W        W32415   1.285   2.782   6.164 -0.1008 -0.2614 -0.1442
89363W        W32416  11.065  11.861   2.648  0.1137 -0.3250 -0.0997
89364W        W32417  27.212  20.090  16.499 -0.0626 -0.0455 -0.2142
89365W        W32418  23.620  13.611  14.619  0.2749 -0.0432  0.1313
89366W        W32419   0.760  15.399   3.842  0.0231 -0.2338  0.1628
89367W        W32420  22.030  19.515  15.844 -0.2409 -0.2430  0.0414
89368W        W32421   8.426  22.982  17.163 -0.0493 -0.0779  0.1756
89369W        W32422   1.409  33.626   2.079 -0.0058  0.1962 -0.4061
89370W        W32423   1.915  34.215  28.094 -0.2568  0.2524 -0.2018
89371W        W32424  26.422   5.553   8.001 -0.0865 -0.1473  0.1063
89372W        W32425   5.201   3.288   0.652  0.3894 -0.0193 -0.3451
89373W        W32426   9.370   6.884   3.453  0.0530 -0.1251 -0.5624
89374W        W32427  29.237  10.097  25.733 -0.2623 -0.1105  0.0115
89375W        W32428  25.821   6.507  21.699 -0.0323 -0.1784  0.0152
89376W        W32429  31.384  14.286   8.400  0.0122  0.0374  0.0165
89377W        W32430  13.933   6.473  18.868  0.0118 -0.0027 -0.1982
89378W        W32431  15.772   3.908  18.580 -0.0519  0.1085  0.1254
89379W        W32432  24.356  16.966   6.422 -0.0266  0.1843 -0.2473
89380W        W32433  21.117  32.223  28.789 -0.2586 -0.1208 -0.1923
89381W        W32434  27.119  17.985  10.032 -0.3846  0.1529  0.1974
89382W        W32435  22.497  25.695  26.903 -0.1915  0.1680  0.0449
89383W        W32436   7.381   5.361   2.966 -0.1379 -0.0260  0.0890
89384W        W32437  10.100  17.212  18.154 -0.3479 -0.2590 -0.0146
89385W        W32438  11.526  21.351  21.482  0.0437 -0.0616 -0.3703
89386W        W32439  20.480  10.380  23.598 -0.0557  0.1497 -0.0489
89387W        W32440  30.931  10.601  22.948 -0.0943  0.2088  0.2777
89388W        W32441  25.660  21.914   1.278  0.1215  0.2216 -0.0188
89389W        W32442  18.212  13.928  20.707 -0.1847  0.3002  0.2487
89390W        W32443  30.697  17.141  18.198 -0.1443  0.1677 -0.0147
89391W        W32444  23.581  12.961   9.508 -0.1321  0.0690 -0.2721
89392W        W32445  24.151   1.024   5.496 -0.1436  0.3074 -0.1956
89393W        W32446  20.636  12.657   9.087 -0.2079  0.1410  0.1129
89394W        W32447  24.404  11.558  24.115  0.4120 -0.1473 -0.0652
89395W        W32448  20.920   9.866  25.251 -0.2271 -0.5227 -0.0358
89396W        W32449  16.247  21.938   1.738  0.1145 -0.0787  0.1357
89397W        W32450  21.337  20.176   3.086  0.1627 -0.2329  0.2687
89398W        W32451  31.249  23.934  24.262  0.0287 -0.0027 -0.0906
89399W        W32452  22.479  15.153  23.419  0.0966 -0.2658 -0.2497
89400W        W32453  27.846   9.928   4.392  0.0445 -0.1150  0.1048
89401W        W32454  30.807   7.234   3.941 -0.1091 -0.2641 -0.1574
89402W        W32455  23.738   1.080   6.094  0.0131  0.1011  0.2486
89403W        W32456  18.487  13.402  21.401  0.0937  0.0344  0.2298
89404W        W32457  30.667  11.747   8.373 -0.2426  0.2677  0.1404
89405W        W32458  12.688   8.260  22.981  0.2262 -0.1426 -0.0209
89406W        W32459   0.851  32.282  27.985 -0.0515 -0.1304 -0.1591
89407W        W32460   5.786  16.820  16.916 -0.0451  0.3305 -0.0719
89408W        W32461   2.881  33.602   3.494 -0.1586 -0.0125 -0.0005
89409W        W32462  28.895  12.519  26.165  0.0972  0.0866 -0.0164
89410W        W32463  24.216  26.753   5.653 -0.1471 -0.1434  0.0525
89411W        W32464  10.489   1.557  26.682 -0.0101  0.2845  0.2476
89412W        W32465   5.108  15.789   9.254 -0.0120 -0.1584  0.1233
89413W        W32466  27.082   8.743   8.057 -0.0720 -0.0348 -0.1419
89414W        W32467  27.014  17.355  15.767  0.0174 -0.2411 -0.0822
89415W        W32468  10.496  17.405   8.519  0.4014 -0.1266  0.1058
89416W        W32469  11.877  32.621  15.658  0.1093 -0.0411  0.0722
89417W        W32470  25.260  28.822   9.567 -0.1538  0.2046 -0.0862
89418W        W32471  12.743  18.270   4.569  0.2117 -0.1385 -0.1808
89419W        W32472  21.759  15.977  26.031 -0.1301  0.1805  0.1225
89420W        W32473  17.290   5.085  10.924  0.0625 -0.1496 -0.0001
89421W        W32474  21.572  20.085   6.630  0.1804  0.0827 -0.0376
89422W        W32475   1.669  10.901  19.812  0.0498 -0.1512  0.1120
89423W        W32476  20.559  14.127  28.602  0.2176 -0.2917  0.0076
89424W        W32477  27.032   4.368   7.740  0.3599 -0.1386 -0.1015
89425W        W32478   9.494  13.536   3.853 -0.0274  0.0833  0.1240
89426W        W32479  16.139  15.629   2.046 -0.0623  0.3308  0.1249
89427W        W32480  25.665  13.370  18.483 -0.1087 -0.0626 -0.1777
89428W        W32481  27.104  29.288  15.350 -0.2806 -0.0292 -0.3714
89429W        W32482  20.860   8.464   4.906  0.0377 -0.1626  0.1223
89430W        W32483  22.973  22.524  14.932  0.5339 -0.0061  0.1522
89431W        W32484  18.585  20.681  21.513  0.0944  0.3109 -0.1373
89432W        W32485  16.895  20.952   2.250  0.0738 -0.3516 -0.4680
89433W        W32486  27.230  10.013  23.420 -0.1268 -0.0429  0.2459
89434W        W32487  14.888  14.810   3.694 -0.2238  0.0252  0.0659
89435W        W32488  23.346   8.327  13.743  0.0304  0.1306  0.2467
89436W        W32489  22.778  20.480   0.825  0.1184  0.1896  0.0770
89437W        W32490  28.114  33.020  14.816 -0.0653  0.2357  0.0148
89438W        W32491  18.033  14.601  12.702  0.4003  0.0060  0.5332
89439W        W32492  25.232  23.510  22.976  0.0754 -0.3390 -0.0436
89440W        W32493  11.139   9.542  20.109  0.0269 -0.2651  0.1959
89441W        W32494  30.229  17.460  19.389 -0.4088  0.1263  0.3155
89442W        W32495  15.054   5.903   4.594 -0.0582  0.0262 -0.3233
89443W        W32496  13.139  14.181  24.529 -0.1102 -0.0387  0.0814
89444W        W32497  26.429   1.838  26.374 -0.5126 -0.0564  0.0383
89445W        W32498   2.088  23.363  14.884 -0.2757 -0.1197  0.1937
89446W        W32499  25.258   8.606  17.568  0.2568  0.0506 -0.3972
89447W        W32500  28.433  14.519  17.326  0.0729 -0.1079  0.2639
89448W        W32501  26.197  10.812  22.549 -0.1445  0.0973 -0.3163
89449W        W32502   4.387  18.607   9.025 -0.2204 -0.0273 -0.2516
89450W        W32503  32.198  22.423  15.264 -0.0199  0.6111  0.0751
89451W        W32504  26.214   7.663   1.334  0.2750  0.2866 -0.0872
89452W        W32505  18.945  31.448  28.329  0.1766 -0.0223  0.0676
89453W        W32506  19.108   9.509  19.518  0.0926 -0.0813 -0.2151
89454W        W32507  15.656  10.958  24.626 -0.0324 -0.0056 -0.1122
89455W        W32508  10.787  16.161  28.297  0.1959  0.0085 -0.2284
89456W        W32509  24.620  17.683  20.185 -0.1687 -0.2478  0.0848
89457W        W32510  24.303  14.082  18.069 -0.2208  0.0001 -0.0780
89458W        W32511  14.671   4.922  20.562  0.2134  0.0118  0.0938
89459W        W32512  17.757   3.438  26.081  0.0353  0.2484  0.5318
89460W        W32513  28.030  19.339  26.260 -0.0524 -0.1688  0.0280
89461W        W32514  25.782  29.241  21.390  0.0976 -0.2043  0.1381
89462W        W32515  14.338  10.638  18.494 -0.3575  0.1652 -0.3521
89463W        W32516  23.107  15.915  13.593  0.1468 -0.2946 -0.0235
89464W        W32517  29.910  14.606  15.053 -0.2011 -0.1094 -0.1210
89465W        W32518  20.594  18.329  26.675 -0.0984 -0.3470 -0.2562
89466W        W32519  25.106  14.622  18.763 -0.0719 -0.5162 -0.1902
89467W        W32520  10.209  16.567   8.290 -0.0306 -0.1271  0.0051
89468W        W32521  25.012  11.658  16.496  0.1082 -0.0262 -0.0431
89469W        W32522  18.490   8.965  22.307 -0.1496  0.2817  0.1263
89470W        W32523  20.110  27.212  21.314 -0.3467  0.3251  0.3399
89471W        W32524  31.118  23.642  14.278  0.1420  0.2208 -0.2431
89472W        W32525  24.942  21.609  24.157  0.0286 -0.1583  0.0803
89473W        W32526  29.446  28.141  22.769 -0.0514 -0.0118  0.0724
89474W        W32527  23.644   8.852  16.953  0.0641  0.3769 -0.0008
89475W        W32528  32.309  16.768   5.888 -0.1515  0.0705 -0.0460
89476W        W32529   1.359  21.116  23.139 -0.1627 -0.0334  0.1901
89477W        W32530  10.615  34.387  25.775  0.2919 -0.0498 -0.1382
89478W        W32531  31.057  24.061   8.025  0.1300  0.1556  0.2590
89479W        W32532  24.578  14.909  15.862 -0.2065  0.2987  0.2861
89480W        W32533  32.510   6.473  16.739  0.0540  0.0642 -0.3742
89481W        W32534  25.141   9.601   8.153  0.0184 -0.1108  0.2493
89482W        W32535  23.959  19.723   1.525  0.0802  0.1920 -0.0724
89483W        W32536  20.954   0.814  15.808  0.1791 -0.1526  0.0261
89484W        W32537   8.248  10.132  15.395 -0.2192 -0.0100 -0.0388
89485W        W32538  10.777  28.073  16.110 -0.0602 -0.0206  0.1796
89486W        W32539  25.859   0.275  25.894  0.0466  0.0814  0.0144
89487W        W32540  26.206  17.221  16.845  0.1394  0.0833 -0.1652
89488W        W32541  13.100  23.884  21.244 -0.1237  0.0915 -0.0574
89489W        W32542  21.463   7.595  21.524  0.1285  0.2133  0.3414
89490W        W32543  27.505  30.247  19.079 -0.2863 -0.3011 -0.1701
89491W        W32544   8.542  12.495  17.613  0.1333 -0.2360 -0.0104
89492W        W32545  29.072  20.222  20.446 -0.1745 -0.2520 -0.3120
89493W        W32546  30.096  21.483  22.300 -0.4715  0.4220  0.1931
89494W        W32547  15.426  12.195  17.216 -0.1168  0.5206  0.0575
89495W        W32548  30.125   2.171   2.176  0.0060  0.0731 -0.1448
89496W        W32549   5.777  32.692  15.991  0.2534 -0.0415 -0.1679
89497W        W32550  32.172  10.892  16.911  0.3953 -0.1792  0.1305
89498W        W32551  33.237  14.127  16.213  0.3331  0.0767 -0.0886
89499W        W32552  14.895   1.331  23.155  0.0218  0.2306 -0.0099
89500W        W32553  21.595  33.481  22.633  0.0202 -0.2555  0.0295
89501W        W32554  14.332   4.127  22.178  0.2507 -0.3374  0.2341
89502W        W32555  25.735   5.886  18.480  0.1033 -0.0528  0.2168
89503W        W32556  31.057  23.256  17.342  0.1602 -0.0014  0.1900
89504W        W32557  14.187  18.346   0.076 -0.0283 -0.4088 -0.0399
89505W        W32558  16.713   8.195  19.282 -0.0902  0.1955  0.2126
89506W        W32559   3.488   4.480  18.441 -0.0173 -0.0175 -0.0897
89507W        W32560  27.263  26.137  20.983  0.1588  0.1341 -0.0400
89508W        W32561  34.236   2.462  23.815  0.0976  0.1830  0.2024
89509W        W32562  17.482   6.509  19.494  0.0892 -0.2269  0.0363
89510W        W32563   8.979  22.513  27.869 -0.2341  0.1065  0.2512
89511W        W32564  11.910   0.065  26.917 -0.1152  0.0182  0.2116
89512W        W32565   9.742  21.891  19.145  0.2274  0.3289  0.0929
89513W        W32566  20.709  12.653  21.570  0.2727  0.1813 -0.2389
89514W        W32567   8.698  22.771  14.105 -0.3397 -0.0458  0.0778
89515W        W32568  32.368  25.210  16.341  0.0961 -0.1318 -0.0876
89516W        W32569  14.889  23.234   6.477  0.0347  0.0389  0.1181
89517W        W32570  27.408   7.163  16.129  0.2015 -0.0333 -0.3945
89518W        W32571  17.651  12.606  16.326  0.0450  0.2423 -0.1483
89519W        W32572  18.988  12.124  20.074  0.1213  0.0665  0.5565
89520W        W32573  27.586  15.320   0.350 -0.2554 -0.0496 -0.0914
89521W        W32574   3.743  11.457  15.438  0.1211 -0.1557  0.3694
89522W        W32575  13.930  14.722  18.447 -0.3194  0.4793 -0.2073
89523W        W32576  20.731  21.274  21.192 -0.6564 -0.1926  0.0193
89524W        W32577  20.720  10.185  16.674 -0.1009 -0.2552 -0.1752
89525W        W32578  34.114   2.144  19.370  0.2316 -0.0418  0.2206
89526W        W32579  26.480  15.968  14.351  0.3140  0.1659 -0.2331
89527W        W32580  26.633  33.821  17.336 -0.1225 -0.1480 -0.1471
89528W        W32581  32.786  24.590  23.832  0.3720 -0.0358  0.1152
89529W        W32582  23.020  18.827  20.440 -0.1555  0.1320 -0.0024
89530W        W32583   5.062  18.485  23.618  0.1072  0.0528  0.2465
89531W        W32584  19.546  23.770   1.733  0.3079  0.1048 -0.0915
89532W        W32585   9.472  24.245  16.223 -0.3154 -0.3427 -0.0020
89533W        W32586  10.057  21.886  24.064 -0.1576 -0.1960  0.3862
89534W        W32587  14.435   5.908  24.669 -0.0349  0.1454 -0.3174
89535W        W32588   9.357  21.012  21.152  0.2719 -0.0313 -0.0541
89536W        W32589  23.931   0.459  22.419 -0.2075  0.1226 -0.0673
89537W        W32590  15.548  12.159  20.870  0.1887  0.2238 -0.0971
89538W        W32591  12.594  10.269  14.969  0.3188  0.4656 -0.0628
89539W        W32592  27.431   8.576  15.647  0.3462  0.1502 -0.1316
89540W        W32593  10.416  16.851  22.185  0.0237  0.0503  0.1131
89541W        W32594  12.501  11.573  25.344 -0.2198 -0.1595 -0.3836
89542W        W32595   1.367   1.814  22.858 -0.1136  0.0934 -0.0654
89543W        W32596  25.749  23.399  20.452 -0.2079  0.1801  0.0531
89544W        W32597  28.977  33.023  21.020  0.2343 -0.0720 -0.1154
89545W        W32598  26.250  21.738  15.199  0.0730  0.1106 -0.0856
89546W        W32599  17.582  18.480   8.501  0.3697 -0.3397 -0.0334
89547W        W32600   0.594  16.800  15.261 -0.2528  0.2540  0.4691
89548W        W32601  27.762  18.239  20.908 -0.1728  0.2102  0.1096
89549W        W32602  34.209  21.308  27.628  0.2251 -0.0053  0.0252
89550W        W32603  28.626  25.964  16.698 -0.0795 -0.3804  0.2761
89551W        W32604  18.714   9.819  19.390 -0.0267  0.2951 -0.0908
89552W        W32605  24.786  14.399  17.967 -0.3449  0.1697  0.1095
89553W        W32606   6.581   6.932  26.786  0.3314  0.1218  0.2954
89554W        W32607  13.055  20.054  13.871 -0.1763  0.0593 -0.1313
89555W        W32608  12.743  14.169  18.242 -0.0695  0.0280  0.2500
89556W        W32609  17.810   2.288  29.012 -0.1802 -0.1220  0.4516
89557W        W32610  23.090  21.784  28.718 -0.0254  0.0645  0.0635
89558W        W32611  12.014  27.369  26.779 -0.1333  0.0331  0.0659
89559W        W32612  13.056  19.041  25.689 -0.1461  0.3570  0.3778
89560W        W32613  21.717   3.975  19.477  0.1781  0.2533  0.1571
89561W        W32614  27.690  15.428  21.050  0.3771 -0.0106  0.1402
89562W        W32615  13.362  10.289  20.889 -0.0292  0.0186 -0.0747
89563W        W32616  33.516  27.181  24.073  0.0452  0.2189 -0.1465
89564W        W32617  23.191   7.038   3.247 -0.0306  0.1227  0.0365
89565W        W32618   7.810  23.399  16.870 -0.0726  0.0679  0.0081
89566W        W32619  29.145  28.503  25.421  0.5607 -0.2665  0.0913
89567W        W32620  14.397  33.471  17.806  0.0433 -0.1242 -0.2193
89568W        W32621  12.183  12.030  21.392  0.3609  0.2170  0.0315
89569W        W32622  29.959  15.287  16.502 -0.2427  0.2500  0.0569
89570W        W32623   1.202  19.238  22.485  0.1141 -0.1459 -0.1259
89571W        W32624  32.695  33.390  22.442  0.3603  0.1490  0.4002
89572W        W32625  32.874  30.928  18.245 -0.2122  0.0215  0.0002
89573W        W32626  15.050  15.561  14.912 -0.1239  0.0494  0.2247
89574W        W32627  25.165  21.976  28.780  0.0527 -0.1119  0.1576
89575W        W32628   0.969  15.421  17.928 -0.4016  0.0134  0.4364
89576W        W32629  28.758  10.531   5.508 -0.1493  0.0444 -0.2577
89577W        W32630  15.379  18.282  15.652  0.2602 -0.2604  0.1151
89578W        W32631   7.032  25.261  20.138  0.1922  0.0895 -0.2305
89579W        W32632  27.841  26.739  20.567  0.2826 -0.2654  0.0405
89580W        W32633   9.542  19.008  27.945 -0.0881  0.0441  0.1209
89581W        W32634  22.209  11.576  16.028 -0.1383 -0.1620  0.0156
89582W        W32635  23.802  14.073  13.461  0.3378 -0.2449 -0.0478
89583W        W32636  22.839   8.805  20.541  0.3007 -0.1803 -0.2386
89584W        W32637  29.976  19.354  18.758 -0.2600 -0.0799 -0.0219
89585W        W32638  23.646  19.852  15.228  0.0906  0.1817  0.5429
89586W        W32639  25.650  24.490  17.083  0.0264 -0.0122 -0.3011
89587W        W32640  28.549  22.010  20.763 -0.0773 -0.3426 -0.0482
89588W        W32641   7.594  18.444  17.922 -0.1556 -0.4090 -0.1270
89589W        W32642  29.652   2.040  19.110  0.3503  0.0766  0.1016
89590W        W32643  12.787  28.083  21.824 -0.0444  0.0074  0.1473
89591W        W32644   4.651  16.371  22.056 -0.0572  0.0492  0.0928
89592W        W32645  13.135  22.812  24.230 -0.2538 -0.1319  0.2200
89593W        W32646  13.437  12.851  20.099  0.0687  0.1709 -0.1637
89594W        W32647  27.601  24.290  13.962  0.0115  0.3757  0.2093
89595W        W32648  24.663  13.303  25.498 -0.0255  0.1956 -0.2294
89596W        W32649   8.372  24.828  12.743 -0.0471  0.0527  0.1373
89597W        W32650  19.180  11.004  15.895 -0.1337  0.1288 -0.1854
89598W        W32651  11.988  27.868   6.911 -0.0737 -0.2361  0.3602
89599W        W32652  11.609   3.666  27.110  0.1939  0.2936  0.1450
89600W        W32653  10.578   9.066   5.167  0.2868  0.1978 -0.2272
89601W        W32654  34.571   9.195  17.558  0.2888 -0.0612 -0.3126
89602W        W32655  10.545   8.734  21.515  0.1060  0.1822 -0.0044
89603W        W32656  28.135  18.514  26.019  0.1300 -0.0769 -0.1197
89604W        W32657  19.017  23.865  24.480  0.0314  0.2397 -0.3281
89605W        W32658  14.528   9.098  23.900  0.3759 -0.0126 -0.3289
89606W        W32659   3.416  28.502   0.403  0.0013  0.0384 -0.3764
89607W        W32660  19.630  25.397  27.423  0.0876  0.0936  0.2777
89608W        W32661  16.802  24.117  20.836  0.2332  0.1269 -0.0378
89609W        W32662  16.217   6.013  19.352 -0.3700 -0.4071  0.2060
89610W        W32663   7.777   6.552  23.209 -0.0779  0.3591 -0.1027
89611W        W32664   8.020  14.945  20.296  0.1446 -0.2862 -0.0590
89612W        W32665  31.667  23.295  13.771  0.2295  0.2075 -0.1492
89613W        W32666  32.524  30.643  25.611  0.0287  0.0164 -0.1779
89614W        W32667  26.236  32.787   2.696 -0.0449 -0.0666  0.0872
89615W        W32668  33.495  21.133  16.760 -0.0390  0.2824  0.0144
89616W        W32669  29.829  29.420  19.150  0.0813 -0.3409 -0.3190
89617W        W32670   7.760  17.354   2.779 -0.0396  0.0139 -0.1815
89618W        W32671  27.461  27.635  20.170 -0.0922 -0.1376  0.1824
89619W        W32672  16.768   8.109  17.781  0.4324 -0.1917  0.0456
89620W        W32673  24.368  11.628  13.788 -0.0460  0.0524 -0.0104
89621W        W32674  34.028  34.119   6.034  0.0098  0.3067 -0.0775
89622W        W32675  22.919  28.023  24.634  0.0318 -0.1192  0.0128
89623W        W32676   4.862  14.290  25.928 -0.1434  0.2770  0.1907
89624W        W32677  14.948  21.351   8.554  0.0220  0.0869 -0.1136
89625W        W32678   1.579  15.024  26.106  0.1881 -0.1227  0.1865
89626W        W32679  18.046  13.172  21.668 -0.0597 -0.5001  0.0766
89627W        W32680  24.710  25.878  18.084  0.0270  0.1432  0.1127
89628W        W32681   7.138  24.580  19.330 -0.1382  0.0155  0.0895
89629W        W32682  13.228  11.127  23.623 -0.1731  0.3251  0.1145
89630W        W32683  32.050  22.149  19.964 -0.0186  0.2234  0.0105
89631W        W32684  19.105  29.823  17.136 -0.0713 -0.1232 -0.0706
89632W        W32685  16.726  14.204  25.458  0.0519 -0.2180  0.1492
89633W        W32686   1.643  18.483  19.964  0.2314  0.3185 -0.0338
89634W        W32687  12.466  17.313  14.885 -0.0500 -0.2684 -0.1001
89635W        W32688  20.958  13.004  23.483  0.1439  0.2482  0.0576
89636W        W32689  21.177   8.560  23.002 -0.2737 -0.2475 -0.1787
89637W        W32690  15.176   7.332  18.297 -0.3011  0.0770  0.1309
89638W        W32691   8.424  13.534  20.550 -0.1834  0.3349  0.2744
89639W        W32692  16.719  31.582  22.128 -0.1576 -0.0434  0.0772
89640W        W32693  34.188  13.596  27.506 -0.1147 -0.1141 -0.1525
89641W        W32694   1.728  25.816  16.775  0.1359  0.0745  0.4449
89642W        W32695  24.184   3.166  24.203  0.2725 -0.0875 -0.0488
89643W        W32696  15.847  23.781  19.012  0.3278 -0.1020 -0.1400
89644W        W32697  10.842  22.730  25.697  0.1123  0.0157 -0.1608
89645W        W32698   6.152  25.573  20.740  0.1422  0.2088  0.2956
89646W        W32699  19.142   6.433   7.503  0.0254  0.0745 -0.1352
89647W        W32700   3.637  20.325  14.739 -0.1940 -0.5459  0.0166
89648W        W32701  25.866  22.933  20.706 -0.3619  0.1793  0.1149
89649W        W32702   4.231  18.498  19.163  0.1757  0.0757 -0.1456
89650W        W32703  22.981  20.484  23.767 -0.0426 -0.2521 -0.2445
89651W        W32704  23.584  27.096  21.520 -0.1036  0.0493 -0.1419
89652W        W32705  34.302   7.831  16.415  0.3108 -0.0057  0.0489
89653W        W32706  17.796  31.184  25.229 -0.0509  0.0231 -0.0288
89654W        W32707  13.067  24.137  19.923 -0.1136 -0.0029  0.0883
89655W        W32708   4.765  11.058  17.346  0.3879 -0.0471 -0.0109
89656W        W32709  19.740  16.914  27.731 -0.1383 -0.1224 -0.1829
89657W        W32710   1.890   0.737  13.936  0.1051  0.1019  0.0649
89658W        W32711  19.105   7.964  19.318 -0.2683  0.2950  0.1667
89659W        W32712   9.221  11.901  26.626  0.0542  0.1633  0.1540
89660W        W32713  31.667  18.448  17.128  0.2826  0.0131 -0.0690
89661W        W32714   1.998  24.103  14.209 -0.1183 -0.2778  0.3778
89662W        W32715  27.733  30.810  15.551 -0.0946 -0.0857  0.1845
89663W        W32716  29.923  20.751  24.759  0.1247  0.0504  0.1010
89664W        W32717  31.703  30.219  21.863  0.1284  0.1880 -0.0946
89665W        W32718  12.949   4.628  25.663  0.2411  0.0487 -0.0071
89666W        W32719  30.540  13.773  16.997 -0.0371  0.1215 -0.0073
89667W        W32720  23.870   7.557  18.586  0.4318  0.1888  0.0020
89668W        W32721  16.365  28.867  27.635  0.1209 -0.0821  0.0852
89669W        W32722  16.981  27.831  19.684 -0.1725  0.0218  0.0450
89670W        W32723  18.292  22.097  19.752 -0.0729  0.1093  0.2810
89671W        W32724  20.664  17.593  26.655  0.0590 -0.0019 -0.1971
89672W        W32725  24.752  11.916  23.251 -0.0592 -0.0290 -0.0925
89673W        W32726  34.573  10.781  17.323 -0.1438  0.0651 -0.3206
89674W        W32727   0.330  19.086  18.572  0.5416  0.0752 -0.4065
89675W        W32728   7.294   4.369  26.029 -0.1295 -0.0773  0.2365
89676W        W32729  24.948  21.117  16.426 -0.1927  0.1085 -0.1032
89677W        W32730  19.052   7.168  16.701  0.0148 -0.3971  0.4367
89678W        W32731  24.270  17.817  17.347 -0.2728 -0.1233 -0.0094
89679W        W32732   8.657  13.882  21.501 -0.2313  0.3507 -0.0960
89680W        W32733  17.020  34.007   3.688  0.1312  0.0400  0.2248
89681W        W32734  26.945  22.499  18.127 -0.0688 -0.2136 -0.2318
89682W        W32735  17.896  18.961  26.126 -0.3019  0.1430 -0.1104
89683W        W32736  24.112  15.044   1.355 -0.3597 -0.2319 -0.0320
89684W        W32737   9.829  17.796  15.957 -0.3346  0.1590 -0.1113
89685W        W32738  22.332   7.540  15.729  0.3140  0.1787  0.0026
89686W        W32739  22.154   9.888  16.996  0.1832 -0.1248 -0.1608
89687W        W32740  33.488  14.353  20.385 -0.0623 -0.1918  0.0204
89688W        W32741  10.147  18.603  24.955 -0.0408 -0.0086 -0.0398
89689W        W32742  29.605  13.763  14.681 -0.3709  0.1169  0.1780
89690W        W32743   1.062  14.746  15.522 -0.0081  0.0397  0.0239
89691W        W32744  21.141  23.164  15.677 -0.0367 -0.2653  0.2072
89692W        W32745  25.684  20.703   0.247  0.0597  0.1630 -0.4277
89693W        W32746   9.811  11.114  15.934 -0.1059 -0.2178 -0.0020
89694W        W32747  27.042   3.753  17.055 -0.1683  0.0380  0.0585
89695W        W32748  23.563  19.318   4.278  0.0111 -0.1572 -0.1106
89696W        W32749  22.918  11.223  17.499 -0.2270  0.1362  0.4085
89697W        W32750   3.903  19.510   1.207  0.0028 -0.1812 -0.1801
89698W        W32751  15.956  31.883  17.761 -0.3671  0.0108 -0.0472
89699W        W32752  17.383   6.872  20.822  0.1643  0.0272 -0.0074
89700W        W32753   8.267  16.847  15.403  0.1753  0.1418  0.1561
89701W        W32754  32.184  17.234  19.929  0.0932  0.3819 -0.1905
89702W        W32755  14.103  10.959  24.119 -0.1441 -0.4026 -0.0645
89703W        W32756   4.767  19.695   6.363 -0.1120 -0.4987 -0.1835
89704W        W32757  21.153  10.793  26.443  0.1162 -0.0709  0.0082
89705W        W32758  11.921  19.791   1.202 -0.3592 -0.4115 -0.2925
89706W        W32759  29.752  19.814  21.304 -0.0184  0.0822 -0.0538
89707W        W32760   2.121  32.009  14.011  0.0946  0.0406 -0.0757
89708W        W32761  21.902  22.677   2.026  0.2131  0.4478 -0.1716
89709W        W32762  24.255  18.005   3.507  0.2398  0.2072 -0.0851
89710W        W32763  20.898  24.411  18.332  0.1617  0.0144 -0.0507
89711W        W32764  33.482  27.302   4.974 -0.0706 -0.2272  0.0667
89712W        W32765  24.943  17.975   0.821  0.2048  0.0007  0.1305
89713W        W32766   6.841  18.821   2.237  0.1214 -0.0198  0.0208
89714W        W32767  21.878  32.326  19.278 -0.1723 -0.0459  0.0541
89715W        W32768  10.994  17.550  20.288 -0.0647  0.1176  0.0741
89716W        W32769  22.693  32.778  16.857  0.2172  0.0726 -0.0744
89717W        W32770   3.948  10.613  16.141  0.3376  0.0290 -0.2644
89718W        W32771   8.930  22.074   0.892  0.1864  0.0276 -0.0148
89719W        W32772  22.731  15.606  17.030 -0.2467 -0.0902  0.0392
89720W        W32773   2.267  14.069  15.455  0.0968  0.2731  0.1328
89721W        W32774  31.606  15.598  14.216 -0.1733  0.2238  0.0997
89722W        W32775  13.370  21.340  24.039  0.2155  0.0127  0.0735
89723W        W32776   9.947  15.989  15.980  0.3044 -0.3142  0.0086
89724W        W32777   6.395  15.358  14.904  0.0713 -0.2471 -0.1246
89725W        W32778  22.822   2.751  24.900 -0.3007 -0.0701  0.0673
89726W        W32779  23.591  21.727  19.703 -0.1090  0.0967 -0.0716
89727W        W32780  13.156  13.485  25.961 -0.2177  0.0726 -0.0967
89728W        W32781  28.889  32.495  14.520 -0.0348  0.0779  0.0624
89729W        W32782  17.501  11.950  22.386 -0.0493  0.0054  0.0769
89730W        W32783  29.624   5.750  20.842  0.1255 -0.0759  0.2311
89731W        W32784   9.810  31.910  23.831 -0.2288 -0.2756 -0.2548
89732W        W32785  32.632  27.303   5.280 -0.1286  0.1683 -0.2245
89733W        W32786  21.878   9.762  25.624 -0.1430 -0.2664 -0.0278
89734W        W32787   0.263   2.409  22.032  0.1734 -0.0149 -0.0756
89735W        W32788  25.479   7.712  13.516  0.1629 -0.2995  0.2947
89736W        W32789  11.748  21.999  16.613 -0.1728 -0.5469 -0.0831
89737W        W32790  26.681   7.145  18.277  0.0338 -0.1765 -0.0171
89738W        W32791  29.504  25.716   2.572  0.1911 -0.2678  0.0475
89739W        W32792  27.427  22.570  15.170  0.1713 -0.1462 -0.0053
89740W        W32793  28.362  24.124  21.723  0.1968 -0.0227 -0.1310
89741W        W32794  23.718  28.491  14.909 -0.2268 -0.2044  0.0004
89742W        W32795   6.831  11.460  16.950  0.2662  0.1854 -0.3690
89743W        W32796   1.574   5.412  20.838 -0.1880  0.1144  0.1524
89744W        W32797   9.184  15.193   0.171  0.3757 -0.4240 -0.1415
89745W        W32798  16.199   9.160  21.520 -0.3361  0.1957 -0.4558
89746W        W32799  12.414  23.506  17.856  0.3447  0.1528 -0.0441
89747W        W32800   8.713   8.553  16.125 -0.1892 -0.3663  0.2654
89748W        W32801  27.805  10.700   1.301  0.0426 -0.4261 -0.1601
89749W        W32802  32.615  19.109  17.266  0.0134  0.3480  0.1603
89750W        W32803  13.503  29.544  19.505  0.5293  0.0009  0.0068
89751W        W32804  25.660  31.061  20.018 -0.0160 -0.1713 -0.1920
89752W        W32805  25.950  14.477  14.759  0.1080 -0.1240  0.1548
89753W        W32806  24.274  23.692  24.340  0.0058 -0.5167  0.0940
89754W        W32807  18.579  19.724  15.331 -0.1784  0.3365 -0.1419
89755W        W32808  30.238   9.269  20.855 -0.1784  0.0680  0.1626
89756W        W32809  30.375  27.087  17.937  0.1111  0.2638 -0.3635
89757W        W32810  12.380  20.114  25.949  0.0450  0.1602  0.0404
89758W        W32811   8.883  13.470  19.310  0.1024 -0.2668 -0.2196
89759W        W32812  12.053   6.202   2.500  0.3639 -0.2636  0.0962
89760W        W32813  17.720  22.213  16.427  0.1161  0.0559  0.1200
89761W        W32814  21.942  24.058  19.684 -0.0623  0.1812 -0.0642
89762W        W32815  31.581  28.364   0.489  0.1294 -0.1982 -0.1244
89763W        W32816  10.900  22.051  20.402 -0.0018 -0.1352 -0.0412
89764W        W32817  17.018  14.417  14.575 -0.0753  0.0870 -0.0122
89765W        W32818  32.728  17.787  19.394  0.1566  0.0167  0.1446
89766W        W32819  23.065  25.675  24.536 -0.0396 -0.2348  0.0754
89767W        W32820  12.787  27.408  19.152 -0.0107 -0.1237 -0.1744
89768W        W32821  30.141  15.821  20.026  0.2562  0.3850  0.0931
89769W        W32822   0.559  11.179  15.356 -0.1437 -0.0425 -0.3370
89770W        W32823  15.705   1.301  27.009  0.0294  0.3944 -0.2737
89771W        W32824  33.971  15.097  18.976  0.2564  0.0043  0.0656
89772W        W32825  33.325  20.125  24.527  0.0971  0.1360  0.1419
89773W        W32826  29.206  25.694  20.661  0.0804  0.2777  0.0529
89774W        W32827  11.616  22.021  15.266 -0.0569 -0.2633  0.0149
89775W        W32828  13.544  25.963  27.091 -0.1746  0.0435 -0.0828
89776W        W32829   9.182   4.153  19.307  0.1315  0.1946 -0.1554
89777W        W32830   4.714  27.270   2.046 -0.0615 -0.5792  0.1905
89778W        W32831  23.255  11.777  16.325  0.2111  0.1541 -0.1614
89779W        W32832  20.108  23.224  14.411  0.0307  0.0607 -0.0814
89780W        W32833  23.546  31.186  17.885  0.0025  0.1857  0.0143
89781W        W32834   3.969  11.826   0.720  0.0985  0.0207  0.0947
89782W        W32835   6.734   9.618  21.970  0.0514 -0.2900 -0.3272
89783W        W32836  28.132  19.542  23.716 -0.0242 -0.0177  0.1146
89784W        W32837  19.400   3.048  28.118 -0.2446  0.3030 -0.0416
89785W        W32838  24.339  15.890  25.238  0.0849 -0.0782 -0.1327
89786W        W32839  19.554   7.625  20.998  0.0639  0.1902  0.2263
89787W        W32840  16.576   7.952  15.747 -0.2337  0.1112 -0.1819
89788W        W32841  14.307  16.872  25.619 -0.1618 -0.1992 -0.5585
89789W        W32842  31.789  28.454   4.921  0.3548 -0.0450  0.0326
89790W        W32843  24.269  14.109  23.864 -0.2987 -0.2946 -0.1782
89791W        W32844   6.273  31.270  19.219 -0.0175 -0.2442  0.0016
89792W        W32845  14.165  14.331  21.233  0.1753  0.0872  0.1331
89793W        W32846  12.817  24.856  27.659  0.1665 -0.0357  0.0404
89794W        W32847  19.584  11.288  18.180  0.2389 -0.1732  0.0984
89795W        W32848  22.409  33.113  23.295  0.5361 -0.3378 -0.0572
89796W        W32849  23.801  25.163  18.412 -0.0826  0.0688 -0.0875
89797W        W32850  27.792  20.422  22.885 -0.0456  0.0115 -0.1566
89798W        W32851  18.000  24.453  22.572 -0.0747 -0.0603 -0.0954
89799W        W32852  27.117  20.352  23.660 -0.0882 -0.2220 -0.0976
89800W        W32853   5.752   8.079  16.435 -0.0571  0.2789 -0.1844
89801W        W32854  19.548  27.057  22.607 -0.3365 -0.1308 -0.0869
89802W        W32855  15.210  21.454  18.780  0.0908 -0.0131 -0.1308
89803W        W32856  22.173  14.842  18.401 -0.0836  0.1803  0.0558
89804W        W32857  17.894  10.926  14.174  0.1939  0.2273 -0.1915
89805W        W32858   9.103  34.645   4.468  0.0017 -0.1786 -0.1466
89806W        W32859  27.767  17.964  18.872  0.1655 -0.3222 -0.0976
89807W        W32860  17.388  21.203  14.369  0.0094 -0.0812  0.2164
89808W        W32861   6.009  19.327  17.670 -0.0291 -0.0712 -0.0594
89809W        W32862  11.351   3.437  15.911 -0.0718 -0.0401  0.3368
89810W        W32863  19.422  23.859  15.556 -0.0607  0.2857  0.3636
89811W        W32864  20.141  28.208  16.767  0.2756 -0.0003  0.0405
89812W        W32865  26.254  12.864  15.283  0.1210  0.0944  0.2422
89813W        W32866  19.486  21.847  16.762 -0.1947  0.0235  0.1022
89814W        W32867  15.716   8.075  19.341 -0.1513 -0.5068  0.1850
89815W        W32868  22.434  18.293  23.030 -0.2579 -0.1217  0.2395
89816W        W32869  23.617  12.762  24.551  0.3319 -0.0512 -0.2079
89817W        W32870  30.464  12.585  15.492  0.0860 -0.2364 -0.1915
89818W        W32871   9.185  27.613  17.592  0.1657 -0.1244  0.2102
89819W        W32872  14.400  13.200   3.212 -0.1879  0.1284  0.1449
89820W        W32873  18.752  20.711  23.389  0.2552  0.0357  0.0950
89821W        W32874   8.058   0.045  16.394 -0.0277 -0.0546 -0.3638
89822W        W32875  17.127  16.878  13.641 -0.1101  0.1017  0.1693
89823W        W32876  24.833  30.623   4.814 -0.1268  0.3421  0.1282
89824W        W32877  26.802  33.113  19.112 -0.3322 -0.1585 -0.0024
89825W        W32878  29.575  17.684  22.090 -0.0370  0.2132 -0.1736
89826W        W32879  30.557  15.992  17.592  0.1599 -0.3045 -0.1448
89827W        W32880  22.183   1.718  21.931 -0.3316  0.1097 -0.1113
89828W        W32881   9.944  10.962  21.679 -0.0253 -0.0739  0.2068
89829W        W32882  11.926  29.049   2.484 -0.1394  0.1401 -0.0576
89830W        W32883  12.484  14.274  23.004 -0.3393 -0.2319 -0.1246
89831W        W32884  19.083  12.909  22.225 -0.1947  0.2244 -0.1428
89832W        W32885  15.983   1.291  15.864 -0.1398  0.0144  0.1562
89833W        W32886  22.251  15.064  16.211  0.0441  0.1423  0.2072
89834W        W32887  21.101  25.221  20.215  0.1196 -0.0936  0.0183
89835W        W32888  26.832  19.080  23.544  0.3609  0.2397 -0.3643
89836W        W32889  23.641  18.818  20.540  0.2807  0.0755  0.1645
89837W        W32890  16.971  15.574  13.672  0.1125 -0.4478  0.1324
89838W        W32891  11.972  11.543  26.393  0.0463 -0.0436 -0.4720
89839W        W32892  30.897  11.545  19.210  0.2044 -0.3573  0.2217
89840W        W32893   2.673  11.264  17.342 -0.3380 -0.2788 -0.2339
89841W        W32894  12.019  19.927  14.502  0.1059  0.0896 -0.0043
89842W        W32895  25.055   0.446  24.492  0.2021  0.1217 -0.0345
89843W        W32896  26.459  16.874  22.038  0.2906  0.1524  0.0965
89844W        W32897  13.865   9.691  16.695 -0.1430  0.0663 -0.2423
89845W        W32898  24.814  24.537  15.638  0.1486 -0.1441  0.3199
89846W        W32899  16.914  26.621   1.933  0.1123  0.0965 -0.2260
89847W        W32900  11.014  21.473  22.988 -0.0983  0.1970  0.2838
89848W        W32901  22.931  14.617  24.706  0.1622  0.0688  0.0500
89849W        W32902  21.952  12.408  22.810  0.1672  0.2026 -0.1455
89850W        W32903  19.091   7.439  25.785 -0.3883  0.0437 -0.1371
89851W        W32904  34.196   3.753  14.393  0.0460 -0.0903 -0.2637
89852W        W32905   5.549   3.487   7.935 -0.1512  0.0298 -0.2368
89853W        W32906  29.058   4.815  28.466  0.2634 -0.0528  0.0665
89854W        W32907  30.151  31.129  14.573  0.2052  0.0961 -0.0983
89855W        W32908  26.039  14.633  18.083  0.1843  0.0946  0.3610
89856W        W32909   0.045  15.720  22.935 -0.0292  0.0848 -0.0601
89857W        W32910  31.803   8.065  19.492 -0.1793  0.1074  0.3926
89858W        W32911  26.908  24.094  23.876  0.3289 -0.0505  0.0199
89859W        W32912  19.663  12.770  14.192 -0.3643  0.0240 -0.2471
89860W        W32913  21.235  34.306  20.375  0.0546  0.1027 -0.0204
89861W        W32914  32.344  19.781  26.277 -0.0047 -0.1944 -0.2654
89862W        W32915  16.820  22.589  25.289 -0.5209 -0.1302  0.1004
89863W        W32916  12.706  26.002  15.291  0.1678  0.1434 -0.1689
89864W        W32917   4.754  23.946  17.710  0.3102  0.0306  0.0536
89865W        W32918  22.657  29.710  16.951  0.0897  0.0175 -0.2075
89866W        W32919   5.740  10.045  29.173  0.3444 -0.2795 -0.4240
89867W        W32920  24.125  13.813  23.350  0.1704  0.2386 -0.1019
89868W        W32921  28.556  11.928  22.876 -0.0903  0.2917  0.2165
89869W        W32922  18.099  17.581  13.274  0.0416  0.2260  0.0583
89870W        W32923  18.933  11.421  14.806 -0.0856  0.0253  0.0570
89871W        W32924  33.701  17.411  28.723 -0.0973 -0.0167 -0.2812
89872W        W32925  19.151  10.983  15.399  0.0831  0.2300 -0.1593
89873W        W32926  19.017  22.782  15.232  0.1535 -0.1245 -0.2839
89874W        W32927  34.507  17.731   4.035 -0.1661  0.1345  0.0007
89875W        W32928  11.153   1.720  19.989  0.2460  0.2120 -0.0490
89876W        W32929  17.909   7.601   3.582  0.0842 -0.0389 -0.1339
89877W        W32930  11.792  34.522  20.636 -0.4361  0.1973 -0.1713
89878W        W32931  31.521  13.472   2.904 -0.0684 -0.1027 -0.2897
89879W        W32932   9.939  15.354  15.139 -0.0902  0.1572  0.3353
89880W        W32933  21.341   7.095   4.956 -0.2206 -0.0070 -0.0040
89881W        W32934   7.864  11.553  14.115 -0.1072  0.0132 -0.1384
89882W        W32935  27.100  17.097  17.592 -0.0533 -0.0199 -0.0097
89883W        W32936  18.900   0.656  25.674 -0.1219 -0.2889 -0.1205
89884W        W32937   9.596  15.941  17.459 -0.2769 -0.3763  0.1634
89885W        W32938  20.777  14.523  16.063 -0.2681 -0.0412 -0.0528
89886W        W32939   8.703   9.114  24.265 -0.1810  0.0302  0.1607
89887W        W32940  15.504  13.742  16.804 -0.0440 -0.2403 -0.2233
89888W        W32941  32.606  25.938  13.975  0.3094  0.1552 -0.1219
89889W        W32942  21.563  13.190  16.631  0.4333 -0.0773  0.0435
89890W        W32943  21.793  12.421  20.355 -0.1408  0.0976 -0.6010
89891W        W32944  15.345  23.897  18.949 -0.0679 -0.3424 -0.0812
89892W        W32945  28.428  32.929  26.255 -0.1566  0.2164 -0.4765
89893W        W32946  22.614  15.816  17.776 -0.1838 -0.2501 -0.1321
89894W        W32947  26.248  14.223  25.617 -0.0409 -0.1565  0.2537
89895W        W32948  28.738  26.464  22.884 -0.2933  0.2214  0.1727
89896W        W32949  12.553  22.246  21.023  0.0606  0.0623 -0.1228
89897W        W32950  24.431  19.137  24.778 -0.0939  0.1683  0.0042
89898W        W32951   3.349  29.915  28.620 -0.3416  0.0279 -0.0446
89899W        W32952  26.175   1.542  28.564  0.2510 -0.0714 -0.4082
89900W        W32953  27.247  16.551   1.535  0.1506 -0.0225  0.2479
89901W        W32954   6.428  12.170   7.280  0.2285  0.0562 -0.4213
89902W        W32955  27.864  29.990  17.971 -0.0649  0.0702  0.2192
89903W        W32956  32.901  13.061  25.403 -0.0935 -0.1464  0.0695
89904W        W32957  22.917   1.791  21.088 -0.1053  0.0751  0.0180
89905W        W32958  32.424  16.887   2.607  0.0069 -0.1944  0.3234
89906W        W32959  24.065   7.171  17.293 -0.0601  0.2990  0.1522
89907W        W32960  31.135  17.362  18.070  0.0884 -0.0202  0.4751
89908W        W32961  29.809  15.038  21.815  0.0268  0.2160 -0.3089
89909W        W32962  26.327  31.317  18.059 -0.0245 -0.0662  0.0847
89910W        W32963  22.015  12.913  25.462 -0.1343  0.2398 -0.3533
89911W        W32964  32.873   7.713  24.250 -0.2211  0.0384 -0.0175
89912W        W32965  24.885   3.854  14.297 -0.1050  0.1862  0.2507
89913W        W32966  27.105  21.117  22.416  0.0910 -0.1519  0.1075
89914W        W32967  22.376  14.206  20.288  0.1035  0.2380 -0.2558
89915W        W32968  14.362  13.097  15.059  0.0907 -0.1097 -0.0261
89916W        W32969  21.515   7.703  18.100  0.0724  0.3194  0.0160
89917W        W32970  33.750  28.746   1.245  0.1660 -0.0231 -0.1096
89918W        W32971  20.592  19.909  22.147  0.0223 -0.0903 -0.1562
89919W        W32972  23.892   7.902  17.880 -0.2120  0.1804 -0.3591
89920W        W32973  11.084  13.932  22.973 -0.1477  0.2077 -0.0465
89921W        W32974  11.978  15.641  14.688 -0.0447 -0.0681  0.2105
89922W        W32975  26.664  23.150  25.245 -0.2965  0.1764 -0.2500
89923W        W32976  21.943  28.370  17.220  0.3937 -0.3139 -0.2118
89924W        W32977  21.373  15.584  17.509 -0.3440 -0.0231 -0.0213
89925W        W32978  25.609  22.170  28.796  0.1864  0.0556 -0.0075
89926W        W32979   8.745   7.413   1.354  0.1751 -0.1920  0.0415
89927W        W32980   8.745  25.797   0.224  0.2714  0.0598 -0.0804
89928W        W32981   9.275  20.804  14.739 -0.1897  0.1944 -0.0047
89929W        W32982  29.297  15.891  18.345 -0.1357  0.0869 -0.1223
89930W        W32983  26.938  12.333  19.828 -0.0145  0.0002  0.0081
89931W        W32984  29.262  31.150  15.123 -0.0373 -0.2172  0.2021
89932W        W32985  27.279   0.516  28.552 -0.0315 -0.2757 -0.0808
89933W        W32986  28.777  20.596   3.207  0.2707  0.1540  0.0398
89934W        W32987  23.208   2.648  19.996 -0.0766 -0.0346  0.4859
89935W        W32988  17.016   7.445  20.544 -0.0426 -0.0218 -0.0984
89936W        W32989  15.166   8.468  25.087 -0.4066 -0.0139  0.2065
89937W        W32990  19.107  14.068  14.729  0.0314  0.0399 -0.0650
89938W        W32991  25.026  18.089  24.147  0.0674  0.0271  0.0854
89939W        W32992  22.121   1.085   2.107  0.4805  0.1973 -0.2058
89940W        W32993  20.156  22.279  18.290  0.1058  0.1301  0.0663
89941W        W32994  11.368  18.576   0.771 -0.2741 -0.1761 -0.3292
89942W        W32995  15.477  14.608  14.011  0.0078 -0.0500 -0.1444
89943W        W32996  12.726  28.679  27.699  0.1021  0.2985  0.1358
89944W        W32997  22.344  17.001  28.998 -0.2593 -0.0036 -0.1126
89945W        W32998  31.787  13.337  16.064  0.2402 -0.2620 -0.0649
89946W        W32999   2.651   8.480  15.930 -0.1544 -0.0645  0.0324
89947W        W33000   3.572   4.269  17.913 -0.0388  0.4486  0.0357
89948W        W33001   6.951   5.170  10.503 -0.3126 -0.0156  0.0529
89949W        W33002  25.663  19.000  16.351 -0.0131  0.0669  0.1828
89950W        W33003  31.908   6.364  25.211  0.0489 -0.0225 -0.2185
89951W        W33004  12.483   3.042  18.428  0.1050 -0.1752  0.1351
89952W        W33005  30.319  17.687  18.379 -0.1940  0.1215 -0.1071
89953W        W33006  11.415  34.099  17.626 -0.3113  0.1413 -0.5291
89954W        W33007  28.785   2.449  23.978 -0.2390  0.1517  0.2643
89955W        W33008   4.719  18.325  15.520 -0.1087 -0.2415  0.0178
89956W        W33009  17.238   8.992  25.026 -0.0928  0.0354 -0.2270
89957W        W33010  30.347  31.047  21.559 -0.1380  0.2383 -0.1042
89958W        W33011  23.331   5.220  14.367 -0.1732  0.2523  0.1215
89959W        W33012   1.107  19.855  15.111 -0.3599  0.0589  0.2521
89960W        W33013  16.480  18.596  18.341 -0.0097 -0.3193 -0.3152
89961W        W33014  14.367   3.007  24.875  0.0364  0.2871 -0.3324
89962W        W33015  25.432  30.599  19.968  0.0653  0.0297  0.1342
89963W        W33016  27.557  12.989  14.506 -0.0636 -0.2250 -0.1146
89964W        W33017  22.144  14.985  18.949  0.2201  0.0073  0.1128
89965W        W33018  15.795   7.215  15.389 -0.2669  0.4082  0.2388
89966W        W33019  18.619  17.418  18.255 -0.1068 -0.0245 -0.0322
89967W        W33020  19.368   3.532  17.649 -0.0080 -0.2721  0.2028
89968W        W33021  33.047  26.415  15.302  0.1818 -0.0362 -0.0259
89969W        W33022  14.992  24.487  23.280 -0.2368 -0.1791  0.0559
89970W        W33023  22.045   8.221  20.265  0.1186 -0.2052  0.0033
89971W        W33024  30.211  21.436  14.186  0.1080  0.0229  0.1375
89972W        W33025  32.379  28.681  24.596 -0.1073  0.0885 -0.2783
89973W        W33026   2.429  16.464  22.090  0.2722 -0.0688 -0.1387
89974W        W33027   8.202   2.114  28.409 -0.2279  0.4506  0.1784
89975W        W33028  24.510  11.194  13.987  0.0565 -0.0900  0.1264
89976W        W33029  26.206  11.762  27.872 -0.1566 -0.0240 -0.0780
89977W        W33030  16.810   8.314  18.740 -0.0032 -0.0046  0.0937
89978W        W33031  22.034  20.851  22.503 -0.0177 -0.2329  0.3144
89979W        W33032  30.264  10.041  22.465  0.0132 -0.3541 -0.3107
89980W        W33033  10.858  20.500  16.496  0.1550 -0.1700 -0.0501
89981W        W33034  25.391  10.973  20.630 -0.2400  0.2295  0.0079
89982W        W33035  21.750  17.964  20.375  0.3524 -0.0254  0.0639
89983W        W33036  29.937  17.526  24.802  0.1024  0.0900 -0.1679
89984W        W33037  11.315  20.193  17.062 -0.1381 -0.1438 -0.3030
89985W        W33038   2.951  12.824  20.678  0.1446  0.3008  0.1783
89986W        W33039  29.544  21.910  16.970  0.0460 -0.1479  0.1592
89987W        W33040  16.463  26.283  19.679 -0.1314 -0.1016  0.1733
89988W        W33041  25.680   4.899  21.479  0.4495 -0.0070 -0.0338
89989W        W33042   0.379  18.426  17.491  0.0464  0.1168 -0.2500
89990W        W33043   3.215  10.902  27.061 -0.0133  0.0661  0.0959
89991W        W33044   9.630   9.299   3.490 -0.1280  0.3348 -0.2760
89992W        W33045  19.344  20.708  25.947 -0.1316 -0.1096  0.2077
89993W        W33046  10.403   9.754   0.912  0.1622  0.0497 -0.0204
89994W        W33047  29.048  26.090  23.122  0.0705 -0.2177 -0.1751
89995W        W33048   4.502  13.618  21.168 -0.0386  0.1164  0.0141
89996W        W33049  22.827   1.507  20.100  0.0789 -0.3528  0.2857
89997W        W33050  33.929   7.317  18.382 -0.0158  0.0719 -0.1567
89998W        W33051  17.824   7.598  15.219 -0.0219 -0.0636 -0.2190
89999W        W33052  13.531  13.118  18.256 -0.0824 -0.2240  0.1530
90000W        W33053  20.508   8.692  19.067 -0.0976  0.2438 -0.1395
90001W        W33054  28.048  34.603   0.219 -0.2524  0.4013  0.0704
90002W        W33055  23.784  16.841  27.011 -0.3520 -0.0223  0.0797
90003W        W33056  19.258  21.438  17.903 -0.1275  0.1983  0.0217
90004W        W33057  16.131  16.429  13.591 -0.5261 -0.0257 -0.0444
90005W        W33058  17.938  18.326  20.660  0.2249 -0.0029 -0.1497
90006W        W33059  25.168  21.440  15.110  0.1440 -0.1809 -0.0011
90007W        W33060  12.432  13.438  21.981  0.2411 -0.1964 -0.0920
90008W        W33061  13.428  10.636  15.706  0.2110 -0.1009 -0.1614
90009W        W33062  11.647  11.629  15.612 -0.1873  0.0462  0.0905
90010W        W33063  23.828  27.255  20.581  0.1130  0.0178  0.0255
90011W        W33064  18.033   0.452  26.216  0.0144 -0.4992  0.2905
90012W        W33065  20.054  27.823  15.974 -0.1670 -0.1788 -0.0272
90013W        W33066   0.096  12.678  28.176 -0.1694 -0.1311 -0.0106
90014W        W33067  25.630  10.609  17.624  0.2420 -0.0719 -0.2189
90015W        W33068  27.360  18.841  23.472 -0.3834 -0.0494 -0.0688
90016W        W33069   8.817  17.153  22.823 -0.0595 -0.3139  0.2861
90017W        W33070   5.118  23.034   2.499 -0.1661 -0.0549 -0.1771
90018W        W33071  27.821  20.982  23.567 -0.0965 -0.0597  0.1979
90019W        W33072   8.834   2.689   1.796 -0.0078 -0.4714 -0.0653
90020W        W33073  31.076  16.521  17.638 -0.1856 -0.0834 -0.2701
90021W        W33074  12.638   1.583  16.698  0.0971 -0.1078  0.2489
90022W        W33075  23.545   0.947  24.582  0.2414  0.2408  0.0292
90023W        W33076  12.171   2.381  26.231  0.0775 -0.2061 -0.0892
90024W        W33077  23.973  13.693  18.690 -0.1691 -0.1414 -0.0129
90025W        W33078  10.318   1.549  21.055  0.0191  0.2200  0.1744
90026W        W33079   3.147   8.831  15.315 -0.0489  0.1871  0.0111
90027W        W33080  22.940  11.064  24.308 -0.2167  0.2510  0.0097
90028W        W33081  16.452   9.752  28.134  0.2528  0.1342 -0.0999
90029W        W33082  16.491  29.134  28.530  0.2166 -0.1290  0.2116
90030W        W33083  21.414  19.479  19.976  0.2855  0.3204 -0.1590
90031W        W33084  29.688   2.631  24.914 -0.1101 -0.1816 -0.0685
90032W        W33085  22.448   8.166   2.844 -0.0296  0.2190  0.0804
90033W        W33086  16.101  11.258   4.731  0.1270 -0.0218  0.4911
90034W        W33087   9.776  13.882  20.397  0.3625 -0.0357  0.1227
90035W        W33088  13.938  13.671  22.572  0.1783 -0.1206  0.2637
90036W        W33089  13.546   3.144  16.535  0.0348 -0.1403 -0.1464
90037W        W33090  22.393  22.063  17.251  0.0019  0.2634  0.1372
90038W        W33091  22.395  17.032  18.446 -0.0606  0.1119  0.1669
90039W        W33092  13.132  32.354  21.748  0.0836  0.0299 -0.0480
90040W        W33093   9.718  22.205  21.838 -0.1146 -0.0836 -0.0783
90041W        W33094  33.317  22.644  21.809 -0.2274 -0.1601 -0.1495
90042W        W33095   1.412  12.597  15.328 -0.1980  0.3474  0.0981
90043W        W33096   3.759  26.973  25.556  0.0377  0.0003 -0.0150
90044W        W33097   1.369   2.628  27.232 -0.0757  0.1073  0.1265
90045W        W33098   3.853  15.045  27.522  0.0564 -0.1826  0.0754
90046W        W33099  14.503  31.688  19.688 -0.2826  0.0849  0.3243
90047W        W33100   8.708  20.078  17.594 -0.1795 -0.0536 -0.0109
90048W        W33101  23.170  10.672  16.610  0.1084 -0.1699 -0.2965
90049W        W33102  16.628  21.711  20.656 -0.3041  0.4695 -0.0295
90050W        W33103  13.845   7.584  23.231 -0.0296  0.1723 -0.3547
90051W        W33104  30.828  17.603   4.604  0.1103 -0.0108 -0.1777
90052W        W33105  18.001  15.596   7.110 -0.3384 -0.0771  0.1304
90053W        W33106  33.904  21.844  19.030  0.0608  0.0768 -0.0735
90054W        W33107  33.963  12.407  19.123 -0.2791  0.1786 -0.1060
90055W        W33108   1.153  12.893  22.262  0.2472 -0.0650 -0.0628
90056W        W33109  12.125  30.756  22.091 -0.0039 -0.0808  0.0113
90057W        W33110   5.551  12.609  20.071 -0.0386  0.1362  0.0345
90058W        W33111  12.160   3.040   8.474 -0.0605 -0.0978  0.1303
90059W        W33112   0.558   8.166  28.371  0.0663  0.1275  0.0632
90060W        W33113  16.971  14.167   0.519 -0.1775 -0.2237 -0.0029
90061W        W33114   3.759  17.609  15.184  0.0725 -0.1342  0.2980
90062W        W33115  29.647  13.992  15.162  0.4318  0.2398  0.0643
90063W        W33116  27.165  14.823  21.593 -0.1273  0.0994 -0.1679
90064W        W33117  13.406  26.696  20.317 -0.0040 -0.1154  0.1847
90065W        W33118  12.623   6.167   0.671 -0.1392 -0.1919  0.0025
90066W        W33119  10.350  22.093   2.026  0.0811 -0.3198 -0.2294
90067W        W33120  18.691  21.017  14.068  0.1409 -0.5300  0.0569
90068W        W33121  26.684  31.201   5.636  0.0275 -0.1918  0.2948
90069W        W33122  21.439  31.828  17.148  0.2318 -0.0917 -0.1551
90070W        W33123  25.572  10.102  24.127 -0.3119 -0.0087 -0.3198
90071W        W33124  28.702  23.145  22.306  0.3456 -0.1657  0.0631
90072W        W33125  26.226  19.813  28.333 -0.0152 -0.2936 -0.2665
90073W        W33126   0.467  14.940  27.083 -0.1432  0.2482  0.3377
90074W        W33127  26.328  16.153  18.323  0.0906  0.0899 -0.0231
90075W        W33128  16.169  10.472  14.962 -0.2581 -0.0536 -0.0411
90076W        W33129  26.681  11.273  20.472  0.0051  0.2826  0.1188
90077W        W33130  23.434   7.412   5.863 -0.1830 -0.1002 -0.2512
90078W        W33131  25.280  23.127   0.777  0.2089 -0.0419  0.1937
90079W        W33132   2.583  25.235  21.677  0.0622  0.0646  0.1099
90080W        W33133  29.569  12.254  24.530  0.0818 -0.0019  0.0884
90081W        W33134  25.101  19.281  18.932 -0.0887 -0.0028 -0.0303
90082W        W33135   5.333  14.139  28.490  0.0431  0.0434  0.0594
90083W        W33136   6.590  25.589  13.043 -0.0991 -0.4378  0.1087
90084W        W33137  21.590  19.013  19.838  0.0161  0.0701  0.3118
90085W        W33138  19.332   2.742  19.168  0.0234 -0.1804 -0.1705
90086W        W33139  17.349  18.038  20.538  0.1401 -0.0469  0.1647
90087W        W33140   5.521  18.113  18.689  0.0211  0.1648  0.0128
90088W        W33141   4.646  20.123  13.764 -0.0971 -0.2242  0.1708
90089W        W33142  12.445  21.259  16.853  0.0324 -0.1722  0.0546
90090W        W33143  25.580  19.470  16.559  0.3663  0.3146 -0.1089
90091W        W33144  16.863  22.464  14.525  0.0475 -0.1961 -0.1167
90092W        W33145  31.683  17.039  24.444 -0.2297 -0.0447  0.2265
90093W        W33146   0.513  11.342  21.557  0.4343  0.0074 -0.1046
90094W        W33147  27.168  18.618  25.596  0.2977  0.1434 -0.0825
90095W        W33148   9.647  20.464  14.774 -0.0589 -0.0294  0.1951
90096W        W33149  27.184  19.248  18.362  0.0685  0.0634 -0.1919
90097W        W33150  29.517  17.131  19.632  0.2155 -0.0693  0.0287
90098W        W33151  24.085   8.037  23.058  0.3228  0.0275  0.1358
90099W        W33152  16.644  16.037  24.462 -0.2914 -0.1310  0.1330
90100W        W33153  14.117  23.030  21.037 -0.0727  0.1232 -0.0570
90101W        W33154  13.436  19.729  26.165  0.1330  0.0346  0.0054
90102W        W33155  20.569   8.778  17.387 -0.0963 -0.0124 -0.0559
90103W        W33156  26.707   5.960  23.500 -0.0315  0.4566 -0.0213
90104W        W33157  18.511  21.780  18.133  0.1346 -0.0202 -0.1199
90105W        W33158  17.132  23.742  18.513 -0.0102 -0.2308  0.2990
90106W        W33159  28.953  16.283  19.392  0.1740  0.1190 -0.1045
90107W        W33160   9.257  16.553   4.014 -0.0644 -0.2440 -0.1945
90108W        W33161  11.050   1.679   3.112  0.1625 -0.0691 -0.1300
90109W        W33162   0.158  17.869  19.705  0.0604  0.0774 -0.4721
90110W        W33163  19.476   6.283  19.170  0.1013  0.2052  0.1010
90111W        W33164   1.058  23.109  15.597  0.1433 -0.4426 -0.0893
90112W        W33165  23.342   7.428  16.245 -0.2623  0.1132  0.3189
90113W        W33166  21.214  23.812  19.701  0.0432 -0.2845 -0.2195
90114W        W33167  19.768  23.086   4.893 -0.3518 -0.1815  0.1796
90115W        W33168  26.931  29.617   1.489 -0.3907  0.1402  0.1285
90116W        W33169  20.875  23.693  18.050 -0.1838 -0.1065  0.0478
90117W        W33170  17.011   9.989  16.282  0.0267 -0.2806  0.2472
90118W        W33171  19.837   5.710  17.423  0.1702 -0.2055  0.1975
90119W        W33172  33.533   0.013  22.266 -0.1379  0.4706  0.1160
90120W        W33173  26.090   8.563  17.445 -0.0321  0.2146 -0.2383
90121W        W33174  34.382  11.213   2.833 -0.0874 -0.2055  0.0653
90122W        W33175  24.758  20.146  16.070 -0.1454 -0.1489 -0.2253
90123W        W33176  25.229  18.644  19.436 -0.1787 -0.1647  0.0488
90124W        W33177  32.630  24.542  16.418  0.0812 -0.0984  0.0291
90125W        W33178  13.601  11.173  16.589  0.1990 -0.1041 -0.0978
90126W        W33179   8.984  19.056   4.721  0.3110 -0.0762 -0.1449
90127W        W33180  13.773  21.880  17.621 -0.0512  0.1233 -0.0028
90128W        W33181  15.244  14.070   2.260 -0.0259 -0.0878 -0.1114
90129W        W33182   2.405  27.881  19.872 -0.0785 -0.0537 -0.0481
90130W        W33183  24.269   3.039  28.085  0.1817 -0.2278  0.1357
90131W        W33184  30.644  17.603  14.464 -0.2563 -0.2156 -0.0010
90132W        W33185  12.580  19.490  26.771 -0.0505 -0.0405  0.1375
90133W        W33186   2.619  12.364  20.760 -0.0726  0.1037  0.1611
90134W        W33187  17.415   2.893  18.588  0.1624  0.0238 -0.1792
90135W        W33188   8.292  19.773  19.818 -0.1555 -0.2057  0.1958
90136W        W33189  19.477  13.340  22.181 -0.1244 -0.1786  0.4192
90137W        W33190  21.730   4.351  21.603 -0.4330  0.0645 -0.3306
90138W        W33191  29.636  14.790  18.501 -0.0643 -0.0034 -0.0306
90139W        W33192  11.589  26.037  15.142 -0.0628 -0.0754 -0.1822
90140W        W33193  22.185  22.128  25.085  0.2924 -0.3212  0.3824
90141W        W33194  32.870  22.480  21.562  0.1856 -0.1234 -0.0120
90142W        W33195   6.944  27.968  18.010 -0.2393 -0.0377  0.1359
90143W        W33196  22.580  13.445   1.076  0.1369 -0.2517 -0.4914
90144W        W33197   4.976   3.128  28.526  0.1369 -0.1228 -0.0002
90145W        W33198  11.398  30.464   8.244  0.1677  0.0320 -0.1463
90146W        W33199  27.818  21.499  27.876  0.4137  0.0182  0.0229
90147W        W33200  28.531  20.973  16.930 -0.3890 -0.1300 -0.0750
90148W        W33201  23.054  16.546  16.861  0.0248 -0.0149 -0.0887
90149W        W33202  23.359  20.922  27.182 -0.3552 -0.1733  0.2213
90150W        W33203   1.139  14.214  24.936  0.0799  0.0099 -0.1916
90151W        W33204  32.189  23.202  14.555 -0.3140  0.2375 -0.2446
90152W        W33205   9.003  13.528  17.980  0.1112 -0.0666 -0.0513
90153W        W33206  22.524  32.762  24.927  0.2990  0.2407  0.1526
90154W        W33207  13.909  13.698  24.728  0.0474  0.1283  0.0739
90155W        W33208  18.152  25.371  15.355 -0.0055  0.0385  0.0060
90156W        W33209  22.060  25.240  19.866  0.0573 -0.2101  0.2193
90157W        W33210  15.558  12.670  19.496  0.0467 -0.0349 -0.3141
90158W        W33211  25.346  23.118  27.060  0.0937 -0.2581 -0.0206
90159W        W33212  26.263  15.312  15.652  0.1825 -0.4025 -0.0454
90160W        W33213   3.324  27.049  18.891  0.4361 -0.0856 -0.1818
90161W        W33214   3.057   6.894  17.761  0.3313 -0.0061  0.2397
90162W        W33215  19.824  28.992  23.198 -0.2544 -0.0223 -0.0358
90163W        W33216   9.268  13.299  20.265 -0.0912 -0.0697 -0.1483
90164W        W33217  21.100  14.956  26.578 -0.2071 -0.1146 -0.0207
90165W        W33218  13.077  24.528   6.357 -0.2151 -0.2052 -0.0697
90166W        W33219  22.275  11.328  18.707  0.2972  0.0729 -0.2893
90167W        W33220   7.114  16.280  26.084 -0.0777 -0.0144 -0.1638
90168W        W33221  16.765  14.894  14.505 -0.1923  0.3643 -0.1157
90169W        W33222   7.998  15.397  18.615  0.0081 -0.1366 -0.1749
90170W        W33223  21.452  15.524  15.213  0.0531 -0.5354  0.0151
90171W        W33224  24.993  14.296  15.074 -0.0565 -0.0886 -0.0199
90172W        W33225  19.437  22.436  10.055 -0.0663  0.0539 -0.1701
90173W        W33226  17.952  16.558  17.827 -0.0299  0.1501 -0.0166
90174W        W33227  33.801  28.147  12.637 -0.0001 -0.0175 -0.3364
90175W        W33228  16.778  27.195   2.661 -0.1169  0.1898 -0.0294
90176W        W33229  29.584  31.956  16.865  0.1443 -0.0603 -0.0469
90177W        W33230  22.130  20.581  17.633 -0.0013 -0.0275  0.0934
90178W        W33231  33.081  12.053   0.714  0.0016  0.0384  0.0391
90179W        W33232  33.729  18.608  13.746 -0.0538  0.0963 -0.2510
90180W        W33233  11.031   5.357  23.839  0.2964 -0.1261  0.0828
90181W        W33234  29.846  22.957   0.163  0.0298  0.1134 -0.3395
90182W        W33235   3.351  25.139  19.713 -0.2246 -0.3091  0.4654
90183W        W33236  25.819  15.929  25.420  0.0108 -0.2664 -0.1924
90184W        W33237  25.264  12.697  23.817 -0.0448  0.2438 -0.1524
90185W        W33238  16.888   4.635  18.866  0.2777  0.0055 -0.2474
90186W        W33239   9.109  12.906  25.835 -0.2994  0.0562  0.0405
90187W        W33240  20.420  24.439  20.402 -0.1379  0.0403  0.4711
90188W        W33241  24.023  23.529  15.934  0.3412  0.0249  0.2418
90189W        W33242  21.500  10.437  20.578  0.1303 -0.3575  0.1629
90190W        W33243  13.189  10.044  24.204  0.0588  0.0866  0.2108
90191W        W33244  28.541  12.564  22.464 -0.2331  0.2268  0.1325
90192W        W33245  13.849  13.796  18.405  0.4317 -0.1162 -0.0591
90193W        W33246  24.932  24.562  14.044  0.1997 -0.0672  0.0577
90194W        W33247  22.119  23.471  15.682 -0.0227 -0.1612 -0.2257
90195W        W33248   9.661  16.969  20.250 -0.0359  0.0966 -0.5289
90196W        W33249  17.735  27.935   9.114 -0.0431 -0.0202 -0.0749
90197W        W33250  23.346  17.258  27.785 -0.0754  0.2259 -0.2354
90198W        W33251  13.889   7.813  10.435 -0.1247 -0.0050 -0.0763
90199W        W33252  31.794  16.519  17.070 -0.2395  0.2579  0.0395
90200W        W33253  10.603   0.042  17.953  0.0609  0.2377  0.2704
90201W        W33254  22.340  31.269  25.433  0.1192 -0.1246 -0.1398
90202W        W33255  26.286  11.725  23.183  0.0304 -0.0236 -0.2660
90203W        W33256  23.409  32.963  19.901  0.0337 -0.0690 -0.0302
90204W        W33257  30.843  17.277  13.835  0.2972  0.0696 -0.0484
90205W        W33258   9.787  17.633   8.906  0.4348  0.1077  0.0454
90206W        W33259   2.684  28.416  26.641  0.3210  0.0826  0.2168
90207W        W33260   8.539  15.553  15.511  0.0750  0.2004  0.2578
90208W        W33261  16.286  13.057  28.795  0.1608 -0.1667  0.1088
90209W        W33262   6.813  25.605   8.977 -0.0181  0.0468 -0.1262
90210W        W33263   4.088  26.946  15.922 -0.2884 -0.2132  0.2981
90211W        W33264   2.246  14.590  25.430  0.0435  0.1831 -0.1664
90212W        W33265  32.328  13.605  21.713 -0.0462 -0.0833  0.2712
90213W        W33266  15.863   2.072  24.654 -0.0015 -0.3457 -0.0272
90214W        W33267  24.768  26.013  22.284  0.1053 -0.5277  0.0714
90215W        W33268  16.915  15.585  18.372  0.1185  0.0238 -0.1063
90216W        W33269  32.838  14.905   0.243  0.0179  0.1361  0.0502
90217W        W33270  12.277  16.532   1.350  0.0135  0.1224 -0.2022
90218W        W33271  17.769  13.463  16.193  0.2811 -0.1045 -0.0754
90219W        W33272   9.136  28.065  15.658  0.0766  0.3370 -0.0325
90220W        W33273  27.645  18.001  28.092 -0.3533 -0.0944  0.2314
90221W        W33274  21.138  24.346  24.080  0.1579 -0.2393 -0.2818
90222W        W33275   6.444  27.876  24.410  0.0522  0.2273 -0.2401
90223W        W33276  16.847  16.132  19.057  0.0867 -0.3072  0.1347
90224W        W33277  21.935  20.666   1.198  0.2315  0.3026  0.1911
90225W        W33278  23.412  16.481   4.634  0.1623  0.0202 -0.4025
90226W        W33279  16.797  18.288  18.011  0.2987 -0.2587 -0.2506
90227W        W33280  18.915  30.265   5.961  0.0803  0.3086 -0.4069
90228W        W33281  14.611  23.063  21.155 -0.0069 -0.2318  0.5030
90229W        W33282  28.083  32.686  25.517 -0.0644  0.2455  0.1316
90230W        W33283  16.787   1.598  21.299  0.1918  0.0141  0.0959
90231W        W33284  17.955  21.178  22.759 -0.0784 -0.1931  0.3789
90232W        W33285  30.093  27.355   9.072  0.3767  0.2234 -0.0455
90233W        W33286  19.020  22.107  28.100  0.0298 -0.0389  0.1717
90234W        W33287  25.198  34.160   9.469 -0.0624  0.2071  0.0117
90235W        W33288  11.999   4.349   5.746 -0.0449 -0.1404 -0.0892
90236W        W33289  23.246  28.446  22.790 -0.1524  0.0267 -0.1248
90237W        W33290  19.088   3.456  23.254 -0.1152  0.1099  0.3166
90238W        W33291  20.528  25.127  23.794 -0.1942  0.4562  0.0478
90239W        W33292  17.271  15.929  19.318 -0.1363 -0.1754  0.0995
90240W        W33293  25.114  27.239  16.760  0.1999 -0.2851 -0.1913
90241W        W33294  18.034  32.897  17.767 -0.4855  0.1810 -0.0439
90242W        W33295  19.095  32.469   3.102 -0.0652  0.2685  0.0958
90243W        W33296  20.463  19.086   9.105 -0.2412  0.2346  0.3288
90244W        W33297  17.505  16.809  19.650  0.1807  0.1899 -0.3352
90245W        W33298  27.275   8.592   4.211  0.1641 -0.0832 -0.0357
90246W        W33299  20.792  12.865   6.090  0.1189  0.1591 -0.0489
90247W        W33300  13.704  21.382   7.528 -0.1071  0.3200 -0.0686
90248W        W33301  25.585  25.249   0.732  0.0751 -0.3187  0.0570
90249W        W33302  27.671  31.834  22.518  0.1000  0.1976 -0.1076
90250W        W33303  19.779  18.079   3.368  0.3221  0.3086  0.0086
90251W        W33304  20.954  28.770  25.703 -0.2523 -0.0751  0.1342
90252W        W33305  23.394  31.549   6.483  0.1549  0.1413  0.1278
90253W        W33306  20.063  19.703  26.053  0.1953  0.0850  0.3373
90254W        W33307  28.941  16.689  16.426  0.2417  0.0461 -0.3034
90255W        W33308  23.442   5.473  15.089 -0.2205 -0.2891  0.1323
90256W        W33309   0.685  21.237  18.734  0.0146 -0.0758 -0.2391
90257W        W33310  15.774  29.147   3.112 -0.0555  0.2275  0.0298
90258W        W33311  19.732   7.104  28.152 -0.1496  0.0288 -0.1899
90259W        W33312  26.072  22.314  15.459 -0.2302  0.2285  0.0693
90260W        W33313  22.872  15.930  19.896  0.0603  0.1255 -0.1310
90261W        W33314   3.793  19.535  15.206 -0.0563  0.5199 -0.1624
90262W        W33315  17.961  17.434  18.149  0.0642 -0.1477  0.3141
90263W        W33316  29.437  10.978  24.217  0.0811 -0.0197 -0.1535
90264W        W33317  20.605  27.736  10.325  0.0538 -0.0972  0.2287
90265W        W33318  25.500  33.602  27.700  0.0890 -0.2341 -0.1364
90266W        W33319  26.067  24.104  20.025  0.0054  0.0041  0.1968
90267W        W33320  26.270  31.468   2.522  0.1658  0.1298 -0.0825
90268W        W33321  18.663  11.383  21.974 -0.0323 -0.0438 -0.3624
90269W        W33322  17.710  29.802  10.307 -0.0184 -0.1989 -0.0826
90270W        W33323  17.403  16.919  20.844  0.0306 -0.2820 -0.0429
90271W        W33324   8.873   4.419  16.417 -0.0762 -0.4320  0.0732
90272W        W33325   7.002  24.906   3.028  0.2243 -0.2383 -0.0831
90273W        W33326  26.448  19.452  19.067  0.1020 -0.0008  0.2192
90274W        W33327   8.682  13.025   9.892 -0.1736  0.1039  0.2056
90275W        W33328  27.394  11.194  24.638 -0.1546 -0.0413 -0.1725
90276W        W33329  15.869  16.540  18.200  0.0953 -0.1250  0.1267
90277W        W33330   2.243   1.094  28.964  0.2171  0.0089 -0.1858
90278W        W33331  25.535  26.268  18.929  0.1615  0.2092  0.3727
90279W        W33332  10.640  16.099  27.452  0.4742 -0.2166 -0.2004
90280W        W33333  17.802  22.183  25.901 -0.3014 -0.2429  0.0730
90281W        W33334  24.849  26.951   7.712  0.0922 -0.1882  0.0616
90282W        W33335  28.242  32.042  21.370 -0.4697  0.1658  0.0389
90283W        W33336   9.416  24.420  15.250 -0.2095  0.1911 -0.0652
90284W        W33337  18.023  15.629  18.672  0.1759  0.2878  0.0705
90285W        W33338  30.004  25.434  27.939  0.1983  0.0085  0.2628
90286W        W33339  30.845  18.482  14.144  0.1686 -0.1524 -0.1562
90287W        W33340  18.799  17.868  18.238 -0.1074 -0.2358 -0.2060
90288W        W33341  15.291  30.252  24.406 -0.0211 -0.1368  0.0723
90289W        W33342  18.598  30.381   2.071  0.0224  0.1108 -0.2014
90290W        W33343  16.943  16.722  20.476  0.1644 -0.1713 -0.0490
90291W        W33344  19.686  12.360  23.933 -0.0360  0.0364  0.2861
90292W        W33345  19.485  22.885  13.429 -0.3272  0.0983 -0.2532
90293W        W33346  24.913  25.004  23.370  0.1709  0.1630  0.1865
90294W        W33347   6.611  25.494   2.547 -0.0130  0.0964 -0.0173
90295W        W33348  21.895  16.413  28.444  0.2245 -0.2948  0.1591
90296W        W33349  25.263  10.278  18.927  0.2242  0.0161 -0.1459
90297W        W33350   8.140  34.182  16.297 -0.0429  0.0619  0.2079
90298W        W33351  26.561  23.662  26.998 -0.1406 -0.2823  0.3436
90299W        W33352  15.620   9.078  18.503  0.0366  0.0866 -0.3354
90300W        W33353  21.751  32.737  15.766  0.2187 -0.1999 -0.0050
90301W        W33354  22.564   4.762  21.171  0.0300 -0.0361 -0.0970
90302W        W33355  30.900  16.813  22.036  0.0836  0.1209 -0.0542
90303W        W33356  16.203  18.203   8.654  0.2030 -0.0095  0.1876
90304W        W33357  20.053  20.374  20.224 -0.2414  0.2381 -0.2432
90305W        W33358  28.769  14.440  18.714  0.1116 -0.0685  0.2509
90306W        W33359   2.340   3.473   1.853  0.0382 -0.0155  0.0282
90307W        W33360  24.143  21.727  26.434  0.0377  0.0414 -0.2212
90308W        W33361  29.786  16.792  23.522 -0.0963  0.0432  0.0058
90309W        W33362  11.969  26.191   0.136 -0.0706  0.1501  0.2479
90310W        W33363  16.093  17.938  20.118 -0.0562 -0.3008  0.2843
90311W        W33364  18.865  11.843  28.516  0.0736 -0.3724 -0.1870
90312W        W33365  16.675  17.161  18.294  0.2755 -0.0337  0.1415
90313W        W33366  26.592  16.339  24.180 -0.1052  0.0069 -0.0450
90314W        W33367  20.000  11.583   7.394 -0.0211  0.1228  0.2320
90315W        W33368  18.209   5.809  21.436  0.0788 -0.0656  0.2741
90316W        W33369  14.560  11.417  15.742  0.0680  0.2446 -0.1492
90317W        W33370  32.122   3.702  19.830 -0.5477 -0.0829  0.1906
90318W        W33371  34.335   7.995  24.944 -0.0255 -0.1957  0.3745
90319W        W33372  26.219  23.369  15.139  0.3512 -0.2924  0.0929
90320W        W33373  24.150   4.902  19.168 -0.1573 -0.0475  0.2486
90321W        W33374   3.810  14.523  23.308 -0.0585 -0.0853  0.0707
90322W        W33375   6.219  34.409  10.426 -0.1393 -0.3282  0.0076
90323W        W33376  30.259  16.932  18.502 -0.0887  0.0683 -0.0273
90324W        W33377  24.978  12.382   8.705  0.1172  0.1538 -0.0464
90325W        W33378  19.796  18.192  18.378  0.1676  0.2682  0.0031
90326W        W33379  32.436  14.973   6.940 -0.0240 -0.0256  0.1161
90327W        W33380  23.189  13.843  19.079 -0.1072 -0.0664  0.1206
90328W        W33381  25.794  26.735  19.771  0.1678  0.0072 -0.0542
90329W        W33382  24.303  11.637   4.336  0.2834  0.0543 -0.0254
90330W        W33383  10.378  23.913  10.073  0.0459 -0.1990 -0.0457
90331W        W33384  25.315  18.630  23.246 -0.1483  0.1445  0.2588
90332W        W33385   0.901  32.002   6.514 -0.1738 -0.2352 -0.2720
90333W        W33386  25.254   8.641  19.703  0.0762  0.0123 -0.4710
90334W        W33387  32.741  16.232  16.049  0.2141 -0.1077 -0.1401
90335W        W33388  27.406  20.666  26.277  0.0225  0.0333 -0.1409
90336W        W33389  10.339  26.173  15.595  0.1323 -0.0468  0.0573
90337W        W33390  23.917  28.155  16.856 -0.1332 -0.1079 -0.0550
90338W        W33391  20.886  21.647  18.849  0.0831  0.0239  0.4368
90339W        W33392   6.609   3.585   1.288 -0.2681 -0.1604  0.1168
90340W        W33393  17.874   9.909  14.997 -0.0387 -0.0189 -0.0269
90341W        W33394  16.824  18.204  19.205  0.4688 -0.0457 -0.0441
90342W        W33395  23.832  30.655  21.216  0.1623  0.1014 -0.1277
90343W        W33396  22.985  14.960  26.766  0.1370  0.1393  0.1738
90344W        W33397  16.551  16.741  18.634 -0.3750 -0.0435 -0.1292
90345W        W33398  17.486  17.767  17.599 -0.2310  0.0645  0.2261
90346W        W33399  23.641  22.733   6.700  0.1798  0.2178  0.1042
90347W        W33400  28.440   1.527   5.066  0.2184  0.0895 -0.3009
90348W        W33401  16.906  10.417   3.100  0.1946 -0.0009 -0.1323
90349W        W33402  10.860   2.967   7.560 -0.0813 -0.1773 -0.0811
90350W        W33403  12.662  27.552  15.861 -0.1557 -0.3058 -0.0788
90351W        W33404  25.631  15.981  21.190  0.0438 -0.2597  0.3228
90352W        W33405  29.131  17.451   2.596 -0.1505  0.4424 -0.2924
90353W        W33406  25.527  21.770   0.437  0.1454  0.0774  0.2155
90354W        W33407  12.585  21.404  15.013  0.0115  0.1290  0.1512
90355W        W33408  12.783  16.490  13.971  0.1241  0.0588  0.0932
90356W        W33409  20.315  11.723  20.842  0.3521 -0.0104 -0.1200
90357W        W33410  34.172  12.740  18.410  0.2162  0.1143  0.0882
90358W        W33411  32.452  19.575  21.820 -0.0538  0.0781 -0.3248
90359W        W33412  15.270  18.687  18.655  0.0553  0.1199  0.1809
90360W        W33413  28.715  13.482  24.550 -0.2699  0.0101  0.1320
90361W        W33414  27.541  27.076  21.841  0.1534  0.0618 -0.0666
90362W        W33415  27.822  17.980  22.955  0.0875 -0.1522 -0.0012
90363W        W33416  14.736  29.065  15.260  0.2970  0.0816 -0.0462
90364W        W33417   0.164  17.753  24.047 -0.3042 -0.4255  0.2480
90365W        W33418  22.262  25.393  27.314 -0.3741 -0.0103 -0.1082
90366W        W33419  18.628  15.505  12.906  0.1756  0.1369  0.0036
90367W        W33420  27.318  18.174  16.423 -0.2259 -0.0153 -0.3497
90368W        W33421  24.291  13.502  13.839  0.4248 -0.1604  0.1454
90369W        W33422  23.987  26.559   4.680 -0.0048  0.0711 -0.3139
90370W        W33423   5.253  23.554  27.058  0.0992 -0.2086  0.0512
90371W        W33424  16.479  15.914  20.091 -0.3335 -0.2625  0.0112
90372W        W33425  19.978   1.576  19.459  0.0992  0.0544 -0.1289
90373W        W33426  15.812   6.258  24.238 -0.4092 -0.1717 -0.0758
90374W        W33427   3.842  24.214  15.625  0.0419 -0.0578 -0.2248
90375W        W33428  21.663  28.169   7.050  0.1180 -0.2887  0.2848
90376W        W33429  29.989   7.468  17.195 -0.0472  0.0153 -0.1500
90377W        W33430   2.823  21.056  26.782 -0.0632  0.1780  0.1966
90378W        W33431  23.353  22.622   2.166  0.0170 -0.1745  0.1633
90379W        W33432  18.313   4.510  15.869 -0.2866 -0.0852 -0.0983
90380W        W33433  13.517  30.412  16.289  0.0560  0.0947  0.0629
90381W        W33434  16.836  15.578  19.306  0.1795  0.0640 -0.1501
90382W        W33435  31.862  13.190  17.311  0.1839  0.2370 -0.1574
90383W        W33436  17.099  15.544  18.874  0.0708 -0.0682 -0.1175
90384W        W33437  20.953  23.638  17.553  0.2481  0.0478 -0.1742
90385W        W33438  23.698  28.709  25.123  0.1566  0.4226  0.2904
90386W        W33439  33.404  23.355  27.465  0.0549  0.1108  0.3291
90387W        W33440  14.619  28.361  23.276 -0.0677 -0.0643  0.1114
90388W        W33441  30.058  17.491  18.839 -0.2462 -0.1216  0.0706
90389W        W33442  17.076  17.175  20.607  0.2397  0.2457  0.0690
90390W        W33443  20.629  30.294  20.620  0.1330  0.0327 -0.0745
90391W        W33444   0.133  24.873  28.476 -0.1295 -0.2061 -0.1622
90392W        W33445  30.655  11.312  21.568  0.0959  0.0069  0.0492
90393W        W33446  13.405  26.005   6.813  0.2135 -0.0907 -0.0246
90394W        W33447   5.900  23.290   3.877  0.1737 -0.3742  0.0356
90395W        W33448  27.541   3.634  14.681  0.0369 -0.0644 -0.2236
90396W        W33449  22.903   3.347   3.576 -0.0793 -0.0981  0.5252
90397W        W33450  18.569  16.667  19.224 -0.0035  0.2538 -0.0760
90398W        W33451  21.971   1.634   2.771  0.0218 -0.1095  0.0286
90399W        W33452  16.287   6.560   2.754  0.3070  0.0897 -0.1927
90400W        W33453  26.129  26.468  27.273  0.1393 -0.3837  0.0069
90401W        W33454  19.380  17.069  13.275  0.0185  0.0178 -0.0614
90402W        W33455  24.270  33.627  15.310 -0.0559  0.1779  0.0808
90403W        W33456  17.466  21.041   0.480  0.0526 -0.0592  0.1353
90404W        W33457  23.259  16.336  26.309  0.3074  0.0739 -0.0656
90405W        W33458  24.722  27.949  27.367  0.2057 -0.2474 -0.0615
90406W        W33459   7.932   1.179  15.858  0.0296 -0.3732 -0.3151
90407W        W33460  30.426   9.964  17.068  0.0767  0.1983 -0.1117
90408W        W33461  29.041  22.268  28.509  0.1671 -0.4146 -0.0064
90409W        W33462   0.537  29.929  19.220 -0.1546 -0.2773  0.0179
90410W        W33463  32.245   9.935  16.421  0.0134 -0.0773 -0.1960
90411W        W33464   1.689  33.765  23.094  0.1925  0.3259 -0.3535
90412W        W33465  25.609  20.249   9.551  0.1200 -0.1725 -0.1839
90413W        W33466  18.188   3.888   3.102  0.0902  0.0627 -0.2877
90414W        W33467  24.456   8.318   8.415  0.1291 -0.1824 -0.2055
90415W        W33468   1.616  19.071  18.722 -0.0612  0.1281 -0.0779
90416W        W33469  17.501  15.525  18.439 -0.1396  0.3160 -0.2148
90417W        W33470  33.300  24.066  16.221 -0.0959  0.3986 -0.1049
90418W        W33471  21.238  14.263  17.154  0.0630  0.0573  0.1273
90419W        W33472  16.776  28.942   7.343  0.1652  0.1053 -0.0559
90420W        W33473   0.712  16.398  15.903  0.0416 -0.3038  0.0130
90421W        W33474  25.250  12.990   4.260 -0.3057  0.1362 -0.2354
90422W        W33475  27.010  19.433   0.062 -0.0557  0.0085 -0.0635
90423W        W33476  17.816  26.498   6.508 -0.4322  0.0631  0.0719
90424W        W33477  16.075  16.505  18.665  0.0440  0.4120  0.0505
90425W        W33478  26.213  20.701  14.915 -0.1561  0.2393 -0.3679
90426W        W33479  14.532  23.896   0.835 -0.0265  0.2313  0.2740
90427W        W33480  24.636  24.235   9.902  0.1406  0.1517  0.0190
90428W        W33481  10.685   7.651   4.285 -0.1924 -0.0828  0.0832
90429W        W33482   4.109  17.532  18.382  0.3200 -0.1356 -0.2955
90430W        W33483  23.752  18.201  21.713  0.2699 -0.1774 -0.0982
90431W        W33484   9.059  17.133   3.900 -0.2352  0.2496 -0.0972
90432W        W33485  25.117  15.240  14.638 -0.0423 -0.2097  0.1689
90433W        W33486  25.937  10.486   0.039 -0.1164  0.1313  0.1212
90434W        W33487  26.175  24.568  22.152  0.0147  0.1504  0.0506
90435W        W33488  27.425   3.280  13.996  0.1713  0.0200  0.0344
90436W        W33489   1.579   2.984   4.557 -0.1842  0.0864 -0.2612
90437W        W33490  16.058  18.852  18.587  0.0237 -0.2038 -0.1923
90438W        W33491  23.385  21.672  23.830  0.3766  0.0500 -0.0586
90439W        W33492  23.195  15.222  21.706 -0.2277  0.0252  0.1561
90440W        W33493  26.215   7.303  15.560  0.0465  0.0573  0.2031
90441W        W33494  29.360  14.411   3.131  0.1435  0.2839 -0.0368
90442W        W33495  18.529  21.241  28.201 -0.1181 -0.2247  0.2268
90443W        W33496  23.589  11.472  20.089 -0.0527  0.2265  0.1673
90444W        W33497  18.442  14.863  24.605  0.1494 -0.0222 -0.0594
90445W        W33498  30.702  10.725  19.847  0.1061 -0.1273 -0.1982
90446W        W33499   2.493   2.700  14.396  0.1943  0.0556  0.0029
90447W        W33500  24.727   6.304  21.791  0.0029  0.1166  0.2373
90448W        W33501  20.469  21.197   0.803  0.2458 -0.1979  0.0140
90449W        W33502  20.324  20.142  22.502 -0.0866  0.1047  0.0958
90450W        W33503  29.025  27.310  25.202  0.1479  0.0139  0.0997
90451W        W33504  20.474   9.857  15.061  0.1789 -0.2193 -0.1216
90452W        W33505  34.458  23.346   6.838  0.2080  0.2492 -0.0297
90453W        W33506  25.141   3.193  20.312 -0.0207 -0.1034  0.2123
90454W        W33507  26.917  29.966   6.456  0.0488  0.1822  0.1206
90455W        W33508  21.849  14.127  21.184  0.1253  0.2218 -0.2427
90456W        W33509  22.084  12.802  19.618  0.0324 -0.1625  0.0997
90457W        W33510  16.582  24.741   0.908 -0.3096 -0.1387  0.1866
90458W        W33511  14.713  25.316  29.090  0.1907  0.1167 -0.2669
90459W        W33512  24.469  17.794   0.541 -0.0823 -0.0748 -0.0496
90460W        W33513  16.267  16.975  19.988  0.0783  0.0165 -0.2180
90461W        W33514  25.432  31.603  19.061  0.1873  0.0467  0.1595
90462W        W33515  26.823  10.497  24.457  0.0464 -0.1975 -0.0904
90463W        W33516  15.752   6.071  26.671 -0.2505 -0.0823  0.3191
90464W        W33517  21.352   7.973  23.820  0.4094 -0.1275 -0.0674
90465W        W33518  30.728  17.630  19.340  0.0354 -0.1579 -0.3221
90466W        W33519  11.044  22.596   9.031 -0.1238 -0.0979  0.0788
90467W        W33520  14.039   8.817  25.364  0.2804 -0.0597 -0.2170
90468W        W33521  30.520  15.746   0.843  0.0916 -0.3448 -0.1370
90469W        W33522  18.443   1.717  25.577 -0.4269 -0.1404 -0.0260
90470W        W33523  22.370  10.601  14.885 -0.1054 -0.0306 -0.1277
90471W        W33524  23.443  19.856  24.549  0.1969 -0.0858  0.0235
90472W        W33525  14.707  25.528   3.963  0.1585  0.0377  0.0873
90473W        W33526  24.346  21.902   1.390 -0.1203 -0.1627 -0.0381
90474W        W33527  17.402   2.393  27.798  0.1649  0.2225  0.1023
90475W        W33528  28.057  29.893  17.503 -0.0187  0.2071 -0.0501
90476W        W33529  27.435  27.515  23.550 -0.0929 -0.0123  0.3759
90477W        W33530  21.372  29.274  21.176  0.0888  0.0448 -0.5499
90478W        W33531  22.146  11.653  22.317 -0.0079  0.0452  0.0959
90479W        W33532  21.058   9.366   7.241 -0.1568  0.0707  0.1684
90480W        W33533  12.308  10.989  23.862  0.1783 -0.0999 -0.2587
90481W        W33534  22.001   4.270   3.067  0.1970  0.3903  0.1447
90482W        W33535  30.003   5.965  22.105  0.1814 -0.0161 -0.2431
90483W        W33536  18.967  18.911  23.551 -0.1118  0.2702  0.0989
90484W        W33537   9.608  14.442  17.244 -0.0445  0.0240 -0.0908
90485W        W33538  34.448  34.381   8.338 -0.1676  0.5495  0.0699
90486W        W33539  24.340   2.530   1.025 -0.0710 -0.0862 -0.2021
90487W        W33540   9.354  13.213  27.106 -0.2649 -0.0196 -0.1070
90488W        W33541  16.233  31.002  23.823 -0.1903  0.2287  0.2145
90489W        W33542  18.623  18.412  23.657  0.3336  0.3545 -0.3050
90490W        W33543  34.446  22.137  22.910 -0.0014 -0.3007  0.1150
90491W        W33544   4.566   8.187   5.627  0.0232 -0.3763 -0.0985
90492W        W33545   3.335   2.951  21.182 -0.3596 -0.0035  0.3181
90493W        W33546   1.868  26.481  23.874 -0.0393 -0.1379 -0.2041
90494W        W33547  12.572   4.234   1.407 -0.0081 -0.1229 -0.1931
90495W        W33548  22.094  16.631  25.391  0.1527  0.0316  0.0444
90496W        W33549  22.864  17.097   6.417 -0.2398 -0.2717  0.0417
90497W        W33550  10.584  30.864   6.060  0.1478  0.0752  0.0033
90498W        W33551  34.629  17.262  14.866  0.0837  0.3284  0.0918
90499W        W33552   0.927  14.343  14.260 -0.3795 -0.0116 -0.0289
90500W        W33553  28.622  23.279  23.569  0.2552  0.0099  0.1483
90501W        W33554  12.858  14.133   4.111 -0.0010  0.1903  0.1359
90502W        W33555  22.683  14.856  14.870 -0.1863 -0.0437 -0.1274
90503W        W33556  32.501  25.024   0.723  0.2651  0.0142 -0.2455
90504W        W33557  18.563  10.477   4.027 -0.2171  0.1288  0.1013
90505W        W33558  18.449  14.957   6.550 -0.2057 -0.0610 -0.0672
90506W        W33559   0.080  18.159   6.342  0.1728 -0.0428 -0.0451
90507W        W33560   0.508  21.191   5.777  0.1305 -0.0808  0.2842
90508W        W33561  22.020  15.314  28.332 -0.0076 -0.1234  0.0494
90509W        W33562  23.084  24.229  27.132  0.0123  0.2322 -0.0982
90510W        W33563  20.314  15.677  22.999 -0.2282 -0.0507 -0.0286
90511W        W33564  17.043  15.906   8.972  0.1248 -0.3120  0.0126
90512W        W33565  18.341  28.730  27.101  0.1380 -0.0290  0.1058
90513W        W33566   0.439  17.899   6.629  0.3570  0.1348  0.2334
90514W        W33567  12.655  10.769  18.632 -0.0741  0.0607  0.1858
90515W        W33568  30.122  10.173   5.321 -0.1339  0.1094 -0.0262
90516W        W33569  13.935  17.713   2.384  0.0734  0.2274 -0.1341
90517W        W33570  19.960  14.751  20.544  0.2198 -0.0759  0.0438
90518W        W33571   4.320  18.552   0.325 -0.0344  0.0403 -0.1333
90519W        W33572  32.657  20.812  23.378 -0.0808  0.0887  0.1181
90520W        W33573  27.331  22.024  27.823 -0.0387 -0.0404  0.3055
90521W        W33574  20.235  13.559   6.292 -0.1277  0.0025  0.1205
90522W        W33575  23.837   7.263  14.336 -0.1432  0.1493 -0.3875
90523W        W33576  17.881   5.345   6.270 -0.1703 -0.0602 -0.1522
90524W        W33577  14.823  24.049   3.704 -0.0279 -0.1746  0.0771
90525W        W33578  17.945  18.403  19.575 -0.0608 -0.1060  0.0474
90526W        W33579  26.485  17.296  17.503 -0.0979  0.5263  0.1307
90527W        W33580  32.842  24.554  25.116 -0.0909  0.0448 -0.1281
90528W        W33581  30.957   9.385  24.707 -0.0692  0.2251  0.0516
90529W        W33582  32.043   9.785   7.120 -0.0168 -0.1194 -0.0997
90530W        W33583  34.471  27.892   0.457 -0.1150  0.2261 -0.0331
90531W        W33584  33.920  19.878  27.636 -0.0850 -0.0883  0.1822
90532W        W33585   7.116  16.652  16.262  0.0606  0.1462 -0.3136
90533W        W33586  14.831  18.363  14.034 -0.0346 -0.0546 -0.4300
90534W        W33587  16.260  25.639  20.607 -0.0738 -0.0806  0.1880
90535W        W33588  21.497  11.200   3.453 -0.1130  0.3885  0.2922
90536W        W33589  15.307  17.468  22.684  0.4416 -0.2214 -0.2532
90537W        W33590  17.696  31.425  19.900 -0.1817 -0.0316  0.2700
90538W        W33591   4.325  25.788  26.809  0.1479  0.1166  0.2523
90539W        W33592  33.227  13.015  20.369 -0.0889  0.0523 -0.0331
90540W        W33593  27.446  24.983   3.361 -0.0642  0.0883  0.3827
90541W        W33594  18.557  20.528   8.355  0.1005 -0.2327  0.2044
90542W        W33595  14.285  11.439  17.749 -0.1889 -0.2362 -0.0007
90543W        W33596   4.754  15.478  19.012 -0.0624  0.0004 -0.1354
90544W        W33597  20.442   6.242   5.575 -0.1585 -0.1547 -0.3929
90545W        W33598   3.005  19.975  26.649  0.1873  0.0029 -0.1283
90546W        W33599  32.639  25.942  26.812 -0.0074 -0.1492 -0.4495
90547W        W33600  26.398  33.705  20.302 -0.1126  0.0416  0.3624
90548W        W33601  27.377   8.836   9.574  0.3346  0.0185  0.0858
90549W        W33602   6.168  33.861   4.136 -0.3534  0.0654  0.3732
90550W        W33603  12.849  27.259  18.670  0.1768 -0.1240 -0.0900
90551W        W33604  13.940  16.233  14.003 -0.0477 -0.2153  0.1460
90552W        W33605  27.056  20.391   1.918  0.0164 -0.0242  0.3193
90553W        W33606  30.646  16.448  17.380 -0.0021  0.2856 -0.1490
90554W        W33607  24.813  17.706   2.891  0.1029  0.3089  0.4270
90555W        W33608  25.008   9.534  19.939 -0.1278  0.1806  0.2667
90556W        W33609  12.365  17.232  24.797 -0.0627  0.0872  0.0200
90557W        W33610   2.536  13.151   3.163  0.0709  0.1837  0.3038
90558W        W33611  21.607  21.536  23.845  0.0038 -0.0175  0.1771
90559W        W33612   0.102  32.526  22.295 -0.1878 -0.0841  0.2310
90560W        W33613  22.546  10.179   1.001 -0.3160  0.0467  0.0410
90561W        W33614  25.843  18.297   6.165 -0.2501 -0.0078 -0.0326
90562W        W33615  27.386  13.379  20.915  0.1734 -0.1558  0.1122
90563W        W33616  33.294  20.447   3.622 -0.1051  0.1957 -0.0310
90564W        W33617  12.443   6.319  16.058  0.0099 -0.0831 -0.1239
90565W        W33618  15.786   8.768   5.953 -0.2096  0.3902  0.0416
90566W        W33619  26.880  19.095  28.436 -0.2411 -0.2974 -0.1901
90567W        W33620  23.295  22.751   7.041  0.0027  0.1343 -0.0469
90568W        W33621  10.381  25.153  22.550 -0.1265 -0.1945 -0.1410
90569W        W33622  22.440   7.521   1.234  0.2339  0.2081 -0.1709
90570W        W33623  18.395  18.238   2.550  0.2930 -0.0880  0.0443
90571W        W33624  26.885  14.467  10.326  0.0720 -0.1718 -0.2801
90572W        W33625  26.698  20.872  22.077  0.0375 -0.0778  0.1287
90573W        W33626  25.141  14.411   6.170 -0.3581 -0.0787 -0.0004
90574W        W33627  33.574   6.366   0.495 -0.1583  0.0566 -0.1268
90575W        W33628  12.121   3.937   6.841  0.0403  0.0158 -0.3783
90576W        W33629  13.724   1.708  23.772  0.0491  0.1037  0.1735
90577W        W33630  11.260  22.974  28.071  0.2791  0.2374 -0.0580
90578W        W33631  11.159  23.831  26.595 -0.0904 -0.2387 -0.1274
90579W        W33632  21.491   9.502  27.602 -0.0718 -0.0474 -0.2657
90580W        W33633  31.110  20.685   0.597 -0.1527 -0.0408 -0.0392
90581W        W33634  27.261   1.770   3.746  0.2274 -0.0583 -0.0522
90582W        W33635  24.243  12.438   0.205  0.0529  0.0085  0.2363
90583W        W33636  33.969   6.409  23.735  0.2685 -0.2116  0.2541
90584W        W33637  11.064  11.018  17.530 -0.0172 -0.1211  0.1552
90585W        W33638  28.532  20.630  23.973 -0.1562 -0.0695 -0.0487
90586W        W33639  13.862   5.774   0.252 -0.1616 -0.0192 -0.0104
90587W        W33640  23.753  15.387  28.128  0.1947 -0.0868  0.1549
90588W        W33641  24.055  11.722   9.414 -0.1963 -0.1306  0.4452
90589W        W33642  16.832  24.321   2.294  0.3278  0.0707 -0.0339
90590W        W33643  24.793  12.156   0.493  0.2767 -0.3049  0.0202
90591W        W33644   2.822  10.524  18.497  0.1029  0.1087  0.1854
90592W        W33645  31.603  14.961  21.370  0.0519 -0.0005  0.0595
90593W        W33646  17.543  28.258   3.645  0.0949 -0.0293 -0.0397
90594W        W33647  23.558  24.814   1.895 -0.2054  0.0990  0.0872
90595W        W33648  18.231  32.322  28.465 -0.3053 -0.2973  0.2842
90596W        W33649  14.057  15.337  27.666 -0.0192  0.0811  0.0719
90597W        W33650   2.588  18.953   7.881 -0.0518 -0.3762 -0.3335
90598W        W33651  15.635   8.023  22.942  0.2608 -0.0439  0.0721
90599W        W33652  17.214  16.782   7.768  0.0623 -0.1988 -0.0495
90600W        W33653  14.057  10.468  19.474  0.1886  0.1249  0.1758
90601W        W33654  12.958  13.250  20.948 -0.1629 -0.1439  0.2540
90602W        W33655  20.959  14.393   9.769  0.1725  0.2606  0.2608
90603W        W33656  20.070  11.307  18.347  0.2332  0.0306  0.0641
90604W        W33657   2.719  22.549  27.436  0.0044 -0.3564  0.1581
90605W        W33658  14.323  12.189  10.677  0.4542  0.2305  0.2625
90606W        W33659  12.169  27.841   3.751 -0.1923 -0.0387  0.0723
90607W        W33660   1.417  24.901   1.869  0.3923 -0.0448  0.0313
90608W        W33661  30.708  19.048  13.253  0.0473  0.2852  0.0327
90609W        W33662  22.532  13.027   7.320  0.0291 -0.0324 -0.0397
90610W        W33663  17.629  27.322   7.067  0.1607  0.0280  0.0958
90611W        W33664  18.190   6.521  27.678 -0.2465 -0.1546  0.1289
90612W        W33665  34.619  23.830  28.064 -0.0995 -0.0186  0.2884
90613W        W33666  29.995  10.855  27.815 -0.0368  0.0708  0.2891
90614W        W33667   4.088  18.211   8.880  0.0367 -0.1120 -0.1581
90615W        W33668  19.085  15.753   7.142  0.0341 -0.2392 -0.0017
90616W        W33669  17.193  32.430   7.274  0.3265 -0.0100  0.0165
90617W        W33670  28.407  13.461   5.071 -0.3152 -0.2160 -0.3461
90618W        W33671  20.696  13.548   0.006 -0.1923  0.1335 -0.1582
90619W        W33672  23.115  16.887  23.229 -0.4097  0.1467 -0.0715
90620W        W33673  33.236   4.854   8.667  0.1363 -0.2286  0.6158
90621W        W33674  16.983   8.406   5.283 -0.0288  0.2615  0.2727
90622W        W33675  20.874  15.586  27.036 -0.2334 -0.5616  0.4676
90623W        W33676  21.746  10.162   4.515 -0.2491  0.2651  0.0894
90624W        W33677  19.696  20.840  17.244 -0.0373  0.2243  0.1463
90625W        W33678  19.810   9.842  21.258  0.0726  0.0670 -0.0446
90626W        W33679  22.772  28.369  17.638  0.2330  0.1436 -0.0943
90627W        W33680  24.884   4.415   2.639 -0.0186 -0.1545  0.0418
90628W        W33681  23.714   8.006  18.913  0.3595  0.5788 -0.1847
90629W        W33682  18.819  20.032   5.785  0.3767 -0.1540  0.1439
90630W        W33683  24.778  12.692  16.250  0.1235 -0.2092 -0.1276
90631W        W33684  24.741  19.301  17.421 -0.0284 -0.0008  0.0442
90632W        W33685  19.674   8.146  23.989 -0.4096  0.1946 -0.0496
90633W        W33686  18.770  21.491  16.432  0.1119  0.1327  0.0205
90634W        W33687   4.363  12.967   1.010  0.2813 -0.1681  0.0198
90635W        W33688  31.679  29.477  27.048  0.0902 -0.1369 -0.0125
90636W        W33689   2.702   5.344  20.456  0.2265  0.3675 -0.0511
90637W        W33690  23.315   3.114  15.711  0.1673  0.3348 -0.1265
90638W        W33691  29.439  19.955  14.373  0.0468  0.3034  0.0221
90639W        W33692  14.440  32.311   5.823  0.0060  0.0000  0.3043
90640W        W33693   4.250  23.225  17.191  0.2852  0.1294 -0.0466
90641W        W33694  29.452  17.032   6.318 -0.1501  0.0754  0.1171
90642W        W33695  20.280  12.380   6.828  0.1799 -0.1467 -0.1220
90643W        W33696  21.343   5.860  24.028 -0.2224 -0.0218  0.0716
90644W        W33697   9.086   2.316  26.183 -0.1087  0.2771 -0.2830
90645W        W33698  17.419  11.791  21.535  0.0599 -0.3096  0.1882
90646W        W33699  11.293  17.019   5.205 -0.0736 -0.0833  0.1538
90647W        W33700  23.938  23.315   0.578 -0.1151  0.0321 -0.4367
90648W        W33701  21.563   9.748  16.372  0.0340  0.1069 -0.2911
90649W        W33702  25.724  13.453   3.201 -0.1877 -0.1173  0.0082
90650W        W33703  15.754   2.848   7.843 -0.2760 -0.2322  0.1803
90651W        W33704  30.954  28.514  24.599 -0.1621 -0.1687 -0.1415
90652W        W33705   4.423   4.550  24.222  0.0879 -0.0205  0.1074
90653W        W33706   4.669  10.659  19.535  0.1673  0.1189 -0.1313
90654W        W33707  27.549   8.356   9.371  0.1661  0.0183 -0.1404
90655W        W33708  18.561  13.850   2.496 -0.0301  0.0008 -0.2174
90656W        W33709  21.450  23.560  15.956  0.0356 -0.2669  0.0370
90657W        W33710   0.851  19.218   4.576  0.1888  0.0105  0.3323
90658W        W33711  18.251   8.570  21.899  0.1432  0.0607 -0.1156
90659W        W33712  22.319  10.343  24.986  0.0821 -0.2086 -0.1502
90660W        W33713  15.408   9.904  28.398  0.0546  0.0744 -0.1596
90661W        W33714   2.758  21.794   4.601 -0.0447 -0.1644 -0.0085
90662W        W33715  21.961  16.357  21.780 -0.3029  0.1304 -0.0348
90663W        W33716   6.675   1.236   8.408 -0.1946 -0.0602  0.0303
90664W        W33717  19.170   9.443  16.037  0.1181  0.4689  0.1797
90665W        W33718   5.093  23.318   2.019 -0.1673 -0.2790  0.1536
90666W        W33719   5.480  10.023   0.376 -0.0688 -0.1234 -0.1451
90667W        W33720  15.747  10.064  23.372  0.3765 -0.3980  0.0647
90668W        W33721  24.959  21.807  26.758  0.1056 -0.2222  0.2913
90669W        W33722  33.893  17.740  23.751  0.0372  0.0106  0.2110
90670W        W33723  20.759  17.779   2.634 -0.0913 -0.1342  0.1915
90671W        W33724  25.685  24.038  28.641  0.1565 -0.0101 -0.1158
90672W        W33725  31.927   4.616   8.578  0.5500 -0.0995 -0.1211
90673W        W33726  22.478  10.626  22.095 -0.1763  0.0469  0.0815
90674W        W33727  20.188   0.072   0.210 -0.1150 -0.2485 -0.0479
90675W        W33728  34.328  18.592  22.248 -0.0194 -0.0016 -0.2354
90676W        W33729  24.854  16.902  13.380  0.1683 -0.0336  0.1255
90677W        W33730  15.789  28.636  23.558 -0.2291  0.1037  0.2003
90678W        W33731   9.608   9.916   1.875 -0.1844 -0.2778 -0.0752
90679W        W33732   7.899  15.487  22.681  0.0344 -0.1068 -0.2548
90680W        W33733  22.487  14.639  26.397  0.2560  0.0829 -0.0795
90681W        W33734   7.280  23.486  16.156 -0.0778  0.1314 -0.0234
90682W        W33735  25.824   0.470   0.919  0.0144  0.1515  0.2448
90683W        W33736  27.230  19.047   1.043 -0.2056  0.0958  0.0505
90684W        W33737   4.637  18.183   6.836 -0.0223  0.0194  0.2534
90685W        W33738  20.783  25.488  22.690 -0.0627 -0.0364  0.1103
90686W        W33739  15.037   6.551  26.627  0.1743  0.1643  0.4639
90687W        W33740  17.461   8.075  15.823 -0.0309 -0.0615 -0.3107
90688W        W33741  26.241   4.231  24.724  0.2435 -0.3532 -0.3198
90689W        W33742  13.897   4.913   9.355  0.0471 -0.4794  0.1277
90690W        W33743   9.993  27.557  27.031  0.4511  0.2224 -0.1259
90691W        W33744  24.836  18.701  16.244  0.0019  0.2049  0.0451
90692W        W33745  21.780  22.700  15.648  0.0644  0.0750 -0.2730
90693W        W33746   6.592  21.966   4.052  0.4229  0.1693 -0.0492
90694W        W33747  25.184   6.101  25.426 -0.0582 -0.2214  0.0085
90695W        W33748   5.864  29.403  27.773 -0.2250 -0.0315  0.1858
90696W        W33749  27.475  23.808  21.890 -0.0178 -0.0200 -0.1410
90697W        W33750   4.346  28.587   1.348 -0.0554  0.0405  0.1013
90698W        W33751  28.287  26.783   9.755 -0.2483 -0.0747 -0.2976
90699W        W33752  32.243   4.101  23.150 -0.2333  0.4219  0.2417
90700W        W33753  11.885  13.435   1.849  0.1899  0.2214 -0.0620
90701W        W33754  24.651   4.517   8.953 -0.0442 -0.0358 -0.0875
90702W        W33755  11.037  32.327  28.812 -0.2696 -0.0876 -0.4590
90703W        W33756  29.957  21.681  17.986  0.0680 -0.0819  0.0235
90704W        W33757  32.407   7.815   0.348 -0.1848  0.1309  0.1839
90705W        W33758  25.004  24.540   3.567  0.0190 -0.0483  0.1818
90706W        W33759   9.211  12.796   5.407 -0.2752 -0.0574  0.0918
90707W        W33760  12.736  15.522  16.595 -0.3874  0.5923 -0.4472
90708W        W33761  15.237  20.822   6.126  0.3259  0.3503 -0.2850
90709W        W33762  18.282  31.353  25.409  0.0315  0.0983  0.1935
90710W        W33763  21.683  33.750   5.294 -0.0748 -0.1196  0.1472
90711W        W33764   1.372   9.775  25.374  0.0475  0.1599 -0.0921
90712W        W33765  23.421   3.618   0.512 -0.1094  0.1499  0.0213
90713W        W33766  28.364   1.423   1.529 -0.1739  0.1434  0.2041
90714W        W33767  30.488  23.325  28.885 -0.0287 -0.0449  0.0561
90715W        W33768  26.189  14.265  27.467  0.2659  0.0283  0.0336
90716W        W33769  22.572  22.805  18.966  0.1906  0.1245 -0.0045
90717W        W33770   3.230   7.068  27.481  0.2034 -0.0527 -0.1251
90718W        W33771  12.832  18.611   0.879 -0.1326  0.2527 -0.0593
90719W        W33772  17.572  22.156   5.618  0.0345  0.1676  0.3039
90720W        W33773  30.474  31.072   6.581  0.0977  0.4985  0.0380
90721W        W33774  12.174   8.298  19.728  0.0879 -0.1514 -0.0570
90722W        W33775  30.231  24.402  18.339  0.1603  0.0517 -0.0691
90723W        W33776  18.927  29.761   6.941 -0.0674  0.1610  0.3489
90724W        W33777  24.224  15.138  24.610  0.1310 -0.0981  0.1533
90725W        W33778  21.377  24.133   1.002 -0.1172 -0.1232 -0.3060
90726W        W33779   8.556   7.734  16.043  0.0191  0.3072  0.2241
90727W        W33780  26.831  27.326   4.432  0.3894  0.0051 -0.2408
90728W        W33781  26.431   9.221   9.983  0.2271 -0.2973 -0.0617
90729W        W33782  21.845  23.902   7.860  0.3731  0.0197  0.0857
90730W        W33783   4.546  17.325  25.428 -0.2262 -0.0890  0.1131
90731W        W33784  18.261  24.106   3.071 -0.3932  0.2676 -0.2936
90732W        W33785  31.607   4.534  18.424  0.4184  0.0019  0.0061
90733W        W33786  18.302   8.787   8.190 -0.1542 -0.0673  0.0205
90734W        W33787  16.310  27.163  14.505  0.0167  0.1789 -0.1738
90735W        W33788   0.903   2.472  25.270  0.1179  0.1977 -0.1033
90736W        W33789  14.044  13.569   8.646 -0.3478 -0.1762  0.0589
90737W        W33790   3.968  16.062  25.372  0.1496 -0.0358  0.2907
90738W        W33791  15.545  31.162  21.645  0.2211 -0.0037 -0.0836
90739W        W33792  23.158  24.418   8.750  0.1717  0.0153 -0.0341
90740W        W33793   6.238  16.639   4.206  0.1309  0.0060 -0.4013
90741W        W33794  22.694  32.086  22.394  0.0949 -0.0690 -0.0270
90742W        W33795  26.038  13.589   9.641 -0.2126 -0.0998  0.3079
90743W        W33796  26.306   0.914  27.018 -0.0476 -0.1223 -0.1597
90744W        W33797  23.773  21.862   1.421 -0.3242  0.0883  0.0841
90745W        W33798  21.593  32.837   9.944  0.0183  0.1307 -0.0056
90746W        W33799   2.161  28.239   6.105  0.0592  0.1034  0.1481
90747W        W33800   1.282  24.488  18.548  0.0019  0.0189 -0.2304
90748W        W33801   4.895  12.958  20.398  0.2060  0.1516 -0.1283
90749W        W33802   3.185  18.735   4.351 -0.1936  0.0562  0.2113
90750W        W33803  23.625  15.205  20.702  0.3326  0.2357  0.1797
90751W        W33804  12.094  10.806   2.606 -0.2446 -0.0014 -0.2015
90752W        W33805  31.876  22.461  27.629 -0.2795  0.2257  0.1837
90753W        W33806   3.426  33.674   3.618  0.1107  0.3547 -0.3514
90754W        W33807  18.062  11.851   3.513 -0.3377  0.1862  0.0027
90755W        W33808   5.911   4.587  20.081  0.0350 -0.0134 -0.1411
90756W        W33809  24.731  22.566   4.903  0.0329 -0.2301  0.1381
90757W        W33810  11.849  17.835  28.131  0.1579  0.2347 -0.2863
90758W        W33811  19.702  21.002  10.165  0.2067 -0.1020  0.1390
90759W        W33812  26.908  15.759  15.130  0.0270 -0.0137 -0.0999
90760W        W33813  22.666  15.507   3.565 -0.3943  0.0188  0.4396
90761W        W33814  16.769  28.095   5.280 -0.1637  0.1852  0.0470
90762W        W33815  10.376   6.211  27.621  0.0494 -0.1529 -0.2109
90763W        W33816   7.472  24.809  13.022  0.0893 -0.3949  0.3267
90764W        W33817  17.385   4.760   5.213  0.0855 -0.0360 -0.0826
90765W        W33818  18.138  19.697  27.749  0.2429 -0.0025  0.0684
90766W        W33819  21.842   4.100   2.626 -0.0046  0.1153 -0.1854
90767W        W33820  26.840  20.350   1.480  0.5555  0.0481 -0.0674
90768W        W33821  18.798   8.264   5.643 -0.3232  0.1654 -0.0060
90769W        W33822  25.263  20.476   7.700 -0.1992  0.2325 -0.1418
90770W        W33823  14.114  16.065  10.423 -0.2840 -0.2777  0.3427
90771W        W33824  23.709  16.126  26.385  0.0408 -0.2324  0.1146
90772W        W33825  11.898  11.359  18.871 -0.3836 -0.0212  0.2256
90773W        W33826  20.143  26.689  23.522  0.0169 -0.1146  0.0892
90774W        W33827  23.700  31.795   7.052  0.0617  0.1579 -0.1028
90775W        W33828   3.442  21.685  14.823  0.2166 -0.0108 -0.2442
90776W        W33829  10.824  18.981   2.498  0.2802  0.1266 -0.0584
90777W        W33830  22.098  19.456   3.314  0.1869 -0.0315 -0.1901
90778W        W33831  31.358  16.988  19.797  0.0125 -0.3891 -0.0325
90779W        W33832   1.903  13.556  25.816  0.1751 -0.2389 -0.3043
90780W        W33833  29.746  21.350   4.407  0.1190  0.2966  0.3087
90781W        W33834  24.444  17.837   5.949 -0.0312 -0.0695 -0.0330
90782W        W33835  30.997  25.392   7.744 -0.1835  0.1435  0.1389
90783W        W33836  23.638   6.419  24.470  0.0208  0.3475 -0.5657
90784W        W33837  15.370  12.940  27.349  0.1148 -0.3055 -0.0144
90785W        W33838  24.875  23.430   4.776  0.1974  0.1206  0.0668
90786W        W33839   7.567  22.002  18.950  0.0512 -0.1202  0.1503
90787W        W33840  14.971  12.475  10.221  0.0398 -0.2211 -0.3539
90788W        W33841  26.428  19.663  17.051 -0.2267  0.0670 -0.0611
90789W        W33842  21.711   2.034  25.248  0.0233 -0.1225  0.1064
90790W        W33843  17.965  21.014   2.380 -0.0100  0.0073 -0.0519
90791W        W33844  16.002  14.515   9.670 -0.0851 -0.0365 -0.0735
90792W        W33845  33.857  28.319  22.249 -0.3600  0.0040 -0.2247
90793W        W33846  18.362   8.372  19.490  0.1756  0.1622  0.0914
90794W        W33847  10.792  26.833  17.474  0.0543 -0.0030  0.1693
90795W        W33848   6.909   8.777   7.880  0.0933 -0.1692 -0.0848
90796W        W33849  13.530  24.198  15.004  0.2983  0.1551 -0.1399
90797W        W33850  18.251   3.930  20.767  0.2696 -0.2766  0.2149
90798W        W33851  14.638  14.834   9.448 -0.2017 -0.0430  0.1723
90799W        W33852   5.520  15.255   5.159 -0.2325  0.3081 -0.0685
90800W        W33853  22.355  19.103   1.460  0.1934 -0.0876 -0.0007
90801W        W33854  19.463  30.972   8.744 -0.1806  0.2437 -0.0958
90802W        W33855   9.490  10.561  27.066 -0.2450  0.0516  0.1143
90803W        W33856  26.583  17.572  16.630 -0.0979  0.2711  0.0786
90804W        W33857  22.019  30.591  16.928  0.0627  0.2084 -0.2824
90805W        W33858   3.902  19.383   0.299 -0.1635 -0.1568  0.1577
90806W        W33859   0.863  15.002  19.918 -0.3568 -0.1271 -0.0362
90807W        W33860  22.773  27.432  27.391  0.1536 -0.0607  0.0763
90808W        W33861  25.890  17.538  20.637  0.0014  0.0347 -0.1240
90809W        W33862  14.150  11.084  21.361 -0.2443 -0.3699 -0.0910
90810W        W33863  13.558  26.960  26.791 -0.2270  0.0106  0.2254
90811W        W33864   9.146  15.765  23.357 -0.2398 -0.0314  0.0223
90812W        W33865  21.953   7.472  14.332 -0.1159  0.0540 -0.0704
90813W        W33866  14.480   0.349  24.713  0.0577 -0.1278 -0.0007
90814W        W33867  14.063  27.232   3.770 -0.1037 -0.0862 -0.0182
90815W        W33868  33.312  21.322  27.322  0.2349 -0.1997 -0.2062
90816W        W33869   5.785  12.597   0.047 -0.1525  0.0056  0.1917
90817W        W33870  28.939   7.120  26.093 -0.3599  0.4252 -0.1460
90818W        W33871  30.618  13.199  26.280 -0.0022 -0.1036  0.0756
90819W        W33872  25.717   7.942  28.632  0.0957 -0.0223 -0.1956
90820W        W33873  10.386  31.128  23.838  0.2444  0.0294 -0.1906
90821W        W33874  14.433   6.817   8.999 -0.0001 -0.1318  0.1569
90822W        W33875  13.896  24.778   1.393 -0.0408  0.1771  0.1500
90823W        W33876   0.917  14.438   5.721 -0.2214  0.1877  0.1160
90824W        W33877  21.118  19.035  14.041 -0.1639  0.3965 -0.3130
90825W        W33878  16.229  24.250   7.259  0.0198 -0.2423 -0.2119
90826W        W33879   4.175  20.987   5.971  0.3558  0.3657  0.2164
90827W        W33880  23.362  11.339  24.013 -0.0615  0.1918  0.0236
90828W        W33881  31.008  17.006  10.307 -0.2004  0.0228 -0.0155
90829W        W33882  22.171  17.340   5.617 -0.0202  0.3613  0.0270
90830W        W33883   4.310   8.370  21.364  0.0175  0.0395  0.2941
90831W        W33884  15.396  15.401   8.117  0.0141 -0.0764  0.1663
90832W        W33885  16.161  21.108   7.366 -0.2490 -0.1426 -0.0925
90833W        W33886  33.145  16.643   2.976 -0.0940 -0.3166 -0.1281
90834W        W33887  10.331  26.207  25.098 -0.1915 -0.0533 -0.0971
90835W        W33888  18.401  21.812   5.627 -0.0313  0.0550  0.0474
90836W        W33889   3.809   9.866  20.945  0.1378 -0.4084  0.0895
90837W        W33890  22.788  32.430   1.561  0.0967  0.3601  0.1518
90838W        W33891  18.126  27.172   9.618 -0.0693 -0.2184 -0.0820
90839W        W33892  14.174  14.559   1.274 -0.1477  0.1664 -0.0826
90840W        W33893  25.130  23.120  10.434  0.0336 -0.3323  0.1155
90841W        W33894  21.982   6.836  26.397 -0.2894 -0.0151  0.2634
90842W        W33895   6.542  15.278  26.723 -0.0263  0.0277  0.3559
90843W        W33896  27.097  15.572   4.397  0.1895  0.1583  0.3926
90844W        W33897  23.911   9.922   4.468 -0.3043 -0.0922  0.1245
90845W        W33898  20.671  21.840   1.321 -0.1178  0.3020  0.1368
90846W        W33899  10.348   2.223  21.777  0.1860  0.6493  0.0719
90847W        W33900   8.391  17.674  24.981  0.1120  0.3400 -0.1214
90848W        W33901  22.044  14.679  15.280  0.1969 -0.2555 -0.3378
90849W        W33902  23.716   4.442  14.778  0.1512  0.2392  0.0138
90850W        W33903   4.258  10.052  15.949 -0.1077  0.1753  0.2143
90851W        W33904   6.474  20.070   6.507  0.0859 -0.4694  0.1381
90852W        W33905  22.482  11.431   4.025  0.4444  0.1660 -0.0930
90853W        W33906  22.768   4.483  20.436 -0.1332  0.1971 -0.0400
90854W        W33907   2.654  26.405   1.344 -0.1045  0.1071  0.0282
90855W        W33908   9.850  33.892   6.156  0.1504 -0.2195 -0.0019
90856W        W33909  20.608  32.408  28.693  0.0405 -0.2150  0.1127
90857W        W33910   0.840  15.363   5.571  0.1254 -0.2765 -0.0655
90858W        W33911  12.230  18.313   3.575 -0.3561  0.2121  0.1936
90859W        W33912  19.275   2.294  22.732 -0.0699  0.0389 -0.2299
90860W        W33913   6.844  10.710   1.685 -0.2566  0.1823  0.1742
90861W        W33914  21.334  22.936   1.951 -0.2243 -0.1926  0.0243
90862W        W33915  18.497  30.414  19.705  0.2584  0.1142 -0.1779
90863W        W33916  32.370  12.502   5.279 -0.4125 -0.3215 -0.0421
90864W        W33917  32.091  33.941  16.749  0.0938  0.1387  0.1111
90865W        W33918   3.744  17.550   9.291  0.2922  0.0495  0.1792
90866W        W33919  12.062  14.521   9.194  0.0978  0.1895 -0.4582
90867W        W33920  16.290  10.115   4.499  0.2240  0.2058  0.0516
90868W        W33921  30.833   3.816   5.993  0.1097  0.0322 -0.1414
90869W        W33922   6.015   5.465  10.530  0.0552  0.0361  0.1356
90870W        W33923  23.205  19.386   9.311 -0.1315 -0.2149  0.1688
90871W        W33924  11.189  29.173   6.448  0.1189  0.3157 -0.0990
90872W        W33925  18.395  11.761   3.079 -0.0472 -0.1413  0.1791
90873W        W33926  30.272  19.296   6.348  0.1408  0.1514 -0.1706
90874W        W33927  11.877  18.797  19.335  0.2309  0.2542 -0.0159
90875W        W33928  30.821  28.446   2.069  0.0871  0.1551  0.2826
90876W        W33929  19.451  15.940  28.399  0.0580  0.2926 -0.0114
90877W        W33930  26.222   8.260  27.931 -0.0820 -0.4996 -0.1167
90878W        W33931  29.921   4.076  23.253  0.1882 -0.3135  0.2112
90879W        W33932  20.923  19.340   5.854  0.1517 -0.0393  0.0244
90880W        W33933  18.112   0.723   2.429  0.1357  0.1611 -0.0866
90881W        W33934  25.134  19.757  18.846  0.5080 -0.2507  0.0015
90882W        W33935   9.603  24.257   2.705  0.2982  0.2421  0.2098
90883W        W33936  12.603  33.188   8.113 -0.0946 -0.0400 -0.4132
90884W        W33937  21.419   7.443  20.452 -0.0008  0.2294 -0.3340
90885W        W33938  17.851  27.971  22.014 -0.1693 -0.1643  0.2022
90886W        W33939  14.904  13.890  16.144 -0.0737  0.0763  0.2958
90887W        W33940   5.132  12.387   5.835  0.3114  0.0435  0.0180
90888W        W33941  15.355  14.105   0.482 -0.2387 -0.1069 -0.0550
90889W        W33942  10.536  23.693  25.638  0.1386  0.4941 -0.1721
90890W        W33943  20.796  27.766  25.926  0.0582 -0.2142 -0.0191
90891W        W33944  20.607   2.282   6.158  0.1537 -0.0477  0.2634
90892W        W33945  23.460  25.143  27.700  0.2760 -0.1880 -0.0955
90893W        W33946  29.907   5.846  25.768 -0.0710 -0.1424  0.0204
90894W        W33947  28.214  10.007  22.697 -0.0280  0.0158 -0.1377
90895W        W33948  18.691  19.201  23.198  0.0744 -0.2024 -0.0769
90896W        W33949  19.947  11.399  27.673  0.1733 -0.0591 -0.0327
90897W        W33950  21.716   9.339  28.107  0.2424  0.2367  0.2549
90898W        W33951  29.159  19.601  13.301 -0.0449 -0.3405  0.0532
90899W        W33952  10.591   8.124  28.348 -0.2201 -0.0962  0.0477
90900W        W33953  21.466  25.719  27.126 -0.1157 -0.2019  0.1149
90901W        W33954   3.285  11.646   8.175 -0.1684 -0.2600 -0.4573
90902W        W33955  25.054  29.689   7.518 -0.0967 -0.0693 -0.2510
90903W        W33956   5.351  23.831   0.388  0.2654  0.1037  0.1040
90904W        W33957  17.267   2.716   8.096  0.0175 -0.1860 -0.0595
90905W        W33958   3.717  24.037  29.091 -0.1634 -0.1437  0.2288
90906W        W33959  28.005  11.043   5.825 -0.1204  0.1135  0.2161
90907W        W33960   4.069  22.400   9.270 -0.0757 -0.0461  0.0175
90908W        W33961  20.350  18.487  26.269  0.1704  0.3025  0.0730
90909W        W33962  13.708  10.270   6.476 -0.0740  0.3843 -0.0801
90910W        W33963  21.257  15.595   1.975 -0.2545 -0.0765  0.1283
90911W        W33964  25.111  32.181  27.359  0.1651  0.0869 -0.0807
90912W        W33965  29.204  21.100   9.229  0.1982 -0.1236 -0.0694
90913W        W33966  21.785  10.910   7.004  0.2270 -0.0068 -0.0547
90914W        W33967  18.019  22.101   9.300  0.0172 -0.3979 -0.0833
90915W        W33968   9.509  24.133  21.801 -0.0564  0.0214  0.1706
90916W        W33969  23.026  17.552   5.494  0.0546 -0.1926  0.2243
90917W        W33970  14.343  17.309  27.559 -0.1039 -0.0555 -0.0967
90918W        W33971  25.260  15.315  24.023 -0.4417  0.4242 -0.2550
90919W        W33972  17.321  13.484   3.970  0.1067  0.1060  0.0241
90920W        W33973  18.314   9.920  16.058  0.0794 -0.0143  0.0810
90921W        W33974  22.577  11.237   4.483  0.0759  0.0363 -0.0478
90922W        W33975   3.799  25.162  28.867 -0.1644  0.0783 -0.1984
90923W        W33976   2.791   8.537   6.558  0.1809 -0.0502  0.3387
90924W        W33977  23.487  15.158  15.828 -0.0144  0.0809  0.0543
90925W        W33978  28.277   8.630   1.529  0.0556  0.1065  0.0010
90926W        W33979   2.596  20.023   5.929 -0.0242  0.3193 -0.4060
90927W        W33980   7.467   2.169   7.066 -0.0240  0.0867 -0.1009
90928W        W33981  17.921  34.469  28.512 -0.0136 -0.0601  0.1937
90929W        W33982   6.135   8.203   5.903  0.0983  0.0263 -0.0388
90930W        W33983  22.365  28.460   9.146 -0.0253 -0.2886 -0.0840
90931W        W33984  30.330  17.675   3.552 -0.1309  0.1348 -0.3070
90932W        W33985  22.924  15.495  15.792  0.1537  0.4294 -0.2353
90933W        W33986   1.104   5.874   9.181  0.2229 -0.1799  0.0123
90934W        W33987  20.146  28.643  28.506 -0.2940 -0.0504  0.0645
90935W        W33988  34.240  20.175  22.194  0.1742  0.0335  0.0262
90936W        W33989  11.925  28.817  14.036 -0.2061  0.5700  0.0299
90937W        W33990  14.725  22.093  18.987  0.2064  0.0856 -0.2326
90938W        W33991  21.596   7.311   0.536 -0.1974 -0.1001  0.0596
90939W        W33992  23.406  18.841  15.890 -0.2286  0.3085  0.3140
90940W        W33993  10.120   2.332  21.356  0.0970 -0.4349 -0.2942
90941W        W33994  12.976  28.744  14.818 -0.2549  0.1978 -0.4214
90942W        W33995  15.397  19.435  28.971  0.2404 -0.0250 -0.2310
90943W        W33996   5.989  26.381  16.382  0.1357 -0.1745 -0.3312
90944W        W33997  30.787  29.819  17.495 -0.1917  0.0815 -0.1777
90945W        W33998  24.194  15.632  14.595 -0.0406 -0.1966 -0.1113
90946W        W33999   8.910  18.013  20.469  0.1954 -0.0034  0.1141
90947W        W34000   1.356   7.777  22.230 -0.2036 -0.0267 -0.1290
90948W        W34001  25.725  22.923  26.305 -0.0383  0.0674 -0.1000
90949W        W34002  29.809  27.612  15.208 -0.2009  0.1426  0.0799
90950W        W34003  28.880  14.872  26.694 -0.0758 -0.2343  0.3110
90951W        W34004  23.366  24.148  24.295  0.0907  0.1214 -0.0015
90952W        W34005   8.144  15.564  19.669 -0.2576  0.0578  0.3245
90953W        W34006  21.680  16.205  14.386  0.0221 -0.1002  0.1312
90954W        W34007  24.266  18.186  20.954 -0.0215  0.2355 -0.0411
90955W        W34008   4.078  16.223  16.899 -0.0028  0.0365 -0.2047
90956W        W34009  28.665  12.905  17.808 -0.2034 -0.1442 -0.1208
90957W        W34010  23.548  23.196   0.279 -0.1086 -0.0658  0.0756
90958W        W34011  26.929  18.030  22.541 -0.2054  0.0132 -0.5592
90959W        W34012  20.125  13.717  16.899 -0.2234 -0.2709 -0.5293
90960W        W34013  18.980  22.719  16.949 -0.1908 -0.1495  0.1486
90961W        W34014  19.850  26.233  19.528 -0.1787 -0.0511  0.0244
90962W        W34015  28.892  12.440  17.733  0.0149  0.0634  0.0631
90963W        W34016   2.079  20.892  18.008  0.2350  0.3118 -0.1164
90964W        W34017  25.831  24.814  20.724 -0.0470  0.0294  0.0196
90965W        W34018  11.912   8.462  17.486 -0.1166  0.2136 -0.1337
90966W        W34019  15.942  18.155  22.987 -0.0980 -0.3276 -0.0363
90967W        W34020   1.616  23.199  26.836 -0.2891  0.2729 -0.1860
90968W        W34021   1.195  23.896  15.758 -0.0991  0.2286  0.1677
90969W        W34022  29.277  27.656  15.467 -0.1570  0.3080 -0.0935
90970W        W34023  17.417  23.018  27.709 -0.3436 -0.0642 -0.5211
90971W        W34024  11.992  24.067  17.229 -0.1638  0.1278  0.3843
90972W        W34025  24.875  17.767  15.747  0.3267 -0.2222 -0.0104
90973W        W34026   9.905  34.019  19.793 -0.1159  0.2376 -0.1126
90974W        W34027  34.535   8.917  20.616  0.4786 -0.0683  0.1331
90975W        W34028   7.906   2.826  18.188 -0.1360  0.1130 -0.3359
90976W        W34029  16.896  33.123   8.819 -0.1602  0.0247  0.2344
90977W        W34030   4.127   8.709  28.434  0.0444 -0.2235  0.0580
90978W        W34031  22.649  27.324  23.218 -0.0183 -0.0339  0.1038
90979W        W34032  11.417  21.543  17.072  0.0689 -0.1185  0.4154
90980W        W34033  34.023  20.078  20.866 -0.2635  0.1534  0.3124
90981W        W34034  23.665  23.903  19.758 -0.0787  0.0936 -0.0693
90982W        W34035  31.580  27.338  22.681 -0.1777  0.2783  0.3063
90983W        W34036  15.321  31.168  22.352 -0.1428 -0.3602 -0.2462
90984W        W34037   7.314  15.962  24.785 -0.1302  0.1411 -0.0413
90985W        W34038  21.705  10.889   3.137 -0.2359 -0.1787  0.0065
90986W        W34039   3.875  20.783  15.504 -0.1521  0.0276 -0.0226
90987W        W34040  23.873  27.568  23.640 -0.1772 -0.1051  0.0681
90988W        W34041  24.088   8.931  22.933 -0.2078 -0.2162 -0.0973
90989W        W34042  31.513   7.823  19.809  0.1296  0.0434  0.0661
90990W        W34043  14.546  10.800  21.129 -0.1291 -0.1920  0.0969
90991W        W34044  14.326  13.137  25.855 -0.1314 -0.0274 -0.0862
90992W        W34045  23.294   8.979   3.370  0.0110 -0.0520  0.0113
90993W        W34046   2.019  21.735  10.180 -0.0742  0.1521  0.2582
90994W        W34047  23.884  23.473  20.580 -0.1647 -0.2739  0.2339
90995W        W34048  34.256   4.350  20.171  0.0347  0.0964 -0.0882
90996W        W34049   3.656  27.407  15.546 -0.1295 -0.0964  0.2071
90997W        W34050  22.163  21.255  19.464  0.0232 -0.2922 -0.1172
90998W        W34051  23.793  26.595  19.210 -0.1462 -0.0522  0.1026
90999W        W34052  19.804  26.278  22.517 -0.2844  0.0945 -0.0756
91000W        W34053  17.977   5.995  20.015 -0.2963 -0.2153 -0.0846
91001W        W34054  22.852  15.293  16.614 -0.1154 -0.3040 -0.0448
91002W        W34055  24.938  25.983  16.808  0.0612  0.0503 -0.0066
91003W        W34056  15.322  21.375  22.510 -0.0954  0.1706  0.1480
91004W        W34057  22.069  19.779  13.436  0.2588  0.1727  0.1225
91005W        W34058  26.986  17.696  18.881  0.1613 -0.2249  0.0748
91006W        W34059  20.555  14.436  14.466 -0.1336 -0.0217  0.1091
91007W        W34060  31.308  20.148  25.172 -0.0673  0.4025 -0.3697
91008W        W34061  21.900  31.057  17.045 -0.2821  0.2187 -0.1401
91009W        W34062  33.836  16.827  16.921  0.2579 -0.1116  0.1512
91010W        W34063   9.585  13.225  18.543  0.2306  0.3250 -0.1899
91011W        W34064  27.379   8.068  25.516 -0.0736  0.2113 -0.1116
91012W        W34065  28.676  15.015  13.768  0.2545  0.2508  0.0111
91013W        W34066  32.054  17.252  19.431 -0.2359  0.2047  0.0911
91014W        W34067  23.063  28.630  28.600 -0.0487 -0.0156  0.0354
91015W        W34068  23.403  17.844  21.472  0.2317  0.1239 -0.3223
91016W        W34069  21.259  13.846  15.301  0.1369  0.4984 -0.0412
91017W        W34070  11.812  10.544  17.608  0.1444 -0.1089 -0.3240
91018W        W34071   4.205   7.108  18.026  0.2911 -0.0162 -0.0144
91019W        W34072  18.188  23.612  24.651  0.6005 -0.0423  0.0250
91020W        W34073  21.149   4.866  15.778  0.0271  0.1105 -0.1498
91021W        W34074  13.028  28.366   1.315  0.0080 -0.0559  0.1783
91022W        W34075   2.030  14.430  23.856 -0.1134 -0.3001  0.0916
91023W        W34076  21.981  15.270  13.458 -0.3502  0.0197  0.1053
91024W        W34077  22.717  18.489  14.234 -0.0233  0.0632  0.0606
91025W        W34078  21.304  30.903   4.001 -0.0333 -0.0820 -0.1005
91026W        W34079  19.336  22.914  18.820 -0.2220  0.0160  0.1630
91027W        W34080  28.112  13.948  20.581 -0.0053 -0.0260 -0.0676
91028W        W34081   3.154  20.618  28.752 -0.1235  0.1027 -0.0153
91029W        W34082  29.072   4.414  21.678 -0.0962 -0.0766 -0.2935
91030W        W34083  19.011  14.370  17.116 -0.0748  0.2502 -0.4227
91031W        W34084  10.876  11.081  15.999 -0.1975  0.1380 -0.0242
91032W        W34085  11.055  16.025  15.108  0.1241 -0.0212  0.1506
91033W        W34086  15.960  10.979  15.117  0.1470  0.3253 -0.0060
91034W        W34087  25.059  12.550  18.065 -0.3470  0.1124 -0.1162
91035W        W34088  23.307  25.997  20.595  0.1471 -0.3935  0.0415
91036W        W34089  10.883  26.691  21.188 -0.4655 -0.0983  0.2214
91037W        W34090  20.339  28.412  26.986 -0.1665  0.0215  0.1968
91038W        W34091  25.748   4.215  24.567  0.0363  0.0055  0.0398
91039W        W34092   7.605  11.721  22.015 -0.1136  0.1144 -0.3736
91040W        W34093  29.739  20.480  26.989 -0.1556 -0.2640  0.0627
91041W        W34094  11.867  25.003  18.883 -0.2726 -0.1612 -0.1420
91042W        W34095  13.038  10.646  19.453 -0.1958 -0.1348  0.0609
91043W        W34096  33.256  12.800  21.790 -0.0044  0.1009 -0.1693
91044W        W34097  17.146  21.485  21.136  0.1477  0.0036  0.1295
91045W        W34098  27.558  26.824  16.200 -0.3474 -0.0792  0.1624
91046W        W34099   8.591  26.217  16.155  0.2003 -0.1039 -0.1562
91047W        W34100   0.082  28.521  14.220  0.0867  0.1155  0.1718
91048W        W34101  24.458  23.905  23.845  0.2209  0.0055 -0.1030
91049W        W34102  22.403  28.873  18.957  0.3390 -0.2403  0.2027
91050W        W34103  15.489  10.513  16.527  0.0672  0.3209  0.1443
91051W        W34104  11.101  16.413  16.416  0.3780  0.1616 -0.1935
91052W        W34105  18.208   8.106   0.335  0.2349  0.2740 -0.2311
91053W        W34106  22.086  15.587  21.557  0.2145  0.1866 -0.1393
91054W        W34107  24.388   8.001   1.694  0.0122  0.2540  0.1598
91055W        W34108  29.644  30.604  14.710  0.0072 -0.2677 -0.1488
91056W        W34109  18.927  27.113  23.606  0.1999  0.3039 -0.1417
91057W        W34110  28.077  22.586  17.587 -0.2561  0.2756 -0.0398
91058W        W34111   8.025  13.669  22.488 -0.1899 -0.1717 -0.1060
91059W        W34112  19.594   7.515  20.180  0.2138 -0.1547 -0.0146
91060W        W34113   7.015   6.681  20.953  0.3979 -0.0564  0.0547
91061W        W34114  19.744  19.036  15.209  0.1203 -0.1021 -0.0028
91062W        W34115   6.846  13.234  18.979  0.3322  0.2163  0.2439
91063W        W34116  20.766  10.164   0.214 -0.0227  0.0892 -0.0874
91064W        W34117  31.788  23.763  15.959 -0.1088  0.0027  0.1129
91065W        W34118  28.429   9.952  16.984  0.1904  0.3590 -0.2493
91066W        W34119  29.648   8.235  26.692  0.0816  0.0338  0.2513
91067W        W34120  15.483  10.169  15.412 -0.0144  0.1020  0.0100
91068W        W34121  21.952   3.159   4.660  0.4226 -0.1576  0.2362
91069W        W34122  17.973   6.611  19.047 -0.1805  0.2019  0.1358
91070W        W34123  21.389  31.921  24.053  0.0293 -0.2268 -0.1899
91071W        W34124   6.297  21.535  28.885 -0.0847  0.2680  0.0297
91072W        W34125  20.105  11.828  17.550 -0.0518  0.1339  0.3184
91073W        W34126  10.217   0.849  21.800  0.0587 -0.0914  0.1474
91074W        W34127  20.525  16.704  13.246 -0.2250 -0.0318  0.1925
91075W        W34128  24.792  28.305   1.778 -0.1021 -0.0756 -0.1675
91076W        W34129  34.451  29.956  22.537  0.1105 -0.5387 -0.1764
91077W        W34130  15.203  12.964  18.924 -0.0038  0.4376 -0.0622
91078W        W34131  12.437  22.879  18.413 -0.5534  0.2608 -0.2611
91079W        W34132  27.204  27.609  16.680  0.0489  0.1170 -0.1851
91080W        W34133  25.583  18.336  17.388 -0.0892 -0.2251  0.0371
91081W        W34134  25.415  25.546  20.004 -0.0861 -0.0479  0.3126
91082W        W34135  16.575  23.694  24.174 -0.0028 -0.0905 -0.0353
91083W        W34136  26.293  15.093  20.007  0.1321  0.1810 -0.1491
91084W        W34137  25.796   2.097  15.970 -0.2020  0.0699  0.1403
91085W        W34138  19.664   3.207  23.630 -0.1238 -0.2738  0.0190
91086W        W34139  22.263  29.722  25.324 -0.2135  0.1106  0.1511
91087W        W34140  33.666  15.023  23.248  0.0625 -0.1761 -0.1546
91088W        W34141  26.193   0.432  23.703 -0.0806 -0.1696 -0.0190
91089W        W34142  21.880  11.074   6.177  0.1326 -0.0331  0.2245
91090W        W34143  13.691  30.469   1.853  0.0228  0.0872 -0.1377
91091W        W34144  23.221  23.857  19.596  0.0593 -0.2045  0.2109
91092W        W34145  17.617  11.101  17.095 -0.1623  0.2357 -0.0409
91093W        W34146  27.397  19.671   3.105  0.1113  0.1868  0.2217
91094W        W34147  32.553  30.709  27.458 -0.0146  0.1881  0.3947
91095W        W34148   1.484  31.073  26.267 -0.3303  0.2524 -0.4187
91096W        W34149   6.817   6.770   4.393 -0.0261 -0.0090  0.2576
91097W        W34150   2.345   5.042  14.032  0.2365  0.0254 -0.1947
91098W        W34151   3.053  19.434  26.501 -0.0820 -0.0157 -0.2533
91099W        W34152   2.849  18.052  15.940 -0.2862  0.1300 -0.0830
91100W        W34153  26.751  19.112  27.351  0.0334  0.1426  0.0499
91101W        W34154  18.722  27.886  18.621 -0.1573  0.3406 -0.3150
91102W        W34155   3.347   3.160  19.163 -0.2260 -0.0567 -0.1069
91103W        W34156   1.453   6.608  18.733 -0.1969 -0.2721  0.0723
91104W        W34157   6.822  13.943  24.317 -0.1065  0.2678 -0.1352
91105W        W34158  14.048  16.895  13.918 -0.1904  0.0041 -0.0374
91106W        W34159  26.622  28.741   3.389 -0.3531 -0.1869 -0.1255
91107W        W34160   1.652  10.624  27.044  0.1173 -0.0495  0.0709
91108W        W34161  21.143  20.236  25.517  0.1000  0.1085  0.0991
91109W        W34162  23.602   8.004  26.001  0.4119  0.0479 -0.2313
91110W        W34163  22.083  14.408  20.634  0.0219  0.1203 -0.3116
91111W        W34164  29.191  20.528  13.660 -0.3239  0.0583  0.1571
91112W        W34165  25.733  30.581  17.717 -0.0453  0.0068  0.0397
91113W        W34166  24.413  28.324   2.710 -0.0586  0.2245  0.2557
91114W        W34167  12.716  15.641  23.070  0.3266 -0.1215  0.1131
91115W        W34168  18.598  26.041  19.946  0.3626 -0.1909  0.2267
91116W        W34169  29.208   7.818  17.399 -0.2625 -0.0988  0.0012
91117W        W34170  16.366  25.966  22.758 -0.3604 -0.3178 -0.1356
91118W        W34171   6.582   6.872  15.501 -0.1875  0.0541  0.2636
91119W        W34172  14.236  30.019  28.802 -0.1048 -0.1206  0.1066
91120W        W34173  23.141  29.259  16.510  0.2275  0.4423 -0.5420
91121W        W34174  15.985  14.662  25.598  0.0286 -0.2593 -0.1237
91122W        W34175  17.657  24.661  15.123 -0.1475  0.2191  0.5066
91123W        W34176  21.411  27.707  18.275 -0.0809  0.0262 -0.3221
91124W        W34177  14.074  25.225  19.321  0.1654 -0.0165  0.3645
91125W        W34178  23.592  28.491  26.967  0.2535 -0.1276 -0.0313
91126W        W34179  19.486  25.504  17.545 -0.1823 -0.0909 -0.2550
91127W        W34180  23.091  11.911   3.165  0.2317 -0.2929 -0.0417
91128W        W34181  11.373  31.940  26.265  0.1127  0.0075  0.0909
91129W        W34182  10.482  15.120  16.429  0.2271 -0.1833  0.1590
91130W        W34183  17.421  26.688   6.237  0.2045  0.0967  0.2486
91131W        W34184  18.667  27.796  15.843 -0.0223 -0.2721  0.1374
91132W        W34185  19.669  11.638  17.801  0.2942  0.2144  0.1223
91133W        W34186   4.545  15.240  24.519  0.0835 -0.0956 -0.1710
91134W        W34187  31.903  14.451  19.598  0.0091  0.0494 -0.1139
91135W        W34188  32.362  21.762  20.034 -0.0312  0.1698  0.1528
91136W        W34189  16.374  30.329  16.218 -0.0140 -0.0273 -0.2402
91137W        W34190  25.939  19.787  17.828  0.1981 -0.2190  0.0258
91138W        W34191  15.569   0.118  27.006 -0.3285 -0.0002  0.2577
91139W        W34192  19.631  24.478  17.044 -0.2108 -0.0536  0.4148
91140W        W34193  19.850  23.812  15.282  0.1279 -0.3882 -0.3909
91141W        W34194  32.347  13.782  21.219  0.1316 -0.0877  0.1988
91142W        W34195  34.333  15.980  15.307 -0.2422  0.0062 -0.0971
91143W        W34196  21.812  33.716  28.693  0.0843 -0.2583  0.2324
91144W        W34197   5.995  13.598  28.250 -0.0581  0.0767 -0.0564
91145W        W34198  24.835  22.908  22.628 -0.4244  0.0157  0.0973
91146W        W34199  16.046   8.729   4.484  0.0726  0.2355 -0.0178
91147W        W34200  22.507  15.169  18.708 -0.0585  0.0667  0.1835
91148W        W34201  23.684  22.244  26.999 -0.1153 -0.0250  0.2029
91149W        W34202  30.652  19.376  26.158  0.3267 -0.1864 -0.2063
91150W        W34203  22.228  26.671  18.159  0.1018 -0.3706 -0.1147
91151W        W34204   4.003  26.273  17.096  0.1949  0.0083  0.2533
91152W        W34205   9.262  25.787  19.947  0.2298  0.3353 -0.0249
91153W        W34206  23.735  26.715   0.593  0.1210 -0.1526  0.5085
91154W        W34207   7.505  27.151  14.639 -0.0175 -0.0249  0.1203
91155W        W34208  14.935  27.032  19.270 -0.2787 -0.0949  0.0979
91156W        W34209  24.582  16.802  16.948 -0.2053 -0.0529  0.0829
91157W        W34210  28.587  10.237   1.647 -0.2002  0.2217 -0.0371
91158W        W34211   0.976  18.191  13.037 -0.0277 -0.0557  0.0909
91159W        W34212   8.688   8.015   2.826 -0.0431  0.0541 -0.1350
91160W        W34213  31.589  23.698  14.034  0.1632 -0.1026 -0.2741
91161W        W34214  17.507   6.644  16.946 -0.0691 -0.2651  0.0035
91162W        W34215  24.876  14.789  16.466  0.1299  0.2928  0.2750
91163W        W34216  31.245   9.090  17.838  0.0386  0.0734  0.0979
91164W        W34217  21.366  28.664  22.397 -0.2435 -0.2236 -0.1046
91165W        W34218  29.499  21.513  15.845  0.0027  0.1635 -0.2946
91166W        W34219   5.864  16.334  18.173  0.0533 -0.0953 -0.1569
91167W        W34220  28.146  11.266  18.545 -0.2733 -0.3057  0.4265
91168W        W34221  29.853  10.945  21.747  0.2147 -0.1658 -0.2594
91169W        W34222  14.405   8.057  27.786 -0.0340 -0.0050 -0.0871
91170W        W34223  12.231  12.318  22.439 -0.1221 -0.4185 -0.0191
91171W        W34224   9.227  25.477  21.987 -0.0041  0.0077  0.2696
91172W        W34225  22.006  15.335  12.966 -0.0346 -0.2019  0.1206
91173W        W34226  22.054  23.291  20.834 -0.1819 -0.4810 -0.0981
91174W        W34227  15.098   2.208  24.165 -0.1796 -0.0152 -0.0512
91175W        W34228  25.744  25.915  14.818  0.1325 -0.3415  0.0621
91176W        W34229  12.247  12.148  20.414  0.2921  0.0972 -0.0394
91177W        W34230   9.520  23.996  17.798 -0.1596  0.1111 -0.4328
91178W        W34231   2.894   6.617  21.995 -0.0569  0.0049  0.0915
91179W        W34232  26.105  14.001  15.945 -0.3211  0.0530 -0.0646
91180W        W34233  10.065  22.656  24.326  0.1499  0.1493  0.2607
91181W        W34234   4.516  29.811   6.926 -0.0886  0.2757 -0.0107
91182W        W34235  21.753   8.256  24.910 -0.5128  0.0965 -0.0015
91183W        W34236  20.940  17.714  20.400 -0.2185  0.0927  0.2656
91184W        W34237  16.601  22.871  19.067 -0.1395 -0.1894 -0.1182
91185W        W34238   9.470   9.834  27.947 -0.2729  0.0583 -0.0857
91186W        W34239  26.070  15.524  14.174 -0.0651  0.3495  0.3387
91187W        W34240  18.949  14.712  14.111 -0.1670 -0.0773 -0.2592
91188W        W34241   4.348  18.987  16.186  0.0598  0.1701 -0.0557
91189W        W34242   1.218  23.348  20.752  0.0804  0.2276  0.0448
91190W        W34243  18.671  19.245  22.381  0.0695  0.2364 -0.0228
91191W        W34244  29.192  14.446  22.462  0.0291 -0.2140 -0.1029
91192W        W34245  30.617  15.366  25.203  0.0078 -0.1284 -0.2221
91193W        W34246   8.292  25.730   0.020  0.0159  0.0500 -0.0406
91194W        W34247  25.321  11.773  19.598 -0.0725  0.0788 -0.1657
91195W        W34248   9.411  21.820  18.274 -0.0208 -0.0821  0.2820
91196W        W34249  10.490  14.100  16.048  0.2231 -0.0062 -0.2385
91197W        W34250  32.889   5.776   2.357 -0.2223 -0.4080  0.0730
91198W        W34251  17.536  22.505  16.037 -0.1162 -0.0738 -0.0976
91199W        W34252  28.371  33.411  24.685 -0.0589  0.3120 -0.1427
91200W        W34253   4.835  16.646  24.600  0.3368 -0.1312  0.0360
91201W        W34254  18.760  17.620  14.090 -0.2368 -0.0486 -0.1752
91202W        W34255  29.680  24.011  14.504 -0.1510 -0.0078  0.0277
91203W        W34256  15.768   8.510  15.947  0.1263  0.1794  0.2903
91204W        W34257  19.995  31.004  19.762  0.1547  0.1614 -0.2782
91205W        W34258  22.854  33.085  16.437 -0.3015  0.1649 -0.0275
91206W        W34259  26.013  14.029  24.242  0.0671  0.0997 -0.0567
91207W        W34260  25.773   7.062  21.462  0.0458 -0.2893  0.1806
91208W        W34261  28.195   0.560  26.932 -0.0833 -0.0630 -0.0859
91209W        W34262  18.721  12.597  19.399  0.0316 -0.2860  0.1196
91210W        W34263  22.311   5.347  22.750  0.2026  0.0038 -0.2304
91211W        W34264  22.675  17.223   4.259  0.0653 -0.2405 -0.0677
91212W        W34265   5.825  27.696  20.472  0.0069 -0.1257 -0.2236
91213W        W34266  13.510  16.958   3.445 -0.3560  0.1635 -0.1310
91214W        W34267   1.686  13.114  16.379  0.0788 -0.1212  0.0552
91215W        W34268  27.215  19.348  17.164 -0.0692  0.1448  0.1205
91216W        W34269  30.132  18.049  15.962 -0.0679  0.0988  0.2085
91217W        W34270   5.701  18.127  14.189 -0.0533  0.0660 -0.0613
91218W        W34271  24.087  15.780  13.980  0.0933  0.0228 -0.2589
91219W        W34272  21.321  19.595  14.131  0.2042 -0.1881 -0.0377
91220W        W34273  17.283  26.394  22.570 -0.3064 -0.1634 -0.0997
91221W        W34274   3.742  15.298   7.566 -0.1778  0.3696  0.2204
91222W        W34275  29.259  15.303  19.247  0.1992  0.0946 -0.0352
91223W        W34276   8.713  26.112  22.265  0.1125  0.1755  0.3036
91224W        W34277  24.454  32.474  24.012 -0.0331  0.1016 -0.1553
91225W        W34278  12.239  22.885  16.463 -0.0365 -0.1767  0.0672
91226W        W34279   9.973   1.701  17.586 -0.0026  0.1348 -0.1184
91227W        W34280  14.541  11.199  13.946 -0.2443  0.1993  0.0499
91228W        W34281  30.086   6.433  22.791  0.0127 -0.1319 -0.1475
91229W        W34282  26.124  22.257  13.903 -0.1722  0.5825 -0.0623
91230W        W34283  18.753   8.515  21.190 -0.3171 -0.0123  0.2720
91231W        W34284  19.495  28.977  19.710  0.1232 -0.1875 -0.2020
91232W        W34285  25.770  12.576  21.501 -0.0663  0.1774 -0.0384
91233W        W34286  23.043   0.293  16.238 -0.2339 -0.1627 -0.2388
91234W        W34287  18.006   4.623  23.617  0.1088 -0.0887  0.0608
91235W        W34288  13.706  10.344  16.965  0.1174  0.0467  0.0854
91236W        W34289   1.669  19.275  21.889 -0.5079 -0.0458 -0.0318
91237W        W34290  11.694  19.407  16.255 -0.1732  0.0352  0.3757
91238W        W34291  28.507  15.036  17.076 -0.0923 -0.0040 -0.2961
91239W        W34292  10.955  16.844  26.940  0.0424  0.1415  0.2184
91240W        W34293  22.718  18.883  23.215 -0.1648  0.0586 -0.1678
91241W        W34294  20.438  25.988  18.831  0.3466  0.0111  0.2210
91242W        W34295  29.449  13.852  17.768  0.0424 -0.1137  0.0852
91243W        W34296  27.658  31.291  23.180  0.1642  0.0125  0.3114
91244W        W34297  19.516  11.352  18.726  0.1343  0.0813 -0.0953
91245W        W34298  34.489  21.578  22.814  0.0310  0.1897 -0.1477
91246W        W34299  27.388  30.313  25.947 -0.0587 -0.1350 -0.0780
91247W        W34300  18.246  26.077  20.499 -0.2929 -0.2205 -0.4740
91248W        W34301   6.602  13.514  13.932 -0.1199 -0.1270 -0.0265
91249W        W34302  16.350   5.068  19.656  0.2331  0.0362  0.1737
91250W        W34303  32.227   6.030  20.092 -0.0183  0.3739  0.1408
91251W        W34304  16.964  15.436  26.142  0.1222 -0.3731  0.0077
91252W        W34305   9.793  11.563  17.554  0.1304  0.1079  0.0474
91253W        W34306  27.452  28.838  22.501  0.1514 -0.2282  0.0212
91254W        W34307  16.615  21.990  19.071 -0.0265  0.0093 -0.3491
91255W        W34308   8.382  15.265  21.453 -0.1115 -0.0819 -0.0311
91256W        W34309   0.334  21.032  19.084  0.0935 -0.1014  0.1657
91257W        W34310  16.886   1.385  25.106  0.3193 -0.1149 -0.3641
91258W        W34311  21.915  21.227  27.123  0.0876  0.0649 -0.0416
91259W        W34312   9.255  10.837  17.088 -0.1069 -0.0178 -0.2632
91260W        W34313  27.929  15.923  15.986  0.0163  0.1192  0.0358
91261W        W34314   5.155  16.323  18.878  0.1615  0.0244  0.0676
91262W        W34315  11.749  15.516  17.854 -0.1935  0.0741 -0.2567
91263W        W34316  32.480  23.834  17.639 -0.2319 -0.0427 -0.2209
91264W        W34317  14.398  23.311  20.147  0.1417 -0.0265  0.1263
91265W        W34318  21.127   4.689  14.945 -0.2542  0.2770  0.2483
91266W        W34319  30.871  13.961  15.136  0.1969 -0.0236 -0.0034
91267W        W34320  29.137  10.118   1.658 -0.1231  0.2466 -0.0098
91268W        W34321  21.272  24.597  26.887 -0.2354  0.0014  0.1241
91269W        W34322  15.041   2.703  20.682  0.1034  0.0626 -0.0252
91270W        W34323  12.674  24.210  16.792  0.0912 -0.0161 -0.3300
91271W        W34324  21.700  25.376  20.452  0.0074 -0.0473  0.2481
91272W        W34325   3.780   3.853  23.253 -0.2078 -0.1683  0.0071
91273W        W34326  26.884  31.948   4.898  0.0552  0.2919 -0.0289
91274W        W34327  25.701  17.765   6.300  0.0532 -0.1617 -0.0483
91275W        W34328   5.229   4.493  20.844  0.1571  0.0313 -0.2635
91276W        W34329  21.272  18.146  20.271 -0.1408 -0.1202  0.0752
91277W        W34330  28.727  31.505  15.550 -0.3671 -0.0473  0.1068
91278W        W34331  22.670  26.575  23.622 -0.2529 -0.2083 -0.0737
91279W        W34332  25.872  31.134  18.815 -0.0155 -0.0735  0.2633
91280W        W34333  18.222  14.230  13.282  0.0357  0.0540 -0.2223
91281W        W34334  13.134  27.117  21.031 -0.2436  0.0058 -0.1136
91282W        W34335  15.604  18.600  15.362  0.0439 -0.6450  0.1506
91283W        W34336  22.848  16.699  18.679 -0.2295  0.3307  0.3498
91284W        W34337   7.574   6.333  21.260  0.1627  0.0142 -0.0761
91285W        W34338  13.466  32.439  20.610  0.2748  0.2949  0.1835
91286W        W34339   6.011  29.318  17.562  0.1538 -0.0751  0.1048
91287W        W34340  20.028  28.731  18.909 -0.1583  0.4282  0.1212
91288W        W34341  21.925  20.327   3.631  0.0671 -0.0294 -0.1303
91289W        W34342  25.444  21.407  20.705 -0.2624 -0.0931 -0.3266
91290W        W34343  10.923  20.430  21.475 -0.2740  0.2787 -0.0226
91291W        W34344  12.345  25.328  14.109  0.1851 -0.4934  0.6076
91292W        W34345  23.119  30.106  15.460 -0.2016  0.1458 -0.0158
91293W        W34346  19.422  15.860  14.699 -0.1186 -0.1574 -0.0834
91294W        W34347  19.668  20.803  16.280 -0.2138  0.3188  0.1839
91295W        W34348   7.839  20.770  14.779 -0.0016  0.2647  0.0529
91296W        W34349  34.251  31.318  24.951 -0.2683  0.0683  0.2003
91297W        W34350  23.971  15.831  27.994 -0.2457 -0.2860  0.1256
91298W        W34351   6.416  11.006  17.751 -0.1127 -0.0166  0.2537
91299W        W34352  28.500  20.945   3.449 -0.2112 -0.0020  0.0596
91300W        W34353  20.164  14.190  15.296  0.3276 -0.0071  0.1210
91301W        W34354  11.518  23.440  20.953  0.0251  0.0674  0.2073
91302W        W34355  10.517  27.256  15.337 -0.1101  0.0178  0.1402
91303W        W34356  21.162  22.438  20.026  0.0828 -0.1755  0.1766
91304W        W34357  15.207  13.950  14.803  0.3688  0.1599 -0.0107
91305W        W34358  28.319  10.625  16.129  0.0565  0.1803 -0.1855
91306W        W34359  27.028  14.723  19.094 -0.0316 -0.0324 -0.0691
91307W        W34360  17.770  24.669  16.862 -0.2295  0.1710  0.0671
91308W        W34361  34.250   1.825  26.556  0.0083  0.0542 -0.2448
91309W        W34362  32.291  13.767  20.146 -0.1366 -0.1205  0.0016
91310W        W34363  31.481  28.471  17.395 -0.0274 -0.2120  0.1322
91311W        W34364   7.087  19.792  18.188  0.0438 -0.0214  0.1914
91312W        W34365  20.062  28.344  17.557  0.3275  0.1091 -0.3354
91313W        W34366   5.807  11.417   0.665 -0.1885  0.0839  0.1283
91314W        W34367  10.959   5.595  19.484  0.2103  0.0258  0.0027
91315W        W34368  30.105  10.334  19.943 -0.0791 -0.0826 -0.3823
91316W        W34369   6.099   3.175  23.970 -0.0848  0.0049 -0.4350
91317W        W34370   4.879  17.866  27.730  0.0111 -0.0233  0.2513
91318W        W34371  30.423  23.467  14.589  0.2058 -0.1206 -0.0613
91319W        W34372  22.233   6.809  18.636  0.0391 -0.0044 -0.1071
91320W        W34373  11.934  30.873  26.427 -0.2008  0.0043 -0.0583
91321W        W34374  29.168  22.421  25.942  0.0481 -0.1845 -0.0886
91322W        W34375  19.538  30.116  22.440 -0.2071 -0.0169  0.0068
91323W        W34376  13.666  19.170   3.857 -0.0436  0.1248 -0.0154
91324W        W34377  14.914  30.426  22.563 -0.2937 -0.0249 -0.1918
91325W        W34378  21.559  32.330  21.434 -0.2404 -0.0673 -0.3678
91326W        W34379  28.593  21.485  20.646  0.3175 -0.1618  0.0789
91327W        W34380   3.418   9.717  23.965 -0.0802 -0.0251 -0.1784
91328W        W34381  26.283  23.342  24.885 -0.2470  0.1361  0.1270
91329W        W34382   9.629   2.065  17.803 -0.0937 -0.0532 -0.2027
91330W        W34383  14.576  32.977  18.990 -0.3169  0.0990  0.3948
91331W        W34384  30.608  27.063  13.764 -0.1804  0.0378  0.0089
91332W        W34385  14.096  28.025  19.550  0.2640  0.0233  0.0603
91333W        W34386  30.221  14.852  16.512 -0.2724 -0.1779  0.2122
91334W        W34387  31.901  28.636   3.043  0.2006  0.0571  0.0660
91335W        W34388   7.289  32.765  20.810 -0.1091 -0.3334  0.2070
91336W        W34389  24.977  16.732  15.750 -0.0060  0.1007  0.2800
91337W        W34390  29.290  13.559  15.065  0.1324 -0.2729  0.1246
91338W        W34391  14.871  19.709  13.673 -0.2507 -0.1987 -0.0102
91339W        W34392  24.700  24.367  20.304  0.2614 -0.2865  0.1499
91340W        W34393  33.642  12.914  20.040  0.0298  0.0030 -0.1372
91341W        W34394  16.533  27.244  25.260 -0.0068  0.2298 -0.1438
91342W        W34395   3.943  26.519  14.132  0.0375 -0.1030 -0.0987
91343W        W34396   6.086  24.255  16.210 -0.3346  0.2556  0.0211
91344W        W34397  27.025   9.182  21.349 -0.3415 -0.0617 -0.0860
91345W        W34398  17.051  22.541  17.004 -0.2543  0.0229  0.0664
91346W        W34399  16.201  11.794   6.520  0.0845  0.0103 -0.0205
91347W        W34400  28.279   6.843  17.496 -0.1044  0.1051 -0.0201
91348W        W34401  22.246   2.986  28.113 -0.1680 -0.1793 -0.0810
91349W        W34402  15.744  14.188   0.161 -0.1485  0.0125  0.0543
91350W        W34403  20.594  16.487   1.410 -0.2296 -0.0602  0.0969
91351W        W34404  10.115  18.796  25.378  0.2066 -0.1673  0.2897
91352W        W34405  26.744   5.333  21.876  0.2546 -0.2603 -0.1364
91353W        W34406  30.395  29.700  22.954 -0.0246  0.2433  0.1767
91354W        W34407  23.920  15.285  23.738  0.2291  0.1367 -0.0038
91355W        W34408  12.723  13.639   4.087  0.1673 -0.0605 -0.1800
91356W        W34409  23.181  12.004  22.252 -0.1975 -0.0026 -0.1800
91357W        W34410  22.737  14.690   3.516  0.1854  0.2732 -0.3365
91358W        W34411  14.839   0.517  21.962  0.2642 -0.1319  0.0653
91359W        W34412  23.700  29.255   0.232  0.1492  0.1179 -0.1803
91360W        W34413  15.565  33.101  14.736 -0.1428  0.3618  0.2110
91361W        W34414  11.876  15.130  15.805 -0.0343  0.2199  0.6989
91362W        W34415   0.713  10.467  22.098 -0.0363  0.0451 -0.2487
91363W        W34416   5.543  24.446  26.524  0.1238  0.0511  0.2094
91364W        W34417   7.571  12.007   3.628  0.3697 -0.0259  0.2627
91365W        W34418  12.359  20.512  17.346  0.0464 -0.1337  0.2516
91366W        W34419  18.765  24.285  18.522  0.2929 -0.1607  0.0264
91367W        W34420  10.690   2.464  15.026  0.2121 -0.0829 -0.0746
91368W        W34421  28.720  30.387  22.971  0.0208  0.1541  0.0378
91369W        W34422  19.407  24.951   4.544 -0.1452 -0.1207 -0.2330
91370W        W34423  19.810  12.430  17.293  0.2322  0.0149 -0.0837
91371W        W34424  33.612   5.657  17.989 -0.0750 -0.4225  0.2369
91372W        W34425  17.266  28.444   4.071  0.1347 -0.1064  0.0966
91373W        W34426  34.577  19.359  25.617  0.0594  0.0364 -0.0373
91374W        W34427   3.504   6.080  25.842  0.1844  0.1130 -0.2227
91375W        W34428  24.334  19.808  14.746  0.1464  0.0396 -0.1539
91376W        W34429  10.262   2.612  14.308  0.0717 -0.0852  0.0112
91377W        W34430   8.259  28.257  22.597  0.0214  0.0593  0.5021
91378W        W34431  30.992   3.122  18.906  0.2574  0.0505  0.0039
91379W        W34432  31.774  24.202  28.797 -0.1410  0.1705  0.1500
91380W        W34433  15.124  17.391  14.399 -0.3909 -0.0609 -0.1604
91381W        W34434  33.262  15.624  18.524 -0.1451 -0.0698  0.2173
91382W        W34435  30.096  27.819  19.017 -0.1160 -0.2242  0.1804
91383W        W34436   7.935   3.426  17.631  0.2940  0.1028 -0.1311
91384W        W34437   0.985  10.408  22.635  0.3330  0.1147  0.2752
91385W        W34438  19.470  23.095  24.866 -0.3482 -0.1868  0.1228
91386W        W34439  21.056  13.336  19.985 -0.2491 -0.0910 -0.0245
91387W        W34440  19.868  13.668  17.355 -0.0103 -0.3407  0.1145
91388W        W34441  25.138   6.807  27.867  0.1190 -0.0827 -0.0126
91389W        W34442  20.214   0.935  26.229  0.0979  0.0308 -0.0380
91390W        W34443  18.596   9.951  17.243  0.2115  0.0941  0.1240
91391W        W34444  22.213  23.878  21.373  0.2628 -0.0390  0.2591
91392W        W34445  26.760  27.304  24.535 -0.2118 -0.1519 -0.0834
91393W        W34446   1.844  28.301  20.560 -0.2136 -0.0866  0.4450
91394W        W34447   3.511  24.239  17.403 -0.0888 -0.1882  0.2108
91395W        W34448  29.099  18.247   5.477  0.1381  0.2521  0.1082
91396W        W34449  23.142  20.694  22.922 -0.0791  0.1088 -0.1425
91397W        W34450  14.223   1.544   8.254  0.1640 -0.0893 -0.1916
91398W        W34451  14.557  32.047  16.483 -0.1119 -0.1756  0.0833
91399W        W34452  29.174  26.376  22.544 -0.1137  0.3489  0.2194
91400W        W34453  23.271  16.152  16.193 -0.0202  0.0149  0.1670
91401W        W34454  30.083  31.056  17.803 -0.0386  0.2174  0.1534
91402W        W34455  13.001  20.561  15.771 -0.1982  0.1500 -0.0002
91403W        W34456  26.324  33.240  22.009 -0.0384  0.3359 -0.0288
91404W        W34457  20.849  29.830  14.990 -0.1024  0.1507 -0.3154
91405W        W34458  25.881  24.917  15.792 -0.1103 -0.0283  0.0944
91406W        W34459   0.354  11.205  17.631  0.4045 -0.2168 -0.1906
91407W        W34460  10.087  15.316  19.574 -0.1706 -0.0560  0.1346
91408W        W34461  23.139  32.710  18.162 -0.2708  0.1153 -0.2036
91409W        W34462  17.813  11.555  25.667  0.2897 -0.2163  0.0159
91410W        W34463  27.273  26.542  17.334  0.0854  0.3787  0.0714
91411W        W34464  13.896  12.220  19.170  0.0035  0.0055 -0.1738
91412W        W34465  14.050   7.548  17.921 -0.3121  0.0200  0.0316
91413W        W34466   3.533   0.213  24.460 -0.0800  0.3043 -0.4519
91414W        W34467  13.009  23.571  22.318 -0.6252  0.0298  0.1891
91415W        W34468  25.814  25.770  22.305  0.0878 -0.1400  0.1130
91416W        W34469   0.571  15.663  16.671 -0.1633 -0.0685 -0.1023
91417W        W34470  32.499  15.503  21.430  0.0142 -0.1310  0.1976
91418W        W34471  12.090  27.314  12.889 -0.1027  0.0560 -0.0323
91419W        W34472  27.633   5.698  15.645 -0.0325  0.1058 -0.0014
91420W        W34473  33.898  27.389  17.869 -0.1827  0.2275  0.3740
91421W        W34474  28.797  14.374  17.701  0.0671 -0.1348 -0.1875
91422W        W34475   3.879  12.384  21.758 -0.1722 -0.0643 -0.2355
91423W        W34476  26.453  24.171  22.385 -0.0963  0.0892  0.3016
91424W        W34477  18.361  18.358  28.060  0.2457 -0.0855  0.1985
91425W        W34478   9.188  14.698  20.470 -0.0670 -0.1870  0.4490
91426W        W34479   5.374  34.172  15.989 -0.0080 -0.0901  0.1131
91427W        W34480  29.250  33.515  18.430 -0.0217  0.2207  0.0485
91428W        W34481  22.151  27.604  15.345 -0.1627 -0.0809 -0.3665
91429W        W34482  29.928  26.608  21.393 -0.0281  0.2552 -0.1994
91430W        W34483   8.944  18.559  19.668  0.1379 -0.2886 -0.0043
91431W        W34484  18.949  34.157  27.574  0.0498  0.0568  0.2190
91432W        W34485   0.754  17.769  22.898 -0.1535 -0.0493 -0.0147
91433W        W34486   2.201   7.986  22.899  0.0108  0.0626  0.1193
91434W        W34487   0.532  12.138  23.723  0.2289  0.1108 -0.3929
91435W        W34488  12.856  26.736  21.857 -0.0071 -0.2288 -0.0302
91436W        W34489  20.024   6.633  18.434  0.0928 -0.0704 -0.2175
91437W        W34490  25.025   8.350  26.557 -0.0211 -0.1554 -0.3782
91438W        W34491  28.856  30.024  28.054 -0.0375 -0.1601  0.0337
91439W        W34492  14.837  26.835  20.944  0.0300 -0.2674 -0.2178
91440W        W34493  21.393  24.935  20.559 -0.1748  0.0106 -0.3179
91441W        W34494  11.165  32.694  27.365  0.3795  0.0391  0.4391
91442W        W34495  27.045  24.614  21.323 -0.2137  0.2536 -0.1284
91443W        W34496  11.424  20.489  16.266 -0.2250 -0.4348  0.0432
91444W        W34497  23.786  19.209  16.697  0.1060 -0.1804 -0.1216
91445W        W34498  29.185  15.016  22.394  0.1684  0.1081 -0.1373
91446W        W34499  20.831  11.319  17.386 -0.0285 -0.1761  0.0323
91447W        W34500  28.396  19.454   8.792  0.0656  0.1053 -0.1782
91448W        W34501  24.885  27.603  23.588  0.0798 -0.4965  0.1467
91449W        W34502  23.418  11.825  19.032  0.0354  0.0052 -0.2253
91450W        W34503   2.538  21.061  19.923 -0.1284 -0.0236  0.0064
91451W        W34504  13.028  16.751  21.813  0.0381 -0.0836 -0.3106
91452W        W34505  25.023   4.663  19.564 -0.0172  0.0014 -0.1047
91453W        W34506  16.794  25.259  17.459  0.1727 -0.4699  0.2520
91454W        W34507  26.704  25.891  27.778  0.2314  0.1721  0.2039
91455W        W34508  24.844  25.197  22.870 -0.1317 -0.0953 -0.1489
91456W        W34509  16.415   7.423  22.599  0.4619  0.0533 -0.1798
91457W        W34510  24.340  18.108  15.643 -0.0704 -0.2111 -0.2884
91458W        W34511  30.503   1.458  17.839 -0.1844 -0.2007  0.1285
91459W        W34512  20.347  14.890  15.930  0.0978  0.0656 -0.3495
91460W        W34513  33.638  32.699   2.301 -0.0089  0.6523  0.1911
91461W        W34514   1.771  17.399  21.957 -0.1499 -0.1440 -0.3563
91462W        W34515  27.608  29.036  15.121 -0.0614  0.1028  0.1140
91463W        W34516  17.931  11.054  15.300  0.2711 -0.0477 -0.0770
91464W        W34517  19.892  17.464  13.821 -0.2299 -0.1145  0.2453
91465W        W34518  26.964  13.100  19.353  0.2187 -0.2829 -0.0747
91466W        W34519  15.917  15.089  16.317  0.2550  0.1549 -0.1718
91467W        W34520  14.702  18.757   9.056 -0.0834  0.1718  0.0355
91468W        W34521  27.006  13.411  24.657  0.1423 -0.0187 -0.1342
91469W        W34522   6.270  12.247  20.113  0.1909 -0.1518  0.0249
91470W        W34523  12.695  24.952  15.776 -0.1275  0.0083  0.2137
91471W        W34524  11.602   9.982  23.070  0.0841 -0.1120 -0.0616
91472W        W34525  17.204  30.703  22.239 -0.2376  0.0852  0.4223
91473W        W34526  21.550  19.194  17.395  0.0336 -0.3030 -0.1205
91474W        W34527  30.591  27.891  19.879 -0.2430  0.0741 -0.0754
91475W        W34528  19.841  10.684  14.662  0.1532 -0.3378  0.1553
91476W        W34529  15.514  19.474  13.454 -0.1791  0.2666  0.0580
91477W        W34530  15.867   7.722  24.366  0.0803 -0.3014 -0.2502
91478W        W34531   6.394   2.660  27.873 -0.1574 -0.1149 -0.3271
91479W        W34532  30.069  25.639  16.150 -0.1467  0.2537  0.1052
91480W        W34533  13.491   8.378  19.590  0.0938 -0.4240  0.0463
91481W        W34534  24.286  30.245   9.253 -0.2790 -0.0593  0.2108
91482W        W34535   1.934  11.590  20.806  0.0009  0.1222 -0.3333
91483W        W34536  13.791  20.843  16.838 -0.2997 -0.0525  0.0126
91484W        W34537   3.318  20.588  16.929 -0.1916  0.0836 -0.1982
91485W        W34538   3.232  23.187  25.493  0.1567  0.2194  0.0753
91486W        W34539   0.718  20.053  15.339 -0.2000 -0.0604  0.2904
91487W        W34540  16.707  12.015  20.538  0.1152 -0.0027 -0.1631
91488W        W34541  22.181  24.668  24.876 -0.0420 -0.0777 -0.1979
91489W        W34542  18.113  28.891  16.686  0.0364  0.1217  0.1396
91490W        W34543  11.220  19.509  26.204  0.0649 -0.4506  0.2555
91491W        W34544  11.090  24.955  22.080  0.2174 -0.0931 -0.0946
91492W        W34545  19.487  18.760  21.295 -0.2838  0.0623 -0.1708
91493W        W34546  25.397  25.652  17.735  0.1633  0.1953 -0.4768
91494W        W34547  22.980  16.153  24.004 -0.1182 -0.0389  0.1588
91495W        W34548  12.161  27.873  19.706 -0.5588  0.0859 -0.3651
91496W        W34549  25.899   1.246  20.495 -0.0944 -0.1252  0.2448
91497W        W34550  12.565   8.911  17.900 -0.1264  0.4330 -0.0474
91498W        W34551  32.874  26.438  21.151  0.1001 -0.0032  0.0074
91499W        W34552  28.716  18.822  24.955  0.2525  0.0553 -0.1838
91500W        W34553  26.923  20.970  17.838  0.1282  0.1475 -0.0109
91501W        W34554   8.694  13.390  23.294  0.2754 -0.5704 -0.2621
91502W        W34555   8.738  26.212  28.617 -0.1650  0.1938  0.4085
91503W        W34556  25.547  18.185  24.392 -0.2296 -0.1101  0.1553
91504W        W34557  27.669   6.843  23.463  0.1743 -0.1145 -0.1150
91505W        W34558  24.190  29.687  28.297  0.1143  0.0137  0.1983
91506W        W34559  27.451  11.741  16.152 -0.2472  0.3029 -0.0787
91507W        W34560  30.426  15.166   3.920 -0.1773 -0.1445  0.1329
91508W        W34561   1.008   4.763   2.438  0.2256  0.0784  0.0886
91509W        W34562  24.774  33.868  23.708  0.0852 -0.0909  0.0769
91510W        W34563  11.545  19.425   9.062 -0.1889  0.0908 -0.0609
91511W        W34564  15.226  25.773  26.397  0.1367  0.0211 -0.2335
91512W        W34565  12.900  22.664  15.668  0.2175  0.1144  0.0666
91513W        W34566   8.485   4.745  28.977  0.0633  0.4200  0.0361
91514W        W34567  21.005   2.533  17.303 -0.1162 -0.0971  0.1085
91515W        W34568   3.049  16.961  18.391 -0.0081 -0.2051 -0.2780
91516W        W34569  26.955   7.565   2.270 -0.0913  0.0972  0.3011
91517W        W34570  30.498  23.199  20.346  0.0359 -0.1415 -0.0122
91518W        W34571  16.663  34.620  20.011  0.1409  0.0252  0.0127
91519W        W34572  30.693   5.465  26.839  0.1200 -0.1225  0.3779
91520W        W34573  11.860  18.734  26.879  0.1741 -0.1321  0.3513
91521W        W34574  24.836  16.182  17.665  0.2818 -0.1796  0.0814
91522W        W34575   5.974  21.091   1.183  0.0328  0.2397  0.0296
91523W        W34576  18.807  10.676   4.531  0.4247  0.2738 -0.1482
91524W        W34577  32.720  28.135  19.628 -0.1164  0.0608 -0.2787
91525W        W34578  17.844  15.993  19.012 -0.0022 -0.0658  0.0164
91526W        W34579  26.692   9.477  14.320 -0.0438 -0.0391 -0.2200
91527W        W34580  21.519   9.142  17.632 -0.0359 -0.0927 -0.1668
91528W        W34581   2.737  31.884  13.935  0.1655 -0.1884 -0.1023
91529W        W34582  25.831   5.631  14.154 -0.1324  0.0403 -0.1358
91530W        W34583  16.071  25.980  20.330 -0.0298 -0.2295 -0.1232
91531W        W34584  26.754  31.040  24.539 -0.0948  0.0356  0.3165
91532W        W34585  15.962  32.916  14.486  0.2967 -0.0791 -0.1108
91533W        W34586   5.835   3.433  17.750 -0.0659  0.0440  0.0323
91534W        W34587  19.637  26.397  28.122  0.2549 -0.2961  0.2618
91535W        W34588  19.602  32.880  18.243 -0.3523 -0.0683 -0.0943
91536W        W34589  13.322  24.455  24.020  0.1458 -0.1262  0.4036
91537W        W34590  15.859  24.228  22.598 -0.2732  0.2189 -0.1470
91538W        W34591  23.159  24.359  25.992  0.2003 -0.3381  0.1002
91539W        W34592   4.098   5.561  22.916  0.1750  0.0837 -0.2366
91540W        W34593  10.291   0.835   1.328  0.2374 -0.3636 -0.3751
91541W        W34594  19.604  11.810  24.241 -0.3061 -0.1257  0.0963
91542W        W34595  26.014  20.265  23.971  0.2322 -0.2123 -0.0653
91543W        W34596  31.127  26.859  27.864 -0.0151 -0.0342 -0.3005
91544W        W34597  27.310  30.351  17.567  0.1497  0.1905  0.0103
91545W        W34598  30.566  30.852   5.208 -0.0641 -0.1548  0.0306
91546W        W34599  11.536  19.666  17.634 -0.1544 -0.0390  0.1293
91547W        W34600  11.645  11.447  23.646  0.1241  0.0487 -0.2137
91548W        W34601   9.593  16.701  14.683  0.1397 -0.0675 -0.1316
91549W        W34602  14.857  33.594  28.420 -0.0915 -0.2604  0.3539
91550W        W34603  18.785  18.683  22.783 -0.6917 -0.0970  0.0983
91551W        W34604  24.592   4.782  28.111  0.0124 -0.2376 -0.1059
91552W        W34605  24.428  21.693  18.966  0.0291 -0.0745  0.2184
91553W        W34606  33.368  22.837  27.555 -0.2814 -0.3272  0.3851
91554W        W34607  31.469   4.762  19.550 -0.2634 -0.1301  0.2502
91555W        W34608  13.232   9.565  24.259 -0.1934  0.3000 -0.0291
91556W        W34609  10.226  11.444  16.699 -0.0691 -0.0751 -0.1932
91557W        W34610  30.034  23.201  20.828  0.0155  0.0159 -0.0776
91558W        W34611  33.129  32.352  16.855  0.1179 -0.1631 -0.0086
91559W        W34612  24.394  20.088   1.462  0.1183  0.2486 -0.0762
91560W        W34613  24.261  33.630  18.056  0.0672 -0.1548 -0.0296
91561W        W34614  21.822  15.619  16.783 -0.2204  0.0183  0.0383
91562W        W34615  26.506  24.016   6.753  0.1698 -0.1840  0.2562
91563W        W34616  33.003   3.122  17.813 -0.2006 -0.1568  0.0528
91564W        W34617  19.464  17.338   5.354  0.3685 -0.4612  0.3835
91565W        W34618  24.687  13.247  20.403  0.0066 -0.1765  0.0768
91566W        W34619  26.253   1.476   9.030 -0.2073 -0.3408  0.1201
91567W        W34620  12.547  17.051  21.050  0.2025  0.1964 -0.3617
91568W        W34621  26.720  31.591  20.498  0.1407 -0.4575 -0.0414
91569W        W34622  10.473  19.142  19.783  0.0694 -0.0500 -0.0621
91570W        W34623  14.777  33.592  18.887  0.0714  0.2967 -0.2514
91571W        W34624  20.267   4.786  22.776  0.0096  0.0217  0.4581
91572W        W34625  15.892  24.398  23.076  0.0455  0.0406 -0.2265
91573W        W34626  11.666  17.059  14.397  0.2969  0.2479  0.5295
91574W        W34627   9.500  26.176  16.937  0.1541  0.1337  0.0028
91575W        W34628   8.201  18.049  19.630 -0.5481 -0.0313 -0.4020
91576W        W34629  24.070  24.006  20.043 -0.1404 -0.1870 -0.1769
91577W        W34630  29.203   0.387  16.536 -0.4914  0.1878  0.2018
91578W        W34631  33.922  31.056  28.833  0.1464 -0.1438  0.0369
91579W        W34632   2.646  16.335   3.757 -0.0984  0.0578  0.1706
91580W        W34633  21.066  25.707  20.020 -0.0729  0.3774 -0.0969
91581W        W34634  17.153  24.854  21.085 -0.0294 -0.0619 -0.5349
91582W        W34635  29.139  32.131  20.521  0.1100  0.0118 -0.4151
91583W        W34636  18.446  11.389  24.493  0.3067  0.3155  0.2318
91584W        W34637  28.419  26.769  20.318 -0.1382 -0.5089  0.2813
91585W        W34638  31.012  26.419  22.648 -0.0903 -0.4175 -0.3127
91586W        W34639  21.991  21.870  16.915  0.0911  0.0562 -0.2272
91587W        W34640  30.336  24.365  14.306  0.0665  0.0656  0.1006
91588W        W34641  29.067  28.834  15.150 -0.0566  0.1417  0.2004
91589W        W34642  22.550  20.104  19.907  0.0936 -0.2963 -0.1303
91590W        W34643  25.194   2.125  18.852  0.1560  0.0406  0.0609
91591W        W34644  16.931  26.233  15.429  0.0169 -0.2051  0.3106
91592W        W34645  18.494  27.538  17.580  0.0805  0.1588 -0.0119
91593W        W34646   1.694  24.693   1.389 -0.3526 -0.1387 -0.1529
91594W        W34647  25.594  21.931  24.142  0.0591  0.0064 -0.0592
91595W        W34648  10.735  20.423   2.441  0.0956  0.0554  0.0398
91596W        W34649  26.155  27.610   5.442  0.1086 -0.0396  0.3544
91597W        W34650  16.772  26.749  23.624  0.0511 -0.0496 -0.2887
91598W        W34651  21.384  14.326  15.515 -0.0189  0.1859  0.1537
91599W        W34652  15.323   6.379  21.205  0.1379  0.3280  0.0179
91600W        W34653  26.467  31.185  14.513  0.0729 -0.3222  0.1436
91601W        W34654  12.279  22.503  22.356 -0.4127 -0.0176 -0.0503
91602W        W34655  14.264  15.237  24.482 -0.0790 -0.0564  0.1045
91603W        W34656  26.479  18.650  19.031  0.2108 -0.2369 -0.1965
91604W        W34657  19.924   4.740  25.099  0.0060 -0.1005 -0.0507
91605W        W34658  17.590  29.967  17.416  0.3155  0.0709 -0.0033
91606W        W34659  21.439  24.664   4.084 -0.0786 -0.1373 -0.1088
91607W        W34660  23.410  21.527  18.597 -0.2919  0.1162 -0.0593
91608W        W34661  22.588   7.177  24.932  0.1129 -0.3103  0.1274
91609W        W34662  18.660  11.518  14.311 -0.1511 -0.2941 -0.1449
91610W        W34663   7.229  18.909  16.237 -0.0163 -0.0424 -0.1538
91611W        W34664  10.406  18.873   2.747  0.0477  0.0637  0.2800
91612W        W34665   5.798   5.653  23.237  0.3325  0.1533 -0.0583
91613W        W34666   4.709  17.110  22.402 -0.1027 -0.0079  0.2255
91614W        W34667  21.378   3.278  28.106  0.2748 -0.2812 -0.1663
91615W        W34668  17.593  19.329  26.126 -0.2483 -0.0000  0.1415
91616W        W34669   7.766  30.589  15.748 -0.0774 -0.2332 -0.0659
91617W        W34670  32.219  27.483  26.296 -0.1230 -0.1775 -0.0397
91618W        W34671  32.334  20.937  29.078  0.1262  0.3179  0.1792
91619W        W34672   7.913  22.672  22.473  0.1079 -0.1322 -0.0089
91620W        W34673  20.246  23.860  15.701 -0.1629  0.3509  0.1169
91621W        W34674  15.560  10.323  17.684  0.1009 -0.1717 -0.1081
91622W        W34675  33.242  13.419  28.378 -0.4699  0.0815  0.2317
91623W        W34676  20.707   4.315  14.085  0.1287  0.1439 -0.0369
91624W        W34677   1.012  25.107  27.274 -0.1436  0.2013  0.0251
91625W        W34678   9.180  34.594   6.305  0.0511 -0.1242 -0.0040
91626W        W34679  23.859  23.031  16.151 -0.0207  0.1958  0.1214
91627W        W34680  11.041  24.638  19.033 -0.1257  0.0233 -0.1042
91628W        W34681  28.647  26.411  17.021  0.3313  0.2005 -0.1178
91629W        W34682  15.168   3.488  21.172  0.1756  0.2034  0.2126
91630W        W34683  14.031  13.465  19.149 -0.3296  0.3367  0.0186
91631W        W34684  19.488   8.407   9.488  0.0158 -0.0094  0.2788
91632W        W34685  14.153  15.696  15.924 -0.1549  0.0895  0.0211
91633W        W34686  24.128  23.812  14.508  0.0284 -0.3862 -0.3621
91634W        W34687  25.319  22.306  24.345 -0.2280 -0.1018 -0.1044
91635W        W34688  21.052  31.109  16.994  0.0163 -0.0661 -0.0772
91636W        W34689  26.246  18.566  21.010 -0.1548 -0.0676 -0.1320
91637W        W34690  22.653  16.009  23.672 -0.0364 -0.0386  0.2012
91638W        W34691  31.522   7.116  25.386 -0.0951 -0.1371 -0.0762
91639W        W34692  29.834   3.099  19.547  0.1665 -0.3416 -0.0152
91640W        W34693  23.975  20.313  20.553 -0.1501  0.2707 -0.0094
91641W        W34694  32.727   9.574  23.918 -0.0638  0.0704 -0.0290
91642W        W34695  28.818  19.148  21.059  0.0609 -0.2520 -0.2820
91643W        W34696  18.053  18.041  24.392  0.0974  0.1789 -0.1233
91644W        W34697   0.917  22.350   4.510 -0.0516 -0.2886  0.1859
91645W        W34698  26.950  21.039  21.328 -0.3321  0.0593  0.0250
91646W        W34699  24.906  20.472  28.796  0.0129 -0.0813 -0.3574
91647W        W34700   8.517  13.016  20.663  0.2963  0.0180  0.0721
91648W        W34701  12.221  34.550  28.647 -0.2251  0.1964  0.0509
91649W        W34702  19.080  11.826  23.935 -0.4240 -0.1708  0.4601
91650W        W34703  30.135  27.464  18.360 -0.1013  0.2593 -0.2448
91651W        W34704  17.339   3.315  25.141 -0.1690 -0.0233  0.0363
91652W        W34705   5.421  23.982  20.798  0.1621 -0.2469  0.1816
91653W        W34706  19.167  30.271  21.299  0.3271 -0.1214 -0.0517
91654W        W34707   0.409  14.382  16.332 -0.1929 -0.5388  0.2360
91655W        W34708  12.576  29.734  22.561 -0.1652 -0.0770 -0.1627
91656W        W34709  31.149  15.457  14.345  0.0523  0.1593  0.2612
91657W        W34710  23.881  27.351  24.222 -0.1742 -0.0128 -0.1249
91658W        W34711  27.340  14.436  24.768 -0.0052 -0.3481 -0.0885
91659W        W34712  15.352  11.276  18.825 -0.0420 -0.0254  0.1914
91660W        W34713  25.932  32.121  23.082  0.1344 -0.1307 -0.2011
91661W        W34714  34.130  13.939  14.335 -0.0679 -0.2744 -0.3314
91662W        W34715  22.415  27.983  15.810 -0.0755  0.0357 -0.0210
91663W        W34716  33.461  16.768  15.703  0.0574 -0.0270 -0.1288
91664W        W34717  31.463  20.871  25.980  0.0818 -0.0488 -0.3550
91665W        W34718  12.102  24.787  23.263  0.2458  0.1014  0.3206
91666W        W34719  33.197  19.724  20.934  0.2183  0.1239 -0.3180
91667W        W34720  26.808  10.753  16.146 -0.0298  0.1768 -0.0553
91668W        W34721  33.685  24.510  24.820  0.0650  0.3678  0.1108
91669W        W34722  20.689  13.877  24.037  0.2835 -0.0466  0.1266
91670W        W34723  19.038  31.562  22.802 -0.0077 -0.1199 -0.1230
91671W        W34724  22.735  19.002   1.857  0.0735 -0.1755  0.0178
91672W        W34725  16.861  17.188  20.164  0.1312 -0.0460  0.3623
91673W        W34726  11.256  21.517  20.621 -0.1252 -0.1152 -0.5208
91674W        W34727  22.596  34.621  20.424 -0.1959 -0.0033  0.0557
91675W        W34728  17.093   1.478  15.245  0.0302  0.4378 -0.0753
91676W        W34729  26.438  29.724  20.657 -0.0867 -0.1844 -0.1087
91677W        W34730  33.203  10.996  24.992 -0.0391 -0.0786 -0.1388
91678W        W34731  15.710  16.210  19.475 -0.1325  0.2067 -0.0640
91679W        W34732   7.559   6.550  27.587  0.1381  0.0778 -0.0065
91680W        W34733  12.205  17.632  27.459  0.1323  0.1551 -0.0843
91681W        W34734   6.806  28.202  15.876 -0.0800  0.0347  0.0340
91682W        W34735  28.802   5.002  27.683  0.0023 -0.2948 -0.1558
91683W        W34736  14.745  17.402   3.718 -0.3556 -0.1754  0.2449
91684W        W34737  18.623  14.639  13.757  0.1595 -0.1102 -0.3539
91685W        W34738  26.639   9.776  17.450 -0.0940  0.1595 -0.2835
91686W        W34739  14.311   3.610  26.233  0.3105 -0.1617  0.3125
91687W        W34740   4.200   9.321  24.364  0.0175  0.1327  0.2310
91688W        W34741  21.698  20.744  27.017  0.3767 -0.1480 -0.1077
91689W        W34742  24.566   7.609  19.302 -0.2651 -0.0211 -0.0806
91690W        W34743  18.663  24.617  28.925 -0.3667 -0.1699 -0.2690
91691W        W34744  16.397  24.397  20.049  0.1767 -0.2616  0.1528
91692W        W34745  28.691  11.228  18.518  0.1299 -0.2351 -0.1445
91693W        W34746  24.782  26.843  14.852 -0.0659  0.0076  0.0096
91694W        W34747  27.635  17.218  15.457 -0.1719  0.1207 -0.0028
91695W        W34748  22.875  26.379  19.435  0.0199  0.1202  0.1425
91696W        W34749  32.334  31.473   2.305 -0.2081  0.0183  0.0066
91697W        W34750  22.095  19.476  14.617  0.0624 -0.0940 -0.2431
91698W        W34751   6.471   5.029  18.090  0.0956  0.0741 -0.0111
91699W        W34752  31.036  16.180  21.088  0.2069 -0.1351  0.3652
91700W        W34753  19.726   8.066  22.920  0.0833  0.2116  0.1236
91701W        W34754  25.557  14.549  23.488  0.3299 -0.2432 -0.3022
91702W        W34755  23.734  14.563   0.203  0.0393 -0.2355 -0.0944
91703W        W34756  26.201   5.473  28.348  0.1662 -0.2777 -0.1612
91704W        W34757   5.095  22.934  23.050 -0.0414  0.0200 -0.3092
91705W        W34758  25.432  27.367  21.172  0.1658  0.2637  0.0236
91706W        W34759   7.817  12.460   6.569  0.1145  0.2169 -0.1994
91707W        W34760  11.544  22.022   3.099  0.2384 -0.1313  0.0345
91708W        W34761  15.779  24.878  24.904 -0.0089 -0.0660 -0.2144
91709W        W34762  11.662  24.613  17.639  0.2822 -0.5135 -0.2268
91710W        W34763  13.083  29.759   1.515  0.1681  0.2195  0.1784
91711W        W34764  11.411  31.256  23.022  0.1899  0.0899 -0.0486
91712W        W34765  11.874  30.449   5.270 -0.1639  0.0686  0.0412
91713W        W34766  12.642  25.915  25.591 -0.1643  0.0779  0.1329
91714W        W34767  17.615  15.646  17.859  0.1733 -0.0859 -0.0830
91715W        W34768  20.453  21.407  26.896 -0.2608  0.4290 -0.1962
91716W        W34769   5.665  25.776  18.848 -0.2464 -0.2267 -0.0614
91717W        W34770  18.457  22.197   8.993  0.0376 -0.3294 -0.0569
91718W        W34771   3.224  13.928  22.202 -0.1691  0.3205 -0.1608
91719W        W34772  11.858   0.170  25.266 -0.1176 -0.0291 -0.0142
91720W        W34773  28.420  15.110   6.793 -0.0727  0.2011 -0.3717
91721W        W34774  32.667   4.116  17.844 -0.1019  0.0403 -0.2321
91722W        W34775   8.984  22.591   5.577 -0.2537  0.1973  0.1360
91723W        W34776  22.217  14.179  28.680 -0.2271  0.3002 -0.0717
91724W        W34777  20.582  22.348  15.197 -0.2157 -0.1398  0.2259
91725W        W34778  15.490  24.022  15.726 -0.0201 -0.0565  0.4331
91726W        W34779  19.664   0.576  22.660 -0.2337  0.2160  0.0536
91727W        W34780  21.062  19.062  22.042  0.0076  0.1908  0.1869
91728W        W34781  19.876  34.336  16.792  0.2375 -0.3172  0.2938
91729W        W34782  18.673  23.478  24.620 -0.1231  0.1102 -0.2802
91730W        W34783   6.539  23.220  26.527  0.0282 -0.0145  0.0141
91731W        W34784  31.332  14.125  22.822 -0.1301  0.3281 -0.0775
91732W        W34785  19.494  10.982  24.785 -0.2387 -0.2240  0.3771
91733W        W34786  18.502  29.142  16.838 -0.2133 -0.0415  0.1617
91734W        W34787  19.805   5.839  24.272  0.3076  0.0696 -0.0414
91735W        W34788  24.754  33.982  20.522 -0.0814 -0.1153  0.0294
91736W        W34789  31.396  18.425   8.209 -0.4040  0.3405 -0.1182
91737W        W34790  25.565  27.616  24.978  0.0081 -0.3028  0.1209
91738W        W34791  10.645  20.756   3.918  0.1036 -0.2239 -0.3414
91739W        W34792  22.676  33.312  24.181  0.0470 -0.1831  0.0595
91740W        W34793  27.483  21.089  28.229 -0.1962  0.0005  0.0052
91741W        W34794  25.849  33.757  26.800 -0.0694  0.4053 -0.1064
91742W        W34795  30.007   6.487  20.645  0.0357  0.0679  0.1693
91743W        W34796  34.149  23.764  23.443 -0.0840 -0.2739 -0.2529
91744W        W34797  24.491  30.715  24.729 -0.0883  0.0444 -0.1092
91745W        W34798  22.825  27.462   0.999 -0.0185  0.0813  0.1592
91746W        W34799  18.767  28.910  24.434  0.0694  0.2056 -0.1777
91747W        W34800  21.519  19.882  14.701  0.1145  0.1655 -0.0037
91748W        W34801  14.621  12.777  26.580  0.0656 -0.2417  0.0303
91749W        W34802  28.108  33.135  20.008 -0.1568 -0.2462  0.1867
91750W        W34803  13.173  25.021   6.303  0.0761  0.1566 -0.0687
91751W        W34804  26.684  23.964  14.145 -0.0330 -0.1276 -0.0294
91752W        W34805   0.118   9.907  26.971  0.0095 -0.0116  0.1942
91753W        W34806   6.141  30.993  19.755  0.0791  0.1061 -0.1311
91754W        W34807  22.326  22.916   4.698  0.0567 -0.0738 -0.0213
91755W        W34808  23.686   8.491  22.197  0.3392  0.0119 -0.2927
91756W        W34809  29.322  31.304   0.066 -0.0420 -0.0882 -0.0442
91757W        W34810   3.154  14.031   5.362 -0.0531  0.0675 -0.0935
91758W        W34811  29.059  10.760  17.186 -0.1941 -0.0744  0.1301
91759W        W34812  34.492  12.218  17.397 -0.1565 -0.3690 -0.2209
91760W        W34813  26.252  12.991   1.933 -0.0925  0.0620  0.3009
91761W        W34814  26.612  27.872  22.546 -0.0236  0.0015  0.3437
91762W        W34815   5.544  21.687   4.844 -0.1489 -0.1232  0.1920
91763W        W34816  33.633   5.156  25.314  0.3011  0.1915  0.0201
91764W        W34817   8.517  32.102  14.763 -0.2227  0.0740 -0.3827
91765W        W34818   5.393   2.706   0.051 -0.2391  0.1656  0.1906
91766W        W34819  20.641  32.354   3.726 -0.0715  0.4232  0.0914
91767W        W34820  19.287  15.716   4.237  0.2093  0.1611 -0.1683
91768W        W34821  17.589  17.879  23.565 -0.1681  0.2189  0.0948
91769W        W34822   7.085  22.251   1.555 -0.0642  0.0650 -0.1810
91770W        W34823  22.148  27.713  20.239  0.1034 -0.1508  0.1536
91771W        W34824  19.315   8.145   8.451 -0.0894  0.1358  0.2193
91772W        W34825  19.870  12.965  26.605 -0.1287 -0.1952 -0.2339
91773W        W34826  32.666  19.357  13.603 -0.0223  0.0900 -0.0365
91774W        W34827  13.604  25.115  16.261 -0.0295 -0.0368  0.0078
91775W        W34828  31.586  27.519  27.272 -0.1639  0.1169 -0.4230
91776W        W34829  17.302  27.830  14.665 -0.0012  0.0583  0.2264
91777W        W34830  26.891   1.967  25.164 -0.0027 -0.2577 -0.0034
91778W        W34831   7.167  23.788  26.467  0.0478  0.3511 -0.0619
91779W        W34832  25.042  26.080   4.135 -0.0492  0.0062  0.1026
91780W        W34833  20.924  24.757   0.946 -0.0136  0.0997  0.4525
91781W        W34834  28.667  28.631  18.271 -0.2069  0.0481 -0.0117
91782W        W34835  24.132  16.581   3.063 -0.0337 -0.1583 -0.1018
91783W        W34836  10.762  18.625  28.131  0.1224  0.0719 -0.1370
91784W        W34837  28.272   9.590   4.256 -0.3380 -0.1209  0.0055
91785W        W34838  19.770  12.223  27.281 -0.2450  0.0871 -0.0356
91786W        W34839  19.343  26.303  22.738 -0.1059  0.0008  0.1922
91787W        W34840  30.502  23.535  16.003  0.0240 -0.1000 -0.1316
91788W        W34841  31.900   4.075   0.799  0.0850 -0.1986  0.0095
91789W        W34842  17.841  20.019  25.318  0.0042  0.1614 -0.1050
91790W        W34843  22.272  21.297  26.800 -0.0514 -0.0099 -0.0790
91791W        W34844  12.748  21.145   1.923 -0.1084 -0.0357  0.1567
91792W        W34845  28.948  31.096  22.396 -0.3237  0.0980  0.1638
91793W        W34846  33.708  24.668  27.178 -0.2674  0.2939  0.1101
91794W        W34847  16.397  15.864  18.489 -0.2266  0.3133  0.0936
91795W        W34848   4.900  15.945  16.594  0.1685 -0.0976 -0.0333
91796W        W34849   3.317  16.028   2.617  0.2572 -0.0131 -0.2150
91797W        W34850  30.990  30.521  23.750 -0.3219  0.1960 -0.0703
91798W        W34851  25.546  22.931  25.742  0.3554  0.1931 -0.1103
91799W        W34852   8.977   0.868  23.171 -0.2265 -0.0119 -0.2280
91800W        W34853   8.482  13.750  15.881 -0.1574 -0.0519  0.3486
91801W        W34854  13.385  34.047  14.661  0.2351 -0.4300  0.1428
91802W        W34855  13.557  21.023   4.016  0.0692  0.1324  0.0713
91803W        W34856   9.987  34.282   3.280 -0.2596 -0.0944 -0.0246
91804W        W34857  23.079  18.587   5.908  0.1339 -0.2126  0.4009
91805W        W34858  32.373  15.988  21.216 -0.1665  0.1260  0.1673
91806W        W34859  19.936  32.055   2.711  0.0930 -0.2229 -0.2215
91807W        W34860   1.867   1.921   7.007  0.1333  0.0094  0.0311
91808W        W34861   5.708  13.363  21.621 -0.0729 -0.0074  0.2332
91809W        W34862  27.795  10.361  19.541  0.1647  0.2394  0.2631
91810W        W34863  25.191  29.647  24.319 -0.1061  0.0507  0.2047
91811W        W34864  24.343  31.113  15.262 -0.0466 -0.1705  0.0800
91812W        W34865  26.527  27.685   0.119  0.3374  0.0899  0.3908
91813W        W34866  26.735  19.538   6.890 -0.0777 -0.0188  0.2904
91814W        W34867  22.175  13.244   2.686 -0.1047 -0.1806  0.2471
91815W        W34868  28.022  20.361  13.901  0.0616 -0.1091 -0.2143
91816W        W34869   3.851  13.563   4.870  0.0006 -0.1244 -0.0178
91817W        W34870  23.767  21.657  23.410 -0.0493 -0.0192 -0.4046
91818W        W34871  21.029  22.397  24.587 -0.0705 -0.0154 -0.3879
91819W        W34872  25.718  12.857   4.455 -0.1004  0.1401  0.0165
91820W        W34873  33.676  16.612  20.860 -0.2092 -0.1193 -0.0059
91821W        W34874  20.759  23.478  25.000  0.0707 -0.1247 -0.4309
91822W        W34875  26.617  18.275  28.204 -0.0773 -0.0130 -0.0039
91823W        W34876  24.460  23.238  26.858  0.2633 -0.0098  0.0055
91824W        W34877  10.186   3.326   8.559 -0.0374  0.2284 -0.2169
91825W        W34878  18.852   1.611  21.952  0.0335 -0.1977 -0.1325
91826W        W34879  28.940   3.944  15.980 -0.2051  0.1892 -0.2236
91827W        W34880  19.149  22.256  15.188 -0.0713  0.0091  0.2288
91828W        W34881  16.834  18.645  18.655 -0.1128  0.1250 -0.0725
91829W        W34882  18.368   0.508   1.954 -0.1088 -0.2638  0.1671
91830W        W34883  21.082  11.318  26.625  0.1698  0.0258 -0.1598
91831W        W34884  22.785  29.876   5.149  0.3496 -0.1413 -0.0593
91832W        W34885  14.365  22.949  20.628 -0.0105  0.2959 -0.2152
91833W        W34886   4.341  25.838  21.776 -0.3589 -0.2389  0.2613
91834W        W34887  22.301   8.856  19.979 -0.1455 -0.2436 -0.1606
91835W        W34888  22.648  28.721  23.635 -0.0548  0.1029 -0.3046
91836W        W34889  14.810  14.424  15.790 -0.2140 -0.0083  0.0067
91837W        W34890   4.512  19.918  19.457 -0.0975 -0.3226  0.0095
91838W        W34891  22.482  33.483  28.280 -0.0119  0.2365 -0.0949
91839W        W34892  26.190  32.397  21.119  0.2095  0.0274  0.0806
91840W        W34893   1.562  15.810  26.459  0.0487 -0.0088  0.1475
91841W        W34894   4.488  29.800  25.189  0.4012  0.0717 -0.4976
91842W        W34895   2.324  27.654  24.883 -0.2029 -0.0133  0.4512
91843W        W34896  26.839   9.799  24.179 -0.0753  0.0831 -0.0517
91844W        W34897  17.353  14.218  21.674 -0.2279 -0.0002  0.0741
91845W        W34898   0.370  30.532  25.562  0.0144 -0.0302 -0.1061
91846W        W34899  20.754  25.963  28.237 -0.2078  0.0999  0.1194
91847W        W34900  24.431   6.442   3.924 -0.1662  0.1029 -0.0754
91848W        W34901  34.611  18.150  23.496  0.0064  0.1406  0.0807
91849W        W34902  18.921  14.452   0.298 -0.1238 -0.0843 -0.2287
91850W        W34903   3.102  26.997  21.930 -0.4313  0.1429 -0.1531
91851W        W34904  25.501  27.953  18.013 -0.3012 -0.3360  0.0734
91852W        W34905  22.113  15.094   0.445 -0.0865  0.0325  0.0275
91853W        W34906  15.903  18.733  25.680 -0.0886 -0.1140 -0.3066
91854W        W34907  25.673  16.086  22.857 -0.1210  0.0801  0.2016
91855W        W34908   3.224  22.427  28.319 -0.3042  0.1492  0.2650
91856W        W34909  29.415  10.339  24.888  0.0918 -0.0044  0.1589
91857W        W34910   8.089  27.701   0.241  0.3563 -0.1383  0.2386
91858W        W34911  18.188  24.760  16.571  0.0272  0.1782  0.0704
91859W        W34912  15.850  24.336   8.754  0.2029  0.2654  0.0163
91860W        W34913  28.499  21.726   2.110  0.1863 -0.2360 -0.1232
91861W        W34914  28.092   7.050  22.656 -0.0884  0.1751 -0.0261
91862W        W34915  20.522  16.117  23.173  0.2075 -0.0147 -0.1109
91863W        W34916  29.919  10.517  27.277  0.1255 -0.0670 -0.0951
91864W        W34917  28.232  20.999  18.852  0.0546  0.0712 -0.0190
91865W        W34918  18.563   7.362  17.426  0.3209  0.0665  0.2299
91866W        W34919  14.950  27.886  28.046  0.3753 -0.1955  0.0769
91867W        W34920  27.204  12.972  26.774 -0.0861  0.3046  0.3211
91868W        W34921  20.087  25.264  27.656  0.0568  0.1187  0.2755
91869W        W34922  12.656  20.470  21.154 -0.0506  0.0214  0.1496
91870W        W34923  28.758  25.674  23.165 -0.0089 -0.3932  0.1635
91871W        W34924  28.392  34.506  15.824  0.2356  0.1106  0.0291
91872W        W34925  16.960  26.606  22.987  0.0538 -0.0827  0.3640
91873W        W34926  10.200  29.424  18.476  0.3096 -0.3884 -0.2679
91874W        W34927   0.745  16.180  26.730  0.0853  0.0926  0.1574
91875W        W34928  22.249   5.316  27.904 -0.0419  0.0193 -0.1200
91876W        W34929  29.642  26.940   6.042  0.2680  0.3545 -0.1392
91877W        W34930  16.669   5.568  19.927 -0.0473  0.1005  0.2542
91878W        W34931  18.720   9.319  19.210 -0.0415  0.0335 -0.0780
91879W        W34932   1.407   2.832  27.823 -0.0148  0.0834  0.0077
91880W        W34933  12.855   0.692   7.732  0.1229  0.0810  0.0990
91881W        W34934  23.580  22.787  26.986  0.2411  0.1457  0.3951
91882W        W34935  23.079  19.461   4.177  0.2503  0.0039 -0.0048
91883W        W34936   6.722  28.629  17.771 -0.1837  0.1983 -0.0513
91884W        W34937  21.169  22.546   9.011 -0.0728 -0.0300 -0.1408
91885W        W34938  16.130  28.519   2.725 -0.1138  0.1097 -0.1522
91886W        W34939  17.997  22.953  26.546  0.2334 -0.2750  0.1618
91887W        W34940  21.819  13.902   7.284 -0.0239  0.1864  0.1195
91888W        W34941  20.747  12.012  23.488  0.0644  0.0137  0.1735
91889W        W34942  16.243  19.675   2.775 -0.2826  0.0527  0.1016
91890W        W34943  11.307  23.221   3.620 -0.0543 -0.1670  0.0015
91891W        W34944  24.130  26.657  22.410 -0.2569 -0.0120 -0.1504
91892W        W34945  22.944  21.257  19.066  0.0489  0.0326  0.1488
91893W        W34946  31.568  33.010  25.170 -0.0823  0.3060  0.1336
91894W        W34947  14.023   1.609  19.840 -0.1487 -0.2597  0.0504
91895W        W34948  10.526  22.779  20.715 -0.1626 -0.2239  0.2230
91896W        W34949  11.294  23.703   2.208 -0.2248  0.0376 -0.1411
91897W        W34950  20.347  20.192  27.640 -0.1267  0.0242 -0.0778
91898W        W34951   7.653  17.088  16.932 -0.2775  0.0228 -0.0697
91899W        W34952  10.986  18.549  18.551 -0.2739 -0.0174  0.0414
91900W        W34953  29.733  27.544  26.990 -0.0076 -0.2588 -0.1636
91901W        W34954  18.332  15.033   2.102 -0.0998  0.0003  0.1486
91902W        W34955   9.167  33.277  27.415 -0.0330  0.2171  0.0601
91903W        W34956  32.075  22.814  25.493  0.3510  0.1779 -0.2908
91904W        W34957   4.102  23.982   1.156 -0.0146 -0.0212 -0.1777
91905W        W34958  20.635  24.741   0.393 -0.2727 -0.2257  0.1304
91906W        W34959   5.649  14.994  22.028  0.1298  0.3599 -0.0824
91907W        W34960  29.935  22.788  26.717 -0.0257 -0.2065 -0.1586
91908W        W34961  20.381  30.013  26.069  0.0126 -0.0606  0.2294
91909W        W34962  31.532  24.418  17.234 -0.0539  0.0742 -0.0833
91910W        W34963  11.051   3.302  18.661 -0.1233  0.1031  0.1162
91911W        W34964  21.319  24.057  10.483  0.1309  0.0759 -0.0804
91912W        W34965   8.415  15.273  16.773  0.0402 -0.0420  0.1054
91913W        W34966  19.163  17.648  18.559  0.0552  0.0513  0.0510
91914W        W34967  26.102  26.768  14.427 -0.1429  0.0603 -0.1475
91915W        W34968   9.423  30.989  16.084  0.1769 -0.0025  0.1479
91916W        W34969  20.863  27.756  16.661  0.1014 -0.2664  0.0996
91917W        W34970  24.278  28.730   2.363  0.0864 -0.1374  0.1652
91918W        W34971  33.469  26.121  26.695 -0.2796 -0.1136 -0.0164
91919W        W34972   8.224  30.563   9.043 -0.1281 -0.0097 -0.3959
91920W        W34973  28.461  18.860   4.896  0.1469  0.3467 -0.1990
91921W        W34974  24.929  11.228  28.607 -0.2940 -0.0458  0.0906
91922W        W34975  23.459  15.054  14.785 -0.1162  0.0610  0.0215
91923W        W34976  30.312  14.431  14.301 -0.0685  0.3956 -0.1274
91924W        W34977  22.759  26.039  24.479  0.1036 -0.2333  0.0521
91925W        W34978   0.173  24.332  28.804  0.2809 -0.1801 -0.0251
91926W        W34979  15.591   0.010  19.257 -0.0633  0.0439  0.0641
91927W        W34980  23.904  15.831  25.448 -0.0192 -0.0702 -0.0040
91928W        W34981  25.095  27.855   0.503 -0.0426 -0.2427 -0.3238
91929W        W34982  14.721   4.285  26.345 -0.2265 -0.1952 -0.0146
91930W        W34983  24.383  26.678  27.488 -0.0716  0.1599 -0.1083
91931W        W34984  27.414  27.849  14.250 -0.2981  0.1495 -0.1863
91932W        W34985   6.184  25.625   2.303 -0.3093 -0.0936  0.2121
91933W        W34986  33.492  10.302  26.591  0.0906  0.1138  0.0154
91934W        W34987   8.683  26.579  21.085 -0.0019  0.2892  0.1356
91935W        W34988   3.781  22.777  21.454 -0.0065 -0.1867  0.0598
91936W        W34989  19.013  29.544   2.321 -0.1391  0.2969 -0.2582
91937W        W34990   2.065   1.642   6.650 -0.0058 -0.1843  0.1294
91938W        W34991  22.267  12.106  16.389 -0.2298 -0.0354  0.1999
91939W        W34992  29.230  24.703  20.095 -0.1345  0.4436 -0.0955
91940W        W34993  22.846  17.863  24.732 -0.0957 -0.4133  0.1508
91941W        W34994   9.887  19.822  19.675  0.3297 -0.2102  0.1063
91942W        W34995  23.964   7.778  14.380 -0.0261 -0.2859  0.0084
91943W        W34996   4.847   3.946  19.247  0.0461  0.0641 -0.2428
91944W        W34997   0.589  16.445  22.679  0.0715 -0.3051  0.2137
91945W        W34998  23.122  18.545  18.041  0.2348 -0.0030 -0.2206
91946W        W34999  31.224  29.868  23.031  0.3567 -0.0820 -0.0626
91947W        W35000  29.630  22.288  15.953  0.1436  0.3954  0.1717
91948W        W35001   1.540  11.529  21.113  0.0665  0.1965 -0.1570
91949W        W35002  32.137  22.654  14.509 -0.0587 -0.1636 -0.0646
91950W        W35003  34.477  26.071   2.298  0.3472 -0.0037  0.0654
91951W        W35004  18.411  18.189  18.661  0.0952 -0.2340 -0.0277
91952W        W35005   2.907  29.647  20.360 -0.0702 -0.3236 -0.2499
91953W        W35006  15.791   4.248  28.207 -0.0273  0.3294  0.2423
91954W        W35007  24.708  15.136  25.549 -0.0060 -0.4718  0.1476
91955W        W35008  19.027  31.515  29.188 -0.2449  0.1078 -0.0652
91956W        W35009  16.388  13.375  16.582 -0.0462  0.0825 -0.3085
91957W        W35010   3.142  21.567  21.073 -0.1365  0.2200  0.2079
91958W        W35011  13.978  18.034  24.473  0.2198  0.2910 -0.0527
91959W        W35012  21.413  31.303  17.365 -0.0294  0.2258  0.1023
91960W        W35013   9.844  16.054   3.573 -0.2830  0.0364  0.0672
91961W        W35014  17.594  25.219  21.207  0.1892  0.0671 -0.2609
91962W        W35015  32.887  24.246  22.509  0.0175 -0.0831 -0.0120
91963W        W35016   7.271  33.306   5.402  0.0708 -0.1970  0.0925
91964W        W35017  11.229  14.135  18.828  0.1092  0.3316  0.1920
91965W        W35018  27.248  17.644   6.159  0.1742 -0.1106  0.2054
91966W        W35019   7.480  14.605   0.252  0.0696 -0.0351 -0.0902
91967W        W35020  18.144  22.206  14.235 -0.2084  0.1695  0.2759
91968W        W35021  25.096   6.163  13.617 -0.3038  0.0036 -0.4834
91969W        W35022   3.834   9.320  16.250 -0.2222 -0.1508 -0.0166
91970W        W35023  11.423  17.104  16.368 -0.0323 -0.1929  0.2239
91971W        W35024  20.335  23.191  22.260  0.1311 -0.2331  0.1277
91972W        W35025  20.254  27.361  18.847 -0.0695 -0.1044 -0.4847
91973W        W35026  18.267  20.557  27.726 -0.0675  0.3109 -0.1399
91974W        W35027  13.300  29.295  24.245  0.1957 -0.0986 -0.0142
91975W        W35028  19.746   9.972  22.690 -0.1542 -0.1111 -0.0588
91976W        W35029   0.663  29.854  17.536  0.2241 -0.1275 -0.1702
91977W        W35030   7.364  17.632   5.168  0.0817  0.0671  0.0063
91978W        W35031  31.774  31.177  21.906  0.1027 -0.2444  0.3579
91979W        W35032  20.622  23.456  25.608  0.3565  0.2256 -0.1255
91980W        W35033  30.933  32.124  20.937  0.2194  0.2795 -0.1921
91981W        W35034  19.754   1.584  17.381  0.2353 -0.2231 -0.0669
91982W        W35035  15.930   2.550  23.106  0.1624 -0.1110 -0.6218
91983W        W35036  22.821   9.009   9.762  0.0775 -0.2493  0.0535
91984W        W35037  18.659  16.566  18.672  0.1215 -0.1590 -0.0282
91985W        W35038  20.441  16.744  27.246  0.1291 -0.1527 -0.3506
91986W        W35039   8.346  23.905  17.212  0.2140  0.1086  0.0639
91987W        W35040  24.997  30.029  20.764  0.0632  0.0696 -0.3067
91988W        W35041  18.334  26.995  21.788  0.3244  0.2529  0.0357
91989W        W35042  12.796  11.958   1.176  0.0755 -0.1733  0.2091
91990W        W35043  16.278  21.568  15.425 -0.0572 -0.1087  0.2370
91991W        W35044   3.946  26.254   6.818  0.1269 -0.0273  0.1465
91992W        W35045   5.853   2.861  24.308 -0.2206  0.1614  0.0369
91993W        W35046  32.198  21.748  24.275  0.2012  0.1753 -0.0053
91994W        W35047  19.947   8.197  25.097  0.0808 -0.1156 -0.1626
91995W        W35048   2.075  31.175   4.296 -0.0490 -0.4505 -0.0257
91996W        W35049  27.772   5.553  21.920 -0.1795 -0.0540  0.1260
91997W        W35050  14.179  12.239   9.480  0.0640 -0.0670 -0.1164
91998W        W35051  17.140  17.382  18.342  0.3218  0.0124  0.1837
91999W        W35052  21.927  17.881  20.856  0.3346 -0.0561  0.1418
92000W        W35053  14.927  16.902  15.334 -0.4153 -0.2040 -0.1611
92001W        W35054  15.752  18.701  18.985 -0.0090  0.0522 -0.1889
92002W        W35055  19.492  20.732  20.970  0.1367 -0.0418  0.1441
92003W        W35056  33.631  29.550  15.087 -0.1245 -0.0070 -0.0730
92004W        W35057  21.641  28.031  24.008 -0.0236  0.1757  0.2228
92005W        W35058  31.196   2.222   2.442  0.1851 -0.1116  0.2768
92006W        W35059  17.201  23.284  24.549  0.0468  0.1109 -0.0269
92007W        W35060  18.173  27.105   3.358 -0.1504  0.1298 -0.3610
92008W        W35061   3.757  33.349  24.948  0.0782  0.1798 -0.1962
92009W        W35062  29.793  18.319  23.278 -0.0116 -0.2116  0.0976
92010W        W35063  14.978  15.014   6.238 -0.3992  0.0488 -0.3194
92011W        W35064  26.766   9.935   0.695 -0.0991  0.0599 -0.0865
92012W        W35065  24.218  22.553  17.636  0.0127 -0.1633  0.1501
92013W        W35066  26.970  24.927   0.064 -0.0532  0.2519  0.0554
92014W        W35067  20.795  28.585  23.124  0.2437 -0.2205 -0.0191
92015W        W35068  13.521  22.333   5.706  0.2046 -0.1072 -0.2014
92016W        W35069  17.468   8.014  19.639  0.0331  0.1575  0.0549
92017W        W35070  10.614  26.376   3.290  0.2394  0.2081 -0.2334
92018W        W35071  13.993  25.622  26.236 -0.2421 -0.1983  0.1004
92019W        W35072   8.722  32.950   3.022  0.1044  0.5619  0.2058
92020W        W35073   0.547  19.863   2.863 -0.2847 -0.1208  0.0505
92021W        W35074  22.643  28.607  29.047  0.0809  0.1003  0.3686
92022W        W35075   9.984  21.873   9.249  0.1680  0.0780 -0.2960
92023W        W35076  19.609  27.554   8.863 -0.3834 -0.1252 -0.3253
92024W        W35077  30.794   9.485   0.452 -0.0649  0.0428  0.0212
92025W        W35078  26.470  20.754  23.042 -0.1387 -0.0804 -0.1204
92026W        W35079  26.759  23.831   3.458 -0.3041 -0.0808 -0.0419
92027W        W35080  16.224  21.151   8.704 -0.0824  0.0339  0.2445
92028W        W35081  26.343  32.904  24.581  0.2678 -0.2414 -0.1624
92029W        W35082  22.597  20.266   4.182 -0.1638 -0.1723 -0.0409
92030W        W35083  23.466   5.414  24.332 -0.1369  0.1247  0.1081
92031W        W35084  20.024  14.709   3.641 -0.3538 -0.1323  0.0821
92032W        W35085  25.185  16.658  14.936  0.0825  0.1487 -0.2022
92033W        W35086   8.398  25.841  16.938 -0.2434 -0.3278 -0.1560
92034W        W35087  19.576  14.152  23.762  0.1466 -0.1468 -0.1144
92035W        W35088  34.687  30.605   4.719 -0.1313 -0.0420 -0.0748
92036W        W35089  28.066   3.572  29.078 -0.2559  0.0957 -0.1624
92037W        W35090   5.005  28.242  27.230  0.0462 -0.0435  0.2281
92038W        W35091  13.377  11.959  27.202  0.2022 -0.2784 -0.1597
92039W        W35092  22.955  11.959   8.117  0.1394 -0.0185 -0.2058
92040W        W35093  28.527  19.197   8.261 -0.0251 -0.1648  0.1968
92041W        W35094  34.166   5.211  27.182 -0.1627 -0.1784  0.2588
92042W        W35095  33.295  24.887   2.904 -0.1804  0.3364  0.2846
92043W        W35096  29.746  10.034  20.084 -0.1808  0.1636  0.3097
92044W        W35097  10.742  20.184  27.782  0.1223 -0.1131 -0.2981
92045W        W35098   6.724  15.884   1.096  0.2035 -0.0002 -0.0369
92046W        W35099  19.782  22.458   4.971  0.2249  0.1984 -0.1244
92047W        W35100   7.166  12.522   2.204  0.0288 -0.0145  0.2123
92048W        W35101  20.047   7.519   6.447 -0.0645  0.1238  0.2250
92049W        W35102  13.371  24.442   9.923  0.0647  0.2127 -0.0550
92050W        W35103  17.778  18.763   2.119 -0.2151 -0.2753 -0.2139
92051W        W35104  20.519  25.431  16.518 -0.0040  0.0761 -0.1169
92052W        W35105  31.503  19.486  27.663 -0.2394  0.1532 -0.2766
92053W        W35106   5.337   7.335   7.110 -0.0252  0.0287 -0.2724
92054W        W35107  14.240  22.042   1.678  0.1765  0.0081  0.1194
92055W        W35108  16.707  34.246  16.181 -0.1374 -0.0308  0.4886
92056W        W35109  17.524  33.668  25.941 -0.1083  0.1377  0.0976
92057W        W35110   7.888  22.514  18.096  0.2886  0.2929  0.2059
92058W        W35111  21.988   9.705   6.296  0.0480 -0.0095 -0.0999
92059W        W35112  14.175  19.870  22.170  0.1350  0.0204  0.1561
92060W        W35113  16.015  13.543   6.174  0.2393  0.2036 -0.0551
92061W        W35114  20.937  29.979   5.395 -0.2012 -0.0379  0.0312
92062W        W35115  24.743  19.841  16.981  0.0054  0.2485 -0.0815
92063W        W35116  16.241  21.654  25.361 -0.2375  0.0349  0.0646
92064W        W35117  33.244  18.525  22.333 -0.2150  0.1083 -0.0383
92065W        W35118  25.556  31.677  26.898 -0.0605  0.2059 -0.1769
92066W        W35119  18.944  25.588  17.884  0.2727 -0.2948 -0.1809
92067W        W35120  10.317  14.279   3.359 -0.1382 -0.0075  0.1160
92068W        W35121  20.703   3.917  15.532  0.0069 -0.0562 -0.3535
92069W        W35122  20.278  10.681  21.558 -0.3076  0.0994  0.1940
92070W        W35123  20.706   3.836   5.408 -0.0893  0.0985  0.2880
92071W        W35124   2.291   3.175  21.358  0.0976  0.0004  0.1573
92072W        W35125  23.126  11.309  15.091 -0.1869 -0.0722 -0.2746
92073W        W35126  15.271  18.623  27.375 -0.1447  0.0207 -0.2816
92074W        W35127  12.635  27.692  25.237  0.0511  0.1765  0.3668
92075W        W35128  30.190  16.218  23.295  0.1509 -0.1080  0.0483
92076W        W35129  17.336  11.913  10.765 -0.2177  0.2980  0.0575
92077W        W35130  18.136  29.538  19.962 -0.2498 -0.1491  0.4063
92078W        W35131  34.332  26.510   9.201 -0.0882  0.0605  0.0220
92079W        W35132  24.442  33.770   2.348 -0.3335 -0.1583  0.1828
92080W        W35133  23.344  16.347   2.563  0.1179  0.0483 -0.0429
92081W        W35134  25.923  14.850   2.452  0.0880 -0.0229 -0.1084
92082W        W35135  23.590  11.927  27.544 -0.2826  0.0334 -0.0341
92083W        W35136  12.415   7.817  15.154  0.1910  0.3955  0.0718
92084W        W35137   9.093  18.887   5.220 -0.1001 -0.1447 -0.0305
92085W        W35138  20.389  11.959  18.542  0.1373 -0.3947  0.0540
92086W        W35139  29.455  29.879   0.734 -0.0689  0.2339 -0.1898
92087W        W35140   2.636  28.044  28.841 -0.1394  0.0230 -0.0333
92088W        W35141  21.190   3.956   3.257 -0.1296 -0.0279  0.5525
92089W        W35142  33.693   1.866   9.223 -0.1240 -0.0063 -0.0466
92090W        W35143  27.127  24.946   2.475  0.0600  0.0439 -0.2132
92091W        W35144  17.223  13.015   8.795  0.1005 -0.6004 -0.0549
92092W        W35145  31.519  14.852  26.048 -0.2172  0.0911  0.3116
92093W        W35146   8.524  13.216   9.396 -0.0092 -0.0841  0.1571
92094W        W35147  28.354  11.707  21.163  0.4531 -0.2522 -0.0373
92095W        W35148  18.152  10.499  27.617  0.1701 -0.1816  0.3314
92096W        W35149  10.375  31.995  27.265  0.0656 -0.3451  0.0379
92097W        W35150  19.016  10.973  22.439 -0.2456 -0.3242 -0.1096
92098W        W35151  20.489  24.514   9.749  0.0274 -0.1562 -0.2669
92099W        W35152   9.061  23.621  21.008  0.0589  0.3042 -0.1219
92100W        W35153  18.774  30.403  27.278 -0.0790 -0.2623  0.2216
92101W        W35154  19.461   5.788  28.695 -0.1131  0.0531 -0.0919
92102W        W35155  22.149  19.254  17.756 -0.0666  0.0769  0.0319
92103W        W35156  21.801  17.248  15.729 -0.0635 -0.0519 -0.1202
92104W        W35157  21.868  28.661   4.511  0.3840 -0.0301 -0.0854
92105W        W35158  22.135  10.288   8.472 -0.0820 -0.0674 -0.1687
92106W        W35159  24.558   5.146   1.298 -0.1121 -0.1368  0.0482
92107W        W35160  24.671  33.674  20.922  0.0883 -0.0783  0.3115
92108W        W35161  12.349  34.489   3.811 -0.0881  0.0347  0.2078
92109W        W35162  13.757  20.749   8.746  0.0234 -0.3113  0.0065
92110W        W35163  17.137  22.638   5.680  0.1566 -0.4808  0.3481
92111W        W35164  24.834  26.186  20.705  0.0640 -0.4177  0.3822
92112W        W35165  31.826  20.274   2.258 -0.1659 -0.0390 -0.0324
92113W        W35166  19.734  23.856  15.887  0.0511 -0.0027  0.0571
92114W        W35167  18.495  24.817  27.503 -0.0866  0.2781  0.2357
92115W        W35168  21.405  27.502  21.670 -0.0644  0.1718  0.0099
92116W        W35169  31.285   2.676  28.853 -0.0723  0.0640  0.0999
92117W        W35170  22.021  23.754  24.946 -0.1437  0.1800 -0.0549
92118W        W35171  21.869  19.005   7.481  0.0553  0.2322  0.2221
92119W        W35172  10.888  24.234  26.635 -0.0465 -0.2806 -0.2565
92120W        W35173  19.243  22.127  23.580 -0.1141  0.4131 -0.1110
92121W        W35174  25.664   0.279   5.863 -0.1832 -0.0670  0.0408
92122W        W35175   4.359   6.253  14.908  0.0917 -0.3181 -0.3471
92123W        W35176   1.942  10.151  21.774  0.2015 -0.1827 -0.0406
92124W        W35177  22.339  28.268   0.451 -0.0586 -0.0462  0.0420
92125W        W35178   4.338  16.466   5.872 -0.4189  0.0501  0.0568
92126W        W35179  27.764  31.456   4.804 -0.1578 -0.1764 -0.0762
92127W        W35180   3.188  28.355  20.417  0.0020  0.1257 -0.1110
92128W        W35181  18.526  17.793   3.347 -0.1806  0.3587  0.4616
92129W        W35182  24.921  21.037   7.036  0.1962 -0.1114  0.1712
92130W        W35183   9.761  21.138  23.303 -0.1432  0.1791 -0.0396
92131W        W35184  24.613  21.405  25.602  0.2551  0.0991  0.0137
92132W        W35185  31.560  15.483  21.208  0.1428 -0.0445  0.2618
92133W        W35186  26.637  13.197   3.325 -0.0752  0.0223  0.2537
92134W        W35187   8.197  22.061  22.537 -0.0554  0.0066  0.5036
92135W        W35188  27.993  21.991  25.951  0.2323  0.1858  0.2685
92136W        W35189  21.668  28.111   9.747 -0.0616 -0.3820  0.0570
92137W        W35190   5.222  21.252  28.250  0.0940  0.0401  0.2587
92138W        W35191  10.060  25.178   6.098 -0.1053  0.3944 -0.1610
92139W        W35192  20.267  30.945  18.495  0.0447  0.1244 -0.2612
92140W        W35193  23.347  18.192  18.447 -0.0791 -0.2003  0.0802
92141W        W35194  18.422  23.039   1.804 -0.1438  0.0930 -0.0369
92142W        W35195  27.845  30.299  23.065  0.0640 -0.1790  0.0873
92143W        W35196  16.184  21.541   2.200 -0.0561 -0.4560  0.0691
92144W        W35197  22.725  18.408  21.339  0.3691 -0.2581  0.2041
92145W        W35198  19.360  13.722  18.399 -0.2904  0.1897  0.2975
92146W        W35199  23.825  12.728  20.868  0.1270  0.0188 -0.1097
92147W        W35200  11.473  16.507  19.381  0.0910 -0.2440  0.0894
92148W        W35201  28.146  31.941  28.301  0.0711  0.1871 -0.1760
92149W        W35202   9.503   1.922   3.774  0.1305 -0.0310 -0.0437
92150W        W35203  15.884  21.197  21.960 -0.4521 -0.0290  0.2400
92151W        W35204   0.074  24.005   0.506  0.0361 -0.0146  0.1489
92152W        W35205  15.522  13.250  22.453 -0.1556 -0.4530 -0.1764
92153W        W35206  18.943  19.765   7.855  0.0146 -0.1675  0.0794
92154W        W35207  21.750  18.999   1.831 -0.3154  0.2821 -0.1160
92155W        W35208  16.288  34.022   9.346  0.1587 -0.1943  0.3272
92156W        W35209   8.268  22.743   0.420 -0.3274 -0.3115 -0.0155
92157W        W35210   4.511   0.938  17.410  0.2778 -0.2213  0.1658
92158W        W35211  27.185  31.905  27.327  0.1922 -0.0898  0.2131
92159W        W35212  29.773  32.527   3.258 -0.1289 -0.2556  0.1309
92160W        W35213  22.552   7.934   4.738  0.0105 -0.1166 -0.1202
92161W        W35214  20.574  12.423  19.914  0.0828 -0.1637 -0.0336
92162W        W35215  34.058  12.024  14.242  0.1281 -0.2187  0.0899
92163W        W35216  20.868   0.293  19.382  0.1349 -0.1078  0.2767
92164W        W35217  22.459  26.479   4.811 -0.0419 -0.1420  0.1130
92165W        W35218   3.386   0.167   1.322 -0.0116  0.0073 -0.1532
92166W        W35219  26.706  30.505   7.083  0.1064  0.0860 -0.1473
92167W        W35220  26.264  15.663  25.690 -0.0829 -0.4130 -0.4301
92168W        W35221  11.212  15.952  28.364  0.0312  0.0318  0.2437
92169W        W35222  21.007   7.345  17.782 -0.2640 -0.1046  0.3369
92170W        W35223  27.154  23.006   6.241  0.2129 -0.2043  0.2356
92171W        W35224  28.697  24.621  14.631 -0.0403  0.1313 -0.1731
92172W        W35225  19.253   7.846   1.697  0.1078  0.3523 -0.0746
92173W        W35226  27.521  11.324  15.293 -0.1856 -0.1038  0.1379
92174W        W35227  25.530  25.241  28.390 -0.2017 -0.1333 -0.1134
92175W        W35228  19.725  34.297   2.769  0.0718  0.0524  0.0193
92176W        W35229   5.557  16.049   3.929 -0.0717  0.0768 -0.1713
92177W        W35230  21.801  16.209   0.922  0.3464  0.0740 -0.0698
92178W        W35231  22.279  25.523  26.482  0.1667  0.0617  0.1084
92179W        W35232   9.985  16.028  28.558 -0.1030 -0.1754  0.0198
92180W        W35233   8.941  24.163   7.154 -0.3228  0.2711  0.1546
92181W        W35234  19.837  22.356  28.102  0.0272 -0.1565  0.4233
92182W        W35235  27.848  10.013  21.301  0.3449  0.0939 -0.0688
92183W        W35236  19.521  14.401  19.758  0.0998 -0.0944  0.1504
92184W        W35237  11.981  10.799   0.926  0.4218  0.0232  0.0610
92185W        W35238   5.864  16.658  28.405  0.1010 -0.1928 -0.0880
92186W        W35239  26.638   4.099  19.588  0.1367  0.0381  0.0995
92187W        W35240  12.168   9.636   1.342  0.1286  0.2343  0.0253
92188W        W35241  22.559  16.385  14.880  0.0601 -0.0177  0.0787
92189W        W35242  30.838  15.310   3.641 -0.0159 -0.1892  0.0550
92190W        W35243  19.530  17.313  25.230 -0.1157  0.0172 -0.0847
92191W        W35244   0.349  20.952   2.637  0.1092 -0.0763  0.1177
92192W        W35245   8.782  24.100  23.249 -0.2042 -0.1393  0.2445
92193W        W35246   4.972  22.573   4.445 -0.2973 -0.0036  0.1972
92194W        W35247  19.740  16.252   0.246  0.1955 -0.3214  0.0562
92195W        W35248  27.674  24.935   7.599  0.1233 -0.1219  0.1376
92196W        W35249  17.233  16.762   0.833  0.2585 -0.3264 -0.0075
92197W        W35250  18.429  11.670  28.768 -0.3209 -0.2019 -0.0724
92198W        W35251  33.116  22.061  23.124  0.1312 -0.0263  0.0477
92199W        W35252  33.876  13.992  17.638  0.2378  0.0960 -0.1359
92200W        W35253   7.485  15.807   3.701 -0.0228 -0.1128  0.1745
92201W        W35254  24.067  10.608   0.917 -0.1911  0.1372  0.4705
92202W        W35255  34.341  17.106  15.311  0.3287  0.1698  0.0208
92203W        W35256  19.811  19.839   5.648 -0.2046  0.2484  0.0655
92204W        W35257  18.278  32.286  26.437  0.1151 -0.1568  0.1392
92205W        W35258   0.675  32.391   1.072  0.1428 -0.0319 -0.1670
92206W        W35259  18.742  28.192   6.025  0.1968 -0.0263 -0.1708
92207W        W35260   1.207  31.796  26.343  0.2561 -0.0452 -0.0629
92208W        W35261  25.661  26.953  26.288  0.2787  0.0772  0.1441
92209W        W35262  32.012  27.700   8.854  0.4752 -0.0682 -0.5658
92210W        W35263  28.105  11.735  18.078  0.0487 -0.0342 -0.0968
92211W        W35264  24.630  21.262   0.095 -0.0922 -0.0264 -0.0916
92212W        W35265  17.984  27.026  20.359 -0.0618 -0.1933  0.0858
92213W        W35266  20.253  13.307   7.313  0.0182  0.1862  0.0614
92214W        W35267  25.144  29.698   3.489 -0.0818 -0.1480 -0.1894
92215W        W35268  15.575  32.103   1.829  0.0102 -0.1920 -0.0201
92216W        W35269  32.006  26.808   6.061  0.0044 -0.1113  0.3337
92217W        W35270  22.775  28.054  19.295  0.2436 -0.1690  0.0563
92218W        W35271  26.450   1.971  15.173 -0.1216 -0.2415  0.0024
92219W        W35272  28.113  24.831   8.368 -0.1660 -0.0653 -0.1113
92220W        W35273  33.884  13.286  15.257 -0.1598  0.2014 -0.1742
92221W        W35274  13.928  25.416   1.423  0.1600 -0.2817 -0.0071
92222W        W35275   6.759  10.802  24.108  0.1628  0.2417 -0.1556
92223W        W35276   0.532   0.588  24.290  0.0323  0.3321  0.1437
92224W        W35277   7.316  30.392  23.392  0.2272 -0.1567  0.0776
92225W        W35278  18.571   3.477   2.190  0.1477 -0.4228  0.0230
92226W        W35279   3.002  17.930  28.976  0.0666 -0.1556  0.1373
92227W        W35280  20.166  11.533   3.173 -0.2064 -0.0952  0.1792
92228W        W35281  11.979  20.630   5.306 -0.1839  0.1189 -0.1732
92229W        W35282  16.748   2.508  28.045  0.1058  0.2097 -0.0554
92230W        W35283   5.841  23.731  26.067  0.0066 -0.1498 -0.0854
92231W        W35284  20.427   9.785   1.560 -0.3967  0.1050  0.1054
92232W        W35285   3.678  22.082   1.856 -0.0813 -0.0219 -0.2026
92233W        W35286  30.509   5.016  28.313 -0.0049 -0.0960  0.0657
92234W        W35287  17.562  15.928  27.898  0.4252 -0.0446 -0.0861
92235W        W35288   7.821  25.378   7.755 -0.0101  0.2751 -0.0961
92236W        W35289  16.486  15.614  24.782 -0.0919  0.2468 -0.7955
92237W        W35290   4.587  22.816   4.201 -0.2170  0.3271 -0.2371
92238W        W35291  32.827  25.935   4.262  0.0698  0.0860 -0.0602
92239W        W35292   9.374   6.707  27.547 -0.1709 -0.1877 -0.0894
92240W        W35293  23.444  13.847  27.137 -0.0527  0.1921  0.0115
92241W        W35294  24.994  27.129  10.632 -0.1736  0.1349 -0.0895
92242W        W35295  11.738   2.434   2.460  0.1696 -0.1209  0.1383
92243W        W35296  24.989   2.213  27.632 -0.0788  0.1208  0.3514
92244W        W35297  26.779  33.772   6.916  0.2855  0.1120 -0.1857
92245W        W35298  15.271  32.247  18.420 -0.0608 -0.0242  0.3405
92246W        W35299  13.199   5.291   6.629  0.1379 -0.3086 -0.0345
92247W        W35300  24.619  24.792  22.904  0.0072  0.0388  0.1488
92248W        W35301  11.177  19.670  27.257 -0.1333  0.1294 -0.1355
92249W        W35302  12.749   8.254   7.471  0.1348 -0.3104  0.2912
92250W        W35303  25.442  25.681  21.850  0.2298  0.1308  0.0727
92251W        W35304   5.253  26.591   7.758  0.1525 -0.1277  0.0537
92252W        W35305  31.966  21.841  17.916 -0.0550  0.0007  0.1475
92253W        W35306  25.608  11.699   7.602 -0.1923 -0.3091  0.0943
92254W        W35307  10.013  20.897  13.926  0.2709 -0.1472 -0.0812
92255W        W35308  13.143  19.274   1.218  0.0721 -0.1188  0.0513
92256W        W35309   8.237   3.222  16.393 -0.0453  0.3183 -0.2667
92257W        W35310  30.368   6.470  24.674 -0.1229  0.1818 -0.1707
92258W        W35311  25.486   6.478   4.936 -0.1386  0.0209  0.1095
92259W        W35312  23.719  21.869  20.652 -0.0851  0.0123  0.1975
92260W        W35313  23.425   4.752  28.269  0.0453  0.1688 -0.1680
92261W        W35314  22.902  29.221  18.039  0.0406 -0.0075  0.2197
92262W        W35315  13.723  33.386  23.103  0.1418 -0.1506  0.2942
92263W        W35316  33.482  26.315  25.993  0.0302 -0.1963  0.0110
92264W        W35317  19.637  23.840   6.951  0.0016  0.0021 -0.2362
92265W        W35318  23.085  12.484   8.214  0.2428  0.2768 -0.0707
92266W        W35319  23.125  21.362  28.903  0.0964  0.0905  0.3594
92267W        W35320  29.870  18.516  28.066  0.2757 -0.0829  0.0288
92268W        W35321  20.489  25.875  21.772  0.1692  0.0790 -0.1008
92269W        W35322  13.256   9.946  23.266 -0.1088 -0.0625 -0.2872
92270W        W35323  27.245  20.286   3.914  0.3245  0.1531 -0.0701
92271W        W35324   5.557  31.813   2.722 -0.0089 -0.0614 -0.3455
92272W        W35325  12.663  30.830  24.209 -0.0122 -0.0934  0.2519
92273W        W35326  19.110  24.324   4.590  0.0635 -0.1440  0.3096
92274W        W35327  21.423  29.143  19.269  0.4463  0.0098  0.0201
92275W        W35328   1.015   7.711  26.230 -0.3020  0.1925  0.1631
92276W        W35329  30.364  17.981   5.831  0.0916 -0.1352  0.2713
92277W        W35330  25.817  28.477  15.378 -0.0206  0.1270 -0.0023
92278W        W35331  29.288   1.420  24.273 -0.2686 -0.1400 -0.6040
92279W        W35332  19.561  16.312  23.109  0.3818 -0.2614  0.3449
92280W        W35333   1.985  23.040  18.557  0.1947 -0.0143  0.2191
92281W        W35334   3.599  25.070   8.071  0.0350 -0.1786 -0.1892
92282W        W35335  17.216  32.006  20.404  0.1637 -0.0379  0.2362
92283W        W35336  18.951  28.708  21.185  0.1571  0.0893  0.1703
92284W        W35337  13.954  24.827   7.434 -0.1493 -0.1295  0.0655
92285W        W35338  22.712  21.779  10.044 -0.1880 -0.1483  0.0351
92286W        W35339  30.976  21.252   9.422  0.0499  0.1104 -0.2776
92287W        W35340  23.401  19.831  28.361  0.0909  0.3987  0.0956
92288W        W35341  23.953  20.182   2.253 -0.0037  0.2118  0.0158
92289W        W35342  26.326  12.019   8.755  0.0241 -0.3696  0.2492
92290W        W35343  18.378  13.624  16.249  0.0660  0.1787  0.0315
92291W        W35344  10.442  34.569   2.521  0.3358 -0.0010 -0.0523
92292W        W35345  27.211  10.834  15.800  0.0944  0.1559  0.1163
92293W        W35346  22.447  18.832  19.776 -0.1497  0.2833 -0.3522
92294W        W35347  13.312  13.702   9.693 -0.1293 -0.0608 -0.0236
92295W        W35348  21.713  24.398  27.025 -0.0531  0.1321  0.0880
92296W        W35349  33.102   7.513  27.197 -0.2654 -0.3833 -0.1830
92297W        W35350  20.779  19.960  18.262  0.2468  0.0926 -0.1428
92298W        W35351  12.967  31.809  28.554 -0.0088 -0.0750 -0.2155
92299W        W35352   9.467  23.637  18.347 -0.1136  0.2248  0.0932
92300W        W35353  27.894   9.410   9.108 -0.1627  0.1734  0.1375
92301W        W35354  31.204  13.792  18.924 -0.0579 -0.0566  0.0691
92302W        W35355   9.528  34.411   0.006  0.2650  0.2880  0.0900
92303W        W35356  13.737  12.503  10.909  0.0687  0.0480 -0.0009
92304W        W35357  23.294  33.318  16.111 -0.0923 -0.1491 -0.1299
92305W        W35358   5.768  14.251   9.477 -0.1100  0.1188 -0.0505
92306W        W35359  22.990  25.535   1.285 -0.0720 -0.0750 -0.0602
92307W        W35360  30.762   1.525  29.191  0.1409  0.2033 -0.1841
92308W        W35361  14.380  32.583  27.769  0.0578  0.1698  0.2111
92309W        W35362  10.770  29.789   3.671 -0.0374 -0.1354  0.2807
92310W        W35363   9.376  14.210   0.857 -0.0327 -0.0927 -0.2485
92311W        W35364  22.450  17.947   4.934 -0.0136  0.0624 -0.2449
92312W        W35365  22.536  16.416   3.565 -0.1125 -0.2631  0.0552
92313W        W35366  18.323  23.553  15.542  0.0518  0.0525  0.2331
92314W        W35367  28.225  22.002   1.760  0.1758 -0.0051 -0.1505
92315W        W35368  14.517  22.236   6.044  0.1255 -0.1024  0.1321
92316W        W35369   7.418  19.610   6.426 -0.1132  0.1350  0.0587
92317W        W35370   1.177   9.765  18.374 -0.0007  0.0149 -0.3659
92318W        W35371  23.514  16.064  13.327 -0.1048  0.1673  0.0437
92319W        W35372  31.630  20.502  20.705 -0.2350  0.2691  0.2881
92320W        W35373   3.075  25.489  23.310  0.1180  0.1177  0.0206
92321W        W35374   0.015  14.112  26.696  0.1245  0.0060  0.0314
92322W        W35375  27.649  17.913   5.487  0.0456 -0.3131  0.1555
92323W        W35376  19.212  13.015  26.018  0.1681 -0.1969 -0.1055
92324W        W35377  20.746  29.536   5.577  0.0908 -0.0611 -0.2730
92325W        W35378   3.393  32.032   8.160 -0.1686 -0.0307 -0.0801
92326W        W35379  17.084  29.932  23.756 -0.1891  0.3116  0.1518
92327W        W35380  20.812  19.794  24.228  0.1328 -0.2398 -0.1645
92328W        W35381  30.127  21.662  28.672 -0.3616 -0.1420 -0.0907
92329W        W35382  23.218  12.438   8.719  0.1243 -0.2825 -0.2676
92330W        W35383  13.197  22.686   2.167  0.0658 -0.0194  0.2396
92331W        W35384  17.935  29.612   8.242 -0.1968  0.1150  0.1211
92332W        W35385  19.223   3.564  26.609 -0.1144  0.1466  0.0665
92333W        W35386   9.984  18.332  16.093 -0.0502  0.2781 -0.3312
92334W        W35387  17.969   5.760   5.413  0.2428  0.0979 -0.1710
92335W        W35388  13.223  18.790   3.229  0.0577  0.1242  0.0711
92336W        W35389  25.928  14.850  19.177  0.1711  0.1847 -0.3789
92337W        W35390  21.073   3.915   2.148 -0.1483  0.0922  0.0099
92338W        W35391   1.284  30.981  21.623 -0.0390 -0.0374 -0.0093
92339W        W35392  17.937   6.489  14.062  0.4869 -0.3842  0.1587
92340W        W35393  16.246  19.484  25.155 -0.2435 -0.1507  0.1821
92341W        W35394  26.927  18.358   9.681  0.1535  0.0870  0.0987
92342W        W35395  16.828   8.622   1.226 -0.3331  0.0787 -0.0797
92343W        W35396   9.026  24.167  26.946  0.2287 -0.2739  0.0410
92344W        W35397  17.663  18.603  14.524  0.2549  0.0228 -0.1829
92345W        W35398   5.115  20.894  23.200  0.0434 -0.3614  0.2104
92346W        W35399   5.147  14.461  23.991 -0.4285 -0.0575 -0.1388
92347W        W35400  15.098  22.361   4.790 -0.2629 -0.0511  0.0659
92348W        W35401  18.411  13.598   4.682 -0.4693 -0.1462 -0.0710
92349W        W35402  32.423  28.340  21.405 -0.2175 -0.0865 -0.2046
92350W        W35403   2.403  18.240   8.117 -0.0166  0.0842 -0.0269
92351W        W35404  30.340  20.487  19.559 -0.2160 -0.0073 -0.0690
92352W        W35405   5.896   7.778  17.340 -0.3464  0.0374  0.2220
92353W        W35406   1.838  33.269   0.074 -0.0038 -0.0115 -0.2759
92354W        W35407  21.334  10.542  21.730 -0.0598  0.0607  0.0322
92355W        W35408  29.056   1.692   1.118 -0.1338 -0.2514 -0.1526
92356W        W35409   5.353  24.701   0.250 -0.1050  0.2356 -0.2636
92357W        W35410  15.588  14.059  21.405  0.2889  0.3680  0.3307
92358W        W35411   8.305  14.878  26.288  0.0348  0.0690  0.1863
92359W        W35412  10.943  16.310  27.065  0.1136 -0.1167 -0.1140
92360W        W35413  22.277  26.577  14.077  0.0193  0.0831  0.1372
92361W        W35414  26.936  16.169  27.716  0.0710  0.3245  0.0096
92362W        W35415  10.531  29.511   3.197 -0.0576  0.2684 -0.2378
92363W        W35416  10.243  28.864   7.367 -0.2838 -0.4055 -0.0102
92364W        W35417   2.432  34.682   8.709  0.1110  0.2450  0.0732
92365W        W35418  17.245  10.857  23.793  0.2883 -0.1298  0.1152
92366W        W35419   7.271  23.382  21.497 -0.1255  0.0182  0.3824
92367W        W35420  20.075  26.675  25.690  0.1943  0.1385  0.1586
92368W        W35421  15.942   2.579  24.348  0.1673 -0.0489  0.1722
92369W        W35422  21.734  27.074  18.829 -0.3263 -0.1814 -0.2191
92370W        W35423  32.032  13.792   2.049  0.0006  0.1988 -0.1985
92371W        W35424  21.099   5.572  16.227 -0.1287  0.5521  0.1787
92372W        W35425   5.621  14.608  23.871 -0.1412 -0.1373  0.2299
92373W        W35426   9.159  19.358   9.513  0.0812  0.0730  0.4140
92374W        W35427  22.637  19.393  23.119 -0.3989 -0.2585  0.5512
92375W        W35428  29.255  25.912   4.314 -0.0108 -0.0844  0.1876
92376W        W35429  22.375  28.228  22.241 -0.1020 -0.0947 -0.1871
92377W        W35430  24.214  26.755  23.888 -0.0276  0.2586 -0.1371
92378W        W35431   3.041  24.577   7.335 -0.0658 -0.0827 -0.0830
92379W        W35432  13.105  23.866  19.386 -0.0758  0.3815 -0.0675
92380W        W35433  26.416  18.902  14.997 -0.0861 -0.2869  0.0796
92381W        W35434  24.488  23.607   9.018 -0.1106 -0.2665 -0.1321
92382W        W35435  22.915  28.579  23.263  0.2033  0.2915 -0.0716
92383W        W35436  14.684  32.206  15.178  0.2462 -0.0851 -0.1334
92384W        W35437  10.115  14.098   1.293  0.4149  0.1394  0.2634
92385W        W35438  33.180  27.459  18.585 -0.0679  0.1318 -0.1502
92386W        W35439   9.577  24.126   0.040 -0.0668 -0.0641  0.0606
92387W        W35440  20.509  18.279   2.634  0.2279 -0.0509  0.1157
92388W        W35441  13.460  28.616  25.863 -0.4083 -0.0213  0.1253
92389W        W35442  22.883  19.725  22.752 -0.0059 -0.4486  0.2054
92390W        W35443  18.265  11.854   6.442 -0.1730 -0.0371 -0.0760
92391W        W35444  18.218  21.634   4.154  0.0179  0.1100  0.0308
92392W        W35445  16.837  28.447   7.265 -0.0877 -0.1915  0.1303
92393W        W35446  26.125   7.000  16.178 -0.0923  0.0542  0.0055
92394W        W35447  21.010  24.527  28.211 -0.0002  0.1717 -0.0157
92395W        W35448  32.691  12.640   4.465 -0.0518 -0.2531  0.3082
92396W        W35449  27.862  17.016   3.476 -0.1786 -0.2661  0.0217
92397W        W35450  21.109  20.978  29.175  0.2604  0.3248 -0.1998
92398W        W35451  29.343  18.954  14.412  0.1356 -0.2244 -0.1120
92399W        W35452  28.836  29.651  27.140 -0.1667  0.1343  0.1814
92400W        W35453  32.583   9.718  27.240  0.2925 -0.1792 -0.3876
92401W        W35454   4.076  10.186  17.318 -0.1327 -0.2595  0.0101
92402W        W35455  23.087  29.752  17.460  0.3972 -0.3406  0.0693
92403W        W35456  29.917  29.130  23.795 -0.4247  0.3054  0.2448
92404W        W35457  17.163  15.792   0.959  0.3859  0.2812  0.1325
92405W        W35458  19.174  15.608  28.209 -0.1666  0.1340  0.2377
92406W        W35459   9.128   1.651   7.729 -0.0514 -0.3813  0.0544
92407W        W35460  30.945  18.819  28.206  0.1019  0.0916  0.2049
92408W        W35461  29.192  33.843   1.585 -0.2049 -0.0306  0.0515
92409W        W35462  13.773  22.899   2.198  0.1561 -0.4218 -0.2218
92410W        W35463  24.424  25.063   2.913 -0.2304  0.1666  0.2221
92411W        W35464  17.977  29.982   0.381 -0.3816  0.0729  0.1222
92412W        W35465  25.315  12.503  20.694  0.0951  0.3285 -0.1138
92413W        W35466   9.736  29.721   4.947  0.1955 -0.0368  0.2285
92414W        W35467  18.524  18.324  13.257 -0.4765  0.2085  0.0235
92415W        W35468  26.716   9.089  16.914  0.0018 -0.1920  0.1619
92416W        W35469  19.936  24.017   0.887 -0.0712  0.2532  0.0278
92417W        W35470  17.669  28.545  23.209  0.2076 -0.2478  0.3053
92418W        W35471   3.998  33.288  25.823 -0.2250  0.0827  0.0587
92419W        W35472  25.038  24.389  24.553  0.0545 -0.1131  0.0105
92420W        W35473  21.510   3.727   6.849  0.2843 -0.1748 -0.1666
92421W        W35474  31.544  23.494  25.993  0.0717 -0.2583  0.2210
92422W        W35475   9.000  15.268   9.255 -0.0433 -0.0401  0.5508
92423W        W35476  12.613   8.753  23.801  0.2468 -0.0625 -0.2135
92424W        W35477  12.593  18.124  28.811  0.0543  0.2361  0.0295
92425W        W35478  21.862  11.561   9.521 -0.2135 -0.2371 -0.1057
92426W        W35479  17.235   8.601  22.547  0.0099 -0.0966 -0.1993
92427W        W35480   4.847  23.733   6.660 -0.0134  0.1567  0.2576
92428W        W35481   8.070   4.974  15.293 -0.0207  0.1588  0.1703
92429W        W35482  25.585  25.682   9.195 -0.0285 -0.0791  0.1789
92430W        W35483  19.692  33.882   3.527  0.3710  0.0493 -0.1753
92431W        W35484  25.144   4.215  17.721 -0.3706  0.2289 -0.0486
92432W        W35485  25.972  16.191   0.594 -0.1119 -0.3959  0.1088
92433W        W35486   0.416  20.805  21.818 -0.3408  0.0080  0.1592
92434W        W35487  16.644  16.563   7.243 -0.1953  0.1918 -0.1137
92435W        W35488   7.830  19.636  22.988  0.4267  0.4172  0.2569
92436W        W35489  29.285  20.555  19.934 -0.1827 -0.0354  0.3974
92437W        W35490  16.830  21.104  27.718  0.2282 -0.0384 -0.5662
92438W        W35491  12.281  19.746   7.540 -0.1888 -0.2594 -0.0559
92439W        W35492  14.426  24.423  26.822 -0.3058 -0.0332 -0.1757
92440W        W35493  15.986  33.450   4.818 -0.2045 -0.2271 -0.1019
92441W        W35494  17.681  26.447  28.910 -0.2607 -0.0818  0.0620
92442W        W35495  16.230  15.963   7.082  0.0845 -0.0736 -0.1837
92443W        W35496   0.462   4.835   7.072 -0.1384 -0.2183  0.0293
92444W        W35497  19.289  15.679   7.566 -0.4973  0.2339  0.0393
92445W        W35498  30.814  23.704   6.239  0.1904 -0.1654  0.2232
92446W        W35499  16.917  14.696  25.345  0.0047 -0.0165  0.1434
92447W        W35500  18.406  21.483  23.860  0.0540 -0.0180 -0.0514
92448W        W35501  29.850  16.981   3.846  0.1066 -0.2848 -0.3154
92449W        W35502  22.564   6.297   0.173 -0.0631 -0.4674  0.1532
92450W        W35503  18.917   7.199  22.395  0.0832 -0.4943 -0.2949
92451W        W35504  28.864   5.051  20.431 -0.0588 -0.1966  0.0725
92452W        W35505  19.516  18.896  26.233  0.0384  0.1107  0.4022
92453W        W35506  10.631  18.230  16.101 -0.3030 -0.1726 -0.2912
92454W        W35507   1.261  23.172  27.687 -0.1413 -0.1025  0.1954
92455W        W35508  25.688  29.445  28.725 -0.3041 -0.1987  0.4634
92456W        W35509  21.620  27.243  14.542 -0.3845 -0.1194  0.3559
92457W        W35510  24.055   8.599   6.977 -0.1499 -0.0842 -0.1311
92458W        W35511  19.870  30.976  25.254  0.2366 -0.2368 -0.0240
92459W        W35512  30.174  19.595   0.841 -0.0863 -0.1480  0.2099
92460W        W35513  16.877   3.674  29.030  0.1818 -0.0175  0.0448
92461W        W35514   3.799  24.112  14.151 -0.1834 -0.4178 -0.0598
92462W        W35515  14.200   5.052   5.410 -0.0911 -0.1671 -0.0743
92463W        W35516   1.654  33.755  26.744 -0.0590  0.0564 -0.0069
92464W        W35517  16.345  13.928   8.228 -0.0173  0.3700 -0.0714
92465W        W35518  14.849  10.816  15.991 -0.2693 -0.1189 -0.0190
92466W        W35519  31.640  23.571   7.805  0.3704 -0.0479  0.0906
92467W        W35520  14.311  25.546  28.281 -0.1943 -0.2000  0.0918
92468W        W35521  31.561  11.471  28.871  0.1105 -0.0072  0.2881
92469W        W35522  24.044  19.470  23.090  0.2005 -0.0190  0.5138
92470W        W35523  21.787  22.894   6.793 -0.0397 -0.0307 -0.0593
92471W        W35524  26.282  33.762  29.020  0.1482 -0.0382  0.3006
92472W        W35525   9.230  27.962   5.777  0.1401 -0.1709 -0.0273
92473W        W35526  28.578  30.106   0.310 -0.0418 -0.1498  0.0928
92474W        W35527  19.475   5.625  17.068  0.0542 -0.1406  0.4014
92475W        W35528  32.037  21.877  25.158 -0.1935 -0.0046 -0.0901
92476W        W35529  18.878  27.348  20.500  0.2626 -0.2279  0.1795
92477W        W35530  19.505  30.060  24.263  0.0259 -0.0832 -0.1619
92478W        W35531   3.383   5.502  14.160  0.1178 -0.0891 -0.0940
92479W        W35532  10.737  15.016  20.990  0.1825  0.0954  0.0896
92480W        W35533  24.452  20.288  19.087 -0.1339  0.0299  0.1376
92481W        W35534  19.727   7.554  24.643 -0.3238  0.1201 -0.0939
92482W        W35535  25.301   5.536   3.173  0.3017 -0.1222 -0.0396
92483W        W35536  26.790  26.382  24.568 -0.0361  0.1996  0.3810
92484W        W35537   7.949  31.473  27.475 -0.0897 -0.1170  0.0797
92485W        W35538  21.850  18.128  15.700 -0.0512 -0.0053 -0.1719
92486W        W35539  14.839  17.345  15.530  0.3267  0.2747  0.2872
92487W        W35540  28.841  29.437  24.197  0.3680  0.3022  0.0414
92488W        W35541  16.998  16.297  13.177  0.0797  0.1193  0.0802
92489W        W35542  19.118  24.957  15.484  0.0354  0.1572  0.1373
92490W        W35543  25.697  10.095  22.548  0.3823 -0.0233 -0.2828
92491W        W35544  29.267   7.695  14.296 -0.1660 -0.1974  0.1024
92492W        W35545  21.901  17.205  15.220  0.0631 -0.2384 -0.1281
92493W        W35546  20.866  12.583  14.583  0.0433  0.0966  0.0116
92494W        W35547  29.301  22.227  16.339  0.2105  0.2211 -0.0981
92495W        W35548  12.361  27.941  14.309  0.1990 -0.2811  0.0810
92496W        W35549  14.159   9.279  20.025  0.3247 -0.2516  0.2282
92497W        W35550  28.258  19.072  18.842 -0.1111 -0.0497  0.3300
92498W        W35551  13.193  27.655  23.193 -0.0577 -0.0869 -0.0460
92499W        W35552  16.758  17.467  14.707 -0.0582  0.1659  0.2377
92500W        W35553  28.687   4.412  21.255  0.1102  0.2185  0.5370
92501W        W35554   9.724  30.640  20.206 -0.0037  0.0482  0.0054
92502W        W35555  22.387  13.441  29.156 -0.3417  0.2274  0.2584
92503W        W35556  19.345   1.457  15.136 -0.0747 -0.3473  0.0548
92504W        W35557  24.952   5.944   1.327 -0.2100 -0.1493  0.0582
92505W        W35558  15.236  19.145  23.950  0.0065 -0.2321 -0.0900
92506W        W35559  13.147  31.830  25.011 -0.2047 -0.3429 -0.0986
92507W        W35560   1.650  23.961  27.070  0.0258  0.0650  0.6274
92508W        W35561   9.204  28.543  21.761 -0.1976 -0.0231  0.1114
92509W        W35562   7.149  20.559  17.894 -0.4286  0.0670 -0.0559
92510W        W35563  31.703   1.358   2.088  0.0934  0.2691  0.1773
92511W        W35564  18.751  28.082  25.588  0.2113  0.0000  0.0079
92512W        W35565  12.690  17.041  13.519 -0.1373 -0.0669 -0.2938
92513W        W35566  18.931   3.081  19.918  0.1788 -0.0462 -0.2470
92514W        W35567  25.494  19.003  21.105  0.1249  0.0109 -0.1744
92515W        W35568   8.473  28.045  16.948 -0.0335  0.0103  0.0335
92516W        W35569  20.008  15.650  14.107 -0.1078 -0.0755  0.1007
92517W        W35570  23.353  10.979  21.891  0.0029 -0.0185 -0.2776
92518W        W35571  33.061  24.991  25.330  0.3851 -0.2912 -0.0403
92519W        W35572   3.216  26.672  19.634  0.2733  0.0866 -0.3960
92520W        W35573   9.305  30.235  19.504  0.0435  0.2053  0.0113
92521W        W35574  19.843  29.148  27.206 -0.1085 -0.1030  0.4783
92522W        W35575  17.913  24.563  25.060 -0.2702  0.0598 -0.0880
92523W        W35576  29.803  24.030  20.405 -0.1169  0.4719  0.0956
92524W        W35577  30.090   4.800  14.464  0.1848  0.0531  0.2100
92525W        W35578  15.867  23.566  22.314 -0.0768  0.3314 -0.0597
92526W        W35579   4.638  24.784  20.991  0.0574 -0.2481 -0.0235
92527W        W35580  32.318  34.128  21.339  0.0803 -0.1187 -0.1047
92528W        W35581  28.587  21.975   0.824  0.0272  0.1397  0.3201
92529W        W35582  23.588   0.351  15.336  0.2222 -0.1100 -0.1959
92530W        W35583  24.759  10.386  18.708 -0.1077  0.4207  0.1918
92531W        W35584  31.969   6.950  19.975 -0.1939 -0.1161  0.1716
92532W        W35585  25.847  21.163  15.594  0.1014  0.0193  0.0748
92533W        W35586  16.765  10.709  25.429  0.0018 -0.0925  0.0689
92534W        W35587   8.131  28.886  22.130  0.1736 -0.2100 -0.1424
92535W        W35588   8.219  14.350  23.533  0.2156 -0.1750 -0.2023
92536W        W35589  27.458   0.811   0.629 -0.2907  0.0985 -0.1043
92537W        W35590   6.646  14.840  26.030 -0.2646 -0.3673  0.0404
92538W        W35591  23.971  32.959  28.056  0.1219 -0.2183 -0.1283
92539W        W35592  17.521  14.806  25.164 -0.0433  0.0640 -0.0385
92540W        W35593  30.454  32.919  29.104  0.4250  0.0823  0.2169
92541W        W35594  15.666  15.416  25.567  0.3023  0.1982  0.3046
92542W        W35595  19.268  14.921  27.557  0.2035  0.0615 -0.1157
92543W        W35596  22.498  13.120  20.385 -0.0499 -0.0961 -0.0068
92544W        W35597  24.762   8.837  20.411  0.2420 -0.1799  0.1417
92545W        W35598  19.978  34.481  15.678  0.1198 -0.2030 -0.2023
92546W        W35599   5.557  32.433  20.363  0.0695  0.0308  0.5688
92547W        W35600  22.325  28.538  20.604  0.1034 -0.0860  0.3365
92548W        W35601  28.104  31.035  21.662  0.1559 -0.0975  0.0570
92549W        W35602  21.191   8.735   4.451 -0.2554 -0.0699 -0.0062
92550W        W35603   6.011  14.503  27.974 -0.3616  0.1132 -0.0175
92551W        W35604  10.324  30.815  23.351  0.0951 -0.1093 -0.1932
92552W        W35605  15.303  19.038   1.198 -0.1273 -0.0120  0.2773
92553W        W35606  26.725  16.640  23.722 -0.1740  0.0952 -0.0454
92554W        W35607  28.566  25.231  17.128  0.1426 -0.1053  0.0582
92555W        W35608  23.848  13.602  17.533 -0.1683  0.2337  0.3284
92556W        W35609   6.618  22.967  19.901  0.4206 -0.2947 -0.2435
92557W        W35610  24.226   5.259  18.670  0.0470  0.1000 -0.0845
92558W        W35611  33.269   5.966  23.323 -0.5701 -0.0470 -0.0785
92559W        W35612  29.623  33.738  20.697  0.0521  0.0371  0.3029
92560W        W35613   3.712  14.148  18.139 -0.0913 -0.0346  0.0063
92561W        W35614  21.324  27.545  27.653  0.3847  0.0074  0.2832
92562W        W35615  20.011  10.085  20.762  0.0103  0.3249 -0.0305
92563W        W35616  17.195  14.290   5.550 -0.0574  0.0208  0.0141
92564W        W35617  13.055   1.853  20.224  0.0807  0.1276 -0.0020
92565W        W35618  16.710   7.435  15.747  0.1009 -0.0300 -0.0443
92566W        W35619  13.970  32.870  15.581  0.0376  0.0999  0.2807
92567W        W35620  32.992  22.755  18.428  0.0011 -0.1639  0.2117
92568W        W35621   4.780  10.936  19.142  0.2791  0.1521 -0.1400
92569W        W35622  13.158  34.565  26.708  0.1486 -0.2365  0.1280
92570W        W35623  17.554  24.320  23.529  0.2462 -0.1661  0.0171
92571W        W35624  27.986   2.869  18.799 -0.0096 -0.1580  0.1162
92572W        W35625   7.639  25.815  25.456  0.2237  0.3679 -0.2276
92573W        W35626  17.470  29.494  15.056 -0.0621 -0.1241 -0.1440
92574W        W35627   2.467  18.051  14.584 -0.1959  0.0361 -0.0610
92575W        W35628  12.375  12.700  21.341  0.1030 -0.2053 -0.2440
92576W        W35629  30.608   9.073  21.948  0.0352  0.3073  0.1225
92577W        W35630  18.405  20.666  16.770 -0.0730  0.0266 -0.1106
92578W        W35631  21.847  14.159  15.743 -0.1130 -0.1880 -0.0481
92579W        W35632  32.859  22.949  15.582  0.2981 -0.1028  0.1846
92580W        W35633  17.768  19.744  16.070  0.0094 -0.4094 -0.0841
92581W        W35634  16.894  26.753  20.791  0.0651  0.2442 -0.0347
92582W        W35635  22.756  20.019  25.242  0.1647  0.1651 -0.1835
92583W        W35636  16.525  30.679   4.138  0.2435 -0.1758  0.0115
92584W        W35637  22.691  25.668  26.316 -0.2985  0.0046  0.1381
92585W        W35638   1.036  18.927  26.061  0.1781 -0.0926 -0.3187
92586W        W35639  32.839  21.265  13.505 -0.1951  0.0139  0.0699
92587W        W35640  20.584  23.936  21.244  0.3196 -0.2725  0.1499
92588W        W35641  17.512  27.739   8.008 -0.2712 -0.2472 -0.1497
92589W        W35642  18.389  23.289  14.487  0.1059  0.2306 -0.1773
92590W        W35643  28.401   3.958  16.841  0.1003  0.2965  0.0840
92591W        W35644  17.374  31.359  14.808 -0.0338  0.1489  0.0855
92592W        W35645   8.389  26.851  18.592 -0.0969 -0.1263  0.0395
92593W        W35646  20.574  21.382  19.774  0.3065 -0.2369  0.3276
92594W        W35647  34.502  24.581  17.462  0.2122 -0.2147 -0.2043
92595W        W35648  20.139  20.409  20.776  0.1710 -0.0712 -0.0544
92596W        W35649  22.401   0.149  21.327  0.1580  0.3037 -0.5058
92597W        W35650  25.894  16.031  17.082  0.1511  0.1643  0.0571
92598W        W35651  12.950  19.638  18.263  0.0156  0.1080  0.0704
92599W        W35652  26.005  22.344  17.648  0.0082 -0.1820  0.0511
92600W        W35653  33.710  15.941  26.720 -0.1924  0.0657  0.1044
92601W        W35654  20.814   8.061   7.112 -0.3586  0.1142  0.0665
92602W        W35655  23.141  23.796  15.482  0.1266 -0.4130 -0.0879
92603W        W35656  19.977  33.974  15.907 -0.0379  0.0520 -0.0915
92604W        W35657  32.380   2.001  17.013  0.0250 -0.2735 -0.1027
92605W        W35658   0.453  27.847  15.997 -0.0100 -0.0062 -0.2949
92606W        W35659  18.774  25.345  16.933  0.1492  0.1816  0.0367
92607W        W35660   9.533  29.320  15.524  0.1781  0.2321 -0.1371
92608W        W35661  25.882  18.901  25.445  0.0670  0.1029 -0.0302
92609W        W35662  26.519  24.771  26.126 -0.1170 -0.0398  0.0105
92610W        W35663  34.261  19.872  16.860  0.0554 -0.5472 -0.0368
92611W        W35664  25.405  33.645  23.783 -0.0092  0.2756 -0.3481
92612W        W35665  31.420  33.284  19.839  0.2647 -0.0477 -0.1641
92613W        W35666   5.748  14.957  23.614 -0.1721 -0.2081  0.1198
92614W        W35667  26.154  14.242  19.592 -0.2126 -0.2180  0.1350
92615W        W35668   7.870  14.768   2.053  0.0662 -0.0290  0.3468
92616W        W35669  19.688  20.236  16.456  0.1453 -0.1177  0.1061
92617W        W35670  22.231  29.401  27.297  0.1495  0.0840  0.0489
92618W        W35671  21.916  30.004  17.708  0.0767  0.1291 -0.1203
92619W        W35672  15.280  18.667  21.291 -0.1144  0.0943 -0.0225
92620W        W35673  15.280  28.672  22.295  0.0042 -0.0160  0.1852
92621W        W35674  22.307  21.210  23.126  0.1006  0.1662 -0.1571
92622W        W35675  22.075   8.057   5.668  0.0039 -0.2106  0.2678
92623W        W35676   2.268  26.524  18.188 -0.0762  0.1416  0.0505
92624W        W35677  21.282  13.253  28.379  0.2776 -0.3310 -0.1172
92625W        W35678  23.786  30.390  20.730 -0.3074 -0.1629 -0.3748
92626W        W35679  11.143  32.326  18.109 -0.0602 -0.2295  0.1922
92627W        W35680  16.188  27.875  18.305  0.0609  0.3063  0.0384
92628W        W35681  20.804  31.934  24.950  0.3987 -0.0201  0.0465
92629W        W35682  20.775  19.078  18.509 -0.2093  0.2307  0.1162
92630W        W35683  17.760  32.139  27.630  0.1609 -0.3725  0.2523
92631W        W35684  17.888  24.963  22.282 -0.1003  0.0275 -0.0173
92632W        W35685  18.922  30.146   0.026  0.1450  0.1209 -0.0987
92633W        W35686  27.839  18.234  16.226 -0.1086  0.1396 -0.3819
92634W        W35687  22.844   0.944  21.246 -0.0649  0.0966  0.3519
92635W        W35688  31.839  32.885   5.599 -0.2910  0.2017 -0.0156
92636W        W35689  23.361  18.763  23.312 -0.2063 -0.0194  0.0848
92637W        W35690   5.965  22.854  14.975 -0.1150 -0.0164  0.3936
92638W        W35691  27.053  29.377  22.002 -0.0903  0.4035 -0.1921
92639W        W35692  19.883  28.845  14.931  0.2541  0.0454  0.0037
92640W        W35693   3.983  20.404  27.344  0.1369  0.1004  0.2865
92641W        W35694  23.585   8.948   1.369  0.1557 -0.0954  0.2309
92642W        W35695  23.215  14.275  22.887 -0.1919 -0.2894  0.0177
92643W        W35696   2.410  27.331  17.084  0.0548  0.4504  0.0708
92644W        W35697  16.673   2.046  28.227  0.0785 -0.2255 -0.0788
92645W        W35698  20.398  14.590  28.486  0.1778  0.0857  0.0622
92646W        W35699  31.000  15.619   2.160 -0.0139 -0.0051 -0.0284
92647W        W35700  14.585  21.211  15.866 -0.2908  0.1943 -0.0188
92648W        W35701   5.996  19.340   1.997  0.3349 -0.0515  0.0306
92649W        W35702  27.918  33.894   2.748  0.0738 -0.2924 -0.1838
92650W        W35703  24.472  11.254  14.557  0.0993  0.2371 -0.0130
92651W        W35704  26.598  12.086  18.276  0.2708 -0.3761  0.2985
92652W        W35705  11.543   7.203  24.365  0.0820 -0.2313 -0.0330
92653W        W35706  16.844  23.572  15.144  0.2914 -0.0784 -0.1546
92654W        W35707   9.824  23.591  26.848 -0.0213 -0.1445 -0.1435
92655W        W35708  11.767  20.536  23.333 -0.0573  0.1361 -0.1062
92656W        W35709  16.984  31.418  25.481 -0.1394 -0.0953 -0.2517
92657W        W35710  31.821  21.174  21.297  0.1489  0.0196 -0.2404
92658W        W35711   8.813  17.257  17.125 -0.0902  0.1612 -0.1671
92659W        W35712  32.719  28.024  22.963 -0.0887 -0.1345  0.0912
92660W        W35713   0.527  26.772  24.504 -0.0235 -0.0639  0.1602
92661W        W35714  26.443  30.471  24.321 -0.2294 -0.1764  0.2387
92662W        W35715  20.514  26.560  24.177 -0.0599 -0.3006 -0.1350
92663W        W35716  22.329  20.191  21.884  0.3956 -0.0143  0.2563
92664W        W35717  23.074  26.823  23.448 -0.2151 -0.3136 -0.2373
92665W        W35718  11.780  22.331  19.609  0.2141  0.1794  0.0686
92666W        W35719   7.448  17.785  25.792 -0.1535  0.1029 -0.1687
92667W        W35720  34.312   3.234  17.178  0.1407 -0.2909 -0.1178
92668W        W35721  30.724   1.452  16.506  0.1947  0.1479 -0.0749
92669W        W35722  25.029   3.470  25.761  0.1325  0.0228  0.0133
92670W        W35723  15.853   3.902  14.770 -0.1014 -0.0747  0.0091
92671W        W35724  34.211  26.096  14.290  0.3833  0.0656 -0.0575
92672W        W35725  31.169  25.695  16.928  0.0804 -0.1517  0.1242
92673W        W35726   4.062  31.365  13.875  0.0778 -0.0906 -0.2202
92674W        W35727  23.825  24.231  24.227 -0.1898 -0.0536 -0.1755
92675W        W35728  20.877  16.581  27.596  0.0379 -0.1716 -0.0688
92676W        W35729  24.236  20.064  16.114  0.3946 -0.1081  0.2447
92677W        W35730   7.443  32.188  20.098 -0.1472  0.3210 -0.2186
92678W        W35731  26.682   7.802  14.776  0.1587 -0.2453 -0.2931
92679W        W35732  14.334   0.489  15.641 -0.2009 -0.0662 -0.2894
92680W        W35733  19.664  21.051   3.689  0.1040  0.1158 -0.0270
92681W        W35734  28.621   1.063  27.604  0.0372 -0.0639  0.2596
92682W        W35735  24.995  18.917  17.799 -0.0137  0.1200  0.0953
92683W        W35736  27.333  30.729  28.123  0.0607  0.0053 -0.0400
92684W        W35737  14.006  24.619  15.518 -0.3206  0.3658 -0.0369
92685W        W35738  28.320  29.611  19.317  0.1078 -0.1820 -0.1560
92686W        W35739  12.927  30.949  14.880  0.0169 -0.1125  0.1498
92687W        W35740   8.588  20.619   3.008 -0.0041  0.0583  0.0458
92688W        W35741  22.656  24.281  19.063 -0.0785  0.0036 -0.2092
92689W        W35742   6.983  27.771  17.037 -0.2069  0.1977  0.1867
92690W        W35743  25.811  28.666  14.511 -0.3065  0.1990 -0.0276
92691W        W35744  15.496   1.108  24.544 -0.1158  0.1035 -0.1431
92692W        W35745  22.813   2.056  26.281 -0.2057 -0.0131 -0.0274
92693W        W35746  34.137  15.229  15.049  0.2252  0.2466  0.1448
92694W        W35747  31.982  25.458  16.602  0.1520  0.2754  0.0098
92695W        W35748  18.301  31.979  17.584  0.1571 -0.3203  0.0058
92696W        W35749   9.513  32.728  28.111 -0.1370 -0.0758  0.2084
92697W        W35750   3.830  17.319  20.580  0.1000  0.3022 -0.0499
92698W        W35751  18.698  27.485  24.200  0.0853 -0.0005 -0.0539
92699W        W35752   5.260  15.740  18.272  0.0363  0.1095 -0.3119
92700W        W35753  25.816  23.489  21.901  0.0286 -0.0043 -0.1591
92701W        W35754   8.297   6.758  21.241 -0.0956  0.2544  0.0875
92702W        W35755  11.367  29.597  22.353  0.0988 -0.3368 -0.1309
92703W        W35756  10.054   3.425  15.764 -0.0059 -0.0777 -0.1350
92704W        W35757   7.178   0.439  28.237 -0.0314  0.0535  0.1056
92705W        W35758  17.720  28.581  14.554 -0.1997 -0.3124 -0.0769
92706W        W35759  22.914  18.607  16.712 -0.0571 -0.1356 -0.1292
92707W        W35760   8.061  32.169   0.164  0.2491 -0.2573 -0.0266
92708W        W35761  33.175  16.058  19.668 -0.0849 -0.3927  0.0929
92709W        W35762  18.699  23.361  15.768  0.1273  0.0358  0.1561
92710W        W35763  16.819   9.587  16.552 -0.3511  0.5725  0.0513
92711W        W35764  25.155   0.796  20.951  0.0954 -0.2710 -0.0538
92712W        W35765  32.569   4.272  24.081  0.0679  0.0347  0.0274
92713W        W35766  30.464  27.948  26.134 -0.3079  0.1721  0.0142
92714W        W35767  31.283  21.796  16.144  0.0974  0.1256 -0.1639
92715W        W35768  18.326  11.418  19.467  0.1810  0.3180  0.3694
92716W        W35769  23.737  19.953  20.863 -0.0442 -0.0400 -0.0784
92717W        W35770  17.877   3.012   2.471 -0.0830 -0.1425  0.2384
92718W        W35771  24.079  19.269  16.276  0.3140  0.1959 -0.0388
92719W        W35772  21.531  24.600  23.321  0.0949 -0.0419 -0.0032
92720W        W35773  26.179  27.462  14.205 -0.3935 -0.1988 -0.3314
92721W        W35774  17.917  17.985  23.913 -0.2316  0.1370  0.0419
92722W        W35775  20.476  11.424  20.185  0.5651 -0.1826  0.3420
92723W        W35776  29.692   9.400  17.137  0.1051  0.0384 -0.2196
92724W        W35777  24.014  25.635  18.925  0.0276  0.0534  0.0920
92725W        W35778  11.648   8.198  16.812 -0.2838  0.2108  0.1560
92726W        W35779  26.558  31.637  18.460  0.0750  0.2054 -0.0816
92727W        W35780  15.210  34.583  20.361  0.1546  0.3253  0.0999
92728W        W35781  23.608  17.499  25.257  0.2294  0.1065  0.0960
92729W        W35782  12.698   7.080  19.624 -0.0627 -0.1341 -0.3071
92730W        W35783   6.569  34.019  22.822  0.2970  0.0088  0.2496
92731W        W35784  18.100  30.574   3.824 -0.3271 -0.1410  0.0504
92732W        W35785  24.710  26.681   5.443  0.0142 -0.1432  0.4822
92733W        W35786  21.270  23.915  14.741 -0.0035  0.0963  0.0823
92734W        W35787  19.760  20.645  17.685 -0.2266 -0.3127 -0.1069
92735W        W35788  15.122  27.608  21.935 -0.2004  0.0259 -0.0572
92736W        W35789  22.684  31.038  25.779 -0.0580 -0.0393 -0.2672
92737W        W35790   7.964  18.143  16.139 -0.3516 -0.2628 -0.1300
92738W        W35791  10.624  15.180  18.014 -0.0311 -0.0854 -0.0386
92739W        W35792  10.830  32.786  23.827 -0.0096 -0.1075  0.0355
92740W        W35793  19.408  21.788  15.769  0.2568  0.2044  0.0578
92741W        W35794  24.947  26.272  20.229 -0.1808 -0.0299  0.2428
92742W        W35795  17.832  27.737  16.877  0.1881  0.0515 -0.1380
92743W        W35796  17.118  28.182  20.024  0.4005  0.1129 -0.0234
92744W        W35797  10.519   9.939  15.443  0.1830  0.2627 -0.1479
92745W        W35798  30.957  33.069   4.639 -0.4240  0.1012 -0.2284
92746W        W35799  20.913  23.944  26.439 -0.1882  0.2137 -0.3094
92747W        W35800   9.354  34.011  21.275  0.1809  0.3324  0.0568
92748W        W35801  16.047  26.427  28.668  0.1770 -0.1294  0.0677
92749W        W35802  11.806  17.322   2.515  0.0787  0.3408  0.1926
92750W        W35803   4.568  27.111  23.278 -0.0050 -0.3806  0.1706
92751W        W35804  25.553  28.638  13.631  0.0885  0.0637  0.0414
92752W        W35805  25.329  32.969  28.772 -0.3526 -0.1686  0.0219
92753W        W35806  11.751  27.432  15.894  0.0485  0.1037 -0.1155
92754W        W35807  30.809   0.972  14.686  0.2014  0.0119  0.0405
92755W        W35808  17.009  25.066  28.565  0.1947  0.0818  0.2595
92756W        W35809  19.065  33.662  15.693 -0.2631 -0.0399 -0.1240
92757W        W35810  32.040  22.990  20.359 -0.1395 -0.1078  0.0549
92758W        W35811  26.145   5.214  22.709  0.1820 -0.1207  0.1079
92759W        W35812  32.448  17.842  24.302  0.0990  0.1838  0.2784
92760W        W35813  25.097   5.157  14.659  0.3158  0.0342  0.1580
92761W        W35814  17.318  30.383  16.831 -0.0245 -0.3055 -0.0300
92762W        W35815  18.692  12.773  24.491 -0.1996  0.5016  0.0846
92763W        W35816  23.466   9.260  17.210 -0.1076  0.0122  0.1269
92764W        W35817  28.167  20.507  14.663  0.1322 -0.1020 -0.1062
92765W        W35818  19.338  22.233  17.081 -0.0890 -0.3181  0.1895
92766W        W35819  22.378  32.230  19.822  0.0446  0.1378  0.2076
92767W        W35820  24.126  15.333  19.382  0.0802 -0.2066  0.3509
92768W        W35821  12.631  19.464   6.529  0.1287  0.0682  0.0797
92769W        W35822  21.339  29.849  23.427 -0.1615  0.0256 -0.1028
92770W        W35823  27.276  13.728  19.854  0.3270 -0.1402  0.0954
92771W        W35824  17.275  27.071  16.220 -0.1255  0.2200  0.0837
92772W        W35825  28.632   7.352  18.589 -0.0096 -0.3662  0.3125
92773W        W35826  11.840  20.786  21.778 -0.1560 -0.1333  0.0681
92774W        W35827   6.803  21.580  23.733  0.0974 -0.2416 -0.1792
92775W        W35828  26.020  28.975  27.156 -0.4052  0.0734  0.1739
92776W        W35829  21.250  19.978   1.093  0.4017  0.0576 -0.2539
92777W        W35830  27.636  14.973  19.687  0.2859 -0.0547 -0.1090
92778W        W35831  34.088  28.423  23.564 -0.2998  0.2291 -0.0195
92779W        W35832   2.931   1.466  18.961 -0.1497 -0.1955  0.2712
92780W        W35833   5.093  13.299  17.269  0.0334  0.0753 -0.2179
92781W        W35834  11.337  30.560  16.714  0.1625  0.1254  0.0391
92782W        W35835  21.510  25.189  15.110  0.1349  0.1716 -0.5838
92783W        W35836   3.481   1.241  18.050  0.2430 -0.0656 -0.0179
92784W        W35837   2.915  30.026  21.803  0.0403 -0.0822  0.1792
92785W        W35838  14.012  31.228  20.260  0.0550  0.1724  0.0149
92786W        W35839  23.739  24.302   3.842 -0.0917  0.1935  0.0768
92787W        W35840  16.496  25.462  21.468 -0.2411  0.1240 -0.0496
92788W        W35841  26.631  31.370  15.701  0.1701  0.1319 -0.3672
92789W        W35842  30.710  20.797  18.081 -0.3169  0.0497  0.0347
92790W        W35843  17.864  28.091   1.401  0.1626 -0.2239  0.1451
92791W        W35844  22.575  23.792  19.013  0.2439  0.0255  0.2435
92792W        W35845  14.395  27.942  23.496 -0.2634 -0.0269 -0.0350
92793W        W35846  21.416  33.592  18.209 -0.0942 -0.0932 -0.1126
92794W        W35847  19.906  23.596  23.749 -0.0649 -0.3402  0.2856
92795W        W35848  13.412  33.038  17.830  0.3322 -0.2044  0.1281
92796W        W35849   7.401   5.092  18.272 -0.0828  0.0360 -0.1266
92797W        W35850  18.852  33.402  18.935 -0.1325 -0.0344 -0.0618
92798W        W35851  14.059  32.031  23.534 -0.4245 -0.1374 -0.2378
92799W        W35852  24.893  18.984  14.315  0.0638 -0.1324 -0.1420
92800W        W35853   3.882  18.988  28.310  0.0989  0.3067  0.5102
92801W        W35854  12.001  26.859  17.608  0.1080  0.2893  0.3050
92802W        W35855  33.675  27.820  22.891 -0.1533  0.1616 -0.1158
92803W        W35856   3.860  33.042  20.483 -0.2536 -0.1953  0.2570
92804W        W35857  19.390   0.130  26.967  0.0089  0.1265  0.6235
92805W        W35858  14.912   0.831  17.027 -0.1278 -0.0534 -0.2638
92806W        W35859  17.822  21.908  23.110  0.0192 -0.2487 -0.3236
92807W        W35860  31.424  10.984  15.978 -0.0924 -0.0919  0.0775
92808W        W35861  34.530  27.054  28.528  0.2165  0.1367 -0.1648
92809W        W35862  30.505  23.357   2.394  0.0108  0.0462  0.0243
92810W        W35863  12.976  27.716  29.082 -0.0583  0.2206 -0.1547
92811W        W35864  15.324  31.390  18.632  0.1161  0.2102  0.1557
92812W        W35865  27.773  23.086  13.896  0.1246 -0.2571 -0.0681
92813W        W35866  16.896  11.485  18.556 -0.0026  0.0942  0.0385
92814W        W35867  15.533  26.740  19.691 -0.1663 -0.0075 -0.1397
92815W        W35868   5.347  15.964  14.731  0.0889  0.1637 -0.0260
92816W        W35869  27.582  17.657  23.395 -0.0877 -0.1971  0.0751
92817W        W35870  33.321  25.140  20.715  0.0735 -0.0775 -0.0615
92818W        W35871  12.556  10.487   4.576 -0.1144 -0.1082  0.2024
92819W        W35872  31.267  18.405   6.806 -0.4213  0.2570 -0.0006
92820W        W35873  23.777  34.087  14.830 -0.0580 -0.0357 -0.0994
92821W        W35874  12.300  14.105  24.777 -0.1130  0.5012 -0.3102
92822W        W35875  13.176  27.775  26.613 -0.1553  0.0662 -0.0358
92823W        W35876   8.884  18.298  27.646 -0.0286  0.0394 -0.0784
92824W        W35877  22.053   4.189   0.475  0.0681  0.0343  0.0858
92825W        W35878  26.957  30.802  20.164 -0.0620  0.0270 -0.3368
92826W        W35879   6.550   7.978  20.094  0.1060  0.1244  0.1049
92827W        W35880  28.026  18.235   5.294  0.2674  0.1273  0.1427
92828W        W35881  18.332  10.333  18.158 -0.1597  0.0251  0.3164
92829W        W35882  11.588  17.636  17.112 -0.0756  0.0555  0.0705
92830W        W35883  30.113   0.945  23.925 -0.2251  0.2080 -0.1721
92831W        W35884  10.444   2.446  15.773 -0.1563  0.1676  0.2055
92832W        W35885  25.931  33.916  17.736  0.0704 -0.1461  0.0016
92833W        W35886   5.697  19.933  23.106  0.1186 -0.0017 -0.2743
92834W        W35887  22.482   9.366  15.401  0.1286 -0.0570 -0.1082
92835W        W35888   7.144  15.301   2.368 -0.2880  0.0073  0.1347
92836W        W35889  32.500  26.591  16.434  0.0845  0.1026 -0.2051
92837W        W35890  33.712   8.652  23.434  0.1908  0.2612  0.1681
92838W        W35891  24.504  29.248  24.807  0.0198 -0.1808 -0.0399
92839W        W35892  22.026  17.745  19.448  0.1163  0.0389 -0.2046
92840W        W35893  21.153  30.950  22.275 -0.0458  0.2503 -0.0976
92841W        W35894  15.283   2.937  14.912  0.2687  0.1982  0.2456
92842W        W35895  22.002  32.512  17.570 -0.0028 -0.3388 -0.1610
92843W        W35896  19.006   9.686  19.019  0.0706  0.0543 -0.0415
92844W        W35897  21.847  15.662  25.030  0.0462 -0.0757  0.1606
92845W        W35898  22.910  25.034  20.133  0.1553 -0.0377 -0.0772
92846W        W35899  25.581  20.159  26.121  0.0095  0.5370 -0.1873
92847W        W35900  26.533  26.859  22.806  0.2456  0.2102 -0.0999
92848W        W35901  24.445  16.340  15.486  0.0590 -0.1172  0.0021
92849W        W35902  21.107  31.840  21.923 -0.2100  0.0683 -0.0305
92850W        W35903  20.439  20.334  18.945  0.3403 -0.2861  0.0594
92851W        W35904  31.191  28.646  13.859  0.2607 -0.1982  0.2995
92852W        W35905  30.966  28.927  14.976  0.0596 -0.1470 -0.1860
92853W        W35906  20.112  12.482  16.511  0.0578  0.1224  0.0016
92854W        W35907  22.089  18.752  24.878  0.0132 -0.0991  0.1720
92855W        W35908  25.929  24.563  17.513 -0.3403  0.2725 -0.2256
92856W        W35909  30.811  20.605  18.615 -0.3533  0.5508  0.0860
92857W        W35910  14.529  11.092  18.477 -0.3103  0.2202  0.2133
92858W        W35911  17.007  29.661  28.821  0.1497  0.0956 -0.1445
92859W        W35912   5.685  25.439  20.909  0.0984 -0.1198 -0.1221
92860W        W35913  29.472  20.953  14.745 -0.1168  0.2359 -0.2277
92861W        W35914  28.442  21.944  23.949 -0.1620  0.0091  0.1613
92862W        W35915  10.043  19.314  18.420 -0.1041 -0.0208 -0.2207
92863W        W35916  24.964  16.141  25.860 -0.0366 -0.1027  0.1098
92864W        W35917  21.870  24.813  24.445  0.2057 -0.0865 -0.1121
92865W        W35918  14.308  25.152  18.201  0.1542 -0.1579 -0.1541
92866W        W35919  20.330   5.722  27.436  0.3314 -0.1662 -0.0139
92867W        W35920  14.186  24.425  25.274  0.4333  0.0592 -0.1811
92868W        W35921  24.599  16.035  20.633  0.2411  0.1039  0.0974
92869W        W35922  34.522  34.423  28.045  0.2355  0.5868  0.2567
92870W        W35923  14.337  29.494  16.813 -0.1473 -0.0224 -0.2794
92871W        W35924  26.941  31.857  21.435 -0.0861  0.4391 -0.0736
92872W        W35925  31.861  21.066  16.249  0.1448 -0.0906  0.1890
92873W        W35926  30.853   5.629   0.849 -0.2056  0.2864  0.0071
92874W        W35927  15.670  33.683   0.853 -0.1195  0.0169 -0.0909
92875W        W35928  12.597   9.979  20.292  0.0729 -0.4484  0.1763
92876W        W35929  10.842  33.655  26.450 -0.1158 -0.2374 -0.0256
92877W        W35930  33.606  12.664  14.829 -0.3945  0.0882  0.0494
92878W        W35931  25.625  20.143  14.843  0.0470  0.1045 -0.2219
92879W        W35932  23.041  29.297  15.739  0.2698 -0.1074 -0.0219
92880W        W35933  28.327  14.832  17.883 -0.1623 -0.0209  0.2635
92881W        W35934  14.222  31.883  15.179 -0.1832  0.0604  0.0494
92882W        W35935  28.066  24.858  18.764  0.1087 -0.3726 -0.1297
92883W        W35936  13.326  29.457  16.648 -0.0667  0.0477  0.1746
92884W        W35937  14.155   6.105  23.612 -0.1594  0.3701  0.4225
92885W        W35938  11.414  17.222  22.435  0.1020  0.5228 -0.0508
92886W        W35939   4.786  14.867  14.377 -0.1899  0.3297  0.0170
92887W        W35940  17.677   9.673  21.101 -0.3440  0.0207 -0.1063
92888W        W35941  13.535  33.122   7.305  0.1807  0.1316  0.0000
92889W        W35942   1.957  26.951  16.227  0.2203 -0.0627 -0.4111
92890W        W35943   4.997  10.502  14.987 -0.1711  0.2122  0.3095
92891W        W35944  23.304  13.218  19.780 -0.1772 -0.1583  0.1156
92892W        W35945  19.279  25.328  26.249  0.1570 -0.5423 -0.2105
92893W        W35946  24.449  17.335  19.408  0.2926  0.3329  0.0500
92894W        W35947  20.514  30.855  18.898 -0.0923 -0.0354  0.0710
92895W        W35948  24.549  25.345  18.757  0.1260  0.0671  0.0581
92896W        W35949   7.341  13.350  20.290 -0.2531 -0.0541 -0.0753
92897W        W35950  32.324  14.307  15.106 -0.0478 -0.0431 -0.0473
92898W        W35951  20.967  17.796  23.939  0.1174 -0.1119  0.1627
92899W        W35952  19.041  32.416  20.897  0.1249 -0.0858  0.0403
92900W        W35953  34.056  33.466  18.178  0.1548  0.3244 -0.0927
92901W        W35954   2.309   3.703  16.518  0.1369 -0.0674  0.2011
92902W        W35955  19.207  23.449  25.901 -0.0260 -0.6864 -0.2612
92903W        W35956  15.794  21.060   4.319  0.1588 -0.2113 -0.0516
92904W        W35957  12.107  23.197  18.918 -0.0439 -0.1677 -0.0474
92905W        W35958   6.031  20.953  22.458  0.0839 -0.1608  0.0736
92906W        W35959  20.247  20.246  13.684 -0.2522  0.0913 -0.0321
92907W        W35960  17.512  18.902  28.077  0.2513  0.0864  0.3781
92908W        W35961  15.757  28.037  28.674  0.2256 -0.0549  0.0224
92909W        W35962   2.716  20.967  21.276  0.0251 -0.0453 -0.2630
92910W        W35963  12.845  33.646   8.307 -0.0317  0.0497 -0.3384
92911W        W35964  11.388  26.976  16.711  0.2865 -0.0994  0.1583
92912W        W35965  21.994  28.307  21.964  0.0527  0.0842  0.2064
92913W        W35966  29.990  25.685  25.303 -0.3554 -0.0776 -0.1506
92914W        W35967  33.318  10.155  20.516 -0.2294 -0.1002  0.3607
92915W        W35968  28.424  23.055  18.477 -0.0826  0.2765  0.0695
92916W        W35969  25.657  27.993  25.892  0.0285  0.1548  0.0919
92917W        W35970  12.773  14.998  14.602  0.0365  0.4604 -0.1805
92918W        W35971  28.141  23.550  22.899 -0.0603 -0.1099  0.2346
92919W        W35972  27.601  21.210  21.666  0.0396  0.2085 -0.0460
92920W        W35973  14.438  14.582  15.506 -0.0259  0.0300 -0.0661
92921W        W35974  25.727  24.768  26.103  0.0607 -0.1936 -0.1248
92922W        W35975  22.998  21.444  24.071  0.3834 -0.0400 -0.1440
92923W        W35976  16.149   9.029  20.756  0.0294 -0.1340 -0.2205
92924W        W35977   9.624  34.533   1.933 -0.2730 -0.4224  0.0400
92925W        W35978   8.286  26.051   2.217 -0.0750 -0.2136  0.2538
92926W        W35979  28.118  18.726  18.466 -0.2097 -0.0631  0.1064
92927W        W35980   9.904   3.544  25.546 -0.0572  0.4332  0.1853
92928W        W35981  17.405  16.419   6.181  0.1522  0.2996  0.1547
92929W        W35982  31.053  24.503  18.681 -0.0972 -0.1659  0.0997
92930W        W35983   3.243   0.954  18.585  0.0364 -0.0795 -0.2643
92931W        W35984  19.446  19.887  14.924  0.0967  0.2382 -0.3400
92932W        W35985  28.633  30.676  22.391 -0.0384 -0.0617  0.0135
92933W        W35986  21.960  31.874  14.905 -0.0673 -0.1743  0.0391
92934W        W35987  17.540  20.569  26.686 -0.0000  0.0216 -0.3168
92935W        W35988  23.099  19.139  17.999 -0.1064  0.4753 -0.0194
92936W        W35989  14.829  27.407   7.255  0.1165  0.0566  0.1299
92937W        W35990  19.819  22.333  25.684 -0.0608 -0.4156  0.0337
92938W        W35991  27.351  17.227  16.221 -0.0367 -0.0456 -0.1429
92939W        W35992  26.007  33.270  20.991  0.0829  0.2515 -0.0456
92940W        W35993  12.127  29.025  24.799 -0.0848  0.0502  0.0326
92941W        W35994   6.877  31.390  17.035 -0.0024  0.1946  0.0298
92942W        W35995  16.231  12.438  16.731 -0.1623 -0.0170  0.0859
92943W        W35996  28.251   0.219  14.024 -0.2250 -0.2176  0.1562
92944W        W35997  18.015  14.213   7.205  0.1957  0.0358 -0.0771
92945W        W35998  23.529  13.147  14.685 -0.2499 -0.1720  0.2961
92946W        W35999   6.317   5.704  25.387 -0.0187 -0.1133  0.1118
92947W        W36000  17.710  27.909  22.501  0.3822 -0.0247  0.1031
92948W        W36001  20.169  18.968  14.017  0.3246  0.1048 -0.0664
92949W        W36002  30.397  20.716   0.005  0.1194 -0.3495  0.1932
92950W        W36003  18.937  30.928  15.286  0.0289 -0.0840 -0.0675
92951W        W36004  16.730  24.757  26.583  0.0771 -0.0359 -0.0102
92952W        W36005  30.599  26.429   3.491 -0.2165 -0.1284 -0.1590
92953W        W36006  14.269  28.026  15.698 -0.2647 -0.3297 -0.1632
92954W        W36007  27.205  26.639  18.503  0.1620 -0.1579  0.1375
92955W        W36008  25.921  15.016  24.873  0.3396 -0.0961 -0.0067
92956W        W36009  19.602  10.622  25.738  0.1481 -0.0152 -0.2630
92957W        W36010   8.833  19.778  23.204  0.1669  0.2954  0.2180
92958W        W36011  28.799  19.478  18.126 -0.2392  0.0268 -0.1793
92959W        W36012  31.777  26.508   9.784  0.0497  0.1396 -0.3953
92960W        W36013   6.845   2.300  19.110  0.0757  0.2805  0.0123
92961W        W36014  21.626  26.058  22.726 -0.0671  0.2104 -0.0805
92962W        W36015  15.514   8.505  23.426  0.1279  0.5228  0.3154
92963W        W36016  29.510  22.313  22.167 -0.1609  0.0336 -0.2418
92964W        W36017   0.642  18.139   7.106  0.1179  0.0272 -0.1221
92965W        W36018  12.336  14.357  20.987 -0.1380  0.2177 -0.2565
92966W        W36019  10.476   3.537  17.722  0.0125 -0.2109  0.0887
92967W        W36020  11.409  34.006  16.788  0.1434 -0.2019 -0.0714
92968W        W36021   7.339  15.845   6.990 -0.1931  0.2000 -0.0891
92969W        W36022  21.518   1.576   8.473  0.2975 -0.0136 -0.2955
92970W        W36023  30.788  26.459  15.339  0.1794 -0.0055 -0.2816
92971W        W36024   2.474  31.231  27.818 -0.2671  0.0764  0.0715
92972W        W36025  19.116  24.396  16.336  0.1154 -0.1927  0.0112
92973W        W36026  23.498  17.952  15.348 -0.3225 -0.2929 -0.0330
92974W        W36027  19.573  30.019  26.058 -0.0394  0.0005 -0.1242
92975W        W36028  21.151  11.369  20.512  0.0975  0.0176  0.1197
92976W        W36029  32.112  22.815  16.591 -0.0824 -0.1380 -0.1280
92977W        W36030  16.387  21.614  18.054  0.1265  0.1271 -0.2631
92978W        W36031  15.988  24.594  28.836  0.1328  0.0975  0.0144
92979W        W36032  14.586  29.446  20.238 -0.0914 -0.2375  0.1540
92980W        W36033   2.547   1.411  19.613 -0.0267  0.2169 -0.2401
92981W        W36034  29.709   8.666  24.109  0.0947  0.1126 -0.0235
92982W        W36035  19.338  23.493  20.507 -0.1174 -0.2699  0.0399
92983W        W36036   8.818   3.440  27.238  0.0197 -0.3987 -0.1911
92984W        W36037   6.357  26.913  14.144 -0.0191  0.3102 -0.1544
92985W        W36038   1.113  11.124  15.392 -0.2104  0.1492 -0.1289
92986W        W36039   9.678  16.776  28.357 -0.1939 -0.0753 -0.1082
92987W        W36040  18.707  13.173   9.227 -0.3019  0.3034 -0.3421
92988W        W36041  24.518   3.777  26.643  0.0731  0.0132  0.0102
92989W        W36042  21.568  24.101  21.009  0.3008 -0.1394 -0.0053
92990W        W36043  32.315  14.314  27.322 -0.2910 -0.3387 -0.1391
92991W        W36044  12.098  21.623  16.336  0.2009  0.2314 -0.0175
92992W        W36045  21.891  24.685  18.145  0.1262 -0.4602  0.2948
92993W        W36046  27.972  17.910  27.111  0.0256  0.0325 -0.3524
92994W        W36047  14.477  17.760   2.163 -0.3268 -0.1101 -0.0259
92995W        W36048  20.214   6.647   1.364  0.1624  0.1574 -0.1381
92996W        W36049  10.477  24.471  17.298 -0.1696  0.1203  0.2524
92997W        W36050  20.619  18.304   8.552  0.3402 -0.2925  0.2199
92998W        W36051  22.280  26.594  28.385 -0.2612 -0.0637 -0.2575
92999W        W36052  21.242  15.114  17.308 -0.1598 -0.0537 -0.2115
93000W        W36053  23.335  31.681  14.156 -0.2060  0.0312  0.0513
93001W        W36054  23.409  28.722  23.181 -0.1227  0.2382 -0.0930
93002W        W36055   0.383  19.027  17.555  0.0605  0.1091  0.1224
93003W        W36056  16.414  14.619  15.791 -0.3414  0.1277  0.1779
93004W        W36057   0.708  23.984  18.188 -0.0207  0.1215 -0.0794
93005W        W36058  32.377  33.949   2.313  0.2684  0.0944 -0.1662
93006W        W36059  27.444  33.788  16.945  0.2399 -0.1636 -0.1641
93007W        W36060  15.579  29.931   4.582  0.1328 -0.3952  0.1416
93008W        W36061  29.097  20.240  18.900  0.1448 -0.1484 -0.0014
93009W        W36062  28.861   2.546  24.470  0.1069  0.3033  0.1077
93010W        W36063  24.261  25.201  27.253 -0.1692 -0.0447 -0.1155
93011W        W36064  24.383  27.958  21.854  0.0394  0.1402  0.2179
93012W        W36065  17.433   8.057  21.405 -0.2262 -0.0208  0.0052
93013W        W36066  16.855  31.806  18.817 -0.0052 -0.1916  0.2538
93014W        W36067  26.392  26.663  20.487 -0.0628 -0.2512 -0.0607
93015W        W36068  15.162  24.968  17.153 -0.0237 -0.0083 -0.2632
93016W        W36069  34.105  13.750  20.525 -0.0438 -0.1120 -0.1199
93017W        W36070  31.739  26.203   4.190 -0.0689  0.1616  0.1698
93018W        W36071  19.807   6.836  19.725 -0.1272 -0.4673  0.0714
93019W        W36072  22.918  27.969  10.400 -0.1071 -0.0704 -0.0210
93020W        W36073  17.970  30.995  18.117 -0.1409  0.0889  0.0431
93021W        W36074  12.060  20.777  16.051 -0.2025 -0.3218 -0.0342
93022W        W36075  28.888  28.801  19.490 -0.1105 -0.4132  0.1014
93023W        W36076  27.622   8.088   3.078  0.4709  0.0641 -0.1703
93024W        W36077  16.954  27.434   5.028  0.2035  0.4041 -0.1652
93025W        W36078  30.887  19.259  15.199  0.1162  0.0203 -0.1201
93026W        W36079   7.084  26.227  23.572 -0.1131 -0.0049 -0.0413
93027W        W36080  22.181  24.168  22.461  0.2208  0.0604  0.3622
93028W        W36081   8.101  26.846  22.708 -0.2378  0.2799 -0.2139
93029W        W36082  24.005  31.724   4.688 -0.0409 -0.3740  0.5374
93030W        W36083  21.554  16.554  13.160  0.0698  0.1645  0.1835
93031W        W36084  23.731  31.801  17.354 -0.1955  0.0490  0.1337
93032W        W36085  26.023   2.104  21.398  0.1592  0.2306 -0.1552
93033W        W36086  34.191  26.450  14.700 -0.0898  0.0723 -0.0546
93034W        W36087  13.281  27.511  12.982  0.0961 -0.1085  0.0095
93035W        W36088   8.437  28.588  25.241  0.2480  0.3228 -0.2182
93036W        W36089  31.207   1.343  16.391 -0.1594  0.1669  0.1998
93037W        W36090  23.156  33.693   2.069  0.2666  0.2022  0.1455
93038W        W36091  17.327   0.590  18.053 -0.1040  0.1113  0.2767
93039W        W36092  24.742   1.663  21.978  0.1481  0.3630 -0.0512
93040W        W36093  28.402  17.373  20.561  0.3254  0.3775  0.2650
93041W        W36094  28.133  30.387  23.555 -0.0781  0.1989  0.4790
93042W        W36095  18.909  28.388  24.588 -0.1613 -0.0097  0.2192
93043W        W36096  22.370  22.955  22.274  0.3291  0.2401  0.1466
93044W        W36097  25.369  29.242  17.098 -0.1983  0.1517 -0.2503
93045W        W36098  33.205  21.482  17.237 -0.1099  0.1890  0.2600
93046W        W36099  20.234  27.959  15.333  0.0515  0.0485 -0.2409
93047W        W36100  18.505  16.987  24.672  0.0957 -0.0567  0.0026
93048W        W36101   4.513   5.324  24.437  0.3268  0.3257  0.1348
93049W        W36102  12.810  25.518  15.112 -0.1891 -0.3240  0.1861
93050W        W36103  21.077  29.313  24.472 -0.2233  0.0016 -0.0936
93051W        W36104  18.699  13.474  18.639  0.0524 -0.0342  0.0711
93052W        W36105  27.947   5.283  24.014  0.3682  0.1217  0.1249
93053W        W36106   8.287  28.282  25.623 -0.1338  0.2522  0.0663
93054W        W36107   5.335  24.617  24.950 -0.0158 -0.1305  0.1909
93055W        W36108  25.839  11.688  22.889  0.2968  0.2202  0.1229
93056W        W36109  23.592  33.440   1.342  0.1721  0.3578 -0.1135
93057W        W36110  17.919  11.531  23.609 -0.0913  0.2989 -0.3182
93058W        W36111   1.015  31.240  24.740 -0.2389  0.0155 -0.3378
93059W        W36112  22.981  26.150  16.164  0.0820 -0.3629  0.0764
93060W        W36113  27.785  16.349   4.961  0.1683 -0.1440 -0.3228
93061W        W36114   6.392  23.136   2.042 -0.0398 -0.0947  0.1418
93062W        W36115  19.157  22.884  13.851  0.0369  0.1514  0.0073
93063W        W36116   6.821  28.836  16.074  0.0080  0.0261  0.2007
93064W        W36117  27.174  28.047   3.752 -0.0217  0.0147 -0.0425
93065W        W36118  23.560  26.309  16.562  0.2962 -0.1855 -0.1684
93066W        W36119  22.461  28.452  26.507 -0.0446 -0.1847 -0.0446
93067W        W36120  22.980  27.302  18.007  0.1326 -0.2019  0.0491
93068W        W36121   0.946  20.065   5.273  0.1243 -0.2530  0.0240
93069W        W36122  20.591   6.370   0.016 -0.1723  0.2642 -0.1510
93070W        W36123  24.973  29.006  28.842 -0.0319 -0.0230  0.1910
93071W        W36124  18.739  12.352  17.225  0.1541  0.2194 -0.3920
93072W        W36125  33.709  23.546  17.180  0.4490 -0.0995 -0.1913
93073W        W36126  21.342  31.614  19.108 -0.1619 -0.3059  0.2200
93074W        W36127  11.746   2.138  15.067 -0.1294  0.1503  0.0267
93075W        W36128   3.505  18.463  24.744 -0.0087 -0.0145  0.1632
93076W        W36129  18.989  16.956   2.344  0.0952 -0.0068 -0.0149
93077W        W36130  31.040   0.611   0.416  0.2893  0.0817 -0.2442
93078W        W36131  29.013  15.676  28.772 -0.0712  0.2794 -0.2618
93079W        W36132  25.841  32.208  20.802 -0.0434 -0.2774  0.0059
93080W        W36133  20.297  14.414  21.867  0.3379  0.0314  0.3800
93081W        W36134  22.559  29.026   7.016 -0.3383  0.2896 -0.0906
93082W        W36135  23.803  21.992   2.627 -0.1784  0.0959  0.1283
93083W        W36136  21.869  17.931  16.690 -0.0943  0.2696  0.3065
93084W        W36137  30.407  32.355  28.174 -0.0010 -0.0972 -0.2080
93085W        W36138  19.036  29.833  16.085 -0.2579  0.2125  0.0338
93086W        W36139  29.443  15.202  13.773 -0.2423 -0.5785 -0.3386
93087W        W36140  12.646  25.476  16.012  0.1849  0.0952  0.0581
93088W        W36141  23.553  22.723  14.085 -0.0801 -0.0163 -0.1626
93089W        W36142  22.818   6.366   1.213 -0.0129  0.2151  0.5244
93090W        W36143  17.643  25.301  15.848 -0.0645 -0.0662  0.3973
93091W        W36144   4.319  12.440  16.233 -0.1006  0.0928 -0.0204
93092W        W36145  27.364  18.403  24.871  0.0151 -0.0132 -0.0962
93093W        W36146  19.520   2.063  25.495 -0.3677 -0.1967  0.0951
93094W        W36147  22.010   3.103  16.462  0.0812 -0.0246 -0.1179
93095W        W36148  14.350  25.809  17.322 -0.1515 -0.1549 -0.2379
93096W        W36149  32.323  20.804  27.742  0.1998  0.0038  0.1755
93097W        W36150  32.735  32.745  28.379 -0.0919 -0.4518  0.1047
93098W        W36151  15.780  32.929  23.195 -0.0287  0.2381 -0.0334
93099W        W36152  23.376  22.221  21.462 -0.0824  0.2566  0.0264
93100W        W36153  12.549  25.668   4.807  0.2376  0.2402  0.1506
93101W        W36154  33.864  18.748  15.303  0.2376  0.2595 -0.1025
93102W        W36155  16.035  27.211  25.129 -0.0331  0.0551 -0.1074
93103W        W36156  28.577  22.965   5.218 -0.0773  0.0491 -0.1186
93104W        W36157   5.282  22.806  17.619 -0.0697 -0.4407 -0.4802
93105W        W36158  21.261  33.127  16.143 -0.2465  0.1972  0.0368
93106W        W36159  23.183  12.204   7.344 -0.0257 -0.0114 -0.0708
93107W        W36160  13.376  24.325  16.002  0.0579 -0.2023 -0.0976
93108W        W36161  31.772  19.868  14.327  0.2708  0.0559 -0.0125
93109W        W36162  22.394   3.399  15.916 -0.0406 -0.0991  0.0453
93110W        W36163  18.278  31.299   0.398  0.0589 -0.0019  0.2036
93111W        W36164  10.648  15.360  19.319  0.0451 -0.0845 -0.3492
93112W        W36165  26.776  31.278  22.060 -0.0875  0.1491 -0.0510
93113W        W36166  24.147   0.934  19.830 -0.0192 -0.0646 -0.3188
93114W        W36167  18.963   2.709  26.807 -0.0974  0.1606  0.1874
93115W        W36168  12.669  23.187  19.657  0.2221 -0.0736  0.0677
93116W        W36169  32.767  18.570  20.001  0.1013  0.0833  0.1248
93117W        W36170  20.206   2.298  16.598 -0.2060 -0.0092 -0.3206
93118W        W36171   7.729  25.082  13.552 -0.2108  0.3500  0.3378
93119W        W36172  31.496  13.995  14.490  0.1697 -0.1620 -0.0737
93120W        W36173  17.663  19.719  15.568  0.0925 -0.1494 -0.0926
93121W        W36174  17.665  33.914   3.211  0.1677  0.4755 -0.1855
93122W        W36175  34.299  13.912  22.393  0.0872 -0.1806  0.0950
93123W        W36176  27.498  32.305  23.023  0.2709 -0.1245  0.0510
93124W        W36177  20.448  22.419  14.691 -0.1899  0.0972 -0.0883
93125W        W36178   6.871  20.635  19.349 -0.1951  0.0957  0.0530
93126W        W36179  27.124  11.274  26.882 -0.0811 -0.2447 -0.1430
93127W        W36180  23.763   9.791  15.701 -0.1511 -0.0090  0.1945
93128W        W36181  22.854  23.826  17.365 -0.0640 -0.0483 -0.0770
93129W        W36182   9.660  15.690  27.710 -0.0007  0.0182 -0.1360
93130W        W36183  31.183   3.990  14.298  0.2295 -0.1453  0.0488
93131W        W36184  20.730  21.535  24.235 -0.1177  0.2327  0.0455
93132W        W36185  25.171  28.519   2.059  0.3266  0.2182 -0.0158
93133W        W36186   3.172  29.167  13.562  0.1979 -0.1325  0.0268
93134W        W36187  12.695  14.712  18.753  0.2303 -0.0164 -0.3558
93135W        W36188  24.343  26.981  18.786  0.3934  0.1366  0.0597
93136W        W36189  18.677  22.323  18.284 -0.0993  0.0300 -0.0620
93137W        W36190   6.018  21.106   7.192  0.1485  0.0942 -0.0839
93138W        W36191  15.714  28.618   3.106  0.1840 -0.1519 -0.3821
93139W        W36192   7.440  12.943   2.149 -0.0412 -0.0283 -0.1648
93140W        W36193  22.543  25.389  20.099 -0.0314  0.3854  0.1976
93141W        W36194   9.138  21.807  26.800  0.0694  0.1974 -0.0879
93142W        W36195  18.075  24.358  23.685 -0.0601  0.2162 -0.0507
93143W        W36196  14.297   4.263   4.726 -0.1326  0.1788 -0.1608
93144W        W36197  21.835  22.535  15.104  0.1908 -0.1501  0.1707
93145W        W36198  22.556   5.147   2.589 -0.2766 -0.1845 -0.0206
93146W        W36199  19.391  25.821  15.007 -0.1863  0.2263 -0.3314
93147W        W36200   3.651   7.133  20.803  0.2159 -0.2600  0.0903
93148W        W36201  23.025  21.807  18.883 -0.1647  0.0588  0.0552
93149W        W36202   1.864  12.311  22.146 -0.1209  0.1595 -0.0706
93150W        W36203  13.790  20.713  15.313 -0.1459 -0.1446  0.0214
93151W        W36204   8.941  24.188  21.917 -0.3100 -0.1954 -0.0201
93152W        W36205  18.909  21.010  25.791  0.3326  0.2280  0.0839
93153W        W36206  11.097  24.942  23.338 -0.0564  0.0196 -0.0970
93154W        W36207  21.681  29.692  18.042 -0.0072  0.4734 -0.3224
93155W        W36208  27.584  14.016  19.494 -0.1647 -0.0587  0.1432
93156W        W36209  33.637  28.996  13.818 -0.2100 -0.5552  0.0777
93157W        W36210  25.016  21.266  20.772 -0.0615 -0.1557 -0.1004
93158W        W36211  31.312   7.935  19.332 -0.0415  0.2511 -0.1284
93159W        W36212   2.732  24.173  20.980  0.3224  0.2083  0.0427
93160W        W36213  28.674  24.536  22.009  0.3928  0.2672  0.0026
93161W        W36214  13.930  10.174  25.932 -0.1564  0.2851  0.0754
93162W        W36215  29.978  28.004   9.875 -0.0408  0.1110  0.0583
93163W        W36216  26.264  23.551  20.677 -0.1928 -0.0021 -0.1713
93164W        W36217  28.813  10.508  16.147  0.1526 -0.2056  0.1535
93165W        W36218  20.849  16.559  16.156 -0.1121  0.1483  0.1768
93166W        W36219  22.890   7.767  15.274 -0.0562  0.0523  0.4651
93167W        W36220  26.272  19.822   8.959 -0.0016 -0.0506 -0.0752
93168W        W36221  18.455  22.624  10.840  0.1826  0.1314  0.1401
93169W        W36222  15.027  14.849  13.470 -0.1557 -0.2442 -0.1072
93170W        W36223  29.360   6.098   0.424  0.0416 -0.1896  0.4121
93171W        W36224  22.048  33.547  20.280 -0.4159 -0.2318  0.2938
93172W        W36225  15.750  25.629  20.253 -0.1254  0.1074  0.0172
93173W        W36226  16.409  32.058  23.494 -0.0405 -0.2386  0.1817
93174W        W36227  25.916  34.208  17.293  0.5162  0.1146 -0.1416
93175W        W36228  20.848  23.021  22.242 -0.2671 -0.1130 -0.0389
93176W        W36229  25.639  18.259  22.177  0.2819 -0.1164  0.0527
93177W        W36230  12.562  30.232  25.751 -0.1920  0.3837  0.0874
93178W        W36231  29.976  31.842  15.530 -0.1653 -0.0612  0.3285
93179W        W36232  29.452  33.410  16.996 -0.0823 -0.0360  0.1045
93180W        W36233   3.563  24.810  20.528  0.2749 -0.2626 -0.0041
93181W        W36234  19.827  31.926  25.344  0.0105 -0.0954 -0.1490
93182W        W36235  29.497  25.093  17.330 -0.1478 -0.4687 -0.1910
93183W        W36236  27.305  33.143  25.513 -0.2903  0.0671  0.0061
93184W        W36237  22.944   0.149   5.675 -0.1044 -0.0883 -0.1002
93185W        W36238  33.932  13.895  19.656 -0.3211  0.1732 -0.1426
93186W        W36239  18.090  32.343   1.370 -0.2708  0.1829  0.2609
93187W        W36240  23.733  21.050  15.635 -0.0185 -0.3577  0.0756
93188W        W36241  26.078  31.569  15.494 -0.3105  0.0673 -0.1903
93189W        W36242  17.942  28.238  23.486 -0.1288  0.2599 -0.0297
93190W        W36243  22.773   9.952  23.295  0.3821 -0.1206 -0.1009
93191W        W36244   9.133  16.372  21.392 -0.1192  0.2622 -0.1041
93192W        W36245  31.913   8.910  25.038 -0.0050  0.3111 -0.1307
93193W        W36246   9.693   7.590   4.791  0.0603  0.3448  0.1350
93194W        W36247  22.176  18.605  15.352 -0.1677 -0.2138 -0.2565
93195W        W36248  14.100  31.811  14.700 -0.0321  0.0330 -0.0766
93196W        W36249  14.310  19.497  26.042 -0.1567  0.2113  0.4126
93197W        W36250  17.985  12.401  23.988 -0.1210  0.1911  0.3714
93198W        W36251  20.511  22.208  18.664 -0.0298 -0.3543 -0.1923
93199W        W36252  30.870  27.809  28.776  0.0350 -0.0965  0.1832
93200W        W36253  17.200  34.621   7.748  0.0203 -0.3831  0.2375
93201W        W36254  25.567   4.313  15.832  0.1814  0.1271  0.0195
93202W        W36255  25.704  23.334  22.362 -0.1949  0.0630 -0.0856
93203W        W36256  16.625  21.427  25.049  0.1439 -0.2997 -0.2724
93204W        W36257  23.899   2.876  23.871  0.1419  0.1082 -0.2850
93205W        W36258  15.189  20.918   8.900  0.2990 -0.1257  0.0783
93206W        W36259  18.102  23.099   2.883  0.0775  0.0025 -0.0618
93207W        W36260  26.932  27.936   1.585  0.1812  0.2027  0.0324
93208W        W36261  14.661  17.916   2.653  0.3992  0.1235 -0.1776
93209W        W36262  14.754  18.381  24.912 -0.1899  0.1530  0.2544
93210W        W36263   0.857   2.488  23.723 -0.0825 -0.0272 -0.2579
93211W        W36264   9.491  27.118  28.367  0.1717  0.1448 -0.0992
93212W        W36265  21.350  24.688  15.276 -0.0510  0.2270  0.0102
93213W        W36266  20.879   4.203  27.109 -0.0704 -0.2336  0.1618
93214W        W36267  20.626   5.272  29.169 -0.0511 -0.1762 -0.1948
93215W        W36268   8.482  26.008  21.724 -0.1579 -0.0404  0.1416
93216W        W36269  11.975  18.661  19.768  0.1226 -0.2353 -0.0585
93217W        W36270  17.464  23.548  16.078  0.2248  0.0655 -0.1508
93218W        W36271  33.253  13.879  22.316  0.1187 -0.1148  0.2006
93219W        W36272   9.040  24.534  25.562  0.2383  0.4111 -0.2782
93220W        W36273  31.418  34.428  22.822  0.1160  0.2953  0.4608
93221W        W36274  14.377  33.209   0.925 -0.1983  0.1345 -0.1310
93222W        W36275  17.690  26.599   1.673  0.0148  0.0262  0.1495
93223W        W36276  13.906  19.882  24.127 -0.0947 -0.0119  0.2636
93224W        W36277   9.892  15.918  22.026 -0.3014  0.1956  0.1701
93225W        W36278  24.781   1.468  19.764  0.3701 -0.4338 -0.1708
93226W        W36279  19.477  24.402  26.720 -0.0780  0.2645  0.0390
93227W        W36280   2.933  21.101  17.133  0.2703 -0.3508  0.0069
93228W        W36281  22.367  27.032  25.303 -0.1899 -0.0394  0.2251
93229W        W36282  18.024  15.531  13.438  0.1755 -0.4023  0.1216
93230W        W36283   6.579  20.298  16.679 -0.1216  0.1211  0.2480
93231W        W36284   6.789  27.316   5.052 -0.3268  0.3175  0.1143
93232W        W36285  30.081  29.034  18.119  0.1246 -0.2875  0.0075
93233W        W36286   8.529  14.790  21.238 -0.2567  0.0645 -0.2515
93234W        W36287  20.622  18.756   0.669 -0.0296  0.0592 -0.0750
93235W        W36288   8.897  18.762  28.480 -0.0418 -0.0463 -0.0438
93236W        W36289  25.624  26.598  21.864 -0.1703  0.2303  0.0623
93237W        W36290  19.425  15.562  23.005 -0.0774 -0.2023  0.0567
93238W        W36291  26.344   1.750  17.411 -0.1585  0.1988  0.1537
93239W        W36292  16.746  11.628  16.600  0.1513  0.0739  0.1019
93240W        W36293  12.676  27.047  21.112 -0.0812  0.1188  0.2724
93241W        W36294  21.850  14.317  27.370 -0.0186 -0.1493  0.3187
93242W        W36295  20.933   3.214  15.561 -0.0454  0.0381 -0.0827
93243W        W36296  19.097  30.341  24.958 -0.0009  0.0674  0.2543
93244W        W36297  16.974  26.709  27.679  0.1125 -0.2315  0.1789
93245W        W36298   3.432  29.488  15.559 -0.3361 -0.1197  0.1070
93246W        W36299  12.385  24.119  25.768  0.0932 -0.1036  0.0583
93247W        W36300   7.873  31.667  18.478  0.0668  0.0141 -0.1031
93248W        W36301   7.401  19.372  13.934  0.1206 -0.0061 -0.3113
93249W        W36302  19.200   6.245   0.525  0.1096  0.0315 -0.0837
93250W        W36303  14.563  28.898  17.542 -0.0005 -0.2178  0.1374
93251W        W36304  24.057  22.914  21.327 -0.1082 -0.2876 -0.1359
93252W        W36305  16.623  21.584  28.787 -0.0086  0.2818  0.3601
93253W        W36306  23.095  23.435  24.860  0.0234 -0.2698  0.0551
93254W        W36307  15.637   7.173  28.766  0.1002 -0.1377  0.3538
93255W        W36308  22.159  32.759  18.516 -0.0491 -0.1458 -0.0761
93256W        W36309  16.065  30.057  19.323  0.2821  0.1863 -0.0332
93257W        W36310  18.969  30.401  16.096 -0.1124  0.0358  0.0932
93258W        W36311  23.363  31.138  24.483  0.0016 -0.0602  0.0459
93259W        W36312  19.842   9.767   0.061  0.4062 -0.1167  0.2093
93260W        W36313  14.375  26.727  18.389  0.2427 -0.1788  0.1988
93261W        W36314  18.908  13.645   1.065  0.0380  0.1509  0.1583
93262W        W36315   6.423  21.160  16.232  0.1191 -0.1410  0.0138
93263W        W36316   9.817  24.978  28.179  0.0815 -0.1161 -0.1286
93264W        W36317  25.128   4.932  14.196  0.1530 -0.1810  0.4567
93265W        W36318  28.110  21.557  27.404  0.0333  0.0709 -0.0589
93266W        W36319  21.561  27.926  17.861  0.0456  0.0624  0.0091
93267W        W36320  21.403  21.428  23.380 -0.0954 -0.0729  0.0032
93268W        W36321  17.601  28.580  27.734 -0.3589  0.2912 -0.0710
93269W        W36322  24.286  25.436  28.152  0.0502 -0.0989  0.3480
93270W        W36323  34.516  14.405  22.966  0.1098  0.3683 -0.1843
93271W        W36324  29.282  26.959  27.792 -0.1561  0.2360 -0.1386
93272W        W36325  28.223  24.499  14.529 -0.0095  0.4232  0.2021
93273W        W36326  28.515  31.780  22.051 -0.0989  0.4982  0.4436
93274W        W36327  31.325  18.463  28.488  0.0371 -0.1280 -0.2681
93275W        W36328  12.592  13.672  16.332 -0.2268 -0.0104  0.1599
93276W        W36329  26.718   2.611  28.435  0.1656  0.0619 -0.1602
93277W        W36330  26.747  12.879   2.231  0.0459 -0.0085  0.1456
93278W        W36331  20.709   1.152  16.928 -0.1380 -0.0910  0.0063
93279W        W36332  20.509  14.081  21.561 -0.0678  0.1368  0.3066
93280W        W36333  19.502   1.378   1.928  0.0999  0.2614 -0.2692
93281W        W36334  17.954   8.820   5.855 -0.1521 -0.1186 -0.3503
93282W        W36335  21.378  25.135  17.077  0.2444 -0.0459 -0.3828
93283W        W36336  19.006  11.758   9.006  0.3277 -0.1894 -0.1740
93284W        W36337  30.078  24.867  24.765  0.2383  0.1004  0.0008
93285W        W36338  31.152  30.442  13.064 -0.0678 -0.2472 -0.0180
93286W        W36339   0.843  18.656  20.833 -0.1177  0.0509  0.0913
93287W        W36340  23.713   3.134  17.099  0.1638  0.0270  0.3919
93288W        W36341   9.261  11.571  29.150 -0.3701  0.2568  0.4433
93289W        W36342  18.888  25.295   3.464  0.0216  0.0591  0.0717
93290W        W36343  31.970  30.735  15.578 -0.0047 -0.3210 -0.1164
93291W        W36344   0.041   1.531   5.194  0.2585  0.2070  0.0431
93292W        W36345  23.424  16.102  22.732  0.0019 -0.0321  0.1063
93293W        W36346  13.979  21.979  24.763 -0.0299 -0.2047 -0.0113
93294W        W36347   5.416   9.475  16.849 -0.1179  0.3620 -0.1162
93295W        W36348   9.766  14.643  14.743  0.0600  0.0855 -0.2111
93296W        W36349   4.208  32.061  28.759 -0.0236  0.1212 -0.0396
93297W        W36350  18.022  14.798  27.721 -0.3107 -0.4033  0.1100
93298W        W36351  11.187  28.175  14.801  0.3453 -0.1060  0.0402
93299W        W36352  21.660  27.115   1.499  0.2296 -0.0224  0.4036
93300W        W36353   4.439  18.285  21.694 -0.1330  0.1858 -0.1270
93301W        W36354  26.047  20.914  28.179  0.0875 -0.2087  0.2285
93302W        W36355  15.486  22.427   6.146  0.1523 -0.1234 -0.0229
93303W        W36356  13.671  23.302  19.672  0.0287 -0.0050  0.2322
93304W        W36357  21.313   2.968  25.338  0.2276  0.0583 -0.0241
93305W        W36358  19.735  31.164   7.883 -0.1670 -0.0285  0.0034
93306W        W36359   6.475  21.736  26.919 -0.0074 -0.1981  0.2631
93307W        W36360  19.687   3.726  27.793 -0.0739 -0.0580  0.2570
93308W        W36361  20.339   8.758  23.584  0.0997 -0.1980 -0.0423
93309W        W36362  24.690   2.013  18.889  0.1407 -0.1661 -0.3775
93310W        W36363  31.721  29.331   7.020 -0.0668 -0.0305 -0.1730
93311W        W36364  22.229  14.872   2.175 -0.0041 -0.3185  0.0529
93312W        W36365   3.516  10.414  28.855  0.0784 -0.0231 -0.0284
93313W        W36366  19.879   5.043  13.621 -0.2562  0.1864  0.1560
93314W        W36367  22.718  19.011  16.441 -0.0479  0.1881 -0.2229
93315W        W36368  17.589  27.282  20.460 -0.0541  0.1293  0.2850
93316W        W36369  20.826  13.613  20.391  0.0382  0.3939  0.1137
93317W        W36370  28.016  15.317  23.759 -0.1443  0.2092 -0.2830
93318W        W36371  13.720  25.232  22.686  0.1532 -0.1649  0.0201
93319W        W36372  33.453  29.792  27.264 -0.1289 -0.0018  0.0340
93320W        W36373   5.854  21.296  23.679 -0.2099  0.3313 -0.2142
93321W        W36374  12.727  31.452  17.877 -0.1026 -0.0909 -0.1940
93322W        W36375  21.368   0.908  14.824 -0.1631  0.2166  0.0345
93323W        W36376  16.434   0.210  25.288 -0.0718 -0.2299 -0.2076
93324W        W36377  25.986   4.217   8.875 -0.0049 -0.1251  0.0353
93325W        W36378  21.706  20.233   0.988 -0.0454  0.2032 -0.3894
93326W        W36379  26.302  26.411  19.683 -0.1614 -0.0603 -0.3228
93327W        W36380  20.311  15.061  20.122  0.1780  0.0617 -0.0403
93328W        W36381  12.672  15.250  28.904  0.2439  0.4014 -0.0506
93329W        W36382   3.240  30.193  17.815  0.1886 -0.1704 -0.0427
93330W        W36383  26.172  25.257  20.704 -0.1472 -0.1134  0.0125
93331W        W36384  16.272  24.630  14.978  0.2446 -0.2129 -0.3242
93332W        W36385  25.926  16.334   1.847 -0.1432  0.3497  0.0133
93333W        W36386  16.274  12.506   3.487  0.0266  0.1952 -0.4379
93334W        W36387  25.782  25.564   4.005  0.0987  0.0835 -0.2848
93335W        W36388  19.586  20.891  14.674 -0.2867 -0.2793  0.2963
93336W        W36389  10.725  33.666  16.396  0.0932  0.2882  0.2334
93337W        W36390  12.576  21.555  25.173  0.1817  0.1452 -0.2794
93338W        W36391  19.978  30.934   5.917 -0.2768  0.0805 -0.2567
93339W        W36392  10.025  21.670  17.143 -0.0917 -0.0909  0.0502
93340W        W36393  28.436  24.766  24.532 -0.4223 -0.1251 -0.3256
93341W        W36394  15.676  33.378  15.242  0.0361  0.0970 -0.0295
93342W        W36395   9.873  32.158  16.089  0.0657 -0.4064  0.1995
93343W        W36396  23.593  21.092   0.506 -0.3719 -0.1113  0.1692
93344W        W36397   7.120  20.423   8.856 -0.2856 -0.2294 -0.4516
93345W        W36398  21.488  14.744   3.224  0.0984 -0.4297 -0.2225
93346W        W36399  20.739  13.750  18.408 -0.1244 -0.1730  0.4928
93347W        W36400  31.454  30.670  10.072 -0.0544 -0.0072  0.3360
93348W        W36401  14.492   3.225   3.143 -0.0632 -0.1999  0.0078
93349W        W36402  33.717  27.105  15.590  0.2133  0.0330  0.0410
93350W        W36403  16.140  30.828  22.354 -0.0517 -0.0516  0.2177
93351W        W36404  16.635  25.371  19.483 -0.2993 -0.0108 -0.1866
93352W        W36405  28.290  24.666   7.276 -0.0743 -0.1171 -0.0278
93353W        W36406  19.874  20.378  22.394 -0.2785 -0.1890 -0.2702
93354W        W36407   9.779  10.733   6.845  0.0856 -0.4076  0.4262
93355W        W36408  21.266  30.560   0.417  0.4564  0.0584  0.3072
93356W        W36409  29.108   1.576  17.693 -0.2378  0.0365  0.0827
93357W        W36410  19.564  26.296  28.595 -0.0241 -0.2757  0.0474
93358W        W36411  29.758  32.464  27.571  0.4186 -0.3660  0.0269
93359W        W36412  21.984   8.008  28.134  0.1584 -0.0865 -0.0449
93360W        W36413  20.613   9.446   0.580  0.1880 -0.0906  0.0792
93361W        W36414  19.066  27.883  28.173 -0.1166  0.0212 -0.1740
93362W        W36415  23.937  17.097  27.404 -0.2459  0.1068  0.1041
93363W        W36416  34.549  23.850  24.775  0.2596  0.0708  0.3792
93364W        W36417   9.923  29.722  18.863 -0.2225  0.0451 -0.0617
93365W        W36418  11.745   8.539   9.044  0.0425  0.0427  0.3156
93366W        W36419  21.679  18.939  27.234 -0.0846 -0.0122  0.1841
93367W        W36420  24.437  20.786  16.954 -0.2058 -0.0594  0.1461
93368W        W36421   2.271  31.336  15.737 -0.1323 -0.3620  0.1755
93369W        W36422  27.611  26.844  24.236 -0.2259  0.0653  0.0003
93370W        W36423  25.536  24.427   0.199 -0.0441  0.2200  0.1383
93371W        W36424   1.956   4.744  23.796  0.1114 -0.3082  0.0612
93372W        W36425  21.756  25.985   2.964 -0.1292 -0.0810 -0.1283
93373W        W36426  20.661  29.405  23.689  0.0306 -0.0317  0.0224
93374W        W36427  25.503  15.601   0.423  0.0503  0.1334  0.1692
93375W        W36428   3.412  16.045  15.682  0.0034 -0.0257 -0.2960
93376W        W36429  10.904  20.238  18.975  0.1809 -0.1589  0.5365
93377W        W36430  30.423   3.084   4.881 -0.1380 -0.1176  0.1018
93378W        W36431  16.033  17.313   8.493 -0.1590 -0.2598  0.1165
93379W        W36432  27.398  22.560   6.326 -0.2233  0.0458  0.2443
93380W        W36433  13.971   5.585  14.460 -0.0360  0.0447  0.1212
93381W        W36434  21.453  16.257   6.025 -0.2119  0.1511  0.2257
93382W        W36435  10.527  24.174  24.238  0.0280  0.2126 -0.2628
93383W        W36436  25.670  28.481  17.984 -0.2543  0.0340 -0.2076
93384W        W36437  27.272  23.064  21.895 -0.1528  0.0172 -0.2073
93385W        W36438   1.940  26.852   2.144 -0.2619 -0.2392  0.2019
93386W        W36439  21.200  26.463  16.199 -0.0775 -0.1603 -0.6309
93387W        W36440  25.569  26.756   8.351 -0.1295 -0.2396 -0.0226
93388W        W36441  22.901   2.855   3.842 -0.1157  0.1526  0.1175
93389W        W36442  19.286  31.713   2.576 -0.0728  0.1753 -0.0405
93390W        W36443  12.238  23.102  22.358 -0.0654  0.0124 -0.0411
93391W        W36444   2.413  18.421  20.901 -0.1222  0.3900 -0.1346
93392W        W36445  19.666  12.635   1.959 -0.0936  0.0551 -0.0195
93393W        W36446  14.017  20.549  15.746  0.1520  0.0225 -0.0590
93394W        W36447  19.772  22.804  24.000 -0.0334 -0.3754  0.1205
93395W        W36448  25.656  15.631   7.515 -0.0491  0.0406 -0.3154
93396W        W36449  23.983   9.486  21.273  0.0384  0.0305 -0.0801
93397W        W36450   7.720  24.284  16.466 -0.2011 -0.1376 -0.2546
93398W        W36451  13.966  22.064   9.794 -0.1119 -0.0423  0.3096
93399W        W36452   9.558   0.105  16.784 -0.1635  0.1731  0.1556
93400W        W36453  24.568  27.579   9.720  0.2294  0.0031 -0.1079
93401W        W36454  25.707   9.441  21.899  0.0693 -0.4196  0.0785
93402W        W36455  24.808  29.036  21.441  0.2430 -0.1849 -0.0157
93403W        W36456  28.363  24.859  15.482  0.1639 -0.0479  0.2085
93404W        W36457   8.321   7.427  17.662 -0.1878  0.1263 -0.0303
93405W        W36458   9.807  19.930  27.294  0.1197 -0.2412  0.2124
93406W        W36459   8.507  32.431  15.196  0.0448  0.0087 -0.1864
93407W        W36460  23.177  22.675  27.704 -0.0732 -0.3231 -0.2002
93408W        W36461   1.182  21.171   7.323 -0.3616 -0.0245 -0.0213
93409W        W36462   6.629  30.884  17.824  0.2184 -0.1550  0.0427
93410W        W36463  19.696  11.168  16.161  0.3810 -0.1267  0.1025
93411W        W36464  20.962  29.208  26.642 -0.1096  0.3083  0.2139
93412W        W36465  26.806  25.491  22.976 -0.3403 -0.0401  0.0546
93413W        W36466   6.046   1.566   3.088  0.2920  0.3031 -0.2077
93414W        W36467   0.152   5.642  15.932 -0.1835 -0.0251  0.2569
93415W        W36468  26.125  14.690  22.946 -0.0871 -0.1673  0.0971
93416W        W36469  27.073   0.975  22.954 -0.0014  0.2080 -0.2329
93417W        W36470  25.989  17.007  20.029 -0.4044 -0.4039 -0.1191
93418W        W36471   4.840   2.319   5.495 -0.0712 -0.2334 -0.0105
93419W        W36472   8.930  22.595   9.188  0.2066 -0.1812  0.0766
93420W        W36473  23.378   9.454  15.483  0.2606 -0.1408  0.1476
93421W        W36474  27.125  17.413  23.412  0.0523 -0.1891 -0.1520
93422W        W36475  17.049  18.059  12.634  0.0900  0.2664 -0.0389
93423W        W36476  20.235  23.569   0.272 -0.1450 -0.1120  0.2249
93424W        W36477  11.623  24.742   6.066 -0.0851 -0.1012  0.5130
93425W        W36478  27.960   1.159  21.861  0.0627  0.2405 -0.3217
93426W        W36479   0.644  11.498   8.573 -0.1088 -0.1503  0.0878
93427W        W36480  17.320  26.492  15.773  0.1933  0.3882 -0.1426
93428W        W36481  30.329  32.625  15.802 -0.2826  0.1370  0.1356
93429W        W36482  18.201   7.755  20.847 -0.1149 -0.1016  0.3636
93430W        W36483  23.355  10.219  15.045 -0.0215 -0.0350  0.2101
93431W        W36484  22.203  31.980  17.017  0.1793  0.2996  0.1732
93432W        W36485  22.021  24.897  19.042  0.4793  0.1038 -0.1602
93433W        W36486  30.693  34.253  24.352 -0.0081  0.0377  0.0424
93434W        W36487  31.420   1.723   9.294  0.1266  0.1677 -0.3346
93435W        W36488  12.766  20.127   2.978 -0.0915 -0.0708 -0.4690
93436W        W36489  23.295  25.118  24.745  0.1028 -0.2393  0.0379
93437W        W36490  27.490  33.587  26.190 -0.1474  0.2271  0.3508
93438W        W36491  24.514   1.333  17.387 -0.2404 -0.0755 -0.1090
93439W        W36492  29.494  34.111   3.812  0.1620  0.0448  0.1972
93440W        W36493   2.244  32.093  18.097 -0.2386  0.2137  0.1953
93441W        W36494  22.266  11.599  24.678  0.2111 -0.2729  0.0359
93442W        W36495  21.773  15.692  15.816 -0.1797  0.2801 -0.0983
93443W        W36496  12.244  17.852  23.120 -0.0653  0.1300  0.2590
93444W        W36497  11.324   2.760  16.738 -0.1471  0.1383 -0.4771
93445W        W36498  30.127  22.278  18.759 -0.1903 -0.0936  0.2209
93446W        W36499  29.692  24.090  15.814 -0.4778 -0.0019 -0.2467
93447W        W36500  24.008  24.592  24.486  0.1708 -0.3184 -0.1068
93448W        W36501  11.860  24.223  21.193 -0.4089  0.0051 -0.3957
93449W        W36502  11.134   1.329  20.810 -0.0929  0.2471  0.1664
93450W        W36503  26.062  25.074  19.826  0.0370 -0.1596  0.0352
93451W        W36504  13.172  21.432  13.604 -0.0140  0.0290 -0.0257
93452W        W36505  22.412  15.946   0.880 -0.0071 -0.1674  0.0993
93453W        W36506   9.126  19.871  24.037 -0.0526  0.2041  0.0201
93454W        W36507  29.694  20.153  18.906  0.0987 -0.0758 -0.0102
93455W        W36508  17.312  27.567   6.256 -0.0617 -0.3072 -0.1421
93456W        W36509  14.644   4.743  18.083 -0.2418  0.0601 -0.0668
93457W        W36510  11.928   4.779   9.171 -0.3741  0.0318 -0.2084
93458W        W36511  18.377  24.976  10.079 -0.1359 -0.4249  0.1072
93459W        W36512  13.898  21.798  21.067  0.0976 -0.3028 -0.3099
93460W        W36513  24.765   0.755   6.184 -0.3165  0.0906 -0.4640
93461W        W36514  21.966  28.149  15.952 -0.1718  0.1474  0.0877
93462W        W36515  31.715  27.996  27.234  0.0446  0.1520  0.2136
93463W        W36516   8.279  22.186  23.657 -0.1179  0.1708  0.3066
93464W        W36517  10.978   5.474  25.232 -0.2254  0.0423  0.0345
93465W        W36518  15.653  17.600  28.265  0.0144 -0.0356 -0.1590
93466W        W36519  34.391  26.173  26.258 -0.3534  0.1846 -0.1051
93467W        W36520  15.918  21.880  17.559  0.2415  0.0002  0.3121
93468W        W36521  17.408  11.902  27.498  0.3148  0.0736  0.0921
93469W        W36522  23.530   5.885  16.604 -0.0559  0.2783  0.0904
93470W        W36523  26.566  29.484  18.385  0.1770  0.4095 -0.1041
93471W        W36524  21.341   5.875  27.788 -0.0999 -0.4906 -0.0295
93472W        W36525  23.546  30.457  27.327 -0.1340 -0.0286  0.0463
93473W        W36526   6.672   0.208   9.277 -0.0320 -0.0299  0.1100
93474W        W36527  28.069  34.148  21.900  0.0400 -0.1430  0.1681
93475W        W36528   0.386   1.990   1.284  0.3018 -0.0673 -0.0104
93476W        W36529  33.633   3.680   1.472  0.2561 -0.1297  0.0397
93477W        W36530  28.620  22.466  16.717  0.2525 -0.0813  0.0591
93478W        W36531  16.948  32.401  19.616  0.0409  0.1520 -0.0569
93479W        W36532  19.133   1.424  27.208  0.0418  0.0274  0.1748
93480W        W36533  18.355  23.439  14.970  0.2726 -0.1747  0.1395
93481W        W36534  23.923  25.577   6.235  0.0603  0.0804  0.2321
93482W        W36535  20.849  26.699  20.697  0.0958 -0.2536  0.1585
93483W        W36536  14.284  20.560   2.415  0.0232 -0.2234 -0.0076
93484W        W36537   2.585  23.813   6.965 -0.0808  0.0805 -0.1795
93485W        W36538   8.577  27.299  21.474 -0.0031  0.0201 -0.2504
93486W        W36539   7.536  13.658   4.792  0.0754  0.0792 -0.0273
93487W        W36540   4.088  10.458  23.774  0.0043 -0.0140 -0.0270
93488W        W36541  11.385   2.897  28.346  0.4306 -0.1884  0.1097
93489W        W36542  33.505  19.641  16.290  0.2607  0.2253 -0.1671
93490W        W36543  20.518  21.991  17.448 -0.3113  0.0458  0.0083
93491W        W36544   2.021  17.363  16.682  0.2565  0.3345  0.1508
93492W        W36545  18.806  15.649  23.272 -0.1314  0.1812  0.1993
93493W        W36546   7.935  14.426  15.986 -0.1693 -0.0116 -0.1903
93494W        W36547  22.115  13.347  28.716 -0.0970  0.2429  0.0810
93495W        W36548  22.792  12.078  18.493  0.2810 -0.2274  0.1519
93496W        W36549  13.873  11.160  25.196  0.1098 -0.1955  0.2752
93497W        W36550  17.428  29.102  19.784 -0.2069 -0.2577 -0.1629
93498W        W36551  12.550  21.934  20.105  0.1087  0.0125 -0.3075
93499W        W36552  14.406  27.684  27.771 -0.2241  0.0590  0.4632
93500W        W36553  24.689  31.766  23.034 -0.1823  0.3875 -0.0012
93501W        W36554   6.571  26.610  21.038 -0.0212 -0.2402 -0.0266
93502W        W36555  22.500  27.559  17.831  0.0903  0.1869 -0.2399
93503W        W36556  32.092  17.071  26.134  0.0896 -0.1090 -0.0143
93504W        W36557   6.745  22.580  13.831 -0.2159 -0.2111 -0.0767
93505W        W36558   2.925  17.516  22.858 -0.0012 -0.0520  0.1353
93506W        W36559  24.146  30.505  23.850 -0.3307  0.3482  0.0458
93507W        W36560  31.248  31.455  19.183 -0.3684 -0.0329 -0.1204
93508W        W36561  17.345   7.580  20.898  0.1540 -0.1277  0.3288
93509W        W36562   7.227   0.765   2.695  0.0189 -0.1953  0.0967
93510W        W36563  17.057   5.023   0.943  0.1367  0.0354  0.3686
93511W        W36564   0.291  10.958  15.967 -0.0495 -0.2248  0.4010
93512W        W36565  24.517  26.878   9.083  0.0804 -0.1882 -0.1832
93513W        W36566   3.119  27.783  17.003 -0.0425 -0.0497  0.1600
93514W        W36567  24.264   7.771   6.428  0.3258 -0.1394 -0.2378
93515W        W36568  10.846  22.905   3.746 -0.1317  0.5777  0.1178
93516W        W36569   0.495   3.404  16.368  0.0800  0.1872 -0.0370
93517W        W36570  28.965   3.923  25.235  0.0438  0.1841  0.1480
93518W        W36571   9.207  21.850   4.939  0.1035  0.1533 -0.1327
93519W        W36572  20.342  32.040  21.766 -0.0284  0.0747 -0.0836
93520W        W36573  11.202  23.393  15.695 -0.0936 -0.3104 -0.2853
93521W        W36574  13.733  28.496  21.685 -0.2076 -0.0144  0.0447
93522W        W36575  15.465  22.812  18.543 -0.0633 -0.0596 -0.4175
93523W        W36576  17.302  17.938   6.136 -0.2982  0.5110 -0.2368
93524W        W36577  22.719  30.238   1.086 -0.0534  0.1033  0.0144
93525W        W36578  20.251  22.502  17.762  0.0055  0.0939  0.1907
93526W        W36579  19.955  17.691  15.332 -0.0416  0.1251  0.1748
93527W        W36580  13.406  23.800   3.024  0.0132 -0.5050  0.1779
93528W        W36581  34.158  16.652  26.922  0.0630  0.0858  0.0555
93529W        W36582  29.223  20.825   1.336 -0.0814  0.1476 -0.0944
93530W        W36583  18.348  33.829  24.577  0.1018  0.2398  0.0660
93531W        W36584  26.117   5.994  24.349 -0.0036  0.1463  0.1869
93532W        W36585  26.042  27.126   4.509  0.0622 -0.1368  0.0334
93533W        W36586  17.674  18.536  18.527 -0.3431  0.1229 -0.0755
93534W        W36587  20.230  19.894  15.545  0.3767 -0.0519  0.2597
93535W        W36588  13.542  18.444  20.018 -0.0585  0.1270  0.0604
93536W        W36589  10.021  18.029   9.036 -0.3616  0.0781  0.1954
93537W        W36590  11.761  11.148  15.794  0.0299 -0.1888  0.1944
93538W        W36591   0.866   4.565  24.998  0.0347  0.0231 -0.2201
93539W        W36592  18.870   7.860  26.000 -0.1003 -0.1968  0.2606
93540W        W36593  18.439  17.708   6.549  0.1477  0.2917 -0.2240
93541W        W36594  17.992  32.611  15.605 -0.1112  0.0221  0.1090
93542W        W36595  16.893  15.044  13.863  0.1952  0.0488 -0.3299
93543W        W36596  10.108  15.305   4.134 -0.3971  0.0479 -0.5433
93544W        W36597  12.209  29.904   6.775  0.2372  0.0296  0.0460
93545W        W36598  12.385  25.357  22.025  0.1928  0.1697  0.1734
93546W        W36599  30.138  26.371  26.132 -0.2507  0.1001  0.1260
93547W        W36600  19.134  27.642  16.169 -0.2379 -0.0929 -0.3100
93548W        W36601  26.505  25.212   4.229  0.1286  0.0320  0.1945
93549W        W36602  10.797  23.432  18.190  0.0809 -0.0227  0.2839
93550W        W36603  23.037   3.144  25.112 -0.0680  0.0437  0.2775
93551W        W36604   6.346  24.198  19.018  0.0302 -0.2410 -0.0004
93552W        W36605  20.086   1.020  15.628 -0.0837 -0.1037 -0.0083
93553W        W36606  29.716  12.137  14.466 -0.1196 -0.2143  0.1933
93554W        W36607  19.649   2.678  19.679 -0.0482 -0.1383  0.1417
93555W        W36608  21.687  10.621  14.241 -0.1460  0.1876  0.1222
93556W        W36609  27.182  28.236  28.164  0.0216 -0.1848 -0.0156
93557W        W36610  22.364  21.166  16.345  0.0683 -0.2615  0.0677
93558W        W36611  26.539  28.253  15.182  0.0585 -0.1836 -0.3280
93559W        W36612  13.476  20.730   0.135  0.1014  0.1610  0.3556
93560W        W36613  12.333  28.131  23.441 -0.0904 -0.2865  0.2058
93561W        W36614  19.979  14.807  21.970  0.1701 -0.0061  0.5251
93562W        W36615  30.968  23.575  16.381 -0.1615 -0.1515 -0.0616
93563W        W36616  11.624  18.214  15.064  0.0994  0.1123 -0.0465
93564W        W36617  12.462  14.831  17.014 -0.1835  0.1669 -0.1924
93565W        W36618  18.298  33.054  22.070  0.2931  0.0223  0.1045
93566W        W36619  33.157  29.403  23.188  0.0783 -0.0655  0.0845
93567W        W36620  20.689   6.613  28.416  0.1962 -0.0899  0.1988
93568W        W36621   7.668  10.386  14.840  0.3157 -0.1836 -0.2426
93569W        W36622  31.372  28.343  23.658  0.2828 -0.1729  0.1616
93570W        W36623  18.153  26.674  17.953  0.0426  0.2337 -0.1384
93571W        W36624   7.412  23.200  27.027  0.0665 -0.2143  0.2063
93572W        W36625  20.155  30.573   6.240  0.0362 -0.0130 -0.0455
93573W        W36626  13.198  28.149  25.801 -0.0286 -0.0411  0.2362
93574W        W36627  30.987   3.218  27.822  0.1055  0.1062 -0.4724
93575W        W36628   2.759  14.274   8.701 -0.0044  0.4240 -0.3770
93576W        W36629  10.190  10.991  22.119  0.0553 -0.0446  0.0609
93577W        W36630  29.280  27.082  25.549  0.1774 -0.1615 -0.3092
93578W        W36631   8.922  21.015  18.829 -0.2544  0.1242  0.0712
93579W        W36632  22.117  12.842  23.845  0.0551 -0.2236  0.2656
93580W        W36633   9.688  17.359   3.678 -0.2575 -0.2371  0.0830
93581W        W36634  25.564   9.218  16.184  0.3556  0.2527  0.2487
93582W        W36635  20.080  30.639  14.600 -0.1718 -0.0730  0.0976
93583W        W36636  24.056  17.980  27.133 -0.2990 -0.0677 -0.0982
93584W        W36637  13.658   4.086   3.873  0.3675 -0.1393  0.0120
93585W        W36638  19.285  28.517  28.895  0.0463  0.2565  0.1498
93586W        W36639  21.074  21.765   6.641  0.0632 -0.1610 -0.0261
93587W        W36640  15.290  15.554  22.980 -0.0263  0.0983 -0.2940
93588W        W36641  25.000  25.241  20.190  0.1633  0.1761 -0.0805
93589W        W36642   1.766  33.792  16.323 -0.0108  0.0412  0.2847
93590W        W36643   7.332  17.972  16.601  0.3575 -0.0292 -0.1291
93591W        W36644   6.134  15.346  18.008  0.2016 -0.3208 -0.2455
93592W        W36645  21.672  23.547  26.615  0.0229  0.4029  0.1056
93593W        W36646   9.738  28.445  15.187  0.1139  0.2080  0.1261
93594W        W36647   0.313  34.588   9.526 -0.1644 -0.1670  0.1299
93595W        W36648  34.218  31.764   0.907 -0.2331 -0.1843  0.1595
93596W        W36649  32.063  16.264  21.499  0.0887 -0.1107 -0.0895
93597W        W36650  25.920  10.284  18.948 -0.4262 -0.0907  0.0832
93598W        W36651  17.147   2.460  22.863 -0.0681 -0.2594  0.0931
93599W        W36652   4.271  15.855  25.689  0.1704 -0.2176 -0.1113
93600W        W36653  11.538  31.370  28.722 -0.1360 -0.0676  0.0060
93601W        W36654   4.549   1.238   1.556  0.1074  0.2621  0.1003
93602W        W36655  10.650  24.489  25.123 -0.1535 -0.0993 -0.2198
93603W        W36656   9.964   1.305  15.016  0.1383 -0.1062  0.2988
93604W        W36657  15.643  31.172   1.474  0.2373  0.1617 -0.3451
93605W        W36658   1.287  30.379   3.967 -0.3971  0.1060  0.1663
93606W        W36659  13.037  11.133  21.415  0.0166  0.2361 -0.0447
93607W        W36660  28.566  29.630  28.180 -0.2642  0.0068  0.0747
93608W        W36661  23.459  29.223  20.140 -0.0864  0.0144  0.0102
93609W        W36662  22.538  30.587  18.058  0.0186 -0.0131  0.0768
93610W        W36663  29.678  14.284   4.583 -0.0566  0.1002  0.2570
93611W        W36664  10.521   5.348  17.441  0.0091  0.2164 -0.0213
93612W        W36665  10.176  23.254   4.867 -0.1770  0.3197 -0.0893
93613W        W36666   1.324  30.040  21.045  0.1670  0.3171 -0.1649
93614W        W36667  31.909  30.792  21.537 -0.1617 -0.2960  0.2116
93615W        W36668   8.185  19.765   8.294  0.0279  0.1038 -0.2354
93616W        W36669   7.062   3.881  14.579 -0.1212  0.3094 -0.0539
93617W        W36670  31.033  17.822  16.723 -0.1412 -0.0141 -0.1083
93618W        W36671  12.037  24.740   3.801  0.0221 -0.2491 -0.0360
93619W        W36672   9.290  20.673  20.550  0.3109 -0.2650 -0.1544
93620W        W36673  10.176  29.343  17.678 -0.4696  0.1081 -0.3985
93621W        W36674  23.152  27.593  17.592  0.1377  0.2514 -0.1430
93622W        W36675   9.149  28.958   0.196  0.1871  0.4436 -0.2658
93623W        W36676   3.744  19.028   1.183  0.0997  0.1864 -0.2599
93624W        W36677  17.661   9.572  23.739  0.0649 -0.3351  0.2634
93625W        W36678  16.644  23.027   1.074 -0.0079 -0.0422 -0.0625
93626W        W36679  21.390  21.688  19.399 -0.0884 -0.1877  0.0526
93627W        W36680   0.958  29.632  18.483  0.2918 -0.0914 -0.1691
93628W        W36681  10.364  15.853  22.793  0.2545 -0.1324 -0.3060
93629W        W36682  26.577  21.398  27.028  0.0569  0.0941 -0.3210
93630W        W36683  30.707   5.256  25.663  0.1327  0.1526 -0.1782
93631W        W36684  18.031  29.153  26.852 -0.0472 -0.2790  0.2022
93632W        W36685  14.569  20.774  22.021  0.3006 -0.2871  0.1186
93633W        W36686  19.498  29.780  16.798 -0.1319 -0.2430 -0.2340
93634W        W36687  26.028  34.457   8.423 -0.0549 -0.0673  0.0861
93635W        W36688  15.993  28.804  21.410 -0.0793  0.0092 -0.0730
93636W        W36689   7.038  34.296   4.671  0.0341 -0.0984 -0.0804
93637W        W36690  18.310   2.604  22.086  0.1670 -0.2445 -0.2045
93638W        W36691  19.189  24.720  20.231 -0.4379  0.1387 -0.2475
93639W        W36692  23.900  27.183  18.526 -0.2913  0.2211  0.4587
93640W        W36693  29.260  13.370  17.557 -0.1126 -0.2623 -0.1082
93641W        W36694  10.471  19.184  23.186  0.1265  0.0578  0.2212
93642W        W36695   9.738  26.633   5.312  0.2136 -0.1146  0.0486
93643W        W36696   4.315  33.780  13.832 -0.0758  0.0006  0.0885
93644W        W36697  16.710  31.870  27.944 -0.1440 -0.1404  0.2591
93645W        W36698  26.135  15.724  19.152  0.0591 -0.0655  0.0392
93646W        W36699  22.338  30.739  26.475 -0.0488 -0.0941  0.0506
93647W        W36700  30.668  27.517   0.648 -0.0340  0.1009  0.0812
93648W        W36701  32.457   4.169  22.083  0.0664  0.2867  0.0765
93649W        W36702  22.766  22.941  19.595 -0.0486  0.1363  0.1536
93650W        W36703  34.266  25.378  21.585 -0.0297  0.0025  0.0263
93651W        W36704  10.235  32.767  16.675 -0.0546 -0.1872  0.0351
93652W        W36705  26.847  17.831  22.970 -0.1181  0.1212 -0.3052
93653W        W36706   6.069  31.643  22.590 -0.0914 -0.0491  0.1412
93654W        W36707  14.832  13.636  26.429 -0.1506  0.0010  0.1295
93655W        W36708  14.986  29.648  26.920  0.0073 -0.1346 -0.5208
93656W        W36709  15.554  30.607  23.312  0.2626  0.1795  0.0422
93657W        W36710   8.731  31.820  18.139  0.3128 -0.2317  0.0800
93658W        W36711  32.751  22.301  13.380  0.1366 -0.0833 -0.0462
93659W        W36712  23.876  31.155  24.281  0.1336 -0.1578  0.1034
93660W        W36713  27.516  26.098   4.120 -0.0998 -0.2426  0.0833
93661W        W36714  22.077  17.015  23.086 -0.2276  0.2046  0.1240
93662W        W36715   9.825  11.582  19.384  0.2728  0.3118 -0.2578
93663W        W36716  23.782   3.919  16.720 -0.4393 -0.0596  0.3441
93664W        W36717   4.050   7.072  15.991 -0.0038 -0.0313 -0.2924
93665W        W36718  29.778  20.834  21.290  0.0487  0.0453 -0.2519
93666W        W36719  27.017  15.875   4.026  0.2095 -0.0073  0.0451
93667W        W36720   2.789  15.877  24.939 -0.1822 -0.0484  0.1390
93668W        W36721  14.804   0.321   1.623 -0.1955  0.0891  0.2927
93669W        W36722  23.141  10.107  27.599  0.0298  0.0472 -0.4003
93670W        W36723  22.434   8.736   2.878  0.1449  0.0507  0.0111
93671W        W36724  25.714   8.166  19.007 -0.2311  0.0631  0.1027
93672W        W36725   8.214  24.239  21.142 -0.2245  0.1738  0.2800
93673W        W36726  32.490  18.058  24.899 -0.0415  0.0946  0.0247
93674W        W36727   8.730  22.228   1.372 -0.3128  0.1105 -0.0935
93675W        W36728  15.038   8.222   2.139  0.1302  0.2466  0.3700
93676W        W36729  21.548  30.862   6.727 -0.1954 -0.1476 -0.1619
93677W        W36730  33.587  15.813   4.473 -0.0439  0.1508 -0.1265
93678W        W36731  11.769  31.225  22.684 -0.0819  0.0934  0.2992
93679W        W36732  23.598  30.058  28.044 -0.1838 -0.2934 -0.0935
93680W        W36733   9.435  29.719  13.574 -0.0997 -0.0753 -0.0929
93681W        W36734  23.090  21.906   6.749 -0.2050 -0.0967  0.2959
93682W        W36735  31.916  23.822  23.166  0.1861  0.3081  0.2948
93683W        W36736   9.785   7.536  18.727 -0.2602  0.1218  0.3085
93684W        W36737  23.287  33.571  26.283  0.0817  0.0345  0.0045
93685W        W36738  11.795  12.452   7.773 -0.3607 -0.2549  0.0963
93686W        W36739  14.246  23.760  18.375 -0.1738 -0.1260 -0.0443
93687W        W36740   5.928  25.884   3.964 -0.0105  0.0790  0.0539
93688W        W36741  16.029  19.770  26.054 -0.0532  0.1442 -0.3330
93689W        W36742  20.873   9.139   2.315  0.2159 -0.0062 -0.0961
93690W        W36743  23.722  30.263   2.807 -0.1231  0.1640 -0.2466
93691W        W36744  20.216  21.498   4.579 -0.0071  0.2543 -0.0123
93692W        W36745   9.871  10.896   6.353 -0.1276  0.0410 -0.0064
93693W        W36746  20.780   2.338  26.221 -0.0838  0.1118 -0.2879
93694W        W36747  30.423  29.451   7.372 -0.5167  0.2460 -0.1854
93695W        W36748  18.297  22.338  22.453  0.4001  0.0045  0.0690
93696W        W36749   8.705  23.461  27.742  0.1747  0.1365 -0.0793
93697W        W36750  21.094  25.351  24.253  0.1542 -0.0874  0.1215
93698W        W36751  25.193   2.626  23.515 -0.1817 -0.3231  0.0237
93699W        W36752   0.430  17.240   2.021  0.0145 -0.4339 -0.0246
93700W        W36753   4.786  20.839  22.819 -0.0532  0.2117  0.1781
93701W        W36754  14.022   5.357   4.125 -0.2242  0.0256 -0.3432
93702W        W36755   0.023   5.766   2.285  0.3779  0.2268  0.0339
93703W        W36756   4.038  17.801   7.868 -0.3853 -0.1798 -0.0738
93704W        W36757  19.819  19.079   1.046  0.0432 -0.0839 -0.1604
93705W        W36758  18.274  20.079   5.736  0.1278 -0.2845  0.1117
93706W        W36759  27.498  25.062   2.868  0.2809 -0.2141  0.1590
93707W        W36760  13.488   7.439  26.123 -0.1226 -0.1729 -0.1608
93708W        W36761  22.669  30.556   5.489 -0.2982 -0.1770  0.0757
93709W        W36762  15.763  23.140   1.096  0.4469 -0.1010 -0.0726
93710W        W36763  14.415   6.209  27.948 -0.1464  0.0477 -0.2858
93711W        W36764  22.946  17.266   8.248  0.2446  0.0085 -0.3020
93712W        W36765  24.146  32.749  18.418 -0.1237  0.4707  0.2511
93713W        W36766   5.471  15.687  22.864  0.1928 -0.0462 -0.0771
93714W        W36767  24.478  26.337   2.925 -0.1783  0.0974  0.0747
93715W        W36768  21.031  23.095   0.734 -0.1086 -0.1093 -0.0065
93716W        W36769  23.955  22.334   6.333 -0.0691  0.1517 -0.2684
93717W        W36770   6.344  24.359  24.881 -0.2150  0.0576 -0.0910
93718W        W36771  16.646  16.438  23.679 -0.1598 -0.2395 -0.0795
93719W        W36772  23.434  23.291  15.479 -0.0562 -0.1957 -0.0452
93720W        W36773  31.042  16.954  23.673  0.2380  0.0318 -0.0850
93721W        W36774  14.480  16.229  22.284 -0.0956 -0.1339  0.2640
93722W        W36775  26.267  33.333  19.126  0.0874  0.2353 -0.0042
93723W        W36776  15.620  26.666  23.878  0.1587  0.0955  0.1184
93724W        W36777  28.610   3.437   9.154 -0.0835  0.1920 -0.1180
93725W        W36778  30.486  23.827   9.134 -0.1779 -0.1381 -0.1331
93726W        W36779  18.500  24.101  28.929 -0.3223 -0.1157 -0.0242
93727W        W36780  10.891  22.552  22.001  0.1308  0.1776  0.2577
93728W        W36781  15.397  22.863   1.219  0.1165  0.2093 -0.1362
93729W        W36782  19.239  27.913  21.437  0.0350 -0.0880  0.1050
93730W        W36783  10.720  29.391  21.052  0.1323 -0.0213 -0.2256
93731W        W36784   9.567   5.971  26.955  0.0641 -0.0564  0.2668
93732W        W36785  20.864  18.388   1.750 -0.1430 -0.0190  0.0829
93733W        W36786  16.049  20.690  25.418  0.0783 -0.1753 -0.0923
93734W        W36787   9.714  32.686  19.690  0.1074 -0.0687  0.3286
93735W        W36788   9.206   6.851  26.086 -0.3769 -0.2116 -0.0694
93736W        W36789  10.007  11.265  27.357 -0.2739 -0.1224 -0.1933
93737W        W36790  30.266   3.353  21.508 -0.2580 -0.1657 -0.0529
93738W        W36791  30.093  26.146  16.614  0.3342 -0.2602 -0.1382
93739W        W36792  19.834  19.055   5.414 -0.3525  0.1698  0.3985
93740W        W36793  32.406  24.377  23.448  0.0237 -0.1954 -0.1238
93741W        W36794  23.602  28.129   9.509  0.0784  0.2503 -0.1531
93742W        W36795  25.414  26.629   3.346  0.2372 -0.0290  0.2029
93743W        W36796  12.860   4.331   4.421  0.2375 -0.5765  0.0027
93744W        W36797  24.562  28.991   2.832 -0.1979 -0.4603  0.0709
93745W        W36798   4.722  14.744  16.696  0.2483  0.2618  0.1190
93746W        W36799  16.753  26.789   9.571 -0.0706 -0.4350 -0.1323
93747W        W36800  22.301  10.882   7.093  0.0545  0.1158  0.1057
93748W        W36801  29.421  29.782  21.712  0.0525 -0.3235  0.1026
93749W        W36802   1.947  14.489  15.535  0.0198 -0.0862  0.1635
93750W        W36803  19.383   9.277   7.606 -0.1650  0.0649  0.0088
93751W        W36804   4.447  22.427   2.758 -0.0428 -0.5011  0.0145
93752W        W36805  13.764   4.866   5.280 -0.4979 -0.3609 -0.1943
93753W        W36806  12.005  29.087   3.915 -0.2549  0.0671  0.0763
93754W        W36807  26.032  22.092   7.455  0.1749  0.0651 -0.3651
93755W        W36808  22.394  23.318  28.264 -0.1261  0.1355 -0.0735
93756W        W36809  14.993  13.997  20.972  0.2205 -0.0793 -0.3028
93757W        W36810  33.330  28.541  17.289 -0.0992  0.1580  0.2339
93758W        W36811  12.069  25.800   8.696  0.1592  0.0181  0.0867
93759W        W36812   5.579   3.447  29.120  0.1221  0.0687 -0.3007
93760W        W36813   3.151   0.268  17.677 -0.1176 -0.0769  0.0204
93761W        W36814  20.877  28.474  23.610  0.0664  0.2025 -0.0029
93762W        W36815  26.147  32.230  18.183  0.0145  0.0237 -0.0171
93763W        W36816  25.869  16.094  16.514 -0.2240  0.2862 -0.3721
93764W        W36817  19.028  28.536  25.470  0.3746  0.3233  0.1596
93765W        W36818   6.032  21.277  13.520 -0.1525  0.0226 -0.5503
93766W        W36819  28.999  21.256   2.604  0.0207  0.2951  0.0872
93767W        W36820  29.375  23.702   2.146 -0.0374  0.1688 -0.3967
93768W        W36821  26.583  18.007   9.753  0.3412  0.1095 -0.1098
93769W        W36822  23.641  23.950  23.736 -0.0496 -0.0005  0.2108
93770W        W36823  21.350  15.698   6.562 -0.0114 -0.1520 -0.0918
93771W        W36824  12.041  18.977  15.782  0.1965  0.1374 -0.0348
93772W        W36825  18.381  26.279  19.538  0.0226 -0.0521 -0.1709
93773W        W36826  13.737  19.893   0.648 -0.0468  0.0490  0.1773
93774W        W36827  23.364  32.435   9.777  0.0460 -0.2876 -0.0231
93775W        W36828  19.207  26.060   7.137 -0.1012  0.0935 -0.2797
93776W        W36829   8.112  25.267   6.940 -0.3292 -0.0951 -0.0173
93777W        W36830  31.881  22.746  15.617  0.2784  0.1747 -0.1635
93778W        W36831  25.956  25.256   1.113 -0.1866  0.0325 -0.3647
93779W        W36832  21.904   4.027   7.031 -0.1480 -0.2001 -0.2037
93780W        W36833  16.089  21.469  28.889  0.4529 -0.1889 -0.4930
93781W        W36834  24.608   1.658  24.002 -0.2971  0.1018  0.2185
93782W        W36835  20.982  34.358   4.437  0.1920  0.2943  0.2325
93783W        W36836  30.238  22.370  26.949 -0.0792 -0.0884 -0.0964
93784W        W36837   8.234  25.359   8.900  0.0279  0.2743  0.0182
93785W        W36838  24.801  21.549   2.525  0.1601 -0.1604 -0.0616
93786W        W36839   4.568  11.783  26.484 -0.5959 -0.2986 -0.1304
93787W        W36840  16.111  20.850   3.998  0.0464 -0.2801  0.0489
93788W        W36841  34.149  29.896  21.111 -0.0270  0.2121 -0.2042
93789W        W36842  25.776  19.307   7.915  0.1272  0.2127  0.1995
93790W        W36843  14.975  33.856  21.980  0.1845  0.2493  0.0352
93791W        W36844  18.384  22.067  25.921 -0.1217  0.1179 -0.0090
93792W        W36845  26.401  25.733   8.973  0.3580  0.2416 -0.0041
93793W        W36846  13.796  12.924   7.583  0.1840  0.1777 -0.0811
93794W        W36847  20.854  32.010  28.306  0.1709 -0.1316  0.4127
93795W        W36848  15.228  21.668   2.702  0.0825 -0.0450  0.3054
93796W        W36849  23.871  34.652  14.500 -0.3042  0.2026 -0.0155
93797W        W36850  29.850  23.411   9.451  0.1060 -0.2210 -0.0958
93798W        W36851  32.976  22.142  24.778  0.1082  0.1689 -0.0745
93799W        W36852  34.103  29.972  18.504  0.5624  0.0701  0.3519
93800W        W36853   6.679  26.994   3.965 -0.0847  0.1335  0.0579
93801W        W36854  27.591  22.524  18.825  0.1598  0.2404 -0.1066
93802W        W36855   9.347  17.773   2.007 -0.0378  0.1523 -0.0165
93803W        W36856  11.055  11.387   2.607 -0.0450  0.3928 -0.1467
93804W        W36857   7.849  17.614  16.235  0.1791  0.2002  0.2299
93805W        W36858  10.166  34.605  18.079 -0.0345 -0.0987 -0.0419
93806W        W36859  18.513  32.580  27.657  0.2765  0.0939  0.0643
93807W        W36860  11.826  23.730  16.881  0.1665  0.2396  0.2761
93808W        W36861  31.794  15.298   9.096 -0.1729 -0.0659 -0.0260
93809W        W36862  26.125  29.715  22.693  0.0803 -0.2473  0.3570
93810W        W36863  10.788  17.448  23.540 -0.0080 -0.1435  0.1347
93811W        W36864  29.052  24.481  27.932 -0.1261  0.3108  0.1842
93812W        W36865  21.047  21.505  10.609  0.1311  0.1885  0.1131
93813W        W36866  10.991  22.213   0.306  0.1300 -0.1802 -0.2773
93814W        W36867  33.850   2.203   7.728  0.0510 -0.3427 -0.1508
93815W        W36868   3.666  29.453  24.590  0.4050  0.0914 -0.1184
93816W        W36869   0.146  31.110  19.442 -0.1413  0.1037  0.0068
93817W        W36870  21.828  28.088   3.013  0.1514 -0.1991 -0.1197
93818W        W36871  16.442  19.782   9.469 -0.1711  0.0241  0.0783
93819W        W36872  19.292  20.761  26.503  0.3199  0.2077 -0.2693
93820W        W36873   9.655  23.987   8.009 -0.0933 -0.1505  0.0068
93821W        W36874  16.212  17.360   1.517  0.2645  0.3176 -0.1436
93822W        W36875  20.018  33.411  28.981 -0.1108  0.2012 -0.0775
93823W        W36876  24.257  26.858  26.033 -0.1059  0.0283  0.0213
93824W        W36877  14.343  19.710   4.080 -0.0916 -0.3318 -0.2369
93825W        W36878  15.683  23.019   6.986  0.2436 -0.1881  0.1587
93826W        W36879  20.676  31.108  28.840  0.0694  0.1625  0.0617
93827W        W36880  33.230  27.908  28.015  0.1364 -0.2662 -0.0939
93828W        W36881   0.921  26.708  21.559 -0.2315 -0.0205 -0.1642
93829W        W36882  13.171  33.153   9.362 -0.1925  0.0037  0.1297
93830W        W36883  24.754   9.626   5.563  0.1782  0.3815 -0.0001
93831W        W36884   7.813  25.699  24.625  0.0657  0.1481  0.2854
93832W        W36885  26.278  22.198  24.371  0.2022 -0.0719 -0.2609
93833W        W36886  22.493  19.346   8.815 -0.0874 -0.0916 -0.3543
93834W        W36887  19.024  16.868  22.397 -0.0124  0.0932  0.0099
93835W        W36888   2.793  11.419   0.471  0.1667  0.2013  0.2458
93836W        W36889  32.569  13.788  13.975  0.1609 -0.3035  0.1799
93837W        W36890   8.718   2.022  19.492  0.1818  0.0902  0.0770
93838W        W36891   3.617  22.328  15.315  0.2140  0.0647  0.1424
93839W        W36892  25.369   0.290   4.254  0.1470 -0.2272 -0.1911
93840W        W36893  15.047  32.248   1.573 -0.2894  0.0324  0.1040
93841W        W36894  32.162  17.646   5.405 -0.4159 -0.3645  0.0711
93842W        W36895  27.699  33.383  21.478  0.1654 -0.1034 -0.3110
93843W        W36896   1.785   5.745   0.989  0.1153 -0.1700 -0.3197
93844W        W36897  28.405  30.533   1.563  0.2062  0.2623 -0.1287
93845W        W36898   2.680  20.486  25.518  0.0342 -0.2846 -0.0426
93846W        W36899  18.268   4.170  15.505 -0.2490 -0.3444  0.0809
93847W        W36900   4.924  34.002  27.246  0.1972 -0.3818  0.3009
93848W        W36901  22.636   5.460   8.678 -0.0779  0.0549 -0.0915
93849W        W36902  25.983  20.316  29.184 -0.1555  0.0988 -0.3171
93850W        W36903   7.119  14.292   7.622  0.0716  0.1844 -0.0428
93851W        W36904  27.899  11.131   5.365  0.0004 -0.1049  0.1381
93852W        W36905  32.171  10.643   4.951 -0.1591  0.0717  0.1300
93853W        W36906  29.975  17.806  15.020  0.3089 -0.1599  0.0326
93854W        W36907   2.976  26.707   5.109 -0.1815 -0.1009 -0.3273
93855W        W36908  14.565  30.275  28.165 -0.2971 -0.0475  0.2933
93856W        W36909  24.019   0.189  23.281 -0.1906  0.4219 -0.4206
93857W        W36910  13.891  30.876  25.075  0.1424  0.0482  0.2127
93858W        W36911   0.943  31.100   5.737 -0.2709 -0.2052 -0.0037
93859W        W36912  32.065  10.038  26.418  0.3611  0.1668 -0.2692
93860W        W36913  19.032  14.220  13.860 -0.2165 -0.0344 -0.0954
93861W        W36914   7.462  13.367  25.464 -0.2707 -0.2253 -0.1630
93862W        W36915  10.185  34.532   5.221  0.0873 -0.0459  0.2484
93863W        W36916  20.137  24.548   9.338  0.2174 -0.0118 -0.0929
93864W        W36917  22.402   0.134  14.546  0.2089 -0.2674  0.2150
93865W        W36918   6.477  26.121   0.120 -0.1483 -0.0958 -0.0486
93866W        W36919  22.839  19.372  27.666 -0.3021 -0.2020  0.2808
93867W        W36920  16.237  18.677   2.294  0.0393  0.0657 -0.0424
93868W        W36921   9.111  18.566   7.309 -0.0606 -0.2439 -0.3265
93869W        W36922  22.058  22.545  22.287  0.1209 -0.4547  0.1493
93870W        W36923  32.691  32.681   7.604  0.0962 -0.0913  0.1568
93871W        W36924  15.694  25.544   2.597 -0.1532 -0.0576 -0.0961
93872W        W36925   2.370  33.684  24.689 -0.0597 -0.0489  0.1689
93873W        W36926  24.916  25.147   3.029  0.0873 -0.0871  0.0256
93874W        W36927  29.879  18.151  24.247  0.1225  0.1113  0.1864
93875W        W36928  12.263  33.746  20.555 -0.0395  0.0453 -0.0919
93876W        W36929  34.353   2.327   9.242  0.2277 -0.1225 -0.4149
93877W        W36930  24.604  24.625  23.368 -0.3774  0.1622 -0.0868
93878W        W36931  27.906  28.640   8.536 -0.4501 -0.1928  0.0644
93879W        W36932   7.951  25.510  24.152  0.2942  0.2914 -0.2025
93880W        W36933  12.705   2.951  22.215  0.2709  0.2321  0.1511
93881W        W36934  23.157  16.905  22.202  0.2095 -0.1558 -0.0511
93882W        W36935  26.023  28.465  20.901 -0.1190 -0.0127  0.1441
93883W        W36936   5.405  30.506  20.387 -0.4722 -0.0144 -0.1884
93884W        W36937  13.155  15.925   3.941  0.0196 -0.0354 -0.3661
93885W        W36938  29.863  19.568  28.201 -0.1574 -0.0684  0.2961
93886W        W36939  18.882  17.268  24.802 -0.0899 -0.3119 -0.3316
93887W        W36940  26.130  17.062   5.201  0.0931  0.0831  0.0225
93888W        W36941   6.993  27.486  23.964 -0.1284 -0.0255  0.5303
93889W        W36942  10.060   4.430   0.417 -0.1056 -0.2082 -0.0065
93890W        W36943  17.895  21.657  24.130 -0.2441  0.1878  0.1269
93891W        W36944  19.344  24.312  14.969 -0.1197 -0.0221  0.3253
93892W        W36945  14.083  25.332   7.272  0.2499  0.1648  0.3474
93893W        W36946  28.310  21.422  15.892  0.0090  0.4285 -0.3943
93894W        W36947  33.909  25.576   4.741 -0.0774  0.1252 -0.1048
93895W        W36948  22.876  12.288   2.774 -0.2176 -0.0189  0.0652
93896W        W36949  15.635  26.818  25.884  0.3428  0.2310  0.0432
93897W        W36950  27.432  18.364   8.897 -0.0433 -0.1143  0.0109
93898W        W36951  18.425  21.320  14.624 -0.2508  0.2685  0.0485
93899W        W36952  34.258  24.625  27.225  0.0956 -0.3554 -0.2077
93900W        W36953  23.554  17.913  13.810 -0.3485  0.0408 -0.2787
93901W        W36954  17.503  34.612   1.572 -0.0088  0.2778  0.1460
93902W        W36955  18.639  17.503  25.648 -0.0729  0.2817  0.1065
93903W        W36956  23.361  14.073  18.070  0.1796 -0.0649 -0.1572
93904W        W36957  23.127  29.228   4.856  0.0050  0.0235 -0.2347
93905W        W36958  31.650  20.035   7.983 -0.1944 -0.0243  0.1055
93906W        W36959  32.199  21.866  21.099 -0.1317  0.2003  0.1403
93907W        W36960  10.341  18.931  28.249 -0.0148 -0.2982 -0.0536
93908W        W36961  17.682  29.822   4.389  0.2051 -0.0018  0.1529
93909W        W36962   2.869  26.314  24.755  0.1768 -0.3168 -0.1205
93910W        W36963  20.012  16.453  25.507  0.0204 -0.1868  0.0162
93911W        W36964  23.973  23.367  26.133  0.1960 -0.0234 -0.0267
93912W        W36965  28.638  28.900  21.709 -0.2252  0.3019 -0.4075
93913W        W36966  22.798   2.199  24.912 -0.1249 -0.0153  0.0495
93914W        W36967  12.072  23.545   7.626 -0.1837  0.0691  0.0980
93915W        W36968  22.179  28.026  16.855  0.1407  0.0114  0.1548
93916W        W36969   9.514  27.930  22.074  0.0404  0.0064  0.0705
93917W        W36970  31.772  14.415  14.692 -0.0377  0.1447  0.0423
93918W        W36971  26.069  13.929   3.307 -0.0319 -0.2449  0.1798
93919W        W36972  19.221  29.007   5.856  0.0393  0.1131 -0.0627
93920W        W36973  12.866  24.941   3.401  0.1727  0.1379 -0.1991
93921W        W36974  23.048  31.868   6.282 -0.0761  0.2639  0.0241
93922W        W36975  33.599   9.781   1.122  0.2670 -0.0987  0.0932
93923W        W36976   6.080  28.414  14.357 -0.1378  0.1235 -0.2732
93924W        W36977   3.362  14.026   0.784 -0.0321 -0.3154  0.3966
93925W        W36978  28.975  15.098   3.885  0.0528 -0.3264 -0.2585
93926W        W36979  22.479   9.956   1.938  0.0061 -0.0821  0.0037
93927W        W36980  31.338  10.218   0.087  0.0247 -0.1205 -0.1072
93928W        W36981  25.013  21.232   1.445  0.1119  0.0534 -0.0550
93929W        W36982  14.748  26.430  14.023 -0.1812  0.0043  0.3568
93930W        W36983   3.845  27.227  19.746 -0.0795  0.0978  0.0552
93931W        W36984  10.983  22.764   1.724 -0.1161  0.3396 -0.1125
93932W        W36985  24.002  26.041  10.426  0.1548  0.0301 -0.1589
93933W        W36986  24.541  13.511  27.992  0.3708 -0.2965 -0.0009
93934W        W36987  12.974  19.749   1.177  0.2961  0.0948  0.2855
93935W        W36988  24.383   8.724   8.689 -0.0501  0.0117 -0.2405
93936W        W36989  16.987  23.751  25.488 -0.0627  0.0733  0.0094
93937W        W36990  15.840  11.015  19.161  0.0244  0.1619  0.2699
93938W        W36991   7.972  21.984  18.195  0.1653  0.1118  0.1914
93939W        W36992  28.625  27.918  23.733 -0.2607 -0.0650 -0.0480
93940W        W36993   3.851   4.785  16.512 -0.1259 -0.0349 -0.2858
93941W        W36994  23.235  17.685   4.301 -0.2468  0.0593  0.0888
93942W        W36995  23.370   0.420   3.148  0.1082 -0.1630  0.0181
93943W        W36996   1.153  17.692   5.453  0.2059 -0.1883  0.2143
93944W        W36997  16.858  14.692   9.277  0.0857 -0.2021  0.0310
93945W        W36998  22.734  19.896   4.964 -0.1941  0.1483 -0.1355
93946W        W36999  18.437  27.345  18.650 -0.1701 -0.4791  0.1806
93947W        W37000  17.353  23.015  25.205 -0.0101 -0.1932  0.1609
93948W        W37001  21.338   7.731  26.697 -0.1953  0.0827 -0.2551
93949W        W37002  22.481  15.118   3.352  0.5525  0.0035  0.1142
93950W        W37003  26.490   4.331  26.582 -0.1012 -0.1374  0.0585
93951W        W37004  21.825  25.737  10.135  0.2746 -0.0141  0.1449
93952W        W37005  15.947  18.624   5.559  0.3315 -0.0435  0.1968
93953W        W37006  22.799  18.544  17.298  0.0357 -0.0262  0.1131
93954W        W37007  27.873  22.225  26.406 -0.3752 -0.0237 -0.2668
93955W        W37008  21.584  11.419  15.618 -0.0000 -0.3340  0.0193
93956W        W37009   5.844  17.123   4.862  0.0658 -0.0835 -0.3825
93957W        W37010  27.367  10.676   1.857  0.1069 -0.2094  0.4226
93958W        W37011  23.552  28.335   1.119  0.2361 -0.1094  0.0901
93959W        W37012  19.719  13.562  24.819  0.0319  0.0766 -0.3865
93960W        W37013  12.759  14.580   4.434 -0.0301 -0.0707  0.5262
93961W        W37014  23.057  15.967   2.263 -0.0412 -0.0961  0.2310
93962W        W37015  28.766   7.352  15.327  0.1049  0.1970  0.2135
93963W        W37016  10.533  10.569  22.008 -0.0796  0.2375  0.0846
93964W        W37017  20.154   4.209  28.374 -0.1693  0.1237 -0.0655
93965W        W37018  18.520  24.448   2.534 -0.1163  0.1266  0.1234
93966W        W37019  24.181  13.674  25.517 -0.1862 -0.0344 -0.2629
93967W        W37020   4.220  26.101   3.099 -0.1802 -0.1666 -0.1537
93968W        W37021  28.459  33.955  22.446 -0.2524  0.1061 -0.0263
93969W        W37022  19.839   7.233  18.030 -0.3149  0.0246 -0.1842
93970W        W37023   7.024  20.511   0.434  0.1279 -0.0899  0.0949
93971W        W37024  19.394  30.815  26.711 -0.0799  0.0738  0.0743
93972W        W37025   3.169  27.032  26.025  0.0474  0.1670 -0.0518
93973W        W37026  16.346  13.151  27.270  0.0987  0.0015 -0.1790
93974W        W37027  29.228  14.095  22.884 -0.0392  0.1850 -0.1843
93975W        W37028   4.290  28.046  18.868 -0.5175  0.0152 -0.0230
93976W        W37029  11.007  13.111  10.759  0.1484  0.0734  0.0798
93977W        W37030  16.616   8.326   0.454  0.0928 -0.1764 -0.0236
93978W        W37031   6.874  15.749  24.960 -0.0450  0.2791 -0.1409
93979W        W37032   8.779   2.423   6.560  0.0197  0.0988 -0.0837
93980W        W37033  10.380  24.431  16.132 -0.1753 -0.1460  0.2078
93981W        W37034   5.446  15.079   9.647 -0.3802  0.1871 -0.0925
93982W        W37035   7.362   1.088   2.313  0.0988 -0.0935  0.0506
93983W        W37036  22.037  19.221  19.949  0.0713 -0.1729 -0.1044
93984W        W37037  13.211  21.818   9.276 -0.6024 -0.2980  0.2589
93985W        W37038  14.383  26.248  26.676  0.1210 -0.2994  0.0526
93986W        W37039   1.166   1.464   8.095 -0.0414 -0.3671  0.1493
93987W        W37040  26.509   2.783   5.812  0.2806 -0.0025 -0.2660
93988W        W37041   8.994  20.455  23.307 -0.0306 -0.0877 -0.1976
93989W        W37042   0.769   5.818  13.644  0.3586  0.1557 -0.0671
93990W        W37043  24.037  30.719  16.183  0.0478  0.1520 -0.2175
93991W        W37044  25.415  23.465  24.427  0.0352 -0.0864 -0.0785
93992W        W37045  18.530  10.828   7.849  0.1235 -0.1490  0.0656
93993W        W37046   8.095  26.138  21.355 -0.0047  0.2175  0.1057
93994W        W37047  19.166  28.613   2.717  0.1274  0.0159 -0.3018
93995W        W37048  24.581  34.260  23.509  0.1188 -0.0733  0.0527
93996W        W37049  14.741  17.764   1.727  0.0889 -0.0003  0.0295
93997W        W37050  32.629  26.114  26.325  0.2174 -0.1281  0.0717
93998W        W37051   7.598  27.558  15.414 -0.2569 -0.0518  0.0564
93999W        W37052  19.186  20.274  16.992 -0.0675  0.0068 -0.1760
94000W        W37053  28.140  27.684   9.508 -0.0562 -0.1688  0.0290
94001W        W37054  10.379   0.034   1.554  0.1290  0.0812 -0.0772
94002W        W37055   5.598  26.894   4.177  0.1375 -0.1868 -0.2817
94003W        W37056  27.086  28.585   6.803  0.1079  0.3691 -0.2004
94004W        W37057  13.061  16.371   8.671 -0.1537 -0.1284  0.0047
94005W        W37058   0.225   0.021  14.188  0.0284  0.0658 -0.0856
94006W        W37059  15.040  23.641   9.721  0.1440  0.1455 -0.0479
94007W        W37060  14.378  33.841   8.877 -0.0813 -0.0129 -0.2700
94008W        W37061  11.510  27.506   3.005  0.0263 -0.0564 -0.2220
94009W        W37062  15.200  24.834  22.751  0.0578 -0.1781 -0.0281
94010W        W37063   3.283  22.601  15.596 -0.2701  0.0433 -0.0374
94011W        W37064  12.485  31.973  23.294 -0.3080 -0.0884 -0.0031
94012W        W37065  34.660   1.264  20.403  0.0433 -0.2931  0.1356
94013W        W37066   3.111  23.337  19.062 -0.1406  0.2240 -0.3035
94014W        W37067  18.537  30.564   3.370  0.0816  0.0346  0.1767
94015W        W37068  11.465   8.456  17.863  0.1024 -0.2091 -0.2931
94016W        W37069  19.691  21.039   3.106  0.0476 -0.4169 -0.0546
94017W        W37070  18.482  12.822  28.844 -0.2526  0.1103 -0.1516
94018W        W37071  20.562  27.690  28.344  0.2261  0.0109 -0.0554
94019W        W37072  17.565  33.101  22.170  0.0033  0.0087 -0.0641
94020W        W37073  10.135  20.059   5.216  0.1982 -0.2802 -0.1001
94021W        W37074  15.061  32.918  21.390 -0.2625  0.1222 -0.1231
94022W        W37075  24.436  24.720  18.880  0.0237 -0.0145 -0.2221
94023W        W37076  23.507  32.418  14.204 -0.2360 -0.0091  0.0240
94024W        W37077   7.862  31.409  15.565 -0.2184  0.2051  0.0454
94025W        W37078  23.277  33.246  15.243  0.0141 -0.2586 -0.1633
94026W        W37079  15.696  11.381  16.350 -0.1085  0.2138 -0.0865
94027W        W37080  14.210  24.327  16.486 -0.3655  0.0285 -0.2100
94028W        W37081   5.597   9.990   9.141 -0.1337 -0.2071 -0.1886
94029W        W37082  31.763   2.800   9.823  0.1017  0.0440  0.3312
94030W        W37083  12.679  30.420  24.807  0.2785 -0.0985  0.1222
94031W        W37084  27.578   3.955  15.119 -0.1902  0.1098 -0.0154
94032W        W37085  19.045  12.875  21.478  0.1046 -0.0290  0.0109
94033W        W37086  19.885  30.074   0.708  0.2893 -0.2375 -0.0818
94034W        W37087  10.955   3.400   7.179 -0.2537  0.1762  0.1983
94035W        W37088  23.947  26.116  19.119 -0.3370 -0.1334  0.1566
94036W        W37089   6.442  10.528   1.293 -0.3012  0.0931 -0.1194
94037W        W37090   9.083  19.212  13.812 -0.2850  0.1908 -0.0304
94038W        W37091  18.604  13.005  17.976 -0.0015 -0.1161 -0.3770
94039W        W37092   1.365  19.651  16.485 -0.0012  0.2080  0.0922
94040W        W37093  18.112  25.381  23.617  0.0898  0.1117  0.0884
94041W        W37094  14.839  20.661  16.501 -0.1337 -0.0786  0.5150
94042W        W37095   3.580  29.169  25.135 -0.0816 -0.0986 -0.1291
94043W        W37096  22.373   8.402   7.209  0.2772  0.2454 -0.0793
94044W        W37097  18.031  29.107  23.055 -0.0513 -0.1129  0.2001
94045W        W37098   9.395  33.945  15.832 -0.2024 -0.0329 -0.0819
94046W        W37099  16.871  19.545   9.297 -0.1521  0.1554  0.3266
94047W        W37100   2.063  17.819   6.973  0.2123 -0.0325  0.0643
94048W        W37101  21.544  30.775  10.095  0.0323  0.0685  0.2626
94049W        W37102  20.994  27.776   4.950 -0.0215  0.1195  0.3781
94050W        W37103  22.110  22.401  15.933 -0.0181  0.0270 -0.1559
94051W        W37104  19.295  22.637   0.177 -0.0033 -0.1791  0.0820
94052W        W37105  20.537  18.317   0.951  0.1123 -0.3908  0.3575
94053W        W37106  30.720  19.142   2.323 -0.1198  0.0320  0.1987
94054W        W37107  10.630   7.527   7.232 -0.1090  0.0972  0.2061
94055W        W37108  16.351  14.129   3.094  0.3325 -0.0734 -0.0996
94056W        W37109  23.022  25.898   3.224  0.0606  0.2123 -0.1299
94057W        W37110   1.022  11.040   5.435 -0.1185 -0.0542  0.2233
94058W        W37111  30.391  21.688  18.328  0.3826 -0.0856  0.1864
94059W        W37112  33.114  16.356  28.051  0.0954 -0.0475  0.1199
94060W        W37113   9.380  15.876   4.437  0.3015  0.0265 -0.2789
94061W        W37114  19.863  10.363   8.082 -0.1451  0.1048 -0.0648
94062W        W37115  12.113  16.822   3.957 -0.1215 -0.2987 -0.1523
94063W        W37116  18.121  19.848  13.837 -0.0480 -0.3191 -0.0736
94064W        W37117  23.569  23.367  27.378  0.0833  0.3040  0.2257
94065W        W37118  21.679  19.797   6.248  0.0538 -0.0475 -0.1140
94066W        W37119  21.358  23.324  24.533  0.2163  0.0548 -0.3776
94067W        W37120  16.265  16.256  19.525 -0.0212  0.0203  0.0790
94068W        W37121  33.766   6.254  24.823 -0.0455 -0.1085 -0.0948
94069W        W37122  11.653  32.983  10.298  0.1234 -0.1368 -0.2350
94070W        W37123  23.336  18.397  16.562 -0.0863  0.2123 -0.0976
94071W        W37124   7.540  24.416  20.853  0.0956 -0.0930  0.0437
94072W        W37125  20.473  13.561   8.525  0.0875  0.3971 -0.0254
94073W        W37126  21.614  24.801   2.648  0.0118  0.1881 -0.0184
94074W        W37127  17.100  18.251   2.844 -0.1085 -0.1330 -0.2294
94075W        W37128   6.500   1.357   2.685  0.0769  0.0989 -0.2874
94076W        W37129  21.092  21.409   2.608  0.0459  0.0829  0.1336
94077W        W37130   1.033  30.558   5.855  0.2955  0.2782 -0.0678
94078W        W37131  18.820  18.100   8.671 -0.3635 -0.0917  0.1403
94079W        W37132  27.133  23.300   0.004  0.0193  0.3768 -0.0831
94080W        W37133  15.832   3.159  18.092  0.5061  0.0503  0.0467
94081W        W37134   5.218  10.956   3.981 -0.0389  0.2091  0.0479
94082W        W37135  27.920  29.029   8.956  0.0507 -0.3336  0.0979
94083W        W37136  28.143  26.470   0.212  0.1085 -0.1914 -0.0262
94084W        W37137  24.065   7.138   8.367  0.1589 -0.1416 -0.0926
94085W        W37138   1.117  16.436   7.864  0.0822 -0.0520 -0.0864
94086W        W37139  11.265  29.458   8.576 -0.1542 -0.2327  0.1099
94087W        W37140   0.560  27.291   6.383 -0.1464 -0.2644  0.2055
94088W        W37141  14.228  33.121   6.002  0.0167 -0.0072  0.2347
94089W        W37142  31.705  19.278   3.193  0.1304 -0.0475 -0.3590
94090W        W37143   0.955  14.526   5.150  0.0292  0.0994 -0.1394
94091W        W37144  22.068   4.962  22.382 -0.2699 -0.2711  0.1557
94092W        W37145  32.814   6.374   7.433  0.0724  0.1821 -0.0676
94093W        W37146  23.363  16.390   9.844  0.0939 -0.0556 -0.0552
94094W        W37147  23.859   4.617  24.292  0.1547  0.3525  0.3375
94095W        W37148  19.399  13.201   4.522 -0.0404  0.0201  0.0350
94096W        W37149  27.354  11.383  25.891  0.3496 -0.0849  0.5709
94097W        W37150   5.891   0.303   5.919 -0.0326 -0.0492 -0.2027
94098W        W37151  14.309  13.473  16.701 -0.1043  0.0445  0.1889
94099W        W37152  14.926  33.430  28.942  0.3393  0.3439  0.2473
94100W        W37153   9.823  27.503   0.816 -0.0776  0.0044 -0.2736
94101W        W37154  26.624   1.732  25.592  0.4345  0.0985  0.0236
94102W        W37155  29.852  14.646   1.807 -0.1842 -0.1014  0.0045
94103W        W37156  10.648  22.649   0.357  0.1686  0.1963  0.0355
94104W        W37157  26.867  26.695  28.774 -0.1532  0.1422  0.1015
94105W        W37158  24.264  14.923   3.115 -0.0937  0.2652 -0.0639
94106W        W37159  31.945  17.759   6.527  0.3080 -0.4017  0.0081
94107W        W37160  23.198  28.172  19.530 -0.3318 -0.1188  0.1741
94108W        W37161  13.414  15.268   0.378  0.1915  0.2252  0.1643
94109W        W37162  23.889   9.610  13.495  0.0227 -0.1132 -0.2846
94110W        W37163  34.530   0.152  14.451  0.5330  0.0170  0.1063
94111W        W37164  32.523  34.349   3.250  0.0431 -0.0067  0.0078
94112W        W37165  23.329  18.136   6.708 -0.3172  0.2552  0.1006
94113W        W37166  26.538  16.360  17.738  0.3640  0.2664 -0.1420
94114W        W37167  13.834  32.754  23.313 -0.0575 -0.1469 -0.1934
94115W        W37168  11.376  18.024   4.747 -0.1416  0.2295 -0.4035
94116W        W37169  33.993  27.826  24.237  0.0520 -0.1291 -0.2871
94117W        W37170  27.649  19.747   8.262 -0.2329  0.0704 -0.3096
94118W        W37171   9.043  29.451  19.729  0.1561  0.1360  0.1076
94119W        W37172   9.477  14.369   3.082 -0.0065  0.1371  0.0887
94120W        W37173  28.657  21.338   9.236 -0.1213  0.2667  0.2967
94121W        W37174  16.429  30.880   5.920  0.4334  0.2764  0.2111
94122W        W37175  14.865  15.153  28.026  0.2672 -0.0039 -0.3057
94123W        W37176  25.169  13.102   3.793 -0.2383 -0.1098 -0.0824
94124W        W37177   3.300   4.405  25.287 -0.1650  0.2031 -0.3635
94125W        W37178  21.576  34.498  28.917 -0.2749 -0.3298 -0.0750
94126W        W37179  20.859  23.541   3.111 -0.1272 -0.1066 -0.2837
94127W        W37180  14.165  16.986   4.178  0.1993  0.1504  0.0994
94128W        W37181  28.113  33.747  21.466  0.1813 -0.3151 -0.0613
94129W        W37182   6.057  29.974  26.761  0.0301 -0.0245  0.1858
94130W        W37183   0.906  23.504  21.146 -0.1501 -0.1495 -0.1526
94131W        W37184  22.614  11.945   9.183 -0.0222 -0.0512  0.2341
94132W        W37185   7.200  15.205   8.412 -0.0376  0.1940  0.3636
94133W        W37186  33.957  19.295  16.436 -0.0123  0.0714  0.1309
94134W        W37187  21.504  28.115   1.199 -0.1283  0.2892  0.0888
94135W        W37188   3.792  25.576  17.817  0.0135 -0.0370 -0.2218
94136W        W37189  28.180  19.145  26.754  0.1834  0.0124 -0.1505
94137W        W37190   1.070   3.476  18.759 -0.2434  0.0255  0.0560
94138W        W37191   7.857  21.069  25.776 -0.2173  0.0248 -0.1687
94139W        W37192  13.493  25.087  28.900  0.0607 -0.1086  0.2755
94140W        W37193  14.964  23.210  14.811  0.1209 -0.2826 -0.1111
94141W        W37194  23.898  16.898   6.177  0.4440  0.2042 -0.1251
94142W        W37195   4.539   2.112  24.671  0.1439  0.0701 -0.0951
94143W        W37196   3.564  33.421  21.846  0.0912  0.1167  0.1826
94144W        W37197  26.491  26.035  24.730  0.1971 -0.1193 -0.2360
94145W        W37198  12.947  30.649  19.075  0.1809 -0.0029 -0.0029
94146W        W37199  28.067  28.606  21.610  0.3507 -0.0346  0.1223
94147W        W37200  13.345  27.203   0.295  0.2660 -0.0769 -0.0476
94148W        W37201  28.621  19.904  23.042  0.7472  0.1008  0.3507
94149W        W37202  13.014  26.969  20.383  0.1810  0.0295  0.0435
94150W        W37203  11.903  24.675  14.575  0.2450 -0.1322  0.1556
94151W        W37204  19.676   7.903  20.560  0.1444 -0.1411  0.1522
94152W        W37205  13.567  34.009  27.680  0.2655  0.1105 -0.0435
94153W        W37206  25.737  18.485  19.271  0.1496 -0.0235 -0.2736
94154W        W37207  20.186  24.838  19.432 -0.3340  0.2051  0.1149
94155W        W37208  12.393   5.378  27.540 -0.0702  0.1999 -0.1489
94156W        W37209  18.339  23.552   2.021  0.0241  0.3809 -0.2632
94157W        W37210   9.491  24.917  19.392  0.0151 -0.2280 -0.4594
94158W        W37211   2.231  25.618  13.038 -0.2679  0.0334 -0.1999
94159W        W37212  25.554  31.746  25.525 -0.0473  0.1088 -0.0555
94160W        W37213  21.288   6.645  17.017  0.1444  0.1605  0.2279
94161W        W37214  20.664  24.289  21.614 -0.3085  0.1835 -0.1452
94162W        W37215  32.766  24.129   8.134  0.0542  0.0478 -0.1546
94163W        W37216   5.548  26.671  14.054  0.2336  0.0253 -0.0345
94164W        W37217  26.660  30.799  16.405  0.1807  0.0534  0.1048
94165W        W37218  33.023  18.654  24.375  0.1206 -0.3996  0.1289
94166W        W37219  20.816  29.790   1.184  0.0305  0.6470  0.0578
94167W        W37220   3.003  23.273  15.958  0.4601  0.1115 -0.0232
94168W        W37221   6.917  31.836  17.384 -0.0303 -0.2863 -0.3120
94169W        W37222  29.544  22.718  17.931 -0.1090  0.2562 -0.2266
94170W        W37223  12.333  29.780  15.162  0.0173 -0.1832  0.0042
94171W        W37224  26.257  28.312  13.851 -0.0501  0.0543 -0.0639
94172W        W37225  14.124  31.038  19.374 -0.1817  0.1555 -0.0225
94173W        W37226  32.298  28.916  22.922  0.4804 -0.2030 -0.0419
94174W        W37227  17.369  26.415  14.580 -0.0039  0.0027 -0.0447
94175W        W37228  32.212  30.766  17.603 -0.1668 -0.3614  0.1366
94176W        W37229  28.488   3.172  18.710  0.1578 -0.0802 -0.0285
94177W        W37230  19.445   6.323   1.526 -0.1855 -0.2570 -0.1994
94178W        W37231  21.680  16.842  16.668 -0.0545  0.1760 -0.3659
94179W        W37232   3.887   0.877  24.947  0.1281 -0.1191  0.0049
94180W        W37233  26.642  34.071  15.189  0.0681 -0.0175 -0.1767
94181W        W37234   4.681  29.252  19.940  0.1491 -0.1612  0.1081
94182W        W37235  32.634   3.235  22.890  0.0743  0.0912 -0.1071
94183W        W37236  29.944   4.446   3.473 -0.0095  0.3367  0.1591
94184W        W37237   3.045  27.447  21.825 -0.0755  0.1849  0.2682
94185W        W37238   2.020  29.168  16.028 -0.2435  0.3153 -0.1803
94186W        W37239   6.101  30.608  21.556 -0.1346 -0.1726 -0.2256
94187W        W37240  21.657  23.914  14.338  0.2030  0.3748  0.0583
94188W        W37241  21.849  26.905  28.357 -0.1707  0.1318  0.3461
94189W        W37242  28.022  10.171   0.058  0.1872  0.0900 -0.1749
94190W        W37243  18.129  12.125   3.031  0.2496  0.0119  0.4112
94191W        W37244  11.421   8.776  22.776  0.2071 -0.2346  0.2194
94192W        W37245  10.934  26.256  15.896 -0.2089  0.1481  0.1530
94193W        W37246  33.078  18.031  24.989 -0.1439 -0.3055  0.0883
94194W        W37247  11.039  27.687  16.453  0.3559 -0.0752 -0.3210
94195W        W37248  16.244  29.557  27.079 -0.2205  0.0828  0.1660
94196W        W37249  22.043  31.442  25.023 -0.2377 -0.3059  0.2347
94197W        W37250  14.628  10.250  21.399  0.1111  0.3420 -0.0742
94198W        W37251  14.056   2.822  20.410  0.3553  0.2650 -0.1302
94199W        W37252  28.570  28.853  15.871  0.0060 -0.2202  0.1591
94200W        W37253  31.276  20.275  15.085 -0.1051 -0.0345  0.1507
94201W        W37254  11.271  33.627  16.383  0.1459 -0.1643 -0.0984
94202W        W37255  13.118  32.369  25.228  0.0594  0.4374  0.1217
94203W        W37256  24.684  21.797  25.246 -0.0409 -0.3317  0.2664
94204W        W37257  21.401  28.060  13.912 -0.1466 -0.1182 -0.2649
94205W        W37258  33.203  23.952   7.908  0.0062  0.1742 -0.1701
94206W        W37259  21.404   2.009  28.940  0.0634 -0.0171 -0.2172
94207W        W37260  34.248   9.932  18.493  0.0595 -0.1987  0.3399
94208W        W37261  19.766  27.290  17.633 -0.1065 -0.0963  0.1585
94209W        W37262  29.117  34.100  24.872 -0.1118 -0.0359  0.1465
94210W        W37263  24.030  27.788   4.104  0.1130  0.0286  0.0394
94211W        W37264  26.524  21.266  18.009  0.2326  0.0311  0.1213
94212W        W37265  26.445  27.503  18.916  0.1515  0.1755  0.1640
94213W        W37266  19.837  24.997  22.745  0.3056 -0.0343 -0.2905
94214W        W37267  10.065  22.688  23.072  0.0124 -0.1487 -0.0126
94215W        W37268  14.278  12.891  15.798 -0.1797  0.1311  0.1810
94216W        W37269  17.313  33.842   1.401  0.2414  0.1059  0.2499
94217W        W37270  22.275  19.946  16.451 -0.1139 -0.4988 -0.0593
94218W        W37271   2.780  31.630  23.905 -0.3911  0.2527  0.1275
94219W        W37272  21.714  27.710  29.198 -0.0393 -0.1545  0.1521
94220W        W37273  18.504  33.098  15.687  0.1045  0.0168 -0.0196
94221W        W37274  19.955  29.972  19.990 -0.0146 -0.2670  0.1376
94222W        W37275  20.003  29.041  24.317 -0.3556 -0.2007 -0.2738
94223W        W37276  31.769   6.750   8.961  0.2530 -0.1799  0.1026
94224W        W37277   8.757  18.008  19.773 -0.1755  0.1801 -0.2916
94225W        W37278   6.037  18.307  21.975 -0.1965 -0.1084 -0.0624
94226W        W37279  25.400  28.114  17.426  0.0321  0.2810 -0.1702
94227W        W37280  24.609  17.422  15.482 -0.0637  0.0021  0.3398
94228W        W37281  22.101   0.828  25.789  0.1185 -0.2155 -0.2504
94229W        W37282   7.236   6.595  20.515 -0.1820 -0.3077  0.0086
94230W        W37283  18.424  28.940  26.139 -0.0921  0.0703 -0.1696
94231W        W37284   0.530  26.230   0.002 -0.0503 -0.2170 -0.0679
94232W        W37285  27.171  22.210  19.074 -0.1066  0.1789 -0.2026
94233W        W37286  24.480   1.329  26.844 -0.2780 -0.0261  0.1129
94234W        W37287  32.921   8.972  19.807 -0.1713  0.6416  0.0719
94235W        W37288  14.221  27.472  13.367  0.1429  0.2598 -0.3309
94236W        W37289  22.462  33.897  21.257  0.2306  0.0249  0.0593
94237W        W37290   9.234  28.854  19.123 -0.0427  0.4657 -0.1263
94238W        W37291   4.319  23.678  22.951  0.1209 -0.3962 -0.4270
94239W        W37292  21.279  28.046  22.668 -0.1704 -0.1916 -0.0090
94240W        W37293  12.470  31.824   2.762 -0.2674 -0.0877  0.0034
94241W        W37294  22.947  33.896  29.082  0.0981  0.1415 -0.4532
94242W        W37295  13.051  31.560  25.497  0.1219  0.1826  0.0470
94243W        W37296  23.344  26.037  21.164  0.0120  0.0751 -0.0383
94244W        W37297  20.450  20.830  19.094  0.1237 -0.0223  0.0430
94245W        W37298  23.736  13.357  20.610  0.1509 -0.1863  0.1926
94246W        W37299  14.829   6.185  24.386 -0.1403  0.1904 -0.1419
94247W        W37300  31.512   5.278  27.874  0.0670  0.2592  0.3101
94248W        W37301  11.471  32.930  13.955  0.1843 -0.2973  0.0500
94249W        W37302  10.871  28.897  25.202  0.2871 -0.1560 -0.1508
94250W        W37303  29.923  25.314  17.564 -0.0782  0.2034  0.1226
94251W        W37304  18.712  26.074  27.149 -0.1138  0.2548 -0.0644
94252W        W37305   4.135   2.793  17.702 -0.0958  0.0587  0.3367
94253W        W37306   3.566  21.985  20.555  0.1778 -0.3362 -0.0066
94254W        W37307  20.915   9.255  17.807 -0.0607 -0.1355  0.0381
94255W        W37308  26.445  13.038  19.183  0.1385  0.1835 -0.2800
94256W        W37309  18.618  25.267  18.153 -0.0440  0.0295  0.1063
94257W        W37310  15.771  17.083   0.950 -0.2649 -0.0216  0.0531
94258W        W37311  13.369  15.627   0.718 -0.3410 -0.0723 -0.1987
94259W        W37312  27.744   1.579  16.257  0.3014  0.1603 -0.2128
94260W        W37313   8.381  13.027  24.332  0.0562  0.4460  0.0768
94261W        W37314  19.065  19.557  24.069  0.3690 -0.2450  0.1646
94262W        W37315  10.825   9.604  17.230  0.0422  0.2250 -0.0590
94263W        W37316  22.213  21.803  17.621  0.0756 -0.0662 -0.0810
94264W        W37317  32.579   1.543  16.152  0.3258  0.4081 -0.0147
94265W        W37318  15.684  30.436  22.245 -0.1481  0.0044  0.2606
94266W        W37319  17.509  11.688  20.441  0.1994  0.0036 -0.2609
94267W        W37320  30.363  22.262  16.539  0.2332 -0.1724  0.0980
94268W        W37321   8.741   0.984  25.800 -0.0514  0.4012  0.1950
94269W        W37322  17.254  31.356   6.096 -0.1203 -0.0778 -0.2228
94270W        W37323  18.308  31.673  27.857 -0.3216 -0.2828  0.1067
94271W        W37324  22.317  15.283  20.202 -0.0812 -0.0477  0.0260
94272W        W37325  17.173  21.433  24.075 -0.4510  0.2631  0.2403
94273W        W37326  17.893   3.443   1.712 -0.0208 -0.1509  0.2571
94274W        W37327  26.719  17.476   0.244 -0.0795 -0.0633  0.2718
94275W        W37328  34.050   5.394  24.318  0.1426  0.2953 -0.1779
94276W        W37329  15.093  28.491   1.543 -0.0567 -0.1108 -0.0045
94277W        W37330  16.264  25.582  15.887 -0.2405  0.1046  0.0676
94278W        W37331  31.881  17.937  15.946 -0.0046 -0.1298  0.0066
94279W        W37332  28.627   8.843  14.398  0.0356  0.0493 -0.1808
94280W        W37333  23.266  11.176  14.200 -0.0703 -0.0941  0.1586
94281W        W37334  18.434   3.878  16.431 -0.3442  0.2110 -0.2628
94282W        W37335  27.293  27.633  19.640  0.0418 -0.0950 -0.2163
94283W        W37336  26.635  29.551   0.508  0.3043 -0.2961 -0.0422
94284W        W37337  21.974  23.002  15.314 -0.0122  0.0195 -0.5271
94285W        W37338  31.865   1.950   6.533  0.0212  0.0889 -0.1499
94286W        W37339  30.944  26.618  14.883 -0.1241  0.0471 -0.2733
94287W        W37340  17.674  30.413  15.349 -0.4190 -0.2346 -0.3857
94288W        W37341  21.844  20.649  24.538 -0.1617 -0.4249 -0.1212
94289W        W37342  22.779  28.563  22.535  0.1549  0.0157  0.0245
94290W        W37343  31.421  30.068  18.571  0.0540 -0.0313 -0.0249
94291W        W37344   6.424  18.078  24.613 -0.1860 -0.0144 -0.1707
94292W        W37345   7.441  32.798  21.867  0.1940 -0.0313 -0.0286
94293W        W37346  17.182  34.220  22.625 -0.4360  0.0959 -0.0368
94294W        W37347  27.073  32.731  25.707  0.1314 -0.2444 -0.1301
94295W        W37348  23.814  28.520  19.100  0.2517  0.2608  0.1281
94296W        W37349  24.671   4.987  15.656 -0.3704  0.0255  0.1881
94297W        W37350  26.474  18.946  15.855  0.0015 -0.2701 -0.0365
94298W        W37351  28.371  26.072  19.121 -0.0576  0.1175  0.0791
94299W        W37352  27.730   6.903  18.831  0.2774  0.2652 -0.0794
94300W        W37353  28.076  14.763  25.566 -0.1820  0.1210  0.3117
94301W        W37354  25.032   1.083  16.409  0.2719  0.0166  0.2694
94302W        W37355  17.731  30.549  20.263 -0.0033 -0.1850  0.0872
94303W        W37356  15.662  29.735   2.951 -0.0670 -0.1786  0.1151
94304W        W37357  11.130  11.512  23.664  0.1606  0.1195 -0.0384
94305W        W37358  18.104  23.173  25.336  0.2622 -0.1603  0.0411
94306W        W37359  26.195  30.550  24.839  0.2160  0.0833 -0.0207
94307W        W37360  11.111  23.200  16.536 -0.2541 -0.0705 -0.2227
94308W        W37361  12.767   0.230  16.576  0.3300 -0.0949  0.0577
94309W        W37362  22.496  17.297  16.434 -0.2332 -0.0369  0.1468
94310W        W37363   8.590   3.766  20.326  0.3669  0.3434 -0.1603
94311W        W37364   3.972  21.461  17.234  0.1121  0.2843 -0.0311
94312W        W37365  34.415  24.445  15.606 -0.0459  0.3080 -0.0343
94313W        W37366  19.362  26.405  19.581  0.1047 -0.1606  0.1485
94314W        W37367  12.081  29.805  22.777 -0.1505 -0.1657  0.1783
94315W        W37368   8.103  24.780  21.407 -0.2137 -0.1577 -0.2135
94316W        W37369  24.996   1.065   2.178  0.0645 -0.2171 -0.0864
94317W        W37370  16.240  14.193  25.407  0.5327  0.4140 -0.1372
94318W        W37371  11.836  23.515  26.355  0.1772 -0.1126 -0.2031
94319W        W37372   0.751  27.851   2.752  0.0561 -0.1030  0.2525
94320W        W37373  22.513  31.315  19.967  0.1344  0.2244  0.1082
94321W        W37374  17.586  22.272  13.518 -0.0089 -0.0601 -0.2595
94322W        W37375  17.246  12.931  21.109 -0.2250  0.1597 -0.0458
94323W        W37376  16.745  16.724  24.672  0.2240  0.1804 -0.1092
94324W        W37377  33.681  21.495  18.625  0.2166 -0.1570  0.1639
94325W        W37378   7.524  21.586  17.488 -0.3284  0.0350 -0.0962
94326W        W37379   9.101  29.344  26.932  0.2549 -0.0612 -0.1146
94327W        W37380  11.287  34.240  19.960 -0.1458 -0.0724  0.0073
94328W        W37381  11.737  22.627  15.520  0.3031  0.2109 -0.0864
94329W        W37382  17.824  24.190  19.893 -0.1794  0.1806 -0.0083
94330W        W37383  30.054  16.849   4.407 -0.1619  0.0989  0.1607
94331W        W37384  27.756  22.122  20.682  0.1064  0.0174 -0.0954
94332W        W37385  14.414  33.779  16.526  0.4772  0.0915  0.1465
94333W        W37386   4.350  24.682  27.508  0.0657 -0.0364 -0.0613
94334W        W37387  23.910  12.855  23.633 -0.0309  0.2238 -0.0795
94335W        W37388  12.994  29.071  16.728 -0.0991 -0.0437 -0.2234
94336W        W37389  14.647  19.781  21.928  0.0284 -0.1011  0.1159
94337W        W37390   0.508   2.404  21.545 -0.3879 -0.1095  0.1409
94338W        W37391  14.244  29.977  16.891  0.0938  0.2262  0.0650
94339W        W37392  11.179   6.254  22.762  0.3069 -0.2087 -0.0737
94340W        W37393  10.064   9.107  23.503 -0.1909  0.1621 -0.0300
94341W        W37394  24.765  33.340   6.186 -0.1653  0.2349  0.0997
94342W        W37395  15.386  32.956  15.164  0.1585 -0.0401 -0.0632
94343W        W37396  11.789   0.588  16.065 -0.2975  0.1041  0.0218
94344W        W37397  20.694  18.355  25.901 -0.0981 -0.1587 -0.1975
94345W        W37398  11.695  30.371  18.848  0.1095 -0.3072 -0.0809
94346W        W37399   7.155  26.142  13.617 -0.3258 -0.0288 -0.1542
94347W        W37400  34.185   0.892  28.870  0.0885  0.1361 -0.1360
94348W        W37401  12.185  18.055  18.927 -0.1944  0.0696  0.1522
94349W        W37402   7.764  26.849  23.869  0.3500  0.2061  0.1076
94350W        W37403  21.190  30.432  28.424 -0.1656  0.0592 -0.0333
94351W        W37404  24.419  32.174  21.624  0.0333  0.2776  0.0259
94352W        W37405   4.831  20.319  19.275 -0.2483  0.1468  0.0342
94353W        W37406  11.216  14.163  22.534  0.0279  0.0492  0.1092
94354W        W37407  30.033   0.156  16.995 -0.1402  0.0792  0.0620
94355W        W37408  14.656  29.500  24.732  0.0927  0.0454 -0.0059
94356W        W37409  32.487  18.644  18.236 -0.1042 -0.0741 -0.4491
94357W        W37410  28.504  14.567  14.823  0.0405 -0.1997 -0.0394
94358W        W37411   0.555  29.070  14.591 -0.1318  0.0119  0.2585
94359W        W37412  25.661   2.755  24.226 -0.2985 -0.0924 -0.2846
94360W        W37413  26.327  17.885  20.573 -0.1158 -0.0585 -0.1577
94361W        W37414  13.992  33.806  15.609 -0.1946 -0.0531  0.1154
94362W        W37415  13.211   6.564  17.589 -0.1278  0.2090 -0.3247
94363W        W37416  12.885   1.507  15.071 -0.2199 -0.2112  0.1388
94364W        W37417   3.229  19.770  13.705 -0.1056 -0.1988 -0.1917
94365W        W37418  34.570  16.200  27.624 -0.0312 -0.0719 -0.3638
94366W        W37419  19.736  14.520  16.508 -0.1658  0.1472  0.1101
94367W        W37420  23.375   0.944   0.733  0.0307 -0.0552  0.1444
94368W        W37421   2.372  21.387  25.331  0.0375 -0.2759  0.3021
94369W        W37422   2.941  26.674  29.038 -0.1637 -0.2628 -0.1142
94370W        W37423  18.882  23.938   0.468 -0.1117 -0.0153 -0.0478
94371W        W37424  18.406  33.942  21.628 -0.0874  0.1672  0.0169
94372W        W37425   3.676  30.168  23.292 -0.2156 -0.0887 -0.0151
94373W        W37426  33.424  25.244  12.833 -0.0144  0.1744 -0.0109
94374W        W37427  29.995   2.427  14.254 -0.2011 -0.0137 -0.2310
94375W        W37428  34.527  13.260  24.544  0.1802 -0.0002  0.0323
94376W        W37429  16.648  22.471  27.689  0.0475 -0.1962  0.0781
94377W        W37430  29.063  33.814  24.014 -0.0335  0.2179 -0.1449
94378W        W37431   5.025  23.716  20.819 -0.1653 -0.0199  0.1477
94379W        W37432  27.649  31.581  17.273 -0.1385 -0.1643  0.1299
94380W        W37433  25.857  20.298  15.277  0.1590 -0.4467  0.0688
94381W        W37434  11.373  18.949  17.289  0.2759  0.1232 -0.0560
94382W        W37435  21.893  18.883  20.423 -0.0558 -0.0267 -0.2126
94383W        W37436  17.013  11.042  15.783 -0.0923 -0.0708  0.0188
94384W        W37437   6.060  22.843  15.755 -0.0156  0.1420  0.2189
94385W        W37438  13.024   8.356  23.800 -0.0127  0.1296  0.0069
94386W        W37439  30.576  27.100  19.395  0.3219 -0.0101 -0.2819
94387W        W37440  20.409   0.024  18.481  0.2571  0.4203 -0.0053
94388W        W37441  30.668  28.052  15.393 -0.2506  0.0861 -0.0554
94389W        W37442  14.046  15.733  16.433 -0.1372  0.2240 -0.0601
94390W        W37443  24.590  19.359  21.652  0.1539  0.1739 -0.0879
94391W        W37444   8.227   1.056  22.826  0.0798 -0.2712  0.0456
94392W        W37445  21.264  20.904  15.418 -0.2706 -0.2724 -0.2991
94393W        W37446  28.960  32.770  14.002 -0.2927  0.1496 -0.2915
94394W        W37447  15.010  25.088  15.780 -0.0697  0.1221 -0.1034
94395W        W37448  15.207  29.648  23.037  0.3631 -0.1790  0.2623
94396W        W37449   7.938  16.572   1.647 -0.2627  0.2724 -0.2018
94397W        W37450  22.329  18.654  16.270 -0.2096  0.2191  0.0487
94398W        W37451  13.584  25.833  21.311 -0.0448  0.2768  0.1741
94399W        W37452  23.706  27.067   2.438  0.5221  0.0433  0.4355
94400W        W37453  19.696  30.892  14.719  0.0550 -0.2615 -0.0002
94401W        W37454  22.340  23.355  25.571 -0.0040 -0.1398 -0.1702
94402W        W37455   4.969  33.691   0.207  0.1280  0.0099  0.2837
94403W        W37456  19.898  24.144  22.936 -0.1512  0.2275 -0.1096
94404W        W37457   8.714  33.485  23.538 -0.1876 -0.0726 -0.1272
94405W        W37458  23.526  22.521  26.590 -0.2613  0.3110  0.0405
94406W        W37459   1.522   6.600  23.432  0.1164  0.0976 -0.1526
94407W        W37460  25.144  31.440  14.290 -0.0687  0.3406 -0.0359
94408W        W37461  12.786  30.667  22.851 -0.1334 -0.0748 -0.1295
94409W        W37462  19.863  31.147  25.922  0.2021 -0.1290  0.0830
94410W        W37463   0.689   2.855  24.572  0.0289 -0.0911  0.0110
94411W        W37464  16.093  15.639  13.023 -0.0520  0.2315  0.4089
94412W        W37465  22.508   4.205  24.741 -0.3294 -0.1704 -0.2981
94413W        W37466  19.735  26.035  19.065 -0.0482  0.0260 -0.0313
94414W        W37467  27.541  26.376  28.234  0.2186  0.1284  0.1224
94415W        W37468  12.072  28.806  24.135  0.1731  0.2172  0.0629
94416W        W37469  20.498  20.470  20.466 -0.1139  0.1224 -0.2433
94417W        W37470  12.800  30.434  17.679  0.2274  0.0081 -0.2852
94418W        W37471   7.070  28.190  23.799  0.2227  0.1144  0.1093
94419W        W37472   8.047  12.656  21.673  0.3883 -0.1777  0.2607
94420W        W37473  10.866  28.724   8.149  0.3148  0.1680  0.1225
94421W        W37474  27.383  14.527  20.759 -0.2011 -0.0140 -0.0857
94422W        W37475  29.303  34.437  18.120 -0.0788 -0.1262 -0.2095
94423W        W37476  10.648  21.000  18.276  0.1378  0.0001  0.0824
94424W        W37477  19.141  24.295  28.304 -0.1500  0.1303 -0.0432
94425W        W37478  19.329  33.112   4.549 -0.0700 -0.0171 -0.0331
94426W        W37479  17.454  29.531   4.950 -0.2703  0.1401  0.0726
94427W        W37480  11.450  28.933  19.215 -0.1370 -0.1817  0.1640
94428W        W37481  14.769  30.685  23.524  0.0508  0.0061 -0.1597
94429W        W37482  11.831  23.342  22.745  0.0939  0.1283  0.2375
94430W        W37483  17.979  34.464   7.023 -0.0307  0.0780 -0.2377
94431W        W37484  21.376  27.290  19.854  0.0568  0.1366  0.1998
94432W        W37485   9.751  26.940  18.896 -0.0916  0.4009 -0.1873
94433W        W37486  21.033  27.303  18.336  0.1759 -0.1488 -0.2163
94434W        W37487  28.247  15.246  22.542 -0.1474  0.2458  0.1456
94435W        W37488  21.268  27.025  20.840 -0.2547 -0.5152 -0.2885
94436W        W37489  20.253  29.834  24.323  0.2467 -0.3336 -0.1297
94437W        W37490  15.272  22.343  15.810  0.0901  0.1483 -0.0781
94438W        W37491  21.034   5.968  15.399  0.1924  0.3212 -0.2217
94439W        W37492  10.739  34.119  22.995 -0.0091  0.0938 -0.4341
94440W        W37493  20.105  11.005  16.040  0.0117 -0.0595  0.0136
94441W        W37494  24.598  15.363  16.183  0.1586  0.0247  0.0978
94442W        W37495   3.211   4.226  19.650 -0.4756 -0.0834 -0.0371
94443W        W37496  14.121  26.194   7.772 -0.0696 -0.0860  0.0248
94444W        W37497   8.291  20.256  18.926  0.1173  0.3106 -0.0698
94445W        W37498  29.535  26.759  18.447  0.3059  0.1203 -0.0452
94446W        W37499  11.919  21.130  16.385 -0.2387 -0.0235 -0.2505
94447W        W37500   3.337  17.829  23.143  0.2009 -0.2689  0.1391
94448W        W37501  19.380   3.228  19.100  0.1898 -0.2255  0.1551
94449W        W37502  21.922  34.185   6.860 -0.4470  0.1936 -0.0949
94450W        W37503  22.390  26.231  18.064 -0.0129  0.0511 -0.1081
94451W        W37504  26.274   4.133  13.615  0.3059  0.2213  0.1556
94452W        W37505  22.942  33.489  18.008  0.0963  0.0947 -0.1180
94453W        W37506  25.861  23.027  15.161 -0.0727  0.0598  0.1189
94454W        W37507  30.282  28.802  23.457 -0.0690 -0.0811  0.1227
94455W        W37508  18.353   4.559  28.771 -0.2089 -0.0271  0.2049
94456W        W37509   1.757  23.542  17.914  0.0392 -0.2395 -0.0172
94457W        W37510   8.736  25.177  26.743 -0.1675 -0.0397  0.2753
94458W        W37511  30.540  19.353  18.205 -0.0598 -0.0670  0.0612
94459W        W37512  22.903  25.115  17.214  0.0924 -0.0979 -0.5620
94460W        W37513   5.261  12.665  25.382 -0.0703  0.3177  0.0801
94461W        W37514   0.091  29.105  14.172 -0.0166 -0.1318  0.0575
94462W        W37515   5.945   2.209  26.923  0.2910  0.4078 -0.1965
94463W        W37516  34.020  27.622  14.503 -0.0946 -0.1113  0.1823
94464W        W37517  22.034  33.073  19.959 -0.2245  0.1358 -0.1185
94465W        W37518  18.978   3.946  21.665  0.3766  0.2952  0.0645
94466W        W37519  10.798  14.935  28.009  0.2317 -0.0441  0.1134
94467W        W37520  32.081  21.285  14.731  0.3023 -0.2553 -0.2514
94468W        W37521  17.324  24.353  28.734  0.1357 -0.2147 -0.0653
94469W        W37522  18.382  28.611  24.945  0.0043  0.2869  0.0301
94470W        W37523   2.565   7.871  16.791 -0.0122 -0.2472 -0.1358
94471W        W37524  18.472  33.150  16.233  0.0393 -0.1396 -0.0646
94472W        W37525  22.094  29.718  26.668  0.2032 -0.0379 -0.1188
94473W        W37526  15.314  33.122   6.594  0.2106  0.3269  0.0922
94474W        W37527  21.046  13.374  16.921  0.0685 -0.0581 -0.1913
94475W        W37528  29.690  26.896  24.062 -0.4963  0.1802 -0.0529
94476W        W37529  10.606  26.649   3.764 -0.1110 -0.5039 -0.1391
94477W        W37530  23.533  32.545  23.388  0.0865  0.1486  0.0336
94478W        W37531  32.734  12.122  17.820  0.0030 -0.2231  0.1699
94479W        W37532  20.634   0.390   2.070  0.1628  0.0383 -0.0094
94480W        W37533   5.368  29.852  20.321  0.0991 -0.4196  0.1790
94481W        W37534  19.279  22.198  19.296  0.0462  0.1544  0.0276
94482W        W37535  15.313  22.477  10.111  0.0228 -0.2657 -0.1899
94483W        W37536  10.273  27.667  17.773  0.1326 -0.1097  0.0657
94484W        W37537  12.327   4.861   6.992  0.0192 -0.1399 -0.2836
94485W        W37538   9.109  19.380  18.714  0.0230 -0.0491  0.1826
94486W        W37539  14.034  27.134  14.703 -0.0424 -0.0658 -0.0776
94487W        W37540  18.687  18.331  14.758 -0.0601 -0.1051  0.1452
94488W        W37541   6.086  17.764  14.414  0.1478 -0.0341  0.3250
94489W        W37542  22.123  32.315  21.434  0.2897  0.0358 -0.0387
94490W        W37543   2.354  30.019  17.078 -0.0400 -0.1310  0.1030
94491W        W37544  14.786  34.034   5.310  0.0366  0.1322 -0.3075
94492W        W37545  13.310  32.906  21.347  0.0200  0.2790 -0.2798
94493W        W37546  14.801  18.321  25.622  0.0398 -0.0128  0.0935
94494W        W37547  17.268  26.134  15.031 -0.2496 -0.0242 -0.0428
94495W        W37548  15.621   1.460  18.955 -0.0168 -0.0387 -0.0964
94496W        W37549  13.927  22.761  17.627 -0.0013  0.4274 -0.1351
94497W        W37550  20.777  31.646  14.866  0.1008  0.2116 -0.4536
94498W        W37551  19.053  26.870  17.179  0.4218 -0.0427 -0.0270
94499W        W37552   2.735  26.110  21.676  0.1475  0.3396 -0.0992
94500W        W37553  13.143   7.127  20.364 -0.1515 -0.0184 -0.0610
94501W        W37554  13.183  29.771   3.474 -0.0869 -0.1409 -0.0671
94502W        W37555  22.387  19.187  23.487 -0.1638  0.1818 -0.0217
94503W        W37556  22.080  23.360  22.251 -0.1297 -0.0858  0.2192
94504W        W37557  23.969  32.702  23.226 -0.2443 -0.1029  0.1257
94505W        W37558  10.466  22.482  19.605  0.0577 -0.2030 -0.3269
94506W        W37559  24.849  29.919  16.789  0.2895  0.2008  0.0833
94507W        W37560  14.410  29.544  16.302  0.0166 -0.4288 -0.1775
94508W        W37561  21.548   7.723  14.626  0.1074 -0.0547 -0.2040
94509W        W37562   8.464  33.852  17.196 -0.0227 -0.1029  0.1917
94510W        W37563   0.300  22.067  26.930  0.1407  0.0434  0.2590
94511W        W37564  22.634   1.590  22.686  0.0444  0.2083 -0.2964
94512W        W37565  16.078  26.252  21.325  0.0210  0.0623  0.0458
94513W        W37566  16.394  27.839  16.304 -0.0622  0.3044 -0.0570
94514W        W37567  12.932  25.510  14.176 -0.0384 -0.1388 -0.0534
94515W        W37568  16.474  30.133   2.669 -0.0167 -0.2847 -0.1616
94516W        W37569  26.356  16.598  23.324  0.0112 -0.2759 -0.0540
94517W        W37570  28.041  15.543  20.671  0.2662  0.0265 -0.0248
94518W        W37571  19.125  17.521  22.968 -0.0585  0.0003  0.1892
94519W        W37572  23.608  29.134  20.764 -0.0422 -0.2362 -0.2888
94520W        W37573  25.243   6.488  19.668  0.1718 -0.0489 -0.2746
94521W        W37574  17.798   1.166   8.595  0.1388 -0.4627  0.4096
94522W        W37575  23.800  25.525  16.638 -0.3522  0.0491 -0.3867
94523W        W37576  11.880  27.242  18.735  0.3885  0.1787 -0.4909
94524W        W37577  28.420  33.223   5.854  0.1943 -0.1860  0.0773
94525W        W37578  24.482  29.459  21.492  0.1055 -0.2183  0.0570
94526W        W37579  17.834  25.037   8.587 -0.0566 -0.2803 -0.0733
94527W        W37580  26.517   2.342  18.225 -0.1477  0.0352  0.1160
94528W        W37581  20.924   4.931  17.204 -0.1530 -0.0142 -0.3757
94529W        W37582   7.952  28.860  20.565  0.1964 -0.3864 -0.2731
94530W        W37583  21.074  25.482  23.085 -0.1409 -0.0714 -0.0184
94531W        W37584   4.869  27.253  13.512  0.1450 -0.2524 -0.0431
94532W        W37585  26.882  24.836  20.949 -0.0869 -0.2309 -0.0879
94533W        W37586  15.533  20.404  28.616 -0.0261 -0.0526  0.0213
94534W        W37587  19.500  20.906  18.587 -0.1093 -0.0409  0.1615
94535W        W37588  20.989  33.905  17.130 -0.0109 -0.1361 -0.0716
94536W        W37589   4.671  19.765  15.880 -0.1223  0.0324  0.0517
94537W        W37590  18.108   3.131   3.655  0.3442  0.0301  0.1667
94538W        W37591  25.468   3.242  25.729 -0.1223 -0.1869 -0.2688
94539W        W37592  18.788  31.587  27.847 -0.2230  0.3651 -0.0581
94540W        W37593  10.284  15.282  17.632 -0.3168 -0.4396 -0.1111
94541W        W37594   5.331  16.753  13.883  0.0346  0.0489  0.0845
94542W        W37595  14.340  27.600  18.989  0.3014  0.2853  0.3713
94543W        W37596  34.133  30.154  16.747 -0.1513  0.2654 -0.1533
94544W        W37597  24.374  16.670  14.298  0.1024  0.1593 -0.3299
94545W        W37598  29.439  30.122  17.751 -0.2862  0.0374 -0.1568
94546W        W37599  21.129  18.949   5.520 -0.0972 -0.0338  0.3026
94547W        W37600  25.376  18.972  14.735 -0.1130 -0.0605 -0.1071
94548W        W37601  22.981   6.259  28.147 -0.0524  0.1414  0.3230
94549W        W37602  29.228  30.406  19.832  0.5940 -0.2073 -0.0417
94550W        W37603  12.274  20.784  16.946  0.2643  0.1773 -0.1520
94551W        W37604  16.486  33.243  15.301 -0.0664 -0.1014 -0.0120
94552W        W37605  19.400   1.918  18.575  0.1258  0.0197 -0.1078
94553W        W37606  30.221  12.922  26.135 -0.0536 -0.1631 -0.0512
94554W        W37607  28.730  19.003  26.618 -0.0238 -0.2436  0.1497
94555W        W37608  17.738   4.933  20.409 -0.0601  0.0809 -0.1098
94556W        W37609  17.867  32.965  23.795  0.3854 -0.2762  0.3047
94557W        W37610  28.070  16.815  21.540 -0.1499 -0.2919 -0.0839
94558W        W37611  20.166  15.357  14.572 -0.0033 -0.0735  0.3985
94559W        W37612  26.625  26.997  15.572 -0.0313  0.1792 -0.1986
94560W        W37613   1.385   9.031   2.938 -0.3411  0.0482  0.1103
94561W        W37614  11.953  29.086  21.632 -0.2105  0.0835 -0.0774
94562W        W37615  31.120  17.883  23.506  0.2615 -0.3917 -0.1730
94563W        W37616  21.500  28.093  16.177  0.1494 -0.0957 -0.2211
94564W        W37617  16.552  22.993  22.194  0.3488 -0.2113 -0.3185
94565W        W37618  27.576  26.899  17.710  0.3112  0.2360  0.0926
94566W        W37619  13.615  29.853  22.402  0.0585 -0.1455 -0.0434
94567W        W37620  24.425  31.260  23.474  0.1579 -0.3421  0.0211
94568W        W37621  13.588  15.024  16.418  0.0466  0.4899  0.2903
94569W        W37622  33.956  22.827  17.136  0.0843 -0.1118  0.2300
94570W        W37623  32.259  17.669  20.922  0.0128 -0.2110  0.2377
94571W        W37624  10.226  16.038   8.064  0.0974 -0.1704  0.0511
94572W        W37625  23.796  26.262  20.984 -0.0661  0.4931  0.2887
94573W        W37626  29.044   7.504  17.012 -0.0693 -0.1407  0.0137
94574W        W37627  17.748  33.620  15.728 -0.2798  0.3401  0.2328
94575W        W37628   3.777  28.744  20.331 -0.1906 -0.0154 -0.0563
94576W        W37629   0.272   2.059  20.264  0.0918  0.0896 -0.1496
94577W        W37630  15.289  25.772  21.067 -0.2495 -0.2532 -0.2045
94578W        W37631  27.209  20.901  24.288  0.3361  0.0506  0.2120
94579W        W37632  22.245  31.326  20.730  0.0052 -0.0071 -0.0973
94580W        W37633   6.545   4.416  27.966  0.1191  0.1417 -0.1481
94581W        W37634   6.239  12.044  18.576  0.2906 -0.3987  0.0126
94582W        W37635  11.609  29.392  18.145  0.2179  0.0335  0.1742
94583W        W37636  20.673  23.587  22.170 -0.1491  0.2228  0.0878
94584W        W37637  15.380   3.174   2.862  0.1145 -0.0840  0.0104
94585W        W37638  26.758   3.138   8.476 -0.1011 -0.2177 -0.0808
94586W        W37639  16.826  34.335  19.573  0.1570  0.2151 -0.0315
94587W        W37640   0.322   0.308  26.265  0.1539 -0.1466 -0.1155
94588W        W37641  27.818  13.043  22.702  0.1555 -0.2508 -0.0588
94589W        W37642  25.361  33.836  20.068  0.0952  0.2137 -0.3616
94590W        W37643  19.654  14.222  14.177 -0.0967  0.2468  0.0728
94591W        W37644  13.416  28.824   8.518  0.3279  0.3427  0.0249
94592W        W37645  15.238  16.401  15.227  0.2568 -0.1830 -0.2607
94593W        W37646   1.803   8.550  24.150  0.2603  0.0684 -0.2102
94594W        W37647   8.698   3.142   4.598  0.0951  0.1505  0.0236
94595W        W37648  15.725  26.710  14.241 -0.0684 -0.0452 -0.1818
94596W        W37649  29.349  27.516   5.092  0.2321  0.0776  0.1863
94597W        W37650  28.670  24.099  28.000  0.2711  0.1125  0.0140
94598W        W37651  27.798  15.618  14.697 -0.0771  0.1094  0.2477
94599W        W37652  34.675  23.447   3.902 -0.1142 -0.2306 -0.0362
94600W        W37653  10.616  14.636  28.743  0.2414  0.1492  0.0083
94601W        W37654  13.428  31.421   9.999  0.0925  0.0432 -0.1066
94602W        W37655  14.393  28.737  19.019  0.1932  0.1939 -0.0583
94603W        W37656  18.325   8.430  19.009  0.0322 -0.1904 -0.2478
94604W        W37657  13.688  10.823  27.523 -0.1275  0.0164 -0.1537
94605W        W37658  19.503  20.350  21.513  0.2491  0.0259  0.1972
94606W        W37659  19.388  31.560  27.812  0.0469 -0.0383  0.0633
94607W        W37660  22.993  24.399  21.920  0.0701  0.1787  0.0576
94608W        W37661  25.579  27.481   4.849 -0.0486 -0.1677  0.0956
94609W        W37662  28.666   6.810  14.812 -0.0010  0.0975 -0.0918
94610W        W37663  10.791  31.242   8.060  0.2184  0.0900 -0.1209
94611W        W37664  18.720  28.602  17.262  0.1771 -0.1793  0.1746
94612W        W37665  18.754  30.546  18.649  0.0335 -0.3007 -0.0069
94613W        W37666  17.504  14.099  14.973 -0.0519  0.3470  0.1631
94614W        W37667  12.115  24.406  14.938  0.1849 -0.3925  0.2388
94615W        W37668  19.659  24.594  22.595 -0.1304  0.1197 -0.0055
94616W        W37669  10.036  27.261  17.726  0.0969  0.0723 -0.1178
94617W        W37670  33.134  30.171  24.992 -0.0608 -0.3036 -0.0940
94618W        W37671  32.080  19.403  22.127  0.0032 -0.2661  0.1713
94619W        W37672  27.861   1.574  14.337 -0.0624 -0.3643  0.1345
94620W        W37673  27.294  24.909  17.270 -0.0945  0.3057  0.0234
94621W        W37674  24.545  29.841  18.927  0.1692 -0.3029  0.3847
94622W        W37675  19.943  12.200  24.355  0.1001 -0.1783  0.0162
94623W        W37676  34.448  24.874   4.863  0.0272  0.1015 -0.0647
94624W        W37677   8.606  21.096  28.858  0.2747 -0.1750  0.2507
94625W        W37678  20.467  23.766  15.185 -0.1724  0.1621  0.0651
94626W        W37679  19.805  32.666  23.817  0.1724  0.1359 -0.3687
94627W        W37680  16.487   0.525  19.209  0.0918  0.3087 -0.5333
94628W        W37681   7.081  14.231  21.923 -0.1092 -0.2645 -0.1275
94629W        W37682  21.232  27.045  14.838  0.1429  0.1007 -0.0469
94630W        W37683  21.008  21.904  16.380  0.0413 -0.3279  0.1326
94631W        W37684  22.179  26.370  27.455  0.2367 -0.0913 -0.2800
94632W        W37685  10.632  32.312   0.575  0.3885 -0.1564 -0.3879
94633W        W37686  15.624  33.915  14.462  0.1812  0.0109 -0.1546
94634W        W37687  29.201  29.989  26.386 -0.2080  0.1064  0.0388
94635W        W37688  16.365   9.431  20.011  0.3951 -0.3700 -0.0823
94636W        W37689  23.789   0.057  16.854  0.1840 -0.2765 -0.1532
94637W        W37690  22.274  25.843  23.303 -0.1062  0.2108 -0.2459
94638W        W37691  13.128   2.355  18.659 -0.2783  0.1046  0.1151
94639W        W37692  20.447   1.398  14.445  0.3654 -0.0310 -0.2483
94640W        W37693  25.170  30.319  16.762  0.1283 -0.0362 -0.1591
94641W        W37694  28.778  18.611  19.505  0.0336  0.2011 -0.3630
94642W        W37695  21.970  17.056  18.640  0.1543  0.0587 -0.1986
94643W        W37696  22.970  32.444  25.822 -0.0887  0.2198 -0.0249
94644W        W37697  14.360   3.674  14.111  0.1501  0.1221  0.3035
94645W        W37698  16.159  27.418  20.151  0.0084  0.1827  0.1731
94646W        W37699   6.675  24.174  24.525  0.0421  0.0084  0.1188
94647W        W37700  11.780  10.407  17.080 -0.0510  0.2578 -0.0064
94648W        W37701  11.751   0.412  26.255  0.0424  0.1488  0.2453
94649W        W37702  21.233  17.196  22.257 -0.1236  0.0438  0.2976
94650W        W37703  14.812   1.826  23.163 -0.0550 -0.2005  0.4246
94651W        W37704  20.092  32.496  22.647  0.0715 -0.0332  0.4705
94652W        W37705   6.537  28.167  18.361 -0.1092 -0.0659 -0.1868
94653W        W37706  22.411   8.181  16.990  0.0560  0.1003 -0.1788
94654W        W37707  22.195   2.986  23.960  0.1676  0.3797 -0.2919
94655W        W37708  13.584   3.475  21.599  0.0399  0.1254 -0.4698
94656W        W37709  21.941  22.156   2.127 -0.0354 -0.0374 -0.1312
94657W        W37710   2.955   0.383   1.434  0.0835  0.0111  0.1308
94658W        W37711  11.375  20.267  26.248 -0.1468  0.0097  0.0763
94659W        W37712   8.282  30.903  21.188  0.3987  0.0442 -0.2836
94660W        W37713   1.302  14.166  22.045 -0.1079  0.3122  0.3065
94661W        W37714  25.761   5.472  28.534  0.4212  0.1323 -0.1769
94662W        W37715  18.835   6.632  23.322 -0.1615  0.1514 -0.0354
94663W        W37716  31.494  20.555  24.011  0.2170  0.1843  0.3207
94664W        W37717  26.918  23.115  20.298 -0.1581  0.1456  0.3429
94665W        W37718  23.098  15.700  25.118  0.3281  0.0551  0.0776
94666W        W37719  33.803  17.206  18.439 -0.1006  0.2817  0.0937
94667W        W37720   8.698  16.975  25.608 -0.2800 -0.0090  0.0452
94668W        W37721  18.393  16.847  14.323 -0.3467 -0.2250  0.1946
94669W        W37722  10.218  13.863  17.118 -0.0752 -0.1020  0.1337
94670W        W37723  13.669  31.427  18.413  0.2105 -0.0520  0.0730
94671W        W37724  27.656   0.568  26.750  0.0943 -0.2043  0.0087
94672W        W37725  10.756  23.795  24.063  0.1875  0.3472 -0.0552
94673W        W37726  28.675  32.097  18.362  0.0851 -0.0698  0.1556
94674W        W37727  20.141  34.255  15.135 -0.0757  0.0071 -0.0076
94675W        W37728   0.058   0.409  20.858  0.1402  0.0096 -0.1978
94676W        W37729  16.921  34.596  17.504 -0.2113 -0.1367 -0.0249
94677W        W37730   0.772  12.605   2.408 -0.0809  0.5409 -0.0472
94678W        W37731  25.011  14.680  24.458 -0.1714 -0.2304 -0.0205
94679W        W37732  15.543  21.824   6.263 -0.2362  0.0865  0.1503
94680W        W37733  33.101  28.070  21.627  0.3882 -0.1203  0.0800
94681W        W37734  20.544  28.520  25.505  0.1257  0.0603  0.1957
94682W        W37735  10.161  31.199  16.746  0.1494 -0.4644  0.0191
94683W        W37736  18.315  21.467  14.106 -0.0268 -0.0140 -0.2085
94684W        W37737  24.390  26.991  24.387 -0.2878 -0.0500  0.0314
94685W        W37738  15.932  26.666  23.139 -0.0179 -0.0643  0.0299
94686W        W37739  19.092  26.207  15.158 -0.1410  0.2018 -0.0558
94687W        W37740  15.915  23.424  24.445 -0.2603  0.2160 -0.0790
94688W        W37741   7.596   5.233  16.801  0.3080  0.0436 -0.0515
94689W        W37742  17.777  23.203  23.238 -0.0859  0.0681 -0.1031
94690W        W37743  31.941  29.366  18.687 -0.1337  0.2916  0.5062
94691W        W37744  24.797  26.349  22.710 -0.0249  0.0880 -0.1357
94692W        W37745  24.316  18.813   3.463 -0.2962 -0.1335  0.0952
94693W        W37746  14.942  26.743   0.749 -0.0129 -0.0873  0.0454
94694W        W37747  14.862  25.015  27.305 -0.2236 -0.0844  0.1232
94695W        W37748  18.039  33.774  17.549  0.2990  0.0200 -0.2768
94696W        W37749  17.560   7.245  15.745  0.0116  0.3328  0.2751
94697W        W37750   5.169   2.303  23.379 -0.1249 -0.0178  0.1787
94698W        W37751  17.585  26.195  26.761  0.2290  0.0399  0.4628
94699W        W37752  23.937  30.683  10.582  0.1668  0.0372 -0.1401
94700W        W37753  28.507  21.509  18.139 -0.0741 -0.0827 -0.4087
94701W        W37754   7.375  10.594  18.721  0.1549 -0.2795  0.0228
94702W        W37755  14.083  29.805  15.217  0.0575  0.4802 -0.1054
94703W        W37756   9.959  31.044  19.274  0.0936  0.0758 -0.1355
94704W        W37757   5.594  16.894  20.934  0.0825 -0.1399  0.2179
94705W        W37758  18.736  24.365   0.775  0.3313 -0.0438 -0.1068
94706W        W37759   3.936  25.143  23.289 -0.1095  0.0477  0.2643
94707W        W37760  17.619   1.474   4.535  0.0554  0.3475 -0.1136
94708W        W37761  28.463   2.900  21.637  0.1557 -0.0426  0.1848
94709W        W37762   1.372  28.654   1.676  0.1230 -0.1475 -0.1693
94710W        W37763  16.151  29.787   2.024  0.1187 -0.0046  0.3469
94711W        W37764  23.224  14.027   1.129 -0.4010 -0.1380  0.0031
94712W        W37765  16.490  12.055  29.177  0.2106  0.0680  0.0914
94713W        W37766   4.315  15.519  24.048 -0.0378 -0.0369  0.1958
94714W        W37767  27.311   0.519  17.003  0.0273 -0.2535  0.0500
94715W        W37768   5.433   9.163  15.019 -0.4167 -0.0403  0.0197
94716W        W37769  13.622   3.629  25.077  0.2269 -0.1065  0.1464
94717W        W37770   1.500   9.906  27.986 -0.1925  0.1182 -0.0504
94718W        W37771  11.764  27.445  29.112  0.2430 -0.2406  0.3537
94719W        W37772  27.736  24.677  20.707  0.0802 -0.0583  0.0098
94720W        W37773  21.950   0.182  14.673  0.2354 -0.1007  0.0084
94721W        W37774  15.553  17.742  14.331 -0.1543  0.0985 -0.0377
94722W        W37775  27.392  29.579  27.560  0.0137 -0.0495 -0.1213
94723W        W37776  11.139  34.536   0.733  0.0678 -0.2464  0.3156
94724W        W37777  20.526  26.443  27.075 -0.1975 -0.2457  0.1230
94725W        W37778  31.038  28.290  14.226 -0.1096 -0.1122  0.1413
94726W        W37779  18.440  30.407  21.005  0.1939  0.2616 -0.2399
94727W        W37780  23.437  31.607  20.238  0.1553 -0.0569 -0.2622
94728W        W37781  25.384  24.599  22.379  0.2991  0.0262  0.1768
94729W        W37782  10.400  23.237  20.478 -0.1500  0.1478  0.0185
94730W        W37783  10.447  20.506  25.737  0.0772  0.0011  0.0157
94731W        W37784  20.567   6.692  17.108 -0.0318  0.0224  0.3143
94732W        W37785  12.777   2.766  15.789  0.0591 -0.1085  0.0992
94733W        W37786  22.999  22.159  16.981  0.3804  0.0498  0.2372
94734W        W37787  11.642   1.135  14.797  0.0461  0.0106 -0.0100
94735W        W37788  12.365  29.431  13.638 -0.1848 -0.0275  0.6222
94736W        W37789  31.998   8.327  16.676  0.2030 -0.0703 -0.0411
94737W        W37790  19.965  34.459  18.513  0.0858 -0.0853 -0.0062
94738W        W37791   4.954  33.289  15.005 -0.2479  0.0644 -0.1476
94739W        W37792  13.781  20.352   0.353  0.2253  0.0238  0.2731
94740W        W37793  27.078  21.520   1.698 -0.4507 -0.2992 -0.2050
94741W        W37794  23.239  17.109  20.431  0.2408 -0.1507 -0.2165
94742W        W37795  11.229  20.619  24.938 -0.1174  0.1558 -0.1673
94743W        W37796  29.456   6.998  20.068  0.2064  0.1181  0.0285
94744W        W37797  19.027  24.666  15.865 -0.3492  0.1629 -0.1462
94745W        W37798   3.412  22.635  17.088 -0.0411  0.0611 -0.1652
94746W        W37799  20.604  25.656  20.515 -0.2025 -0.3454 -0.3365
94747W        W37800  22.839  29.231  24.026 -0.0791 -0.1760 -0.0346
94748W        W37801  15.562  24.457  25.851  0.1178  0.2788  0.1208
94749W        W37802   8.544  14.289  15.175 -0.0551 -0.0939  0.1274
94750W        W37803  22.895  28.530  24.551 -0.4508  0.0373  0.1300
94751W        W37804  34.410  28.455  25.983  0.0869 -0.2009  0.2134
94752W        W37805  31.016  10.790  25.454  0.1088 -0.2220 -0.4688
94753W        W37806   5.915  12.489   1.601 -0.3041  0.0085  0.1959
94754W        W37807  13.364  24.488  21.343  0.2723  0.1558  0.1370
94755W        W37808  24.955  28.410  22.851  0.0978 -0.2916 -0.0504
94756W        W37809   9.949   2.533  16.632  0.2095 -0.1288 -0.0778
94757W        W37810  27.041  33.461  16.886 -0.1737  0.1087 -0.0557
94758W        W37811   4.172   1.067  14.499  0.0972  0.2568 -0.1834
94759W        W37812  15.079  14.647  22.130 -0.0122 -0.0903 -0.1513
94760W        W37813   1.784  29.191   0.953 -0.0106 -0.2169  0.0435
94761W        W37814  11.355  15.114  20.781  0.2626 -0.4860  0.0807
94762W        W37815  17.280  22.494  19.317 -0.0259  0.1998  0.1391
94763W        W37816  25.360  18.673  15.469 -0.0067 -0.0931 -0.0086
94764W        W37817  19.479   0.483  17.819 -0.1040  0.0236 -0.0157
94765W        W37818  24.520  32.161  25.847  0.0642  0.2580  0.1734
94766W        W37819   9.795  30.036   3.945 -0.0928 -0.0295 -0.0320
94767W        W37820   9.202  11.075  28.879 -0.2464 -0.1377 -0.1906
94768W        W37821  26.375  28.721   4.842 -0.3352  0.2437 -0.0153
94769W        W37822  32.467  29.963  17.033 -0.1924  0.1486  0.2623
94770W        W37823   3.252  19.790  26.236 -0.0409 -0.1775 -0.1730
94771W        W37824  29.555  10.410  17.822 -0.1592 -0.2323  0.0651
94772W        W37825  23.682  21.364  22.224 -0.0400 -0.0586  0.1232
94773W        W37826  19.601  26.746   6.603  0.3941  0.2228 -0.1380
94774W        W37827   7.764  22.279  22.724 -0.2837  0.3344 -0.2241
94775W        W37828  15.509  14.055  26.118  0.1123  0.3472  0.0002
94776W        W37829  19.656  33.401   3.276  0.1350  0.2816 -0.0917
94777W        W37830  24.811  21.933   1.171  0.1847 -0.1633 -0.1926
94778W        W37831  29.124  19.198  25.613 -0.2615 -0.2841 -0.0414
94779W        W37832   7.304  15.440  13.869 -0.0731 -0.3018  0.2039
94780W        W37833  27.906  16.395  22.468  0.3741 -0.0691 -0.1347
94781W        W37834  12.742  34.445  24.114 -0.0137  0.2344  0.2947
94782W        W37835   2.593  27.452  21.453  0.2635 -0.2079 -0.2316
94783W        W37836  27.833  27.142  24.570  0.2036 -0.0493 -0.0544
94784W        W37837  16.787  23.039  24.554 -0.0451 -0.4162 -0.1451
94785W        W37838   6.938  22.715  23.814  0.1976  0.1701  0.1271
94786W        W37839  17.144   5.428  18.526  0.3342  0.1282 -0.4601
94787W        W37840  12.098  20.659  25.264  0.1454  0.0690  0.1130
94788W        W37841  16.263  22.895  20.767 -0.0218  0.0870 -0.0821
94789W        W37842  23.911  17.306  21.884 -0.2548 -0.0411 -0.0847
94790W        W37843  17.983   0.201   2.312  0.1907 -0.2320  0.0755
94791W        W37844  27.207   0.266  23.753  0.0194 -0.1536 -0.0617
94792W        W37845  15.290  17.813   0.961  0.0039  0.1197 -0.2005
94793W        W37846  23.430  24.136  15.240 -0.0576  0.0561  0.0242
94794W        W37847  13.632  18.571   0.174  0.0236  0.1000 -0.3381
94795W        W37848  12.963  29.234  18.057  0.0051 -0.0468 -0.1927
94796W        W37849   1.187  15.109  14.231  0.0477 -0.2126 -0.1488
94797W        W37850  26.807   2.187  26.546 -0.2839 -0.0875 -0.2412
94798W        W37851  18.724  19.555  27.303  0.1383  0.0104 -0.2626
94799W        W37852   6.973  32.473  29.168  0.1420  0.0854 -0.1999
94800W        W37853  24.726  30.879  15.410  0.1767 -0.1430  0.2870
94801W        W37854  31.733  20.286  19.756  0.0062 -0.0892  0.1534
94802W        W37855  15.609  30.653  19.712  0.1196  0.1799 -0.3448
94803W        W37856  31.837  22.073  15.193  0.0934 -0.0961  0.0699
94804W        W37857  22.323  26.804  24.271  0.2358 -0.2490  0.2062
94805W        W37858  13.190  22.559  20.382 -0.0143  0.0911  0.3603
94806W        W37859  24.595  26.004   7.031 -0.1491 -0.2762 -0.0464
94807W        W37860   1.999  24.663  20.248 -0.1797  0.3489 -0.0961
94808W        W37861  28.224  30.569  24.792  0.0438  0.0352  0.0521
94809W        W37862  17.996  34.165  28.034  0.1672 -0.0361 -0.0721
94810W        W37863  25.653  30.771  22.883 -0.1900 -0.0383  0.1458
94811W        W37864  12.097  23.342  16.610  0.1133  0.1183 -0.1609
94812W        W37865   9.434  30.112   5.791 -0.2836 -0.0089 -0.0686
94813W        W37866  20.182   0.575  18.420 -0.1791 -0.1130 -0.1319
94814W        W37867  21.062  25.584  17.208 -0.0539 -0.0476 -0.2456
94815W        W37868  12.320  30.923  21.189 -0.0410  0.3289  0.0420
94816W        W37869  31.098  28.283  24.128 -0.1432  0.5222  0.1641
94817W        W37870  19.903  34.345   1.460 -0.1188 -0.0153 -0.1967
94818W        W37871  23.611  22.812  27.460  0.1491  0.0858  0.0131
94819W        W37872  14.583  24.286  16.907  0.3821 -0.0153 -0.1659
94820W        W37873  11.307  23.233   0.294  0.2882 -0.1444  0.0403
94821W        W37874   0.265   1.213  23.840  0.0365 -0.0180  0.2081
94822W        W37875  20.756  15.230   5.339  0.0876 -0.0018 -0.0879
94823W        W37876  19.134  25.990  16.180 -0.1043  0.2657  0.0336
94824W        W37877  10.319  19.463   0.771 -0.2441 -0.4475 -0.0115
94825W        W37878  24.155   8.527  17.461 -0.2073  0.0420  0.0818
94826W        W37879  10.621  28.984  25.685  0.1805  0.0213 -0.1548
94827W        W37880  26.860  32.105  23.715 -0.3125 -0.2897 -0.1862
94828W        W37881  13.377   0.638  16.814  0.1148 -0.0431  0.0170
94829W        W37882  21.888  19.139  25.965 -0.2562  0.0096  0.0672
94830W        W37883  25.452   7.891  15.930  0.1997  0.3341 -0.0272
94831W        W37884  18.773  23.797  23.503 -0.2559  0.0714 -0.3201
94832W        W37885  29.772  30.090  24.083  0.3726 -0.0908 -0.0369
94833W        W37886  17.568  29.899  23.513  0.1788 -0.0643 -0.0350
94834W        W37887  31.117   2.141  19.598 -0.0734  0.1428 -0.2665
94835W        W37888  14.386  29.549  17.310 -0.3495  0.0543 -0.1157
94836W        W37889   8.011  22.256  15.921 -0.0596  0.2401  0.0992
94837W        W37890  12.208  11.938  18.021 -0.0719  0.2949  0.1126
94838W        W37891  17.493  24.355   1.171  0.2591 -0.1641  0.0039
94839W        W37892  12.234  30.513  19.659  0.0381  0.1986  0.0844
94840W        W37893  14.792  19.353  14.389  0.0493  0.0132  0.2265
94841W        W37894  13.245  25.983  15.820 -0.2306  0.0593 -0.0061
94842W        W37895  11.427  21.536  15.803  0.1388 -0.2909  0.0730
94843W        W37896  32.467  19.915  19.573 -0.0461  0.1940  0.1630
94844W        W37897  17.684  26.208  17.080  0.4769  0.1564 -0.0841
94845W        W37898  29.229  17.862  15.313 -0.1867  0.0025 -0.2309
94846W        W37899  18.786  14.116  20.672 -0.1679 -0.0225  0.0270
94847W        W37900   2.690  10.380  20.979  0.0134  0.0626  0.0141
94848W        W37901  14.337  15.977  25.104  0.2180 -0.0844  0.0593
94849W        W37902  19.265  27.193  16.868 -0.2299  0.2144 -0.0372
94850W        W37903  27.715  20.076  25.885  0.0305 -0.1865 -0.0938
94851W        W37904  11.476   3.034  20.064  0.0701 -0.3091  0.0145
94852W        W37905  23.177   0.980  24.984  0.1698 -0.2383  0.0315
94853W        W37906  25.186  15.406  19.666  0.0170  0.2635 -0.0006
94854W        W37907   1.314  34.449  18.634 -0.0563  0.6028 -0.2294
94855W        W37908  15.776  29.732  15.835 -0.2921  0.1127  0.0665
94856W        W37909  28.423  22.916  21.121  0.2895 -0.0054  0.1204
94857W        W37910  21.846   3.611  21.093  0.3271 -0.1186 -0.3319
94858W        W37911  31.395   0.420   5.069  0.0723 -0.0175 -0.3237
94859W        W37912  26.372  11.578   6.390 -0.0187 -0.0092 -0.0046
94860W        W37913  27.655  30.892  21.961 -0.0296  0.0646 -0.1231
94861W        W37914  12.615  19.734  26.169  0.2046 -0.2160 -0.0074
94862W        W37915  19.474  23.438  14.557  0.0392  0.0690 -0.3594
94863W        W37916  26.007  26.941  17.354  0.1530  0.0477 -0.0355
94864W        W37917  33.763  21.099  17.231 -0.0623 -0.0089  0.1679
94865W        W37918  17.604  29.095  18.243 -0.1513 -0.3229 -0.2029
94866W        W37919   3.362  24.467   9.600  0.1072  0.0037 -0.0231
94867W        W37920  31.241   1.560  21.793 -0.0503  0.0964 -0.2153
94868W        W37921   2.868  32.686  27.897  0.3156 -0.2541 -0.0438
94869W        W37922  11.393  24.243   0.382 -0.1681  0.2407 -0.0155
94870W        W37923   7.976   2.621   0.394  0.0409 -0.1524  0.0808
94871W        W37924   6.293  14.507  24.969 -0.1000 -0.1018 -0.0045
94872W        W37925   0.003  33.959  15.383  0.1669  0.0026  0.1402
94873W        W37926  21.969   9.623  27.627 -0.1477 -0.0841  0.0436
94874W        W37927  24.323   9.307  27.962  0.0786 -0.1070 -0.1044
94875W        W37928  34.672  31.839   0.134 -0.2923 -0.1844 -0.1918
94876W        W37929  30.815  15.417  29.123  0.1434 -0.1750  0.4057
94877W        W37930  13.275   2.713   9.158 -0.2129  0.1332  0.0529
94878W        W37931  29.421   7.674  18.886  0.0951 -0.0831  0.2633
94879W        W37932  25.233   3.603  26.364  0.3983 -0.0466 -0.0038
94880W        W37933  32.495  29.749  19.337 -0.0179  0.0884 -0.0997
94881W        W37934  12.437  16.781  25.713 -0.0483 -0.2218  0.1242
94882W        W37935  14.529  24.298  15.850 -0.0814 -0.1357 -0.0631
94883W        W37936  16.037  21.681  28.361 -0.1415 -0.0282  0.0858
94884W        W37937  27.746  23.010  22.290 -0.3999  0.0097 -0.2492
94885W        W37938  20.523  17.745   7.658 -0.0444  0.0357  0.3404
94886W        W37939  31.106  19.976  14.711 -0.2354 -0.1457  0.0238
94887W        W37940  24.543  21.403  24.358  0.3400 -0.2391  0.0004
94888W        W37941  21.994  27.280  27.895  0.1700  0.0490  0.2920
94889W        W37942  26.978  33.787  28.575 -0.1494  0.0702 -0.0349
94890W        W37943  27.633  13.702  20.582  0.0946 -0.0610 -0.1597
94891W        W37944  32.460  22.456  28.763 -0.1946 -0.0944  0.0788
94892W        W37945   7.606  13.031  22.967 -0.1901 -0.0741  0.6243
94893W        W37946  20.892  23.680  26.008 -0.0363  0.0230  0.2489
94894W        W37947  10.217  21.910   3.770 -0.2043  0.5585 -0.3326
94895W        W37948  21.752  34.147  15.936  0.1327 -0.2387 -0.0631
94896W        W37949  26.149  15.050  14.379 -0.0922 -0.0789 -0.3450
94897W        W37950  21.829  31.856  22.644  0.0133 -0.0648  0.1928
94898W        W37951  14.321  28.936  21.095 -0.1615  0.2650  0.2019
94899W        W37952  31.953  29.025  20.815 -0.0327  0.1735  0.0762
94900W        W37953   8.599   3.679  22.889 -0.1825 -0.0730  0.3900
94901W        W37954  15.787  27.033  26.311  0.1581 -0.0566  0.1676
94902W        W37955  29.732  27.655  18.495 -0.0012  0.0522  0.2119
94903W        W37956  19.531   6.239  17.128 -0.3613  0.3402  0.0426
94904W        W37957  33.938   6.987  21.439 -0.1375 -0.0948 -0.0480
94905W        W37958  23.138  24.890  18.085 -0.1077 -0.0161 -0.0127
94906W        W37959  14.767  23.064   1.072  0.2794  0.0738 -0.1250
94907W        W37960  25.489  18.367  27.192  0.3129  0.0552  0.1940
94908W        W37961  21.268  27.172  23.896 -0.1625 -0.2047  0.2200
94909W        W37962  11.089  30.385  17.502  0.1857  0.1044 -0.0050
94910W        W37963  12.887  15.568  20.831  0.0491  0.1370  0.0175
94911W        W37964  25.481  30.319   2.869  0.2379  0.1106 -0.1941
94912W        W37965  32.716  22.382  19.432  0.1830  0.1142 -0.1473
94913W        W37966   7.487  27.701  14.872  0.0071  0.0319  0.0038
94914W        W37967  13.316  30.636  25.836 -0.0350  0.0423 -0.1014
94915W        W37968  34.225  26.545   2.443 -0.3478 -0.0989  0.1561
94916W        W37969  19.869  31.243  15.080 -0.1077  0.2536  0.1370
94917W        W37970  14.753  26.727  15.573  0.0041 -0.2148  0.2690
94918W        W37971  11.553   5.727   0.402  0.2561  0.1665 -0.3096
94919W        W37972   6.933  10.206   8.540 -0.0717 -0.0730 -0.0058
94920W        W37973  24.231   3.959  26.211 -0.0704  0.0465 -0.1908
94921W        W37974  34.572   7.770  14.863 -0.1991 -0.1465  0.3980
94922W        W37975   7.687  31.972  23.333  0.0196  0.1695  0.1193
94923W        W37976  28.363   6.021   3.572  0.1018 -0.1815  0.2120
94924W        W37977  15.229  26.332   6.295  0.0798 -0.3098  0.0309
94925W        W37978  15.040  15.482  27.576  0.1085 -0.2807 -0.0530
94926W        W37979  20.805  29.056  27.892  0.1229  0.0072 -0.1004
94927W        W37980  26.565  27.208  17.439  0.1125 -0.2755 -0.2542
94928W        W37981  10.751   4.434  17.518  0.2564  0.2599 -0.0162
94929W        W37982  15.938  24.149  19.952  0.1180 -0.0250 -0.1893
94930W        W37983  16.043  21.417  17.090  0.3644  0.0876  0.0120
94931W        W37984  21.213  20.391  14.664  0.1313  0.1924 -0.4345
94932W        W37985  23.555  25.391  22.176 -0.0967 -0.1217 -0.2247
94933W        W37986  25.851  22.986   0.544 -0.2217  0.3364 -0.0214
94934W        W37987   3.154  22.613  23.597 -0.1088  0.2810  0.1494
94935W        W37988  12.476  28.421   4.417  0.1997  0.3093 -0.0966
94936W        W37989   6.770  32.578  18.649 -0.0623  0.2464  0.2560
94937W        W37990  27.151  17.242  19.014 -0.1101  0.0301  0.0821
94938W        W37991   0.579  34.505  17.841  0.0486 -0.2321 -0.0200
94939W        W37992  27.694  20.087  15.813 -0.0536 -0.1685  0.2803
94940W        W37993  19.101  19.560  14.611 -0.1159  0.1209  0.2506
94941W        W37994  30.024  18.335   5.797  0.1789 -0.3227 -0.1311
94942W        W37995  26.119   1.484  19.286 -0.0219 -0.0799 -0.0486
94943W        W37996  34.067  16.453  15.364 -0.1482 -0.1803 -0.2139
94944W        W37997  14.199  19.272  15.333  0.1074 -0.4250 -0.0936
94945W        W37998  28.019  22.109   9.221 -0.2630  0.1376  0.3492
94946W        W37999  18.850  24.563  23.704  0.1611 -0.0132  0.0124
94947W        W38000   0.758   0.734  28.304 -0.1053  0.3241 -0.0825
94948W        W38001  15.573  33.609  10.195  0.3320  0.0918  0.0866
94949W        W38002   3.625  28.611  15.191 -0.0837  0.0843 -0.0393
94950W        W38003   3.601  29.026  28.815 -0.0711  0.0544  0.3638
94951W        W38004  20.612  11.140   6.371  0.1417 -0.2386  0.2125
94952W        W38005  25.417  13.522   8.448  0.4761 -0.0367 -0.1274
94953W        W38006  16.801  10.935  18.759  0.1488 -0.1174  0.0286
94954W        W38007   0.588  19.193  24.097 -0.2204  0.2926  0.0246
94955W        W38008  16.244  32.801  21.948 -0.1620 -0.4400 -0.3977
94956W        W38009  22.847  22.427   3.750 -0.1837  0.0192 -0.4300
94957W        W38010   9.653  28.393   1.964 -0.1830 -0.1064  0.2488
94958W        W38011  16.120   2.818  15.568  0.2553 -0.3378 -0.2493
94959W        W38012  10.753  21.987  14.332  0.0795 -0.2421 -0.1533
94960W        W38013   8.490  22.355  20.829 -0.3513  0.4748 -0.0822
94961W        W38014  18.867  21.952   0.858  0.0242  0.4307  0.3066
94962W        W38015  12.226  10.558  18.411 -0.0083  0.1698  0.1826
94963W        W38016  19.168  16.697   3.262  0.1402  0.0430 -0.0902
94964W        W38017  25.062  14.536  20.118 -0.0565  0.1323 -0.2395
94965W        W38018  25.535  25.212  26.662 -0.1357 -0.2257  0.1018
94966W        W38019  15.693   0.881  24.960 -0.3195  0.3317 -0.4407
94967W        W38020  28.244  29.272   5.904  0.3533  0.0013 -0.3055
94968W        W38021  18.188  21.195   0.793 -0.1573  0.2188 -0.3714
94969W        W38022  15.700  28.619   9.480  0.0320  0.1426  0.1065
94970W        W38023  19.892  28.832  22.144  0.0841 -0.3298 -0.2370
94971W        W38024   9.822  15.730   2.362  0.0829 -0.0903 -0.0166
94972W        W38025  16.256  20.969  16.320  0.1921  0.1079  0.1307
94973W        W38026   0.984   1.024  15.138 -0.0619 -0.3086  0.0423
94974W        W38027   2.646  27.585   7.744 -0.2719 -0.0803 -0.3443
94975W        W38028  25.869   0.133   0.605  0.1565  0.2290  0.1100
94976W        W38029  24.752  11.081  23.361 -0.2334 -0.0356 -0.1292
94977W        W38030  21.899  23.842  26.309  0.1665 -0.1845 -0.1568
94978W        W38031  16.989   3.209  22.812 -0.1990  0.0560  0.3350
94979W        W38032   6.241  32.083  22.823 -0.0654  0.0664  0.0933
94980W        W38033  19.956  28.825  17.905  0.1549 -0.2993  0.0307
94981W        W38034   5.127  30.759  13.518 -0.0029  0.0111  0.2135
94982W        W38035  32.294  31.886  13.855 -0.1566 -0.2228  0.2149
94983W        W38036  17.023  23.260  20.320  0.0305 -0.4340 -0.0074
94984W        W38037  25.753  14.892  23.872  0.0258 -0.1166  0.1316
94985W        W38038  24.053  11.386  14.063  0.5999  0.0206  0.1085
94986W        W38039  11.887   6.777   4.423 -0.0175  0.0101  0.0452
94987W        W38040  17.100  30.973  22.843  0.2825  0.1254  0.3373
94988W        W38041  14.002  26.626  21.702  0.0253 -0.0224 -0.5087
94989W        W38042  14.536  26.125  14.401  0.1308 -0.3010 -0.4662
94990W        W38043  28.508  22.976   0.686  0.0345  0.2763  0.0071
94991W        W38044   5.930  29.760  15.232  0.2565  0.1323  0.1242
94992W        W38045  21.833  19.543  29.107 -0.0762 -0.0597  0.0260
94993W        W38046  15.589  29.486  16.266 -0.2264  0.0994 -0.4184
94994W        W38047   7.960  22.415  20.738 -0.2673 -0.0399  0.1659
94995W        W38048  14.410  11.926  21.620  0.1600 -0.2440  0.2040
94996W        W38049  22.410  24.748  17.460 -0.0360 -0.0976 -0.2303
94997W        W38050  23.456  16.103  18.998 -0.2957  0.2200  0.0996
94998W        W38051  32.022  10.847  15.912  0.1323  0.3595  0.3251
94999W        W38052   2.357  11.525   5.912 -0.5336  0.0010  0.3203
95000W        W38053  26.093  29.012   6.532  0.2262 -0.1100 -0.3892
95001W        W38054   6.181  33.557  15.986 -0.0068  0.3918  0.0033
95002W        W38055  27.340  29.493   9.797  0.2599  0.1112 -0.0590
95003W        W38056   1.271  11.522  26.840  0.0342  0.2470  0.0616
95004W        W38057   3.602  24.995  25.245 -0.0103  0.1368 -0.6099
95005W        W38058  25.287  26.422   2.551 -0.1435 -0.0607  0.1534
95006W        W38059  25.985  29.952   1.780  0.1659 -0.0430  0.1787
95007W        W38060  18.435  23.066   4.744  0.1349 -0.1813 -0.1364
95008W        W38061  26.692   6.147   2.159  0.1314  0.2072 -0.2214
95009W        W38062  31.433  16.095  15.912 -0.3822 -0.1739 -0.0532
95010W        W38063  18.812  18.279  22.561 -0.0544  0.3318  0.3447
95011W        W38064  31.015  23.081  24.695  0.0608  0.1952  0.2336
95012W        W38065  24.520  31.931   0.345  0.1655  0.0970  0.1284
95013W        W38066  14.432  30.055   2.347  0.2425  0.1612 -0.0329
95014W        W38067  10.281  34.521  25.474  0.0335  0.2476  0.1980
95015W        W38068  14.846  20.310   3.098 -0.3855  0.1190 -0.4257
95016W        W38069   5.903  27.617  18.814 -0.2499 -0.0164  0.0721
95017W        W38070  21.253  26.664  15.411 -0.1932 -0.2980 -0.1695
95018W        W38071   1.173   3.235   1.320 -0.0666  0.2061  0.0348
95019W        W38072  20.910  23.746  14.361 -0.1698 -0.2243 -0.2694
95020W        W38073   3.150  27.234  15.762 -0.0790 -0.0170  0.2811
95021W        W38074  11.515  18.669  18.647  0.2518 -0.0832 -0.5013
95022W        W38075  26.194  28.888   3.555  0.0840 -0.1176 -0.3622
95023W        W38076  26.124   8.646   7.524 -0.0122  0.0121  0.2281
95024W        W38077  13.411  30.103   1.185  0.1106  0.1354  0.5053
95025W        W38078   9.507  18.720  19.058  0.0700 -0.4093 -0.2715
95026W        W38079   5.456  22.371  21.431  0.1924 -0.1973  0.1314
95027W        W38080  22.515  28.674   0.317 -0.1613 -0.1165  0.1433
95028W        W38081   7.580  22.726  21.180  0.0310  0.3046  0.1253
95029W        W38082  13.097  30.386  24.413 -0.1120 -0.0513 -0.2160
95030W        W38083   7.584  33.256  16.093 -0.1945  0.1143  0.2040
95031W        W38084   8.003  30.398  28.820  0.0261  0.1953  0.1666
95032W        W38085   1.553   5.849   8.147  0.0595 -0.2076 -0.0033
95033W        W38086   1.145  29.476  17.518 -0.1495  0.1427 -0.0765
95034W        W38087  17.103  29.750  23.204 -0.3515  0.1053  0.1569
95035W        W38088   5.839  21.121  19.527  0.3967 -0.4641  0.1303
95036W        W38089  27.062  12.839  28.321  0.1338  0.2405  0.1603
95037W        W38090   8.278   3.152  21.091  0.2243 -0.0205  0.2052
95038W        W38091  21.030   7.321   2.516 -0.0648  0.0772  0.1155
95039W        W38092  22.695  21.805  21.795 -0.3233 -0.0872 -0.0769
95040W        W38093  24.028  18.934  22.636  0.1630  0.0662 -0.4825
95041W        W38094  23.062  25.196  15.924 -0.0252  0.0881 -0.3828
95042W        W38095  29.276  25.491  26.291  0.2188 -0.2806 -0.0591
95043W        W38096  23.731  27.727  18.585  0.1014 -0.0625  0.1204
95044W        W38097  18.998  18.142   9.134  0.0275 -0.1149 -0.1556
95045W        W38098  20.303  27.802  20.334  0.1873  0.3033 -0.0963
95046W        W38099   0.198  16.555  24.728  0.0040  0.1200  0.1089
95047W        W38100  26.836  22.053  15.922 -0.1046  0.2061  0.3809
95048W        W38101  19.815  23.527   4.558  0.1686 -0.3653  0.0745
95049W        W38102   9.357   5.824  23.851 -0.0207 -0.1265 -0.1312
95050W        W38103  25.915  19.699  23.430 -0.0195 -0.2034 -0.0183
95051W        W38104  18.987   0.853  20.925  0.0107  0.0089 -0.1489
95052W        W38105  25.424  29.572   4.369 -0.1318 -0.2032  0.0013
95053W        W38106  33.168  22.380  26.652  0.1928 -0.1795 -0.0964
95054W        W38107   2.977  25.436   2.819  0.0721 -0.1212  0.2917
95055W        W38108  21.335  32.628  16.080 -0.2544 -0.1367 -0.1202
95056W        W38109  18.559  27.448  22.672 -0.2819  0.0907 -0.0251
95057W        W38110  25.953   8.359   2.090  0.2006 -0.1564  0.0329
95058W        W38111   5.169  22.682  21.774 -0.0002 -0.2138  0.1550
95059W        W38112   8.326  30.717  14.819  0.2026  0.0348 -0.1622
95060W        W38113  26.308  31.776  20.765 -0.0779 -0.1813  0.0484
95061W        W38114  21.459  31.225   5.172  0.2825 -0.1867  0.0316
95062W        W38115  32.174  28.871  14.399  0.1916 -0.3788 -0.0518
95063W        W38116  11.231  26.907   9.870  0.2517 -0.1940 -0.2473
95064W        W38117  29.002   7.873  17.927 -0.2172 -0.3427  0.1776
95065W        W38118  30.961  32.495   3.012 -0.1540  0.0532  0.1577
95066W        W38119  24.622   8.043   6.164  0.0883 -0.1645  0.2531
95067W        W38120  16.955  25.754  19.741 -0.3801  0.4635 -0.0471
95068W        W38121  33.261   5.718  28.326  0.2320  0.1298 -0.1888
95069W        W38122  27.202  27.147   4.080 -0.2168 -0.1632  0.3296
95070W        W38123  13.027   0.629  27.002  0.1058  0.4578  0.0878
95071W        W38124  23.021  21.672  23.458 -0.3655  0.2524 -0.3970
95072W        W38125   8.895  31.580  23.656  0.0669 -0.1285  0.2879
95073W        W38126   0.895  23.960  19.044 -0.1352 -0.0710 -0.0746
95074W        W38127  33.750  29.391  20.554  0.0113 -0.1176  0.0853
95075W        W38128  32.084  25.689  26.056  0.3514 -0.0583 -0.2769
95076W        W38129  26.778  16.273  20.159  0.2180 -0.1583 -0.0206
95077W        W38130  13.828  19.829  21.765 -0.0139 -0.2245  0.0725
95078W        W38131  26.484   7.667  15.902  0.0938 -0.0846 -0.2132
95079W        W38132  15.168   3.044  18.957  0.1651  0.2735 -0.1474
95080W        W38133  28.035  26.427  25.292  0.0010  0.1131  0.3192
95081W        W38134   6.645   5.581  26.545 -0.0527 -0.1690 -0.3415
95082W        W38135  19.074  30.013   2.931  0.2299 -0.0963  0.0193
95083W        W38136  18.991  32.223   1.947  0.1564 -0.0103 -0.0534
95084W        W38137   9.827  21.016  16.136  0.1079 -0.0899 -0.1747
95085W        W38138  27.746  15.620   1.602 -0.0881 -0.0495 -0.2335
95086W        W38139  27.388  17.175  14.329 -0.3278  0.1892 -0.1994
95087W        W38140   6.479   1.753   3.391 -0.0067  0.0132 -0.0932
95088W        W38141  28.808  18.167  19.148 -0.2461 -0.4268  0.1791
95089W        W38142  31.605   0.431  16.474  0.0864 -0.2920  0.4743
95090W        W38143  28.660  21.616   6.564 -0.2648 -0.0408  0.2095
95091W        W38144  24.320  32.066   9.053  0.0434 -0.0868  0.2819
95092W        W38145  19.973  31.335  21.375 -0.1297 -0.0500  0.3480
95093W        W38146  26.458  33.686  16.020  0.2224  0.0193 -0.1652
95094W        W38147   0.191  18.882  16.695  0.1186  0.2533 -0.1668
95095W        W38148  22.105   7.712   8.381 -0.1627 -0.1339 -0.0185
95096W        W38149   5.927  18.674  23.136  0.1430  0.1241 -0.0367
95097W        W38150  12.235  13.887  29.130 -0.0785  0.0384 -0.2096
95098W        W38151  31.972  24.349  18.548 -0.3305  0.0429 -0.1303
95099W        W38152  28.251  24.952  21.981 -0.0172 -0.1523 -0.0051
95100W        W38153   2.276  18.082  15.426  0.3727 -0.1783  0.3012
95101W        W38154   6.564  28.614   3.146 -0.2362  0.1702  0.0287
95102W        W38155   6.998  33.645  24.723 -0.1167 -0.0988 -0.1091
95103W        W38156  31.827  34.444  18.493  0.0188 -0.0158  0.2921
95104W        W38157  22.946  27.883  27.748  0.0905  0.1886  0.2165
95105W        W38158  23.840  20.980   0.100 -0.1325 -0.0147 -0.1747
95106W        W38159  17.078  24.075  23.552  0.3456 -0.0537 -0.3248
95107W        W38160  12.921   5.772  23.889 -0.2638  0.2417  0.0167
95108W        W38161  33.303  11.201  19.140 -0.0941 -0.0195 -0.0803
95109W        W38162  17.735  20.146  29.173  0.1447 -0.4396  0.0030
95110W        W38163   3.855  20.189  20.661 -0.3452 -0.1908 -0.2028
95111W        W38164  24.090  17.958   8.979  0.3647  0.3349  0.2109
95112W        W38165   3.604  31.244  21.970  0.1411  0.2554 -0.1623
95113W        W38166  24.310   1.925   4.566  0.2356  0.1496  0.1921
95114W        W38167   8.636   0.143  25.766 -0.0781  0.1949 -0.1749
95115W        W38168  25.028  24.418   1.299  0.2257 -0.0778 -0.2755
95116W        W38169   5.481  25.380  28.153  0.0231  0.2004  0.0160
95117W        W38170  21.973  33.725  27.500  0.0046  0.1528  0.0318
95118W        W38171  15.453   1.947  21.961 -0.0433  0.2644 -0.3535
95119W        W38172  20.357  26.574  16.275 -0.1336  0.1884 -0.1192
95120W        W38173  28.198  21.459  18.988  0.2356  0.1783  0.0902
95121W        W38174  17.458  32.388  10.201 -0.2446  0.3581  0.2715
95122W        W38175   4.239   6.429   4.053 -0.0119  0.1327 -0.0182
95123W        W38176   0.189   2.471   6.030 -0.0052 -0.0497 -0.0341
95124W        W38177  17.361  25.791  25.466  0.0582 -0.1060 -0.3173
95125W        W38178  23.519  27.084   9.322  0.1960  0.1821 -0.0327
95126W        W38179  34.520  31.605  14.331 -0.0919 -0.0406 -0.0715
95127W        W38180  30.177  17.147  15.862 -0.2079 -0.0512  0.1245
95128W        W38181   5.228   4.865  25.038  0.1454 -0.1483  0.2322
95129W        W38182  12.130  34.160   4.745 -0.0418 -0.2659  0.2185
95130W        W38183  33.080  24.284  20.280  0.5818 -0.2502 -0.3345
95131W        W38184  12.257  17.148   4.387 -0.1393  0.0740 -0.1511
95132W        W38185  23.006  26.988  15.151 -0.1351 -0.3715  0.1053
95133W        W38186  34.596  22.736   5.030  0.2407  0.3118 -0.3344
95134W        W38187  21.056  27.027  24.637  0.0937 -0.0150  0.1167
95135W        W38188  25.347  32.470   0.820 -0.1381  0.2106  0.2597
95136W        W38189  30.926   3.998  13.494 -0.2759  0.2383 -0.1791
95137W        W38190  19.543  22.714  16.199 -0.1327  0.2781  0.0987
95138W        W38191  19.815  10.317  27.890 -0.0853  0.1952  0.0844
95139W        W38192  26.272  23.973  27.984  0.0209 -0.0967 -0.2607
95140W        W38193   8.857   0.131  21.168 -0.1239 -0.0649  0.2017
95141W        W38194   6.154  19.354  16.285 -0.1620  0.0238  0.0601
95142W        W38195  19.153  12.668  28.734 -0.3118  0.1903  0.2567
95143W        W38196  19.909  21.681   0.139 -0.2489 -0.1314 -0.0345
95144W        W38197  29.069  31.718  19.817  0.0612 -0.3721 -0.1159
95145W        W38198  30.851   3.775  26.284  0.2359  0.2844  0.0108
95146W        W38199  33.824  31.860  16.363 -0.2831  0.0636  0.2930
95147W        W38200  31.246   3.807  28.674  0.0197  0.0526  0.1469
95148W        W38201  12.677  15.640  27.931  0.0420  0.0753 -0.0451
95149W        W38202  14.023   3.818  17.736  0.1754 -0.2510 -0.0837
95150W        W38203  16.478  19.354  25.658 -0.0667  0.2608 -0.1503
95151W        W38204  22.745  34.425  27.658 -0.2501  0.0913  0.1220
95152W        W38205  29.940  32.955  18.017 -0.2669 -0.0664  0.0529
95153W        W38206  11.847  26.480   0.565  0.3097  0.0660 -0.2134
95154W        W38207  11.028   9.070  22.823  0.0266  0.2133  0.1250
95155W        W38208   9.257  17.516   9.562 -0.1124  0.0937 -0.1019
95156W        W38209  11.541  19.937  21.709 -0.3178  0.1642 -0.0712
95157W        W38210  29.280   3.771  20.375  0.0650  0.0658  0.2098
95158W        W38211  27.910  27.017  19.154 -0.2593 -0.1579 -0.1072
95159W        W38212   5.180  16.975  28.774 -0.2350  0.0654 -0.1639
95160W        W38213  21.178   7.362  24.732 -0.1200  0.3745 -0.1447
95161W        W38214   6.147  26.741  15.906  0.0447  0.1957  0.1889
95162W        W38215  21.661   0.702  21.056 -0.1826 -0.0249  0.1207
95163W        W38216  30.037   2.993  17.188  0.0503 -0.2647 -0.0687
95164W        W38217  33.610  23.789  28.157 -0.1516 -0.1750  0.2099
95165W        W38218  28.676  23.438  27.890 -0.0975 -0.0650  0.0768
95166W        W38219  28.986  34.125   7.628 -0.1545  0.0273 -0.0658
95167W        W38220  22.307  28.267  27.069  0.1313 -0.1356 -0.0191
95168W        W38221   3.734  13.522  20.740  0.0948 -0.1578 -0.1469
95169W        W38222  20.034  25.375   9.552 -0.4409 -0.0456  0.2075
95170W        W38223  14.482  25.166   8.480 -0.0730  0.0733 -0.0432
95171W        W38224   6.507  24.543  24.211  0.1877 -0.0429 -0.1931
95172W        W38225   9.070  27.033  28.765  0.0101  0.1120 -0.0144
95173W        W38226  10.608  14.901   5.927  0.0846 -0.2974  0.1372
95174W        W38227   5.502  29.141  21.686  0.3494  0.2957  0.1439
95175W        W38228  25.404   3.728  25.792 -0.1039  0.0930 -0.2986
95176W        W38229  25.236  28.061  15.947 -0.3024 -0.2036 -0.0422
95177W        W38230  22.713  20.250  15.942  0.0445 -0.0368 -0.2689
95178W        W38231   5.860  20.016   5.119  0.0744 -0.0559  0.1473
95179W        W38232  10.154  23.784  15.774  0.1505 -0.0235  0.2127
95180W        W38233  29.657   7.252   2.322  0.0022 -0.2705  0.0473
95181W        W38234  10.460  33.718   6.765  0.1249  0.0067  0.1301
95182W        W38235  15.725  12.358  20.429 -0.2491  0.1666  0.2194
95183W        W38236  10.665  30.133   8.187 -0.2541  0.1325 -0.0511
95184W        W38237  10.031  20.152  21.966 -0.3687 -0.0736  0.0851
95185W        W38238  20.499  22.994  10.647  0.1227 -0.2988 -0.0545
95186W        W38239  26.088  11.371   0.839  0.2243 -0.0996  0.0950
95187W        W38240  18.333   5.037  25.474 -0.4475 -0.1522 -0.1128
95188W        W38241  32.244   1.044   0.083  0.0753  0.0350  0.2086
95189W        W38242  24.255  26.655  17.992 -0.1475 -0.0833  0.1129
95190W        W38243  27.537  32.127   1.730  0.2251 -0.0106  0.0168
95191W        W38244  20.374  25.895  16.527 -0.1505 -0.2376  0.2732
95192W        W38245  19.844  33.018  19.916  0.0232  0.0091  0.0341
95193W        W38246   5.384  25.348  20.423 -0.1318 -0.0885  0.0533
95194W        W38247  11.970  23.651   2.165 -0.0727  0.1300  0.1953
95195W        W38248  24.990  20.688  23.129 -0.0236  0.1586 -0.0795
95196W        W38249  16.766  11.240   0.103  0.1778 -0.1902 -0.0313
95197W        W38250  30.337  19.314  27.368 -0.0322 -0.0948 -0.0443
95198W        W38251  23.204  34.677  16.699  0.5028 -0.1623 -0.0116
95199W        W38252   1.200  25.287  15.599 -0.3104 -0.3155  0.4854
95200W        W38253  26.143  14.000   1.936  0.2108 -0.0814  0.1798
95201W        W38254  10.318  27.632  19.910 -0.0038  0.0511 -0.0459
95202W        W38255  27.488  30.252   7.582  0.0716 -0.1168 -0.2309
95203W        W38256   7.477  17.544  18.105  0.1356 -0.3875 -0.1239
95204W        W38257   8.733  25.926  17.839 -0.1259 -0.0478 -0.1203
95205W        W38258  20.378  24.362  26.753 -0.1553  0.1413 -0.0799
95206W        W38259  27.357  16.445  19.341  0.1717 -0.2821 -0.2415
95207W        W38260  11.696  23.972  19.839 -0.0550  0.0377  0.2338
95208W        W38261   4.580  23.059  22.412 -0.0020  0.2986 -0.3090
95209W        W38262  12.315  30.891  24.591 -0.3346 -0.0024  0.2955
95210W        W38263  26.035  26.294  24.646 -0.1735 -0.3197  0.0088
95211W        W38264  13.557  18.828  25.440  0.2796 -0.0136 -0.2986
95212W        W38265  21.666  20.126  24.446  0.0787  0.0697  0.0646
95213W        W38266  18.266  33.336  26.788  0.2014 -0.0577 -0.2064
95214W        W38267  31.711  27.842  14.281  0.2171 -0.1346  0.1318
95215W        W38268  32.593  34.516  24.284  0.1560  0.3383  0.1092
95216W        W38269   4.660  16.850   4.096 -0.2023  0.1103 -0.0576
95217W        W38270  19.544  33.111  17.832  0.2091  0.0828 -0.0888
95218W        W38271  20.055  25.676  18.999  0.0468  0.0529  0.0285
95219W        W38272   2.147  14.365   1.028 -0.1739  0.0638  0.1281
95220W        W38273  34.354  25.827  24.379 -0.5141 -0.1203  0.0114
95221W        W38274  12.430   5.728  10.200 -0.0106  0.0787 -0.1537
95222W        W38275  10.915  22.078   7.732 -0.2881 -0.0746 -0.2179
95223W        W38276  26.226   0.863  27.585  0.0061 -0.0535  0.1369
95224W        W38277  27.717  17.824  22.441 -0.2577 -0.1290 -0.0758
95225W        W38278  29.907  27.659  21.036 -0.1588  0.2409  0.2269
95226W        W38279  16.287  17.247  26.778  0.0851 -0.0605  0.3682
95227W        W38280  20.912   0.140   1.289 -0.1915  0.2025 -0.0745
95228W        W38281  32.706  30.283   3.404  0.0022 -0.1970 -0.0986
95229W        W38282   1.441  15.588   7.673  0.1192 -0.0894  0.1705
95230W        W38283  11.353  29.372   5.307 -0.1247  0.1288 -0.1338
95231W        W38284  11.972   3.277  19.725 -0.0053  0.1036 -0.3341
95232W        W38285  12.947  18.345  18.737  0.3410 -0.2306  0.2326
95233W        W38286  19.097  30.943   0.006  0.0130  0.0057  0.2255
95234W        W38287  11.129  21.078  17.060 -0.0608  0.0817  0.2249
95235W        W38288  25.071  28.679   4.238  0.4128  0.1499  0.0089
95236W        W38289  32.439  28.090   6.407  0.0321  0.0719  0.0176
95237W        W38290  12.927   1.307  16.987 -0.1988 -0.1244  0.0674
95238W        W38291   5.676   8.509  26.700  0.0841  0.1460 -0.1281
95239W        W38292  15.217   4.491  14.550 -0.3003  0.1249 -0.1320
95240W        W38293   3.556  22.731  28.552  0.0727  0.0061 -0.0292
95241W        W38294  26.879  24.370  24.431  0.1639 -0.2987  0.2541
95242W        W38295  25.071   0.191   1.506 -0.1245  0.0044 -0.2037
95243W        W38296  18.498  28.526  13.931 -0.1778 -0.1069  0.0462
95244W        W38297  25.785  22.641  22.733  0.1017  0.1242  0.3760
95245W        W38298  16.463  19.345  26.242 -0.0106 -0.2566  0.0283
95246W        W38299  26.531  24.400  23.355  0.1231  0.2117  0.1024
95247W        W38300  19.174  29.370  19.628 -0.3061  0.1833 -0.3975
95248W        W38301  29.459  15.900  13.740 -0.1614  0.1086  0.0002
95249W        W38302  10.629   1.619   8.023  0.1178  0.0976  0.2076
95250W        W38303  16.849  16.346   6.211 -0.1914  0.2199 -0.0480
95251W        W38304  26.589  12.053   1.723 -0.3593 -0.1823 -0.0579
95252W        W38305   7.593  23.261   2.543  0.1636 -0.1066 -0.0837
95253W        W38306  30.692   8.388  28.010  0.0782 -0.2092 -0.2742
95254W        W38307   5.601  32.283  18.548 -0.0234  0.0638  0.0064
95255W        W38308  23.435  32.081   0.836  0.0645  0.2288  0.0751
95256W        W38309  24.648  25.485  19.680 -0.0887 -0.0581 -0.0473
95257W        W38310  20.079   4.108   0.098  0.1604 -0.2808 -0.0824
95258W        W38311  17.030   4.110  26.054 -0.1168 -0.0908  0.0155
95259W        W38312  18.702  21.488  17.073  0.2100  0.0583 -0.2442
95260W        W38313   4.400  28.974  18.369  0.1905  0.0094  0.3079
95261W        W38314   7.318  25.489   7.527  0.2773 -0.0303  0.0529
95262W        W38315  30.381   3.687   1.911 -0.0395 -0.2697 -0.0362
95263W        W38316   9.833  28.186  14.439  0.1069  0.0883  0.0679
95264W        W38317   6.136  27.071  18.733 -0.0383  0.0542  0.1556
95265W        W38318  21.477  28.265  24.877 -0.0828  0.2203  0.1737
95266W        W38319  31.194   7.911  17.876 -0.1409 -0.3319 -0.0173
95267W        W38320  33.212  32.940   8.493 -0.3475 -0.3171 -0.0632
95268W        W38321  22.976   0.204  18.033  0.1272 -0.4973 -0.2719
95269W        W38322  20.321  26.761  15.808  0.0722  0.0419  0.0869
95270W        W38323  25.891  25.691  21.561 -0.2356 -0.1269 -0.1181
95271W        W38324  23.724  24.721  24.032  0.1082 -0.0326  0.0283
95272W        W38325   3.265  16.607   4.365  0.1677  0.2926  0.0404
95273W        W38326   4.268   3.362  15.370  0.1645  0.3279 -0.1103
95274W        W38327  31.211  33.038  16.857 -0.0593 -0.0547  0.0096
95275W        W38328   8.826  27.791  17.282 -0.0281 -0.2357  0.1405
95276W        W38329  16.354  26.749   6.735  0.1331 -0.1404  0.0740
95277W        W38330   6.041  13.809  23.335  0.2282  0.3183  0.2274
95278W        W38331  24.937  12.113  29.155  0.0362  0.2587  0.4257
95279W        W38332  32.537  15.323   8.238 -0.0370 -0.2763 -0.0787
95280W        W38333  11.992  29.030  25.650  0.1494 -0.1392 -0.2323
95281W        W38334  33.463  25.658   5.434 -0.3318 -0.3600  0.0197
95282W        W38335  19.334  33.062   2.311 -0.0669 -0.2658 -0.0260
95283W        W38336  14.623  26.646  20.253  0.2182  0.3174 -0.0601
95284W        W38337   0.224  11.955  22.813 -0.0099 -0.1335 -0.0387
95285W        W38338  27.422  34.473  21.669 -0.0181  0.3373 -0.0026
95286W        W38339  23.622   1.395  17.711 -0.0577 -0.1618 -0.1166
95287W        W38340  12.553   6.013  22.059  0.4320  0.1159 -0.0201
95288W        W38341  28.831  32.777  17.247 -0.1897  0.0593 -0.0259
95289W        W38342  34.053   4.047  20.576  0.0605  0.4476 -0.0702
95290W        W38343  26.095   9.056   5.507  0.1071  0.2209 -0.0258
95291W        W38344  19.364  26.110  26.919 -0.0430  0.0688 -0.3495
95292W        W38345   6.076  15.743  23.798  0.0535 -0.1457 -0.2485
95293W        W38346  28.307   2.204  26.132 -0.2016  0.0083 -0.2491
95294W        W38347  25.303  32.956   1.724 -0.1740 -0.0835  0.0940
95295W        W38348  26.132  16.217  23.065 -0.1277  0.0441 -0.2886
95296W        W38349   3.265   7.406  17.529  0.3079  0.2763  0.0026
95297W        W38350  23.632  32.518   7.402 -0.0173  0.2346 -0.2562
95298W        W38351  27.429  31.550  19.655  0.0014 -0.2116 -0.1854
95299W        W38352  33.003   4.174  18.714 -0.1625  0.0773  0.0556
95300W        W38353  11.298   2.341  23.246  0.0067 -0.0677 -0.0235
95301W        W38354   4.170   4.390  16.710 -0.0741  0.2362 -0.0717
95302W        W38355  14.954  23.048   0.608  0.1353 -0.2278  0.1898
95303W        W38356   1.605  27.140  28.971 -0.1181  0.1956 -0.1594
95304W        W38357  25.793  34.442  19.999  0.1043 -0.2669  0.0036
95305W        W38358  34.083  29.833  26.740 -0.1375  0.0967  0.1313
95306W        W38359  22.090  12.258   1.633 -0.2178 -0.1448 -0.2109
95307W        W38360  18.429   2.298   1.166  0.1687  0.0320 -0.1459
95308W        W38361  30.590  27.978  28.324  0.1286  0.1473 -0.0089
95309W        W38362  23.769  13.763   3.239 -0.1224 -0.2276 -0.1841
95310W        W38363  29.949  15.445  22.944 -0.1279 -0.1975 -0.1007
95311W        W38364   8.935  32.706  26.650 -0.1578  0.1935 -0.0811
95312W        W38365  20.790  21.788   0.218  0.1554  0.1695 -0.1395
95313W        W38366  21.579  13.292  20.804 -0.2418  0.0325  0.1057
95314W        W38367   6.247  16.050  28.980  0.2768  0.0279 -0.2213
95315W        W38368   8.996  23.886  29.020 -0.1548  0.4012  0.0711
95316W        W38369   7.373  31.066  14.720  0.1956  0.0139  0.0249
95317W        W38370  14.969  26.831  16.505  0.3097 -0.0676 -0.0511
95318W        W38371   2.577  25.481  13.754  0.3357  0.0688  0.2069
95319W        W38372  23.145  22.153  22.680  0.0040 -0.1930 -0.0248
95320W        W38373  26.668  21.996   7.745  0.0227 -0.0028 -0.0623
95321W        W38374  22.217  28.235  16.425  0.1453  0.1306  0.1349
95322W        W38375  25.104  21.640  13.709  0.0848  0.0233 -0.1215
95323W        W38376  15.448  32.032  19.838  0.2509  0.1129 -0.0583
95324W        W38377  12.297   1.022  22.689 -0.2476  0.2919  0.4652
95325W        W38378  24.804  28.694   6.581 -0.0090  0.1596  0.0213
95326W        W38379   6.498   2.837  17.596  0.1047  0.3757  0.1061
95327W        W38380  23.019   1.246  15.044 -0.0933  0.1664  0.0911
95328W        W38381   7.306  20.463  24.321 -0.1742  0.0321  0.0577
95329W        W38382  20.261  23.354  26.738 -0.2621 -0.2147 -0.0744
95330W        W38383   9.235  26.120  19.515 -0.0845  0.1799 -0.2881
95331W        W38384  22.549  30.920  14.868 -0.1539 -0.0695  0.0237
95332W        W38385  24.263  25.267  17.507  0.0510  0.0311 -0.0223
95333W        W38386  28.237   9.778   5.301  0.1299  0.3115 -0.0944
95334W        W38387  20.148  25.950   8.180 -0.1292 -0.1403 -0.1833
95335W        W38388  26.483   9.351   6.487  0.1666  0.2280 -0.0158
95336W        W38389  15.073  13.012  16.172 -0.2546  0.2536 -0.0436
95337W        W38390  12.158  33.635  17.336 -0.1348  0.2705  0.1434
95338W        W38391  10.250  30.717   0.576 -0.3473  0.1105  0.2574
95339W        W38392  22.660  14.682  19.550  0.1181 -0.1885  0.0074
95340W        W38393  25.164  23.920  28.231  0.0923 -0.1402  0.1300
95341W        W38394   4.654  19.071   1.407 -0.3109 -0.0175 -0.0617
95342W        W38395   4.992  26.254  27.963 -0.3314  0.1038  0.1818
95343W        W38396  22.062  31.810  27.256 -0.2133  0.0533 -0.0529
95344W        W38397  13.899  33.125  21.978  0.0906  0.2122 -0.0021
95345W        W38398   3.761  20.242   8.414  0.0421 -0.3028  0.2372
95346W        W38399  15.468   1.979  26.835 -0.2753 -0.1623 -0.1710
95347W        W38400  10.992   0.081  18.710 -0.0563 -0.0430  0.1653
95348W        W38401  22.169   3.119   7.974  0.0020  0.2510 -0.2993
95349W        W38402  22.993  34.130   1.018 -0.4073  0.0767  0.1369
95350W        W38403   9.792  23.595   4.891 -0.0203  0.2512 -0.0349
95351W        W38404   9.104  27.792  16.154 -0.1556  0.0884 -0.0998
95352W        W38405  14.603   2.662  25.930 -0.1705 -0.0429  0.0218
95353W        W38406  24.704  23.565  26.595 -0.2565 -0.1746 -0.0819
95354W        W38407   1.542  20.493  14.560 -0.0074 -0.1426 -0.1850
95355W        W38408  10.690  30.013  19.312 -0.0977 -0.0826  0.1561
95356W        W38409   2.560  30.508  28.532  0.1102  0.1928  0.3512
95357W        W38410  31.854  28.054  16.246 -0.0325 -0.1925 -0.0603
95358W        W38411  24.441  19.719   3.082 -0.1204  0.0592 -0.0830
95359W        W38412  11.791  10.318  23.495 -0.1341  0.0842  0.1652
95360W        W38413  16.595  17.595  26.088 -0.0457  0.2596 -0.1036
95361W        W38414  23.058  14.541   4.384  0.1509  0.0896 -0.0352
95362W        W38415  13.891   2.679  18.611  0.2536 -0.3165  0.1231
95363W        W38416  16.135   4.215   3.319 -0.0181 -0.0655  0.0299
95364W        W38417  16.096  15.300   4.699  0.1993 -0.1263  0.2772
95365W        W38418  11.288  34.233  20.467  0.0814 -0.0950 -0.0070
95366W        W38419  22.663  23.294  23.449 -0.0017  0.0577  0.3814
95367W        W38420  28.236  12.037  28.628 -0.1119 -0.2037 -0.0294
95368W        W38421  24.387  33.032  20.108 -0.0155  0.1735 -0.1226
95369W        W38422  21.664  29.163   3.389 -0.1725 -0.0033  0.2145
95370W        W38423  20.201  25.300  15.121 -0.0931 -0.4485 -0.0355
95371W        W38424  14.849  11.299  20.402 -0.0221  0.0721 -0.1585
95372W        W38425   9.188  22.138   2.807 -0.2064 -0.2872 -0.0576
95373W        W38426  29.991  30.153  20.090 -0.1418 -0.1907  0.0879
95374W        W38427  17.394   1.977   8.586 -0.1389  0.0870 -0.1920
95375W        W38428  29.524  21.272  21.522  0.0387  0.0470  0.0191
95376W        W38429  18.622   3.967   8.550  0.1813  0.0046 -0.3728
95377W        W38430  16.862  32.734   1.787  0.0491 -0.1807 -0.5135
95378W        W38431  20.433  26.270  24.672  0.1483  0.1947  0.3459
95379W        W38432  19.670   4.917  17.525  0.0272 -0.0825  0.2275
95380W        W38433  14.204   7.200  21.386  0.0111  0.2299  0.2124
95381W        W38434  20.479  34.205   6.178  0.0336 -0.4152 -0.1951
95382W        W38435  10.790   1.190   6.794 -0.0634 -0.0884  0.2436
95383W        W38436  23.305  25.525  27.378 -0.0471 -0.0433 -0.0181
95384W        W38437  17.692  12.468   0.663 -0.0173 -0.1163  0.1680
95385W        W38438  24.543  14.778   5.649  0.0555 -0.0588 -0.0330
95386W        W38439  13.109  24.644  15.626 -0.0285  0.1537  0.0249
95387W        W38440   4.090   1.880  20.127 -0.0577 -0.0839  0.0145
95388W        W38441  15.037  30.576   1.587 -0.1180 -0.0924  0.0858
95389W        W38442  22.479  18.056  14.332  0.3346 -0.0446 -0.3760
95390W        W38443  16.732   5.003  20.060 -0.1582 -0.2630  0.2225
95391W        W38444  20.724  27.049  22.322  0.0099 -0.2117 -0.0369
95392W        W38445  21.571  14.756   5.401 -0.4341 -0.0213  0.0371
95393W        W38446  22.005  29.393  17.085 -0.1425  0.0266  0.1228
95394W        W38447  13.828  32.681  25.391  0.0714  0.0978  0.2244
95395W        W38448  33.599  26.279   8.565  0.1787 -0.3466  0.0965
95396W        W38449  22.968   4.044   7.804 -0.2252 -0.0939 -0.2756
95397W        W38450  12.821   1.944  25.501  0.1698  0.2319 -0.1474
95398W        W38451  28.787   4.698  25.280 -0.1959 -0.1497 -0.0768
95399W        W38452   8.575   0.111  22.111 -0.1354 -0.0566  0.1052
95400W        W38453  33.206  26.990  22.366 -0.1433  0.1077 -0.3386
95401W        W38454  29.092  31.339   3.421  0.2715 -0.0555 -0.0194
95402W        W38455  24.098  23.134   6.594 -0.0431  0.1227 -0.3373
95403W        W38456  17.041   7.430  17.213 -0.0372  0.0390 -0.0758
95404W        W38457   4.973   3.253  15.403  0.0224 -0.0958  0.1603
95405W        W38458  19.250   0.469  28.235 -0.1866  0.3556 -0.0565
95406W        W38459  10.013  24.006  16.207 -0.2187 -0.0497  0.1277
95407W        W38460  20.227   7.704  25.761 -0.1079 -0.0523 -0.1362
95408W        W38461  20.175  15.293  24.757  0.0777  0.2919 -0.3712
95409W        W38462  28.707   5.571  26.844  0.0218 -0.0324 -0.1466
95410W        W38463  12.276   7.638  14.721  0.2314  0.0932  0.1539
95411W        W38464  16.890  18.075   2.239 -0.2436  0.1327 -0.1132
95412W        W38465  23.238   8.418   9.366  0.0446  0.0178  0.0462
95413W        W38466  26.701  32.254  18.687 -0.0053 -0.2774 -0.0259
95414W        W38467  15.200  24.510  16.310  0.0658  0.0028  0.3400
95415W        W38468  18.759  28.089  22.281 -0.0460 -0.0179  0.1347
95416W        W38469   0.424  13.148   7.206 -0.3318  0.0812  0.1861
95417W        W38470  23.077   2.796   4.357  0.1026 -0.1711 -0.2327
95418W        W38471  15.873  20.197   1.632 -0.1169 -0.2862  0.2338
95419W        W38472  29.267  25.260  22.406 -0.3070  0.1727  0.4911
95420W        W38473  26.133  29.476   2.920  0.0437  0.0058 -0.3598
95421W        W38474   8.813  32.045   9.600  0.0322 -0.0575 -0.2074
95422W        W38475   6.166  24.999  24.280 -0.2962 -0.2260 -0.1652
95423W        W38476  21.538  12.545   1.888  0.1597 -0.3107 -0.0858
95424W        W38477   9.915  11.197   1.980  0.1379  0.1033 -0.2465
95425W        W38478   2.386  33.009  16.498  0.2139 -0.0976 -0.1020
95426W        W38479   0.728  27.241   3.475 -0.1574 -0.1328 -0.1377
95427W        W38480  22.014  29.440  15.311  0.3838 -0.1946 -0.0394
95428W        W38481  28.166  15.024   8.267  0.1711 -0.0644 -0.1331
95429W        W38482  10.143  33.805  21.130  0.1003  0.0020  0.1850
95430W        W38483  31.214   5.500  15.989 -0.2645  0.0633  0.1505
95431W        W38484  32.451   0.066  28.343  0.5297 -0.1030 -0.3306
95432W        W38485  27.914  26.639  27.800  0.0090  0.2116  0.3414
95433W        W38486   8.151  17.232  27.255 -0.2548  0.0241 -0.0831
95434W        W38487  22.636  24.775  23.892 -0.2541  0.0320 -0.0676
95435W        W38488  18.887   0.521   1.970 -0.0591 -0.1521  0.0035
95436W        W38489   3.451  25.879  23.103  0.0959  0.2553 -0.2882
95437W        W38490  29.938  15.213  28.964  0.1805  0.2744 -0.1269
95438W        W38491   5.300  14.470  26.049 -0.3117  0.4078 -0.2998
95439W        W38492  17.644  24.713  26.404 -0.2836 -0.0407 -0.0759
95440W        W38493  17.446  24.108   3.707  0.1213 -0.0551 -0.1724
95441W        W38494  25.425   4.355  26.909  0.0839 -0.0546 -0.1140
95442W        W38495  21.911   3.709  28.691 -0.0757  0.1124  0.1682
95443W        W38496  30.460  17.044   7.213 -0.0363 -0.2500  0.5421
95444W        W38497   1.655  32.773  23.223 -0.0243 -0.0825 -0.2750
95445W        W38498   4.283  12.910  23.840 -0.0061 -0.3639 -0.0442
95446W        W38499  24.813  27.122   8.727 -0.2026  0.2290  0.0384
95447W        W38500  29.774   9.125  28.710  0.0254 -0.0575  0.0376
95448W        W38501   3.912   7.315   1.177  0.0487  0.1569 -0.0188
95449W        W38502  17.198  33.212  17.480  0.1673 -0.0141  0.1018
95450W        W38503  17.193  17.553   4.703 -0.0255  0.0143  0.1208
95451W        W38504   4.355  27.399  14.580  0.1234  0.1271  0.2503
95452W        W38505  14.128  29.166  18.814 -0.1631  0.0840  0.3229
95453W        W38506  16.995  12.080  18.035 -0.1471  0.4074  0.0107
95454W        W38507  27.084  21.784  14.961  0.0460  0.2604  0.2325
95455W        W38508  23.608  31.637  27.725 -0.1933  0.0491  0.0073
95456W        W38509  20.815  26.755   4.683 -0.0018  0.3220 -0.1171
95457W        W38510  20.743   9.620  23.451  0.1810 -0.6585 -0.1469
95458W        W38511  19.650  29.508   2.463  0.0011  0.0791 -0.0801
95459W        W38512   9.808  28.393  25.875 -0.3852  0.0812 -0.1498
95460W        W38513   5.347   3.836  17.506  0.2752  0.2859 -0.2488
95461W        W38514  14.732  30.534  22.049  0.2350 -0.2915  0.2495
95462W        W38515  22.798  13.291   7.717 -0.0313 -0.2823  0.3824
95463W        W38516  33.603  10.216  24.001  0.0732  0.2375  0.0471
95464W        W38517  17.131  19.242  14.378 -0.0132  0.1041 -0.3043
95465W        W38518   1.373   7.407  17.623 -0.0116 -0.2173  0.1698
95466W        W38519  24.771  30.988  27.627 -0.2167  0.2315 -0.4700
95467W        W38520  14.591  25.358  26.928 -0.0471 -0.0997 -0.1138
95468W        W38521   6.930  21.986  20.033  0.2962 -0.0697 -0.0448
95469W        W38522  32.031  31.291  19.518  0.0530  0.3100  0.0226
95470W        W38523  26.599   9.550  28.338  0.4333  0.1115 -0.0962
95471W        W38524  28.126  13.795  23.901  0.0166  0.1050 -0.1708
95472W        W38525  16.007   0.566  28.876 -0.2455  0.0174 -0.0824
95473W        W38526  21.211  20.660  17.873 -0.2106 -0.1579  0.3087
95474W        W38527  24.132  28.776  26.812  0.2672 -0.0978 -0.0568
95475W        W38528  19.499  26.366   9.868 -0.0913  0.0502 -0.0012
95476W        W38529   8.447  30.178  22.728 -0.0305 -0.3535  0.0120
95477W        W38530  12.192  24.449   4.689 -0.1992  0.0356  0.2460
95478W        W38531  18.680  28.542   7.683  0.0480 -0.1609  0.1752
95479W        W38532   8.189  23.967   5.243  0.1833  0.0152  0.1141
95480W        W38533  16.765  21.613   1.124  0.2993 -0.1797  0.1268
95481W        W38534  22.437  32.969   5.577  0.3281  0.0106 -0.1199
95482W        W38535  31.617  13.840   5.382  0.0598 -0.3724  0.1165
95483W        W38536  25.555  19.599   4.696  0.1137  0.2080  0.2208
95484W        W38537  13.035  29.644  22.281 -0.1157  0.0507 -0.0737
95485W        W38538   8.270  17.798   3.494 -0.1282 -0.2531 -0.1935
95486W        W38539  21.556  22.630   7.473  0.2510  0.0531  0.3134
95487W        W38540  13.122  18.163  25.127 -0.1970  0.0494  0.1914
95488W        W38541  16.386  29.016  20.202  0.0382 -0.0285  0.0806
95489W        W38542  18.175  20.969  28.000  0.1587 -0.3419  0.1726
95490W        W38543   0.911  33.760  24.214  0.1143 -0.0474  0.4092
95491W        W38544  17.588  20.062   1.373 -0.2479 -0.0892  0.3405
95492W        W38545  29.559  18.751   6.289  0.2144  0.1043 -0.1006
95493W        W38546  16.840  30.685  25.396 -0.1144 -0.0948 -0.0820
95494W        W38547  19.826  25.561   3.303  0.0256 -0.1425  0.0170
95495W        W38548  12.110  30.386  22.540  0.2075  0.0879 -0.0908
95496W        W38549  31.924  22.093  17.435 -0.0121 -0.0976  0.0749
95497W        W38550  27.367  20.965  19.946  0.0228 -0.1763 -0.0866
95498W        W38551  22.548  24.480   0.040 -0.0149 -0.0113 -0.1625
95499W        W38552  10.554  13.065   8.500 -0.1989 -0.1095  0.0281
95500W        W38553  13.332  22.810  28.103 -0.2073  0.0452 -0.2054
95501W        W38554  18.843   0.281  22.622  0.0551 -0.1267  0.2673
95502W        W38555   5.417   0.517  20.907  0.0735 -0.1727 -0.2338
95503W        W38556  13.755   8.381   0.198 -0.1241 -0.1331 -0.0310
95504W        W38557  13.758  22.677  14.020 -0.4017 -0.2078  0.2938
95505W        W38558  10.624  13.321   1.157  0.2065 -0.2356  0.1200
95506W        W38559  17.579  13.552   7.930  0.1713  0.1993  0.0557
95507W        W38560  30.722  31.786  19.138  0.1736 -0.0416 -0.0568
95508W        W38561  32.082  26.262   5.020 -0.0203 -0.0050  0.1927
95509W        W38562  14.963  21.092  24.231 -0.0725 -0.2318 -0.0496
95510W        W38563  30.456  31.118   3.991 -0.3779  0.1498  0.2682
95511W        W38564  17.096   5.760  25.561  0.0021  0.1326  0.2148
95512W        W38565  12.629  28.386  14.419  0.2754 -0.1923  0.4254
95513W        W38566   2.650  31.967  20.860  0.1898 -0.2733  0.2350
95514W        W38567  26.378  29.264   2.277 -0.0494  0.0056 -0.2301
95515W        W38568  14.780   5.467  10.167 -0.2191  0.1066  0.1367
95516W        W38569  11.651  27.377  22.132  0.1233  0.0983 -0.3644
95517W        W38570  20.428  14.356   2.854 -0.2689 -0.4116  0.4102
95518W        W38571  16.302   8.576  16.201 -0.1186 -0.0303  0.1967
95519W        W38572  12.407  19.797   1.843  0.1281 -0.2613 -0.4001
95520W        W38573   6.285  19.600  28.886  0.1608 -0.0677  0.1099
95521W        W38574   9.465   8.982  20.982 -0.2405  0.0881 -0.1766
95522W        W38575  18.808  25.129  18.657 -0.1755 -0.1664  0.1990
95523W        W38576  14.340  27.986  16.221 -0.2349 -0.1691 -0.0445
95524W        W38577  17.414  24.179  15.975  0.4233 -0.1221  0.0097
95525W        W38578  22.700  26.595  22.519  0.0446 -0.1529  0.1473
95526W        W38579  25.348  22.442   9.130  0.1424 -0.2031 -0.1636
95527W        W38580  23.371  25.241  26.850 -0.0914 -0.2519  0.0696
95528W        W38581  20.825  26.733  16.453 -0.1561  0.0825  0.0393
95529W        W38582  15.120  23.077   8.770 -0.6390 -0.3752 -0.1829
95530W        W38583  18.955   0.331  22.123 -0.5592 -0.3570  0.0145
95531W        W38584  13.248  17.458   4.306 -0.2447 -0.0639 -0.0398
95532W        W38585  18.954  11.218   3.706 -0.1061 -0.0893  0.3052
95533W        W38586  23.946  16.753  15.686 -0.2030  0.0828  0.1977
95534W        W38587  24.878   0.757  23.348 -0.3487  0.0695 -0.1831
95535W        W38588  12.056  14.012  10.976 -0.0177 -0.0119  0.1223
95536W        W38589   0.150  24.084  18.333  0.0425 -0.0925  0.0505
95537W        W38590  32.520   1.557  18.781  0.3439 -0.2529  0.1033
95538W        W38591  14.093  23.644  28.318  0.0964 -0.0855 -0.2178
95539W        W38592  28.954   0.404  28.285 -0.2791 -0.0980 -0.0412
95540W        W38593   4.312  13.578   5.529 -0.0623 -0.0788  0.0788
95541W        W38594  23.089  30.382  19.859 -0.1284  0.2555 -0.0227
95542W        W38595   8.004  23.857  27.087  0.0341 -0.1504 -0.0568
95543W        W38596  19.342  10.920   3.934 -0.1535  0.0807 -0.2789
95544W        W38597  12.820  23.261   0.760 -0.2275 -0.2788  0.1214
95545W        W38598  18.917  11.179  24.663  0.0868 -0.1664 -0.2838
95546W        W38599  18.984  13.972  13.398 -0.1892  0.3240  0.0106
95547W        W38600  17.071   5.809  18.132  0.0970 -0.0292 -0.0180
95548W        W38601  28.390   9.679   5.808 -0.2595 -0.1207 -0.0782
95549W        W38602  31.938   5.183   3.560 -0.0297  0.4004  0.0336
95550W        W38603  10.188  16.166  26.125 -0.2109 -0.0330  0.3237
95551W        W38604  13.833  24.291  21.896 -0.0254 -0.1713 -0.2516
95552W        W38605  23.170   5.627   6.680 -0.2016  0.0048  0.3649
95553W        W38606   9.381  32.505   6.339 -0.2196 -0.1834  0.2107
95554W        W38607   0.725  25.729   0.109  0.1527 -0.0524  0.1948
95555W        W38608  14.140  22.229  28.359  0.2157  0.4753 -0.2399
95556W        W38609  20.757  32.230  22.067  0.1367  0.0980  0.2224
95557W        W38610  12.554   1.020  14.495 -0.1753 -0.1163  0.0603
95558W        W38611   9.128  34.207  25.615  0.0155  0.0936  0.0068
95559W        W38612  27.867   0.395   5.748  0.2007 -0.1355 -0.2230
95560W        W38613  15.388   2.210  24.675  0.0017 -0.0237  0.0858
95561W        W38614  21.158  34.150  23.562 -0.4206  0.1347  0.0608
95562W        W38615  22.572  31.496   3.366  0.0646 -0.1795  0.2623
95563W        W38616  22.139  20.888  15.418  0.0774 -0.4199  0.2592
95564W        W38617  23.107  19.772  27.507 -0.0135 -0.1662  0.1650
95565W        W38618  24.423  18.892  14.851 -0.1389 -0.1407 -0.1581
95566W        W38619   6.062  15.859   5.875 -0.1552  0.0869  0.1023
95567W        W38620   9.252   2.471   5.064 -0.1619  0.0838  0.1913
95568W        W38621  30.636   5.742  25.447  0.0935 -0.0585  0.3342
95569W        W38622  15.197  17.697  15.476  0.0088  0.0182  0.1045
95570W        W38623  20.968  26.138  11.072  0.1203  0.1838  0.0029
95571W        W38624  16.208  15.639  15.679 -0.0553 -0.2820 -0.2234
95572W        W38625  21.192  30.574  14.603  0.0400 -0.0397 -0.1996
95573W        W38626  23.615   9.080  19.909  0.0896 -0.0271 -0.1997
95574W        W38627  28.152   8.424  28.261 -0.0039 -0.0252  0.1199
95575W        W38628  23.460  14.429  29.036  0.1422  0.1452 -0.0095
95576W        W38629  24.420  26.673  19.243  0.1377  0.0459 -0.3625
95577W        W38630  21.957  24.418  24.130 -0.6218  0.0813  0.2911
95578W        W38631   6.741  15.323  18.126 -0.2412  0.1013 -0.0162
95579W        W38632  15.962  12.022   1.097  0.4695  0.0452  0.0038
95580W        W38633  12.728   6.882   7.382  0.2779 -0.1144 -0.0073
95581W        W38634  13.252   2.294  23.062 -0.3020  0.2257  0.1634
95582W        W38635  13.856   9.011   2.131  0.1001 -0.0843  0.2480
95583W        W38636  31.569  30.876  23.108  0.2064 -0.0294 -0.1744
95584W        W38637  27.079   8.314   6.485  0.2370 -0.3347 -0.2201
95585W        W38638  20.546  29.000   2.459 -0.1226  0.2596 -0.2732
95586W        W38639   6.236  22.789  17.364 -0.0713  0.1080 -0.0583
95587W        W38640  19.540  12.474  27.598 -0.2420 -0.2053  0.1345
95588W        W38641  12.173   5.156  22.897 -0.1117 -0.0505  0.1300
95589W        W38642  22.374  19.381   3.762  0.1079  0.1764  0.0449
95590W        W38643  21.339   5.607  22.192 -0.1479 -0.0446 -0.0262
95591W        W38644  18.777   7.278  18.247 -0.0335 -0.4500  0.0406
95592W        W38645  19.492   1.515   8.272 -0.0840 -0.1250 -0.0152
95593W        W38646  20.548   5.947  22.710 -0.0269  0.0739 -0.1155
95594W        W38647  10.429   1.752   4.858 -0.0012  0.0644  0.0193
95595W        W38648  12.393  30.131  23.533 -0.1698  0.2701 -0.2590
95596W        W38649  12.411  27.306   0.584 -0.0867 -0.0150 -0.2023
95597W        W38650  12.506  26.622  21.301  0.0580 -0.4060 -0.2937
95598W        W38651   6.492  18.699   6.026  0.0358  0.0222 -0.0390
95599W        W38652  19.470  30.766  28.100 -0.2206  0.0684 -0.1563
95600W        W38653  21.747  29.602  19.482 -0.3873  0.2092 -0.1431
95601W        W38654  17.705  23.965  26.819  0.1232 -0.0861  0.1583
95602W        W38655  25.099   4.263  23.074 -0.2456 -0.1029 -0.4151
95603W        W38656  28.341  18.736  28.008 -0.1785 -0.0429  0.0782
95604W        W38657  33.865  25.401   7.162  0.0535  0.0279  0.2307
95605W        W38658  31.037  30.343  27.466 -0.0386  0.1875 -0.2424
95606W        W38659  23.961  13.022  14.004  0.0727  0.2934  0.0518
95607W        W38660   9.115  16.304   8.190 -0.3822 -0.0121 -0.1895
95608W        W38661  23.664  10.798  17.353  0.0213  0.1191 -0.1009
95609W        W38662  14.815  26.026   3.841 -0.0664 -0.1208  0.1575
95610W        W38663  22.796   5.472   9.693 -0.0371  0.2112  0.1096
95611W        W38664  13.768  24.173   9.979  0.1072 -0.0340  0.1144
95612W        W38665  13.277  30.504  26.480 -0.0696  0.0833 -0.1375
95613W        W38666  12.116   8.208  27.553  0.0399 -0.0155 -0.0686
95614W        W38667  13.139   6.408  25.253 -0.0982  0.1867  0.5656
95615W        W38668  11.448  28.582  15.661  0.0015  0.0276  0.2849
95616W        W38669  28.764  14.050  20.719 -0.0657  0.1027  0.1658
95617W        W38670  32.443   4.119   7.325 -0.0862  0.0974  0.0883
95618W        W38671   3.978   2.179  17.863  0.0049  0.0428 -0.0026
95619W        W38672  30.396   8.691   3.418  0.1377 -0.1998 -0.4152
95620W        W38673   8.973   3.437  27.795  0.0165  0.0812 -0.3200
95621W        W38674  16.309  21.322   3.603  0.1410 -0.0653 -0.0976
95622W        W38675  14.240  22.777   1.134 -0.2152  0.1476 -0.1782
95623W        W38676  25.629  24.403   7.697  0.1953 -0.0886 -0.0556
95624W        W38677  25.825  30.883  25.546 -0.4537 -0.1657  0.3908
95625W        W38678  20.455  18.461  23.529  0.2152 -0.0160  0.0756
95626W        W38679  20.543  23.141  23.151  0.1648  0.0863  0.0618
95627W        W38680  30.135  21.136  15.421  0.0493  0.0884 -0.0343
95628W        W38681   2.706  32.508  19.015 -0.1081 -0.2485  0.1615
95629W        W38682   8.236   2.178   3.332 -0.0010  0.0537 -0.0225
95630W        W38683  30.792  27.672  22.009 -0.0707 -0.0011  0.1508
95631W        W38684  21.995  20.566   9.419 -0.1120 -0.0221 -0.3018
95632W        W38685  31.749  26.564  23.953  0.0691  0.1101 -0.2493
95633W        W38686  17.335  30.348  28.515  0.0129  0.1805 -0.0113
95634W        W38687  13.737  22.280  26.084 -0.2603  0.1664 -0.0942
95635W        W38688  14.731  16.914  15.795  0.3196 -0.1069  0.0866
95636W        W38689  27.955   2.963  19.694 -0.0271  0.1593 -0.2895
95637W        W38690  20.622  20.502   7.146  0.0758  0.1455  0.1706
95638W        W38691  24.960  29.515   3.899  0.0367 -0.2649 -0.0996
95639W        W38692   8.501  20.118  20.244 -0.1838  0.0220 -0.0075
95640W        W38693   2.153  26.321  14.285  0.1581 -0.3189 -0.0785
95641W        W38694  27.153   4.064  18.280  0.3218 -0.2063  0.0568
95642W        W38695  12.252   7.319   0.647 -0.0431 -0.2752  0.1579
95643W        W38696   0.460  19.739   0.066 -0.0491 -0.0724  0.2058
95644W        W38697  28.681  33.097   4.358  0.0326  0.1247 -0.2233
95645W        W38698   2.721  14.427   0.411  0.1590 -0.0828  0.0158
95646W        W38699  29.567  13.819  19.280 -0.1346 -0.0215 -0.1534
95647W        W38700   9.157  15.571   9.612  0.2198  0.0763  0.2351
95648W        W38701  29.019  24.986  17.169 -0.1012 -0.1431 -0.1001
95649W        W38702  21.847  22.695  28.881  0.1178  0.2731 -0.2143
95650W        W38703  27.146   7.930  15.005 -0.4048 -0.1835  0.3976
95651W        W38704   5.991  30.269  27.873 -0.0851 -0.4171  0.2679
95652W        W38705  12.939  13.899  10.044 -0.1267  0.4596 -0.0848
95653W        W38706  15.544  26.004   8.586 -0.0205  0.0430  0.1647
95654W        W38707  13.855  21.701  28.051  0.2162  0.3510 -0.1700
95655W        W38708  33.972  11.129   8.131  0.0737 -0.2654 -0.0020
95656W        W38709  28.346  25.013  14.617  0.4792 -0.0070  0.0847
95657W        W38710  15.865  28.978  25.480  0.1530 -0.4491  0.0247
95658W        W38711  31.079  29.520  16.368  0.1266 -0.1362  0.1063
95659W        W38712   0.614  23.369   3.129 -0.0561  0.1936  0.0862
95660W        W38713   8.871  24.847  22.211  0.1230  0.1068 -0.0409
95661W        W38714  16.343  33.295  27.992  0.1707 -0.2712  0.0643
95662W        W38715  30.042  22.617   8.903 -0.2552  0.0292  0.0385
95663W        W38716  18.686  11.099  20.361 -0.0251  0.1308 -0.0411
95664W        W38717  31.149   7.107   4.371  0.0657 -0.0035 -0.3373
95665W        W38718   3.625   4.520  18.903 -0.0192  0.0294  0.0301
95666W        W38719  24.951  33.195   1.486  0.1406  0.0031  0.1750
95667W        W38720  22.523   3.984   8.092  0.0665 -0.0796 -0.0217
95668W        W38721  18.364  28.257  18.935 -0.1684  0.2868 -0.2188
95669W        W38722   5.806  14.314  28.711  0.5207  0.1168  0.1381
95670W        W38723   5.368  21.923  18.702  0.0317  0.1145 -0.0601
95671W        W38724  27.481  16.094   3.581 -0.1135  0.1172  0.1848
95672W        W38725  23.436  32.538  15.479 -0.1117 -0.1475 -0.1013
95673W        W38726  26.618  17.059  28.629 -0.1444 -0.0869  0.1771
95674W        W38727  16.671  31.082  23.071  0.1065  0.1776 -0.1250
95675W        W38728  32.540   1.851  15.770 -0.0260 -0.1045  0.0746
95676W        W38729  14.482  26.531   7.852 -0.0486 -0.1926 -0.0759
95677W        W38730  10.003  21.867  16.064 -0.0620  0.0228  0.1440
95678W        W38731  19.266   3.564  11.298  0.1321 -0.0295  0.0915
95679W        W38732   9.640  31.647  25.379 -0.0515 -0.1543 -0.0971
95680W        W38733  32.570  24.949  25.282  0.0752 -0.1383  0.0037
95681W        W38734  26.657  21.556  28.299 -0.2105 -0.4206  0.1201
95682W        W38735   8.473  17.700  19.375 -0.2233  0.1019 -0.1770
95683W        W38736  20.339   5.469  24.248  0.1126  0.2907  0.0227
95684W        W38737   0.540  20.008  19.624 -0.2724  0.0061 -0.0278
95685W        W38738  25.749  18.824  21.533 -0.0001  0.1084 -0.1604
95686W        W38739  23.515  17.321  22.828 -0.0152 -0.0433 -0.4021
95687W        W38740   5.868   2.158  15.231  0.1864 -0.1909 -0.2986
95688W        W38741  28.076  16.879   7.384  0.0149  0.1703  0.2769
95689W        W38742  31.326  26.401  15.189  0.0285  0.2378 -0.0663
95690W        W38743  17.346  18.680  23.092 -0.2322  0.0718  0.0845
95691W        W38744  24.042  21.750  17.325  0.0515 -0.0597  0.3051
95692W        W38745  10.549   8.251   4.268 -0.2035 -0.4659  0.1526
95693W        W38746   0.177  27.584   0.994  0.2761  0.0001  0.0740
95694W        W38747  26.500  26.621  18.361 -0.0816 -0.4588 -0.0819
95695W        W38748   2.451  19.067  22.087 -0.2331 -0.0520  0.0012
95696W        W38749  10.223  20.144   6.741 -0.2366  0.0521 -0.1025
95697W        W38750  22.586  24.103   5.883  0.2586  0.1859 -0.2259
95698W        W38751  14.047  18.182   5.951 -0.0300  0.0239 -0.3264
95699W        W38752  12.239  22.335  28.752 -0.0289 -0.1837  0.1848
95700W        W38753  20.820  32.479  20.727 -0.2596 -0.3715 -0.1918
95701W        W38754  13.630  31.017   7.578  0.0932  0.2545 -0.2741
95702W        W38755  13.675  24.884   9.866 -0.1770  0.0892  0.1546
95703W        W38756  24.826  34.308  23.053  0.2000 -0.0006 -0.0441
95704W        W38757  14.753  19.877  16.502  0.1656 -0.3219 -0.2253
95705W        W38758   7.661  20.321   0.349 -0.1336  0.1537 -0.0187
95706W        W38759  29.828   4.396  14.155  0.1363  0.0949 -0.0869
95707W        W38760  32.314  31.669   0.094  0.4467  0.4248 -0.0281
95708W        W38761  11.298  21.652  26.323 -0.0846 -0.3096 -0.0770
95709W        W38762  32.775  20.363   3.604  0.1389  0.1909 -0.0958
95710W        W38763  20.570  27.683   2.132 -0.1969  0.0148 -0.2328
95711W        W38764  19.668  31.308   6.034 -0.0900  0.2291  0.0665
95712W        W38765  22.901  15.817   2.707 -0.0480  0.2377 -0.1199
95713W        W38766  15.290  27.068  27.044  0.1359 -0.1887 -0.2205
95714W        W38767   4.673  21.827   9.133 -0.1490 -0.0496 -0.1074
95715W        W38768   8.878  10.055  27.162  0.0897 -0.0942  0.2669
95716W        W38769  33.548  25.740  24.969  0.1300  0.2533  0.2698
95717W        W38770  33.383  26.695  23.747 -0.1646  0.0324 -0.1135
95718W        W38771  16.954  27.710  16.636 -0.0344  0.0647  0.0674
95719W        W38772  28.054   2.510  20.992 -0.4093  0.0892 -0.2103
95720W        W38773  34.141  27.008  26.033  0.1557  0.1457 -0.4231
95721W        W38774  15.791   2.644  28.851 -0.0113  0.3703  0.2169
95722W        W38775  32.051  28.916  19.475 -0.1968  0.0787 -0.1454
95723W        W38776   1.601   1.064   6.500 -0.0644 -0.1163 -0.0783
95724W        W38777  17.480  27.519   5.049  0.0619  0.0719  0.2525
95725W        W38778  16.756  22.259   2.283  0.1152  0.3082  0.0357
95726W        W38779  18.869  21.435   9.529  0.0942 -0.1086  0.2301
95727W        W38780   8.467  22.299   1.848  0.0540  0.2647 -0.4028
95728W        W38781  18.374   0.244   3.334 -0.0455 -0.0335 -0.3663
95729W        W38782  10.628  17.924   8.909  0.1254  0.2526  0.1117
95730W        W38783  33.933  31.551  26.808  0.0149  0.3362 -0.2493
95731W        W38784   9.837  24.277   8.382  0.1147 -0.1086 -0.1599
95732W        W38785  18.420  11.481  16.914  0.0014  0.4283  0.0052
95733W        W38786  17.322  23.564  10.012  0.1023  0.0642 -0.0895
95734W        W38787  17.095  12.274  28.616 -0.0979  0.0528 -0.4024
95735W        W38788  10.897   5.564   0.855 -0.1344 -0.0715  0.0266
95736W        W38789  19.995  31.369   6.559  0.1753  0.1546  0.1282
95737W        W38790   7.926  18.992  21.341 -0.0983 -0.1758  0.3071
95738W        W38791  23.539   4.051   3.160  0.1537 -0.1616 -0.0866
95739W        W38792  18.561  14.120  13.659  0.1801 -0.2779 -0.1605
95740W        W38793  14.138  18.465   9.124  0.2785  0.0640 -0.0771
95741W        W38794  21.629  13.684  19.294 -0.1314 -0.2762 -0.0717
95742W        W38795   7.679  33.849  14.979  0.1266 -0.0814 -0.1411
95743W        W38796  16.308   3.783   6.238  0.1214  0.0136 -0.1641
95744W        W38797  28.680   0.109   8.923  0.2618  0.2097 -0.0026
95745W        W38798  24.497  29.604  19.789 -0.1952  0.2930  0.2059
95746W        W38799  10.842  32.704  18.332 -0.0252 -0.0445  0.1815
95747W        W38800  14.373  21.796  19.584 -0.0317 -0.1209  0.1894
95748W        W38801  33.218   3.572  26.420  0.3595  0.4414 -0.1235
95749W        W38802  18.133  29.525   0.322 -0.1257  0.3743 -0.0518
95750W        W38803  10.842  10.595   9.958  0.1466 -0.3021 -0.2706
95751W        W38804   2.255   1.510  23.386  0.1641 -0.0899  0.0714
95752W        W38805  31.734  28.659  14.660 -0.0357 -0.2681  0.0141
95753W        W38806   2.670  16.963  28.867  0.2294 -0.0101 -0.1411
95754W        W38807  29.590  20.811   3.143  0.2632 -0.0605  0.1375
95755W        W38808  13.149   0.821  28.624 -0.0571  0.0637 -0.0204
95756W        W38809   7.349  32.414  28.800  0.1591 -0.1711  0.0423
95757W        W38810  23.947  18.777  14.383 -0.2707  0.1312 -0.1389
95758W        W38811  13.533  30.583  24.463 -0.2027 -0.2472 -0.1460
95759W        W38812  28.474  13.156   1.664 -0.0616  0.0456 -0.1285
95760W        W38813  17.497   6.115  26.305  0.1228  0.2928  0.2325
95761W        W38814  26.955  25.618   0.981 -0.2783  0.2319  0.1226
95762W        W38815  30.434  17.172   4.564 -0.2039  0.1699  0.0620
95763W        W38816  19.172  15.635  27.144  0.0578 -0.2737 -0.3961
95764W        W38817  18.076  19.246  24.973  0.1209  0.3959  0.0491
95765W        W38818  29.056  29.819   3.619  0.0206  0.1563  0.2726
95766W        W38819   6.230  30.807  25.047 -0.2436  0.0176  0.1447
95767W        W38820  25.675  14.729  15.221  0.1569  0.0536  0.1605
95768W        W38821  23.574  21.907  13.489  0.0417 -0.4665  0.2369
95769W        W38822   2.308  23.293  19.540 -0.0664  0.0127  0.1250
95770W        W38823  20.268  30.172  28.017  0.0618 -0.1354 -0.0206
95771W        W38824  14.539   4.618  28.628  0.2813  0.0491 -0.2104
95772W        W38825  23.526   2.884   8.190 -0.1376  0.1757  0.1229
95773W        W38826  30.446  28.227  28.719  0.1457 -0.3895 -0.1087
95774W        W38827  19.293   1.227  11.013  0.1763  0.2504  0.1470
95775W        W38828  29.381  24.617  15.696  0.0628 -0.3262  0.2374
95776W        W38829  17.005  25.955   2.392 -0.3278 -0.0072  0.0297
95777W        W38830  30.595   4.637  19.776  0.2017 -0.0436 -0.1633
95778W        W38831  10.468  21.740   1.205 -0.0867 -0.0842  0.0342
95779W        W38832   5.475  33.067  28.377  0.3727  0.0890  0.1366
95780W        W38833   6.455  29.021  18.448  0.2139  0.2284 -0.0209
95781W        W38834  18.202  32.374  22.773  0.3281  0.0855 -0.1348
95782W        W38835  32.042   2.642  19.005  0.1402  0.0068 -0.0093
95783W        W38836  29.605   1.782  17.622 -0.1456 -0.2093  0.0451
95784W        W38837  20.852  26.437  19.286  0.2900 -0.0229  0.0261
95785W        W38838  21.305  31.754  25.789 -0.0045 -0.0113 -0.0384
95786W        W38839   0.376  27.307  23.676 -0.1322  0.1104 -0.0618
95787W        W38840   1.943   2.383  16.473  0.2064 -0.1350 -0.0766
95788W        W38841  20.990  28.456   9.192 -0.0084  0.1712 -0.1338
95789W        W38842  14.546  12.343  18.464 -0.0935 -0.1909  0.0338
95790W        W38843  23.380   0.017   5.438  0.0508  0.0729  0.0925
95791W        W38844  28.905   9.333  19.852  0.0888  0.2692 -0.1584
95792W        W38845  12.978  24.957  25.153 -0.0876  0.0110 -0.3279
95793W        W38846  22.185  23.717   5.764  0.0203 -0.0493 -0.0159
95794W        W38847  15.022   0.967  10.490  0.0215 -0.1903  0.0531
95795W        W38848  23.417  15.490   4.572  0.2352 -0.0103 -0.0254
95796W        W38849   0.239  22.582   7.070 -0.3636  0.3204  0.1151
95797W        W38850  17.189   0.997   5.261 -0.0487  0.1249 -0.2700
95798W        W38851  27.863   3.270  14.775  0.0570  0.0950 -0.1963
95799W        W38852  27.797  31.865  28.973  0.0282  0.0519 -0.2487
95800W        W38853  32.150  27.205   5.080  0.1929 -0.2457  0.1086
95801W        W38854  17.353  14.137  23.178 -0.1837 -0.0450 -0.0079
95802W        W38855  13.613  27.499  29.075  0.4057 -0.2356  0.1983
95803W        W38856  10.943  33.019  16.856  0.3399 -0.0296  0.1133
95804W        W38857  23.476  29.590  26.826 -0.1421 -0.2606 -0.3490
95805W        W38858  27.816  16.511   0.380  0.1093  0.2032 -0.0854
95806W        W38859   6.677   9.518  19.201 -0.1261  0.3229  0.0999
95807W        W38860   3.012   6.340  15.558  0.1180  0.0933 -0.1032
95808W        W38861   5.980  25.320  27.528  0.1223  0.1604 -0.0334
95809W        W38862  14.803   0.243   6.959 -0.3469  0.0499 -0.2315
95810W        W38863  17.996  32.119   0.630 -0.1764  0.0350 -0.0146
95811W        W38864  10.694   2.631  20.958  0.1496 -0.0367  0.3153
95812W        W38865  14.981  24.109  16.140 -0.1235 -0.0004 -0.0305
95813W        W38866   1.938  16.755   9.237  0.2423  0.1797 -0.0601
95814W        W38867  15.543  27.409  24.955 -0.1328 -0.2407  0.1771
95815W        W38868  19.424  27.935   0.671 -0.2004 -0.1374 -0.1114
95816W        W38869  11.299  29.589  21.830 -0.0494  0.0355 -0.1516
95817W        W38870  28.282   0.420   6.072 -0.0230 -0.1719 -0.0270
95818W        W38871  11.943  27.002  26.021  0.0169  0.0833 -0.5060
95819W        W38872  18.082   2.191  23.995  0.1536 -0.0211  0.0678
95820W        W38873   0.527  30.664  15.012 -0.3226  0.0830 -0.2432
95821W        W38874  23.262   1.781  14.140 -0.1523 -0.0321  0.1265
95822W        W38875   4.468  34.147  21.091 -0.0084 -0.1219  0.0095
95823W        W38876  14.124  32.042  19.518  0.1025  0.0036 -0.0948
95824W        W38877  26.414  20.998  15.661 -0.1331  0.1879 -0.1611
95825W        W38878  17.313  23.243  18.423  0.1326 -0.2946  0.0637
95826W        W38879   4.181  10.286  14.692  0.0135 -0.1222 -0.2657
95827W        W38880  26.648   6.609  27.262 -0.0092  0.1105  0.0864
95828W        W38881  17.077  27.096  17.551 -0.2221  0.1757 -0.0425
95829W        W38882  22.561  32.825  18.207 -0.1827  0.1682 -0.0238
95830W        W38883  15.458  27.655   1.786  0.2462  0.0116  0.2289
95831W        W38884  18.642  31.642  19.086 -0.1249 -0.0036 -0.0803
95832W        W38885  15.746  24.823  14.571 -0.0868  0.1281  0.0637
95833W        W38886  28.348  19.862  14.782  0.0554  0.2183 -0.0816
95834W        W38887  11.286  28.151  16.772  0.4124 -0.2211  0.0182
95835W        W38888  11.001   7.035  22.447 -0.2024 -0.2641 -0.0520
95836W        W38889  23.279  17.691  22.589 -0.0757 -0.1174 -0.1176
95837W        W38890  20.946   1.331  15.529  0.1719 -0.2194  0.1087
95838W        W38891  32.112  31.397  14.116  0.0110 -0.0485  0.1317
95839W        W38892  25.890  33.804  19.384 -0.2761  0.2362 -0.3914
95840W        W38893  30.254  34.654   3.556  0.2298  0.0323 -0.2801
95841W        W38894  29.840  31.081  21.613 -0.1006  0.2029  0.0605
95842W        W38895  24.325   5.769  20.891  0.2540  0.1901 -0.0063
95843W        W38896  15.631  22.068  14.021  0.1249 -0.0677  0.1469
95844W        W38897  22.806  23.808   3.068 -0.1432 -0.1925 -0.1930
95845W        W38898  21.102  30.660  20.808  0.1533  0.1729  0.2901
95846W        W38899  26.820   8.850  15.317 -0.0741  0.3449 -0.1408
95847W        W38900   0.477   3.301  20.346  0.2231  0.0278 -0.2461
95848W        W38901  32.493  22.511  18.576  0.0011  0.0374 -0.0908
95849W        W38902  25.988   2.626  18.483 -0.0154 -0.1181 -0.0428
95850W        W38903  15.900  25.747  25.113  0.0608  0.1807 -0.0745
95851W        W38904   1.157  30.636  17.251  0.1873 -0.3012 -0.1557
95852W        W38905  25.821  10.756  15.152 -0.0541 -0.1279  0.1202
95853W        W38906   9.235  26.185  22.789 -0.2494 -0.0795 -0.2430
95854W        W38907  11.659   4.334  22.346 -0.0477 -0.2346  0.0180
95855W        W38908  23.658  28.804  23.982  0.0283  0.3011 -0.2555
95856W        W38909  28.985   6.296  20.172 -0.0238 -0.0446 -0.2232
95857W        W38910  21.485  31.426  24.751 -0.0883 -0.2916 -0.0381
95858W        W38911  22.314  24.062  22.957 -0.0177 -0.1478 -0.0057
95859W        W38912   1.659  18.889  27.552  0.1917  0.2972 -0.1327
95860W        W38913  23.306  18.062  24.509  0.0046  0.0550  0.3458
95861W        W38914   5.274  25.749  20.184 -0.2237  0.0216  0.1697
95862W        W38915  29.511  26.486  26.827  0.0148  0.0283 -0.0498
95863W        W38916  12.722  22.033  16.934  0.0135 -0.1437  0.1615
95864W        W38917  14.765  22.463  22.559  0.0827  0.0966  0.2129
95865W        W38918  24.402  10.181  21.394  0.1423 -0.4887  0.1259
95866W        W38919  15.545  20.989  14.488  0.1263  0.1083 -0.5158
95867W        W38920  19.982   8.371  16.524  0.2393  0.4212  0.2644
95868W        W38921  25.402   0.967  28.881 -0.2434 -0.1062  0.1636
95869W        W38922  21.485  12.697  21.352  0.2647  0.1494  0.3115
95870W        W38923  21.974  34.656  18.959 -0.1375  0.0458 -0.0739
95871W        W38924  33.248  29.079  16.049  0.2897 -0.0190 -0.0739
95872W        W38925  30.449  28.776  28.706  0.1506 -0.0157 -0.1663
95873W        W38926  20.145   3.214  23.735 -0.1758  0.0727 -0.2524
95874W        W38927  23.451  29.978  13.397 -0.1293  0.0867  0.3477
95875W        W38928  17.856  31.562  18.137  0.1789  0.2638  0.0556
95876W        W38929  24.091  29.117   2.670 -0.2011  0.1267 -0.2909
95877W        W38930  14.125   0.999  20.430  0.0153  0.1657 -0.1188
95878W        W38931  20.663   3.226  26.454 -0.0704 -0.1906 -0.1978
95879W        W38932  18.079  24.065   8.947 -0.1039  0.1553 -0.1021
95880W        W38933  31.432   2.069  28.130 -0.1460 -0.0619 -0.0511
95881W        W38934  19.334  32.206  23.746  0.1659  0.0719  0.0232
95882W        W38935  28.116  19.145  16.784  0.0782  0.2721  0.0608
95883W        W38936  23.772  24.673  16.862  0.2816  0.2453  0.0101
95884W        W38937  18.248  14.041  16.003  0.3419  0.2468  0.2006
95885W        W38938  11.497   0.869  16.359  0.0640 -0.0377  0.1592
95886W        W38939   2.191  27.758  17.457  0.1418  0.1334  0.1939
95887W        W38940  20.938   0.395  21.720  0.2882  0.1670 -0.1241
95888W        W38941  10.829  27.790  22.120 -0.0107 -0.0365  0.2813
95889W        W38942  13.133  26.669  27.264  0.0293  0.0228 -0.1011
95890W        W38943  19.142  31.337  18.221  0.1831  0.0734 -0.0135
95891W        W38944  20.548   3.494  24.916 -0.2099  0.4539 -0.2407
95892W        W38945  30.045   3.475  19.196 -0.3002 -0.1134 -0.0206
95893W        W38946  20.942  33.763  18.004 -0.3539  0.0488  0.0382
95894W        W38947  15.228  31.574  25.317  0.0215 -0.3350 -0.3267
95895W        W38948  17.731   1.734  16.288 -0.1712 -0.0170 -0.0445
95896W        W38949  15.367   7.964  24.926  0.0429 -0.0663  0.0227
95897W        W38950  21.502  29.563  16.155  0.0462  0.2805 -0.2303
95898W        W38951  17.983   9.757   8.330 -0.1111  0.3210 -0.1235
95899W        W38952  19.016   0.814  25.008 -0.0917 -0.0098 -0.2475
95900W        W38953  14.994   0.269  24.849 -0.1438  0.0876 -0.0208
95901W        W38954   5.779   2.009   5.051  0.2044  0.0122 -0.2588
95902W        W38955  24.633  31.501  16.287 -0.1054 -0.1331  0.1023
95903W        W38956  25.456  23.616  27.834  0.2734  0.2442 -0.4418
95904W        W38957  22.443  12.773  18.700 -0.0085  0.0377 -0.3239
95905W        W38958  23.135  29.495  22.944 -0.3348  0.1735 -0.0815
95906W        W38959  22.205  27.219  17.286  0.3114 -0.1145  0.0843
95907W        W38960  15.159  25.667  27.741  0.0183 -0.3906  0.1175
95908W        W38961  26.180   1.017  18.975  0.0838  0.3924 -0.2384
95909W        W38962  14.409  31.257  18.916  0.0258  0.2171  0.0203
95910W        W38963  21.564  33.287  20.232  0.0172  0.4201  0.2151
95911W        W38964  22.617  30.587  28.116 -0.3293 -0.2804 -0.3032
95912W        W38965   2.315  15.598   7.822  0.1350  0.0449 -0.0749
95913W        W38966  25.811  23.956  16.786  0.1196 -0.0754 -0.0528
95914W        W38967  23.667  25.610  17.926 -0.0397 -0.1571 -0.0420
95915W        W38968  28.354  14.192  21.716  0.4472 -0.1376 -0.2672
95916W        W38969   2.864  27.068  18.729  0.0532 -0.0085 -0.2193
95917W        W38970  17.976   5.402   4.697  0.2197  0.1776 -0.1421
95918W        W38971   0.988   8.116  16.190 -0.1438  0.0827  0.1556
95919W        W38972  14.467  22.573  14.789 -0.1153 -0.0271  0.1925
95920W        W38973  25.215  19.064  20.616  0.2082 -0.0340  0.0200
95921W        W38974  21.868  29.183  28.685  0.0089  0.1043  0.1289
95922W        W38975  19.722  21.139  15.081  0.0031 -0.3020 -0.0419
95923W        W38976  14.322  25.634  16.109 -0.1695  0.1663  0.0141
95924W        W38977  16.730  11.775  26.223 -0.2106  0.2303  0.0987
95925W        W38978  24.494  23.238   2.292  0.1638 -0.1648 -0.0177
95926W        W38979  11.277   3.187  26.198  0.1657  0.2763 -0.2630
95927W        W38980   0.054   0.302  19.902 -0.0881 -0.2978  0.1091
95928W        W38981  31.404  17.144  13.692 -0.0434 -0.0686 -0.0396
95929W        W38982  21.269   3.582  21.728 -0.0608 -0.1207  0.4639
95930W        W38983   2.183  17.497  15.433 -0.0981  0.1089  0.2005
95931W        W38984  24.053  25.335  21.594 -0.1825  0.3486 -0.1963
95932W        W38985  12.466  32.865  17.944 -0.3769  0.1266  0.0927
95933W        W38986   1.118  26.148  14.931  0.3345 -0.1938 -0.1544
95934W        W38987   6.167  18.601  21.062 -0.0382  0.1227  0.1549
95935W        W38988  19.910  10.476  26.541  0.1820  0.1009  0.0368
95936W        W38989  26.504   2.570   0.064 -0.2190  0.1385 -0.0153
95937W        W38990  12.354   0.256  14.420  0.1376 -0.0759  0.0751
95938W        W38991  33.133  29.620  17.526  0.1176 -0.1503 -0.0128
95939W        W38992   8.684  32.121  23.797 -0.0635  0.1142 -0.0240
95940W        W38993  25.644  20.175  15.664  0.2471 -0.1433 -0.1756
95941W        W38994   9.254  32.267  21.131  0.1162  0.2208 -0.2490
95942W        W38995  32.735  15.793  15.142  0.0273  0.3201 -0.0353
95943W        W38996  17.459  10.847  16.573  0.2085  0.0960  0.1756
95944W        W38997  22.414  20.489   5.298 -0.1564 -0.0080  0.0922
95945W        W38998   9.358   6.390   6.233  0.0729  0.0286 -0.3773
95946W        W38999  23.642   8.418   1.521  0.2558  0.0831 -0.1045
95947W        W39000  20.901  23.474  23.817  0.0601 -0.0017 -0.0305
95948W        W39001  22.317  33.871  14.745  0.1581  0.2290  0.3105
95949W        W39002  13.968  28.590  22.299  0.1308  0.0860  0.1956
95950W        W39003  27.604   1.180  23.709 -0.0048  0.0031  0.2238
95951W        W39004   1.476  13.855  21.136 -0.2284  0.2341 -0.2644
95952W        W39005  18.253  28.946   1.399  0.2055 -0.1746 -0.0493
95953W        W39006   6.278   2.702  18.395  0.0351 -0.3052 -0.2448
95954W        W39007  24.426  23.348  15.591 -0.1080 -0.4487  0.1067
95955W        W39008  17.145   0.207  24.513 -0.1169 -0.0916 -0.0098
95956W        W39009   8.269   6.280   1.996 -0.2603  0.2870  0.1099
95957W        W39010  22.552   6.852  26.905 -0.0912 -0.0627  0.1328
95958W        W39011  27.263  30.886  18.188 -0.3646  0.1240  0.1281
95959W        W39012   0.301   1.412  23.267  0.0421 -0.3351  0.1623
95960W        W39013  14.012   0.816  14.433  0.1304  0.0881 -0.0206
95961W        W39014  16.985   8.006  20.803 -0.0165 -0.0184  0.0488
95962W        W39015  25.733   2.892  21.193  0.0602  0.2686 -0.0240
95963W        W39016  23.379   7.714  27.055 -0.0156 -0.1795  0.1710
95964W        W39017  16.674   2.369   0.023 -0.2969 -0.0738 -0.1643
95965W        W39018  17.523  31.039  14.461 -0.1880 -0.0305 -0.1526
95966W        W39019   3.710  33.835   2.389  0.0741 -0.1168  0.1484
95967W        W39020  21.749   7.804  28.970  0.1739 -0.0631 -0.1372
95968W        W39021  14.244   8.906  16.374 -0.0803  0.0308  0.0525
95969W        W39022  18.425  32.243  16.262 -0.1327 -0.0413  0.1105
95970W        W39023   8.961  28.171  18.006  0.3225 -0.0612  0.3693
95971W        W39024   8.848   2.812  26.305  0.1221 -0.0958 -0.0062
95972W        W39025  25.526  19.592  21.273 -0.0840 -0.1121  0.2147
95973W        W39026  12.189  31.213  23.029  0.0739 -0.1399  0.0971
95974W        W39027   7.930   0.758  24.148 -0.3462  0.1931 -0.0370
95975W        W39028  21.911  31.425  16.701 -0.0642  0.0276  0.3410
95976W        W39029  22.138   2.682  25.954  0.1849  0.2405  0.0495
95977W        W39030   1.936   9.540  23.623  0.2958 -0.1669 -0.1946
95978W        W39031   3.329  18.364  13.804 -0.1316  0.0243  0.0896
95979W        W39032  26.252  28.626  16.785  0.0962 -0.1412 -0.1472
95980W        W39033  11.727   6.681  22.733 -0.3645 -0.1367  0.3318
95981W        W39034  27.782  17.136  13.868  0.2279  0.0098 -0.0762
95982W        W39035  21.386  29.275  26.895  0.3543 -0.2974 -0.0998
95983W        W39036  21.396  30.232  20.942 -0.0898  0.0494  0.3181
95984W        W39037  30.999  31.606  18.067 -0.0209  0.0507  0.0062
95985W        W39038  12.186   8.878  21.880 -0.2221  0.2063 -0.2022
95986W        W39039  11.269  24.128  18.630 -0.0221 -0.0144  0.2046
95987W        W39040  30.731  14.874   1.997 -0.2269  0.1435  0.3628
95988W        W39041  15.848  19.838  13.876 -0.0485 -0.2019  0.2166
95989W        W39042  13.317  20.252  28.321 -0.0542 -0.0244 -0.0568
95990W        W39043  16.322  25.992  23.762 -0.0035  0.1028 -0.0954
95991W        W39044  10.537  13.326  10.916 -0.1632  0.1834  0.3144
95992W        W39045  14.677   4.581  19.775 -0.0267  0.1971 -0.1349
95993W        W39046  24.174   1.108  17.771 -0.0610  0.1378  0.3840
95994W        W39047  14.522   2.604  20.301 -0.1770 -0.2530  0.0786
95995W        W39048  16.655   5.818  23.309  0.4794  0.3066  0.1927
95996W        W39049  31.820  19.353  18.303 -0.1371  0.1768  0.1965
95997W        W39050  22.500  13.651  20.282  0.0283 -0.0005  0.1728
95998W        W39051  14.969   4.883  20.068  0.2177 -0.1673  0.1255
95999W        W39052  28.669  25.939  18.319  0.2510 -0.0090  0.0782
96000W        W39053  18.658  30.067  16.397  0.4534 -0.0438  0.1656
96001W        W39054  31.563  27.271  25.725 -0.0615 -0.1830  0.2729
96002W        W39055  18.455  26.081   9.328 -0.2198 -0.0815 -0.2891
96003W        W39056  13.914  31.447  23.406 -0.3150  0.0512 -0.0170
96004W        W39057   6.377   6.331  25.417  0.2280 -0.1770  0.0124
96005W        W39058  19.378  26.627  18.884 -0.0754  0.0580 -0.1382
96006W        W39059  25.890   7.983  25.079  0.2084  0.1668  0.2499
96007W        W39060  31.988  22.172  19.006  0.3974 -0.0847  0.0239
96008W        W39061  14.709  29.881  16.632  0.1475 -0.0603 -0.1337
96009W        W39062  24.167  29.742  24.065 -0.1287  0.0051  0.1289
96010W        W39063  27.162  34.201  18.643  0.1000 -0.1136  0.1912
96011W        W39064   8.532  22.364  19.178  0.1302  0.1216  0.0188
96012W        W39065   3.654  32.869  23.358  0.1350 -0.1437 -0.1399
96013W        W39066   3.248  20.957  28.074 -0.3921  0.0979 -0.2564
96014W        W39067  21.486   0.146  15.495  0.2198 -0.2625 -0.0715
96015W        W39068   0.333   6.013  13.787  0.3652  0.2696  0.4869
96016W        W39069  15.085  28.864  14.932  0.2013 -0.1497  0.0542
96017W        W39070  14.619  18.182  16.492  0.0475 -0.2195 -0.0155
96018W        W39071  32.279   1.369  20.338  0.0656  0.0997  0.3279
96019W        W39072   9.672  26.606  17.121 -0.0377 -0.3514  0.0276
96020W        W39073  26.377  31.391  18.944  0.1189 -0.0575  0.4298
96021W        W39074  23.975  33.861   7.342 -0.0905 -0.3500 -0.1731
96022W        W39075  12.513  17.064  20.393 -0.2588 -0.1598 -0.2807
96023W        W39076  10.116  30.946   2.526 -0.0229  0.0183  0.0145
96024W        W39077  25.132  31.323  15.719 -0.0735  0.2891  0.2642
96025W        W39078  29.932  10.606  15.212 -0.2722 -0.5555 -0.0836
96026W        W39079  28.440  16.061  20.064 -0.1423 -0.0398 -0.1098
96027W        W39080  29.239   8.387  28.646  0.1052  0.0900  0.2558
96028W        W39081  13.588   4.979  19.993 -0.1982  0.1779 -0.1643
96029W        W39082  30.354  30.403  22.236  0.0997 -0.0213  0.0892
96030W        W39083   9.672  14.489  18.583  0.2688  0.0093 -0.1409
96031W        W39084  18.504  17.234  13.911  0.1554 -0.0583 -0.1804
96032W        W39085  26.572   2.669  18.619  0.2506  0.1712  0.3434
96033W        W39086  21.173  11.263  15.886 -0.1887  0.2604  0.1198
96034W        W39087  26.194   4.321  17.393  0.1681 -0.1189 -0.1973
96035W        W39088   1.106  20.576   1.919 -0.1832  0.0654  0.1171
96036W        W39089  29.901  25.903  28.317 -0.3483 -0.0524  0.2064
96037W        W39090  20.679  20.229  28.059  0.2933  0.1284 -0.1128
96038W        W39091  10.572   7.207  20.811  0.0831  0.0825 -0.1844
96039W        W39092   5.598  32.429  20.865 -0.0531  0.2694 -0.0806
96040W        W39093  26.547   6.772  16.353 -0.3545  0.1890  0.0134
96041W        W39094   2.859  24.710  13.800 -0.0001  0.1039 -0.2237
96042W        W39095   5.083  26.450  18.072 -0.0514 -0.3833 -0.0586
96043W        W39096  12.972  15.463  21.867  0.0806 -0.0807  0.0951
96044W        W39097  21.005  27.996  18.249  0.1973 -0.1138  0.1972
96045W        W39098  20.492  22.521  21.636 -0.0565  0.3871 -0.2358
96046W        W39099  30.141   8.149  23.486  0.0236 -0.1000  0.1667
96047W        W39100  21.339  30.844   1.821 -0.0493 -0.4473 -0.4245
96048W        W39101   9.697  31.008  17.884  0.3856  0.3421 -0.2290
96049W        W39102  18.527  21.850  14.523  0.0782  0.5010 -0.2170
96050W        W39103  28.967  23.992  22.960  0.1508 -0.3298 -0.0763
96051W        W39104   9.325   8.075  19.326  0.0326 -0.0504 -0.0881
96052W        W39105  15.305  22.941  27.051 -0.0338  0.0812  0.1467
96053W        W39106  28.001  24.167  13.634 -0.0251 -0.0166  0.2160
96054W        W39107  19.750   4.672  16.931  0.3282 -0.2066 -0.4369
96055W        W39108  25.650   3.278  22.188  0.2394 -0.0493  0.0910
96056W        W39109   9.595  21.366  29.015  0.0954  0.1873 -0.0851
96057W        W39110  21.238  32.067  16.065 -0.0623 -0.2411  0.1458
96058W        W39111  16.837  31.986  17.396 -0.0299 -0.0586  0.1434
96059W        W39112  20.131  14.300  17.897  0.0397 -0.2052 -0.1177
96060W        W39113  33.908  17.952  20.980 -0.0467 -0.4945  0.0361
96061W        W39114  16.493   7.389  22.010 -0.2317  0.1515 -0.0114
96062W        W39115  23.935   4.933  14.750  0.1089 -0.3185  0.0056
96063W        W39116  16.974  30.250  26.069  0.0634 -0.1170 -0.3532
96064W        W39117  18.180   4.508  27.417  0.0514 -0.3550 -0.1650
96065W        W39118  20.643   1.601  29.194  0.0402  0.0552  0.3191
96066W        W39119  33.985  34.482  22.104  0.0914 -0.0306  0.2563
96067W        W39120  18.974   1.059  17.736 -0.1199  0.2548 -0.1373
96068W        W39121  11.427   1.191  26.284  0.1777  0.3278 -0.3092
96069W        W39122  31.082  20.914  27.183 -0.1545  0.2269 -0.3552
96070W        W39123  32.504  15.236  26.218  0.0781  0.0243  0.0559
96071W        W39124  30.002   5.649  28.903  0.1392 -0.2028 -0.2516
96072W        W39125  20.229  25.465  25.248 -0.1627  0.1078 -0.2503
96073W        W39126  22.149   1.353  16.069  0.0785 -0.1769  0.0596
96074W        W39127   9.910  31.215   4.483  0.1821  0.1505  0.2635
96075W        W39128   4.815  28.292  17.142  0.3505  0.2044  0.1013
96076W        W39129  33.175   5.093  15.084  0.5254 -0.1254 -0.0342
96077W        W39130  11.893   1.564  15.084 -0.0834  0.2568 -0.3187
96078W        W39131   6.954  27.964  26.683  0.0405  0.0409  0.2993
96079W        W39132  25.981  33.993  22.797  0.0627 -0.0330  0.0996
96080W        W39133   4.446  19.763  25.374 -0.2087 -0.1663  0.3477
96081W        W39134  27.228   3.595  21.821 -0.2153  0.0946 -0.0904
96082W        W39135  11.329  28.926  18.299  0.0955 -0.3626 -0.0835
96083W        W39136  23.720  14.390   6.574 -0.3855  0.1817 -0.1420
96084W        W39137   4.025  29.447  15.559  0.0245  0.1194 -0.0336
96085W        W39138  20.131  25.281  20.583 -0.1396 -0.0441 -0.2244
96086W        W39139  26.701   0.015  20.861 -0.0626  0.1190 -0.1022
96087W        W39140  17.778   6.964  18.038 -0.4162  0.1463 -0.1412
96088W        W39141  14.614  33.512  18.311 -0.3535 -0.0282  0.1591
96089W        W39142  22.712  26.117  20.662  0.0472  0.0627  0.0868
96090W        W39143  17.272  34.281  25.450 -0.0814  0.2241 -0.1069
96091W        W39144  15.705  22.336  15.087 -0.1391 -0.0073 -0.0994
96092W        W39145  23.518  26.908  16.531  0.0232 -0.1081 -0.2331
96093W        W39146  12.396   2.237  28.221  0.0249  0.0306  0.3828
96094W        W39147   6.465  26.180  19.679 -0.0068 -0.0186  0.0735
96095W        W39148  33.073  11.020   4.551  0.0502 -0.0952  0.0126
96096W        W39149  14.961  23.058  26.556 -0.4527  0.0107 -0.0254
96097W        W39150  23.422   2.122  15.297  0.1774  0.1204  0.2221
96098W        W39151  15.192  26.189  25.203 -0.0495  0.2302 -0.2100
96099W        W39152  29.597   7.445  15.738  0.0712 -0.0496  0.2725
96100W        W39153   7.926  23.111  21.476 -0.0320 -0.2416 -0.2655
96101W        W39154  26.020   9.514   6.654  0.1014 -0.0345 -0.1442
96102W        W39155  17.544  28.124  16.360 -0.5463  0.0136 -0.1040
96103W        W39156  25.058  31.936  25.589  0.0237  0.0354 -0.1063
96104W        W39157   1.772  25.799  17.632 -0.2281  0.2407 -0.1391
96105W        W39158  10.406  14.087   8.388  0.0042  0.0881  0.1263
96106W        W39159  28.680  27.313  21.068 -0.0201 -0.1449  0.6516
96107W        W39160  20.297  14.419  16.228  0.2860  0.2699 -0.0995
96108W        W39161   8.159  25.942  17.969 -0.0658 -0.0047 -0.2104
96109W        W39162  16.061  23.147  22.105 -0.1253  0.0167  0.1930
96110W        W39163  26.524   5.400   0.841 -0.0179  0.0846 -0.2268
96111W        W39164  29.916  23.933  17.205  0.3260 -0.0754 -0.0136
96112W        W39165  11.017  32.859  26.910 -0.1217  0.3434  0.0124
96113W        W39166  14.372   8.105  19.498 -0.1674 -0.0831 -0.0005
96114W        W39167  15.418  26.629  18.482 -0.1481  0.1146  0.1256
96115W        W39168  10.963  25.692   0.830  0.0768  0.1511 -0.0069
96116W        W39169  28.157  27.295  23.661 -0.2316  0.0424 -0.2574
96117W        W39170  11.986  24.286  23.481  0.1930 -0.1201  0.0042
96118W        W39171  14.558   8.545  16.490 -0.0001 -0.0676 -0.2615
96119W        W39172  14.179  17.157  17.113  0.1382  0.0181 -0.0544
96120W        W39173  22.466  19.245  14.929 -0.3275 -0.3465 -0.1141
96121W        W39174  24.818   2.938  28.081 -0.0253 -0.2465  0.0533
96122W        W39175  34.323  30.155  21.605  0.3438 -0.0379 -0.3049
96123W        W39176  34.428  31.881  19.259 -0.2238 -0.2718  0.1584
96124W        W39177  17.290  29.300  21.914 -0.2817  0.2851  0.1241
96125W        W39178  25.914  31.628  21.757 -0.0173 -0.2373 -0.2347
96126W        W39179  19.609   8.744  17.517  0.0899  0.0819  0.2281
96127W        W39180  29.214   8.441  25.562  0.2665  0.0991 -0.0987
96128W        W39181  22.339  30.209  19.234 -0.2685 -0.3643 -0.2074
96129W        W39182  33.162  26.921  19.215 -0.0006  0.0441 -0.2585
96130W        W39183  11.219  27.052  28.408  0.0747 -0.1580 -0.2239
96131W        W39184  24.104   3.558  16.559  0.2743  0.2406 -0.0987
96132W        W39185  11.767  25.733  18.900  0.0608  0.2354  0.1870
96133W        W39186   8.943   0.393  22.988  0.0857 -0.4011  0.1230
96134W        W39187   3.847  21.158  20.309  0.2538 -0.0123 -0.0096
96135W        W39188  11.454  26.470  19.513 -0.1747 -0.0695 -0.2209
96136W        W39189  26.302   2.239  20.590 -0.0161  0.2471  0.0366
96137W        W39190   3.149   1.595  18.107  0.3234 -0.1745 -0.2145
96138W        W39191  18.293   4.718  14.754  0.0680  0.2486  0.1732
96139W        W39192   1.140  30.468  28.212  0.0737 -0.1118 -0.0344
96140W        W39193  31.765   5.211  14.674 -0.0877 -0.0081 -0.1245
96141W        W39194   4.735  34.562   7.386 -0.1885  0.4258 -0.1941
96142W        W39195  20.696  32.068  27.855  0.1753 -0.0556  0.1055
96143W        W39196  31.649  24.448  18.964  0.0857  0.0592 -0.0775
96144W        W39197  27.396  29.348  15.805  0.1150 -0.2154 -0.2510
96145W        W39198  15.928  34.479  19.559 -0.3007  0.1436 -0.0266
96146W        W39199  11.225  12.075   2.153 -0.0578  0.0318 -0.0928
96147W        W39200  13.814  10.722  17.307  0.1167 -0.1615  0.1394
96148W        W39201   8.633  25.403  19.099  0.2690  0.1377  0.0863
96149W        W39202  26.951  32.709  18.731  0.2620  0.2004 -0.0314
96150W        W39203  24.352  31.746   0.799  0.1621  0.1317 -0.1340
96151W        W39204  28.460  14.563  23.706 -0.1769  0.0152 -0.0580
96152W        W39205  17.427  19.558  26.658 -0.2284  0.2750  0.1910
96153W        W39206  21.784  23.173  15.869 -0.1227  0.4858 -0.1658
96154W        W39207  24.537  12.191  15.017 -0.0488  0.2584 -0.0840
96155W        W39208  29.411  10.508   8.296 -0.0308 -0.2538 -0.0105
96156W        W39209  30.798  30.670   1.624  0.0601 -0.1332  0.0821
96157W        W39210  21.778  33.709   5.807 -0.1268  0.1508 -0.2155
96158W        W39211   5.201   1.267  20.512  0.0692 -0.2378  0.1792
96159W        W39212   7.200  27.607  23.387  0.0939 -0.0022 -0.1151
96160W        W39213  20.086  21.435  16.635  0.1039  0.2668  0.1636
96161W        W39214  18.233  18.344  14.969  0.1398  0.1635 -0.0840
96162W        W39215  10.797  11.929   0.358  0.1704 -0.1119  0.0368
96163W        W39216  26.139   6.372  19.741  0.2322 -0.2174  0.2154
96164W        W39217   3.272  26.841  20.967 -0.0166  0.0618 -0.2225
96165W        W39218  15.973  17.972  25.212  0.0404 -0.0555 -0.1526
96166W        W39219  30.440   5.832  17.946 -0.3209  0.1034 -0.1305
96167W        W39220  12.305  31.274  24.083 -0.1442 -0.2092 -0.0458
96168W        W39221  22.730  28.554  26.130  0.1246  0.1353 -0.1462
96169W        W39222  27.095  24.481  24.872 -0.2770  0.1078  0.2119
96170W        W39223  17.757  24.481  15.772  0.0090 -0.0763 -0.0171
96171W        W39224  27.838   2.333  20.177  0.0106  0.1041  0.2113
96172W        W39225   0.432  28.877  20.695 -0.2705 -0.2174  0.0889
96173W        W39226  10.548   0.536  17.667 -0.1127  0.0488  0.0159
96174W        W39227  17.231  32.712  25.394  0.0203  0.1632 -0.0039
96175W        W39228  17.430  24.816  18.564 -0.1289  0.0406  0.2324
96176W        W39229  21.798   6.136  22.627 -0.3688 -0.0472 -0.0041
96177W        W39230  25.201  28.470  17.691  0.2721  0.1012 -0.0248
96178W        W39231   1.352   0.982   0.415  0.2721 -0.2436 -0.1660
96179W        W39232  31.316   0.522  17.932  0.2587  0.0839 -0.1312
96180W        W39233  23.009  31.732  19.986  0.1335  0.0347 -0.2052
96181W        W39234  18.576  26.430  21.780 -0.3495  0.1856 -0.0090
96182W        W39235  25.911   2.040  23.442  0.1060  0.0674  0.0717
96183W        W39236  14.175   7.697   5.663  0.0463  0.0044 -0.0001
96184W        W39237   0.761  20.597   0.528 -0.1063 -0.0576 -0.0671
96185W        W39238  21.173   1.814  28.020  0.0374 -0.0316 -0.0359
96186W        W39239   9.255  28.476  18.242  0.0373 -0.1007 -0.0517
96187W        W39240  13.899   0.272   0.281 -0.0756 -0.0937  0.0180
96188W        W39241   0.276   1.358   2.073  0.1230  0.2995 -0.1035
96189W        W39242  33.307  32.201  27.908  0.0058 -0.2624 -0.3389
96190W        W39243  17.271   4.965  14.830 -0.2280  0.0378 -0.1931
96191W        W39244  16.512   9.780   1.442 -0.2147 -0.0513 -0.0366
96192W        W39245  16.501  30.160  19.143  0.1020 -0.2012  0.0288
96193W        W39246  14.892  19.356  26.985  0.0966  0.0306  0.3851
96194W        W39247  34.250  22.260  23.385 -0.2643 -0.2169  0.3077
96195W        W39248  28.207  18.219  22.496 -0.0241 -0.0004  0.3296
96196W        W39249  25.197  18.104  17.129 -0.0008  0.0409  0.5000
96197W        W39250  25.038  22.697   1.755 -0.0568  0.0873  0.1283
96198W        W39251  18.534  30.536  22.247 -0.2123  0.3226 -0.1751
96199W        W39252   4.403  19.574  22.936  0.2698 -0.1949 -0.0747
96200W        W39253   7.620   3.256  22.347  0.2247 -0.2386  0.0497
96201W        W39254  17.179  23.155  15.000  0.4502 -0.0584 -0.0491
96202W        W39255  26.872  33.742  15.451 -0.1300 -0.1515  0.2466
96203W        W39256  21.336  18.815   8.172  0.0450 -0.0505 -0.2833
96204W        W39257  10.659  18.994  28.755 -0.1054  0.0456  0.2657
96205W        W39258  27.953   3.442  18.896  0.0490  0.1005 -0.0318
96206W        W39259   1.587  31.940  14.613 -0.1845 -0.3485  0.0529
96207W        W39260  12.007  25.481  26.321 -0.2641  0.0271 -0.1472
96208W        W39261  18.375  25.373  18.565 -0.0414 -0.2750 -0.3616
96209W        W39262  26.936  32.935   3.266  0.3296 -0.3679  0.0572
96210W        W39263  23.850  21.234  23.155 -0.1670 -0.1079  0.2757
96211W        W39264  18.491   7.394   1.540 -0.0262 -0.0748  0.0922
96212W        W39265  19.444  29.860  25.297 -0.0527  0.1390 -0.1136
96213W        W39266  20.250  33.124  17.670 -0.3887 -0.0286 -0.1031
96214W        W39267  28.464  15.174  24.443 -0.1009  0.0867  0.2078
96215W        W39268  17.945  10.917   1.441 -0.1458 -0.0182 -0.0730
96216W        W39269  25.396   5.153   1.415 -0.0810 -0.0447 -0.2068
96217W        W39270  16.665  29.830  20.726 -0.1291  0.0648  0.0484
96218W        W39271  17.114  33.855  17.850 -0.0556 -0.2459  0.1473
96219W        W39272   8.310  27.408  18.780  0.0882  0.2925  0.2216
96220W        W39273  27.148   1.596  16.135  0.1476 -0.1146  0.1901
96221W        W39274  24.624  32.003  23.949  0.1750 -0.0334 -0.0545
96222W        W39275   8.647   3.690  17.294  0.0543  0.1291 -0.1882
96223W        W39276  16.737  29.542  20.343  0.0003 -0.0153  0.1114
96224W        W39277  24.030  17.503  16.697  0.3393 -0.1865  0.1639
96225W        W39278  25.181   4.138  20.330 -0.1995  0.2586  0.2637
96226W        W39279  18.487   5.054  21.597 -0.1092  0.1867  0.4323
96227W        W39280  22.552  22.082   4.777 -0.0869 -0.2406 -0.1071
96228W        W39281  14.688   5.571  18.404 -0.1809  0.2689 -0.1494
96229W        W39282   9.295  29.711  15.823  0.0031  0.4067 -0.0388
96230W        W39283   5.813  29.136  19.780 -0.1141  0.2037 -0.1648
96231W        W39284   5.006  21.546  24.113  0.1751  0.0632  0.2888
96232W        W39285  13.871  12.315   1.733  0.0895  0.1739  0.1225
96233W        W39286   2.313  33.668  20.857  0.0323 -0.0659  0.3818
96234W        W39287  14.735   1.786  14.990  0.0587 -0.1577 -0.0192
96235W        W39288  22.175  24.799   5.228 -0.1338 -0.0563 -0.0458
96236W        W39289  18.632   4.613  27.592  0.2760 -0.2868 -0.2377
96237W        W39290  11.377  28.884  13.272 -0.0230  0.1443 -0.2032
96238W        W39291  29.941   0.545  14.382  0.2611 -0.2459 -0.0594
96239W        W39292  29.300  10.579  16.286 -0.0726  0.0225 -0.3710
96240W        W39293   1.142  19.409  16.048  0.0145  0.1897  0.1344
96241W        W39294  20.902   5.637   1.041  0.0197 -0.0913  0.0481
96242W        W39295   0.572   6.336  20.114 -0.0620  0.0232 -0.1329
96243W        W39296  11.574  26.078  24.493  0.1013 -0.2871  0.4940
96244W        W39297  14.840  34.006   9.126 -0.0033 -0.1788 -0.0902
96245W        W39298  28.919  25.619   7.761  0.4588 -0.1525 -0.1322
96246W        W39299  22.033  26.495  26.908 -0.1867  0.1416 -0.0965
96247W        W39300  16.801  23.961  27.768  0.2854  0.0561  0.2912
96248W        W39301  23.587  13.116  27.715 -0.1360 -0.0356  0.2049
96249W        W39302  25.378   5.227  18.922  0.1269  0.3629 -0.1049
96250W        W39303  25.854  19.012  14.207  0.1747 -0.1341 -0.0261
96251W        W39304  28.310  22.195   7.927 -0.2168 -0.3288  0.0191
96252W        W39305  10.579   9.358  20.043 -0.0109 -0.3095 -0.1044
96253W        W39306  34.505  28.089  14.108  0.3301  0.2006 -0.0722
96254W        W39307  11.070   0.226  17.680 -0.0728  0.0882 -0.1643
96255W        W39308  19.539  23.169  21.979 -0.1619 -0.0262  0.0750
96256W        W39309  11.525  26.599  13.996  0.2834 -0.0412 -0.0469
96257W        W39310   3.618  20.769   1.565  0.0265  0.0758  0.0777
96258W        W39311  20.712  31.478  15.982 -0.0871  0.1922  0.2737
96259W        W39312  27.037   2.221  19.760 -0.1865 -0.1576  0.1016
96260W        W39313   0.592  33.350   1.787  0.1951  0.1724 -0.1931
96261W        W39314  28.143  26.557  17.706  0.0599  0.0914 -0.0569
96262W        W39315  12.213  15.163  18.819  0.1015 -0.1242  0.1118
96263W        W39316   9.531  30.264  14.656  0.2856  0.0487  0.0441
96264W        W39317  11.944  17.136  19.768 -0.2561 -0.0338  0.3088
96265W        W39318  19.118  33.614  16.257 -0.1492  0.0381 -0.1943
96266W        W39319  34.660  25.052  24.330 -0.6361  0.3170  0.2138
96267W        W39320  18.630   1.065   0.283  0.0454 -0.2195 -0.2865
96268W        W39321  22.135  33.085  16.003  0.1363  0.1082  0.2211
96269W        W39322  26.634  25.458  14.681 -0.1624  0.1460  0.3462
96270W        W39323  11.452  32.946  18.947 -0.0320  0.2484  0.0295
96271W        W39324  29.125  21.630  28.037  0.0954 -0.0460  0.0673
96272W        W39325  12.222   1.078  21.801 -0.2569  0.0315  0.0104
96273W        W39326  32.093  20.659  14.671 -0.0693 -0.0773  0.1711
96274W        W39327  24.682  27.768  21.479 -0.0118 -0.4308  0.1590
96275W        W39328  13.787  19.394  17.645  0.1430  0.1848 -0.0987
96276W        W39329  28.557  26.287  16.331 -0.1801  0.3003  0.1801
96277W        W39330  30.145   8.689  15.947 -0.1704  0.3536  0.1347
96278W        W39331   6.404   0.653  20.054 -0.0696  0.2959 -0.1499
96279W        W39332   1.208  22.699  23.271  0.0032  0.2847  0.2268
96280W        W39333  13.558  27.480  19.726 -0.1587  0.1144 -0.1922
96281W        W39334   1.590  13.428  18.014 -0.2759  0.0404  0.0233
96282W        W39335  16.861  21.174   8.264  0.2784  0.3005  0.5484
96283W        W39336   4.811  20.282  28.088  0.0311  0.0253  0.0107
96284W        W39337  24.214  28.732  29.072  0.3267  0.0507 -0.1259
96285W        W39338  24.566  29.535  27.947  0.0839  0.2308 -0.2154
96286W        W39339  25.347  26.785  28.369  0.1651  0.0222  0.0927
96287W        W39340   9.561  26.248  28.143  0.0006  0.1415  0.2997
96288W        W39341   9.343   6.176  22.908  0.0981  0.0061  0.0197
96289W        W39342   6.267   6.602  24.959 -0.1749  0.0243 -0.1169
96290W        W39343  16.450  34.002  22.062  0.1178 -0.2727 -0.0471
96291W        W39344  10.231  12.643  19.148 -0.0454  0.0637 -0.3013
96292W        W39345  27.031  24.560  16.238 -0.2923 -0.1362 -0.2181
96293W        W39346  29.678  25.736  16.875  0.0588  0.1364 -0.3323
96294W        W39347  25.223   6.132  24.053 -0.1151 -0.0530  0.1014
96295W        W39348   8.139  10.323   8.776  0.0590  0.0602 -0.2302
96296W        W39349  24.884   7.475  14.208 -0.0841 -0.1949 -0.1181
96297W        W39350  25.560  27.670  20.296  0.0706  0.0398 -0.1930
96298W        W39351  29.103  22.718   7.570  0.0496 -0.4949 -0.2358
96299W        W39352  21.530  23.814  27.687 -0.2727 -0.1033 -0.4313
96300W        W39353  17.744  23.777  14.757  0.0463 -0.4082 -0.1767
96301W        W39354  34.363  21.477   2.022 -0.1520  0.1468 -0.3800
96302W        W39355   4.986  16.739  14.658  0.1033 -0.1027 -0.0817
96303W        W39356   6.414  22.509   7.772 -0.0290 -0.1318  0.0221
96304W        W39357  17.788   3.773  19.613  0.0426  0.0092 -0.1828
96305W        W39358  16.763   3.728  14.675  0.3451 -0.0533  0.1813
96306W        W39359  15.083  21.498  27.708  0.1378  0.0411  0.3578
96307W        W39360  13.755  23.250  15.879  0.2460  0.1722 -0.0157
96308W        W39361  27.221  25.984  16.262  0.0029 -0.0753 -0.1751
96309W        W39362  14.280  32.637  18.390 -0.1580  0.0739 -0.0198
96310W        W39363   7.778   2.935  17.692 -0.0913 -0.1358 -0.0494
96311W        W39364  16.029   3.890  20.405  0.1830  0.0109 -0.1705
96312W        W39365  16.150   7.007  25.655 -0.1557  0.2482  0.1338
96313W        W39366  17.966  28.836  25.130  0.1254  0.0783 -0.0282
96314W        W39367   8.512  32.670  17.751 -0.0821 -0.0094 -0.4005
96315W        W39368   4.598  20.026   5.503 -0.0320 -0.1037 -0.0638
96316W        W39369  19.654  12.861  28.109 -0.0202  0.0424  0.4324
96317W        W39370  24.905  26.249  14.930 -0.1875 -0.1069  0.1581
96318W        W39371  25.551  20.041  28.376  0.0341 -0.3818 -0.1296
96319W        W39372  17.211  31.968  21.337  0.1159  0.1521  0.1273
96320W        W39373  10.504  25.369   2.542 -0.1715  0.0302 -0.0385
96321W        W39374  33.830  16.026  17.795 -0.1720 -0.1029 -0.0375
96322W        W39375  22.387  27.786  25.252 -0.1301 -0.0098  0.0759
96323W        W39376  20.115  21.257  15.868  0.0424  0.4338 -0.3395
96324W        W39377   6.937   1.577  14.536 -0.0573 -0.2792 -0.0132
96325W        W39378  15.584  25.945   5.384  0.3021 -0.2127  0.5134
96326W        W39379  23.222  30.943   0.061  0.1915 -0.0703 -0.0788
96327W        W39380  16.143   1.726  18.093 -0.0409  0.3533  0.0123
96328W        W39381   6.137   3.197  25.256 -0.0718  0.0708 -0.3410
96329W        W39382  28.394  22.687  15.508 -0.2518  0.2143  0.1096
96330W        W39383  25.068   7.985  24.752  0.0929 -0.1692 -0.0780
96331W        W39384  12.220  31.938  21.978 -0.1953 -0.2122  0.1699
96332W        W39385  22.116  22.912  27.198  0.0602  0.2008 -0.2792
96333W        W39386  24.201  14.313  19.979 -0.0258  0.1415  0.3009
96334W        W39387  16.135  32.073  17.308  0.1763 -0.2729  0.1459
96335W        W39388   4.147   2.450  20.001 -0.3082 -0.3706  0.1117
96336W        W39389  18.005   1.618  17.012  0.0031 -0.0271 -0.1382
96337W        W39390  19.685  14.358  22.099 -0.1605  0.0123  0.1114
96338W        W39391  27.307   5.433   4.860 -0.3710 -0.1412 -0.1689
96339W        W39392   6.383   5.046  16.194  0.1706  0.3006 -0.2541
96340W        W39393  18.134  11.012  17.129  0.0525 -0.0728 -0.2454
96341W        W39394  19.035  25.429  15.266  0.0802  0.1506  0.0869
96342W        W39395  21.865   6.318  18.783  0.1243 -0.1497  0.0651
96343W        W39396  10.481  33.628  29.199  0.2442 -0.2675  0.0851
96344W        W39397  18.623  33.352  27.614 -0.2507 -0.1902 -0.0125
96345W        W39398  26.357  27.833  21.884  0.0844 -0.1562  0.0307
96346W        W39399   1.253  23.672  13.640  0.1759  0.2493  0.1186
96347W        W39400  22.669   1.183  19.354  0.0441  0.1410  0.1247
96348W        W39401  28.821   4.721  22.639 -0.1239  0.1521 -0.0951
96349W        W39402  24.170  19.084  15.209  0.0452  0.0109  0.1283
96350W        W39403  31.707  34.174  26.107  0.1720  0.1846  0.1509
96351W        W39404  20.184   5.786  15.381 -0.1463 -0.1526  0.1930
96352W        W39405  22.509  34.176   4.410  0.2477 -0.1882  0.1154
96353W        W39406  32.419  26.839  18.790  0.0425  0.2431  0.0041
96354W        W39407  18.008   2.003  28.625 -0.0333  0.1254  0.1478
96355W        W39408   6.936  23.533  22.881 -0.2669  0.1610 -0.1136
96356W        W39409   9.400  33.712  17.182 -0.1815  0.0869 -0.1189
96357W        W39410  32.800  29.329  19.601  0.1753  0.0935 -0.2075
96358W        W39411   3.919   6.824  25.798 -0.1007 -0.0501  0.0240
96359W        W39412  25.297  32.451  24.208 -0.1317 -0.0337 -0.0232
96360W        W39413  28.414  32.226   4.290  0.1300 -0.3703  0.3495
96361W        W39414  18.243  27.424  27.746 -0.1552  0.0034 -0.1153
96362W        W39415   8.255   1.460  20.144  0.3422 -0.2568 -0.5194
96363W        W39416  21.000  11.594  25.730 -0.0748  0.1514 -0.0177
96364W        W39417  30.456   0.086   8.650 -0.0819  0.0632  0.3469
96365W        W39418  16.591  15.596   7.248  0.0054  0.1373 -0.3206
96366W        W39419  13.281  13.168   0.117  0.0830  0.1267 -0.2291
96367W        W39420  17.098   2.063  27.937  0.0452  0.6073  0.3434
96368W        W39421  27.473   7.717  15.958  0.1721  0.0029 -0.2377
96369W        W39422  22.865  23.980  24.402  0.2424  0.1329  0.0634
96370W        W39423  16.240   9.977  20.173  0.0247 -0.0305  0.2884
96371W        W39424   9.119  29.109  15.833 -0.0451  0.2537 -0.1415
96372W        W39425   9.217  20.448   7.326  0.3121 -0.3102  0.0833
96373W        W39426  26.122  13.676  23.496 -0.0739  0.3178 -0.3632
96374W        W39427  25.312   4.303  24.901 -0.4216 -0.1464 -0.2597
96375W        W39428   7.765  26.808  26.030  0.0164  0.1339  0.1790
96376W        W39429  16.198  20.989   1.072  0.0270 -0.0931  0.1359
96377W        W39430  25.752   5.838  16.634 -0.4571 -0.0441  0.0665
96378W        W39431   7.545   8.621   5.271 -0.0715  0.1191  0.2524
96379W        W39432  27.965  17.120  23.922 -0.1256  0.3648 -0.1009
96380W        W39433  13.091  24.096  17.871 -0.2387  0.0582  0.3316
96381W        W39434  13.476   6.223   7.454  0.1616 -0.1914 -0.3113
96382W        W39435  23.979  18.116   3.983 -0.1468 -0.1425 -0.0783
96383W        W39436  27.208   0.660   3.904  0.0294  0.4155  0.0903
96384W        W39437  23.250  16.215   5.004 -0.0223  0.2308 -0.0796
96385W        W39438  20.334   2.176  17.416  0.1717 -0.1147 -0.0917
96386W        W39439  21.786  22.981  22.459 -0.2101  0.2448  0.2004
96387W        W39440  22.099  33.362   0.487  0.0617 -0.1363  0.2399
96388W        W39441   7.340  30.710  17.611  0.1930  0.0455 -0.2468
96389W        W39442  16.366   5.118  24.735  0.2989 -0.2742 -0.0876
96390W        W39443  15.763   0.251  15.301  0.2685  0.4519 -0.1216
96391W        W39444  29.853  19.654  27.210  0.2275  0.0175  0.1927
96392W        W39445  24.297  22.024  24.171 -0.1239  0.1959 -0.1403
96393W        W39446  12.033   1.834  20.354 -0.1981 -0.2807  0.2990
96394W        W39447   9.200  30.662  23.378 -0.2120  0.0839 -0.0959
96395W        W39448  25.463  24.698  26.650 -0.1150 -0.1097 -0.3375
96396W        W39449  12.794  18.861  20.143  0.0589  0.0644 -0.1934
96397W        W39450  19.779   1.054  23.802 -0.0238 -0.0161 -0.2050
96398W        W39451   8.681   2.617  21.622  0.1118 -0.1650 -0.1486
96399W        W39452  12.964  24.357  17.418  0.0845 -0.2007 -0.0913
96400W        W39453  11.380  24.009  28.394  0.0312  0.0780  0.1250
96401W        W39454  12.655  32.704   4.845 -0.0334  0.0737 -0.3526
96402W        W39455   0.369  23.586  18.306  0.1216  0.0616  0.3160
96403W        W39456  20.386  21.412   7.855 -0.1012 -0.2747  0.1962
96404W        W39457  23.528  25.499  19.927 -0.2666 -0.1481  0.1272
96405W        W39458  25.803  27.687  23.247 -0.1311  0.3720  0.0185
96406W        W39459  16.067  23.347  25.234 -0.1930  0.3290 -0.2031
96407W        W39460  24.567   4.799  16.686  0.0423 -0.0041 -0.0936
96408W        W39461  18.517   6.919  22.676 -0.1575 -0.0438  0.0135
96409W        W39462   9.686   7.097  17.654  0.1242 -0.2682  0.2280
96410W        W39463  24.937  22.631  24.415  0.1484 -0.2266 -0.0617
96411W        W39464   8.496  17.189  21.367  0.0279 -0.2023 -0.2020
96412W        W39465   1.190  30.082  24.266  0.1406  0.2397 -0.1555
96413W        W39466  17.459  30.274  19.809 -0.1193  0.3411 -0.0030
96414W        W39467  17.219  30.564  20.485 -0.1881  0.3279 -0.1166
96415W        W39468  24.172   3.165   0.661  0.1133 -0.3363 -0.2761
96416W        W39469  15.376  29.550  18.730 -0.1800 -0.1774 -0.0893
96417W        W39470  19.962  33.018   6.083  0.1829 -0.1351 -0.0245
96418W        W39471  23.996  21.864   4.707  0.2455  0.2967 -0.0402
96419W        W39472  11.967   2.611  20.965 -0.1466 -0.0656 -0.1085
96420W        W39473   2.823  21.216   0.386  0.1222 -0.0291 -0.0219
96421W        W39474  10.453  18.293  18.001 -0.1809 -0.1350  0.1986
96422W        W39475  26.863  24.786   1.700  0.0523  0.2559 -0.1106
96423W        W39476  10.211  28.415   0.659  0.3537 -0.1178 -0.0820
96424W        W39477   5.967   1.004  17.482 -0.6033  0.2403  0.2962
96425W        W39478  17.532  27.719   0.119  0.0646  0.0189 -0.0265
96426W        W39479  32.886  28.796  15.698  0.0086  0.0362 -0.4187
96427W        W39480  26.022  27.127  16.579 -0.1187 -0.1014  0.2220
96428W        W39481  15.570  16.059  15.183 -0.0991  0.2456  0.0225
96429W        W39482  21.289  30.569  21.321 -0.0439 -0.0787  0.0225
96430W        W39483  12.084  16.598  16.878  0.1549 -0.0641 -0.1213
96431W        W39484  21.335  25.586  16.008  0.1307  0.1001  0.0021
96432W        W39485  30.550  32.794  20.470  0.1328 -0.0247  0.0349
96433W        W39486  31.593   2.927  22.676 -0.0277  0.0077 -0.0033
96434W        W39487  26.305  28.093  17.950 -0.2020 -0.0019  0.1215
96435W        W39488  22.600   3.571  19.010 -0.0814 -0.1057 -0.0664
96436W        W39489  17.573   1.724  26.656  0.1252 -0.1350 -0.2094
96437W        W39490  16.944  18.134  13.529  0.0625 -0.2653  0.4399
96438W        W39491  28.055  10.266  19.120 -0.1023  0.1031 -0.3075
96439W        W39492  13.075  10.504  23.276 -0.1567 -0.1999  0.1318
96440W        W39493  22.585  28.451   7.091 -0.3936 -0.1243 -0.1881
96441W        W39494  28.549   8.706  25.717  0.3126 -0.2408  0.2976
96442W        W39495  14.358  21.123  14.946  0.0854  0.1063  0.0241
96443W        W39496  32.583  21.011  20.630  0.0399  0.0841 -0.3860
96444W        W39497   9.539   2.382  25.347 -0.1371  0.1216  0.1994
96445W        W39498   5.051  30.749  27.503 -0.0814  0.0713  0.0024
96446W        W39499  33.393  27.162  25.728  0.3286  0.0258  0.0597
96447W        W39500  24.457  27.102  19.733 -0.1513  0.2205 -0.0692
96448W        W39501   7.136   4.625  22.634 -0.0110  0.2565 -0.1618
96449W        W39502   9.454   0.424  25.375  0.0137 -0.0085  0.1660
96450W        W39503  14.727  25.005  23.036 -0.0330  0.2326  0.0402
96451W        W39504  13.068  21.429   4.922  0.3792  0.0606 -0.0466
96452W        W39505  15.158  27.728  22.600  0.2485  0.0724  0.2604
96453W        W39506   3.990  10.989  27.459 -0.0289  0.0128 -0.0489
96454W        W39507  10.657  22.482  18.402 -0.1074  0.2644 -0.1581
96455W        W39508  12.013   1.473  25.345 -0.0581  0.1336 -0.3519
96456W        W39509  14.597  11.266  23.955  0.0576  0.0594  0.0286
96457W        W39510  22.869  28.738  17.247 -0.2263 -0.1741 -0.0008
96458W        W39511  18.576  33.977  23.904 -0.1879 -0.0193 -0.2050
96459W        W39512   7.932  27.431  17.469 -0.0900  0.2643  0.1865
96460W        W39513  19.962  26.587  20.686  0.0753  0.0700 -0.0037
96461W        W39514  17.742   3.514  26.716 -0.0507  0.1084  0.1351
96462W        W39515  23.434  21.206  17.171  0.0250 -0.0572  0.0117
96463W        W39516  21.096  21.704  25.964 -0.1168 -0.2015  0.1362
96464W        W39517  19.808  25.078   3.591 -0.2206  0.1466 -0.2221
96465W        W39518  12.747  27.240  26.470  0.2043  0.3705 -0.1183
96466W        W39519  16.063  27.245  17.450 -0.0958 -0.2616  0.0011
96467W        W39520   3.669   6.668   0.415  0.1660  0.1144  0.2095
96468W        W39521  12.345  23.013  15.214 -0.0333 -0.1130 -0.1637
96469W        W39522   3.270   1.942   6.844 -0.0335 -0.0155  0.1883
96470W        W39523  23.645   7.516  19.064 -0.0718 -0.0219  0.0867
96471W        W39524  26.915   3.279  27.234 -0.2795  0.0681 -0.1726
96472W        W39525   9.303   6.629  18.286  0.1164 -0.1123 -0.0884
96473W        W39526  11.424   3.754   0.402  0.0414 -0.0758 -0.2907
96474W        W39527  24.278  27.692  25.017  0.0187 -0.0430 -0.2395
96475W        W39528  32.361  30.243  17.430  0.0025  0.1319  0.1890
96476W        W39529   0.243  28.942  15.519 -0.2167 -0.5373 -0.0603
96477W        W39530   4.825   3.316  26.971 -0.0332 -0.3058 -0.4036
96478W        W39531  14.541   3.291  25.938 -0.1988 -0.0140 -0.1539
96479W        W39532  21.564  14.183  23.842  0.1623  0.2296 -0.1694
96480W        W39533  24.174   9.906  15.920 -0.2182  0.0278 -0.0054
96481W        W39534  28.545  26.315  14.883  0.0950  0.0523  0.3575
96482W        W39535  14.511  18.856  28.909 -0.1837 -0.0157  0.2007
96483W        W39536  26.780  21.297  25.044 -0.2165 -0.0591 -0.2208
96484W        W39537  21.470  22.303  19.442 -0.1828  0.0281 -0.0517
96485W        W39538  26.639   1.328  19.901 -0.0787 -0.1100  0.0052
96486W        W39539  17.773  28.534  23.994  0.1919 -0.1853 -0.2701
96487W        W39540  30.398  32.928  17.707  0.2936 -0.0980  0.2439
96488W        W39541  29.383  30.129  24.856  0.0841 -0.0845 -0.0774
96489W        W39542  33.039   2.109  23.398  0.3382 -0.0748 -0.1152
96490W        W39543  15.000  27.318  25.164 -0.0339  0.2992  0.2797
96491W        W39544  28.780  29.732  19.252 -0.2763  0.1411 -0.0371
96492W        W39545  17.179  33.599  28.899  0.1140 -0.2886  0.3217
96493W        W39546  11.631   5.951  16.383 -0.1503 -0.1235 -0.3068
96494W        W39547   7.317  22.861  14.487  0.1858 -0.0123  0.2966
96495W        W39548  27.336   5.381  17.035 -0.0141 -0.2399 -0.1695
96496W        W39549  20.425   8.982  26.736  0.2178 -0.0100 -0.2650
96497W        W39550  32.655   6.772  14.737  0.2446 -0.3381  0.2622
96498W        W39551  21.793  28.210  22.587  0.2567 -0.0229  0.1483
96499W        W39552  13.301   6.010  20.439 -0.2472 -0.1316 -0.2412
96500W        W39553  19.745  29.036  25.979  0.0809 -0.1212  0.0635
96501W        W39554   4.507   4.816  19.701 -0.0775 -0.0949  0.0892
96502W        W39555  21.344  24.285  22.354 -0.0010 -0.1556 -0.3895
96503W        W39556  15.291  30.830  21.964 -0.1030 -0.0731 -0.0449
96504W        W39557  20.954   2.195  15.004  0.0465 -0.1601 -0.1104
96505W        W39558  15.018  10.110  28.732 -0.4012 -0.2015  0.2020
96506W        W39559  19.568  10.328  23.029  0.2396 -0.0178 -0.0745
96507W        W39560  19.975   2.405  18.332 -0.1263 -0.0167  0.1639
96508W        W39561  27.020  23.463  15.666 -0.2495  0.1852 -0.0077
96509W        W39562  30.381   1.346   5.504  0.3249 -0.2535  0.2673
96510W        W39563  17.046   2.506  27.044 -0.2025  0.0022 -0.2074
96511W        W39564  17.947   1.319  27.563  0.2009 -0.0705  0.0307
96512W        W39565  26.232   9.623  14.538  0.0014 -0.2216  0.0564
96513W        W39566  31.462  15.077  22.786  0.2751  0.5227 -0.3383
96514W        W39567  30.859   1.612  22.147  0.1131  0.0167 -0.0501
96515W        W39568  21.150   9.855  15.607  0.3215  0.1396  0.0608
96516W        W39569   7.989   3.783  19.327  0.1812  0.2841 -0.2165
96517W        W39570  21.011  28.447  16.936  0.0314 -0.4400 -0.0948
96518W        W39571  25.821   4.138  15.249 -0.0421 -0.2088  0.1896
96519W        W39572  28.969  32.572  23.629 -0.0598 -0.2870  0.3297
96520W        W39573  16.872   8.615  28.370 -0.0360 -0.0468  0.2054
96521W        W39574  11.386  25.890  16.796 -0.2031 -0.0251 -0.0293
96522W        W39575  26.919  22.441   3.088  0.6010  0.2319  0.0241
96523W        W39576  10.574  19.859  19.181 -0.1296 -0.0004  0.2674
96524W        W39577   8.436  27.308  27.736  0.0237 -0.3022 -0.0337
96525W        W39578  23.882  34.242  19.868 -0.1218 -0.0369 -0.0026
96526W        W39579  23.742  31.242  17.373 -0.0132 -0.0052  0.1133
96527W        W39580   7.698  23.769  19.144 -0.1615  0.1257 -0.0400
96528W        W39581  18.224  29.698  21.501 -0.2730  0.3242  0.0325
96529W        W39582  31.991   8.550  18.834  0.0810  0.2706 -0.1235
96530W        W39583  34.599  26.763   3.676  0.1258 -0.1614 -0.2755
96531W        W39584  16.401  21.713  22.683  0.3390  0.0080 -0.1108
96532W        W39585  17.236  12.375   1.747 -0.0355  0.0356 -0.1016
96533W        W39586  11.601  12.896   3.688  0.1986 -0.1628  0.0673
96534W        W39587  16.297  28.866   6.007  0.0257 -0.1829 -0.1025
96535W        W39588  18.706  26.775  23.288  0.0807  0.2804 -0.0716
96536W        W39589  30.139  20.847  27.294 -0.2198  0.0630  0.0324
96537W        W39590   3.527  11.338  29.116 -0.1117  0.1131  0.0470
96538W        W39591  30.957  26.289  27.121  0.1612  0.0964  0.1117
96539W        W39592  20.096  20.855  28.292 -0.1357  0.0279 -0.0629
96540W        W39593  21.984  10.833  26.397 -0.6379  0.0749  0.0099
96541W        W39594   7.760  13.010  16.094  0.1465 -0.1475 -0.0943
96542W        W39595  13.165  33.260  14.566 -0.0251  0.1138  0.2002
96543W        W39596   2.483   6.073  21.037 -0.1518 -0.0273  0.2280
96544W        W39597  13.335   3.061  25.937 -0.0936  0.1765 -0.0047
96545W        W39598  31.926   8.340   6.717 -0.0012  0.0236  0.0903
96546W        W39599  19.880  11.144  14.543  0.2463  0.2712 -0.1889
96547W        W39600  19.026   6.355  21.480 -0.1521 -0.3688  0.1691
96548W        W39601  24.009  24.839  29.011  0.1795  0.0292 -0.0375
96549W        W39602   5.948  24.075  28.638  0.1462 -0.1439  0.0469
96550W        W39603  31.217   5.620  18.510  0.0271  0.1453 -0.2622
96551W        W39604  24.622  33.313  28.803 -0.1012  0.1886 -0.3217
96552W        W39605  13.509   5.394  25.502 -0.0746 -0.1100 -0.0290
96553W        W39606  16.927  34.116  27.034 -0.3481 -0.0188 -0.2055
96554W        W39607  23.829  17.063  18.684 -0.1163 -0.2506  0.1329
96555W        W39608  25.053  27.362  15.108 -0.0685  0.0620  0.2958
96556W        W39609  13.070  34.215   0.647  0.1046  0.0831 -0.0215
96557W        W39610   0.876  23.550   0.423 -0.2119  0.3920  0.3089
96558W        W39611  27.299   2.932  16.078  0.0482  0.1031 -0.1375
96559W        W39612   3.209  30.393  23.584 -0.0953 -0.0451  0.0731
96560W        W39613  10.983  17.420  15.597  0.1002 -0.0744  0.0488
96561W        W39614  27.125  16.678  18.611  0.1604  0.0845  0.0243
96562W        W39615  27.599  13.163  26.496 -0.1590 -0.0236 -0.1076
96563W        W39616  18.810   3.209  21.190 -0.1348  0.1015 -0.1881
96564W        W39617  33.006  33.042  22.803 -0.2825  0.1525  0.0584
96565W        W39618  25.938  21.808  15.635  0.0169  0.2959 -0.0075
96566W        W39619  13.160  24.183  20.872  0.0518 -0.2016  0.0944
96567W        W39620  11.819  26.978  20.347 -0.3239  0.0275  0.0459
96568W        W39621  19.446  29.287  22.973 -0.2756  0.0478  0.0135
96569W        W39622  31.881   0.032  20.249  0.1077  0.1794 -0.1441
96570W        W39623  12.863  33.425  27.263 -0.3624 -0.1296  0.2371
96571W        W39624  30.013   3.734  21.786  0.2635 -0.0770 -0.1671
96572W        W39625  18.511  27.107  26.275  0.0312 -0.0616 -0.0756
96573W        W39626  25.099  34.424  17.728  0.2627  0.0221  0.2382
96574W        W39627  20.844  20.669  15.510 -0.1477  0.0331  0.0659
96575W        W39628  20.379  26.323  22.585 -0.0855  0.2016 -0.0620
96576W        W39629  16.946  30.674  27.836 -0.0509  0.0591  0.1468
96577W        W39630  23.056  33.827  20.149  0.1675  0.3545  0.1250
96578W        W39631  19.289  25.029  16.121 -0.0056 -0.1559  0.2135
96579W        W39632  14.769  25.847  18.794  0.0791  0.3099  0.0714
96580W        W39633  15.271  16.760   1.696  0.1969 -0.2432 -0.2022
96581W        W39634  14.762   6.277   2.463  0.0838 -0.0166 -0.0803
96582W        W39635  12.953   3.806  22.853 -0.1108  0.3397 -0.1353
96583W        W39636  21.061  32.605  19.856  0.4008  0.1536  0.0907
96584W        W39637  21.241  21.311  18.678  0.4013  0.0331 -0.1544
96585W        W39638  26.814  31.522   5.105  0.1678  0.2452 -0.1091
96586W        W39639  17.356   2.226  25.928  0.4177  0.0548  0.0604
96587W        W39640  20.992   2.334  19.311 -0.1418  0.1438  0.4682
96588W        W39641  20.594   5.526  16.947  0.1225 -0.0907 -0.1115
96589W        W39642  31.103  21.555   8.534 -0.1598 -0.2679 -0.2240
96590W        W39643  23.973   9.803  26.324  0.0264 -0.5070 -0.0520
96591W        W39644  23.049   6.059  22.128  0.0620 -0.3687  0.1170
96592W        W39645  14.127  31.074  22.647  0.0667 -0.0760  0.0736
96593W        W39646  19.068  28.281   0.379 -0.1625  0.2204 -0.1504
96594W        W39647  24.623  26.131  26.001  0.1539 -0.1665 -0.1524
96595W        W39648  24.164   0.706  22.765  0.0359 -0.0409  0.0416
96596W        W39649  25.193   6.130   8.935  0.0019 -0.0699 -0.1150
96597W        W39650  17.080   8.406  27.549 -0.1128  0.2132  0.0664
96598W        W39651   6.611  10.970  16.139 -0.0686 -0.2354 -0.0620
96599W        W39652   9.788  31.715  14.755  0.3961 -0.2421 -0.4513
96600W        W39653  12.983   5.844  28.213  0.1046 -0.0557 -0.0868
96601W        W39654   5.610   7.228  21.508  0.2138  0.1464  0.3120
96602W        W39655   7.032  32.847   4.834 -0.1981  0.0125 -0.0110
96603W        W39656  22.935  19.718   9.577  0.0466 -0.2782  0.2496
96604W        W39657  19.814  24.705  16.212 -0.0547  0.2696  0.1117
96605W        W39658   6.371   3.753  23.425 -0.1574 -0.4331  0.2943
96606W        W39659   9.712  30.021   5.392 -0.2730  0.1783  0.1563
96607W        W39660   1.804   2.227  18.476  0.2374  0.0581  0.0344
96608W        W39661   2.639  25.434  27.446  0.1491  0.1797 -0.1519
96609W        W39662   0.906  34.379  27.286 -0.0678 -0.0122  0.0694
96610W        W39663  20.195   9.120  12.591 -0.2454  0.1347 -0.0473
96611W        W39664  14.981  29.280  18.664 -0.0488 -0.0100  0.1400
96612W        W39665   5.505  15.596  27.298 -0.0450  0.0476  0.3408
96613W        W39666  19.291  24.786   5.449  0.1693  0.1846 -0.0971
96614W        W39667  30.250  24.508  28.019  0.1081  0.1568 -0.0211
96615W        W39668  23.528  25.062  16.671 -0.0693 -0.1292 -0.1197
96616W        W39669  34.674  33.035  19.077  0.2061  0.1387 -0.2561
96617W        W39670   6.407  24.279  15.263 -0.0116 -0.1249 -0.0108
96618W        W39671  32.092   0.168  21.316 -0.3128  0.1329  0.0853
96619W        W39672  22.101  19.818   2.664 -0.3621 -0.1959  0.2865
96620W        W39673   3.505  20.041  14.010 -0.2175  0.2950 -0.0892
96621W        W39674  22.056   7.969  22.243  0.1012  0.1722  0.2174
96622W        W39675  15.364   1.063  23.977  0.0459  0.0071  0.0077
96623W        W39676  26.818  32.474  20.422 -0.1757  0.0880 -0.2188
96624W        W39677  23.257  12.129  17.306  0.0565  0.3801  0.1189
96625W        W39678  18.015  25.497  22.115  0.2785 -0.3266  0.0407
96626W        W39679  23.729   7.988  22.238 -0.3288  0.1366 -0.1110
96627W        W39680   7.214  25.677   5.882  0.0164 -0.1557 -0.0789
96628W        W39681   8.251  23.020  22.382  0.4294 -0.2806  0.0828
96629W        W39682   9.339  15.200  20.139  0.2868  0.1674  0.1372
96630W        W39683   1.763  23.006  27.384 -0.0677 -0.1828  0.3500
96631W        W39684  30.414  17.913  17.154  0.2106 -0.3136  0.0374
96632W        W39685  18.273  22.134  16.078 -0.1192 -0.0042  0.0864
96633W        W39686  27.703   0.953  15.084  0.0403  0.2020 -0.1993
96634W        W39687  11.755  31.926  17.138 -0.0060  0.0337  0.1195
96635W        W39688  20.861   7.885  17.232  0.3941 -0.2536  0.0248
96636W        W39689  16.496  31.532  15.339 -0.1263 -0.2234  0.0684
96637W        W39690  21.482  30.889  26.080 -0.0373 -0.0801  0.1092
96638W        W39691  31.153  34.000  14.282  0.1964  0.2203 -0.1553
96639W        W39692  27.124   5.277  20.463 -0.1948  0.0777 -0.0852
96640W        W39693  22.888   5.504   2.423  0.0195 -0.3816 -0.1032
96641W        W39694  19.344  31.342  17.730  0.1282  0.1101  0.1458
96642W        W39695  12.754  19.302   3.920 -0.1841 -0.1204  0.0757
96643W        W39696  21.262  34.341  24.966  0.0262  0.2515  0.3170
96644W        W39697  26.889  27.345  16.429  0.0581  0.0253 -0.0446
96645W        W39698  10.573  19.488  20.798  0.1615  0.2591 -0.3558
96646W        W39699  20.066  29.252  25.654  0.3213 -0.0169 -0.0330
96647W        W39700  31.874  10.953  20.135 -0.0947  0.0365 -0.0619
96648W        W39701   1.088   2.412   7.698 -0.0747 -0.1312  0.0900
96649W        W39702  29.218  29.718  23.725 -0.2644 -0.2283  0.1156
96650W        W39703  20.954  13.688  26.053  0.2597  0.2523  0.0928
96651W        W39704  29.539  23.491  22.558 -0.5389 -0.4143  0.1463
96652W        W39705   0.658   4.062   7.676 -0.2531  0.0626 -0.1771
96653W        W39706   5.747  27.890   0.276 -0.3358  0.2762 -0.0026
96654W        W39707   6.550   2.160  21.495  0.0058  0.0106  0.1035
96655W        W39708  31.833   7.061  17.783  0.2551 -0.1287  0.1164
96656W        W39709  22.880  22.319  23.668  0.0765 -0.2026  0.0561
96657W        W39710  21.717  25.300   4.668  0.1515 -0.0841 -0.0690
96658W        W39711   0.451  10.072  20.427  0.0415  0.1149  0.4251
96659W        W39712   2.654  23.728   4.773 -0.1339 -0.3107 -0.1325
96660W        W39713   4.484  14.147   2.726 -0.2297 -0.0050  0.0621
96661W        W39714  17.916   5.759  14.502  0.0696 -0.1939 -0.2344
96662W        W39715  28.700  28.198  26.582  0.0225  0.1330  0.1066
96663W        W39716  18.396  16.195  24.105  0.2762 -0.1134  0.0320
96664W        W39717   8.524  24.493  18.379 -0.0935 -0.1256 -0.2369
96665W        W39718  28.191  32.661  22.671 -0.1880 -0.1042 -0.0175
96666W        W39719  14.662  24.506  21.975  0.3618 -0.1269 -0.0326
96667W        W39720   7.533  25.131  15.774 -0.1527 -0.3122 -0.1963
96668W        W39721  17.738  31.341  15.838 -0.0582  0.2085 -0.0340
96669W        W39722  12.864  25.586   5.547  0.0596  0.0751 -0.2397
96670W        W39723  28.245   4.229  26.834  0.2442  0.2859  0.0998
96671W        W39724  24.029  32.357  18.641 -0.1365  0.2898 -0.0281
96672W        W39725  16.092  19.433  22.544 -0.1017 -0.0953  0.0143
96673W        W39726  24.288  34.672  19.169 -0.2763  0.2058  0.1009
96674W        W39727  26.749   6.659  15.420 -0.3334 -0.1333 -0.1005
96675W        W39728  19.236  27.138  26.066  0.0175  0.1057 -0.1446
96676W        W39729   8.319   2.018  27.472 -0.2800  0.2653 -0.0256
96677W        W39730  24.560  24.843  24.980  0.1685 -0.1134  0.5005
96678W        W39731  25.951  22.248   8.170 -0.1592 -0.0130  0.3213
96679W        W39732  11.979  32.307   3.918  0.1902  0.2801  0.2282
96680W        W39733  26.485   7.147   6.832 -0.2528 -0.1445  0.1105
96681W        W39734  21.136   9.987  29.188 -0.2743  0.1757  0.0997
96682W        W39735  16.925   0.695  24.457  0.4689 -0.0331 -0.1378
96683W        W39736  10.285  11.488  20.072  0.1358 -0.4851 -0.1149
96684W        W39737   9.888   1.928   1.405 -0.1417 -0.4328  0.0642
96685W        W39738  11.951   9.260  25.879 -0.0822 -0.0011  0.1769
96686W        W39739  11.608   8.738  23.588  0.0476 -0.0896  0.0409
96687W        W39740  21.145  19.387  22.832  0.0137  0.1392  0.4037
96688W        W39741  14.848  26.526  14.681 -0.2085 -0.0721 -0.2461
96689W        W39742   2.157  21.363  24.701 -0.0144  0.0490 -0.3462
96690W        W39743  14.463  17.413  25.004  0.0233 -0.4172 -0.4680
96691W        W39744  22.032  32.887  24.779 -0.1559  0.0900  0.1404
96692W        W39745  22.890  16.025  14.519  0.3642  0.0034 -0.2098
96693W        W39746  27.476  34.259   4.571 -0.1485 -0.0148 -0.0844
96694W        W39747  27.411   0.453   1.373 -0.0257  0.0941  0.0161
96695W        W39748  19.306  27.280  17.392  0.1143 -0.3093 -0.0200
96696W        W39749  30.122  27.715  14.264 -0.0241 -0.1536  0.3204
96697W        W39750  25.742   9.787  21.255 -0.0796 -0.4697 -0.3632
96698W        W39751  20.180   5.331  15.073 -0.0799 -0.1470 -0.1043
96699W        W39752  28.619  29.405   6.632 -0.1127 -0.2455 -0.1651
96700W        W39753  24.524  22.657  14.891 -0.0856 -0.0006 -0.0315
96701W        W39754  19.269  10.833  28.336  0.1843  0.1675  0.2469
96702W        W39755  11.557  19.521  20.747  0.0561 -0.0473 -0.0467
96703W        W39756  32.006   7.930  18.856 -0.0043  0.0572 -0.1582
96704W        W39757   1.678  19.060  21.364  0.1590  0.3676  0.2099
96705W        W39758  32.268  31.579  25.936  0.1625 -0.2535  0.2942
96706W        W39759  17.225   2.943  22.131 -0.2518  0.0645 -0.3275
96707W        W39760  14.993  27.567  20.604  0.1697 -0.1338 -0.2100
96708W        W39761  29.563  31.310  10.004  0.0127  0.4180  0.1476
96709W        W39762  22.094  20.239  25.082  0.0841 -0.1146  0.3359
96710W        W39763  28.684  10.617  15.114  0.1033  0.0707 -0.3065
96711W        W39764  17.878   0.322   3.242 -0.2827  0.2902  0.0362
96712W        W39765  11.909  33.213  17.261  0.1834 -0.1320 -0.1044
96713W        W39766  29.710  22.320  17.629 -0.2318 -0.1991 -0.0529
96714W        W39767  22.547   1.689  27.870 -0.0743 -0.2632  0.0095
96715W        W39768  30.149  22.651   6.257 -0.0722  0.0776  0.2613
96716W        W39769  15.625  25.155  16.496  0.0515  0.0811  0.1286
96717W        W39770  22.585   1.607  20.629 -0.0753 -0.1812 -0.1216
96718W        W39771  26.186  25.675  16.654 -0.0677  0.2910  0.2601
96719W        W39772  32.006  26.166  20.566  0.2504 -0.3232 -0.2980
96720W        W39773  26.796  15.397  18.568  0.3056  0.0876 -0.1199
96721W        W39774  34.335  21.159  22.445 -0.2140 -0.1474  0.0485
96722W        W39775   6.778  19.371  27.054 -0.2836 -0.0175  0.0812
96723W        W39776  27.394  23.857  18.364 -0.0070 -0.0154 -0.2268
96724W        W39777   4.557   2.575  19.578 -0.1903  0.2593 -0.2864
96725W        W39778  23.317  31.780   2.670 -0.0326  0.0899  0.0599
96726W        W39779  32.601  30.698  20.774 -0.1246 -0.1191  0.0320
96727W        W39780  30.295  32.682  19.675 -0.2058 -0.0918 -0.2315
96728W        W39781  15.602  24.903   1.401 -0.1916 -0.0572 -0.0053
96729W        W39782  32.785   1.478  17.710 -0.0355 -0.0636 -0.2439
96730W        W39783  15.621   7.477  22.307 -0.1114  0.3123 -0.1103
96731W        W39784  21.883  10.326  17.360 -0.0378 -0.0274 -0.0092
96732W        W39785  17.689   8.423  21.607 -0.1238 -0.1535 -0.2595
96733W        W39786  25.698  17.494  14.988  0.2286  0.1126 -0.1328
96734W        W39787  21.608  34.393  20.856 -0.1335  0.1526 -0.0463
96735W        W39788  24.875   1.129   7.218 -0.1275  0.4122  0.0637
96736W        W39789  15.839  33.392  19.667 -0.1060  0.0828 -0.4230
96737W        W39790   9.177   9.882  22.962 -0.0834  0.0313 -0.3098
96738W        W39791  25.036  19.389  19.855 -0.0473  0.0965  0.0496
96739W        W39792  13.087  34.241  21.579 -0.0269 -0.1822 -0.0443
96740W        W39793   1.330   0.216  22.341 -0.0385  0.3288  0.2784
96741W        W39794  16.307  30.817  27.216 -0.0075  0.0020  0.0909
96742W        W39795  13.407  24.004  25.044 -0.2131  0.0668  0.3042
96743W        W39796  23.162  18.198  25.446  0.1607 -0.0720 -0.0069
96744W        W39797  30.364  32.997  17.218  0.1184  0.0873 -0.3417
96745W        W39798  32.977   5.680  25.729 -0.2244 -0.0269  0.1639
96746W        W39799  33.384  17.739  16.473  0.1630 -0.2468  0.2499
96747W        W39800   7.530  28.760  17.883  0.0961  0.2408  0.2044
96748W        W39801  13.767  34.344   9.892  0.0355 -0.0856  0.2948
96749W        W39802  21.393  23.769  16.847  0.0791 -0.0416  0.1219
96750W        W39803  28.808   5.979  18.428 -0.2301  0.1066 -0.0372
96751W        W39804  20.751  12.155  15.968 -0.0081  0.1987  0.0551
96752W        W39805  24.104   4.077  14.431  0.0859 -0.0493 -0.2606
96753W        W39806   9.436  26.703  21.324  0.3364  0.0331 -0.0784
96754W        W39807  14.652   8.211   3.074 -0.0295 -0.0581  0.0080
96755W        W39808  26.581   1.219   8.704  0.1745 -0.1432  0.2872
96756W        W39809  10.380  18.081  18.866  0.0253 -0.1464  0.1651
96757W        W39810  25.824  23.861  24.666 -0.2619  0.0091 -0.0945
96758W        W39811  23.052  33.517  16.495 -0.2571  0.1891 -0.1295
96759W        W39812   5.806  19.641  28.607  0.1830 -0.2604  0.0179
96760W        W39813  23.016  26.148   7.343  0.0276 -0.0005  0.0714
96761W        W39814  17.823  30.238  23.140 -0.1741  0.3559 -0.1107
96762W        W39815  13.565   9.873  26.716 -0.1269 -0.1977  0.0445
96763W        W39816  26.917  20.735   2.357 -0.2171 -0.1360 -0.4300
96764W        W39817  30.890  26.139  19.463 -0.1972 -0.1758  0.2221
96765W        W39818   5.201  15.326  22.948  0.1096  0.0019 -0.0956
96766W        W39819  15.864  32.680   3.982  0.1362  0.2651 -0.2011
96767W        W39820  34.404   3.914  26.420 -0.1657 -0.1780 -0.1508
96768W        W39821  12.553  26.111  18.378  0.1462  0.1092  0.3311
96769W        W39822   9.059  25.762  18.992  0.1001 -0.0288 -0.1518
96770W        W39823  17.488  32.834  27.367  0.0939 -0.0987  0.0008
96771W        W39824   4.811   7.311  16.469  0.0735  0.0003 -0.0614
96772W        W39825   2.790   1.241  21.061  0.0499  0.0595  0.0350
96773W        W39826  21.698  26.398   6.753 -0.3253  0.1465  0.0792
96774W        W39827  30.626  26.186  14.927  0.0604  0.2414 -0.1210
96775W        W39828  31.720  34.129  23.168 -0.2717  0.0988  0.2133
96776W        W39829   4.112   2.272  19.526  0.1919  0.1341 -0.2608
96777W        W39830   5.775  11.839  23.011 -0.0209  0.6963  0.3520
96778W        W39831  12.676  24.872  18.299 -0.1207 -0.0195 -0.3218
96779W        W39832  23.662  27.673  15.467 -0.0901 -0.2161 -0.1900
96780W        W39833  20.772  14.656  26.905 -0.2992  0.0896  0.2093
96781W        W39834  30.171  17.091   6.240 -0.0228 -0.2071  0.1840
96782W        W39835  17.449  21.785  28.426 -0.1925  0.0712 -0.2571
96783W        W39836  13.995  28.536  23.285 -0.4583  0.0987 -0.0366
96784W        W39837  25.506  26.243   8.278 -0.2213  0.2562 -0.3069
96785W        W39838  22.306  33.068  17.214 -0.1624 -0.2274 -0.0786
96786W        W39839  21.696  30.240  16.923  0.2190  0.0742 -0.0202
96787W        W39840   0.438  28.995   3.496  0.1794  0.2064 -0.1172
96788W        W39841  24.374  27.756  17.020  0.0961  0.1360  0.0125
96789W        W39842  17.225  25.436  23.909  0.0388 -0.1754 -0.0972
96790W        W39843  19.638  26.141  23.147 -0.3719 -0.1218 -0.0387
96791W        W39844  20.398   8.050  27.225  0.2623 -0.0568 -0.1827
96792W        W39845   1.054  28.381  16.394  0.3217  0.2046 -0.1043
96793W        W39846  28.664   1.260  19.529  0.1567  0.0894 -0.0444
96794W        W39847  34.430  22.643   0.270  0.1253 -0.0549 -0.0242
96795W        W39848  13.798   1.069  17.923 -0.2286  0.1878 -0.2695
96796W        W39849  33.555   3.008  28.407 -0.0775  0.1123 -0.2416
96797W        W39850   5.689  13.886   2.134 -0.1547  0.0348 -0.1745
96798W        W39851  17.573  25.439  25.767 -0.1577  0.1405  0.1407
96799W        W39852  27.183  27.347   7.616 -0.1713  0.1439 -0.1385
96800W        W39853  10.137  18.799  24.435 -0.2326  0.0813  0.3356
96801W        W39854  24.812  28.314  15.819  0.0289 -0.1378 -0.0870
96802W        W39855   3.357  18.807   6.755 -0.1023 -0.0849  0.3865
96803W        W39856  23.314   1.082  25.620  0.0702  0.2534 -0.0440
96804W        W39857  13.284   0.006  17.540  0.2174  0.0759  0.0606
96805W        W39858  30.098  26.717   0.620 -0.0150  0.0313  0.1201
96806W        W39859   1.084  21.823  17.591 -0.0789 -0.0649 -0.1319
96807W        W39860  20.598  33.902   3.792 -0.1171 -0.0304 -0.0592
96808W        W39861  27.114  11.570  19.837 -0.1779 -0.0427 -0.2493
96809W        W39862  22.680  15.078  15.811  0.2019 -0.0994  0.1797
96810W        W39863   1.458  10.428   1.811  0.0016 -0.1171 -0.0501
96811W        W39864  26.327  25.499  17.521  0.0604  0.1167 -0.0882
96812W        W39865  29.178  31.565  16.631 -0.0904  0.0265  0.2897
96813W        W39866  26.727  23.059  14.004 -0.1446  0.0064  0.0325
96814W        W39867  17.625  25.692  22.679  0.0100  0.3564  0.1474
96815W        W39868  27.517  22.032  18.705 -0.2304 -0.0017 -0.1532
96816W        W39869  20.292  27.673  24.286  0.0687 -0.0359 -0.0523
96817W        W39870  16.481  21.371  15.971 -0.1840 -0.3231 -0.0543
96818W        W39871  27.582  20.539  17.169  0.0756 -0.2313 -0.0194
96819W        W39872  10.255  34.312  23.039  0.4341  0.0498  0.0358
96820W        W39873  20.270   1.264  22.973 -0.1998 -0.0583  0.1729
96821W        W39874  11.728   4.530  18.782  0.2778  0.3532 -0.1706
96822W        W39875  11.767  17.026  17.683 -0.0905  0.1466  0.0735
96823W        W39876  18.807  28.440  15.697 -0.0735  0.4965  0.1555
96824W        W39877  16.590  31.707  25.556  0.2430  0.0724 -0.2019
96825W        W39878  34.253  17.229  22.497  0.0959  0.0716  0.0437
96826W        W39879  11.908   8.794  21.437  0.0601  0.1900  0.1069
96827W        W39880  18.083  31.199  22.180  0.0728  0.2659  0.2587
96828W        W39881  31.627  23.948  23.841 -0.2317  0.0109  0.0563
96829W        W39882  20.816  26.863  18.429 -0.0319 -0.0738 -0.0095
96830W        W39883  18.735   8.765  25.359  0.0880 -0.0353  0.1760
96831W        W39884   3.190  29.276  23.445 -0.1261 -0.1284  0.0217
96832W        W39885  28.767   0.197  25.473 -0.0411  0.0523  0.1748
96833W        W39886  28.056  20.943   8.093 -0.1010 -0.0028  0.2960
96834W        W39887   1.245  23.588  18.874 -0.0243 -0.0065  0.3044
96835W        W39888  19.029  28.571   8.102 -0.0857 -0.1324 -0.1696
96836W        W39889   9.049  28.229  23.096  0.0045 -0.1631  0.0123
96837W        W39890  24.895  33.531  20.515  0.0468  0.0342 -0.2023
96838W        W39891  24.061  14.816  16.928 -0.1886  0.1150  0.0549
96839W        W39892  27.899  12.818  16.898  0.0856  0.0119  0.2904
96840W        W39893   8.640  18.711  26.847 -0.1325 -0.3992 -0.0688
96841W        W39894  14.064  23.959  24.449  0.0740 -0.3670  0.1815
96842W        W39895  18.970   6.477  20.519 -0.2714  0.1177  0.0093
96843W        W39896  24.390  31.882  15.586  0.3229  0.2982 -0.4308
96844W        W39897  19.006  28.306  25.927  0.1141  0.3143 -0.0971
96845W        W39898  14.527  22.175   3.202  0.2467  0.3022 -0.0880
96846W        W39899  27.469  20.866  19.371  0.1511 -0.0002 -0.0979
96847W        W39900   9.434  13.438   6.008 -0.1088  0.3324 -0.0964
96848W        W39901   9.247  18.343  19.325  0.2515 -0.0075 -0.0760
96849W        W39902  21.161  32.732  16.680  0.3370 -0.3498  0.0461
96850W        W39903  24.460  20.826  20.443 -0.0485 -0.1642  0.0453
96851W        W39904  21.791  26.366  20.951 -0.1899 -0.1179 -0.1398
96852W        W39905   6.932  13.229  23.724  0.3460  0.1570  0.2737
96853W        W39906  32.490   0.447  21.290 -0.2602  0.1108 -0.0440
96854W        W39907  19.635  31.809  23.853  0.3468 -0.0088  0.1969
96855W        W39908  26.192  30.148  26.155  0.1874 -0.0215 -0.2266
96856W        W39909   2.424   1.104  24.225  0.1730  0.0459 -0.1322
96857W        W39910  10.511  13.602   0.188  0.0775 -0.1862 -0.0334
96858W        W39911   2.113   3.626  26.764 -0.1176  0.0672 -0.0933
96859W        W39912  10.825  29.596  17.738 -0.4916 -0.1249  0.2126
96860W        W39913  18.998  27.697   0.485  0.3397  0.3304  0.1233
96861W        W39914  16.013  12.662  24.545 -0.1597  0.0324  0.1157
96862W        W39915  17.479   6.011  22.006 -0.0347  0.0356  0.0841
96863W        W39916  27.340   0.035   2.172  0.0976  0.0572 -0.0400
96864W        W39917  27.257  10.366  22.967 -0.0439  0.0803  0.1744
96865W        W39918  26.996   4.299  25.747 -0.0228 -0.1307  0.0717
96866W        W39919   8.737   3.243  20.947  0.0653  0.2976 -0.2265
96867W        W39920  15.105  10.199   2.394  0.0948 -0.3609 -0.1432
96868W        W39921  25.006  24.268  23.123  0.1916 -0.1183  0.0024
96869W        W39922  12.007  21.952   3.273 -0.4626  0.2008 -0.2021
96870W        W39923  27.815  14.379   2.855 -0.0411  0.0421 -0.2515
96871W        W39924  11.463  32.019  21.432  0.1000 -0.1597  0.0815
96872W        W39925  28.213  19.038  28.478  0.0266 -0.0300 -0.1089
96873W        W39926  27.708  16.408   7.354 -0.0522  0.0398 -0.0477
96874W        W39927  15.924  12.222  18.054  0.0694  0.1155  0.1652
96875W        W39928   3.632  30.769  27.659  0.0134  0.0107 -0.0041
96876W        W39929  17.362  13.163   0.290  0.2410 -0.0067 -0.2026
96877W        W39930  24.712  25.014   0.258  0.2555 -0.0261 -0.2556
96878W        W39931  27.803  23.769   9.638 -0.1153 -0.1807 -0.1039
96879W        W39932  32.130  32.965  20.795 -0.3461 -0.6335  0.0998
96880W        W39933  26.313   1.554  16.064  0.5825 -0.2121  0.2645
96881W        W39934  32.114   8.736   6.313 -0.2092 -0.0290  0.1364
96882W        W39935  30.865  27.275   9.365 -0.3503  0.0884 -0.0298
96883W        W39936   9.708   3.400  26.680  0.0861  0.0198 -0.0622
96884W        W39937  26.901  14.630   6.430 -0.2165  0.2155 -0.2634
96885W        W39938  13.007  31.245  29.084 -0.1348  0.0473  0.2698
96886W        W39939  12.526  25.652  14.521  0.1192 -0.2135 -0.1819
96887W        W39940   7.658  12.800  25.179  0.0598 -0.0867 -0.2195
96888W        W39941   3.374  34.219  19.787  0.1945 -0.0935  0.2595
96889W        W39942  13.566  24.246  18.615  0.2125  0.1566  0.3148
96890W        W39943  28.864   7.216  25.022 -0.0564 -0.3190  0.0645
96891W        W39944   6.246  20.913   8.423 -0.1522  0.1910  0.0946
96892W        W39945  15.375  30.854   0.462  0.1636 -0.0380  0.1666
96893W        W39946  25.361  31.583  16.086 -0.1035 -0.0543 -0.0200
96894W        W39947  13.959   6.144  17.071 -0.0278 -0.1195 -0.0522
96895W        W39948  30.815  29.489   6.932 -0.1349 -0.0447 -0.0148
96896W        W39949  19.315  30.896  24.398  0.3288  0.2933 -0.0808
96897W        W39950  11.716  10.732  22.710  0.0983 -0.2573 -0.0019
96898W        W39951  10.706  31.075  13.910 -0.2632  0.3582  0.2334
96899W        W39952  13.370  18.990  17.617  0.0923  0.1691  0.1353
96900W        W39953  16.405  32.452   3.723 -0.0873  0.2068 -0.1435
96901W        W39954  24.820   4.390  21.765 -0.2912 -0.1217 -0.1117
96902W        W39955  19.017  28.114   2.894  0.0955  0.0014 -0.1058
96903W        W39956   9.347   1.488  23.108 -0.2016 -0.0964  0.0146
96904W        W39957   9.506  28.888  24.599 -0.0939  0.0195 -0.0901
96905W        W39958   9.333   9.034  16.815 -0.2085  0.0459 -0.3074
96906W        W39959  33.621  29.401   0.587  0.0591 -0.1189  0.0505
96907W        W39960   9.302  26.289  25.101 -0.0128  0.0795  0.0276
96908W        W39961  22.032   8.501  18.857 -0.0558  0.3868  0.1044
96909W        W39962  15.323  29.848  26.109 -0.1555  0.3012 -0.1267
96910W        W39963  22.384  29.430  22.644 -0.0333 -0.1549 -0.3786
96911W        W39964  32.287   3.214   3.354 -0.1812  0.0491  0.0362
96912W        W39965  28.401  30.660  17.035  0.2116  0.5634  0.3984
96913W        W39966   8.218  14.825  28.770 -0.1800 -0.0488  0.1410
96914W        W39967   0.674  17.565  18.179 -0.2669  0.1220  0.1746
96915W        W39968  10.899  31.379  25.938 -0.0481  0.0497  0.3283
96916W        W39969  25.884   6.390  24.166  0.0963 -0.3536 -0.0479
96917W        W39970  24.047  31.536  21.335 -0.1504  0.0348  0.0025
96918W        W39971   7.589  27.587  21.341 -0.1021 -0.1089 -0.1591
96919W        W39972   7.749  34.606  14.227  0.1384  0.3852 -0.4596
96920W        W39973  20.770   0.781  14.846 -0.1774 -0.0457  0.2375
96921W        W39974  12.476  25.511   9.511  0.2003  0.3894 -0.1888
96922W        W39975  20.501  20.551  22.944  0.0165 -0.0751  0.0017
96923W        W39976  27.241  20.987   5.556 -0.4555 -0.0212  0.0127
96924W        W39977  10.280   0.617  27.973 -0.3553  0.0807 -0.2950
96925W        W39978  10.881  21.252  17.910  0.3371  0.2687  0.1402
96926W        W39979  18.888  25.948  23.463  0.2336 -0.0637  0.1566
96927W        W39980  14.829  25.739  17.596  0.1762 -0.4051  0.1833
96928W        W39981  21.331   3.031   7.847  0.1413  0.0655 -0.3978
96929W        W39982  27.063  30.831  14.878  0.0865  0.2419 -0.0157
96930W        W39983   6.271   5.724  23.313  0.2281 -0.2116 -0.3241
96931W        W39984  26.080  18.735  18.518  0.0141  0.0887 -0.0529
96932W        W39985  20.154  16.061  24.176 -0.0375  0.1556  0.0196
96933W        W39986  18.177  28.320  17.410 -0.1173 -0.2395  0.2335
96934W        W39987   9.938   7.820  24.434 -0.0447  0.1899 -0.0668
96935W        W39988  15.239   2.654  28.909 -0.1591  0.1054 -0.2350
96936W        W39989  16.171  33.377   4.047  0.3248  0.1532  0.1448
96937W        W39990  33.793  15.002   9.166  0.1009 -0.0248 -0.0840
96938W        W39991  18.456  15.733  27.587  0.0804 -0.4974 -0.0849
96939W        W39992   2.160   3.869  13.387 -0.1421  0.2142 -0.0146
96940W        W39993  21.865  32.038  17.367 -0.1164  0.2231  0.1850
96941W        W39994  22.508  30.636   3.069  0.2427 -0.1999  0.1026
96942W        W39995  13.906  30.239  28.534  0.2678  0.2582  0.0330
96943W        W39996  28.287  30.225  27.164  0.0309  0.1125 -0.1841
96944W        W39997   9.544  29.995   1.250 -0.0489  0.1714  0.3309
96945W        W39998  15.020  15.383  14.200  0.1269  0.1787 -0.0685
96946W        W39999  26.510  18.164  23.428  0.5815  0.2819 -0.0991
96947W        W40000  20.092   4.285  22.179  0.3962  0.3221 -0.1626
96948W        W40001  28.287  11.124  23.485 -0.0978 -0.1023  0.2118
96949W        W40002  31.492  29.442  26.229  0.1892 -0.3611 -0.3169
96950W        W40003  24.748   4.312  16.631 -0.0282  0.0113  0.1264
96951W        W40004  30.705  32.879  25.516 -0.1522 -0.3318  0.1145
96952W        W40005   4.572  14.142   6.463 -0.3884  0.0366  0.0583
96953W        W40006  24.399  17.442   7.300 -0.0210  0.0713 -0.1068
96954W        W40007  23.357  30.360  21.151 -0.0744 -0.1988 -0.1097
96955W        W40008  18.459  22.509  14.683  0.0127  0.1432 -0.0091
96956W        W40009  21.546  25.723  15.006  0.0446 -0.1145 -0.1062
96957W        W40010  16.018   7.852  21.270  0.1080 -0.2627  0.0408
96958W        W40011  31.639  18.873  28.661 -0.1619 -0.0605  0.2229
96959W        W40012   7.534  27.036  15.561  0.4658  0.3936  0.0172
96960W        W40013   1.862  10.482  26.129 -0.1053 -0.4066 -0.1353
96961W        W40014  27.802  30.665   5.039 -0.0890  0.0627 -0.1666
96962W        W40015  34.621  19.208  17.868  0.1425  0.0343 -0.1568
96963W        W40016  24.530   1.202  24.132  0.0381  0.5038 -0.0858
96964W        W40017  15.012  23.993  25.687  0.0599 -0.1451 -0.0009
96965W        W40018  23.021  28.339   9.637 -0.0368 -0.0442 -0.0169
96966W        W40019  20.447  30.779   0.069 -0.2828  0.2755 -0.1625
96967W        W40020   8.878  24.516  23.856  0.1165  0.2081  0.3039
96968W        W40021  34.444  21.749  21.728  0.0719 -0.0330 -0.1780
96969W        W40022  33.726   5.693  16.904  0.0934  0.2568 -0.1995
96970W        W40023  14.909   2.862  18.488  0.0644  0.2314 -0.1037
96971W        W40024  19.658  13.539  23.066  0.1793  0.2978  0.4455
96972W        W40025  22.148  19.970  15.237  0.1368 -0.0791  0.1165
96973W        W40026  12.589  16.857  17.103  0.0233  0.3334 -0.1111
96974W        W40027  15.514  25.888  19.664 -0.0993 -0.0215 -0.3890
96975W        W40028  31.834   5.577  21.096  0.1435 -0.0445 -0.4329
96976W        W40029  20.465  32.094  18.557  0.5109 -0.1486  0.1147
96977W        W40030  27.826   5.994   2.760  0.2393  0.0371  0.2265
96978W        W40031  28.628  12.524  19.975 -0.2053 -0.1069 -0.0525
96979W        W40032  23.935   5.390  22.048  0.1478 -0.2030  0.0852
96980W        W40033  17.579  27.135   6.100 -0.2611 -0.0838 -0.1730
96981W        W40034  23.710  19.010   7.026  0.1445  0.2488 -0.2930
96982W        W40035  22.586  21.137  15.439  0.4212 -0.2250 -0.0146
96983W        W40036  15.774   2.013  20.818 -0.1211 -0.1782 -0.2018
96984W        W40037  18.844  29.544   1.790 -0.2404 -0.0646  0.0321
96985W        W40038  33.381  27.315  16.236 -0.3767 -0.3493 -0.0931
96986W        W40039  20.740  22.798  15.537  0.1686 -0.3890  0.2043
96987W        W40040  22.823  27.168  28.907  0.1277 -0.0686 -0.0584
96988W        W40041  29.613  16.198  18.602  0.1290  0.1073  0.2868
96989W        W40042  10.749  21.938  28.981 -0.0677  0.2042  0.0434
96990W        W40043   4.391  30.385  24.376  0.2081 -0.1676 -0.1796
96991W        W40044  13.432   9.636   2.296  0.1947  0.1344 -0.3303
96992W        W40045  18.651  20.723   6.120 -0.1624  0.1190 -0.0017
96993W        W40046  23.850  33.323  22.005 -0.0495  0.0194  0.0805
96994W        W40047  24.542   1.181  27.369 -0.1055 -0.4866 -0.1363
96995W        W40048   7.533  21.243  25.329  0.0655 -0.1161 -0.2738
96996W        W40049  13.266  32.865   5.876 -0.2075  0.0518  0.4475
96997W        W40050   9.762  31.234  21.936  0.2733  0.0882  0.3752
96998W        W40051  27.527  30.122  16.623 -0.2043 -0.1248  0.1084
96999W        W40052  21.344   0.439   2.451  0.0668 -0.0572 -0.0483
97000W        W40053  18.574  25.386  14.406 -0.0889  0.2910  0.0712
97001W        W40054  28.893  27.579   4.841  0.0961 -0.0311 -0.0610
97002W        W40055  24.573  28.857   4.361  0.0261 -0.1255  0.1044
97003W        W40056  12.144  19.271   2.631 -0.2343  0.1940  0.2050
97004W        W40057  23.644  18.450  17.481  0.1766 -0.0789  0.1516
97005W        W40058  17.758  23.880  16.813  0.2584 -0.1063  0.2466
97006W        W40059  14.342  32.725   3.030 -0.0275  0.0514 -0.0461
97007W        W40060   8.592  24.860   5.057  0.1407  0.0456  0.3256
97008W        W40061  14.920  33.197   4.270 -0.1364 -0.2649  0.0696
97009W        W40062   3.949   2.551   4.507 -0.2003  0.2561 -0.0185
97010W        W40063   0.923   1.983  17.413  0.0183 -0.1947  0.1119
97011W        W40064  14.080   0.580  28.369  0.1168 -0.2258 -0.2111
97012W        W40065  19.762  21.991   2.543 -0.0086 -0.2439 -0.0694
97013W        W40066  13.729  19.106   9.416 -0.0335 -0.0867  0.0392
97014W        W40067  17.825  24.340   8.256  0.1409 -0.0442  0.1799
97015W        W40068  14.376  20.033  28.118 -0.2396 -0.0173  0.0266
97016W        W40069  11.441   1.887   9.348  0.3024 -0.2066  0.1453
97017W        W40070  13.419  26.599   6.116 -0.1757  0.2546 -0.2152
97018W        W40071  17.771  24.742   1.962  0.1609 -0.0130 -0.0058
97019W        W40072  12.939  23.994  28.828  0.1969 -0.0468  0.2148
97020W        W40073  10.608  28.119  20.677 -0.0952 -0.0227 -0.0783
97021W        W40074  21.208   0.597   6.138 -0.0879  0.1097 -0.0202
97022W        W40075  10.761  31.078   9.231 -0.0154  0.1608 -0.1291
97023W        W40076  23.854   4.329  26.295 -0.1080 -0.3312 -0.0834
97024W        W40077  22.333   3.127   7.389  0.1465 -0.2298  0.1920
97025W        W40078  15.973   6.911  28.228  0.1030  0.0577 -0.1430
97026W        W40079  29.670  27.200  18.671  0.0618  0.1995 -0.0828
97027W        W40080  17.171  19.512   4.844  0.1303  0.1325 -0.2693
97028W        W40081  14.184  18.244   9.565  0.0542 -0.1264  0.0536
97029W        W40082  22.800   2.378  27.174  0.0492  0.0096  0.3314
97030W        W40083  20.617  28.182  16.929 -0.0947 -0.1396  0.3402
97031W        W40084  29.074   5.489   6.854  0.2477 -0.1872  0.3067
97032W        W40085  14.070  22.538   5.337  0.2436 -0.0797 -0.1268
97033W        W40086  24.661  30.437  14.558  0.0160  0.1689 -0.2739
97034W        W40087  19.227  33.270  19.174 -0.1970  0.2705 -0.1813
97035W        W40088   2.658  14.911   6.652  0.1745  0.2177 -0.0514
97036W        W40089  16.402  14.989  28.697  0.1876  0.1564 -0.3874
97037W        W40090  11.637  29.572  17.637  0.1683  0.0910 -0.1081
97038W        W40091  25.780   4.089   0.755 -0.0524  0.0118 -0.1455
97039W        W40092  21.786   4.885  16.584  0.3253  0.1409 -0.1796
97040W        W40093  23.635   4.214   6.963 -0.3363 -0.2417  0.0665
97041W        W40094  10.419  16.265   2.451  0.3477  0.1277 -0.2610
97042W        W40095   7.447  22.168  15.975 -0.2225  0.3719  0.4225
97043W        W40096  12.234  12.358  15.445  0.0991 -0.1628 -0.0162
97044W        W40097  23.056   0.153   2.744  0.2575 -0.4970  0.0692
97045W        W40098   9.951  21.539  17.999 -0.2530  0.1706 -0.0413
97046W        W40099  11.603   4.908   4.926  0.1373  0.2031  0.2191
97047W        W40100  19.553  18.289   5.850 -0.1750 -0.3307 -0.2144
97048W        W40101  12.083  20.784  25.749  0.0422 -0.3307 -0.1404
97049W        W40102  13.838   6.975   6.228 -0.5067  0.0181  0.1123
97050W        W40103  23.248  13.855   3.363  0.0417 -0.0602 -0.2495
97051W        W40104  23.905  26.791   5.109  0.0957 -0.1162 -0.5810
97052W        W40105  23.390  23.888   9.875 -0.0432 -0.3143  0.1771
97053W        W40106  31.438   7.845   2.065  0.2677 -0.3995 -0.1518
97054W        W40107  21.177   1.859   8.072  0.0962 -0.0624  0.0260
97055W        W40108  26.363   6.298   1.261 -0.0551  0.0652 -0.0553
97056W        W40109  27.183  13.237   8.541 -0.0324 -0.1242 -0.3763
97057W        W40110   8.310  34.639  28.265  0.0262  0.0596  0.0369
97058W        W40111  11.691  33.089   0.740 -0.1113  0.3924  0.0683
97059W        W40112   6.506  34.184   5.328 -0.0947  0.1990  0.2096
97060W        W40113  19.538   1.453   8.748  0.1382 -0.4226 -0.0126
97061W        W40114  20.258   0.908  28.160  0.0337  0.2770  0.0168
97062W        W40115  24.761  17.931  14.481 -0.0359 -0.2496 -0.2494
97063W        W40116   8.597   3.658   9.194  0.2864 -0.2444  0.2351
97064W        W40117  25.858  33.742   6.708 -0.0834  0.4028 -0.0167
97065W        W40118   3.570   7.563  24.122  0.0788 -0.4310  0.0675
97066W        W40119  25.145  22.617   7.657 -0.0535  0.1128 -0.0630
97067W        W40120  19.830  17.798   0.086  0.0839  0.2365 -0.2118
97068W        W40121  17.896   0.928  14.289  0.0532  0.0063 -0.0906
97069W        W40122  31.888   0.610  16.807  0.1914  0.1565  0.1465
97070W        W40123  22.323  17.459   5.181 -0.2377  0.0224 -0.2259
97071W        W40124  20.801  27.438  26.260  0.2254  0.4374  0.0259
97072W        W40125  29.028   6.770  21.289 -0.2479 -0.2125 -0.3549
97073W        W40126  16.412  29.913   0.225  0.3031 -0.0849 -0.1563
97074W        W40127  15.658  21.641   0.303  0.0116 -0.3621 -0.2572
97075W        W40128  12.915  31.096   8.097 -0.2041 -0.0947 -0.2892
97076W        W40129  18.554  27.126  28.058 -0.1104 -0.3360 -0.0924
97077W        W40130  14.585  24.105  27.156  0.0297 -0.0728 -0.1545
97078W        W40131  28.954  33.388   8.272 -0.1881  0.1207 -0.4467
97079W        W40132  12.996  32.795  14.746  0.0727  0.1782  0.0294
97080W        W40133   5.956  20.516  22.960 -0.1165  0.2261  0.1402
97081W        W40134  24.914  26.370   8.955 -0.1814 -0.2105  0.2164
97082W        W40135  19.731   6.048  20.179 -0.1167 -0.3228  0.0071
97083W        W40136   1.645  22.294  19.051 -0.1822  0.2246  0.0786
97084W        W40137  10.693  17.943  28.939 -0.1479 -0.2375  0.2497
97085W        W40138  26.328  31.476   0.339 -0.0591  0.1436  0.1613
97086W        W40139  18.953  22.277  16.695  0.1716  0.4031 -0.1091
97087W        W40140   4.202  25.766  16.773 -0.2901  0.2004  0.0582
97088W        W40141  10.869  33.180   8.266 -0.3642 -0.1196  0.0218
97089W        W40142  15.233  11.373   0.830 -0.1231 -0.0091 -0.0272
97090W        W40143  23.662  30.289  14.336 -0.1256  0.2035 -0.0400
97091W        W40144  13.547  25.213  27.283 -0.2238  0.2523 -0.1618
97092W        W40145  23.109  20.386  28.256 -0.0168 -0.2604  0.0022
97093W        W40146   4.430  13.983  23.023 -0.0746  0.4352  0.1058
97094W        W40147   0.727   4.471   5.897  0.0101 -0.1946 -0.0962
97095W        W40148  27.740  27.181  26.268 -0.0052  0.0851 -0.2337
97096W        W40149  24.406  32.944   0.930 -0.3889 -0.3999  0.2495
97097W        W40150  30.542  14.057  24.456 -0.3526  0.1440  0.0982
97098W        W40151  12.491   9.784   6.312  0.1319 -0.0363 -0.4828
97099W        W40152  16.728   2.116   8.239 -0.3660  0.0284 -0.1187
97100W        W40153  28.421   3.819   6.636  0.3176 -0.0562 -0.1787
97101W        W40154  25.529  31.995   1.525 -0.2321 -0.0792 -0.2137
97102W        W40155  13.780  21.863  23.994 -0.1723  0.1723 -0.0904
97103W        W40156  22.388  33.188  16.659 -0.0126  0.1680  0.0950
97104W        W40157  32.380  29.863  15.792 -0.0616 -0.2695  0.0194
97105W        W40158  15.688  13.197  25.531  0.4928  0.1310 -0.3169
97106W        W40159   1.597   4.304  27.480 -0.1323 -0.1373 -0.1001
97107W        W40160  32.059  16.445  22.941  0.1622 -0.0541  0.1045
97108W        W40161  14.297   7.873   7.718 -0.1948 -0.0053  0.0378
97109W        W40162  33.628  33.213   8.470 -0.1339  0.0368  0.2927
97110W        W40163  23.707   2.826  15.665 -0.0238  0.0126  0.0067
97111W        W40164   3.150  11.007  16.642 -0.1498  0.0520 -0.0920
97112W        W40165  28.648  19.139   0.688  0.0609 -0.0568  0.0359
97113W        W40166  21.992  31.099  21.098 -0.1809  0.0464 -0.2008
97114W        W40167  33.781   3.179  26.665 -0.1033  0.0920  0.0303
97115W        W40168  24.180  21.802   5.229  0.1869  0.1042 -0.0437
97116W        W40169  31.291  22.506  27.156  0.1967  0.3039  0.0795
97117W        W40170  20.815   7.627   0.105 -0.1035 -0.0195  0.2336
97118W        W40171  14.648  26.110   7.642  0.1095 -0.2116 -0.1018
97119W        W40172   1.552  18.613  20.453 -0.0178 -0.0077 -0.2277
97120W        W40173  18.812  25.370  21.961  0.1289 -0.1761  0.2236
97121W        W40174  17.483  20.287  27.213  0.0144  0.0380 -0.0883
97122W        W40175  18.173  31.482  19.006  0.2841  0.3235  0.0058
97123W        W40176  10.040   3.718  21.202  0.1024 -0.2295  0.4150
97124W        W40177  10.755   4.483   9.682 -0.1854 -0.1381 -0.3342
97125W        W40178  26.828  27.889   1.131 -0.2878 -0.0640  0.1458
97126W        W40179  25.823  26.782  16.253 -0.1422 -0.1906  0.1187
97127W        W40180  24.825   7.426  22.316 -0.0667 -0.0910  0.3049
97128W        W40181  20.323   1.927  10.080  0.0140  0.3313  0.1045
97129W        W40182   0.719   0.782  25.543  0.0358  0.0233  0.0846
97130W        W40183  25.241  24.871   3.854  0.0082 -0.2208  0.0386
97131W        W40184  30.534  34.150  17.901 -0.3616  0.3254 -0.0760
97132W        W40185  14.699  14.562   4.646  0.0037 -0.1968 -0.2238
97133W        W40186  22.713  22.043  25.292 -0.0311 -0.0623 -0.4362
97134W        W40187  30.982  31.422   0.203  0.1657  0.0248 -0.2652
97135W        W40188  29.809   7.428  18.676  0.1204 -0.1880  0.0056
97136W        W40189  33.293  17.894  19.545  0.1001  0.1383 -0.2922
97137W        W40190   3.969   5.573   2.567  0.1107 -0.0449 -0.0845
97138W        W40191  20.372  32.345  20.331  0.3523  0.1578  0.0113
97139W        W40192  25.232  31.980  19.970 -0.5108  0.1545  0.1535
97140W        W40193   9.278  18.024   7.979  0.1969  0.0449 -0.0786
97141W        W40194   1.105   7.806   0.196  0.0552  0.0392 -0.0392
97142W        W40195  13.860   0.342  19.929 -0.1618 -0.2606 -0.1926
97143W        W40196  23.672  29.049   7.642  0.1095  0.2207 -0.0843
97144W        W40197  12.149   0.459   2.563  0.0187  0.0921 -0.1922
97145W        W40198  31.600  32.904  20.692 -0.2510 -0.0240 -0.2406
97146W        W40199  17.045   1.879   7.789  0.2507  0.2471 -0.3973
97147W        W40200   5.371  30.857  17.289 -0.1310 -0.0709 -0.0344
97148W        W40201  16.532   3.227   8.110 -0.0221 -0.1665 -0.2497
97149W        W40202  27.726   3.678   4.253 -0.0542 -0.0285  0.1217
97150W        W40203  21.776  29.156  16.551  0.2432  0.3749  0.0430
97151W        W40204  20.258  25.988  28.242  0.0020 -0.0995 -0.0109
97152W        W40205  28.349  23.257  24.528 -0.1839  0.1124  0.2678
97153W        W40206  22.492  25.189  26.871 -0.2092  0.2047 -0.1666
97154W        W40207  18.047   5.431   2.850 -0.0418 -0.2251  0.1156
97155W        W40208  28.761  13.702   6.906 -0.1142  0.0335  0.0486
97156W        W40209  34.621  34.668   6.260  0.0843  0.0236  0.1830
97157W        W40210  12.625  18.157   8.631  0.3148 -0.0974  0.4899
97158W        W40211  24.466  18.709  20.646 -0.1608  0.1877 -0.0712
97159W        W40212  26.918   7.498   1.701  0.0797  0.0362  0.1467
97160W        W40213   3.689   7.335   8.091  0.1396  0.2335 -0.0559
97161W        W40214  18.783  29.642   2.794  0.0597  0.2235 -0.2685
97162W        W40215  13.422  23.544  19.073 -0.0077  0.0012  0.2232
97163W        W40216  10.652   1.621  25.614  0.3518  0.0843  0.0847
97164W        W40217  24.778  29.292   4.296 -0.2090  0.0442 -0.1094
97165W        W40218  31.383  16.757  26.803  0.2427 -0.0067 -0.1189
97166W        W40219   7.936  33.380  23.327  0.0965 -0.3038  0.0449
97167W        W40220  22.715  20.765  16.184 -0.3018 -0.3147  0.0933
97168W        W40221   3.771  24.195   2.864 -0.1327  0.4104  0.1462
97169W        W40222  18.755  23.397   5.560  0.1620 -0.0070 -0.1881
97170W        W40223  30.871  13.469  14.946 -0.2028 -0.0717  0.2261
97171W        W40224  30.644  27.347   1.136 -0.1523 -0.2476 -0.1828
97172W        W40225  20.253  18.752  22.621 -0.1334 -0.0487 -0.2807
97173W        W40226  24.529   0.596  14.591  0.0409 -0.2439 -0.0054
97174W        W40227  14.636  34.152  17.338  0.0574 -0.0923 -0.1502
97175W        W40228  29.777  27.219  18.153  0.1202  0.1925  0.4496
97176W        W40229  25.558   4.311  23.459 -0.0939  0.1481  0.0167
97177W        W40230  16.132   9.050  23.496  0.0057 -0.0891 -0.1333
97178W        W40231  15.821   5.343   4.008 -0.0960 -0.1441 -0.0445
97179W        W40232  13.159  22.786  19.711 -0.1702 -0.0298  0.0853
97180W        W40233  10.684   6.332  21.191 -0.1215 -0.2160 -0.3418
97181W        W40234   7.024  21.005   0.477  0.1705  0.0090 -0.0867
97182W        W40235  17.069  16.191  12.302 -0.0050 -0.5245  0.1163
97183W        W40236  24.979   4.031  26.021 -0.0234 -0.3035 -0.2927
97184W        W40237  32.512   0.988  28.781  0.1961 -0.2127 -0.2670
97185W        W40238   2.086   4.007  23.021 -0.0866  0.3275  0.0145
97186W        W40239  12.792   1.881   6.230  0.1237 -0.1764 -0.4932
97187W        W40240  19.360   6.899   5.328  0.0077  0.0476  0.1956
97188W        W40241  19.050   3.605  28.597 -0.0176  0.0395 -0.2344
97189W        W40242  12.254  22.637  25.044 -0.0349 -0.4244  0.2378
97190W        W40243   9.649  32.689  18.582 -0.0697 -0.0047 -0.2554
97191W        W40244  25.208  13.994   7.999  0.0772  0.1764  0.0755
97192W        W40245  15.984   5.748  21.160  0.1274 -0.2345 -0.0910
97193W        W40246   2.546  15.944   7.508 -0.2324  0.0073 -0.0671
97194W        W40247  16.077  32.970   1.918 -0.2086  0.6348  0.1498
97195W        W40248  15.649  33.031   9.482 -0.0812  0.0229  0.1139
97196W        W40249  10.836   8.818   3.270 -0.1704 -0.1794 -0.2350
97197W        W40250   6.064  23.261  17.280  0.2145 -0.2712  0.0952
97198W        W40251  23.391  22.236  14.206  0.0991  0.1238  0.0615
97199W        W40252  26.147  18.297  21.474  0.2824 -0.2296  0.0181
97200W        W40253  12.889  30.146   3.759  0.1422 -0.0846  0.0771
97201W        W40254  14.770  26.403   7.262  0.1362  0.0534 -0.0868
97202W        W40255   1.753  27.023   5.766 -0.2129 -0.2018  0.2507
97203W        W40256  17.996   7.970  11.011 -0.1170 -0.0430 -0.1268
97204W        W40257  15.847   4.633  25.447  0.0736  0.0752  0.0990
97205W        W40258  23.116   1.931   2.320  0.1037 -0.2659  0.0546
97206W        W40259  18.773  26.869   7.399 -0.0982  0.0268 -0.2082
97207W        W40260  13.924  23.935   6.759 -0.0161 -0.2594 -0.0088
97208W        W40261  20.321  34.142  22.236 -0.0488  0.0725  0.2351
97209W        W40262  32.147  30.485   1.338  0.1692  0.1545  0.2392
97210W        W40263  10.291   2.774  28.705  0.0712  0.1177 -0.0701
97211W        W40264   5.805  17.964   3.476  0.0654 -0.1406  0.1597
97212W        W40265   3.935  25.763  28.825  0.0164  0.3409  0.0447
97213W        W40266  20.481  27.613   3.206 -0.0112 -0.2799 -0.1820
97214W        W40267  20.220   5.580  28.835 -0.1127  0.1575  0.0334
97215W        W40268  34.279  14.121  27.071 -0.3960  0.1811  0.3602
97216W        W40269  16.509  25.116   7.731  0.1274  0.0440 -0.3876
97217W        W40270   8.049  17.295  21.954  0.1823 -0.2359 -0.1124
97218W        W40271  24.847  27.281  18.541 -0.1483  0.0118 -0.0073
97219W        W40272  22.714   2.678   9.279  0.2058  0.1945  0.1421
97220W        W40273  22.987   2.489  24.181  0.2212 -0.0641  0.2829
97221W        W40274  20.989  29.851  16.312 -0.0490  0.0214 -0.6690
97222W        W40275  28.155  10.369  28.517 -0.0615  0.1676  0.1831
97223W        W40276   8.367  20.544  16.562  0.0717 -0.1080  0.0386
97224W        W40277   8.638  30.130  23.662 -0.0871  0.0459  0.3724
97225W        W40278  31.455  32.584  20.338  0.1576  0.1610  0.0486
97226W        W40279  27.225  27.751  27.811 -0.0024  0.1561  0.0784
97227W        W40280   5.658   1.021  26.221 -0.3283  0.3688  0.2067
97228W        W40281  20.894  30.537  19.764  0.1605  0.1783  0.1704
97229W        W40282  13.982  31.760  16.466 -0.2295  0.1922 -0.1953
97230W        W40283  20.971  13.646  28.289 -0.1144  0.2013  0.0528
97231W        W40284  13.473   8.677   1.845 -0.3504  0.0288 -0.0562
97232W        W40285  12.432  25.866  16.221  0.1365 -0.0661 -0.0951
97233W        W40286   2.750  26.203   3.267  0.4203 -0.1689  0.1931
97234W        W40287  32.562   3.446  15.017 -0.2132 -0.0820 -0.3024
97235W        W40288  18.027   1.352   1.566 -0.4667 -0.1370 -0.1015
97236W        W40289  13.323  29.197   6.030  0.2923 -0.0326  0.1217
97237W        W40290   9.094  29.957  22.669  0.1263 -0.1739  0.1745
97238W        W40291  11.939   7.015   3.883  0.1350 -0.0579 -0.0800
97239W        W40292  33.152  17.464  24.155  0.4562 -0.1387 -0.0622
97240W        W40293  24.182  18.836  25.646 -0.1668  0.1142  0.0533
97241W        W40294  25.978  29.941  17.331 -0.2739  0.1278  0.1285
97242W        W40295  16.949  21.763  28.502 -0.1188  0.0488 -0.4868
97243W        W40296  22.844  11.832  26.998  0.0598  0.2877 -0.3514
97244W        W40297  18.517  30.279  10.393  0.1589  0.2857 -0.1175
97245W        W40298  23.710   7.428  14.819  0.2406  0.0138  0.3421
97246W        W40299  25.438   1.313   6.336  0.1974  0.0163 -0.0829
97247W        W40300   4.638  29.736  23.571 -0.1028  0.1003  0.0254
97248W        W40301  26.485  20.772   5.001  0.0639  0.0899  0.4039
97249W        W40302  20.796  22.924  22.716 -0.2589  0.1456 -0.2399
97250W        W40303  18.285  26.248  28.054  0.1715 -0.0557 -0.0009
97251W        W40304  10.072   0.105   8.525 -0.2221  0.3372  0.0863
97252W        W40305  32.544  27.177  14.179 -0.1382  0.2495  0.1054
97253W        W40306   5.774  20.568  19.530 -0.1266 -0.0806 -0.2422
97254W        W40307   6.515  31.744   6.429  0.1759  0.2116  0.2102
97255W        W40308  19.919  21.340  20.582 -0.0812 -0.2037  0.2314
97256W        W40309  22.509  26.351   6.017 -0.0839 -0.0948 -0.2044
97257W        W40310  31.028   8.765  14.544  0.1171  0.2323  0.0670
97258W        W40311  22.431  31.196   8.012  0.2962 -0.2095 -0.2876
97259W        W40312  32.756  17.322  14.634  0.2757  0.0525 -0.0050
97260W        W40313  26.344  28.838   1.422 -0.0474  0.1167  0.2743
97261W        W40314  18.029  31.778  28.284  0.1714  0.3283  0.0796
97262W        W40315  19.312   6.770   6.293  0.2286  0.0840 -0.3267
97263W        W40316  22.981   3.394   0.151  0.0996  0.0276  0.0803
97264W        W40317   0.212  32.637   6.319 -0.2901 -0.2214 -0.2870
97265W        W40318  24.110   7.241   4.944 -0.0703  0.0649 -0.1027
97266W        W40319  15.663   2.994   0.030 -0.0213 -0.0945  0.0545
97267W        W40320  20.724   0.198  17.225 -0.0031  0.2785  0.0914
97268W        W40321  21.965   2.635  27.156  0.4153  0.2764  0.1998
97269W        W40322  26.778  29.431   9.693  0.1236  0.2191 -0.0054
97270W        W40323  27.656  24.634  24.817 -0.2620  0.0080  0.0767
97271W        W40324  33.216   2.683  15.780 -0.0632 -0.2735 -0.0063
97272W        W40325  30.023  23.552  28.730 -0.2430  0.2402 -0.3801
97273W        W40326  20.998  29.200   0.331 -0.2393  0.0780  0.2488
97274W        W40327  19.054  11.572   1.523  0.0677  0.1826 -0.0383
97275W        W40328  16.004  23.923   3.028 -0.3034 -0.2897  0.1059
97276W        W40329  20.343  24.755  19.933 -0.1837  0.0374 -0.0911
97277W        W40330  17.802  24.062   5.122  0.0131 -0.2421  0.3621
97278W        W40331  21.727   5.629  22.467 -0.1428 -0.3875 -0.0436
97279W        W40332   9.022  32.713   6.605 -0.0119  0.2593 -0.2539
97280W        W40333  23.770  28.034   0.827  0.2557  0.1215 -0.0778
97281W        W40334  15.856  21.213  27.003  0.1920  0.0342 -0.3129
97282W        W40335  21.595  29.740   0.415  0.1478 -0.2525  0.1620
97283W        W40336  33.112  17.371   1.993 -0.1474 -0.2111 -0.1901
97284W        W40337   4.553  17.905  18.599  0.0533 -0.2026  0.1091
97285W        W40338  13.556  12.478   2.985  0.0095 -0.2557 -0.4144
97286W        W40339  22.202  25.978  27.742 -0.0355  0.1694  0.0749
97287W        W40340  12.248  28.913   0.312  0.2989 -0.4812 -0.1633
97288W        W40341  20.932  22.414   8.083  0.0903 -0.0968  0.1285
97289W        W40342  21.925  25.054  17.195  0.2047 -0.0381 -0.0351
97290W        W40343   0.553  12.384   3.129 -0.0379  0.1001 -0.2715
97291W        W40344  22.761   9.471  23.330  0.2181 -0.0585 -0.3376
97292W        W40345  23.253  25.524   3.623  0.0728 -0.0323 -0.1780
97293W        W40346  33.998  29.741   8.880  0.2260  0.4282 -0.2478
97294W        W40347  19.057  33.489  10.626  0.1294 -0.2727 -0.2257
97295W        W40348  32.714   1.758  19.716  0.1453 -0.2251 -0.0786
97296W        W40349  12.253  13.070   9.466 -0.1235  0.1733  0.2127
97297W        W40350   4.542   2.507   3.613 -0.0160  0.1098 -0.1371
97298W        W40351   5.403  16.757  18.270  0.2555  0.3037  0.3698
97299W        W40352  23.591  27.176   1.928  0.4925 -0.3903  0.0299
97300W        W40353  15.305  27.945  26.201  0.4665  0.1612 -0.1946
97301W        W40354  17.398  27.298  26.148  0.4123  0.0269  0.2679
97302W        W40355  18.122   2.139   8.866  0.1420 -0.0034 -0.2306
97303W        W40356  32.920   1.704  19.181 -0.1487 -0.0346 -0.3246
97304W        W40357  22.536  10.520   5.725 -0.0734 -0.0196  0.1337
97305W        W40358  22.669   5.536  27.596 -0.3187  0.0078 -0.0262
97306W        W40359  30.505  18.622  22.184  0.0114  0.1109  0.3098
97307W        W40360  24.777  27.926  20.648  0.2148 -0.0877  0.2586
97308W        W40361  30.450  31.582  14.778 -0.4226  0.0818 -0.1078
97309W        W40362  27.380  22.564  25.582 -0.3368  0.0531 -0.0971
97310W        W40363  28.682  24.233  24.012  0.1544  0.0368 -0.6459
97311W        W40364  21.194   1.618   0.035  0.0233  0.2575  0.0161
97312W        W40365  16.120  31.454   0.357  0.0239 -0.0831 -0.3183
97313W        W40366  23.252  29.831   3.466 -0.0784  0.2534  0.1805
97314W        W40367   9.576  26.295  23.720  0.0084 -0.2423  0.0997
97315W        W40368  19.095  24.179  23.451 -0.2363  0.3646 -0.5692
97316W        W40369  24.031   8.873  28.941 -0.1326  0.0419  0.0516
97317W        W40370  12.141  24.530  17.521 -0.1496  0.0238  0.4302
97318W        W40371  22.717  26.013   9.914 -0.0064 -0.0358 -0.0602
97319W        W40372   8.236  18.957   2.217  0.2805 -0.0662  0.0491
97320W        W40373  25.151  30.921   4.461 -0.1060  0.0594 -0.0039
97321W        W40374  26.189   3.493  20.133 -0.2761 -0.0656 -0.2148
97322W        W40375   1.709   2.291  25.685  0.1714  0.1731 -0.0423
97323W        W40376   4.947   2.947  20.665  0.0819  0.3120 -0.0207
97324W        W40377  18.288  18.819   8.008  0.0075  0.1505 -0.1629
97325W        W40378  10.711  27.998   6.305 -0.0015  0.2506 -0.1901
97326W        W40379  22.688  31.985  20.220  0.1324 -0.0737  0.2094
97327W        W40380  10.298  22.611  25.999 -0.0708  0.2530 -0.1641
97328W        W40381  21.303  30.957  17.763 -0.0852 -0.0660 -0.2678
97329W        W40382  24.649  17.016  26.123  0.0245 -0.2161  0.0612
97330W        W40383  21.661  16.403  25.711  0.2434 -0.3432 -0.0853
97331W        W40384  11.227  11.716  19.946 -0.3589 -0.1740  0.0961
97332W        W40385  16.038  26.926  28.849 -0.4661  0.3383 -0.3515
97333W        W40386  15.971  19.451  27.689  0.1102  0.0297  0.0089
97334W        W40387  10.381  26.655  25.392 -0.0875 -0.0764 -0.2558
97335W        W40388  16.382   1.094  14.704 -0.0324 -0.0834 -0.1649
97336W        W40389   3.668  25.802  26.483 -0.2849 -0.1606  0.0401
97337W        W40390  11.795   0.503   9.813 -0.0308 -0.0265 -0.2264
97338W        W40391   5.856  20.263  17.550  0.1244  0.1615  0.0685
97339W        W40392  20.170   0.325  20.115 -0.2924 -0.1457  0.1383
97340W        W40393  26.337  20.943  22.481  0.0360 -0.0422  0.2585
97341W        W40394  19.940   7.790   1.168  0.1794 -0.1699  0.4538
97342W        W40395  20.901   9.792  17.457 -0.4837  0.0302  0.1689
97343W        W40396   3.732  25.401  23.742 -0.1147 -0.1164 -0.4008
97344W        W40397   7.299  30.461  24.193  0.2570  0.5533 -0.1063
97345W        W40398  23.676  23.221  21.032 -0.0899 -0.3390  0.1266
97346W        W40399  28.315   7.332  18.202 -0.0349 -0.1027  0.1369
97347W        W40400   5.921   3.785   7.893 -0.0571  0.1078 -0.0239
97348W        W40401   9.647  24.599  21.673  0.0412 -0.0420 -0.3405
97349W        W40402  11.763  31.346   9.644 -0.0401 -0.0318  0.1068
97350W        W40403  28.746  32.355  16.928 -0.0389  0.0113 -0.3747
97351W        W40404  22.676   5.478  28.226 -0.2261 -0.2361 -0.1507
97352W        W40405  30.210   8.856  15.037  0.0327  0.0573  0.1035
97353W        W40406   6.672  21.262  24.079 -0.2649 -0.4261  0.1007
97354W        W40407  15.593  27.097   7.334  0.0083  0.1423 -0.3431
97355W        W40408   8.004  22.949  14.387  0.0740 -0.1431 -0.1807
97356W        W40409  16.623  19.636   6.250 -0.0693  0.0916  0.2646
97357W        W40410  12.235  32.228   0.559 -0.1898  0.0336 -0.1592
97358W        W40411  30.348  21.696  27.648 -0.1642 -0.0894  0.1809
97359W        W40412  24.748  29.299   6.579 -0.0049 -0.0492 -0.1453
97360W        W40413  26.252   3.105  20.371 -0.2898 -0.3911 -0.3877
97361W        W40414  29.060  27.251  26.557  0.0821 -0.1500  0.1820
97362W        W40415   5.205  30.158  26.680  0.0083  0.1478  0.1524
97363W        W40416  23.160  29.501  27.244  0.2344 -0.0030  0.1205
97364W        W40417  21.422  11.917  29.110 -0.2276  0.2271 -0.2418
97365W        W40418   8.352   2.089  17.920 -0.1429 -0.1792 -0.0331
97366W        W40419  27.200   4.770  23.709  0.1215 -0.2566  0.5279
97367W        W40420   9.158  11.185  21.350 -0.0570 -0.2721  0.0635
97368W        W40421   6.513  32.169   1.725 -0.2182  0.2342  0.0318
97369W        W40422  28.221  29.442   0.193  0.0416  0.0570  0.3073
97370W        W40423  29.159  21.841   3.991  0.3523 -0.2594 -0.1437
97371W        W40424   5.759  28.768  22.525 -0.0176  0.0922 -0.1674
97372W        W40425  27.225  19.918  23.104  0.3266  0.0693 -0.1006
97373W        W40426   2.219   2.415  21.046  0.0576 -0.1187  0.0489
97374W        W40427  20.187  25.689  20.225  0.3173 -0.0490 -0.1723
97375W        W40428  17.761  25.047  25.017  0.2234 -0.3953  0.2824
97376W        W40429  30.357   0.889  27.207  0.3011 -0.1105 -0.0118
97377W        W40430  19.841  10.164  16.769  0.3165 -0.0334  0.3446
97378W        W40431   2.346  17.760   1.102  0.1059  0.1226 -0.1411
97379W        W40432  17.314  23.754  27.648 -0.0986 -0.1078 -0.0988
97380W        W40433  27.004  31.627  23.430  0.1402 -0.0781 -0.0578
97381W        W40434   5.840  12.348  22.883 -0.1163  0.0438  0.0946
97382W        W40435  32.634  33.826  22.155  0.1304 -0.2637 -0.0324
97383W        W40436  16.402  14.165  16.615 -0.2395  0.0772 -0.1354
97384W        W40437  24.222  21.991  18.612  0.0233 -0.2688  0.0911
97385W        W40438  14.454  24.943  28.571  0.3266 -0.0120 -0.1889
97386W        W40439  15.789  28.864   2.680  0.2983 -0.3090  0.0985
97387W        W40440  16.808  20.618  15.600  0.1072  0.0636 -0.0780
97388W        W40441  25.384  32.329   6.607  0.1986 -0.3058  0.0557
97389W        W40442  30.527   3.808  21.592  0.0233 -0.1206 -0.0291
97390W        W40443  24.351  30.334   3.222  0.1320  0.1746 -0.1147
97391W        W40444  30.718  32.478   2.554  0.1450  0.1078  0.1418
97392W        W40445  15.418  19.087  14.914 -0.1510  0.1875  0.0058
97393W        W40446  15.992   2.742  20.325  0.0265  0.0766  0.0211
97394W        W40447  24.375  34.078  20.161  0.1406 -0.2272  0.2980
97395W        W40448  30.102  28.437   4.691 -0.1018  0.3762  0.1246
97396W        W40449  15.021  12.131   1.538  0.2905 -0.1840 -0.0598
97397W        W40450  22.597  24.917   5.538 -0.2356 -0.2028 -0.0190
97398W        W40451  25.853   9.891   6.990 -0.0503 -0.0318  0.0966
97399W        W40452   9.082  14.235   4.864  0.2712 -0.0662 -0.0541
97400W        W40453  20.403  33.795   8.929  0.3410 -0.0637  0.3159
97401W        W40454  10.893   1.800  27.064 -0.3058 -0.1364 -0.0171
97402W        W40455   9.942  17.959  18.713  0.3114 -0.1023 -0.0409
97403W        W40456  32.926  12.955  27.655 -0.1000  0.2253 -0.2549
97404W        W40457  18.563  23.701  19.743 -0.3146  0.2173 -0.1735
97405W        W40458  16.610  22.804  28.622 -0.1860  0.1870 -0.0933
97406W        W40459  15.659   6.529   6.337 -0.0409  0.1830  0.1912
97407W        W40460   5.321  31.038  20.326 -0.2459 -0.5481 -0.2375
97408W        W40461  26.006  25.372   7.031 -0.2520  0.1329 -0.0634
97409W        W40462  20.805   5.420   2.341  0.0212 -0.2885  0.0427
97410W        W40463  17.153  11.414  24.954  0.6497  0.0570 -0.0935
97411W        W40464  33.935   2.036  20.145  0.1430  0.0872  0.3450
97412W        W40465  22.064   0.128   5.597 -0.2741 -0.0439 -0.0989
97413W        W40466  30.486  26.364  19.990 -0.0150  0.0122 -0.0954
97414W        W40467  25.099  15.031   7.997  0.1311  0.2637 -0.2292
97415W        W40468  26.895   8.062   0.619  0.0317 -0.0439 -0.1217
97416W        W40469   1.311  34.094  25.497 -0.0842 -0.1484 -0.2973
97417W        W40470   2.398  14.658  26.828 -0.2096  0.2615  0.0797
97418W        W40471   8.347  33.710  20.359  0.0950  0.1459  0.0147
97419W        W40472  33.541  30.352   7.491 -0.0464  0.1457 -0.0161
97420W        W40473  27.386  23.587   6.736  0.0821 -0.1218 -0.1126
97421W        W40474  18.593  29.722  10.513 -0.1765  0.0895 -0.1497
97422W        W40475   1.351  24.785  27.144 -0.1398 -0.0866  0.3286
97423W        W40476  32.148  31.202   0.038  0.0515 -0.0728  0.0128
97424W        W40477  19.111  25.569   1.310 -0.5540 -0.1060 -0.0164
97425W        W40478  27.497   0.893  16.535  0.2225 -0.1291  0.3016
97426W        W40479   7.572  26.328   8.632 -0.0718 -0.1248  0.1904
97427W        W40480  33.288  30.270  22.616 -0.1423  0.1144 -0.0305
97428W        W40481   9.886  10.635  27.414 -0.0519 -0.2087  0.1000
97429W        W40482  19.296  21.482   9.291 -0.3423  0.3598  0.1474
97430W        W40483  23.171  34.000  24.524 -0.3231 -0.2573  0.0973
97431W        W40484  20.354   4.910   3.767  0.1190  0.0902  0.1842
97432W        W40485  13.737  31.587   3.395  0.0172  0.1096  0.0012
97433W        W40486  14.908   1.073   7.900  0.0868  0.2072  0.0967
97434W        W40487  29.009   3.488  25.606 -0.1165  0.1572 -0.0495
97435W        W40488  33.927  13.161   7.578  0.1225 -0.1887  0.1205
97436W        W40489   1.333  31.891   6.233 -0.0580 -0.0381 -0.2368
97437W        W40490  15.691   3.667   7.940  0.0282  0.0150 -0.0925
97438W        W40491   8.227  31.037  20.022  0.0629 -0.0077 -0.1276
97439W        W40492  23.336   1.468   6.070  0.0301 -0.2892 -0.0924
97440W        W40493   9.603  26.434   8.438 -0.0769  0.0139 -0.0375
97441W        W40494  20.410  25.337   9.962 -0.0825 -0.0937  0.2517
97442W        W40495  34.167  28.659  18.399  0.1895  0.1140  0.1099
97443W        W40496   8.194  22.768   4.625 -0.0282  0.2103 -0.0297
97444W        W40497   4.274   5.763   2.240  0.0752 -0.1838  0.1152
97445W        W40498  25.717   0.320   3.888 -0.2998 -0.1843  0.0469
97446W        W40499   5.504  12.143  21.297  0.0550 -0.0951  0.1449
97447W        W40500  11.322   7.155  19.293 -0.1310 -0.0460 -0.1726
97448W        W40501  15.012  13.591   7.901  0.1068  0.4644  0.1061
97449W        W40502   6.679  27.811  19.280  0.0050 -0.0916  0.1378
97450W        W40503  25.861  12.125  21.698 -0.0280  0.0221  0.0234
97451W        W40504  22.237  18.410  17.289  0.1640 -0.1968 -0.0125
97452W        W40505  18.881   0.452  18.425 -0.1385 -0.2929  0.0257
97453W        W40506  25.555  25.182   8.246  0.0273 -0.1196  0.0023
97454W        W40507  16.017   4.315  15.088 -0.0798  0.1282 -0.1369
97455W        W40508  27.266   5.751  16.547  0.1748 -0.4810 -0.0589
97456W        W40509  17.863  22.103   3.874 -0.1256 -0.0270 -0.0128
97457W        W40510   6.558   3.670  20.015  0.0641 -0.3394  0.0941
97458W        W40511  22.120   2.488  23.702  0.2722  0.4117 -0.2834
97459W        W40512  22.588  31.073  19.516 -0.1114 -0.0525 -0.0567
97460W        W40513  28.852  32.394   9.438  0.2070  0.1267 -0.1069
97461W        W40514  28.378  23.124   6.904  0.0306  0.0778 -0.0274
97462W        W40515  21.158  18.247   4.566  0.3170 -0.0292 -0.0390
97463W        W40516  16.190  32.652   4.616 -0.1939 -0.2619 -0.0573
97464W        W40517  20.767  19.746   1.675 -0.0829 -0.0768 -0.1211
97465W        W40518  17.890  25.564   8.533 -0.0362  0.0700  0.0032
97466W        W40519  33.102  28.253   0.752 -0.2218 -0.1047 -0.1671
97467W        W40520  14.066   7.084   4.805  0.0542 -0.1588 -0.2023
97468W        W40521  25.339  17.584   5.338 -0.0992 -0.0544 -0.1045
97469W        W40522   0.041  28.003  15.072  0.0713  0.0965  0.2905
97470W        W40523  20.078   2.093   9.671 -0.0263 -0.4052  0.1054
97471W        W40524  31.674  17.427  19.873  0.0567  0.4206 -0.1394
97472W        W40525  24.129  32.011  17.925 -0.1884 -0.1783  0.3100
97473W        W40526   9.529  13.024   0.346  0.2264  0.0500  0.0844
97474W        W40527  29.401  28.018  24.773 -0.0111 -0.3226  0.2496
97475W        W40528  33.234   8.845  15.740 -0.2698  0.0787 -0.0512
97476W        W40529  22.379  25.966  14.190  0.2747 -0.0910 -0.0441
97477W        W40530  24.517  12.693   2.522 -0.0538 -0.0623  0.0514
97478W        W40531   5.869  12.744  18.058  0.0131 -0.3508  0.3018
97479W        W40532  19.756   8.906  23.337  0.1935  0.2832  0.0625
97480W        W40533  19.161  29.161  14.692 -0.0271  0.0602  0.0598
97481W        W40534  11.165  17.863  16.934 -0.1012 -0.0999 -0.4869
97482W        W40535   9.239   1.394  24.350 -0.1895 -0.1175 -0.1024
97483W        W40536  14.617  29.202  16.050 -0.1797 -0.1235 -0.0706
97484W        W40537   9.918   0.058  15.406 -0.0897  0.0332 -0.2377
97485W        W40538   2.298  34.173  24.514  0.0047 -0.1988  0.0360
97486W        W40539  17.121  29.002  23.826 -0.3404 -0.1091  0.5183
97487W        W40540  24.785   8.220  23.341  0.1139  0.4139  0.0844
97488W        W40541  10.978  31.259  15.752  0.0798  0.1254 -0.1008
97489W        W40542  27.514  10.619  16.913  0.4005  0.0255 -0.1329
97490W        W40543  28.405   3.739  23.153 -0.4502 -0.1223 -0.0532
97491W        W40544  31.618  34.426  24.502  0.1920 -0.6448 -0.0901
97492W        W40545  34.185   7.914  20.812  0.0635 -0.1630  0.0379
97493W        W40546  10.689   7.592  20.327  0.1080  0.1825  0.1011
97494W        W40547  29.135   4.341  18.394 -0.1121  0.2643 -0.0139
97495W        W40548  26.272  34.045  18.611 -0.3210 -0.1968 -0.1394
97496W        W40549  12.049  32.043  18.471  0.0569  0.3166  0.1313
97497W        W40550  25.632  18.493  28.533  0.5757  0.0603 -0.1278
97498W        W40551  14.763  29.392  16.595 -0.1389  0.1134  0.3575
97499W        W40552  28.285   0.874  14.834  0.4829  0.0075 -0.2318
97500W        W40553   9.115   0.024  25.578  0.3491 -0.0983  0.0934
97501W        W40554  19.386  26.973  14.574 -0.2091  0.0074  0.0911
97502W        W40555  21.180   0.546  18.136 -0.0516 -0.1082  0.2692
97503W        W40556  10.578  27.686  20.941  0.1609 -0.2296  0.2817
97504W        W40557  16.256   1.364  13.724 -0.1488  0.1248  0.1101
97505W        W40558   7.744   1.016   1.866 -0.0116  0.2991  0.0067
97506W        W40559  24.041  18.571  14.969  0.0786  0.0418  0.2443
97507W        W40560  18.429  30.068  28.898  0.0161 -0.1626 -0.0748
97508W        W40561   3.363   4.547  22.482 -0.0994  0.2403  0.1429
97509W        W40562  28.529  30.826  21.500 -0.3076  0.1678 -0.0062
97510W        W40563   2.330   5.469  16.351 -0.1374  0.1294 -0.0127
97511W        W40564  21.563   8.070  15.001  0.2627 -0.0845 -0.4524
97512W        W40565  10.177  25.529  13.361 -0.2277  0.2077  0.0387
97513W        W40566  25.809   4.828  20.640  0.3436 -0.2049  0.3017
97514W        W40567  14.466   3.960  23.708  0.0691 -0.1519  0.2620
97515W        W40568  12.577  16.195   0.390  0.1249  0.2309 -0.2880
97516W        W40569  27.548  34.475   0.386  0.0080 -0.0482  0.0883
97517W        W40570  25.259  30.064  22.496 -0.0079 -0.1533  0.0502
97518W        W40571   2.237  22.729  27.994  0.1641 -0.1032  0.1810
97519W        W40572  17.836  25.162  20.792  0.0204 -0.1340 -0.0260
97520W        W40573  23.241  21.703  17.012  0.0120 -0.0243  0.0877
97521W        W40574  18.386  34.326  14.870 -0.2478 -0.1323  0.0533
97522W        W40575   2.531  25.276  25.536  0.1833 -0.0571  0.1909
97523W        W40576  25.173  21.262  17.821  0.0715  0.1797  0.0408
97524W        W40577  16.599  18.848  14.335 -0.0298  0.0490 -0.0980
97525W        W40578   7.861   4.462  23.470 -0.1448  0.1356 -0.0071
97526W        W40579  28.892   5.546  24.749  0.2595 -0.3326  0.0408
97527W        W40580  23.826   0.224   0.518 -0.0795  0.1038 -0.2907
97528W        W40581  18.825   5.725  27.085 -0.0324 -0.0878 -0.1803
97529W        W40582  20.547  25.027  17.847  0.0587 -0.0920 -0.4452
97530W        W40583   9.693  16.111  25.852  0.0068  0.0155 -0.2630
97531W        W40584  23.316  29.946  18.328 -0.3467 -0.0884  0.2888
97532W        W40585  22.369   1.174  15.697  0.0950 -0.3773  0.2084
97533W        W40586   2.733   1.235   1.385  0.1724 -0.0279  0.0992
97534W        W40587  11.720  21.435  20.257  0.1189 -0.1864  0.1720
97535W        W40588  27.618  33.604  23.575 -0.1484 -0.0852  0.1184
97536W        W40589  20.848  23.167  19.619 -0.0097  0.0572  0.1837
97537W        W40590  10.948  29.674  20.492 -0.1395  0.4174 -0.2818
97538W        W40591   5.444   3.579  22.803 -0.0354  0.0855 -0.0807
97539W        W40592  26.639   2.369  19.968 -0.2135 -0.0497 -0.1881
97540W        W40593  26.923  24.769  17.530 -0.3157  0.3211  0.1746
97541W        W40594  26.214  26.274  26.718  0.1233  0.1603 -0.0219
97542W        W40595  20.773  34.673  17.712 -0.2101  0.0977 -0.0635
97543W        W40596  24.269  25.551  23.205 -0.0520 -0.2013  0.0943
97544W        W40597  21.579  13.019  15.138 -0.3093 -0.1245 -0.0283
97545W        W40598  24.371   5.651   0.409 -0.0597  0.2202  0.2940
97546W        W40599   8.807  28.027  23.958 -0.1472  0.0388 -0.2598
97547W        W40600   5.603   5.310  13.931  0.1473 -0.1909  0.0633
97548W        W40601  11.337   0.315  14.600 -0.1017 -0.2876 -0.0258
97549W        W40602  23.698  32.504  21.242  0.3663  0.1231 -0.0796
97550W        W40603  24.292   9.480   7.408  0.0100 -0.1423  0.0977
97551W        W40604  18.185  18.503  13.703 -0.0699 -0.1299  0.4445
97552W        W40605  28.361  33.198   3.056  0.0892  0.1161  0.1074
97553W        W40606   8.953  31.755  20.432 -0.3943  0.6018  0.5891
97554W        W40607  16.373   8.247   4.306 -0.0601 -0.0639 -0.1218
97555W        W40608  26.623  34.494  23.239 -0.0213  0.0445 -0.1528
97556W        W40609   3.688  27.420  13.878  0.0866 -0.0717 -0.4810
97557W        W40610  13.750   9.457  21.361  0.1804 -0.0103 -0.2125
97558W        W40611  32.233   1.365  17.308 -0.1681 -0.1095  0.1400
97559W        W40612   1.417  15.834  23.593 -0.1063  0.0429 -0.2371
97560W        W40613  28.780  27.773  25.292 -0.1734  0.0178  0.3265
97561W        W40614  22.946  30.487  14.744  0.1295  0.1324  0.2478
97562W        W40615   0.985  22.224  23.672 -0.1196  0.2354  0.1526
97563W        W40616  23.637   4.755  14.391 -0.2524  0.0495 -0.3059
97564W        W40617  12.706   4.999  25.244  0.1781  0.0600  0.1007
97565W        W40618  14.863  26.750  17.512  0.2052  0.0485 -0.0081
97566W        W40619  24.981   4.896  28.549  0.2436 -0.1302 -0.3521
97567W        W40620  11.328  14.739  24.106  0.0831  0.0222  0.1638
97568W        W40621  19.489  34.225  27.569  0.0346  0.3519 -0.1810
97569W        W40622  30.697  17.240  21.815 -0.1026 -0.0847  0.2890
97570W        W40623  21.978   1.781  23.709 -0.3538 -0.0025 -0.2582
97571W        W40624  22.834   2.488  17.387 -0.0660  0.4099 -0.1418
97572W        W40625  24.229   0.952  16.983  0.0004  0.1121 -0.0066
97573W        W40626  17.909  20.031  22.291 -0.2548  0.1245 -0.2080
97574W        W40627  11.109  11.198  16.515 -0.0558 -0.0883 -0.0631
97575W        W40628   6.680   1.193   5.720 -0.2156  0.3074 -0.0089
97576W        W40629  30.680  29.465  19.811  0.0252  0.0964 -0.1984
97577W        W40630  14.266  28.872  15.138 -0.0401  0.3041 -0.1191
97578W        W40631  11.977  27.082  15.639  0.0100 -0.0795  0.0771
97579W        W40632  28.499   9.933  17.473  0.1880 -0.0757 -0.2704
97580W        W40633  14.767  26.934  14.331  0.0216 -0.2387  0.3630
97581W        W40634  28.874  33.182  16.284 -0.0729 -0.0353 -0.0517
97582W        W40635  11.478  31.015  24.060  0.1387 -0.1326  0.0697
97583W        W40636  22.352  33.095  15.540  0.1439 -0.1495  0.1396
97584W        W40637  29.487  30.386  22.545 -0.1347  0.0643  0.0487
97585W        W40638  28.196  31.352  23.599  0.0717  0.1374  0.0253
97586W        W40639   9.609  22.349  24.830 -0.0729  0.1057  0.2346
97587W        W40640  14.474   3.277  14.464  0.0929  0.2936  0.0599
97588W        W40641  30.986   6.774  14.581 -0.0732 -0.1949  0.1859
97589W        W40642  26.224  14.389  17.688 -0.2729 -0.1487  0.0282
97590W        W40643  25.102  33.292  23.773 -0.1468 -0.4167  0.0196
97591W        W40644  26.736  20.925  27.015  0.0189  0.0775 -0.2152
97592W        W40645  28.544  27.857   9.766  0.2128 -0.3979 -0.1957
97593W        W40646  27.975  28.008  16.836  0.3370  0.1771 -0.2132
97594W        W40647   0.361  19.055   0.625  0.0896 -0.0935  0.1623
97595W        W40648  19.055   6.713  15.955  0.0676 -0.1254 -0.2144
97596W        W40649   4.133  32.267  22.965  0.2163 -0.0045  0.1912
97597W        W40650  20.395   7.825  16.929 -0.4495 -0.1800 -0.2946
97598W        W40651  31.990  24.673  19.536 -0.0790  0.1003  0.0809
97599W        W40652   6.972   2.447   0.028  0.3298  0.0585 -0.1482
97600W        W40653  23.478  30.293  28.915 -0.1259 -0.1396  0.1474
97601W        W40654  21.870   9.105   5.139 -0.1420  0.3909  0.0706
97602W        W40655  20.204  11.523  19.243  0.1292  0.4004  0.0536
97603W        W40656  21.931   5.585  21.481 -0.1181 -0.1277  0.2218
97604W        W40657  13.349  23.390  17.676 -0.1023  0.0247  0.0466
97605W        W40658  17.631  33.486  21.377  0.3055  0.1781  0.2209
97606W        W40659  14.934   2.390  16.372  0.1090 -0.4525  0.2735
97607W        W40660  15.452  32.206  27.719  0.1897  0.0292  0.0934
97608W        W40661   9.494  30.868  18.997  0.2829 -0.4781  0.1323
97609W        W40662  21.837   1.947  16.458  0.2796  0.2018 -0.0463
97610W        W40663  24.111   1.688  17.776  0.3232 -0.1496  0.3327
97611W        W40664  17.890  31.921  18.518 -0.2879  0.2805 -0.0555
97612W        W40665  27.554   8.419  18.553 -0.1441 -0.0966 -0.2008
97613W        W40666   8.157  30.142  14.839  0.0371  0.1159 -0.1924
97614W        W40667  32.122   2.885  22.652  0.2816  0.1105  0.0793
97615W        W40668  20.816  30.688  21.602  0.0144 -0.0186 -0.1263
97616W        W40669  18.686  33.671  16.776  0.0599  0.0855  0.0542
97617W        W40670  12.222  30.785  23.861 -0.0772 -0.2116 -0.3009
97618W        W40671  21.362  33.849  14.741  0.1508 -0.0336  0.0859
97619W        W40672  15.684   2.530   9.632  0.0785  0.0965 -0.2984
97620W        W40673  12.296  28.423  20.474 -0.0727 -0.3270 -0.1079
97621W        W40674  19.824  12.143  29.173  0.2236 -0.2505  0.1114
97622W        W40675  18.741  28.087  14.775 -0.0794  0.0300  0.4165
97623W        W40676  24.046  32.165  17.347 -0.1577  0.3897 -0.1252
97624W        W40677  20.510   9.931  28.146 -0.0714  0.1707 -0.2921
97625W        W40678  16.750  32.646  16.868  0.3414 -0.0031  0.0551
97626W        W40679  33.377   3.522  13.859 -0.0230 -0.1650  0.0689
97627W        W40680  25.346   1.897  15.910 -0.0615 -0.1602 -0.0525
97628W        W40681  12.279   6.153  19.518 -0.2885 -0.0802  0.2388
97629W        W40682  21.588  27.056  21.614 -0.0966  0.2068  0.0705
97630W        W40683  21.784  18.585  14.983 -0.2064 -0.0301 -0.0119
97631W        W40684  27.817  14.637  15.526  0.1662  0.1114  0.0085
97632W        W40685  13.920  32.918  21.455 -0.0194  0.2359  0.3547
97633W        W40686  12.962   7.238  22.955 -0.2928 -0.0258  0.1347
97634W        W40687  19.282  30.591  21.667  0.0183  0.3365 -0.0569
97635W        W40688  32.604  22.525  13.809 -0.2545 -0.3012 -0.0458
97636W        W40689  12.265  14.297  15.047 -0.2191 -0.0881  0.3051
97637W        W40690  20.074  32.082  18.813  0.3320  0.2160  0.1864
97638W        W40691  26.310  30.955  19.829  0.2382 -0.2110  0.0458
97639W        W40692  12.650   4.453  20.234  0.0895 -0.0490 -0.1248
97640W        W40693  21.827  18.796  17.476 -0.0829 -0.1832 -0.0825
97641W        W40694  22.557  17.715  15.276  0.0151 -0.1467 -0.1524
97642W        W40695  31.955  26.959  26.020 -0.5345  0.0064 -0.0644
97643W        W40696  15.401  34.053  16.382  0.2263 -0.0013  0.2661
97644W        W40697  16.527   5.937  14.284 -0.2356  0.1511  0.1136
97645W        W40698   0.303   8.171  19.573  0.2181 -0.0383 -0.2672
97646W        W40699  16.389   2.956  16.959  0.4266  0.0018  0.1493
97647W        W40700  16.600  23.376   1.484 -0.0959 -0.1430 -0.2189
97648W        W40701   7.368  10.194  25.239 -0.1168 -0.1402  0.1764
97649W        W40702  25.093  31.796  21.286 -0.2260 -0.0024  0.0378
97650W        W40703  17.967   3.740  23.958  0.0734 -0.0562 -0.2264
97651W        W40704  25.157   2.664  26.319  0.2782 -0.0199  0.1098
97652W        W40705  25.612  32.931  24.040  0.0619  0.2505  0.0436
97653W        W40706  12.331   2.090  20.724  0.1372  0.0241  0.1463
97654W        W40707  27.204  27.580  15.266 -0.1409  0.1493  0.2404
97655W        W40708  18.797  33.499  14.110  0.1916  0.0018 -0.2482
97656W        W40709  27.732   4.853  26.056 -0.3481 -0.0779 -0.0336
97657W        W40710  14.502  27.290  16.416  0.3387  0.0846 -0.0935
97658W        W40711  26.423  31.310  24.147  0.1194  0.0833  0.2273
97659W        W40712   2.248  18.849  15.314 -0.3118 -0.0988  0.1165
97660W        W40713  17.396  30.163  21.057  0.4765 -0.4169  0.0952
97661W        W40714  23.866  30.422  14.838  0.0487  0.0969 -0.2040
97662W        W40715  11.715  27.929  15.529  0.0177 -0.1167  0.2225
97663W        W40716   7.244  28.236  19.941  0.1337  0.2474  0.0544
97664W        W40717   3.984   4.501  19.775  0.0553 -0.0898 -0.0960
97665W        W40718  29.268  23.876  20.939  0.2537 -0.2011 -0.2433
97666W        W40719  13.870   9.915  20.844 -0.1434 -0.0515 -0.3198
97667W        W40720  29.445  20.845  24.904 -0.1667  0.4279  0.3421
97668W        W40721  34.321  24.417  22.580 -0.0898 -0.0135 -0.0873
97669W        W40722  16.922   6.867  17.341  0.0350 -0.1043 -0.0140
97670W        W40723  34.208   3.843  17.422  0.0767  0.2185 -0.0571
97671W        W40724   7.853  34.353  24.067 -0.0074  0.0091 -0.1349
97672W        W40725  10.691   6.503  19.009  0.3838 -0.1249 -0.0847
97673W        W40726  14.073   5.128   0.242 -0.2586 -0.0388 -0.0879
97674W        W40727  17.108  22.148  25.980  0.1828  0.2394  0.3085
97675W        W40728  13.999  21.564  20.541 -0.1731  0.1855  0.2649
97676W        W40729  24.191  24.372  16.913  0.0946  0.0830 -0.3765
97677W        W40730  19.285   0.775  16.547 -0.1193 -0.0565  0.0514
97678W        W40731  34.559   6.350  17.698 -0.0931 -0.0011 -0.0259
97679W        W40732  33.214   4.837  27.062  0.0542  0.0588 -0.3201
97680W        W40733  30.300   3.059  24.421 -0.1677 -0.4380  0.1710
97681W        W40734  21.994  27.220  15.092  0.2731 -0.1474 -0.2865
97682W        W40735  19.741  28.924  16.257  0.0643 -0.0221 -0.0232
97683W        W40736  14.603  30.420  21.183  0.1096  0.0952 -0.3420
97684W        W40737  19.726   3.995  25.183  0.0071  0.1989  0.0348
97685W        W40738  16.940   4.226  24.516 -0.1085 -0.1617  0.0223
97686W        W40739   3.481   0.469  19.945 -0.1008  0.1343 -0.2178
97687W        W40740  15.277   1.467  28.110  0.0400 -0.3266 -0.2526
97688W        W40741  29.853   4.836  18.306 -0.1190  0.0080  0.0332
97689W        W40742  20.655  25.215   3.056 -0.2149 -0.1724  0.1918
97690W        W40743  27.837  30.095  14.155 -0.2919 -0.5083 -0.1914
97691W        W40744  15.075   5.167  24.108 -0.0502  0.1505  0.0145
97692W        W40745  31.177  28.106  22.566 -0.1689  0.1780  0.3131
97693W        W40746   1.846  30.042  16.231 -0.2106 -0.0845 -0.2098
97694W        W40747  28.334  33.967  16.247  0.0856  0.2729 -0.0160
97695W        W40748  22.865  24.727  24.723  0.1477 -0.2163  0.1983
97696W        W40749  20.954   9.674  19.081 -0.4316  0.2966  0.0321
97697W        W40750  26.740  11.162  19.010 -0.3172 -0.3018  0.0320
97698W        W40751  14.457  22.801  22.441 -0.1095  0.0008  0.2305
97699W        W40752  17.495  30.036  27.340  0.0891  0.1583 -0.1746
97700W        W40753  10.641  28.240  15.634 -0.2263 -0.0987 -0.0206
97701W        W40754   5.061   0.856  27.178 -0.0089  0.0351 -0.0415
97702W        W40755  26.682  19.835  15.689 -0.1008 -0.2490 -0.0767
97703W        W40756  25.714  10.608  18.482  0.0186  0.4024 -0.2795
97704W        W40757   9.025   5.781  17.598 -0.2142 -0.0593 -0.1619
97705W        W40758  19.963  33.038  14.136  0.0616  0.0358 -0.0464
97706W        W40759  25.059   0.892  18.255  0.1758  0.1080 -0.1075
97707W        W40760  30.610  11.475   4.892  0.1459 -0.0491  0.2497
97708W        W40761   4.742   0.678  15.256 -0.0583 -0.0735  0.1582
97709W        W40762  18.780   5.059  18.053  0.0487  0.1312  0.1487
97710W        W40763   6.155   0.648  18.304  0.0089 -0.1473 -0.0603
97711W        W40764  12.011  23.149  21.009 -0.1594 -0.0617  0.1413
97712W        W40765  33.282   5.180  16.036  0.0412  0.0356  0.1902
97713W        W40766  24.729  12.238  21.365 -0.3472  0.0044 -0.0304
97714W        W40767  14.156  26.121  22.854  0.2843 -0.1374  0.2470
97715W        W40768  26.682  27.516  23.109 -0.2043  0.2577 -0.0186
97716W        W40769  16.346  33.711   2.473 -0.0517 -0.2115 -0.1108
97717W        W40770  21.475   6.607  19.986  0.1934  0.0419 -0.2042
97718W        W40771   8.068  29.894   3.711  0.0599  0.0969 -0.0610
97719W        W40772  17.057   1.103  27.391  0.0303  0.2445 -0.1626
97720W        W40773  19.746   5.379  20.338  0.0393 -0.3175 -0.3572
97721W        W40774  16.716  22.880   1.555 -0.3121 -0.2404  0.0790
97722W        W40775  21.262  30.891  24.688  0.2336 -0.2163 -0.1308
97723W        W40776  17.845  10.612  17.284  0.0003 -0.0768 -0.0746
97724W        W40777  34.224   2.947  16.236  0.2258  0.1465  0.1868
97725W        W40778  17.114  34.265  24.923 -0.0706  0.0046  0.0647
97726W        W40779  14.526   8.011  15.319  0.2138  0.0066 -0.2972
97727W        W40780  31.868  30.364  27.721 -0.1988  0.0714 -0.2814
97728W        W40781  21.361   8.651  16.103 -0.1511 -0.0013 -0.3020
97729W        W40782  27.616  34.389  18.137  0.1693  0.1566 -0.1611
97730W        W40783  22.484  25.692  20.843  0.1381  0.1071  0.0358
97731W        W40784   4.067  30.996  17.991  0.2150 -0.2656  0.0667
97732W        W40785  11.197   5.443   3.652  0.1415  0.1288 -0.2262
97733W        W40786  12.474  25.037  16.285  0.1833 -0.0912  0.2197
97734W        W40787  24.369  31.555  18.113  0.0680  0.1443 -0.2609
97735W        W40788  31.038  30.999  20.457 -0.3597 -0.1147 -0.0248
97736W        W40789   8.949  26.486  20.500 -0.0439  0.1028  0.2394
97737W        W40790   6.104   5.026  15.253  0.3374  0.2638  0.1217
97738W        W40791  21.143   0.254  22.307 -0.1631  0.2239  0.0672
97739W        W40792  14.453  29.755   8.789 -0.1148 -0.1985 -0.0576
97740W        W40793  24.899   8.095   1.865  0.3346  0.1261  0.2632
97741W        W40794  22.278  26.685  19.056  0.1285 -0.3097 -0.0734
97742W        W40795  11.240   2.483  22.376 -0.0015  0.1979 -0.0972
97743W        W40796   9.598   7.345  21.166  0.1003 -0.0356  0.1893
97744W        W40797  14.573  12.618  21.151  0.0376 -0.1661  0.2175
97745W        W40798  30.324  27.745   7.649 -0.1341  0.2735  0.0952
97746W        W40799  22.624  12.821  19.135 -0.0350 -0.0660  0.0381
97747W        W40800   2.692  23.044  27.274 -0.3251 -0.0336  0.1587
97748W        W40801  32.028  31.129  20.323 -0.0304 -0.1030  0.0073
97749W        W40802  21.693  15.139  14.955  0.2016 -0.1030  0.0925
97750W        W40803  19.446   0.645  14.553  0.1421 -0.3151 -0.0023
97751W        W40804  29.937   0.925  26.301  0.0527 -0.1347  0.0542
97752W        W40805  12.443  20.062  23.340  0.0130  0.2812 -0.1440
97753W        W40806  12.256   4.807  26.020 -0.0167 -0.0533  0.1710
97754W        W40807  17.205  33.197  27.608 -0.0141 -0.1251 -0.1465
97755W        W40808  17.376  31.103   3.932 -0.2177 -0.0226  0.6495
97756W        W40809   1.744   4.403   1.534  0.3135  0.0355  0.1231
97757W        W40810  32.061   9.194  22.552 -0.1606  0.0267 -0.0186
97758W        W40811  22.419   1.048  28.117  0.1742 -0.1235  0.1202
97759W        W40812  24.160  34.541  23.713 -0.1690 -0.0356 -0.0481
97760W        W40813   6.829  18.174  16.549 -0.1373  0.1177 -0.0962
97761W        W40814  20.076  30.825  20.228 -0.1388 -0.0189  0.1898
97762W        W40815  10.460  30.029  28.286 -0.2400 -0.3517 -0.0598
97763W        W40816  18.978   5.067  15.519  0.1393  0.1636 -0.1436
97764W        W40817  23.323   9.818  21.965 -0.2733 -0.2451  0.2799
97765W        W40818  15.028   5.529  27.079  0.1399  0.0813  0.0237
97766W        W40819  23.854  27.095  26.154 -0.0737  0.4120  0.1880
97767W        W40820  20.941  28.769  18.352 -0.1001  0.0974  0.1327
97768W        W40821  28.441  30.211  15.802 -0.0028 -0.0229 -0.0400
97769W        W40822  23.600   5.683   9.105 -0.0608  0.1139  0.0379
97770W        W40823   6.431  28.717   1.604  0.3671 -0.1300 -0.2760
97771W        W40824  28.733   4.135  19.419 -0.0758 -0.0612 -0.1615
97772W        W40825  15.525  16.934  15.080 -0.2292  0.1904  0.0653
97773W        W40826   0.350  30.591  17.887  0.1502 -0.0562 -0.0367
97774W        W40827  29.847  19.029  17.949  0.0502  0.1399  0.1269
97775W        W40828  26.585   2.829  21.643  0.0425 -0.0736  0.0408
97776W        W40829  17.313   0.673  14.759 -0.2479 -0.1103  0.2541
97777W        W40830  24.521  31.718  21.246 -0.0381  0.0134  0.0828
97778W        W40831  26.178  27.657  14.648  0.2208  0.2321 -0.0308
97779W        W40832  10.852  23.758  17.831 -0.6301  0.4897  0.0040
97780W        W40833  12.331  28.810  14.292 -0.3094  0.2434 -0.3000
97781W        W40834  23.590   9.607   3.176 -0.5066 -0.1237  0.2836
97782W        W40835  27.232  32.948  20.096 -0.0221  0.0843  0.1090
97783W        W40836  19.370  30.257  17.118  0.0031 -0.0264  0.4050
97784W        W40837  14.652  29.689  18.075 -0.0198 -0.1673  0.0015
97785W        W40838  19.157  33.732  26.885 -0.1110 -0.2288 -0.0488
97786W        W40839  33.068  27.863  20.112  0.1680  0.2050  0.4719
97787W        W40840  29.303  30.682  23.973  0.1025 -0.2441 -0.2649
97788W        W40841  18.802  33.109  26.651  0.3473 -0.1018 -0.2010
97789W        W40842   0.098   2.592   3.070 -0.2607 -0.2212 -0.1041
97790W        W40843  15.501  12.360  18.636  0.0901 -0.2310  0.1403
97791W        W40844  31.657  25.921  16.104 -0.1786 -0.5612  0.1531
97792W        W40845  26.387   2.350  16.860  0.2735 -0.0698  0.2145
97793W        W40846  28.004  33.674  27.519  0.0711  0.0904 -0.0439
97794W        W40847  27.805   5.742  14.959  0.1498 -0.2633  0.0288
97795W        W40848  19.608  22.164  24.735 -0.2496 -0.2108  0.0529
97796W        W40849  19.697   6.069  24.733 -0.0394 -0.0364  0.0588
97797W        W40850  30.066   2.076  23.681  0.2327 -0.1040 -0.0865
97798W        W40851  22.415  32.192  13.988  0.1580 -0.0771  0.2077
97799W        W40852  31.387   0.956   1.661  0.2368  0.1205 -0.2493
97800W        W40853  33.808   8.003  22.101 -0.1692  0.2972 -0.2016
97801W        W40854  21.569  25.340  17.514 -0.0040 -0.3413 -0.2158
97802W        W40855  34.041  11.453  17.966 -0.2466 -0.2322 -0.1352
97803W        W40856  27.474   1.607  26.578 -0.0674 -0.3937 -0.1786
97804W        W40857  27.909  18.869  21.715 -0.0799 -0.0361  0.2901
97805W        W40858  18.773  23.203  15.247  0.2562 -0.0128  0.1556
97806W        W40859   1.400   4.406  22.069  0.3944 -0.0682 -0.3546
97807W        W40860  25.290   6.911  22.881  0.2073  0.0733 -0.2709
97808W        W40861  29.427  31.536  18.924  0.0530 -0.0773 -0.0322
97809W        W40862   7.481   1.601  21.536 -0.2095 -0.2876  0.0094
97810W        W40863  30.474   4.888  18.266  0.0328  0.1251  0.0144
97811W        W40864  13.278  30.158  17.075 -0.0941  0.2858  0.2031
97812W        W40865  25.946  27.942  27.304 -0.0656 -0.3214 -0.1219
97813W        W40866  22.126  22.387  24.632  0.4867 -0.1748 -0.2889
97814W        W40867  24.554  29.717  16.461  0.1145  0.1032  0.0203
97815W        W40868  16.711  33.637  16.474  0.0694 -0.3196  0.0855
97816W        W40869   7.836  27.219  16.608  0.1272 -0.2796 -0.0764
97817W        W40870  10.213  29.097  29.193 -0.0558 -0.1557  0.4621
97818W        W40871  22.038  25.359  24.431 -0.1358 -0.0334  0.3254
97819W        W40872  11.463   3.026   0.613  0.0877 -0.4666  0.2717
97820W        W40873   6.924  34.347   0.500 -0.1124  0.1622 -0.1049
97821W        W40874  15.541   9.184  17.084 -0.2865  0.0099  0.0268
97822W        W40875  15.707  15.969   3.664  0.0313  0.0665 -0.0159
97823W        W40876  25.612  18.078  14.443 -0.4275  0.1145  0.2319
97824W        W40877  10.335  22.156  18.458 -0.1708 -0.0127  0.1399
97825W        W40878  26.013  15.634  15.157  0.1018 -0.2217  0.2463
97826W        W40879  17.103  32.320  16.987  0.3347  0.0121 -0.2035
97827W        W40880  13.745  27.222  16.082 -0.1213 -0.1769 -0.1074
97828W        W40881  32.643   2.509   2.998  0.2676  0.1242 -0.0004
97829W        W40882  23.346  30.080  26.575 -0.1293  0.1905  0.1162
97830W        W40883  15.612  29.295  21.323 -0.0625 -0.0711 -0.1478
97831W        W40884  24.582  31.268  21.658  0.0434  0.0250 -0.1004
97832W        W40885  17.733  28.706   5.846 -0.2148  0.0166  0.1782
97833W        W40886  15.452  31.392  23.662 -0.2006 -0.2419 -0.2175
97834W        W40887  29.112  30.893  18.443 -0.0669 -0.3104  0.1392
97835W        W40888  14.986  32.707  16.968 -0.3057  0.0996 -0.1423
97836W        W40889  17.177  32.545  20.610 -0.0826  0.1223  0.5583
97837W        W40890  23.943  26.488  15.978  0.0759  0.0263 -0.1740
97838W        W40891  22.909  24.340  23.048  0.0074  0.1202  0.0847
97839W        W40892  19.593  22.226  26.830 -0.1397 -0.2173  0.2027
97840W        W40893  30.851  18.803  20.404  0.0949 -0.0641 -0.3446
97841W        W40894  23.519  31.183  19.789 -0.1491  0.0308  0.3114
97842W        W40895   1.291   1.446  22.382 -0.0334 -0.1286  0.0706
97843W        W40896  24.834  32.759  21.210  0.3095 -0.0067 -0.1451
97844W        W40897  24.221  32.461   2.347  0.2834  0.1842 -0.1230
97845W        W40898  30.171  30.764  23.723  0.0781 -0.0075  0.1646
97846W        W40899  11.781  30.777  21.298 -0.0162  0.0274 -0.1838
97847W        W40900  14.633   1.940  14.491  0.0351  0.1488 -0.4245
97848W        W40901  26.558  28.103  25.434  0.0440 -0.3349  0.0296
97849W        W40902  25.159  27.580  15.587  0.3051 -0.0864 -0.3018
97850W        W40903  16.349  33.927  17.213  0.0893  0.2659  0.0308
97851W        W40904  27.304   4.715   6.226  0.0194 -0.0934  0.2026
97852W        W40905   9.077  33.433  17.413 -0.1622 -0.1730  0.1080
97853W        W40906   8.881   8.570  24.775 -0.0258 -0.1632 -0.4848
97854W        W40907   7.397  29.918  16.353  0.0067 -0.0219 -0.1227
97855W        W40908  10.810  18.222  24.858 -0.0681 -0.1250 -0.1527
97856W        W40909  22.848   2.787   0.509  0.1632 -0.0687 -0.1736
97857W        W40910  17.819  34.195  26.754  0.4613 -0.0290 -0.2299
97858W        W40911  17.231  34.625  20.291  0.0776  0.1421  0.1377
97859W        W40912  30.406   2.827  19.365 -0.0725  0.1793 -0.0895
97860W        W40913  28.123  25.036  21.330 -0.0860 -0.1747  0.0467
97861W        W40914  26.018   7.834  19.318  0.0575 -0.1063 -0.3225
97862W        W40915   6.647  10.675  16.848  0.0897  0.1852  0.2350
97863W        W40916  17.489   1.012  15.052 -0.3409  0.1252 -0.1495
97864W        W40917  14.953  33.598  19.867 -0.0509  0.0483 -0.0757
97865W        W40918  21.936  30.938  26.870  0.0015 -0.0771  0.0905
97866W        W40919  10.820  30.572  25.726 -0.3232  0.1859  0.3291
97867W        W40920  30.841   9.777  23.712 -0.1891 -0.0343  0.0944
97868W        W40921  20.446   1.173  14.881  0.2721  0.0918 -0.2872
97869W        W40922  18.712   1.501  26.221 -0.0040 -0.0657  0.0231
97870W        W40923  34.220   6.203  19.573 -0.1341 -0.0352 -0.0981
97871W        W40924  16.919  26.940  24.511 -0.0441 -0.2438  0.0900
97872W        W40925  23.760  12.737   1.581  0.1927 -0.2661  0.3593
97873W        W40926  16.182   2.058  18.483 -0.2496 -0.1924  0.0237
97874W        W40927  30.735   1.059   3.176  0.2550 -0.1641 -0.2708
97875W        W40928  26.091  20.681  18.464 -0.1200  0.0950  0.1330
97876W        W40929  13.659  10.733  16.658  0.1068  0.2757  0.1112
97877W        W40930  22.875  27.672  21.259  0.1996 -0.0314  0.2118
97878W        W40931  16.675  33.908  23.733  0.2279  0.3030  0.0533
97879W        W40932  11.523  34.510   6.698 -0.2427  0.0974  0.1358
97880W        W40933  13.782  22.353  19.626 -0.0783  0.1994  0.1656
97881W        W40934   8.879  17.321   8.056 -0.2956 -0.1624  0.2457
97882W        W40935  20.535  27.151  16.082  0.1754  0.2492  0.0171
97883W        W40936  19.630  33.213  14.459 -0.0495 -0.1194  0.1289
97884W        W40937  33.703  20.122  27.064 -0.0029 -0.0596  0.0248
97885W        W40938   3.008  12.538   6.384  0.0452  0.2959  0.2153
97886W        W40939  14.400  29.627  21.756 -0.0220  0.0007  0.1172
97887W        W40940  25.916  34.598   6.131 -0.1259  0.2299  0.0412
97888W        W40941  34.308   6.447  20.800  0.0575 -0.1357 -0.3247
97889W        W40942   6.621  30.225  13.633  0.0000  0.0962  0.0523
97890W        W40943  33.437  19.681  24.108  0.1479  0.1279 -0.0265
97891W        W40944   6.832  28.265  19.085  0.0578 -0.1464 -0.0139
97892W        W40945   3.985  18.348  16.775  0.0953  0.0655  0.0439
97893W        W40946  10.764  10.126  17.271  0.1374  0.4037  0.0247
97894W        W40947   5.448  24.352  24.526 -0.1360  0.0751 -0.2932
97895W        W40948  25.006  25.019  15.798 -0.3323  0.0303  0.1177
97896W        W40949  14.662   1.173  17.433  0.0389  0.1618  0.0471
97897W        W40950   7.804  26.981  27.000  0.1396  0.2832 -0.0607
97898W        W40951  25.308  29.270  21.007 -0.1799 -0.2038 -0.1603
97899W        W40952   9.709  32.355   1.832  0.0305  0.0773  0.1841
97900W        W40953  18.510  12.284  13.791  0.3354  0.1026  0.2384
97901W        W40954  30.477   3.746  15.019 -0.0472 -0.0396 -0.1700
97902W        W40955  18.730   1.280   2.382 -0.4004  0.0392 -0.2545
97903W        W40956  19.367  33.315  15.836 -0.0547  0.1806 -0.1371
97904W        W40957   6.349   7.579  20.241  0.0358 -0.0650  0.1190
97905W        W40958  22.992  13.224  15.890  0.3649  0.3969 -0.1612
97906W        W40959  25.817  25.761  27.646 -0.3678 -0.3185 -0.1547
97907W        W40960  25.036  15.680  21.829 -0.1483  0.2286  0.2343
97908W        W40961  19.842  32.432  16.931 -0.4900  0.1744  0.3555
97909W        W40962  29.901  10.746  20.445 -0.0633  0.2123 -0.1910
97910W        W40963  23.232  33.925  15.485 -0.1145  0.4005  0.0108
97911W        W40964   4.567  23.799   4.474 -0.0986  0.0360  0.0302
97912W        W40965  17.753  31.660  15.069  0.1205 -0.1432  0.1941
97913W        W40966  19.523  30.287  14.692  0.0455  0.0776 -0.2929
97914W        W40967   6.245  26.815  23.381  0.4561 -0.0374 -0.1622
97915W        W40968  18.327   1.625  20.940  0.1392 -0.1439 -0.2003
97916W        W40969   7.867  27.384  19.714  0.0154  0.0755 -0.0711
97917W        W40970  16.794  27.478  21.334  0.3599 -0.2134 -0.3273
97918W        W40971  21.367  32.915  14.744 -0.1967  0.3317 -0.0402
97919W        W40972   8.500   4.183  20.112 -0.0732 -0.1137 -0.1398
97920W        W40973   3.560  33.491   0.986 -0.1210 -0.1470  0.1054
97921W        W40974  12.934  26.722  18.594  0.2916 -0.1467  0.1574
97922W        W40975  14.838  13.127  23.156 -0.1924  0.0463  0.1037
97923W        W40976  16.086  13.828   2.152  0.2885 -0.1364  0.2397
97924W        W40977   5.203  26.748  28.603 -0.0023  0.1325 -0.1035
97925W        W40978  32.285  29.709  16.608 -0.1464  0.1106 -0.1282
97926W        W40979  17.252  32.126  27.854  0.1642  0.0575 -0.2081
97927W        W40980  29.496  11.550  18.438  0.2052 -0.2427 -0.0979
97928W        W40981  32.004  28.102   0.112 -0.0769 -0.1267  0.1254
97929W        W40982  27.440  27.833  28.330  0.1194  0.0556  0.1599
97930W        W40983  15.181  18.858  26.962  0.3369  0.1123  0.0005
97931W        W40984  26.800  33.065  26.853 -0.0856  0.1048 -0.1542
97932W        W40985  24.669  16.971  16.380  0.2619  0.2548 -0.0579
97933W        W40986   2.552  32.762  19.980  0.0499  0.2519  0.1294
97934W        W40987  27.749  21.195  25.937  0.1939 -0.2711  0.2366
97935W        W40988  24.357  30.616   8.778  0.0375 -0.1617  0.1117
97936W        W40989  23.525  25.203   4.590  0.0101  0.2858  0.2422
97937W        W40990  10.218   2.523  27.837 -0.2663 -0.0225  0.0516
97938W        W40991  10.122  27.565  17.194  0.0035 -0.1483  0.0278
97939W        W40992  17.152  28.453   8.537 -0.0764 -0.2200 -0.2829
97940W        W40993  34.255  33.970  22.819 -0.2073 -0.0951 -0.2128
97941W        W40994  17.854  29.947  15.771 -0.1586  0.0767  0.2980
97942W        W40995   5.786  25.859   2.604  0.0431  0.1457 -0.0623
97943W        W40996   3.188  21.091  21.226  0.1708 -0.3202 -0.2133
97944W        W40997  28.927   3.276  20.466 -0.3119  0.1229  0.1231
97945W        W40998  24.892  24.468  18.961  0.1407 -0.4325 -0.1814
97946W        W40999  27.023   2.794  21.374 -0.1875 -0.0200 -0.0664
97947W        W41000  13.167   4.862   5.497 -0.1331  0.1283  0.0750
97948W        W41001  14.416  28.449  18.303  0.0586 -0.0007 -0.1578
97949W        W41002   6.173   6.047   3.131  0.0922 -0.4694  0.2498
97950W        W41003  18.685   8.831  27.179  0.3263 -0.0331  0.0181
97951W        W41004  15.130   5.150  17.681 -0.0200  0.1276  0.0550
97952W        W41005  25.656  27.739   1.510 -0.0451 -0.1527  0.2804
97953W        W41006  28.330  31.021  20.718 -0.4272 -0.2013  0.0110
97954W        W41007  24.363  27.409  26.221  0.4928 -0.1909 -0.0811
97955W        W41008  16.531   0.948  24.747  0.1204 -0.2244 -0.0523
97956W        W41009  33.394   0.640  17.284  0.0533 -0.3767  0.0889
97957W        W41010  27.198  33.905  25.237  0.1614 -0.4341  0.0686
97958W        W41011  30.986  30.475   8.092 -0.0580  0.1809  0.0044
97959W        W41012  19.644  29.167  20.216 -0.0548  0.1425  0.1358
97960W        W41013  21.437  18.646  21.101  0.0309  0.2133  0.1507
97961W        W41014  28.890  19.610  19.629  0.0689 -0.0039  0.1228
97962W        W41015  14.457   2.748  22.490 -0.3928  0.0941 -0.1737
97963W        W41016  16.290   7.629   0.393  0.1640 -0.3001 -0.1843
97964W        W41017  23.292   1.642  18.909 -0.1166  0.0825 -0.1862
97965W        W41018  17.886  23.860  17.296 -0.2267 -0.1887  0.2395
97966W        W41019  13.234  25.932  25.612 -0.0433 -0.1215 -0.0692
97967W        W41020  13.986  26.454  24.411 -0.5713 -0.1536 -0.4200
97968W        W41021   7.696   1.955  22.372  0.0173 -0.4028  0.1683
97969W        W41022  31.261   5.361  23.316  0.0741 -0.0986  0.1144
97970W        W41023  26.652  11.054  22.039 -0.1470  0.0551 -0.3632
97971W        W41024  33.421  10.774   7.176  0.0786 -0.0801 -0.2824
97972W        W41025  18.199   0.487  24.380  0.0402 -0.0331  0.0097
97973W        W41026  29.412  21.777  24.928 -0.2601  0.2836 -0.1301
97974W        W41027  11.986  30.558  18.140 -0.0710  0.3259  0.0451
97975W        W41028  23.243   0.524  20.888  0.1426  0.0904 -0.0603
97976W        W41029  32.595   1.901   5.434  0.0849  0.0042 -0.1607
97977W        W41030  24.858  24.000  15.468  0.1276 -0.1700  0.0568
97978W        W41031   8.661  10.177  14.511 -0.1452  0.2156  0.0814
97979W        W41032  18.188  29.567  22.491  0.0231  0.0752  0.1781
97980W        W41033  32.612   3.140  26.792  0.0433 -0.1456  0.1782
97981W        W41034  13.943  26.676  20.380 -0.2137 -0.1378 -0.2209
97982W        W41035  13.279  18.229  19.468  0.0716  0.1329  0.1075
97983W        W41036  19.145  26.328  25.912  0.1043  0.2851 -0.3333
97984W        W41037  13.674  33.731   9.589  0.0203  0.2775  0.1589
97985W        W41038  32.398   9.350  20.724 -0.0738  0.0508  0.0069
97986W        W41039   4.278  11.977  18.602  0.0159  0.0233  0.1618
97987W        W41040  29.628  10.160  18.365 -0.0853 -0.0882 -0.2057
97988W        W41041  22.514  28.033  27.913 -0.1827 -0.2646 -0.1048
97989W        W41042  34.467   5.438   3.199  0.2849 -0.1190  0.0556
97990W        W41043   0.855  24.235  25.047  0.1538  0.1087  0.1940
97991W        W41044  11.638  28.819  15.239 -0.0690  0.0981  0.2443
97992W        W41045  25.000   2.964   2.853 -0.1498  0.0946  0.0008
97993W        W41046  23.615   0.945  16.105  0.1363 -0.1407  0.0522
97994W        W41047  19.508  22.028  22.737 -0.0851  0.0281 -0.0819
97995W        W41048  25.009  25.848  21.340  0.2025  0.0988  0.2811
97996W        W41049  25.996  21.441   5.264  0.1077  0.0100 -0.2225
97997W        W41050  11.442  29.592  26.829  0.0396 -0.2562  0.2344
97998W        W41051  19.566   1.601  24.587 -0.0744  0.0492  0.2100
97999W        W41052  18.940  12.703  27.588 -0.2518  0.0622  0.0569
98000W        W41053  14.287   0.320   1.492 -0.0397 -0.0586  0.1815
98001W        W41054  23.386   7.763   4.831  0.2061  0.2563 -0.0791
98002W        W41055  24.903  29.933  17.938 -0.0150 -0.0967 -0.0626
98003W        W41056   9.684  30.584  18.602  0.1555  0.2381 -0.1398
98004W        W41057  33.716  34.463  26.306  0.3111 -0.2429 -0.0954
98005W        W41058  21.652  26.525  25.197 -0.2524  0.0604  0.2738
98006W        W41059  10.670   7.674  22.617  0.1120  0.2116 -0.0478
98007W        W41060  12.991  32.174  17.398  0.1203  0.1464 -0.1809
98008W        W41061   2.052   1.888  17.141 -0.0259  0.1110 -0.3175
98009W        W41062  18.361   5.587  19.914  0.0367  0.0135 -0.3541
98010W        W41063  28.206  32.504   6.221 -0.1151 -0.2201  0.3461
98011W        W41064  27.200  18.804  21.384 -0.1905 -0.1445  0.0389
98012W        W41065  18.153  16.989   0.982 -0.0486  0.0594  0.1112
98013W        W41066   9.570  29.601   4.106 -0.0273  0.3147  0.1473
98014W        W41067  17.351  29.212   1.417  0.2127 -0.3241 -0.1142
98015W        W41068   0.813  21.738  21.572 -0.0516 -0.1672 -0.4141
98016W        W41069  18.533  13.092  16.394  0.3309  0.1541 -0.2936
98017W        W41070  28.647  27.560  16.395 -0.2788  0.0595 -0.2194
98018W        W41071  29.357  10.982  21.763 -0.2733  0.1041  0.1581
98019W        W41072  17.817  32.028   3.685 -0.3141  0.0160  0.0583
98020W        W41073  20.773  29.840  23.544 -0.1206  0.2064  0.0963
98021W        W41074  18.427  22.968  25.000 -0.1213  0.1678 -0.2902
98022W        W41075  15.779  34.546  24.681  0.1506  0.2391 -0.1853
98023W        W41076  12.279  33.721   4.331 -0.2158  0.1977  0.1766
98024W        W41077  18.579   2.076  23.279 -0.0497 -0.2985  0.0929
98025W        W41078  12.152   4.940  17.577 -0.0600  0.1294 -0.1472
98026W        W41079  16.913  32.191  18.529  0.0837 -0.4145  0.2033
98027W        W41080  18.018   7.241  26.892 -0.1108  0.0517  0.0365
98028W        W41081  33.227  34.632  15.774 -0.1625 -0.0238 -0.2103
98029W        W41082   7.573   2.202  24.204 -0.3782  0.0144 -0.1352
98030W        W41083  24.611  29.110  19.250  0.0597 -0.1601  0.4425
98031W        W41084  19.973   9.476   1.394 -0.1396 -0.1863  0.2323
98032W        W41085  25.164  10.421  24.267 -0.0557  0.0547 -0.1047
98033W        W41086   9.121  20.309  14.475 -0.1828  0.0709 -0.1002
98034W        W41087   8.596  34.327  19.850  0.0055  0.1414  0.2632
98035W        W41088  24.896  29.420   6.117 -0.1481  0.0904  0.1960
98036W        W41089  12.640   2.112   5.193  0.0065 -0.2416  0.0387
98037W        W41090  22.978  14.510  26.564 -0.3111 -0.0018  0.1461
98038W        W41091  27.937   4.115  16.889 -0.0053 -0.0414  0.0154
98039W        W41092   2.911   2.256   7.070 -0.1812 -0.0772  0.4120
98040W        W41093  23.002  27.396  27.914  0.0998 -0.1219  0.0941
98041W        W41094   2.203  34.201   2.176 -0.0988 -0.0847 -0.0781
98042W        W41095   1.074   0.268  16.619  0.0365 -0.1304 -0.1215
98043W        W41096  25.070   9.284  22.933  0.1248 -0.2875 -0.0525
98044W        W41097   7.435  16.392  17.987  0.2726  0.3109  0.1641
98045W        W41098  12.790  12.659   1.403  0.0735  0.0151 -0.2920
98046W        W41099  34.043   1.513  16.703  0.2318  0.1649  0.2221
98047W        W41100  20.399  31.870  20.012 -0.0839 -0.0181 -0.0800
98048W        W41101  33.971   9.439  22.128  0.1516  0.1922  0.0186
98049W        W41102  17.353  33.343  28.047  0.1134  0.2299 -0.1798
98050W        W41103  17.028  28.445   5.028 -0.2064  0.1019  0.1833
98051W        W41104  10.456  16.829  25.352  0.2348 -0.0300  0.0425
98052W        W41105  26.576  32.083  27.235 -0.0320  0.1204 -0.2642
98053W        W41106   7.256   8.850  28.740 -0.1007 -0.0969  0.0865
98054W        W41107  11.612   6.420  20.299  0.1941  0.3307 -0.2262
98055W        W41108  24.522  13.230  22.612 -0.0112  0.2201  0.1466
98056W        W41109   0.584   1.000  23.505 -0.0560 -0.2278  0.1742
98057W        W41110   9.938   2.114   0.855  0.1798 -0.2495  0.4360
98058W        W41111  17.986  12.193  23.436 -0.3276 -0.5792  0.0415
98059W        W41112  22.287  14.034  14.488 -0.2363 -0.1410 -0.0204
98060W        W41113  16.058   4.505   0.351  0.3283  0.0802  0.5037
98061W        W41114  29.978  31.388   8.467 -0.1494  0.2636 -0.2309
98062W        W41115   8.794  27.173  25.575 -0.1806 -0.0804 -0.0410
98063W        W41116  25.918   9.345  24.285  0.0661 -0.2538 -0.0585
98064W        W41117  19.066  23.030  20.330 -0.1754  0.2180 -0.0800
98065W        W41118  26.830   5.498  20.104 -0.3109 -0.1676 -0.0768
98066W        W41119  29.415   1.263  26.976  0.0315 -0.1872 -0.0705
98067W        W41120  17.376   0.658  17.309  0.3164 -0.1480 -0.2139
98068W        W41121  17.952  14.590  15.166 -0.0033  0.1230 -0.1073
98069W        W41122  22.192  33.416  18.685  0.2390  0.2298  0.0026
98070W        W41123  21.594  34.656  16.624 -0.0619  0.0016 -0.2041
98071W        W41124  26.401  29.906  16.896 -0.2439  0.0731 -0.3270
98072W        W41125  19.904  27.503  20.452 -0.1341 -0.2354 -0.0640
98073W        W41126  25.149  20.112  16.424 -0.1703 -0.2010  0.0438
98074W        W41127  20.636   0.928   3.017  0.1406 -0.0015  0.2472
98075W        W41128  12.470   0.175  23.397  0.1589 -0.1551  0.5772
98076W        W41129  20.447  21.106   2.965  0.0661  0.1958  0.0133
98077W        W41130  18.602   6.766  20.803  0.1896 -0.0361 -0.0804
98078W        W41131  21.381   8.013  23.305 -0.3085 -0.6100 -0.0180
98079W        W41132  26.722   1.679   7.376 -0.1297 -0.3017  0.0811
98080W        W41133  18.417  30.045  14.760  0.2603  0.1518  0.0703
98081W        W41134  22.526   3.685   0.834  0.1983 -0.0407  0.3048
98082W        W41135  23.353   2.856  19.538  0.2177  0.2536 -0.0864
98083W        W41136  20.052  33.150  26.656 -0.3681 -0.1168  0.0217
98084W        W41137  21.480  16.933  15.385  0.4003 -0.1672  0.0193
98085W        W41138  16.806   0.249  27.056  0.0717 -0.3362 -0.0888
98086W        W41139  26.812  24.276  27.504  0.3312 -0.1246  0.0647
98087W        W41140  11.354  21.278   3.350  0.0877  0.3217  0.0292
98088W        W41141   7.419   5.316  23.319  0.1367 -0.1210  0.3241
98089W        W41142  29.246  25.278  25.629  0.1999 -0.1768  0.0584
98090W        W41143  33.878  25.811  24.447 -0.0374  0.3643 -0.1253
98091W        W41144  32.182  19.069   0.870  0.0980 -0.1997 -0.0152
98092W        W41145  21.801  26.730   3.623 -0.2958 -0.2134  0.1827
98093W        W41146  23.729  30.479  15.705 -0.0757  0.0654  0.1251
98094W        W41147  31.157  32.764   2.515 -0.3450 -0.0511 -0.0553
98095W        W41148  13.371   4.966  25.261  0.0306 -0.0961  0.2568
98096W        W41149  17.156  33.011  24.544 -0.0440  0.1074  0.0696
98097W        W41150  29.772  11.869   3.749  0.1644  0.0646  0.0635
98098W        W41151  15.042   2.589  19.355  0.3511 -0.3716  0.1160
98099W        W41152   2.061  22.050  28.719  0.6255  0.1700 -0.5528
98100W        W41153   5.188  31.374  16.456  0.0646  0.0199 -0.2668
98101W        W41154   8.157  17.069  26.687  0.1830 -0.2528 -0.3641
98102W        W41155  21.501  21.895  17.309 -0.0309 -0.0421 -0.0390
98103W        W41156  27.290  11.429  16.529  0.0900  0.5639 -0.0719
98104W        W41157   1.690   0.629  18.640 -0.1354 -0.0834 -0.1068
98105W        W41158  28.053  27.404   0.776 -0.1668 -0.2208  0.3416
98106W        W41159  21.777   2.205  18.726 -0.0649 -0.0477  0.2226
98107W        W41160  16.152   4.767  22.334  0.0573  0.2733 -0.1642
98108W        W41161  20.499   0.922  19.340  0.4453 -0.0687  0.3673
98109W        W41162  14.763  21.885  18.122  0.1080  0.0056  0.0462
98110W        W41163  21.977   6.325  23.093 -0.2470 -0.0663 -0.0342
98111W        W41164  16.735  24.600  24.985 -0.3871  0.0552  0.0912
98112W        W41165  18.997  27.027  19.947  0.0917 -0.2039 -0.0349
98113W        W41166   0.189   2.525  28.430 -0.1445 -0.4205 -0.0742
98114W        W41167  23.808  33.681   9.078 -0.3405  0.3553 -0.2080
98115W        W41168   9.363   4.226  18.858  0.1285 -0.2008 -0.0045
98116W        W41169  19.734  28.293  16.331  0.0671 -0.0232  0.0970
98117W        W41170   0.660  22.652   1.840  0.1956  0.0673 -0.1411
98118W        W41171  10.549  14.580   2.702  0.3756 -0.2048 -0.2502
98119W        W41172  28.957  30.125  28.993  0.0548 -0.0786  0.0685
98120W        W41173  14.793  32.228  26.627  0.1744 -0.2776 -0.1328
98121W        W41174  20.068   6.673  20.580  0.2550  0.1157  0.0701
98122W        W41175  17.654   3.675  17.073  0.2775 -0.0770  0.6290
98123W        W41176  19.901  18.267  25.352 -0.1629 -0.2253  0.1063
98124W        W41177  31.384  32.255  25.951 -0.0250 -0.1904  0.0352
98125W        W41178  15.025  30.187  26.936  0.2300 -0.0670  0.5078
98126W        W41179  23.700  16.162  20.465 -0.1110  0.1887  0.2046
98127W        W41180  25.839  29.975   6.059  0.3518  0.2107  0.0764
98128W        W41181   0.942  13.962  14.720  0.1219  0.3232 -0.0247
98129W        W41182  14.871  21.488  15.577 -0.1724 -0.0660  0.0448
98130W        W41183  18.643   0.629  22.924  0.3043  0.0989  0.0711
98131W        W41184  19.243   2.340   7.543  0.1164  0.0016  0.0128
98132W        W41185  32.991   6.564  21.944 -0.1191  0.3311 -0.1089
98133W        W41186  18.360  10.930  15.541  0.0221 -0.1412 -0.0520
98134W        W41187  31.531   9.498   2.558  0.0554  0.0374 -0.1267
98135W        W41188  18.309  28.599  23.166 -0.1949 -0.0197  0.0859
98136W        W41189  20.066  28.197  19.223 -0.1120  0.1394  0.0570
98137W        W41190  17.224  33.833   6.582 -0.0799 -0.0816  0.0009
98138W        W41191  10.806   6.303   8.607  0.2942  0.0996  0.2554
98139W        W41192   9.626   0.576  24.357 -0.0470 -0.3501 -0.1977
98140W        W41193  19.075   1.736  20.515  0.3782 -0.0140  0.3237
98141W        W41194  15.173  19.023  25.995  0.0385 -0.0701 -0.1124
98142W        W41195  13.085  31.495  26.664  0.0281  0.4208  0.1187
98143W        W41196  16.275  32.619  20.187 -0.2350  0.1940 -0.2178
98144W        W41197  21.712  30.443  19.591 -0.0340  0.0511 -0.2715
98145W        W41198  19.924   4.598   7.484 -0.1213 -0.2272  0.1930
98146W        W41199  20.022  20.265  27.213 -0.1209 -0.2629 -0.0450
98147W        W41200   3.763   9.963  29.007  0.1850 -0.4286 -0.3175
98148W        W41201  20.393  31.801   4.492 -0.1206  0.0625 -0.0057
98149W        W41202   2.766  34.354  21.995  0.0543 -0.0784 -0.4076
98150W        W41203  30.520   6.587  24.190  0.0655  0.0849  0.2745
98151W        W41204  17.111   2.180  15.706 -0.0435  0.1678  0.1542
98152W        W41205  14.673  18.015   0.166  0.1409  0.0712  0.0423
98153W        W41206  26.088  29.604  16.197  0.0690 -0.2583  0.1184
98154W        W41207  24.991   0.170  23.140  0.2362 -0.1947 -0.0632
98155W        W41208  15.955  33.904  24.268 -0.0103 -0.1416  0.3321
98156W        W41209  27.944   0.789  17.519  0.1577  0.2314 -0.0389
98157W        W41210  19.814   7.830   0.023 -0.0787 -0.3066  0.3165
98158W        W41211  20.574  34.014  23.204  0.0312 -0.0349 -0.1546
98159W        W41212  25.980   4.700  23.658 -0.0249 -0.1887  0.0403
98160W        W41213   5.586  30.716   1.920  0.1789  0.1212 -0.1994
98161W        W41214  19.684   5.665  19.901  0.1662  0.1669 -0.3336
98162W        W41215  12.851   8.889  10.237  0.2352  0.1097  0.1159
98163W        W41216  22.865  20.753  18.920 -0.0748  0.0049 -0.1287
98164W        W41217  25.584   2.080   5.244 -0.1277 -0.2197  0.0768
98165W        W41218  21.875  24.590   0.528  0.0461 -0.2294  0.1948
98166W        W41219  20.276  16.198  26.361 -0.2251  0.1830  0.1452
98167W        W41220  19.548   3.888  21.004 -0.1911  0.2751  0.0625
98168W        W41221  24.765  32.866  19.797 -0.3744  0.1337 -0.1341
98169W        W41222  12.086  17.925  15.681 -0.3065  0.0111 -0.0226
98170W        W41223  13.276   0.737   3.129  0.2306 -0.2852 -0.2396
98171W        W41224  15.168  17.290  15.156 -0.0041 -0.2353  0.3455
98172W        W41225  14.949  34.114   0.001 -0.3680  0.3072 -0.3221
98173W        W41226   7.361   1.809   8.681 -0.0407 -0.0048 -0.0647
98174W        W41227  15.573  20.336   1.055  0.0590 -0.0428 -0.1598
98175W        W41228   4.229  29.622  14.480  0.1497  0.1304 -0.1143
98176W        W41229  17.175   4.325   1.161  0.0627  0.1172 -0.2234
98177W        W41230  29.262  27.542  24.755 -0.0273 -0.1240  0.1472
98178W        W41231   3.878   0.673  23.582 -0.0607  0.0370 -0.1279
98179W        W41232  11.267  15.259   0.277  0.1812 -0.1952 -0.4767
98180W        W41233  32.379  14.965  23.959  0.0651  0.0130  0.3585
98181W        W41234  10.922  32.152  15.117 -0.2575 -0.2089  0.3643
98182W        W41235  19.594   8.010   7.106  0.1729 -0.0462 -0.0241
98183W        W41236  20.372   5.520   9.400  0.0185 -0.0639 -0.0880
98184W        W41237   8.251  11.720  28.589  0.0650 -0.0671 -0.1562
98185W        W41238  22.468   2.103  26.630 -0.1432 -0.0056 -0.0480
98186W        W41239  27.963  16.955  22.043  0.0014 -0.0558 -0.1125
98187W        W41240  30.001  16.677  15.811 -0.0625 -0.0638 -0.1546
98188W        W41241  24.563  22.800  18.558  0.0304  0.3197 -0.1853
98189W        W41242  13.345  34.262  16.703 -0.0511  0.0610 -0.2148
98190W        W41243  16.707  11.651  10.482 -0.1174  0.1254  0.0912
98191W        W41244  22.372   7.803   1.622 -0.0007  0.2256  0.1863
98192W        W41245  30.694  12.043  23.446 -0.2209  0.0840 -0.0111
98193W        W41246  25.949  24.810  10.443 -0.3692 -0.2582  0.1373
98194W        W41247  15.680   1.292   2.753 -0.2024 -0.0201 -0.2378
98195W        W41248  26.899  27.505   3.969 -0.0055 -0.2194  0.1176
98196W        W41249  23.447   2.936   4.620  0.0457  0.0167  0.0148
98197W        W41250  22.529  33.520  16.165  0.1320  0.0558 -0.1647
98198W        W41251  27.997   2.443  24.578  0.1543  0.3656 -0.1584
98199W        W41252  10.829  19.435   4.605 -0.1385  0.0409  0.2635
98200W        W41253   7.952  31.526  23.445 -0.1987 -0.0191 -0.4214
98201W        W41254  22.449  26.498   7.027 -0.0114 -0.1144 -0.2917
98202W        W41255  15.023  26.137  28.044  0.2094  0.3399 -0.0295
98203W        W41256   4.595  25.278  14.720 -0.0274  0.0608 -0.0235
98204W        W41257  19.828  17.259  25.656 -0.1225 -0.0915  0.0459
98205W        W41258  26.038  25.691  26.564 -0.0444 -0.5077  0.2896
98206W        W41259  29.289  12.236  14.727  0.1662 -0.5432  0.0878
98207W        W41260   7.649   6.399  10.058  0.2054  0.3600 -0.2064
98208W        W41261  10.414   1.601   4.191  0.0265  0.0185 -0.0789
98209W        W41262  33.513  34.151   1.028  0.2142  0.2200 -0.1427
98210W        W41263  14.666  27.852  23.949  0.2109 -0.3319 -0.1963
98211W        W41264   5.328   9.210  26.374  0.2818 -0.0181  0.0153
98212W        W41265  15.740  11.743  26.903 -0.2432  0.0711  0.0910
98213W        W41266  10.318  13.179   0.361 -0.0306 -0.1196  0.0080
98214W        W41267  21.087  20.928  15.859  0.2110 -0.1949  0.1073
98215W        W41268  21.026   2.599  29.193 -0.1556 -0.2201  0.3050
98216W        W41269  29.871   0.968   8.145  0.0124  0.0316  0.0205
98217W        W41270  16.352  20.379  15.651  0.1027 -0.0975  0.2295
98218W        W41271  30.299   1.227  21.106  0.1690  0.0249  0.0243
98219W        W41272  12.610   3.475   4.135 -0.0912 -0.0305  0.0093
98220W        W41273  24.090  10.705   5.079  0.1448  0.0173 -0.0555
98221W        W41274  17.537  17.182   0.420 -0.2678 -0.3260  0.3213
98222W        W41275  16.938   9.088   4.779  0.0972 -0.1025  0.2433
98223W        W41276   7.855  31.321   8.885 -0.4126 -0.2761  0.1291
98224W        W41277  22.257   0.327   9.649 -0.0570 -0.0820 -0.0092
98225W        W41278  10.464   9.358   0.534  0.1496 -0.0940  0.1839
98226W        W41279   5.939  15.859   3.270  0.3119  0.1904 -0.0095
98227W        W41280  23.336  31.243  14.383 -0.0149  0.4002 -0.3357
98228W        W41281  32.270  31.521  17.792 -0.0385 -0.1496  0.3251
98229W        W41282  33.554  18.413  25.181 -0.0270 -0.0161  0.1353
98230W        W41283  11.544  24.465   8.107 -0.0380  0.0843 -0.2532
98231W        W41284  30.357   0.090  25.493 -0.2956  0.0664 -0.0440
98232W        W41285  23.987  31.684  26.490 -0.0077 -0.0535 -0.0228
98233W        W41286   4.889  27.710  27.342 -0.0342  0.1482  0.0434
98234W        W41287   0.797   2.159  18.732 -0.0046 -0.2745  0.0774
98235W        W41288  20.157  24.526  21.699  0.1112  0.2836  0.1669
98236W        W41289  31.085  32.955  27.035  0.4318 -0.0131 -0.0214
98237W        W41290  19.118  32.669   0.116  0.1778 -0.0555  0.0561
98238W        W41291  34.236  19.173   2.660 -0.2250  0.1347 -0.2332
98239W        W41292  13.585  14.782  20.895  0.0275 -0.0755 -0.0038
98240W        W41293  20.990  27.449   2.251 -0.2227 -0.1479 -0.0307
98241W        W41294  26.401  13.535   6.555  0.3903 -0.1305 -0.0501
98242W        W41295  27.874   4.535   8.861  0.0759 -0.0332  0.3151
98243W        W41296  20.246  31.262   7.559 -0.2269  0.0236 -0.1336
98244W        W41297   7.041  19.992  20.141  0.3606  0.2631  0.0757
98245W        W41298  20.891  29.749  24.287 -0.1412  0.0337 -0.4204
98246W        W41299  18.369  33.339   9.049 -0.0288  0.0491  0.2670
98247W        W41300  28.211  10.513   6.777  0.1522  0.0593 -0.1360
98248W        W41301  30.892   3.411  19.512  0.2039  0.4219 -0.3910
98249W        W41302  33.287  29.293  17.213  0.1016 -0.0716  0.3172
98250W        W41303  17.868  12.634   2.493  0.1247  0.0332 -0.0480
98251W        W41304  34.421  33.515  28.965 -0.0502  0.1222  0.0559
98252W        W41305  17.454   7.492   1.778 -0.0649  0.0764  0.0510
98253W        W41306  10.053  24.843   0.388 -0.1683 -0.0165 -0.1986
98254W        W41307   2.095  28.706  24.366  0.2005 -0.1768  0.1704
98255W        W41308  20.329  30.186  17.960  0.0955 -0.0241 -0.3471
98256W        W41309  15.961  19.077   0.357  0.1164  0.2798  0.0333
98257W        W41310  23.041  34.653   3.940  0.0855  0.0405  0.0267
98258W        W41311  33.139  28.802  21.118 -0.0272  0.0273 -0.1407
98259W        W41312  17.385  17.162  26.304  0.1785 -0.1232  0.0548
98260W        W41313  17.649  23.397   7.237  0.2276 -0.1119  0.0838
98261W        W41314  10.280   3.071  16.575  0.0482  0.2888  0.2588
98262W        W41315  22.162  26.044  19.760  0.0809 -0.3231 -0.1197
98263W        W41316  25.429  10.565  24.760  0.0952 -0.3336  0.0103
98264W        W41317   4.974  31.587  26.344 -0.0012  0.0363 -0.3827
98265W        W41318  24.249   4.914  20.983  0.1394 -0.0060 -0.0271
98266W        W41319  30.854  29.857   1.001 -0.0911 -0.1002  0.2365
98267W        W41320   8.680  27.251  26.480  0.2902  0.1213  0.0333
98268W        W41321  31.252  10.360   1.056  0.1445 -0.0275 -0.0471
98269W        W41322   2.088   9.721   0.476 -0.1855  0.2338  0.3540
98270W        W41323  26.047   2.315  26.313 -0.2035 -0.0444 -0.1057
98271W        W41324  30.507   7.353   1.607 -0.0312  0.0738  0.3413
98272W        W41325   9.530  16.481  15.144  0.0754 -0.0423  0.1144
98273W        W41326   2.448   1.034  15.115  0.1611 -0.0995 -0.1282
98274W        W41327  12.926  24.747  20.003 -0.0447 -0.1541  0.0062
98275W        W41328  32.774  11.344  19.815 -0.1106  0.0381  0.1308
98276W        W41329  27.728  24.971   8.674  0.3020 -0.0242  0.1739
98277W        W41330  12.673  23.452  28.143 -0.1640 -0.0020 -0.0146
98278W        W41331  17.274  11.967   2.990 -0.1729 -0.1235  0.2722
98279W        W41332   9.609  30.985   1.553 -0.0544  0.2096  0.2901
98280W        W41333   4.386  34.429   2.657 -0.2527 -0.0302  0.2239
98281W        W41334  15.583  21.538   4.592 -0.2599 -0.1124  0.0942
98282W        W41335   0.881  31.967   5.411  0.3311 -0.0236  0.1019
98283W        W41336  14.910   6.866   4.262  0.3205  0.0462  0.1467
98284W        W41337  14.731  11.895  20.239 -0.0535 -0.0535  0.0298
98285W        W41338  25.010  16.986   7.596 -0.2934  0.0904  0.2893
98286W        W41339  12.701  30.924   5.061  0.0514 -0.0414  0.1050
98287W        W41340   0.138  33.963  28.245 -0.1357 -0.5831  0.2246
98288W        W41341  20.999  27.783   7.522 -0.3212  0.0386 -0.0116
98289W        W41342  11.546  26.826   7.493 -0.3175  0.0286  0.3969
98290W        W41343  22.007  18.395  23.280  0.1807 -0.1177 -0.1439
98291W        W41344  24.622   0.758  19.019 -0.4014 -0.3589  0.1635
98292W        W41345  24.729   4.002  18.024  0.1749  0.2669  0.0809
98293W        W41346  22.036   0.547  17.354 -0.0548 -0.1945  0.0142
98294W        W41347  32.336  16.573  24.500 -0.0148 -0.0206  0.1935
98295W        W41348  26.159   2.485  19.790  0.1728 -0.2740  0.0055
98296W        W41349  16.566  30.999   2.214 -0.0262  0.0627 -0.3857
98297W        W41350  31.428  31.679   1.870 -0.0749 -0.0570 -0.2581
98298W        W41351  17.251  22.185  14.326 -0.0613  0.3628  0.1039
98299W        W41352  24.690   0.435  22.781  0.1368 -0.0729 -0.4770
98300W        W41353  23.043   8.408   5.455 -0.1187 -0.2078 -0.0306
98301W        W41354  26.766  19.282  16.437 -0.1732 -0.0256 -0.0240
98302W        W41355  23.302   4.414  25.171 -0.3394  0.2797  0.1599
98303W        W41356  22.671  34.435   1.311 -0.2984 -0.1969  0.0849
98304W        W41357  17.780   7.669  28.606 -0.0278  0.0047  0.2076
98305W        W41358  19.934  15.185   6.200  0.1706 -0.1047  0.1032
98306W        W41359  32.169  12.595  15.547  0.0888  0.1979 -0.1433
98307W        W41360  14.218  27.423  24.040 -0.3254 -0.0214  0.1748
98308W        W41361  13.816   6.835  23.724 -0.1402  0.1195  0.1462
98309W        W41362  22.533  33.555  24.668  0.1652  0.1651  0.1192
98310W        W41363  23.074   6.660  20.408  0.2407  0.2315 -0.0357
98311W        W41364  23.319  23.886  27.355 -0.0376  0.3950 -0.0015
98312W        W41365  18.333   3.381   0.630  0.0601 -0.3190 -0.2541
98313W        W41366  13.755   6.637  26.573  0.4629 -0.0179  0.1204
98314W        W41367   4.513   3.652   1.175  0.0078 -0.1632  0.3850
98315W        W41368  16.758   0.769   8.895 -0.0177  0.2322  0.0413
98316W        W41369  18.764  12.464   9.692  0.0622 -0.1649 -0.0474
98317W        W41370  17.288  27.230  27.959  0.0253  0.5009 -0.1634
98318W        W41371  11.058  27.127   6.758  0.1724 -0.0808 -0.1788
98319W        W41372   4.862  21.060  18.879  0.2431 -0.4111 -0.0829
98320W        W41373  32.094   0.502  22.110  0.0940 -0.2512  0.0915
98321W        W41374  17.874   3.928   2.013 -0.1762  0.1011  0.0607
98322W        W41375  24.823   3.559   8.023 -0.3388 -0.0232 -0.0822
98323W        W41376  34.133   0.778   2.882 -0.0021 -0.1112  0.0746
98324W        W41377  29.862  12.745  23.818  0.2074 -0.0052  0.3215
98325W        W41378   1.145  19.646  27.628  0.2266 -0.2285 -0.0969
98326W        W41379   4.976  29.546   6.979  0.1412  0.2899 -0.2743
98327W        W41380   8.904  28.064  28.707 -0.1160  0.4444 -0.1939
98328W        W41381  14.354   7.083   4.329  0.0992  0.2077  0.3225
98329W        W41382  17.873  34.453  10.396 -0.1235 -0.1995  0.1863
98330W        W41383  11.878  21.615  18.924 -0.3411 -0.2401  0.2182
98331W        W41384   9.074  29.837  17.060  0.0493  0.0198  0.0909
98332W        W41385  23.189  19.429  28.814  0.2660  0.0026  0.0384
98333W        W41386  16.970  30.711   3.729 -0.2887 -0.2909 -0.1983
98334W        W41387  18.033   2.338  19.214 -0.0393  0.5033  0.4195
98335W        W41388  25.302   9.517  20.713  0.0406 -0.1530  0.0164
98336W        W41389  13.632   2.342  20.851  0.1819  0.0473 -0.1964
98337W        W41390  16.647  34.518   1.692 -0.2787  0.0099  0.0940
98338W        W41391  24.610  20.037  28.677 -0.0342 -0.2452 -0.0774
98339W        W41392  34.155  32.765   0.144 -0.0424  0.2394 -0.1152
98340W        W41393  29.123  30.866  25.619 -0.0754  0.0361 -0.3768
98341W        W41394  20.340   7.778  23.706  0.2338 -0.0882  0.2655
98342W        W41395  15.103   3.648   7.946  0.0019 -0.0413 -0.0863
98343W        W41396  21.527  29.455   2.384  0.2566 -0.2197 -0.1482
98344W        W41397  15.235   0.094  17.662  0.1758  0.2427 -0.0719
98345W        W41398  19.730   2.642  27.181 -0.0047 -0.0182  0.1359
98346W        W41399   1.958  31.787  20.525 -0.0277  0.0026 -0.0813
98347W        W41400   2.421  22.679  20.981  0.1037 -0.2323 -0.0213
98348W        W41401  12.178  17.006   1.337 -0.3871  0.1874  0.0335
98349W        W41402  33.423   9.249   9.922  0.0629 -0.2209 -0.3430
98350W        W41403  16.460  19.562  22.145  0.0817  0.1942  0.2842
98351W        W41404   2.841  31.588   6.898  0.5747 -0.0641  0.0466
98352W        W41405  26.422  31.608  17.057 -0.0623  0.3793 -0.0088
98353W        W41406  18.235  32.836   4.672 -0.0484 -0.0576  0.2339
98354W        W41407  24.557   4.708  28.836  0.0522  0.0516 -0.1603
98355W        W41408  13.661   2.577   9.607 -0.2180 -0.1720  0.1567
98356W        W41409  29.224  23.380   5.859 -0.0858 -0.3409 -0.2493
98357W        W41410   7.252   5.104   7.814  0.0311  0.1800  0.0126
98358W        W41411   8.913   0.982   0.789  0.1218  0.2686  0.0783
98359W        W41412   2.325  18.599   9.166  0.0161 -0.1009 -0.2600
98360W        W41413  16.670   1.120   6.175  0.1189  0.4424  0.2209
98361W        W41414   2.804  27.356  13.854  0.0291  0.0702  0.2733
98362W        W41415  14.577   7.088  10.438  0.4646  0.3572  0.2454
98363W        W41416  15.973  28.576   9.068  0.0350  0.2157 -0.1053
98364W        W41417  32.443  26.580   5.966 -0.1823  0.0477  0.2235
98365W        W41418  19.755  13.450   7.247  0.1488 -0.0412  0.0946
98366W        W41419  17.894  10.679  22.007  0.0415  0.0877  0.3668
98367W        W41420  16.057   1.878   5.136  0.2763 -0.1460 -0.2100
98368W        W41421   7.052  23.304  14.693 -0.0311  0.1021 -0.0007
98369W        W41422  19.948  30.348  26.360 -0.1093  0.0248  0.1432
98370W        W41423  19.412   3.918  26.347  0.0870  0.3707  0.1851
98371W        W41424  11.154  27.002   1.145  0.0986  0.1710 -0.3174
98372W        W41425  15.724  29.906  26.651 -0.0038 -0.1412 -0.0812
98373W        W41426  21.058   5.394   4.336  0.2441  0.0331  0.2594
98374W        W41427  24.852  17.959   2.408 -0.3981  0.0800 -0.0445
98375W        W41428  11.211  20.939  26.940  0.2375  0.0802 -0.1812
98376W        W41429  21.227  15.153   3.390 -0.0922  0.0383  0.0086
98377W        W41430  19.050   6.604  16.868  0.1820  0.0102  0.1497
98378W        W41431  29.485   5.197  15.046 -0.0258 -0.1012 -0.1413
98379W        W41432   7.213   0.048  21.724 -0.3219 -0.3034 -0.0059
98380W        W41433  27.401  28.674  26.744 -0.1653  0.0908 -0.1565
98381W        W41434  21.535   6.068  13.426  0.2094  0.0640  0.1457
98382W        W41435  24.709  33.041  18.046  0.2177  0.1691  0.0273
98383W        W41436   5.069  30.242  25.247 -0.2079  0.0595 -0.0301
98384W        W41437   6.766  14.327  25.006 -0.0882  0.1257 -0.1820
98385W        W41438  10.209   0.226  19.452 -0.2476 -0.1720  0.2645
98386W        W41439  22.491   3.258  21.784 -0.0820 -0.0719  0.0167
98387W        W41440  15.570   3.610  15.238  0.3899  0.5857 -0.0100
98388W        W41441  31.769  33.376  22.384  0.1356 -0.1861  0.2247
98389W        W41442   2.563  33.109  23.896 -0.0272  0.1631 -0.0091
98390W        W41443  17.006   2.473  17.548  0.0991  0.0322 -0.0376
98391W        W41444   1.927   6.099   0.643 -0.0350  0.0390  0.3474
98392W        W41445   9.025   3.852  17.556  0.1474  0.1401 -0.1292
98393W        W41446  22.345  29.962  14.210  0.0032  0.1376  0.2708
98394W        W41447  26.877   8.893  22.748  0.0323  0.0440  0.2431
98395W        W41448  33.376  20.131  20.196  0.1416 -0.1028  0.3187
98396W        W41449   1.093   0.867  28.640  0.0806 -0.2005  0.1983
98397W        W41450  25.768   9.849  15.203 -0.3396 -0.0036  0.0034
98398W        W41451  25.560   1.413  17.188  0.4054 -0.0486  0.1253
98399W        W41452  27.153   5.952  19.697  0.3162  0.0413  0.1426
98400W        W41453  28.562  15.168  14.538 -0.1070 -0.1503  0.2817
98401W        W41454  27.723  19.567  16.400 -0.2066 -0.3534 -0.1228
98402W        W41455  16.641   7.516  19.588  0.0230 -0.2428 -0.0371
98403W        W41456  27.595   4.663  18.924  0.0787 -0.0218 -0.0102
98404W        W41457  15.230  28.127  15.472  0.2927  0.1334  0.0493
98405W        W41458  26.871   0.047  25.624  0.0603  0.0915  0.2785
98406W        W41459  21.779  13.345  26.271  0.1646  0.1128  0.0386
98407W        W41460  31.699   8.265  17.683 -0.0766  0.0670  0.0078
98408W        W41461  31.459  32.729  13.897 -0.0692 -0.0016 -0.2333
98409W        W41462  29.790   1.488  20.981 -0.0413  0.1337 -0.1676
98410W        W41463  30.567   9.120   6.707 -0.0281  0.2608 -0.1431
98411W        W41464  17.075   4.403  22.179  0.0872  0.2863 -0.2671
98412W        W41465  18.142   1.558  19.122 -0.0129  0.0625  0.1927
98413W        W41466  21.610   5.060  17.854  0.0318  0.0793 -0.1794
98414W        W41467  34.582  10.951  24.954  0.0578  0.1984  0.0067
98415W        W41468  23.292  23.764  21.713  0.0043 -0.0309 -0.0651
98416W        W41469  22.901  28.284  15.682 -0.0682  0.0639  0.0490
98417W        W41470  31.059  31.139  22.890 -0.0394  0.1093 -0.1406
98418W        W41471  12.711  33.302  14.880  0.0130 -0.1392  0.2357
98419W        W41472  16.447   3.175   3.352  0.1564 -0.1337  0.0172
98420W        W41473  20.383   5.758  21.716  0.0939 -0.0753 -0.2538
98421W        W41474  22.349   1.278  17.768  0.0453  0.1112  0.0158
98422W        W41475  20.743   5.850  13.509 -0.1636  0.1596  0.4097
98423W        W41476  21.684   0.014  16.127  0.2089 -0.1320  0.1168
98424W        W41477  14.713   4.202  24.580  0.0385 -0.1510 -0.1171
98425W        W41478  25.109   0.925  15.642  0.3699  0.3175 -0.1189
98426W        W41479   9.669   9.774  17.954 -0.3148  0.1458  0.2852
98427W        W41480  19.670  29.632  23.859 -0.3318 -0.0988  0.0178
98428W        W41481  15.528  33.341  23.108 -0.0657 -0.0637  0.1096
98429W        W41482   7.146   2.019  15.716 -0.0989  0.2027 -0.0144
98430W        W41483   9.344   5.705  18.451  0.0121 -0.0147 -0.1964
98431W        W41484  19.408   4.047  18.005 -0.0286 -0.0475 -0.3522
98432W        W41485   1.506  27.088  20.786 -0.1441  0.1129 -0.0446
98433W        W41486   4.147  11.092  16.130  0.0665 -0.0334 -0.0942
98434W        W41487  28.374   4.940   0.119 -0.2564  0.0822 -0.1331
98435W        W41488  29.848  25.979  24.286 -0.1262 -0.4508  0.0788
98436W        W41489  13.520  10.800  26.957  0.3102  0.0493 -0.2208
98437W        W41490  27.775   6.916  16.390  0.0057  0.1703 -0.0517
98438W        W41491  21.184  21.762  23.093  0.1439  0.4156  0.0306
98439W        W41492  22.268  13.467  13.494  0.0432  0.0016  0.0672
98440W        W41493  22.002  31.285  15.346  0.2614  0.0961 -0.0557
98441W        W41494   1.973  10.028  23.853  0.1653  0.3162  0.2753
98442W        W41495  18.922  22.627   5.428 -0.0838 -0.0595 -0.1333
98443W        W41496  28.820  25.836  19.873 -0.0050 -0.1048  0.0402
98444W        W41497  12.826   6.890  22.589 -0.0915 -0.2340  0.1705
98445W        W41498  17.813  14.288  25.085 -0.1455 -0.0343 -0.0221
98446W        W41499  21.792  25.267  16.209  0.0996  0.0641  0.1386
98447W        W41500   1.327  29.318  23.863  0.1520 -0.1229  0.0659
98448W        W41501  32.745  13.024  20.399 -0.0489  0.0215 -0.0656
98449W        W41502  12.522   4.718  17.271 -0.0291 -0.0277  0.2072
98450W        W41503  16.236   3.620  14.524  0.2144 -0.1993 -0.0443
98451W        W41504  11.193  11.359  21.447  0.2964 -0.0464 -0.1148
98452W        W41505  25.819   6.573  18.019 -0.1537 -0.1497 -0.1490
98453W        W41506  12.694  31.928   1.203  0.0665  0.2261 -0.3340
98454W        W41507  33.207  24.298  17.345 -0.1376 -0.0897 -0.0229
98455W        W41508   0.960  22.452  15.901  0.0488  0.1627 -0.1140
98456W        W41509  15.742   1.444   3.654 -0.2105 -0.0550  0.0438
98457W        W41510  25.827   5.632  20.002 -0.0466  0.1001  0.1307
98458W        W41511   1.936  21.609  19.579 -0.2542 -0.2047  0.1101
98459W        W41512  11.345   4.028  14.500  0.0345  0.0256 -0.2900
98460W        W41513  11.145   8.031  15.666 -0.2103 -0.1049 -0.0951
98461W        W41514  18.289  33.487  24.207 -0.1420  0.0711 -0.2469
98462W        W41515  20.173  24.100  14.415 -0.2441  0.0914  0.0922
98463W        W41516   4.793  26.725   4.788 -0.0846 -0.1057 -0.3181
98464W        W41517  16.971   0.545  18.992  0.0393 -0.0206 -0.0941
98465W        W41518  33.642  33.816  19.226 -0.0861 -0.0755 -0.1461
98466W        W41519  25.035   7.030  19.684 -0.0362  0.2386  0.1714
98467W        W41520  13.616  33.007   2.348  0.1024 -0.3664  0.1130
98468W        W41521  14.405   6.098  21.887 -0.0855  0.0371 -0.1017
98469W        W41522  29.054  11.378   7.667  0.0806  0.1443  0.3969
98470W        W41523  19.729  10.307  28.842 -0.2237 -0.2569 -0.0818
98471W        W41524  29.107  28.415  18.689  0.1472  0.2006  0.3921
98472W        W41525  25.747   5.968  23.944 -0.2073 -0.3787  0.0365
98473W        W41526  23.323  15.672  24.635  0.2098  0.1992  0.1232
98474W        W41527  16.579  12.231  18.788  0.3049  0.0226  0.2598
98475W        W41528  19.756   0.985  16.624  0.0550 -0.3050 -0.1294
98476W        W41529   5.071  25.190   0.287 -0.2406  0.2322  0.2403
98477W        W41530  19.204   0.076  16.781 -0.0661  0.1226  0.0399
98478W        W41531  15.025   7.003  26.776  0.2373  0.1422 -0.1245
98479W        W41532   7.554  33.877  14.457 -0.2566  0.0347 -0.1408
98480W        W41533  23.793  31.269  15.971 -0.2176 -0.1195  0.0868
98481W        W41534  20.887  10.843  19.100 -0.0043 -0.0857  0.1144
98482W        W41535  12.381  25.726  18.122 -0.4144  0.1679  0.0871
98483W        W41536  33.179   4.499  21.807  0.2754  0.2429  0.0571
98484W        W41537  15.701   6.045  16.459 -0.1861 -0.4878  0.0777
98485W        W41538  23.248  34.174  26.867  0.1685  0.3883  0.1239
98486W        W41539   0.448  10.146   4.979  0.0903 -0.3187 -0.4106
98487W        W41540   1.106   7.604  18.155 -0.1371 -0.0343 -0.1804
98488W        W41541  26.059  15.348   3.682 -0.1122  0.0052  0.0001
98489W        W41542  28.163   5.185  24.918  0.0468  0.3668 -0.0292
98490W        W41543  17.970  12.643  14.713  0.0977 -0.4759  0.2974
98491W        W41544  24.264  31.639  23.121 -0.2707 -0.0182  0.0278
98492W        W41545  18.581   7.305   1.019  0.1292  0.1710  0.1282
98493W        W41546  33.204  14.957  16.548  0.0399 -0.1280 -0.1407
98494W        W41547  23.704  27.708  20.327  0.0778 -0.1078  0.3738
98495W        W41548   8.992   1.668  14.802  0.1776 -0.1133  0.2398
98496W        W41549  12.807  18.971   1.463 -0.1566  0.1488 -0.1889
98497W        W41550   1.238  15.377  14.639  0.2451 -0.0402 -0.3900
98498W        W41551  30.738  32.450  25.272  0.1086  0.0804  0.1303
98499W        W41552  22.840  32.321  26.802  0.1201  0.1213  0.1003
98500W        W41553  33.173   4.954  19.517  0.1497  0.0791 -0.2808
98501W        W41554  25.335  17.180  14.172  0.0987  0.1910 -0.0347
98502W        W41555  11.115  21.418  14.291  0.1399 -0.3665  0.0472
98503W        W41556  12.651  32.240  24.681  0.4885 -0.2606  0.1278
98504W        W41557  24.962  28.148  16.435 -0.0337 -0.0740 -0.1335
98505W        W41558   9.730   8.078  25.092 -0.4287 -0.0701  0.1518
98506W        W41559  24.302  24.122   2.999  0.2155  0.0780  0.0226
98507W        W41560  14.392   2.316   6.899 -0.2675  0.1112  0.0525
98508W        W41561  10.219   3.678  15.375  0.2131  0.0313  0.0921
98509W        W41562  16.781   9.910  24.760 -0.2300  0.1845 -0.2153
98510W        W41563  12.698   5.689   8.486 -0.1529  0.1649 -0.0823
98511W        W41564  34.607   1.494  18.487  0.1834 -0.1070 -0.2785
98512W        W41565  22.386  30.904  17.080 -0.0754  0.1124 -0.0788
98513W        W41566  17.459  12.528  22.051  0.0475 -0.1139  0.1536
98514W        W41567  27.640  33.970  28.638 -0.0909 -0.3214 -0.0967
98515W        W41568  14.091  24.424  18.710  0.0495 -0.2302  0.3003
98516W        W41569  20.324  22.326  20.253  0.1148  0.0488  0.0429
98517W        W41570   3.854  19.482   3.433 -0.0087  0.2151 -0.1221
98518W        W41571  21.806  34.313  17.655  0.0750  0.0457  0.0674
98519W        W41572  13.533  32.665  25.025  0.0338  0.1873  0.2249
98520W        W41573  12.717   4.515  26.804  0.1664  0.2184  0.0506
98521W        W41574   0.258  22.815  15.306  0.2894 -0.2223  0.1532
98522W        W41575  29.528  20.268  18.338 -0.0627  0.1027  0.1728
98523W        W41576  22.587   2.836   1.403  0.0622  0.0712 -0.0183
98524W        W41577   0.501  30.334   1.079 -0.1109  0.0648 -0.1134
98525W        W41578  20.420  24.390  25.562 -0.0522  0.2302 -0.0680
98526W        W41579   8.386  27.407  17.935  0.2427 -0.1275 -0.0949
98527W        W41580  23.016  30.251  24.341 -0.2130  0.0311 -0.4037
98528W        W41581  27.708   9.938  19.156 -0.0109 -0.4604 -0.0106
98529W        W41582  21.092  24.137  14.109  0.3721 -0.0104  0.3240
98530W        W41583  32.935  21.645  26.927 -0.0293  0.0984 -0.0112
98531W        W41584  29.672  34.043  19.734  0.0576 -0.2644  0.3116
98532W        W41585  22.419  17.751  28.475  0.0587  0.5317 -0.1308
98533W        W41586   0.780  11.584   3.327 -0.1363  0.0127 -0.3013
98534W        W41587  12.356  28.739  18.198 -0.3578  0.2128  0.2450
98535W        W41588  10.589  31.434  15.223  0.2135 -0.4784  0.5008
98536W        W41589   4.823  10.006  21.444  0.2357  0.0210 -0.0085
98537W        W41590  21.507  27.768  19.997 -0.0707  0.0209 -0.3073
98538W        W41591  13.380  23.450  21.525  0.0136  0.1137 -0.0898
98539W        W41592  27.845  12.188   5.673 -0.0769 -0.1990 -0.0601
98540W        W41593  16.748  10.724  27.381 -0.0126 -0.1487 -0.3769
98541W        W41594  28.180  30.046  19.776  0.0742 -0.0086 -0.0112
98542W        W41595  20.374  21.728  15.696  0.0181 -0.1052 -0.1267
98543W        W41596  25.663   2.700  22.147 -0.1551 -0.2196  0.1746
98544W        W41597  32.750   4.256  16.431 -0.0384  0.2031 -0.1486
98545W        W41598   2.666  19.280   1.576  0.2328 -0.0576  0.1598
98546W        W41599   5.735  14.746  19.171 -0.1119  0.2245  0.0221
98547W        W41600  24.319  21.922  19.595 -0.2571 -0.3328 -0.1939
98548W        W41601  23.737  17.257   4.950  0.1370  0.0217 -0.0372
98549W        W41602  20.118   0.215  15.113  0.2128  0.2046 -0.1769
98550W        W41603  25.892   9.692  23.235  0.0124 -0.1679 -0.0303
98551W        W41604  25.015  33.736  19.578  0.1608 -0.2516  0.1565
98552W        W41605  22.884  30.501  15.210  0.1565  0.2199  0.0762
98553W        W41606  10.053   2.718  21.624 -0.0240 -0.0758 -0.3772
98554W        W41607  23.492  17.376  21.523 -0.4905  0.0447  0.0571
98555W        W41608   8.828  13.572  15.289  0.1055 -0.1557  0.0927
98556W        W41609  18.167  32.341  18.571  0.0355  0.1072  0.0893
98557W        W41610  22.656   5.421  29.194  0.0402  0.1527  0.0280
98558W        W41611  26.469   3.290  23.645  0.1696  0.0349 -0.3196
98559W        W41612  11.135   1.864  23.515  0.1516 -0.3630  0.0317
98560W        W41613  29.212   3.211  26.505  0.1589 -0.1445  0.2087
98561W        W41614  16.702   8.249  26.655 -0.0202  0.2290  0.1903
98562W        W41615   0.331   3.856  17.428  0.4627 -0.3863 -0.0799
98563W        W41616   8.748   3.149  14.730 -0.3432  0.1071  0.0212
98564W        W41617  28.722   7.763  23.770  0.0704 -0.1907  0.2918
98565W        W41618   3.532   1.858  23.087 -0.0881  0.2586 -0.1082
98566W        W41619  31.609  33.714  18.054  0.2544  0.0075 -0.0781
98567W        W41620  15.736  33.488  24.537  0.0734  0.5202  0.0563
98568W        W41621  26.302  16.286  19.300 -0.0997 -0.1430  0.0185
98569W        W41622   8.869   5.532  18.722  0.0957 -0.0436  0.1234
98570W        W41623  31.004   0.392  21.213  0.0631 -0.3906  0.1092
98571W        W41624  11.514  12.622  25.939  0.1264  0.2110  0.1957
98572W        W41625  23.593  11.055  28.609  0.0533 -0.2147  0.3587
98573W        W41626  31.220  23.689  22.513 -0.0625 -0.2872  0.3064
98574W        W41627  22.036  11.251  15.733 -0.1918 -0.2098 -0.0478
98575W        W41628   2.401  30.863  23.080 -0.1378  0.1368 -0.1421
98576W        W41629  18.791   7.453  15.165 -0.0721 -0.1578  0.1210
98577W        W41630  23.003  12.027  24.304 -0.0119  0.0364 -0.0261
98578W        W41631  23.751  27.395  25.429  0.0065  0.1031 -0.3178
98579W        W41632  25.580   0.106  21.390  0.1105  0.0304 -0.1334
98580W        W41633  13.939  10.563   4.696 -0.0063 -0.0847 -0.0250
98581W        W41634  29.144  14.309  23.349 -0.4304 -0.2221  0.0290
98582W        W41635  27.099   5.438  24.199 -0.1003 -0.1622  0.3234
98583W        W41636  14.548   8.033  25.698  0.0197 -0.2078  0.1287
98584W        W41637  14.495  34.322  19.646 -0.1187 -0.2622  0.0251
98585W        W41638  19.109   8.758  15.777  0.0105  0.0467  0.0329
98586W        W41639  23.386   3.441  20.975  0.1758 -0.1173  0.0868
98587W        W41640  28.807   2.578  28.247  0.1427  0.2452  0.0112
98588W        W41641  24.139  33.169  19.101  0.2708  0.0364  0.2429
98589W        W41642  21.242  10.856  25.278  0.0961 -0.0931  0.0615
98590W        W41643   5.794   8.108  26.928  0.4935 -0.3268  0.0740
98591W        W41644  13.030  22.840   0.868 -0.0953 -0.2312  0.3810
98592W        W41645  28.443  16.006  16.002 -0.2484 -0.1911  0.0075
98593W        W41646  22.025  32.262  15.275  0.1236 -0.0128  0.0325
98594W        W41647  20.509  11.723  23.064 -0.0811  0.0150 -0.0947
98595W        W41648  19.694  33.005  20.375  0.0586  0.1033  0.2610
98596W        W41649   8.564  28.608  20.386 -0.1416 -0.0524 -0.0154
98597W        W41650  32.749  21.239  17.247  0.3791 -0.0076  0.0080
98598W        W41651  20.472  24.729  27.418 -0.0037  0.2352 -0.0760
98599W        W41652  19.841   7.009  16.823 -0.3657  0.0324 -0.0478
98600W        W41653  26.083   1.781  18.007 -0.1541  0.0416 -0.3624
98601W        W41654  16.049   9.607  15.503 -0.1054 -0.1832  0.3042
98602W        W41655   1.225   6.715  22.432 -0.0755  0.4243 -0.1657
98603W        W41656  34.537  11.345  15.868 -0.2835  0.4421 -0.2417
98604W        W41657   3.778   5.370  15.943 -0.0095  0.3232 -0.0898
98605W        W41658  20.331  32.631  19.329  0.1647 -0.2228  0.2114
98606W        W41659  13.596  12.757  22.423 -0.2454 -0.3737  0.3351
98607W        W41660  28.066  33.481  15.960  0.3097 -0.2657  0.3577
98608W        W41661   0.437  32.814  16.695 -0.1042  0.1922 -0.2374
98609W        W41662   1.550  21.649  15.336 -0.0579  0.1735  0.0340
98610W        W41663  10.023  10.330  24.571 -0.0273  0.3001  0.1193
98611W        W41664   0.416  32.866  19.263  0.1111 -0.2701 -0.2315
98612W        W41665  18.809   7.858  17.398  0.1312  0.4120 -0.2883
98613W        W41666  26.519  20.889  19.442 -0.0465  0.1325  0.1324
98614W        W41667  22.074   3.400  23.079  0.0913 -0.2011 -0.0149
98615W        W41668   5.619   4.393  23.732 -0.2168  0.4552  0.1646
98616W        W41669  25.357  27.162  20.250 -0.2117 -0.1579  0.1411
98617W        W41670  21.280   2.911  18.094 -0.3232 -0.1613  0.0740
98618W        W41671  26.867   4.842  24.450 -0.2696  0.2362 -0.1353
98619W        W41672  21.122  31.156  26.342  0.0568  0.0137 -0.0940
98620W        W41673  24.487  10.881  22.561  0.1230 -0.2423  0.1098
98621W        W41674  15.922  34.322  25.577  0.0824 -0.0386  0.3077
98622W        W41675  20.494  18.374  13.523 -0.0534 -0.1311 -0.0432
98623W        W41676  29.264  33.322  26.584 -0.0702  0.2148 -0.4867
98624W        W41677  20.798   7.034   5.222 -0.1011 -0.2290  0.4172
98625W        W41678  21.600  10.726  25.596  0.0159  0.3060  0.0712
98626W        W41679   8.631  18.250  16.635 -0.0187 -0.1069  0.1252
98627W        W41680  28.520  25.560  15.323  0.3600 -0.2401  0.0599
98628W        W41681   0.717  13.007  14.754 -0.0430 -0.1143 -0.1321
98629W        W41682  17.178  34.463  16.123 -0.0413  0.0112 -0.2102
98630W        W41683  16.095   2.717  17.945 -0.0025 -0.4119  0.0989
98631W        W41684   7.146  33.738  27.498  0.2153  0.2923 -0.0428
98632W        W41685   8.998  30.294  14.632  0.2869  0.1072 -0.0168
98633W        W41686  12.600  24.221  15.066  0.1137 -0.1209  0.1827
98634W        W41687  11.587  11.371  19.853  0.0971 -0.1340  0.0503
98635W        W41688  25.798   7.307  13.895  0.0666  0.1168  0.0020
98636W        W41689  21.802   6.340  17.053 -0.4209  0.2100  0.1339
98637W        W41690  21.900   7.267  27.157  0.1239  0.1115 -0.1375
98638W        W41691  12.757  10.643  21.262 -0.1561  0.0541 -0.1419
98639W        W41692   6.112   1.894  24.085  0.1682  0.1058 -0.1200
98640W        W41693  17.336   5.864  21.439 -0.0161 -0.3799 -0.3829
98641W        W41694  15.458  30.488  27.865 -0.2528 -0.2833  0.2186
98642W        W41695  21.993   2.298  19.485 -0.2005  0.2711  0.4795
98643W        W41696  18.949  13.861  22.639  0.0571  0.5466  0.3224
98644W        W41697  17.115  30.997  19.235  0.1624  0.1445 -0.5047
98645W        W41698  18.654   2.076  14.945  0.1493  0.0273  0.1048
98646W        W41699  17.642  14.349  15.494 -0.1643  0.1514  0.2677
98647W        W41700  12.952   1.138  24.002  0.1866  0.1419 -0.1808
98648W        W41701  18.230   9.228   1.439  0.0461 -0.0830  0.0869
98649W        W41702  18.929  28.972  17.008 -0.1632  0.0435 -0.0091
98650W        W41703  18.728  12.371  28.865  0.1201  0.0362 -0.0284
98651W        W41704  28.842  11.116  19.261 -0.3240  0.0706 -0.0453
98652W        W41705  11.076  11.994  23.865  0.1801 -0.0331  0.0737
98653W        W41706  24.962   2.974  22.529  0.3444 -0.0813 -0.2785
98654W        W41707  15.822  12.821  20.357 -0.0874  0.3017  0.0738
98655W        W41708  22.703  27.545  20.075  0.2579 -0.0871 -0.1616
98656W        W41709  27.531  18.334  26.452 -0.0261  0.5683  0.0016
98657W        W41710   7.429   6.596  14.680 -0.1465  0.2926 -0.2564
98658W        W41711  12.463  23.264  22.944  0.2283 -0.0703  0.0747
98659W        W41712  17.064   4.851  25.772 -0.0441 -0.0720 -0.0868
98660W        W41713  11.582  14.382  22.240 -0.2928 -0.0325  0.1515
98661W        W41714  14.747   7.571  20.651 -0.1041  0.2238  0.2644
98662W        W41715   8.347  23.418  17.502 -0.2873  0.1355  0.0798
98663W        W41716  14.171  28.702  24.522 -0.0165 -0.0651  0.0071
98664W        W41717  11.297   5.420  15.840  0.0371  0.2595 -0.1118
98665W        W41718  12.230  29.370  13.175  0.0715 -0.0444 -0.0352
98666W        W41719  12.550  25.768  21.762 -0.1173 -0.3885  0.1926
98667W        W41720  20.913   9.354  19.452 -0.2612  0.0117  0.0067
98668W        W41721  25.574  12.943  19.820 -0.0234 -0.0527  0.0391
98669W        W41722  15.593   2.302  16.934 -0.1344  0.0871 -0.0124
98670W        W41723  16.755  24.930  23.122  0.2116 -0.0639 -0.0009
98671W        W41724   2.258  18.189  18.676 -0.2539  0.0479  0.1700
98672W        W41725  12.558  33.190  18.356 -0.0401 -0.0941  0.0354
98673W        W41726   0.852   6.275  19.029 -0.0440 -0.2988 -0.3173
98674W        W41727  26.427   4.960  22.083 -0.2404  0.0128 -0.3584
98675W        W41728  22.300  10.818  23.046  0.1446  0.1133  0.0849
98676W        W41729  25.271  23.338  18.012 -0.1371 -0.0220 -0.2617
98677W        W41730  31.678   4.303  26.580  0.0781 -0.2600 -0.0204
98678W        W41731  32.250   3.318  25.087 -0.1688  0.6017  0.3536
98679W        W41732  25.745  28.203  22.238 -0.1698  0.1514 -0.3844
98680W        W41733  28.111  31.113  19.943  0.2211  0.0730 -0.2616
98681W        W41734  25.400  11.932  16.172 -0.1274 -0.0230 -0.1527
98682W        W41735   9.654   6.899  20.836 -0.2106 -0.1635  0.0222
98683W        W41736  20.747  10.244   1.584 -0.1167  0.1895  0.1177
98684W        W41737   2.142  18.526  17.481 -0.2989 -0.1394 -0.0824
98685W        W41738  17.113   1.088  25.471  0.2763 -0.0409 -0.3558
98686W        W41739  19.992  12.365  22.382  0.0256  0.2300 -0.1467
98687W        W41740  32.477  32.917  24.656  0.3497  0.1384 -0.2665
98688W        W41741  25.756  30.872  17.275 -0.0547 -0.0408  0.0985
98689W        W41742  17.204   1.785  13.981 -0.1865  0.2207  0.1594
98690W        W41743   5.190   8.075  23.841 -0.2005  0.0159 -0.0818
98691W        W41744  28.729  31.738   1.108  0.0007  0.0521 -0.2330
98692W        W41745  26.743   3.900  21.683  0.2632 -0.3919 -0.3008
98693W        W41746  28.288  28.491  20.824 -0.1987  0.1700  0.2420
98694W        W41747  20.042  18.586  15.342  0.0186  0.0659  0.3736
98695W        W41748  29.897  31.294  22.059  0.3169  0.2476  0.3759
98696W        W41749   7.308   1.104  25.090 -0.0797  0.1699 -0.3426
98697W        W41750  26.612   3.153  22.133 -0.0175  0.3092  0.2544
98698W        W41751   5.480   3.957  19.653 -0.2432 -0.0068  0.1653
98699W        W41752  24.594  32.935  15.047  0.1700  0.0039  0.1153
98700W        W41753  20.840  21.789  15.872 -0.1838 -0.0133 -0.1189
98701W        W41754  23.474  10.119  13.816 -0.2178  0.1913 -0.2441
98702W        W41755  23.990   7.157   0.079  0.0598  0.0536 -0.2758
98703W        W41756  15.946  33.634  17.080 -0.1792  0.0962 -0.0775
98704W        W41757  18.025  13.332  15.371  0.4047  0.4663  0.2047
98705W        W41758  14.139   1.261  15.670  0.0468  0.4210  0.3064
98706W        W41759  14.388  29.681  14.178 -0.0955 -0.3665  0.2100
98707W        W41760  25.112  13.579  25.468 -0.1661 -0.0013  0.0876
98708W        W41761   0.228   5.556  19.068  0.0069  0.1250 -0.2196
98709W        W41762   2.630  24.937  17.443 -0.1004 -0.1408  0.4374
98710W        W41763  27.177   1.882  25.734 -0.0996 -0.1914 -0.4307
98711W        W41764  24.347   1.808  20.656  0.2658 -0.0560  0.0185
98712W        W41765  22.974  31.823  19.365 -0.2023  0.1273  0.1565
98713W        W41766   4.897   5.781  16.221  0.0139  0.0726 -0.1018
98714W        W41767  30.967  33.000  17.754  0.0651  0.1765 -0.1153
98715W        W41768  16.604  32.692  24.711 -0.0288 -0.0109  0.0605
98716W        W41769  22.363   4.803  23.276 -0.0359  0.0988 -0.0302
98717W        W41770  12.274  11.545  24.866  0.0518 -0.4785 -0.2614
98718W        W41771  28.474  31.636  21.187  0.0660  0.1110  0.1000
98719W        W41772   5.139  29.334  21.415 -0.0651 -0.3280  0.1807
98720W        W41773  30.514  19.178  13.905 -0.3629 -0.0895  0.1339
98721W        W41774  16.748  23.581  10.353 -0.1829 -0.0984  0.0173
98722W        W41775  10.360  33.601  24.886  0.2357  0.0392  0.0019
98723W        W41776  30.692  22.658  23.000 -0.0674 -0.0283  0.1021
98724W        W41777  16.077   6.664  16.433  0.1469 -0.2494  0.0907
98725W        W41778   8.523  30.109  28.578  0.1525 -0.0302  0.2200
98726W        W41779  18.398   4.949   1.286 -0.1090  0.1905  0.3142
98727W        W41780   1.677   8.129  16.926 -0.3864 -0.1246  0.2776
98728W        W41781  18.510  31.075  15.090  0.2772  0.0402 -0.0143
98729W        W41782  12.000   1.555   8.428 -0.0046 -0.1618  0.0760
98730W        W41783  31.602   0.805  14.780 -0.1311  0.2344 -0.0064
98731W        W41784  31.641   9.341  25.477  0.0459  0.0264 -0.0100
98732W        W41785  18.588   0.582  15.150 -0.4031  0.2131  0.0709
98733W        W41786  23.276  11.581   6.473 -0.0870 -0.1538  0.0056
98734W        W41787  13.112   0.273  15.699  0.0620 -0.2889  0.1692
98735W        W41788  25.133   1.429   4.568  0.0770 -0.0331 -0.0086
98736W        W41789  23.059   4.325  15.783  0.0748 -0.3107  0.2660
98737W        W41790   3.893   4.565  22.275 -0.1634 -0.1214  0.0429
98738W        W41791  10.227   7.704  20.590 -0.0641 -0.1379  0.0534
98739W        W41792   2.962  24.121   5.796 -0.2470 -0.0145  0.0845
98740W        W41793  12.453  31.450  19.723  0.1901 -0.2849  0.1365
98741W        W41794  27.880  19.988  17.262 -0.3012  0.2175 -0.0542
98742W        W41795  16.861  26.377  18.733  0.0352 -0.1205 -0.1747
98743W        W41796  31.089  11.619  21.294  0.0241 -0.2740 -0.1218
98744W        W41797  29.669  16.361  22.625  0.0069 -0.0489 -0.0857
98745W        W41798  13.844   1.701  18.820 -0.3700 -0.0088 -0.1306
98746W        W41799  27.010   2.186  21.296  0.1267 -0.0222 -0.1713
98747W        W41800  27.676  16.343  26.842  0.0792 -0.2515  0.0807
98748W        W41801   5.520  29.315  20.964  0.1070  0.1550  0.2288
98749W        W41802  23.576  12.851  16.047  0.0175 -0.0850  0.0344
98750W        W41803  17.293  34.224  26.707 -0.2182 -0.0213 -0.0214
98751W        W41804   3.843  13.845  10.050  0.0687 -0.1314 -0.0889
98752W        W41805  20.209  34.165   5.734  0.2664 -0.1340  0.0924
98753W        W41806  14.015  31.732  18.639 -0.3776 -0.0698  0.1195
98754W        W41807  16.208  16.879  18.272  0.2090  0.0353  0.0060
98755W        W41808  19.185  26.976   1.460  0.0853 -0.1594 -0.0047
98756W        W41809  33.686  12.377  21.243 -0.0237  0.3873  0.1158
98757W        W41810  21.696  25.485  18.031 -0.0854 -0.2255 -0.3888
98758W        W41811  27.182  23.492  21.611  0.0789  0.0469 -0.2002
98759W        W41812  32.397  11.741  26.863  0.1985 -0.2169 -0.2629
98760W        W41813  26.534  12.124  20.063  0.0756  0.3119 -0.0951
98761W        W41814  24.835   9.764  19.078 -0.1750  0.0025 -0.1478
98762W        W41815  25.747  32.100  19.868  0.1465 -0.1103  0.1047
98763W        W41816  33.189   6.919  21.681  0.0765 -0.1545  0.1674
98764W        W41817   4.358  33.263  13.869  0.0429  0.4724  0.0031
98765W        W41818  24.278   7.065  16.063  0.4978 -0.0511 -0.2216
98766W        W41819  15.032   5.746  18.820  0.3454 -0.0402 -0.0358
98767W        W41820  12.268  25.993  26.028  0.3540 -0.1592 -0.2074
98768W        W41821  24.029   0.727  26.214 -0.0408  0.1650 -0.0040
98769W        W41822  12.807  33.079   2.174 -0.1636 -0.0602  0.4144
98770W        W41823  21.821   5.524  15.327 -0.4132  0.1412  0.3179
98771W        W41824  23.820  15.957  16.019  0.4531  0.0209 -0.1542
98772W        W41825  17.983  31.115  17.523  0.0163 -0.1019 -0.0595
98773W        W41826  24.506   3.484  16.882 -0.1687 -0.1809 -0.2259
98774W        W41827   4.059  28.326  13.763  0.0380 -0.2075 -0.0912
98775W        W41828  30.446   5.509  13.918 -0.1130 -0.0104  0.0934
98776W        W41829  32.365  27.392  18.652  0.1343 -0.0029  0.2064
98777W        W41830  20.862  29.216  19.236 -0.2897  0.1016 -0.1610
98778W        W41831  32.134  17.068  23.760  0.2453  0.1973  0.0653
98779W        W41832  21.660  15.330  22.767 -0.4051 -0.0861 -0.3341
98780W        W41833  21.703   5.856  24.486 -0.0274  0.0690 -0.4579
98781W        W41834  31.922  31.271  15.619 -0.0957  0.3312 -0.3568
98782W        W41835  26.547   7.506  25.092  0.1452  0.2260  0.0079
98783W        W41836  25.527   8.655  13.921  0.2433  0.0750 -0.1676
98784W        W41837  27.072  14.732  25.498 -0.0078  0.2610 -0.0444
98785W        W41838  23.806  32.123   3.833 -0.2717  0.0099 -0.2001
98786W        W41839  15.195   8.608  17.173  0.4269 -0.0709  0.3667
98787W        W41840  23.317  30.602  15.454 -0.0845  0.1053 -0.0213
98788W        W41841  16.144  29.501  15.509  0.1660 -0.0178 -0.0742
98789W        W41842  20.802   7.065  28.048  0.3213 -0.2739  0.1256
98790W        W41843  18.323  27.436   5.546  0.1765  0.1274  0.1187
98791W        W41844  23.543   7.573  18.128 -0.1868  0.1114  0.1467
98792W        W41845  20.382  34.537   1.162 -0.2370  0.2160 -0.1402
98793W        W41846  30.685   7.036  18.376  0.0454  0.2128 -0.4112
98794W        W41847   0.792   9.180  18.258 -0.3036  0.0415  0.2112
98795W        W41848  28.526  29.595   8.389 -0.1623  0.0835  0.0212
98796W        W41849  24.749  23.819  23.047  0.2022  0.3110  0.0999
98797W        W41850  25.748   0.700  14.807  0.1521  0.0134 -0.3532
98798W        W41851  20.368   3.296  16.823  0.0250 -0.0380 -0.0688
98799W        W41852  13.157  25.843  20.327 -0.0984  0.1439 -0.4155
98800W        W41853   2.442  13.059   0.219  0.1707 -0.4320 -0.1106
98801W        W41854  31.863  30.034   8.371  0.0694  0.0746  0.1622
98802W        W41855  21.836  13.120  22.318  0.0361 -0.0537  0.0710
98803W        W41856  11.453  27.942  26.234 -0.1263 -0.0463  0.0667
98804W        W41857  15.411  33.527  28.988  0.0515 -0.2492  0.0360
98805W        W41858  27.428   2.126   5.016 -0.2064  0.0119  0.3045
98806W        W41859  20.901  10.650  20.890 -0.3685  0.2536 -0.1476
98807W        W41860  14.532   4.788   1.542 -0.0055  0.0444  0.1723
98808W        W41861   6.765   3.995  15.920  0.0405  0.1586  0.3542
98809W        W41862  25.935   3.530  18.646 -0.0280 -0.1421  0.1273
98810W        W41863  29.566  32.913  20.181 -0.2685 -0.0534 -0.2569
98811W        W41864  17.229   1.944   2.720 -0.1301  0.0044 -0.2346
98812W        W41865  28.004  21.599  19.559  0.1007 -0.1261  0.0051
98813W        W41866   2.195   1.656   1.410  0.2801  0.2533  0.1636
98814W        W41867  23.026  20.110  18.548  0.1777  0.0717 -0.1612
98815W        W41868  32.137   8.423   1.509 -0.0310 -0.0324  0.0904
98816W        W41869  16.245   1.801  16.608  0.1513 -0.1708 -0.0610
98817W        W41870  22.491   5.038  25.871 -0.2570  0.0037 -0.2172
98818W        W41871  24.009  29.640  13.401  0.2040  0.1907 -0.1346
98819W        W41872  28.040  12.625   2.845 -0.2543  0.4365  0.2722
98820W        W41873  25.565   2.574   4.407 -0.2968  0.0374 -0.0596
98821W        W41874  30.548   2.985  21.718 -0.0068  0.0348 -0.2941
98822W        W41875  25.379  33.617  15.325 -0.0016  0.1599  0.1619
98823W        W41876  26.146   1.947  28.878 -0.2395 -0.0799 -0.1474
98824W        W41877   1.346   0.692  26.400  0.0769 -0.0109 -0.0808
98825W        W41878  22.419   1.835  24.536 -0.1053  0.2347 -0.0057
98826W        W41879  16.014   6.523  22.527  0.3888 -0.1807  0.0403
98827W        W41880   3.066   5.838  15.571  0.0891  0.1678  0.0050
98828W        W41881  24.324  33.134   4.454  0.2906  0.1677  0.1118
98829W        W41882  25.540  31.713  14.529 -0.0301 -0.1188  0.1426
98830W        W41883  20.324  23.633  23.131 -0.1252 -0.1457  0.0641
98831W        W41884  19.905   3.695   6.534 -0.1905 -0.2060  0.0359
98832W        W41885  14.759   8.546  17.493 -0.0962 -0.1337  0.0333
98833W        W41886  18.893   5.899   4.401 -0.0141 -0.0051 -0.0179
98834W        W41887  25.184   0.635  27.560  0.0223 -0.1727  0.3857
98835W        W41888   1.638  25.737  16.221 -0.0790 -0.1057 -0.0297
98836W        W41889  12.786  11.091  19.681 -0.1237 -0.4109  0.0943
98837W        W41890  33.400   1.104  25.916  0.0116  0.0372  0.0926
98838W        W41891  14.684  30.487  15.843 -0.3043 -0.2131  0.3868
98839W        W41892  19.195  14.679  27.135  0.3366 -0.0269 -0.0161
98840W        W41893  27.929  28.592   3.840 -0.2073  0.0882 -0.1203
98841W        W41894  28.734   1.860   3.639  0.2559 -0.1093  0.4859
98842W        W41895  30.578  19.712  13.885 -0.1496 -0.0723 -0.2879
98843W        W41896  23.835   0.023  22.102 -0.0744 -0.2557  0.2739
98844W        W41897  11.681  17.531  19.586 -0.1816  0.3425 -0.0066
98845W        W41898  11.939  25.365  23.264 -0.0870 -0.4149 -0.2115
98846W        W41899  30.786   5.832  15.780 -0.2626 -0.0414 -0.1306
98847W        W41900  12.340  32.640  16.015  0.0917  0.3723 -0.2208
98848W        W41901  26.547   3.465  27.704  0.1298 -0.0022  0.0235
98849W        W41902  25.811   3.567  20.906 -0.0663 -0.0136  0.0505
98850W        W41903  20.543  14.836  24.731 -0.1083  0.1070  0.2451
98851W        W41904   3.471  14.879  23.603  0.1503 -0.1144 -0.0653
98852W        W41905  19.239  33.269   8.460  0.1294 -0.1518  0.1389
98853W        W41906   8.034  28.806   3.292 -0.5061  0.0392  0.1474
98854W        W41907  24.268  28.910  23.438 -0.1442  0.1332  0.1791
98855W        W41908  30.330  25.945  22.996  0.1302 -0.0804 -0.0062
98856W        W41909  16.800   2.583  16.880 -0.0106  0.1953  0.0329
98857W        W41910  19.971  12.825  15.502  0.2507 -0.0832  0.1608
98858W        W41911  22.169   5.910   1.948  0.0790  0.0800  0.2828
98859W        W41912  30.830   1.846  24.892  0.0938  0.0570 -0.0840
98860W        W41913  17.671  29.575   0.490  0.0884  0.2775 -0.1309
98861W        W41914  20.428  13.896  20.059  0.2035  0.0802  0.1063
98862W        W41915  20.827   5.140  16.089  0.2147  0.1648 -0.2336
98863W        W41916  13.235  10.967  19.817 -0.0111  0.4137 -0.2041
98864W        W41917  22.086  32.941  18.990  0.1349 -0.1275 -0.0181
98865W        W41918  33.178   2.506  26.181  0.2709  0.0878  0.1066
98866W        W41919  18.910  32.559  20.049  0.5312 -0.5801  0.1029
98867W        W41920  18.271   8.803  21.149 -0.5511  0.2313 -0.1487
98868W        W41921  25.503  27.076  25.189  0.1120 -0.1094  0.2085
98869W        W41922  31.909  24.536  25.417 -0.2091  0.1104  0.0366
98870W        W41923  22.634  11.417   0.744 -0.2839 -0.0162  0.0522
98871W        W41924  30.261   2.493  17.344  0.0964 -0.0851  0.0774
98872W        W41925   8.942  30.190  16.528  0.0223  0.1138 -0.3399
98873W        W41926   6.043  17.603  21.264  0.1974 -0.0660 -0.2345
98874W        W41927  16.459  25.431  15.444  0.2080  0.2044 -0.1256
98875W        W41928  22.363   3.510  16.467 -0.2257 -0.0442  0.1341
98876W        W41929   6.910   6.965  27.210 -0.3060  0.3169  0.3141
98877W        W41930  20.366  28.634  22.800  0.0579  0.0151  0.0724
98878W        W41931  18.554  11.626  21.574 -0.1394 -0.0817  0.0514
98879W        W41932  32.544  12.004  14.329  0.4334 -0.3051 -0.2120
98880W        W41933  15.178  22.106  18.179  0.0183 -0.0077  0.1655
98881W        W41934  27.349   1.792   1.707 -0.0065  0.2285  0.1050
98882W        W41935  13.522  30.912   1.787 -0.2091 -0.1936 -0.1421
98883W        W41936  22.520   0.674  22.760 -0.2301  0.1042 -0.1840
98884W        W41937  17.170   4.258  14.311  0.1121  0.3349  0.1184
98885W        W41938  32.918  29.904  17.158  0.0961 -0.0370  0.3337
98886W        W41939  18.832   6.700  19.358 -0.0533 -0.1435  0.0439
98887W        W41940  18.966  23.753  18.653  0.2422  0.1752  0.5717
98888W        W41941  17.343  20.732  14.176 -0.0469 -0.0664 -0.2498
98889W        W41942  24.203  33.143   4.944 -0.0884  0.0693 -0.3489
98890W        W41943  25.880  10.478  22.833 -0.0489  0.0654  0.2365
98891W        W41944  20.298  27.406  27.905 -0.0861  0.2907 -0.0701
98892W        W41945  15.844  32.048  20.795 -0.2013 -0.1054 -0.0503
98893W        W41946  23.591   1.557  18.206  0.0796 -0.0136  0.0477
98894W        W41947  15.513  11.820  14.876 -0.2781  0.1468  0.2623
98895W        W41948  19.553   1.821   2.962 -0.1772  0.0676  0.0356
98896W        W41949  32.471   3.918  14.724  0.1782  0.3669  0.2095
98897W        W41950  32.132   4.937  19.301 -0.0486  0.0533  0.1518
98898W        W41951  27.033  34.563  26.237 -0.0296  0.1391 -0.1062
98899W        W41952  22.223   7.405  22.280  0.0318 -0.0298 -0.3637
98900W        W41953   8.458   1.834  21.886 -0.0726 -0.2502 -0.0175
98901W        W41954  12.682  26.905  15.321 -0.2445 -0.0925  0.0361
98902W        W41955  31.456  25.364  20.845  0.0759 -0.0096 -0.1907
98903W        W41956  15.085   5.978  27.305 -0.1667  0.0706 -0.0760
98904W        W41957  28.173  15.691  27.179  0.3021 -0.0436 -0.2296
98905W        W41958   1.384   6.503   3.342 -0.0451 -0.0033  0.1277
98906W        W41959  23.907  12.522  22.376 -0.0451 -0.1616  0.0977
98907W        W41960  30.995   9.839  28.607 -0.0774 -0.1482  0.0179
98908W        W41961  13.473  29.507  21.515  0.2798  0.0070 -0.3114
98909W        W41962  14.981  21.338  23.648 -0.1418  0.0310  0.1266
98910W        W41963  26.789   1.555  18.521 -0.0307  0.1951 -0.0422
98911W        W41964  30.605  12.563  27.683 -0.1059 -0.3297  0.0605
98912W        W41965  31.378   5.353  18.918 -0.0881  0.1766 -0.2291
98913W        W41966  18.170   8.885   1.840  0.3660  0.0822  0.0241
98914W        W41967  26.048  28.327   6.042  0.0838  0.2292  0.0279
98915W        W41968  15.678   4.096  21.545 -0.2918  0.0931  0.0216
98916W        W41969  19.212   2.516  27.188  0.5544 -0.0059  0.1643
98917W        W41970  14.912  21.904  22.691 -0.0539 -0.1042  0.0414
98918W        W41971  14.760   0.718  21.447 -0.1136 -0.2693 -0.0651
98919W        W41972  17.609  18.011  15.481 -0.0380  0.1171  0.2802
98920W        W41973  15.780   1.035   8.043  0.3809  0.0165 -0.2519
98921W        W41974  16.210  29.024  15.551 -0.1471 -0.2119 -0.0732
98922W        W41975  34.191  33.202  14.289 -0.2074 -0.2680 -0.0654
98923W        W41976  28.015   6.126  15.709 -0.0150 -0.3950  0.0832
98924W        W41977  21.894  19.664  19.936 -0.4434  0.0489 -0.3081
98925W        W41978  18.896  25.526  28.076 -0.3026 -0.1385  0.0938
98926W        W41979  20.819   4.515   0.040 -0.1072 -0.2202 -0.2349
98927W        W41980  20.472   1.853  26.575  0.0379 -0.4601  0.0460
98928W        W41981  30.834  12.727  15.107 -0.4384 -0.0922  0.0927
98929W        W41982  15.820  33.606   4.309  0.0363  0.2513 -0.1114
98930W        W41983  14.139  11.990  24.081  0.1868 -0.2077 -0.0294
98931W        W41984  14.775   1.793  26.774  0.1810 -0.2613  0.1183
98932W        W41985   6.046   5.603   0.649 -0.2403 -0.3393  0.0149
98933W        W41986   2.289  12.203  15.030  0.1500  0.2321  0.1932
98934W        W41987  25.602  29.312  17.602  0.0006 -0.0324  0.1178
98935W        W41988  23.471   1.345   9.011 -0.0886  0.2512 -0.0351
98936W        W41989  25.438  30.065   9.714  0.1134  0.1231  0.1886
98937W        W41990  12.518   9.000   2.435 -0.3256  0.0624 -0.0405
98938W        W41991  30.959  28.511   1.588  0.0296  0.0831  0.0875
98939W        W41992  32.791   5.816  15.598  0.0793 -0.0535 -0.2004
98940W        W41993   6.414   7.641  24.720  0.0864 -0.0107 -0.2394
98941W        W41994   5.809   3.742  23.042  0.0056  0.1632  0.1078
98942W        W41995  13.043   3.902   4.617 -0.2162  0.0430 -0.2490
98943W        W41996  26.466  10.141  24.341 -0.0051 -0.1036 -0.0353
98944W        W41997   2.049   4.086  20.980  0.7234 -0.2777 -0.1304
98945W        W41998  27.229  13.682   2.663  0.1357  0.1855 -0.1630
98946W        W41999  22.416  32.715  24.415  0.1348 -0.0992  0.1024
98947W        W42000   7.934  30.677  14.032 -0.3130 -0.1369 -0.0016
98948W        W42001  27.055  25.336  28.983  0.2634 -0.0622 -0.2316
98949W        W42002  20.201   3.957  16.006  0.0834 -0.2174 -0.0471
98950W        W42003  25.100  25.362  28.016  0.0989 -0.3621 -0.1488
98951W        W42004  26.491  27.199  20.446 -0.1537 -0.1570  0.3377
98952W        W42005  23.121   1.747   3.080 -0.0888  0.2108  0.2596
98953W        W42006  24.858  32.289  16.336  0.0617 -0.2121  0.0896
98954W        W42007  14.421   3.520  21.547 -0.0242  0.2722  0.2430
98955W        W42008   0.622   9.652  16.525  0.0687 -0.0989 -0.2514
98956W        W42009  19.407  22.336  23.117  0.0551  0.2163  0.1233
98957W        W42010  32.568  10.028  18.404 -0.2152  0.0611 -0.2775
98958W        W42011   0.869   8.506   3.180 -0.1137  0.3719 -0.2712
98959W        W42012  27.488  14.429  14.378 -0.2108  0.0633  0.0200
98960W        W42013  22.636  24.104   0.626  0.1627  0.0710 -0.1050
98961W        W42014  24.244  26.169  14.114  0.0821 -0.0384 -0.1252
98962W        W42015   7.495   6.648   5.524  0.0084  0.2237 -0.0160
98963W        W42016  15.888  33.943  26.823  0.1908  0.1803  0.2343
98964W        W42017   2.253  13.573   1.983  0.1861 -0.1854  0.0251
98965W        W42018  27.003   4.943  21.098 -0.0265  0.2132 -0.3926
98966W        W42019  27.104   6.724   0.555 -0.0941 -0.1162 -0.0611
98967W        W42020  16.943  19.736  26.636 -0.0440  0.1488 -0.0497
98968W        W42021  11.009   8.678  17.269 -0.0333  0.3008  0.0071
98969W        W42022  23.998  10.072  18.396  0.1162 -0.0776 -0.3417
98970W        W42023  23.770   8.290   3.568  0.5272 -0.1060  0.0846
98971W        W42024  14.941   9.740   2.287  0.2241 -0.1615  0.0040
98972W        W42025  30.493  18.019  20.709  0.2800 -0.5989 -0.2202
98973W        W42026  24.881  33.497  14.700  0.0048 -0.1951 -0.1417
98974W        W42027  24.676   3.323  16.448  0.0943  0.1057 -0.2207
98975W        W42028   3.414   5.822  24.096 -0.0571  0.5220 -0.0949
98976W        W42029   4.743   9.706  27.793 -0.3579  0.2007 -0.3617
98977W        W42030  22.880  27.541  16.402  0.1186 -0.1106 -0.0029
98978W        W42031   2.784  25.832  24.396  0.1690  0.2473  0.2413
98979W        W42032  23.459  18.824  14.298  0.0458 -0.2617 -0.0710
98980W        W42033  25.674  32.832  20.241 -0.2668  0.0011  0.1353
98981W        W42034  25.622  20.976   1.166  0.0416 -0.2580 -0.0553
98982W        W42035  25.143   9.930   5.364  0.0384  0.2921 -0.1591
98983W        W42036   8.969  21.503  14.332  0.0459 -0.1053 -0.0378
98984W        W42037  11.244  30.167  18.630 -0.1630 -0.0336  0.1880
98985W        W42038   1.401  34.426  27.456  0.1960 -0.1837 -0.0484
98986W        W42039  25.683  29.871  15.741  0.1175  0.0391 -0.0164
98987W        W42040  33.291   2.011  24.385  0.0091 -0.1067 -0.1621
98988W        W42041  11.641  13.843   0.935 -0.0754  0.5028  0.2244
98989W        W42042  18.591   2.408  15.603  0.0977  0.2885 -0.3529
98990W        W42043  13.092  32.706  27.392 -0.1100  0.2364 -0.2063
98991W        W42044  18.388   0.005  14.311  0.0630 -0.2236 -0.2198
98992W        W42045  24.399   8.470  26.524  0.2112 -0.0727  0.0072
98993W        W42046   0.761   0.648  22.111 -0.1918  0.3725  0.0954
98994W        W42047  15.823   1.821   4.549  0.1283 -0.0891  0.1601
98995W        W42048  29.858  13.981  14.278  0.0149 -0.3962 -0.0771
98996W        W42049  18.575  34.016   3.402  0.0122 -0.1651  0.0888
98997W        W42050  32.514   5.054   2.785 -0.0348  0.0203  0.3126
98998W        W42051  34.172  22.889  19.503  0.5098  0.0803 -0.1937
98999W        W42052  19.927  26.630  26.837 -0.0780  0.0824 -0.5426
99000W        W42053  21.209  10.238  27.833 -0.2334  0.0730  0.0500
99001W        W42054  29.589   6.005  15.644  0.1606  0.0970  0.2335
99002W        W42055  31.300  25.927  22.081  0.0492  0.0141 -0.2589
99003W        W42056  20.404  33.268   8.300  0.0248  0.0427  0.0323
99004W        W42057  29.647   5.480  27.175  0.1758 -0.0534 -0.1213
99005W        W42058   4.619   0.407  19.316 -0.0061  0.1786  0.1552
99006W        W42059  22.124   4.821  17.862 -0.0681  0.2022 -0.3675
99007W        W42060   1.401  32.324  22.641 -0.0976  0.0521  0.0749
99008W        W42061   5.027  10.126  27.954 -0.2975  0.1422  0.1666
99009W        W42062  14.884   4.442  17.145  0.0640  0.1186 -0.1019
99010W        W42063  23.928  12.267  14.661 -0.0355 -0.1357 -0.1535
99011W        W42064  19.473   4.214  22.747 -0.3048 -0.0913  0.0938
99012W        W42065   9.719  34.434  23.863 -0.2182 -0.0004  0.0330
99013W        W42066  34.358  18.526  18.150 -0.2791 -0.0804 -0.2393
99014W        W42067  28.428  10.522  22.448 -0.1756  0.1572 -0.0725
99015W        W42068  13.056   4.082   3.133 -0.1351 -0.0545 -0.3130
99016W        W42069  20.253   5.517  17.284 -0.0915 -0.2156 -0.0655
99017W        W42070  31.000   9.421  23.430 -0.2367  0.1684  0.2088
99018W        W42071  32.350   7.033  26.850 -0.0346  0.1214 -0.0390
99019W        W42072  16.263   6.489   7.000  0.3234  0.0826  0.0393
99020W        W42073  19.575  25.970   0.782  0.0667 -0.2109 -0.0936
99021W        W42074  26.147  32.101  20.287 -0.0823  0.0269 -0.0984
99022W        W42075  22.912  34.356  24.277 -0.1183 -0.0665 -0.0341
99023W        W42076   5.699  32.882  23.082  0.0856 -0.0022  0.2544
99024W        W42077  26.544   1.769  22.224 -0.0829  0.2500 -0.1032
99025W        W42078  25.574   6.328  20.729  0.1904  0.1108 -0.0074
99026W        W42079  11.610  33.697  14.215  0.1658  0.1365 -0.1446
99027W        W42080   3.860  33.100  16.914  0.4464  0.0991 -0.0253
99028W        W42081  26.121   3.816   0.949  0.1175  0.1485 -0.0825
99029W        W42082   9.290   5.675  28.919  0.0225  0.1900  0.2509
99030W        W42083   6.942  14.893  19.353 -0.0836  0.2049  0.0497
99031W        W42084  17.291   0.625  15.698 -0.3515 -0.0348 -0.2777
99032W        W42085  32.860   6.514  25.148  0.0360  0.0552  0.2079
99033W        W42086  22.694   2.279  19.273  0.1300 -0.0806  0.0488
99034W        W42087  23.444  10.938  24.754 -0.0198  0.1125 -0.0112
99035W        W42088  21.906  24.611  17.501  0.0271 -0.0109  0.2428
99036W        W42089  18.893   1.926   2.673  0.3745 -0.1307 -0.1409
99037W        W42090  33.470  28.630  22.432 -0.0508  0.1428 -0.2880
99038W        W42091  25.698   4.191  10.219  0.2195 -0.0801  0.1886
99039W        W42092  13.765   5.953  20.701  0.4157  0.0014  0.1592
99040W        W42093  15.280   8.104  10.247  0.0478  0.2821  0.0021
99041W        W42094  11.079  22.568  24.454  0.1999 -0.1024 -0.0416
99042W        W42095  12.794  24.145   2.261  0.2678 -0.0209  0.2296
99043W        W42096  19.494   4.071  26.829  0.0703 -0.0471 -0.0183
99044W        W42097  25.598  24.174  18.654  0.0136 -0.1160  0.1440
99045W        W42098  25.161  25.487   9.029 -0.0806  0.0080  0.1293
99046W        W42099  11.472  20.449  18.010  0.0602 -0.1450 -0.2079
99047W        W42100  18.161  28.308  15.318  0.0321 -0.0322  0.1002
99048W        W42101  28.602  17.501  15.613  0.2656  0.2031 -0.0316
99049W        W42102  34.323  16.325  17.772  0.0680  0.2130 -0.0314
99050W        W42103  23.815  14.024  19.041  0.1865 -0.0616 -0.1269
99051W        W42104   1.680  11.803  14.353  0.0987  0.0754  0.1045
99052W        W42105   6.023   4.111  15.280 -0.3496 -0.1387 -0.5071
99053W        W42106  24.432  18.331  18.041 -0.2088  0.3933 -0.0348
99054W        W42107  16.320   6.039  18.354 -0.0052  0.1323 -0.2148
99055W        W42108  27.555   7.989  20.950 -0.1090  0.1190  0.1258
99056W        W42109   7.291   1.091  15.291  0.1575  0.0027  0.1421
99057W        W42110  25.889  16.588  22.851 -0.3678  0.0025  0.3150
99058W        W42111  29.243  26.688   1.508  0.0130 -0.0074 -0.2828
99059W        W42112  28.940  12.723  23.225  0.1086  0.0862  0.0476
99060W        W42113  32.903  21.308  16.744 -0.1151 -0.0230 -0.0460
99061W        W42114  10.792   7.418  14.966  0.0868 -0.0241  0.0067
99062W        W42115  21.668  26.603  17.444  0.2650 -0.3620 -0.0097
99063W        W42116  34.613   8.186  21.563 -0.0164  0.0893 -0.0361
99064W        W42117  27.131   5.275  23.664 -0.0244  0.0374 -0.0421
99065W        W42118  28.847  24.768  17.963  0.1351 -0.3710  0.0118
99066W        W42119   5.272  31.067  22.659 -0.0666  0.2879 -0.1515
99067W        W42120  26.165  33.769  27.175 -0.1438 -0.1228 -0.1103
99068W        W42121  18.148   4.905  24.444 -0.0694  0.3936 -0.1264
99069W        W42122  30.798   3.182  25.054  0.2074  0.3940 -0.0643
99070W        W42123   9.794  26.101  27.410 -0.0317 -0.1057 -0.2793
99071W        W42124  29.069  22.556  22.343  0.1481 -0.1601  0.0087
99072W        W42125  33.212  34.032  20.986  0.0917  0.0946 -0.0340
99073W        W42126  20.532  33.542  28.967 -0.1218  0.1493 -0.2208
99074W        W42127  20.461   0.344  14.292 -0.1288  0.4053 -0.0809
99075W        W42128  20.560   3.468  15.347  0.2161 -0.1582  0.1397
99076W        W42129  24.961  13.190  15.928  0.1922  0.1626  0.1685
99077W        W42130  12.770  32.496  28.381  0.2104 -0.1703  0.0218
99078W        W42131   3.675   9.228  18.202 -0.0834  0.0319 -0.1496
99079W        W42132  14.309   6.315  20.887 -0.3327  0.0463  0.0284
99080W        W42133  19.117  23.626   1.440  0.1040 -0.1518  0.0109
99081W        W42134  14.137   7.370  23.563  0.0897  0.0602  0.2557
99082W        W42135   3.373  20.719  18.138  0.0418  0.0798 -0.0259
99083W        W42136   3.707  27.439  26.560 -0.0978  0.0458  0.3999
99084W        W42137  19.508  25.386  19.535  0.1125 -0.0099 -0.3273
99085W        W42138  23.106  26.219  10.265  0.0354 -0.1691 -0.0439
99086W        W42139  26.634   9.357  14.763  0.3129 -0.0820 -0.1410
99087W        W42140  25.607   4.384  17.057  0.1038  0.1022  0.4664
99088W        W42141  31.756  34.629  13.621 -0.3842  0.3353  0.0625
99089W        W42142   2.071   0.735  23.483 -0.1014 -0.0747 -0.5527
99090W        W42143  15.897   3.179  18.571  0.0426  0.0706  0.3111
99091W        W42144  13.656   7.011  19.400  0.1227 -0.0159 -0.0379
99092W        W42145   0.786   2.282  15.035 -0.0755 -0.1282 -0.2700
99093W        W42146  28.742   1.200  25.174  0.1128  0.3089  0.2245
99094W        W42147  17.124  13.330  15.643  0.7354  0.1713 -0.1712
99095W        W42148  28.603  19.743  25.443 -0.0318 -0.1478 -0.0221
99096W        W42149  22.181   9.752  14.208  0.2430 -0.1124 -0.0752
99097W        W42150  14.115   9.890  20.164 -0.0238 -0.1015  0.1017
99098W        W42151   0.956   6.483  27.856 -0.0101  0.1438  0.0263
99099W        W42152  23.455   9.158  16.560  0.1676  0.0785 -0.0942
99100W        W42153  18.698   7.238  24.375  0.0168 -0.0281  0.1404
99101W        W42154  22.291  10.775   1.575 -0.1578  0.1311 -0.2567
99102W        W42155  23.492   3.540  18.420 -0.3847 -0.3071  0.0855
99103W        W42156  30.757   3.782  27.995 -0.3328  0.2614  0.1196
99104W        W42157  32.132  13.805   5.356 -0.0218 -0.0037  0.1110
99105W        W42158   5.648   8.018  21.924  0.1134  0.2773 -0.0096
99106W        W42159   3.642   4.987  20.270 -0.3269 -0.3062  0.3067
99107W        W42160  27.681  31.697   6.585 -0.0250 -0.0542 -0.0312
99108W        W42161  11.319   5.167  25.812 -0.1929 -0.0762  0.2113
99109W        W42162  25.225  33.611  22.729 -0.1273  0.3134  0.3355
99110W        W42163  22.774  15.536  13.561 -0.0028  0.2367 -0.2980
99111W        W42164   3.974  14.222   4.331 -0.1567  0.1127 -0.2211
99112W        W42165  32.065   4.074   8.587 -0.0190 -0.1668 -0.0880
99113W        W42166  32.206   1.230  16.507 -0.0510 -0.1952 -0.2269
99114W        W42167   5.776   4.512  26.108 -0.0413  0.2346  0.2494
99115W        W42168  16.842   9.454  21.379 -0.3646  0.1076  0.2700
99116W        W42169  10.345  26.190  22.642  0.1763 -0.3730  0.1920
99117W        W42170  19.855  10.240   8.574  0.1918  0.1001  0.4611
99118W        W42171  21.684  14.011  22.165 -0.0257  0.1924  0.0120
99119W        W42172  18.805  28.326  18.228  0.0339 -0.0476 -0.0529
99120W        W42173  11.991   2.311  14.576  0.0491  0.1225 -0.0331
99121W        W42174   7.802  15.183   0.355 -0.0399  0.0996  0.0472
99122W        W42175  28.596  26.541  13.889  0.2187  0.0747  0.1374
99123W        W42176  17.141  14.341   2.881  0.1697  0.0817  0.0505
99124W        W42177  26.370  17.158  25.079 -0.0529  0.1517  0.0091
99125W        W42178  23.118   9.496  23.716  0.2835  0.3371 -0.3244
99126W        W42179   0.906   2.206  15.504 -0.1451  0.1602  0.0296
99127W        W42180  16.985  13.938   0.999 -0.1300 -0.4517 -0.1077
99128W        W42181  28.104   1.036  21.390 -0.0374 -0.3933 -0.1190
99129W        W42182  21.201  12.060  25.823  0.1452  0.1148 -0.7375
99130W        W42183  27.195   4.535  28.781  0.2218  0.1534 -0.0679
99131W        W42184  25.949   8.179  18.584  0.0111  0.0034  0.2357
99132W        W42185  15.605  23.115  25.498  0.0919 -0.2459 -0.0044
99133W        W42186  22.617   8.169   2.317 -0.0192 -0.1301  0.0671
99134W        W42187  26.165  33.116  18.195 -0.2723 -0.0128 -0.0842
99135W        W42188  14.986  22.276  22.957 -0.0565 -0.4487 -0.0822
99136W        W42189  16.672   2.882  17.386 -0.0507 -0.0539  0.2854
99137W        W42190  30.698   2.091   5.972 -0.3562  0.0076  0.2102
99138W        W42191  11.360   5.859  18.567 -0.0209  0.2817  0.0299
99139W        W42192  18.621   4.343  25.666  0.0278 -0.0400 -0.1790
99140W        W42193  33.393  31.294  27.228 -0.0954 -0.0108  0.2305
99141W        W42194  26.606   8.605  19.841  0.0328  0.0807  0.0379
99142W        W42195  29.325  31.819  25.934  0.1816  0.1744 -0.2357
99143W        W42196  16.890  27.437  22.709  0.3655  0.0474  0.0230
99144W        W42197  25.940   1.813  25.734  0.0805  0.3777  0.2253
99145W        W42198  29.470   8.051   5.346 -0.2457  0.0264  0.0993
99146W        W42199  25.616  18.720  18.705  0.1510 -0.1789 -0.3776
99147W        W42200   5.113  24.078  13.977 -0.1099 -0.2258  0.1528
99148W        W42201   2.558   9.867  29.150  0.1022 -0.0771 -0.0345
99149W        W42202  29.244  14.829  18.924 -0.1178 -0.0730 -0.2621
99150W        W42203  30.182  32.890  15.352 -0.2052 -0.2374  0.1297
99151W        W42204  13.320  19.928  17.988 -0.1987 -0.0230 -0.1169
99152W        W42205  23.831  19.397  19.037 -0.1846 -0.0854 -0.0696
99153W        W42206   2.413   9.764   2.874  0.0291  0.0202 -0.0334
99154W        W42207  24.480  19.867  18.846 -0.0442 -0.0436  0.2954
99155W        W42208  24.454   2.115  24.092 -0.0600 -0.2623  0.0207
99156W        W42209  24.513  33.343  25.526  0.1193  0.1305  0.1548
99157W        W42210  21.819  29.497  15.807  0.0706 -0.0672 -0.0952
99158W        W42211   3.800  26.759  28.803 -0.1139 -0.2780  0.0859
99159W        W42212  22.040  33.643  25.282  0.4605  0.1335 -0.3289
99160W        W42213  25.412   2.511  18.640 -0.0635  0.1230  0.0241
99161W        W42214  18.699  29.388  23.688 -0.0104  0.1656  0.1668
99162W        W42215  30.970   1.908  20.896  0.2760 -0.2566  0.0759
99163W        W42216  30.278  11.027  18.672  0.1081  0.1716 -0.0639
99164W        W42217  22.911  13.358  20.698  0.1478 -0.3105  0.3130
99165W        W42218  34.397  31.390  13.213 -0.0205  0.1876 -0.1164
99166W        W42219  21.100  11.424  18.458 -0.0220 -0.1049  0.1388
99167W        W42220   7.272  13.676  23.688 -0.2277  0.0454 -0.1688
99168W        W42221  28.407  17.106   0.914 -0.0473  0.1023 -0.2275
99169W        W42222  27.941   9.264  20.142 -0.2070  0.1024 -0.3710
99170W        W42223  27.836   2.710  14.339 -0.2364  0.0163  0.1110
99171W        W42224  28.389  30.846  23.647  0.1619  0.0009 -0.1575
99172W        W42225  17.565  32.703  17.534  0.1727  0.0717 -0.3792
99173W        W42226  30.303   5.430  19.617  0.1584 -0.1760 -0.0242
99174W        W42227  15.505   7.810  18.914  0.2098 -0.0144  0.0803
99175W        W42228  28.452  11.911   1.539  0.1686  0.0669  0.0064
99176W        W42229  29.384  17.186  28.575 -0.2717 -0.1154 -0.0673
99177W        W42230  30.703   4.993   3.230  0.1499  0.0626 -0.0341
99178W        W42231   3.011  21.894  24.510 -0.1463 -0.0141  0.2072
99179W        W42232  21.500  17.144  26.459  0.3357  0.1066 -0.1617
99180W        W42233  22.016  12.706  13.845 -0.2518 -0.0260  0.0762
99181W        W42234  19.383   5.285  21.317 -0.1599 -0.0951  0.1895
99182W        W42235  14.214  28.909   0.194  0.1562 -0.2616 -0.0262
99183W        W42236  26.481   0.147  18.153  0.0184  0.1805 -0.2060
99184W        W42237  20.026  10.217  15.159  0.0728  0.0038  0.4184
99185W        W42238  20.243  33.530  23.720  0.1026 -0.1212 -0.1658
99186W        W42239  33.741   0.465   3.417  0.0439 -0.2642 -0.0666
99187W        W42240  16.729  32.646   8.907 -0.0690 -0.3246 -0.0063
99188W        W42241  29.713   1.229  14.999 -0.3224 -0.3054 -0.4984
99189W        W42242  27.664  24.191  23.366 -0.0304  0.1207 -0.1016
99190W        W42243  19.588  33.861  20.182 -0.0147  0.3471 -0.4756
99191W        W42244  24.973  19.716  17.735 -0.1501  0.4361 -0.0210
99192W        W42245  19.432  30.402   4.691 -0.0843 -0.1979 -0.0672
99193W        W42246  25.956   5.214  17.297  0.1056 -0.0455  0.0158
99194W        W42247  25.591  29.436  10.456 -0.1156  0.2120 -0.2161
99195W        W42248  27.757  32.868  20.254 -0.0643 -0.0250  0.4118
99196W        W42249  22.643   0.255   1.165  0.2171  0.1741  0.3147
99197W        W42250  14.787  31.741  14.115 -0.0252 -0.0788  0.1746
99198W        W42251  28.452   0.749   0.966 -0.4245  0.0039  0.1380
99199W        W42252  26.443  32.757  17.354  0.0785  0.2800  0.0678
99200W        W42253  26.048   3.064  16.326 -0.0154  0.2569  0.0762
99201W        W42254   9.592  28.878  25.876  0.1466  0.0548 -0.1354
99202W        W42255  25.063  21.714  19.239 -0.0234  0.1785  0.3579
99203W        W42256  24.178   9.923  15.432 -0.3120 -0.1124 -0.0384
99204W        W42257  22.658   5.334  18.134 -0.1306  0.1642 -0.0808
99205W        W42258  33.575  26.989  20.758  0.3437  0.2528  0.0987
99206W        W42259  27.617   3.701  26.236  0.1495 -0.1179 -0.1780
99207W        W42260  15.045  30.441  19.656  0.1241 -0.0946 -0.0897
99208W        W42261  23.539  20.725  16.949 -0.0617  0.0213 -0.2782
99209W        W42262  18.954   3.209   0.473 -0.1865  0.1816 -0.3434
99210W        W42263  31.269  22.596  15.563  0.1711 -0.0656  0.2442
99211W        W42264  28.911  10.864   7.686 -0.0202 -0.1387  0.0917
99212W        W42265  10.119  28.442   6.999 -0.1027 -0.0693 -0.3528
99213W        W42266  21.820  26.904  17.036 -0.0942  0.1911  0.0134
99214W        W42267  31.583   6.502  27.648  0.1857 -0.0013 -0.2504
99215W        W42268  16.443  33.221  21.038 -0.3312 -0.0281  0.5330
99216W        W42269   7.979   3.654  15.069  0.2955  0.0033  0.3118
99217W        W42270   5.255   3.606  15.050  0.0780  0.0800  0.1097
99218W        W42271  16.832  13.192  27.148 -0.0644 -0.2506  0.3742
99219W        W42272  23.453  30.038  20.448  0.1871  0.0034 -0.3373
99220W        W42273  13.257  32.167   2.379 -0.1345 -0.0986  0.0535
99221W        W42274  27.162  27.015  27.501  0.2896 -0.0286  0.0636
99222W        W42275  12.057  34.019  18.081 -0.0326 -0.0272 -0.0797
99223W        W42276  22.141   1.705  18.084 -0.1915  0.1644  0.0824
99224W        W42277  30.363  34.230  26.437  0.0595 -0.1873  0.3224
99225W        W42278  13.399  32.488  14.815  0.1141  0.1232  0.0149
99226W        W42279   0.986  31.200  25.537  0.1970  0.1126  0.2125
99227W        W42280  10.879   2.053  16.568 -0.0498  0.1607 -0.0575
99228W        W42281  17.735   2.337  21.457  0.2484 -0.3387 -0.0161
99229W        W42282  14.676  32.598   2.054 -0.0502  0.0452  0.3745
99230W        W42283   1.233  15.373  23.637  0.0925 -0.1895  0.1148
99231W        W42284  19.915  32.818   4.264  0.3863  0.1372 -0.1718
99232W        W42285  12.227  15.625  23.283  0.1035 -0.0352  0.0048
99233W        W42286  18.444  28.934  23.448 -0.0436 -0.0496 -0.1126
99234W        W42287   6.761  10.315   4.281 -0.2366  0.1649  0.0277
99235W        W42288  15.513   2.460   0.577 -0.0476  0.1309 -0.3235
99236W        W42289  22.194  25.259   8.639  0.0312  0.1291 -0.2451
99237W        W42290  20.341   1.643   6.448  0.3840 -0.1637  0.0374
99238W        W42291   9.905  11.172  20.558 -0.0430  0.0381 -0.1028
99239W        W42292  14.738   5.370  16.654 -0.2224 -0.1400 -0.2461
99240W        W42293  25.154   6.353  22.817  0.0909  0.0224  0.0479
99241W        W42294  10.744  27.217  28.267 -0.1427 -0.2910 -0.2408
99242W        W42295  29.660  29.247  24.688 -0.0680 -0.1506 -0.0765
99243W        W42296  19.468   2.411   4.368 -0.0066 -0.0419  0.2639
99244W        W42297  25.953  19.619  27.495 -0.0461 -0.0671 -0.3047
99245W        W42298   3.463  29.866   9.119 -0.1411 -0.3892 -0.4488
99246W        W42299   2.254   2.568  23.320 -0.1781 -0.2289  0.2386
99247W        W42300  25.022  24.389  28.198 -0.1664  0.0127  0.0831
99248W        W42301  18.945  27.356   7.126 -0.1813 -0.1384 -0.1266
99249W        W42302   2.386  33.622  25.593 -0.3596 -0.0999  0.2391
99250W        W42303  33.852   5.117   7.987 -0.0135 -0.2952 -0.2256
99251W        W42304  23.786   2.848  14.297 -0.1905 -0.1055  0.1771
99252W        W42305  18.277  31.280  27.360 -0.0273  0.1291  0.0072
99253W        W42306   1.212  32.598  26.789 -0.0766  0.2099  0.3874
99254W        W42307  28.903  24.347  25.627  0.2916  0.2892 -0.0732
99255W        W42308  33.194  28.759   3.935  0.1224  0.0292 -0.1727
99256W        W42309  14.806   6.565  18.763  0.1567 -0.2866 -0.0437
99257W        W42310  17.269  21.293  27.413  0.2041 -0.1401 -0.0653
99258W        W42311  33.451  32.641  22.012  0.3351 -0.3380 -0.1028
99259W        W42312  34.565  33.195  18.211  0.1271  0.3071  0.0652
99260W        W42313  18.284  21.583  27.878 -0.0938  0.0708 -0.1948
99261W        W42314   2.462  32.515  15.836  0.2848 -0.2466  0.0136
99262W        W42315  13.055  26.374   6.732 -0.3995 -0.0764 -0.1529
99263W        W42316  18.003   5.679  10.482  0.0118  0.1600  0.1695
99264W        W42317  13.212  26.006   0.779  0.0257 -0.2743 -0.5161
99265W        W42318   4.300  10.815  19.207  0.2916 -0.1685 -0.2090
99266W        W42319   2.295   8.577  16.299 -0.3998  0.0973 -0.2760
99267W        W42320  31.459  13.540   6.865  0.0926  0.0288  0.1190
99268W        W42321  16.257   3.579  20.823 -0.1933  0.0980  0.2165
99269W        W42322  16.403  27.404  15.954  0.2359 -0.1462 -0.3875
99270W        W42323  24.922  28.576  27.002  0.0561 -0.1325  0.2888
99271W        W42324  16.055  34.662  17.331 -0.0961  0.0760 -0.2624
99272W        W42325  23.051  14.799  21.483  0.3286  0.1286 -0.1870
99273W        W42326  12.183  24.865  25.168 -0.2232  0.0697  0.0424
99274W        W42327  30.657   1.925  16.848  0.1636  0.0071 -0.3986
99275W        W42328  23.904  34.042  20.330 -0.0686  0.0601  0.1538
99276W        W42329  22.862  10.503  16.972 -0.2103  0.4129 -0.3308
99277W        W42330  20.713  11.594  26.399 -0.1184  0.0243 -0.0130
99278W        W42331  13.126  33.974  27.438 -0.0996  0.2198  0.2445
99279W        W42332   2.859   1.210  15.880  0.0272 -0.1301 -0.3616
99280W        W42333  12.719   5.906  28.852 -0.3858  0.2598 -0.0597
99281W        W42334  32.174  25.868  27.040  0.0130  0.4297 -0.1484
99282W        W42335  16.016  16.935  15.461  0.1428 -0.1947 -0.0457
99283W        W42336  28.270   1.310   3.177  0.3928 -0.0357  0.1636
99284W        W42337  31.896   5.789   6.079  0.0767 -0.0717 -0.0042
99285W        W42338  30.255   6.585  25.241  0.0392  0.0421 -0.1509
99286W        W42339   3.957   8.699   0.871 -0.2769 -0.0405 -0.1100
99287W        W42340  10.436  32.511   3.091 -0.2739 -0.1177  0.0688
99288W        W42341  30.731  11.913  15.470 -0.1370 -0.0690 -0.0402
99289W        W42342  23.444  17.782  20.663 -0.0977  0.0513 -0.0353
99290W        W42343  32.309  28.693  15.637  0.0964  0.1485  0.1481
99291W        W42344  33.654  17.799  14.151  0.0285 -0.1060 -0.0464
99292W        W42345  17.655  32.693  16.546 -0.2967  0.0159  0.3526
99293W        W42346  31.420   0.193  20.150 -0.3930 -0.0455  0.0272
99294W        W42347  23.926  13.480  15.530  0.0663 -0.0848 -0.0475
99295W        W42348  10.705   2.008   1.881 -0.1148  0.0782 -0.3798
99296W        W42349  19.371  11.417  15.745 -0.1596  0.3514 -0.0726
99297W        W42350  11.400   9.522  22.027 -0.0139 -0.1297  0.2338
99298W        W42351  26.855  33.491  25.980 -0.3642 -0.3779 -0.0354
99299W        W42352  11.582   6.766  21.117 -0.0987  0.1108 -0.1276
99300W        W42353  22.944   0.422  23.155  0.2225  0.1215 -0.1928
99301W        W42354  22.132  13.435  26.835  0.0276 -0.0312 -0.0816
99302W        W42355  21.360   1.479   1.319  0.1545  0.1325  0.2688
99303W        W42356  24.683  31.427  14.488  0.3286 -0.0915 -0.2695
99304W        W42357  32.458  20.827  22.606  0.4577 -0.0782 -0.0672
99305W        W42358  14.079  26.504   5.329 -0.0142 -0.1610 -0.1271
99306W        W42359  10.957  10.116   9.667 -0.2037  0.0675 -0.0387
99307W        W42360  18.846  26.847   3.774 -0.1442  0.0399  0.0772
99308W        W42361   1.884  24.240  20.504 -0.0341 -0.1799 -0.0504
99309W        W42362  30.023  28.483  21.553  0.1965 -0.4977 -0.0355
99310W        W42363  25.023  30.934  14.473 -0.3132 -0.1099 -0.1486
99311W        W42364  25.471   0.550  14.338 -0.0524 -0.2170 -0.0986
99312W        W42365  21.223  13.535  16.398 -0.2934 -0.0580 -0.1533
99313W        W42366  14.654  30.169  24.493  0.3544 -0.0982 -0.1591
99314W        W42367  27.219  27.674   0.779 -0.4678 -0.0075 -0.3605
99315W        W42368   9.605  33.968  25.506 -0.3470  0.0225  0.1419
99316W        W42369  14.311   0.698  26.889  0.1586 -0.0129 -0.0347
99317W        W42370  14.099  30.873   6.182 -0.0017 -0.2519  0.3351
99318W        W42371  24.098   1.608  24.171 -0.0435  0.0534 -0.2403
99319W        W42372  32.981   9.455  20.079 -0.1149  0.2425 -0.0209
99320W        W42373  30.437   3.671  15.843 -0.2228 -0.1258  0.1611
99321W        W42374  28.700  32.355   2.149 -0.3219 -0.0352 -0.2193
99322W        W42375   1.529   0.892  15.076  0.0524 -0.0045 -0.0401
99323W        W42376   5.624  16.671  15.886  0.1476 -0.2467  0.0419
99324W        W42377  12.985  26.572  20.075 -0.1920  0.0808 -0.4310
99325W        W42378  26.961  27.976  14.447 -0.1136  0.0132  0.1691
99326W        W42379  25.607  19.268   2.470  0.1562  0.0120  0.0016
99327W        W42380  19.488   7.776  19.534  0.0596  0.4332 -0.1342
99328W        W42381  27.355   5.018  15.250 -0.2113 -0.1368  0.0924
99329W        W42382  23.995  31.597   2.250  0.2759 -0.0675 -0.0680
99330W        W42383  32.617  30.434  13.020  0.1087  0.4159 -0.2103
99331W        W42384  31.892  29.262   8.791  0.0551  0.2081 -0.1856
99332W        W42385   3.269  29.661  18.860 -0.1196  0.1256 -0.0143
99333W        W42386  20.321   8.029   9.739  0.0199  0.1067  0.2209
99334W        W42387  21.581  25.755   3.805  0.1169 -0.1477 -0.1392
99335W        W42388  30.265  30.110   5.107  0.3260 -0.1198  0.2094
99336W        W42389   3.697  30.231   4.289  0.0639  0.3987 -0.1536
99337W        W42390  18.229   8.593  25.820 -0.0128  0.0961 -0.3379
99338W        W42391   8.341   0.502  24.848  0.3215  0.1002  0.0454
99339W        W42392  23.279  14.414  28.558 -0.2363  0.0280 -0.1872
99340W        W42393  18.299   2.274  20.167 -0.2068  0.0303 -0.1089
99341W        W42394  31.648  21.917  17.042 -0.1590  0.0312 -0.1757
99342W        W42395  23.110  13.356  17.701  0.0765  0.0597  0.0847
99343W        W42396  23.211   6.031  17.049  0.2017  0.1719 -0.0920
99344W        W42397  25.197   9.488  25.185  0.0863 -0.1406  0.2048
99345W        W42398   1.400  34.612   0.004  0.2113 -0.1017 -0.0248
99346W        W42399  26.267  10.567   3.941  0.1584 -0.1679  0.0295
99347W        W42400  28.736   9.092  28.596  0.1456 -0.1989 -0.1121
99348W        W42401  18.873  14.678  24.835 -0.4976 -0.2348  0.1092
99349W        W42402   9.253  22.862   0.853  0.0435 -0.3959 -0.1750
99350W        W42403  10.935  12.793  24.633  0.1872 -0.1702  0.0464
99351W        W42404  25.745   1.659  14.549 -0.0978 -0.2341 -0.0617
99352W        W42405  32.414   4.167   1.596 -0.6926 -0.0315  0.3030
99353W        W42406  18.622  28.655   4.181  0.1258 -0.3999 -0.0478
99354W        W42407   6.840  31.165  25.603  0.3423 -0.0442 -0.1560
99355W        W42408  18.612  23.622  21.147  0.2192 -0.1023  0.1097
99356W        W42409  23.084  27.417   3.886  0.0650  0.0359  0.0029
99357W        W42410   0.868  15.847  18.930 -0.2350  0.2531 -0.0192
99358W        W42411  22.303  15.924  15.075 -0.0603  0.0931 -0.3318
99359W        W42412  29.030  10.740  27.955 -0.0464  0.1542  0.4479
99360W        W42413  28.615  10.038  22.316  0.0636  0.2828  0.1533
99361W        W42414  25.478  11.449   6.445  0.0182 -0.4023 -0.3416
99362W        W42415   0.157   6.365  16.733 -0.2413  0.1999 -0.1604
99363W        W42416  21.687   9.965   3.958  0.4401 -0.1258 -0.2113
99364W        W42417  32.788  32.383  16.507  0.3604 -0.1505 -0.0453
99365W        W42418  10.806   3.682  21.231 -0.1759  0.6079  0.1805
99366W        W42419   7.614   7.669  28.673 -0.2548  0.3540  0.0105
99367W        W42420  22.129   2.775  28.587 -0.0218 -0.0448 -0.0735
99368W        W42421  23.302  30.073  10.129  0.3503  0.0703  0.1007
99369W        W42422  24.051  12.095  17.965 -0.1269  0.2311 -0.2109
99370W        W42423  19.127  13.204   3.834  0.1801  0.0493 -0.0773
99371W        W42424  28.366   9.340  17.218  0.1266 -0.0683 -0.2542
99372W        W42425  10.858  30.460  18.352 -0.3430 -0.0537 -0.0767
99373W        W42426  30.816  28.479  16.998  0.1992  0.1555  0.1852
99374W        W42427  24.759  13.498  21.763  0.3558  0.3087 -0.2808
99375W        W42428  13.004   0.914  25.059  0.1047  0.1761  0.0388
99376W        W42429  18.221   0.409   2.812 -0.2072 -0.1823  0.0492
99377W        W42430  14.834  11.417  26.843  0.1083 -0.1409 -0.1213
99378W        W42431  13.092   4.728   1.561  0.1610 -0.3383 -0.0777
99379W        W42432  32.362   3.860   0.706 -0.1038 -0.0884  0.0527
99380W        W42433  13.273   0.359  21.112  0.0182 -0.1155  0.3876
99381W        W42434   1.480  24.846  15.070 -0.1021 -0.0109 -0.2429
99382W        W42435  12.732  22.625  19.846  0.0719  0.3686 -0.0446
99383W        W42436   6.357  28.789  28.101  0.0772 -0.0943  0.2473
99384W        W42437  24.064  34.408  14.071  0.2950  0.3100  0.0666
99385W        W42438  26.561  24.529  18.590 -0.1807 -0.0962 -0.3228
99386W        W42439  17.221  13.475   1.806 -0.1584  0.0688  0.1346
99387W        W42440  26.998   8.498  27.547 -0.2054  0.0685 -0.4325
99388W        W42441  25.059  16.188   2.412  0.0003  0.1177 -0.1273
99389W        W42442  15.562   0.252   2.616 -0.2028  0.1904 -0.2842
99390W        W42443  25.222  28.383  18.259  0.4853  0.2771  0.1073
99391W        W42444  23.838  30.037  16.742 -0.0137  0.2049  0.1022
99392W        W42445   9.727  13.306  22.207 -0.1480  0.1164 -0.1720
99393W        W42446  14.740  30.685  18.144  0.1188  0.4296 -0.1787
99394W        W42447  20.899   7.464  19.668 -0.2383 -0.2610  0.0028
99395W        W42448  28.696  33.664   1.352  0.1954 -0.0778 -0.2729
99396W        W42449   0.851  26.332  21.221 -0.0766 -0.1200  0.2446
99397W        W42450  20.812   8.861   6.653  0.0555  0.2713 -0.0060
99398W        W42451   2.125   7.118  22.933  0.0789  0.1173 -0.0971
99399W        W42452  24.989   5.825  10.054 -0.0343  0.3349  0.0627
99400W        W42453  12.087  27.428  13.383  0.1251  0.0828  0.4010
99401W        W42454  31.462  23.908  26.698  0.0035  0.1012 -0.1509
99402W        W42455  33.839  18.005  20.196 -0.0106 -0.0953 -0.0366
99403W        W42456   9.069  12.265  17.578  0.2374 -0.0112  0.0636
99404W        W42457  29.686   5.766  21.455 -0.0010 -0.0089 -0.2523
99405W        W42458  13.713  12.459  26.551 -0.1727 -0.0815 -0.0708
99406W        W42459  31.209   7.930  15.035 -0.2212 -0.3134  0.4518
99407W        W42460   0.963  27.279   5.859 -0.0568 -0.1105  0.3095
99408W        W42461  24.087  29.178  14.363 -0.1959 -0.0259  0.3776
99409W        W42462   9.393  28.685  23.747 -0.0526  0.0332  0.0270
99410W        W42463  27.792  33.882  16.052  0.1671  0.1498 -0.1250
99411W        W42464  31.455  33.493  19.380 -0.0018 -0.0306 -0.1506
99412W        W42465  12.177  33.353  18.757  0.0224 -0.0683  0.1745
99413W        W42466   8.917   8.323  18.470 -0.2897  0.0695  0.0786
99414W        W42467  29.724  27.465  19.079 -0.0273  0.2504 -0.2939
99415W        W42468  26.105  10.367  16.824 -0.0542 -0.0673 -0.1094
99416W        W42469  28.046  33.930   0.278  0.1192 -0.0667 -0.0669
99417W        W42470  19.944  29.966  21.700 -0.0140  0.1166  0.1784
99418W        W42471  29.213  32.379   9.087  0.0330  0.0243 -0.0166
99419W        W42472  18.573  29.042  17.987 -0.1534  0.1676  0.1128
99420W        W42473  16.413   2.627  21.446  0.0728 -0.1483  0.1370
99421W        W42474  22.451   3.033  16.267  0.1759 -0.2465  0.1023
99422W        W42475  21.529  14.822  17.644  0.2665 -0.0776  0.0686
99423W        W42476   2.299   0.054   9.230  0.1643 -0.0435 -0.0358
99424W        W42477  14.466  22.206  22.808  0.0627  0.2172 -0.2090
99425W        W42478  18.747  33.179  22.039 -0.2049  0.4735  0.1082
99426W        W42479  17.510   4.612   4.238  0.0255 -0.1326  0.3319
99427W        W42480  20.879  19.661  27.120  0.0601  0.1526 -0.2091
99428W        W42481  32.714   9.588  24.510 -0.2793  0.1113 -0.1161
99429W        W42482  32.190   3.820  15.124  0.2179 -0.0754 -0.2061
99430W        W42483  12.679  22.398  24.340  0.1763  0.1446  0.2990
99431W        W42484   8.658   3.893  16.107 -0.0575  0.1112 -0.0677
99432W        W42485  20.743   0.931  28.039  0.0666  0.0010 -0.1286
99433W        W42486  22.458  28.206  24.537 -0.1457 -0.0485 -0.0652
99434W        W42487  24.544  21.098   7.493 -0.0873  0.0341 -0.0313
99435W        W42488  27.858  18.747   5.882  0.0861 -0.1937 -0.1221
99436W        W42489   5.659  31.297  17.281  0.1151 -0.0455 -0.1130
99437W        W42490  12.133  33.359   7.895  0.0224 -0.0267 -0.0830
99438W        W42491  22.437  33.886  25.123  0.0436  0.2114 -0.3347
99439W        W42492  18.382  12.906  20.020  0.0168 -0.1515 -0.1797
99440W        W42493  30.840   3.230   0.526 -0.2655 -0.2715 -0.1462
99441W        W42494  16.844  22.819  20.356  0.1763 -0.0763 -0.0999
99442W        W42495  28.498  31.236  25.561  0.1723  0.2513  0.3763
99443W        W42496  29.865   8.351  26.303 -0.1013  0.3337  0.2106
99444W        W42497  21.028  25.047  25.433  0.0709  0.3424 -0.0607
99445W        W42498  23.952  28.985  20.301 -0.0976 -0.2195 -0.1923
99446W        W42499  13.784  29.453  19.948 -0.2314 -0.2079 -0.1423
99447W        W42500  24.168  29.806  24.562 -0.1799  0.2837 -0.1639
99448W        W42501  24.486  23.711   0.781 -0.1985 -0.5262 -0.4511
99449W        W42502  34.456  13.471  26.117 -0.0460 -0.0555  0.1632
99450W        W42503   7.163  24.172  15.616  0.0864 -0.2895  0.0640
99451W        W42504  22.560  10.424   4.970  0.0981 -0.1078  0.0311
99452W        W42505  23.206  30.568  25.764 -0.2852  0.1773  0.0186
99453W        W42506   1.284   0.871  18.879  0.1286  0.0692  0.2929
99454W        W42507  24.609  33.415  24.620  0.0150 -0.1994  0.1881
99455W        W42508  32.823   1.756  22.797  0.2666  0.0592  0.0217
99456W        W42509   9.150  32.222   1.604  0.1866 -0.0932 -0.2033
99457W        W42510  23.341   4.445  27.168 -0.1665  0.1266 -0.2919
99458W        W42511   5.941  19.042  21.154  0.0077  0.0379  0.0483
99459W        W42512  24.754  25.408  14.031  0.0602  0.1164 -0.0639
99460W        W42513  27.354   5.766  17.443  0.2194 -0.0528 -0.4966
99461W        W42514  33.606   3.796  23.323 -0.0389 -0.2210  0.1387
99462W        W42515  13.926  33.857  27.972 -0.0826 -0.1271 -0.0933
99463W        W42516  27.638   7.510  17.624 -0.2651 -0.2269  0.0664
99464W        W42517   5.873   1.465  23.915 -0.2623 -0.1646  0.0917
99465W        W42518  25.011  32.320   7.408  0.2652  0.1380  0.2046
99466W        W42519  17.165  29.485  16.431  0.0824 -0.1631 -0.0940
99467W        W42520  34.098  15.472  15.883  0.0696 -0.1451  0.2563
99468W        W42521  22.195  27.449  23.057 -0.2857  0.0237 -0.1978
99469W        W42522  27.920  32.441  27.520  0.1940  0.2088 -0.0511
99470W        W42523   5.502  13.549  24.517  0.1106  0.1271  0.0389
99471W        W42524  32.203   1.137  19.030  0.0291 -0.0360  0.0232
99472W        W42525  18.437   0.434  23.519 -0.0207  0.2098 -0.2439
99473W        W42526  17.834  12.293  19.822 -0.3741 -0.2382 -0.3822
99474W        W42527  26.639   4.493  24.211  0.2026  0.0515  0.1406
99475W        W42528   1.332  31.688  27.465  0.2141  0.1217 -0.2707
99476W        W42529  24.331  11.221  22.243 -0.0157  0.0075  0.1356
99477W        W42530  24.735  16.504  23.613 -0.0373  0.2867 -0.0399
99478W        W42531  30.038  23.988  15.403 -0.2780  0.3472 -0.2228
99479W        W42532  13.618   9.811  14.225  0.1235 -0.1503  0.0809
99480W        W42533  23.735   4.428  22.458  0.1388 -0.0388  0.0091
99481W        W42534  30.479  15.445  14.871  0.0170 -0.1004 -0.2268
99482W        W42535   6.272  30.927  28.508 -0.2289  0.0733 -0.1601
99483W        W42536  21.307  11.774  18.163 -0.0177  0.0888  0.0009
99484W        W42537   9.878  33.208   8.508 -0.1124 -0.0909 -0.0005
99485W        W42538  21.087  21.132  21.592  0.1644 -0.2849  0.0775
99486W        W42539   2.651  25.651  19.921 -0.2298 -0.0712 -0.3214
99487W        W42540  11.061  34.348  23.360 -0.0815 -0.2763  0.0526
99488W        W42541  16.882   1.304  23.282  0.3133  0.0748  0.1503
99489W        W42542  22.394  32.585  26.158 -0.0977  0.0228 -0.2102
99490W        W42543  31.225  11.364  25.253  0.1340  0.0674 -0.0550
99491W        W42544  28.900  27.939  22.818 -0.1438 -0.0760  0.1096
99492W        W42545  15.698   0.120   4.802  0.3057 -0.1519 -0.1587
99493W        W42546  23.808   2.460  26.893  0.0928 -0.2390  0.0847
99494W        W42547  25.817  19.697  19.441 -0.1192 -0.4560 -0.4144
99495W        W42548  27.084   3.015  20.318  0.3018  0.3469  0.2474
99496W        W42549  25.321   3.850  18.558  0.2906 -0.0205  0.0466
99497W        W42550  16.454   6.976  14.800 -0.1226  0.0162  0.0177
99498W        W42551  15.013  27.277  17.885  0.1192  0.2922 -0.0442
99499W        W42552  11.112   1.572  10.037  0.2355  0.1475  0.1865
99500W        W42553  27.919  28.134  28.904  0.2257  0.3429  0.0043
99501W        W42554  20.653   0.466  27.977 -0.2435 -0.2920  0.0108
99502W        W42555  19.763  30.999  24.765 -0.0660 -0.1027  0.3037
99503W        W42556   6.857   4.877  28.077 -0.0639  0.1385  0.1941
99504W        W42557  18.182  34.677  20.292  0.0946  0.0729 -0.1592
99505W        W42558  12.913   3.913   2.070 -0.0661  0.0167  0.0404
99506W        W42559  24.486  15.160   0.512  0.2304 -0.1740  0.3054
99507W        W42560  19.104   6.987   0.139  0.1203  0.1117 -0.0857
99508W        W42561  22.959  31.426  10.522  0.1797 -0.0180  0.0931
99509W        W42562  18.734   8.797   3.871  0.1882  0.0954  0.0639
99510W        W42563  16.815  26.532  22.467  0.3749 -0.0030 -0.0848
99511W        W42564   8.854   4.121  17.163  0.0208  0.2215 -0.0648
99512W        W42565  25.884   1.837  20.466 -0.2549  0.5173  0.0401
99513W        W42566  15.660  10.468  14.994  0.0948  0.0531  0.6487
99514W        W42567  21.656  12.927  26.818  0.0609 -0.1588  0.0684
99515W        W42568  24.498  21.008  27.601 -0.0112  0.2728  0.2008
99516W        W42569  15.516  30.592   7.462  0.3998  0.1872 -0.0433
99517W        W42570  17.968  28.685   0.457  0.2815 -0.0940  0.5449
99518W        W42571  16.621  31.936  17.995 -0.1571 -0.1782  0.1684
99519W        W42572  28.147   5.200  15.558  0.1574 -0.0714 -0.0788
99520W        W42573  23.442  24.045  26.850 -0.0426 -0.0436 -0.1757
99521W        W42574  22.416   6.019  23.832  0.1200  0.0887 -0.1421
99522W        W42575  27.700   4.230   4.125  0.1080  0.0711 -0.0210
99523W        W42576   3.411  17.804  18.189 -0.0258  0.0634  0.1241
99524W        W42577  10.481   6.203  21.940  0.1546  0.1424 -0.0013
99525W        W42578  16.822   9.817  28.552  0.0421 -0.0184 -0.2238
99526W        W42579   0.283  33.263  29.145 -0.2070 -0.0626 -0.0685
99527W        W42580  26.978  27.379  20.236 -0.2230  0.1510  0.2806
99528W        W42581  27.405  34.032   2.464 -0.3498 -0.0391 -0.2924
99529W        W42582  15.173  11.972  26.277  0.0203 -0.1669 -0.2695
99530W        W42583  33.999  28.200   1.824 -0.3206  0.2984 -0.0334
99531W        W42584  30.393  32.243  20.970  0.1565  0.1495  0.0830
99532W        W42585  33.078   8.441  18.442  0.1489 -0.0624  0.0650
99533W        W42586  21.078  18.316  27.186  0.1537 -0.1344  0.0146
99534W        W42587   9.583  14.090  20.824 -0.0424 -0.1390  0.2888
99535W        W42588   0.230  19.662  26.860  0.0390 -0.4299 -0.2695
99536W        W42589  24.841   3.235  18.764  0.3116  0.1020 -0.1879
99537W        W42590  26.725   9.844  26.290  0.1958  0.0036  0.1529
99538W        W42591  11.282  22.119  21.252  0.0029 -0.0968  0.2213
99539W        W42592  14.941   9.550  15.426 -0.3919  0.1832  0.0562
99540W        W42593  24.572   5.757   5.491 -0.0992 -0.0412  0.1833
99541W        W42594  12.074   6.561  19.171 -0.0333  0.1966  0.0677
99542W        W42595  19.641  31.191  18.792  0.0660 -0.1413 -0.4245
99543W        W42596  14.835  32.220  16.906 -0.0745 -0.0078  0.1918
99544W        W42597  17.971  28.024   3.611 -0.1908 -0.1094  0.1196
99545W        W42598   0.499   7.636  18.990  0.1805  0.1500  0.1644
99546W        W42599  11.927  33.536   4.673  0.0541 -0.0202 -0.0139
99547W        W42600   3.132   5.337   7.197  0.0257 -0.1640 -0.0587
99548W        W42601  26.475   3.312   9.428  0.0749  0.1635  0.0850
99549W        W42602   2.359  33.403   5.875  0.0761 -0.0128 -0.0877
99550W        W42603  22.230   1.296  25.757 -0.1796 -0.2004  0.2273
99551W        W42604   9.547  22.670  15.668  0.2177  0.3184 -0.0139
99552W        W42605  15.499  23.610   6.791  0.0487  0.2153 -0.1061
99553W        W42606  17.870   0.646  18.678 -0.0357  0.0569  0.0790
99554W        W42607  18.673   9.346  17.245 -0.0633 -0.4110 -0.1383
99555W        W42608   6.911   5.921   4.133  0.3111 -0.0812  0.1432
99556W        W42609  12.320   6.889  21.654  0.0883  0.3506 -0.3235
99557W        W42610  34.623   6.623  23.892  0.1830 -0.0064 -0.2808
99558W        W42611   0.068   7.381  17.791 -0.1928  0.2075 -0.0076
99559W        W42612   9.461  30.932  27.422 -0.1765  0.1745  0.2854
99560W        W42613  34.361  16.625  20.027 -0.2921  0.2875  0.1012
99561W        W42614  24.352  32.309  14.122 -0.0000  0.2892 -0.1589
99562W        W42615  28.793  22.902  22.750  0.0511 -0.0149 -0.1515
99563W        W42616  21.661  11.731  24.705  0.0245 -0.2364  0.1038
99564W        W42617  16.064  20.862  23.323  0.0393 -0.1692  0.1359
99565W        W42618   3.554  15.321  17.285 -0.2023  0.0070  0.0038
99566W        W42619  25.814  31.630   1.809 -0.0993  0.3640  0.4002
99567W        W42620  15.376  31.974  28.243 -0.3092  0.2518 -0.1191
99568W        W42621  22.657  32.595  14.867  0.2193  0.0522 -0.3285
99569W        W42622   4.621  31.649  23.807  0.1321 -0.1135  0.2422
99570W        W42623  19.658  11.666  28.069 -0.1012  0.1041 -0.1923
99571W        W42624   1.655  10.663  17.999  0.0099 -0.2155  0.0679
99572W        W42625   3.534   5.177  21.665 -0.0144 -0.2986  0.0342
99573W        W42626   2.290   8.209  16.651  0.1711  0.1979  0.1694
99574W        W42627   5.544  29.251   6.290 -0.1021 -0.0363  0.0127
99575W        W42628  29.766   2.726  15.664 -0.0514  0.2932  0.0423
99576W        W42629  11.584  29.638   0.504 -0.0284 -0.2341  0.0347
99577W        W42630  30.448  33.984  21.511 -0.0361 -0.0624 -0.0045
99578W        W42631  27.709  28.507  27.595 -0.1595 -0.0455  0.2188
99579W        W42632   9.497   1.430  22.611 -0.0023 -0.0266 -0.2141
99580W        W42633  30.834  27.312   2.488  0.4051 -0.1231 -0.3640
99581W        W42634  24.356   3.330  18.487 -0.1315 -0.0438  0.0221
99582W        W42635  16.265  19.821   5.998  0.1932 -0.2367  0.2827
99583W        W42636  26.792   6.878   5.106  0.4618  0.0182  0.0542
99584W        W42637  32.885  31.197   5.089  0.2385 -0.0466 -0.1687
99585W        W42638  18.107   8.682  19.756 -0.2688  0.0394  0.0205
99586W        W42639  12.303  11.284   3.304  0.0232 -0.1561  0.2505
99587W        W42640  16.573  10.486  26.769 -0.1732 -0.3431  0.0838
99588W        W42641  29.936  31.775  27.071  0.1677  0.0214  0.0911
99589W        W42642   4.562   7.058   4.939 -0.2903 -0.1367  0.1365
99590W        W42643  23.939   0.212  28.619  0.0309  0.3415 -0.0227
99591W        W42644   9.310  28.352  28.567 -0.1673 -0.1294 -0.3891
99592W        W42645   3.780  21.935   2.641  0.2796  0.1394 -0.2548
99593W        W42646  22.020  31.333  18.298  0.1292 -0.3943  0.1930
99594W        W42647  20.881  20.703  25.536 -0.0867 -0.3389  0.1031
99595W        W42648   2.064   2.026  15.228  0.0299  0.2147 -0.1893
99596W        W42649  21.193  33.949  26.415 -0.1201  0.1739 -0.1856
99597W        W42650  20.572  30.430  17.541 -0.1200 -0.1350 -0.2729
99598W        W42651  24.945  20.931   1.067  0.0520  0.1882 -0.0879
99599W        W42652  20.969   0.219  21.205 -0.4412 -0.2104 -0.1299
99600W        W42653  26.309   4.283   2.601  0.0411 -0.2209  0.3130
99601W        W42654  26.885  19.863  27.495  0.1860  0.0588 -0.1797
99602W        W42655  26.062   1.099   8.092 -0.0184  0.0070 -0.0614
99603W        W42656  20.700  25.326  25.192  0.4454  0.3064  0.0712
99604W        W42657  30.021  10.557  19.252  0.0903 -0.2236 -0.3023
99605W        W42658   0.789   2.311  28.943  0.1394  0.0270 -0.0782
99606W        W42659  26.542  11.847   1.273 -0.2387 -0.0027 -0.0490
99607W        W42660  19.641   8.119   5.598  0.2547  0.1131 -0.1459
99608W        W42661  33.403   3.938   3.800 -0.1430  0.0049  0.0259
99609W        W42662  20.058   9.328  25.139 -0.0159 -0.1900  0.0729
99610W        W42663  16.340   4.559  26.581  0.1819  0.1362  0.3402
99611W        W42664  29.334   6.711   6.196  0.1634  0.0782  0.0959
99612W        W42665  12.790   9.535  22.375  0.0437 -0.2741 -0.2336
99613W        W42666  26.002  34.193  25.036 -0.1541  0.1497 -0.0865
99614W        W42667  12.728   1.505  23.674 -0.2425 -0.0176 -0.4258
99615W        W42668  29.272  18.303   9.438  0.0010 -0.0209 -0.1392
99616W        W42669  25.838   2.304   8.175 -0.1357  0.3253  0.2292
99617W        W42670  13.010  19.508  25.939  0.1767 -0.1224  0.1099
99618W        W42671  20.556  28.360  18.945 -0.1720 -0.1151 -0.0245
99619W        W42672  24.749  29.328   0.569  0.0533 -0.4459  0.2160
99620W        W42673  16.935  34.674  27.621 -0.2046 -0.0539 -0.1940
99621W        W42674  33.175  22.054  25.234  0.2414  0.0772 -0.0405
99622W        W42675  23.897   6.818   1.010  0.0468 -0.0681 -0.0283
99623W        W42676  22.976   1.314  22.434  0.0296 -0.3275 -0.2811
99624W        W42677  25.137   5.806  26.896  0.0389  0.1581  0.0150
99625W        W42678  14.648  34.024  15.157  0.1951  0.2527  0.0403
99626W        W42679  14.598  11.818  18.425  0.2684 -0.1681  0.0466
99627W        W42680  26.227  20.363   8.780 -0.0828 -0.2162 -0.3267
99628W        W42681  22.997   2.012  21.499 -0.0438 -0.2745 -0.0986
99629W        W42682  10.302  27.984  25.178  0.0725 -0.2149  0.0113
99630W        W42683  30.151  18.141   0.883 -0.0725 -0.1693 -0.1452
99631W        W42684  27.148  32.399   4.948 -0.2795 -0.2159 -0.3857
99632W        W42685  22.832  27.945   7.895 -0.0466  0.0318  0.0818
99633W        W42686   7.781  15.565  18.173 -0.1251 -0.2031  0.1129
99634W        W42687  29.892   6.381  24.458  0.1844 -0.2111  0.1440
99635W        W42688  34.283   4.859  20.342  0.0516 -0.0337  0.2004
99636W        W42689  16.294   0.506   1.182  0.0496 -0.0832  0.1433
99637W        W42690   3.318  33.742   7.480  0.2138 -0.0081  0.1244
99638W        W42691  22.446  12.753  28.262 -0.0510 -0.3062 -0.3205
99639W        W42692  22.081  34.572   5.118  0.2813  0.0795  0.0376
99640W        W42693   0.281   1.455   4.625 -0.1933 -0.0771 -0.0318
99641W        W42694  27.853  10.003   3.876  0.0418 -0.0934 -0.0359
99642W        W42695  27.173   3.171   4.266 -0.0057  0.0761 -0.0427
99643W        W42696   0.009   2.534  25.444 -0.2478 -0.0571 -0.1314
99644W        W42697  11.273  20.814   8.543 -0.0806 -0.1644 -0.1732
99645W        W42698   1.092   4.369  15.748  0.2362 -0.0665 -0.4444
99646W        W42699  21.438   2.611  26.419 -0.5264 -0.0184  0.0144
99647W        W42700  22.852   2.604  26.653 -0.0589 -0.0851 -0.1144
99648W        W42701  29.716  25.388  15.877 -0.0105  0.3882 -0.2394
99649W        W42702  13.969   4.858   3.227  0.0348 -0.1565  0.1124
99650W        W42703  14.626   1.031  20.261  0.2836 -0.2551  0.0681
99651W        W42704  19.675  11.512  15.287 -0.4834  0.3989  0.0505
99652W        W42705  25.520   3.486  29.032 -0.0103 -0.1038 -0.1610
99653W        W42706  16.268   1.686  27.873 -0.0764  0.1569  0.1218
99654W        W42707  19.721  24.502  22.054  0.0917  0.0968 -0.3241
99655W        W42708  15.589   2.130  27.302 -0.0161 -0.4625  0.4775
99656W        W42709   5.267  28.042  16.524 -0.2219  0.0340 -0.1477
99657W        W42710  32.225  11.311   4.358  0.1101  0.0982 -0.3382
99658W        W42711  29.408   9.580   4.748  0.0199  0.0082  0.1364
99659W        W42712  16.405   1.932   3.680 -0.0996 -0.2320 -0.0775
99660W        W42713  23.770  13.235  19.609 -0.1278  0.1320 -0.0040
99661W        W42714   8.326   3.679  28.049  0.1846  0.2809 -0.3228
99662W        W42715  27.515  31.900   5.172 -0.1938  0.0502 -0.2636
99663W        W42716   4.781   0.121  19.675  0.0227  0.5037  0.4101
99664W        W42717  16.640  24.381  27.911  0.2169  0.2722 -0.1183
99665W        W42718   0.631  12.253   1.776 -0.0195 -0.1231  0.2384
99666W        W42719   8.647  34.200  17.502 -0.0667 -0.0615  0.2845
99667W        W42720  30.151  29.471  17.704  0.1664  0.1184  0.1005
99668W        W42721  14.589   1.635   9.399  0.0151  0.0456  0.1120
99669W        W42722  13.011   2.660   1.441  0.2184  0.1171 -0.0736
99670W        W42723  18.451  28.299   8.725 -0.1087 -0.1697  0.4667
99671W        W42724  20.174   7.778  22.682 -0.0510 -0.1601  0.1758
99672W        W42725  29.803  32.177   3.776  0.2060 -0.0771 -0.1687
99673W        W42726  34.549  20.672   5.572  0.0240 -0.2015  0.0620
99674W        W42727  22.473  14.473  16.097 -0.0310  0.0944  0.1548
99675W        W42728   5.139  31.386  14.060  0.2844  0.0589  0.0132
99676W        W42729  26.370  20.050  21.053  0.3055 -0.2710 -0.1321
99677W        W42730  16.498   1.360  26.695  0.1257 -0.2986 -0.1398
99678W        W42731  24.364   3.494  15.010  0.0539  0.2946  0.1331
99679W        W42732  31.668  22.513   6.010 -0.3946  0.1788  0.0381
99680W        W42733  17.024  24.404   7.512  0.0844 -0.0077 -0.0123
99681W        W42734   0.358   1.909  19.797  0.0169  0.0714  0.1991
99682W        W42735  13.798  24.220  28.426 -0.0034  0.2637 -0.0245
99683W        W42736  17.393  26.951  16.923  0.1829  0.1408  0.1125
99684W        W42737  30.815  20.500   9.920 -0.2862 -0.0711 -0.0745
99685W        W42738  22.329   3.146  26.223  0.3365 -0.2810  0.1490
99686W        W42739  20.968   6.645  18.836 -0.3578  0.1040  0.3377
99687W        W42740  22.894   2.648   1.918  0.1088  0.1186 -0.2936
99688W        W42741  23.654  23.249   9.337  0.1488  0.0211  0.0248
99689W        W42742  14.760   2.506  21.057  0.5281  0.1178 -0.0097
99690W        W42743  29.956   4.309   6.606 -0.2377 -0.2345 -0.1277
99691W        W42744  10.657  14.439  24.166  0.3487  0.1408  0.1021
99692W        W42745  25.736   3.482  14.465 -0.2306  0.1355  0.0844
99693W        W42746  20.236  21.882  19.426 -0.3814  0.2405 -0.1169
99694W        W42747  10.860  26.211   3.727 -0.0444 -0.1999 -0.1877
99695W        W42748  13.179  28.307  19.274  0.3110 -0.0035 -0.1098
99696W        W42749  22.452  12.848   2.262 -0.1962  0.0801  0.2573
99697W        W42750   9.359   6.055  16.608 -0.0006 -0.0956 -0.0316
99698W        W42751  14.601  20.664  23.115 -0.2635 -0.0445 -0.0770
99699W        W42752  20.537   1.983   0.370  0.1286  0.1855  0.0273
99700W        W42753  21.803   2.870  15.498 -0.2771 -0.0938 -0.1277
99701W        W42754  10.179  25.859  14.809 -0.0336 -0.1957 -0.0008
99702W        W42755   0.758  12.230  19.662 -0.1772 -0.1330  0.4438
99703W        W42756  18.758  11.180  15.647 -0.1003  0.4447  0.0430
99704W        W42757  28.953   4.030  14.196  0.2202 -0.3607  0.1427
99705W        W42758   0.239   3.826  26.559 -0.0423  0.0492  0.2031
99706W        W42759  25.860   7.518  14.491  0.1472  0.0630  0.4242
99707W        W42760  21.380  29.523  20.577  0.2052  0.0354  0.0866
99708W        W42761  23.832   8.139   2.338  0.1673 -0.0004 -0.0843
99709W        W42762  13.732  13.924   0.381 -0.0545  0.0525 -0.0532
99710W        W42763  30.830  34.348   8.821 -0.0345 -0.1545 -0.0760
99711W        W42764  16.055  19.480  14.476 -0.3299  0.0885 -0.0617
99712W        W42765  16.041  28.832  16.015 -0.1072  0.0051  0.2620
99713W        W42766  32.966   5.034   5.061 -0.1247 -0.1082 -0.0493
99714W        W42767  29.707   3.412   8.474  0.2862  0.2521 -0.1215
99715W        W42768  21.585   5.418  29.186  0.0622  0.1762  0.2076
99716W        W42769   8.027  24.215  23.614  0.1314 -0.1887 -0.0790
99717W        W42770  33.673  34.090   6.520 -0.1151 -0.3669 -0.0147
99718W        W42771   9.971  21.881  15.559 -0.2087  0.4525  0.3760
99719W        W42772  18.107   9.444  28.729  0.1246  0.0110  0.0991
99720W        W42773  19.192  26.371   3.145 -0.0448  0.3202 -0.0056
99721W        W42774   6.818  26.180  15.078  0.0824 -0.2960  0.0945
99722W        W42775  21.068  18.751  24.811 -0.2457 -0.3743 -0.1643
99723W        W42776  23.090   1.295  24.587  0.1335 -0.0299  0.0199
99724W        W42777  16.179   1.737  24.450  0.0004  0.0100 -0.2806
99725W        W42778  29.793   1.324   0.386 -0.1519 -0.0536  0.1363
99726W        W42779  10.413   4.861   4.955 -0.1640 -0.0271 -0.3226
99727W        W42780  26.212  29.258  16.637 -0.0508  0.1976  0.2305
99728W        W42781  16.513   2.728   0.896  0.1593 -0.2567  0.2738
99729W        W42782  21.078  12.862   9.977  0.1342  0.3027  0.1225
99730W        W42783   3.655   5.805  21.986 -0.5050  0.0848 -0.0339
99731W        W42784  26.908   0.595  14.974 -0.2600 -0.2357 -0.1759
99732W        W42785  15.695  31.149  17.113 -0.1742 -0.2287  0.0130
99733W        W42786  18.296  15.119   7.777 -0.1045  0.0315  0.0299
99734W        W42787  24.714  13.997  16.454 -0.2773  0.3047  0.2751
99735W        W42788   2.044   7.362  16.343 -0.1004  0.0899 -0.0273
99736W        W42789  15.123  11.139  14.655 -0.3775 -0.0863 -0.2395
99737W        W42790  27.591   0.985  19.894 -0.0324  0.1074  0.1231
99738W        W42791  22.480  29.037  24.367 -0.0865 -0.1449  0.0108
99739W        W42792  28.647  17.646   9.540  0.1267 -0.0370  0.0608
99740W        W42793  32.951  18.787   0.004 -0.2797  0.1954  0.0589
99741W        W42794  27.982  23.465  27.114 -0.3494 -0.1510 -0.2848
99742W        W42795  10.588  25.292  27.425 -0.2026 -0.1319  0.0468
99743W        W42796  23.570   0.441  28.852 -0.1348 -0.1030 -0.0733
99744W        W42797  23.648   4.419   1.600 -0.0497  0.1350  0.2321
99745W        W42798   5.767  25.315   9.138  0.1158 -0.0098 -0.1529
99746W        W42799   2.452   6.628  23.134 -0.0152  0.2028  0.3467
99747W        W42800  30.890  18.651  23.003 -0.1655 -0.2384  0.0522
99748W        W42801  15.214  23.479  26.196  0.1580  0.1473 -0.0900
99749W        W42802  22.973  10.531   3.302  0.1462  0.1271  0.1485
99750W        W42803  29.127  33.094   5.362 -0.1151 -0.0936  0.0374
99751W        W42804  32.304   6.420  20.719 -0.1737 -0.0808 -0.0574
99752W        W42805   4.928   4.970  27.966 -0.1903 -0.1122  0.1830
99753W        W42806  29.202   0.300   1.484  0.1565  0.0707  0.0976
99754W        W42807   1.333  33.919   3.838  0.4406  0.0688 -0.2246
99755W        W42808  20.450   1.881  25.663 -0.1355  0.0181 -0.0032
99756W        W42809  26.779  16.508  27.317  0.0376 -0.2213  0.1276
99757W        W42810  19.739   6.001  15.296  0.0555 -0.2123  0.0507
99758W        W42811  31.558  23.138  18.158 -0.0316 -0.0544  0.0198
99759W        W42812  21.438   9.922   5.132  0.2219 -0.3437 -0.2034
99760W        W42813  18.081  21.385  15.318 -0.0223 -0.0211  0.1199
99761W        W42814  16.647  32.468  20.720  0.1045  0.0102  0.0487
99762W        W42815  25.041   4.753   7.449 -0.0357  0.2090  0.0558
99763W        W42816   5.379  23.512   4.551  0.4010 -0.4599  0.1127
99764W        W42817  10.926  34.423  17.673 -0.0986 -0.0797  0.4295
99765W        W42818   7.367  27.732  18.097 -0.0957  0.4673  0.0579
99766W        W42819  17.005  33.799  25.637 -0.0644  0.1475  0.1985
99767W        W42820  27.345  30.585   1.107  0.2232  0.0350  0.0635
99768W        W42821  19.931  32.978   0.644 -0.0410  0.1019 -0.3160
99769W        W42822  28.589  18.837  21.987  0.3401 -0.0687 -0.0957
99770W        W42823   6.132   6.067   5.255 -0.1311  0.0886 -0.0205
99771W        W42824  18.080   5.005   8.079  0.6632 -0.0861 -0.1998
99772W        W42825  24.263  30.057  25.050  0.3560 -0.0483  0.1505
99773W        W42826  17.501  29.614   3.007 -0.0179  0.1591  0.1719
99774W        W42827  16.842  26.234  23.798  0.0436  0.1709 -0.1043
99775W        W42828  16.906  24.724  17.569  0.1347  0.1515 -0.0068
99776W        W42829  24.196   4.624  19.721  0.0220 -0.0241 -0.0218
99777W        W42830   1.443  13.418  27.832  0.4300 -0.1513 -0.0878
99778W        W42831  14.434  33.431   3.999 -0.4560  0.2390 -0.1172
99779W        W42832  12.847  23.928  17.196  0.2783  0.0286  0.1635
99780W        W42833  32.863  33.072  24.962  0.1496 -0.3855 -0.0860
99781W        W42834  12.847  13.318   4.466 -0.0723  0.4862 -0.1797
99782W        W42835  26.473  30.761   5.361  0.0151 -0.0467 -0.3437
99783W        W42836  15.572  25.613  17.409  0.2258 -0.2988  0.0188
99784W        W42837  21.515  29.995  18.478  0.0804 -0.0311  0.3425
99785W        W42838  34.048  29.627   2.443  0.0379 -0.0661 -0.2564
99786W        W42839   2.410  33.336   4.514  0.4032 -0.1124 -0.0699
99787W        W42840   7.465   0.759  23.962  0.1724 -0.0593  0.2864
99788W        W42841  10.892   9.376   4.799 -0.1577 -0.0111 -0.0971
99789W        W42842  30.652  11.290   8.134 -0.2438 -0.1138 -0.1033
99790W        W42843  17.725  27.148  27.640 -0.2454  0.2152 -0.2241
99791W        W42844  18.112  34.447  23.970  0.1377  0.0235  0.0895
99792W        W42845  13.018   5.986  27.692  0.2890  0.0257  0.0930
99793W        W42846  31.050  15.136   1.679 -0.3232  0.0436 -0.1300
99794W        W42847  18.345   0.927  11.037  0.0064 -0.1074  0.2177
99795W        W42848  27.029  12.844  23.844  0.0092  0.0561  0.0689
99796W        W42849  25.951   7.788  26.089 -0.1386  0.0486  0.2373
99797W        W42850  26.901  11.029   8.291  0.0701 -0.2128 -0.2220
99798W        W42851  24.036  27.279   4.310  0.2804  0.1159  0.0943
99799W        W42852  17.482  32.956   5.230 -0.1934 -0.2132 -0.1724
99800W        W42853  11.978   1.669   6.835  0.1876 -0.0887 -0.0430
99801W        W42854  16.377   0.867  28.966  0.2387  0.0541  0.4751
99802W        W42855  19.552   0.253   5.421  0.0808 -0.1220 -0.0927
99803W        W42856  26.995  25.345   4.596 -0.2549 -0.1134  0.2723
99804W        W42857  20.393   2.203   1.654  0.0451  0.3999 -0.4212
99805W        W42858  28.872   0.821  24.311  0.1049  0.0319  0.0598
99806W        W42859  25.763  20.189  16.552 -0.1761 -0.0776  0.0955
99807W        W42860   1.838   1.606  28.091  0.1323  0.0032  0.3185
99808W        W42861  33.023  23.905  26.775 -0.1267 -0.2796  0.0557
99809W        W42862  17.212   9.779  16.788  0.1326 -0.3553 -0.1122
99810W        W42863  30.879   5.393  24.814 -0.0592  0.0695 -0.0359
99811W        W42864  20.777  27.500   2.800  0.1019 -0.1258 -0.0751
99812W        W42865   0.359  15.378   2.443 -0.0779 -0.2134 -0.1055
99813W        W42866  19.705  17.395  24.763  0.1436 -0.0168 -0.2130
99814W        W42867  21.393   3.764  24.381 -0.1580  0.1985  0.0159
99815W        W42868  26.908  16.771  19.111 -0.0420  0.2177  0.1293
99816W        W42869  17.237  28.900   1.937  0.0622  0.2406  0.0543
99817W        W42870  13.037   1.506  27.753 -0.0559  0.1694  0.0177
99818W        W42871  27.180  22.050  21.228 -0.1782  0.0214  0.0714
99819W        W42872  19.123  31.819  17.905 -0.2271 -0.2316 -0.2006
99820W        W42873   2.258   4.933  18.265  0.1949 -0.1951 -0.0310
99821W        W42874  29.738   2.277  23.974 -0.2985  0.2394  0.3110
99822W        W42875  29.616   6.729  17.167 -0.3819  0.0332  0.4131
99823W        W42876  23.229   2.464   8.466 -0.0759  0.1790 -0.0338
99824W        W42877  22.878   2.726  19.416  0.0489  0.2535 -0.1646
99825W        W42878  22.343   3.012   6.059 -0.2273 -0.0213  0.0719
99826W        W42879  23.993  31.447   8.415 -0.0989 -0.0391  0.1300
99827W        W42880   2.227  11.069   6.585  0.0123  0.2306 -0.0319
99828W        W42881  23.675  32.233   0.067  0.0170 -0.1729  0.0248
99829W        W42882  22.035  27.735   4.876  0.0441  0.1317  0.0169
99830W        W42883  13.358   3.850   1.813 -0.0897  0.0306 -0.0198
99831W        W42884  25.232  15.941  16.595  0.0493 -0.0567  0.0018
99832W        W42885   6.788  26.006  16.937  0.0824 -0.0234  0.0740
99833W        W42886  14.159   8.513   3.212  0.1766 -0.1643  0.1681
99834W        W42887  32.817  11.776  21.183 -0.1578  0.0113 -0.0293
99835W        W42888  15.396  30.029  27.703  0.2925 -0.1798  0.1671
99836W        W42889  26.617  12.981  28.508 -0.1395 -0.2317 -0.2078
99837W        W42890  14.350  30.706  19.017 -0.3903  0.2087 -0.0616
99838W        W42891  23.999  29.386  13.866 -0.0464 -0.0078 -0.3459
99839W        W42892  10.345  18.873   0.304 -0.0280 -0.0650  0.0142
99840W        W42893  24.127  16.051  21.337  0.3831 -0.0981 -0.0465
99841W        W42894  15.357  12.977  25.239 -0.0357 -0.3815  0.0701
99842W        W42895  27.799  22.136   4.298 -0.1186  0.0207  0.0707
99843W        W42896   1.245  14.157   8.951 -0.0696 -0.1563 -0.0884
99844W        W42897  30.897   6.416  24.821  0.1832  0.1912 -0.0094
99845W        W42898  22.827  10.177  21.543 -0.0418 -0.0470 -0.3953
99846W        W42899  15.186   8.331   2.585  0.0898  0.0716  0.3511
99847W        W42900  14.973  31.156  18.346 -0.2459  0.4158 -0.1759
99848W        W42901  12.478   7.145  27.370  0.2181  0.2089  0.2754
99849W        W42902  31.982  15.383  16.797  0.3339 -0.1365 -0.0713
99850W        W42903  21.720   8.146   0.135 -0.0045 -0.0990 -0.0072
99851W        W42904  30.482  28.346   8.729  0.0774 -0.1413 -0.2668
99852W        W42905  18.617  33.977  25.410 -0.2375 -0.2336 -0.0604
99853W        W42906   9.195  20.831   2.291 -0.0075  0.0398  0.3274
99854W        W42907  29.921  33.961   5.822  0.1575  0.0470  0.1551
99855W        W42908  10.205  11.481   1.427  0.3063  0.2056 -0.2910
99856W        W42909  28.984  30.085  16.376 -0.2546  0.3052  0.1051
99857W        W42910   2.530   6.436   7.699 -0.0600 -0.1152  0.2548
99858W        W42911  19.157  34.539  28.867  0.1917 -0.1587 -0.0148
99859W        W42912  19.812  27.631   5.839  0.1077 -0.2714  0.2853
99860W        W42913  27.260   3.367  24.429  0.0121 -0.3424  0.1991
99861W        W42914  32.359  12.532  18.041 -0.0894 -0.0368  0.3827
99862W        W42915  26.973  10.007  29.122 -0.0305 -0.2556 -0.2788
99863W        W42916  19.995   0.546  17.860  0.2182  0.1150 -0.2348
99864W        W42917  26.810  32.894  28.813 -0.2249 -0.2907  0.0486
99865W        W42918  22.813   2.303   7.741 -0.0060 -0.0355  0.1512
99866W        W42919  33.281  26.936   0.577  0.2752  0.0813  0.3869
99867W        W42920  30.405   0.499  23.574 -0.0007 -0.2277  0.0742
99868W        W42921   6.639  32.466  23.204 -0.2506  0.0604  0.0293
99869W        W42922   5.654  19.594   2.504  0.0853  0.1015  0.1999
99870W        W42923  31.687   5.898  24.081  0.0368  0.0813 -0.0007
99871W        W42924  17.863   8.878  21.595  0.0303 -0.0443  0.3703
99872W        W42925   1.869  10.451  29.200  0.0235  0.3315  0.0929
99873W        W42926  19.152   0.225  10.058  0.1188  0.2436 -0.2798
99874W        W42927   7.636  11.579   7.143 -0.0652  0.1308  0.0350
99875W        W42928  30.092   5.581   4.320 -0.0545 -0.2497 -0.2542
99876W        W42929   1.414   4.811   4.698  0.1859 -0.0734 -0.0107
99877W        W42930  21.472   8.579  18.793 -0.2328 -0.1271  0.1835
99878W        W42931  26.856  27.445  28.025 -0.2937 -0.0056 -0.0219
99879W        W42932  10.062   0.833   6.347  0.1841  0.1801 -0.2006
99880W        W42933  29.697   4.899   7.004  0.0751 -0.1091 -0.1416
99881W        W42934  26.358  28.031   2.671  0.0608  0.2842 -0.0230
99882W        W42935  31.264  12.975   5.115  0.0254  0.1036  0.1278
99883W        W42936  30.127   0.934  23.406 -0.1934 -0.1343 -0.3141
99884W        W42937   6.315  11.760   5.609 -0.2762  0.0004  0.1448
99885W        W42938  34.027   9.415   1.073 -0.0821  0.0508  0.1023
99886W        W42939  31.272   4.273  24.649  0.0131 -0.0093 -0.0263
99887W        W42940  22.651  16.845  27.917 -0.1129 -0.0464 -0.3600
99888W        W42941  10.772   3.770  15.250 -0.3204  0.0874 -0.0703
99889W        W42942  22.952  31.637  20.536  0.2063  0.1234  0.0452
99890W        W42943  30.133  29.975   4.566  0.0779 -0.1150 -0.1528
99891W        W42944  28.847  13.259  22.450  0.1133  0.2489 -0.3397
99892W        W42945   9.809   9.144   1.734 -0.1143  0.0310  0.2998
99893W        W42946  15.520  25.705   3.505  0.0420 -0.0204 -0.5261
99894W        W42947   0.044   7.704   3.568 -0.0864  0.3510 -0.1684
99895W        W42948  15.681   4.904   6.145 -0.0467 -0.0826 -0.0971
99896W        W42949  13.059  11.651  10.259  0.2300 -0.1615 -0.2460
99897W        W42950  31.618  10.039   2.503  0.2449  0.0542  0.2955
99898W        W42951  15.670   4.781  23.241  0.0699  0.2060 -0.1817
99899W        W42952  28.204   6.887   5.486 -0.0622 -0.0406 -0.1967
99900W        W42953  27.057  13.944  28.511  0.0451  0.1751  0.2272
99901W        W42954  29.364   0.690   5.650  0.0716  0.2417 -0.3014
99902W        W42955  18.453  22.835   0.791 -0.3620  0.0417 -0.0366
99903W        W42956  19.605   4.483  18.210  0.0304  0.0200 -0.2210
99904W        W42957  30.080   9.551   8.851  0.0462  0.0761  0.1565
99905W        W42958  31.623  21.718   0.646  0.0187  0.1008 -0.0253
99906W        W42959  28.626   6.897   3.000  0.0974  0.1460  0.1267
99907W        W42960  16.253   8.900  28.816  0.0405  0.1384  0.2850
99908W        W42961  20.336  20.722  17.246  0.0264 -0.0319 -0.2780
99909W        W42962  13.240  15.575  25.047 -0.0622  0.0160 -0.1853
99910W        W42963  11.867   2.335   8.252  0.4393 -0.4619 -0.0130
99911W        W42964   0.087  11.831   3.815 -0.0853  0.0054 -0.0514
99912W        W42965   7.336   1.608  25.024 -0.1983 -0.1817  0.4642
99913W        W42966  27.475   6.947   1.266 -0.2615  0.0730  0.0169
99914W        W42967  34.281  20.380  25.053 -0.0826  0.1263 -0.0645
99915W        W42968  31.578  17.582  23.449 -0.1443 -0.1684 -0.0259
99916W        W42969  23.002   6.189  17.562 -0.2862  0.2241 -0.3025
99917W        W42970  32.594  31.371  24.282 -0.0955  0.1635  0.0072
99918W        W42971   1.345  30.991  14.746  0.0609 -0.0412  0.0275
99919W        W42972  21.048   6.109  29.062  0.0732 -0.0395 -0.1005
99920W        W42973   3.521   6.716  19.063  0.1184  0.2794  0.0987
99921W        W42974   6.981  25.183   4.805  0.0073 -0.2101 -0.0812
99922W        W42975  16.412   1.737   9.714  0.2522 -0.1913 -0.3729
99923W        W42976  13.980  34.094   4.981 -0.1140  0.1678 -0.1040
99924W        W42977  23.814  29.532  26.413 -0.0070  0.0093 -0.4389
99925W        W42978  17.788  33.792   8.206  0.0100 -0.3139  0.0848
99926W        W42979  17.503  32.150  24.451 -0.0209  0.0196  0.1962
99927W        W42980   6.465   5.274  26.949  0.1414  0.0221  0.0573
99928W        W42981  11.522   3.263  22.756  0.1726  0.1754 -0.2821
99929W        W42982  15.866  22.903   6.419 -0.1081  0.1071  0.0427
99930W        W42983  20.414  14.626  15.331 -0.3873 -0.3518 -0.1310
99931W        W42984  22.561  22.958  27.384  0.1243  0.0035  0.1275
99932W        W42985   7.734  26.317  16.570 -0.0997 -0.0404 -0.0409
99933W        W42986   1.067  14.797  18.599  0.0693 -0.1193 -0.2543
99934W        W42987   7.646  18.433  14.165 -0.0143 -0.2505 -0.2081
99935W        W42988  16.530  14.398   4.480 -0.0081 -0.1335  0.0378
99936W        W42989  10.675  14.954   0.765  0.1891  0.1012  0.1628
99937W        W42990  23.991   3.377  27.809  0.0879  0.2007 -0.1315
99938W        W42991  27.588  27.757   5.894  0.0015  0.1534 -0.0745
99939W        W42992  18.459  29.572  16.619 -0.1790  0.1907 -0.1754
99940W        W42993  28.259  30.658  23.130 -0.2174  0.0602  0.3774
99941W        W42994   9.480  16.144  20.397  0.0654 -0.1305  0.0672
99942W        W42995  28.705   0.547  10.383 -0.1308 -0.1220 -0.1107
99943W        W42996  24.641  14.532  17.520  0.0090  0.0551 -0.0067
99944W        W42997  15.547  19.956  22.589 -0.0995  0.0466 -0.1702
99945W        W42998  19.315  13.173   8.570 -0.2830 -0.0277  0.2451
99946W        W42999   9.172  33.789   5.128 -0.0334 -0.1847  0.0605
99947W        W43000  26.750  25.801  23.840 -0.1268 -0.1932 -0.1442
99948W        W43001  12.098  29.263  20.566  0.0233 -0.1147  0.0240
99949W        W43002  20.173  27.139   0.457 -0.0735 -0.2403  0.0745
99950W        W43003  17.328   9.938   5.508 -0.0639 -0.3063  0.0273
99951W        W43004  23.026  13.329   8.424 -0.1085 -0.0849  0.1292
99952W        W43005   1.865   6.538  10.669  0.1851 -0.3443  0.0871
99953W        W43006  27.416   0.868  18.850 -0.3290  0.2770  0.3016
99954W        W43007  12.376  34.000  21.421 -0.1621 -0.1950  0.0311
99955W        W43008   0.887   7.596  20.820 -0.1105 -0.1738  0.1688
99956W        W43009  33.972  11.155  19.201  0.0629  0.0413 -0.0609
99957W        W43010  21.149  12.534   8.452  0.3056  0.0684  0.0712
99958W        W43011  16.902  33.253   4.723 -0.0112 -0.2145  0.1949
99959W        W43012  30.626   3.475   6.428 -0.1270 -0.3904  0.4053
99960W        W43013  13.073  12.905  18.488  0.1132  0.0728  0.0463
99961W        W43014  16.843  13.359   2.617 -0.1961  0.1514 -0.1891
99962W        W43015  34.507  17.539  24.844 -0.0302  0.3367  0.1036
99963W        W43016  21.758  25.464  16.967 -0.0482 -0.4879 -0.1844
99964W        W43017  17.830  32.114  15.843  0.0534 -0.0743 -0.0570
99965W        W43018  27.301  22.488  27.608 -0.1693  0.1392 -0.1829
99966W        W43019  19.301  26.884   0.051 -0.1954 -0.1435 -0.0313
99967W        W43020  25.374   3.882   7.220 -0.3254  0.0104  0.0238
99968W        W43021  11.244  21.749  18.432 -0.1350 -0.3630 -0.0658
99969W        W43022  16.179  28.617   9.555 -0.4415  0.0674 -0.0626
99970W        W43023  27.882   7.025   0.831  0.0850 -0.2204 -0.0278
99971W        W43024  25.641   6.651  14.318 -0.0273  0.1327  0.1712
99972W        W43025  23.047   5.079   3.944  0.1613  0.3494  0.1623
99973W        W43026   1.525   6.054  24.817  0.1026 -0.0386 -0.1720
99974W        W43027  21.467  25.371  14.658 -0.0300  0.0975  0.0029
99975W        W43028  30.191   4.650   2.194 -0.0292 -0.2999  0.0858
99976W        W43029  26.811  16.083   2.899  0.0415  0.1961 -0.2943
99977W        W43030  32.585   8.868   7.050 -0.0559  0.1845 -0.0400
99978W        W43031  18.028   0.524   1.218 -0.1262  0.1974  0.1663
99979W        W43032  30.601   5.296   4.808 -0.2599 -0.0552  0.0148
99980W        W43033  14.962  29.911   6.349 -0.0534 -0.1854 -0.0619
99981W        W43034  31.820   0.973  25.030 -0.0060 -0.2143 -0.1346
99982W        W43035  25.218   9.952   1.383 -0.1581  0.1997 -0.0683
99983W        W43036  13.277   1.069  18.226 -0.0855  0.0874  0.1643
99984W        W43037  31.180  26.049   6.461  0.0231  0.0271  0.1245
99985W        W43038  24.583  18.620  18.980 -0.0490 -0.4247 -0.0255
99986W        W43039  15.308  10.769  28.793  0.4537  0.0151  0.0987
99987W        W43040  26.205   4.605  26.006 -0.1118  0.3226 -0.0336
99988W        W43041  27.721  30.095  25.601  0.1122  0.0878 -0.0153
99989W        W43042  17.845   5.601   3.592 -0.2143  0.0725  0.0624
99990W        W43043  21.363  28.646   8.232  0.1877  0.0022  0.0662
99991W        W43044  21.767  14.124  22.870 -0.2367 -0.2276 -0.0424
99992W        W43045  26.168   1.374  14.384  0.0850 -0.1447 -0.1534
99993W        W43046  27.812  18.104   1.082 -0.0036 -0.2383  0.0226
99994W        W43047   3.767  33.652   6.893 -0.1578 -0.0018  0.0125
99995W        W43048  20.107  32.609   5.091  0.2308 -0.1300  0.1235
99996W        W43049  21.526  28.394   5.645  0.0248  0.0978 -0.0694
99997W        W43050  25.547  26.767  18.856 -0.0418  0.0235 -0.2461
99998W        W43051  18.950   6.086   9.959  0.2746  0.0226  0.0168
99999W        W43052   8.831   7.618  18.908  0.1520 -0.0659  0.3914
    0W        W43053   5.701   9.363   3.977  0.0663 -0.0212 -0.0932
    1W        W43054  29.858  21.849   1.877 -0.0447 -0.3540 -0.1916
    2W        W43055  20.205  12.760  18.959  0.0695 -0.2429 -0.1304
    3W        W43056  15.870   5.319  25.053  0.0833 -0.5708  0.0566
    4W        W43057   2.359  12.344   9.582  0.1834  0.2579 -0.1946
    5W        W43058  26.927   4.095  26.482 -0.3411  0.2201  0.1134
    6W        W43059  21.362   0.188  25.335  0.0873 -0.0019 -0.0214
    7W        W43060  34.016  25.844   3.976 -0.2322  0.0101  0.2409
    8W        W43061  16.715  29.982   7.069  0.1326 -0.1103  0.0570
    9W        W43062  26.425   0.038   7.789  0.0744 -0.1738  0.0844
   10W        W43063   0.272  32.744   1.108 -0.2937 -0.0731 -0.0245
   11W        W43064  24.910   6.701   9.728  0.0576 -0.2165  0.0914
   12W        W43065  24.964  33.531   2.377 -0.1042  0.0342  0.0426
   13W        W43066  30.863   1.770   8.485 -0.0906 -0.0427  0.1213
   14W        W43067  26.689  32.562   8.235 -0.0146 -0.0277 -0.2032
   15W        W43068  33.897   6.621   2.817  0.0041  0.0640 -0.0381
   16W        W43069  16.022   5.048  21.903 -0.0163  0.1523 -0.0603
   17W        W43070  24.971  17.018  19.711 -0.0681  0.1953 -0.0673
   18W        W43071  15.235  34.372   6.591  0.2558 -0.1123 -0.2739
   19W        W43072  23.812   7.629  27.755 -0.0008  0.1123 -0.1452
   20W        W43073  16.897  16.953   7.392  0.1345  0.2829 -0.0249
   21W        W43074  26.257   2.546  28.230 -0.2776 -0.3843 -0.0466
   22W        W43075  13.755  34.356  20.429 -0.0610  0.1057  0.0979
   23W        W43076  18.030  30.738   7.311 -0.3151 -0.1335 -0.0521
   24W        W43077  10.656   0.777  28.737  0.0121 -0.0624 -0.1245
   25W        W43078  15.636  25.496   1.502 -0.2332 -0.0825  0.0562
   26W        W43079  30.690   1.931   6.756  0.0869 -0.1113 -0.0550
   27W        W43080  18.900  30.174   5.079 -0.1532 -0.1787  0.0440
   28W        W43081  22.592   5.872  24.268  0.2181  0.1103 -0.1862
   29W        W43082   0.650  14.578  19.845 -0.0422 -0.0785 -0.1235
   30W        W43083  20.543   3.694  17.202 -0.0197 -0.0475 -0.1765
   31W        W43084  23.999  33.444   1.650 -0.1751  0.0442  0.2787
   32W        W43085  20.135  29.286  20.602 -0.1303 -0.3196  0.0091
   33W        W43086  15.489  14.329  28.126  0.2247 -0.0775  0.2510
   34W        W43087  10.013  31.051  14.213 -0.3610  0.4638  0.2280
   35W        W43088  25.868   4.748   1.647 -0.1231  0.0271 -0.3828
   36W        W43089  20.776  27.005   2.737  0.0140  0.2474  0.3071
   37W        W43090  34.362   4.453  13.707  0.1331 -0.0442 -0.3657
   38W        W43091  14.851   7.425  22.915 -0.1096 -0.0797  0.0740
   39W        W43092  26.971   7.761  28.881 -0.0047  0.1359  0.2509
   40W        W43093  32.182  14.443   5.579  0.2807 -0.0078 -0.2648
   41W        W43094  33.368  26.459   8.994  0.1552  0.1198 -0.1866
   42W        W43095  17.843  30.375  17.316 -0.4294 -0.0275 -0.0876
   43W        W43096  13.609  17.379  14.928  0.1102  0.3133  0.1084
   44W        W43097  17.334   9.518   4.115 -0.2146 -0.1135 -0.1173
   45W        W43098   0.456  10.122  25.926  0.0748 -0.1951 -0.2129
   46W        W43099  30.051   6.451  15.992 -0.2986 -0.3590  0.0927
   47W        W43100  15.213   9.255  18.018  0.0207  0.0958 -0.1826
   48W        W43101   1.632   8.611  20.870  0.2765  0.1111 -0.1818
   49W        W43102  22.927   6.313  21.658 -0.3214 -0.1672 -0.3500
   50W        W43103  33.951  16.056  20.256 -0.1272 -0.0294 -0.0952
   51W        W43104  14.834   4.373  20.238  0.3837 -0.0377  0.1020
   52W        W43105  23.976  19.877  18.933  0.3729 -0.0811  0.1887
   53W        W43106  21.693   6.388   3.038 -0.0895 -0.0049 -0.0378
   54W        W43107  19.739   7.965  22.428 -0.1328 -0.1078  0.4163
   55W        W43108  22.364   6.747  24.224  0.1214 -0.3297  0.1381
   56W        W43109  16.875  18.136  14.085 -0.1613  0.0384 -0.2573
   57W        W43110  16.016  18.283  13.564  0.0504  0.2106  0.2752
   58W        W43111  31.229   8.505  17.851 -0.0319 -0.2685 -0.3702
   59W        W43112  17.778  30.093  16.324  0.1149 -0.1305 -0.1580
   60W        W43113  25.218   3.225  15.407  0.2431 -0.0400 -0.0923
   61W        W43114   6.785  23.469  22.320 -0.0768  0.2529  0.1404
   62W        W43115  12.661  28.095  19.557 -0.2372 -0.3238 -0.2526
   63W        W43116  28.794  12.952   2.506 -0.1248  0.0073 -0.0063
   64W        W43117   6.853   0.262   5.216 -0.1112  0.1877 -0.0560
   65W        W43118  28.424   6.841   5.951  0.1533 -0.2572  0.0984
   66W        W43119  24.366  10.379  15.497 -0.3246 -0.0012  0.0504
   67W        W43120  31.219   1.125  20.003  0.1958  0.0249  0.2697
   68W        W43121  26.830  32.754  16.340  0.0354  0.0106  0.1200
   69W        W43122  10.420  28.383  23.695  0.0398 -0.2598  0.2083
   70W        W43123   0.272  16.525  25.380  0.1809  0.1293  0.0488
   71W        W43124  18.812  30.968  22.812  0.1825 -0.0681 -0.1839
   72W        W43125  21.366  28.310  18.057 -0.3358 -0.3135 -0.2043
   73W        W43126  25.778   0.776  20.290  0.2492  0.2493  0.0601
   74W        W43127  16.026   4.182  16.549  0.2632  0.0114 -0.0129
   75W        W43128   8.785  29.346  20.173 -0.1277  0.2059  0.2444
   76W        W43129  24.682   8.514  25.063  0.1111  0.1863 -0.3386
   77W        W43130  30.302  31.499  24.112 -0.1782 -0.0864 -0.1694
   78W        W43131  19.030  33.143  17.694  0.0779  0.0977 -0.0717
   79W        W43132   3.555  11.771  27.248  0.1086 -0.1646 -0.1119
   80W        W43133  19.641  29.739   6.046  0.2022 -0.1786  0.2913
   81W        W43134  30.997  12.022  18.944  0.1270  0.0382 -0.3123
   82W        W43135  28.982  13.839  18.052 -0.0046  0.2162 -0.0132
   83W        W43136  29.717   3.487  20.885 -0.0564  0.0254 -0.2656
   84W        W43137  15.540   8.781  20.400  0.3434  0.1829  0.1317
   85W        W43138  26.944  16.749  21.267 -0.0752  0.0193  0.4565
   86W        W43139  10.062   2.884   5.675 -0.2999 -0.1896  0.0505
   87W        W43140  34.251   2.646  17.903 -0.1316 -0.1819 -0.0251
   88W        W43141   2.018   5.304  15.652 -0.4403 -0.1595 -0.1255
   89W        W43142   7.630  18.802   2.845  0.1979  0.0203 -0.0406
   90W        W43143   4.575  23.800  14.690  0.0035 -0.3801  0.0707
   91W        W43144  25.538  11.650   1.007  0.1899 -0.0912  0.2226
   92W        W43145  30.119  10.161  26.581 -0.1662  0.1376 -0.1724
   93W        W43146   9.602   5.505   2.557 -0.2696  0.1403  0.0214
   94W        W43147  26.248   3.772  19.611  0.1751  0.0674  0.0465
   95W        W43148  31.030  13.939  25.602  0.2497  0.1520  0.0257
   96W        W43149  29.366  11.340  20.179  0.0925 -0.0983 -0.1400
   97W        W43150   2.794   0.831  13.981  0.0930 -0.0611  0.0072
   98W        W43151  32.889  34.472  19.711 -0.1978 -0.0420  0.1640
   99W        W43152   1.473   5.311  13.807  0.2143 -0.0289  0.1275
  100W        W43153  14.114   1.638  28.409 -0.0992  0.3222  0.2570
  101W        W43154  31.659   9.231  19.621 -0.1646 -0.0134  0.0233
  102W        W43155  20.168  34.537  23.191  0.1702 -0.0709  0.0808
  103W        W43156  17.470   7.663  18.830 -0.2845  0.2601  0.0566
  104W        W43157  14.690  27.745  16.473 -0.1238 -0.1727 -0.0717
  105W        W43158  32.916   5.077  26.508 -0.1644 -0.0707 -0.4043
  106W        W43159  23.996  30.357   9.685  0.1862  0.0351  0.0783
  107W        W43160  25.117  28.735  19.933 -0.0946 -0.1625  0.1481
  108W        W43161   8.727   3.743  19.867 -0.0389 -0.2165 -0.0425
  109W        W43162  10.062   5.560  15.155  0.1375 -0.1648 -0.1700
  110W        W43163  11.266  24.710   1.665  0.0844  0.2446  0.1508
  111W        W43164  17.308   4.832  16.550 -0.2258  0.2247  0.1532
  112W        W43165  28.175  12.409  14.689  0.3703 -0.2314  0.0919
  113W        W43166  21.808  26.825  24.011 -0.0730  0.2432 -0.4369
  114W        W43167   1.857  34.646  27.288 -0.1023 -0.2254  0.1418
  115W        W43168   6.281  18.142  18.171  0.0036 -0.0742  0.1796
  116W        W43169   0.180   3.325   5.592  0.1865  0.2578  0.3060
  117W        W43170   0.278  33.117  17.472 -0.4684 -0.0468 -0.0475
  118W        W43171  13.775  24.881   2.353  0.1016  0.1731  0.0230
  119W        W43172   4.396  10.701  16.009 -0.1136  0.0675  0.0062
  120W        W43173   2.501  15.573  13.724  0.1346 -0.1358 -0.3037
  121W        W43174  13.989   3.827  18.461 -0.5000 -0.6711 -0.3747
  122W        W43175  24.218  10.623  26.218 -0.3691  0.2528  0.2315
  123W        W43176  27.547   7.301  18.458  0.1638  0.0467  0.2579
  124W        W43177  33.389  14.395   4.709  0.1255  0.1190 -0.0399
  125W        W43178  22.512   7.128   1.502 -0.0044 -0.2633 -0.0453
  126W        W43179   3.466  18.577  13.345  0.1025 -0.1089  0.3563
  127W        W43180  25.202   4.742  27.597 -0.0122  0.0602  0.0571
  128W        W43181  32.287   3.286  27.128  0.1008  0.3349 -0.0178
  129W        W43182   4.093   2.274  18.634 -0.0895  0.2324 -0.0561
  130W        W43183  16.406  32.867  14.754 -0.1737 -0.3009  0.5477
  131W        W43184   8.873   2.933  21.895 -0.1765 -0.1388 -0.3788
  132W        W43185  24.104  16.221  28.665  0.0122  0.1908  0.0628
  133W        W43186  26.308  10.159  17.463  0.1074  0.0329  0.0787
  134W        W43187  13.457   2.734  25.164  0.0969 -0.2384  0.1735
  135W        W43188  10.565  30.573  28.351 -0.5497 -0.0216 -0.1100
  136W        W43189  24.313  29.654  14.539 -0.0449 -0.0951 -0.1741
  137W        W43190  30.682  29.456  28.668 -0.1031  0.0443 -0.1948
  138W        W43191  27.080  11.817  19.042 -0.0003 -0.3822 -0.1082
  139W        W43192  33.367   3.004  16.093  0.3604  0.0394  0.0850
  140W        W43193  25.452  30.846  18.912  0.0545  0.0773  0.2912
  141W        W43194  17.879   5.723  16.826 -0.1788  0.1536 -0.2150
  142W        W43195  10.740  31.683  20.003 -0.0701  0.0548  0.1323
  143W        W43196  26.998   0.683  16.462  0.0744  0.0028 -0.2148
  144W        W43197  33.259   8.599  23.227 -0.0640 -0.3154  0.2062
  145W        W43198  29.687  20.866  15.317 -0.0225 -0.2322  0.5428
  146W        W43199  32.195  13.414  22.649 -0.1218  0.0279  0.1038
  147W        W43200   7.616  11.536   5.746  0.2672  0.3956  0.1474
  148W        W43201  18.156  34.248  21.967  0.2215 -0.2144 -0.0533
  149W        W43202  24.162   9.466  14.368 -0.0395  0.0666  0.0031
  150W        W43203  16.603  19.556  13.759 -0.3352 -0.2478 -0.0933
  151W        W43204  29.188  32.749  18.748  0.1821 -0.3059  0.3980
  152W        W43205   2.312   5.336  26.090  0.0339  0.2939  0.0806
  153W        W43206  33.371   7.346  18.422 -0.1141 -0.0924  0.0675
  154W        W43207   2.922   0.529  19.377  0.4406  0.1331 -0.1752
  155W        W43208   5.870  27.601  27.368 -0.1755 -0.1135  0.0015
  156W        W43209  32.773   3.678  19.156  0.2499  0.1331  0.1078
  157W        W43210  18.480  11.431  25.153 -0.0126  0.0539  0.0782
  158W        W43211  15.421  26.342  18.874  0.2360 -0.0894 -0.0387
  159W        W43212  19.975  18.030  26.669 -0.0083  0.3999  0.1423
  160W        W43213  25.713  17.193  16.917 -0.0537  0.1737  0.3993
  161W        W43214   1.776  29.318   4.311  0.2337 -0.0624  0.0280
  162W        W43215  20.941  16.573  21.641  0.1617 -0.0778  0.0655
  163W        W43216  18.246   5.664  16.262 -0.0928 -0.4535 -0.3443
  164W        W43217  21.464  17.678  22.178 -0.0967 -0.2558  0.1353
  165W        W43218  15.506   2.512  26.767  0.2322  0.1687 -0.0452
  166W        W43219  25.494   7.607  14.895  0.2620 -0.2824 -0.0828
  167W        W43220  17.766  10.454  21.514  0.2416  0.0212 -0.1876
  168W        W43221  30.184  31.532   4.060 -0.3992  0.2389  0.0629
  169W        W43222  16.069  32.361  19.198  0.3096 -0.0369  0.0982
  170W        W43223  10.006  29.739  27.894 -0.0227  0.4088  0.2253
  171W        W43224  19.420  16.653  12.507  0.0412 -0.0355 -0.2987
  172W        W43225  28.954  31.722  17.646 -0.0458 -0.1143  0.0990
  173W        W43226  23.392  11.608  15.488  0.2679 -0.0013 -0.4017
  174W        W43227  30.199  27.141  18.815  0.3649 -0.1116 -0.2771
  175W        W43228  25.109  15.443  16.509  0.2782  0.1412  0.1971
  176W        W43229  25.345   9.210  19.844  0.1043 -0.1956 -0.0086
  177W        W43230  13.331  28.270  24.341  0.0972  0.1133  0.0315
  178W        W43231  24.444   6.557  15.922  0.2685 -0.3144 -0.0640
  179W        W43232   1.571  28.921  20.113 -0.1235  0.3048  0.0704
  180W        W43233   4.262   4.581  23.731 -0.1248 -0.2165  0.0640
  181W        W43234  34.273   8.368  25.261 -0.3294 -0.0026 -0.0424
  182W        W43235  30.146   0.274  16.363 -0.1644  0.0581  0.0839
  183W        W43236  28.316   8.045  16.463 -0.0689  0.0154 -0.0362
  184W        W43237  11.918   9.805  25.026 -0.0883 -0.0841  0.0810
  185W        W43238  23.763   6.093   5.036 -0.0120  0.0622  0.1920
  186W        W43239  18.233   1.926  17.752 -0.0479  0.0783  0.1424
  187W        W43240   8.454   2.166  24.007  0.0729 -0.4216  0.1389
  188W        W43241  21.961  15.569  25.932 -0.4232  0.0504  0.1840
  189W        W43242  22.259  21.608  22.085  0.1830 -0.1847 -0.3276
  190W        W43243   2.891  34.033  19.034  0.0932 -0.2568 -0.0292
  191W        W43244  19.197  27.272  24.432  0.0011 -0.3518 -0.2464
  192W        W43245  30.752  17.531  24.456  0.0176 -0.0113 -0.1382
  193W        W43246  29.512  10.416  19.214  0.2182 -0.1140  0.2104
  194W        W43247  25.828  28.457  19.486 -0.1856 -0.0178  0.0905
  195W        W43248  14.319   0.040  23.452 -0.1833  0.2129 -0.0169
  196W        W43249  19.953   7.451  16.511  0.1855 -0.2162 -0.2573
  197W        W43250  13.928  18.410  14.090 -0.2188 -0.0678  0.0183
  198W        W43251   4.209  10.497  15.160  0.1295  0.2268  0.0733
  199W        W43252  19.038   3.543  15.257 -0.0683  0.2142 -0.3167
  200W        W43253  30.643  11.119  17.526  0.5917 -0.1490  0.0652
  201W        W43254  18.115  32.082  20.331 -0.1208 -0.2109  0.3260
  202W        W43255  16.070   6.351  23.747 -0.1798 -0.0774 -0.0620
  203W        W43256  32.734  10.121  29.201 -0.0466 -0.1402 -0.1750
  204W        W43257  26.805   4.891  24.953 -0.3342  0.2154 -0.1088
  205W        W43258  34.582  15.310  14.730 -0.1417 -0.0306 -0.0158
  206W        W43259  13.600  27.611  18.686 -0.1678 -0.0383  0.1410
  207W        W43260  20.492   7.167  13.675  0.2919  0.2146 -0.0080
  208W        W43261  12.091   3.613   2.721 -0.1648  0.2579 -0.1112
  209W        W43262  17.937  13.770  15.497 -0.0059 -0.2500  0.0488
  210W        W43263  23.416   1.802  23.251 -0.3429 -0.1826  0.2290
  211W        W43264  12.523  29.322  24.829 -0.0107 -0.1291  0.3544
  212W        W43265  31.703   4.799  16.105 -0.3625  0.0938 -0.1971
  213W        W43266   3.901  30.873  26.748 -0.0429  0.1715 -0.0666
  214W        W43267   2.529   4.257  17.536 -0.1463  0.2591 -0.0293
  215W        W43268  23.856  13.108   3.717  0.0795  0.2259 -0.0907
  216W        W43269   1.350   7.431  14.542  0.2022  0.2910 -0.1436
  217W        W43270  22.511  22.917  16.573 -0.2339 -0.1701 -0.1633
  218W        W43271  33.757  11.717   1.526 -0.1050 -0.0001  0.1280
  219W        W43272  30.234   0.167  23.965 -0.1638  0.2434 -0.1845
  220W        W43273  30.232   5.932   5.718 -0.0998 -0.0750 -0.2329
  221W        W43274  14.014  32.404   1.040 -0.0789 -0.1296  0.3684
  222W        W43275  14.852   1.045  21.864  0.0768  0.1201 -0.1167
  223W        W43276  19.362   8.906  17.862  0.1432  0.1519  0.2055
  224W        W43277  25.396  28.751  14.111  0.1805  0.1318 -0.2876
  225W        W43278  23.753   0.283  25.450 -0.0207  0.0416 -0.1000
  226W        W43279  19.211   8.463  17.468 -0.0087 -0.2708 -0.1574
  227W        W43280  20.558   9.890  14.464  0.2426 -0.0894 -0.1312
  228W        W43281  26.606   5.684  27.420 -0.1474 -0.0066  0.3499
  229W        W43282   0.522  16.018  21.132 -0.2803  0.2488  0.1448
  230W        W43283  16.544  14.677  28.247  0.2722 -0.3670 -0.0940
  231W        W43284  20.736  13.995  26.364  0.0409 -0.1620  0.4618
  232W        W43285   1.479  33.997  14.140 -0.0535 -0.1189 -0.1122
  233W        W43286  24.245   1.027  13.923  0.1518  0.2010 -0.2350
  234W        W43287  17.677   1.004  17.535  0.1802 -0.2441 -0.2759
  235W        W43288  20.922  16.504  14.136  0.1687 -0.3336  0.1672
  236W        W43289  32.993  29.442   1.356  0.1478 -0.0781 -0.2915
  237W        W43290  26.936   0.981  16.907  0.2617 -0.2123 -0.2542
  238W        W43291  16.271   0.117   0.617  0.0568  0.0458  0.0990
  239W        W43292   7.417  25.886  21.676  0.0662 -0.0596 -0.2692
  240W        W43293  18.152   1.971  23.481 -0.1988 -0.0292  0.4112
  241W        W43294  30.519   2.140  21.987  0.0034  0.1720  0.0912
  242W        W43295  23.394   3.709  15.785  0.2917 -0.3652  0.0306
  243W        W43296  30.720   7.796  17.293 -0.2574  0.1975 -0.1906
  244W        W43297  18.597   9.493  16.751 -0.0695  0.0623 -0.3165
  245W        W43298   6.560  10.348  28.886 -0.1194  0.2667 -0.0064
  246W        W43299  29.050   8.542  15.206  0.1190  0.2129  0.1823
  247W        W43300  25.985  28.737   4.471  0.4189 -0.4080  0.1972
  248W        W43301  26.896   9.896  15.652  0.0390  0.0357 -0.2164
  249W        W43302  32.339   7.200  25.514 -0.5382 -0.3494 -0.0663
  250W        W43303  19.267  10.784  23.358  0.0200  0.2751 -0.0940
  251W        W43304  29.006  21.850  17.539 -0.0377  0.1480 -0.0536
  252W        W43305  22.031   2.840  17.468  0.3182 -0.3391 -0.0234
  253W        W43306  25.982  32.685   2.235  0.0197 -0.2222  0.0049
  254W        W43307  20.223  10.970  18.659  0.1362  0.3348  0.0711
  255W        W43308  20.692   7.733  27.400  0.1362 -0.0762 -0.0951
  256W        W43309   8.497  26.844  15.342  0.0543 -0.1203  0.0759
  257W        W43310  16.289  28.723  14.729 -0.0674 -0.2233  0.1023
  258W        W43311  12.035  21.444  17.163  0.0588  0.0479 -0.0810
  259W        W43312  32.509   0.982  16.827  0.4675 -0.0981  0.2304
  260W        W43313  19.378   7.839  22.673  0.1408 -0.2229 -0.0383
  261W        W43314  26.307   4.456  15.116  0.2983  0.3863  0.0605
  262W        W43315   1.381   3.979  18.844  0.1209  0.2679  0.1208
  263W        W43316  23.088   5.497  18.311  0.0589 -0.1664  0.2101
  264W        W43317  10.622  10.110  21.429  0.0783 -0.0192 -0.1395
  265W        W43318   3.876  15.617   0.500 -0.0440 -0.0638  0.1790
  266W        W43319  14.205   8.820  19.804 -0.1761  0.1577  0.0458
  267W        W43320  26.512  23.592  25.329  0.1034 -0.2973  0.1253
  268W        W43321   1.954  24.466  21.993 -0.1793  0.0602 -0.1159
  269W        W43322  26.315  33.041  16.981 -0.1581 -0.1395  0.3720
  270W        W43323  16.252   4.664  15.436 -0.0598  0.1793 -0.3396
  271W        W43324  21.204   5.978  26.180  0.2996  0.3293 -0.0453
  272W        W43325  24.797  24.720  24.266 -0.3459 -0.1036  0.0023
  273W        W43326  20.127  14.193   7.820  0.0837 -0.0629  0.0950
  274W        W43327  31.785  11.856  17.707 -0.1760 -0.0738 -0.1286
  275W        W43328  18.500  13.521  21.936 -0.1932 -0.3533  0.1581
  276W        W43329  33.922   9.609  18.995 -0.0362  0.0426 -0.0498
  277W        W43330  24.980  14.656  17.135  0.2619  0.0675 -0.0926
  278W        W43331   2.395   1.196  27.464 -0.0499 -0.0042 -0.3490
  279W        W43332  25.776  19.290  17.756  0.1763 -0.2272  0.1581
  280W        W43333   4.381  28.280  13.418  0.1189 -0.1226  0.0714
  281W        W43334  31.310  33.555  27.519 -0.1707 -0.2110  0.0165
  282W        W43335  23.985   5.766  16.194 -0.4452  0.1238  0.2540
  283W        W43336  28.600   2.860  15.553 -0.1896  0.0928 -0.3130
  284W        W43337  25.729  14.934  20.854 -0.0393  0.1829  0.1269
  285W        W43338  18.510   4.702  23.667  0.2577  0.0211  0.1250
  286W        W43339  16.327   1.327  22.929 -0.0158 -0.2683  0.2638
  287W        W43340  19.165  31.215   7.358  0.2596 -0.1463 -0.0172
  288W        W43341  31.045  26.582  22.149  0.0939  0.2782  0.1206
  289W        W43342  22.447   4.880  18.233  0.1361  0.1087 -0.0996
  290W        W43343   4.367  19.099   3.067 -0.2673  0.0181  0.2966
  291W        W43344  22.027   0.935   7.853  0.1135 -0.0102 -0.1398
  292W        W43345  27.769   4.900  14.581  0.2796 -0.0782  0.0886
  293W        W43346  18.441   0.938  23.382  0.0719  0.0142  0.3552
  294W        W43347  16.440  10.356  26.228  0.1374  0.4685 -0.0074
  295W        W43348  32.010   2.519  27.775  0.2684 -0.1115 -0.1946
  296W        W43349  14.595  19.955  15.980  0.1203 -0.1846  0.0097
  297W        W43350  21.329  14.784  15.821 -0.1080  0.2632 -0.0810
  298W        W43351  31.802   8.071  29.027 -0.0331  0.1835  0.3747
  299W        W43352   1.234  11.913  15.813  0.0690  0.1811  0.0903
  300W        W43353  34.582  21.827  14.578 -0.1335  0.1505  0.3273
  301W        W43354  22.454  29.985  18.800  0.0539  0.5495  0.0563
  302W        W43355   3.357   3.427  18.022 -0.2089 -0.0821 -0.0339
  303W        W43356  31.963   7.681  16.611 -0.0408 -0.1739  0.0647
  304W        W43357   1.545  32.537  27.248  0.1584  0.0855  0.0876
  305W        W43358  15.345  30.757  14.810  0.2995  0.3761  0.1270
  306W        W43359  11.053  23.718  14.889 -0.1457  0.0458  0.1376
  307W        W43360  27.076  20.441  16.873  0.0456 -0.2304  0.0739
  308W        W43361  24.298   3.590  16.024 -0.1877 -0.0817  0.2625
  309W        W43362   9.723  15.609   6.683  0.1349  0.0133  0.1095
  310W        W43363  31.544  31.123  14.240  0.0928  0.0335 -0.0980
  311W        W43364   5.705   3.426  18.770  0.1772  0.0223  0.2189
  312W        W43365  30.747   1.748  17.399 -0.0988  0.0223  0.1588
  313W        W43366  13.514   2.621  17.028 -0.1323 -0.1571  0.1202
  314W        W43367  32.460   2.675  23.914 -0.1263  0.0422  0.0210
  315W        W43368  26.659  12.450  14.475  0.0484  0.0907  0.1704
  316W        W43369  29.334   9.137  21.640  0.0762  0.2339 -0.1674
  317W        W43370   1.699  16.069   1.004  0.3363  0.1056  0.2541
  318W        W43371  24.786   8.382  24.491  0.1755 -0.0416  0.4276
  319W        W43372  27.345  12.052  16.895  0.0247  0.1381 -0.2661
  320W        W43373  31.567  20.165  26.992  0.1932  0.2909 -0.1697
  321W        W43374  32.327   0.524  13.472 -0.3124 -0.0926 -0.1511
  322W        W43375  33.641  31.789  17.379  0.2284  0.2428  0.3501
  323W        W43376  22.581  19.880  19.316  0.0273 -0.0902  0.4652
  324W        W43377  30.928  30.317  22.357  0.0970 -0.0562  0.0191
  325W        W43378  31.848  14.538   3.789  0.2162 -0.0949  0.2303
  326W        W43379  10.621   0.181  24.426  0.2236 -0.1084 -0.0113
  327W        W43380   8.254  28.283  14.486  0.1418 -0.0861  0.1120
  328W        W43381   6.898  16.726  17.229  0.1234  0.0036  0.0881
  329W        W43382   1.305  13.683  18.255 -0.1393  0.4097  0.2458
  330W        W43383  21.795  12.462  19.315  0.4419  0.0378  0.1145
  331W        W43384  19.031   3.051  16.328  0.0612 -0.0133 -0.0364
  332W        W43385   4.956  18.294  13.987  0.1050  0.2412 -0.0586
  333W        W43386  21.084  10.717  15.770  0.1397 -0.1145  0.1999
  334W        W43387  29.775  13.038  20.823  0.1803  0.2487 -0.1925
  335W        W43388   0.268   6.323  23.654 -0.1877 -0.2953 -0.1614
  336W        W43389  21.244  12.972  21.641  0.2503  0.4911 -0.0753
  337W        W43390   6.129   3.271  21.750  0.0130  0.1217  0.1112
  338W        W43391  29.474  20.361  14.063  0.4737 -0.0444 -0.0177
  339W        W43392   1.030  11.162  22.101  0.2929 -0.2360 -0.1701
  340W        W43393   6.111  29.051  13.040 -0.1680  0.2951 -0.1714
  341W        W43394  22.476  14.191  14.036 -0.0812 -0.3094  0.0284
  342W        W43395  23.906   6.176  29.200 -0.2371 -0.3201 -0.3438
  343W        W43396  14.925  23.447  21.018  0.1186  0.1378 -0.0369
  344W        W43397  16.891   9.387   1.633 -0.1518 -0.2262 -0.3047
  345W        W43398  13.549  26.993  18.803  0.0688  0.0427  0.3136
  346W        W43399  28.715   8.033  20.388 -0.0510 -0.4018  0.2681
  347W        W43400  22.116   1.873  25.060 -0.0418 -0.0415  0.0311
  348W        W43401  20.182   4.199  25.210 -0.2082  0.2662  0.0360
  349W        W43402   9.847   1.545   2.269 -0.0528  0.0449  0.0552
  350W        W43403   6.069  14.577  18.338  0.2466 -0.0650  0.0710
  351W        W43404  21.641   4.701  17.076  0.1767  0.1376 -0.1562
  352W        W43405  29.313   2.430  20.041  0.2550 -0.0337  0.0681
  353W        W43406  10.715  33.479   0.975 -0.0563 -0.0845  0.0046
  354W        W43407  33.478   6.700  27.739  0.1629  0.4098  0.0448
  355W        W43408  23.846   9.293  10.284  0.0978  0.4607  0.0947
  356W        W43409  20.393  26.449  26.061  0.0665 -0.0073 -0.0229
  357W        W43410  12.032   8.096   1.156  0.0626  0.2427  0.0517
  358W        W43411  25.251  23.302  28.867  0.0326 -0.3453 -0.0942
  359W        W43412  26.983  17.992  17.843  0.0414  0.0574  0.0181
  360W        W43413  23.751  30.895   4.369 -0.1796 -0.2584  0.1965
  361W        W43414  29.240   2.333  23.897 -0.0016 -0.0535 -0.2359
  362W        W43415   6.009   7.424  18.851  0.2327 -0.0613 -0.2013
  363W        W43416  27.735  32.026  17.485 -0.2052 -0.0762 -0.3431
  364W        W43417  19.075  25.787  16.681 -0.2377  0.0218 -0.3689
  365W        W43418  21.422   2.243  20.141 -0.2316 -0.1408 -0.3174
  366W        W43419   4.151   7.236  20.042 -0.4442 -0.1631 -0.2969
  367W        W43420  12.104  10.242  16.214 -0.0334  0.0645 -0.0050
  368W        W43421  30.897  12.693  21.691  0.0624  0.2379 -0.1119
  369W        W43422  10.384  29.479  19.733  0.0416  0.0317 -0.3795
  370W        W43423  25.917  24.322  19.556  0.0415 -0.0452 -0.0892
  371W        W43424  30.155  11.189  21.398 -0.0930 -0.0272  0.1507
  372W        W43425  32.807   7.812  26.856  0.0468  0.0054 -0.3179
  373W        W43426  24.640  11.384  27.110  0.1978  0.1482  0.1585
  374W        W43427  15.750  33.339  20.206 -0.1952  0.0945 -0.0425
  375W        W43428  34.523  14.446   0.445 -0.1892 -0.0507  0.0029
  376W        W43429   3.322   8.419   1.601  0.0511 -0.1097  0.0325
  377W        W43430   7.964   2.585  17.272  0.3203  0.0460 -0.0820
  378W        W43431  28.370  23.093  19.788  0.0733 -0.1907 -0.0454
  379W        W43432  32.949  10.919  22.522  0.1168  0.2131 -0.0551
  380W        W43433  20.718  23.254  18.056  0.1698 -0.1091  0.0405
  381W        W43434  14.029  27.213  13.813 -0.0412  0.1564  0.0156
  382W        W43435  28.637  30.585   0.678 -0.3859 -0.0278  0.1178
  383W        W43436  23.843   0.841  16.741 -0.1583 -0.3691  0.1598
  384W        W43437  30.015   8.946  14.566 -0.1340  0.0601 -0.0553
  385W        W43438  20.257  19.744  19.772 -0.0122 -0.0273 -0.0593
  386W        W43439  20.729  28.272  22.758 -0.1492 -0.1467  0.0275
  387W        W43440  31.770   4.813  21.481  0.0442  0.0234  0.0830
  388W        W43441  26.335  31.540  25.909  0.1499 -0.1148 -0.2709
  389W        W43442  20.245   8.906  20.888 -0.0692  0.2985 -0.1519
  390W        W43443  30.963  21.030  17.709 -0.0529  0.1345  0.2460
  391W        W43444  22.247   0.478  19.076  0.5215 -0.1850 -0.3132
  392W        W43445   1.828   4.439  20.641 -0.1939 -0.1212  0.2102
  393W        W43446  21.076   3.044  21.086  0.2193  0.2161  0.0471
  394W        W43447  17.020   8.326  22.156  0.1903  0.1381 -0.1440
  395W        W43448  10.740  29.080  27.271  0.0889  0.0278  0.3226
  396W        W43449   0.783   8.024  14.466 -0.0934 -0.2358  0.1884
  397W        W43450  32.876   7.679   7.623  0.1576 -0.0115 -0.0674
  398W        W43451  27.297  31.463   3.005  0.3205 -0.4816 -0.0770
  399W        W43452  25.099   2.765  14.944  0.1392  0.0059  0.1181
  400W        W43453  29.529   4.315  15.441  0.0625 -0.0580 -0.0033
  401W        W43454   6.499  24.537  20.876  0.1049 -0.2613  0.1660
  402W        W43455  19.964  11.853  23.111  0.2399  0.1266  0.1775
  403W        W43456   8.778  29.005  21.069  0.0660  0.1384  0.0944
  404W        W43457   1.340  31.264  25.133  0.0573  0.0759  0.2618
  405W        W43458  27.928  10.293  16.403  0.0129  0.0718  0.1461
  406W        W43459  31.502   1.326  15.927  0.0214  0.1442  0.0547
  407W        W43460   3.214   9.664  25.898  0.3008  0.3691  0.0553
  408W        W43461  23.719   6.607  17.620  0.2464  0.1569  0.1847
  409W        W43462  28.629   2.882  14.994  0.0524 -0.1858 -0.2994
  410W        W43463  18.625  15.553  14.725  0.0764  0.0293 -0.4325
  411W        W43464  14.540  12.271  24.485  0.2394  0.0454  0.0409
  412W        W43465  13.535   7.326  27.817  0.0160  0.2252  0.3668
  413W        W43466  18.878  13.191  24.723  0.4936  0.1376  0.1784
  414W        W43467  28.622  14.592  16.768  0.0982 -0.1471 -0.0167
  415W        W43468  22.877  12.084  16.987  0.2140  0.0898  0.1093
  416W        W43469  33.176  22.555  15.614  0.1654 -0.0426  0.0306
  417W        W43470  14.337   1.882  26.467 -0.4167  0.0188 -0.2799
  418W        W43471  16.707  17.023  14.780  0.1586  0.1617  0.0497
  419W        W43472  20.768   3.658  16.726 -0.1829 -0.0908 -0.2243
  420W        W43473  31.145  33.155  21.703 -0.1157  0.1586  0.0324
  421W        W43474  21.080  26.011  21.875  0.1762  0.0463  0.2927
  422W        W43475  22.252   7.774  21.305  0.2737  0.0066 -0.0741
  423W        W43476  27.238  12.134  18.315 -0.0339 -0.2987  0.0812
  424W        W43477  18.358  27.510  16.977 -0.1445 -0.3046 -0.2672
  425W        W43478  25.220  24.278  16.294  0.1268  0.2123 -0.0217
  426W        W43479   1.925  31.616  14.330  0.1798  0.2797 -0.0761
  427W        W43480   5.859  12.617  17.577  0.5249 -0.0416  0.0975
  428W        W43481  13.752  26.824  15.725  0.2464  0.0134 -0.1278
  429W        W43482  29.523   1.719  14.925 -0.0681 -0.0089  0.0005
  430W        W43483  31.918  30.804  18.411  0.0790  0.1172 -0.0497
  431W        W43484  32.205   7.323  22.826  0.0700 -0.0373 -0.1364
  432W        W43485  30.121  31.468  25.028  0.1219  0.0388  0.2083
  433W        W43486   8.184  13.544   9.004 -0.0683  0.0176 -0.0621
  434W        W43487  10.919  10.560  25.292 -0.1740  0.0497 -0.1477
  435W        W43488  28.870   0.487  23.892 -0.0983  0.0194  0.2211
  436W        W43489  20.600   4.473  28.535  0.3903 -0.1209 -0.0808
  437W        W43490   7.443  32.822  23.558  0.0071  0.0062 -0.2919
  438W        W43491  12.045   6.139  22.665  0.2164 -0.3533  0.0475
  439W        W43492  28.889  24.138   8.656 -0.2269 -0.1881 -0.0195
  440W        W43493   6.371   1.204  21.263  0.1381  0.1044 -0.0288
  441W        W43494  24.657  33.977   0.265  0.3642  0.2163 -0.2416
  442W        W43495  30.585   5.061  25.184  0.2138  0.2367 -0.4122
  443W        W43496  16.710  25.776   5.254  0.3159 -0.2182  0.0085
  444W        W43497  26.822  14.705  24.478  0.2060  0.1802  0.0298
  445W        W43498  22.760  31.029  18.162  0.2411 -0.0063  0.3122
  446W        W43499  17.148  32.360   4.258 -0.3177  0.0407  0.1200
  447W        W43500  22.039   3.510  19.499  0.3918 -0.1133  0.4230
  448W        W43501  20.329   4.060  22.700  0.0061  0.3895 -0.3035
  449W        W43502  23.602   7.059   1.385 -0.0605 -0.0740 -0.6342
  450W        W43503   1.339   6.257  24.277 -0.0884 -0.1846 -0.0337
  451W        W43504  25.648   5.766  16.153 -0.4100 -0.1030  0.1330
  452W        W43505  15.697  10.556  19.335 -0.0023  0.0420 -0.2885
  453W        W43506  16.490   3.149  26.090 -0.5582  0.0273  0.0731
  454W        W43507  30.250  34.589  22.153  0.1042 -0.0921 -0.1770
  455W        W43508  20.891  13.753  16.617 -0.1023  0.1269  0.0615
  456W        W43509  25.029   5.259   4.844  0.1295 -0.1169 -0.0582
  457W        W43510  15.181   4.524  22.041 -0.1577  0.0077  0.1472
  458W        W43511  22.832   5.930  15.739  0.0913  0.1429  0.1711
  459W        W43512  22.285  32.344  29.061  0.0707 -0.0290 -0.1373
  460W        W43513  28.095  21.922  24.711 -0.0885 -0.0758  0.0173
  461W        W43514  24.340  31.297  22.379 -0.2711 -0.0916  0.1446
  462W        W43515  11.963   5.592  23.665 -0.0202  0.0830 -0.0840
  463W        W43516   0.062  16.727  13.230  0.1848 -0.0286 -0.0869
  464W        W43517  29.475  14.397  23.742  0.1844 -0.0818  0.0057
  465W        W43518  18.098   8.717  15.975 -0.0432  0.2691  0.1053
  466W        W43519   0.109   5.536   1.107 -0.2750  0.6227  0.0598
  467W        W43520  15.744  18.050  15.193 -0.1693  0.0313 -0.0411
  468W        W43521   6.678   9.947  27.512  0.0828  0.0567 -0.0617
  469W        W43522   8.212  31.465  21.259 -0.1838 -0.0172  0.1482
  470W        W43523  25.900   6.552   0.330 -0.0259  0.0680 -0.0627
  471W        W43524  12.962   1.812  18.777  0.0332 -0.0475  0.1867
  472W        W43525  34.484  10.719   8.677  0.1592 -0.2058  0.1498
  473W        W43526  20.706   5.486  19.353 -0.1373 -0.1583 -0.0550
  474W        W43527  20.453   5.719  22.187  0.0695 -0.1040  0.0542
  475W        W43528  18.764   2.981  14.693 -0.2208  0.0242 -0.0745
  476W        W43529  19.216  30.887  25.490  0.0349 -0.2528 -0.0293
  477W        W43530  10.648   3.624  15.791  0.0523  0.2480 -0.1262
  478W        W43531  31.688   2.233  13.754 -0.4042  0.1209 -0.2130
  479W        W43532  22.029  16.406  23.801  0.1102  0.0299  0.1330
  480W        W43533  12.873  24.523  16.083  0.0605  0.0860  0.1875
  481W        W43534  26.255  10.697  26.336 -0.3732  0.0335  0.3645
  482W        W43535  11.161   6.980   6.616 -0.1838  0.1946 -0.0127
  483W        W43536   4.651  14.315  26.763  0.0985  0.0440 -0.1142
  484W        W43537   7.001  11.176   4.988  0.0003  0.0780 -0.0644
  485W        W43538  17.778   0.123   0.903 -0.0262  0.0724 -0.1441
  486W        W43539  33.269  32.645  28.765 -0.1237  0.2726 -0.0109
  487W        W43540   7.986  13.339  24.538  0.2855 -0.1808  0.2129
  488W        W43541  27.088  10.652  17.172  0.0057  0.0466  0.4018
  489W        W43542  17.236   7.622  15.815  0.1901 -0.0342 -0.3284
  490W        W43543  13.937  27.711  14.764 -0.1473 -0.2717 -0.4693
  491W        W43544   4.277  10.124  20.816  0.1186  0.5811  0.0696
  492W        W43545  16.282  28.791   0.247 -0.1378 -0.1960 -0.2911
  493W        W43546  12.648  10.504  21.781  0.3038  0.2374  0.0520
  494W        W43547  12.418  22.941  17.891 -0.1020  0.1093 -0.0989
  495W        W43548  27.738  31.984  21.483 -0.3250  0.0205  0.1247
  496W        W43549  15.393  11.126  24.178 -0.1275  0.0437  0.3428
  497W        W43550  21.375  19.773   3.855 -0.1880 -0.0356 -0.2771
  498W        W43551  16.697   0.451  23.304  0.1424  0.0210  0.0115
  499W        W43552  11.702   1.718  19.367  0.1478  0.3228  0.0663
  500W        W43553  24.078   9.896  21.992  0.3029  0.2854  0.0090
  501W        W43554   4.469  12.673  17.019 -0.0504  0.2945 -0.0376
  502W        W43555   4.659  30.650  23.952 -0.2605 -0.0925 -0.0008
  503W        W43556  20.375  13.751  21.149 -0.0264 -0.1256 -0.0136
  504W        W43557  30.171   0.176  20.284 -0.3660  0.1298  0.1923
  505W        W43558  18.321   8.396  21.445 -0.0005  0.2424 -0.0883
  506W        W43559  29.412   6.686  20.535 -0.1178 -0.3180  0.2142
  507W        W43560  20.295  25.742  21.318  0.1822  0.1940 -0.2007
  508W        W43561  16.162  11.144   3.143 -0.1874  0.4371 -0.0431
  509W        W43562   1.752  25.290  13.572 -0.0833  0.1721 -0.5014
  510W        W43563  25.390  17.811  15.822  0.1153 -0.0219  0.2592
  511W        W43564   2.679   3.186  24.468 -0.3378 -0.5417  0.2858
  512W        W43565  24.627   2.860  16.582  0.0232  0.3201 -0.2593
  513W        W43566   2.345  12.624  24.272  0.0882  0.1165  0.0561
  514W        W43567  28.915   2.328  18.646  0.0300 -0.1757  0.1997
  515W        W43568  26.326   8.984  20.077  0.2982  0.0266 -0.2854
  516W        W43569  14.804  32.900   2.809 -0.0982 -0.1353 -0.2541
  517W        W43570  15.246   9.485  14.983 -0.5180  0.0922 -0.2507
  518W        W43571   3.579   0.962  16.916  0.3077 -0.0367  0.2148
  519W        W43572  26.792  24.799  22.244 -0.0700 -0.1001 -0.1813
  520W        W43573  26.407   7.811  17.765 -0.1657  0.2022  0.1463
  521W        W43574  31.577   5.536  21.959  0.1009 -0.0586 -0.3720
  522W        W43575  25.383   8.232  14.193  0.2336 -0.2068  0.0449
  523W        W43576  14.172   6.318  20.424  0.0109 -0.2786  0.0975
  524W        W43577  33.928  15.876  22.956 -0.0120  0.0288  0.3350
  525W        W43578  26.817  21.242  20.169 -0.1693  0.2074 -0.1120
  526W        W43579  24.495  34.679  16.574 -0.0553 -0.1760 -0.0468
  527W        W43580  29.034   9.178  25.158  0.1206  0.3290 -0.1563
  528W        W43581  15.667  34.545   6.219 -0.1936 -0.1773  0.0152
  529W        W43582  21.410  29.134   7.059 -0.0737 -0.1938  0.2975
  530W        W43583  23.873  31.698  20.905 -0.1045 -0.1063 -0.0909
  531W        W43584  25.073   1.463   1.342 -0.0716 -0.0973  0.0134
  532W        W43585   1.501   2.745  19.978 -0.0193  0.1582  0.2658
  533W        W43586  10.567   5.840  28.595 -0.2623  0.1453  0.3681
  534W        W43587  23.102  23.328  21.617  0.1557  0.0157  0.1948
  535W        W43588  29.978  24.238  16.694 -0.3007  0.1292 -0.0241
  536W        W43589  12.861  13.748  21.173 -0.0379 -0.0157 -0.2924
  537W        W43590   8.062   1.498  29.136  0.0039 -0.0105 -0.2532
  538W        W43591  23.895  14.652   1.611  0.0535 -0.3047 -0.0054
  539W        W43592  29.909  30.523  26.866  0.2063  0.3677  0.4224
  540W        W43593   0.920   2.283  13.655  0.2448  0.0179  0.1069
  541W        W43594   5.864   7.741  16.049  0.0765 -0.2248  0.2259
  542W        W43595  23.468   7.902  19.392 -0.0782  0.1355  0.1234
  543W        W43596  19.047  33.551  20.366  0.1020  0.0274  0.1288
  544W        W43597  20.548   6.935  17.580  0.0162 -0.0657  0.1679
  545W        W43598  10.417  11.813  17.026  0.1449  0.0851  0.1710
  546W        W43599   0.068   6.002   1.897 -0.4667  0.0054  0.1025
  547W        W43600  23.757   3.264  24.627  0.1437  0.0839 -0.2867
  548W        W43601  22.138   6.501  25.588 -0.1140  0.3211  0.0985
  549W        W43602  25.751   0.593  26.350 -0.2390  0.1542 -0.0628
  550W        W43603  29.611  10.409   3.461 -0.2167  0.0837  0.2770
  551W        W43604  21.563  30.793  20.861 -0.1831 -0.3812 -0.3443
  552W        W43605  15.357   8.783  22.348 -0.2292 -0.1033  0.0881
  553W        W43606   2.109  23.530  24.195  0.2307  0.0199  0.1949
  554W        W43607  33.404   7.215  25.813 -0.3848 -0.0215 -0.2086
  555W        W43608  22.217  12.504  25.790 -0.2432 -0.1039  0.0187
  556W        W43609  29.329  17.448   7.886 -0.3394 -0.0805 -0.0140
  557W        W43610   0.649  17.466   3.999  0.0392 -0.0986  0.0540
  558W        W43611  31.022   5.394  27.547 -0.1065 -0.2467  0.1756
  559W        W43612  12.690   4.867   2.076 -0.0111  0.0534 -0.1206
  560W        W43613   4.093   1.136  18.945  0.2261  0.0894  0.4025
  561W        W43614   6.967  11.307  22.576  0.0409 -0.1223 -0.0095
  562W        W43615  21.051  32.130   3.857 -0.3174  0.1417  0.5296
  563W        W43616  19.701  29.232  18.736 -0.1291  0.0408 -0.0157
  564W        W43617  21.330   8.375  27.526  0.1503  0.3619  0.2823
  565W        W43618   8.335  14.824   3.210  0.0026  0.0784 -0.0209
  566W        W43619  19.737  30.409  21.597 -0.0416 -0.3711  0.1533
  567W        W43620  26.110   5.613  23.996 -0.0270  0.1755  0.0035
  568W        W43621  17.930   7.764   4.087  0.4316 -0.0179 -0.0465
  569W        W43622   8.334  24.362  19.532 -0.1570 -0.0847 -0.1198
  570W        W43623  12.465  11.871  21.780 -0.1580 -0.3225 -0.0706
  571W        W43624  22.169  16.987   3.795  0.1986  0.2064 -0.0974
  572W        W43625  26.195  12.271  21.312  0.0640  0.1281 -0.0742
  573W        W43626  27.400  25.709  21.241  0.1308 -0.1452  0.3443
  574W        W43627  13.074   2.221   5.942  0.2024 -0.3081 -0.0298
  575W        W43628  14.959   8.519  14.651 -0.1606  0.0435  0.2413
  576W        W43629  26.912   4.500  18.423  0.1815 -0.2297 -0.3036
  577W        W43630  15.568  29.977  17.298  0.4393  0.3863 -0.1025
  578W        W43631  23.120  19.060  23.012  0.1772 -0.0635  0.3697
  579W        W43632  16.738  30.877  16.819 -0.0239  0.1583 -0.0974
  580W        W43633  17.438  16.080  13.165  0.0827 -0.0450 -0.1210
  581W        W43634  28.855   1.624  26.384  0.3479 -0.0106 -0.2649
  582W        W43635   3.066  13.911  23.230  0.0067  0.0412  0.0738
  583W        W43636   8.781   6.408  15.977 -0.2933  0.0829  0.1035
  584W        W43637  29.970  27.754  16.759  0.3117  0.2671  0.0110
  585W        W43638  15.685  12.293   0.776  0.1919  0.1753 -0.1219
  586W        W43639  22.676  28.824  19.575  0.0491 -0.0471  0.1402
  587W        W43640  32.696  16.729   4.817 -0.1303 -0.1098 -0.1036
  588W        W43641  19.784   9.966  26.504  0.1290 -0.4982  0.0699
  589W        W43642  22.043  10.686  23.481  0.1330  0.1404  0.0591
  590W        W43643  31.154  13.013   2.863  0.0636  0.0023  0.2543
  591W        W43644  21.570  14.743  22.007  0.2267 -0.1052 -0.1295
  592W        W43645  11.860   1.433  18.112 -0.1425  0.1564 -0.0946
  593W        W43646   7.049   2.534   5.921 -0.0676  0.1285 -0.3074
  594W        W43647  15.016  25.526  25.033 -0.3212  0.1765  0.0403
  595W        W43648  18.276  34.536  18.532 -0.1087  0.1703  0.0970
  596W        W43649  25.402   3.492  18.894  0.0227 -0.2110  0.0800
  597W        W43650  19.989   1.022  21.110 -0.0622  0.2570 -0.3055
  598W        W43651  29.152   9.184   4.443 -0.1157  0.2397 -0.2059
  599W        W43652  22.088  17.219  24.544 -0.0533 -0.0814  0.1923
  600W        W43653   2.473   2.700  18.935  0.0705  0.1781  0.0264
  601W        W43654  23.286  28.936  24.919  0.3130  0.1280 -0.2828
  602W        W43655  18.441   8.509  18.082  0.0941  0.0944 -0.0770
  603W        W43656  27.347  32.975  14.389 -0.0302  0.3806 -0.1650
  604W        W43657  26.124   0.240  17.727 -0.3691  0.0486  0.1336
  605W        W43658  31.201   7.355  27.847  0.1136 -0.0383 -0.0721
  606W        W43659  28.130   6.722  20.696  0.0377 -0.2402 -0.0224
  607W        W43660   5.563   5.253  22.595  0.0211 -0.1386  0.0059
  608W        W43661  31.583   8.536  18.586 -0.2904  0.1934  0.0393
  609W        W43662  25.863  19.849  25.825 -0.0931  0.3511  0.1544
  610W        W43663  18.592  33.633  16.264 -0.2323  0.1560  0.1139
  611W        W43664  19.697  12.283  26.134  0.2753  0.1487 -0.0403
  612W        W43665  24.698  31.606  15.054 -0.3328  0.2846 -0.3060
  613W        W43666  12.057   2.453  27.920 -0.0731 -0.0499  0.3996
  614W        W43667  24.067   7.806   3.472  0.4677 -0.2192  0.0602
  615W        W43668  22.548  17.033  14.451  0.0659 -0.1810 -0.0832
  616W        W43669  33.204   1.370  16.907  0.0534 -0.0509 -0.0723
  617W        W43670  12.270   9.692  21.769 -0.1016 -0.1798 -0.3687
  618W        W43671  27.638   8.079  20.401  0.0605  0.0556  0.0374
  619W        W43672  27.728  10.841   0.297  0.0308  0.1162 -0.3281
  620W        W43673  30.066  33.016   3.255 -0.0930 -0.0965  0.1673
  621W        W43674  15.093   9.022  14.839 -0.0457  0.2063  0.1662
  622W        W43675  26.778  11.184   2.945 -0.1950 -0.3137  0.1491
  623W        W43676  12.663  12.451  28.515  0.0936  0.0577 -0.3976
  624W        W43677  14.338  11.650  21.200  0.1900 -0.0334 -0.1060
  625W        W43678  18.172   5.819  17.776  0.1988  0.3906  0.2246
  626W        W43679  10.022   2.369  22.140  0.1263 -0.0929 -0.0118
  627W        W43680  29.321  23.667  14.663 -0.2119 -0.0559 -0.0410
  628W        W43681  32.428  34.279  28.601 -0.0223 -0.3428 -0.1121
  629W        W43682  11.471  27.952  19.283  0.0206 -0.1306  0.0856
  630W        W43683  20.005  10.696  26.987  0.3347  0.0062  0.2989
  631W        W43684   3.440  11.713  21.890 -0.0143 -0.1561 -0.0184
  632W        W43685   0.027   1.110  14.877  0.0878  0.0008 -0.2715
  633W        W43686  24.844  23.953   7.544  0.1615 -0.0957  0.3027
  634W        W43687  16.188  12.559  26.891  0.0861  0.2469 -0.0914
  635W        W43688   0.717  30.424   2.230 -0.1380  0.1674 -0.0580
  636W        W43689   1.926   2.217  14.126 -0.2892  0.0581 -0.1174
  637W        W43690   1.306  19.709  13.783  0.0894 -0.2751  0.0791
  638W        W43691  27.629  22.338  28.716  0.0994  0.0582 -0.2019
  639W        W43692  33.464   0.913  17.732  0.1639 -0.1070 -0.2048
  640W        W43693  30.296   1.131  16.362 -0.0592 -0.0755 -0.1225
  641W        W43694  26.222  10.253  14.027  0.1825 -0.2698  0.3590
  642W        W43695  34.467   2.525  21.887 -0.0195  0.0028  0.2720
  643W        W43696   1.638  13.405  14.093 -0.2020 -0.1498 -0.4210
  644W        W43697  31.956  31.300  25.583 -0.0793 -0.1277 -0.3081
  645W        W43698  16.683  29.770  23.553  0.0365 -0.0221  0.1781
  646W        W43699  21.935   1.924  22.656  0.1877  0.1950  0.0207
  647W        W43700  21.016   4.505  23.032 -0.0360 -0.2630  0.1096
  648W        W43701  15.923   3.100  16.724 -0.0389  0.2653  0.1946
  649W        W43702  22.106  28.890  26.409 -0.4812  0.1656 -0.0203
  650W        W43703  32.273  25.314  23.580 -0.1569  0.0401  0.0512
  651W        W43704  14.990  12.485  28.531 -0.3608 -0.1774  0.1312
  652W        W43705  19.138   5.185  27.079  0.0817  0.1693  0.1652
  653W        W43706  21.120  21.857  17.783 -0.3136  0.0862 -0.1593
  654W        W43707  30.661  22.081  18.821 -0.1920 -0.0905 -0.0918
  655W        W43708   1.317  12.404  17.997 -0.0703  0.2289 -0.1862
  656W        W43709  19.956   6.833  14.495 -0.1546  0.3330  0.0558
  657W        W43710  31.496  23.044  16.826  0.1750 -0.0906 -0.0560
  658W        W43711  27.237   7.028  14.862 -0.0814 -0.1214  0.5062
  659W        W43712   3.220   9.936  19.250  0.0195 -0.0640  0.2595
  660W        W43713  30.115   3.266  25.646 -0.1713 -0.2196  0.1347
  661W        W43714   3.185  16.935  17.458  0.0367 -0.1253 -0.0426
  662W        W43715  16.686   9.199  26.215  0.0037  0.0871  0.0462
  663W        W43716  18.042   4.920  18.431 -0.0096  0.5179 -0.1643
  664W        W43717  22.128  33.618   3.473 -0.0431  0.0158 -0.2947
  665W        W43718   5.890  32.617  19.937 -0.2550 -0.0489  0.2577
  666W        W43719  17.101   5.661   0.185  0.1972  0.1032 -0.2263
  667W        W43720  22.486  30.903  21.131  0.2483  0.2400 -0.2430
  668W        W43721  29.527  11.647  23.926  0.0693  0.0632  0.0162
  669W        W43722  32.763   4.591  24.506  0.3478 -0.2694  0.3881
  670W        W43723  18.044   2.800  18.791 -0.0548 -0.0786 -0.0383
  671W        W43724  14.025   0.653   1.120 -0.0765 -0.1979  0.1399
  672W        W43725  27.405  13.566  23.410  0.1756  0.2232  0.0929
  673W        W43726  13.704  27.814  15.272 -0.2106  0.2250  0.0445
  674W        W43727  14.345   3.601  16.763 -0.0370  0.1707 -0.1762
  675W        W43728  13.132   8.681  20.637  0.2449 -0.1273 -0.0961
  676W        W43729  28.959   4.117  20.046 -0.3437  0.0530 -0.0619
  677W        W43730  19.586  33.859  17.883 -0.0905 -0.2474  0.0114
  678W        W43731  19.456  15.348  15.840 -0.1962  0.1539  0.0990
  679W        W43732   3.261  27.127  23.015  0.1225  0.1728 -0.2083
  680W        W43733  26.295  34.457  18.914 -0.2646 -0.1925  0.2770
  681W        W43734  15.861  12.986  26.138 -0.0941 -0.2249 -0.1729
  682W        W43735  13.178  29.742  28.294 -0.0075  0.1335  0.0046
  683W        W43736   0.093  30.347  26.661  0.0340 -0.0309 -0.2765
  684W        W43737  21.727  12.780  15.657  0.0677  0.1708  0.2394
  685W        W43738  25.072  26.482  17.327 -0.1086  0.2557  0.1403
  686W        W43739  27.078  30.070  18.771 -0.0022 -0.0207 -0.0421
  687W        W43740  20.885  10.074  23.724  0.1850  0.1866 -0.2306
  688W        W43741   2.936   6.025   1.167 -0.0200  0.0913  0.4495
  689W        W43742  22.735  10.473  14.445 -0.0325  0.1351  0.1905
  690W        W43743   8.328   5.712  15.624  0.4484 -0.4093  0.2631
  691W        W43744   0.188  12.253  15.224  0.1197  0.1430  0.1492
  692W        W43745  34.132  33.825  17.133  0.0994 -0.1581 -0.2513
  693W        W43746  20.024   8.525  21.578 -0.1045 -0.0339  0.1725
  694W        W43747  19.528  21.797  21.917  0.0572 -0.1900  0.1063
  695W        W43748  26.941   7.289  16.922  0.0616  0.1041 -0.1900
  696W        W43749  20.979   5.287  18.924 -0.2206 -0.0361 -0.2491
  697W        W43750  21.925   1.038  28.078 -0.0333 -0.1417 -0.2931
  698W        W43751   9.677   4.159  22.042 -0.1417 -0.1314  0.3872
  699W        W43752  22.302   1.653  14.399  0.0678  0.1135 -0.3816
  700W        W43753   9.057  32.538  17.441 -0.3749  0.1393 -0.1247
  701W        W43754  19.222  14.719   4.161  0.1028  0.3126  0.0271
  702W        W43755  22.402   8.498  24.337 -0.0074  0.1116  0.2290
  703W        W43756  22.837   4.930  14.435  0.1548  0.0962  0.2984
  704W        W43757  21.051  32.494  24.852 -0.1571 -0.1034 -0.1283
  705W        W43758  24.725  18.575  26.153  0.1421  0.0090  0.3015
  706W        W43759  21.608   1.039   2.069  0.4815  0.1683 -0.1251
  707W        W43760  26.575  32.904  17.937  0.2244  0.0324 -0.2073
  708W        W43761   4.411  30.414  13.796 -0.5289  0.2720 -0.1670
  709W        W43762  12.153   4.291   0.347  0.3217  0.5544 -0.2130
  710W        W43763  18.398  15.049  28.883  0.1385  0.0913  0.3347
  711W        W43764   1.796   8.420  23.637  0.1264 -0.2535  0.2067
  712W        W43765  22.021   8.834   1.037  0.3794 -0.0997  0.0544
  713W        W43766  12.429  30.194  20.462 -0.0337 -0.1907 -0.1714
  714W        W43767   8.093  12.702  20.639 -0.1747 -0.2454 -0.0909
  715W        W43768  24.012  29.136  23.988  0.1158 -0.2069  0.1274
  716W        W43769  22.605  11.508  19.121 -0.2091 -0.0148  0.0947
  717W        W43770  24.457   5.496  16.892  0.0570 -0.1253 -0.1317
  718W        W43771  19.764  20.371  23.282 -0.0831  0.2981  0.1254
  719W        W43772  31.229  28.777  18.276  0.1602  0.2742  0.1727
  720W        W43773   1.721  19.733  17.519 -0.0660  0.0075  0.1707
  721W        W43774   5.587   5.597  18.885 -0.0919  0.0292  0.0996
  722W        W43775  29.898   3.472   6.889 -0.1368 -0.0894  0.5110
  723W        W43776  13.322  28.705  19.628 -0.0952 -0.1987  0.1412
  724W        W43777  25.480  13.353  21.523  0.3420  0.3626 -0.3474
  725W        W43778   7.137   0.770  14.882  0.3034  0.0480  0.1237
  726W        W43779  12.454   9.181  26.646  0.0431  0.0695 -0.1633
  727W        W43780  18.996  32.777  28.433 -0.0188 -0.2760 -0.0723
  728W        W43781  30.117   9.564  24.236  0.3117  0.1056 -0.0777
  729W        W43782  19.024  34.324  23.820 -0.1735  0.0413 -0.0123
  730W        W43783  31.677   2.285  14.491 -0.0549  0.1433 -0.1469
  731W        W43784  13.023  22.408  23.952 -0.2271 -0.2632 -0.0604
  732W        W43785  24.107   4.982  28.054 -0.1596 -0.0696  0.1214
  733W        W43786  11.952   7.248  27.484  0.0736 -0.3722  0.1585
  734W        W43787  27.346   7.243  27.567  0.0669  0.1411  0.1265
  735W        W43788  12.919   5.853  23.021 -0.1463  0.2216  0.3009
  736W        W43789  18.537  34.551  22.841 -0.2391 -0.1397  0.2251
  737W        W43790  32.412   6.041   3.782  0.0369  0.1621  0.0585
  738W        W43791  20.133   6.389  18.041 -0.1180 -0.1116 -0.1207
  739W        W43792  23.825   5.624  18.859 -0.0294  0.1431 -0.1497
  740W        W43793  28.457  12.902  19.071 -0.0267 -0.1834 -0.1022
  741W        W43794  12.000  33.980  24.070 -0.1835 -0.4509 -0.1782
  742W        W43795  24.366  11.627  23.175 -0.2636 -0.2361  0.1687
  743W        W43796  16.690   0.628  15.568  0.1968 -0.1178 -0.2972
  744W        W43797  19.962  10.180  18.303 -0.0824  0.0152  0.0602
  745W        W43798  25.412  29.255  20.464 -0.1170 -0.1421  0.1171
  746W        W43799  17.352  27.665  19.388 -0.2210 -0.1856 -0.0432
  747W        W43800  27.150   8.283  23.752  0.0638 -0.0162  0.1643
  748W        W43801  25.123  26.499  18.468 -0.1584 -0.1456 -0.0803
  749W        W43802  11.080   7.081  20.929  0.2810 -0.2596  0.3776
  750W        W43803   2.934  28.001  13.977 -0.1302  0.1534 -0.0522
  751W        W43804  25.154  14.629  21.174  0.4772  0.0182  0.1782
  752W        W43805  24.619  28.638  17.294 -0.0173  0.1149 -0.3285
  753W        W43806  31.590   3.419   2.496 -0.0285  0.2606  0.0269
  754W        W43807   6.314  10.899  20.867  0.0971 -0.2013 -0.0417
  755W        W43808  10.395  21.565  23.616 -0.1912  0.2530 -0.0931
  756W        W43809  23.195   3.470  21.464  0.5037  0.2635  0.2931
  757W        W43810  12.031   2.981  27.760 -0.2845  0.1548  0.3693
  758W        W43811  19.976   8.399  26.262  0.0073 -0.4183 -0.0541
  759W        W43812  18.676  15.283  24.237  0.2276  0.2936 -0.1352
  760W        W43813  17.414  13.215  23.042 -0.4633 -0.1303 -0.0023
  761W        W43814  31.718  21.584  23.932 -0.1201  0.0719 -0.3401
  762W        W43815  27.725  16.412  15.143  0.1755 -0.1463  0.2031
  763W        W43816  17.741   4.785  22.662 -0.1266 -0.0665 -0.0183
  764W        W43817   8.315  12.940  22.440 -0.1477  0.0064 -0.0606
  765W        W43818   1.901  18.977  26.230  0.0526 -0.1369 -0.0128
  766W        W43819  21.123  13.022  24.516  0.0557  0.1740 -0.1391
  767W        W43820   2.202  11.203  17.054 -0.2092  0.0271 -0.1122
  768W        W43821  25.680  28.661  24.139 -0.1177  0.0738  0.2350
  769W        W43822  13.531  12.202  22.559 -0.0985 -0.2262  0.3862
  770W        W43823  29.179  14.628  20.606 -0.5541 -0.0219 -0.1152
  771W        W43824  27.006  20.458  18.005  0.0156 -0.2629  0.0007
  772W        W43825  33.300  15.773  23.638  0.0518 -0.1382  0.0611
  773W        W43826  28.512  20.968   2.088  0.0234 -0.1313  0.0908
  774W        W43827   6.783  27.809   0.454  0.0440 -0.0946 -0.3570
  775W        W43828  23.976   8.850  25.621  0.2785  0.1239  0.0257
  776W        W43829  19.299  13.791  24.735  0.1923 -0.2128 -0.1391
  777W        W43830  24.631  10.026  18.225 -0.2606 -0.1093  0.1007
  778W        W43831   8.277   5.437  19.433  0.0301 -0.0870 -0.1846
  779W        W43832  25.466   4.411   1.802 -0.5417 -0.0398 -0.0488
  780W        W43833  27.038   2.169  20.806 -0.1742 -0.3195  0.1381
  781W        W43834  32.617  17.376  17.920 -0.2042 -0.3787 -0.1786
  782W        W43835  20.154   9.627  22.086 -0.0016  0.0014 -0.0429
  783W        W43836   3.371  18.426  18.606  0.1576 -0.0883 -0.0952
  784W        W43837   7.844   3.619  28.360 -0.2062 -0.3939 -0.1550
  785W        W43838  29.900  27.590  21.645 -0.2572 -0.1886 -0.1900
  786W        W43839  23.672  33.984   3.830 -0.0436  0.2538  0.0592
  787W        W43840   2.130   7.812   8.584  0.1417 -0.0083  0.1448
  788W        W43841  10.356  18.255  23.349  0.0413  0.1494  0.2677
  789W        W43842  12.828  34.388  20.734 -0.0687  0.1315  0.1348
  790W        W43843   6.423   9.525   0.226  0.1430 -0.1015 -0.0078
  791W        W43844  28.972  30.184  19.475 -0.1833 -0.2100  0.1975
  792W        W43845  16.272   8.626  15.719  0.4111  0.1133 -0.0727
  793W        W43846  28.649   2.247   4.534  0.0873 -0.2475  0.2485
  794W        W43847  21.700  21.760  20.988  0.0271  0.0146  0.0643
  795W        W43848   1.813  32.059  20.115  0.1047 -0.0710  0.1329
  796W        W43849  27.471  29.018  26.262  0.1880 -0.1582 -0.0099
  797W        W43850  16.878  23.668   4.165 -0.2118 -0.0054  0.0604
  798W        W43851  15.787  18.511  15.895  0.0134  0.3566  0.2170
  799W        W43852  27.353   2.450  21.548  0.1889 -0.1280 -0.0059
  800W        W43853  21.041  31.505   1.164 -0.2432 -0.3208 -0.2297
  801W        W43854  17.230   9.924  19.252  0.1180  0.1885  0.0155
  802W        W43855  31.035   7.013  28.312  0.1084  0.0126 -0.1145
  803W        W43856   6.979  19.010  22.511 -0.1506 -0.2023  0.2128
  804W        W43857  31.844  34.424  16.976  0.1164  0.1162  0.2728
  805W        W43858   0.496  13.869  24.955 -0.0690 -0.0757 -0.1048
  806W        W43859   0.839   3.843  27.091 -0.0195  0.4095 -0.1576
  807W        W43860  28.524  10.520  15.678 -0.2965 -0.2032 -0.0611
  808W        W43861  29.814  13.342  16.499 -0.0916 -0.0866  0.5136
  809W        W43862  24.289  14.093  16.207 -0.3700  0.1972  0.4670
  810W        W43863  25.755  18.515  21.161 -0.1587  0.0366  0.0870
  811W        W43864  16.977  14.764  26.575  0.0273 -0.0069  0.2358
  812W        W43865  22.719  30.451  13.968 -0.0164 -0.2093  0.2613
  813W        W43866  19.274   2.576  20.585 -0.0173  0.0404 -0.3772
  814W        W43867   8.768   0.795  23.642  0.2806 -0.0733  0.0562
  815W        W43868  28.779  23.695  14.645  0.0998  0.1993  0.1126
  816W        W43869   5.645   6.034  26.768 -0.0021 -0.0155  0.1089
  817W        W43870  28.084  26.643  18.251 -0.0419 -0.0615  0.2781
  818W        W43871  16.471  22.254   2.982  0.0402 -0.1466  0.1059
  819W        W43872  30.977  32.493  20.536  0.1195 -0.4238 -0.0510
  820W        W43873  11.961   8.956   0.206  0.0077  0.0677 -0.3951
  821W        W43874   5.013   5.294  28.333  0.1359  0.0851 -0.3383
  822W        W43875  17.355  27.223  19.658 -0.1657  0.0106  0.2862
  823W        W43876   2.521  31.170  16.270 -0.1598 -0.0798 -0.1035
  824W        W43877   2.590  30.212   6.273  0.2307 -0.2919 -0.1905
  825W        W43878  27.270   3.836  27.223  0.1925  0.1099  0.0745
  826W        W43879   1.320  19.904  13.234  0.0132 -0.1056 -0.1123
  827W        W43880  26.662  10.374  15.325 -0.1510  0.0157 -0.0856
  828W        W43881  14.915   0.053  25.320  0.0452  0.2032 -0.0723
  829W        W43882  13.908   1.710   2.018 -0.0166 -0.0405 -0.1866
  830W        W43883  21.067  28.509  19.839 -0.0909  0.0379  0.0623
  831W        W43884  31.646  23.114  17.658  0.0826  0.0360  0.1571
  832W        W43885  25.327  12.568  24.645 -0.0538  0.1018  0.2152
  833W        W43886  26.363  16.884  25.556  0.2776 -0.3124 -0.1073
  834W        W43887  26.866   7.774  16.689 -0.0055  0.1400 -0.0307
  835W        W43888  32.628  12.160  24.940  0.1180  0.0275 -0.2547
  836W        W43889  33.599  17.012  19.320  0.0458 -0.0867  0.1730
  837W        W43890  16.308   5.494  26.472 -0.0064 -0.1892  0.0726
  838W        W43891  25.579  11.666   9.494 -0.0340 -0.1407 -0.5141
  839W        W43892   1.794  34.294  23.022  0.0431  0.0375 -0.0469
  840W        W43893  25.884  29.431  17.167 -0.0701 -0.1330 -0.0339
  841W        W43894  29.587   0.249  15.550 -0.0663 -0.3847 -0.0901
  842W        W43895  25.332   0.457  25.938  0.3220 -0.0689  0.2755
  843W        W43896  32.798  33.047   2.354  0.1592  0.1586 -0.0334
  844W        W43897  11.810   6.702  14.432  0.3800  0.0121 -0.2417
  845W        W43898  12.035  25.721  21.821  0.1388 -0.3514  0.1416
  846W        W43899  24.903   2.822   6.199  0.0737  0.0841  0.2269
  847W        W43900   9.917  27.127  28.611  0.0292  0.2082 -0.0412
  848W        W43901  23.413   0.157  26.160  0.1159  0.1620  0.2354
  849W        W43902  23.116  20.519  15.138  0.0649 -0.1538  0.0101
  850W        W43903  22.881  21.159  23.654  0.1921  0.1621  0.3741
  851W        W43904   2.071   4.524   7.939  0.0843  0.2467 -0.4067
  852W        W43905  26.734   9.706  20.501 -0.1181 -0.0143  0.2123
  853W        W43906   1.449  11.120  28.752 -0.0683  0.2853 -0.0533
  854W        W43907  13.933   3.925   1.633  0.0167  0.1220 -0.1418
  855W        W43908  22.216   4.999  27.481  0.0298 -0.0743 -0.3812
  856W        W43909   0.687  24.559   7.976 -0.0951 -0.0461 -0.0993
  857W        W43910  20.862  20.769  16.421  0.0840 -0.1056  0.1206
  858W        W43911  24.795   4.935   6.978  0.0908 -0.0845  0.2172
  859W        W43912  31.495  19.701  16.125  0.0670 -0.2614  0.0716
  860W        W43913  20.717   7.571  18.674  0.2397 -0.1456 -0.4942
  861W        W43914  19.083   1.357  20.948  0.0057  0.0131 -0.1734
  862W        W43915  30.399  34.618  22.946 -0.4235  0.0253  0.1796
  863W        W43916  18.643   5.662   3.033 -0.1588  0.0465  0.0744
  864W        W43917  23.220  13.173  24.009 -0.0284  0.1788 -0.0015
  865W        W43918   9.728   3.221  28.112 -0.1408  0.2060 -0.3243
  866W        W43919   0.397  19.032   8.324  0.1197 -0.1766 -0.1231
  867W        W43920   7.153   6.903  23.750  0.0877  0.1874 -0.0113
  868W        W43921  23.981  11.201  25.030  0.3592  0.0090  0.3324
  869W        W43922  25.841  34.327   5.323 -0.0342  0.0083 -0.0292
  870W        W43923  29.887  26.730  17.956 -0.1053 -0.2407  0.1074
  871W        W43924  29.076  21.717  17.046  0.0444  0.0881 -0.0527
  872W        W43925  15.445   6.326  18.079 -0.0873 -0.1206  0.1921
  873W        W43926  28.380   3.881   5.279 -0.4325  0.1766 -0.1288
  874W        W43927  23.115   7.953   2.138 -0.1015  0.0508  0.0979
  875W        W43928  23.758   1.285  28.065  0.0130  0.1688  0.1383
  876W        W43929  20.066  32.856  17.081  0.0859 -0.1265  0.0406
  877W        W43930  17.236   7.227  21.717  0.1266 -0.0116 -0.0801
  878W        W43931  28.117  21.314  16.816  0.0035 -0.2194  0.0592
  879W        W43932  13.957   4.657  27.500 -0.0484 -0.1449 -0.1146
  880W        W43933  24.599   0.815  24.386 -0.2444  0.2597 -0.0157
  881W        W43934  23.004  28.450   7.979  0.0982 -0.0308 -0.5245
  882W        W43935  11.612   7.970  23.847 -0.0056 -0.3588 -0.0103
  883W        W43936  16.014  28.794   7.945  0.1325  0.0046 -0.1768
  884W        W43937  24.334   2.290  22.300  0.2570  0.3156  0.0816
  885W        W43938  27.225   1.548  23.698  0.6493  0.0450 -0.4228
  886W        W43939   0.458  21.068  24.382  0.0897  0.0920  0.2680
  887W        W43940  17.184  34.253   1.689 -0.0310 -0.4073 -0.0980
  888W        W43941   0.074  30.153   2.388  0.2210 -0.0744 -0.0275
  889W        W43942  31.948   0.496  22.932  0.5131  0.1362  0.0314
  890W        W43943  30.075   8.462  14.740  0.1284  0.3364 -0.0987
  891W        W43944  18.818  12.546  19.903  0.2825  0.2128  0.0237
  892W        W43945  14.814   5.828   9.829 -0.2106 -0.0094 -0.0326
  893W        W43946  24.422  34.116   1.943  0.2362 -0.2568  0.0619
  894W        W43947  23.769  24.197  27.694  0.2737  0.0503  0.2040
  895W        W43948  21.533  34.360   0.501 -0.2990 -0.0138  0.1870
  896W        W43949  27.398   9.108   1.142  0.0027  0.3093 -0.0391
  897W        W43950  24.573  32.682  24.770 -0.4236 -0.1208  0.1009
  898W        W43951   9.821  30.641  24.255 -0.0114  0.1454  0.0654
  899W        W43952  31.246   0.193   0.346  0.2449  0.2605  0.2890
  900W        W43953  10.754  20.687  20.008 -0.2266  0.0949 -0.2776
  901W        W43954  15.684  10.968   2.397 -0.1831  0.1066  0.0728
  902W        W43955  15.674   6.678  14.774  0.2684 -0.1228  0.2959
  903W        W43956  24.180  20.434  20.129  0.0117  0.0982 -0.2871
  904W        W43957   8.712  22.481   7.129  0.0703 -0.0511 -0.0255
  905W        W43958  25.922  26.878  27.029 -0.0770 -0.0091  0.0416
  906W        W43959  31.375   5.639  20.515 -0.0982  0.3079  0.3187
  907W        W43960  16.683  10.602   5.229  0.0619 -0.1803 -0.0401
  908W        W43961  16.512   5.477  20.473  0.0908  0.0553 -0.0423
  909W        W43962  13.957   5.477  21.277 -0.0082 -0.0349 -0.4642
  910W        W43963  27.235  22.682  13.865 -0.1032 -0.1972 -0.1204
  911W        W43964  22.812   7.039  21.595  0.0966 -0.1628  0.0124
  912W        W43965   2.032   4.591  27.037  0.0583  0.5306  0.2530
  913W        W43966  30.353  20.337  10.013  0.1653 -0.0995 -0.1758
  914W        W43967  25.962   2.662   1.783  0.1096 -0.1933  0.0653
  915W        W43968  33.955   6.851   3.270  0.2115 -0.0377 -0.0708
  916W        W43969  29.335   4.942   1.693 -0.2227 -0.2073 -0.1981
  917W        W43970  17.754  33.865  23.657  0.1048  0.2547  0.0130
  918W        W43971  18.472   1.676  18.179 -0.2137  0.0525 -0.2780
  919W        W43972  20.464  23.355   1.909  0.1052  0.1674 -0.0662
  920W        W43973   9.063   9.034   7.822  0.0099 -0.0053 -0.1027
  921W        W43974  28.919  22.663   9.193 -0.1737  0.1092  0.0827
  922W        W43975  28.303   8.528  10.134  0.1248 -0.2171 -0.1236
  923W        W43976  21.918  14.665  21.046  0.1528 -0.0855 -0.1062
  924W        W43977  15.450  20.635  15.424 -0.1624  0.1474  0.1013
  925W        W43978   0.533  31.937  23.787  0.0321 -0.0734 -0.0217
  926W        W43979  26.806   6.425   0.150  0.1478  0.3009  0.2925
  927W        W43980  28.773   6.387  16.048  0.0107 -0.0230  0.0718
  928W        W43981  18.031  32.550   0.916  0.0138 -0.0090 -0.2377
  929W        W43982  11.093  27.222  17.983  0.1685 -0.2171 -0.1041
  930W        W43983  21.717  33.188   5.157  0.0579 -0.5797 -0.0167
  931W        W43984  20.204   1.320  20.660 -0.1743 -0.1968  0.0506
  932W        W43985  22.558  29.247  15.461  0.0368 -0.0373  0.0330
  933W        W43986  16.696  23.148  16.346 -0.2879 -0.1323  0.1498
  934W        W43987  29.732   8.784  15.607  0.1488 -0.1384  0.1454
  935W        W43988   8.693  13.670   9.687  0.0594 -0.2422  0.1904
  936W        W43989  32.374  29.010  27.214 -0.0871  0.1124  0.1426
  937W        W43990  22.235  28.591  17.955  0.0155  0.0171 -0.1632
  938W        W43991  22.873   7.799   1.290 -0.2366  0.0276 -0.0219
  939W        W43992  14.442   6.006  22.843  0.1491 -0.0836  0.1246
  940W        W43993  24.785   3.585  20.359 -0.1888  0.1010  0.2162
  941W        W43994  27.352  30.787  24.722 -0.1264  0.3001 -0.2915
  942W        W43995  24.427   4.211   2.506 -0.1758 -0.2459  0.0651
  943W        W43996  10.355   4.168  19.171 -0.1189 -0.0173 -0.0378
  944W        W43997  22.222  24.349  17.789  0.0676 -0.0485 -0.0455
  945W        W43998  30.611  19.402  25.450  0.0516 -0.1299 -0.1945
  946W        W43999   9.831   7.704  20.294 -0.1117  0.0321 -0.0900
  947W        W44000  17.196  11.755  16.359  0.1984 -0.1762  0.0998
  948W        W44001  19.854  33.288   5.295  0.0968  0.3397  0.0030
  949W        W44002  12.921  15.528  22.629 -0.0272  0.0646 -0.0044
  950W        W44003  28.435  28.598  16.298 -0.1199 -0.0567  0.1316
  951W        W44004  24.908  27.375   1.955 -0.1806  0.0816 -0.1535
  952W        W44005   8.644  20.954  17.133 -0.2662 -0.2676  0.0726
  953W        W44006  30.940  26.738  20.392 -0.1805  0.0297 -0.1205
  954W        W44007  11.691   7.157   7.006 -0.4112 -0.0414  0.0811
  955W        W44008  10.286  17.707  23.424  0.1403 -0.1335 -0.1270
  956W        W44009  15.153  28.468  26.804  0.0097 -0.0899  0.1550
  957W        W44010  19.058  32.202   2.563  0.0022  0.0088 -0.1627
  958W        W44011  28.931   7.277  23.017  0.1500  0.0047 -0.1010
  959W        W44012   8.242  33.434  24.099 -0.1587 -0.0540 -0.2087
  960W        W44013  14.036   0.070  20.323 -0.2354  0.1701 -0.0577
  961W        W44014  30.088   1.064  17.986  0.1011 -0.1811  0.3437
  962W        W44015  16.953   4.695  22.943  0.1908 -0.0881  0.3941
  963W        W44016  12.187  10.351  20.557 -0.0865  0.1860 -0.2341
  964W        W44017  31.152  12.018   8.351  0.2138  0.1809  0.2899
  965W        W44018  31.901  10.680   0.151 -0.2319 -0.1500 -0.0928
  966W        W44019  29.572  13.486   0.197 -0.1924 -0.0128 -0.0085
  967W        W44020  21.679   4.273  23.708 -0.0509  0.2607 -0.1354
  968W        W44021   4.197  10.934  15.525  0.1826 -0.2099 -0.0121
  969W        W44022   8.894   9.459  28.718 -0.1987 -0.0300  0.0650
  970W        W44023   4.627   5.511  25.621  0.1123  0.1304  0.5517
  971W        W44024  24.987   5.938  14.095 -0.0703  0.2168 -0.2206
  972W        W44025  25.688  14.354   7.167 -0.1924 -0.1155 -0.2480
  973W        W44026  34.134  11.278   0.760 -0.0929 -0.2019 -0.1469
  974W        W44027  22.176  33.963   1.773  0.0475  0.0976  0.0981
  975W        W44028  10.723   4.759  23.002 -0.0107 -0.1227  0.0202
  976W        W44029  17.574   1.684  19.412  0.2144 -0.1983 -0.0902
  977W        W44030  26.533   7.455  23.872  0.0429 -0.0142  0.3630
  978W        W44031  18.553  10.379  22.807  0.0727 -0.0055  0.0879
  979W        W44032  19.029   1.102  29.093 -0.0335  0.2454 -0.1940
  980W        W44033  25.060  32.652  24.918 -0.0368 -0.1267 -0.1618
  981W        W44034  29.586   3.997  16.612 -0.0191  0.1282  0.1498
  982W        W44035  20.906   4.615   3.181 -0.3119 -0.0699  0.1529
  983W        W44036  27.036   9.585   2.752 -0.2639 -0.1662  0.3686
  984W        W44037  19.999   5.225  15.557 -0.0802 -0.1680 -0.0454
  985W        W44038  17.142   8.398  21.700 -0.0423 -0.3446 -0.0382
  986W        W44039   9.562  19.933  19.296  0.2612 -0.1495  0.1242
  987W        W44040  20.303   9.010  15.320 -0.0665 -0.2153 -0.1706
  988W        W44041  20.108   1.527   3.198  0.0265 -0.1558 -0.0250
  989W        W44042  24.165  24.441  23.187 -0.2878 -0.2178 -0.0284
  990W        W44043  17.050  28.845  27.076 -0.0719 -0.1506 -0.1931
  991W        W44044  20.492  13.961  20.626  0.3282 -0.0298  0.2579
  992W        W44045  16.693   4.621   4.034  0.1152  0.0860 -0.0723
  993W        W44046  14.200   9.758   0.342 -0.2371 -0.0951 -0.0454
  994W        W44047  19.668  30.748  15.752 -0.3291  0.0063 -0.1908
  995W        W44048  25.990   8.013   1.673 -0.1514  0.0306  0.0952
  996W        W44049  18.409   1.926   6.354  0.0163  0.4469  0.0858
  997W        W44050  23.499  20.376  24.705 -0.0303 -0.0434  0.0811
  998W        W44051  24.768  13.617  16.132  0.0730 -0.0949  0.3432
  999W        W44052  23.138  32.891  19.468 -0.0974  0.0849  0.1444
 1000W        W44053  24.221   8.007  15.290 -0.3861  0.2741  0.1621
 1001W        W44054   0.796  10.988  24.382 -0.1866 -0.0705  0.0059
 1002W        W44055  19.339   0.505  19.312  0.1140  0.0942 -0.2550
 1003W        W44056   8.337   3.048  21.790 -0.0302 -0.0526 -0.0972
 1004W        W44057   9.168   3.203   6.021  0.3994  0.2047 -0.0355
 1005W        W44058  24.380  12.352  20.170 -0.0700 -0.3798  0.3778
 1006W        W44059  13.122  17.849  24.748  0.3934 -0.1321  0.0149
 1007W        W44060  15.993   4.765   2.611  0.0093 -0.1147 -0.3337
 1008W        W44061  29.668  14.814  19.900  0.0563  0.2279  0.0686
 1009W        W44062  23.169   1.628  15.923 -0.0989  0.1763  0.0024
 1010W        W44063  14.367   9.279  21.684 -0.5059 -0.3328  0.0692
 1011W        W44064   3.452  28.869  23.593 -0.0937 -0.2986 -0.0044
 1012W        W44065   5.036   6.539  23.206 -0.2517 -0.0370  0.0562
 1013W        W44066  25.110   2.150  25.491 -0.1480  0.3496  0.0004
 1014W        W44067  27.367  31.870   5.646  0.1352 -0.1436  0.2675
 1015W        W44068  28.492   2.051  29.065  0.1344 -0.4159  0.0586
 1016W        W44069  28.653  30.690   7.652 -0.0578  0.0147  0.3182
 1017W        W44070  30.711  10.367  25.689  0.2517 -0.1036  0.1306
 1018W        W44071  22.675   5.919  16.772 -0.0332  0.4941 -0.0390
 1019W        W44072  28.577   1.580  17.825 -0.0807 -0.0135  0.2881
 1020W        W44073  33.632   3.365   6.309  0.0369 -0.2613  0.2479
 1021W        W44074   2.541  14.065   0.091 -0.1852  0.1305 -0.2571
 1022W        W44075   8.493  16.165   5.429  0.0279  0.1768  0.2658
 1023W        W44076  11.721   0.461  18.747 -0.1579  0.1088  0.3125
 1024W        W44077  25.353   8.189  25.575  0.0353 -0.1436 -0.0777
 1025W        W44078  14.821   9.264  18.316  0.0842 -0.0227 -0.1564
 1026W        W44079  25.140  15.900   2.010  0.1629  0.1433 -0.2845
 1027W        W44080   5.202  32.887  13.693 -0.2793 -0.1306  0.1686
 1028W        W44081  30.366  10.130  24.287 -0.1144  0.2878  0.1388
 1029W        W44082  22.663  19.888   6.418 -0.2969 -0.3707  0.0033
 1030W        W44083  29.977  13.788  23.822 -0.3422 -0.0533 -0.1186
 1031W        W44084  29.108  22.528   2.991  0.3372  0.0913 -0.0388
 1032W        W44085   9.512   3.278   8.163 -0.1465  0.1196 -0.0824
 1033W        W44086  10.228  10.355  27.637 -0.2379 -0.3707 -0.3223
 1034W        W44087   0.290   4.891  26.252  0.0297 -0.0600 -0.2663
 1035W        W44088  29.051   0.344  22.648 -0.0035  0.1820  0.3358
 1036W        W44089   7.880   3.322  19.991  0.1193  0.0566  0.3705
 1037W        W44090   2.652   8.317  25.699 -0.1687  0.0416  0.0263
 1038W        W44091  23.602   3.414  25.885  0.1604  0.0248  0.3293
 1039W        W44092   8.568  16.664  24.736 -0.0808  0.1001  0.0084
 1040W        W44093   0.094  13.799   3.036 -0.3174  0.0961  0.2160
 1041W        W44094  14.757  29.174  21.102 -0.0365 -0.0304 -0.1405
 1042W        W44095  29.795  17.906  23.591 -0.2455 -0.1613  0.2381
 1043W        W44096   4.456  12.370   9.322 -0.1758 -0.1847 -0.1261
 1044W        W44097  22.934   4.560   9.117 -0.1583  0.0429  0.0161
 1045W        W44098   1.523  16.289  15.808 -0.1086 -0.0120 -0.0974
 1046W        W44099  34.263  29.546  23.648  0.0809  0.4242  0.1401
 1047W        W44100  25.253   9.830  15.610  0.1539  0.2781  0.0350
 1048W        W44101  33.825   0.785  18.014 -0.2696  0.2634 -0.1993
 1049W        W44102  26.489   4.464  16.993  0.1855 -0.2898 -0.1114
 1050W        W44103  18.998  31.750   1.819 -0.3186 -0.0969 -0.0583
 1051W        W44104  29.779   2.589  28.050  0.3124  0.2403 -0.0739
 1052W        W44105  19.278   3.307   2.920  0.2784 -0.0033  0.4174
 1053W        W44106  34.589  13.839  20.440 -0.2677 -0.3340  0.1914
 1054W        W44107  25.041  26.633  25.459  0.0963  0.3780  0.1711
 1055W        W44108   4.979   5.629   8.320  0.0553  0.0930  0.1731
 1056W        W44109   3.050   2.183   4.045 -0.3612  0.1316  0.0451
 1057W        W44110   8.488   6.726  25.276  0.1506 -0.0931  0.3512
 1058W        W44111  22.946   8.706  25.466 -0.0207  0.0394 -0.1266
 1059W        W44112  27.176  27.571  20.655  0.2600 -0.1178 -0.1395
 1060W        W44113  18.769  29.139  15.025 -0.0818 -0.0954  0.0092
 1061W        W44114   0.247  12.468  22.898  0.1550  0.0468  0.3106
 1062W        W44115   3.417  14.111  28.592 -0.1607 -0.2588  0.1431
 1063W        W44116   3.484  14.346   4.180 -0.2011 -0.1339 -0.0593
 1064W        W44117   6.353   4.601  15.168  0.0868 -0.0848 -0.0852
 1065W        W44118  32.411  11.245  16.110  0.1745  0.1814 -0.1071
 1066W        W44119  23.766  15.945  14.756 -0.0080  0.0493 -0.1230
 1067W        W44120  10.022  19.159  27.697 -0.0766 -0.0081  0.1827
 1068W        W44121  18.850   0.435  10.344 -0.1660  0.0428  0.1368
 1069W        W44122  34.602   9.762  17.757  0.3053  0.1172 -0.0371
 1070W        W44123  28.169  22.149   2.216  0.2356  0.0669  0.3544
 1071W        W44124  26.483   7.693  19.111 -0.1860  0.3057 -0.1809
 1072W        W44125  16.360  32.177  14.919 -0.0046 -0.3972 -0.0032
 1073W        W44126  17.727   5.567  22.431 -0.2613 -0.1776 -0.0272
 1074W        W44127  27.019  32.694   0.077  0.0270  0.1335  0.0226
 1075W        W44128   5.518  13.496  17.214  0.2517  0.2058 -0.2402
 1076W        W44129  23.802  11.163  21.986  0.1016  0.0854  0.1941
 1077W        W44130  27.520   8.781  16.109 -0.0680  0.1310  0.1766
 1078W        W44131  21.217  11.205  19.023 -0.0594  0.2565  0.0057
 1079W        W44132  17.645  26.903   4.325  0.4757  0.0994  0.0201
 1080W        W44133  24.097   0.638   0.600 -0.0937 -0.0269 -0.0435
 1081W        W44134  25.097   7.846  23.346 -0.1533  0.2284  0.0157
 1082W        W44135   1.065  10.386   9.504 -0.4241  0.0757  0.0413
 1083W        W44136  22.085  15.687   5.985  0.0667 -0.0505  0.0879
 1084W        W44137  30.714  14.823  19.980  0.0157  0.0858  0.2004
 1085W        W44138   5.166  33.845  19.308 -0.1114  0.2064 -0.0951
 1086W        W44139  33.547   2.354   2.958 -0.1993 -0.2009  0.0479
 1087W        W44140  31.552  15.256  14.606 -0.3496 -0.2342 -0.0698
 1088W        W44141  28.229  18.260  15.829  0.2849 -0.1196 -0.1810
 1089W        W44142  21.166   9.995  16.941  0.5185  0.1824  0.0703
 1090W        W44143  12.522  15.020  17.494  0.3039  0.1366 -0.0463
 1091W        W44144  17.611   8.310  18.211  0.0195  0.1895  0.4208
 1092W        W44145  25.824  31.892  17.777  0.0734  0.0489 -0.0915
 1093W        W44146  34.002  10.905   9.411 -0.2269  0.1012  0.3591
 1094W        W44147  23.874   2.126   4.746 -0.2917 -0.1181 -0.0198
 1095W        W44148   5.809  27.833  24.039  0.2627  0.1100 -0.0059
 1096W        W44149  32.979  33.305  26.490 -0.3744 -0.2272 -0.1519
 1097W        W44150  24.869  24.549  19.427 -0.3209  0.0246  0.0017
 1098W        W44151  19.911  14.212   8.306  0.0683 -0.1960 -0.1940
 1099W        W44152  27.690   8.403   0.107 -0.4627  0.3370 -0.1845
 1100W        W44153  31.456  12.808  17.633  0.3024 -0.1645 -0.1921
 1101W        W44154  34.642   9.068  23.534  0.1548  0.0436 -0.1690
 1102W        W44155  24.018   3.279   3.521 -0.0029 -0.0306  0.4415
 1103W        W44156  28.819  10.377  18.511 -0.0824  0.1434  0.1054
 1104W        W44157  19.943  25.549  26.645 -0.0359 -0.0636 -0.0791
 1105W        W44158   9.042  11.442  25.754  0.3420 -0.3451  0.2316
 1106W        W44159  16.087   2.374  27.437  0.1154 -0.0372 -0.0017
 1107W        W44160  25.134  10.051   3.579  0.1784  0.1105  0.1529
 1108W        W44161  34.284   1.407  17.528  0.0165  0.1575  0.1361
 1109W        W44162  18.499  13.953  24.376 -0.3731  0.0318  0.1037
 1110W        W44163  28.041  31.045  14.110  0.0629 -0.2059 -0.0607
 1111W        W44164  16.179   1.812  21.981  0.1357 -0.1662 -0.0351
 1112W        W44165  22.514   1.382   2.386  0.0257  0.0523 -0.1326
 1113W        W44166   6.428   6.436  26.000  0.2253 -0.0812 -0.0221
 1114W        W44167  21.043   4.016  16.945  0.0766  0.1830  0.0692
 1115W        W44168  26.860  28.151   6.978 -0.1465  0.0891 -0.1312
 1116W        W44169  11.475   1.171  19.280 -0.0497  0.0042  0.3483
 1117W        W44170  26.347  10.901   4.807  0.2319 -0.2197  0.3499
 1118W        W44171  32.188  12.972  26.577 -0.1768  0.1683 -0.3270
 1119W        W44172  20.356  30.121  25.484 -0.4009  0.2570 -0.1388
 1120W        W44173  15.665   4.495  14.355 -0.1890 -0.0730 -0.0237
 1121W        W44174  20.571   5.883   0.718  0.2278  0.2451  0.1810
 1122W        W44175   9.508  32.003   2.691  0.0651  0.0315  0.3276
 1123W        W44176  32.868  13.668  28.154 -0.0630 -0.2230  0.2486
 1124W        W44177  29.926   0.799  16.253 -0.0057 -0.0929  0.0687
 1125W        W44178  32.555  32.724  22.933  0.0774  0.3516 -0.0657
 1126W        W44179  27.156  30.215  19.460  0.2081  0.2102 -0.2608
 1127W        W44180   1.137   1.772  20.145  0.3858  0.3679 -0.0065
 1128W        W44181   8.135   1.985  22.685  0.1488 -0.1310  0.2312
 1129W        W44182  27.284  20.506  20.203 -0.0681  0.5879  0.1934
 1130W        W44183  19.136   4.140   0.712  0.0058 -0.0472  0.0469
 1131W        W44184   0.873  21.012  21.085 -0.4176  0.2672  0.2310
 1132W        W44185  33.167  26.777  23.273  0.0119  0.1425 -0.1057
 1133W        W44186  10.785   1.930   5.722 -0.1946  0.2126 -0.2379
 1134W        W44187  20.581  14.747  22.451 -0.0883 -0.2628  0.2211
 1135W        W44188  34.389  17.222  17.517  0.0858  0.0410  0.0597
 1136W        W44189  28.102   8.572  18.747  0.1803  0.0365 -0.1705
 1137W        W44190  17.910   8.703  22.984  0.2311  0.0133 -0.0731
 1138W        W44191   1.075  13.322  16.424 -0.3486  0.1257 -0.0678
 1139W        W44192  29.747  11.492  24.853  0.3325 -0.0023  0.2931
 1140W        W44193   6.923   9.441  25.383  0.0267  0.2240  0.0954
 1141W        W44194  27.712  28.335  18.635 -0.0862  0.2396  0.1997
 1142W        W44195  22.336  11.223  28.335  0.1513  0.0301 -0.2060
 1143W        W44196   9.525  34.454  18.655  0.1239 -0.0825  0.0653
 1144W        W44197   0.464   5.162   0.453 -0.1124  0.4119 -0.2960
 1145W        W44198  15.895  23.151  28.679 -0.0362  0.0381  0.0582
 1146W        W44199   2.429  15.298  16.363  0.2176 -0.1773 -0.1424
 1147W        W44200  25.778   2.150  21.910  0.0329 -0.1926  0.1216
 1148W        W44201  26.214  13.768  14.580  0.0126  0.2495  0.2974
 1149W        W44202  32.998  30.326   2.963 -0.0273  0.2016 -0.1693
 1150W        W44203  21.706  20.057  23.956 -0.0518  0.0675 -0.2116
 1151W        W44204  31.578  26.303   3.215 -0.2029  0.0456  0.4175
 1152W        W44205  26.701  22.497  24.530  0.1195  0.0361  0.0767
 1153W        W44206  15.726   5.978  20.122  0.1474 -0.0519  0.0430
 1154W        W44207  30.863   8.012  25.000  0.2984  0.2078 -0.2255
 1155W        W44208  33.809   6.272  19.950  0.0640  0.0176  0.2631
 1156W        W44209  22.205   0.924  19.927  0.0270 -0.1080  0.2563
 1157W        W44210  13.118   4.426  16.539 -0.1300 -0.4036  0.0774
 1158W        W44211   2.247   6.121  13.958  0.0037 -0.3386 -0.1851
 1159W        W44212  24.579   5.897  19.895 -0.0472  0.2180 -0.1156
 1160W        W44213  19.269  34.096  22.028 -0.2909  0.0507 -0.0132
 1161W        W44214  11.327  19.716   3.640  0.1371 -0.2437 -0.0066
 1162W        W44215  22.406   8.469   3.821 -0.0022  0.0850 -0.0697
 1163W        W44216   5.190  14.533  26.534 -0.0498  0.1031  0.1125
 1164W        W44217  19.275  23.939  26.736 -0.0379  0.1303 -0.2314
 1165W        W44218  16.722  27.050   0.865 -0.3032 -0.0494  0.1116
 1166W        W44219  17.994  10.607   8.546 -0.1784 -0.3164  0.2057
 1167W        W44220  32.547   7.335  20.712 -0.6493 -0.1582  0.1101
 1168W        W44221   0.033  10.983  16.781  0.0000 -0.1562 -0.1596
 1169W        W44222  21.841   8.325  26.103  0.1373 -0.1708 -0.0174
 1170W        W44223  19.085   2.278   5.657  0.0115 -0.2164 -0.0666
 1171W        W44224  29.540  12.356  18.879 -0.1411 -0.0983  0.2849
 1172W        W44225  19.166   0.681   7.948  0.1628 -0.0559  0.2642
 1173W        W44226  30.545  21.630  19.204 -0.1135 -0.3528 -0.0245
 1174W        W44227   6.211   1.303  18.413 -0.0882  0.0977 -0.1695
 1175W        W44228   1.484  32.142  27.620  0.2111 -0.3944 -0.0002
 1176W        W44229  29.323  24.457  24.146 -0.2049 -0.0910 -0.3235
 1177W        W44230  21.853   6.045   4.308 -0.4332  0.1706  0.0784
 1178W        W44231  24.484   2.720  29.057  0.3159 -0.1853 -0.0204
 1179W        W44232  20.392  10.784  28.421  0.0378  0.5609  0.1069
 1180W        W44233  16.707  28.867  15.661 -0.0968 -0.1726  0.2297
 1181W        W44234  21.502  29.518  28.588 -0.1245  0.2421 -0.1506
 1182W        W44235  10.305   0.054  24.038 -0.1406 -0.2855  0.0486
 1183W        W44236  17.008  13.130  20.268  0.0163  0.1237  0.2489
 1184W        W44237   1.406  26.007  28.171  0.2568  0.0601 -0.4131
 1185W        W44238  18.063  17.229   0.431 -0.0266  0.2029 -0.2349
 1186W        W44239   9.397   0.658  28.086  0.3425 -0.0587 -0.0147
 1187W        W44240  22.180  31.668  23.482 -0.2572  0.1228 -0.2594
 1188W        W44241  23.997  16.972  18.000 -0.2428 -0.0206  0.1069
 1189W        W44242  19.653   0.812  26.457  0.0533 -0.0739 -0.2448
 1190W        W44243  17.330   5.202  24.319  0.1408 -0.3950 -0.1270
 1191W        W44244  25.318  14.797  20.646  0.2414 -0.1559 -0.0572
 1192W        W44245  14.641   8.618  23.772  0.1067  0.0166  0.1278
 1193W        W44246  26.481   1.547  16.922 -0.0693  0.1359  0.0647
 1194W        W44247  31.011  19.233   5.562 -0.3574 -0.0186  0.0727
 1195W        W44248  17.650   6.590  21.167 -0.0407  0.0755 -0.2677
 1196W        W44249  18.320   1.239  27.152  0.2769  0.4026 -0.3357
 1197W        W44250  18.634  26.623  26.507 -0.1484 -0.1620  0.0827
 1198W        W44251  13.324  31.437  21.979 -0.2187 -0.4174  0.2009
 1199W        W44252  32.335  15.399  20.818 -0.0486  0.0497  0.0819
 1200W        W44253   2.229   4.229  26.140  0.1379 -0.1320 -0.0616
 1201W        W44254  23.312  25.902   8.990 -0.2019  0.0754 -0.2159
 1202W        W44255   7.775  17.041  15.302 -0.0753 -0.3863  0.1881
 1203W        W44256  16.540   4.450  15.870 -0.4076  0.0808  0.0917
 1204W        W44257   5.343   2.153  28.560  0.0876 -0.0779  0.2714
 1205W        W44258   8.053  23.609   4.926 -0.1913  0.0472  0.0275
 1206W        W44259   5.952  32.925  19.517  0.4484  0.0583  0.1167
 1207W        W44260  28.096  14.653  15.961  0.0891  0.0769  0.2944
 1208W        W44261  16.821  11.687  23.706 -0.3245 -0.1788  0.1424
 1209W        W44262  16.497  26.944  22.431  0.0787  0.0346 -0.2889
 1210W        W44263   9.494   8.123  24.189 -0.0535 -0.0298 -0.0946
 1211W        W44264  22.892  21.016   8.290 -0.1010  0.0077 -0.1564
 1212W        W44265  16.164   2.310   0.025 -0.0644  0.0941 -0.0765
 1213W        W44266  32.007  32.267  18.138 -0.2205 -0.1957  0.0665
 1214W        W44267  18.686   0.673  13.989  0.0519  0.2272 -0.0162
 1215W        W44268  15.290   0.356   0.496  0.3145  0.1937 -0.2764
 1216W        W44269  15.057  30.258  17.296 -0.0276 -0.1153  0.1956
 1217W        W44270   7.346  13.034  26.792  0.1924 -0.1351  0.0969
 1218W        W44271   0.908  31.286  16.539  0.1552 -0.0051 -0.0096
 1219W        W44272   7.651  10.437   0.505  0.0029  0.0475  0.2967
 1220W        W44273  11.933   2.878   0.370 -0.1460 -0.2987 -0.0280
 1221W        W44274  16.068  30.885   2.533 -0.1024  0.2344  0.1537
 1222W        W44275  20.117   4.797  20.028  0.1771 -0.2161  0.0850
 1223W        W44276  31.965  10.267  19.576  0.4543  0.2258  0.1414
 1224W        W44277   8.799  30.752   8.804 -0.2398 -0.0533 -0.0395
 1225W        W44278  14.928   8.191  15.522  0.0473 -0.1676 -0.2100
 1226W        W44279  15.895   4.830  15.105 -0.1302  0.0310 -0.1638
 1227W        W44280  18.737  33.620  26.750 -0.0438 -0.0602 -0.1812
 1228W        W44281  11.926  11.738  19.258 -0.0355  0.2816 -0.0779
 1229W        W44282  21.797   4.129  22.551 -0.0621 -0.2108  0.1274
 1230W        W44283  33.026  13.102  15.369 -0.1451 -0.0719 -0.0133
 1231W        W44284   3.944   4.116  27.549 -0.1719  0.0623  0.0933
 1232W        W44285  17.649  15.587  24.677 -0.3746 -0.2848  0.1666
 1233W        W44286  22.527  31.987   8.574  0.3357  0.0135  0.0296
 1234W        W44287  26.513  33.203   7.068  0.4477  0.2465  0.0502
 1235W        W44288  18.054   8.302  16.609  0.0427  0.1292 -0.1038
 1236W        W44289   6.237   4.955  20.211 -0.1408  0.4085 -0.1884
 1237W        W44290  18.587   0.437  26.514 -0.1276  0.1095 -0.2210
 1238W        W44291  18.145  28.288  24.468  0.1986 -0.2523  0.0396
 1239W        W44292  32.895  10.568  24.833  0.1691  0.3192 -0.0625
 1240W        W44293  20.360  11.508  27.884  0.0787 -0.1436 -0.2874
 1241W        W44294  34.538  31.775  21.325 -0.0498  0.0131  0.3070
 1242W        W44295  21.910   2.824  20.309  0.3293  0.2554 -0.1020
 1243W        W44296  24.206   1.619  15.502 -0.2215 -0.0984 -0.1924
 1244W        W44297  20.572  10.312  14.920  0.4101 -0.1380 -0.2616
 1245W        W44298   8.004  19.098   1.365 -0.0065 -0.1372 -0.2545
 1246W        W44299  17.686  14.289   2.909  0.0948 -0.0820  0.2371
 1247W        W44300  25.913  19.361  19.837  0.0781 -0.1673 -0.1127
 1248W        W44301  20.961  19.688  18.666 -0.2042 -0.1293  0.0964
 1249W        W44302  16.534  10.005  21.884 -0.1907 -0.2384  0.0157
 1250W        W44303  23.128  33.654   1.439  0.1861  0.1616 -0.0043
 1251W        W44304  28.780  10.000  16.026 -0.0695 -0.0507 -0.2324
 1252W        W44305  27.459  25.416   5.424  0.0303  0.2033 -0.1893
 1253W        W44306  30.974  14.857  28.002 -0.1695 -0.2212  0.1901
 1254W        W44307   8.640  21.622  27.041 -0.0800  0.0483 -0.0054
 1255W        W44308  26.841  15.302   1.301 -0.2384 -0.1098 -0.0267
 1256W        W44309  31.334   6.936  17.703 -0.1145  0.0201  0.0684
 1257W        W44310  18.977  12.507   5.331  0.1689  0.1177  0.0742
 1258W        W44311  29.923   2.552  20.844 -0.1983  0.0559  0.1759
 1259W        W44312  26.243   5.367   5.673  0.1067  0.1397 -0.2558
 1260W        W44313  33.945  16.031  10.495  0.1146  0.1375  0.1394
 1261W        W44314  11.913  20.052   4.211 -0.0319  0.2527 -0.0786
 1262W        W44315  20.481  13.693  22.604  0.1388 -0.0402 -0.0480
 1263W        W44316  31.037   3.574  23.474  0.2022  0.0455 -0.0006
 1264W        W44317  16.816  13.288  25.276 -0.1711  0.0867  0.0373
 1265W        W44318  21.981  18.718  19.965  0.1570  0.0507 -0.0906
 1266W        W44319   7.777   8.514  20.164  0.1397 -0.3648 -0.1524
 1267W        W44320  18.398  30.435   6.042 -0.1951  0.3013  0.1186
 1268W        W44321  20.570  33.505  20.662  0.0238  0.0894  0.2425
 1269W        W44322  14.700   7.178  23.526  0.1012  0.1195  0.1139
 1270W        W44323  19.326   4.037  11.091  0.1781  0.1761 -0.0838
 1271W        W44324  34.315  32.245  21.520  0.0072 -0.0539 -0.1569
 1272W        W44325  28.982  32.754   1.025 -0.1406 -0.2094 -0.2276
 1273W        W44326  31.176  21.632  14.473 -0.0894  0.1145 -0.0611
 1274W        W44327  27.961  32.798   4.840 -0.1177  0.0815 -0.0999
 1275W        W44328   0.560   2.237  20.730  0.4001 -0.1961 -0.1142
 1276W        W44329  25.127  11.448  25.389 -0.2467  0.0559 -0.0149
 1277W        W44330  21.395  12.084   9.892 -0.0317  0.2144 -0.0889
 1278W        W44331  20.667  25.430  17.579  0.0659  0.0220 -0.0167
 1279W        W44332  20.955  11.705   2.433  0.1976  0.0422  0.2591
 1280W        W44333  28.095  25.225   1.122 -0.0821 -0.1295  0.1500
 1281W        W44334  24.843  17.186  16.810  0.0255  0.0347  0.0610
 1282W        W44335  29.471   4.595   5.589  0.0491 -0.1054  0.1041
 1283W        W44336  32.997  25.551  19.740 -0.1398 -0.0058 -0.0523
 1284W        W44337  17.790   1.523  19.802 -0.0826 -0.1292 -0.0867
 1285W        W44338  17.476  32.090   4.760  0.0253  0.2085 -0.1520
 1286W        W44339  11.276  15.686  16.673 -0.2163 -0.2638  0.0266
 1287W        W44340  20.047  11.417  25.584 -0.4703  0.0555 -0.4131
 1288W        W44341  16.169   6.682   6.048 -0.0008 -0.0733  0.1296
 1289W        W44342  24.791  14.026  23.730 -0.1299 -0.0191  0.1125
 1290W        W44343  24.490   9.117  18.310  0.1857 -0.0540 -0.0396
 1291W        W44344   5.881  13.493  17.577 -0.0122  0.0762 -0.5488
 1292W        W44345  14.653   3.739  25.738 -0.2703 -0.0016 -0.4090
 1293W        W44346  26.921  30.387   4.575 -0.3064 -0.3042 -0.2094
 1294W        W44347  27.177   6.864   1.692  0.0800  0.0942  0.1196
 1295W        W44348  31.566  16.476   1.449  0.0974 -0.0083  0.2684
 1296W        W44349  24.377   6.544  28.468 -0.1808 -0.0770 -0.0294
 1297W        W44350  16.960   3.258  16.446 -0.0338  0.0739  0.1503
 1298W        W44351  27.597  15.692  26.465  0.1123 -0.2027 -0.2152
 1299W        W44352   0.038  15.856  26.717  0.0760 -0.1962 -0.0163
 1300W        W44353  26.889  18.446  19.293  0.1089 -0.1165  0.2377
 1301W        W44354  18.498   9.121  23.679 -0.2803  0.1016  0.1437
 1302W        W44355  24.273  11.554  27.512 -0.1111 -0.1998  0.0180
 1303W        W44356  25.865  13.059   0.557  0.3287 -0.2064  0.0574
 1304W        W44357  17.642  14.488  25.505  0.3821  0.1634  0.0488
 1305W        W44358  19.664  23.169   9.389 -0.0214  0.2578 -0.1266
 1306W        W44359   6.196  23.236  23.604 -0.0033 -0.0523 -0.1442
 1307W        W44360   6.196   9.283  26.259 -0.1079  0.1926 -0.3114
 1308W        W44361  20.026  10.267   6.173 -0.3218 -0.0588 -0.0969
 1309W        W44362  16.725  14.454  24.880 -0.0071 -0.0302  0.4348
 1310W        W44363  18.131  33.570   0.086  0.1187 -0.1137  0.3049
 1311W        W44364  17.478   9.590   0.498  0.1211 -0.2535 -0.2913
 1312W        W44365  18.033  11.824   0.133 -0.1065 -0.0160 -0.4369
 1313W        W44366  23.266   8.749  18.381  0.2095 -0.0519 -0.1353
 1314W        W44367  15.190  26.188   3.532 -0.2212 -0.0717  0.0688
 1315W        W44368  26.879  31.326  21.521  0.0731 -0.2139 -0.1965
 1316W        W44369  15.474  11.903   3.172 -0.0119  0.0619 -0.0522
 1317W        W44370  29.012  11.045  16.650  0.0871  0.2407 -0.1898
 1318W        W44371  17.625   7.354  14.770 -0.0366  0.1028 -0.0072
 1319W        W44372  18.921   9.383  26.000 -0.1107 -0.0166  0.4920
 1320W        W44373  33.949  20.407  18.990  0.1024 -0.0418  0.3505
 1321W        W44374  23.305   2.698  25.217 -0.2198 -0.2617  0.1982
 1322W        W44375   7.998  34.409  21.084 -0.2991 -0.1913 -0.0458
 1323W        W44376  26.176  16.884  26.448  0.0054 -0.2392 -0.1910
 1324W        W44377  20.889  32.066   2.484  0.1826  0.3925 -0.0817
 1325W        W44378  28.782   6.336  24.706  0.2983  0.1030 -0.1766
 1326W        W44379  21.558   1.651   5.416  0.0241  0.0570  0.1287
 1327W        W44380   7.717  10.972   6.491  0.1013  0.3759  0.3454
 1328W        W44381   2.317  13.748   6.384 -0.2015 -0.0038 -0.1305
 1329W        W44382   7.423  27.940  28.055  0.0165 -0.2204 -0.5626
 1330W        W44383   9.856  11.697   7.606 -0.0250  0.1285  0.0643
 1331W        W44384   0.748  11.308   1.703  0.1323 -0.2244  0.0324
 1332W        W44385  16.626  34.402  23.898 -0.3958  0.1080 -0.4399
 1333W        W44386  25.028  22.238   3.104 -0.2430  0.7138  0.2529
 1334W        W44387  13.689  14.346  17.696 -0.1192  0.2646  0.0007
 1335W        W44388  26.349  14.423  15.960 -0.0231 -0.3457  0.1109
 1336W        W44389  12.027   3.441  26.881  0.0816 -0.1044  0.0486
 1337W        W44390  29.130  29.322  21.529 -0.1126  0.2272 -0.0956
 1338W        W44391  21.438  32.135   7.495 -0.0756 -0.0734  0.1943
 1339W        W44392  34.405  32.311   0.070 -0.1046  0.0910 -0.3356
 1340W        W44393   2.592  12.047  15.421  0.0710 -0.1886  0.1776
 1341W        W44394  30.790   0.126  15.714 -0.1353 -0.4185  0.0808
 1342W        W44395  20.057   8.387  27.133 -0.0834  0.1263 -0.0869
 1343W        W44396  24.620   8.595  17.593 -0.1309 -0.0647  0.0769
 1344W        W44397   3.281   1.962  19.816 -0.0787  0.0797  0.1037
 1345W        W44398  24.917  31.161   2.276  0.3904 -0.2537 -0.3332
 1346W        W44399  18.904  20.607  20.874  0.0088 -0.0334 -0.0853
 1347W        W44400  21.486  12.280  16.910 -0.1335 -0.3053  0.0252
 1348W        W44401  14.341   4.057   7.408 -0.1372  0.0250 -0.0003
 1349W        W44402  23.082   3.972   2.931 -0.2701  0.1317 -0.2020
 1350W        W44403  19.446   7.171  23.923  0.0713 -0.1880 -0.1814
 1351W        W44404   2.006  16.237  24.824 -0.0374 -0.1635  0.2932
 1352W        W44405  25.690  31.726   7.220  0.1472 -0.0135  0.0766
 1353W        W44406  31.172  12.925  10.120  0.2570  0.1550  0.0498
 1354W        W44407  17.429  23.926  21.405 -0.0807 -0.3768  0.0404
 1355W        W44408  20.946   7.606   7.319  0.2657 -0.3737  0.1893
 1356W        W44409  30.106   5.203  19.122 -0.1328 -0.0891 -0.1470
 1357W        W44410  18.725   5.854  16.226 -0.3564 -0.0610  0.0558
 1358W        W44411  32.453  26.508  14.459  0.1471  0.1993 -0.4643
 1359W        W44412  20.425   9.475  10.005 -0.0404  0.1469  0.1999
 1360W        W44413  13.850   4.743  14.420 -0.1219 -0.0152  0.0188
 1361W        W44414  17.348   6.267  18.563 -0.1080 -0.0007 -0.1234
 1362W        W44415  23.221   3.911  20.845  0.4743  0.2085 -0.0296
 1363W        W44416  30.361   9.106  22.521 -0.0204 -0.0454  0.1129
 1364W        W44417   3.829  12.549  20.697 -0.1347 -0.1208  0.1339
 1365W        W44418  29.804   3.291  18.711 -0.0680 -0.1542  0.0339
 1366W        W44419  21.736  14.688  24.450 -0.1430 -0.2282 -0.1313
 1367W        W44420  24.085   8.660  15.805 -0.1410  0.4253  0.0842
 1368W        W44421  26.345   7.028  20.838 -0.3632 -0.0072 -0.1596
 1369W        W44422  31.429  33.739   7.525 -0.1195  0.0186 -0.0136
 1370W        W44423  22.771  32.917  26.810 -0.0556 -0.2507  0.0667
 1371W        W44424  30.432  29.158   6.067 -0.1462  0.1987  0.1220
 1372W        W44425  30.034   5.643   6.118  0.1524 -0.1038  0.2788
 1373W        W44426   1.308  34.319   2.865  0.4042 -0.2221  0.1022
 1374W        W44427  25.537   8.499  27.827  0.2122  0.3237 -0.0132
 1375W        W44428  16.372   6.106   0.437 -0.1727 -0.0711  0.1014
 1376W        W44429   8.427  14.938  22.535 -0.1131 -0.0634  0.1707
 1377W        W44430  23.549  15.814  13.805 -0.3287  0.3178  0.0739
 1378W        W44431  15.389   2.025  13.937  0.2594 -0.5003  0.4855
 1379W        W44432  26.697   0.757  19.745 -0.1896 -0.1028 -0.0709
 1380W        W44433  29.276  24.192  10.508 -0.3294  0.0643 -0.0592
 1381W        W44434  27.271   5.160   6.839  0.1242 -0.2317  0.0804
 1382W        W44435  28.290  20.911  22.753  0.2438  0.0359 -0.1270
 1383W        W44436  27.596  26.301   7.683 -0.3417 -0.2736  0.0864
 1384W        W44437  27.657   8.119  23.471 -0.2410  0.1277 -0.2075
 1385W        W44438  25.076  28.418  20.926  0.1746 -0.1603 -0.1499
 1386W        W44439   2.136   1.807  25.023  0.0867 -0.0790  0.1651
 1387W        W44440  30.319  13.231  25.422  0.0591  0.1496 -0.2182
 1388W        W44441  26.462  16.944   2.647 -0.0236  0.2957  0.2152
 1389W        W44442   0.759   1.285   1.997 -0.2610 -0.3076 -0.1720
 1390W        W44443  32.516   5.927   1.331 -0.2056  0.1193  0.0870
 1391W        W44444  14.432  31.616  16.786 -0.0516  0.0546  0.1586
 1392W        W44445  32.333   0.125  25.127 -0.2967 -0.1820  0.2078
 1393W        W44446  27.488   9.334  27.417 -0.2365  0.1180  0.0912
 1394W        W44447  31.730  27.536   7.977 -0.1836 -0.0666  0.2114
 1395W        W44448  25.940   6.960  26.218  0.0777  0.0363 -0.0699
 1396W        W44449  28.886  31.142  25.265 -0.1742 -0.3315 -0.0762
 1397W        W44450   5.284   4.315  27.669 -0.0975 -0.0812  0.3067
 1398W        W44451  25.029  22.222  24.708 -0.1850 -0.0472  0.2254
 1399W        W44452  24.171   0.907  10.341 -0.3006  0.2487  0.1174
 1400W        W44453  15.581  31.913   3.551 -0.0064 -0.2769  0.0441
 1401W        W44454  30.526   4.124   5.757  0.0928  0.0417 -0.1962
 1402W        W44455  11.327  18.128  21.781 -0.0630  0.2013 -0.1282
 1403W        W44456  14.405  34.589  28.144  0.2127  0.2367 -0.0357
 1404W        W44457  10.755   7.519   4.787  0.1471 -0.2700 -0.1477
 1405W        W44458  31.153  20.348  29.049 -0.0003 -0.0626 -0.2901
 1406W        W44459  23.012   8.546  27.141 -0.2516  0.0032 -0.2345
 1407W        W44460  34.562   5.224  27.448 -0.0597 -0.0627 -0.0054
 1408W        W44461  14.283  31.285  23.087 -0.0005 -0.0813  0.1774
 1409W        W44462  34.464  33.082   0.010  0.1571 -0.1821 -0.0703
 1410W        W44463  27.689   5.348  20.177 -0.2762  0.2906 -0.0547
 1411W        W44464  26.001  32.209  19.422  0.0805  0.1983  0.0043
 1412W        W44465  20.269  21.038  21.170 -0.1484 -0.1659  0.0580
 1413W        W44466  25.955   5.704  23.102 -0.1341  0.2437  0.1304
 1414W        W44467  31.195  33.080  28.188  0.1838  0.1938 -0.1056
 1415W        W44468  26.678  31.811  18.918 -0.0899 -0.2083 -0.1604
 1416W        W44469  31.379   8.384  15.225  0.2168 -0.3384 -0.1009
 1417W        W44470   0.405   6.093   6.099  0.0551 -0.0212  0.1148
 1418W        W44471  13.100   4.503  21.544 -0.2708  0.2552  0.2330
 1419W        W44472  21.200  14.084  27.848  0.0317 -0.0389 -0.0492
 1420W        W44473  20.817   8.066  24.639 -0.1626 -0.0642 -0.1402
 1421W        W44474  12.639  34.158   5.795 -0.0831  0.0422 -0.1769
 1422W        W44475  26.154  31.744  28.704  0.1105  0.0004  0.0833
 1423W        W44476   3.119   6.562  14.059  0.0298  0.0710 -0.3450
 1424W        W44477  29.122  29.784  20.671  0.0589 -0.1507  0.2229
 1425W        W44478  15.670  24.876  21.519 -0.0880  0.0112  0.0196
 1426W        W44479   8.613  25.785  28.347  0.1748 -0.1988  0.4553
 1427W        W44480  33.799  31.912  20.019  0.1381 -0.1891  0.0643
 1428W        W44481  18.378  32.531   9.044 -0.1104 -0.1425 -0.1729
 1429W        W44482   3.765  22.284  21.286  0.4303 -0.2112 -0.2258
 1430W        W44483   5.244  32.935  23.293  0.1049 -0.3251 -0.0132
 1431W        W44484  31.219  12.269   1.401 -0.0815 -0.0360 -0.2100
 1432W        W44485   6.117  11.710  26.572 -0.0069 -0.0316 -0.3440
 1433W        W44486  33.135  10.746  19.382 -0.0313 -0.2088  0.0124
 1434W        W44487  16.424  21.863  16.594  0.0463  0.0918  0.3416
 1435W        W44488   3.918  22.027  19.160  0.1544 -0.0407  0.0428
 1436W        W44489  25.745   8.393  21.121  0.1109  0.1852  0.3302
 1437W        W44490  12.322  16.920  24.349  0.5130 -0.1703 -0.0908
 1438W        W44491  20.871  15.343   8.136 -0.0166  0.0079  0.3048
 1439W        W44492  18.077  33.048  24.237 -0.1095 -0.0287 -0.3911
 1440W        W44493   8.957  32.805   1.922 -0.3532  0.1685 -0.4423
 1441W        W44494   5.297   7.454   0.255 -0.0653 -0.2106  0.0816
 1442W        W44495  22.546   4.385   4.359 -0.2004 -0.1514 -0.0451
 1443W        W44496  34.687   2.772   5.645 -0.0287  0.1026  0.4297
 1444W        W44497  22.101  11.051  10.353  0.2778 -0.2676 -0.1998
 1445W        W44498  22.434  25.420   7.838 -0.0874  0.0525  0.0604
 1446W        W44499  21.423   6.659  24.578  0.1502  0.1677 -0.0799
 1447W        W44500  28.902  33.099   5.801  0.1259 -0.0693  0.0560
 1448W        W44501  30.421   7.519  25.645 -0.1841  0.1973  0.0456
 1449W        W44502  30.958   8.276  20.496  0.3915  0.0102  0.0380
 1450W        W44503  28.182   9.305  16.281  0.3233  0.4670 -0.1380
 1451W        W44504  13.401  18.881  15.717  0.0066  0.2334  0.1076
 1452W        W44505  23.706  24.225  28.806 -0.2858 -0.0710 -0.1181
 1453W        W44506  18.648  13.791   6.534 -0.0685  0.0093 -0.0219
 1454W        W44507  25.369   3.163  24.300 -0.3683  0.2350  0.1626
 1455W        W44508  29.413  12.594   5.929  0.2202 -0.1210  0.1569
 1456W        W44509  17.776  32.144  26.616  0.1286  0.1499  0.0247
 1457W        W44510  17.438  29.351   0.952  0.2085 -0.0448  0.1668
 1458W        W44511   5.641   1.336  28.725 -0.0811  0.1965 -0.1430
 1459W        W44512  13.157  16.134  28.431 -0.1593 -0.1270  0.2358
 1460W        W44513  12.603  23.892  20.021 -0.0619  0.1913  0.1512
 1461W        W44514   1.737   3.831  14.266  0.0811 -0.1520 -0.1886
 1462W        W44515  16.605   1.213   3.973 -0.0385  0.0222 -0.0365
 1463W        W44516  14.973   6.462  27.107  0.3528  0.2266 -0.2173
 1464W        W44517  22.805  31.844  15.164 -0.0024  0.0147 -0.2274
 1465W        W44518  20.319  27.388   6.733 -0.0798  0.0714 -0.1671
 1466W        W44519  17.435  11.918   2.483 -0.0976  0.1595  0.1048
 1467W        W44520  10.341   9.517   6.409 -0.1076  0.1786  0.0887
 1468W        W44521  26.172  34.308  24.589 -0.0301  0.0802  0.1033
 1469W        W44522  16.875   0.424  20.808  0.0285  0.0934  0.1527
 1470W        W44523   4.886  19.503   1.380 -0.1313 -0.2129 -0.2244
 1471W        W44524  23.369  31.543  10.235 -0.3906 -0.1980  0.2329
 1472W        W44525  23.647  12.169   2.046  0.1730 -0.2167 -0.1536
 1473W        W44526  25.530  15.510  22.714 -0.1440  0.0211 -0.0384
 1474W        W44527  33.165  15.066  18.544  0.0580 -0.0400  0.0132
 1475W        W44528  30.649  18.384   3.779 -0.1294 -0.1499  0.1032
 1476W        W44529  28.168  22.455  26.773 -0.2788  0.1608 -0.0187
 1477W        W44530  21.761  17.120  23.455 -0.3809  0.1757 -0.1831
 1478W        W44531  30.228   7.322  10.061 -0.0623 -0.2815 -0.1604
 1479W        W44532   7.367  19.819   4.187 -0.2841 -0.0231 -0.2180
 1480W        W44533  16.071   7.315  21.437  0.1670  0.0007 -0.0219
 1481W        W44534  24.949  16.492   9.553  0.0986  0.0218  0.1904
 1482W        W44535  26.484   8.175   5.569  0.0148  0.1229  0.3761
 1483W        W44536  28.943  16.090  26.156 -0.2464  0.0295 -0.4454
 1484W        W44537  15.271  23.381   1.058  0.0886  0.1563  0.1555
 1485W        W44538   1.850   5.515  16.939 -0.1820 -0.0330 -0.0262
 1486W        W44539  21.182  18.188  14.742 -0.0678  0.1989 -0.0063
 1487W        W44540  29.424  15.543   1.040 -0.2047 -0.2405  0.2134
 1488W        W44541  20.822   5.474  17.445 -0.0045  0.2794 -0.5587
 1489W        W44542  21.356   6.722  23.856 -0.1680  0.1805  0.1195
 1490W        W44543  31.009  14.598  18.233  0.0189  0.1644 -0.0139
 1491W        W44544  33.169   3.610   9.724 -0.0172 -0.5164  0.1072
 1492W        W44545   5.154  29.224  27.599 -0.0732  0.0506 -0.2562
 1493W        W44546  19.681  31.229   9.083  0.0102 -0.1667 -0.1621
 1494W        W44547   5.427  30.069  24.198  0.5244  0.2783 -0.1703
 1495W        W44548   4.120   7.312  13.902 -0.1113  0.3322  0.1821
 1496W        W44549  25.204  14.148  18.629 -0.4512 -0.1454  0.0870
 1497W        W44550  15.773  33.709  14.003  0.0426  0.2009  0.2394
 1498W        W44551  14.360  31.040   0.201  0.0928  0.1363  0.4859
 1499W        W44552   8.595   7.799  10.421 -0.2144  0.0161  0.2065
 1500W        W44553  14.518  21.755   6.783 -0.0577 -0.2335  0.0160
 1501W        W44554  22.634  13.709  16.902  0.1743 -0.1312  0.0527
 1502W        W44555  22.368  25.579  23.710  0.0629 -0.3753 -0.1166
 1503W        W44556  13.946  22.132   5.531 -0.3329  0.0481  0.0398
 1504W        W44557  12.318   7.564   6.853 -0.1216  0.0938 -0.2160
 1505W        W44558  28.552   8.677   6.843 -0.0554  0.1378 -0.2417
 1506W        W44559  31.618  33.004   1.653  0.2202  0.0569  0.0474
 1507W        W44560  18.512   6.241  18.434  0.5326 -0.1223  0.0512
 1508W        W44561  23.140  19.667  18.060 -0.1171 -0.1167  0.0187
 1509W        W44562   8.271   3.393   8.865 -0.1536  0.0101 -0.3936
 1510W        W44563  29.627   8.217  18.616  0.1140 -0.0994  0.1577
 1511W        W44564  14.323  30.970  19.995 -0.1098  0.2189 -0.0407
 1512W        W44565  20.279  12.793   8.806  0.1754 -0.2434  0.6175
 1513W        W44566  15.324   8.938   0.790  0.2300 -0.1957 -0.0513
 1514W        W44567  12.222   6.972   7.252  0.0709 -0.1322 -0.1717
 1515W        W44568   3.630  11.518  25.798 -0.1436 -0.0933  0.1463
 1516W        W44569  15.608  26.534  20.125  0.2026 -0.1570  0.0541
 1517W        W44570  30.494  26.314  26.999  0.0299  0.1808  0.0353
 1518W        W44571   0.603  24.127  28.539  0.0548 -0.1521  0.0899
 1519W        W44572  18.122  26.210   7.661 -0.0205 -0.1948  0.0956
 1520W        W44573  16.419  11.591  27.480  0.2050 -0.0228  0.3847
 1521W        W44574   4.771  10.463  26.432  0.0975  0.1095  0.2104
 1522W        W44575  29.128  21.361   4.911  0.2503  0.1031 -0.1807
 1523W        W44576  22.151  15.592   0.134  0.1051  0.0911  0.0546
 1524W        W44577  13.690  24.180  29.063 -0.2320 -0.0854 -0.0200
 1525W        W44578  27.295   3.221  21.426 -0.0115 -0.1040 -0.0830
 1526W        W44579   7.943   0.271   3.102 -0.0043  0.0007 -0.1456
 1527W        W44580  34.176   4.409   2.173 -0.1102  0.1087 -0.0611
 1528W        W44581  27.942   5.678  18.367 -0.0482 -0.1430 -0.2868
 1529W        W44582  21.069  17.128  25.864  0.3177 -0.0717  0.2760
 1530W        W44583  26.647  28.183  22.165  0.0309 -0.0266  0.0905
 1531W        W44584  11.153   7.511  25.712 -0.1209 -0.1168 -0.3675
 1532W        W44585  22.720  28.964   1.815  0.1974 -0.0927  0.0101
 1533W        W44586  17.644  30.697   2.521 -0.2061 -0.1159  0.3391
 1534W        W44587  19.513   8.070   1.253  0.0206  0.0237  0.1764
 1535W        W44588   4.713   2.505  26.959  0.3928 -0.3509 -0.0015
 1536W        W44589  23.524   7.392  24.440 -0.0981 -0.0782  0.1151
 1537W        W44590  11.898  12.988   2.645 -0.1455  0.1899  0.2729
 1538W        W44591   4.357   5.407  22.004 -0.1567 -0.1070 -0.3147
 1539W        W44592  13.864  24.249   1.481 -0.0043 -0.1174 -0.0682
 1540W        W44593  16.234  23.050   9.273 -0.0538 -0.0627  0.0279
 1541W        W44594  20.214  26.120   4.327  0.1853 -0.0691 -0.3393
 1542W        W44595  26.072   6.329  10.480 -0.0428 -0.3720 -0.1716
 1543W        W44596  21.988  13.725  24.396  0.1432 -0.0569 -0.1335
 1544W        W44597   6.896  23.426  21.798  0.2744  0.1129  0.0934
 1545W        W44598   4.879  12.954  15.179 -0.1044 -0.0322  0.0521
 1546W        W44599  28.106   7.401   1.444  0.1309 -0.2155  0.0545
 1547W        W44600  20.711   3.678  17.793  0.0134  0.0647  0.2604
 1548W        W44601  21.782  22.699  17.303  0.3671 -0.0351 -0.0880
 1549W        W44602   2.717   6.312   8.732 -0.1855 -0.2829  0.0648
 1550W        W44603   1.218  11.403  22.941  0.0282 -0.0501 -0.1049
 1551W        W44604  23.086   1.323  19.696 -0.2058  0.0522  0.3415
 1552W        W44605   4.159   3.864  18.017  0.0243 -0.2461  0.1014
 1553W        W44606  10.025  16.200   1.655 -0.2072  0.3546  0.2703
 1554W        W44607  25.937  17.987  20.279 -0.1773 -0.1948  0.1212
 1555W        W44608  17.942  34.404   8.837 -0.2116 -0.0315  0.2619
 1556W        W44609  14.547  29.611  15.113 -0.1531 -0.2641  0.0810
 1557W        W44610  27.594   6.994  18.026 -0.0207  0.0923  0.0042
 1558W        W44611  12.566   2.896  25.573  0.2149 -0.1809  0.2563
 1559W        W44612  27.774  29.583  25.315 -0.0070  0.2903 -0.1190
 1560W        W44613   9.685  23.478  15.492  0.4087 -0.0985 -0.4403
 1561W        W44614  34.675   2.963  14.163  0.1802 -0.0105 -0.3408
 1562W        W44615  27.020   0.141  22.164 -0.1012 -0.0155 -0.0891
 1563W        W44616  17.647  24.984   4.631 -0.0762 -0.1216 -0.0733
 1564W        W44617   0.202  34.282  23.824 -0.3255 -0.3619 -0.2523
 1565W        W44618  30.988  21.406  19.393  0.1243 -0.2729 -0.1461
 1566W        W44619   0.169   4.859  24.619 -0.0850  0.2613  0.1517
 1567W        W44620  23.652   1.055  29.150  0.1509 -0.0598  0.2470
 1568W        W44621  16.519   4.264  22.413  0.1874 -0.0752 -0.2781
 1569W        W44622   6.290  23.649  20.745  0.1515 -0.1491  0.0128
 1570W        W44623  29.082  15.462  25.455 -0.0100  0.1257 -0.2138
 1571W        W44624  21.963  33.845   4.268 -0.0553  0.3636 -0.0915
 1572W        W44625   0.833  12.410  27.156  0.1207  0.1162  0.0641
 1573W        W44626   1.891  15.137  13.944 -0.1803 -0.0913  0.2799
 1574W        W44627  21.909  23.633  23.044  0.2601  0.1741  0.2877
 1575W        W44628  29.245   0.230   4.214  0.2044  0.1221 -0.0334
 1576W        W44629   8.988   6.923  22.969 -0.0234 -0.0620  0.3925
 1577W        W44630  13.775  29.064   5.818 -0.3867 -0.0100  0.0018
 1578W        W44631  22.062   5.302  27.023  0.2806 -0.1366  0.0373
 1579W        W44632   9.947   0.318   4.086  0.1530 -0.1334 -0.0712
 1580W        W44633  26.387  34.337   0.104 -0.1734 -0.1462  0.0594
 1581W        W44634  21.857  26.418  16.895  0.0757  0.1705  0.1872
 1582W        W44635  32.894   0.171  15.403 -0.1932 -0.0536 -0.1501
 1583W        W44636  16.794  31.222   3.100 -0.1449 -0.0343 -0.2758
 1584W        W44637  14.889  11.547  18.856  0.3448  0.2084  0.0426
 1585W        W44638   2.640   0.608   8.032 -0.2371  0.2154  0.0332
 1586W        W44639  13.052  29.010   8.774 -0.1740 -0.1357  0.0922
 1587W        W44640  20.088  14.496  15.707 -0.2902  0.0054 -0.3380
 1588W        W44641  17.634   4.056  25.052  0.2948  0.3713 -0.0597
 1589W        W44642  31.884   7.467  23.277 -0.1329 -0.1731  0.2714
 1590W        W44643  32.064  22.340  17.985  0.0786 -0.3643 -0.1114
 1591W        W44644  24.750   8.921   6.679  0.1085 -0.0377  0.3028
 1592W        W44645  26.211  12.315   9.918 -0.3583  0.0859 -0.0245
 1593W        W44646  23.206   7.323   8.273 -0.3889  0.3437 -0.0172
 1594W        W44647   9.005   9.864  27.751 -0.1202 -0.0906 -0.1421
 1595W        W44648  19.406  18.603  22.723  0.4831 -0.2406  0.1513
 1596W        W44649  31.527  13.750  22.022  0.2594 -0.0105  0.0421
 1597W        W44650  14.521   9.056   9.239  0.0362 -0.0390 -0.0060
 1598W        W44651  15.648  32.086   4.324 -0.1764 -0.0205 -0.1725
 1599W        W44652  19.676  27.842  17.432 -0.3031  0.3634 -0.1141
 1600W        W44653   4.968   4.184   4.808  0.1032 -0.0743 -0.2010
 1601W        W44654  31.105   0.716   3.189  0.2365  0.5262 -0.1489
 1602W        W44655   8.876  34.443   1.201 -0.3489 -0.0116  0.2970
 1603W        W44656  20.290   0.033   1.993  0.3241 -0.0875 -0.1268
 1604W        W44657  33.209  10.030  22.528 -0.1469 -0.1716  0.1875
 1605W        W44658  17.150   8.064  17.254 -0.3089  0.1621  0.0024
 1606W        W44659  32.852  11.331   4.935  0.3625 -0.0146 -0.0210
 1607W        W44660   3.990  17.332   7.073  0.0366 -0.0309  0.0863
 1608W        W44661  18.026   6.587  22.790  0.2777 -0.2728  0.0178
 1609W        W44662  31.090  14.737  16.789  0.0123  0.1031  0.0035
 1610W        W44663  31.593  29.025   0.183 -0.0502  0.0753  0.2656
 1611W        W44664  29.137   9.780   0.605 -0.0444  0.0066 -0.0507
 1612W        W44665  26.642  33.477  19.426  0.0269 -0.2097 -0.1436
 1613W        W44666  20.533  13.905  22.064 -0.4093 -0.0675 -0.0944
 1614W        W44667  31.497   6.193   5.067  0.0879  0.0173  0.1856
 1615W        W44668   5.026   3.151  25.989  0.0376  0.0849  0.1476
 1616W        W44669   4.018   5.402   3.172  0.0734 -0.2270  0.0288
 1617W        W44670  16.520  12.758   9.608 -0.2656  0.1278  0.0003
 1618W        W44671  23.447   3.623   3.772  0.0962 -0.2976 -0.0136
 1619W        W44672   4.903   5.165  21.272  0.1194 -0.1408 -0.1271
 1620W        W44673  26.766  24.026   9.105 -0.1797 -0.0169  0.1594
 1621W        W44674  12.748  16.381  24.980  0.1070  0.2503 -0.0443
 1622W        W44675  22.091  30.007   2.492 -0.1684 -0.0437 -0.2173
 1623W        W44676  27.807  30.686   1.381  0.1020 -0.3202 -0.3288
 1624W        W44677   9.731   4.124  24.067 -0.0390  0.1625 -0.0058
 1625W        W44678  12.665  13.039   5.853  0.1972 -0.1291 -0.1352
 1626W        W44679  15.234   6.013  19.173  0.1035  0.4131  0.3483
 1627W        W44680  27.986  11.019  17.052 -0.0456  0.0857  0.0825
 1628W        W44681  16.626  12.664   6.522  0.1055  0.1273 -0.3104
 1629W        W44682  15.015  15.875  28.077 -0.3076  0.1268  0.0855
 1630W        W44683  14.276  34.521  26.741 -0.2327  0.0604  0.3491
 1631W        W44684  14.447  34.622  24.302 -0.1036  0.3092  0.0229
 1632W        W44685  22.361  18.418  18.709  0.0907 -0.0435  0.1667
 1633W        W44686  28.546  29.109  18.508  0.0743  0.5858  0.2245
 1634W        W44687  31.515   6.922  28.380  0.1551 -0.3147 -0.0258
 1635W        W44688  23.941  32.747   3.347 -0.2125  0.0777  0.2209
 1636W        W44689  17.282  15.225  13.541 -0.0691  0.0286  0.1187
 1637W        W44690  30.000  15.838   7.996  0.0793  0.0612  0.1268
 1638W        W44691  33.879  14.623  16.945 -0.1868 -0.3067 -0.1022
 1639W        W44692  22.371   1.101  23.699  0.0521 -0.0616 -0.0121
 1640W        W44693  13.615  24.927  17.894 -0.1625 -0.0060 -0.0887
 1641W        W44694  31.043   3.071   0.080 -0.1539 -0.0062  0.0255
 1642W        W44695  31.939  16.740  19.291  0.0363  0.0800  0.0965
 1643W        W44696  30.769  33.264  28.405 -0.1165 -0.0015 -0.1924
 1644W        W44697  21.018  25.798  24.999  0.0879 -0.1099 -0.0734
 1645W        W44698  30.971   1.991   3.789 -0.1698  0.1092 -0.1249
 1646W        W44699  25.359   3.844  21.124  0.1773 -0.0066  0.0673
 1647W        W44700   5.425   8.965  23.815 -0.1614  0.1922 -0.1468
 1648W        W44701   6.193  10.903   3.132 -0.0282  0.2028  0.2445
 1649W        W44702  19.572   0.689  10.018  0.1937  0.0156 -0.1093
 1650W        W44703  27.139  34.483  18.233  0.0787  0.1510  0.2772
 1651W        W44704  17.671   7.283  21.963 -0.0906 -0.0029  0.1178
 1652W        W44705  25.821   5.552   6.034 -0.4824  0.1718 -0.1471
 1653W        W44706  25.354  21.956   8.635 -0.1884  0.0564  0.1665
 1654W        W44707  14.579   3.612  18.402 -0.2986 -0.2619  0.0017
 1655W        W44708  21.894   8.767   4.021  0.2276  0.3795 -0.2936
 1656W        W44709  34.186  13.633   9.673 -0.0148  0.0132 -0.0417
 1657W        W44710  26.140   3.602   3.245  0.1398 -0.0451 -0.0331
 1658W        W44711   9.206  16.282   1.828 -0.3810  0.2474 -0.2033
 1659W        W44712  23.372   0.214   2.329  0.1059  0.0550 -0.1578
 1660W        W44713  20.031  10.236   7.675  0.1265 -0.0157  0.1519
 1661W        W44714   2.193  15.442   8.346 -0.0334 -0.1066 -0.1682
 1662W        W44715  28.138  15.559   3.847 -0.2190  0.3609 -0.0628
 1663W        W44716  21.043  26.704   0.009  0.2237  0.0833 -0.1142
 1664W        W44717  29.893   1.604  18.111 -0.2279 -0.0266 -0.0341
 1665W        W44718  25.092  28.670   5.775 -0.0708  0.0704  0.1432
 1666W        W44719  12.180  25.738   4.409 -0.2913 -0.2069  0.0590
 1667W        W44720  29.157  26.652   5.115 -0.1628  0.3102 -0.0077
 1668W        W44721  22.486  17.580  23.037  0.1163 -0.1149  0.0798
 1669W        W44722  31.826  27.473   2.224  0.1122 -0.1419  0.0666
 1670W        W44723  34.554  32.741  23.191 -0.2130 -0.0341 -0.2602
 1671W        W44724   5.500  18.846  23.669  0.1093 -0.1098 -0.0804
 1672W        W44725  26.751   0.948   0.168 -0.0735  0.1721  0.0444
 1673W        W44726  20.826  32.691  22.058  0.0491  0.1052  0.0938
 1674W        W44727  19.685  28.895   3.216 -0.0774 -0.1314  0.0959
 1675W        W44728  17.635  30.353   7.514 -0.2533 -0.0087 -0.1957
 1676W        W44729   6.807   3.635  21.513 -0.0980  0.0670  0.0965
 1677W        W44730   2.209  22.133   4.499 -0.0210  0.2963  0.1237
 1678W        W44731  18.389   5.430  27.959 -0.2665  0.0410 -0.2657
 1679W        W44732  16.475   1.370  24.307  0.1764  0.3346  0.0102
 1680W        W44733  11.098   2.981  23.017  0.1690 -0.2437  0.1804
 1681W        W44734  23.534   9.360  24.036 -0.0842 -0.0680 -0.3477
 1682W        W44735   7.922  26.205   6.311 -0.0046 -0.1447 -0.0006
 1683W        W44736  30.136  15.400   9.607 -0.0713  0.1193 -0.0726
 1684W        W44737  20.568  10.276   3.274 -0.0115  0.0463 -0.0845
 1685W        W44738  22.907  22.059  27.231 -0.0944 -0.0231  0.2826
 1686W        W44739  21.885   3.046  14.592  0.0472  0.4104  0.0428
 1687W        W44740  31.416   4.542   6.721  0.3282  0.2189 -0.2135
 1688W        W44741   9.966  19.147   2.530 -0.1014  0.2635  0.0943
 1689W        W44742  34.192  29.869   5.795  0.3641  0.0171 -0.0659
 1690W        W44743   7.926   1.533   8.699  0.0240  0.0942 -0.0846
 1691W        W44744  26.435   0.677   2.087 -0.0016 -0.0261 -0.0081
 1692W        W44745  22.977  31.583   9.458 -0.0086  0.0487  0.2069
 1693W        W44746  34.409   9.283   7.088  0.1078 -0.1245 -0.1332
 1694W        W44747  25.004   3.817   7.577 -0.0940  0.0922  0.0541
 1695W        W44748  29.560  28.321  28.340  0.0495  0.2371  0.1106
 1696W        W44749  32.686  23.936  20.359 -0.0552  0.0783 -0.1925
 1697W        W44750   6.986  21.323  25.935 -0.0326 -0.2853  0.1079
 1698W        W44751   8.609   9.196  14.770 -0.1510 -0.0607 -0.1565
 1699W        W44752  13.246  26.733  20.816 -0.1472 -0.0993  0.0293
 1700W        W44753  30.886   5.260  16.395 -0.2579  0.0052 -0.1501
 1701W        W44754  27.858   4.693  24.663 -0.2511  0.0462 -0.2356
 1702W        W44755  22.355  21.273   0.383  0.4709  0.1457  0.0914
 1703W        W44756  25.839  16.126   7.415 -0.0505  0.0063  0.1532
 1704W        W44757  25.474   0.996  21.786  0.0850 -0.0887 -0.0126
 1705W        W44758  23.625   3.368  22.751  0.1572  0.1326  0.0533
 1706W        W44759  13.568  31.775  23.706 -0.3377 -0.0320 -0.3286
 1707W        W44760  29.416   6.602   1.779 -0.2872  0.2198  0.0615
 1708W        W44761  21.356   5.344   0.960  0.1958 -0.1572 -0.1568
 1709W        W44762  34.183  15.062  28.462  0.2542  0.2243 -0.1654
 1710W        W44763  31.838   7.520  28.045  0.2674  0.2305  0.1486
 1711W        W44764   9.957  20.293  19.900 -0.1426  0.0754  0.2395
 1712W        W44765  19.762  27.839  23.366  0.0221  0.4639  0.2590
 1713W        W44766  17.666  11.638  25.110  0.0003  0.1811  0.4301
 1714W        W44767  29.145  30.955  18.951 -0.2825  0.0436 -0.3226
 1715W        W44768  30.452  18.425  25.736 -0.1416 -0.0773 -0.1477
 1716W        W44769  31.734   3.049  28.488 -0.1851  0.0105 -0.0595
 1717W        W44770  34.606  25.633  22.569 -0.1239 -0.2094 -0.1875
 1718W        W44771  16.782   5.314  25.135  0.0092 -0.0360  0.1387
 1719W        W44772  23.197  13.339  13.181  0.1322 -0.1791  0.1256
 1720W        W44773  20.387  16.676   0.457  0.0138 -0.0093  0.1298
 1721W        W44774  20.419   7.509  14.463 -0.0008  0.0243  0.3016
 1722W        W44775  17.363   8.910  19.489 -0.0527 -0.3045  0.2085
 1723W        W44776  14.324  26.461  25.626  0.1224 -0.0516 -0.2398
 1724W        W44777   0.108  11.890  23.612  0.1270 -0.0282  0.1196
 1725W        W44778  28.352  13.384  15.601 -0.0767 -0.3745 -0.1472
 1726W        W44779  12.052   4.652   2.593  0.0739 -0.2935  0.2702
 1727W        W44780  28.592  12.378  14.986  0.1846 -0.0568 -0.0573
 1728W        W44781  25.097  13.986  26.445  0.0751  0.1918  0.0658
 1729W        W44782  22.311  11.571  19.555 -0.4480  0.2891  0.2502
 1730W        W44783   8.910  25.595  14.647  0.1982  0.4409 -0.0658
 1731W        W44784  19.217  33.367  18.168  0.0720 -0.0333  0.3363
 1732W        W44785  13.772   3.933  23.229 -0.2900 -0.0714 -0.0944
 1733W        W44786  30.362  23.106  18.040 -0.4660  0.2288  0.2731
 1734W        W44787  16.455   6.718  20.835 -0.0957 -0.0190 -0.2225
 1735W        W44788  21.365  10.078  16.042 -0.1784  0.1514 -0.1069
 1736W        W44789   3.083  32.006  15.809 -0.0189 -0.0035  0.0671
 1737W        W44790   9.187  16.442  18.801  0.0176 -0.0783 -0.1000
 1738W        W44791   0.115  16.944  15.232  0.2405 -0.3026  0.0952
 1739W        W44792  25.263  13.131  23.469  0.0052  0.4255 -0.0667
 1740W        W44793  10.742   2.548  25.179  0.2155 -0.1515  0.0338
 1741W        W44794  28.674  14.025  15.727 -0.0587  0.1075  0.1458
 1742W        W44795  20.242  12.746  23.210 -0.3361  0.1444  0.1901
 1743W        W44796  22.922  29.948  21.520  0.3255  0.1669  0.0418
 1744W        W44797   3.635  13.306   2.431  0.1438 -0.2497 -0.0494
 1745W        W44798   0.286  10.864   1.060 -0.0780 -0.3146 -0.0976
 1746W        W44799   3.543   0.164  16.509  0.2316 -0.0038 -0.1230
 1747W        W44800  14.280  34.203   1.922  0.2385  0.0568 -0.1488
 1748W        W44801  26.316  10.101   1.609 -0.1029  0.1819  0.1549
 1749W        W44802   8.906  29.471  22.657  0.3298 -0.1409 -0.2466
 1750W        W44803  27.509   4.223  24.657 -0.3170  0.1534  0.2924
 1751W        W44804  23.743   8.526   7.469 -0.1490 -0.2445 -0.1128
 1752W        W44805   5.491  16.916  21.550 -0.0081 -0.1453 -0.1772
 1753W        W44806   4.905  15.226  15.321  0.1016 -0.1088  0.1479
 1754W        W44807  21.983  21.128  24.611  0.2271  0.1065 -0.0829
 1755W        W44808  13.681  31.104  25.923 -0.0453 -0.0502 -0.0037
 1756W        W44809  28.235   3.764  17.312 -0.1407 -0.1510 -0.0582
 1757W        W44810  32.460  10.689  16.168 -0.0094 -0.2940 -0.2375
 1758W        W44811  31.570  21.712  18.826  0.0626  0.0216 -0.6255
 1759W        W44812  25.959  26.674  28.796 -0.1708 -0.1018 -0.0745
 1760W        W44813  19.500   5.843  27.336  0.1811 -0.0895  0.3604
 1761W        W44814   4.317  15.554   1.432 -0.1308 -0.1510  0.0191
 1762W        W44815  34.599   9.995  29.052  0.0837  0.1261 -0.1441
 1763W        W44816  16.769  18.527  15.615  0.0784 -0.2041 -0.4088
 1764W        W44817   1.396  11.588   4.306  0.0664 -0.1847  0.1369
 1765W        W44818  20.147   1.834  17.100 -0.0498  0.1137  0.2235
 1766W        W44819  24.359  16.135  14.513  0.2169  0.5350  0.1437
 1767W        W44820  18.027  28.280  19.786 -0.2070  0.1346 -0.2466
 1768W        W44821  22.545  23.895  18.148 -0.1425 -0.2461 -0.0889
 1769W        W44822  14.435   0.139  18.163  0.1003  0.3734 -0.0889
 1770W        W44823  16.728   8.430  15.839  0.2096  0.0183  0.2489
 1771W        W44824  28.917   1.946  18.116  0.0212  0.2877 -0.2468
 1772W        W44825  30.818   3.449  21.749  0.0194  0.1654  0.1147
 1773W        W44826  20.397  26.942  25.880 -0.1217  0.0123  0.0644
 1774W        W44827  25.483  27.587  19.371 -0.1562 -0.1907 -0.0600
 1775W        W44828  33.515  14.595  20.833  0.0136 -0.1771 -0.1240
 1776W        W44829  19.541   7.432  17.638  0.1535  0.0161  0.1029
 1777W        W44830   0.423  30.629  19.661 -0.0001 -0.1497 -0.0124
 1778W        W44831  16.497  13.832  21.065  0.5541 -0.2284  0.1697
 1779W        W44832  29.511   0.686  19.304 -0.1897  0.0028 -0.3988
 1780W        W44833  30.402   8.734  15.522  0.0484 -0.3013  0.2029
 1781W        W44834   6.901   2.003  18.165  0.0766  0.0378  0.1470
 1782W        W44835  27.734  19.886  23.119 -0.3800 -0.1221 -0.0524
 1783W        W44836  19.467  10.130  17.617  0.1167  0.2595 -0.0660
 1784W        W44837   9.611  10.165   5.834  0.0838  0.0074  0.1590
 1785W        W44838  29.896  12.295  19.293  0.1443  0.5832  0.0183
 1786W        W44839  15.660   9.176  20.015  0.3022  0.3096  0.1587
 1787W        W44840  32.765   4.036  27.254 -0.1695  0.1386 -0.0461
 1788W        W44841  10.696   6.649   2.067 -0.4220 -0.3625  0.2524
 1789W        W44842  22.952   7.850  14.451  0.1002  0.0676  0.1404
 1790W        W44843  20.809  23.708  23.113  0.0356  0.1785  0.1327
 1791W        W44844   0.216   8.279  17.711  0.0261 -0.1001 -0.1901
 1792W        W44845  23.737  22.544  17.514 -0.1628  0.0546  0.2566
 1793W        W44846  18.850  21.637  21.418  0.1780  0.1649 -0.2856
 1794W        W44847  15.291  20.006  14.632  0.0066 -0.1220  0.1394
 1795W        W44848  28.636  13.705  15.314  0.0346 -0.1911 -0.1932
 1796W        W44849  21.611  24.591  16.512  0.1602 -0.3109  0.0579
 1797W        W44850  12.439  13.580  17.276  0.2583  0.2519 -0.0559
 1798W        W44851  21.652  24.880  20.073 -0.2325 -0.0968 -0.1895
 1799W        W44852  30.925  15.666  21.773  0.2374  0.2571  0.1975
 1800W        W44853  19.140   8.683  14.985  0.3179  0.0871 -0.0187
 1801W        W44854  20.921   6.506  22.146 -0.1674  0.0151 -0.1021
 1802W        W44855  11.162  12.589   2.226 -0.1367 -0.1865 -0.0260
 1803W        W44856  19.725   3.425  20.822  0.0072 -0.3095  0.0478
 1804W        W44857  19.386   2.120  16.198  0.1407  0.0095 -0.0428
 1805W        W44858   4.111   1.203  22.756 -0.1858  0.1439 -0.1531
 1806W        W44859  28.356  12.678  16.426 -0.1350  0.0243 -0.0696
 1807W        W44860  21.374   8.291   4.345 -0.0222  0.2129  0.0248
 1808W        W44861   0.182   6.644   5.550 -0.3751  0.0172  0.1684
 1809W        W44862  13.497  16.836  21.616  0.1748 -0.2208 -0.0945
 1810W        W44863  29.502  21.193  22.703 -0.3384  0.1278 -0.0748
 1811W        W44864  25.552  13.525  14.352  0.1404 -0.2132  0.3026
 1812W        W44865  31.521  14.467  16.676  0.2093 -0.0599 -0.0823
 1813W        W44866  19.940   7.341  14.541 -0.3778 -0.1079 -0.1666
 1814W        W44867  15.278  31.854  16.884 -0.2358 -0.3799  0.0179
 1815W        W44868   0.430  10.350  16.495 -0.0237  0.0319  0.3254
 1816W        W44869   5.417   4.640  17.250 -0.0115 -0.1091 -0.1515
 1817W        W44870  11.990  29.522  17.164  0.2695 -0.4740  0.0463
 1818W        W44871  17.256  26.481  16.890 -0.1055  0.1388  0.1505
 1819W        W44872  10.902   4.394  10.659  0.2100  0.1200 -0.1362
 1820W        W44873  24.091   4.884  13.878  0.3439 -0.0576 -0.1543
 1821W        W44874  24.012   4.258  21.884  0.1006  0.4102  0.1885
 1822W        W44875   8.814   6.548  28.469 -0.1070  0.2311  0.5690
 1823W        W44876  24.063  20.959  22.215  0.0421  0.2688 -0.0208
 1824W        W44877   3.717  29.855  22.330  0.0678  0.4616  0.4523
 1825W        W44878  23.094  22.894  15.247  0.1885  0.1952 -0.0500
 1826W        W44879  15.160   6.486  16.324 -0.0472 -0.2079  0.1082
 1827W        W44880  29.573   4.786  24.702  0.1206  0.0691  0.0465
 1828W        W44881  17.619  22.122  20.263  0.2262  0.0997  0.0518
 1829W        W44882  28.715  19.514  22.604  0.2047 -0.1283  0.2123
 1830W        W44883  25.415   3.385   2.341  0.1428  0.1148  0.1265
 1831W        W44884  12.829  23.009  18.674 -0.0513  0.1667  0.1021
 1832W        W44885   7.563   3.464  17.299  0.3836 -0.4334 -0.1555
 1833W        W44886   0.505   6.389  17.494  0.0522 -0.0437  0.1082
 1834W        W44887  13.795   9.675  17.687 -0.1166 -0.0666 -0.2447
 1835W        W44888  29.304  33.555  16.525  0.0502  0.3452 -0.0423
 1836W        W44889  22.680   9.206   2.983 -0.0013  0.3634  0.1297
 1837W        W44890  27.203   0.353  27.111 -0.1882  0.0616 -0.0960
 1838W        W44891  32.269  19.468  22.675  0.0800  0.0015  0.0259
 1839W        W44892  22.705  16.879  14.016 -0.2319  0.0172 -0.0537
 1840W        W44893  13.774   3.103   2.303 -0.1657 -0.1854  0.0333
 1841W        W44894  25.767  10.528  23.418 -0.1470 -0.0014 -0.1732
 1842W        W44895   7.898  25.470  14.357 -0.2322  0.1937  0.0942
 1843W        W44896  11.337  20.105  24.837 -0.1812 -0.2158 -0.2098
 1844W        W44897  22.688   2.169  16.485  0.1559  0.4693  0.2112
 1845W        W44898  20.552   3.068  15.941  0.1744 -0.0988  0.1090
 1846W        W44899  31.932   4.737  14.950 -0.2144  0.0933  0.2723
 1847W        W44900   0.593   9.837  23.540 -0.0806 -0.0022  0.1927
 1848W        W44901  12.599  19.781  19.074 -0.0167 -0.1589 -0.1585
 1849W        W44902  20.571  11.231  15.869  0.1152 -0.1441 -0.0647
 1850W        W44903  27.672   9.103  25.627 -0.1115 -0.2284  0.1096
 1851W        W44904  26.446   8.530  15.067 -0.1685 -0.2608  0.1839
 1852W        W44905   5.667  33.858  23.103 -0.2569  0.1172  0.3913
 1853W        W44906  31.368  30.674  18.378  0.0366  0.2359 -0.3386
 1854W        W44907  23.305  14.505  15.473  0.0277  0.0549  0.0794
 1855W        W44908  16.600  31.508  19.105  0.0090  0.0203 -0.0551
 1856W        W44909  18.371   4.025  18.150 -0.0608  0.0275  0.1048
 1857W        W44910  10.831   6.812  21.956  0.1201  0.0386  0.1865
 1858W        W44911  20.820   1.087   2.375  0.2113  0.0237  0.1033
 1859W        W44912  33.390  23.861  17.481 -0.2877 -0.1528  0.0480
 1860W        W44913  15.201   2.445  27.534  0.0067 -0.3715  0.2293
 1861W        W44914  19.527   8.341  18.489  0.2609  0.0657  0.4726
 1862W        W44915   9.278  28.406  25.607 -0.0136  0.1251 -0.0137
 1863W        W44916  19.081  16.609  23.991  0.1417 -0.1294  0.1677
 1864W        W44917  33.885   5.367   6.926  0.3487  0.0846 -0.0382
 1865W        W44918   8.839   9.904  16.359  0.0668 -0.2561 -0.0398
 1866W        W44919  24.741  10.227  14.088 -0.0037  0.1572 -0.0893
 1867W        W44920  17.057  19.057  23.390  0.4015  0.0450  0.2559
 1868W        W44921  14.442  12.798  17.469 -0.1383  0.1505  0.1955
 1869W        W44922  32.864   6.190  21.677  0.2645 -0.0881  0.0360
 1870W        W44923  16.509   3.180  20.577 -0.2903  0.1066  0.1906
 1871W        W44924  25.321   0.018  26.140 -0.1328 -0.0756 -0.0222
 1872W        W44925   3.995  14.309  17.282  0.0307 -0.0624 -0.0826
 1873W        W44926  16.202  20.692  29.108  0.0702  0.0566  0.2512
 1874W        W44927   6.802  18.883   1.015  0.0720 -0.0855 -0.0962
 1875W        W44928  33.112   5.767  19.007 -0.4304  0.0560  0.1021
 1876W        W44929  18.533  13.136  14.846  0.0514 -0.1640 -0.1731
 1877W        W44930  24.470  27.169   7.435  0.1001  0.1102 -0.2585
 1878W        W44931  20.231  19.297  14.870 -0.2623  0.1765 -0.0657
 1879W        W44932  31.626  33.208  18.197 -0.1685 -0.0379  0.1575
 1880W        W44933  31.904  16.817  16.076 -0.1278  0.1053 -0.1362
 1881W        W44934  20.107   6.564  16.965 -0.0293  0.1050  0.0498
 1882W        W44935   4.240  13.897  17.453 -0.1222  0.2018  0.1171
 1883W        W44936  21.207  16.470  19.872 -0.0725 -0.0094  0.2466
 1884W        W44937  11.066  19.798  17.791 -0.0795 -0.2566  0.0466
 1885W        W44938   9.995   3.924  24.599  0.0594  0.1273  0.1312
 1886W        W44939  30.477  21.206  20.133  0.3797 -0.0625  0.0964
 1887W        W44940  19.977  29.730  25.358 -0.0910  0.2366  0.2851
 1888W        W44941  22.232  21.903  22.964  0.1903 -0.4774  0.4105
 1889W        W44942  21.678   4.704  22.520  0.0704 -0.0277  0.2646
 1890W        W44943  21.330   4.894  28.642  0.2682 -0.2766  0.1091
 1891W        W44944  21.757  12.910  18.132 -0.2423  0.1117  0.1675
 1892W        W44945  32.203  13.050  17.753 -0.1921  0.2398 -0.2108
 1893W        W44946  23.349  16.939  24.258 -0.1362  0.0357  0.2163
 1894W        W44947  18.531  34.656  17.998 -0.1453  0.3009  0.2983
 1895W        W44948  15.490  25.211  15.899 -0.0401  0.3243  0.3440
 1896W        W44949   7.187  25.900   1.087  0.0015 -0.2672 -0.0543
 1897W        W44950  19.554  25.474  18.970 -0.2210 -0.3911  0.0123
 1898W        W44951  34.031  33.438  28.662  0.0113  0.3785  0.0493
 1899W        W44952  23.723   7.845  15.061 -0.0901  0.2826  0.0791
 1900W        W44953   7.651  11.868  25.263  0.1248  0.2358 -0.0449
 1901W        W44954  21.911  12.248  13.915 -0.2700 -0.0412 -0.0451
 1902W        W44955  22.892  23.397  17.132  0.0321 -0.0122 -0.2742
 1903W        W44956   1.105   7.077  21.699  0.1118 -0.0118  0.0715
 1904W        W44957   7.828  21.393  21.970 -0.1183  0.0487 -0.0043
 1905W        W44958  15.462  12.669  23.689  0.0654  0.0761 -0.1798
 1906W        W44959  30.802   8.684   6.519 -0.1124  0.0933  0.0828
 1907W        W44960  20.891   9.115  24.845 -0.0167  0.0869 -0.2805
 1908W        W44961  15.207   6.080  20.419  0.3912 -0.1118  0.2337
 1909W        W44962  22.900   5.876  28.602  0.0766 -0.0167  0.0094
 1910W        W44963  27.495   5.078  21.849  0.0336 -0.2614  0.2042
 1911W        W44964  30.419  22.528  21.372 -0.4499 -0.0342 -0.0470
 1912W        W44965  23.238   7.110  26.373  0.0138 -0.2447 -0.0224
 1913W        W44966   1.024   9.158  26.037  0.0580  0.2369  0.6783
 1914W        W44967  30.814  23.434   0.495 -0.0537  0.4821  0.4844
 1915W        W44968  16.774   3.313  19.094 -0.0372 -0.3612 -0.2158
 1916W        W44969  12.347  14.451  26.607  0.0023  0.0776  0.1875
 1917W        W44970  16.783  10.733  23.993 -0.2627 -0.1087  0.2079
 1918W        W44971  28.418  18.783  22.969  0.0716  0.1878 -0.3337
 1919W        W44972  30.877  16.252   0.706  0.0146  0.1551 -0.1497
 1920W        W44973  25.167   6.402  14.554 -0.4581 -0.0836  0.0250
 1921W        W44974  32.403   0.997  24.211  0.2033  0.0069  0.1198
 1922W        W44975  15.167  13.086  23.489  0.2302  0.0067  0.2025
 1923W        W44976  16.576   5.860  15.775 -0.4729  0.1285 -0.0726
 1924W        W44977  34.067   6.014  14.513  0.0041  0.0800  0.1105
 1925W        W44978  23.605  20.720  24.377  0.2452 -0.0367 -0.0466
 1926W        W44979  25.190  21.768  18.754 -0.0581  0.1504  0.1233
 1927W        W44980  18.458  16.009  12.398 -0.2904 -0.5465 -0.3508
 1928W        W44981  33.057  32.165  18.790 -0.3511  0.1489  0.2926
 1929W        W44982  18.068   2.819  19.839 -0.1408 -0.1637 -0.3008
 1930W        W44983   3.110   8.268  20.301  0.0798 -0.0141  0.0002
 1931W        W44984  22.124  27.241  17.903  0.3274  0.1438 -0.0653
 1932W        W44985  26.825   9.802  16.140  0.1617  0.0333 -0.0312
 1933W        W44986  24.980  10.408  27.863  0.1622  0.0571  0.0801
 1934W        W44987   6.947  20.147  15.168  0.0500 -0.0741  0.3295
 1935W        W44988  30.450  32.996  22.284  0.1384  0.0311  0.2183
 1936W        W44989  26.989  14.120  16.524  0.0823 -0.1725 -0.0204
 1937W        W44990  24.408  29.006  22.981  0.1533  0.2564 -0.1295
 1938W        W44991  34.680   0.313  18.323 -0.1268 -0.0619  0.1581
 1939W        W44992  21.681   6.396  15.050  0.0840 -0.0861  0.3428
 1940W        W44993  12.389  20.009  18.104  0.1885 -0.0243 -0.0334
 1941W        W44994  33.028   9.697  15.101 -0.0992 -0.1009 -0.0468
 1942W        W44995  27.520   4.547  15.118  0.0098  0.2755  0.2389
 1943W        W44996  19.864  27.251  26.847 -0.0954 -0.0689  0.0140
 1944W        W44997   1.406   3.986  19.449  0.1164  0.3408  0.0990
 1945W        W44998  13.808   6.808  18.503  0.0756 -0.1261  0.0490
 1946W        W44999  32.567  17.692  23.194 -0.1535 -0.0671 -0.1312
 1947W        W45000  31.078   4.745  19.918 -0.2734  0.0103 -0.1823
 1948W        W45001  11.593  31.156  20.657 -0.1016  0.1311  0.0086
 1949W        W45002  29.735  17.528  16.546 -0.0069  0.3074  0.0014
 1950W        W45003  14.041   6.616  19.904 -0.0910 -0.1688 -0.2873
 1951W        W45004  20.243  34.237  19.417 -0.2296  0.1246  0.1235
 1952W        W45005  24.965  30.362  15.822  0.0498  0.1579  0.1598
 1953W        W45006  18.400   9.291  21.422  0.0304  0.3626 -0.0580
 1954W        W45007  27.219  15.680  18.674  0.0050  0.0096 -0.1845
 1955W        W45008  28.101  29.791  20.617 -0.1179 -0.0651 -0.0138
 1956W        W45009  24.481  12.025  24.935 -0.1558 -0.2101 -0.1806
 1957W        W45010  22.597  10.606  27.098  0.1555 -0.1831  0.1430
 1958W        W45011  28.383  21.193  19.568  0.0517 -0.0539 -0.0129
 1959W        W45012   8.498   0.196   1.414  0.0522  0.2015  0.0527
 1960W        W45013  16.668  15.007  23.951  0.1719 -0.0842 -0.1284
 1961W        W45014  20.592  30.873  26.596  0.0580 -0.2650 -0.2326
 1962W        W45015   4.963  30.874   0.809  0.0332 -0.0744 -0.1115
 1963W        W45016   1.308  32.651  19.113 -0.2672 -0.1550  0.1717
 1964W        W45017  18.101  17.290   3.143  0.1842 -0.2527  0.1309
 1965W        W45018  13.871  29.151  24.262  0.1137 -0.0570  0.0150
 1966W        W45019  20.940  20.176  23.776 -0.1445  0.0668  0.0736
 1967W        W45020  12.172  26.907  19.705 -0.1216 -0.0075 -0.0895
 1968W        W45021  28.554  25.234  22.645  0.0090 -0.0108 -0.1435
 1969W        W45022   0.487  14.633  21.991  0.2636  0.0718 -0.0511
 1970W        W45023  16.060  23.022  16.750  0.0969 -0.0563  0.2315
 1971W        W45024   3.929  24.696  22.968 -0.0390 -0.2946 -0.0822
 1972W        W45025  33.540  19.875   5.476 -0.2432 -0.0583  0.0031
 1973W        W45026  31.825   5.085  17.679  0.0486 -0.2260  0.0395
 1974W        W45027  25.826  26.295  17.067  0.0297 -0.1878  0.4235
 1975W        W45028  17.504   8.548  26.206 -0.0303 -0.1984  0.0158
 1976W        W45029  26.415  15.165  14.012  0.1333 -0.0145  0.1600
 1977W        W45030  32.710  18.209  27.859  0.0520  0.2784 -0.1606
 1978W        W45031  31.587   5.406  24.190  0.0880  0.1745  0.0886
 1979W        W45032  32.989  34.206  13.233  0.2562  0.0265  0.3010
 1980W        W45033  20.362  14.004  25.783 -0.1119 -0.1340  0.2860
 1981W        W45034   1.034  11.576  20.828 -0.0754 -0.1681  0.2782
 1982W        W45035  31.310  14.248  18.623 -0.1583 -0.0440 -0.0627
 1983W        W45036  27.641   7.774   9.096 -0.0849  0.2119  0.0056
 1984W        W45037  31.470  28.725   5.166  0.0846 -0.1391  0.2609
 1985W        W45038  10.077  22.019  26.539  0.0222  0.2977 -0.1135
 1986W        W45039  33.782  20.942  27.402  0.2513  0.0657 -0.4005
 1987W        W45040  23.072   4.195  16.280 -0.1538 -0.0049  0.0170
 1988W        W45041  12.763  23.935  15.440  0.1361  0.1176  0.1079
 1989W        W45042  28.745  15.821  19.225  0.1352 -0.2514 -0.0007
 1990W        W45043  19.136  12.028   2.416  0.2706  0.1948 -0.2780
 1991W        W45044  31.484  17.517  22.867 -0.0832  0.0274 -0.3358
 1992W        W45045  22.551   2.127  29.057 -0.0958 -0.3300  0.0383
 1993W        W45046  15.491   7.717  25.789  0.0518  0.0384  0.1576
 1994W        W45047  17.464  14.607  14.966 -0.0045  0.2483  0.0387
 1995W        W45048  19.763   5.244  17.164 -0.2393  0.3667 -0.0613
 1996W        W45049  22.423  25.618  16.898 -0.0866 -0.0275  0.1840
 1997W        W45050  12.057  33.558  27.754  0.1244 -0.1642  0.3555
 1998W        W45051  14.210   0.733  22.865 -0.0320 -0.1530 -0.4233
 1999W        W45052  23.435  27.063  14.322  0.4619 -0.0129  0.0818
 2000W        W45053   0.065  19.591  14.397 -0.0745 -0.1550 -0.0597
 2001W        W45054  34.097   8.940  24.830  0.2039  0.2601  0.1710
 2002W        W45055  21.348   4.606   6.373 -0.2209  0.0954  0.3382
 2003W        W45056  13.151  30.791   7.196  0.1643 -0.0080 -0.0844
 2004W        W45057   4.075  13.563  25.362  0.0400 -0.2065 -0.3212
 2005W        W45058   8.686  11.941  28.330  0.1071 -0.1559  0.1057
 2006W        W45059   0.894  33.233  18.655  0.2274 -0.0142 -0.1752
 2007W        W45060   8.595   7.162  17.295 -0.1043 -0.0180 -0.3379
 2008W        W45061  23.773   7.811  24.410 -0.1272 -0.2607 -0.3566
 2009W        W45062  24.209  21.679  25.949  0.0012  0.2272  0.1244
 2010W        W45063   9.748   5.761  24.229  0.1377  0.1306  0.1300
 2011W        W45064  24.336   6.423  25.959  0.0944 -0.2429  0.0465
 2012W        W45065  10.715  31.183  20.172  0.4091 -0.0166  0.2929
 2013W        W45066  26.731   7.407  17.837  0.1509  0.2436  0.0198
 2014W        W45067   7.981  10.380  17.370 -0.0635  0.0526  0.1207
 2015W        W45068  21.754  14.639  15.641 -0.4909  0.0687  0.0745
 2016W        W45069  15.255   2.865   0.803  0.2522 -0.0530  0.1685
 2017W        W45070  33.035   7.664  13.573 -0.0290  0.0637  0.2837
 2018W        W45071  14.786  32.410  14.627  0.2392  0.1096  0.0838
 2019W        W45072  19.873  17.357  27.714 -0.2529 -0.1097  0.2525
 2020W        W45073  31.209  10.363  14.792 -0.2397  0.1926  0.1136
 2021W        W45074  29.393   5.619  24.450 -0.0574 -0.3673 -0.0743
 2022W        W45075  20.023  26.835  25.145  0.1190 -0.1465  0.1899
 2023W        W45076   2.243  26.445  21.097  0.1773  0.0475 -0.0621
 2024W        W45077  23.478   4.435  23.785  0.1486 -0.0563  0.1147
 2025W        W45078  17.414   5.017  20.938 -0.1070  0.2550  0.2263
 2026W        W45079  28.506  12.546  17.449  0.2261  0.0224 -0.3632
 2027W        W45080  17.861  33.055  14.878  0.1326 -0.1452 -0.4367
 2028W        W45081   5.373  11.137  14.954  0.0822  0.0472  0.2465
 2029W        W45082  20.366   9.935  23.352 -0.0189 -0.1787  0.0180
 2030W        W45083  21.421  22.684  22.990 -0.0746 -0.3210 -0.1111
 2031W        W45084   2.334   5.759   3.504  0.0767  0.0677  0.0941
 2032W        W45085  24.804  16.291  21.423  0.3245  0.2032  0.1010
 2033W        W45086  15.844   0.995  22.301 -0.2066  0.5786 -0.3213
 2034W        W45087   0.081  30.547  14.360  0.1448  0.1793 -0.1090
 2035W        W45088  31.409  10.369  19.400 -0.2363 -0.0268  0.3529
 2036W        W45089  27.547  14.327   8.912 -0.0934  0.0986 -0.1205
 2037W        W45090   1.732   4.305  19.205  0.1983 -0.2929  0.0684
 2038W        W45091  19.521  32.166  18.808  0.1446  0.0584 -0.0998
 2039W        W45092   6.687  27.655  15.846 -0.1231  0.0518  0.0592
 2040W        W45093  17.095  20.343  13.955 -0.1867  0.3013 -0.0157
 2041W        W45094  13.834   7.557  16.336  0.0196 -0.0555  0.2614
 2042W        W45095  29.928   7.165  18.258  0.0093  0.1211  0.1465
 2043W        W45096  32.933  15.961  20.106  0.2524 -0.0887  0.2120
 2044W        W45097  30.040  20.261   5.386  0.0933  0.0608 -0.0845
 2045W        W45098  33.043  10.794   8.286 -0.2912  0.1339 -0.2811
 2046W        W45099  27.459  31.789  23.558 -0.2252  0.0482 -0.1373
 2047W        W45100  28.367   4.034  14.720  0.0982 -0.3435  0.0814
 2048W        W45101  20.892  10.035   3.617 -0.2787 -0.0040 -0.2343
 2049W        W45102   2.852  12.869  19.136 -0.1758 -0.3411  0.0143
 2050W        W45103  32.885  11.575  19.386  0.3265  0.2473  0.0100
 2051W        W45104  33.374   2.026  17.178  0.3847  0.0308 -0.0282
 2052W        W45105  32.910  33.392  23.872  0.0763 -0.0507  0.3663
 2053W        W45106  24.740   5.259  28.200 -0.0358 -0.2028 -0.1448
 2054W        W45107  19.520   0.737  27.872 -0.0958 -0.0597  0.2366
 2055W        W45108  19.996   0.863  22.966  0.0079 -0.4877 -0.0627
 2056W        W45109   1.648   3.526  20.384  0.4260  0.1002  0.2402
 2057W        W45110  12.638  16.607  19.254  0.0595 -0.0790  0.3763
 2058W        W45111  23.003  12.912  17.451  0.2070  0.1045  0.0672
 2059W        W45112  11.394  25.112   1.971 -0.0969 -0.1528 -0.1105
 2060W        W45113  11.796   3.106  16.754 -0.1494  0.0829 -0.3030
 2061W        W45114  18.359  14.840  22.020  0.3268  0.1690 -0.1880
 2062W        W45115  29.937  13.898  20.455 -0.2515  0.1025 -0.1404
 2063W        W45116  29.375  10.546   6.582  0.1229  0.0493  0.3201
 2064W        W45117  12.830   8.845  15.723 -0.0263 -0.0060  0.0190
 2065W        W45118  18.667  28.458  19.239  0.1558 -0.1814  0.0022
 2066W        W45119   2.631   4.917  25.705 -0.2627  0.0448 -0.1392
 2067W        W45120   8.752  15.982   6.157  0.1005 -0.2376 -0.2962
 2068W        W45121  33.535  34.086  28.776  0.1934 -0.4105  0.0090
 2069W        W45122  24.368  18.969   2.788 -0.1883 -0.0590  0.1546
 2070W        W45123  25.189   4.223   0.352 -0.2108  0.0105 -0.2650
 2071W        W45124  22.522   3.168  17.678  0.1604  0.3120 -0.3500
 2072W        W45125  29.587  34.064  21.116  0.2398  0.0708 -0.1442
 2073W        W45126  33.192   1.724  21.359  0.1530 -0.0609  0.1463
 2074W        W45127  16.749  22.497  20.710 -0.1343 -0.0110  0.1748
 2075W        W45128  21.964  12.483  18.876 -0.2086  0.0599 -0.1133
 2076W        W45129   2.782   3.259   2.628 -0.0037  0.1203  0.1253
 2077W        W45130  31.604   7.319   1.314 -0.0019  0.1589 -0.0049
 2078W        W45131  24.502  11.844  27.831 -0.2217 -0.0406 -0.4588
 2079W        W45132  13.384   7.412  15.608 -0.1599 -0.1265 -0.1438
 2080W        W45133  12.364   7.156   0.168 -0.4196  0.1003  0.0363
 2081W        W45134  11.485   4.533  28.833  0.1545  0.2166  0.2692
 2082W        W45135  32.319  14.922  17.031 -0.2039 -0.0371  0.1670
 2083W        W45136  24.465  10.544  14.921  0.1623  0.1075  0.1843
 2084W        W45137  10.667  31.453  14.641  0.0525 -0.1645 -0.2248
 2085W        W45138  24.499   8.632  28.767 -0.4174 -0.1827 -0.1102
 2086W        W45139  19.338  17.701  12.913  0.3257 -0.1748  0.1498
 2087W        W45140  19.032  10.838  19.395 -0.0382  0.0231 -0.2658
 2088W        W45141  23.108  33.681  15.089 -0.3469 -0.3647  0.0629
 2089W        W45142  21.972  13.491  18.725 -0.3416  0.1798  0.1371
 2090W        W45143  11.868   8.499  20.674 -0.0719 -0.1027  0.2925
 2091W        W45144  14.922  27.244  15.598 -0.0607  0.0186 -0.0033
 2092W        W45145  21.403   6.463  19.046 -0.2079 -0.2091 -0.0381
 2093W        W45146  29.441  32.432  16.119 -0.0643  0.2924 -0.1507
 2094W        W45147  20.332  16.101  15.988 -0.2590 -0.3124 -0.1481
 2095W        W45148  16.256  10.929  25.514 -0.4953  0.1799 -0.1363
 2096W        W45149  28.532  11.814  17.195 -0.0892 -0.0093  0.0489
 2097W        W45150   1.158   7.058  17.961  0.2068  0.0822 -0.0311
 2098W        W45151  32.367  11.252  19.345 -0.1679  0.2438 -0.0654
 2099W        W45152  23.055   5.000  22.408  0.2045 -0.0111 -0.1729
 2100W        W45153  23.723   0.604   0.907  0.4002  0.2355  0.1041
 2101W        W45154  21.729   3.612  19.939 -0.1140  0.2334  0.0655
 2102W        W45155   8.242   3.346   0.583 -0.0540  0.1274 -0.0366
 2103W        W45156  25.724  13.470  13.863  0.1700 -0.4034  0.0419
 2104W        W45157  29.806   4.614   3.909  0.0093  0.1284 -0.4911
 2105W        W45158  20.334   1.999  22.247  0.3394 -0.0561 -0.0529
 2106W        W45159  27.259  14.196  19.894  0.0668 -0.1633  0.1231
 2107W        W45160  14.526   9.522  19.200  0.1320 -0.1119 -0.2435
 2108W        W45161   1.244   9.876  17.077  0.1482 -0.0981  0.3389
 2109W        W45162  13.075  33.804  19.551  0.1930  0.1265 -0.2913
 2110W        W45163  18.803   9.748  14.617 -0.1063  0.2141  0.3974
 2111W        W45164  34.391   4.292  17.258 -0.1957 -0.3069 -0.2851
 2112W        W45165  32.988   3.395  16.262  0.0948  0.2291  0.0511
 2113W        W45166  24.741   4.505  15.652  0.1937  0.1098 -0.1945
 2114W        W45167  12.968  11.858  17.377 -0.2783 -0.1310 -0.0071
 2115W        W45168  21.579  10.452  15.767  0.1800  0.1022 -0.0337
 2116W        W45169  29.372   5.048   6.633 -0.2722  0.0744  0.2199
 2117W        W45170  33.426   2.510  16.389 -0.1087  0.1632  0.2278
 2118W        W45171   7.782  18.576  20.386  0.0956  0.1645 -0.0687
 2119W        W45172  30.857  14.361   0.882  0.0437 -0.0507 -0.1323
 2120W        W45173  29.867  11.013  27.324 -0.6197  0.0426  0.0172
 2121W        W45174  27.493  27.726  18.477  0.1964  0.3670 -0.3602
 2122W        W45175   9.423  15.607  22.723  0.2871 -0.2692 -0.1228
 2123W        W45176  15.668  27.937  18.356  0.0481  0.1537  0.0363
 2124W        W45177  30.956   9.236  17.449 -0.0452 -0.0055 -0.0239
 2125W        W45178  12.285   8.774  25.150  0.1610 -0.1648  0.1615
 2126W        W45179  12.242  18.325  20.545 -0.1388 -0.1396  0.0332
 2127W        W45180   5.161   2.133   0.857  0.0266 -0.0109 -0.2541
 2128W        W45181  27.609  15.919  17.685 -0.1365  0.3479  0.1942
 2129W        W45182  16.885   5.637  16.820 -0.0900 -0.2559 -0.0890
 2130W        W45183  23.158   1.696  22.740  0.0481 -0.0303 -0.0532
 2131W        W45184  20.403  10.949  23.966 -0.1339 -0.1193  0.0896
 2132W        W45185  28.902   8.066   6.173  0.2437  0.1734  0.0190
 2133W        W45186  17.620  11.665   5.567  0.0150 -0.1315  0.1000
 2134W        W45187   0.829  20.504  25.485  0.1821 -0.0770  0.0889
 2135W        W45188  19.659  12.238  21.017  0.3132 -0.0455 -0.0995
 2136W        W45189   2.451   4.506   0.058 -0.1968 -0.0701  0.0837
 2137W        W45190   9.095   9.370  27.843 -0.0827 -0.2384 -0.1297
 2138W        W45191  14.217   3.632  22.256  0.2911  0.2583  0.5755
 2139W        W45192  21.254  16.062  24.598  0.0523 -0.1766 -0.2059
 2140W        W45193  15.109   5.393  17.012 -0.4297 -0.1565 -0.0189
 2141W        W45194  24.360   1.866  21.472  0.1185  0.0517  0.0603
 2142W        W45195  32.071  12.598  25.450 -0.0500  0.0420 -0.1109
 2143W        W45196  31.548  16.239  18.375 -0.0204 -0.0559 -0.0927
 2144W        W45197  26.147   3.794  22.724  0.0737 -0.2269 -0.0742
 2145W        W45198  18.873  32.873  17.293 -0.0266 -0.1203  0.2754
 2146W        W45199  14.322  26.561  28.240 -0.0994 -0.2259 -0.1715
 2147W        W45200  26.687  24.933  16.361  0.0139 -0.1221 -0.0322
 2148W        W45201  15.372  12.557  20.036  0.0077  0.1278  0.0698
 2149W        W45202  15.251   9.801  20.604  0.0688 -0.0656  0.1980
 2150W        W45203  28.422   3.005   6.495  0.1902 -0.0146  0.3826
 2151W        W45204  27.346   2.313  28.100  0.3700 -0.1261  0.1690
 2152W        W45205  31.150  33.763   9.234  0.0075 -0.0814  0.1090
 2153W        W45206  22.619  11.970  16.076 -0.2344  0.0970 -0.1283
 2154W        W45207  14.372   5.119  23.338  0.2235  0.1048 -0.1403
 2155W        W45208  20.740  26.585  14.157  0.0825  0.0295 -0.0146
 2156W        W45209   4.416  23.555   1.130  0.1880 -0.0023  0.2152
 2157W        W45210   0.552   7.697  21.183  0.1597  0.1611 -0.2538
 2158W        W45211  14.257   3.544   0.217  0.0295 -0.2630 -0.2929
 2159W        W45212  24.002  28.941  14.890  0.2394  0.1140  0.2398
 2160W        W45213  12.593   7.200  20.902  0.2958 -0.0675 -0.1776
 2161W        W45214  23.759   6.686   8.341  0.0468  0.0606  0.0365
 2162W        W45215   1.541  31.781  17.730 -0.0853 -0.0552 -0.0528
 2163W        W45216  12.869  19.191  16.921 -0.1290  0.0717 -0.2419
 2164W        W45217   3.079  32.620  19.244 -0.1662 -0.0078 -0.1446
 2165W        W45218  23.658  28.377  25.504 -0.1676 -0.2562 -0.0878
 2166W        W45219  23.457  14.371  26.011  0.4827 -0.0967 -0.0938
 2167W        W45220  18.798  20.351   3.831 -0.0602 -0.1129 -0.1167
 2168W        W45221  32.604  21.618  26.074  0.0878  0.0458 -0.0558
 2169W        W45222  34.349  14.099  23.357 -0.0041 -0.3916  0.0790
 2170W        W45223  11.205  29.235   3.246 -0.0012  0.0773  0.0629
 2171W        W45224  10.955  14.194  16.182 -0.3235  0.0642 -0.0623
 2172W        W45225  12.434   8.040  27.169  0.2259 -0.2143 -0.1574
 2173W        W45226  21.349   9.472  23.582 -0.2514  0.1983 -0.0300
 2174W        W45227   7.845   9.046  22.637  0.0797  0.1196 -0.0673
 2175W        W45228   4.660  13.493   0.704  0.2346  0.4810 -0.0082
 2176W        W45229  10.429  34.575   3.042  0.0918 -0.2047  0.1264
 2177W        W45230  33.830  33.796  23.643 -0.5254 -0.0195 -0.2643
 2178W        W45231   8.165   7.544  27.672 -0.2654 -0.2659  0.3237
 2179W        W45232  25.407  11.029  13.991  0.0509  0.1164  0.2090
 2180W        W45233  16.131  12.391  22.373 -0.0880 -0.3012  0.0098
 2181W        W45234  27.866   6.787  24.192 -0.0177  0.0038  0.0049
 2182W        W45235  29.349   3.872  25.555  0.2019  0.1182  0.0955
 2183W        W45236   0.210   7.720  15.281  0.1814 -0.3069  0.2548
 2184W        W45237  21.725  18.011  18.148  0.3661  0.1761  0.0489
 2185W        W45238   8.622   5.629  19.200  0.1056 -0.1300  0.2209
 2186W        W45239  18.741  13.699   8.278 -0.0759 -0.0864 -0.0140
 2187W        W45240  30.936   0.009  25.708 -0.0744  0.0302  0.1815
 2188W        W45241  30.771  17.589  17.283 -0.0826  0.1609  0.1445
 2189W        W45242  19.050   7.412   7.333  0.0352  0.1877 -0.1041
 2190W        W45243  32.118  12.068  15.547  0.0229  0.0014 -0.2668
 2191W        W45244  19.547  21.984   3.449  0.0686 -0.2118 -0.2487
 2192W        W45245  26.923  33.557  25.414 -0.0107 -0.0874  0.0850
 2193W        W45246   3.383  21.339   0.882 -0.4094 -0.1172  0.0582
 2194W        W45247  21.239  15.344  13.730  0.0129 -0.0048  0.0463
 2195W        W45248  32.369   8.757  15.615  0.1257  0.1663  0.1066
 2196W        W45249   7.611  34.468  22.765  0.1318 -0.1069  0.1031
 2197W        W45250  23.621  16.615  22.560 -0.4054 -0.1896  0.1873
 2198W        W45251  15.928  14.088  15.313  0.2709  0.0067  0.0634
 2199W        W45252   5.696   8.375  23.731  0.2960 -0.0781  0.1287
 2200W        W45253   8.923  28.390  12.426 -0.1283  0.1114 -0.0196
 2201W        W45254  18.027  12.243  17.842  0.0751  0.3274 -0.3094
 2202W        W45255   3.389  18.050  15.587  0.0222  0.0116  0.3311
 2203W        W45256   2.734  16.115   1.766 -0.2306 -0.0367  0.2059
 2204W        W45257  20.366   9.926   2.386 -0.1921  0.2450 -0.0067
 2205W        W45258  28.559   2.447  15.236 -0.0371 -0.0295 -0.1556
 2206W        W45259  26.850   3.212  25.785  0.0997 -0.2396 -0.2092
 2207W        W45260  22.211   6.120  27.448  0.1466 -0.0847  0.3655
 2208W        W45261   0.978  18.402  21.638  0.2082 -0.3154  0.5492
 2209W        W45262  28.479   9.400  25.749  0.1013  0.0008 -0.2354
 2210W        W45263   5.759   9.688  22.480  0.0616 -0.0511  0.0728
 2211W        W45264  18.915  11.959  21.525 -0.1113 -0.0335 -0.4056
 2212W        W45265  13.297  12.778  18.034  0.2432 -0.0088  0.1314
 2213W        W45266  30.555   9.000   1.203  0.1037 -0.0982 -0.1638
 2214W        W45267  21.927  11.864  15.648  0.0876 -0.1556 -0.3354
 2215W        W45268   7.236  22.765  18.580 -0.2986 -0.1463  0.0997
 2216W        W45269   9.792   7.358  20.701 -0.3685  0.2420  0.1340
 2217W        W45270   7.762  22.305  19.409 -0.1001 -0.3240  0.1714
 2218W        W45271  20.851  31.199   0.150 -0.1006 -0.1983 -0.0772
 2219W        W45272  23.507  11.575  19.618 -0.1182 -0.0709  0.1918
 2220W        W45273  20.360  11.766   8.675 -0.0079  0.1773 -0.0535
 2221W        W45274  30.122   3.703  21.162 -0.1163 -0.0136  0.4221
 2222W        W45275  17.117  34.271   3.243  0.1095 -0.0474  0.0020
 2223W        W45276  17.202   8.182   0.040  0.1037  0.2922  0.0356
 2224W        W45277  23.751  13.928  27.494  0.0470  0.1037 -0.0500
 2225W        W45278  28.175   1.842  17.904  0.3334 -0.0946 -0.1154
 2226W        W45279  14.919   7.647  16.580  0.2544  0.3302 -0.1478
 2227W        W45280  31.769  11.805  16.013 -0.3089  0.0312 -0.3767
 2228W        W45281  25.277   8.738  16.852  0.0536  0.2543  0.2025
 2229W        W45282  13.693  14.846  14.729  0.4023  0.3668  0.2991
 2230W        W45283  10.203  23.846  14.002 -0.0524 -0.1068 -0.2219
 2231W        W45284   4.761  34.071  20.500 -0.2254  0.0640  0.2569
 2232W        W45285  29.127  26.574  20.872 -0.1422  0.3799 -0.3089
 2233W        W45286  18.879   6.473  24.206  0.2382 -0.0258 -0.0508
 2234W        W45287  20.639   6.276  14.196 -0.2499  0.0221  0.3071
 2235W        W45288  29.473   4.539  27.680 -0.0245  0.1385 -0.2113
 2236W        W45289   4.104  13.162  21.142  0.4286  0.0810 -0.1463
 2237W        W45290   2.797  10.446  28.357  0.0206 -0.0229  0.0804
 2238W        W45291  25.379   8.564  20.667 -0.1662 -0.1362 -0.0193
 2239W        W45292  29.680  13.053  26.828  0.0848 -0.0180 -0.0170
 2240W        W45293  29.658   2.090  21.740  0.4142 -0.0820 -0.2391
 2241W        W45294   4.577   9.824  16.613 -0.1817  0.3401  0.0081
 2242W        W45295  15.098   4.386  15.052 -0.0515 -0.0178 -0.0554
 2243W        W45296  27.844  25.061  15.838  0.0143 -0.2579 -0.1229
 2244W        W45297  18.763  12.727  18.387 -0.2157  0.0363  0.1819
 2245W        W45298  18.570  31.773  20.243 -0.2306  0.0650  0.0069
 2246W        W45299  31.652   9.404  19.182 -0.2464 -0.0738 -0.0510
 2247W        W45300  25.161  10.904   2.527 -0.1077 -0.0213 -0.3221
 2248W        W45301  27.763  33.336   4.887  0.3093  0.3456  0.0385
 2249W        W45302  32.707   9.795   2.687 -0.1299  0.1731  0.2859
 2250W        W45303   1.399  18.848  15.128 -0.2547  0.2869  0.5737
 2251W        W45304  31.422   3.037  25.760  0.1139 -0.0147 -0.0175
 2252W        W45305  19.204   9.011   2.969  0.0879 -0.0430  0.0177
 2253W        W45306  33.111   2.123  19.885  0.4164 -0.2416  0.1213
 2254W        W45307  29.262  12.128  26.354  0.0598  0.3901  0.0963
 2255W        W45308   1.796  10.079  28.773 -0.1152 -0.4115  0.1096
 2256W        W45309  20.112   2.327  23.002  0.3502  0.1158  0.2682
 2257W        W45310  28.875   5.173   1.590 -0.1317  0.0790 -0.0097
 2258W        W45311  14.324  12.170  27.712  0.2221  0.1398 -0.3410
 2259W        W45312  26.868  26.273  26.316  0.0714  0.1619  0.1555
 2260W        W45313  16.609   6.262  20.680  0.1690  0.1623  0.0893
 2261W        W45314   2.418   7.231   0.609 -0.0833 -0.0928  0.0953
 2262W        W45315   0.751  34.425  21.859 -0.0495 -0.0054 -0.1149
 2263W        W45316   9.592   9.577  24.504 -0.3239  0.1111  0.0475
 2264W        W45317  24.183  34.314  21.944  0.1259  0.1384 -0.2622
 2265W        W45318  30.129  26.206   3.588 -0.1113 -0.2167 -0.0357
 2266W        W45319  14.493   0.725  17.331 -0.2977  0.0344 -0.0411
 2267W        W45320  15.647  10.913  20.019  0.2075  0.0276 -0.1337
 2268W        W45321  26.443  18.752  26.787  0.1134  0.1315 -0.2810
 2269W        W45322  16.578   8.443  26.224  0.4175 -0.1236  0.2630
 2270W        W45323   9.614  10.528  22.440  0.1422 -0.0437  0.0919
 2271W        W45324  21.290  33.354  26.002 -0.2454 -0.0795  0.1321
 2272W        W45325  28.368  10.989  19.077 -0.2212  0.1485  0.1368
 2273W        W45326   3.937  30.964  17.151 -0.0851 -0.3849 -0.2488
 2274W        W45327  10.974  34.167  15.126 -0.0264  0.0901  0.0029
 2275W        W45328  28.672   7.562  29.121  0.2326 -0.1002  0.2628
 2276W        W45329  10.785  29.353   5.303 -0.0616  0.0989 -0.1968
 2277W        W45330  12.972  31.261  15.491 -0.3322 -0.1885  0.0003
 2278W        W45331  25.503  30.925  21.876  0.3487 -0.0093  0.1663
 2279W        W45332  16.807   8.853  15.489 -0.2359  0.1214 -0.0317
 2280W        W45333   1.470  24.169   2.349  0.0679  0.0985 -0.1004
 2281W        W45334  20.916  10.401  19.738  0.0070  0.3118 -0.0365
 2282W        W45335  29.504  16.884  29.076 -0.1198  0.2785 -0.2616
 2283W        W45336  24.991  13.133  16.415 -0.0314 -0.0978  0.0186
 2284W        W45337  31.395  20.767  24.464 -0.2287  0.0744 -0.2246
 2285W        W45338   8.991   3.914  28.212 -0.0306  0.1922 -0.2325
 2286W        W45339  28.341  17.439  14.358  0.1631  0.0392  0.3444
 2287W        W45340  27.226   9.212  18.779 -0.0631  0.0247 -0.0317
 2288W        W45341  10.965   6.436  15.307  0.0267  0.1420 -0.3973
 2289W        W45342  28.809  10.526  16.773  0.1987  0.3137 -0.1274
 2290W        W45343  22.018   5.627  17.165  0.2123  0.1563 -0.0082
 2291W        W45344  20.569   3.070  17.898  0.1177 -0.0905  0.1090
 2292W        W45345  15.316   9.860  19.561  0.1684  0.1206 -0.2412
 2293W        W45346  20.348   0.023  28.420  0.0607  0.0832 -0.2781
 2294W        W45347  32.392   2.792   0.582  0.1597  0.2808 -0.2603
 2295W        W45348  13.436  30.562  20.457 -0.1678 -0.1942  0.0566
 2296W        W45349  31.501  31.904  23.310  0.3721  0.2092 -0.1052
 2297W        W45350  12.377  14.440  25.119  0.4321 -0.4289 -0.0693
 2298W        W45351  12.602   7.859  21.507 -0.2439  0.1996 -0.0777
 2299W        W45352  27.783  20.241  26.394  0.0639  0.0185  0.2425
 2300W        W45353  28.165  23.236   4.284  0.0765 -0.2428  0.2713
 2301W        W45354  19.573  10.734  22.286 -0.1344  0.0595 -0.0486
 2302W        W45355  17.865   2.757  27.870 -0.3181  0.2188  0.1326
 2303W        W45356  27.944  33.573  21.945  0.3675  0.0547 -0.1538
 2304W        W45357  28.115  23.058  15.647  0.0771 -0.0103  0.2216
 2305W        W45358  31.607   3.066  26.566  0.2186 -0.0076 -0.0195
 2306W        W45359  21.198   7.504  18.444  0.1009 -0.0518  0.0884
 2307W        W45360  23.867   0.136  20.782 -0.0412  0.2677 -0.2113
 2308W        W45361  30.620   6.095  21.669  0.1803  0.2962  0.2275
 2309W        W45362   6.284   2.206  18.783 -0.1743 -0.0916  0.1068
 2310W        W45363   2.052  14.331  21.111 -0.0333 -0.5280  0.1035
 2311W        W45364  25.905  22.712  25.464  0.0072  0.2388 -0.1044
 2312W        W45365  19.080  13.027  18.122 -0.0146  0.1337  0.1981
 2313W        W45366  24.512   4.097  13.926  0.2583 -0.0605 -0.1056
 2314W        W45367  28.973  12.191  15.931  0.0766  0.1448  0.1161
 2315W        W45368   1.479  18.105  19.645  0.1748  0.0837  0.1211
 2316W        W45369  23.782  12.794  17.469 -0.0322  0.1911  0.1049
 2317W        W45370  31.470  13.149   3.276  0.4049  0.1584  0.1024
 2318W        W45371   7.861  19.686  16.763 -0.0483 -0.3590 -0.3491
 2319W        W45372  31.800  15.676   5.332 -0.0620  0.1267 -0.1187
 2320W        W45373  28.712  10.711  20.267 -0.3908  0.0852  0.0115
 2321W        W45374  11.709  17.446  16.572  0.0240  0.1714  0.2204
 2322W        W45375  11.203   3.620  15.036 -0.0744 -0.2265  0.0867
 2323W        W45376  33.851   0.185   1.542 -0.2457 -0.3711 -0.0806
 2324W        W45377  26.069  17.489  20.123  0.1269  0.3335 -0.0795
 2325W        W45378  20.830   3.391  17.446  0.1423  0.1498  0.0053
 2326W        W45379   5.124  10.473  27.651  0.0033  0.2406  0.0659
 2327W        W45380   2.282  20.249  17.677 -0.1045 -0.1497  0.1725
 2328W        W45381  21.133  25.442  18.274  0.1104 -0.1498  0.0594
 2329W        W45382  31.823  13.747   4.965 -0.2566  0.2166  0.1963
 2330W        W45383  10.245  16.696   1.823  0.1574  0.0206  0.1918
 2331W        W45384  27.435   2.881  25.236  0.1172 -0.1019 -0.0661
 2332W        W45385  19.459  23.423  22.858 -0.1212 -0.2207 -0.1236
 2333W        W45386  19.021   1.224   5.147  0.1302 -0.0256 -0.1810
 2334W        W45387  25.801  16.047  15.454  0.1910 -0.2169  0.1207
 2335W        W45388  31.058  10.406  19.824 -0.5445 -0.1358  0.0871
 2336W        W45389  25.018   7.312  21.237  0.2515  0.1008  0.0456
 2337W        W45390  28.464  12.394  21.980  0.4445 -0.0993 -0.0415
 2338W        W45391  25.431  11.983  25.795  0.0470 -0.2691  0.3035
 2339W        W45392  20.815   9.666  18.132  0.1305 -0.3343  0.1608
 2340W        W45393  24.940  22.592  26.556 -0.0400 -0.2347  0.2110
 2341W        W45394  26.464  17.278  18.897  0.1785 -0.1047  0.0721
 2342W        W45395  25.633  17.102  20.620  0.2461  0.1591 -0.0074
 2343W        W45396   8.468  13.299  15.590  0.0317 -0.2431  0.1274
 2344W        W45397  19.930   3.530  21.270  0.0286  0.4085  0.2338
 2345W        W45398  12.915  32.069   3.446 -0.1613 -0.3760  0.1259
 2346W        W45399  31.221  12.825  16.057  0.2533 -0.2122  0.0194
 2347W        W45400  31.375   4.533  14.367 -0.0399 -0.3959 -0.1670
 2348W        W45401  24.487   1.226   7.633  0.2577 -0.3626  0.2709
 2349W        W45402  10.090  10.951  15.485  0.1055 -0.0308  0.2714
 2350W        W45403  13.929  13.350  26.659  0.0373 -0.2763  0.1238
 2351W        W45404   9.686   8.745  16.021 -0.0477  0.0107  0.0762
 2352W        W45405   6.494  14.136  20.234 -0.2008 -0.0278  0.2047
 2353W        W45406  28.292  13.348  18.814 -0.1138 -0.0541  0.2245
 2354W        W45407  17.664  20.351  13.847  0.2915  0.1189  0.0002
 2355W        W45408  23.214   3.767   3.393 -0.1272 -0.0965 -0.1729
 2356W        W45409  28.185  13.758  29.180 -0.3597  0.0280  0.0226
 2357W        W45410  30.453   8.960  19.221 -0.2930 -0.0504 -0.0333
 2358W        W45411   0.443   6.623  19.639 -0.0585  0.0018 -0.0077
 2359W        W45412  10.217   8.089  27.600  0.0842 -0.2140  0.5284
 2360W        W45413  15.567  13.750  15.109  0.1096 -0.1603 -0.0424
 2361W        W45414  16.135  24.533  16.468 -0.0822 -0.1880 -0.4360
 2362W        W45415  15.787  25.377   6.360  0.1674  0.0826  0.1507
 2363W        W45416  16.001   8.190  20.319  0.0717  0.3386  0.3378
 2364W        W45417  28.605  10.665  21.509 -0.1692  0.0805 -0.2259
 2365W        W45418  25.772  19.166  18.608  0.2089  0.1390 -0.0920
 2366W        W45419  31.479   7.121  17.292 -0.0087 -0.2206  0.1712
 2367W        W45420   9.101  18.259  15.899  0.0821 -0.3643  0.0552
 2368W        W45421  24.260   6.246   4.879  0.0935  0.4096 -0.1535
 2369W        W45422   9.321   4.938  22.427  0.2074 -0.0991  0.0249
 2370W        W45423   8.405  32.751  22.957 -0.0009 -0.0618 -0.2500
 2371W        W45424  33.345  10.489   4.257 -0.0143 -0.2753  0.1508
 2372W        W45425  24.650  12.830  17.975  0.2943 -0.4067  0.1603
 2373W        W45426  19.614  25.476  18.118 -0.0863  0.0666 -0.1391
 2374W        W45427   9.156  18.971  18.317 -0.5490 -0.2740  0.0312
 2375W        W45428  22.431  16.768  19.668  0.1821  0.0029  0.2811
 2376W        W45429  28.954  30.941   5.537  0.1999  0.1800 -0.1136
 2377W        W45430  18.560  21.413  15.480 -0.0897  0.0048 -0.1252
 2378W        W45431   7.960  16.164  26.489  0.1870 -0.1378  0.0847
 2379W        W45432  21.503   1.156  28.421  0.0746  0.1447  0.0265
 2380W        W45433  27.320  15.638  15.555 -0.3929  0.1179  0.0518
 2381W        W45434  15.033  29.320  20.499 -0.1515  0.2892 -0.1478
 2382W        W45435  28.369  12.366  19.130  0.0888  0.2733  0.1082
 2383W        W45436  23.768  11.928  16.194  0.0009 -0.3369  0.0616
 2384W        W45437  12.105  16.977  14.703  0.3689  0.1234 -0.1689
 2385W        W45438  34.326   3.098  13.837  0.1963  0.1181  0.0236
 2386W        W45439  24.789  13.473  25.045  0.0096 -0.3442 -0.2686
 2387W        W45440  22.578  33.950  14.345 -0.1510 -0.2687  0.1905
 2388W        W45441  22.147   6.861  27.196 -0.2164  0.4421 -0.1523
 2389W        W45442   3.816  22.979  15.930 -0.0195  0.2311 -0.2701
 2390W        W45443  11.545  20.356  14.558 -0.0015  0.0539  0.0049
 2391W        W45444  33.591   6.117   2.444 -0.3934  0.0690 -0.0878
 2392W        W45445  24.013  29.895  17.611  0.0059 -0.0474  0.0181
 2393W        W45446   4.648  16.024  22.449  0.1530  0.1466  0.1162
 2394W        W45447  26.323   1.586  25.962 -0.1023  0.0214  0.2396
 2395W        W45448   7.061  28.270  17.327  0.3437 -0.1910 -0.2757
 2396W        W45449  22.826   2.819  16.860  0.3135  0.1785 -0.1608
 2397W        W45450  24.109  10.497   2.564  0.0834  0.1106  0.2158
 2398W        W45451   0.896  10.585  19.591  0.2444  0.0630 -0.1744
 2399W        W45452  30.401  16.036  15.551  0.3887 -0.0974  0.1543
 2400W        W45453  10.739  11.583  19.830 -0.0265  0.1867 -0.0359
 2401W        W45454  12.665   5.369  20.152  0.0509  0.1871 -0.2695
 2402W        W45455   1.910  17.393   7.879  0.1651  0.2046 -0.1281
 2403W        W45456  32.881  34.232  10.241  0.0668  0.1088  0.4366
 2404W        W45457  27.294   9.411  24.852 -0.0522  0.0807 -0.2636
 2405W        W45458   0.453  10.413  22.518 -0.2442 -0.0588 -0.1306
 2406W        W45459  11.314  30.994  16.488 -0.3068 -0.0328 -0.0743
 2407W        W45460   7.173  22.392   5.048 -0.2031 -0.0204 -0.0307
 2408W        W45461  27.187  10.438   7.522  0.0732 -0.4575  0.2913
 2409W        W45462  10.390  27.671  19.053 -0.0885  0.2344 -0.0927
 2410W        W45463  16.063   7.475  17.848 -0.1087  0.0300 -0.0182
 2411W        W45464  24.205  13.862  20.272 -0.0396  0.2223  0.0231
 2412W        W45465  28.016  32.141  19.148 -0.1230  0.0511  0.4211
 2413W        W45466  27.982  18.200  17.050  0.0855 -0.1773  0.1444
 2414W        W45467  24.074  13.759  20.703 -0.2801 -0.2858 -0.2351
 2415W        W45468  22.561   4.796  15.287  0.0595  0.0724 -0.0855
 2416W        W45469  13.782   1.622  22.857  0.0033  0.4411  0.0894
 2417W        W45470  16.550  33.554   1.519  0.0038 -0.1206 -0.0304
 2418W        W45471  25.076  34.232  26.268 -0.0707  0.2106 -0.1130
 2419W        W45472  17.929   8.054  21.278 -0.4911  0.1265  0.3845
 2420W        W45473   2.901  16.720  19.633 -0.2659 -0.2184 -0.4382
 2421W        W45474  11.545   0.912  17.941 -0.2476 -0.2301 -0.1997
 2422W        W45475   7.035  29.164  22.476  0.0141 -0.0186 -0.1116
 2423W        W45476  25.835   1.195  18.578 -0.0789  0.2085 -0.3372
 2424W        W45477   7.079  15.483  22.301  0.2601 -0.0177  0.2710
 2425W        W45478  23.245  12.303  23.088  0.1637  0.0057 -0.1664
 2426W        W45479  32.061  18.729  26.976  0.3229  0.1016 -0.3114
 2427W        W45480  15.501  25.713  23.175  0.0601  0.4769  0.2094
 2428W        W45481  26.669  31.983  20.152 -0.1079  0.0331 -0.0791
 2429W        W45482   0.576  13.748  28.237 -0.0087 -0.2712  0.0070
 2430W        W45483  24.001  10.089  20.190  0.1257  0.3014  0.0336
 2431W        W45484  34.455   7.236  21.383  0.2995  0.1088  0.3235
 2432W        W45485  23.715  23.577  17.003 -0.1437 -0.0656  0.1024
 2433W        W45486   9.145   9.876  24.363 -0.3733 -0.0966  0.1352
 2434W        W45487  26.216   0.618   0.365 -0.1232  0.1677  0.3514
 2435W        W45488  30.687   5.336  15.246 -0.1594 -0.1379  0.3836
 2436W        W45489  32.311   7.324  28.248 -0.2219 -0.1489  0.2898
 2437W        W45490   8.498  11.320  20.934 -0.0443 -0.1792  0.0715
 2438W        W45491  14.788   5.018  28.487 -0.0512  0.0619  0.0777
 2439W        W45492  25.977  31.713   3.896  0.0692  0.2251 -0.2922
 2440W        W45493   4.561   3.533  14.646 -0.0054 -0.0176 -0.0821
 2441W        W45494   4.970  22.013   1.648  0.1711  0.1119  0.0932
 2442W        W45495  27.593  19.574   0.163 -0.3736 -0.0258  0.1080
 2443W        W45496  21.364   0.135   3.801 -0.0091 -0.2547 -0.2059
 2444W        W45497  20.563  20.971  20.416 -0.1032 -0.3388  0.0149
 2445W        W45498  11.459  11.215  23.231 -0.3291  0.1825  0.1273
 2446W        W45499  20.797  34.256  10.021  0.1901  0.0564  0.1549
 2447W        W45500  29.838   5.031  15.378 -0.0142 -0.3248  0.2112
 2448W        W45501  21.505  32.723  20.175  0.0312 -0.3926  0.1046
 2449W        W45502   0.225  22.689  18.321 -0.0231 -0.3408  0.2295
 2450W        W45503  20.305  29.617  22.384 -0.0628 -0.2850  0.1806
 2451W        W45504  28.615  21.896  23.029 -0.3786  0.1878 -0.1816
 2452W        W45505  23.767   5.767  28.350  0.1094  0.1104  0.1101
 2453W        W45506  15.960  19.002  10.254 -0.0669 -0.1476 -0.0088
 2454W        W45507   3.460   9.308  15.974  0.2115  0.0393  0.1059
 2455W        W45508  25.383  14.562  14.462  0.2776  0.0979  0.1853
 2456W        W45509  29.841  27.169  22.620 -0.1341 -0.0858 -0.0173
 2457W        W45510  16.779   3.790  24.713  0.2344 -0.1153 -0.1149
 2458W        W45511  29.194   3.019  17.683 -0.0788 -0.0371  0.2097
 2459W        W45512   1.839  33.772  13.289 -0.0755 -0.1968  0.3060
 2460W        W45513  25.847   8.713  14.980 -0.1406  0.1543 -0.1009
 2461W        W45514   8.083  33.694  19.225 -0.0709  0.0566 -0.0210
 2462W        W45515  19.138  27.662  14.734 -0.0255 -0.0386  0.2086
 2463W        W45516   6.167  30.249  17.651 -0.1051 -0.0994 -0.2592
 2464W        W45517  20.881  12.947  17.818 -0.1443  0.4800 -0.1340
 2465W        W45518  12.711   3.808  22.403 -0.1575  0.1322 -0.0307
 2466W        W45519   2.290  31.756   2.359  0.1782 -0.2771  0.2036
 2467W        W45520   4.248  23.208   8.908  0.1107  0.1555 -0.1209
 2468W        W45521  20.161  18.756   3.713 -0.3976  0.0471 -0.2077
 2469W        W45522  33.162  10.763  14.104 -0.1182 -0.1423 -0.1449
 2470W        W45523  11.888  11.558  21.120 -0.0508 -0.1027 -0.0532
 2471W        W45524   0.337  30.425  16.495 -0.1880 -0.1210 -0.0356
 2472W        W45525  28.946  10.455   2.974 -0.1141  0.4242 -0.0898
 2473W        W45526  12.188   4.307  18.654 -0.6124  0.1413  0.0564
 2474W        W45527  24.995  10.643   5.353  0.1230 -0.0924 -0.2853
 2475W        W45528  28.925  13.374  17.126 -0.0814  0.0491 -0.0091
 2476W        W45529   0.552  26.647   8.052  0.0521  0.1138 -0.1137
 2477W        W45530  22.655   1.360  14.240  0.0642  0.2928 -0.1136
 2478W        W45531  19.990  22.774  19.159  0.1102 -0.0730  0.0631
 2479W        W45532  25.828   7.884  16.382  0.0567 -0.0018 -0.0065
 2480W        W45533  18.329   5.204  18.782  0.0526 -0.2885 -0.0694
 2481W        W45534  16.900  27.904  16.171  0.2001 -0.1933  0.1700
 2482W        W45535   2.966   7.992   1.068 -0.1781  0.0016  0.0553
 2483W        W45536  24.289   9.006  14.607 -0.0858 -0.0135 -0.1317
 2484W        W45537  24.484   4.838  17.577 -0.0940  0.1488  0.0707
 2485W        W45538  29.980  11.820  14.857 -0.0933 -0.0289 -0.2477
 2486W        W45539  16.597  34.251  24.838  0.3333 -0.0153 -0.1430
 2487W        W45540  24.631  10.738  20.058  0.1537  0.0092 -0.2192
 2488W        W45541  13.546  12.714  24.098 -0.0889  0.0742 -0.2546
 2489W        W45542   1.167   4.297  20.218 -0.2332 -0.2246 -0.1037
 2490W        W45543  20.819  19.675  16.812  0.2217 -0.1493  0.2521
 2491W        W45544  16.141  25.530  18.691 -0.5252  0.2937  0.1108
 2492W        W45545  31.076  10.345   4.331 -0.1776 -0.3154  0.0398
 2493W        W45546  14.121   9.102  22.453 -0.0363 -0.0937  0.0352
 2494W        W45547  25.420   0.610  16.533  0.1492  0.0498  0.0920
 2495W        W45548  24.608  16.254  27.389  0.1408  0.3084 -0.1667
 2496W        W45549  30.869   5.714  23.545 -0.0020 -0.0951  0.1175
 2497W        W45550  22.239  21.403  14.604  0.0775  0.2327 -0.3651
 2498W        W45551  23.996  16.545  21.089 -0.1507  0.2028 -0.0092
 2499W        W45552  13.693   7.945  20.919  0.2754  0.2147  0.0603
 2500W        W45553  33.552   1.102  17.175  0.1709 -0.0923  0.0281
 2501W        W45554   3.762  22.269  16.747  0.0628  0.3524 -0.3816
 2502W        W45555  22.068  13.616  17.518  0.0734 -0.0539  0.3516
 2503W        W45556  30.177   9.916   8.115 -0.0930 -0.0517 -0.0093
 2504W        W45557  16.649  11.665  27.044 -0.1770 -0.0056 -0.2805
 2505W        W45558  24.780   4.731  16.101  0.0918  0.3776 -0.0724
 2506W        W45559  27.339  18.404   2.502 -0.0252 -0.0043  0.2357
 2507W        W45560  28.345   8.138  15.890 -0.1093 -0.0300  0.0081
 2508W        W45561   1.036  18.085  15.233 -0.0693 -0.1281 -0.1919
 2509W        W45562  14.758   1.542  21.933  0.2084  0.0201  0.2525
 2510W        W45563  26.745  16.095  15.591  0.1156 -0.3117 -0.1229
 2511W        W45564  26.970  10.909  21.288  0.0452 -0.0629  0.1832
 2512W        W45565  26.775  18.468  17.922  0.0219 -0.0057  0.2722
 2513W        W45566   3.092   2.719  19.092 -0.0831 -0.0698 -0.2616
 2514W        W45567  12.322   0.448   0.366  0.1026  0.3236 -0.2937
 2515W        W45568  20.191   4.705  23.616 -0.0016  0.1435 -0.2404
 2516W        W45569  20.725  16.452  20.162 -0.0784 -0.0434  0.4063
 2517W        W45570  11.885   9.719  20.972  0.0389 -0.0384 -0.2758
 2518W        W45571  21.971  15.607  24.533 -0.0892  0.2694 -0.2550
 2519W        W45572  26.255   8.999   1.538  0.1015 -0.1029 -0.0462
 2520W        W45573  29.092  31.449  21.173 -0.1880 -0.0634  0.2047
 2521W        W45574  18.523   8.607  20.139  0.0482 -0.4433 -0.2443
 2522W        W45575   9.338   4.477  21.043 -0.0476  0.0640 -0.0322
 2523W        W45576  15.537   2.487  21.536  0.0992  0.0473  0.0804
 2524W        W45577   1.811   3.339  28.978 -0.2850  0.3368 -0.1187
 2525W        W45578  22.879  22.219  18.592  0.0028 -0.1490  0.4764
 2526W        W45579  20.465  26.335   2.886 -0.0322 -0.2121  0.3091
 2527W        W45580  28.245   2.509   2.950  0.4888  0.0241  0.2396
 2528W        W45581  15.195  30.177  20.228 -0.1831  0.1092  0.2623
 2529W        W45582   9.981  23.895  26.241 -0.0169  0.2318 -0.1693
 2530W        W45583  26.050   6.238  23.641 -0.1928 -0.2892 -0.1050
 2531W        W45584   8.598  20.277   4.177  0.1778 -0.0798  0.1202
 2532W        W45585  13.429  11.913  21.426  0.1688  0.1189  0.0851
 2533W        W45586   1.834   1.365  22.338  0.2217  0.2009 -0.3302
 2534W        W45587  10.690  11.196   5.970  0.1149 -0.0054 -0.1014
 2535W        W45588  17.940   6.355  20.635 -0.2682  0.0952 -0.1496
 2536W        W45589  27.339  10.394  16.349 -0.3040  0.1119 -0.0671
 2537W        W45590  20.742   8.422  22.773 -0.3921 -0.4274  0.2607
 2538W        W45591  30.721  33.931  18.332  0.1214 -0.0433 -0.2808
 2539W        W45592  23.449  14.158  19.532 -0.0931  0.5172  0.0616
 2540W        W45593   4.642   5.301  18.324  0.1953 -0.1412  0.0760
 2541W        W45594  27.437  15.884  14.441 -0.3234 -0.0489 -0.1180
 2542W        W45595  13.679   8.478  25.611 -0.0483 -0.0760  0.1154
 2543W        W45596  13.964   5.866  15.696 -0.1362 -0.0221  0.0108
 2544W        W45597  21.903   9.974  22.870  0.0890  0.0169 -0.0126
 2545W        W45598  34.157  26.619   0.650  0.1306 -0.2253  0.2538
 2546W        W45599  16.099   8.885  17.859  0.3051  0.2956 -0.2929
 2547W        W45600  34.275  16.746   3.966 -0.3099  0.0114 -0.0201
 2548W        W45601  25.892  19.012  23.404 -0.1259  0.0096 -0.1389
 2549W        W45602  27.494   1.167  16.056  0.1025  0.4176 -0.3184
 2550W        W45603   3.549   7.787   7.915 -0.1536 -0.0497 -0.2624
 2551W        W45604   3.040  13.073  28.663  0.1315  0.0994  0.1722
 2552W        W45605  20.375   5.778   3.348  0.3448 -0.0561  0.1121
 2553W        W45606   3.764  11.705  22.819 -0.2083  0.0161  0.2759
 2554W        W45607   5.047  29.572  20.041 -0.3099 -0.0818  0.1000
 2555W        W45608  25.533   4.305  14.460  0.1297  0.2970  0.2101
 2556W        W45609  20.709   1.844  22.594 -0.1256  0.2271 -0.2029
 2557W        W45610   0.917  13.556  16.851  0.2216  0.1029  0.0312
 2558W        W45611  24.808   1.548  21.342  0.0049 -0.0040 -0.2406
 2559W        W45612  10.523  22.410  18.914  0.0588  0.0718  0.1781
 2560W        W45613  11.096   4.166  19.925  0.2338  0.0590  0.2363
 2561W        W45614  22.501  10.019  21.871 -0.1074  0.1734  0.2439
 2562W        W45615   0.038  17.358  20.636 -0.0754 -0.0523  0.2105
 2563W        W45616  31.276  29.538   1.072  0.0395 -0.2005 -0.0762
 2564W        W45617  26.167  17.003  23.013 -0.3427  0.0198  0.0483
 2565W        W45618  20.322  25.305   6.152 -0.2337  0.1762 -0.1213
 2566W        W45619   6.076   1.746  18.680 -0.1049 -0.0694  0.1298
 2567W        W45620  13.979   9.941  21.539 -0.1778 -0.4173  0.3086
 2568W        W45621  20.022  30.083   0.192  0.0751  0.0267 -0.0950
 2569W        W45622  27.171  33.121  14.872  0.0028 -0.1120  0.0316
 2570W        W45623  29.887  16.272  23.675 -0.1604  0.0573 -0.1241
 2571W        W45624  26.025  10.525   0.545 -0.3078 -0.3225  0.3484
 2572W        W45625   5.651   3.359   9.948  0.2920  0.1101 -0.2473
 2573W        W45626   0.552  17.901  14.388 -0.3851 -0.2041 -0.1232
 2574W        W45627  31.138  18.259  28.015 -0.2780 -0.0251  0.4368
 2575W        W45628  25.855   3.822   0.345 -0.0225  0.0245  0.0287
 2576W        W45629  33.542  31.239  14.406 -0.2008  0.1565 -0.0758
 2577W        W45630  21.245   3.192  20.603 -0.0537 -0.1971  0.0151
 2578W        W45631  14.574  31.156  16.989 -0.0073 -0.2561 -0.0227
 2579W        W45632  29.966   9.002   2.119 -0.0646 -0.2268 -0.1133
 2580W        W45633  33.764  34.238   2.169  0.3231 -0.0454 -0.0560
 2581W        W45634  31.851   8.105  21.622 -0.0462  0.0294 -0.0076
 2582W        W45635  20.989   7.861   9.247  0.0163  0.2966  0.1837
 2583W        W45636  11.751  12.613  24.871 -0.2912 -0.2151 -0.3021
 2584W        W45637  21.918  32.332  28.506 -0.0978 -0.2801  0.1231
 2585W        W45638  21.789   0.750  18.488  0.1697  0.3175  0.1493
 2586W        W45639   3.789  10.968  15.811  0.2337  0.0684  0.1342
 2587W        W45640  30.925   3.170  23.891  0.0094  0.0356  0.0932
 2588W        W45641  21.163  16.804  18.021  0.3267 -0.1053 -0.0716
 2589W        W45642  11.442   5.646  15.256  0.1773 -0.0152  0.0259
 2590W        W45643  25.100  14.326  22.049 -0.4009 -0.1216  0.0712
 2591W        W45644  15.118   1.175   2.317 -0.0305  0.1639 -0.1227
 2592W        W45645  33.168  27.884  15.541 -0.2447  0.1557  0.0198
 2593W        W45646  20.777  14.197  17.295 -0.3610 -0.1647 -0.2732
 2594W        W45647  30.534   4.771  20.692  0.1085  0.0823 -0.0772
 2595W        W45648  18.254  34.326  26.591 -0.0292  0.3299 -0.2890
 2596W        W45649  28.660   3.587  24.177  0.1214  0.2199  0.2527
 2597W        W45650   3.921  14.710   2.084 -0.1583 -0.1503  0.0555
 2598W        W45651  27.580   2.738  17.860 -0.2236  0.0563  0.0586
 2599W        W45652  24.942  13.367  14.879 -0.0485  0.0734 -0.0908
 2600W        W45653   9.206  11.776   6.142  0.0306 -0.1982  0.1506
 2601W        W45654  21.725   3.875  15.628 -0.1300  0.0019  0.0654
 2602W        W45655   4.399   3.590  19.172  0.1639 -0.2037  0.1261
 2603W        W45656  26.488  11.103  29.198  0.0478  0.1326 -0.3273
 2604W        W45657  16.837  10.306   7.130  0.1818 -0.0812  0.2867
 2605W        W45658  30.585   8.762  13.898  0.0125  0.1104  0.4461
 2606W        W45659  25.593  10.144  19.297 -0.2804 -0.2423 -0.1721
 2607W        W45660  31.732   6.966   0.773 -0.4160 -0.2548  0.2013
 2608W        W45661  22.935  30.471  16.813 -0.0187 -0.0538  0.1179
 2609W        W45662  25.591  11.663  14.534 -0.4886  0.2439 -0.2766
 2610W        W45663   8.818   3.567   0.499  0.0506  0.0450  0.3142
 2611W        W45664  15.129  10.657   9.006 -0.1688 -0.1199  0.3242
 2612W        W45665  16.017   7.691  29.166 -0.2646  0.1901  0.2018
 2613W        W45666  16.268   6.086  22.519 -0.1257 -0.2267 -0.3364
 2614W        W45667  32.059   2.974  15.862 -0.1500 -0.1656 -0.0929
 2615W        W45668  17.403   5.652  23.682 -0.1598  0.2584  0.2350
 2616W        W45669  14.712   6.622   2.086  0.2083 -0.1268 -0.0636
 2617W        W45670   0.831  22.861  24.492 -0.1584  0.1420 -0.0604
 2618W        W45671  25.773  16.105  15.963 -0.3114  0.1158  0.0481
 2619W        W45672  29.857   6.305  27.125 -0.0964 -0.1658  0.2536
 2620W        W45673  31.455   0.643  15.923 -0.1476 -0.0327  0.0468
 2621W        W45674  12.241   5.949   2.108  0.1234 -0.0575 -0.3241
 2622W        W45675  25.516  13.522  25.941 -0.1893  0.2052 -0.2124
 2623W        W45676  34.665   1.836  17.027  0.3976  0.0475 -0.1093
 2624W        W45677   3.589  28.536  28.996  0.0615  0.0306  0.2706
 2625W        W45678  16.606   6.972  16.843  0.0077  0.0025 -0.0108
 2626W        W45679  30.526   1.824  23.605  0.3202 -0.1802 -0.1022
 2627W        W45680  32.751  14.418   2.098 -0.3933 -0.0246 -0.0171
 2628W        W45681  21.971   7.642  14.871  0.1274 -0.2386  0.1518
 2629W        W45682  21.086   5.104  17.753  0.0842 -0.1237  0.0774
 2630W        W45683  28.080  22.048   3.529 -0.0642 -0.0010  0.2834
 2631W        W45684  32.723  33.066   6.485 -0.1144  0.0817 -0.0865
 2632W        W45685  25.408  12.914  21.287  0.3742  0.0505 -0.2092
 2633W        W45686  32.074   1.922  16.060 -0.0107  0.2204 -0.0107
 2634W        W45687   0.185   7.411  10.142  0.0542 -0.2000 -0.1295
 2635W        W45688   1.363  20.950  21.603 -0.1647 -0.1775 -0.2042
 2636W        W45689  20.431  21.680  18.343 -0.0747  0.0711 -0.0576
 2637W        W45690  19.547  10.898  20.958 -0.2253  0.2342 -0.0257
 2638W        W45691  22.285  28.916  15.160 -0.2521 -0.0249  0.0203
 2639W        W45692  22.258  34.359  23.538 -0.1131 -0.1849  0.1401
 2640W        W45693   9.336   0.868  19.912  0.1089  0.2475 -0.3299
 2641W        W45694  24.200   5.078  14.309 -0.2204 -0.1957 -0.4020
 2642W        W45695  30.355   2.990  20.780  0.0352  0.0736  0.0458
 2643W        W45696  13.553  30.573  28.632  0.0842 -0.0175 -0.1320
 2644W        W45697  33.434  13.043  18.815 -0.1930 -0.0142  0.0634
 2645W        W45698  21.238   5.903  16.727  0.0749 -0.3605  0.0286
 2646W        W45699  31.535  17.462  27.443 -0.0006 -0.0386  0.0168
 2647W        W45700  10.223  30.294   3.911  0.0129 -0.0821 -0.1784
 2648W        W45701   5.777   6.492  19.452 -0.3573  0.0619  0.0030
 2649W        W45702  22.623  13.453  17.858 -0.0835 -0.1872  0.0714
 2650W        W45703   0.096  19.546   7.639 -0.2688 -0.2627  0.0182
 2651W        W45704   8.155   0.565   0.310  0.1996  0.0824 -0.0299
 2652W        W45705  20.238   4.933  21.748 -0.4346 -0.2256 -0.1950
 2653W        W45706  21.090  30.748   7.023 -0.1031  0.1191 -0.2156
 2654W        W45707  32.289   6.166  27.220 -0.3368  0.1127  0.0807
 2655W        W45708  31.289   6.246   9.083 -0.1604  0.3011  0.1970
 2656W        W45709  32.341   1.911  18.283 -0.1265  0.2306 -0.0536
 2657W        W45710  28.114  33.144  22.763  0.1543  0.2683  0.1248
 2658W        W45711  16.523  25.875  20.155 -0.1851  0.0825 -0.0052
 2659W        W45712  27.545  33.886   0.237  0.2529 -0.0727  0.0450
 2660W        W45713  25.335  14.438  15.409 -0.2148 -0.2519 -0.1235
 2661W        W45714  21.380  20.517  22.505  0.0167 -0.0861  0.4315
 2662W        W45715  20.401  15.732  23.649 -0.3009  0.0299 -0.3637
 2663W        W45716   7.035  28.439  27.783 -0.1217  0.0256  0.0031
 2664W        W45717  10.765  13.631  27.117 -0.1836 -0.0489 -0.1758
 2665W        W45718  27.857   2.151  17.090  0.1334  0.2562  0.2026
 2666W        W45719   7.838  15.491  21.746 -0.0216  0.3686 -0.1540
 2667W        W45720  30.503  24.130  17.958  0.2438 -0.1719  0.2253
 2668W        W45721  24.249  15.901  19.423 -0.2871 -0.2132  0.1108
 2669W        W45722  23.662  21.604  15.229  0.2357  0.2111  0.1319
 2670W        W45723  10.344  25.616   3.029  0.2013 -0.2651 -0.2315
 2671W        W45724  24.428  18.636  21.154 -0.0074 -0.2821 -0.2260
 2672W        W45725   9.071  17.260   1.884  0.0169  0.0600  0.1861
 2673W        W45726  21.000   4.964  21.515 -0.0624  0.2147 -0.1588
 2674W        W45727  15.486  22.388  23.562  0.1681 -0.1326 -0.2350
 2675W        W45728  27.484  28.423  16.841 -0.0326  0.0698  0.1057
 2676W        W45729  29.116   6.116  16.599 -0.2795 -0.0474 -0.2475
 2677W        W45730  30.364   5.123  14.902 -0.0102 -0.0575  0.0925
 2678W        W45731  31.940   9.909   1.266 -0.1978 -0.2311  0.0937
 2679W        W45732  22.218  10.424  16.383 -0.1429  0.2129 -0.4399
 2680W        W45733  13.686  10.755  19.630  0.1170  0.2513 -0.0592
 2681W        W45734  19.547   4.749  18.683 -0.3022  0.0407  0.0598
 2682W        W45735  17.568   0.157   9.033  0.2606  0.1509 -0.1021
 2683W        W45736  13.003  17.000  16.728 -0.0562  0.0878  0.1432
 2684W        W45737  31.069  12.294  20.487  0.1728 -0.0436 -0.0965
 2685W        W45738  33.619   4.737  17.288  0.0292 -0.0430  0.1138
 2686W        W45739  16.765  13.216  24.385 -0.2568 -0.0444  0.4614
 2687W        W45740  18.605   2.263  18.775 -0.0711  0.1906 -0.1164
 2688W        W45741  16.810   6.887   4.840 -0.1441  0.0319  0.0979
 2689W        W45742   2.437   9.553  28.322 -0.1237 -0.0199 -0.0053
 2690W        W45743  17.048  15.923  22.864 -0.1783  0.0980 -0.0610
 2691W        W45744  33.001  29.383  20.102 -0.0918  0.2662 -0.1185
 2692W        W45745  26.142   1.827  27.503 -0.0851 -0.1409  0.1027
 2693W        W45746  29.282  20.544  21.876  0.0425 -0.2950  0.1654
 2694W        W45747  23.424   2.151  10.328 -0.1362 -0.2711 -0.0648
 2695W        W45748  29.691  16.002  17.575  0.0786 -0.0190  0.1261
 2696W        W45749  25.800   6.321  28.580 -0.3158 -0.0554  0.2308
 2697W        W45750  21.840  22.583   4.696  0.2328 -0.0734  0.0247
 2698W        W45751  23.929  18.177  15.375  0.2261  0.1729 -0.1945
 2699W        W45752  26.167  32.702   1.328  0.1959 -0.0026  0.4188
 2700W        W45753  21.644  11.790   0.374 -0.0838  0.0085 -0.1999
 2701W        W45754  28.834   6.462  22.447  0.3770  0.0282  0.2963
 2702W        W45755  29.646  33.246  29.144 -0.1148 -0.0035 -0.1416
 2703W        W45756   6.495  30.572  14.004  0.1817 -0.0380  0.0933
 2704W        W45757  15.964  29.998  16.749 -0.0570 -0.2749 -0.3575
 2705W        W45758  29.096   4.785  26.270  0.3454  0.1684  0.0836
 2706W        W45759  31.867  14.085  24.379  0.0670 -0.2886 -0.0161
 2707W        W45760  34.368  20.044   6.367 -0.1620 -0.2175 -0.0801
 2708W        W45761  25.240   1.682   0.817  0.1747  0.3951  0.1096
 2709W        W45762  32.298  14.332  19.219  0.0988 -0.0118  0.1137
 2710W        W45763  22.396  22.829   4.125  0.2261 -0.2274  0.0956
 2711W        W45764  31.410  18.647   1.292  0.2123  0.0275  0.0289
 2712W        W45765  28.578  10.908  17.047 -0.2218 -0.2672  0.5998
 2713W        W45766  22.164  10.121  15.619 -0.1064 -0.0690  0.0482
 2714W        W45767  31.658  11.654  20.593 -0.2490 -0.0924 -0.2707
 2715W        W45768  21.312  26.638   3.880 -0.2286 -0.0460 -0.2346
 2716W        W45769   1.303  25.024  14.342 -0.0656  0.1883 -0.3194
 2717W        W45770  21.683  30.444   2.798 -0.3367 -0.6985 -0.1888
 2718W        W45771  13.735  31.600   0.474  0.0218  0.0753 -0.1390
 2719W        W45772   6.328  19.944  15.800 -0.2219 -0.0486  0.0156
 2720W        W45773  31.918   0.032  14.273 -0.0703  0.0024  0.0760
 2721W        W45774   0.010  10.411  27.345 -0.2773  0.0591  0.1004
 2722W        W45775  16.580   2.321  23.740 -0.0467  0.0513 -0.0428
 2723W        W45776  23.191  32.993  20.772  0.0714  0.0319  0.2099
 2724W        W45777  20.060   3.598  16.546 -0.1599  0.0337 -0.0436
 2725W        W45778  22.301  21.328  20.799 -0.1310  0.0556 -0.0950
 2726W        W45779  12.388   8.881   5.625 -0.0104  0.0831 -0.3460
 2727W        W45780  30.681  20.379  26.003 -0.2015 -0.1305  0.2968
 2728W        W45781   5.851  20.146  14.550  0.0707 -0.0613  0.0959
 2729W        W45782  26.061   4.365  20.693 -0.2367  0.0546  0.0542
 2730W        W45783  18.000   8.359  26.191  0.2048 -0.2905 -0.0170
 2731W        W45784  20.883  14.765  28.286  0.0902 -0.0980 -0.0375
 2732W        W45785  26.606   8.863  18.041 -0.3870  0.0730  0.1663
 2733W        W45786  15.548   9.034  20.879  0.0063 -0.5671  0.2915
 2734W        W45787  32.870  11.734  26.614  0.0618 -0.0622 -0.0050
 2735W        W45788  19.777   9.970  20.189 -0.2421 -0.0711 -0.0379
 2736W        W45789  25.760   2.443   6.259  0.1855  0.1929 -0.2361
 2737W        W45790  28.831  10.246  19.632 -0.0072  0.2077  0.0058
 2738W        W45791  28.913   6.499   1.837  0.1840 -0.1903  0.1028
 2739W        W45792  25.328   3.033   6.842 -0.1785  0.0317  0.1454
 2740W        W45793   1.902   0.785  20.106 -0.1241 -0.0059 -0.2987
 2741W        W45794  20.492  24.112  22.213 -0.1372  0.0448  0.0767
 2742W        W45795  22.570  34.557  19.886 -0.0473 -0.0536 -0.3028
 2743W        W45796  16.299   5.180  14.186  0.2583  0.3560 -0.1729
 2744W        W45797   9.942  32.985   2.984  0.1143 -0.0968  0.2229
 2745W        W45798  10.102   4.887  10.884 -0.0375  0.0817  0.0065
 2746W        W45799  31.864  21.367  26.715 -0.0328 -0.0476 -0.2930
 2747W        W45800   0.030   3.743   0.606  0.2795 -0.1553  0.0522
 2748W        W45801  18.619   4.594  15.501  0.1902  0.2613 -0.0183
 2749W        W45802  26.829   8.683   4.451 -0.0092  0.0684 -0.2922
 2750W        W45803  10.586   3.649  29.131 -0.0618 -0.0384 -0.1844
 2751W        W45804   9.237  24.192  19.874 -0.0724  0.4137 -0.5184
 2752W        W45805   7.862  17.105  23.609 -0.0476 -0.0044  0.1062
 2753W        W45806  22.152   4.003   4.368  0.0678 -0.1992  0.1036
 2754W        W45807  17.944   5.877  24.985  0.0099  0.1177  0.1856
 2755W        W45808  24.886  18.498  18.020 -0.0073 -0.0223 -0.1922
 2756W        W45809  22.349  29.563   2.579 -0.0813 -0.1688  0.1240
 2757W        W45810   1.117  20.597   9.836 -0.0351  0.0224 -0.3579
 2758W        W45811  13.554  19.179  14.872  0.0105 -0.0745  0.4412
 2759W        W45812  18.597  29.797  22.585 -0.0027  0.2144  0.4257
 2760W        W45813   8.972  14.387  25.786  0.5768  0.1078 -0.2121
 2761W        W45814  29.292  10.085  20.166 -0.0005 -0.0196  0.1403
 2762W        W45815   6.097  24.251  24.450  0.1042 -0.2342 -0.1652
 2763W        W45816  24.258   9.197  15.077  0.1160  0.2253 -0.1619
 2764W        W45817  13.874  30.382  19.526 -0.3555 -0.0973  0.1706
 2765W        W45818  30.895  15.734  14.749  0.3203  0.2911 -0.1000
 2766W        W45819   7.699  25.195   7.177  0.1044 -0.1573 -0.2177
 2767W        W45820  23.439  31.734  23.647  0.2601  0.3096  0.0298
 2768W        W45821  15.233   1.593  22.213 -0.2809 -0.0026  0.1654
 2769W        W45822  32.075  12.322  18.417 -0.0990  0.0587  0.2050
 2770W        W45823  25.268  11.660  18.071 -0.1221 -0.0179 -0.0771
 2771W        W45824   4.972   4.023  13.561 -0.0831 -0.2768 -0.1777
 2772W        W45825   8.592  10.285   1.402  0.0589 -0.0647 -0.2967
 2773W        W45826  28.529  12.417  10.100  0.0549  0.1183 -0.0118
 2774W        W45827  15.445  15.362  14.589 -0.2704 -0.1238 -0.0190
 2775W        W45828  24.217   1.355  27.774  0.1350 -0.2062 -0.0381
 2776W        W45829  20.097  31.741  24.637  0.0274  0.1316  0.4016
 2777W        W45830  27.370  10.887  18.164 -0.0937 -0.0682 -0.3397
 2778W        W45831  22.975   4.354  21.158  0.4573 -0.1637  0.3875
 2779W        W45832  10.387   6.133  25.448  0.3358 -0.1129 -0.0877
 2780W        W45833  26.855  15.902  16.069 -0.0198  0.0955  0.4006
 2781W        W45834  28.214  24.606  20.918 -0.0948  0.0108  0.2867
 2782W        W45835  22.449  16.079   9.473 -0.1499 -0.0231  0.0945
 2783W        W45836  15.115   5.050  27.138 -0.2461 -0.1415 -0.3620
 2784W        W45837  21.324  19.725  26.924 -0.2262  0.1652  0.3457
 2785W        W45838  29.705   1.012   2.865  0.1882  0.0503 -0.3102
 2786W        W45839   8.726  26.193  19.184  0.0871  0.0574  0.0186
 2787W        W45840  19.038  18.373  13.302 -0.5608  0.0331 -0.2378
 2788W        W45841  19.553   5.389  23.908  0.0947  0.0949  0.0753
 2789W        W45842   8.144   9.145   5.979  0.1945  0.1253  0.0363
 2790W        W45843  26.589   0.058  27.308  0.4876 -0.1152  0.0525
 2791W        W45844  26.636  34.374   2.057  0.2421 -0.2844  0.2135
 2792W        W45845  27.851  12.125  29.014  0.1339 -0.0759  0.3310
 2793W        W45846  23.481   0.454  18.041  0.1084 -0.0379  0.0247
 2794W        W45847   5.092   5.342   7.416  0.1973 -0.0555  0.1105
 2795W        W45848  21.698  10.805  24.727 -0.1139 -0.1612 -0.4249
 2796W        W45849  34.674   9.418  22.720 -0.2744  0.0672 -0.0999
 2797W        W45850  16.351  14.331  15.346  0.0463 -0.0285  0.2883
 2798W        W45851  21.822  14.505   2.348  0.2869  0.0714 -0.0375
 2799W        W45852  18.206  20.528  26.288 -0.2741 -0.1437  0.1613
 2800W        W45853  32.316  16.910  27.761 -0.0294 -0.1073 -0.3496
 2801W        W45854  18.658  25.249   6.984  0.2931 -0.1044 -0.1190
 2802W        W45855  31.264  19.047  27.881  0.1534  0.0420 -0.0546
 2803W        W45856  27.195   7.938  21.625 -0.2031 -0.0051  0.1226
 2804W        W45857   6.471  30.178   8.880  0.2071  0.0193 -0.1560
 2805W        W45858  26.931  13.297  23.277 -0.2327 -0.2135  0.2098
 2806W        W45859  13.499   7.170   7.267  0.0671 -0.2028 -0.0620
 2807W        W45860  30.099  22.023  26.008 -0.0851 -0.0150  0.2647
 2808W        W45861  23.531   2.567  22.671  0.0349  0.1190  0.5693
 2809W        W45862  20.888   6.748  23.804  0.2372  0.1954 -0.2480
 2810W        W45863  18.027  29.910  24.056  0.2615  0.0760  0.2166
 2811W        W45864  30.988   8.182  28.960 -0.2106 -0.1025  0.1714
 2812W        W45865  22.523  20.396  19.328  0.3505  0.0410  0.0776
 2813W        W45866  32.305   9.095   2.223 -0.2889  0.0094  0.0497
 2814W        W45867  14.049  23.709  27.407  0.1125 -0.1693  0.2081
 2815W        W45868  12.847   6.803  20.569 -0.4894  0.0027  0.1399
 2816W        W45869  29.801  33.745  21.879 -0.1706 -0.2008 -0.1502
 2817W        W45870  30.826  34.244  20.736  0.0141  0.3948  0.0460
 2818W        W45871  22.558  14.193  16.876 -0.3760 -0.0387 -0.0788
 2819W        W45872  28.464   5.873  14.384 -0.1587 -0.2399  0.4168
 2820W        W45873  33.620  16.110  23.477 -0.3814  0.0689  0.2257
 2821W        W45874   8.034  15.813  18.933 -0.0354  0.1954  0.1896
 2822W        W45875  31.701  18.308  18.503 -0.1172  0.0779  0.1574
 2823W        W45876  18.649  15.343  15.226  0.2546  0.0511 -0.0896
 2824W        W45877  30.598  14.206   4.007  0.0794 -0.2231  0.1511
 2825W        W45878  20.558  11.124  16.916  0.0259  0.0697 -0.2378
 2826W        W45879   7.598  34.044  27.134  0.1653 -0.0058 -0.1413
 2827W        W45880  23.543   5.099  13.856  0.1580  0.1614  0.4896
 2828W        W45881  30.047  33.975   7.857  0.1531 -0.1443 -0.0412
 2829W        W45882  18.794  12.291  20.771  0.0571 -0.3820  0.0468
 2830W        W45883  16.853   7.498  29.063  0.0087  0.2047  0.0610
 2831W        W45884  20.072   8.666  26.662  0.1205 -0.0469 -0.2073
 2832W        W45885  32.628  17.138  13.312 -0.1626 -0.0356  0.3102
 2833W        W45886  31.453  28.031  25.339 -0.0374  0.2642 -0.2355
 2834W        W45887   3.936  23.681   2.226  0.1225  0.0302 -0.1295
 2835W        W45888   8.253  14.252   3.350  0.0176  0.0705  0.0127
 2836W        W45889  26.798   8.735   1.653 -0.1196 -0.1127 -0.0006
 2837W        W45890  27.084   4.782  21.741  0.0152 -0.3147 -0.0232
 2838W        W45891  20.212  12.060   1.575 -0.0943 -0.0255  0.1276
 2839W        W45892  12.101   3.123   2.936  0.1584 -0.1077  0.1198
 2840W        W45893  29.405   2.743   6.788  0.4420  0.2590  0.1405
 2841W        W45894   2.484  23.405  16.061 -0.1396 -0.0208  0.1684
 2842W        W45895  17.482   8.119  23.697  0.0042 -0.0783 -0.0093
 2843W        W45896   2.300  11.279  26.560 -0.0728  0.1203  0.0027
 2844W        W45897  20.188   5.927  24.606 -0.1150 -0.2277 -0.2155
 2845W        W45898  19.889   9.024  14.224  0.0627  0.1402 -0.0951
 2846W        W45899  29.345   8.944  24.256  0.1319 -0.2109  0.2158
 2847W        W45900   9.047   1.542   2.946  0.3397  0.3609  0.2181
 2848W        W45901  21.903   6.107  20.358 -0.0519  0.4952  0.1068
 2849W        W45902  22.669   1.168  21.670  0.1138 -0.0591  0.1085
 2850W        W45903  26.174   8.044  15.994 -0.3149  0.0710  0.1154
 2851W        W45904  27.102   5.411  19.557 -0.1837 -0.4014  0.3114
 2852W        W45905  26.042   3.664  24.797  0.0040  0.1611  0.0381
 2853W        W45906  19.963  15.308  28.078 -0.3145 -0.0504 -0.1835
 2854W        W45907  26.256   7.321  26.614 -0.3618 -0.0630  0.1330
 2855W        W45908  15.711  16.505  13.387 -0.0225 -0.1684 -0.0821
 2856W        W45909  29.044   6.025   0.052  0.1235  0.0219 -0.0743
 2857W        W45910  32.027   2.096  23.827 -0.4206 -0.1519 -0.0957
 2858W        W45911  20.725  32.166  24.494 -0.2341 -0.1304  0.0123
 2859W        W45912  23.441  14.472  28.066 -0.2938  0.1503 -0.1802
 2860W        W45913  24.062  12.830  28.040 -0.0310 -0.2531  0.1402
 2861W        W45914   3.913  11.369   3.968  0.0010  0.3118 -0.0762
 2862W        W45915  26.808  20.342  21.671 -0.3037 -0.1465 -0.0425
 2863W        W45916  15.251   6.238  18.737  0.2011  0.1274 -0.0627
 2864W        W45917  31.705  15.435  24.199 -0.0881  0.2201 -0.0705
 2865W        W45918   8.684   4.844  22.873 -0.0686 -0.2886 -0.4042
 2866W        W45919   8.013  14.202  18.300 -0.2549 -0.0690 -0.0354
 2867W        W45920  32.836   0.543   2.376  0.0569  0.2660 -0.3436
 2868W        W45921  13.447   7.463  24.167 -0.2430  0.2381 -0.2151
 2869W        W45922   0.653  30.940  22.263  0.1137 -0.0896  0.1642
 2870W        W45923  20.960   5.040  13.909 -0.0612 -0.1996  0.0826
 2871W        W45924  11.999  10.311   7.787  0.7079  0.1741 -0.0760
 2872W        W45925  30.909  19.581   8.411  0.0433 -0.1472 -0.0216
 2873W        W45926  22.198  13.311  17.896 -0.0355 -0.0269 -0.1653
 2874W        W45927  14.645  11.099  26.373 -0.1064 -0.1239  0.1750
 2875W        W45928   0.475   7.263   1.982 -0.0017  0.1394  0.0849
 2876W        W45929  24.967  16.519   1.868 -0.0507 -0.0466 -0.0126
 2877W        W45930  26.594  33.901   8.357 -0.1103  0.2581  0.0588
 2878W        W45931  31.274   5.857  27.545  0.0993 -0.1934  0.1751
 2879W        W45932   4.884  26.525  20.365 -0.0118 -0.2348 -0.1690
 2880W        W45933   3.871   7.580  16.344 -0.3785  0.1125 -0.0395
 2881W        W45934  19.663  32.538  26.426 -0.3855 -0.2325 -0.3065
 2882W        W45935   3.176   6.326  18.985  0.2670  0.3680 -0.2982
 2883W        W45936  29.665  25.336   0.871  0.0096 -0.2020  0.0465
 2884W        W45937  12.454  18.164  23.436  0.0615  0.2723 -0.2031
 2885W        W45938  19.540  22.135  20.499  0.3582 -0.1688  0.2184
 2886W        W45939  30.655  15.266  18.890  0.1476  0.0262  0.1169
 2887W        W45940  27.508   7.633  21.452  0.3915 -0.0919 -0.1063
 2888W        W45941  15.019  26.278  16.020 -0.1113 -0.1822 -0.2752
 2889W        W45942   0.676  13.259   1.038 -0.3729 -0.1331  0.1040
 2890W        W45943  18.273  10.799  23.099 -0.0017 -0.0015 -0.0991
 2891W        W45944   5.363   2.519  20.646  0.1181 -0.0798  0.1184
 2892W        W45945  32.645  17.410   1.218  0.3588  0.0058 -0.0056
 2893W        W45946  10.184  33.469  27.182  0.0693  0.1781  0.0510
 2894W        W45947  14.086   8.138  20.435 -0.1702 -0.1270 -0.0420
 2895W        W45948  15.269   6.146  16.671  0.3041 -0.3531  0.3453
 2896W        W45949   2.391  11.631  19.004 -0.0672  0.0219 -0.0666
 2897W        W45950   0.147   3.034  16.196  0.2362  0.0174  0.0363
 2898W        W45951  27.664   8.465  22.539 -0.0984 -0.0431 -0.1233
 2899W        W45952  17.233  29.931  22.460 -0.0488  0.2287 -0.1531
 2900W        W45953  19.466  11.881   6.158 -0.1119 -0.0571 -0.2645
 2901W        W45954  14.648   2.969  27.690 -0.1964  0.6275  0.0053
 2902W        W45955  22.354  23.689  20.878 -0.1760 -0.2644  0.0645
 2903W        W45956  23.225  10.377   0.499  0.1167  0.0281 -0.0811
 2904W        W45957   0.616  11.863  20.279  0.1097  0.0268  0.1480
 2905W        W45958  34.184  31.886  22.269 -0.1897  0.0354 -0.1078
 2906W        W45959   4.811  12.995  19.325 -0.3120  0.1500  0.2312
 2907W        W45960  29.540  20.007  29.195 -0.1487  0.1990 -0.0700
 2908W        W45961   9.162  32.080   5.612  0.1864 -0.1956  0.1758
 2909W        W45962  24.295  19.503  22.143 -0.2299 -0.1060  0.0802
 2910W        W45963  22.607   4.368  16.470  0.2503 -0.0355 -0.0312
 2911W        W45964  20.349   2.645  15.712 -0.2064  0.0985  0.1666
 2912W        W45965  20.965  31.742  18.773  0.0125 -0.0209 -0.0532
 2913W        W45966  18.644  19.366  14.555 -0.1042 -0.2356 -0.1390
 2914W        W45967   9.043   3.745   3.389 -0.0745  0.1825  0.0998
 2915W        W45968  28.191  11.463   6.641 -0.1058  0.1380  0.0595
 2916W        W45969  12.278  28.402  23.928  0.2751 -0.1513  0.0948
 2917W        W45970  23.984  19.968  17.184 -0.1854  0.3811 -0.1023
 2918W        W45971  12.080  11.935   8.965 -0.0925 -0.1442  0.4760
 2919W        W45972  24.276   5.651   9.901  0.0150  0.2501 -0.3529
 2920W        W45973  11.067  33.094  20.269  0.0701  0.1490  0.0114
 2921W        W45974  24.827  13.064  18.392  0.1614 -0.3393  0.3146
 2922W        W45975  24.797   7.655  20.332  0.2416 -0.0297 -0.0232
 2923W        W45976  16.190   4.149   7.204 -0.0484  0.0352  0.1419
 2924W        W45977  25.813   3.636   2.217  0.0694 -0.0270 -0.2250
 2925W        W45978  26.522  12.493  22.240 -0.1873 -0.0240 -0.3426
 2926W        W45979  30.233  12.034  16.647 -0.2730  0.2322  0.0377
 2927W        W45980  23.800   8.096  23.972 -0.1132  0.2342  0.2688
 2928W        W45981  29.261  21.420   8.015 -0.0444 -0.0606 -0.1124
 2929W        W45982  17.753  34.666  19.447 -0.1966  0.1238  0.2264
 2930W        W45983  20.173  32.267  15.772 -0.1219 -0.0301 -0.0919
 2931W        W45984  12.922   2.530   2.418 -0.0799  0.6460  0.1240
 2932W        W45985   3.672   4.643   1.840 -0.0670 -0.0918  0.1258
 2933W        W45986  23.656   5.475  19.773  0.0125 -0.1258 -0.3194
 2934W        W45987   0.751   4.354  28.599 -0.0764  0.4120  0.4611
 2935W        W45988   0.913   5.810  18.636 -0.0069 -0.1382  0.2241
 2936W        W45989   4.912  18.490   1.458 -0.0166  0.2418  0.1302
 2937W        W45990  22.737   7.880  16.671  0.0838 -0.2046  0.1532
 2938W        W45991  25.484   4.157   5.991  0.0096  0.1393 -0.0112
 2939W        W45992  12.624   8.066   4.032 -0.0251  0.1525  0.1723
 2940W        W45993  15.524   2.232  26.328  0.1867  0.0362 -0.0401
 2941W        W45994  20.547  12.838   0.345 -0.2057  0.2566 -0.2841
 2942W        W45995  33.422  24.295  22.296  0.0738 -0.2748 -0.0403
 2943W        W45996   7.104  16.965  25.037  0.0338  0.1824  0.0248
 2944W        W45997  21.429  17.099   3.122 -0.2613  0.1394 -0.0703
 2945W        W45998  27.459   5.136  24.038  0.0348  0.1175  0.0580
 2946W        W45999  24.851  14.663  25.256  0.2994  0.0303  0.3430
 2947W        W46000  31.930   6.209   8.785  0.0436 -0.1027 -0.0397
 2948W        W46001   5.730   9.445  26.503 -0.1181 -0.4718  0.2175
 2949W        W46002  19.518   3.122   8.571 -0.0332  0.2828  0.1163
 2950W        W46003  17.994  31.808   2.003  0.0816  0.1301 -0.0194
 2951W        W46004  29.694  11.511  27.186  0.1413 -0.0770 -0.2986
 2952W        W46005  23.334   6.730  21.701 -0.1202  0.0601  0.0687
 2953W        W46006   2.193  28.163   4.644  0.3774 -0.2951 -0.0276
 2954W        W46007  10.438  11.939   4.474  0.0069 -0.0459 -0.0294
 2955W        W46008  27.952   9.834   1.207 -0.1749  0.4885  0.2412
 2956W        W46009  17.869  10.055  18.250 -0.1826  0.2562 -0.0938
 2957W        W46010  17.812   0.548  22.088  0.0534  0.1200 -0.1277
 2958W        W46011   2.045  15.448  19.568  0.1653  0.1526 -0.1198
 2959W        W46012  13.351  11.686  18.743 -0.0370  0.3001  0.4112
 2960W        W46013  16.293   1.446  18.463 -0.0127  0.0743  0.0240
 2961W        W46014  17.426   7.776  25.726  0.0312 -0.1283 -0.1354
 2962W        W46015  19.128   7.273   8.063 -0.1283 -0.0678 -0.0123
 2963W        W46016  21.128  14.422   6.880 -0.1282 -0.0466  0.1362
 2964W        W46017  15.554   0.415  14.123 -0.0848  0.0541 -0.2419
 2965W        W46018   9.770  26.266   3.271  0.0576  0.1255 -0.3246
 2966W        W46019  20.317   0.674   6.145 -0.0470  0.3760 -0.0414
 2967W        W46020  10.902   2.422   0.935  0.1359 -0.0392  0.0217
 2968W        W46021  28.835  14.775   1.697  0.3948  0.4813  0.5281
 2969W        W46022  30.486  14.179   5.624 -0.2170 -0.1036  0.0988
 2970W        W46023   8.508  10.970   4.196  0.0450 -0.0334 -0.2671
 2971W        W46024  33.630  11.771   4.106  0.2199 -0.1126  0.0473
 2972W        W46025  21.488   4.996  21.496 -0.1452 -0.0116 -0.3285
 2973W        W46026  22.196  10.001  21.474 -0.3961 -0.1621 -0.0066
 2974W        W46027  24.950  12.713   7.551  0.1478  0.1214 -0.0936
 2975W        W46028  21.115  33.715   3.607 -0.0056  0.0445 -0.1428
 2976W        W46029  22.720   8.504   6.636 -0.1063 -0.1857  0.2013
 2977W        W46030  30.073   3.325  16.167 -0.1110  0.2101 -0.0010
 2978W        W46031  28.194   5.455   3.781  0.0842  0.2084  0.2729
 2979W        W46032  31.005   9.495   4.541  0.2075  0.0815 -0.1624
 2980W        W46033  23.349  21.265  21.841 -0.0004  0.3057 -0.0201
 2981W        W46034   9.891  22.302   5.879  0.3245 -0.3051 -0.0382
 2982W        W46035   3.204   1.543   2.793 -0.1356  0.0709 -0.3498
 2983W        W46036  31.932  10.933  23.947 -0.1301  0.0478  0.1788
 2984W        W46037  13.186   6.377   5.696 -0.1837 -0.2763 -0.0452
 2985W        W46038  29.048   8.926   9.028 -0.1494 -0.2137  0.1736
 2986W        W46039  14.929  34.381  18.694 -0.0782 -0.1138  0.3121
 2987W        W46040  21.738  12.663  27.673  0.0878  0.0939 -0.1173
 2988W        W46041  24.457   7.560  26.949 -0.0049  0.1508 -0.0890
 2989W        W46042  19.308  24.936  14.884 -0.0532 -0.1581 -0.0232
 2990W        W46043  25.328  16.463  20.419 -0.3716  0.1056  0.0335
 2991W        W46044  16.778  12.198  25.279  0.3461  0.1449  0.1119
 2992W        W46045  28.498  16.731  21.293 -0.0496  0.2045  0.2377
 2993W        W46046  32.689   4.789   9.669  0.0432 -0.1024  0.0006
 2994W        W46047  30.265  12.664  10.358  0.0895  0.0604  0.1259
 2995W        W46048  33.153   3.817  27.459 -0.3293 -0.0724 -0.0337
 2996W        W46049  27.617   8.808  26.049 -0.3400 -0.0238 -0.2833
 2997W        W46050  30.897  15.252   5.736  0.2771  0.0568  0.1173
 2998W        W46051   8.177   8.798  26.643 -0.2976  0.4879 -0.1106
 2999W        W46052  28.093   6.018   0.851 -0.2470  0.0016  0.1914
 3000W        W46053  18.650  19.194  28.331 -0.0651  0.4119 -0.2359
 3001W        W46054   0.951  34.660  26.912  0.0400  0.0737  0.0230
 3002W        W46055  22.098  20.066  23.145 -0.0709 -0.1719 -0.1311
 3003W        W46056  24.791  12.624  24.755  0.0577  0.0407  0.1324
 3004W        W46057   0.650  20.626  17.007 -0.2568 -0.1282 -0.0533
 3005W        W46058   8.302   7.041  22.350  0.0560  0.1655  0.2007
 3006W        W46059  21.579   8.018  22.408  0.0708 -0.1743  0.1760
 3007W        W46060   0.361  21.322  22.813 -0.2873  0.0113 -0.1442
 3008W        W46061   2.004   4.204  25.715 -0.4247  0.3617 -0.1456
 3009W        W46062  27.411  14.392  14.915  0.3070  0.0867  0.1363
 3010W        W46063  23.145   2.541   1.407  0.3564  0.2719 -0.0402
 3011W        W46064   1.244   7.265   6.458 -0.2175  0.0486  0.0516
 3012W        W46065  25.784  18.888  15.855  0.0696  0.0089  0.1323
 3013W        W46066  23.429  31.090   3.197  0.4737 -0.1041 -0.0143
 3014W        W46067  20.837   6.638   7.392 -0.1730  0.0624 -0.0237
 3015W        W46068  27.834   8.234   4.002  0.1934 -0.2492 -0.0127
 3016W        W46069   2.324  25.805  24.665 -0.0085 -0.0407 -0.0555
 3017W        W46070  28.313  13.685   4.063 -0.1382  0.1180 -0.0786
 3018W        W46071  14.684  16.657  22.573 -0.1607  0.0124  0.2468
 3019W        W46072  21.426  10.492   6.664  0.0221 -0.3133  0.1051
 3020W        W46073   5.492  32.886  23.753 -0.0356  0.1856 -0.0325
 3021W        W46074  22.548  18.863   5.433  0.1018 -0.0952  0.1927
 3022W        W46075  29.019  32.460  28.446  0.0767 -0.1953  0.2454
 3023W        W46076  21.891  13.887  16.764 -0.1214 -0.1699 -0.0325
 3024W        W46077  31.387   8.162  26.403  0.0620  0.1317 -0.1030
 3025W        W46078  26.938   5.765   3.647  0.1006  0.0564 -0.1409
 3026W        W46079  27.761  22.994  23.805  0.1312  0.2082  0.0601
 3027W        W46080  19.411   4.908  19.793  0.0298  0.2722 -0.3826
 3028W        W46081  22.790  16.350   4.843 -0.2668 -0.1180  0.0969
 3029W        W46082  14.771  10.828  24.964  0.2314 -0.1367 -0.0521
 3030W        W46083  23.641   6.693  25.526 -0.2728 -0.2584  0.0821
 3031W        W46084  19.041  25.566  19.650  0.2171 -0.1250  0.1423
 3032W        W46085  27.243  10.628   0.354 -0.1345 -0.1544 -0.0046
 3033W        W46086  13.372  10.357   9.669 -0.3037  0.1818  0.0571
 3034W        W46087  25.923   9.920  25.879 -0.2729  0.2222 -0.0494
 3035W        W46088   8.150  12.578   7.835  0.1115  0.0638  0.1857
 3036W        W46089  25.147   7.766  17.640  0.0444  0.3114 -0.1345
 3037W        W46090  31.624   0.196   8.286  0.3083  0.0559  0.2725
 3038W        W46091  29.820   9.784  16.942 -0.0077 -0.1108  0.0787
 3039W        W46092  14.991  33.216  24.159  0.0787  0.1588  0.2331
 3040W        W46093  14.312   5.760   9.305 -0.0718 -0.4042 -0.1126
 3041W        W46094  26.758  15.432  17.833  0.1410  0.0504  0.5418
 3042W        W46095  24.629   8.854  27.792  0.3173  0.3151  0.1610
 3043W        W46096  23.911  19.880  24.412 -0.1355  0.2784  0.0123
 3044W        W46097  27.665  11.016  15.678 -0.0904  0.0067 -0.2095
 3045W        W46098  27.357  13.701   8.722  0.0450  0.2106 -0.0905
 3046W        W46099  20.291  34.658  27.330 -0.3170 -0.1646 -0.0605
 3047W        W46100  16.692   0.175   3.838 -0.3323  0.1363  0.0451
 3048W        W46101  26.479   5.736   3.445  0.2844  0.1712  0.2579
 3049W        W46102  26.222  12.209   4.794 -0.2414 -0.4203  0.1739
 3050W        W46103  16.242   0.277  20.768 -0.0214  0.2230  0.1299
 3051W        W46104  21.030  20.179   4.085 -0.0008 -0.0601 -0.0929
 3052W        W46105  22.124  26.615   7.461 -0.0364  0.1014  0.4499
 3053W        W46106  28.964   1.616   0.592  0.1511 -0.0286  0.0019
 3054W        W46107   6.880  20.532   3.820 -0.1022  0.0965  0.1208
 3055W        W46108  27.115  13.480  25.840  0.0919  0.1781  0.1538
 3056W        W46109  13.076  10.982   5.119 -0.1024  0.0989 -0.0973
 3057W        W46110   9.964  12.029   0.286 -0.1111 -0.2990  0.0455
 3058W        W46111  28.004  12.792  21.964 -0.0670 -0.3582  0.1468
 3059W        W46112  34.414   5.136  24.679  0.1440  0.1075 -0.6084
 3060W        W46113  33.431   0.404  24.630 -0.1420 -0.2949  0.0390
 3061W        W46114  21.194  26.777   0.756  0.1646 -0.2392  0.0767
 3062W        W46115  20.639   0.545   7.086 -0.2288 -0.2122  0.0693
 3063W        W46116  24.198  26.386  25.936 -0.2621 -0.0783  0.0755
 3064W        W46117   7.690  22.457  24.153 -0.0583 -0.1450 -0.2609
 3065W        W46118   9.319   1.125  17.556 -0.0465  0.1396  0.1253
 3066W        W46119  17.262  11.896  24.724  0.0640  0.1375 -0.1533
 3067W        W46120  22.589  11.572  16.350  0.1753 -0.0581  0.3340
 3068W        W46121  32.950  17.252  17.132 -0.2770 -0.0049 -0.1434
 3069W        W46122  26.326  32.426   7.471  0.1993 -0.1123 -0.1133
 3070W        W46123  14.908   7.786   8.538 -0.0874  0.3664  0.2499
 3071W        W46124  11.663  31.669  26.575 -0.0489 -0.1353 -0.3947
 3072W        W46125  16.085  10.903  23.684 -0.0054  0.1152  0.0392
 3073W        W46126  21.696   8.213   5.119  0.2013  0.2483 -0.0088
 3074W        W46127  19.750  18.410   0.030  0.1200  0.0497  0.0620
 3075W        W46128   5.119   8.569  23.827 -0.1165  0.1148 -0.0984
 3076W        W46129  24.698   2.259  14.515  0.0633  0.2967  0.0205
 3077W        W46130  29.881   1.732   4.850  0.1266  0.0552 -0.1202
 3078W        W46131  19.470  14.734  21.791  0.1213 -0.1901 -0.2532
 3079W        W46132  32.318   7.396  23.518 -0.1894  0.3014  0.1290
 3080W        W46133   1.087  16.255  16.380  0.4172  0.2860 -0.1836
 3081W        W46134  29.688  27.805  28.292 -0.1290 -0.0163 -0.0677
 3082W        W46135  20.948  33.200  14.896  0.0064  0.1776  0.0714
 3083W        W46136  27.850   5.611  21.408  0.0333 -0.0375 -0.1158
 3084W        W46137  24.680   8.544  13.445 -0.5743  0.2071  0.0859
 3085W        W46138  28.960  18.088  25.586 -0.1572  0.0400 -0.2503
 3086W        W46139  22.837   0.857  25.384  0.0530  0.1046 -0.0633
 3087W        W46140  21.428  13.776   4.014  0.1308  0.0824  0.1805
 3088W        W46141  18.159   7.286  24.229  0.2931  0.1212  0.2157
 3089W        W46142  20.764  12.919   8.682 -0.2558  0.0424  0.1123
 3090W        W46143   7.433  18.701  15.473 -0.2846 -0.0344  0.2061
 3091W        W46144  16.764  31.733  24.076 -0.3038 -0.3333  0.1211
 3092W        W46145  26.132  12.785   4.875 -0.1361 -0.4663  0.2652
 3093W        W46146  15.891   4.488  29.109 -0.1705 -0.3323  0.0214
 3094W        W46147  26.731  11.315  23.405 -0.1740 -0.2534 -0.0610
 3095W        W46148  20.358  16.447  26.843  0.2689  0.2329 -0.1061
 3096W        W46149  17.332  10.960   9.640 -0.2552  0.0541 -0.1776
 3097W        W46150  19.383   6.242   5.910  0.1169  0.0948 -0.0974
 3098W        W46151   2.116  34.610   4.635  0.0813  0.1840  0.2141
 3099W        W46152  20.519  11.236   5.115 -0.0934 -0.2368 -0.1408
 3100W        W46153  32.255   2.003  23.003 -0.3673  0.0946  0.2568
 3101W        W46154  28.201  24.811  18.236  0.0440 -0.1632 -0.1687
 3102W        W46155  23.216  10.313  20.010  0.0184  0.1472  0.1619
 3103W        W46156  18.539  26.330  25.281  0.0270  0.1167  0.0886
 3104W        W46157  19.114  30.927  21.315 -0.1863  0.1666  0.2844
 3105W        W46158  28.020  31.066  27.762  0.1326  0.1421 -0.3203
 3106W        W46159  28.450  33.978  25.380  0.1065  0.1061 -0.0209
 3107W        W46160  13.442   5.459   2.681  0.2516  0.0344  0.0690
 3108W        W46161  29.623  17.154   7.337  0.0307  0.0150  0.0643
 3109W        W46162  17.305   3.712  28.610  0.0856 -0.2606 -0.2121
 3110W        W46163  23.632  28.686  22.556  0.0817 -0.1167 -0.0452
 3111W        W46164  19.570  19.377   6.149  0.3105 -0.1116  0.0505
 3112W        W46165  17.986   9.310   7.972 -0.1873  0.0491  0.0544
 3113W        W46166  24.424  10.405  24.956  0.1757 -0.1788  0.2945
 3114W        W46167  23.441  27.970  21.958  0.1843 -0.0017  0.2019
 3115W        W46168   1.504   8.232   4.049 -0.3213 -0.3069  0.0617
 3116W        W46169   6.322  32.982   8.766  0.4709  0.1560 -0.1584
 3117W        W46170   0.570   4.480   5.341  0.1979 -0.0452 -0.1878
 3118W        W46171  29.743  13.787   9.634  0.0210  0.2988 -0.0455
 3119W        W46172  12.679   6.622   4.909  0.0258  0.1881 -0.0341
 3120W        W46173  22.709  27.512   4.226 -0.1083  0.6186  0.0216
 3121W        W46174  21.414  14.945  25.219 -0.3272  0.0260 -0.2339
 3122W        W46175  25.969  31.497  24.676  0.0356  0.3145 -0.3784
 3123W        W46176  30.649  20.028  21.041 -0.2418 -0.1892  0.2504
 3124W        W46177  25.266  17.598   2.185  0.5375  0.0415  0.1323
 3125W        W46178  24.145   4.946   1.187  0.0351  0.1824  0.2904
 3126W        W46179  23.848  30.237  23.525 -0.1281  0.0268  0.0003
 3127W        W46180  11.628   1.980  23.615  0.4183  0.0952 -0.1838
 3128W        W46181  30.856  12.070  28.619 -0.1066 -0.1019 -0.1756
 3129W        W46182  26.101   0.278   1.888  0.0080  0.1524 -0.1147
 3130W        W46183  20.581  22.256   1.093 -0.1709  0.0598  0.2749
 3131W        W46184   4.124  13.446  27.109  0.2023  0.1228 -0.1535
 3132W        W46185   1.602  16.357  26.498  0.0605 -0.0818 -0.0920
 3133W        W46186   8.866  12.531   5.693 -0.0702  0.0250 -0.1082
 3134W        W46187  22.521  17.598   7.071  0.1327 -0.1533 -0.1596
 3135W        W46188  12.046  15.217   7.023 -0.1258  0.1291  0.0437
 3136W        W46189  17.520  12.917  14.679  0.0412  0.0364  0.2311
 3137W        W46190   9.025  16.357  16.191  0.2592 -0.2858 -0.3892
 3138W        W46191  22.939  13.075  23.532 -0.1404  0.0052  0.0026
 3139W        W46192  14.931  31.140   6.160 -0.0413 -0.1593 -0.2117
 3140W        W46193  12.622   4.782   7.968 -0.0407  0.0014 -0.0582
 3141W        W46194  14.533   4.499   8.822 -0.0263 -0.1621  0.0096
 3142W        W46195  23.452  11.236   6.784  0.3842 -0.0410 -0.0077
 3143W        W46196  19.599   6.066   7.286  0.1821 -0.1674 -0.6016
 3144W        W46197  10.841   5.027   9.372  0.1492  0.1735  0.0383
 3145W        W46198  11.705  28.845  16.889  0.0922 -0.0745  0.0027
 3146W        W46199  30.641  19.102  14.658  0.0676 -0.4363 -0.1081
 3147W        W46200   3.698  17.744  16.191 -0.2171  0.0112 -0.3611
 3148W        W46201  26.158  13.230  20.323  0.2452  0.2715 -0.2082
 3149W        W46202  26.047  29.502  23.195 -0.0028  0.1362  0.2978
 3150W        W46203   3.292  14.213   7.717  0.2417  0.1963 -0.2971
 3151W        W46204   9.257  34.417  23.195 -0.1576 -0.2628 -0.0318
 3152W        W46205   9.332   1.975  24.383 -0.2590  0.1793  0.0213
 3153W        W46206  14.362  17.158   4.594  0.2042 -0.0154  0.5081
 3154W        W46207  22.250   9.489  15.833  0.3224  0.0228 -0.0318
 3155W        W46208  21.401  30.409   3.816 -0.0125 -0.0358 -0.0335
 3156W        W46209  34.096  13.825  18.212 -0.0828 -0.1365  0.0255
 3157W        W46210  23.232  18.368   4.629  0.0241  0.0959 -0.0393
 3158W        W46211  13.986   4.451  21.390  0.0536  0.2545 -0.0654
 3159W        W46212  23.241   6.655   5.409 -0.1008  0.3424  0.3712
 3160W        W46213  30.133  33.021   9.797 -0.1581  0.1160  0.3478
 3161W        W46214  25.881  13.354  16.416 -0.1078  0.2020  0.2130
 3162W        W46215   2.385   5.736  21.423  0.1245  0.0569  0.0430
 3163W        W46216  28.551  15.546  29.039 -0.0382  0.3403  0.1339
 3164W        W46217  17.523   8.918  24.301  0.1695 -0.1821  0.3471
 3165W        W46218  16.020   3.562  18.879  0.0932  0.0424  0.1536
 3166W        W46219  19.725  14.536   0.802 -0.0473  0.2069 -0.1782
 3167W        W46220  29.553  34.630  23.390 -0.2275  0.0808 -0.0493
 3168W        W46221  31.252   3.300  22.687 -0.2309 -0.2690  0.0253
 3169W        W46222  11.528  26.325   2.314 -0.0987  0.0549  0.0127
 3170W        W46223  33.482  34.128   2.949  0.2144  0.0238 -0.0827
 3171W        W46224  13.680  25.516   0.633  0.1856  0.1480  0.0826
 3172W        W46225  17.587  28.836  25.650 -0.1644 -0.0654  0.3457
 3173W        W46226  13.222  13.838  23.774 -0.0729  0.0416 -0.2082
 3174W        W46227  22.085  15.058  25.618  0.1899 -0.0363 -0.0932
 3175W        W46228  24.613  34.563   2.893  0.0280  0.4789 -0.2897
 3176W        W46229  21.975  20.227   7.011 -0.0502 -0.0914  0.2994
 3177W        W46230   4.137  12.793  25.712  0.3387 -0.0478  0.1158
 3178W        W46231  16.776   2.262  13.751 -0.1073 -0.0362 -0.1910
 3179W        W46232  14.454  13.121   1.155 -0.1930  0.0462  0.1934
 3180W        W46233  26.122  17.470  21.095  0.0355  0.1395  0.1011
 3181W        W46234  23.594  23.051  26.552  0.0456  0.0884 -0.2931
 3182W        W46235  18.804  16.976  23.772  0.0719 -0.0018 -0.2930
 3183W        W46236   4.950  23.842   1.047 -0.0109 -0.0050 -0.3370
 3184W        W46237  28.481   2.389  16.814  0.1224  0.0478 -0.2646
 3185W        W46238  15.058  27.847  23.085  0.0327  0.0457  0.0876
 3186W        W46239   8.648  12.516  22.490 -0.0163  0.0268  0.0537
 3187W        W46240  14.108   9.515   0.767 -0.1359  0.1653  0.0261
 3188W        W46241  23.833  19.711  16.349 -0.2536  0.1813  0.2678
 3189W        W46242  21.130  28.196  16.527 -0.1694 -0.3362 -0.2343
 3190W        W46243  23.741  10.114  17.389  0.0316 -0.0644  0.1584
 3191W        W46244  32.366  13.546  18.048  0.0708  0.2033 -0.3472
 3192W        W46245  26.906  33.800   3.189 -0.1171 -0.0012  0.2111
 3193W        W46246  28.108   1.654  15.174 -0.4650  0.1240  0.1980
 3194W        W46247  28.496  16.047   3.148  0.2464  0.0351  0.1715
 3195W        W46248  20.046  28.731  25.709 -0.1342 -0.0579  0.1549
 3196W        W46249  24.596  12.194   5.101  0.2103 -0.0254  0.1045
 3197W        W46250  19.308  24.076  21.862 -0.0395  0.1343  0.2863
 3198W        W46251   8.585   9.262   3.617  0.0359 -0.1378 -0.0004
 3199W        W46252  31.959  33.912  15.212 -0.1468 -0.0057 -0.0641
 3200W        W46253   1.894  25.077   6.822  0.0013  0.0512  0.2707
 3201W        W46254  14.460  25.215   4.743 -0.2660  0.0737  0.2527
 3202W        W46255  22.713  13.213   6.737 -0.0655  0.0058 -0.1726
 3203W        W46256  27.507  19.492   0.687 -0.2324 -0.2492 -0.1410
 3204W        W46257  11.610   5.372   9.814  0.1977 -0.0651  0.1216
 3205W        W46258  11.424  33.812  15.936 -0.1891 -0.2379  0.0393
 3206W        W46259   0.607  14.922  16.636  0.3346  0.0184  0.2302
 3207W        W46260  34.535   3.527  16.614 -0.2313  0.1600 -0.1785
 3208W        W46261   4.212  20.258  17.122 -0.3224  0.2055  0.2099
 3209W        W46262  24.858  13.280  23.098  0.2367 -0.1676 -0.0016
 3210W        W46263  23.880   6.328  21.391  0.0382 -0.1837 -0.0081
 3211W        W46264  14.916  31.168  28.535  0.0136 -0.0862  0.2715
 3212W        W46265  24.229  12.563  17.785  0.2674 -0.1338 -0.0346
 3213W        W46266   8.358   3.905  29.147  0.0125  0.1119  0.1545
 3214W        W46267  33.231   2.899  21.769  0.2170  0.1364  0.3356
 3215W        W46268  29.412  14.867  26.890  0.1032 -0.1313  0.0898
 3216W        W46269  32.479   2.944  13.510 -0.0693 -0.0115 -0.0681
 3217W        W46270  25.096  10.713   6.894 -0.2434 -0.1345 -0.0576
 3218W        W46271  22.767   5.454  22.616 -0.2456  0.0927  0.0759
 3219W        W46272  20.262  15.659  25.100 -0.0122  0.1500 -0.0246
 3220W        W46273   1.983  10.346  13.926  0.2478 -0.5600 -0.2143
 3221W        W46274  26.675  11.462  15.666 -0.1499  0.0476  0.0555
 3222W        W46275  10.330  17.289   4.811  0.0262  0.0630 -0.1288
 3223W        W46276  18.987  13.454   7.470 -0.1859 -0.2276 -0.3727
 3224W        W46277  29.358  11.801  23.012  0.2804  0.0828  0.3031
 3225W        W46278   8.334   7.351   4.125  0.0534 -0.0473 -0.0784
 3226W        W46279  10.708   2.736  29.067  0.1933 -0.0541 -0.2085
 3227W        W46280  23.854   7.597  20.191  0.0687  0.1142 -0.2704
 3228W        W46281  27.075  12.336  15.782 -0.1983  0.3405 -0.0953
 3229W        W46282  30.303  12.960  15.812  0.0813  0.0831 -0.0426
 3230W        W46283  25.761  16.571  24.641 -0.0274  0.0258  0.3201
 3231W        W46284  13.806   9.784  28.126  0.4870 -0.0320  0.0442
 3232W        W46285  27.659  12.648  19.493 -0.1313 -0.6484 -0.1941
 3233W        W46286  13.168  33.562  17.269  0.0096  0.3130  0.3551
 3234W        W46287  29.388  27.043   4.901  0.1274 -0.0055  0.2910
 3235W        W46288   4.085  10.949  26.380  0.0860  0.2075  0.0331
 3236W        W46289  27.215   7.658  24.530  0.1637 -0.0243 -0.2870
 3237W        W46290   4.651  23.838   9.714 -0.3022  0.0310 -0.3183
 3238W        W46291  19.270   6.279  15.347  0.0324  0.0930  0.0463
 3239W        W46292  16.373   9.330   1.208  0.1736  0.0634  0.3735
 3240W        W46293  12.086   2.874  29.121 -0.1854 -0.0009 -0.1735
 3241W        W46294  17.323  27.573   1.536 -0.0160 -0.0140  0.0246
 3242W        W46295   8.750  20.567  25.852  0.0900  0.0274 -0.0460
 3243W        W46296  21.666   2.677   6.757 -0.1156 -0.0944 -0.2086
 3244W        W46297  12.484   0.915   1.381  0.1911 -0.0470 -0.0861
 3245W        W46298  19.118  20.418   4.236 -0.3701 -0.0681  0.0393
 3246W        W46299  19.133  32.853  15.827  0.0166 -0.2935 -0.2348
 3247W        W46300  31.017  25.948   8.591  0.0361  0.1454  0.1819
 3248W        W46301   6.159  33.730  25.316 -0.0253 -0.0981  0.2012
 3249W        W46302  19.992  33.582  14.584 -0.1842 -0.0076 -0.0277
 3250W        W46303   0.719   7.809  15.662 -0.1157 -0.0534 -0.1944
 3251W        W46304  18.575  19.700  26.459  0.0120 -0.1759 -0.1530
 3252W        W46305  22.117   4.744  25.005 -0.0851  0.2289  0.0609
 3253W        W46306  29.701   4.048  19.644  0.1274  0.0433  0.0402
 3254W        W46307  21.199   1.092   6.025  0.0611 -0.1848 -0.3284
 3255W        W46308  29.071   0.966   9.377 -0.0456  0.5205  0.3285
 3256W        W46309  18.160   2.289   9.915 -0.3726  0.2524 -0.0644
 3257W        W46310  22.839  16.571  22.996  0.2646 -0.0395  0.1315
 3258W        W46311  20.023   9.767  26.042  0.2094  0.1053  0.4258
 3259W        W46312  19.151   9.047   0.327 -0.0402 -0.2276  0.0821
 3260W        W46313  20.541   3.569  15.896  0.0831  0.0726 -0.0292
 3261W        W46314  19.774   0.014  19.989  0.1710 -0.1019 -0.0575
 3262W        W46315  21.650  20.859  18.867  0.4250 -0.0824  0.0413
 3263W        W46316  20.180  34.639  14.550 -0.0139 -0.0446  0.1108
 3264W        W46317  28.878  16.033   5.709  0.5033  0.1237 -0.1254
 3265W        W46318  22.033   6.106  29.105 -0.0154 -0.0627 -0.1791
 3266W        W46319  18.503  17.500  24.493  0.0506 -0.1524  0.0995
 3267W        W46320  25.230   0.457  16.987  0.3691 -0.1189 -0.3117
 3268W        W46321  27.356   8.704   9.079  0.2888 -0.1441 -0.1460
 3269W        W46322  21.803   8.027  23.576 -0.0404 -0.4874 -0.2585
 3270W        W46323   4.091  25.885   4.045 -0.0376 -0.0087 -0.0647
 3271W        W46324  15.637  16.622  25.598 -0.5047 -0.2727 -0.0348
 3272W        W46325  30.661  20.469  23.559  0.1796 -0.3245  0.0883
 3273W        W46326  17.818  34.265   3.982  0.0087 -0.1543 -0.0609
 3274W        W46327  21.686  13.071   6.844  0.0676  0.1182 -0.1946
 3275W        W46328  22.226  10.104  15.094  0.3212 -0.2743 -0.3205
 3276W        W46329  27.944  19.907  24.001 -0.1030 -0.0912 -0.1172
 3277W        W46330   4.019  14.513  22.329  0.0511 -0.1401 -0.1990
 3278W        W46331  32.747  15.608  21.836 -0.0863 -0.1273  0.2783
 3279W        W46332  18.936  19.526   6.911 -0.1293  0.0513 -0.0818
 3280W        W46333  18.019  17.783  26.318  0.2191  0.3000 -0.0967
 3281W        W46334  14.298  16.327   4.768  0.3422  0.0469  0.3894
 3282W        W46335  24.356   5.641   2.778  0.3522 -0.1250 -0.0442
 3283W        W46336  24.393  12.052   9.486  0.3547 -0.2267 -0.3975
 3284W        W46337  25.347   6.938  20.072 -0.3375  0.0173  0.3071
 3285W        W46338  22.260   3.512  24.884 -0.0085 -0.2552 -0.1813
 3286W        W46339  23.371  20.875  29.028 -0.1693 -0.2489 -0.2157
 3287W        W46340  26.814  16.695  16.836 -0.0251 -0.1131 -0.2616
 3288W        W46341  27.993   7.804  19.001 -0.1208 -0.0012  0.0768
 3289W        W46342  20.714  27.287  11.152 -0.0038  0.2360 -0.1210
 3290W        W46343  27.454   8.943  22.786  0.1490 -0.0633 -0.1386
 3291W        W46344  27.272   9.049   4.359  0.1702  0.1833 -0.0432
 3292W        W46345  21.732   9.550  15.870  0.0864 -0.1409 -0.0611
 3293W        W46346  30.785   2.137  25.843  0.3932 -0.0266  0.0669
 3294W        W46347  11.037  10.249  17.826 -0.1456  0.1028  0.0635
 3295W        W46348  29.455  19.010   1.658 -0.0925  0.0065 -0.3652
 3296W        W46349  15.194  32.802  23.932 -0.0072 -0.2667 -0.0307
 3297W        W46350  22.506  28.642  14.846  0.0052  0.2499 -0.4454
 3298W        W46351  26.861   7.970   3.701  0.1599 -0.3802 -0.1998
 3299W        W46352  27.445  28.474  15.298  0.2090  0.1332 -0.0788
 3300W        W46353  18.184  33.763   1.226  0.0117 -0.3420 -0.0058
 3301W        W46354  13.245  19.728  23.386 -0.1609  0.2191 -0.4847
 3302W        W46355  27.955   9.591   1.748 -0.1383  0.1626 -0.4074
 3303W        W46356  30.116  25.613  17.893  0.0075  0.0307 -0.0987
 3304W        W46357  34.269  31.211   7.933  0.4642 -0.0816 -0.3553
 3305W        W46358  18.769  31.190   8.915  0.2665  0.1014 -0.0811
 3306W        W46359  12.625  20.530  14.679 -0.1704 -0.0131  0.0371
 3307W        W46360  19.479  13.665  15.576 -0.1952 -0.1016 -0.0514
 3308W        W46361  23.274  25.128  28.155 -0.0821  0.0684  0.3777
 3309W        W46362   8.432   8.538  24.955 -0.1010 -0.2114 -0.2491
 3310W        W46363  22.231   2.351  10.474 -0.1988  0.1213 -0.3905
 3311W        W46364  24.806  15.256   2.461 -0.2087 -0.0654  0.1489
 3312W        W46365  30.695  19.398   5.264  0.1124  0.3107  0.4500
 3313W        W46366  14.895  26.758  18.112 -0.3136  0.1705 -0.4467
 3314W        W46367  12.046  15.767   0.753  0.0686  0.4098  0.0153
 3315W        W46368  33.561  18.663  18.642  0.1265 -0.1729  0.1588
 3316W        W46369   0.668  10.850  26.123  0.0457  0.2646  0.0330
 3317W        W46370  23.133   0.819   5.966  0.0496 -0.2003  0.1146
 3318W        W46371  31.963   2.635  20.360  0.2395  0.0616 -0.2014
 3319W        W46372  15.707   3.582   9.266  0.1709  0.0328  0.1069
 3320W        W46373  25.386   1.265  26.933  0.0590  0.1568  0.2014
 3321W        W46374  12.652  13.718   2.338  0.5923 -0.0462  0.2086
 3322W        W46375   4.148  27.142   3.327  0.2503 -0.2570  0.2234
 3323W        W46376   0.803   6.156  13.990 -0.0960 -0.0941 -0.1716
 3324W        W46377  21.011  20.911   8.640  0.1250  0.1093 -0.2800
 3325W        W46378  24.985  11.672   3.311 -0.0416 -0.2468 -0.3134
 3326W        W46379  15.368  12.524   5.337 -0.1954  0.0357  0.1007
 3327W        W46380  29.711  18.946   7.487  0.0246 -0.0172 -0.1102
 3328W        W46381  30.501   7.900  23.676  0.0815 -0.4831 -0.2014
 3329W        W46382  20.783   7.931  26.011  0.0545  0.0314 -0.1948
 3330W        W46383   8.304  14.950  27.405 -0.3015 -0.1349  0.1496
 3331W        W46384   4.718  26.528   7.509  0.0380  0.0682  0.5571
 3332W        W46385  22.763   8.313   9.246  0.2476 -0.1489  0.3353
 3333W        W46386  25.382   7.432   3.927  0.0563 -0.0693 -0.0430
 3334W        W46387  31.420   3.595  14.512 -0.1280  0.0798 -0.2301
 3335W        W46388  26.102   7.679  28.637  0.0055  0.1276 -0.1150
 3336W        W46389  33.556   7.457  26.433  0.1754  0.1327  0.0349
 3337W        W46390  26.806  22.628   2.547 -0.2517 -0.0104  0.2311
 3338W        W46391  30.049  15.500  18.041 -0.0707 -0.2075 -0.2941
 3339W        W46392  30.765   5.652   5.691  0.4107  0.1425 -0.0041
 3340W        W46393  12.036  31.617   5.250  0.0083 -0.1125  0.0771
 3341W        W46394  26.590   4.358  20.126 -0.0774 -0.0039  0.1500
 3342W        W46395  25.964  15.891  14.501 -0.3755  0.1338  0.2254
 3343W        W46396  22.232  19.414   6.126  0.0227 -0.0941 -0.0233
 3344W        W46397  16.357   9.523   9.754 -0.2244  0.2872 -0.2761
 3345W        W46398  32.837  12.002  23.819  0.0557 -0.0162 -0.2905
 3346W        W46399  16.124  33.348  25.026 -0.3362  0.0332  0.0064
 3347W        W46400   0.813   7.855  22.793 -0.3165 -0.1652  0.0700
 3348W        W46401   1.509  18.996   2.926  0.0376 -0.1914 -0.1923
 3349W        W46402  18.132   4.780  17.584 -0.0370  0.2012  0.1162
 3350W        W46403   2.479   1.885   5.876  0.0226 -0.0085  0.1026
 3351W        W46404  29.045  15.662  22.178 -0.3003 -0.0854 -0.0708
 3352W        W46405  31.137   8.740  20.742 -0.1656  0.3041 -0.1591
 3353W        W46406  21.356  34.624   1.510 -0.1822  0.0437  0.1257
 3354W        W46407  22.802   3.828   1.286 -0.1611 -0.0336 -0.2093
 3355W        W46408  28.945   8.082  24.338  0.0853 -0.0682 -0.0182
 3356W        W46409  24.611  18.232  21.878  0.3455 -0.0116 -0.1175
 3357W        W46410  28.212  25.230  23.579 -0.0853  0.0532  0.0236
 3358W        W46411  15.834  11.236   0.416 -0.2828 -0.1397  0.1011
 3359W        W46412  28.559   4.523  24.088  0.0345  0.2790  0.0307
 3360W        W46413  32.099  22.715  28.935 -0.0942 -0.1119 -0.0702
 3361W        W46414  33.937  10.556  19.995 -0.0667  0.0617 -0.0151
 3362W        W46415  15.843   0.338   0.252  0.2601  0.0584 -0.2038
 3363W        W46416  17.160  32.583   4.708 -0.0705  0.4198  0.1596
 3364W        W46417  17.490  24.605   5.324 -0.0258  0.1746  0.1935
 3365W        W46418  14.434   9.474   5.085 -0.1881 -0.0717  0.1849
 3366W        W46419  22.569   7.618   4.387 -0.0301 -0.1411  0.2229
 3367W        W46420  14.594  14.520  19.221  0.1518 -0.1653  0.0311
 3368W        W46421  31.536  14.517  25.134  0.0611 -0.0954 -0.1081
 3369W        W46422  32.410  17.328  28.051 -0.2789 -0.0231 -0.0117
 3370W        W46423  25.763  14.944  25.826 -0.3455  0.2267 -0.0610
 3371W        W46424  30.112  19.919   6.860  0.3156  0.4817 -0.2623
 3372W        W46425   6.766  19.100   5.103 -0.0317 -0.2449 -0.2951
 3373W        W46426  14.650  23.699   8.378  0.3852  0.2792 -0.1034
 3374W        W46427  14.447   9.795   5.919  0.1600 -0.3452  0.1564
 3375W        W46428  24.214  10.341  21.869 -0.0136  0.2785  0.0647
 3376W        W46429   6.348   3.224  15.849  0.2035  0.1107  0.0232
 3377W        W46430  17.298   9.767  27.760  0.0288 -0.2243  0.1916
 3378W        W46431  30.480  15.906  15.108 -0.1033 -0.0414  0.0008
 3379W        W46432  22.968  28.600  16.500  0.2916  0.0106  0.1679
 3380W        W46433  19.764  27.505  19.140 -0.3192 -0.1137 -0.1666
 3381W        W46434  26.604  16.756  25.144  0.1713 -0.0535 -0.0494
 3382W        W46435   0.791  14.628  19.051  0.0087  0.0954 -0.2081
 3383W        W46436  19.416  29.597  16.355  0.1650  0.1774  0.0832
 3384W        W46437  27.463   2.045  20.519 -0.2379 -0.0989  0.1977
 3385W        W46438   8.849  14.617  21.757  0.1299 -0.0690  0.0836
 3386W        W46439   6.644   7.862  23.742  0.0532  0.0906 -0.1867
 3387W        W46440  26.998  17.365  14.541  0.2305 -0.1341 -0.1562
 3388W        W46441  23.285  13.364  28.010  0.0378  0.2813 -0.0038
 3389W        W46442  28.499  19.119  18.372 -0.1772 -0.0278  0.1313
 3390W        W46443  30.232  17.977  15.491 -0.3901 -0.0099 -0.0890
 3391W        W46444  11.739  10.230  19.372  0.0777 -0.0039  0.1446
 3392W        W46445  31.835  22.358  14.805 -0.1173 -0.1634 -0.1732
 3393W        W46446  17.384  29.860  16.642  0.0799 -0.1441  0.0945
 3394W        W46447  24.496  17.610  13.726  0.1666 -0.2947  0.0557
 3395W        W46448  18.710   8.084  21.325 -0.1251  0.1607  0.0282
 3396W        W46449  24.461   5.507  21.240 -0.0062 -0.4296  0.0273
 3397W        W46450  25.911  17.025  15.703 -0.4831 -0.2938 -0.0667
 3398W        W46451  23.066  11.633  17.228 -0.0641 -0.0912 -0.1443
 3399W        W46452  20.673  15.738  22.099  0.0295  0.0267  0.0615
 3400W        W46453  26.012  12.188  18.792  0.1280  0.0278 -0.2232
 3401W        W46454  30.806  18.639   0.607  0.1367 -0.1819  0.2800
 3402W        W46455  28.663   2.947  17.918 -0.0041  0.0783  0.0871
 3403W        W46456   9.948  29.811  17.441 -0.3367 -0.0825  0.0248
 3404W        W46457  17.795   6.268  26.722  0.2214 -0.2034  0.3072
 3405W        W46458  32.315  12.537  25.038 -0.0179 -0.0748 -0.1726
 3406W        W46459  12.438  11.592  14.705  0.3971 -0.2034  0.0375
 3407W        W46460  31.767  34.223  15.907  0.0079 -0.0880  0.1275
 3408W        W46461  33.317   2.937  14.665 -0.1218  0.3648  0.3149
 3409W        W46462  23.275  20.005  17.645 -0.1199  0.2597 -0.3716
 3410W        W46463  20.037  13.475   3.010  0.3348  0.1281 -0.3431
 3411W        W46464  24.081   6.187  17.668 -0.0787  0.0893  0.0599
 3412W        W46465  19.566   9.766  23.104 -0.1321  0.0065 -0.0149
 3413W        W46466  24.511  12.699  15.249 -0.0144  0.1288 -0.0720
 3414W        W46467  23.386  23.286  18.967  0.0361  0.0316  0.3212
 3415W        W46468  16.661  22.639   6.710 -0.0872  0.2466  0.0305
 3416W        W46469   6.061  24.637  19.130 -0.1398 -0.2603 -0.2574
 3417W        W46470  31.219   7.288  14.654  0.1957 -0.0019 -0.0598
 3418W        W46471  16.043   0.289  27.784  0.2721  0.1009  0.3626
 3419W        W46472   1.173  26.192  15.702  0.3883 -0.3409  0.3890
 3420W        W46473  29.339  17.336  18.434 -0.2324 -0.0155 -0.0277
 3421W        W46474  16.320   8.051  26.244  0.0301 -0.0688 -0.0692
 3422W        W46475  23.707  12.269  17.608 -0.4689  0.3043  0.0931
 3423W        W46476  20.998  25.214  15.937 -0.2162 -0.4003  0.1997
 3424W        W46477  20.159  11.592  19.837 -0.2552  0.2286  0.3721
 3425W        W46478  19.159   4.594  15.763  0.1770  0.1754  0.0282
 3426W        W46479  20.485  31.601   7.854  0.1042  0.2952  0.1642
 3427W        W46480   0.548   7.607  25.338 -0.0850 -0.0947  0.2486
 3428W        W46481   3.061   6.380  25.543  0.4622  0.3869  0.0285
 3429W        W46482  16.822  14.498  12.981 -0.0740  0.0936 -0.1542
 3430W        W46483  22.192   2.553   4.293 -0.2126 -0.0263  0.1824
 3431W        W46484  25.316  18.205  20.299  0.0717 -0.0771  0.1095
 3432W        W46485  17.916  11.478  17.017 -0.2563  0.0163  0.0771
 3433W        W46486  31.921   6.341  24.287  0.3048 -0.3057  0.1083
 3434W        W46487  18.851  21.695   6.515  0.0214  0.1675 -0.1558
 3435W        W46488  30.405  14.847   8.005  0.0554  0.0954 -0.0685
 3436W        W46489   1.824   4.022   2.436 -0.0582 -0.2764 -0.2410
 3437W        W46490   8.470  21.277   3.880 -0.2156  0.0838 -0.0934
 3438W        W46491  13.956  11.996  21.368 -0.0692 -0.1691 -0.0846
 3439W        W46492  23.399  13.080   2.055 -0.3070  0.1179  0.0007
 3440W        W46493  22.841  23.315  25.982 -0.0036 -0.1152  0.2347
 3441W        W46494  23.016   9.493   9.689 -0.1723 -0.2379 -0.2428
 3442W        W46495  20.531  20.907   1.535  0.0322 -0.0039  0.1221
 3443W        W46496  11.177  32.413  15.454  0.0869 -0.1182 -0.2838
 3444W        W46497  23.816  10.801  21.094  0.0364 -0.2451  0.2256
 3445W        W46498  31.478   9.268   3.298 -0.0164  0.0621  0.1509
 3446W        W46499   6.538   7.605  15.194  0.1440 -0.1126  0.2513
 3447W        W46500  21.946  13.608  21.062  0.1566  0.0105  0.0430
 3448W        W46501  27.237  12.243  19.326  0.1144  0.1279  0.1142
 3449W        W46502  16.419   2.300  23.156 -0.2440  0.1716 -0.3124
 3450W        W46503  26.949  28.513  15.322  0.3181 -0.3121  0.1654
 3451W        W46504  19.583   5.491  25.503 -0.2097  0.2255  0.5845
 3452W        W46505  32.018  29.425  18.113 -0.1107 -0.2388  0.1441
 3453W        W46506  34.086   1.164   8.304  0.0526 -0.1635 -0.2027
 3454W        W46507  25.090   0.463  18.710  0.1335 -0.0530  0.3002
 3455W        W46508  21.477  32.161  18.146  0.0771  0.1283  0.3497
 3456W        W46509  27.663  16.311  20.852  0.0645 -0.3182  0.1894
 3457W        W46510  26.070   8.889  13.614  0.0464  0.1130  0.0959
 3458W        W46511   2.107  13.065  18.139 -0.1857  0.4126  0.2243
 3459W        W46512  19.768  23.543  19.584  0.0267 -0.1503 -0.1171
 3460W        W46513  22.526   4.052  22.078  0.0128  0.0828 -0.1472
 3461W        W46514  12.113   2.199   1.428  0.1123 -0.3316  0.1293
 3462W        W46515  16.460   3.197  14.526 -0.2137  0.1601  0.0490
 3463W        W46516  31.310  11.687  22.885 -0.0599 -0.2815  0.0746
 3464W        W46517  17.787  32.618   1.696 -0.0869 -0.0750  0.0772
 3465W        W46518  19.886  31.243  18.313 -0.2357  0.2606  0.0038
 3466W        W46519  12.476  14.239   2.824  0.1977 -0.1968 -0.0662
 3467W        W46520  27.993  11.809  18.556  0.0599  0.2419  0.0506
 3468W        W46521  24.106  27.074  21.650 -0.2491 -0.0580 -0.0847
 3469W        W46522  23.094   9.620  21.134  0.4285 -0.1879  0.0147
 3470W        W46523  13.742  11.744  19.109 -0.1592  0.0052 -0.4270
 3471W        W46524  20.840  15.672  23.318  0.1133  0.2842 -0.0228
 3472W        W46525  31.533   8.465  26.849  0.1026  0.2134  0.2686
 3473W        W46526   5.454  15.304  22.461 -0.1098  0.1144 -0.2620
 3474W        W46527  26.783  11.967  22.675 -0.1046  0.1936  0.0410
 3475W        W46528  27.716  28.100  24.072  0.0764  0.0766  0.1479
 3476W        W46529   2.472   0.282  25.321 -0.0801 -0.0121 -0.0586
 3477W        W46530   7.857  22.086  15.055  0.1362  0.4283  0.2483
 3478W        W46531  24.175  18.654  16.268  0.3597  0.0439 -0.1338
 3479W        W46532  30.645   8.946  17.163  0.0621  0.2463  0.1347
 3480W        W46533  32.938  11.201  16.204  0.2396 -0.0382 -0.0938
 3481W        W46534   4.931  31.581  25.513  0.0882  0.0885  0.1316
 3482W        W46535  23.397  28.114  24.530  0.3929 -0.2421  0.1113
 3483W        W46536  26.174  11.434  19.459 -0.2884 -0.1255  0.0390
 3484W        W46537  15.432   9.397  22.248  0.1327  0.2468  0.1270
 3485W        W46538  14.538  10.463  19.413 -0.1702 -0.0576 -0.0427
 3486W        W46539   6.346   8.193  23.158 -0.0719  0.0196  0.0911
 3487W        W46540  34.458   9.502  26.080  0.2608 -0.0208  0.1124
 3488W        W46541   9.793  16.227  18.154 -0.0584  0.1343 -0.2694
 3489W        W46542  23.337   9.202  21.234 -0.0549  0.0392  0.4161
 3490W        W46543  23.892  12.594  16.393 -0.1253  0.0174  0.0700
 3491W        W46544  30.388  16.114  26.486 -0.3197 -0.0732  0.1376
 3492W        W46545  14.371   4.176  21.050  0.1448  0.1489  0.0127
 3493W        W46546  14.417  22.095  14.705 -0.0533  0.1812 -0.5304
 3494W        W46547  16.987   9.662  22.632  0.3360 -0.2487  0.2382
 3495W        W46548  18.622  23.247  23.978 -0.0441 -0.1362  0.0355
 3496W        W46549   3.047  12.318  22.972 -0.0749 -0.2532  0.0540
 3497W        W46550  11.813   0.229  17.366  0.1287 -0.0820  0.2507
 3498W        W46551  20.749  22.133   2.751  0.0342 -0.1438 -0.2184
 3499W        W46552  17.175  21.876  21.496  0.1502 -0.1316 -0.1023
 3500W        W46553  26.427   7.808  21.961 -0.0691  0.1958  0.0366
 3501W        W46554  12.799   1.701   4.033 -0.3335  0.0696 -0.2500
 3502W        W46555  26.747  13.669  15.438  0.0731 -0.4106 -0.3356
 3503W        W46556  22.702  13.422  18.360  0.0811 -0.0012  0.0143
 3504W        W46557  24.932   0.639  17.365  0.0602 -0.1497  0.0375
 3505W        W46558  21.075  14.055  21.576  0.0294 -0.2654 -0.2372
 3506W        W46559  21.519  11.238   7.290  0.0126  0.1968  0.0131
 3507W        W46560  23.917  24.108  20.504  0.0137  0.0473 -0.0543
 3508W        W46561  30.184   1.096  20.036  0.0247 -0.0286 -0.0036
 3509W        W46562  13.969  22.466  24.705 -0.0880  0.1160  0.1768
 3510W        W46563  20.285   8.973  20.384  0.2751 -0.3302 -0.1644
 3511W        W46564  30.331  10.846  27.357  0.0900  0.1168  0.0329
 3512W        W46565  21.915  14.534  24.057 -0.1856  0.0318 -0.1491
 3513W        W46566  32.211   6.471  17.170 -0.1736 -0.6577 -0.4427
 3514W        W46567  17.569  14.336  27.047 -0.0408 -0.1229  0.0861
 3515W        W46568  26.847  16.221  19.257 -0.0666 -0.1661  0.4820
 3516W        W46569  19.478  10.491  10.516 -0.1511 -0.0448 -0.0266
 3517W        W46570  21.652  18.102  19.862 -0.2004 -0.1411 -0.2604
 3518W        W46571  32.799   2.251  22.952  0.1055 -0.3219 -0.1305
 3519W        W46572   0.671  33.085   2.483  0.1387  0.0553  0.0237
 3520W        W46573  34.444   8.665  15.024 -0.1078  0.0110 -0.2571
 3521W        W46574  19.232   6.989  17.178  0.1671  0.0477  0.0463
 3522W        W46575  32.558   3.693  21.883 -0.4366 -0.0172  0.1057
 3523W        W46576   2.792   2.758  27.538  0.0794 -0.3017  0.0715
 3524W        W46577  16.679  17.540  25.148 -0.0725  0.3276 -0.0160
 3525W        W46578   6.951  12.732   5.334 -0.0606 -0.0441 -0.1850
 3526W        W46579  29.362  15.324  25.912  0.2518 -0.1809  0.0201
 3527W        W46580  11.460  10.908  27.056  0.1205 -0.2278 -0.0673
 3528W        W46581  31.827   4.196  15.797  0.0071  0.3594 -0.3106
 3529W        W46582   9.664   7.930  17.937  0.0395  0.2072 -0.3359
 3530W        W46583  13.925  11.589  28.391 -0.2096 -0.0910  0.2096
 3531W        W46584   7.436  12.749  24.681 -0.2661  0.0712 -0.0851
 3532W        W46585  28.955  17.813  14.837 -0.2072 -0.2876 -0.0192
 3533W        W46586  33.351  11.057  28.557 -0.2519  0.4032  0.1806
 3534W        W46587  32.198  18.727  20.634 -0.1664 -0.0283 -0.1244
 3535W        W46588  15.860  10.824  20.534 -0.0013  0.1199  0.0601
 3536W        W46589  15.453  23.174  14.004 -0.1985  0.2143 -0.1459
 3537W        W46590  11.313  26.519  27.264  0.1968  0.0894  0.2646
 3538W        W46591   5.630  10.391  24.782  0.1953 -0.0367 -0.0788
 3539W        W46592  27.263  30.796  20.672 -0.2599  0.2292  0.1231
 3540W        W46593   5.269  20.638  22.305 -0.2312 -0.0539 -0.1395
 3541W        W46594   9.055  28.945  19.672  0.0226  0.1210 -0.0754
 3542W        W46595  19.326  28.069  20.935 -0.0850  0.0548  0.0244
 3543W        W46596   7.280  22.053   5.405 -0.2423 -0.0958 -0.0210
 3544W        W46597  20.893  14.104  26.875  0.1654  0.1704  0.5784
 3545W        W46598  10.203  26.785  18.154  0.0545 -0.3179 -0.1358
 3546W        W46599  24.068  14.000  19.528  0.1152  0.4394  0.0187
 3547W        W46600  13.109  33.453  17.769  0.2801 -0.3582  0.0781
 3548W        W46601  18.366  16.373   2.025 -0.0806  0.0944  0.0211
 3549W        W46602  24.589  30.141  27.089  0.2771 -0.0644 -0.7835
 3550W        W46603  27.116  10.465  18.171 -0.2134 -0.1489 -0.2860
 3551W        W46604   0.702  11.068  14.493  0.2598  0.0006  0.0046
 3552W        W46605  22.092  13.308  20.549  0.1351 -0.1078  0.0236
 3553W        W46606  22.479  12.965  13.574 -0.4054 -0.1021  0.0384
 3554W        W46607  15.170  17.972  25.288  0.0643 -0.1628  0.1855
 3555W        W46608  16.833  23.388  18.673 -0.2640 -0.2520 -0.3730
 3556W        W46609  10.136   5.936  20.921 -0.2400 -0.3182 -0.0203
 3557W        W46610  22.958   6.811  22.531 -0.2642  0.0869 -0.0351
 3558W        W46611  29.993  18.204  21.428  0.0643 -0.0984 -0.2127
 3559W        W46612  19.112  21.506  21.017  0.2870  0.0393 -0.0949
 3560W        W46613  13.691   1.579  21.464  0.0533 -0.0782  0.0334
 3561W        W46614  18.356   9.427  27.810 -0.2883 -0.2550 -0.0257
 3562W        W46615  21.630   1.386  15.768 -0.2401 -0.1611 -0.2401
 3563W        W46616  28.107  20.518  16.373 -0.0081 -0.0957  0.1145
 3564W        W46617  14.042  30.080  14.322 -0.2953 -0.2637  0.0263
 3565W        W46618  27.237  27.904   3.226 -0.4435  0.0671  0.0182
 3566W        W46619  32.895   7.765  16.605  0.2933 -0.1182 -0.2015
 3567W        W46620  24.720  12.238  22.308 -0.2419 -0.2030 -0.2142
 3568W        W46621  23.239  18.743  17.414 -0.2695  0.0097  0.0125
 3569W        W46622  10.182   8.331  22.190  0.0797  0.0189 -0.2196
 3570W        W46623   8.248  25.329  21.436 -0.0005 -0.2966  0.3721
 3571W        W46624   7.700  32.632  24.013 -0.4660  0.0668  0.0842
 3572W        W46625  28.902  33.790  14.315  0.0960  0.0281 -0.2612
 3573W        W46626  29.239  28.999  24.798 -0.1369 -0.0774 -0.2555
 3574W        W46627  20.481   0.487   3.588  0.2918 -0.1279  0.0973
 3575W        W46628  17.188   7.525  21.388  0.0701 -0.0064 -0.2226
 3576W        W46629   3.099  13.843  18.776 -0.0869 -0.1672  0.1925
 3577W        W46630  14.733  29.102   6.886  0.0350 -0.1833 -0.3613
 3578W        W46631   1.791   7.301  17.925 -0.3159  0.2985  0.1290
 3579W        W46632  33.984  25.232  19.052 -0.1985 -0.0502 -0.0933
 3580W        W46633  16.210   7.030  18.105  0.2022  0.0757  0.0173
 3581W        W46634  24.654  10.454  20.898  0.0541  0.0152 -0.2423
 3582W        W46635  22.173   9.195  24.626  0.0834 -0.0501  0.1104
 3583W        W46636  31.382  17.569  15.628  0.0715  0.0378  0.5023
 3584W        W46637   8.758  19.934   3.744  0.1494  0.1475  0.1781
 3585W        W46638  19.527   4.211  15.487  0.2506 -0.1405  0.1033
 3586W        W46639  28.397  28.692   8.590  0.2594 -0.1041 -0.1971
 3587W        W46640  20.826  25.071  16.354 -0.3273 -0.0566  0.2370
 3588W        W46641  19.753  13.338  15.838  0.0405  0.0212 -0.3815
 3589W        W46642  23.839  17.073  23.938  0.1759 -0.0706 -0.3385
 3590W        W46643  34.355   8.603  14.414  0.2884  0.2284  0.3428
 3591W        W46644   1.331  26.364  14.543 -0.0460  0.0975 -0.1982
 3592W        W46645  15.177  13.485  16.049 -0.3947  0.2347 -0.1281
 3593W        W46646  30.272   8.856  21.696  0.1285 -0.0369 -0.0429
 3594W        W46647  22.723  27.235  24.983  0.0860 -0.0208 -0.0369
 3595W        W46648  22.953  21.239  21.553  0.1214 -0.0286  0.1528
 3596W        W46649  24.500   0.607  26.233  0.1146  0.1974  0.0647
 3597W        W46650  14.502  13.571  14.263 -0.1996  0.1065 -0.1074
 3598W        W46651  15.709   1.887  17.866 -0.1570 -0.0220  0.1922
 3599W        W46652   4.413  14.632  25.619  0.2203  0.1969 -0.1391
 3600W        W46653  34.621  13.275  23.012  0.4319  0.0249  0.1422
 3601W        W46654  14.927   1.996  22.087  0.1544  0.2764  0.1564
 3602W        W46655   2.733  23.952  27.692  0.3055  0.0854  0.0142
 3603W        W46656   8.938   1.483  18.781  0.0570 -0.1951 -0.0532
 3604W        W46657  29.643   5.528  16.727  0.1142  0.0154  0.0192
 3605W        W46658   7.649   5.321  14.955  0.1235  0.1799 -0.1920
 3606W        W46659  22.234  11.240  22.680 -0.1742  0.0337  0.2936
 3607W        W46660  19.691  30.905  21.450 -0.4607  0.3762 -0.2212
 3608W        W46661  28.562   6.907  15.470 -0.2139 -0.1422 -0.0507
 3609W        W46662  25.134  28.603  17.214 -0.1056  0.2014  0.1618
 3610W        W46663   9.039   3.475  23.130  0.0232 -0.0904 -0.1391
 3611W        W46664  17.698   2.952   1.277 -0.0573 -0.2130  0.3034
 3612W        W46665  26.780   9.350  15.480  0.2948  0.0195 -0.2338
 3613W        W46666  15.664   8.305  18.904  0.0171 -0.1893 -0.0127
 3614W        W46667  30.429  15.900  21.911  0.1663  0.0260 -0.1712
 3615W        W46668  30.021  28.008  20.027 -0.4350  0.0095  0.3207
 3616W        W46669  20.662  13.313  21.318 -0.0301  0.0855 -0.0487
 3617W        W46670  21.489  15.147  16.778  0.1049  0.1052 -0.0563
 3618W        W46671  26.216   4.692  19.827 -0.1184  0.2424 -0.2080
 3619W        W46672   6.153   5.516  15.316  0.0606  0.0322 -0.0098
 3620W        W46673  30.235   6.357  22.000  0.0010 -0.2719 -0.2582
 3621W        W46674  29.479  18.440  14.397 -0.3894  0.0797  0.0651
 3622W        W46675  24.429  17.418  16.309  0.0096 -0.1208 -0.0242
 3623W        W46676  20.477   1.450  19.539 -0.1148  0.1105  0.0005
 3624W        W46677  30.938   8.184   0.974  0.3467  0.0013  0.0897
 3625W        W46678   2.096  24.315   6.755  0.1722  0.2320 -0.0319
 3626W        W46679  25.277  10.474  20.886  0.1300 -0.1033 -0.0489
 3627W        W46680   0.460   5.552   2.157 -0.0878 -0.1692  0.1327
 3628W        W46681   1.850  22.502   0.343 -0.1569  0.2478 -0.2519
 3629W        W46682  10.613  15.543  20.190  0.2339  0.1986 -0.0730
 3630W        W46683  32.973  23.490   3.199  0.1420  0.1786 -0.2867
 3631W        W46684   6.847  27.645  22.026 -0.0084  0.2458  0.0535
 3632W        W46685  22.708   7.325  15.427  0.1961 -0.0093 -0.1406
 3633W        W46686   0.637  17.957  24.748 -0.0083  0.0303 -0.2367
 3634W        W46687  21.091  19.887  16.405 -0.2531 -0.0583  0.1429
 3635W        W46688   6.443   9.037   4.220 -0.0183 -0.2581 -0.1718
 3636W        W46689  24.728   2.134  10.241  0.1324 -0.0095 -0.2011
 3637W        W46690  30.123  29.392  25.190  0.0333  0.0395  0.0392
 3638W        W46691  16.169  28.497  20.397  0.1912 -0.0160 -0.1572
 3639W        W46692   0.543  18.550   1.819  0.0083 -0.1336  0.1823
 3640W        W46693  21.250   7.676   3.430  0.3315  0.0126 -0.1153
 3641W        W46694  27.367  30.583  15.221 -0.2749  0.3765  0.2104
 3642W        W46695   8.743   3.132  21.437  0.0272 -0.0572  0.1686
 3643W        W46696  24.011  20.089  18.374 -0.5360  0.1516 -0.5140
 3644W        W46697  28.404   4.619  20.164 -0.1860 -0.0343 -0.1563
 3645W        W46698  20.482  14.329  26.639  0.2342 -0.0540  0.0108
 3646W        W46699  34.182   8.259  21.794 -0.0980  0.0559 -0.0772
 3647W        W46700  23.122  33.699  23.737  0.3522  0.1424  0.1858
 3648W        W46701   4.389  17.709  13.096 -0.2313 -0.2325  0.0030
 3649W        W46702  30.967  18.169  23.955 -0.0720 -0.0675  0.3306
 3650W        W46703  27.838  14.665  25.069  0.0322 -0.0847 -0.1658
 3651W        W46704  25.437  28.875  17.487 -0.1866 -0.0414 -0.1404
 3652W        W46705   2.147  15.558  20.087 -0.0348  0.0251  0.0492
 3653W        W46706   2.791   3.659  15.196 -0.2521  0.1991  0.1228
 3654W        W46707  13.067  25.159  18.546  0.1950 -0.1011 -0.4931
 3655W        W46708  10.089  22.073  28.282 -0.0065  0.1639 -0.0127
 3656W        W46709  31.846   4.700  14.441 -0.0884 -0.1194 -0.0858
 3657W        W46710  30.197   9.655   1.571 -0.1519 -0.1804 -0.1194
 3658W        W46711  30.024  15.745  15.537  0.3349  0.0992 -0.0094
 3659W        W46712   1.822  11.979  15.184 -0.0584 -0.2359 -0.0527
 3660W        W46713  31.754  12.027  21.748 -0.2441 -0.5240 -0.0523
 3661W        W46714  18.393  15.997   2.296 -0.1347 -0.0485 -0.2386
 3662W        W46715  23.378  19.272  17.104 -0.0013  0.0945 -0.1281
 3663W        W46716  20.197  34.535  20.285  0.0098 -0.0143 -0.0336
 3664W        W46717  20.056  14.112  23.868 -0.1171 -0.0749 -0.0176
 3665W        W46718  18.874   6.377  19.770  0.2615  0.3347 -0.3166
 3666W        W46719  15.412  10.262  20.393 -0.0040 -0.0996 -0.2450
 3667W        W46720  25.462  22.623  20.619 -0.0252  0.1201  0.0169
 3668W        W46721  25.573  23.959  17.225 -0.0981  0.1318  0.1238
 3669W        W46722   1.635  16.321  13.622  0.1794  0.1326 -0.0194
 3670W        W46723  26.375  17.006  21.499  0.0333  0.2121  0.3478
 3671W        W46724  31.109  19.842  22.355 -0.1642  0.3149  0.1296
 3672W        W46725  30.697  22.922   1.014 -0.0648 -0.0064 -0.0495
 3673W        W46726  14.422   2.738   2.943  0.0283 -0.2384  0.1505
 3674W        W46727  25.857  12.046  28.069  0.1156 -0.5105 -0.1267
 3675W        W46728  11.919  13.272  27.832  0.0241 -0.1882 -0.0175
 3676W        W46729  27.095  32.347  18.969 -0.0847  0.0856 -0.1434
 3677W        W46730  27.646  13.826  28.984  0.1598  0.0548 -0.3172
 3678W        W46731   5.225  10.845  27.229 -0.2728  0.0747  0.2448
 3679W        W46732  24.385   2.453  19.116  0.3739  0.1720  0.0694
 3680W        W46733  21.484  17.811  28.453  0.2382 -0.1090  0.0129
 3681W        W46734  28.098   9.579  24.855 -0.2039  0.2077  0.3246
 3682W        W46735  18.503  22.757  17.928  0.2347 -0.1349  0.0886
 3683W        W46736  18.733  13.239   6.456 -0.0441 -0.0575 -0.1602
 3684W        W46737  30.558   5.952  20.910 -0.1444 -0.1393 -0.1317
 3685W        W46738   1.688   7.825  14.094 -0.0101 -0.2654  0.0230
 3686W        W46739  31.634  33.892  20.973 -0.0177 -0.1702  0.0329
 3687W        W46740  17.342   9.093  18.643  0.1473  0.2333  0.1248
 3688W        W46741  32.144   6.398  15.222  0.0424  0.0868 -0.3632
 3689W        W46742  19.160  26.760  24.442  0.0031 -0.1782  0.0803
 3690W        W46743  14.868  21.699  20.978  0.0108  0.0249 -0.3791
 3691W        W46744  29.044  32.845  26.809  0.0401  0.0238  0.1927
 3692W        W46745   5.584  18.430  17.801 -0.1335 -0.0950  0.0911
 3693W        W46746  19.865   9.269  27.930  0.0054  0.1896 -0.1665
 3694W        W46747   9.188   7.088  21.725 -0.0248 -0.1763 -0.1495
 3695W        W46748  23.710  19.373  20.602 -0.0329 -0.0514 -0.0268
 3696W        W46749   5.066   5.665  14.624 -0.2273 -0.1673 -0.1034
 3697W        W46750  22.632  34.648  23.327  0.1844 -0.0675  0.0874
 3698W        W46751   2.428   5.052  24.263  0.0375  0.0786 -0.2293
 3699W        W46752  31.335  20.285  17.457 -0.2132 -0.4026 -0.3272
 3700W        W46753  11.692   5.072  18.733 -0.0321  0.2424 -0.0324
 3701W        W46754  17.963   4.812  16.089  0.2160  0.2184  0.0499
 3702W        W46755  31.263  20.905  16.205 -0.2231 -0.0324 -0.1687
 3703W        W46756  23.160   0.848  23.416 -0.1738 -0.1228 -0.0418
 3704W        W46757  25.584  19.035  24.144 -0.3266 -0.1008 -0.0389
 3705W        W46758  11.432  16.413  26.121  0.1534  0.0081 -0.1385
 3706W        W46759  10.285  21.530  15.245 -0.1053  0.2137 -0.1806
 3707W        W46760   2.032   5.117  17.798  0.1002 -0.2383 -0.1126
 3708W        W46761  23.271   8.218  23.047  0.1977  0.3673  0.0117
 3709W        W46762   1.106   9.851  23.314  0.0638 -0.2065 -0.0780
 3710W        W46763  25.121  17.141  16.184  0.0818  0.0551  0.0768
 3711W        W46764  23.781  23.409  19.363 -0.0649  0.0993 -0.1926
 3712W        W46765  11.792  16.606  24.356  0.1687 -0.2260 -0.3064
 3713W        W46766   7.936  25.428  22.564 -0.2634  0.1521  0.2068
 3714W        W46767  13.360  13.980  18.561 -0.0702 -0.1298  0.1932
 3715W        W46768  24.243  28.465  15.820 -0.1874  0.1862  0.1963
 3716W        W46769  28.191  12.361  27.802  0.0272 -0.0478  0.1110
 3717W        W46770  12.656  33.552  17.360 -0.2409 -0.2811 -0.0354
 3718W        W46771  16.213   1.491  25.295  0.2646 -0.0209 -0.1105
 3719W        W46772   1.329   6.971  15.477 -0.0134 -0.4152 -0.3184
 3720W        W46773  22.156  15.938   7.897 -0.0271 -0.4671  0.4446
 3721W        W46774  28.975  21.705  16.550  0.1317  0.1922 -0.4439
 3722W        W46775   6.378  19.269   7.297 -0.2398  0.0892  0.2671
 3723W        W46776   6.590  10.012  16.528  0.2395  0.1323  0.1681
 3724W        W46777  28.550  31.336  26.985 -0.2543  0.2026 -0.1221
 3725W        W46778   9.163   3.377  17.855 -0.0288 -0.0598  0.0067
 3726W        W46779   7.157   0.586  18.930 -0.0811  0.0242 -0.0656
 3727W        W46780  21.259  12.305  22.270  0.0585  0.0165 -0.0692
 3728W        W46781  17.857   1.027   4.137  0.0417  0.5065 -0.0296
 3729W        W46782  15.305  10.630  16.070  0.1370  0.4258 -0.0603
 3730W        W46783  27.200  19.563  21.946  0.0807  0.0211 -0.1589
 3731W        W46784  17.950  22.687   5.012 -0.1602  0.2183 -0.2356
 3732W        W46785  16.180  12.547  18.765 -0.2069  0.0062  0.1157
 3733W        W46786  20.453   9.913  20.626  0.1179  0.0153 -0.0046
 3734W        W46787  24.445  25.684  14.314 -0.1823 -0.1327 -0.3431
 3735W        W46788  14.275  16.026  13.685 -0.4482  0.2044 -0.2073
 3736W        W46789  17.348  11.769  18.481 -0.2240 -0.1421 -0.1612
 3737W        W46790  28.607  11.302  16.279 -0.1033  0.1017 -0.0337
 3738W        W46791  30.534  28.289  14.688 -0.1613  0.2109  0.4104
 3739W        W46792  23.420  17.679  26.302 -0.0612 -0.1586 -0.2146
 3740W        W46793  25.336  28.197  16.884 -0.0437  0.0365  0.0224
 3741W        W46794  32.379  15.533  17.021 -0.0092 -0.0158  0.0331
 3742W        W46795  17.523  30.117  24.514 -0.0643  0.1439  0.2855
 3743W        W46796  23.250  24.564  15.022  0.3656 -0.3489 -0.1739
 3744W        W46797  23.117   7.038  22.005  0.0802 -0.1330  0.0559
 3745W        W46798  25.683  32.375  21.275  0.2877 -0.1451 -0.2430
 3746W        W46799  15.335  20.490  26.549 -0.1579  0.1388  0.2392
 3747W        W46800  25.324  29.618  18.548 -0.0525 -0.1275 -0.1200
 3748W        W46801  30.701  11.269   2.242  0.1361  0.0500  0.1568
 3749W        W46802  18.244   9.141  17.371 -0.0885  0.2389 -0.4537
 3750W        W46803  21.213  27.656  15.356  0.0348  0.2142  0.0241
 3751W        W46804  28.572  12.959  24.588  0.2802 -0.0599  0.0136
 3752W        W46805  15.908  17.656  24.743  0.1484  0.3581  0.0977
 3753W        W46806  13.284   7.987  21.815 -0.1936  0.0357  0.2786
 3754W        W46807  19.814   7.997  15.813 -0.1420  0.1512  0.1798
 3755W        W46808  31.873   1.980  26.399  0.0266  0.1444  0.0539
 3756W        W46809  33.347  33.216   2.412  0.0018  0.1210 -0.2671
 3757W        W46810  27.092  20.908  25.981  0.1014  0.0558 -0.1521
 3758W        W46811   6.546  30.142  27.010 -0.1240 -0.2343 -0.0681
 3759W        W46812  28.806   8.534  15.779 -0.2797 -0.0963  0.0191
 3760W        W46813  22.483   2.756  21.938 -0.3449 -0.0657 -0.0707
 3761W        W46814   5.585  15.779  20.099 -0.0467  0.0958  0.0458
 3762W        W46815   2.233  27.929  28.492 -0.1892  0.0172 -0.0164
 3763W        W46816   5.150  20.762   6.927 -0.1350 -0.0306  0.0734
 3764W        W46817   0.145   5.981  20.898  0.2562 -0.1190 -0.1276
 3765W        W46818  21.476  22.523  26.579 -0.5067 -0.0587  0.0409
 3766W        W46819  11.234   0.879  15.497 -0.0073  0.1815  0.0882
 3767W        W46820  18.067  10.169  19.442  0.4141 -0.4237 -0.1287
 3768W        W46821   5.391  12.021   0.196  0.1508  0.0204  0.1516
 3769W        W46822  30.787   1.482  14.817  0.0453 -0.2425  0.1940
 3770W        W46823   2.623   9.184  24.861 -0.1850 -0.2750  0.6636
 3771W        W46824  15.978  32.226  16.857 -0.4017 -0.2975  0.0679
 3772W        W46825  26.708  23.910  28.316 -0.1359  0.1622 -0.2538
 3773W        W46826  17.250   9.252  23.937 -0.0418 -0.1861 -0.1452
 3774W        W46827   3.693  33.657  14.433  0.0817 -0.3745 -0.2402
 3775W        W46828  13.070  12.115  22.317  0.0022  0.3887  0.1282
 3776W        W46829  29.574  10.681  17.275 -0.1864 -0.1061 -0.2290
 3777W        W46830  33.384  20.853   3.285  0.0546 -0.1421  0.1190
 3778W        W46831  29.218   5.613   0.308  0.1770 -0.2723 -0.1081
 3779W        W46832  18.873  32.669  14.176 -0.0801 -0.0071  0.2210
 3780W        W46833   4.379  31.625   7.351  0.0666 -0.0112 -0.1648
 3781W        W46834  25.584  23.990  22.185 -0.0595  0.0829  0.2036
 3782W        W46835  11.424  32.099  24.768 -0.0303  0.0771 -0.4478
 3783W        W46836  30.391   6.683  19.293 -0.1381  0.1647  0.0024
 3784W        W46837  28.295  15.894  15.529  0.2481  0.2212 -0.0333
 3785W        W46838  12.073   7.481  21.793 -0.2687 -0.2977 -0.1786
 3786W        W46839  14.039   2.750  21.563  0.0815 -0.2636  0.0647
 3787W        W46840  29.373  14.655  25.091 -0.0949  0.3064 -0.0203
 3788W        W46841  27.889  14.615  20.875  0.0320 -0.0316 -0.0919
 3789W        W46842  28.783  28.799  26.748 -0.3022  0.3904  0.1722
 3790W        W46843  11.482   4.779  24.016 -0.1249  0.0270 -0.1041
 3791W        W46844  21.631  20.352  17.918 -0.1442 -0.0375 -0.1137
 3792W        W46845  31.964  13.522  19.104  0.1712  0.0755 -0.3170
 3793W        W46846  21.964  14.724  24.988  0.0689 -0.2449  0.0973
 3794W        W46847  20.290   5.667  19.240 -0.1088 -0.3054 -0.1895
 3795W        W46848  15.956  28.572  15.167  0.1366 -0.0033  0.0385
 3796W        W46849  27.914  13.239  17.131  0.0329  0.0086  0.2511
 3797W        W46850  24.172  21.273  19.127 -0.1323 -0.1088  0.1381
 3798W        W46851   7.368  33.861   0.551  0.3582  0.0756 -0.3796
 3799W        W46852  10.120  30.202  13.637  0.2236  0.1272 -0.0797
 3800W        W46853   4.519  21.142  19.712 -0.0203  0.0145  0.1675
 3801W        W46854  16.172  24.394   0.741 -0.0264  0.3839 -0.0900
 3802W        W46855  21.270   9.925   6.998  0.0331  0.2603  0.6000
 3803W        W46856  28.848   9.367  16.482 -0.1840 -0.2341 -0.2492
 3804W        W46857  12.648   7.859  17.400  0.0495 -0.3916 -0.1338
 3805W        W46858  30.974  15.650   0.346 -0.0627 -0.0793  0.1435
 3806W        W46859  33.917   9.738  14.657  0.0857 -0.0744 -0.0750
 3807W        W46860  27.651  33.421  18.152 -0.0482  0.2437  0.1138
 3808W        W46861  24.374  23.027  15.215  0.0434  0.0951 -0.4256
 3809W        W46862  15.505   8.967  23.647  0.0152 -0.0148 -0.3204
 3810W        W46863  22.460  31.725  20.939  0.1064  0.0346  0.0355
 3811W        W46864  18.538  12.847  27.289 -0.0637  0.0704 -0.0994
 3812W        W46865  24.850   7.665  27.304 -0.0219  0.1146 -0.2318
 3813W        W46866  11.575   1.596  21.223 -0.3174  0.1924 -0.2649
 3814W        W46867   8.259  21.479  16.768  0.0488 -0.3773 -0.0594
 3815W        W46868   6.896  12.916  18.616 -0.0170  0.1571  0.0719
 3816W        W46869  20.797  20.988  19.495 -0.0303  0.1130 -0.1214
 3817W        W46870   6.595   3.870  25.914 -0.1722  0.2298 -0.2898
 3818W        W46871  27.168  13.613  22.940  0.1207 -0.1255  0.0244
 3819W        W46872  34.600  14.964   7.294  0.1143 -0.0217  0.3651
 3820W        W46873  27.316  20.803  18.139 -0.3355 -0.2285  0.1081
 3821W        W46874  27.922  13.320  14.814 -0.0665 -0.0788 -0.1180
 3822W        W46875   9.988  16.336   9.482  0.0875  0.1708 -0.0370
 3823W        W46876  29.767  15.849  17.078  0.0066  0.3135  0.0700
 3824W        W46877   2.398   4.553  21.995 -0.0496  0.2763  0.0741
 3825W        W46878  25.565  26.796   2.908 -0.2471 -0.2286 -0.3126
 3826W        W46879   2.056   9.597  21.236  0.2253 -0.0003  0.0510
 3827W        W46880  28.999  11.329  19.775 -0.4847 -0.2601  0.2411
 3828W        W46881   1.445   2.254  21.612 -0.1655  0.0699  0.1994
 3829W        W46882  22.605  11.354  20.888 -0.5081 -0.0399 -0.0830
 3830W        W46883  33.521   9.057  21.272 -0.0816 -0.2381  0.2726
 3831W        W46884  28.664  32.902  19.382  0.0565 -0.3113 -0.0159
 3832W        W46885  28.749  18.864  16.171  0.1740  0.0417 -0.0315
 3833W        W46886   2.011  22.004   6.819 -0.2424 -0.0723 -0.0214
 3834W        W46887  25.244  33.816  21.384 -0.2693 -0.0560 -0.1011
 3835W        W46888  21.894   7.709  20.266 -0.1686 -0.0230 -0.1462
 3836W        W46889   7.175  31.945  27.833 -0.0898  0.0066  0.2211
 3837W        W46890  24.893  13.510   3.953 -0.1548 -0.1093 -0.0398
 3838W        W46891  33.156  23.771  15.506 -0.2054  0.1463 -0.0423
 3839W        W46892  22.347  18.012  16.912 -0.2187 -0.1736  0.1751
 3840W        W46893  24.976   1.059  27.335  0.0963 -0.1318  0.0080
 3841W        W46894  30.335   6.875  17.119 -0.0026  0.0432 -0.1385
 3842W        W46895  33.578   9.891  18.780  0.1307  0.2178  0.0486
 3843W        W46896  25.833   6.622  14.809  0.1370 -0.0251  0.0197
 3844W        W46897  16.405  11.969  22.266 -0.0904  0.1159  0.0213
 3845W        W46898   3.952  14.125  27.856 -0.0774  0.0225  0.0558
 3846W        W46899   2.895  30.248  20.358 -0.0853  0.0148 -0.1582
 3847W        W46900   3.782  18.122  19.996  0.1577 -0.1825 -0.0114
 3848W        W46901  31.120  24.189   3.711  0.1501 -0.1088 -0.0790
 3849W        W46902  22.605   6.949  15.767  0.0017  0.0037  0.1261
 3850W        W46903  23.562  23.276  24.588 -0.2193  0.3642 -0.0585
 3851W        W46904  26.639  12.992  23.521  0.2152 -0.1268  0.0230
 3852W        W46905  27.420  10.071  21.699  0.0954 -0.1785 -0.2615
 3853W        W46906   3.097  30.008  20.747  0.0440  0.0767 -0.0313
 3854W        W46907  27.396  30.213  20.838  0.0595  0.0425 -0.2520
 3855W        W46908  20.594   9.200  21.226 -0.1665  0.0898 -0.0386
 3856W        W46909  25.222  21.836  17.081 -0.0642  0.0211 -0.1752
 3857W        W46910  15.773   7.317  18.204  0.3833  0.1984  0.2152
 3858W        W46911  28.575   7.908   2.139 -0.0604 -0.2408 -0.0452
 3859W        W46912   3.594  27.568   7.343 -0.0342  0.0659  0.0176
 3860W        W46913  16.040  21.267   0.673  0.4249  0.2613  0.0508
 3861W        W46914  25.679  11.298  27.011 -0.0247  0.2711  0.3985
 3862W        W46915  22.550  22.975  18.333  0.3020  0.1832  0.1215
 3863W        W46916  31.583  11.133  14.655  0.1233  0.1146 -0.1303
 3864W        W46917  28.451   5.627  18.513 -0.0523 -0.1571  0.0265
 3865W        W46918  30.707   7.992  16.813 -0.1768 -0.1610 -0.0786
 3866W        W46919   3.276   6.777   0.187  0.1622 -0.3515 -0.3829
 3867W        W46920   0.232  13.943  16.100 -0.3930 -0.0358  0.2321
 3868W        W46921  26.174   3.485  21.267 -0.0362 -0.1810  0.2484
 3869W        W46922   2.571   3.364   0.045  0.1988  0.0078  0.0845
 3870W        W46923   2.390  15.497  17.321  0.0862  0.1614  0.1398
 3871W        W46924  15.953   3.371   0.382 -0.2460 -0.0860  0.0698
 3872W        W46925  24.855   9.522  18.278  0.1746  0.2926 -0.0422
 3873W        W46926  23.872  10.835  19.479 -0.1770 -0.0938 -0.0951
 3874W        W46927   3.118  20.739  14.708  0.1875  0.1268  0.1116
 3875W        W46928   6.327  20.008   8.496  0.0055 -0.2672 -0.0570
 3876W        W46929  24.118  28.918  15.632 -0.1873 -0.3320 -0.0296
 3877W        W46930  23.314  12.648  23.531 -0.1133  0.2821  0.3117
 3878W        W46931  26.216  10.214  26.158  0.2295 -0.2094 -0.0941
 3879W        W46932  27.301  20.093  21.488  0.1158 -0.2168  0.1205
 3880W        W46933  23.191  13.320  18.295 -0.3713 -0.1575 -0.0441
 3881W        W46934  23.686  21.532  15.752 -0.1192 -0.0514 -0.3521
 3882W        W46935  21.483   8.673   4.869 -0.1663  0.0115 -0.6817
 3883W        W46936   0.001  25.078  20.554  0.0922 -0.1001 -0.2057
 3884W        W46937   5.909   1.148  24.713  0.0771 -0.0458 -0.3833
 3885W        W46938  14.696  12.198   6.636 -0.0494 -0.3083 -0.2897
 3886W        W46939  21.953  20.428  26.794  0.0580  0.0558 -0.1015
 3887W        W46940  22.565  28.528  16.756  0.1501  0.0352 -0.1440
 3888W        W46941  27.759  11.378  14.343 -0.0811 -0.0695 -0.2376
 3889W        W46942  33.793  25.152  14.389  0.0638  0.2701  0.2277
 3890W        W46943   8.674   6.342  16.976  0.0374  0.1888 -0.2708
 3891W        W46944  13.129  24.554  26.840  0.2019 -0.3340 -0.3056
 3892W        W46945  28.983  19.253  16.726  0.3382 -0.5101 -0.0290
 3893W        W46946   7.844  10.680  19.475 -0.3906  0.0785  0.3644
 3894W        W46947  34.515  11.957   7.118 -0.2014  0.1394 -0.1743
 3895W        W46948   7.509  12.394   4.441  0.2452  0.2255  0.2032
 3896W        W46949  24.314  17.697  15.928  0.3369 -0.1938 -0.0177
 3897W        W46950  15.646   2.633  24.769  0.0644  0.0032  0.3013
 3898W        W46951   3.874  20.207  28.390  0.0230 -0.1096 -0.1469
 3899W        W46952  19.647  11.070  23.130 -0.0193 -0.1255 -0.2864
 3900W        W46953  31.264  22.294  17.262  0.4041 -0.2603 -0.0509
 3901W        W46954  19.561  26.465  20.442 -0.1346  0.2321  0.0857
 3902W        W46955  15.843  31.116  25.948  0.2253  0.0048  0.0253
 3903W        W46956   1.890  10.455  18.887 -0.1278  0.0774  0.0001
 3904W        W46957   6.233  18.388   6.554 -0.0535 -0.1677  0.1841
 3905W        W46958  33.650  22.601  14.812  0.0474  0.0977 -0.2352
 3906W        W46959  19.987  21.151  14.599 -0.0815 -0.0264  0.0784
 3907W        W46960  24.570  28.394  23.946 -0.2085 -0.2246 -0.0323
 3908W        W46961  22.817   3.290  20.327  0.0981  0.4165  0.1791
 3909W        W46962  23.496  16.194  21.645  0.1010  0.2144 -0.2531
 3910W        W46963  22.121  12.055  19.582 -0.0757 -0.2592  0.0443
 3911W        W46964   1.892  27.987   8.369 -0.0625 -0.2068  0.2882
 3912W        W46965  31.745   9.830  14.450  0.2425 -0.1609 -0.0092
 3913W        W46966   7.368  21.862  22.504 -0.1325 -0.2085 -0.0838
 3914W        W46967  19.952  21.664  15.002  0.0360  0.2458 -0.1053
 3915W        W46968  19.971  19.550   9.924  0.0247  0.1128 -0.0158
 3916W        W46969  15.371  13.030  17.875 -0.1966  0.0553  0.1677
 3917W        W46970  23.707  19.352  14.082 -0.5824  0.1573  0.0938
 3918W        W46971   7.751   7.600  21.873  0.2596  0.1797  0.0744
 3919W        W46972  15.439  18.388  23.084  0.4256  0.2988 -0.0199
 3920W        W46973  21.177  13.802   1.175  0.3326 -0.2075 -0.0382
 3921W        W46974  21.089  22.433  15.341  0.0728  0.1386  0.0091
 3922W        W46975  24.783  15.502  15.712 -0.2844 -0.0479 -0.0199
 3923W        W46976  24.098  19.159   3.203 -0.2197  0.0762  0.0341
 3924W        W46977  26.790  26.573  17.969 -0.2992 -0.1809  0.0923
 3925W        W46978  29.635   5.143  19.297 -0.0616  0.0309 -0.1037
 3926W        W46979  27.311  24.985  27.061 -0.0570 -0.1842 -0.1570
 3927W        W46980  31.836   3.968  20.128  0.2118  0.1612 -0.0055
 3928W        W46981  22.113   7.389  19.867  0.1603 -0.5739  0.0039
 3929W        W46982   6.338  16.140   3.457 -0.0477 -0.0204 -0.2353
 3930W        W46983  14.739  10.428   0.931 -0.1094 -0.0758 -0.0775
 3931W        W46984  14.509   9.709  27.343  0.2828  0.1564 -0.2751
 3932W        W46985  31.423  11.658  23.715  0.1583 -0.0930 -0.0840
 3933W        W46986   8.729  31.368  20.016  0.0959  0.4655  0.0156
 3934W        W46987  28.177  15.493  16.018  0.1235 -0.2371 -0.1403
 3935W        W46988   3.179  29.785   8.540 -0.0307 -0.0406 -0.1692
 3936W        W46989  29.648  27.507  14.007  0.2709 -0.2651 -0.0364
 3937W        W46990  19.197   7.531  20.556 -0.0400  0.1810 -0.1002
 3938W        W46991  20.586  11.780  13.833 -0.0426 -0.0505 -0.2185
 3939W        W46992   0.997  32.959  28.638  0.2913  0.0251  0.0589
 3940W        W46993  27.982  13.538  20.950  0.1079  0.1308 -0.1750
 3941W        W46994  27.745  14.826  23.854 -0.1578 -0.0606 -0.2343
 3942W        W46995  21.547  20.737  27.889 -0.1147  0.2664  0.1963
 3943W        W46996  22.597  20.311  22.891  0.0221  0.2223 -0.0065
 3944W        W46997  29.562  26.859  27.349  0.2532 -0.0678 -0.0331
 3945W        W46998  21.298   9.870  15.120 -0.2877 -0.1696  0.1471
 3946W        W46999  27.493  30.097   3.545  0.1698  0.3128 -0.0854
 3947W        W47000  26.689   2.894  23.477 -0.0857  0.1549  0.0381
 3948W        W47001  29.207  12.587   2.511  0.1623  0.0831 -0.1296
 3949W        W47002  24.647  19.721  23.961 -0.2608  0.1960 -0.0538
 3950W        W47003  27.860  28.138  15.406  0.0531 -0.0200 -0.0219
 3951W        W47004   0.981  30.154  18.376 -0.1987 -0.3999  0.0057
 3952W        W47005  26.787  19.683  19.420 -0.1875  0.2803 -0.2084
 3953W        W47006  29.259   7.616  16.080 -0.1610  0.2376  0.0624
 3954W        W47007  22.960  16.191  15.006  0.0738 -0.1465 -0.1780
 3955W        W47008  30.458  12.794  24.614 -0.2646 -0.1503 -0.0452
 3956W        W47009  24.811  33.805  27.024  0.0923  0.0474 -0.1530
 3957W        W47010  28.462  22.754  24.406  0.3996  0.1130  0.0720
 3958W        W47011  22.957  30.458  28.488  0.0789 -0.2128 -0.4832
 3959W        W47012  12.563  28.206  16.461  0.2712 -0.1308 -0.0836
 3960W        W47013  26.432  29.284  15.026 -0.0607  0.0479  0.3076
 3961W        W47014  17.319   7.557   0.631 -0.0887  0.2224 -0.4118
 3962W        W47015  17.322   1.023  19.535 -0.0760 -0.2888  0.1403
 3963W        W47016  17.378  33.323  22.585  0.0886  0.0738 -0.1139
 3964W        W47017  15.407  28.456   2.137 -0.0036  0.2996  0.2620
 3965W        W47018  27.476  10.256   0.041 -0.0738  0.2140 -0.3062
 3966W        W47019  23.681  14.549  23.910  0.1814 -0.1806  0.2240
 3967W        W47020  28.000  11.147  23.016 -0.1920 -0.2512  0.1397
 3968W        W47021   4.181  13.495  19.268  0.1731  0.1369  0.0306
 3969W        W47022  33.369  13.839  19.432 -0.0388  0.0524  0.3057
 3970W        W47023  25.601  17.769  21.925 -0.0140  0.0924 -0.3079
 3971W        W47024  29.701  19.754  18.550  0.2175  0.2650  0.3447
 3972W        W47025  31.355  17.030  16.038 -0.0602  0.0769 -0.1939
 3973W        W47026  18.550  11.021  19.237  0.2730  0.0217  0.1872
 3974W        W47027  31.091   9.151   2.680  0.0340  0.2318  0.0203
 3975W        W47028  18.233  14.655  22.963 -0.2390 -0.2117 -0.0547
 3976W        W47029   0.568  19.933  19.091  0.0282 -0.1371  0.0813
 3977W        W47030  17.841  11.651  18.239 -0.0132 -0.3319  0.0277
 3978W        W47031   6.346   8.284  18.731  0.2202  0.2342  0.1592
 3979W        W47032  23.534  32.677  16.027 -0.0807 -0.2074  0.1789
 3980W        W47033   4.786   2.472  23.651  0.0334 -0.3962 -0.2184
 3981W        W47034  21.567  20.041   1.973  0.4904  0.0174 -0.1084
 3982W        W47035  34.238   3.055  23.923  0.0790  0.1340  0.0870
 3983W        W47036  32.967  12.427  22.242 -0.2391 -0.1229 -0.0847
 3984W        W47037  21.203  14.033  16.310  0.0172 -0.1520 -0.2554
 3985W        W47038  26.865  20.255  15.541 -0.1148 -0.3715  0.0760
 3986W        W47039   0.773  18.298  18.763  0.0558 -0.0566  0.4263
 3987W        W47040  15.762   0.787  18.109  0.1452  0.0777  0.2001
 3988W        W47041  31.631  10.915  18.358  0.0221  0.0529  0.0862
 3989W        W47042   2.890  21.062  26.223 -0.4642 -0.2099  0.0421
 3990W        W47043   9.480  31.927  21.932  0.0475 -0.3057 -0.0058
 3991W        W47044  20.742  20.009   1.279 -0.3296 -0.0795  0.2473
 3992W        W47045  26.702  13.156  20.182 -0.1899 -0.2192  0.2291
 3993W        W47046  26.903  21.341  15.989 -0.2511 -0.0282 -0.1541
 3994W        W47047  20.950  13.775  21.102  0.1242 -0.2163  0.5082
 3995W        W47048  28.313   9.933  21.912  0.3312  0.1850 -0.0789
 3996W        W47049  24.987  12.513  26.537  0.1580  0.0407 -0.0870
 3997W        W47050  20.397  25.307  24.743 -0.3027  0.2108 -0.0620
 3998W        W47051  26.583  20.112  17.243 -0.0010 -0.0669 -0.0452
 3999W        W47052  25.863   0.957  26.791 -0.1702 -0.2842 -0.2026
 4000W        W47053  16.434   8.749  21.438 -0.0850 -0.1651 -0.0382
 4001W        W47054  22.104  32.792  22.975  0.0522 -0.3727  0.1015
 4002W        W47055  28.402  17.465  18.449 -0.2785 -0.0393 -0.1243
 4003W        W47056  33.205   9.592  25.257  0.2377  0.3064 -0.1965
 4004W        W47057  16.291   8.666  15.199 -0.0540 -0.1977 -0.1756
 4005W        W47058  12.611   2.240   2.840 -0.2036 -0.1262  0.1134
 4006W        W47059  26.513   7.060  22.236 -0.0978 -0.1203 -0.4097
 4007W        W47060  34.390  14.911  18.193 -0.0914  0.2192 -0.1685
 4008W        W47061  34.363   0.094  27.295 -0.1370  0.0562 -0.3356
 4009W        W47062   2.721  25.848  15.609 -0.2265  0.2457 -0.2913
 4010W        W47063   7.671  31.938  29.107 -0.0084 -0.2422 -0.1115
 4011W        W47064  21.733  10.071  14.291  0.1178  0.1504 -0.0332
 4012W        W47065   5.919   1.220  19.469 -0.0379 -0.2063 -0.1253
 4013W        W47066  32.069   6.382   3.886 -0.1214 -0.3597  0.0327
 4014W        W47067   5.439  18.478  20.266 -0.3027 -0.2559  0.1036
 4015W        W47068  25.524   6.554  28.941  0.3432  0.2684 -0.1324
 4016W        W47069  29.598   3.758  24.511 -0.1045  0.0809  0.1377
 4017W        W47070  10.205  25.614  17.984 -0.3155 -0.0218  0.0678
 4018W        W47071  17.678  29.565  21.608 -0.0072  0.1892 -0.0718
 4019W        W47072   8.916   9.598  15.428 -0.1534  0.3255 -0.0568
 4020W        W47073  26.631  19.809   3.386  0.2532 -0.2282  0.0242
 4021W        W47074  18.988  12.570  21.891 -0.0908 -0.2876  0.2433
 4022W        W47075  25.285  10.314  17.135 -0.2434 -0.2122  0.1123
 4023W        W47076  14.339  19.011  14.888  0.0541  0.2057 -0.2703
 4024W        W47077  21.294  14.023  13.485 -0.0694  0.0374  0.1922
 4025W        W47078  25.958   7.236  23.655  0.2476  0.2402  0.0127
 4026W        W47079  11.802  31.269  23.854 -0.2138  0.2901  0.0816
 4027W        W47080  25.517  24.411   1.120  0.1211  0.0414  0.1887
 4028W        W47081  13.458  13.173  15.360 -0.0207 -0.3324 -0.2032
 4029W        W47082  28.614  23.752   0.739  0.0272 -0.2271  0.2391
 4030W        W47083  33.528  22.294  22.071  0.1823  0.1945  0.0638
 4031W        W47084  25.975   7.634  21.609  0.0757  0.3133  0.1288
 4032W        W47085  25.593   5.056  15.509  0.1184  0.0920  0.0803
 4033W        W47086  12.862  19.034  20.660 -0.1493 -0.2340 -0.2625
 4034W        W47087  12.574  12.303  21.485 -0.0303  0.0861 -0.1602
 4035W        W47088   2.373  12.193  26.299  0.2527 -0.5406  0.0364
 4036W        W47089  21.216  24.808  27.318  0.1598  0.0212 -0.1154
 4037W        W47090  28.393  28.051  19.184 -0.0113  0.2357  0.0119
 4038W        W47091  13.443   4.104  15.684 -0.1599 -0.0708 -0.1552
 4039W        W47092   8.771   8.815  25.767  0.0820 -0.2090 -0.0328
 4040W        W47093   0.688  10.057  28.593 -0.1066  0.0210  0.3080
 4041W        W47094  17.372  33.045  26.697 -0.4520  0.0137 -0.0252
 4042W        W47095   7.410  22.080  24.316 -0.1395 -0.0234 -0.0877
 4043W        W47096   7.540  10.057  17.136 -0.1536 -0.1813  0.0930
 4044W        W47097  23.660   0.494  24.883 -0.3601 -0.0362  0.1254
 4045W        W47098  32.420  14.670  24.478 -0.0689  0.0600  0.3386
 4046W        W47099   6.321   1.962  24.512 -0.0604  0.2109 -0.1184
 4047W        W47100  18.129  11.968  16.057  0.0648  0.3335 -0.0572
 4048W        W47101  24.145  33.371   2.416  0.1512 -0.0920  0.3184
 4049W        W47102  11.799  30.234  22.926  0.2189 -0.5379 -0.0824
 4050W        W47103  20.000   6.167  17.257  0.1399  0.0976 -0.1034
 4051W        W47104  31.484  24.126  28.307 -0.4449 -0.1183 -0.1306
 4052W        W47105  18.536  17.215   1.893  0.0441  0.1467 -0.2178
 4053W        W47106  19.271  13.470  17.381 -0.1589 -0.2526 -0.0208
 4054W        W47107  25.190  12.466  17.548  0.2149 -0.1868  0.0804
 4055W        W47108  32.440  19.756  15.977  0.0399 -0.2545 -0.0039
 4056W        W47109  32.839   2.182  19.459 -0.0091 -0.2855 -0.0335
 4057W        W47110   5.187  33.704  24.484 -0.0108 -0.0902 -0.0791
 4058W        W47111  21.836  28.625  15.864 -0.0958 -0.0980  0.1096
 4059W        W47112  24.085  12.012  20.201  0.0220  0.2388  0.2439
 4060W        W47113  33.735  17.170  20.811  0.0090 -0.2390  0.0053
 4061W        W47114  26.402  27.107   5.510 -0.3219  0.0878  0.0695
 4062W        W47115  19.188   0.323  15.718  0.0363 -0.3353 -0.1717
 4063W        W47116  33.042  18.626   7.141  0.0463  0.1797  0.2431
 4064W        W47117  30.398  15.051  20.364 -0.0031 -0.2075  0.1882
 4065W        W47118  30.767  31.246  17.820  0.2433 -0.3276 -0.3598
 4066W        W47119  12.454  15.049  18.081 -0.0911  0.0131  0.0523
 4067W        W47120   4.860   4.580  24.984 -0.1260  0.0582  0.0546
 4068W        W47121  15.333  10.715  24.997  0.0960  0.0569 -0.0121
 4069W        W47122  22.785   5.734  17.825 -0.0068 -0.0348 -0.0234
 4070W        W47123  11.640  15.850  20.177 -0.2149  0.0584  0.1936
 4071W        W47124  20.305  30.386   0.496  0.2894  0.1023  0.2726
 4072W        W47125  34.184  22.966  24.027  0.3648 -0.3007  0.1049
 4073W        W47126  26.357  13.388  25.193 -0.1850 -0.2739  0.0500
 4074W        W47127  24.839  17.694  17.254 -0.2318  0.1512 -0.1403
 4075W        W47128   4.086   0.932  23.160  0.1027 -0.0642 -0.1803
 4076W        W47129  24.680   8.491  27.446 -0.0792  0.0717  0.0760
 4077W        W47130  16.237  20.277  15.080  0.5602 -0.2075 -0.1395
 4078W        W47131  29.843  23.530  14.776  0.4340 -0.1135 -0.2711
 4079W        W47132  25.108  22.315  20.943 -0.3284 -0.3688 -0.0199
 4080W        W47133  33.232   5.531  17.021 -0.0954 -0.0001 -0.3791
 4081W        W47134  23.895  29.127   3.704  0.2901  0.1227 -0.1100
 4082W        W47135  25.424  25.263  14.782 -0.1842 -0.1533  0.1834
 4083W        W47136   1.022  20.415   3.252 -0.1012  0.1660 -0.0353
 4084W        W47137  24.218   1.100   6.077 -0.1097 -0.0231 -0.1837
 4085W        W47138  13.005  17.359  23.001 -0.0611 -0.2404  0.0638
 4086W        W47139  33.141  21.070  25.096  0.1348 -0.2391 -0.2717
 4087W        W47140  15.444  10.135  27.552 -0.1298  0.0359 -0.0551
 4088W        W47141  34.533   9.423  21.090 -0.0528  0.0979 -0.0885
 4089W        W47142  10.031  25.722  19.428  0.0623 -0.0944 -0.0656
 4090W        W47143  23.478   5.766  18.484  0.0372  0.1908  0.3592
 4091W        W47144  24.927   8.806  24.743 -0.1191 -0.0769 -0.0789
 4092W        W47145  21.028   8.765  15.758  0.2702 -0.0659  0.1002
 4093W        W47146  19.026   8.847  20.100 -0.2667 -0.2040  0.2283
 4094W        W47147  32.091   8.150  25.664 -0.1086  0.1209 -0.1237
 4095W        W47148   4.356  14.499  16.977 -0.0301 -0.2168 -0.1465
 4096W        W47149  16.075  34.589  20.419 -0.1394 -0.4993 -0.1191
 4097W        W47150  23.964   8.677  20.086  0.1227 -0.4101  0.0062
 4098W        W47151  30.437  28.305  17.315 -0.0287 -0.2603 -0.0715
 4099W        W47152  26.683  10.694  19.058 -0.1597 -0.0709 -0.2385
 4100W        W47153   9.904  14.025  25.957  0.0293 -0.2444  0.0463
 4101W        W47154  12.990  17.475  14.176 -0.1226  0.1223  0.3063
 4102W        W47155   4.906  20.076   5.067  0.2930  0.1728 -0.0157
 4103W        W47156  19.490  13.218  18.315  0.0748 -0.0548 -0.2157
 4104W        W47157  28.599   5.223   7.566  0.3508 -0.1907 -0.0987
 4105W        W47158  18.810  18.920  28.694 -0.0319  0.2789 -0.0881
 4106W        W47159  23.429  12.016  13.982  0.0077  0.4000 -0.2926
 4107W        W47160  16.245   2.857  22.290 -0.1410 -0.1762  0.2434
 4108W        W47161  32.971   0.094  18.153 -0.4795  0.0111  0.1132
 4109W        W47162  12.862  22.633  18.289 -0.3040  0.3568  0.2290
 4110W        W47163  33.179  30.374   1.176 -0.0548  0.0438 -0.1466
 4111W        W47164  23.747  26.661  17.827  0.1687 -0.0918 -0.1458
 4112W        W47165  18.626   1.445  16.465 -0.3435 -0.0829  0.5052
 4113W        W47166  24.049   1.409  25.244  0.3920  0.0376 -0.2379
 4114W        W47167  10.893  23.272   3.376 -0.1620  0.0396 -0.0945
 4115W        W47168   4.468   9.904  25.035 -0.1276  0.2513 -0.1940
 4116W        W47169  24.790  11.948  16.845  0.0707 -0.1550  0.0175
 4117W        W47170  20.836   4.916  16.571 -0.2727  0.1618  0.0222
 4118W        W47171   4.733  21.946  19.314  0.4016 -0.0510  0.1424
 4119W        W47172  15.464   1.642  27.325  0.2017  0.0670  0.2209
 4120W        W47173  29.100  11.032   0.237 -0.0349 -0.1835  0.0156
 4121W        W47174  24.494  22.870  19.615 -0.0348  0.1149 -0.0568
 4122W        W47175   1.582  10.437  16.626 -0.1049  0.0876 -0.2628
 4123W        W47176   9.238   9.200  26.126  0.2045 -0.0739  0.0695
 4124W        W47177  17.227  10.200  17.143 -0.0934 -0.1698  0.1489
 4125W        W47178   2.133  15.368  24.732 -0.0330  0.0325  0.1476
 4126W        W47179  20.770  11.095  23.632 -0.0380  0.4746  0.3636
 4127W        W47180   0.932  25.083   2.976 -0.0691 -0.0200 -0.0577
 4128W        W47181   0.839  29.725  26.648  0.0300  0.0860  0.0517
 4129W        W47182  10.829  19.009   0.014 -0.4412 -0.1341  0.3006
 4130W        W47183  32.528   2.257  28.892  0.2944  0.3056 -0.0572
 4131W        W47184  12.936  30.029   0.582 -0.0664 -0.0601 -0.2211
 4132W        W47185  23.538   5.334   0.440 -0.0333  0.0727  0.3977
 4133W        W47186   9.014   8.117  14.719  0.3575 -0.0384  0.0951
 4134W        W47187  26.130  19.623   0.613 -0.1582  0.0129  0.0946
 4135W        W47188  10.185  13.897  21.210 -0.0446  0.0279 -0.3040
 4136W        W47189  17.775  31.578  14.045 -0.6245  0.2402  0.1376
 4137W        W47190  32.525  14.020  17.772  0.0375  0.0295  0.0076
 4138W        W47191  11.961   2.636   2.904  0.2196  0.1576 -0.4203
 4139W        W47192   7.035  16.300  20.883 -0.1048 -0.0640  0.1882
 4140W        W47193   6.744  20.386  25.701 -0.2291 -0.0066 -0.2789
 4141W        W47194  23.983  21.430  18.701  0.0663  0.0333  0.3388
 4142W        W47195  12.458  20.649   6.863  0.0841 -0.0380  0.3881
 4143W        W47196  14.757   3.093   2.088 -0.0623 -0.2089  0.0367
 4144W        W47197   6.197  19.733  16.585  0.3546 -0.1145  0.0333
 4145W        W47198  18.448   9.871  10.136  0.2389 -0.1693 -0.0117
 4146W        W47199  13.169   7.554  17.404 -0.3338  0.3801  0.2533
 4147W        W47200  32.275  21.566  15.623  0.2421 -0.4471  0.0966
 4148W        W47201   6.739  12.133  16.573  0.1567  0.1113  0.1343
 4149W        W47202  26.725  21.906   4.109  0.5757 -0.2109  0.0277
 4150W        W47203   5.415  11.032  19.964 -0.2192 -0.1343 -0.0885
 4151W        W47204   8.100   9.913  21.849 -0.0954 -0.0763  0.0538
 4152W        W47205  28.504  32.020  15.712 -0.2738 -0.0666 -0.0456
 4153W        W47206  28.024   5.002  20.426  0.5483 -0.1738 -0.2490
 4154W        W47207  22.368  25.112  20.907  0.1448 -0.0612 -0.4643
 4155W        W47208  22.458  14.935   2.754 -0.0817 -0.0287 -0.0141
 4156W        W47209  11.747  22.173  13.335  0.0871  0.1052 -0.0548
 4157W        W47210   5.628   9.620   9.682 -0.2064  0.1326  0.0155
 4158W        W47211  23.543   0.262  21.189  0.1600  0.1320 -0.0305
 4159W        W47212   2.660  14.780  14.750 -0.0401  0.2089 -0.0920
 4160W        W47213   7.319   8.662  23.852  0.0107 -0.1830  0.0058
 4161W        W47214  25.470   8.652  22.388  0.0435  0.1810 -0.1982
 4162W        W47215   4.000   6.727  19.357  0.1745  0.0632 -0.1673
 4163W        W47216  23.804  23.103  18.770  0.1820 -0.6038  0.0798
 4164W        W47217  26.949  10.125  17.306  0.1089  0.0196 -0.5873
 4165W        W47218  21.178  31.615  15.776 -0.2593 -0.0713  0.2780
 4166W        W47219   0.201  20.150  17.286  0.0830  0.0315 -0.5318
 4167W        W47220  21.277  23.763  22.402 -0.0541 -0.3996 -0.1589
 4168W        W47221  28.487  29.179  21.331 -0.1118  0.1170  0.2335
 4169W        W47222  22.043  15.345  26.491 -0.2574 -0.0607 -0.2747
 4170W        W47223  19.295  13.728   8.298 -0.3456  0.0679 -0.2205
 4171W        W47224   8.946  22.087   2.336  0.0196  0.3011 -0.1028
 4172W        W47225  30.691  27.523  14.553 -0.0725 -0.0717 -0.1446
 4173W        W47226  20.234  10.461  15.989  0.1512  0.3830  0.2689
 4174W        W47227  23.701  26.832  20.930  0.0595  0.0053  0.3230
 4175W        W47228  30.916  31.221  15.355 -0.3457 -0.2599  0.0257
 4176W        W47229  10.490  15.117  10.343  0.2502 -0.0311 -0.0003
 4177W        W47230   6.210   9.690  23.401 -0.0749 -0.0073  0.1312
 4178W        W47231  26.158  16.996  27.220 -0.0087 -0.0151  0.2315
 4179W        W47232  21.780   9.218  21.313 -0.1137  0.0170  0.2009
 4180W        W47233  32.282  17.784  15.425 -0.0608  0.0483 -0.1595
 4181W        W47234  22.225  31.085  17.883  0.1544  0.1984 -0.0879
 4182W        W47235   2.778  15.759   4.430 -0.0965  0.0559 -0.2746
 4183W        W47236  23.358  23.287   6.997  0.0235  0.0050  0.3187
 4184W        W47237   3.622  24.544  23.420 -0.2344  0.3285  0.0373
 4185W        W47238  30.588   2.735  27.365  0.0111 -0.1753 -0.0562
 4186W        W47239  23.294  15.983  20.756  0.1091  0.0224  0.2277
 4187W        W47240  25.951   9.504  14.918  0.3208  0.1260 -0.1503
 4188W        W47241  19.989  10.366  17.866 -0.1678  0.1275 -0.1806
 4189W        W47242  11.117  32.248  27.801 -0.0006  0.0150  0.2761
 4190W        W47243  15.488   6.714  15.564 -0.3907  0.3040  0.2046
 4191W        W47244  30.286  14.678  24.213  0.3817 -0.2257  0.5920
 4192W        W47245  14.209   5.401  18.795  0.2313 -0.0067  0.3066
 4193W        W47246  25.788   9.139  15.232 -0.3333  0.1712  0.0581
 4194W        W47247  28.546  25.852  17.838 -0.1600  0.0962 -0.4179
 4195W        W47248  23.706  18.760  15.351 -0.0588  0.0832 -0.1895
 4196W        W47249   4.546  24.694   4.718  0.1594 -0.2581  0.0488
 4197W        W47250  28.664  28.961  17.931 -0.2719 -0.1139 -0.0395
 4198W        W47251   2.179  25.165  22.569 -0.0693 -0.0858  0.3646
 4199W        W47252   0.409   7.457  24.792  0.0880 -0.2699 -0.1677
 4200W        W47253  32.731  26.095   2.543 -0.1077 -0.3895 -0.0223
 4201W        W47254  13.258  22.002  16.141  0.0567 -0.1060  0.0277
 4202W        W47255  32.916   6.287  23.322 -0.1458  0.0450 -0.1853
 4203W        W47256  17.569   9.277  14.485 -0.1476 -0.0753  0.0054
 4204W        W47257   3.160   6.253  20.621 -0.0406 -0.0751 -0.1719
 4205W        W47258  33.490   6.089  21.292  0.2287  0.2221 -0.0569
 4206W        W47259  30.624  19.729  23.298  0.1878 -0.2720 -0.0012
 4207W        W47260  32.276   0.105   4.097 -0.0880  0.1195  0.0156
 4208W        W47261  26.185  16.363  25.570  0.0445  0.3051 -0.2548
 4209W        W47262  26.562  19.744  16.469 -0.3855 -0.0376  0.3931
 4210W        W47263  29.126  14.246  16.678  0.0713  0.2424 -0.1676
 4211W        W47264  14.552  16.834  23.469 -0.1296  0.0511  0.0203
 4212W        W47265  22.234  10.344  21.065 -0.0979 -0.2040 -0.1387
 4213W        W47266  34.442  18.336  27.853  0.0214 -0.1362  0.3084
 4214W        W47267  31.886  16.397  14.381 -0.0245 -0.0957  0.4526
 4215W        W47268  23.803  13.590  25.870  0.0117 -0.1511 -0.0983
 4216W        W47269  22.318  14.587  25.447 -0.2059 -0.3829  0.4187
 4217W        W47270  34.490  23.989  23.176  0.0084  0.1245 -0.0687
 4218W        W47271  25.419  13.099   2.289 -0.2292  0.0329  0.0354
 4219W        W47272  25.403  17.040   3.554 -0.0309  0.3342 -0.0578
 4220W        W47273  24.746  23.429  16.288  0.0720 -0.4008  0.1970
 4221W        W47274  22.020   1.299  22.880 -0.2444  0.1318 -0.0204
 4222W        W47275  14.468  15.286  16.487  0.0614  0.0735 -0.1923
 4223W        W47276  20.147  19.076  20.748 -0.2525 -0.1958 -0.2308
 4224W        W47277  24.480   5.025  18.288 -0.0225 -0.2593 -0.0247
 4225W        W47278  27.492  10.619  21.816  0.2574  0.1472 -0.1071
 4226W        W47279  20.403   2.380  25.852 -0.1028  0.2492  0.0088
 4227W        W47280   0.018   3.381  18.977  0.0669  0.2148  0.1883
 4228W        W47281  30.801  12.241  26.900 -0.0147 -0.1767 -0.0933
 4229W        W47282  21.992   1.234  28.592 -0.1043  0.3660 -0.0601
 4230W        W47283   3.312   3.309  10.074  0.0157 -0.1510 -0.0117
 4231W        W47284  11.432  14.092   4.459  0.4515 -0.4347  0.0314
 4232W        W47285   9.978  10.967  23.761 -0.1482  0.0643 -0.0379
 4233W        W47286   4.223  30.539   6.278 -0.1805 -0.1055 -0.2387
 4234W        W47287  16.570   7.862  18.680  0.1654 -0.2669  0.1268
 4235W        W47288   2.196  14.622  15.978  0.1046  0.2975  0.0357
 4236W        W47289  32.298  10.056  22.267 -0.2338  0.1555 -0.2394
 4237W        W47290  18.715  30.232  19.104 -0.0506 -0.0362  0.0015
 4238W        W47291  30.458  10.179  11.275 -0.2236 -0.1992 -0.0871
 4239W        W47292  23.235  18.368  20.363 -0.2986  0.1200 -0.1752
 4240W        W47293  16.872  22.680   7.527 -0.3609 -0.1830  0.1321
 4241W        W47294  32.624   9.609   9.251 -0.2557  0.0053  0.0484
 4242W        W47295  32.496  15.925   7.052  0.0632  0.1766  0.0341
 4243W        W47296  22.096   5.695   5.251 -0.1696 -0.0955 -0.0334
 4244W        W47297  32.504  18.673   3.837 -0.3112  0.0234  0.0703
 4245W        W47298  11.214   2.947  16.172  0.0184  0.1094 -0.1974
 4246W        W47299  25.596  33.356  21.376 -0.1644  0.0275 -0.0333
 4247W        W47300  23.923  13.672   1.740 -0.1252 -0.1111  0.1921
 4248W        W47301  28.024  10.929   0.715  0.1859  0.0119  0.2350
 4249W        W47302  25.168  20.045  21.811  0.1434  0.0194  0.1488
 4250W        W47303  31.057  30.257   9.242  0.0300 -0.4755  0.0284
 4251W        W47304  30.122  24.152   4.431  0.1001 -0.1360 -0.0558
 4252W        W47305   6.958  18.268  26.961 -0.1177 -0.0437 -0.2596
 4253W        W47306  18.371  24.711   0.788  0.0993  0.1552  0.0922
 4254W        W47307  22.501  21.394  13.826 -0.0498  0.2423  0.1174
 4255W        W47308   4.886  14.446  18.180  0.2619 -0.1234 -0.0004
 4256W        W47309   0.746  18.835   8.663 -0.0645 -0.4570 -0.0592
 4257W        W47310  30.700   4.856   4.523 -0.0854 -0.0200  0.3113
 4258W        W47311  20.641  11.097  26.332  0.0293  0.0513 -0.3202
 4259W        W47312  15.052  27.730  14.285 -0.0639  0.2515 -0.1603
 4260W        W47313  22.488  12.728  26.253  0.1564  0.1934  0.2681
 4261W        W47314   7.819  19.509   8.646 -0.2065 -0.3409 -0.0995
 4262W        W47315  17.217  33.748  22.771  0.0113 -0.2796 -0.2518
 4263W        W47316  29.002  27.517   0.453  0.3337 -0.0268  0.1135
 4264W        W47317  28.379   0.049   3.706  0.3269 -0.1944 -0.0700
 4265W        W47318  14.041   8.779   0.316 -0.1702 -0.2478  0.3523
 4266W        W47319  23.100  19.940  23.494  0.2619  0.0856 -0.0755
 4267W        W47320  32.544  11.654  18.164 -0.3474 -0.0770 -0.0328
 4268W        W47321  34.584  21.608  14.094  0.1483  0.2116  0.2182
 4269W        W47322  10.524  10.217  24.956  0.0026  0.1863  0.2437
 4270W        W47323  20.934  27.251   8.821  0.3019 -0.2183 -0.1623
 4271W        W47324   5.040   2.313  27.279 -0.1292  0.0178 -0.0444
 4272W        W47325  21.058  11.254   0.501 -0.0748 -0.0826  0.1273
 4273W        W47326  13.677  10.420   7.704 -0.2278  0.0379 -0.1304
 4274W        W47327   4.657  18.651  22.546  0.2011  0.2663  0.0392
 4275W        W47328  25.281   7.061  17.310 -0.0614  0.0328  0.1753
 4276W        W47329  26.704  13.293  16.247  0.2108 -0.1598  0.2493
 4277W        W47330  19.299   7.369  24.866 -0.0209  0.0820  0.1042
 4278W        W47331   1.003  23.343  22.086  0.1806 -0.1318  0.0039
 4279W        W47332   8.420  13.706  19.675 -0.0395 -0.1988 -0.0902
 4280W        W47333  17.325   7.055  25.795 -0.1510  0.0045 -0.1178
 4281W        W47334  31.012  28.690   0.628 -0.2895  0.2044 -0.0532
 4282W        W47335  16.438  15.854   1.644  0.0110  0.4318  0.2010
 4283W        W47336   5.970   5.476   4.440  0.2739 -0.0683 -0.0075
 4284W        W47337   3.462  15.017  18.244  0.0921 -0.0053  0.0691
 4285W        W47338  30.055   3.194  21.139  0.1622 -0.1395  0.1421
 4286W        W47339  34.003  17.122  27.122 -0.1739  0.0060  0.1183
 4287W        W47340  20.091  25.627  16.177 -0.1551 -0.3563  0.2287
 4288W        W47341  15.616  26.111  21.872 -0.0654 -0.0440 -0.0255
 4289W        W47342  28.933  21.984  18.939 -0.0909  0.0615 -0.0808
 4290W        W47343  16.014  24.253  16.033 -0.3802 -0.2404  0.1597
 4291W        W47344   9.832  21.939  14.274  0.2680  0.1193  0.2586
 4292W        W47345  19.904   6.834  15.827 -0.0977  0.0288 -0.3173
 4293W        W47346   5.575  30.909  19.422 -0.1303  0.3593  0.1554
 4294W        W47347  21.159  23.599  21.877  0.1525  0.0038 -0.1543
 4295W        W47348  17.956   5.508  19.253  0.0161 -0.0271 -0.1266
 4296W        W47349  21.103  10.744  24.802 -0.0159 -0.0671 -0.0135
 4297W        W47350  21.396   8.996  18.151 -0.1621  0.1307  0.2833
 4298W        W47351  34.300  22.221  20.301  0.2266 -0.1018 -0.3354
 4299W        W47352  32.107  32.236  28.281 -0.0006 -0.3266  0.1665
 4300W        W47353   0.205   0.831   0.532  0.0718  0.0091 -0.0937
 4301W        W47354  15.879  33.098  20.960 -0.2044 -0.1427 -0.1113
 4302W        W47355  33.024   1.486  28.302 -0.0703 -0.0036  0.3218
 4303W        W47356   3.218  20.772  25.591  0.2105 -0.0160  0.0471
 4304W        W47357  23.898  16.454  14.788  0.2130 -0.1015  0.1483
 4305W        W47358  27.129  22.788   7.799 -0.5478  0.0644 -0.1047
 4306W        W47359  28.812   8.794   4.568 -0.2354  0.0497  0.0560
 4307W        W47360  30.620  14.316  14.675  0.1223 -0.1110  0.0269
 4308W        W47361  21.713  11.991  22.527  0.3327 -0.1641 -0.0436
 4309W        W47362  15.532  16.643  19.596 -0.2256  0.1857  0.1001
 4310W        W47363  28.578  16.642  18.012  0.1454  0.2350 -0.3337
 4311W        W47364  31.785   4.467   1.795  0.1921 -0.0662  0.0916
 4312W        W47365  23.732  14.112  14.778  0.0314 -0.0943 -0.1770
 4313W        W47366  32.892  19.868   0.945  0.0736 -0.0268 -0.1833
 4314W        W47367   8.869  14.354  26.789  0.2457  0.0654 -0.0370
 4315W        W47368   9.838  31.322  19.884  0.0563  0.3289 -0.1729
 4316W        W47369  16.708  27.435  18.276 -0.1045  0.1046  0.2736
 4317W        W47370  21.415  17.199  14.939  0.1554 -0.1260 -0.0338
 4318W        W47371  23.814  17.730   3.489  0.0918 -0.2214 -0.2461
 4319W        W47372  22.614  16.759  15.362  0.0554 -0.1583  0.1500
 4320W        W47373  21.043   2.435  21.017  0.2413 -0.5169 -0.1302
 4321W        W47374  16.968  33.014  20.691 -0.0080 -0.0142  0.0493
 4322W        W47375  23.052  13.844  23.195  0.4039  0.0525  0.0205
 4323W        W47376  26.571   3.998   7.224 -0.0792 -0.1306 -0.1105
 4324W        W47377  10.705  13.298  27.509  0.0331  0.2208 -0.1527
 4325W        W47378  32.037  34.418  15.054 -0.1404 -0.1896  0.1183
 4326W        W47379  16.811   4.077  16.830 -0.0857 -0.0703  0.3797
 4327W        W47380  14.695   5.321  23.050 -0.2604 -0.1484  0.4962
 4328W        W47381  17.688  26.943  20.872 -0.0064  0.0604 -0.2070
 4329W        W47382  33.492   1.263  21.899 -0.1764 -0.0373 -0.1832
 4330W        W47383  19.544   8.677  16.565  0.2897 -0.1336  0.0571
 4331W        W47384  17.079  10.326  23.616  0.3559 -0.0996 -0.2517
 4332W        W47385  25.888  16.617  28.712  0.1806 -0.2399 -0.0223
 4333W        W47386  29.230   9.552   7.709 -0.2710  0.1727 -0.2610
 4334W        W47387  23.605  20.850  23.017 -0.1644 -0.0363 -0.1744
 4335W        W47388  14.230   1.712   1.518 -0.0681  0.1892 -0.1889
 4336W        W47389  23.813   4.924   0.253 -0.1872  0.1054 -0.2422
 4337W        W47390  30.829  15.909  24.691  0.1337  0.0402  0.0041
 4338W        W47391  10.220  12.233  26.365 -0.4685 -0.1354  0.2555
 4339W        W47392   9.499   3.931   3.213 -0.0267  0.0578  0.0609
 4340W        W47393  26.478   2.873  14.229 -0.0297 -0.4819  0.1363
 4341W        W47394  29.359  10.238  19.678  0.0499 -0.0018 -0.1165
 4342W        W47395  28.009  16.584  18.091  0.0191 -0.0750 -0.1036
 4343W        W47396  31.336  12.089  17.935  0.1100  0.0422  0.1709
 4344W        W47397  30.400   6.796   8.723 -0.1347 -0.4429  0.4562
 4345W        W47398  23.980  22.372  24.399  0.0901 -0.2631  0.1940
 4346W        W47399  10.804  13.511  22.860  0.0643  0.0513 -0.1308
 4347W        W47400  32.085  22.273  26.406  0.1257  0.2227  0.1270
 4348W        W47401  18.772   6.841  28.100  0.1646 -0.1816  0.0826
 4349W        W47402  22.931  18.679   2.648 -0.1542 -0.1256  0.0712
 4350W        W47403   3.591   7.758  27.571 -0.0483  0.0238  0.0322
 4351W        W47404  29.443   6.114   5.413  0.0478 -0.0313 -0.1506
 4352W        W47405   9.474   9.266   5.292  0.0036 -0.1368  0.0177
 4353W        W47406  23.910  32.681  16.460 -0.5215  0.3926  0.0770
 4354W        W47407  25.647  26.329  19.580  0.0411 -0.0535 -0.0092
 4355W        W47408  17.585  10.533   9.655  0.2071  0.1203 -0.0210
 4356W        W47409  23.997  14.533  13.616 -0.2004  0.1011 -0.1869
 4357W        W47410  29.868  11.896  15.677 -0.0069 -0.0490 -0.1851
 4358W        W47411  24.563  18.793  16.659  0.0758 -0.0503 -0.3314
 4359W        W47412  33.174  11.678  26.233  0.1687  0.1722  0.0485
 4360W        W47413  25.768  10.503  26.578 -0.1861 -0.0808  0.1024
 4361W        W47414  15.509  11.968   8.569 -0.3341  0.1793  0.0249
 4362W        W47415  33.876  21.565   5.453 -0.1503 -0.3034 -0.0670
 4363W        W47416  19.265  11.375  19.689  0.0904  0.0872 -0.0410
 4364W        W47417  25.422   8.281  14.722 -0.2423 -0.0165  0.2027
 4365W        W47418  20.553  23.295  17.471  0.5245  0.2781  0.0646
 4366W        W47419  13.489  16.148  24.950  0.5118 -0.3163 -0.1112
 4367W        W47420  13.618  11.575  24.979  0.0244 -0.0562  0.1844
 4368W        W47421  20.627  32.018  20.534  0.0620  0.1314 -0.1570
 4369W        W47422  19.293   7.877  17.651 -0.2761  0.1476  0.2497
 4370W        W47423  28.446  13.240  16.923 -0.1576 -0.0334  0.1500
 4371W        W47424  25.181  12.106  24.029 -0.2833 -0.4352 -0.4276
 4372W        W47425  20.415   6.791   0.269  0.0286 -0.1544 -0.0769
 4373W        W47426  16.459  12.417  19.346  0.0714 -0.0743 -0.0605
 4374W        W47427  16.030  16.752   0.742 -0.0684  0.2586  0.1811
 4375W        W47428   0.422   7.931  18.617 -0.2461  0.0817  0.0593
 4376W        W47429   4.907  17.114  20.566  0.2678  0.0446 -0.0267
 4377W        W47430  20.574  21.868  27.000  0.1424 -0.1220  0.0973
 4378W        W47431  32.966   8.562  19.458 -0.0441  0.0155 -0.3237
 4379W        W47432  31.222  15.535   3.434  0.2299 -0.0054 -0.0105
 4380W        W47433   4.310  28.608  27.627  0.1302  0.1500 -0.1897
 4381W        W47434  25.438  16.931  15.331 -0.0421  0.2196 -0.0691
 4382W        W47435  25.330  25.320  20.750  0.1830 -0.3127 -0.4099
 4383W        W47436  31.597  16.854  23.161 -0.1945  0.0954  0.0850
 4384W        W47437  14.255  13.506  20.906 -0.2036 -0.3664 -0.4462
 4385W        W47438  24.128   7.901  28.733  0.1705 -0.2493 -0.0033
 4386W        W47439  33.224  16.106  14.012 -0.0446  0.4254 -0.1548
 4387W        W47440  22.969  21.887   1.253  0.1530 -0.0890 -0.2130
 4388W        W47441  25.932   7.897  19.821 -0.2832 -0.0791 -0.1893
 4389W        W47442   7.462  18.331  24.387  0.2916  0.1423  0.0934
 4390W        W47443  20.957   6.797  27.506  0.2015  0.2130  0.0491
 4391W        W47444  13.770  23.190  21.358 -0.1877  0.1063 -0.0666
 4392W        W47445  21.256  18.165  18.894  0.0524  0.0519  0.2773
 4393W        W47446  33.769  11.310   5.414  0.1346 -0.0098  0.1087
 4394W        W47447  25.610   7.966  23.108  0.1581  0.0889  0.0259
 4395W        W47448  32.296  13.141  17.035 -0.0816 -0.1576  0.1416
 4396W        W47449  11.861  11.600  23.171 -0.0850  0.2938  0.0769
 4397W        W47450  33.389  16.589  17.079  0.0082  0.2053  0.5518
 4398W        W47451  28.162   5.448  18.875  0.1559  0.0299  0.4019
 4399W        W47452  20.799  16.150  13.826 -0.3272  0.1642 -0.1891
 4400W        W47453  26.951  25.091  26.376 -0.0861 -0.0098  0.0716
 4401W        W47454  23.777   7.038  22.432 -0.3018 -0.0799  0.0697
 4402W        W47455  31.580  22.742  23.518 -0.0469 -0.2105  0.0430
 4403W        W47456  33.268   3.058  18.279  0.0592 -0.0165  0.2443
 4404W        W47457  13.847  18.714  17.623 -0.2098 -0.2471 -0.3854
 4405W        W47458  23.470   5.260  17.259  0.1358  0.0461 -0.0211
 4406W        W47459  22.376  25.274   5.278 -0.0380  0.3366  0.2361
 4407W        W47460  33.657  10.818  13.936  0.3358 -0.0899 -0.0390
 4408W        W47461  32.180  22.564   2.702 -0.1447 -0.1046 -0.1109
 4409W        W47462  19.149  21.368  15.938  0.0586 -0.2050  0.2103
 4410W        W47463  11.372  10.819  16.212 -0.0876  0.3369 -0.4717
 4411W        W47464  31.021  15.847   7.355 -0.0081 -0.0375  0.1282
 4412W        W47465  23.570  17.491  17.877  0.1812 -0.1482  0.1476
 4413W        W47466  10.964  21.397  16.620 -0.2936  0.0630  0.1407
 4414W        W47467  16.948  15.193  25.180  0.0843 -0.1439  0.3282
 4415W        W47468  11.605  11.441  16.318 -0.1242  0.0307 -0.3848
 4416W        W47469  26.936  18.326  21.683 -0.0080  0.2102  0.1199
 4417W        W47470  27.426  17.381  17.207 -0.1966  0.2537 -0.3738
 4418W        W47471   9.427  11.931  17.450 -0.2544  0.0728 -0.1584
 4419W        W47472  17.690  22.635  14.186  0.1862  0.1551 -0.1015
 4420W        W47473  13.011  18.282   7.667  0.2159 -0.2612 -0.1901
 4421W        W47474  27.950  19.245   3.071  0.1979 -0.0377 -0.4878
 4422W        W47475  30.643  12.618  19.743  0.1766  0.0741 -0.3223
 4423W        W47476  31.044  19.295  23.369 -0.1590  0.0776 -0.0612
 4424W        W47477  13.781  22.595   9.371  0.1333 -0.0898 -0.3090
 4425W        W47478  17.971   8.927  18.711  0.2979 -0.1411  0.2551
 4426W        W47479   3.194  17.908  22.670 -0.2338  0.1373  0.0897
 4427W        W47480  14.083  20.523   1.387  0.0867 -0.1755  0.0615
 4428W        W47481  24.001   9.507  22.990  0.0684  0.2078  0.1137
 4429W        W47482  19.605   5.692  14.771  0.0564 -0.0005 -0.0831
 4430W        W47483  24.766  28.903   6.082  0.1431  0.2692  0.2936
 4431W        W47484   0.387  18.299  15.466 -0.0464 -0.1443  0.0508
 4432W        W47485  30.698  16.394  15.016  0.1732 -0.0519  0.0886
 4433W        W47486  10.636   0.040  17.409  0.1659 -0.0217 -0.3669
 4434W        W47487  26.034  19.299  22.954 -0.2799  0.0245 -0.1194
 4435W        W47488  12.890   0.037  25.040  0.1200  0.0258  0.0408
 4436W        W47489  25.059   7.237   5.297 -0.0897  0.0646 -0.0117
 4437W        W47490  29.933   8.810  18.403 -0.1014  0.4118 -0.0619
 4438W        W47491  31.002  25.093   3.280  0.2432  0.1138  0.0116
 4439W        W47492  34.227  21.133   4.469 -0.1709 -0.1148  0.3316
 4440W        W47493   5.248   9.746  21.587  0.2684 -0.0144  0.1519
 4441W        W47494  16.233  11.153   0.159  0.2131  0.2480  0.1508
 4442W        W47495  20.391   4.870  28.361  0.2217 -0.0341 -0.4614
 4443W        W47496  31.737   5.496   1.699 -0.1312  0.1810  0.1103
 4444W        W47497  29.904  11.901   3.034  0.0611 -0.3095 -0.1365
 4445W        W47498  13.028  18.621  18.101 -0.0421  0.3874 -0.0242
 4446W        W47499  29.717  29.566  17.049  0.2279  0.1822  0.1627
 4447W        W47500  28.484  17.016  15.154 -0.0212 -0.0026 -0.1666
 4448W        W47501  18.238  14.041   4.871  0.2183  0.0543  0.2952
 4449W        W47502  29.236   8.437   5.581  0.1215 -0.2179 -0.6156
 4450W        W47503  26.670  21.929  22.079 -0.2521 -0.0193 -0.2833
 4451W        W47504  18.989  19.039  13.149 -0.0257 -0.2009  0.1949
 4452W        W47505  32.429  22.711   9.632  0.3283  0.1793 -0.1471
 4453W        W47506  23.377   4.551  16.882  0.1782 -0.4960  0.1234
 4454W        W47507  16.871  11.568  19.751  0.0783  0.1927  0.1040
 4455W        W47508  12.876  21.244  18.937 -0.3708 -0.1297  0.1023
 4456W        W47509  33.555  19.235   1.480  0.1189  0.2044  0.3581
 4457W        W47510  19.041  21.981   0.015  0.0785  0.0912 -0.0188
 4458W        W47511  19.714  13.108  23.993  0.1403 -0.0739 -0.0026
 4459W        W47512  23.712  12.076  19.334 -0.0138 -0.4169 -0.2327
 4460W        W47513  30.726   4.444  18.237  0.1651 -0.0104  0.0139
 4461W        W47514  21.864  24.287  21.370 -0.0101 -0.1052 -0.1535
 4462W        W47515  24.910  22.362   0.813 -0.1462 -0.0524 -0.0645
 4463W        W47516  20.264   4.991   0.713 -0.1542  0.0361  0.0714
 4464W        W47517  34.191  34.652  24.782 -0.1602 -0.0135 -0.2073
 4465W        W47518  27.068  21.937  18.292 -0.0381 -0.1425  0.1530
 4466W        W47519  19.282   1.191  21.826 -0.1950 -0.0674 -0.3106
 4467W        W47520  25.336  10.809  17.157 -0.2498 -0.4495  0.0624
 4468W        W47521  32.300  13.790  24.319 -0.1900 -0.0425 -0.2644
 4469W        W47522  22.563  12.399   0.294 -0.2974 -0.1857  0.1815
 4470W        W47523  18.533  26.656  28.977 -0.0749  0.1135 -0.2129
 4471W        W47524   2.133  24.677   7.742  0.1384 -0.3598 -0.1769
 4472W        W47525  21.317  20.401   5.078  0.0181  0.0980 -0.1581
 4473W        W47526   4.217   6.200  16.116 -0.3515 -0.4604 -0.1685
 4474W        W47527  24.875  27.396  14.516  0.4594 -0.1327 -0.1606
 4475W        W47528  27.661  17.845  13.752 -0.3154 -0.1412  0.0722
 4476W        W47529  20.312  19.265   8.188  0.2719 -0.1526  0.0909
 4477W        W47530  25.102  32.033  23.334 -0.0534 -0.0964  0.0612
 4478W        W47531  21.152  17.434  16.269 -0.0735 -0.4497 -0.2956
 4479W        W47532  25.520  23.238  17.489  0.0233  0.3323 -0.3801
 4480W        W47533  25.494  14.887  26.264 -0.2039 -0.4181 -0.0083
 4481W        W47534   0.577  15.830  28.738  0.2854 -0.1219 -0.2612
 4482W        W47535  19.198   9.402  10.233  0.1759  0.2490  0.0937
 4483W        W47536  15.345  10.337  22.027 -0.1104 -0.1678 -0.5352
 4484W        W47537  26.930   2.246   7.400  0.0390 -0.2866 -0.0959
 4485W        W47538  30.233  30.569  26.470 -0.0576 -0.1999  0.0540
 4486W        W47539   6.027  14.985  27.611 -0.0189 -0.0247 -0.1374
 4487W        W47540   2.262  32.149  25.552 -0.0252 -0.3383 -0.1569
 4488W        W47541  27.330  20.299  15.497 -0.3665 -0.3471  0.0725
 4489W        W47542  17.992   3.919  17.810 -0.0705 -0.2783 -0.0787
 4490W        W47543  23.546   5.026  18.071  0.3490  0.0976 -0.2491
 4491W        W47544   2.184  15.822  19.301  0.2342  0.1182 -0.3130
 4492W        W47545  16.634   7.241  25.801 -0.2585  0.0070  0.2452
 4493W        W47546  13.420  10.894  28.938  0.2016  0.1541 -0.0208
 4494W        W47547  25.817  18.332  28.961 -0.2928  0.2059 -0.0726
 4495W        W47548   5.810  23.696  21.033  0.0925  0.1263  0.0711
 4496W        W47549  19.623  19.567   3.920 -0.0604  0.4286  0.0003
 4497W        W47550  13.645  14.366  18.727  0.0598  0.1468 -0.3899
 4498W        W47551   9.241  17.010  27.437  0.0187 -0.0336  0.0883
 4499W        W47552  30.140  22.963  26.245  0.2051  0.0062 -0.4078
 4500W        W47553  14.348  32.988  19.483 -0.1071 -0.0355  0.2507
 4501W        W47554  24.535  31.954  14.453  0.0789 -0.1608 -0.2209
 4502W        W47555  18.510  13.492  15.278 -0.2256 -0.4918  0.0914
 4503W        W47556  34.454   8.158  18.568  0.1528  0.0704  0.0232
 4504W        W47557   1.501   5.643  22.509  0.0458  0.1421 -0.2447
 4505W        W47558  28.187   2.365   5.513  0.1033  0.2595 -0.2019
 4506W        W47559  20.020   3.994  25.582  0.3140 -0.0115 -0.0919
 4507W        W47560  32.865  32.174  14.045  0.2073  0.2398  0.5556
 4508W        W47561   1.583  22.717  21.198 -0.1532  0.1682  0.1538
 4509W        W47562  34.133  15.913   6.570 -0.2065 -0.0636 -0.0772
 4510W        W47563  28.202  23.929   0.416  0.2894  0.0617 -0.0542
 4511W        W47564  24.473  12.102  17.572  0.1594  0.0928 -0.1873
 4512W        W47565  22.066  26.732  27.802  0.0435 -0.0079 -0.1621
 4513W        W47566  31.544  11.988  17.191 -0.0297 -0.1316 -0.0726
 4514W        W47567  30.086  14.852  17.035 -0.0525  0.0765 -0.4144
 4515W        W47568  29.817   2.552   0.591 -0.3856 -0.0190  0.0190
 4516W        W47569  33.218  17.473  25.072  0.0943  0.2577  0.2126
 4517W        W47570  29.055  25.955   2.443 -0.1308 -0.1691 -0.0623
 4518W        W47571  18.102   4.618  24.966  0.0191  0.0772  0.0955
 4519W        W47572  32.806  14.822  22.918  0.3263  0.1215 -0.1281
 4520W        W47573  19.757   3.371  25.004 -0.0752 -0.4173 -0.0365
 4521W        W47574  20.910  14.605  15.607 -0.1582  0.0426  0.0250
 4522W        W47575  18.441   8.999   4.254 -0.0641  0.0226  0.1860
 4523W        W47576  21.613   3.182  22.993  0.2253  0.0801 -0.2772
 4524W        W47577   2.724   6.291  28.312  0.3826  0.0683 -0.2661
 4525W        W47578  20.579   9.040   5.219 -0.0076 -0.1524  0.2750
 4526W        W47579  14.020  33.025  18.981 -0.2495  0.1390  0.2954
 4527W        W47580  18.892  30.305  15.230 -0.1676  0.0431  0.2103
 4528W        W47581  25.783  12.962   7.794  0.3036  0.2745  0.2497
 4529W        W47582  26.315   6.872   7.232  0.2216  0.1480  0.2425
 4530W        W47583  28.449  11.500  14.516 -0.1133  0.0522  0.0488
 4531W        W47584  25.472  31.885   5.611  0.1315  0.0355  0.0671
 4532W        W47585  27.690   3.255  15.717 -0.1669  0.0989 -0.0216
 4533W        W47586  31.909  13.992  24.991  0.0004 -0.2787 -0.2437
 4534W        W47587  33.065   3.108  21.329  0.2572  0.3038 -0.3594
 4535W        W47588  32.447   9.524   2.399 -0.5212 -0.0362  0.0343
 4536W        W47589   9.363  26.903   0.530  0.1511 -0.1203  0.0744
 4537W        W47590  22.261   5.124  19.464 -0.0739 -0.0793 -0.1211
 4538W        W47591  14.902  19.059   5.904 -0.4792 -0.3329 -0.2551
 4539W        W47592   7.174  18.786  22.122 -0.2109  0.0396 -0.2092
 4540W        W47593  26.112  11.298  15.170 -0.1162  0.0347 -0.1867
 4541W        W47594  29.972  15.899  20.694  0.3078  0.2581  0.0716
 4542W        W47595   1.080   0.123  18.094  0.2801  0.2085 -0.0545
 4543W        W47596  33.642  18.736  20.072  0.1344  0.0373 -0.2237
 4544W        W47597  12.826  22.854  28.830  0.1025 -0.1868 -0.1878
 4545W        W47598   7.328  32.806  26.929 -0.0966 -0.0229  0.3194
 4546W        W47599  24.329  10.054  26.175  0.0377 -0.0439 -0.1236
 4547W        W47600  26.861   7.900  24.762  0.0045 -0.1433 -0.3171
 4548W        W47601  29.645  10.953  22.804 -0.3356 -0.1645 -0.1297
 4549W        W47602  15.149  23.105   9.619 -0.0047 -0.2094  0.1278
 4550W        W47603   9.135  16.639  22.984 -0.0653 -0.1269 -0.2530
 4551W        W47604   3.445  21.045  26.063 -0.2552 -0.1176  0.2495
 4552W        W47605  13.258   7.127  22.461  0.1568 -0.0962  0.0808
 4553W        W47606  15.457   8.442  26.891 -0.0947 -0.0371 -0.1097
 4554W        W47607  19.647  21.466  16.253  0.0264 -0.4308  0.0748
 4555W        W47608   9.233   8.504  20.237  0.2144  0.3389  0.0111
 4556W        W47609  15.816  32.571   5.492  0.1753  0.1823 -0.3571
 4557W        W47610   5.179  18.169  15.562 -0.2886 -0.0440  0.0819
 4558W        W47611  17.173  25.657  22.137 -0.1892  0.0979  0.4468
 4559W        W47612  28.765  22.648  18.267  0.1430 -0.3309 -0.1867
 4560W        W47613  16.576   2.299   2.514 -0.0480  0.1286  0.3803
 4561W        W47614  27.277  13.026   5.114  0.0854  0.2013 -0.1378
 4562W        W47615  15.672   7.694  15.806  0.2807 -0.2583  0.3077
 4563W        W47616   6.056   3.454   5.323  0.1641  0.1661 -0.0690
 4564W        W47617  25.586  20.592  19.128  0.1156 -0.0902 -0.2518
 4565W        W47618  20.257   8.884  27.733 -0.2793  0.2560  0.1211
 4566W        W47619  23.259   9.654  26.726 -0.1379 -0.1079 -0.0201
 4567W        W47620  18.102  23.822  21.960 -0.2818  0.1674  0.2483
 4568W        W47621  12.549  25.176  15.329 -0.0898  0.0402  0.2675
 4569W        W47622  23.791   8.817  18.807 -0.0118 -0.0258  0.2490
 4570W        W47623  16.905   3.378  15.654  0.0426 -0.2913 -0.1356
 4571W        W47624  11.056  29.916  16.169 -0.0160  0.0204  0.2202
 4572W        W47625  22.451  20.404  23.323 -0.1204 -0.2834 -0.0907
 4573W        W47626   5.166  16.131  22.275  0.2709  0.1063 -0.3029
 4574W        W47627   0.002   5.866  26.633 -0.1427  0.0096 -0.1716
 4575W        W47628   0.500  23.728   8.311 -0.0195 -0.3537  0.0083
 4576W        W47629  30.959  23.764  20.660 -0.0422 -0.0978 -0.0716
 4577W        W47630  25.070  14.400   2.835 -0.3059  0.0881  0.0625
 4578W        W47631   7.727  23.573  26.830  0.1896 -0.3089  0.1600
 4579W        W47632  26.001  22.996  22.517 -0.0463  0.1736  0.1161
 4580W        W47633  32.408  23.332   3.850 -0.1530  0.1137  0.1227
 4581W        W47634  34.453  20.819   7.209 -0.2710 -0.2233 -0.1217
 4582W        W47635   2.750  24.754  13.305 -0.1045  0.1223 -0.2916
 4583W        W47636  17.501   8.456   3.354  0.0109 -0.1659  0.1626
 4584W        W47637  25.695  23.834   2.122 -0.0537 -0.3256 -0.0360
 4585W        W47638  28.589  14.736   3.105  0.1212 -0.2703 -0.1535
 4586W        W47639  10.245  14.967  21.887 -0.1443  0.0301 -0.0501
 4587W        W47640  14.664  21.661   1.819 -0.1995  0.0380  0.1982
 4588W        W47641  22.064   9.880  24.138 -0.2660  0.1244  0.1920
 4589W        W47642  26.853  24.383   3.428 -0.1600 -0.5187 -0.2302
 4590W        W47643   6.583  24.622  19.189  0.4252 -0.2628 -0.4085
 4591W        W47644  31.857  16.178  16.686  0.0602  0.1903  0.0129
 4592W        W47645  22.813  30.254  21.112  0.1261  0.0434 -0.1108
 4593W        W47646  22.274   1.011   1.520  0.0805 -0.1640  0.2643
 4594W        W47647  17.962  14.634   2.275 -0.1459  0.1490 -0.3758
 4595W        W47648  26.571  31.169   2.161  0.1942 -0.2762 -0.1563
 4596W        W47649   2.358  26.485  24.009  0.1571 -0.1350  0.2396
 4597W        W47650  24.517   6.105  27.549 -0.1810  0.0435  0.0195
 4598W        W47651  34.340  31.202   3.815  0.0331  0.1549 -0.3043
 4599W        W47652  28.454  13.192  26.125 -0.4047  0.1744  0.2630
 4600W        W47653  30.203  11.528  19.365 -0.2133  0.2352  0.1669
 4601W        W47654  21.359  18.066   1.665 -0.0516 -0.1379 -0.0089
 4602W        W47655   0.099  21.709   3.929  0.1729  0.0145 -0.0111
 4603W        W47656  34.622   6.588   6.782 -0.0273  0.1920 -0.2399
 4604W        W47657  29.351  11.772  10.330 -0.0137  0.1202  0.1473
 4605W        W47658  23.468   7.456   6.696 -0.3176  0.3770  0.4192
 4606W        W47659  25.945  13.064  23.301 -0.1530 -0.1331  0.2975
 4607W        W47660  21.114  19.240   1.754  0.2661 -0.1441  0.2510
 4608W        W47661   4.166  15.353  17.500  0.0648  0.3517  0.0780
 4609W        W47662  25.222  12.632  14.352  0.0559  0.0701  0.2250
 4610W        W47663  17.076  27.603  20.453 -0.1663  0.1527  0.0649
 4611W        W47664  31.877  19.709  26.942  0.0292 -0.1382 -0.0263
 4612W        W47665  20.533  21.908   9.263  0.2463  0.1680 -0.1802
 4613W        W47666  25.444  14.459   1.602  0.0107 -0.3100 -0.0966
 4614W        W47667  17.567  12.727  27.536  0.2149 -0.3633  0.0627
 4615W        W47668  26.638  30.812   3.081  0.0336 -0.1219 -0.1267
 4616W        W47669  23.837  27.143   3.338 -0.4274  0.1655 -0.3750
 4617W        W47670  10.260  18.298  25.355  0.2618 -0.1977 -0.2356
 4618W        W47671  26.809  25.651  22.004 -0.0693  0.2457  0.1794
 4619W        W47672  26.064  18.126  18.358  0.0835 -0.1442 -0.1203
 4620W        W47673  19.835  22.944  28.667 -0.2746  0.1211  0.2271
 4621W        W47674  19.828   4.271   6.532  0.1156 -0.0635  0.1044
 4622W        W47675  27.117   7.591  21.112  0.4712  0.1519 -0.0622
 4623W        W47676  29.124  17.780  18.618  0.2906  0.0167  0.2036
 4624W        W47677  25.459  14.451  19.845 -0.0402  0.0483  0.3364
 4625W        W47678  15.420  17.263   7.668  0.0121  0.1263 -0.1925
 4626W        W47679  22.648   4.708  13.988 -0.0180  0.0296 -0.3335
 4627W        W47680  28.488  13.996  17.445 -0.1001 -0.0003  0.0841
 4628W        W47681  27.231  23.605   4.111 -0.2689 -0.1459  0.1372
 4629W        W47682  29.738  22.271   0.182  0.3256  0.1317 -0.1815
 4630W        W47683  27.391  32.820  28.884  0.2015  0.0451 -0.1221
 4631W        W47684  22.667   6.516  14.370 -0.0862 -0.3853 -0.1127
 4632W        W47685  15.800  18.933  27.524 -0.0898  0.3171  0.2453
 4633W        W47686   1.200  15.899  19.313  0.2640  0.2428 -0.1764
 4634W        W47687  26.501  18.919  26.191 -0.2525 -0.1290  0.6655
 4635W        W47688  23.451  13.719   8.942  0.1030 -0.0582  0.0100
 4636W        W47689  25.454   4.493   9.906  0.0505  0.2700  0.1181
 4637W        W47690  26.052  14.188   5.830  0.4819  0.1635 -0.0115
 4638W        W47691   7.697  32.537  14.072  0.0880 -0.0452 -0.1164
 4639W        W47692  17.256   5.535  22.160  0.0276  0.4055 -0.0309
 4640W        W47693  32.437  25.360  16.831  0.0078 -0.1658 -0.0745
 4641W        W47694  23.291   2.616  24.706 -0.2297 -0.2862  0.0798
 4642W        W47695  22.508  26.515  10.832  0.0517 -0.3413 -0.2099
 4643W        W47696  15.960   4.019  15.644 -0.0754  0.1894 -0.3069
 4644W        W47697  33.606  20.812   6.587 -0.0280  0.0559  0.1565
 4645W        W47698  23.409  10.993  25.952  0.1928  0.1085 -0.1904
 4646W        W47699  22.253   5.409   3.353 -0.3335  0.0004 -0.1945
 4647W        W47700   4.623  16.665  25.501  0.1079  0.1855 -0.1517
 4648W        W47701  23.889   5.346   2.417 -0.1909  0.2613  0.0698
 4649W        W47702  10.636   9.655   5.525 -0.1326 -0.1602  0.1170
 4650W        W47703  26.161  14.992  13.402  0.0637 -0.0767  0.0272
 4651W        W47704  15.255  11.348  28.294  0.3276  0.2853 -0.0942
 4652W        W47705  28.210  16.467  14.909 -0.1526 -0.0037  0.0012
 4653W        W47706  22.219  13.538  16.068  0.0824  0.0710 -0.5249
 4654W        W47707  33.992  11.853  22.188  0.2482  0.3404  0.0490
 4655W        W47708  20.594   3.550  18.608  0.1863  0.1112  0.0484
 4656W        W47709  20.507  15.419   4.945 -0.0683 -0.0015  0.0873
 4657W        W47710  26.782   2.164  13.635 -0.0743 -0.0299  0.0731
 4658W        W47711  22.077   8.051  26.781 -0.1436 -0.0686 -0.2967
 4659W        W47712  24.206  15.528  21.405 -0.1796  0.1882 -0.1231
 4660W        W47713  28.554   3.610   4.841 -0.1056  0.0337  0.2378
 4661W        W47714  29.476  22.299   1.343 -0.2134  0.1330 -0.3114
 4662W        W47715  27.003  15.647  27.806  0.3213  0.1863  0.2133
 4663W        W47716   7.317   7.853   7.884  0.0354  0.0646  0.0487
 4664W        W47717  24.212  18.241  21.511 -0.2133  0.2653 -0.4902
 4665W        W47718  25.075   8.447   6.097 -0.2175  0.1235 -0.0023
 4666W        W47719  25.263   3.573   4.857  0.0411  0.2376  0.1672
 4667W        W47720  20.522   8.898  18.626  0.0144  0.1399  0.2028
 4668W        W47721  26.622  14.690   9.176 -0.1927  0.1163 -0.0655
 4669W        W47722  10.360  10.085   7.273  0.0066  0.1111 -0.1110
 4670W        W47723  25.450  20.440   3.394 -0.2342  0.0078 -0.3014
 4671W        W47724   2.431  23.549  25.003  0.1808 -0.2385 -0.0754
 4672W        W47725  16.601   4.067   2.014 -0.0049 -0.1066  0.0883
 4673W        W47726  15.511   8.544   6.291  0.2100  0.0146 -0.1118
 4674W        W47727  21.319   3.734  28.982 -0.1278  0.3633 -0.0437
 4675W        W47728  30.675  33.554   2.604 -0.2113 -0.1671 -0.1234
 4676W        W47729  19.685   1.470  14.724  0.1334 -0.0796  0.1910
 4677W        W47730   1.922   2.132  22.057  0.0240  0.0436 -0.2503
 4678W        W47731   8.004   2.888  28.703 -0.2147  0.1421  0.0464
 4679W        W47732  15.129  17.969   2.819 -0.2029  0.0256  0.0325
 4680W        W47733  21.230  26.680  10.982 -0.3295  0.1787 -0.3306
 4681W        W47734  24.781   9.761   3.223  0.0444  0.2727  0.2462
 4682W        W47735  21.042  21.611  13.856 -0.1838  0.1265  0.0463
 4683W        W47736  33.298   3.816  14.398 -0.0627 -0.0017  0.2026
 4684W        W47737   4.946  13.837   0.311 -0.1484 -0.0283 -0.1060
 4685W        W47738  21.688  17.231   8.997 -0.0269 -0.2898  0.3154
 4686W        W47739  10.798  19.379  23.863  0.2524  0.1612 -0.2027
 4687W        W47740  30.468  18.347   0.395  0.1923 -0.2041  0.0726
 4688W        W47741  21.620  14.284   3.987  0.3056  0.3088  0.0448
 4689W        W47742  28.814   6.721  27.497  0.0500  0.3046  0.2230
 4690W        W47743   8.791   0.083  28.263 -0.0692 -0.3950 -0.0460
 4691W        W47744   7.464  12.976  22.413 -0.0430  0.0900 -0.1588
 4692W        W47745  27.016  26.209  28.087 -0.2728  0.1607  0.2598
 4693W        W47746  22.205  11.297   5.367  0.0570 -0.0410  0.1267
 4694W        W47747   0.320  16.397   6.064 -0.0693 -0.4668  0.0409
 4695W        W47748  11.882  14.769  17.518  0.1747 -0.1201  0.1404
 4696W        W47749  15.250  11.542  20.203  0.3160  0.3620  0.1689
 4697W        W47750  28.056  10.663  21.496  0.0773 -0.0151  0.1623
 4698W        W47751  28.864  16.913   1.847 -0.1571  0.2998 -0.0216
 4699W        W47752  15.878   6.651  15.275 -0.0940  0.0956  0.1221
 4700W        W47753  16.146   0.606  27.412  0.1534  0.3756  0.1637
 4701W        W47754   9.902  20.533   4.264 -0.0288  0.1638  0.1077
 4702W        W47755  26.969   6.252  26.666  0.1568 -0.0474 -0.3953
 4703W        W47756   9.966  29.016  19.618 -0.2033 -0.3298  0.1554
 4704W        W47757  31.692   0.184  18.258  0.0219 -0.1013 -0.2893
 4705W        W47758  16.285   8.323   4.873 -0.4322 -0.0816 -0.0378
 4706W        W47759  24.036  25.260   5.827 -0.1854 -0.2267 -0.0104
 4707W        W47760  10.777   6.096  19.886 -0.1768  0.1843  0.1437
 4708W        W47761  18.098   9.789  28.296  0.5130  0.2348 -0.1710
 4709W        W47762  31.006   5.679   9.118 -0.0764 -0.0722 -0.3720
 4710W        W47763  30.460  14.375  27.822  0.0639  0.1679  0.0429
 4711W        W47764  14.163  19.346   1.628  0.1240 -0.0699 -0.0005
 4712W        W47765  32.148  15.736   6.168  0.0563  0.0476  0.2587
 4713W        W47766  24.563   8.803  18.839 -0.1679 -0.1108  0.0815
 4714W        W47767  25.039  13.450  17.888 -0.0378  0.3223  0.1648
 4715W        W47768  32.268  11.678  22.467  0.4669  0.1886  0.1420
 4716W        W47769   8.569  22.874  24.226  0.1169 -0.0880  0.2744
 4717W        W47770  20.511  33.692   0.953  0.0594 -0.0796  0.1869
 4718W        W47771  32.277  21.865   0.702 -0.1289 -0.1031 -0.2975
 4719W        W47772  24.322  26.204  22.530 -0.1633  0.1626  0.1854
 4720W        W47773  21.867   9.683  23.224  0.1746  0.0482  0.2522
 4721W        W47774  16.020   2.205  28.802 -0.1115 -0.0225  0.4266
 4722W        W47775  33.391  17.858   1.023  0.1271 -0.1300  0.0284
 4723W        W47776  14.797   4.189   8.141  0.0279  0.1368 -0.0572
 4724W        W47777  15.752   9.073   0.544  0.1901 -0.0310 -0.1682
 4725W        W47778  23.821   9.607   3.647 -0.2054  0.0553  0.0271
 4726W        W47779   0.670  14.751   4.630  0.0068  0.0529  0.0733
 4727W        W47780  33.740  13.857   2.507 -0.0781  0.1893 -0.1984
 4728W        W47781  13.125  24.979  27.276 -0.1136 -0.0385 -0.1691
 4729W        W47782  22.839  19.229  26.747 -0.1011  0.2534 -0.2906
 4730W        W47783  19.046  31.002  23.910 -0.1367 -0.1876 -0.1634
 4731W        W47784   7.528   4.914  24.480 -0.0520  0.0892  0.2773
 4732W        W47785  23.024  20.747   2.758 -0.2366  0.0790  0.2895
 4733W        W47786  19.353  23.102  26.282  0.0728 -0.2031  0.0696
 4734W        W47787  17.570   2.809  10.141 -0.2638 -0.1111 -0.2231
 4735W        W47788  19.529   9.728   3.522 -0.3025 -0.1237 -0.0842
 4736W        W47789  18.417   6.122   6.587 -0.0411 -0.1352  0.0010
 4737W        W47790  25.281   8.014   4.560  0.0339  0.2266 -0.0284
 4738W        W47791  19.446  23.061  24.355 -0.3023 -0.1740  0.1632
 4739W        W47792  24.151   8.551  25.025  0.0960  0.1194 -0.0840
 4740W        W47793   0.177  17.191  15.804 -0.4328  0.3666 -0.1392
 4741W        W47794   7.146  12.165   9.978  0.0082  0.2388 -0.0052
 4742W        W47795  19.263  26.900   3.310  0.3494 -0.3667 -0.0008
 4743W        W47796  14.247   4.228  28.882  0.1601  0.0443 -0.0290
 4744W        W47797  20.729  32.745   5.014  0.0140  0.3221  0.0115
 4745W        W47798  24.866  10.168   9.896 -0.0634  0.0549  0.1050
 4746W        W47799  24.192  14.729  23.213  0.0864 -0.0560 -0.0787
 4747W        W47800  18.593  24.419  17.167  0.1035 -0.2773 -0.0708
 4748W        W47801  25.603  31.168  27.059  0.1084 -0.0736 -0.1624
 4749W        W47802  32.744  29.566   0.641 -0.0071  0.1135 -0.1230
 4750W        W47803  15.856  27.603   5.997  0.0155  0.3001  0.0683
 4751W        W47804  26.251  25.094   0.625 -0.2109 -0.2478 -0.0361
 4752W        W47805  33.142   3.507   6.800 -0.2358  0.6062 -0.1574
 4753W        W47806  31.485   8.015  18.662  0.2985  0.0265 -0.0552
 4754W        W47807  32.467   7.677  21.557  0.1155 -0.2106 -0.1566
 4755W        W47808   5.180  27.785  15.673 -0.0208  0.1103 -0.2391
 4756W        W47809   6.065  10.495  22.172 -0.1294 -0.0292 -0.0308
 4757W        W47810  30.422   1.631  16.014  0.1002  0.3304  0.2766
 4758W        W47811  10.308   8.436   0.751 -0.3020  0.1284 -0.1060
 4759W        W47812  14.506  17.525  16.272  0.2453 -0.1601  0.0755
 4760W        W47813   8.937  13.817  20.564  0.0473 -0.1544  0.1273
 4761W        W47814  27.326  32.358   0.476  0.0810 -0.2711 -0.0637
 4762W        W47815  25.512  10.956   7.406 -0.0801 -0.0910 -0.1726
 4763W        W47816   5.553  15.605   7.710  0.0818  0.2270 -0.0429
 4764W        W47817  10.638  16.407   6.062  0.1619  0.0403  0.0071
 4765W        W47818  26.644  25.815   5.782 -0.1106  0.0732 -0.2000
 4766W        W47819  25.001   8.827  19.174 -0.0062 -0.1344 -0.2763
 4767W        W47820   1.891  18.669  10.080 -0.0228 -0.0606 -0.0310
 4768W        W47821  27.862   4.859  22.105  0.1380 -0.0132 -0.0069
 4769W        W47822   4.119   9.339   6.145 -0.0697  0.0317  0.3231
 4770W        W47823  20.801  12.512  16.373 -0.1325 -0.0299 -0.1797
 4771W        W47824  10.394  15.925  24.306 -0.1859 -0.0165  0.1312
 4772W        W47825  21.782  32.316   3.291  0.2066  0.1782  0.2061
 4773W        W47826   4.415  17.187   1.327  0.1120 -0.0262 -0.2510
 4774W        W47827  28.962   8.406   6.830  0.2689 -0.1462  0.0073
 4775W        W47828  26.149  13.290  16.944  0.1987  0.1100  0.1308
 4776W        W47829  25.484  21.405  24.699  0.2102 -0.0160 -0.0332
 4777W        W47830  31.531   3.821  24.783  0.1897  0.0800  0.0090
 4778W        W47831  32.966  26.712  18.825  0.2253  0.3409 -0.0758
 4779W        W47832  33.527  10.918  21.370  0.2130  0.0941  0.0987
 4780W        W47833  15.938   5.225  22.393  0.0210 -0.3430 -0.1743
 4781W        W47834  33.681  15.454  14.836 -0.2698 -0.1861 -0.1610
 4782W        W47835  28.929   6.192   2.743  0.0290  0.0506 -0.3596
 4783W        W47836  29.538   7.204   9.247 -0.1566 -0.0645 -0.2531
 4784W        W47837  22.898  17.229  29.042 -0.1502  0.1425  0.0288
 4785W        W47838  20.753  12.616  25.941  0.1310 -0.0294  0.1595
 4786W        W47839  31.021  27.006  20.823 -0.0574  0.3504  0.1532
 4787W        W47840  32.925   8.179  18.793  0.0020 -0.1085 -0.1256
 4788W        W47841  29.047  15.046  24.374  0.1438  0.2653 -0.1788
 4789W        W47842  22.684  22.462  27.401  0.3320 -0.0786  0.1557
 4790W        W47843  25.983  20.051   7.365 -0.0822 -0.0489 -0.1350
 4791W        W47844  28.044  18.715  23.877  0.0090 -0.0260 -0.0834
 4792W        W47845  31.561   6.225   8.370  0.0906 -0.0890  0.0622
 4793W        W47846  18.772  31.293   4.485 -0.1504  0.0788 -0.2465
 4794W        W47847  33.670  17.559  23.345  0.0327 -0.0675 -0.3602
 4795W        W47848  23.169   4.439  14.657 -0.0802  0.0977 -0.0312
 4796W        W47849   3.266  31.817  24.795  0.1023  0.1327 -0.1902
 4797W        W47850  23.397  22.368   6.070 -0.1763 -0.2257  0.0903
 4798W        W47851  27.236  24.032  21.558 -0.0774  0.2866 -0.1306
 4799W        W47852  28.941   4.837  25.815 -0.2824  0.1125 -0.1016
 4800W        W47853   8.170   6.520  27.666 -0.2203 -0.0695  0.0692
 4801W        W47854   9.391  11.766  10.316 -0.1276  0.1543 -0.3528
 4802W        W47855  27.253   9.767  23.850  0.0333  0.3100 -0.0131
 4803W        W47856  23.581  32.580  19.670 -0.0697  0.1006 -0.0038
 4804W        W47857  25.215  24.417  20.292 -0.0045  0.1600  0.2756
 4805W        W47858  27.383  12.236   5.702 -0.1381  0.0065  0.0219
 4806W        W47859  20.472  17.880  24.807  0.1940 -0.0052  0.1013
 4807W        W47860  28.724   1.000  10.648  0.0683  0.0659 -0.0065
 4808W        W47861  24.007  17.451  26.932 -0.0507  0.0343  0.0696
 4809W        W47862   8.858  13.020   3.780 -0.1265 -0.2477  0.3662
 4810W        W47863  12.959  12.269   1.827 -0.0713 -0.0959 -0.0781
 4811W        W47864  20.165  21.955  25.632  0.3105 -0.0378  0.1281
 4812W        W47865  29.155  34.656  17.450  0.0242  0.0159  0.0001
 4813W        W47866  24.837  18.135  18.316  0.1239 -0.0143  0.0421
 4814W        W47867  26.747  19.156   1.855 -0.2276 -0.0238 -0.2093
 4815W        W47868  29.203   2.255   6.472  0.1167  0.3327  0.3036
 4816W        W47869  20.670  34.283  28.465  0.1072  0.1920  0.1764
 4817W        W47870  22.987  17.928  26.270 -0.0339 -0.0155  0.0910
 4818W        W47871  12.593  10.575  23.226  0.0012 -0.0474 -0.2354
 4819W        W47872  34.351  18.596   2.576 -0.1861  0.1512  0.1309
 4820W        W47873  16.425   6.852  25.336 -0.1197 -0.0582 -0.2972
 4821W        W47874  20.314   3.165   9.175  0.1253  0.1725 -0.0073
 4822W        W47875   1.022  33.350  17.478  0.1868  0.1466 -0.1485
 4823W        W47876  29.824   0.550   7.711 -0.4521  0.1437 -0.0705
 4824W        W47877  21.828   9.877  28.496 -0.1246  0.0946 -0.0395
 4825W        W47878  17.841  22.076  17.002 -0.0328  0.0506 -0.0638
 4826W        W47879  21.443  31.592  22.463  0.3178 -0.1793 -0.0047
 4827W        W47880  27.618  18.406  14.285 -0.1033  0.1746  0.0657
 4828W        W47881   9.147   0.252  10.050 -0.1412 -0.2710 -0.1993
 4829W        W47882   9.819  10.032  27.667 -0.0405  0.1110 -0.0385
 4830W        W47883  28.999  31.048  20.237  0.0531  0.1502  0.0088
 4831W        W47884  15.001  18.391   4.814  0.2496  0.0786 -0.1047
 4832W        W47885  11.578   5.236  22.890 -0.0259  0.1468 -0.1696
 4833W        W47886  27.482  19.083  24.406  0.0434  0.1343 -0.1011
 4834W        W47887  24.372   7.554  29.091 -0.1671 -0.0323  0.1504
 4835W        W47888   0.254   7.319  23.369  0.1046 -0.0238 -0.0331
 4836W        W47889  16.402  25.959  14.571  0.1924  0.0598 -0.1066
 4837W        W47890  20.856  18.012   5.521 -0.0126  0.0379 -0.0102
 4838W        W47891  16.921  34.633  25.294 -0.5508  0.0299  0.2611
 4839W        W47892  10.843   4.605   4.636  0.2123 -0.0478 -0.1030
 4840W        W47893   8.198  16.843  21.643  0.2138 -0.0055 -0.0207
 4841W        W47894  11.113  29.359  19.641  0.1558  0.0113 -0.0579
 4842W        W47895  16.890  12.850   3.355  0.0708 -0.0445  0.1943
 4843W        W47896  21.709  18.873  18.657 -0.0681  0.0799  0.1027
 4844W        W47897  24.338   9.339   4.881 -0.3307  0.2632 -0.1797
 4845W        W47898  12.229   4.874  23.374 -0.0603  0.0112  0.2267
 4846W        W47899  27.580   0.962  25.875  0.0490 -0.1371 -0.2172
 4847W        W47900   1.800   1.351   1.485 -0.1116 -0.1207  0.1021
 4848W        W47901   1.044  24.261  22.570 -0.0150 -0.2427  0.0705
 4849W        W47902  30.231   5.577  16.483 -0.3671  0.1699  0.0597
 4850W        W47903  18.821  25.614  25.442 -0.1893  0.0542 -0.0063
 4851W        W47904  14.449   7.755   8.855  0.0974  0.0013  0.2730
 4852W        W47905  29.931   7.489   1.950  0.1552  0.2953 -0.0361
 4853W        W47906  29.700  12.118  23.271 -0.2963 -0.1819  0.2363
 4854W        W47907   3.406   6.736  24.750 -0.4407  0.1189  0.0475
 4855W        W47908  26.924  29.543   6.804  0.0511  0.2979  0.1251
 4856W        W47909  31.797  13.222  19.636 -0.0972  0.1970  0.1194
 4857W        W47910  13.470  22.175   0.140  0.1540 -0.0367  0.1766
 4858W        W47911  23.650   2.180   8.692 -0.2351 -0.1507  0.0354
 4859W        W47912  22.422  19.452  24.433  0.3072 -0.0456 -0.1474
 4860W        W47913  21.467   4.532  21.129 -0.1816  0.1090 -0.2006
 4861W        W47914  20.451  34.220   4.605 -0.5839 -0.3664 -0.0203
 4862W        W47915  31.348  13.844   2.513 -0.2388 -0.1945 -0.0541
 4863W        W47916  13.815  21.961   8.209 -0.3038 -0.2422 -0.1110
 4864W        W47917  15.493  11.966   1.511  0.2514  0.1023  0.0081
 4865W        W47918  21.395   4.609  23.433  0.1640 -0.1728 -0.1270
 4866W        W47919  20.459   7.819  27.879 -0.0523 -0.0794  0.0649
 4867W        W47920  20.029  14.479   4.606 -0.1061 -0.2071  0.2013
 4868W        W47921  29.762  26.026   1.802  0.2248 -0.1197  0.0540
 4869W        W47922  16.639  28.732  22.534  0.0030 -0.0613 -0.0381
 4870W        W47923   1.311   4.434  25.818 -0.1349 -0.2962 -0.0934
 4871W        W47924  11.568   2.042   6.659  0.0390 -0.0601 -0.4547
 4872W        W47925  27.997   7.821   7.105 -0.0873  0.0073 -0.1864
 4873W        W47926  22.516  21.397  27.921  0.2926 -0.1199  0.2790
 4874W        W47927  29.685  22.308   8.698 -0.2988 -0.0317 -0.0748
 4875W        W47928  19.172  22.903  27.953  0.0732  0.0977  0.0196
 4876W        W47929  33.196  19.362  22.401  0.0998 -0.1973  0.1634
 4877W        W47930  32.984  22.033   1.531  0.0439 -0.0494 -0.1742
 4878W        W47931   2.675  12.039  21.619  0.4895  0.2454 -0.0277
 4879W        W47932  24.439   4.963   5.526 -0.0566 -0.1010  0.1457
 4880W        W47933  13.319  11.412   7.120  0.2967  0.0412  0.6454
 4881W        W47934  27.519  12.705  10.274 -0.0146 -0.1903  0.3028
 4882W        W47935  34.509  11.841   4.935  0.3351  0.1376  0.2686
 4883W        W47936  16.330  13.710  22.316  0.2117 -0.1506 -0.1417
 4884W        W47937  25.557  18.034   8.680  0.0303 -0.0682  0.1142
 4885W        W47938  26.936   1.440   6.952  0.0445  0.1485 -0.3534
 4886W        W47939  18.965  18.979  26.228  0.0220 -0.2785 -0.0315
 4887W        W47940  34.145  23.511  14.457  0.1148 -0.0300 -0.2484
 4888W        W47941  23.371   3.819   8.058  0.0117  0.2556 -0.0075
 4889W        W47942  17.560   2.199  16.336 -0.1434 -0.1140  0.0859
 4890W        W47943  21.568  30.128  14.751  0.0685  0.1378 -0.1430
 4891W        W47944  27.666  19.006  16.200  0.1088 -0.0294  0.2577
 4892W        W47945  22.666  24.555   1.237 -0.2550 -0.1079  0.0638
 4893W        W47946  17.853  27.658   8.454 -0.1173  0.0044  0.3172
 4894W        W47947  11.383  32.634  23.173 -0.0820 -0.2747  0.0372
 4895W        W47948  30.978   8.477  16.110  0.0840  0.0674  0.1474
 4896W        W47949  23.921  14.247  28.047  0.1165 -0.1192  0.1092
 4897W        W47950  23.667  28.979  28.638 -0.1029  0.0989  0.0523
 4898W        W47951  26.522   8.254  14.654  0.0688  0.0791  0.4444
 4899W        W47952  12.378  14.843  19.319  0.0261  0.3560  0.0933
 4900W        W47953   9.293  19.304  25.659  0.0703  0.0863 -0.2402
 4901W        W47954  34.151  33.965   9.389 -0.1008 -0.3051 -0.1880
 4902W        W47955  27.234  15.567   1.681  0.3361 -0.2559  0.0105
 4903W        W47956   6.794   9.937  18.757  0.0034  0.1518 -0.1401
 4904W        W47957  15.663   3.265   9.818  0.1020 -0.0755 -0.1746
 4905W        W47958  24.547  22.105  22.753  0.3538  0.1856  0.0503
 4906W        W47959  18.551  19.102   0.967  0.3553  0.0185 -0.1149
 4907W        W47960  10.074  16.471  15.930 -0.0544  0.0791 -0.0842
 4908W        W47961   9.267  20.300   9.388 -0.1327 -0.3296 -0.0661
 4909W        W47962  13.114  29.048   0.871  0.0238 -0.0660  0.0697
 4910W        W47963  23.695  16.448  28.789  0.1827 -0.0046  0.1929
 4911W        W47964   1.988   3.033   8.330  0.0301  0.0301  0.1949
 4912W        W47965  28.902   7.555  20.709  0.0491  0.2145  0.1540
 4913W        W47966  20.140  13.165  23.721  0.1719  0.0589  0.2803
 4914W        W47967  25.242  12.279  19.827  0.1775 -0.1994 -0.4079
 4915W        W47968  25.051   7.995  15.524  0.1964 -0.1853  0.4822
 4916W        W47969  13.102   5.615   1.451 -0.4209 -0.1138  0.2339
 4917W        W47970  24.099  30.298   7.536 -0.1243  0.1614 -0.0992
 4918W        W47971  23.286  17.116   9.713 -0.1470 -0.2403 -0.1651
 4919W        W47972  28.450  17.243   9.653 -0.1928  0.2362 -0.0984
 4920W        W47973  27.784   6.359   9.872 -0.2203 -0.2985  0.3710
 4921W        W47974  21.235  29.519  26.249  0.0079 -0.1121 -0.3420
 4922W        W47975  27.191  28.330   2.301  0.3231 -0.0545 -0.2969
 4923W        W47976  13.796  26.637   1.157  0.1467 -0.3449  0.0526
 4924W        W47977  29.694  16.424   0.174 -0.0551 -0.2451 -0.3870
 4925W        W47978  10.984  12.736  16.386  0.0667  0.0095  0.1539
 4926W        W47979  18.113  11.927  15.438 -0.0392 -0.0806 -0.1549
 4927W        W47980  16.009  13.351  29.110 -0.3862  0.1286 -0.1666
 4928W        W47981  30.661  11.649  19.690  0.0472 -0.0324  0.1486
 4929W        W47982  12.186   2.204   4.264  0.0640  0.0462 -0.3003
 4930W        W47983  22.173   4.192  23.707  0.2777  0.1590 -0.0910
 4931W        W47984  24.452   6.709   6.607  0.2401 -0.1064 -0.2271
 4932W        W47985   2.981  13.456  14.909 -0.2753 -0.4237 -0.0126
 4933W        W47986  32.272  20.037  23.831 -0.0652 -0.3600  0.3263
 4934W        W47987   7.698   0.970   8.343  0.1249 -0.0089 -0.0005
 4935W        W47988  10.142  34.151  24.776 -0.2018 -0.3078 -0.0360
 4936W        W47989  25.731  25.027  21.695  0.4142  0.1005 -0.0144
 4937W        W47990  14.237   9.376  20.531 -0.5978  0.0859 -0.3567
 4938W        W47991  21.811   3.000  27.460 -0.0971 -0.2660  0.2920
 4939W        W47992  25.884  30.195  22.667  0.0227  0.0130  0.0136
 4940W        W47993   6.764  18.247  26.096 -0.3203  0.1383 -0.0974
 4941W        W47994   7.265  25.962  28.304 -0.0263  0.1444  0.0769
 4942W        W47995   2.650   9.643   4.382 -0.0550 -0.0427 -0.1549
 4943W        W47996  22.962  14.689  22.823 -0.0999 -0.1258 -0.3012
 4944W        W47997  19.674  32.681   5.348 -0.1727 -0.0060 -0.1879
 4945W        W47998  25.396  12.567  17.050  0.2895 -0.0912 -0.0779
 4946W        W47999   5.719  15.227   4.493  0.0959  0.0294  0.2397
 4947W        W48000  32.023   2.800   1.430  0.1139  0.2944  0.2325
 4948W        W48001  32.514  17.376   2.666  0.1430  0.2511  0.0266
 4949W        W48002  29.883  22.312  21.322 -0.1321  0.0234  0.0508
 4950W        W48003  32.362  23.323  15.758  0.2535  0.1133  0.0001
 4951W        W48004  19.488  15.351  23.920  0.4076  0.1173  0.1535
 4952W        W48005  13.030  12.777  24.623  0.2966 -0.2393 -0.2129
 4953W        W48006  16.374  28.624   4.044  0.4021  0.4840  0.0675
 4954W        W48007  14.851  12.643  16.624  0.0482 -0.1199  0.1200
 4955W        W48008  21.691   5.352  24.532 -0.1428  0.0314 -0.0646
 4956W        W48009   6.938  31.132  15.290  0.0143  0.0570  0.0148
 4957W        W48010  12.665  27.784   0.463  0.0269  0.0042 -0.0125
 4958W        W48011  23.225  11.819  14.399  0.0959  0.2195 -0.2177
 4959W        W48012   7.156  13.734   4.421  0.0636 -0.2188  0.3878
 4960W        W48013  23.748  28.372  20.285  0.1273 -0.0842  0.0814
 4961W        W48014  15.042   5.157   7.420  0.1271  0.0831 -0.0934
 4962W        W48015  34.259   1.011   5.852  0.3050  0.0116 -0.0551
 4963W        W48016  19.853  11.439  17.390 -0.1927 -0.0328 -0.1208
 4964W        W48017  29.327   5.283   9.347 -0.1431  0.0674  0.0465
 4965W        W48018  21.673   4.142  18.242 -0.1121 -0.2186 -0.0560
 4966W        W48019  24.204   2.927   6.652 -0.1457  0.1020 -0.2334
 4967W        W48020  18.115  22.913   6.613  0.4470 -0.0347 -0.0451
 4968W        W48021   0.724  15.366  14.954 -0.1484 -0.1169 -0.0893
 4969W        W48022  13.306   6.802   7.645 -0.0222 -0.0764 -0.0518
 4970W        W48023  21.110  14.880  23.319 -0.1995 -0.2159  0.0277
 4971W        W48024  20.853   7.500  28.701 -0.0820 -0.4568 -0.0366
 4972W        W48025  25.820  31.802  16.009 -0.0023 -0.1199  0.0572
 4973W        W48026  24.696  24.063   1.574 -0.0550  0.0216  0.0439
 4974W        W48027  24.133  23.490  25.201  0.0595  0.2213  0.0507
 4975W        W48028  34.312  21.391   5.451 -0.1780 -0.0475 -0.0315
 4976W        W48029  16.169   6.548   0.622  0.2325  0.1966  0.0724
 4977W        W48030  24.164  29.930  22.900  0.1295  0.2633  0.2184
 4978W        W48031  13.802  18.933  26.006 -0.1651 -0.0690 -0.1296
 4979W        W48032  11.693  18.677  26.417 -0.1119 -0.1644 -0.3992
 4980W        W48033  21.560  27.559   8.891 -0.0538  0.2502  0.0106
 4981W        W48034  26.708   3.111  28.084  0.0433  0.1121  0.0684
 4982W        W48035   1.341  28.434  19.219 -0.2760  0.2048  0.2222
 4983W        W48036  18.565   1.811   7.061 -0.2937  0.1257  0.0267
 4984W        W48037  21.670  14.062   4.892  0.1638 -0.1347 -0.0713
 4985W        W48038  25.721  10.695   2.671 -0.0442  0.0357  0.1235
 4986W        W48039  23.307  27.688  19.379 -0.0371 -0.0009  0.0767
 4987W        W48040  19.146   8.053  28.214 -0.1145 -0.2585  0.2213
 4988W        W48041   9.020   9.523  27.355 -0.0120 -0.0495  0.1539
 4989W        W48042  22.327  16.403  22.919  0.3034 -0.0200 -0.2158
 4990W        W48043  26.888   4.236  26.990 -0.1101  0.3066 -0.3292
 4991W        W48044  32.725  13.949   1.727  0.0355  0.2750 -0.2110
 4992W        W48045  27.530   3.580   2.560 -0.3174  0.2173  0.1064
 4993W        W48046   0.146  13.799  22.440 -0.2261  0.0617 -0.0208
 4994W        W48047  20.389   2.441   7.218  0.0901 -0.1305  0.2913
 4995W        W48048  16.855   8.540  20.682  0.2529  0.2583 -0.1248
 4996W        W48049  31.032  11.931   2.895  0.0262 -0.0601  0.0073
 4997W        W48050  23.696  17.227   9.488  0.0439  0.0274  0.0148
 4998W        W48051  27.186  11.238   4.756 -0.0907  0.0349 -0.2363
 4999W        W48052  16.506  22.175  17.941 -0.1392  0.0730  0.1030
 5000W        W48053   5.754  15.786  27.867 -0.0553  0.0267 -0.0954
 5001W        W48054  21.821  11.965   6.019  0.0646  0.0926  0.0787
 5002W        W48055  27.615  11.511  23.083 -0.1509 -0.3272 -0.0481
 5003W        W48056  33.431  15.720  21.587  0.2011  0.1305  0.1151
 5004W        W48057  25.070  14.186   1.347 -0.0419  0.0276  0.2605
 5005W        W48058  24.762  10.481  22.247 -0.1368  0.0526 -0.1090
 5006W        W48059  21.640  20.577   0.270 -0.0671  0.3646 -0.0472
 5007W        W48060  10.682  31.681  24.092  0.1853 -0.0473  0.4860
 5008W        W48061   9.782  19.490  16.776 -0.2056  0.0874  0.0823
 5009W        W48062  16.311  28.990   7.613 -0.0427 -0.1318  0.4413
 5010W        W48063  17.047   3.330  20.449  0.0912 -0.2751 -0.0502
 5011W        W48064  20.600  17.503   8.161 -0.2941 -0.0943  0.0860
 5012W        W48065   1.075  25.357  29.191 -0.1663 -0.3121 -0.1185
 5013W        W48066  17.837   6.906   8.096  0.2435  0.1409  0.0084
 5014W        W48067  24.880  27.227   6.203 -0.0670  0.1050 -0.0063
 5015W        W48068  33.770  33.674  24.632  0.3273  0.0963  0.2055
 5016W        W48069  20.984   7.078  28.958 -0.0537  0.0838  0.0924
 5017W        W48070  27.961   9.976   7.735 -0.1068 -0.0926 -0.0933
 5018W        W48071  20.939   8.616   2.442  0.1238 -0.3261  0.0566
 5019W        W48072   1.515  12.968   5.283 -0.1811 -0.0358  0.0160
 5020W        W48073  18.421  12.608   4.730 -0.3301  0.3654  0.2536
 5021W        W48074  33.645  22.203   0.806 -0.1871 -0.2469 -0.2419
 5022W        W48075  23.606   7.108  21.934  0.2416 -0.3078  0.0061
 5023W        W48076   4.816  32.241   5.324 -0.2657  0.0876  0.1430
 5024W        W48077  28.006  14.205  28.917 -0.2553 -0.2927  0.3044
 5025W        W48078  13.554   6.658   9.510 -0.3366  0.1248  0.0018
 5026W        W48079  30.047  14.529  21.160 -0.1854  0.2756  0.4658
 5027W        W48080  12.074  13.117  24.264  0.3000 -0.2089 -0.0383
 5028W        W48081  20.434  25.965  23.075 -0.0746 -0.4143 -0.3635
 5029W        W48082   6.160  21.187  15.315 -0.0546  0.0520 -0.0168
 5030W        W48083  23.842   3.453  15.097  0.0685  0.0351  0.1580
 5031W        W48084   5.227  23.483   7.487 -0.1582 -0.0407  0.0347
 5032W        W48085  10.921   8.913  20.126  0.2471 -0.0625  0.0123
 5033W        W48086  20.796   6.332   8.593 -0.0039 -0.0046  0.0356
 5034W        W48087  23.825   7.614  26.203  0.1085  0.2157 -0.1079
 5035W        W48088  32.833  27.913  20.660  0.1289  0.0388 -0.1948
 5036W        W48089  23.935  33.810   3.173 -0.2928 -0.3332  0.1471
 5037W        W48090   1.329  27.762  27.598 -0.0781  0.2399 -0.2104
 5038W        W48091  17.868  11.443   6.406  0.2989  0.0404 -0.4123
 5039W        W48092  21.219  28.315  10.427 -0.1563 -0.1105  0.0859
 5040W        W48093  25.898   9.065   1.092 -0.1356  0.0130 -0.3187
 5041W        W48094  23.771  32.006   9.417  0.2220  0.2414  0.1942
 5042W        W48095  12.510  12.768  21.882  0.0382 -0.0232  0.2328
 5043W        W48096  22.657  15.642  25.281  0.2941 -0.1835 -0.1310
 5044W        W48097  10.852   5.128  19.290 -0.0706 -0.1506 -0.1002
 5045W        W48098  33.607  15.383  15.794 -0.2603 -0.2325  0.0726
 5046W        W48099  27.771  20.600  19.065  0.0584 -0.1868 -0.4376
 5047W        W48100  26.477  16.053  13.375  0.1092 -0.2415 -0.0691
 5048W        W48101  21.376  19.016  20.322 -0.0703  0.0484  0.3868
 5049W        W48102  25.661  12.847  16.644  0.1406 -0.2496 -0.0028
 5050W        W48103  31.306  11.147  22.192 -0.1707  0.2021  0.1878
 5051W        W48104  19.169  16.315  15.528 -0.2160 -0.1584 -0.0196
 5052W        W48105  32.786  13.174   4.431 -0.1731 -0.1181  0.3246
 5053W        W48106  11.788   1.899  22.669 -0.0964  0.2029 -0.0650
 5054W        W48107  31.640  11.489  22.474  0.1201  0.1328 -0.1089
 5055W        W48108  29.486   8.136  14.857 -0.0407  0.2780  0.0400
 5056W        W48109  27.431   8.238  16.081 -0.0364  0.0438 -0.0822
 5057W        W48110   8.164  20.409  17.562  0.0011  0.2095 -0.1184
 5058W        W48111  31.534  16.110  15.079 -0.1519  0.1692 -0.0428
 5059W        W48112  21.643  22.400  22.640  0.0078  0.1104 -0.0511
 5060W        W48113   3.765  26.824  28.337 -0.0692 -0.1094 -0.1173
 5061W        W48114  14.660  12.612   5.699  0.3541 -0.0537  0.0908
 5062W        W48115   2.939  23.778  20.814  0.0157 -0.0403  0.2415
 5063W        W48116  32.516  23.213  24.717 -0.0143  0.1048 -0.1906
 5064W        W48117  17.370  22.201  19.842  0.0685  0.1993  0.0524
 5065W        W48118  19.908  25.819  17.571 -0.0011  0.0304  0.1428
 5066W        W48119  25.713  11.047  17.322 -0.2646  0.3174 -0.3400
 5067W        W48120  20.390  14.820  13.627 -0.2780 -0.1559  0.1769
 5068W        W48121  20.522   0.339  14.768  0.0854 -0.0590  0.0014
 5069W        W48122  12.472  19.046   5.687 -0.4449 -0.0352 -0.3207
 5070W        W48123   5.128   9.551  14.219  0.2643 -0.0231 -0.1173
 5071W        W48124  11.337   6.352  17.607  0.1625 -0.3603 -0.1945
 5072W        W48125  24.724  27.485  22.481 -0.0121  0.1687  0.0656
 5073W        W48126  31.973  13.775  18.450  0.0151 -0.0097 -0.1375
 5074W        W48127  27.655  19.137  19.630 -0.2081  0.2493 -0.1280
 5075W        W48128  31.454  27.278  22.154 -0.0346 -0.0250 -0.0398
 5076W        W48129  20.045  19.338  22.797 -0.0550  0.1244 -0.1555
 5077W        W48130  32.368  27.321  19.642 -0.1127  0.1296 -0.1920
 5078W        W48131  26.385  17.389  22.021 -0.1025 -0.2508  0.0103
 5079W        W48132  22.635  20.400  21.332 -0.2417 -0.0399 -0.1165
 5080W        W48133  23.171  16.736  14.099 -0.2998  0.3765  0.0430
 5081W        W48134  10.891   5.565  17.683 -0.2519 -0.0067 -0.1585
 5082W        W48135  19.247  13.320  15.957  0.1809  0.0839 -0.1582
 5083W        W48136  14.890   9.432  20.467  0.0342  0.2378 -0.2864
 5084W        W48137  32.544  25.384  20.910  0.0341  0.0174 -0.0623
 5085W        W48138  27.131  16.349  20.946  0.0120  0.1403  0.2412
 5086W        W48139   0.019  22.277  26.506 -0.0680 -0.1843 -0.0604
 5087W        W48140  23.552   8.757   0.285  0.1713 -0.2644 -0.0062
 5088W        W48141  28.043  22.478  19.118 -0.1041  0.0916 -0.1085
 5089W        W48142  18.295   9.893  19.057 -0.0978  0.0104 -0.2243
 5090W        W48143   7.621   7.312  23.933  0.0888  0.1317 -0.1075
 5091W        W48144  31.610  14.231  22.354  0.0867 -0.0196  0.0830
 5092W        W48145  34.529  15.346  26.434  0.0095  0.0186  0.0142
 5093W        W48146  16.094  11.410  22.928 -0.0745  0.0936  0.0196
 5094W        W48147  22.528  17.908  20.185  0.1110 -0.3109  0.1858
 5095W        W48148  13.319   6.617  20.274 -0.0391  0.0623  0.2640
 5096W        W48149  17.772   7.940   1.522 -0.0910 -0.1076  0.0348
 5097W        W48150  29.123  27.107   7.668  0.1265 -0.0564 -0.0289
 5098W        W48151  31.056  21.920  14.049  0.1876  0.1040  0.0713
 5099W        W48152  12.075   9.230  15.368  0.0954 -0.1349  0.0422
 5100W        W48153   3.042  12.018   2.761 -0.2800 -0.0861 -0.2435
 5101W        W48154   1.093  19.365  14.149 -0.1301  0.2109 -0.0903
 5102W        W48155  17.593   0.547  19.609  0.2036  0.0208 -0.4134
 5103W        W48156  13.447   6.887  20.696  0.0003 -0.0648  0.2747
 5104W        W48157  24.250  23.510  25.723  0.1019  0.1699  0.0123
 5105W        W48158  16.551   7.443  17.780 -0.1308  0.0564  0.1633
 5106W        W48159  27.378  16.633  17.722 -0.2671 -0.4618 -0.0566
 5107W        W48160  10.837  23.583  15.415  0.3084  0.0053 -0.2365
 5108W        W48161  13.648   0.868  20.158  0.0714 -0.1185  0.2629
 5109W        W48162   3.084  12.558   4.990 -0.5126  0.0892 -0.1257
 5110W        W48163   2.517  10.148  23.673 -0.1131  0.2120  0.2168
 5111W        W48164   2.181  18.707  16.213  0.0334  0.1289 -0.2262
 5112W        W48165   0.410  31.772  19.778 -0.1971  0.4316  0.0573
 5113W        W48166  29.920  28.682  25.978  0.1631  0.0488 -0.0070
 5114W        W48167  27.154  16.282  16.835  0.1489 -0.0957 -0.0326
 5115W        W48168  12.636  18.024  24.589  0.1618  0.0916  0.0227
 5116W        W48169  31.892  24.687  23.447 -0.0188 -0.3716 -0.1801
 5117W        W48170   2.195  24.174  14.988 -0.0801  0.4297  0.3103
 5118W        W48171  31.342   4.495  22.236 -0.2832  0.1350  0.2051
 5119W        W48172   5.258  14.233  14.957  0.0792  0.0453 -0.0089
 5120W        W48173   4.593   4.582  23.366 -0.0853  0.2431 -0.1402
 5121W        W48174  29.242   3.737  20.863 -0.0168  0.1832 -0.0260
 5122W        W48175   1.224   6.424  28.955  0.1641 -0.1425  0.2081
 5123W        W48176  22.685  10.055  19.851 -0.0303 -0.0561  0.1872
 5124W        W48177  11.597  10.737   1.497  0.1997  0.0075  0.0190
 5125W        W48178  12.509  21.709  27.625 -0.1314 -0.2106  0.0542
 5126W        W48179  29.629  21.048  27.185  0.3683 -0.2212  0.1307
 5127W        W48180  34.452   6.325   9.595 -0.1047 -0.2421  0.0846
 5128W        W48181  22.130  17.610  20.498  0.2082  0.3410  0.1057
 5129W        W48182  21.061  11.253  19.511  0.0433 -0.1751 -0.1893
 5130W        W48183  27.165  11.746   2.807  0.0986 -0.0544  0.2030
 5131W        W48184   1.431   6.414  27.932 -0.3830  0.1202 -0.0247
 5132W        W48185  24.553  11.411  20.624  0.0577  0.0135  0.0081
 5133W        W48186  32.040  13.111  15.310  0.0216  0.1868  0.0614
 5134W        W48187  23.787  15.304  27.053  0.1654 -0.0040  0.0685
 5135W        W48188  31.342  17.037  15.438 -0.0575  0.0545  0.2683
 5136W        W48189  28.702  11.642  19.421  0.2678 -0.0273 -0.2652
 5137W        W48190  18.105  10.399  17.673  0.1831 -0.0155  0.0067
 5138W        W48191  24.446   8.084  24.846 -0.0652  0.1949  0.2881
 5139W        W48192  26.995  13.628  14.128  0.2214 -0.0657  0.1993
 5140W        W48193  12.922  11.389  18.257  0.0322 -0.0209 -0.1105
 5141W        W48194  14.468   8.472  15.555 -0.0826 -0.1289 -0.1933
 5142W        W48195  23.143   7.766  25.489  0.2230 -0.1353 -0.4684
 5143W        W48196   4.937   4.429  17.256  0.0038  0.0869 -0.1529
 5144W        W48197  31.619  21.325  28.720 -0.2361  0.2327  0.0345
 5145W        W48198  34.297  22.295   5.587  0.1521  0.1523  0.2436
 5146W        W48199  24.651  21.174  17.355 -0.2703 -0.1250  0.1758
 5147W        W48200  11.153  24.973  23.912 -0.0465 -0.5601 -0.1503
 5148W        W48201  30.673  10.044  15.516  0.1300 -0.2212  0.3414
 5149W        W48202  22.886  18.356  18.467  0.2323 -0.2299 -0.4255
 5150W        W48203  23.064   6.466  18.300  0.1005 -0.1110 -0.0045
 5151W        W48204  11.654  13.869  22.659 -0.2605 -0.2033 -0.2377
 5152W        W48205  29.618  13.389  15.482 -0.3035  0.1091 -0.0581
 5153W        W48206  29.667  30.104  26.041 -0.0460 -0.1193 -0.4675
 5154W        W48207   6.773  15.883  18.333  0.1354  0.1292  0.0498
 5155W        W48208  15.740   3.100  20.077 -0.2290 -0.3843  0.0857
 5156W        W48209  29.475  24.829  21.510  0.2933 -0.0689 -0.3789
 5157W        W48210  22.686  22.487  15.894 -0.1681 -0.1508 -0.1479
 5158W        W48211  34.173  10.170  25.033 -0.0020 -0.0692  0.1888
 5159W        W48212  21.190   2.227   0.868  0.3422  0.0330  0.0097
 5160W        W48213  22.320   2.233   6.208  0.0587  0.0381  0.1305
 5161W        W48214  28.812   0.183  15.690  0.4509 -0.0049 -0.0531
 5162W        W48215  23.195  12.949  15.522 -0.0462 -0.2438  0.1143
 5163W        W48216   9.662  19.337  23.440  0.1733  0.1327  0.2026
 5164W        W48217  24.527  30.315  22.738  0.3983 -0.2139  0.2372
 5165W        W48218  14.894  23.481  16.688  0.1948  0.4339  0.1990
 5166W        W48219  16.175   6.143  20.934  0.1994 -0.0506  0.3983
 5167W        W48220  33.619  28.134  15.665  0.2212 -0.1483  0.0217
 5168W        W48221  12.461  19.934  16.436  0.3375 -0.0177 -0.1877
 5169W        W48222   2.410   3.692  24.435 -0.1040 -0.0192  0.0510
 5170W        W48223  20.975  16.148  25.058 -0.0071 -0.1700  0.1706
 5171W        W48224  31.805   3.205   0.303  0.2185 -0.0148 -0.0327
 5172W        W48225  10.999  12.503  16.851 -0.2025 -0.1269 -0.3432
 5173W        W48226  25.613  23.559  15.809 -0.0307 -0.1433 -0.0858
 5174W        W48227  27.587   0.902  17.204  0.0653  0.4091 -0.1582
 5175W        W48228  29.302  13.196  20.862  0.2204 -0.0342  0.3663
 5176W        W48229  15.739  11.717  22.799  0.4131 -0.4009  0.6785
 5177W        W48230  31.619  16.132  21.821  0.4034 -0.0517  0.0520
 5178W        W48231  32.360  31.661  28.175  0.0386 -0.0407  0.2495
 5179W        W48232  18.895  26.587  19.090  0.2139 -0.1016 -0.0058
 5180W        W48233  20.092  27.908  23.000 -0.0463  0.0604 -0.0627
 5181W        W48234  14.828  16.523  14.897  0.1220 -0.2161 -0.0330
 5182W        W48235  24.558  17.292  24.502 -0.0299 -0.0230 -0.4650
 5183W        W48236   0.888  20.959  24.496 -0.0888  0.0662 -0.3399
 5184W        W48237  16.067  21.206  15.140 -0.0753 -0.0665 -0.2025
 5185W        W48238  34.473  14.380  19.882 -0.2814  0.0594 -0.0261
 5186W        W48239   6.726  17.232  17.061 -0.0279  0.0409 -0.0013
 5187W        W48240   9.550  21.483  21.510 -0.1515  0.2269 -0.1346
 5188W        W48241  19.151   6.749  15.468 -0.0435  0.0131  0.0060
 5189W        W48242  20.295  20.347  15.171  0.2149 -0.1747 -0.0189
 5190W        W48243  17.061  21.641  25.954 -0.4170  0.1593  0.0562
 5191W        W48244  25.420   0.188  22.768 -0.0552 -0.0294  0.1616
 5192W        W48245  21.263   4.042  15.525 -0.3050  0.2532  0.5197
 5193W        W48246   6.930  20.368  17.304  0.0897  0.1280 -0.0480
 5194W        W48247  17.269  20.738  14.633  0.0817 -0.3537 -0.0315
 5195W        W48248  25.920   7.298  17.209 -0.2656 -0.0792 -0.2084
 5196W        W48249  27.475  10.761  19.562  0.2673 -0.0500  0.0592
 5197W        W48250  13.134  16.775  14.258  0.1167 -0.0729 -0.4098
 5198W        W48251  22.294   8.160  22.673  0.2321 -0.2384 -0.2675
 5199W        W48252   6.779  12.307   0.384 -0.2555  0.0715 -0.0700
 5200W        W48253  21.390   4.053  23.441  0.1879  0.1777  0.0841
 5201W        W48254  33.390  10.409  19.656 -0.0024 -0.3583  0.0711
 5202W        W48255  14.572  10.550  17.538 -0.1356 -0.1014 -0.1715
 5203W        W48256  15.974  23.211  17.301  0.0164  0.5489 -0.1784
 5204W        W48257   6.494   7.218  27.394  0.0600 -0.2529  0.2661
 5205W        W48258  18.329  22.050  26.433 -0.3061  0.1922  0.0264
 5206W        W48259  14.388   6.322  18.774  0.2246 -0.0231 -0.0942
 5207W        W48260  23.866  17.586  18.741 -0.0077  0.0503  0.1085
 5208W        W48261  17.404  31.091  26.577  0.0374  0.5647 -0.0461
 5209W        W48262  26.533  16.083  21.234  0.2217  0.0563  0.0890
 5210W        W48263  17.598  12.891  16.955 -0.0035  0.1148  0.2446
 5211W        W48264  28.574  19.581   0.439 -0.1170  0.1365 -0.1211
 5212W        W48265  34.601  14.691  16.143  0.4092  0.0374  0.2070
 5213W        W48266  32.927  15.963  13.654 -0.0689  0.3783  0.1347
 5214W        W48267   9.273  23.038  21.869  0.0087  0.0434 -0.0378
 5215W        W48268  24.588  34.030  18.092 -0.2194 -0.2700  0.1981
 5216W        W48269  21.870  27.925  18.987 -0.0307 -0.1314  0.2163
 5217W        W48270  20.493  10.406  25.834  0.0632  0.1070  0.2212
 5218W        W48271   1.424  33.563  16.023 -0.4212  0.0644 -0.1265
 5219W        W48272  21.327  10.482  17.969 -0.0783  0.2279 -0.0960
 5220W        W48273  18.212  30.562  25.512 -0.2094  0.0545 -0.3360
 5221W        W48274  11.171  22.779  17.580  0.1844  0.3541 -0.0021
 5222W        W48275  19.824  29.261   8.072 -0.2363  0.0542 -0.0950
 5223W        W48276  30.754  21.252  16.607 -0.1029  0.1742  0.1713
 5224W        W48277   5.401  11.388  16.622 -0.1139  0.1287  0.2355
 5225W        W48278  15.200  27.698  15.736 -0.2109  0.1207 -0.1669
 5226W        W48279  13.378  20.134  17.131 -0.1970  0.3276  0.1572
 5227W        W48280  32.072  18.774  16.913  0.2257 -0.1106  0.0108
 5228W        W48281   9.311  25.308   1.785  0.0608 -0.0427 -0.1551
 5229W        W48282  23.384  15.963  24.223  0.1851 -0.1121 -0.0910
 5230W        W48283   3.912   1.302  14.184 -0.2436 -0.2555 -0.1619
 5231W        W48284  20.916   2.285  26.844  0.1270  0.0276  0.1357
 5232W        W48285   8.049  34.476   0.796  0.1850 -0.0811 -0.2215
 5233W        W48286   2.740  15.790  13.080  0.0684  0.0751 -0.0232
 5234W        W48287  22.038  25.976  26.116  0.1347  0.0687  0.1781
 5235W        W48288  17.992  25.352  16.308 -0.2181  0.0635  0.3887
 5236W        W48289  24.365  16.538  28.294 -0.2826  0.0768 -0.1049
 5237W        W48290  23.068  28.762  28.051  0.0970  0.0013 -0.2526
 5238W        W48291  25.652  28.156  21.650 -0.1878 -0.1138 -0.3740
 5239W        W48292  25.767  17.723  18.468  0.4183 -0.2041  0.0237
 5240W        W48293  10.488  18.933  14.755  0.0443  0.0727 -0.1851
 5241W        W48294  17.523   3.666   6.561 -0.1245 -0.1439  0.1211
 5242W        W48295   4.084   6.652  22.678 -0.1695 -0.1472 -0.1264
 5243W        W48296  27.783   5.018  16.921 -0.0360  0.2600 -0.4807
 5244W        W48297  28.370  31.578  24.560 -0.2499 -0.0531 -0.3159
 5245W        W48298  20.662  30.541  23.776 -0.0445 -0.1651  0.0810
 5246W        W48299  12.532   4.790  23.759  0.0066 -0.0097  0.2847
 5247W        W48300   2.811  27.474  26.817 -0.1041 -0.1955 -0.0890
 5248W        W48301  20.069  21.563  17.970  0.1503  0.0501 -0.0028
 5249W        W48302  34.072   1.689  13.455 -0.4139 -0.0217  0.1158
 5250W        W48303  30.377  20.046  28.506 -0.0271  0.4250 -0.2912
 5251W        W48304  31.361   2.684  16.531 -0.1292  0.0700  0.1598
 5252W        W48305  24.170  26.232  21.515  0.0819 -0.4328 -0.0708
 5253W        W48306  31.023   2.251  23.246  0.1304  0.1645 -0.0157
 5254W        W48307  24.679  21.424  17.887  0.2123 -0.1270  0.1484
 5255W        W48308  21.406   5.142  14.099  0.0753  0.0936  0.1183
 5256W        W48309  29.125  23.994  19.072 -0.0836  0.1107  0.1427
 5257W        W48310  12.552   7.718   3.140  0.2129  0.1815 -0.0240
 5258W        W48311  10.291  19.320  16.412 -0.0461 -0.2437 -0.0183
 5259W        W48312  19.555  31.029  19.474 -0.2339 -0.1807  0.0139
 5260W        W48313  17.503   3.418  16.329  0.0893 -0.3013  0.0861
 5261W        W48314  23.018  22.348  23.158  0.1839  0.1902  0.0434
 5262W        W48315  24.310  10.465  18.089  0.1395 -0.2327 -0.0215
 5263W        W48316  28.359  26.774  21.950 -0.1715 -0.0897  0.2230
 5264W        W48317  19.731  10.720  18.453  0.1025  0.0625  0.2951
 5265W        W48318   2.683  14.339  15.019 -0.1384 -0.0097 -0.1701
 5266W        W48319   0.806  17.320  13.339  0.1604  0.2340 -0.0675
 5267W        W48320  29.063  20.715  18.426 -0.0481  0.1461  0.0348
 5268W        W48321  25.706  31.902  15.552 -0.2063  0.1150 -0.1476
 5269W        W48322  24.552  13.145  16.207 -0.1921  0.2140  0.2111
 5270W        W48323  22.105  19.691  24.071  0.1840 -0.0599  0.0354
 5271W        W48324  28.175  21.898  16.158  0.4421  0.1543 -0.2813
 5272W        W48325  10.789  21.635  20.585  0.2516 -0.1042  0.0830
 5273W        W48326  27.984  25.614  15.189  0.6583 -0.1686  0.0682
 5274W        W48327  30.171   9.709  15.905  0.1381  0.1533 -0.1637
 5275W        W48328  13.730  30.459  14.473 -0.0986 -0.1800 -0.0678
 5276W        W48329  14.390  31.173  21.035  0.1024  0.0558 -0.0589
 5277W        W48330   1.426   8.804  19.578  0.2104  0.0981 -0.1527
 5278W        W48331  33.381  29.802  14.431  0.1626  0.2294 -0.3373
 5279W        W48332  29.671  22.188  19.580 -0.1263  0.2282  0.0302
 5280W        W48333  20.265  25.942  15.392  0.0895  0.0316 -0.1843
 5281W        W48334  21.020  28.479  27.762  0.0007  0.1587 -0.2967
 5282W        W48335  31.161   2.002  17.634  0.0266 -0.1277  0.1602
 5283W        W48336  15.930   9.996  22.558  0.1883  0.2156 -0.0485
 5284W        W48337   9.476  17.200  14.910  0.1464 -0.0734 -0.1371
 5285W        W48338   4.065   0.253  21.305  0.1136 -0.0890 -0.0008
 5286W        W48339  18.797   0.092  15.970 -0.0341  0.2067 -0.1017
 5287W        W48340   0.208  24.073  14.470  0.1378  0.2367 -0.2028
 5288W        W48341   0.507  15.401  18.146 -0.1667 -0.1229 -0.2751
 5289W        W48342   3.373  23.169  23.914  0.0806  0.0341  0.0187
 5290W        W48343   1.416  20.589  15.492  0.0353  0.0388 -0.0505
 5291W        W48344  21.466  17.994  17.570 -0.0105 -0.0380 -0.0952
 5292W        W48345  26.312  22.286  21.929  0.4906 -0.0900 -0.0597
 5293W        W48346  12.155  15.794  21.453  0.4608 -0.1395 -0.1245
 5294W        W48347  31.453  22.749  27.567  0.0365 -0.3408  0.2496
 5295W        W48348  11.440  19.044  22.529 -0.1431 -0.4125 -0.0772
 5296W        W48349  23.016  24.495  18.418  0.1128 -0.2128  0.0158
 5297W        W48350  22.412  26.890  16.117  0.1538  0.3328 -0.3279
 5298W        W48351  18.443  27.837  27.541 -0.2072 -0.0054 -0.0804
 5299W        W48352  16.412  20.357  23.073  0.3231  0.0416 -0.2164
 5300W        W48353  21.671   9.990  15.546 -0.0794  0.0098  0.0699
 5301W        W48354  16.996  13.741  15.919  0.1003 -0.2233  0.1490
 5302W        W48355  33.641  22.359  15.834  0.4203 -0.3241  0.0119
 5303W        W48356  24.714  25.557  15.496 -0.3156  0.3245 -0.1523
 5304W        W48357  25.613  13.462  22.152  0.0115 -0.0480  0.1276
 5305W        W48358  29.409  16.776  17.009 -0.0896 -0.0361 -0.1376
 5306W        W48359  13.610  27.947  19.403  0.4409 -0.2340 -0.1255
 5307W        W48360   6.015  20.907   1.672  0.1739 -0.0831  0.2865
 5308W        W48361   9.467  16.493  19.237 -0.1244  0.1868 -0.0313
 5309W        W48362  25.640  31.970  20.381 -0.0299  0.0508  0.3064
 5310W        W48363  24.116  28.563  15.253 -0.1982 -0.1416  0.1680
 5311W        W48364  21.236  18.176  21.295  0.3043 -0.0043  0.0353
 5312W        W48365  19.803  19.934  15.297 -0.1545  0.0437  0.2756
 5313W        W48366  27.812  32.880  22.346  0.0799  0.1980 -0.1531
 5314W        W48367  20.882  24.160  19.471  0.1593 -0.2822  0.1022
 5315W        W48368  23.957  12.970  28.539  0.2525 -0.1833  0.0124
 5316W        W48369   8.780   1.809  17.988 -0.0546 -0.0170  0.0549
 5317W        W48370  19.113  23.509  17.644 -0.3582 -0.2538  0.0077
 5318W        W48371  11.977   9.611  18.706 -0.0392  0.1411  0.0714
 5319W        W48372  24.862  11.174  24.960 -0.1213  0.0227 -0.1435
 5320W        W48373  26.979   9.449   0.192 -0.1011 -0.0889 -0.2851
 5321W        W48374  23.476  24.491   0.755 -0.3593 -0.0657  0.0311
 5322W        W48375   9.685  12.519  21.538  0.0769 -0.1122 -0.3771
 5323W        W48376  29.727  14.672  19.035 -0.2459  0.0210 -0.0843
 5324W        W48377  20.091  21.952  15.371  0.1477 -0.0733  0.1128
 5325W        W48378  28.351  10.831  17.948 -0.1205 -0.2784 -0.2428
 5326W        W48379  23.242  23.242   3.706  0.3440 -0.1606  0.0449
 5327W        W48380  12.157   5.955  16.290 -0.2417 -0.2275  0.1328
 5328W        W48381  20.834   6.579  15.046  0.0987  0.0642 -0.3800
 5329W        W48382  10.130  23.572  22.659  0.0518 -0.0814  0.1495
 5330W        W48383  26.748  11.945  15.528  0.1305 -0.2853  0.1448
 5331W        W48384  24.269  27.562  14.219 -0.0567 -0.0506 -0.1688
 5332W        W48385  17.974   8.247   6.596  0.1139  0.0472  0.3049
 5333W        W48386   6.889   6.248  25.571 -0.0373  0.2657 -0.1329
 5334W        W48387  20.753  31.488  26.489 -0.0017 -0.1290  0.2937
 5335W        W48388  15.630  23.648  24.055  0.1376 -0.1477  0.0860
 5336W        W48389  12.364  21.712   9.591 -0.1103 -0.0129 -0.4061
 5337W        W48390   3.178  15.057  14.237  0.0939 -0.0945  0.0752
 5338W        W48391  33.230  24.936   6.277  0.0617  0.1512 -0.1471
 5339W        W48392  28.730  10.831  14.640  0.1196 -0.0297  0.1478
 5340W        W48393  17.381   2.936  22.698  0.2430 -0.2268  0.1036
 5341W        W48394  31.365  29.708  26.683 -0.1932 -0.1522 -0.1672
 5342W        W48395  30.744  15.570  16.528 -0.1154 -0.2000 -0.0595
 5343W        W48396  29.099  27.990  20.682  0.1140 -0.0716  0.2155
 5344W        W48397  30.903   0.878  16.748 -0.1307  0.0125  0.0640
 5345W        W48398  14.884  26.058  20.253 -0.0772  0.1357  0.2484
 5346W        W48399  28.596   4.148  15.168  0.1795 -0.2599 -0.2035
 5347W        W48400  27.611  22.503  23.632 -0.1785  0.2631  0.1692
 5348W        W48401  31.175  33.653  18.295  0.0587 -0.0956  0.1406
 5349W        W48402  28.951  27.076  21.516  0.0088  0.0952 -0.0604
 5350W        W48403   8.121   2.176  22.124 -0.1866  0.3454  0.0894
 5351W        W48404  22.209  13.962  20.742 -0.2553  0.2041  0.1681
 5352W        W48405  19.056  11.175  14.430 -0.0396 -0.0435  0.2658
 5353W        W48406  18.186  13.075  19.550 -0.2764 -0.2995  0.1320
 5354W        W48407  23.243  21.012  23.910 -0.2235 -0.0192 -0.0726
 5355W        W48408  30.330   3.029  22.462 -0.0663 -0.0984 -0.1225
 5356W        W48409   2.972  14.576  23.543  0.1383  0.1324 -0.0091
 5357W        W48410  31.831  19.572  18.821  0.0348 -0.0289  0.2894
 5358W        W48411  31.640   9.674  16.821  0.0861 -0.0462 -0.0184
 5359W        W48412  14.487   6.205  28.949  0.2448 -0.1013  0.1350
 5360W        W48413   3.556   9.302  20.095 -0.2250  0.0366 -0.1401
 5361W        W48414  23.574  13.595  18.960  0.0215 -0.2951  0.0311
 5362W        W48415  31.604  19.071  13.137 -0.0721 -0.3182 -0.0931
 5363W        W48416  30.824   9.068  21.063  0.1151  0.5402  0.0035
 5364W        W48417  23.177  21.571  15.998 -0.0477  0.0806 -0.0177
 5365W        W48418  33.519   6.614   1.635  0.1443 -0.0279  0.2626
 5366W        W48419  20.242  14.437  22.847 -0.0939  0.3905  0.0190
 5367W        W48420  14.442  30.105  25.998  0.1056 -0.1763 -0.2257
 5368W        W48421   7.392  24.678  13.555  0.0402 -0.1181 -0.0653
 5369W        W48422  30.705  22.135  14.432  0.1100  0.0997 -0.0813
 5370W        W48423  22.060  15.113  24.624  0.2636 -0.0119  0.2381
 5371W        W48424  29.562  34.378  24.916  0.1891 -0.0153 -0.0226
 5372W        W48425   3.254  27.252  20.034 -0.1570  0.0114  0.2070
 5373W        W48426  16.736  28.654  16.807 -0.0789  0.2249  0.2800
 5374W        W48427  25.182  31.225  16.381 -0.2773  0.1021  0.0356
 5375W        W48428   6.357  14.494   1.259  0.1028 -0.3545  0.1588
 5376W        W48429  20.709   0.036  18.940 -0.3804 -0.1549  0.2636
 5377W        W48430  16.138  21.860  23.136  0.1160 -0.5769 -0.2218
 5378W        W48431  27.679  15.610  18.216 -0.0462 -0.0738  0.0052
 5379W        W48432  27.511  13.457  14.556 -0.1287  0.0107 -0.2794
 5380W        W48433  24.317   9.446  16.189 -0.0710 -0.1206  0.2956
 5381W        W48434  24.416  33.182  18.467  0.1430 -0.1203  0.2418
 5382W        W48435   3.312  12.326  19.038  0.2354 -0.1126  0.0709
 5383W        W48436  28.078  17.889   3.411 -0.0569  0.0183  0.1359
 5384W        W48437  21.511  12.847  22.035  0.1125  0.0149 -0.1065
 5385W        W48438   5.481  22.187  16.812  0.0945  0.0756 -0.0115
 5386W        W48439   8.732   0.205   2.777  0.0644  0.3129  0.1039
 5387W        W48440  15.773  30.078  18.879  0.3776  0.1268 -0.1329
 5388W        W48441  24.425  29.902  13.472  0.2124 -0.3121  0.1782
 5389W        W48442  30.745  10.265  17.751  0.1122  0.1426  0.3639
 5390W        W48443  18.177  31.976  19.063  0.2531 -0.2900 -0.0051
 5391W        W48444  29.703   2.447  21.409  0.0369  0.0128 -0.1466
 5392W        W48445  19.594  13.224  26.280 -0.1409  0.2854  0.2222
 5393W        W48446  21.438  21.360  17.150  0.1292 -0.1527 -0.3210
 5394W        W48447  23.986  15.519   6.378  0.0911  0.1569 -0.2413
 5395W        W48448  33.219  28.398  15.497 -0.0462  0.3002  0.1276
 5396W        W48449  24.762  20.112  17.413 -0.1190  0.2824  0.4315
 5397W        W48450  31.369  16.052   6.226  0.2367  0.1683 -0.1644
 5398W        W48451  28.867  12.396  21.197  0.0793  0.1241  0.0534
 5399W        W48452  17.217  13.700  28.194 -0.0732 -0.3266  0.1149
 5400W        W48453  28.479  26.879  14.251 -0.1055  0.0558 -0.3289
 5401W        W48454  28.133  23.474  17.056 -0.0838 -0.1565  0.0549
 5402W        W48455  31.857  11.473  19.044  0.0075  0.0781  0.1913
 5403W        W48456  20.607   5.203  23.895  0.1392 -0.4026 -0.0732
 5404W        W48457  14.548  12.991  22.227 -0.1465 -0.0815 -0.1425
 5405W        W48458  29.570  19.258  27.884  0.0418 -0.2745  0.0112
 5406W        W48459  31.543   1.414  15.229 -0.1939 -0.0477  0.1273
 5407W        W48460  25.821  20.850  26.860 -0.0821 -0.0606 -0.1186
 5408W        W48461  10.395  29.317   3.645  0.2004 -0.0749  0.0821
 5409W        W48462  32.069  17.632  14.163 -0.3503 -0.2126  0.2251
 5410W        W48463  18.920  29.511  22.145 -0.2318  0.2323 -0.0054
 5411W        W48464  14.720   9.575  23.702  0.2231 -0.2184  0.0369
 5412W        W48465  22.966  12.117  14.156 -0.0367 -0.0759 -0.1183
 5413W        W48466   8.278  15.810  26.442  0.2928 -0.4446  0.2455
 5414W        W48467  26.136  20.196  17.620 -0.0748 -0.2882  0.0521
 5415W        W48468   9.643  33.860  21.950 -0.6119 -0.2843 -0.1112
 5416W        W48469  16.340  14.840  13.110  0.1233  0.0360  0.3209
 5417W        W48470   0.476   0.510  19.186 -0.3999  0.1389  0.0705
 5418W        W48471  27.426  27.706  24.018 -0.2844 -0.0375  0.0085
 5419W        W48472  22.025  19.664  20.893  0.1698  0.1093 -0.0609
 5420W        W48473  22.999  14.374  16.176  0.1269 -0.0560  0.0837
 5421W        W48474  23.790   1.829  25.132 -0.1501  0.3822  0.0985
 5422W        W48475  22.933   8.338  14.658  0.0020  0.1019 -0.1242
 5423W        W48476  19.268  14.516  24.000  0.2106  0.0240 -0.1070
 5424W        W48477  27.437  25.591  22.156  0.3372  0.2467 -0.0642
 5425W        W48478  17.218  21.620  20.619 -0.2637 -0.0566 -0.2656
 5426W        W48479   1.636  17.959  17.763  0.1294  0.0510 -0.0812
 5427W        W48480  15.240   0.732  28.790  0.1287 -0.0002 -0.1143
 5428W        W48481  12.425  30.509  17.335  0.1667 -0.0429  0.1268
 5429W        W48482   0.641  32.629  17.204  0.3487 -0.2528 -0.0706
 5430W        W48483  11.164  14.634  22.079  0.2157 -0.2516 -0.0691
 5431W        W48484  34.173   7.285  21.786 -0.0030 -0.3297 -0.2477
 5432W        W48485  25.453  12.217  17.933  0.0028  0.1791  0.3846
 5433W        W48486  15.384   8.674  15.100 -0.0132  0.1656  0.2748
 5434W        W48487  20.763  24.167  23.411  0.1295 -0.2485 -0.1940
 5435W        W48488  26.155   7.853  17.296  0.1386  0.0347 -0.3224
 5436W        W48489  20.489  14.059  18.782  0.1293  0.0672 -0.0479
 5437W        W48490  21.512  16.278  18.682 -0.2195 -0.0513 -0.1429
 5438W        W48491  29.033  31.927  26.962  0.0056  0.3670  0.3228
 5439W        W48492  11.019  23.880  19.043 -0.0659 -0.1451  0.0238
 5440W        W48493  30.269  17.582  25.767  0.1124 -0.2527 -0.0369
 5441W        W48494  32.698   1.875   9.365 -0.2255  0.1807 -0.1300
 5442W        W48495  25.763  20.120  17.314 -0.1186  0.2918 -0.1063
 5443W        W48496  29.195  10.269  17.437  0.0370  0.0114  0.2394
 5444W        W48497  21.477  10.646  18.460 -0.0279  0.0278 -0.2698
 5445W        W48498  15.579  28.830  25.837 -0.1429 -0.0970  0.3431
 5446W        W48499  29.052  17.574  19.532 -0.3141 -0.2768  0.1047
 5447W        W48500  32.275  32.806  21.466  0.1331 -0.4575  0.0713
 5448W        W48501  28.662  15.325  25.812 -0.1300  0.3340 -0.1137
 5449W        W48502   4.159  33.282  23.531 -0.0563 -0.0817 -0.1433
 5450W        W48503  23.398  17.329   2.202 -0.2467  0.1315 -0.1623
 5451W        W48504  24.915   6.877  15.001  0.3498  0.3369 -0.4010
 5452W        W48505  18.997   0.057  28.301  0.3043 -0.3251  0.0773
 5453W        W48506  30.071   6.003  20.703  0.0987 -0.0701 -0.1686
 5454W        W48507  30.457   6.689  22.461  0.1003  0.0382 -0.2741
 5455W        W48508   0.239  16.019   4.179 -0.1743  0.1606  0.3119
 5456W        W48509  10.280  18.234  10.479 -0.4278  0.0420  0.2142
 5457W        W48510  30.860   7.360  21.044 -0.4024  0.1822  0.2042
 5458W        W48511  30.152  28.000  21.330  0.0484  0.0287  0.0350
 5459W        W48512  33.321  20.196  23.179 -0.2321  0.2805  0.0533
 5460W        W48513  28.159   3.861  16.334  0.1816 -0.2177 -0.0680
 5461W        W48514   3.485   3.706  19.508 -0.0237 -0.0375  0.0288
 5462W        W48515  12.680  22.855  16.132  0.0979 -0.0649 -0.0289
 5463W        W48516  23.599  18.882  21.853  0.3410  0.1594  0.0212
 5464W        W48517  30.162  23.721   2.285 -0.0656  0.0440  0.0895
 5465W        W48518  21.512   3.919  15.113  0.4043  0.4436  0.3302
 5466W        W48519  32.034   4.422  22.800  0.2506 -0.1010  0.0393
 5467W        W48520  24.984  20.417  22.655  0.2441  0.1115  0.1006
 5468W        W48521  27.740  28.512  20.060 -0.1355 -0.0977  0.0821
 5469W        W48522  26.085  19.355  17.178  0.1204 -0.3613  0.2878
 5470W        W48523  23.198  27.604  23.173 -0.1507 -0.0771 -0.0669
 5471W        W48524  33.721  20.385   8.130  0.0664  0.2276  0.1573
 5472W        W48525  33.811   3.796  16.673 -0.0993  0.0028  0.1279
 5473W        W48526  24.835  14.368  28.705  0.0283  0.3070  0.0269
 5474W        W48527  19.925  21.524   7.862  0.0653 -0.2437  0.1705
 5475W        W48528   8.550   1.809   1.786 -0.1796 -0.1633  0.1156
 5476W        W48529  23.113   2.528  19.077  0.0040  0.2289  0.0554
 5477W        W48530  23.185  21.629  22.112 -0.2260 -0.2870 -0.2949
 5478W        W48531  22.330  13.130   5.670  0.0903  0.0194 -0.1048
 5479W        W48532  18.056  10.941   9.867  0.0159 -0.4767 -0.1260
 5480W        W48533  28.631  19.756  23.759 -0.0448 -0.3607  0.1095
 5481W        W48534   2.402  11.659  21.882  0.2153  0.0398  0.2240
 5482W        W48535  20.135  29.791  14.778 -0.0679 -0.3324  0.0889
 5483W        W48536  30.866  31.269  15.848 -0.1283  0.0295 -0.1765
 5484W        W48537  24.838  10.892   0.370  0.0656 -0.1989  0.3915
 5485W        W48538  32.046  24.327  23.062 -0.1182 -0.1453  0.3105
 5486W        W48539  30.472  17.695  27.838 -0.1821 -0.1791 -0.0551
 5487W        W48540  10.313  15.556   0.579  0.0005 -0.2035 -0.1135
 5488W        W48541  34.647  27.360   0.635 -0.0793  0.2953 -0.2074
 5489W        W48542  27.350   3.544  18.999  0.4022  0.0352  0.1230
 5490W        W48543   3.139  16.884  17.928 -0.1469  0.3605  0.2303
 5491W        W48544  29.920   8.379  28.120  0.3239  0.1289 -0.4029
 5492W        W48545  25.817   1.491  21.017 -0.1617 -0.0974  0.1288
 5493W        W48546  28.493  18.398  16.223  0.2069 -0.1121  0.1481
 5494W        W48547  24.765   5.850  25.154 -0.2228 -0.1065 -0.3837
 5495W        W48548  22.827  19.380  19.385 -0.0725  0.2929 -0.0776
 5496W        W48549  11.597  30.165  14.592  0.1503 -0.2118  0.0751
 5497W        W48550  30.395  13.447  15.764  0.3164  0.2529  0.0490
 5498W        W48551  21.275  33.356  27.714 -0.2059 -0.2283 -0.0234
 5499W        W48552  24.507  15.230  20.376 -0.3863 -0.3087  0.0163
 5500W        W48553  18.503   5.995  25.835 -0.1213  0.4315  0.3914
 5501W        W48554  31.706   5.539  19.237 -0.0557  0.2189  0.2495
 5502W        W48555  31.253  19.016  19.685  0.0025  0.3052  0.0037
 5503W        W48556  32.749  24.274  17.727 -0.1490  0.0733 -0.1597
 5504W        W48557  32.633  19.255   2.546  0.3895  0.0419  0.4263
 5505W        W48558  19.307  21.195  23.195  0.0828  0.2424  0.1152
 5506W        W48559  30.114  16.481  17.614 -0.1444  0.1497  0.0708
 5507W        W48560  24.796   6.655  28.148 -0.2886  0.3245  0.0140
 5508W        W48561  23.353  14.806  17.362  0.0476  0.0504 -0.0381
 5509W        W48562  31.939  20.086   7.263  0.1428 -0.0481  0.1501
 5510W        W48563   7.994  15.782   1.889 -0.1735  0.5969  0.1580
 5511W        W48564  18.108  23.690  14.460  0.3749 -0.3089 -0.3442
 5512W        W48565   4.655   2.225  17.186 -0.0814 -0.3573  0.2543
 5513W        W48566  16.828  25.670   3.876 -0.2622 -0.1395  0.1742
 5514W        W48567  21.965  13.821  28.915 -0.0969 -0.2785  0.0968
 5515W        W48568  25.521  11.984  28.414  0.1488 -0.0135  0.0889
 5516W        W48569   8.481   6.295  28.910  0.1957 -0.0716 -0.1693
 5517W        W48570  29.319  30.665   4.113 -0.0919 -0.1161 -0.0886
 5518W        W48571  15.610  19.202  14.415 -0.0386 -0.1268 -0.1678
 5519W        W48572  31.241  28.792   7.243 -0.1519  0.0600  0.0907
 5520W        W48573  30.661  23.305   8.761 -0.1495 -0.1033  0.0423
 5521W        W48574  34.563   0.542  29.093 -0.1271 -0.1488  0.1249
 5522W        W48575  27.532   8.020  10.146  0.0888 -0.1999 -0.0588
 5523W        W48576  21.540  13.306  28.977  0.1895  0.2098  0.0555
 5524W        W48577  17.695   3.753  14.782 -0.0474 -0.1670 -0.1740
 5525W        W48578  26.252  20.135  16.600  0.0575  0.1861 -0.1878
 5526W        W48579  15.934  23.401  15.700  0.0311  0.0720 -0.1022
 5527W        W48580  12.918  29.036  24.054 -0.0859 -0.2493  0.1444
 5528W        W48581  21.670   2.622   1.175 -0.2302  0.2825  0.1145
 5529W        W48582  34.149  14.012  15.324 -0.3336  0.0512 -0.0556
 5530W        W48583  24.496   1.970  15.179  0.2302 -0.0688 -0.0317
 5531W        W48584  30.813  29.464  22.318  0.1387 -0.2360  0.1760
 5532W        W48585  12.542   9.312  24.446  0.3004 -0.0512 -0.0720
 5533W        W48586   2.634  25.807  25.591 -0.3515 -0.0847 -0.2595
 5534W        W48587  20.185  10.830   3.180 -0.2385  0.2374 -0.1123
 5535W        W48588  20.119  33.067  14.640 -0.2722 -0.1064  0.1789
 5536W        W48589  29.383   1.457  19.851  0.0309  0.3879  0.1809
 5537W        W48590  18.757  34.467   4.417 -0.2588  0.1629 -0.0895
 5538W        W48591  34.612  25.076   3.066  0.0994  0.3472  0.0475
 5539W        W48592  24.501  20.907  19.961  0.2597 -0.0971  0.1325
 5540W        W48593  19.480   8.376  26.307 -0.0468 -0.0385  0.0853
 5541W        W48594   2.762  22.084  15.859 -0.0257  0.1373  0.0544
 5542W        W48595  20.841   2.574  18.040 -0.0405 -0.4603 -0.3449
 5543W        W48596  16.868  27.846  17.977  0.0727  0.0052 -0.0426
 5544W        W48597  20.297  10.973  26.662  0.0466 -0.3969 -0.1531
 5545W        W48598  30.720  28.104  23.218 -0.1807  0.0926 -0.2392
 5546W        W48599  14.623  34.412  21.072 -0.1142 -0.0274 -0.3213
 5547W        W48600  15.901  25.847  26.991  0.1781 -0.0592 -0.0352
 5548W        W48601   9.615  16.084   6.919 -0.1651 -0.4071  0.1594
 5549W        W48602   0.832   2.560  25.892 -0.0200 -0.0108 -0.1869
 5550W        W48603  13.796  31.748   1.794  0.1696  0.3415 -0.1840
 5551W        W48604  17.998   8.215  16.051 -0.3466  0.2763  0.0941
 5552W        W48605   7.928   3.753  17.988  0.2788 -0.0718  0.0581
 5553W        W48606   7.151   8.223  15.135 -0.0544  0.3247  0.0289
 5554W        W48607  33.550  23.070  21.047 -0.1712  0.1483 -0.0194
 5555W        W48608  27.300   1.338  25.048 -0.0338 -0.2259  0.1917
 5556W        W48609  21.357  20.473  17.156  0.2780  0.1548 -0.3707
 5557W        W48610  19.291  16.246  14.989 -0.0799  0.0046  0.2313
 5558W        W48611   9.235   8.748  25.912 -0.0239 -0.2382 -0.1134
 5559W        W48612  26.796   0.441  16.888 -0.1447  0.2581 -0.0890
 5560W        W48613  17.230  25.549   1.040  0.0136 -0.2230 -0.0609
 5561W        W48614  18.348  25.024  25.972 -0.0358 -0.1151 -0.3237
 5562W        W48615  12.704  26.740  26.410 -0.0081  0.0573  0.1181
 5563W        W48616  20.897  23.183  14.662 -0.2501 -0.2808  0.0249
 5564W        W48617  31.979  12.746  23.200  0.1006  0.1692  0.0428
 5565W        W48618   5.548  14.927   7.092 -0.0956 -0.0547  0.0833
 5566W        W48619  14.161   1.822  14.658  0.0605 -0.2298  0.0831
 5567W        W48620   3.540   8.837  23.224 -0.0184  0.2694  0.3463
 5568W        W48621  13.993  14.723  17.593  0.2580 -0.5294 -0.1438
 5569W        W48622  16.014  17.870   2.365  0.0953 -0.1791 -0.1473
 5570W        W48623  13.129  19.336  15.557 -0.0061  0.0786 -0.1350
 5571W        W48624  34.060  23.376  16.461  0.0483 -0.0391  0.1518
 5572W        W48625  24.794  12.950   6.013  0.1974 -0.3387 -0.2481
 5573W        W48626  25.004  25.917  21.841  0.2154  0.0551 -0.0071
 5574W        W48627  33.062  18.197  18.956 -0.2543 -0.0238 -0.1451
 5575W        W48628  25.861   0.007  17.392  0.1403 -0.0291  0.1177
 5576W        W48629   7.592   5.364  24.282  0.2105  0.3252  0.3048
 5577W        W48630  28.074  11.121  16.418 -0.1902 -0.1310 -0.0987
 5578W        W48631  11.157  32.706  19.478 -0.1072  0.2378  0.2258
 5579W        W48632  19.523   4.941  24.246  0.1911 -0.0181  0.1816
 5580W        W48633  22.768  26.578  16.874 -0.1273 -0.2153  0.4469
 5581W        W48634   9.035  21.163  26.559  0.2859  0.0681  0.1301
 5582W        W48635  22.068  27.879   6.864  0.2219  0.1598 -0.0740
 5583W        W48636  28.009  28.480  19.510  0.0369 -0.2571 -0.0914
 5584W        W48637  16.609  18.312  12.527  0.3034  0.0046 -0.0913
 5585W        W48638  23.551  28.129  19.852  0.1574  0.0384 -0.1563
 5586W        W48639  12.889   3.512  27.778 -0.1487 -0.0779  0.1938
 5587W        W48640  14.038  30.151   3.661  0.1048 -0.1703 -0.1664
 5588W        W48641   1.590  20.538  27.308 -0.1109 -0.0840 -0.0498
 5589W        W48642  25.576  17.461  21.088  0.1756  0.2818 -0.1246
 5590W        W48643  23.288   7.389   1.831  0.0971  0.0986 -0.2079
 5591W        W48644  12.679  19.589  15.644 -0.2239  0.2075  0.0095
 5592W        W48645  22.794  18.942   1.352 -0.0610  0.1273 -0.0675
 5593W        W48646   0.956  34.635  24.318 -0.0508  0.1015 -0.0657
 5594W        W48647  15.834   6.400  25.369  0.0262  0.3050  0.1013
 5595W        W48648  17.701  10.203  28.428  0.2137  0.0311 -0.1318
 5596W        W48649  14.965  12.098  18.347  0.2427 -0.1074 -0.3028
 5597W        W48650  26.249  28.873  21.153 -0.0888  0.0138  0.0860
 5598W        W48651  23.308  23.632   1.760 -0.0089  0.4763 -0.2125
 5599W        W48652  17.443  26.536  23.036  0.3270 -0.2447 -0.1219
 5600W        W48653  17.643  11.408  19.551 -0.1287  0.2129  0.0058
 5601W        W48654  13.177  10.813   3.413 -0.1106  0.1222 -0.2648
 5602W        W48655  25.879  20.917  20.509 -0.1165 -0.2509  0.0914
 5603W        W48656  13.242  30.401  17.732  0.0844 -0.0737 -0.2559
 5604W        W48657   2.627   7.964  18.137 -0.2775 -0.3973 -0.2055
 5605W        W48658  33.405   3.049  20.964 -0.1105  0.0502  0.1338
 5606W        W48659   0.609   7.282  15.026 -0.2513 -0.0904 -0.2768
 5607W        W48660  23.809  29.453  23.659  0.0479  0.1141 -0.0604
 5608W        W48661  18.849  32.141   9.774  0.0007 -0.2948  0.2861
 5609W        W48662  16.574  13.071  20.555  0.0610 -0.0558 -0.0334
 5610W        W48663  24.274  17.772  18.984 -0.3965 -0.0820 -0.1628
 5611W        W48664  22.960  32.925  28.912 -0.0097 -0.0208  0.1825
 5612W        W48665  20.342   9.706  18.198  0.1962  0.0466  0.1773
 5613W        W48666   6.410   9.156   5.693 -0.0750 -0.0048  0.0255
 5614W        W48667  21.277  31.505  22.944 -0.2487  0.0432  0.1095
 5615W        W48668   7.477  17.085  24.481 -0.0074  0.2200  0.3624
 5616W        W48669  28.771  25.661  20.353  0.1186  0.0105 -0.0919
 5617W        W48670  28.686  21.626   4.772  0.1526  0.1505 -0.0556
 5618W        W48671   1.833  10.843  23.426 -0.0908 -0.1892 -0.2637
 5619W        W48672  30.024   7.131  21.266  0.2660 -0.0939 -0.1499
 5620W        W48673  10.334  19.325  15.051 -0.1967 -0.1147 -0.0681
 5621W        W48674   0.239  14.729  28.343  0.0971 -0.2592 -0.2014
 5622W        W48675   9.774   7.956  16.070 -0.2021  0.0742  0.0229
 5623W        W48676  21.795  29.830  25.399 -0.0756  0.1589  0.1046
 5624W        W48677  33.262  11.695   6.618  0.1987 -0.0790 -0.1388
 5625W        W48678  19.360  18.633  23.683  0.3346  0.0737  0.0573
 5626W        W48679  22.111  29.226   7.128 -0.1767  0.1351 -0.1308
 5627W        W48680  33.217  16.476  24.314 -0.1301  0.0461  0.1728
 5628W        W48681  33.358  22.499   8.265 -0.0904 -0.3448  0.1036
 5629W        W48682  15.411  10.875   3.677 -0.0154  0.1762 -0.0585
 5630W        W48683  30.776  33.365  24.415 -0.0416  0.0139  0.1521
 5631W        W48684  21.461  19.042   9.247  0.0310 -0.4713 -0.0126
 5632W        W48685  31.589  19.727  13.128 -0.0691  0.0490 -0.0418
 5633W        W48686  15.222  22.920  24.824  0.1376  0.2341  0.1226
 5634W        W48687  31.223  17.204  21.048  0.1514  0.0222  0.0558
 5635W        W48688   1.325  20.968  14.500  0.1596 -0.0286 -0.1615
 5636W        W48689  20.720   9.222  25.790 -0.2484 -0.1449 -0.2893
 5637W        W48690  23.098  19.372  22.407  0.2016  0.1806  0.3046
 5638W        W48691  27.678   0.853  21.567  0.0041 -0.0173  0.1689
 5639W        W48692  30.070  33.002  20.398  0.0395 -0.2270 -0.3797
 5640W        W48693   0.661   8.465  26.285  0.3134  0.2379  0.2704
 5641W        W48694  25.082  31.810   7.327  0.0498  0.4095  0.1620
 5642W        W48695  28.021  15.161  25.210 -0.1654  0.0796 -0.0558
 5643W        W48696  21.188  19.641  19.552 -0.1392  0.3287 -0.1243
 5644W        W48697  31.297  17.392  14.144  0.0658 -0.1557 -0.1700
 5645W        W48698  23.626   6.722  16.622 -0.1121 -0.0586 -0.0035
 5646W        W48699  12.612  20.515   0.736  0.1208  0.0572 -0.0814
 5647W        W48700  24.315  11.005  26.611  0.1549 -0.2046  0.1847
 5648W        W48701  28.086  20.034  22.115 -0.1105 -0.0191  0.1024
 5649W        W48702  28.451  21.826  15.020 -0.1108 -0.1714  0.0867
 5650W        W48703  17.288  10.415  24.161 -0.2688  0.0289 -0.0105
 5651W        W48704  22.595   7.242  17.408  0.1240 -0.2401  0.0980
 5652W        W48705  17.442   3.936  23.112  0.1768 -0.1696  0.2146
 5653W        W48706   9.494  22.534  27.602  0.0551  0.2864  0.2951
 5654W        W48707  30.095  20.363  17.483  0.2364  0.0270  0.1731
 5655W        W48708  17.716   9.446  10.922  0.0462  0.1308 -0.1718
 5656W        W48709  33.675  30.488  20.396  0.0329 -0.1172 -0.1754
 5657W        W48710  22.210   4.582  24.548 -0.4596  0.2238 -0.2950
 5658W        W48711  24.616   1.832  26.865 -0.1201  0.1647 -0.0000
 5659W        W48712  16.067   1.504  23.982  0.1297  0.0812 -0.1045
 5660W        W48713  31.854  12.856  29.055  0.1736 -0.0416  0.0467
 5661W        W48714  11.742  23.681  28.351 -0.0925  0.2892  0.0164
 5662W        W48715  22.335   5.971  20.143 -0.2730 -0.0192  0.0116
 5663W        W48716  14.453  14.818  16.159  0.2038  0.1099 -0.0700
 5664W        W48717  22.599  14.835   6.404  0.3842 -0.3470  0.2198
 5665W        W48718  15.034  12.346  21.058 -0.3372 -0.1787 -0.0618
 5666W        W48719  20.096   6.391  24.744  0.0921 -0.0063 -0.2434
 5667W        W48720  20.136  15.780  21.370  0.0764  0.1274  0.3363
 5668W        W48721  23.159  14.794  13.862  0.2251  0.1038 -0.0908
 5669W        W48722   9.683   1.203   0.642 -0.3930  0.0722 -0.1214
 5670W        W48723  27.744  19.365  24.041 -0.1294  0.0692 -0.0262
 5671W        W48724  30.443  30.297  21.134  0.1703  0.1224  0.1777
 5672W        W48725  32.830  25.089  19.969  0.2384 -0.0221  0.0413
 5673W        W48726   6.267   3.355  27.186  0.1042 -0.0987 -0.0403
 5674W        W48727  32.682  32.353  22.520 -0.0705  0.2010 -0.0717
 5675W        W48728  19.620  22.413  19.563 -0.0147 -0.2810 -0.2537
 5676W        W48729  28.047   9.196  25.279 -0.1075  0.0484 -0.2762
 5677W        W48730   2.126  16.359  15.447  0.1382  0.2785 -0.0780
 5678W        W48731  28.392  14.663  28.869  0.2267 -0.0595  0.0918
 5679W        W48732  27.512  20.340  21.067 -0.0186  0.0448  0.2511
 5680W        W48733  12.978   1.876  15.422 -0.4404  0.0343 -0.2838
 5681W        W48734  33.664   2.948  16.438 -0.0670  0.0493 -0.2306
 5682W        W48735  30.637  10.535  23.422 -0.0228  0.0538  0.1238
 5683W        W48736  13.987  12.554  14.955 -0.4496  0.1568  0.0525
 5684W        W48737  24.146  17.976  16.886 -0.4231 -0.5094 -0.0215
 5685W        W48738   2.174   8.002  17.114  0.1774  0.0034 -0.0953
 5686W        W48739  27.036  14.172  26.340 -0.1011 -0.0417 -0.2420
 5687W        W48740  24.140  10.235  27.287  0.1632  0.1938  0.0458
 5688W        W48741  29.313   1.753  17.253 -0.0904 -0.2793 -0.0784
 5689W        W48742   2.112   5.102  17.099  0.0125 -0.1521 -0.2462
 5690W        W48743  25.201  24.773  22.963  0.0882  0.3479  0.2613
 5691W        W48744  24.112  29.707  26.019  0.0372  0.2160  0.0081
 5692W        W48745  27.663  12.037  24.717 -0.0156 -0.2316 -0.1348
 5693W        W48746  19.737  11.540  26.760 -0.2827  0.0141  0.2362
 5694W        W48747  28.979   9.029   2.631  0.0856  0.0681 -0.1832
 5695W        W48748  22.980   9.361  20.185  0.3431 -0.3127 -0.1373
 5696W        W48749  33.710  14.742  18.101 -0.5077  0.0980 -0.5761
 5697W        W48750  17.670  30.833  17.296  0.0181 -0.1387 -0.0897
 5698W        W48751  21.268   7.068  19.725  0.0918 -0.2047  0.0266
 5699W        W48752   7.619  15.962  23.046  0.2478  0.0197  0.0889
 5700W        W48753  25.238  22.551  27.616  0.0305 -0.0611  0.2197
 5701W        W48754  22.292  31.016  24.972 -0.0424 -0.3091  0.1185
 5702W        W48755  26.187   9.379  21.941 -0.2463 -0.0698 -0.2749
 5703W        W48756  10.397  29.844  15.056 -0.1111 -0.0896 -0.1443
 5704W        W48757  24.598   7.287  21.903  0.0071 -0.1260  0.1771
 5705W        W48758  21.535  25.886  24.881 -0.0657 -0.0798 -0.2388
 5706W        W48759  28.283  18.382  16.672  0.2435 -0.1290 -0.2438
 5707W        W48760  28.803  22.147  14.947  0.0226 -0.3035  0.0695
 5708W        W48761  25.503  14.455  22.956 -0.1725  0.1924  0.2695
 5709W        W48762   8.743  33.235  22.076 -0.3635 -0.0021 -0.3244
 5710W        W48763  24.187  31.852   4.262 -0.0019 -0.3694 -0.3054
 5711W        W48764  21.135   8.303  17.880 -0.1323  0.0366  0.2122
 5712W        W48765  12.111  27.085   2.312 -0.1446 -0.1658  0.0997
 5713W        W48766   1.203  33.649  23.185 -0.0479  0.2734 -0.1127
 5714W        W48767  26.050  19.479  14.276 -0.0635  0.2373 -0.1413
 5715W        W48768  30.834  23.698  14.771 -0.1144  0.0083 -0.1180
 5716W        W48769  22.426   7.032  19.693 -0.1937 -0.0142 -0.0041
 5717W        W48770  14.135  10.680  20.809  0.0818 -0.0054 -0.0832
 5718W        W48771  24.141  29.146  17.150  0.1270 -0.0474  0.1110
 5719W        W48772  17.795   9.488  25.491 -0.1057 -0.0629  0.0871
 5720W        W48773   9.660  24.728  20.457 -0.1235 -0.0429 -0.1306
 5721W        W48774  32.879  10.365  19.585  0.2993  0.3135 -0.3210
 5722W        W48775  17.065  21.293  16.783  0.0827 -0.1885 -0.4729
 5723W        W48776  33.335   3.023  18.766  0.2735 -0.0412  0.1470
 5724W        W48777  17.975  11.392  17.463 -0.0341  0.1852 -0.1440
 5725W        W48778  23.064  26.983   1.224 -0.0500 -0.1016 -0.1863
 5726W        W48779  25.585  32.424  28.201 -0.2783  0.3081 -0.0164
 5727W        W48780   9.811  25.271  19.201 -0.1104 -0.0727 -0.1259
 5728W        W48781   5.011   8.983  15.554 -0.0441  0.0089 -0.0315
 5729W        W48782  27.011   7.219  22.157 -0.2693  0.2134  0.1571
 5730W        W48783  28.779  16.847   0.592  0.2349 -0.3504  0.1087
 5731W        W48784  20.083  24.209  21.329 -0.1783  0.1972  0.0327
 5732W        W48785  33.552  15.181  19.389 -0.1144 -0.0448 -0.0163
 5733W        W48786  21.205   9.001   9.980 -0.1824 -0.1636 -0.1897
 5734W        W48787  33.014  23.204  16.453  0.2463 -0.1989 -0.4271
 5735W        W48788  31.371  18.958  19.084 -0.0382 -0.1668 -0.0377
 5736W        W48789  30.702  20.965   1.141  0.0486 -0.0788  0.1337
 5737W        W48790  13.123   9.545  17.964  0.3189 -0.0485 -0.2886
 5738W        W48791  34.356   9.999  26.181  0.1334  0.2581 -0.1206
 5739W        W48792  22.290  31.423  18.721  0.1069 -0.1069 -0.4041
 5740W        W48793   2.898  11.443  28.713 -0.0924  0.2798  0.1395
 5741W        W48794  13.734   7.940  19.486  0.1666  0.1582 -0.2520
 5742W        W48795   3.063  12.105  23.780 -0.3139 -0.0430 -0.0020
 5743W        W48796  34.054  20.675  15.287  0.3202 -0.0239  0.0189
 5744W        W48797  22.265  34.425  28.455 -0.0535 -0.2419  0.0789
 5745W        W48798  31.209   8.705  22.841 -0.2903  0.1300  0.0012
 5746W        W48799   3.706   2.216  20.273 -0.4476 -0.2298 -0.0385
 5747W        W48800  10.667   1.006   1.682 -0.1461  0.0566 -0.1035
 5748W        W48801  30.703  24.678  14.499  0.1468  0.1693 -0.0259
 5749W        W48802  22.040  10.575  20.525  0.2586  0.1463  0.1019
 5750W        W48803  22.233  21.303  28.346 -0.0839  0.0424 -0.3073
 5751W        W48804  23.276  34.453  21.447 -0.0742  0.3763  0.0078
 5752W        W48805  25.029  26.950   3.334  0.1016 -0.1467  0.2601
 5753W        W48806  19.755   7.222  21.280  0.1611 -0.0126 -0.1853
 5754W        W48807  18.286  26.459  14.471 -0.1191 -0.2186  0.1892
 5755W        W48808  24.492  12.960   1.239 -0.4688 -0.1775 -0.1880
 5756W        W48809  31.312   6.067  16.824 -0.1049 -0.2454  0.2529
 5757W        W48810  28.771  23.108  14.321 -0.1921  0.0485 -0.2923
 5758W        W48811   3.279  33.543  23.811  0.0048 -0.3528 -0.0083
 5759W        W48812  22.518  27.124  15.104 -0.0265 -0.2699  0.1841
 5760W        W48813  25.972  21.056  18.167 -0.0964  0.0176 -0.2004
 5761W        W48814  11.895  19.618  19.620  0.0257 -0.2345  0.0596
 5762W        W48815  24.245  26.373  15.490  0.1325 -0.0652  0.1053
 5763W        W48816  26.337  31.307  22.793  0.2505 -0.1064  0.4603
 5764W        W48817   5.811   5.571  24.509  0.1192  0.2689  0.3627
 5765W        W48818  11.553  14.505  28.241 -0.0832  0.2134 -0.0480
 5766W        W48819  33.855  11.995  19.395 -0.0840 -0.0486 -0.2721
 5767W        W48820  14.171   3.258  20.649  0.1385 -0.0731  0.0744
 5768W        W48821   1.968  23.407  21.835 -0.3376 -0.1518 -0.1212
 5769W        W48822  20.530  11.367  26.827 -0.0041 -0.0952 -0.2989
 5770W        W48823  28.322  33.373  14.230  0.3361  0.3983  0.0312
 5771W        W48824   9.796  33.064  23.083 -0.0501  0.0914 -0.0713
 5772W        W48825  25.125  30.383  25.277 -0.1003 -0.0447  0.1334
 5773W        W48826  17.964  31.161  14.888 -0.3284  0.1347 -0.1723
 5774W        W48827  24.640  24.074  28.344  0.1624 -0.0885  0.0441
 5775W        W48828  26.121  13.136  18.781  0.0213  0.2228 -0.2298
 5776W        W48829  27.940  12.650   5.817  0.1890 -0.1002 -0.2484
 5777W        W48830  26.953  28.897  22.277  0.0655 -0.0130 -0.2375
 5778W        W48831  23.325  26.239   5.591  0.0398  0.1757  0.2361
 5779W        W48832  19.851  34.522  21.654 -0.1768 -0.0771  0.1867
 5780W        W48833  26.069   3.900  24.381  0.3059  0.1986 -0.2056
 5781W        W48834  20.202  20.721  24.175  0.1364 -0.2394 -0.1329
 5782W        W48835  29.182  14.852   5.084 -0.3083 -0.1270 -0.1873
 5783W        W48836  26.157  23.564  25.789  0.0163 -0.2601  0.1915
 5784W        W48837  14.933  22.351  14.682  0.0888  0.1782 -0.3494
 5785W        W48838  30.523  24.632  13.968  0.0632 -0.1021 -0.1994
 5786W        W48839  23.696   6.420  19.932 -0.0241 -0.1427  0.2844
 5787W        W48840   4.691  28.070  23.699 -0.1448 -0.0315 -0.1535
 5788W        W48841  22.271  18.845  23.036  0.0948  0.0463  0.1224
 5789W        W48842  29.717  30.528  16.867  0.0509  0.1956 -0.0667
 5790W        W48843  17.663   4.124  29.070 -0.0655  0.0276  0.2485
 5791W        W48844  26.310  28.353  23.995  0.2870  0.0317 -0.2542
 5792W        W48845  18.528  11.147  26.942  0.1713 -0.1785  0.4016
 5793W        W48846  18.564  18.277  15.361 -0.3585  0.0871  0.0094
 5794W        W48847  23.255  16.426  14.566 -0.3479 -0.2507 -0.2260
 5795W        W48848  11.219  29.824  14.322  0.3488  0.1759 -0.0325
 5796W        W48849  30.396  23.069  14.206  0.1153  0.0446  0.1036
 5797W        W48850  10.057  10.376   1.261  0.0725  0.0533 -0.2777
 5798W        W48851  33.314  14.597  16.108  0.1485 -0.0889 -0.1267
 5799W        W48852  32.500  13.144   7.644  0.1888 -0.1012  0.0689
 5800W        W48853  20.720  19.825  23.409 -0.2056  0.1113 -0.0995
 5801W        W48854  34.382  17.661  23.934 -0.3077 -0.0001 -0.1061
 5802W        W48855  17.769  11.593  15.687 -0.1111 -0.0312  0.1098
 5803W        W48856   0.274   9.960  14.765  0.0584  0.4577 -0.1029
 5804W        W48857  15.796  30.250   5.848  0.0805 -0.0129 -0.1851
 5805W        W48858  13.687  22.156  24.411 -0.1712 -0.1772  0.1338
 5806W        W48859  25.479   8.996  21.851  0.1954 -0.1421 -0.0077
 5807W        W48860  22.940   7.329  28.537 -0.4260  0.2527 -0.1684
 5808W        W48861  15.182  20.217   4.281  0.1334  0.1383 -0.0045
 5809W        W48862   3.748  33.516  18.949  0.0305 -0.1312  0.0982
 5810W        W48863  21.120  12.121  15.657 -0.2123 -0.0222  0.0038
 5811W        W48864  29.834  11.367  16.770  0.2613  0.0850  0.1945
 5812W        W48865  28.556   5.219  17.264  0.1016  0.3489  0.0506
 5813W        W48866  26.787  20.313   5.676  0.1369 -0.3467  0.0569
 5814W        W48867  13.994   6.658   4.503  0.1426 -0.2651 -0.0106
 5815W        W48868  30.136  13.356   2.979  0.1492  0.1175  0.0419
 5816W        W48869  24.736  29.510  16.040 -0.0088 -0.2075  0.0010
 5817W        W48870  20.655  17.827  21.918 -0.0631  0.2145 -0.1044
 5818W        W48871  16.970  30.762  18.527  0.2973  0.1079  0.3317
 5819W        W48872  22.864  18.546  19.625 -0.1533 -0.0264  0.2884
 5820W        W48873  20.538   5.171   5.929  0.4329 -0.1462 -0.0492
 5821W        W48874  34.241  17.774  15.315 -0.0555 -0.0913  0.0790
 5822W        W48875  27.076  23.680  15.215  0.0655  0.0138  0.1589
 5823W        W48876  14.870   5.569  17.443  0.1379 -0.0982  0.1061
 5824W        W48877   8.485   5.288  15.455 -0.2489 -0.0565  0.1940
 5825W        W48878  21.581   0.969  14.152  0.2133 -0.0020 -0.0228
 5826W        W48879  31.590  19.366  19.250  0.1573  0.0727  0.2815
 5827W        W48880  33.099   5.155  20.378 -0.1378  0.2995  0.0565
 5828W        W48881   4.042  21.606  23.700 -0.0004 -0.1437 -0.3576
 5829W        W48882  18.920  19.639  28.961  0.3595  0.1628 -0.0013
 5830W        W48883  19.128  29.446  15.127 -0.0827  0.0443  0.1663
 5831W        W48884   3.277  24.544  18.196 -0.1107  0.0807  0.0231
 5832W        W48885  20.197  25.960  26.971  0.0415  0.2386  0.1158
 5833W        W48886  19.283  29.676  23.348  0.0995  0.0031 -0.1705
 5834W        W48887  12.342  20.055  17.609  0.0313  0.1318 -0.2207
 5835W        W48888  26.543  17.178  13.767 -0.1007  0.3635  0.0162
 5836W        W48889  31.193  27.327  27.548  0.0182 -0.1589 -0.1924
 5837W        W48890   4.484  18.762  17.018  0.2021  0.0607  0.2873
 5838W        W48891  27.813  19.773  14.803 -0.0810 -0.0404  0.1128
 5839W        W48892  21.638  10.806  22.616 -0.1359  0.0026 -0.1230
 5840W        W48893  14.539  21.004  27.870  0.1230 -0.2442 -0.0137
 5841W        W48894  22.396  20.592  14.164 -0.1490  0.2089 -0.0269
 5842W        W48895  21.684  23.802   6.678  0.5358  0.0067  0.0647
 5843W        W48896   5.408  18.053  17.468  0.2012  0.0149  0.4486
 5844W        W48897  32.857  21.636  15.791 -0.0228  0.0986  0.3071
 5845W        W48898  20.033  14.249  25.386 -0.0829 -0.2884 -0.2091
 5846W        W48899  27.395   7.483  16.990 -0.2658  0.3439  0.2631
 5847W        W48900   7.734  18.976  16.297 -0.1268  0.0513  0.3237
 5848W        W48901  20.584  12.780  16.041 -0.0901  0.0460 -0.0088
 5849W        W48902  24.748  33.312   7.327 -0.1440 -0.0775  0.1012
 5850W        W48903   3.153  14.974   1.980 -0.1407  0.1929 -0.1552
 5851W        W48904  24.727   9.564  28.254  0.1215 -0.2860 -0.1212
 5852W        W48905  31.295  29.033   1.146  0.0282 -0.3271  0.1442
 5853W        W48906  28.400   1.045  28.099 -0.0977  0.1018  0.0243
 5854W        W48907  25.859  16.987   1.857  0.0373 -0.2419  0.3467
 5855W        W48908   4.200  13.850  17.946  0.1723  0.1286 -0.2135
 5856W        W48909  29.172  18.363  28.270 -0.2370  0.0036 -0.3083
 5857W        W48910   5.608   7.918  25.597 -0.0236  0.1326 -0.1129
 5858W        W48911  24.247  26.211   9.998  0.2014  0.1794  0.1208
 5859W        W48912  21.663  23.687  15.042  0.3326 -0.2663  0.1069
 5860W        W48913   0.019  20.122  19.720 -0.0378 -0.0964  0.0348
 5861W        W48914   1.098  32.861  15.648  0.0685  0.0874 -0.2316
 5862W        W48915  17.884  17.445   2.671 -0.2226  0.0286  0.2828
 5863W        W48916  28.834  25.494  22.384  0.0109 -0.0521  0.0496
 5864W        W48917   9.027  30.926  25.282 -0.1018  0.0864  0.3579
 5865W        W48918  20.558  31.372  24.283  0.3491 -0.0114 -0.2854
 5866W        W48919   4.919   2.758   0.873 -0.2887 -0.1071  0.3298
 5867W        W48920  27.046  26.345  20.222  0.1531  0.2124  0.2583
 5868W        W48921   8.237  19.287   0.927 -0.0802  0.1836 -0.1903
 5869W        W48922  22.073   9.795  19.291 -0.1155 -0.3240 -0.0508
 5870W        W48923   3.057  12.152  17.379  0.1486 -0.0708  0.1743
 5871W        W48924  22.973  13.186  18.881 -0.1456  0.0456  0.2958
 5872W        W48925   9.109  29.110  22.977 -0.0417 -0.1021  0.2359
 5873W        W48926  28.242  29.151   3.696  0.0646  0.1109 -0.0095
 5874W        W48927  17.313  31.197  27.959 -0.2021 -0.0201  0.0648
 5875W        W48928  11.297   9.992  15.766  0.1340  0.2308 -0.1866
 5876W        W48929   5.122  13.340   5.480  0.0554  0.0827 -0.1880
 5877W        W48930  23.154  24.006  18.223 -0.1696 -0.2365 -0.0999
 5878W        W48931  24.510  24.330  25.336 -0.0673  0.1550 -0.1107
 5879W        W48932  30.461  15.251   9.299  0.0249 -0.1598  0.1952
 5880W        W48933  17.388   5.044  16.110 -0.3357  0.1496 -0.0710
 5881W        W48934  32.505  28.405  27.603 -0.0819  0.0630  0.0652
 5882W        W48935  14.867  29.642  20.832 -0.2808  0.2473  0.1232
 5883W        W48936   6.550  25.132   1.186  0.2760  0.0936 -0.1999
 5884W        W48937  32.120  21.757  14.728 -0.1786 -0.3323 -0.2554
 5885W        W48938  25.833   9.792   7.524 -0.0014  0.0018  0.0003
 5886W        W48939   5.852  14.954  28.100 -0.0087 -0.1122  0.1565
 5887W        W48940  33.479  20.275   2.194  0.0624  0.3877  0.1441
 5888W        W48941   4.043  18.823  26.402  0.1814 -0.0387 -0.0203
 5889W        W48942   8.611   7.254   4.904 -0.0612  0.0439  0.1378
 5890W        W48943  19.557  13.241  16.821  0.2728  0.1840 -0.0842
 5891W        W48944  21.326  11.402   9.545  0.0612  0.1862 -0.1990
 5892W        W48945   1.647  28.225  14.681 -0.1865 -0.2106  0.1401
 5893W        W48946  15.198   7.347  22.559 -0.0297 -0.1047  0.3316
 5894W        W48947  17.491  21.734   4.080 -0.4354 -0.0664 -0.0155
 5895W        W48948   0.530  18.686  26.747  0.2471 -0.3166 -0.1435
 5896W        W48949  23.416  27.899  25.028 -0.1096  0.2093  0.1182
 5897W        W48950  28.783  23.227  24.162  0.3123  0.2005 -0.3510
 5898W        W48951  19.828  19.578  15.732 -0.2943 -0.0225  0.1892
 5899W        W48952   0.665  12.443   0.320  0.0424 -0.0729  0.0759
 5900W        W48953  24.389  16.668   2.027  0.0472 -0.2370 -0.0319
 5901W        W48954  34.377  12.363  18.769 -0.0060  0.1171  0.3032
 5902W        W48955  24.786   7.560  28.013 -0.0742  0.1589 -0.2005
 5903W        W48956  18.192  14.126   9.060 -0.7636 -0.0609  0.0267
 5904W        W48957  26.972  19.211  24.313  0.2433 -0.2019  0.2792
 5905W        W48958  17.190   9.955  28.275  0.1701  0.0780  0.2617
 5906W        W48959   0.571  12.686  23.358  0.4325 -0.2397  0.0963
 5907W        W48960  28.880  12.807   6.570 -0.1822  0.1281 -0.0318
 5908W        W48961   5.989  10.013   1.609 -0.2229  0.0004  0.1772
 5909W        W48962  15.337  12.829  16.580 -0.2259 -0.1248 -0.1363
 5910W        W48963   4.660  14.934  20.227  0.2310 -0.1258  0.0408
 5911W        W48964  26.937  20.435   8.303  0.2879  0.0859 -0.3004
 5912W        W48965  28.555  21.022  20.771  0.2368 -0.0834  0.3992
 5913W        W48966   1.289  19.328   7.916  0.0182  0.3128  0.1261
 5914W        W48967   0.780  22.223  24.927 -0.2792 -0.0863 -0.0230
 5915W        W48968  34.007  17.026   9.191  0.2237 -0.1245 -0.0967
 5916W        W48969  19.460   3.220  29.183 -0.0811 -0.1904 -0.1603
 5917W        W48970  10.783   2.040  27.518 -0.3052  0.0003 -0.1873
 5918W        W48971  24.014  28.547  18.496  0.2342 -0.1785  0.2253
 5919W        W48972  29.152  18.298  19.687  0.0071 -0.2084  0.2904
 5920W        W48973  24.561   9.953  23.785 -0.0787 -0.1448  0.0289
 5921W        W48974  16.508  24.273  22.373  0.0498  0.0385 -0.0834
 5922W        W48975  21.742  19.941   1.483 -0.0228 -0.0398 -0.3021
 5923W        W48976  29.374  11.836   2.430 -0.3364 -0.1590  0.0731
 5924W        W48977   5.114  10.880  15.298 -0.1131 -0.1215 -0.3415
 5925W        W48978  17.587  24.036   8.695  0.0299 -0.0523 -0.1276
 5926W        W48979  25.267  17.822  26.595 -0.2794  0.3226 -0.2764
 5927W        W48980  20.732   8.115  17.649 -0.0055 -0.3265  0.1379
 5928W        W48981  32.693  19.566  10.159 -0.1716 -0.0650  0.1424
 5929W        W48982   8.654  16.393  19.556  0.1431  0.2375 -0.0409
 5930W        W48983  27.611  11.530  24.385  0.2260 -0.2019 -0.3321
 5931W        W48984  24.953  12.395  17.119  0.1816 -0.2407  0.1148
 5932W        W48985  24.828  18.378   3.853  0.1662  0.0006  0.1964
 5933W        W48986   1.714   0.237  24.676  0.1914 -0.3110 -0.0198
 5934W        W48987  15.732  25.192  17.711  0.0357  0.0937  0.0344
 5935W        W48988  26.476   8.912  17.508  0.1310  0.4084 -0.0497
 5936W        W48989  28.118  15.596  28.023  0.1442  0.3824  0.2676
 5937W        W48990  23.733  10.016  21.689 -0.3388  0.0251  0.3605
 5938W        W48991  25.895  17.943   5.812  0.2808 -0.0436 -0.1857
 5939W        W48992  15.867  26.388  22.200 -0.2602 -0.2093 -0.0462
 5940W        W48993  28.382  16.849  20.725 -0.1386 -0.0361 -0.2051
 5941W        W48994  21.310  29.710  22.581  0.3562  0.0257  0.0743
 5942W        W48995  29.824  13.315  21.188 -0.0971  0.1115 -0.3409
 5943W        W48996  24.481  17.315  25.625  0.0283  0.0679  0.1238
 5944W        W48997  28.436  22.350  24.748  0.0312 -0.2396 -0.3133
 5945W        W48998  10.297  12.595   0.065 -0.2160  0.0868  0.0400
 5946W        W48999  26.070  23.320  13.902  0.2028  0.3498  0.1742
 5947W        W49000  26.684   0.885  22.519 -0.0635 -0.4862 -0.0818
 5948W        W49001  23.305  33.162  17.994 -0.1186  0.1184 -0.2106
 5949W        W49002  32.312  21.605   7.749  0.1110 -0.0858 -0.2178
 5950W        W49003  16.068  12.636  27.365  0.0378  0.1523 -0.1794
 5951W        W49004  31.019  14.644  19.534 -0.1473  0.1397 -0.0330
 5952W        W49005  11.013  19.111  21.310 -0.0844  0.1008  0.0103
 5953W        W49006  33.542  16.349  25.272  0.2433 -0.0713 -0.1828
 5954W        W49007  31.186   1.034  17.139  0.1959  0.4673 -0.1173
 5955W        W49008  25.277  20.011  23.855  0.0545  0.1900  0.1734
 5956W        W49009  19.555  19.995  15.720 -0.0087 -0.0800 -0.1810
 5957W        W49010  24.007  23.437   6.192 -0.1608 -0.3729 -0.3398
 5958W        W49011  18.467  13.621  27.505 -0.2868 -0.0435  0.3933
 5959W        W49012  27.611  22.331  25.965  0.1052 -0.0752  0.0117
 5960W        W49013   7.138   3.869  21.184 -0.4679 -0.0002 -0.1490
 5961W        W49014   5.214   6.660   1.198 -0.1897  0.2342 -0.1595
 5962W        W49015  18.948   7.679   9.373  0.3079 -0.0053  0.1691
 5963W        W49016  24.118  14.210   8.360  0.0286  0.4703  0.2258
 5964W        W49017  22.820  21.949  22.320 -0.0415  0.0923  0.0958
 5965W        W49018  15.575   6.891   2.252  0.0550  0.0775 -0.1846
 5966W        W49019  10.187  26.782  16.256  0.0285  0.1983  0.3512
 5967W        W49020  10.447  22.080   5.361 -0.1071  0.0656 -0.2828
 5968W        W49021  22.940  31.246  20.263 -0.1049 -0.0622  0.0513
 5969W        W49022  27.883  10.494   6.230  0.1868  0.1006  0.2856
 5970W        W49023  33.187  19.664  16.716  0.0407  0.0006 -0.1576
 5971W        W49024  20.457   3.211   3.538  0.0841  0.1885  0.2126
 5972W        W49025  28.084  24.423  22.757 -0.1328 -0.1217  0.0327
 5973W        W49026   5.767  24.638   1.136 -0.1370  0.1018 -0.0778
 5974W        W49027  26.623   2.999   2.394 -0.0533  0.1009  0.1602
 5975W        W49028  21.821  34.202  16.427  0.1792  0.1700 -0.1016
 5976W        W49029  22.006  21.264  16.922  0.4466  0.2353  0.2821
 5977W        W49030  30.843  21.579   3.124 -0.1736  0.1561 -0.1630
 5978W        W49031  21.218  10.388  20.159 -0.2221 -0.2351 -0.2538
 5979W        W49032  13.435  17.984   7.895  0.2883  0.1359  0.1228
 5980W        W49033   9.826  30.683  22.038 -0.1526 -0.1912  0.3284
 5981W        W49034  17.735  19.398  27.586 -0.1933 -0.1080 -0.1089
 5982W        W49035  20.827   2.320  16.388  0.0304 -0.0720  0.1361
 5983W        W49036  18.075  21.608   9.100  0.2084 -0.1949  0.0349
 5984W        W49037  21.470  16.804  26.032 -0.0324  0.1982 -0.3255
 5985W        W49038  28.011  10.018  17.380 -0.3050 -0.2252 -0.0801
 5986W        W49039  24.904  19.965   3.843  0.0659  0.2369  0.3481
 5987W        W49040  29.673  14.469   6.946  0.3300  0.2680  0.1730
 5988W        W49041  27.251   3.487  25.418  0.2463  0.0264 -0.1421
 5989W        W49042  31.889  14.847  27.373  0.0590 -0.1094  0.0445
 5990W        W49043  29.681   1.446  28.224  0.0675  0.1155  0.1826
 5991W        W49044  24.058  17.314  20.686  0.3306  0.1500  0.1644
 5992W        W49045  23.195  11.740  23.887 -0.3801  0.0739  0.0844
 5993W        W49046  19.687   0.815   2.197 -0.0405  0.2146 -0.1166
 5994W        W49047  31.077  29.895   7.073 -0.1394  0.0554 -0.1448
 5995W        W49048  23.583   6.178   1.968  0.1182 -0.1005 -0.1475
 5996W        W49049  15.973  11.165  13.798 -0.3798  0.0942  0.0937
 5997W        W49050  29.477  13.934  24.525 -0.1819  0.1538  0.0238
 5998W        W49051  13.657  22.784   0.957  0.2065  0.1153  0.3903
 5999W        W49052  30.959  12.098   6.505  0.0255 -0.1715  0.1015
 6000W        W49053  26.331   1.841  25.007  0.1050  0.1466  0.2371
 6001W        W49054  15.632  10.175  19.711 -0.0603 -0.0537 -0.2063
 6002W        W49055   7.020   6.435  23.782  0.0106 -0.1833  0.0187
 6003W        W49056  33.907  17.080  17.349 -0.0620  0.1587 -0.2147
 6004W        W49057  22.468   0.116   8.538 -0.0182  0.1000 -0.1643
 6005W        W49058  31.173   6.905  15.049 -0.0817 -0.0451  0.1418
 6006W        W49059  32.554   2.948  21.292  0.1803 -0.0245  0.4392
 6007W        W49060  25.885  19.861  21.077 -0.0066  0.3783 -0.1904
 6008W        W49061  25.839  27.266   9.439 -0.1788 -0.0960  0.2366
 6009W        W49062   1.448   6.853  22.912  0.1694  0.1142  0.2194
 6010W        W49063   4.342  10.175  26.457  0.1238  0.2540 -0.1820
 6011W        W49064  20.701   1.700  17.738 -0.0219 -0.0182 -0.0426
 6012W        W49065  11.193  17.206  14.322 -0.0071 -0.0260  0.2825
 6013W        W49066  34.624  14.123   5.406 -0.0325 -0.0884 -0.1326
 6014W        W49067  33.994  18.728  25.379  0.0598  0.0158 -0.0285
 6015W        W49068  29.223  11.976   6.932  0.0154 -0.1488 -0.1385
 6016W        W49069  21.317  22.698  15.810 -0.2770 -0.0617 -0.0832
 6017W        W49070  30.320   7.062  23.341 -0.2911  0.1897  0.2650
 6018W        W49071  30.873  16.719   7.283 -0.1860  0.3905  0.1518
 6019W        W49072  22.324   7.562  26.460  0.2586  0.0662 -0.0866
 6020W        W49073   3.295   2.937   1.040 -0.1857  0.0126 -0.1306
 6021W        W49074  29.462  15.456  28.907  0.1755  0.3067  0.3791
 6022W        W49075  20.325  28.175  20.012  0.2320 -0.0003 -0.4384
 6023W        W49076  25.813   9.126  24.754  0.0936  0.0311  0.0581
 6024W        W49077   4.645  14.916   0.415  0.0735  0.1903 -0.0839
 6025W        W49078  14.018  15.321   9.961  0.1403  0.1160  0.1223
 6026W        W49079  30.389  25.480  21.747  0.1563 -0.2108 -0.2384
 6027W        W49080  30.860  32.978  23.769  0.0691 -0.2832 -0.0884
 6028W        W49081  31.443   4.533  27.344  0.1973 -0.0239 -0.2139
 6029W        W49082  20.743  10.763   3.408  0.0646  0.3987  0.0912
 6030W        W49083  26.536  21.964   2.395  0.0527  0.0298 -0.1803
 6031W        W49084  24.834  20.422  15.665 -0.1413 -0.0266 -0.2546
 6032W        W49085   4.604  16.867  21.475  0.0464  0.0628 -0.2780
 6033W        W49086   6.703  24.041  14.430  0.0907  0.1586 -0.4044
 6034W        W49087  29.966  16.302  28.197  0.0918 -0.1149 -0.2932
 6035W        W49088   3.109  24.645   6.785  0.2622  0.0789  0.5616
 6036W        W49089   2.249  13.435  19.815 -0.0898 -0.1626 -0.2416
 6037W        W49090  17.181  14.837   4.091  0.0682 -0.4977 -0.1239
 6038W        W49091  23.359   1.666  15.049 -0.3734 -0.2316  0.0212
 6039W        W49092  17.901  16.608  28.369 -0.2699 -0.0226  0.0779
 6040W        W49093  22.868  30.312  23.456 -0.0559 -0.0012  0.4028
 6041W        W49094  19.109  17.383  22.527  0.2027  0.0177  0.0436
 6042W        W49095  22.363  31.453  23.968  0.1943  0.1152 -0.0448
 6043W        W49096  27.698   6.038  21.820  0.3439 -0.1085 -0.0439
 6044W        W49097  27.630   1.262   0.727 -0.0672 -0.1167  0.2415
 6045W        W49098  10.366  15.570  21.207 -0.0007 -0.0641  0.0050
 6046W        W49099  20.305  29.831  29.072  0.0489  0.1197 -0.4957
 6047W        W49100  22.634  32.956   6.632 -0.0770  0.0304 -0.0050
 6048W        W49101  31.905  13.202  24.471 -0.1140  0.0132 -0.0539
 6049W        W49102  23.931   4.648  21.422  0.1713 -0.2129  0.2605
 6050W        W49103  25.852  32.231  25.541 -0.0526  0.1285 -0.0822
 6051W        W49104  22.742  31.087   0.106  0.1547  0.2982  0.2268
 6052W        W49105   9.293  19.453  27.072  0.0244 -0.0336  0.0360
 6053W        W49106   4.246   1.693  25.865  0.0438  0.0485  0.1119
 6054W        W49107  30.391  17.076   3.991  0.1885  0.0453  0.3006
 6055W        W49108  18.571  17.774  13.035  0.4464 -0.0712  0.0804
 6056W        W49109  28.340   6.871   4.813  0.2126 -0.4262  0.1216
 6057W        W49110  28.482  16.962  16.527 -0.0198  0.1982 -0.0896
 6058W        W49111  19.594  27.522  21.445  0.1106 -0.0640 -0.2218
 6059W        W49112  15.055   8.757  27.604  0.0172 -0.1275 -0.4113
 6060W        W49113  21.507  26.643   0.176 -0.1324 -0.0800  0.1176
 6061W        W49114  33.509  11.775  21.838  0.0944  0.2587  0.0500
 6062W        W49115  21.409  28.096   1.715 -0.0160  0.0766 -0.0086
 6063W        W49116  29.150  17.969   9.068 -0.0704 -0.2328 -0.0262
 6064W        W49117  18.239   7.714  17.209  0.3766 -0.0298  0.4043
 6065W        W49118   0.958  13.128  24.547 -0.0351  0.1351  0.0195
 6066W        W49119  26.112  14.510  13.950 -0.2030  0.3355  0.1560
 6067W        W49120  29.192  21.037  25.926 -0.1727  0.0123 -0.1669
 6068W        W49121  20.852   3.389   9.884 -0.2221  0.1277 -0.1055
 6069W        W49122  28.941  23.020   3.740  0.1305 -0.0851  0.0006
 6070W        W49123  26.824   2.292   7.941  0.0976  0.1403  0.0016
 6071W        W49124  10.169   8.733   1.780 -0.0071  0.0686  0.1273
 6072W        W49125  16.961   6.349  20.383 -0.1902  0.2813  0.1142
 6073W        W49126  26.507  22.906  24.334  0.1313 -0.3075 -0.0272
 6074W        W49127  21.740  32.846  19.336  0.0056 -0.1962  0.1980
 6075W        W49128  21.183  11.572  16.356  0.0555  0.1768 -0.1774
 6076W        W49129   1.540  26.566  18.466  0.0606 -0.0252 -0.1998
 6077W        W49130   4.396  12.966  20.361  0.0341 -0.2756 -0.0955
 6078W        W49131  29.549  14.005  16.800 -0.0442  0.2683 -0.2280
 6079W        W49132  24.724  30.146  25.527 -0.0922  0.4545 -0.0130
 6080W        W49133  32.250   5.033  16.084  0.0735  0.2073  0.4278
 6081W        W49134  17.647  10.627   0.121 -0.0977  0.0346  0.1219
 6082W        W49135  28.748  33.467  25.394 -0.0097 -0.0920  0.0680
 6083W        W49136  29.947  27.963  27.300  0.0408 -0.5088 -0.3489
 6084W        W49137  30.011  24.911  22.937 -0.0503 -0.2272 -0.1415
 6085W        W49138  26.027   9.615   4.342  0.1631 -0.0632 -0.0776
 6086W        W49139  21.798  24.280  25.566  0.0595 -0.0057  0.1221
 6087W        W49140   2.256   8.730  14.483 -0.2189  0.0413  0.1679
 6088W        W49141  19.838  30.792  28.397 -0.0285  0.0958  0.2563
 6089W        W49142  21.924  18.750  23.646  0.1234  0.1644  0.1403
 6090W        W49143   2.174  17.835  18.208  0.3770  0.0509  0.0709
 6091W        W49144  26.706  16.419   3.315  0.1479  0.0166  0.0747
 6092W        W49145  26.916  26.401  10.224  0.0891 -0.0162  0.2576
 6093W        W49146  22.431  10.885   4.057 -0.1169  0.2318  0.3474
 6094W        W49147  31.323   6.947   3.941 -0.1870  0.1951  0.0030
 6095W        W49148  19.494   0.820   0.712 -0.1317 -0.4180  0.2390
 6096W        W49149   0.771   8.719  20.404  0.1355  0.1759 -0.0951
 6097W        W49150  22.382  25.585   3.886  0.0095  0.1336 -0.1976
 6098W        W49151  11.220   9.930  16.941 -0.0505 -0.0557  0.0173
 6099W        W49152  19.283  28.046  22.112 -0.2983 -0.0330  0.1881
 6100W        W49153   3.815  21.718   7.899 -0.0169  0.1984  0.1056
 6101W        W49154  24.188  25.778   6.718  0.3661 -0.1694 -0.0165
 6102W        W49155  11.565  13.043  28.154  0.0076  0.0654  0.1284
 6103W        W49156  25.064  16.457   8.232  0.0132 -0.3698  0.0124
 6104W        W49157  30.014  17.459  14.017  0.1248  0.4216  0.1080
 6105W        W49158   0.431  19.473   3.901  0.3544 -0.4657  0.1708
 6106W        W49159  26.662  16.284  28.114 -0.2738  0.0448 -0.3945
 6107W        W49160   6.932  14.347   3.231 -0.0313 -0.0148 -0.0645
 6108W        W49161   0.659   8.937  14.668  0.0523 -0.2633 -0.0702
 6109W        W49162  29.929  15.841   2.839  0.0083  0.3171  0.1070
 6110W        W49163   9.299  12.189  24.273  0.0549  0.1784  0.1684
 6111W        W49164  28.918  16.472  26.501  0.3173  0.1112 -0.0711
 6112W        W49165  29.799  11.078   1.412 -0.2829  0.0440  0.3464
 6113W        W49166  16.016  14.446  24.370 -0.0156  0.3940 -0.0365
 6114W        W49167  19.543  22.236   4.187 -0.2054  0.0552 -0.0347
 6115W        W49168  21.686  10.472  26.598 -0.1343  0.3042 -0.0014
 6116W        W49169  19.293  28.443  16.463 -0.1953 -0.0544 -0.0156
 6117W        W49170  25.656  26.597  25.283  0.0999  0.0794 -0.0886
 6118W        W49171  29.286   0.524  27.938 -0.1743 -0.0334  0.2192
 6119W        W49172   1.212   9.230   9.205  0.1196 -0.2017 -0.0667
 6120W        W49173  19.250  26.257  14.709  0.2393 -0.4243  0.5190
 6121W        W49174  10.899   6.301  28.743 -0.1593 -0.0125 -0.1115
 6122W        W49175  22.969   6.633   4.119  0.1510 -0.1008 -0.2896
 6123W        W49176  23.919  18.354  13.682  0.0389 -0.1442 -0.0396
 6124W        W49177  12.114   3.420  18.701 -0.1124  0.3424  0.2497
 6125W        W49178   1.224   6.679  18.327 -0.0502 -0.1251 -0.2396
 6126W        W49179  27.882  10.575  17.297 -0.0826 -0.2325 -0.0449
 6127W        W49180  30.004   0.219   2.999 -0.1001 -0.0024 -0.0706
 6128W        W49181  30.458   8.397  23.918 -0.1600  0.0389  0.3834
 6129W        W49182  20.941   6.955   3.184  0.0810 -0.2632  0.2613
 6130W        W49183  23.011  27.405  23.623 -0.0401  0.1295  0.1312
 6131W        W49184  25.210  33.751  28.136  0.2688  0.1110 -0.1285
 6132W        W49185  27.639  21.969  15.896  0.1129  0.1839  0.1260
 6133W        W49186  22.005   6.167  24.165  0.0508  0.1552 -0.0370
 6134W        W49187   0.893  26.615   4.563  0.1532  0.0701 -0.0763
 6135W        W49188   0.333  15.184  25.611 -0.0475  0.2504  0.0788
 6136W        W49189  27.730  23.828  13.932  0.0790 -0.2774 -0.0058
 6137W        W49190   2.623  13.941  24.932  0.1606  0.1124  0.4358
 6138W        W49191  23.629  27.356   6.838 -0.0477 -0.0268  0.0562
 6139W        W49192  12.067  23.186  19.402  0.0468  0.1490  0.0804
 6140W        W49193  21.092  24.855  23.953 -0.2247 -0.5284 -0.0814
 6141W        W49194  18.472  17.345  14.450  0.0846 -0.0949 -0.0999
 6142W        W49195  27.312  29.471  25.366 -0.1896  0.3556 -0.1241
 6143W        W49196  33.542   1.857   7.899 -0.1992  0.4005 -0.0310
 6144W        W49197  11.387  14.651  19.411  0.1900 -0.0527 -0.0155
 6145W        W49198  26.956  30.115  26.083 -0.2046  0.0640 -0.2763
 6146W        W49199  33.325  15.636  14.548  0.2975 -0.1459  0.2424
 6147W        W49200  19.550  17.112  15.924 -0.0151  0.0438 -0.0916
 6148W        W49201  28.853  22.669  23.949 -0.1225 -0.5852 -0.1274
 6149W        W49202  22.159  22.368  27.132  0.5281  0.3743  0.1166
 6150W        W49203   1.022  25.476  25.548 -0.3064 -0.1138 -0.0363
 6151W        W49204  31.016  11.044   5.773  0.1581  0.3260  0.0671
 6152W        W49205  31.124  11.733   0.779 -0.0090 -0.0200  0.2018
 6153W        W49206  15.506  27.771  16.576  0.1503  0.2732 -0.1476
 6154W        W49207  19.825   3.043  26.710  0.0703 -0.1478 -0.2572
 6155W        W49208   1.126   3.996  17.132 -0.1541  0.2820  0.1224
 6156W        W49209  23.142  17.127  15.135  0.1228 -0.3703 -0.0911
 6157W        W49210  31.764   4.656  28.635  0.2248 -0.0820 -0.1810
 6158W        W49211  27.262   5.167  24.605 -0.1846  0.1771  0.0294
 6159W        W49212  18.443  13.892  14.071  0.1239 -0.1400  0.0323
 6160W        W49213  23.396  11.982  21.246  0.3250 -0.3388 -0.0435
 6161W        W49214  22.295  19.032  15.973 -0.1299 -0.1134  0.3292
 6162W        W49215   7.302  12.868  16.171 -0.2980 -0.2176 -0.2337
 6163W        W49216  24.429  13.764   2.550  0.2089  0.0552  0.2421
 6164W        W49217  32.646  11.861  18.658 -0.0212  0.1698  0.1246
 6165W        W49218  20.274  20.126   4.148  0.1451  0.0549 -0.0687
 6166W        W49219  14.405  30.127  17.839  0.1238  0.2198 -0.4071
 6167W        W49220  24.655  15.976  18.577  0.1671 -0.1038  0.1376
 6168W        W49221  32.871   5.292   7.680 -0.3001  0.3912 -0.0431
 6169W        W49222  30.211  30.728  25.370  0.3344  0.2751  0.0547
 6170W        W49223   3.355   0.823  21.328 -0.0557  0.2235 -0.2542
 6171W        W49224  24.477   5.752  14.160 -0.5346 -0.1995 -0.0084
 6172W        W49225   3.197  18.611   0.207 -0.2234 -0.1659  0.0680
 6173W        W49226  11.711  18.264  24.545 -0.0631 -0.1050  0.2099
 6174W        W49227  29.408  14.916  15.388 -0.1809 -0.0154 -0.0951
 6175W        W49228  26.140  13.124  28.719 -0.0704 -0.0813  0.1833
 6176W        W49229  18.643  26.486  20.735 -0.1414  0.3623  0.2320
 6177W        W49230  31.929  13.723   0.294  0.0072 -0.2685  0.3338
 6178W        W49231   0.834  10.965  27.575  0.1658  0.2345 -0.1573
 6179W        W49232  19.434   4.647  26.758  0.0186  0.1125 -0.1792
 6180W        W49233  13.644   0.927   3.439  0.0008  0.1040 -0.1222
 6181W        W49234   2.765  16.577  17.628  0.0156 -0.0447  0.0388
 6182W        W49235   0.564  23.297  23.382 -0.0290  0.4268  0.0255
 6183W        W49236  23.694   5.353  14.654 -0.0325  0.1300 -0.0057
 6184W        W49237  25.236  16.833  18.399  0.1700  0.2656  0.0812
 6185W        W49238  31.614  12.646  26.460  0.2015  0.2079  0.1588
 6186W        W49239   0.657   7.551   0.233  0.0232 -0.0990 -0.1763
 6187W        W49240  23.455  19.776  22.447 -0.0186  0.0051  0.1040
 6188W        W49241  14.735   9.751  25.872  0.0326 -0.3256  0.1925
 6189W        W49242  20.344   8.409  28.062 -0.1248  0.2166  0.0995
 6190W        W49243  20.100   8.908  27.188  0.1003  0.1862 -0.0189
 6191W        W49244  24.163  21.831  14.319  0.2368  0.0844  0.0958
 6192W        W49245  10.942  19.131   3.706  0.0868 -0.0478 -0.1951
 6193W        W49246  15.960  20.113   2.565 -0.0612  0.4906  0.1373
 6194W        W49247  22.899  15.794   6.472 -0.0106 -0.2277  0.0981
 6195W        W49248  23.726   2.403  22.147 -0.0921  0.0722 -0.1674
 6196W        W49249  24.322  12.859  16.592 -0.4007 -0.0292  0.2306
 6197W        W49250  10.545  21.512   3.093 -0.1505 -0.1179  0.2080
 6198W        W49251  22.319   5.327  25.036 -0.0669  0.1638  0.0247
 6199W        W49252  32.316  15.661  14.898  0.0009  0.0663  0.0736
 6200W        W49253  17.061   1.423   3.932 -0.2130 -0.0316  0.2195
 6201W        W49254   5.423  11.688  19.344  0.0237 -0.2132 -0.2725
 6202W        W49255   7.722  11.672   3.357  0.2530 -0.0947 -0.0271
 6203W        W49256  31.677  14.261   1.636  0.0553 -0.4631  0.0369
 6204W        W49257  25.044  27.534  16.084 -0.2443  0.0367 -0.2049
 6205W        W49258  28.716   8.896  15.319 -0.0620  0.0021 -0.0872
 6206W        W49259  23.934  21.921   3.960  0.3499 -0.2001  0.1152
 6207W        W49260  27.905   0.666  22.577 -0.1882  0.0598  0.1910
 6208W        W49261  26.400  30.367  19.946 -0.1216  0.2038  0.3477
 6209W        W49262  15.143  19.322   6.696 -0.0859 -0.2019 -0.1355
 6210W        W49263  24.887  30.846   8.621 -0.0790 -0.2046 -0.0448
 6211W        W49264  11.625  13.847   9.703  0.2341  0.3739  0.1244
 6212W        W49265   9.718  18.022   1.271  0.3272 -0.0040 -0.1352
 6213W        W49266  24.766  16.611   2.469  0.2508  0.0925  0.1488
 6214W        W49267  30.601  29.569  26.134  0.5326  0.0763  0.0066
 6215W        W49268  24.546  19.495   1.463  0.1567 -0.1602 -0.1069
 6216W        W49269  28.514  23.242  22.909 -0.1226 -0.0920  0.2820
 6217W        W49270  26.565  31.573  28.543  0.1215 -0.0696 -0.1407
 6218W        W49271   0.697   4.150  24.717  0.1266 -0.1806  0.1428
 6219W        W49272  20.670  13.528  25.633 -0.0407  0.2566 -0.3656
 6220W        W49273  14.014  20.641   0.926  0.2663 -0.1744 -0.2896
 6221W        W49274  29.669   2.417  15.247 -0.1266  0.0891 -0.2650
 6222W        W49275  13.521  20.541   4.041 -0.0061  0.0961 -0.0733
 6223W        W49276   4.540  29.432  21.283  0.1741  0.1713  0.1232
 6224W        W49277  29.529  16.149  14.195 -0.0468  0.0514  0.0059
 6225W        W49278  24.959   8.818  22.415  0.2994  0.0970 -0.0025
 6226W        W49279  14.396  20.245  16.788 -0.1747 -0.2361  0.0565
 6227W        W49280   7.965   8.792  22.096 -0.0781 -0.0381 -0.0384
 6228W        W49281  16.846  23.251  22.544 -0.3535 -0.2155 -0.0135
 6229W        W49282  23.647  26.329  17.280  0.0262 -0.1193  0.2817
 6230W        W49283  22.429  10.464  21.639  0.2645 -0.0545 -0.1158
 6231W        W49284  10.440   4.768  20.169  0.0652 -0.2228  0.0717
 6232W        W49285  30.982  26.790   6.844  0.3287  0.0259 -0.0559
 6233W        W49286  30.486  25.636  18.846 -0.1441 -0.1175  0.2413
 6234W        W49287  22.234  18.765  13.972  0.0516 -0.5622 -0.0826
 6235W        W49288  19.204  14.312  13.106 -0.1459  0.0536  0.1117
 6236W        W49289  29.766  30.302  25.414  0.0791  0.0756  0.0939
 6237W        W49290   1.984  34.064   0.410  0.3903  0.0767  0.1573
 6238W        W49291   7.036  17.866  26.027  0.0773 -0.0494 -0.2739
 6239W        W49292  19.852  22.565  25.023 -0.1291  0.0034  0.1470
 6240W        W49293  31.026  12.564   0.357  0.1637  0.1566  0.5653
 6241W        W49294  22.003   5.587  26.611 -0.0454  0.2600  0.1944
 6242W        W49295  32.345  24.038   7.913 -0.0509  0.2174 -0.2555
 6243W        W49296  16.475   7.107   0.755 -0.1497  0.1499  0.0724
 6244W        W49297  34.067  14.478  28.715 -0.1663 -0.2186 -0.0345
 6245W        W49298   2.667  31.362  17.961 -0.1316 -0.2142  0.0760
 6246W        W49299  33.336  28.882  26.638 -0.1268 -0.1252  0.0167
 6247W        W49300  33.843   7.369  14.745 -0.1286 -0.0398 -0.1309
 6248W        W49301  16.154  27.497  27.221  0.0404 -0.0649  0.0055
 6249W        W49302  16.820  31.778   3.168 -0.0639 -0.4414  0.0740
 6250W        W49303  26.700  12.604   8.106 -0.4929  0.0530 -0.0456
 6251W        W49304   0.976   1.495  26.905  0.1953  0.2091  0.0947
 6252W        W49305  33.614  11.526  22.265  0.0361 -0.1117  0.5382
 6253W        W49306  29.972  15.289  20.559  0.0155  0.3146 -0.0388
 6254W        W49307  23.255   4.192   1.272  0.0167  0.1729 -0.0741
 6255W        W49308  20.619  10.332   5.412  0.1939 -0.0333  0.0410
 6256W        W49309  15.470  21.444   2.261  0.1941  0.0021 -0.1027
 6257W        W49310  10.799  12.923  25.302 -0.1017  0.2109 -0.0190
 6258W        W49311   2.024  11.875  26.089 -0.3140  0.1436  0.4575
 6259W        W49312   9.741  18.938   1.465 -0.3412  0.1585 -0.2906
 6260W        W49313  23.967   7.436  18.016 -0.2672  0.0880  0.0606
 6261W        W49314  27.749  12.441  18.961  0.2933 -0.2110 -0.1320
 6262W        W49315  31.633  29.833  14.973 -0.1332 -0.1330 -0.0805
 6263W        W49316  16.899  10.301  28.713 -0.0130  0.0580  0.2089
 6264W        W49317  11.299  12.435   5.198 -0.2458  0.1556 -0.0760
 6265W        W49318  21.090  22.991  20.006 -0.0372  0.0158 -0.1204
 6266W        W49319  19.711  11.631  16.384 -0.1128  0.3344  0.2190
 6267W        W49320  12.088  23.433  14.227  0.0521  0.4061  0.2075
 6268W        W49321  18.355   2.879  15.478  0.0230 -0.0469  0.0276
 6269W        W49322  27.622  11.424   2.964  0.3537  0.0320 -0.1382
 6270W        W49323  33.150  14.076  18.572 -0.1629 -0.0597  0.2525
 6271W        W49324  19.827  10.925  27.404 -0.0584 -0.4364 -0.1024
 6272W        W49325  29.454  10.684   1.481 -0.0249 -0.1778  0.0356
 6273W        W49326  29.229  14.906  23.947  0.2612 -0.1744 -0.0663
 6274W        W49327  23.201   8.334  22.555  0.0296 -0.0312 -0.3457
 6275W        W49328  27.660  15.150  24.708  0.2531 -0.0448 -0.0792
 6276W        W49329  20.050  16.514  13.374 -0.1689  0.1320  0.2325
 6277W        W49330  22.324  30.820  10.705  0.0951 -0.0598  0.0240
 6278W        W49331  32.803  20.339  25.483 -0.0302  0.0215 -0.0704
 6279W        W49332  10.499  18.392  24.553 -0.0550 -0.2710  0.5756
 6280W        W49333  23.156  10.750  28.531  0.0066 -0.0062  0.1444
 6281W        W49334  30.127  16.808  28.406 -0.5004  0.3101 -0.2588
 6282W        W49335  26.645  13.280  24.313 -0.1837 -0.1546 -0.1047
 6283W        W49336  27.227   4.139   4.687  0.1223  0.3102  0.2803
 6284W        W49337  26.598  24.742   9.489  0.2132 -0.1296 -0.0443
 6285W        W49338  22.248  20.616  25.539 -0.1216 -0.3392 -0.0410
 6286W        W49339   0.460  19.435   6.717 -0.2335 -0.2941 -0.0993
 6287W        W49340  22.120  19.096  18.377  0.3776  0.1169  0.2937
 6288W        W49341   1.743  23.491  28.372  0.0062 -0.1803 -0.1516
 6289W        W49342  20.813   8.115  25.127  0.0230  0.1211  0.0061
 6290W        W49343  33.000  23.676  16.544  0.1324  0.1963 -0.7576
 6291W        W49344  24.564   6.401  19.869  0.1550 -0.1649 -0.2224
 6292W        W49345  13.107  32.068  18.647 -0.2539  0.1575  0.0995
 6293W        W49346   3.795  17.831  13.980  0.1414 -0.2532 -0.0461
 6294W        W49347  21.058  23.591  19.292 -0.2027 -0.4834  0.0373
 6295W        W49348  24.999  21.081  29.043  0.0668 -0.0281 -0.0343
 6296W        W49349  23.048  14.524   7.235  0.1010  0.0821 -0.2183
 6297W        W49350  31.107   6.956   1.176 -0.0457  0.2831 -0.2131
 6298W        W49351  18.811   7.238  24.861  0.0054  0.3147 -0.0974
 6299W        W49352   7.667   6.135   6.318 -0.1155  0.2142 -0.1992
 6300W        W49353  32.291  11.106   6.922 -0.1105  0.0395  0.1599
 6301W        W49354  13.974  18.764   6.465 -0.1100  0.3050 -0.3327
 6302W        W49355  17.382  20.134  13.465  0.1778 -0.0711  0.1370
 6303W        W49356   8.717   2.032   4.485  0.4004 -0.0231  0.0985
 6304W        W49357  20.888  14.483  26.419  0.1332 -0.1731 -0.0543
 6305W        W49358  27.018  12.074   9.291  0.3021 -0.2357  0.2637
 6306W        W49359   3.781  16.167  22.368 -0.3041  0.0270  0.0500
 6307W        W49360  22.886  20.503   6.296  0.2216  0.3454 -0.0668
 6308W        W49361  25.267  15.753  24.571  0.5942  0.0973 -0.1718
 6309W        W49362  17.182  34.376  23.945  0.2061  0.1251 -0.0262
 6310W        W49363   1.330  28.714   1.120 -0.0483 -0.0806 -0.3090
 6311W        W49364   8.887  18.593  24.064  0.0472 -0.0633 -0.1505
 6312W        W49365  28.052  18.746  22.542 -0.1715 -0.2395  0.1034
 6313W        W49366  28.541  13.667  18.426  0.1599 -0.0869 -0.0497
 6314W        W49367  16.027  15.770  23.874  0.1551 -0.1318 -0.3485
 6315W        W49368   1.506  14.219   5.374 -0.3456  0.1056 -0.0408
 6316W        W49369  32.671   0.419  22.060  0.2154  0.0532 -0.1004
 6317W        W49370   5.621   1.946  18.641  0.1227  0.1971  0.0059
 6318W        W49371  11.307   0.736   2.158 -0.0397  0.0875 -0.0799
 6319W        W49372  30.529  14.425  23.562  0.2717 -0.1077 -0.1887
 6320W        W49373   3.544   3.035  18.363  0.0962  0.1066  0.0635
 6321W        W49374  20.269  30.245  28.725  0.2679  0.2713  0.0703
 6322W        W49375  26.605  12.064   3.980  0.0578  0.1895 -0.1610
 6323W        W49376  13.089  31.371   9.243  0.0859  0.3254 -0.1346
 6324W        W49377  15.012  21.368   2.064  0.1807  0.0925 -0.0125
 6325W        W49378  20.894  12.588  15.742  0.2480  0.0961 -0.1419
 6326W        W49379  18.506  11.688  13.833  0.0801  0.3014 -0.0007
 6327W        W49380  27.386  14.832  22.518 -0.0783 -0.1134 -0.1706
 6328W        W49381   0.110  34.393   3.258 -0.0305  0.3804  0.0534
 6329W        W49382  31.507  25.444   0.515 -0.2076 -0.2071  0.4049
 6330W        W49383  25.934  21.072  16.417 -0.4333 -0.2601  0.0185
 6331W        W49384  28.533   4.702  20.675  0.1457 -0.0756  0.3184
 6332W        W49385  20.431   8.518  13.997 -0.1352  0.1235 -0.1644
 6333W        W49386  20.116  11.271  14.134  0.1216 -0.0496  0.0145
 6334W        W49387  31.615  19.149  21.951 -0.0753 -0.0750 -0.1020
 6335W        W49388  29.554  24.358   0.075 -0.1577  0.3109 -0.0683
 6336W        W49389  32.666  27.880  28.295  0.1851 -0.0682 -0.0059
 6337W        W49390  22.055   7.754  18.889 -0.1484 -0.1861 -0.0320
 6338W        W49391  21.143  12.461   8.939 -0.1060  0.3432  0.0193
 6339W        W49392  24.104  10.932  17.937  0.1884 -0.0066  0.0655
 6340W        W49393  24.321  24.039  25.684 -0.0635  0.0386  0.0571
 6341W        W49394  23.381  31.453  19.288  0.2471 -0.1052 -0.1178
 6342W        W49395  20.312  20.229  24.249  0.3349 -0.0334 -0.1784
 6343W        W49396  21.427  15.272  20.377  0.2771 -0.1216  0.0554
 6344W        W49397  11.253   9.134  23.831 -0.1958  0.2986 -0.1988
 6345W        W49398  33.045  24.440   3.377  0.1461 -0.2708  0.2913
 6346W        W49399  25.688  10.718  16.858  0.0234 -0.4154  0.2113
 6347W        W49400  26.871  12.870  24.443  0.0978 -0.2070  0.1508
 6348W        W49401  16.478  32.501  27.726 -0.0590  0.1052 -0.1985
 6349W        W49402  11.540  13.613  15.027 -0.1550 -0.0043  0.0721
 6350W        W49403  20.318   7.037  27.018  0.0129  0.1326  0.0598
 6351W        W49404  31.440   9.881  22.570 -0.1986  0.0983 -0.2579
 6352W        W49405  28.690  11.660  10.020  0.1542  0.0986 -0.2196
 6353W        W49406  32.213  30.351  25.315  0.1354 -0.0850  0.1566
 6354W        W49407  10.822  19.851  15.532  0.1033  0.1226  0.1273
 6355W        W49408  26.369  24.053  21.096  0.0674  0.1098  0.3766
 6356W        W49409  13.755  21.635  21.613  0.0164 -0.1177  0.1457
 6357W        W49410  21.047  16.808  26.276  0.0635 -0.0078 -0.1198
 6358W        W49411  22.567  33.388   3.278  0.4307  0.1625  0.0771
 6359W        W49412  22.692  22.934  17.835 -0.0266 -0.1773  0.1775
 6360W        W49413   1.659   7.434  19.126  0.1986  0.0237  0.1515
 6361W        W49414  26.869  25.382  20.612  0.2551 -0.2362 -0.0720
 6362W        W49415  26.045  20.598  22.256  0.1330  0.1239  0.3571
 6363W        W49416  32.080  17.705  23.242  0.0134  0.2652 -0.1609
 6364W        W49417   0.405  33.439  21.943 -0.0525  0.1645 -0.0660
 6365W        W49418  32.540  13.531  28.988  0.2750 -0.0780  0.2019
 6366W        W49419   0.517  24.416  25.893 -0.2466 -0.0122 -0.0276
 6367W        W49420  33.845  25.996  22.742 -0.0295 -0.2446 -0.1260
 6368W        W49421   6.256  15.866   4.627 -0.0297  0.2682 -0.2618
 6369W        W49422  29.267  28.791  20.834  0.2513 -0.1647  0.2137
 6370W        W49423   2.924  26.391  17.370  0.1796  0.0429  0.0455
 6371W        W49424  15.460  11.761   9.080  0.2259  0.0652 -0.0028
 6372W        W49425  30.587  34.431  25.965  0.2594  0.0142 -0.0373
 6373W        W49426   0.900  17.883  17.210  0.0449 -0.2387 -0.2020
 6374W        W49427  30.436  19.415  19.222 -0.1697  0.2335 -0.0084
 6375W        W49428  19.162  32.676  22.297  0.1768  0.1553 -0.1763
 6376W        W49429  15.533  33.560   9.556  0.2235  0.3051 -0.3256
 6377W        W49430  23.318  29.318  18.946  0.0900 -0.1395 -0.0188
 6378W        W49431  33.099  22.714  19.710  0.1552 -0.0387 -0.1361
 6379W        W49432  20.900  26.093  20.479  0.0240  0.0965 -0.2939
 6380W        W49433   5.495   9.204   6.959  0.1320  0.0391 -0.1679
 6381W        W49434  23.250  15.053  19.746  0.4220 -0.1294  0.2208
 6382W        W49435  17.991  11.802   4.403  0.0793 -0.0146  0.1062
 6383W        W49436   0.402  22.738  23.195  0.1799  0.0391 -0.0562
 6384W        W49437  29.040  20.244  18.222 -0.2506 -0.1564  0.1957
 6385W        W49438  14.662  11.567  28.664 -0.0030  0.0221 -0.0423
 6386W        W49439  18.470  16.365   0.988 -0.1151  0.1001  0.0800
 6387W        W49440  20.537   4.812  27.661 -0.0400  0.1462  0.0164
 6388W        W49441  28.327  17.981   6.632 -0.1113 -0.0601 -0.1905
 6389W        W49442  20.194  12.063  27.561  0.2246 -0.1642 -0.0698
 6390W        W49443  28.073   8.279  20.227 -0.0377 -0.1082  0.2548
 6391W        W49444   8.584  10.162   3.898 -0.0742 -0.1961 -0.1228
 6392W        W49445   3.719  29.066   8.443 -0.2298  0.2233  0.0176
 6393W        W49446   5.950  17.515  25.240  0.3080  0.1895 -0.2639
 6394W        W49447  23.781  18.323  14.589 -0.1377  0.1391  0.0738
 6395W        W49448  25.367  15.000  23.580  0.2884 -0.0718 -0.1681
 6396W        W49449  20.799   2.213   5.713 -0.2347 -0.4011 -0.0620
 6397W        W49450  27.260  22.091  13.713  0.2087  0.0933  0.2677
 6398W        W49451  21.137   3.579   8.126 -0.2521  0.0098 -0.1888
 6399W        W49452  29.771  10.459  23.476  0.0315 -0.0162 -0.1203
 6400W        W49453  23.106  22.148   2.124  0.2703 -0.0179  0.1815
 6401W        W49454  27.104  29.287  19.240  0.0646  0.1210 -0.1068
 6402W        W49455  13.260  11.580  23.957  0.0329 -0.3113  0.3985
 6403W        W49456  20.054  25.428   4.592 -0.0203  0.3100  0.2493
 6404W        W49457  15.691  11.719  17.319  0.1247  0.0778 -0.0031
 6405W        W49458  20.384  21.604  21.383  0.2924  0.1522 -0.1976
 6406W        W49459  23.553  18.629  26.664  0.2551  0.1151  0.3227
 6407W        W49460  27.957   7.011   5.908  0.1306  0.0722  0.2195
 6408W        W49461  29.022  24.785   1.162  0.0579  0.3501 -0.1492
 6409W        W49462  26.154  15.472   7.700  0.0446  0.0437 -0.1002
 6410W        W49463   1.003  16.034  25.044 -0.1207 -0.0745 -0.1208
 6411W        W49464  15.915   3.627  19.942  0.0462 -0.0657  0.0681
 6412W        W49465  13.758  20.333  25.954  0.2180  0.1400  0.0606
 6413W        W49466   0.808  25.612  28.843  0.3029 -0.1731 -0.4179
 6414W        W49467   1.766  12.602   5.025 -0.0657  0.3276  0.0895
 6415W        W49468  19.986   8.520   9.513 -0.0428  0.0677  0.1798
 6416W        W49469  22.183   8.093   9.839 -0.1327 -0.0549  0.0112
 6417W        W49470  27.157   4.176   6.118  0.0040  0.2399 -0.1121
 6418W        W49471  32.377  27.598  24.879  0.0524 -0.0138 -0.0104
 6419W        W49472  25.396   7.168   4.706 -0.1641 -0.3883  0.1470
 6420W        W49473   9.326  17.719  21.746 -0.0575 -0.0420  0.0042
 6421W        W49474  28.743  30.659  15.772 -0.0632  0.2780  0.0362
 6422W        W49475  29.335  11.232  23.690  0.1965  0.0394 -0.1150
 6423W        W49476  21.172  18.250  25.724  0.0354  0.1909 -0.0561
 6424W        W49477  31.503  16.668   6.282  0.3727  0.2761 -0.2792
 6425W        W49478   8.970  27.206  16.618 -0.1134  0.0087  0.3817
 6426W        W49479  30.566  24.306  14.780  0.3497  0.1408  0.1960
 6427W        W49480  15.283   2.495   1.624 -0.0658  0.1048  0.0388
 6428W        W49481  26.058  30.345  28.260 -0.2009  0.0174 -0.0505
 6429W        W49482  24.802  11.573   0.235 -0.1261  0.3687  0.2198
 6430W        W49483  23.637  32.953  25.236 -0.1441  0.0762  0.3755
 6431W        W49484   5.968  19.842  26.079  0.3082 -0.1331  0.1517
 6432W        W49485  34.403  10.734  23.005  0.3267 -0.1800 -0.0125
 6433W        W49486  26.725  12.779  19.770  0.3396  0.0374  0.2259
 6434W        W49487  17.274  20.273   9.752 -0.4316 -0.4386 -0.0847
 6435W        W49488  23.099  12.204  25.142 -0.0504  0.2518  0.3206
 6436W        W49489  25.509  32.080  27.677 -0.2120  0.0928  0.2178
 6437W        W49490  15.259  18.687   0.823 -0.4028 -0.3991  0.1341
 6438W        W49491   2.669  10.879   6.712 -0.3971 -0.0910 -0.1431
 6439W        W49492  14.041  29.729   7.883  0.3623  0.1289 -0.0314
 6440W        W49493  26.265  30.387  15.055  0.1108 -0.1977 -0.1987
 6441W        W49494  26.128  11.384   8.760 -0.0704  0.0903  0.2453
 6442W        W49495  28.241  26.056  29.131  0.2657  0.0695  0.5043
 6443W        W49496  22.869  32.896   8.463  0.3617 -0.1305 -0.1472
 6444W        W49497  25.780  31.395   6.766  0.0750 -0.1423 -0.3002
 6445W        W49498  24.141   8.259  18.146  0.0220 -0.0007 -0.0904
 6446W        W49499  23.035   8.184  28.786 -0.1380  0.1140  0.1390
 6447W        W49500  32.342  25.046  14.231 -0.0124  0.0560 -0.0739
 6448W        W49501  16.713   2.910  24.340  0.2736  0.0037  0.1576
 6449W        W49502  11.234  11.249   0.809 -0.0820 -0.0278  0.2993
 6450W        W49503  13.268   7.617  20.360  0.1877 -0.5358  0.0088
 6451W        W49504   6.474   9.907   2.183 -0.0238  0.1508  0.0070
 6452W        W49505  27.953  24.653   4.529  0.0675  0.1713  0.2507
 6453W        W49506  21.519  22.328  17.588  0.0558  0.1211  0.1512
 6454W        W49507  30.381   6.455  23.617 -0.0582 -0.0383 -0.2701
 6455W        W49508  32.194   9.628   9.555  0.1918 -0.1399 -0.0524
 6456W        W49509  32.255   9.972  14.190  0.1253 -0.2949  0.2898
 6457W        W49510  13.112  12.882  26.014 -0.2436  0.2381 -0.2999
 6458W        W49511  13.664  14.778  18.010 -0.0104  0.1001 -0.1202
 6459W        W49512   7.277  11.302  19.043 -0.0904 -0.1553 -0.0899
 6460W        W49513   3.065  11.608  25.437 -0.2267 -0.1684  0.1147
 6461W        W49514  23.457   0.866  23.023  0.0440 -0.3171 -0.3329
 6462W        W49515  29.474  11.343  18.929 -0.0813 -0.0542 -0.0367
 6463W        W49516  13.430  18.561   7.473  0.1785 -0.0696 -0.4340
 6464W        W49517  30.927  17.211   2.357 -0.0555  0.0390  0.0145
 6465W        W49518  29.341  17.953  14.422  0.1062 -0.0570 -0.2019
 6466W        W49519  25.343  13.835   5.338 -0.0645 -0.1142  0.2188
 6467W        W49520  25.857  28.747   1.369 -0.1624  0.0063 -0.0501
 6468W        W49521  25.203   4.591  25.619 -0.1822 -0.1890  0.2534
 6469W        W49522   9.698  15.197  24.324 -0.0819 -0.0916 -0.0208
 6470W        W49523  14.086   9.822  26.388 -0.3308  0.0332  0.3096
 6471W        W49524  12.735  16.741  16.178  0.3212  0.2960 -0.2763
 6472W        W49525  19.528  28.034  26.611 -0.2314 -0.0565 -0.1849
 6473W        W49526  14.619  17.427  17.340 -0.2952 -0.1589  0.1762
 6474W        W49527  25.690   8.859  19.806 -0.2243 -0.1240  0.1347
 6475W        W49528  29.216   6.341  23.275 -0.2678  0.1143 -0.2532
 6476W        W49529   0.378  25.296  23.325  0.1263  0.2683 -0.0795
 6477W        W49530  15.214  20.586  25.001  0.0811 -0.1350  0.2703
 6478W        W49531  17.809  15.044  26.845 -0.1640 -0.0199 -0.2997
 6479W        W49532  26.721  25.769   9.853  0.0556  0.1898 -0.0240
 6480W        W49533  23.079  32.413  28.928  0.0113  0.0867 -0.2282
 6481W        W49534  31.732  12.597   2.994  0.2518 -0.0170  0.1976
 6482W        W49535  24.790  10.231   1.429  0.0911 -0.2540  0.2377
 6483W        W49536  21.566  12.810   0.286 -0.0844  0.4640  0.0124
 6484W        W49537   0.303  33.938   3.352 -0.1226 -0.1664  0.2356
 6485W        W49538   0.597   8.740  23.724  0.1433 -0.2274  0.0475
 6486W        W49539  24.043  23.891   2.654 -0.0247 -0.2307  0.0879
 6487W        W49540   6.980  16.382  28.070 -0.1522 -0.0653 -0.0185
 6488W        W49541  17.904   3.541  24.523 -0.2466 -0.3385  0.3960
 6489W        W49542  33.310  19.421  19.400 -0.4316 -0.2401 -0.0088
 6490W        W49543   0.050  27.452  16.190 -0.1615 -0.0369 -0.1929
 6491W        W49544   3.552  23.504  14.562  0.1326  0.2558  0.0431
 6492W        W49545  21.314  18.200  15.722  0.1977 -0.0714  0.1671
 6493W        W49546   4.048  10.981  20.458 -0.2382 -0.0554 -0.1532
 6494W        W49547  23.854  29.621  27.352  0.0534 -0.1193 -0.1398
 6495W        W49548  22.205  24.403  10.058 -0.1592  0.0694 -0.3409
 6496W        W49549   6.802  15.364  27.223 -0.0921  0.0638 -0.1025
 6497W        W49550  25.782  16.615   6.585 -0.0597 -0.1466  0.0628
 6498W        W49551  19.562  15.955   6.328  0.0164 -0.3844  0.1313
 6499W        W49552   5.063  17.363  28.354 -0.0257  0.0890 -0.0077
 6500W        W49553  15.647  25.777  20.731 -0.5436 -0.3215  0.3561
 6501W        W49554  23.637   8.630  21.099  0.1971  0.2965 -0.0855
 6502W        W49555  29.329   8.522  23.719 -0.4081 -0.2296  0.1036
 6503W        W49556  27.527  23.556  10.789  0.2335  0.1212  0.0359
 6504W        W49557  23.427   2.288   1.109 -0.1344  0.1107  0.0938
 6505W        W49558  23.296  27.080  26.154  0.2183  0.1728  0.0492
 6506W        W49559  29.358  27.231  26.083  0.0662 -0.4850  0.2584
 6507W        W49560  18.853  17.037  27.236 -0.2595  0.1057  0.0390
 6508W        W49561  22.373   4.341  18.945 -0.0332  0.0395 -0.4326
 6509W        W49562  31.310  31.980   1.326 -0.1869  0.3381  0.0397
 6510W        W49563  12.811   5.169   6.242  0.2837 -0.1915 -0.4104
 6511W        W49564  21.444  29.878   9.734 -0.1983 -0.0457 -0.2193
 6512W        W49565  28.522  11.550  22.271 -0.0456 -0.0953  0.0157
 6513W        W49566  32.568  22.507  18.100 -0.1735 -0.1763 -0.2242
 6514W        W49567  21.866  14.644  29.197 -0.2273 -0.0115 -0.1222
 6515W        W49568  18.632   6.433  10.054 -0.1055  0.1715  0.2146
 6516W        W49569   2.278  18.957  24.544  0.2278  0.2591 -0.1190
 6517W        W49570   4.845  14.631  25.347  0.0074 -0.1059  0.0171
 6518W        W49571  24.723  18.720  23.530 -0.4381 -0.0221 -0.2475
 6519W        W49572  18.439   6.398  28.145  0.0622 -0.1835 -0.3031
 6520W        W49573   8.827   4.313   4.695 -0.0368  0.1765 -0.2114
 6521W        W49574  13.063  11.422  15.850  0.4414  0.2671 -0.1442
 6522W        W49575  31.215  23.161  14.845  0.2330  0.4173 -0.1114
 6523W        W49576  28.172  15.177   3.490  0.1779 -0.0765  0.1073
 6524W        W49577   9.189  15.322  28.875  0.0275  0.1844  0.2660
 6525W        W49578   1.239   5.559   3.044 -0.0820  0.0215 -0.2289
 6526W        W49579  27.225  26.023  22.112  0.1811 -0.0586 -0.1324
 6527W        W49580  21.594  20.588   6.763 -0.2492  0.0453 -0.3189
 6528W        W49581   2.509   7.690  20.075 -0.3756  0.3450 -0.0730
 6529W        W49582  24.308  31.674  17.545  0.1152 -0.1068  0.0752
 6530W        W49583  13.821  12.327  24.263  0.1555 -0.0248  0.2769
 6531W        W49584   7.370  16.378   5.259  0.1110  0.0665  0.0796
 6532W        W49585  16.288   1.008   2.579 -0.1220 -0.0816  0.0782
 6533W        W49586  28.201  17.669  22.534  0.2296  0.2121 -0.0478
 6534W        W49587   0.622  11.736   6.588 -0.1911 -0.2155 -0.0303
 6535W        W49588  19.512  17.877  25.343  0.2382  0.0968  0.3741
 6536W        W49589   8.105  21.645  27.160  0.0202  0.1004 -0.2065
 6537W        W49590   9.634  14.892   3.177 -0.1024  0.2222  0.0189
 6538W        W49591  18.774  10.829  28.210 -0.2467  0.0729  0.0104
 6539W        W49592   3.244  11.585   6.254  0.0091 -0.2403  0.1107
 6540W        W49593  12.315  27.626  20.843 -0.4703 -0.2585 -0.0102
 6541W        W49594  27.542  15.488  19.141 -0.3710 -0.1198  0.2734
 6542W        W49595  24.574  13.901   5.199  0.4269  0.2071  0.1196
 6543W        W49596  12.600  26.693   2.127  0.0389  0.0882  0.0328
 6544W        W49597  25.745  15.502  25.814  0.1209 -0.1030  0.0938
 6545W        W49598  31.940  22.038  18.413  0.0141  0.0759 -0.1081
 6546W        W49599  17.131  25.759   2.912 -0.0988 -0.1301 -0.3347
 6547W        W49600   7.492  11.702  16.154  0.1265  0.0861 -0.1829
 6548W        W49601  15.045  16.195   8.840  0.1615 -0.0235 -0.0452
 6549W        W49602  34.590   6.386  21.845  0.0001 -0.0112  0.0454
 6550W        W49603   8.181  23.529   4.461 -0.1273  0.0486  0.1662
 6551W        W49604   9.544  14.201  17.700 -0.1748 -0.0563  0.2309
 6552W        W49605  25.425   7.087   9.040 -0.4163  0.0448 -0.1870
 6553W        W49606  20.190  12.489   3.607 -0.0803  0.0342  0.2558
 6554W        W49607   3.054   8.087  16.745  0.2474 -0.2575 -0.1670
 6555W        W49608  24.683  10.647   9.220 -0.1958  0.0337 -0.2181
 6556W        W49609  25.167  23.455   6.750 -0.0436  0.3645  0.0083
 6557W        W49610  32.782  13.933  20.834 -0.3464 -0.0566 -0.0900
 6558W        W49611  33.979   0.405  24.551  0.2398 -0.2781 -0.1526
 6559W        W49612  32.124   9.084  28.895  0.0060  0.3038 -0.2386
 6560W        W49613  21.965   4.506  21.078 -0.0538 -0.0293 -0.0626
 6561W        W49614  24.676  11.399  20.053 -0.0047 -0.3344 -0.1672
 6562W        W49615  10.785  17.578  26.435 -0.0264 -0.0476 -0.1783
 6563W        W49616  18.407  20.539   6.568 -0.0296  0.0141 -0.0122
 6564W        W49617  29.439  26.619  15.389 -0.1326  0.0078 -0.0356
 6565W        W49618  33.418  13.747   0.591  0.2816 -0.1179  0.1253
 6566W        W49619  30.992   8.411   0.318  0.0071  0.0856  0.1101
 6567W        W49620   9.783   5.839   2.157 -0.1143  0.3400  0.0654
 6568W        W49621  31.900  29.621  24.486 -0.0558  0.0735  0.0204
 6569W        W49622   5.219  18.182  21.402  0.2445  0.0688  0.0704
 6570W        W49623   7.188  10.025  21.776  0.2617  0.0784  0.2472
 6571W        W49624   8.671   9.887  24.555  0.0183  0.0332 -0.4108
 6572W        W49625  15.568  18.003   6.943 -0.0097 -0.4640 -0.1938
 6573W        W49626  26.673  14.582  27.552 -0.2230  0.3429  0.0016
 6574W        W49627  24.808  18.792   2.599  0.1656 -0.2485  0.2887
 6575W        W49628  18.192  29.970  16.593 -0.0937 -0.0075  0.1264
 6576W        W49629  21.678   2.887  26.835  0.2471  0.2916  0.2388
 6577W        W49630   0.921  15.447  20.782  0.1950  0.1108 -0.2417
 6578W        W49631   1.738   7.134  23.236 -0.1852  0.0888  0.1485
 6579W        W49632  19.220  25.099  22.058  0.0480 -0.3453 -0.0619
 6580W        W49633  13.317  19.156  19.492  0.0152 -0.1287  0.1864
 6581W        W49634  28.706   7.331  20.306  0.1878 -0.1574 -0.0307
 6582W        W49635  20.426   9.078   1.232 -0.0659 -0.3289  0.0301
 6583W        W49636  24.701  18.842  10.502 -0.0091 -0.1182  0.0720
 6584W        W49637  33.975  26.330  25.934  0.1660  0.1306 -0.0674
 6585W        W49638   2.469  20.522   0.700 -0.2010  0.0622  0.0622
 6586W        W49639  16.293  12.391  21.886  0.2445  0.0071 -0.1570
 6587W        W49640   2.589  20.070   0.935  0.2758  0.1862  0.0471
 6588W        W49641  17.105  26.423   9.690  0.0660  0.1751 -0.0891
 6589W        W49642  17.223  13.642  14.840 -0.0470  0.1811 -0.1591
 6590W        W49643   0.101  15.387  16.481 -0.1296 -0.4172 -0.0357
 6591W        W49644  24.090  10.803  25.756  0.2084 -0.0414 -0.0429
 6592W        W49645  22.005  17.375  21.024 -0.1907  0.0676  0.1665
 6593W        W49646  23.778  23.074  17.120  0.0460 -0.0646 -0.1288
 6594W        W49647  21.799   6.708  25.924  0.1296  0.2291 -0.6172
 6595W        W49648  23.084   8.777   7.633  0.2535  0.0391  0.1018
 6596W        W49649  13.475  17.065  22.063  0.0748 -0.0643  0.0676
 6597W        W49650   9.384  13.182  25.195  0.5613 -0.2164  0.1623
 6598W        W49651  25.120   1.654   7.045 -0.0737  0.1315 -0.4590
 6599W        W49652  19.089   6.124  17.037  0.0404 -0.0038 -0.3062
 6600W        W49653  16.588   1.788  22.429 -0.0911  0.1594  0.3319
 6601W        W49654  17.343  30.663  25.801 -0.1213 -0.0104 -0.2807
 6602W        W49655  22.056  22.949  19.120  0.0554 -0.1624 -0.0258
 6603W        W49656  22.231  18.676  21.544 -0.1380  0.4200 -0.2165
 6604W        W49657   1.039  23.089  20.400  0.0242  0.0410  0.0000
 6605W        W49658  23.112  13.530   1.893 -0.0614  0.1562 -0.0566
 6606W        W49659  33.609   0.506   8.544 -0.1901 -0.1215  0.0079
 6607W        W49660  33.274   6.190  19.938  0.4937 -0.0505 -0.3184
 6608W        W49661   6.147  17.084  16.539 -0.0804  0.0419 -0.0941
 6609W        W49662  21.768  27.457  25.836 -0.0553  0.0279  0.0603
 6610W        W49663  20.008  21.324  22.452  0.0359  0.0165 -0.4097
 6611W        W49664  29.335  29.106  28.057  0.3017 -0.0664  0.0970
 6612W        W49665  21.012  34.199  17.804 -0.3749 -0.1120  0.0374
 6613W        W49666  26.437  14.793  14.793  0.0475  0.1076 -0.1675
 6614W        W49667  21.192  19.266  16.390 -0.1134  0.0766  0.1605
 6615W        W49668   4.349   3.065   4.150  0.0595  0.1046 -0.1081
 6616W        W49669  24.627  10.580  16.455 -0.0600  0.0636 -0.6740
 6617W        W49670  26.843  22.764  25.556 -0.2095 -0.2115  0.1140
 6618W        W49671  25.950  26.999   2.591  0.5242  0.1880  0.0894
 6619W        W49672  26.713   8.109  27.531  0.0160 -0.0347  0.0469
 6620W        W49673  20.186   9.616   4.134  0.0858 -0.1960  0.0095
 6621W        W49674  17.052  10.404  19.342  0.0139  0.0288  0.0313
 6622W        W49675  16.298   9.990  28.616 -0.3279  0.0459  0.1429
 6623W        W49676  15.120  16.487  25.704  0.1966  0.0988  0.0904
 6624W        W49677  33.092   8.586  22.757 -0.2439 -0.2380 -0.3346
 6625W        W49678   6.807  15.688  25.479  0.0394  0.1888  0.2196
 6626W        W49679  15.907  19.871  27.504 -0.2038 -0.2021 -0.0962
 6627W        W49680  29.935   5.841   7.898  0.1620 -0.0363  0.0371
 6628W        W49681  28.186  25.382   3.956  0.0302  0.0931  0.1748
 6629W        W49682  33.171   0.574   3.833 -0.0574 -0.2660 -0.2057
 6630W        W49683  18.110  15.248   2.484  0.1894  0.1175  0.2353
 6631W        W49684  13.781  18.573  15.893  0.0578 -0.1050 -0.2171
 6632W        W49685   2.209   6.101  28.452 -0.2178  0.4547 -0.0594
 6633W        W49686  23.916  18.878   1.090 -0.0076 -0.1636  0.1664
 6634W        W49687  29.470  13.107  25.490 -0.1897  0.0246  0.1480
 6635W        W49688  30.784   8.679  15.032  0.2060  0.1397 -0.1090
 6636W        W49689  21.625  22.409   0.433 -0.1822  0.1341  0.2703
 6637W        W49690  23.352   4.785   0.250  0.3865  0.1988  0.3410
 6638W        W49691  12.302  17.801   1.872 -0.2206 -0.1799  0.2415
 6639W        W49692  24.450  18.996  24.250 -0.0802  0.1070  0.2060
 6640W        W49693  16.375  17.549  24.711 -0.2150  0.0275 -0.1286
 6641W        W49694  19.345  27.663   1.744  0.0572  0.0011 -0.0507
 6642W        W49695   9.444  17.457   6.062  0.1710 -0.0132 -0.0744
 6643W        W49696  33.906  13.204   3.473 -0.2984  0.1772  0.2076
 6644W        W49697  28.006   7.859  27.483 -0.1945  0.0944  0.1223
 6645W        W49698  22.783  10.653   7.958 -0.1143  0.2717 -0.2071
 6646W        W49699  34.267  27.091  20.078 -0.0620  0.0944 -0.2055
 6647W        W49700  13.876  13.601   8.185 -0.0565  0.1360 -0.1491
 6648W        W49701  33.243  14.716   6.096 -0.0661  0.1872  0.2770
 6649W        W49702  22.947  16.239  25.296 -0.3277  0.3126 -0.2346
 6650W        W49703  21.447  14.168   3.512  0.1071 -0.0246  0.2642
 6651W        W49704  30.091   2.653   7.434  0.3432 -0.1690  0.0611
 6652W        W49705  34.181   4.620   4.676  0.0913  0.0014  0.1159
 6653W        W49706  24.985  23.510   8.847  0.1438 -0.1269 -0.1000
 6654W        W49707  11.914   7.841  10.166 -0.1870 -0.0004  0.2267
 6655W        W49708  29.334  20.446  16.960  0.0778  0.0487  0.3434
 6656W        W49709  18.139  25.857  18.507 -0.0977  0.1927 -0.2085
 6657W        W49710  27.640  18.328  17.384 -0.0405 -0.0184  0.3953
 6658W        W49711  26.371  31.277  19.417 -0.1445 -0.1112  0.1075
 6659W        W49712  14.517  31.092   8.250  0.1511 -0.3785 -0.0986
 6660W        W49713  22.721  30.757  25.042 -0.0995 -0.1635 -0.2170
 6661W        W49714   7.882  21.650  22.480 -0.5447 -0.0339 -0.2670
 6662W        W49715  12.713  10.233   6.447 -0.0299 -0.1847 -0.0621
 6663W        W49716   9.911  13.370  18.055  0.1518  0.1768  0.1307
 6664W        W49717  22.537   7.210  23.721  0.0203  0.1985 -0.0249
 6665W        W49718  20.154  23.944   8.496  0.0026  0.4625  0.0789
 6666W        W49719  13.237  14.085  28.242 -0.0132  0.1357 -0.2766
 6667W        W49720  25.139  33.540  18.578 -0.0435 -0.2251 -0.3099
 6668W        W49721  28.402  19.158   9.519 -0.0320 -0.1788  0.0335
 6669W        W49722  21.419  13.270   0.462  0.2224  0.0328 -0.2269
 6670W        W49723   0.968  32.557   6.546  0.0560  0.0012  0.0044
 6671W        W49724   9.472  22.550   5.081 -0.1257 -0.2945 -0.0311
 6672W        W49725   3.084  14.103  19.227 -0.1580  0.0500  0.0757
 6673W        W49726  22.250   7.389   1.936 -0.1121  0.2111 -0.1494
 6674W        W49727   2.444   9.423   8.215 -0.1121  0.0149  0.1565
 6675W        W49728  29.738  12.899   2.574 -0.0178 -0.1515  0.0908
 6676W        W49729  30.500  34.407   0.409 -0.4597  0.0645  0.0961
 6677W        W49730  30.307  20.115   1.428  0.3726  0.0045  0.4543
 6678W        W49731  11.678  29.322  20.961 -0.3788  0.0321 -0.0378
 6679W        W49732  14.309   3.411   1.024  0.2059  0.0329 -0.1747
 6680W        W49733  18.843  10.893   9.262  0.1704  0.1657 -0.2896
 6681W        W49734  21.837   3.646  18.399  0.2687  0.1019 -0.1511
 6682W        W49735   5.483  14.594   3.075 -0.0125 -0.3352  0.0736
 6683W        W49736   8.154  33.563  27.561 -0.0306 -0.2530  0.0731
 6684W        W49737  27.611  24.731   7.026  0.0882  0.0272  0.2671
 6685W        W49738  21.355  20.814   8.225  0.0054  0.2009 -0.1190
 6686W        W49739  29.640  15.287   3.459 -0.2035 -0.1203  0.0611
 6687W        W49740  20.985  16.149   1.259 -0.0902 -0.0459 -0.3377
 6688W        W49741  19.784  22.243  20.916  0.0461 -0.0262 -0.3908
 6689W        W49742  15.319  25.358  26.152  0.0861 -0.1928  0.1494
 6690W        W49743  29.391   4.211   3.776  0.2054  0.1177  0.4659
 6691W        W49744  28.771  32.158  17.804 -0.1488 -0.0463 -0.0813
 6692W        W49745   1.918   0.114   8.774 -0.1743 -0.0368 -0.3956
 6693W        W49746  13.682  12.279   0.158 -0.0358  0.3628  0.2053
 6694W        W49747  18.715  27.692   5.823  0.0692  0.0090 -0.0517
 6695W        W49748  25.521   5.355  21.392 -0.3127 -0.0579  0.0079
 6696W        W49749   5.976   9.748  15.570  0.0600  0.2208 -0.1028
 6697W        W49750  28.525  28.114   7.838 -0.0285 -0.5862 -0.0474
 6698W        W49751   8.595  18.059   3.237 -0.1810  0.0704 -0.2342
 6699W        W49752  21.905  22.474   2.496 -0.0822 -0.0655  0.3114
 6700W        W49753  17.213  24.495   8.854  0.0197 -0.0582  0.0990
 6701W        W49754  14.405   2.487  21.463  0.0225  0.1817  0.1708
 6702W        W49755  22.845  14.592  29.138  0.2258  0.0937  0.0963
 6703W        W49756  24.237  24.884   7.672 -0.0784 -0.3156 -0.1138
 6704W        W49757  16.460   2.905  23.376 -0.0906 -0.0639  0.1267
 6705W        W49758  19.411  16.371  25.518 -0.1549  0.1555 -0.1886
 6706W        W49759  19.592  30.364  26.840 -0.2308  0.2316 -0.1448
 6707W        W49760  26.743  10.568   8.496 -0.1417 -0.2058  0.0970
 6708W        W49761  16.652  20.529   5.215 -0.3723  0.0061  0.1522
 6709W        W49762  18.356  10.425  20.756 -0.0179 -0.0345 -0.1411
 6710W        W49763   5.844  21.273   8.957  0.1518 -0.0342  0.1773
 6711W        W49764   2.010  22.625  28.824  0.0447  0.1032 -0.0588
 6712W        W49765  29.201  13.193  15.635 -0.1021  0.0592  0.0137
 6713W        W49766  13.576   5.862  18.122 -0.0106 -0.0662 -0.0285
 6714W        W49767  30.841  29.840  22.687  0.0042  0.1317 -0.1064
 6715W        W49768  23.794  19.361  15.418 -0.0946  0.1779 -0.1042
 6716W        W49769  29.243  18.666  16.552 -0.0401  0.1890  0.0376
 6717W        W49770  32.721  12.491  22.664  0.0630 -0.0248 -0.1222
 6718W        W49771   0.393  23.656  15.196 -0.1965 -0.3856 -0.1016
 6719W        W49772   6.679  17.846  23.842  0.1903 -0.0723  0.3287
 6720W        W49773  33.054  15.008  23.288  0.0106 -0.0415 -0.1413
 6721W        W49774  32.763  13.092  17.447  0.0958 -0.0571 -0.0197
 6722W        W49775  18.965   6.448   0.124  0.3229  0.0620 -0.0340
 6723W        W49776  33.292  30.668  13.642  0.0868 -0.2824  0.1748
 6724W        W49777  25.591  20.657  14.981  0.1870  0.0231  0.0676
 6725W        W49778  26.766  15.876  18.467  0.4467 -0.2823  0.0373
 6726W        W49779  27.610  14.510  23.400  0.3914  0.2528 -0.1293
 6727W        W49780  27.683  14.551  16.987  0.1727 -0.1559  0.1182
 6728W        W49781  33.079  15.296  26.996 -0.1374  0.2199 -0.4771
 6729W        W49782  27.682   1.455  17.354 -0.3212 -0.0375 -0.1445
 6730W        W49783  10.757  18.213  19.303 -0.0826  0.1207  0.1068
 6731W        W49784  32.548  11.700  24.707 -0.2210 -0.1402 -0.0138
 6732W        W49785   1.015  24.278  28.328  0.0789  0.1091  0.0245
 6733W        W49786   4.778   0.618  26.074 -0.0855 -0.3015  0.2007
 6734W        W49787  28.693  12.675   1.901  0.1514  0.1164 -0.0106
 6735W        W49788  27.803  16.819  20.765 -0.4409 -0.1437  0.2494
 6736W        W49789  31.232  18.337  24.908  0.2145 -0.0727 -0.2227
 6737W        W49790   8.095  21.694  23.599 -0.0932 -0.0913  0.3031
 6738W        W49791  21.865   1.904  19.160 -0.0499  0.0824 -0.2207
 6739W        W49792   0.114  23.225  14.197  0.4577  0.1216 -0.1743
 6740W        W49793   6.087   8.209  15.991 -0.0051 -0.1326  0.0251
 6741W        W49794  23.610  17.966  14.345  0.0845  0.4307  0.0205
 6742W        W49795   1.085   5.958  15.647 -0.3854 -0.2343  0.0464
 6743W        W49796  21.496  22.022  14.299  0.1975 -0.0921  0.0120
 6744W        W49797   0.783  22.459  26.578  0.2338  0.1778  0.1743
 6745W        W49798   4.721  13.476  16.627 -0.0728 -0.1592 -0.0762
 6746W        W49799   5.776  17.680  14.004  0.1721 -0.2340  0.3167
 6747W        W49800   2.664   2.750  21.158  0.2538 -0.0381  0.2147
 6748W        W49801  18.143   9.366  24.967 -0.1532  0.0326 -0.1289
 6749W        W49802  24.835   8.128   2.864 -0.1029 -0.1237  0.1889
 6750W        W49803  18.512   1.153  28.534  0.2531 -0.0516 -0.1614
 6751W        W49804  20.371  19.850  15.033 -0.0198  0.1337 -0.1200
 6752W        W49805  21.904  25.737   0.512  0.2323  0.0794 -0.3742
 6753W        W49806  23.392   4.132  15.509 -0.1387  0.0887  0.1549
 6754W        W49807  19.028  15.356  13.401 -0.0948  0.0152 -0.0705
 6755W        W49808  18.013  13.890  29.158 -0.0514  0.0269  0.0404
 6756W        W49809  30.666  10.131  16.449  0.2430 -0.0071  0.0024
 6757W        W49810  15.961  22.546  22.649 -0.1705  0.2117 -0.0919
 6758W        W49811  16.981  24.056   1.900 -0.1775  0.1446  0.0642
 6759W        W49812  31.463  30.496  27.170  0.2378 -0.0341 -0.1927
 6760W        W49813   0.814  30.337  16.363  0.1687 -0.1309  0.1260
 6761W        W49814   0.837  33.003  14.763 -0.1715  0.0729 -0.1940
 6762W        W49815  29.639   4.832  29.182 -0.2273 -0.0088 -0.0448
 6763W        W49816  14.105  19.950  18.877  0.2205  0.3150 -0.2031
 6764W        W49817  18.832  13.985  16.243  0.2724 -0.0470  0.1486
 6765W        W49818  28.868   8.676  25.336 -0.0053 -0.4061 -0.1793
 6766W        W49819  12.498  14.797  26.276 -0.2276 -0.3000  0.0897
 6767W        W49820  18.317  24.013  22.750  0.2404 -0.2434 -0.0145
 6768W        W49821  16.658  31.086  17.715  0.2132 -0.0470 -0.2929
 6769W        W49822  25.269  27.645  19.830  0.1584 -0.0687  0.2053
 6770W        W49823  30.236  23.767  14.995  0.2609 -0.1730  0.1695
 6771W        W49824   5.612  30.408  14.740 -0.2842  0.0035 -0.2029
 6772W        W49825  19.216  14.451  23.492 -0.0405 -0.3169 -0.0806
 6773W        W49826  33.586  26.581  20.432 -0.2329  0.3284 -0.0834
 6774W        W49827  31.029  27.712  23.228 -0.0786 -0.2369 -0.0358
 6775W        W49828  31.129  15.251  20.243 -0.2165  0.0627 -0.3650
 6776W        W49829   2.720  13.652  18.444  0.1224  0.0203 -0.0276
 6777W        W49830  26.402  32.914  15.956 -0.2932 -0.1031 -0.0124
 6778W        W49831  21.187  20.907  28.176  0.0158  0.0720  0.0267
 6779W        W49832  34.463  15.871  17.099 -0.2092 -0.0378  0.1546
 6780W        W49833  16.017  21.675  15.913 -0.3463  0.0560  0.1184
 6781W        W49834  20.996  10.335  23.247  0.2734  0.0012 -0.1126
 6782W        W49835  32.577  16.804  26.352  0.1804 -0.3225  0.0698
 6783W        W49836   7.830  19.827   6.556 -0.1928  0.1373 -0.0352
 6784W        W49837  19.573  31.244  16.055 -0.0091  0.1179  0.0886
 6785W        W49838  25.446  23.000  28.538  0.3243 -0.1000 -0.0279
 6786W        W49839  14.062  22.573  20.215 -0.4251 -0.0017 -0.0256
 6787W        W49840  26.921  17.380   0.645 -0.1417 -0.0911  0.1380
 6788W        W49841  14.748  11.378  18.041  0.0978 -0.0386  0.1991
 6789W        W49842  22.115   7.377  24.324 -0.0698  0.0968 -0.4921
 6790W        W49843  14.990  27.339  19.754  0.0841  0.0115 -0.0101
 6791W        W49844  10.358  22.414  13.646  0.4114  0.1132  0.2251
 6792W        W49845  28.488  15.605  17.585 -0.0052 -0.1172  0.0011
 6793W        W49846  26.352  29.684  18.865  0.1441 -0.0168 -0.1836
 6794W        W49847  20.507  14.892   2.787 -0.0707 -0.2449 -0.1541
 6795W        W49848   2.847  17.558  14.080 -0.2317 -0.3883 -0.0076
 6796W        W49849  21.071  18.030   3.000 -0.1371  0.0709 -0.0909
 6797W        W49850  33.513  13.013  26.737 -0.0171  0.0400  0.0640
 6798W        W49851  29.357  24.140  13.746  0.5071  0.0985  0.3670
 6799W        W49852  18.777  21.939   2.328 -0.4820 -0.2531 -0.1023
 6800W        W49853  13.020  28.221  15.692 -0.0332 -0.2600  0.2805
 6801W        W49854   5.528  10.501  16.846 -0.1989 -0.1325  0.1442
 6802W        W49855  13.620  20.328  21.725 -0.0743  0.1423 -0.2332
 6803W        W49856  32.670   1.553  26.989 -0.0517 -0.1748  0.0153
 6804W        W49857  13.799   0.872  15.446  0.0577  0.2561  0.1027
 6805W        W49858  32.120   8.849  20.900  0.0372  0.0138 -0.0317
 6806W        W49859  23.186  23.843  16.130  0.0818 -0.1482  0.1676
 6807W        W49860  25.828  11.702  16.042  0.1845 -0.0635  0.0955
 6808W        W49861   6.153   4.749  25.527  0.0754  0.0365  0.1291
 6809W        W49862  25.832   3.806  16.934  0.1214  0.1763  0.0813
 6810W        W49863  24.227  20.780  14.392  0.0676 -0.0220  0.0883
 6811W        W49864   6.541  11.446  22.886  0.0859 -0.1907  0.1120
 6812W        W49865  34.356  10.619  22.523 -0.0260 -0.0990  0.1818
 6813W        W49866  29.885  19.797  18.112 -0.0801 -0.0860  0.1448
 6814W        W49867  10.102   7.172  21.060  0.0063  0.3168 -0.2248
 6815W        W49868  26.666   6.101  14.910  0.0957 -0.0554  0.0854
 6816W        W49869  31.638  19.404  25.471  0.0948 -0.5174 -0.1715
 6817W        W49870  13.222  21.104  26.008  0.2299 -0.1374  0.0596
 6818W        W49871   2.074  21.492  27.388  0.1006 -0.3734  0.1930
 6819W        W49872  20.709   2.380  23.119 -0.1900 -0.0686  0.0127
 6820W        W49873   0.878  27.652  13.673  0.0800 -0.1811  0.1657
 6821W        W49874  29.352   5.968   6.713 -0.0250 -0.3136  0.1895
 6822W        W49875  33.154  30.747  22.133 -0.3102 -0.0380 -0.2735
 6823W        W49876   7.856  34.242  24.599 -0.0231 -0.3423 -0.0369
 6824W        W49877   1.353  10.805  18.981 -0.0670  0.1115 -0.1667
 6825W        W49878   8.331   8.345   0.991 -0.2851 -0.1408 -0.0412
 6826W        W49879   1.236   2.221  17.724  0.1405  0.3150 -0.0357
 6827W        W49880   0.936  12.562   6.687 -0.1733  0.2974  0.0510
 6828W        W49881  20.320  25.093  26.041 -0.2548 -0.0861 -0.0889
 6829W        W49882  19.220  26.582  15.671  0.0203 -0.1533 -0.1061
 6830W        W49883   6.049  13.134  18.411  0.4994 -0.1852 -0.1806
 6831W        W49884  26.407  16.592  18.163  0.2815 -0.3579 -0.0873
 6832W        W49885  18.647  28.510   4.699 -0.2339 -0.2176  0.0165
 6833W        W49886  15.125   4.050  14.195 -0.0907  0.2113  0.0129
 6834W        W49887   6.902  20.738  23.130  0.2267 -0.1185 -0.1921
 6835W        W49888  19.296  24.396  15.516  0.0143 -0.0567  0.0534
 6836W        W49889   0.175  26.608  17.569 -0.0434 -0.1299  0.1200
 6837W        W49890  33.873  29.178  28.396 -0.1932 -0.0692  0.1734
 6838W        W49891  28.471  23.609  19.448  0.1116 -0.1092 -0.0370
 6839W        W49892   1.132  32.105  27.179  0.0830 -0.0020 -0.3049
 6840W        W49893  20.757  27.354  18.772 -0.3700 -0.1697 -0.1421
 6841W        W49894  24.211  20.611  20.924 -0.0721 -0.0095 -0.0825
 6842W        W49895   6.066  11.558  22.662  0.1423  0.1393  0.1884
 6843W        W49896  14.568   1.924  25.305 -0.1485  0.0004  0.0346
 6844W        W49897  27.406  11.230  13.968  0.0912  0.0768  0.0636
 6845W        W49898  20.107  24.559  16.609  0.1743  0.2785  0.3897
 6846W        W49899  25.177   5.107  25.816 -0.0469  0.0765  0.1578
 6847W        W49900  26.008   2.481   1.284  0.3453 -0.1303  0.0772
 6848W        W49901  23.267  28.160  20.405  0.2550  0.0935 -0.2285
 6849W        W49902  14.854  13.998  27.671  0.2714 -0.0109 -0.0902
 6850W        W49903  21.813  24.283  16.095  0.1047 -0.0252  0.0433
 6851W        W49904  25.782  25.475  27.224 -0.0312  0.0689  0.3437
 6852W        W49905  23.742  20.246   2.821  0.1153  0.1324  0.0976
 6853W        W49906  20.704  22.268  20.732  0.2885 -0.2649  0.2319
 6854W        W49907  23.029  32.024  23.809 -0.1262  0.2159  0.1529
 6855W        W49908  31.268  15.789  26.443 -0.1041  0.3228  0.0235
 6856W        W49909  10.150  24.199  15.262 -0.0748  0.0407  0.0077
 6857W        W49910   2.872  23.292  18.614  0.3113 -0.1702  0.1857
 6858W        W49911   2.257  16.440  20.295 -0.3992  0.1651 -0.0242
 6859W        W49912  28.017  19.678  27.638  0.0889  0.3493 -0.2085
 6860W        W49913  24.582  19.571  15.722 -0.0879 -0.3226  0.0133
 6861W        W49914  21.788   8.657  15.694  0.2846  0.4122  0.2768
 6862W        W49915  30.956  24.468  15.866 -0.1786  0.0244 -0.3221
 6863W        W49916  28.919  21.186  21.547 -0.4174  0.1002 -0.5282
 6864W        W49917  31.736  33.599  16.755 -0.0545 -0.0368 -0.1012
 6865W        W49918  18.907   0.119  20.802  0.3664 -0.1040 -0.0672
 6866W        W49919  22.981  12.609   3.629 -0.1126  0.2346 -0.1149
 6867W        W49920   9.933  31.195   8.709  0.1445  0.0216  0.1388
 6868W        W49921  20.000  22.215  22.192 -0.2041  0.1339  0.3374
 6869W        W49922  11.230  25.611  21.285 -0.0359 -0.3105 -0.1628
 6870W        W49923  21.874  22.310  18.206  0.1228  0.1289 -0.0276
 6871W        W49924  26.775   1.758  21.054 -0.1625  0.0483  0.0639
 6872W        W49925  25.160  27.159  23.901  0.2965  0.0888 -0.0964
 6873W        W49926  29.799  25.106   4.149  0.0542  0.0667 -0.0840
 6874W        W49927  24.972  23.531  27.816 -0.0570  0.0791 -0.1273
 6875W        W49928  24.559  29.482  24.194 -0.1228 -0.0753 -0.0248
 6876W        W49929  17.967  11.703  20.717 -0.0519  0.0553  0.1489
 6877W        W49930  13.673  17.506  20.973 -0.0843  0.3264  0.0847
 6878W        W49931  16.009  27.540  22.916  0.3077 -0.2071 -0.1659
 6879W        W49932  16.977  10.693  14.793  0.1170 -0.1886  0.2304
 6880W        W49933  19.606   5.197  14.650 -0.0473  0.2735  0.0959
 6881W        W49934  14.688  25.199  17.205  0.1145 -0.4713 -0.0611
 6882W        W49935  14.010   8.303  19.026 -0.1291  0.0589  0.0153
 6883W        W49936  15.946  21.016  16.747  0.0889 -0.1850 -0.3692
 6884W        W49937  24.984  20.267  16.940  0.0682 -0.0392  0.0155
 6885W        W49938  11.574  33.834  18.079  0.2037 -0.2164 -0.2007
 6886W        W49939  27.856   6.596  15.360  0.3357  0.5211 -0.2000
 6887W        W49940   5.749  26.647  28.650  0.0980 -0.0217 -0.0390
 6888W        W49941  25.584  15.622  17.902  0.0508  0.0227 -0.1563
 6889W        W49942  34.359  17.920  17.590 -0.4701 -0.1756  0.1688
 6890W        W49943  11.465   4.980  17.381  0.3288  0.1478 -0.2757
 6891W        W49944  12.882  25.957  22.364 -0.0889 -0.2325 -0.1920
 6892W        W49945   9.913  31.365  22.538  0.1290 -0.0209 -0.1716
 6893W        W49946  28.521  22.976  27.761 -0.4671  0.0255 -0.0112
 6894W        W49947  29.531   3.111  14.558  0.4611  0.1509  0.1097
 6895W        W49948  27.997  23.912  18.213 -0.0996  0.0475  0.1785
 6896W        W49949  13.226   4.422  18.616 -0.0388 -0.3146 -0.2772
 6897W        W49950  26.266  18.003  23.906 -0.0866  0.1293 -0.0178
 6898W        W49951  23.033  32.219  28.437  0.0833 -0.2114  0.2343
 6899W        W49952  25.017  23.403  14.117  0.1150  0.1921  0.0781
 6900W        W49953   4.381  16.031  27.030  0.2557  0.1866  0.1134
 6901W        W49954   5.120  29.632  18.315  0.5049 -0.3186 -0.0243
 6902W        W49955  10.185  16.675  17.497 -0.3103 -0.4963 -0.2131
 6903W        W49956  14.048   4.311  20.595 -0.1198 -0.1735  0.1718
 6904W        W49957   8.249  23.541  19.199 -0.2709  0.0625  0.3250
 6905W        W49958  20.504  24.386  15.612 -0.0502  0.0671 -0.0451
 6906W        W49959  14.938  34.055  24.743 -0.0309  0.1073  0.2805
 6907W        W49960  18.361  19.652  25.979  0.1778  0.2498 -0.2634
 6908W        W49961  24.158   8.778  21.349  0.1242 -0.0704 -0.4545
 6909W        W49962  15.111  32.503  18.004 -0.3343 -0.1605  0.0244
 6910W        W49963  11.967  20.161  16.250 -0.1274  0.1622  0.1268
 6911W        W49964  26.418  31.031  26.665 -0.2349  0.2742 -0.2472
 6912W        W49965  20.669  23.695  19.633 -0.4359  0.1154 -0.2015
 6913W        W49966  20.217   2.632  18.931  0.0239  0.0619  0.2276
 6914W        W49967  16.435  14.874  16.159 -0.3827 -0.2455 -0.1953
 6915W        W49968  10.888  30.083  16.670  0.1027  0.1822  0.0340
 6916W        W49969  27.843   8.921  15.460  0.2428  0.1592 -0.1276
 6917W        W49970  21.835  15.439  20.178 -0.0718  0.1244 -0.0110
 6918W        W49971  10.254  19.523  21.510  0.4504  0.0479 -0.0742
 6919W        W49972   7.814  30.690  21.505  0.1768  0.0935  0.0651
 6920W        W49973  17.503   7.336  17.862 -0.0192  0.2385  0.1557
 6921W        W49974  28.300  18.145  20.000 -0.2848  0.1172 -0.2970
 6922W        W49975   4.144  26.548  23.409 -0.2195 -0.2409  0.0302
 6923W        W49976  29.885  19.715  22.117  0.0795 -0.0033  0.0078
 6924W        W49977  14.700  30.518   2.928  0.0029  0.4046 -0.1571
 6925W        W49978  26.289   8.775  23.085  0.0483  0.1913  0.2844
 6926W        W49979  26.077  21.283  26.766 -0.0223  0.0747  0.2430
 6927W        W49980   3.181  19.688  16.697  0.0534 -0.3489 -0.3308
 6928W        W49981  22.092  34.415  18.580 -0.0199 -0.1865 -0.2759
 6929W        W49982  26.311  27.997  14.253  0.1401  0.1803 -0.3061
 6930W        W49983  22.501  11.801  26.067  0.1623  0.2162 -0.1181
 6931W        W49984  27.164  32.913  27.132 -0.1480  0.1355  0.1463
 6932W        W49985  23.548  12.343  19.698 -0.0195  0.1458 -0.2928
 6933W        W49986  28.748  15.560  23.635 -0.0633 -0.0341  0.0308
 6934W        W49987  17.771   7.782  19.202 -0.1329 -0.0702 -0.3448
 6935W        W49988   5.071   1.533  26.401 -0.2539  0.2239 -0.0387
 6936W        W49989  19.294   8.086   6.036  0.0874 -0.5953  0.2664
 6937W        W49990  20.425  22.257  21.200  0.1810 -0.1563  0.0695
 6938W        W49991   9.546  21.954  26.561  0.0115  0.2909  0.1118
 6939W        W49992  16.247   3.893  23.366 -0.2220  0.1414 -0.1643
 6940W        W49993  28.049  26.163  22.140  0.1731 -0.0244 -0.0462
 6941W        W49994  30.933  23.232  19.150 -0.5261 -0.2186  0.0668
 6942W        W49995   0.059  18.737  15.357  0.2057  0.0010 -0.5755
 6943W        W49996  25.389  14.102  18.143 -0.0016  0.0260 -0.0547
 6944W        W49997  26.377   8.152  19.582 -0.0570 -0.0353  0.3823
 6945W        W49998  24.345  13.841  21.997  0.0987  0.1281  0.0750
 6946W        W49999   0.098  21.874   2.549 -0.2167  0.2972 -0.1492
 6947W        W50000  10.499  23.651  14.372 -0.0846 -0.2474 -0.0981
 6948W        W50001   1.632  29.083  13.945  0.1725 -0.0901 -0.0105
 6949W        W50002   6.756  10.132  21.965  0.0997  0.2733  0.1104
 6950W        W50003  22.448  16.607  17.115 -0.0658  0.1664  0.0221
 6951W        W50004  20.601   8.343  17.187  0.0769 -0.1538 -0.0294
 6952W        W50005   4.419  28.535  15.146  0.0977  0.0847  0.2954
 6953W        W50006  30.530   7.480   4.283 -0.0347 -0.2042  0.0669
 6954W        W50007   5.634  23.576  14.679  0.1438  0.2209  0.0122
 6955W        W50008   5.870  14.764  15.537 -0.2565  0.1156 -0.0422
 6956W        W50009  28.124   5.193  18.437  0.2054 -0.3882  0.2427
 6957W        W50010  20.276  32.074  28.946 -0.1310 -0.1143 -0.0582
 6958W        W50011  17.620   5.303  14.637  0.1048  0.0839 -0.3078
 6959W        W50012  22.501  26.293  21.630  0.1029  0.0968  0.1312
 6960W        W50013   2.994  13.197  18.822  0.2858 -0.0110  0.0477
 6961W        W50014   0.305  21.624  17.191 -0.0760  0.2592  0.4343
 6962W        W50015  11.484  24.217  25.787  0.0306 -0.2137  0.1553
 6963W        W50016  31.824  23.461   0.334  0.0510 -0.0134 -0.2480
 6964W        W50017   1.775  17.768   3.144  0.1685 -0.1054 -0.0182
 6965W        W50018  25.828  16.611  16.101 -0.1973  0.3394 -0.2510
 6966W        W50019   1.005  12.930  23.217  0.3910 -0.0093 -0.1318
 6967W        W50020  23.227  11.625  29.089  0.1576 -0.4154 -0.2184
 6968W        W50021  19.769  11.544   3.590  0.0635 -0.1643  0.1114
 6969W        W50022  22.061  21.188  27.895  0.0528 -0.0818  0.0657
 6970W        W50023   3.941  34.573  25.224 -0.0418  0.0125 -0.2345
 6971W        W50024  34.018  21.631  20.746  0.0501 -0.2544  0.0249
 6972W        W50025  27.353  13.642  13.531 -0.0808 -0.3606  0.0115
 6973W        W50026  20.907   0.092  15.925  0.3606  0.0158 -0.1707
 6974W        W50027  31.138   4.052  22.268  0.0589  0.2568  0.1799
 6975W        W50028  22.116  26.338  16.520 -0.0492  0.1564 -0.2945
 6976W        W50029   9.962  20.867  25.054 -0.2948 -0.1235  0.1038
 6977W        W50030  19.292  25.481  16.382 -0.0694  0.0141 -0.0560
 6978W        W50031  18.282  21.459  21.297 -0.0548 -0.1963  0.0032
 6979W        W50032  33.172   1.618  13.842 -0.0839 -0.0253  0.2365
 6980W        W50033  33.063  17.738  23.084  0.0329 -0.1781  0.0769
 6981W        W50034   5.564  10.439  25.376  0.2933 -0.1936 -0.2894
 6982W        W50035  32.472  17.696   4.570  0.3843 -0.1450  0.0287
 6983W        W50036   3.108   9.657  15.958  0.2026 -0.0035 -0.2539
 6984W        W50037  11.294  24.152  15.044  0.1404 -0.1550 -0.1458
 6985W        W50038  30.369   9.972  24.916  0.2750  0.0146  0.2393
 6986W        W50039  27.502  15.675  20.080 -0.3685  0.3209 -0.0048
 6987W        W50040   1.793  26.322  20.936  0.4243  0.1284 -0.2065
 6988W        W50041  30.100  20.748  14.661 -0.2262 -0.0868 -0.5471
 6989W        W50042  16.559  24.209  14.913  0.2253 -0.3823 -0.1854
 6990W        W50043  34.128  21.285  19.353 -0.0715 -0.0210 -0.2553
 6991W        W50044   4.692  30.287  14.307  0.0244 -0.3777  0.1402
 6992W        W50045  23.978  29.439  14.784 -0.1674  0.1174  0.1717
 6993W        W50046  33.830  13.104  19.133  0.0649 -0.0403  0.3192
 6994W        W50047  31.533  19.194   4.600  0.4523  0.2188 -0.0687
 6995W        W50048  14.479  27.940  14.163 -0.0144 -0.2392 -0.1119
 6996W        W50049  23.208   1.248  17.449 -0.0568 -0.2480 -0.3114
 6997W        W50050   7.862  32.127  24.021  0.1778 -0.1120 -0.1757
 6998W        W50051  24.173   9.165  21.680  0.2999 -0.0649 -0.3491
 6999W        W50052  27.510  16.000  19.700 -0.1158  0.1319  0.0600
 7000W        W50053  19.977   2.050  19.297 -0.0535 -0.0147 -0.2036
 7001W        W50054  30.648  31.751  20.797  0.1949 -0.0599  0.0590
 7002W        W50055  28.991   6.813  22.795 -0.0389 -0.4278 -0.0261
 7003W        W50056  20.460  28.445  19.513 -0.0299  0.3951  0.1323
 7004W        W50057   8.055  13.686  21.398  0.1413 -0.0692  0.2861
 7005W        W50058  30.335  30.386  21.637  0.0088 -0.3373 -0.2518
 7006W        W50059  33.682  25.905  14.076 -0.0936  0.2077  0.3617
 7007W        W50060  21.701  15.509  23.677  0.2862  0.0483  0.0402
 7008W        W50061  15.557  16.132  28.731 -0.0795  0.0626 -0.1045
 7009W        W50062  19.327  31.712  25.346 -0.1949  0.2667  0.0443
 7010W        W50063  25.390  26.884   1.308 -0.0086  0.1495 -0.0520
 7011W        W50064   3.394   4.143  19.212  0.0476  0.0775 -0.0896
 7012W        W50065  23.275  21.248   2.893 -0.2310 -0.5617 -0.0301
 7013W        W50066  26.921  21.078  15.524  0.1871  0.1910 -0.3073
 7014W        W50067  12.083  12.244  20.855  0.2817 -0.2731  0.0953
 7015W        W50068   1.552   0.336  21.686  0.2327 -0.0317 -0.1982
 7016W        W50069  16.065   8.927  25.198 -0.0590 -0.1509 -0.0618
 7017W        W50070  29.508  18.419  28.584  0.2831  0.1635 -0.2282
 7018W        W50071  32.087  25.319  14.573  0.1653 -0.0322  0.1190
 7019W        W50072  28.494  24.704   4.552 -0.2820 -0.0657  0.0958
 7020W        W50073  33.405  25.092  17.079 -0.1432 -0.0210 -0.1623
 7021W        W50074  13.667   4.213  16.521  0.3140 -0.2096 -0.0682
 7022W        W50075  31.170  20.219  21.441 -0.1980 -0.1043  0.1040
 7023W        W50076  19.209  25.845  23.136  0.2625 -0.0243 -0.1280
 7024W        W50077  12.340  12.708   1.868 -0.0659  0.4604  0.0818
 7025W        W50078  27.728  30.826  14.419  0.0572  0.1285 -0.3515
 7026W        W50079  31.689  29.189  21.758  0.1510 -0.1245  0.5026
 7027W        W50080  24.878  29.484  18.872  0.1279  0.1315  0.0009
 7028W        W50081  25.907   3.922  14.596  0.4850 -0.0281 -0.2891
 7029W        W50082  29.228   2.088  13.858  0.0364 -0.2770  0.0185
 7030W        W50083  28.457   4.622  25.755  0.0362 -0.1515 -0.0252
 7031W        W50084  23.827  20.075  25.906  0.0962 -0.0796  0.0245
 7032W        W50085  24.638  27.947  16.147  0.0672  0.3298 -0.0106
 7033W        W50086  31.595  26.893  14.203  0.0150 -0.0608 -0.3414
 7034W        W50087   4.463  21.269  24.080  0.1702 -0.0601  0.3960
 7035W        W50088  26.146  11.208  22.264 -0.1189 -0.0234 -0.1649
 7036W        W50089  26.177   4.770  16.175  0.1353  0.0263 -0.1970
 7037W        W50090  12.248  12.675  23.444 -0.3007  0.1524 -0.0357
 7038W        W50091  18.181   9.643  21.098 -0.2159 -0.0607 -0.6121
 7039W        W50092  27.746  25.121  13.888 -0.0911  0.2886 -0.0094
 7040W        W50093   2.878  24.195  19.460  0.0204  0.3383  0.0121
 7041W        W50094  23.972  30.653  15.296  0.0673  0.0828 -0.1701
 7042W        W50095  15.649  32.720   4.612  0.0362 -0.1594  0.0926
 7043W        W50096  29.866  20.446  16.155 -0.0836  0.0781  0.1067
 7044W        W50097   8.649  13.579  24.822 -0.2503  0.0584 -0.1302
 7045W        W50098  27.903  17.385  22.950 -0.0436  0.1550 -0.0811
 7046W        W50099  22.636   4.022  27.329 -0.1526 -0.2697 -0.2311
 7047W        W50100  30.181  14.832  20.748  0.1779  0.0413 -0.1544
 7048W        W50101  12.713  15.268  18.939  0.0253  0.1170  0.2078
 7049W        W50102  25.866  19.174  20.342 -0.1178 -0.0036  0.1072
 7050W        W50103  12.060  23.181  19.882 -0.0651 -0.2038  0.2362
 7051W        W50104  30.864   2.491  18.737 -0.1596  0.4919  0.1064
 7052W        W50105  21.691   1.686  17.347  0.1657  0.2358 -0.0002
 7053W        W50106  13.080   2.381   8.520  0.1053  0.2947  0.0978
 7054W        W50107   0.171  23.784  16.801 -0.0512  0.3389  0.0313
 7055W        W50108  26.132  33.811  16.342 -0.1044  0.2043  0.1952
 7056W        W50109  32.218  26.179  19.891 -0.2980  0.0489  0.4379
 7057W        W50110  34.344  20.151  14.539  0.0394 -0.1432 -0.1485
 7058W        W50111   5.520  28.690  22.057  0.1583  0.3783  0.1704
 7059W        W50112  29.687  14.820  13.857 -0.0317 -0.0108 -0.0398
 7060W        W50113  34.539  21.656  24.269  0.0089 -0.3523 -0.0835
 7061W        W50114  30.881  32.701  19.150 -0.1574 -0.1980  0.2971
 7062W        W50115  22.315  26.660  17.106  0.2738 -0.2004  0.0386
 7063W        W50116  14.012  31.216   8.474  0.3839 -0.1500 -0.2601
 7064W        W50117   4.964   0.118   1.928 -0.2186 -0.0225 -0.0908
 7065W        W50118  31.176  23.322   0.140  0.3984  0.2708 -0.0002
 7066W        W50119  30.705  14.384  25.440  0.0267  0.0421 -0.0229
 7067W        W50120  22.131   3.823  20.727 -0.2013 -0.2478 -0.0631
 7068W        W50121   9.035   7.353  25.263  0.1505  0.2109 -0.2009
 7069W        W50122  16.185  30.558  19.239 -0.2520 -0.0837  0.3697
 7070W        W50123  23.890  19.017  15.820  0.4448  0.1264 -0.2027
 7071W        W50124  13.448  13.459  16.877 -0.0809 -0.0650  0.1249
 7072W        W50125  27.686  17.796  16.948  0.4790 -0.1081 -0.1937
 7073W        W50126  24.112  19.275  21.769  0.2438  0.2443  0.0557
 7074W        W50127  15.566  11.730  28.412 -0.2253 -0.1689 -0.0487
 7075W        W50128  25.345  33.867  24.978 -0.0221  0.3509  0.0179
 7076W        W50129  30.227  26.263  27.411 -0.4770  0.0223 -0.1373
 7077W        W50130  24.201   0.740  15.807  0.2558  0.0913  0.0725
 7078W        W50131  32.752  12.309   7.872 -0.1106 -0.0994  0.0154
 7079W        W50132  26.719  17.746  15.879  0.2642  0.1315  0.1092
 7080W        W50133  21.374   1.642  19.411 -0.2104  0.0853 -0.1428
 7081W        W50134  17.679  10.211  20.032  0.2424  0.3259 -0.1416
 7082W        W50135  32.638  25.889   9.139 -0.1296  0.0291  0.1912
 7083W        W50136  30.744  11.164  24.280 -0.1703  0.1342 -0.2947
 7084W        W50137  11.572  25.024  21.956  0.1380  0.2608  0.3472
 7085W        W50138  33.228   5.016  23.814 -0.0131  0.1621  0.0550
 7086W        W50139  33.432  18.179  12.814 -0.1827  0.2400  0.0257
 7087W        W50140   2.217  22.969  16.221 -0.0213 -0.3873  0.0975
 7088W        W50141  27.767   4.152  14.716 -0.0795 -0.2941 -0.1304
 7089W        W50142  33.808  28.084  21.398  0.0718 -0.1183 -0.0570
 7090W        W50143  14.380   2.853  23.379  0.0077 -0.1773  0.0554
 7091W        W50144   0.161  19.280   8.784  0.2696  0.1750  0.1794
 7092W        W50145   2.438   6.023  16.170  0.3360  0.1138  0.0855
 7093W        W50146  32.599  18.671  17.011  0.1360 -0.0777 -0.2473
 7094W        W50147  20.807  12.573   0.888 -0.1903 -0.1450  0.0790
 7095W        W50148  24.131  18.590  19.436 -0.3792 -0.2600 -0.2525
 7096W        W50149  24.944  15.166  18.587  0.1034 -0.0431  0.0479
 7097W        W50150  23.000  11.184  17.967  0.0651  0.0832  0.1206
 7098W        W50151  14.926  14.889  15.971  0.0690  0.1143  0.2886
 7099W        W50152  10.935  29.779  13.499  0.0206 -0.3311 -0.2124
 7100W        W50153  17.685  27.689  21.639 -0.2950 -0.0542 -0.1426
 7101W        W50154   1.661  29.648  21.961  0.0578  0.2323 -0.1149
 7102W        W50155  33.266  28.872  16.867  0.0225 -0.0211 -0.1950
 7103W        W50156  22.626  12.067  18.007 -0.2369  0.0936 -0.0802
 7104W        W50157   0.384  21.507  25.592  0.0225  0.0006  0.1329
 7105W        W50158   3.000  26.908  19.229  0.3416  0.2019 -0.2596
 7106W        W50159  33.307  17.973  15.083 -0.4312  0.0711 -0.1081
 7107W        W50160  31.766  19.189  19.707 -0.1874 -0.2299 -0.0189
 7108W        W50161  22.558  29.181  19.936 -0.0007  0.0448 -0.1318
 7109W        W50162  33.941   7.866  14.008 -0.3887  0.3518 -0.0679
 7110W        W50163  16.920  16.368  15.415  0.2237  0.0854  0.0681
 7111W        W50164  31.925  15.690  22.509 -0.1707  0.2530 -0.1443
 7112W        W50165   0.482  13.853  14.464  0.1174  0.1005 -0.1014
 7113W        W50166  10.198  31.588  17.682 -0.1458  0.2101 -0.2019
 7114W        W50167  14.949   7.885  18.265 -0.0562 -0.2254  0.2519
 7115W        W50168  14.989  20.278  16.781  0.0076 -0.1811 -0.1819
 7116W        W50169  26.439  27.200  16.311 -0.3392 -0.3474  0.2209
 7117W        W50170  13.077  16.965  15.051  0.1581  0.1712  0.1395
 7118W        W50171  16.982  24.843  15.526  0.0300 -0.0847  0.0324
 7119W        W50172   7.972  23.940  24.038 -0.1586 -0.2765  0.0862
 7120W        W50173  27.538  20.161  23.920  0.0587 -0.0297  0.2169
 7121W        W50174  24.560   6.704  20.989 -0.1621  0.0670 -0.0497
 7122W        W50175  14.296  15.935   2.245  0.4380  0.0091 -0.1699
 7123W        W50176   5.351   1.804  23.352  0.2445 -0.2976 -0.1127
 7124W        W50177  10.970  27.384  25.565 -0.2145  0.1291  0.0737
 7125W        W50178  15.442  25.861  15.467 -0.0732  0.3569  0.1082
 7126W        W50179  20.731   7.135  18.235  0.2048  0.0690 -0.0577
 7127W        W50180  20.671  19.312  18.956 -0.0708  0.1172 -0.0232
 7128W        W50181  28.989  15.207   8.486 -0.2059 -0.1365  0.0629
 7129W        W50182  20.747  31.528  15.475  0.2377  0.0680  0.0173
 7130W        W50183   0.386  23.190  24.203  0.0983  0.2614  0.2749
 7131W        W50184  22.710  25.858  15.460  0.1383 -0.1512  0.1897
 7132W        W50185  19.132  18.295  15.107 -0.0809  0.2308 -0.0713
 7133W        W50186  23.024  31.658   1.622 -0.1014  0.4188  0.1036
 7134W        W50187  25.428  34.022  14.594 -0.0782 -0.1951  0.0452
 7135W        W50188  33.004  26.178   3.069 -0.1843 -0.0303 -0.2983
 7136W        W50189  11.813  24.834  15.687  0.2455 -0.0610 -0.1598
 7137W        W50190  19.756  18.813  22.973  0.1108 -0.1301  0.2265
 7138W        W50191  25.888  23.609  25.227  0.2983  0.2600 -0.1469
 7139W        W50192  13.927  27.562  16.490  0.0471 -0.0110 -0.2354
 7140W        W50193  18.967   7.402  17.739  0.5152  0.0536 -0.2711
 7141W        W50194  25.081  26.788   0.032  0.0503  0.0609 -0.0423
 7142W        W50195   8.110  29.504  18.885 -0.2356  0.2255  0.0136
 7143W        W50196  27.569  28.136  24.537 -0.0596 -0.1898  0.2925
 7144W        W50197  13.698  18.179   2.561  0.0664  0.0352 -0.0600
 7145W        W50198  17.599  20.836  25.422  0.2554 -0.3217 -0.0744
 7146W        W50199   8.555  24.114  14.224 -0.0403 -0.0417  0.0773
 7147W        W50200  12.015  30.813  28.349 -0.1775 -0.0033 -0.0447
 7148W        W50201   1.852  15.514  21.327  0.0576  0.3555  0.0497
 7149W        W50202  19.075  25.173  20.885 -0.2104  0.0062 -0.0366
 7150W        W50203  18.090  30.425  16.364  0.0836 -0.1753 -0.2148
 7151W        W50204  21.701   3.849  23.086 -0.1723 -0.1955  0.0468
 7152W        W50205  32.001  20.778   4.124  0.0035  0.6740 -0.0310
 7153W        W50206  30.352  12.737  24.126 -0.0994 -0.0589  0.2197
 7154W        W50207  21.859  29.902   8.873  0.1611 -0.3350 -0.0026
 7155W        W50208  20.722  12.580   2.412  0.0060 -0.0798 -0.0798
 7156W        W50209   1.830  29.231  27.809  0.0819  0.1689  0.0890
 7157W        W50210  29.223  20.490   2.329 -0.0750 -0.1125  0.1624
 7158W        W50211  23.023  19.459  20.717 -0.3781  0.4720  0.1514
 7159W        W50212  30.928  27.800  17.810  0.1319  0.2269  0.1390
 7160W        W50213   7.316  16.732  20.512 -0.2160 -0.1183  0.1428
 7161W        W50214  20.142  10.522   5.212 -0.1751  0.2125  0.2375
 7162W        W50215  26.663  16.605  19.554  0.0288  0.1431  0.2619
 7163W        W50216  21.217   2.282  23.755  0.2005  0.1614 -0.1363
 7164W        W50217  27.664  34.022  15.238 -0.1816 -0.0065  0.0376
 7165W        W50218  26.374  20.005  16.102 -0.3117 -0.3201 -0.1399
 7166W        W50219  26.125  29.241  19.114 -0.3753 -0.0874 -0.1409
 7167W        W50220  26.457  20.110  15.209 -0.1388  0.0184  0.1459
 7168W        W50221  16.292  33.792  18.961  0.3600  0.0222  0.1306
 7169W        W50222  23.193  22.243  26.795  0.1449 -0.2382  0.0015
 7170W        W50223   6.157   2.942  22.589 -0.3476  0.0370  0.3600
 7171W        W50224   9.819   5.405   6.945  0.3148 -0.2122  0.3449
 7172W        W50225   0.066   1.985  26.838 -0.0553 -0.2538 -0.2849
 7173W        W50226  19.255  22.375  20.822  0.0625  0.3067 -0.0320
 7174W        W50227  18.006  29.300  26.259 -0.3160 -0.2289  0.0771
 7175W        W50228  21.334  15.272  15.796  0.1449  0.1617 -0.1176
 7176W        W50229  30.685  15.021  15.126  0.3919 -0.0439  0.0592
 7177W        W50230   5.420  18.201  24.243 -0.1028  0.0193  0.2040
 7178W        W50231  25.921  12.264  23.761 -0.1000  0.0544  0.0237
 7179W        W50232   5.708  25.436  15.179  0.1993 -0.0083 -0.1588
 7180W        W50233  15.686   5.623  19.722  0.2961  0.0389 -0.5104
 7181W        W50234   1.353  18.224   7.590  0.2658 -0.0054  0.3035
 7182W        W50235  32.809  20.958  19.497  0.2420  0.0890 -0.4037
 7183W        W50236  33.436  21.634  14.041  0.2638  0.2443 -0.1310
 7184W        W50237  31.787  17.392  20.799  0.2448 -0.1639  0.2925
 7185W        W50238  10.689  23.493  16.341 -0.1413  0.0744 -0.0715
 7186W        W50239  26.020  12.744  26.259  0.3186 -0.0853 -0.0023
 7187W        W50240  16.010   1.179  26.637 -0.0617 -0.1280  0.2416
 7188W        W50241  11.012  12.658  20.101 -0.1991 -0.0878  0.1793
 7189W        W50242   9.363  15.513   2.013  0.0430 -0.1667 -0.1137
 7190W        W50243  32.830   5.238  24.749 -0.0921 -0.0783 -0.0629
 7191W        W50244   6.631  23.520  28.893 -0.1402  0.0207 -0.2474
 7192W        W50245  26.961  24.645  27.852 -0.0748  0.0363  0.1687
 7193W        W50246  11.235  20.969  19.586 -0.3590 -0.0457  0.0164
 7194W        W50247  34.538   4.568  24.095 -0.0545  0.3209  0.1535
 7195W        W50248  20.552   0.692  21.741 -0.3551 -0.0738 -0.0453
 7196W        W50249  18.484  21.876  25.417  0.0739 -0.1057 -0.1278
 7197W        W50250  14.190  24.828  22.865  0.1841  0.3216  0.3442
 7198W        W50251  26.695  17.607  18.200 -0.3560  0.0535  0.0891
 7199W        W50252  13.109  25.733  22.734  0.1886 -0.2602  0.1356
 7200W        W50253  14.566  10.346  16.092  0.1309 -0.1421 -0.1317
 7201W        W50254  32.526  15.115  26.833 -0.1217 -0.0604  0.3087
 7202W        W50255  32.682  22.113  21.823 -0.0500 -0.1714  0.1782
 7203W        W50256  15.752  23.405  15.071  0.2752  0.0650  0.2266
 7204W        W50257  29.860  14.985  22.432  0.0222  0.0206 -0.0493
 7205W        W50258   9.355  17.949  27.527 -0.3481 -0.1042 -0.2507
 7206W        W50259  22.059  31.343   1.203 -0.3178 -0.0960  0.0988
 7207W        W50260   1.650   2.933  14.538 -0.2083  0.2327 -0.1947
 7208W        W50261   7.287  14.595  22.724  0.0446 -0.1400 -0.2888
 7209W        W50262  18.399   5.872   1.144  0.2383  0.0809  0.2955
 7210W        W50263  14.167  16.707  13.063  0.0852  0.2782 -0.0050
 7211W        W50264   2.241  11.362   4.884  0.0698  0.2814  0.3010
 7212W        W50265  20.543  33.745  16.626  0.2147  0.2342  0.0582
 7213W        W50266  24.159  22.764  18.883  0.0043  0.2237 -0.0796
 7214W        W50267  14.600  26.556  23.698  0.0809  0.0685 -0.1009
 7215W        W50268  27.730  26.180  26.515  0.0096 -0.2122  0.1013
 7216W        W50269  32.006  22.544  24.422 -0.0519 -0.2065  0.0301
 7217W        W50270  21.992  17.134  18.135  0.1862 -0.0314  0.1231
 7218W        W50271  19.650  15.076  25.594 -0.0862 -0.0522  0.2878
 7219W        W50272   2.472  13.074  22.006 -0.3210  0.2438  0.2321
 7220W        W50273  18.378  23.129  19.699  0.1552 -0.1882 -0.0222
 7221W        W50274  30.808  15.050  16.520 -0.0041 -0.0665  0.2693
 7222W        W50275  19.235  12.023  17.085 -0.1647  0.0055  0.0017
 7223W        W50276  30.608  22.871  17.354  0.0650  0.1039  0.2230
 7224W        W50277  24.950  20.059  14.260 -0.2072 -0.0247 -0.0369
 7225W        W50278  18.119  23.064  17.223  0.3426  0.0655 -0.1806
 7226W        W50279  18.352  15.758  26.266  0.2122  0.1029 -0.3896
 7227W        W50280  28.582  11.400  18.060  0.1883 -0.2705 -0.1846
 7228W        W50281   3.140   9.565   4.593 -0.2803  0.1950 -0.0634
 7229W        W50282  18.619  22.382  18.787 -0.0736 -0.1586  0.2168
 7230W        W50283  22.153  10.190  18.043  0.1453 -0.0034 -0.0972
 7231W        W50284  24.286  27.552   8.278 -0.0632 -0.1082 -0.1444
 7232W        W50285  21.998  10.357  14.657 -0.0298  0.0583 -0.2653
 7233W        W50286  14.287  23.945  21.160  0.1667  0.1029 -0.2136
 7234W        W50287  33.530  20.278   2.723  0.1317 -0.0865  0.3434
 7235W        W50288  17.809  14.918  14.856  0.2666  0.2646 -0.0345
 7236W        W50289   5.424  24.947  25.604 -0.1155 -0.2208  0.1703
 7237W        W50290  23.473  32.588  20.194 -0.3254  0.2965  0.1573
 7238W        W50291  20.619  32.430  15.503  0.0339 -0.0282  0.0347
 7239W        W50292  12.695  22.128  19.584  0.0124  0.3870 -0.0823
 7240W        W50293  24.075   4.320  23.015 -0.0835 -0.1108 -0.1169
 7241W        W50294  28.420  31.813  15.170  0.2416  0.0417  0.2592
 7242W        W50295  31.153  12.297   0.864 -0.2257 -0.1525 -0.3411
 7243W        W50296  11.457  30.539   8.771 -0.2126  0.0240  0.0136
 7244W        W50297  25.566  22.426  25.756 -0.0454  0.3796  0.2800
 7245W        W50298  22.668  21.001   0.912 -0.3953 -0.0332 -0.0529
 7246W        W50299  25.320  19.361  17.893 -0.3054  0.1768  0.0403
 7247W        W50300   8.274  32.844   8.618  0.0721  0.1564  0.0055
 7248W        W50301  13.898   2.193   0.646 -0.0650  0.0170  0.1083
 7249W        W50302  13.844   3.381  25.492  0.1257 -0.0049  0.0136
 7250W        W50303  22.952  11.657  16.743 -0.3315 -0.0005  0.2440
 7251W        W50304  20.490  11.453   1.798 -0.1683 -0.0793  0.1234
 7252W        W50305  20.532  18.406  21.553  0.0376  0.2721  0.2824
 7253W        W50306   9.254  26.943  19.769 -0.1093 -0.0614 -0.0620
 7254W        W50307  25.236  23.416  20.301 -0.0856  0.1208  0.0964
 7255W        W50308  23.754   7.430  15.458  0.0885 -0.3599 -0.1359
 7256W        W50309  31.142  27.072  20.050  0.3074  0.2347 -0.0498
 7257W        W50310  21.743  20.143  23.433  0.0777  0.2430 -0.0685
 7258W        W50311  14.067   7.839  22.867  0.2242  0.1660 -0.1482
 7259W        W50312  13.274  20.039  18.459 -0.3502  0.1416 -0.0073
 7260W        W50313  31.705  19.230  23.389  0.5435  0.5138  0.3671
 7261W        W50314   3.628  31.813  20.225 -0.4241 -0.0033 -0.3183
 7262W        W50315  21.773  21.690  21.919  0.1026 -0.1393  0.0174
 7263W        W50316  24.752  21.545  18.608 -0.4761  0.4745  0.0779
 7264W        W50317  30.011  13.362   1.070  0.0117 -0.1345 -0.1236
 7265W        W50318  23.646   1.022  25.145 -0.1112  0.0663  0.1560
 7266W        W50319  14.127  19.060  22.978  0.1952 -0.1656  0.0618
 7267W        W50320  24.893   3.023  14.538  0.0495  0.0938 -0.3354
 7268W        W50321  10.115  14.422  21.139  0.0705 -0.1051 -0.0931
 7269W        W50322   8.096  29.876  21.044 -0.1418 -0.2917 -0.1786
 7270W        W50323  22.437  16.447  13.856 -0.0504 -0.2405  0.1071
 7271W        W50324  34.387  20.263  23.507  0.1371  0.0292 -0.1026
 7272W        W50325  15.828   4.815  20.258 -0.0624  0.0901  0.1266
 7273W        W50326  16.037   0.189  27.187  0.0982  0.0873 -0.1309
 7274W        W50327  23.945  26.180   1.365 -0.0580 -0.2615 -0.2469
 7275W        W50328  28.711  17.570  28.726  0.0368  0.0372 -0.0381
 7276W        W50329   4.103  16.956  17.760  0.0509  0.0245  0.2235
 7277W        W50330   9.492  30.106  15.602  0.0650 -0.1867  0.2131
 7278W        W50331  19.051  10.547   0.012 -0.0339  0.0051 -0.0840
 7279W        W50332  18.990  31.899  15.847  0.3213 -0.0983 -0.4531
 7280W        W50333  25.289  15.895  22.498  0.0305 -0.4641 -0.1318
 7281W        W50334  22.119  20.806  18.528  0.1334 -0.1381 -0.0040
 7282W        W50335  25.642  23.516  19.430  0.1151  0.0644 -0.1395
 7283W        W50336  26.557  33.267  22.518 -0.2229 -0.2297 -0.2621
 7284W        W50337  28.117   1.386  27.150 -0.2033 -0.0589 -0.0507
 7285W        W50338  17.989  22.705  24.366 -0.2367 -0.0231 -0.0437
 7286W        W50339  16.145   5.719  20.028  0.0739  0.0487 -0.1849
 7287W        W50340  13.419  17.145  23.085 -0.1246 -0.3806  0.1733
 7288W        W50341  19.574  24.893  21.722 -0.1976  0.0266 -0.0047
 7289W        W50342  14.387  33.024  18.051 -0.1342 -0.0793  0.1226
 7290W        W50343  33.912  17.769   3.093 -0.0197 -0.1534 -0.1157
 7291W        W50344  26.048  18.596   0.579  0.7352  0.3824  0.1632
 7292W        W50345  25.454  23.698  26.903  0.0307 -0.0437  0.0795
 7293W        W50346   8.708  22.213  22.688 -0.0474 -0.0138 -0.2922
 7294W        W50347  18.406  24.014  19.430  0.0529 -0.2802  0.1174
 7295W        W50348  26.684  22.744  16.424  0.0926  0.3791  0.1894
 7296W        W50349  17.151  26.355  23.391 -0.0904 -0.2968  0.3295
 7297W        W50350  30.356  18.388  19.426 -0.2449 -0.4049  0.1060
 7298W        W50351  12.379  19.956   1.373  0.0115  0.3616 -0.0519
 7299W        W50352   3.582  11.460  16.059 -0.0768 -0.2277 -0.1866
 7300W        W50353  24.410  12.134  19.298 -0.0056  0.1453 -0.4206
 7301W        W50354  22.870  21.208  27.546 -0.1075  0.0150 -0.0754
 7302W        W50355   0.034   3.194  22.451 -0.0886  0.0311 -0.1871
 7303W        W50356  25.393  22.104  20.568 -0.1446 -0.1388 -0.0222
 7304W        W50357   1.501  27.890  25.182  0.2206  0.0612  0.0519
 7305W        W50358  32.188  32.469  18.605 -0.0196 -0.1614 -0.2455
 7306W        W50359  17.079   7.810  24.905  0.3215  0.2463  0.3386
 7307W        W50360  34.219  19.033  25.970 -0.0765  0.0582 -0.0423
 7308W        W50361  19.224  28.636  17.341 -0.2242 -0.1867  0.3337
 7309W        W50362  15.924  23.675  16.973 -0.1321  0.1728 -0.0201
 7310W        W50363  16.325  19.802  13.213 -0.1447  0.2483 -0.4054
 7311W        W50364  15.166   6.612  21.551  0.1072  0.0495 -0.1357
 7312W        W50365  19.434   8.446  24.315  0.0233 -0.2998  0.0534
 7313W        W50366  25.368  19.765  23.412  0.2074 -0.0276 -0.2896
 7314W        W50367  25.807  13.564   5.396 -0.0503 -0.3641 -0.2519
 7315W        W50368   3.387   5.261  17.883 -0.0607  0.0230 -0.0109
 7316W        W50369   9.343  14.120  16.203 -0.0790 -0.0270 -0.0068
 7317W        W50370  25.122  11.350  20.830 -0.0846  0.5499  0.2789
 7318W        W50371  24.286  22.069  18.103 -0.1386 -0.1134  0.2719
 7319W        W50372   8.024  11.181   6.938  0.2174 -0.0863  0.1465
 7320W        W50373  26.498  30.501  25.240  0.1156 -0.0722 -0.2538
 7321W        W50374  24.675  22.989  23.930  0.4124  0.1708  0.0924
 7322W        W50375  18.694  25.914  25.004 -0.3540 -0.2697 -0.0313
 7323W        W50376   1.834  25.907  19.476  0.0213  0.3554 -0.1762
 7324W        W50377  34.429  24.695   8.362  0.1476 -0.0522 -0.5113
 7325W        W50378  14.909  27.096  27.505 -0.1487 -0.1617  0.2187
 7326W        W50379  27.492  10.679  18.634  0.0379 -0.3350 -0.2856
 7327W        W50380  14.394  13.822  16.069  0.2614  0.1245 -0.0612
 7328W        W50381  28.010  24.368  18.220  0.0189  0.3077  0.0755
 7329W        W50382  23.679  31.366   3.529  0.0821  0.1273  0.1253
 7330W        W50383  25.333  12.223  16.687 -0.1572  0.2549  0.1173
 7331W        W50384  24.790  33.683  21.816 -0.3387  0.2409  0.2742
 7332W        W50385  33.992  17.643  29.094  0.2886 -0.0056  0.0342
 7333W        W50386  25.000  19.438  15.535 -0.1362  0.2704  0.0820
 7334W        W50387  29.077  33.033  17.671 -0.2312 -0.0723 -0.1326
 7335W        W50388  22.729  32.842  15.276 -0.1995 -0.2485  0.1627
 7336W        W50389  28.866  29.035  23.095  0.1234  0.2082  0.1897
 7337W        W50390  29.092   7.212  19.865 -0.2235 -0.1340  0.1435
 7338W        W50391  11.103  17.445  22.771 -0.4705  0.2813  0.0971
 7339W        W50392   6.831  19.653  15.817  0.1306 -0.0063  0.0959
 7340W        W50393   9.892  26.456  18.870  0.2518  0.0358  0.0200
 7341W        W50394  31.541  17.015  24.964 -0.0783 -0.1313 -0.3807
 7342W        W50395  19.198  24.234  20.162 -0.2179  0.2202  0.0726
 7343W        W50396  13.957  11.008  16.951 -0.1588  0.1235 -0.1622
 7344W        W50397  25.227   9.187  24.465  0.3792 -0.0333  0.2320
 7345W        W50398  16.606  24.500  18.993  0.0883  0.0286  0.0375
 7346W        W50399  13.824  29.109  27.084  0.3646  0.2753 -0.0867
 7347W        W50400  18.364  19.093  12.804 -0.1348  0.0758 -0.0188
 7348W        W50401   4.569  31.868  24.833  0.3145 -0.3621 -0.0519
 7349W        W50402  24.546  29.305  20.986  0.1313 -0.1601  0.2606
 7350W        W50403  13.052  25.209   5.278  0.1107  0.2471  0.4343
 7351W        W50404  33.875  20.728   8.474 -0.0405 -0.1378  0.1915
 7352W        W50405  21.379  18.141  22.470  0.1668 -0.1124 -0.0059
 7353W        W50406  19.360  20.734  15.254  0.1957 -0.1900 -0.0826
 7354W        W50407  23.563  16.730   1.481 -0.0995 -0.0022 -0.1208
 7355W        W50408  27.640   2.536  20.741  0.1869  0.0280 -0.2789
 7356W        W50409  22.058  20.829  16.080  0.1175  0.3020 -0.0837
 7357W        W50410  27.400  14.624  22.031  0.2862  0.1704  0.0189
 7358W        W50411  26.085  21.549  27.304  0.0243 -0.2155  0.1589
 7359W        W50412   2.558   8.087  19.058 -0.0597 -0.0504  0.2571
 7360W        W50413  19.656  20.927   9.657 -0.2876 -0.2758  0.2574
 7361W        W50414  20.530  34.090  20.364 -0.1512  0.0862  0.1017
 7362W        W50415  13.084  12.379  17.399  0.2609 -0.0092 -0.2427
 7363W        W50416   1.645  28.104  19.045  0.1758 -0.0683  0.1950
 7364W        W50417  26.595  18.531   0.391 -0.1176  0.1287  0.0558
 7365W        W50418   6.682  10.638  21.110 -0.2480  0.1541 -0.3770
 7366W        W50419  16.030   6.677  15.723 -0.0565  0.1318  0.1012
 7367W        W50420  19.732  10.996  23.620 -0.0817  0.0044 -0.3499
 7368W        W50421   7.019  27.027  14.496  0.1576  0.3113 -0.3788
 7369W        W50422  23.109   9.771  22.931  0.0498 -0.0966 -0.2460
 7370W        W50423  34.414  18.374  24.224 -0.2531 -0.3041 -0.0213
 7371W        W50424  19.003  31.552   4.178 -0.0948  0.1761  0.0937
 7372W        W50425  19.784   8.794   3.135 -0.3881 -0.0266 -0.1248
 7373W        W50426  32.588  23.860  19.038  0.1931 -0.0633  0.0740
 7374W        W50427  30.017  13.261  23.846  0.2318  0.3344 -0.3674
 7375W        W50428  16.469  24.900  20.051 -0.0420 -0.0597 -0.0070
 7376W        W50429  30.145   1.028  15.397  0.1084  0.0257  0.1276
 7377W        W50430   5.287   5.470   0.251 -0.0479 -0.1419 -0.1180
 7378W        W50431  29.990   3.483   4.520 -0.2483 -0.0981  0.0585
 7379W        W50432  10.245  11.777  16.026 -0.0473 -0.2670 -0.3289
 7380W        W50433   2.473  22.931  16.855 -0.0453 -0.1094 -0.2077
 7381W        W50434  33.621   1.424  17.845  0.1062  0.1247  0.2047
 7382W        W50435  24.680  21.280  16.813 -0.1558  0.0535  0.1732
 7383W        W50436  21.137  14.574  16.429 -0.1455  0.1326 -0.0753
 7384W        W50437  25.109  29.299  17.533  0.1425  0.2330 -0.1972
 7385W        W50438  26.597  21.597  18.485  0.0576 -0.0771 -0.3090
 7386W        W50439   7.445  27.946  28.746  0.3384 -0.0400  0.1083
 7387W        W50440  26.012  23.341  26.280  0.2120  0.0153  0.4389
 7388W        W50441   9.218  14.123   0.398  0.0080  0.0302 -0.0677
 7389W        W50442  17.650  17.253   0.922  0.1791 -0.0314 -0.0576
 7390W        W50443  19.365   8.690  19.753 -0.2639 -0.0770  0.0150
 7391W        W50444   9.464  24.735  17.226  0.0943  0.0684 -0.2406
 7392W        W50445  15.372  18.871   4.424  0.1622 -0.0949  0.0546
 7393W        W50446  23.782  18.221  23.296 -0.3334 -0.2108  0.0395
 7394W        W50447  19.309  28.832  20.350  0.1305  0.2543  0.0834
 7395W        W50448  27.947  20.038  26.821  0.1972  0.0149  0.1017
 7396W        W50449  33.322  13.483  25.085  0.0478 -0.1075 -0.0106
 7397W        W50450  29.522  28.750  14.718  0.4169 -0.0153  0.1135
 7398W        W50451  22.854  19.171  19.822  0.1145  0.0204  0.1009
 7399W        W50452  20.253  29.349   6.952  0.0361  0.0852  0.0707
 7400W        W50453  26.308  14.561  15.220  0.2201  0.1466 -0.3506
 7401W        W50454  21.980  23.271   4.757  0.0394 -0.0095 -0.0636
 7402W        W50455  28.478  22.806  14.570 -0.0046 -0.1791  0.2059
 7403W        W50456  19.758  17.617  14.849 -0.2994 -0.2472  0.0953
 7404W        W50457   3.952  31.675  16.132  0.1322  0.2272  0.0463
 7405W        W50458  18.157   8.059  15.272 -0.2755 -0.1017 -0.2332
 7406W        W50459  12.774  30.074  27.014  0.1733  0.1944  0.0480
 7407W        W50460  15.898  11.732  27.474  0.2143  0.1707  0.2158
 7408W        W50461  28.566  29.745  20.306 -0.2331  0.1697  0.0423
 7409W        W50462  16.026  13.668  24.648  0.0574 -0.2188  0.1220
 7410W        W50463  17.299   9.422   4.750 -0.1508 -0.0158 -0.1934
 7411W        W50464  23.192  21.878  18.376  0.1583  0.1419  0.0094
 7412W        W50465  21.581   3.390  14.363  0.2658  0.1866 -0.2003
 7413W        W50466  13.769  10.217  19.037  0.1951  0.0057 -0.0031
 7414W        W50467  31.102  12.903   3.741  0.0803 -0.0772 -0.1751
 7415W        W50468  23.988  30.346  19.653 -0.0757 -0.0980  0.3834
 7416W        W50469  30.822  22.558  27.463 -0.0303 -0.0357 -0.2831
 7417W        W50470   8.857  25.513  12.964  0.1281  0.0826  0.1811
 7418W        W50471  16.529  22.059  15.490 -0.1224  0.2157  0.0651
 7419W        W50472   8.852  15.445  21.358 -0.3941 -0.3419  0.0728
 7420W        W50473   9.481  17.201  28.725  0.0624 -0.1265  0.1540
 7421W        W50474   8.316  29.368   8.446 -0.0294  0.2280  0.0645
 7422W        W50475  30.140  23.645  16.810 -0.0949  0.0857 -0.0585
 7423W        W50476  11.333   5.048  23.626 -0.0432  0.2438 -0.0390
 7424W        W50477  34.260  22.082  18.123  0.0585 -0.2538 -0.1223
 7425W        W50478  29.024  16.144  22.054  0.2855 -0.0549 -0.1333
 7426W        W50479  23.374  22.439  17.852  0.1208  0.0299  0.0335
 7427W        W50480   4.724  24.418  18.115 -0.1308 -0.1229 -0.2022
 7428W        W50481  29.258   1.073  25.731 -0.3345 -0.1060  0.2147
 7429W        W50482  22.939  22.703  18.623 -0.1706  0.0966  0.2026
 7430W        W50483  31.849  19.057  15.388 -0.0288 -0.1141 -0.3331
 7431W        W50484  31.666  22.744  28.467 -0.1336  0.1072  0.2565
 7432W        W50485  17.445  20.760  17.461 -0.0062  0.1079 -0.0989
 7433W        W50486  24.687   0.421   4.937  0.2780 -0.0317 -0.1427
 7434W        W50487  19.753  25.224  16.291  0.1034  0.4243 -0.1689
 7435W        W50488   2.688  20.001  25.845 -0.0097  0.0212 -0.3263
 7436W        W50489  14.074  25.067  15.333  0.1759  0.0303  0.0219
 7437W        W50490   3.654   4.746  21.345 -0.1415 -0.0904 -0.2054
 7438W        W50491  19.933  10.709  28.330 -0.0893  0.3922  0.2733
 7439W        W50492  18.538  34.029   5.726  0.0256 -0.2248 -0.0067
 7440W        W50493  34.002  14.742   7.816  0.1561 -0.0597 -0.0146
 7441W        W50494  16.755  21.719   0.405  0.1987 -0.2956 -0.0616
 7442W        W50495  32.095  26.578  19.188  0.0883  0.1049  0.1030
 7443W        W50496   4.723  22.532  22.173 -0.0603 -0.0507 -0.0068
 7444W        W50497  29.823  19.918  17.627  0.0855  0.3898 -0.3244
 7445W        W50498  17.448  27.769   6.720 -0.0792 -0.0326  0.2661
 7446W        W50499  25.387   8.670   4.018 -0.1360 -0.0377 -0.1059
 7447W        W50500  21.924  22.693  21.062 -0.1141 -0.0716 -0.1411
 7448W        W50501  23.042  26.103  16.691 -0.0939  0.1461  0.0105
 7449W        W50502  22.988  32.358  20.359  0.4096 -0.0815  0.2595
 7450W        W50503   4.930  23.157  17.651  0.3661  0.3955  0.0786
 7451W        W50504   5.040  16.676  27.855 -0.0681 -0.0642  0.0562
 7452W        W50505  25.148  18.524  25.169 -0.1208  0.0265 -0.0876
 7453W        W50506  26.544  17.763   0.695  0.0768 -0.2301 -0.3002
 7454W        W50507   3.796  30.834  14.219 -0.0702 -0.0568 -0.0288
 7455W        W50508   2.230  19.902  19.709  0.2050  0.2502  0.3431
 7456W        W50509  19.739  17.271  13.000  0.1789 -0.1059  0.2287
 7457W        W50510  30.209  13.438  21.481 -0.0971  0.1295 -0.2731
 7458W        W50511  28.385   4.918  16.824 -0.1855  0.0706 -0.2261
 7459W        W50512  17.485  31.971  22.129  0.0795  0.0568  0.0546
 7460W        W50513  31.032  17.138  27.325 -0.2681  0.3681 -0.0057
 7461W        W50514  13.919  24.875  27.560  0.1248 -0.0464 -0.0153
 7462W        W50515   9.332  26.977  26.523 -0.0321  0.0197  0.1082
 7463W        W50516  25.599  20.657  16.303  0.1188  0.0719 -0.1910
 7464W        W50517  19.574  27.964  15.998  0.0216 -0.2091  0.2188
 7465W        W50518  21.879  21.538  14.958 -0.0945  0.4132 -0.0627
 7466W        W50519  30.982  13.843  18.448 -0.1355 -0.0323  0.1953
 7467W        W50520  17.024  12.251  16.220  0.1916  0.2088  0.0786
 7468W        W50521  21.885  17.834  25.338  0.4071 -0.2501  0.1591
 7469W        W50522  17.572  17.016  24.859 -0.1011  0.3802 -0.1857
 7470W        W50523  23.924  28.383   0.181 -0.1109  0.1589  0.0192
 7471W        W50524  32.928  28.410  14.950  0.0765 -0.1195 -0.2546
 7472W        W50525  26.663   2.123  24.754  0.2868  0.0697 -0.2372
 7473W        W50526  30.280  24.656  28.534 -0.0032  0.1587  0.2858
 7474W        W50527  23.794  29.813  15.129  0.1670  0.2609  0.1523
 7475W        W50528  11.243   8.020  16.233 -0.4270  0.0830 -0.2450
 7476W        W50529  12.743  11.515  19.380 -0.0754  0.1745  0.2238
 7477W        W50530  25.348  17.342  16.589 -0.2756 -0.1699  0.2594
 7478W        W50531  24.544  18.700  17.656 -0.2208  0.3719 -0.2269
 7479W        W50532  30.424  29.345  27.793  0.1399 -0.1189 -0.1689
 7480W        W50533  17.527  21.757   1.113 -0.0507  0.0132  0.0073
 7481W        W50534  30.046  30.982  18.337  0.1102  0.1316 -0.1421
 7482W        W50535   1.377  27.831  14.565  0.1180  0.0540  0.0944
 7483W        W50536  10.962  25.212  19.778 -0.1455  0.0906  0.2520
 7484W        W50537  16.874  10.677  17.245  0.2795 -0.1653 -0.0016
 7485W        W50538  11.464   2.469  27.244  0.2101 -0.1177 -0.2510
 7486W        W50539   5.032  22.269  17.676 -0.4465  0.1827 -0.0014
 7487W        W50540   8.834  10.531  25.166 -0.4302  0.2492 -0.0862
 7488W        W50541  30.982  14.049  23.618  0.0447  0.3939 -0.1069
 7489W        W50542  16.921  25.776  14.795 -0.1514  0.0571 -0.1582
 7490W        W50543   0.244   8.383  26.046 -0.2020 -0.0688  0.0172
 7491W        W50544  28.978  14.076  29.101 -0.0212 -0.0278  0.0044
 7492W        W50545  13.005  16.489  16.607  0.0683  0.0407 -0.0139
 7493W        W50546  32.761   6.684  22.398 -0.0036  0.2119  0.0656
 7494W        W50547   0.163  25.908  24.474  0.1140  0.0232  0.0401
 7495W        W50548  26.431  28.849  22.780  0.1893  0.0853  0.1628
 7496W        W50549  23.743  28.373  14.413 -0.0731 -0.1150 -0.0523
 7497W        W50550  29.550  10.286   0.302 -0.0548  0.2171  0.0810
 7498W        W50551  24.627  26.638  18.548 -0.1809  0.1684  0.3217
 7499W        W50552  29.705  25.158  23.321  0.0342  0.0351 -0.0571
 7500W        W50553  25.959  12.452  16.584 -0.0759  0.0594 -0.5927
 7501W        W50554   7.557  17.810  26.670 -0.1374 -0.0813  0.0007
 7502W        W50555   1.400  29.484  13.889 -0.2691 -0.1801  0.0928
 7503W        W50556  13.044   1.331  19.453  0.0904 -0.1024 -0.0175
 7504W        W50557  16.149  28.433  26.684  0.2052 -0.1350  0.1615
 7505W        W50558  21.036  28.600  15.573  0.0465  0.0727  0.1188
 7506W        W50559  17.352  26.629   3.617 -0.1322  0.0105 -0.3036
 7507W        W50560  24.931   8.184  17.518  0.2847 -0.0304 -0.0890
 7508W        W50561  27.457  18.402   4.093 -0.1444  0.0826 -0.1379
 7509W        W50562  23.227   2.338  20.558  0.1582  0.0517 -0.2448
 7510W        W50563  12.675  11.975  28.518  0.1657 -0.0097 -0.0433
 7511W        W50564  21.804  21.360  25.012 -0.2411 -0.3755 -0.3087
 7512W        W50565  24.534  28.435  22.079  0.1393  0.0231 -0.0611
 7513W        W50566  23.424  19.264  15.125 -0.3210 -0.3683  0.0719
 7514W        W50567  28.096  31.340   3.059 -0.0461  0.1866 -0.0668
 7515W        W50568  23.954  17.099  22.697 -0.5347 -0.0547  0.1067
 7516W        W50569  32.046  24.392   5.979  0.1266  0.0991 -0.2973
 7517W        W50570  30.011  14.430   5.513 -0.0384 -0.0984  0.3037
 7518W        W50571  11.700  24.078   2.270 -0.0125 -0.2581 -0.2648
 7519W        W50572  25.030  24.210  17.308 -0.0218 -0.1770  0.0834
 7520W        W50573   1.252   2.538   5.378  0.1284  0.0406  0.0333
 7521W        W50574  18.029  18.012   0.277  0.0480  0.3080  0.2528
 7522W        W50575  20.386  14.982  20.634  0.1895  0.1456  0.0080
 7523W        W50576  31.846  13.842  15.930  0.0991 -0.0763  0.2337
 7524W        W50577   1.863  11.793   7.957 -0.0610  0.1430  0.0300
 7525W        W50578  18.724  27.261  16.516  0.3678 -0.0205  0.1849
 7526W        W50579  19.340  24.613  23.447  0.1428  0.0064 -0.0409
 7527W        W50580  19.949  26.527  14.990  0.2262 -0.2124  0.0558
 7528W        W50581  13.405  24.426  17.694  0.1819 -0.1282 -0.3386
 7529W        W50582  30.577  13.493  21.939 -0.3212  0.5392  0.0713
 7530W        W50583   0.395  16.132  26.293  0.2444 -0.1268  0.0552
 7531W        W50584  17.985  21.678   3.249 -0.0121  0.2598  0.0938
 7532W        W50585  15.192  28.211  22.791 -0.0709  0.0410 -0.2510
 7533W        W50586  25.826  20.019   4.873 -0.0329  0.4777 -0.3331
 7534W        W50587  28.685  12.603  29.167 -0.0922 -0.2348  0.0979
 7535W        W50588   6.136  27.196  28.644  0.0221 -0.2584 -0.0709
 7536W        W50589   7.024  18.497   4.012  0.1812  0.2287  0.0060
 7537W        W50590  24.368  28.827   3.577  0.2928 -0.0639  0.1470
 7538W        W50591  16.660  17.841  15.229  0.1657  0.3399  0.1245
 7539W        W50592  29.582  19.644  26.339 -0.0196  0.2563 -0.2857
 7540W        W50593  25.141  16.600   1.385  0.4544  0.0176 -0.2196
 7541W        W50594  24.163  25.752  19.476 -0.0128  0.3545 -0.0891
 7542W        W50595   7.998  23.812  15.140  0.1344  0.0196  0.1733
 7543W        W50596  21.796  23.002  20.528  0.0861 -0.2136 -0.4200
 7544W        W50597   5.852  25.811  22.434 -0.0570  0.0896  0.0170
 7545W        W50598  30.062  27.045  19.768  0.1230 -0.0455 -0.0805
 7546W        W50599  16.286   0.846  22.508  0.1923 -0.0578 -0.2063
 7547W        W50600  25.107  15.834  27.268  0.1242  0.1885  0.1533
 7548W        W50601  28.094   9.839  16.542  0.3019  0.0834  0.0589
 7549W        W50602  23.481  16.708  14.952 -0.0047 -0.0523 -0.0493
 7550W        W50603  23.576   2.924  22.266 -0.1519 -0.1855  0.0413
 7551W        W50604  29.560  16.836  19.176 -0.3139 -0.0505 -0.0051
 7552W        W50605   0.349   9.040   9.574  0.3029 -0.1219  0.3279
 7553W        W50606  20.067  19.813  13.487 -0.3516  0.0022  0.2330
 7554W        W50607  23.949  27.021   9.084  0.0659  0.1953 -0.0910
 7555W        W50608  26.802   7.220   0.758 -0.2143  0.1780 -0.1128
 7556W        W50609  16.521  11.358   6.453  0.0690  0.0659  0.2048
 7557W        W50610  16.598  23.669  21.048 -0.1319  0.0309  0.2358
 7558W        W50611  22.468  23.670  10.288  0.1856 -0.1779  0.0723
 7559W        W50612  27.721  28.062   7.339  0.3664  0.2393  0.1549
 7560W        W50613   0.866  19.836  16.362  0.1634 -0.1301  0.2167
 7561W        W50614  29.232  11.123  18.500 -0.0237 -0.2660  0.0956
 7562W        W50615  20.398  20.376  15.729 -0.0791 -0.2023  0.1168
 7563W        W50616  20.974  18.820  23.779  0.1296  0.0440  0.0489
 7564W        W50617  20.798   6.178  21.601 -0.0895  0.0713  0.1705
 7565W        W50618  30.308   9.109  20.345  0.2005  0.0333 -0.1394
 7566W        W50619  23.925   8.378  15.451  0.1870 -0.1292 -0.2270
 7567W        W50620   9.308  21.018   1.840  0.4866  0.0641  0.1857
 7568W        W50621  25.125   4.785  23.900  0.0118  0.1759 -0.1762
 7569W        W50622  14.851   8.003  17.384 -0.1857  0.0882  0.1051
 7570W        W50623  30.706   6.419   2.383 -0.1125 -0.0951  0.1169
 7571W        W50624  33.645  28.032  26.796 -0.0857  0.1013 -0.2277
 7572W        W50625  18.059  14.475  13.692  0.1235  0.1586 -0.2983
 7573W        W50626  32.041  24.720   9.568  0.0098  0.1467  0.0816
 7574W        W50627   5.823  29.816  26.327 -0.4491 -0.3181  0.1478
 7575W        W50628  29.385   0.807   3.377  0.1294 -0.0241 -0.1302
 7576W        W50629  10.788   1.920  24.031 -0.0987  0.0466  0.0949
 7577W        W50630  27.563  34.062   0.684 -0.0548  0.1290  0.1945
 7578W        W50631  27.718  21.743   3.446  0.0810  0.1343 -0.2749
 7579W        W50632  15.079  13.525  17.656 -0.4879  0.1092  0.0619
 7580W        W50633  17.099  18.886  15.798  0.2194 -0.0236 -0.1738
 7581W        W50634  33.826  32.930  16.740 -0.0669 -0.3186  0.1414
 7582W        W50635  22.365  31.449  14.061  0.0492 -0.2760 -0.1094
 7583W        W50636  33.411  11.252  25.946 -0.2993  0.2517  0.0609
 7584W        W50637   0.609  33.996  27.474  0.1431  0.1192 -0.0048
 7585W        W50638  22.256  22.584  27.636 -0.0563 -0.4800 -0.0607
 7586W        W50639  15.379  24.726  15.835 -0.1918 -0.0588  0.3617
 7587W        W50640  25.961  23.789  27.635  0.0886  0.0268 -0.1238
 7588W        W50641  11.896  14.188   0.199  0.0541  0.2593  0.0734
 7589W        W50642  28.004  15.569  22.895  0.1408  0.2928 -0.1032
 7590W        W50643   1.736  22.649  15.248 -0.1383 -0.2504 -0.0239
 7591W        W50644  21.721  26.677   7.870  0.0659  0.1306  0.1018
 7592W        W50645  26.694  25.628  28.856  0.3120  0.0722 -0.0742
 7593W        W50646   6.167  29.736   2.499 -0.1251 -0.0258  0.1405
 7594W        W50647  33.158  15.373   9.129  0.0019 -0.0971  0.0615
 7595W        W50648  29.815  12.060  24.118 -0.2677 -0.0595  0.1512
 7596W        W50649  10.830  16.241  23.389  0.1011 -0.1839 -0.2064
 7597W        W50650  17.037   6.025  19.926  0.0889 -0.4636  0.0097
 7598W        W50651   9.368  21.802  24.572 -0.2078  0.1488  0.0792
 7599W        W50652  11.753  26.372  28.052 -0.2396 -0.2136  0.1650
 7600W        W50653   2.692  30.562   7.673 -0.1615 -0.1459 -0.4372
 7601W        W50654  27.900  33.699  20.021 -0.3210  0.2028 -0.0749
 7602W        W50655  28.907  33.032  23.993 -0.0403 -0.0586 -0.2591
 7603W        W50656  28.127  13.287  19.299  0.2107 -0.2836 -0.1462
 7604W        W50657  26.978  28.807  26.969 -0.1285  0.0432 -0.0664
 7605W        W50658  18.999  17.845  26.471 -0.2136 -0.1555  0.0956
 7606W        W50659  12.831  15.089  21.582 -0.1923  0.2615 -0.1578
 7607W        W50660  23.106  18.341  28.314 -0.0421 -0.0639  0.0816
 7608W        W50661  18.898  23.545  25.431 -0.1795  0.1743 -0.0610
 7609W        W50662   7.823  25.636  17.199 -0.2207  0.2311  0.1211
 7610W        W50663  24.938  21.659   8.628  0.2443 -0.1002  0.0230
 7611W        W50664  22.872  12.405   6.439 -0.1257 -0.2074  0.2296
 7612W        W50665  22.194  30.213  26.697 -0.1340  0.0610 -0.0536
 7613W        W50666   0.359  33.012  16.265 -0.0730 -0.0816  0.0040
 7614W        W50667   4.969  26.718  28.124 -0.0069 -0.1502  0.1890
 7615W        W50668  21.637  24.670  21.146  0.0353  0.0380  0.0686
 7616W        W50669   9.098   4.006  28.911 -0.2593 -0.1964  0.0496
 7617W        W50670  25.287   0.109   0.077 -0.1372  0.0778  0.0675
 7618W        W50671  23.899  14.199   4.366  0.0769 -0.1460 -0.1054
 7619W        W50672   5.642  20.422  18.845 -0.2446  0.0259  0.2683
 7620W        W50673  27.704  16.369  10.402 -0.0538  0.0220  0.2562
 7621W        W50674   0.940   3.276  16.552 -0.0992  0.1170 -0.1419
 7622W        W50675   3.587  29.071   5.655 -0.2374  0.2653  0.0030
 7623W        W50676  34.209  25.051   6.200  0.1446  0.2192  0.2520
 7624W        W50677  34.161   6.316  18.221  0.1827  0.1188 -0.1725
 7625W        W50678  31.885  15.004   3.966  0.1791  0.1374 -0.0261
 7626W        W50679  34.083  23.016  20.975  0.1256  0.0288 -0.1054
 7627W        W50680  24.013  11.386   1.986 -0.0867  0.0809  0.2522
 7628W        W50681  13.294   5.649   3.619  0.1646 -0.0148  0.0050
 7629W        W50682  13.872  19.001   0.259 -0.2666 -0.0830 -0.0139
 7630W        W50683   3.127  16.869  24.616  0.0587  0.0215  0.2726
 7631W        W50684  16.119   5.967  18.823  0.2480 -0.2934 -0.1344
 7632W        W50685  27.269  22.019   5.747 -0.0667 -0.1407 -0.1687
 7633W        W50686   0.437  26.076  21.006  0.4408  0.0827 -0.0675
 7634W        W50687   0.917  21.579   4.980  0.2407 -0.3402  0.0380
 7635W        W50688  14.139   5.655  24.222 -0.1443  0.0516 -0.1087
 7636W        W50689   8.178  11.569   5.630 -0.0640  0.4921 -0.0399
 7637W        W50690  20.837  12.256  18.713 -0.0251 -0.0854 -0.0491
 7638W        W50691  20.736  16.791  28.791 -0.2331 -0.1873  0.0759
 7639W        W50692  11.948  25.769   2.964  0.2222 -0.2547  0.1956
 7640W        W50693  18.024   2.107  16.120 -0.0486 -0.1534  0.2246
 7641W        W50694  27.527  18.821  17.462 -0.0591 -0.0233  0.2189
 7642W        W50695  22.445  34.241  23.014  0.1779  0.3737  0.1568
 7643W        W50696   1.749  33.367  22.430 -0.2794  0.2581 -0.2657
 7644W        W50697  15.504   9.190   8.302 -0.0370 -0.1848 -0.0041
 7645W        W50698  20.539  26.398   9.908  0.0782  0.2334  0.1447
 7646W        W50699  32.022   1.829  17.478  0.2113 -0.2713 -0.0862
 7647W        W50700   6.792  16.265   2.558  0.1638  0.1085 -0.0399
 7648W        W50701  17.930  20.188  27.783  0.0589  0.1968 -0.2966
 7649W        W50702   0.276  22.826  22.705  0.2193 -0.2183 -0.0655
 7650W        W50703   5.131  30.879  21.171 -0.2187 -0.2234  0.0698
 7651W        W50704   7.061   9.166  18.089 -0.4256 -0.1000 -0.5088
 7652W        W50705  31.166  26.707  14.202  0.1843 -0.0222 -0.2103
 7653W        W50706  12.061   2.539  28.473 -0.1025  0.1608  0.2648
 7654W        W50707  19.673  16.020  23.866 -0.1086  0.2278  0.1053
 7655W        W50708  30.705  20.234  13.922 -0.0203  0.0315 -0.1442
 7656W        W50709   0.392   8.674   5.298  0.1061 -0.0488  0.0261
 7657W        W50710   4.987  20.515  24.154  0.1916 -0.0448  0.0094
 7658W        W50711   0.588  24.410  14.500 -0.0338 -0.1443 -0.0360
 7659W        W50712  31.423  14.776  24.649  0.3957 -0.0692  0.1413
 7660W        W50713  16.244  15.047   5.544  0.0868 -0.0389 -0.0496
 7661W        W50714  14.240  14.513   5.005 -0.1784 -0.2188  0.4311
 7662W        W50715  29.233  18.623  17.544 -0.0140 -0.0272  0.3166
 7663W        W50716  34.443  10.381  18.736  0.1096  0.1550  0.2871
 7664W        W50717  21.191  21.835   2.812  0.1829 -0.1903  0.0519
 7665W        W50718  23.025  31.999  24.367 -0.3554 -0.1425 -0.3112
 7666W        W50719  21.711  13.852  17.229  0.0317 -0.2485  0.1492
 7667W        W50720  30.855  19.655  25.838  0.0270 -0.0296  0.0501
 7668W        W50721  28.588  24.786  22.920  0.0685  0.0094 -0.2488
 7669W        W50722  24.429  34.609  22.310  0.0232 -0.0756 -0.2571
 7670W        W50723   8.825  26.950  27.614 -0.1687  0.0937  0.2140
 7671W        W50724  26.686  23.008  14.610  0.1943 -0.2264  0.0261
 7672W        W50725  28.102  20.132  15.095  0.1693 -0.0864 -0.2003
 7673W        W50726   9.466  16.755  24.165 -0.0346 -0.1966 -0.0646
 7674W        W50727  24.140  12.293  21.140 -0.1189  0.1763  0.0238
 7675W        W50728  27.462  28.505  20.546 -0.1608 -0.2229  0.1204
 7676W        W50729   0.325  21.524  24.304  0.1835 -0.1040  0.0896
 7677W        W50730  24.707  24.762  16.929 -0.0304 -0.0637 -0.3272
 7678W        W50731  31.900   2.555  23.949 -0.0151  0.1337  0.0459
 7679W        W50732   9.995   7.601  25.059  0.1577 -0.0264  0.0334
 7680W        W50733  21.398  28.588  18.494  0.0243 -0.4361 -0.2680
 7681W        W50734  28.562   8.609   0.604  0.5572  0.1731 -0.2014
 7682W        W50735   2.797  25.882  18.132  0.1192 -0.1568 -0.0948
 7683W        W50736  26.961  20.219  22.471  0.2551 -0.4372  0.0482
 7684W        W50737   8.601  26.962   8.935 -0.1378  0.0585  0.0045
 7685W        W50738  29.167  31.980  21.003  0.3340 -0.0470 -0.2717
 7686W        W50739   0.670  12.511  18.578 -0.0833  0.0492 -0.1993
 7687W        W50740  13.411  26.237   2.012 -0.0748  0.1349  0.0260
 7688W        W50741  10.690   2.433  28.658 -0.0568  0.0104  0.1646
 7689W        W50742   6.497  20.469  21.464 -0.1567  0.0388 -0.0418
 7690W        W50743   2.968   8.930  14.033  0.2895  0.0957 -0.0759
 7691W        W50744  33.214   1.786  19.571 -0.1192 -0.2075 -0.0791
 7692W        W50745  26.840  10.355   0.341  0.4030 -0.1960 -0.1309
 7693W        W50746  23.602  23.218  22.488 -0.1687 -0.0767  0.1283
 7694W        W50747   1.247  22.110  24.590 -0.2080  0.2326 -0.4864
 7695W        W50748  30.665  15.657  27.734 -0.1284  0.0847 -0.0600
 7696W        W50749  23.378   3.712  21.848 -0.0955 -0.1036 -0.0007
 7697W        W50750  14.893  23.916   2.447  0.0223 -0.1026 -0.0350
 7698W        W50751   0.767  28.190   2.245 -0.0898  0.2650 -0.0110
 7699W        W50752  22.182  25.002  26.545  0.1532  0.0572 -0.0287
 7700W        W50753  25.141  17.638  14.750 -0.2438  0.0629 -0.2905
 7701W        W50754  30.713  31.338  18.468 -0.2376 -0.2352 -0.0227
 7702W        W50755  30.179  18.045  22.964  0.2271  0.0023 -0.2578
 7703W        W50756  19.596   0.487  14.995  0.1176 -0.1300  0.0656
 7704W        W50757   3.955  15.270  17.999 -0.0975 -0.1235 -0.0106
 7705W        W50758  16.447  17.121  24.403  0.0988  0.0868  0.1673
 7706W        W50759   2.367  14.727  20.574 -0.0119  0.0908  0.2159
 7707W        W50760  29.738   2.918  20.186  0.1725 -0.0577 -0.1990
 7708W        W50761  23.216   4.296   0.391 -0.3467 -0.2339  0.0446
 7709W        W50762  30.881  33.845  19.155 -0.0491  0.1595 -0.0638
 7710W        W50763  29.591  14.732   5.562  0.1879 -0.1700  0.1532
 7711W        W50764  22.099  30.906   9.294  0.1730 -0.0651 -0.0636
 7712W        W50765  24.634  25.487  27.791  0.0280 -0.1496 -0.0997
 7713W        W50766  22.918   1.638  19.331 -0.1933 -0.0816 -0.0768
 7714W        W50767  21.272   2.088   7.425 -0.0137 -0.0288 -0.1216
 7715W        W50768   9.773  21.055   4.512 -0.0459 -0.0896  0.0877
 7716W        W50769  13.796  11.222  24.613  0.4590 -0.0368  0.2687
 7717W        W50770  28.286   4.300  16.087 -0.1055 -0.0364 -0.1346
 7718W        W50771   0.301  25.509  18.732 -0.0308  0.0486  0.0521
 7719W        W50772  18.687  34.585  28.819 -0.2449  0.0406  0.1594
 7720W        W50773  23.133  31.098   0.557 -0.3427 -0.1820 -0.1405
 7721W        W50774  21.920  29.516  24.969 -0.2392  0.1422  0.1857
 7722W        W50775  25.998  25.529  15.941  0.3610 -0.2901 -0.0030
 7723W        W50776  34.314  17.985  27.396  0.2166 -0.5287 -0.0763
 7724W        W50777  28.251  20.710   3.842 -0.1671  0.3734 -0.0903
 7725W        W50778  12.158  16.801  17.409  0.0548  0.3123  0.2297
 7726W        W50779  23.833  15.643  20.590 -0.1978 -0.1547  0.0757
 7727W        W50780  28.873  15.928  20.303 -0.0232 -0.2492 -0.0017
 7728W        W50781  20.457   0.442  26.230 -0.0310  0.0362  0.1213
 7729W        W50782  33.056  21.228  20.709  0.2977 -0.0586 -0.0615
 7730W        W50783   4.739   0.383   5.540  0.0687  0.3118 -0.2479
 7731W        W50784  24.497   9.050  26.474  0.4635  0.1405 -0.2494
 7732W        W50785  29.818   7.820  19.550  0.1150  0.0214 -0.0179
 7733W        W50786   7.218   9.470  23.286  0.2495 -0.2352 -0.0508
 7734W        W50787  30.916  31.293  23.899 -0.2983  0.0476  0.2060
 7735W        W50788  27.112  23.163   7.001 -0.5278 -0.0105 -0.2206
 7736W        W50789  19.230  17.301   3.947 -0.2010 -0.1124  0.0848
 7737W        W50790  29.665  28.530  22.483  0.2163  0.1729  0.0803
 7738W        W50791  21.724  13.747  26.505 -0.1914  0.1821 -0.3297
 7739W        W50792  34.465   7.108  20.104  0.0342  0.0952  0.1328
 7740W        W50793  27.636  21.409  19.288  0.0435 -0.1340  0.1801
 7741W        W50794  29.854  18.175   1.269  0.0438 -0.3961 -0.2427
 7742W        W50795   0.521  18.341  27.061  0.2191  0.0457 -0.0088
 7743W        W50796  20.183   1.219  21.772 -0.1244  0.0708  0.0402
 7744W        W50797  30.069   2.955   2.270 -0.1174  0.1656  0.0048
 7745W        W50798  33.659  15.700  20.561 -0.2638 -0.2484 -0.0348
 7746W        W50799  30.885  20.985  24.843 -0.0134 -0.2021  0.1444
 7747W        W50800   0.361  21.939  21.109 -0.3770 -0.0066  0.2448
 7748W        W50801  16.926  29.300   1.821  0.0651 -0.1496  0.1504
 7749W        W50802  33.578  22.496  13.413 -0.1287 -0.0218  0.1689
 7750W        W50803  33.121  27.904  28.844 -0.1250  0.0096 -0.0983
 7751W        W50804   9.490  27.603  28.351  0.2352 -0.0273  0.2747
 7752W        W50805  27.758  12.329   3.096  0.0102  0.3433 -0.0935
 7753W        W50806  25.841  29.810   7.058 -0.0204  0.1784  0.0444
 7754W        W50807  16.796   9.252   7.538  0.3778 -0.0469 -0.0602
 7755W        W50808  11.008  16.399  15.530  0.0220  0.0110 -0.2542
 7756W        W50809  11.291  18.897  19.602 -0.1015 -0.2572 -0.1643
 7757W        W50810  18.654  11.224   9.579 -0.1231 -0.0965 -0.0079
 7758W        W50811   9.507   2.830  28.281 -0.2659 -0.1123 -0.0473
 7759W        W50812  31.776  22.838  21.420  0.1247 -0.0459  0.1915
 7760W        W50813   4.084  17.665  25.627  0.0443 -0.0383  0.0047
 7761W        W50814  28.855   5.438  10.719 -0.2162  0.1244 -0.1988
 7762W        W50815  22.265  16.452  15.768  0.0595  0.1433  0.0139
 7763W        W50816  29.529  14.513  22.883 -0.0405  0.0731  0.0382
 7764W        W50817  15.047  31.775  22.644 -0.2763 -0.1569  0.0809
 7765W        W50818  25.495  19.361  15.169 -0.0625  0.0911  0.2832
 7766W        W50819  20.787  20.670  17.530 -0.3438 -0.0699 -0.1722
 7767W        W50820  29.958  25.013   0.559 -0.3938  0.3904  0.0417
 7768W        W50821   2.247  27.542  19.369 -0.0560 -0.1561  0.2432
 7769W        W50822  32.088  21.370  25.224  0.4528  0.1363  0.0148
 7770W        W50823   7.671  20.318  27.918  0.0082 -0.1384  0.0055
 7771W        W50824  14.931  27.879  25.323 -0.0433  0.1329 -0.2360
 7772W        W50825   2.279  12.662  18.459  0.0861 -0.0116 -0.2057
 7773W        W50826  28.087  16.970  20.376 -0.1345  0.1952  0.2464
 7774W        W50827  25.852  11.782  26.057 -0.0596  0.0519 -0.0154
 7775W        W50828  23.696  24.754  20.584  0.2307  0.0685  0.0928
 7776W        W50829  31.957   3.283  27.706  0.0965 -0.0618  0.1930
 7777W        W50830  20.216   6.363  23.329  0.2000  0.0519 -0.1789
 7778W        W50831  18.267  10.680  21.520 -0.2577  0.1329 -0.0307
 7779W        W50832  11.352  14.850   0.104 -0.1239  0.1987 -0.2451
 7780W        W50833  14.294  15.584  14.915  0.0232 -0.1183  0.0672
 7781W        W50834  22.864  12.834   1.991 -0.0375  0.0223  0.1903
 7782W        W50835  24.933  32.445  23.814 -0.1142 -0.0958 -0.4417
 7783W        W50836  31.090  16.319  22.838  0.0170  0.0901  0.0651
 7784W        W50837  27.186   8.943  18.071  0.0049  0.1227  0.0891
 7785W        W50838  30.359  24.687  18.732 -0.5012  0.1534  0.1496
 7786W        W50839   7.720  28.897   4.362  0.1933  0.3018 -0.0260
 7787W        W50840  24.662  31.444  17.222  0.1402  0.2365  0.1314
 7788W        W50841  23.679  24.291  27.187 -0.1122  0.1123 -0.2334
 7789W        W50842  31.449  20.437  13.480  0.0430 -0.1118  0.3162
 7790W        W50843  14.545  26.061  28.147 -0.0880  0.1724 -0.3052
 7791W        W50844  24.035  12.778  26.501  0.0716 -0.3169  0.1921
 7792W        W50845   9.668  22.341   6.336  0.0720 -0.1610  0.0857
 7793W        W50846  23.823  28.241  21.137  0.1617 -0.0129  0.2511
 7794W        W50847  26.222  29.706  25.346 -0.1443 -0.2500  0.1089
 7795W        W50848  33.046  12.025  22.000  0.0978  0.1601 -0.2284
 7796W        W50849  25.460   3.446  28.501  0.1165  0.0406  0.0460
 7797W        W50850  26.531  11.422   6.988  0.1197  0.2832 -0.4533
 7798W        W50851  27.751  21.183  15.102  0.0515  0.3047 -0.0368
 7799W        W50852  21.066   1.844   0.497  0.0423  0.1348 -0.0574
 7800W        W50853  13.278  12.965  22.795 -0.0210 -0.1440  0.4181
 7801W        W50854  31.445  21.011   1.580  0.2013  0.0588  0.1903
 7802W        W50855  15.225  20.931  20.363  0.2842  0.0395 -0.0016
 7803W        W50856  30.451   3.251   7.948  0.1661 -0.0389 -0.1882
 7804W        W50857  30.144  12.872   3.109 -0.2309  0.2882 -0.2872
 7805W        W50858   4.445  12.588  24.425  0.1538  0.2371  0.2736
 7806W        W50859  17.990   9.912   4.436 -0.1317  0.3619 -0.0650
 7807W        W50860   4.275  17.186  16.083  0.0688  0.1081 -0.0680
 7808W        W50861  30.471  30.517   4.779  0.1264 -0.0594  0.1513
 7809W        W50862  34.209  23.300  22.491  0.2052  0.2512 -0.1889
 7810W        W50863  21.310  18.445  16.169  0.0563 -0.1161 -0.0324
 7811W        W50864   3.984  33.724  15.339  0.2863  0.1159 -0.0442
 7812W        W50865  24.470  28.881  27.221 -0.2984  0.1496  0.1971
 7813W        W50866  29.244  19.549  24.353 -0.4387  0.2764  0.0969
 7814W        W50867  15.395  31.796  21.130 -0.1077  0.2641 -0.1127
 7815W        W50868  34.000   2.813  27.532 -0.0662  0.2129  0.0860
 7816W        W50869  15.538  26.031  10.186 -0.0288  0.1113  0.2114
 7817W        W50870  33.635  25.591  16.758  0.3908 -0.0594  0.2153
 7818W        W50871  20.927  21.984  24.401 -0.0046  0.0742  0.0704
 7819W        W50872  31.005   1.510  14.300  0.1352 -0.0315 -0.2056
 7820W        W50873  25.408  23.043  27.692 -0.3030  0.3275 -0.1344
 7821W        W50874  25.140  15.915  25.266  0.1471  0.0318 -0.3557
 7822W        W50875  23.607  31.039   3.920 -0.2728  0.1173  0.0468
 7823W        W50876  21.712  26.043   5.313  0.0689  0.1725  0.0291
 7824W        W50877  24.686  12.363  10.194  0.4448 -0.1414  0.1164
 7825W        W50878  19.448   9.203  23.567 -0.0384 -0.3442 -0.0906
 7826W        W50879  19.511  18.052   9.173  0.0330 -0.1815 -0.0440
 7827W        W50880  18.311  20.277   3.861 -0.2182  0.0048  0.4016
 7828W        W50881  20.518   8.320  22.306  0.1427 -0.2636  0.0928
 7829W        W50882  25.321  27.950  22.036  0.2726  0.0223  0.1572
 7830W        W50883   3.117   4.741  28.306  0.0644  0.0699 -0.0147
 7831W        W50884  22.393  17.225  24.001 -0.1736  0.0427 -0.4009
 7832W        W50885   1.751  11.966  28.531 -0.0523 -0.2455 -0.0456
 7833W        W50886  31.196  32.513   0.203  0.3259 -0.1656 -0.2534
 7834W        W50887   6.181  23.783  15.434  0.0712 -0.1389  0.0540
 7835W        W50888  28.319  23.822  20.870 -0.1117 -0.0413  0.2730
 7836W        W50889  23.212   0.619  21.378 -0.1248 -0.1258 -0.0900
 7837W        W50890  31.645  15.326  22.247 -0.2387 -0.0145  0.2613
 7838W        W50891  19.877  30.506  19.913 -0.1165  0.1125  0.1010
 7839W        W50892  29.067  30.414  17.597 -0.1875  0.1104  0.2108
 7840W        W50893  22.360  22.128  27.525 -0.0227  0.2081 -0.2462
 7841W        W50894  22.882   6.709  24.363 -0.1432 -0.0813 -0.3198
 7842W        W50895  20.500  25.831  15.842 -0.0807 -0.1972  0.3172
 7843W        W50896  27.401   4.545  14.550 -0.3232  0.0137  0.2123
 7844W        W50897   9.482  29.422   4.579 -0.2511 -0.2135 -0.2426
 7845W        W50898  31.938  26.809  23.004  0.1127 -0.1004  0.0800
 7846W        W50899  11.774  27.899  27.143 -0.0906 -0.0773 -0.0874
 7847W        W50900  26.559  15.650   1.775 -0.0536  0.3031  0.2707
 7848W        W50901  24.851  21.358   6.645  0.1137 -0.1434 -0.1567
 7849W        W50902   1.605  33.591   6.893 -0.2677 -0.1190 -0.1616
 7850W        W50903  24.564  22.710  22.108  0.0129 -0.1678 -0.1766
 7851W        W50904  34.232  34.284  17.208  0.0485  0.1090  0.1276
 7852W        W50905  33.272  27.177  16.743 -0.0544 -0.2640 -0.0414
 7853W        W50906   6.886   5.761  28.392  0.2001 -0.0073 -0.0211
 7854W        W50907  31.555   5.582  15.635 -0.0166 -0.0557 -0.0864
 7855W        W50908  26.960   8.388  15.534  0.3302  0.0065 -0.1315
 7856W        W50909  10.829  23.511   8.914  0.1341 -0.1106  0.0736
 7857W        W50910  22.163   7.955   1.227  0.3371 -0.3222 -0.1994
 7858W        W50911  25.215  21.462  27.159 -0.1869 -0.0418 -0.2740
 7859W        W50912  10.455  16.355   0.704  0.0584  0.0148 -0.1353
 7860W        W50913  20.905  25.683   1.281  0.0925  0.0382 -0.3391
 7861W        W50914  28.475  16.203  21.048 -0.0828 -0.1339 -0.2133
 7862W        W50915  11.569  19.843  14.730  0.0891  0.0054 -0.3142
 7863W        W50916  24.821   6.185  23.737  0.0583  0.0309  0.2362
 7864W        W50917  17.153  22.860  18.984 -0.0370  0.0625 -0.1494
 7865W        W50918  16.841  10.351  23.157  0.2376 -0.1176 -0.0199
 7866W        W50919  24.134   5.610   5.020 -0.0546 -0.0660  0.0275
 7867W        W50920  31.405  27.583  13.953  0.2276 -0.0982 -0.0482
 7868W        W50921   4.656   0.219  14.985 -0.0063  0.1514  0.1663
 7869W        W50922  24.592   2.568  15.254 -0.2257 -0.2543 -0.1533
 7870W        W50923  20.007  16.869   3.175 -0.0703 -0.1319  0.2552
 7871W        W50924  26.301  27.820  22.964 -0.2460  0.1601  0.2356
 7872W        W50925  20.964   4.540   6.111  0.2237 -0.1147 -0.2517
 7873W        W50926  10.806  10.714  20.561 -0.1306 -0.0879  0.2156
 7874W        W50927  18.011  10.386  14.578  0.0090  0.1208 -0.2504
 7875W        W50928   0.047  11.097  20.261  0.3323  0.1066  0.1542
 7876W        W50929  21.865  16.951  20.334 -0.0192  0.0645  0.0151
 7877W        W50930  28.734  18.807   8.094 -0.0639 -0.2731  0.2695
 7878W        W50931  21.390  14.338   8.214 -0.0559  0.1523 -0.1880
 7879W        W50932  34.338  32.788  21.818  0.0940  0.0778  0.0295
 7880W        W50933  18.152  22.578  17.021 -0.1433 -0.0972  0.1290
 7881W        W50934  14.048  18.545  17.205  0.1681  0.1393 -0.1221
 7882W        W50935  20.953  12.225  16.734 -0.0348  0.1437  0.2711
 7883W        W50936  27.556  29.405  29.073  0.1843 -0.1770  0.0108
 7884W        W50937  28.960  20.734  27.632 -0.1776 -0.0316  0.3090
 7885W        W50938  11.015  10.936  14.991  0.2174 -0.0145  0.2375
 7886W        W50939  24.319  20.315  23.926  0.0223 -0.0321 -0.0417
 7887W        W50940  18.026  25.831  19.503 -0.2802  0.1181  0.3142
 7888W        W50941  25.955  13.880  16.460 -0.1264 -0.1743  0.1222
 7889W        W50942  28.453   5.628  22.884  0.0439  0.0832 -0.4043
 7890W        W50943  29.972  15.577   3.289 -0.2027  0.4620  0.1630
 7891W        W50944  14.782  19.246  28.820 -0.2939 -0.3303  0.3436
 7892W        W50945  16.838   9.780  15.069  0.3031 -0.0529  0.0324
 7893W        W50946  11.884  28.281   2.100 -0.1932 -0.3304  0.0204
 7894W        W50947  19.515   6.343   9.473 -0.1875  0.1828 -0.1227
 7895W        W50948  16.987  12.737  23.553  0.2071 -0.0392 -0.3778
 7896W        W50949  30.248  16.553   1.109  0.1916  0.0623 -0.3328
 7897W        W50950  23.400  20.167  29.198  0.2957 -0.0095  0.0887
 7898W        W50951  26.832  14.810  20.126 -0.2400 -0.1377  0.1324
 7899W        W50952  22.445  23.964   1.595  0.1462 -0.1391 -0.0208
 7900W        W50953  13.436  17.239  26.919  0.3062 -0.1062  0.5592
 7901W        W50954  17.102   5.545   9.730 -0.1886 -0.0460 -0.0841
 7902W        W50955  19.857  24.872  17.398  0.0222 -0.2042 -0.0346
 7903W        W50956  24.564  24.223   8.233 -0.3122  0.0802 -0.2914
 7904W        W50957  18.093  24.288  17.431  0.0188 -0.2904 -0.2203
 7905W        W50958  30.536  28.729  15.443 -0.0119  0.2714 -0.0589
 7906W        W50959  20.584   4.403   2.646 -0.1211  0.3758  0.1123
 7907W        W50960   7.558   5.498  21.640 -0.0672 -0.3504 -0.0055
 7908W        W50961  25.627  19.619  17.432 -0.1436  0.1768  0.0969
 7909W        W50962  30.717  33.308   0.743  0.1615  0.0521 -0.0238
 7910W        W50963  33.426  30.559   6.952  0.3310  0.1535 -0.0127
 7911W        W50964  20.703  19.521  19.690  0.0577 -0.1565  0.0326
 7912W        W50965   3.067  11.621  27.554 -0.1265 -0.1005 -0.0876
 7913W        W50966  14.163   8.384   4.273 -0.1230  0.0233  0.0461
 7914W        W50967  27.744  17.842   9.139 -0.0019  0.1680 -0.2671
 7915W        W50968  28.162  11.198   0.246 -0.1898 -0.0038  0.1336
 7916W        W50969   7.525  16.272   6.684  0.1554 -0.2108  0.0744
 7917W        W50970  10.626  14.065   7.947  0.1649 -0.1704  0.1378
 7918W        W50971  27.975  24.999   9.865 -0.2856  0.0119  0.0229
 7919W        W50972  31.639  27.834  13.045  0.2531  0.1445  0.1545
 7920W        W50973  20.810  13.824  13.279  0.2119  0.0051 -0.1051
 7921W        W50974  25.960  20.421   3.106  0.0673 -0.0616  0.0843
 7922W        W50975  30.317  25.191   2.759  0.3245 -0.0266 -0.1619
 7923W        W50976  23.592  26.379  25.152  0.2530  0.0676  0.0339
 7924W        W50977  24.791  29.779   7.932  0.0904  0.0673 -0.3501
 7925W        W50978  22.241  16.415   8.620  0.1773  0.3581  0.0199
 7926W        W50979  29.531  17.188   6.804 -0.0933  0.0424 -0.0774
 7927W        W50980   9.946   5.333   2.170  0.0579  0.0632 -0.1550
 7928W        W50981  31.748   6.134   9.823  0.0804 -0.1640 -0.1676
 7929W        W50982  32.473  11.170   2.865 -0.0914 -0.2465 -0.1405
 7930W        W50983  15.468  16.286   6.721 -0.2040 -0.1867  0.3708
 7931W        W50984  26.603   9.201  22.198 -0.0369 -0.3051  0.1843
 7932W        W50985  26.682  10.793  23.596 -0.4186 -0.1211 -0.1019
 7933W        W50986  32.398  18.890  15.718 -0.2892  0.3381  0.0564
 7934W        W50987  28.459  20.128  20.793 -0.3017  0.3261 -0.3011
 7935W        W50988   4.454  17.358  28.974 -0.2268  0.0878  0.2276
 7936W        W50989  20.519   9.495  18.576 -0.1787 -0.2133  0.2043
 7937W        W50990  17.745  22.409  26.458  0.3414 -0.2857  0.0031
 7938W        W50991   2.701  19.875   7.702 -0.0808  0.2519  0.0949
 7939W        W50992  19.417  12.797  20.744 -0.0641 -0.1050  0.3168
 7940W        W50993  30.107  15.532   5.538  0.1089 -0.1866  0.0954
 7941W        W50994   4.477  25.840  24.702 -0.1094  0.0975  0.0799
 7942W        W50995  14.561  17.755   5.777 -0.1791 -0.0123 -0.2169
 7943W        W50996  12.314  10.980   1.776 -0.1895  0.2925 -0.2079
 7944W        W50997   5.979  29.267   2.544 -0.2347 -0.0598 -0.0261
 7945W        W50998   4.785  14.358   2.394  0.1576  0.2306 -0.2045
 7946W        W50999   0.551  34.260  16.644  0.0576 -0.1019 -0.0836
 7947W        W51000  34.219  19.547   3.808  0.0941 -0.0080  0.2511
 7948W        W51001  28.471   0.726  19.923 -0.1228  0.1728 -0.0869
 7949W        W51002  28.593  25.073  21.605 -0.1232 -0.0065 -0.0729
 7950W        W51003  13.515   0.321   4.469  0.0855  0.1062 -0.1975
 7951W        W51004   8.215  30.406   0.740  0.4367  0.1194  0.0616
 7952W        W51005   2.339  18.321   4.849  0.1055  0.3711  0.0893
 7953W        W51006  26.793  15.983   0.361  0.0568 -0.1553  0.0336
 7954W        W51007  32.411  21.823   5.812 -0.0267  0.3264  0.2152
 7955W        W51008  14.839   9.846  23.082 -0.1677 -0.1011 -0.0809
 7956W        W51009  28.185  22.971  28.572  0.1265 -0.2302 -0.0347
 7957W        W51010  30.185   2.723  28.360  0.0585  0.1336 -0.1604
 7958W        W51011   5.145  24.046   4.606 -0.1552  0.0364  0.1667
 7959W        W51012  32.652  14.547   4.285 -0.0420 -0.2504 -0.0476
 7960W        W51013  26.786  18.282  25.657 -0.1105 -0.0573 -0.3686
 7961W        W51014  31.437   8.719   5.881 -0.0331 -0.2448 -0.0428
 7962W        W51015  29.283  13.830  20.665  0.0233 -0.1786  0.2953
 7963W        W51016  29.185  23.115   3.355 -0.0398  0.0978 -0.3190
 7964W        W51017  16.418  11.324   5.802 -0.0866  0.0080 -0.3257
 7965W        W51018  23.974  31.186  25.392  0.1666  0.1792  0.1902
 7966W        W51019  22.229  28.500   1.357 -0.2046 -0.1670 -0.1058
 7967W        W51020  30.905   0.425  16.569  0.1333 -0.0556  0.0438
 7968W        W51021   1.200   8.630   4.327  0.0086  0.0710 -0.0004
 7969W        W51022   4.557   8.672  22.177  0.3523 -0.0319 -0.2249
 7970W        W51023  27.503  25.561   7.508  0.1712 -0.0025 -0.3824
 7971W        W51024  20.190  21.993  26.616 -0.0570  0.0210 -0.1404
 7972W        W51025   9.192  30.519   4.425 -0.4199  0.2495  0.1690
 7973W        W51026   8.128  15.308  28.778 -0.1916  0.2609  0.3067
 7974W        W51027  15.537  29.661   7.567 -0.2490  0.2236 -0.2721
 7975W        W51028  32.569  10.852  18.666  0.0400 -0.1826  0.2724
 7976W        W51029  29.648  27.804   2.970 -0.2144  0.0901 -0.0938
 7977W        W51030  34.261  23.819   6.738 -0.1975  0.1211 -0.3151
 7978W        W51031  23.131  27.136  23.000  0.0166 -0.5030  0.1383
 7979W        W51032   6.912   4.847  22.135  0.2311 -0.0440  0.0114
 7980W        W51033  21.730  19.405  20.381 -0.3100  0.3014 -0.0634
 7981W        W51034   2.705  22.713  22.182  0.2550 -0.0896 -0.2233
 7982W        W51035  21.617  10.465   0.834 -0.1032  0.0346 -0.0846
 7983W        W51036  21.451  23.353   6.821 -0.0979 -0.4030  0.0913
 7984W        W51037  17.018  15.824   4.546 -0.0168  0.0107 -0.1186
 7985W        W51038  32.789   0.114   4.315  0.1358 -0.5412 -0.0024
 7986W        W51039  25.002  13.752   4.867 -0.1462 -0.0243 -0.0501
 7987W        W51040  29.459  23.548  19.545  0.1118  0.0328 -0.0518
 7988W        W51041  31.040  14.658   8.518 -0.1705 -0.1014 -0.1345
 7989W        W51042  29.303  28.873  10.260 -0.2904  0.0608 -0.1328
 7990W        W51043  18.761  32.539  26.674 -0.2744 -0.0145  0.1834
 7991W        W51044  13.320   7.630  23.183  0.2323  0.3179  0.0134
 7992W        W51045  29.592   9.653  23.079  0.1252 -0.0724  0.1069
 7993W        W51046   9.549  17.095  23.013  0.2056  0.1584 -0.1489
 7994W        W51047  16.957   7.422   2.069  0.1780 -0.1902 -0.1411
 7995W        W51048  20.353  17.907  26.927  0.1826 -0.1788 -0.1888
 7996W        W51049  34.101  33.108   1.603  0.0172  0.0873 -0.1632
 7997W        W51050  19.458   7.389   7.709 -0.0930  0.0507 -0.2240
 7998W        W51051  23.425  30.591   1.357 -0.1352 -0.0436  0.0632
 7999W        W51052  29.969   2.553  19.456  0.2930 -0.2595  0.2032
 8000W        W51053  25.399   3.097  26.179  0.1870 -0.1542 -0.0484
 8001W        W51054  20.480  20.834  13.650 -0.2760 -0.3781 -0.0255
 8002W        W51055  24.547  17.814  20.766 -0.1313  0.1440  0.0585
 8003W        W51056  22.600  10.507  27.621  0.4348 -0.0489  0.6141
 8004W        W51057  12.516  13.415   7.306 -0.1046  0.2543 -0.4709
 8005W        W51058  19.607  20.039   1.110  0.1684  0.1346 -0.1482
 8006W        W51059  15.713  28.097   1.901  0.0887  0.3670 -0.1368
 8007W        W51060   2.342  18.257   7.503 -0.0620  0.0213 -0.5503
 8008W        W51061  28.970   6.465   0.424 -0.0843 -0.1488  0.0146
 8009W        W51062  25.060   6.933  25.983  0.2952  0.0943  0.2164
 8010W        W51063  11.729  11.825   0.823  0.2741  0.1148 -0.0985
 8011W        W51064  23.747  32.293  24.620 -0.0003  0.1326 -0.0220
 8012W        W51065  27.078  25.609  10.550 -0.0680 -0.3470 -0.0942
 8013W        W51066  21.220  18.262  28.270  0.1163 -0.0616  0.1987
 8014W        W51067  29.005  21.264  18.264 -0.2819  0.0138 -0.1198
 8015W        W51068  16.408  10.193  15.389 -0.4207  0.0802  0.0948
 8016W        W51069  28.971  24.868   5.406 -0.2573  0.0917 -0.0142
 8017W        W51070  22.689   0.887  24.903 -0.2789  0.1174  0.2795
 8018W        W51071  28.982  33.456  27.819  0.1033 -0.1612  0.0550
 8019W        W51072  11.241  24.858  21.591 -0.1523  0.3460 -0.1346
 8020W        W51073  18.664  11.165  16.438  0.2260  0.3299 -0.1383
 8021W        W51074  27.430  14.719  18.394 -0.0840 -0.0605 -0.1431
 8022W        W51075  31.533   3.960   2.583 -0.2153  0.1343 -0.0232
 8023W        W51076  21.888  21.161   0.479 -0.2326 -0.2022  0.2693
 8024W        W51077  20.969  30.165   9.652 -0.0600 -0.3975  0.1444
 8025W        W51078   1.595  18.502   6.993  0.3546 -0.0464 -0.1377
 8026W        W51079  24.231   9.029  23.796  0.2223  0.0893  0.0374
 8027W        W51080  25.718  21.615   3.515  0.2686 -0.0138 -0.0433
 8028W        W51081  32.120  16.111  28.443 -0.0631  0.0473  0.1498
 8029W        W51082  14.419   4.096   9.361  0.2190 -0.0347 -0.3122
 8030W        W51083  17.257  14.459  13.261  0.0671  0.1303  0.2224
 8031W        W51084  18.546  23.964  24.646 -0.0124  0.4072 -0.0037
 8032W        W51085  28.875  18.645   4.922  0.2445  0.0577 -0.0591
 8033W        W51086  24.338  11.142   9.909  0.1775  0.2040  0.1744
 8034W        W51087  24.013  15.344   3.176  0.0653 -0.2383 -0.2330
 8035W        W51088  25.913  19.906   0.986 -0.0302  0.1141  0.0479
 8036W        W51089  15.311  34.161   9.448 -0.0663  0.1645 -0.1513
 8037W        W51090  32.390  20.822  17.415  0.0457  0.0732  0.2159
 8038W        W51091  18.403  19.088   8.392 -0.1691  0.1116  0.0463
 8039W        W51092  24.566  20.403  17.851 -0.0597 -0.0569  0.0352
 8040W        W51093  29.088  24.502  16.981  0.0596  0.4084  0.2824
 8041W        W51094  16.673  13.817   8.584 -0.2123 -0.2226 -0.1777
 8042W        W51095  22.678  17.669  23.761  0.0449 -0.4289  0.0115
 8043W        W51096  16.938  18.050   4.811  0.0463 -0.1547  0.0313
 8044W        W51097  26.319  25.655  18.993  0.2802 -0.0014  0.1304
 8045W        W51098  16.494  12.668  14.586  0.1242  0.4132 -0.1974
 8046W        W51099  33.548  17.247   8.441  0.1316  0.0579 -0.1751
 8047W        W51100  15.689  28.389  22.018 -0.0327  0.0307 -0.3320
 8048W        W51101  25.902  15.992  24.825  0.0867  0.2146  0.3038
 8049W        W51102  25.988   8.359   2.933 -0.5304  0.0619  0.4324
 8050W        W51103  21.140  18.853   1.348  0.2037  0.2661  0.0462
 8051W        W51104  29.787  25.291   6.824  0.0081  0.1069  0.2418
 8052W        W51105  25.373  14.018   3.251  0.1622 -0.2063  0.0004
 8053W        W51106  32.799  30.847  13.514  0.1897 -0.0998  0.2398
 8054W        W51107  18.008  12.652  24.887 -0.2061  0.3497  0.1160
 8055W        W51108  17.747  28.189  25.702 -0.1886 -0.2832 -0.1745
 8056W        W51109   5.836  23.655  22.551 -0.3782 -0.0736 -0.0403
 8057W        W51110  23.950  17.158   5.717  0.0819 -0.0463  0.1006
 8058W        W51111  25.996  18.104  25.211  0.0981  0.1277 -0.0218
 8059W        W51112  20.586  15.232   0.218 -0.0866  0.0163 -0.0672
 8060W        W51113  23.793   9.641  22.358  0.2471  0.0561 -0.1529
 8061W        W51114  12.879   5.112   3.483 -0.3953  0.0675 -0.3073
 8062W        W51115   6.857   8.746  23.319  0.0895 -0.2485 -0.1394
 8063W        W51116  23.798  21.355   4.014  0.2141  0.0424 -0.1046
 8064W        W51117   0.816  24.201  26.777 -0.3227 -0.0440  0.2055
 8065W        W51118  25.122  23.040  24.207 -0.2128  0.2129  0.2981
 8066W        W51119  20.846  15.683   4.343  0.0298 -0.1005  0.0289
 8067W        W51120  28.295  11.185  20.329  0.0193 -0.0847  0.0972
 8068W        W51121  22.214  29.059  25.200 -0.0934  0.1512 -0.0581
 8069W        W51122  28.552  26.390   4.827 -0.2881  0.3830  0.0015
 8070W        W51123  12.372  17.993   6.522 -0.2693  0.0581 -0.1175
 8071W        W51124  14.165  13.859  10.030 -0.1745  0.2450 -0.3414
 8072W        W51125  18.038  21.812  22.049  0.0187 -0.1719 -0.1461
 8073W        W51126  28.903  30.992   3.771  0.0395 -0.3676 -0.0420
 8074W        W51127  28.381  27.642  16.861 -0.1873 -0.1847  0.2441
 8075W        W51128  30.721  29.813  21.356 -0.2324  0.1304 -0.2431
 8076W        W51129  13.028  19.591   9.166  0.0740 -0.0374  0.3416
 8077W        W51130  29.766  33.233  10.109  0.0264 -0.1379  0.0864
 8078W        W51131  31.455   6.025  21.931  0.0214  0.3611 -0.0960
 8079W        W51132  12.791  18.256  17.756 -0.0105 -0.2713 -0.0852
 8080W        W51133  17.919  19.034   3.287 -0.0630 -0.0851 -0.2269
 8081W        W51134  27.961  30.417  29.110 -0.0440 -0.0474 -0.3207
 8082W        W51135  31.449  13.996  15.014  0.0281  0.0817 -0.0814
 8083W        W51136   1.812   6.525  26.718 -0.0106 -0.3247 -0.1690
 8084W        W51137   4.616  22.815  18.938 -0.0150 -0.0963 -0.0057
 8085W        W51138  19.490  19.071  27.223 -0.0142 -0.0478  0.2221
 8086W        W51139  27.792  30.047  25.026 -0.5061  0.2289  0.0669
 8087W        W51140  24.241  13.671  22.503  0.1139  0.0858  0.3773
 8088W        W51141  18.541  23.327  29.103 -0.2198  0.1455 -0.1449
 8089W        W51142  31.942  20.405  25.718 -0.0882  0.2841  0.1892
 8090W        W51143   9.777  12.271  18.855 -0.4932  0.1054  0.0366
 8091W        W51144  27.311  10.995  25.099 -0.1980 -0.0251 -0.1085
 8092W        W51145   2.077  12.424  15.622  0.2151  0.1894  0.2133
 8093W        W51146  28.138   0.016  17.264 -0.1947 -0.0065  0.0396
 8094W        W51147  15.064  18.821   5.474  0.0883  0.0432 -0.0726
 8095W        W51148  20.730  12.217  27.452  0.0755 -0.1241  0.3462
 8096W        W51149  28.864  20.322  16.110  0.2977 -0.2060  0.0214
 8097W        W51150  30.198  18.064   2.142 -0.1657  0.0401  0.0710
 8098W        W51151  26.451  16.061  10.101 -0.1302 -0.0733  0.3713
 8099W        W51152  17.305  21.983  27.950  0.0288 -0.1667 -0.4870
 8100W        W51153  25.225  23.264  22.547  0.2341 -0.2003  0.0762
 8101W        W51154  26.153  16.288  24.390  0.0710 -0.1730  0.1712
 8102W        W51155  10.195  16.699   5.433 -0.0972  0.0843  0.0001
 8103W        W51156  26.061  17.603  26.166  0.2341  0.0904  0.1706
 8104W        W51157  25.041  28.505  20.393  0.1418  0.0411  0.1268
 8105W        W51158   0.547  15.103  28.087 -0.0897 -0.1120 -0.4497
 8106W        W51159  24.680  23.202   5.680 -0.3393 -0.1754  0.1991
 8107W        W51160  11.260  13.299  15.332  0.0162  0.1518  0.0778
 8108W        W51161  32.011  28.468  23.097  0.1086  0.1834 -0.1190
 8109W        W51162  22.949   0.876  20.727 -0.0271  0.1889 -0.0233
 8110W        W51163  20.330  21.717   0.925 -0.0395 -0.0271  0.0200
 8111W        W51164  15.959   2.451  23.563 -0.1933  0.0792 -0.3628
 8112W        W51165  14.938  15.584  22.616 -0.0098  0.1780 -0.2353
 8113W        W51166  27.749   6.543   2.988  0.1795 -0.1605  0.0062
 8114W        W51167  14.088  24.879   6.969  0.1663 -0.3663  0.2209
 8115W        W51168  34.675  31.831  16.508 -0.0900 -0.0779  0.2922
 8116W        W51169  14.284  25.363  20.668 -0.0358 -0.1146  0.1732
 8117W        W51170  14.293  20.770   7.127 -0.0816 -0.3950  0.1971
 8118W        W51171   2.297  18.395   2.395 -0.1587  0.0905 -0.3011
 8119W        W51172  21.315  24.119  27.324 -0.0105 -0.0543  0.3573
 8120W        W51173  31.219  22.771  17.563 -0.0985  0.1987 -0.2333
 8121W        W51174  24.319  13.598  17.786 -0.0238 -0.2095  0.3341
 8122W        W51175  17.512  23.016   6.771  0.0633  0.0865  0.0577
 8123W        W51176  34.540  30.313   5.744 -0.0819  0.0615  0.2414
 8124W        W51177  10.838  18.078  26.533 -0.0288  0.2305  0.6971
 8125W        W51178  17.987  12.759  27.041  0.0403  0.1723  0.0379
 8126W        W51179  31.562  30.968   9.314 -0.1442 -0.1838 -0.3208
 8127W        W51180  28.528  22.599  22.481 -0.0682  0.1354  0.0013
 8128W        W51181  10.594  22.202   2.535 -0.1264 -0.2063 -0.1212
 8129W        W51182  19.587   5.475   1.493 -0.2113 -0.1807  0.0553
 8130W        W51183  30.123  15.535  19.632 -0.0822 -0.2622 -0.3217
 8131W        W51184  22.944  20.672  14.115 -0.4199  0.2104 -0.0825
 8132W        W51185  21.994  24.927  21.525  0.0150 -0.1679  0.3185
 8133W        W51186  23.384  33.226  25.675  0.3893 -0.0239 -0.3482
 8134W        W51187  10.461  16.156  20.752 -0.3114  0.2166 -0.3444
 8135W        W51188  25.241  22.050   9.496 -0.1206  0.2076 -0.0780
 8136W        W51189   2.700  15.886  18.529 -0.1778 -0.0899 -0.0063
 8137W        W51190  27.867  14.923   1.728 -0.1141  0.0187 -0.2507
 8138W        W51191  30.108  14.283  21.595 -0.0456  0.0121 -0.1153
 8139W        W51192  13.842  10.410  19.976 -0.0399 -0.0093  0.2405
 8140W        W51193   1.052   9.511  20.958  0.1728 -0.1547  0.1221
 8141W        W51194  18.140  21.168   9.288 -0.1395 -0.2278  0.0086
 8142W        W51195  28.233   6.607  28.259  0.1188 -0.2717  0.1015
 8143W        W51196   7.881  34.637  27.617 -0.0660  0.0764 -0.0118
 8144W        W51197  26.718  10.900  17.471 -0.1699  0.0058 -0.0814
 8145W        W51198  15.843  18.167  28.024  0.0430  0.2202  0.0198
 8146W        W51199  14.922  34.024   6.656  0.0558  0.1438 -0.1274
 8147W        W51200  34.140   7.680   6.152  0.1844 -0.1706 -0.4610
 8148W        W51201   6.256  18.302  14.471 -0.0248  0.0063  0.1925
 8149W        W51202  10.832  26.654   7.157  0.2625 -0.0406  0.2169
 8150W        W51203  10.767  11.935   2.165  0.1056 -0.0799  0.0479
 8151W        W51204  27.292  26.707  14.666  0.1350 -0.0561 -0.2120
 8152W        W51205  16.220  14.551  28.593  0.0380 -0.3964  0.0616
 8153W        W51206  19.013  34.013  16.495  0.0018  0.1761 -0.0659
 8154W        W51207  29.414  24.310  27.475  0.0222 -0.1131  0.0693
 8155W        W51208  31.110  24.614   8.234  0.1871  0.3226 -0.1672
 8156W        W51209  22.468  17.070  25.476 -0.2538 -0.1216 -0.0662
 8157W        W51210  29.139  26.365  14.843 -0.1714 -0.1543  0.1050
 8158W        W51211  15.816  25.117  26.342 -0.2310  0.0191 -0.2980
 8159W        W51212  24.928  23.716  24.825 -0.0408  0.4679  0.4555
 8160W        W51213  11.295  13.155   6.778  0.1297  0.3579  0.2139
 8161W        W51214  23.086  19.345   0.405 -0.0658  0.0488  0.2934
 8162W        W51215  16.832   6.438   1.318  0.1657  0.0034  0.0562
 8163W        W51216  32.894  28.168   0.294  0.1056  0.0970  0.0140
 8164W        W51217   3.860  30.478  21.381 -0.0329  0.1596  0.2336
 8165W        W51218  23.010  13.958  28.674  0.3037 -0.4512  0.1344
 8166W        W51219  26.790   0.337  20.052  0.1583  0.1482  0.2151
 8167W        W51220  32.371  21.352  17.644 -0.3669  0.2416  0.4258
 8168W        W51221  21.635  23.016  16.467 -0.1050  0.3636  0.1505
 8169W        W51222  26.737  26.815   2.933  0.0370 -0.1623 -0.1245
 8170W        W51223  26.698  25.621   8.561 -0.2852  0.0639 -0.0418
 8171W        W51224  20.850  34.185   5.671 -0.1321  0.0010 -0.1154
 8172W        W51225  18.814  15.556   1.792 -0.0804  0.0062 -0.0494
 8173W        W51226  23.436  26.069   2.155  0.1536 -0.2533  0.1944
 8174W        W51227   2.414  32.921  22.048  0.1233  0.0239 -0.0766
 8175W        W51228  23.919  19.137   2.203 -0.1355 -0.1612  0.3253
 8176W        W51229  18.041  24.645   4.336  0.0187  0.2831  0.0247
 8177W        W51230  25.826  14.568  24.981 -0.4601  0.4440 -0.2897
 8178W        W51231  27.603  20.027   0.324  0.3939  0.0534  0.0388
 8179W        W51232   5.351  22.523   8.432 -0.2218  0.2232 -0.2165
 8180W        W51233  34.005  28.517  18.885  0.1353 -0.1500  0.2818
 8181W        W51234   7.060  29.316  25.281 -0.0400 -0.0232  0.1016
 8182W        W51235  18.346  24.563   7.488 -0.1448  0.2979  0.1447
 8183W        W51236  17.577  29.241  26.556 -0.2855 -0.1755  0.1999
 8184W        W51237  21.665   4.102  29.031  0.2658 -0.2402  0.0421
 8185W        W51238  21.978  15.274   1.364  0.2999 -0.1950 -0.0435
 8186W        W51239  25.754  30.101  21.529  0.3804  0.1854  0.3421
 8187W        W51240  32.375  28.401   3.635  0.1622 -0.1743  0.0871
 8188W        W51241  24.324  32.419  16.259 -0.0553  0.0276 -0.0138
 8189W        W51242  24.957  25.535  15.912 -0.0843  0.1216 -0.2213
 8190W        W51243  17.347  22.526   9.986 -0.0393 -0.0712  0.1894
 8191W        W51244  23.389  20.504  27.521  0.0946  0.0686  0.0786
 8192W        W51245  26.823  29.128  17.505 -0.1729 -0.1368  0.1785
 8193W        W51246   8.122  24.919  13.185 -0.0645  0.0050 -0.0073
 8194W        W51247  22.309  32.556  17.187 -0.0265  0.1444 -0.2301
 8195W        W51248  19.813  26.918  16.834  0.1743  0.2249 -0.0298
 8196W        W51249  12.914   1.368   2.985  0.3718  0.2038 -0.1360
 8197W        W51250  22.000  33.309   5.614  0.1879  0.0076  0.0974
 8198W        W51251  17.745  12.044  24.713 -0.0195 -0.1494  0.2584
 8199W        W51252  18.220  15.975   4.116  0.1299  0.0076 -0.2426
 8200W        W51253  14.754  16.866   4.766 -0.0431  0.0533  0.3120
 8201W        W51254  26.068  34.024  25.535 -0.0222 -0.2442 -0.0736
 8202W        W51255  22.697  26.777  28.558 -0.1017  0.2115  0.0482
 8203W        W51256  28.964  17.750   0.555 -0.1141 -0.2255  0.0372
 8204W        W51257  33.433  15.353  18.885 -0.1354  0.0036  0.3363
 8205W        W51258  33.711  15.371   1.788 -0.0226 -0.1055  0.1211
 8206W        W51259  31.924  33.569  17.285  0.1772 -0.0058  0.3537
 8207W        W51260  25.971  19.791  16.349  0.0261 -0.3559  0.0732
 8208W        W51261  29.118  20.524   9.426 -0.1003 -0.1966 -0.0051
 8209W        W51262   9.323  27.930  19.354 -0.0044  0.1891  0.1326
 8210W        W51263  16.988  24.463   8.005 -0.2054  0.0768  0.2495
 8211W        W51264   8.850  10.468  26.691 -0.0758  0.1713  0.0458
 8212W        W51265  18.570   6.932  27.577  0.1946 -0.2798 -0.0198
 8213W        W51266  31.824  26.979  22.228 -0.0053  0.0793  0.1013
 8214W        W51267  26.748  23.304   1.856 -0.1062 -0.0743 -0.1074
 8215W        W51268  25.522  17.465  20.332 -0.2311 -0.1401 -0.0407
 8216W        W51269   2.193  34.009  19.458 -0.1552 -0.2440 -0.0130
 8217W        W51270  26.177  28.909  25.685 -0.2358 -0.3060 -0.1319
 8218W        W51271   9.692  14.928  20.733  0.1280  0.1641  0.1351
 8219W        W51272  26.946  24.167  27.947 -0.1407 -0.0144  0.0435
 8220W        W51273  19.666  12.399   9.546  0.2535  0.3665 -0.3918
 8221W        W51274  22.028   6.743   3.936  0.1057  0.0707  0.0018
 8222W        W51275  28.123  23.944   0.947 -0.4674 -0.0012 -0.1163
 8223W        W51276  24.633  13.687  26.361 -0.1734  0.0209 -0.0556
 8224W        W51277  16.443  10.158  16.303 -0.0425 -0.0401  0.1179
 8225W        W51278  20.468  21.535   3.968  0.1019  0.0217 -0.0438
 8226W        W51279  33.412   9.318  19.841  0.2741 -0.2118 -0.0631
 8227W        W51280   2.241  21.839  24.783  0.0479 -0.2192  0.0281
 8228W        W51281   8.369   8.870   9.888  0.1203  0.1162 -0.0340
 8229W        W51282   5.654  16.368  23.822  0.1293 -0.0897 -0.1254
 8230W        W51283   6.370  17.835  20.320 -0.2082 -0.0843  0.1167
 8231W        W51284  18.165  32.914   1.225  0.2935 -0.1584 -0.0843
 8232W        W51285  28.639  10.678   4.945  0.0942 -0.0190 -0.2246
 8233W        W51286  29.690  26.002  16.338 -0.2281 -0.1353  0.0752
 8234W        W51287  15.584  22.219  21.740  0.2636  0.2289 -0.3009
 8235W        W51288  16.897  33.092  28.600 -0.0072  0.4774 -0.1313
 8236W        W51289  18.731  27.821   6.403  0.1631 -0.1617 -0.1353
 8237W        W51290   3.028  25.381  22.341 -0.0547  0.0461 -0.0321
 8238W        W51291  12.209  19.723  16.997  0.0599  0.2543  0.0648
 8239W        W51292   7.089  25.500  26.701 -0.0978  0.1660  0.1463
 8240W        W51293   0.042  10.251   8.853 -0.0849  0.1793 -0.1957
 8241W        W51294  23.881  27.310  17.258  0.1047  0.2944 -0.1494
 8242W        W51295  17.400  24.663   6.519 -0.0716  0.4140 -0.1765
 8243W        W51296   0.186  28.319  15.816  0.0374  0.2039  0.0739
 8244W        W51297   2.152   0.650  13.123 -0.0163  0.2623  0.0804
 8245W        W51298  15.742   0.370   4.326  0.0766  0.0788 -0.2422
 8246W        W51299  26.476  31.590  24.628 -0.0171  0.0355  0.1236
 8247W        W51300  30.815  11.248   6.500  0.1158 -0.1752  0.1186
 8248W        W51301  17.819  29.088   0.716 -0.0122  0.1110  0.1122
 8249W        W51302  11.478   7.864  20.116  0.0194  0.1569 -0.0915
 8250W        W51303  23.396  34.190  25.396 -0.0560 -0.0528 -0.0258
 8251W        W51304  26.937  20.402  26.189 -0.2149  0.0601 -0.3039
 8252W        W51305  29.057  32.223  10.340 -0.0981 -0.0437 -0.1424
 8253W        W51306  21.185  14.163  26.134  0.3043  0.0965  0.0979
 8254W        W51307  23.580  10.109  22.663  0.0558  0.0045 -0.2409
 8255W        W51308  31.129  32.587   6.805  0.1296  0.0947 -0.1488
 8256W        W51309  28.131  23.495  20.003  0.0660  0.2951 -0.0158
 8257W        W51310  33.034  16.536   4.414 -0.1125 -0.0777 -0.0308
 8258W        W51311  28.325  11.519   5.800 -0.0512  0.1413  0.2398
 8259W        W51312  28.952   1.228  14.219  0.1279 -0.3729  0.0756
 8260W        W51313  25.981  22.001   5.247 -0.3313 -0.1387  0.0918
 8261W        W51314   8.952  19.130   1.444 -0.0084 -0.0512  0.4150
 8262W        W51315   8.904  14.244   7.421  0.3599 -0.0089  0.0247
 8263W        W51316  29.919  15.082  15.535 -0.1209 -0.0798 -0.2623
 8264W        W51317  28.561  14.679  16.285 -0.0089  0.0271 -0.1884
 8265W        W51318  14.283  19.897  27.542  0.3517 -0.3817 -0.2072
 8266W        W51319  22.243  16.632  21.266 -0.2481 -0.0123 -0.0890
 8267W        W51320  19.205  21.652  24.926  0.2270  0.2456 -0.3615
 8268W        W51321   0.354  16.912  20.296  0.2087 -0.3118  0.1095
 8269W        W51322  28.806  29.166   2.873 -0.0431 -0.0494 -0.0956
 8270W        W51323  21.445  22.498   1.726  0.2867 -0.4472 -0.1253
 8271W        W51324  24.904  33.024  21.767 -0.2332 -0.2433 -0.0389
 8272W        W51325   9.421  26.060  16.419 -0.3046  0.4617  0.0565
 8273W        W51326  16.509   9.181  27.323  0.1666  0.2941  0.0583
 8274W        W51327  33.609  13.987   1.984 -0.0399  0.2203  0.1602
 8275W        W51328   7.070   9.978   4.438  0.2372 -0.1788  0.1222
 8276W        W51329  24.381  24.197  18.719 -0.0522  0.1381 -0.1230
 8277W        W51330  18.851  18.665   9.098  0.2123 -0.3386  0.0958
 8278W        W51331  27.810   6.952   4.626  0.0002  0.1255 -0.0272
 8279W        W51332  25.777  19.938   6.890 -0.1740 -0.0148 -0.1524
 8280W        W51333  25.525   1.008   4.678  0.1144 -0.2462  0.0106
 8281W        W51334  31.443   0.544  18.742  0.0414 -0.2662 -0.1714
 8282W        W51335   0.977  10.512   2.400 -0.0637  0.0571  0.3598
 8283W        W51336  30.238  17.632   6.180  0.0125 -0.1297 -0.1501
 8284W        W51337  24.566  13.047   9.589 -0.0800 -0.0984 -0.0005
 8285W        W51338  18.714  15.977  26.576 -0.1371  0.0850  0.2314
 8286W        W51339  18.007  19.863   1.625 -0.3500 -0.0559  0.1635
 8287W        W51340  24.853  22.188  14.691 -0.1619 -0.1229  0.2400
 8288W        W51341  13.324  23.714  10.354 -0.0614  0.1950 -0.0255
 8289W        W51342  23.428  12.778  16.482 -0.0439 -0.3783 -0.2200
 8290W        W51343  22.396  12.365   6.709 -0.0677  0.0431  0.0027
 8291W        W51344  12.239  28.336  24.932  0.0755 -0.1817 -0.0104
 8292W        W51345  24.868  31.314   7.180 -0.3882 -0.0723  0.0781
 8293W        W51346  26.148  15.480  20.302 -0.2381 -0.0751  0.0240
 8294W        W51347  31.926  20.408  23.786 -0.1619 -0.2065 -0.1394
 8295W        W51348  24.313  25.096  18.433  0.1055  0.1448  0.6423
 8296W        W51349  24.333   9.070   1.983 -0.4273 -0.2237 -0.0217
 8297W        W51350  33.386  11.428  24.870  0.0708  0.2722 -0.2045
 8298W        W51351  30.723  28.317  22.688  0.2010  0.2139 -0.0498
 8299W        W51352  26.360   0.372   3.676 -0.0246 -0.2447 -0.1236
 8300W        W51353  25.046  16.307  22.393  0.2730  0.0311 -0.1241
 8301W        W51354  14.964  22.702  25.606 -0.0621  0.2608 -0.3663
 8302W        W51355  20.527  14.695   0.336 -0.0246 -0.0177  0.0208
 8303W        W51356  14.514  10.349  16.586 -0.2556  0.2355  0.0555
 8304W        W51357  17.792   6.729  27.009 -0.0971 -0.3684 -0.2045
 8305W        W51358  14.819  20.161   2.542 -0.2351  0.0498  0.0823
 8306W        W51359  23.041  26.197  17.199 -0.3178 -0.0093  0.1889
 8307W        W51360  17.806  23.209   4.056  0.3510  0.0803 -0.1935
 8308W        W51361  28.722   3.648  20.099  0.3034 -0.2813  0.0594
 8309W        W51362  14.985   7.621  18.707 -0.1270  0.0768 -0.0573
 8310W        W51363   2.447  16.780   1.906 -0.0785  0.0302 -0.0565
 8311W        W51364  33.200  27.447   6.966 -0.1408 -0.1157 -0.0354
 8312W        W51365  20.141  18.454   0.605 -0.0535  0.1057  0.0396
 8313W        W51366  24.364  31.482   4.052  0.1352  0.2931  0.2893
 8314W        W51367  22.513  15.408  23.832  0.0090  0.1521  0.1858
 8315W        W51368  29.928  16.091  27.244 -0.1572  0.0305 -0.0448
 8316W        W51369  22.796  26.763  21.578 -0.2512  0.2409  0.1682
 8317W        W51370  11.329   2.859   7.258 -0.1447 -0.0322 -0.0812
 8318W        W51371  23.633  20.126   5.298  0.2471  0.4515 -0.0332
 8319W        W51372  18.842  26.787  22.022 -0.1570  0.0686 -0.1704
 8320W        W51373   2.440  22.414  13.630 -0.4440  0.2679  0.1300
 8321W        W51374   0.339   1.925   6.779 -0.2596 -0.0883  0.1727
 8322W        W51375  24.232  13.338   4.765 -0.1623  0.1251  0.2006
 8323W        W51376  10.179  23.089   7.713  0.1025 -0.2322 -0.1335
 8324W        W51377  16.656  25.974  20.668 -0.0866 -0.0671 -0.0088
 8325W        W51378  17.796  27.163   1.075  0.1823  0.0509  0.3890
 8326W        W51379  30.287  26.820  25.242 -0.0429 -0.2166 -0.3106
 8327W        W51380  24.536  24.563  28.213 -0.0666  0.0614  0.1417
 8328W        W51381  31.606  28.314  22.834  0.2721  0.0410  0.1483
 8329W        W51382  31.380  25.289  15.372  0.1542  0.0107 -0.0906
 8330W        W51383  13.397   7.738   2.838 -0.0605  0.2946  0.0606
 8331W        W51384  32.791  14.558  14.577  0.0833  0.1824 -0.1410
 8332W        W51385   0.930  25.143   9.188  0.1832  0.3101  0.1190
 8333W        W51386  28.479   3.552  19.078  0.0047 -0.0066  0.0519
 8334W        W51387  14.981   0.906  16.292 -0.2133 -0.3342  0.2627
 8335W        W51388   0.848  28.269  24.349  0.0158 -0.2118 -0.0276
 8336W        W51389  21.069  25.798   0.377 -0.2070  0.0865 -0.1016
 8337W        W51390  15.719  33.035   5.444  0.3431 -0.2958  0.3367
 8338W        W51391  16.336  32.148  28.204 -0.1988 -0.1622  0.0507
 8339W        W51392  29.912  23.493   6.567  0.0829 -0.1235  0.1677
 8340W        W51393  14.859  22.065  24.795  0.0164  0.2067 -0.1442
 8341W        W51394  33.529  19.922  25.957 -0.1660 -0.2392  0.1391
 8342W        W51395  21.402  14.090  19.364  0.0554 -0.2205 -0.0105
 8343W        W51396  20.600  22.449   9.333  0.3324  0.0722 -0.0057
 8344W        W51397  23.273   5.121  26.551 -0.1116 -0.0985 -0.3246
 8345W        W51398   2.515  11.454  27.405 -0.0385  0.1199  0.0487
 8346W        W51399  30.184  21.837   0.181 -0.0625  0.0498  0.1235
 8347W        W51400  27.272  28.421   7.322  0.2242 -0.3405 -0.0412
 8348W        W51401  10.641  26.889   5.267 -0.1998 -0.0295  0.3849
 8349W        W51402  33.136  33.345   1.355  0.0272 -0.3270 -0.1160
 8350W        W51403  15.386  13.730   0.825  0.0016 -0.2027 -0.1700
 8351W        W51404  27.814  13.821  25.387 -0.0708  0.0950  0.3715
 8352W        W51405   7.739  28.160   1.872  0.1360  0.2749 -0.2323
 8353W        W51406  23.860   9.424  24.421 -0.1810 -0.0286  0.0924
 8354W        W51407  25.233  27.419  29.063 -0.0305 -0.1967 -0.2915
 8355W        W51408  24.217   3.260   1.548  0.0897 -0.0301  0.1020
 8356W        W51409  32.562  11.572  20.679  0.0958  0.2406  0.0648
 8357W        W51410   1.953  14.832  20.824 -0.0645  0.0555  0.0749
 8358W        W51411  24.591  30.791  18.555  0.1506 -0.2909 -0.1514
 8359W        W51412  26.059  11.438   2.840 -0.0928  0.1134 -0.0090
 8360W        W51413  26.765  20.917  13.969  0.1458 -0.0167 -0.4002
 8361W        W51414  26.678   5.046  27.312  0.0022 -0.0676  0.1383
 8362W        W51415   1.883  21.497  23.472  0.0343  0.1239  0.3645
 8363W        W51416  30.178  20.837  19.927 -0.0857  0.0019 -0.0656
 8364W        W51417  21.110  17.905   0.333 -0.1646  0.0348  0.5376
 8365W        W51418   2.331   5.758  27.509  0.2921 -0.0121  0.0032
 8366W        W51419  15.869   1.619   6.455 -0.2589  0.0449  0.1022
 8367W        W51420  14.615  15.536   7.779 -0.0778  0.1977 -0.3036
 8368W        W51421   0.657  31.134   0.421  0.1472  0.3108 -0.3223
 8369W        W51422  12.161  34.348  29.113 -0.0543 -0.2449 -0.1961
 8370W        W51423  31.131   3.575   9.691  0.2007 -0.3398  0.3272
 8371W        W51424  28.121  19.255  16.291 -0.0299 -0.1252 -0.1619
 8372W        W51425  27.507  21.714   4.372 -0.1794  0.0122  0.1255
 8373W        W51426  32.300  16.502   9.079 -0.1816 -0.1523 -0.2373
 8374W        W51427  25.518   7.850   9.319 -0.0190  0.1382 -0.1283
 8375W        W51428  14.593  29.261   2.791 -0.0838 -0.1660 -0.1563
 8376W        W51429  11.134  31.762  18.759 -0.1785  0.2935 -0.2266
 8377W        W51430   2.015  16.867  29.122  0.0699  0.0800 -0.1896
 8378W        W51431  20.909  17.098  13.507 -0.4099  0.0980  0.0812
 8379W        W51432  20.178  28.718  16.444  0.1394  0.1309 -0.0871
 8380W        W51433  22.372  33.736  17.487 -0.1166  0.0600 -0.2208
 8381W        W51434   0.310   3.395  18.208  0.0067  0.0983  0.1232
 8382W        W51435  22.780  22.485  21.806  0.0476  0.0697 -0.0134
 8383W        W51436  23.169  14.300   3.021  0.0024 -0.0196  0.1305
 8384W        W51437  25.794  21.405  20.361 -0.1439 -0.1281 -0.0717
 8385W        W51438   3.963  11.866  26.684  0.2328  0.0176  0.2995
 8386W        W51439   6.993  31.352  27.050  0.0224  0.0730  0.1816
 8387W        W51440  16.797  33.562  21.913 -0.1119  0.0216  0.1732
 8388W        W51441   0.267  22.080  24.384 -0.0769  0.2794 -0.0534
 8389W        W51442  31.242  19.439  16.665 -0.0899  0.3760  0.2135
 8390W        W51443  25.677  12.524  27.947  0.2209 -0.1457  0.4228
 8391W        W51444  15.736  24.395  27.425 -0.2603  0.0153  0.0433
 8392W        W51445  20.285  19.992  21.059 -0.2194  0.0393  0.1474
 8393W        W51446   4.878   8.379  27.259 -0.1864 -0.0521  0.1624
 8394W        W51447  20.059   2.112  25.404 -0.1301  0.1138 -0.1507
 8395W        W51448  19.674   8.863   6.731 -0.1046 -0.1109 -0.2297
 8396W        W51449  19.488  15.438   1.290 -0.0189  0.0271  0.4104
 8397W        W51450  22.766   9.276  10.179  0.3367  0.3417 -0.0097
 8398W        W51451  24.667  27.649  19.992 -0.1618 -0.2656  0.0025
 8399W        W51452   1.782  20.422  17.316  0.1886  0.3241 -0.1067
 8400W        W51453  18.876  28.810  25.866 -0.1457 -0.0808 -0.0941
 8401W        W51454   9.943  23.317   2.845 -0.1143 -0.0241 -0.2392
 8402W        W51455  24.873  18.588  27.390  0.0822 -0.3021  0.3814
 8403W        W51456  31.954  23.185  28.867 -0.2540 -0.0562  0.2826
 8404W        W51457  24.690  12.788  22.224 -0.1796  0.2187 -0.1797
 8405W        W51458   9.922   6.162  14.936  0.0347  0.1512 -0.0828
 8406W        W51459  28.059  16.483  25.601  0.2389 -0.3868 -0.1653
 8407W        W51460   9.132  14.317  15.418 -0.0113 -0.2737 -0.0351
 8408W        W51461   6.281  11.965   1.927 -0.1376  0.2686 -0.4576
 8409W        W51462   2.819   0.105  14.988 -0.0020 -0.1091  0.2437
 8410W        W51463  16.544   4.370  19.735 -0.0213  0.0227  0.1324
 8411W        W51464  12.841  32.646  23.803 -0.1163  0.0319  0.0678
 8412W        W51465  20.676  22.262  19.222 -0.3861  0.1882  0.1752
 8413W        W51466  23.147  23.953  23.944 -0.1777  0.1807  0.2243
 8414W        W51467  32.181  13.267  20.061  0.2902 -0.0332 -0.3329
 8415W        W51468  14.449  26.709  21.818 -0.2530 -0.0467  0.1842
 8416W        W51469  10.246   5.105  21.775 -0.0457  0.0863  0.2585
 8417W        W51470  20.293  25.148  18.310  0.1685 -0.2520 -0.1205
 8418W        W51471   5.995  30.537  13.911  0.2947 -0.1428  0.0478
 8419W        W51472  18.266  22.687  18.337  0.1393 -0.0170  0.0800
 8420W        W51473   2.988  20.680  22.194 -0.3343  0.0039  0.0828
 8421W        W51474  24.100  21.941  15.666 -0.1077  0.2198  0.0823
 8422W        W51475  16.434  10.006   2.351  0.0782  0.0069  0.1551
 8423W        W51476  23.090   0.505  23.943 -0.0766 -0.2357  0.2537
 8424W        W51477  22.367  19.199  15.491  0.0331  0.0505  0.0963
 8425W        W51478  32.607   1.357  13.880  0.3159  0.1385 -0.0773
 8426W        W51479   1.963  20.323  18.878  0.1370 -0.0915 -0.1789
 8427W        W51480   9.941  26.567  14.173  0.3262  0.0083 -0.0308
 8428W        W51481  20.941  28.960  15.972  0.2458 -0.0322 -0.0392
 8429W        W51482  23.661  20.641   4.533 -0.0106 -0.2543 -0.0854
 8430W        W51483  12.248  22.371   3.027  0.2344  0.1141 -0.1678
 8431W        W51484  29.933   4.884  20.703 -0.2452  0.0367 -0.1889
 8432W        W51485   5.958  19.046  15.923  0.1704 -0.0242 -0.0794
 8433W        W51486  29.810  13.795  18.679  0.2526 -0.0976 -0.1513
 8434W        W51487   9.747   2.017  19.048 -0.0122 -0.0103  0.2127
 8435W        W51488   8.653   5.426  15.884 -0.0698  0.2159 -0.0198
 8436W        W51489  22.784  31.103  20.734  0.3242 -0.0804  0.0599
 8437W        W51490  27.561  32.733  20.822 -0.3287 -0.2084 -0.2591
 8438W        W51491  15.176  25.552  18.384 -0.1362  0.4065  0.2462
 8439W        W51492   0.358   3.419  22.048  0.0957  0.0171  0.1222
 8440W        W51493  32.270  34.124  27.173 -0.2113 -0.0447 -0.0692
 8441W        W51494  10.465   0.917  18.827  0.2525 -0.0417 -0.0138
 8442W        W51495  10.092   0.719  17.592  0.0530  0.1390  0.0588
 8443W        W51496   7.006  20.577  16.765  0.1932 -0.2183  0.2631
 8444W        W51497  26.649   1.841  20.101 -0.1663 -0.1057  0.2037
 8445W        W51498  31.146  33.850  20.724  0.2010  0.1854 -0.0383
 8446W        W51499  16.836  26.551  19.216  0.1346 -0.0746 -0.0544
 8447W        W51500  20.118   2.893  19.739 -0.0281  0.4625 -0.2885
 8448W        W51501  17.520  25.379  23.072  0.0523  0.0145  0.3591
 8449W        W51502  28.871  16.590   5.803  0.1732 -0.1146 -0.2110
 8450W        W51503  22.250  24.049  15.797 -0.0697  0.3199  0.1808
 8451W        W51504  28.928  20.186  26.138 -0.2295  0.4909  0.0822
 8452W        W51505  17.177  28.262  26.513  0.0169  0.1294 -0.5947
 8453W        W51506  22.775  13.518  16.213 -0.3115  0.0511 -0.2910
 8454W        W51507  10.684  16.908  19.250  0.0085  0.2435  0.0312
 8455W        W51508  27.668  30.961  18.447  0.3221 -0.1503 -0.0032
 8456W        W51509  30.087   1.660  23.335  0.1343  0.0160  0.2895
 8457W        W51510  24.035  17.594  23.180 -0.0093  0.0826 -0.0029
 8458W        W51511  27.654  32.297  22.555 -0.4887 -0.3537  0.2061
 8459W        W51512  27.959  26.470  22.752 -0.2812  0.2895 -0.1603
 8460W        W51513  21.341  22.346  25.277  0.5231 -0.4172  0.1901
 8461W        W51514   6.249  15.618  16.106  0.1890  0.0994 -0.1581
 8462W        W51515  19.064   6.891  25.886 -0.1993  0.1126  0.2856
 8463W        W51516  12.659  22.987  24.974  0.1294 -0.2953  0.3098
 8464W        W51517  25.054  13.454  26.685  0.1813 -0.0614 -0.0080
 8465W        W51518  30.229  17.120  24.881 -0.1139 -0.1663  0.0039
 8466W        W51519  29.302  17.968  19.099  0.1295 -0.0428 -0.1824
 8467W        W51520  25.859  10.910  17.958 -0.0259  0.0165 -0.0235
 8468W        W51521  18.951  32.763  27.375 -0.0546  0.0806 -0.2359
 8469W        W51522  21.363  34.310   6.828 -0.1017 -0.0687 -0.2387
 8470W        W51523  20.084   7.172  25.946 -0.1069 -0.3100 -0.1874
 8471W        W51524   0.882  13.619  19.880 -0.0674 -0.2506 -0.3790
 8472W        W51525  29.888  14.303  16.119  0.1901  0.0535  0.0481
 8473W        W51526  19.307  28.780  24.586 -0.0275  0.0500 -0.0288
 8474W        W51527   3.531  20.282  19.642  0.0418 -0.0667  0.2265
 8475W        W51528  28.297  16.347  24.722  0.0228  0.0619 -0.1386
 8476W        W51529  22.543  30.515   7.391 -0.0081  0.0166 -0.1492
 8477W        W51530  17.492   0.797  27.439  0.2201 -0.0224  0.1636
 8478W        W51531  22.281  10.378  17.004 -0.2514 -0.1852  0.0753
 8479W        W51532  30.084   7.733  25.244  0.0798 -0.0112  0.3099
 8480W        W51533   2.073   1.900  23.064  0.3342  0.1194 -0.1638
 8481W        W51534  24.507  21.247  23.872 -0.2574 -0.4860 -0.0016
 8482W        W51535  10.033  20.796  14.384  0.0211  0.1066  0.1594
 8483W        W51536   2.650  23.680   0.573 -0.3100 -0.0485 -0.1775
 8484W        W51537  23.596  20.494  17.843  0.0210  0.0328  0.0395
 8485W        W51538   3.336  29.556  19.983 -0.0311  0.1675 -0.1886
 8486W        W51539  33.115  27.550  20.903 -0.1126 -0.0154  0.0676
 8487W        W51540  19.642  30.861   1.223 -0.2472  0.0083 -0.1348
 8488W        W51541  18.495  18.913  14.806 -0.2243  0.1854  0.1413
 8489W        W51542   9.268  15.261  16.855  0.2365 -0.0277 -0.5391
 8490W        W51543  28.250   3.715  19.518  0.0998 -0.0022 -0.1994
 8491W        W51544  20.480  24.149  17.285 -0.3519 -0.1799 -0.2011
 8492W        W51545   1.111  14.019  24.032 -0.0607  0.2614  0.3563
 8493W        W51546  25.315  22.020  14.977  0.0093  0.3509  0.1989
 8494W        W51547  21.329  14.361  28.335 -0.3049 -0.2617  0.0364
 8495W        W51548  24.363  26.835   7.879 -0.1903  0.0051 -0.3824
 8496W        W51549  22.432  15.645  26.367 -0.2086 -0.1192 -0.1628
 8497W        W51550  26.631  34.084  25.415  0.0773 -0.2412  0.0006
 8498W        W51551  18.608  26.731  19.507  0.2386  0.2845 -0.2574
 8499W        W51552  16.225  31.146  20.193  0.3185 -0.0438  0.0775
 8500W        W51553  25.037  12.825  20.913  0.0191 -0.0778 -0.0100
 8501W        W51554  27.287  23.293  27.388 -0.0850  0.0386  0.0313
 8502W        W51555  19.285  25.986  17.677  0.1054 -0.1328 -0.1098
 8503W        W51556  30.342  14.055  16.032 -0.0292 -0.3464  0.1330
 8504W        W51557  19.922  34.084  23.011  0.0129  0.0483  0.0525
 8505W        W51558  29.043  30.058  20.236  0.0827  0.2144 -0.0240
 8506W        W51559  17.541  23.505  15.223 -0.3207  0.2727 -0.3841
 8507W        W51560  14.252   8.850  26.016 -0.2778 -0.0698  0.2107
 8508W        W51561   0.721  14.526  15.835  0.3510  0.0856 -0.2312
 8509W        W51562  28.286  18.245  20.591  0.2732  0.1513  0.1158
 8510W        W51563  17.432  30.443  16.347  0.1088 -0.1093 -0.3949
 8511W        W51564  12.410  32.194  28.653  0.0575 -0.0778 -0.1197
 8512W        W51565   0.087  15.399   8.237 -0.1035  0.3206 -0.4282
 8513W        W51566  13.254  23.227  16.031 -0.3474 -0.0102  0.1728
 8514W        W51567   1.020  30.660  26.895 -0.0494  0.3246 -0.1759
 8515W        W51568  14.437  16.998  15.283 -0.2651  0.1108 -0.0537
 8516W        W51569  28.036  15.416   7.123 -0.0265 -0.0496  0.0400
 8517W        W51570  16.841  33.230   8.344  0.2392  0.2601  0.1159
 8518W        W51571  27.568   7.563  25.414 -0.2187  0.1275 -0.0130
 8519W        W51572   0.319  22.938  23.709 -0.0632  0.1418  0.1113
 8520W        W51573  26.827  18.639  28.648  0.0014  0.1691  0.1616
 8521W        W51574  14.408  28.629  16.980  0.1825  0.1034  0.1685
 8522W        W51575   3.862   9.560  20.455 -0.2005 -0.1940  0.2721
 8523W        W51576  15.738  10.529  22.408  0.2559  0.0323  0.0740
 8524W        W51577  26.726  15.900   5.167 -0.1035  0.0076 -0.1524
 8525W        W51578   6.386  12.483  23.102  0.1184 -0.0748 -0.0255
 8526W        W51579  21.134  23.213   4.492  0.0172 -0.2650  0.2518
 8527W        W51580  24.795   0.581  15.108  0.1076  0.0219 -0.0093
 8528W        W51581  18.892  27.312  17.791 -0.1098  0.0838  0.1080
 8529W        W51582  32.414  31.456  15.695  0.0945 -0.1406  0.3226
 8530W        W51583  23.077  26.944  15.664 -0.1533  0.0096  0.0191
 8531W        W51584   1.020  26.888  18.853  0.0578 -0.1196 -0.0691
 8532W        W51585  31.999   3.862  23.633 -0.0131  0.5986  0.2609
 8533W        W51586   5.007  22.549  15.568  0.0348  0.0704 -0.4422
 8534W        W51587  31.921  18.945  21.496  0.1127  0.2351  0.2318
 8535W        W51588  28.998  27.935  18.868  0.2750 -0.0565  0.0493
 8536W        W51589  18.041  31.448  16.840 -0.1043  0.0216  0.0585
 8537W        W51590  22.811  16.616  14.420 -0.1765  0.0130  0.1013
 8538W        W51591  27.811  27.448  16.701  0.2508  0.0764 -0.0971
 8539W        W51592  21.815  30.498  26.589  0.0881 -0.0433  0.1175
 8540W        W51593  16.076  20.244  21.891  0.1037 -0.0293  0.0314
 8541W        W51594  26.052  22.384  25.114 -0.2502 -0.0328  0.1630
 8542W        W51595  25.550  21.106  15.162 -0.0539  0.2362  0.0126
 8543W        W51596  28.981  22.874  15.734  0.0683 -0.0909  0.0931
 8544W        W51597  24.743  27.474  25.211 -0.0282 -0.3986 -0.2880
 8545W        W51598  20.459  23.207  16.937  0.0632 -0.0126  0.1423
 8546W        W51599  13.943  20.456  24.243 -0.1637 -0.1484  0.1310
 8547W        W51600  26.532  14.739  20.997  0.1681  0.1016  0.3113
 8548W        W51601   6.664  16.969  24.849 -0.3934  0.2536 -0.0341
 8549W        W51602  24.178  33.375  24.118  0.2187 -0.0522 -0.0632
 8550W        W51603  29.010   4.054  18.998  0.4171  0.2195  0.1800
 8551W        W51604   6.008  18.923  19.709  0.2434 -0.4320 -0.0454
 8552W        W51605   7.144  21.505   0.507 -0.1719  0.1199 -0.1544
 8553W        W51606  25.283  26.687   6.843 -0.0645  0.3198 -0.1758
 8554W        W51607  23.155   2.419  15.694  0.1235 -0.0522  0.0547
 8555W        W51608   4.889  28.417  16.596 -0.2995 -0.0924 -0.2298
 8556W        W51609  23.071   0.922   0.264  0.0451 -0.0207  0.0092
 8557W        W51610  25.022   1.570  15.091 -0.1454 -0.1525  0.0576
 8558W        W51611  34.017  26.793  20.520  0.0880 -0.0174  0.1188
 8559W        W51612  28.752  12.361  16.940 -0.0229 -0.2898  0.0969
 8560W        W51613  20.321   0.387  17.436  0.0913  0.3460 -0.0531
 8561W        W51614   0.122  22.424  21.393  0.0757  0.0184  0.0178
 8562W        W51615  33.662  11.137  17.477 -0.3487 -0.0145 -0.0186
 8563W        W51616   1.969  33.278  16.409 -0.3223  0.2400  0.2248
 8564W        W51617  22.214  19.677  23.584 -0.0108  0.0334 -0.1347
 8565W        W51618   3.637  23.211  16.767  0.1349 -0.1757  0.2231
 8566W        W51619  19.278  30.642  16.830 -0.2245 -0.0395  0.0176
 8567W        W51620  31.711  20.391  14.448 -0.1115  0.1481 -0.0650
 8568W        W51621  26.508   3.534  17.632 -0.0021 -0.2206  0.1806
 8569W        W51622  15.690   3.527  20.930 -0.1280 -0.0991  0.4614
 8570W        W51623   8.815  31.571   3.590 -0.0745  0.1779  0.0696
 8571W        W51624  27.685   6.017  19.862 -0.0059  0.1307  0.1552
 8572W        W51625  17.790  10.473  15.979 -0.1153  0.0950 -0.0994
 8573W        W51626   1.540  28.150  19.597 -0.0406  0.5111  0.0421
 8574W        W51627  26.303   8.590  29.084  0.0391  0.1087  0.1210
 8575W        W51628  31.137  22.793  15.096  0.0306  0.0384 -0.1107
 8576W        W51629  18.128   2.796  15.945 -0.0005 -0.0766  0.6988
 8577W        W51630  17.658  27.209  23.868  0.2885 -0.0149  0.0296
 8578W        W51631   0.715  20.982  13.322 -0.1572  0.1018 -0.2477
 8579W        W51632  31.456   3.319  19.432  0.2932  0.0223 -0.5763
 8580W        W51633  21.838  29.770  21.827  0.1340 -0.0898 -0.0892
 8581W        W51634  33.551   1.691   3.738  0.0911 -0.0691 -0.0928
 8582W        W51635  32.512  17.541  20.077  0.1796  0.0894 -0.0642
 8583W        W51636  27.763  18.107   2.657  0.0850  0.0056  0.0525
 8584W        W51637  29.370  30.684  26.567 -0.1867  0.2891 -0.1064
 8585W        W51638  13.470  26.913  29.109 -0.2269  0.0769 -0.2182
 8586W        W51639   6.464  29.432  19.393  0.3046  0.1199  0.1131
 8587W        W51640  28.132  15.436  26.207  0.0277 -0.1099 -0.1844
 8588W        W51641  12.809   5.977  18.905 -0.0082  0.0204  0.0149
 8589W        W51642  27.895   1.194  13.435  0.1440 -0.0071  0.0557
 8590W        W51643  18.454  30.157  14.276 -0.2147 -0.3086 -0.3399
 8591W        W51644  23.765  31.917  15.522  0.2106  0.2564 -0.0463
 8592W        W51645   4.433  30.924  18.723  0.0307 -0.3439  0.1074
 8593W        W51646  33.443  22.751  26.346 -0.1155  0.1211 -0.3187
 8594W        W51647  26.527  17.796  24.279 -0.0752 -0.1755  0.0962
 8595W        W51648  25.259  24.096  16.830  0.0321 -0.2003 -0.0554
 8596W        W51649  15.658   8.488  23.880 -0.1520 -0.0389  0.2518
 8597W        W51650  10.985  33.835  22.082 -0.3899 -0.1406  0.0851
 8598W        W51651  14.392   1.066   8.783 -0.1299 -0.0795 -0.0537
 8599W        W51652  13.224  24.945   3.838 -0.0039 -0.0727 -0.0594
 8600W        W51653   4.011  31.165  16.258  0.0281 -0.1843  0.2628
 8601W        W51654  19.053  21.578  15.325  0.1378  0.1356  0.0881
 8602W        W51655  13.068  15.636  15.119 -0.2100 -0.1481 -0.2540
 8603W        W51656  17.429  28.396  17.613 -0.0876  0.0953 -0.2066
 8604W        W51657  12.197   4.050  24.042  0.1076  0.3855 -0.0162
 8605W        W51658  13.786  29.927  13.471  0.1559  0.2493  0.2416
 8606W        W51659  34.378  25.286   2.157 -0.1033  0.1849  0.0428
 8607W        W51660  25.624   0.979  18.181  0.5106 -0.0507  0.1151
 8608W        W51661  27.813  26.812   9.849  0.0678  0.2247 -0.1248
 8609W        W51662   8.575  27.135  28.646  0.2382 -0.1476 -0.0129
 8610W        W51663   0.328   0.827  16.840 -0.1518 -0.3516 -0.0526
 8611W        W51664  28.694  34.080  23.651 -0.0376  0.1657  0.0857
 8612W        W51665  32.519   8.395  16.552  0.0378 -0.0332  0.1524
 8613W        W51666  10.464  21.765  17.608  0.0349  0.0143 -0.0215
 8614W        W51667  19.922  24.715  21.253 -0.0422  0.0948 -0.2938
 8615W        W51668  19.819  29.099  21.668 -0.1389  0.1067  0.3610
 8616W        W51669  25.476  16.031  20.668  0.4177 -0.4248 -0.0980
 8617W        W51670   1.137   7.985  17.324  0.1197 -0.2013 -0.0645
 8618W        W51671  14.732  31.503  24.525 -0.2785 -0.2343  0.2548
 8619W        W51672  25.746  21.223  21.872 -0.3325 -0.1401  0.1053
 8620W        W51673   4.631  31.234  16.657 -0.1708  0.2874 -0.0260
 8621W        W51674  28.262   8.355  18.286 -0.0241  0.1071  0.0306
 8622W        W51675   3.925  11.429  14.418 -0.0900  0.3639 -0.1550
 8623W        W51676  31.555  19.813  18.407 -0.0446  0.6234  0.1618
 8624W        W51677   2.734  34.673  19.961 -0.2249  0.0887  0.0061
 8625W        W51678  19.014  30.066  17.949 -0.0152 -0.1576  0.1049
 8626W        W51679  15.484   4.358  19.111  0.1967  0.3941 -0.0933
 8627W        W51680  26.927  22.316  14.801 -0.1320  0.3553  0.2002
 8628W        W51681  24.975  31.656  18.647 -0.1890 -0.3099  0.2359
 8629W        W51682   1.772  17.692   5.064  0.0140  0.0258 -0.1999
 8630W        W51683   7.269  22.453  26.332  0.0872 -0.2158 -0.0487
 8631W        W51684  26.211  34.153  22.382  0.0190 -0.2002  0.1322
 8632W        W51685  32.763  13.508   1.398  0.0257 -0.1826  0.0345
 8633W        W51686  16.527   5.799   4.544 -0.0438  0.1706  0.0804
 8634W        W51687  26.209   0.326  15.626  0.1194 -0.0985 -0.1335
 8635W        W51688  24.373  30.473   1.863  0.2657  0.0936  0.1197
 8636W        W51689   5.056   0.061  29.150  0.0331 -0.2769  0.1912
 8637W        W51690  12.716   9.895  22.084  0.0012 -0.0003  0.2435
 8638W        W51691  30.930  27.998   6.215 -0.0781 -0.2593  0.0670
 8639W        W51692  11.523  16.341  23.546  0.0766 -0.1025  0.0370
 8640W        W51693  17.870  25.744  16.011 -0.1319  0.0353 -0.1111
 8641W        W51694  29.242   1.732  27.319  0.0047  0.1208 -0.0035
 8642W        W51695  24.794  31.712  17.617 -0.0641 -0.0181  0.1722
 8643W        W51696  17.205  31.602   4.567 -0.0856 -0.1911  0.0670
 8644W        W51697  25.098  29.753   6.412 -0.1633  0.1081 -0.1071
 8645W        W51698   9.613   0.618  18.937  0.0480  0.0704  0.0647
 8646W        W51699  33.250  33.582  16.013  0.0730 -0.0415  0.2089
 8647W        W51700  12.288  15.548  17.741 -0.2119 -0.0260  0.2857
 8648W        W51701  24.832  30.372  17.152 -0.1591 -0.2840  0.0658
 8649W        W51702   4.371  19.586  26.951 -0.2009 -0.1844 -0.4099
 8650W        W51703  16.968  23.958  16.878  0.1022 -0.2298  0.0386
 8651W        W51704  25.176  31.766  22.415  0.0872  0.0475 -0.0551
 8652W        W51705  12.773  29.033  19.902 -0.1541 -0.0695 -0.2644
 8653W        W51706  23.203  17.782  23.676  0.0940  0.0956 -0.1936
 8654W        W51707  30.062  25.374  19.340  0.2170  0.0817  0.1906
 8655W        W51708   2.227  22.761  22.362 -0.3495  0.0429 -0.1046
 8656W        W51709  29.010   9.165  23.921 -0.0972  0.3350  0.0264
 8657W        W51710   3.109  15.528   2.114  0.0042  0.0158  0.1016
 8658W        W51711   9.588  23.299   0.403 -0.0753  0.1211  0.2088
 8659W        W51712  15.934  27.601  20.930 -0.0580 -0.1971  0.1254
 8660W        W51713  30.713  23.667  24.140  0.1092 -0.1302  0.1715
 8661W        W51714   7.578  27.808   1.109 -0.0010  0.2145  0.0440
 8662W        W51715  33.957   9.097  16.831  0.4395  0.1527 -0.2176
 8663W        W51716  12.927  13.965  26.164 -0.2535 -0.1667 -0.3324
 8664W        W51717  30.281  12.941  19.037  0.0999 -0.0366  0.1769
 8665W        W51718  30.068   0.841  19.281  0.0332 -0.2254  0.1465
 8666W        W51719  29.213  28.390  18.205 -0.0026  0.1150  0.0440
 8667W        W51720  30.297  34.019  19.914  0.1539 -0.2229  0.0457
 8668W        W51721  31.292  26.343  18.965 -0.1324 -0.0152 -0.0423
 8669W        W51722  24.782   3.933   0.402 -0.1570 -0.0695 -0.2316
 8670W        W51723  22.417  33.335  25.102  0.0910 -0.3009  0.0136
 8671W        W51724  25.484  31.475   9.341  0.0238 -0.2860  0.0842
 8672W        W51725  27.543   6.783  26.374  0.3929  0.1328  0.1764
 8673W        W51726  30.803  20.122  18.228  0.0120  0.0417  0.2824
 8674W        W51727  21.720  25.027  16.710  0.3059  0.2035 -0.1384
 8675W        W51728   3.404  23.041  14.598  0.4801  0.0686 -0.1779
 8676W        W51729  19.752  29.849  17.190  0.1145  0.0084 -0.1226
 8677W        W51730   5.245  32.639  18.762 -0.1203  0.0743 -0.1855
 8678W        W51731  19.573   8.917  15.657 -0.2727 -0.2278 -0.1618
 8679W        W51732  24.625  20.025  18.252  0.1329  0.1680  0.0929
 8680W        W51733  22.795  24.042  18.601 -0.0586  0.1265 -0.0491
 8681W        W51734  20.583  32.170  19.080  0.1920  0.0626 -0.0730
 8682W        W51735  18.439  25.738  27.920  0.0873  0.1742 -0.1575
 8683W        W51736  20.388  26.295  18.295 -0.4426  0.2625 -0.3191
 8684W        W51737  25.322  23.630   1.055 -0.1589  0.0539  0.2713
 8685W        W51738   4.815  29.206  23.498 -0.1409  0.1150  0.0206
 8686W        W51739  32.437   1.719   5.934 -0.1706 -0.1243 -0.0688
 8687W        W51740   4.882  25.420  15.094  0.3214 -0.0600  0.2540
 8688W        W51741  16.423  25.801  19.652 -0.0766 -0.1172  0.0801
 8689W        W51742  18.818  26.068  25.624 -0.1974  0.2036  0.0145
 8690W        W51743  25.648  22.945  15.641 -0.0477  0.3560 -0.0002
 8691W        W51744  26.375  15.959  22.736  0.0248  0.0823 -0.0379
 8692W        W51745  31.350  11.316  19.206  0.2102  0.0059 -0.0805
 8693W        W51746   5.163  31.325  13.255 -0.0303  0.1249  0.3468
 8694W        W51747  31.248  33.113  27.672  0.1771  0.0230  0.0940
 8695W        W51748  15.948  19.949  24.878 -0.0734 -0.0065 -0.0056
 8696W        W51749  17.855   8.185  22.003  0.0584  0.2305  0.0636
 8697W        W51750  31.794   6.359  15.562 -0.3638 -0.2345 -0.0483
 8698W        W51751  31.551  22.229  17.700  0.0817 -0.2179  0.0562
 8699W        W51752  21.995  32.161  20.917 -0.0037 -0.0064  0.0095
 8700W        W51753  19.076  28.123  15.148  0.0945  0.4028 -0.1333
 8701W        W51754  16.858   6.924   1.412  0.0397 -0.1172  0.3085
 8702W        W51755   2.107  23.621  15.674 -0.0244 -0.2624  0.4016
 8703W        W51756  31.334  30.201  25.231  0.1552  0.0250 -0.2230
 8704W        W51757  22.305   2.662  16.544  0.1268  0.2013  0.3462
 8705W        W51758  27.109  28.907  21.741  0.0768 -0.0722 -0.3822
 8706W        W51759  20.140  23.698  21.488 -0.0650  0.0247  0.4033
 8707W        W51760  27.635  20.616  13.960  0.3948 -0.2217  0.1293
 8708W        W51761  18.747  24.422  20.238 -0.3981 -0.1624  0.3777
 8709W        W51762  28.332  20.720  19.330 -0.1372  0.0681 -0.2170
 8710W        W51763  34.331   2.449  16.452 -0.0968 -0.0219  0.1153
 8711W        W51764   4.692  27.758  13.460  0.0025 -0.0944 -0.1711
 8712W        W51765  33.158  34.104  17.413 -0.0397  0.0414  0.0541
 8713W        W51766  28.168  30.848  22.662 -0.0657 -0.3597 -0.0405
 8714W        W51767  33.862  34.506  18.462  0.0765 -0.0066 -0.2545
 8715W        W51768  17.225   8.215  16.412  0.1070 -0.2117 -0.1083
 8716W        W51769   1.104  15.553  22.833 -0.2323  0.0950  0.2120
 8717W        W51770  23.066  29.731  16.658  0.1109  0.1045 -0.0889
 8718W        W51771  17.844  23.366  26.796 -0.1091 -0.1247  0.0800
 8719W        W51772  31.436  25.864  21.002  0.0054  0.0122  0.1228
 8720W        W51773  23.189  22.872  26.292 -0.0661 -0.0273 -0.1102
 8721W        W51774  23.494   3.395  29.181  0.1954 -0.0566  0.0429
 8722W        W51775  19.563  28.567  18.180 -0.0361  0.1318  0.1944
 8723W        W51776  22.133  20.273  18.647  0.2321  0.1465  0.1069
 8724W        W51777  26.407   0.088  16.793 -0.5182  0.1192 -0.0331
 8725W        W51778   2.927  27.166  19.657  0.1851 -0.1136 -0.1134
 8726W        W51779  10.323  30.236  14.422 -0.0384 -0.2431  0.0343
 8727W        W51780   1.041   2.848   0.938  0.2207 -0.1689 -0.1997
 8728W        W51781  21.534   1.735  21.817  0.1010  0.1551  0.1823
 8729W        W51782  21.843  14.611  18.004 -0.0539 -0.2712 -0.1337
 8730W        W51783   5.253  32.032  14.878  0.1697  0.0409 -0.2969
 8731W        W51784  23.200  18.252  17.609  0.1524 -0.0088 -0.0625
 8732W        W51785  11.440  15.770  23.739 -0.1572 -0.1918 -0.0282
 8733W        W51786  19.677  30.467  21.116  0.0668 -0.0509 -0.2056
 8734W        W51787  24.452  30.472  13.568  0.1295  0.0167  0.0299
 8735W        W51788   7.778  26.832  19.880  0.3911  0.1992  0.0904
 8736W        W51789  18.252  17.674  24.059  0.2505  0.0512 -0.3433
 8737W        W51790  23.395   0.667  21.960  0.0487  0.0800 -0.0892
 8738W        W51791  18.905   1.713   4.480  0.2459 -0.4200  0.1037
 8739W        W51792  26.471  19.521  16.034 -0.1763 -0.2603  0.0081
 8740W        W51793  21.559   6.851  22.667 -0.0088  0.0005 -0.1842
 8741W        W51794  30.849  16.904  18.639 -0.0955 -0.2411  0.3355
 8742W        W51795  18.185   3.247  18.998  0.3532  0.0233 -0.0316
 8743W        W51796  27.632  34.594  24.371 -0.0503 -0.2461  0.2284
 8744W        W51797   6.952  15.321  24.115 -0.1674 -0.0196  0.0183
 8745W        W51798   4.020   0.342  20.750 -0.1015 -0.0315  0.3348
 8746W        W51799  15.876  27.451   7.060 -0.1061  0.4162  0.0749
 8747W        W51800   2.994  21.341  27.157 -0.1010  0.0532  0.0939
 8748W        W51801  14.636  29.906   0.403 -0.0227  0.2288  0.3507
 8749W        W51802  32.987  29.219  20.585 -0.1892 -0.1000 -0.1365
 8750W        W51803  17.944  34.027   2.792  0.2610  0.0646 -0.3084
 8751W        W51804  30.358  26.230   9.687  0.0557  0.0917  0.0191
 8752W        W51805   0.090  22.254  14.363 -0.2019  0.3773 -0.1070
 8753W        W51806   0.467  20.543  28.071  0.1509 -0.0893  0.0440
 8754W        W51807   2.091  31.196  23.442 -0.2081 -0.1735  0.1396
 8755W        W51808   1.497   3.963  28.979  0.1335 -0.2259  0.2208
 8756W        W51809  26.970  29.150  14.828  0.1498  0.0701 -0.1452
 8757W        W51810  20.360  23.633  14.395 -0.0543  0.2936  0.2249
 8758W        W51811  12.227  15.118  24.541  0.0435 -0.0042 -0.0165
 8759W        W51812   8.494  24.010  29.196 -0.1949  0.4666 -0.0583
 8760W        W51813  31.773  28.260  15.015 -0.3274 -0.0699 -0.2252
 8761W        W51814  30.034  23.353  18.701  0.0727 -0.2903  0.1321
 8762W        W51815   0.762  22.158  21.312 -0.4788  0.0739  0.4419
 8763W        W51816  32.323   3.900  27.045  0.4783 -0.2571 -0.0117
 8764W        W51817  19.099  22.879  23.969  0.0070 -0.0225  0.0482
 8765W        W51818  18.225  34.551  16.076 -0.2164 -0.3195 -0.2619
 8766W        W51819  29.968  29.586   2.381 -0.2017 -0.1080 -0.0685
 8767W        W51820  11.623  24.830  27.463  0.0853 -0.0371  0.0817
 8768W        W51821  29.348  14.268  20.942 -0.0671  0.0149  0.0517
 8769W        W51822  28.069  11.639  16.153 -0.2454  0.0166 -0.5187
 8770W        W51823  20.433  16.559  24.047 -0.0454 -0.2362  0.0128
 8771W        W51824   2.406  18.876   3.019 -0.2008 -0.1760  0.0621
 8772W        W51825   8.821  18.486  22.192 -0.0843  0.0254  0.0377
 8773W        W51826  15.585  10.718   6.731  0.2391 -0.1366 -0.0672
 8774W        W51827  29.009  32.316  17.405  0.4595  0.0306 -0.3690
 8775W        W51828  33.076  26.068  20.785  0.0808 -0.0788  0.1254
 8776W        W51829  15.298  29.674  14.653  0.0113 -0.5080  0.1112
 8777W        W51830  33.915  20.876  25.505  0.0999  0.1492  0.0645
 8778W        W51831   6.747   1.802  16.499 -0.1711  0.0499  0.3588
 8779W        W51832  25.543  15.310  20.577 -0.3308 -0.0127 -0.0948
 8780W        W51833  25.084  24.231  18.528  0.1767 -0.0414 -0.4022
 8781W        W51834  23.784   4.136  23.416  0.0179  0.0152  0.2024
 8782W        W51835  14.248  32.916  16.070 -0.3578 -0.1600 -0.2412
 8783W        W51836  26.485  33.789  25.794  0.0708  0.4699 -0.1682
 8784W        W51837  19.170  30.330   1.895  0.1415  0.0433  0.1516
 8785W        W51838  16.103  27.100  18.909 -0.1688 -0.0134  0.3657
 8786W        W51839  31.409  18.758  15.468 -0.1372 -0.0553 -0.1957
 8787W        W51840  28.685   9.737  15.591  0.2977  0.3194 -0.1043
 8788W        W51841  33.033  27.163   6.124 -0.2291  0.1231 -0.3969
 8789W        W51842  32.113   7.209  27.743 -0.2777 -0.5723  0.1267
 8790W        W51843  23.208   0.038  22.580 -0.2863  0.2246 -0.2043
 8791W        W51844  10.947  34.348  27.270 -0.0349 -0.3427  0.1088
 8792W        W51845  33.420  19.132  21.959  0.1177 -0.2285  0.2676
 8793W        W51846  34.670  26.440   1.516 -0.2659  0.1278 -0.3352
 8794W        W51847   3.490  12.276  20.123 -0.2381 -0.2005 -0.0463
 8795W        W51848  28.833  25.117  16.693 -0.1391  0.1560 -0.0928
 8796W        W51849  31.790  21.228  18.868  0.1194  0.3173 -0.3861
 8797W        W51850  16.325  22.239   6.670 -0.0962 -0.2365 -0.0843
 8798W        W51851  34.670  16.092   1.526 -0.2579  0.0295  0.0138
 8799W        W51852  27.205  34.204   0.226 -0.0127 -0.0196  0.1858
 8800W        W51853   7.921  24.611  14.866  0.0327 -0.0325 -0.2878
 8801W        W51854  22.208  32.333   1.633 -0.0963  0.0221 -0.0074
 8802W        W51855   2.197  31.299   0.863  0.0586  0.0725  0.0192
 8803W        W51856  23.020  27.064  16.690  0.0047  0.1070 -0.0743
 8804W        W51857  24.651   1.520  22.804  0.1824 -0.1099 -0.2152
 8805W        W51858  22.092  21.639  18.751  0.0066 -0.2724 -0.1168
 8806W        W51859  29.725  14.439   2.266  0.3018  0.0861 -0.0741
 8807W        W51860   0.724  20.566  21.070 -0.0497  0.0349 -0.4171
 8808W        W51861  32.155  29.852  19.670 -0.0035  0.1510 -0.2660
 8809W        W51862  17.658  20.519  22.501 -0.0740  0.2053 -0.1273
 8810W        W51863   9.391  26.874   6.636  0.1407  0.3527  0.0067
 8811W        W51864  12.255  24.791  15.410  0.1296  0.3768 -0.0181
 8812W        W51865   1.755   2.264   3.183 -0.1703 -0.1866  0.1515
 8813W        W51866   3.385  22.754  15.094  0.4911  0.2780 -0.2803
 8814W        W51867  32.232  12.115  21.498 -0.4501  0.2152 -0.2040
 8815W        W51868  22.207  26.667  20.901  0.2068  0.0154 -0.0034
 8816W        W51869   6.681  29.354  27.395  0.1821  0.6067  0.0727
 8817W        W51870  15.236  27.750  24.993  0.0989  0.0674 -0.1805
 8818W        W51871  13.087   0.870  19.240 -0.0778 -0.0492  0.0186
 8819W        W51872  21.436  29.929  17.579 -0.1623  0.3506 -0.0574
 8820W        W51873   3.342  22.312  24.788 -0.1726  0.2063 -0.2185
 8821W        W51874  10.148  23.519   4.444  0.0701  0.0189  0.0342
 8822W        W51875  17.685   9.713  21.813  0.0618  0.1920 -0.0763
 8823W        W51876  33.769  13.507  29.017  0.3011 -0.0447 -0.1215
 8824W        W51877  24.773  25.406  14.543 -0.1558 -0.2448 -0.0240
 8825W        W51878  21.612  33.498  26.555  0.1380 -0.2357 -0.2347
 8826W        W51879  19.282  20.301  20.777  0.0597 -0.0151 -0.0820
 8827W        W51880  32.209  20.485  17.071  0.0446  0.0176 -0.2070
 8828W        W51881  24.987  26.089  25.613  0.0714  0.0201 -0.1635
 8829W        W51882  25.199  27.653  21.583  0.2753  0.0927  0.2525
 8830W        W51883  22.793   9.922  25.894  0.0351  0.2481 -0.0900
 8831W        W51884   8.203   4.640  19.364  0.0726 -0.0860 -0.3082
 8832W        W51885  14.720  21.105  27.021  0.2047 -0.2570  0.1027
 8833W        W51886   0.452  14.855   3.173  0.0008  0.0582 -0.0436
 8834W        W51887  26.988  17.440  20.448 -0.1767  0.2202 -0.2291
 8835W        W51888  17.041  27.777  28.880  0.1506  0.1112  0.1669
 8836W        W51889  24.451   3.032  25.416 -0.0584  0.3265 -0.1322
 8837W        W51890  25.278  24.802  15.412  0.3782 -0.3920  0.1062
 8838W        W51891   8.269   5.637   1.336 -0.0234 -0.3147 -0.0147
 8839W        W51892   8.287  11.112  26.756 -0.2361  0.2504  0.2875
 8840W        W51893   8.997  17.239  25.879 -0.0107 -0.0930 -0.1368
 8841W        W51894  30.574  15.990   7.272 -0.0948 -0.0524 -0.0981
 8842W        W51895  23.073  11.320  18.501  0.2039  0.2572  0.1789
 8843W        W51896   5.060  13.356  24.457  0.1954  0.1623 -0.0660
 8844W        W51897  13.023   0.434  25.727  0.0347  0.0154  0.0663
 8845W        W51898  18.719  33.193  19.396  0.1540 -0.2414 -0.0668
 8846W        W51899  17.649  29.177  16.633  0.0399 -0.4220  0.1628
 8847W        W51900  16.979  33.692  23.273  0.1557  0.1282  0.0959
 8848W        W51901  21.409  27.965   3.235 -0.2816  0.0255 -0.1679
 8849W        W51902  32.483  24.247  22.787 -0.0912 -0.1857  0.1418
 8850W        W51903  19.128  23.757  23.105  0.0679  0.0350  0.3069
 8851W        W51904  25.000   0.447  15.819 -0.1111 -0.2947  0.0604
 8852W        W51905  18.207   4.383  26.942 -0.0870  0.0583 -0.0929
 8853W        W51906  23.488  12.686  15.166  0.1431 -0.0598  0.1614
 8854W        W51907  22.608  16.492  22.551  0.0583 -0.0016  0.1602
 8855W        W51908  25.548   0.194  25.511 -0.0385  0.0434  0.2349
 8856W        W51909  32.834  23.052   1.067  0.0556 -0.0990 -0.3779
 8857W        W51910  28.692  14.438  22.529 -0.3845  0.0099 -0.0762
 8858W        W51911  23.458  23.277  17.452 -0.1270  0.0516 -0.0925
 8859W        W51912  28.914  30.052   7.237 -0.1984 -0.1213  0.1399
 8860W        W51913  33.140  29.738  20.603  0.2057  0.2134 -0.1668
 8861W        W51914   7.461  31.164  16.389  0.0567 -0.1168 -0.0156
 8862W        W51915  10.574  25.493  21.867 -0.2795  0.1123 -0.1759
 8863W        W51916  27.491  24.519  25.263 -0.3042 -0.0611 -0.2358
 8864W        W51917  15.840  18.525  14.009  0.3107 -0.0639 -0.1252
 8865W        W51918  17.857  28.694  22.604  0.1821  0.2435  0.1822
 8866W        W51919  23.663   7.001  16.241 -0.4031  0.2082 -0.1589
 8867W        W51920  17.171  26.884  18.897  0.2584 -0.1849  0.2908
 8868W        W51921  26.633   3.145  21.262 -0.2063 -0.1810 -0.1340
 8869W        W51922  24.995  30.745  19.223 -0.0812 -0.1462  0.1009
 8870W        W51923  32.592  32.722  25.872 -0.1535  0.0137  0.0049
 8871W        W51924   2.745  28.100  20.201  0.0960 -0.0182 -0.0079
 8872W        W51925  17.917  29.257  15.017 -0.0377 -0.1884 -0.0177
 8873W        W51926   4.449   2.085  27.913 -0.0248 -0.0771  0.0656
 8874W        W51927  25.793  33.211   9.710 -0.4432 -0.1113  0.0282
 8875W        W51928  29.284  23.498  21.693 -0.1184 -0.1965 -0.1279
 8876W        W51929   3.584  32.012  27.361  0.0235 -0.1618  0.0005
 8877W        W51930  18.590  27.048  15.083  0.0093  0.2315 -0.0552
 8878W        W51931  23.682  18.279  16.980 -0.1866 -0.1179  0.1159
 8879W        W51932  24.962   8.304   4.305 -0.2156  0.1842 -0.1051
 8880W        W51933   2.597  25.569  16.045  0.1841 -0.0291  0.1474
 8881W        W51934   5.781  26.955  20.163  0.1092  0.0927  0.0127
 8882W        W51935  10.355  13.631  27.846  0.0792  0.2456  0.0305
 8883W        W51936  20.449  29.290  26.581  0.0986 -0.0897 -0.0653
 8884W        W51937  30.591  10.957  21.114  0.1284  0.2003  0.1734
 8885W        W51938  16.671  22.454  17.403  0.0886  0.0792 -0.1497
 8886W        W51939  15.959   9.517  17.358  0.3232 -0.1681  0.0270
 8887W        W51940  29.203  17.722  26.540 -0.1422  0.1688  0.0310
 8888W        W51941  27.242   5.296  19.040  0.0616 -0.0254  0.4413
 8889W        W51942  17.136  12.470  17.070 -0.0767  0.1017 -0.4121
 8890W        W51943  13.108  30.788  13.966 -0.0462 -0.1706  0.0519
 8891W        W51944   4.836  15.313  19.935 -0.3288  0.0974 -0.1428
 8892W        W51945  18.200  16.684  25.411 -0.1878  0.1301 -0.1713
 8893W        W51946  21.758  25.110  24.824 -0.3152  0.1192 -0.0840
 8894W        W51947  19.059  28.881  19.410 -0.2499  0.2952  0.0071
 8895W        W51948  15.265   3.632  21.878 -0.1892 -0.1357  0.0547
 8896W        W51949  19.843   0.102   1.730 -0.2660  0.0281 -0.1162
 8897W        W51950  12.790   2.681  23.235  0.0489  0.1634 -0.2264
 8898W        W51951  22.347  20.625  20.267  0.2697 -0.0498 -0.3437
 8899W        W51952  21.546  11.581  23.070  0.0219  0.0374 -0.3588
 8900W        W51953  26.280  33.479  18.626 -0.0558  0.3143 -0.0416
 8901W        W51954   3.365  24.629  24.993  0.1009  0.1096  0.0155
 8902W        W51955  17.024  30.428  28.962 -0.1716 -0.2412 -0.2747
 8903W        W51956  10.564  14.348  20.536 -0.0395 -0.0511 -0.2826
 8904W        W51957  32.287  13.898  16.277  0.0052  0.2104  0.0469
 8905W        W51958   3.756  26.776  14.935 -0.1154 -0.0581  0.1987
 8906W        W51959  17.052  15.480  14.172  0.0139 -0.1617  0.0767
 8907W        W51960  27.849  22.618  27.812  0.3516 -0.0050 -0.2418
 8908W        W51961  10.792  27.517  16.088  0.2431 -0.1277  0.0545
 8909W        W51962  27.046  33.758   4.996  0.0231 -0.0023  0.3206
 8910W        W51963  20.950  34.394  25.743 -0.2216 -0.0450 -0.2254
 8911W        W51964  26.897  16.897   0.348 -0.1034 -0.0684  0.1433
 8912W        W51965   0.697   1.480  23.578 -0.0586  0.0985  0.1538
 8913W        W51966  31.579  27.555  17.023 -0.1412 -0.1596  0.0672
 8914W        W51967  31.424   8.725   9.627  0.0304 -0.1104  0.1660
 8915W        W51968  17.173  10.455  29.131  0.0558 -0.2976 -0.1763
 8916W        W51969  23.317  22.297  27.398 -0.0784  0.0019  0.2114
 8917W        W51970   6.260  21.937  20.686 -0.4254  0.0185  0.2532
 8918W        W51971  10.497  29.271  24.418  0.4084 -0.0217 -0.0852
 8919W        W51972   3.028   8.037  22.821 -0.4353 -0.1286 -0.0869
 8920W        W51973  30.840   5.642  28.999  0.1945  0.0628 -0.1984
 8921W        W51974  19.718  33.668   2.836 -0.0442 -0.3169  0.3142
 8922W        W51975  16.687   3.511  16.118 -0.0386 -0.1742 -0.0590
 8923W        W51976  16.618  34.420  17.984 -0.1365  0.0920 -0.0019
 8924W        W51977  29.748  20.438   0.150 -0.1909  0.1320 -0.3843
 8925W        W51978   6.127  25.374   5.786 -0.1854 -0.1044  0.1286
 8926W        W51979  19.110  13.006  14.964  0.0462  0.4241  0.0433
 8927W        W51980  34.634  18.280  17.358 -0.0692 -0.1569  0.0949
 8928W        W51981  11.573  15.417  25.925 -0.2261  0.2037  0.1806
 8929W        W51982  18.935  21.753   6.994  0.2451  0.1716  0.1606
 8930W        W51983  25.198   6.224  19.078  0.2067  0.0345  0.1449
 8931W        W51984  15.136  23.151  15.918 -0.0609  0.0005  0.1661
 8932W        W51985  17.592  25.339   1.289 -0.2564 -0.2784  0.1017
 8933W        W51986  30.535  21.324  21.770  0.1308 -0.0256  0.1123
 8934W        W51987   6.448  24.871  17.837 -0.2467 -0.2904 -0.0854
 8935W        W51988  22.037  31.427  19.710 -0.1672  0.0121 -0.0735
 8936W        W51989  10.760  34.102  20.245  0.0749  0.2544 -0.0515
 8937W        W51990  30.398   3.298   2.237 -0.0449 -0.2390  0.0583
 8938W        W51991  21.289  26.312  19.482 -0.5452  0.4249 -0.1608
 8939W        W51992  30.659  27.312  15.126 -0.0072 -0.3871 -0.0752
 8940W        W51993  26.404  30.461  16.855  0.1475 -0.1592 -0.0147
 8941W        W51994  31.894  19.612  28.901 -0.0272  0.0129  0.0930
 8942W        W51995  18.978  16.372  12.563 -0.1724  0.2782 -0.0148
 8943W        W51996  25.662  24.487  20.037  0.1776  0.2208 -0.1643
 8944W        W51997  29.054   6.474  14.828  0.3013  0.0049 -0.0172
 8945W        W51998   8.760  20.486  16.946 -0.1325 -0.1972 -0.2749
 8946W        W51999  17.753  32.025   2.585 -0.1223 -0.3078 -0.2521
 8947W        W52000  19.825  31.726  21.781  0.1546 -0.1495  0.0622
 8948W        W52001  25.503   9.336  14.786  0.2070 -0.0926 -0.1359
 8949W        W52002  33.417  20.863  28.140 -0.0241  0.1921 -0.2043
 8950W        W52003   0.608  18.557  22.100  0.3492  0.0724  0.3115
 8951W        W52004  19.849  22.363   3.785  0.0067  0.2128  0.0314
 8952W        W52005  26.188   6.715  28.409  0.0895 -0.0345 -0.0238
 8953W        W52006  19.927   9.307  15.490  0.1017  0.0401  0.2767
 8954W        W52007  24.227  12.782  17.169  0.1559  0.0330 -0.1928
 8955W        W52008  16.831  25.486  27.318  0.1951  0.0433 -0.0704
 8956W        W52009  22.077  17.699  14.519  0.0754 -0.1557 -0.2246
 8957W        W52010  23.694  25.309  23.956  0.2015  0.0947  0.1077
 8958W        W52011  23.333  21.657  23.043 -0.0998 -0.0578 -0.2276
 8959W        W52012  24.157  30.098  18.843  0.0006 -0.0962 -0.4172
 8960W        W52013  15.658  27.662   0.029  0.1107  0.0398  0.0310
 8961W        W52014  20.169  30.079  18.735  0.0258 -0.1235  0.0031
 8962W        W52015  11.961  17.691  20.610  0.0816  0.1130  0.0907
 8963W        W52016  22.028  11.381   2.418  0.0477  0.4120  0.0403
 8964W        W52017  31.949  16.217   3.632  0.0789  0.1480  0.2018
 8965W        W52018  13.954  16.083  14.549  0.0589 -0.0113 -0.3085
 8966W        W52019  28.345  14.837   6.377 -0.0791 -0.0846 -0.5756
 8967W        W52020  18.865  10.530   8.923  0.0052  0.0004 -0.1181
 8968W        W52021  32.893   6.890   7.256  0.4055 -0.4476 -0.0212
 8969W        W52022  28.998  27.510  16.747  0.0625 -0.2760  0.1372
 8970W        W52023   2.024  17.982  24.145 -0.1270  0.1932  0.0624
 8971W        W52024  31.145   2.446  28.434  0.1458  0.1222  0.2362
 8972W        W52025  19.328   0.232  21.751 -0.1895  0.1883  0.1577
 8973W        W52026  25.656  16.863  14.805 -0.0740 -0.1779  0.0207
 8974W        W52027  32.435  29.134  20.649  0.1428 -0.1150  0.1641
 8975W        W52028  18.742  34.607  26.574  0.2271  0.0413  0.2312
 8976W        W52029   8.067   7.186  21.726  0.1723  0.0276  0.2150
 8977W        W52030  32.368  26.477  20.288  0.3947 -0.1114 -0.1207
 8978W        W52031  31.476  17.808  27.089 -0.0557  0.0768  0.0328
 8979W        W52032  23.502  20.327  17.313  0.1520  0.0485  0.1634
 8980W        W52033   1.295  31.502  22.349 -0.1952  0.1490  0.2068
 8981W        W52034  27.822  21.151  25.149  0.1527  0.1323  0.0629
 8982W        W52035  26.791  33.492  23.251 -0.1582  0.0853 -0.0695
 8983W        W52036   6.418  17.023  19.675  0.3993  0.1870  0.0620
 8984W        W52037  28.805  31.128  25.949 -0.0207 -0.0519  0.0465
 8985W        W52038  18.265  33.482  22.690 -0.0134 -0.2439 -0.1525
 8986W        W52039  26.736  32.638   9.838 -0.1198 -0.0359  0.2090
 8987W        W52040  22.514  28.949  23.200  0.1917 -0.0505 -0.0947
 8988W        W52041  28.147  31.051  23.984 -0.1113 -0.0000 -0.2980
 8989W        W52042   9.363   4.716  18.673  0.0587  0.3252 -0.0420
 8990W        W52043  14.510  29.673  19.828 -0.2157  0.0733 -0.1693
 8991W        W52044  24.040  17.492  14.747  0.0658 -0.2839  0.4455
 8992W        W52045  32.522  33.863  22.618 -0.2861 -0.1355 -0.5409
 8993W        W52046  27.999  16.958  23.199  0.0022 -0.0277 -0.1107
 8994W        W52047   8.077  29.177  19.338  0.0631 -0.1016 -0.4114
 8995W        W52048  30.193   1.570  16.520  0.3261 -0.2050  0.2017
 8996W        W52049  23.525   0.883   1.744 -0.2352  0.1345  0.3491
 8997W        W52050   3.878  33.688  28.092 -0.1130 -0.1554  0.0290
 8998W        W52051  28.144  27.749  23.953  0.2330  0.0800  0.1170
 8999W        W52052  31.486  20.091  20.314  0.1116 -0.1293  0.3077
 9000W        W52053  27.380  18.910   3.719 -0.0994  0.2014  0.1712
 9001W        W52054  28.190  32.145  14.865 -0.1062  0.1603 -0.2494
 9002W        W52055  19.668  21.376   1.759  0.0216 -0.1044  0.3280
 9003W        W52056  24.952   1.843  24.362 -0.0543  0.0100  0.4095
 9004W        W52057  27.552  31.452  20.129  0.0797  0.1681  0.0900
 9005W        W52058   0.873  11.310   9.411 -0.0738 -0.3218 -0.1325
 9006W        W52059   7.930  11.273  19.706 -0.1424  0.1808  0.2720
 9007W        W52060  16.865  25.174  11.208  0.2157  0.0914  0.3294
 9008W        W52061   6.461  22.275  24.151 -0.2697 -0.0143 -0.0778
 9009W        W52062  19.803  25.489  17.164  0.1381 -0.0160  0.3028
 9010W        W52063   4.836  14.344  21.574 -0.1278  0.2741 -0.2266
 9011W        W52064  32.658   7.787  27.501 -0.3908  0.1647  0.0576
 9012W        W52065   8.774   0.928  21.533  0.0745 -0.0712  0.3167
 9013W        W52066  26.007  10.270  28.770  0.1135  0.1848  0.0100
 9014W        W52067  21.157  22.083  18.681  0.1687 -0.0831  0.3467
 9015W        W52068  19.471  12.592  21.388  0.0617  0.0292  0.0680
 9016W        W52069   1.569   8.275  14.096 -0.0633 -0.0331  0.0388
 9017W        W52070  20.581  29.928   0.327 -0.0194  0.2950  0.0826
 9018W        W52071  33.477  10.008  24.438  0.3294 -0.1294  0.0226
 9019W        W52072   8.622  27.710  21.848  0.2839  0.0969  0.2170
 9020W        W52073  22.337  12.740  16.573 -0.0569 -0.3907 -0.0697
 9021W        W52074  34.437  17.119   2.725  0.1503  0.0533  0.0205
 9022W        W52075   4.884  27.722  25.017 -0.0466  0.3316 -0.1906
 9023W        W52076  29.119  33.787  23.414  0.0605 -0.0316 -0.1406
 9024W        W52077  14.924  15.555   0.413 -0.0265 -0.0035  0.0148
 9025W        W52078  21.048  25.528  27.271  0.4020 -0.1749 -0.2650
 9026W        W52079   0.408  15.142  14.569  0.0907  0.2474 -0.2063
 9027W        W52080  16.708  31.219  20.001  0.0045  0.1329  0.0922
 9028W        W52081  27.775   2.508  10.416  0.2340  0.0360 -0.4649
 9029W        W52082  12.308  26.191  21.606 -0.0024  0.0751 -0.2368
 9030W        W52083  23.759  31.617  17.829 -0.1414  0.0417  0.0245
 9031W        W52084  10.159  33.575  19.916 -0.2015 -0.2299  0.0174
 9032W        W52085  33.295  27.116  21.448  0.0217  0.1714  0.0813
 9033W        W52086  27.837  26.762  17.171 -0.3511  0.1914  0.0532
 9034W        W52087  30.327  12.898   2.490  0.1506  0.0110  0.0205
 9035W        W52088  27.875  30.926  25.433  0.0691 -0.0991  0.0004
 9036W        W52089   1.352  26.159  19.769  0.3023  0.1077  0.0090
 9037W        W52090  22.919  21.891  26.341  0.1093  0.1816  0.0061
 9038W        W52091  22.857  24.837  19.252 -0.0874 -0.0507  0.0699
 9039W        W52092  19.494  25.934  17.224 -0.0982  0.0127 -0.1356
 9040W        W52093  21.380  17.904   3.363  0.0813  0.2064  0.0631
 9041W        W52094  19.371  17.805  27.405  0.1226  0.0821  0.1908
 9042W        W52095  34.517  34.050  19.855  0.3265  0.0849 -0.0758
 9043W        W52096  10.830  11.311  22.709 -0.3560  0.0754  0.3169
 9044W        W52097   2.327   2.174  13.695 -0.0536 -0.0424 -0.0984
 9045W        W52098  23.058  25.653  16.191  0.1525  0.2797  0.2240
 9046W        W52099  15.505  24.603  17.249 -0.1778  0.3214  0.0107
 9047W        W52100  15.593  33.381  14.351  0.0092 -0.0704 -0.1746
 9048W        W52101  34.069  31.110  14.419  0.1372 -0.0261 -0.0857
 9049W        W52102  13.476  10.500  19.292 -0.2726  0.1302 -0.0988
 9050W        W52103  31.271  26.098  26.736  0.1288 -0.0799 -0.2139
 9051W        W52104  33.638  25.366  18.734  0.0639 -0.1589 -0.1234
 9052W        W52105  22.584  10.358  18.395  0.0161  0.1556 -0.2528
 9053W        W52106  32.152  17.919  19.228  0.0969 -0.2202  0.1042
 9054W        W52107  29.199   4.177  26.064 -0.3281  0.1626  0.1040
 9055W        W52108  18.728   4.131  24.301  0.1645 -0.2056 -0.1338
 9056W        W52109  30.114   6.442  17.402 -0.2124  0.0516  0.2815
 9057W        W52110   0.790  28.339  18.900 -0.0458 -0.0299 -0.0734
 9058W        W52111  16.174  10.656   5.399  0.3709 -0.0140  0.0706
 9059W        W52112  14.139  29.792  20.128  0.2184 -0.2724  0.1179
 9060W        W52113  32.382  21.884  17.628 -0.5552 -0.1250  0.0041
 9061W        W52114  12.283  26.925  16.375  0.0760  0.1738  0.3085
 9062W        W52115  24.679  30.046  27.964 -0.0661  0.0437 -0.1220
 9063W        W52116  30.117  17.975  18.686 -0.0989  0.1779 -0.1220
 9064W        W52117  23.709  30.040  23.080  0.0294  0.1742 -0.3803
 9065W        W52118  12.133  18.541  17.115  0.0682  0.2790  0.1384
 9066W        W52119  17.995  22.341  23.556 -0.1605 -0.3724  0.1062
 9067W        W52120  30.108  22.360  21.787  0.1794 -0.2718 -0.1603
 9068W        W52121  15.618   3.553  22.238  0.1045  0.1059 -0.0196
 9069W        W52122  12.202  11.872  24.467  0.2540  0.5173 -0.1754
 9070W        W52123   0.842  12.549  21.152  0.4264  0.1657  0.1980
 9071W        W52124  20.354  25.679  17.271 -0.0252  0.0414  0.2020
 9072W        W52125  13.685  32.628  15.247  0.1360  0.0678 -0.0412
 9073W        W52126  30.041  27.813  17.335  0.0036 -0.0169  0.0727
 9074W        W52127  31.931  14.445   2.873  0.2355  0.0541 -0.2911
 9075W        W52128  24.708   7.225  18.754 -0.3968  0.3647  0.0316
 9076W        W52129  19.333  28.396  23.785 -0.0606  0.1805  0.3069
 9077W        W52130  28.847  25.851  28.335 -0.2127 -0.3680  0.2607
 9078W        W52131  30.791  32.482  18.092  0.0604 -0.0214 -0.1965
 9079W        W52132  28.625  33.122  17.516 -0.0908 -0.1790 -0.3500
 9080W        W52133  22.639  28.171  14.727  0.0666  0.0031 -0.1835
 9081W        W52134   5.833  34.100  25.221  0.1099 -0.2577  0.0112
 9082W        W52135  23.952  27.367  19.550  0.1658  0.1323  0.2499
 9083W        W52136  26.742   3.905   4.125  0.2513  0.1734 -0.0437
 9084W        W52137  12.618  20.193  27.408 -0.1808 -0.0975 -0.2081
 9085W        W52138  28.485  24.602  21.508  0.2883  0.2925 -0.1554
 9086W        W52139  31.052  16.293   7.112 -0.0684  0.0549  0.0025
 9087W        W52140  30.280   8.699  17.446  0.0606  0.0390 -0.0149
 9088W        W52141  31.320  32.504  20.894 -0.1115  0.0599  0.1578
 9089W        W52142  15.332  12.592  17.529  0.2800  0.1528  0.1801
 9090W        W52143  31.385  20.125   5.940  0.0648 -0.0904 -0.5331
 9091W        W52144  32.895   7.367  19.314  0.1580  0.0564  0.1203
 9092W        W52145  27.914   9.712  22.981 -0.2297 -0.1472 -0.1682
 9093W        W52146   0.697  18.060  22.069  0.1491  0.1993 -0.2461
 9094W        W52147  33.871  24.665  24.393 -0.2479 -0.2183  0.1209
 9095W        W52148  15.294  25.741  17.840 -0.1379 -0.0314 -0.1545
 9096W        W52149   2.055  24.638  17.485 -0.1008  0.0417  0.1033
 9097W        W52150  25.304  24.661  14.370 -0.1324  0.2822  0.0593
 9098W        W52151  24.268  26.985  17.200 -0.1318 -0.0356  0.0432
 9099W        W52152  21.160  25.483  14.042  0.1936  0.4274  0.1577
 9100W        W52153  33.740  32.527  12.928 -0.1514  0.1450 -0.1426
 9101W        W52154  30.267  17.708   4.501  0.0870 -0.2254  0.0649
 9102W        W52155  26.564  29.859  25.930  0.0288 -0.1591  0.1823
 9103W        W52156  19.240   4.475  28.210  0.1619 -0.0651 -0.3370
 9104W        W52157  31.368  10.651  17.140 -0.1657 -0.2714 -0.0914
 9105W        W52158  15.228  22.263  25.939 -0.0002 -0.0365  0.0210
 9106W        W52159  26.360  14.965  22.443  0.0503  0.0375  0.0767
 9107W        W52160  29.583  29.510  14.591  0.2818  0.2030 -0.0437
 9108W        W52161  26.429  21.551  21.218 -0.2611 -0.1355 -0.0520
 9109W        W52162  32.862  27.454  20.448  0.0544  0.1966 -0.3468
 9110W        W52163  24.651   3.664   5.637  0.0669  0.1363 -0.0680
 9111W        W52164   5.470  30.426  19.505 -0.2042  0.1683 -0.0121
 9112W        W52165  31.275  29.144   7.574 -0.2038  0.1737  0.2332
 9113W        W52166   3.602  14.034  26.135 -0.1979 -0.6220 -0.3084
 9114W        W52167  22.528  27.027   1.842  0.1360  0.2656  0.1192
 9115W        W52168  10.264  26.274  18.585  0.1966 -0.2236  0.0491
 9116W        W52169   2.814  21.916  27.786 -0.1048  0.2144  0.2765
 9117W        W52170  13.771  28.856   2.106 -0.0863 -0.1641 -0.2404
 9118W        W52171  20.176  30.385  23.587 -0.0488 -0.1265 -0.1531
 9119W        W52172  19.848  27.539  20.945  0.0128 -0.3009  0.2035
 9120W        W52173  30.584  17.896   4.962 -0.2091  0.0506  0.1162
 9121W        W52174  21.811  20.846  17.983 -0.0252 -0.0468 -0.0368
 9122W        W52175   9.560  28.765  28.559  0.0461 -0.1843  0.0368
 9123W        W52176  27.892  24.642  15.370  0.0792  0.3150  0.0181
 9124W        W52177   2.633  22.444  26.081 -0.0570 -0.4190 -0.2673
 9125W        W52178   6.730  19.959  22.029  0.0933  0.2652 -0.0861
 9126W        W52179  21.278  11.063  17.552  0.1039 -0.0449  0.0136
 9127W        W52180  28.910  28.965  25.296  0.0555 -0.1590 -0.1717
 9128W        W52181  15.600  27.116  15.072  0.0695  0.2094 -0.1185
 9129W        W52182   3.504  29.190  16.033 -0.2103  0.2445 -0.0035
 9130W        W52183  30.849  28.345  20.177 -0.1677  0.1578  0.2531
 9131W        W52184  30.252  28.952  14.052  0.3502 -0.0520  0.2448
 9132W        W52185  26.692  29.085  16.321 -0.2032 -0.2660  0.1524
 9133W        W52186  16.891  23.102  25.050  0.0103 -0.0736  0.0516
 9134W        W52187  27.521  32.381   3.991  0.0348  0.0556 -0.0116
 9135W        W52188  29.191  24.567  21.836  0.2977 -0.0687 -0.1723
 9136W        W52189  23.520  26.077  15.981 -0.1458 -0.1273  0.1608
 9137W        W52190  22.780  31.088  15.880 -0.3153 -0.3191  0.0772
 9138W        W52191  22.341  25.881  20.426  0.1041 -0.0612 -0.0583
 9139W        W52192   4.210  21.391  26.624  0.0805 -0.0011  0.1991
 9140W        W52193  17.033  10.342  24.673  0.1900  0.2347 -0.2037
 9141W        W52194  32.356   7.157  17.536  0.0143 -0.1646 -0.2478
 9142W        W52195  27.337  29.715   1.904  0.1555  0.0475 -0.0413
 9143W        W52196   9.788  21.253  19.793 -0.2260  0.1465 -0.0650
 9144W        W52197  25.184   0.616  17.877  0.3400  0.1206 -0.4375
 9145W        W52198  27.228   0.944  15.167 -0.0848  0.2221  0.0374
 9146W        W52199  24.891  32.417  17.340 -0.3127  0.0430 -0.0761
 9147W        W52200  22.697  29.668  29.083  0.0977  0.1276 -0.0347
 9148W        W52201  30.018   1.591  19.291  0.1084 -0.0842 -0.1651
 9149W        W52202  14.924  24.605  27.017 -0.4329 -0.0341  0.0826
 9150W        W52203  25.828  29.489  25.477 -0.0885 -0.3075 -0.2796
 9151W        W52204  18.931  31.889  21.780 -0.0974 -0.1485  0.0699
 9152W        W52205  31.912  21.564  17.487  0.1662  0.3128 -0.0840
 9153W        W52206  21.170   1.138  25.830  0.0468 -0.1029  0.2025
 9154W        W52207  31.118  26.243  15.652  0.3262 -0.1390 -0.2133
 9155W        W52208  33.803  25.453   3.266 -0.0318 -0.2377 -0.0063
 9156W        W52209  29.761  18.932  25.334 -0.2968 -0.0874  0.2335
 9157W        W52210  17.740  18.153  14.970  0.1213  0.0934  0.0598
 9158W        W52211  26.320  28.016  20.793 -0.1125  0.0346  0.2009
 9159W        W52212  31.827   9.641  28.352  0.0600  0.0437  0.3286
 9160W        W52213  23.873  26.494  22.961  0.1751 -0.3840 -0.0137
 9161W        W52214  18.002  29.513  19.065 -0.0324  0.0218  0.1246
 9162W        W52215   5.711  28.311  22.875  0.1243 -0.0843 -0.3657
 9163W        W52216  27.860  23.948  16.036 -0.0193  0.1281 -0.0456
 9164W        W52217  19.182   7.318  18.562  0.1045 -0.1935 -0.1900
 9165W        W52218   8.112  16.047  15.363 -0.3210 -0.0538  0.2170
 9166W        W52219  28.438  15.262   3.041  0.0653  0.2445 -0.3435
 9167W        W52220  13.666  17.933  14.695 -0.1078  0.0033  0.0369
 9168W        W52221  17.706  11.843  21.886  0.0718  0.0063  0.0332
 9169W        W52222  34.303  30.075   0.249 -0.1060  0.1478 -0.1121
 9170W        W52223  12.059  13.602  23.368 -0.0315 -0.2322 -0.1929
 9171W        W52224  13.197   8.275   6.478  0.0711 -0.0949 -0.0369
 9172W        W52225  29.408  24.801  23.396 -0.1320  0.1530  0.0874
 9173W        W52226  24.689  18.377  23.088 -0.0662 -0.1369  0.0378
 9174W        W52227  28.644  27.932  19.874 -0.0033 -0.0375 -0.1825
 9175W        W52228  17.638  30.207  25.004 -0.2510  0.0513  0.0751
 9176W        W52229  17.262  26.632  24.344 -0.0956 -0.1307 -0.1210
 9177W        W52230  24.425   0.640   2.672  0.0906  0.0266 -0.1748
 9178W        W52231  23.122  27.344   7.732  0.0792 -0.2160 -0.1169
 9179W        W52232   5.834  16.257  17.007 -0.3217  0.0444  0.1835
 9180W        W52233  33.227   0.384  25.833 -0.2388  0.1094  0.2236
 9181W        W52234  23.600   3.021  20.897  0.4243 -0.4775  0.3704
 9182W        W52235  15.933  20.384  23.489 -0.2518  0.2836  0.1769
 9183W        W52236  19.090  18.756   6.676  0.0783 -0.0884  0.2919
 9184W        W52237   1.741  25.291  26.349 -0.3464  0.0498  0.0490
 9185W        W52238  27.066  21.636  27.207 -0.0116 -0.1790 -0.0116
 9186W        W52239  21.294  33.050   0.778  0.2252 -0.0102  0.2612
 9187W        W52240  21.481  14.322  21.739  0.4271 -0.2066  0.0352
 9188W        W52241   3.305  19.183  17.565 -0.2220 -0.1857  0.0912
 9189W        W52242  19.408  25.294  22.952  0.2264 -0.2269 -0.4410
 9190W        W52243  18.539  28.107  24.717  0.2169 -0.1816 -0.1167
 9191W        W52244  24.360  27.310   6.409 -0.1126  0.0311 -0.4849
 9192W        W52245  25.894  25.577  24.097 -0.3453 -0.2430 -0.1769
 9193W        W52246  28.441  20.376   3.500  0.1086  0.0967 -0.2642
 9194W        W52247   9.357  11.438   9.485 -0.1430 -0.2257  0.0902
 9195W        W52248  14.155   2.323  26.582 -0.2423  0.0415 -0.0301
 9196W        W52249  29.192  33.514  13.947 -0.1407 -0.2154 -0.0507
 9197W        W52250  11.353  29.384  28.247  0.0388 -0.2251 -0.3785
 9198W        W52251   1.500   3.404  18.054  0.1560 -0.0336 -0.3132
 9199W        W52252   9.501   8.969  19.356  0.0526  0.1359 -0.1472
 9200W        W52253  10.838  13.731  15.998  0.2187  0.1869 -0.0119
 9201W        W52254   8.272  20.201  28.951 -0.0795 -0.0299  0.1180
 9202W        W52255   7.975  14.140  26.468 -0.2839 -0.0826  0.1035
 9203W        W52256   9.966  21.095   2.711  0.1213  0.1097 -0.1382
 9204W        W52257   4.311  19.136   5.942  0.1892  0.0517  0.0450
 9205W        W52258  30.658  20.174  14.651 -0.0870 -0.1279  0.4254
 9206W        W52259  23.196   3.286   6.746 -0.0934 -0.2315  0.2266
 9207W        W52260  15.919  14.462   3.348 -0.3661  0.2673  0.3118
 9208W        W52261  28.270  10.154  18.473 -0.0420  0.0851 -0.0828
 9209W        W52262   4.671  33.983   1.869 -0.2126 -0.0057 -0.1157
 9210W        W52263  11.556  26.461  23.295  0.2457 -0.1514 -0.0210
 9211W        W52264  24.105  26.975   0.130  0.0659 -0.1980 -0.1684
 9212W        W52265  14.685  21.792   7.288 -0.2271  0.2205 -0.1606
 9213W        W52266  17.897  19.453  26.828  0.0417 -0.0534  0.1678
 9214W        W52267  22.525  24.439  16.207 -0.2188 -0.0292 -0.1738
 9215W        W52268  30.064  24.001   1.880  0.2132 -0.0808 -0.2353
 9216W        W52269  21.319  24.513   2.307 -0.2593 -0.1623  0.0696
 9217W        W52270  17.814  10.946   6.787 -0.1377  0.1300  0.0196
 9218W        W52271  10.799  18.678  19.609  0.1068 -0.0515  0.1879
 9219W        W52272  28.011  34.313   3.675  0.2143 -0.1989 -0.0120
 9220W        W52273   2.933  32.444   1.782 -0.0305  0.1200 -0.1631
 9221W        W52274  18.663  20.509  22.965 -0.0951 -0.0000 -0.2337
 9222W        W52275  18.376  21.123  29.086 -0.1297  0.0383  0.1741
 9223W        W52276  10.796   3.762  28.406  0.0813  0.1686  0.0610
 9224W        W52277  11.058  23.650   7.964 -0.1894 -0.0578 -0.1587
 9225W        W52278  30.837  22.423  17.470 -0.0085  0.1581 -0.0543
 9226W        W52279   9.892  16.802  25.426  0.2850  0.0199 -0.0548
 9227W        W52280  34.460  20.528  19.510  0.3412 -0.2309 -0.0921
 9228W        W52281  17.061  23.328  27.469 -0.1324  0.2985  0.0607
 9229W        W52282   6.648  15.223  17.462  0.1738 -0.0481  0.1396
 9230W        W52283   3.345  16.818   5.266  0.2431 -0.0279  0.2304
 9231W        W52284  33.536  22.992   9.114  0.0983  0.2832 -0.0494
 9232W        W52285   0.045  26.355  28.994  0.1003 -0.0805 -0.1012
 9233W        W52286  13.681  31.300  19.381 -0.0372 -0.1773  0.3802
 9234W        W52287   4.455  25.011  26.175  0.0101 -0.3893  0.0770
 9235W        W52288   5.481  29.795   1.770 -0.0710 -0.0842  0.1329
 9236W        W52289   0.645  18.264   2.532  0.2194 -0.0148 -0.0381
 9237W        W52290  31.352  23.278  25.567  0.1262  0.1277 -0.2930
 9238W        W52291  16.065   5.008  17.477 -0.0551  0.2115  0.0832
 9239W        W52292  31.859  26.069   5.733 -0.0716 -0.0550  0.0582
 9240W        W52293  24.341  26.298  16.777  0.0217 -0.2521 -0.1980
 9241W        W52294   0.148  26.802  25.921 -0.0371  0.0618  0.0787
 9242W        W52295  12.056  10.192  21.004 -0.2865  0.2784 -0.0205
 9243W        W52296  16.205  27.661  14.631 -0.2690 -0.1102  0.0650
 9244W        W52297  16.411  22.259  22.879 -0.2180 -0.2685  0.0577
 9245W        W52298  27.543  27.352   0.559  0.2519  0.3003 -0.3143
 9246W        W52299  33.625  34.458  17.545  0.1722  0.0137 -0.0171
 9247W        W52300  24.340  25.727  19.988 -0.1410 -0.3035  0.1267
 9248W        W52301  14.191  26.293  20.643  0.2052 -0.2787  0.0355
 9249W        W52302  28.413  23.946   6.624  0.2566 -0.0556  0.1404
 9250W        W52303  24.143  24.271  23.693  0.2114 -0.3387  0.0775
 9251W        W52304  30.137  31.022   7.558  0.1492  0.1700 -0.0147
 9252W        W52305  22.012  25.601  20.842  0.1726 -0.5207  0.2249
 9253W        W52306  17.235   7.758  24.010 -0.2817  0.0626  0.2906
 9254W        W52307  25.697   2.880  27.809  0.0547 -0.1719  0.1736
 9255W        W52308  24.306  17.486  22.672 -0.2029 -0.2514 -0.2300
 9256W        W52309   0.320   0.443  25.696 -0.3297 -0.1728  0.0583
 9257W        W52310   6.060   8.418  21.968 -0.0981  0.1257 -0.0504
 9258W        W52311  31.475  32.175  13.872  0.0954  0.0448 -0.2546
 9259W        W52312  20.015  17.680  27.286 -0.1145  0.2016 -0.3092
 9260W        W52313  30.551  14.424  15.711  0.1286 -0.1815  0.0626
 9261W        W52314  23.255  33.284  25.199 -0.1445  0.0961  0.0108
 9262W        W52315  26.563   5.468  26.987 -0.0014  0.0519  0.0568
 9263W        W52316   5.433  32.276   3.615  0.0596 -0.0809  0.0920
 9264W        W52317  23.099   7.048  24.765 -0.2290 -0.4408  0.3051
 9265W        W52318  24.682   9.421  16.564  0.1258  0.0918 -0.2486
 9266W        W52319   9.514   3.548  16.770 -0.1909  0.0978 -0.0201
 9267W        W52320  19.615  27.985  22.915  0.0159  0.3608 -0.0651
 9268W        W52321  23.464  27.999  16.922 -0.2370  0.0029  0.1807
 9269W        W52322  17.284  34.347   4.511  0.1522  0.0886 -0.0815
 9270W        W52323  17.798  34.344   1.885 -0.2791 -0.1079  0.2341
 9271W        W52324  12.574  28.983   3.212  0.1091 -0.3200  0.1678
 9272W        W52325  30.903  18.253   2.520 -0.1722 -0.2090  0.0896
 9273W        W52326   2.983  20.896  18.576  0.0034  0.0477 -0.1233
 9274W        W52327  25.594  22.367  18.715 -0.1294 -0.3010 -0.1053
 9275W        W52328  28.953  19.860  17.849  0.2232  0.1046 -0.0858
 9276W        W52329  10.376  26.464  17.306  0.1108 -0.0287  0.0332
 9277W        W52330   9.474  21.293  20.261 -0.0210  0.2070  0.0566
 9278W        W52331   9.135  18.471  20.594  0.0721 -0.2898  0.3767
 9279W        W52332  30.762  16.381  15.483 -0.2171  0.0573 -0.0912
 9280W        W52333   1.294  20.944  15.931  0.2947 -0.1319 -0.1452
 9281W        W52334  28.688   8.277  14.565  0.3000  0.0844  0.1496
 9282W        W52335  16.999  23.493  27.935  0.0629  0.0471 -0.1538
 9283W        W52336  31.747  25.654   4.355  0.0991 -0.1460 -0.2971
 9284W        W52337  29.287  19.883  27.157 -0.0187 -0.1466  0.3291
 9285W        W52338  14.045  18.011  20.679 -0.4022 -0.1773  0.0038
 9286W        W52339  15.145  22.830  22.423  0.1557  0.1503 -0.1297
 9287W        W52340   4.345  21.014  15.520  0.4061 -0.1233  0.0746
 9288W        W52341   2.670  28.064  23.304 -0.1328  0.0606  0.0353
 9289W        W52342  25.214  26.732  16.481 -0.0490  0.0053 -0.1072
 9290W        W52343  24.916  23.786  17.022  0.3186  0.0704 -0.1182
 9291W        W52344  29.915  18.419  25.241  0.0605  0.2322 -0.3141
 9292W        W52345  24.434  24.479  25.948  0.0538  0.1183 -0.2595
 9293W        W52346  33.676  26.968  23.250  0.3893 -0.6044 -0.1635
 9294W        W52347  33.979   8.222  24.154  0.0645 -0.0496  0.2202
 9295W        W52348   0.558  34.038  17.632  0.1204 -0.0621  0.1454
 9296W        W52349  22.808  21.565  16.836  0.0906 -0.0440  0.0590
 9297W        W52350  14.218  26.442  17.472 -0.2017  0.0306  0.0265
 9298W        W52351  20.858   7.427  20.988 -0.1326  0.1927 -0.0348
 9299W        W52352   3.341   0.666   5.624  0.3012  0.1475  0.3304
 9300W        W52353  15.347  26.055   2.935  0.2315 -0.0220  0.1014
 9301W        W52354  11.333  28.129  25.592  0.0186 -0.1133  0.1248
 9302W        W52355  27.298   1.409  28.740  0.4443 -0.0438 -0.1030
 9303W        W52356  33.829  33.494  23.261 -0.1503  0.2509  0.0468
 9304W        W52357  25.589   1.340  13.720 -0.0661 -0.3575 -0.1326
 9305W        W52358  25.539  13.711  16.882  0.1865  0.1213  0.1330
 9306W        W52359  25.694  33.500  16.282 -0.1332  0.2006  0.3558
 9307W        W52360  19.099  11.240  22.930  0.2397 -0.0822 -0.1798
 9308W        W52361  20.912  32.529  28.054 -0.1657  0.2528 -0.5048
 9309W        W52362  19.365  27.711  17.054 -0.1469 -0.3385 -0.0368
 9310W        W52363   4.715  33.321  18.467 -0.0025 -0.3751 -0.1072
 9311W        W52364  32.689  19.692  24.510 -0.1973 -0.0675 -0.2526
 9312W        W52365  29.815  31.931  18.696  0.1213 -0.0739  0.0632
 9313W        W52366  31.703  15.655   4.430  0.2017 -0.1104  0.0704
 9314W        W52367  23.845  24.977   5.025 -0.5186  0.0771  0.0567
 9315W        W52368  17.686  26.992   2.976  0.1124  0.2195  0.0897
 9316W        W52369  33.946  18.045  26.579  0.0197 -0.1493 -0.2758
 9317W        W52370  26.556  20.866  17.202  0.1376  0.0775  0.0059
 9318W        W52371  12.252   7.993  20.112 -0.1125  0.0431  0.1764
 9319W        W52372  16.214   9.305   0.287  0.1085 -0.1521 -0.1766
 9320W        W52373   1.185  22.712  17.603  0.3230 -0.1305  0.2760
 9321W        W52374  30.616   5.887  16.610  0.0942  0.0204  0.2252
 9322W        W52375  29.146  10.577  27.197 -0.2459 -0.1063 -0.3959
 9323W        W52376  30.685   5.879  24.619 -0.3176 -0.1628  0.0033
 9324W        W52377  22.578  18.471  15.740 -0.1741 -0.0190 -0.0440
 9325W        W52378  26.009  24.139  23.905 -0.2341 -0.0619 -0.1009
 9326W        W52379  27.830   9.324  27.848  0.1416 -0.4347 -0.1518
 9327W        W52380  24.357   1.769  25.186 -0.2673 -0.2219  0.0011
 9328W        W52381  13.500  22.428  20.855 -0.0625 -0.1309  0.1762
 9329W        W52382  30.220   1.284   4.782 -0.0028  0.1597  0.1680
 9330W        W52383  20.556  19.858  18.952 -0.0960 -0.0542 -0.1127
 9331W        W52384  22.698  23.471   0.037 -0.1637  0.1866  0.1734
 9332W        W52385   2.116  24.992  28.339  0.0805  0.1589 -0.1458
 9333W        W52386  32.654  15.188  22.185 -0.0416 -0.0721  0.1192
 9334W        W52387  22.025  31.861   2.522 -0.0718  0.0234  0.2178
 9335W        W52388  18.799   1.172  23.977 -0.0984 -0.0055 -0.0698
 9336W        W52389  29.434  17.227  22.183 -0.0959  0.1451  0.3873
 9337W        W52390  25.481  12.547  14.794  0.0270  0.2526  0.1021
 9338W        W52391  11.949  32.500  25.524 -0.5153 -0.3381  0.0501
 9339W        W52392  14.187  30.239  15.671  0.1402  0.1887 -0.2788
 9340W        W52393  15.526  14.021   9.194 -0.0200 -0.2541 -0.1379
 9341W        W52394  20.832  27.081   1.023  0.5644 -0.1388 -0.0578
 9342W        W52395  12.680  13.153   5.304 -0.0080 -0.0051  0.1244
 9343W        W52396  12.742  25.757  19.372 -0.0736 -0.1655 -0.1306
 9344W        W52397  29.187  23.631  24.185  0.1235  0.0265 -0.0866
 9345W        W52398  15.349   7.721  21.947 -0.1198 -0.0538 -0.1653
 9346W        W52399  31.090  22.606  23.723  0.1822 -0.3427  0.1540
 9347W        W52400  33.857   6.357  27.317  0.0910  0.0886  0.0214
 9348W        W52401  19.971  10.819  16.469 -0.1525 -0.3553  0.2523
 9349W        W52402  22.488  31.044  19.003  0.1106 -0.1440  0.1000
 9350W        W52403  29.515  14.765  27.353  0.2975  0.1443 -0.0844
 9351W        W52404   3.626  29.929  27.858  0.1951  0.2409  0.0364
 9352W        W52405  25.840  21.040  14.768  0.2663 -0.2253  0.4203
 9353W        W52406  25.748  34.478  22.775  0.0988 -0.1913 -0.2694
 9354W        W52407   9.298  24.800  28.106  0.0705  0.0096 -0.2321
 9355W        W52408  11.146  19.598  13.926 -0.0443 -0.1755 -0.3180
 9356W        W52409  28.230  20.351   6.910 -0.0933 -0.0315 -0.2354
 9357W        W52410  18.203   4.914  10.302 -0.4870  0.0535 -0.0083
 9358W        W52411  17.436  29.097  27.706  0.1107  0.0333 -0.0972
 9359W        W52412  26.377  31.352  21.409  0.1636  0.0592 -0.0479
 9360W        W52413  30.699  15.151  28.716  0.1183  0.1152 -0.3453
 9361W        W52414  31.943  12.497   2.434 -0.0125 -0.0798  0.0421
 9362W        W52415  26.976  25.353  20.120 -0.3107  0.0472  0.1110
 9363W        W52416  12.113  13.155  20.178  0.3537 -0.0043  0.2375
 9364W        W52417  18.182  17.407  25.910 -0.0114  0.3154  0.4293
 9365W        W52418  18.826   9.988  16.035 -0.1880  0.0548  0.1067
 9366W        W52419  12.310  24.820   5.968 -0.1409  0.1616  0.2319
 9367W        W52420  13.245   8.306   0.112 -0.3450 -0.0237  0.3757
 9368W        W52421  16.444  19.854   3.423  0.0750  0.3013 -0.3282
 9369W        W52422  30.285  30.258  25.381 -0.2174  0.0553 -0.2139
 9370W        W52423  29.090  19.155   8.243 -0.1234 -0.1876  0.1448
 9371W        W52424  10.873  15.876  10.030  0.1972  0.1451 -0.1407
 9372W        W52425  30.910  17.458  23.098  0.0318  0.0803 -0.1147
 9373W        W52426  14.349  22.813  21.950 -0.1015  0.5187  0.1145
 9374W        W52427  14.244   1.751   3.817  0.0664 -0.0411 -0.0788
 9375W        W52428  28.558  23.091  28.899 -0.1894  0.0279 -0.1072
 9376W        W52429  22.468  16.207  29.087  0.0588 -0.0216  0.2841
 9377W        W52430  31.738  26.417  15.497  0.2612  0.1680 -0.1924
 9378W        W52431  15.811  18.142  28.671 -0.1375  0.1417 -0.1822
 9379W        W52432  22.225  26.093  20.935  0.1097  0.0185  0.1176
 9380W        W52433   6.385   5.934   6.556  0.1095 -0.2807 -0.1306
 9381W        W52434  14.337  11.801  16.498  0.2037 -0.0087 -0.0045
 9382W        W52435  23.641  30.564  26.029  0.2723  0.1642 -0.1482
 9383W        W52436  21.761  19.094   3.122  0.0800 -0.2870  0.0640
 9384W        W52437   3.409  22.986  16.225  0.0069 -0.0953  0.1404
 9385W        W52438  32.917  14.602  20.985 -0.2193 -0.2381 -0.0580
 9386W        W52439  20.777   9.526   5.866 -0.0425  0.0036 -0.0246
 9387W        W52440  23.677  25.724  19.387 -0.0856 -0.2053  0.1691
 9388W        W52441  20.773  23.979  18.536  0.0742 -0.1097  0.1224
 9389W        W52442  26.176  17.293  28.559  0.1717  0.2083  0.0251
 9390W        W52443  32.743  24.604  19.986 -0.0889  0.1704 -0.0752
 9391W        W52444   2.292   8.097   7.512  0.1329 -0.1474  0.0845
 9392W        W52445  17.132  22.532   1.688 -0.1474  0.0120 -0.0778
 9393W        W52446  18.851  26.662  26.976 -0.1586 -0.1491 -0.0717
 9394W        W52447  28.057   9.869  24.135 -0.1852  0.3253  0.0022
 9395W        W52448  23.012  24.910   8.670 -0.0765  0.2150 -0.0597
 9396W        W52449  29.051   3.464  18.983  0.0746  0.0633  0.1199
 9397W        W52450   6.618  14.281  24.015 -0.1649 -0.0231 -0.1338
 9398W        W52451  21.352  13.063   4.829 -0.3207 -0.4659  0.1299
 9399W        W52452  27.586   8.650  16.998  0.0194 -0.1252 -0.0585
 9400W        W52453  21.745  24.913   1.659  0.1806 -0.0382 -0.2722
 9401W        W52454  18.882  12.291  14.609  0.4401  0.1222  0.0193
 9402W        W52455   8.606  23.972   5.714  0.0881  0.0469  0.0353
 9403W        W52456  29.453  33.105  22.531  0.0114  0.1668 -0.1487
 9404W        W52457  33.994  18.275  22.057  0.1237  0.0442  0.0739
 9405W        W52458   3.314  24.658  13.975  0.0390 -0.0222  0.0772
 9406W        W52459  25.916  26.505   4.142  0.0014  0.0858 -0.0730
 9407W        W52460  21.042   4.869  22.598  0.0052  0.0971 -0.0072
 9408W        W52461   1.328  27.436  13.735 -0.2907 -0.0761 -0.3112
 9409W        W52462  22.135  12.172  17.967  0.0352 -0.2740  0.0975
 9410W        W52463  23.907   0.488  17.100  0.2102 -0.2398  0.0018
 9411W        W52464  26.843  29.693  14.986  0.0802  0.0682  0.0252
 9412W        W52465  28.194  25.631  18.196 -0.1177  0.2073  0.1791
 9413W        W52466   1.384  26.417   1.422  0.0162  0.0418  0.1304
 9414W        W52467  19.634  15.606  25.465  0.1028 -0.0818 -0.0198
 9415W        W52468   4.357  27.248  22.768 -0.1884 -0.1187  0.2887
 9416W        W52469  32.315   9.762   0.991  0.2800 -0.0128 -0.2866
 9417W        W52470  25.637  21.078  19.269 -0.1254  0.0657 -0.0653
 9418W        W52471   2.069   6.249  17.399 -0.1307  0.0995  0.0441
 9419W        W52472  19.008   6.567   8.116 -0.2153  0.1572  0.0277
 9420W        W52473   3.287  30.689  17.917  0.0087  0.2750  0.1772
 9421W        W52474  19.681  19.053  14.750  0.2161  0.2432 -0.0603
 9422W        W52475  28.183  23.440  28.181 -0.0827  0.1220 -0.4085
 9423W        W52476  23.238  34.120  17.261  0.1784  0.3145 -0.0385
 9424W        W52477   4.907  17.259  29.141 -0.3193 -0.1270  0.0725
 9425W        W52478  34.409  17.951  15.898  0.2627  0.0438  0.1570
 9426W        W52479  17.653  17.494  13.672  0.0798  0.1941  0.2180
 9427W        W52480  32.805  30.288  27.478 -0.0829  0.2390  0.2555
 9428W        W52481  22.601  22.939  14.300 -0.2017  0.0597  0.0042
 9429W        W52482  13.014  29.947  15.246  0.1555 -0.4806  0.1394
 9430W        W52483  32.680  33.994   2.838  0.0491  0.0026 -0.0279
 9431W        W52484   0.062  23.163   5.288 -0.1027  0.0706 -0.1257
 9432W        W52485  32.763   9.127   5.494  0.2261 -0.1552 -0.1632
 9433W        W52486  29.834  17.319  17.437  0.3368 -0.0113  0.0348
 9434W        W52487  32.600  14.003  23.295  0.4983  0.1309  0.0119
 9435W        W52488  29.659  23.105   3.189 -0.0490  0.1591 -0.0274
 9436W        W52489   9.617  24.034  13.212  0.2028  0.1421  0.0303
 9437W        W52490   1.430   5.186   5.369  0.0327  0.2444 -0.2714
 9438W        W52491  15.377   6.403   3.088  0.0075  0.3573 -0.2171
 9439W        W52492  25.483  17.014   1.396  0.2927 -0.0246  0.0368
 9440W        W52493  18.924  29.567  15.673 -0.0647 -0.2215  0.1269
 9441W        W52494  32.250   0.108  19.863 -0.0512 -0.2241  0.3186
 9442W        W52495  33.542  18.301  15.431 -0.1735  0.1465  0.1934
 9443W        W52496  31.844  23.965  14.335 -0.1403 -0.1806 -0.0586
 9444W        W52497  25.705   5.558  22.758 -0.1833 -0.0443 -0.0881
 9445W        W52498  34.676  29.420  28.346  0.0304 -0.1885 -0.2211
 9446W        W52499  11.224  25.786  18.787  0.2165 -0.2116 -0.2935
 9447W        W52500  27.636  16.727  14.122  0.1067 -0.2944  0.0599
 9448W        W52501  18.015  15.434  22.210  0.0289 -0.0474  0.0353
 9449W        W52502  11.173  24.670  16.589 -0.2240  0.0102  0.0260
 9450W        W52503   8.234  29.270  21.811 -0.0799 -0.5289 -0.0504
 9451W        W52504  23.601  26.397  24.584  0.1195  0.0637 -0.3077
 9452W        W52505  31.674  15.727  17.702  0.1213  0.0967 -0.2288
 9453W        W52506  18.873  27.855   6.948 -0.0920  0.0549  0.1134
 9454W        W52507  14.799  27.872  15.366  0.0366  0.2316 -0.1937
 9455W        W52508   1.832   0.853  18.132 -0.1278 -0.0230 -0.1126
 9456W        W52509  31.186  29.780  22.085 -0.1939  0.1837  0.0924
 9457W        W52510  23.381  19.682  18.532  0.0648  0.1005 -0.0345
 9458W        W52511  31.422  24.395  26.544 -0.0304 -0.0027  0.1955
 9459W        W52512  17.628  25.645  20.659  0.1038 -0.0894 -0.1662
 9460W        W52513   3.571  32.779  18.490 -0.1931  0.2543 -0.2684
 9461W        W52514  30.176   4.720  18.821 -0.2354  0.0001 -0.0721
 9462W        W52515  29.825  34.073   4.909 -0.3853  0.0966 -0.4190
 9463W        W52516   7.797  18.040   5.764  0.2552  0.0084 -0.1702
 9464W        W52517  32.663  23.021  24.026 -0.0266 -0.0709 -0.0320
 9465W        W52518   6.473   3.008  15.056  0.0355  0.1678  0.0332
 9466W        W52519  21.476  26.946  22.630 -0.1047 -0.0653 -0.1737
 9467W        W52520  32.377   2.469   1.200  0.0717 -0.0700  0.0349
 9468W        W52521  34.201  25.487  27.053  0.2352  0.2733 -0.0376
 9469W        W52522   9.400  15.806  15.929 -0.0391  0.1110 -0.4790
 9470W        W52523   9.688  30.052  24.150 -0.0315  0.1137  0.0644
 9471W        W52524  30.736  22.167   0.807 -0.1893 -0.3222  0.1101
 9472W        W52525  18.751   5.978  24.890  0.3990  0.3467  0.2271
 9473W        W52526   8.022  21.359  17.624 -0.0174 -0.2150  0.0386
 9474W        W52527  33.022   8.725  16.668  0.1277  0.1696 -0.2284
 9475W        W52528   9.496  23.421  23.365 -0.3031  0.3732  0.0132
 9476W        W52529  28.762  29.053   0.363 -0.2132 -0.0795  0.1401
 9477W        W52530  14.308  22.205  17.554  0.1573 -0.0794 -0.2527
 9478W        W52531  32.668  23.423  14.825  0.0952 -0.1904  0.1672
 9479W        W52532  11.966  21.202  27.940  0.0940  0.0816  0.0404
 9480W        W52533  23.985  18.883  19.861  0.0712  0.2874 -0.2636
 9481W        W52534  25.417  16.454  16.556  0.0254  0.0393  0.0348
 9482W        W52535  10.019  32.169  19.510 -0.2737 -0.2879 -0.0973
 9483W        W52536  23.314   1.355  28.942 -0.0312 -0.0408  0.1229
 9484W        W52537  22.698   3.607   4.834  0.1125  0.1912 -0.0220
 9485W        W52538  12.635  24.362  20.042  0.0028 -0.0382  0.1354
 9486W        W52539  32.242  26.726   4.230  0.3581  0.1643  0.1788
 9487W        W52540  18.162  20.757   1.084 -0.1698 -0.0317 -0.3371
 9488W        W52541  30.160  22.265  15.696  0.0475  0.2376  0.0789
 9489W        W52542   4.920  29.893   0.636  0.1089 -0.0598  0.2981
 9490W        W52543  16.213  15.464   7.530 -0.1871 -0.1388  0.0617
 9491W        W52544  27.789  32.120  18.040  0.0879 -0.1234  0.2964
 9492W        W52545  22.568   7.175  24.322  0.1011 -0.2951 -0.3373
 9493W        W52546  23.310  24.495  25.494 -0.1820  0.0169 -0.0594
 9494W        W52547  30.217  25.552   6.624  0.3344  0.0960  0.1484
 9495W        W52548  32.042  30.410  23.991  0.2440 -0.1590 -0.2782
 9496W        W52549  25.408  25.179  24.846  0.1215  0.4216  0.2256
 9497W        W52550  30.588  26.055   3.883  0.1181  0.0687  0.0098
 9498W        W52551  16.613  10.743  13.963 -0.4705  0.2870 -0.1125
 9499W        W52552  16.783   2.570   6.265 -0.1247 -0.1316 -0.5840
 9500W        W52553  32.274  11.408  22.921 -0.0318  0.1714 -0.0110
 9501W        W52554  31.375  34.023  29.091  0.1688  0.1598 -0.2399
 9502W        W52555  21.695   0.721  19.868 -0.0596 -0.0523  0.1352
 9503W        W52556  28.262  23.035   3.184  0.2226  0.4480 -0.0045
 9504W        W52557  21.085  11.814  22.373  0.0430 -0.0560  0.2622
 9505W        W52558  14.305   7.662   6.516  0.2256  0.0305 -0.0520
 9506W        W52559  26.421   9.338  17.306 -0.0892  0.2988  0.1828
 9507W        W52560  14.259  28.122   3.597 -0.0533 -0.3338 -0.1526
 9508W        W52561  18.771  27.833  17.014 -0.0761  0.1827 -0.2336
 9509W        W52562  20.042  32.789  15.034  0.2782 -0.2013 -0.1510
 9510W        W52563  24.353  32.714  15.433  0.0752  0.2556  0.0734
 9511W        W52564  13.424  22.370  15.769 -0.1190  0.2132 -0.1524
 9512W        W52565  19.087  34.244   1.531 -0.0781  0.0094 -0.1922
 9513W        W52566  25.295  30.926  25.659  0.1078 -0.0266 -0.1846
 9514W        W52567  17.425   4.223  17.168  0.2758  0.0953 -0.1167
 9515W        W52568  30.246   4.228  23.709 -0.1408  0.2672  0.0644
 9516W        W52569   3.288  30.569  20.092  0.1301  0.2527 -0.2764
 9517W        W52570   0.992  25.925   3.277 -0.0515  0.0380  0.2629
 9518W        W52571  10.617  17.805   1.284 -0.1238 -0.1337 -0.1658
 9519W        W52572  23.830  29.475   7.379  0.0956 -0.2364 -0.0268
 9520W        W52573  14.277  19.223  16.486 -0.0652  0.1185  0.0409
 9521W        W52574  34.138  16.179   1.512 -0.0408  0.0567  0.2328
 9522W        W52575   4.305   9.295  25.067  0.0571 -0.2477 -0.1529
 9523W        W52576   6.563  10.566   6.101  0.1433  0.0505  0.4997
 9524W        W52577  28.386  20.063  22.578  0.2752 -0.0435 -0.2890
 9525W        W52578  23.726  22.296  28.838  0.0866  0.2022 -0.0770
 9526W        W52579  29.879  33.811   4.088 -0.0080  0.1353 -0.0951
 9527W        W52580  32.004   7.716   3.238 -0.1642 -0.1459 -0.1672
 9528W        W52581  20.020  13.983  21.760  0.1804  0.1759 -0.0629
 9529W        W52582   5.207   0.348   3.911 -0.2372 -0.0263 -0.1684
 9530W        W52583   5.845  10.109  18.906 -0.1383 -0.0606 -0.4822
 9531W        W52584   9.367  32.498  17.058  0.2349 -0.0646 -0.0715
 9532W        W52585   2.998  26.345  27.042  0.0423 -0.0389  0.1267
 9533W        W52586   9.312  10.628   0.714  0.0647 -0.2677  0.0638
 9534W        W52587  25.847   0.906  15.233  0.0186 -0.3419 -0.1888
 9535W        W52588  33.370  25.270  26.602  0.0840 -0.3324 -0.3230
 9536W        W52589  12.123  20.812  15.543 -0.0647 -0.1669  0.0430
 9537W        W52590  31.625  30.883  25.521  0.2991 -0.0980 -0.1066
 9538W        W52591   2.539  26.488  15.504  0.2093 -0.3755 -0.0330
 9539W        W52592  21.544  13.330  17.120 -0.1328  0.1687  0.2438
 9540W        W52593  24.216  21.144   8.915 -0.1557 -0.0503  0.2597
 9541W        W52594  30.759  21.891  15.257  0.0961  0.1287 -0.0601
 9542W        W52595  28.277  10.136  26.199  0.2950  0.0250  0.0364
 9543W        W52596   7.878   0.984  27.647  0.0076 -0.1118  0.1272
 9544W        W52597   1.719   2.641  23.524 -0.1323 -0.0800  0.2419
 9545W        W52598  18.729  20.211   9.215  0.0038  0.0572 -0.0848
 9546W        W52599  22.261  32.680  25.470  0.1646  0.1053  0.0890
 9547W        W52600   2.250  21.745   9.556 -0.2004 -0.0204  0.0280
 9548W        W52601   8.345   1.040  21.098  0.1489 -0.1693  0.1596
 9549W        W52602  21.145  13.485  18.471  0.1461  0.0924 -0.2712
 9550W        W52603  18.071  21.939  20.196  0.0395 -0.1600  0.1196
 9551W        W52604  23.715  26.631  26.078 -0.1942  0.1157 -0.0025
 9552W        W52605  31.069  28.952  24.515  0.1484  0.1203 -0.0424
 9553W        W52606  18.212  17.458  14.968  0.2536 -0.1418  0.0516
 9554W        W52607  18.163  27.026  16.116  0.1200  0.1676  0.4223
 9555W        W52608  27.201  28.074  20.446  0.0451 -0.1987  0.1550
 9556W        W52609  31.072   4.639  20.861  0.0039 -0.2299 -0.1900
 9557W        W52610  34.213  18.166  17.125  0.1908 -0.0384  0.4578
 9558W        W52611   1.349  22.427  12.970 -0.1438 -0.1142  0.2948
 9559W        W52612   8.293  21.226  20.041 -0.1937 -0.1798  0.0024
 9560W        W52613   9.138  11.976  18.054 -0.1406  0.0139 -0.0676
 9561W        W52614  34.603   6.977  24.996  0.1428  0.1435 -0.0820
 9562W        W52615  13.302  19.244   9.141 -0.0840 -0.2281  0.0996
 9563W        W52616  11.637   9.768  16.750 -0.1292  0.0167  0.0321
 9564W        W52617  16.334  31.995   3.854 -0.0472  0.0493  0.2183
 9565W        W52618  25.587  15.939  18.900 -0.3310  0.0616 -0.0505
 9566W        W52619  14.769  27.620  17.018  0.4178 -0.0480  0.0885
 9567W        W52620   5.464   1.761   4.284  0.1293  0.0364 -0.1695
 9568W        W52621  33.700  31.539   5.291  0.0111 -0.1268  0.0570
 9569W        W52622  17.851  16.330  13.749  0.1245  0.0315  0.0293
 9570W        W52623  28.150  20.614  25.259 -0.2026  0.1312 -0.1200
 9571W        W52624  25.026  32.748  16.528  0.0474 -0.1426 -0.4928
 9572W        W52625  32.756   4.546   1.632 -0.0155 -0.0122  0.1704
 9573W        W52626  26.109  32.187   0.413  0.3428 -0.0466  0.1549
 9574W        W52627  22.431  24.751  27.832  0.1593  0.3293 -0.0167
 9575W        W52628  25.346  32.146  22.877  0.2327  0.0314 -0.2019
 9576W        W52629  28.363  33.683  20.219 -0.2015  0.1821 -0.0406
 9577W        W52630  22.212   0.360  13.608  0.3315  0.0557  0.1961
 9578W        W52631  28.587   8.590   6.301 -0.3783 -0.1441  0.2108
 9579W        W52632  25.323  22.173   3.531 -0.1038  0.4469  0.0407
 9580W        W52633   1.674  20.759  15.004 -0.0037 -0.4088 -0.1168
 9581W        W52634   8.894  25.045  23.666  0.3140  0.0674  0.0806
 9582W        W52635  25.246   3.683   2.671  0.0084  0.0145 -0.0548
 9583W        W52636  19.644  15.880   7.203  0.1377 -0.1680 -0.0006
 9584W        W52637  29.789  26.880  22.019 -0.0359  0.0712  0.0584
 9585W        W52638  22.189  33.919  16.235  0.1237  0.4274 -0.1964
 9586W        W52639  10.443   4.333   2.916  0.0170 -0.3986 -0.3968
 9587W        W52640  13.023  33.304   1.258 -0.1406 -0.0170 -0.2345
 9588W        W52641  30.828  20.176  24.967  0.1239  0.0687 -0.0345
 9589W        W52642  19.360  14.928   6.651  0.1997  0.1159  0.1530
 9590W        W52643  31.992  10.697   3.676 -0.1144  0.2822  0.0570
 9591W        W52644  23.459  16.998  17.839  0.0490  0.3824 -0.1985
 9592W        W52645   1.036  19.104  15.526  0.2699 -0.1168 -0.0535
 9593W        W52646  20.891  21.594  21.598  0.2317  0.1407  0.1141
 9594W        W52647   6.451  32.417  24.107 -0.1433 -0.0903  0.1718
 9595W        W52648   1.306   6.181  22.502 -0.4085  0.4404  0.0882
 9596W        W52649  15.037  15.362  16.202 -0.1082 -0.1160  0.2316
 9597W        W52650  10.392   5.402  28.146 -0.3070 -0.3928 -0.0470
 9598W        W52651  17.059  12.090   0.155  0.0055  0.3822  0.1441
 9599W        W52652  12.259  10.732  25.804 -0.4401 -0.2899  0.0420
 9600W        W52653   2.027  24.232   1.558 -0.0962  0.2471  0.3624
 9601W        W52654  34.484  33.340  26.499 -0.1082 -0.2857  0.0945
 9602W        W52655  29.089  32.349   0.059  0.0698  0.2322  0.0527
 9603W        W52656  27.115  26.992  28.038 -0.3839  0.2504  0.2166
 9604W        W52657  26.824  34.296  28.634  0.1178 -0.1136 -0.0408
 9605W        W52658  11.014  26.722   7.646  0.2418 -0.2599  0.1224
 9606W        W52659  17.504  22.328  24.412 -0.1750 -0.4366 -0.1113
 9607W        W52660   6.804  18.949  18.003 -0.1412 -0.2816  0.0350
 9608W        W52661  23.808  25.069  20.176 -0.0555 -0.0786  0.0450
 9609W        W52662  14.761  23.941  27.768 -0.1659  0.0927 -0.0678
 9610W        W52663  18.165  11.824  18.873 -0.0684  0.1519  0.0387
 9611W        W52664  20.560   4.135   7.083  0.2589 -0.2347 -0.0131
 9612W        W52665  28.925  24.773   8.561 -0.2650 -0.2213 -0.0777
 9613W        W52666  22.676  12.147   7.058 -0.0087 -0.1921  0.2740
 9614W        W52667  26.208  23.705  24.142  0.1211 -0.1449  0.2966
 9615W        W52668  32.818  26.070  23.701 -0.0105 -0.0931  0.0262
 9616W        W52669  29.284   2.554  28.084 -0.0028 -0.0002 -0.1743
 9617W        W52670  20.283  16.622  24.557 -0.2498 -0.2950 -0.2229
 9618W        W52671  25.627  20.642   4.712 -0.0891 -0.2125 -0.1961
 9619W        W52672  19.834   6.203  25.898  0.1496  0.0105  0.0911
 9620W        W52673  22.025  20.677  26.306  0.0045  0.2305 -0.0006
 9621W        W52674   4.447   1.168   2.835 -0.2799  0.1760 -0.1308
 9622W        W52675   1.221  30.132   3.028  0.1806 -0.1264  0.2161
 9623W        W52676   0.682  25.401  28.366 -0.0353 -0.3392  0.1985
 9624W        W52677  13.323   8.152  15.138 -0.1423  0.1725 -0.0753
 9625W        W52678  33.349  22.983  28.127 -0.0657  0.0479  0.3095
 9626W        W52679  29.381  26.791   4.037 -0.2511  0.2292  0.3618
 9627W        W52680  17.314  20.254  14.815  0.1597 -0.2289  0.1405
 9628W        W52681  16.549  30.458   3.708  0.1983 -0.1723 -0.1842
 9629W        W52682  32.582  31.614   2.782 -0.2985 -0.1295  0.1402
 9630W        W52683  15.790  16.384   0.380 -0.3304 -0.1802  0.1083
 9631W        W52684  19.685  28.910   4.058 -0.3075 -0.0222 -0.0725
 9632W        W52685  21.866   1.838   8.716 -0.0986  0.1040 -0.0531
 9633W        W52686  31.908  29.570   0.568 -0.0674  0.2042 -0.1754
 9634W        W52687  10.416   6.203  15.920  0.0476  0.0703 -0.1104
 9635W        W52688  20.784  24.794  20.147 -0.1468  0.1426 -0.0340
 9636W        W52689  24.735  23.483  22.534 -0.1362 -0.0366  0.2016
 9637W        W52690  29.119  30.606   2.692 -0.1283  0.0867 -0.0174
 9638W        W52691  32.178  26.952  19.950 -0.1571 -0.1897  0.0087
 9639W        W52692   8.883  30.523   1.558 -0.1617  0.3431 -0.1477
 9640W        W52693   9.759  27.245  26.540 -0.2332 -0.1708 -0.0939
 9641W        W52694  19.642   3.852   9.700 -0.1927  0.1006  0.1718
 9642W        W52695  26.841  26.227  19.153  0.3052 -0.0163  0.0740
 9643W        W52696  25.580  16.516  19.226  0.2066  0.1052 -0.1578
 9644W        W52697  30.380  17.608  15.838  0.1699 -0.1027 -0.0476
 9645W        W52698  21.835  26.587   2.693 -0.1302 -0.0347 -0.2180
 9646W        W52699  17.570  23.176  21.079  0.0198 -0.3467  0.1868
 9647W        W52700   7.270  23.135   2.086  0.0822 -0.4226  0.1360
 9648W        W52701   6.653  14.002   1.441 -0.1553  0.1950 -0.0089
 9649W        W52702  16.465  31.853  22.641 -0.1211 -0.0864  0.0054
 9650W        W52703  28.142  16.366   8.791 -0.0549  0.1505 -0.2446
 9651W        W52704  26.239  22.341  21.140 -0.1388 -0.0273  0.1591
 9652W        W52705   9.024  14.714   1.677  0.1720 -0.1703 -0.0355
 9653W        W52706  18.123  13.180  14.511 -0.1011 -0.0937  0.1968
 9654W        W52707  28.744   1.599  20.404  0.2177  0.1569 -0.1127
 9655W        W52708   7.828  18.711  26.862  0.1098 -0.0337  0.2873
 9656W        W52709  29.932  16.694  17.227  0.1959 -0.2440 -0.0953
 9657W        W52710  21.257  17.602  21.654  0.1923  0.0136 -0.4260
 9658W        W52711  27.142  33.615  24.469  0.1452  0.0148  0.1325
 9659W        W52712  28.036  26.775   2.717  0.2222  0.2090  0.0281
 9660W        W52713  23.530  10.011  17.940 -0.1627  0.0604  0.0257
 9661W        W52714  25.279   4.652   2.800  0.0666 -0.2264 -0.0027
 9662W        W52715   7.454  27.386   0.962 -0.0733  0.1637  0.1751
 9663W        W52716  25.052  22.729  24.924 -0.2778  0.1907 -0.1980
 9664W        W52717  12.925  20.267  27.816 -0.3414 -0.2336  0.1346
 9665W        W52718  18.294  28.804  18.982 -0.1409 -0.0916  0.1014
 9666W        W52719  24.739  26.395   9.410 -0.0619  0.1181 -0.1755
 9667W        W52720  27.608   4.298  17.291  0.1342 -0.0814 -0.0714
 9668W        W52721  20.643  22.721   6.740  0.2512 -0.0223 -0.1017
 9669W        W52722  25.504  30.515  22.388 -0.0360 -0.2162 -0.0797
 9670W        W52723  16.705  11.545   2.493  0.1244 -0.3771 -0.0220
 9671W        W52724  26.116   8.674  18.693 -0.0652  0.1553 -0.0707
 9672W        W52725  28.474  17.104  17.143  0.1731 -0.1589  0.0244
 9673W        W52726  22.419  34.322   3.935  0.0946  0.1550  0.0452
 9674W        W52727   5.325  20.833   7.395 -0.2642  0.2778  0.1008
 9675W        W52728  15.207  20.406   9.007  0.2583 -0.0663 -0.0939
 9676W        W52729  24.841   9.328   1.249  0.0217 -0.3939 -0.2042
 9677W        W52730  10.070  15.749  23.723 -0.1680 -0.3447  0.3239
 9678W        W52731  32.240   0.131   9.545  0.0153 -0.0978 -0.3957
 9679W        W52732  20.836  18.008  21.494 -0.1393  0.0164  0.2659
 9680W        W52733  18.075  19.696  23.664  0.2165 -0.5194  0.1122
 9681W        W52734  22.503  21.000   3.504  0.1385  0.1193 -0.1737
 9682W        W52735  23.640  17.036  20.103  0.0067 -0.0144  0.1955
 9683W        W52736  24.897  14.076   3.341  0.2842  0.0206  0.0677
 9684W        W52737  24.892  20.767  21.788  0.3360 -0.0804 -0.3404
 9685W        W52738  23.023   0.936  15.968 -0.0419 -0.1529 -0.0346
 9686W        W52739   2.130  14.416  14.985  0.0693 -0.1019 -0.0524
 9687W        W52740  33.961  22.369  25.526 -0.0033  0.0420 -0.1532
 9688W        W52741  17.467   8.797  27.997 -0.0617  0.1344  0.1717
 9689W        W52742  21.049  29.491  28.647  0.0840  0.2468  0.0308
 9690W        W52743  33.586   0.346   6.478  0.5450 -0.0700  0.0035
 9691W        W52744  23.804   4.849   5.900 -0.0159  0.0485  0.1787
 9692W        W52745  33.286  30.014   2.130  0.1729  0.2019 -0.0296
 9693W        W52746  20.853   4.431  10.345  0.0066  0.0044 -0.0169
 9694W        W52747  27.354  25.702   3.795  0.1204 -0.1685 -0.2466
 9695W        W52748  30.588  14.370   9.715  0.2085 -0.0178 -0.1782
 9696W        W52749  19.425  22.486  13.733  0.0409 -0.2538  0.0447
 9697W        W52750  20.826  25.779  24.434 -0.2087  0.0331  0.1160
 9698W        W52751  29.877  27.996  23.897  0.0540 -0.0765 -0.4136
 9699W        W52752  32.816  21.510   5.672  0.1082  0.1500  0.3513
 9700W        W52753  31.770   3.582  18.264  0.1198 -0.0375 -0.2906
 9701W        W52754  15.700  24.152   2.714  0.0189  0.1791 -0.3412
 9702W        W52755  28.709  17.244  24.432 -0.4121 -0.1317 -0.2997
 9703W        W52756  12.617  18.370  19.156  0.0983 -0.3839  0.1180
 9704W        W52757  18.633   1.384  29.073 -0.0712  0.1169 -0.0083
 9705W        W52758  27.034  26.865  13.615  0.0108  0.0949 -0.0093
 9706W        W52759   9.917  24.333  22.130  0.0108  0.0081  0.1936
 9707W        W52760   3.543  17.443  25.331 -0.1772  0.3026  0.4865
 9708W        W52761  10.220  29.804  19.316 -0.2242 -0.3398  0.3266
 9709W        W52762   4.896  30.772  18.304  0.0253  0.1365 -0.0116
 9710W        W52763  22.684  14.653   8.921 -0.1133 -0.1834 -0.3433
 9711W        W52764  23.378  31.066  20.298  0.0647  0.0423  0.0970
 9712W        W52765   9.933  22.716   8.149 -0.2003 -0.1582 -0.0537
 9713W        W52766  19.731  21.414  23.269  0.0991 -0.1548 -0.2362
 9714W        W52767  10.620  18.408  28.643 -0.1086  0.2255  0.1027
 9715W        W52768  21.414  22.235   0.892  0.0033 -0.1323  0.1635
 9716W        W52769  32.089  34.623  23.728 -0.1611  0.2392 -0.1618
 9717W        W52770   5.632   2.485  21.105 -0.0706  0.0857  0.3186
 9718W        W52771  10.722  22.061  21.905  0.1629 -0.1505  0.3239
 9719W        W52772  16.448  25.470  10.050 -0.2657 -0.1121  0.0993
 9720W        W52773  24.173  16.693  28.848  0.1736  0.3070  0.1306
 9721W        W52774  24.224  26.952  26.527  0.0214 -0.0749 -0.0227
 9722W        W52775  33.249  25.759   0.036 -0.0381 -0.1244  0.1954
 9723W        W52776   9.797  22.983  17.518  0.0860  0.0917  0.2099
 9724W        W52777  23.192  12.478   5.435 -0.1667  0.1027  0.0992
 9725W        W52778  20.710  31.848  21.423  0.1009  0.1130 -0.1017
 9726W        W52779  21.392  15.875  22.960  0.5430  0.0223  0.1308
 9727W        W52780  11.630  29.053  26.736 -0.0667  0.1133  0.0970
 9728W        W52781  24.284   9.146  24.273 -0.1194  0.2775 -0.0367
 9729W        W52782  18.514  20.199  26.527  0.6124 -0.0016  0.0478
 9730W        W52783  17.972  23.139  15.314 -0.2518 -0.3581 -0.2047
 9731W        W52784  24.278  24.614  28.601 -0.1813 -0.0570  0.2183
 9732W        W52785  26.563  29.946   1.451 -0.0732  0.1454 -0.0538
 9733W        W52786  28.978  30.376  18.538 -0.2552 -0.0564  0.2079
 9734W        W52787   3.764  22.401  24.415  0.1442  0.0595 -0.2333
 9735W        W52788   5.084   1.256   9.469 -0.1240 -0.4474  0.0253
 9736W        W52789  30.279   6.211  20.228 -0.0953  0.0753 -0.1854
 9737W        W52790  26.214   7.875  16.745  0.1741 -0.1203  0.0647
 9738W        W52791  11.633  14.285  22.918  0.2888  0.0486  0.1091
 9739W        W52792  25.800  25.941   0.074 -0.0394 -0.1860 -0.1220
 9740W        W52793  31.596  30.516   1.073 -0.3191  0.0588 -0.1224
 9741W        W52794  30.039  24.640  26.661  0.0099 -0.1101  0.1553
 9742W        W52795  21.274  29.489  17.941 -0.0324  0.1657 -0.2168
 9743W        W52796  28.387  10.467  21.909  0.0094  0.3437 -0.2213
 9744W        W52797  10.385  30.902   5.193 -0.0483  0.1671 -0.3561
 9745W        W52798  25.804  29.254  25.072 -0.1032  0.3530  0.0972
 9746W        W52799  17.869  15.023   5.872 -0.1889  0.2226 -0.4683
 9747W        W52800  10.179   5.124  19.318  0.0566  0.0373  0.0839
 9748W        W52801  26.309  18.942   2.265 -0.0093  0.1559  0.2070
 9749W        W52802  22.002  21.437  21.308  0.0472 -0.4661 -0.1875
 9750W        W52803  32.147  28.593  18.041 -0.0757  0.1060  0.3531
 9751W        W52804  26.665  16.413  14.574 -0.2509 -0.0949  0.3206
 9752W        W52805   1.261  32.357   2.911 -0.0129  0.1467  0.0433
 9753W        W52806  21.165  15.446  22.701  0.1263 -0.1652 -0.0415
 9754W        W52807   0.182  26.424  26.196 -0.0846 -0.0524  0.4423
 9755W        W52808  25.226   8.591   9.741  0.0772  0.0356  0.3045
 9756W        W52809   0.471  32.409  22.639 -0.2387  0.0748 -0.4002
 9757W        W52810  19.282  26.349  25.459  0.0314  0.2311 -0.1620
 9758W        W52811  15.701  11.413  24.895  0.0515 -0.4317 -0.0674
 9759W        W52812   7.930  14.684   5.625 -0.1058 -0.0230 -0.2788
 9760W        W52813  20.063  11.303  28.291  0.2262  0.1610 -0.0309
 9761W        W52814  25.498  17.647   1.362 -0.2224 -0.3267  0.0565
 9762W        W52815  18.781   2.538  25.141  0.2980  0.1514 -0.0203
 9763W        W52816   0.092  26.339  24.224  0.0365  0.0102  0.2796
 9764W        W52817  22.942  22.195   4.498 -0.0554  0.1567 -0.0035
 9765W        W52818   9.536  18.315   2.209  0.1421  0.1659  0.1767
 9766W        W52819   4.850  32.428  28.269 -0.0315  0.0931  0.0808
 9767W        W52820  30.393  32.809  23.666  0.0340 -0.2162  0.1605
 9768W        W52821  15.346  21.117   9.727  0.0860  0.0748 -0.3168
 9769W        W52822  15.633  21.910  26.077 -0.1906  0.2019 -0.0237
 9770W        W52823  17.069  23.147  28.592  0.3192  0.1884  0.0457
 9771W        W52824  32.430  18.072   5.395 -0.2229  0.2826  0.0329
 9772W        W52825  19.043  29.972  27.377  0.0286 -0.0061 -0.1537
 9773W        W52826  31.724  23.397  24.231  0.1434  0.0370  0.2397
 9774W        W52827  26.061  12.684   5.642 -0.1086 -0.1099 -0.0049
 9775W        W52828  23.459  17.299  23.445  0.0598  0.1303  0.1370
 9776W        W52829  19.937   3.937   8.151 -0.0157 -0.1255  0.3985
 9777W        W52830  30.409  13.827  17.963 -0.2248  0.1342 -0.1013
 9778W        W52831  20.035  21.065   8.005 -0.0531 -0.0772 -0.0033
 9779W        W52832  34.327  32.361  15.040 -0.0852  0.2539  0.1942
 9780W        W52833  24.750   2.709   0.651 -0.2619  0.0937 -0.3202
 9781W        W52834  33.222  18.808  14.097  0.0007  0.0794  0.1930
 9782W        W52835  12.198  24.123  20.856 -0.0533  0.2199 -0.1727
 9783W        W52836  27.995  23.501  15.771 -0.0894 -0.3653  0.1456
 9784W        W52837  26.852  30.661  19.653  0.2504 -0.0179 -0.2401
 9785W        W52838  13.946  12.316  22.804 -0.1200  0.3309 -0.4249
 9786W        W52839   4.660  27.765  27.973 -0.0674  0.0422  0.0261
 9787W        W52840  31.519   2.793   4.063  0.2090  0.0840  0.1680
 9788W        W52841  18.295  24.811  23.496 -0.0922  0.3655  0.0731
 9789W        W52842  33.070  11.930  20.520 -0.3032 -0.1917 -0.1489
 9790W        W52843  28.525  10.347   6.437  0.3259 -0.0286 -0.0122
 9791W        W52844  18.875  17.754  23.311  0.1001  0.1642  0.2433
 9792W        W52845  12.086  24.790  26.924 -0.3373 -0.2874 -0.2774
 9793W        W52846  13.580  17.724   0.399 -0.0746 -0.1609 -0.2347
 9794W        W52847  18.977  25.783  14.358 -0.1335  0.0475 -0.0011
 9795W        W52848  18.599  33.370  29.178  0.3406  0.2063 -0.0286
 9796W        W52849   3.141   4.568  24.344 -0.2645 -0.2153  0.0272
 9797W        W52850  15.437  20.213   3.295 -0.0449  0.0248 -0.0592
 9798W        W52851   7.015   4.046   4.178 -0.1390 -0.1983  0.0431
 9799W        W52852  27.865  18.661   3.973 -0.1972 -0.3286 -0.0293
 9800W        W52853  23.788  15.616  15.689 -0.0150  0.2855 -0.1404
 9801W        W52854  28.652  32.115  23.732  0.1034  0.5349  0.0310
 9802W        W52855  28.692  34.435  27.762 -0.2589 -0.0047  0.3938
 9803W        W52856  29.460   2.861  15.006 -0.2409 -0.1800 -0.1367
 9804W        W52857  27.608  30.501  25.351 -0.0375 -0.2159  0.0404
 9805W        W52858  18.580  27.122  10.192 -0.1659 -0.0817  0.0115
 9806W        W52859  30.478  27.288  16.197  0.0289 -0.0665 -0.1872
 9807W        W52860  12.383  15.154   6.530 -0.3432  0.0037 -0.0190
 9808W        W52861   3.782  14.356  26.669 -0.1170  0.3459 -0.1355
 9809W        W52862  16.750  19.908   6.732 -0.2360 -0.3830 -0.2042
 9810W        W52863  31.533  24.235   2.661 -0.0042  0.0920  0.1213
 9811W        W52864  13.340  26.042   9.607  0.3167  0.1803  0.0571
 9812W        W52865  25.377  33.253  27.076 -0.1627 -0.3151 -0.1295
 9813W        W52866  23.803  31.360   7.979 -0.0650  0.0894 -0.0012
 9814W        W52867  20.672   5.505  27.088 -0.1010 -0.1114 -0.0162
 9815W        W52868  21.575   4.616  16.272 -0.1046  0.0591  0.0085
 9816W        W52869  26.484  22.633  26.877  0.1863 -0.1475  0.0039
 9817W        W52870   3.537  17.809   4.465  0.0272  0.0151 -0.1839
 9818W        W52871  14.821  20.983  25.134  0.0647 -0.1706  0.0193
 9819W        W52872   2.777  27.911  25.115  0.0833  0.2188  0.2295
 9820W        W52873  25.759  12.583  20.990 -0.0258  0.0528 -0.0493
 9821W        W52874  11.707  17.910  22.052  0.0054  0.1942 -0.4825
 9822W        W52875  22.152   9.719   3.938  0.1582 -0.2650  0.1661
 9823W        W52876  29.710  18.192   0.177 -0.0682 -0.1641 -0.1248
 9824W        W52877  15.843  10.453  20.098  0.1207  0.3580  0.2769
 9825W        W52878  14.461  12.601  10.376  0.1400  0.1070 -0.1500
 9826W        W52879   8.084  14.221   6.882  0.2075  0.2530 -0.1419
 9827W        W52880   7.201  13.626  27.184  0.2597  0.1273 -0.1175
 9828W        W52881  15.741   1.299   9.864  0.0490 -0.2367  0.0423
 9829W        W52882  28.545  27.260  17.314  0.1817 -0.0949 -0.0825
 9830W        W52883  16.101  29.668  18.064 -0.3576 -0.0914 -0.1544
 9831W        W52884  24.017  18.456   2.157 -0.0276 -0.2591 -0.4097
 9832W        W52885  28.634  27.410  23.919  0.3152 -0.1577 -0.0450
 9833W        W52886  20.572  31.364  17.541 -0.1191 -0.4398 -0.0316
 9834W        W52887  20.463  26.361  21.756 -0.0772  0.0129  0.0995
 9835W        W52888  25.386  17.090  24.109 -0.2584  0.0328 -0.2453
 9836W        W52889  28.468  24.245  24.571 -0.1637 -0.1563  0.1046
 9837W        W52890  32.878  15.919   1.776  0.1645  0.2923 -0.1546
 9838W        W52891   9.006  13.403  25.765  0.1049 -0.2743 -0.2965
 9839W        W52892   1.495  28.243   4.394  0.0467 -0.1205  0.4300
 9840W        W52893   7.799  26.677  28.917 -0.3858 -0.1684 -0.2589
 9841W        W52894  25.185  23.016  23.126  0.1393  0.1170  0.1165
 9842W        W52895  18.504  16.209   6.231  0.1728 -0.0677  0.1326
 9843W        W52896  30.572  30.559  15.885 -0.0381 -0.1914 -0.3601
 9844W        W52897  28.379  26.590  15.269  0.2115 -0.0039 -0.0195
 9845W        W52898  27.855  28.939  19.360 -0.2453  0.2446  0.1797
 9846W        W52899  19.356  18.697   2.799  0.0747 -0.1862 -0.5041
 9847W        W52900  33.432  33.708   0.559 -0.3497  0.0328 -0.0451
 9848W        W52901  30.500  22.313   3.771  0.3418 -0.4507 -0.0408
 9849W        W52902  15.995  28.472   2.268  0.0783  0.1758  0.1901
 9850W        W52903  33.671  31.720   2.162 -0.0584 -0.1581 -0.3532
 9851W        W52904  21.284  26.600   3.402 -0.0059 -0.1027 -0.0682
 9852W        W52905  17.304  23.873  28.143 -0.1733  0.0336 -0.1593
 9853W        W52906  23.551  15.148   2.378 -0.1235  0.0802 -0.0334
 9854W        W52907  30.016   7.293  22.954 -0.0892 -0.0671  0.1940
 9855W        W52908  21.715   5.989   2.174 -0.0659  0.1407 -0.1571
 9856W        W52909  18.259  33.339   2.513  0.0158 -0.1147  0.1973
 9857W        W52910  32.775  28.073  26.130  0.0073 -0.1505 -0.1693
 9858W        W52911  27.207   4.751  27.067  0.0243 -0.1906  0.0872
 9859W        W52912  19.856  28.255  19.700 -0.1392 -0.1453  0.0898
 9860W        W52913  29.061   9.088  18.847 -0.3048 -0.2026  0.3588
 9861W        W52914   6.317  18.591  19.936  0.1035 -0.3299 -0.1285
 9862W        W52915  23.807  27.882   0.177 -0.1068  0.0724  0.1786
 9863W        W52916  31.118   1.759  26.638  0.0201  0.1809  0.2619
 9864W        W52917  25.738   0.658  23.718 -0.0837  0.0675 -0.0507
 9865W        W52918  10.188  28.962   8.391 -0.3968 -0.2648  0.0060
 9866W        W52919  10.638  17.581   9.320 -0.3658  0.0432 -0.0191
 9867W        W52920  30.757  16.150  27.306 -0.0629 -0.0942 -0.0424
 9868W        W52921  30.493  31.433  10.186  0.0245  0.1068 -0.3106
 9869W        W52922  14.695  24.431  23.728  0.0088  0.1322 -0.0749
 9870W        W52923  25.663  27.264  20.628 -0.1024  0.0728 -0.1280
 9871W        W52924  27.313   5.516   8.282  0.1039  0.0816  0.3831
 9872W        W52925  24.343  16.958   8.376  0.4407 -0.2721 -0.1348
 9873W        W52926  21.120  25.433   0.021 -0.1273 -0.2163 -0.1959
 9874W        W52927  20.332  25.027   3.481  0.1412 -0.0993  0.0994
 9875W        W52928  17.356  26.518   6.994  0.4696  0.0873 -0.0601
 9876W        W52929  21.777   3.367  23.928 -0.0508  0.3113 -0.2307
 9877W        W52930  11.529  18.992  28.415 -0.0063 -0.1240 -0.0691
 9878W        W52931  20.990  18.588   6.673  0.0292 -0.0028 -0.0358
 9879W        W52932   7.461  22.715   5.909  0.0195  0.0297 -0.0409
 9880W        W52933  14.432  10.633   8.210 -0.0085 -0.0091 -0.0044
 9881W        W52934  28.462   4.972   9.435  0.2118  0.4710 -0.0132
 9882W        W52935  17.051  33.947  10.150  0.3091  0.2890 -0.0803
 9883W        W52936  21.247  14.752  28.679 -0.0538  0.2094 -0.1050
 9884W        W52937  25.533  28.296   7.972 -0.2739  0.1120 -0.1984
 9885W        W52938  21.814  29.702  20.021 -0.1510 -0.2423  0.6313
 9886W        W52939  27.598  18.497   6.289 -0.2676 -0.1748 -0.1214
 9887W        W52940  30.513  17.878   2.574 -0.0462 -0.0680 -0.0096
 9888W        W52941  11.533  17.923  16.550 -0.3725  0.1430 -0.0335
 9889W        W52942   5.939  24.972   6.868  0.0525  0.0786 -0.0805
 9890W        W52943  22.936  27.840  26.493 -0.0556 -0.0478 -0.0268
 9891W        W52944  33.058  24.816  14.879  0.1075  0.0086  0.3060
 9892W        W52945   8.480  17.013   0.427  0.0320  0.1309  0.2605
 9893W        W52946  22.985  23.272  17.578  0.4691  0.1157 -0.3277
 9894W        W52947   7.315  27.320  14.109  0.0350  0.1849  0.2477
 9895W        W52948  21.673  15.954   4.635 -0.1362 -0.0862  0.0630
 9896W        W52949  29.375   4.836  20.339 -0.3769 -0.3418  0.2305
 9897W        W52950  25.695  22.661  17.443 -0.3054  0.0629  0.0979
 9898W        W52951  25.789  25.391  23.135 -0.1058  0.4460 -0.1288
 9899W        W52952  31.744  17.147   2.015 -0.5151 -0.2053 -0.1772
 9900W        W52953  34.180  29.223   4.862  0.4706  0.0691  0.0966
 9901W        W52954  22.225  32.576  15.697 -0.1402  0.0328  0.1088
 9902W        W52955  29.426  19.352  25.943  0.3294  0.2853 -0.1432
 9903W        W52956  29.084  26.568   9.651 -0.1273  0.2417 -0.1969
 9904W        W52957  21.074  32.575   6.868  0.2608  0.0918  0.0486
 9905W        W52958  13.344  32.131   6.369 -0.0411 -0.1968  0.0077
 9906W        W52959  15.206  26.798  26.153  0.1078 -0.0717 -0.0311
 9907W        W52960  11.113  20.923  16.398 -0.2068 -0.0102 -0.2956
 9908W        W52961  16.800  18.449  14.555  0.1593 -0.1775  0.1862
 9909W        W52962  16.451  11.010  28.889  0.0228 -0.2605 -0.2822
 9910W        W52963  27.429  17.965  27.120  0.2743 -0.2021  0.5251
 9911W        W52964  17.099   0.880   7.481 -0.2517  0.1030  0.0355
 9912W        W52965  28.060  23.009  28.050 -0.1727  0.1094  0.2358
 9913W        W52966  15.984  13.922  14.344 -0.1916  0.0381  0.2670
 9914W        W52967  11.154  27.764   9.164 -0.3306  0.0309 -0.2158
 9915W        W52968  24.185  16.331  15.880  0.0841 -0.1542 -0.0908
 9916W        W52969  22.100  24.565  15.393  0.0056 -0.2685  0.0381
 9917W        W52970  12.604  33.673  26.300 -0.1039  0.0774  0.1204
 9918W        W52971   2.782  14.884  15.254 -0.0532 -0.1999  0.0118
 9919W        W52972  31.020   2.977   5.541  0.0082 -0.2006  0.0605
 9920W        W52973   6.394  31.110  27.999 -0.1951 -0.0476  0.2003
 9921W        W52974  29.202  33.481  19.381  0.4095 -0.0012 -0.1943
 9922W        W52975   7.268  17.468  14.944  0.0817 -0.3210 -0.1183
 9923W        W52976  19.474  18.190  14.204  0.2531 -0.1767 -0.2043
 9924W        W52977   2.625  26.238  18.855  0.0085 -0.2605 -0.0581
 9925W        W52978  24.077   4.521   0.156  0.2040  0.1292  0.3949
 9926W        W52979   5.473  32.102  27.823 -0.0358  0.0734  0.2227
 9927W        W52980   6.286   2.830   8.081  0.0183  0.2147  0.0567
 9928W        W52981  29.527  29.581   3.632  0.0366  0.2474 -0.1672
 9929W        W52982  28.500  24.804   1.123  0.1518  0.1932  0.0083
 9930W        W52983  23.151  18.416   6.336 -0.2559  0.1567 -0.0555
 9931W        W52984   8.925  34.229  16.677  0.1840  0.1750 -0.0639
 9932W        W52985  26.211   1.368   5.538  0.3128  0.1547 -0.0997
 9933W        W52986  17.721  13.615  28.300  0.2179  0.2081  0.1525
 9934W        W52987  28.214  27.680   8.572 -0.2097  0.0245  0.3910
 9935W        W52988  13.210  21.654  10.089 -0.2004  0.0374  0.0060
 9936W        W52989  28.886  17.263  27.710 -0.1765 -0.1621  0.0048
 9937W        W52990  20.075  26.997  26.470 -0.1154  0.3122  0.1747
 9938W        W52991  17.615  17.858   0.976 -0.0408 -0.5308 -0.0461
 9939W        W52992  20.534  18.689   6.486  0.1467  0.2403 -0.1358
 9940W        W52993  17.515  23.050  20.358 -0.0089 -0.0001 -0.3079
 9941W        W52994  11.538  23.129   6.980  0.0647 -0.2151 -0.1884
 9942W        W52995  10.546  19.991  22.922  0.3146 -0.1800 -0.0620
 9943W        W52996  28.252   2.975  23.205 -0.1426 -0.0035  0.1034
 9944W        W52997  33.418  24.163  20.707  0.0591 -0.0734 -0.1960
 9945W        W52998  24.160  23.625  26.695  0.1945  0.2905 -0.2789
 9946W        W52999  33.818  22.476  27.416 -0.0606 -0.2021 -0.3588
 9947W        W53000   1.484  16.375  20.997  0.0380  0.3442 -0.0503
 9948W        W53001  14.874  29.317  27.716  0.0200 -0.3555  0.0865
 9949W        W53002  29.627  21.946   7.941 -0.0334  0.1779 -0.0558
 9950W        W53003   3.503  29.132  21.417 -0.2798  0.0238  0.3158
 9951W        W53004  21.469   5.579   2.196 -0.3279 -0.2787 -0.2068
 9952W        W53005   5.423  27.033   0.238 -0.0894  0.0300  0.3131
 9953W        W53006  27.788  28.800  22.019 -0.0029  0.2075 -0.2387
 9954W        W53007  27.695  27.320   4.331 -0.0589 -0.1486  0.1146
 9955W        W53008   1.231  10.217   7.401  0.1742 -0.3999 -0.1695
 9956W        W53009  18.400  25.816  18.108 -0.1049  0.2879 -0.0831
 9957W        W53010  25.024  30.397  14.250  0.3030  0.0458  0.4243
 9958W        W53011  14.535  27.287  25.454 -0.4256  0.0376  0.1887
 9959W        W53012  25.672  31.257   0.920 -0.1352 -0.2383  0.2862
 9960W        W53013  27.562  17.872  24.301 -0.0992 -0.3550  0.0688
 9961W        W53014  23.175  26.115  24.233  0.1426  0.1733 -0.1215
 9962W        W53015  31.636  31.486  24.695 -0.3639  0.1485 -0.1166
 9963W        W53016  31.464  14.361  26.130  0.0236  0.3652  0.2887
 9964W        W53017  24.166  28.196   0.615 -0.1024  0.0383  0.1523
 9965W        W53018  29.536  24.992   5.495  0.0832  0.0055 -0.0531
 9966W        W53019  20.751  33.867  25.642 -0.0755 -0.0583 -0.1900
 9967W        W53020  27.797  33.168  25.424 -0.0990 -0.3422  0.3422
 9968W        W53021  22.925  31.797   3.731 -0.1904  0.1342 -0.0587
 9969W        W53022   8.438  15.814   8.904 -0.0813 -0.1070 -0.0641
 9970W        W53023  13.934  29.636   8.740  0.0708 -0.1951  0.0642
 9971W        W53024   0.050  25.809   2.657  0.3655  0.0625  0.2445
 9972W        W53025   5.805  27.789   2.914  0.2143  0.1741  0.1169
 9973W        W53026  32.911   7.947  14.493  0.0222 -0.0471 -0.2201
 9974W        W53027  23.622  22.017  24.473 -0.2252 -0.2676  0.1351
 9975W        W53028  16.524  26.675  17.534 -0.1856  0.0065 -0.0874
 9976W        W53029  11.980   3.219   3.462 -0.0041 -0.3080  0.3632
 9977W        W53030  15.141  14.350   4.916  0.2447  0.0829  0.1067
 9978W        W53031  34.018  17.247  21.876  0.3533 -0.3955 -0.0620
 9979W        W53032  27.109  25.863   8.288 -0.2548 -0.3543  0.1939
 9980W        W53033  12.868  21.474  27.888 -0.0366 -0.2293  0.3959
 9981W        W53034   0.276  12.896  25.095 -0.0816 -0.2256  0.1266
 9982W        W53035  18.793  29.718  28.975 -0.0111  0.2591 -0.2110
 9983W        W53036  23.108  32.579  17.308 -0.3551  0.0506 -0.0585
 9984W        W53037  18.791   1.224  24.758  0.0670 -0.0345 -0.0943
 9985W        W53038   9.932  23.412   8.850 -0.0177 -0.2048 -0.0162
 9986W        W53039  24.950  14.805   4.051 -0.1606 -0.1170 -0.4338
 9987W        W53040   5.658  25.542   6.848  0.0170  0.2579  0.0306
 9988W        W53041  24.941  12.801   8.347  0.6680 -0.0913 -0.2680
 9989W        W53042  26.546   2.356  19.481  0.0273 -0.0808  0.0789
 9990W        W53043  18.252  19.619  22.252 -0.0693 -0.1920  0.1991
 9991W        W53044  27.068  27.208   4.873 -0.1329  0.1357 -0.1496
 9992W        W53045   8.659  21.134  25.106 -0.2160 -0.0929 -0.0759
 9993W        W53046  25.944  34.665   1.512 -0.1180 -0.1078  0.1352
 9994W        W53047  28.129  17.017   5.527 -0.1537 -0.1538 -0.5789
 9995W        W53048  31.400   1.487  22.751  0.1527 -0.1034  0.2769
 9996W        W53049  21.811   0.857   3.794 -0.1214 -0.2221  0.0466
 9997W        W53050  23.077  23.415   3.231 -0.0059 -0.2916  0.1520
 9998W        W53051  19.421  26.937   2.299 -0.1841  0.1472  0.0390
 9999W        W53052  25.149  34.647  15.746 -0.1408  0.0048 -0.0485
10000W        W53053   2.387  24.104  17.241 -0.2966  0.0113  0.1798
10001W        W53054  22.432  12.891   0.240 -0.1134 -0.1901 -0.0467
10002W        W53055  16.266  33.769   7.048 -0.0705  0.1080 -0.2090
10003W        W53056  10.811  29.397   6.842 -0.0011  0.2643  0.1568
10004W        W53057  21.414  21.214  22.002  0.4265  0.0239  0.1702
10005W        W53058   6.557  29.889  23.129  0.0677  0.1033  0.0099
10006W        W53059  33.330  20.679  25.951  0.2854 -0.0795  0.0710
10007W        W53060  17.739  29.020  28.680 -0.3093  0.0846  0.0507
10008W        W53061   1.547   2.792   5.126 -0.3327  0.2322  0.0026
10009W        W53062  16.597  18.026   0.607 -0.2602 -0.3215 -0.2388
10010W        W53063  12.068  24.863  20.392 -0.3163  0.1024  0.2618
10011W        W53064  23.096  34.621   4.475 -0.0696  0.4443 -0.3393
10012W        W53065  28.915  22.757   7.093 -0.2472  0.1246  0.1636
10013W        W53066  19.091  17.101   3.516  0.1227 -0.2590  0.1405
10014W        W53067  11.956   6.084  26.718  0.0097 -0.0904  0.1796
10015W        W53068  19.289  11.693  27.402  0.1218 -0.2939  0.2788
10016W        W53069  32.012  22.514  13.968 -0.0956  0.0015  0.2762
10017W        W53070  13.898  23.577  20.818 -0.2027 -0.0502  0.0300
10018W        W53071  26.449  31.336  10.425  0.0507  0.1792 -0.2801
10019W        W53072  22.947  21.593   2.206  0.3067  0.2575 -0.0176
10020W        W53073  22.150  25.702  15.706  0.1451  0.1753 -0.2132
10021W        W53074  27.334  19.302  20.988  0.1530 -0.2024 -0.1241
10022W        W53075  28.014  11.500   8.631 -0.3916 -0.1888  0.0808
10023W        W53076  25.307   3.893   0.695  0.3675  0.0817 -0.0289
10024W        W53077  29.821  20.467   2.568  0.0476 -0.0656  0.0914
10025W        W53078  31.935   2.150  28.203 -0.0634 -0.1380  0.2195
10026W        W53079  28.023  23.169   8.775  0.2422 -0.1072 -0.1717
10027W        W53080  11.472  24.452   5.423 -0.0729  0.0937 -0.1386
10028W        W53081  19.443  26.603  15.015 -0.1738 -0.1733  0.1655
10029W        W53082  19.027  18.168  23.792  0.0841  0.2295  0.3290
10030W        W53083  17.926  23.385  22.780 -0.1370 -0.0977 -0.0384
10031W        W53084  20.221  25.845   0.134  0.0824 -0.0521 -0.3995
10032W        W53085  15.986   3.025  23.508  0.0340 -0.1525 -0.1827
10033W        W53086  20.502  20.378   2.573 -0.1011  0.2559 -0.1654
10034W        W53087  26.754  31.925  26.782  0.3975 -0.1633 -0.1006
10035W        W53088  30.238  25.881   6.147  0.1487 -0.0356 -0.0972
10036W        W53089   8.298  12.455   4.701 -0.2769 -0.0312  0.0192
10037W        W53090  26.044   0.344  27.567  0.0967  0.0696  0.0414
10038W        W53091  13.680  21.532   0.905  0.0279  0.3929 -0.1323
10039W        W53092  24.762  22.466  22.973 -0.4458  0.4008  0.0197
10040W        W53093  26.636  13.708  24.882  0.1161 -0.2553 -0.1332
10041W        W53094   9.017  26.861   3.339 -0.2144  0.0393 -0.1175
10042W        W53095  31.019  27.063   4.059 -0.0941 -0.2462  0.1985
10043W        W53096  24.497  19.372   0.247 -0.1596  0.2543  0.1417
10044W        W53097  25.052  29.118  16.224  0.1216  0.0725 -0.1627
10045W        W53098  19.166  22.451  19.782  0.5493 -0.0455  0.1885
10046W        W53099  23.661   0.350  17.564  0.0455  0.5242  0.3359
10047W        W53100  19.825   3.450   1.332  0.0805 -0.0432 -0.0181
10048W        W53101   2.058   8.304  24.498  0.0085 -0.1635  0.2960
10049W        W53102  26.895   8.233  24.312  0.3858  0.1472  0.1742
10050W        W53103  21.853  25.896  24.453 -0.0037  0.2902  0.0792
10051W        W53104  21.546   7.458  16.270  0.1199 -0.0047  0.0652
10052W        W53105  26.073  33.123  15.587  0.1255  0.1619  0.1404
10053W        W53106  21.018  20.293  22.745 -0.0384 -0.1718  0.3634
10054W        W53107  30.837   2.302  24.296 -0.1289  0.1068 -0.0082
10055W        W53108  28.915  29.868  16.900  0.1997  0.0941  0.2692
10056W        W53109  22.337  28.883  14.441  0.0312 -0.0664  0.0113
10057W        W53110  23.540  29.251  18.259  0.0821 -0.1575 -0.0958
10058W        W53111   8.201   9.210  22.130  0.1511 -0.0857 -0.1601
10059W        W53112  31.972  21.586  21.559 -0.0415 -0.2240 -0.0521
10060W        W53113  21.353  20.206  15.570 -0.3291  0.0073 -0.2887
10061W        W53114   0.596  19.569  23.702 -0.2175  0.3733  0.1465
10062W        W53115  20.019   2.741  16.612 -0.2693  0.0802  0.1566
10063W        W53116   9.151  31.116  15.593  0.2090  0.3736  0.0720
10064W        W53117  17.843   4.341  20.496  0.0989  0.0112 -0.0952
10065W        W53118  11.380   5.266  22.407 -0.1741 -0.0002  0.1148
10066W        W53119  32.563  26.568  15.313 -0.2893  0.0332  0.0444
10067W        W53120  19.887  26.542  18.879 -0.0150  0.2536 -0.4246
10068W        W53121  11.262  22.280  14.158 -0.1271  0.0089 -0.1076
10069W        W53122  29.168  13.853  15.517  0.1208  0.1157  0.0090
10070W        W53123   2.683  31.768  26.909 -0.1570 -0.1579  0.3127
10071W        W53124  27.178  22.480  19.728  0.1097 -0.2457 -0.1901
10072W        W53125   7.881  10.685  22.055 -0.0764  0.1900  0.4491
10073W        W53126  32.457  25.079  19.546 -0.0936  0.3340 -0.0060
10074W        W53127  24.122   0.972  19.200 -0.0214 -0.0871  0.3085
10075W        W53128  17.331   0.288  26.905 -0.2177 -0.2537 -0.1206
10076W        W53129   8.406  11.066  15.581  0.0800 -0.0242 -0.2291
10077W        W53130  32.355  17.666  22.376  0.1457  0.1342  0.0230
10078W        W53131   0.251   0.897  29.180 -0.0102  0.0228  0.2625
10079W        W53132  32.100   5.020   0.516  0.1836 -0.0645  0.0074
10080W        W53133  14.901   8.864  17.877 -0.2738  0.3062 -0.2042
10081W        W53134  34.263   1.641  19.459  0.2048  0.0938 -0.1086
10082W        W53135   4.305  21.916  24.781  0.0648 -0.0463  0.2739
10083W        W53136  18.391  28.819  20.668  0.0673  0.0770 -0.1153
10084W        W53137  20.512  33.104  18.092 -0.1371  0.0915 -0.3468
10085W        W53138  24.531  30.652  16.121  0.1468  0.1022 -0.2042
10086W        W53139  13.340  21.179   1.728  0.1761 -0.1455  0.0718
10087W        W53140  23.860   6.249  13.675 -0.1556  0.0553 -0.1251
10088W        W53141  16.372  16.675   9.261 -0.0512 -0.1173 -0.0641
10089W        W53142  28.778  31.355  19.910 -0.0225  0.1286 -0.0693
10090W        W53143  30.542  24.226  21.976  0.2932  0.2368  0.1174
10091W        W53144  24.594  25.368  24.179 -0.2626 -0.1397  0.2392
10092W        W53145  11.907  30.596  13.385 -0.1203  0.2554  0.1573
10093W        W53146  28.942  29.793  18.663  0.2174 -0.0384 -0.2561
10094W        W53147  14.509  31.758  17.242 -0.2139  0.1257 -0.1587
10095W        W53148  16.085   6.076   2.006  0.1981  0.0833  0.1033
10096W        W53149  26.244  28.919  21.720 -0.2286 -0.0707  0.1879
10097W        W53150  12.852  14.979  19.354 -0.1019 -0.1641  0.3320
10098W        W53151  16.662   0.243  14.651  0.1234 -0.3650 -0.0171
10099W        W53152  15.774   4.574  17.542  0.0153 -0.2535 -0.0690
10100W        W53153  23.107   9.371  22.088 -0.1941  0.1322 -0.0927
10101W        W53154  29.210  28.021  17.724 -0.0984  0.0121 -0.0973
10102W        W53155  12.469  24.537  28.597  0.0948  0.2388 -0.2214
10103W        W53156  28.851   2.262  16.150 -0.1480  0.1771 -0.0831
10104W        W53157  25.947  30.568  13.616  0.3146  0.4339  0.0315
10105W        W53158  27.090  26.795  26.204 -0.0225  0.0075  0.2768
10106W        W53159  11.438  25.278  26.110  0.2632 -0.3045 -0.1656
10107W        W53160   0.480  33.085  24.368 -0.1787 -0.1450  0.1903
10108W        W53161  11.782  34.154  20.220 -0.1399 -0.0717 -0.1429
10109W        W53162  29.966  13.091  10.317 -0.0704 -0.0950  0.1169
10110W        W53163  25.346  26.696  10.488 -0.0534 -0.3898  0.1719
10111W        W53164  33.046  32.808  16.628 -0.0440 -0.0433 -0.2747
10112W        W53165  18.976  13.860  15.522 -0.0939  0.1411  0.2650
10113W        W53166  29.162  34.080  16.303 -0.0509  0.1698  0.2129
10114W        W53167   6.797  24.190  23.491 -0.0740 -0.1502 -0.1065
10115W        W53168  19.465   8.021  24.567  0.0032 -0.2476 -0.0366
10116W        W53169  34.672  17.983  16.425  0.1514  0.2161  0.0479
10117W        W53170  22.773  32.589  16.396 -0.1181  0.1988 -0.2511
10118W        W53171  34.312  31.967  28.856 -0.1835 -0.0644 -0.0020
10119W        W53172  28.423  15.151  20.974 -0.1408  0.2637  0.2865
10120W        W53173   5.596  24.897  15.860  0.2879 -0.3867 -0.2170
10121W        W53174  27.016   6.101  24.518 -0.3438 -0.0128  0.0245
10122W        W53175  21.075  11.124  22.842  0.0755  0.2741  0.3163
10123W        W53176   9.819   7.712  16.875 -0.1117 -0.2458  0.0372
10124W        W53177  31.475  32.015  18.635 -0.0059  0.0638  0.2111
10125W        W53178   3.293   7.548  25.672 -0.0286 -0.1115 -0.2257
10126W        W53179  26.102  23.923   0.732 -0.1430  0.0255  0.0463
10127W        W53180  24.618   4.548   1.131  0.0077  0.0895  0.0593
10128W        W53181   0.781   1.476  18.243  0.0735 -0.1623 -0.1196
10129W        W53182  21.458  28.761  17.316 -0.1818  0.0554 -0.0379
10130W        W53183  21.170  31.614  16.307 -0.3575  0.1336 -0.0285
10131W        W53184  25.955  33.705  25.921 -0.2491  0.0810  0.1744
10132W        W53185   3.225  19.341  19.596  0.1778 -0.0382  0.1059
10133W        W53186  17.279  22.816   3.962  0.0573 -0.0163  0.1451
10134W        W53187  26.357  29.950  15.841 -0.1490  0.0882 -0.0256
10135W        W53188  16.676  27.319  22.184 -0.0265  0.0808  0.1689
10136W        W53189  19.792   1.476   0.386  0.0416  0.2633 -0.0806
10137W        W53190  22.982  11.712  15.807 -0.0404 -0.1032  0.3176
10138W        W53191  20.711  26.400  23.005  0.0481 -0.0447  0.1025
10139W        W53192   6.170   7.332  26.010  0.2292 -0.1305  0.3366
10140W        W53193   6.714   5.331  27.467 -0.1717  0.3167 -0.1036
10141W        W53194  23.084  25.305  23.851  0.2453  0.1302  0.1397
10142W        W53195   0.096  20.207  28.730  0.2409 -0.0707  0.0505
10143W        W53196  26.076  20.016  26.221 -0.0630  0.1367  0.1202
10144W        W53197   3.181  28.788   0.006 -0.1285  0.2828 -0.1258
10145W        W53198  21.235   3.953  19.321 -0.1528  0.0220  0.1771
10146W        W53199  24.578   2.502  24.889  0.0965 -0.1864 -0.0585
10147W        W53200  22.016  23.451  18.961 -0.0168 -0.0861  0.2180
10148W        W53201  33.857  18.257  28.388  0.2502 -0.3435 -0.0283
10149W        W53202  24.749  27.082  23.541 -0.2070  0.3599 -0.1262
10150W        W53203  23.661  22.384  24.771 -0.2127 -0.1065  0.0282
10151W        W53204  33.240  28.207  19.247  0.0735  0.2598  0.0908
10152W        W53205  13.453  23.385   6.109  0.0046 -0.1979  0.2239
10153W        W53206  23.733  33.209   8.271 -0.4951  0.1190 -0.1149
10154W        W53207  18.821  26.092  27.794  0.0660  0.1324 -0.2230
10155W        W53208  15.371   9.138  16.483 -0.3644 -0.0989 -0.2271
10156W        W53209   3.281  17.907   3.779  0.0644 -0.0548 -0.3620
10157W        W53210  19.974  22.847  27.659 -0.2766  0.1622 -0.1753
10158W        W53211   5.779   9.381  15.348  0.0745 -0.3429  0.1855
10159W        W53212   0.455   5.825  15.113  0.2936  0.1106 -0.0065
10160W        W53213   6.046   5.983  19.419  0.0962 -0.3233 -0.0617
10161W        W53214  25.196  24.181  19.180 -0.0049  0.0209  0.1347
10162W        W53215  20.922  26.139  25.705  0.1872 -0.1381 -0.0275
10163W        W53216  17.091  28.537  24.096  0.2361  0.3766  0.2885
10164W        W53217  10.991  25.823  19.205  0.0637 -0.0703 -0.2286
10165W        W53218  32.002   2.484  19.455 -0.2867 -0.2849  0.0446
10166W        W53219  20.429  15.308  14.146  0.4495 -0.0602 -0.3237
10167W        W53220  25.946   2.603  21.736 -0.1002 -0.1107  0.4228
10168W        W53221  16.960  29.178  20.507  0.0359 -0.0822 -0.3025
10169W        W53222  19.652  32.957  17.386 -0.2261 -0.4201 -0.1592
10170W        W53223  31.391   2.537   1.529  0.0267 -0.3016  0.0468
10171W        W53224  30.018  29.432  14.871  0.0678  0.1241 -0.3205
10172W        W53225  25.989   8.126  20.328 -0.2088 -0.1577 -0.3006
10173W        W53226  26.255  17.563  13.805  0.0399  0.0308 -0.0151
10174W        W53227  26.311  23.222  16.347 -0.1542  0.2311  0.0503
10175W        W53228  24.000  27.135  21.155 -0.0693 -0.0289  0.2588
10176W        W53229  23.550  21.988  20.208  0.0036 -0.0639  0.3040
10177W        W53230  19.656  15.339   0.702 -0.2172  0.1846 -0.1767
10178W        W53231  20.045  27.222  25.535  0.1300 -0.2705  0.3284
10179W        W53232   9.435  30.953  28.021 -0.0311  0.1879  0.1314
10180W        W53233   0.019  22.730  14.118 -0.2001  0.1019  0.2192
10181W        W53234  21.510  33.743   6.940 -0.1259  0.0932 -0.0257
10182W        W53235   8.913  29.789  28.230  0.0090 -0.0885 -0.4511
10183W        W53236  29.528  34.369  20.043  0.1640 -0.1737 -0.0814
10184W        W53237  23.565  19.693  16.792  0.3238 -0.0746 -0.1087
10185W        W53238  29.717  17.153  20.215  0.2123 -0.1386 -0.0629
10186W        W53239  12.151  16.355  18.726  0.2375 -0.2122 -0.1076
10187W        W53240  12.955   6.033  16.930  0.6004  0.2307  0.1014
10188W        W53241  27.414  15.330  16.429  0.1657 -0.2277  0.0269
10189W        W53242   7.876  27.568   7.944 -0.1479  0.2756 -0.3295
10190W        W53243  30.951  18.328  25.398 -0.1069 -0.0172 -0.2111
10191W        W53244  20.228  31.644  25.144  0.0184 -0.1953 -0.0353
10192W        W53245  11.207  32.397  25.967  0.0248  0.2259  0.0696
10193W        W53246  33.148  15.841  26.281  0.0853  0.1921 -0.2743
10194W        W53247  17.772  24.645  19.419 -0.3626  0.0228 -0.0471
10195W        W53248  33.443  20.582  16.591 -0.0310  0.2882  0.0307
10196W        W53249  26.308   2.739  19.021 -0.0544 -0.0402 -0.0442
10197W        W53250  16.160   6.991  17.107 -0.1990  0.1451 -0.1423
10198W        W53251  22.464   4.291  21.058  0.1201  0.0834 -0.1561
10199W        W53252  30.480  28.130  27.031 -0.1701 -0.2009 -0.0303
10200W        W53253  20.576  27.663   8.973  0.0028  0.0873  0.2491
10201W        W53254   0.133  18.572  22.157  0.0918  0.1486  0.1390
10202W        W53255  30.594  31.848  20.011 -0.0804 -0.1582  0.2098
10203W        W53256  21.095   1.317  24.689 -0.1013  0.2465  0.0766
10204W        W53257  17.490  28.782  15.259 -0.0739  0.2297  0.3738
10205W        W53258   9.018  23.357  27.324  0.2065  0.1859 -0.1155
10206W        W53259  28.496  20.896   4.266 -0.0410  0.2632  0.0176
10207W        W53260  18.100   9.432  15.506  0.0526 -0.1176  0.3107
10208W        W53261  22.422  20.601  22.248  0.1235  0.0035  0.1491
10209W        W53262  18.624   2.902  25.828 -0.0633  0.0987 -0.1074
10210W        W53263  33.719  21.406  19.978 -0.0772 -0.2497  0.0227
10211W        W53264  23.063  26.244   1.828 -0.0631 -0.0597  0.2835
10212W        W53265  11.240  12.366  22.536  0.5136 -0.1492  0.0477
10213W        W53266  12.680  22.352  28.483  0.0576  0.4447 -0.1697
10214W        W53267  19.417   0.391  22.254 -0.2429 -0.3770  0.0870
10215W        W53268  12.261  31.421  21.293 -0.1016 -0.1204  0.1129
10216W        W53269  17.633  25.279   1.922 -0.1276 -0.0034  0.0050
10217W        W53270  30.166  28.635   5.181  0.0583  0.0878  0.1945
10218W        W53271   4.041  12.377  19.925 -0.0871 -0.1724  0.3163
10219W        W53272  34.600   0.557  13.347  0.2156  0.4043  0.0563
10220W        W53273  30.828  19.388  15.718 -0.3738  0.2774  0.2035
10221W        W53274  10.105  25.952  21.110  0.0450 -0.1930  0.2707
10222W        W53275  18.814   3.373   3.601  0.3008  0.0172 -0.2605
10223W        W53276   3.135   3.756  24.882  0.0594 -0.0667  0.1375
10224W        W53277   7.936  27.489  20.393 -0.0145  0.2155 -0.2130
10225W        W53278  22.433   1.432  19.710 -0.5113 -0.1315 -0.1593
10226W        W53279  33.052   0.208  23.308 -0.0132 -0.4560  0.2404
10227W        W53280  18.646  23.584  28.693 -0.1614 -0.1419 -0.2818
10228W        W53281  14.867  18.155  14.786  0.2453  0.0145  0.1129
10229W        W53282  15.420   0.568  23.859  0.3261  0.1930 -0.1204
10230W        W53283  14.783   8.453  15.957  0.0705  0.4377 -0.0398
10231W        W53284  32.510  25.533  14.298  0.0048 -0.1872 -0.1151
10232W        W53285   4.840  22.694  17.384  0.1233 -0.0800  0.0294
10233W        W53286  18.104  20.860  22.334  0.3563 -0.1282  0.0246
10234W        W53287   1.272  17.061  18.763 -0.2779  0.1505  0.0898
10235W        W53288  17.631  10.164  17.546  0.1826  0.1565 -0.1695
10236W        W53289  27.793   7.350  14.064 -0.1534  0.0499 -0.0688
10237W        W53290  29.997  16.948  14.525 -0.1154 -0.3297  0.0197
10238W        W53291  26.015  31.427  29.168  0.2248  0.1678  0.0169
10239W        W53292  25.718  11.309  22.430  0.0033 -0.0111 -0.2775
10240W        W53293   2.424   6.089  22.537 -0.2316  0.3306  0.1734
10241W        W53294  24.974  17.553   0.133 -0.2188  0.2336  0.1192
10242W        W53295  33.006  31.076  25.595 -0.2501  0.0294  0.5167
10243W        W53296  26.931  31.540  19.317 -0.2613 -0.2188 -0.0239
10244W        W53297  21.083   6.276  25.831 -0.0511 -0.2138  0.0614
10245W        W53298  16.253  28.528  19.901 -0.0946 -0.0033 -0.1419
10246W        W53299  11.784  21.230   0.649  0.1658 -0.0778 -0.0045
10247W        W53300   8.265   6.387  15.743 -0.0295  0.2338 -0.2558
10248W        W53301  14.313  25.023  14.158  0.0551 -0.1186  0.1971
10249W        W53302   1.619  10.484   0.443 -0.0943 -0.2497  0.1042
10250W        W53303  24.384  33.027   1.587 -0.0141 -0.3155  0.1704
10251W        W53304  11.119  24.948  17.013 -0.3161  0.1615  0.3126
10252W        W53305  32.882   0.876  22.102 -0.2795 -0.0987  0.1669
10253W        W53306  13.843  22.509  28.591 -0.2435  0.1524  0.2191
10254W        W53307  31.715  32.185  17.167 -0.2214  0.0866  0.0586
10255W        W53308  31.676  30.998  24.388  0.0610  0.1949 -0.3594
10256W        W53309  28.079  12.992  23.852  0.4143 -0.1061  0.2296
10257W        W53310  23.221  21.646  20.072  0.2303 -0.0561 -0.0929
10258W        W53311  29.702   5.433  24.100 -0.0646 -0.0592 -0.0440
10259W        W53312  33.616   0.294  14.125  0.3618 -0.0374 -0.0129
10260W        W53313  10.789  28.131  16.594 -0.1572  0.0364  0.1347
10261W        W53314  34.534   0.188  15.007 -0.1180  0.2535 -0.1785
10262W        W53315  17.676  28.086  27.131 -0.2774 -0.0292 -0.2325
10263W        W53316  30.986  19.101  21.343 -0.1951  0.0335  0.0160
10264W        W53317  23.357  20.936   7.096 -0.2534  0.2260 -0.3979
10265W        W53318  16.244  28.326  21.327 -0.0121 -0.4019  0.1857
10266W        W53319  18.188  30.416  24.927 -0.0339 -0.3370  0.0508
10267W        W53320  10.232  30.091  22.564  0.1740  0.3478 -0.0183
10268W        W53321  20.191  32.539  14.530 -0.1199 -0.0752  0.0330
10269W        W53322  30.411  33.796  23.788 -0.2114  0.1332 -0.2125
10270W        W53323  24.598  24.483  23.835 -0.0289  0.3198  0.1674
10271W        W53324  20.995  17.966  13.999 -0.0990 -0.2266 -0.2313
10272W        W53325   8.254   4.616  18.727 -0.0665 -0.0257 -0.2470
10273W        W53326  22.382  33.984   3.175  0.0064  0.1004 -0.0490
10274W        W53327  34.435  31.899  23.797 -0.0806  0.1784  0.2483
10275W        W53328  29.899  13.806  15.944 -0.1840 -0.2901 -0.2795
10276W        W53329   8.203   1.270   6.137 -0.3268  0.0282 -0.3397
10277W        W53330   5.309  22.348   1.896 -0.1688 -0.0784 -0.3140
10278W        W53331  27.727  13.543  21.674 -0.0085 -0.1812  0.1055
10279W        W53332  19.713   3.213  15.636 -0.2091  0.0034  0.0053
10280W        W53333  13.952  28.193   1.054  0.1091 -0.0197 -0.4531
10281W        W53334  21.407  27.558  17.461 -0.2385  0.0352 -0.0153
10282W        W53335  21.443  17.102  27.190 -0.1232 -0.0802  0.2580
10283W        W53336  24.669  24.443   2.807  0.4068 -0.2423 -0.2068
10284W        W53337  33.916  13.913  25.608  0.1022 -0.0610 -0.1212
10285W        W53338  26.288  20.145  26.707  0.4588 -0.0953 -0.1615
10286W        W53339  22.780   9.125   0.395 -0.1777 -0.3602  0.1656
10287W        W53340  27.434   0.370  24.595  0.1866 -0.3813 -0.2239
10288W        W53341  18.791  23.324   2.010  0.0552  0.2580  0.0099
10289W        W53342  31.058   5.274  22.141 -0.1825 -0.0048  0.0482
10290W        W53343  27.424   6.227  23.596  0.2284 -0.2920 -0.1949
10291W        W53344  20.294  19.782  26.574 -0.0654  0.1482  0.1865
10292W        W53345   1.134  33.273  21.185  0.1485  0.2039 -0.1650
10293W        W53346  28.929  18.817  16.982  0.0250  0.2253 -0.1117
10294W        W53347  25.850  26.166  22.664  0.0508 -0.0023  0.1074
10295W        W53348   9.201  22.768  19.689  0.2399  0.0233 -0.0651
10296W        W53349  10.748  33.816  24.578  0.2830 -0.2201  0.0417
10297W        W53350  26.721  15.904  26.640  0.1406  0.0403 -0.1057
10298W        W53351   7.776   1.568  14.990 -0.3655  0.0113 -0.0556
10299W        W53352  12.722  12.890  19.480 -0.0809 -0.1138  0.0455
10300W        W53353  29.122  18.704  21.603 -0.2814 -0.0534 -0.4373
10301W        W53354   3.402  25.928  28.818 -0.1236  0.1702 -0.0388
10302W        W53355  22.651  31.675  24.550  0.5179 -0.0421  0.2756
10303W        W53356  29.207   0.703  17.974  0.4454  0.0400  0.1724
10304W        W53357  28.878  11.419   5.834  0.4101 -0.1179 -0.3233
10305W        W53358  34.183  30.535  16.059  0.1117 -0.0992 -0.0759
10306W        W53359  16.959  31.311  21.177 -0.1370  0.0824  0.0005
10307W        W53360   6.412   7.726   1.885  0.2690  0.1672 -0.0555
10308W        W53361  28.416  27.050  24.792  0.3708 -0.0596 -0.0922
10309W        W53362  11.836  26.508  26.420 -0.0479 -0.0166 -0.0137
10310W        W53363   4.647  31.172  25.765 -0.1731  0.1056 -0.0709
10311W        W53364  10.280   2.334   0.042  0.1068  0.1448  0.3491
10312W        W53365   3.012  31.788  21.129  0.1325  0.2336  0.2437
10313W        W53366  18.974  29.107   3.552  0.2307 -0.0601  0.3228
10314W        W53367   5.084  27.465  25.531  0.0231 -0.2755  0.1242
10315W        W53368  24.531  31.027  19.926  0.2456  0.0416  0.1681
10316W        W53369  28.287  29.747  17.993  0.4236  0.2183  0.1298
10317W        W53370  20.652  27.080  27.138  0.0553 -0.2702  0.1354
10318W        W53371  13.166   2.386  15.145 -0.0986  0.0931  0.1923
10319W        W53372  21.194  29.092   8.116  0.1169 -0.0904  0.1660
10320W        W53373  13.958  27.066  28.230 -0.2146  0.1086  0.3639
10321W        W53374  25.575  28.666  17.001 -0.3882  0.0295  0.0327
10322W        W53375  24.106  33.761  17.214  0.2309  0.3768 -0.1383
10323W        W53376   9.695  21.471  18.617  0.2054  0.0215  0.1434
10324W        W53377  20.544  34.121  19.802  0.2377 -0.2063 -0.0497
10325W        W53378  26.336  30.655  15.997 -0.1967  0.1366 -0.4066
10326W        W53379  28.444  34.226  21.392 -0.0518 -0.0920  0.0854
10327W        W53380  26.128  21.998  24.785 -0.1036 -0.4426 -0.0429
10328W        W53381  28.535  21.754  18.666  0.0570  0.0457  0.0798
10329W        W53382  24.368  19.681  17.280 -0.1514  0.1671 -0.0035
10330W        W53383   4.413  28.292  22.537 -0.1112 -0.0723  0.2202
10331W        W53384  24.802  25.366   7.375  0.2097  0.1746  0.0738
10332W        W53385   8.064  27.795  20.007 -0.0019 -0.2245 -0.0968
10333W        W53386  24.310  31.626  23.889 -0.2375  0.1681  0.0798
10334W        W53387  18.811  22.300  21.031 -0.0018 -0.0313 -0.0101
10335W        W53388  17.273  30.716  28.201  0.1882  0.0223 -0.1732
10336W        W53389  18.774  22.143  23.566  0.0257 -0.2203  0.1389
10337W        W53390  34.374   9.453  23.145 -0.0550  0.0999  0.2573
10338W        W53391  17.939  21.963  25.395 -0.1053  0.2703 -0.0182
10339W        W53392   4.889  24.873  14.903  0.1567 -0.0683  0.0902
10340W        W53393  23.435  32.987  21.180 -0.1630  0.1884  0.0212
10341W        W53394  28.068  29.549  17.158 -0.1931  0.1830 -0.1319
10342W        W53395  32.150   3.526  28.611 -0.0062 -0.1776 -0.3302
10343W        W53396  21.861  16.246  21.006 -0.1390 -0.1390 -0.1221
10344W        W53397  32.653  23.429  22.067 -0.3628  0.0021  0.1697
10345W        W53398  17.695  26.093  18.498  0.0376 -0.0071  0.4188
10346W        W53399  27.579   0.037  19.596  0.3874 -0.2074  0.0382
10347W        W53400  21.158   2.668  27.763  0.0066  0.5646  0.0101
10348W        W53401  25.013   5.167  19.880 -0.0650 -0.2532 -0.0280
10349W        W53402  16.109  28.709  24.018  0.2288  0.0664  0.0499
10350W        W53403  20.004  20.771   0.357 -0.0298 -0.0965  0.0803
10351W        W53404  26.847  32.240  24.216  0.2017  0.1413  0.1493
10352W        W53405  22.978  12.588  26.423  0.0098  0.1044  0.4292
10353W        W53406  23.818  10.643  23.294 -0.0107 -0.0637 -0.1629
10354W        W53407  20.914  20.493  19.642 -0.2381  0.3369 -0.0098
10355W        W53408  21.276  22.793  19.591 -0.2347  0.1067 -0.0509
10356W        W53409  23.290  21.586  26.443 -0.5052  0.2077  0.0192
10357W        W53410  18.730  27.974  26.134  0.0096  0.2151 -0.0347
10358W        W53411  13.365  23.901  15.551 -0.0375  0.0584 -0.1178
10359W        W53412  25.554  34.106  19.272 -0.3116  0.0876 -0.0128
10360W        W53413  20.582  26.330  15.862 -0.3246 -0.1696  0.1213
10361W        W53414  34.431   9.540   0.060  0.3384 -0.0071  0.1220
10362W        W53415  32.208   3.114  14.355 -0.1721 -0.1579  0.2867
10363W        W53416   6.482  19.464  20.435  0.3486  0.0502 -0.0108
10364W        W53417  31.713  18.626  18.859  0.1700  0.2293 -0.0952
10365W        W53418  11.271   4.499  17.423 -0.1338  0.3347 -0.0428
10366W        W53419  30.896   4.413  16.980 -0.3464  0.0697 -0.0391
10367W        W53420   2.045   0.960  24.494 -0.2907 -0.2931  0.1650
10368W        W53421   4.086   3.830  19.560  0.0662 -0.4373  0.0907
10369W        W53422  19.014  32.416  27.752 -0.0908  0.0284 -0.0017
10370W        W53423  22.514  31.290  16.231  0.0237 -0.0775  0.0881
10371W        W53424  30.629  33.738   1.576  0.0445  0.3780  0.2546
10372W        W53425  23.168  23.624  20.073 -0.0847  0.1241 -0.0363
10373W        W53426   8.010   2.141  25.461  0.0936  0.1974 -0.1019
10374W        W53427  34.451  32.023  14.019 -0.1207 -0.2404  0.2686
10375W        W53428  23.973   0.679  28.847 -0.1167 -0.1569 -0.0453
10376W        W53429  21.730   0.292  18.101 -0.0963  0.3002  0.2307
10377W        W53430  20.292  19.552   4.992  0.0512 -0.0046  0.1898
10378W        W53431  26.596  34.201  23.677  0.0747 -0.0671 -0.1317
10379W        W53432  17.875  22.889  25.016 -0.0553  0.3316  0.1254
10380W        W53433  21.540  30.161  16.048 -0.4012  0.0656  0.1010
10381W        W53434  15.336  24.284  22.768  0.0912 -0.0948  0.3641
10382W        W53435   4.443  10.707  20.026  0.5253  0.2100 -0.3418
10383W        W53436  14.500  32.065  22.112  0.2004 -0.3143 -0.0245
10384W        W53437   5.305  20.592  13.238 -0.0907 -0.0546  0.0251
10385W        W53438  33.428  29.249  18.408 -0.1163 -0.0272 -0.2492
10386W        W53439  10.071  25.265  12.953  0.4619  0.0436  0.1897
10387W        W53440   9.126  26.368  16.178 -0.1447 -0.0906 -0.5017
10388W        W53441   7.210  28.522  13.170  0.3029 -0.1039 -0.3108
10389W        W53442   4.138  14.819   5.011  0.2071 -0.1836 -0.4303
10390W        W53443  25.581  15.800  23.981 -0.2867 -0.1846 -0.0141
10391W        W53444  27.838  20.159  21.468  0.2545 -0.0918  0.1537
10392W        W53445  31.266   4.931  23.035 -0.0045 -0.1618  0.0293
10393W        W53446  15.781  23.483  19.512 -0.1541  0.1941  0.0806
10394W        W53447  24.409  27.882  26.982 -0.1343 -0.2171  0.0117
10395W        W53448  15.617  26.440  15.343  0.0857 -0.1371 -0.0061
10396W        W53449  19.378  28.760  27.738  0.0026  0.2719 -0.1977
10397W        W53450   2.066   4.258  14.371 -0.1941 -0.1096  0.1065
10398W        W53451  25.977  30.554  14.560 -0.2938 -0.0994 -0.6592
10399W        W53452  24.476  28.660  14.866 -0.0024  0.1053  0.0319
10400W        W53453  32.578  16.886  23.701  0.0301 -0.1440  0.1108
10401W        W53454  19.222   2.623  17.121  0.1288 -0.0802  0.2715
10402W        W53455  11.915  12.481  26.237  0.0617 -0.0104  0.4426
10403W        W53456  26.993  31.261  18.354  0.0403  0.2303  0.0420
10404W        W53457  19.461  11.445  14.808 -0.1548 -0.0472  0.0244
10405W        W53458  27.490  31.234  19.223  0.0222  0.0115 -0.3616
10406W        W53459  21.608   6.159  23.626 -0.2549 -0.3863 -0.1838
10407W        W53460  31.637  30.497  16.946  0.1914  0.2848 -0.1361
10408W        W53461  17.019  26.431  16.357  0.0964  0.2682  0.0776
10409W        W53462  32.995  23.957  22.027 -0.3195 -0.0976  0.0180
10410W        W53463  27.556  27.394  14.333 -0.1506  0.2628 -0.0366
10411W        W53464  31.658   2.951   0.728  0.2009 -0.0541 -0.0569
10412W        W53465  22.799  31.788  27.059 -0.0675  0.0080  0.4424
10413W        W53466  16.835  26.577  24.112  0.0497 -0.0320 -0.1332
10414W        W53467   6.334  25.665  21.755  0.4190  0.0587  0.0652
10415W        W53468  24.069  24.729  21.010 -0.1230  0.0615 -0.2419
10416W        W53469  21.066  23.906  20.141 -0.1438  0.0865  0.0576
10417W        W53470   2.667  28.982  20.981 -0.2973 -0.0879  0.0859
10418W        W53471  32.169  23.050  24.392 -0.2215 -0.0662 -0.1832
10419W        W53472   2.121   0.031  18.372  0.5745  0.1891  0.0986
10420W        W53473  29.440   2.830  25.283 -0.0233  0.0339 -0.0801
10421W        W53474  28.177  31.888  18.263  0.1187  0.0565 -0.1487
10422W        W53475   7.915   1.946  24.003 -0.3282 -0.1070 -0.0532
10423W        W53476  13.658  30.535  17.921 -0.0863  0.0435  0.0412
10424W        W53477  27.934  19.095  15.802 -0.3348 -0.2578  0.1048
10425W        W53478   6.766  28.650  14.058  0.2436 -0.2602 -0.0198
10426W        W53479  21.138  34.663  20.783  0.1903 -0.3567  0.2828
10427W        W53480  18.658  24.408  16.128  0.1472 -0.0248 -0.2619
10428W        W53481  27.695   8.085  27.113  0.1083  0.1387 -0.0229
10429W        W53482   1.090   1.736  19.576 -0.0824  0.1304  0.2950
10430W        W53483  23.799  29.548  27.983  0.1315  0.0582 -0.0215
10431W        W53484  31.512  27.218  14.930  0.2322 -0.1478 -0.2595
10432W        W53485  28.607  28.277  22.471 -0.2732  0.0924 -0.1512
10433W        W53486  28.815  30.954  23.296 -0.1025  0.0854 -0.0869
10434W        W53487  29.426  28.890  24.306 -0.0909 -0.2264  0.0118
10435W        W53488  25.077  27.724  18.241  0.0373  0.2663  0.1974
10436W        W53489  18.615   2.783   6.850  0.0330  0.0643 -0.1096
10437W        W53490  14.397  24.270  19.868 -0.0035 -0.0755 -0.3329
10438W        W53491  16.014  14.508  14.313  0.1724  0.0013 -0.2040
10439W        W53492   1.811   5.988  21.702 -0.1613 -0.0047 -0.1909
10440W        W53493  29.774   1.149  15.719  0.2232  0.0794 -0.1049
10441W        W53494  22.017  33.508  18.158  0.0573 -0.1735 -0.1569
10442W        W53495  32.387  23.453  18.427 -0.2344  0.0123 -0.3791
10443W        W53496  27.538  30.364  16.225 -0.0188  0.0098  0.2132
10444W        W53497  29.203  17.710  22.963 -0.2271 -0.0343  0.2418
10445W        W53498  19.528  27.167  18.076  0.0036 -0.0918  0.2439
10446W        W53499  13.956  25.806  21.694  0.1696 -0.0766  0.1474
10447W        W53500  24.062  22.314  16.383 -0.0031  0.1455 -0.0272
10448W        W53501  25.624  30.183  23.504  0.3994  0.0001 -0.0639
10449W        W53502  21.791   1.722  14.595 -0.1310 -0.4673  0.1567
10450W        W53503   4.067  27.466  18.392 -0.3023 -0.0347 -0.4276
10451W        W53504   3.384  30.595  14.526  0.0953  0.0881 -0.3287
10452W        W53505  34.142  22.488  16.757  0.2689  0.1134  0.0460
10453W        W53506  15.984  32.404  15.202  0.0899 -0.0317  0.0253
10454W        W53507  14.120  33.600  20.876 -0.0467  0.1669 -0.0823
10455W        W53508   1.127   3.800  14.799  0.4179 -0.1365  0.2042
10456W        W53509   5.939  29.202  25.566  0.2288  0.1175  0.2182
10457W        W53510  18.645  20.969  21.075 -0.0617  0.1432  0.0818
10458W        W53511   4.298  22.678  15.580  0.1509 -0.2390  0.1513
10459W        W53512  24.297   3.669  21.385  0.1885  0.1744 -0.0593
10460W        W53513  32.922  31.453  14.771 -0.2380 -0.0313 -0.1658
10461W        W53514  22.758  19.950  21.651 -0.0713  0.1173 -0.1412
10462W        W53515  22.137  32.999   1.017 -0.0998 -0.2609  0.0838
10463W        W53516  22.341  28.790  17.123 -0.1992 -0.0762 -0.1550
10464W        W53517  22.272  32.701  27.274  0.1186  0.0421 -0.2805
10465W        W53518  33.791  25.382  16.318  0.2208 -0.1249  0.3540
10466W        W53519  33.157  27.498  13.240  0.0084  0.2354 -0.2078
10467W        W53520   6.355   6.321  16.199  0.1596 -0.0703  0.0309
10468W        W53521  17.097  29.732  14.860  0.1466  0.1371 -0.2675
10469W        W53522  23.526  19.989  18.105 -0.2202  0.2453  0.0537
10470W        W53523   4.685  13.297  27.049  0.0882 -0.0588 -0.1308
10471W        W53524  16.897  28.730  16.090 -0.1912 -0.1061  0.1109
10472W        W53525  16.434   5.387  16.739  0.0655 -0.1150  0.1210
10473W        W53526  21.166   4.044  22.995  0.1895 -0.2504 -0.4475
10474W        W53527  22.754  34.064  15.672 -0.3222 -0.0800  0.3680
10475W        W53528  30.279  19.829  28.069 -0.1859 -0.1944 -0.0808
10476W        W53529  23.588  34.296  27.694  0.2200 -0.2969  0.2229
10477W        W53530  23.737  31.720  15.015  0.0552  0.1882  0.5055
10478W        W53531   1.159  19.465  18.745  0.2569  0.2353 -0.1001
10479W        W53532  32.858  27.452  21.368  0.2580  0.0900 -0.0360
10480W        W53533  23.258   0.463   1.887 -0.2154  0.3223 -0.1409
10481W        W53534  13.541  20.503  14.624 -0.2216 -0.0467  0.4459
10482W        W53535  18.091  27.009  18.525  0.0302 -0.2625  0.0040
10483W        W53536   3.619  19.574   2.119  0.0986 -0.1662 -0.1610
10484W        W53537  23.329  23.604  16.633  0.2142 -0.1702  0.0885
10485W        W53538  31.554  26.628  16.868  0.1421  0.1088 -0.1641
10486W        W53539  25.180   9.002  15.776 -0.1260 -0.3805  0.1138
10487W        W53540   4.316  15.341  21.829 -0.2413  0.0350 -0.1182
10488W        W53541   3.118  30.555  27.802  0.4499  0.3582  0.0558
10489W        W53542  16.028  19.230  26.047 -0.1443  0.1313  0.5180
10490W        W53543  13.313  15.688  23.366  0.0459 -0.1336 -0.0650
10491W        W53544  28.993   4.812  18.513 -0.0126 -0.1585  0.0373
10492W        W53545  27.420  31.183  17.456  0.1118  0.2171 -0.2065
10493W        W53546  25.691  24.584  27.656 -0.0417  0.0161  0.3533
10494W        W53547  31.571  22.238  22.127  0.0497  0.0357 -0.0053
10495W        W53548  30.158  16.016  14.325 -0.0826  0.2214  0.0562
10496W        W53549  33.516  26.997  14.272 -0.1344 -0.0138  0.0353
10497W        W53550  27.465  33.004  10.112 -0.0908 -0.0771  0.1761
10498W        W53551  18.846  21.747  15.908  0.0637  0.4694 -0.0039
10499W        W53552  33.578   8.007  17.491  0.1690 -0.0977  0.4422
10500W        W53553  10.842  15.487  21.379 -0.3698 -0.2960 -0.2086
10501W        W53554   3.052   9.759  17.437  0.0246  0.0626  0.4634
10502W        W53555  28.786  22.867  19.984 -0.2455  0.3502  0.0956
10503W        W53556   2.636   6.142  26.762 -0.1589  0.3555 -0.1338
10504W        W53557  32.651   6.149  16.438  0.2169  0.3215 -0.1142
10505W        W53558   8.754  27.590  15.021 -0.0955 -0.1267  0.4609
10506W        W53559   6.919  30.513  16.107 -0.1314 -0.2795  0.1349
10507W        W53560  21.643  30.168  15.534  0.2799  0.1860 -0.1511
10508W        W53561   1.205  29.408  18.027 -0.3021 -0.0627  0.1425
10509W        W53562  17.061  22.850  22.249 -0.1916  0.0546  0.0877
10510W        W53563  26.478  23.379   7.922  0.3404 -0.0351  0.1336
10511W        W53564  32.734  20.359  17.171 -0.2192 -0.1054 -0.0369
10512W        W53565  28.873  24.679  15.568  0.1167  0.0322 -0.0729
10513W        W53566  27.979  21.340  22.771  0.2396 -0.1586  0.0368
10514W        W53567  16.102  25.850  16.367 -0.1433 -0.2965  0.0167
10515W        W53568  30.645  18.451  27.405 -0.1513  0.0036  0.2240
10516W        W53569   7.577  25.508  17.646 -0.1554  0.0921 -0.1169
10517W        W53570   0.280  12.272  26.515 -0.2642  0.0252  0.2223
10518W        W53571  12.820  25.075  22.869  0.2213 -0.3347  0.2394
10519W        W53572  19.901  15.265  21.601  0.3426 -0.0321 -0.1810
10520W        W53573  20.997  27.449  17.159 -0.2497  0.2237 -0.1046
10521W        W53574  32.643  14.010  21.618  0.2014  0.0520 -0.2602
10522W        W53575   3.294   9.773  21.675 -0.1573  0.2907 -0.0268
10523W        W53576  19.828  19.980  21.323  0.1469  0.0319 -0.0604
10524W        W53577  14.055  31.816  18.101 -0.2192 -0.0362  0.0372
10525W        W53578  22.030   3.356  14.181  0.3239 -0.2872 -0.2895
10526W        W53579   9.880  20.620  25.899 -0.0483  0.0527  0.1221
10527W        W53580  14.495  23.851   3.132  0.0000  0.0616  0.2167
10528W        W53581   0.332  26.729  14.633 -0.0697 -0.3585  0.0007
10529W        W53582  26.192  13.569  24.590 -0.0232 -0.1092  0.3699
10530W        W53583  17.474  27.615  16.434  0.0774 -0.0474  0.1081
10531W        W53584  28.834  20.583  15.581  0.4888 -0.0836  0.2987
10532W        W53585  32.440  17.975  18.457  0.0759 -0.0515  0.1202
10533W        W53586  33.690   5.205  26.485  0.0259  0.0239  0.0848
10534W        W53587  30.701  29.322  13.382 -0.0633  0.0449 -0.2904
10535W        W53588  10.883  22.458  28.668 -0.2152  0.3993  0.0158
10536W        W53589  13.248  32.050  19.590  0.0292 -0.0313 -0.3217
10537W        W53590  21.519  30.488  15.179 -0.2580  0.0454  0.3182
10538W        W53591  24.466   2.007  26.236 -0.0569  0.1779  0.1422
10539W        W53592  29.635  27.848  29.032 -0.2856 -0.1906 -0.2200
10540W        W53593  30.053  11.628  26.718  0.2823  0.2705 -0.0551
10541W        W53594  29.575  15.002  17.898  0.2077  0.1404 -0.1542
10542W        W53595  14.244  26.712   9.104 -0.3756 -0.2547  0.3618
10543W        W53596  29.320  32.280  14.724 -0.0191 -0.0302  0.1479
10544W        W53597  26.531  14.438  19.832  0.0561  0.0889 -0.0458
10545W        W53598  21.878  22.898   3.449  0.0960  0.1397 -0.0995
10546W        W53599  33.314  25.762  28.442 -0.2088  0.0718  0.2070
10547W        W53600  24.879  27.488  26.336 -0.0323  0.4018 -0.0348
10548W        W53601   3.867   8.573  22.560  0.2681 -0.0132  0.1897
10549W        W53602   3.708   2.321  28.535 -0.0157 -0.1115  0.0715
10550W        W53603  23.626  26.205  21.531  0.1563 -0.2451 -0.1659
10551W        W53604   2.853  28.014  24.140 -0.3899  0.0234 -0.1278
10552W        W53605  17.024   0.642  26.095 -0.1146  0.2585 -0.2072
10553W        W53606   9.915  33.007  15.026  0.0663 -0.0575  0.2929
10554W        W53607  17.760   9.935  18.824  0.0774  0.1816 -0.0223
10555W        W53608  21.982   3.536  16.780 -0.0076  0.0352  0.3401
10556W        W53609  24.018  30.125   0.651 -0.0085  0.0820  0.1805
10557W        W53610  15.758   9.237  18.983 -0.1046 -0.2813  0.2364
10558W        W53611   1.336  24.291  25.131  0.1387  0.0452 -0.0973
10559W        W53612  14.405  23.655   7.197 -0.1572  0.2138 -0.0162
10560W        W53613   1.435  25.730  17.227  0.3820  0.0997 -0.0633
10561W        W53614  21.092  27.961  26.258  0.1511  0.1128 -0.1394
10562W        W53615  22.999  23.694  23.113  0.0809 -0.1087 -0.2600
10563W        W53616  18.556  16.694  26.917 -0.0992  0.1069 -0.0868
10564W        W53617  22.301   1.772  14.876  0.1826 -0.1581 -0.2547
10565W        W53618  17.458  23.163  21.866 -0.3374 -0.0041  0.0171
10566W        W53619  10.211  28.152  13.938  0.0916 -0.2160 -0.2290
10567W        W53620  28.351  24.066  18.547 -0.1849 -0.1956  0.4322
10568W        W53621  28.846   3.331   2.554  0.3112 -0.0127 -0.0280
10569W        W53622   9.439  32.935  15.136  0.0909 -0.2662 -0.1133
10570W        W53623  19.301   2.145  25.934  0.2355 -0.3858 -0.2186
10571W        W53624  27.463   8.661  24.651  0.1512  0.4863 -0.3402
10572W        W53625  12.317  19.452   1.343 -0.0894  0.1849  0.2436
10573W        W53626   5.274  33.389   5.908 -0.0761 -0.0493  0.1275
10574W        W53627   9.196  31.209  16.527  0.0796 -0.3387  0.1315
10575W        W53628  32.146  32.753   2.795 -0.0295 -0.2413  0.0952
10576W        W53629   5.061  22.052  17.162  0.0038 -0.2314 -0.1136
10577W        W53630  28.246   2.505  19.164 -0.3825  0.2595  0.0078
10578W        W53631  27.283  27.864  26.604  0.2614  0.2101  0.0829
10579W        W53632  27.690  19.236   1.396  0.2347  0.1007  0.3332
10580W        W53633  25.262  22.229  26.733 -0.0013  0.2177 -0.0314
10581W        W53634  14.695  23.659  20.319  0.3004  0.1784  0.1436
10582W        W53635   6.674  24.438   4.814  0.0709 -0.1074 -0.2344
10583W        W53636  21.207  32.366  14.367  0.1493  0.0993 -0.2370
10584W        W53637  18.004   0.853  19.374 -0.1631  0.2837  0.0863
10585W        W53638   0.182  31.680  27.125 -0.5019  0.0500  0.0027
10586W        W53639  21.842   4.520  18.699  0.2534  0.0311 -0.0143
10587W        W53640  13.578  22.964  23.904 -0.1783  0.2251 -0.1662
10588W        W53641  19.136  27.357  22.766 -0.2532 -0.0631 -0.0479
10589W        W53642  11.973   4.549  25.666  0.0626 -0.0235  0.0697
10590W        W53643  20.185  29.555  22.859 -0.0044  0.1672 -0.2434
10591W        W53644  27.541  25.984  17.730  0.0011 -0.1667 -0.1118
10592W        W53645  33.625  30.103  20.001  0.0775  0.4315  0.1981
10593W        W53646  34.097  30.223  20.710 -0.0035 -0.0498 -0.0984
10594W        W53647  19.852  23.411  16.099 -0.1543 -0.1138  0.4820
10595W        W53648  18.226  16.787  13.003  0.2245 -0.1210 -0.0995
10596W        W53649   1.369  24.703  22.422 -0.4113 -0.0650  0.1483
10597W        W53650  13.456  25.033  19.193  0.1648 -0.0489  0.0652
10598W        W53651   2.007  27.444  15.979  0.3669  0.0359 -0.0399
10599W        W53652  20.793  31.200  18.041 -0.0796 -0.2423 -0.1069
10600W        W53653  11.910  21.731  13.898 -0.2731  0.2289  0.0038
10601W        W53654  31.842  17.221  22.519  0.0536 -0.1089 -0.3300
10602W        W53655  24.612  21.221  15.937 -0.0447 -0.0566 -0.0825
10603W        W53656  12.412   0.354  24.856 -0.0718  0.2280 -0.0191
10604W        W53657  19.447   0.848  29.112  0.0642 -0.2893  0.1415
10605W        W53658  33.676  33.496  27.694 -0.4492  0.2327  0.1400
10606W        W53659  23.567  29.434  28.997  0.0841  0.0459 -0.0739
10607W        W53660  17.004  25.791  16.325 -0.3905  0.2808 -0.0453
10608W        W53661   3.502  26.679  21.957 -0.1073  0.2637  0.1953
10609W        W53662  30.905   3.963  16.060 -0.0429  0.1441 -0.0800
10610W        W53663  27.277   2.396  25.695  0.0175 -0.0921 -0.0632
10611W        W53664   7.213   1.949  19.957  0.2375  0.0756 -0.3075
10612W        W53665   0.881  22.418  16.834 -0.1356 -0.1876 -0.3652
10613W        W53666  14.537  17.056  13.909  0.1999 -0.1926 -0.1879
10614W        W53667  18.876   1.995  18.447  0.0572  0.3552  0.2235
10615W        W53668  25.661  27.813  14.687 -0.2300 -0.1169 -0.1883
10616W        W53669  24.078  10.696  22.827  0.1948  0.0848 -0.2386
10617W        W53670  24.190  27.828  15.768 -0.0185 -0.0395  0.0104
10618W        W53671  28.428  28.148  17.156 -0.0020  0.0946  0.1376
10619W        W53672  10.912  14.951  22.367 -0.4041 -0.0781 -0.2684
10620W        W53673  30.115  11.630   4.069  0.1953 -0.1381  0.0345
10621W        W53674  23.804  17.043  16.568  0.0176 -0.0337  0.0862
10622W        W53675  23.602  28.959   1.551 -0.1112 -0.0549  0.3199
10623W        W53676  23.257  31.316  15.235 -0.3875 -0.2678 -0.1180
10624W        W53677  25.385  21.432  15.545  0.0630  0.0499 -0.5137
10625W        W53678  31.490   4.613  15.321 -0.0124 -0.1242 -0.0655
10626W        W53679  27.107  12.485  25.801  0.1013  0.0341  0.1596
10627W        W53680   0.839  15.673  26.862  0.0473  0.3343  0.2507
10628W        W53681   8.688   4.243  28.076  0.0065 -0.3139  0.1063
10629W        W53682  25.920  14.707  12.951 -0.1209  0.1825 -0.2401
10630W        W53683  26.345   0.102  26.778 -0.0291  0.0892 -0.0158
10631W        W53684   4.335  31.780  16.894  0.0009  0.0150 -0.1347
10632W        W53685  21.082  33.190  17.002  0.2887 -0.3157  0.0896
10633W        W53686  14.716  32.272  16.047  0.1140 -0.1577 -0.1865
10634W        W53687  33.377   3.969  25.209 -0.1585  0.0970 -0.4184
10635W        W53688   1.678  15.365  22.057 -0.2220  0.0692 -0.1717
10636W        W53689   8.981  30.645  21.581 -0.0330  0.1200  0.0677
10637W        W53690  13.827  21.792   2.437 -0.2988  0.1069  0.2361
10638W        W53691   5.573  24.463  20.905  0.3042 -0.0453  0.0019
10639W        W53692  30.374  33.577  18.478 -0.0878  0.1941  0.0294
10640W        W53693   2.223  27.812  16.776 -0.1152  0.0125  0.0381
10641W        W53694  18.417  23.990  14.723 -0.2728  0.0011  0.2951
10642W        W53695  23.099  26.332  21.573  0.0281  0.0386  0.0936
10643W        W53696  22.924   1.544   2.009  0.1372  0.0621 -0.1746
10644W        W53697  32.566  15.018  14.329  0.0657 -0.2412 -0.4732
10645W        W53698   6.941   7.351  14.808 -0.0119 -0.0530  0.0111
10646W        W53699  28.409  27.280  14.605 -0.1478 -0.3002  0.1743
10647W        W53700  22.765   2.460  20.583 -0.2070 -0.1432  0.1992
10648W        W53701   3.687  18.931  24.869 -0.0443 -0.0812  0.0554
10649W        W53702  31.167  33.603  24.401 -0.2520 -0.2456  0.0242
10650W        W53703   4.753  29.708  17.296 -0.1562  0.0921  0.1527
10651W        W53704  19.259   6.553  17.343  0.1349  0.2322 -0.0471
10652W        W53705  11.048  23.684  14.373  0.1608 -0.0661 -0.1261
10653W        W53706  16.856  26.487   7.844 -0.1812  0.0511  0.2238
10654W        W53707  26.358  12.910  24.449 -0.0192 -0.2527  0.0428
10655W        W53708   0.777   2.407  17.807  0.3199 -0.3820 -0.4523
10656W        W53709  24.283  22.418  23.112  0.1524  0.1562 -0.2870
10657W        W53710  15.681  24.572  16.208 -0.0906 -0.1762 -0.0597
10658W        W53711   0.059  21.259   2.280 -0.2169 -0.0752  0.0274
10659W        W53712  19.813  19.942  22.758  0.0276  0.3813 -0.0465
10660W        W53713   4.261   1.089   4.735  0.1466 -0.1691  0.1026
10661W        W53714  15.525  25.141  25.299  0.0831 -0.1162  0.4484
10662W        W53715  22.171  14.068  17.312 -0.0069  0.1862 -0.1781
10663W        W53716  27.983  20.399  23.789  0.2173 -0.0506  0.0095
10664W        W53717  22.938  18.127  13.808  0.2471 -0.2865  0.1122
10665W        W53718  22.246   8.756  21.738  0.3661 -0.1502  0.1709
10666W        W53719  10.882  29.642  14.779 -0.1479 -0.1205  0.0041
10667W        W53720  25.142  30.034  25.788  0.0645  0.2561 -0.3458
10668W        W53721  15.826   0.557   3.849  0.0156 -0.3189  0.1241
10669W        W53722   5.726   6.538  21.690 -0.1834 -0.0569  0.2259
10670W        W53723  34.380  32.681  19.361  0.0698 -0.2548 -0.2022
10671W        W53724  18.749  19.709  15.863  0.2706 -0.0158 -0.0628
10672W        W53725  28.846  30.532  20.157 -0.4456  0.0154 -0.0051
10673W        W53726  18.227  33.103  15.260 -0.0706 -0.1037 -0.1011
10674W        W53727  33.196   0.334  21.831 -0.0042  0.0650  0.1316
10675W        W53728  19.334  34.403  14.430 -0.1081  0.1864 -0.0695
10676W        W53729  25.286  14.627  18.200  0.0876 -0.1085  0.3038
10677W        W53730   1.073  28.722  14.984 -0.2649 -0.0268  0.2363
10678W        W53731  33.191  34.185  19.988 -0.4952 -0.0214  0.0751
10679W        W53732   3.716   0.861  19.710 -0.1051 -0.0755  0.1449
10680W        W53733  19.351   4.203  15.987 -0.0501 -0.3406  0.2861
10681W        W53734  31.583   4.093  21.974 -0.1415 -0.1302 -0.1892
10682W        W53735  28.194  30.886  18.705 -0.1926 -0.2027  0.1776
10683W        W53736  22.368   6.876  19.221  0.1650 -0.0901 -0.1889
10684W        W53737  10.705  19.748  15.071  0.0170 -0.2144  0.0412
10685W        W53738   1.795  22.303  18.162 -0.2257  0.1271  0.1598
10686W        W53739  11.447  29.507  16.127 -0.0142  0.2985 -0.1209
10687W        W53740   2.522  14.736  22.545  0.1419  0.0614  0.0381
10688W        W53741  13.032  21.591  25.853 -0.3180  0.2617  0.1516
10689W        W53742  18.032  23.878  13.614 -0.0788  0.0051  0.0175
10690W        W53743   4.315  26.734   1.478 -0.3930 -0.2789  0.2418
10691W        W53744  27.714   1.850  24.441 -0.2270 -0.0404  0.2282
10692W        W53745   7.634  18.803  20.802 -0.2893 -0.0334 -0.1989
10693W        W53746  23.238   0.747  18.861  0.0461 -0.1573 -0.0162
10694W        W53747  26.735  32.006  24.667  0.1413 -0.2834  0.0427
10695W        W53748  16.947  29.629  22.194 -0.0084  0.0979 -0.1506
10696W        W53749  16.622   6.235  21.156 -0.1964  0.1925  0.0363
10697W        W53750  24.638  31.108   4.765 -0.3005 -0.0914  0.0806
10698W        W53751  12.307  14.588  24.571  0.2158 -0.0241 -0.1026
10699W        W53752  26.603   1.820  27.113 -0.2463  0.0329 -0.1107
10700W        W53753  14.698  21.386  18.711  0.0609 -0.0316 -0.2039
10701W        W53754  10.912  17.962  20.876  0.1208  0.0950  0.0611
10702W        W53755  20.704  33.495  21.651  0.2103 -0.3836 -0.2554
10703W        W53756  28.963   8.250   0.833  0.4273  0.0356 -0.0355
10704W        W53757  28.947  21.617  14.901  0.3520  0.1327 -0.0273
10705W        W53758  17.886  29.639  23.131  0.0680 -0.3157 -0.0309
10706W        W53759  28.195  29.075  24.821  0.2946 -0.0596  0.1939
10707W        W53760  31.059  22.714  17.032  0.1525  0.2873  0.0002
10708W        W53761  12.224  29.694  21.391  0.0249  0.0760  0.0895
10709W        W53762  25.540   4.757  18.736  0.1103 -0.1950  0.1481
10710W        W53763  31.596  12.880  28.464 -0.1591  0.3421 -0.1688
10711W        W53764  25.039  16.891  22.059 -0.0502  0.5005 -0.2882
10712W        W53765  15.042  25.108  26.436  0.0448 -0.3063 -0.0550
10713W        W53766  17.294  17.994  13.846 -0.0928 -0.3285  0.0835
10714W        W53767  33.935   1.922  27.361 -0.3042  0.1016  0.2393
10715W        W53768  16.611   1.745  27.531  0.0987  0.1707 -0.5743
10716W        W53769  13.378   4.484  25.332 -0.0855 -0.0552  0.1774
10717W        W53770  11.986  22.404   6.281 -0.2730 -0.1651 -0.0214
10718W        W53771   0.753  17.417  20.435  0.2372  0.6449 -0.1841
10719W        W53772   4.145  32.834  28.340  0.0259  0.1613 -0.0567
10720W        W53773   4.674  34.548  19.231 -0.0022 -0.0492 -0.0982
10721W        W53774   6.381   4.251  15.605  0.0742 -0.2413 -0.3436
10722W        W53775  33.254   1.303   0.873  0.0410  0.1464  0.2782
10723W        W53776  23.797   2.917  10.326  0.0539 -0.0702 -0.1007
10724W        W53777   7.269   5.113  21.814  0.1221 -0.1991 -0.4842
10725W        W53778   0.871  31.901  15.400 -0.0019  0.2670  0.1017
10726W        W53779  29.854  27.156   7.174 -0.1820 -0.1025 -0.0630
10727W        W53780  13.614   9.195  18.818 -0.0208  0.2618 -0.1560
10728W        W53781  30.786  25.722  17.251 -0.1639 -0.0433 -0.2258
10729W        W53782  27.444  30.151   6.620  0.5575  0.0343  0.1541
10730W        W53783  29.219  23.685  24.771 -0.0379 -0.1013  0.1566
10731W        W53784  26.245   7.372  18.104  0.0584 -0.1196  0.3258
10732W        W53785  25.953  16.396  18.974 -0.0107  0.0616  0.2290
10733W        W53786  32.560   3.756  15.493 -0.1771  0.0334  0.0947
10734W        W53787   3.184   8.697   2.066 -0.1885 -0.0461  0.1220
10735W        W53788  27.256  17.529  20.001  0.0459 -0.2222  0.5177
10736W        W53789   4.366   2.989  28.176  0.1170  0.1111 -0.0033
10737W        W53790  14.049  27.595  19.392 -0.0105 -0.1104  0.2064
10738W        W53791  24.800  23.441  29.087 -0.3080  0.3860 -0.2637
10739W        W53792  32.200   0.985  20.000 -0.1008  0.0762 -0.0052
10740W        W53793  28.208  31.840   1.340  0.0726 -0.0016  0.3180
10741W        W53794   7.559  32.049  18.719 -0.4325 -0.1120  0.1211
10742W        W53795  26.926  30.830   2.648  0.0318  0.0347 -0.0761
10743W        W53796  25.131  34.420  14.704  0.0997 -0.0951 -0.0250
10744W        W53797  33.594  33.529  16.352 -0.1948 -0.2539 -0.0125
10745W        W53798  19.726   0.699  20.148  0.0137  0.0915  0.0038
10746W        W53799  26.623  17.655  20.104  0.1192  0.0914 -0.2067
10747W        W53800  26.648  12.455  22.697 -0.0414  0.1239 -0.1006
10748W        W53801  21.001  14.335   5.734 -0.1360 -0.0798  0.0142
10749W        W53802  31.572  16.470  14.745  0.0140 -0.2226 -0.0191
10750W        W53803  23.735  15.757  22.766  0.1675  0.0943  0.0508
10751W        W53804  16.315  29.927  28.845 -0.1595  0.1201 -0.1189
10752W        W53805  26.436   0.342  21.739  0.1622 -0.1941  0.3293
10753W        W53806  25.165   7.591  28.427  0.1415  0.4626  0.0993
10754W        W53807  33.193  13.431  21.982  0.0934 -0.1660  0.2118
10755W        W53808  25.707  28.708  21.695 -0.0123  0.0486  0.0093
10756W        W53809  29.557  13.793  27.907 -0.2257  0.0340  0.3533
10757W        W53810  32.271  33.240  20.317 -0.0433  0.3973  0.0465
10758W        W53811   9.456  11.022   1.839 -0.0274  0.1904 -0.0592
10759W        W53812  17.609  18.956  25.723  0.0888 -0.3788  0.1608
10760W        W53813  23.849  20.234  25.012  0.1051  0.1988 -0.3621
10761W        W53814  31.076  29.369  27.578 -0.1666  0.1321 -0.1325
10762W        W53815  13.895  13.186  16.775  0.0060 -0.1273 -0.2306
10763W        W53816  27.719   4.085   7.278  0.3267  0.3094 -0.1648
10764W        W53817   1.422  28.490  17.723 -0.1027 -0.3110  0.2032
10765W        W53818   2.364   1.161  23.037  0.0341 -0.0720 -0.0500
10766W        W53819  26.330  22.995  23.615  0.1730  0.2693 -0.1301
10767W        W53820  15.514   1.192  21.458 -0.0038 -0.1137  0.0041
10768W        W53821  26.176  24.198  28.485  0.2062  0.0061 -0.1074
10769W        W53822  30.618  34.648  20.369 -0.0149  0.0461  0.0936
10770W        W53823  20.569  24.884  25.484 -0.0636  0.0415  0.0578
10771W        W53824  23.010  13.700  13.605 -0.2859  0.0783  0.0641
10772W        W53825   3.239  32.440  26.537  0.0345 -0.2024 -0.2283
10773W        W53826   2.103  18.108  20.689  0.2008  0.3531  0.3509
10774W        W53827   5.451  21.383  19.888  0.0871  0.0511  0.4525
10775W        W53828  23.895   1.667  23.292  0.2824  0.0016  0.1690
10776W        W53829  16.853  30.399  17.017 -0.1487  0.1068 -0.0944
10777W        W53830  32.418   2.634   4.285  0.1345  0.0525 -0.1581
10778W        W53831  16.098   0.433   3.301  0.0039 -0.2771 -0.2148
10779W        W53832  11.515  23.399   5.721 -0.0339 -0.0127 -0.0600
10780W        W53833  16.477  21.871  16.058  0.0516 -0.3491  0.1115
10781W        W53834  28.716  33.239  21.467 -0.1075  0.1094  0.1370
10782W        W53835  17.078   1.690  17.196 -0.1052 -0.0504 -0.2086
10783W        W53836  18.979  31.462  15.422 -0.0546  0.0683 -0.0156
10784W        W53837  12.075  26.632  18.862  0.2659 -0.0504  0.4437
10785W        W53838  14.703  22.798  21.611  0.3253 -0.1603  0.1667
10786W        W53839  19.393  21.389  21.441 -0.0535  0.2264 -0.1260
10787W        W53840   5.370  28.821  26.141 -0.0771  0.0608 -0.4895
10788W        W53841  24.474  28.736  26.407 -0.0550 -0.0736  0.0995
10789W        W53842  32.580  30.199  19.572  0.1917  0.1798  0.0845
10790W        W53843  27.095  18.503  20.011 -0.0663  0.0036  0.1520
10791W        W53844  15.758   5.834  24.915 -0.0955  0.1487  0.1458
10792W        W53845  19.246  24.128  18.311  0.0955  0.1146  0.2870
10793W        W53846   9.199  32.582  18.486  0.3243  0.0817  0.2899
10794W        W53847   7.301  22.890   5.073  0.3689 -0.2133  0.0772
10795W        W53848  22.325  21.332  18.371  0.0391 -0.0437 -0.0401
10796W        W53849  22.258  34.205  18.981  0.0888  0.1434  0.0571
10797W        W53850  26.267   4.399  27.585 -0.0274 -0.0858  0.0529
10798W        W53851  29.671  15.365   5.745  0.0616 -0.0233  0.1758
10799W        W53852  23.165  17.875  16.804  0.1669 -0.0946  0.4100
10800W        W53853   7.513   5.856  20.183 -0.1895  0.2936  0.1675
10801W        W53854   0.393  16.782   0.003  0.1638 -0.0393 -0.2025
10802W        W53855  34.639  28.175  27.811  0.0111  0.0951 -0.0877
10803W        W53856  24.895   2.032  16.099  0.0450 -0.0110 -0.1380
10804W        W53857   4.933  29.928  28.393 -0.1357  0.2361 -0.0341
10805W        W53858  19.286   4.954  20.769 -0.2375 -0.1116  0.1173
10806W        W53859  32.856   0.599  24.636  0.0178  0.2036  0.2986
10807W        W53860  12.397  27.419  20.053  0.1651 -0.3361  0.0676
10808W        W53861  19.320  31.225  14.108  0.4783  0.0191  0.1792
10809W        W53862  22.569   7.263   3.113 -0.0108  0.2898 -0.0152
10810W        W53863  25.101  25.533  22.669 -0.1893  0.1037  0.0879
10811W        W53864  28.293  32.475  21.102 -0.0811 -0.3250 -0.3473
10812W        W53865  22.482   2.072  21.241  0.0253 -0.1480  0.1641
10813W        W53866  17.080  21.890  15.253 -0.0732 -0.2206 -0.0104
10814W        W53867   5.855  23.153  21.462 -0.0973 -0.1068 -0.2244
10815W        W53868  19.713   3.968  17.542 -0.0605  0.0741 -0.0616
10816W        W53869  34.307  26.988  22.437  0.2383 -0.1257 -0.2044
10817W        W53870  32.346  11.711  19.128 -0.0781  0.1327  0.0760
10818W        W53871   2.375   2.087  17.714 -0.1540  0.3976  0.0911
10819W        W53872  17.071  28.551  25.507 -0.2117  0.2710  0.0220
10820W        W53873   5.111  25.326  19.171 -0.0374  0.0906  0.1708
10821W        W53874  15.427  21.419  20.393  0.3275 -0.2130 -0.1437
10822W        W53875   4.392  27.512  27.172  0.2681 -0.3257 -0.0023
10823W        W53876  31.003  18.637  19.892  0.1319  0.2656  0.2535
10824W        W53877  16.830  23.302  24.168 -0.2484 -0.0171  0.1844
10825W        W53878  20.495   0.976  21.351 -0.0935  0.0362 -0.0440
10826W        W53879  27.885   3.278  27.134  0.4417  0.1228 -0.0857
10827W        W53880  31.850   3.917  16.356 -0.0151  0.1261  0.1615
10828W        W53881  30.515  10.405  23.908  0.0440 -0.0633 -0.2168
10829W        W53882  31.473   2.640  20.434 -0.0978 -0.1967  0.0824
10830W        W53883  19.247  31.251  25.162  0.0598  0.1797  0.0383
10831W        W53884   4.776  20.643  21.845 -0.1103 -0.2164  0.3012
10832W        W53885  25.916  31.764  25.167 -0.3347  0.1150  0.0096
10833W        W53886  19.111  33.093  24.396  0.0196  0.0131 -0.3176
10834W        W53887   1.748   2.768  24.608  0.1182  0.0974 -0.0391
10835W        W53888  12.853   3.729  17.398  0.1707 -0.0208  0.0274
10836W        W53889  23.191   4.834  19.104  0.0242 -0.1959  0.0120
10837W        W53890  29.190   4.460   0.384  0.3403  0.1764  0.1856
10838W        W53891  18.650  33.816  17.534  0.0566 -0.2864  0.2674
10839W        W53892  31.489  22.788  24.011 -0.1317  0.1572  0.0306
10840W        W53893  28.665  23.893  26.509  0.2123  0.2435 -0.0475
10841W        W53894  32.268   3.259  24.540  0.3052  0.0567 -0.0715
10842W        W53895   1.567  20.065   9.179  0.0569 -0.0883 -0.2054
10843W        W53896   7.319  33.855  15.365 -0.2374  0.0303 -0.0426
10844W        W53897  25.731   2.133  18.875  0.0567 -0.1886 -0.0517
10845W        W53898  10.678  33.942   1.913 -0.1795  0.3157  0.1160
10846W        W53899  11.750  32.541  24.992 -0.3331  0.1007  0.0504
10847W        W53900  10.757  19.040  17.775 -0.1440  0.0621 -0.1851
10848W        W53901  21.897   7.323  17.282  0.0120  0.0558 -0.0749
10849W        W53902   4.284  26.915  21.085  0.0381 -0.1041  0.0641
10850W        W53903  23.721  24.442  20.072  0.1589  0.0607  0.2029
10851W        W53904  27.615  27.888   2.292 -0.2581 -0.0979  0.3762
10852W        W53905  28.872   2.589  19.532  0.2258 -0.0978 -0.2860
10853W        W53906  15.116   3.862   0.657  0.1981  0.0265 -0.0252
10854W        W53907  21.982  26.175  22.992  0.3075  0.1358  0.1308
10855W        W53908  20.893  17.284  26.298  0.4126 -0.2066 -0.2005
10856W        W53909  17.999  23.704  15.194 -0.1315 -0.0302  0.0600
10857W        W53910  13.941   1.111  16.715 -0.2011  0.1791 -0.4356
10858W        W53911   4.364  24.145   3.565 -0.1396 -0.0084  0.0348
10859W        W53912  12.427  17.726   8.495 -0.1975  0.0621 -0.1062
10860W        W53913  11.950  16.092   1.166 -0.1752 -0.2147  0.0886
10861W        W53914  14.386   4.576  20.356  0.3595 -0.1362 -0.4349
10862W        W53915  27.700   7.878   1.523  0.0084 -0.0779 -0.1168
10863W        W53916  26.618   5.098  19.724  0.3145  0.0699 -0.0894
10864W        W53917   4.537  15.575   5.358 -0.0500 -0.2199  0.0193
10865W        W53918  23.824  27.618   2.552 -0.0852  0.2714  0.4125
10866W        W53919  22.593   4.100   4.715 -0.0106  0.0753 -0.1131
10867W        W53920  28.779  21.438   3.393 -0.2743 -0.0445  0.0433
10868W        W53921  26.553  29.101  26.163  0.0031 -0.0597  0.2735
10869W        W53922   1.477  34.067  17.947 -0.1508 -0.2969 -0.2866
10870W        W53923  24.289   1.935  22.758  0.0057 -0.0515 -0.0080
10871W        W53924   9.107  29.070   1.782 -0.1862  0.1972 -0.3871
10872W        W53925  29.632  24.816   6.851 -0.0319 -0.1181  0.4461
10873W        W53926  13.898  23.178  20.538 -0.2393  0.3137 -0.0401
10874W        W53927  18.973  32.797   5.846  0.1937  0.0794 -0.1534
10875W        W53928  29.082  18.573  26.728  0.0404  0.3234  0.0148
10876W        W53929  26.586  27.442  27.200  0.0502  0.0927 -0.2205
10877W        W53930  20.978  24.323  20.321  0.1293  0.1174  0.2077
10878W        W53931  16.282  22.418  20.707  0.1307 -0.2874 -0.0718
10879W        W53932  16.293  18.558  28.297  0.0544  0.0325  0.2483
10880W        W53933  29.240  26.623   3.198 -0.1303 -0.1340  0.0587
10881W        W53934  18.232  27.861   5.980  0.1786  0.1052  0.0770
10882W        W53935  15.631  14.037   4.956  0.2864  0.1089 -0.1483
10883W        W53936  21.891  26.637  18.570  0.1120 -0.0589  0.0225
10884W        W53937   7.880  15.202  23.680 -0.1835  0.0850 -0.2500
10885W        W53938   0.704   4.881  14.788 -0.1371 -0.2500  0.3011
10886W        W53939  22.166   8.241   4.910 -0.1535  0.1973 -0.0306
10887W        W53940  30.807   5.170   0.403 -0.1131 -0.0010 -0.0937
10888W        W53941  28.328  16.794  17.458  0.1104 -0.0526  0.1862
10889W        W53942  12.470  26.920  15.899  0.2211 -0.3201 -0.0457
10890W        W53943  20.918  25.564  15.541 -0.4138 -0.0580  0.3144
10891W        W53944  29.853  32.802  25.699  0.2524 -0.5435 -0.3556
10892W        W53945  27.516  17.886  19.745  0.1407  0.1716  0.0575
10893W        W53946  22.413  12.446  23.611 -0.0457  0.3015 -0.0550
10894W        W53947  26.707  33.878  21.002  0.0827 -0.0594 -0.0943
10895W        W53948  33.063  21.573   2.027 -0.0945  0.0916 -0.1661
10896W        W53949  18.103   9.479  26.995 -0.0428 -0.4429  0.0512
10897W        W53950  32.431  20.287   6.257 -0.3428 -0.2925 -0.0587
10898W        W53951  17.523  15.108   8.303  0.1767 -0.0467 -0.0831
10899W        W53952  22.876  33.367  20.370  0.0986  0.0136 -0.0909
10900W        W53953  13.919  32.617  21.871 -0.2995 -0.0033  0.1486
10901W        W53954  27.644  17.450  28.763 -0.4246 -0.1476  0.0808
10902W        W53955  23.660  32.802  24.633  0.0221 -0.2632  0.1508
10903W        W53956  32.189  16.063  24.631 -0.2921 -0.1435  0.0604
10904W        W53957  32.672  32.317  20.795  0.0041 -0.0004 -0.1421
10905W        W53958  32.726   5.522  26.667  0.0558 -0.2194 -0.0994
10906W        W53959  18.846  10.065   3.794 -0.0691 -0.0457  0.1381
10907W        W53960  31.773  30.323  18.374  0.0581 -0.0027  0.0842
10908W        W53961  23.201  22.135  21.038 -0.1843 -0.1303 -0.1623
10909W        W53962  23.825  24.526  21.509  0.1460 -0.1782  0.1307
10910W        W53963  27.697  27.899   7.798 -0.2263  0.0771 -0.0128
10911W        W53964   4.730  24.634  28.641 -0.1519 -0.1381 -0.0217
10912W        W53965  29.862   6.628  21.185  0.1166  0.2445 -0.2795
10913W        W53966  31.583  33.959  15.489 -0.0085 -0.1219 -0.0735
10914W        W53967  23.315  22.929  24.824 -0.1894  0.1103  0.0856
10915W        W53968  15.993  15.856  28.701  0.0259  0.2655 -0.0510
10916W        W53969  18.023  29.989  13.937  0.1880 -0.1040 -0.1206
10917W        W53970  28.592  25.107  18.173 -0.1344  0.1387 -0.1823
10918W        W53971  13.831  18.284  14.998  0.1970  0.1615  0.0244
10919W        W53972  16.959  21.668   8.483  0.3995  0.1936  0.0424
10920W        W53973   0.212  29.077  26.411  0.1241  0.2209  0.2174
10921W        W53974  33.702   1.210  18.379  0.0874  0.1214  0.1441
10922W        W53975  20.470  27.333  20.287 -0.3349 -0.0555  0.0335
10923W        W53976  34.530  25.139  27.013 -0.1982 -0.1432 -0.1715
10924W        W53977  31.263   3.259  20.342 -0.0404 -0.1399  0.3926
10925W        W53978  18.635   4.387  22.847 -0.1713 -0.1295  0.0532
10926W        W53979  21.207  28.010  20.508  0.0759  0.1180  0.0668
10927W        W53980  21.899  18.182   1.567 -0.1736 -0.0483  0.1182
10928W        W53981   6.095  34.624   8.780  0.0489  0.0007 -0.0265
10929W        W53982   9.406  16.258   2.927  0.1481 -0.1768  0.0159
10930W        W53983  23.969  23.776  29.042 -0.3005 -0.3290  0.3283
10931W        W53984  31.826  33.229  21.141  0.1787 -0.1164  0.3497
10932W        W53985  18.867  26.699  25.179 -0.0368 -0.0979 -0.1885
10933W        W53986  32.347   4.624  15.841 -0.1045 -0.0096  0.0822
10934W        W53987  33.657  27.985   3.894 -0.1861  0.0018  0.1474
10935W        W53988  20.685  11.905  27.022 -0.1972  0.1037 -0.3863
10936W        W53989  13.566  26.819  25.339  0.0730 -0.2888 -0.2714
10937W        W53990  23.107  32.740  28.483  0.3070 -0.6137  0.2620
10938W        W53991  23.080  27.861  13.406  0.0274 -0.1377  0.0059
10939W        W53992  26.224   6.127  16.665 -0.2810  0.1704  0.1002
10940W        W53993  22.502  12.049  21.691 -0.0424  0.1503  0.4226
10941W        W53994  30.674   3.096   1.469  0.1628  0.1989 -0.1559
10942W        W53995   9.562  32.966   7.173 -0.0852  0.1268  0.0735
10943W        W53996  25.328  31.119  18.423  0.0204  0.2058 -0.0742
10944W        W53997  15.472  10.831   4.143 -0.3016 -0.0765  0.1839
10945W        W53998   7.846  34.003  21.343 -0.1909  0.3466  0.1436
10946W        W53999  19.936   5.643  10.303 -0.1517  0.3700 -0.0484
10947W        W54000  24.826  19.118  15.892  0.0884 -0.2852 -0.2559
10948W        W54001  32.940  28.835   1.808  0.2520  0.1065  0.1289
10949W        W54002  17.858  32.354  14.241  0.0130  0.1271 -0.0222
10950W        W54003  28.779  27.417  22.799  0.1071 -0.1100 -0.0561
10951W        W54004  13.098  16.458  14.706  0.4918  0.1339  0.1692
10952W        W54005  27.297   6.209  20.167 -0.3264 -0.0090 -0.1905
10953W        W54006  29.868  24.500  21.514 -0.1756 -0.0386 -0.0853
10954W        W54007  30.453   3.586   7.228  0.1294 -0.0438 -0.2763
10955W        W54008  16.289  26.987   2.703  0.2379  0.0526  0.0718
10956W        W54009  29.726  15.389  23.363 -0.0073  0.1332 -0.2395
10957W        W54010  25.888  30.478  19.218 -0.0393  0.3671  0.0973
10958W        W54011   2.750  30.710  25.402 -0.2755  0.3652 -0.1795
10959W        W54012  20.140  31.322  18.741  0.0580 -0.2428 -0.1186
10960W        W54013  22.965  17.582  16.377 -0.0139  0.2790 -0.1972
10961W        W54014   9.818   3.955  15.492  0.3160  0.1080 -0.0194
10962W        W54015  26.887  29.640  17.944 -0.0803 -0.0791  0.1795
10963W        W54016  22.267   3.322  28.580  0.0292 -0.4639 -0.0304
10964W        W54017  23.726  21.298  21.397 -0.0754 -0.1761  0.1237
10965W        W54018  20.452   9.259   6.670 -0.0590 -0.0691 -0.1049
10966W        W54019  20.391   6.870  26.208 -0.3048 -0.1653 -0.0345
10967W        W54020   9.985   7.830  23.405 -0.4630  0.1241  0.1054
10968W        W54021  19.238  28.055  20.053 -0.0584 -0.2246  0.2095
10969W        W54022  31.300   6.527  23.096 -0.0134 -0.0442 -0.1446
10970W        W54023   8.719  23.764  20.029 -0.1978  0.1229  0.2173
10971W        W54024   7.650   0.733  14.955 -0.0983 -0.0738 -0.2207
10972W        W54025  17.973  10.536  21.086  0.0133 -0.0870 -0.3046
10973W        W54026  31.465  25.895  29.063  0.0289 -0.1729 -0.0289
10974W        W54027  18.515  25.574   3.676 -0.0309  0.1735 -0.0762
10975W        W54028  16.509  13.404  25.762 -0.6426 -0.1115 -0.3300
10976W        W54029  26.855   9.583   7.994 -0.0558  0.1673 -0.2806
10977W        W54030  23.402  24.585  28.698  0.0501  0.0816  0.0294
10978W        W54031  22.235  28.818  19.895 -0.3668  0.0299 -0.1336
10979W        W54032   9.602  28.011  15.380  0.1714 -0.1734 -0.0526
10980W        W54033  20.691   5.858   0.233  0.0854 -0.1311  0.3645
10981W        W54034  20.837  32.845  16.265 -0.3884  0.1516  0.1182
10982W        W54035  29.364  15.090  21.591 -0.1570  0.1775  0.0853
10983W        W54036  24.061   1.372   8.622 -0.1575  0.0364 -0.0607
10984W        W54037  32.017  19.868  19.745 -0.0118 -0.2325  0.0748
10985W        W54038  27.911  33.403  19.596 -0.3921 -0.0750 -0.3798
10986W        W54039  20.128  27.484  20.015 -0.1700 -0.0113 -0.1297
10987W        W54040   5.754   2.894  21.941  0.0739 -0.1722 -0.1268
10988W        W54041   8.140  24.441  20.597  0.3188 -0.1036  0.1891
10989W        W54042  25.029   1.666  25.303  0.1384 -0.2611 -0.0221
10990W        W54043  10.080   0.162  16.775 -0.1920 -0.2421 -0.1833
10991W        W54044  24.779  33.491   8.958  0.1757  0.0161 -0.3203
10992W        W54045  19.266  32.867  14.633  0.0930  0.1350  0.0382
10993W        W54046   1.438  29.306  19.834  0.3382 -0.1580  0.1807
10994W        W54047  21.424  27.942  25.692  0.1528  0.1366 -0.0638
10995W        W54048  32.881  18.282  17.547 -0.3176 -0.1595  0.0591
10996W        W54049  29.847   1.142   5.694 -0.2130  0.0514  0.0645
10997W        W54050  24.046  22.847   3.763  0.0782 -0.0385  0.3718
10998W        W54051  26.746  22.911  28.117  0.3081 -0.0955  0.0556
10999W        W54052  29.048  21.003   8.101  0.3499 -0.1111  0.2374
11000W        W54053  30.534  20.925   4.423 -0.0485 -0.1206  0.2610
11001W        W54054  29.848  28.567   6.788 -0.0242  0.2179  0.0892
11002W        W54055  32.069  33.580  15.950 -0.2607  0.2269  0.2194
11003W        W54056  18.318  24.618  20.060  0.1690  0.3401  0.2916
11004W        W54057  18.692  28.775   7.215  0.3924  0.1090 -0.2689
11005W        W54058  17.616  11.075  25.651  0.0833  0.2746  0.0322
11006W        W54059  21.964  26.865   8.463  0.2483 -0.0281  0.4794
11007W        W54060  21.264  18.640  22.333  0.1242 -0.1303  0.1550
11008W        W54061   2.034   4.464  14.800 -0.0822  0.0457  0.0737
11009W        W54062   7.274  29.305  20.968  0.6168  0.4143  0.1572
11010W        W54063   5.689  31.444   3.581 -0.1822 -0.5539 -0.3388
11011W        W54064   0.774  27.300   7.903  0.0393 -0.1363 -0.1484
11012W        W54065   2.245  25.545  17.749 -0.0333  0.1864 -0.1412
11013W        W54066  27.581  24.455   0.159  0.0935 -0.1687  0.0338
11014W        W54067  16.229  27.606  15.549 -0.0967 -0.2774  0.3570
11015W        W54068   1.703  29.625  25.235 -0.1901 -0.2087 -0.2274
11016W        W54069  32.194  15.585   0.392 -0.1199  0.0921 -0.0203
11017W        W54070  16.718  21.123  28.649  0.1885  0.0677 -0.2135
11018W        W54071  34.576  27.501   6.792  0.0389  0.2178  0.0513
11019W        W54072  26.473  21.841   7.332 -0.1097 -0.0594  0.0105
11020W        W54073  31.563  14.077  21.204 -0.3870 -0.2196  0.1617
11021W        W54074  26.856   9.595   8.573  0.0672 -0.1320  0.2724
11022W        W54075  27.050  29.900  27.782 -0.0254  0.0986 -0.0098
11023W        W54076  32.164  22.218  27.270  0.0535  0.1662 -0.0969
11024W        W54077  23.363   5.419   8.042 -0.0593 -0.0051  0.1164
11025W        W54078   4.748   0.424   0.774 -0.0969 -0.1386 -0.1251
11026W        W54079  20.011  10.579   1.041 -0.1994  0.3394 -0.1720
11027W        W54080  23.428  31.307   6.922 -0.0879 -0.1559 -0.0131
11028W        W54081  28.966  26.775  15.260 -0.0534 -0.2066  0.0810
11029W        W54082  20.044   1.183   3.539 -0.1091  0.0348 -0.0150
11030W        W54083  33.915   3.441  25.876 -0.0060 -0.0812 -0.0987
11031W        W54084  20.921  18.601  23.320 -0.0479  0.1241  0.0791
11032W        W54085   7.546   1.109  22.225 -0.4872  0.1130 -0.3905
11033W        W54086  29.604  32.350   0.214 -0.0736 -0.0969  0.1229
11034W        W54087  10.831   0.478  26.012 -0.0714 -0.1195 -0.0055
11035W        W54088  28.706  34.214   3.490  0.1433 -0.4407  0.3409
11036W        W54089  31.648   4.125  28.529  0.1765  0.1649 -0.1351
11037W        W54090  27.023  13.357  17.209  0.3888  0.0870 -0.1000
11038W        W54091  28.174  12.223  18.216  0.1190  0.0602  0.1168
11039W        W54092   1.513  22.313  23.901  0.0018 -0.1093  0.0271
11040W        W54093  23.898  27.182  28.549  0.0957 -0.0127  0.4348
11041W        W54094  14.390  18.970  21.273  0.0195 -0.0275  0.1158
11042W        W54095  16.294   7.905  19.396 -0.0755 -0.1671  0.2157
11043W        W54096   6.773   2.337   0.731 -0.1293  0.7210  0.1179
11044W        W54097  17.155  29.279   0.324 -0.1187 -0.3903  0.1864
11045W        W54098  20.686  28.547   0.616 -0.0067 -0.0091 -0.1669
11046W        W54099  16.798  28.643  26.655 -0.3961 -0.0694  0.0290
11047W        W54100  23.796  32.549   0.585 -0.1188 -0.2897 -0.0059
11048W        W54101  23.163  17.438  14.697 -0.0782  0.2672 -0.0868
11049W        W54102  20.743  25.952  17.472 -0.3800 -0.1463 -0.0827
11050W        W54103   0.667  13.363  25.064 -0.0865 -0.3315 -0.0211
11051W        W54104  32.498  29.423   7.216  0.2712 -0.1317  0.0080
11052W        W54105  31.505   4.437   0.640  0.0438 -0.3860 -0.0776
11053W        W54106  15.580  29.539  15.380 -0.1497 -0.1318 -0.0633
11054W        W54107  20.562  28.424   0.107 -0.1439 -0.0916  0.0582
11055W        W54108  26.839   7.232  28.942  0.1891  0.1040  0.3045
11056W        W54109  16.007  32.568  26.213 -0.0513  0.1144  0.0960
11057W        W54110  24.949  29.334  25.008 -0.2929  0.0007 -0.0630
11058W        W54111  25.264  32.190   8.007 -0.0096 -0.4442  0.0798
11059W        W54112  29.924  28.141   3.826 -0.0612 -0.0774 -0.0238
11060W        W54113  28.015  24.634  21.762  0.1910  0.0064  0.1405
11061W        W54114   8.804  17.452  20.242  0.2289  0.1576  0.0878
11062W        W54115  30.564   1.717  22.946  0.1969 -0.2431 -0.3279
11063W        W54116  24.833  20.660  20.906  0.1011  0.1274 -0.2342
11064W        W54117  30.921  21.673   0.973  0.0258 -0.1280 -0.1236
11065W        W54118   3.093   3.045  21.748 -0.0361  0.2014  0.1250
11066W        W54119   5.002  31.123  20.698 -0.2790 -0.0410 -0.0048
11067W        W54120  32.385   3.912  16.334  0.1551  0.0740 -0.3178
11068W        W54121  20.277  13.936  18.285 -0.0691 -0.0160  0.2211
11069W        W54122  33.807  18.707  27.108  0.3950  0.0219 -0.2629
11070W        W54123  18.307  10.397  15.784 -0.1714 -0.0091 -0.1215
11071W        W54124  20.917  26.922   3.642 -0.1592  0.0768  0.1571
11072W        W54125   1.365  14.123  27.716 -0.1463  0.1228  0.0845
11073W        W54126   4.007   6.846  27.283 -0.4965 -0.0986  0.0620
11074W        W54127  30.102  30.322  27.330  0.0407 -0.2558  0.0226
11075W        W54128   2.588  17.293  21.978 -0.3343 -0.0213 -0.2285
11076W        W54129  33.206  32.788   2.580 -0.2732  0.0282  0.0958
11077W        W54130  31.799  27.996  18.992  0.1654 -0.3217 -0.2809
11078W        W54131  33.767   7.610  23.470  0.2623  0.1381  0.0923
11079W        W54132  12.192  13.690  22.380  0.1165 -0.4727  0.0131
11080W        W54133  20.877  32.913  22.780 -0.1046  0.4429  0.0526
11081W        W54134  18.031  20.605  15.608  0.0352  0.2408 -0.1296
11082W        W54135  27.526  31.381  14.854 -0.1335 -0.2200  0.3084
11083W        W54136  27.744  10.433   9.447 -0.3417 -0.0883  0.2196
11084W        W54137  19.711  23.654   4.048 -0.1615  0.3099 -0.0137
11085W        W54138  21.968  30.546   8.113 -0.2133  0.1290  0.0867
11086W        W54139  15.299  22.366   8.749  0.1360  0.2194 -0.0821
11087W        W54140  11.703   1.999  17.020  0.1089  0.2925 -0.3104
11088W        W54141  12.932  24.595   2.026 -0.4374 -0.2924 -0.2005
11089W        W54142  21.078  17.624  22.515 -0.0401  0.1059 -0.1135
11090W        W54143  26.324  25.329  16.298  0.1288  0.0487  0.0915
11091W        W54144  27.451  27.205  25.875 -0.0821  0.0918 -0.1828
11092W        W54145  22.941  27.598  18.402  0.1141  0.2400 -0.2111
11093W        W54146  33.552  33.761   6.915  0.0341 -0.3122 -0.1585
11094W        W54147  16.513  33.255  26.779  0.0141  0.4268  0.0864
11095W        W54148  19.292  24.092  24.046  0.1020  0.1429  0.2043
11096W        W54149  23.555   3.205  21.752 -0.3700  0.1538  0.1597
11097W        W54150  29.220   4.098   0.015  0.1250  0.1301  0.1571
11098W        W54151  17.658  13.848   0.316  0.1498  0.1881  0.0481
11099W        W54152   5.277   9.581   0.468 -0.4373  0.1217 -0.1201
11100W        W54153  15.540  23.986  15.050  0.2339 -0.4020  0.1580
11101W        W54154  19.673  16.417  25.031 -0.0066  0.2535  0.0809
11102W        W54155  20.845  19.051  16.031 -0.3287  0.0058  0.0579
11103W        W54156  22.480   4.077  17.685  0.0194  0.2574  0.1728
11104W        W54157  16.464  27.018   9.909  0.1106 -0.1125 -0.2093
11105W        W54158  27.453  27.162   8.440  0.1007  0.3385 -0.2198
11106W        W54159  24.804  24.971   1.883  0.0695 -0.2368 -0.2371
11107W        W54160   8.768  33.199  23.002  0.0350  0.0284 -0.0920
11108W        W54161  24.697   0.488  20.842 -0.2361 -0.1165 -0.1906
11109W        W54162  27.344  23.617  24.919  0.2055  0.1396  0.1641
11110W        W54163  22.121  15.934  17.728  0.0652 -0.0632  0.1393
11111W        W54164  23.404  31.979  22.104 -0.1262  0.1357 -0.0969
11112W        W54165  28.528  27.781  22.511  0.0346  0.0064  0.0539
11113W        W54166  30.409  14.139  20.204 -0.0325 -0.0876  0.0268
11114W        W54167   5.225  23.830  19.640  0.0238  0.0430  0.0624
11115W        W54168  28.098  28.943  21.120 -0.0235 -0.0127  0.1277
11116W        W54169  27.868  32.073   2.733  0.0067 -0.0845 -0.1943
11117W        W54170  30.871   4.291   2.154 -0.2051  0.2108 -0.0827
11118W        W54171  28.754   8.598  28.859 -0.1497 -0.0774  0.0169
11119W        W54172   7.805  23.352   2.977  0.0030  0.0565 -0.4456
11120W        W54173  14.462   4.702  27.605  0.0474 -0.0354  0.1721
11121W        W54174  28.809  30.977  21.936  0.1395 -0.4628  0.0455
11122W        W54175  25.203   4.710  24.381  0.0879 -0.1760  0.1154
11123W        W54176  34.111   4.342  26.500 -0.2519 -0.2090  0.0647
11124W        W54177  30.469   4.774   4.952  0.1891  0.1046  0.2851
11125W        W54178  26.656  32.637  20.838  0.2487 -0.1975  0.2644
11126W        W54179  20.874   3.954  21.728 -0.0217 -0.0397  0.1366
11127W        W54180  27.234  21.033  27.383 -0.0638  0.0708 -0.0944
11128W        W54181  31.125   2.820  27.511  0.0778  0.0180  0.2049
11129W        W54182  11.650  31.657  28.256 -0.2879  0.2515  0.0200
11130W        W54183  26.632  33.004  25.984  0.1389 -0.1620  0.0875
11131W        W54184  22.361  19.772  25.854 -0.3162  0.2388  0.0802
11132W        W54185  12.630   3.353  19.260 -0.1298 -0.0148 -0.1647
11133W        W54186  26.076  20.399  23.122 -0.2469 -0.1866 -0.3113
11134W        W54187  34.615   2.723  23.840 -0.1440  0.0126  0.0837
11135W        W54188  30.771   0.494  14.672  0.0306  0.0324  0.0528
11136W        W54189  31.132   0.910  26.595 -0.1952 -0.0846 -0.0238
11137W        W54190   7.921  25.834  19.474  0.2503 -0.1774  0.1007
11138W        W54191  16.427  27.190  28.846  0.0224 -0.2118 -0.0151
11139W        W54192  29.817  32.682   4.332  0.0058  0.0188  0.0455
11140W        W54193  25.763   5.215  19.224  0.1869  0.3028 -0.1972
11141W        W54194  20.629  31.569   1.545 -0.0718  0.0356 -0.0471
11142W        W54195  18.235   8.443  27.237 -0.2332  0.2601  0.1162
11143W        W54196  27.288  28.788  14.792 -0.1161 -0.1545 -0.2164
11144W        W54197  21.321  23.106  16.122  0.0787 -0.2240  0.1503
11145W        W54198  21.057  28.292  22.302 -0.0279  0.1648  0.1544
11146W        W54199  12.604  21.395   6.299 -0.1585 -0.2843 -0.1547
11147W        W54200  22.217  17.424   3.243  0.1097 -0.5829 -0.0505
11148W        W54201  13.380  23.364  28.074 -0.0850 -0.1999  0.1468
11149W        W54202  24.323   6.012   7.251  0.3947 -0.0863  0.0121
11150W        W54203  10.737  16.361   3.547  0.1376 -0.1443 -0.1791
11151W        W54204  26.018  28.097  26.315 -0.2663 -0.2648  0.0868
11152W        W54205  16.677  29.568  25.426 -0.1744  0.1113 -0.1824
11153W        W54206   4.647  25.908  13.153 -0.0602 -0.0694  0.0088
11154W        W54207  20.023  29.925  15.260 -0.0941 -0.1047  0.0244
11155W        W54208  28.244  32.791  27.620  0.4309 -0.0941  0.2766
11156W        W54209  25.419  22.752  24.622  0.2758 -0.0295 -0.1999
11157W        W54210   8.906  28.872  18.126 -0.2986  0.1498  0.0689
11158W        W54211   3.311  11.038   9.426 -0.0034 -0.1796  0.0116
11159W        W54212  23.878   0.692   8.272  0.1221  0.1465 -0.1553
11160W        W54213  32.999   1.888   2.062  0.1054 -0.0103  0.0718
11161W        W54214  16.828  28.622  19.380  0.1184  0.1311 -0.0088
11162W        W54215  10.882  18.564  16.379  0.4171  0.1231 -0.3233
11163W        W54216  25.717  30.063  16.835  0.1587 -0.0207  0.4464
11164W        W54217   1.929   6.586   3.922  0.0864 -0.3823 -0.3755
11165W        W54218  24.338  16.536   4.564 -0.2029  0.0552  0.3888
11166W        W54219   2.233   4.725  21.582 -0.0646  0.1481 -0.0406
11167W        W54220  23.531  25.838  27.025  0.3042 -0.0048 -0.0209
11168W        W54221  31.711  12.678  22.703  0.1489 -0.1403 -0.2267
11169W        W54222  23.021   3.047   4.873 -0.4728  0.0655  0.1045
11170W        W54223  17.550   3.784   3.704 -0.1355  0.0471 -0.2921
11171W        W54224  33.643  22.835  15.820 -0.0323 -0.3665 -0.4717
11172W        W54225  31.689  12.656  19.507  0.2401  0.1085 -0.1740
11173W        W54226  26.035   3.624  19.144 -0.0418 -0.2445 -0.1949
11174W        W54227  28.744   6.597  26.117 -0.1741  0.0345 -0.1217
11175W        W54228   2.615  10.137  18.124 -0.0897  0.1899 -0.0891
11176W        W54229   8.997  22.348  22.246  0.3580  0.0292 -0.2425
11177W        W54230   8.396  29.533  16.351  0.0851 -0.1448  0.2876
11178W        W54231  30.756  16.912  25.321 -0.0903  0.3261  0.1188
11179W        W54232  17.109  26.407   8.299 -0.0092  0.3079  0.0878
11180W        W54233  22.010  31.778  26.344  0.1564 -0.0718  0.1480
11181W        W54234  28.266  21.501  20.000 -0.0917  0.1761 -0.0576
11182W        W54235   8.456  22.547  20.275  0.0017 -0.0278 -0.1486
11183W        W54236  14.256  28.927  26.941 -0.0304  0.0495 -0.1957
11184W        W54237  28.421   1.524  19.947  0.2269 -0.0347 -0.0632
11185W        W54238  33.780  23.752  21.793 -0.1026 -0.1742 -0.4257
11186W        W54239  34.006  30.341   1.737 -0.0195  0.1758  0.2370
11187W        W54240  23.951  18.862  26.900  0.0014  0.0868  0.1060
11188W        W54241  10.765   9.658  27.029 -0.1071  0.0963 -0.1720
11189W        W54242  23.900  32.398   2.903 -0.1509 -0.0318 -0.0255
11190W        W54243  25.203   2.127  21.119  0.1966  0.2293  0.0028
11191W        W54244   9.231  14.321  14.912 -0.1508 -0.0987 -0.2384
11192W        W54245   2.943  19.484  28.159  0.2184  0.2054  0.1695
11193W        W54246   4.168  22.677   6.068 -0.0231 -0.0113  0.1067
11194W        W54247  16.709  15.533   7.810 -0.0552 -0.0468 -0.0304
11195W        W54248  33.817  11.370   2.745  0.2131 -0.2536 -0.3597
11196W        W54249  14.318   2.314  14.409  0.1840 -0.3079 -0.1145
11197W        W54250  23.751   0.634  20.961  0.0402 -0.1925  0.1114
11198W        W54251  28.937   7.387  18.139  0.0925  0.3462  0.3625
11199W        W54252  17.039  25.118  14.692 -0.3237  0.2880  0.2127
11200W        W54253  24.497  13.202  17.155 -0.0256 -0.2364  0.1042
11201W        W54254  14.066  20.454  27.467  0.2985  0.1696  0.0910
11202W        W54255  30.587  22.190  21.770 -0.0520 -0.2425  0.1597
11203W        W54256  17.779  19.269   0.230 -0.0055 -0.0262  0.1876
11204W        W54257  28.014  21.099  28.691 -0.1845 -0.0080 -0.0037
11205W        W54258  27.844  21.720  23.889  0.2165 -0.0385 -0.2443
11206W        W54259  31.657  29.977  23.742 -0.0353  0.0091  0.1366
11207W        W54260  21.333  11.371  27.913 -0.1766 -0.0077  0.0534
11208W        W54261  30.347  17.558  20.521 -0.1840  0.0051 -0.2276
11209W        W54262  34.575   0.146  25.677 -0.0458 -0.1618 -0.1551
11210W        W54263   1.436   1.896  14.742  0.3046  0.1708 -0.0825
11211W        W54264  31.749  34.575  21.621  0.1157 -0.1719 -0.2465
11212W        W54265   1.479  23.836  23.625 -0.0974 -0.3042 -0.2237
11213W        W54266   5.895  29.508  16.650  0.0728 -0.1776 -0.2840
11214W        W54267  21.474  21.246   9.524 -0.1491 -0.1338 -0.3546
11215W        W54268  25.544   2.009  15.476  0.1602  0.0302 -0.1820
11216W        W54269   4.521   9.136   1.573  0.1643 -0.2087  0.0169
11217W        W54270  33.201  13.699  17.170  0.0649 -0.0825  0.2422
11218W        W54271  26.837   1.422  22.408 -0.2077 -0.0650  0.0826
11219W        W54272   1.775  22.537  13.726  0.0691 -0.0689  0.4939
11220W        W54273   1.112  28.566  18.516 -0.1849 -0.0472  0.0347
11221W        W54274  34.574  19.735  22.342 -0.0908  0.1604 -0.1155
11222W        W54275  19.333  19.955  21.101  0.1730  0.2702  0.0721
11223W        W54276  25.606   9.353  18.982 -0.2698  0.0584 -0.0207
11224W        W54277  13.176  32.009  26.417  0.0347  0.2121  0.0555
11225W        W54278  26.580   0.881  25.535  0.3456  0.0268 -0.0554
11226W        W54279  30.826  23.964  21.592 -0.0207  0.0358  0.1205
11227W        W54280  24.499   0.700  20.277 -0.0483 -0.0407  0.1335
11228W        W54281  22.602  11.186   7.919 -0.0219  0.0001  0.0588
11229W        W54282  22.177   8.789  27.917  0.0827  0.2461  0.0599
11230W        W54283  26.463  15.440  23.607  0.0516 -0.2111 -0.1039
11231W        W54284  32.417   3.403  26.067 -0.0319 -0.3034 -0.0818
11232W        W54285  29.620  30.662  17.656  0.0560  0.0324  0.0640
11233W        W54286  24.099   6.624  16.347 -0.2308 -0.2054 -0.1099
11234W        W54287  24.240  16.094   8.923  0.0851  0.2877  0.0239
11235W        W54288  27.132  26.192   5.901 -0.2691  0.0391 -0.2569
11236W        W54289  22.084   6.521  14.074 -0.0009  0.0609  0.2252
11237W        W54290  23.511  23.347  19.739  0.1923 -0.2422 -0.1295
11238W        W54291  19.858   5.944  26.365  0.0732  0.0549 -0.1324
11239W        W54292  27.339   1.531  28.261  0.0149  0.2893 -0.0804
11240W        W54293  17.304   4.586  22.553  0.2580 -0.1125 -0.1225
11241W        W54294  19.466  33.075  21.404  0.0577 -0.0785  0.0960
11242W        W54295  12.855  30.898  24.740 -0.2860 -0.0886 -0.2627
11243W        W54296  20.017   2.030  21.155 -0.2383  0.4129  0.1368
11244W        W54297  23.442   2.112  21.190  0.0502 -0.0844 -0.3577
11245W        W54298   9.651  27.261  27.916  0.0090 -0.1105 -0.0098
11246W        W54299  30.277  21.580   1.661  0.2098 -0.0020  0.2592
11247W        W54300  27.562  30.040  19.770  0.0426 -0.1207 -0.0957
11248W        W54301  29.411   2.271  18.726 -0.2920 -0.2197  0.2772
11249W        W54302   0.875   2.672  27.612  0.1712 -0.0106  0.0272
11250W        W54303  25.325  24.821  28.755  0.1978 -0.0488  0.2816
11251W        W54304  28.953  29.894  28.550 -0.0577 -0.1286  0.0439
11252W        W54305  12.930  20.029  22.696 -0.2852  0.1148 -0.3191
11253W        W54306  22.405   6.633  26.475  0.2970 -0.0920  0.0123
11254W        W54307  33.828  34.227  24.614  0.3533 -0.4670  0.0188
11255W        W54308  31.002  24.626   9.917 -0.0805 -0.2351 -0.1003
11256W        W54309  30.124  27.564   1.853  0.1177  0.0851  0.0289
11257W        W54310   7.422  19.801  25.017  0.1028 -0.2721  0.1620
11258W        W54311  23.080  24.289  22.515 -0.0785  0.2671  0.0489
11259W        W54312   7.891  24.453  26.021  0.1264 -0.2889  0.0558
11260W        W54313  12.878  33.153  21.234 -0.1032  0.0898 -0.1118
11261W        W54314  10.717  29.669  27.350 -0.0204  0.1744 -0.2476
11262W        W54315  19.878  31.640  26.944  0.1074 -0.3040  0.0314
11263W        W54316  23.981   3.181   9.941 -0.2068 -0.1558 -0.0976
11264W        W54317  29.403  24.442   9.085  0.1237  0.2809 -0.1698
11265W        W54318   5.340  17.211  18.492 -0.1310  0.1053 -0.0846
11266W        W54319  22.476  23.789  27.666 -0.0549  0.0814 -0.3900
11267W        W54320  28.155   4.030   4.190 -0.0024  0.3055 -0.1233
11268W        W54321  21.213  17.175  25.389  0.2817 -0.2054 -0.0315
11269W        W54322  23.508   7.234   2.507  0.0685 -0.0081  0.0193
11270W        W54323  21.029  30.657   1.318  0.3534  0.0679  0.2196
11271W        W54324  25.570  16.498   0.414  0.0213  0.1362  0.2104
11272W        W54325  16.460   1.593  14.528 -0.2871 -0.0184 -0.0580
11273W        W54326  17.913  32.587  27.462 -0.0533  0.0371  0.2996
11274W        W54327  24.825   8.496  19.944  0.0170  0.0341 -0.1737
11275W        W54328  25.885  20.772  27.406  0.3372 -0.0660  0.1831
11276W        W54329   9.741  16.190   4.273  0.1275 -0.1638 -0.0641
11277W        W54330   7.641   1.713   6.165 -0.1603  0.2575  0.2300
11278W        W54331  25.980  20.688  20.922 -0.1072  0.1060 -0.0653
11279W        W54332  33.060  14.988  15.329  0.0452 -0.0524 -0.0559
11280W        W54333  22.649  24.305  26.046  0.2894 -0.2532 -0.1231
11281W        W54334  28.737  28.733  28.623 -0.3474  0.1598  0.0261
11282W        W54335  33.031   2.314  25.111  0.0303 -0.0573 -0.1037
11283W        W54336  19.527  19.405   2.552  0.0072  0.0013  0.0853
11284W        W54337  30.448   1.351   9.720 -0.2070  0.0162  0.2306
11285W        W54338  10.305  24.957  18.119 -0.1778  0.7003 -0.0971
11286W        W54339  21.821  20.420  16.357  0.3675 -0.1936  0.0573
11287W        W54340  18.058  19.459   4.834  0.2127  0.1242 -0.0813
11288W        W54341  14.914  30.696  24.639 -0.1565 -0.0709 -0.1711
11289W        W54342  32.549  14.908  18.324  0.2720  0.0699  0.0462
11290W        W54343  19.718  18.331   8.829 -0.2004 -0.0719  0.1541
11291W        W54344  13.084  21.497  22.734  0.1045  0.3002 -0.1681
11292W        W54345  19.314   4.982   9.714  0.0609  0.1313 -0.0236
11293W        W54346  24.959   4.006   1.238 -0.0607 -0.1845  0.1454
11294W        W54347  16.366  24.382  25.875 -0.1192 -0.6244  0.2589
11295W        W54348   2.931   5.443  14.378 -0.2016 -0.2420 -0.0193
11296W        W54349   6.882  15.834  24.363  0.0449 -0.1722  0.0707
11297W        W54350   7.109  21.911  25.302 -0.0474 -0.0548  0.2060
11298W        W54351  25.953  34.354  29.080  0.2208 -0.0758 -0.0193
11299W        W54352  28.069  29.860   2.201 -0.0182  0.2101 -0.0620
11300W        W54353  11.893  20.428  17.590  0.0855 -0.0520 -0.1998
11301W        W54354  16.164   1.899   6.100 -0.0367 -0.1781  0.2192
11302W        W54355  25.891   1.735   8.798 -0.1126 -0.3320 -0.0958
11303W        W54356  31.935  11.319   9.362 -0.2693  0.0873 -0.1497
11304W        W54357  18.265   6.895  14.169 -0.1664 -0.0900 -0.1104
11305W        W54358  27.199  29.712  16.662 -0.4367  0.1719 -0.4055
11306W        W54359  14.882  33.202  17.908 -0.2331  0.0159  0.1157
11307W        W54360  18.583  23.665  14.272 -0.0399 -0.0047 -0.2610
11308W        W54361  25.679  33.549   3.780  0.0039 -0.1203 -0.1449
11309W        W54362  18.732  23.884   5.494 -0.2449 -0.2859 -0.2015
11310W        W54363  28.532  26.936  22.851 -0.0670 -0.2812  0.1131
11311W        W54364  19.693  21.080  25.651 -0.0882 -0.0131  0.0284
11312W        W54365  16.932  21.809  22.754  0.2224  0.0657 -0.2516
11313W        W54366  16.014  25.467   4.602 -0.0557  0.1512  0.0692
11314W        W54367   0.934  32.532  19.962  0.0304  0.1301  0.1576
11315W        W54368  19.172  27.665  19.260 -0.2423 -0.0657  0.1907
11316W        W54369  11.293  29.275  20.637  0.1116 -0.2148  0.0462
11317W        W54370  26.398  15.899  17.091  0.2724 -0.0984 -0.1366
11318W        W54371  18.358   5.334  24.510 -0.3914 -0.1073 -0.0672
11319W        W54372  19.899   6.928  28.693 -0.0811 -0.0535 -0.1302
11320W        W54373  27.238   1.093  22.445 -0.3297  0.2514  0.0469
11321W        W54374  24.721  34.035  17.348  0.2668  0.0006  0.0462
11322W        W54375  24.880   6.079   8.581  0.4249 -0.2651  0.5582
11323W        W54376   2.252  18.671   1.021 -0.0129  0.2903  0.1754
11324W        W54377  21.756  13.366   3.975 -0.1808 -0.0026  0.0109
11325W        W54378  13.335  25.037   3.346 -0.1208 -0.2476 -0.1541
11326W        W54379  18.173   1.930   1.871  0.2002  0.2241 -0.1355
11327W        W54380  34.025  22.647   8.480 -0.1519 -0.1387  0.1402
11328W        W54381  26.737  25.436  18.853 -0.0744 -0.2600  0.0606
11329W        W54382  17.290   5.530   2.156  0.0747 -0.1011 -0.2072
11330W        W54383  27.372  10.996  17.666  0.3036  0.1596 -0.1080
11331W        W54384  31.894  27.822  21.187 -0.1646  0.1350 -0.0690
11332W        W54385  28.305   1.518  25.329  0.0014 -0.0790 -0.1280
11333W        W54386  20.214  17.920  22.247 -0.0655  0.4500 -0.3589
11334W        W54387  17.932  18.000  26.963  0.0216 -0.1908  0.3755
11335W        W54388   1.243  14.538  29.039  0.0210 -0.2085 -0.1338
11336W        W54389  11.526  31.650  27.089  0.0345  0.2793 -0.1380
11337W        W54390  18.927  27.632   3.834 -0.2778 -0.0298 -0.4730
11338W        W54391  28.489  34.149  19.466  0.0088 -0.1802  0.2750
11339W        W54392  17.699  27.182  10.826  0.0515  0.1770  0.0032
11340W        W54393  31.478  14.863  23.322  0.2439  0.0029  0.3897
11341W        W54394  17.711   7.630  21.199  0.3582 -0.0477 -0.0441
11342W        W54395   7.885  12.257  16.649 -0.0630  0.0686 -0.1711
11343W        W54396   2.306   7.141   3.200 -0.2999  0.0162 -0.1565
11344W        W54397  13.505  27.046  25.813 -0.0332  0.0165  0.0401
11345W        W54398  19.149   2.106   3.118 -0.1642 -0.4790  0.0624
11346W        W54399  10.893  28.983   8.604 -0.2722 -0.0427 -0.0274
11347W        W54400  23.957   5.826   4.600  0.0952  0.2532  0.0263
11348W        W54401  22.426  19.052  28.601  0.3431 -0.0319  0.1929
11349W        W54402  16.850   0.287  20.342 -0.1707 -0.1651  0.0309
11350W        W54403   2.433  19.033  13.393  0.1630  0.0793  0.1191
11351W        W54404  23.478  16.335   5.486 -0.0238  0.2027 -0.1906
11352W        W54405   5.696  28.515   1.442 -0.0246  0.0929  0.0929
11353W        W54406  21.357  21.765  14.669 -0.0256 -0.3042 -0.0997
11354W        W54407  20.910   8.873  28.432  0.0120  0.0113 -0.0610
11355W        W54408   1.719  30.086   1.591 -0.2770 -0.1392 -0.2211
11356W        W54409  15.939  12.089  18.576  0.1043 -0.0167  0.0028
11357W        W54410   5.149  28.983  15.278 -0.0162 -0.0082 -0.0796
11358W        W54411  23.277  18.658  18.696  0.0073  0.0428  0.0805
11359W        W54412  20.473   2.464  22.112 -0.1103 -0.1019 -0.1085
11360W        W54413   5.410  19.986   8.621  0.2984  0.1913 -0.2535
11361W        W54414  32.274  27.635  22.677  0.1123  0.2679  0.0521
11362W        W54415  21.763  28.820   7.891 -0.0182  0.0351 -0.0353
11363W        W54416  19.892  26.879   7.188 -0.1498 -0.0898 -0.4494
11364W        W54417   1.834  32.734   7.905  0.0153  0.0178 -0.1046
11365W        W54418  10.006   7.129  28.283 -0.1371 -0.0008  0.0179
11366W        W54419  15.518  32.401   0.865  0.2437 -0.1141  0.1389
11367W        W54420  11.043  21.820   9.109 -0.0950  0.0685  0.1237
11368W        W54421  31.536  30.526   6.367  0.2360  0.1866 -0.2848
11369W        W54422  34.293  23.325   1.606  0.1286  0.1112 -0.0836
11370W        W54423  14.462   3.430  27.426 -0.1021  0.1124  0.2711
11371W        W54424  16.527  23.438  26.526  0.2078  0.2988 -0.3874
11372W        W54425  24.784  23.978  16.397  0.1717  0.3771 -0.0413
11373W        W54426  28.406  15.793  25.991  0.1513  0.3709  0.2308
11374W        W54427  34.315  24.456  16.487 -0.1921  0.2616 -0.1233
11375W        W54428  31.668   0.966   5.931  0.1428 -0.0406 -0.0720
11376W        W54429   9.858  13.258   0.787  0.0846 -0.2883  0.2256
11377W        W54430  11.082  24.086  27.187  0.1147  0.0111 -0.1617
11378W        W54431  14.363  14.768   3.978 -0.2022 -0.2078  0.1196
11379W        W54432  29.501   1.313  20.584 -0.1640 -0.0958  0.0619
11380W        W54433  20.264  31.344  27.993 -0.1628  0.0553 -0.3445
11381W        W54434  15.183   2.518  14.602  0.1721 -0.1866  0.0476
11382W        W54435  17.248  24.028   6.902 -0.1316 -0.3711 -0.1075
11383W        W54436  22.971  29.716   8.060  0.1891 -0.3145 -0.1928
11384W        W54437  16.401  31.341  18.113  0.3345  0.2878  0.3353
11385W        W54438  19.046   1.842   6.960  0.1316 -0.1818  0.1641
11386W        W54439  21.103  21.631  18.298 -0.0252 -0.2388  0.0617
11387W        W54440  33.916   3.003  15.833  0.0238  0.0563  0.2862
11388W        W54441  26.630  32.943   1.742  0.1535 -0.1396  0.3745
11389W        W54442  20.537  12.771  23.617 -0.2371 -0.1367 -0.1952
11390W        W54443  27.976  33.698  23.257 -0.1241  0.0757  0.1018
11391W        W54444  25.949  15.639   7.110  0.0025  0.3221 -0.2435
11392W        W54445  23.246  32.758  25.485 -0.0331 -0.1916 -0.1070
11393W        W54446  12.341  23.805  17.486  0.1178 -0.1221  0.1618
11394W        W54447   5.154  21.871  14.462  0.1342 -0.1142  0.5356
11395W        W54448   9.043   3.131   1.901  0.1590 -0.3777  0.0079
11396W        W54449  28.751   1.280  22.116  0.0960 -0.2851 -0.0159
11397W        W54450  21.006   2.869  16.410  0.2859  0.0348  0.1860
11398W        W54451  33.779  13.364  23.344 -0.0052 -0.0566 -0.0589
11399W        W54452  25.298  32.266   8.810 -0.0148 -0.3270  0.4004
11400W        W54453   8.475  29.860   4.085  0.1612  0.1069  0.1405
11401W        W54454  18.557   0.844  10.153 -0.3285 -0.0615  0.0666
11402W        W54455  17.730   8.437  20.009 -0.0103 -0.0775 -0.1277
11403W        W54456  14.489   4.793  15.291 -0.3055  0.1053  0.2206
11404W        W54457  25.086  19.501  14.232  0.0045 -0.1118 -0.3246
11405W        W54458   2.366   0.073  24.022  0.0852  0.1863  0.0925
11406W        W54459  12.170  30.715   1.230 -0.0405  0.1899 -0.1860
11407W        W54460  19.913  18.306   9.420 -0.1836  0.0518  0.2326
11408W        W54461  26.399   0.266   6.035 -0.1068  0.2132 -0.0046
11409W        W54462  19.000   5.954  28.911 -0.1152  0.0481  0.0080
11410W        W54463  31.079   2.643   6.761 -0.0990 -0.0444 -0.0164
11411W        W54464   1.569  11.650  22.670 -0.1507 -0.1533  0.0026
11412W        W54465  15.397   4.160  22.531  0.0729 -0.3045  0.2311
11413W        W54466   0.387   6.276  19.212 -0.0554  0.1800  0.1492
11414W        W54467  13.357  20.875  27.173  0.0489 -0.5206 -0.4900
11415W        W54468  24.059   0.382   7.906 -0.1103 -0.2525  0.0051
11416W        W54469  33.568  19.067   2.336  0.0847 -0.1035 -0.0723
11417W        W54470  22.707  31.539   0.484 -0.5554 -0.0785  0.3439
11418W        W54471   4.118  30.501   5.495  0.1537  0.0560 -0.0319
11419W        W54472  13.030  25.454   2.661 -0.2264 -0.0294 -0.3710
11420W        W54473  30.207   5.372   1.726  0.0394 -0.0726 -0.1406
11421W        W54474  24.776  31.870  28.113  0.3273  0.0408 -0.1745
11422W        W54475  28.513  17.112   6.982  0.2572  0.4629 -0.0340
11423W        W54476   3.188  14.676  24.475 -0.1035  0.1908  0.2275
11424W        W54477  24.407  18.574   5.835  0.3838 -0.2818  0.3097
11425W        W54478   0.387  26.605   1.262 -0.0356 -0.1643  0.1825
11426W        W54479  22.370  14.176  26.166  0.0211  0.1771  0.5147
11427W        W54480  18.595  23.615   3.911  0.0503  0.3291 -0.2125
11428W        W54481  26.651  18.080   2.366  0.2422 -0.1510 -0.0323
11429W        W54482  24.112  34.321   7.557  0.1923 -0.1938  0.1876
11430W        W54483  31.399  34.502  28.600 -0.2587 -0.2970  0.1509
11431W        W54484  14.679  30.896   1.714 -0.1635 -0.1500  0.0213
11432W        W54485  26.143   3.714  14.216  0.0655 -0.1661 -0.2600
11433W        W54486  24.220  30.215  24.259 -0.0634 -0.1042  0.0106
11434W        W54487  33.773  18.856   1.130  0.0143  0.3095  0.0012
11435W        W54488  17.607   7.170   2.231 -0.1405  0.0272  0.1037
11436W        W54489  11.415   4.615  15.222  0.1133 -0.1370 -0.1677
11437W        W54490   6.674   1.676   5.538 -0.3194 -0.2309  0.1105
11438W        W54491  16.176  10.503   6.054 -0.0071  0.1231 -0.0422
11439W        W54492  21.554  23.128   0.506 -0.0998  0.2855  0.0129
11440W        W54493   4.428  28.582   1.820 -0.3114  0.1432 -0.2026
11441W        W54494   3.544   3.404   8.717 -0.0742  0.0424  0.1265
11442W        W54495  24.407   5.512  22.286 -0.0039  0.0056 -0.3669
11443W        W54496  33.900   8.009  16.691 -0.1229 -0.0659  0.2980
11444W        W54497  10.316  16.192  19.699 -0.1468  0.3488 -0.0032
11445W        W54498  33.749  26.420  23.975 -0.1779 -0.0623  0.2630
11446W        W54499  12.724  32.297   5.751 -0.1149  0.0535 -0.2585
11447W        W54500  19.572  17.897  28.726 -0.1925  0.1128 -0.1388
11448W        W54501   7.430   4.922  26.796 -0.0851 -0.0677 -0.1725
11449W        W54502  15.112   3.066   6.491  0.4070  0.1945  0.3492
11450W        W54503  21.235  20.979  20.949  0.2725  0.2809  0.2807
11451W        W54504  26.728  23.512   6.962  0.0118  0.2183 -0.0674
11452W        W54505  26.515  10.450   0.726  0.2334 -0.2465 -0.1187
11453W        W54506   7.414  33.273  20.734 -0.1700 -0.2619  0.1691
11454W        W54507  20.870  25.253  26.923 -0.2425  0.2736 -0.1695
11455W        W54508  29.337  30.531   1.828 -0.1245 -0.0700 -0.2497
11456W        W54509   0.080  22.987   3.595 -0.1407  0.0785 -0.0107
11457W        W54510  25.708  18.277  23.293  0.0177  0.2139 -0.1559
11458W        W54511  21.378  30.255  26.673  0.0881 -0.1436  0.1584
11459W        W54512   0.896  12.395  25.192 -0.0391 -0.1832 -0.1476
11460W        W54513  14.903   1.175  25.935 -0.3023  0.6599  0.2452
11461W        W54514  17.501  14.704   5.508  0.4516  0.1528  0.2751
11462W        W54515  28.117   3.164  22.715  0.1323 -0.1348  0.1801
11463W        W54516  23.256   2.057  27.212  0.1394 -0.0116  0.2314
11464W        W54517   4.784  11.942  27.758 -0.2000  0.3861 -0.0919
11465W        W54518  25.378   5.644  23.896 -0.1463  0.0996 -0.2338
11466W        W54519  27.753  16.262   4.050 -0.1364 -0.0124  0.1949
11467W        W54520  17.696  28.110   8.216  0.2064 -0.2268 -0.0811
11468W        W54521  21.899   1.314   3.899  0.1926  0.2388 -0.0347
11469W        W54522  31.311  23.904  17.251  0.2065  0.0877 -0.2487
11470W        W54523  34.282  33.502  23.054 -0.1198 -0.0901 -0.1340
11471W        W54524  17.632  20.614  24.013  0.3580 -0.0381 -0.0918
11472W        W54525  33.931  30.463   6.841  0.1110 -0.1749  0.4108
11473W        W54526  20.543  15.759   0.228 -0.1709  0.4984  0.2232
11474W        W54527  32.569   4.759   5.221 -0.3460  0.0255 -0.1860
11475W        W54528  13.166  22.883  19.172  0.0310 -0.1156  0.1437
11476W        W54529   8.463  30.962   7.191 -0.1916 -0.0529  0.1188
11477W        W54530   8.547  25.585  22.049 -0.0273  0.3664  0.4788
11478W        W54531  23.396  24.522  19.676 -0.0900 -0.4445 -0.0992
11479W        W54532  23.494  19.122  22.381  0.2468 -0.3697  0.0426
11480W        W54533  18.712  28.849  28.360  0.2046 -0.0013 -0.2475
11481W        W54534  17.949  26.354  23.926 -0.0480 -0.0359 -0.1942
11482W        W54535  18.437  28.021  20.670  0.0685  0.1656  0.0097
11483W        W54536  27.497  21.168  23.061 -0.1450  0.1170  0.2514
11484W        W54537  27.469  31.083   5.100 -0.1985 -0.2208 -0.1163
11485W        W54538   9.929  23.884  18.865 -0.4284 -0.2636 -0.0461
11486W        W54539  30.565  14.318  10.230  0.2296  0.0474 -0.1026
11487W        W54540  19.620  23.682  17.298  0.0332  0.2690  0.2891
11488W        W54541  18.790  26.920   5.166  0.0561 -0.0186  0.2302
11489W        W54542  25.516  31.441  22.613 -0.1831  0.0195 -0.1200
11490W        W54543  23.951  28.635   2.773 -0.0859  0.1155  0.3334
11491W        W54544  31.502  30.972  17.043  0.1291 -0.0103  0.0721
11492W        W54545  23.398  32.099  20.436 -0.0707  0.1495  0.1578
11493W        W54546  17.749  29.316   4.560 -0.0752  0.1074  0.0410
11494W        W54547  15.639  24.953  29.061  0.0175  0.2589 -0.0365
11495W        W54548  16.578   0.804   7.336 -0.0366 -0.0202  0.3256
11496W        W54549  16.822  32.461  20.185  0.3091  0.0139  0.1651
11497W        W54550  28.033  26.313   3.082  0.0186 -0.0294  0.1859
11498W        W54551   8.027  28.944   2.129  0.0064  0.0314 -0.0020
11499W        W54552  20.580   4.267  27.578  0.0550 -0.0281 -0.0636
11500W        W54553  29.435  28.356   3.798 -0.0579 -0.1689  0.1957
11501W        W54554  28.927  27.634   5.889 -0.0353  0.2369  0.0523
11502W        W54555  31.102  27.836   5.435 -0.3983 -0.3318  0.0795
11503W        W54556   2.326  33.111   2.535  0.0670 -0.1620 -0.1527
11504W        W54557  18.294  31.745   6.294 -0.2770 -0.0056 -0.0795
11505W        W54558   9.517  30.570  13.060 -0.0205 -0.1823 -0.2597
11506W        W54559  20.236   9.333   1.779 -0.5715 -0.2343  0.1000
11507W        W54560   3.912  26.187  23.145  0.2434  0.0496  0.1990
11508W        W54561  23.336  31.092   8.657 -0.0725  0.0236  0.3647
11509W        W54562  28.709  14.938   5.917  0.0249 -0.0165 -0.0364
11510W        W54563  32.511  13.220   2.966 -0.1415 -0.0856 -0.0831
11511W        W54564  31.888  11.298  27.678  0.3541  0.3231  0.2513
11512W        W54565  13.063  22.355   7.407  0.0202  0.1578 -0.1468
11513W        W54566  24.353   4.726  18.673  0.0516  0.0710 -0.0813
11514W        W54567  11.518  18.238  23.788  0.2713 -0.0785 -0.0953
11515W        W54568  16.689  19.820  26.191  0.2605  0.1231  0.1486
11516W        W54569  13.593  12.669   6.542 -0.5082 -0.2548 -0.0070
11517W        W54570  14.776  34.084   2.846 -0.3540 -0.2251  0.1909
11518W        W54571  29.511   2.029   7.355  0.0222 -0.0333 -0.1421
11519W        W54572  29.395  30.273  22.002 -0.0515  0.0449  0.1167
11520W        W54573  22.648  22.981   0.123  0.0140 -0.0316 -0.0572
11521W        W54574  32.192  32.445  22.266  0.1024  0.1373 -0.0628
11522W        W54575  10.684  25.950  17.913  0.3659 -0.0810 -0.3181
11523W        W54576  17.854   0.533   5.694  0.1489  0.1359  0.0481
11524W        W54577   4.320  28.542  18.899  0.2748  0.2451  0.2142
11525W        W54578  32.383  26.693  23.467  0.2458  0.1469 -0.1496
11526W        W54579   7.685  26.021  17.487 -0.0256  0.1475 -0.1682
11527W        W54580  19.617   6.534  24.542  0.2161 -0.2305  0.0247
11528W        W54581  23.867  30.365  17.812  0.0246  0.1268  0.2049
11529W        W54582  19.880  29.143  22.718  0.0304 -0.0735  0.0253
11530W        W54583  26.453  31.908  27.777  0.2875  0.0496  0.1888
11531W        W54584  19.706  32.032  15.711  0.3018 -0.0763 -0.0770
11532W        W54585  21.756  29.931   8.077 -0.0485  0.1291 -0.2793
11533W        W54586  31.630  27.345   4.151 -0.0162  0.1237  0.1258
11534W        W54587  28.783  22.170  21.639 -0.4402  0.1503 -0.0428
11535W        W54588  11.861  21.789   9.311 -0.0677 -0.2222  0.1650
11536W        W54589   8.620  16.488  27.404 -0.1460 -0.0133 -0.2090
11537W        W54590  27.055   8.011  15.855 -0.2184 -0.3078  0.0192
11538W        W54591  22.927  11.410  25.048  0.2294  0.3438  0.1253
11539W        W54592  18.108   0.815  22.887  0.0925  0.1304  0.3130
11540W        W54593  15.169  29.651   5.672 -0.0038  0.2033 -0.2241
11541W        W54594  26.287   6.754   7.778 -0.0025  0.2669  0.6009
11542W        W54595  33.678  20.662   0.164 -0.0427 -0.0807  0.1004
11543W        W54596  26.377   8.162  28.402 -0.1066  0.2171 -0.1089
11544W        W54597  24.707  19.746  22.136 -0.0330 -0.1832  0.0063
11545W        W54598  20.155   4.465  27.434  0.1585 -0.1591 -0.0005
11546W        W54599  28.519  10.640  27.221 -0.0869  0.1481 -0.0335
11547W        W54600  33.136   2.050   4.599  0.1985 -0.0895  0.0703
11548W        W54601  16.574  25.113   8.215 -0.0175  0.0305 -0.2640
11549W        W54602  30.484  22.905   9.040 -0.0894 -0.1276 -0.1815
11550W        W54603  32.927  22.915  22.354 -0.0705 -0.1839  0.1546
11551W        W54604   6.986  24.888  24.048 -0.2339  0.0889  0.0073
11552W        W54605  34.005  21.648  26.240 -0.1807 -0.0056  0.0915
11553W        W54606  15.495   7.900   4.260  0.0446  0.0389 -0.0190
11554W        W54607  15.909  23.652  18.112 -0.1751  0.1482 -0.2902
11555W        W54608  23.147  21.381  27.100 -0.2261 -0.2324 -0.0458
11556W        W54609  12.628  30.732  25.842 -0.1316  0.2643 -0.0533
11557W        W54610   5.881  34.430  23.448  0.1873  0.1038 -0.3343
11558W        W54611  19.247  24.409   5.932 -0.3458 -0.4328  0.0167
11559W        W54612  32.173  26.441  21.472 -0.0218  0.1366 -0.1415
11560W        W54613   2.688  27.464  18.373  0.0006  0.0229  0.2676
11561W        W54614  19.991  21.015   5.732  0.0102  0.2409  0.1429
11562W        W54615  13.743  26.318  16.037 -0.2151 -0.1344  0.0408
11563W        W54616  13.861  28.571  16.927  0.3292 -0.1851 -0.0557
11564W        W54617  23.202   5.190   6.370 -0.2168 -0.3430  0.0962
11565W        W54618  27.652  25.462   5.887 -0.2002 -0.0211 -0.0294
11566W        W54619  25.301  21.256   4.724 -0.3110  0.1531 -0.0327
11567W        W54620  11.719   6.031  21.535 -0.1679  0.0907  0.2123
11568W        W54621  12.649  17.211  25.243  0.1573  0.1441 -0.2092
11569W        W54622  21.807  32.175   1.299 -0.2015  0.1060 -0.2864
11570W        W54623  16.631  16.377  25.763  0.0285 -0.2869 -0.1465
11571W        W54624  26.100  15.746   8.245  0.0187  0.1420  0.2700
11572W        W54625  27.186  33.098  24.423 -0.4865 -0.2781  0.0210
11573W        W54626   3.888   6.564   4.866  0.0263  0.2891 -0.1019
11574W        W54627  22.245  29.070   5.309 -0.1331 -0.2293  0.0745
11575W        W54628  20.681  15.048  28.641  0.0002  0.1067  0.1023
11576W        W54629  31.518  26.031  14.540  0.0329  0.0692 -0.2676
11577W        W54630  21.638   5.300  18.460  0.1177 -0.1298 -0.1059
11578W        W54631   7.662  17.372  27.227 -0.0027 -0.4604 -0.0867
11579W        W54632  25.638  33.218   3.440 -0.0052  0.2378 -0.1938
11580W        W54633   0.806  19.258  27.826 -0.2511  0.2430  0.1791
11581W        W54634  26.492  25.250  25.889  0.0475  0.0143 -0.1901
11582W        W54635  28.849   0.284   7.984 -0.1656 -0.0736 -0.0823
11583W        W54636   7.942  27.013  20.862 -0.0146 -0.0321  0.0868
11584W        W54637  31.063   4.425  17.919  0.0684 -0.0570 -0.1299
11585W        W54638  17.116  34.667   9.388  0.0469 -0.0114  0.0136
11586W        W54639  28.204  34.126  28.945  0.0101  0.1109 -0.0312
11587W        W54640  25.604  27.017  23.736 -0.0890 -0.3493  0.1000
11588W        W54641  21.752  28.084   6.515  0.1022 -0.0067  0.0176
11589W        W54642  14.015  27.531  19.953 -0.3306 -0.2410  0.0264
11590W        W54643  10.780  31.702   7.180  0.2202  0.0953  0.0395
11591W        W54644  21.031  17.823   7.875  0.2610  0.1135  0.3431
11592W        W54645  30.223   0.886  21.886 -0.2754  0.1115 -0.2552
11593W        W54646  14.258  23.668  24.120 -0.2938 -0.1203  0.0539
11594W        W54647  32.727  27.606  14.593  0.0656  0.0683  0.0343
11595W        W54648   2.047  34.282   2.768  0.2106 -0.1361  0.1411
11596W        W54649  30.668  20.356  28.207  0.0154  0.2857 -0.1668
11597W        W54650  28.798  21.850  25.846  0.1580 -0.0805  0.0260
11598W        W54651  29.496  24.061  28.340 -0.3042  0.2232 -0.0373
11599W        W54652   1.697  17.524   4.086  0.1100  0.1812 -0.2888
11600W        W54653  12.098  28.730   0.776  0.0990 -0.1592  0.0459
11601W        W54654  19.375  31.386  24.164  0.0252  0.1665 -0.0728
11602W        W54655   6.170  34.120  15.856 -0.1890 -0.0665 -0.1119
11603W        W54656   1.124  11.391   1.314  0.1094  0.2075 -0.1695
11604W        W54657  24.974  31.703  26.491  0.0926  0.0900 -0.1328
11605W        W54658  20.041  18.401  22.371  0.1549 -0.0507 -0.0923
11606W        W54659  24.260   5.357   8.086 -0.0792  0.0185  0.0120
11607W        W54660  18.250  16.701   1.564 -0.0056 -0.0120  0.1712
11608W        W54661  26.420  33.480  16.651 -0.1756 -0.1204 -0.2695
11609W        W54662  27.608  31.447   5.705  0.1522  0.2014 -0.4324
11610W        W54663  17.426  16.069  23.761  0.0264 -0.0350  0.1011
11611W        W54664  28.029  29.954  18.421  0.2564 -0.0081 -0.0104
11612W        W54665  31.530   1.633  26.228 -0.0649  0.2755  0.0396
11613W        W54666  26.930   5.724   7.840 -0.2071  0.1333  0.1855
11614W        W54667   7.220   0.762  25.427 -0.1689  0.1806  0.0244
11615W        W54668  30.850  21.946  27.937 -0.1548  0.1079  0.2301
11616W        W54669  30.715  32.818  15.422 -0.3000  0.2014  0.0230
11617W        W54670  32.643  24.111  25.790  0.1049 -0.1249 -0.0485
11618W        W54671   1.069  34.510   6.087 -0.0997 -0.0884  0.0169
11619W        W54672   6.596  28.310  24.019  0.3873 -0.4865  0.0061
11620W        W54673  15.332   0.045   2.177 -0.0712 -0.0101 -0.0289
11621W        W54674   9.907  32.187  24.495  0.0991  0.1652 -0.0182
11622W        W54675  18.630  32.071  18.791  0.1266  0.2617  0.0753
11623W        W54676   0.984   5.487  23.667 -0.1111 -0.1560  0.1259
11624W        W54677  28.012  29.580  20.182 -0.0474 -0.2198 -0.0332
11625W        W54678  20.822   7.887   3.558  0.0038  0.1790  0.0649
11626W        W54679  15.837   2.337  28.262  0.0697  0.5200  0.0286
11627W        W54680   3.930  30.499  13.856 -0.3326  0.1140  0.1036
11628W        W54681  25.364  24.626   8.088  0.2708  0.2906  0.0408
11629W        W54682  25.487   8.300   1.050  0.2214  0.1465 -0.2786
11630W        W54683  13.489  12.255  10.494 -0.0000  0.0619  0.0548
11631W        W54684   0.511   6.607  28.643  0.0192  0.2954 -0.3578
11632W        W54685  11.875  29.940  28.153 -0.1999 -0.3287 -0.2321
11633W        W54686  34.436  30.995   0.048  0.0029  0.0243  0.2832
11634W        W54687  24.541   5.697  10.351  0.1752  0.0475 -0.1826
11635W        W54688  21.044  30.356  23.151  0.0419  0.0201  0.1647
11636W        W54689  12.864  32.641   8.684  0.0622 -0.2496 -0.0574
11637W        W54690  20.770  33.388  25.819 -0.3429 -0.0358 -0.1327
11638W        W54691  12.603  16.774   2.753  0.0014  0.0681 -0.1759
11639W        W54692  13.050  24.774  18.983 -0.1109  0.0655  0.1500
11640W        W54693  27.718   7.498   0.615 -0.0045 -0.2496 -0.0777
11641W        W54694  27.690  33.099   2.728  0.0113  0.1535  0.2795
11642W        W54695  27.732   8.230  24.832  0.0565  0.0629 -0.4215
11643W        W54696  17.607  16.071   1.208 -0.0014 -0.1125  0.0470
11644W        W54697  24.751  29.354   3.183  0.0919 -0.0453  0.4108
11645W        W54698  26.121  10.088  24.707 -0.1128  0.0082 -0.2390
11646W        W54699  25.779   3.669   4.022  0.0041  0.0370  0.1442
11647W        W54700  20.421  28.982  20.908 -0.0571  0.0717 -0.2099
11648W        W54701  28.402  22.923   7.873  0.4359  0.2111 -0.0006
11649W        W54702  21.215  13.636   0.720  0.1266 -0.0639 -0.1958
11650W        W54703  11.297  17.962  24.423  0.1442  0.0260 -0.2750
11651W        W54704  28.056   2.050   2.995  0.0924 -0.0595  0.3521
11652W        W54705  26.754   3.542   6.607 -0.0888  0.2622  0.2527
11653W        W54706  19.295   3.460   4.400  0.3310  0.1281 -0.1654
11654W        W54707  19.055  27.989   0.940 -0.2765 -0.1356 -0.0571
11655W        W54708  12.933   9.664  19.487 -0.1070 -0.2822  0.2585
11656W        W54709  32.626  16.114  29.144  0.0937 -0.0876 -0.0899
11657W        W54710  17.513  25.933  25.914 -0.0027 -0.0334  0.1408
11658W        W54711  27.996  33.190   2.239  0.3035 -0.0383 -0.1922
11659W        W54712  27.174  30.274  10.487 -0.1768  0.3676  0.0161
11660W        W54713  21.283   0.009  19.027  0.0381 -0.3437  0.4814
11661W        W54714  34.056   8.595  16.854 -0.4607 -0.0816 -0.1996
11662W        W54715  10.319   3.724  24.879  0.1419  0.1250 -0.1704
11663W        W54716  24.176  33.096  23.401  0.1085  0.0734 -0.0140
11664W        W54717   1.058  32.898  29.147  0.2688  0.3051  0.2175
11665W        W54718   9.909  15.759  28.164 -0.0759  0.0592 -0.2482
11666W        W54719  19.427  21.994  14.746 -0.4019  0.0138 -0.1027
11667W        W54720  33.211   4.303  16.546 -0.1353  0.4514  0.0204
11668W        W54721  30.361  25.728  24.898 -0.1624  0.2091  0.0573
11669W        W54722  15.402  27.072   9.718  0.0707 -0.0945 -0.0054
11670W        W54723  20.511  27.914  29.138  0.2270 -0.1205  0.0648
11671W        W54724  34.258  27.032   0.450 -0.2214 -0.0407 -0.0574
11672W        W54725  22.028  29.434   0.946  0.1505 -0.3634  0.1569
11673W        W54726  33.399   5.351   1.214  0.0934  0.1490  0.0703
11674W        W54727  26.082  32.908   7.390  0.3477  0.0102 -0.1725
11675W        W54728   0.630  28.838  21.943 -0.0214  0.0081  0.1255
11676W        W54729  10.804  12.465  10.035  0.1263  0.2621 -0.0730
11677W        W54730  17.472  11.789   8.034  0.1045  0.0167 -0.2947
11678W        W54731  31.646  28.930  24.194  0.0875 -0.2020  0.0665
11679W        W54732  21.070  23.593   8.896  0.0783  0.0443 -0.0492
11680W        W54733  29.537  33.404   7.654 -0.0431 -0.4587 -0.2018
11681W        W54734  14.159  16.318  15.623  0.2667  0.0047  0.0047
11682W        W54735  20.143  25.898  10.235  0.1136 -0.0479 -0.1409
11683W        W54736   5.504   0.742  27.519  0.1561 -0.3816 -0.1178
11684W        W54737  30.896  25.173   2.268  0.1317  0.1228  0.2619
11685W        W54738  17.012  19.069   3.659  0.4047  0.0271 -0.0668
11686W        W54739   1.959   2.930  22.795  0.0494 -0.0287 -0.1630
11687W        W54740  34.229  11.153   5.741  0.1011  0.0682  0.2509
11688W        W54741  19.283  18.237  26.286  0.0726  0.0457  0.5475
11689W        W54742  16.834  18.027   6.308 -0.1104 -0.0071  0.0562
11690W        W54743   8.659  20.206  28.093 -0.1733 -0.2372 -0.1712
11691W        W54744  21.230  24.056  18.021 -0.1915  0.2135 -0.0160
11692W        W54745  32.764  20.481   1.051 -0.1058 -0.1061 -0.0491
11693W        W54746  23.785  20.324  25.502 -0.3333 -0.0024  0.1185
11694W        W54747  24.888   4.371  25.220  0.0738 -0.3888  0.0830
11695W        W54748   1.404   8.234  24.160 -0.1225  0.1306 -0.0405
11696W        W54749  23.631  21.485  16.824  0.0258  0.0109  0.1302
11697W        W54750  27.874  29.060   4.073  0.0264 -0.1168  0.1109
11698W        W54751  23.877  17.758   4.965  0.2557  0.3195 -0.0919
11699W        W54752  22.516  28.958  22.502  0.2346  0.0167  0.1351
11700W        W54753   3.573  34.173   3.323  0.0819 -0.2531 -0.0910
11701W        W54754  24.063   3.450  23.792  0.1000 -0.1736  0.2133
11702W        W54755   3.980   9.700  25.929 -0.1408  0.0714 -0.0418
11703W        W54756  33.148  29.085   7.228  0.0142  0.0146  0.1749
11704W        W54757  18.196   0.370   0.651  0.1397  0.0493 -0.1554
11705W        W54758   6.462  20.973   5.303 -0.0613 -0.2229  0.3452
11706W        W54759  26.390   6.383  19.291  0.0839  0.1027 -0.0175
11707W        W54760  25.096  10.642  10.120 -0.0945 -0.2872  0.0984
11708W        W54761   0.391   8.191  23.592 -0.4574  0.1235 -0.1095
11709W        W54762  33.111  23.497  26.494 -0.2910 -0.3403  0.0179
11710W        W54763  27.188   5.679   6.893 -0.2884 -0.2039 -0.1524
11711W        W54764  26.225  33.758  24.833 -0.1587  0.1715 -0.0663
11712W        W54765  20.640  27.606  25.197 -0.0022  0.0154  0.0224
11713W        W54766   8.326  29.378   1.805 -0.0589 -0.2357 -0.0529
11714W        W54767  23.339  24.008  20.831  0.0147  0.3792 -0.2351
11715W        W54768  24.790   2.404  15.709  0.0897 -0.0519  0.1094
11716W        W54769  21.712   4.417   1.912 -0.0004 -0.1677  0.1724
11717W        W54770  13.471   6.588  21.734  0.1694  0.2577  0.0846
11718W        W54771  20.277  34.564  23.931  0.1865  0.0525 -0.2028
11719W        W54772  29.093  31.415   7.678 -0.0510  0.1466  0.4926
11720W        W54773   6.238  11.431  18.298 -0.1991  0.1703 -0.3775
11721W        W54774  20.631  29.495  21.849 -0.1475  0.0885 -0.0297
11722W        W54775  24.179  31.188  13.897 -0.3092  0.0541 -0.1268
11723W        W54776   6.285  30.974  25.495 -0.1303 -0.2695  0.1353
11724W        W54777  23.354  10.412  18.909 -0.0178 -0.0067  0.0585
11725W        W54778  11.078  27.316  17.370  0.4152  0.0765 -0.3989
11726W        W54779  26.762  30.888  15.886 -0.1800 -0.2565 -0.1384
11727W        W54780  18.277  12.206   1.699 -0.1610  0.2312  0.0302
11728W        W54781  11.402  34.417  16.461 -0.3096 -0.1489  0.1535
11729W        W54782  13.272  25.634   8.114 -0.0328 -0.2240 -0.0905
11730W        W54783  18.327  17.889  25.457 -0.1619 -0.0722  0.1457
11731W        W54784  28.018  30.040  15.596 -0.1031 -0.2990 -0.2571
11732W        W54785  12.221  23.866  14.850  0.1108 -0.2547  0.0240
11733W        W54786  28.737   0.640  17.637  0.2351  0.0253  0.3901
11734W        W54787  12.310   9.934  24.078  0.1560  0.1390 -0.0756
11735W        W54788  21.388  27.814  16.787 -0.2595  0.0216 -0.2995
11736W        W54789  19.802   1.569  22.498 -0.4842 -0.0300 -0.0604
11737W        W54790   6.291  20.801  18.299 -0.1071  0.0954 -0.1378
11738W        W54791  25.363  32.442   1.357 -0.2667  0.0180 -0.0557
11739W        W54792  26.404   1.391  23.774 -0.1183 -0.1375 -0.0499
11740W        W54793  18.479   3.245   1.733  0.0571  0.0406  0.1900
11741W        W54794   1.229  34.427  14.434 -0.1093  0.0897 -0.3741
11742W        W54795  12.619   1.176  25.688  0.0842 -0.2580 -0.0289
11743W        W54796  18.556  27.205   3.017 -0.0646  0.1670  0.2213
11744W        W54797  32.110  20.919  26.045  0.2178 -0.0412  0.0023
11745W        W54798  12.097  11.171   6.069 -0.3067 -0.0647  0.0264
11746W        W54799  11.556   2.280  18.659 -0.1449  0.1542 -0.2205
11747W        W54800  25.222  29.885  14.064 -0.0658  0.0890  0.0348
11748W        W54801   7.599  28.826  15.723  0.2614 -0.1163  0.0425
11749W        W54802  29.435  31.972  29.162  0.2847 -0.0425 -0.1921
11750W        W54803  25.518  24.221  26.384 -0.1779 -0.0576 -0.0871
11751W        W54804  29.435  11.675  20.573  0.5344  0.0962  0.3818
11752W        W54805  18.657   2.907  15.848  0.1194 -0.0816  0.0186
11753W        W54806  19.983  10.639  15.503  0.0592  0.0422 -0.1790
11754W        W54807  29.970  17.799  22.596  0.0531 -0.2466 -0.4869
11755W        W54808  13.468  22.609  23.601 -0.0138  0.0582 -0.3447
11756W        W54809   4.888  28.798  20.721  0.2060  0.1338 -0.3233
11757W        W54810  27.600  24.612  25.921  0.0304 -0.1460  0.0854
11758W        W54811  33.504  31.808  23.750 -0.1950  0.0701 -0.1752
11759W        W54812  30.020  33.681  18.941  0.0151 -0.0285 -0.3213
11760W        W54813   2.818   0.822  21.422 -0.1218  0.0292 -0.0464
11761W        W54814   3.920  13.665  16.414 -0.0340 -0.1618 -0.1668
11762W        W54815  19.010  11.029  19.960  0.0256  0.0385  0.2516
11763W        W54816  27.176   5.161  14.508 -0.0545  0.1790 -0.3736
11764W        W54817  13.075  34.089  23.912 -0.1228 -0.0703  0.0026
11765W        W54818  27.539   0.455  22.149 -0.1795 -0.2590 -0.2420
11766W        W54819  22.622  30.927   0.569  0.2350 -0.2198 -0.0223
11767W        W54820  14.704  16.559  25.421 -0.1832  0.2410 -0.1022
11768W        W54821   9.081  22.706  13.650  0.0717  0.0290 -0.1483
11769W        W54822  16.306  27.789  25.288 -0.0198 -0.0591 -0.2916
11770W        W54823  10.974  24.042  13.506  0.1778  0.3684 -0.0556
11771W        W54824   8.288   5.800  24.673  0.0097 -0.2097 -0.1075
11772W        W54825  24.415  18.916  14.325  0.1351  0.2884 -0.0398
11773W        W54826  20.662  26.948  28.694  0.0633 -0.0364 -0.0271
11774W        W54827  12.180   6.764  27.514  0.4550 -0.1506  0.3967
11775W        W54828  10.858  28.456  18.537 -0.0374 -0.0015 -0.3888
11776W        W54829  25.824  24.579  18.063  0.0297 -0.2551  0.2747
11777W        W54830  15.583  34.560  28.033  0.2307 -0.1823 -0.3006
11778W        W54831  17.605  17.606   6.267  0.2121  0.2658 -0.1823
11779W        W54832  34.037  29.621  15.829  0.2830  0.0460 -0.2672
11780W        W54833  28.064   2.790  14.866 -0.3462 -0.0270 -0.2715
11781W        W54834   1.063  30.346   2.531 -0.3548  0.0111 -0.0770
11782W        W54835  20.192   0.955  18.945  0.1319 -0.3490 -0.0128
11783W        W54836  11.423  10.532   9.289 -0.0318  0.0425  0.0198
11784W        W54837   4.795  17.974  23.646  0.0229 -0.0002 -0.0596
11785W        W54838   7.033  33.936  17.738 -0.1064  0.0953  0.2809
11786W        W54839  28.224  23.974  27.301 -0.1739  0.0539  0.0158
11787W        W54840  23.353  33.821  21.493 -0.1464  0.1929 -0.0305
11788W        W54841  24.265   8.438  19.774  0.2315 -0.1525 -0.4459
11789W        W54842  32.591   0.441  24.201 -0.1302 -0.1226  0.0188
11790W        W54843  19.301  21.750  17.406 -0.0339 -0.0430 -0.0939
11791W        W54844  26.628  26.438  17.503  0.0513  0.0793  0.1407
11792W        W54845  26.579   5.002  15.817  0.1353  0.1047 -0.0961
11793W        W54846  13.703  30.245  26.185  0.2354  0.1614 -0.2266
11794W        W54847  13.010   7.947   0.450 -0.2341  0.0505 -0.2166
11795W        W54848   4.148  26.864  23.948 -0.3131 -0.2051  0.3057
11796W        W54849  23.060   4.246  26.465  0.2245 -0.1278  0.0890
11797W        W54850  17.329  30.850  16.576  0.1674 -0.0704 -0.1783
11798W        W54851  25.157  25.134  21.938 -0.0184  0.2664  0.1796
11799W        W54852  29.084  31.969  15.267  0.2833  0.1633  0.1684
11800W        W54853   5.537  31.750  18.984  0.1231 -0.0858 -0.0064
11801W        W54854  11.332  33.155  15.301 -0.2865 -0.2250  0.1247
11802W        W54855  10.874  24.295  18.171 -0.1676  0.0691 -0.0676
11803W        W54856  24.265  12.740  24.801  0.0471 -0.1709  0.0915
11804W        W54857  19.175  13.573  22.978  0.1319 -0.1343  0.2707
11805W        W54858  12.503  34.493  15.677 -0.2845 -0.2304  0.1305
11806W        W54859  14.188  26.779  24.723  0.1478 -0.0015  0.2159
11807W        W54860  32.038  34.663  19.123 -0.2342 -0.1768  0.1364
11808W        W54861  34.337  23.294  20.613 -0.0773 -0.2138  0.0358
11809W        W54862  31.165   8.749  18.302 -0.0131 -0.0764  0.0645
11810W        W54863  30.962  30.408  19.100  0.2122  0.3475 -0.3720
11811W        W54864  30.204  28.725  17.196 -0.0937  0.0842  0.1873
11812W        W54865  18.025  30.460   0.177 -0.1429 -0.3089 -0.4124
11813W        W54866   6.061   3.482  17.024  0.1529 -0.0802  0.0644
11814W        W54867  23.114  30.445  14.243 -0.0787 -0.2367 -0.0579
11815W        W54868  25.270  13.764  17.537 -0.0033 -0.1506  0.1337
11816W        W54869  25.498  12.488  18.404  0.0838  0.2103 -0.1959
11817W        W54870  16.179  30.861  22.989  0.2872 -0.0319 -0.0769
11818W        W54871  27.605  32.215  25.865  0.0332 -0.1287  0.1739
11819W        W54872  17.768  25.719  18.068 -0.1538  0.0739  0.0270
11820W        W54873  13.505  32.056  28.025 -0.1654  0.4125 -0.1526
11821W        W54874  34.573   5.006  26.720  0.0196  0.0183 -0.1459
11822W        W54875   8.405  22.000  15.727  0.0936 -0.2702 -0.0385
11823W        W54876  17.347   5.627  19.690  0.0042 -0.1265  0.0444
11824W        W54877  19.829   5.893  14.213 -0.2928 -0.2107 -0.0434
11825W        W54878  27.831  33.241  14.409  0.0585 -0.0936 -0.1671
11826W        W54879  34.584  12.662  15.165  0.2712  0.0930 -0.0355
11827W        W54880  17.402   0.018  17.384  0.2281 -0.2363 -0.1180
11828W        W54881  17.955   3.094  27.052  0.1220 -0.0906 -0.0109
11829W        W54882  29.420  32.985  20.741 -0.2005  0.1020  0.1438
11830W        W54883  26.100  28.874   4.044 -0.4158 -0.2219  0.0839
11831W        W54884  20.102  18.211  21.762  0.0295 -0.2935 -0.2078
11832W        W54885  15.806  34.588   2.351 -0.1078  0.2997 -0.0478
11833W        W54886  33.447   6.532  26.705  0.1200  0.2553 -0.5416
11834W        W54887   7.444  16.691  26.664  0.5129  0.1602  0.1106
11835W        W54888  22.613  17.747  13.892  0.0131 -0.1876  0.4771
11836W        W54889  26.181  32.227  25.913  0.0023  0.0994  0.2199
11837W        W54890  17.334  23.402  21.452  0.2320 -0.1222  0.2451
11838W        W54891   9.454   9.271  25.606 -0.3078  0.0092  0.0357
11839W        W54892  32.631  23.941  27.075 -0.1768 -0.2013  0.1248
11840W        W54893  15.891  28.041  17.387 -0.0559  0.2965  0.0214
11841W        W54894  32.431  18.217  21.421  0.4048  0.3228  0.3691
11842W        W54895  14.022  19.212  28.068  0.2032  0.1676 -0.1909
11843W        W54896  31.911   4.104  14.403  0.3214 -0.0447  0.0735
11844W        W54897  29.080   2.993  18.940 -0.1768  0.0635 -0.1754
11845W        W54898  18.719   2.055  20.236  0.2654  0.0185 -0.0591
11846W        W54899  13.230  30.874  16.252 -0.1829 -0.2361 -0.1367
11847W        W54900  18.347  33.550  25.402 -0.2480 -0.3875 -0.2580
11848W        W54901  22.526  19.544  20.659  0.0588  0.1586 -0.2488
11849W        W54902  24.621   3.638  26.098 -0.1708 -0.1725  0.0302
11850W        W54903  26.619  26.543  13.716 -0.1149  0.0456 -0.2762
11851W        W54904  22.884  24.627  20.477  0.0651  0.0361  0.0616
11852W        W54905  29.202  30.090  27.210  0.1587 -0.0274 -0.0584
11853W        W54906  20.851   6.701  26.475  0.2469 -0.2184 -0.0426
11854W        W54907  23.806  32.009  25.591 -0.1543  0.2023 -0.0493
11855W        W54908  30.707   1.141  24.870  0.3282  0.2035 -0.2657
11856W        W54909  19.041  25.759   8.757 -0.0618  0.1362  0.1602
11857W        W54910  25.228  23.810  18.821  0.0728  0.3083 -0.0410
11858W        W54911  30.027   1.285   2.510  0.0773  0.0497  0.2132
11859W        W54912  24.263  23.529  15.114  0.3017 -0.2359 -0.0480
11860W        W54913  28.727  14.433  26.772 -0.1527  0.3795  0.0490
11861W        W54914  21.247   0.277   3.072 -0.3122  0.1923 -0.4812
11862W        W54915   4.023  22.891  25.706 -0.0599  0.0564 -0.0938
11863W        W54916  29.961  32.863  28.841  0.2439  0.4686 -0.1676
11864W        W54917  25.609  15.407  23.698  0.4681  0.0639 -0.1075
11865W        W54918  22.815   0.371  27.054 -0.0564 -0.1588  0.1257
11866W        W54919  20.987  33.254  15.450 -0.2684  0.0857 -0.1883
11867W        W54920  28.344   1.680  20.766  0.1071 -0.1488 -0.2261
11868W        W54921  21.138  31.222  28.282  0.0805  0.1208  0.0081
11869W        W54922  22.202   1.750  23.053 -0.5184 -0.0319  0.0294
11870W        W54923  11.628  24.718  20.248  0.0291 -0.0847  0.0911
11871W        W54924  15.418  32.603  23.533  0.3381 -0.3867 -0.3755
11872W        W54925  26.231  25.503  24.528  0.2745  0.1634 -0.1002
11873W        W54926  30.509  28.815  18.531 -0.3835 -0.0923 -0.2524
11874W        W54927  29.683  14.037   1.770  0.4908  0.3899  0.2408
11875W        W54928  16.505  34.529  22.024  0.2333 -0.0371 -0.0685
11876W        W54929   6.545  32.618  15.071 -0.1640 -0.0476 -0.0706
11877W        W54930  27.866  32.484   1.918  0.1844  0.2113  0.0997
11878W        W54931   8.263   0.323  17.643  0.1621 -0.1828  0.4758
11879W        W54932  16.066   9.768  22.134 -0.2650  0.0144 -0.0431
11880W        W54933  21.407  26.707  16.643 -0.2157  0.3087 -0.1481
11881W        W54934  11.893  29.587  13.514 -0.1209  0.2007 -0.1154
11882W        W54935  31.000   3.633  15.044 -0.0339 -0.2310 -0.1415
11883W        W54936   1.738   1.183  27.810 -0.0711  0.1478  0.0522
11884W        W54937  17.047  14.157  28.480 -0.1463 -0.1112  0.0870
11885W        W54938  30.575   7.189  16.324  0.2932 -0.0759 -0.0936
11886W        W54939  23.015  22.996  14.006 -0.1111  0.1162  0.0242
11887W        W54940  33.698   8.232  21.595  0.0203  0.0027  0.0875
11888W        W54941  11.847  26.881  14.689  0.2037  0.0721 -0.2368
11889W        W54942  11.911  24.713  23.731  0.1232  0.0197  0.1566
11890W        W54943  29.180   7.847  21.072 -0.4164  0.1684  0.1648
11891W        W54944  22.561  34.307  18.456  0.1158 -0.3840  0.1148
11892W        W54945  23.599  28.533  17.076 -0.0545  0.0055  0.3009
11893W        W54946  15.213   1.822  20.746 -0.0300 -0.0350  0.1778
11894W        W54947  30.634  23.780  22.686 -0.1944  0.2062  0.0079
11895W        W54948  33.790  31.024  13.876 -0.0219 -0.3462 -0.1849
11896W        W54949  29.524  30.669  14.231 -0.0323  0.2370 -0.1660
11897W        W54950  19.695  14.699  14.390  0.0911 -0.0151  0.1715
11898W        W54951  24.611  14.021  15.398  0.1199 -0.0020  0.0407
11899W        W54952  11.343  32.165   5.432  0.4925 -0.3079  0.3130
11900W        W54953  32.807   9.976  16.687  0.1020 -0.0680 -0.4041
11901W        W54954  30.258  34.027  16.231 -0.2471 -0.0275 -0.3627
11902W        W54955  30.309  33.688  29.164 -0.0584 -0.0369 -0.4259
11903W        W54956  22.064   4.114  18.654  0.1969  0.0340  0.0023
11904W        W54957  17.369  31.888  17.068  0.0196  0.0954  0.3212
11905W        W54958  28.136  24.393  27.036  0.2673 -0.1451  0.1232
11906W        W54959  21.319  22.290  20.485  0.2564  0.3441 -0.0065
11907W        W54960  29.216  30.700  15.438  0.1697 -0.0783  0.0947
11908W        W54961  27.730  28.717  18.924 -0.1471 -0.0206  0.1706
11909W        W54962  18.901   7.766  15.517 -0.0244 -0.1740  0.1262
11910W        W54963  25.387  19.189  21.599 -0.2281  0.1012  0.0636
11911W        W54964  10.079   5.130  16.654  0.1844  0.2213 -0.0870
11912W        W54965  15.745  22.152  24.473  0.0083  0.3009  0.2518
11913W        W54966  26.427  32.457  16.212  0.1854  0.2135 -0.3372
11914W        W54967  14.008  32.829  20.214 -0.2529  0.1086  0.2134
11915W        W54968  21.423  33.753  20.272 -0.3191  0.1774 -0.0713
11916W        W54969   7.381  31.561  18.681  0.0613 -0.0833 -0.3323
11917W        W54970  15.473  21.856  22.306 -0.1485  0.0319  0.6704
11918W        W54971  12.592  22.481  25.481  0.2539  0.0663  0.0124
11919W        W54972  29.714   1.223  20.134  0.0529 -0.1545 -0.1290
11920W        W54973  27.611  14.643   2.049  0.1111  0.3980  0.0174
11921W        W54974  10.612   8.967  15.639  0.2460 -0.2522  0.1036
11922W        W54975  25.059   9.220  20.301 -0.0574  0.0169 -0.1697
11923W        W54976  19.799  29.923  26.682 -0.0023  0.2094 -0.0595
11924W        W54977  10.247   1.746  23.870  0.1773 -0.0100  0.0387
11925W        W54978  13.211  25.361  23.871 -0.1933  0.0425 -0.0260
11926W        W54979  23.713   2.011  14.836 -0.2496  0.0395  0.1451
11927W        W54980   2.928  25.526  28.454  0.0819  0.1695 -0.0702
11928W        W54981  20.759   0.825   5.939  0.1419 -0.1139  0.2280
11929W        W54982  10.792  28.614  16.273 -0.0385  0.2813  0.1853
11930W        W54983  13.405  28.803  27.896  0.0333  0.1689  0.0476
11931W        W54984  28.589   4.469  27.706 -0.3202 -0.0846  0.2695
11932W        W54985   9.244  20.641   5.317 -0.0479  0.1995 -0.2565
11933W        W54986  22.467  17.333  22.187  0.1354 -0.0070  0.0673
11934W        W54987  26.011  14.172  22.292 -0.0104 -0.0998  0.0045
11935W        W54988   3.805   6.617  16.138  0.2100  0.2708  0.0602
11936W        W54989  23.448  27.165  18.224 -0.0234 -0.2776  0.0704
11937W        W54990  31.478   8.452  20.429 -0.1059  0.1740 -0.0587
11938W        W54991  28.281   2.115   6.005  0.1041 -0.0665 -0.0220
11939W        W54992  32.059  26.333   6.212  0.1113 -0.1487  0.0392
11940W        W54993  22.299  31.370  21.388  0.0169 -0.1838 -0.2773
11941W        W54994  28.058  28.258  17.867 -0.0586  0.0668  0.0710
11942W        W54995   2.556  10.676  14.877 -0.0530 -0.0874  0.1389
11943W        W54996  28.040   5.584  24.709  0.0657  0.1951  0.2182
11944W        W54997  16.527  22.287  24.297 -0.0666  0.1171  0.1339
11945W        W54998  25.964  32.361   2.628 -0.0515  0.0215  0.1259
11946W        W54999  23.248  18.535  22.823  0.2233 -0.1997  0.0829
11947W        W55000  19.158  10.741   5.973 -0.0250 -0.0996  0.0255
11948W        W55001  21.038  10.924  17.112  0.1342 -0.0757  0.0211
11949W        W55002  20.328  34.005  22.745  0.3132  0.0486 -0.0307
11950W        W55003  17.996   0.311  16.060  0.3170 -0.4906 -0.2086
11951W        W55004  18.609  30.138  24.811  0.0471  0.0322  0.1856
11952W        W55005  19.051  19.991  15.594 -0.0920  0.1476 -0.0424
11953W        W55006   5.351   2.518  23.773 -0.1312 -0.0905 -0.3574
11954W        W55007  10.036  24.438  27.022 -0.0622  0.2550 -0.0435
11955W        W55008  23.881   1.236  15.684 -0.2391 -0.0674 -0.3659
11956W        W55009  22.668  10.610  24.126  0.2115  0.2905 -0.2206
11957W        W55010  12.000  19.447  27.544  0.1639  0.3462 -0.2480
11958W        W55011  33.859  28.442  24.405  0.2629 -0.1821  0.2515
11959W        W55012   3.721  25.190  19.327 -0.1364 -0.1176 -0.3600
11960W        W55013  27.413   0.033  16.913  0.0703  0.0765 -0.1596
11961W        W55014  20.071   2.796  15.191 -0.1245  0.3861 -0.2531
11962W        W55015  33.239  27.715   0.225 -0.0536  0.1464  0.0622
11963W        W55016  28.839   9.717   1.639 -0.2241  0.0757  0.1020
11964W        W55017  33.525  21.871  19.361  0.1198 -0.0358 -0.3046
11965W        W55018  33.111  32.780  20.686 -0.0744 -0.1378 -0.0600
11966W        W55019   5.646  27.004  15.730 -0.1382  0.0379  0.0429
11967W        W55020  12.950  23.137  17.810 -0.1545  0.0347 -0.0497
11968W        W55021  31.015  25.608  22.953  0.0410  0.0147  0.0747
11969W        W55022  25.691   3.891   7.671 -0.0594  0.1860 -0.1830
11970W        W55023  20.299   5.517  19.744  0.1975  0.2287 -0.1756
11971W        W55024  21.259  28.585  19.390 -0.0921 -0.2480  0.0083
11972W        W55025  23.398   4.917  24.791 -0.1596 -0.1416 -0.4404
11973W        W55026  19.679  24.029  23.769  0.0047 -0.1990 -0.0218
11974W        W55027   7.800  33.920  15.528 -0.0353 -0.0500 -0.2412
11975W        W55028  22.638   4.469  18.569 -0.0210  0.2499  0.0627
11976W        W55029  22.163  26.737  15.186  0.2740  0.0520 -0.3636
11977W        W55030  18.799   3.667  29.051  0.3426 -0.1727  0.2110
11978W        W55031  21.487  22.861  18.254  0.4249 -0.2276  0.1096
11979W        W55032  16.748   1.318  22.661 -0.0401 -0.2267  0.0551
11980W        W55033  33.460  30.393  19.653  0.1801 -0.1718  0.0930
11981W        W55034  25.950  30.041   0.064 -0.1513  0.3320  0.0224
11982W        W55035  12.499   6.288  19.118  0.0543 -0.2176  0.1346
11983W        W55036  15.967  33.984  21.860  0.1695  0.3367  0.1400
11984W        W55037  16.416  28.958  17.479  0.1810  0.0038  0.2018
11985W        W55038  26.464   3.982  19.163 -0.0897  0.1028 -0.2339
11986W        W55039   3.012  33.037  19.975 -0.0627 -0.1931  0.0524
11987W        W55040   0.518  13.736  18.698 -0.0232  0.2058 -0.0167
11988W        W55041  18.657  29.999  19.519 -0.1376 -0.0758 -0.2219
11989W        W55042  27.534   5.027  27.301  0.0540  0.0756 -0.0716
11990W        W55043  15.281   5.642  16.616  0.1497  0.1085  0.0315
11991W        W55044  24.468  30.346  14.096 -0.0717  0.1415 -0.0513
11992W        W55045  16.624   4.946  15.695 -0.3786 -0.2546 -0.2306
11993W        W55046  26.230   0.226  19.177  0.1114  0.0451  0.3626
11994W        W55047  14.887  26.939  15.087 -0.0602 -0.3223  0.0560
11995W        W55048   3.154   5.683  17.826  0.0989 -0.0198  0.2663
11996W        W55049  20.144   4.928  17.272  0.1932 -0.0723  0.1797
11997W        W55050  18.038  30.687  19.426  0.0543  0.2060  0.0557
11998W        W55051  26.555  26.346  20.105 -0.0596  0.1173 -0.0357
11999W        W55052  24.599  18.665  15.848  0.1135  0.1635  0.3334
12000W        W55053  16.409   3.772   1.307  0.1663  0.0820  0.1540
12001W        W55054  22.190   3.257  17.265  0.2824  0.0920  0.1658
12002W        W55055   8.683   6.645  15.477  0.0278  0.0152  0.0025
12003W        W55056  13.295  32.890  24.608  0.1333 -0.1515  0.3482
12004W        W55057  32.255  33.521  14.936 -0.2451  0.1138 -0.2576
12005W        W55058   2.544  26.274  20.732 -0.1906  0.4167  0.2922
12006W        W55059  29.180  26.168  28.508  0.0158 -0.1513  0.1879
12007W        W55060  29.769  31.014  13.466 -0.3542 -0.1852  0.6890
12008W        W55061  29.874  18.486  21.856  0.2681  0.0269 -0.1343
12009W        W55062  32.479   7.465   1.065 -0.1431  0.1267 -0.1699
12010W        W55063  15.929   3.613  23.667  0.1443 -0.3028  0.3027
12011W        W55064  32.126  28.572  27.195 -0.1476 -0.0906 -0.0177
12012W        W55065  25.235  19.630  20.348  0.1759 -0.0558  0.0415
12013W        W55066  17.936   3.415   2.801 -0.0056 -0.0629  0.2936
12014W        W55067   3.521   5.919  20.741 -0.1470 -0.1640  0.1010
12015W        W55068  22.718  21.702  17.439 -0.2165  0.0952  0.2736
12016W        W55069  14.307   0.820  15.253  0.1769 -0.0463 -0.0470
12017W        W55070  20.911  10.408  27.270  0.2689  0.1394  0.0683
12018W        W55071   0.876  23.882  24.682  0.0507 -0.4381 -0.0010
12019W        W55072   3.454  25.236  22.213  0.0989 -0.0981  0.1225
12020W        W55073   1.621   2.576  17.768  0.3689 -0.2551  0.1307
12021W        W55074  27.666  17.085  21.670 -0.3826 -0.3071 -0.0038
12022W        W55075   2.477  15.487   0.740 -0.0816  0.0033  0.2044
12023W        W55076  14.874   7.630  17.808 -0.0501  0.2761  0.1212
12024W        W55077  16.306  33.583   3.578 -0.2467 -0.2444 -0.1539
12025W        W55078  18.905   4.440  21.476  0.0915  0.0202 -0.1174
12026W        W55079  21.166   6.920  23.215  0.0519 -0.0386 -0.1865
12027W        W55080  21.117   0.850  18.512  0.0845  0.1282 -0.0701
12028W        W55081  13.713   9.865  15.719 -0.0177 -0.0414  0.4017
12029W        W55082  21.172   5.151   0.034 -0.1361 -0.0255 -0.1515
12030W        W55083  22.051  34.086   0.613 -0.0577  0.0279 -0.3522
12031W        W55084  17.749  21.895  19.760  0.1085  0.1106 -0.2622
12032W        W55085  24.933  11.646  23.950  0.1722  0.0545 -0.0048
12033W        W55086  20.138  32.092   5.001 -0.0816 -0.2680  0.0445
12034W        W55087  25.854  20.688  16.821 -0.1903 -0.2390 -0.2363
12035W        W55088   2.362  29.904  13.583  0.1627 -0.3869 -0.1019
12036W        W55089   0.629   3.536   9.503 -0.0959 -0.0833  0.0079
12037W        W55090   0.224  30.291  14.765  0.0121  0.0488  0.2765
12038W        W55091  12.709   1.956  15.012  0.3421  0.1472 -0.0160
12039W        W55092  33.905  24.164  15.964 -0.2533 -0.1378 -0.5222
12040W        W55093   7.802  19.904  27.109 -0.0449  0.1229 -0.0769
12041W        W55094  26.845   5.360  14.108 -0.0105 -0.1421  0.0383
12042W        W55095   8.602  19.077   6.560  0.0922  0.0523  0.2885
12043W        W55096  22.142   1.864  18.540 -0.1029 -0.0173  0.0664
12044W        W55097   6.111   5.098  15.752  0.1099  0.0658 -0.1695
12045W        W55098  12.600  20.849  22.247 -0.1541 -0.0550  0.2115
12046W        W55099  33.830   1.610  10.009 -0.0901  0.1429  0.2300
12047W        W55100  26.825  30.510  15.298 -0.0399  0.2124 -0.0632
12048W        W55101  19.998  28.576  24.118 -0.1045  0.2624 -0.1470
12049W        W55102  14.181  19.981  26.841  0.0767  0.4378 -0.2669
12050W        W55103   1.929  31.256  13.871 -0.1887  0.2913  0.3105
12051W        W55104  27.285  33.424   9.001  0.3831  0.1407  0.0306
12052W        W55105  15.135  28.454   2.650 -0.0188  0.0526  0.0178
12053W        W55106  32.352  18.935  25.091  0.0076  0.3682 -0.0826
12054W        W55107  24.149  25.199  14.310 -0.2075 -0.0446  0.0469
12055W        W55108  19.889   2.311  14.908 -0.0429  0.0440 -0.1620
12056W        W55109   5.320  32.952  27.254  0.2257  0.1358 -0.0449
12057W        W55110  23.107   9.053  25.817 -0.1813 -0.1958  0.4453
12058W        W55111   6.771   1.207  24.886  0.1307  0.0677  0.1059
12059W        W55112  23.325  32.873  16.456 -0.3079 -0.1663  0.1595
12060W        W55113  16.644   3.662  22.624 -0.2407  0.2144 -0.2241
12061W        W55114  21.782  22.722  19.472 -0.0195 -0.1377 -0.1917
12062W        W55115  31.684  13.277  17.748  0.2116 -0.0513  0.1925
12063W        W55116  22.530   3.524  15.445  0.3547  0.0074  0.0690
12064W        W55117  27.756  11.421  18.279 -0.1452  0.0086  0.0486
12065W        W55118   7.297  11.627  25.723  0.2701 -0.0342 -0.1869
12066W        W55119  13.252   3.975  16.361  0.1736  0.0730 -0.4229
12067W        W55120  18.766   6.867  15.175 -0.3259  0.0020 -0.0524
12068W        W55121  24.640  21.910  14.287 -0.2986 -0.0842  0.0155
12069W        W55122  29.301   2.089  27.687  0.0125 -0.2925  0.0413
12070W        W55123  28.253   4.065  28.666  0.1277  0.0016 -0.0092
12071W        W55124  17.098  17.789   7.823 -0.0075  0.3046 -0.2023
12072W        W55125  14.443   3.181  20.251 -0.1463  0.1605 -0.3121
12073W        W55126  30.989  26.266  20.825  0.0627 -0.1524  0.1790
12074W        W55127  22.145  23.359  16.237 -0.0768  0.0513  0.0124
12075W        W55128   2.335  23.028  13.213  0.0430  0.1000 -0.1244
12076W        W55129  16.115   4.715  18.166 -0.2273  0.0339 -0.2168
12077W        W55130  12.722  32.993  27.039  0.2196  0.0893 -0.0201
12078W        W55131  12.593  30.758  13.819 -0.0231  0.1140 -0.1331
12079W        W55132  18.365   7.575  18.350 -0.0872 -0.1918  0.1202
12080W        W55133  10.532  16.522  15.677 -0.0540  0.0686  0.2561
12081W        W55134  26.913  30.398  14.410  0.1973  0.2545  0.0759
12082W        W55135  21.309  11.206  27.021 -0.1667 -0.1768 -0.2976
12083W        W55136   4.711   5.544  27.985 -0.1643  0.0469  0.1645
12084W        W55137   0.165  31.419  20.000 -0.1675 -0.0294  0.0263
12085W        W55138   9.711  28.603  16.321  0.2214  0.1768  0.0353
12086W        W55139  27.863   3.063  16.924 -0.1785  0.0054  0.2554
12087W        W55140  22.135   7.106   9.506  0.1754  0.3300  0.2577
12088W        W55141   5.219  26.523  20.716 -0.0352 -0.2570  0.2024
12089W        W55142   0.436   1.520  22.018  0.1113  0.0153  0.0251
12090W        W55143  24.107  22.198  20.957  0.3158 -0.2183  0.0051
12091W        W55144   0.190   3.395   4.105 -0.2746 -0.3247 -0.1614
12092W        W55145  18.174  26.715  28.207  0.0146  0.1138  0.3402
12093W        W55146  14.832  21.442   3.537 -0.2601  0.0106  0.0103
12094W        W55147  27.579  29.192  25.784  0.0073  0.2536 -0.3282
12095W        W55148  16.776  30.061  21.794 -0.0094  0.1547  0.1590
12096W        W55149  20.919  18.840  20.308  0.0434  0.0426 -0.2329
12097W        W55150   7.741  26.032   2.278  0.0179  0.1209  0.0784
12098W        W55151  23.380  22.214  23.933 -0.0568  0.1087  0.0070
12099W        W55152  18.757   3.196   0.925  0.4058  0.0820  0.0311
12100W        W55153  21.144  21.231  24.178 -0.0882  0.2278 -0.2196
12101W        W55154  20.688   3.090  20.540  0.4011 -0.0946 -0.0643
12102W        W55155  10.482  30.942  28.773 -0.4107 -0.1962 -0.2879
12103W        W55156   2.459  28.847  18.504  0.0551  0.2038 -0.2056
12104W        W55157   2.105  16.030  17.161  0.2707  0.4752  0.0771
12105W        W55158  10.424  29.740  14.451 -0.2839 -0.0978  0.1536
12106W        W55159  19.472  12.856  25.140 -0.3058 -0.0751 -0.0911
12107W        W55160  33.294  22.703  20.833  0.1064 -0.2652  0.1902
12108W        W55161  11.191  28.199  16.312  0.0807 -0.1012  0.3059
12109W        W55162  29.977  12.805  18.696  0.3675  0.0141 -0.0506
12110W        W55163   7.307  28.754  24.358 -0.1777 -0.1229  0.2814
12111W        W55164  30.510  18.316  18.895  0.0605 -0.0160  0.0765
12112W        W55165  20.990   8.017  23.032  0.4155 -0.0384  0.1363
12113W        W55166   0.003  26.948  17.997  0.0437  0.0301 -0.0171
12114W        W55167   1.987   7.170  27.485  0.0085 -0.0093  0.0268
12115W        W55168   4.087  31.967  17.954  0.0901 -0.3072 -0.0188
12116W        W55169   2.790  29.782  18.646  0.0055  0.1297 -0.3201
12117W        W55170  28.684  25.443  14.826 -0.2996  0.0175 -0.2178
12118W        W55171  15.113   5.443   4.357 -0.0146  0.1765 -0.1270
12119W        W55172  27.249   0.546  24.119  0.0851 -0.3595  0.0223
12120W        W55173  19.997  34.453  16.190  0.0186  0.4679  0.0115
12121W        W55174  21.706  31.449  23.517 -0.1129 -0.1078  0.4224
12122W        W55175  23.475  25.552  15.866  0.2139  0.0105 -0.2257
12123W        W55176   5.267   4.899  24.031 -0.0112  0.0012  0.1430
12124W        W55177  18.096  29.062  22.363 -0.4008 -0.1705 -0.0175
12125W        W55178  13.784  33.385  15.570 -0.0296 -0.1770  0.0894
12126W        W55179  21.312  32.847  17.703 -0.1209 -0.0237 -0.0108
12127W        W55180  21.466  14.907  18.255 -0.1665 -0.0630 -0.4912
12128W        W55181  21.638   5.685  27.122  0.0524  0.4769  0.2435
12129W        W55182  31.166   2.175  15.302 -0.1426 -0.0541 -0.1771
12130W        W55183  25.287  30.202  18.416 -0.0404  0.2182  0.2927
12131W        W55184  21.649  14.779  19.623 -0.0033 -0.1951 -0.1553
12132W        W55185  19.369  31.281   0.264  0.3256 -0.1081 -0.0870
12133W        W55186  18.459  30.968  17.818  0.3590 -0.1777  0.0993
12134W        W55187  29.880  26.948  16.027 -0.0524 -0.0189 -0.1563
12135W        W55188  13.319  21.377  22.318  0.1758 -0.0097  0.2054
12136W        W55189  18.677  31.855  14.504  0.0365 -0.2604 -0.0277
12137W        W55190  32.185  30.735  24.348  0.2880  0.0508  0.2895
12138W        W55191  17.443  20.785   0.921 -0.2502 -0.0491  0.3412
12139W        W55192   5.854   0.710  25.076 -0.0390  0.0377 -0.1299
12140W        W55193  30.279  33.276   2.853  0.0217 -0.0687 -0.2539
12141W        W55194   0.621  14.268  23.509 -0.1026 -0.2232 -0.1746
12142W        W55195  20.057  32.666  24.726 -0.1609  0.1589 -0.3218
12143W        W55196   9.608   3.154   5.592  0.0335 -0.0553 -0.4513
12144W        W55197  22.189  21.462   0.942  0.0566 -0.1432 -0.1119
12145W        W55198  27.249   1.532  15.119  0.0463 -0.2776  0.0012
12146W        W55199  28.904  24.414  20.334 -0.1979 -0.0299 -0.0648
12147W        W55200  24.469  20.300  20.651  0.3007 -0.3415 -0.3853
12148W        W55201  20.961   9.343  23.920 -0.0931 -0.0522 -0.0693
12149W        W55202  18.968  13.218  21.841  0.1609  0.4436  0.2411
12150W        W55203  19.607  11.466   0.824  0.1297 -0.0085 -0.0353
12151W        W55204  19.058  13.208  12.764  0.1473  0.0796 -0.0008
12152W        W55205  17.969  31.387  25.837 -0.1147  0.1490 -0.0133
12153W        W55206  26.614  20.836  26.179 -0.4405  0.1537 -0.2300
12154W        W55207   2.944  22.393  19.138 -0.0546 -0.1430  0.1519
12155W        W55208  24.279  24.660  27.007  0.0894  0.1792 -0.1090
12156W        W55209   9.844  34.330  25.811  0.0010  0.2925 -0.3026
12157W        W55210  29.006   5.518  27.704  0.0221  0.2215  0.2411
12158W        W55211  16.571   5.662  23.872 -0.0531  0.1946 -0.0400
12159W        W55212  30.441   0.119  26.292 -0.0442 -0.1834  0.1807
12160W        W55213  32.487  11.644  17.027  0.1942  0.1748 -0.0646
12161W        W55214  29.465  25.579   2.093 -0.0935  0.1564 -0.2176
12162W        W55215  34.605   0.378  21.375  0.0965  0.1043 -0.0194
12163W        W55216  25.968   4.453  18.085  0.2541  0.0988 -0.4499
12164W        W55217  20.857  25.021  18.244  0.0576  0.3379 -0.1073
12165W        W55218  34.193  14.299  17.339  0.0485  0.0357  0.0546
12166W        W55219  16.357   0.202  24.038 -0.1672 -0.0628  0.0965
12167W        W55220  16.780  26.101   3.073  0.0119 -0.1571 -0.0834
12168W        W55221  21.177  26.904  22.260  0.1838 -0.1652  0.2066
12169W        W55222  18.945  14.968  15.198 -0.2611  0.0830  0.1288
12170W        W55223  20.138  29.659  16.592  0.1446 -0.0987  0.0645
12171W        W55224  23.738  32.865  18.128 -0.4270 -0.3488 -0.1390
12172W        W55225  24.751  34.306  19.765 -0.0046 -0.0656  0.1284
12173W        W55226  32.368   0.349  15.658 -0.0586 -0.0720 -0.1408
12174W        W55227  29.158   1.271  21.722 -0.1074 -0.1238  0.0181
12175W        W55228  16.841  10.385  18.040 -0.0839 -0.1526  0.0457
12176W        W55229  27.524  30.107  15.103  0.0815  0.0673  0.0029
12177W        W55230   4.935   3.144  21.590  0.2196  0.2169 -0.0547
12178W        W55231  25.792  32.494  27.494  0.2094  0.0805 -0.3420
12179W        W55232   1.251  29.579  27.193  0.2750  0.2571 -0.1570
12180W        W55233  13.205  17.862  25.539 -0.0932 -0.0845 -0.2283
12181W        W55234  29.425   4.352  16.260  0.1193 -0.0273 -0.1386
12182W        W55235  31.170  26.764   5.013  0.2007  0.2881 -0.1807
12183W        W55236  22.800  12.989  18.084  0.2546 -0.1087 -0.0147
12184W        W55237  18.510   1.308  18.613  0.1728  0.1485  0.1166
12185W        W55238  15.180  12.633  15.541 -0.2198  0.1287 -0.2089
12186W        W55239  31.986   9.267   2.598  0.1866 -0.1625  0.0323
12187W        W55240   5.078  31.651  22.366 -0.1145  0.3079  0.0504
12188W        W55241  27.787   2.940  16.134  0.1345 -0.1045 -0.0924
12189W        W55242   1.898   3.286  16.353 -0.0808  0.0453 -0.0474
12190W        W55243  32.399  21.356  16.602  0.1605  0.0861  0.1091
12191W        W55244  18.930   7.212  16.207 -0.1178  0.1799 -0.2035
12192W        W55245  23.654  32.428   4.213  0.1571 -0.0192  0.1485
12193W        W55246  32.355  15.875  21.732  0.0179  0.2131 -0.2441
12194W        W55247  15.204   4.745  18.182  0.0999  0.2255  0.2679
12195W        W55248  12.725  32.193  22.933  0.0379 -0.3335 -0.1328
12196W        W55249  34.643  32.488  13.092 -0.2745  0.1340 -0.2195
12197W        W55250  18.078  31.711  15.640  0.2082  0.0579 -0.3156
12198W        W55251  19.607  13.480  20.214  0.0168  0.0869 -0.1366
12199W        W55252  23.817   5.521   2.863 -0.0967  0.1209  0.2654
12200W        W55253  10.294   5.530  22.780 -0.2937  0.2848 -0.0968
12201W        W55254  30.645  11.343  18.080 -0.1693 -0.1966 -0.2231
12202W        W55255   9.394  24.420   2.292 -0.2316 -0.0021  0.1617
12203W        W55256  30.444  28.186  20.389 -0.0314  0.0599 -0.0811
12204W        W55257   0.870  24.756  20.321 -0.1110  0.2278  0.0798
12205W        W55258   6.974   0.962  20.615  0.0648  0.2458  0.0682
12206W        W55259  23.948  30.491  28.019  0.2575  0.1900 -0.2665
12207W        W55260  12.596  29.199  18.518  0.1311  0.1167 -0.2064
12208W        W55261  29.315  16.050  19.608 -0.1684  0.0109  0.1849
12209W        W55262   9.878  32.810   2.058 -0.0566  0.1796  0.3734
12210W        W55263  24.803  15.733  22.327 -0.0378  0.1726 -0.2605
12211W        W55264   3.302  15.538  25.930  0.0951 -0.0483 -0.2809
12212W        W55265  19.482  31.336  21.587  0.3207 -0.3875  0.0918
12213W        W55266   0.477  33.313  22.895 -0.0462  0.0357 -0.2891
12214W        W55267  19.986  20.367  23.736  0.2640 -0.2268  0.4008
12215W        W55268  16.711   0.680  20.024  0.2017 -0.2573  0.2057
12216W        W55269   9.542  32.965  21.681 -0.0303  0.2572 -0.0390
12217W        W55270  30.049  20.403   6.797 -0.1567 -0.1002 -0.0251
12218W        W55271   6.377  32.086  26.183  0.0889 -0.1406 -0.1164
12219W        W55272  19.316  28.062  24.760 -0.1732 -0.3323  0.0127
12220W        W55273  27.263   2.602  19.411  0.2200 -0.0884 -0.1845
12221W        W55274   4.137   7.769  15.394  0.1887 -0.2152 -0.0125
12222W        W55275   0.371  12.735  27.372 -0.0761 -0.2552 -0.0775
12223W        W55276  21.489  26.343  17.925 -0.1377  0.2886 -0.0427
12224W        W55277  29.983  13.670  22.584 -0.1738  0.0406  0.1816
12225W        W55278   6.799  24.492  17.703  0.1667 -0.0413  0.0584
12226W        W55279   7.914  20.738  22.787 -0.2680 -0.0874  0.1341
12227W        W55280  10.005  25.596  23.803 -0.0532  0.1913 -0.1581
12228W        W55281   8.504   5.974  25.362  0.0292  0.0736  0.1546
12229W        W55282  18.580  28.674  19.839  0.3004 -0.0971  0.1524
12230W        W55283  22.606   4.499  26.479 -0.0314  0.1042 -0.1527
12231W        W55284  20.214  30.845  19.366  0.0468 -0.1360 -0.4357
12232W        W55285  25.651   3.464  18.081  0.2573  0.0292  0.1560
12233W        W55286  21.755  20.702   2.275  0.2099  0.1979 -0.3434
12234W        W55287  18.681   1.655  27.369  0.0983  0.2327  0.1848
12235W        W55288  22.559   0.426  16.429 -0.2581  0.2707  0.1626
12236W        W55289  32.858  22.932  20.515 -0.1059  0.1148  0.1578
12237W        W55290  28.099   7.256   1.945  0.1183 -0.0389 -0.2613
12238W        W55291   0.203  27.019  16.382 -0.0021  0.5670  0.2513
12239W        W55292  24.592  22.639  14.366 -0.0281  0.0303  0.1164
12240W        W55293   0.772   4.844  20.773  0.0351 -0.0008  0.1587
12241W        W55294  19.501  33.612  15.377  0.1375  0.1140 -0.0915
12242W        W55295  26.011  23.279  15.728  0.2755  0.0251 -0.1526
12243W        W55296  22.117  16.831  15.461 -0.2030 -0.0714  0.0941
12244W        W55297  31.890  33.603  23.119  0.0906  0.1099  0.0302
12245W        W55298  32.846   2.033  20.985  0.2772 -0.2659  0.0359
12246W        W55299  31.652  30.446  25.999  0.0393  0.3173 -0.1360
12247W        W55300  27.062  27.403  17.193 -0.1333 -0.1937  0.0143
12248W        W55301  16.667  29.516  21.501 -0.1157 -0.0549  0.0771
12249W        W55302  27.163   3.815  16.544  0.1722  0.0543 -0.0946
12250W        W55303  26.695  14.980  16.974 -0.0545 -0.0590 -0.0802
12251W        W55304  34.087   0.473   3.822 -0.0176  0.4527  0.0534
12252W        W55305  19.564  34.286  15.838 -0.4173 -0.1304 -0.3225
12253W        W55306  12.711  29.760  17.833 -0.0614  0.0807  0.1099
12254W        W55307   2.789  30.713  20.450 -0.1268 -0.0667 -0.0014
12255W        W55308  20.546  11.946  23.918  0.4033 -0.2424  0.2405
12256W        W55309  29.142  29.182  14.792 -0.0825  0.3842 -0.0875
12257W        W55310  17.855  23.401  20.043  0.3017  0.3440  0.0609
12258W        W55311  27.527  26.813   9.383 -0.1396 -0.0801 -0.1519
12259W        W55312  10.379  25.621  22.755 -0.1841  0.2080 -0.4157
12260W        W55313  31.030  24.605  23.530  0.4040  0.0748 -0.0219
12261W        W55314  10.693  32.948   8.738  0.0746  0.0928  0.1538
12262W        W55315  15.161   2.780  23.822  0.4580 -0.0177  0.1907
12263W        W55316  28.916   0.935   8.503  0.0015  0.1529  0.0712
12264W        W55317  14.142  22.893   1.813  0.0388  0.1202  0.1044
12265W        W55318  26.206  26.915  15.917 -0.3504 -0.3861  0.0963
12266W        W55319  28.491   0.437  24.597  0.0676  0.2224 -0.0623
12267W        W55320  13.973  32.496  20.664  0.0611  0.1115  0.0378
12268W        W55321  11.448   4.202  21.720  0.2671  0.1785  0.0658
12269W        W55322  23.289  18.352  14.589  0.0341  0.2983  0.1955
12270W        W55323  29.187   0.680  28.891  0.1898 -0.1253  0.0435
12271W        W55324  11.375  17.143  19.881  0.2619 -0.0933 -0.0742
12272W        W55325   2.993   6.626  19.331  0.1337 -0.3282 -0.0937
12273W        W55326  26.492   6.311  24.279 -0.2135  0.1531 -0.0031
12274W        W55327  16.671   5.835  15.121  0.0655 -0.1635  0.1023
12275W        W55328  29.522  33.638  18.777 -0.0986  0.4282  0.0745
12276W        W55329  15.970  19.472  23.946 -0.1286  0.2751 -0.2449
12277W        W55330  13.463   6.114  23.163  0.1134  0.0611  0.2266
12278W        W55331  18.578  31.860  23.080 -0.1855 -0.0005  0.0426
12279W        W55332   9.661   1.731  26.674 -0.0190  0.0956 -0.0704
12280W        W55333  21.168  29.431  14.965 -0.1929  0.0270 -0.2970
12281W        W55334   7.181  30.362  21.082  0.0058 -0.1251 -0.0150
12282W        W55335  27.361  27.945   1.295  0.1650 -0.1104 -0.1146
12283W        W55336  24.433  10.792  18.900  0.1485  0.3097  0.1022
12284W        W55337  14.196  22.614  18.421  0.1296 -0.0246 -0.0048
12285W        W55338  31.291  32.399  25.089 -0.4311  0.3346 -0.2262
12286W        W55339  32.024  27.978  14.688 -0.0570  0.2276 -0.0790
12287W        W55340  12.786  20.269  15.056  0.2578 -0.2689  0.1770
12288W        W55341  27.994  20.810  17.444 -0.1771  0.0711 -0.1400
12289W        W55342  26.665  18.767   8.525  0.1257  0.0873 -0.2501
12290W        W55343  11.238  18.041  20.107  0.0288 -0.2062  0.0601
12291W        W55344  25.132  11.616  20.333 -0.2326 -0.1604 -0.0557
12292W        W55345  29.720  13.489  19.651 -0.0614  0.1002 -0.2378
12293W        W55346  33.836  17.381  16.819 -0.0844 -0.2789  0.0593
12294W        W55347  14.773  18.793  22.345 -0.0025  0.1575  0.3374
12295W        W55348  22.194  33.507  26.403 -0.3229 -0.1970  0.0742
12296W        W55349   0.735  32.734  15.276 -0.1778  0.2170  0.0898
12297W        W55350  30.810  16.427  21.541  0.0434 -0.1748 -0.2764
12298W        W55351  20.888   2.247  18.397  0.1136  0.1285 -0.0483
12299W        W55352  21.996  23.491  17.653 -0.1436  0.1451  0.2507
12300W        W55353  23.398   8.089   1.238 -0.0653  0.0895  0.1218
12301W        W55354  16.954  29.857  24.339 -0.2610 -0.1476 -0.3567
12302W        W55355  22.388  27.644  16.457 -0.0909  0.0423  0.1563
12303W        W55356  25.523  18.174  25.014 -0.2930  0.2189  0.2244
12304W        W55357  29.789   5.605  23.331  0.0964 -0.0240 -0.0181
12305W        W55358  24.728  29.744  19.358  0.4577  0.1963 -0.2135
12306W        W55359  22.148  29.517  23.099 -0.1815  0.1421 -0.1324
12307W        W55360  21.473  13.154   3.556 -0.1420  0.0131  0.0373
12308W        W55361  29.530  33.463  23.227 -0.0414 -0.0276  0.1791
12309W        W55362  20.087  32.252  20.914  0.1692 -0.5083  0.0189
12310W        W55363  21.391  33.787  24.071 -0.1977  0.0288  0.4479
12311W        W55364  27.412   3.466  16.829 -0.0004  0.0727  0.3202
12312W        W55365  25.559  31.867  20.973 -0.1305  0.2179 -0.1456
12313W        W55366  19.400  29.593  28.018  0.5157 -0.0686  0.0085
12314W        W55367  23.818  33.095  14.629 -0.0635  0.1631 -0.1739
12315W        W55368   2.022  10.323   1.007 -0.0799 -0.3879 -0.1928
12316W        W55369  19.463  25.983  23.658  0.0562  0.2501 -0.2076
12317W        W55370  26.246   4.315  22.448  0.1203  0.1325  0.0435
12318W        W55371   2.123  32.338  26.279 -0.0610 -0.2707 -0.2579
12319W        W55372  28.547   3.493  17.039  0.0741 -0.0512 -0.0933
12320W        W55373  27.299  11.735   8.360 -0.1213 -0.0671  0.0193
12321W        W55374  27.000   1.510   8.422  0.0119 -0.1238  0.2125
12322W        W55375  12.972  17.040  20.728  0.0766 -0.2159 -0.0640
12323W        W55376  24.555  29.947  17.320  0.2021 -0.1016  0.0447
12324W        W55377  25.176  19.856  20.986 -0.3150 -0.1083 -0.0693
12325W        W55378  30.439   8.142   9.617  0.0403 -0.4864  0.1116
12326W        W55379   0.844  33.533  20.873 -0.0397 -0.1291 -0.0246
12327W        W55380  13.991  26.307  19.106  0.0577  0.4097 -0.1313
12328W        W55381  21.907  21.497  28.684 -0.1324 -0.1262  0.0624
12329W        W55382  27.019   0.991  21.539 -0.0566 -0.0614 -0.1144
12330W        W55383  28.344   3.325  19.742  0.0709  0.1195  0.1274
12331W        W55384  27.654  21.782  21.764  0.0821 -0.0784 -0.0618
12332W        W55385  25.025  29.969   0.662 -0.1052 -0.0021  0.1334
12333W        W55386  23.239   4.308  17.356 -0.0086  0.2602 -0.3590
12334W        W55387  23.990  27.821  17.341  0.1299  0.0496  0.1089
12335W        W55388   1.873  23.815  22.907 -0.1872 -0.0442 -0.2157
12336W        W55389  11.749  30.004  17.896  0.0677  0.0061  0.0789
12337W        W55390  33.993  26.798   7.153 -0.0493  0.0753 -0.0629
12338W        W55391  23.298  34.198   4.100 -0.0500  0.1235  0.0041
12339W        W55392  12.540  27.997  14.758  0.0862 -0.0297  0.0609
12340W        W55393  28.112  26.677  23.608  0.1352  0.0492 -0.3060
12341W        W55394  26.108  29.663  15.552  0.3761 -0.0601 -0.0369
12342W        W55395  23.443   4.719   8.225 -0.0818  0.0060  0.1711
12343W        W55396   4.470  16.515  21.134 -0.0423 -0.0709 -0.1210
12344W        W55397   7.117   1.941   1.162 -0.0459 -0.3103 -0.0232
12345W        W55398  25.717  26.488  14.091 -0.0328 -0.1539 -0.0288
12346W        W55399  30.563  30.667  20.344  0.1189  0.1664  0.1834
12347W        W55400  19.578   0.131  21.338  0.1114 -0.0657 -0.2539
12348W        W55401  32.515  20.455   0.077 -0.2735  0.0328  0.1344
12349W        W55402  10.412   0.796  25.067 -0.1211  0.2376  0.0950
12350W        W55403  17.149   9.114   0.140 -0.0573 -0.4345  0.2323
12351W        W55404  22.980   3.174  14.725 -0.1294  0.3292  0.3103
12352W        W55405  28.498   6.555  28.704  0.0087  0.1559  0.5120
12353W        W55406  17.907  29.223   1.189  0.1882 -0.1618  0.2972
12354W        W55407  33.316  33.078  24.113  0.2705 -0.1145 -0.3099
12355W        W55408  10.342   3.079  14.983  0.1751 -0.1715 -0.1743
12356W        W55409  29.680   4.883   0.908  0.2423 -0.1348  0.1195
12357W        W55410   6.999  24.659  19.820  0.0081  0.2291  0.1438
12358W        W55411  13.490  22.901  22.638 -0.1163 -0.1980  0.0788
12359W        W55412   8.811  31.465  19.532  0.2323 -0.1779  0.1214
12360W        W55413  30.806  29.279  15.313  0.0102 -0.0927  0.1228
12361W        W55414  32.301  20.206  25.351 -0.1618  0.0110  0.1662
12362W        W55415  22.500  11.849  16.749 -0.2026  0.0809 -0.4190
12363W        W55416  12.442   1.080  15.679 -0.0488  0.0234  0.0588
12364W        W55417  24.385  19.982  25.933  0.1604  0.0549  0.2864
12365W        W55418  32.144  21.400  18.064 -0.1798  0.0652 -0.3215
12366W        W55419  22.001   1.763  25.585 -0.1417 -0.3010 -0.1669
12367W        W55420  29.528  23.873  17.504  0.0357  0.0038  0.0323
12368W        W55421  21.023   1.665  25.739 -0.0109  0.3494  0.3488
12369W        W55422  26.018   3.650   9.292 -0.1827  0.3918 -0.1020
12370W        W55423   3.460   1.146  21.751  0.2387  0.2071  0.3438
12371W        W55424   2.651   9.235  23.289 -0.1334  0.3145 -0.1360
12372W        W55425  21.111  29.685  24.886  0.1985  0.3352  0.0482
12373W        W55426  13.075   0.394  22.452  0.3217  0.0490  0.1934
12374W        W55427  16.921  34.529  14.445  0.1099 -0.1043  0.1076
12375W        W55428  19.807   5.002   0.614 -0.1091 -0.0835  0.1347
12376W        W55429  25.746  19.172  27.674 -0.0145 -0.3496 -0.1195
12377W        W55430  12.840  30.092  21.649 -0.0805 -0.2902  0.1082
12378W        W55431  12.125  25.457  17.295  0.0494 -0.1021 -0.1834
12379W        W55432  13.254  10.229   1.617  0.1240 -0.0961 -0.1601
12380W        W55433  23.113  30.827  17.883 -0.0391 -0.0360  0.1748
12381W        W55434  30.556   6.266  17.598 -0.0256 -0.1003 -0.0856
12382W        W55435  16.903  17.527   3.549 -0.2738 -0.1933 -0.1139
12383W        W55436  12.459  25.767  22.287  0.4712  0.0206  0.2525
12384W        W55437  17.042  28.493   1.092  0.3348  0.1893  0.3995
12385W        W55438   7.829  26.352  24.101  0.2657  0.0637  0.0575
12386W        W55439  25.713  25.456  20.408 -0.0353 -0.0233  0.0418
12387W        W55440  11.829  16.954  22.237 -0.1149 -0.1052 -0.0923
12388W        W55441  23.709   4.594  19.002 -0.2553  0.0073 -0.1815
12389W        W55442  12.161  21.850  20.926  0.0409  0.0467  0.1470
12390W        W55443  18.314  32.648  15.949 -0.0954  0.0767  0.0300
12391W        W55444  15.061  24.637  19.268  0.2221  0.0913  0.1460
12392W        W55445  23.058  26.096   1.330 -0.0881 -0.1362  0.0688
12393W        W55446  33.183   4.802  16.336 -0.1397 -0.0645  0.2268
12394W        W55447   6.048  33.199  17.010  0.0957 -0.0319 -0.0202
12395W        W55448  24.554  21.616  15.570  0.1056 -0.0709 -0.0914
12396W        W55449   1.005   4.875  21.251  0.0019  0.0716  0.1333
12397W        W55450  14.529  27.013  17.833 -0.2830  0.0340 -0.0235
12398W        W55451  15.640  10.253  21.457  0.0801  0.1425  0.0260
12399W        W55452  12.610  27.421  13.587  0.2622 -0.1464 -0.1935
12400W        W55453  20.178   8.826  24.204  0.0671 -0.2053  0.2935
12401W        W55454  21.604  14.958   0.324 -0.0191  0.3233  0.2103
12402W        W55455  33.853   3.407  15.492  0.0473 -0.1420 -0.0654
12403W        W55456  22.057   0.784  23.049 -0.0912  0.0124 -0.3948
12404W        W55457  26.193  26.147   4.993  0.0451 -0.0361  0.0675
12405W        W55458  31.437  19.733  23.314 -0.1022  0.0369 -0.2742
12406W        W55459  20.019  29.723  19.480  0.1110  0.1061  0.0291
12407W        W55460  18.580   2.184  14.386 -0.0918  0.1356  0.2918
12408W        W55461   0.968   5.158  27.226  0.1015 -0.0078 -0.0351
12409W        W55462  11.474  25.072  21.165 -0.2513 -0.1458 -0.0788
12410W        W55463  25.945  31.525  19.212  0.0127 -0.0035  0.2173
12411W        W55464  28.853   1.457   6.190  0.3461 -0.2530  0.0938
12412W        W55465  12.246  30.250   1.407 -0.2034  0.0712 -0.0391
12413W        W55466   1.472  22.394  25.584  0.0006 -0.0507 -0.3845
12414W        W55467  25.337   3.320  14.932 -0.1124 -0.2704  0.2443
12415W        W55468   4.945  28.998   5.901  0.0179  0.1305  0.0687
12416W        W55469   1.402  29.660  20.782 -0.0220 -0.0230 -0.2520
12417W        W55470  24.520  21.724  20.047 -0.0575  0.1992  0.0491
12418W        W55471  22.719   0.536  15.889 -0.0322  0.1473 -0.0816
12419W        W55472  10.399  26.640  19.933 -0.0912  0.2196 -0.1604
12420W        W55473   1.171  29.170  15.332 -0.0289  0.1411  0.0040
12421W        W55474  25.753  33.408  24.210 -0.1777  0.1010  0.0733
12422W        W55475  25.080   8.013  19.906 -0.0998  0.0230 -0.1210
12423W        W55476   0.075   2.118  19.382  0.0565 -0.1066 -0.2021
12424W        W55477  22.824  25.641  17.578 -0.0761  0.0794  0.1484
12425W        W55478   8.370  24.295  17.942  0.0234 -0.1520 -0.0519
12426W        W55479  31.022  33.558  15.948 -0.3667 -0.0410 -0.1196
12427W        W55480  22.629   7.443  25.735  0.1096 -0.2021  0.3390
12428W        W55481  16.650   7.079  23.263  0.1314  0.1546 -0.0436
12429W        W55482  16.927   6.014  16.431  0.0859  0.0199 -0.2227
12430W        W55483  30.962   0.032  23.536 -0.2541 -0.0205 -0.1383
12431W        W55484  25.148   4.243  19.859 -0.0270 -0.1933  0.0378
12432W        W55485  22.536  33.585  27.165 -0.0003  0.1595  0.2213
12433W        W55486  21.094  27.372  25.012 -0.3276  0.1596  0.1277
12434W        W55487  20.410  33.825  18.865  0.0706  0.1124 -0.0269
12435W        W55488   7.436  31.437  17.303  0.3186  0.1214 -0.0318
12436W        W55489  11.397   2.124  14.724 -0.3118 -0.2159 -0.2259
12437W        W55490  28.962  33.925   9.091 -0.2370 -0.1601  0.0401
12438W        W55491  20.833   0.147   3.645 -0.2213 -0.0273 -0.2244
12439W        W55492  33.137   1.706  18.008  0.0646 -0.0670  0.1315
12440W        W55493  24.567  10.006  21.872  0.0956  0.0919  0.0452
12441W        W55494  12.924  28.316   5.595 -0.1951  0.2166 -0.1370
12442W        W55495  12.284   5.128   1.635  0.1568  0.2539 -0.0659
12443W        W55496  16.149  12.863  20.710  0.3439 -0.1520  0.1160
12444W        W55497   5.506  24.299  14.664  0.4374 -0.0427 -0.0113
12445W        W55498   4.534  17.621  24.452  0.0421 -0.0577 -0.1178
12446W        W55499   5.177  29.926  14.169  0.2676 -0.0873 -0.2136
12447W        W55500  29.311  12.168   3.699 -0.2353 -0.0352  0.1583
12448W        W55501  23.730   2.822  16.676 -0.2370  0.0370 -0.0711
12449W        W55502  28.315  25.994  21.166 -0.2790 -0.4591  0.2652
12450W        W55503  24.365  30.972  10.306  0.3016  0.0241 -0.2598
12451W        W55504  34.626   6.633  24.381 -0.0226  0.0519  0.3559
12452W        W55505  34.259  25.311  25.829 -0.0939 -0.0931 -0.0100
12453W        W55506  15.375  17.914  28.725  0.0762 -0.0589  0.0049
12454W        W55507  24.314   4.259  15.352 -0.3270 -0.2760  0.4804
12455W        W55508   7.491  28.018  25.770  0.1209  0.0378  0.0489
12456W        W55509   7.516  27.452   2.402  0.1211  0.2316 -0.3150
12457W        W55510  33.566  18.396  20.420  0.2044 -0.0539 -0.0626
12458W        W55511  33.136   4.172   1.390 -0.1896 -0.0058  0.0044
12459W        W55512  23.227  32.356  19.408 -0.1140 -0.2083 -0.2285
12460W        W55513  14.174  21.470  16.337 -0.3443  0.0761 -0.0139
12461W        W55514  29.939  16.439  14.515 -0.2188 -0.0073  0.1571
12462W        W55515  30.092   3.517  26.973 -0.0658  0.0133  0.1804
12463W        W55516  26.238  17.680  25.269 -0.1809  0.3105  0.0941
12464W        W55517  29.251  32.489  20.915 -0.1288 -0.1074 -0.2518
12465W        W55518  12.096   0.775  16.479 -0.0791  0.2067 -0.2856
12466W        W55519  18.777   0.015  20.326 -0.0133 -0.1956  0.2350
12467W        W55520  18.422   4.430  24.593 -0.1049 -0.3060  0.2468
12468W        W55521  18.772  21.101  23.042 -0.1585  0.2759  0.3152
12469W        W55522  32.915   9.820  21.525  0.0135  0.6005  0.0393
12470W        W55523  14.029  26.392  25.293  0.3223 -0.2404 -0.5203
12471W        W55524  11.626   2.559  23.834 -0.1381 -0.0164 -0.2949
12472W        W55525  31.824  19.002  17.294  0.2242  0.3860  0.0765
12473W        W55526  26.769  20.025  23.571 -0.1207  0.3270  0.1598
12474W        W55527  27.694  23.232  17.165  0.0196 -0.2029  0.0022
12475W        W55528  28.715   4.971   4.433  0.0882  0.3008 -0.0606
12476W        W55529   7.593   4.453  22.904  0.2148  0.1601  0.2555
12477W        W55530   0.381  32.564  28.007  0.1157  0.0680 -0.1776
12478W        W55531  22.405   7.545  25.235  0.1487  0.0083  0.1582
12479W        W55532  13.200  10.138  18.987 -0.1594  0.2240 -0.1145
12480W        W55533  22.970  22.208   0.320 -0.0565 -0.1703 -0.0089
12481W        W55534  27.966  20.473  28.229 -0.2851  0.4537 -0.4024
12482W        W55535  28.124  29.264  18.644  0.0149 -0.2699 -0.1834
12483W        W55536  25.027   0.503   5.838 -0.0499  0.1173  0.0084
12484W        W55537  30.997  29.493  24.495 -0.3114  0.0533 -0.2026
12485W        W55538  16.599   5.449  27.915 -0.2018 -0.1236  0.0823
12486W        W55539  28.964  23.908  20.138 -0.2444 -0.1891  0.2574
12487W        W55540  16.485   1.213  18.018 -0.0254 -0.1376 -0.0435
12488W        W55541  22.508  17.100   4.815 -0.4110  0.0485  0.1666
12489W        W55542  21.219  30.724  15.623  0.2016  0.0317  0.2254
12490W        W55543  25.346  10.350  14.488  0.1606  0.2470  0.1828
12491W        W55544  31.795  13.596  24.149  0.1590  0.1084 -0.3227
12492W        W55545  21.694   6.992   1.057  0.1109 -0.1389  0.2866
12493W        W55546  31.764  32.869  23.272  0.1243 -0.0815  0.2601
12494W        W55547  22.124   3.715  15.090 -0.0218 -0.2859  0.0506
12495W        W55548  12.251  26.218  27.278 -0.1397  0.3275  0.1737
12496W        W55549  33.723  24.403  21.396  0.0787  0.0702 -0.4213
12497W        W55550  17.252  29.617  18.285 -0.0386 -0.1132 -0.0333
12498W        W55551  20.483  13.798  26.773 -0.1231 -0.0773  0.0362
12499W        W55552  28.103   6.502   3.425 -0.0342  0.1995 -0.3042
12500W        W55553  11.511  23.569  26.790  0.1029 -0.0905  0.2832
12501W        W55554  24.063  19.089  20.844  0.0709 -0.0548  0.1642
12502W        W55555  29.138  30.755  21.641  0.0051  0.2822  0.1607
12503W        W55556  29.632  27.235  19.568 -0.0729 -0.0714 -0.2695
12504W        W55557  34.067  10.437  23.961  0.1356  0.0315 -0.0960
12505W        W55558  17.048   3.924  15.540  0.5305  0.1323 -0.0574
12506W        W55559  16.552   6.981  10.433 -0.2419  0.2752 -0.3705
12507W        W55560  23.062   3.135  25.983 -0.3185  0.1256  0.1225
12508W        W55561  26.940  22.159  26.466 -0.1998 -0.0624 -0.1029
12509W        W55562  31.070  22.038  17.636  0.1463  0.1402 -0.1352
12510W        W55563  23.933   7.162  16.693 -0.0884 -0.0169 -0.0093
12511W        W55564   0.221  14.777  14.895  0.1331  0.2144  0.1995
12512W        W55565  26.697   6.201   3.560  0.2245  0.1315  0.0415
12513W        W55566  10.739  24.634  21.845  0.0307  0.1536  0.1325
12514W        W55567  30.327  25.588  18.345 -0.2483 -0.2729 -0.0813
12515W        W55568  25.909  28.144  19.871 -0.2534  0.1775 -0.0076
12516W        W55569  21.357   9.543  18.786  0.2903 -0.0022  0.2741
12517W        W55570  26.364  34.494  28.842  0.0918  0.2029 -0.0115
12518W        W55571  26.869  28.109  18.445  0.0091  0.0474 -0.1732
12519W        W55572  28.405  27.227   5.324  0.1272 -0.1970 -0.2953
12520W        W55573  20.908  30.655  16.008 -0.0295  0.0887  0.0356
12521W        W55574  25.114   3.690   2.028 -0.1065 -0.0843  0.1880
12522W        W55575  19.419  34.098  18.750  0.0610 -0.0322  0.0777
12523W        W55576  29.296  14.666  17.610  0.2248  0.1297  0.1938
12524W        W55577  12.517  28.214   5.218  0.2160  0.0028  0.1436
12525W        W55578  29.742   6.540   3.248  0.0053  0.0609 -0.0220
12526W        W55579  13.397  11.106   1.067 -0.0151  0.0498 -0.0606
12527W        W55580  15.507  26.268  27.794  0.0324 -0.0177 -0.1436
12528W        W55581  34.069  27.820   0.180  0.1277  0.2211 -0.2380
12529W        W55582  11.800   1.507   1.570 -0.0101 -0.2304  0.0930
12530W        W55583  31.018  29.273  25.974  0.2549 -0.2088  0.0812
12531W        W55584  33.267  19.905  22.382  0.0183  0.1314 -0.1408
12532W        W55585  23.039   8.615  15.816  0.2614  0.2044 -0.3049
12533W        W55586  24.336   1.335  19.585  0.2076 -0.0156  0.3188
12534W        W55587   9.062  30.787  14.380  0.1612 -0.0162  0.1628
12535W        W55588  14.814   4.891  21.029 -0.1433 -0.2475  0.0746
12536W        W55589   9.419  31.659  28.295 -0.3804 -0.1386 -0.1115
12537W        W55590  23.674   0.727  19.126  0.2497  0.1064  0.2329
12538W        W55591   1.382  31.599  21.308 -0.0986  0.2564  0.0049
12539W        W55592  15.151   3.624  20.587 -0.2469  0.4457  0.1166
12540W        W55593  23.540  30.236  21.627 -0.1867 -0.1684 -0.0144
12541W        W55594   5.246  13.379   1.068  0.3949 -0.0806 -0.1898
12542W        W55595  30.489  24.744  22.730 -0.1449 -0.1472 -0.2784
12543W        W55596  19.777   6.951  22.281  0.1605 -0.2657 -0.1139
12544W        W55597  30.845   9.055  24.345 -0.2847 -0.0216 -0.0411
12545W        W55598   4.409  32.553  17.106  0.1321 -0.2451 -0.0268
12546W        W55599  32.570  25.407   4.251  0.1314  0.0545 -0.2072
12547W        W55600  14.668   5.963  27.110 -0.1524 -0.0787  0.0694
12548W        W55601  27.814  29.614   5.832  0.0260 -0.1006 -0.1003
12549W        W55602  16.337  30.378   5.062 -0.3160  0.1509 -0.3234
12550W        W55603  31.458   2.236   2.845  0.1088 -0.0292  0.4057
12551W        W55604  29.669  31.216  14.329 -0.0631  0.1209 -0.1486
12552W        W55605  23.924  22.759  22.893 -0.0164  0.1043  0.3222
12553W        W55606  18.357  24.993  25.059  0.2506 -0.0779 -0.0014
12554W        W55607  27.824  12.426  26.986 -0.1620  0.0602 -0.1964
12555W        W55608  34.067  22.051  10.072  0.1185 -0.0822 -0.0768
12556W        W55609   9.719   3.964  20.357  0.0393  0.2641  0.2963
12557W        W55610   6.530  34.191   4.686 -0.0939  0.1568  0.0672
12558W        W55611  32.626   6.635  17.550 -0.2730  0.2404 -0.2185
12559W        W55612  24.636  34.345  14.750 -0.1982 -0.0976 -0.1615
12560W        W55613  12.670  28.863  15.225  0.2108 -0.0859  0.1770
12561W        W55614   3.244  13.281  28.282  0.0658 -0.0323  0.1808
12562W        W55615  27.248   8.334  28.224  0.1491  0.1242 -0.2266
12563W        W55616   8.039   2.336   5.385  0.2777  0.0621 -0.0464
12564W        W55617  11.534   0.603  20.781 -0.1517 -0.2265  0.2533
12565W        W55618  17.356   9.593  18.891  0.0637 -0.0819  0.1021
12566W        W55619   9.957   0.309  27.159 -0.1116  0.0146 -0.0943
12567W        W55620   2.356  29.122   4.843  0.1403  0.3235 -0.2743
12568W        W55621   2.870   1.315  17.267 -0.4371 -0.3468  0.0404
12569W        W55622   7.080   3.837  25.953  0.0299 -0.5023  0.2112
12570W        W55623  29.331  18.582  20.897 -0.1479 -0.2996 -0.6469
12571W        W55624  32.391   7.118  24.643  0.1398  0.2822  0.0232
12572W        W55625  19.984  26.891  19.708  0.0332  0.3543 -0.1750
12573W        W55626  24.841  13.509  22.274  0.1323  0.2884  0.1464
12574W        W55627  23.554  20.205  18.560 -0.1733  0.0437 -0.2826
12575W        W55628   0.062   5.286  18.362  0.1032  0.0559  0.1328
12576W        W55629  24.814   5.362  21.573 -0.1429  0.0038 -0.2192
12577W        W55630   9.970  28.325  18.338 -0.0628  0.2818 -0.1571
12578W        W55631  18.053  33.759  21.320 -0.5559  0.2195 -0.3242
12579W        W55632  23.271  24.131  20.082 -0.2120 -0.1405  0.0714
12580W        W55633  20.259  17.727   2.726  0.4201  0.0235 -0.2878
12581W        W55634  22.624  22.456  22.280  0.3721  0.0660  0.2213
12582W        W55635  24.251  18.017  23.000  0.3288  0.2569 -0.1105
12583W        W55636   2.840  30.808  22.375 -0.1277 -0.3216 -0.3573
12584W        W55637   1.627   3.519   0.522  0.0117  0.0852  0.1794
12585W        W55638  23.042  18.652  23.658  0.1559  0.3882  0.0129
12586W        W55639  18.708  32.489   8.036 -0.2112  0.6491  0.1698
12587W        W55640   1.288  16.524  24.815  0.2203  0.0010  0.1563
12588W        W55641  15.317   5.884  21.488  0.2509  0.4571  0.3321
12589W        W55642   8.086  29.821  23.063  0.2468  0.1442  0.1376
12590W        W55643  32.784  29.001  18.377  0.1226 -0.3215 -0.0580
12591W        W55644  31.540   4.510   4.813 -0.2863 -0.2202 -0.1334
12592W        W55645  27.166  25.643  27.912  0.2659 -0.2855  0.0829
12593W        W55646  20.151  19.464  13.101  0.2325 -0.1306  0.2607
12594W        W55647   9.140  18.803  16.844  0.0643  0.3171 -0.0201
12595W        W55648  29.891   3.035  14.249  0.2584 -0.4150 -0.1572
12596W        W55649  23.894   8.152  27.809  0.0375  0.0077 -0.0178
12597W        W55650  12.979  30.294  21.144 -0.1809  0.3618 -0.2596
12598W        W55651  19.658  33.703  25.670 -0.2397  0.0912  0.1645
12599W        W55652  34.018   1.781  21.747 -0.2236 -0.2534 -0.1868
12600W        W55653  22.047  11.957  24.965 -0.1896  0.2904 -0.0484
12601W        W55654  28.038   1.344  17.726 -0.1562 -0.1243  0.1289
12602W        W55655  13.294  25.488  16.459 -0.0221 -0.1109  0.2508
12603W        W55656  19.803  33.309  18.642 -0.0997 -0.0445  0.0467
12604W        W55657   9.174   3.174   9.373  0.1896  0.3401  0.0745
12605W        W55658  17.274  29.783  26.953  0.0752 -0.0389 -0.1308
12606W        W55659  22.034  26.189  17.307  0.0336  0.0765  0.1375
12607W        W55660  27.618  13.069  21.734  0.1142  0.1532  0.1919
12608W        W55661  21.157  13.778  27.441 -0.3817 -0.1150  0.3132
12609W        W55662  20.903  33.344  18.371  0.1976  0.3605  0.0441
12610W        W55663   5.762  19.677  14.451  0.0162 -0.2377 -0.1761
12611W        W55664  28.028  31.703   6.921 -0.2464 -0.0383 -0.5102
12612W        W55665  10.827  32.758  15.294 -0.2677  0.0852  0.5652
12613W        W55666  21.085  15.194  24.848 -0.0602 -0.0154  0.1647
12614W        W55667   0.237  27.188  14.434 -0.2530  0.0237  0.3134
12615W        W55668   2.145  23.771   1.742  0.1292  0.3198  0.0023
12616W        W55669  33.230   7.734  18.822  0.0832  0.2279 -0.0562
12617W        W55670   2.580  18.429  28.159  0.2681  0.0731  0.0628
12618W        W55671  34.594   1.399  26.448 -0.5151 -0.1873 -0.1030
12619W        W55672   7.418   0.608  14.485 -0.1390 -0.2457 -0.1439
12620W        W55673  31.289   3.096  15.593  0.0304 -0.1912  0.0653
12621W        W55674  20.765  29.545  27.742 -0.2351 -0.1489  0.3786
12622W        W55675  29.519  34.284   1.543  0.1842  0.0842 -0.1740
12623W        W55676  20.399  12.933  26.379 -0.3198 -0.1305 -0.0781
12624W        W55677   9.533   0.076   6.755 -0.0540 -0.2168 -0.0625
12625W        W55678  19.535   7.053  23.141 -0.0192  0.0435  0.2726
12626W        W55679  22.828   3.538  16.203  0.0672 -0.0291 -0.0232
12627W        W55680  24.793  20.762  28.005 -0.0490  0.0224  0.1582
12628W        W55681  25.749   4.248   4.445  0.0934 -0.0381 -0.0377
12629W        W55682   4.463   4.277  17.523  0.0576  0.0763  0.0140
12630W        W55683  12.347  27.907  18.164 -0.2225  0.2282  0.3308
12631W        W55684  23.075   0.465  27.917 -0.3343  0.2125  0.3337
12632W        W55685  29.393  31.052  21.302  0.4125  0.1834 -0.0930
12633W        W55686  18.517  25.275  17.645 -0.0329  0.0876  0.2030
12634W        W55687  30.956   1.457   2.927  0.2536  0.3340  0.0175
12635W        W55688  17.090  24.329  21.536  0.2971  0.2278  0.0994
12636W        W55689  17.684  28.965   7.535  0.0612 -0.1792  0.2595
12637W        W55690   6.884  19.740  26.286  0.1671  0.1204 -0.0302
12638W        W55691  25.069   5.041   8.438 -0.0358  0.2657  0.2727
12639W        W55692  20.692  28.313  20.470 -0.2002 -0.0213 -0.1319
12640W        W55693  25.812  23.538  17.074  0.0567  0.1342 -0.1073
12641W        W55694  32.083  19.351  15.765 -0.2151  0.1324 -0.0824
12642W        W55695  16.997  17.913  22.871  0.2410  0.0510  0.4124
12643W        W55696   0.619  12.846  20.753  0.0988  0.2809  0.3645
12644W        W55697  25.557  26.339  17.521  0.1769 -0.0772  0.4621
12645W        W55698   7.056  33.859  24.233  0.2867 -0.1777 -0.0882
12646W        W55699  18.955   8.947   8.607 -0.0743  0.0182 -0.0375
12647W        W55700  23.718  22.732   4.401  0.0863 -0.0595 -0.0676
12648W        W55701   9.747  31.981  15.178  0.1043 -0.1179  0.0463
12649W        W55702   9.555  14.551  23.621 -0.4727  0.1523 -0.1247
12650W        W55703  27.533   5.778   5.258 -0.1937 -0.0641  0.1555
12651W        W55704  19.838  13.156  23.319  0.0811 -0.0791 -0.0767
12652W        W55705  25.903  30.315   1.175 -0.1456 -0.3658 -0.1270
12653W        W55706  13.129  15.113  16.556 -0.1697  0.0344  0.2758
12654W        W55707   6.921   0.468  20.440  0.0686 -0.2890  0.1145
12655W        W55708  27.377  10.554  11.026  0.0338 -0.2094 -0.1850
12656W        W55709  22.602  19.514   1.223  0.1121  0.0274 -0.2113
12657W        W55710  13.841  16.480  27.594 -0.2724 -0.0071 -0.2303
12658W        W55711  29.494  27.112  14.348 -0.1326 -0.3121  0.4403
12659W        W55712   5.421  34.050  28.596 -0.0086  0.2765  0.1244
12660W        W55713  24.923  27.749   7.525 -0.0363  0.2483 -0.1454
12661W        W55714  27.072  29.457  14.066 -0.0728 -0.2967 -0.0088
12662W        W55715  28.753  20.059  18.562 -0.1722 -0.0494  0.2518
12663W        W55716  12.373  33.730   1.251  0.2037 -0.1781  0.2145
12664W        W55717  28.478  17.768  15.114  0.2395 -0.0211  0.1040
12665W        W55718  12.301  28.098  24.361  0.2942  0.0751 -0.2280
12666W        W55719   1.772  32.401   2.759  0.1269  0.0292 -0.0449
12667W        W55720   4.396  33.655  22.843  0.3849 -0.3735  0.0290
12668W        W55721  28.745  30.058   9.467  0.0868  0.0808 -0.0958
12669W        W55722  29.423  26.065   0.516  0.2521  0.0106  0.0620
12670W        W55723   1.984  22.200  24.580 -0.1943 -0.0840 -0.0920
12671W        W55724  19.368  32.714   6.182  0.0436  0.0636 -0.1421
12672W        W55725  26.762  11.553   3.316 -0.3079  0.3419  0.1224
12673W        W55726  30.011  34.498  16.103  0.2873  0.3250  0.2966
12674W        W55727  12.864   0.309   0.103  0.0759 -0.1157 -0.0789
12675W        W55728  22.153  34.422  14.453 -0.1194  0.1515 -0.0720
12676W        W55729  12.621   9.086   8.947  0.3522  0.1542 -0.0753
12677W        W55730  18.032   1.728  26.483 -0.1572 -0.2814  0.0712
12678W        W55731  31.130  27.680  25.153 -0.1594  0.0698  0.0060
12679W        W55732  22.834  21.912  19.323 -0.2471  0.4080  0.1228
12680W        W55733  20.892  28.993  20.030  0.2640 -0.0578 -0.1311
12681W        W55734  21.615  14.852  26.505 -0.1711  0.1624 -0.1613
12682W        W55735  21.466  10.387  25.047  0.0685  0.0171  0.0835
12683W        W55736  31.197  30.802   1.872 -0.4538  0.4659  0.1520
12684W        W55737  22.984  34.336  28.579 -0.2087 -0.1446 -0.1474
12685W        W55738  17.313   1.270  19.965 -0.2824  0.2400  0.2352
12686W        W55739  13.149  26.648  26.494  0.3126  0.1062 -0.2144
12687W        W55740  24.266  19.625  16.761  0.0492  0.0597 -0.0539
12688W        W55741  29.882  19.287  23.540  0.1878 -0.0296 -0.2866
12689W        W55742  27.684   7.966  29.092 -0.2016 -0.1044  0.1492
12690W        W55743  31.068   3.275   6.321 -0.1930  0.0528  0.1247
12691W        W55744  19.264  26.337  23.427  0.2969  0.4560 -0.1278
12692W        W55745  12.070  25.649  15.818 -0.0872 -0.2409 -0.0254
12693W        W55746  23.835  20.625  18.401  0.2304  0.2683  0.1770
12694W        W55747   6.069  29.405  29.072 -0.2186  0.1238  0.1993
12695W        W55748  30.924   0.019  15.241  0.2404  0.2094  0.0625
12696W        W55749   6.198  26.652  22.312  0.1343  0.3470  0.3925
12697W        W55750   6.456  27.815  20.309 -0.2890 -0.0243 -0.0802
12698W        W55751  25.233  16.777  23.685 -0.1573  0.1992  0.1880
12699W        W55752   0.070  16.637  16.184  0.0740  0.0805 -0.1605
12700W        W55753  33.180  32.369   1.728 -0.4615 -0.0369 -0.0322
12701W        W55754   9.160  32.631  24.862 -0.1655 -0.4777  0.1128
12702W        W55755  34.033   4.964  14.451  0.0014  0.0211  0.1207
12703W        W55756  17.670   3.071   3.017 -0.2839  0.0552 -0.0815
12704W        W55757   0.197   1.215  19.931 -0.1489  0.2173 -0.2712
12705W        W55758  26.733  13.297  13.949  0.1758 -0.0901  0.2967
12706W        W55759  27.728   1.875  28.270 -0.1307 -0.0295 -0.0526
12707W        W55760  28.199  34.550   9.835  0.0123 -0.4257  0.0623
12708W        W55761   2.507  24.430  22.786 -0.1508  0.2848  0.0045
12709W        W55762  16.385  16.418  28.609  0.1246  0.2313  0.1246
12710W        W55763  34.000  30.118  16.274 -0.0478 -0.2773  0.1439
12711W        W55764  26.488   9.439   5.916 -0.0888  0.0562 -0.0559
12712W        W55765  24.930   9.213   2.468 -0.2822  0.2201  0.1933
12713W        W55766  20.705   5.203  21.898  0.2099 -0.2262  0.1013
12714W        W55767  30.165  26.731  22.732  0.0927 -0.5824 -0.1734
12715W        W55768  25.489  25.779  26.762  0.0013  0.0427 -0.0742
12716W        W55769  27.274  31.851  19.192  0.3118  0.2231  0.0244
12717W        W55770  13.202  19.219   4.153 -0.1034  0.0271  0.1146
12718W        W55771  33.620  19.872  15.202  0.2699 -0.0034  0.1521
12719W        W55772  25.065   2.743   1.180  0.2165 -0.1379  0.1303
12720W        W55773   8.786   7.036   0.040  0.0066 -0.0976 -0.2070
12721W        W55774  29.934  31.591  24.520  0.0030  0.1626 -0.1866
12722W        W55775   3.811  21.374  15.089  0.1338  0.1901 -0.0359
12723W        W55776  16.959  10.926  19.257  0.0328  0.3424 -0.2260
12724W        W55777  24.261  31.831  22.293 -0.1937  0.0275  0.0992
12725W        W55778   5.567  26.828  27.652  0.3237 -0.0004 -0.0740
12726W        W55779  27.424   9.186  29.060 -0.1724 -0.0334  0.2708
12727W        W55780  23.853  28.132  15.411  0.0168  0.0737 -0.0061
12728W        W55781  25.238  31.386  19.987 -0.1761 -0.0649 -0.2117
12729W        W55782  18.373  28.394  28.272 -0.1901  0.1301 -0.3987
12730W        W55783  22.178  12.088  23.258 -0.1722 -0.1009  0.2321
12731W        W55784   3.706  14.211  21.444 -0.3110 -0.0295 -0.3948
12732W        W55785  14.359  13.261   7.545 -0.2959 -0.0969 -0.0670
12733W        W55786  24.212  34.483  15.007 -0.1768 -0.0121 -0.2572
12734W        W55787  32.815  30.236   8.514 -0.2203  0.3221 -0.1530
12735W        W55788  24.692   2.434  24.303  0.0531  0.0030 -0.0291
12736W        W55789  22.451   0.048  18.777 -0.1811  0.1215 -0.1438
12737W        W55790  22.393  27.841  21.219  0.0531 -0.3877  0.0203
12738W        W55791   4.821  26.340  17.404 -0.0239  0.1465  0.0935
12739W        W55792  24.288  10.417  24.467  0.4258  0.2336  0.0050
12740W        W55793  25.570   6.157   7.976  0.2991  0.1535 -0.0718
12741W        W55794  21.573  33.188   7.122 -0.2409 -0.0115  0.1703
12742W        W55795  15.316  27.004   0.455  0.1515  0.0149  0.0163
12743W        W55796  28.647  26.001  21.583  0.2055  0.0464  0.1961
12744W        W55797  22.578   5.059  25.358  0.2819  0.0582  0.0532
12745W        W55798  16.690   4.628  24.507  0.1181 -0.3687 -0.3511
12746W        W55799   1.496  27.603  21.691  0.0491  0.0301  0.0948
12747W        W55800  17.237  30.251   0.648 -0.0650 -0.1719 -0.0185
12748W        W55801  15.776   6.059  18.372 -0.1663  0.2353  0.0147
12749W        W55802   4.681   0.021  26.685 -0.3871 -0.0934 -0.0441
12750W        W55803  11.207  31.490   7.059 -0.3224  0.0237 -0.1483
12751W        W55804  25.186   5.297  20.943 -0.0002 -0.2387  0.1265
12752W        W55805   0.165  34.294  24.346  0.1425  0.2532 -0.0528
12753W        W55806  31.996  28.741  20.173  0.1056  0.0177  0.0265
12754W        W55807  21.950  23.321  18.404 -0.1883 -0.0860  0.0673
12755W        W55808  16.772  30.270  10.173  0.1446  0.1471 -0.0405
12756W        W55809   3.760   7.109   6.199 -0.1358  0.0180  0.0466
12757W        W55810  32.620  27.360  16.112 -0.1896 -0.0784  0.3619
12758W        W55811   0.866   6.358  16.000  0.0274 -0.1218 -0.0926
12759W        W55812  34.131  27.812  26.448 -0.0780  0.1161 -0.0550
12760W        W55813   6.510  23.213  27.033  0.2334 -0.0553 -0.0290
12761W        W55814   7.940  19.265  18.277  0.1983 -0.1804 -0.0363
12762W        W55815  32.735  25.945  27.737 -0.1513  0.3363  0.0167
12763W        W55816  24.390  19.989  24.289 -0.1489  0.1644  0.2770
12764W        W55817  26.931  30.699   5.751  0.3919  0.3058  0.2049
12765W        W55818  21.206   8.628  27.032 -0.0061 -0.2449  0.0229
12766W        W55819  17.246  22.392  26.533 -0.1396  0.2935  0.0703
12767W        W55820  28.214  31.963   2.394  0.3170 -0.0729 -0.2868
12768W        W55821  30.738  22.011  24.882  0.1080 -0.3279  0.0611
12769W        W55822  29.483   2.766  23.394 -0.2829 -0.3533 -0.0977
12770W        W55823  19.969  26.585  21.735 -0.2407 -0.0005  0.0820
12771W        W55824  13.525  13.935  27.159  0.0083  0.3918  0.1590
12772W        W55825  21.457  30.882  27.458 -0.2064 -0.0487  0.1094
12773W        W55826  27.629  33.610  25.086  0.0153 -0.1076  0.0908
12774W        W55827  28.576   1.569  26.817  0.0718 -0.2027  0.0942
12775W        W55828  27.811   6.710   4.180  0.1113 -0.2057  0.0523
12776W        W55829  19.645  14.274  14.723 -0.2896 -0.2292  0.2212
12777W        W55830  27.334  16.125  24.748  0.1325  0.0477 -0.0712
12778W        W55831   2.086   4.366   2.018 -0.1211  0.2311  0.2643
12779W        W55832  25.194   5.982  14.798 -0.3141 -0.2309 -0.0918
12780W        W55833  20.013  10.431  25.858  0.2092  0.2660  0.0441
12781W        W55834  14.448  32.164  21.372 -0.1851 -0.2215  0.0732
12782W        W55835  26.333  29.839  17.973  0.0115 -0.3732 -0.1216
12783W        W55836   1.833  31.728  27.598  0.3177  0.0759  0.0558
12784W        W55837  28.104  25.395  16.146  0.1249 -0.1661 -0.2584
12785W        W55838   4.426  33.009  22.092  0.0489  0.1403 -0.1676
12786W        W55839  30.830  28.827  27.582  0.3492  0.1599 -0.1619
12787W        W55840   3.292   0.751  18.123  0.0393 -0.2643 -0.1524
12788W        W55841  21.571  31.892  21.812 -0.0500 -0.6100  0.0693
12789W        W55842  17.658  27.436   7.540 -0.1178 -0.2455 -0.1918
12790W        W55843  19.790   5.609   5.324  0.0512 -0.0106  0.0871
12791W        W55844   2.650  31.360  14.959 -0.1498 -0.3271  0.0711
12792W        W55845   0.859  28.284   1.647 -0.0343  0.3229 -0.2236
12793W        W55846  31.127   8.139  26.851 -0.1128 -0.1203  0.0844
12794W        W55847  24.825   8.413   8.106 -0.0856  0.0590 -0.2377
12795W        W55848  28.395  32.284  20.027  0.3186  0.0798 -0.0937
12796W        W55849   6.239  32.221  23.329  0.3095  0.1621  0.2589
12797W        W55850  33.281  28.225   7.711 -0.3053 -0.1687  0.2631
12798W        W55851   5.916  25.881  21.040  0.0985 -0.2240 -0.1290
12799W        W55852  15.673  22.587  27.068 -0.0035  0.1619  0.0279
12800W        W55853   5.907  31.686  15.508 -0.5439  0.0889 -0.2019
12801W        W55854  26.928  31.429  17.265  0.2021  0.0951 -0.1697
12802W        W55855   6.344   4.585   9.323  0.0135  0.2435  0.0604
12803W        W55856  26.915  10.017  28.584  0.3982 -0.1647  0.1785
12804W        W55857  32.570  31.452  16.492 -0.4248 -0.0007 -0.2783
12805W        W55858  13.684  25.353  25.304  0.0388  0.2060 -0.1454
12806W        W55859   9.729  16.478  21.765  0.2373 -0.1800  0.0289
12807W        W55860  17.698  26.198  15.220  0.0525 -0.2163 -0.0051
12808W        W55861  27.253  27.965   7.599  0.0249  0.0223 -0.0888
12809W        W55862  31.622  29.036  22.779  0.2632  0.2531 -0.3773
12810W        W55863  11.934   6.270  25.307  0.2124 -0.1815  0.1309
12811W        W55864  34.020  31.933  21.815 -0.3314  0.1208  0.2080
12812W        W55865  24.350  22.585  22.572  0.4686  0.1461  0.1307
12813W        W55866  25.720  32.803   2.664 -0.3685 -0.1822 -0.0453
12814W        W55867  32.043   6.505   9.289 -0.0123  0.1459 -0.0930
12815W        W55868   5.922  10.656  15.690 -0.2199 -0.3526 -0.0490
12816W        W55869  30.415  29.232  25.770 -0.0134 -0.0120  0.3436
12817W        W55870  10.145  13.122  22.479 -0.1024 -0.1265  0.4174
12818W        W55871  31.812  16.322  28.042  0.0072  0.3045  0.0631
12819W        W55872  21.314  30.916   8.946  0.0418  0.2138 -0.1913
12820W        W55873  24.166  28.247   7.423  0.1084 -0.0127 -0.1770
12821W        W55874  11.698  19.793  16.910  0.0549  0.2860 -0.0201
12822W        W55875  19.668  32.452  26.892 -0.0778  0.1027  0.2154
12823W        W55876  25.689   0.722  27.647  0.1671 -0.0288  0.3806
12824W        W55877  24.717  19.064   4.118  0.1479  0.1429 -0.0274
12825W        W55878  10.615  24.619  21.304  0.1269  0.0823 -0.0465
12826W        W55879   7.337  29.282   3.140 -0.0506  0.1244 -0.1063
12827W        W55880  33.949  29.690  19.862  0.1430  0.0690 -0.1641
12828W        W55881   3.500  27.079  21.688 -0.0020 -0.3393  0.2361
12829W        W55882  21.312  14.439  18.479  0.0230 -0.4445 -0.0586
12830W        W55883  17.747   1.613   8.315 -0.0015 -0.0295 -0.4144
12831W        W55884  15.699   4.398  21.154  0.0156 -0.0125  0.0314
12832W        W55885  13.030   7.933  18.335  0.2863  0.4145  0.0599
12833W        W55886  27.583  32.111   9.232 -0.0760 -0.0259  0.0914
12834W        W55887  20.784   3.009  28.897  0.0647  0.1198 -0.1043
12835W        W55888  24.330   8.602  24.413  0.3267  0.1403 -0.0121
12836W        W55889  16.473  33.607  23.436  0.0595  0.3274  0.1155
12837W        W55890  17.738  25.795  16.463 -0.1919  0.0289 -0.0060
12838W        W55891  18.157  27.818  17.299  0.1813 -0.0095 -0.3549
12839W        W55892  29.534   3.153  22.838  0.3391  0.0653  0.1935
12840W        W55893  12.596   4.198  15.558 -0.0703  0.0011  0.0963
12841W        W55894  31.552  29.243  24.650 -0.1929 -0.2632 -0.2038
12842W        W55895  26.569  30.595  14.701 -0.2063 -0.1425  0.1343
12843W        W55896  25.873  23.471   9.262  0.2158  0.1176  0.2952
12844W        W55897  28.554   4.081  17.697 -0.1670 -0.0333 -0.2484
12845W        W55898  10.636  29.496  16.151 -0.0790 -0.1807 -0.0930
12846W        W55899  15.064  30.659   7.739 -0.0730  0.2238 -0.0958
12847W        W55900  32.370  23.128  16.981  0.2257 -0.4203  0.0325
12848W        W55901  14.344   7.722  24.817 -0.1202 -0.0124 -0.0215
12849W        W55902   9.232  30.250  15.095 -0.1509 -0.1503 -0.0649
12850W        W55903  28.611  30.485  14.401  0.0532 -0.1911 -0.1132
12851W        W55904  20.920  29.604  18.292 -0.0769 -0.3006  0.2507
12852W        W55905   7.067  32.507  25.315 -0.0462 -0.1728  0.0620
12853W        W55906  27.759  30.239  24.004  0.1593  0.0983  0.0501
12854W        W55907  30.142  34.250  28.342  0.0580  0.0426 -0.2627
12855W        W55908   8.513  25.744  21.304 -0.1558 -0.0167  0.2904
12856W        W55909  26.524  22.103  14.275  0.2304 -0.5428 -0.1943
12857W        W55910  32.351  14.382   0.017 -0.0442  0.2444  0.1764
12858W        W55911   4.842  19.701  14.603 -0.1538  0.1804  0.1182
12859W        W55912   9.603   8.220  20.557  0.0337  0.0133  0.2044
12860W        W55913  21.412   4.199  17.769 -0.2607 -0.3185 -0.0393
12861W        W55914   6.224  25.741   2.798  0.1642 -0.0376  0.5972
12862W        W55915  17.524   2.344  28.624  0.1212  0.1860  0.1301
12863W        W55916  12.864  28.781  27.191  0.2877 -0.1746  0.1948
12864W        W55917   7.299  16.141   6.171  0.0076 -0.0115 -0.2687
12865W        W55918  31.908  28.810   1.216  0.2952  0.0825 -0.2490
12866W        W55919  20.356  28.500  23.751  0.1321  0.2191 -0.1100
12867W        W55920   0.062   7.108  23.761  0.2627  0.1373  0.0395
12868W        W55921  25.235  31.121  15.264  0.4194 -0.0232 -0.2555
12869W        W55922  33.894   4.466  23.059 -0.1000  0.2635  0.0058
12870W        W55923  22.962  33.076  18.372 -0.0812 -0.0073 -0.2111
12871W        W55924  12.574  20.846  15.887 -0.1243 -0.1862  0.0753
12872W        W55925  32.135   1.363  16.012  0.0199 -0.1637  0.2704
12873W        W55926  34.356  21.027  28.308  0.1579  0.2758  0.0565
12874W        W55927   1.805  32.624  14.697  0.0630 -0.3164 -0.1040
12875W        W55928  19.351  27.141  28.173 -0.0374  0.0474  0.0575
12876W        W55929  33.268  32.932  14.520  0.0221 -0.0515 -0.0896
12877W        W55930  29.885  30.068   6.745 -0.0952 -0.1425  0.1784
12878W        W55931  27.353  25.574  16.528  0.1526  0.2120  0.2432
12879W        W55932  10.726   4.268  22.819 -0.1145 -0.2284  0.3520
12880W        W55933  28.890  25.566  16.865 -0.2868 -0.1232 -0.1183
12881W        W55934  30.177  23.553  23.949  0.2218  0.0804 -0.1025
12882W        W55935  13.450  15.665  22.711 -0.1365  0.1335 -0.1338
12883W        W55936   0.764  30.137   4.260  0.0478  0.2757 -0.2602
12884W        W55937  17.975   7.416  26.403  0.1890 -0.0874 -0.0240
12885W        W55938  23.957  33.196  18.607  0.2176 -0.3539 -0.3688
12886W        W55939  28.955   3.126   8.375 -0.0623 -0.0394  0.2610
12887W        W55940  16.121  11.097   4.086 -0.4876  0.2433  0.2881
12888W        W55941  24.438   4.581  22.664 -0.0530 -0.2608  0.1275
12889W        W55942  16.751   0.610  26.684  0.0386  0.0045  0.2332
12890W        W55943  30.964   6.724  24.101 -0.0065 -0.0522  0.3942
12891W        W55944  22.062  11.318  26.647  0.1346  0.2838  0.0819
12892W        W55945  23.989  19.189  18.193 -0.0290  0.1067 -0.0515
12893W        W55946  32.729  26.823   1.854 -0.3041 -0.1551 -0.0526
12894W        W55947  32.150  31.759  13.291 -0.0121 -0.0817  0.0784
12895W        W55948  20.867  14.452  18.748 -0.0744  0.1663  0.1074
12896W        W55949  27.647  19.263  21.890 -0.1036  0.4234  0.1316
12897W        W55950  17.865   2.827  26.201 -0.3617  0.3015  0.0492
12898W        W55951  14.119  11.038  17.503 -0.0493 -0.0502 -0.3992
12899W        W55952  33.541  25.448  13.297  0.1351  0.1983 -0.1197
12900W        W55953  31.827  13.620   2.518  0.0541 -0.0420 -0.1906
12901W        W55954  12.786  32.188  15.401 -0.0575  0.0848  0.0231
12902W        W55955  12.554  28.444  28.676  0.0587 -0.0502 -0.1238
12903W        W55956   0.805  13.847   4.446  0.1572  0.0401  0.3053
12904W        W55957  29.296  32.810  21.794  0.0918  0.3803  0.2109
12905W        W55958  12.759   8.321  18.516 -0.0386 -0.0751  0.1688
12906W        W55959  13.523  30.093  19.426  0.0796 -0.0805 -0.0202
12907W        W55960   2.237  26.520  13.040  0.2421  0.3249  0.0631
12908W        W55961  20.674  33.419   8.767  0.0694 -0.0595 -0.0841
12909W        W55962  12.310  20.758  21.881  0.1535 -0.0772  0.3476
12910W        W55963  29.853  30.345  22.133 -0.0604 -0.2203  0.0561
12911W        W55964  28.334  26.524   0.722  0.1181  0.1047  0.1423
12912W        W55965  19.104   9.447  28.224  0.2422  0.2030 -0.0182
12913W        W55966  23.910  25.962  25.606  0.1624  0.0800 -0.0009
12914W        W55967  21.393  33.462   7.931  0.0597 -0.2546  0.1226
12915W        W55968  22.703  23.198  26.958  0.1398 -0.0701  0.4044
12916W        W55969  22.101  10.171  28.842 -0.0802  0.2870  0.1694
12917W        W55970  30.525  21.877  14.823  0.0863  0.0140  0.3375
12918W        W55971   9.287   0.987  29.168 -0.2491 -0.0976  0.1216
12919W        W55972  27.916  14.366  19.366 -0.1111 -0.1047  0.0194
12920W        W55973  33.551   9.565   9.539 -0.2049  0.0862 -0.0431
12921W        W55974   0.812   4.094  17.573 -0.1849  0.1683  0.4868
12922W        W55975  22.702   2.563  18.794  0.0574  0.2281 -0.1920
12923W        W55976  28.226  21.996  18.322  0.3159  0.5182  0.2215
12924W        W55977  20.591   7.092  28.538 -0.0152 -0.1688  0.2367
12925W        W55978  18.003  24.031  15.616  0.2575  0.0337  0.0557
12926W        W55979  25.218   3.098   0.697  0.0485  0.0494 -0.1589
12927W        W55980  19.075  21.657  23.829  0.0124  0.3220 -0.3317
12928W        W55981  24.324   3.703  25.706  0.0722  0.3627 -0.1369
12929W        W55982   1.665  14.956   4.528 -0.1598 -0.2310 -0.1431
12930W        W55983  28.132   2.499  15.459  0.2951 -0.1163 -0.0907
12931W        W55984  25.251   4.438  28.940  0.1232 -0.0167  0.1174
12932W        W55985  33.010  26.571  27.921 -0.4909 -0.2312  0.3075
12933W        W55986  17.971  24.926  15.679  0.0527  0.0387 -0.1643
12934W        W55987  16.631  32.712   0.896 -0.1590  0.2122  0.0809
12935W        W55988  14.865   2.663   6.207  0.0544  0.1281 -0.3872
12936W        W55989  28.854  23.935   2.153 -0.0399  0.1368  0.1470
12937W        W55990  19.818  13.345  15.335  0.1411  0.2098 -0.0467
12938W        W55991   1.033  29.908  26.245  0.0509  0.1788 -0.0012
12939W        W55992  27.342   2.714   1.248  0.3499  0.0802 -0.0625
12940W        W55993  27.139   7.415   0.460  0.4075  0.3454 -0.0060
12941W        W55994  27.848   0.062   9.490  0.0705 -0.3686 -0.0497
12942W        W55995  31.719  32.984   9.702  0.2517 -0.1001 -0.1608
12943W        W55996   8.301   7.397  20.164  0.3952 -0.1798 -0.1141
12944W        W55997   3.589   2.095   4.450  0.2701 -0.0586 -0.3790
12945W        W55998  25.789  27.928   0.294 -0.2470 -0.1074  0.1012
12946W        W55999  26.852  21.815   9.041  0.1436 -0.0174 -0.1593
12947W        W56000  29.252   5.502  15.834 -0.1374  0.0989  0.2882
12948W        W56001  25.957   8.911  16.100  0.0323 -0.1226  0.1070
12949W        W56002   3.653  29.262   6.185 -0.0677  0.2483 -0.0101
12950W        W56003  21.644  28.726  26.340  0.0347 -0.2098  0.0474
12951W        W56004  34.070  30.667  26.245 -0.0675 -0.0966  0.0189
12952W        W56005  27.316  26.480   2.351 -0.2506  0.1566 -0.1583
12953W        W56006  23.561  26.306  28.492 -0.1071 -0.1247  0.3922
12954W        W56007  24.945  31.925  20.792 -0.3158 -0.3127 -0.1596
12955W        W56008  27.293  23.368   5.838  0.3945  0.0270  0.2056
12956W        W56009  26.275  30.999   4.674  0.2609  0.3870 -0.1498
12957W        W56010  34.593  27.569  23.800 -0.0500  0.2626 -0.3894
12958W        W56011  21.598   5.584  26.216 -0.1517  0.1494 -0.0121
12959W        W56012  24.929   4.605   0.041  0.2418  0.1358 -0.3672
12960W        W56013  23.172  29.434  21.140  0.0201  0.2287 -0.0332
12961W        W56014  27.414   6.226  17.577  0.1805  0.0498  0.1926
12962W        W56015  33.631  18.145  23.388  0.1580  0.1011 -0.0436
12963W        W56016  16.103   4.319  25.781 -0.1386  0.2391 -0.1449
12964W        W56017  24.911  30.471   1.889 -0.2497  0.0622 -0.0705
12965W        W56018  16.412  11.719  22.684  0.0556 -0.1642 -0.3189
12966W        W56019  11.681  28.358  29.067 -0.2060  0.3354  0.0641
12967W        W56020  23.960  14.811  21.901  0.0441 -0.0694 -0.1866
12968W        W56021  21.516  30.139   9.266 -0.1060 -0.0245 -0.0456
12969W        W56022  19.581   6.525  20.058 -0.4796  0.0899 -0.0184
12970W        W56023  26.099   4.453  24.205 -0.0026  0.2987  0.0586
12971W        W56024   1.869  33.346  27.106 -0.1555 -0.2401 -0.1414
12972W        W56025  31.007  27.905  19.501  0.1088 -0.2809 -0.0016
12973W        W56026  18.734  23.074  14.777  0.4214  0.1151 -0.0628
12974W        W56027  30.246  28.427   9.500 -0.1973 -0.1572 -0.0054
12975W        W56028  33.667  26.805  18.245  0.0738 -0.4288 -0.2671
12976W        W56029  13.131  29.806  25.118 -0.1606  0.1105 -0.1723
12977W        W56030  15.068   9.999  24.501  0.0328  0.1465 -0.1356
12978W        W56031  20.324  29.782  26.540 -0.1279 -0.1862 -0.0477
12979W        W56032   6.110   6.927  26.666  0.1596  0.3153 -0.0081
12980W        W56033   7.323  33.294  21.847 -0.4642 -0.2032 -0.0967
12981W        W56034  22.920   1.303   3.784  0.0845  0.2458  0.1102
12982W        W56035  26.659  29.294   0.006  0.0843  0.2202  0.0685
12983W        W56036  33.914  27.279   3.707  0.2602 -0.1352  0.0489
12984W        W56037  25.410  31.439  24.347  0.0025 -0.2773  0.5012
12985W        W56038  22.034  27.906  23.522 -0.0078 -0.0090 -0.1493
12986W        W56039  13.584  29.508  15.887  0.0006 -0.1970  0.2697
12987W        W56040  26.493  18.220  26.666 -0.0960 -0.2434  0.1794
12988W        W56041  34.173   2.166  21.279  0.0150 -0.0310  0.1964
12989W        W56042   6.558  11.662   1.240 -0.1513 -0.0695  0.1764
12990W        W56043   5.514  10.141   7.805 -0.0871 -0.2862  0.1741
12991W        W56044  16.264  21.266  25.696 -0.0555  0.1256 -0.0176
12992W        W56045  32.267   4.783  16.914 -0.1224  0.2573 -0.2927
12993W        W56046   7.655  29.627   9.539 -0.1800 -0.4448  0.1494
12994W        W56047  10.824  31.015  18.379  0.1077  0.0149  0.3293
12995W        W56048  27.560  21.347   2.004 -0.0755  0.4348  0.2591
12996W        W56049  21.994  27.805  28.005 -0.1519  0.2685  0.1751
12997W        W56050  28.115   0.752  26.484  0.0614  0.0554 -0.1517
12998W        W56051   2.269  34.375   6.320  0.0809  0.2411 -0.1536
12999W        W56052   2.379  32.901  24.388  0.0302  0.1258  0.0186
13000W        W56053  19.324   1.668  15.937 -0.0763 -0.0544 -0.3016
13001W        W56054  17.100  27.602  20.989 -0.1730  0.1883  0.1383
13002W        W56055  16.260   2.231   3.304 -0.0122  0.2710 -0.0929
13003W        W56056  27.507   1.143  26.720 -0.0381  0.1455 -0.1121
13004W        W56057  26.624   4.192  25.379 -0.0879  0.0082  0.0963
13005W        W56058  33.666   1.904   4.911  0.1466  0.2197  0.1435
13006W        W56059  17.379   1.914  16.679  0.0431  0.0881  0.3529
13007W        W56060  23.950  28.257   6.466  0.1751 -0.0244 -0.0555
13008W        W56061  19.736  24.872  24.289  0.0568 -0.3248 -0.2931
13009W        W56062  23.212  31.792  18.774  0.0883 -0.0006  0.1792
13010W        W56063  14.512  23.132  26.898 -0.0108 -0.0851  0.0066
13011W        W56064  29.057  24.447  27.104  0.3164  0.1621  0.2381
13012W        W56065   0.972   8.241   4.085 -0.1049 -0.1232  0.2554
13013W        W56066  13.523  34.377   3.276  0.0161 -0.0060 -0.0543
13014W        W56067  13.188  27.946  24.690 -0.1202  0.2169  0.1104
13015W        W56068  14.563  26.511   2.761  0.1856 -0.0015  0.1662
13016W        W56069  23.292  29.301   3.068  0.2322  0.1749 -0.2847
13017W        W56070  17.329  27.643   9.034  0.2430 -0.0428  0.1602
13018W        W56071  13.029  28.216  17.121 -0.0590  0.0645 -0.3280
13019W        W56072  16.171   3.029   4.962  0.1708  0.0427  0.1183
13020W        W56073  28.825  18.260  28.607 -0.2936 -0.2766 -0.0862
13021W        W56074  10.273  17.866   3.037 -0.2207  0.0939  0.0625
13022W        W56075   9.521   3.482  20.347  0.0856 -0.0044  0.2101
13023W        W56076  17.064   5.298  10.174  0.3620 -0.1347  0.5611
13024W        W56077  18.033   3.062  17.931  0.2064 -0.1114  0.0776
13025W        W56078   1.663  22.968   5.042  0.0928 -0.2814  0.1244
13026W        W56079   9.696  30.012  25.392 -0.0823 -0.0907  0.1208
13027W        W56080  28.399   1.321  14.480  0.0239  0.2700 -0.1442
13028W        W56081  20.703   3.639   3.077  0.0202  0.0993 -0.1441
13029W        W56082  23.125  20.520  25.716  0.0185  0.1634 -0.0892
13030W        W56083  32.319   5.987  16.824  0.0372 -0.2286  0.0003
13031W        W56084  25.419  24.681  18.246 -0.1750 -0.1376 -0.2762
13032W        W56085  11.521   6.679   7.047 -0.2375  0.0581 -0.2890
13033W        W56086  25.708  24.709   4.657 -0.0436 -0.1233  0.0394
13034W        W56087  28.590  32.127  28.376 -0.2770 -0.1364  0.0913
13035W        W56088  30.405  24.897  23.245 -0.0596  0.2922  0.1308
13036W        W56089   1.233  30.497  21.797  0.0450  0.1843  0.1954
13037W        W56090   0.887  30.973  27.884  0.3156 -0.0988  0.1285
13038W        W56091  21.068  20.723  23.247 -0.2466  0.2390  0.0474
13039W        W56092   7.512  19.105  15.780  0.3754  0.4414  0.0297
13040W        W56093  15.238   0.443   1.824  0.0195  0.3276 -0.1268
13041W        W56094   8.976  29.563  14.104  0.3073 -0.0631  0.1859
13042W        W56095  15.404   7.707   6.526 -0.0858 -0.2443  0.2827
13043W        W56096  20.062   5.244   6.812 -0.1831 -0.1199  0.0509
13044W        W56097   2.836   0.361   0.905 -0.0907 -0.3010 -0.3318
13045W        W56098  31.393  23.536  15.597 -0.0370 -0.0202 -0.1109
13046W        W56099  13.934  32.097  26.515 -0.1189 -0.2988 -0.0052
13047W        W56100  27.636  29.565   5.360 -0.2416 -0.2580 -0.0840
13048W        W56101  32.207   8.016  22.499 -0.1939  0.4159  0.1659
13049W        W56102  16.666  28.207   6.858  0.1419 -0.2580 -0.1019
13050W        W56103  32.687  29.776   3.451 -0.0727 -0.0784 -0.1503
13051W        W56104   2.438   2.840   8.083 -0.1603 -0.1342  0.1883
13052W        W56105  16.903  27.156  28.982 -0.1862  0.0742  0.0865
13053W        W56106  16.933   5.044  16.902  0.1567  0.3788 -0.1102
13054W        W56107  23.380   7.181  19.940 -0.0232 -0.1321  0.0599
13055W        W56108  13.200   4.619  19.621 -0.2114 -0.1608  0.0051
13056W        W56109  12.670  23.850  18.693  0.0416  0.0376 -0.3707
13057W        W56110   6.933  27.071  21.194 -0.3320 -0.0439  0.3299
13058W        W56111  11.461   6.714  26.422 -0.0599  0.0809  0.2348
13059W        W56112  22.323   3.629  21.237 -0.0460  0.1542  0.1697
13060W        W56113   5.807  33.813  24.289  0.1670  0.1285  0.3823
13061W        W56114  25.693  18.258   0.726  0.1460  0.0555  0.0190
13062W        W56115  26.554   0.538   1.646  0.2850 -0.0849  0.2177
13063W        W56116  18.395   5.708  20.410  0.1102  0.2058 -0.0064
13064W        W56117  15.015   6.292  23.482 -0.0382 -0.2341  0.0913
13065W        W56118  21.745  28.604  22.980  0.0836  0.0168  0.0710
13066W        W56119  29.147  30.449   6.829 -0.0893  0.0581  0.0675
13067W        W56120  22.009  17.562  24.999 -0.3059 -0.0258 -0.2242
13068W        W56121  31.615  26.952   8.714  0.3614 -0.2717  0.0867
13069W        W56122  27.452  19.562  25.343 -0.0976  0.0174  0.1021
13070W        W56123  18.816  12.236  16.087 -0.0662  0.3124 -0.1335
13071W        W56124  16.961  28.174  22.737 -0.3321 -0.0044  0.1262
13072W        W56125  32.323   8.343  20.133 -0.0069 -0.3328 -0.2479
13073W        W56126  22.209  15.037   7.785 -0.0481 -0.0578  0.1731
13074W        W56127  24.418  26.012  28.228  0.2037  0.2130  0.1880
13075W        W56128  32.690  28.898  16.870  0.2012  0.0163  0.5526
13076W        W56129  14.847   2.375  18.242  0.0056 -0.0663  0.3929
13077W        W56130  21.905   6.635   7.504 -0.1718 -0.1178  0.3659
13078W        W56131  33.375   1.302   6.623  0.0141  0.0373  0.0360
13079W        W56132  12.341  17.921  26.160 -0.0077 -0.1183 -0.0666
13080W        W56133  25.760   5.226  26.532 -0.1555  0.1569 -0.1415
13081W        W56134  18.275   1.744   9.650  0.0732 -0.2541 -0.2122
13082W        W56135  25.790  13.404  28.481  0.1966 -0.0310 -0.1292
13083W        W56136  23.696  24.314  24.788 -0.0183 -0.4757  0.0119
13084W        W56137  23.915   1.633   2.110  0.1898 -0.4391  0.4845
13085W        W56138  23.601   7.154   8.558  0.2612  0.0808 -0.0343
13086W        W56139  32.074  15.999  26.658 -0.0283  0.3650  0.3473
13087W        W56140  20.684  31.825   3.988 -0.0762  0.2087 -0.0272
13088W        W56141  28.180  25.800  19.567  0.0654 -0.2710  0.1763
13089W        W56142  20.960  14.508  27.805  0.0817  0.1129  0.0182
13090W        W56143  25.597  10.381   1.308  0.2091  0.1259 -0.2144
13091W        W56144  33.365   5.921   6.820  0.1486 -0.0312 -0.0451
13092W        W56145  13.902  20.306  16.987 -0.1708 -0.1304 -0.2437
13093W        W56146  16.559  30.017   9.770  0.2333  0.1773  0.1818
13094W        W56147  32.784  20.034   0.209 -0.0520  0.0610 -0.1057
13095W        W56148  12.037  34.672  24.808 -0.1964 -0.2398 -0.0987
13096W        W56149  13.242  26.857  22.119 -0.1350 -0.0800  0.3026
13097W        W56150   1.022  27.032  25.881  0.2803  0.1182  0.2091
13098W        W56151  28.223   1.352   4.584 -0.1910 -0.2024  0.0646
13099W        W56152  23.411  30.577   3.971 -0.2688 -0.2154 -0.1110
13100W        W56153  28.751   9.608  25.350  0.1638  0.2209  0.3965
13101W        W56154  28.770   0.241  16.187  0.2168 -0.2129  0.0474
13102W        W56155  31.436  30.049  15.429  0.0016 -0.0028  0.4343
13103W        W56156  10.681  20.455  26.419  0.2360  0.0787  0.0604
13104W        W56157  18.799  20.729   3.508  0.1613 -0.1224 -0.1508
13105W        W56158   2.749   3.552   8.647 -0.2824 -0.0929 -0.1064
13106W        W56159  19.550   3.251   7.144 -0.1332  0.2359  0.1106
13107W        W56160  29.823   6.670  16.487 -0.0166  0.2588  0.0822
13108W        W56161  22.568  23.264  27.821  0.0137 -0.0258  0.3611
13109W        W56162  19.318  26.565  10.433 -0.0394  0.2453  0.2692
13110W        W56163  16.029  25.265  15.183  0.0181 -0.2896  0.0642
13111W        W56164  32.765   6.738  21.564 -0.1297  0.3210 -0.0698
13112W        W56165  22.082  34.080   3.678  0.2888 -0.1566 -0.0347
13113W        W56166  31.591  27.899   3.037 -0.0872 -0.2022  0.0062
13114W        W56167  26.725  14.653   4.242  0.3714  0.0644  0.0368
13115W        W56168   6.731   5.802  27.736 -0.0553 -0.0173  0.0927
13116W        W56169  10.368   8.145  23.530 -0.2079  0.0046 -0.0585
13117W        W56170  29.926   1.446  16.098 -0.0316 -0.1668  0.0539
13118W        W56171  24.025  23.619  23.919  0.0804  0.3250  0.0405
13119W        W56172  32.386  33.255   6.851 -0.2553 -0.2302  0.1749
13120W        W56173  16.506   9.816  22.513  0.2954 -0.0285 -0.0934
13121W        W56174  26.871  30.583   1.707 -0.3754 -0.1784 -0.0173
13122W        W56175  25.426  26.872  25.835  0.1911  0.1760  0.1089
13123W        W56176  19.702  23.622  21.858  0.4544  0.3453 -0.2016
13124W        W56177  17.984  29.968  27.163 -0.1642 -0.2705  0.2321
13125W        W56178  11.425  19.305   7.275 -0.0278 -0.0981 -0.1054
13126W        W56179  28.843  29.185  10.579 -0.2170  0.2443  0.0700
13127W        W56180  13.967  34.010  21.482  0.2110 -0.2850  0.1312
13128W        W56181   1.187   5.048  10.701 -0.0559 -0.2077  0.1882
13129W        W56182  27.602  22.980   8.030  0.3201 -0.2612 -0.0884
13130W        W56183  27.907   6.732  25.151 -0.0420 -0.0035  0.1305
13131W        W56184   3.574  29.891  18.526 -0.2117 -0.5266 -0.0371
13132W        W56185  19.902  23.723   9.932  0.2108  0.0605  0.0600
13133W        W56186   3.461  32.968   1.877  0.0054 -0.2987  0.1095
13134W        W56187  14.897  31.788  27.368 -0.0864 -0.0731 -0.1168
13135W        W56188  28.190  12.812   9.897  0.2454  0.1599 -0.0575
13136W        W56189  14.016  22.183   2.247 -0.0121  0.2692 -0.3590
13137W        W56190   6.713   3.110  16.216 -0.0959  0.2613  0.1862
13138W        W56191  17.140   1.750  23.361  0.1079 -0.0021 -0.2844
13139W        W56192  18.573   1.470  24.374 -0.1901 -0.0859  0.2258
13140W        W56193  14.507  32.372  28.945  0.0206 -0.1697  0.2146
13141W        W56194  25.472  23.373   1.461  0.1506  0.0075 -0.0619
13142W        W56195   8.362  14.021  29.053  0.0042  0.2291 -0.0671
13143W        W56196  10.129  16.097  21.629 -0.1000  0.1568  0.5907
13144W        W56197   0.624  17.354  27.059 -0.0470 -0.1304  0.1477
13145W        W56198  27.717  22.852  28.478 -0.3843  0.1965  0.1745
13146W        W56199   6.458   1.426  20.838  0.1503  0.0951  0.4918
13147W        W56200  23.062  20.224   0.412 -0.0281 -0.0035  0.0962
13148W        W56201  26.193  23.605  20.149 -0.1401  0.0120 -0.0385
13149W        W56202  26.248   2.800  16.699  0.2083 -0.3188 -0.0465
13150W        W56203  19.146   1.325  19.701  0.1565 -0.2875  0.2157
13151W        W56204   1.384  31.316  24.015  0.2721 -0.2357 -0.0215
13152W        W56205  31.137   1.489  25.739  0.0736  0.2459  0.3178
13153W        W56206  27.224  32.594   8.005  0.0461  0.1089  0.0977
13154W        W56207  25.465  31.345   7.935  0.0686 -0.1512 -0.0163
13155W        W56208  28.255  32.980  19.081 -0.1673 -0.2813  0.3160
13156W        W56209  20.337   5.113  27.236  0.0084  0.0278  0.1694
13157W        W56210  23.288  32.504   1.687 -0.2266  0.0006  0.0451
13158W        W56211  28.598  21.105  20.150  0.0228  0.0870 -0.0116
13159W        W56212  27.419   2.908  19.022 -0.2563  0.1871 -0.3030
13160W        W56213  25.727  26.248   0.471  0.0338  0.0406 -0.3942
13161W        W56214   5.929  14.221   7.126  0.1260  0.1307 -0.2055
13162W        W56215  23.730  16.062  18.542 -0.0259  0.0242 -0.0250
13163W        W56216  25.928  34.504  28.052 -0.2364  0.1723  0.0140
13164W        W56217   7.298  33.635  16.174  0.1377 -0.1586  0.0409
13165W        W56218  14.714  22.646  27.450  0.3629 -0.1731 -0.0937
13166W        W56219  18.774  16.123   1.979 -0.0260  0.4520  0.0539
13167W        W56220  17.668   4.418  11.054 -0.1723 -0.0635  0.2043
13168W        W56221  24.436   3.908  16.481  0.0816  0.0993  0.1918
13169W        W56222  30.073  19.739   7.803 -0.0644 -0.2847  0.0081
13170W        W56223  20.115  31.510  20.908 -0.4715  0.1224 -0.4075
13171W        W56224  26.329  13.787   8.768  0.1228 -0.1401 -0.0599
13172W        W56225  29.533  25.460   4.515  0.0692 -0.1017  0.2506
13173W        W56226  25.595  32.921   6.099  0.2720 -0.1862  0.0300
13174W        W56227  11.398  30.214  21.782  0.0561  0.3945  0.1210
13175W        W56228   4.221  18.342  27.763 -0.0715 -0.0266 -0.0613
13176W        W56229  26.120  31.843  17.364 -0.0986  0.0877  0.3213
13177W        W56230  32.925   5.679   1.106 -0.1676  0.0907  0.2286
13178W        W56231   6.876  32.399   9.866 -0.1869 -0.0942 -0.1171
13179W        W56232  21.642  22.247   5.059  0.3648  0.2234  0.2934
13180W        W56233  23.432  17.124  14.248  0.0099 -0.1901  0.4418
13181W        W56234   8.732  31.869  25.530  0.1725 -0.3063  0.1974
13182W        W56235  13.608  30.978   5.756 -0.1633  0.0703  0.0615
13183W        W56236  14.927  29.799  20.349  0.0680 -0.2700 -0.1246
13184W        W56237  18.073  27.475   1.353  0.4066 -0.2220 -0.1305
13185W        W56238  31.669  16.660  16.592 -0.0084 -0.0179 -0.0201
13186W        W56239  10.859  19.152  26.639  0.0677 -0.2846  0.0548
13187W        W56240   0.334   7.456   5.969  0.0372 -0.3215 -0.1371
13188W        W56241  28.543   6.213   9.774  0.2115 -0.0693  0.0299
13189W        W56242  22.019  31.039   2.982 -0.1544  0.1333  0.3288
13190W        W56243  34.433   5.667  27.036  0.1549  0.1739  0.2475
13191W        W56244  28.403  25.507  20.966 -0.0956  0.0286  0.2487
13192W        W56245  33.670  33.496   6.504  0.2891 -0.2153  0.0004
13193W        W56246  16.174  27.701   9.358  0.0881 -0.1657 -0.0701
13194W        W56247  16.057   5.920   4.108  0.0685  0.1442  0.0234
13195W        W56248  28.162  33.157  28.578  0.1901 -0.1260 -0.0228
13196W        W56249  15.949  17.328   5.992 -0.3607 -0.2559  0.2857
13197W        W56250  23.755   2.555   3.010  0.1177 -0.0112  0.0105
13198W        W56251  30.713  30.069  21.986  0.1614 -0.0318  0.0844
13199W        W56252  11.275  17.285   0.160 -0.0109 -0.0464  0.1549
13200W        W56253  11.388   1.908  18.979  0.2210 -0.1144 -0.0857
13201W        W56254   0.528  32.271   2.378 -0.3443  0.0592  0.0137
13202W        W56255  34.537  23.604  27.589  0.1295  0.0249  0.0711
13203W        W56256  31.178  21.541  20.932 -0.1067  0.0598 -0.2160
13204W        W56257  30.028  21.295  27.436  0.0405  0.0025 -0.1071
13205W        W56258  31.545   4.725   7.203 -0.0338 -0.0230  0.5359
13206W        W56259   3.516  32.985  27.690  0.0918  0.4778  0.2067
13207W        W56260  23.268   5.681  28.358  0.1356  0.5746 -0.3606
13208W        W56261  33.786  23.309  14.893 -0.2124  0.3092  0.3162
13209W        W56262  28.549  32.216   5.765  0.2440  0.1690  0.2834
13210W        W56263  13.656  28.011   2.437 -0.1100  0.0210  0.0784
13211W        W56264   4.046  21.395   7.392 -0.1447  0.2386 -0.2761
13212W        W56265  11.153   4.992   7.478 -0.2391  0.0321 -0.1361
13213W        W56266  18.925  33.198   1.765  0.3539 -0.0381 -0.0073
13214W        W56267   4.820  16.750  28.297  0.2519 -0.2464 -0.3571
13215W        W56268  13.362   6.906  27.377 -0.2970 -0.0696  0.1870
13216W        W56269  20.463  15.851   2.757  0.1246 -0.1499  0.1470
13217W        W56270  26.831  34.318  19.078  0.1158  0.1251  0.1357
13218W        W56271  24.021  16.577  16.675  0.1367 -0.0821 -0.0163
13219W        W56272  19.287  29.588  20.363  0.0201 -0.2268 -0.1630
13220W        W56273   0.959  20.417  18.737 -0.2531 -0.3024  0.1342
13221W        W56274  16.666  23.750   5.154 -0.1821  0.1593 -0.3917
13222W        W56275  28.014  23.104   9.374 -0.0282  0.2226 -0.1472
13223W        W56276  23.049  24.339   9.563 -0.0167 -0.2737 -0.0239
13224W        W56277  27.843  33.540  15.464  0.1671  0.3889  0.0082
13225W        W56278  18.111  24.487   2.763  0.1027  0.1349  0.0519
13226W        W56279   4.693  31.419  19.647 -0.2078  0.0881 -0.3468
13227W        W56280  30.795   8.114  28.432 -0.2919 -0.0949  0.2783
13228W        W56281   2.763  34.414  23.877  0.0271 -0.1343  0.0202
13229W        W56282   7.102  25.347  14.891  0.0897  0.2912  0.1542
13230W        W56283   9.060   4.903  24.775 -0.0303  0.0317 -0.3551
13231W        W56284   9.322   3.174  22.658 -0.2030 -0.2640 -0.1143
13232W        W56285  24.198  34.458   3.211  0.2579  0.2203  0.0405
13233W        W56286  21.399  22.332  27.740 -0.0954  0.0614  0.1129
13234W        W56287  15.642  25.079   3.184 -0.0923 -0.0532 -0.0897
13235W        W56288  17.656  29.622   1.363 -0.0689 -0.3914  0.0893
13236W        W56289  34.469  33.024  23.667 -0.1817  0.1251  0.0644
13237W        W56290   2.997   5.570   0.838  0.2892  0.2295 -0.5099
13238W        W56291  25.300  30.570   8.379  0.4891  0.0249  0.1581
13239W        W56292  30.422  19.790   8.315  0.0333 -0.1280  0.2945
13240W        W56293  24.432   7.636   8.189 -0.0166 -0.3151  0.2967
13241W        W56294  11.550  20.858   1.927 -0.0531  0.1000  0.1041
13242W        W56295  17.004  31.281  10.071  0.2202  0.0356 -0.1202
13243W        W56296  15.884  24.258   4.726 -0.0899 -0.3050 -0.1224
13244W        W56297  23.233  28.828   3.909  0.2766 -0.0404  0.3282
13245W        W56298  28.712   9.094   7.067  0.1943  0.2453  0.2443
13246W        W56299  24.921  14.071   6.590 -0.1539 -0.0164 -0.0118
13247W        W56300  20.214  32.986  23.884  0.1367  0.0023 -0.0577
13248W        W56301  33.953  27.396  22.906 -0.0149  0.0135  0.1190
13249W        W56302  11.382  29.850  28.471  0.0858 -0.2430  0.3936
13250W        W56303  13.441  25.372   3.724 -0.0240  0.5526 -0.1254
13251W        W56304  25.649  13.757   5.888 -0.1236  0.0207  0.0548
13252W        W56305  31.532  25.175  22.397  0.1672 -0.2684 -0.2469
13253W        W56306  15.945  21.329  24.410 -0.1882  0.0347 -0.1360
13254W        W56307  23.278  27.137  17.536 -0.1786 -0.0992 -0.2672
13255W        W56308  23.044   3.525   5.266 -0.2202  0.2592 -0.1988
13256W        W56309  28.670  30.971   0.279 -0.1614  0.1458 -0.0876
13257W        W56310  24.617  16.223   4.202  0.1964 -0.0770  0.2170
13258W        W56311  23.341  14.790   2.913 -0.1641  0.0207 -0.0598
13259W        W56312   9.288  25.355  20.251  0.0019  0.2620  0.1079
13260W        W56313  28.758   3.695  15.607 -0.3209  0.0573 -0.2014
13261W        W56314  27.164   5.390  27.690  0.2443  0.0970 -0.0551
13262W        W56315  17.505   0.503   8.701 -0.1660  0.1108 -0.0057
13263W        W56316  25.994  31.112   7.687  0.0257 -0.0500  0.1078
13264W        W56317  21.790  26.833  10.330  0.0336  0.0686 -0.0993
13265W        W56318  32.489  13.248   3.877  0.0030 -0.0629  0.0973
13266W        W56319  13.585  24.388   6.646  0.1788  0.0097  0.1252
13267W        W56320  33.878   5.051  22.011  0.2153  0.0543 -0.2529
13268W        W56321  27.609  24.099   1.113  0.0153  0.0064 -0.2000
13269W        W56322  22.658  16.115  13.487 -0.2658 -0.2367 -0.2688
13270W        W56323  29.637  24.694   9.413 -0.0299 -0.1005 -0.1167
13271W        W56324  13.194  28.026   8.752  0.0319  0.0878  0.0850
13272W        W56325   2.099  10.438  23.558  0.1889 -0.0674 -0.3722
13273W        W56326  29.069   9.477  28.477 -0.0571 -0.1440 -0.0073
13274W        W56327  17.509  29.686   6.876  0.0857 -0.1512 -0.3575
13275W        W56328  16.808   9.230  20.274  0.2024  0.0081 -0.1777
13276W        W56329   6.991  20.638   8.348 -0.0483 -0.2525 -0.0239
13277W        W56330  12.527   0.388  26.142 -0.0110 -0.2986  0.2473
13278W        W56331  18.443  27.507  14.952  0.0176  0.0066  0.0542
13279W        W56332   6.130  12.864  10.181  0.0440  0.3716 -0.0457
13280W        W56333  15.813  12.460  22.741  0.0217 -0.1615 -0.0897
13281W        W56334   7.388  28.075  15.763  0.1261  0.0094 -0.0231
13282W        W56335   2.846  22.280   8.132 -0.2988  0.0763  0.1647
13283W        W56336  33.132   0.523   1.898  0.2167 -0.2009 -0.0287
13284W        W56337  33.362  29.710   4.492  0.0942  0.2367 -0.0302
13285W        W56338   9.113  30.602  27.175 -0.0543  0.1326  0.1799
13286W        W56339  10.394  17.169   0.282  0.0886  0.0231 -0.1921
13287W        W56340  17.206   7.932   3.105  0.0831  0.0742  0.1923
13288W        W56341  22.548   3.001  20.653  0.0759  0.1704 -0.2038
13289W        W56342   8.164   8.866   2.737 -0.2956 -0.0850 -0.1055
13290W        W56343  20.527  15.425  26.073  0.0533 -0.0317  0.0516
13291W        W56344   4.276   9.183  17.576 -0.0940 -0.3949  0.3800
13292W        W56345  33.786   9.149  18.754 -0.1314 -0.1676 -0.1336
13293W        W56346  34.396  27.530  21.688 -0.0158  0.0753 -0.0927
13294W        W56347  25.757   5.684  19.470  0.0021 -0.0642 -0.0525
13295W        W56348  28.145   1.589   1.947 -0.2892 -0.2207 -0.2690
13296W        W56349  13.704  10.282  15.986 -0.0961  0.1291 -0.2944
13297W        W56350   5.220   9.042  10.275  0.1450 -0.1150  0.0070
13298W        W56351  23.380  29.708   2.136  0.1039 -0.1425 -0.0015
13299W        W56352   5.976  25.872  22.960 -0.3206 -0.1342 -0.0119
13300W        W56353   3.425   0.649  16.569  0.0808 -0.2412 -0.2792
13301W        W56354  26.572  22.452  26.405  0.0391 -0.1242 -0.0949
13302W        W56355  19.382  23.058   0.441 -0.0678 -0.0496 -0.1087
13303W        W56356  28.497  14.161  28.376 -0.2745  0.2566  0.2441
13304W        W56357   0.367  15.240  19.873  0.0722 -0.0087  0.2684
13305W        W56358  27.116  34.358   6.615 -0.0212  0.3395 -0.1801
13306W        W56359  31.432  14.740   5.737 -0.0138 -0.0161 -0.0380
13307W        W56360  21.923   5.504   8.595  0.0100 -0.0759 -0.3335
13308W        W56361  30.758  27.696  27.824  0.1528  0.2267 -0.1114
13309W        W56362  33.605  13.030  26.235  0.3594  0.0256  0.0513
13310W        W56363   4.265  22.993   7.663 -0.1326 -0.0332 -0.1153
13311W        W56364  27.044  30.235   2.343  0.0988  0.1283  0.1882
13312W        W56365  26.872   8.137  28.536 -0.2489  0.0073  0.0620
13313W        W56366  27.983  33.099  18.710  0.2534  0.1959  0.0991
13314W        W56367  20.725  12.994  22.321  0.1521  0.3846  0.1228
13315W        W56368  13.581  23.144   6.762 -0.4205 -0.3362  0.1845
13316W        W56369  26.757  22.595  24.048  0.0050 -0.3751 -0.0583
13317W        W56370   5.493  26.010   6.664  0.0167  0.0435 -0.0416
13318W        W56371   4.639   0.273  10.325  0.0024 -0.2930 -0.0573
13319W        W56372  24.434  23.633  27.679  0.2443 -0.2030 -0.1052
13320W        W56373   0.709   4.132  20.923  0.4535  0.0687 -0.1147
13321W        W56374   5.653  10.215  16.263  0.1664 -0.3061  0.0430
13322W        W56375  28.287  19.211  25.228  0.0703 -0.1987  0.1330
13323W        W56376  24.481   0.618  28.948  0.2871  0.1820 -0.3179
13324W        W56377  27.286  29.815   7.099 -0.0922 -0.1208  0.2049
13325W        W56378  29.777  29.777  26.453  0.4564 -0.2473 -0.1520
13326W        W56379  22.291  28.184  25.507 -0.0352  0.1607 -0.0219
13327W        W56380  22.481  23.925   8.645  0.0030  0.1826 -0.1741
13328W        W56381  33.174  30.235  25.534 -0.1456 -0.0321 -0.1280
13329W        W56382  16.928  22.586  24.643 -0.4639  0.0253 -0.2844
13330W        W56383  29.583  32.170  25.800 -0.2905 -0.2558 -0.1960
13331W        W56384  16.736   0.507  10.535  0.0476 -0.3165  0.0415
13332W        W56385  25.469   2.744  25.817 -0.0763  0.0847  0.1249
13333W        W56386  12.757  34.661   1.097  0.2938 -0.1317  0.3669
13334W        W56387   4.603  33.386   5.944  0.0898  0.1102 -0.2062
13335W        W56388  17.376  14.662   9.219  0.1480 -0.3650 -0.0653
13336W        W56389  28.465  24.162  14.797 -0.1668  0.1294 -0.0059
13337W        W56390  19.635  30.431   7.450  0.5277 -0.0801 -0.0411
13338W        W56391  17.604  33.647  22.217  0.1315  0.0155  0.1450
13339W        W56392   4.907   8.660  23.228 -0.0431 -0.1616 -0.1214
13340W        W56393  12.006  27.958  23.854 -0.5334  0.1716 -0.0645
13341W        W56394  31.083  11.065   8.376  0.0516 -0.0461  0.0079
13342W        W56395  12.914  19.525   9.755 -0.0555  0.2902 -0.2401
13343W        W56396  14.377  21.109   0.155  0.2216  0.0233  0.1825
13344W        W56397  26.078  28.342  25.601 -0.0338 -0.0556  0.1147
13345W        W56398  18.725  25.653   5.854 -0.2594 -0.0433  0.0208
13346W        W56399  15.310  30.391   5.788  0.2160 -0.2223 -0.0753
13347W        W56400  30.744  34.547   3.357 -0.2145 -0.0140  0.0701
13348W        W56401  12.179  32.925  20.896 -0.2359 -0.1073  0.1016
13349W        W56402  28.755  27.532  15.552 -0.1587  0.0430 -0.1490
13350W        W56403  16.016  28.958   4.846 -0.1600  0.4255 -0.3314
13351W        W56404  19.489  28.006  14.904  0.2369  0.1637  0.0033
13352W        W56405  24.520   0.074  19.591  0.0304 -0.0521  0.0472
13353W        W56406  24.680  31.364  10.762  0.0271  0.1195 -0.0023
13354W        W56407  11.613  21.092   5.221  0.1436  0.0871 -0.0638
13355W        W56408  31.341  12.555  15.055 -0.0157 -0.0907  0.4347
13356W        W56409  19.386  28.177  10.044  0.0342  0.1580 -0.0780
13357W        W56410  14.773  19.476  23.809  0.2176 -0.0286 -0.2100
13358W        W56411   1.918  18.255  12.963  0.1301  0.2142  0.2382
13359W        W56412  17.949  19.973   7.813 -0.0443 -0.1400 -0.1920
13360W        W56413  14.159   1.718  23.290  0.2318  0.3242 -0.2551
13361W        W56414  22.007  23.283   9.418  0.1867  0.2611 -0.1618
13362W        W56415  28.203   3.339   5.598  0.1498  0.0600 -0.1524
13363W        W56416  33.987   8.077   7.799 -0.1025 -0.2124  0.3236
13364W        W56417  23.404  22.155  16.164  0.0916  0.0488  0.0663
13365W        W56418  12.537  18.846   0.590 -0.0942 -0.1651  0.0008
13366W        W56419  11.732  32.454   4.909  0.1710 -0.1588 -0.1805
13367W        W56420  15.728  17.950  16.185  0.3588  0.2552  0.0780
13368W        W56421  26.535  31.673   3.460 -0.0112 -0.2699  0.1307
13369W        W56422  18.156   4.264  25.587  0.2290  0.0678  0.1345
13370W        W56423  25.742  31.185   0.401 -0.1174  0.1399  0.0385
13371W        W56424  27.872  14.911   7.253 -0.0085  0.3110 -0.0738
13372W        W56425  20.409  15.601   5.554 -0.1778  0.1132  0.1252
13373W        W56426  27.173  23.343   2.681 -0.0989 -0.2922  0.3447
13374W        W56427  31.604   3.176   1.383 -0.1692 -0.0022 -0.3611
13375W        W56428  23.891   0.040  28.093  0.3245 -0.0283  0.3368
13376W        W56429  14.216   0.454   5.612 -0.0148  0.3362 -0.0235
13377W        W56430  16.772  30.869  28.227 -0.1197 -0.3130  0.1887
13378W        W56431  17.713  13.807   7.519 -0.1692 -0.2379 -0.0720
13379W        W56432  26.027  13.618  15.020  0.0630 -0.2256 -0.5232
13380W        W56433  32.211   0.215  16.668 -0.1098 -0.3477 -0.0301
13381W        W56434  20.900  27.684  16.202 -0.4132  0.4748 -0.0749
13382W        W56435  23.268   4.984  17.686  0.1129 -0.0109 -0.3067
13383W        W56436  23.506  27.151  19.375 -0.1543  0.3160  0.0495
13384W        W56437   2.641  22.737  18.016 -0.0401 -0.1322  0.2033
13385W        W56438  18.774  27.484  18.357  0.2041  0.2983 -0.0949
13386W        W56439  31.712   5.295  26.038 -0.2454  0.1428 -0.0172
13387W        W56440  33.531  31.109  22.281 -0.1445  0.2269  0.1337
13388W        W56441   7.988   4.738  20.287 -0.0953  0.2009  0.4093
13389W        W56442  23.798   0.292   4.478 -0.2417 -0.0512  0.2437
13390W        W56443  20.292   5.044  14.705  0.2079  0.1040 -0.3438
13391W        W56444  14.347   2.035  16.154 -0.0974 -0.0062 -0.1824
13392W        W56445  25.100  12.748  19.121  0.0064  0.0362  0.1203
13393W        W56446  17.356  30.364  22.827  0.2190  0.0405 -0.2177
13394W        W56447  18.684  12.796  23.348  0.2110  0.0522 -0.3137
13395W        W56448  18.103   0.304  17.822 -0.2631 -0.2953  0.0818
13396W        W56449  26.753  23.616  17.206  0.2590  0.0092  0.0732
13397W        W56450  27.111   8.718  18.531  0.1378  0.1751  0.2903
13398W        W56451  22.836  11.111  20.484  0.0475  0.0701  0.0809
13399W        W56452  19.247  23.492   5.342  0.3776  0.2061  0.4205
13400W        W56453  20.568   5.843  15.020  0.0452 -0.1002  0.0960
13401W        W56454  13.871  32.303  17.894  0.0285 -0.0357 -0.0038
13402W        W56455  12.266  24.871  24.068  0.0123  0.0825 -0.1437
13403W        W56456  16.841  25.999  27.433  0.0857 -0.0855 -0.2072
13404W        W56457   9.543  18.172  16.283 -0.2219 -0.0750  0.1484
13405W        W56458  19.605  29.543  21.830 -0.0306  0.0823  0.2685
13406W        W56459  26.224  17.368  22.632  0.0235 -0.1461  0.0174
13407W        W56460  30.248  31.924  15.128 -0.0599 -0.0373  0.0262
13408W        W56461  31.884  17.716  22.580  0.0009 -0.0087 -0.1091
13409W        W56462  21.627  31.204  15.757  0.3265 -0.1306  0.1208
13410W        W56463  28.081   0.799  20.266 -0.0327  0.0332 -0.1155
13411W        W56464  22.518   4.528  14.493  0.0306  0.0390  0.1419
13412W        W56465   7.676  31.018  23.653 -0.0751 -0.1492 -0.0323
13413W        W56466  13.977  29.100  23.620 -0.0412  0.1820  0.3101
13414W        W56467  13.733  30.841  16.538  0.1709 -0.2774  0.1883
13415W        W56468  33.158  25.082  22.091 -0.2584 -0.0446 -0.0941
13416W        W56469  15.508  34.003  15.867 -0.1309  0.2272  0.0230
13417W        W56470   2.651   1.071  16.889  0.2397 -0.3152  0.1412
13418W        W56471   6.380  23.058  15.258  0.4678 -0.0929 -0.0774
13419W        W56472  29.914   2.850   1.402 -0.1302  0.2986 -0.1954
13420W        W56473   9.304  26.688  25.908  0.3274 -0.1385  0.0965
13421W        W56474   2.205  29.564  13.212  0.3128 -0.0580 -0.1845
13422W        W56475  15.246  31.783  18.302  0.2023 -0.2461  0.1801
13423W        W56476  25.083  25.137  16.405  0.0540  0.1775 -0.4504
13424W        W56477  24.490   4.846   0.166 -0.2845 -0.1995  0.0793
13425W        W56478  27.399   4.110  16.900  0.0979 -0.1004 -0.1937
13426W        W56479  28.190   8.209  19.098 -0.1824  0.1601 -0.2171
13427W        W56480  24.736  32.207  18.692  0.0175  0.1749  0.0637
13428W        W56481  28.346  11.972  14.521  0.1332  0.0517  0.1759
13429W        W56482   6.263  33.997  27.286 -0.0213 -0.1548  0.1168
13430W        W56483  18.688   8.748   0.525  0.0691 -0.1063  0.0704
13431W        W56484  10.177  26.560  22.958 -0.2649  0.1289 -0.0142
13432W        W56485  17.709   3.751  20.112 -0.3095 -0.0172  0.1590
13433W        W56486   2.434  14.098  16.021  0.1099 -0.1057  0.3110
13434W        W56487  20.637  27.179  24.887 -0.0032 -0.1350  0.3322
13435W        W56488   2.887  33.926  19.925  0.0978  0.2176 -0.2729
13436W        W56489  21.900  11.003  15.211 -0.1313  0.0544 -0.0019
13437W        W56490  28.087  32.013  14.248 -0.0020 -0.2934  0.2529
13438W        W56491   4.131  34.001  23.545 -0.0085  0.1826  0.0242
13439W        W56492   7.454   4.884  20.432 -0.3767 -0.0115  0.0252
13440W        W56493  13.900  23.465   6.447 -0.0547 -0.2475  0.3608
13441W        W56494  12.434  15.397  20.141  0.2732  0.1822 -0.0312
13442W        W56495  24.191   2.157  27.138  0.1276  0.1698  0.2228
13443W        W56496   3.186  27.660  20.775 -0.1378 -0.2684 -0.0883
13444W        W56497   1.268  25.899  18.857  0.1706 -0.0787 -0.4946
13445W        W56498  17.010   1.605  19.763 -0.1417 -0.0059  0.0370
13446W        W56499  25.168  32.076  18.407  0.1475  0.0272  0.0443
13447W        W56500  21.958  30.245  23.068 -0.0884  0.1617  0.2118
13448W        W56501  19.968  32.853  16.599 -0.3584 -0.0231 -0.0279
13449W        W56502  19.442  14.891  14.011  0.0264  0.1336  0.2708
13450W        W56503  29.161   6.721  19.769 -0.0832 -0.0305  0.0110
13451W        W56504  26.721  28.706  23.123  0.2274  0.3177  0.1212
13452W        W56505   8.783   9.643  18.176  0.1702  0.2048  0.2170
13453W        W56506  22.150  33.375  14.593  0.0555  0.1359  0.0036
13454W        W56507  23.509  30.443  17.137  0.0211  0.1656 -0.2390
13455W        W56508  12.738  22.717  15.176 -0.5064  0.1319 -0.1598
13456W        W56509  14.697  32.776  16.185  0.2713  0.1141  0.1129
13457W        W56510  25.729   0.795  22.173 -0.2564 -0.1047 -0.1601
13458W        W56511  30.115   9.233  19.443  0.0944 -0.0974  0.2683
13459W        W56512   5.023  29.390  22.449 -0.0550  0.1450 -0.0602
13460W        W56513   5.823  27.700  15.199  0.0848 -0.1646  0.3502
13461W        W56514  25.433   3.385  15.822 -0.0266 -0.0382 -0.0202
13462W        W56515  26.524  15.567  27.041  0.0412 -0.0972  0.1116
13463W        W56516  12.925   8.124  14.802 -0.0422 -0.0224  0.0631
13464W        W56517  21.483  27.884  27.966  0.1148  0.3161 -0.0126
13465W        W56518  21.573  32.674  13.483 -0.0601  0.0193  0.2495
13466W        W56519  22.844  28.184  22.925 -0.0083  0.0180  0.1010
13467W        W56520  14.778  33.138  21.698  0.4089  0.2366  0.0261
13468W        W56521  18.129  33.292  19.639  0.1254  0.2981 -0.3252
13469W        W56522  25.861   8.219   0.776 -0.0450 -0.1159  0.0238
13470W        W56523  21.448   9.648  27.061  0.2037  0.2545  0.1781
13471W        W56524  12.677  27.714  20.411 -0.0660  0.1841  0.2059
13472W        W56525   2.630  27.317  14.425  0.0967 -0.1093 -0.0762
13473W        W56526  17.811  13.155  13.302 -0.1903 -0.0506  0.1655
13474W        W56527  15.852  32.372  20.262  0.0855  0.0258 -0.0130
13475W        W56528   7.409   8.340  18.010 -0.3521  0.2985  0.0565
13476W        W56529  22.598   5.648  25.370  0.1930 -0.1681  0.0158
13477W        W56530  29.682   3.292   6.111 -0.0729  0.0209 -0.0730
13478W        W56531  27.452  17.566  18.759  0.3570  0.2255 -0.1096
13479W        W56532   1.980   0.239  22.443  0.1529  0.2048  0.0126
13480W        W56533  23.538  25.917  18.864  0.1106  0.0045  0.0509
13481W        W56534  12.634   9.228  16.721 -0.0733  0.0291  0.1674
13482W        W56535  20.061  33.406  16.633  0.1657  0.2299 -0.2361
13483W        W56536  24.931  10.352  15.186 -0.0667  0.0180 -0.2488
13484W        W56537  11.472  33.967  25.939 -0.0341  0.0967  0.0049
13485W        W56538  15.198   4.009  19.345  0.0057 -0.1517 -0.0756
13486W        W56539  10.245  19.440  19.468  0.0243 -0.1369 -0.3116
13487W        W56540   3.984  28.051  17.550  0.2972  0.1318  0.1887
13488W        W56541  26.377   7.378  14.724  0.1518  0.0223 -0.3470
13489W        W56542   6.379  34.479  22.815  0.0809 -0.2122 -0.0965
13490W        W56543  10.121  16.965   7.718  0.1253 -0.4351 -0.0272
13491W        W56544   3.682   0.635  23.107 -0.0685 -0.2789  0.1310
13492W        W56545  31.093  17.425  16.348  0.2049 -0.3529 -0.1176
13493W        W56546  13.204  33.413  26.631  0.2244 -0.2273 -0.0331
13494W        W56547  26.285  25.713  21.890  0.3245 -0.2782 -0.3110
13495W        W56548  19.967   6.205  16.683 -0.1438  0.0025 -0.1265
13496W        W56549  10.789  24.808   1.892  0.1882  0.0694  0.0755
13497W        W56550   1.456   5.174  22.739 -0.0335 -0.2043 -0.1674
13498W        W56551   3.215   0.801  23.185 -0.0627  0.1572  0.0383
13499W        W56552  16.846  33.533  13.922  0.0857 -0.1396  0.1142
13500W        W56553  19.040  10.687  23.858  0.1325  0.1123 -0.1636
13501W        W56554  19.083  17.979  13.981 -0.0461 -0.4214  0.0297
13502W        W56555  22.696   1.356  26.995 -0.1671  0.2286 -0.3397
13503W        W56556  24.039  33.503  17.625 -0.0557 -0.0105 -0.1841
13504W        W56557  14.491   1.593  22.860 -0.4961  0.1270  0.2274
13505W        W56558  21.854  13.125  24.229 -0.0967  0.2810 -0.1352
13506W        W56559  15.962  31.901  26.585 -0.2264 -0.1046 -0.0493
13507W        W56560  17.162   6.641  28.983 -0.0244  0.1767  0.0293
13508W        W56561  11.276   3.373  21.078  0.4605 -0.1812 -0.0349
13509W        W56562  32.542  34.593  21.381 -0.0962 -0.0494 -0.0610
13510W        W56563  19.421   2.360  14.836 -0.2166  0.3661 -0.0165
13511W        W56564  17.786  34.374  20.299  0.3450  0.2614  0.2042
13512W        W56565  18.740  24.087  22.990  0.0570  0.0598  0.5086
13513W        W56566   8.271  17.003  24.093  0.1027  0.1328  0.0758
13514W        W56567   1.064   3.913  13.854 -0.0450  0.1548  0.1115
13515W        W56568  20.419  30.464  24.585  0.0329 -0.1730  0.4547
13516W        W56569  32.420  30.485  19.926 -0.0739  0.0075  0.1139
13517W        W56570  15.678  30.892  20.645  0.0066  0.6070 -0.0555
13518W        W56571  17.421  22.470  15.198  0.0229 -0.1536 -0.0378
13519W        W56572   0.892  29.299  28.041 -0.0090  0.1720  0.0834
13520W        W56573  23.879   0.349  15.777 -0.1045 -0.1934  0.0935
13521W        W56574   8.972  28.171  16.476 -0.0282 -0.2403  0.1761
13522W        W56575   0.364   4.388   3.459  0.1986 -0.2927 -0.0982
13523W        W56576  23.778  26.112  15.347 -0.2818  0.2607  0.0027
13524W        W56577  20.144   8.026  14.506  0.0120 -0.2390  0.1856
13525W        W56578  23.009   4.270  27.584 -0.1123  0.1752  0.0671
13526W        W56579   9.216  31.535   0.975  0.2646  0.3576  0.0775
13527W        W56580  15.338   0.262  14.587  0.1455 -0.3170 -0.0201
13528W        W56581  19.687  29.786  18.656  0.0588  0.5731 -0.2400
13529W        W56582  22.212   9.002  22.251  0.0882 -0.2545  0.0443
13530W        W56583  24.331  18.645  15.352  0.0732 -0.0897  0.3793
13531W        W56584  20.120   5.302  16.814  0.3662 -0.3031 -0.2404
13532W        W56585  26.653   6.492  15.912  0.1658  0.1498  0.1241
13533W        W56586  24.377  29.801  27.528  0.1122  0.0300 -0.2331
13534W        W56587  26.309   9.519  18.656 -0.1744 -0.2778  0.1920
13535W        W56588  18.487   3.741  15.937 -0.0875 -0.0905  0.2333
13536W        W56589  32.724  30.693  17.718  0.0278 -0.0781 -0.3151
13537W        W56590   0.897  25.707  18.564  0.2085  0.0990 -0.3090
13538W        W56591  21.021  34.650   5.910  0.1009 -0.0538  0.1358
13539W        W56592  29.938  27.057  21.585 -0.2029  0.3618  0.0188
13540W        W56593  30.038  30.872  15.821 -0.0275 -0.1675 -0.0626
13541W        W56594  29.885   2.648   3.722  0.0954 -0.1047 -0.1091
13542W        W56595  23.875  30.698   2.644  0.1409  0.0690 -0.0436
13543W        W56596  25.726  31.163  16.026 -0.0601  0.0706  0.1032
13544W        W56597  20.324   2.217  23.462 -0.1554 -0.0946 -0.0229
13545W        W56598  23.672   7.440  17.053 -0.0851  0.1498  0.0049
13546W        W56599  27.800   3.757  26.955 -0.0078  0.1686  0.0994
13547W        W56600  10.891  20.588  17.034  0.1610 -0.4011 -0.0830
13548W        W56601   8.593  17.601  16.684 -0.1724  0.0008  0.0009
13549W        W56602  15.179   0.977  28.238  0.0002  0.1642 -0.1646
13550W        W56603  13.504  25.391  19.648 -0.2944 -0.1223  0.0685
13551W        W56604  30.329  24.845  16.243 -0.2558 -0.0254  0.1228
13552W        W56605  29.739   0.307  16.047  0.1043 -0.0190 -0.3072
13553W        W56606  21.731  27.593   0.480  0.3177  0.3323  0.4475
13554W        W56607  27.850   0.593  14.189 -0.2240  0.1585  0.2783
13555W        W56608  33.463   1.755  21.923  0.2000  0.2874 -0.3391
13556W        W56609  27.496  34.512  23.817 -0.2001  0.3225 -0.1318
13557W        W56610  27.323  33.550  15.306 -0.0051  0.3810  0.1939
13558W        W56611  23.453  34.417  14.701 -0.2025 -0.0341  0.1490
13559W        W56612  25.388  30.886  15.649 -0.3034  0.1572  0.1168
13560W        W56613  17.516   2.904  23.965  0.2550  0.2777 -0.2657
13561W        W56614  13.859   6.531  15.963  0.1548  0.0522 -0.3462
13562W        W56615  16.690  27.585  19.230 -0.2120 -0.5371 -0.2617
13563W        W56616  14.550  17.952  17.140 -0.0592 -0.0752  0.0887
13564W        W56617  22.945  29.732   1.787 -0.0374  0.0866  0.0107
13565W        W56618  23.722  33.423   0.350  0.2240 -0.1773  0.2619
13566W        W56619  13.903  30.081  17.867  0.1052 -0.0450 -0.2579
13567W        W56620  27.783  32.407  14.607 -0.2034  0.1340 -0.1491
13568W        W56621  21.165  24.712  16.860 -0.2864 -0.0093 -0.1642
13569W        W56622  18.593  29.975  16.972 -0.0513  0.1087  0.2126
13570W        W56623  22.064   3.561   7.216  0.0604  0.4077  0.0281
13571W        W56624  24.721  14.655  29.161 -0.2306 -0.2235  0.0619
13572W        W56625  20.127  18.782  13.564 -0.1625 -0.1833 -0.1733
13573W        W56626  12.214   1.505  15.831  0.0469 -0.0407 -0.0800
13574W        W56627  19.509   4.358  19.760 -0.0949  0.3131  0.1130
13575W        W56628  29.473   8.999  23.768  0.0550  0.1195  0.0667
13576W        W56629  20.793   9.927  19.482  0.0905 -0.2650 -0.2759
13577W        W56630  20.720  28.869  25.159  0.2954 -0.0181 -0.3555
13578W        W56631  19.710  33.461  20.574  0.1292 -0.1230 -0.0487
13579W        W56632  25.019  14.848   5.478 -0.2294  0.2704 -0.3329
13580W        W56633  11.440   2.363   9.777 -0.0022  0.1637 -0.0576
13581W        W56634   6.176  11.578   0.404  0.0654  0.0901  0.1818
13582W        W56635  20.070  15.916  14.528  0.1510 -0.1430 -0.2000
13583W        W56636  16.114   0.156   5.179  0.0601  0.1387  0.4384
13584W        W56637  10.017  18.095  23.812  0.0358 -0.0038 -0.0460
13585W        W56638  22.536  25.360  22.653 -0.0452 -0.1638 -0.2703
13586W        W56639   3.104   3.984  23.177  0.1319  0.0795  0.2239
13587W        W56640  10.104  15.356   9.469  0.0730 -0.2166  0.3946
13588W        W56641  19.233  28.560  19.044 -0.1209 -0.2261  0.4327
13589W        W56642  19.935  30.730  26.675 -0.1844  0.0758  0.0771
13590W        W56643  22.576  11.606  20.371  0.0043 -0.4711 -0.2302
13591W        W56644  32.348   4.418  19.172  0.1449 -0.1673  0.0576
13592W        W56645  31.682   7.718  20.947  0.1786 -0.2144 -0.1767
13593W        W56646  19.114  10.275  15.250 -0.1099  0.0014  0.1499
13594W        W56647  29.256  30.794  17.250 -0.1150  0.0894  0.0361
13595W        W56648   4.722   2.568  27.782  0.0346  0.0571 -0.0158
13596W        W56649   5.650   5.616  19.454 -0.2295  0.0849  0.0443
13597W        W56650  29.061   1.880  16.366 -0.0241  0.4613 -0.2152
13598W        W56651  29.536   6.467  19.328 -0.1172 -0.4103  0.0950
13599W        W56652  26.911  15.106  17.505  0.1015  0.0317 -0.2570
13600W        W56653  27.684   1.087   8.081 -0.0327 -0.0789 -0.1421
13601W        W56654  24.075   3.469  26.075  0.0027 -0.0336 -0.0678
13602W        W56655  24.345  15.144  28.918 -0.0071 -0.1141 -0.1655
13603W        W56656   8.783   8.490   3.186 -0.0984 -0.1384 -0.0568
13604W        W56657  23.815   1.430  27.447 -0.0076  0.0151 -0.0793
13605W        W56658  23.200  27.939  15.474 -0.2042  0.1102  0.3355
13606W        W56659  20.279  32.031   0.307  0.3498 -0.0787 -0.3891
13607W        W56660  18.406   0.305  21.479  0.0784  0.0448 -0.0763
13608W        W56661  28.682  34.277  27.262 -0.1391 -0.0751 -0.0334
13609W        W56662  23.315  16.934   8.484 -0.1260  0.4719  0.0386
13610W        W56663  17.619  26.815  22.392 -0.0606 -0.0186 -0.2595
13611W        W56664  12.330  29.432   8.217 -0.0052  0.1785  0.0077
13612W        W56665   1.115  27.093  16.349 -0.1062 -0.0114  0.2030
13613W        W56666  33.513  32.855  23.717 -0.3115  0.0560  0.0949
13614W        W56667  26.673   2.921  20.050 -0.0797  0.0187  0.1121
13615W        W56668  14.717   3.486  23.974 -0.0465  0.2548 -0.1759
13616W        W56669  31.536  29.687  28.558  0.0234 -0.1512  0.0916
13617W        W56670  29.496   8.908   1.915 -0.1113 -0.1578 -0.0601
13618W        W56671  24.524   5.468  23.737  0.0904  0.2574 -0.1341
13619W        W56672  31.326   8.855  24.591 -0.0174 -0.0983 -0.0256
13620W        W56673   8.080  10.943  23.687 -0.1206  0.1982 -0.0228
13621W        W56674  30.004   0.364  28.549 -0.2489 -0.1048 -0.3979
13622W        W56675  20.999  34.341   0.601  0.3466  0.1206 -0.1577
13623W        W56676  16.092  18.331  12.634 -0.3340  0.0471  0.1144
13624W        W56677  15.393   8.499  19.581 -0.3114  0.4132 -0.1518
13625W        W56678  16.205   4.465   2.019 -0.1191  0.2427  0.2213
13626W        W56679  31.346   1.464  24.372  0.1038 -0.0840 -0.1472
13627W        W56680  24.644  21.105  22.155  0.1785  0.1414  0.2579
13628W        W56681   3.507   8.238  17.072  0.1704 -0.0016  0.1602
13629W        W56682  15.281   8.553   3.956 -0.2076  0.2403  0.2033
13630W        W56683  33.115  34.652  25.468  0.0991  0.1737 -0.1294
13631W        W56684  21.219  23.190  17.885  0.1112 -0.2963 -0.1699
13632W        W56685  29.345   2.394  15.627 -0.2997 -0.0430  0.1567
13633W        W56686   5.140  32.991  15.737  0.1198 -0.1414 -0.0393
13634W        W56687   2.118  32.880  17.074 -0.1473  0.0497  0.1353
13635W        W56688  10.655  33.178  29.177 -0.3826 -0.1917  0.0625
13636W        W56689  25.114  25.193  14.275  0.3549 -0.2290 -0.2832
13637W        W56690  18.559   9.931  16.486  0.2817 -0.1218  0.2535
13638W        W56691  34.467  30.339  16.479  0.1033 -0.1111  0.1453
13639W        W56692   2.596  13.398  24.809  0.5418 -0.2985 -0.1955
13640W        W56693  26.621   0.924  20.254  0.0078  0.3044 -0.1753
13641W        W56694  28.511  27.669  15.117  0.1884 -0.2153  0.2114
13642W        W56695  23.803  33.358  18.064  0.2789 -0.0345 -0.0800
13643W        W56696  29.013   3.172  16.324 -0.2568  0.2957  0.1194
13644W        W56697  17.743  34.027   6.974 -0.0829  0.2681 -0.1625
13645W        W56698  29.945   0.164  20.922  0.1282  0.0988 -0.1656
13646W        W56699  24.778  12.539   0.123  0.0165  0.2082  0.2327
13647W        W56700   0.036  32.624  14.421  0.1495 -0.1104 -0.0896
13648W        W56701  19.822   2.780   4.696  0.1418  0.2232 -0.0909
13649W        W56702  12.420  29.362  22.851 -0.1431 -0.0415  0.3189
13650W        W56703  19.108  25.447  15.834  0.1111  0.2636 -0.1256
13651W        W56704  30.880   7.417  14.052 -0.0558 -0.1723  0.0585
13652W        W56705   9.519  31.614  18.337 -0.2415  0.1825  0.0512
13653W        W56706  20.525   5.103  17.574 -0.0489 -0.0551  0.0153
13654W        W56707  19.606   2.448  20.143  0.0346  0.2282 -0.0496
13655W        W56708   3.222   6.083   2.579  0.1776 -0.1878 -0.0259
13656W        W56709  27.484  31.922  14.105 -0.1141  0.2120  0.2917
13657W        W56710  23.928   1.204  28.765 -0.0601  0.0116  0.0306
13658W        W56711  27.810  24.205  15.605 -0.3338 -0.1507  0.0816
13659W        W56712  27.022   4.962  23.197  0.2081 -0.2499 -0.1691
13660W        W56713  32.964  31.251  14.239  0.0062  0.0626 -0.0721
13661W        W56714  22.314  26.338   2.720 -0.4152 -0.1275 -0.0320
13662W        W56715  16.128  32.784  25.821  0.1071 -0.2010 -0.0637
13663W        W56716  24.969  16.953   4.349  0.1382  0.0628 -0.3356
13664W        W56717   7.102   6.814   3.203  0.0210 -0.0234  0.2788
13665W        W56718  12.798  24.368  23.968 -0.0339 -0.2237 -0.0493
13666W        W56719  27.092  22.201  16.697 -0.1535 -0.0702 -0.0310
13667W        W56720  19.899  27.012  23.164 -0.0196  0.1292  0.2267
13668W        W56721  31.832  22.981  14.181  0.1067  0.0553  0.0119
13669W        W56722  31.613   5.220  15.320 -0.1304  0.2637 -0.2652
13670W        W56723  18.857   4.724  28.039  0.0931 -0.2676  0.0246
13671W        W56724  23.332  15.435  27.829  0.0536  0.0974  0.0328
13672W        W56725   4.592  10.111  15.074  0.0507 -0.2329  0.0860
13673W        W56726  20.733  34.336  22.450 -0.3023  0.0953  0.1226
13674W        W56727   5.203  26.471  22.900  0.1422  0.0973  0.0843
13675W        W56728  27.538  26.811  26.544  0.0183 -0.0822 -0.3534
13676W        W56729  33.636  22.491  16.679 -0.2150 -0.0572  0.0618
13677W        W56730   6.705  32.405  14.590 -0.2148 -0.1108  0.4712
13678W        W56731  32.908  15.266  22.600 -0.1069  0.1759 -0.2147
13679W        W56732   1.641   4.158  14.605  0.3173 -0.2251 -0.5099
13680W        W56733  27.424  32.701  15.298  0.1694 -0.2065 -0.2256
13681W        W56734  24.837   1.251  25.763 -0.0414  0.3367 -0.1010
13682W        W56735  10.424  23.601  23.113 -0.0005  0.3019 -0.1153
13683W        W56736  14.826   9.755  20.876  0.0358 -0.2299  0.1101
13684W        W56737  22.412   3.360  14.920  0.2467 -0.2783  0.2483
13685W        W56738  33.943  29.040  14.173  0.0283  0.3570  0.0982
13686W        W56739  14.065  17.807  22.538  0.2763 -0.0858 -0.1665
13687W        W56740  26.434  16.976   0.171  0.1560  0.1421 -0.1167
13688W        W56741  20.478  31.687  18.900  0.1016  0.3230  0.0250
13689W        W56742   9.487  18.170  28.169  0.1984 -0.0277 -0.1483
13690W        W56743  14.328  26.943   4.547 -0.1089 -0.0728 -0.0659
13691W        W56744  33.066   7.982  24.644  0.2879 -0.2676 -0.0100
13692W        W56745  21.462   5.646  17.120  0.2715 -0.0363  0.0064
13693W        W56746  10.703  12.261  16.118  0.1011  0.3339 -0.0477
13694W        W56747  29.652  25.927  21.850 -0.0081 -0.1539 -0.0450
13695W        W56748  33.688   3.177  17.924  0.4485 -0.0633  0.1925
13696W        W56749  26.361   4.984  13.383  0.1100  0.2368 -0.0430
13697W        W56750  21.859  32.692  24.236 -0.1471 -0.2030  0.2673
13698W        W56751   0.563  29.945  16.492  0.0667  0.0523 -0.1865
13699W        W56752  19.118  22.131  24.770 -0.1198 -0.0019  0.3074
13700W        W56753  33.419  19.223  16.611 -0.0252  0.2863 -0.0411
13701W        W56754  25.300  20.816  26.649  0.0658  0.1567  0.1875
13702W        W56755  23.122  24.667  17.404  0.0420  0.0109  0.1888
13703W        W56756   7.499   6.775  20.911  0.0377 -0.2513 -0.1591
13704W        W56757   8.989   7.499  29.129  0.0445  0.1848 -0.1421
13705W        W56758  24.934   6.578  26.315  0.2136 -0.1907 -0.0014
13706W        W56759  24.690   3.853  22.480 -0.1621  0.0612  0.0189
13707W        W56760  26.672  15.059  15.877  0.1403 -0.0070 -0.0896
13708W        W56761  15.613  18.446  16.361  0.3690 -0.3430  0.0228
13709W        W56762   0.094  21.889   4.608  0.0317  0.0288 -0.1459
13710W        W56763  23.217  14.921  24.147 -0.1616  0.1743  0.1098
13711W        W56764   7.820  23.823   2.881  0.2968  0.0680 -0.1901
13712W        W56765  18.457   1.957  19.163 -0.0036 -0.0031 -0.2445
13713W        W56766   2.872   8.550  13.710 -0.2209 -0.2824  0.1722
13714W        W56767   5.552   3.524  13.670  0.3630 -0.1036 -0.0796
13715W        W56768  29.910   6.769   7.311 -0.0679  0.5454  0.0537
13716W        W56769  26.161  28.756  23.764  0.1786  0.1667 -0.0449
13717W        W56770  23.317   3.573   6.368  0.0785  0.0134  0.0385
13718W        W56771  18.486  31.069  23.579 -0.1956  0.1705  0.1085
13719W        W56772   0.078   6.743  23.455 -0.0587  0.2372 -0.1469
13720W        W56773  31.275   4.949  13.803  0.1908  0.1573 -0.0790
13721W        W56774  24.949  31.839   9.324  0.0826 -0.1103 -0.1408
13722W        W56775  12.311  29.341  19.197  0.2351 -0.1190  0.0363
13723W        W56776  28.896  16.515  23.341 -0.3323 -0.1541  0.1681
13724W        W56777  27.743  11.029  21.596 -0.2060 -0.3050 -0.0504
13725W        W56778  22.304   3.447  18.530 -0.1350  0.2532 -0.0522
13726W        W56779   4.417  31.057  21.855  0.1003  0.0701 -0.4531
13727W        W56780  22.163   0.232  22.839 -0.0505 -0.1144 -0.2620
13728W        W56781  24.644   7.960  14.034  0.4864 -0.0128 -0.0164
13729W        W56782  21.983   8.979  20.884 -0.0986 -0.1801  0.1740
13730W        W56783  27.619  28.524  21.096 -0.0423 -0.1473  0.0141
13731W        W56784  26.406  31.465  17.573  0.0601 -0.0285  0.2137
13732W        W56785  26.705   9.561  18.182  0.0112  0.1388  0.2283
13733W        W56786  29.088   0.789  14.372 -0.3569  0.0971  0.0860
13734W        W56787   9.548  28.727  19.686 -0.3507  0.0249  0.2225
13735W        W56788  28.995   0.610  18.911 -0.2888  0.1289 -0.0059
13736W        W56789  30.115  24.260  26.237  0.2481 -0.1144 -0.1227
13737W        W56790  21.450  14.061  13.981  0.4322 -0.1569  0.0752
13738W        W56791  28.123  24.052  19.175  0.3026  0.2215 -0.2195
13739W        W56792  22.181   0.223  19.570 -0.1770  0.3119 -0.1724
13740W        W56793  33.549  27.734  13.528  0.1428  0.1184 -0.2185
13741W        W56794  18.017   2.119  17.165 -0.0635 -0.0049 -0.0149
13742W        W56795  15.282  26.293  26.575  0.3204 -0.0660  0.2496
13743W        W56796  12.673   7.972  24.415  0.1256  0.0154 -0.0421
13744W        W56797  22.831  27.737  15.799 -0.1337 -0.4066 -0.2313
13745W        W56798  31.437  33.464  25.336 -0.3450 -0.1464  0.1390
13746W        W56799  18.189   3.988  22.084  0.0139 -0.1746  0.3400
13747W        W56800   4.648   3.510  26.059 -0.2491  0.1005  0.3653
13748W        W56801  30.100  25.486  14.159  0.3946  0.2351  0.0242
13749W        W56802   6.394  33.055  13.470 -0.3211 -0.1708 -0.0719
13750W        W56803  25.139  11.322  19.896  0.1342 -0.2299  0.2423
13751W        W56804  14.492   5.286  19.229 -0.1239 -0.1300 -0.1520
13752W        W56805   0.185   8.413  18.620 -0.1153  0.1326 -0.2015
13753W        W56806  21.110  16.874  19.058 -0.2777  0.0836  0.3304
13754W        W56807  21.549  16.598  12.703  0.1032  0.2922  0.4371
13755W        W56808  34.644   2.283  21.273 -0.1335  0.0608  0.1408
13756W        W56809  23.894  24.984  22.375 -0.2568  0.3323  0.0295
13757W        W56810  32.719  17.957  29.058  0.0007  0.0956  0.2475
13758W        W56811  19.459   3.345  27.585 -0.2121  0.2335  0.3157
13759W        W56812  20.772  29.889  22.286  0.2763 -0.0028 -0.0446
13760W        W56813  32.076  13.200  13.861 -0.0405 -0.0788  0.0585
13761W        W56814  14.415  29.319  23.415 -0.1082  0.0335 -0.2745
13762W        W56815  23.739  33.220  20.887 -0.1496 -0.2023  0.1782
13763W        W56816   3.441   8.711   4.413  0.1038 -0.3024 -0.0244
13764W        W56817  24.698  33.199  22.620 -0.0053  0.2154  0.1272
13765W        W56818   0.122   8.405  25.214 -0.1446  0.0640  0.2404
13766W        W56819  13.898  23.338  21.758 -0.1506 -0.0257 -0.0793
13767W        W56820  20.652  27.044  15.483 -0.2189  0.1144 -0.1871
13768W        W56821  32.053  20.572   8.883 -0.1999 -0.0997  0.1442
13769W        W56822  30.974  20.886  27.817 -0.0784  0.3788  0.2899
13770W        W56823  21.433  26.914   7.306  0.2026 -0.0400 -0.1811
13771W        W56824  30.677  32.753  28.299 -0.0790 -0.1005  0.1968
13772W        W56825  16.078  26.214  16.675  0.0067 -0.0474  0.1777
13773W        W56826  18.684  30.928  28.284  0.1697 -0.1535 -0.1721
13774W        W56827  31.054   5.786  16.374  0.1026  0.0522 -0.0361
13775W        W56828  29.480   2.308  20.921  0.0504  0.0444 -0.1617
13776W        W56829  25.493  21.438  16.821 -0.1231 -0.1913 -0.1582
13777W        W56830   0.679  28.477   8.227 -0.1636  0.0538  0.2221
13778W        W56831   8.749   2.456   2.583 -0.2247  0.1445  0.2261
13779W        W56832  23.814  33.442  27.878 -0.0628  0.0757  0.1495
13780W        W56833  25.319  27.257  26.329  0.0496 -0.1971  0.0526
13781W        W56834  24.273   2.051  14.656  0.0718  0.0193 -0.1246
13782W        W56835  16.232  25.988  28.529  0.0757 -0.1052  0.0528
13783W        W56836   1.018   6.762  18.737  0.1375 -0.0016  0.2693
13784W        W56837  24.592  34.026  21.563  0.1686  0.1013 -0.2873
13785W        W56838  27.966  33.416  17.782 -0.1475  0.1633 -0.1248
13786W        W56839  22.385  32.982  19.400 -0.1355  0.1659  0.2173
13787W        W56840  14.055   0.315   2.801 -0.0407 -0.3566  0.1025
13788W        W56841  22.590  34.251  22.507 -0.2494 -0.0813 -0.0375
13789W        W56842   0.515   0.165  20.700 -0.3419 -0.2812 -0.0511
13790W        W56843  21.386  10.654   3.476  0.1154  0.1275 -0.1209
13791W        W56844  19.868  29.712  16.149  0.0054 -0.1877  0.0700
13792W        W56845  30.399  31.397  15.274 -0.3160  0.0639  0.1017
13793W        W56846  21.356  24.888  19.087  0.1848  0.0106 -0.0280
13794W        W56847  17.593  28.354  21.111 -0.2460  0.4053 -0.2390
13795W        W56848  24.430  19.284  17.841 -0.1889  0.0356 -0.2474
13796W        W56849  18.363   1.900   0.858  0.0350  0.2337 -0.1132
13797W        W56850  25.130   1.588   0.352  0.1785  0.2090  0.2773
13798W        W56851  20.627   0.475  20.238  0.0639 -0.0769 -0.1248
13799W        W56852  23.524  31.736  21.313  0.0214  0.1446  0.0318
13800W        W56853  27.709  28.986  15.847 -0.2539  0.1820 -0.2167
13801W        W56854  18.269  33.564  15.898  0.0045 -0.0160 -0.0484
13802W        W56855  34.270   7.953  15.854 -0.2073  0.0839 -0.0659
13803W        W56856  17.664  15.160  27.721  0.0617  0.0907 -0.0050
13804W        W56857   5.525   0.533   0.924 -0.2136  0.2067 -0.1080
13805W        W56858   8.202  22.830  23.731 -0.0647  0.4135 -0.2397
13806W        W56859  14.885  31.428  20.471  0.0121 -0.1219  0.2811
13807W        W56860  29.601   8.665  28.447  0.1317  0.0716  0.1240
13808W        W56861  31.157  10.344  23.368  0.0270  0.1085 -0.4074
13809W        W56862   6.139  34.596   3.316 -0.0839  0.1594 -0.0789
13810W        W56863  22.227  34.031  15.594 -0.2447 -0.1705 -0.1615
13811W        W56864  34.658  31.125  27.425 -0.0877 -0.0909  0.1494
13812W        W56865  30.371   7.837  16.486  0.1726 -0.3197 -0.2347
13813W        W56866   9.360   4.058   6.465  0.0269 -0.2105  0.0925
13814W        W56867  27.824  26.906  16.686  0.0903  0.0890 -0.1900
13815W        W56868  21.689   5.325   2.615 -0.1089 -0.1174  0.3885
13816W        W56869  24.953   3.533  14.602 -0.0752  0.2433 -0.5184
13817W        W56870   7.804  33.291  21.922 -0.0134 -0.1910  0.1521
13818W        W56871  21.261  24.289   5.456  0.0934  0.1543 -0.0011
13819W        W56872  29.884  27.190   9.785  0.0561 -0.1070  0.0121
13820W        W56873  32.049  25.607  23.193 -0.0250 -0.0697  0.1039
13821W        W56874   8.659   6.759  22.569  0.2757 -0.0319 -0.1881
13822W        W56875  28.911  19.039  26.068 -0.2129  0.5218 -0.0681
13823W        W56876  13.244  11.453  25.838  0.0997  0.2173 -0.1475
13824W        W56877  19.178  13.428   5.491 -0.1329 -0.0275 -0.1646
13825W        W56878  30.582  26.725  22.396 -0.0208 -0.0922 -0.3280
13826W        W56879  29.006   5.510  24.210 -0.2515  0.0504 -0.0312
13827W        W56880  18.623   3.339   7.186  0.0907  0.0623 -0.0198
13828W        W56881  21.200  30.927  19.905 -0.0817  0.1333 -0.1255
13829W        W56882   9.027  21.644  13.859  0.1564 -0.0775 -0.1356
13830W        W56883  17.870   3.135   7.025  0.0859 -0.0324 -0.1524
13831W        W56884  24.761  33.071  15.601  0.2056  0.0097 -0.0375
13832W        W56885  18.125   5.919  26.440 -0.1379 -0.2507  0.1966
13833W        W56886  13.479   1.303   9.045  0.2594  0.0979 -0.1826
13834W        W56887  26.709   0.330   9.962 -0.0886 -0.0916 -0.2469
13835W        W56888  21.595   2.650   5.360 -0.2027  0.3546  0.0069
13836W        W56889  33.776  31.803  28.875  0.0470 -0.0884  0.1629
13837W        W56890  33.589   5.908  18.466  0.0656 -0.1121 -0.1868
13838W        W56891  16.538  32.514  23.349 -0.1116  0.0153 -0.1302
13839W        W56892  34.201  22.692  20.588 -0.0469 -0.4904 -0.0700
13840W        W56893  17.160   0.222  15.431  0.0639  0.0328 -0.1306
13841W        W56894  17.251  21.057  22.293  0.0226  0.1971  0.1174
13842W        W56895  30.831  29.428  14.721 -0.4509  0.1359 -0.0706
13843W        W56896  23.934  34.321  20.811 -0.2468  0.1400 -0.0382
13844W        W56897  20.304  12.945  25.829  0.2594 -0.5546 -0.1749
13845W        W56898  33.969   0.428  25.082  0.2558 -0.0699  0.1454
13846W        W56899  33.951  26.167  15.088  0.0780 -0.0075 -0.1901
13847W        W56900  26.450  22.246   5.290 -0.1083  0.0706 -0.0408
13848W        W56901  25.893  33.750  22.369 -0.2257  0.0705 -0.1134
13849W        W56902  31.728  28.783   6.931  0.2066 -0.2384  0.0055
13850W        W56903  28.862  33.582  27.352  0.0614 -0.0565  0.0609
13851W        W56904  34.403  11.161  24.523  0.2948  0.0882 -0.2025
13852W        W56905  18.485  13.236   3.367 -0.1735 -0.0282  0.3185
13853W        W56906  22.089  26.056   6.565  0.1080  0.0920 -0.1708
13854W        W56907  17.825   0.714  28.319 -0.0173  0.0201 -0.0057
13855W        W56908  29.381  22.603  28.165 -0.2452 -0.3714  0.0962
13856W        W56909  22.257  23.866   6.825  0.0383  0.2242 -0.1323
13857W        W56910   6.134  11.458  16.258  0.2047 -0.0920  0.1793
13858W        W56911  25.044  22.205  17.407  0.0395 -0.1812 -0.0495
13859W        W56912  25.946  31.880  21.298 -0.0987 -0.1549  0.0699
13860W        W56913   6.157   3.230  15.369  0.2696  0.2514  0.0677
13861W        W56914  15.442  28.351   5.793 -0.0299 -0.1189  0.0034
13862W        W56915   6.635  23.525  15.655  0.2838 -0.1518  0.1144
13863W        W56916  28.232  28.656  18.070  0.2292 -0.0825 -0.2151
13864W        W56917  24.817  33.895  20.021 -0.1379  0.0727 -0.0463
13865W        W56918  13.850  28.958   7.382 -0.1151 -0.0173 -0.1913
13866W        W56919  28.744  28.814  22.605  0.2315  0.1265  0.2456
13867W        W56920  33.838   7.518   2.436  0.2729  0.4299 -0.2366
13868W        W56921  31.876   3.288  28.947 -0.1075 -0.5270 -0.1881
13869W        W56922  29.777  33.180   0.590 -0.0239 -0.3787  0.2239
13870W        W56923  28.904  21.266   8.810 -0.0588 -0.0644 -0.0428
13871W        W56924  18.513   3.062   3.949 -0.0663 -0.0235  0.1484
13872W        W56925   9.428   0.313  25.866  0.5568 -0.0495  0.0582
13873W        W56926  19.659  12.488  15.263  0.0142 -0.1091  0.1223
13874W        W56927  10.728   1.340  18.791  0.0862  0.3253 -0.0515
13875W        W56928  31.439   9.360   9.068 -0.3750  0.0035  0.3663
13876W        W56929  24.239  33.400   7.458  0.0533 -0.2259 -0.0267
13877W        W56930  13.552  33.662  19.733 -0.2998 -0.2377 -0.1854
13878W        W56931  17.771  22.092  15.907 -0.0141 -0.0131 -0.0311
13879W        W56932  21.170   3.249   0.628  0.3462  0.1887  0.3251
13880W        W56933  20.785   4.531  16.937 -0.3423 -0.0530  0.3103
13881W        W56934   0.931  29.127   3.373 -0.1385  0.0286 -0.4168
13882W        W56935  28.698  29.244  20.468  0.0444  0.0835 -0.2231
13883W        W56936  31.794  34.305  27.194 -0.1078  0.0428 -0.0472
13884W        W56937  20.940   1.362  17.430  0.2225 -0.4856 -0.1554
13885W        W56938   0.476  26.782  18.189  0.1208  0.0088  0.1669
13886W        W56939  30.884  29.467  21.049  0.1720  0.0470 -0.5124
13887W        W56940   8.398  11.754   1.836  0.1642 -0.0321  0.3876
13888W        W56941  33.211   9.264  14.997 -0.4542 -0.1517  0.0751
13889W        W56942  25.300  19.459  24.598 -0.1463 -0.1847  0.0551
13890W        W56943  31.554   7.313   0.137 -0.0423 -0.1485 -0.0298
13891W        W56944   0.741   5.798  20.166  0.0331 -0.0474  0.1890
13892W        W56945   2.604   1.333  27.939  0.0216 -0.3499  0.1103
13893W        W56946  12.406  27.970   2.931 -0.0651 -0.3073 -0.1075
13894W        W56947  19.457  30.059   6.893 -0.1021 -0.0476 -0.1571
13895W        W56948  32.053  29.014  23.771  0.0970 -0.1941  0.0131
13896W        W56949  17.952  25.289   9.196  0.3903 -0.4851 -0.0392
13897W        W56950  32.523  23.106  20.164 -0.0436  0.0974  0.2459
13898W        W56951  10.162   1.811  22.063  0.1061  0.0269  0.0948
13899W        W56952   0.609   4.969  19.869 -0.0243 -0.1079 -0.2963
13900W        W56953  34.654   8.956  18.418 -0.1042 -0.1490 -0.0400
13901W        W56954  18.698  28.703   2.807 -0.0313  0.1000 -0.1213
13902W        W56955   4.729  31.577  20.586  0.1849  0.1515  0.3038
13903W        W56956  26.494  24.092  16.404 -0.0509 -0.0194 -0.1537
13904W        W56957   0.154   7.617  21.539 -0.1789 -0.0783 -0.1097
13905W        W56958   7.980  33.423  18.850  0.1196  0.0048  0.0599
13906W        W56959  24.631   1.076  26.378  0.3351 -0.1088 -0.2703
13907W        W56960  13.561  31.302  19.893 -0.2672  0.1401 -0.1749
13908W        W56961  34.004  19.923  19.049  0.4252  0.1847 -0.1496
13909W        W56962  27.151   0.115   0.337 -0.2629  0.0800  0.0979
13910W        W56963   6.016  26.991  13.679  0.1440 -0.0656 -0.0647
13911W        W56964   0.648  27.893  19.530 -0.1328 -0.3871  0.1449
13912W        W56965   0.487   0.348  28.463  0.0511 -0.2614  0.0047
13913W        W56966   8.925  11.401  19.873  0.0707  0.0982 -0.0120
13914W        W56967  24.782  29.093  19.779 -0.0721 -0.2700 -0.2235
13915W        W56968   1.803   7.984  24.128 -0.0998 -0.3508 -0.0334
13916W        W56969  17.382  28.934  22.786  0.0277 -0.1990  0.1318
13917W        W56970  27.399  11.935  15.058 -0.2266  0.2542 -0.0694
13918W        W56971  15.477  26.583   9.553 -0.2528 -0.2060 -0.2330
13919W        W56972  29.986  10.545  17.537  0.1543  0.0060  0.1843
13920W        W56973  15.991  33.945   4.852 -0.1642  0.2463  0.1515
13921W        W56974  28.045   9.641  19.847 -0.0026  0.1418  0.0340
13922W        W56975  31.870   2.223  22.606  0.0409 -0.2921  0.0985
13923W        W56976  28.769   1.740  17.304  0.0705  0.1979 -0.5090
13924W        W56977   0.325  26.341  21.404 -0.0387 -0.1256 -0.0629
13925W        W56978  22.234   2.902  18.417  0.2683  0.1306  0.0576
13926W        W56979  34.676  25.842   0.626 -0.0726  0.1479 -0.3603
13927W        W56980   9.186  15.480  17.991  0.0991 -0.2662 -0.4165
13928W        W56981  16.757  26.498   6.335 -0.0575  0.1882  0.1140
13929W        W56982  18.215   8.004  28.167 -0.3553 -0.3445  0.0289
13930W        W56983  29.331  29.949  28.269  0.1471 -0.2236 -0.3076
13931W        W56984   2.876  12.186  15.002 -0.0161  0.3549 -0.0199
13932W        W56985  19.180  30.014  14.907 -0.1407  0.0348  0.0902
13933W        W56986  30.656   8.803  20.642 -0.4248 -0.1771  0.0447
13934W        W56987  12.235  33.962  22.374 -0.0346 -0.0795  0.0083
13935W        W56988  26.060   1.830  22.271 -0.0112  0.0836  0.1714
13936W        W56989   5.135  12.670  21.446  0.2592  0.3077  0.2876
13937W        W56990  19.070  30.691   7.466 -0.2672  0.2320  0.1883
13938W        W56991  19.485   3.779  21.946 -0.2160  0.2863 -0.1378
13939W        W56992  27.246   4.543  17.579 -0.2360  0.2067 -0.1090
13940W        W56993  29.808  15.913  18.177  0.0544 -0.0238 -0.0291
13941W        W56994  32.809  20.441  28.504 -0.3767 -0.2805  0.0811
13942W        W56995  16.821   4.099  15.104  0.1680 -0.0439 -0.0433
13943W        W56996   6.018  10.611  17.536 -0.0308 -0.2023 -0.1514
13944W        W56997   2.358   0.012  15.208  0.0249  0.2504  0.0373
13945W        W56998  16.036  32.638  18.585  0.1262 -0.1337  0.0764
13946W        W56999   9.567  13.545  28.343 -0.1074  0.1197  0.1274
13947W        W57000   2.324  33.955  18.155 -0.0060  0.2534 -0.0620
13948W        W57001  30.566  12.163  16.300  0.1065  0.0378  0.4424
13949W        W57002  22.353   8.109  24.727  0.3108 -0.1781 -0.0380
13950W        W57003   8.941  21.322  15.584 -0.0937  0.0148  0.1314
13951W        W57004  25.693  11.508  19.220 -0.1333  0.4428  0.1750
13952W        W57005  30.305  24.976  15.405  0.0910  0.1555 -0.3112
13953W        W57006  21.665   3.352  21.886  0.2568 -0.0134  0.1565
13954W        W57007   8.351  20.498  26.319 -0.0739  0.1586  0.2844
13955W        W57008  33.093  31.040  16.496  0.0548  0.2063  0.0561
13956W        W57009  29.145  12.426  18.548 -0.0168  0.2355 -0.0285
13957W        W57010  28.875  33.899  18.594 -0.0266 -0.2674  0.1162
13958W        W57011  15.717  33.656  27.567 -0.0169 -0.1829  0.0808
13959W        W57012  18.271  16.330  12.768  0.3165  0.2464 -0.0942
13960W        W57013  29.548   6.992  20.963 -0.0911 -0.0821  0.0656
13961W        W57014   1.117  21.549  28.079 -0.0519  0.0013 -0.0602
13962W        W57015  23.549   5.256   9.323 -0.4090  0.1175  0.3306
13963W        W57016   4.010  33.729   7.278  0.1276 -0.2224  0.1408
13964W        W57017  28.690   1.865  24.147  0.1997 -0.1577 -0.2951
13965W        W57018   0.424   6.801  17.247 -0.1216  0.2283 -0.1048
13966W        W57019  23.265   2.515  26.954  0.1689 -0.1935  0.2618
13967W        W57020  21.145  23.468  28.538 -0.0539  0.0490 -0.1287
13968W        W57021  26.794  15.422  22.226  0.2511  0.1800 -0.1326
13969W        W57022   6.901  29.651  19.606  0.0919  0.0245  0.0469
13970W        W57023  11.320   2.688  26.249 -0.0674 -0.0603 -0.0537
13971W        W57024  29.846  27.506  24.056  0.1785  0.0143 -0.0156
13972W        W57025  24.503  31.192   2.860 -0.0652  0.0655 -0.2648
13973W        W57026  25.445  21.011  16.596 -0.3493 -0.0138 -0.2132
13974W        W57027  18.152  30.949  20.224 -0.0755 -0.1245  0.2904
13975W        W57028  14.873   4.238  23.820  0.2045  0.1693 -0.2226
13976W        W57029  25.434   7.524   6.079  0.1129 -0.2438 -0.1019
13977W        W57030  28.169   3.857  22.704 -0.0734 -0.1335  0.1642
13978W        W57031  23.199  25.890  19.724 -0.1649  0.1072  0.1354
13979W        W57032  31.347   3.794  21.662  0.1067 -0.1411  0.0558
13980W        W57033  26.120  10.763  18.909 -0.0154  0.1366  0.0682
13981W        W57034  15.276  33.879   3.898  0.1244  0.0762  0.3562
13982W        W57035  30.184   5.230  21.519  0.1871  0.0510 -0.3046
13983W        W57036  23.527   0.430  16.660 -0.2460  0.1386 -0.3107
13984W        W57037  13.247  31.666   0.595 -0.1371  0.4375 -0.1928
13985W        W57038  31.252   6.912  15.604  0.0970 -0.0986 -0.2647
13986W        W57039  24.296   7.437   3.760 -0.1256  0.0024 -0.0147
13987W        W57040   2.832  15.487  23.064 -0.1013  0.1629  0.2516
13988W        W57041  33.881  11.445  10.407 -0.0842  0.2733 -0.1318
13989W        W57042  16.763  11.230  26.626  0.2802  0.0379 -0.1494
13990W        W57043  26.572   0.461  22.275 -0.2256 -0.3401  0.1538
13991W        W57044  27.035  33.665  19.654 -0.0529  0.1273  0.1333
13992W        W57045  25.485   7.851  25.981 -0.2615 -0.0663  0.2480
13993W        W57046  33.639   6.650  29.140 -0.3674 -0.0559  0.2632
13994W        W57047  30.105  17.023  19.012  0.1859  0.1981 -0.0198
13995W        W57048  18.904  26.111  17.298  0.0781 -0.1728  0.4231
13996W        W57049  29.171  27.795   0.002 -0.0263  0.1424 -0.2612
13997W        W57050  21.582  12.018  25.153 -0.0774 -0.0370  0.0658
13998W        W57051  29.348  29.340  22.914  0.0024  0.1490  0.2077
13999W        W57052  16.236   4.455   6.753  0.1935  0.2162 -0.0661
14000W        W57053  21.901   4.948  13.989  0.3169  0.2786  0.2718
14001W        W57054  17.180  33.987  26.078 -0.0992  0.1753 -0.0844
14002W        W57055  10.421  12.924  20.891  0.1091 -0.0136  0.3171
14003W        W57056  21.958  17.712  15.418  0.0236  0.0060 -0.2063
14004W        W57057  14.147   5.589  18.177  0.0868 -0.4604 -0.0399
14005W        W57058  21.533  18.569   0.062  0.1631  0.0307 -0.0964
14006W        W57059  21.020  12.332  22.995 -0.2970 -0.0406  0.2162
14007W        W57060  14.892   9.891  14.835  0.1752 -0.0017 -0.0729
14008W        W57061  15.505  15.376   3.616 -0.1582  0.1242 -0.0793
14009W        W57062  16.669  32.722   3.207 -0.1316  0.0910 -0.0124
14010W        W57063  13.443   0.820  17.624 -0.1396 -0.0922  0.1058
14011W        W57064   7.465  23.371  15.322  0.0614 -0.2508  0.1192
14012W        W57065  22.667  29.099   4.446  0.0511 -0.1467  0.0394
14013W        W57066   6.445  22.419  16.752 -0.1807  0.1383  0.0218
14014W        W57067  28.279  33.724  19.710  0.0840  0.1236 -0.1965
14015W        W57068  18.401   3.199  24.436 -0.1766  0.1785  0.1282
14016W        W57069  27.373   2.029  23.602 -0.2003 -0.0915  0.1102
14017W        W57070  26.085   2.762  13.939  0.0104 -0.0487  0.1083
14018W        W57071  29.562  27.248  24.414 -0.0101 -0.2087 -0.2960
14019W        W57072  24.108   8.614  26.015  0.0020 -0.0150  0.4563
14020W        W57073  12.580  31.505  19.246 -0.3342 -0.1603 -0.1188
14021W        W57074  26.913   0.287   1.407  0.0265 -0.0669  0.1491
14022W        W57075  23.209  31.190  17.463 -0.0437  0.1286 -0.0333
14023W        W57076  30.906   7.786  26.418 -0.4113 -0.0244  0.4166
14024W        W57077  17.909   2.205  22.213 -0.1423 -0.2105  0.0745
14025W        W57078  15.387  31.131  19.672 -0.0574  0.0862  0.0640
14026W        W57079  20.966  33.543   4.528 -0.1579  0.3026  0.0830
14027W        W57080  20.480  16.165  21.237  0.0400  0.7562 -0.0584
14028W        W57081   0.065  27.556  14.094 -0.1507 -0.1919 -0.0668
14029W        W57082  28.837  34.455   0.869 -0.0089 -0.0992  0.0154
14030W        W57083  11.199  25.716   3.623 -0.1886  0.2753 -0.1818
14031W        W57084  13.301  27.631   5.126  0.1315 -0.0500  0.3761
14032W        W57085   8.198  23.619   8.260 -0.0732  0.0566 -0.0555
14033W        W57086  21.478  29.289  27.790 -0.0887 -0.0536  0.2874
14034W        W57087  17.864  28.509   6.350  0.0444 -0.2357 -0.1475
14035W        W57088  18.251   7.587  19.751  0.1655  0.0636  0.2286
14036W        W57089  21.477   1.157  26.633 -0.1692  0.0739 -0.0597
14037W        W57090  26.959   0.738   9.986 -0.0736 -0.1956 -0.1562
14038W        W57091   9.901  34.105  18.813 -0.1911  0.1001  0.1868
14039W        W57092  20.927  28.070  20.081  0.0608  0.0083  0.0427
14040W        W57093  28.302   9.470   4.905 -0.0467  0.3111  0.2542
14041W        W57094  28.958  32.289  18.787 -0.1375  0.3218 -0.0307
14042W        W57095  17.348  29.832  16.070  0.1106  0.0629  0.0651
14043W        W57096  27.197   5.069  28.514 -0.0511 -0.2964 -0.1868
14044W        W57097  21.988  20.893  25.843 -0.2632  0.0893 -0.2500
14045W        W57098   3.087  27.649   6.494 -0.3415 -0.1627  0.0949
14046W        W57099  16.452   9.720   5.000  0.0787  0.1952 -0.4055
14047W        W57100  14.426  34.008  10.324 -0.1387 -0.0059 -0.1186
14048W        W57101  20.648  34.469  22.927 -0.4094  0.2693 -0.0450
14049W        W57102  12.839   1.264   1.308 -0.1056  0.0401 -0.2433
14050W        W57103  30.379   8.008   6.973 -0.1112  0.0214 -0.0251
14051W        W57104  27.797  19.802  27.185  0.0290  0.0594  0.0104
14052W        W57105  29.223  29.488  28.448  0.0377 -0.0513 -0.1000
14053W        W57106  19.510  30.472  24.687 -0.1872  0.0932  0.2607
14054W        W57107   0.240  18.606   5.658  0.1194  0.1426 -0.1698
14055W        W57108   4.504   2.364  16.376 -0.4092  0.0619 -0.0304
14056W        W57109  29.105  24.097  16.180 -0.2225 -0.0620  0.0538
14057W        W57110  33.884  30.725   1.010 -0.1089  0.2336  0.1218
14058W        W57111  22.661  15.664  23.168  0.0224 -0.0900 -0.0130
14059W        W57112  20.530  22.565   2.591  0.2209 -0.1319  0.3282
14060W        W57113  12.828  27.596   3.786  0.2086 -0.0167  0.1250
14061W        W57114  13.568  28.694  25.363 -0.2558  0.2124 -0.0903
14062W        W57115  31.089  22.687   4.952 -0.0767  0.3189 -0.0724
14063W        W57116  30.188  33.116  19.016 -0.0583 -0.2474 -0.0480
14064W        W57117  29.879  18.461  13.728  0.0717 -0.1235  0.2997
14065W        W57118   8.677  15.356  19.645 -0.0910  0.1635 -0.2379
14066W        W57119  20.878  24.500  16.409 -0.0546 -0.0507  0.2246
14067W        W57120  12.927  23.526  15.713 -0.1356  0.3916 -0.0327
14068W        W57121  22.935  11.042  25.586  0.2042  0.1401  0.0463
14069W        W57122  27.090  18.469  20.510  0.0207  0.1384  0.4057
14070W        W57123  32.504   3.676   4.205 -0.0427  0.1148 -0.1601
14071W        W57124  15.343  32.247  22.082  0.0172  0.0904 -0.0935
14072W        W57125  21.595  21.467  20.181  0.1301  0.3073  0.2422
14073W        W57126  29.124   0.245   5.524 -0.2331  0.0910  0.1307
14074W        W57127  20.057  28.903   7.088  0.2566  0.0002  0.0485
14075W        W57128   2.643  31.779  22.150 -0.1932 -0.0216  0.4712
14076W        W57129   9.062   1.967  28.304 -0.4051 -0.2742 -0.0143
14077W        W57130   1.398   8.228  25.153 -0.2693 -0.1401  0.0336
14078W        W57131  18.714   0.989   4.414 -0.0756  0.1315  0.2476
14079W        W57132  12.468   1.090   0.907 -0.0707 -0.0598 -0.1650
14080W        W57133  25.370   0.499  19.100  0.2335  0.2498 -0.0546
14081W        W57134  17.479   7.205  16.370  0.2089  0.0888  0.2853
14082W        W57135  27.018  11.287  17.806  0.0147  0.0399 -0.0094
14083W        W57136  13.028  33.254  16.401 -0.0314 -0.1891  0.2750
14084W        W57137   6.679  20.960  13.611 -0.0244  0.1515  0.0885
14085W        W57138   2.328  33.005   7.690  0.0893  0.1649  0.3083
14086W        W57139  18.319  16.352  13.816  0.2601 -0.1948  0.2674
14087W        W57140  20.177  27.855  28.785  0.4630  0.2312 -0.2099
14088W        W57141  30.458  26.958   0.916 -0.1159  0.0749 -0.3123
14089W        W57142  21.989   2.714   4.857  0.1388 -0.0474 -0.5739
14090W        W57143  14.222  30.363  23.523  0.1831 -0.2649  0.1432
14091W        W57144  19.623   7.369  23.472 -0.0974  0.0049 -0.2220
14092W        W57145  33.478  14.041   9.921  0.2000  0.0684 -0.1400
14093W        W57146  20.339   1.738   1.754 -0.2231  0.2137  0.0900
14094W        W57147  30.634  32.604   8.259  0.1816  0.0836  0.0122
14095W        W57148  19.766  21.409  17.088  0.0521 -0.2395  0.0498
14096W        W57149  32.441   2.590  28.096  0.0388 -0.1630  0.1518
14097W        W57150  18.482  27.492   7.026 -0.2537  0.0835 -0.0465
14098W        W57151  31.642  17.844  24.893 -0.0509  0.2895  0.1544
14099W        W57152  29.292  33.505  15.350 -0.0148  0.0825  0.1310
14100W        W57153  32.618   2.942   5.160 -0.2318  0.1237 -0.0190
14101W        W57154  14.304  26.888  22.962  0.1998  0.1453  0.0003
14102W        W57155  28.787  33.616  18.207  0.0824  0.1782  0.1313
14103W        W57156  21.198  34.534  22.028 -0.3413  0.1891  0.0524
14104W        W57157  17.627  31.340  17.732  0.1079 -0.0650  0.0501
14105W        W57158  32.041   5.719  23.562 -0.3573  0.0150 -0.2072
14106W        W57159  31.047  24.880   6.953  0.0791 -0.1032  0.1838
14107W        W57160   9.355   8.880  11.066  0.2872 -0.1324 -0.1050
14108W        W57161  23.910  29.811  19.727  0.0506 -0.1145  0.0659
14109W        W57162  21.376  23.589   1.861  0.2698 -0.1723 -0.1851
14110W        W57163  31.921  31.917   0.192 -0.3644  0.1680 -0.0840
14111W        W57164  13.842   5.652  18.531  0.2717 -0.2613  0.1649
14112W        W57165  29.917  21.623  26.213 -0.3768  0.0282 -0.1249
14113W        W57166  16.144   3.312  20.297 -0.1142 -0.3264  0.1455
14114W        W57167  17.614   2.382  18.782 -0.1186  0.1740  0.1752
14115W        W57168  11.015   5.526   1.402 -0.3453 -0.2467 -0.0285
14116W        W57169   1.827  20.751  27.998 -0.1656 -0.0590  0.2229
14117W        W57170  14.064  24.308  14.842  0.2548 -0.2659 -0.2199
14118W        W57171  33.287  32.662  10.009  0.1438  0.3681 -0.2070
14119W        W57172  12.454   8.634  16.221  0.0293  0.2454  0.0534
14120W        W57173   8.945   7.552  27.537  0.1178 -0.0784  0.0993
14121W        W57174  17.366  27.215  24.692 -0.1254  0.0469 -0.2332
14122W        W57175  14.580   9.481   7.185  0.0077 -0.2560 -0.1335
14123W        W57176  31.073  29.094   0.329  0.0869 -0.5042 -0.0126
14124W        W57177  14.726  22.220  25.371  0.1403  0.2436  0.2851
14125W        W57178  25.054  31.700  23.892  0.2638  0.0204  0.0334
14126W        W57179  24.894  33.758   1.520  0.1356  0.0379  0.2728
14127W        W57180  14.208  30.486   0.973  0.2411  0.3795 -0.0399
14128W        W57181  14.692   0.431  27.194  0.1151 -0.0541  0.1726
14129W        W57182  21.221  22.256  16.700 -0.1157  0.0609 -0.0528
14130W        W57183  26.482   6.798   1.024  0.2124 -0.1180 -0.2845
14131W        W57184  22.249   3.711  21.854 -0.1058 -0.0336 -0.0559
14132W        W57185   6.997   0.088   8.177  0.0168  0.2454 -0.0089
14133W        W57186  22.361   6.406  18.908  0.2322 -0.0996 -0.2886
14134W        W57187  29.120  29.515   6.622  0.0691  0.0012 -0.0300
14135W        W57188  22.976   1.905  20.606 -0.0713  0.0440 -0.2110
14136W        W57189  28.242   1.154  24.969  0.0474  0.1439 -0.0923
14137W        W57190   9.599   1.022  26.118  0.1667  0.1745 -0.6326
14138W        W57191  25.570  28.283  27.343 -0.4586  0.0553  0.0055
14139W        W57192  21.664   1.574   0.236 -0.2009  0.1751 -0.0202
14140W        W57193   2.972  32.313   2.480  0.0590  0.0120 -0.2972
14141W        W57194  16.567  28.875  19.781  0.3348 -0.1533 -0.4911
14142W        W57195  30.416   2.042  24.600  0.1859  0.1457  0.2685
14143W        W57196  13.172  20.893  22.315  0.0724 -0.1993  0.0868
14144W        W57197  17.788  10.854  23.362 -0.1417  0.0981  0.2086
14145W        W57198  26.463   6.487   2.820  0.0933 -0.0880 -0.1738
14146W        W57199  14.533  11.662   3.566 -0.1999 -0.1391 -0.1287
14147W        W57200  18.734   2.166  23.779 -0.0108  0.0182  0.2605
14148W        W57201  14.585   0.317   1.084  0.1729  0.0124  0.5104
14149W        W57202  29.733   6.705  27.851 -0.0487 -0.0623  0.1703
14150W        W57203  10.453  33.938  26.659 -0.0449  0.1908  0.0309
14151W        W57204  13.339   5.517  23.749 -0.0623 -0.0920 -0.3054
14152W        W57205  27.475   5.878   6.389 -0.3656  0.0999  0.3432
14153W        W57206  21.735  28.624   6.495  0.3505 -0.4068  0.0744
14154W        W57207  27.246  29.218   6.878 -0.1014  0.3017 -0.0273
14155W        W57208  19.318   1.490  21.337  0.1009 -0.0663 -0.2046
14156W        W57209  19.930   0.285  24.251 -0.4113 -0.1919 -0.1924
14157W        W57210  24.068  17.657  19.390  0.0101  0.1882  0.3079
14158W        W57211  27.153  29.053  10.657  0.2685 -0.0610  0.1758
14159W        W57212  25.567   1.126  19.061  0.0534 -0.0592 -0.2070
14160W        W57213  16.011  21.750  27.749 -0.2418 -0.2097  0.0195
14161W        W57214  30.590   5.650  16.162 -0.1730  0.0421 -0.0572
14162W        W57215  32.392   5.869  20.537 -0.1158  0.0191  0.0109
14163W        W57216  19.073   0.844   3.292  0.1243 -0.1282  0.0133
14164W        W57217  27.707   7.239  22.919  0.1227  0.0939 -0.1559
14165W        W57218  19.895  31.863   9.800 -0.0839  0.2880  0.0306
14166W        W57219  17.268  26.768  24.842  0.0411  0.1111 -0.0242
14167W        W57220  25.224  22.651   2.312 -0.0290 -0.2534  0.0005
14168W        W57221  30.146  31.420  18.558  0.2226  0.1542 -0.1144
14169W        W57222  32.963  11.552  18.373 -0.3592  0.2453  0.0491
14170W        W57223  21.466   3.481   8.711 -0.2288 -0.4377 -0.0995
14171W        W57224  30.534  29.966   0.570 -0.0643 -0.2693 -0.5374
14172W        W57225  13.468  34.527   1.409  0.2225  0.4710 -0.1859
14173W        W57226  33.777  19.242  17.967  0.0351 -0.2100 -0.3245
14174W        W57227  32.388  34.406  28.059 -0.1970 -0.0905 -0.0194
14175W        W57228  26.478  15.275   5.005  0.1346  0.3706 -0.2322
14176W        W57229  30.890  31.395   2.648 -0.0788 -0.2616  0.2037
14177W        W57230  24.745  26.365  25.167 -0.1054 -0.1702  0.2196
14178W        W57231  32.816  13.690   7.609 -0.0694 -0.0363  0.0411
14179W        W57232  26.573   3.761  28.903 -0.3104  0.3383  0.1466
14180W        W57233  32.709  30.165   9.667 -0.0115 -0.0905  0.0736
14181W        W57234  28.607  13.704  16.993  0.2279  0.1460 -0.0194
14182W        W57235   3.118  30.962  14.231  0.0871  0.1592  0.0725
14183W        W57236  12.758  17.609  18.408 -0.1077  0.1549  0.0243
14184W        W57237  25.670  17.791   8.269 -0.0986  0.3000 -0.0733
14185W        W57238  17.173  31.388  23.908  0.0142  0.0287 -0.0981
14186W        W57239  19.746  24.972  22.243 -0.0437  0.0482 -0.0852
14187W        W57240  28.383  15.701   6.778  0.3580  0.2894 -0.0050
14188W        W57241   6.184   3.859  24.514  0.1141  0.1309  0.3371
14189W        W57242   5.306  27.187  19.217 -0.3953  0.1765  0.1444
14190W        W57243  31.478  24.258  25.204 -0.0494 -0.1261 -0.1223
14191W        W57244  21.825  28.948  16.995 -0.1410  0.2315  0.0950
14192W        W57245  12.387   3.475   8.855 -0.2715 -0.1326  0.1143
14193W        W57246  15.084  22.588  18.317  0.0774  0.0335  0.0592
14194W        W57247  16.722  13.190  21.043  0.3529 -0.0479 -0.2277
14195W        W57248  25.897  11.139  14.174 -0.3334 -0.1559  0.1134
14196W        W57249  27.973   2.285   2.535  0.1477 -0.0790  0.1737
14197W        W57250   7.724  33.059  19.852  0.2079  0.2525  0.0887
14198W        W57251  21.703  18.462  20.317  0.2550  0.0734 -0.1649
14199W        W57252  23.331  24.597  23.317 -0.1013  0.0562  0.2726
14200W        W57253  23.224   3.808  19.028  0.3155 -0.0330  0.0304
14201W        W57254  29.441  22.754  19.269  0.1925  0.1897 -0.1512
14202W        W57255   6.747  24.905   3.493  0.0290 -0.3728  0.0022
14203W        W57256   8.407  22.677  14.504 -0.2204  0.1525  0.1677
14204W        W57257  21.549  15.575  21.938 -0.4883 -0.1522 -0.1272
14205W        W57258  16.770  26.184   1.281  0.2650 -0.1045  0.1136
14206W        W57259  21.553   8.188   0.985 -0.2929  0.0527 -0.2394
14207W        W57260  14.917   2.399  22.942 -0.0538  0.1798 -0.1902
14208W        W57261  29.578  30.339   0.931 -0.1565 -0.1049  0.1570
14209W        W57262  13.971  18.880   4.200  0.1359  0.2759  0.0871
14210W        W57263  24.185   4.416  17.465 -0.0670  0.0443 -0.3409
14211W        W57264  20.180  25.193  20.101  0.0398  0.2012  0.1717
14212W        W57265   0.289   6.590   0.035 -0.1323 -0.1331 -0.1421
14213W        W57266  13.138   9.691  15.523 -0.1573  0.0358 -0.2175
14214W        W57267  31.505   7.155  28.839  0.2111  0.0827  0.2608
14215W        W57268   3.289  32.659  28.318  0.0955 -0.1699 -0.0203
14216W        W57269  31.019  25.590  18.414 -0.1780 -0.2666 -0.0513
14217W        W57270  11.181  30.603  18.912 -0.0164  0.0844  0.0452
14218W        W57271  31.770   0.319  19.400 -0.2200  0.0025 -0.0847
14219W        W57272  14.880  20.928   0.189  0.1630  0.0329 -0.2059
14220W        W57273   9.839  27.151   3.622  0.2346  0.1283 -0.3168
14221W        W57274  20.774  10.012   6.095 -0.3260  0.0750  0.0145
14222W        W57275  32.079  33.474   5.579 -0.2848  0.0999 -0.1809
14223W        W57276  25.365   6.616  18.646 -0.2499 -0.1241  0.2038
14224W        W57277  25.908   8.148  24.293  0.1091 -0.1090 -0.1337
14225W        W57278  13.703  19.335  22.711  0.0335  0.1551 -0.4290
14226W        W57279   0.512  25.039   8.147  0.2596  0.1680 -0.0476
14227W        W57280  20.528  18.343  24.989  0.1673 -0.0242  0.1836
14228W        W57281  24.092   0.176  25.103 -0.0810  0.1806  0.2543
14229W        W57282  17.612  13.212  16.583  0.0557 -0.1039 -0.0642
14230W        W57283  10.332   8.507   6.034 -0.0301 -0.0423  0.5723
14231W        W57284  29.669  30.789  20.894  0.0476  0.0630  0.0591
14232W        W57285  10.481  30.974   1.519 -0.0705  0.0153  0.0116
14233W        W57286  31.023   4.242  28.834  0.0028 -0.1924 -0.1980
14234W        W57287   8.056  25.328   3.868 -0.0126  0.4578  0.0799
14235W        W57288  28.221  21.726   6.009 -0.1613 -0.1620  0.0450
14236W        W57289  23.849  28.911  27.809  0.1501  0.2540 -0.2731
14237W        W57290  19.144   1.338  26.470 -0.0091  0.0663  0.2615
14238W        W57291  20.427  17.993   8.201  0.2081  0.0693 -0.1288
14239W        W57292  28.005  32.584  23.117  0.2830 -0.0384 -0.3601
14240W        W57293  23.020  32.838  25.020 -0.1579 -0.0135 -0.2636
14241W        W57294  26.921  30.279  24.235  0.0837 -0.0703 -0.1383
14242W        W57295  23.890   0.573  21.925  0.2068  0.0808  0.1428
14243W        W57296  23.482   7.948  20.281  0.1473  0.2516  0.3589
14244W        W57297  31.953  24.432   2.644 -0.0777  0.0644 -0.1077
14245W        W57298  20.337  31.769  23.125  0.0869  0.1103 -0.0933
14246W        W57299  22.122  29.811   0.138 -0.0353  0.3152  0.3704
14247W        W57300   6.322   2.198  10.833 -0.0274  0.0096  0.2481
14248W        W57301   8.296  29.301   5.443 -0.1110 -0.3314  0.0552
14249W        W57302  26.540  10.182  26.996  0.1406 -0.1127 -0.0569
14250W        W57303  24.248   9.107   6.581 -0.2831 -0.0138 -0.0968
14251W        W57304   2.143  25.931   9.351 -0.4740 -0.1860  0.0503
14252W        W57305  21.181   8.534  20.761  0.2186 -0.3837 -0.2623
14253W        W57306  20.030   9.952   1.259  0.4134  0.1821  0.1246
14254W        W57307  21.868   1.288  21.932 -0.2262 -0.1970 -0.1052
14255W        W57308  21.030  14.298  14.118 -0.0524 -0.0216 -0.0138
14256W        W57309  10.960  14.552   0.003  0.1224  0.1192 -0.0178
14257W        W57310  13.822  11.475   6.491  0.0782 -0.2323  0.0084
14258W        W57311  30.859   0.245  29.190 -0.0370  0.0787  0.1899
14259W        W57312   2.617  14.734   3.679  0.1858 -0.1259  0.1573
14260W        W57313  21.190   4.414   4.785  0.0668 -0.1295 -0.4508
14261W        W57314  17.439   1.090   3.011  0.0149  0.1024 -0.0881
14262W        W57315  24.535   5.050   3.538  0.0593 -0.2410 -0.1001
14263W        W57316  32.215  33.815   5.245  0.1437  0.0239 -0.1603
14264W        W57317  31.587   7.610   5.430 -0.1112 -0.1387  0.1730
14265W        W57318  34.528   7.696  28.356  0.0638 -0.0739 -0.1229
14266W        W57319  23.552  25.134   3.324 -0.3202 -0.1098 -0.1713
14267W        W57320  28.690  34.642   2.046 -0.1235  0.1206  0.2183
14268W        W57321   6.292   5.927  26.755  0.1129  0.5017 -0.0510
14269W        W57322  13.259   3.336  14.785  0.3962  0.2116  0.0222
14270W        W57323  29.912  12.583   9.472 -0.0866 -0.0176 -0.1671
14271W        W57324  32.154  10.563   6.909  0.1054  0.0826 -0.2644
14272W        W57325  31.614  21.645  19.350  0.1260 -0.0949  0.1742
14273W        W57326  28.608   3.570   4.321 -0.0270  0.1555  0.1602
14274W        W57327  22.764   3.152   6.462 -0.1761  0.0727 -0.4415
14275W        W57328  25.168   3.785   6.400 -0.2310 -0.1301  0.3801
14276W        W57329  23.893  19.083   8.557 -0.2810 -0.1695  0.2478
14277W        W57330  29.794   6.503   9.743  0.1863  0.0702 -0.0067
14278W        W57331  27.340  28.526   8.529 -0.0847 -0.0132  0.0696
14279W        W57332  23.908  27.876  13.326  0.1062  0.2796  0.0168
14280W        W57333  18.794  24.178   3.854 -0.1377  0.3169 -0.2456
14281W        W57334  13.887  31.287  28.691 -0.1049 -0.2566 -0.0804
14282W        W57335  28.826  10.277  27.652 -0.3387 -0.0830  0.0673
14283W        W57336  25.024  13.861  13.952 -0.0097  0.1612  0.4305
14284W        W57337  20.781  30.134  15.435  0.1813  0.0415 -0.4687
14285W        W57338  16.911   2.240  23.339 -0.1702  0.0245  0.0841
14286W        W57339  20.310  32.396  17.121  0.1385  0.1044 -0.2068
14287W        W57340  20.150  30.115   5.945 -0.2212  0.0002 -0.1661
14288W        W57341   5.698   1.377  23.406  0.1732 -0.1008  0.2319
14289W        W57342  21.148  17.337  15.403  0.0411 -0.0248  0.0982
14290W        W57343   5.296   3.077  17.119  0.1883 -0.4639  0.0777
14291W        W57344  32.215  29.057   7.064  0.0254  0.2315  0.1300
14292W        W57345   9.898  33.098  16.427 -0.2326 -0.2922 -0.3109
14293W        W57346  32.455  20.925   1.755 -0.5228 -0.0189  0.2642
14294W        W57347  32.413  19.058  20.128 -0.0508  0.1702  0.1233
14295W        W57348  24.172   8.861  27.503 -0.1043  0.0036  0.1108
14296W        W57349  30.941   8.047  15.777  0.1310  0.0092  0.4671
14297W        W57350  21.170  34.155  25.385  0.0943  0.3307  0.0926
14298W        W57351  15.186  19.488  14.602  0.0696  0.0684 -0.0581
14299W        W57352  16.498   4.062  14.305  0.3128 -0.1598 -0.1139
14300W        W57353  20.589   0.934  15.327 -0.0485 -0.2454  0.0185
14301W        W57354  21.315  10.980  23.824 -0.0179 -0.0263  0.4075
14302W        W57355  34.021   0.037  17.387  0.1011  0.0832 -0.0552
14303W        W57356  17.813   8.157  14.931  0.0468  0.0200 -0.0951
14304W        W57357   0.409  34.267  24.861  0.0498 -0.1175 -0.0000
14305W        W57358  11.593  12.943  20.766 -0.2920  0.0738  0.0670
14306W        W57359   0.210  13.536  20.128  0.2509 -0.0515  0.0996
14307W        W57360   3.643   5.335  19.263 -0.0177 -0.0382  0.1033
14308W        W57361   3.347   3.718  14.861  0.4419  0.1903  0.2366
14309W        W57362  24.565  27.066  20.213 -0.0917  0.0392  0.0450
14310W        W57363   5.412  27.303  21.795  0.2502  0.2756 -0.2426
14311W        W57364  23.430  29.714  20.017  0.3050  0.0004 -0.1732
14312W        W57365  33.583  19.546  22.201  0.0296  0.2089  0.1414
14313W        W57366  19.993   6.171  15.722  0.0085 -0.1312  0.0671
14314W        W57367   8.910   8.123  15.988  0.1517 -0.1826 -0.0773
14315W        W57368  25.965  31.860   5.722 -0.0179 -0.2141  0.0432
14316W        W57369  20.540   6.274  13.698  0.2661 -0.1431 -0.2557
14317W        W57370   4.493  32.895  29.060  0.1809  0.1748  0.0259
14318W        W57371  34.326   0.650  13.785  0.1874 -0.0959 -0.1186
14319W        W57372   4.459   3.570  17.065 -0.3911  0.0779  0.1158
14320W        W57373   6.488  14.292  17.438  0.0312 -0.1223  0.0389
14321W        W57374  32.291  32.379  16.152  0.2211 -0.3340 -0.1470
14322W        W57375  15.553   3.719   0.308 -0.1721 -0.3274 -0.1773
14323W        W57376   9.185  10.733  15.388 -0.0455  0.2115 -0.1865
14324W        W57377  25.829  34.021  16.064  0.0208  0.4584 -0.2082
14325W        W57378  26.802  30.150  17.785 -0.1473 -0.1912  0.6367
14326W        W57379  30.779  24.078  15.174  0.2698 -0.0793 -0.0934
14327W        W57380  24.995   2.466  21.518 -0.2382 -0.1366  0.0895
14328W        W57381  17.256   9.925  27.270 -0.2109  0.0056 -0.1937
14329W        W57382  19.471   5.565  14.291 -0.2806 -0.3185  0.0948
14330W        W57383  28.586  21.522   0.959 -0.0565 -0.0603 -0.2650
14331W        W57384  28.540  27.857  20.956 -0.2649 -0.0524  0.0926
14332W        W57385  30.910   9.339  16.179 -0.1340  0.1531 -0.0529
14333W        W57386  31.049  26.805  13.564 -0.1770 -0.1397 -0.0921
14334W        W57387  29.956  30.042  15.497 -0.2812  0.1499 -0.0686
14335W        W57388  24.159   2.803   0.226  0.2425  0.3780  0.1503
14336W        W57389  33.416   0.678  19.025  0.0758 -0.0446  0.0423
14337W        W57390  14.146   8.887  24.907  0.0010 -0.2366  0.1633
14338W        W57391  29.502  29.323  21.011 -0.1344 -0.0378 -0.0234
14339W        W57392  33.428  16.068  17.213  0.0313  0.0329  0.0732
14340W        W57393   5.743  30.666  19.804 -0.1316  0.1429  0.2046
14341W        W57394  30.520  21.830  16.622  0.1748  0.1934 -0.4370
14342W        W57395  34.228  30.591  16.903 -0.2278  0.1323  0.0994
14343W        W57396  30.773   4.055  25.517 -0.0882 -0.1805 -0.1784
14344W        W57397   2.802  22.176  28.510 -0.2759  0.0806  0.1393
14345W        W57398  16.258  22.350   2.103  0.3034 -0.1580 -0.0940
14346W        W57399  26.988  14.883  18.653  0.0375  0.1637  0.2421
14347W        W57400  29.661  29.113  20.084 -0.0838 -0.2902  0.0252
14348W        W57401   0.489  33.150  22.349  0.1149 -0.0496  0.0323
14349W        W57402  15.258  23.661  28.855  0.0946 -0.2136  0.0739
14350W        W57403  21.533  29.735  17.083  0.2775  0.0194 -0.0626
14351W        W57404  29.994  32.682  16.999  0.1482 -0.1062  0.3064
14352W        W57405   3.844  32.859  13.868 -0.0597  0.1542 -0.3230
14353W        W57406   4.528  17.799   1.978  0.1022 -0.1680  0.2120
14354W        W57407  17.753  16.622  24.609  0.1278  0.1257  0.1203
14355W        W57408  20.744  27.799  26.551  0.3112 -0.0042 -0.1757
14356W        W57409  25.433  19.331  19.498 -0.3542 -0.0566 -0.0338
14357W        W57410  18.265  30.111  17.330 -0.3417 -0.1231 -0.0353
14358W        W57411  11.818  21.088  14.908 -0.0959 -0.1815 -0.4497
14359W        W57412  31.214   8.452  25.272  0.3347 -0.0681  0.2808
14360W        W57413  14.622   1.068  22.739 -0.0488  0.0559 -0.2309
14361W        W57414   0.042  34.344  16.563  0.2590  0.0552 -0.3284
14362W        W57415  30.080  34.443  21.125  0.1119  0.1823  0.1043
14363W        W57416  22.827   7.660  24.243 -0.1859 -0.0588  0.1167
14364W        W57417  12.249   0.809   2.204 -0.1537 -0.0251 -0.0868
14365W        W57418  28.100  16.018  22.053  0.3157  0.0853 -0.1560
14366W        W57419  16.402   5.388  15.934 -0.3594  0.0425 -0.2463
14367W        W57420  20.421  32.942  24.470 -0.0058 -0.1218  0.2636
14368W        W57421  26.882  13.789  22.489 -0.2517  0.2063  0.0755
14369W        W57422   6.746  31.782  28.837  0.2537  0.1937  0.1720
14370W        W57423  25.454   3.352  23.425  0.2237 -0.1771  0.2921
14371W        W57424   0.907  10.828  25.644  0.0063 -0.1137  0.0868
14372W        W57425   6.631  32.165  23.710  0.0990  0.0658  0.3340
14373W        W57426  20.400  26.201  14.961 -0.0670 -0.1603 -0.1618
14374W        W57427   1.815   1.122  18.734  0.0909  0.1239 -0.2038
14375W        W57428   0.421   0.820  16.283 -0.0257 -0.0830  0.0488
14376W        W57429  27.084   0.639  15.628 -0.0290  0.1253 -0.0162
14377W        W57430  22.573   9.010  24.916 -0.2145  0.2528 -0.2212
14378W        W57431  28.054  10.402  21.024 -0.0971 -0.0422 -0.0776
14379W        W57432  26.037  22.176  16.016 -0.0503 -0.2475 -0.4314
14380W        W57433   2.255  24.043   8.993 -0.1355  0.0602 -0.0895
14381W        W57434  30.420  33.013  28.609 -0.0247 -0.2651 -0.0035
14382W        W57435  31.652   1.318  17.277  0.2043  0.0654  0.2108
14383W        W57436  28.865   3.381  18.474 -0.0335 -0.0201 -0.3195
14384W        W57437   7.815  11.281  14.908  0.0871 -0.1109 -0.2197
14385W        W57438  11.361  31.704   0.610 -0.0700 -0.6750  0.3119
14386W        W57439  32.438   8.420  22.152  0.1463  0.0279 -0.2739
14387W        W57440  28.324  16.826  24.095  0.0695 -0.1859 -0.0769
14388W        W57441  18.974   9.906  16.896 -0.0033  0.0255  0.2846
14389W        W57442  20.751   4.761  19.776 -0.2192  0.0721  0.0153
14390W        W57443  27.742   4.900  28.712 -0.2237  0.0104  0.0575
14391W        W57444   6.656  33.523  14.358  0.1615 -0.1418 -0.2588
14392W        W57445  25.078   4.745  15.290 -0.1161  0.2387  0.0149
14393W        W57446  25.677  33.220  15.864  0.1276  0.3570  0.1804
14394W        W57447  34.577  31.472   6.031 -0.2507 -0.0077 -0.3823
14395W        W57448  19.066   1.113  25.486 -0.4071 -0.2293  0.1201
14396W        W57449   6.906  28.495  24.407  0.1860  0.1516 -0.0104
14397W        W57450   9.067  29.322  16.769 -0.1995 -0.2776 -0.2012
14398W        W57451   2.222   7.747  21.324  0.2607 -0.0685  0.1167
14399W        W57452  19.886   8.826  19.660 -0.1261 -0.0126  0.1033
14400W        W57453  32.637   3.552  18.668  0.1865 -0.0911 -0.4162
14401W        W57454   8.199  31.240  18.276  0.0702  0.0120 -0.1655
14402W        W57455  27.142  22.937  18.425  0.0565 -0.0518 -0.0335
14403W        W57456  12.275  26.870  20.505 -0.0187  0.1553 -0.2670
14404W        W57457  23.430  32.963  24.207 -0.3162  0.0727  0.2006
14405W        W57458   0.204  24.815  16.565  0.1550  0.0424 -0.1219
14406W        W57459  32.629   0.307  13.867  0.0083 -0.0904 -0.1735
14407W        W57460   9.065   6.591  20.108 -0.1277  0.0636 -0.0908
14408W        W57461  24.767  30.313  20.364  0.1814  0.0510  0.2181
14409W        W57462  21.442  33.030  26.329 -0.1220 -0.0612 -0.0328
14410W        W57463   4.841  14.316  13.521  0.1851 -0.0513  0.0035
14411W        W57464  26.333   1.297  22.143 -0.0757 -0.2544  0.0112
14412W        W57465  33.676  10.615  17.365 -0.0853 -0.0859  0.1866
14413W        W57466  25.977   7.136  16.709 -0.0322 -0.1116 -0.3239
14414W        W57467   9.733  31.290  29.127 -0.0048 -0.3371 -0.0707
14415W        W57468  31.003   5.789  21.334 -0.0512  0.1302 -0.3149
14416W        W57469  29.456  30.265  19.393  0.0634 -0.1025  0.3742
14417W        W57470  17.747   7.809  18.009 -0.0728  0.0086 -0.0685
14418W        W57471  25.580  22.792  27.292  0.0118  0.1852 -0.0010
14419W        W57472   9.745  31.743  22.792  0.0818 -0.1301 -0.0442
14420W        W57473  34.512   8.404  19.528  0.1851  0.1045  0.4461
14421W        W57474  22.879   9.879   1.595  0.0801  0.1435 -0.0425
14422W        W57475  24.451  32.660   3.284  0.0522  0.1330  0.1061
14423W        W57476  28.889   8.724  24.062 -0.0703 -0.0081  0.1025
14424W        W57477  21.536  11.247  14.959 -0.0101  0.1284 -0.0906
14425W        W57478  27.182   0.051  21.275 -0.0803 -0.1428 -0.1529
14426W        W57479  28.387   0.808  22.709 -0.0329  0.2022  0.2266
14427W        W57480  16.242   2.390  18.870  0.0651 -0.2289  0.1333
14428W        W57481  20.694   8.308  19.978 -0.1736 -0.0847 -0.1502
14429W        W57482  27.890  22.070   1.407 -0.1480 -0.1475 -0.2114
14430W        W57483   8.089  11.808  18.156  0.0924  0.0472  0.1468
14431W        W57484  20.125  20.198  21.661 -0.2471 -0.0030 -0.1690
14432W        W57485  29.052  10.236  28.146 -0.0171  0.2790  0.3264
14433W        W57486  12.891  26.425  26.042  0.0581  0.1693  0.2777
14434W        W57487   7.687   8.964   3.315 -0.0689 -0.2924  0.0888
14435W        W57488  15.522  27.075  13.831 -0.2159  0.1341  0.1821
14436W        W57489  10.950   3.423  16.296 -0.3856  0.1846  0.1921
14437W        W57490   9.001  28.194  21.419 -0.0101  0.4831  0.1605
14438W        W57491  31.660  28.286  28.278 -0.0666  0.0116 -0.0219
14439W        W57492  19.215  32.398  19.645 -0.0576  0.2854 -0.0239
14440W        W57493  28.293   0.777  14.326  0.1086 -0.0602  0.0233
14441W        W57494   0.475   2.021  23.376 -0.0245  0.1232  0.1319
14442W        W57495  15.278   3.258  17.689 -0.1565 -0.2104 -0.0198
14443W        W57496   1.437  13.419  20.889  0.0250  0.1757  0.3061
14444W        W57497  30.343  26.564  18.083 -0.2773  0.0833 -0.0614
14445W        W57498  25.251  13.460  15.276 -0.1691 -0.3576  0.3580
14446W        W57499  30.263   0.351  21.600 -0.0941 -0.0566  0.1033
14447W        W57500  13.096   4.787  15.747 -0.0492  0.0999  0.0463
14448W        W57501  16.481   7.850  15.270 -0.0756 -0.0721 -0.1775
14449W        W57502  23.071  27.802  13.912  0.1622  0.3327 -0.0727
14450W        W57503  33.103   1.004  17.385  0.3141  0.0896  0.1992
14451W        W57504  18.946  31.999  19.987 -0.1856 -0.0669 -0.0956
14452W        W57505  10.964   1.259  23.426  0.0599 -0.1260  0.1748
14453W        W57506  14.603  33.385  24.850  0.1321  0.2631 -0.2220
14454W        W57507  25.801   2.310  25.862 -0.1712  0.0250 -0.1249
14455W        W57508   6.587  12.768  14.859 -0.0685  0.0523  0.0215
14456W        W57509  21.374  33.997  18.656 -0.1475 -0.0144  0.1287
14457W        W57510  32.790  29.043  22.985 -0.0090 -0.1039  0.3070
14458W        W57511   3.029   5.249  27.652  0.1174 -0.2483 -0.0879
14459W        W57512  32.077   3.977  19.305  0.0285  0.0867  0.0848
14460W        W57513   6.456  26.093   5.187 -0.3060  0.3312  0.1343
14461W        W57514   6.832  26.882  13.307  0.0421  0.2034  0.1699
14462W        W57515  28.426  24.129  23.015 -0.1888 -0.3854  0.0454
14463W        W57516  28.864  28.894   3.355 -0.1508  0.5322  0.0293
14464W        W57517  26.171  33.550  22.887 -0.3074 -0.1602  0.1872
14465W        W57518   9.243  14.361  22.831  0.1038 -0.1526  0.0103
14466W        W57519   4.768  34.205   0.137  0.1949  0.0920  0.2033
14467W        W57520   4.659   1.638  23.087  0.3981 -0.1160 -0.0328
14468W        W57521  30.905  17.987  27.173  0.0521 -0.0435 -0.0488
14469W        W57522  13.647   4.920  25.692  0.0065  0.0305  0.1565
14470W        W57523  21.762   3.796  17.919 -0.3001  0.2997 -0.0142
14471W        W57524  20.280  33.362  24.201 -0.0371  0.0291 -0.2507
14472W        W57525  24.030  10.044  16.503  0.1708  0.1686 -0.0432
14473W        W57526  27.053  23.393  23.254  0.2395 -0.2979  0.0099
14474W        W57527  25.161   6.341  27.078 -0.1220 -0.1067  0.2037
14475W        W57528   4.410   2.431  23.381 -0.1760 -0.0957  0.3347
14476W        W57529   4.895  21.004  17.132 -0.3740 -0.0529 -0.3316
14477W        W57530  32.764   3.069  18.512  0.1296 -0.0415 -0.2219
14478W        W57531   3.737   6.245  22.157 -0.2676  0.1510  0.2054
14479W        W57532  24.566   7.800  16.140  0.0571  0.1591  0.1177
14480W        W57533  32.435  20.502  16.652 -0.0252  0.2657  0.2091
14481W        W57534   8.533  24.685   1.002  0.1642 -0.0739  0.2019
14482W        W57535  10.622  26.245  14.054 -0.1422  0.0954  0.1048
14483W        W57536  23.350  12.909  13.993  0.1766 -0.0194 -0.0202
14484W        W57537  19.572  25.831  22.748 -0.1341 -0.1795 -0.3173
14485W        W57538  28.158  32.093  24.196  0.0163  0.0422 -0.1312
14486W        W57539  32.513   1.849  17.488  0.0807 -0.2777  0.6291
14487W        W57540   0.282   4.372  26.285  0.1209  0.4713 -0.0957
14488W        W57541  33.465  14.170  23.800 -0.1519  0.0060 -0.1334
14489W        W57542  24.378   9.023  17.469 -0.0226  0.0259  0.1431
14490W        W57543  17.306  28.591   1.552  0.1769 -0.0417  0.0452
14491W        W57544  17.377   2.846  27.623 -0.0877  0.0241  0.1262
14492W        W57545  16.627  33.858  18.051  0.1455 -0.1221  0.0830
14493W        W57546  23.690   5.956  19.550 -0.1445 -0.3604 -0.0728
14494W        W57547  20.078  29.283  16.121 -0.3102 -0.2856  0.0033
14495W        W57548  17.867   3.829  16.587  0.0977 -0.2920 -0.2559
14496W        W57549  27.550  33.398  15.966 -0.3369  0.2466  0.2349
14497W        W57550  31.308   9.248  21.464  0.0895 -0.1721  0.4152
14498W        W57551  23.560   2.601  27.774 -0.0563 -0.0485  0.1306
14499W        W57552  13.909   5.399  20.780 -0.2542  0.0566 -0.0558
14500W        W57553  31.998  11.085  19.615  0.1602  0.0415  0.1354
14501W        W57554  31.491  16.182  26.270  0.1149 -0.1362  0.2200
14502W        W57555   1.031   7.818  21.255 -0.2261  0.0497  0.1854
14503W        W57556  29.450   0.537  20.861  0.1560 -0.0554 -0.0107
14504W        W57557   3.222  20.373  15.033 -0.1953 -0.0810 -0.0632
14505W        W57558  27.766  33.955  18.430  0.3156  0.1261 -0.0781
14506W        W57559   6.977   4.484  15.988 -0.0039 -0.0112 -0.0764
14507W        W57560  12.170  29.259  18.252 -0.1220 -0.1056 -0.0764
14508W        W57561  30.520   4.671  14.682 -0.0059  0.3192 -0.1219
14509W        W57562  20.477  10.503  23.103  0.1199 -0.4662 -0.2574
14510W        W57563  33.719   8.854   8.146 -0.1887 -0.2847  0.0304
14511W        W57564  25.111   8.988  14.050 -0.0292 -0.2572  0.2748
14512W        W57565  28.102  29.581  14.257 -0.1611  0.1595 -0.1178
14513W        W57566  27.377   1.960  15.307  0.0355 -0.1481 -0.2795
14514W        W57567  15.230  20.823  16.210 -0.3870 -0.2065 -0.0061
14515W        W57568   0.130  28.933  28.305  0.2797 -0.1180 -0.3983
14516W        W57569  29.104   7.194  21.097  0.0861  0.1039  0.1049
14517W        W57570   2.795   9.766  21.822  0.0678 -0.2531 -0.0166
14518W        W57571  25.793  12.387  17.542  0.0490 -0.1714 -0.1022
14519W        W57572  25.874   7.702  22.779  0.0154 -0.2015 -0.1262
14520W        W57573  12.579  17.777   0.092  0.0683 -0.3324  0.3767
14521W        W57574   2.942  12.635  28.939  0.0206 -0.1616 -0.2365
14522W        W57575  18.869   5.207  21.029  0.0285  0.0985 -0.0534
14523W        W57576  27.848  12.560  16.492 -0.2132 -0.1208 -0.0521
14524W        W57577  32.781   7.270  21.635  0.0861  0.0271 -0.0590
14525W        W57578   4.992  18.750  18.080 -0.1763  0.1278 -0.1297
14526W        W57579  17.115   6.466  24.285  0.4126 -0.0223  0.0650
14527W        W57580  26.102  22.150   0.308  0.2904  0.1025  0.0633
14528W        W57581  24.820  12.132  14.149 -0.1439 -0.1221 -0.0994
14529W        W57582   1.738  32.385  15.275 -0.1331 -0.2307  0.3120
14530W        W57583  19.669   1.645   5.171  0.0165 -0.0594  0.0426
14531W        W57584  22.768  22.440  14.094  0.0052 -0.0130  0.0687
14532W        W57585   9.831   8.830  21.369  0.1625 -0.0808  0.1256
14533W        W57586  32.741   8.116  22.403  0.1378  0.0293  0.2029
14534W        W57587  27.680  34.603  19.081  0.0651 -0.1540 -0.2188
14535W        W57588  13.069   8.572  18.792 -0.2838  0.0087 -0.1431
14536W        W57589  16.435   7.551  16.217  0.3290  0.0221 -0.0143
14537W        W57590   0.002  15.108  19.482  0.0976  0.0572  0.0707
14538W        W57591  12.383  24.595  23.643  0.2761  0.1026  0.0026
14539W        W57592  28.707   0.624  16.549 -0.0947  0.2673 -0.2277
14540W        W57593  25.636  33.386  26.587 -0.0713 -0.2929  0.1974
14541W        W57594  14.735  10.131   9.662 -0.0362  0.1520 -0.0727
14542W        W57595   2.949  15.246  19.471 -0.0464 -0.1252 -0.4251
14543W        W57596  22.268   3.896  14.167 -0.0444 -0.0992  0.0133
14544W        W57597  12.926  32.184  27.306  0.0651  0.0382 -0.1649
14545W        W57598  29.832  10.208  22.254  0.0302  0.2008  0.1834
14546W        W57599  33.668   7.130  20.193  0.1435  0.4265  0.1590
14547W        W57600  32.286   8.654  21.765  0.1739 -0.0086  0.2935
14548W        W57601  13.038  10.155  25.422  0.0268 -0.1553  0.1118
14549W        W57602  18.391  21.655  15.027  0.3577 -0.0120  0.1937
14550W        W57603   6.415  25.229  15.737 -0.2223 -0.0264  0.1005
14551W        W57604  18.995   0.451  21.262 -0.0418  0.1507  0.1895
14552W        W57605   5.521  34.597  26.250 -0.2327  0.0138 -0.2241
14553W        W57606  16.262   9.242  22.166  0.0426 -0.3386  0.0053
14554W        W57607  25.366   0.871  16.080  0.1814 -0.0137  0.1990
14555W        W57608  21.573   9.961  24.305 -0.3268 -0.1511 -0.1203
14556W        W57609  29.998   1.198  20.570  0.1338  0.5903  0.0982
14557W        W57610  24.638   7.353   7.285 -0.2096 -0.1009  0.3710
14558W        W57611   3.142   7.904  18.172  0.0724 -0.1988 -0.1594
14559W        W57612  30.006  31.684  25.488  0.0950  0.2832 -0.1004
14560W        W57613  31.199  26.310   0.509 -0.0437 -0.1109  0.0805
14561W        W57614  25.719  21.086  25.306 -0.2785  0.0198  0.1510
14562W        W57615  29.515  11.699  26.565 -0.0283  0.2015  0.2015
14563W        W57616  30.681  20.579  20.937  0.0598  0.0720 -0.0382
14564W        W57617   1.602   7.442  27.331  0.1367  0.0402  0.0099
14565W        W57618   2.207  15.920  20.428  0.0908 -0.4259  0.1717
14566W        W57619  14.925  34.324  22.687  0.1315 -0.4072  0.2554
14567W        W57620  16.850  32.577  18.210 -0.0744  0.0172 -0.2110
14568W        W57621  26.249  14.770  19.606 -0.0272 -0.4356  0.0443
14569W        W57622  28.402  34.011  27.578  0.1077  0.0683  0.1153
14570W        W57623  18.171   1.493  16.114 -0.1825  0.0137  0.0788
14571W        W57624  16.471  11.036  15.877  0.0888 -0.2140  0.1577
14572W        W57625  26.694  22.203  20.419 -0.2557 -0.1045 -0.2352
14573W        W57626   1.020  18.508  24.852 -0.0899 -0.1457  0.0642
14574W        W57627  28.898   7.863  19.549 -0.0143 -0.1100  0.0162
14575W        W57628  18.207   0.919  21.023  0.1014  0.2217  0.0515
14576W        W57629   0.951  34.152  14.141  0.0363  0.3334  0.0428
14577W        W57630  33.377  24.730  22.944 -0.3366  0.0655  0.0134
14578W        W57631  21.357  11.801  20.623  0.0766 -0.0022 -0.0295
14579W        W57632   8.837  30.934  16.297  0.0072  0.3106 -0.2787
14580W        W57633  30.633  34.373  21.917  0.1173 -0.2102  0.1741
14581W        W57634  15.336   3.722   7.483 -0.0563 -0.0004 -0.2234
14582W        W57635   2.206  23.305  17.819 -0.1119  0.4194  0.2431
14583W        W57636  18.627  30.549  17.597  0.2143  0.4517  0.0262
14584W        W57637  14.802  24.447  22.822 -0.1627 -0.1460  0.0688
14585W        W57638  27.292  17.465  19.490  0.0232 -0.1774 -0.0745
14586W        W57639   0.493  29.948  17.032  0.1718  0.2729 -0.1499
14587W        W57640  31.027  21.484  19.918 -0.0734  0.1260 -0.2991
14588W        W57641  29.730  18.103  17.723  0.2439 -0.0237  0.0181
14589W        W57642  21.213  10.816  27.822  0.1394 -0.4085  0.2258
14590W        W57643  28.847  31.050  16.031 -0.3634  0.1489 -0.0692
14591W        W57644   5.707   8.970  21.437 -0.2276 -0.1146  0.2027
14592W        W57645  21.587  26.266  16.500 -0.0280  0.0957 -0.0779
14593W        W57646  31.711  13.968  16.892 -0.0171 -0.1474  0.1337
14594W        W57647  30.870   3.406  16.145  0.1974 -0.3307  0.0270
14595W        W57648  26.612   7.677   6.892 -0.0379  0.1080 -0.0195
14596W        W57649   0.790  22.834  23.535 -0.3128 -0.1874  0.1636
14597W        W57650   0.851  13.270  15.295  0.2025 -0.0935 -0.1404
14598W        W57651   7.127  32.077  25.622 -0.2090 -0.3010  0.0432
14599W        W57652  30.108  34.105  23.593  0.1173 -0.0449  0.2728
14600W        W57653  17.542  26.718  19.119 -0.1704  0.1586 -0.0715
14601W        W57654  32.081  28.252  20.093 -0.2165  0.1754 -0.1886
14602W        W57655   0.857  34.354  17.434 -0.1140 -0.1267 -0.3366
14603W        W57656   7.797  19.450  26.982  0.1135  0.0667  0.0458
14604W        W57657  19.889   3.683  23.511  0.2615 -0.3144  0.0757
14605W        W57658   9.083   2.052  20.990  0.0099 -0.2253  0.0764
14606W        W57659  15.262   8.590  14.192 -0.2757  0.1906  0.0967
14607W        W57660  12.788  26.015  16.622 -0.2535 -0.0248 -0.2461
14608W        W57661  16.601   5.051  15.157  0.1012  0.2433  0.0325
14609W        W57662  29.029  28.752  23.500  0.3092 -0.0108 -0.0966
14610W        W57663  18.575   4.216  14.616 -0.0387  0.4203  0.0644
14611W        W57664  24.435  26.819  16.495 -0.1120  0.0444 -0.0010
14612W        W57665   7.180   0.893  28.426  0.2364  0.3580  0.0620
14613W        W57666   5.271  11.913  16.591  0.0332 -0.1778 -0.2456
14614W        W57667  25.913   2.732   5.216 -0.1964 -0.0146 -0.0533
14615W        W57668  17.051  33.364  18.863  0.1792  0.2093 -0.2227
14616W        W57669  13.167   2.569  24.782 -0.1565  0.4030  0.2872
14617W        W57670  20.487   3.751  16.379  0.3010  0.0616  0.1139
14618W        W57671  32.628  30.141  18.991  0.1158 -0.2978 -0.0454
14619W        W57672   3.717   9.479  21.388 -0.1345  0.0315 -0.1558
14620W        W57673   7.093   0.492  16.113  0.4933  0.1958  0.1658
14621W        W57674  16.527   4.243  26.107  0.0114 -0.1602  0.1945
14622W        W57675  31.189  29.749  17.026  0.2436 -0.1119  0.0224
14623W        W57676  33.558  28.484  12.969  0.0496  0.0512  0.0339
14624W        W57677  20.382   2.814  28.235  0.1960  0.0260  0.1104
14625W        W57678  21.792   3.805  21.629  0.1432  0.0497  0.2083
14626W        W57679  28.613  31.712  16.908 -0.0131  0.0019  0.1999
14627W        W57680  28.949   1.755   8.515  0.0379 -0.0263 -0.2805
14628W        W57681   6.382   6.276  27.416 -0.2903 -0.0051  0.0780
14629W        W57682  19.566   7.000   0.492  0.1683 -0.1057 -0.3733
14630W        W57683  30.792  34.002  16.113 -0.1877 -0.1639  0.1949
14631W        W57684  32.947   7.782  21.640 -0.4352 -0.1162 -0.1840
14632W        W57685  16.646  10.675  22.291 -0.2899  0.0788 -0.1419
14633W        W57686   1.923  33.546  15.919  0.1929 -0.0199 -0.1255
14634W        W57687  16.681  31.058  15.752  0.1158 -0.1144 -0.0616
14635W        W57688  22.940  17.909   2.744 -0.0821  0.2918 -0.0958
14636W        W57689  26.977  28.480  26.074  0.3530 -0.2301  0.1236
14637W        W57690  22.383   5.418  14.414 -0.2334  0.0734  0.2030
14638W        W57691  18.978  33.219  15.521  0.1308  0.0818  0.0737
14639W        W57692  28.082   7.900  17.504 -0.0673 -0.1622  0.0728
14640W        W57693  14.832   0.410  20.338  0.1114 -0.2514  0.2254
14641W        W57694  33.975   4.672  27.600 -0.1495 -0.1510 -0.1153
14642W        W57695  30.257   1.167  15.911  0.2332 -0.1619  0.3833
14643W        W57696  25.223  20.312  19.772 -0.1358 -0.0490  0.3531
14644W        W57697  12.844   4.993  26.073 -0.1151  0.1965  0.2841
14645W        W57698  25.577   6.693  23.785 -0.3061  0.0639  0.0952
14646W        W57699   4.285   5.846  16.508 -0.0621  0.0178 -0.1755
14647W        W57700   1.519  30.440  23.241  0.1255  0.1754  0.4421
14648W        W57701  24.899  13.068  15.326 -0.1702  0.1573 -0.1256
14649W        W57702  32.885   6.952  14.342 -0.0557 -0.0771 -0.2776
14650W        W57703  29.607  12.330  15.977  0.0348 -0.1598 -0.4210
14651W        W57704   0.123   5.401  25.510  0.0523 -0.0227  0.0393
14652W        W57705  19.453   8.996  20.838  0.1156 -0.0113 -0.2397
14653W        W57706  19.963  33.992  21.362 -0.0185 -0.0354  0.0326
14654W        W57707  32.026   1.054  18.173  0.1558  0.1368  0.2863
14655W        W57708   4.820  28.532  23.432  0.1968 -0.2684  0.0766
14656W        W57709  25.203  32.631  26.691  0.1221  0.1516  0.1376
14657W        W57710   0.474   3.203  19.351  0.3129 -0.0774  0.1009
14658W        W57711   2.911  33.625  17.692  0.0484  0.1314 -0.0201
14659W        W57712  31.287  15.210   6.595 -0.1562  0.1743  0.2626
14660W        W57713  24.564   4.538  20.686  0.0789  0.2557  0.1295
14661W        W57714  14.949  25.388  20.840 -0.0198  0.0955  0.0114
14662W        W57715  27.641  32.973  14.796 -0.1171 -0.0291  0.0726
14663W        W57716  24.344  30.143  17.824 -0.1269  0.2881 -0.0504
14664W        W57717  16.277   3.354  18.187 -0.2217  0.3238  0.0518
14665W        W57718  31.192  30.989   1.411  0.1906  0.2394 -0.3948
14666W        W57719  31.784  30.324   4.305  0.1592  0.0693 -0.2176
14667W        W57720  25.382  29.075  24.187 -0.1184  0.1038 -0.2770
14668W        W57721  23.431  33.154  18.461  0.1797 -0.1204 -0.0215
14669W        W57722   3.054  17.872  14.784  0.1738 -0.0296  0.0107
14670W        W57723  32.133  10.484  16.449 -0.2722 -0.0001  0.1494
14671W        W57724  30.507  14.255  16.962  0.2683  0.1243  0.0302
14672W        W57725   4.786  29.917  13.302  0.0762 -0.2398 -0.0870
14673W        W57726  23.639  30.301  24.364 -0.1307 -0.0202  0.0170
14674W        W57727  34.273  22.108  25.196 -0.0070 -0.1807  0.2608
14675W        W57728  31.366  11.136  18.016 -0.3688 -0.1017  0.1432
14676W        W57729   3.549   9.820   7.620 -0.0581 -0.2243  0.1678
14677W        W57730   6.765  16.138  17.080 -0.2738  0.2303  0.2945
14678W        W57731  16.766   3.016  15.953  0.3765 -0.3722 -0.0942
14679W        W57732  22.357  14.573  14.487  0.0066 -0.3779  0.0873
14680W        W57733  13.265   9.442   0.053  0.0992  0.0043  0.1241
14681W        W57734  27.804  30.367  14.609 -0.1024 -0.2757  0.1336
14682W        W57735  17.706  11.958  19.428  0.0473  0.1262 -0.1548
14683W        W57736   3.502  28.618  20.775 -0.0637  0.0843 -0.3781
14684W        W57737  28.928  12.917  19.853  0.3854  0.1431  0.1459
14685W        W57738  19.550  14.709  16.939  0.1991  0.0162  0.0041
14686W        W57739   4.983  18.478  27.872 -0.1100  0.3178 -0.1123
14687W        W57740  23.222  23.679  17.666 -0.1630 -0.3808 -0.2998
14688W        W57741  21.403  30.859  20.402 -0.0218 -0.3584  0.1496
14689W        W57742  26.628  23.740   0.722 -0.0776 -0.1431  0.2540
14690W        W57743   0.269   5.547  21.151 -0.0067 -0.0604 -0.0675
14691W        W57744  29.328  12.071  17.044 -0.1913  0.1505 -0.1546
14692W        W57745  32.221  13.436  19.595  0.2919 -0.0438 -0.1984
14693W        W57746  31.506   8.123  24.423 -0.0553  0.1020  0.1004
14694W        W57747  18.066  26.435  25.417 -0.0968  0.1278 -0.1805
14695W        W57748  32.763  14.557  28.595 -0.0845 -0.0539 -0.1198
14696W        W57749  30.410  13.474  15.149  0.3794  0.0662 -0.4195
14697W        W57750   9.702  12.214  20.668  0.0870 -0.0202  0.2033
14698W        W57751  14.064   4.300  23.476 -0.2620 -0.1556 -0.1358
14699W        W57752  21.823  31.145  25.369 -0.1253  0.0803  0.0385
14700W        W57753   2.248  24.072  24.307 -0.2109 -0.1064  0.1885
14701W        W57754  22.220  13.512  14.461 -0.1339  0.0491  0.0832
14702W        W57755  12.732   1.700  21.686  0.1504 -0.0312 -0.1570
14703W        W57756  12.870  33.513  28.728  0.1515  0.1172 -0.3335
14704W        W57757  13.766  29.882  22.891 -0.2221 -0.0128 -0.0039
14705W        W57758   6.835   3.245  14.777 -0.2180 -0.0811  0.1833
14706W        W57759  26.021   2.770  24.649 -0.1568 -0.3517  0.0238
14707W        W57760  24.843  11.685  22.325 -0.0319 -0.1297  0.1450
14708W        W57761  24.645  27.895  23.974  0.3193  0.0575  0.4529
14709W        W57762   2.185  31.331  16.563 -0.0643  0.2963 -0.0137
14710W        W57763  30.776  25.047  23.562  0.1878 -0.0945  0.0112
14711W        W57764  27.292  28.732  23.055  0.1424  0.2358 -0.0934
14712W        W57765  31.211   3.149  24.805 -0.1235  0.1531  0.2059
14713W        W57766  29.048   5.055   0.127 -0.2849 -0.0931  0.3141
14714W        W57767   6.674  28.709  19.269  0.2467 -0.1269  0.0088
14715W        W57768  22.236   3.921  19.721  0.2393 -0.1258  0.1856
14716W        W57769  16.144  34.273   6.157 -0.1533 -0.2509 -0.1294
14717W        W57770   6.303   6.015   0.480  0.2248  0.0530  0.0830
14718W        W57771   7.886   5.495   0.049 -0.1658  0.0813  0.1243
14719W        W57772  13.332  12.539  24.944  0.3925 -0.1615 -0.2697
14720W        W57773  33.780  22.503  18.929 -0.0819  0.0525  0.1565
14721W        W57774  17.539  22.812  18.000  0.1347  0.1231  0.3437
14722W        W57775  14.268  20.940  16.126 -0.1783  0.2178  0.1547
14723W        W57776  27.616  15.772   2.559  0.2771 -0.2495 -0.0181
14724W        W57777  15.252  30.187  19.269  0.0962  0.1882 -0.0288
14725W        W57778   4.842   1.854  26.049 -0.0300  0.1330 -0.0394
14726W        W57779  20.668   7.986  28.809  0.4112  0.0579 -0.1958
14727W        W57780   9.796  29.888   2.706  0.2072 -0.2899  0.0308
14728W        W57781  34.506  27.723  19.094  0.0030  0.0147 -0.0785
14729W        W57782  21.544  19.957  18.856  0.3938  0.2838 -0.0953
14730W        W57783  28.841  10.826  18.221  0.2003  0.0745 -0.2306
14731W        W57784  24.229  32.888  16.003  0.1217  0.1565  0.0112
14732W        W57785  25.093   3.340  23.894 -0.0385 -0.1221 -0.0108
14733W        W57786  34.655   7.933   2.538  0.4368  0.2915 -0.2292
14734W        W57787  30.616   2.180   1.354  0.1233  0.1273 -0.0911
14735W        W57788  24.303  31.330  14.788 -0.1863  0.0499  0.2138
14736W        W57789  14.448   7.855   0.596  0.1751  0.0444 -0.1731
14737W        W57790  20.382   3.189  14.444  0.0777 -0.0483  0.1594
14738W        W57791   1.392  16.043  16.724 -0.0660  0.0560  0.1928
14739W        W57792  18.250   1.904  14.749  0.1702 -0.1006  0.3718
14740W        W57793   0.421   6.438  24.409 -0.0421 -0.1641  0.0912
14741W        W57794  19.111  28.064  18.929  0.2598 -0.0824  0.1791
14742W        W57795   3.599   3.728  16.592  0.2516 -0.1573 -0.1338
14743W        W57796  24.906   7.761  21.697  0.2580 -0.0396 -0.1095
14744W        W57797  33.696   2.563   0.368 -0.0924  0.3041 -0.0157
14745W        W57798  20.224   7.379  26.397  0.1913 -0.0167  0.2023
14746W        W57799   0.767  31.444  17.025  0.3897 -0.1873  0.0130
14747W        W57800   7.961   7.287   3.602  0.0721  0.0870  0.1555
14748W        W57801  25.691   6.806  16.268  0.2360  0.1233  0.2279
14749W        W57802  23.366  11.324   4.006 -0.0812  0.0355  0.0052
14750W        W57803   8.704  26.939   5.935 -0.0072 -0.1976 -0.0744
14751W        W57804   4.775  33.823  28.504  0.1169 -0.1818 -0.0004
14752W        W57805  28.495   6.258  14.797  0.2432  0.2749  0.0275
14753W        W57806  22.606  19.107  18.106  0.3589  0.3512  0.0425
14754W        W57807   5.911  27.193  19.156  0.0476 -0.0152  0.3592
14755W        W57808   4.396  26.796  21.997 -0.0886 -0.0485  0.2405
14756W        W57809  10.851  29.715  19.997  0.1707  0.1108  0.2621
14757W        W57810  34.109   1.859  23.805 -0.0947  0.1097 -0.0275
14758W        W57811   7.112  28.532  20.900 -0.0488  0.2000  0.1554
14759W        W57812  24.333  20.457  27.331  0.1290  0.1941 -0.0888
14760W        W57813  24.089  24.462  26.357 -0.2623 -0.1713  0.0563
14761W        W57814  30.413   2.173  14.511  0.2240 -0.3075 -0.0891
14762W        W57815  19.409   5.419  17.557 -0.0390 -0.0645  0.0520
14763W        W57816  15.663   3.566  28.964 -0.1422  0.0282 -0.0816
14764W        W57817  29.646  18.510  19.853  0.0903  0.0819 -0.0485
14765W        W57818  31.972  24.690   4.133 -0.3467 -0.2281  0.3090
14766W        W57819  20.429  33.051  23.149  0.0567 -0.2311 -0.1165
14767W        W57820  13.721  16.273  15.305 -0.0101 -0.2960  0.0290
14768W        W57821  33.974   3.371  16.362  0.0961  0.0552 -0.0069
14769W        W57822  29.231  25.888   2.982 -0.0059 -0.0205  0.2677
14770W        W57823  23.252  23.916  22.796 -0.3407  0.2540 -0.1330
14771W        W57824   9.554  12.435  17.432 -0.4089  0.3021 -0.2368
14772W        W57825   6.400   4.079  19.399 -0.1939  0.0060 -0.0107
14773W        W57826  16.993  23.035  27.892  0.0035  0.0356  0.0947
14774W        W57827  18.654  28.978  16.418  0.0725  0.3139  0.0241
14775W        W57828  32.248   5.416  18.354  0.1951 -0.0640  0.0139
14776W        W57829  14.620   2.818  16.306  0.0348 -0.1362 -0.2853
14777W        W57830  21.461  23.227  22.128  0.0880 -0.0998  0.0787
14778W        W57831  16.833  33.453  17.725  0.3366  0.0126  0.1266
14779W        W57832  32.329  33.174  16.161  0.1443 -0.0390 -0.2006
14780W        W57833  29.213   0.278   1.999  0.2451 -0.2163  0.0432
14781W        W57834  25.168  20.338  28.362  0.2526 -0.0213 -0.1361
14782W        W57835  26.023   2.274  17.909  0.1344 -0.0010  0.2405
14783W        W57836  31.358   5.531  26.589 -0.0046  0.0422  0.0609
14784W        W57837  26.863   7.679   8.883  0.1193 -0.2132 -0.3113
14785W        W57838  25.658  34.554  16.146  0.1880  0.0956  0.1704
14786W        W57839  26.946   4.255  15.819 -0.1503  0.1521  0.1354
14787W        W57840  11.743  15.889  21.084  0.1933 -0.3989 -0.1546
14788W        W57841   4.494  29.285  25.451 -0.4256  0.0694 -0.1051
14789W        W57842  25.722  31.476  16.386  0.0054 -0.0493  0.2300
14790W        W57843  19.344  34.630  17.737 -0.2729 -0.0401  0.0354
14791W        W57844  25.490  32.481  16.666 -0.0689 -0.2071 -0.3482
14792W        W57845   2.360   1.908  14.720  0.1687  0.1607  0.3235
14793W        W57846  16.269  34.480  15.949  0.2105  0.0317  0.2744
14794W        W57847  32.987  21.654  22.671  0.0304  0.2700 -0.0845
14795W        W57848  29.673   0.123  20.519  0.3812  0.0486 -0.0714
14796W        W57849   4.588   9.410  25.843  0.1098  0.0915  0.1604
14797W        W57850  33.028  28.412  14.260  0.0897 -0.2191  0.0645
14798W        W57851   3.362  34.028  14.706 -0.0385 -0.0714 -0.0053
14799W        W57852  28.886  33.220  19.717  0.3225  0.0438 -0.1652
14800W        W57853   3.703   2.953  16.686  0.3279 -0.0644 -0.0970
14801W        W57854  25.045   6.144  19.934  0.3181  0.3371  0.0193
14802W        W57855  26.103  26.483  22.073  0.0642  0.0896  0.0702
14803W        W57856  23.692  14.866  13.908 -0.0722  0.1815  0.0257
14804W        W57857   0.368  11.227  25.276 -0.0071  0.0334 -0.0259
14805W        W57858   5.133  18.850  16.306 -0.0072  0.2335  0.1390
14806W        W57859   1.030  31.062  26.078 -0.2436 -0.1368 -0.2634
14807W        W57860  20.329  34.291   8.353 -0.0132 -0.0826 -0.1586
14808W        W57861  20.437  32.617   0.871 -0.0502 -0.1269  0.0334
14809W        W57862  22.678  15.901  22.308  0.3920 -0.0641  0.2622
14810W        W57863  14.083   1.792  22.529 -0.0103  0.2447 -0.3230
14811W        W57864  26.583   0.062  16.296  0.1865 -0.0932  0.0687
14812W        W57865  15.586   8.412  21.988 -0.0145 -0.0101  0.2884
14813W        W57866  30.359  14.928  23.744 -0.0685  0.1620 -0.0599
14814W        W57867  30.167  15.499  18.552  0.2027  0.1067  0.0504
14815W        W57868  34.267  33.077  14.739 -0.2496  0.3815 -0.1961
14816W        W57869  20.625  29.651  16.755 -0.0827  0.0750  0.1681
14817W        W57870  14.937   7.021  18.022  0.1824 -0.1172  0.1512
14818W        W57871  32.086   3.587  14.687 -0.1876  0.1513  0.0835
14819W        W57872  29.141  30.874   3.169 -0.4078  0.2018  0.0547
14820W        W57873  32.891  32.557  24.951 -0.0100 -0.1255  0.4649
14821W        W57874   7.723  33.472  14.659  0.3213  0.1367 -0.2514
14822W        W57875  28.157  33.144  16.758 -0.0802  0.0876  0.0443
14823W        W57876  21.263  34.215  27.489 -0.0247 -0.0911  0.0239
14824W        W57877   3.231  33.558  14.663 -0.3020 -0.1142 -0.0206
14825W        W57878  29.427   0.426  23.360  0.1290  0.2591 -0.0870
14826W        W57879  11.976  21.978  23.769 -0.2733  0.2178  0.0536
14827W        W57880  23.739  34.262   2.877  0.3935  0.2010 -0.1429
14828W        W57881   1.061  26.519  20.276 -0.1738  0.0545  0.1290
14829W        W57882   6.394  25.448  20.304  0.1685 -0.0390  0.2463
14830W        W57883  25.646   1.936  17.968  0.1067  0.2699 -0.0235
14831W        W57884  23.213  25.969   6.118  0.3314  0.2906  0.2139
14832W        W57885  34.312   2.886  19.749 -0.2376  0.2199 -0.2650
14833W        W57886   9.573   1.559  19.495  0.2888 -0.2870 -0.1892
14834W        W57887  22.108  32.051  23.182 -0.1443 -0.1403 -0.0087
14835W        W57888  23.918  25.342  25.793  0.2173 -0.1133  0.0990
14836W        W57889   4.000  28.351  25.750  0.1412 -0.0268 -0.0107
14837W        W57890  22.826   2.839   2.861 -0.1781  0.1570  0.3554
14838W        W57891  28.289  25.706  18.764  0.0670 -0.1345 -0.1800
14839W        W57892  20.595  34.101  17.994 -0.3263  0.1907 -0.0339
14840W        W57893  24.353   5.936  23.923 -0.1841  0.1927 -0.4313
14841W        W57894  17.448   8.884   9.189 -0.1798  0.1880 -0.1903
14842W        W57895  33.610   2.148  18.602 -0.0204 -0.0410 -0.1396
14843W        W57896  16.378   8.672  18.938  0.0628 -0.0821  0.2780
14844W        W57897   1.407   2.148   8.765 -0.0659  0.0723 -0.0731
14845W        W57898  14.221  29.573  22.843 -0.2145  0.1568 -0.1816
14846W        W57899  32.855   3.872  23.264  0.1357  0.0864 -0.0976
14847W        W57900  16.703  12.311  26.254  0.1777  0.2209 -0.1852
14848W        W57901  23.374  20.838  18.149  0.1943 -0.1445  0.0567
14849W        W57902  26.022  15.453  23.438  0.0245  0.1022  0.1004
14850W        W57903  21.694  34.478   6.446 -0.0169  0.0126  0.2448
14851W        W57904  34.150  30.173  25.957 -0.0936  0.1227 -0.0441
14852W        W57905  28.733   3.625  27.014 -0.0560 -0.1075 -0.0617
14853W        W57906   6.749   9.703  26.796  0.1579  0.1828  0.0204
14854W        W57907   2.151  31.740  22.798 -0.1887 -0.1441  0.2513
14855W        W57908  15.494  33.841   1.326 -0.0336 -0.0338  0.0299
14856W        W57909  29.186  34.280   8.201  0.0843  0.1731 -0.1436
14857W        W57910  30.730  10.672  16.299  0.0946 -0.1743 -0.0495
14858W        W57911  33.134   5.050   5.830  0.4579 -0.2756 -0.1828
14859W        W57912  15.259   0.688  16.710 -0.3093  0.0123 -0.0562
14860W        W57913  25.157   0.661  22.909  0.1018 -0.0953  0.1000
14861W        W57914   6.547  32.166  18.642 -0.2989  0.1839  0.0526
14862W        W57915  25.534   7.301   3.430 -0.4462  0.3841  0.0342
14863W        W57916   7.277  12.494   1.719  0.0485 -0.0196  0.3527
14864W        W57917  27.159   7.845   1.329 -0.2787 -0.1699 -0.2028
14865W        W57918  23.274   7.692  23.312  0.0631 -0.0663 -0.0044
14866W        W57919   2.286  19.292   3.312 -0.3704  0.1910 -0.2593
14867W        W57920   3.225  29.997  16.267 -0.0540  0.3294 -0.1811
14868W        W57921   2.268  27.738   1.533 -0.0300 -0.0570 -0.0062
14869W        W57922  21.690   6.328   0.250 -0.1637  0.2873  0.1407
14870W        W57923  25.237   4.104  15.470  0.3994 -0.1084 -0.1147
14871W        W57924  13.798  13.687  20.870 -0.2317  0.0004  0.2542
14872W        W57925  16.903   3.288  25.429 -0.1184  0.0112 -0.2415
14873W        W57926  25.157  22.455  15.081  0.0213 -0.1988  0.1273
14874W        W57927   5.106  10.820  16.711 -0.0992 -0.0368  0.1746
14875W        W57928  15.375  23.493  24.578 -0.2442  0.0865 -0.0658
14876W        W57929   9.230   3.558   2.887 -0.2169 -0.0728  0.2814
14877W        W57930  32.928   0.343  17.193  0.0497  0.4782  0.3342
14878W        W57931  16.068   6.235  10.216  0.2621  0.4512 -0.1311
14879W        W57932  25.101   3.872  24.863  0.0670  0.3947  0.0769
14880W        W57933  28.262  28.699  19.939  0.1203 -0.0349 -0.0087
14881W        W57934   1.449  28.395  15.099 -0.0152 -0.1215 -0.2334
14882W        W57935  16.105   4.946  18.662  0.0225  0.1224  0.0445
14883W        W57936  33.727  29.295   1.105  0.2841  0.2452 -0.2266
14884W        W57937  15.478   5.362  10.275  0.2254  0.0492  0.4986
14885W        W57938  28.371  32.186  25.897  0.1574  0.2765 -0.0091
14886W        W57939  14.409   6.714  15.359 -0.2406  0.0087 -0.0930
14887W        W57940  32.095   6.587   2.061 -0.0007 -0.2574 -0.1567
14888W        W57941  22.031   5.331  15.791  0.1137  0.1050 -0.1798
14889W        W57942  25.973  34.336  28.550  0.0396 -0.4100  0.1297
14890W        W57943   4.513  10.449   4.599  0.0147  0.0646  0.3192
14891W        W57944  30.893   7.562  16.218  0.0850 -0.2055  0.0904
14892W        W57945   1.126  12.801  21.743 -0.0674 -0.0555 -0.0752
14893W        W57946  24.979  15.011  15.545 -0.1222  0.1838  0.1948
14894W        W57947  13.037  34.085   6.758 -0.2133  0.0437  0.0188
14895W        W57948   5.484  19.279   7.159 -0.0085 -0.3101 -0.2803
14896W        W57949  30.110   7.000  15.012  0.4670 -0.3300 -0.0416
14897W        W57950  17.092  29.069   6.225  0.2302 -0.1412  0.0102
14898W        W57951   3.943   7.008   5.732 -0.2257 -0.2562  0.1525
14899W        W57952  29.334  33.344  24.126 -0.1694 -0.2187 -0.0396
14900W        W57953  20.135  10.317  21.240  0.1406  0.0760 -0.1455
14901W        W57954  27.999   7.228   5.122  0.1385  0.2497 -0.3215
14902W        W57955   2.387  10.538   2.169 -0.1237  0.0100  0.0513
14903W        W57956  13.797   8.522  20.621  0.3535 -0.2076  0.1119
14904W        W57957  20.133   6.568  18.974 -0.1131 -0.2827  0.2030
14905W        W57958  34.525  31.615  20.361  0.0016  0.2952  0.0489
14906W        W57959  21.689  29.656  14.961  0.1627 -0.0139 -0.1384
14907W        W57960   3.182   8.483  25.409 -0.1395  0.1676 -0.1052
14908W        W57961   6.959   9.036  24.609  0.0691 -0.0410  0.3242
14909W        W57962  33.905  11.628  24.889 -0.0550  0.1189 -0.0394
14910W        W57963  13.689  33.717  17.426 -0.0444  0.0055  0.2559
14911W        W57964  32.579  27.546  25.353 -0.2652 -0.1139 -0.0681
14912W        W57965   5.184   0.924  21.857  0.2765 -0.0831  0.0759
14913W        W57966   7.808   8.680  17.825 -0.0544 -0.0423  0.3365
14914W        W57967   3.303   2.330  18.840  0.1183 -0.3640  0.0499
14915W        W57968   4.836  15.662  14.706  0.0302 -0.0787 -0.0710
14916W        W57969  18.445   2.991  28.281  0.0888  0.1351 -0.1077
14917W        W57970  11.746  27.240  21.107  0.5310 -0.0984  0.2371
14918W        W57971  29.445  34.009   5.833 -0.0559  0.0084 -0.0982
14919W        W57972  15.787  29.062   0.829 -0.2151  0.1435  0.0958
14920W        W57973  11.409   4.716  26.186  0.2028 -0.0166 -0.1766
14921W        W57974   9.841   3.536  16.391  0.1528 -0.1399  0.1856
14922W        W57975  22.427  25.120   7.295  0.1074  0.0796 -0.1301
14923W        W57976  22.516  30.682  23.272  0.0959  0.1570  0.0764
14924W        W57977  29.964   8.685   8.201 -0.0443 -0.0526  0.1849
14925W        W57978  31.671   5.250  26.843  0.1430  0.2867  0.0504
14926W        W57979  33.602  18.668  14.320 -0.2172  0.3642 -0.1317
14927W        W57980  16.645   8.254  17.262 -0.2921 -0.0395 -0.0875
14928W        W57981  24.062  11.410  22.827 -0.0738 -0.0512 -0.2261
14929W        W57982  21.819   4.969  18.796 -0.3006 -0.0692  0.1578
14930W        W57983  20.802  11.820  18.260 -0.0652 -0.1626 -0.1788
14931W        W57984  19.979  23.573  22.805  0.0656  0.1747  0.1722
14932W        W57985  18.568  10.756  21.092 -0.0076  0.2052  0.1937
14933W        W57986  26.547  20.581  19.061  0.0570  0.0567 -0.1384
14934W        W57987  10.008   3.089  16.136 -0.0862  0.0595  0.0370
14935W        W57988  25.642   8.400  16.680  0.2584 -0.1902  0.3657
14936W        W57989  24.013  22.218  17.196 -0.1071 -0.3403 -0.1515
14937W        W57990  34.367   9.333  19.837  0.1820  0.0134  0.2360
14938W        W57991  25.305   5.767  25.740  0.0384  0.1398 -0.2696
14939W        W57992  22.198   7.074   1.056  0.1180 -0.0933  0.0573
14940W        W57993  16.330  10.925   9.786  0.0340 -0.1158  0.2891
14941W        W57994  10.250  29.782  15.625  0.2375  0.0735 -0.0552
14942W        W57995  28.811  32.608  18.379  0.0705  0.1345  0.3196
14943W        W57996  27.571   9.793  24.657 -0.2534 -0.1340  0.2783
14944W        W57997  22.665  17.648  16.818  0.1674 -0.1504 -0.1328
14945W        W57998  15.774   9.703  24.906  0.0091 -0.4719 -0.3622
14946W        W57999  19.341  33.778  21.633  0.0036 -0.2553  0.2030
14947W        W58000  29.018  12.051  28.143  0.0470  0.0136 -0.3482
14948W        W58001  34.115  30.882  19.052 -0.1267 -0.0785  0.3558
14949W        W58002  12.388  28.671  13.579  0.0278  0.1693  0.0025
14950W        W58003  28.810   1.544  25.469 -0.0019  0.1870  0.1129
14951W        W58004   2.242  33.186  27.432  0.2715  0.1047  0.3087
14952W        W58005  21.945   9.615   7.427  0.0172 -0.1373 -0.1474
14953W        W58006  34.027   4.726  17.042  0.1005 -0.0497  0.0528
14954W        W58007   9.318   6.708  26.598  0.1184  0.3404  0.1472
14955W        W58008   0.898   8.737   1.898  0.3411 -0.0462 -0.1795
14956W        W58009  29.647  10.835  20.902  0.0724 -0.0284  0.0081
14957W        W58010  19.129   3.837   4.659  0.0404 -0.0820  0.1170
14958W        W58011  23.050   7.288  20.280 -0.2133  0.3522 -0.0579
14959W        W58012   6.387  17.074  14.297 -0.0559  0.3119  0.1375
14960W        W58013  32.867   0.576  22.579 -0.1183  0.1896  0.0173
14961W        W58014   2.955  27.646  15.012  0.0234  0.0831 -0.0441
14962W        W58015   0.769   8.252  23.276  0.0492 -0.1556  0.2902
14963W        W58016  33.316  25.819  14.493  0.0021  0.0649 -0.1895
14964W        W58017  17.511   6.782   0.546 -0.2019  0.1964 -0.2858
14965W        W58018  25.961  17.671  14.617 -0.1133 -0.3296  0.1106
14966W        W58019  24.517  11.217  21.191 -0.0233  0.1676 -0.1261
14967W        W58020  34.146   2.369   0.241 -0.0591 -0.0425  0.0449
14968W        W58021  15.931   1.915  18.916  0.1586  0.1464 -0.0970
14969W        W58022  23.998   8.226   1.819 -0.1290 -0.0274  0.1709
14970W        W58023   6.004   7.432   0.929 -0.2500 -0.1748  0.0415
14971W        W58024  30.372   1.542   6.355 -0.1491  0.0484 -0.2384
14972W        W58025   6.756  30.651   8.842 -0.1193 -0.1620  0.0669
14973W        W58026  30.554  28.137  16.712 -0.0245  0.3194 -0.1245
14974W        W58027  33.904   2.885   5.156 -0.0557  0.0701  0.1651
14975W        W58028   7.048   9.341  28.595  0.2238  0.0034  0.0911
14976W        W58029  12.565  34.374  21.161 -0.1005  0.0789  0.0495
14977W        W58030   0.531  28.906  27.398 -0.1798  0.0240 -0.0484
14978W        W58031  24.957   6.025  15.514  0.4826  0.2464 -0.2751
14979W        W58032  11.423  24.135  22.153  0.5018  0.3310  0.3383
14980W        W58033  23.140  32.956  16.955 -0.0429 -0.0813  0.0920
14981W        W58034  33.155  13.566  24.589 -0.1586 -0.1543  0.0568
14982W        W58035  34.025  27.250  18.397  0.1657  0.1910  0.1393
14983W        W58036  11.731  25.033  28.330  0.1774 -0.1019  0.0341
14984W        W58037  11.784  32.573  18.580  0.0362 -0.1573 -0.1631
14985W        W58038  31.266  29.336  28.806  0.0211  0.1987 -0.0434
14986W        W58039   4.740   5.627  24.784  0.0264 -0.3407 -0.1717
14987W        W58040   7.030   4.769  24.284 -0.4741  0.0030 -0.1521
14988W        W58041  24.766  22.870   2.468 -0.1176  0.1603  0.0753
14989W        W58042  15.583   5.038   1.110  0.1382  0.0837 -0.0099
14990W        W58043  19.820   3.896  21.594 -0.3519 -0.1126 -0.2012
14991W        W58044  11.004  24.736  24.773 -0.2251 -0.3097 -0.2386
14992W        W58045  30.121  32.606   0.195 -0.0763 -0.0692  0.1224
14993W        W58046  18.374   2.301  26.140 -0.0138 -0.0472 -0.0257
14994W        W58047  22.516   3.684  27.685  0.2262 -0.2860 -0.0878
14995W        W58048  26.296   9.858  17.056 -0.4885  0.0654  0.1244
14996W        W58049  11.945  24.445  24.504  0.0242  0.0473 -0.1386
14997W        W58050   1.925   9.492  16.683  0.1656  0.1728  0.0052
14998W        W58051  28.573   1.808  19.620  0.1206  0.1616 -0.0164
14999W        W58052  27.256  24.545  20.762 -0.0598 -0.1050 -0.1618
15000W        W58053  15.202   4.126  24.886 -0.0307 -0.2245 -0.2069
15001W        W58054  29.277   6.655  21.708  0.0116 -0.1485  0.0141
15002W        W58055  32.211  14.503  18.349  0.1813 -0.0827 -0.3527
15003W        W58056  27.119  33.990  22.834 -0.2743 -0.0156  0.0142
15004W        W58057  28.787   0.108  16.673 -0.0969  0.0766 -0.1409
15005W        W58058  11.646   0.779  16.900  0.1273  0.0536  0.2474
15006W        W58059  17.242  11.983  25.217  0.1213  0.1732 -0.1598
15007W        W58060   5.386   7.219  15.554 -0.1254  0.3195 -0.0129
15008W        W58061   1.392  11.817  23.102  0.2295 -0.2039  0.1822
15009W        W58062  23.239  10.003  17.456  0.1141 -0.0327 -0.1640
15010W        W58063  30.446  28.323  18.503  0.2142  0.0064 -0.1035
15011W        W58064  20.554  25.106  20.473 -0.0284  0.0365 -0.0786
15012W        W58065   1.541  22.729  24.177 -0.4288  0.0302 -0.0730
15013W        W58066  31.731   0.210  17.079  0.3588  0.4378 -0.0659
15014W        W58067  24.618   9.691  14.170  0.1145 -0.0935 -0.3633
15015W        W58068  25.292   8.763  21.494 -0.0109 -0.1840 -0.0514
15016W        W58069   1.707   6.196  14.795 -0.0048  0.2589 -0.0179
15017W        W58070  30.040   3.900   5.332  0.1236  0.0357 -0.2313
15018W        W58071  17.290   6.637   0.989 -0.2126 -0.1148 -0.0263
15019W        W58072   1.597   0.074   3.486  0.0666 -0.0980 -0.0826
15020W        W58073   1.888   2.004  17.642 -0.0732 -0.2765  0.0780
15021W        W58074  25.923  17.410  24.829  0.3756  0.1000  0.1516
15022W        W58075  32.107  12.082  17.221 -0.3159  0.0317 -0.1899
15023W        W58076  25.550  25.737  24.964  0.1067  0.0643 -0.0489
15024W        W58077  27.060  12.244  14.253 -0.1603  0.1212  0.6924
15025W        W58078   1.951  32.625  17.917  0.1166  0.0017  0.0756
15026W        W58079  15.254   0.546  19.584  0.0788  0.0221 -0.1438
15027W        W58080  27.100   3.241  17.436  0.0028 -0.0363 -0.1441
15028W        W58081   6.121  11.719   9.242 -0.1166 -0.0113 -0.3270
15029W        W58082  25.430   6.834  18.182  0.2163 -0.1471  0.3538
15030W        W58083  26.817  15.141  25.263 -0.1169  0.0666 -0.0266
15031W        W58084  23.894   9.261   1.122  0.3794 -0.0786 -0.0027
15032W        W58085  31.052   4.512  15.086 -0.0078  0.3039 -0.0936
15033W        W58086  27.243  15.701  28.687  0.0561  0.1646  0.1046
15034W        W58087   2.718  32.170  14.370 -0.0307 -0.1780  0.2986
15035W        W58088  25.793  30.040  17.778 -0.0441 -0.1039 -0.0509
15036W        W58089  26.380  10.977   1.522 -0.1092  0.2504  0.1017
15037W        W58090   8.702  10.313   5.351  0.2208  0.2007  0.2880
15038W        W58091   9.168  27.611  25.051 -0.2739  0.1360  0.0590
15039W        W58092  33.123  22.123  15.942 -0.0615 -0.0650 -0.2562
15040W        W58093   0.214   6.050  16.296 -0.1354  0.1409 -0.1568
15041W        W58094  12.426  23.723  20.562 -0.5103 -0.1213 -0.2049
15042W        W58095  11.853  25.012  26.527  0.1775  0.4091 -0.2662
15043W        W58096   5.423  16.770   8.626  0.1927  0.1789  0.0084
15044W        W58097  25.487  14.748  20.225 -0.0483 -0.3075  0.1504
15045W        W58098   2.983  32.182  19.482  0.3194 -0.5311 -0.1567
15046W        W58099   7.213  25.489  22.961  0.0131  0.0656 -0.0307
15047W        W58100  21.394  31.479  18.068 -0.1393  0.1470  0.2236
15048W        W58101   3.425  21.013  17.279  0.1044  0.0455 -0.0658
15049W        W58102  18.380   9.328   6.527 -0.3946 -0.0793 -0.0461
15050W        W58103  23.132   2.113  22.990  0.1456  0.0879  0.1479
15051W        W58104  24.062   6.823  25.822  0.0294 -0.0214  0.2784
15052W        W58105  10.567   2.582  21.543 -0.1066  0.2568  0.2979
15053W        W58106  15.075  30.693  22.975 -0.1488 -0.0101 -0.1437
15054W        W58107  25.294   7.314  13.967 -0.4214 -0.0460 -0.0690
15055W        W58108  27.935   6.468  19.337 -0.2792 -0.0902  0.1564
15056W        W58109  28.110   5.067   1.391  0.0496  0.0645 -0.2035
15057W        W58110   1.109  33.229  15.176  0.0440  0.3039  0.2701
15058W        W58111  28.075   1.270  16.937 -0.0362 -0.0559  0.1068
15059W        W58112   9.942   4.553  15.572  0.0369  0.2978  0.1490
15060W        W58113  32.680   7.592  22.030 -0.2794 -0.2135  0.0064
15061W        W58114   7.255  12.118  22.579 -0.1931 -0.0963  0.2094
15062W        W58115  11.298  32.510  23.919 -0.3600 -0.1895  0.0820
15063W        W58116  28.800   5.633  21.085  0.0818  0.2798  0.1001
15064W        W58117  14.447  13.852  17.159 -0.2385 -0.1030 -0.0918
15065W        W58118  16.835  11.827  18.979  0.0916 -0.2785  0.0939
15066W        W58119  17.734  24.973  18.074  0.0182 -0.3590  0.2143
15067W        W58120   0.819   3.871   0.834 -0.1056  0.0013 -0.1354
15068W        W58121  26.571  14.650  17.356 -0.0084  0.1145  0.0340
15069W        W58122  23.792  20.305   0.916  0.1223  0.1860  0.1482
15070W        W58123   0.237   4.275  16.033 -0.0346 -0.2851  0.0573
15071W        W58124  28.293   9.236   5.352 -0.0007  0.0799 -0.0235
15072W        W58125   1.053  27.997  26.426  0.2494  0.2752  0.5527
15073W        W58126  29.753   2.107  13.915 -0.0750  0.0857 -0.0593
15074W        W58127  28.637  14.097  25.005  0.0486 -0.1836  0.0422
15075W        W58128  21.006  10.926  27.305 -0.1126  0.0804  0.3397
15076W        W58129  27.247  13.406  22.008 -0.4493 -0.0388 -0.2104
15077W        W58130  17.932   8.167  17.340 -0.1260  0.2509  0.0544
15078W        W58131   3.254  27.037  13.739  0.1014  0.0999 -0.1543
15079W        W58132  24.739   5.973  15.090 -0.0915  0.1830 -0.1258
15080W        W58133   4.942  29.415  15.858  0.0061  0.0296  0.1708
15081W        W58134  25.681   4.194  20.967  0.0724  0.0811  0.2801
15082W        W58135   1.121  34.661  22.736  0.2809  0.1797  0.1532
15083W        W58136  29.469   5.285  26.432 -0.0226 -0.1405 -0.0779
15084W        W58137  29.018  28.121  20.142 -0.1967 -0.0475 -0.1973
15085W        W58138  19.637   6.256  14.868  0.2614  0.1068  0.0805
15086W        W58139  33.281  28.062  23.017 -0.0587  0.3583  0.2635
15087W        W58140  25.170   6.507   3.073 -0.2302 -0.2839 -0.0463
15088W        W58141  25.524  30.631  16.880  0.0550 -0.0174 -0.0621
15089W        W58142   2.084  10.242   0.457 -0.0101 -0.1224  0.2149
15090W        W58143  20.090  29.937  28.414  0.1280  0.0158  0.1228
15091W        W58144   2.318   0.858   2.082 -0.0734 -0.0478 -0.2223
15092W        W58145   0.102   1.694  18.878 -0.0167 -0.0900 -0.0070
15093W        W58146   2.165   1.711  18.674  0.0678 -0.0099  0.2885
15094W        W58147  33.458  12.136  28.942 -0.0812  0.2164 -0.1772
15095W        W58148  14.506  33.965   0.011  0.1500  0.3540 -0.0058
15096W        W58149  25.596   3.824  23.629  0.0407  0.0118  0.1479
15097W        W58150  14.019  24.062  26.618 -0.1128  0.2894  0.0756
15098W        W58151  23.326   3.849  23.425  0.1283 -0.0851  0.2272
15099W        W58152  22.338   7.885  23.114  0.0250 -0.2887  0.2846
15100W        W58153   1.091   6.886   6.905 -0.2568  0.0953  0.1585
15101W        W58154  13.752  15.914   1.019  0.1737  0.3519  0.1212
15102W        W58155   8.066   7.527   0.491  0.1523  0.2143 -0.0067
15103W        W58156  27.785   0.165  13.832  0.3077  0.2231  0.0880
15104W        W58157  24.292   9.648   8.544  0.1144  0.1694  0.0249
15105W        W58158  13.912   5.725  28.537 -0.1570 -0.3500  0.0759
15106W        W58159  23.988   2.653  18.836 -0.0524  0.1533 -0.0518
15107W        W58160  29.391  17.750  22.539 -0.1505  0.0118 -0.2550
15108W        W58161  12.622   5.124  17.622  0.0257  0.0397 -0.1469
15109W        W58162  29.448  10.170   4.919 -0.0768 -0.0250  0.0969
15110W        W58163  30.641  31.641  27.440 -0.1582  0.1128  0.0359
15111W        W58164   4.717  18.732  23.864  0.1078  0.2881 -0.1742
15112W        W58165  20.124   4.199  17.249 -0.0737 -0.0590 -0.2108
15113W        W58166  27.278  33.957  18.210  0.1435 -0.1478  0.0238
15114W        W58167   9.989   4.488   5.148  0.0254 -0.0090  0.0332
15115W        W58168  27.785  22.134  28.094 -0.0556  0.0503  0.1913
15116W        W58169   1.963   4.454   4.160  0.3318  0.1309 -0.1593
15117W        W58170  19.187  20.584  23.618 -0.2397  0.1514 -0.1379
15118W        W58171  23.744   2.480  20.873  0.1150 -0.1454  0.0954
15119W        W58172  25.316  11.336   8.923  0.5554  0.0584  0.2703
15120W        W58173  26.860  10.495  18.582 -0.1546  0.0607 -0.0851
15121W        W58174  14.508   0.232  23.896 -0.0578 -0.0708 -0.3337
15122W        W58175  23.447   4.967  14.820 -0.1821  0.1168 -0.1514
15123W        W58176  31.925  32.175  18.911 -0.2581  0.2376  0.1058
15124W        W58177  31.415  11.333  10.084  0.2205  0.1569 -0.2506
15125W        W58178  25.721  29.633   9.624 -0.1210  0.2696 -0.1252
15126W        W58179  32.806  11.639  17.516  0.0037  0.2468  0.1314
15127W        W58180   0.625   9.124  24.911 -0.0632 -0.0386 -0.0685
15128W        W58181  30.172   1.709  21.234  0.0106  0.0472 -0.1270
15129W        W58182  23.689   6.005   1.027  0.2666  0.1819  0.0968
15130W        W58183  20.883  17.306  23.883 -0.0249  0.0311 -0.0530
15131W        W58184  22.973  21.133  14.282  0.0128  0.3461 -0.1001
15132W        W58185   1.062  13.845  19.191  0.1184  0.0002  0.1420
15133W        W58186   8.240   4.144  28.279 -0.0346  0.1011 -0.0417
15134W        W58187  32.357   4.627  15.219  0.0695 -0.0001 -0.0683
15135W        W58188  12.737  34.376  26.513  0.2583 -0.0532 -0.2099
15136W        W58189  23.273   0.476  22.789 -0.1890 -0.1513  0.0196
15137W        W58190  34.504   1.102   0.117  0.2577 -0.1165  0.2476
15138W        W58191  30.220  20.393  16.565 -0.0084 -0.0939  0.1089
15139W        W58192   5.329  20.512  15.556  0.3485 -0.1586  0.0547
15140W        W58193  30.386   6.746  21.013  0.3499  0.2639  0.0002
15141W        W58194  17.455  31.562  20.316  0.0856 -0.4817  0.0003
15142W        W58195  29.476  12.828  18.812  0.1481 -0.0068 -0.1350
15143W        W58196  22.919   7.183  22.855  0.1298 -0.2883  0.0507
15144W        W58197  17.347  25.110   2.801 -0.0828 -0.2528 -0.0448
15145W        W58198   9.240   4.411  23.895  0.0390  0.1287  0.4623
15146W        W58199  19.990  23.087  25.128  0.0428 -0.0259 -0.1989
15147W        W58200  23.550  11.933  24.886  0.2385 -0.0941 -0.0579
15148W        W58201   3.863   1.621   3.447 -0.4852  0.1560  0.2230
15149W        W58202  25.546   6.800  13.824  0.2856  0.0289 -0.0714
15150W        W58203  22.484  30.321  10.716 -0.0706 -0.0892  0.4653
15151W        W58204  18.636  10.291  24.224  0.0187 -0.2886 -0.0872
15152W        W58205  18.034  29.486   6.860 -0.4573 -0.0236 -0.2848
15153W        W58206  33.860   7.110  23.545 -0.0855 -0.0182  0.1709
15154W        W58207  29.382  23.682  23.033 -0.1389  0.3494 -0.2456
15155W        W58208  31.766  33.751   4.970 -0.0223  0.1532 -0.3136
15156W        W58209  33.640   9.138  23.463 -0.2136  0.1983  0.0671
15157W        W58210  15.368   9.819  14.477 -0.0147 -0.3244 -0.1421
15158W        W58211  21.488  26.481  26.906 -0.0952  0.3106  0.0804
15159W        W58212  32.804  13.433  27.712  0.1423 -0.0287  0.2407
15160W        W58213  25.432   1.241   1.018  0.0960 -0.0846 -0.0491
15161W        W58214  26.198  33.742  21.020 -0.0355  0.0294  0.0293
15162W        W58215  21.618  15.360  29.026  0.4039 -0.2159 -0.2037
15163W        W58216   1.790   6.713  27.765  0.1245  0.1718  0.2175
15164W        W58217  18.954   3.765  25.811 -0.2497 -0.1477  0.0619
15165W        W58218   6.117  20.943  18.787 -0.1651 -0.3217  0.0567
15166W        W58219  26.388   0.733  24.157 -0.2099  0.2015  0.0180
15167W        W58220  21.066  31.981  26.828  0.0499 -0.0276 -0.0237
15168W        W58221  12.355  29.095  24.370 -0.3018  0.1399  0.1596
15169W        W58222   0.839   2.685  15.745 -0.0381 -0.1610 -0.1081
15170W        W58223   8.750   5.608   5.748  0.2447 -0.3121 -0.0151
15171W        W58224  33.668  30.030  22.296  0.0144 -0.0209 -0.4616
15172W        W58225  22.404  23.720  24.142  0.0518  0.2106  0.1619
15173W        W58226  20.159  10.989  24.409  0.1025  0.0706 -0.1042
15174W        W58227  13.365  32.802  14.354 -0.0338 -0.1865 -0.1131
15175W        W58228  23.567  16.416  20.914  0.1389  0.0723 -0.0472
15176W        W58229  25.045   1.962   8.393 -0.1835 -0.1618 -0.1349
15177W        W58230  29.617  28.903  15.578 -0.0369 -0.0285  0.1458
15178W        W58231  23.489  27.412  28.719  0.0152  0.0313 -0.2183
15179W        W58232  27.033   9.427  23.597  0.1161  0.1570 -0.3744
15180W        W58233   5.389  16.246  18.201 -0.2068  0.5049  0.2374
15181W        W58234  32.558  30.257   0.012 -0.2672 -0.3316  0.1531
15182W        W58235  34.381  17.243   7.523 -0.1655 -0.2166  0.0956
15183W        W58236  18.285   7.930  20.412  0.0867 -0.1772 -0.1118
15184W        W58237  32.221   6.245   6.697  0.0017  0.0145 -0.1042
15185W        W58238  22.312   4.835   8.485 -0.0034 -0.0306 -0.3148
15186W        W58239  12.585  12.403  19.571  0.0983  0.2824 -0.2137
15187W        W58240  30.107  31.833  21.839  0.1181 -0.0644 -0.1765
15188W        W58241  11.565  13.183  17.098  0.0100  0.2070  0.0375
15189W        W58242  15.968  18.423   6.966  0.3474  0.1218  0.0702
15190W        W58243  24.204   8.646  20.848  0.2928 -0.3333  0.4122
15191W        W58244  18.823   2.360  17.006 -0.3091  0.0504  0.0528
15192W        W58245  24.737  16.699  25.062  0.4691  0.2441 -0.0454
15193W        W58246   1.184  24.689   6.944 -0.2599 -0.0704 -0.1720
15194W        W58247  10.666   1.903  24.509 -0.2347 -0.0721  0.0163
15195W        W58248   0.005   3.242   0.545  0.1168  0.0370  0.2043
15196W        W58249   2.048   5.431  15.077 -0.2931  0.0342  0.1794
15197W        W58250  13.608   2.153  21.613 -0.5807  0.0312 -0.0295
15198W        W58251  32.619   6.985   3.783 -0.1800  0.0166  0.0368
15199W        W58252   5.090   7.356  18.736  0.1034  0.2078 -0.1506
15200W        W58253  25.637  20.494  20.587 -0.1213 -0.0414 -0.0641
15201W        W58254  16.642   1.558  26.077  0.0056  0.1161  0.0272
15202W        W58255  24.567   4.144   1.427 -0.1969  0.2901 -0.1591
15203W        W58256  25.367  34.589  22.244 -0.0947 -0.0794 -0.1531
15204W        W58257  21.747  23.585   5.553  0.0358 -0.2490  0.0694
15205W        W58258  30.132  33.706  15.763 -0.0937  0.0284 -0.2040
15206W        W58259  30.285  14.247  23.065 -0.0792 -0.4438 -0.1197
15207W        W58260   4.478  34.065  25.183 -0.2957 -0.0389 -0.1721
15208W        W58261  23.313   2.627   0.790  0.2669 -0.0928 -0.2232
15209W        W58262  29.817  26.625  19.767 -0.1086 -0.2944  0.1373
15210W        W58263  30.724  27.454  25.827  0.1796 -0.0958  0.2139
15211W        W58264  23.734  31.706   0.829  0.1082  0.0434  0.0705
15212W        W58265   4.277  32.749  14.062  0.0025  0.2269 -0.1460
15213W        W58266  31.020   7.192  23.934  0.4543 -0.1351 -0.0140
15214W        W58267  21.750  29.504  20.932 -0.2013 -0.0601  0.0701
15215W        W58268   0.650  33.197  26.427 -0.1331  0.0010 -0.0182
15216W        W58269  12.255  22.031  18.947  0.0994  0.0889  0.1161
15217W        W58270  32.604  33.634  18.033 -0.2075  0.3928  0.1344
15218W        W58271  25.228   8.814  26.252 -0.0229 -0.2511  0.2359
15219W        W58272   1.237   9.235  18.067  0.0908  0.2517 -0.1764
15220W        W58273  22.852  10.151   7.194  0.3140 -0.0238 -0.1405
15221W        W58274  30.683   4.725   2.140 -0.0728  0.0403  0.0072
15222W        W58275  29.062  33.765   4.661 -0.3364  0.0717 -0.2469
15223W        W58276  11.347   5.864   3.455  0.0803  0.0364  0.0391
15224W        W58277   0.873   7.797  27.620  0.0388 -0.0758 -0.0128
15225W        W58278  26.281  10.358  19.288 -0.0935 -0.1076  0.1047
15226W        W58279   1.734   6.433  21.562 -0.2271 -0.0994 -0.0411
15227W        W58280   5.934   5.779  16.969  0.2238  0.1095 -0.3482
15228W        W58281   1.147  21.536   0.818  0.0372  0.0977 -0.2491
15229W        W58282  31.940  32.297   2.755  0.2406  0.1624  0.0128
15230W        W58283  28.273  29.615  15.478 -0.1393  0.1865 -0.0669
15231W        W58284  21.101  28.707  14.977  0.0780 -0.0644  0.0984
15232W        W58285  29.846   5.363   8.101  0.0246 -0.0382  0.3861
15233W        W58286   7.901   2.342   1.637  0.3346  0.2777 -0.0346
15234W        W58287  11.080  19.944   0.640 -0.0399 -0.0071 -0.1008
15235W        W58288  12.662  19.018  24.886 -0.0477 -0.2428  0.2767
15236W        W58289  25.934  10.905  19.931 -0.0915 -0.1379  0.3746
15237W        W58290  21.997  10.006  25.113  0.1914  0.2659 -0.0713
15238W        W58291   2.487   9.472   8.927 -0.0020  0.0493  0.3045
15239W        W58292   2.226  24.011   9.490  0.2291 -0.3162  0.0803
15240W        W58293  26.810  33.645  24.081 -0.3985 -0.0542  0.0741
15241W        W58294   6.040   0.104  27.184 -0.0769  0.1927 -0.0312
15242W        W58295  29.143  32.355  22.400  0.1725 -0.1408 -0.0634
15243W        W58296  33.809  12.669  24.555 -0.1442  0.0073  0.1288
15244W        W58297  33.103   2.908  15.288  0.0660 -0.0430 -0.0248
15245W        W58298  25.504  30.192  20.439  0.0536  0.1728  0.2522
15246W        W58299  29.919  26.647  15.622 -0.1347  0.0711  0.2195
15247W        W58300   5.943   7.103  16.980 -0.1801  0.1843 -0.0421
15248W        W58301  19.732   2.150   1.108  0.1604  0.1127  0.1935
15249W        W58302  10.382  25.468  25.170 -0.4258 -0.0240 -0.2238
15250W        W58303   0.905  26.599   2.047 -0.2488 -0.1853  0.2271
15251W        W58304  28.393  26.117   5.206 -0.0092  0.1227  0.2576
15252W        W58305  32.975  29.782  15.772 -0.2285 -0.0216 -0.1864
15253W        W58306  26.906  34.302  21.348 -0.0157  0.0580  0.0724
15254W        W58307  24.164  18.428  22.490  0.3377  0.3136  0.0886
15255W        W58308  25.520  29.370  16.326  0.1291  0.1834  0.1308
15256W        W58309  10.871  30.956  27.587  0.1673  0.1379  0.1319
15257W        W58310   1.662   8.794  21.388  0.3971 -0.0823 -0.0964
15258W        W58311  23.596  21.726   6.853 -0.2687  0.1040 -0.0115
15259W        W58312  17.831  32.550  28.627  0.1690  0.2912  0.1361
15260W        W58313   1.741  22.566  26.328  0.1161  0.0876 -0.4793
15261W        W58314  21.114  18.653  26.811  0.1029  0.5188 -0.2259
15262W        W58315  30.028  12.612  16.111 -0.0158  0.1474 -0.0408
15263W        W58316  23.148   0.623   9.200  0.4555  0.2523  0.1512
15264W        W58317  21.230   0.671   4.720  0.0317 -0.2837  0.0674
15265W        W58318  28.694  33.470  20.491 -0.2789  0.0167 -0.0467
15266W        W58319  15.827  12.757  25.383 -0.2820 -0.1755 -0.0198
15267W        W58320   7.835   5.006   0.349 -0.0074 -0.1309  0.1104
15268W        W58321  12.677   0.074  28.586 -0.1006  0.1793 -0.2126
15269W        W58322  14.949  31.959  23.566  0.2592  0.4056 -0.2890
15270W        W58323  34.423   1.020  22.111 -0.0483 -0.5497  0.1370
15271W        W58324  30.121   7.508  24.704 -0.0562 -0.0051 -0.2051
15272W        W58325  22.900  29.787  27.900 -0.0908 -0.2100  0.1302
15273W        W58326  18.162  21.348  28.599  0.1051  0.3484 -0.2655
15274W        W58327  22.384  25.042  25.533 -0.0250  0.4082 -0.0159
15275W        W58328  24.006  31.797  27.381  0.0462  0.1059 -0.1192
15276W        W58329  15.195  15.183   2.257 -0.0426 -0.0264 -0.1018
15277W        W58330   3.034   0.830  15.607  0.3791  0.1370 -0.1375
15278W        W58331  19.826   7.412  28.857  0.5532 -0.0296 -0.0131
15279W        W58332  12.444  30.254  16.042 -0.0441  0.0742 -0.0208
15280W        W58333  20.107  13.270   1.638  0.0190  0.0447 -0.3894
15281W        W58334  26.618  21.888  10.498 -0.1570  0.0262 -0.2317
15282W        W58335   1.833  17.168  24.497 -0.0101 -0.1291 -0.2773
15283W        W58336  22.143   0.858   9.688  0.0687 -0.0283  0.3010
15284W        W58337  23.543   3.330   1.828  0.0448 -0.2779  0.0196
15285W        W58338   2.179   5.752  14.360  0.1105  0.2110  0.2020
15286W        W58339  28.176   4.163  18.536 -0.0450  0.0101 -0.0141
15287W        W58340   5.374  24.568  22.597  0.6183 -0.1185  0.0368
15288W        W58341   9.053  10.762  16.241 -0.0954 -0.0926  0.1199
15289W        W58342  19.526   3.670  18.954  0.0452 -0.0459  0.3902
15290W        W58343  34.162  30.061  20.171 -0.1721  0.1579 -0.2033
15291W        W58344   1.650  16.093   4.933 -0.0624  0.1699 -0.3618
15292W        W58345  24.096   2.834  22.160 -0.0945 -0.2096 -0.2465
15293W        W58346  27.989  10.227  22.262 -0.0398  0.2005 -0.2817
15294W        W58347  25.105  33.396  28.975 -0.0983  0.1413  0.1600
15295W        W58348  26.232   3.611  15.498  0.0130 -0.0289 -0.0583
15296W        W58349  26.781  21.287  26.498  0.0304 -0.0969 -0.2583
15297W        W58350   0.503   3.996  19.005  0.0772 -0.2067 -0.4702
15298W        W58351  29.775   4.218  24.554  0.2196  0.0701  0.0815
15299W        W58352  28.451  11.308  17.295 -0.1138 -0.2835 -0.0406
15300W        W58353  14.417   8.439   0.744 -0.0070  0.0113 -0.1067
15301W        W58354  16.516   1.282  20.550  0.1642  0.6071 -0.3811
15302W        W58355  31.884  27.507  22.321  0.4959  0.4124  0.0092
15303W        W58356  25.102   6.936  16.101 -0.0687  0.1696 -0.1312
15304W        W58357  20.916   3.292  23.538 -0.1069 -0.3250 -0.1084
15305W        W58358  28.724  25.118  27.264 -0.1075  0.0277  0.0281
15306W        W58359  13.812  33.960   2.790 -0.2339 -0.0105  0.0585
15307W        W58360   7.002  33.484  18.259 -0.1744  0.1500 -0.0039
15308W        W58361   4.514   5.476  21.412  0.2632  0.2828  0.2320
15309W        W58362  16.206   0.479  15.292 -0.1059  0.0792  0.0310
15310W        W58363  13.479   2.551  27.225  0.0458  0.1002  0.0088
15311W        W58364  27.977  27.188  20.506  0.0843 -0.0559 -0.0455
15312W        W58365  17.791   1.307   9.173  0.1663 -0.1612  0.1963
15313W        W58366  25.207  29.051  22.152 -0.2401  0.0450 -0.1958
15314W        W58367   1.607  32.492   1.113  0.2705  0.1291  0.2157
15315W        W58368  23.809   6.965  24.603  0.0494  0.0064  0.1330
15316W        W58369   5.218  33.606  22.730  0.0595 -0.1404 -0.2347
15317W        W58370  21.738   8.539  28.109 -0.2191 -0.0131  0.1983
15318W        W58371  23.409  27.649  18.046  0.1604 -0.0802 -0.1618
15319W        W58372  17.997  19.710  15.218  0.0977  0.0494 -0.0934
15320W        W58373  13.541   9.343  17.963 -0.3712 -0.1309 -0.0167
15321W        W58374   7.380  15.730   4.964  0.3436  0.0184 -0.1991
15322W        W58375  19.467   3.823   2.618 -0.2307  0.2725  0.2993
15323W        W58376  16.450  31.552  23.685  0.1387  0.2517 -0.0729
15324W        W58377   7.549   3.817  23.257 -0.1426 -0.0626 -0.3865
15325W        W58378  15.809   0.481  23.310 -0.0861 -0.6369  0.0527
15326W        W58379  11.311   1.304  22.060 -0.3780 -0.2774  0.2733
15327W        W58380  24.214  31.981  29.095  0.3125 -0.0414  0.1472
15328W        W58381  13.213  14.336  24.049  0.2005  0.4110 -0.3420
15329W        W58382  20.203  28.632  21.793  0.1482 -0.0449 -0.1912
15330W        W58383  14.457  29.848  21.096  0.0719  0.2439 -0.0236
15331W        W58384  22.857  26.293   3.683 -0.0601  0.0580 -0.1666
15332W        W58385  12.944  26.001  14.808 -0.0508  0.0865  0.0386
15333W        W58386  21.933  21.330   4.698  0.0190  0.2039 -0.0183
15334W        W58387  23.726  32.089  19.602  0.0603  0.1292  0.1445
15335W        W58388   2.483  31.358   3.353 -0.2679 -0.0234  0.0987
15336W        W58389  27.735  11.697  28.575 -0.1196 -0.0875 -0.1147
15337W        W58390  30.398  27.783   0.962  0.1427 -0.2482  0.1146
15338W        W58391  21.718  31.722   3.274 -0.1080  0.2223 -0.1128
15339W        W58392  24.253  17.345   6.135 -0.3167  0.3045 -0.0525
15340W        W58393  30.329  21.947  22.118  0.2013  0.0650  0.2129
15341W        W58394   0.044   7.342  18.932 -0.5129  0.0021  0.2781
15342W        W58395   0.614  24.738   0.787  0.0954  0.1195  0.0540
15343W        W58396  23.010  11.250  26.456 -0.1932 -0.2647  0.0128
15344W        W58397  31.193  11.107  29.008  0.0369 -0.2144  0.0564
15345W        W58398   2.860  21.421   1.672 -0.2225 -0.1013  0.0185
15346W        W58399  23.327  15.093  23.265  0.1391  0.2393 -0.1087
15347W        W58400  24.589  32.089   6.602 -0.1371  0.1819  0.0058
15348W        W58401  31.002  34.637   5.916 -0.4028 -0.0978 -0.0553
15349W        W58402  19.600  32.939  26.734  0.2851  0.0430 -0.0191
15350W        W58403   4.411   0.824  28.831 -0.0346 -0.5060 -0.0206
15351W        W58404  16.319   5.524  21.602 -0.0324 -0.2542 -0.1142
15352W        W58405   2.976   5.217  28.165  0.2786 -0.0253 -0.2602
15353W        W58406  24.920  10.612  19.169  0.0732 -0.0252  0.3081
15354W        W58407  28.083   0.940   7.429 -0.1223  0.1926  0.1599
15355W        W58408   7.327  32.182  23.760  0.1207  0.0194 -0.1924
15356W        W58409  24.138  30.137  14.360  0.0373  0.0205 -0.1846
15357W        W58410   7.096  17.138  14.284 -0.1391  0.0189 -0.0807
15358W        W58411  22.967  12.720  24.971  0.2588  0.1980 -0.2260
15359W        W58412  26.193   1.250  15.648 -0.2253 -0.1155 -0.3303
15360W        W58413  14.886  28.129  17.135 -0.0966  0.0518 -0.2393
15361W        W58414  22.477  19.433  18.988  0.1298  0.0806 -0.1485
15362W        W58415  18.976  23.316  23.054  0.0327 -0.0800  0.2454
15363W        W58416  25.551  34.038  20.485  0.0091  0.2952  0.1750
15364W        W58417   8.961   9.814  19.420 -0.0135  0.5474 -0.2110
15365W        W58418  27.709  33.114   9.150 -0.0593  0.1830 -0.1734
15366W        W58419  30.348  14.666  25.149 -0.0165 -0.1975 -0.0353
15367W        W58420  32.698  10.826  17.124  0.4582  0.3097  0.0855
15368W        W58421   4.445  27.405  18.615 -0.1702  0.1298  0.0425
15369W        W58422  28.368  14.055  20.133 -0.1313 -0.0704  0.1826
15370W        W58423   1.921   3.919  20.511  0.3642 -0.1856  0.3115
15371W        W58424  25.440   3.027  16.738 -0.3221 -0.2848 -0.0284
15372W        W58425  27.460   8.050  26.679 -0.0871 -0.1753  0.0737
15373W        W58426   5.538  34.100   9.571  0.0381  0.0623  0.0020
15374W        W58427   3.211  26.341   7.248  0.0436  0.1713  0.0420
15375W        W58428   2.541  23.518   6.511  0.1448  0.0961 -0.0405
15376W        W58429   3.958  30.628   4.006  0.1469  0.0459  0.0198
15377W        W58430  13.083  16.273  17.034 -0.2327  0.1857  0.0685
15378W        W58431   2.069  10.266   6.126 -0.1138  0.2233 -0.1326
15379W        W58432  19.464  23.507  19.992 -0.2063  0.1162  0.3229
15380W        W58433  17.831   9.612   6.631  0.0348  0.1693 -0.0271
15381W        W58434  19.643   7.038  24.568 -0.0043  0.1060  0.3244
15382W        W58435  17.571  28.910  22.233  0.0160  0.0389 -0.2388
15383W        W58436  19.820  29.545  23.254 -0.0834 -0.3089 -0.0361
15384W        W58437  21.755  15.740  12.817  0.5320 -0.4139 -0.1035
15385W        W58438   6.504   0.725   0.822  0.0688 -0.4876  0.3328
15386W        W58439  25.277   9.368  26.906  0.1454  0.0701  0.0351
15387W        W58440  22.528   3.134  10.002  0.0929  0.0301 -0.0281
15388W        W58441  22.111  27.772  27.139  0.0887 -0.2237 -0.4144
15389W        W58442  23.285   8.947  20.289 -0.1135  0.1535 -0.2153
15390W        W58443   3.120  11.276  24.409 -0.0138 -0.0216 -0.1836
15391W        W58444  23.176   3.423  17.340  0.2005 -0.2140  0.1402
15392W        W58445  32.830   6.462  18.396  0.2096  0.4127 -0.2444
15393W        W58446  23.476  11.570   2.815  0.2309 -0.1032  0.3416
15394W        W58447   7.371   7.562  22.513 -0.2155  0.0137  0.0016
15395W        W58448  32.533   7.734  28.418 -0.0302 -0.2539 -0.2301
15396W        W58449   5.049   1.702   3.283 -0.0258  0.1099 -0.2783
15397W        W58450  25.735  16.455  20.989  0.3250 -0.1878  0.0003
15398W        W58451  18.297   8.536  22.637 -0.0427 -0.0450  0.0168
15399W        W58452  34.439  33.594  16.779 -0.0670 -0.0124 -0.1221
15400W        W58453   0.078  18.767   1.978  0.0454  0.0836 -0.3103
15401W        W58454  25.782  32.263   5.522  0.3746  0.2566 -0.3198
15402W        W58455   2.070  33.258  18.820  0.0377 -0.1041  0.0598
15403W        W58456  15.701   8.543   3.618  0.0935 -0.0334  0.1600
15404W        W58457  20.502   7.298  23.605  0.1013 -0.1613  0.1245
15405W        W58458  33.680  18.007   5.751 -0.1329  0.0745  0.2058
15406W        W58459   2.389  28.549  14.127 -0.2192  0.0004 -0.3645
15407W        W58460   2.308  32.811  24.953  0.0377 -0.4590 -0.1560
15408W        W58461  17.488   2.532  26.321  0.2376 -0.0261 -0.0393
15409W        W58462  31.990   1.470  29.019 -0.0967 -0.1376 -0.0005
15410W        W58463  20.378   7.440  24.059 -0.1876  0.2035  0.1857
15411W        W58464  27.914   1.510   5.354  0.1312  0.1046  0.2263
15412W        W58465  24.281   0.522  21.241 -0.1187 -0.0030  0.3018
15413W        W58466  15.986   4.672  17.097  0.0099 -0.0924 -0.0471
15414W        W58467   2.596  32.896  16.906  0.1307 -0.1542  0.0341
15415W        W58468  31.462   8.417  28.857 -0.2223 -0.4076 -0.1154
15416W        W58469  28.100   0.848  23.775 -0.0190  0.0055  0.0540
15417W        W58470  26.653   0.724  14.564 -0.0012 -0.3622  0.1410
15418W        W58471  15.413   7.295  17.864 -0.2325 -0.2690 -0.1210
15419W        W58472  33.439   0.638   5.573  0.0173  0.1811 -0.1512
15420W        W58473  30.010  14.343  16.941  0.1437 -0.0547 -0.0897
15421W        W58474  22.850  13.457  28.813  0.0194 -0.0403  0.0029
15422W        W58475  30.077  22.036   3.709  0.3680 -0.4105  0.2808
15423W        W58476  25.034  30.538  24.801 -0.3243 -0.1042  0.2002
15424W        W58477   0.074  32.728  17.640  0.1766 -0.0136 -0.1381
15425W        W58478   3.705  10.553  24.124  0.1253 -0.0251 -0.0689
15426W        W58479  29.561   0.221  27.065 -0.0179 -0.1503  0.0432
15427W        W58480   4.665  11.892  29.152 -0.0540 -0.0239  0.0695
15428W        W58481  25.133   9.953  18.165  0.1307  0.2993 -0.3639
15429W        W58482  11.516   8.849  17.503 -0.0256  0.2877 -0.1865
15430W        W58483  27.633  10.548  24.242  0.2916  0.1733  0.0570
15431W        W58484   8.907   1.653  20.147  0.3039 -0.0608  0.1509
15432W        W58485  10.678   3.991   9.434 -0.2769 -0.1008 -0.2040
15433W        W58486  26.649  14.225  17.728 -0.0127  0.1165 -0.0140
15434W        W58487   9.709  33.021  17.399  0.0895 -0.0640  0.1623
15435W        W58488   6.876   2.997   1.971 -0.0056 -0.2610 -0.1157
15436W        W58489  26.430   7.393  18.734 -0.0908 -0.2422  0.1048
15437W        W58490  17.088  31.531  26.044  0.0493  0.1850 -0.1555
15438W        W58491  27.206  27.831  22.640  0.1054 -0.4489 -0.1265
15439W        W58492  28.814  29.205   0.824  0.1696  0.1682  0.2072
15440W        W58493  25.136  33.246  19.570  0.0007  0.2567  0.2285
15441W        W58494  25.563   1.003  20.764 -0.0234 -0.2119 -0.2529
15442W        W58495   2.534  24.091  22.442 -0.1979 -0.0804  0.0305
15443W        W58496  29.616   6.828  27.092 -0.0883 -0.1152  0.0445
15444W        W58497   3.808   4.040  14.931 -0.0980 -0.4189 -0.0855
15445W        W58498  25.512  33.570  19.619 -0.0762  0.0109  0.2355
15446W        W58499  20.692  12.428  17.658  0.1533  0.3338  0.1782
15447W        W58500   6.239  29.527   4.276  0.1028  0.0798 -0.2279
15448W        W58501  20.406  27.359  26.665  0.0930 -0.3209  0.0123
15449W        W58502  30.674   3.228  16.668  0.1907 -0.1446 -0.1101
15450W        W58503  18.602  34.138  18.432  0.2401  0.2804  0.1015
15451W        W58504   2.921   9.367  24.357 -0.1677  0.2114  0.0784
15452W        W58505   4.849   7.956  15.331  0.2995  0.2538  0.0264
15453W        W58506  29.333  31.700  27.964  0.1685  0.1764 -0.0725
15454W        W58507   6.604   9.509   5.935 -0.0990  0.1089 -0.0467
15455W        W58508  23.558  29.001  17.282 -0.1525  0.0792  0.0427
15456W        W58509  17.351   5.220   8.892  0.0121  0.0941  0.1088
15457W        W58510  18.039  21.263  21.871  0.1968 -0.0861  0.1901
15458W        W58511  29.305   4.869   0.557  0.0029 -0.0129  0.1295
15459W        W58512  13.417  15.016  29.047  0.1341  0.0297 -0.1109
15460W        W58513  26.132   8.798  15.403  0.0465  0.1360 -0.0665
15461W        W58514  34.307  11.757  18.380 -0.0650 -0.0705  0.0477
15462W        W58515  10.325  32.418  25.664  0.0751 -0.2348  0.0406
15463W        W58516  24.024   5.661  16.695  0.0094 -0.1144 -0.0349
15464W        W58517  33.419  21.864  18.153  0.0983 -0.2547  0.2575
15465W        W58518   8.497  31.579  18.512 -0.1283  0.0646  0.3430
15466W        W58519  20.416  10.282  26.702  0.2392 -0.0930  0.3171
15467W        W58520  29.570   6.943  21.454  0.0946  0.2834 -0.0160
15468W        W58521  17.179   1.053   3.426  0.0968 -0.0020 -0.2739
15469W        W58522  18.014   4.827  21.763 -0.1023 -0.0686  0.0985
15470W        W58523  22.043   6.726  19.570  0.0138  0.1411 -0.2354
15471W        W58524  22.549   2.791  28.877  0.0696  0.1697  0.2886
15472W        W58525   9.301  34.386  28.201  0.0661 -0.1506 -0.0997
15473W        W58526  33.220   5.791   0.220  0.0714 -0.2566  0.0682
15474W        W58527  27.767  12.317  17.955  0.2018  0.2567 -0.0279
15475W        W58528  16.536   2.916   8.620  0.1721  0.3590 -0.2432
15476W        W58529  11.177  28.256  26.048 -0.1399 -0.2439  0.3302
15477W        W58530  30.268   7.927  21.908 -0.3602 -0.2522 -0.1556
15478W        W58531  23.777  32.454  19.155 -0.0945  0.0843 -0.4449
15479W        W58532   5.689   6.704  16.823 -0.1840  0.0533  0.2235
15480W        W58533  28.988   9.240  14.351 -0.2558 -0.0451 -0.0864
15481W        W58534   3.093  13.521  20.064  0.1990  0.2938 -0.2906
15482W        W58535  32.028  19.278   1.808  0.1214 -0.1613 -0.0350
15483W        W58536   9.196   4.801  14.261 -0.2082  0.2494 -0.1179
15484W        W58537  26.369  13.234  23.080 -0.0090 -0.0341 -0.1918
15485W        W58538   2.289   7.448  16.770 -0.0867 -0.2234  0.2241
15486W        W58539  21.690   6.215  28.287  0.1816 -0.2469 -0.0619
15487W        W58540  16.046   1.250  21.795  0.1247 -0.0957 -0.2057
15488W        W58541  31.527  13.514  21.242  0.1960 -0.2785 -0.2537
15489W        W58542   9.497  18.166  20.245  0.2412 -0.0556  0.0831
15490W        W58543   8.995   7.805   7.144  0.0934  0.0946 -0.2689
15491W        W58544  22.686   3.559  26.324  0.1759  0.1339 -0.0856
15492W        W58545  33.891   5.430   1.285  0.0406  0.0400  0.2748
15493W        W58546   1.026  26.448   3.183  0.0145 -0.1351 -0.0343
15494W        W58547   4.887  13.960  20.810 -0.1045  0.0137 -0.0809
15495W        W58548  23.751  32.799  10.073  0.5379  0.3079  0.2563
15496W        W58549  29.491  24.049   8.204 -0.1644 -0.2115 -0.0381
15497W        W58550   1.212  32.378   4.791  0.1494 -0.0650  0.0675
15498W        W58551  20.958  15.722  24.831  0.1995  0.1488 -0.2119
15499W        W58552  18.711   2.558  15.139 -0.2439 -0.0682  0.0146
15500W        W58553  31.208   3.173  19.826 -0.0861  0.0549 -0.0485
15501W        W58554   6.750  30.730   5.042  0.0293 -0.4730  0.0194
15502W        W58555  19.935  16.620  27.358  0.0927 -0.0924  0.3233
15503W        W58556  21.731   7.761   9.864  0.1219  0.0458  0.3338
15504W        W58557  21.307  16.879  24.998 -0.3073 -0.0534  0.1211
15505W        W58558  20.140  10.348  24.964 -0.0884  0.0894 -0.1704
15506W        W58559  28.258  30.286  22.748 -0.1230  0.1633 -0.0481
15507W        W58560   2.249   9.513  14.377 -0.3314 -0.1121  0.2496
15508W        W58561  29.734  20.435   9.391 -0.0775 -0.0137  0.0996
15509W        W58562   5.813  25.338   1.844 -0.1353 -0.3961 -0.0417
15510W        W58563   9.563  24.736  14.632 -0.2996 -0.2939 -0.0299
15511W        W58564  15.621  26.447  21.503 -0.3517 -0.0509 -0.0651
15512W        W58565  32.080   6.732   6.680 -0.1526 -0.0901  0.2648
15513W        W58566  28.364  32.511  19.207  0.2445 -0.3036  0.1116
15514W        W58567  18.019  34.670  24.370 -0.1800 -0.3597  0.2133
15515W        W58568  28.625   5.520  19.247 -0.1112  0.2759 -0.0720
15516W        W58569  26.674  34.253  27.030  0.0309 -0.0530 -0.1146
15517W        W58570  12.266   1.422  20.599  0.0740  0.1986  0.1413
15518W        W58571   9.061  27.882  20.423  0.1499 -0.0949 -0.5738
15519W        W58572  25.940  32.427  29.187  0.1113 -0.2162  0.0361
15520W        W58573   0.103  26.275  26.727  0.0258  0.3537 -0.1722
15521W        W58574  24.334  23.281  24.134  0.0936 -0.2381  0.0043
15522W        W58575  27.739  30.385  24.650 -0.1225 -0.1499 -0.2950
15523W        W58576  25.612  16.892   0.824  0.0571 -0.2186 -0.1984
15524W        W58577  17.910  27.286  24.416 -0.0334 -0.1533  0.2569
15525W        W58578  14.913  15.452   0.935  0.1884  0.1266  0.0654
15526W        W58579  27.882   6.188   6.521  0.1245  0.0651 -0.0433
15527W        W58580  11.233  15.799  19.748  0.0415 -0.2278  0.2087
15528W        W58581  34.114  12.916  17.408 -0.1892  0.1538  0.2364
15529W        W58582  33.900  22.306   5.883 -0.1672  0.0446  0.1743
15530W        W58583  32.507  11.358  18.603 -0.0123  0.4147 -0.2358
15531W        W58584   7.225  27.228  27.230  0.2202  0.1996  0.2020
15532W        W58585  25.024  10.590   4.847 -0.2325 -0.0041  0.4205
15533W        W58586  28.316   8.217  27.680  0.1038 -0.2167  0.3339
15534W        W58587  31.600  13.016  25.890 -0.1390 -0.2158 -0.1752
15535W        W58588   1.071   5.715  22.279  0.0729  0.2759 -0.2054
15536W        W58589  17.943  22.343   1.699  0.2420 -0.4181 -0.1634
15537W        W58590  23.548  22.818  29.002 -0.0733 -0.3312  0.1025
15538W        W58591  21.040  33.613  28.792  0.0044 -0.0276 -0.1553
15539W        W58592  18.765  22.298  26.154  0.0166  0.2028  0.0203
15540W        W58593   8.713   4.852   1.060  0.2427 -0.0133 -0.0764
15541W        W58594  24.024  34.509  16.010 -0.3020  0.0019 -0.2631
15542W        W58595  34.350   0.960   3.979 -0.0949  0.0548  0.0681
15543W        W58596  32.966   6.642   1.477  0.1715 -0.0822 -0.1618
15544W        W58597  20.020   8.069   3.244 -0.0572  0.0355  0.0424
15545W        W58598   5.721   2.032  27.696 -0.2419  0.0454  0.1390
15546W        W58599  34.007  20.499   1.445  0.0999 -0.0452 -0.1263
15547W        W58600   7.832  13.857  21.792 -0.1224  0.0658 -0.4267
15548W        W58601  26.202   8.934  24.408  0.3361 -0.2547  0.0337
15549W        W58602  22.596  26.148  10.480  0.0193  0.1079 -0.0055
15550W        W58603  20.415  13.690   8.995  0.2755  0.2643 -0.1160
15551W        W58604   6.741   6.013  24.584 -0.0369 -0.2293  0.0475
15552W        W58605  32.687  26.444   9.025  0.0506 -0.0567  0.2853
15553W        W58606  33.648  33.773  13.838  0.2011  0.0943  0.0825
15554W        W58607  12.955  14.722   1.309  0.0772 -0.0668 -0.2204
15555W        W58608  20.680   3.486   1.352  0.1836 -0.4036 -0.0584
15556W        W58609   4.148  25.232  22.777  0.0287 -0.3569 -0.1151
15557W        W58610  16.961  20.850  28.179  0.2942  0.0186 -0.2196
15558W        W58611  26.137  17.766  16.706  0.1331  0.1690 -0.1213
15559W        W58612  18.231  11.037  23.490 -0.0044  0.1246  0.1178
15560W        W58613  24.468  28.577   3.979  0.0460  0.2119  0.2180
15561W        W58614  18.921  32.336  17.204  0.0681 -0.1232  0.3608
15562W        W58615  32.198  22.338  15.761 -0.1797 -0.3472  0.2922
15563W        W58616   8.567  18.362  14.863  0.0672 -0.0949 -0.0129
15564W        W58617  28.960   2.608  21.367  0.3481  0.0513 -0.1895
15565W        W58618  30.737  13.423   3.814 -0.0587  0.1697 -0.2023
15566W        W58619  19.753   3.708   0.120  0.1381 -0.1721  0.0273
15567W        W58620   2.545   1.917  29.062 -0.3888  0.0152 -0.1756
15568W        W58621   2.285  25.922   6.452  0.1445 -0.2677  0.0364
15569W        W58622  29.777  24.196   2.753 -0.1353 -0.1319 -0.2168
15570W        W58623   1.240  21.942   8.375 -0.1957 -0.3265 -0.0198
15571W        W58624   2.769  26.083  14.259 -0.1181 -0.0681 -0.2817
15572W        W58625  28.419  10.825   1.803 -0.1374 -0.1145  0.0486
15573W        W58626   2.703   7.637  15.402  0.1165 -0.0338 -0.2022
15574W        W58627   1.948  12.930   1.685  0.0322 -0.0029 -0.0072
15575W        W58628  28.817   8.769   1.079 -0.1220 -0.0389  0.2670
15576W        W58629  19.903   6.113   8.378 -0.1422 -0.2654 -0.0446
15577W        W58630  19.509   5.605   2.905  0.1059  0.0907  0.2179
15578W        W58631   2.656   7.114  19.205 -0.2343  0.1087  0.1140
15579W        W58632  21.946  32.039  25.460 -0.0095  0.0611 -0.0794
15580W        W58633   0.110  22.933  16.138  0.1019  0.0786 -0.2295
15581W        W58634  32.626  34.217  17.103 -0.1999 -0.1202 -0.0876
15582W        W58635   4.142   1.693   9.493  0.0648  0.0914 -0.1604
15583W        W58636  33.653  20.150   1.265  0.0984  0.0883  0.1355
15584W        W58637   6.173  30.081   5.258 -0.1419  0.4163 -0.2450
15585W        W58638  27.197  33.829  25.819  0.2520 -0.0968  0.0027
15586W        W58639   0.445  11.623  28.537 -0.2450 -0.2077 -0.0509
15587W        W58640  22.306  13.357  15.311 -0.1797  0.4219  0.2137
15588W        W58641   9.793  30.211  27.799 -0.2229 -0.2780 -0.1382
15589W        W58642  28.276   0.261  20.208  0.0540  0.1588 -0.0149
15590W        W58643   0.310  33.197  18.010  0.0232  0.0581  0.0375
15591W        W58644  30.876  33.888  23.618  0.1955 -0.2334 -0.1021
15592W        W58645   1.101   6.092   1.734  0.1891 -0.3028 -0.1497
15593W        W58646  11.359  32.761   0.125 -0.2034  0.0420  0.0094
15594W        W58647  25.692  33.409   7.805  0.3389 -0.2406  0.3226
15595W        W58648  21.265   8.984   0.765 -0.2779  0.1763 -0.2293
15596W        W58649  34.123  33.145   0.569 -0.0336 -0.3128  0.2589
15597W        W58650   3.827  22.923  13.986 -0.1641  0.1949 -0.1202
15598W        W58651  15.714  31.212  25.127  0.2199  0.0189 -0.0205
15599W        W58652   7.556  24.300  25.635 -0.1259  0.1745  0.1309
15600W        W58653  19.835   9.920   5.859  0.0496  0.2912 -0.4699
15601W        W58654  19.735  13.857   4.088  0.5545 -0.3100  0.1639
15602W        W58655  14.074   2.902  19.445  0.2010 -0.0640 -0.1013
15603W        W58656  27.190  10.304  10.629  0.0668  0.0138 -0.1715
15604W        W58657  34.240   4.358  10.080  0.0068 -0.0279  0.1503
15605W        W58658  31.882  14.165  25.815 -0.5809 -0.0128  0.0271
15606W        W58659  27.856  22.314  18.386 -0.1590  0.5126 -0.0206
15607W        W58660  22.434  13.601  22.304  0.1706 -0.2225 -0.1693
15608W        W58661  19.860   1.343  27.944  0.1861 -0.0085 -0.1792
15609W        W58662  30.924   8.637  19.799 -0.0815  0.3047  0.0212
15610W        W58663   9.856   3.863  25.089  0.1406 -0.0589  0.1014
15611W        W58664   2.191   4.476  17.982  0.1056  0.1332 -0.0124
15612W        W58665  21.463   5.121   7.455 -0.0217  0.0651  0.2632
15613W        W58666   0.638   6.920   0.985  0.2193 -0.1211 -0.1052
15614W        W58667  28.571  23.756  27.561  0.0346  0.0073  0.2509
15615W        W58668  30.772   4.318  17.507 -0.3519 -0.4532  0.1261
15616W        W58669  11.954   1.345   4.855 -0.3500  0.0611  0.0153
15617W        W58670  21.812   1.042   4.358 -0.2083  0.0058 -0.1164
15618W        W58671  31.593  32.281   9.058  0.3329 -0.0967 -0.2691
15619W        W58672   1.516   1.547  26.200 -0.0227  0.0398 -0.3408
15620W        W58673  20.551  26.209  23.553  0.2128  0.0231  0.3236
15621W        W58674  12.545  14.720   2.989  0.1799  0.0324 -0.0888
15622W        W58675  23.018   3.770  18.515  0.0588  0.1054 -0.0594
15623W        W58676   2.836   3.547  24.205  0.1756  0.0534 -0.1945
15624W        W58677  33.640  29.632  19.306 -0.1779 -0.4453 -0.1179
15625W        W58678   1.338   8.145  23.656 -0.1169  0.3280 -0.0487
15626W        W58679  30.775  29.973  19.341  0.1128 -0.4879 -0.0334
15627W        W58680  27.333   2.744  21.972 -0.1025 -0.0769 -0.3456
15628W        W58681  29.506  11.933  25.247 -0.0901  0.0833 -0.0706
15629W        W58682  20.672   7.623   2.898  0.0777  0.1644 -0.0741
15630W        W58683  19.857   9.403  27.308  0.1835  0.1735  0.2368
15631W        W58684  16.591   2.769  19.150  0.2924  0.1668 -0.0408
15632W        W58685   3.525   2.470  21.934  0.0722  0.1510  0.0564
15633W        W58686  24.832  32.587   5.939  0.2586 -0.1625 -0.2620
15634W        W58687   1.928  20.140  21.636  0.2213 -0.2129 -0.4186
15635W        W58688   0.751   0.772   4.883  0.2555  0.1764  0.2635
15636W        W58689  22.741  11.598  14.880 -0.2132  0.0228 -0.0496
15637W        W58690  33.876  31.221   7.520  0.1516  0.3399 -0.0274
15638W        W58691  30.052  24.038   3.330 -0.1603  0.1435  0.1918
15639W        W58692  20.994  29.918  22.914 -0.0477  0.1109  0.0483
15640W        W58693  32.104   7.615   3.883  0.2482  0.2532  0.1331
15641W        W58694  22.522  29.844  23.009  0.1614  0.4747 -0.0759
15642W        W58695  24.757   7.880  21.171  0.0455  0.0497  0.4085
15643W        W58696  23.933  10.799  27.844 -0.0057 -0.1690 -0.2834
15644W        W58697  20.648  14.801  21.052 -0.1784 -0.0966  0.2101
15645W        W58698  24.156   6.603   4.397  0.0844  0.0340  0.0546
15646W        W58699  24.503  27.342  26.774  0.1206 -0.2149  0.0457
15647W        W58700  26.148  27.810  26.810  0.3187 -0.0032  0.2077
15648W        W58701  22.778   9.097   1.862  0.1351 -0.1707 -0.1024
15649W        W58702  31.794  10.098  22.962 -0.0712 -0.0739 -0.2879
15650W        W58703  14.060  32.512  16.793  0.0702  0.2666 -0.0970
15651W        W58704  15.442   1.887  25.048  0.3933 -0.2003 -0.1066
15652W        W58705  10.107  27.312   5.834  0.1167  0.0036  0.0752
15653W        W58706  21.320   6.393  22.747  0.0949 -0.2982 -0.0083
15654W        W58707   1.108  17.869  23.851 -0.1273  0.0030 -0.2026
15655W        W58708  30.417  13.085   6.639 -0.1374  0.5747 -0.0923
15656W        W58709  26.045   8.890   9.819  0.1948  0.1239 -0.2204
15657W        W58710  21.318  16.341  23.005  0.1019  0.0341 -0.1981
15658W        W58711   2.366  32.322  26.900  0.1525  0.0756  0.1738
15659W        W58712  15.607  23.272  16.832 -0.3877  0.3008 -0.1997
15660W        W58713  15.349   9.368  17.511 -0.0854  0.2037  0.2306
15661W        W58714   0.355   8.897  20.619 -0.2549  0.1268 -0.0754
15662W        W58715   0.757  33.824  16.592 -0.0836 -0.0831  0.0192
15663W        W58716  25.924  27.979  24.737  0.0781 -0.0061  0.2594
15664W        W58717  10.578  32.839   7.892 -0.1504  0.0476  0.2548
15665W        W58718  27.069  16.188  28.556  0.0852  0.0640  0.0199
15666W        W58719  15.166  11.499  28.813 -0.1408  0.1902 -0.3444
15667W        W58720  11.814  10.830  19.317  0.2153  0.5573  0.4408
15668W        W58721  27.371  26.982  20.888  0.1301  0.4725 -0.0630
15669W        W58722  17.344  27.553   8.529 -0.2853  0.0424 -0.1294
15670W        W58723  16.117  31.213  24.305 -0.2666  0.2273 -0.0722
15671W        W58724   3.038  32.251  20.990 -0.1013 -0.0358 -0.3092
15672W        W58725  24.899  27.916  16.849 -0.0463  0.0450 -0.0155
15673W        W58726  20.910   0.608   5.055  0.2505 -0.1107 -0.3620
15674W        W58727  21.876  34.293  28.101 -0.1085 -0.0959  0.2218
15675W        W58728  17.823   0.859   1.487  0.1628 -0.1275 -0.0611
15676W        W58729  30.480   5.149  22.183  0.0078  0.2750  0.0851
15677W        W58730   0.044  23.326  17.145  0.0054 -0.3712 -0.1200
15678W        W58731  30.447   1.297  21.583 -0.4063  0.0119 -0.2116
15679W        W58732  28.102   7.401   3.571  0.0930 -0.0381 -0.1827
15680W        W58733  17.323  11.467   0.721 -0.5668 -0.0138 -0.2419
15681W        W58734  31.124  15.706  23.594 -0.1752 -0.0468  0.0711
15682W        W58735  28.835  13.652  14.870 -0.1410 -0.3054  0.2268
15683W        W58736  26.583   9.917   7.721  0.0605 -0.0901 -0.0087
15684W        W58737  18.484  29.374   6.698  0.2049  0.0798 -0.1066
15685W        W58738  30.495  33.788  24.393  0.0604 -0.1005 -0.0819
15686W        W58739  13.167  17.378   2.283 -0.0659  0.1086  0.2341
15687W        W58740  33.400  17.456  20.598 -0.0726 -0.1245  0.0993
15688W        W58741  20.275  11.683  23.493 -0.2687  0.2497  0.2785
15689W        W58742  26.092   3.676  23.657  0.0555 -0.1310  0.0708
15690W        W58743  33.386   2.670  21.353 -0.1790 -0.3970 -0.0794
15691W        W58744  32.844  32.310   1.127  0.4423  0.0301 -0.1082
15692W        W58745   7.262  25.929  22.265 -0.0496  0.2469  0.1222
15693W        W58746  33.045   9.176  22.071 -0.2228 -0.0277 -0.0995
15694W        W58747  31.058   5.166   1.118  0.1642 -0.0616  0.0618
15695W        W58748  32.222  32.708  17.113 -0.0061 -0.0341 -0.1312
15696W        W58749  31.825   8.860  22.242 -0.0880 -0.1667 -0.4677
15697W        W58750  26.197   5.823  15.369  0.1437 -0.1613 -0.3536
15698W        W58751  27.897  34.285   4.201 -0.0967 -0.1318 -0.0260
15699W        W58752  15.242   4.561  16.395  0.2303  0.1150 -0.0717
15700W        W58753  10.723   0.489   1.540  0.0529 -0.1464  0.3480
15701W        W58754  34.491   0.418   2.150 -0.2645 -0.0214  0.1492
15702W        W58755  10.505  10.576  24.622 -0.1719 -0.1123 -0.0543
15703W        W58756   4.565  29.403  26.747 -0.0192  0.3096 -0.0028
15704W        W58757  24.347   2.414  10.422 -0.0264 -0.1427  0.1946
15705W        W58758  23.830   3.318  27.194  0.0605 -0.1554  0.3010
15706W        W58759  16.519  12.703   1.969  0.0103  0.0422  0.0930
15707W        W58760  23.964  13.209  17.297  0.4770 -0.1197  0.1500
15708W        W58761  14.205   0.344  10.451 -0.4981 -0.3109  0.0317
15709W        W58762  18.655   7.166  19.466  0.2719 -0.1002 -0.2036
15710W        W58763  23.935  33.890  22.858 -0.4441  0.1474 -0.1725
15711W        W58764  18.524  27.146   6.454 -0.1373 -0.0964 -0.0976
15712W        W58765   5.200  18.397   6.255 -0.2420 -0.1888  0.1381
15713W        W58766   5.677  12.213  16.762 -0.1503 -0.2932 -0.2411
15714W        W58767  19.695  12.958  14.940 -0.0123  0.0730  0.0626
15715W        W58768  27.362  25.517  26.987 -0.0036  0.2037 -0.0457
15716W        W58769  23.649   3.253   0.860  0.0765  0.0501  0.1914
15717W        W58770  18.936   7.028  20.446  0.1709 -0.2399  0.0591
15718W        W58771  19.006  15.440  22.178  0.0281 -0.2427 -0.1970
15719W        W58772  25.107   4.683   0.460  0.0660 -0.2630 -0.2743
15720W        W58773  32.886   7.350  27.663  0.1816 -0.2276  0.1489
15721W        W58774   7.279   2.123   6.460 -0.2153 -0.2022 -0.1459
15722W        W58775   5.193   0.558   2.004 -0.0503  0.1883  0.3341
15723W        W58776   4.425  28.607  20.692 -0.3335  0.1003 -0.0105
15724W        W58777  24.303  32.973  19.562  0.2170 -0.1640 -0.1328
15725W        W58778  25.087  11.320  13.715  0.1890  0.2376  0.2424
15726W        W58779  21.365   5.499  18.021 -0.1415  0.2275  0.1456
15727W        W58780  28.999  23.544  18.713  0.1042  0.0709  0.1334
15728W        W58781  17.713  10.045   2.288  0.0739 -0.2375 -0.2329
15729W        W58782  26.666  30.073   0.522  0.0114  0.2722  0.0542
15730W        W58783   4.466  30.679  17.998 -0.1145 -0.2129  0.0511
15731W        W58784  25.726   8.593  17.732  0.0005 -0.0112  0.2819
15732W        W58785  33.620  23.324  23.055 -0.0619 -0.1665  0.2842
15733W        W58786  31.442  28.824  25.070 -0.0924 -0.1106  0.0263
15734W        W58787  26.460  31.054  22.376 -0.1762  0.2739 -0.1522
15735W        W58788  17.780   6.733  24.889  0.0099 -0.1851  0.2489
15736W        W58789  23.504   6.775  21.206 -0.2553 -0.1161 -0.0473
15737W        W58790  27.919  23.655  26.439 -0.0890 -0.2200  0.0071
15738W        W58791   9.574  28.821  15.485  0.0496 -0.0087 -0.0949
15739W        W58792  34.104  29.373  14.810  0.2471  0.2324 -0.0116
15740W        W58793  32.727   9.204  17.805  0.1177 -0.1649  0.1333
15741W        W58794  20.599   4.891   8.520 -0.0949  0.2228 -0.3512
15742W        W58795  28.027  12.786   9.358  0.4226 -0.0586 -0.0732
15743W        W58796  26.539  13.980  19.348 -0.2764  0.1325  0.1175
15744W        W58797  30.211   9.065  16.356  0.0265  0.3470 -0.0285
15745W        W58798  25.385   2.642   7.125 -0.1555  0.1687 -0.0492
15746W        W58799  24.672  15.294   7.629  0.0925  0.0608  0.0987
15747W        W58800  24.117   2.621  15.354 -0.0239 -0.2348 -0.2066
15748W        W58801   7.597  32.844  28.664 -0.2790 -0.1478 -0.1219
15749W        W58802   8.479  23.797  24.112  0.0725 -0.1853 -0.2428
15750W        W58803   1.667  24.859  17.790  0.3107 -0.1499  0.1061
15751W        W58804  30.994  20.218  15.538  0.2208 -0.2217  0.0856
15752W        W58805  19.992   0.188   1.205 -0.0331 -0.0375  0.1827
15753W        W58806  32.439  25.734  28.738  0.2139  0.1394 -0.3010
15754W        W58807  31.427  33.399  20.781  0.3412 -0.2686  0.1424
15755W        W58808   0.991   2.795  17.534  0.0111  0.1009  0.1172
15756W        W58809  16.320   9.533  25.862  0.2692  0.2215 -0.3340
15757W        W58810  21.068  16.461   0.870 -0.0916 -0.1615  0.0130
15758W        W58811  22.821   7.024   8.030 -0.0874 -0.0721 -0.0411
15759W        W58812  31.458  30.862   6.943  0.4327 -0.1784  0.0359
15760W        W58813  30.746  31.502  26.810  0.2579  0.0324 -0.0427
15761W        W58814   1.060  28.738  22.828 -0.1337  0.2172 -0.3415
15762W        W58815  33.523  32.077   5.908  0.1187  0.0825  0.0602
15763W        W58816  19.865   6.152  21.049  0.2421 -0.2186  0.0700
15764W        W58817   4.725  21.263  24.586 -0.1329  0.1819 -0.1515
15765W        W58818   6.761   5.419   4.217 -0.1130 -0.2167  0.4230
15766W        W58819  25.469   5.275  20.049  0.3455  0.1505  0.0902
15767W        W58820  17.932   3.686   0.520  0.0130 -0.0597 -0.1842
15768W        W58821  16.699  25.928   6.421 -0.0377  0.4218  0.0265
15769W        W58822  31.712  14.117   0.560 -0.0141  0.0680 -0.1669
15770W        W58823  27.381   1.217  23.215  0.2675 -0.0020 -0.3518
15771W        W58824  33.132   2.626  27.934 -0.2624  0.2057  0.0875
15772W        W58825  32.953  26.307  16.718 -0.1077  0.0805 -0.0636
15773W        W58826  21.013  27.356  10.260  0.4790 -0.1542  0.0280
15774W        W58827   0.298  30.591  23.868  0.0311 -0.3658  0.0998
15775W        W58828  27.086  33.732   0.122  0.0574 -0.0381  0.1916
15776W        W58829   9.517  24.073   3.169  0.0274  0.0936 -0.2027
15777W        W58830  24.788   5.729   3.001  0.0365 -0.2073 -0.4921
15778W        W58831  18.189   2.292   3.510 -0.1094 -0.1099  0.2738
15779W        W58832  20.276  25.821   8.668 -0.0556 -0.2542  0.0360
15780W        W58833   3.054  29.159   7.765 -0.2437 -0.0817 -0.0251
15781W        W58834  19.633  11.118  16.685  0.2225  0.0738 -0.3415
15782W        W58835  15.548  23.921   4.543  0.0841  0.0752 -0.0576
15783W        W58836  26.462   3.895   2.980  0.0109  0.0482  0.0570
15784W        W58837  29.304   2.928  24.782 -0.1877 -0.4556 -0.5546
15785W        W58838  16.818   4.534  10.264  0.0571  0.1480  0.0251
15786W        W58839  26.377  32.002  28.261 -0.0773  0.0989  0.0937
15787W        W58840  31.136  34.104   7.764 -0.4627  0.3206  0.2109
15788W        W58841  23.895   1.288   6.708  0.1392  0.0336  0.3062
15789W        W58842  32.081  21.542   1.884 -0.3024  0.1185 -0.1570
15790W        W58843  19.140   6.379  17.932 -0.0936  0.1267  0.3051
15791W        W58844  29.222   0.922  22.999  0.5126  0.3386  0.1827
15792W        W58845   7.020  34.219  22.922  0.2436 -0.1174  0.2417
15793W        W58846  31.125  26.748   5.804 -0.1447 -0.0903  0.1581
15794W        W58847  33.946   1.286  27.616 -0.1877 -0.1299  0.3164
15795W        W58848  23.338   6.357  19.366 -0.1565 -0.0823 -0.0293
15796W        W58849  34.323   5.079  28.987  0.1127 -0.3230  0.1294
15797W        W58850  22.435  24.925  20.280  0.0501 -0.0587  0.2154
15798W        W58851   1.078   1.521  17.829 -0.3134  0.0604 -0.1079
15799W        W58852  21.051  33.547   6.534  0.4137 -0.1573 -0.2901
15800W        W58853  23.556  30.474   2.260  0.1169  0.1361  0.0270
15801W        W58854   7.581  26.556  19.306 -0.0182  0.2994 -0.0805
15802W        W58855  20.532  34.338  25.130 -0.3215  0.2135  0.1959
15803W        W58856  17.349   0.558   3.164 -0.5012  0.2507  0.0985
15804W        W58857  23.169  26.697  14.721 -0.0333 -0.0941 -0.2204
15805W        W58858  25.680   4.501   3.102  0.1662  0.0404  0.2488
15806W        W58859  29.350   6.737   4.542  0.3176  0.1319 -0.0020
15807W        W58860  29.432  27.079  16.274 -0.1418  0.1456  0.0236
15808W        W58861  18.878  25.403   0.584  0.0230 -0.1947 -0.1313
15809W        W58862  24.203  12.227  16.194 -0.2036  0.1968 -0.1833
15810W        W58863  20.574   0.678  23.521 -0.1478 -0.0678  0.1310
15811W        W58864   7.808  13.950   1.689  0.2954 -0.1153 -0.2426
15812W        W58865  13.024   5.884  10.012 -0.1857 -0.1330 -0.1152
15813W        W58866  19.842  31.173   5.110  0.0657  0.3112  0.0651
15814W        W58867  14.602  28.393   0.102 -0.1775  0.1178 -0.2021
15815W        W58868   0.140   5.091  28.829 -0.0679  0.2709  0.1180
15816W        W58869   5.321  21.258  23.853 -0.2103 -0.1044 -0.0701
15817W        W58870  34.423  29.783  15.410  0.0469 -0.1332  0.0974
15818W        W58871  31.612  33.449  24.217  0.3523  0.1219  0.0077
15819W        W58872  12.000  26.226  24.278  0.1047  0.1622 -0.5480
15820W        W58873  34.555   4.236   5.768 -0.1398 -0.0600  0.1072
15821W        W58874   3.584  18.313  18.134  0.0926  0.1027 -0.1038
15822W        W58875   1.691   6.661   6.290  0.1089  0.1041 -0.1309
15823W        W58876  11.820  29.890  26.769  0.0003 -0.2927 -0.0313
15824W        W58877  21.356   7.246  25.309  0.1536  0.0208  0.0900
15825W        W58878   4.119   5.507  24.165  0.0354 -0.1846 -0.0250
15826W        W58879  22.721  27.944   1.009  0.1039 -0.0154  0.0886
15827W        W58880  15.236   7.924  19.665  0.0232 -0.0279 -0.4099
15828W        W58881  30.568  29.525   3.032  0.1226  0.1066  0.0338
15829W        W58882  17.515   4.564   3.115 -0.1079  0.0725  0.2254
15830W        W58883  31.319  32.450   5.812  0.0387 -0.1438 -0.1806
15831W        W58884  25.236  26.200  19.324 -0.2763  0.0091  0.0786
15832W        W58885  19.595   0.663  24.142 -0.1193 -0.1661  0.1575
15833W        W58886  12.814   5.691   6.436 -0.1504 -0.0383  0.3398
15834W        W58887  22.309   8.888  28.431 -0.1266  0.1094 -0.1555
15835W        W58888   7.682  23.773   2.414 -0.1593  0.0954  0.1534
15836W        W58889  13.872  30.880  22.233 -0.2815  0.2533  0.2262
15837W        W58890  25.206  32.024  26.912 -0.3416  0.0314 -0.0959
15838W        W58891  25.131  13.948   9.699  0.0847  0.0556 -0.2487
15839W        W58892  22.158  34.132   9.376 -0.1678 -0.2522 -0.0455
15840W        W58893  29.243  27.697  20.332  0.4569  0.0409 -0.1658
15841W        W58894  14.696   2.469  29.033 -0.1154  0.3349 -0.0008
15842W        W58895  27.593  23.671  27.356  0.0832  0.2137  0.0783
15843W        W58896  21.224  26.297   1.583  0.1821 -0.1229 -0.0104
15844W        W58897  16.090   4.458   7.619 -0.0969 -0.0888 -0.2280
15845W        W58898  25.939  26.376  14.729  0.1418 -0.0138 -0.2185
15846W        W58899  13.751  27.317  14.280  0.0768  0.2271  0.1677
15847W        W58900  32.516   5.741  19.680 -0.0195  0.2422 -0.3168
15848W        W58901  29.138   4.809  27.445  0.0520  0.2896  0.2074
15849W        W58902  24.327  33.429   0.876  0.0905 -0.0353  0.3396
15850W        W58903  26.506  26.274   6.668  0.2738  0.0431  0.0341
15851W        W58904  28.429  11.755  25.181 -0.0657  0.0507  0.0290
15852W        W58905  25.362  16.999  23.259  0.3409 -0.0884  0.1234
15853W        W58906  28.489  30.969  20.255 -0.1583  0.1121  0.0130
15854W        W58907  32.284   4.693  24.110 -0.0805  0.0072  0.1500
15855W        W58908   5.724   0.775  20.634  0.3881  0.0529 -0.2856
15856W        W58909  23.264   1.956   8.439 -0.0286 -0.2195 -0.0471
15857W        W58910  29.510  30.829  10.245 -0.1040  0.1626 -0.0160
15858W        W58911  23.030  10.247   3.708 -0.0632  0.1963  0.0689
15859W        W58912  16.568  21.450   4.851 -0.0506  0.1797 -0.1278
15860W        W58913  10.319  14.583  18.434 -0.0274 -0.0151 -0.0108
15861W        W58914   6.465  13.889  27.337 -0.2436 -0.0551  0.0535
15862W        W58915   6.165   4.303  24.229 -0.1678  0.0284  0.1452
15863W        W58916  29.030  21.553  24.675 -0.0070  0.2003  0.4430
15864W        W58917  12.541  31.904  18.835 -0.0452 -0.0357  0.0991
15865W        W58918  28.748  15.060  19.770 -0.1408  0.1614  0.1483
15866W        W58919  28.959  15.131   6.979 -0.5246  0.2027  0.1549
15867W        W58920  29.286  24.746  22.422  0.1771 -0.3662 -0.0054
15868W        W58921  28.776  26.563  22.195 -0.1572  0.1737 -0.1558
15869W        W58922  14.961  12.722  22.270 -0.3299 -0.0143 -0.4546
15870W        W58923   9.551  27.034  23.262 -0.1695 -0.0800 -0.2672
15871W        W58924   3.225  16.318  20.491 -0.2055  0.0498  0.1227
15872W        W58925  34.626   0.443   5.957  0.2577  0.3813  0.2905
15873W        W58926  24.871   0.475  16.405  0.0449 -0.0789 -0.3042
15874W        W58927  30.712  16.215   8.094 -0.0438  0.2739  0.1209
15875W        W58928  13.659  31.900   9.373 -0.0192 -0.1267  0.1639
15876W        W58929  17.558  15.417   8.786  0.1087  0.2633 -0.0095
15877W        W58930  33.580  34.593  28.820  0.1800 -0.4203  0.0210
15878W        W58931   3.097  13.995  15.200 -0.1916  0.2096  0.2344
15879W        W58932  22.068  28.286  10.594 -0.0790  0.2051 -0.2940
15880W        W58933   0.221  28.683  19.011 -0.0176 -0.0868  0.1555
15881W        W58934  30.788   4.706  28.719 -0.1045 -0.0866  0.1085
15882W        W58935  13.473   7.344   6.101 -0.0986  0.0964 -0.1190
15883W        W58936  25.921  21.410  25.676 -0.2020 -0.2539  0.0208
15884W        W58937  27.967  27.448   5.623  0.4334  0.1700 -0.0554
15885W        W58938  20.972  10.035   5.663 -0.0096  0.4050 -0.0381
15886W        W58939  23.614  11.556  22.681  0.1440 -0.1763 -0.0375
15887W        W58940  19.022   2.704  16.671 -0.2821 -0.1212  0.0458
15888W        W58941  22.756  33.070   5.071 -0.2031 -0.1417 -0.1866
15889W        W58942  20.528   1.647  24.191 -0.0281 -0.4666 -0.0270
15890W        W58943   7.253  21.097   5.531 -0.0891  0.1875  0.3844
15891W        W58944  23.430  14.626  23.110  0.0042 -0.1306  0.2735
15892W        W58945  16.238   7.978  27.974 -0.1203  0.2310  0.0147
15893W        W58946   5.226  34.312  20.978  0.3117  0.0773 -0.1786
15894W        W58947  21.494  33.924   9.217 -0.0623  0.2168 -0.1379
15895W        W58948  30.584  10.506  22.513  0.0497 -0.1479  0.2671
15896W        W58949  27.086  14.809   3.248 -0.2143 -0.1304  0.3478
15897W        W58950  30.389   2.523   3.659 -0.0176 -0.2295 -0.0353
15898W        W58951  17.392  11.280  18.493 -0.0919 -0.1307  0.0706
15899W        W58952  17.877   7.143   2.614 -0.3435  0.2037 -0.0149
15900W        W58953  17.538  22.456  26.979 -0.1784 -0.1506 -0.1220
15901W        W58954  19.628  10.911  17.171 -0.0341 -0.0929  0.2922
15902W        W58955  31.110  27.236   3.504  0.2974 -0.0349  0.0971
15903W        W58956  25.763   2.517  15.522 -0.0520  0.1857  0.0763
15904W        W58957  12.923  31.066  25.240  0.0808  0.2226  0.1323
15905W        W58958  29.887   3.676   5.768 -0.5478 -0.3391  0.0821
15906W        W58959  22.150  10.089   2.290  0.0455  0.1763  0.0896
15907W        W58960  10.891  32.182  19.941 -0.0076  0.2761  0.0094
15908W        W58961   9.580   2.217   9.789  0.1119  0.0796  0.0482
15909W        W58962  25.425  28.907   4.608 -0.0573  0.0703  0.1840
15910W        W58963  23.592   3.222   7.775 -0.0853  0.1159  0.1466
15911W        W58964  26.324  26.662   3.821 -0.0047 -0.0668  0.0488
15912W        W58965  21.754   0.234   3.336 -0.2546 -0.0586 -0.1222
15913W        W58966  32.198   9.172   7.398 -0.2060  0.2211  0.1954
15914W        W58967   1.521  27.554   4.923  0.1328 -0.1551  0.2472
15915W        W58968  20.152  22.721   7.668  0.1372  0.0285 -0.0656
15916W        W58969  24.314   7.046   3.188  0.0296 -0.0108  0.2468
15917W        W58970   0.998  12.395  22.551  0.1555 -0.1271  0.1943
15918W        W58971  17.977   6.503   1.839  0.4217  0.0361 -0.2376
15919W        W58972  27.904   3.811   3.186  0.0741  0.2527  0.1118
15920W        W58973   2.578  26.682  28.142  0.0640 -0.0186  0.1190
15921W        W58974  27.777   8.959  18.861  0.3643  0.0216 -0.0840
15922W        W58975   1.544  33.881   2.980  0.3371 -0.2970 -0.1656
15923W        W58976  18.090  24.620  27.185  0.2022  0.1108 -0.1863
15924W        W58977   7.748   2.635  26.775 -0.2960 -0.1002 -0.0955
15925W        W58978  16.573  10.680   5.695  0.0313  0.3413  0.0680
15926W        W58979  10.577   6.909  21.239 -0.0112 -0.0955 -0.1864
15927W        W58980  25.548   9.370   7.572 -0.0646  0.1028 -0.0274
15928W        W58981  26.734   4.434   4.104  0.1938  0.0824  0.0830
15929W        W58982   7.937   8.006   9.199 -0.1600 -0.1261 -0.1749
15930W        W58983  20.190  13.964  28.931  0.0511 -0.1281  0.1782
15931W        W58984  12.359  10.579   6.557 -0.0260  0.0646  0.0968
15932W        W58985  30.656   6.230  16.243 -0.0958  0.0580 -0.1560
15933W        W58986  22.561   9.040  26.557 -0.1876 -0.3760 -0.1500
15934W        W58987  34.433  17.021  23.993  0.0153  0.3635 -0.1650
15935W        W58988  30.259   3.110  27.152  0.0989 -0.1465  0.2071
15936W        W58989  18.187  29.568   5.961 -0.3428  0.1180  0.2056
15937W        W58990   2.823  31.313  25.807 -0.1920  0.1336 -0.1317
15938W        W58991   8.142  12.387   5.645 -0.2584  0.0127  0.2846
15939W        W58992  34.032  24.584  27.762 -0.2918  0.0404 -0.1942
15940W        W58993  14.688  13.255  20.601  0.2505 -0.1201 -0.3488
15941W        W58994  34.244  26.819   8.375  0.3668 -0.0487 -0.1549
15942W        W58995  22.722  27.829  17.518 -0.0306 -0.2594  0.1055
15943W        W58996  13.236   9.459  18.488  0.0935  0.1633 -0.0265
15944W        W58997  31.145   2.454   6.228 -0.0497  0.1030 -0.0707
15945W        W58998  13.555   7.738   8.166  0.0981 -0.2354  0.1180
15946W        W58999  32.285  28.131  18.038 -0.0801 -0.2583  0.1763
15947W        W59000  14.026  10.965   2.315 -0.2213  0.0839  0.1420
15948W        W59001  27.993   0.061  15.289 -0.3829 -0.1843 -0.0386
15949W        W59002  22.178  31.604  17.908  0.0835  0.0194 -0.2643
15950W        W59003  24.236  28.520  14.006 -0.1686 -0.1903 -0.1310
15951W        W59004  19.055   5.157  19.390 -0.3714  0.1408 -0.0752
15952W        W59005  14.857  33.854  27.949  0.4334  0.0721 -0.0432
15953W        W59006   9.150  15.259   3.259 -0.4368 -0.0631  0.2361
15954W        W59007  10.483  19.023  26.993 -0.3476  0.1163  0.3892
15955W        W59008  22.893   7.229   1.123  0.2901  0.1689  0.0074
15956W        W59009   5.007  11.576  26.278  0.0538 -0.1628 -0.0632
15957W        W59010  12.299   4.356  16.378 -0.0213  0.2158  0.1676
15958W        W59011  20.180  13.297   0.242 -0.2127 -0.0117  0.2257
15959W        W59012  18.585   3.082  19.211 -0.0562 -0.0430  0.0477
15960W        W59013  17.345   2.070  26.418  0.1319 -0.0896  0.2504
15961W        W59014  21.268   0.411  15.940 -0.1888  0.0354  0.0958
15962W        W59015   5.187   2.970  24.142  0.0054 -0.3511 -0.0926
15963W        W59016  17.443   6.735  18.457  0.3487  0.1674  0.0932
15964W        W59017  19.519  33.723  18.327  0.0679  0.2341 -0.0025
15965W        W59018  27.356  29.693  19.019  0.2870  0.0617  0.2012
15966W        W59019  27.155  34.270  19.738  0.0900  0.1958  0.1529
15967W        W59020  30.159  30.692  20.101  0.0011 -0.1215 -0.0876
15968W        W59021  25.345  13.099  19.396  0.2673 -0.1109 -0.1206
15969W        W59022  30.583  30.713  21.935 -0.1770  0.2355  0.2182
15970W        W59023  14.999  22.463  20.157 -0.0023  0.1697  0.0304
15971W        W59024  32.373   8.395  20.938 -0.4385  0.1132  0.1115
15972W        W59025  20.647  21.537  17.256  0.1675  0.0801 -0.2295
15973W        W59026  20.416   4.072   4.047  0.1510 -0.0276 -0.2102
15974W        W59027  33.754  29.199  15.844  0.0719  0.0130 -0.0708
15975W        W59028  25.955   2.718  28.643 -0.1259  0.1568 -0.0290
15976W        W59029   0.001  11.477  23.353 -0.0602  0.0590  0.0847
15977W        W59030  22.517  14.770  16.760  0.2180  0.2535  0.4202
15978W        W59031   9.670  11.280  17.019 -0.1652 -0.1008 -0.0824
15979W        W59032  21.261   6.476  15.275  0.0138  0.2695  0.2449
15980W        W59033  13.314   5.759   0.297 -0.0460 -0.4417 -0.1126
15981W        W59034  26.913   7.358  23.434  0.1292  0.5146 -0.1227
15982W        W59035  30.166  34.565  18.733 -0.1203 -0.2044  0.0008
15983W        W59036  26.508  18.774  28.267 -0.3605  0.0156  0.2688
15984W        W59037  12.703  31.232  22.763 -0.0687 -0.1917 -0.0854
15985W        W59038  21.779  14.119   0.084  0.0774  0.1098 -0.2567
15986W        W59039  29.590   1.658  14.368 -0.0908 -0.0199 -0.0254
15987W        W59040  17.724  29.837  19.809 -0.1812  0.1361  0.1090
15988W        W59041  11.305   7.664  17.678 -0.0840  0.1513 -0.1257
15989W        W59042   6.107  17.948  18.595 -0.2717 -0.0119 -0.2371
15990W        W59043  18.482   6.023  15.816  0.2165 -0.1756 -0.4541
15991W        W59044  27.856  14.471  13.660 -0.1177 -0.0848  0.0229
15992W        W59045  32.219   1.067  27.317  0.5638  0.3035  0.3410
15993W        W59046  18.628  20.784  24.898  0.3601  0.0994  0.3067
15994W        W59047  22.879  14.833  16.262 -0.1717 -0.1889  0.3066
15995W        W59048   9.835  10.389  21.499 -0.1992  0.2553  0.3917
15996W        W59049  21.678  16.478  24.173 -0.2639  0.4283 -0.0654
15997W        W59050  31.667  29.136   3.020  0.1188 -0.0370 -0.1468
15998W        W59051   0.037   2.510  16.015  0.0274 -0.0652  0.1340
15999W        W59052  27.784  32.566  15.569  0.3387  0.1127 -0.1259
16000W        W59053  20.059  18.769  14.922  0.1283  0.4848  0.1999
16001W        W59054  22.699  31.402  28.657  0.1662 -0.1665  0.1544
16002W        W59055   7.934  10.752  21.531 -0.2016 -0.1076 -0.0822
16003W        W59056  28.035   9.805  18.833 -0.0178 -0.3400 -0.2184
16004W        W59057   1.153  18.491  19.863 -0.1068 -0.0719  0.0097
16005W        W59058  32.895  14.774   1.765  0.2362 -0.1216 -0.0510
16006W        W59059  12.480   7.869  20.956 -0.4027  0.1103 -0.1194
16007W        W59060   4.361  12.997  21.576  0.2053 -0.2475  0.0973
16008W        W59061  28.573  19.471  26.298  0.0155 -0.1196  0.4308
16009W        W59062  30.330   6.291  27.308 -0.1260  0.1767  0.1097
16010W        W59063   2.882   5.293  16.784  0.1101 -0.0257  0.1116
16011W        W59064  21.158   0.619   1.349 -0.0035 -0.1567  0.1002
16012W        W59065  23.715   9.309  20.485  0.1831  0.1006 -0.2234
16013W        W59066  22.176   5.420  20.168 -0.2416 -0.2227 -0.2116
16014W        W59067  18.216   5.049  19.295 -0.0832  0.0684 -0.2863
16015W        W59068  25.483   5.952  13.845  0.0736 -0.0426  0.0453
16016W        W59069  11.066  19.779   5.894 -0.2744  0.2358 -0.0361
16017W        W59070  26.039   5.232  21.312  0.2120  0.0736  0.0328
16018W        W59071  23.867  23.999  14.964 -0.3008 -0.0699 -0.0609
16019W        W59072   3.821   3.557  18.375  0.1760  0.2329  0.2878
16020W        W59073   1.357  33.748  20.590  0.0026  0.2700  0.0834
16021W        W59074   1.997   4.206  28.419  0.0224  0.0648  0.0292
16022W        W59075  15.703   2.744  14.019 -0.2005  0.0949  0.1160
16023W        W59076   2.428  33.840  20.290  0.2980  0.1436 -0.1836
16024W        W59077  31.768  16.552  20.449 -0.1522  0.0117  0.1968
16025W        W59078  19.423   8.592  18.876  0.2664 -0.0294  0.0313
16026W        W59079  12.013   2.491  24.136  0.0158  0.0276 -0.1054
16027W        W59080  14.205   4.260  24.496  0.3860  0.1856  0.3800
16028W        W59081   8.357   7.815  25.334 -0.3180  0.0559 -0.1180
16029W        W59082  16.263   9.460   2.328 -0.3037 -0.4026  0.1025
16030W        W59083   7.412  11.345  25.252 -0.0974  0.1022 -0.0631
16031W        W59084   9.344  19.691  27.492 -0.1411 -0.1368  0.0351
16032W        W59085  33.108  19.115  17.602 -0.0177  0.0826 -0.0580
16033W        W59086   1.733   1.490  14.042  0.2888 -0.1400 -0.1537
16034W        W59087  13.078  28.051  25.224 -0.2328  0.0333 -0.1731
16035W        W59088  29.231   4.593  29.075  0.1961  0.0436 -0.3290
16036W        W59089  20.882  10.128  15.277 -0.0253 -0.0553  0.2131
16037W        W59090   6.197  10.826   2.288 -0.2469  0.2886 -0.0202
16038W        W59091  23.272   8.244  16.877 -0.0529 -0.3681  0.1146
16039W        W59092  33.902   6.708  15.236  0.2373 -0.3895  0.0124
16040W        W59093  19.411   4.544  24.532  0.2772  0.3364  0.3890
16041W        W59094  15.651   0.320  16.005  0.1805  0.3996 -0.2860
16042W        W59095   8.597   8.566  28.593 -0.0000  0.1163  0.0688
16043W        W59096  24.871   0.467   7.022  0.2058  0.1980 -0.1720
16044W        W59097   8.233  24.322  21.623  0.2330 -0.0720  0.0856
16045W        W59098  20.672   7.685  20.654 -0.1372  0.0975  0.1563
16046W        W59099  18.520  29.673   3.759  0.3145  0.0985 -0.0074
16047W        W59100  10.423   0.085  28.794 -0.0890 -0.3689 -0.2161
16048W        W59101  23.336  16.786  25.985 -0.1769  0.2363 -0.1601
16049W        W59102  22.857  21.206   0.506  0.0151 -0.2019  0.0738
16050W        W59103  32.550   6.748  15.235  0.2151  0.1608 -0.0955
16051W        W59104  23.919   7.421   1.101  0.1761  0.1725  0.3314
16052W        W59105   3.632   1.695  20.110 -0.1294  0.2528 -0.0814
16053W        W59106   1.586   7.008   1.812 -0.2748 -0.1271  0.0580
16054W        W59107  34.582  34.173  25.844  0.1700  0.3844 -0.0673
16055W        W59108  19.455  27.607  22.353 -0.2348  0.1693 -0.2224
16056W        W59109   2.778   8.382  21.580 -0.0693 -0.1477  0.1606
16057W        W59110  29.004   7.869  18.415  0.4183  0.1310 -0.2016
16058W        W59111  13.720  33.264  20.934  0.1033  0.0635 -0.1022
16059W        W59112  31.743  26.406  14.243 -0.2075 -0.0118  0.2705
16060W        W59113  25.951  16.474  18.439  0.2594  0.2781 -0.1596
16061W        W59114   8.143  31.842  28.052 -0.2109  0.2131 -0.1873
16062W        W59115  10.267  11.629  19.575  0.0911 -0.1798  0.0149
16063W        W59116  28.090   6.315  21.082  0.4291 -0.0234  0.3441
16064W        W59117  21.986  24.633   6.268  0.1899 -0.2522 -0.2239
16065W        W59118   2.190  33.590  23.375  0.1002 -0.3375  0.0755
16066W        W59119  23.643   6.023  18.035  0.1463  0.0070  0.0583
16067W        W59120  22.591  26.446  21.155 -0.0121  0.3822 -0.2687
16068W        W59121   7.679  34.577  23.641 -0.1479 -0.0534  0.0769
16069W        W59122  32.604  13.100  23.599  0.2562  0.0543 -0.1061
16070W        W59123  33.482   9.239  20.360 -0.2405  0.0264  0.1627
16071W        W59124  22.533   8.546  14.879  0.0208 -0.0045 -0.1496
16072W        W59125  15.398   7.174  14.561 -0.1252 -0.3087 -0.1411
16073W        W59126  22.192  10.722  14.397  0.3762  0.0052  0.0938
16074W        W59127  32.037  30.131  26.250 -0.1276  0.1684 -0.0365
16075W        W59128  11.820   8.908  19.015 -0.0152 -0.1720 -0.3362
16076W        W59129  24.719  26.182  15.407 -0.1635 -0.1713 -0.0047
16077W        W59130  34.186  19.291  18.290  0.0000  0.3533  0.0981
16078W        W59131  29.461  31.680  17.801  0.2434 -0.1883 -0.2953
16079W        W59132  20.993   1.226  14.868  0.1690  0.1306 -0.0354
16080W        W59133  21.027   4.118   3.696 -0.0084  0.0881  0.0995
16081W        W59134   8.293   6.501  16.640 -0.3868 -0.3120  0.0239
16082W        W59135  28.759   5.714  14.720 -0.1849 -0.1992  0.2786
16083W        W59136  16.054  31.494  14.476  0.0748 -0.3407 -0.5189
16084W        W59137  15.122   5.511  15.303  0.1446 -0.2875 -0.0026
16085W        W59138  21.887  12.101  18.408 -0.1094 -0.1367 -0.1674
16086W        W59139   2.266  16.204  15.884  0.2062 -0.2932  0.0143
16087W        W59140  26.566   3.100  24.830 -0.1303 -0.1147 -0.1122
16088W        W59141  19.735   1.466  25.206 -0.0500 -0.2357 -0.0406
16089W        W59142   3.465  32.302  22.686  0.0421 -0.2332  0.0142
16090W        W59143  25.963   9.910   3.950 -0.1420 -0.1867  0.1843
16091W        W59144   5.501  20.499  23.114 -0.2061  0.1062 -0.1437
16092W        W59145   7.361   0.871  15.778  0.0739  0.0754 -0.2429
16093W        W59146  27.943  34.326  24.652  0.1809  0.2470 -0.1310
16094W        W59147  28.311   7.561  15.286 -0.0723  0.0303  0.3383
16095W        W59148  32.737  18.367  14.803  0.2778 -0.0693 -0.2009
16096W        W59149   6.567   3.898  24.952 -0.0173  0.1862  0.1159
16097W        W59150  33.526  15.040  17.748  0.0324 -0.0936 -0.3525
16098W        W59151  10.094   0.457  15.152 -0.0819 -0.1308 -0.1930
16099W        W59152  26.609  22.755  21.159  0.1930  0.0936 -0.0806
16100W        W59153  31.812  29.457  16.705 -0.0378  0.3182 -0.0610
16101W        W59154  32.233   6.660   3.283 -0.0294  0.2118 -0.1020
16102W        W59155  13.566  25.283  26.192 -0.0774  0.1141  0.1488
16103W        W59156  10.693  14.297  20.029 -0.0768  0.4190  0.1051
16104W        W59157   4.042  21.815   5.287 -0.0096 -0.1319 -0.0196
16105W        W59158   3.588  32.266  15.049  0.0142 -0.0341 -0.1382
16106W        W59159   5.828   2.015  20.037  0.0063 -0.1340 -0.0476
16107W        W59160  30.374   7.446  18.037  0.1024 -0.0639 -0.3693
16108W        W59161   8.957  30.482  14.029 -0.5733 -0.0964 -0.1709
16109W        W59162   0.913   9.089  16.080 -0.2135  0.0917  0.0649
16110W        W59163  18.446   0.318  10.098  0.0008 -0.0770 -0.0122
16111W        W59164  34.208   5.922  22.078  0.3037 -0.0597  0.1326
16112W        W59165  24.730   8.248  15.797  0.3014 -0.0783  0.3191
16113W        W59166   0.614  19.991   3.825  0.1691 -0.1327 -0.3087
16114W        W59167  19.038  22.293  17.680  0.1091  0.0197 -0.0457
16115W        W59168   8.901   6.722  20.575  0.2834  0.0337 -0.2431
16116W        W59169  33.314  25.196  23.290 -0.2337 -0.0629  0.1332
16117W        W59170   4.807   0.893  14.083 -0.0184  0.1528 -0.1243
16118W        W59171   0.836  13.744  25.342 -0.1866 -0.1305  0.1513
16119W        W59172  29.206  10.142   3.329 -0.5239  0.0011  0.1852
16120W        W59173  26.812  25.752  15.962  0.1191  0.3284 -0.3036
16121W        W59174  19.754  12.424  24.817  0.1050 -0.0114  0.1282
16122W        W59175  25.984  12.059  24.927  0.0518  0.2368  0.1843
16123W        W59176  14.376  34.682  25.649 -0.3257  0.1905  0.0017
16124W        W59177  17.241  14.027  23.683  0.1530 -0.2160  0.1831
16125W        W59178  31.251   3.867  25.315  0.3846  0.1824 -0.1927
16126W        W59179  25.393   2.121  20.187  0.2000  0.1329 -0.3730
16127W        W59180  30.963   5.435  25.312  0.1830  0.0097 -0.0146
16128W        W59181  31.746   6.339  22.907 -0.1204  0.0645 -0.3816
16129W        W59182  33.145   4.265  24.138  0.1585  0.2001  0.1389
16130W        W59183   5.504  13.108  16.932  0.1653 -0.0437  0.0295
16131W        W59184   4.242  23.089  13.230  0.3589 -0.0351  0.0027
16132W        W59185  16.238  28.294  16.687  0.0741 -0.1653  0.0864
16133W        W59186   8.521  10.269  21.033 -0.0308  0.0839 -0.0995
16134W        W59187  20.466  10.935  16.367  0.0370 -0.1189 -0.3092
16135W        W59188  31.820   3.788  10.231 -0.1931  0.1173 -0.1818
16136W        W59189  30.486  17.165   1.854 -0.0674  0.0930 -0.1372
16137W        W59190  29.381  24.583  24.595 -0.0489 -0.4756  0.0903
16138W        W59191  29.197   1.889  14.596 -0.2132 -0.0104  0.2230
16139W        W59192  28.296  34.339  23.243  0.2432 -0.0120 -0.0050
16140W        W59193   9.331   8.574   1.069  0.2253  0.2251 -0.2196
16141W        W59194  28.593   7.241   0.696  0.2048  0.1982 -0.0389
16142W        W59195   0.577  22.737   4.531  0.0771 -0.0589  0.1146
16143W        W59196  31.007   4.720   4.923 -0.0198  0.0025  0.1576
16144W        W59197   2.898  24.898  18.441  0.1238 -0.0618 -0.1813
16145W        W59198  32.680  22.898  18.792 -0.0446  0.0604  0.2237
16146W        W59199  17.578  30.099  23.952  0.1077 -0.0531 -0.0640
16147W        W59200  28.748  32.154  24.292  0.2601  0.1127  0.0920
16148W        W59201  33.246   0.654  13.502 -0.0821  0.0947  0.5314
16149W        W59202  18.263  11.326  22.258 -0.0861  0.0536  0.1194
16150W        W59203  24.702   8.847  16.705 -0.0300  0.0840  0.0572
16151W        W59204  12.129   3.055  21.089 -0.1117 -0.0410  0.1515
16152W        W59205  22.804   0.409  20.637  0.1297 -0.1699 -0.0138
16153W        W59206  21.698  28.709  16.376 -0.2896  0.0688 -0.2158
16154W        W59207  19.982   3.844  19.687  0.2510  0.0099 -0.3227
16155W        W59208   1.521  33.899  15.599 -0.1251  0.0040 -0.2755
16156W        W59209   0.273   2.654  17.012  0.2602 -0.2098 -0.2412
16157W        W59210  26.776   4.044  24.438 -0.0407  0.1232  0.2484
16158W        W59211  17.303  31.137  19.686  0.1021  0.1396 -0.3402
16159W        W59212   0.009  15.836  28.367  0.4440  0.2469 -0.1649
16160W        W59213  22.795  18.667  24.657  0.3286  0.0921  0.1795
16161W        W59214  16.737   5.401  28.805  0.1963 -0.0840 -0.0749
16162W        W59215  14.407  21.776  21.063  0.0092 -0.0801 -0.2538
16163W        W59216  19.855   9.382  21.730 -0.3633 -0.2032 -0.2448
16164W        W59217  22.025   6.817  22.917  0.0395 -0.1031 -0.0688
16165W        W59218  16.131   9.337  22.969 -0.1509 -0.0032 -0.2632
16166W        W59219  22.643  12.420  25.276 -0.0921  0.0685 -0.3016
16167W        W59220   0.264  31.983  19.233 -0.0994 -0.1463  0.4010
16168W        W59221  26.145  14.775  16.260 -0.2472  0.4706 -0.0312
16169W        W59222  20.126  19.350  13.632 -0.0932  0.2011 -0.1164
16170W        W59223  29.948   7.107  26.000  0.0717 -0.1205 -0.0539
16171W        W59224  29.837   8.087  17.073 -0.0709 -0.2797 -0.2286
16172W        W59225  28.777   6.363  17.976  0.2465  0.1979 -0.1053
16173W        W59226   7.299   5.786   6.318  0.2626  0.3270 -0.3887
16174W        W59227  16.659   3.543  25.786 -0.3530 -0.1801  0.2680
16175W        W59228  25.799  17.609  28.260 -0.0706  0.0177 -0.0939
16176W        W59229  26.456   3.308  19.776  0.0692 -0.0865 -0.3282
16177W        W59230  27.619  17.899  17.957 -0.1201 -0.3288  0.0160
16178W        W59231  31.363   3.169  14.245 -0.1576 -0.4427 -0.2634
16179W        W59232  33.168  14.617  17.649  0.2539  0.0260  0.0155
16180W        W59233   6.287   6.456  16.847  0.2195  0.0339 -0.1552
16181W        W59234  30.566  20.438  17.698 -0.1116 -0.3634  0.2662
16182W        W59235  26.705   0.977  15.273 -0.0526 -0.1691 -0.1295
16183W        W59236   2.541   6.122  17.291  0.1759  0.0365  0.2107
16184W        W59237  12.039  28.338  18.168  0.0556 -0.0363 -0.0195
16185W        W59238  22.465  22.460  18.608 -0.2595 -0.0960 -0.0548
16186W        W59239  30.124  14.578   3.254 -0.0541 -0.2014 -0.0425
16187W        W59240  14.880   4.666  24.257 -0.1535  0.0439  0.0494
16188W        W59241   1.899  12.884  20.581  0.1578  0.6261  0.1674
16189W        W59242  32.059  30.582  16.558  0.1247 -0.0751 -0.0850
16190W        W59243  15.682  12.268  25.459 -0.0771  0.2042 -0.1430
16191W        W59244  25.074   3.014  16.351 -0.1176  0.1289  0.0009
16192W        W59245   0.486   3.211  24.930 -0.0883 -0.0208 -0.3343
16193W        W59246  17.058  23.284  21.047  0.0161  0.1301 -0.0997
16194W        W59247  32.280  33.888  20.152 -0.1188  0.1476  0.2275
16195W        W59248  29.119  30.055   1.182  0.2424 -0.0079 -0.0799
16196W        W59249  32.447   9.100  14.532  0.0725  0.0011  0.0646
16197W        W59250  22.718  19.594  26.388  0.1616  0.2386 -0.2279
16198W        W59251  28.872  28.228  17.377  0.1582 -0.0216 -0.0725
16199W        W59252  32.033   0.879  14.499 -0.1737  0.1748 -0.1246
16200W        W59253   6.557  23.993  17.574  0.1098 -0.1605 -0.0447
16201W        W59254  19.654  13.798  16.048  0.0255  0.2058  0.0671
16202W        W59255  11.804  27.643  17.466  0.1327  0.2417  0.0177
16203W        W59256  19.033  17.037  26.352 -0.0136  0.3015  0.0804
16204W        W59257  19.016   9.179  23.845 -0.2944  0.0142 -0.0333
16205W        W59258   6.330  18.118  20.921 -0.0063 -0.1310  0.0686
16206W        W59259  30.651  13.747   4.267  0.0134 -0.0837  0.1247
16207W        W59260  34.138   4.135  16.887  0.0731 -0.4705 -0.0296
16208W        W59261   4.907   1.795  13.630 -0.1074  0.3348 -0.2702
16209W        W59262  13.805  18.471  22.062 -0.2812 -0.2351 -0.2104
16210W        W59263  10.088   4.832  18.487  0.0581  0.0628 -0.0320
16211W        W59264  15.981  13.847   6.941 -0.0815  0.0216  0.4089
16212W        W59265  34.012  33.177  17.140 -0.0808 -0.1842  0.1746
16213W        W59266  22.102  33.483   0.051  0.1077 -0.2747 -0.0740
16214W        W59267  30.521  11.352  18.952  0.0037 -0.0091 -0.0995
16215W        W59268  29.432   3.106  17.109  0.0402 -0.1412  0.1075
16216W        W59269   1.235   4.842  17.165  0.0596  0.1451  0.2437
16217W        W59270  31.063  28.221  28.283 -0.2154  0.0812 -0.1394
16218W        W59271  13.108   0.911   2.080  0.2959  0.0082  0.0955
16219W        W59272  11.949   0.216   0.817 -0.2422 -0.0037 -0.0609
16220W        W59273  24.882   6.453  21.286 -0.0019  0.1475 -0.2179
16221W        W59274   0.844  28.300  23.071 -0.3266  0.1092 -0.1006
16222W        W59275   1.655  22.228  13.310 -0.0380 -0.1356  0.2870
16223W        W59276  24.500  25.847  16.903  0.0417  0.1151  0.1781
16224W        W59277  31.353  28.521  20.320  0.0202 -0.0778  0.2881
16225W        W59278  27.221  25.263  18.764 -0.2143 -0.3778 -0.2774
16226W        W59279  10.317   1.522  29.152 -0.2351 -0.2886  0.0426
16227W        W59280  25.007   3.210  27.150  0.0123 -0.1318  0.1201
16228W        W59281  33.737   8.785  17.237 -0.1106 -0.0145 -0.3165
16229W        W59282  26.479  12.962  22.048  0.0085 -0.1543 -0.2073
16230W        W59283  30.923   8.596  15.524 -0.1688 -0.0759  0.1818
16231W        W59284  31.341  11.870   3.811  0.1336 -0.0965  0.1294
16232W        W59285  31.995  17.128  17.337  0.1992 -0.0217 -0.1764
16233W        W59286  30.387   2.680   1.472  0.0469 -0.1323 -0.2128
16234W        W59287  18.690  10.590  17.447 -0.3707 -0.0730 -0.0449
16235W        W59288   8.504  33.016  28.628 -0.0276 -0.0805  0.1332
16236W        W59289  24.251  32.941  21.777 -0.0604  0.4014 -0.2797
16237W        W59290  26.514   9.817  16.548  0.1156  0.1714  0.1015
16238W        W59291  16.099  24.261   1.419  0.0308 -0.1556 -0.0570
16239W        W59292   0.942  23.683   5.510 -0.2531  0.0478 -0.0777
16240W        W59293  31.162  10.681   0.245 -0.1341  0.0962  0.0296
16241W        W59294  22.135   1.590  16.937  0.0835 -0.1628  0.1949
16242W        W59295   3.651  24.139  15.126  0.4415 -0.0266 -0.1378
16243W        W59296   6.680  33.036  19.602  0.1144 -0.1068 -0.0458
16244W        W59297  16.488   9.254  16.299  0.1866  0.3088 -0.0886
16245W        W59298  15.274   9.891  15.756  0.2470  0.1771  0.0281
16246W        W59299  20.090  14.792  21.444 -0.0204 -0.1499 -0.1779
16247W        W59300  22.573  13.098  17.044 -0.0869 -0.0447  0.0143
16248W        W59301  14.455   3.823  14.657 -0.0104 -0.1449 -0.0143
16249W        W59302   7.795  34.285  14.690 -0.2441 -0.2868  0.1862
16250W        W59303  26.332  22.695  17.402 -0.0307  0.1615 -0.2822
16251W        W59304  20.138  25.526  26.175 -0.0364  0.1920 -0.1705
16252W        W59305  20.694  30.174  16.128  0.1591  0.2281  0.1354
16253W        W59306  28.204  31.480  14.390 -0.0126 -0.2646  0.1751
16254W        W59307  18.503  32.291  14.199  0.0711 -0.0355 -0.0633
16255W        W59308  18.662  14.239  25.613 -0.0108 -0.2513 -0.2739
16256W        W59309   1.860   6.037  19.196  0.0749 -0.2039 -0.2118
16257W        W59310  20.003  32.575  16.222  0.2970  0.3499  0.2892
16258W        W59311  19.027   1.572  18.668  0.0260 -0.2288  0.0865
16259W        W59312   4.579  22.269  18.050  0.0543 -0.1432 -0.0159
16260W        W59313  28.343   4.626  24.906 -0.1393 -0.0872 -0.1228
16261W        W59314  19.101  32.980  16.336 -0.1083  0.0370  0.0862
16262W        W59315  30.998  33.442  20.497 -0.0516 -0.0414  0.1570
16263W        W59316  34.495   5.413  26.327 -0.0879 -0.2623 -0.0239
16264W        W59317  22.198   7.419  20.521  0.0533 -0.4050 -0.5663
16265W        W59318  34.645   5.551  29.200  0.3725 -0.4022  0.0729
16266W        W59319   5.908  11.120   7.385  0.1786 -0.0164 -0.0508
16267W        W59320  10.181  20.243  18.381  0.2142  0.0531  0.1701
16268W        W59321  18.795  10.621  15.724  0.1063 -0.4631  0.1131
16269W        W59322  30.617   9.731  20.325 -0.0704  0.3863 -0.6008
16270W        W59323   6.313   6.536  15.261  0.1476  0.0407 -0.0265
16271W        W59324  27.931   0.950  18.102  0.2591 -0.0065  0.2117
16272W        W59325  23.731   5.325  18.490 -0.1883 -0.1919  0.1547
16273W        W59326   2.607  19.479  18.893 -0.1868 -0.1465  0.2119
16274W        W59327   7.121   6.316  21.456 -0.1145 -0.1669  0.0159
16275W        W59328   8.399   6.776   0.094 -0.0785  0.0315 -0.0257
16276W        W59329  15.685  17.039  28.765  0.2155  0.3263  0.1463
16277W        W59330  17.552   5.384  23.257  0.1457 -0.3463 -0.1810
16278W        W59331  31.293   0.879   2.666  0.1037  0.1634  0.3747
16279W        W59332  28.186  15.571  21.268  0.2206 -0.2211 -0.0013
16280W        W59333  27.110  26.663  15.119  0.2297  0.1267 -0.0438
16281W        W59334  25.515  13.408  14.863 -0.2170  0.3759 -0.2214
16282W        W59335  22.046   1.735  28.544 -0.0837 -0.2014  0.1842
16283W        W59336  30.115  34.546  14.438  0.2541 -0.2725 -0.1028
16284W        W59337   0.182  24.215  15.438 -0.1247  0.1225 -0.0205
16285W        W59338  26.115  11.826  17.479 -0.2016 -0.0039  0.0995
16286W        W59339  12.585  21.416  16.385 -0.3156 -0.1285 -0.2565
16287W        W59340   6.141  12.544  16.631 -0.0567  0.1184  0.2469
16288W        W59341  34.039  34.654  15.344  0.0807  0.2572 -0.1564
16289W        W59342  13.882   3.401  16.978  0.1329  0.0140  0.0724
16290W        W59343  27.778  20.400  15.370 -0.0683 -0.2130 -0.0526
16291W        W59344  17.234   0.569  23.264  0.3441  0.1197  0.2487
16292W        W59345   1.332  10.839  20.840 -0.1753 -0.0128 -0.0894
16293W        W59346   1.351  26.687   3.470 -0.0155  0.0304  0.1722
16294W        W59347  11.049  19.357  17.494 -0.0559  0.0091 -0.3127
16295W        W59348  25.212  16.082   1.229 -0.4112 -0.0792  0.1356
16296W        W59349  33.635  26.451  22.989  0.2325  0.0098 -0.1248
16297W        W59350  30.486  15.456  21.483  0.3818  0.2732  0.1120
16298W        W59351  31.626  31.697  20.698 -0.1765 -0.0378 -0.2100
16299W        W59352  31.543  10.099  18.805 -0.1683 -0.0885  0.0368
16300W        W59353  14.027  27.357  25.750 -0.1738 -0.2742 -0.1765
16301W        W59354  24.368  33.990  16.886 -0.2458 -0.2262  0.1382
16302W        W59355  28.291   5.858  19.212 -0.0201  0.1256 -0.1507
16303W        W59356  17.342  15.847  25.217  0.4684  0.0689  0.2247
16304W        W59357  16.603  13.132  23.436 -0.0299  0.2583 -0.0093
16305W        W59358  23.333  10.100  25.130  0.0019 -0.1080  0.1219
16306W        W59359   8.938   1.897   5.814 -0.0894  0.1067 -0.1143
16307W        W59360  15.268  12.012  22.406 -0.0692 -0.2919  0.1428
16308W        W59361  31.806   4.328   2.859  0.2531 -0.2660 -0.1251
16309W        W59362  27.902   3.818  23.465 -0.1100  0.0155 -0.1892
16310W        W59363   1.099  12.802  19.387  0.1324 -0.2586 -0.2263
16311W        W59364  21.423   9.909  18.290 -0.0516  0.0150 -0.0914
16312W        W59365  29.259  34.580  14.444  0.3309 -0.1753 -0.0911
16313W        W59366   1.352   5.211  20.271 -0.0917  0.0153  0.0272
16314W        W59367  21.449  11.987  24.313  0.1438 -0.0867  0.2778
16315W        W59368  28.451   8.973   3.022  0.4010 -0.4177  0.0640
16316W        W59369   7.538  23.720  24.237 -0.0548 -0.1405 -0.1093
16317W        W59370  23.515  11.426  21.467 -0.0309 -0.1142 -0.3559
16318W        W59371  29.382   5.282  17.113  0.3693  0.2473  0.0572
16319W        W59372  13.888   2.817   7.125  0.0440 -0.1226 -0.2179
16320W        W59373  27.458  10.291  17.361  0.3368  0.1832  0.0651
16321W        W59374   1.404  20.616  23.447 -0.0208  0.3065 -0.2521
16322W        W59375  32.147   6.530  14.742 -0.0645 -0.2329  0.0145
16323W        W59376   2.509  10.233  25.544 -0.3786  0.0866  0.1506
16324W        W59377   8.465  31.496  19.177  0.0738  0.0623 -0.2019
16325W        W59378  24.023  20.751  15.476  0.1401 -0.2976  0.0883
16326W        W59379  33.516  17.960   4.199  0.1249 -0.2470 -0.1510
16327W        W59380  29.365  14.519  25.634  0.2757 -0.0516  0.3492
16328W        W59381  13.441  21.235  26.434  0.1611 -0.0899 -0.2930
16329W        W59382  31.593  32.614  15.763  0.4057  0.2348  0.1533
16330W        W59383  24.744   5.538  15.618 -0.0306  0.1398  0.0996
16331W        W59384  11.854   4.819  20.667 -0.3533  0.3596  0.0186
16332W        W59385  23.113  29.942  22.323  0.0204  0.0019  0.0949
16333W        W59386  29.969  25.592  23.469 -0.0366  0.2030  0.3054
16334W        W59387  27.345  14.190  23.720  0.3665 -0.2854 -0.2689
16335W        W59388   4.162  12.925  17.450  0.3283 -0.0066 -0.1799
16336W        W59389  29.692   7.216  20.448  0.1443  0.1317 -0.1527
16337W        W59390  27.854  14.346  18.398  0.0814 -0.3741  0.2592
16338W        W59391  25.925  23.805  27.015  0.0211 -0.0804  0.0635
16339W        W59392  19.316  22.313  16.001 -0.2310  0.1429  0.2644
16340W        W59393  12.893  14.852  18.326  0.1760 -0.0748 -0.1795
16341W        W59394   2.246  19.485   3.942  0.2430 -0.0210 -0.0688
16342W        W59395  31.900   1.027  20.857  0.2426  0.1660 -0.0684
16343W        W59396   0.552  20.971   0.106  0.0987  0.3230  0.1961
16344W        W59397  30.561   4.342  21.676 -0.0999 -0.1422  0.2069
16345W        W59398   8.312   2.349  16.401  0.1260  0.3665 -0.1451
16346W        W59399  23.853  14.725  20.716  0.0231 -0.0456  0.0331
16347W        W59400  29.653  12.993  22.247  0.0780  0.0379  0.1173
16348W        W59401  24.979   4.596  21.301 -0.2431 -0.2044  0.1438
16349W        W59402  11.556  31.637  25.938  0.3018 -0.0263  0.1413
16350W        W59403  23.849   7.432  16.018  0.2030  0.0046 -0.2142
16351W        W59404   7.900  17.427  17.780  0.0971  0.2692  0.2034
16352W        W59405  25.200  21.425  20.154 -0.3982  0.0113  0.2620
16353W        W59406  27.458   5.086  17.674  0.2671 -0.0635 -0.0297
16354W        W59407  11.055  26.466  19.895  0.2821  0.0034 -0.1361
16355W        W59408  14.574  14.227  28.126  0.1407  0.0661  0.2129
16356W        W59409  25.625  21.426  23.221 -0.1187 -0.4359  0.4369
16357W        W59410  20.443  10.036  17.509 -0.3389  0.0007  0.2467
16358W        W59411   9.698   0.536  15.496  0.0904 -0.0609  0.2112
16359W        W59412   5.876  11.080  14.272 -0.1407 -0.2038  0.0295
16360W        W59413  23.795  28.333  24.794  0.1213  0.2008  0.0751
16361W        W59414  23.009  11.069  21.041 -0.0460  0.1702 -0.5869
16362W        W59415  23.880   6.245   8.122  0.6214 -0.0325 -0.0754
16363W        W59416  15.722   6.204  20.659 -0.2446 -0.2432 -0.2127
16364W        W59417   4.021  15.183  23.878  0.0436  0.1887 -0.0794
16365W        W59418  26.745  17.567  22.482  0.0773 -0.2565  0.1903
16366W        W59419  22.310   5.659  15.342 -0.3814 -0.1935 -0.1102
16367W        W59420  18.087  33.810  24.966  0.3777 -0.0395  0.0620
16368W        W59421   9.352  20.748  18.675  0.1702  0.0132  0.1051
16369W        W59422   5.607   4.541  27.310  0.0572  0.1820 -0.0188
16370W        W59423   8.284   4.207  16.383  0.0597  0.2735  0.2350
16371W        W59424   5.268   2.779  16.156  0.1337  0.1950  0.4114
16372W        W59425  29.232  10.773  14.556 -0.2274  0.3979  0.0840
16373W        W59426  30.129  11.653  24.117 -0.3899 -0.1836  0.0513
16374W        W59427   4.948  12.200  21.044  0.2648  0.1250  0.2641
16375W        W59428  29.101  30.895   7.657  0.0199 -0.2437  0.0746
16376W        W59429  31.358  21.489  14.039 -0.0505  0.0521 -0.1346
16377W        W59430   6.085   0.275  21.439 -0.1120 -0.0340  0.0434
16378W        W59431  24.725  10.757  26.456 -0.0749 -0.2527  0.4547
16379W        W59432  21.034   3.521  24.655 -0.0567  0.1882 -0.1675
16380W        W59433  13.922   3.821  23.672 -0.0152 -0.0721 -0.0759
16381W        W59434   2.887  15.904  23.358 -0.0403 -0.3489 -0.0622
16382W        W59435  24.458   2.017  17.608 -0.2272  0.1165  0.0744
16383W        W59436   1.836  33.908  24.779  0.0764 -0.0194  0.0367
16384W        W59437  23.768   3.325  17.591  0.0493  0.0351  0.0010
16385W        W59438   1.636   5.536  16.125  0.0672  0.0615  0.1715
16386W        W59439  30.748  13.463  19.700  0.1719 -0.2330 -0.0422
16387W        W59440  21.897  11.657  23.439 -0.1311  0.0457 -0.1347
16388W        W59441  19.427  13.089  15.544 -0.0735  0.0204  0.0299
16389W        W59442  12.379   0.122  29.110  0.0506 -0.0539 -0.0005
16390W        W59443   3.263   0.350  16.179  0.0294  0.4965  0.1250
16391W        W59444  12.310  32.264   2.589  0.1311 -0.0664  0.1506
16392W        W59445  17.533   4.114   4.641 -0.2130 -0.0169 -0.1734
16393W        W59446  10.916  31.998  17.780  0.0869 -0.0308 -0.2298
16394W        W59447  24.853   2.285  20.239 -0.0217 -0.1173  0.1201
16395W        W59448   2.544   3.640  22.139  0.0838 -0.4464 -0.3662
16396W        W59449  23.739  25.164   0.068  0.1760  0.1239  0.1081
16397W        W59450  12.897  23.919  16.334 -0.1563 -0.2373  0.0673
16398W        W59451   4.578   6.604  27.258  0.3748  0.1198  0.0846
16399W        W59452  18.138  34.567  27.111  0.1369  0.1379 -0.2631
16400W        W59453   9.840  18.782  22.528  0.1536 -0.1200  0.1805
16401W        W59454   0.280  33.545  15.375  0.2785 -0.0831  0.1575
16402W        W59455  24.479   3.561  15.507 -0.2609  0.1437  0.2489
16403W        W59456   5.799  16.385  14.470 -0.5350 -0.2252  0.0582
16404W        W59457   6.076  24.721  20.636  0.2430 -0.4568 -0.1729
16405W        W59458  23.312  16.652  19.985 -0.2084 -0.0843  0.1902
16406W        W59459  23.194  33.511  17.174  0.0592 -0.2192  0.1856
16407W        W59460  34.562  33.994  13.069  0.1336  0.1380 -0.0152
16408W        W59461  32.973  14.064  23.616 -0.0171  0.1998  0.2960
16409W        W59462  14.533   7.622  15.643 -0.1572  0.2223 -0.3934
16410W        W59463  21.430  12.710  14.645  0.1848  0.3341 -0.3809
16411W        W59464  19.969   3.493  16.058  0.0761  0.1737  0.4295
16412W        W59465  31.904  27.802  15.239 -0.2097 -0.1441 -0.2908
16413W        W59466  15.912  11.208  22.063 -0.0609  0.4183 -0.1084
16414W        W59467   0.332  13.512  15.336  0.3198 -0.3992 -0.3212
16415W        W59468  31.468  17.464  15.166 -0.2846  0.0518 -0.0408
16416W        W59469  16.871   2.141  22.162  0.2047  0.2005 -0.4773
16417W        W59470   1.285  28.064  17.407 -0.2152  0.1711  0.1865
16418W        W59471  29.449  17.156  24.139 -0.1140 -0.3083  0.0317
16419W        W59472  26.145  30.689   2.248  0.2488 -0.0294 -0.0483
16420W        W59473  11.986  24.227  22.900  0.2140  0.1098  0.0695
16421W        W59474  24.623  34.341   1.074  0.0794 -0.3014 -0.2139
16422W        W59475   9.067  13.236  22.906  0.1257 -0.2332  0.2576
16423W        W59476  28.939  16.935   6.314 -0.1831 -0.0240  0.1321
16424W        W59477  23.580  13.579   7.181  0.1776  0.0520 -0.1919
16425W        W59478  17.707   9.733  20.308 -0.0812 -0.0655 -0.2207
16426W        W59479   8.121  14.033  27.934 -0.1214 -0.3485 -0.2674
16427W        W59480  20.538  21.621  16.686  0.2618  0.1839  0.1854
16428W        W59481  28.987   9.978  27.278  0.0359 -0.0470 -0.0674
16429W        W59482   7.078  21.417  16.893  0.2808  0.1414 -0.1260
16430W        W59483  17.542  33.699  23.205  0.0876 -0.2489 -0.0048
16431W        W59484  17.330  30.295   4.264  0.0530 -0.1923 -0.1304
16432W        W59485  26.209  31.906  15.089  0.0691  0.0105  0.2542
16433W        W59486  28.814   7.486  16.391  0.0523 -0.1443 -0.0333
16434W        W59487  12.079   8.221  28.542  0.1843 -0.0012  0.0094
16435W        W59488  15.029  23.438  22.950  0.2121  0.0041 -0.1011
16436W        W59489   9.027   5.210  16.899 -0.0255 -0.2377  0.3092
16437W        W59490  30.036   7.767   7.888  0.4043  0.0382  0.2510
16438W        W59491   1.109   4.495  14.231  0.1185 -0.0638  0.1289
16439W        W59492  11.116   5.279   5.215  0.1849  0.1077 -0.2036
16440W        W59493   9.662   8.428  17.428  0.3634  0.5246  0.0152
16441W        W59494   0.131  30.031  16.672  0.2540  0.0017  0.3382
16442W        W59495  13.227  18.822  16.662  0.2977 -0.0340  0.1358
16443W        W59496  29.393   4.417   8.508  0.3376  0.1597 -0.0761
16444W        W59497  22.563   6.712   3.173 -0.1491  0.0372  0.0578
16445W        W59498  32.354   6.566  16.310 -0.0262  0.1628  0.2025
16446W        W59499  17.339  22.596  20.236 -0.0469 -0.2585 -0.0530
16447W        W59500  31.200  23.094  16.442 -0.1369 -0.2043 -0.0152
16448W        W59501  29.430   7.276  14.443  0.3626 -0.0056  0.1292
16449W        W59502  30.600  26.410  21.972  0.2182 -0.0549 -0.1139
16450W        W59503  12.859  15.209  19.789 -0.0134  0.0799  0.0756
16451W        W59504  31.837  12.978  16.844 -0.1037  0.1094  0.1067
16452W        W59505   0.452  12.649  17.911  0.0953  0.2542 -0.2469
16453W        W59506  15.540  21.214  26.203  0.0390  0.0283 -0.1729
16454W        W59507  26.146  28.500  18.461  0.1493  0.0296 -0.0489
16455W        W59508  18.769  32.119  17.707  0.0260  0.1564  0.0843
16456W        W59509  22.595   0.448  18.390  0.2484  0.1692  0.2281
16457W        W59510  34.029  31.264  19.527  0.4311 -0.2125  0.1349
16458W        W59511  16.212   6.940  26.130  0.1894 -0.0398  0.0607
16459W        W59512  26.629   1.835   2.495  0.0219 -0.3628  0.1769
16460W        W59513  23.826   3.473  20.499 -0.2627  0.1365 -0.5375
16461W        W59514  27.284  10.991  14.944 -0.3334 -0.0250  0.2064
16462W        W59515  21.080   4.785   0.469  0.0370 -0.2464  0.1563
16463W        W59516  30.139   9.557  25.666 -0.2669  0.0546 -0.1708
16464W        W59517  21.424  18.882   2.812 -0.0996  0.2453 -0.2707
16465W        W59518  30.199   2.701  25.812  0.0913  0.2279  0.1719
16466W        W59519  20.273   9.403  27.081 -0.0462 -0.1492  0.2079
16467W        W59520   5.895  10.732  22.845  0.3209  0.0930  0.2373
16468W        W59521  22.590   1.420  14.742  0.1008 -0.3503 -0.0780
16469W        W59522   7.041   8.516  22.015  0.0932  0.1931 -0.4295
16470W        W59523   1.454   5.530  19.865 -0.1551  0.2277 -0.0692
16471W        W59524  23.079  25.023   5.691 -0.2410  0.0501  0.0100
16472W        W59525  19.541  10.561  16.814  0.1399 -0.2208 -0.0069
16473W        W59526  16.703  27.476  28.569  0.1958 -0.1878  0.1804
16474W        W59527  20.911  34.482  15.475 -0.1151  0.0331  0.0765
16475W        W59528  30.629  31.054  15.020 -0.0869  0.0224 -0.1212
16476W        W59529  16.775  18.984   2.227 -0.0480 -0.0014 -0.1056
16477W        W59530  19.368   3.164   5.433 -0.0912 -0.1228 -0.0722
16478W        W59531   0.291  20.864  26.300 -0.0196  0.1815  0.1604
16479W        W59532   1.745  33.394  18.512  0.0624 -0.1151 -0.1840
16480W        W59533  22.757  12.785  15.698 -0.1764 -0.1876 -0.2369
16481W        W59534   2.169   8.033  15.892  0.0272  0.0577  0.2829
16482W        W59535   8.138  33.654  26.560 -0.0724 -0.1525  0.0986
16483W        W59536  21.296  32.868  24.255  0.3473  0.0262  0.0208
16484W        W59537  12.093   9.366  20.528  0.1955 -0.1623 -0.0636
16485W        W59538  20.756   6.316  27.255 -0.2023  0.2311 -0.2806
16486W        W59539  18.127   7.146  22.945 -0.0066 -0.0361 -0.1706
16487W        W59540  21.688   3.976  27.738 -0.1024  0.3438 -0.0882
16488W        W59541  20.379  12.245  21.595 -0.0871  0.2147 -0.0600
16489W        W59542  22.061  11.966  15.177 -0.1046 -0.1016  0.0820
16490W        W59543   0.192  28.105  19.757  0.2322  0.0395  0.2365
16491W        W59544  24.454  19.808  19.790  0.2415 -0.0272  0.1099
16492W        W59545  26.464   7.704  29.128  0.1013  0.0651 -0.0541
16493W        W59546   5.652   2.912  17.569 -0.0720 -0.2196 -0.2427
16494W        W59547  18.167   1.741  22.348 -0.2700 -0.0448 -0.0745
16495W        W59548  24.757  17.865  23.193 -0.0141 -0.1353  0.0756
16496W        W59549  26.594  22.047  19.072  0.1580  0.1713 -0.0397
16497W        W59550  22.299  24.460  21.508 -0.3793  0.1666 -0.2768
16498W        W59551  23.904  10.679  23.796  0.0348 -0.3180  0.2909
16499W        W59552  23.213  30.189   1.897  0.1665 -0.2492  0.4395
16500W        W59553  24.852   3.367  15.094  0.0796  0.1232  0.1104
16501W        W59554   7.709  32.400  22.528  0.3817  0.1546  0.3276
16502W        W59555  19.091   5.794  16.642 -0.0772  0.0623 -0.0613
16503W        W59556   0.262  17.736  23.168 -0.0926 -0.3376 -0.1702
16504W        W59557  13.140  10.158  22.263 -0.0427  0.1208 -0.1132
16505W        W59558  13.361   6.409  27.724 -0.1820  0.2641 -0.2386
16506W        W59559  32.171   8.041  15.373 -0.2297  0.0641  0.3001
16507W        W59560  15.466  31.576  15.772  0.3530 -0.1358 -0.4369
16508W        W59561  28.828  33.599  20.037 -0.0226 -0.3983 -0.0209
16509W        W59562  26.466   3.899  16.870  0.0938 -0.2533 -0.3443
16510W        W59563  16.688   8.437  21.777  0.1970  0.1227 -0.0922
16511W        W59564  34.412  32.855  17.229  0.2530 -0.2501  0.0338
16512W        W59565  20.065  16.025   3.328  0.0287  0.1348  0.1521
16513W        W59566   1.654   1.403  22.853  0.1592 -0.1267  0.2582
16514W        W59567  27.410   1.367  22.069 -0.0386  0.1049  0.1745
16515W        W59568  28.512   5.653   3.306  0.0993  0.0819 -0.4490
16516W        W59569  28.460  30.869   8.563  0.2700  0.1908 -0.4276
16517W        W59570  28.703  17.049  19.533 -0.0238 -0.0774 -0.1520
16518W        W59571   6.052  33.080  20.273  0.1950  0.0856 -0.0561
16519W        W59572  25.066  11.718   0.872  0.1490 -0.3009 -0.0175
16520W        W59573  11.778   5.013  25.882  0.1264 -0.2711 -0.0012
16521W        W59574  32.705   0.665  15.684  0.0916  0.1877 -0.1289
16522W        W59575  26.103  10.459  20.230 -0.0341 -0.1427 -0.0825
16523W        W59576   0.407  11.282  28.993  0.0619  0.0531  0.1264
16524W        W59577  10.725  34.446  23.874 -0.2180 -0.2093  0.1389
16525W        W59578   3.201   7.221  17.016 -0.1060  0.1509  0.3592
16526W        W59579  25.072   3.112   2.004 -0.2351  0.2909  0.0425
16527W        W59580  31.895  15.063   0.398  0.2249  0.3099 -0.1562
16528W        W59581  26.881  19.076  19.831  0.3565  0.0777 -0.1559
16529W        W59582  34.079  23.499  29.157  0.4090 -0.0778  0.1865
16530W        W59583  15.410   8.963  28.369 -0.0039  0.1181  0.2396
16531W        W59584  26.521   3.714  15.914  0.0923 -0.0088 -0.0317
16532W        W59585  14.080  30.534  28.041  0.2180 -0.0947  0.3438
16533W        W59586  15.569  29.532   6.146 -0.2702 -0.0210 -0.0757
16534W        W59587  23.908  24.523  15.825 -0.1430  0.0347 -0.1762
16535W        W59588  23.602   4.562  21.938  0.2496 -0.1067 -0.1786
16536W        W59589   2.680   5.016  17.157 -0.1147  0.0714  0.1209
16537W        W59590  22.259   8.425   0.843 -0.0266 -0.0071 -0.1886
16538W        W59591  31.676  22.030   0.173 -0.2269  0.2731  0.1224
16539W        W59592  28.928  14.939  26.036  0.3187 -0.2627  0.3195
16540W        W59593  33.257   8.000  16.329  0.0922  0.2209  0.3297
16541W        W59594  24.719   2.599  25.335 -0.0905 -0.0569 -0.1290
16542W        W59595  20.362   9.365  20.707 -0.3653 -0.2729  0.4238
16543W        W59596  16.673  31.148   3.990 -0.1324  0.1679 -0.0687
16544W        W59597  16.274  34.384  16.999  0.2819 -0.1188 -0.2482
16545W        W59598  18.818   6.194  26.674  0.1275 -0.0006  0.1764
16546W        W59599  31.163   7.349   5.866  0.0264  0.3103 -0.0618
16547W        W59600  18.725  27.303  16.033 -0.2089  0.0248  0.1610
16548W        W59601  21.321  11.704  15.308 -0.1477 -0.0241  0.1781
16549W        W59602   2.005   3.429  15.853  0.2985 -0.3702  0.4422
16550W        W59603  29.807   2.411  25.757  0.0979  0.0799  0.0223
16551W        W59604  17.756   4.281  20.983 -0.3888 -0.1435 -0.0597
16552W        W59605   3.496  33.993  18.815 -0.0130 -0.1003  0.1514
16553W        W59606  24.176  30.846  23.345  0.2433  0.2221 -0.0382
16554W        W59607  27.940  29.819  18.883 -0.1389  0.0213 -0.2780
16555W        W59608   4.925   3.979  26.700  0.1234  0.1245  0.0018
16556W        W59609  34.577   3.998  23.599  0.0442  0.0025 -0.0562
16557W        W59610  23.145   6.485   2.076 -0.3302 -0.1081 -0.0151
16558W        W59611  32.813  11.294  17.017  0.2449 -0.2960  0.2402
16559W        W59612  20.099  33.883   4.494  0.2024 -0.0704  0.0485
16560W        W59613   3.687  13.628  16.836  0.0066  0.2725  0.1067
16561W        W59614   9.724  33.926  16.866 -0.1302  0.0034 -0.0436
16562W        W59615  19.176   5.468  19.753  0.0183 -0.0168  0.0993
16563W        W59616   4.465  11.620  16.187  0.1575  0.2362  0.0995
16564W        W59617  12.305  33.526  24.131 -0.1596 -0.0863  0.2484
16565W        W59618  23.453   1.942  25.489  0.1732 -0.3559 -0.2070
16566W        W59619  21.874  16.126  18.168  0.1351 -0.0679  0.0740
16567W        W59620  20.892  34.324   1.076  0.2167  0.2523 -0.2994
16568W        W59621  26.903  32.640  19.838 -0.2500 -0.1230  0.1554
16569W        W59622   1.422   4.274  21.546  0.0553  0.1181  0.2737
16570W        W59623  22.682   5.933  14.372  0.1365 -0.1819 -0.2493
16571W        W59624  14.636  31.036  21.867 -0.4894  0.0401 -0.0212
16572W        W59625  26.337   1.758   1.987 -0.0667  0.0941  0.4441
16573W        W59626  18.618   4.626  14.097  0.1114  0.1289  0.0519
16574W        W59627  25.843  33.400  21.896  0.0406 -0.2735  0.0404
16575W        W59628  14.510   9.684  24.542 -0.2063 -0.1660 -0.0770
16576W        W59629   0.059  32.675  18.627 -0.0682 -0.1459  0.1529
16577W        W59630  19.662  17.863   5.591  0.0597 -0.0189  0.0442
16578W        W59631  27.636   4.032  22.711 -0.0396  0.1551 -0.0655
16579W        W59632  27.075   1.616  21.438 -0.1092 -0.0863 -0.1249
16580W        W59633  19.964   3.966   3.316 -0.0680  0.3458 -0.2604
16581W        W59634  30.317  10.937   0.064  0.0277 -0.0917  0.1344
16582W        W59635  15.227   5.717  19.610  0.1385 -0.2073 -0.0006
16583W        W59636  32.316   8.901  22.238 -0.0906 -0.0263  0.0810
16584W        W59637  24.266  34.621  20.017  0.0914 -0.1138  0.0484
16585W        W59638   2.373  10.130  23.102  0.0849  0.0543  0.1817
16586W        W59639  25.979  33.670  20.584  0.0251  0.2676 -0.0875
16587W        W59640  26.793  14.046  18.761  0.1596 -0.0673 -0.2842
16588W        W59641  28.377  15.537  24.034 -0.0628  0.0144  0.2080
16589W        W59642  21.352   5.791  15.698 -0.3273  0.1024  0.0405
16590W        W59643  14.183  34.346  23.106 -0.0354  0.1164 -0.3025
16591W        W59644  29.770   9.844   1.975  0.3112 -0.1332  0.0079
16592W        W59645  15.912  14.642  16.036  0.0754 -0.0723 -0.2872
16593W        W59646   3.365  34.513   8.688 -0.0619  0.3122  0.1588
16594W        W59647  19.610   3.695  15.341 -0.0844  0.2060  0.0808
16595W        W59648  26.384   5.561   8.721 -0.1353  0.3856 -0.3216
16596W        W59649  13.136  12.839  28.477 -0.1181  0.2299  0.1072
16597W        W59650  24.363   4.749  26.002  0.0059 -0.0857  0.0350
16598W        W59651  27.442  31.595  27.642  0.2347  0.0191 -0.1149
16599W        W59652  18.390  18.231  14.117  0.1555  0.0384 -0.1439
16600W        W59653  12.536  31.842   3.699 -0.0043  0.2431 -0.3031
16601W        W59654  13.761   9.649  23.533 -0.2225 -0.1360  0.0060
16602W        W59655  19.713  13.723  28.391 -0.3817 -0.1175  0.0720
16603W        W59656   3.804  32.271  16.709 -0.1234  0.2335 -0.2628
16604W        W59657  19.622  18.892  22.326  0.0300 -0.2923  0.3085
16605W        W59658  33.375   8.569  14.831  0.1134 -0.1895 -0.0884
16606W        W59659  20.291   8.707   6.791  0.1558  0.2231  0.2062
16607W        W59660  20.075  28.681  21.158  0.0853  0.1240  0.1574
16608W        W59661  11.493  32.119  26.753  0.3903 -0.0327  0.1199
16609W        W59662   1.157  28.112  13.727  0.2726 -0.0238 -0.1565
16610W        W59663  14.511  14.093  23.194  0.3233  0.1020 -0.1972
16611W        W59664  27.939   8.822  22.886 -0.0285  0.0162 -0.1229
16612W        W59665   3.608  11.320  22.479  0.0707  0.0678  0.1750
16613W        W59666  27.073   8.750   2.080 -0.0017  0.0440  0.5079
16614W        W59667  25.189  11.606  26.868 -0.3034 -0.0560 -0.0001
16615W        W59668  18.155   3.537  14.970  0.1501  0.5466 -0.1955
16616W        W59669   3.631  21.398  16.555  0.1890  0.0711 -0.2764
16617W        W59670  27.828  29.971  26.203  0.1202 -0.1833 -0.1108
16618W        W59671   8.520  16.029  20.739  0.1237  0.0127 -0.0847
16619W        W59672  25.038  12.010  28.701 -0.0795 -0.0274  0.3128
16620W        W59673  28.752  20.047  24.968 -0.0741 -0.0145 -0.3453
16621W        W59674  11.107   3.783   9.253  0.1423 -0.3770  0.1767
16622W        W59675  11.891   7.057  20.441  0.0667  0.0802 -0.1983
16623W        W59676   0.413  13.659   1.323 -0.1851  0.1250  0.2078
16624W        W59677  28.879   7.031  19.397 -0.0887  0.1754 -0.2242
16625W        W59678  23.802  11.749   4.671  0.1507 -0.0126 -0.0331
16626W        W59679  21.493   5.852  26.634 -0.0394  0.0078  0.1018
16627W        W59680   1.935  10.577  19.543 -0.2331  0.0568  0.1239
16628W        W59681  16.685   6.855  17.757 -0.0837 -0.3438 -0.0234
16629W        W59682  20.834   6.401   0.557  0.4302 -0.2575 -0.0647
16630W        W59683   8.582  30.949  19.078 -0.2317  0.3682 -0.1540
16631W        W59684  24.818  34.176  20.972  0.1848 -0.1866 -0.0086
16632W        W59685   1.174  31.525  24.356  0.2595  0.1591 -0.1409
16633W        W59686  30.523  29.533  18.978  0.0123 -0.3002  0.0505
16634W        W59687  10.579   6.978  17.437 -0.1795 -0.1126  0.1102
16635W        W59688  30.012  10.913  25.937 -0.0893  0.1463  0.3305
16636W        W59689  29.781  31.842  28.185  0.1307  0.0084 -0.0452
16637W        W59690  26.528   3.946  27.878 -0.0773  0.0694  0.0648
16638W        W59691  31.984  11.163  18.710  0.0119 -0.1710 -0.3217
16639W        W59692  18.599   2.836  22.461 -0.3617  0.2473  0.1008
16640W        W59693  27.687  25.376  14.884 -0.0225 -0.1421 -0.1524
16641W        W59694  31.540   9.246  26.920 -0.0288  0.2997  0.1300
16642W        W59695  13.615   3.726  21.169  0.0049 -0.2413  0.2060
16643W        W59696  30.683  27.486  26.336  0.1318 -0.4138  0.2002
16644W        W59697   5.733   5.699  15.158 -0.0470  0.0490  0.1918
16645W        W59698  23.811  11.671   6.844  0.0941  0.4108 -0.1803
16646W        W59699  22.337  10.596   2.063  0.0557 -0.3709  0.1216
16647W        W59700   0.960   5.170   2.100 -0.0230  0.1427  0.1838
16648W        W59701  25.568  17.886  20.620  0.3071  0.0133 -0.1035
16649W        W59702  25.614  12.508  18.869 -0.0769  0.0026  0.1430
16650W        W59703   5.063  20.462  29.122  0.1271 -0.0665 -0.1545
16651W        W59704   0.180   5.850  21.528  0.0835  0.3816  0.2144
16652W        W59705  24.661  33.258  16.700  0.0683  0.2419 -0.0696
16653W        W59706  34.020  33.108   3.665 -0.0647  0.4400 -0.0712
16654W        W59707  26.580  26.707  20.972 -0.1057 -0.1594  0.0194
16655W        W59708   6.568   0.745  23.068 -0.2065  0.2382  0.0116
16656W        W59709  17.071   5.990  22.784  0.1054 -0.3495 -0.1402
16657W        W59710  25.327   5.498   1.783  0.1168  0.2226  0.2996
16658W        W59711   8.166   7.676   0.943 -0.2201  0.1229 -0.0932
16659W        W59712  33.044  12.281  28.151  0.0320 -0.0404  0.0106
16660W        W59713  11.345  20.801   7.436  0.1042 -0.1341 -0.2049
16661W        W59714   6.006  17.009   0.739  0.2240  0.1251 -0.1760
16662W        W59715  27.282   8.013  19.346  0.0009  0.4689  0.3754
16663W        W59716  29.507   7.888  21.476 -0.4038 -0.0840 -0.0926
16664W        W59717  29.040  16.145  20.784  0.2300  0.0741 -0.0917
16665W        W59718  32.650  28.504  14.546 -0.1088 -0.0057 -0.0546
16666W        W59719  30.162  20.673  15.151 -0.2580  0.1297 -0.2251
16667W        W59720  27.632   4.493  16.007 -0.0081 -0.1695  0.0024
16668W        W59721  18.442   4.110   1.572  0.1149  0.0889  0.1854
16669W        W59722  26.651  29.198  24.697  0.0820  0.4123 -0.3387
16670W        W59723   9.578  22.926  16.205 -0.0567  0.0703  0.2111
16671W        W59724  25.496   1.812  25.435 -0.0037 -0.0423 -0.0511
16672W        W59725  22.504   8.232   4.221 -0.1873 -0.1652  0.2126
16673W        W59726  25.145  29.983  19.448 -0.0372  0.0375 -0.0106
16674W        W59727  27.850  15.218  25.842 -0.0875  0.2293  0.0326
16675W        W59728  26.028  29.347  18.382 -0.3508 -0.2474  0.1210
16676W        W59729  34.576  34.438   0.407 -0.1579  0.1877  0.4380
16677W        W59730  22.418  12.452  27.883  0.5813 -0.1605  0.0142
16678W        W59731  14.543  30.068  20.158 -0.0807  0.0403 -0.0099
16679W        W59732  27.606  33.080  26.338 -0.5085  0.0104 -0.2192
16680W        W59733  31.800  23.134  25.775 -0.2654 -0.1880 -0.2503
16681W        W59734  26.471  22.995  19.323 -0.0889  0.1689 -0.2521
16682W        W59735  32.971   3.936  15.605 -0.0843  0.1902  0.1935
16683W        W59736  29.212   2.777  22.937  0.1261 -0.2536 -0.0016
16684W        W59737  31.755  13.221  14.320  0.0916 -0.3290  0.1432
16685W        W59738   4.790   5.042   2.459  0.3754 -0.2443 -0.0950
16686W        W59739  15.020   5.253  25.475 -0.0384  0.1187 -0.1955
16687W        W59740  14.861   5.385  20.214  0.1081  0.1522  0.0805
16688W        W59741  21.148  33.637  17.569 -0.1789 -0.0435 -0.1549
16689W        W59742  10.073   5.771  25.208 -0.1517  0.0906  0.1520
16690W        W59743  33.305   3.219  22.130 -0.1188 -0.3409  0.2767
16691W        W59744  30.489  27.607  17.950  0.3364  0.0353  0.1916
16692W        W59745  32.508  32.338   7.169 -0.0105 -0.3003 -0.0179
16693W        W59746  19.684   9.812  14.467  0.0774 -0.2493 -0.6555
16694W        W59747  17.271  11.580  15.504 -0.0598  0.3054 -0.1005
16695W        W59748  29.247   6.361   5.768 -0.2544  0.0446 -0.2985
16696W        W59749  27.050   1.674  13.539  0.0361  0.3868  0.2379
16697W        W59750  26.120   2.892  29.073 -0.2759 -0.2791  0.0637
16698W        W59751  21.403   1.897  21.318  0.0431 -0.3733 -0.2505
16699W        W59752  22.536   4.062  20.556  0.0450 -0.1998 -0.0422
16700W        W59753  24.219  14.413  22.896  0.0972  0.0198  0.2627
16701W        W59754  11.221  12.938  16.745 -0.1776 -0.3354  0.2213
16702W        W59755   8.428   5.525  18.430  0.3994  0.2099  0.0040
16703W        W59756   9.283  34.363  27.476  0.2762  0.0152  0.0965
16704W        W59757  24.090  32.551  19.522 -0.0908 -0.0719 -0.0450
16705W        W59758  33.199   4.177  15.255 -0.1088  0.1711 -0.1074
16706W        W59759  32.610  23.690  26.028  0.0976  0.2226 -0.0135
16707W        W59760  31.108  34.545  20.460  0.0126  0.1054  0.0788
16708W        W59761  18.413  12.594  20.931  0.2259  0.0573 -0.1831
16709W        W59762  31.971  19.765   1.915  0.1558  0.0670  0.1139
16710W        W59763  26.218  26.234  15.257 -0.2076 -0.1165  0.0466
16711W        W59764   0.251   5.852  19.965 -0.0170  0.1184 -0.0233
16712W        W59765  33.817  32.726  28.965  0.2870  0.1287 -0.0734
16713W        W59766  30.456   2.541  20.713 -0.0980 -0.2479  0.0532
16714W        W59767  24.063   3.378  26.747  0.1482 -0.1669  0.1506
16715W        W59768  26.310   0.117  13.976  0.2240 -0.0553 -0.0336
16716W        W59769   0.775  32.091  24.752  0.1182 -0.0743  0.0353
16717W        W59770   3.770  14.170  20.975 -0.0357  0.0133  0.1813
16718W        W59771   4.544   2.439  20.850 -0.2840  0.0516 -0.0563
16719W        W59772  21.708  20.786  23.410 -0.0016  0.2053  0.1164
16720W        W59773  26.157  26.896   6.292  0.0131 -0.0895 -0.3547
16721W        W59774  28.828  29.047  16.746  0.1851 -0.1297 -0.1159
16722W        W59775  16.625   2.169  20.001 -0.4207 -0.1265  0.2149
16723W        W59776  32.072   2.940  28.016  0.1311  0.0528 -0.2441
16724W        W59777  21.819   9.459  22.650 -0.0570  0.0983 -0.1167
16725W        W59778  13.461  15.439  21.694  0.0975 -0.1319  0.1566
16726W        W59779  20.392   7.607  26.831  0.0432 -0.1884  0.2067
16727W        W59780  34.667   0.770  19.195  0.3337 -0.2623 -0.2521
16728W        W59781   8.387  26.364  16.598  0.0359 -0.0799  0.2371
16729W        W59782  10.808   2.604  19.455 -0.1416  0.0379  0.0688
16730W        W59783  16.659   3.886   8.111 -0.4027 -0.3286 -0.1820
16731W        W59784  22.581   4.902  21.624 -0.1184  0.2402  0.2617
16732W        W59785   5.373  16.394   0.886 -0.0494  0.0178 -0.1540
16733W        W59786  31.019   4.255  21.332 -0.2072 -0.2253  0.2317
16734W        W59787  19.272   5.980  20.664 -0.2549  0.2362 -0.2890
16735W        W59788  21.453   3.071  15.810 -0.1677 -0.1802 -0.1102
16736W        W59789  31.791   3.075  17.484 -0.2573 -0.1460  0.2374
16737W        W59790  12.988   9.743  23.878  0.0099 -0.5476 -0.2231
16738W        W59791  18.011  15.654   1.209 -0.5767  0.1002  0.2027
16739W        W59792  22.121  29.027   3.591 -0.1273 -0.2984  0.0263
16740W        W59793  14.999  34.353  15.761 -0.1123  0.0957  0.1494
16741W        W59794  24.594   5.978   3.905  0.0594  0.1600 -0.0122
16742W        W59795  18.452  16.510  25.006 -0.1290 -0.0400  0.2421
16743W        W59796   4.160  26.925  18.320  0.2139 -0.3090 -0.2503
16744W        W59797  15.813   6.231   9.016 -0.0773  0.1775 -0.1009
16745W        W59798  20.410  34.038  16.089 -0.1919 -0.1158  0.1852
16746W        W59799  31.147  18.242  16.513 -0.1589 -0.0155 -0.1903
16747W        W59800  20.524  10.699  14.012 -0.0667  0.1086  0.0566
16748W        W59801   9.981  26.260  16.773  0.4850 -0.1486 -0.3035
16749W        W59802   1.215  29.390  22.780  0.5191 -0.2169  0.0796
16750W        W59803  22.754  13.015  23.022 -0.0706 -0.2234 -0.0526
16751W        W59804  22.118  31.902  28.368  0.0777  0.0707 -0.0167
16752W        W59805  19.055   9.173  20.520  0.3081  0.2314 -0.2315
16753W        W59806  25.656  10.247  14.108  0.1344  0.0094  0.2246
16754W        W59807  16.969  22.381  15.448 -0.3150 -0.4672  0.1627
16755W        W59808  31.036  27.245  28.657  0.0015  0.1147 -0.0708
16756W        W59809  23.500  20.353   8.140 -0.0014 -0.0714 -0.1130
16757W        W59810   2.705   9.515  15.682 -0.0952  0.1407  0.5020
16758W        W59811  32.210  17.477   8.053 -0.0160  0.2393  0.1457
16759W        W59812  13.458  25.428   4.995 -0.1383 -0.2828 -0.0044
16760W        W59813   4.744  27.477  22.535 -0.2710  0.0303 -0.0457
16761W        W59814  13.575  30.398   3.841 -0.1031  0.1368  0.0697
16762W        W59815  18.093  15.080  14.047 -0.0837 -0.0559 -0.2483
16763W        W59816  29.506  14.637   0.192  0.1480 -0.0667  0.0299
16764W        W59817  34.031  34.107  17.642  0.0907  0.1484 -0.4133
16765W        W59818  31.787  11.949  28.593  0.0746  0.1321  0.2524
16766W        W59819   0.730  24.375  23.286 -0.0650  0.3647  0.2534
16767W        W59820   9.428  30.451   5.348 -0.1793 -0.0908  0.1605
16768W        W59821  28.111  10.084  25.659 -0.0372 -0.0702 -0.1680
16769W        W59822  24.466  11.601  22.611  0.1586 -0.0091 -0.0849
16770W        W59823  32.487  10.502  21.709 -0.1814 -0.0472 -0.0235
16771W        W59824  18.668   6.683  26.591 -0.2489  0.1998 -0.0755
16772W        W59825  25.954   9.852   1.993 -0.1267 -0.0140 -0.0591
16773W        W59826   5.490  29.457  19.487  0.1068  0.1021  0.0396
16774W        W59827  33.791   8.970  22.175 -0.1873 -0.4737 -0.2920
16775W        W59828   1.952   0.494  16.690 -0.0936 -0.0479 -0.0831
16776W        W59829  33.548  19.928   6.972  0.0123  0.2052  0.1515
16777W        W59830   8.913  25.481   0.986  0.0570 -0.0368  0.0926
16778W        W59831  34.138   9.995  16.496 -0.2083  0.0482 -0.0531
16779W        W59832  25.123   4.880  28.092  0.1565 -0.0658 -0.1428
16780W        W59833  29.689  16.612   3.372  0.1216  0.0844  0.0001
16781W        W59834  32.056   2.101   6.969  0.2451  0.0633 -0.1951
16782W        W59835  33.149   9.629   0.921  0.0281  0.0239 -0.1425
16783W        W59836  22.749   0.645  21.648  0.1151  0.0736 -0.0045
16784W        W59837  24.808  29.005  18.750  0.1572  0.0086  0.2624
16785W        W59838  11.609  16.946  21.651  0.0063 -0.1212 -0.0945
16786W        W59839   3.828   3.110   1.785  0.0783  0.0367  0.3367
16787W        W59840  18.106  30.500  17.785  0.1463  0.2424  0.0521
16788W        W59841  15.431   5.307  27.413 -0.1175  0.3156  0.0403
16789W        W59842  25.361  20.726  19.513 -0.0065 -0.1310  0.1063
16790W        W59843  23.735  25.081   0.578 -0.1582  0.0244 -0.2305
16791W        W59844  11.344  25.283  14.837  0.0690  0.4106  0.0582
16792W        W59845   0.272  23.964   1.812 -0.3508 -0.4104 -0.1378
16793W        W59846  33.974   7.503  16.082 -0.1898 -0.5217 -0.2332
16794W        W59847  19.924  10.136  15.709 -0.1793  0.1704 -0.0878
16795W        W59848  24.498   3.487  28.452  0.3481 -0.0792 -0.3178
16796W        W59849  18.537  25.664  18.937  0.0771  0.3209 -0.3585
16797W        W59850  25.975  12.993  22.168  0.1686  0.1444 -0.0613
16798W        W59851  25.508   0.518  18.312  0.1348  0.1848 -0.3564
16799W        W59852  27.031   0.042  19.536  0.0583 -0.5093  0.2378
16800W        W59853  10.738  28.551  26.245 -0.1607 -0.0697  0.0927
16801W        W59854  21.631  31.005  23.798  0.1568  0.1308 -0.1486
16802W        W59855  25.418   4.049  16.282 -0.2772  0.0938 -0.0883
16803W        W59856  23.528  11.819  23.130 -0.3254 -0.0234 -0.1294
16804W        W59857  31.097  31.932   5.073 -0.0876  0.0535  0.0001
16805W        W59858  18.151   7.477  28.323 -0.0384  0.1086 -0.0409
16806W        W59859  33.611  23.949  18.479 -0.2996 -0.3962 -0.1861
16807W        W59860   8.421  14.795  27.879  0.0933  0.0957  0.1367
16808W        W59861  22.988  12.817  20.254  0.0760 -0.1868 -0.1210
16809W        W59862  26.384  33.155  23.720 -0.2301  0.0012 -0.1171
16810W        W59863  19.667  34.340  23.899  0.1833  0.0884 -0.2015
16811W        W59864  13.052  12.363  25.991 -0.4212 -0.1310 -0.0007
16812W        W59865  30.469  10.846   5.565 -0.1276 -0.2049  0.1360
16813W        W59866  10.894   8.866   3.786 -0.1214  0.3611  0.1225
16814W        W59867  25.953  32.109   3.558  0.1411 -0.2650 -0.3050
16815W        W59868  10.366   1.383  22.141  0.3580  0.0066  0.0245
16816W        W59869  24.967  10.024  22.254  0.2735 -0.0259  0.1896
16817W        W59870  18.832  31.540  25.085  0.0876  0.4444  0.2016
16818W        W59871   4.824  14.393  18.723 -0.3826  0.2676 -0.2188
16819W        W59872  21.214  26.423  22.797  0.0574 -0.0909  0.0870
16820W        W59873  17.122   8.065  18.143  0.1369 -0.1916 -0.1718
16821W        W59874   1.882  10.625  28.209 -0.1169  0.1896  0.0358
16822W        W59875  29.799   6.491  21.893 -0.2780  0.0136  0.1647
16823W        W59876  33.351  10.784  25.791 -0.4391  0.1620 -0.3309
16824W        W59877  10.392  12.618  23.766  0.1264  0.1015  0.0315
16825W        W59878  11.245   6.979  23.508 -0.2371 -0.2373  0.1346
16826W        W59879   7.236  10.751   9.812  0.1550  0.2119 -0.1714
16827W        W59880   2.951   3.602   6.007  0.1552  0.0282 -0.1333
16828W        W59881  14.223  23.353  24.545  0.1406 -0.0455 -0.0487
16829W        W59882  27.334   6.650  18.977 -0.0392  0.0296  0.1769
16830W        W59883  24.137   2.710  24.925 -0.1853  0.1554 -0.2619
16831W        W59884  30.212   8.577  14.236  0.1022  0.0186  0.3415
16832W        W59885  31.679  23.832   1.352 -0.2802  0.0306  0.2814
16833W        W59886  22.992   9.599  27.575  0.1830 -0.2210  0.0143
16834W        W59887   4.093   4.957  20.036  0.0176  0.1111 -0.3781
16835W        W59888  28.262   1.966  21.821 -0.1211 -0.2096 -0.0997
16836W        W59889   6.858   1.120  23.686  0.1789  0.4245  0.0459
16837W        W59890  16.606  34.186   8.406 -0.1477 -0.1711 -0.0340
16838W        W59891  10.016   3.751  29.141 -0.1313  0.2114  0.0678
16839W        W59892   3.167  21.912  16.075 -0.0697  0.1102 -0.1158
16840W        W59893  29.346  31.858  23.234 -0.2173  0.2855  0.0114
16841W        W59894  30.729   4.692  26.857  0.0596 -0.0502  0.1624
16842W        W59895  20.553  29.402   0.303  0.2126  0.1550 -0.2934
16843W        W59896   1.936   2.765  29.124 -0.1394  0.0686 -0.0076
16844W        W59897  23.469  11.567  22.174 -0.1095  0.0615 -0.2835
16845W        W59898   0.375  31.519   1.743 -0.1866  0.0159 -0.0674
16846W        W59899   7.546  34.419  19.602  0.0661 -0.1043 -0.1774
16847W        W59900  22.609   5.962  16.240  0.1244 -0.0523  0.0634
16848W        W59901  30.328  11.042   8.573  0.2817  0.2868  0.1634
16849W        W59902  17.559  26.801   2.150  0.0767 -0.2050 -0.1141
16850W        W59903   4.291  15.438   9.713  0.0634  0.0189 -0.0847
16851W        W59904  19.288   2.347  19.742  0.0173 -0.2105  0.1270
16852W        W59905  23.307   6.251  21.352  0.1093  0.1528  0.1661
16853W        W59906  21.032   6.638  20.299  0.3065  0.2873  0.0596
16854W        W59907  25.756  13.042   7.174 -0.1201  0.1500 -0.1654
16855W        W59908  23.175   3.363  22.439  0.0116  0.0158  0.0486
16856W        W59909  27.499  27.588   7.368 -0.0548  0.4396  0.0669
16857W        W59910  30.341  32.093  25.570 -0.0580  0.1781  0.0595
16858W        W59911  24.477   5.921  23.458  0.2784 -0.2906 -0.0670
16859W        W59912   9.225  30.861   9.051 -0.1799 -0.0592 -0.0984
16860W        W59913   0.279  30.091  16.119 -0.3141  0.3432  0.0487
16861W        W59914  25.444  19.225  20.128 -0.0729 -0.0429  0.0902
16862W        W59915  33.367   7.259   0.743 -0.0696  0.1130 -0.0897
16863W        W59916  16.323  11.606   1.187 -0.1891  0.1681  0.1048
16864W        W59917  30.384   6.485  15.149  0.0867  0.0496  0.1862
16865W        W59918  10.591   3.030  19.857  0.0613  0.0757  0.1283
16866W        W59919  23.319   6.456  26.203  0.4043 -0.1058 -0.0530
16867W        W59920  30.599   4.848  23.082 -0.1870  0.3492 -0.1365
16868W        W59921  17.029   4.399   5.557 -0.0609  0.2550  0.0060
16869W        W59922  21.232  28.361  17.524  0.0202 -0.1784  0.1641
16870W        W59923  24.148   1.951   6.034  0.0980  0.0165 -0.1376
16871W        W59924  33.445  19.886   0.857  0.0977  0.0502  0.0947
16872W        W59925  28.905  13.448  14.369  0.0643  0.2432  0.0395
16873W        W59926   4.579  18.107  24.441  0.1072 -0.1199 -0.0525
16874W        W59927  15.020   9.150  27.970 -0.0872 -0.0702 -0.2678
16875W        W59928  22.854  13.187  22.130  0.0235  0.0215 -0.0530
16876W        W59929  27.013  29.705  15.660 -0.0448 -0.0737 -0.3310
16877W        W59930  27.542   7.770  23.108 -0.1339  0.1368 -0.1236
16878W        W59931   6.096  24.051  22.508 -0.1747  0.0021 -0.0764
16879W        W59932  17.514  11.730   3.370 -0.1908 -0.2605 -0.0769
16880W        W59933   7.945   7.529   5.785  0.0438  0.2253  0.0963
16881W        W59934   1.385  10.284  17.523  0.2138 -0.0087  0.0648
16882W        W59935  16.553   9.315  22.722 -0.0075  0.2747  0.1009
16883W        W59936  26.110  11.238  18.988 -0.2763  0.1637  0.0960
16884W        W59937  14.090  30.041  22.567 -0.0542 -0.0996  0.1850
16885W        W59938  20.603  10.299  24.523 -0.1174  0.3645  0.3549
16886W        W59939  26.938  30.974   7.201 -0.0134 -0.3045 -0.0380
16887W        W59940  29.517  15.310  27.516 -0.2472  0.1510  0.2243
16888W        W59941  26.873   2.889  15.590 -0.0241 -0.0829  0.0686
16889W        W59942  24.080  32.199   1.955  0.3070 -0.1764 -0.1394
16890W        W59943  31.189   2.529  25.734  0.0206  0.2461 -0.0998
16891W        W59944  13.388  32.298  27.280  0.0175 -0.0303  0.1293
16892W        W59945   6.047   1.545  22.443  0.2619 -0.0334  0.1267
16893W        W59946   1.246  16.037  14.671  0.0748 -0.2363 -0.4376
16894W        W59947   7.665   4.043  25.936  0.2412 -0.0897 -0.0480
16895W        W59948  34.471   5.493  17.982 -0.1030 -0.0200 -0.2284
16896W        W59949  27.815   2.213  22.697  0.2790 -0.1453  0.1555
16897W        W59950  30.832   8.188  27.389 -0.0858  0.1474 -0.0632
16898W        W59951  19.381  28.545  13.747 -0.1490 -0.3733 -0.2563
16899W        W59952   5.196   4.301  23.115 -0.0744 -0.0139  0.0691
16900W        W59953  20.745   5.991   1.998 -0.0142  0.0542  0.0072
16901W        W59954  27.627   8.914   0.308 -0.1748  0.0021  0.2091
16902W        W59955  31.265  29.575   5.166  0.1478  0.2949 -0.1812
16903W        W59956  27.440   8.016  17.809  0.0160  0.0427 -0.0935
16904W        W59957  15.039  25.071  27.766  0.0233 -0.0623 -0.0538
16905W        W59958  26.886  15.872  27.286 -0.0504 -0.0504  0.1244
16906W        W59959  19.019   8.188  18.805  0.4551  0.5287  0.1809
16907W        W59960  29.332  18.620  24.015  0.2718  0.0417  0.0216
16908W        W59961  31.162  27.089  21.717 -0.1511  0.1364  0.4176
16909W        W59962  14.327  10.283   4.622 -0.0110  0.1105 -0.3997
16910W        W59963  25.734   8.542  10.078  0.2897  0.0382  0.4227
16911W        W59964  29.568  12.396  27.248  0.1647  0.1469 -0.0146
16912W        W59965  30.852   8.467  16.682 -0.2776 -0.2848 -0.0837
16913W        W59966  34.287   6.012  21.603 -0.1318  0.0629 -0.0696
16914W        W59967  19.434  12.420  22.230  0.0024 -0.1886  0.2383
16915W        W59968  14.263  32.435  15.841 -0.0898  0.0344  0.1693
16916W        W59969  21.489   0.613  15.247 -0.2095 -0.0495  0.2845
16917W        W59970   4.249  34.656  27.821 -0.1943 -0.2780 -0.1020
16918W        W59971  23.411   2.692  17.025 -0.1056  0.5881  0.1924
16919W        W59972  33.915   7.265  25.689  0.0030 -0.1100  0.0275
16920W        W59973  14.575   2.051   5.154 -0.4092 -0.0672  0.2858
16921W        W59974   1.611  14.450   4.599 -0.2639 -0.2984  0.0561
16922W        W59975  19.534  29.478   9.075 -0.0212 -0.0080  0.0815
16923W        W59976  31.253  26.984  17.995 -0.2329  0.2265  0.2122
16924W        W59977   4.897  18.242   5.827 -0.2559  0.0823  0.1445
16925W        W59978   9.886   9.697  18.834 -0.0139  0.0286  0.0008
16926W        W59979  26.584   7.972  17.066  0.0158 -0.1111 -0.2149
16927W        W59980  19.886  33.338  27.946  0.2904 -0.1332  0.1280
16928W        W59981   2.698  13.191  25.561  0.0052  0.3834  0.0226
16929W        W59982   9.846  12.802  21.921  0.0587 -0.1696 -0.3140
16930W        W59983  27.996  27.167  18.417 -0.1114  0.2979  0.0832
16931W        W59984   1.264  17.782   3.870  0.1462  0.3188 -0.2590
16932W        W59985  27.126   9.157   1.636  0.0693 -0.4140  0.0370
16933W        W59986  29.494  30.381  17.273  0.1939 -0.0171  0.0382
16934W        W59987  14.167  22.840  27.199  0.3882 -0.1327 -0.2966
16935W        W59988  20.777  34.269   2.522  0.1697  0.2334 -0.0397
16936W        W59989  33.590  32.711  27.178 -0.2333  0.2237 -0.1876
16937W        W59990  23.628   1.760  25.900  0.0922 -0.0617 -0.2804
16938W        W59991  10.210   0.977  24.258 -0.1911  0.1494 -0.1125
16939W        W59992  30.746   6.578  17.221 -0.0262 -0.2657 -0.0448
16940W        W59993  11.128   8.638  18.248  0.0512  0.3204  0.1518
16941W        W59994  28.995  28.848  14.054 -0.1500  0.0102 -0.1711
16942W        W59995  10.525  34.070   0.054 -0.0077 -0.0997 -0.0624
16943W        W59996  34.655  20.620   5.110  0.0950 -0.1000  0.0131
16944W        W59997  26.580  13.383   4.240  0.0614  0.0892  0.0500
16945W        W59998  14.135   7.999  21.396 -0.1559  0.0605 -0.5215
16946W        W59999  17.565  10.469  25.928  0.2430  0.2549 -0.0286
16947W        W60000  22.440  15.100  19.354  0.0695  0.4210  0.0466
16948W        W60001  23.312  11.516  13.286 -0.1119  0.1058 -0.2549
16949W        W60002  17.939   0.223  17.342 -0.2920 -0.0570 -0.2012
16950W        W60003  29.486   8.910  17.271 -0.0891  0.1378  0.0022
16951W        W60004  33.782   1.787  27.871  0.1808  0.0733  0.0128
16952W        W60005  11.261   0.185  19.924 -0.0440 -0.1936 -0.2568
16953W        W60006   3.793  31.831  19.712 -0.2245 -0.0813  0.0997
16954W        W60007  19.785  24.800  26.687  0.0218  0.3266  0.2621
16955W        W60008   8.211  29.619  14.376  0.2000  0.3448 -0.0826
16956W        W60009  32.523  13.889   0.741  0.1250 -0.4371  0.0467
16957W        W60010  18.108   9.258   8.449  0.1294 -0.0321  0.1506
16958W        W60011  26.530  34.490   1.182  0.1702 -0.0487 -0.1514
16959W        W60012  23.256   6.864   0.965  0.1646  0.2351 -0.1134
16960W        W60013  29.488  33.864   0.728 -0.1084 -0.0868 -0.1299
16961W        W60014  18.659  29.824  25.884  0.0650  0.1167  0.4343
16962W        W60015  14.769   0.230  21.437 -0.2017  0.2000 -0.1666
16963W        W60016  13.627  31.334  16.485  0.2194 -0.0465 -0.1731
16964W        W60017   6.098  28.452  18.545  0.3112 -0.3326  0.1644
16965W        W60018  30.370  20.714   8.078  0.2947  0.0591  0.3286
16966W        W60019  28.479   9.509  20.128 -0.1984  0.2151 -0.1332
16967W        W60020  13.014  29.139  22.031  0.0020 -0.0009 -0.2473
16968W        W60021  16.336  34.635  26.868  0.3315  0.0716  0.2133
16969W        W60022  21.628   0.929  22.766 -0.2306  0.0489  0.1188
16970W        W60023  27.003   8.709  21.098 -0.1295 -0.2941 -0.1338
16971W        W60024  15.123   1.979  22.782 -0.0781 -0.1083  0.0559
16972W        W60025  13.914   6.465  15.467 -0.0277  0.0536 -0.1649
16973W        W60026  24.528  25.308  26.456 -0.2117  0.1880 -0.1648
16974W        W60027  16.959   6.132   8.589 -0.1580  0.1172 -0.0314
16975W        W60028   0.787  28.786  21.196 -0.2775  0.1694  0.0780
16976W        W60029   1.228   1.136  27.615 -0.0735  0.0572 -0.2577
16977W        W60030  30.416  17.088  27.509 -0.0730  0.0501  0.4495
16978W        W60031  14.421   1.997  24.446  0.1871  0.0048 -0.0080
16979W        W60032  20.844  10.028  20.006  0.2626 -0.1603  0.1626
16980W        W60033  13.781  29.967  19.844  0.1361  0.4510  0.1898
16981W        W60034  18.181   0.713  22.383  0.1702 -0.2250  0.1023
16982W        W60035  31.615  17.891  26.644  0.1517  0.5220 -0.3651
16983W        W60036  21.634   0.125   0.177 -0.0424  0.0180  0.1545
16984W        W60037  23.152  26.918  20.064  0.2033  0.3454 -0.2021
16985W        W60038  22.764   3.740  20.979 -0.3308  0.1554  0.0424
16986W        W60039   0.749   8.898   0.883  0.1399  0.3112  0.1323
16987W        W60040  23.477   9.224   3.968  0.1905 -0.0322 -0.0251
16988W        W60041   4.261  31.341  17.152  0.3074 -0.3259 -0.1940
16989W        W60042  31.341  15.720  17.323  0.1186 -0.0290 -0.3448
16990W        W60043  22.300  28.473  28.690  0.1388 -0.0757 -0.1493
16991W        W60044  33.496  30.347  21.862 -0.1250 -0.0692  0.2010
16992W        W60045   6.133   2.439  23.251  0.0704 -0.3297 -0.5145
16993W        W60046   9.037  21.814  22.055 -0.0879  0.0715 -0.1770
16994W        W60047  30.314  21.897  21.490  0.1708 -0.1137 -0.0484
16995W        W60048   6.977   2.123  15.234  0.3289 -0.1723  0.0843
16996W        W60049  20.746   5.312  14.835  0.0604 -0.3057  0.3143
16997W        W60050  25.087   2.745  27.015 -0.0630  0.4589 -0.0105
16998W        W60051   1.150   6.239   1.228 -0.3229 -0.0113 -0.0363
16999W        W60052  20.499  30.394  25.104 -0.3875  0.0981 -0.2443
17000W        W60053   5.791   2.350  25.829 -0.0001  0.2304  0.0474
17001W        W60054  25.196  15.526  18.215 -0.1638 -0.0181 -0.1381
17002W        W60055  12.564  13.379  20.008  0.2268  0.0348 -0.0263
17003W        W60056  21.053  19.448  27.999  0.2965 -0.2739  0.1197
17004W        W60057  25.538  29.791   9.194 -0.3120 -0.2149 -0.2555
17005W        W60058  12.648  15.711  15.874 -0.2546  0.1794 -0.0305
17006W        W60059  24.966  20.862  23.646 -0.0423 -0.1548  0.1012
17007W        W60060  26.222  25.291  21.408  0.0110  0.0991  0.0290
17008W        W60061  24.312  11.948  17.125  0.1982  0.0013  0.0185
17009W        W60062  11.233  20.098  22.544  0.0453 -0.0709  0.1753
17010W        W60063  29.366  32.570  25.409 -0.0650  0.1832  0.1553
17011W        W60064  34.422   8.305  16.528 -0.1420  0.2773  0.0394
17012W        W60065  29.371  16.381  19.023  0.2301  0.1092 -0.0644
17013W        W60066  15.776  28.989  21.864 -0.1686 -0.1581  0.0618
17014W        W60067   7.284   9.162   3.507  0.1116 -0.1869  0.0615
17015W        W60068  32.244  27.291   2.874 -0.0712  0.0432 -0.1416
17016W        W60069   2.420  29.254   3.123 -0.1979 -0.0386  0.1263
17017W        W60070  24.580  30.009  15.754  0.0033  0.0548 -0.5295
17018W        W60071  19.134  33.238  21.041  0.0505 -0.0538  0.2070
17019W        W60072   0.306  33.776  27.834  0.1940 -0.0749  0.1710
17020W        W60073  23.963  23.670  28.216  0.2171  0.2196 -0.0779
17021W        W60074   0.623   5.979  25.929  0.0408  0.1455 -0.1843
17022W        W60075  18.754   4.278  16.789  0.0476  0.2372 -0.2587
17023W        W60076  20.923   1.334   3.012  0.2622 -0.0594  0.4850
17024W        W60077   3.926   1.609  25.419 -0.1715 -0.0029  0.0753
17025W        W60078  12.670  11.010   4.717  0.0600 -0.3063 -0.0679
17026W        W60079  26.063   7.876  15.492  0.2598 -0.0529  0.0758
17027W        W60080  12.821   4.860  21.744  0.0773  0.0484  0.0023
17028W        W60081  29.021   5.169  25.229  0.0526  0.4369  0.1166
17029W        W60082  12.352  30.211  17.861 -0.4085 -0.0197  0.1603
17030W        W60083  31.205  28.100  15.271  0.0174  0.0619  0.4823
17031W        W60084  29.460   9.769  27.145  0.0209 -0.2845 -0.1632
17032W        W60085  25.611  20.464  26.531  0.0218  0.2816  0.0899
17033W        W60086  31.101  29.406  23.204 -0.0690  0.1268  0.0837
17034W        W60087  25.924  17.630  28.842  0.0125  0.0428 -0.0575
17035W        W60088  32.860   5.944  13.624 -0.1429 -0.1773  0.1993
17036W        W60089  32.961  33.825  20.589  0.0748 -0.0711 -0.0208
17037W        W60090  34.426  14.417   9.649  0.2172 -0.1185 -0.1710
17038W        W60091   4.750   5.971   5.756 -0.3455  0.3985  0.1600
17039W        W60092  33.867  14.082   2.989  0.1396  0.0449  0.0077
17040W        W60093  30.257   5.734   6.621  0.1696 -0.0104 -0.1674
17041W        W60094   9.770  33.785  23.808  0.1599 -0.2089  0.1233
17042W        W60095  20.517  10.998  22.855  0.0297 -0.0812  0.0680
17043W        W60096   7.078   9.313   1.841  0.0166 -0.3151  0.0180
17044W        W60097  18.687  16.784  13.946  0.0668 -0.1132 -0.0912
17045W        W60098  22.459  31.767  14.786  0.0829  0.0982 -0.1479
17046W        W60099  30.882  12.020  19.990  0.4335  0.0909 -0.0267
17047W        W60100  27.443   3.794  21.367 -0.1975 -0.0559 -0.0752
17048W        W60101  21.804  20.432  27.421  0.0296 -0.1132 -0.3519
17049W        W60102   1.764  17.258  20.663 -0.0302  0.1531 -0.0612
17050W        W60103  17.238  15.553  28.571 -0.0970 -0.4097  0.1154
17051W        W60104  24.934   6.299   2.083 -0.1737  0.3832  0.0623
17052W        W60105  20.189  22.361  19.391 -0.1254  0.1805  0.0165
17053W        W60106   9.047  28.222  22.095 -0.0430 -0.1195  0.1430
17054W        W60107  16.049   5.304  29.052 -0.0817 -0.1517  0.1731
17055W        W60108  18.075  15.075   2.958 -0.1072 -0.3671  0.0917
17056W        W60109  14.758   3.778   1.129  0.2118 -0.0633  0.0122
17057W        W60110   9.062  20.487  26.319  0.0343  0.4453  0.2468
17058W        W60111  18.103   5.395   5.153  0.3257 -0.0853 -0.1737
17059W        W60112   3.015  16.104  26.407  0.1640 -0.2249  0.0390
17060W        W60113  19.944  19.883  24.553  0.2953 -0.1817  0.0042
17061W        W60114   3.323   0.263  16.970  0.1361  0.1661 -0.1744
17062W        W60115  28.911  11.871   3.833  0.4395  0.0352 -0.2825
17063W        W60116  33.573   0.549   4.197 -0.0391  0.0557  0.0529
17064W        W60117  16.937  12.499  15.009 -0.4347  0.3190  0.0613
17065W        W60118  21.985  21.586  23.231  0.2103  0.0536  0.0940
17066W        W60119  32.239  11.185  15.603  0.1497  0.1495 -0.2021
17067W        W60120  33.113   8.145   4.318 -0.0947  0.0981  0.1381
17068W        W60121  23.907  34.397  18.684 -0.0547  0.2276  0.2873
17069W        W60122   6.587  23.519  14.624  0.5435  0.1181 -0.3811
17070W        W60123  28.930  26.615   4.153 -0.0571 -0.2110 -0.5184
17071W        W60124  23.514  33.702  19.706 -0.0068  0.3657 -0.1157
17072W        W60125  21.634  12.225  14.473  0.0934 -0.1733 -0.1971
17073W        W60126  16.002  34.077  15.605  0.3273 -0.2259 -0.4041
17074W        W60127  31.595  17.367  14.650  0.1202 -0.3897  0.2204
17075W        W60128  26.350  28.969  18.248 -0.1161  0.0283 -0.1317
17076W        W60129  16.076  24.696  20.272  0.2486  0.1016  0.0036
17077W        W60130  17.949  12.028   0.752 -0.1746  0.1015 -0.0295
17078W        W60131  15.222  10.498  21.515 -0.2229  0.1946 -0.0351
17079W        W60132  27.139   8.954  15.750 -0.2298 -0.0588  0.1808
17080W        W60133  10.710   4.920   6.895 -0.3011  0.0761  0.1850
17081W        W60134  24.274   4.204  24.441  0.2081 -0.1792  0.5343
17082W        W60135  33.897  25.542  23.330 -0.2047  0.1921 -0.0045
17083W        W60136  17.716  13.039   2.221 -0.0915 -0.0864 -0.0315
17084W        W60137  29.949   0.775   6.889  0.1733 -0.0082 -0.2710
17085W        W60138  31.987  18.804   3.805  0.1813  0.2873 -0.0152
17086W        W60139  27.385  17.777  29.152 -0.2067  0.3612 -0.2404
17087W        W60140   3.432  18.555  23.197  0.0501 -0.3426  0.1400
17088W        W60141  13.534  33.845  15.763  0.2677  0.0722  0.1494
17089W        W60142   6.807   0.221  28.806  0.4144  0.1375 -0.1695
17090W        W60143  33.351   8.065  29.157 -0.0731 -0.1022  0.2467
17091W        W60144  19.305   8.503  22.018 -0.0806  0.0482 -0.0516
17092W        W60145  14.558   5.188   7.595  0.1911 -0.2021  0.2471
17093W        W60146  26.044   5.794   5.266 -0.1699  0.5431 -0.0598
17094W        W60147  12.784   2.544  24.409  0.2769  0.2126  0.1262
17095W        W60148  23.229  29.679  15.115 -0.0512 -0.0592 -0.0464
17096W        W60149   1.167  32.930  27.179 -0.0741 -0.0509  0.2160
17097W        W60150  29.140   0.408  25.664  0.2104 -0.0338 -0.1989
17098W        W60151  28.956   0.399  17.031  0.0373 -0.0171 -0.3143
17099W        W60152  32.354  19.240  19.635 -0.0040 -0.1901 -0.1297
17100W        W60153   4.963   4.349  15.969 -0.2278 -0.5837  0.1260
17101W        W60154  32.360   9.397   6.942  0.2738  0.2441 -0.0661
17102W        W60155  16.720   1.563   0.606 -0.3233  0.0159  0.1335
17103W        W60156  23.476  15.463   0.669 -0.2064 -0.2092 -0.0338
17104W        W60157   5.943   5.435  25.993  0.1280  0.0395  0.2003
17105W        W60158  30.671   6.165   5.808 -0.0423  0.2420  0.1551
17106W        W60159   3.848   5.676   5.636  0.1295  0.1075 -0.0315
17107W        W60160   1.788  11.993   3.502  0.0707  0.0169  0.2062
17108W        W60161  28.456  33.481  27.587  0.3226 -0.0266  0.1678
17109W        W60162  31.471   3.380   6.684 -0.2471 -0.1314 -0.3651
17110W        W60163   9.391  25.428  23.590 -0.0466 -0.2033 -0.2682
17111W        W60164  22.598   3.600  19.605 -0.1574 -0.2438  0.2513
17112W        W60165  27.013  16.229  21.443 -0.3590 -0.0640 -0.4477
17113W        W60166  23.845   5.556   0.798 -0.1896  0.0473  0.0218
17114W        W60167  31.485  17.522  22.335  0.1168 -0.2180 -0.0614
17115W        W60168  32.130  32.337   6.176 -0.0854 -0.1259 -0.1435
17116W        W60169   1.435   6.369  21.920 -0.0463  0.0968 -0.0945
17117W        W60170  30.003   0.030  15.041  0.1748  0.1718  0.3298
17118W        W60171  25.801   8.756  17.024 -0.0039  0.0793  0.1506
17119W        W60172  18.148   5.995   2.730  0.0647  0.1204  0.2753
17120W        W60173  11.218   0.436   1.377  0.0129  0.0482  0.1833
17121W        W60174   2.302  14.852  28.191 -0.3079  0.1525 -0.0092
17122W        W60175   6.583  26.210   1.752 -0.0726 -0.4061 -0.2105
17123W        W60176  25.704  32.865  21.442  0.0184  0.1580  0.2078
17124W        W60177   4.715  12.364  26.166 -0.0790 -0.0837  0.0347
17125W        W60178   4.441   5.652  19.309 -0.2397  0.0901 -0.2870
17126W        W60179  20.564  13.858   2.994 -0.0201  0.2641 -0.1500
17127W        W60180  14.597   1.922  20.160  0.0645 -0.0456  0.1190
17128W        W60181  24.009   8.100  20.301 -0.2357 -0.2139  0.2410
17129W        W60182   2.164   8.607  21.479  0.0894 -0.1337 -0.0758
17130W        W60183   0.726  30.547  20.543  0.2431 -0.1222 -0.1387
17131W        W60184   5.849   3.300  14.368 -0.0707  0.3516  0.4234
17132W        W60185   5.607  18.613   1.721 -0.0785  0.3637  0.0018
17133W        W60186  29.363   9.642   3.023  0.2178 -0.2020  0.3102
17134W        W60187  23.726   5.219   6.704 -0.3591 -0.1696  0.2394
17135W        W60188  29.604  19.539  14.084  0.1490 -0.2297  0.1366
17136W        W60189   5.176  10.650  17.274 -0.0870  0.2674  0.3366
17137W        W60190   6.683  33.553  17.469 -0.2733 -0.0926  0.2082
17138W        W60191  12.852  29.986   1.041 -0.0178 -0.0401 -0.0263
17139W        W60192   1.762  17.387  13.573  0.0655  0.1682 -0.0705
17140W        W60193  25.544   0.922  24.763 -0.3138  0.2048 -0.3975
17141W        W60194  13.867   2.088  19.822 -0.0709 -0.0585 -0.3066
17142W        W60195  20.325  34.049  26.443  0.3279 -0.1599  0.0011
17143W        W60196  16.524   8.595  27.936 -0.1537 -0.0538  0.3013
17144W        W60197  18.735   9.581  25.517 -0.3391  0.0852 -0.0218
17145W        W60198  17.516  31.376  16.747 -0.0168  0.1971  0.1341
17146W        W60199  15.712  27.461  22.519  0.0565  0.2280  0.3797
17147W        W60200  12.103  33.075  21.819 -0.1861 -0.0471  0.0657
17148W        W60201  16.309  11.927   4.580 -0.0077 -0.1970  0.1781
17149W        W60202  34.025  25.233  22.044  0.2285  0.0516 -0.0380
17150W        W60203  26.352   8.512  27.091  0.4954  0.2707  0.1732
17151W        W60204   2.838   3.493  28.433 -0.3647 -0.0763  0.1209
17152W        W60205  11.145  21.486   1.351 -0.1780  0.2333 -0.4706
17153W        W60206  26.742  11.555  22.967  0.0003  0.2296 -0.2144
17154W        W60207  15.929  27.408   1.689 -0.2613 -0.3811  0.1990
17155W        W60208   5.557  28.957  17.535  0.1287 -0.0702  0.0222
17156W        W60209   3.324   4.216  15.813 -0.1533  0.2069 -0.0491
17157W        W60210  26.322   8.433   0.768  0.1851 -0.2212 -0.2840
17158W        W60211  24.878  26.840   9.647 -0.2373  0.1716 -0.3043
17159W        W60212  24.852   9.799   2.227  0.2433  0.1462  0.2302
17160W        W60213  20.123  32.136  17.567  0.0551 -0.1150  0.0335
17161W        W60214  30.000   6.670  23.286  0.0562 -0.3523  0.1051
17162W        W60215  12.679  11.020  21.852  0.0326  0.0938 -0.0060
17163W        W60216  27.573   2.840  14.953  0.0504  0.2957  0.3791
17164W        W60217  19.634  32.506  23.032 -0.1476 -0.0372  0.0555
17165W        W60218  30.537   0.741   4.372  0.1393 -0.0374 -0.1113
17166W        W60219  27.909   6.002  23.755  0.1972  0.2969 -0.3357
17167W        W60220  22.402  23.465  27.317 -0.0237 -0.1856  0.2891
17168W        W60221  25.667   2.667   8.532  0.2118  0.0170  0.0381
17169W        W60222  24.760   7.603  26.443 -0.0324  0.1346 -0.0882
17170W        W60223  27.024  30.033  23.102 -0.3216 -0.1071  0.1110
17171W        W60224  16.349  32.852  20.674 -0.0159  0.3024 -0.2357
17172W        W60225  28.316   2.633  24.081 -0.1859  0.1459  0.0001
17173W        W60226  16.476   0.246   8.862  0.1571  0.2497 -0.1780
17174W        W60227   4.958  31.119  14.451  0.2295 -0.1156 -0.1421
17175W        W60228   1.015   5.400   3.539 -0.2543  0.1771  0.0159
17176W        W60229   1.640   7.073  20.623 -0.1553  0.3558 -0.0714
17177W        W60230  27.271  17.279   9.022  0.0329 -0.2896 -0.1442
17178W        W60231  14.692   5.249   1.329  0.3311 -0.0853  0.1371
17179W        W60232  20.458  15.133  28.196 -0.0867  0.6816 -0.4060
17180W        W60233  31.607   9.425  20.267 -0.0527 -0.1275  0.0850
17181W        W60234  18.029  12.386  24.480 -0.2948  0.2908  0.1336
17182W        W60235  27.710   4.752   7.409  0.0446  0.2815  0.2104
17183W        W60236   0.165  24.622  21.009 -0.1035 -0.3727  0.2327
17184W        W60237  14.900  32.021  28.039 -0.0809 -0.0139  0.2567
17185W        W60238  27.381   1.045   9.914  0.0509  0.3560  0.2131
17186W        W60239  19.248  19.609   2.938 -0.1026  0.0772  0.3267
17187W        W60240  32.243   3.125   4.722 -0.2532 -0.0990 -0.1712
17188W        W60241  19.366   5.290   6.480 -0.1003  0.0042  0.0043
17189W        W60242  21.263   7.507   8.471  0.1698  0.5042 -0.1022
17190W        W60243  25.130   9.009   4.251 -0.1057  0.0990 -0.0241
17191W        W60244  32.215   3.975   1.163 -0.0818  0.2304 -0.5407
17192W        W60245   0.379  32.779   8.074  0.0307 -0.1552 -0.0310
17193W        W60246  23.505  26.331  27.239  0.0923 -0.3045  0.1311
17194W        W60247   9.328  31.528  23.905 -0.1213 -0.4785 -0.1848
17195W        W60248  22.935  22.048  15.177 -0.1934 -0.2191 -0.2375
17196W        W60249  13.788  33.387   5.223  0.0454  0.1550  0.0408
17197W        W60250  28.372   8.187  17.772 -0.0867  0.1537  0.1641
17198W        W60251  30.131   7.961  25.691 -0.0182  0.0414 -0.0415
17199W        W60252  29.351  12.362  23.035 -0.1200 -0.2768  0.3597
17200W        W60253  19.444  28.293  24.293 -0.4296 -0.2793 -0.0899
17201W        W60254  31.100   0.447  24.681  0.0018 -0.0404  0.0623
17202W        W60255  12.655  28.418  25.118 -0.3689 -0.0370 -0.1849
17203W        W60256  22.370  34.161   4.884  0.1443 -0.0132  0.1393
17204W        W60257   1.789  14.288   5.757  0.1286  0.0296 -0.1893
17205W        W60258   5.537  17.955   8.010 -0.0034 -0.0003  0.0261
17206W        W60259  21.566   8.530   7.130  0.1165  0.1384  0.1339
17207W        W60260  17.237   0.725  26.566  0.0113 -0.0375  0.0071
17208W        W60261  16.417  29.657   6.511 -0.0814 -0.0147  0.1594
17209W        W60262  14.980   4.811  21.555  0.0781  0.0171  0.2498
17210W        W60263  23.048   5.530  24.032  0.0061  0.1233  0.0435
17211W        W60264   5.580   9.938   3.650 -0.1593 -0.0934 -0.3869
17212W        W60265  20.956  12.024   0.823 -0.0779  0.0492 -0.1712
17213W        W60266  27.563  27.165  15.247 -0.0343  0.1486  0.2225
17214W        W60267  23.436   3.316   3.387 -0.0217  0.0403  0.1592
17215W        W60268  29.541  32.738   6.434  0.0386 -0.0314 -0.4726
17216W        W60269  19.827   0.471  19.690 -0.1281 -0.1134 -0.0662
17217W        W60270  10.614   4.013   0.674 -0.2566  0.2360  0.1534
17218W        W60271   2.586  13.789  23.092  0.2857 -0.2255 -0.0080
17219W        W60272   8.966  20.639  22.877  0.0306  0.0632  0.0409
17220W        W60273  31.239   2.493   5.691 -0.3082 -0.0258 -0.0214
17221W        W60274  32.300  22.361  23.761 -0.0260 -0.2685  0.0349
17222W        W60275  10.931   9.441   7.715  0.1682 -0.0670 -0.2735
17223W        W60276  31.457   1.199  28.318  0.2674  0.2915  0.0723
17224W        W60277  30.514  14.828  28.222  0.1046  0.2364  0.2343
17225W        W60278  30.808  13.875  10.081 -0.1197  0.0258 -0.1875
17226W        W60279  16.088   7.070  28.710 -0.1704  0.0351  0.0498
17227W        W60280  20.473  12.666  25.423 -0.0226 -0.3620  0.4259
17228W        W60281  24.507  15.118  14.484 -0.2038  0.0567  0.0070
17229W        W60282  24.525  32.804   2.574  0.2655 -0.2272  0.0291
17230W        W60283  15.187   6.923  27.902  0.0150  0.0609  0.2481
17231W        W60284  22.463  21.883   0.790 -0.0456  0.1271  0.0705
17232W        W60285  19.290  34.255  23.359 -0.1246  0.3408  0.0498
17233W        W60286  13.839   7.959  24.573 -0.1309  0.4313  0.2695
17234W        W60287   9.688  11.674  26.553 -0.0491 -0.0021  0.0430
17235W        W60288  26.955  14.568  18.235  0.2083  0.0125 -0.2202
17236W        W60289  17.381  11.783  17.748 -0.1287  0.2371  0.2781
17237W        W60290   2.727   9.127  15.313 -0.2424 -0.2388  0.0420
17238W        W60291  20.085   6.085  22.905  0.0347 -0.2334 -0.0997
17239W        W60292  30.303  27.523   6.957 -0.2702  0.0682  0.1612
17240W        W60293  21.743  11.491   1.989 -0.0068 -0.2545  0.1358
17241W        W60294  21.782  33.649  20.787 -0.2022  0.0047 -0.0649
17242W        W60295  18.591  31.238  29.167  0.0801  0.1518 -0.2696
17243W        W60296  11.600   2.563   5.050  0.2935  0.0865 -0.2585
17244W        W60297  18.686  28.070   9.531  0.0655 -0.1543 -0.0263
17245W        W60298  32.928  18.444  28.321 -0.1360 -0.2720 -0.4743
17246W        W60299  26.809   0.547   0.540 -0.1508 -0.2422  0.1274
17247W        W60300  21.801  14.982   4.935 -0.0141 -0.2500 -0.1504
17248W        W60301  23.733  32.969  26.751  0.0825  0.2811  0.1322
17249W        W60302  20.381   6.754   5.199 -0.0527 -0.0144  0.3264
17250W        W60303  18.345  31.745  19.455 -0.0506 -0.1126  0.1075
17251W        W60304  13.780   0.904  24.943  0.0911  0.2458  0.1256
17252W        W60305  27.061   2.795  28.087 -0.2117  0.2913 -0.0924
17253W        W60306   6.995  28.440  21.379 -0.3608 -0.1300 -0.0065
17254W        W60307  23.311  33.106  24.677  0.3301  0.0054 -0.3218
17255W        W60308  32.259   1.112  25.157  0.1347  0.1463 -0.1019
17256W        W60309  26.695  23.451  21.774 -0.1823  0.1677  0.2946
17257W        W60310  27.558   8.192  19.882  0.0210  0.0502  0.0940
17258W        W60311   6.828   7.325   3.027 -0.3155  0.2077 -0.0219
17259W        W60312  27.274   9.533   1.323 -0.1329  0.1693 -0.1014
17260W        W60313  25.659  27.546   0.618  0.4281  0.2579  0.2488
17261W        W60314  20.419   8.845   6.352  0.4701  0.0848  0.1438
17262W        W60315   3.082   3.490   0.946 -0.0928 -0.1434  0.1222
17263W        W60316  24.370  30.534  14.956 -0.0760 -0.3344  0.5882
17264W        W60317  31.761   6.136  22.428  0.2794 -0.0590  0.4028
17265W        W60318  13.903   4.712  20.275 -0.0206 -0.2428  0.0087
17266W        W60319  33.057  14.479  16.566  0.0689 -0.0110 -0.0592
17267W        W60320  21.570   3.386  10.734  0.0631  0.0273  0.0878
17268W        W60321  13.666   6.479  26.106 -0.3469 -0.3808  0.1520
17269W        W60322  26.165  12.381   2.535 -0.1225  0.0326  0.1840
17270W        W60323  19.976  21.569  25.387 -0.0156 -0.0868 -0.0589
17271W        W60324  17.069   9.912  18.262 -0.3426  0.0203 -0.0144
17272W        W60325  23.354  20.729  15.538  0.2704  0.0786 -0.4540
17273W        W60326  31.297   1.688   1.205 -0.1456  0.1919  0.1422
17274W        W60327  14.733   5.426  19.751 -0.0498  0.0779 -0.1455
17275W        W60328  27.288   7.266  27.049 -0.1127  0.3478  0.2156
17276W        W60329  12.973  25.236   7.980 -0.1387 -0.0458 -0.3543
17277W        W60330  30.293  30.626  22.689  0.1089 -0.1182 -0.3705
17278W        W60331   2.979  13.838   5.834  0.2607  0.2376 -0.0802
17279W        W60332   4.761  13.238  27.757 -0.0869  0.3814  0.0173
17280W        W60333  20.868  20.041   4.976  0.1555 -0.2824 -0.1135
17281W        W60334  25.397   5.072  27.267 -0.1915 -0.0909  0.1932
17282W        W60335  30.868   1.911  18.387  0.4197  0.2896 -0.1428
17283W        W60336  14.459  31.233   6.431  0.3648  0.1464  0.3094
17284W        W60337  23.941  30.520   8.526  0.2547 -0.1062  0.1952
17285W        W60338  22.177   4.498  14.096 -0.2152 -0.1038 -0.1808
17286W        W60339   3.120  10.447  20.668 -0.3605  0.0477  0.1417
17287W        W60340  18.999  27.667   7.488  0.0347  0.0265 -0.0052
17288W        W60341   1.319   5.298   9.559 -0.0085  0.0096  0.0086
17289W        W60342  24.779   5.970  25.759  0.1509 -0.1296  0.1258
17290W        W60343  15.264  31.701  20.192  0.1369 -0.2925 -0.0312
17291W        W60344  31.697  16.329  18.879  0.1586 -0.1144  0.0414
17292W        W60345  25.844  27.191  18.172 -0.2152  0.0904 -0.0439
17293W        W60346  31.966  11.633  17.167 -0.2979 -0.2770  0.0536
17294W        W60347   3.272  33.528  18.987 -0.2893 -0.1509  0.1491
17295W        W60348  27.499  25.005  21.903 -0.5324 -0.0588  0.1360
17296W        W60349  28.398  18.643   3.909  0.2519  0.3802  0.0231
17297W        W60350  30.253  17.509  26.586 -0.0343  0.0432 -0.1241
17298W        W60351  31.402   3.469  17.662  0.0043 -0.2802  0.2885
17299W        W60352  30.237  33.158  25.854 -0.3156 -0.2432  0.0725
17300W        W60353  19.515  11.338   2.086  0.1609  0.0813 -0.1337
17301W        W60354  18.166  28.769   8.663 -0.1769  0.0598 -0.1875
17302W        W60355  17.347   0.444   9.441  0.5060 -0.3751  0.1021
17303W        W60356   7.709   4.755   1.299  0.1848  0.2070  0.0049
17304W        W60357   0.125   9.368   5.812  0.2661  0.0135  0.0932
17305W        W60358  16.661  20.805  22.452 -0.1199 -0.0842 -0.0078
17306W        W60359  15.991   2.196  26.966 -0.1116 -0.1831  0.1761
17307W        W60360  27.755  13.125   5.065 -0.2004  0.0217 -0.1835
17308W        W60361  28.112  30.609   2.266 -0.1033  0.4471  0.1094
17309W        W60362   0.985   4.398  16.903 -0.3024  0.0858  0.2797
17310W        W60363  34.114  18.542  20.461 -0.0942 -0.1548 -0.2662
17311W        W60364  26.959  11.790   3.693  0.1371 -0.1680 -0.1078
17312W        W60365  18.818  17.068   9.186 -0.1888  0.0783  0.1816
17313W        W60366   0.195  13.404  21.936  0.1125  0.0181  0.1983
17314W        W60367  26.221   2.721   2.207  0.0265 -0.0654  0.1676
17315W        W60368  19.449   2.643   5.380 -0.1496  0.0771 -0.0290
17316W        W60369   0.145  31.470  18.512  0.2810  0.1495 -0.2924
17317W        W60370   5.691   7.159  26.007 -0.4408 -0.3538  0.5576
17318W        W60371  19.753   5.544  15.195 -0.1097  0.0297 -0.3581
17319W        W60372  26.598   1.240  25.187  0.0998  0.0568 -0.1165
17320W        W60373  20.934  12.452  21.135 -0.2791 -0.0454 -0.0750
17321W        W60374  24.894  31.719   0.585 -0.1392 -0.2798 -0.1882
17322W        W60375  20.834  30.004  25.702  0.3427  0.1476  0.1559
17323W        W60376   5.418  28.760  24.005 -0.0517  0.0266 -0.1008
17324W        W60377  13.372  25.189  27.783 -0.0420  0.2830 -0.3079
17325W        W60378  11.761   5.644  21.914 -0.1193 -0.1631  0.2360
17326W        W60379  19.535  23.956  20.628  0.1872  0.0636  0.0002
17327W        W60380   1.559   5.644   3.732 -0.4356 -0.2303 -0.0002
17328W        W60381  19.139  13.780  28.177 -0.1627  0.3548  0.0093
17329W        W60382  25.388  11.836  23.061 -0.0534 -0.0039 -0.2610
17330W        W60383  25.435  12.184  22.681  0.2427 -0.1542  0.3517
17331W        W60384  33.748  12.800  14.154  0.2587  0.1043 -0.2603
17332W        W60385  24.685  12.975  25.143  0.1239  0.0816  0.1883
17333W        W60386   0.998  34.628  19.395 -0.2952 -0.1668 -0.3297
17334W        W60387   0.676   3.171   8.490 -0.0794  0.2029 -0.0912
17335W        W60388  33.985   0.566   9.012  0.1560  0.1903  0.2712
17336W        W60389  22.682  17.553   9.102  0.1294 -0.1244 -0.0331
17337W        W60390  21.703   6.136   1.256 -0.2180 -0.4119 -0.2305
17338W        W60391  23.574  11.145   8.848 -0.0753  0.0767  0.0146
17339W        W60392  27.080  24.405  20.201  0.0833  0.0210  0.0159
17340W        W60393  28.897  20.605   9.866  0.1362 -0.0192 -0.1991
17341W        W60394  32.633  25.284  21.931  0.1338 -0.1081 -0.1151
17342W        W60395  34.107  11.958  17.133 -0.0748 -0.0381  0.0055
17343W        W60396  29.941   7.325   4.931 -0.0633 -0.2487  0.0642
17344W        W60397  26.527   6.986  19.119  0.0328 -0.1283 -0.1613
17345W        W60398  24.288  16.054  23.924 -0.1761  0.0313 -0.0557
17346W        W60399  32.185   8.590  27.973  0.0324  0.0730  0.1229
17347W        W60400  24.043  22.999  18.347 -0.1615  0.0986 -0.0393
17348W        W60401  30.754   0.700  22.774 -0.2148  0.0049  0.4994
17349W        W60402  19.663   8.832   4.243  0.1747  0.0144  0.0410
17350W        W60403  14.635  34.456  15.450 -0.1193 -0.1971 -0.0006
17351W        W60404   0.505   3.264  17.135  0.0050 -0.2501 -0.2030
17352W        W60405  21.584  12.801  28.193  0.1665  0.3398 -0.2760
17353W        W60406   0.018  20.761  25.917 -0.1314  0.2559 -0.2247
17354W        W60407  29.963  22.561   3.587 -0.0524  0.0462  0.1717
17355W        W60408  27.481  34.407  14.963  0.1069  0.1025 -0.0314
17356W        W60409  30.922   2.675  25.124  0.0526 -0.2930  0.1335
17357W        W60410  21.236   0.810   0.116  0.2615 -0.0471 -0.0664
17358W        W60411   1.606   4.884  22.194  0.2820 -0.5005 -0.3144
17359W        W60412   4.892   5.748  21.413  0.2872  0.2815  0.1943
17360W        W60413  28.459   7.722  27.704  0.0777  0.2701  0.0087
17361W        W60414  12.995   4.048   0.093  0.1327  0.1064  0.1101
17362W        W60415  12.137  26.517  17.099  0.1806 -0.1199  0.1424
17363W        W60416  30.271   7.030  14.440  0.0635  0.2133 -0.0779
17364W        W60417   8.820  15.737   9.249 -0.0165 -0.0723  0.2214
17365W        W60418   0.051  33.530   7.629  0.0241 -0.0419  0.1569
17366W        W60419  25.317  16.906   8.324 -0.1698 -0.0449 -0.0203
17367W        W60420  20.341  19.331   5.431  0.1210 -0.2496 -0.0031
17368W        W60421  32.377   5.601  16.081 -0.0733  0.0418  0.2201
17369W        W60422  19.391  11.999   8.796 -0.0224  0.2474  0.2440
17370W        W60423   3.233   1.066  27.793 -0.1994  0.1245 -0.0481
17371W        W60424  22.012  21.910  26.060  0.0578 -0.2641 -0.2327
17372W        W60425  24.835   9.110   9.699  0.0079  0.0939  0.1803
17373W        W60426  34.294  33.187   6.755  0.4341 -0.1384 -0.3505
17374W        W60427  12.575   8.831   8.112  0.1624 -0.3634 -0.0896
17375W        W60428  24.436   5.928  22.526 -0.4536  0.2025 -0.1009
17376W        W60429  28.255  20.367  17.267  0.2323 -0.0425 -0.3126
17377W        W60430  32.357  18.936  13.843 -0.0488 -0.0701 -0.1742
17378W        W60431  15.555  14.322  14.505  0.0589  0.0247  0.0426
17379W        W60432   8.137   9.798  28.652 -0.1848  0.1699  0.2511
17380W        W60433   4.935   8.885  26.593  0.1296 -0.1023  0.2820
17381W        W60434  27.064  17.330  18.441  0.3356  0.2853  0.0129
17382W        W60435  27.068  11.602  15.102  0.2733 -0.2599  0.1937
17383W        W60436   4.576  33.710  14.796 -0.0754  0.1900 -0.0671
17384W        W60437  11.549   0.913  19.774  0.3328 -0.1236  0.0627
17385W        W60438  16.223  29.528  14.951  0.1876  0.0416  0.1254
17386W        W60439  22.792  10.482  20.246 -0.3433 -0.0064  0.1367
17387W        W60440   4.848  27.883   3.364 -0.0036 -0.0630 -0.1228
17388W        W60441  34.503   9.924  28.504 -0.0341  0.2909 -0.1434
17389W        W60442  27.650   0.896   9.407 -0.1200 -0.2608 -0.1031
17390W        W60443   9.818  16.932  16.199  0.0568  0.3396  0.2979
17391W        W60444  16.222   8.052  24.414 -0.1815 -0.1606  0.2188
17392W        W60445   0.515   0.351  16.845  0.1835 -0.1073 -0.3289
17393W        W60446  31.072  12.146  21.524  0.1414  0.0776 -0.0923
17394W        W60447  22.885  31.606  16.067  0.3564 -0.0251  0.3589
17395W        W60448  23.895  16.067   6.900  0.1855 -0.1828 -0.0142
17396W        W60449  34.386  33.515   9.375  0.0764 -0.0919 -0.1616
17397W        W60450  19.592  11.185  25.730  0.0843  0.2759  0.0495
17398W        W60451  30.132  29.457  10.491  0.0672 -0.0036 -0.3097
17399W        W60452  20.634   1.386  25.628 -0.0422  0.3205 -0.1124
17400W        W60453  26.872   9.521  25.946 -0.0764  0.1512 -0.1044
17401W        W60454  15.908   7.835   8.780 -0.1433  0.2847 -0.1219
17402W        W60455  33.242  23.376  17.189  0.0746  0.1844 -0.1172
17403W        W60456  18.578  11.767  24.041  0.1607 -0.1683  0.0158
17404W        W60457  29.547  12.464  25.462  0.1823 -0.0464  0.0116
17405W        W60458  23.102  21.154  23.141  0.0059 -0.0651 -0.0590
17406W        W60459  33.813  13.560  18.871 -0.4404  0.0190 -0.0684
17407W        W60460  20.055  16.037  26.744 -0.1319 -0.2992 -0.1598
17408W        W60461  11.699  29.604   8.913 -0.1614  0.0132 -0.2333
17409W        W60462   8.956   4.133  10.589  0.2535  0.3694  0.0227
17410W        W60463  22.562  25.434   6.248 -0.1361 -0.4135 -0.1161
17411W        W60464  26.985   7.343  24.131 -0.0500 -0.0683  0.2516
17412W        W60465  24.783  18.506   0.609  0.0819  0.1872  0.1664
17413W        W60466  13.168  29.328  19.912 -0.1771  0.0136 -0.0908
17414W        W60467   2.582   5.365  27.852 -0.0869 -0.1283  0.0122
17415W        W60468  23.685   0.647   3.499 -0.0434  0.0223 -0.1817
17416W        W60469  16.696  18.773  25.497 -0.4255  0.1863 -0.2741
17417W        W60470  18.084   8.420  15.533  0.2479 -0.2320 -0.0701
17418W        W60471  20.347  33.465   5.418 -0.0483  0.0221 -0.5003
17419W        W60472  15.132  16.426  22.836 -0.2097 -0.2070  0.3524
17420W        W60473  11.555  32.086  25.770  0.0174 -0.0529  0.2368
17421W        W60474   7.047  12.461  18.747  0.0803 -0.0927  0.0739
17422W        W60475  17.803  10.947   9.478 -0.0432 -0.0029  0.2356
17423W        W60476  16.461  33.384   6.725 -0.2369  0.1967 -0.2314
17424W        W60477  30.933   5.664  17.915  0.0398  0.0639  0.0651
17425W        W60478  30.829  34.599  18.114 -0.3266 -0.1272  0.0304
17426W        W60479  20.967  12.090  24.295 -0.0862  0.0090 -0.2454
17427W        W60480  30.667  11.973   7.089 -0.4267 -0.1630  0.1138
17428W        W60481  27.247  16.748   2.250 -0.2276 -0.4634  0.1371
17429W        W60482  34.497  29.166   3.690  0.2563 -0.1762 -0.0052
17430W        W60483  29.777  32.834   6.863 -0.1054 -0.0787  0.3099
17431W        W60484  12.427  13.202   1.032  0.2096  0.1330 -0.0201
17432W        W60485   9.960  33.848  14.956  0.1079  0.0901  0.0243
17433W        W60486  30.450   7.384   4.761 -0.0830  0.1529 -0.2382
17434W        W60487  18.484   1.002  24.354 -0.3238  0.0113 -0.1303
17435W        W60488  27.181   9.592  26.356 -0.0223 -0.0947 -0.2311
17436W        W60489   2.129   6.228  15.192  0.0985 -0.2418 -0.1152
17437W        W60490  28.864  33.238  18.640 -0.1141 -0.0713 -0.3835
17438W        W60491  20.646  15.279  16.247  0.1140 -0.2163  0.2050
17439W        W60492  32.004  11.795  27.466 -0.1733 -0.0834 -0.0462
17440W        W60493  14.460  17.952   6.231 -0.1114 -0.1333 -0.0108
17441W        W60494  24.306  32.553  21.314  0.1289  0.1987  0.5036
17442W        W60495  25.017  26.726  20.445 -0.1644  0.3102 -0.1611
17443W        W60496  31.824  12.445   7.101 -0.1514 -0.1936  0.3880
17444W        W60497  26.781  13.213  15.255 -0.1083  0.0081  0.1052
17445W        W60498  32.175  20.536   9.407 -0.1183 -0.0993 -0.1822
17446W        W60499  32.210  15.772   3.499 -0.0436 -0.1060 -0.0146
17447W        W60500   7.926  11.200  27.088 -0.3285  0.2259 -0.1385
17448W        W60501   3.244   5.600  27.983  0.0159  0.0201  0.2537
17449W        W60502  22.771  16.802  14.917 -0.0025  0.0340 -0.0069
17450W        W60503   4.187  28.317   4.528  0.0536  0.2196  0.0116
17451W        W60504   3.114  30.228  17.269  0.3316 -0.0722 -0.2286
17452W        W60505  33.856  16.074  19.263 -0.0109  0.1361 -0.0595
17453W        W60506  19.843   5.487   1.975 -0.0669 -0.0351  0.0509
17454W        W60507  15.928   3.394  27.482  0.0023 -0.0508 -0.2143
17455W        W60508  29.751   2.809  23.792  0.0231  0.3258 -0.1886
17456W        W60509  25.151  34.517  25.214  0.0304 -0.0008 -0.2183
17457W        W60510  25.679  25.249  25.698 -0.0212  0.0321 -0.1549
17458W        W60511  27.167  31.663  20.759  0.1418  0.2517  0.3825
17459W        W60512   5.771   8.482   4.317 -0.2715 -0.1117 -0.1253
17460W        W60513  25.837  31.814   1.156  0.3517 -0.0024  0.0809
17461W        W60514  31.527   6.616   0.360 -0.2721  0.0856 -0.0993
17462W        W60515  21.889   8.018   1.627  0.1986  0.3537  0.1108
17463W        W60516  19.049  25.231  17.529  0.1281  0.3343  0.0556
17464W        W60517  27.835  28.145   8.775 -0.1350  0.1561  0.3742
17465W        W60518  24.785  10.965  21.490 -0.2459 -0.1951  0.0850
17466W        W60519  30.404  24.427  19.276 -0.0129  0.0984  0.1330
17467W        W60520  21.570   3.394   7.206 -0.1845  0.2518  0.0899
17468W        W60521  26.407  20.977  26.611  0.1500 -0.0139 -0.0014
17469W        W60522  23.804  14.090  16.268  0.3251 -0.2396  0.0029
17470W        W60523  31.342   9.899  23.318 -0.0463  0.0847 -0.0074
17471W        W60524   1.659   8.310  19.860 -0.1650  0.3293 -0.3636
17472W        W60525  25.274   4.085  24.449  0.1780  0.0283 -0.1841
17473W        W60526  19.592  34.560  22.070  0.0479 -0.1176  0.1642
17474W        W60527  27.977   5.643  19.898 -0.0717 -0.2931 -0.0848
17475W        W60528  22.470   3.394  28.093 -0.2362 -0.0022 -0.2928
17476W        W60529  24.312   9.382   0.192 -0.1521 -0.1217  0.0413
17477W        W60530  23.710   9.065  26.014 -0.1100  0.1692  0.1952
17478W        W60531  16.460  34.544   7.983 -0.0775  0.1372  0.1121
17479W        W60532  31.477   5.957   1.671 -0.1300  0.1717 -0.1756
17480W        W60533  10.772   6.738  27.994  0.1178  0.0483  0.2318
17481W        W60534  27.929   3.724  21.521 -0.0736 -0.1261 -0.0694
17482W        W60535   8.567  10.672   3.779  0.1303  0.2056  0.1059
17483W        W60536  31.085   0.676  27.613 -0.2956 -0.1365 -0.0640
17484W        W60537  23.597  31.791  24.646 -0.0800 -0.1768  0.0908
17485W        W60538  18.989  15.949  24.766 -0.3619  0.0463 -0.4612
17486W        W60539  19.812  32.638   9.397 -0.2135 -0.0738 -0.3140
17487W        W60540  30.238   5.100  23.358  0.0966  0.0873 -0.0574
17488W        W60541  34.008   5.245  28.174  0.0185 -0.1898 -0.3134
17489W        W60542  26.262   7.836   0.866  0.2438 -0.1694 -0.0470
17490W        W60543   9.137  33.257  21.707  0.1031 -0.1418  0.1026
17491W        W60544  19.052   3.365  27.861  0.0271  0.2803 -0.1010
17492W        W60545   0.092  17.229  21.100 -0.0311 -0.1970 -0.1462
17493W        W60546  33.136  30.320  14.490 -0.1516  0.2219 -0.2555
17494W        W60547  20.506  18.386  29.005  0.2084  0.0037  0.2083
17495W        W60548  11.625  11.380   0.526 -0.1018 -0.2903  0.2230
17496W        W60549   1.994   7.297  21.515 -0.3669 -0.0263  0.2505
17497W        W60550  28.497  29.702  21.314 -0.0860 -0.1313 -0.0061
17498W        W60551  21.596   7.851   7.171 -0.2620 -0.0146  0.3287
17499W        W60552  20.495  13.180  23.331 -0.1777 -0.2282  0.0400
17500W        W60553  30.533   8.402  24.899  0.1768  0.0064 -0.1282
17501W        W60554  34.530  24.312   4.981  0.1094 -0.0852  0.0753
17502W        W60555  31.219  14.800  20.025  0.0782  0.1040  0.5764
17503W        W60556  13.466  22.346  27.799  0.1155  0.1897 -0.3402
17504W        W60557  20.448   8.451  26.434  0.0364 -0.1196 -0.1789
17505W        W60558  28.311  34.630  25.872  0.0771  0.0048  0.0183
17506W        W60559  23.497  11.078  23.517 -0.4202 -0.0487  0.0024
17507W        W60560  28.092  21.262   6.560  0.0216  0.0398  0.2282
17508W        W60561  29.782   7.568  20.036 -0.0175  0.1356  0.2561
17509W        W60562  22.305  34.618   8.990  0.1744  0.0681  0.4172
17510W        W60563  22.215   6.832   8.777  0.1736  0.2364 -0.1196
17511W        W60564  30.148   9.272   4.751  0.0437  0.2002  0.2516
17512W        W60565   8.936  27.509  28.657 -0.1988  0.3717  0.0069
17513W        W60566  27.084  19.737  22.465 -0.0258 -0.2349 -0.0919
17514W        W60567  10.890  27.180  28.869 -0.1489  0.0435 -0.0377
17515W        W60568  28.722  16.533   1.589  0.0056 -0.0767  0.3289
17516W        W60569   1.907   7.138   2.683  0.1299  0.2146 -0.0907
17517W        W60570  14.699  30.808   7.328 -0.1412 -0.3226 -0.2863
17518W        W60571  29.109  31.679   1.930  0.0000 -0.1749 -0.3840
17519W        W60572  13.770  11.455   1.126 -0.1222 -0.0202  0.0369
17520W        W60573  17.916   3.206   6.442  0.1626  0.0991 -0.0580
17521W        W60574  11.971   8.256  11.358  0.2136 -0.1537  0.2459
17522W        W60575  23.249   4.422  21.549  0.3513  0.2322 -0.1173
17523W        W60576  30.335   4.081  10.517  0.0055 -0.3888  0.0540
17524W        W60577  12.020  10.323   2.412  0.3019 -0.0605  0.1071
17525W        W60578   1.753  25.263   6.289 -0.0160 -0.5599 -0.2276
17526W        W60579  20.835  34.303  26.588  0.1301  0.2959 -0.4366
17527W        W60580  32.450   2.313   0.618  0.2099 -0.1889 -0.0931
17528W        W60581  27.213  31.128   5.827 -0.3477  0.0707 -0.2011
17529W        W60582  28.931  32.722  28.928  0.1213 -0.2691  0.1559
17530W        W60583  10.567  28.374  28.841 -0.3637 -0.2832 -0.3094
17531W        W60584  21.590  13.503  22.121  0.3218  0.2772 -0.0311
17532W        W60585   9.076   8.996  27.409  0.1394 -0.2664  0.1084
17533W        W60586   0.398   1.919   5.883 -0.0877  0.1478  0.0059
17534W        W60587  30.652  29.264  26.725 -0.1921 -0.2291 -0.1197
17535W        W60588  25.831  19.309   0.857  0.3345  0.1042  0.0100
17536W        W60589  25.967   1.000  24.435  0.2013 -0.0162  0.0334
17537W        W60590  11.778  33.045  17.710  0.1738 -0.1176  0.1730
17538W        W60591  22.233   0.159   4.599  0.1713 -0.0492 -0.3180
17539W        W60592  10.876  32.741  25.542 -0.4507 -0.1288 -0.0971
17540W        W60593  20.745   1.799  15.958 -0.2717 -0.2155 -0.1057
17541W        W60594  20.484  33.050  21.516  0.1365 -0.1994 -0.2068
17542W        W60595  17.953  30.702  26.625 -0.2228  0.1004 -0.1527
17543W        W60596  26.624  33.223  10.062  0.1096  0.2601  0.0551
17544W        W60597  28.832  32.710  21.375  0.0887 -0.1361 -0.0267
17545W        W60598  25.324   3.462   0.967 -0.1908 -0.1910 -0.2089
17546W        W60599  27.982   7.489  14.482 -0.2698  0.0047  0.0522
17547W        W60600   3.855   5.206   5.434  0.1343 -0.2154  0.0834
17548W        W60601  20.582  34.671  10.111  0.0964  0.0444 -0.0205
17549W        W60602  28.626   4.949  26.154  0.1650 -0.0736  0.1470
17550W        W60603   3.653  21.849  27.952  0.0616 -0.1060 -0.2805
17551W        W60604  31.181   5.502  27.092  0.1559  0.0226 -0.0370
17552W        W60605  15.753  21.789  24.189  0.3413  0.0629 -0.2723
17553W        W60606   8.070  11.927   3.165  0.1939 -0.1382 -0.1408
17554W        W60607   2.697  17.610  14.520 -0.4227  0.1257  0.2922
17555W        W60608  25.445   2.994  27.338 -0.0525 -0.0820 -0.1273
17556W        W60609  30.127  19.779   4.941 -0.2148 -0.0435 -0.1292
17557W        W60610   2.438   7.444  13.608 -0.2753  0.2284 -0.0743
17558W        W60611  21.184  15.545  20.721  0.1112 -0.1586  0.0088
17559W        W60612   5.881   4.416   5.198  0.1616  0.0249 -0.0706
17560W        W60613  31.550  27.107  23.733  0.1886 -0.1861 -0.2944
17561W        W60614  27.415   0.728   3.435  0.1172  0.3230 -0.0649
17562W        W60615  24.502   9.203  20.748 -0.1673 -0.1911  0.1329
17563W        W60616  26.377   1.193   4.967  0.1029 -0.0301  0.1426
17564W        W60617  29.382   2.256  26.564 -0.0330 -0.2213  0.1197
17565W        W60618  13.979   7.095  16.481  0.0102 -0.1149 -0.1707
17566W        W60619  29.198   8.824   1.415 -0.0893 -0.2136 -0.1155
17567W        W60620  31.819   2.523   8.304  0.0166 -0.0161 -0.0745
17568W        W60621  19.272  18.584  12.886  0.0864 -0.1211  0.0659
17569W        W60622   3.786   0.339   7.390  0.0394 -0.1585  0.1790
17570W        W60623  29.449   5.806  21.923 -0.0932 -0.1457  0.2960
17571W        W60624  19.235  34.510  15.533  0.1786  0.1997 -0.4360
17572W        W60625   8.613  13.850   8.259  0.2053  0.1953  0.3673
17573W        W60626   5.296  34.236   6.020 -0.0041  0.0924 -0.1285
17574W        W60627  19.429   9.567  27.096  0.0652 -0.2370  0.0796
17575W        W60628  17.398  14.925   0.171 -0.2060 -0.0919 -0.0632
17576W        W60629  28.823  19.040  24.284 -0.2110  0.1951  0.1592
17577W        W60630  31.797  17.007  15.530  0.0721  0.4998  0.1171
17578W        W60631  20.243  14.992  22.732  0.0467 -0.3810 -0.0684
17579W        W60632   6.455  30.012   9.623 -0.2325  0.1341  0.2575
17580W        W60633  27.781   1.556  23.435 -0.2650  0.0113  0.0493
17581W        W60634   0.363  17.743  20.592  0.1114  0.0567 -0.0695
17582W        W60635  32.655  13.997   8.078  0.0160 -0.0191 -0.2464
17583W        W60636  34.078  19.228   9.261 -0.0308  0.2847 -0.0799
17584W        W60637  24.574  34.271  10.064  0.2009  0.2398  0.0256
17585W        W60638  33.337   2.576   8.158  0.0165  0.1954 -0.0229
17586W        W60639  24.946   0.389   8.660 -0.0219 -0.0974 -0.2180
17587W        W60640  14.011   7.764  23.858  0.2685 -0.1865  0.4319
17588W        W60641  30.413  19.378  17.344 -0.1268 -0.3216  0.0858
17589W        W60642   2.893   2.211   0.310  0.0233  0.1512  0.2724
17590W        W60643  10.095   8.691  19.522  0.2824  0.1720  0.1266
17591W        W60644  14.065  14.194  23.485  0.0544 -0.2999 -0.0942
17592W        W60645  20.069   4.890   5.873  0.1371 -0.3299  0.0294
17593W        W60646   6.476  34.443  23.728  0.2905  0.2001 -0.0862
17594W        W60647   1.244  32.642   1.860 -0.2110 -0.1334 -0.0108
17595W        W60648  27.985  11.014   1.669 -0.3811 -0.1981 -0.0525
17596W        W60649  22.468   3.276   4.537 -0.2892 -0.2967 -0.1167
17597W        W60650  16.188  16.104   0.295 -0.2799  0.1369  0.0630
17598W        W60651  30.544   2.428   9.107 -0.0624 -0.3398  0.4882
17599W        W60652   3.679  19.028  25.866  0.2205  0.0562 -0.1777
17600W        W60653  27.349  30.266   1.908  0.3629  0.2174 -0.2609
17601W        W60654   1.574  24.781  13.603 -0.1269  0.0461  0.0313
17602W        W60655  26.676   7.002  17.224  0.2823  0.0570  0.2405
17603W        W60656  23.325  23.629   1.200  0.1914 -0.2906  0.1830
17604W        W60657  21.564  29.589   5.283 -0.1374 -0.0001 -0.1593
17605W        W60658  12.190  28.474  25.611 -0.0503 -0.2008  0.0431
17606W        W60659   0.883  17.095  26.699 -0.1501 -0.1075 -0.2784
17607W        W60660   0.432   2.262  23.825 -0.4000 -0.0379  0.1488
17608W        W60661   0.908  28.965   2.700  0.0206 -0.1774  0.0454
17609W        W60662  23.533  27.029   3.686  0.0295  0.2650 -0.1682
17610W        W60663  32.883   7.179   2.214  0.0954  0.1504 -0.0065
17611W        W60664  24.518  16.763   9.346 -0.1411  0.0228 -0.1544
17612W        W60665  19.912   5.757  16.923 -0.3376  0.2923  0.0125
17613W        W60666   6.150  28.289  20.980 -0.3446  0.0330 -0.0203
17614W        W60667   8.131   3.935   5.841  0.0247  0.1031  0.2261
17615W        W60668  29.081   1.705  21.369  0.1469 -0.0557  0.1322
17616W        W60669   8.439   2.055  23.516  0.2356 -0.0066  0.0811
17617W        W60670  17.058  12.786  14.547 -0.3741 -0.4119 -0.5707
17618W        W60671  32.766  23.445  16.908  0.0716 -0.1677 -0.0984
17619W        W60672   8.082  30.378  21.159  0.0495 -0.0694 -0.0369
17620W        W60673  23.591   0.415  20.487  0.3746 -0.1074  0.0946
17621W        W60674  20.896   6.038  22.345  0.0281 -0.1414 -0.0527
17622W        W60675   4.413   1.433  14.300  0.0290 -0.1681  0.0781
17623W        W60676  27.427   1.536  18.547 -0.1131 -0.0027 -0.1471
17624W        W60677  33.772  17.072  22.285 -0.1398 -0.1890 -0.2519
17625W        W60678  32.078  30.488  15.992  0.0558 -0.1518 -0.1728
17626W        W60679  13.002   8.304  27.966  0.0365  0.1965 -0.1404
17627W        W60680  20.961   5.015  15.300 -0.0553  0.2552  0.2837
17628W        W60681  30.736   5.778  24.097 -0.0414  0.5920  0.1261
17629W        W60682   1.367   2.189   3.561  0.0425 -0.0057 -0.2003
17630W        W60683  25.722   0.143  21.869  0.0944  0.0168  0.1404
17631W        W60684  24.769  20.865  17.722 -0.3610 -0.1318 -0.1167
17632W        W60685  17.088  16.169  25.526 -0.0405  0.1399 -0.1504
17633W        W60686  33.348  28.352   0.101  0.3167  0.0718  0.0455
17634W        W60687  26.868  25.216  22.569  0.2256 -0.1422 -0.1252
17635W        W60688  25.194  13.932  15.370  0.5729 -0.2134 -0.1022
17636W        W60689  30.315  33.982  16.926  0.2390  0.0218 -0.4202
17637W        W60690  17.997  22.383   5.861 -0.2861  0.2408 -0.1074
17638W        W60691  26.947  16.857  15.226  0.1885 -0.6519  0.2848
17639W        W60692  22.978   2.280  19.675  0.1403 -0.1509 -0.0348
17640W        W60693  24.752  21.335  19.907 -0.0799 -0.3622 -0.0005
17641W        W60694  21.422  24.008  23.225 -0.0956 -0.1926 -0.1495
17642W        W60695  29.305  19.226  18.704  0.1142  0.3414 -0.0377
17643W        W60696  21.121  32.752  15.227 -0.2602 -0.2096 -0.0869
17644W        W60697  30.516   8.421  21.509 -0.1909 -0.0828 -0.2202
17645W        W60698   5.969  31.890  21.362  0.1665  0.1519 -0.0019
17646W        W60699  29.689  24.176  20.861 -0.0370  0.0743 -0.1874
17647W        W60700  29.071   0.877  16.754  0.1107  0.0000  0.2883
17648W        W60701  21.038   7.428  15.422  0.4244 -0.0898 -0.1664
17649W        W60702  29.049   7.422  22.555 -0.2339  0.0153 -0.0082
17650W        W60703  33.128  18.289   2.932  0.3924 -0.5876 -0.1073
17651W        W60704  15.520   2.399   7.515  0.1753  0.4296 -0.1057
17652W        W60705  26.763   1.117  17.757  0.1113  0.0751  0.4372
17653W        W60706   9.312  18.067  19.763 -0.3272  0.2161  0.1393
17654W        W60707   4.782  24.511  22.858 -0.0249  0.0834 -0.0134
17655W        W60708   7.057   4.996  23.442 -0.0767 -0.0350  0.0176
17656W        W60709  16.178  10.658  18.394  0.3478  0.0122  0.3854
17657W        W60710  29.161  17.033  15.995 -0.0506  0.2487  0.0096
17658W        W60711  29.575  33.897  17.890 -0.0192 -0.0613 -0.2182
17659W        W60712   7.113   5.158  27.053  0.0751 -0.0094  0.3002
17660W        W60713  29.985  16.458   2.299  0.1481 -0.1730  0.1302
17661W        W60714  10.704  25.228   0.023 -0.0239 -0.0414  0.1812
17662W        W60715  32.572   2.169  15.265  0.0442 -0.0306 -0.0082
17663W        W60716  20.067  14.686  14.029  0.1998 -0.0790  0.1572
17664W        W60717  21.729   5.909  19.060  0.2212 -0.2782  0.0811
17665W        W60718  32.690  12.535  27.888 -0.0145 -0.3943  0.0024
17666W        W60719  32.480  13.938  22.764 -0.1603  0.0403 -0.0343
17667W        W60720  24.667  10.301  15.942 -0.0740  0.0087  0.0216
17668W        W60721  33.386  19.915  17.066 -0.3053 -0.1265 -0.0109
17669W        W60722   3.803   4.153  25.738 -0.2832 -0.2072 -0.1374
17670W        W60723  34.074  14.782  24.847 -0.0754  0.3313 -0.0273
17671W        W60724  21.672  10.378  26.026  0.0865 -0.4035 -0.1018
17672W        W60725  29.425  33.807  22.471 -0.1035 -0.0383 -0.0059
17673W        W60726   6.790  22.943  16.182 -0.2364  0.3416  0.0862
17674W        W60727  32.692  24.477  16.953  0.1815 -0.0276 -0.0994
17675W        W60728  28.073  32.685   5.356 -0.0708 -0.1365  0.1709
17676W        W60729  16.540   6.259   6.231 -0.4295  0.1969  0.2859
17677W        W60730   1.096  15.158  24.040  0.2529  0.5029 -0.1365
17678W        W60731  22.913  19.624  21.190  0.5410 -0.0306 -0.2727
17679W        W60732  30.538  24.875   7.998 -0.0549 -0.1304 -0.2390
17680W        W60733  31.631  12.144  15.431 -0.2201  0.0110  0.3075
17681W        W60734  31.413  28.008  17.130  0.0960 -0.0632 -0.1295
17682W        W60735   0.571  29.517   3.522  0.1541  0.0360  0.2717
17683W        W60736  17.942   1.738  25.261 -0.1523 -0.2445  0.0333
17684W        W60737  23.784  22.501  23.915  0.1274 -0.0248  0.0056
17685W        W60738  29.787   5.655  17.321 -0.2350 -0.1284 -0.4033
17686W        W60739  21.413   8.899  15.427 -0.0374 -0.3208  0.1715
17687W        W60740   7.047   0.674  23.626  0.4978 -0.1299  0.0207
17688W        W60741  30.931   7.443  18.226 -0.3592 -0.2253 -0.1295
17689W        W60742  18.855  33.760  20.779 -0.3411 -0.0726  0.3717
17690W        W60743  29.242  22.043  19.958 -0.0164  0.1644  0.1990
17691W        W60744  25.437  21.129  18.221  0.1496 -0.0877 -0.1027
17692W        W60745  14.557   0.990  18.263  0.1335 -0.0606 -0.1408
17693W        W60746  23.627   9.623  18.357  0.1058 -0.1344 -0.1317
17694W        W60747  33.642  11.443  19.407 -0.1210 -0.5271 -0.2043
17695W        W60748  18.308  24.285  24.283 -0.0558  0.1689  0.2397
17696W        W60749  25.940   1.365  22.489  0.2624 -0.1908  0.0163
17697W        W60750  34.551  18.434  19.113 -0.0701 -0.1966 -0.2839
17698W        W60751  22.946  12.346  20.032  0.2412  0.0561 -0.0216
17699W        W60752   2.872   6.541  18.521  0.2844 -0.3689  0.0589
17700W        W60753   2.573   9.959   1.942 -0.1886 -0.0595  0.3330
17701W        W60754  33.263  20.891  29.139  0.4885 -0.0127  0.0284
17702W        W60755  29.843  10.276   1.126  0.0060  0.0008 -0.0234
17703W        W60756  30.347  24.546  15.211 -0.0154  0.1242  0.0369
17704W        W60757  29.281  14.988  22.973 -0.0790  0.1748  0.0830
17705W        W60758  32.015  24.669  28.485  0.1336  0.2793  0.1370
17706W        W60759  30.435  19.474  22.858 -0.1780  0.0347 -0.0222
17707W        W60760  22.984   5.289  20.250 -0.2963  0.0259  0.1510
17708W        W60761  33.216  10.173  28.268  0.0044 -0.0468  0.1529
17709W        W60762  33.859  13.283  13.700 -0.0202  0.1184  0.0163
17710W        W60763  32.807  10.057  19.205 -0.0723  0.2454 -0.1705
17711W        W60764   0.387   8.519  22.144 -0.2631 -0.4828  0.1537
17712W        W60765   3.410  15.341  19.166  0.2456 -0.0371 -0.2089
17713W        W60766  28.986   1.110  19.167 -0.2992 -0.0271 -0.1448
17714W        W60767  24.747  16.021  14.864 -0.0264  0.1228  0.0632
17715W        W60768   2.097  17.100  19.771 -0.0394 -0.1437 -0.1447
17716W        W60769   0.395   1.471  14.664 -0.1057  0.1101  0.3525
17717W        W60770  29.067   9.487  14.760  0.2053 -0.2150  0.3142
17718W        W60771  33.271  14.098  16.818  0.0700 -0.0560 -0.2445
17719W        W60772  18.956  11.191  18.963  0.1623  0.1751  0.1984
17720W        W60773  34.655  13.960  15.194  0.1024  0.0074  0.1999
17721W        W60774   4.450  16.652  17.994  0.0130  0.0354  0.0729
17722W        W60775   9.765  11.603  27.584  0.0381 -0.1220 -0.2660
17723W        W60776  19.724   6.742  19.222  0.1012 -0.0428 -0.2355
17724W        W60777   5.998   2.977  23.414  0.0461 -0.0350  0.0847
17725W        W60778  22.742  17.732  27.729 -0.0885  0.2796  0.0825
17726W        W60779  22.991   5.722  24.555 -0.0144  0.0232 -0.0792
17727W        W60780   7.947  17.056  18.553  0.0969  0.1024  0.2821
17728W        W60781  26.245   2.545  14.553 -0.1288 -0.1940 -0.0264
17729W        W60782  33.031   7.152  20.726 -0.0053  0.1352  0.0040
17730W        W60783  10.931   4.983  20.252  0.0305 -0.0406 -0.1405
17731W        W60784   0.284   0.312  28.919  0.0343 -0.2583 -0.1340
17732W        W60785  10.199  31.532  22.050  0.2482 -0.1728 -0.0705
17733W        W60786  30.355  18.226   3.374 -0.1541 -0.5131  0.1208
17734W        W60787  28.355  13.351  17.947 -0.1425 -0.1258 -0.2142
17735W        W60788   9.624  12.702  18.708  0.3028 -0.0262 -0.1905
17736W        W60789  18.155   6.993  23.859  0.1098  0.0718 -0.3704
17737W        W60790   0.919   6.172  20.483 -0.1119 -0.0503 -0.2534
17738W        W60791  26.523  18.559  18.427 -0.0079 -0.0793 -0.2569
17739W        W60792  25.588  14.358  22.483 -0.0509 -0.1443  0.0854
17740W        W60793  34.612  20.258  16.020 -0.2085 -0.0398 -0.2248
17741W        W60794   9.658  14.887  22.061 -0.0309 -0.1429 -0.2592
17742W        W60795   1.235   5.246  22.285 -0.1049  0.1156  0.2518
17743W        W60796  33.809  10.042  20.233  0.2544 -0.1782  0.0202
17744W        W60797  33.660  23.883  19.571 -0.0858 -0.1134 -0.0513
17745W        W60798  19.274  14.272  24.954 -0.6089 -0.1998  0.0045
17746W        W60799   1.077   0.136  15.820  0.0875  0.4511  0.2149
17747W        W60800  20.493  34.596  15.166 -0.0477  0.0392 -0.0772
17748W        W60801  30.073   1.265  24.830  0.2250  0.1776  0.1114
17749W        W60802  17.357   7.563  18.284 -0.3198  0.0836  0.0984
17750W        W60803  18.756   7.500  25.311 -0.1114  0.0464  0.1841
17751W        W60804  25.501  25.579  15.164 -0.0214 -0.1639  0.1250
17752W        W60805  23.667  13.858  20.427  0.0916  0.2291  0.1272
17753W        W60806  21.670   4.842  19.227  0.1948  0.2287  0.0308
17754W        W60807   2.233  21.148   9.606  0.3047  0.1817  0.0170
17755W        W60808  32.360  14.398  23.091 -0.1800  0.1108  0.1387
17756W        W60809  33.321  25.504  15.598 -0.2502  0.0924 -0.0354
17757W        W60810  22.166  29.544  13.923 -0.2410  0.0597  0.4311
17758W        W60811  31.088  19.987   1.821 -0.0683 -0.2910  0.0273
17759W        W60812   1.229   1.730  23.511 -0.0979 -0.1975 -0.1471
17760W        W60813  21.722   6.968  21.023 -0.1634 -0.3189  0.2820
17761W        W60814  21.005  22.712  27.648 -0.1212 -0.0586  0.0089
17762W        W60815  11.675  17.075  20.769  0.1714  0.1517  0.0980
17763W        W60816   5.349   3.530  16.194 -0.0869 -0.0391 -0.0900
17764W        W60817   2.737   3.189  15.029 -0.2028 -0.0256  0.1504
17765W        W60818  34.602  34.398   4.104 -0.1056  0.0243 -0.0276
17766W        W60819  22.811  14.363  14.543  0.1300  0.0553 -0.0526
17767W        W60820  28.862  15.634  14.443 -0.3512  0.0695  0.1852
17768W        W60821  31.325   1.770   0.682 -0.0325  0.0541  0.4164
17769W        W60822  19.775  29.339  16.579  0.0931 -0.1065 -0.1251
17770W        W60823   4.221   4.842  15.711  0.2774 -0.2393  0.2532
17771W        W60824  22.235  25.151   6.857  0.2629  0.2203 -0.1014
17772W        W60825  18.224   2.339   1.652 -0.2616 -0.3243  0.0772
17773W        W60826  17.574  25.930   3.134  0.1082 -0.6223 -0.1301
17774W        W60827   1.823  15.982   0.127  0.0647 -0.1150  0.0052
17775W        W60828  11.641  33.769  26.762 -0.0471 -0.3452  0.0394
17776W        W60829  34.010  33.502   4.521 -0.2241 -0.0215 -0.0010
17777W        W60830  10.098   7.769  29.023  0.0415 -0.0091 -0.0066
17778W        W60831   0.117  21.212  26.622  0.2033  0.0134 -0.1101
17779W        W60832  29.759  17.115   3.237 -0.1418 -0.2179 -0.2953
17780W        W60833   3.706   6.998   1.552 -0.1763  0.1419  0.1806
17781W        W60834   5.788   8.345  19.075  0.1531  0.3753 -0.1806
17782W        W60835  19.456  31.590  15.645  0.0554  0.0855 -0.0558
17783W        W60836  25.880  32.691  27.018 -0.2057 -0.1366 -0.0356
17784W        W60837  33.674  22.816  22.981 -0.0569  0.1393 -0.0153
17785W        W60838  33.742  24.291  13.933 -0.0381 -0.2511 -0.0205
17786W        W60839  14.251   8.304   5.784  0.2231  0.0994  0.0438
17787W        W60840  20.212  10.760  26.187 -0.3845 -0.1110  0.2587
17788W        W60841  25.268  20.158  13.770  0.0396  0.1354  0.2949
17789W        W60842  28.908  17.918  21.695  0.0585  0.1639 -0.1498
17790W        W60843   0.505   2.865  17.532 -0.0175  0.0857  0.1318
17791W        W60844  31.777  18.155  22.202  0.0823  0.2578  0.0153
17792W        W60845  15.242   8.206   1.179  0.0527  0.0460  0.1351
17793W        W60846  31.899  14.951  14.420  0.0619  0.2547  0.3026
17794W        W60847   4.840  13.310   4.641  0.0774 -0.1874  0.1064
17795W        W60848  31.705  34.624  25.869 -0.1864 -0.1508 -0.3243
17796W        W60849  17.568  28.442  25.350  0.0945  0.0197  0.0162
17797W        W60850  23.883   3.127  26.338  0.2644  0.0181  0.0033
17798W        W60851   1.559  26.602  24.801  0.3160  0.2597  0.2887
17799W        W60852  16.372   5.540  22.286  0.1198 -0.0530  0.2605
17800W        W60853  24.661   6.532  17.805 -0.2382  0.1694  0.3365
17801W        W60854  25.578  12.066   1.545  0.0015  0.0637  0.1627
17802W        W60855  15.755   1.571  20.621 -0.1120 -0.2511 -0.2088
17803W        W60856  25.808  12.005  20.112 -0.1364 -0.0713  0.0242
17804W        W60857  13.600  10.880  17.930 -0.1353  0.1174 -0.0100
17805W        W60858   4.193  32.897  21.190  0.0837  0.0035  0.0542
17806W        W60859  26.259   4.929   1.840  0.2369  0.0731  0.2695
17807W        W60860  24.093  14.322  14.516  0.0807 -0.3486  0.2682
17808W        W60861  29.693  31.974  27.711 -0.1807 -0.1705 -0.2156
17809W        W60862   3.361  12.944  19.003 -0.0027  0.1073 -0.0322
17810W        W60863   0.709  18.201   0.966 -0.1102  0.2667  0.2178
17811W        W60864   3.510  26.176  24.023  0.2672 -0.2224 -0.4642
17812W        W60865  25.647   7.037  21.002  0.0718  0.2246 -0.2730
17813W        W60866   5.114   8.475  16.846 -0.0062 -0.0024 -0.1564
17814W        W60867  27.282  25.567  23.931 -0.2373 -0.2708  0.0147
17815W        W60868  24.545  15.202  22.443 -0.2136 -0.0770  0.5048
17816W        W60869  33.311  22.573  17.588  0.1992 -0.0797  0.1711
17817W        W60870  22.596   9.437  24.602  0.0939  0.0331  0.1547
17818W        W60871  26.945   8.882  23.622  0.3894 -0.0127 -0.1605
17819W        W60872  24.206  24.077  26.906 -0.0546  0.0038  0.1324
17820W        W60873   7.466   0.588  16.423  0.0657  0.0776  0.1538
17821W        W60874  31.786  24.446   0.407 -0.0017  0.2040  0.1475
17822W        W60875  22.276  11.906  17.573 -0.0713  0.2435  0.2638
17823W        W60876   1.327  22.717  26.753 -0.2801 -0.0842  0.2114
17824W        W60877   4.131  21.564  25.081  0.0123 -0.0440  0.0870
17825W        W60878   8.852  14.570  18.915 -0.2229 -0.1360  0.1815
17826W        W60879  33.064  17.730   2.411  0.0069  0.2116  0.0002
17827W        W60880  23.810  12.297  20.637  0.1107  0.3529 -0.1116
17828W        W60881  24.691  22.099  18.758 -0.0931 -0.2669  0.0820
17829W        W60882  20.174   5.389  16.243 -0.0863  0.1165 -0.2274
17830W        W60883  28.071  33.253  27.765  0.0911 -0.1628 -0.0534
17831W        W60884  12.306  20.355  15.181 -0.2565 -0.1037  0.1111
17832W        W60885  15.894   5.143  16.881  0.0211 -0.3251  0.4172
17833W        W60886  12.641   2.177   3.346  0.0904  0.0963  0.0942
17834W        W60887   4.329  12.902  16.592 -0.2108 -0.0705  0.1468
17835W        W60888  24.826  26.179   0.831 -0.1789 -0.0268 -0.2523
17836W        W60889  25.282   2.413  16.771  0.0073  0.1200  0.1923
17837W        W60890  23.927   4.436  16.953  0.0643  0.1503  0.0008
17838W        W60891   6.607  10.820  24.614 -0.0951  0.2451 -0.0137
17839W        W60892  30.648  18.751  18.557  0.0498 -0.0398  0.4670
17840W        W60893  26.693   6.309  14.489 -0.2023  0.3291 -0.1302
17841W        W60894   3.590  31.832  17.625  0.1121 -0.0098  0.0900
17842W        W60895   4.103  33.825  21.081  0.0714 -0.1306  0.1338
17843W        W60896  29.628  22.315  15.281  0.0153 -0.0056 -0.0079
17844W        W60897  13.082  11.120  16.764  0.2106  0.1855  0.0174
17845W        W60898  18.244  28.092  19.413 -0.1847  0.2793 -0.0209
17846W        W60899  30.623  15.732  18.026 -0.2494  0.0298  0.2035
17847W        W60900  22.358   6.713  16.163 -0.2531  0.0035 -0.0779
17848W        W60901  10.534  13.203  16.043 -0.2366 -0.2551  0.2060
17849W        W60902  15.225   0.201  20.751  0.2384 -0.2347 -0.2107
17850W        W60903  29.751  17.610  13.589  0.1234 -0.0590  0.2602
17851W        W60904  29.548   3.002  13.589 -0.1148  0.3703 -0.0732
17852W        W60905  16.497   3.297  22.273  0.0504  0.1259  0.1492
17853W        W60906  29.561  22.141  25.181 -0.1403  0.1687  0.0975
17854W        W60907  29.885   8.093  15.149 -0.0201 -0.1227 -0.4392
17855W        W60908  16.049  33.165   3.627 -0.2039 -0.3829  0.1481
17856W        W60909  21.361  11.607  21.048 -0.0701 -0.0143  0.0844
17857W        W60910  22.693   9.443  22.839 -0.0172 -0.0893 -0.0680
17858W        W60911  27.171   8.540  19.896  0.0511  0.0777 -0.1670
17859W        W60912   0.004   2.347  17.267  0.0451  0.0302 -0.2493
17860W        W60913   6.864   3.178  15.414  0.5234  0.1572  0.2800
17861W        W60914  26.966  19.289  15.848 -0.2539 -0.1869 -0.3838
17862W        W60915   0.856   8.229   8.815 -0.0356  0.1116  0.0639
17863W        W60916  26.347  32.917  27.003  0.1355 -0.1075 -0.0047
17864W        W60917  12.688   2.268  18.939 -0.1331 -0.0359 -0.0050
17865W        W60918  26.564   4.938  21.573  0.0623  0.3008 -0.2575
17866W        W60919  25.432   5.976  14.313  0.0119 -0.1702 -0.3669
17867W        W60920  18.955  10.667  18.973 -0.0188  0.1380  0.0354
17868W        W60921   9.535  30.814  14.271  0.0582  0.0708 -0.2937
17869W        W60922   7.773   3.532  21.757 -0.2767 -0.0233  0.1306
17870W        W60923   6.137  13.738   9.616 -0.2669  0.7858 -0.1207
17871W        W60924  15.818   6.128  15.051  0.2929 -0.0530 -0.1575
17872W        W60925  30.875   5.984  17.090  0.1682  0.1415 -0.0873
17873W        W60926  17.598  12.620  20.996  0.0895  0.2104  0.1197
17874W        W60927   8.715  19.377  20.081 -0.1885  0.3487  0.4549
17875W        W60928  29.712  15.864  23.299  0.0262 -0.0468 -0.1051
17876W        W60929  28.435  19.606   3.985 -0.4697 -0.1782  0.3852
17877W        W60930  27.310  15.899  21.021 -0.0286 -0.1106  0.2265
17878W        W60931   1.253  33.175  23.469  0.1221  0.0449 -0.1008
17879W        W60932  28.860   8.336  19.652 -0.1208 -0.0372  0.0225
17880W        W60933   2.352  17.767  26.334 -0.2760  0.1466  0.1356
17881W        W60934   6.235  13.406  15.425 -0.0035  0.2076  0.0815
17882W        W60935  30.068  11.084  24.910  0.0428 -0.0749 -0.1270
17883W        W60936  32.475  24.531  19.565  0.0419 -0.0561 -0.4417
17884W        W60937  29.576   6.183   7.099 -0.1649 -0.3567  0.2184
17885W        W60938  22.083   6.295  23.621  0.2285  0.2961  0.2681
17886W        W60939   1.006  14.934  28.193  0.0663 -0.0482 -0.0863
17887W        W60940  32.591  15.030  28.378 -0.1606  0.0583  0.0629
17888W        W60941  12.608  23.283  14.875  0.5580 -0.2045  0.3037
17889W        W60942  24.233   1.546  14.591  0.2154 -0.1059  0.1805
17890W        W60943  27.578  24.569   4.849 -0.1972  0.2637  0.1244
17891W        W60944  14.392  33.466  19.175 -0.1005 -0.3226  0.1286
17892W        W60945  13.623   6.604  25.245  0.0245  0.1860 -0.1736
17893W        W60946   4.290   7.192  27.676 -0.0204  0.2022  0.2163
17894W        W60947  18.699   4.493  18.756  0.1869  0.1288 -0.0170
17895W        W60948  18.244   7.348   0.621  0.0209 -0.3311 -0.2256
17896W        W60949  31.231  33.194  23.983  0.3445 -0.1025  0.2674
17897W        W60950   4.324   0.647  24.906  0.3404 -0.0004 -0.0206
17898W        W60951  22.097  11.796  17.081  0.2030 -0.3807  0.1284
17899W        W60952  28.704  34.674  17.202  0.0844 -0.2656  0.0593
17900W        W60953  20.281  18.387   4.632 -0.2520 -0.3589 -0.0668
17901W        W60954  27.719  30.680  18.906 -0.1061  0.0380 -0.3184
17902W        W60955  21.143  12.999  16.438 -0.1704  0.0506 -0.2660
17903W        W60956   9.010   7.077  27.655 -0.4680  0.2963  0.1502
17904W        W60957  22.118  24.909  24.027  0.2033  0.0694 -0.1167
17905W        W60958  17.759  21.975  18.448  0.0385  0.2594  0.3499
17906W        W60959  26.356  19.100  25.241 -0.2320  0.3796  0.2229
17907W        W60960   8.814  13.824  23.023 -0.0174  0.3575 -0.4422
17908W        W60961   6.767  14.262  28.894  0.0841  0.2568 -0.1219
17909W        W60962  31.804   4.321  23.872 -0.4234 -0.3991  0.1163
17910W        W60963   6.127  19.290   3.389 -0.0637  0.3026  0.0673
17911W        W60964  10.159  17.414  20.783  0.0499 -0.3633  0.2593
17912W        W60965  22.721  34.249  26.985  0.1385  0.0587  0.1409
17913W        W60966  26.596   3.259   6.209 -0.1844  0.2130 -0.1018
17914W        W60967  27.464   9.728  18.630 -0.2345 -0.0669 -0.1290
17915W        W60968  32.803  34.446  20.277 -0.0454  0.0469  0.1449
17916W        W60969   4.835   9.466  26.229 -0.1769 -0.0133 -0.1316
17917W        W60970  24.228  15.038  27.861  0.0248  0.0314 -0.0205
17918W        W60971  33.529   3.955   3.237 -0.4486 -0.1999 -0.2079
17919W        W60972  20.324   2.775  20.593 -0.2202 -0.1600 -0.0521
17920W        W60973  11.093  14.205  24.074  0.1774  0.2541 -0.2235
17921W        W60974  24.199   2.854   2.713  0.1292 -0.1771 -0.4551
17922W        W60975  10.084   5.227  17.686 -0.0837  0.0436  0.2322
17923W        W60976  18.739   2.583  20.511  0.0334  0.0124  0.1373
17924W        W60977  29.338   5.294  16.292  0.2787 -0.0337  0.0939
17925W        W60978  32.425   8.183  28.192  0.1606 -0.0079  0.0776
17926W        W60979  22.642   9.688  22.311 -0.0216 -0.2316 -0.1870
17927W        W60980   0.081   1.482  22.361 -0.2654 -0.1225  0.0338
17928W        W60981  19.229   8.918  17.004 -0.0190  0.1101 -0.2145
17929W        W60982  28.218   8.022  16.939 -0.1545  0.0822 -0.0596
17930W        W60983   3.133  24.961   4.145 -0.0918  0.0099  0.2011
17931W        W60984   3.187  17.372  18.109  0.0889 -0.1554  0.0142
17932W        W60985  16.834   2.721  16.393  0.7298  0.1197 -0.0573
17933W        W60986  26.016  20.372   4.498 -0.1792  0.1062  0.1735
17934W        W60987  26.884  17.002  24.776 -0.1079  0.0754 -0.0788
17935W        W60988   9.094  12.749  24.470 -0.1614  0.0548 -0.2289
17936W        W60989  29.226  11.585  19.276  0.1702  0.1011  0.1228
17937W        W60990  29.674  20.094  15.797 -0.4501 -0.0332 -0.4721
17938W        W60991   5.313  25.515  22.355  0.1912  0.3135 -0.0196
17939W        W60992  19.215  28.175  17.968 -0.0186  0.2508  0.3817
17940W        W60993  29.896   6.918  18.692 -0.1717  0.0062 -0.1294
17941W        W60994  19.573  22.518  26.265  0.0885  0.0540 -0.2871
17942W        W60995   3.658  23.650   5.271 -0.1442 -0.0613 -0.1238
17943W        W60996  33.665   0.190  16.563  0.0693  0.3230 -0.1972
17944W        W60997  31.104  34.546  21.266 -0.2779  0.0936  0.0500
17945W        W60998   6.984   0.373  22.258 -0.0421  0.0857  0.0113
17946W        W60999  16.131  11.813  25.590 -0.3214  0.0324 -0.2190
17947W        W61000  28.525  18.690  24.569 -0.0731 -0.1909  0.3072
17948W        W61001  26.116   8.373   6.193 -0.1382 -0.2296  0.0187
17949W        W61002   8.361  32.341  21.670  0.0729 -0.1545  0.1269
17950W        W61003  24.763  32.473  27.086 -0.0102  0.0406  0.0312
17951W        W61004  20.620  11.942  17.360  0.1491  0.1248 -0.1536
17952W        W61005   8.837   5.741  29.065  0.1378 -0.2322 -0.0952
17953W        W61006  28.183  28.747  18.617  0.2147 -0.5632 -0.1209
17954W        W61007  25.077   5.192  22.948  0.0763 -0.2422 -0.2814
17955W        W61008  33.199  33.859  18.317 -0.0882 -0.0168  0.1982
17956W        W61009   2.613  14.615  16.266 -0.2369  0.2457 -0.0962
17957W        W61010  15.097   7.723   1.189 -0.2680  0.0790 -0.1404
17958W        W61011   0.444  11.085  25.760  0.0124  0.1418  0.0983
17959W        W61012  22.329  13.812  16.491  0.1634  0.1049  0.0974
17960W        W61013  26.970   4.709   6.723 -0.1586 -0.3061 -0.1276
17961W        W61014  21.951  10.226  21.959  0.1883 -0.0003  0.0334
17962W        W61015   1.648   9.267  22.746  0.0266 -0.2932  0.0622
17963W        W61016  26.744   0.619   3.977 -0.0277 -0.2463  0.0951
17964W        W61017  17.116  11.996  20.282 -0.0118  0.4596  0.2102
17965W        W61018  23.798  20.849  20.942  0.0817 -0.0236 -0.3425
17966W        W61019   6.948  13.050  26.456  0.2801  0.0636  0.1307
17967W        W61020  14.456   7.317  19.894 -0.1741 -0.0556 -0.0278
17968W        W61021   1.989  32.342  18.852 -0.1945 -0.0129 -0.0608
17969W        W61022  30.087  23.977  24.352 -0.1731 -0.0458  0.2119
17970W        W61023  12.111  10.438  21.774  0.3670 -0.0037  0.1813
17971W        W61024  25.357  19.317  23.810 -0.0947 -0.1880  0.1690
17972W        W61025   3.905  16.726  16.044  0.0235  0.0507  0.4468
17973W        W61026  18.470   9.318  14.984  0.0430 -0.2760  0.0344
17974W        W61027  24.028  15.001  15.809 -0.0665 -0.0537 -0.2020
17975W        W61028  12.186   2.768  20.113  0.0470 -0.2689 -0.2131
17976W        W61029  19.149  18.082   2.003 -0.3098  0.1967 -0.0802
17977W        W61030  11.263  29.758  17.926  0.0934  0.0936  0.1248
17978W        W61031  25.113  12.742  15.624  0.0747 -0.1729 -0.0990
17979W        W61032  33.831  33.617  22.007  0.0739  0.1241  0.0051
17980W        W61033  26.043  26.466  17.575 -0.2220  0.0699  0.2680
17981W        W61034  21.143   4.442  21.462  0.0294  0.1386 -0.1798
17982W        W61035   6.953  31.645  26.582  0.1782  0.1918 -0.0608
17983W        W61036  30.523  10.400  17.245 -0.0232  0.1355 -0.1896
17984W        W61037  27.804   3.534  22.584  0.0763 -0.0238 -0.0150
17985W        W61038   0.970   5.412  13.825 -0.0373 -0.3066  0.2842
17986W        W61039  19.056  21.055  18.836  0.2619  0.0918  0.0102
17987W        W61040  13.769  19.852  16.102  0.0032  0.0577  0.2853
17988W        W61041  30.935   5.339  28.036  0.3661  0.4193 -0.0812
17989W        W61042  17.649   2.548  22.988 -0.0315  0.2679  0.2938
17990W        W61043  34.257   8.666  21.000 -0.1936 -0.0430  0.0571
17991W        W61044  27.889   0.035  16.743  0.0217  0.2659 -0.1748
17992W        W61045  27.603  19.609  22.266  0.1155  0.1079 -0.0065
17993W        W61046  24.057  20.690  22.668 -0.1694  0.2827  0.0392
17994W        W61047  27.506   3.745  15.643 -0.4527  0.0052  0.0612
17995W        W61048  31.953   2.710  14.307 -0.2223  0.1394 -0.2219
17996W        W61049   1.207  19.481  22.044  0.1070 -0.0507  0.1309
17997W        W61050  13.338  32.822  25.471  0.2034 -0.1273  0.2981
17998W        W61051  24.823  15.172  15.071  0.1664  0.2525 -0.3640
17999W        W61052   6.281  30.987  26.630 -0.0993  0.0308  0.1226
18000W        W61053   4.902   8.056  16.975 -0.1074 -0.2960  0.0944
18001W        W61054  17.593  16.381  12.316 -0.1081  0.1495  0.0579
18002W        W61055  28.902  17.650   4.527  0.0814  0.0751  0.0270
18003W        W61056  29.480   8.377  15.506 -0.1558  0.3729  0.0430
18004W        W61057  32.411   3.916   2.271 -0.1434  0.2949 -0.0286
18005W        W61058   0.060  16.300  18.370 -0.0474 -0.2923  0.0115
18006W        W61059  20.677  11.831  21.595  0.3095  0.1946  0.2764
18007W        W61060   0.321  10.723  17.576  0.0246  0.1300 -0.0831
18008W        W61061  32.921  14.876   2.311 -0.2078 -0.3287  0.0681
18009W        W61062  30.999  24.590  25.254  0.2520 -0.0252 -0.0244
18010W        W61063  28.222   6.576  16.426  0.0673  0.1353  0.1689
18011W        W61064   1.150  31.788  14.193 -0.4552  0.2018  0.1675
18012W        W61065  33.199   5.991  24.090 -0.1695  0.1177  0.0342
18013W        W61066  19.280   9.228  21.676 -0.0034 -0.0758  0.0943
18014W        W61067  31.238  10.618  27.448  0.1804  0.1892 -0.2110
18015W        W61068   7.186   3.363  20.959 -0.0179  0.2378  0.0706
18016W        W61069  19.986   8.874  17.800 -0.1938  0.2329  0.2026
18017W        W61070  19.751   2.108  15.792  0.0345  0.2935  0.2141
18018W        W61071   2.130  26.173  16.799 -0.3160  0.0751 -0.2648
18019W        W61072   5.726  21.711  20.747 -0.1204  0.1641  0.1070
18020W        W61073  18.619  31.948  17.223 -0.3174  0.0376  0.0367
18021W        W61074  19.444   5.241  18.961 -0.4515 -0.2862  0.1411
18022W        W61075  25.409   9.658  27.638  0.1978 -0.0141  0.2258
18023W        W61076  10.561  31.703  24.960  0.0690  0.0034 -0.0565
18024W        W61077  19.380  10.572  15.639 -0.3905 -0.1498  0.3786
18025W        W61078  28.283   1.172  28.554 -0.3049  0.1862  0.0673
18026W        W61079  18.782   1.117   7.976  0.2139 -0.0233  0.1381
18027W        W61080  26.641   1.324  17.329  0.1385 -0.0226  0.0643
18028W        W61081  23.304  13.665   0.383  0.1928  0.2343 -0.2060
18029W        W61082   1.296  19.648   8.998  0.0255 -0.5024 -0.1901
18030W        W61083   2.278  25.750  25.189 -0.0998  0.2172  0.0317
18031W        W61084   5.812  22.552  18.303 -0.1557  0.0058 -0.1712
18032W        W61085  25.524   5.016  22.789 -0.1150 -0.0866 -0.2448
18033W        W61086   2.571  12.438   6.833 -0.1386 -0.1101 -0.1992
18034W        W61087   3.392   4.929  19.075  0.0918  0.0204 -0.2614
18035W        W61088  14.334   3.794  23.145 -0.2785  0.0079 -0.3121
18036W        W61089   3.816  32.550  17.105 -0.0024 -0.2295 -0.0389
18037W        W61090  22.396  32.987   7.627 -0.0566 -0.3749  0.0113
18038W        W61091  19.416  19.426   7.008  0.3421  0.2194  0.1789
18039W        W61092  12.990  13.134  10.948  0.1848 -0.1898 -0.0684
18040W        W61093   9.157  30.456  13.527 -0.1519 -0.1792  0.0358
18041W        W61094  16.591  30.220  17.429  0.1283 -0.3802 -0.1502
18042W        W61095  22.623   7.224   2.475 -0.2119  0.1272 -0.2174
18043W        W61096  31.928   8.257  18.421 -0.1630  0.2010  0.4267
18044W        W61097  26.545   0.401   6.762  0.0227 -0.1262  0.3030
18045W        W61098  13.208  30.488  16.648 -0.2594 -0.1622  0.0860
18046W        W61099  32.380   2.198  28.436  0.1225 -0.0384  0.0153
18047W        W61100  26.814  29.190  23.811 -0.1646  0.0930 -0.0504
18048W        W61101  24.010  11.481   2.980 -0.0460  0.0919 -0.3862
18049W        W61102   0.037   0.194   3.339 -0.1557  0.3346  0.0362
18050W        W61103  19.385  10.737  16.354 -0.2781 -0.2216 -0.0238
18051W        W61104  32.703  21.184  18.273 -0.0099  0.1116 -0.1933
18052W        W61105   5.900   8.254  21.493 -0.2143 -0.1173 -0.2737
18053W        W61106   4.562   8.088  21.045 -0.1028  0.1396  0.3368
18054W        W61107   9.257   1.393  26.020 -0.2450  0.0211 -0.3369
18055W        W61108  29.213   9.952  22.964 -0.2609  0.0357 -0.0369
18056W        W61109  31.658  13.796  17.469 -0.1572  0.2973 -0.0359
18057W        W61110  30.832  17.545   7.878  0.0068  0.2433  0.0802
18058W        W61111  23.333  30.740  21.436  0.0726 -0.0866 -0.0288
18059W        W61112  18.292  33.908  16.507 -0.2148  0.3387  0.3077
18060W        W61113   4.301  17.860  22.405 -0.0870  0.2153 -0.2005
18061W        W61114  16.597   9.755  26.685 -0.0037 -0.1979 -0.3182
18062W        W61115   6.785  24.528  14.204 -0.3262  0.1683  0.1942
18063W        W61116  24.836  25.589   2.277  0.1078 -0.0044  0.2028
18064W        W61117  26.257  20.278  25.829 -0.0093 -0.1551  0.0353
18065W        W61118  31.554   9.725  21.975  0.0045  0.0949  0.4410
18066W        W61119  16.121  29.362  15.975 -0.2362 -0.2565  0.3371
18067W        W61120  32.279  11.928  21.004 -0.1427 -0.1627 -0.3309
18068W        W61121  12.475  33.911  24.960 -0.3864  0.1159  0.3413
18069W        W61122  29.859   9.105  17.548  0.0881  0.1881 -0.2568
18070W        W61123  29.129  23.552   3.174  0.1522  0.1944 -0.1173
18071W        W61124   3.872   1.889  21.246  0.0368 -0.1722  0.0331
18072W        W61125  14.107  25.024  21.079 -0.0900 -0.4451 -0.1763
18073W        W61126  23.980  26.388   3.914  0.0837  0.4234 -0.1204
18074W        W61127   3.564   9.568  27.537  0.0885 -0.0211 -0.0005
18075W        W61128  29.616  12.573  18.428 -0.3636 -0.1351  0.0399
18076W        W61129  28.609  33.100  20.094 -0.0919 -0.3423  0.0601
18077W        W61130  25.986  27.323  26.381  0.0403 -0.1480  0.2160
18078W        W61131  27.626  23.896  19.210  0.2191 -0.0998  0.0543
18079W        W61132  29.474  27.386  15.866  0.1317  0.0225  0.0375
18080W        W61133  19.201   0.175  14.666  0.1129  0.1764  0.1787
18081W        W61134  15.587   1.972  19.322 -0.1857  0.0246  0.1626
18082W        W61135  31.003   4.600  21.718  0.0382 -0.1194 -0.0794
18083W        W61136  11.455   2.493  24.384  0.1509  0.1140  0.2424
18084W        W61137  21.586  34.233  23.242  0.2715  0.0654 -0.4436
18085W        W61138  21.489  17.737  15.586  0.2570  0.0366 -0.0605
18086W        W61139  18.134  26.749  16.555 -0.1184  0.0028  0.1122
18087W        W61140  21.108   8.459  21.254 -0.5334 -0.1643 -0.1305
18088W        W61141  33.613   7.586  17.075 -0.0293 -0.0616 -0.3469
18089W        W61142  28.954  33.677  19.015 -0.1313 -0.1133 -0.2477
18090W        W61143  33.655  19.603   8.659  0.0449  0.0235  0.1427
18091W        W61144  17.724  16.870  12.986 -0.1375  0.2644  0.2205
18092W        W61145  22.102   9.141  19.603 -0.0869 -0.1015  0.1139
18093W        W61146  27.336  26.328  26.055 -0.0706 -0.1225 -0.0817
18094W        W61147  22.597  32.894  25.781  0.0965  0.1439 -0.1936
18095W        W61148  34.452  17.912  20.961 -0.1547  0.0548  0.0195
18096W        W61149  31.429  14.786  14.885  0.2622 -0.4320  0.0172
18097W        W61150  33.617  13.392  14.269  0.0775 -0.0260  0.2224
18098W        W61151   6.687   6.878  26.161  0.1253 -0.0531 -0.0434
18099W        W61152  29.336  33.308  24.959 -0.1762 -0.0816  0.0819
18100W        W61153  26.053  22.455  27.071  0.0603  0.0460  0.4311
18101W        W61154  17.222   4.601  21.160 -0.3270  0.0649  0.0369
18102W        W61155  20.147  31.629  22.212  0.1443 -0.1533  0.0359
18103W        W61156   1.963  16.613  26.227  0.0789 -0.0430  0.3508
18104W        W61157  13.464  15.307  26.497 -0.0488  0.1900  0.2601
18105W        W61158  24.990   7.935  26.917  0.1120 -0.1722 -0.0168
18106W        W61159  10.217  15.593  15.559  0.0118 -0.0662  0.1402
18107W        W61160   2.532   5.191  26.589 -0.1208  0.1921  0.2042
18108W        W61161  18.687   2.523  22.905  0.2247  0.1528 -0.1175
18109W        W61162  33.766  26.535   4.936  0.1562 -0.1978  0.0548
18110W        W61163  15.532  31.665  15.258  0.3763 -0.1303 -0.0620
18111W        W61164   9.442   3.018  15.346  0.0282  0.0090  0.5659
18112W        W61165   1.884   5.203  23.027 -0.3424  0.0605  0.0727
18113W        W61166  20.359   8.023   0.873  0.0914  0.2582  0.1332
18114W        W61167  33.299   6.617  18.539  0.2120 -0.1072 -0.0093
18115W        W61168  30.387  26.868  15.443  0.0482 -0.0223  0.0652
18116W        W61169  17.711   5.156  26.640 -0.1603 -0.3405 -0.1056
18117W        W61170  33.011   1.092  17.865 -0.0915  0.3036 -0.4601
18118W        W61171   5.200  27.567  22.780 -0.0800 -0.1393  0.1471
18119W        W61172   3.278   3.999  17.181  0.0450 -0.0997  0.4490
18120W        W61173  25.259  20.001  17.384 -0.1208 -0.1171  0.1474
18121W        W61174  19.940  13.541  13.238 -0.0015  0.1494 -0.0189
18122W        W61175  28.597   6.648   1.328 -0.0124  0.0095  0.0375
18123W        W61176  25.693   9.969  29.146 -0.4373 -0.4409  0.0506
18124W        W61177   8.791  11.501   3.034  0.0099  0.2376  0.2363
18125W        W61178   3.693   1.578  24.363  0.1241  0.0255 -0.0020
18126W        W61179  34.083  24.979  26.873 -0.1126  0.0961  0.0479
18127W        W61180  19.322  16.774  21.480  0.1810  0.2464 -0.0625
18128W        W61181  29.009  23.926  19.675  0.1879 -0.0244  0.0636
18129W        W61182   3.655  20.489  21.087 -0.2572  0.0214  0.0973
18130W        W61183   1.859   7.372   0.607  0.1930  0.1328 -0.1972
18131W        W61184  16.563  33.552  25.618  0.0203  0.1093 -0.0973
18132W        W61185  13.843   1.918  26.602 -0.1843 -0.1707  0.1298
18133W        W61186  24.206  13.613  17.236 -0.3583  0.4692  0.0673
18134W        W61187  14.562  12.391  14.790 -0.3743  0.0778  0.0256
18135W        W61188  29.677   9.107   0.976 -0.1529  0.2530 -0.0933
18136W        W61189   2.410   4.986  27.073  0.2098  0.2827 -0.2393
18137W        W61190  16.705  27.044  25.833 -0.0787  0.2921 -0.1078
18138W        W61191  21.143  29.482  23.121 -0.2512 -0.2201 -0.0581
18139W        W61192  13.946   5.114  16.185 -0.1378  0.2838  0.0436
18140W        W61193  29.441  16.650  16.240 -0.3243 -0.2478  0.3225
18141W        W61194  22.715  18.968   0.324 -0.3006 -0.3333 -0.2537
18142W        W61195  18.764  27.224  19.526 -0.0430 -0.4417  0.1272
18143W        W61196  28.559   7.056  19.886 -0.1915 -0.0060 -0.1642
18144W        W61197  33.741  34.391  14.991 -0.0466  0.1684  0.1371
18145W        W61198  29.678  25.081  18.142  0.1915 -0.3746  0.0458
18146W        W61199  30.677   8.463   6.087 -0.0606 -0.0125  0.1274
18147W        W61200  28.842   9.875  18.743  0.0088 -0.0669 -0.0640
18148W        W61201  33.782   4.136  23.948  0.3689 -0.3218 -0.1486
18149W        W61202  32.641  33.229  15.027 -0.0844  0.2444 -0.2069
18150W        W61203  11.769  14.507   2.480 -0.0578 -0.0073  0.1993
18151W        W61204  19.482   8.457  24.850  0.2268 -0.0363  0.3366
18152W        W61205  34.085  10.755   5.530  0.0433 -0.1351  0.0374
18153W        W61206  24.153   8.364  27.348 -0.0070  0.1571 -0.1737
18154W        W61207  11.638  15.673  20.661 -0.3463 -0.3229  0.2340
18155W        W61208  21.635   1.634   7.727 -0.1180 -0.4504 -0.0904
18156W        W61209   6.308  21.420  19.128  0.1946 -0.0516  0.0673
18157W        W61210  27.936   9.861  20.800 -0.3359  0.1411  0.3024
18158W        W61211  23.729   3.886  22.520 -0.0911 -0.0457 -0.1464
18159W        W61212   9.423   2.438   7.897  0.0611  0.1056 -0.1716
18160W        W61213  22.863   3.041  19.834  0.2233  0.1662  0.0694
18161W        W61214  21.986  19.590  18.129  0.3304 -0.1247 -0.5536
18162W        W61215  30.793   5.333  14.737 -0.2126 -0.2416  0.0120
18163W        W61216  13.944  12.019   0.434 -0.0072  0.1379 -0.0720
18164W        W61217   2.107  10.044  25.217  0.0567 -0.0699  0.0647
18165W        W61218   2.149  18.969  15.795 -0.1050 -0.0110  0.2330
18166W        W61219  26.692   9.470   9.482 -0.0729 -0.0540  0.1348
18167W        W61220   4.411   5.438  23.742 -0.3348  0.4864  0.1608
18168W        W61221  27.472  12.847  21.080 -0.2937  0.2671  0.1995
18169W        W61222  28.132  14.449  28.469  0.2993  0.0684  0.0476
18170W        W61223   0.536  18.911  14.106 -0.3924 -0.0433  0.0670
18171W        W61224  32.346   6.325  18.428  0.1625 -0.0530 -0.0272
18172W        W61225   4.604  11.097  20.416 -0.0354 -0.1843  0.1399
18173W        W61226  13.656  13.064  23.742 -0.3074  0.0887 -0.0352
18174W        W61227  27.610   3.568  22.134  0.3778 -0.0904  0.1574
18175W        W61228  19.956  34.141  14.639  0.0611 -0.3127 -0.1288
18176W        W61229   5.221   4.264  27.093  0.2645 -0.0204  0.0450
18177W        W61230  15.862   8.534  14.928  0.2762 -0.0457 -0.0759
18178W        W61231  27.257  14.904  28.151 -0.1731 -0.0819  0.2348
18179W        W61232  11.829  30.179  25.355  0.1219  0.2467 -0.0389
18180W        W61233   7.355  27.228  19.743 -0.1558 -0.0454  0.1496
18181W        W61234   5.592  12.356  27.556  0.1293 -0.2371  0.0895
18182W        W61235  21.402  28.808  16.809  0.0172  0.2667  0.0942
18183W        W61236   0.227  12.180  15.702 -0.1699  0.0274  0.0151
18184W        W61237  22.652   7.176  22.286 -0.0813 -0.0936 -0.0111
18185W        W61238   4.533   8.125  14.745  0.0160  0.0735  0.2982
18186W        W61239  34.552  11.791  26.872 -0.1071  0.0636 -0.3064
18187W        W61240  23.396   8.551  15.456 -0.2458  0.0333 -0.0768
18188W        W61241  24.928   4.112  28.750  0.2770  0.0318 -0.4963
18189W        W61242  12.245   3.832   4.085  0.2815 -0.0925 -0.0313
18190W        W61243  29.385   2.675  17.365  0.1943  0.0929  0.2196
18191W        W61244   0.915  12.204   8.076 -0.0484  0.3659  0.0011
18192W        W61245  22.260   8.582  24.861  0.3694 -0.0236  0.0335
18193W        W61246  26.386  25.260  22.840  0.1953  0.3285 -0.0713
18194W        W61247   3.325   9.463   1.031  0.3633  0.2938 -0.1935
18195W        W61248   9.480  21.982   3.337  0.0590  0.0572 -0.1403
18196W        W61249   8.876   0.755  20.292 -0.1349  0.0020  0.0118
18197W        W61250  15.635  18.556  13.593  0.1230  0.0078 -0.1093
18198W        W61251   1.225  30.419  19.172  0.0983 -0.0934  0.1911
18199W        W61252   1.913  16.197  15.036  0.0648 -0.2045  0.1493
18200W        W61253  23.852   6.796  21.627  0.0845  0.0295  0.0766
18201W        W61254   4.419  19.142  23.259  0.5009 -0.2375 -0.1421
18202W        W61255  25.322   1.602  21.149  0.1496  0.0622 -0.1159
18203W        W61256  16.977   1.155   1.241 -0.1978  0.4334 -0.2271
18204W        W61257  14.820  11.617  23.627 -0.1475 -0.0233  0.3795
18205W        W61258   1.011  23.440  19.798 -0.1598  0.0177  0.3084
18206W        W61259  25.531  13.011  22.371 -0.2931 -0.1465  0.1978
18207W        W61260  19.058  28.100   4.996  0.1074 -0.1983  0.2667
18208W        W61261  24.442  32.537  26.243  0.0990 -0.3541 -0.0855
18209W        W61262  26.270   9.669  24.417  0.0191  0.0353  0.0196
18210W        W61263  33.978   4.177   6.578  0.1434 -0.1463  0.2922
18211W        W61264   5.108  12.304  27.609 -0.1114 -0.2025 -0.2755
18212W        W61265  19.314   1.446  23.164  0.1979 -0.0528 -0.0388
18213W        W61266  23.116  17.537  18.167 -0.0442  0.1390  0.1229
18214W        W61267  22.914  11.392  13.522  0.1709  0.0278 -0.1664
18215W        W61268  33.937  21.717  21.658  0.3013  0.0276 -0.0974
18216W        W61269  24.791  11.502   4.272 -0.0702  0.3600 -0.3870
18217W        W61270  18.731  33.272   9.828 -0.4086 -0.1184  0.4639
18218W        W61271  15.331   5.173  20.267 -0.0377 -0.0905  0.0678
18219W        W61272   3.103   3.126  17.569 -0.3391  0.0410 -0.0675
18220W        W61273  25.942   2.210  14.006 -0.2111 -0.4005  0.2848
18221W        W61274  17.453  28.602  24.883  0.1838  0.1151 -0.0134
18222W        W61275  15.248  27.206  21.482  0.0436 -0.2231 -0.1547
18223W        W61276  27.731  27.674  16.027  0.1509  0.0760 -0.2632
18224W        W61277  32.515  29.018  19.262 -0.1971  0.0784  0.1204
18225W        W61278  13.357  27.553  20.972 -0.1207  0.0075 -0.0335
18226W        W61279  23.243  25.920  15.212 -0.2162 -0.0244 -0.1156
18227W        W61280  31.187  25.152  22.737 -0.1017 -0.3647  0.1254
18228W        W61281   5.221  15.380  19.001 -0.0371  0.0770 -0.1746
18229W        W61282  31.368  26.677  25.531  0.1575 -0.0565  0.0743
18230W        W61283   6.351  27.434  13.795  0.1069  0.0135  0.2322
18231W        W61284  10.228   3.840  17.290 -0.2238  0.0452  0.1057
18232W        W61285   6.025   5.071   2.334  0.0330 -0.2459  0.0252
18233W        W61286   4.189   9.359  18.838 -0.1652 -0.0869  0.0529
18234W        W61287  29.894  11.508  16.044  0.1393 -0.1779  0.0520
18235W        W61288   4.358   9.121  28.833 -0.2585  0.1637  0.1980
18236W        W61289  23.537  16.730  21.346 -0.1231 -0.1544  0.3420
18237W        W61290  33.477  22.103  18.898  0.0712  0.2261  0.0663
18238W        W61291  22.493   4.670  22.038 -0.4048  0.4470  0.2297
18239W        W61292   3.986   8.111  27.544 -0.2972  0.0838  0.0493
18240W        W61293  33.545  26.728  14.675 -0.0457  0.1171 -0.3185
18241W        W61294   8.242   5.565  23.623  0.1397  0.0785  0.2526
18242W        W61295  27.775  17.055  15.970 -0.0963 -0.1106 -0.0574
18243W        W61296  26.524  20.339  17.930  0.5375  0.1551  0.2122
18244W        W61297  21.471  31.411   7.525 -0.3686  0.0175  0.0603
18245W        W61298  31.016  27.232  24.902 -0.0422  0.0580  0.2682
18246W        W61299  25.062   8.325  22.424  0.0740 -0.1268  0.3338
18247W        W61300  25.553   4.555  15.410 -0.0033 -0.1781  0.0261
18248W        W61301  30.192  29.471  16.777 -0.2828 -0.1611 -0.2510
18249W        W61302   0.395  10.720  28.887 -0.0990 -0.1872  0.2290
18250W        W61303  24.290   7.610  20.418 -0.0803 -0.0915 -0.1441
18251W        W61304   2.888  12.797  19.734  0.0754 -0.1115  0.1337
18252W        W61305  24.497   2.300   0.553  0.0464 -0.0561 -0.0217
18253W        W61306   3.747  10.973  20.038 -0.1498 -0.1199 -0.2362
18254W        W61307   0.119  29.600  23.517 -0.0405 -0.2105  0.0081
18255W        W61308  33.711  13.714  17.278 -0.0526 -0.0807 -0.0732
18256W        W61309  33.130   2.354  19.011  0.0389  0.5218 -0.2178
18257W        W61310  20.767  27.865  15.289 -0.0558  0.1735  0.0347
18258W        W61311  23.163   3.644  16.693 -0.1921  0.1355  0.1472
18259W        W61312  24.731   9.994  15.507 -0.1403 -0.0329  0.0539
18260W        W61313   3.751   4.152  14.197 -0.2528 -0.0219  0.0640
18261W        W61314  22.686  12.716  14.788 -0.1110 -0.2094  0.2789
18262W        W61315   8.138  11.059  23.098 -0.1613 -0.0453 -0.0990
18263W        W61316  22.435  16.944  15.885  0.0095  0.1909  0.0664
18264W        W61317   7.462  17.488  18.936 -0.1409  0.2520 -0.0435
18265W        W61318  27.689  14.375  22.347 -0.1378 -0.2105  0.0515
18266W        W61319  21.313  21.281   8.526  0.1819 -0.0693  0.5126
18267W        W61320  29.803  15.934   5.628 -0.1972 -0.1208  0.2981
18268W        W61321  29.361  12.153  15.586 -0.0544  0.0003  0.1764
18269W        W61322   2.843  30.921  27.442 -0.0250 -0.0027 -0.0702
18270W        W61323  25.232   8.411   2.964  0.1231 -0.0165  0.1521
18271W        W61324  19.804  34.654  29.092 -0.1366 -0.0437 -0.3599
18272W        W61325  28.579  11.413   8.432  0.1015  0.2815 -0.0552
18273W        W61326   6.656  10.953  22.832 -0.1243  0.0350  0.1318
18274W        W61327  32.078   9.993  28.636  0.1710  0.2180  0.0148
18275W        W61328  15.652  33.898   5.261  0.2142  0.0261 -0.2182
18276W        W61329   1.686   2.506  25.198 -0.0656 -0.1896  0.2242
18277W        W61330  27.068  12.487  21.143 -0.1336 -0.2476 -0.1319
18278W        W61331  28.569  27.255   2.128 -0.0609 -0.0743 -0.0646
18279W        W61332  11.035  13.125   6.288  0.0278  0.2592  0.4215
18280W        W61333   2.672   5.014  21.534  0.0921  0.3021 -0.2352
18281W        W61334   3.411  13.424  18.883  0.1569 -0.1843  0.0768
18282W        W61335  26.380  10.685  15.912 -0.0101  0.3032  0.2921
18283W        W61336   0.801  29.851  22.962  0.2435 -0.1479 -0.3392
18284W        W61337   7.111  11.051   1.421  0.0484 -0.4408  0.0270
18285W        W61338  25.592   4.889  23.301  0.1569 -0.1174  0.0935
18286W        W61339  27.895   8.013  22.789  0.2462 -0.0099  0.2228
18287W        W61340   2.410  11.551  15.549 -0.0324  0.0295  0.0038
18288W        W61341  21.102  27.895  17.719 -0.0566  0.1361 -0.1247
18289W        W61342   8.966   8.884   1.132  0.0788 -0.4485  0.3177
18290W        W61343  24.288  20.980  21.790  0.0381  0.1504 -0.2260
18291W        W61344   3.749  15.241  16.313  0.0227  0.2387 -0.0047
18292W        W61345  25.501  14.354  14.933  0.2528  0.1080  0.5145
18293W        W61346  25.583   2.573  16.387  0.1331  0.5232  0.1088
18294W        W61347  26.119  22.683  21.687  0.1682  0.1683 -0.1449
18295W        W61348  19.136   3.208  25.590  0.1288 -0.0554 -0.0342
18296W        W61349   1.844  33.764  18.123  0.1436 -0.4536  0.1794
18297W        W61350  29.340  22.287  19.168 -0.2335  0.4007 -0.2441
18298W        W61351  20.638   5.923  15.704 -0.1032  0.1341 -0.3204
18299W        W61352  28.226   4.087   9.358 -0.2287  0.0435 -0.0690
18300W        W61353  23.925  12.794  19.758  0.1345 -0.1274 -0.2005
18301W        W61354  23.222  15.771  17.864 -0.1374 -0.0520 -0.0266
18302W        W61355  22.192  16.970   4.311 -0.0087  0.3093  0.2740
18303W        W61356   4.209   0.854  18.478 -0.2389  0.1243  0.3289
18304W        W61357   4.256   1.420  27.100  0.0575  0.2615 -0.0626
18305W        W61358  22.637   9.549  16.918 -0.0947 -0.0369  0.1203
18306W        W61359   0.535  28.844   4.077 -0.1978  0.1219 -0.2012
18307W        W61360  30.904  16.335  20.086  0.1211  0.3541 -0.1944
18308W        W61361  19.372  12.038  17.664 -0.1090 -0.2554  0.0366
18309W        W61362   6.866  10.524  24.970 -0.1359 -0.1143 -0.2664
18310W        W61363  17.618   9.686  23.247  0.0241  0.2531 -0.1058
18311W        W61364  34.297  27.853  16.605 -0.1781 -0.0506 -0.0973
18312W        W61365  30.728  14.215  18.720 -0.1585  0.0849  0.1249
18313W        W61366  21.750   8.224   9.964 -0.1603  0.2033  0.0502
18314W        W61367  20.971  14.755  18.339  0.2641 -0.1135  0.0975
18315W        W61368  31.707   4.409  16.449  0.0796  0.0748  0.0039
18316W        W61369   0.403  17.208  25.463  0.0981  0.1043  0.2788
18317W        W61370   6.889  32.283  17.703 -0.2578  0.2070  0.0669
18318W        W61371  18.482   0.676  18.700  0.4832 -0.0708 -0.0107
18319W        W61372  26.748   7.107   1.390  0.0614  0.1458 -0.2046
18320W        W61373  32.520  19.245  16.019 -0.0005  0.0288  0.1438
18321W        W61374  18.486  11.030  24.813  0.4492  0.1401  0.2571
18322W        W61375  25.914   5.168  14.235  0.0800  0.0383  0.0820
18323W        W61376  20.721  22.822  17.699 -0.1471  0.2489 -0.1799
18324W        W61377  32.617   1.476   8.507  0.0602  0.1357 -0.2151
18325W        W61378  17.769   8.609   4.001 -0.5204  0.0838  0.0487
18326W        W61379  28.056  12.629  17.299 -0.4189  0.1629 -0.0650
18327W        W61380   3.220   1.584  17.586  0.0491 -0.1343  0.0750
18328W        W61381  14.952   4.342   5.457 -0.2490  0.0028  0.0537
18329W        W61382  32.147  21.559   3.379  0.1193 -0.0692  0.1833
18330W        W61383  23.853   4.962  17.597 -0.1702 -0.0867  0.1778
18331W        W61384  34.036  27.645   2.186  0.0883  0.1127  0.0928
18332W        W61385  14.136  29.106  17.543  0.0083  0.0782  0.0315
18333W        W61386   0.883   7.649   1.906 -0.1510 -0.1292  0.0115
18334W        W61387  18.628  13.759  26.242 -0.0280 -0.0024 -0.0551
18335W        W61388  29.504  12.786  21.683  0.2504 -0.1663 -0.0648
18336W        W61389   2.207   4.582   6.851 -0.0054 -0.0159  0.0035
18337W        W61390   0.325  34.535  13.741  0.0720 -0.0575 -0.2043
18338W        W61391  20.077   6.336  26.770  0.3952  0.2762 -0.1500
18339W        W61392   9.384  34.597  24.350  0.1998  0.1111 -0.3176
18340W        W61393  30.623  14.943  27.463  0.0090 -0.0006  0.1066
18341W        W61394  17.896   5.563  14.953  0.1689 -0.1096  0.1180
18342W        W61395   2.092   5.865  14.825 -0.0547  0.1623 -0.0613
18343W        W61396  22.290  23.802  23.412  0.0836  0.0698  0.0330
18344W        W61397  26.841  10.340  20.071  0.0410 -0.2267  0.1429
18345W        W61398  24.100  10.613  28.277  0.2567 -0.4623 -0.0928
18346W        W61399  31.916   8.407  16.191 -0.0974  0.0545  0.1281
18347W        W61400  28.992  15.022  20.266  0.1972 -0.1236 -0.0750
18348W        W61401  32.019  28.742  15.110 -0.2739 -0.2201  0.1565
18349W        W61402  14.527   1.141  19.105 -0.3809 -0.1341 -0.0431
18350W        W61403  22.380  15.433  16.658 -0.2670 -0.1176 -0.1685
18351W        W61404  17.917   9.517  17.601 -0.1322  0.0360 -0.3082
18352W        W61405   9.818  13.159  24.991  0.3910 -0.1433 -0.0606
18353W        W61406  22.311  10.919   9.786 -0.0944  0.1049  0.2278
18354W        W61407  21.731   9.442  19.761 -0.1367  0.0343 -0.1832
18355W        W61408  21.216  14.749  16.923  0.1176  0.2404 -0.2527
18356W        W61409  33.132  24.962  23.769 -0.0089  0.1764 -0.0874
18357W        W61410  22.831   1.753  16.346 -0.0266 -0.1958 -0.0585
18358W        W61411  25.207   5.668  17.678  0.0265  0.1645  0.2256
18359W        W61412   2.531  12.063  23.682  0.3263 -0.1895  0.0139
18360W        W61413  11.503   8.594   1.972  0.3581  0.1318 -0.1954
18361W        W61414  31.763   4.311   7.042  0.7761 -0.1392  0.0470
18362W        W61415  23.931  14.002  17.766 -0.1402 -0.1328  0.2226
18363W        W61416  22.552   4.335  26.956 -0.3282  0.0832  0.0483
18364W        W61417  27.843  16.743  28.581 -0.2846 -0.1517  0.1842
18365W        W61418  28.376  12.191  17.782  0.0267  0.3207  0.0304
18366W        W61419  20.594   9.196   3.157 -0.1490  0.2131  0.0582
18367W        W61420  23.784  10.549  18.055  0.2235 -0.1777 -0.2277
18368W        W61421  12.218  29.497  15.584  0.0726  0.0723  0.0792
18369W        W61422   0.299  19.521  17.379 -0.0149 -0.1744  0.5193
18370W        W61423  30.098   4.129  20.872 -0.2592 -0.0225 -0.1176
18371W        W61424  24.234   6.635  17.568  0.0230 -0.1902  0.0613
18372W        W61425  28.410   4.069   5.819  0.4887  0.0932  0.0329
18373W        W61426   0.055   7.297  22.556 -0.1945 -0.0642 -0.0671
18374W        W61427  34.272  12.025  20.805  0.1712 -0.2245 -0.2152
18375W        W61428  34.248  17.785  16.731 -0.1357  0.1221  0.0872
18376W        W61429  18.182   5.358  21.797  0.0979 -0.0496  0.1907
18377W        W61430  18.941   7.763  24.472 -0.1688  0.1771  0.2135
18378W        W61431  26.808   9.189  25.498  0.1638 -0.2698  0.2136
18379W        W61432  28.893   9.379   6.559  0.0382 -0.0550  0.0539
18380W        W61433  26.570  12.992  18.423 -0.1581  0.2521  0.2143
18381W        W61434   4.092  26.697  16.687  0.1479  0.0757 -0.0706
18382W        W61435  16.578   0.233   9.358  0.4652  0.0843 -0.1932
18383W        W61436  19.926   3.221  18.886  0.0451  0.0052  0.1881
18384W        W61437   8.476  20.448  15.076  0.0722 -0.0469  0.2870
18385W        W61438  25.022   9.377  15.546 -0.3183 -0.0251  0.2661
18386W        W61439  31.795  14.547  21.544 -0.0091 -0.0331 -0.0772
18387W        W61440  10.816  28.986  18.316  0.2472  0.1092 -0.1698
18388W        W61441  21.492  26.848  19.626  0.2221  0.3418 -0.0979
18389W        W61442   2.486  31.996  23.526 -0.1058 -0.0325 -0.3377
18390W        W61443  32.851  27.607   4.356  0.3250 -0.2771  0.0844
18391W        W61444  22.433   3.609  16.991  0.1689  0.0066 -0.1987
18392W        W61445  12.815  31.788  21.106 -0.0629  0.0269 -0.1290
18393W        W61446   2.380  19.807  23.028  0.1625 -0.0263  0.0439
18394W        W61447  25.818  12.993  14.972 -0.0756  0.1043 -0.0490
18395W        W61448  34.648   6.049  14.787 -0.0954 -0.0777  0.2104
18396W        W61449  15.402  15.670   0.241  0.1021 -0.1935 -0.0615
18397W        W61450  30.989   1.539  17.810 -0.1297 -0.1300 -0.2962
18398W        W61451  12.021  34.412  19.860  0.0258 -0.1787 -0.2336
18399W        W61452  32.043   8.994  25.598 -0.1146  0.2363 -0.2159
18400W        W61453  28.176   7.123  21.013 -0.0006 -0.0437 -0.0500
18401W        W61454  22.982  26.014  21.957 -0.1828  0.1711  0.1428
18402W        W61455  28.971   6.911  15.165 -0.1209  0.2660  0.3170
18403W        W61456  19.983   8.602  19.182  0.1617 -0.1602 -0.1184
18404W        W61457  24.058  33.471  20.429 -0.1276  0.2454 -0.1575
18405W        W61458  11.249   8.421  24.362  0.0221  0.0829  0.0686
18406W        W61459  30.601   9.146   7.230 -0.1044 -0.1901  0.2821
18407W        W61460   5.107   3.332  25.528 -0.1350  0.2769 -0.1112
18408W        W61461  29.213   3.698  19.857 -0.0847 -0.0378 -0.0942
18409W        W61462  14.370   7.476  28.901 -0.2556  0.0486 -0.1734
18410W        W61463   6.601   6.122  23.084  0.0977 -0.1342 -0.0254
18411W        W61464  30.008   9.073  22.101 -0.1355 -0.1605 -0.0753
18412W        W61465  33.128  28.929  13.862 -0.1049  0.2520  0.2962
18413W        W61466  11.687   7.450  23.262  0.0088  0.0682  0.0752
18414W        W61467  20.337   2.329   2.144  0.0617  0.0160  0.1504
18415W        W61468   7.586   1.597  26.349  0.0152  0.1100  0.1838
18416W        W61469  31.650   2.826  19.229 -0.0560 -0.0309 -0.0192
18417W        W61470  13.109   7.117  21.915 -0.0987  0.0155  0.1282
18418W        W61471  29.808   8.757   2.553 -0.1386 -0.0150  0.3121
18419W        W61472  22.430  29.130  13.987  0.1820 -0.0212  0.4181
18420W        W61473  23.062  33.019  27.556 -0.1646 -0.0467  0.1475
18421W        W61474  14.067   4.664  24.229  0.0107 -0.1641  0.2112
18422W        W61475  30.229   1.604  20.696  0.3043  0.1692 -0.0391
18423W        W61476  34.209   6.493   2.126 -0.1619  0.3203 -0.0612
18424W        W61477   0.487   1.199  20.541 -0.3335 -0.0526 -0.1239
18425W        W61478  33.784  11.010  23.160 -0.3010  0.0027 -0.0529
18426W        W61479  30.767  28.765  28.143  0.2923  0.0435 -0.0545
18427W        W61480  19.764   5.743  22.993 -0.2196 -0.1157 -0.2535
18428W        W61481  24.300  16.110  23.388  0.0419 -0.2512  0.2204
18429W        W61482   2.344   4.836  21.103  0.2058 -0.0670  0.2934
18430W        W61483  20.642  23.957  16.716 -0.1004  0.2207  0.1861
18431W        W61484  29.532   5.468   3.275 -0.0421 -0.4528 -0.0720
18432W        W61485  11.576   5.331   3.288 -0.0481 -0.0354 -0.2520
18433W        W61486  27.891  32.223  13.826 -0.0879 -0.0865 -0.1100
18434W        W61487  32.046   7.718   5.765  0.0136 -0.0758  0.2917
18435W        W61488  25.114  26.503   1.101  0.2260 -0.0462 -0.2480
18436W        W61489   5.004  34.355  17.357  0.2514  0.2917  0.1572
18437W        W61490  22.137   6.499   3.516  0.0237 -0.0067 -0.0748
18438W        W61491  29.247   6.523   3.586 -0.0502  0.2487  0.0483
18439W        W61492  11.071   6.614  26.721 -0.1491  0.0492 -0.0850
18440W        W61493   3.474  10.317   7.660 -0.2696 -0.3082  0.0393
18441W        W61494   6.562  34.447  17.477 -0.0220 -0.4139 -0.0236
18442W        W61495   3.386  12.146   4.645 -0.1932  0.2706  0.5089
18443W        W61496  14.953  19.121  25.208 -0.1011  0.0506  0.0519
18444W        W61497  23.089  15.678   4.881 -0.0504 -0.0945 -0.1237
18445W        W61498  21.009  13.987  18.727  0.3613  0.1215  0.1934
18446W        W61499  16.261  14.582  22.244 -0.2319  0.0652  0.0546
18447W        W61500   4.443  14.199  27.591  0.1483  0.1211  0.0771
18448W        W61501  30.578  29.854  18.480  0.0254  0.0519 -0.2541
18449W        W61502  34.422  11.596   5.357  0.1627 -0.2066  0.0746
18450W        W61503  17.311  15.847   6.405  0.2250 -0.3075 -0.0566
18451W        W61504  17.104   9.903  19.771  0.0428  0.3250  0.0658
18452W        W61505   9.656   6.577   2.098  0.1445 -0.2131  0.2495
18453W        W61506  29.752  29.910  18.959  0.1712  0.0109 -0.2065
18454W        W61507   4.826  31.207  20.180 -0.0619 -0.0142  0.0035
18455W        W61508  22.579  12.365  20.884 -0.2941  0.2443 -0.0671
18456W        W61509  34.149  22.183  17.237 -0.3032  0.0399  0.1667
18457W        W61510   1.409  28.797  25.478  0.1876 -0.4467 -0.0389
18458W        W61511  24.426  13.451   1.820 -0.0600 -0.0075  0.1131
18459W        W61512  24.940  33.941   7.949  0.1836  0.0618  0.1272
18460W        W61513  26.317  19.249   0.956 -0.1811  0.0237 -0.0191
18461W        W61514  32.606   7.471  26.435 -0.3105  0.2434  0.2349
18462W        W61515  27.772   3.593  16.069  0.0234 -0.0525  0.2628
18463W        W61516   8.283  16.548  24.320  0.0482  0.0826 -0.1889
18464W        W61517  27.982   6.527  22.758  0.1589  0.1125 -0.0347
18465W        W61518  33.558  32.208  28.516 -0.2354  0.0434 -0.4345
18466W        W61519   1.136   9.208   7.378 -0.0998  0.0257  0.0306
18467W        W61520  27.280   3.279   1.363 -0.1255 -0.0936  0.4118
18468W        W61521  34.518   7.907  17.468  0.0206 -0.2059 -0.0786
18469W        W61522  22.246  18.192  21.570  0.0878  0.0596 -0.0597
18470W        W61523  31.525  15.871   0.996  0.0406  0.1902 -0.0715
18471W        W61524  17.424  11.328  16.011  0.1119 -0.1945  0.2938
18472W        W61525   2.274  31.153  24.123 -0.1176 -0.3175  0.2923
18473W        W61526  22.631  27.342  16.053 -0.1031  0.0561 -0.2262
18474W        W61527  25.049  20.579  24.204 -0.4875  0.1315  0.1610
18475W        W61528  26.143  12.746   6.155 -0.0366 -0.0787  0.0199
18476W        W61529  24.257  34.273   4.069 -0.1379 -0.0377  0.1193
18477W        W61530  23.295   3.892  19.529 -0.0386  0.1738  0.1360
18478W        W61531   0.597   5.218   9.016  0.1005  0.4872  0.1758
18479W        W61532  26.547  28.489   0.274 -0.1280  0.0189 -0.0921
18480W        W61533   2.272  13.801  26.667  0.1737 -0.0612  0.2191
18481W        W61534   0.634  10.012  20.981  0.0835  0.1585  0.3238
18482W        W61535  30.215   0.327  24.462  0.2099  0.2227  0.0202
18483W        W61536  24.552  32.711  20.446 -0.0209  0.1630 -0.1365
18484W        W61537  17.881  22.841  23.623 -0.0151  0.1979  0.2653
18485W        W61538  33.688  23.162  25.808  0.2777 -0.1036  0.0147
18486W        W61539  28.039   9.878  28.279 -0.1775  0.1076 -0.0885
18487W        W61540  14.261   5.201   3.575 -0.1098  0.2066 -0.4558
18488W        W61541   5.726  20.086  19.323 -0.1212  0.0270 -0.3606
18489W        W61542  16.400   5.646   2.657  0.0676 -0.2405 -0.0464
18490W        W61543  28.381  27.287   7.062  0.0284 -0.1748  0.1273
18491W        W61544   6.665  28.209  19.607  0.0679  0.2054 -0.1898
18492W        W61545  17.220  10.954  19.683  0.1886 -0.1117  0.0276
18493W        W61546   5.637  32.599   5.596  0.1154  0.1915  0.3897
18494W        W61547  15.706  10.217  28.113 -0.2587  0.2861  0.1702
18495W        W61548  31.718   5.779  22.746  0.2956  0.2142  0.0303
18496W        W61549  15.191   2.114  29.074  0.2955  0.2750  0.1883
18497W        W61550  10.132   2.148  15.296  0.2551 -0.3388  0.1944
18498W        W61551  11.697  14.847  23.716  0.4714 -0.4071  0.1357
18499W        W61552  20.074  20.317  17.004 -0.1434  0.2189 -0.0243
18500W        W61553  10.725   8.784  23.104  0.0669 -0.0335 -0.0715
18501W        W61554   3.379  31.849   1.099  0.1080 -0.0365 -0.0938
18502W        W61555  28.707  14.242   8.544  0.1029 -0.2249 -0.0847
18503W        W61556  26.614   8.619   7.287  0.3699 -0.1498 -0.0986
18504W        W61557  11.734   1.977   1.714 -0.2850  0.0751 -0.3604
18505W        W61558  34.579  14.945   8.998  0.2791  0.2573 -0.1706
18506W        W61559   2.535  14.081  25.533 -0.3037 -0.1395  0.0810
18507W        W61560  20.426  21.222  25.399  0.2444 -0.2640 -0.0015
18508W        W61561  27.000   5.183   8.591  0.1756 -0.1619 -0.2600
18509W        W61562  21.534  17.331  21.303  0.1096 -0.1498 -0.4328
18510W        W61563  13.908  10.890   0.878 -0.1226 -0.0100 -0.2320
18511W        W61564   3.555  28.584  16.848  0.1383  0.1622 -0.1734
18512W        W61565  29.497   6.463  15.851 -0.1639  0.1733  0.0760
18513W        W61566  25.979  25.560  25.908 -0.2394 -0.1003 -0.1482
18514W        W61567  33.175   3.793  20.703  0.0817  0.1904  0.2500
18515W        W61568  20.014   6.407  28.964 -0.0005 -0.2189 -0.0221
18516W        W61569   0.846  22.456  13.758  0.0313  0.4345 -0.1891
18517W        W61570  24.297  14.974  23.770  0.1897 -0.1709 -0.0466
18518W        W61571  12.678  13.189  18.617 -0.0456 -0.0392  0.1577
18519W        W61572  11.604  33.156  20.356 -0.1134  0.1421 -0.1053
18520W        W61573  25.028   8.838   1.364 -0.0369  0.3222 -0.0674
18521W        W61574  26.532   5.756   9.995 -0.0639  0.2194  0.0526
18522W        W61575  21.158  13.271  21.147 -0.1775 -0.1706  0.1234
18523W        W61576  29.336  13.138   2.506 -0.0219  0.1680 -0.2488
18524W        W61577  17.388  33.896   2.825 -0.2862 -0.0378 -0.0185
18525W        W61578  14.809   3.397   0.179  0.1415 -0.0976  0.2721
18526W        W61579  29.052  16.350  25.696  0.0980 -0.0462 -0.1464
18527W        W61580  29.722   5.687  22.368  0.0856  0.0369 -0.0708
18528W        W61581   6.661  27.237  14.944 -0.0882  0.0626  0.0413
18529W        W61582  15.153  16.971  26.514  0.4902 -0.2198 -0.2240
18530W        W61583  19.106   9.549  23.494  0.3939 -0.0083  0.3789
18531W        W61584   0.145  29.557   8.481 -0.1327  0.0105 -0.0493
18532W        W61585  16.253  11.607  21.964 -0.0945 -0.1324 -0.2032
18533W        W61586  15.822  11.225  19.595 -0.2147  0.2805  0.1183
18534W        W61587   8.864  28.599  24.766 -0.3686 -0.0248  0.1572
18535W        W61588  16.380  21.345  23.425  0.0550 -0.1620  0.3967
18536W        W61589  22.975   3.249  20.814  0.0906  0.1904  0.4023
18537W        W61590  15.475  31.694  19.300  0.1762 -0.2112  0.1339
18538W        W61591  14.197   3.025  27.509 -0.4049  0.0870  0.0564
18539W        W61592  24.608   8.002  19.612 -0.0557  0.1057  0.1683
18540W        W61593   3.012  13.739  17.399  0.2749 -0.0602  0.0622
18541W        W61594  27.747  33.124  26.842  0.1865 -0.1408 -0.1730
18542W        W61595   8.335  20.805  14.656  0.1287 -0.2966 -0.1028
18543W        W61596   7.936   8.363  15.830  0.1997 -0.1764 -0.1894
18544W        W61597   4.317  29.255  23.969 -0.0398  0.0341 -0.1898
18545W        W61598   6.627  10.119  20.226 -0.1864  0.0764  0.1940
18546W        W61599  13.297   5.806  20.892  0.1315  0.0326 -0.0245
18547W        W61600  31.136  20.204  22.847 -0.2784 -0.0603 -0.0222
18548W        W61601  28.610   4.065  16.329  0.2253 -0.0424  0.0151
18549W        W61602   8.753  14.408  17.826 -0.1959 -0.1146  0.1352
18550W        W61603  27.701   1.711  14.913  0.0695  0.3417  0.0027
18551W        W61604  23.468  20.392  20.859 -0.1385 -0.0930  0.0642
18552W        W61605  32.222  26.183  21.856 -0.4650 -0.0213  0.0566
18553W        W61606   0.148  20.343  21.033 -0.1738 -0.1153 -0.0667
18554W        W61607   3.473   8.911  23.766 -0.1212 -0.1675  0.1287
18555W        W61608  27.042  18.270  14.442 -0.4153  0.0850  0.3216
18556W        W61609  24.287   7.288  22.417  0.2701 -0.2481 -0.0269
18557W        W61610  20.110  11.858  26.250  0.0985 -0.2177 -0.2491
18558W        W61611  21.558  13.699  22.640 -0.0045 -0.0500 -0.3032
18559W        W61612   9.531  31.922  17.003  0.1578  0.0663 -0.0870
18560W        W61613  26.243   9.156  15.713 -0.0849  0.1917 -0.1028
18561W        W61614   9.900  28.624  14.151 -0.4396 -0.0340 -0.2173
18562W        W61615  28.572  23.001  25.946 -0.2481  0.0667 -0.1484
18563W        W61616  29.439  12.564  24.129 -0.0915 -0.0798 -0.3141
18564W        W61617   8.940  28.404   7.677 -0.0751  0.0251 -0.1106
18565W        W61618  25.481  27.928  23.657  0.0399  0.3216  0.1731
18566W        W61619  14.150   8.946  22.955  0.2243 -0.2304 -0.0947
18567W        W61620  23.900  18.051   3.107 -0.0805  0.0267  0.4186
18568W        W61621   6.808  10.875  29.007  0.0238  0.2014  0.0727
18569W        W61622  29.806  14.577  14.435  0.3001 -0.2330 -0.0383
18570W        W61623  29.331  12.188  22.507 -0.2162  0.0126  0.0488
18571W        W61624  29.667  18.002  26.448  0.0600  0.0728  0.2686
18572W        W61625  29.185   9.511  18.577 -0.0787 -0.0193  0.0359
18573W        W61626  18.017  33.117  15.749 -0.3202  0.1851  0.2377
18574W        W61627  23.712  21.915  18.752  0.1375 -0.0239  0.3420
18575W        W61628  18.290   4.755  16.626 -0.1362 -0.2731 -0.2675
18576W        W61629  15.178   7.811   9.376 -0.1262  0.2688 -0.2321
18577W        W61630  23.947  20.255  15.522  0.1282 -0.1109  0.1086
18578W        W61631   1.922  33.042  22.068 -0.1995 -0.3126  0.0838
18579W        W61632  28.205  11.384  28.292 -0.0747 -0.0689  0.1309
18580W        W61633  29.464   2.605  20.537  0.1754 -0.0685 -0.2469
18581W        W61634  30.819  28.954  15.940 -0.1056  0.2316  0.1249
18582W        W61635  22.284  10.568   0.574  0.1835 -0.1581 -0.2667
18583W        W61636  27.194   5.979  18.022 -0.0204 -0.0784  0.1900
18584W        W61637  25.638  22.576   0.695  0.2374 -0.2002  0.0276
18585W        W61638  29.713  12.068  17.357  0.2575  0.0053 -0.2216
18586W        W61639   3.536  24.610  27.760  0.1891 -0.1545  0.0544
18587W        W61640  28.636  13.589  25.094 -0.0033 -0.3964  0.0879
18588W        W61641  34.187  26.065  18.506  0.1295  0.0869  0.0119
18589W        W61642  13.582   1.298  28.058  0.0870 -0.1265 -0.2202
18590W        W61643  24.148  12.472  23.018 -0.1628 -0.0532  0.3864
18591W        W61644  21.423  22.778  15.325  0.2017 -0.0969  0.0046
18592W        W61645  21.733  18.301  21.452 -0.0566 -0.1826 -0.0784
18593W        W61646  27.246  24.858  22.728 -0.1634 -0.0537 -0.2956
18594W        W61647  19.723  18.865  14.266  0.4218 -0.2332  0.3160
18595W        W61648  17.629   6.877   0.094 -0.1023  0.1275  0.1258
18596W        W61649  25.334   5.620   0.190  0.2818 -0.1567  0.0244
18597W        W61650  27.632   5.293  18.566 -0.2391  0.0714 -0.3842
18598W        W61651  16.506  17.047  12.952  0.2201 -0.1993  0.0066
18599W        W61652   6.286  12.559  26.901  0.0517 -0.0752  0.0741
18600W        W61653  26.327   7.798  24.781 -0.2076 -0.0793 -0.2076
18601W        W61654  17.077   9.002  17.768  0.1805 -0.1021  0.2247
18602W        W61655  27.851  24.211   2.789 -0.1072  0.1091  0.1977
18603W        W61656  11.816  13.342   9.516  0.1228 -0.2374 -0.0801
18604W        W61657  22.581   3.959  18.621  0.2328  0.3825 -0.1664
18605W        W61658  34.312  15.460   8.314 -0.2545  0.0978  0.1722
18606W        W61659  23.125  16.514  15.344  0.1265 -0.0576 -0.0702
18607W        W61660   2.554   6.576  23.706  0.2855  0.0244 -0.0279
18608W        W61661   7.383   4.487   5.386  0.1365  0.1465 -0.3142
18609W        W61662  17.492  10.640  24.634 -0.0383  0.0021  0.0583
18610W        W61663  31.735  33.153  22.863  0.0849  0.2066  0.0517
18611W        W61664  30.098  23.138  13.759 -0.2402  0.4118  0.2334
18612W        W61665  14.115  22.064  19.899  0.0782 -0.2458 -0.1190
18613W        W61666  33.835  12.474   7.770 -0.0817  0.0234  0.4868
18614W        W61667  29.695  14.714  21.462 -0.0924 -0.0538  0.1256
18615W        W61668  28.630  13.308  10.498 -0.0732  0.0033  0.5118
18616W        W61669  29.369   8.325  26.043  0.0731  0.0257  0.2558
18617W        W61670  19.862   1.769   6.522  0.2810  0.2378  0.0527
18618W        W61671   2.147  11.726  17.949 -0.0222 -0.1284  0.1647
18619W        W61672  32.564   8.882  16.549  0.0888  0.1682 -0.0522
18620W        W61673  24.054  21.325  18.139 -0.0701  0.1833 -0.2371
18621W        W61674  27.289  16.069  15.849  0.1345 -0.2669  0.2064
18622W        W61675  32.058  10.408   4.481 -0.1664  0.2206  0.0901
18623W        W61676  26.278  14.144  20.132  0.3155  0.1258  0.2474
18624W        W61677   7.585  25.477  26.857  0.1901 -0.0578  0.1077
18625W        W61678  19.551  29.434   4.142  0.1193 -0.0089 -0.1046
18626W        W61679  15.437   8.518  21.460  0.1027  0.1410 -0.1715
18627W        W61680   1.089  13.753  22.238 -0.1261  0.1157  0.0583
18628W        W61681  29.563  31.115  24.031 -0.0063 -0.1692  0.0228
18629W        W61682  22.050   7.214  28.221 -0.1402 -0.3182 -0.0148
18630W        W61683  22.550   9.294  21.924 -0.1591  0.0431  0.0332
18631W        W61684  22.456  11.763   4.453 -0.1694  0.3503  0.0620
18632W        W61685  22.026  16.993   5.027 -0.0667 -0.1198  0.1249
18633W        W61686   3.462   9.742  20.279  0.2064 -0.3225  0.4348
18634W        W61687  32.947   8.536  25.433 -0.2946  0.2743  0.1279
18635W        W61688  32.040   8.514  22.468  0.0315  0.1622  0.0140
18636W        W61689   0.521  26.128  22.728  0.0091  0.1459 -0.1718
18637W        W61690  28.534   9.173  25.293 -0.0535  0.0321 -0.0973
18638W        W61691  16.811  11.931  15.687 -0.0568  0.0299 -0.0210
18639W        W61692   8.360   0.986  27.884 -0.1084  0.1255  0.5036
18640W        W61693  14.523   8.963  20.477  0.0238  0.1011 -0.1510
18641W        W61694  16.548   6.538  18.407 -0.0005 -0.2610  0.1091
18642W        W61695  12.733   9.729  16.783 -0.1645 -0.0360 -0.2913
18643W        W61696  22.927  27.809  19.709  0.2294  0.2520  0.3335
18644W        W61697  14.479  33.287  27.763  0.0328  0.0136 -0.0875
18645W        W61698  30.500  18.697  26.687  0.0005 -0.0999 -0.2616
18646W        W61699  10.063  19.448  20.776 -0.1913 -0.1482 -0.2136
18647W        W61700  14.843   1.847   7.850  0.3990 -0.0984 -0.1476
18648W        W61701  30.091  14.382  20.500  0.3638 -0.1179 -0.1060
18649W        W61702  29.927   0.438  22.573 -0.0000  0.0183 -0.0264
18650W        W61703  31.981  25.015  17.535 -0.0652 -0.0316 -0.2743
18651W        W61704  34.386  15.111  16.320 -0.0337  0.3169 -0.1141
18652W        W61705  22.074  19.788   5.792  0.1556 -0.1594 -0.2070
18653W        W61706  23.248  12.053  27.920 -0.5911  0.4055  0.0321
18654W        W61707  22.174  20.617  28.799 -0.3221 -0.2724  0.1089
18655W        W61708   1.615  24.504  28.211  0.0486 -0.0674  0.1367
18656W        W61709  25.379   0.403  17.458 -0.2321  0.2236  0.0008
18657W        W61710  18.347  32.232   7.743 -0.0356 -0.1093 -0.1277
18658W        W61711  23.753  34.496  21.267  0.1694  0.0766 -0.2331
18659W        W61712  14.274  22.174  16.005 -0.3168  0.2285  0.1509
18660W        W61713  16.740   5.113  14.639 -0.3109  0.0934 -0.0159
18661W        W61714  10.549   7.836  18.863  0.1347  0.0305  0.1284
18662W        W61715  30.373  15.151  17.281 -0.1091 -0.0302  0.2071
18663W        W61716   3.709   1.070   4.710  0.0633  0.3339  0.0210
18664W        W61717  22.305   8.109  23.598 -0.0915  0.0712  0.2056
18665W        W61718   3.061  14.069  26.817 -0.2323 -0.2009  0.0104
18666W        W61719   2.811   7.841   8.071 -0.2094  0.0677 -0.0550
18667W        W61720  27.252   2.482  18.113 -0.0485  0.2015  0.2630
18668W        W61721  23.541   7.697  23.742 -0.0212 -0.0904  0.3929
18669W        W61722   3.695  11.558  19.202 -0.1073 -0.3027  0.1413
18670W        W61723  11.911   9.449  19.144  0.1330 -0.1452 -0.0653
18671W        W61724  28.342  10.174  15.920  0.1948  0.0424 -0.0216
18672W        W61725  30.217   6.261  16.488  0.0223  0.2382 -0.3532
18673W        W61726  31.848  11.530  24.086  0.0333  0.0747 -0.1218
18674W        W61727  20.744   8.722  25.719 -0.1245  0.2552  0.5702
18675W        W61728  25.732   0.516   4.560  0.3548 -0.1289 -0.0931
18676W        W61729  34.405   3.412  25.579  0.2481 -0.1970  0.2970
18677W        W61730   1.876  11.007  26.204 -0.0269  0.1130 -0.0074
18678W        W61731   9.255  33.046  23.036  0.1497 -0.1264  0.3144
18679W        W61732  24.909  10.518   2.228 -0.1465 -0.0517 -0.4723
18680W        W61733  16.762  13.608   0.620 -0.1960 -0.0022  0.2762
18681W        W61734  18.393   1.324  16.870  0.0408  0.2538  0.3293
18682W        W61735  25.705   8.211  15.715 -0.2222 -0.2003  0.0015
18683W        W61736  32.341  19.616   3.840  0.4005  0.1979  0.3369
18684W        W61737  13.787   9.327  22.740 -0.0471 -0.0605 -0.0222
18685W        W61738  25.897   1.981  26.720  0.1531 -0.1309 -0.1257
18686W        W61739  21.224  15.765   1.488 -0.0248  0.0161 -0.0983
18687W        W61740   1.724  12.969  15.305 -0.2376  0.1903 -0.0293
18688W        W61741  21.100  28.065  21.780  0.3058 -0.0857  0.2651
18689W        W61742  19.878   2.162  19.753 -0.1010 -0.1715 -0.1826
18690W        W61743  24.189   2.791  14.058 -0.0903 -0.0739  0.0926
18691W        W61744   8.853  33.132   1.165 -0.0333  0.0735  0.0140
18692W        W61745   8.007  21.333  16.033  0.0184  0.0096  0.3931
18693W        W61746  25.447   0.043  14.940 -0.0457  0.1126 -0.0744
18694W        W61747  33.010  33.945  24.310  0.1001 -0.0643  0.0094
18695W        W61748  31.703  17.917  26.053  0.1011 -0.0716  0.3446
18696W        W61749   1.788  18.255  15.725 -0.0235  0.0835 -0.0007
18697W        W61750   0.230  27.831  16.920  0.1288 -0.0651  0.1630
18698W        W61751  22.490  16.590  21.704  0.3742 -0.0004 -0.2104
18699W        W61752  10.982   7.650  27.352  0.0011  0.0317  0.0152
18700W        W61753   9.222  18.799  25.319  0.0809 -0.1739  0.0462
18701W        W61754  21.860   5.825  27.762  0.0868 -0.0098 -0.2955
18702W        W61755  22.925  16.112  26.659 -0.3983  0.4295  0.2405
18703W        W61756  27.901   8.763   8.578  0.0800 -0.1143 -0.1752
18704W        W61757  25.422  16.918  20.124  0.0330  0.0737 -0.2754
18705W        W61758  13.995  27.144  23.685 -0.0869 -0.1968 -0.0213
18706W        W61759  34.091  23.837  18.725 -0.1282  0.1807 -0.0533
18707W        W61760  20.888  15.764  27.652 -0.0178 -0.2938 -0.2014
18708W        W61761   1.671  13.384  19.855 -0.2864  0.0765 -0.2137
18709W        W61762  10.701   5.413  27.619  0.1470 -0.1102 -0.0830
18710W        W61763   4.282   5.313  15.745  0.1160 -0.0057  0.0770
18711W        W61764  17.578  19.295  15.270 -0.0860  0.3510  0.2117
18712W        W61765  26.021  31.392  25.555 -0.0374  0.0733  0.0853
18713W        W61766  28.793  24.746  10.035 -0.2835 -0.0436  0.0987
18714W        W61767  24.654  22.741  25.250 -0.1124  0.0849  0.1534
18715W        W61768  28.109   1.227  24.159  0.0210 -0.0424  0.0281
18716W        W61769  15.308  34.628  18.404  0.3560  0.0284  0.0635
18717W        W61770  25.155   6.819  27.303  0.1413 -0.0809  0.0749
18718W        W61771  28.467  12.162  19.640  0.1706  0.1954 -0.1294
18719W        W61772  21.312   4.155  14.128 -0.2993 -0.2461 -0.0393
18720W        W61773  18.102   1.926   0.286  0.2246  0.0996 -0.1661
18721W        W61774  19.786   5.247  21.008 -0.3393 -0.2319 -0.1480
18722W        W61775  29.699  16.740  26.471  0.0104  0.1224 -0.2566
18723W        W61776  16.156   2.731  17.391 -0.0659 -0.1641 -0.3015
18724W        W61777   9.405  11.555   1.886  0.4902 -0.0761  0.0301
18725W        W61778  16.430  26.384  20.259  0.5005 -0.1072 -0.2659
18726W        W61779  28.890  14.979   9.995 -0.0074  0.1468  0.1709
18727W        W61780  21.689   8.213   6.235 -0.1069 -0.3254  0.0159
18728W        W61781  30.763   7.630   0.759 -0.1315  0.0008  0.0754
18729W        W61782  22.557  10.553  28.097  0.1358  0.2573 -0.0679
18730W        W61783  27.765  10.116  17.821 -0.2709  0.1560 -0.1082
18731W        W61784  18.806  19.318  14.996 -0.0117 -0.3093  0.0349
18732W        W61785  25.041  11.012  18.804 -0.0472  0.3406  0.1580
18733W        W61786   7.103  10.746   4.289  0.0461 -0.0300  0.2266
18734W        W61787  10.539  20.288  15.536  0.1500  0.0299 -0.1043
18735W        W61788  26.254  22.882  25.057  0.0461 -0.1224  0.0121
18736W        W61789  25.621  34.649  25.031  0.1106 -0.2555 -0.2499
18737W        W61790  33.957  32.204  14.772 -0.0979 -0.1585 -0.2794
18738W        W61791   8.000  34.122  26.737  0.0295  0.0154 -0.3918
18739W        W61792  21.112  32.298  17.796 -0.0533 -0.2019 -0.1135
18740W        W61793  29.340   7.082  16.992  0.0086 -0.2437 -0.3941
18741W        W61794  26.140  13.904  21.800 -0.0649 -0.0370  0.2407
18742W        W61795  12.301  22.826  28.639 -0.2008  0.0163  0.0642
18743W        W61796  34.038   3.698  15.994  0.0175  0.2947 -0.0722
18744W        W61797  26.875   2.969  22.586  0.2231 -0.2522  0.0220
18745W        W61798  29.516   5.262  22.136 -0.1395  0.0625 -0.1524
18746W        W61799  34.664   0.691  15.196 -0.0550  0.1304  0.0845
18747W        W61800  26.124  18.171   3.615  0.4938 -0.2380  0.0713
18748W        W61801  32.082  10.719   1.973 -0.3859  0.1684  0.2132
18749W        W61802   3.400  20.365   1.470  0.1443 -0.2095 -0.2990
18750W        W61803  15.858  11.253   1.967 -0.2147 -0.2838 -0.1236
18751W        W61804  20.957  29.248  20.783  0.1628 -0.0246  0.2297
18752W        W61805   4.738  19.281   0.820  0.0714 -0.0545  0.1942
18753W        W61806  30.088  22.750   4.478  0.1236  0.2185 -0.0858
18754W        W61807   3.297   6.047  19.342 -0.0728  0.1457 -0.0779
18755W        W61808  27.344  10.504  20.418 -0.0289  0.0376  0.1063
18756W        W61809   0.856   6.310   2.098  0.0390 -0.2556 -0.2784
18757W        W61810  27.812   1.485  18.158 -0.0015 -0.0366  0.0966
18758W        W61811  25.908  14.143  17.979  0.2353 -0.0007 -0.1915
18759W        W61812  15.630  32.574  14.795 -0.0865  0.3012 -0.0997
18760W        W61813   3.060  25.954   6.302  0.1593  0.3165  0.0493
18761W        W61814  28.551  13.035  19.502 -0.1971 -0.1826  0.2408
18762W        W61815  13.523   9.795  18.710 -0.0510 -0.1754 -0.1594
18763W        W61816  29.417   7.241  22.865 -0.0953  0.1090 -0.2671
18764W        W61817   3.197  13.589  26.922  0.3428  0.0718 -0.1305
18765W        W61818  31.011  33.799   0.859  0.2054  0.2560  0.0531
18766W        W61819  14.906  17.102  23.910 -0.3996 -0.0432  0.1285
18767W        W61820  17.909  14.050  16.379  0.0122 -0.2623  0.0004
18768W        W61821  28.160   7.479   0.893  0.1844  0.0501 -0.0776
18769W        W61822  33.673  13.192  22.890 -0.0615 -0.2306  0.2966
18770W        W61823  17.020  34.431  24.441 -0.0503 -0.1286  0.2096
18771W        W61824  32.343  31.260   0.947  0.1936  0.0265  0.2520
18772W        W61825  21.524   1.693   7.211  0.0376  0.0167 -0.1085
18773W        W61826  23.901   0.213  26.092 -0.1141 -0.0102 -0.2667
18774W        W61827   6.171   9.655  19.703  0.1646  0.3190 -0.0277
18775W        W61828  21.350  16.807  19.520  0.1611 -0.3606 -0.2551
18776W        W61829   8.748   6.399  14.519 -0.0256  0.0264 -0.1206
18777W        W61830  16.819  10.195  15.882  0.1392 -0.3133 -0.0612
18778W        W61831  31.420   2.236  24.035  0.1713 -0.1808 -0.0198
18779W        W61832  31.157  13.413  22.319 -0.0003 -0.0039 -0.1118
18780W        W61833  16.371  20.241  22.303  0.0401  0.0339  0.0856
18781W        W61834  29.337  10.577  18.541  0.0393 -0.1682  0.1338
18782W        W61835  25.117   7.933  26.287  0.2516  0.0940 -0.1260
18783W        W61836   4.262  16.501  25.172 -0.3889  0.0175 -0.0768
18784W        W61837  16.700  17.250  26.411  0.4242  0.0347 -0.2691
18785W        W61838   2.938  34.436  16.856 -0.1024 -0.0143  0.1918
18786W        W61839  18.044  13.647  22.485 -0.1264 -0.0285 -0.0051
18787W        W61840  21.816  31.003  18.693  0.0723  0.0157  0.0454
18788W        W61841  26.006   0.969   2.152 -0.0060  0.1042 -0.4582
18789W        W61842   4.551  18.964  26.534  0.2305 -0.4649 -0.0102
18790W        W61843  29.803  24.316  23.006 -0.1024 -0.1598 -0.1291
18791W        W61844  28.117   0.894  27.409  0.1897  0.0791 -0.1463
18792W        W61845  24.581  33.881   9.751  0.1260 -0.4396 -0.0038
18793W        W61846  17.680   5.330   0.147  0.1562  0.2918  0.0646
18794W        W61847  30.105   8.771  20.705  0.0200 -0.0103  0.1510
18795W        W61848  22.409   3.077  19.502 -0.0609 -0.0377  0.3802
18796W        W61849  24.372  15.519   0.040  0.2054 -0.5639  0.1291
18797W        W61850  27.779  11.339  17.471  0.0277 -0.0436 -0.0437
18798W        W61851  18.822  25.743  14.867 -0.1326 -0.3663  0.2604
18799W        W61852   3.924  29.462  19.800 -0.0679  0.0501  0.1954
18800W        W61853  17.401  12.816  17.399 -0.3164  0.2394  0.1175
18801W        W61854  29.902  23.999   0.355 -0.3648 -0.2498 -0.0308
18802W        W61855   0.686  10.356  26.289  0.1282 -0.1904  0.2460
18803W        W61856  21.198   6.901  19.256 -0.0511  0.0664 -0.1060
18804W        W61857   2.551  10.476  26.011  0.0814  0.0455  0.2301
18805W        W61858  30.166  12.498  28.614  0.1316 -0.0668  0.1980
18806W        W61859  25.406   3.843  14.596  0.0486 -0.0342  0.0255
18807W        W61860  27.519  13.629  27.570  0.0782 -0.0782 -0.0344
18808W        W61861  11.357   7.143  27.587 -0.2138 -0.0379  0.0378
18809W        W61862  22.278  16.428  22.126  0.0368  0.0014 -0.0709
18810W        W61863  21.997  12.416  15.487 -0.1552 -0.0989  0.0724
18811W        W61864  30.807  12.739  10.368  0.0470 -0.0020 -0.0126
18812W        W61865   3.016  16.561  17.139  0.2018  0.0480 -0.1645
18813W        W61866   0.486  13.896   4.087 -0.1292 -0.0545  0.0275
18814W        W61867  17.907   2.135  26.144  0.4922  0.0770 -0.1819
18815W        W61868  14.561   7.739  17.008 -0.3258  0.1374  0.1548
18816W        W61869  16.478  10.231   3.233 -0.0114 -0.0476 -0.1063
18817W        W61870  27.652  32.522  14.160 -0.1216  0.1592  0.0737
18818W        W61871   9.727   5.333  20.552 -0.1141 -0.1413  0.0795
18819W        W61872  32.776   0.162  20.958  0.1112  0.4253 -0.0367
18820W        W61873  32.443  18.986   2.134 -0.0354  0.1142 -0.1123
18821W        W61874  27.502  32.317   8.724  0.1742  0.1259 -0.0855
18822W        W61875  23.832  15.782   7.866 -0.0775 -0.0007 -0.2841
18823W        W61876  31.979  32.809   1.257 -0.0089  0.5524 -0.1109
18824W        W61877  32.674   7.890   0.837 -0.3257 -0.0290  0.1897
18825W        W61878  23.346  25.603   2.313  0.2692 -0.3388 -0.4291
18826W        W61879  30.834  27.764  24.007  0.0364 -0.0183 -0.0157
18827W        W61880  17.383   3.491  24.656 -0.1828 -0.1056  0.0700
18828W        W61881  10.405   2.349   8.466 -0.0502  0.0313  0.1708
18829W        W61882  23.469  11.479  26.194  0.1849  0.2867  0.2170
18830W        W61883  21.005  23.965  21.518 -0.1243 -0.4877  0.0629
18831W        W61884  23.724  15.261  26.210 -0.0524  0.4178  0.3313
18832W        W61885   3.146  21.033  24.199 -0.0982  0.3803  0.0895
18833W        W61886  30.844   6.525  29.141  0.0788  0.0472  0.0538
18834W        W61887  30.773  32.880   9.089  0.1514 -0.2803  0.1557
18835W        W61888  31.192  32.508  18.384  0.2723 -0.0336 -0.1764
18836W        W61889  26.047  22.956  27.383  0.1246 -0.1392 -0.2130
18837W        W61890  21.903   8.538  18.391  0.2265 -0.1446 -0.1832
18838W        W61891  25.555  26.545  27.141 -0.0828  0.1584 -0.1805
18839W        W61892  32.203  27.991  23.028  0.3142  0.0115 -0.1381
18840W        W61893  34.503  10.010   1.880  0.2941 -0.0579  0.0278
18841W        W61894  12.046  24.497   7.829 -0.1513 -0.0298 -0.1870
18842W        W61895  33.652  25.220  23.677  0.1152 -0.1039  0.2587
18843W        W61896   9.723  33.139  25.934  0.2627 -0.2057 -0.1120
18844W        W61897  11.012  10.684  19.666  0.3391  0.0607 -0.1747
18845W        W61898  31.920  13.650  24.648  0.0301  0.1020  0.0522
18846W        W61899  15.711  33.315   2.087 -0.0248  0.2847  0.2641
18847W        W61900  23.466  13.105  18.749  0.2926 -0.1234 -0.0636
18848W        W61901  30.921  17.712   0.509  0.1804  0.0259 -0.3335
18849W        W61902   0.504  22.700  22.264  0.1044  0.2865 -0.0582
18850W        W61903  25.837   3.064   2.019 -0.2964 -0.1840  0.0384
18851W        W61904   6.103   3.399  28.136  0.0128 -0.1827  0.0196
18852W        W61905  23.688  10.954  20.172 -0.2734  0.1738 -0.2675
18853W        W61906  11.836   3.953  10.174 -0.0674  0.2795  0.1866
18854W        W61907  11.860  22.680   2.339 -0.1048  0.1691  0.1861
18855W        W61908  14.313  27.024   1.397  0.1736  0.0548  0.2901
18856W        W61909  27.900   4.983  22.709 -0.1614  0.0870  0.3776
18857W        W61910  20.930  30.354   8.387 -0.0503 -0.3019 -0.1619
18858W        W61911  10.160   2.786   1.602 -0.0380 -0.1537 -0.0236
18859W        W61912  14.223   4.873   2.685 -0.0864 -0.1382 -0.0878
18860W        W61913  30.683  22.460   1.218  0.0429 -0.0254 -0.1408
18861W        W61914  24.633  26.743   3.674 -0.0884 -0.1376  0.0202
18862W        W61915   6.170  15.042   1.496  0.0476 -0.1462  0.5056
18863W        W61916  26.996  32.995  22.675 -0.3397 -0.1094 -0.0336
18864W        W61917  17.588  15.002  12.596  0.3808  0.3813 -0.0541
18865W        W61918  22.273  28.957  23.896 -0.0292  0.0551  0.1827
18866W        W61919  22.208   8.308  28.450 -0.1475  0.3102  0.0009
18867W        W61920   8.305  18.961  18.196 -0.0400 -0.1692 -0.3905
18868W        W61921  17.536   2.178   4.478 -0.0490 -0.2598  0.1592
18869W        W61922  32.816   5.395   0.146 -0.4537 -0.0350  0.1772
18870W        W61923  17.748   9.719   0.042  0.0446  0.0911 -0.1543
18871W        W61924  21.726  13.770  21.566  0.3814 -0.0614  0.1270
18872W        W61925  29.568   1.930  28.106 -0.1637  0.1828  0.1124
18873W        W61926  22.633  23.279   2.359 -0.1507  0.6528 -0.0493
18874W        W61927  22.330  11.952  21.101 -0.1691 -0.0542 -0.0600
18875W        W61928  28.544  25.471  14.269  0.2642 -0.1271 -0.1362
18876W        W61929  19.823  11.860  25.831 -0.2627  0.0516  0.1454
18877W        W61930  24.071  13.536   2.320 -0.2604  0.1073  0.3291
18878W        W61931   0.860  32.337  17.548 -0.0327  0.2931  0.1738
18879W        W61932   0.786  19.676   2.501  0.0847 -0.1187  0.1175
18880W        W61933  28.156  34.594  22.844 -0.0103  0.2785  0.1058
18881W        W61934  21.760  12.951  20.406  0.0320 -0.0989 -0.2037
18882W        W61935   5.387  14.482  24.975 -0.2465 -0.0311  0.0441
18883W        W61936   9.980  10.411   6.000 -0.1934 -0.1100 -0.1415
18884W        W61937  24.986   1.148  17.243  0.1195  0.4471 -0.0958
18885W        W61938  11.056  24.426  15.912  0.1243  0.0451 -0.1126
18886W        W61939  11.034  13.502  25.842  0.0296  0.0627 -0.1761
18887W        W61940  24.845  18.030   7.888  0.0544 -0.0568  0.1591
18888W        W61941  32.998  20.715   1.470  0.2361 -0.5779  0.2087
18889W        W61942  25.910  11.886  27.384 -0.1049  0.2937 -0.2302
18890W        W61943  28.235   4.842   7.030  0.2503 -0.0980  0.1182
18891W        W61944  18.063  30.829   6.480  0.0623 -0.1783 -0.0595
18892W        W61945  28.610  15.691   4.218  0.0039  0.2937  0.0533
18893W        W61946  30.726  30.903   7.609 -0.1088 -0.2016  0.1001
18894W        W61947  20.837  10.407  20.486  0.1657 -0.1794  0.0408
18895W        W61948  18.567   9.417  23.211  0.1956 -0.2572  0.2968
18896W        W61949  30.217   1.199   8.479 -0.1132  0.0546 -0.0629
18897W        W61950  21.064  21.050  22.407 -0.0156  0.1576 -0.0722
18898W        W61951  16.860  23.777  19.066 -0.0331  0.0583 -0.0696
18899W        W61952   1.343   7.296   1.432 -0.1153  0.0157 -0.1842
18900W        W61953  29.960   4.037  24.129  0.0437  0.2751 -0.0799
18901W        W61954  21.046   2.550  25.221 -0.3276 -0.1054 -0.2489
18902W        W61955   9.448   3.593  28.246 -0.0584  0.0886 -0.1428
18903W        W61956   9.542  17.347   0.635 -0.0992  0.1250 -0.1247
18904W        W61957  34.338  25.552   3.060 -0.1292  0.0241  0.2634
18905W        W61958   5.596  11.060  23.694  0.1326  0.0979  0.0238
18906W        W61959  21.413  11.002  28.779  0.2937 -0.2045 -0.0804
18907W        W61960   4.316   7.527  18.219  0.2038 -0.0126  0.0253
18908W        W61961  27.844   2.275  21.814 -0.1679 -0.2310 -0.0592
18909W        W61962  33.089   6.918  14.964  0.0991 -0.4718  0.0621
18910W        W61963  27.316   6.180   9.125  0.0671  0.3455 -0.0648
18911W        W61964   6.525   7.814  27.661  0.1492 -0.0537  0.0361
18912W        W61965  30.229   3.012   6.433 -0.0847  0.1093  0.0711
18913W        W61966   3.441  20.698   7.664  0.0304 -0.1374 -0.3364
18914W        W61967  17.238   1.877  14.509  0.1190  0.3620 -0.0664
18915W        W61968  21.567  32.948   1.244 -0.0223  0.0169  0.0589
18916W        W61969  32.361  19.846  22.292 -0.1915 -0.0359 -0.1154
18917W        W61970  25.386  17.423  25.000 -0.1824  0.0227 -0.1133
18918W        W61971  21.386   9.598   6.598 -0.3499  0.2584  0.1291
18919W        W61972   3.926  14.236  27.321  0.1228 -0.0074 -0.0125
18920W        W61973  22.758   7.222  19.328 -0.0504 -0.4203 -0.0306
18921W        W61974  21.156  19.438  23.388  0.1648  0.0108  0.0534
18922W        W61975  18.509   4.704   8.059  0.0389  0.0077 -0.0756
18923W        W61976  21.647  17.337  21.863 -0.0579  0.3137  0.4042
18924W        W61977  28.607   4.221  18.314 -0.0982  0.1216  0.2399
18925W        W61978  17.558  24.256  24.844 -0.1255 -0.1087  0.1963
18926W        W61979  34.581  16.241  24.392  0.1357  0.0455  0.0149
18927W        W61980  26.908   9.633  22.312 -0.5421 -0.0736 -0.0426
18928W        W61981  33.503   5.250  28.271 -0.0176 -0.0208  0.0542
18929W        W61982   8.829   2.721  21.124 -0.2435 -0.0460  0.3668
18930W        W61983  27.805  10.156  15.348  0.0828 -0.1801 -0.2165
18931W        W61984  33.506  12.994   3.192  0.2081 -0.0837  0.1235
18932W        W61985  29.180  14.465   5.462 -0.0111 -0.1288  0.2081
18933W        W61986  21.135  10.828  19.855  0.0712  0.1333  0.0046
18934W        W61987   1.077   5.614   0.237 -0.1165  0.0871  0.0270
18935W        W61988  30.666  22.434  26.199 -0.2146  0.0377 -0.1292
18936W        W61989  28.264  29.628  10.044 -0.0778  0.2280 -0.0978
18937W        W61990  21.961  14.747   6.668 -0.2507 -0.1718 -0.0408
18938W        W61991  20.423  32.910   3.572  0.0945 -0.0923  0.2066
18939W        W61992   2.741  10.188   2.944  0.1373 -0.3698 -0.3086
18940W        W61993  29.202   5.145   3.541 -0.2461  0.0747  0.2296
18941W        W61994  14.910  32.333  27.656  0.1950  0.0965  0.0161
18942W        W61995  15.360  28.015   1.401  0.2511  0.2766  0.1473
18943W        W61996  24.102   9.380  26.485  0.0216 -0.1377 -0.0128
18944W        W61997   3.241   3.197  24.917 -0.1135  0.0507 -0.3168
18945W        W61998   1.322  11.239   2.431 -0.0376  0.0980  0.2311
18946W        W61999   6.639  13.925  26.816  0.0498  0.1802 -0.0026
18947W        W62000   1.986  33.530  23.868 -0.1940  0.1609  0.1294
18948W        W62001  32.909  31.189   4.276  0.3745  0.0545  0.2539
18949W        W62002   6.523  32.383  25.634  0.2234  0.4158 -0.2097
18950W        W62003  24.663  14.561  23.029 -0.1201  0.1122  0.1113
18951W        W62004  24.245   6.385   1.613  0.0544 -0.0254  0.1445
18952W        W62005  23.428  31.572   3.973 -0.1195  0.1407 -0.0656
18953W        W62006  33.005  14.635   8.211 -0.2081  0.1896 -0.1770
18954W        W62007  31.787  11.176  20.568 -0.2519  0.3231 -0.1231
18955W        W62008  29.444   3.442  28.209  0.0114 -0.3795 -0.3356
18956W        W62009  28.964  28.859  21.216 -0.1425  0.1588 -0.1235
18957W        W62010  33.384   3.974  27.901 -0.2248 -0.0461  0.0039
18958W        W62011  22.615  33.203   0.045  0.2185  0.0872 -0.1564
18959W        W62012   6.884  31.399  26.054  0.0141 -0.1793 -0.0870
18960W        W62013  32.259   1.687  26.636  0.0501  0.1443  0.0308
18961W        W62014   0.007  34.499  27.555 -0.1403 -0.0848 -0.0342
18962W        W62015   7.398   8.737   4.434  0.0952 -0.0456 -0.2485
18963W        W62016  30.310  19.273  15.981 -0.1413  0.0413 -0.1992
18964W        W62017  20.299  30.441   7.847 -0.3966 -0.0798 -0.1967
18965W        W62018  27.000  12.870  16.993 -0.1681 -0.0301 -0.3758
18966W        W62019  16.068   8.208  15.211  0.1293  0.0660 -0.0526
18967W        W62020  28.746  11.863   6.085 -0.0765  0.0532  0.0207
18968W        W62021   8.982  12.119  11.260 -0.0194  0.2493  0.1095
18969W        W62022  22.025   3.549  27.445 -0.0641 -0.3232  0.2262
18970W        W62023   0.738  12.846   8.503 -0.0542  0.0240  0.1180
18971W        W62024  21.501  14.959  21.338  0.2720  0.0219 -0.1117
18972W        W62025  20.447   3.969  27.209 -0.1650 -0.1004  0.0482
18973W        W62026  22.104  29.917  16.974 -0.1702  0.0339  0.1296
18974W        W62027  24.121  21.074  28.357 -0.0818 -0.0958  0.0696
18975W        W62028  32.849  18.685   4.488  0.1093 -0.1995 -0.0386
18976W        W62029  26.056   8.351  27.475 -0.0679 -0.0388 -0.1595
18977W        W62030  21.351  19.048   7.391  0.0506  0.1724  0.1114
18978W        W62031  32.905  12.510  10.568 -0.0500 -0.1518 -0.1830
18979W        W62032  16.691  11.135   3.274  0.1407 -0.0668 -0.1063
18980W        W62033   4.577  34.190  23.979 -0.0362  0.1027  0.0787
18981W        W62034  23.760  31.466  21.818  0.2167  0.0191 -0.0899
18982W        W62035  26.011  33.555  20.057 -0.1215 -0.0052 -0.3053
18983W        W62036  22.822   6.779  25.151 -0.0465  0.3297 -0.1500
18984W        W62037  27.479   2.526  13.514  0.0159  0.2865  0.0459
18985W        W62038  13.616  13.726   3.270 -0.0001 -0.2107  0.0197
18986W        W62039  20.828   0.904   8.652 -0.0977 -0.0439 -0.0720
18987W        W62040   2.078   9.561   3.233  0.3101 -0.0212 -0.3286
18988W        W62041  28.132  30.951   6.363 -0.1006 -0.0797 -0.0930
18989W        W62042  13.319  25.919   6.378 -0.2747  0.0401 -0.0408
18990W        W62043  13.188   0.862  20.377  0.0464  0.3873  0.1857
18991W        W62044  32.987   5.891  27.352  0.1647 -0.0875 -0.0177
18992W        W62045   0.178  23.648   5.322  0.0339 -0.0163  0.0466
18993W        W62046  34.401  10.554  15.769  0.0160 -0.1217  0.0734
18994W        W62047   4.468   2.651  26.549  0.0448 -0.2166 -0.0979
18995W        W62048   1.716   0.245   5.101  0.1909 -0.4719  0.0243
18996W        W62049  23.310   4.478   6.674  0.2314 -0.1617  0.0093
18997W        W62050   5.784  13.720   4.738  0.1987 -0.3283  0.0813
18998W        W62051  28.696  32.073  22.573  0.0042 -0.1752  0.3520
18999W        W62052  31.632  21.513   0.181 -0.0714 -0.0713  0.0542
19000W        W62053  23.283  10.741  15.130  0.3439  0.1169  0.1632
19001W        W62054  13.759  31.748  26.222 -0.2041 -0.0179  0.0348
19002W        W62055   0.370  10.960  19.302  0.0481 -0.3921  0.1146
19003W        W62056  20.360  16.607  27.697 -0.2807  0.0592  0.1624
19004W        W62057  17.127  15.405   7.571 -0.2347  0.0767 -0.2495
19005W        W62058  29.871   9.398   9.663 -0.0028 -0.0098  0.1802
19006W        W62059  25.710  12.697  20.435 -0.2601 -0.0429 -0.2467
19007W        W62060  34.687  15.455  21.220 -0.0946 -0.0024 -0.1575
19008W        W62061  34.600   6.424  22.911 -0.1689 -0.0028  0.3482
19009W        W62062  12.766  24.484  19.601 -0.1445  0.2517  0.0602
19010W        W62063  13.058   9.897   0.328  0.0707 -0.1376 -0.0932
19011W        W62064  19.685  10.290  22.078 -0.3924 -0.0242 -0.0882
19012W        W62065  15.338  11.910  21.881  0.1508 -0.2705  0.0833
19013W        W62066  24.709   0.399  28.508  0.0473  0.2991  0.0171
19014W        W62067   0.195  32.897  22.720  0.1848 -0.2722  0.3783
19015W        W62068  33.318   4.770  28.176  0.1890  0.1213 -0.1976
19016W        W62069  28.438  15.066  25.440 -0.0494  0.0039 -0.3322
19017W        W62070  31.105  15.428  28.580 -0.1150  0.1320  0.2434
19018W        W62071  34.409  27.357   2.278 -0.2352 -0.1086 -0.1044
19019W        W62072  32.263   7.716  28.865  0.0860 -0.1985 -0.4288
19020W        W62073  22.198   5.511  23.767 -0.3978  0.1860 -0.1947
19021W        W62074  22.300   0.040  15.279 -0.0387 -0.1924  0.4390
19022W        W62075   7.836  11.783   9.898 -0.0091  0.0300 -0.0476
19023W        W62076   5.207   7.350  27.297 -0.1083 -0.0385 -0.0548
19024W        W62077  21.794   3.533   8.242 -0.0773  0.1895 -0.2624
19025W        W62078  27.707  31.089   6.107 -0.0839  0.2565  0.1253
19026W        W62079  17.903   2.515   8.611 -0.0507  0.0130  0.0086
19027W        W62080  21.153  16.403  26.004  0.2567  0.0662  0.2515
19028W        W62081  12.406  11.968  19.533 -0.2443 -0.5304 -0.2394
19029W        W62082  34.666  33.300  22.395 -0.0552 -0.0403 -0.1297
19030W        W62083  17.398  18.762   3.907  0.1425  0.1517 -0.1477
19031W        W62084  34.061  24.062  24.940  0.0747 -0.0192 -0.1079
19032W        W62085  27.812   2.727   1.973 -0.3193 -0.3575 -0.2115
19033W        W62086  16.413   6.511   1.684 -0.2447  0.2916  0.1203
19034W        W62087  22.305   9.288  22.647  0.1865 -0.1598 -0.1363
19035W        W62088  18.541   9.856  18.196 -0.0130 -0.2576  0.1717
19036W        W62089  19.420  31.523  26.785 -0.0009 -0.0764  0.0951
19037W        W62090  34.016  12.734  26.061 -0.2957  0.1725  0.0414
19038W        W62091  28.623   7.013  17.822 -0.2547 -0.1021  0.1057
19039W        W62092  22.975   3.546  26.801 -0.1120 -0.0542  0.2796
19040W        W62093  33.957  14.987  24.128 -0.1735  0.0968  0.0361
19041W        W62094  26.051  17.054  16.222  0.0327  0.1280 -0.2983
19042W        W62095  16.926  11.263  23.962  0.5927 -0.0118 -0.0117
19043W        W62096  30.428   8.047  19.682  0.1582 -0.3209  0.1759
19044W        W62097  24.972  12.922  17.250 -0.0631 -0.1239  0.1462
19045W        W62098  19.951   0.081  26.942 -0.1163 -0.2490  0.1563
19046W        W62099  23.806  20.916  21.789  0.1168  0.1668  0.0665
19047W        W62100  20.684  31.238   8.116  0.4933 -0.0044  0.0250
19048W        W62101   7.064  10.433   3.246  0.0479 -0.0813  0.0260
19049W        W62102  33.619  15.601   0.413  0.2322  0.3035 -0.1771
19050W        W62103  16.119  30.639  20.864  0.1117  0.1775 -0.0345
19051W        W62104  30.623   8.672   5.124  0.0974  0.3089 -0.2158
19052W        W62105  28.112   1.375   9.312 -0.2146 -0.0964  0.1088
19053W        W62106  18.711  22.377  16.126  0.1546 -0.2632  0.3291
19054W        W62107  21.389  15.004  26.102  0.0041 -0.2577  0.3476
19055W        W62108  31.055  16.524  19.554  0.1391 -0.2352 -0.0381
19056W        W62109  31.975  33.172   4.049  0.0705  0.0135 -0.2999
19057W        W62110  29.444   3.959  18.621 -0.1233  0.0296 -0.1325
19058W        W62111  23.268   5.810   5.792  0.2814 -0.1680 -0.1171
19059W        W62112   5.523   8.931  25.116 -0.0447  0.1092 -0.2329
19060W        W62113  16.263  14.923   7.738 -0.1034 -0.1867 -0.1867
19061W        W62114  26.832   6.875  20.625 -0.0189  0.0646 -0.2034
19062W        W62115   1.003  10.297  17.109 -0.1322  0.1416 -0.0613
19063W        W62116  19.850   7.958  18.676 -0.2995 -0.1597 -0.1547
19064W        W62117  24.098   9.851   0.766  0.0577 -0.3769 -0.1550
19065W        W62118   4.300  33.604  26.587  0.3119  0.1865  0.1015
19066W        W62119  10.646  11.516  16.133  0.0260 -0.1639  0.4211
19067W        W62120  18.256   2.250  27.454 -0.2074  0.2152  0.1186
19068W        W62121  23.968  12.733  21.911  0.1583 -0.4385  0.0549
19069W        W62122  32.368  17.816  23.736 -0.0764  0.1089  0.0107
19070W        W62123   0.713   6.801  21.359 -0.5155  0.1072  0.3587
19071W        W62124  22.552   8.784  27.090  0.2692 -0.1955  0.2021
19072W        W62125  23.904  22.655  20.855  0.1440 -0.1022 -0.2283
19073W        W62126   2.854  15.811   7.137  0.2394 -0.0607  0.1072
19074W        W62127  23.849  23.382  23.384 -0.0281 -0.0043 -0.1247
19075W        W62128  26.038   2.956   0.959 -0.5488  0.1069 -0.0472
19076W        W62129   8.777  17.980  22.649  0.4463  0.0782  0.1570
19077W        W62130  26.281  25.063  18.602  0.1097  0.0084  0.0046
19078W        W62131  26.746  31.622  26.336  0.1456  0.1305  0.0078
19079W        W62132  30.200  14.046  17.405  0.0347  0.0516 -0.1036
19080W        W62133  28.649  25.628   1.721 -0.2633  0.1510 -0.1216
19081W        W62134  27.836   2.165  13.481  0.1631 -0.0774  0.1882
19082W        W62135  22.086   6.985  24.621  0.1671 -0.1379 -0.3970
19083W        W62136  26.151   5.584  24.621 -0.2566  0.3378 -0.1653
19084W        W62137  17.938  10.444  15.375 -0.2198 -0.4011 -0.0673
19085W        W62138  20.980  33.436   1.583 -0.0164 -0.0642 -0.3523
19086W        W62139   2.086   8.473   1.120  0.2035 -0.0941  0.0579
19087W        W62140  22.704  13.524   1.575 -0.0338 -0.6126  0.2529
19088W        W62141  18.305  25.192  24.063 -0.1416 -0.2344 -0.0429
19089W        W62142   8.188  10.273  25.975  0.0079  0.0578 -0.2921
19090W        W62143  19.809  34.517  19.566 -0.1052 -0.0922  0.0115
19091W        W62144  30.848   9.253  15.668  0.0040 -0.1545 -0.0485
19092W        W62145   4.811  11.575  28.806  0.3099  0.1433  0.0780
19093W        W62146  26.698  34.058   4.719 -0.2892  0.2266 -0.2575
19094W        W62147  21.442   9.886   6.160 -0.3153  0.0204  0.0057
19095W        W62148   5.755  13.659   9.218  0.3101  0.1215  0.0157
19096W        W62149   4.807   7.269  26.467 -0.1217  0.4460  0.0614
19097W        W62150  19.400  12.370   6.054 -0.2636  0.1364 -0.0661
19098W        W62151  24.640  30.371   2.307  0.0745  0.2338  0.0993
19099W        W62152  24.770  12.783  16.778  0.1088  0.2509 -0.1459
19100W        W62153  30.212   5.674  16.985  0.0931 -0.3030 -0.0821
19101W        W62154  31.276  14.660  17.754  0.1247  0.0440 -0.0593
19102W        W62155  26.509  16.029   9.573 -0.1380  0.1725 -0.0477
19103W        W62156  33.821  32.096   0.688 -0.0022  0.3148 -0.2792
19104W        W62157  22.323   8.487  22.302 -0.2306  0.1674 -0.2731
19105W        W62158  12.791   9.694   7.615 -0.2437 -0.1482 -0.0107
19106W        W62159  28.048  16.563  14.474  0.1119 -0.0339 -0.0112
19107W        W62160  25.057  14.551  19.286  0.1035  0.1321  0.1088
19108W        W62161  22.311  13.217  28.174  0.0393 -0.0374 -0.3360
19109W        W62162  28.655  32.545  22.407  0.1637  0.2569  0.0970
19110W        W62163  11.292   7.553   1.092 -0.0536  0.0547 -0.0240
19111W        W62164  30.234   2.038   9.091 -0.1109  0.1067  0.2337
19112W        W62165  23.175  14.090  26.838  0.0523  0.1329 -0.3564
19113W        W62166  27.436  13.700  24.459 -0.0374  0.2617  0.0739
19114W        W62167  16.358  31.837  26.858  0.5672  0.3098 -0.0776
19115W        W62168  20.413  10.635  19.128 -0.3073 -0.2991  0.4795
19116W        W62169  23.015   1.141   9.337  0.0964  0.0195  0.0163
19117W        W62170  10.452   3.745   3.377 -0.1026 -0.0015  0.0872
19118W        W62171   2.497  18.088  23.445 -0.0716  0.0147 -0.1973
19119W        W62172  25.316  20.609   1.240 -0.1635 -0.0580 -0.4577
19120W        W62173  32.123  15.637  25.469 -0.2570 -0.0363 -0.1196
19121W        W62174   6.386   8.128   3.124  0.2260  0.0830 -0.0064
19122W        W62175  21.253   5.177  14.886  0.0513 -0.0101  0.3396
19123W        W62176  32.748  31.213  27.441  0.1589  0.1014  0.2509
19124W        W62177  25.425   9.034  28.910 -0.0787  0.1027 -0.1894
19125W        W62178  32.085   6.730   1.095 -0.3175  0.0854 -0.0321
19126W        W62179  30.007  34.013  24.937 -0.0231 -0.0648 -0.1172
19127W        W62180  32.690  10.910  24.600 -0.1895 -0.2531  0.3409
19128W        W62181  26.781  27.009  25.279 -0.0370  0.3075 -0.1141
19129W        W62182  22.447   1.543  28.880 -0.2211  0.0322 -0.2055
19130W        W62183   7.427   8.448   2.238  0.0399 -0.1466 -0.2014
19131W        W62184   0.897   2.550   9.373 -0.5269  0.1592  0.3399
19132W        W62185   0.405  15.540  22.371  0.1556  0.0190 -0.2390
19133W        W62186  14.674   4.159  27.798  0.1240  0.0369  0.1532
19134W        W62187  16.567  11.375  18.926 -0.2105  0.0951 -0.3431
19135W        W62188  26.071  15.639  18.106 -0.1330 -0.3179  0.0094
19136W        W62189  23.957  19.571  21.114 -0.0366 -0.1748  0.3499
19137W        W62190  30.515   6.351  19.644  0.4303 -0.2007  0.0661
19138W        W62191   5.162   4.558  14.562  0.1604 -0.1183  0.0395
19139W        W62192   9.594   8.059  26.372 -0.0863 -0.0779 -0.4444
19140W        W62193  34.613  13.701  18.696  0.0906 -0.2224 -0.2249
19141W        W62194  23.605  29.289   1.990  0.2625 -0.0069 -0.1048
19142W        W62195  26.636   4.968  20.217  0.0643  0.1177 -0.0193
19143W        W62196  34.478   6.709   0.774  0.1912 -0.0344  0.0350
19144W        W62197  30.202   8.364  20.970 -0.1567  0.3610  0.0943
19145W        W62198  32.766  16.062  17.697 -0.0947 -0.5141 -0.0084
19146W        W62199  24.252   7.099  20.964 -0.0491 -0.3202 -0.1599
19147W        W62200  23.999  13.047  23.169  0.2518  0.1244 -0.1300
19148W        W62201  25.786  24.516  21.823  0.0114 -0.1285 -0.2628
19149W        W62202   8.851   2.348   4.087 -0.3137  0.0982 -0.2731
19150W        W62203  23.615   7.997  28.762 -0.3489 -0.1674  0.1538
19151W        W62204  24.752  28.125   1.214 -0.2246  0.1084 -0.0290
19152W        W62205  31.043  13.054   2.077  0.1912  0.1103 -0.2000
19153W        W62206  17.360  31.123   2.369 -0.1034 -0.1608  0.0527
19154W        W62207  25.323  33.901  14.022  0.0841  0.0059 -0.2092
19155W        W62208  26.579   0.676  26.316  0.0452  0.0246 -0.3876
19156W        W62209  25.296   5.401  22.429 -0.2513 -0.0594  0.2978
19157W        W62210  10.202  25.521  18.838  0.1879 -0.3962 -0.0047
19158W        W62211  12.024   6.854  28.794  0.1328 -0.4369 -0.0892
19159W        W62212  22.537  31.320  14.524 -0.1760  0.1123  0.2930
19160W        W62213  32.492   0.619  19.692 -0.5057  0.0898 -0.0560
19161W        W62214  19.406  24.619   7.409 -0.3489 -0.0431  0.1160
19162W        W62215   0.242  17.386  19.716 -0.0862 -0.1659  0.0258
19163W        W62216  29.386   9.256  25.837 -0.2731 -0.0418 -0.0747
19164W        W62217   4.270   7.967  27.935 -0.1922 -0.0371  0.0637
19165W        W62218   6.692  21.877   1.654 -0.1341 -0.2365 -0.3297
19166W        W62219  19.280   2.196   0.708 -0.1095 -0.0468 -0.2607
19167W        W62220  27.459  22.836  16.844 -0.2838  0.3662  0.3669
19168W        W62221   5.592   5.613  14.633  0.0396  0.1051  0.3396
19169W        W62222  24.927  15.850  19.641 -0.1354 -0.4411 -0.1048
19170W        W62223   6.064   5.696  22.064  0.0357  0.1023 -0.2371
19171W        W62224   6.527  30.717  25.821 -0.0243 -0.1930  0.2086
19172W        W62225   5.939   0.450  16.651  0.1008  0.1351 -0.1350
19173W        W62226  24.570  21.989   2.507  0.1552 -0.0501  0.0481
19174W        W62227  27.992   2.257   9.603  0.0612  0.3000  0.0641
19175W        W62228   0.671  15.049  23.815 -0.1866  0.3052 -0.2522
19176W        W62229  26.871   3.007   6.678  0.5410  0.1194  0.0590
19177W        W62230  10.985   5.313  20.688  0.0461  0.3012  0.0762
19178W        W62231  16.546  34.183  18.463  0.3625  0.1217 -0.4515
19179W        W62232  34.195  25.430  28.941 -0.0476 -0.0926 -0.1189
19180W        W62233  33.757  13.102  25.771 -0.1608  0.1514 -0.1255
19181W        W62234  19.156  14.499   1.493  0.0323  0.0717 -0.1325
19182W        W62235  31.850   7.099  22.365  0.1198 -0.2649  0.0386
19183W        W62236  24.096   4.786  26.412 -0.1802  0.1068  0.0341
19184W        W62237  27.601   2.538  22.975 -0.1085 -0.1365  0.0575
19185W        W62238  32.797   8.770  26.389  0.2920 -0.1647  0.0628
19186W        W62239  23.180   9.003  24.137 -0.5299 -0.1750 -0.1737
19187W        W62240  29.392  13.803   0.650 -0.0031 -0.1278  0.1160
19188W        W62241  28.549   7.554  10.003  0.0804  0.0997 -0.2352
19189W        W62242  29.012  16.954   0.038  0.2931  0.1452 -0.1958
19190W        W62243  33.374  18.440  21.387 -0.1611  0.1207 -0.2010
19191W        W62244  25.098   8.398   5.135  0.1697 -0.0140  0.1435
19192W        W62245  31.795  14.662   5.421  0.2697  0.1026  0.3468
19193W        W62246  11.434  27.473  14.231  0.2761  0.0899  0.1937
19194W        W62247  33.536   9.285   1.479 -0.0118  0.3994  0.2079
19195W        W62248  24.358  17.464  27.957 -0.1030 -0.3499 -0.2242
19196W        W62249  28.203   5.603  26.138  0.2734  0.2735 -0.0495
19197W        W62250  22.637  14.806  21.225  0.0252  0.0087 -0.2212
19198W        W62251  24.001   7.484   6.740 -0.0217 -0.1759 -0.3778
19199W        W62252   0.483  17.673  13.456  0.0215 -0.0850  0.2341
19200W        W62253  14.891  14.511  23.588  0.3291  0.2319  0.2404
19201W        W62254  22.589   1.962   2.594  0.1613 -0.0720 -0.0824
19202W        W62255  25.730  14.554  28.669 -0.2163  0.1594  0.2580
19203W        W62256  25.770  33.585  28.172 -0.0464  0.0869  0.1394
19204W        W62257  16.865  23.420  26.958  0.1411 -0.1080 -0.0962
19205W        W62258  28.703  17.519  21.466  0.0387  0.3137 -0.1670
19206W        W62259  15.824   1.284   4.407  0.0510 -0.1123 -0.3409
19207W        W62260  30.968  30.333  27.934  0.0841 -0.0925 -0.2558
19208W        W62261  23.336  21.637  24.400  0.2096 -0.3596  0.0457
19209W        W62262   7.303  33.743  20.613 -0.1286 -0.0155 -0.0493
19210W        W62263  30.932  17.255  28.752  0.2412 -0.0277 -0.1229
19211W        W62264  31.833  32.203   2.297 -0.0147 -0.1262 -0.1411
19212W        W62265  27.154  11.026  21.773 -0.3050 -0.0372 -0.3188
19213W        W62266  22.811  17.563  26.575  0.0745 -0.0596  0.1323
19214W        W62267  28.572   3.524   1.674  0.0410  0.3055 -0.2384
19215W        W62268  16.822  10.700  15.260  0.0200  0.0787 -0.0614
19216W        W62269  33.613   2.076   8.380  0.1201  0.1088 -0.1733
19217W        W62270  13.817  20.266  22.656 -0.1237  0.1045 -0.0814
19218W        W62271  22.122  11.264   7.980  0.0547 -0.0798  0.0922
19219W        W62272  28.932  19.218   0.272  0.1151  0.2919  0.3590
19220W        W62273  20.439   8.391  19.590  0.0312  0.0372 -0.0212
19221W        W62274   3.178  27.045  25.476  0.1136 -0.2137 -0.0996
19222W        W62275  25.759   8.334  25.882  0.1518 -0.0607  0.3368
19223W        W62276  23.615  15.377   4.105  0.1462  0.0682 -0.1584
19224W        W62277  31.217  12.725  23.753 -0.0331  0.0300 -0.1503
19225W        W62278  27.405  32.289  27.561 -0.2099  0.1200  0.0354
19226W        W62279  23.853  22.449  21.477 -0.1381 -0.0592  0.2303
19227W        W62280  28.778  19.277   7.208  0.0262 -0.0179 -0.0504
19228W        W62281  26.389   7.592   9.055  0.1178  0.2690  0.0858
19229W        W62282   0.069  16.618  24.010  0.0822  0.0507 -0.2713
19230W        W62283  14.952   7.808  22.465 -0.1400  0.2977  0.2049
19231W        W62284  12.662  12.995  22.273  0.0278  0.1476 -0.1928
19232W        W62285   2.976  11.516  18.549 -0.2558 -0.2905  0.0298
19233W        W62286   2.453   5.629  15.808  0.0501  0.0836  0.1009
19234W        W62287  22.834   7.375   7.681  0.1041 -0.1962 -0.1013
19235W        W62288   0.473  20.139  23.821  0.0625  0.2361 -0.0243
19236W        W62289  14.366  29.813  27.579  0.1873  0.0328  0.1207
19237W        W62290  22.990  21.028  19.785 -0.0987  0.1488 -0.1615
19238W        W62291  32.842  12.965  15.866 -0.2475  0.1592  0.0197
19239W        W62292  23.705  26.020   6.079 -0.1628 -0.1987 -0.0088
19240W        W62293   8.890  17.508  22.344  0.0124  0.4498 -0.1317
19241W        W62294  30.435  17.599  15.122  0.1643 -0.1454 -0.3972
19242W        W62295   2.502   7.115   3.668  0.3554 -0.1180 -0.2875
19243W        W62296   9.545  19.716   6.215  0.1072  0.0742 -0.1233
19244W        W62297  23.589  14.607  14.356  0.0983  0.1951 -0.1920
19245W        W62298   1.075   5.601   8.612 -0.1823  0.2137  0.1361
19246W        W62299  19.257   9.620  15.189 -0.0641  0.0389 -0.1178
19247W        W62300  15.543  24.533   6.255  0.1032 -0.1741 -0.1839
19248W        W62301  31.506   8.263   9.747 -0.0364 -0.2144 -0.4934
19249W        W62302  28.116   2.354  25.673  0.1686 -0.1460 -0.1305
19250W        W62303  34.369   7.319  23.457 -0.1091 -0.2332 -0.0234
19251W        W62304  15.070  17.641  14.836  0.0613  0.4598 -0.1625
19252W        W62305   6.666  27.883  23.370 -0.0726  0.0131  0.1575
19253W        W62306   3.848   9.661  23.487 -0.1353 -0.0727 -0.4076
19254W        W62307   0.122  28.815  21.864 -0.0382  0.0001  0.2187
19255W        W62308   3.871   6.515  17.301 -0.2000 -0.0708  0.0556
19256W        W62309  31.729  17.600   4.087 -0.0931  0.0311 -0.0087
19257W        W62310  33.691   9.816  28.452 -0.0872  0.0894  0.0633
19258W        W62311  30.771  21.759  22.000 -0.1774  0.1573  0.1499
19259W        W62312  31.389  26.115   5.568 -0.3034  0.0720 -0.1621
19260W        W62313  26.851   6.814  21.366  0.1824 -0.1257  0.1855
19261W        W62314   4.782  11.676   9.817  0.0767  0.1105  0.0285
19262W        W62315  16.447  19.212   9.295  0.0410 -0.2091  0.0212
19263W        W62316  27.719   6.719  21.076  0.1425  0.1556  0.2990
19264W        W62317  27.897   9.978   2.074  0.1034  0.0373 -0.1867
19265W        W62318  15.436  21.316  24.436  0.0630  0.1001  0.1424
19266W        W62319   2.416  10.490   8.452 -0.0051  0.3536  0.4378
19267W        W62320  19.358  25.729  15.496  0.4206  0.1315 -0.3229
19268W        W62321  17.593  23.330  27.308 -0.0454 -0.2408 -0.2220
19269W        W62322  15.939   2.271   1.635 -0.2109  0.0668  0.0866
19270W        W62323  18.806  13.623  20.074  0.4757 -0.4560  0.0435
19271W        W62324  17.818   8.671   1.084 -0.4054 -0.1431  0.0267
19272W        W62325  24.371  24.544  18.366  0.1509 -0.1185  0.1326
19273W        W62326  23.844  16.660  26.007  0.1305 -0.0425  0.2976
19274W        W62327  31.544  22.560  21.059 -0.0514  0.2333 -0.1692
19275W        W62328  24.692  23.701  15.848 -0.2176  0.1347  0.1044
19276W        W62329  27.934  31.572   6.101  0.0590 -0.2469 -0.1896
19277W        W62330  27.863   8.582   2.810  0.0235 -0.2290  0.0569
19278W        W62331  21.211  33.195  29.063 -0.3354  0.0972  0.0051
19279W        W62332  31.403  11.500  16.800  0.0687 -0.1262  0.1826
19280W        W62333  28.188  19.097   1.354  0.2235 -0.3925 -0.0585
19281W        W62334  19.296  13.790  23.427 -0.1149  0.1953  0.1646
19282W        W62335  27.259  14.897  24.540  0.2484  0.2348 -0.3030
19283W        W62336  26.493   9.700  26.706  0.0565 -0.1167 -0.2095
19284W        W62337  21.839  18.333  17.699  0.1483  0.0616  0.0857
19285W        W62338  32.249   5.973  24.490  0.1198 -0.3871  0.1422
19286W        W62339  14.865   7.163  28.178  0.0550  0.0153 -0.2171
19287W        W62340  13.125   5.293   3.876 -0.1280  0.0431 -0.0424
19288W        W62341   3.585  23.229  17.780  0.4333 -0.2645 -0.1307
19289W        W62342  21.086  29.898  13.661 -0.1230  0.1044 -0.2692
19290W        W62343  17.911   9.963  21.433 -0.1538 -0.3552  0.0610
19291W        W62344  29.060  19.111  18.189  0.0216 -0.0885 -0.0998
19292W        W62345  12.222   7.974  19.359  0.0480 -0.0137  0.1578
19293W        W62346  31.652  10.122  21.513  0.2531  0.0052 -0.2362
19294W        W62347  24.807   5.510  13.814  0.4781 -0.2770 -0.0625
19295W        W62348   6.086  34.141  19.150 -0.0291  0.1645 -0.1324
19296W        W62349  22.062  12.953  19.167 -0.1445  0.2921  0.1741
19297W        W62350  22.002   9.109  15.829 -0.1198  0.1731  0.1597
19298W        W62351   2.569  26.673  25.127 -0.2475 -0.1328 -0.1532
19299W        W62352  22.815  20.397  20.241  0.0556  0.1538  0.1980
19300W        W62353  33.962   5.523  14.824  0.1966  0.1766  0.2856
19301W        W62354  20.993  26.135  14.363  0.1237  0.1151 -0.1673
19302W        W62355  26.911  29.330  25.829 -0.0738 -0.1767  0.0029
19303W        W62356  32.437  16.964  14.725 -0.2047  0.2431 -0.2753
19304W        W62357  27.884  17.177  14.364  0.1341  0.0689  0.0529
19305W        W62358  33.886  29.416  21.042 -0.2155 -0.0107  0.0746
19306W        W62359  11.149  16.722  20.080 -0.2492 -0.0339  0.2535
19307W        W62360  24.398   8.512  20.336  0.0813  0.0339  0.2843
19308W        W62361  33.888  14.013  25.115  0.0969  0.3799  0.0153
19309W        W62362  32.994  17.593  17.607 -0.1691  0.1737  0.1993
19310W        W62363  21.805  21.941  28.922  0.0991  0.1156 -0.3381
19311W        W62364   4.363   9.183   3.829  0.0699  0.0850 -0.2264
19312W        W62365  27.869  19.917   2.769 -0.4441  0.0666  0.0218
19313W        W62366   6.015  26.554  21.834  0.2133 -0.0585 -0.1298
19314W        W62367  25.442  16.835  15.860 -0.1758  0.2129  0.2678
19315W        W62368  27.706   5.286  15.357  0.0506  0.1212 -0.0544
19316W        W62369  20.108   0.991  18.073  0.1743  0.0304  0.3496
19317W        W62370  24.778  10.149   5.585 -0.2239  0.2505 -0.4009
19318W        W62371  14.432   6.323  22.448 -0.0703  0.0263  0.0102
19319W        W62372  29.928  29.896  15.036  0.5516  0.0063  0.1981
19320W        W62373  22.782   9.979  17.187  0.0541  0.2295 -0.3437
19321W        W62374  21.926  33.703  26.856  0.0444 -0.3372  0.0706
19322W        W62375   2.784  10.902  28.721  0.1180  0.2248 -0.3436
19323W        W62376  29.359  34.683  22.532 -0.0353  0.2431  0.0456
19324W        W62377   3.873  17.546  17.538  0.0622  0.0625 -0.1078
19325W        W62378  31.248   8.906  19.554 -0.0865  0.1853 -0.0222
19326W        W62379  13.133  12.504  23.955 -0.0575  0.0456  0.0236
19327W        W62380  30.671  17.314  16.099  0.3031 -0.2624 -0.4621
19328W        W62381   3.784  12.356  26.387 -0.0530  0.2273 -0.3388
19329W        W62382  30.335  34.059  21.005 -0.2435  0.0467 -0.3033
19330W        W62383  15.804   2.023  15.826 -0.1239 -0.1856  0.1998
19331W        W62384   2.045  15.830   5.090  0.2636 -0.0678 -0.1197
19332W        W62385   0.597   5.306  16.042 -0.1309 -0.0613  0.0157
19333W        W62386  31.177   5.509   4.279  0.1017  0.1323 -0.0638
19334W        W62387  20.521  10.039  18.484 -0.0031 -0.0214  0.2263
19335W        W62388   3.104  21.353  18.423 -0.1995  0.0487 -0.3638
19336W        W62389  26.768   8.196  17.493 -0.1972  0.1129  0.1196
19337W        W62390  30.129   9.485  10.975 -0.1874  0.1576  0.0211
19338W        W62391   2.602   9.661  20.238 -0.0169  0.0683 -0.3996
19339W        W62392  30.375   8.409  15.126  0.0774 -0.3775 -0.1506
19340W        W62393  19.288  14.370   2.039 -0.1485  0.3000  0.1094
19341W        W62394  25.803   8.008  14.986  0.0003 -0.0512  0.2052
19342W        W62395  30.762   9.768  15.963  0.2354  0.0248 -0.1616
19343W        W62396   5.622   7.321  27.548  0.0835 -0.0623 -0.1017
19344W        W62397  22.654   7.015  16.658  0.1890  0.2287  0.0999
19345W        W62398  28.144  24.709  20.463 -0.0625  0.2947 -0.2131
19346W        W62399  27.076   9.730  21.573 -0.0633  0.0355 -0.1545
19347W        W62400  30.803  14.792  23.396  0.0034  0.2898 -0.2436
19348W        W62401   0.519  16.285  28.830 -0.0007 -0.2087 -0.1308
19349W        W62402  32.294  12.407  16.449 -0.0573  0.0214  0.4628
19350W        W62403   6.375  27.408  20.628 -0.1290  0.3504 -0.0196
19351W        W62404  29.328   4.181  13.928  0.2597 -0.1071  0.1659
19352W        W62405   8.387  17.655  14.880  0.0702  0.0011  0.1240
19353W        W62406  32.260   5.058  14.412  0.0268 -0.0597  0.1072
19354W        W62407   1.323   4.045   1.548 -0.0160  0.0681 -0.3063
19355W        W62408  28.945  17.999  18.108  0.0645  0.0203 -0.0230
19356W        W62409  15.167  11.785  17.402  0.0866  0.4047 -0.3213
19357W        W62410   8.616  26.325  26.083  0.0386  0.0899  0.2728
19358W        W62411   5.480  20.609  14.897 -0.2802  0.0411  0.3330
19359W        W62412  19.611  22.387  20.025 -0.0063  0.3675 -0.2740
19360W        W62413   5.538  32.864  25.196  0.1765 -0.2419  0.0794
19361W        W62414  26.848  22.277  22.354  0.4112 -0.0781 -0.1573
19362W        W62415  32.196  12.999  15.893  0.0608 -0.3143 -0.0615
19363W        W62416   0.880  12.742  15.267 -0.3219  0.2819 -0.4739
19364W        W62417  22.827  14.673  17.821 -0.3145  0.3845  0.0809
19365W        W62418  14.866  30.927  18.984  0.2551 -0.1838 -0.0752
19366W        W62419  26.475  16.984  20.995  0.0909  0.0245 -0.0877
19367W        W62420  32.797   1.228  19.102 -0.0622  0.0947 -0.3983
19368W        W62421  28.838   6.372  22.961  0.1778 -0.1728  0.1143
19369W        W62422   4.493  20.041  15.476  0.0834 -0.0336 -0.0024
19370W        W62423  27.839  17.834  25.523 -0.0701  0.0070  0.2131
19371W        W62424   4.873  10.952   2.061  0.0464 -0.3124 -0.0484
19372W        W62425  22.145  22.222  19.743 -0.0718 -0.2284  0.1223
19373W        W62426   2.033   1.919   5.445 -0.1750  0.2700  0.0743
19374W        W62427  18.576  25.729  17.313 -0.2372 -0.0547 -0.0850
19375W        W62428   2.924   3.802  22.520  0.1251  0.0210  0.0899
19376W        W62429  21.970   2.136  14.955 -0.0478 -0.1201  0.1223
19377W        W62430  25.875   7.063  20.140 -0.0893  0.1484 -0.1538
19378W        W62431  33.340   4.186  19.945  0.0538  0.1578  0.0916
19379W        W62432  25.110  34.265  24.484  0.1619 -0.1289  0.2154
19380W        W62433   7.735  18.005  24.149  0.0461 -0.3586 -0.0298
19381W        W62434  14.386  23.600  14.608  0.0775  0.0131  0.1785
19382W        W62435  21.468   7.063  18.915  0.3089  0.0709  0.0034
19383W        W62436  10.152   5.725  28.878  0.0191 -0.2685 -0.0136
19384W        W62437  16.509  10.484  19.427 -0.1751  0.2457  0.3478
19385W        W62438   2.002   5.244  22.512 -0.0585 -0.0645  0.0781
19386W        W62439  30.404  25.853  23.597 -0.0849  0.1713 -0.1070
19387W        W62440  31.369   7.432  21.669  0.0772  0.3342 -0.0237
19388W        W62441  26.466  23.608  19.549 -0.0018 -0.0181 -0.2107
19389W        W62442  26.981  23.956  25.672 -0.3085 -0.1771  0.0727
19390W        W62443  32.015   1.075  16.923 -0.0295  0.1479  0.4187
19391W        W62444   0.875   0.335  26.531  0.3652  0.1476  0.0511
19392W        W62445  23.841   3.667  21.686 -0.3808 -0.1546 -0.0903
19393W        W62446   3.330  11.671  15.669 -0.1488  0.3251 -0.0203
19394W        W62447  21.691  28.445  19.578 -0.0923  0.0424  0.0383
19395W        W62448  22.245   0.963  21.826 -0.1802  0.0465 -0.0933
19396W        W62449  19.090  11.899  14.876  0.1127 -0.0111  0.1174
19397W        W62450   8.477  12.167  21.793  0.1645  0.0481 -0.0481
19398W        W62451   0.910   5.195  19.504  0.1659 -0.2221  0.0064
19399W        W62452  28.165  13.775  15.271  0.1731 -0.0904  0.1877
19400W        W62453  26.457  16.773  16.436 -0.1041  0.1592 -0.1076
19401W        W62454  14.930  22.609  21.183  0.1331  0.2110 -0.0888
19402W        W62455  29.104  31.477  15.959 -0.0130 -0.0058 -0.1562
19403W        W62456  10.959  20.886  17.572 -0.3037 -0.1221 -0.0586
19404W        W62457  22.984  12.676  19.597  0.1124 -0.1276 -0.2450
19405W        W62458  21.565   1.934   1.137 -0.1906  0.1304  0.1265
19406W        W62459  29.306   6.331   4.025  0.2246 -0.3010  0.2434
19407W        W62460   9.758  14.760  16.025 -0.4775 -0.3069  0.0757
19408W        W62461  14.870   1.062  26.458 -0.1308  0.1384  0.1548
19409W        W62462   0.658   2.349  28.071 -0.3837 -0.1113  0.1480
19410W        W62463   1.067   5.974  23.372 -0.3111 -0.0213  0.2406
19411W        W62464  25.105  19.589  24.130 -0.1056 -0.1549 -0.0939
19412W        W62465  32.600  19.636   2.116 -0.0293  0.0709  0.0484
19413W        W62466  23.237   5.695  19.619 -0.1468  0.1021 -0.0344
19414W        W62467  25.480  23.781  21.661 -0.3760  0.1390 -0.0390
19415W        W62468  30.311  33.498  17.141  0.0346 -0.3749  0.0795
19416W        W62469   3.400  11.397  19.631 -0.1762  0.0570  0.0522
19417W        W62470   4.602   3.158  23.234  0.0701  0.2885  0.0451
19418W        W62471   3.225   3.453  18.596  0.0864 -0.1004  0.1959
19419W        W62472   6.228  15.228  21.343 -0.1425 -0.0194 -0.2074
19420W        W62473   7.864  19.201   0.447 -0.0060 -0.2337  0.0327
19421W        W62474  26.319   2.254  26.712 -0.0984  0.0114 -0.2578
19422W        W62475  33.133  18.615  15.562 -0.1094 -0.1711  0.2748
19423W        W62476   1.608  33.836  17.542 -0.2022  0.1731  0.0270
19424W        W62477   4.523  20.555   5.230  0.1924 -0.0532  0.2099
19425W        W62478  27.008   1.460  25.431 -0.2521 -0.0827 -0.2487
19426W        W62479  23.921  17.747  28.283  0.0731 -0.2424 -0.3277
19427W        W62480  28.807  26.005  15.955  0.1286 -0.3420 -0.3248
19428W        W62481   3.347   7.635  19.631  0.1841 -0.2128 -0.1793
19429W        W62482  29.856  33.248  28.342  0.1017  0.2669  0.0454
19430W        W62483  20.185   6.271  19.461 -0.1388  0.3043  0.2357
19431W        W62484  22.324  12.104   5.817  0.0425  0.1109 -0.4302
19432W        W62485   0.987   4.485  19.806 -0.1840 -0.0478 -0.0782
19433W        W62486  19.842   9.888   4.401 -0.0730 -0.1799 -0.2401
19434W        W62487  26.385  14.464   2.034 -0.0677  0.0944  0.1820
19435W        W62488  13.578   8.840  18.244 -0.2509  0.1553  0.2764
19436W        W62489  31.654  25.287  16.189  0.0877 -0.0584  0.1371
19437W        W62490   0.800   6.167  22.661 -0.0496 -0.2389  0.0011
19438W        W62491  16.340  34.081  21.076 -0.1935 -0.1695 -0.0514
19439W        W62492   1.408   2.793  14.971 -0.0211 -0.0512 -0.0645
19440W        W62493  13.340  30.689  22.077 -0.0809 -0.0522 -0.1255
19441W        W62494  21.951  14.515  20.108  0.2418 -0.0055  0.4060
19442W        W62495  17.076   4.454   7.068  0.0113  0.0811 -0.0653
19443W        W62496  33.781   1.889   2.904  0.1453 -0.0449  0.1305
19444W        W62497  28.420  11.773  23.689 -0.1873 -0.0546 -0.0478
19445W        W62498   5.509  19.655  19.071 -0.0764 -0.3341  0.1916
19446W        W62499  22.311  22.894  28.771  0.1741 -0.0088  0.1313
19447W        W62500  20.029  12.617  27.691 -0.0181  0.0078 -0.1347
19448W        W62501  29.339  25.684  16.135 -0.0814  0.1578  0.3074
19449W        W62502  25.707   9.926  26.847 -0.0376  0.0731 -0.1791
19450W        W62503  30.990  14.787  25.884 -0.0876 -0.1146 -0.1542
19451W        W62504  26.403  22.599  25.942 -0.2044 -0.1032  0.0244
19452W        W62505   1.885  24.699  28.742 -0.2339 -0.2205 -0.0674
19453W        W62506  24.403   0.199  25.946  0.0113  0.0998 -0.1345
19454W        W62507   6.423   4.188   7.620 -0.0810 -0.1335  0.1405
19455W        W62508  30.579  27.252  18.518 -0.3315  0.0292 -0.0301
19456W        W62509  31.033   4.129  24.159  0.1108 -0.0442  0.0626
19457W        W62510  16.232  13.818  22.805 -0.0896  0.0475  0.4511
19458W        W62511   0.471  10.668  20.050 -0.0082 -0.1866 -0.0776
19459W        W62512  27.444  13.349  14.051 -0.0031  0.1262  0.0077
19460W        W62513  21.524  12.971   1.312  0.1606 -0.0209 -0.0488
19461W        W62514   3.843  10.348   1.007  0.3161  0.1530 -0.0166
19462W        W62515  23.026  19.446  14.498 -0.1630 -0.0530  0.1498
19463W        W62516  27.276  22.184  16.172  0.0109 -0.0700  0.1373
19464W        W62517  30.932  22.710   4.455 -0.0550  0.1000 -0.2409
19465W        W62518  15.565   0.022  23.447  0.2089 -0.1476  0.0317
19466W        W62519  11.664   9.187  16.767  0.0450  0.3765 -0.2164
19467W        W62520  16.342  31.973  19.432 -0.0250  0.1048  0.1762
19468W        W62521  26.991  10.924  19.488  0.1096 -0.0023 -0.3548
19469W        W62522  20.684   8.952  26.249 -0.0581  0.1647 -0.1283
19470W        W62523  13.358   0.848  22.562 -0.0328 -0.1347  0.0089
19471W        W62524  28.023  27.518  15.178 -0.0214 -0.0968 -0.0847
19472W        W62525   0.145  23.859  22.086  0.1765  0.2450  0.0464
19473W        W62526  31.901  16.072  15.484  0.2729 -0.0281 -0.1487
19474W        W62527   9.736  33.423  15.991  0.0639  0.2710  0.1355
19475W        W62528  29.868   3.851  14.828 -0.0438 -0.1773 -0.1962
19476W        W62529  20.668  11.275  19.218  0.2216  0.0921  0.2263
19477W        W62530   2.021  15.200  17.189  0.1108  0.2863 -0.2208
19478W        W62531  27.671  17.699  16.207 -0.2359  0.0421  0.1309
19479W        W62532  22.806   9.277  18.309  0.3681  0.0410  0.1499
19480W        W62533  32.351  11.624  21.579 -0.1675 -0.1196 -0.0837
19481W        W62534  33.853  21.536  15.525 -0.0243 -0.0476 -0.0214
19482W        W62535  31.556  25.254  16.736  0.1478 -0.0206 -0.1542
19483W        W62536  30.430  15.087  15.753 -0.1731 -0.2286 -0.0299
19484W        W62537  23.124  14.553  19.724  0.1007 -0.3969  0.1010
19485W        W62538  30.752  26.756  17.232  0.4464 -0.1682 -0.0499
19486W        W62539  25.270  10.754  26.539  0.0604  0.1365  0.3132
19487W        W62540  32.613  14.313  27.741  0.0831  0.1896 -0.1828
19488W        W62541  18.085   9.903  17.335  0.3075  0.1652  0.3740
19489W        W62542  32.004  12.914  27.234  0.3294 -0.1340  0.1048
19490W        W62543  19.478   9.797  18.547  0.3590 -0.0693 -0.0934
19491W        W62544   5.682  22.749  19.747  0.2726  0.1761  0.2033
19492W        W62545   3.959  21.495  18.946  0.1920 -0.1545 -0.0196
19493W        W62546  25.221  15.101   2.183 -0.1281  0.0672  0.2217
19494W        W62547   8.077  20.990   1.459 -0.0789  0.3272  0.0872
19495W        W62548  23.910  21.945   0.059  0.1574  0.1359  0.0281
19496W        W62549   4.820  10.834  26.821 -0.1777 -0.0209 -0.0204
19497W        W62550  24.229  15.334  13.339 -0.2034  0.0800 -0.0350
19498W        W62551   8.499  18.056  14.450  0.1262  0.1500 -0.0699
19499W        W62552  25.651  21.599  18.490 -0.1806 -0.2348 -0.0587
19500W        W62553  22.827  17.423  22.473 -0.1728 -0.0421  0.0608
19501W        W62554   1.614   2.517  24.235 -0.1720 -0.0017 -0.1608
19502W        W62555   2.677  11.865   5.153  0.0103 -0.2542 -0.1364
19503W        W62556  32.788  10.964  18.124  0.0073  0.0589  0.0156
19504W        W62557   1.922   8.215  17.952 -0.0152 -0.2837  0.1176
19505W        W62558  34.364  11.490  22.117 -0.0261  0.0639  0.1134
19506W        W62559  30.158  25.587  17.198 -0.0910  0.2443  0.0142
19507W        W62560   0.613  15.165  22.029  0.0295  0.1389 -0.2102
19508W        W62561   4.775  17.206  15.997  0.4436 -0.0816  0.2981
19509W        W62562   8.271  11.459  16.420  0.1289 -0.2112 -0.0202
19510W        W62563   8.548   1.085  18.806 -0.0465  0.2018 -0.3274
19511W        W62564  12.640   8.715  20.627  0.2852  0.2640 -0.0340
19512W        W62565  33.548  17.928  28.204 -0.0094  0.2129  0.4434
19513W        W62566  18.636  31.626  21.416 -0.1553 -0.0200  0.0872
19514W        W62567   3.231  13.149  19.456  0.0666  0.2127 -0.0030
19515W        W62568  23.898   3.855  15.712  0.3316 -0.0160 -0.1789
19516W        W62569  20.692   8.417  18.641  0.0683  0.1580  0.0393
19517W        W62570   5.482  19.153  24.852  0.3692 -0.1004  0.1839
19518W        W62571  18.748  16.583  15.500  0.3642 -0.1306 -0.0514
19519W        W62572  24.868   9.392  19.437 -0.1484 -0.0488  0.1111
19520W        W62573   1.703  21.143  19.577 -0.3134  0.0401 -0.1656
19521W        W62574  24.590   1.030   5.714  0.3586 -0.0131  0.0558
19522W        W62575  16.827  27.157  23.281  0.0923  0.2275  0.1019
19523W        W62576  25.586  24.977  19.853 -0.0825  0.2162 -0.1395
19524W        W62577  25.338  10.267  23.573 -0.1824  0.1783 -0.0220
19525W        W62578  20.643   8.010  16.218 -0.0430  0.0990  0.0273
19526W        W62579   1.444  17.782  15.105  0.0026  0.1323 -0.1779
19527W        W62580   2.822  13.655  14.281 -0.2287 -0.0378 -0.0410
19528W        W62581  13.905  11.315  14.529  0.3419  0.2935 -0.3220
19529W        W62582  22.900  11.442  14.396  0.0923 -0.1953 -0.0778
19530W        W62583  32.050   0.757  19.456  0.0638  0.0091  0.0505
19531W        W62584  29.417  24.412  14.335  0.0222  0.5837  0.0932
19532W        W62585   2.700  19.751  16.761  0.0517  0.0271  0.1097
19533W        W62586  29.506  24.154  21.749 -0.4439 -0.1678 -0.1606
19534W        W62587  26.857  28.725  15.984 -0.4044  0.0778  0.1774
19535W        W62588  29.054   9.727  26.875 -0.1131 -0.2202  0.0506
19536W        W62589  11.271   1.922  20.954 -0.0602 -0.1454  0.2399
19537W        W62590  18.620  28.054  15.316 -0.1178  0.1740 -0.1190
19538W        W62591  30.628  32.006  18.100  0.1133  0.1547  0.1124
19539W        W62592  21.500  25.483  19.986  0.0346 -0.0028 -0.4145
19540W        W62593   4.777  32.060  23.571  0.1527 -0.1868 -0.3355
19541W        W62594  18.587   7.039  23.511  0.2660  0.2040 -0.0476
19542W        W62595  22.081   7.585   4.787 -0.3897  0.0419  0.0263
19543W        W62596  33.597  15.648  23.203 -0.2173  0.0185  0.2604
19544W        W62597  23.762  12.357  26.257 -0.0609 -0.0338 -0.0771
19545W        W62598  27.637  12.490  25.595  0.0196  0.1883 -0.1288
19546W        W62599  15.086   0.871  23.032  0.2617 -0.0690  0.2756
19547W        W62600  32.465  13.121  21.355 -0.2610  0.4414 -0.0240
19548W        W62601  25.570   5.596  18.119 -0.2892  0.0484  0.0038
19549W        W62602   6.603  25.568  25.303  0.0466 -0.2047 -0.2003
19550W        W62603  15.206  14.551  16.612  0.0935 -0.4827 -0.0052
19551W        W62604  23.855  25.657  16.167 -0.1216 -0.0629  0.0456
19552W        W62605  30.003   0.390  18.566 -0.0996  0.0069  0.1731
19553W        W62606   8.465   5.401  22.029 -0.0998 -0.0129  0.0230
19554W        W62607  28.085  11.640  17.222  0.0395  0.1537  0.0219
19555W        W62608  25.450   5.140  17.891  0.2465 -0.0514  0.3546
19556W        W62609  28.167  20.995  14.775  0.2785  0.0711 -0.1695
19557W        W62610  24.055  18.918  24.525  0.1989  0.0477 -0.0174
19558W        W62611  24.214  13.237  25.081 -0.1884 -0.1476 -0.1549
19559W        W62612   8.869  23.332  14.211  0.1223  0.0339 -0.0858
19560W        W62613  19.246  21.259  18.358 -0.0835 -0.3144 -0.1740
19561W        W62614  31.555  20.471  17.057 -0.1315  0.1624 -0.1334
19562W        W62615  19.116  20.674  23.026 -0.3218  0.2473 -0.0571
19563W        W62616   9.720  23.799  23.696  0.1451  0.0629 -0.2038
19564W        W62617  10.544   8.323  17.570  0.4467 -0.0807  0.0144
19565W        W62618  33.744  16.886  13.226 -0.2299  0.0823 -0.2094
19566W        W62619   2.914  24.049  22.122 -0.0210 -0.0171  0.1301
19567W        W62620   0.893   2.970  22.499  0.0149 -0.4004 -0.0084
19568W        W62621  30.746   8.351  22.949  0.1876  0.0018 -0.2019
19569W        W62622  20.041  14.583  27.548 -0.0914  0.2334 -0.0373
19570W        W62623  31.286  17.554   3.913 -0.2545 -0.0510  0.2630
19571W        W62624  32.271  32.497  19.110 -0.2347 -0.2414 -0.1867
19572W        W62625   6.169  20.725  20.997  0.1606  0.2274 -0.1281
19573W        W62626  12.639  12.028  24.174  0.2167 -0.2381 -0.2588
19574W        W62627  31.816   4.034  21.463 -0.0161 -0.0115 -0.1952
19575W        W62628  19.979  12.936   2.909  0.0451  0.0440 -0.4218
19576W        W62629  32.109  34.082  17.207  0.2443  0.1543 -0.1675
19577W        W62630  22.578  19.719  24.891  0.1435  0.1492 -0.0638
19578W        W62631  22.223   2.373  22.539 -0.0045 -0.2590 -0.3069
19579W        W62632  34.430   3.965  13.940  0.1000 -0.3646  0.2178
19580W        W62633  22.098  16.827  24.204  0.0890  0.0310  0.1163
19581W        W62634  29.517   0.856  17.142  0.4732 -0.0117  0.2513
19582W        W62635  31.151  19.756  29.104  0.2797  0.0315  0.1212
19583W        W62636  32.590  32.324  24.622  0.0429 -0.1393  0.1775
19584W        W62637  31.841  27.490  18.692 -0.2137  0.0074  0.0698
19585W        W62638  16.515  11.796  28.531 -0.0011 -0.0551  0.0198
19586W        W62639  19.149  10.805   5.491  0.1003 -0.0881 -0.1440
19587W        W62640  27.622   6.233  25.823  0.0522  0.1325 -0.2549
19588W        W62641  29.193   6.742  18.797 -0.3564  0.1226  0.1376
19589W        W62642  23.628  30.427  24.935  0.3215  0.1789  0.1482
19590W        W62643  30.825  21.139  15.900 -0.0138  0.0263 -0.1439
19591W        W62644  26.883  22.718  15.136 -0.0733 -0.1519 -0.2047
19592W        W62645  28.740  14.506  20.130 -0.2467  0.1284  0.3878
19593W        W62646  33.415  21.189  15.014 -0.0333  0.2962  0.0661
19594W        W62647  29.997  16.759  28.956 -0.0061  0.0046 -0.0451
19595W        W62648  26.331  11.284  23.843 -0.0761  0.0985  0.2041
19596W        W62649  32.255  11.248  20.452  0.3102  0.1284  0.0564
19597W        W62650  12.253   2.042  22.569  0.0189  0.0430  0.0328
19598W        W62651  34.548  28.447  28.239 -0.1295 -0.2257 -0.0588
19599W        W62652  28.362   0.235  14.846  0.0920 -0.1991 -0.0423
19600W        W62653  33.441   2.311  14.559 -0.1013 -0.1625  0.0679
19601W        W62654  32.399  31.836  15.987 -0.0061  0.0747  0.0144
19602W        W62655   3.222   6.410  14.522 -0.0368  0.1967 -0.2639
19603W        W62656  12.550   7.700   0.775  0.3853  0.1436 -0.0401
19604W        W62657  33.559  17.749  24.083 -0.1755 -0.1354 -0.3426
19605W        W62658  12.298   8.435  22.124 -0.3893 -0.3378 -0.0699
19606W        W62659  21.076   9.311  15.611 -0.0942  0.2790 -0.2254
19607W        W62660  30.500  20.951   3.796 -0.1191 -0.3058 -0.2476
19608W        W62661  11.162   2.404  18.973 -0.0729  0.1232 -0.0363
19609W        W62662  27.059  11.407  21.342 -0.1288 -0.0918 -0.0196
19610W        W62663   2.431  19.245  19.720 -0.2784  0.4049 -0.3648
19611W        W62664  24.420   9.875   0.331 -0.0139 -0.0308 -0.0890
19612W        W62665  15.127  21.840   2.254  0.0660  0.1185 -0.2072
19613W        W62666  26.983  21.200   4.145 -0.0236 -0.2735  0.0020
19614W        W62667  32.491   9.865  21.874  0.0246  0.1823 -0.1652
19615W        W62668  27.955  24.641  24.402 -0.1312 -0.2673  0.0870
19616W        W62669  30.320  26.624  28.355 -0.1270  0.0565  0.1701
19617W        W62670  32.110  31.662  16.675  0.0551 -0.0024  0.0478
19618W        W62671  32.555  11.048  16.553 -0.2297 -0.3547  0.1345
19619W        W62672  21.545  16.293   4.270 -0.0357 -0.2657 -0.2356
19620W        W62673  19.130   4.905  24.764  0.2076 -0.1274 -0.2825
19621W        W62674  15.714  12.598  24.140 -0.1170  0.1138 -0.1938
19622W        W62675  31.622  18.242  25.172  0.2485  0.1926  0.1463
19623W        W62676  21.381   8.960  28.227  0.0912  0.0860  0.0190
19624W        W62677  23.283  20.880  28.267  0.6300  0.0288 -0.4194
19625W        W62678   0.657   0.049   4.073 -0.1771 -0.2192 -0.4714
19626W        W62679  12.454   3.979  21.196  0.1403 -0.0477 -0.5488
19627W        W62680  12.246  18.729  26.481 -0.2963 -0.1905  0.1084
19628W        W62681  30.699  14.761  14.258 -0.2897  0.1317 -0.0041
19629W        W62682  32.409   1.649   3.314  0.1054 -0.2962 -0.0851
19630W        W62683  22.158  12.749   5.339 -0.0640  0.1513  0.1941
19631W        W62684  34.235   4.075  14.790 -0.2350  0.2917  0.0558
19632W        W62685  28.485  16.472  22.635  0.0041  0.3233  0.0715
19633W        W62686   2.020   0.472  14.353  0.0512  0.1360  0.2663
19634W        W62687   1.347  20.156  16.421  0.1764  0.0010 -0.2919
19635W        W62688  25.048   8.159  15.039  0.1379 -0.2857  0.4115
19636W        W62689   2.085   8.734   4.339 -0.0086 -0.0191 -0.2683
19637W        W62690  23.940  22.033  13.909  0.0155 -0.2908 -0.0456
19638W        W62691  23.663   9.910  23.150  0.0735  0.0879 -0.0634
19639W        W62692  12.441  15.976   1.301 -0.3706  0.2539  0.0106
19640W        W62693  29.093  15.812  15.320 -0.0754 -0.0319  0.4430
19641W        W62694   3.443  14.557  20.990 -0.0016 -0.0373 -0.2637
19642W        W62695  33.188  10.307  29.104  0.0887  0.4093 -0.1967
19643W        W62696  26.745  23.282  15.311 -0.3644 -0.0110  0.0297
19644W        W62697  24.487   7.951  14.600  0.2130  0.0520 -0.3750
19645W        W62698  33.471   4.786  14.725  0.2195 -0.2210  0.0674
19646W        W62699  24.956   0.780  14.317 -0.2207 -0.0193  0.0395
19647W        W62700  34.126  10.643  26.252  0.1778 -0.2607  0.0507
19648W        W62701  28.264  16.808  13.989  0.3258  0.0342 -0.4333
19649W        W62702   3.799   0.410  25.098 -0.1857 -0.2742  0.3584
19650W        W62703  27.435   8.828  23.768 -0.0579  0.2625 -0.1784
19651W        W62704   1.159   3.870  20.998  0.2004 -0.2167  0.0304
19652W        W62705   0.257  16.928  14.756  0.1382  0.2551 -0.0085
19653W        W62706  13.128  27.525  20.489 -0.0919  0.1333 -0.4093
19654W        W62707   1.279  18.574  17.422  0.0329 -0.0484  0.1985
19655W        W62708  31.991   9.562  17.671  0.1472  0.0624 -0.1325
19656W        W62709  33.205  17.598  22.612 -0.5579 -0.0200 -0.1212
19657W        W62710  15.070  13.757  15.289  0.3949 -0.1049 -0.0147
19658W        W62711  12.767   4.095  16.464 -0.2540  0.0051  0.0121
19659W        W62712  15.028  23.040  18.560  0.0066 -0.0114  0.0165
19660W        W62713  12.637  10.316  17.449  0.3589 -0.1354  0.1581
19661W        W62714  24.573  21.359  15.162 -0.0624  0.1428  0.3250
19662W        W62715   5.755  13.331  15.486 -0.0438  0.0030 -0.0804
19663W        W62716   7.617   3.965  21.423  0.0390 -0.0890 -0.3208
19664W        W62717  24.414  11.703  22.075  0.0223 -0.2089 -0.0394
19665W        W62718  30.645   1.025  27.603  0.1571  0.4856  0.1353
19666W        W62719  25.922  12.331  18.162 -0.1017  0.2938 -0.2742
19667W        W62720  31.384  13.167  18.141 -0.0190  0.0168  0.3726
19668W        W62721  19.701   7.501   5.383  0.0592 -0.1326 -0.0851
19669W        W62722   1.394   5.472  24.025 -0.3225 -0.5675 -0.0081
19670W        W62723  27.660  21.840  23.460  0.1032  0.1145 -0.2436
19671W        W62724  26.579  14.064   7.382  0.2417 -0.0767 -0.0200
19672W        W62725  31.734  17.369  15.904 -0.2357 -0.0697  0.0393
19673W        W62726  28.565  28.575  23.670  0.0494 -0.2141  0.0001
19674W        W62727  20.266   8.263  23.544  0.2181  0.0527 -0.2789
19675W        W62728  26.435   5.008  16.904 -0.1050 -0.0123 -0.1471
19676W        W62729  14.359  14.949  23.093 -0.0875  0.0892 -0.1337
19677W        W62730  29.495  23.743  22.139 -0.1699 -0.3709  0.1429
19678W        W62731  31.367  34.547  27.370  0.0225  0.0783  0.1531
19679W        W62732   1.833  29.400  16.942  0.0571  0.1388  0.2441
19680W        W62733  29.903  19.802  14.418 -0.0776 -0.0053  0.1059
19681W        W62734  22.116  33.691   2.843  0.0994 -0.0464 -0.4044
19682W        W62735  17.686  26.248   8.532  0.0239  0.2103  0.1593
19683W        W62736  30.019  24.154  19.155 -0.2311  0.1187  0.1186
19684W        W62737  28.608   0.775  24.974  0.0669  0.1379 -0.0057
19685W        W62738  22.743  29.258   5.189 -0.2642  0.2980 -0.2633
19686W        W62739   6.479  10.631  19.273 -0.4812 -0.0157  0.0313
19687W        W62740  22.740  28.517  19.195  0.4734  0.0329 -0.2878
19688W        W62741  33.872  15.632  21.188  0.1651 -0.0589  0.1419
19689W        W62742  26.710  30.211   1.050 -0.0024  0.2467  0.3576
19690W        W62743   4.486  15.831  28.550 -0.1338 -0.0359  0.4793
19691W        W62744   5.650  18.091  15.251  0.0784 -0.0969 -0.2658
19692W        W62745  32.620  19.525   3.064 -0.0118  0.0573  0.1767
19693W        W62746  28.835  28.020   0.236  0.0195 -0.2628  0.2143
19694W        W62747   2.653  17.605  17.291 -0.3000  0.0002  0.0249
19695W        W62748  12.893  19.997   1.650  0.0939  0.0891 -0.3308
19696W        W62749   5.140   9.649  28.706 -0.2703  0.0035  0.3617
19697W        W62750  24.778  20.273  18.634 -0.0692  0.3187 -0.0197
19698W        W62751  20.750  18.062  24.280 -0.0564  0.2965  0.2304
19699W        W62752   8.548  13.717   2.502  0.1805 -0.2283  0.1369
19700W        W62753  25.673  20.266  20.159  0.3893  0.0084  0.2499
19701W        W62754  32.801   4.737  20.398  0.0930 -0.0626 -0.2042
19702W        W62755   2.270  30.909  24.536  0.1503 -0.0621 -0.1022
19703W        W62756  12.383  17.894  25.608 -0.1150 -0.1369  0.0489
19704W        W62757   3.909  23.802  18.994  0.1548 -0.0232  0.0139
19705W        W62758  32.612  32.759  16.115 -0.1360  0.1214 -0.1437
19706W        W62759  23.292   8.224  21.080  0.0912 -0.0061  0.0895
19707W        W62760  23.897  17.532  16.225  0.1625  0.1778 -0.1425
19708W        W62761  26.415   6.775  26.031 -0.3326  0.1599 -0.1440
19709W        W62762  14.348  14.313  15.922  0.1837  0.0204  0.2459
19710W        W62763  11.447   9.667  21.136  0.0776 -0.3260 -0.1763
19711W        W62764   8.041   5.841  19.144 -0.3066  0.1125  0.3251
19712W        W62765   7.192  11.295  16.236  0.1187 -0.0034 -0.1711
19713W        W62766  27.340  14.028  22.636 -0.3217  0.0633 -0.0607
19714W        W62767  26.322   4.487  19.110  0.0405 -0.1098  0.0576
19715W        W62768   4.166  33.243  25.350 -0.2847 -0.0320 -0.0244
19716W        W62769   7.823   2.500  20.877 -0.3390 -0.3286  0.2020
19717W        W62770  34.283  18.000  28.206  0.0381  0.0588  0.2486
19718W        W62771  17.702   8.481  19.506 -0.3440 -0.0866  0.1137
19719W        W62772  20.884  21.728  22.268 -0.0028  0.2202  0.1365
19720W        W62773   0.103  20.723  28.304 -0.1188 -0.3171  0.1084
19721W        W62774  31.292  32.472  18.911  0.1318  0.1042 -0.0335
19722W        W62775  23.574   8.560  26.076  0.2196 -0.1112  0.0349
19723W        W62776  13.400  22.579  22.306 -0.1160  0.1935 -0.0522
19724W        W62777  29.147  32.513  15.708  0.1617  0.0321  0.1665
19725W        W62778  14.342  32.044   7.958 -0.0906 -0.0865 -0.0567
19726W        W62779   5.039  24.255  26.570  0.3721  0.4583  0.0089
19727W        W62780  29.744  12.311  25.000 -0.0406  0.1347 -0.0501
19728W        W62781  23.350   9.573  21.548 -0.0917 -0.0674  0.1042
19729W        W62782  11.059   1.283  21.633 -0.1222  0.0851  0.2387
19730W        W62783   9.245  34.269  23.751 -0.3427  0.0640  0.0357
19731W        W62784  33.573   5.860  20.327 -0.4663  0.2344  0.2189
19732W        W62785  27.682  15.417   4.541  0.3265  0.3124  0.0712
19733W        W62786  34.390   3.312   3.265  0.3639 -0.1623  0.1261
19734W        W62787  26.666  21.035  18.986  0.1707 -0.2917  0.1050
19735W        W62788  15.025  24.292  15.641 -0.0424  0.0329  0.0062
19736W        W62789   8.084   9.161  14.408 -0.1485  0.1082  0.0689
19737W        W62790   2.795  15.948  13.947  0.1697  0.0736  0.1736
19738W        W62791  18.561  25.030  23.126  0.0079 -0.3261 -0.1364
19739W        W62792   7.594   8.890  19.902  0.1290  0.1064 -0.3723
19740W        W62793   9.388  13.187  17.910 -0.1047 -0.2696 -0.2056
19741W        W62794  20.000  28.419  15.121  0.1668  0.2796  0.1553
19742W        W62795  28.410   9.393  19.610  0.4018 -0.1300  0.0869
19743W        W62796  26.112  17.693   3.209 -0.0124 -0.0568 -0.2456
19744W        W62797  27.655   4.564  23.606 -0.1272  0.2374 -0.2105
19745W        W62798  24.792  29.201  22.541 -0.0069 -0.1513 -0.1272
19746W        W62799   1.591  30.939  20.689  0.1373 -0.0190  0.0487
19747W        W62800  21.550  29.308   2.852  0.0789 -0.0113 -0.3131
19748W        W62801  22.068  18.449  19.112  0.0836  0.3181  0.2312
19749W        W62802  23.134   4.627  19.572  0.1680  0.2751  0.0456
19750W        W62803   7.593  10.898  20.019  0.1166 -0.0053 -0.1697
19751W        W62804   9.310   6.352  19.720  0.0780  0.2041  0.1307
19752W        W62805   6.638  17.019  22.885 -0.5099 -0.3669  0.0808
19753W        W62806   9.374   6.250  26.357 -0.0958 -0.0019 -0.0444
19754W        W62807  16.323   9.153  17.364 -0.0528  0.0142  0.0040
19755W        W62808   6.207   6.821   5.594 -0.0266 -0.3137 -0.2193
19756W        W62809  24.928  13.913   2.676  0.0475 -0.0613  0.0331
19757W        W62810   2.845  17.525  19.047 -0.1165  0.0548  0.1493
19758W        W62811  31.261  10.404   2.519  0.0911  0.1660 -0.2521
19759W        W62812   1.395  23.915  18.091  0.2794  0.2293  0.2158
19760W        W62813  28.400  13.261  20.764 -0.1185  0.0566  0.2672
19761W        W62814  29.686   6.601  26.268 -0.1851  0.0780 -0.2302
19762W        W62815  18.236  29.271  27.281  0.2209  0.0903 -0.0194
19763W        W62816  28.656   9.241   1.080  0.1388  0.0329  0.0796
19764W        W62817  27.305  14.037  14.617  0.1539 -0.0317 -0.2333
19765W        W62818  22.066  33.707  25.744  0.2902  0.3476  0.1755
19766W        W62819  28.397  22.774  19.258 -0.0627  0.0314  0.0049
19767W        W62820  31.214  24.147  21.846  0.1539 -0.0082  0.4430
19768W        W62821  11.560  21.378   1.693 -0.1751 -0.0924 -0.0216
19769W        W62822  11.487  26.861  25.811 -0.0506 -0.2254 -0.4580
19770W        W62823  27.211   6.569  20.890 -0.3269  0.0028 -0.2143
19771W        W62824   1.219  21.853  29.049  0.0131  0.4315  0.0886
19772W        W62825  29.955   6.461  16.907  0.3782  0.1289 -0.0465
19773W        W62826  33.437  18.236  14.087  0.0516  0.1089  0.2001
19774W        W62827  11.579  32.697  22.335 -0.1719  0.0208  0.2016
19775W        W62828  30.170  30.125  18.705  0.1860 -0.2052 -0.0657
19776W        W62829  28.849  14.732  29.078  0.1502  0.4904 -0.0526
19777W        W62830  26.758  10.807  14.461  0.0390 -0.0634  0.1155
19778W        W62831   8.128  16.257  19.902 -0.2530  0.2733 -0.3389
19779W        W62832  34.041  10.265   5.436 -0.0537 -0.1624  0.1070
19780W        W62833  28.395  25.368  17.763 -0.0024 -0.1662 -0.0773
19781W        W62834  16.205   2.386   2.207 -0.2048 -0.0010 -0.3049
19782W        W62835  26.311  14.750  28.235 -0.1463 -0.0436  0.0568
19783W        W62836  18.568  28.967  19.361 -0.1012  0.0939  0.3000
19784W        W62837  11.443   5.623  23.584  0.1295  0.0907  0.2464
19785W        W62838   0.518  27.494  20.503  0.3175  0.2230  0.0231
19786W        W62839   1.606   3.516  27.060 -0.2316 -0.1958  0.3201
19787W        W62840  28.049  24.561   2.252  0.1535  0.0712  0.3846
19788W        W62841  21.556  32.365  17.444  0.3775 -0.0757 -0.2866
19789W        W62842  25.805  17.057  23.763  0.1240 -0.0380 -0.3197
19790W        W62843  18.633  16.348   1.540 -0.1529  0.0144 -0.3569
19791W        W62844  18.958   6.236  19.290 -0.1790 -0.3211  0.1146
19792W        W62845   6.486   1.079  22.730 -0.0429  0.1723 -0.0243
19793W        W62846   6.751  21.404  19.512  0.2302  0.0772  0.1144
19794W        W62847  22.085  12.648  24.436  0.0330 -0.3678  0.0911
19795W        W62848  28.764  34.469  18.397 -0.0800  0.0436 -0.0394
19796W        W62849  33.723  11.475  14.816  0.2181  0.2498  0.0114
19797W        W62850  15.105  15.158  22.253 -0.3352  0.2641  0.2745
19798W        W62851  32.152  21.388  25.801  0.0835  0.3350 -0.0915
19799W        W62852   9.534  14.332  15.725  0.3271  0.1327  0.0207
19800W        W62853  27.720  20.883  17.871 -0.4605 -0.2824  0.0952
19801W        W62854  14.000  10.878  27.086  0.2668  0.2623 -0.0382
19802W        W62855  21.165  18.728  18.230  0.2135  0.0453 -0.0727
19803W        W62856  27.227  13.157  14.858  0.2228  0.3044 -0.1863
19804W        W62857   1.620   8.308  14.770 -0.1291  0.2846  0.0748
19805W        W62858  22.977  11.236  21.531 -0.0373 -0.0982  0.1031
19806W        W62859  24.850  17.327  23.755 -0.0651 -0.1985  0.0043
19807W        W62860   9.162  11.346  21.852  0.2145 -0.1325  0.1647
19808W        W62861   7.266  15.159  21.699 -0.1557  0.0708  0.2899
19809W        W62862  26.298  21.255  22.880 -0.0031  0.0603  0.0769
19810W        W62863  17.197   0.845   0.705 -0.1247  0.5613 -0.0939
19811W        W62864  31.315  18.254  26.227 -0.0868 -0.1942 -0.1916
19812W        W62865  16.398   3.794  16.420 -0.2214  0.1126 -0.0637
19813W        W62866  31.035   7.937  18.450 -0.0235 -0.2591  0.0152
19814W        W62867  22.057  16.247  14.758  0.0502  0.1634  0.0159
19815W        W62868  11.210  26.864  17.186  0.1318  0.0613  0.0608
19816W        W62869   1.783  15.692  18.094  0.3188 -0.0059 -0.1993
19817W        W62870  27.202  25.899  19.808 -0.0358  0.0978  0.0147
19818W        W62871  13.022   4.437  15.374  0.0879  0.0126  0.1863
19819W        W62872   9.689  29.576  20.727  0.0674 -0.2086  0.1886
19820W        W62873  19.452  16.689   2.495  0.2948  0.2424  0.2046
19821W        W62874  20.390  24.821   1.600 -0.0387 -0.2207  0.0034
19822W        W62875  32.735   4.419  14.162 -0.1151 -0.0416  0.1535
19823W        W62876  33.662  12.250  16.737  0.1972 -0.1679  0.2600
19824W        W62877  26.937  11.728  28.961  0.0218 -0.0659  0.0082
19825W        W62878  12.456  14.878  27.403 -0.0938  0.1855 -0.1597
19826W        W62879   6.551  13.211   1.671  0.1367 -0.1411  0.1250
19827W        W62880  27.913  17.383  18.654 -0.0362  0.1948  0.4184
19828W        W62881  25.977  13.324  19.863 -0.0321 -0.1521 -0.1419
19829W        W62882  30.037  14.652   5.043 -0.2074 -0.1394 -0.1531
19830W        W62883  21.225  11.443   6.330  0.0993 -0.1036  0.1533
19831W        W62884  28.273  34.028  26.158  0.0694 -0.3455 -0.0083
19832W        W62885  33.736  20.042  15.815 -0.0140 -0.1146  0.3983
19833W        W62886  23.235  29.982  16.241  0.3993 -0.3986 -0.0249
19834W        W62887  25.419   1.788  13.568  0.5012 -0.1411 -0.0717
19835W        W62888  14.900  10.283  22.885  0.2115 -0.0103  0.5451
19836W        W62889   9.062  12.917  19.415 -0.1858  0.0304 -0.2708
19837W        W62890  26.363   2.719  26.540  0.1060 -0.1855 -0.0025
19838W        W62891   0.956   5.191  15.673 -0.2767 -0.0247  0.2867
19839W        W62892  34.542   3.048  13.396 -0.2108  0.1845 -0.0402
19840W        W62893   7.663  12.100  17.255 -0.0805  0.3314  0.0837
19841W        W62894  26.704   7.933  23.847  0.2117 -0.1522  0.3362
19842W        W62895   6.681  16.778  25.365  0.2419  0.0639 -0.1556
19843W        W62896  27.111  11.364  19.325 -0.2250  0.1347  0.4582
19844W        W62897  30.024  22.118  14.590  0.1643  0.0393  0.1224
19845W        W62898  26.736   0.163  19.053  0.3554 -0.1693  0.1624
19846W        W62899  13.050   7.991  21.342 -0.0103  0.0316  0.2634
19847W        W62900  32.904  18.208  19.676  0.1941  0.0673  0.0715
19848W        W62901  23.009  10.349  27.207 -0.2085  0.2695 -0.0801
19849W        W62902  16.957  25.567  25.426  0.1270 -0.2011 -0.1366
19850W        W62903  13.194  15.562  16.775 -0.0454  0.1471  0.0411
19851W        W62904  25.012  15.673  26.033 -0.3092 -0.0690 -0.2327
19852W        W62905   4.727  21.519   6.888 -0.1121  0.0849  0.4583
19853W        W62906  28.332   4.555  15.500 -0.0186 -0.3725  0.0108
19854W        W62907  19.347   5.718  21.757  0.1066  0.5004 -0.0220
19855W        W62908  32.502   6.001  20.979 -0.0499 -0.0570  0.2700
19856W        W62909  18.323  20.203  15.927  0.1736 -0.0863  0.0176
19857W        W62910  31.915  18.219  13.393 -0.1375  0.1101  0.0751
19858W        W62911  30.626   0.361  20.031  0.0624 -0.0247 -0.0989
19859W        W62912  27.318  32.018  21.735 -0.1845 -0.2593 -0.0372
19860W        W62913   1.487   6.743  20.208 -0.0165 -0.1371  0.1004
19861W        W62914  10.545  10.881  25.035 -0.0593  0.1488  0.0073
19862W        W62915   4.678   4.355  22.977  0.2203 -0.1648  0.0121
19863W        W62916  29.884  17.724  21.282  0.3009  0.1356 -0.1742
19864W        W62917  26.314  16.680   1.844 -0.0033 -0.0045 -0.1583
19865W        W62918  27.702  26.326  27.425 -0.1062 -0.0329 -0.2581
19866W        W62919  14.548  12.901   1.942 -0.0022 -0.2217 -0.4129
19867W        W62920   8.332  12.108  25.948  0.0208 -0.2875  0.0841
19868W        W62921  27.262  11.351  18.268 -0.1657 -0.0747  0.0227
19869W        W62922  22.434   3.658   1.608 -0.0914 -0.0644 -0.0201
19870W        W62923  14.320   4.703  19.392  0.1810 -0.1358  0.0540
19871W        W62924  15.321  21.196  15.462  0.0495 -0.0341 -0.3283
19872W        W62925   8.781   7.703  25.522 -0.0629 -0.1509 -0.0287
19873W        W62926  25.969  12.767  14.328 -0.3358  0.3329  0.1752
19874W        W62927  30.034  16.840  19.978 -0.0669  0.2440 -0.0230
19875W        W62928   3.004  20.427   0.638 -0.2291  0.2712  0.0265
19876W        W62929   3.107  11.347  23.280 -0.1007  0.0727 -0.1904
19877W        W62930   9.502  14.162  25.591 -0.1448  0.2176  0.2994
19878W        W62931  33.019  23.124  21.885  0.2540  0.1240 -0.1455
19879W        W62932  24.659  10.168  27.554  0.1312 -0.2002  0.0539
19880W        W62933  26.278  10.922  19.384  0.1866 -0.3015 -0.1909
19881W        W62934  12.252  27.657   2.376  0.2567  0.1176  0.0232
19882W        W62935   5.042   3.482   3.665  0.2622 -0.1354  0.0205
19883W        W62936  25.153  22.573  18.180 -0.1122 -0.3791 -0.1368
19884W        W62937  24.979   3.013  24.480  0.0183 -0.2308  0.0458
19885W        W62938   1.141  27.479  17.870 -0.1698  0.1574  0.0924
19886W        W62939  23.025  12.643   4.203  0.0534  0.1030 -0.0361
19887W        W62940  24.402  24.903   3.501 -0.4126 -0.0871  0.0141
19888W        W62941  22.898   0.239  20.189  0.0036  0.0889  0.1608
19889W        W62942  29.200  31.362  18.533  0.0638  0.0868  0.3751
19890W        W62943  20.790   7.264  21.577  0.0171  0.0916  0.1928
19891W        W62944  33.988   1.030  23.731  0.0356 -0.1054 -0.2014
19892W        W62945  30.184   9.793  20.579 -0.1678 -0.0926 -0.5301
19893W        W62946   9.516  14.847  21.341  0.2557 -0.1318  0.0423
19894W        W62947  14.354   7.644  17.484  0.1824  0.1300  0.2840
19895W        W62948  22.626  27.861  15.371 -0.5503 -0.1489 -0.0579
19896W        W62949  21.549  20.884  20.505  0.2845  0.1758 -0.1326
19897W        W62950  19.635  21.228  24.769  0.2858 -0.0298 -0.2229
19898W        W62951  20.259  23.610  24.875  0.0127 -0.1291  0.0892
19899W        W62952   6.014  10.773   4.830 -0.3232  0.3478  0.2904
19900W        W62953  12.989   1.892  14.483 -0.5625 -0.4068  0.0543
19901W        W62954   2.328  34.447  23.167  0.1168  0.1008  0.1377
19902W        W62955  20.643   6.016  19.493 -0.5428  0.0148 -0.3080
19903W        W62956  24.071  18.301  25.205  0.0774 -0.0743  0.2660
19904W        W62957   1.501  17.409  14.686  0.2185  0.2068  0.1783
19905W        W62958  32.341  27.443  28.144 -0.2717 -0.1380 -0.0239
19906W        W62959   2.778   2.996  15.462  0.1298  0.1311 -0.2674
19907W        W62960  15.117  11.203  22.350  0.0303 -0.0797  0.1216
19908W        W62961   2.379   8.417  14.855 -0.3901  0.0465 -0.0651
19909W        W62962   1.489   7.829  17.926  0.3105 -0.3463  0.1465
19910W        W62963   8.661  10.615  23.190  0.0515 -0.0607  0.1517
19911W        W62964   5.316  32.892  14.145  0.0415  0.2087 -0.2149
19912W        W62965  27.892  19.608  17.641 -0.1570  0.0526 -0.2090
19913W        W62966  28.526  18.261  17.718 -0.1452 -0.2029  0.2236
19914W        W62967   1.019  26.011   1.441 -0.1913 -0.2531 -0.2510
19915W        W62968  28.443   2.019  18.327  0.1082 -0.1771  0.0522
19916W        W62969  31.672  17.224   4.546 -0.2115  0.0250  0.1128
19917W        W62970   0.733  30.747  21.104 -0.0958 -0.1442 -0.4296
19918W        W62971   6.371  33.210  26.033  0.2629 -0.1179  0.0599
19919W        W62972  29.849  33.901  20.181  0.0398  0.1901 -0.0579
19920W        W62973  34.424  26.848   2.121  0.4610 -0.0466  0.0596
19921W        W62974  15.258  30.405  15.250 -0.1998 -0.0929 -0.0538
19922W        W62975  31.248  20.750   0.104  0.1652  0.0216 -0.1141
19923W        W62976  18.673  10.996  21.626 -0.1869  0.2356  0.1953
19924W        W62977   0.631   8.047  19.256 -0.0533  0.1697 -0.0516
19925W        W62978  31.570  20.307  15.677  0.0015 -0.1176  0.0805
19926W        W62979   0.718   9.695  24.703 -0.1385  0.0596 -0.1145
19927W        W62980   7.774  14.832  20.896 -0.2779  0.0638  0.3617
19928W        W62981  26.170  23.202  21.527  0.2196 -0.1131  0.0194
19929W        W62982  20.376   1.867  16.351  0.0984 -0.1842 -0.2750
19930W        W62983  23.686  15.912   3.825  0.0585 -0.1902  0.1415
19931W        W62984  30.101   2.177  22.244 -0.1940 -0.1677  0.1213
19932W        W62985  31.820  33.324  17.701 -0.0572  0.2956 -0.1136
19933W        W62986  22.092  30.521  27.092 -0.0813 -0.6237  0.1806
19934W        W62987  10.356   7.883  17.947  0.1224  0.1470 -0.0109
19935W        W62988   7.046   8.090  20.832  0.0002  0.0203 -0.2783
19936W        W62989   4.535  21.695  22.805  0.3237  0.0853  0.1314
19937W        W62990  28.601   8.308  15.312 -0.0508 -0.4225  0.2508
19938W        W62991  20.170   7.663  16.040  0.0381 -0.0571 -0.0409
19939W        W62992  12.051  10.155  17.449 -0.1333  0.0026 -0.2051
19940W        W62993  23.949  20.711  23.964 -0.1904  0.2510  0.3113
19941W        W62994   7.048  26.215   6.455 -0.0372  0.0087 -0.0809
19942W        W62995  27.632  11.069  16.674 -0.0730  0.0478  0.1945
19943W        W62996  29.033  23.359  15.643 -0.2191  0.0040 -0.0127
19944W        W62997  17.481   3.371  17.601 -0.0290  0.0893  0.2683
19945W        W62998  24.987  12.530  27.319 -0.2714 -0.2166  0.0715
19946W        W62999  28.933  15.690  17.740  0.3017  0.0360  0.0453
19947W        W63000  29.316  23.524  28.363  0.3395 -0.3627 -0.0348
19948W        W63001  29.855  22.374   1.895 -0.0268  0.2024 -0.1978
19949W        W63002  29.940  12.591  26.959 -0.0829 -0.1242 -0.1674
19950W        W63003  24.405  29.370  23.760  0.2646 -0.1287 -0.2505
19951W        W63004  25.619  13.924  20.642  0.1544 -0.1888 -0.2312
19952W        W63005   7.929  34.024  19.708 -0.3963 -0.0779  0.1258
19953W        W63006  26.648  14.000   2.201  0.2627 -0.0623 -0.0981
19954W        W63007   2.748  14.384  17.745 -0.1017  0.0363  0.1547
19955W        W63008  33.539  19.420  22.703  0.0693 -0.0716 -0.1250
19956W        W63009  15.448  13.901  17.372  0.0372 -0.0113  0.1887
19957W        W63010  18.218  31.566  17.299 -0.0293 -0.0772  0.2161
19958W        W63011  26.990   3.229  19.820  0.0183 -0.1879 -0.0736
19959W        W63012   1.460   9.059  15.961  0.1367 -0.0380  0.0219
19960W        W63013  27.690  22.959  14.821  0.2056  0.0382  0.2454
19961W        W63014  28.694  25.151  22.114 -0.1711 -0.0622  0.1673
19962W        W63015  31.794  30.854  22.331  0.4425 -0.0301 -0.0736
19963W        W63016   0.213  12.930  16.573 -0.2779  0.0292  0.2164
19964W        W63017  33.579   4.118  27.011  0.0529 -0.0293  0.1367
19965W        W63018   7.943  26.164  21.859  0.0146 -0.0512  0.1310
19966W        W63019   8.722  20.302  22.384 -0.1352  0.0291 -0.1505
19967W        W63020  18.020   7.528  24.821  0.3192 -0.0969 -0.1252
19968W        W63021   7.976  21.380  25.209 -0.2814  0.2210  0.0037
19969W        W63022  14.128   2.505  14.872  0.1087  0.0429 -0.0220
19970W        W63023  30.051  21.560  14.659 -0.0221  0.0176 -0.0060
19971W        W63024  27.662  13.693  15.076  0.3673  0.2415  0.1331
19972W        W63025  29.328  19.034   3.821  0.0259 -0.2052  0.0460
19973W        W63026  30.828  21.025  14.333 -0.2407 -0.0569 -0.0720
19974W        W63027  17.061  20.602  24.562  0.1309  0.1155  0.1880
19975W        W63028   2.282  21.490   8.066  0.0589  0.0459  0.2188
19976W        W63029  14.822   5.866  20.040 -0.0037 -0.3820 -0.0614
19977W        W63030  21.084  19.550  13.743 -0.2403 -0.0211 -0.1147
19978W        W63031  10.962  12.262  23.047  0.1524  0.4928  0.0394
19979W        W63032  15.010   6.760  20.323 -0.0838  0.0521 -0.1138
19980W        W63033  22.468  12.484  15.457  0.0756 -0.1150  0.0199
19981W        W63034  31.505  11.046  18.819  0.1114  0.0329  0.0409
19982W        W63035  32.787   1.916   4.219 -0.0325 -0.1407 -0.2485
19983W        W63036  20.009   9.682  24.722  0.1799 -0.2636 -0.0852
19984W        W63037   1.022  17.030  17.789  0.1410 -0.1836  0.1749
19985W        W63038  16.678   5.892   0.027  0.0884 -0.0361  0.0672
19986W        W63039  32.760  23.355  25.198 -0.2244 -0.0009  0.0500
19987W        W63040  26.889  32.898  17.536  0.0400  0.1681 -0.1129
19988W        W63041   2.385  25.789  26.391 -0.0063 -0.3678 -0.3858
19989W        W63042  12.902   9.553  23.221 -0.0082  0.1410  0.0668
19990W        W63043  21.123  14.769  27.370 -0.3395  0.1295 -0.0234
19991W        W63044  26.184  21.577  16.548  0.2026  0.0242 -0.1181
19992W        W63045  32.850   4.885  18.549  0.0572 -0.2223  0.2068
19993W        W63046  14.139  10.900  20.362 -0.2618 -0.4755  0.3321
19994W        W63047   0.957   1.442  14.883  0.0385  0.1950 -0.2451
19995W        W63048  28.316  19.134  20.224 -0.1858 -0.4853 -0.1439
19996W        W63049  25.712  33.040  16.418 -0.5390  0.2155 -0.2848
19997W        W63050  33.416  19.253  16.012  0.0759 -0.4501  0.0970
19998W        W63051  15.742  26.074   0.692  0.0284 -0.0329 -0.2427
19999W        W63052  23.209  32.338  18.530  0.0468  0.1065  0.0591
20000W        W63053  22.374   9.010  23.886  0.1399 -0.0791 -0.1508
20001W        W63054   4.687   6.700   1.235 -0.2441 -0.0166  0.0229
20002W        W63055  11.322  18.797  25.030 -0.1224 -0.2146 -0.0885
20003W        W63056  23.161  22.226   7.852 -0.1143 -0.2568 -0.1721
20004W        W63057   3.564   6.965   4.702 -0.1259  0.1519 -0.2853
20005W        W63058  33.327  10.350  24.738  0.3575 -0.2123 -0.1090
20006W        W63059   1.367  27.329  18.339 -0.1293 -0.1777  0.2767
20007W        W63060  21.883  32.144  17.876 -0.1488  0.0287 -0.0167
20008W        W63061   1.250   9.199   5.677  0.2120  0.2913 -0.1532
20009W        W63062   2.828  17.095   1.931 -0.0731  0.2197  0.0056
20010W        W63063  26.236  13.487  17.383 -0.0837  0.0366  0.0142
20011W        W63064  17.913  11.203  25.275 -0.1425  0.0204 -0.0963
20012W        W63065  20.183  10.201   4.085 -0.1273  0.1437  0.0813
20013W        W63066  15.127  20.140  22.784  0.1473  0.1992  0.1609
20014W        W63067  33.817  17.845  19.556 -0.1558 -0.2114  0.1895
20015W        W63068  24.844  25.611   3.121 -0.0762  0.0795 -0.0156
20016W        W63069  21.237  20.217  17.610 -0.0179 -0.1600 -0.0865
20017W        W63070  31.921  29.850  18.522 -0.1434  0.2798  0.2153
20018W        W63071   2.521  10.739  20.622  0.0730  0.1788  0.0656
20019W        W63072  11.974  25.191  17.682 -0.1315 -0.1040 -0.3858
20020W        W63073   5.773  12.720  19.178 -0.2280 -0.0722  0.1050
20021W        W63074  27.925  16.178  23.584 -0.1328 -0.1333  0.4517
20022W        W63075  32.535  20.769  14.865 -0.1243 -0.3216  0.0204
20023W        W63076   0.291  28.278  18.701 -0.2620  0.0180  0.0939
20024W        W63077  24.823  14.356  16.769 -0.1303  0.0060 -0.1439
20025W        W63078   1.858   1.173  15.932 -0.1794 -0.0037 -0.1213
20026W        W63079  24.864  33.888  16.883 -0.2563 -0.0277 -0.0447
20027W        W63080  30.757   5.096  19.712 -0.1841 -0.1978 -0.1812
20028W        W63081  29.853  21.848  18.455  0.0772  0.0367  0.0525
20029W        W63082  22.798  30.954  23.703 -0.1551 -0.0243 -0.0099
20030W        W63083   0.080  11.262  16.291  0.1079  0.0175 -0.1657
20031W        W63084  21.256  22.977  18.815  0.0948 -0.2688 -0.1183
20032W        W63085  30.906  15.930  15.624  0.4089  0.1303  0.0864
20033W        W63086  23.552  15.998  21.199 -0.1171  0.1504 -0.0432
20034W        W63087   3.392  28.267  14.090 -0.3363 -0.1288 -0.0396
20035W        W63088  34.254   9.879  23.547 -0.0843  0.1336  0.0755
20036W        W63089  32.424   0.646  24.908  0.1536  0.1453  0.1089
20037W        W63090  26.043  33.200  28.718  0.1233 -0.0669  0.2010
20038W        W63091   1.341   9.567  27.593  0.1576 -0.0282  0.4410
20039W        W63092  15.869   2.944   2.663 -0.0441 -0.2559 -0.5804
20040W        W63093   3.648  13.145  15.327 -0.0294  0.0859 -0.0739
20041W        W63094   4.050   5.279   5.972  0.0976 -0.0430  0.0110
20042W        W63095  25.248  19.036  24.792 -0.4557 -0.1116  0.1018
20043W        W63096  13.680  22.950   0.375 -0.0477  0.2315  0.1659
20044W        W63097  31.977   7.075  14.921  0.1091  0.0061  0.1803
20045W        W63098  16.866  33.038  16.495  0.0209 -0.0640  0.1483
20046W        W63099   0.245   9.792  28.286  0.1984 -0.0759  0.3519
20047W        W63100  14.637   6.097  25.831  0.1084  0.1340  0.1885
20048W        W63101  10.148   8.319  20.580  0.1536 -0.1453  0.0319
20049W        W63102  28.103  11.652  27.350  0.1425  0.2003  0.1666
20050W        W63103  26.840  11.741  18.557 -0.2636 -0.0475 -0.1327
20051W        W63104  23.404  19.511  23.651  0.1243 -0.3079 -0.2134
20052W        W63105   7.397  11.539  22.493 -0.3174 -0.1690 -0.0158
20053W        W63106  30.485  26.585  20.536  0.0415 -0.1371  0.0438
20054W        W63107  29.754  34.296  14.775 -0.1965 -0.1102 -0.0810
20055W        W63108   2.229   5.869  26.706 -0.0663  0.1787  0.0114
20056W        W63109  31.140  17.868  24.628 -0.1292 -0.1419  0.1706
20057W        W63110  10.344  23.736  26.577 -0.3808 -0.1106  0.0761
20058W        W63111  24.200  13.399   0.271 -0.0432 -0.2256  0.3762
20059W        W63112  32.263  22.589  20.080  0.0735 -0.0687  0.2041
20060W        W63113  13.821  23.603  18.120 -0.1858  0.3794 -0.3537
20061W        W63114  23.557  10.449  20.420 -0.2797  0.0631 -0.0122
20062W        W63115  32.523  12.650   1.066  0.0691  0.1671  0.1597
20063W        W63116  32.088  28.267  25.668  0.4067  0.3167  0.1949
20064W        W63117  17.769  11.385   8.142 -0.0607 -0.0696 -0.2340
20065W        W63118  23.263  29.180  19.458 -0.0354 -0.0398 -0.3531
20066W        W63119  18.619  13.653  23.882  0.3231  0.0395  0.0167
20067W        W63120   3.228  20.806  26.534 -0.0583  0.0291 -0.2109
20068W        W63121  30.726  21.681  21.316 -0.1402  0.0233  0.1455
20069W        W63122   2.740   0.938  20.276  0.1732 -0.0927  0.2403
20070W        W63123  29.284  25.976  24.067 -0.3002  0.3287 -0.1355
20071W        W63124   0.065  12.251  16.284  0.1901  0.0802  0.0756
20072W        W63125  28.792   8.656   7.317  0.0590 -0.1483 -0.2808
20073W        W63126   0.483  18.842  15.596 -0.0638 -0.0454  0.0986
20074W        W63127  11.037  31.904   8.133 -0.0993 -0.1847 -0.0169
20075W        W63128  26.379  15.163   1.578 -0.0645 -0.0761  0.0991
20076W        W63129   7.426  15.422  28.650  0.0228 -0.2839 -0.4941
20077W        W63130  25.683  18.273  21.660 -0.0110 -0.0409  0.0056
20078W        W63131  34.146  33.010  21.040  0.2406  0.4299  0.0075
20079W        W63132   6.601  15.893  22.652 -0.1088 -0.1147  0.1068
20080W        W63133  25.156  21.419  21.380  0.1247 -0.3485 -0.2583
20081W        W63134  25.981   7.812  18.183 -0.0593  0.2170 -0.2327
20082W        W63135  24.777  33.070  25.865 -0.0529  0.0594  0.0751
20083W        W63136  31.860   7.097  21.547 -0.2299 -0.0100  0.0008
20084W        W63137   1.196  11.668  16.235  0.1209  0.1469  0.0821
20085W        W63138  11.987  14.215   3.909 -0.0121  0.1092  0.2046
20086W        W63139   2.547  32.756  17.413  0.4378  0.0222 -0.1085
20087W        W63140  31.329  20.020  18.042  0.2046  0.2046  0.2730
20088W        W63141  13.032  10.507  17.709 -0.0310  0.4924 -0.0769
20089W        W63142  34.122   6.612   4.456  0.1359  0.2473  0.0893
20090W        W63143  10.048   3.671  22.731  0.1053  0.1392 -0.0771
20091W        W63144  13.593   7.156   0.169 -0.3589  0.1132 -0.3005
20092W        W63145  21.519   5.757  28.300  0.2361  0.2047 -0.4089
20093W        W63146  19.264   8.348  22.773 -0.5761 -0.0781 -0.0527
20094W        W63147  24.251   7.876  27.622  0.1152  0.1563  0.1130
20095W        W63148  28.460   8.808  18.289  0.1440  0.2390  0.2431
20096W        W63149   7.969  24.756  15.698  0.2813 -0.4359 -0.1417
20097W        W63150  24.716   9.858  19.665  0.1315  0.1675 -0.0501
20098W        W63151  31.826   9.676   3.597 -0.2543 -0.3215  0.2276
20099W        W63152  22.329   8.711  17.099  0.2217 -0.0286 -0.0900
20100W        W63153   3.146  18.626  16.409  0.1139 -0.1106 -0.2512
20101W        W63154  24.750   0.359  24.096 -0.2975  0.1310  0.0144
20102W        W63155  19.509  32.893   0.942 -0.0845  0.1621 -0.1750
20103W        W63156  28.181  14.784  24.157  0.1271 -0.0351  0.0534
20104W        W63157   1.133  27.368  20.968 -0.0215  0.1932 -0.1492
20105W        W63158  24.555  13.192  24.719 -0.0525 -0.1128 -0.0301
20106W        W63159  30.380  23.577  19.863 -0.1244 -0.3479 -0.1994
20107W        W63160  19.614  11.823  18.927 -0.2453 -0.2511 -0.3151
20108W        W63161  29.778   9.672  18.821 -0.4073 -0.1770 -0.3240
20109W        W63162  31.109   7.840   6.692 -0.0839  0.2153  0.1014
20110W        W63163   2.758  20.023  25.279  0.1260  0.1791  0.0299
20111W        W63164  13.295  29.647   0.988 -0.1778  0.1395  0.1895
20112W        W63165  22.123  21.443  14.150  0.0957  0.3797 -0.1469
20113W        W63166  30.335  29.500  24.380  0.0816  0.0564  0.3861
20114W        W63167  15.239  10.695  17.438  0.3062  0.0001  0.2532
20115W        W63168  31.000  10.323  17.087 -0.1685 -0.0773 -0.1452
20116W        W63169  22.661  16.316  21.318 -0.0571  0.0554  0.4466
20117W        W63170  26.625   9.780   0.261  0.3583 -0.0536  0.2500
20118W        W63171  21.381   4.102  28.596 -0.2946 -0.1607  0.0264
20119W        W63172   6.894   3.579   0.476  0.0427  0.0095  0.3387
20120W        W63173  20.256  16.085   9.348 -0.0729  0.0040 -0.2531
20121W        W63174  21.341  20.179  16.097  0.0699  0.0015  0.1668
20122W        W63175   6.618   0.930  27.216  0.0115  0.0894  0.2893
20123W        W63176  17.177  34.386  17.901  0.0562 -0.1453  0.0060
20124W        W63177  26.820  23.931  16.870  0.0529  0.0809  0.1644
20125W        W63178  29.935  22.720  28.016  0.0096  0.0314  0.1309
20126W        W63179  23.664   7.076  13.630  0.1312  0.2511  0.3129
20127W        W63180   9.903   4.955   9.092  0.2946  0.0297 -0.0515
20128W        W63181  18.499   9.820   0.471 -0.2085  0.1256  0.0266
20129W        W63182   3.289  12.645  23.317 -0.0176 -0.1716 -0.0710
20130W        W63183  21.461  21.048  23.789  0.0190 -0.1832 -0.0343
20131W        W63184  23.551   2.246  21.652  0.1424  0.2357  0.1109
20132W        W63185   5.398  15.495  20.461 -0.0473  0.0281  0.1723
20133W        W63186  20.463  13.220  22.728 -0.3038  0.1459  0.1144
20134W        W63187  29.996  17.889   0.466 -0.1055 -0.0114  0.3319
20135W        W63188  14.193   6.650  26.922 -0.0460 -0.0627  0.0450
20136W        W63189  29.614  15.031   1.623  0.1154  0.2100  0.1009
20137W        W63190  25.481   2.848   8.090 -0.3470  0.2835 -0.1091
20138W        W63191  15.439   2.624   3.998 -0.1133 -0.2799 -0.0157
20139W        W63192  26.743  21.099   2.863  0.0713  0.0641 -0.1176
20140W        W63193  29.428  13.788  17.272 -0.2597  0.1927 -0.1528
20141W        W63194  29.691   7.692  24.959  0.2048 -0.0066 -0.0566
20142W        W63195  32.913  11.145  25.850  0.2057  0.3861 -0.2628
20143W        W63196  17.320  33.811  21.017  0.0641 -0.0486 -0.1550
20144W        W63197   3.335  16.534  28.605  0.3215  0.0250  0.2084
20145W        W63198   5.362  20.478  23.687 -0.1956 -0.1560 -0.0116
20146W        W63199  19.673  24.667   3.288  0.3529 -0.2991 -0.0096
20147W        W63200  12.032   2.207  23.719 -0.3918  0.0097 -0.1537
20148W        W63201  23.797  29.514  22.805 -0.3254 -0.0953  0.2238
20149W        W63202   8.299  22.115   6.882 -0.1175  0.0563 -0.2459
20150W        W63203  32.502   8.948  24.176  0.1559  0.0307  0.3711
20151W        W63204  30.460  31.188  23.781 -0.0008 -0.1349  0.1463
20152W        W63205  30.014   8.376  15.572 -0.1322 -0.0363 -0.2789
20153W        W63206  22.234  32.739  15.165 -0.0402 -0.0100 -0.2721
20154W        W63207  25.007  10.613  14.242  0.1722 -0.0636 -0.0892
20155W        W63208  34.518   1.062   8.443  0.3142  0.1992  0.3760
20156W        W63209  26.842  13.482  20.924 -0.0722  0.1986 -0.3076
20157W        W63210  15.554  23.568  16.031  0.1441  0.2513  0.2694
20158W        W63211  31.856  15.675   1.980 -0.0507 -0.2182  0.0390
20159W        W63212   6.552   1.336  15.894  0.0314 -0.2042 -0.0259
20160W        W63213  19.552  12.620  17.728 -0.0261  0.0162  0.2533
20161W        W63214  16.990  33.353   0.361 -0.2375 -0.1250 -0.0824
20162W        W63215   1.026  10.869  22.727  0.1472  0.0281 -0.0339
20163W        W63216  24.566  23.305  18.292  0.0493 -0.2220  0.1168
20164W        W63217  27.822  16.357  19.151  0.1408 -0.0733 -0.1182
20165W        W63218  21.680  22.333  16.561  0.0914 -0.1480  0.1484
20166W        W63219  19.707  18.875  29.097  0.0141  0.0053  0.0902
20167W        W63220  25.956  13.159  18.149  0.0607 -0.0119 -0.1605
20168W        W63221  14.955  12.104  15.802  0.0079  0.2090  0.0544
20169W        W63222  28.264  16.219  18.709 -0.0197  0.1833 -0.2064
20170W        W63223   6.173   4.324  21.453 -0.0419 -0.0663  0.1607
20171W        W63224  29.453  18.303   3.018  0.0925  0.0668 -0.4059
20172W        W63225  12.643   4.603  20.778  0.1224  0.1976  0.2209
20173W        W63226  30.040  12.135  16.160  0.1138  0.1961 -0.2197
20174W        W63227  16.132  17.675  15.249 -0.1914  0.3884 -0.1315
20175W        W63228  25.841  31.581  27.256  0.0835  0.0918  0.1623
20176W        W63229  30.107  20.368  28.284  0.1998 -0.3577 -0.2992
20177W        W63230  26.455  14.004  22.705  0.0150 -0.2518 -0.2432
20178W        W63231  25.671   4.380  25.290  0.0883 -0.1205 -0.0989
20179W        W63232  34.456  15.970  18.113 -0.1300 -0.1110  0.0758
20180W        W63233  13.487  17.458  18.171  0.0001 -0.0988 -0.1327
20181W        W63234   8.311  15.452  21.948 -0.2144 -0.0607 -0.4640
20182W        W63235  21.286   5.221   3.449  0.2586  0.2508  0.1613
20183W        W63236  26.390  22.618  22.657 -0.0099  0.0063 -0.1164
20184W        W63237   1.891  17.767   6.448 -0.0414 -0.0745  0.1006
20185W        W63238  19.652  17.933  26.991  0.1476  0.0737 -0.2872
20186W        W63239  17.375   6.402  22.277 -0.0538  0.1054  0.0324
20187W        W63240  25.641  16.179  22.043  0.1756 -0.1678  0.1217
20188W        W63241   4.402  32.628  24.905  0.1313 -0.2995 -0.0081
20189W        W63242  16.731   3.890  23.505 -0.0936  0.2419 -0.0878
20190W        W63243  23.290  21.110  19.403  0.2435  0.0118 -0.1476
20191W        W63244  27.779  21.645  18.656 -0.3044  0.0132 -0.0436
20192W        W63245  21.434  13.913  21.185  0.0171 -0.1810  0.3430
20193W        W63246  16.483  27.749  15.116  0.0607  0.2794 -0.1093
20194W        W63247  22.485  28.716   5.778 -0.0015  0.1902 -0.2051
20195W        W63248   6.408  14.938  19.536  0.2921  0.0577 -0.1586
20196W        W63249  23.598  15.029   1.864  0.2519 -0.2719 -0.0037
20197W        W63250  22.393  29.560  14.943 -0.1763 -0.4492  0.2810
20198W        W63251  24.610  14.794  24.663  0.0821 -0.4151  0.1729
20199W        W63252  17.746  14.940  22.886 -0.3782  0.3133  0.0583
20200W        W63253  24.772  27.568  16.489 -0.1896 -0.0822 -0.1928
20201W        W63254  30.818  13.699  24.162 -0.3590  0.2451 -0.1425
20202W        W63255  28.561  14.750   0.340 -0.4873 -0.1182  0.2234
20203W        W63256  17.732   2.791  16.750 -0.5280  0.1216 -0.0719
20204W        W63257   8.668   4.584   3.402  0.1738 -0.3275 -0.0467
20205W        W63258   3.621   5.444   6.353 -0.0897  0.0543  0.3605
20206W        W63259   2.063   8.067   2.153 -0.2108  0.3118  0.1083
20207W        W63260  11.019   9.165  27.353 -0.0021 -0.2939 -0.0007
20208W        W63261  14.004  25.564   2.761  0.1067  0.0146 -0.1551
20209W        W63262   0.877   9.687  14.806  0.1828  0.2539  0.1559
20210W        W63263   6.662  12.531   6.147  0.0182 -0.0677  0.0129
20211W        W63264  30.883  10.996  14.238 -0.2582 -0.0338 -0.0112
20212W        W63265  15.805  18.566   4.435  0.2956  0.0812 -0.1835
20213W        W63266  27.944   4.607  20.703 -0.1083 -0.2432 -0.1815
20214W        W63267  24.506  12.436   1.508 -0.0370 -0.2115 -0.0299
20215W        W63268  31.078   5.309  26.264 -0.2807  0.1759  0.0538
20216W        W63269  14.255   4.496  17.899  0.3978 -0.1818 -0.1485
20217W        W63270  23.239  30.707  23.700 -0.0742  0.3504  0.0361
20218W        W63271   5.184  31.713  15.264 -0.4315 -0.0946 -0.0683
20219W        W63272  30.711  15.059  22.540  0.1733 -0.1573  0.0737
20220W        W63273  32.048   6.645  25.970  0.0409 -0.1877  0.1377
20221W        W63274   0.821  13.354  18.570 -0.1104  0.0156 -0.1047
20222W        W63275   4.875  20.696   7.331  0.3657  0.1912 -0.3028
20223W        W63276  20.294  12.011  14.263 -0.2826 -0.1323 -0.2755
20224W        W63277  13.053  28.472  24.717  0.4787 -0.0974  0.0526
20225W        W63278  26.066  21.754  20.065 -0.5253 -0.2487 -0.2227
20226W        W63279   7.460  10.847  27.118 -0.1952  0.0071  0.0843
20227W        W63280  25.139  15.847   8.753  0.0646  0.0832 -0.0688
20228W        W63281  26.199  25.402  18.117 -0.2846 -0.0288  0.1193
20229W        W63282  31.815  29.691  25.974  0.1975 -0.0656 -0.2200
20230W        W63283  10.546  15.722  15.908  0.3854 -0.0331  0.0577
20231W        W63284  21.468  16.425  24.873  0.2011  0.6087 -0.1962
20232W        W63285  29.704  12.688  21.185  0.1978 -0.0640  0.1108
20233W        W63286  30.733  34.363  17.024  0.1539  0.1151 -0.1012
20234W        W63287  25.956   0.305  20.745 -0.1596 -0.1504  0.0189
20235W        W63288  26.805   9.400  24.514  0.0509 -0.2392 -0.0362
20236W        W63289  10.731  21.818  17.001  0.0655 -0.4334  0.1241
20237W        W63290   6.623  19.012  28.813 -0.1275  0.0741  0.0203
20238W        W63291  26.055   4.678  16.732  0.1751 -0.2350  0.1993
20239W        W63292   8.188  12.870   3.806 -0.2125  0.0450  0.0548
20240W        W63293  23.150  16.828   7.001  0.1901 -0.1417 -0.1634
20241W        W63294   0.333   6.333  15.252  0.1113 -0.1316  0.0174
20242W        W63295  19.478  11.888  20.359 -0.3244  0.0725 -0.0678
20243W        W63296  29.723   3.175  15.402  0.1042  0.0033  0.1304
20244W        W63297   2.724   3.264   3.197  0.0082 -0.1730  0.2290
20245W        W63298  12.444  21.680  15.442 -0.0560  0.0632  0.1340
20246W        W63299  33.364  20.816   8.662  0.0395 -0.2195  0.2471
20247W        W63300  26.000   1.857  16.986  0.0163 -0.1044 -0.0211
20248W        W63301  26.571  23.587  22.264 -0.1013  0.2256  0.1272
20249W        W63302  24.393   1.703  17.050 -0.3386 -0.4061  0.3342
20250W        W63303   3.776  30.980  13.695  0.1090  0.1597 -0.0829
20251W        W63304  32.854  19.184  15.000  0.1752 -0.2811  0.0183
20252W        W63305  10.840  21.195  18.858 -0.2153  0.2971  0.2538
20253W        W63306  17.860   7.474  18.350  0.0416  0.0739 -0.0994
20254W        W63307   0.144  11.942  17.114  0.2065  0.0730 -0.0286
20255W        W63308  27.103   8.941   0.218  0.1235 -0.1251  0.1607
20256W        W63309  32.056  14.553  10.390  0.0006  0.0451 -0.0312
20257W        W63310  25.908  21.181  22.378  0.0222 -0.1542  0.0336
20258W        W63311   3.985  11.250   3.431  0.1379 -0.0251 -0.4647
20259W        W63312  17.288   9.860  28.844  0.0809  0.1439  0.0615
20260W        W63313  29.257   8.048  25.231 -0.4062 -0.2452 -0.2667
20261W        W63314  19.714  19.813   2.766  0.3137 -0.3194  0.2247
20262W        W63315  19.561  28.268  20.415 -0.2518  0.2090 -0.1472
20263W        W63316  31.261  16.492  16.343 -0.3253 -0.0880  0.2345
20264W        W63317  31.186  26.976  19.487  0.0633  0.1360 -0.1762
20265W        W63318  33.650  30.593  22.382  0.2783  0.1832  0.0163
20266W        W63319  22.703  31.846  16.968 -0.2570  0.1041  0.3225
20267W        W63320  33.817   4.191  21.981  0.2937  0.0969 -0.0797
20268W        W63321  32.469  19.395  19.117  0.0718 -0.0627  0.2368
20269W        W63322   3.328   4.554  15.436  0.0231  0.0067 -0.0561
20270W        W63323  27.531  20.485  21.756  0.0877 -0.2404 -0.1384
20271W        W63324   0.298  10.968   1.803  0.2600  0.2245  0.1745
20272W        W63325   1.694   8.296  19.334  0.0575 -0.0725 -0.2032
20273W        W63326  25.180  19.770  22.234 -0.1632 -0.2329 -0.1590
20274W        W63327   3.801  17.871  26.040  0.0084  0.0378  0.0431
20275W        W63328   5.239  14.442   8.680  0.1714 -0.0303 -0.3242
20276W        W63329  30.395  21.613   1.083 -0.1003  0.4374  0.0708
20277W        W63330   7.103  10.789  24.588  0.0723  0.2214  0.1172
20278W        W63331  17.924  32.925  16.198  0.0611 -0.1211 -0.3536
20279W        W63332   9.855   6.075  22.534  0.1321 -0.2812 -0.0046
20280W        W63333   1.155   3.371  17.724 -0.2937  0.1415 -0.1650
20281W        W63334  20.631  13.201  15.808  0.0907  0.1898  0.0800
20282W        W63335   8.257   9.996   5.368 -0.1149  0.1736 -0.2401
20283W        W63336  23.054  26.460  20.399 -0.1459 -0.0678  0.1210
20284W        W63337  19.515   0.605  21.315  0.0905  0.0662 -0.0784
20285W        W63338  14.991   4.736  25.592  0.1134  0.1322 -0.0826
20286W        W63339   6.991   8.133   9.881  0.0318  0.0317 -0.1357
20287W        W63340  23.653  29.643  18.528  0.1506 -0.2546  0.2603
20288W        W63341  18.504  12.150  16.470 -0.0488  0.2474  0.0648
20289W        W63342  13.616   4.355  27.281  0.1857 -0.2585  0.2460
20290W        W63343  30.434  23.797  17.549  0.1540  0.0161  0.2092
20291W        W63344  31.318   6.943  20.853  0.0004  0.0023 -0.2844
20292W        W63345  27.892  25.476  25.193 -0.0197  0.2516  0.1436
20293W        W63346  26.429  14.275   3.995  0.0920  0.4302 -0.2794
20294W        W63347  26.469  20.321  29.106 -0.2402 -0.0743 -0.0449
20295W        W63348  26.457   6.208  20.521 -0.2020  0.0975 -0.1780
20296W        W63349   5.492   4.092  22.694 -0.1425 -0.4234  0.3239
20297W        W63350   2.203  17.652  18.854 -0.3004  0.3635  0.2873
20298W        W63351   1.744  15.617  27.364  0.0733  0.2477  0.1322
20299W        W63352   3.713  17.363  24.778  0.3212  0.1286  0.0195
20300W        W63353  21.803  30.794  22.186 -0.2405 -0.1035  0.0764
20301W        W63354  25.425   8.161  13.710  0.1507  0.0107  0.5008
20302W        W63355  18.003  17.406  19.625  0.0124  0.0939 -0.2133
20303W        W63356   0.906   7.655  15.214 -0.0851  0.0722  0.0292
20304W        W63357   7.385   4.029  28.176 -0.1129  0.1671  0.1816
20305W        W63358   0.123  15.805   3.311  0.0118 -0.4094  0.1351
20306W        W63359   3.377  11.746  20.432  0.1770 -0.0355 -0.1125
20307W        W63360   9.161  11.960  19.704  0.0393  0.3244  0.0177
20308W        W63361  30.603  22.576  20.261  0.2194  0.0530 -0.1105
20309W        W63362  17.969  16.701  13.413 -0.2608  0.3810 -0.1408
20310W        W63363  20.316   1.503  26.151 -0.0030 -0.0340  0.2172
20311W        W63364   7.124  25.494  25.623 -0.0162  0.1445  0.1310
20312W        W63365  32.342  15.938  23.788  0.1809  0.0572 -0.0016
20313W        W63366   1.202  10.309  22.050  0.0632  0.0399  0.1675
20314W        W63367  21.547   5.368  26.670 -0.0820  0.2798  0.0083
20315W        W63368  24.127  20.046  25.337  0.1083  0.1720  0.1848
20316W        W63369  28.977   4.579  17.677 -0.0923  0.2323 -0.0660
20317W        W63370  27.341   5.782   1.901 -0.1820 -0.0890  0.0423
20318W        W63371  32.500  19.014   4.597  0.0878  0.0160 -0.2908
20319W        W63372  31.083   9.058   3.583  0.2253  0.4073 -0.1399
20320W        W63373  32.008   5.023   1.079 -0.1874 -0.0065 -0.0887
20321W        W63374  18.751  12.489  15.594 -0.1470 -0.0158  0.1473
20322W        W63375  33.927  18.218   2.462 -0.0519 -0.0316 -0.1743
20323W        W63376  32.627  20.141  28.912 -0.1598 -0.1639  0.1187
20324W        W63377   7.299   4.137  19.910 -0.0113  0.1356  0.0859
20325W        W63378  22.712  33.745   1.027 -0.0900 -0.2365 -0.2161
20326W        W63379  20.805  19.697  22.573  0.2702 -0.1753 -0.0145
20327W        W63380  13.930  10.695  15.679  0.1444  0.0833 -0.0879
20328W        W63381  30.379   9.086  18.165  0.0801 -0.0866 -0.0778
20329W        W63382  17.755  20.320  15.162 -0.0300 -0.0518  0.2829
20330W        W63383  30.443  25.947  25.644 -0.2512  0.0150 -0.0435
20331W        W63384  30.532   0.623   3.309  0.2925  0.1868 -0.2306
20332W        W63385  12.535  15.785  23.631 -0.1208 -0.1334 -0.0309
20333W        W63386   0.531  13.429  13.679  0.2461  0.0421  0.1842
20334W        W63387   2.407   3.232  16.174  0.1022 -0.2761  0.2556
20335W        W63388  12.971  33.511   9.005 -0.1889  0.0650  0.0045
20336W        W63389  29.726  18.721  24.325  0.0322  0.0630  0.0107
20337W        W63390  30.918   9.527   3.634 -0.0394 -0.0262  0.0490
20338W        W63391   5.253  24.410  22.125  0.3551  0.0057  0.0014
20339W        W63392  21.429  17.672  20.173 -0.0767  0.6080  0.1581
20340W        W63393  21.861   3.183   8.537  0.2593 -0.0138 -0.0859
20341W        W63394   7.318  20.106  14.322  0.0754  0.1594 -0.1779
20342W        W63395  28.659  33.950  28.890  0.3136 -0.2707 -0.3192
20343W        W63396  17.757  10.181  24.070 -0.1025 -0.0374  0.0048
20344W        W63397   1.970  23.743  15.222 -0.4299  0.0417  0.0726
20345W        W63398   2.577  32.447  15.272  0.0133 -0.0591 -0.3899
20346W        W63399  27.761   0.066   2.427 -0.1643  0.2034  0.0716
20347W        W63400  22.801  13.995  25.910 -0.4191  0.1894  0.0920
20348W        W63401  20.963  17.711  14.411 -0.1458  0.2461  0.2026
20349W        W63402  32.865  10.428  20.930 -0.2038  0.0834 -0.1067
20350W        W63403  26.786  16.708  22.982 -0.0360 -0.0163 -0.1471
20351W        W63404  22.646   2.343  23.844 -0.0308  0.2149 -0.5930
20352W        W63405   9.127   4.056  21.127  0.0109 -0.2054  0.1090
20353W        W63406  31.118   9.671  18.555  0.1809 -0.1704 -0.3370
20354W        W63407  28.228  11.860  19.209  0.1123  0.1818 -0.1626
20355W        W63408   5.753  12.428  27.081  0.2280 -0.2986 -0.0584
20356W        W63409   5.515  18.278   3.881  0.1914 -0.0834  0.2059
20357W        W63410  30.935  20.457  14.329 -0.3432  0.1289  0.1498
20358W        W63411   4.818  32.351  26.810  0.1671 -0.0541 -0.3432
20359W        W63412  26.496  21.399   4.070  0.0236  0.1566 -0.1602
20360W        W63413  25.159  16.816  22.540  0.0416  0.1325 -0.2762
20361W        W63414  29.821   2.665  14.684  0.2216  0.1500  0.0297
20362W        W63415  25.618  19.527  22.840 -0.1316  0.4159  0.1241
20363W        W63416  20.790  11.597  21.017  0.0433 -0.1536 -0.0003
20364W        W63417  33.117  18.664  17.860  0.0081 -0.2412 -0.1193
20365W        W63418   4.110   5.639   3.939 -0.1285  0.2368 -0.2945
20366W        W63419  30.657  17.278  14.839 -0.4026  0.0589 -0.0815
20367W        W63420  10.074   8.371  28.937  0.1072  0.0396 -0.1007
20368W        W63421   4.975  16.719  27.121 -0.0222  0.1713  0.2144
20369W        W63422  16.718  32.177   9.197  0.1440  0.1847 -0.1655
20370W        W63423  22.834  10.382  16.407  0.0925 -0.0429  0.2428
20371W        W63424  19.997   6.584  27.592  0.0113 -0.0094 -0.1413
20372W        W63425  17.132  23.409   9.464 -0.3541 -0.0346  0.0740
20373W        W63426  26.907  23.942  22.582  0.0564  0.3136 -0.0111
20374W        W63427  27.967  15.284  18.487  0.2684  0.0304 -0.0469
20375W        W63428  14.817   3.295  21.464  0.0019  0.0384 -0.3117
20376W        W63429  10.164  31.687   0.771  0.0314 -0.0183  0.0950
20377W        W63430  11.617  20.978  15.558 -0.2851  0.0261  0.2533
20378W        W63431   8.359  33.986  27.127  0.1608  0.0874 -0.0554
20379W        W63432   6.671  17.108  24.384 -0.1213  0.1698 -0.0641
20380W        W63433  27.133  17.251  28.737  0.0142  0.3417 -0.2447
20381W        W63434  22.159   5.448  21.101  0.0319 -0.0020  0.0861
20382W        W63435  15.716  28.194   4.534 -0.0397  0.0618  0.4766
20383W        W63436  20.884  25.334  21.260 -0.0747 -0.0020  0.1641
20384W        W63437   7.008  25.981  18.584 -0.2639  0.0532  0.0123
20385W        W63438  31.638  18.010   7.989 -0.1032  0.1036  0.0137
20386W        W63439  13.427   8.291  27.697 -0.0282 -0.0368  0.0323
20387W        W63440   1.564  20.011  14.610 -0.0929  0.0319 -0.4088
20388W        W63441  19.677   7.881  18.236  0.0013  0.0673 -0.0110
20389W        W63442   0.733  12.644  22.914  0.1397  0.0501 -0.3263
20390W        W63443  24.746  33.609  22.889  0.2533  0.3744  0.2628
20391W        W63444  22.579  17.994  18.274 -0.1473  0.0765 -0.1822
20392W        W63445   1.124  26.954  21.203  0.0641  0.1740 -0.1817
20393W        W63446  26.051  21.940   6.223  0.0238  0.2293  0.2670
20394W        W63447  32.647   5.411  22.858 -0.0832  0.2517  0.1280
20395W        W63448   8.621  11.022  17.874 -0.1681  0.4427  0.0699
20396W        W63449  24.411  29.133   0.299 -0.2695  0.0249 -0.0299
20397W        W63450  24.359  19.713  19.280 -0.0881 -0.0276 -0.2738
20398W        W63451  29.947  31.266  19.033  0.3103  0.0341  0.0068
20399W        W63452  11.810   7.234  28.463 -0.0118  0.0013  0.3985
20400W        W63453  15.686  28.371  18.945  0.0073  0.0870 -0.2106
20401W        W63454   8.875  14.867  26.714  0.0442  0.2297 -0.0992
20402W        W63455  33.285  17.918  23.713 -0.0012 -0.0709 -0.1901
20403W        W63456  16.042  34.033   8.712 -0.0660  0.3173 -0.0336
20404W        W63457  29.156  23.485  23.645 -0.0178  0.4068 -0.2229
20405W        W63458  29.280  11.328  22.757  0.1007  0.2365 -0.0869
20406W        W63459  13.122  26.328  22.039  0.2089  0.1843  0.1638
20407W        W63460  25.739  34.293  22.159 -0.0930  0.0521 -0.0343
20408W        W63461  25.730  14.442  21.983  0.1788 -0.1790  0.2567
20409W        W63462  22.787   5.003   2.182  0.0442  0.1335  0.2573
20410W        W63463   3.510  24.647   2.859 -0.1602  0.0776  0.1232
20411W        W63464  24.716  27.303  20.695 -0.1042  0.1562  0.1815
20412W        W63465  16.950  13.923  27.740 -0.0428  0.0048  0.2973
20413W        W63466  28.278  17.175  18.925  0.0858  0.0603 -0.1617
20414W        W63467  17.709   6.961   1.794  0.0355 -0.1201  0.3120
20415W        W63468   7.625  14.301   3.988 -0.1339 -0.1710 -0.1199
20416W        W63469  34.127   2.251  26.258 -0.0767 -0.0513  0.3563
20417W        W63470  15.488  15.860  16.214 -0.1398  0.1160  0.1732
20418W        W63471  29.505  12.700  23.402 -0.2903  0.0306  0.3381
20419W        W63472  10.572   5.068  17.890 -0.2452 -0.0824 -0.2649
20420W        W63473  21.287  12.945  16.903  0.4412  0.1606  0.1377
20421W        W63474  18.941  14.461  22.507 -0.2270  0.0398  0.2950
20422W        W63475  27.774  14.018  17.009 -0.0676  0.1612 -0.0127
20423W        W63476   3.234   2.751  19.593  0.3726 -0.1990  0.2708
20424W        W63477   4.927  10.960  27.655  0.1546 -0.0126 -0.1565
20425W        W63478   7.274  18.087  19.170 -0.0413 -0.1515  0.0734
20426W        W63479   4.183  15.471  15.852 -0.2674 -0.4940  0.3264
20427W        W63480  34.628  10.004  24.625  0.1696 -0.2955  0.3512
20428W        W63481   3.779  22.304  17.540 -0.0391 -0.0778  0.4122
20429W        W63482   4.545  31.407  14.541 -0.1005 -0.0372  0.0820
20430W        W63483  21.170   6.360  14.334 -0.2019  0.3117 -0.3910
20431W        W63484  10.643   6.022  16.800 -0.0808 -0.1041  0.3944
20432W        W63485  26.369  33.679  21.580  0.1779 -0.1862 -0.1291
20433W        W63486  28.948  27.154   2.539  0.0821  0.0264 -0.1806
20434W        W63487  17.219   6.387  10.070 -0.0692 -0.1262 -0.2339
20435W        W63488   4.701  19.608  15.384 -0.2864  0.0325  0.0434
20436W        W63489  32.205  27.673  27.160  0.0182  0.0049  0.0069
20437W        W63490  16.878  11.176  15.353  0.1159 -0.1790 -0.0586
20438W        W63491  26.044  10.284  15.819  0.0870  0.4376 -0.3094
20439W        W63492  25.811  13.862  19.812  0.0693  0.1557 -0.1422
20440W        W63493   0.044   2.995  17.350  0.3368 -0.0133 -0.0832
20441W        W63494   3.668  10.436  21.748  0.0930 -0.1471  0.1484
20442W        W63495  24.831  19.731  14.687 -0.1258 -0.1076  0.3300
20443W        W63496   8.699   8.119  20.696  0.3213 -0.1499 -0.2451
20444W        W63497  27.938   6.927  21.851  0.0366 -0.1442 -0.2875
20445W        W63498   8.940  20.400  23.845  0.0170 -0.3689 -0.0110
20446W        W63499  33.424  12.149   9.262 -0.0216 -0.2456  0.1051
20447W        W63500  19.487  14.020  23.004  0.1709 -0.0562  0.1679
20448W        W63501  30.507   3.782  18.894 -0.0735  0.2735  0.2785
20449W        W63502  23.488   4.898  22.871 -0.1091 -0.1052  0.1062
20450W        W63503  24.860   4.749  14.851 -0.0330  0.0280  0.0570
20451W        W63504  20.282  17.638  23.324 -0.0516  0.0400 -0.3850
20452W        W63505  20.644  22.470  17.351  0.2704 -0.0722 -0.0595
20453W        W63506   3.580  34.442  20.196  0.2685 -0.1200  0.0916
20454W        W63507  29.188  20.327  27.428  0.4396  0.0934  0.2355
20455W        W63508  34.141  16.103  26.954 -0.1050 -0.3473  0.0974
20456W        W63509  26.174   0.839  22.321 -0.2405 -0.1710  0.0825
20457W        W63510  11.175  15.520  23.182 -0.2606  0.0308 -0.1995
20458W        W63511  12.699  16.484  22.498  0.1268  0.2242 -0.0613
20459W        W63512  18.815   8.843  15.358 -0.2451 -0.1853  0.0688
20460W        W63513  20.635   6.188  20.359 -0.0703  0.0050 -0.2890
20461W        W63514  33.883  18.836   4.007  0.1051 -0.0990 -0.0419
20462W        W63515  25.836   2.575  14.857  0.3516  0.0312  0.0560
20463W        W63516  22.377  12.214  17.173  0.0050 -0.2353 -0.1741
20464W        W63517  33.920  10.212   4.883  0.0293  0.0004  0.1991
20465W        W63518  18.893  33.208  21.532 -0.0929  0.2757  0.3246
20466W        W63519  29.090  17.151  19.232  0.1935  0.1689 -0.0305
20467W        W63520  19.797  17.244  15.460 -0.0409 -0.0952 -0.1196
20468W        W63521   7.381  20.227   5.064  0.1077 -0.0545 -0.1269
20469W        W63522   4.932   6.590   2.147 -0.2041 -0.2372 -0.3187
20470W        W63523  13.957  12.803  16.378 -0.0530  0.1113  0.0490
20471W        W63524  32.207   8.740  23.814  0.1043 -0.0146  0.1143
20472W        W63525  21.672  23.850  21.518 -0.2622 -0.1880 -0.0169
20473W        W63526  27.895  31.698  23.299 -0.2469 -0.2072 -0.2266
20474W        W63527   4.634  16.420  18.921  0.2863  0.1013 -0.1795
20475W        W63528  25.875  29.452   1.662  0.0085  0.1406  0.0047
20476W        W63529   8.932  20.408  15.675 -0.1472 -0.0352  0.1268
20477W        W63530  23.755  20.545   1.957  0.1110 -0.0911 -0.1417
20478W        W63531  30.490  13.761   8.786  0.2534 -0.2054 -0.0006
20479W        W63532   2.966  14.709  24.955  0.0134  0.1053 -0.0348
20480W        W63533  28.780  17.076   4.479  0.3594  0.1960  0.0889
20481W        W63534   0.321   9.016  17.226 -0.1311  0.0664 -0.1134
20482W        W63535   5.088  29.151   8.451 -0.1452  0.1895 -0.1462
20483W        W63536   5.423  16.550  29.191  0.2918 -0.1994  0.1402
20484W        W63537  31.220  19.600   9.535 -0.4161  0.0277 -0.0115
20485W        W63538  30.037  17.060  20.610 -0.1128  0.1013 -0.2028
20486W        W63539  29.226  15.097  18.483  0.0810  0.0349 -0.1455
20487W        W63540  29.073   2.824  27.697  0.2294  0.3749 -0.0098
20488W        W63541   0.429  34.685   2.499  0.1104 -0.1023  0.2791
20489W        W63542  21.517  27.384  28.130  0.0011  0.1590  0.0253
20490W        W63543  12.584   7.277  23.251 -0.0105  0.1742  0.0653
20491W        W63544  15.191  12.526   6.617 -0.1640 -0.1047  0.1055
20492W        W63545   2.672  12.713  27.771 -0.0832 -0.0173  0.1658
20493W        W63546  17.027  14.609   5.934 -0.0381 -0.2114  0.0789
20494W        W63547   8.319  25.807  13.680  0.0410 -0.1180  0.0482
20495W        W63548  30.006   9.452  22.778  0.2810 -0.0155  0.0098
20496W        W63549  19.727  33.444  22.048  0.0396  0.1293  0.0414
20497W        W63550   0.400  13.209  25.509  0.1270 -0.0131  0.2497
20498W        W63551  33.699  23.372  22.541  0.0930  0.1718 -0.2030
20499W        W63552  11.801  17.144   5.204  0.1393 -0.0874 -0.4844
20500W        W63553  20.110  14.897  25.056 -0.1639  0.5102  0.2827
20501W        W63554  27.696  33.075   8.173 -0.1580 -0.1465  0.0457
20502W        W63555  25.375   6.677  16.613 -0.0378  0.2514  0.1549
20503W        W63556  27.373  22.853  26.202  0.1684 -0.0358  0.1158
20504W        W63557  15.814  18.197  23.984 -0.1240  0.1797  0.0830
20505W        W63558  27.307   9.980  15.968 -0.1328  0.1180 -0.0167
20506W        W63559  28.244  13.030  28.089 -0.3547 -0.2730  0.0751
20507W        W63560  28.046  13.635  17.657  0.1265 -0.3301  0.1955
20508W        W63561  12.134   6.577   2.132 -0.0895 -0.1306  0.2414
20509W        W63562  33.852   8.163  15.461  0.2074  0.3762 -0.0000
20510W        W63563  14.677  13.936   2.767  0.1204 -0.4640  0.0869
20511W        W63564  27.590  16.012   5.320  0.1163  0.2356 -0.1335
20512W        W63565  31.159  18.839  17.171 -0.0886 -0.2882  0.0343
20513W        W63566  28.057  33.930  14.816 -0.0528  0.0351 -0.4404
20514W        W63567  28.584   6.261   2.111 -0.0934 -0.0334 -0.1148
20515W        W63568  19.023  13.061  20.032  0.3165 -0.6622  0.0422
20516W        W63569  20.247  10.366  16.527 -0.0102  0.1763  0.0783
20517W        W63570  20.165  21.176  27.264  0.0055  0.1489 -0.1297
20518W        W63571  20.088  25.114  28.192  0.2355  0.4109 -0.0542
20519W        W63572  18.823  11.750   3.836  0.1944  0.3172 -0.1903
20520W        W63573  24.777  32.795   1.264  0.2705  0.5498 -0.1901
20521W        W63574  27.116  18.890  20.892  0.1867 -0.0727  0.1794
20522W        W63575  20.601   8.483   9.610  0.1250 -0.3317  0.3719
20523W        W63576  28.183  11.568   8.187  0.0562 -0.0506 -0.0823
20524W        W63577   1.408   6.224  10.083 -0.0386 -0.0410 -0.1153
20525W        W63578  27.274   6.859   3.106  0.0333  0.0836  0.0785
20526W        W63579  26.853  21.985  28.057 -0.0864 -0.1637 -0.1042
20527W        W63580  27.422  23.873  20.233 -0.1930  0.1505 -0.0865
20528W        W63581  18.616  11.555   3.434 -0.0136 -0.3348 -0.3349
20529W        W63582   4.201   3.529   7.800  0.0555  0.1224 -0.2880
20530W        W63583  32.396  27.262  27.585  0.0512 -0.4039  0.0037
20531W        W63584  26.770  17.293  21.683  0.1686  0.2367  0.2365
20532W        W63585  17.815  13.740  26.277 -0.0882  0.0561 -0.2953
20533W        W63586  26.106  10.472   2.913  0.0926  0.2352  0.2377
20534W        W63587  18.998  28.509  26.430  0.0141  0.2367 -0.0916
20535W        W63588  21.709  10.422  28.603 -0.3388 -0.1009 -0.0242
20536W        W63589  23.442  12.689  18.455 -0.1159 -0.1809  0.1250
20537W        W63590  13.893   2.497   8.262  0.2364  0.3004  0.1601
20538W        W63591  32.056  13.136  25.454  0.0563  0.2870 -0.0432
20539W        W63592  31.311  10.432  22.340 -0.0139 -0.4537 -0.1663
20540W        W63593   9.799  34.159   4.296  0.0440  0.0814  0.2365
20541W        W63594  33.390   7.005   2.423  0.2015 -0.0252  0.0119
20542W        W63595   2.678   4.480  18.036  0.1360  0.1862  0.0191
20543W        W63596  28.647  17.623  19.230 -0.1806  0.2848  0.1080
20544W        W63597  24.523   9.467  26.177  0.1450 -0.1093 -0.2986
20545W        W63598   1.374  12.831  18.784 -0.1014  0.3792  0.0014
20546W        W63599  29.002  22.998  20.456  0.1216  0.2472  0.1031
20547W        W63600  22.664   5.940   1.022 -0.3468  0.4696 -0.0163
20548W        W63601  27.419  18.684  26.111 -0.0107 -0.1391  0.1710
20549W        W63602  34.396  19.315   5.813  0.1372 -0.0713 -0.1288
20550W        W63603  21.530  14.435   6.605  0.0677 -0.1901  0.1878
20551W        W63604  17.990   6.741  16.996 -0.3971  0.1040 -0.1367
20552W        W63605  11.406  31.288   6.586  0.0379  0.0132  0.0935
20553W        W63606  23.194  20.376  16.773 -0.1295 -0.1933 -0.4155
20554W        W63607  17.493   9.900  10.464 -0.1231 -0.1614 -0.4687
20555W        W63608  28.758  30.747  20.583 -0.2298  0.0681 -0.2798
20556W        W63609   6.329   3.014  16.809  0.3373 -0.2408  0.0178
20557W        W63610  20.630  19.017   3.633  0.1820  0.1248  0.1614
20558W        W63611  33.892  15.436  14.408 -0.0722  0.2087  0.0703
20559W        W63612  34.463  13.152  15.989  0.1947  0.0451  0.2182
20560W        W63613  29.185  24.993   1.728 -0.2612 -0.0001  0.0433
20561W        W63614  29.555   8.919  20.734  0.1372 -0.1871 -0.1027
20562W        W63615  30.060  23.065  28.872 -0.3636 -0.0172 -0.0825
20563W        W63616  24.185  33.314  29.040  0.1397  0.0978 -0.3072
20564W        W63617   3.901   7.554  29.019 -0.0256  0.0838  0.0237
20565W        W63618  22.863  12.068  16.467  0.0798 -0.1784  0.2410
20566W        W63619  13.294   6.048  19.840  0.0463  0.1138  0.0253
20567W        W63620  27.816  20.895   6.361  0.1236  0.1201  0.0710
20568W        W63621  28.271  34.034   6.405 -0.1784 -0.1225  0.1515
20569W        W63622  12.011   7.264   4.840 -0.0982  0.0016 -0.0995
20570W        W63623  22.619  23.105  22.698 -0.2799  0.1923  0.1680
20571W        W63624  25.116  11.313   5.946  0.0317  0.0964  0.2372
20572W        W63625   5.972  18.637  23.616 -0.4166 -0.2450 -0.1854
20573W        W63626  20.698  24.924  26.350  0.3449 -0.1847 -0.1909
20574W        W63627  26.558  24.191   5.110  0.0939  0.0705 -0.2110
20575W        W63628   3.363   7.391   1.646 -0.0816 -0.1492  0.1012
20576W        W63629  23.682  18.824  24.919 -0.0027  0.4678  0.2111
20577W        W63630   2.766   1.637   6.637 -0.1812  0.0420  0.1174
20578W        W63631  19.459  12.824  21.894  0.1465 -0.1115  0.1236
20579W        W63632  29.976  12.271  28.133  0.1362  0.1483  0.0288
20580W        W63633   1.092   6.253  19.457 -0.1917 -0.1477  0.0709
20581W        W63634  30.268   1.447  28.496 -0.0111  0.0855 -0.1278
20582W        W63635   3.009  15.529  26.364  0.0625  0.2618 -0.2016
20583W        W63636  13.875   6.860   0.491 -0.1400  0.1549  0.2851
20584W        W63637  22.628  14.724  14.063 -0.1490  0.1431  0.0261
20585W        W63638  26.612  14.272  13.841  0.2876 -0.2767 -0.4649
20586W        W63639  32.748   7.173  20.194  0.3674 -0.0002  0.0936
20587W        W63640   4.045   1.800   6.122 -0.2818 -0.1646  0.2622
20588W        W63641  15.481  25.901   9.178 -0.0196 -0.2986 -0.1203
20589W        W63642   7.580  18.113   4.070 -0.1712 -0.1776  0.1710
20590W        W63643  28.478  20.311  28.237  0.1287  0.0139 -0.1822
20591W        W63644  33.699  17.211   6.339 -0.0959  0.1234  0.0310
20592W        W63645  28.497  24.383  18.160  0.1052  0.1032 -0.3777
20593W        W63646  29.812  12.280   5.433 -0.0531 -0.1461  0.2812
20594W        W63647  32.499  16.090  26.946  0.1624 -0.0353  0.0182
20595W        W63648  33.131  13.250   7.857  0.0105 -0.3067  0.1595
20596W        W63649   4.320  10.212   9.608  0.0836 -0.1301  0.0329
20597W        W63650  32.040  34.395  19.548  0.0858  0.2369  0.0691
20598W        W63651  12.301   8.676   7.653 -0.1800 -0.1277  0.0653
20599W        W63652  33.594  33.950   1.542 -0.0008  0.0156 -0.2942
20600W        W63653  22.823   1.352  23.541 -0.0726 -0.1078  0.0864
20601W        W63654  32.040   8.002   4.715 -0.1393 -0.1097 -0.1031
20602W        W63655  10.596  15.423   9.449  0.0231 -0.0073  0.1234
20603W        W63656   6.299   1.377  17.368 -0.0297  0.3317  0.2017
20604W        W63657  16.645  34.259  27.753  0.1814 -0.1561  0.1971
20605W        W63658   0.624   6.020  19.681  0.2255 -0.2159 -0.0169
20606W        W63659  25.737  14.998   1.999  0.0590  0.0790  0.5050
20607W        W63660  25.357  11.284  24.706 -0.2247  0.0518  0.0585
20608W        W63661  26.002  31.256  16.746 -0.0655  0.0809  0.0311
20609W        W63662  34.548  14.705  20.493 -0.0286 -0.0414 -0.0911
20610W        W63663  19.108  33.137  29.141 -0.0793 -0.0026  0.2457
20611W        W63664  23.001  18.801  27.085  0.0219  0.0233  0.1949
20612W        W63665  15.364   2.209  28.074 -0.0572  0.0926 -0.1501
20613W        W63666  25.866   3.036   1.464 -0.1170 -0.2949  0.3797
20614W        W63667  21.704  16.723   7.354 -0.2272  0.0829  0.1349
20615W        W63668   0.394  14.476   1.660  0.0075  0.0615  0.2179
20616W        W63669  30.408   5.579  25.034  0.3243  0.0024  0.0752
20617W        W63670   6.898  16.346  17.999 -0.0700 -0.0120 -0.0881
20618W        W63671  30.627  23.188  15.639  0.2353 -0.1824  0.2284
20619W        W63672  26.001   1.043   4.531  0.2014  0.2196 -0.1259
20620W        W63673  17.818  28.829  28.101  0.1975  0.0786  0.3448
20621W        W63674  23.787  28.828   8.103  0.2022 -0.2735  0.0195
20622W        W63675  16.715  12.917   3.906 -0.2140  0.1431  0.0254
20623W        W63676  27.190  24.393   6.707 -0.2000 -0.0960  0.0158
20624W        W63677  34.467  14.598   8.363 -0.1433  0.1960  0.0313
20625W        W63678  27.921  12.471   3.965  0.0949 -0.1879  0.0290
20626W        W63679  23.678  11.638  16.621 -0.1783  0.2051 -0.1568
20627W        W63680  17.573  12.085  14.119 -0.2721  0.0620  0.0274
20628W        W63681  11.321  12.109  16.987 -0.2566  0.2763  0.2112
20629W        W63682   5.598   7.606  18.723  0.1658  0.1749 -0.2366
20630W        W63683  17.659   5.872   2.633  0.0662 -0.1353 -0.0401
20631W        W63684  23.868   6.056   2.837  0.1099 -0.0172  0.1019
20632W        W63685  18.377  15.630   4.433  0.0412 -0.2030  0.0145
20633W        W63686  24.813  33.895   4.291  0.0409 -0.0759 -0.0135
20634W        W63687  23.699  13.951   7.517  0.0783  0.0168  0.3191
20635W        W63688  27.259   8.346  17.353 -0.1586  0.1231 -0.1281
20636W        W63689  14.876  34.402  17.710  0.0973  0.1745 -0.2713
20637W        W63690   2.340   3.297  17.241  0.2211  0.1199 -0.1397
20638W        W63691  26.995   9.681  27.879 -0.2109 -0.3408  0.0575
20639W        W63692  13.987  18.668   5.997  0.0390 -0.0422 -0.0883
20640W        W63693  26.862  20.917  23.871 -0.1187  0.0543  0.3430
20641W        W63694   9.813  11.780  28.071 -0.1198 -0.1040 -0.1780
20642W        W63695  32.743   5.109  22.411 -0.0852  0.2866 -0.0988
20643W        W63696   9.012  19.194  14.722 -0.4115  0.2159  0.3437
20644W        W63697  21.459  33.275  17.404  0.2296  0.0602 -0.3592
20645W        W63698  21.003   3.508  20.203 -0.0075 -0.3807  0.1697
20646W        W63699  15.936  16.895  13.678  0.1521  0.0977  0.1240
20647W        W63700  32.832   2.890   3.580  0.0139 -0.2530 -0.0901
20648W        W63701  19.394  23.442  18.727  0.0488 -0.0944  0.0706
20649W        W63702  19.629  21.353  27.231  0.1982  0.0088 -0.1230
20650W        W63703  20.721  34.212  23.722  0.1201 -0.1118  0.0115
20651W        W63704  18.303  10.063  23.826 -0.0840  0.1323 -0.2833
20652W        W63705  26.116   4.647  27.988 -0.1509  0.0751  0.0921
20653W        W63706   2.115   9.030  22.606 -0.3389 -0.2307  0.2356
20654W        W63707  27.718  17.352  19.647 -0.1101 -0.2359 -0.0407
20655W        W63708  29.484  32.412   9.961  0.0991 -0.3912  0.0055
20656W        W63709  19.095  32.652  16.828 -0.0608 -0.1354  0.0998
20657W        W63710  26.845  33.853  17.882 -0.0276 -0.4435 -0.1371
20658W        W63711  26.119  12.123   1.545  0.0950 -0.0098 -0.1200
20659W        W63712  13.972  12.770  11.259 -0.1846 -0.2111 -0.3695
20660W        W63713  25.199  17.307  18.240  0.0369  0.0061 -0.0477
20661W        W63714  25.538   9.023  27.908  0.3163 -0.1445  0.0227
20662W        W63715  30.370  24.986  27.561  0.0363 -0.1902 -0.1101
20663W        W63716  16.316   4.424  10.199 -0.1886 -0.0588 -0.2414
20664W        W63717  30.124   7.092   6.050 -0.3694  0.0348  0.2300
20665W        W63718  14.031  23.512  22.198  0.0248  0.4499 -0.1900
20666W        W63719  29.564  22.739  23.846 -0.0540  0.0589  0.0330
20667W        W63720  25.865  18.700  17.683  0.1355 -0.0588  0.0592
20668W        W63721  34.677   8.670  26.424  0.2992 -0.0730 -0.2022
20669W        W63722  16.174   6.067  17.156  0.1399  0.4212 -0.0883
20670W        W63723  30.819  10.383  21.654  0.3742 -0.2096 -0.2877
20671W        W63724  29.406  25.141   7.234  0.1166 -0.0217  0.0157
20672W        W63725   1.012   6.457  23.447 -0.3487 -0.1134  0.2330
20673W        W63726  31.193   8.656   2.636 -0.1336  0.1642  0.0744
20674W        W63727   6.980  24.486   3.418 -0.3558 -0.3534  0.1786
20675W        W63728   2.664  27.710  23.768  0.1048 -0.1362 -0.0141
20676W        W63729   6.777  11.892   4.590  0.0140 -0.1817  0.0275
20677W        W63730  16.977   6.513  22.760  0.0780 -0.0376 -0.1860
20678W        W63731  29.337   8.445  10.035 -0.1829 -0.1126  0.0003
20679W        W63732  18.425   3.479   8.687  0.0651 -0.0963 -0.0640
20680W        W63733   5.014  17.855   1.737 -0.2882 -0.3445 -0.2541
20681W        W63734   6.626   3.073  18.466  0.1069 -0.0131  0.1325
20682W        W63735  30.229   8.520  23.074  0.1049 -0.1168  0.1668
20683W        W63736  20.230   7.487  25.276 -0.3478  0.2949  0.2111
20684W        W63737   0.314  26.941   5.841 -0.2487  0.1006 -0.0592
20685W        W63738   6.897   5.682  26.061 -0.1384 -0.1448 -0.0161
20686W        W63739  32.256  15.323  18.127 -0.2508 -0.0123 -0.0226
20687W        W63740  24.106   9.118  28.435  0.3033  0.0536 -0.0292
20688W        W63741  29.974  32.879  26.221 -0.1232 -0.0649 -0.0566
20689W        W63742  32.662  13.904   9.239  0.3747  0.3367  0.0352
20690W        W63743  32.121   6.125  27.766  0.3220  0.1648  0.1774
20691W        W63744  18.931  15.251  28.001 -0.0913 -0.1361 -0.0379
20692W        W63745  33.158  16.438  21.240 -0.2168  0.3533  0.0604
20693W        W63746  26.361  25.414  26.366 -0.3134  0.0952  0.2464
20694W        W63747  19.567  14.243   1.161  0.0681 -0.1152  0.0878
20695W        W63748  31.822  31.079  23.507  0.0846 -0.2647 -0.5196
20696W        W63749  21.720  15.604   5.574  0.1238  0.0285 -0.2979
20697W        W63750   9.674  27.102   5.788 -0.5573  0.1762 -0.0742
20698W        W63751  21.061  12.198  28.975  0.0943 -0.0287  0.1487
20699W        W63752  27.035  25.728   1.590 -0.0611 -0.1215  0.0103
20700W        W63753  27.880  17.851  28.989  0.1172  0.0025  0.2528
20701W        W63754   2.125  34.633   2.381  0.2855  0.2332 -0.0010
20702W        W63755  23.666  18.998  17.418 -0.0647 -0.2913 -0.0458
20703W        W63756   1.906  18.033   2.621  0.0438 -0.2033  0.1782
20704W        W63757  26.441  13.262  19.691  0.0171  0.0256  0.0857
20705W        W63758  25.563  10.964  16.288 -0.1132  0.2951 -0.0857
20706W        W63759   6.385  13.194   0.311 -0.1086 -0.3942  0.1481
20707W        W63760  27.386  33.150  22.499 -0.2319 -0.4414  0.0519
20708W        W63761  34.371  24.387  26.423  0.1545 -0.0371  0.2006
20709W        W63762  15.074   8.793  22.734  0.0718  0.3672  0.4217
20710W        W63763  28.035   2.403  26.948 -0.1081 -0.0716 -0.2352
20711W        W63764  17.386  10.724  18.085 -0.2565  0.2345 -0.0563
20712W        W63765  29.353  19.107  17.102  0.4511  0.0421  0.1790
20713W        W63766  28.015  15.997   1.637  0.0519 -0.2841 -0.1758
20714W        W63767  16.092  21.119  14.649 -0.0542  0.3154  0.1305
20715W        W63768  23.559  33.788   1.743 -0.0514  0.1875  0.4199
20716W        W63769  31.551   8.898  14.491  0.1769 -0.1286  0.1238
20717W        W63770   0.218  15.113  23.739  0.1089 -0.0391  0.0287
20718W        W63771  20.027  11.729   6.351  0.4225  0.0270 -0.1513
20719W        W63772  12.035  29.705  25.055  0.1569 -0.2724 -0.2551
20720W        W63773  26.922  18.000  20.361 -0.0412 -0.0539  0.1724
20721W        W63774  10.449  14.409  15.643  0.2386 -0.1853  0.4581
20722W        W63775  26.834  14.071  18.241  0.2059 -0.2241  0.2413
20723W        W63776  14.379   4.602   9.927  0.1359  0.2502  0.2990
20724W        W63777  21.619  19.640   8.624  0.1412  0.0583 -0.2323
20725W        W63778  26.498   7.158  25.698  0.4259 -0.1987 -0.1124
20726W        W63779  10.503  32.597   9.255  0.0283 -0.4677  0.0599
20727W        W63780  19.266  11.931  23.452  0.2273 -0.1995 -0.0424
20728W        W63781   2.871  26.985  18.125  0.0641  0.1221 -0.2111
20729W        W63782  32.385  21.862   8.136  0.3188 -0.0710  0.4794
20730W        W63783  27.289  28.469  19.121 -0.0107 -0.0254  0.0710
20731W        W63784  10.914  25.499  13.882  0.1550 -0.0783  0.0395
20732W        W63785  21.259  12.071  23.339 -0.0781  0.1555  0.2731
20733W        W63786  32.129  16.949  24.260  0.3027  0.1866  0.2078
20734W        W63787  17.532  21.297  15.383 -0.3365 -0.4331  0.1013
20735W        W63788  13.344   7.796  18.667 -0.0545 -0.1473 -0.1022
20736W        W63789  18.868  20.113   7.418  0.0949  0.1059  0.1550
20737W        W63790  24.956  17.053  17.904 -0.1541 -0.1791 -0.1623
20738W        W63791  26.966  12.559   8.559  0.0114 -0.0035 -0.2314
20739W        W63792   3.205   9.905   1.290 -0.4460 -0.3505 -0.1590
20740W        W63793  28.923   1.667  14.982 -0.0666  0.0259  0.0515
20741W        W63794  28.513   5.697   5.666  0.0854 -0.2837  0.0881
20742W        W63795   5.888  24.022  26.552 -0.2907 -0.1059  0.3307
20743W        W63796  22.807   2.849  21.118  0.0254 -0.3375 -0.0388
20744W        W63797  20.049  22.207  18.936 -0.0008 -0.1522  0.3525
20745W        W63798  27.258  24.866  24.586 -0.1091  0.1479 -0.0713
20746W        W63799  18.127  16.325   3.103 -0.3812  0.0695  0.0407
20747W        W63800  30.519  23.979   1.025  0.2839  0.2158 -0.4913
20748W        W63801  28.447  15.556  17.092  0.1517 -0.2908 -0.1909
20749W        W63802  15.677   7.731  28.839  0.1676  0.1139  0.1697
20750W        W63803  12.398  23.744   5.866 -0.2943  0.2886  0.0238
20751W        W63804  34.183   6.156  18.751 -0.0984  0.0753  0.0821
20752W        W63805  19.186   7.219  24.346  0.3519  0.0241  0.0005
20753W        W63806   7.146   8.845   2.414 -0.0189  0.0034 -0.0279
20754W        W63807  24.145  12.493   1.974  0.1528 -0.0489  0.0366
20755W        W63808  19.688  14.449  28.022 -0.2291 -0.1621 -0.3393
20756W        W63809  30.959   8.106   9.371  0.2415  0.3040  0.0072
20757W        W63810  23.509   8.506  29.039 -0.0830  0.0363 -0.0304
20758W        W63811  25.313  23.114  20.631 -0.1163  0.0283 -0.2224
20759W        W63812   3.117  23.545   0.352 -0.0046 -0.0067  0.1258
20760W        W63813   3.680   4.802  17.812  0.3261 -0.3701  0.0508
20761W        W63814   0.923  20.111  21.336  0.0153  0.0704  0.1291
20762W        W63815  22.719  16.423   9.253 -0.0346 -0.1926 -0.2890
20763W        W63816  32.041  16.297   2.111  0.0484 -0.0341  0.2321
20764W        W63817  13.384   0.418  19.540 -0.0336  0.1627  0.0416
20765W        W63818  20.075  10.406  20.359 -0.4514 -0.0948  0.1368
20766W        W63819  22.589   1.264  17.104 -0.3100  0.0234 -0.0107
20767W        W63820  19.115  23.814   2.051 -0.0142  0.2130  0.2704
20768W        W63821  13.899   3.456  23.107 -0.0314  0.2614 -0.1554
20769W        W63822  29.578   5.985  19.245  0.0724  0.2239  0.4154
20770W        W63823  12.641  10.391  18.158 -0.1790  0.0561  0.1722
20771W        W63824  19.296  23.012  22.425 -0.4120 -0.1491 -0.1674
20772W        W63825  24.373  29.120  25.884  0.0335  0.1671  0.0413
20773W        W63826  32.805   5.367  15.780 -0.1492  0.0077 -0.1005
20774W        W63827  30.403  19.385   8.002  0.0954 -0.0651 -0.1792
20775W        W63828  25.940  18.714   5.854  0.0894  0.1568 -0.1552
20776W        W63829  28.125  13.440  13.889  0.1631 -0.2698 -0.6057
20777W        W63830  27.263  18.672   7.096 -0.3037  0.3218 -0.2754
20778W        W63831  23.109  10.734  26.725  0.0392 -0.1294  0.1810
20779W        W63832  23.315  12.994   5.988 -0.1464  0.3730 -0.3074
20780W        W63833  31.853  33.472  15.354 -0.1003 -0.1636  0.0504
20781W        W63834   6.249  29.773   8.625  0.2570  0.0622  0.1959
20782W        W63835  22.317  19.951   3.869  0.0350 -0.0402 -0.0784
20783W        W63836   1.564  11.616  17.959 -0.1432 -0.0597  0.3668
20784W        W63837  15.507  13.498   7.722 -0.0645 -0.0803  0.2502
20785W        W63838  31.471   2.769   9.233 -0.0376  0.0223 -0.0623
20786W        W63839  24.297  12.000  21.623  0.2407  0.0461  0.0864
20787W        W63840  16.350  22.846   6.445  0.0101 -0.2474  0.0156
20788W        W63841  17.985   1.725   2.724  0.0183 -0.2121  0.2277
20789W        W63842  11.259  25.618   8.459  0.3838  0.0626 -0.3352
20790W        W63843  23.987  30.653   3.663 -0.0922  0.1398  0.1461
20791W        W63844  28.409  31.215  17.062  0.1029 -0.0443  0.0238
20792W        W63845  25.806  22.734  28.374 -0.0609  0.2415  0.2024
20793W        W63846  13.578  15.873   4.386  0.0480  0.1074 -0.1318
20794W        W63847  29.267   7.691  28.354  0.2803 -0.1079  0.0616
20795W        W63848  33.769   5.935  15.406 -0.1774  0.1680  0.0660
20796W        W63849  14.663   6.498  21.761  0.1019 -0.0328 -0.0532
20797W        W63850  34.092  34.103  26.102  0.0896  0.1927  0.1052
20798W        W63851   2.695  30.086  16.430  0.2662 -0.0572 -0.0437
20799W        W63852  22.187  25.380   1.151  0.1734  0.0738  0.0839
20800W        W63853  10.946  22.822  10.153 -0.0936  0.0249 -0.1939
20801W        W63854  31.210  15.678   3.929  0.0591 -0.1347 -0.5751
20802W        W63855  19.800   3.020  18.337  0.0231  0.0506  0.1154
20803W        W63856  28.420  11.507  21.751 -0.0970 -0.1966 -0.1858
20804W        W63857  18.907   8.140   9.757  0.2256 -0.1585 -0.1590
20805W        W63858   8.424   8.528  27.486  0.2028  0.2471  0.0548
20806W        W63859  23.548   0.607   2.644 -0.1493 -0.0487  0.0989
20807W        W63860  20.823  15.189  21.518  0.1694  0.0171 -0.0984
20808W        W63861  27.647   9.241  18.036 -0.2900 -0.0932  0.2609
20809W        W63862  26.965  27.118   1.613 -0.4033  0.0070 -0.1953
20810W        W63863  15.365  13.285  28.792 -0.0436 -0.0051 -0.0004
20811W        W63864  22.491  19.252  25.898 -0.0919 -0.2919  0.2852
20812W        W63865  32.255   6.851   4.100  0.3143  0.0308  0.0700
20813W        W63866  18.769   1.582  23.074  0.2323  0.0963  0.2398
20814W        W63867  26.561   4.174   8.723 -0.1538  0.0961  0.3830
20815W        W63868  11.809   7.407   8.286 -0.0660 -0.4187 -0.0967
20816W        W63869  18.167  23.989   7.477  0.2923 -0.1788 -0.0673
20817W        W63870  17.353   8.103   0.481  0.0483  0.0704 -0.0781
20818W        W63871  20.160  33.792   3.636  0.1956  0.4921  0.0597
20819W        W63872   3.513  12.577  21.092  0.1587 -0.3026  0.3609
20820W        W63873  25.372   0.903  26.563  0.2491 -0.0155  0.1312
20821W        W63874  21.994  17.539   3.765 -0.3952  0.3235 -0.1141
20822W        W63875   2.458  32.105  24.084 -0.0538 -0.1288 -0.0698
20823W        W63876  21.491  11.179  19.786  0.4849  0.1828 -0.2738
20824W        W63877   9.416   8.789   3.411 -0.0352 -0.0629  0.1662
20825W        W63878  33.081  15.000   7.861 -0.1893 -0.3095  0.1905
20826W        W63879  25.886   0.151  23.427 -0.0478 -0.2806  0.0325
20827W        W63880   9.769  12.084  28.548 -0.1003  0.0457  0.1560
20828W        W63881  16.615  23.618   0.986 -0.1914 -0.3748  0.1590
20829W        W63882  11.171  12.245  16.467 -0.1113  0.0637  0.2227
20830W        W63883   2.745  26.796   6.437 -0.0039 -0.1605 -0.1369
20831W        W63884  17.608   8.502  16.200 -0.0790  0.0829  0.1956
20832W        W63885   3.545   7.048  16.276 -0.1246 -0.1817  0.3031
20833W        W63886  24.292  13.861  26.049 -0.0377 -0.0694  0.0031
20834W        W63887  32.565  22.131   3.205  0.0044 -0.1818 -0.0746
20835W        W63888  33.348  16.682  14.468 -0.2284  0.0824  0.0341
20836W        W63889  25.981   0.199  22.959 -0.1034  0.0410 -0.1298
20837W        W63890  28.112   1.744  20.374 -0.1297 -0.4136  0.2826
20838W        W63891  31.638  10.448  18.481 -0.0271 -0.1333  0.0021
20839W        W63892   0.328   7.968  14.478  0.1414  0.3170  0.0175
20840W        W63893  17.686  22.431   7.752  0.2714  0.0368  0.0645
20841W        W63894  18.490  25.840   6.814  0.1755 -0.0779 -0.0920
20842W        W63895  18.004  13.520  24.586 -0.0741  0.0467  0.0175
20843W        W63896  34.279  11.319   1.678  0.0430 -0.1202  0.2164
20844W        W63897  31.062  14.091  26.432  0.4333  0.0292 -0.0121
20845W        W63898  25.378  28.267   5.490 -0.2464 -0.1075  0.2338
20846W        W63899   7.272  15.012  24.380 -0.1880  0.1670  0.1674
20847W        W63900   6.774  26.972   2.000 -0.3908  0.2378 -0.0544
20848W        W63901   0.140  23.667  27.035 -0.1064 -0.2121 -0.1629
20849W        W63902  21.170  18.289  10.076  0.2888  0.4685 -0.1375
20850W        W63903  29.027   0.194  17.873  0.0539  0.0159  0.0388
20851W        W63904  11.024   2.286  17.909 -0.1565  0.2311  0.3897
20852W        W63905   2.064  16.247  24.272 -0.1306  0.3282  0.5073
20853W        W63906  28.586  18.157  23.856  0.1402  0.1246  0.2230
20854W        W63907   0.004  12.912  24.247 -0.4621  0.2565 -0.2093
20855W        W63908   5.054  10.403  15.474  0.1424 -0.1075  0.1377
20856W        W63909   2.014  28.163  16.390  0.0948  0.1447  0.1954
20857W        W63910  23.380  10.545  23.684 -0.1525 -0.1764 -0.1624
20858W        W63911  20.611   5.353   4.542  0.5370 -0.2597  0.1075
20859W        W63912   1.750   7.820  22.595 -0.1394  0.1147 -0.3037
20860W        W63913  13.151  15.695  25.639 -0.3159 -0.0391  0.0138
20861W        W63914  10.190  17.749   7.191 -0.1118  0.1201 -0.3119
20862W        W63915  10.993  16.220   0.587 -0.1768  0.1196 -0.0290
20863W        W63916  24.852   5.677  17.363 -0.2872  0.2207 -0.3476
20864W        W63917  28.785  14.702  10.797 -0.2124 -0.2143  0.5138
20865W        W63918  17.361  13.204   6.396 -0.0059  0.1811  0.1055
20866W        W63919  14.202  18.350   3.726 -0.1368 -0.1145  0.3857
20867W        W63920  24.113   7.055   1.373  0.3132 -0.0142  0.3287
20868W        W63921  27.889   4.240  20.006  0.1027  0.3205 -0.1377
20869W        W63922  30.845  33.854  24.762 -0.1450  0.1331  0.0083
20870W        W63923  27.502  26.240  28.706  0.1568 -0.3085 -0.0626
20871W        W63924  12.815  18.446  26.730 -0.2371  0.1281 -0.1340
20872W        W63925   4.623   1.606  21.299 -0.1814  0.2362 -0.2113
20873W        W63926  34.289  24.726  25.007  0.3160 -0.1386  0.0129
20874W        W63927  14.861  17.889   7.494  0.2061  0.0891  0.3183
20875W        W63928  20.660   8.730  21.274 -0.2547  0.0697 -0.0650
20876W        W63929  16.256   5.688  10.433  0.1621  0.0524  0.1104
20877W        W63930   2.236   5.200  20.661  0.1287  0.1266  0.2199
20878W        W63931  32.230   7.266   9.335 -0.0235  0.1091  0.1941
20879W        W63932  23.172   7.580  17.821  0.0257  0.1152 -0.3428
20880W        W63933  31.466  29.105  28.402 -0.0080 -0.0122 -0.0240
20881W        W63934  17.075   7.055  28.739 -0.0835 -0.3718 -0.0952
20882W        W63935  28.731  20.275  24.378 -0.1263 -0.0413 -0.0025
20883W        W63936  25.136  17.233  21.289 -0.1026 -0.4940 -0.1695
20884W        W63937  12.158  17.122   6.686 -0.3570 -0.0729  0.5021
20885W        W63938   7.837  14.914  17.523  0.1461  0.2361 -0.0626
20886W        W63939  29.132   3.804   8.982  0.1044 -0.0937 -0.0656
20887W        W63940  25.508  10.026  27.962  0.1381 -0.1680  0.0876
20888W        W63941  29.686   9.652  10.594 -0.4043  0.2296 -0.4647
20889W        W63942  24.740   3.305  26.442  0.2940 -0.1752 -0.3389
20890W        W63943  29.486  10.691  15.060 -0.0469 -0.1577 -0.1347
20891W        W63944   1.451  15.658  28.369 -0.1064  0.0543 -0.0977
20892W        W63945  30.094  20.901   3.437  0.0113  0.1138  0.1198
20893W        W63946  18.066  29.042  19.306  0.1315  0.1830  0.1346
20894W        W63947   1.863   3.427  15.316 -0.0735  0.2655  0.2037
20895W        W63948  32.914  17.052  17.706 -0.1979  0.1377  0.0446
20896W        W63949  28.799   6.391  24.162  0.1924 -0.3151  0.2371
20897W        W63950  32.193  33.924   5.875  0.2928  0.1296  0.0570
20898W        W63951  22.402   6.766  10.405  0.1391 -0.0317 -0.1159
20899W        W63952  21.802  21.727   3.900 -0.0442 -0.0372 -0.1145
20900W        W63953  28.285  14.712   5.526 -0.0142  0.2278 -0.2702
20901W        W63954  23.153  16.364  21.238 -0.1241 -0.1557  0.0838
20902W        W63955  24.234   4.638   0.705  0.2868  0.0054  0.2901
20903W        W63956  22.588   8.010  28.688  0.1127 -0.1172 -0.0682
20904W        W63957  18.533  22.626  16.698 -0.1206 -0.0583 -0.0796
20905W        W63958   9.478  20.176  25.420  0.1082  0.1842  0.0842
20906W        W63959  25.613   4.396  26.442  0.3571 -0.2554  0.0426
20907W        W63960  19.971  21.170  25.100  0.2511  0.2214  0.1970
20908W        W63961  15.634  27.965   0.432  0.0075 -0.2870 -0.0035
20909W        W63962  30.308  28.050   6.910 -0.1948 -0.0211  0.0060
20910W        W63963  15.405  17.601   4.587  0.1267 -0.1837  0.2128
20911W        W63964  19.610  16.505   3.108  0.0234 -0.1477  0.1332
20912W        W63965   8.666   2.022  16.200  0.0474 -0.1706  0.1185
20913W        W63966  29.079  15.367  23.979 -0.0758  0.2060  0.1871
20914W        W63967  14.149  19.832  14.594 -0.4842  0.2455 -0.1008
20915W        W63968  31.663  32.436   6.508  0.0509  0.1007 -0.2925
20916W        W63969  28.979   8.574  16.775  0.0665  0.0723  0.1512
20917W        W63970   5.357  16.330  14.304 -0.2620  0.0702  0.0566
20918W        W63971  16.367  29.349   2.243 -0.0335  0.2454  0.0103
20919W        W63972  30.147  31.383   9.817  0.3086  0.1579 -0.2450
20920W        W63973  34.455  27.661  28.795  0.2793  0.0306  0.2466
20921W        W63974   1.379  15.975  27.334 -0.2696 -0.1729  0.0196
20922W        W63975  28.345  22.856   1.445 -0.0347  0.0758  0.1619
20923W        W63976  31.980   6.853  14.415  0.1005 -0.0468  0.0014
20924W        W63977   5.791   7.778  24.380 -0.2608 -0.0516 -0.0372
20925W        W63978  13.277  22.475   1.061  0.1080 -0.0873 -0.1872
20926W        W63979  27.877   3.199   4.250  0.0019 -0.4362 -0.1593
20927W        W63980  34.184  18.768   8.483 -0.0411 -0.0859 -0.0018
20928W        W63981  22.993   8.858   9.290  0.1988  0.4404  0.0110
20929W        W63982  15.637   9.572  18.157  0.0538 -0.1007 -0.0120
20930W        W63983  27.856   4.521   7.006 -0.4360 -0.0370 -0.0212
20931W        W63984  27.002  29.926   3.255 -0.1954  0.3303 -0.0966
20932W        W63985   0.381  13.339  18.376 -0.0344  0.1520  0.1790
20933W        W63986   5.014  23.426   3.691 -0.0189 -0.1860  0.2759
20934W        W63987  24.111   0.987   4.365 -0.2066 -0.0820  0.1554
20935W        W63988   0.839  15.545  15.575  0.0278  0.1629 -0.0133
20936W        W63989   3.207  15.068   0.986 -0.0747 -0.0854 -0.0138
20937W        W63990  18.426   7.347   2.855  0.0384 -0.2516  0.1813
20938W        W63991   0.138  16.089  15.397 -0.1202  0.1854  0.1530
20939W        W63992  14.487  20.438   1.000  0.2840 -0.1070 -0.0761
20940W        W63993  26.408  15.086  21.955  0.1555  0.0582  0.4990
20941W        W63994  26.178  31.548  27.646 -0.2935  0.1393  0.0421
20942W        W63995  23.960  29.496   4.300  0.5099 -0.2547  0.1436
20943W        W63996  30.756  23.159  23.919  0.2397 -0.1392 -0.3028
20944W        W63997  24.370  21.611   3.861  0.1685 -0.2190 -0.1168
20945W        W63998  22.816   6.720   4.641  0.1030 -0.1156  0.2714
20946W        W63999  29.316  30.285  28.701 -0.2090  0.0562 -0.2485
20947W        W64000   2.564  17.890  17.805 -0.0247 -0.2680 -0.0792
20948W        W64001  17.187  17.634  27.365 -0.0799  0.4225 -0.2619
20949W        W64002  23.994   6.575   2.558 -0.0112 -0.1439 -0.0081
20950W        W64003  26.366  20.015   0.288 -0.2194 -0.0110 -0.2721
20951W        W64004   8.083  19.756  17.226 -0.0133 -0.3749 -0.1996
20952W        W64005  30.875   8.157   2.324 -0.1069 -0.0890 -0.0831
20953W        W64006  32.157  12.023  17.954 -0.2252  0.0145 -0.0588
20954W        W64007  32.526   0.702  26.056 -0.0561 -0.3496 -0.0266
20955W        W64008  17.929  23.234  28.328  0.2988 -0.1822 -0.0174
20956W        W64009  30.196  18.529  24.223  0.3550  0.1773 -0.2351
20957W        W64010   5.267   3.440  28.005  0.1779  0.0139 -0.0933
20958W        W64011  17.667   6.571  19.940 -0.2689 -0.1698  0.0371
20959W        W64012  25.980  29.184  20.290 -0.1724  0.0719 -0.1326
20960W        W64013  16.931  24.874  18.584  0.0897  0.3051 -0.0299
20961W        W64014  29.370  12.189  19.452  0.2492 -0.0567  0.0962
20962W        W64015   3.193  22.574  20.605  0.1160 -0.2938  0.0814
20963W        W64016  29.180  16.726  27.763  0.4480 -0.0769 -0.0684
20964W        W64017  24.578  16.831  22.292 -0.0929  0.2339 -0.2031
20965W        W64018   0.956  23.290   1.377  0.0106  0.2370 -0.2568
20966W        W64019   7.054  17.629  23.641  0.0621  0.2767 -0.0613
20967W        W64020   7.013  19.519  14.554  0.2446 -0.4788 -0.0305
20968W        W64021  27.651   9.021  19.385 -0.0662  0.0005  0.0677
20969W        W64022  22.236  12.219  15.885  0.3563  0.0442  0.0915
20970W        W64023  31.594  12.906  15.376 -0.0083  0.1452 -0.0009
20971W        W64024  23.015  11.467  22.502  0.2319  0.2423  0.1144
20972W        W64025  11.438  29.205   2.307  0.0264  0.0942 -0.0211
20973W        W64026  31.120  18.056  26.678  0.0438 -0.0802  0.2790
20974W        W64027   9.859   6.562  17.457 -0.2048 -0.2816 -0.2668
20975W        W64028  33.559   8.454  19.306 -0.2293 -0.0284  0.0341
20976W        W64029  22.953  12.789   7.449 -0.0241 -0.2005 -0.0852
20977W        W64030  20.960  32.551  18.206  0.1193  0.0737 -0.1459
20978W        W64031  23.760   1.310   1.783 -0.0751  0.0624  0.0754
20979W        W64032  28.078  16.518  16.535 -0.0702  0.3036 -0.3820
20980W        W64033  27.319   1.660  14.000 -0.0038 -0.0601 -0.0950
20981W        W64034  18.875  28.315  20.831 -0.1253 -0.3216  0.1264
20982W        W64035  31.890   6.400   4.675 -0.0971 -0.0992  0.1007
20983W        W64036  11.171   6.470  16.301  0.1167 -0.2142 -0.0515
20984W        W64037  25.501   1.918  17.157 -0.1522  0.3224 -0.0344
20985W        W64038  19.498  21.581  19.361  0.0175  0.0965 -0.1771
20986W        W64039  27.973  23.619  19.563  0.0142  0.3194 -0.0593
20987W        W64040  31.477  21.310  19.691 -0.2365  0.0377  0.2080
20988W        W64041  24.670  16.627   0.177  0.2290 -0.0683 -0.1956
20989W        W64042  28.153  23.176  16.148  0.0712  0.1861  0.1099
20990W        W64043  23.582   9.517  22.751 -0.0585  0.1058  0.0873
20991W        W64044   3.718   4.131  19.923  0.2333  0.0498 -0.0525
20992W        W64045  13.428  28.542  14.849  0.3335  0.0647  0.1963
20993W        W64046  21.823  12.525  17.673  0.1364  0.2965 -0.0419
20994W        W64047   4.400   8.670  17.454  0.1546  0.0920  0.0943
20995W        W64048  20.090  19.503  15.346  0.0857  0.0024 -0.1651
20996W        W64049   6.071  12.232  24.446 -0.0220 -0.0628  0.2366
20997W        W64050   5.583  23.123  18.987  0.1035  0.2790  0.0099
20998W        W64051  31.109  15.515  19.409 -0.0257  0.2419 -0.0149
20999W        W64052  22.614  31.864  18.822 -0.0868  0.1186  0.3061
21000W        W64053  25.303   1.085   2.969  0.1662 -0.3469 -0.0215
21001W        W64054  21.797  20.642   0.745  0.0057  0.0121  0.1525
21002W        W64055   6.644   8.054  26.157  0.0282 -0.1420 -0.1357
21003W        W64056  33.622  12.532  28.612 -0.1768 -0.2405 -0.0437
21004W        W64057  12.254  19.106  18.047  0.0581 -0.0548  0.0528
21005W        W64058   1.085   8.405  14.712  0.1798  0.0019  0.1423
21006W        W64059  29.747  15.863  22.837 -0.1906  0.0436  0.0040
21007W        W64060  32.465  14.197  22.083  0.1527 -0.2810 -0.1294
21008W        W64061   1.992   5.754  16.529 -0.0611  0.0867 -0.2433
21009W        W64062  22.598  26.721  15.510  0.1624  0.2986 -0.0917
21010W        W64063  24.141  23.439  22.399 -0.2363 -0.0280 -0.2740
21011W        W64064  33.524   5.462  21.841  0.2796  0.0398  0.0897
21012W        W64065  32.106  12.500  19.193  0.0572 -0.1851  0.0280
21013W        W64066  27.355  30.520  14.573  0.0884 -0.0152  0.0748
21014W        W64067  31.193  20.034  26.100 -0.3835  0.0081 -0.3231
21015W        W64068  32.206  13.323  24.053 -0.0562 -0.0159  0.2149
21016W        W64069  10.171  32.726  20.624 -0.1912 -0.1292 -0.3232
21017W        W64070  14.420  18.628   2.088  0.4932  0.1071 -0.0987
21018W        W64071   7.639  16.160  17.483 -0.0914 -0.0012  0.0573
21019W        W64072  23.136  22.726  14.407  0.0219 -0.2084 -0.1575
21020W        W64073  17.325  12.967  21.771  0.1004 -0.1474  0.1062
21021W        W64074  31.718  16.767  14.068 -0.0530 -0.0828  0.0059
21022W        W64075  23.636  12.636  18.941 -0.1218  0.0377 -0.3806
21023W        W64076  28.154   7.296  20.558 -0.0819  0.1958 -0.0636
21024W        W64077  25.249  21.762  23.054  0.0459 -0.0681  0.1339
21025W        W64078  28.158  14.720  16.852 -0.2913  0.0002  0.3268
21026W        W64079  28.854  19.270   8.712 -0.0721  0.0232  0.2935
21027W        W64080  34.396  14.919  23.153  0.0793 -0.1380  0.2541
21028W        W64081  16.676   5.406  15.438 -0.1829  0.0926  0.1630
21029W        W64082  27.927  13.243  18.405 -0.0301  0.0947  0.0787
21030W        W64083  33.074  12.541  20.658 -0.0565 -0.2656  0.2618
21031W        W64084   0.789  12.089   4.464 -0.0569 -0.0387 -0.1154
21032W        W64085  33.036   9.123  21.444  0.0830 -0.0258 -0.3522
21033W        W64086  34.042   6.446  21.824  0.1283 -0.1956 -0.0915
21034W        W64087  23.564  17.763  23.278 -0.0365 -0.0416 -0.0309
21035W        W64088   0.764  30.753  23.850 -0.1036  0.0409  0.0294
21036W        W64089  21.803  33.546  16.853 -0.1952  0.0875  0.0897
21037W        W64090  16.600  33.562  24.124  0.1045 -0.0485 -0.3578
21038W        W64091  27.582  18.184  14.728 -0.2523 -0.0843 -0.1308
21039W        W64092  19.873  33.538  26.134  0.0776 -0.2940 -0.1110
21040W        W64093  29.259  24.362   0.770 -0.0753 -0.0007 -0.0714
21041W        W64094  24.296  11.142  27.843 -0.1601 -0.1517  0.4526
21042W        W64095  24.718   8.854  20.980  0.1435  0.1248 -0.1351
21043W        W64096  23.274  25.470  19.477 -0.0335 -0.0469 -0.0569
21044W        W64097  28.639  21.062  19.121  0.2613  0.1985 -0.1062
21045W        W64098   6.863  20.064  24.734 -0.1786  0.0884 -0.2588
21046W        W64099  21.368  14.299  27.363  0.2476  0.1801 -0.0147
21047W        W64100  30.996  17.515   0.027  0.0005  0.0998  0.0661
21048W        W64101  21.893  23.562  20.436  0.1501 -0.0156  0.3390
21049W        W64102   1.394  11.910  24.116 -0.1588 -0.0302 -0.2167
21050W        W64103  31.289   4.819  28.680 -0.1005  0.0431 -0.0751
21051W        W64104  20.152  27.001  21.877 -0.0978 -0.0826  0.1239
21052W        W64105  28.150  23.159  17.438 -0.1355  0.3622  0.2256
21053W        W64106   1.021  23.291   0.840 -0.0519 -0.0437 -0.1094
21054W        W64107  30.359  11.639  15.547  0.3126  0.1093 -0.2756
21055W        W64108   4.574   5.851  21.900 -0.0233  0.3886 -0.1162
21056W        W64109  13.939  17.733  15.150 -0.1846  0.0432 -0.0392
21057W        W64110   2.931  12.596  13.662  0.2181 -0.2045  0.2520
21058W        W64111  28.606  17.177  21.094 -0.1249 -0.2823 -0.1184
21059W        W64112  34.342  11.857  17.838  0.0345 -0.0607  0.0919
21060W        W64113   5.577  12.967  18.464 -0.2393 -0.1448 -0.1793
21061W        W64114  33.632  18.309  28.974 -0.2050  0.1786 -0.2215
21062W        W64115   1.535  23.463  13.212  0.0270 -0.1604  0.2024
21063W        W64116  31.789  31.038  13.692  0.0137  0.1237 -0.0145
21064W        W64117  32.615  12.359  21.332 -0.4551  0.0066  0.2167
21065W        W64118  24.897   8.450  19.411 -0.0614 -0.1588 -0.0805
21066W        W64119   6.340  23.138  28.929  0.0146  0.2329 -0.1691
21067W        W64120   9.736  32.599  26.815 -0.2476 -0.2436  0.1838
21068W        W64121  22.794  26.563  18.322 -0.3231 -0.0436 -0.1519
21069W        W64122  24.516   0.941   4.685 -0.0709  0.2713 -0.0860
21070W        W64123  22.870  29.540  19.004 -0.0608 -0.0775  0.0468
21071W        W64124  21.091   7.689  25.194  0.2717  0.2574 -0.1958
21072W        W64125   8.848  20.137  18.080 -0.2099 -0.3216 -0.2756
21073W        W64126   0.268   9.385  15.811  0.0209 -0.1652 -0.1847
21074W        W64127  24.064   5.394   4.248  0.2714 -0.0256 -0.0231
21075W        W64128  31.164  12.442  18.724 -0.0191 -0.0901 -0.0801
21076W        W64129  33.964  22.165  16.297  0.0611  0.0273  0.1464
21077W        W64130  27.453  15.966  15.003  0.2270 -0.0444 -0.0815
21078W        W64131  34.663  19.882  23.884  0.1855 -0.3654  0.1371
21079W        W64132   5.096  20.316  16.372  0.2766  0.1024  0.1511
21080W        W64133  26.499  10.031   1.115  0.1430 -0.4896  0.1752
21081W        W64134  22.448  21.695  22.554  0.0904  0.1530  0.1038
21082W        W64135   8.343  15.818   0.657 -0.1322 -0.0121 -0.3045
21083W        W64136   9.475  18.018  18.341  0.2960 -0.0762 -0.5422
21084W        W64137   0.726  33.817  26.487 -0.3353  0.1248 -0.2246
21085W        W64138  32.980  20.666  14.079 -0.0315  0.0998  0.1475
21086W        W64139  26.708  14.632  15.630  0.3716  0.0603  0.1038
21087W        W64140   0.308  32.797   7.096  0.0472  0.1588  0.1089
21088W        W64141  26.643  10.259  16.742 -0.1984 -0.1680  0.2583
21089W        W64142  23.289  19.420  19.725 -0.1067  0.2731 -0.2091
21090W        W64143  26.673  30.373   8.023  0.1254 -0.1833  0.1626
21091W        W64144  32.512   6.094   7.143 -0.0402 -0.0365  0.3173
21092W        W64145  31.198   5.232  20.169  0.0465 -0.0515 -0.2354
21093W        W64146   1.207  11.319   2.877 -0.3152  0.0780 -0.1801
21094W        W64147  33.745   8.041   3.042 -0.1501 -0.0028 -0.0480
21095W        W64148  28.446   4.262  24.572 -0.2817  0.0209  0.0592
21096W        W64149  31.551  20.883  26.473  0.1963 -0.3811 -0.0546
21097W        W64150  31.372  11.667  18.764  0.0694  0.0672 -0.1988
21098W        W64151  24.467  24.868  17.932 -0.0057 -0.1247 -0.1303
21099W        W64152  14.823   9.175  25.857  0.2302 -0.0028 -0.3322
21100W        W64153   9.613  25.349  25.648 -0.0263 -0.2315  0.0346
21101W        W64154   7.258  13.470  26.433  0.1982  0.2668  0.1085
21102W        W64155  21.956  32.403  27.038 -0.1449 -0.0903  0.1743
21103W        W64156  25.057  18.773   7.381  0.0763  0.2158 -0.2301
21104W        W64157   7.773  29.295  13.095 -0.1904  0.2108  0.0187
21105W        W64158  22.957   1.617  21.958 -0.1066 -0.1639  0.1309
21106W        W64159  28.551  24.981  21.104  0.1403  0.2333 -0.0810
21107W        W64160  23.635  21.166  17.652 -0.1031  0.1076  0.0091
21108W        W64161  26.292  11.141  15.609  0.1169 -0.0084  0.5365
21109W        W64162  23.675  14.176   3.518  0.0170 -0.0690 -0.1053
21110W        W64163  31.039  13.429  25.909  0.1101  0.1793  0.1016
21111W        W64164  22.366  25.036   0.817 -0.2211  0.2011 -0.1835
21112W        W64165  21.299  12.698  15.281  0.2001  0.1855  0.0931
21113W        W64166  16.170  23.759  23.237 -0.2365  0.2033  0.4077
21114W        W64167  22.434  25.247  24.086 -0.2700  0.5568 -0.1456
21115W        W64168  26.515  12.900  26.400 -0.1713 -0.1703  0.1494
21116W        W64169  26.830  19.500  16.837 -0.0424  0.3140  0.1729
21117W        W64170  12.041  20.080  22.546  0.3433 -0.3405 -0.1119
21118W        W64171  11.741   2.214  23.048 -0.3194  0.1279  0.1370
21119W        W64172  12.898  22.840  25.776 -0.2432  0.1356 -0.0403
21120W        W64173  28.541  22.557   6.845 -0.1063 -0.1381  0.1756
21121W        W64174  25.949  19.999  19.828 -0.0446 -0.2710 -0.0318
21122W        W64175  24.687  16.901  14.786 -0.1646 -0.1286  0.1223
21123W        W64176  23.556  30.293   0.651 -0.2451  0.0186 -0.0198
21124W        W64177  26.590  12.799  13.788 -0.1032  0.4482 -0.0861
21125W        W64178   0.659  21.318  26.040 -0.1203 -0.2074 -0.0559
21126W        W64179  14.489   5.147  18.401  0.0619  0.1288 -0.0866
21127W        W64180  26.310  20.962  16.774 -0.4224  0.1491  0.3406
21128W        W64181  17.325  11.476  16.809  0.1890  0.1787 -0.0549
21129W        W64182  22.754  18.351   1.213  0.1897 -0.0129  0.0426
21130W        W64183  11.534  13.849  19.647 -0.2013  0.1863 -0.0050
21131W        W64184  24.775  19.040  29.070  0.0799  0.0964  0.3003
21132W        W64185  22.778  23.289  26.462  0.4469  0.2780  0.1561
21133W        W64186  19.600  18.298  13.245  0.0847 -0.1810 -0.3904
21134W        W64187  21.044  15.177  14.167  0.3620 -0.0491  0.2061
21135W        W64188  30.336   9.856  21.508  0.0942 -0.0048  0.0476
21136W        W64189  18.370  11.768  17.360 -0.1836  0.0753 -0.0038
21137W        W64190  29.865  11.878  23.632  0.2011 -0.1938 -0.1187
21138W        W64191  24.917   5.023  18.616  0.0432  0.1048  0.0403
21139W        W64192  12.368  28.402  22.176 -0.2453 -0.0283 -0.3681
21140W        W64193  25.881  27.966  15.143 -0.1487  0.2487  0.1728
21141W        W64194  33.041  23.621   9.799 -0.2748  0.0319  0.0335
21142W        W64195  24.499   4.893  25.089 -0.4074  0.2189  0.0652
21143W        W64196  15.041  32.003   3.717  0.0717 -0.1423  0.1396
21144W        W64197  26.404   9.205  25.892  0.4845  0.0244 -0.0818
21145W        W64198  17.284  25.579  20.291  0.2616  0.2200  0.0012
21146W        W64199   3.516   6.297  23.939 -0.0280  0.2922 -0.3004
21147W        W64200  32.105  10.177  15.878  0.2909  0.5185  0.1971
21148W        W64201   9.874  31.632  27.228  0.1493 -0.0542 -0.1189
21149W        W64202   1.969  15.709  17.526 -0.0389 -0.2228 -0.2286
21150W        W64203  26.235  31.105  24.632  0.0099 -0.1738  0.0422
21151W        W64204   7.063  18.565  25.774 -0.4284  0.1795 -0.0598
21152W        W64205  24.164  11.436   7.248  0.1630  0.0253 -0.1508
21153W        W64206  24.548   7.958  22.966 -0.0093 -0.3284 -0.3250
21154W        W64207  23.985  15.069  21.080  0.0950 -0.1863  0.0184
21155W        W64208  27.638  12.597  15.378 -0.1493  0.1170 -0.0746
21156W        W64209  29.572  24.965  16.407  0.2067 -0.1722 -0.1842
21157W        W64210  24.170  14.339  14.028 -0.0619 -0.0115 -0.0917
21158W        W64211  29.469  18.824  28.164  0.0925  0.3450 -0.0132
21159W        W64212   4.394  25.532  14.179 -0.1993 -0.1641  0.1103
21160W        W64213   9.498  25.346   7.411 -0.1611 -0.3760 -0.4211
21161W        W64214   1.604  10.490  18.508 -0.1709  0.2022  0.1636
21162W        W64215  30.528  17.180  25.708  0.0396 -0.2477  0.1022
21163W        W64216   4.700  34.416  15.137  0.1145 -0.0568  0.2768
21164W        W64217  34.379   6.720  20.437 -0.0748 -0.3409 -0.0717
21165W        W64218  23.753  17.726  24.790 -0.1217 -0.3612 -0.1771
21166W        W64219  31.779   9.383  14.714  0.1336 -0.1429 -0.2097
21167W        W64220  27.603  31.437  22.209 -0.0894 -0.0786  0.0799
21168W        W64221  21.251  13.742  14.299 -0.1484  0.1827  0.1946
21169W        W64222   4.623   8.257  20.074  0.1117 -0.0247  0.0499
21170W        W64223  27.718  18.645  19.451 -0.2084  0.4524 -0.3047
21171W        W64224  29.547  20.649  18.821  0.3281 -0.0462 -0.0843
21172W        W64225  25.243   0.882  23.605 -0.3966  0.0024  0.2315
21173W        W64226  22.312  16.751  25.842  0.2326 -0.3345  0.0461
21174W        W64227   4.383  24.911  23.159 -0.1050 -0.1708  0.1856
21175W        W64228  33.233   6.697   0.222 -0.0905 -0.1802  0.0786
21176W        W64229  26.899  15.524  17.258 -0.1628  0.1263  0.0783
21177W        W64230  26.737  20.636  24.331 -0.1153 -0.1316  0.1815
21178W        W64231  20.437  20.012  13.216  0.0377 -0.0620  0.1931
21179W        W64232   9.443   3.489   4.657 -0.0735  0.4181 -0.0455
21180W        W64233  29.815   1.361  26.667  0.0065 -0.3037 -0.2245
21181W        W64234  19.919  28.015   0.790  0.0867 -0.0087 -0.0877
21182W        W64235  24.452  13.972  22.894  0.0874  0.1716 -0.2850
21183W        W64236  33.221   4.444  25.285 -0.2340  0.2881 -0.1961
21184W        W64237  11.625   3.265  23.224 -0.1790  0.2533  0.2787
21185W        W64238  13.770   2.690  22.887 -0.0771 -0.0943 -0.0713
21186W        W64239  27.665  18.362  23.811 -0.1299  0.0317  0.0182
21187W        W64240  31.949  27.281  20.352  0.0846  0.1267 -0.0626
21188W        W64241  30.226  12.585  20.058 -0.1745 -0.1645  0.0319
21189W        W64242  28.028  16.706  23.698 -0.1987 -0.0270  0.0159
21190W        W64243  12.713  31.854  19.674  0.1480 -0.1235  0.1127
21191W        W64244  24.660  30.913  22.579  0.2663 -0.1062  0.1335
21192W        W64245  26.616   2.990  13.706 -0.3569  0.1082 -0.0450
21193W        W64246  32.624  27.264  23.606  0.3143  0.0192 -0.2125
21194W        W64247  18.329  12.381  16.929  0.2290  0.0829 -0.1364
21195W        W64248  21.366  24.707  17.497  0.1188  0.2946  0.1738
21196W        W64249  29.405  31.227  21.823 -0.0732 -0.0117 -0.2080
21197W        W64250  22.156   8.469  19.660 -0.0502  0.3130  0.1280
21198W        W64251   2.683  10.058  25.062 -0.3410 -0.0547 -0.1402
21199W        W64252  28.754  33.964  24.474  0.1288  0.2988  0.2959
21200W        W64253   6.872  11.319   2.093 -0.0915 -0.1142  0.2507
21201W        W64254  16.201  10.379  17.244  0.1952 -0.1694 -0.1249
21202W        W64255  25.902  21.272  20.966 -0.2584  0.1078  0.1023
21203W        W64256   4.469  13.563  25.656  0.0431 -0.0944 -0.1057
21204W        W64257  32.709  27.367   5.784  0.0038 -0.1032 -0.1594
21205W        W64258  18.698   5.289  21.946  0.0319 -0.1205 -0.1004
21206W        W64259  10.451   9.073  28.580 -0.0276  0.1439  0.1803
21207W        W64260   0.784  18.213  23.087 -0.2551 -0.0837 -0.2131
21208W        W64261  19.112   9.744  22.217 -0.0177  0.2657 -0.1800
21209W        W64262   4.606  11.940  17.490  0.0137  0.0888  0.2265
21210W        W64263  20.345  12.867  19.993  0.0690 -0.0354  0.1781
21211W        W64264  28.513  31.335  13.490  0.0806 -0.0529 -0.0079
21212W        W64265  33.919  10.164  17.231 -0.0004  0.1449 -0.0424
21213W        W64266   9.300  27.178   0.092 -0.2513  0.0171 -0.1095
21214W        W64267  19.887  15.558  23.174 -0.1005  0.0009  0.0294
21215W        W64268   1.747  12.431  20.014  0.0276 -0.1331  0.0422
21216W        W64269   0.576  11.332  24.087 -0.0117  0.4340 -0.1629
21217W        W64270  27.630  20.499  16.613  0.0871 -0.0028 -0.0060
21218W        W64271  18.969   8.035  16.320  0.1191  0.0075 -0.1365
21219W        W64272  25.222  23.955  24.420  0.0967  0.0471 -0.0938
21220W        W64273  31.082  22.341  16.086 -0.0634 -0.3305  0.0183
21221W        W64274   8.097  23.720  24.546 -0.1590 -0.1234  0.1070
21222W        W64275  21.245  12.411  26.173 -0.1197  0.1976  0.0216
21223W        W64276  27.489  17.012  18.525  0.3837 -0.1652 -0.0369
21224W        W64277   1.553  18.022  27.183 -0.1520 -0.0061 -0.1755
21225W        W64278  22.799  20.636  16.928  0.0617 -0.3544  0.1343
21226W        W64279  27.113  14.167  24.276 -0.1636 -0.1346  0.0336
21227W        W64280  28.137   9.821  15.573  0.1326 -0.0158 -0.2360
21228W        W64281   1.722  32.526  16.990  0.0162 -0.1159  0.1248
21229W        W64282  29.808  17.323  19.238  0.1956 -0.0002 -0.2629
21230W        W64283   4.499  21.130  25.120 -0.4325 -0.2023  0.0741
21231W        W64284   2.781  24.067  18.119 -0.2460  0.0151  0.0782
21232W        W64285  13.435   3.732  19.202  0.0956 -0.0725  0.0332
21233W        W64286  32.416   8.970  20.352  0.1669 -0.0144  0.4661
21234W        W64287  28.513  21.632  17.476 -0.0516 -0.2323  0.0257
21235W        W64288   2.937  17.425  14.946  0.2610  0.0085 -0.0386
21236W        W64289  19.147  12.824  13.997 -0.2569 -0.2300  0.0944
21237W        W64290   3.354  15.772  16.816 -0.2507 -0.2280  0.2698
21238W        W64291   3.324  26.069  17.748 -0.1656 -0.0689 -0.0680
21239W        W64292   0.367  11.607  27.149  0.1261  0.2819  0.0487
21240W        W64293  27.748  26.497  14.612 -0.0621 -0.2519  0.1456
21241W        W64294  21.336  15.993  19.547  0.0047  0.0560 -0.0877
21242W        W64295  19.086  20.995  28.074 -0.1954 -0.2922  0.1355
21243W        W64296  28.891  12.833  16.802  0.1066  0.3192 -0.2761
21244W        W64297  30.581   9.591  23.280  0.1094 -0.1505 -0.2713
21245W        W64298  34.368   8.432  22.674  0.1934  0.2542  0.3418
21246W        W64299  32.880  15.949  14.698  0.0985  0.0545  0.0435
21247W        W64300  30.761  18.067  27.723  0.0993  0.1545 -0.1308
21248W        W64301   5.960  13.669  18.860  0.0672  0.0314 -0.1560
21249W        W64302  20.984  31.658  17.122  0.2061 -0.3044 -0.0083
21250W        W64303   4.876  21.036  20.632  0.0440 -0.0388 -0.0299
21251W        W64304  26.845  26.528  17.013 -0.0218  0.2958  0.2013
21252W        W64305  28.302  31.508  20.735 -0.2068  0.2624  0.2006
21253W        W64306   2.866  31.862  22.583  0.0968 -0.2439 -0.0247
21254W        W64307  34.603  18.732  14.318  0.0364 -0.3025  0.1177
21255W        W64308   3.380  16.447  19.749  0.0785  0.0351 -0.2829
21256W        W64309  16.851  27.038  19.269  0.0221 -0.0641  0.1552
21257W        W64310  32.011   9.023  27.726 -0.2615 -0.1395 -0.0333
21258W        W64311  28.652  12.483  18.732 -0.1169 -0.0486 -0.0007
21259W        W64312   0.587  16.246  17.949 -0.1318  0.2532  0.2284
21260W        W64313  33.761  26.362  13.768 -0.0062 -0.0899 -0.0482
21261W        W64314  23.601  26.832  17.315 -0.2844  0.1241 -0.0947
21262W        W64315  24.962  33.603  14.204  0.1348 -0.1875  0.0874
21263W        W64316  12.969  13.175  15.429  0.0838  0.4845  0.0793
21264W        W64317  28.139   1.719  24.107 -0.2009 -0.0070  0.1296
21265W        W64318  32.887  15.936  18.511 -0.2035 -0.1435  0.0576
21266W        W64319  26.712  12.180  21.383  0.1171  0.0248  0.1551
21267W        W64320  28.911   5.939  23.936  0.1414  0.2841 -0.0509
21268W        W64321  30.853  24.039  16.724  0.0968 -0.0518  0.1838
21269W        W64322   0.448   6.055  15.651  0.0929 -0.3182  0.2317
21270W        W64323   1.642  11.516   2.947 -0.2179  0.0941 -0.0455
21271W        W64324  28.780   2.122   1.105 -0.0273  0.0479 -0.0096
21272W        W64325  15.220  25.881  23.994 -0.1710  0.3163  0.2238
21273W        W64326  12.209  19.054  14.826 -0.3608 -0.1575  0.3227
21274W        W64327  31.014  33.670   4.843  0.1781 -0.2181  0.0787
21275W        W64328  34.040  11.788  19.820 -0.1977 -0.1393 -0.0675
21276W        W64329  15.023  20.428  20.399  0.0391 -0.0485 -0.3928
21277W        W64330  19.289   8.941  18.461 -0.0281  0.1201 -0.0353
21278W        W64331   0.524   9.010  21.903 -0.1090  0.1127  0.3345
21279W        W64332  24.089  16.881   1.640 -0.1966  0.0467  0.0996
21280W        W64333  28.888  20.839  21.869 -0.4858  0.1715  0.0644
21281W        W64334  30.131   7.032  20.735 -0.2064  0.0700 -0.0906
21282W        W64335  19.889  15.683  16.113 -0.0804  0.2106 -0.0528
21283W        W64336   4.133  29.467  15.071  0.0084 -0.5674  0.0110
21284W        W64337  25.566  16.202  24.309 -0.0333 -0.2202  0.1009
21285W        W64338  32.383  23.205   1.518 -0.1235 -0.0910 -0.2283
21286W        W64339  26.569  14.882  25.628 -0.3877 -0.0202 -0.0226
21287W        W64340  28.030  19.925  20.512  0.3001 -0.0164 -0.0478
21288W        W64341  16.143  13.464  14.436  0.1809  0.4770  0.2287
21289W        W64342   3.092   0.778  17.016 -0.1106 -0.0883 -0.1509
21290W        W64343  32.704  16.565  17.918  0.0437  0.1239  0.3156
21291W        W64344  23.850  33.845  17.939  0.0122 -0.0639 -0.1087
21292W        W64345   0.140  12.791  25.640 -0.2900 -0.2035 -0.2233
21293W        W64346  31.782  34.420  15.479 -0.0571 -0.1449  0.0893
21294W        W64347  34.428  20.538  17.428 -0.3255 -0.2590 -0.1080
21295W        W64348  10.700  23.631  28.693 -0.1244 -0.0271  0.1949
21296W        W64349  11.039   5.515  21.204 -0.0504 -0.1750  0.1413
21297W        W64350  17.816  21.267  17.219 -0.0187 -0.3905 -0.0219
21298W        W64351  19.100  17.342  23.464  0.0995 -0.0034  0.2050
21299W        W64352  13.636  23.104  19.167  0.0126  0.2059 -0.0007
21300W        W64353  32.758  25.727   6.093  0.0259 -0.0330  0.1003
21301W        W64354  22.535   9.486  16.411  0.1152 -0.1409  0.0159
21302W        W64355   2.664  15.310   6.275  0.1350  0.0042  0.1325
21303W        W64356  31.253  32.489  19.455  0.0857  0.0288 -0.4457
21304W        W64357  22.194  14.967  14.911 -0.1346 -0.5131 -0.0258
21305W        W64358  31.806  22.588  16.061  0.0413 -0.4436  0.0948
21306W        W64359   2.218  15.999  18.842  0.0755  0.2477 -0.1063
21307W        W64360  30.433  15.434   3.400  0.0979  0.1771  0.1342
21308W        W64361   1.173  20.280  27.507 -0.2075  0.2246 -0.3343
21309W        W64362  28.023  14.272  27.973 -0.2988 -0.0171 -0.5691
21310W        W64363  27.761  34.683  27.257  0.1528 -0.1490  0.2708
21311W        W64364  25.328   6.940  21.550  0.2483  0.0104 -0.1326
21312W        W64365  33.758   7.531  19.528  0.2266  0.0945  0.1174
21313W        W64366  24.886  21.064  18.178 -0.1030 -0.2107 -0.1953
21314W        W64367  11.279   3.847  23.954 -0.1699  0.0610  0.0177
21315W        W64368  29.427   0.308  16.946 -0.1490 -0.1333  0.1511
21316W        W64369  18.098  27.934  15.032 -0.2685  0.1313 -0.1958
21317W        W64370   5.352  25.770  24.269  0.1110  0.3004  0.2869
21318W        W64371  19.906  22.450   2.634  0.2330 -0.1252  0.3336
21319W        W64372  17.899  10.886  17.672 -0.0448 -0.1855 -0.0079
21320W        W64373  32.465  19.890  24.930  0.2968  0.0499 -0.0730
21321W        W64374  27.901   8.253  19.533 -0.0762 -0.0246  0.1491
21322W        W64375   3.050   4.733  27.804  0.0788 -0.2489 -0.3778
21323W        W64376   9.166   9.624  18.919  0.0950 -0.0123 -0.0314
21324W        W64377  28.448  14.936  18.824  0.1626  0.0779  0.0216
21325W        W64378  15.397  16.846  13.690 -0.1442  0.0379  0.1726
21326W        W64379  27.553   0.173   3.836 -0.1673 -0.4142  0.1064
21327W        W64380   4.394  14.583  15.561  0.0265  0.1246  0.1046
21328W        W64381  21.598  28.088  18.538  0.0584 -0.3980 -0.0843
21329W        W64382   6.247  29.145  27.382  0.0385 -0.3913 -0.1012
21330W        W64383  21.635  17.939  23.301 -0.2039 -0.1035 -0.1387
21331W        W64384  25.232  34.176  16.802 -0.2383 -0.0318  0.0946
21332W        W64385  18.947  13.333  17.747 -0.1397 -0.3616 -0.0574
21333W        W64386   5.830  21.560  13.944 -0.0433  0.1679 -0.1119
21334W        W64387  33.491  12.171  23.714  0.1012 -0.1245  0.0799
21335W        W64388  31.251  19.484   5.003 -0.1653  0.0104 -0.2619
21336W        W64389  21.426  14.192  14.567 -0.2223  0.1140  0.0922
21337W        W64390  16.282   0.938  20.236  0.1641  0.0184  0.1259
21338W        W64391  33.436  20.737  16.107 -0.3791 -0.0369 -0.2044
21339W        W64392   2.419  30.510  12.968 -0.2212  0.0199  0.0276
21340W        W64393   7.289  15.408  17.372 -0.0768  0.0535 -0.1719
21341W        W64394   0.421  24.986  21.451 -0.1703  0.1765  0.1105
21342W        W64395   5.784   9.295   7.799  0.0344  0.1256 -0.2062
21343W        W64396  28.112  12.534  23.341 -0.1749 -0.0384  0.1904
21344W        W64397  34.634  17.476  25.372 -0.0170 -0.2524 -0.1732
21345W        W64398   1.186   2.157  16.533 -0.1008  0.0626  0.4272
21346W        W64399  28.387  34.048   4.704 -0.0668 -0.2006 -0.3178
21347W        W64400  10.039   6.496  15.295 -0.1935  0.2914 -0.0691
21348W        W64401   0.111   8.133  22.501 -0.2010 -0.1300  0.1413
21349W        W64402  21.676  23.562  22.560 -0.0705  0.0800  0.2376
21350W        W64403  24.831  14.728  18.327  0.3323 -0.0671 -0.1394
21351W        W64404  16.445   2.757   5.900 -0.0702  0.1328 -0.1382
21352W        W64405  34.352  20.667  20.173 -0.0427 -0.1993  0.1827
21353W        W64406  11.506  32.485  25.424 -0.1546  0.1989  0.0830
21354W        W64407  19.896   8.642  20.451  0.0754 -0.1162  0.1140
21355W        W64408  31.792  11.540  25.477 -0.1170  0.2739  0.2652
21356W        W64409  27.459  22.616   3.161  0.2292  0.1426  0.0963
21357W        W64410  28.643   7.034  23.923 -0.1560 -0.2307  0.1667
21358W        W64411  19.792  22.603  27.194 -0.0007  0.2541  0.1781
21359W        W64412  31.320  20.557   6.690  0.1895  0.1034  0.2916
21360W        W64413   2.750  23.420  23.741 -0.1361 -0.2791  0.1295
21361W        W64414   5.086  10.017   3.997 -0.0694  0.0255  0.0610
21362W        W64415   2.474  13.178   0.699  0.3657  0.0670  0.1524
21363W        W64416   7.515  18.294  16.998 -0.4634  0.3778 -0.1800
21364W        W64417   1.352  27.542   0.009 -0.0837  0.1811  0.0173
21365W        W64418  34.178  15.378  23.169  0.2198 -0.2096  0.0884
21366W        W64419  23.326  10.754  20.729 -0.1876  0.1007  0.1842
21367W        W64420   0.110  14.170  24.013  0.1950  0.3496  0.0310
21368W        W64421  26.741   2.241  22.255  0.0349 -0.2010 -0.0240
21369W        W64422  13.400  26.821  23.100 -0.1595 -0.0370 -0.0817
21370W        W64423  31.977  16.616  17.559  0.0608 -0.0108 -0.0102
21371W        W64424  28.098  17.248  16.798 -0.1402 -0.2111 -0.3575
21372W        W64425   0.413  17.877   6.070  0.1560  0.2301  0.0692
21373W        W64426  24.172   9.718  14.908  0.2021  0.0482  0.2286
21374W        W64427  32.905  11.598  23.181  0.1810  0.1784  0.2472
21375W        W64428  31.363  15.832  22.223 -0.0438  0.1803  0.3623
21376W        W64429  28.261  14.468  19.937  0.1697 -0.0086  0.0806
21377W        W64430   2.883  26.425  17.855  0.0690  0.1391 -0.3419
21378W        W64431  10.370  25.267  26.893 -0.0751  0.2463 -0.2110
21379W        W64432  25.102   7.229  23.187 -0.0014  0.0533  0.0715
21380W        W64433  34.498   7.084  24.268 -0.0479 -0.1423 -0.0425
21381W        W64434  27.706  18.414  18.398 -0.1945 -0.2331  0.0823
21382W        W64435   4.847  16.615  16.928 -0.0041  0.0148  0.1628
21383W        W64436   2.669  21.124  16.263  0.0855 -0.1273  0.0269
21384W        W64437  33.480  26.484  18.860 -0.1968  0.0410  0.1545
21385W        W64438  34.122  20.845   6.710  0.1475  0.0280 -0.0426
21386W        W64439   4.596  15.787  14.243 -0.3119 -0.0745  0.0758
21387W        W64440  23.680  28.897  14.572  0.3928 -0.2653 -0.1731
21388W        W64441  21.522  20.769  13.715 -0.0198  0.3752 -0.0943
21389W        W64442  22.496   7.686  19.672 -0.1767  0.1000 -0.3500
21390W        W64443  14.274  23.765  20.011 -0.0953 -0.2072  0.0708
21391W        W64444  13.753   2.723  19.093  0.1639  0.2114 -0.3393
21392W        W64445   3.402   2.068  21.543  0.1185 -0.3063  0.0923
21393W        W64446  26.081  17.792  18.003  0.0410 -0.1831  0.1148
21394W        W64447  20.752   9.128  21.744  0.1649 -0.2410 -0.2889
21395W        W64448  29.224  20.688  15.231 -0.2384  0.0531 -0.1284
21396W        W64449   3.340   7.064  20.391  0.2125  0.1561 -0.0022
21397W        W64450  26.360   9.833  17.968  0.2302 -0.1430 -0.3126
21398W        W64451   5.385  13.634  19.037  0.1206 -0.2398 -0.2604
21399W        W64452  14.829  25.813   7.283  0.1409  0.0352 -0.1967
21400W        W64453   2.729  24.385  25.058 -0.0312 -0.1438 -0.1453
21401W        W64454  28.940  12.917  14.400  0.0787  0.1075  0.1568
21402W        W64455  34.064   8.934   7.048 -0.0998  0.1561  0.1236
21403W        W64456  21.637  10.913  16.912 -0.1012  0.2020  0.0498
21404W        W64457  31.722  19.645  16.661 -0.3112 -0.3395 -0.0919
21405W        W64458  19.209   3.607   3.418  0.0333  0.0674  0.2709
21406W        W64459  19.728  30.815  21.912 -0.4220  0.1779 -0.0894
21407W        W64460  24.945  11.475  23.148  0.0054  0.1969 -0.2188
21408W        W64461  33.821  25.284  20.023 -0.0569  0.0661  0.1148
21409W        W64462   6.819  14.973  15.763 -0.1629 -0.1063  0.0935
21410W        W64463  24.604  14.268  18.518 -0.0393 -0.0449  0.1770
21411W        W64464  24.763  29.716  14.787  0.3116  0.0836  0.0553
21412W        W64465  29.491  32.674  19.769 -0.1353 -0.0143  0.0050
21413W        W64466  24.571   4.239   1.985 -0.2374  0.0960 -0.0514
21414W        W64467  28.970  21.354  15.919 -0.0475  0.0706 -0.2052
21415W        W64468   0.159  34.005  27.335  0.1328 -0.0831  0.0664
21416W        W64469  18.745  19.910  14.625  0.1032 -0.1078 -0.1354
21417W        W64470  25.283   4.279  13.562  0.1951  0.0672 -0.3041
21418W        W64471  28.517   1.058  24.548  0.1461  0.0839  0.1449
21419W        W64472  32.657   8.345   5.415 -0.2142  0.0908 -0.2011
21420W        W64473   5.614  10.710  20.314  0.1135 -0.0674  0.1522
21421W        W64474   2.634  18.210  15.018 -0.3078  0.0640  0.0921
21422W        W64475  12.457   8.871  15.351  0.0749 -0.1028 -0.1306
21423W        W64476  21.411  10.048  25.820  0.4351 -0.1302  0.3533
21424W        W64477   0.586  30.887  19.202  0.0664 -0.3398  0.0744
21425W        W64478   0.605  22.860  15.766 -0.0973 -0.0742  0.0013
21426W        W64479  24.301  21.650  28.395 -0.1150  0.1163 -0.0529
21427W        W64480  26.213  16.948  18.505 -0.1802  0.2105 -0.2653
21428W        W64481  29.610  30.178  16.377  0.1972 -0.1051 -0.0598
21429W        W64482  30.482  30.178  16.231  0.2087 -0.1073  0.0599
21430W        W64483  26.146  29.623  24.038 -0.0518 -0.2841  0.1852
21431W        W64484  33.309  14.286  19.682  0.0436 -0.0000 -0.2952
21432W        W64485  27.978   8.899  16.450  0.3522 -0.1129  0.1916
21433W        W64486  23.324  11.842   0.376  0.1415  0.1841 -0.0244
21434W        W64487  30.479  33.584  25.980  0.0254 -0.0345 -0.0856
21435W        W64488  22.418  25.247  17.441  0.0331 -0.0002  0.0353
21436W        W64489  11.394  17.298  20.372 -0.3145  0.0655 -0.1375
21437W        W64490  24.029  11.669  19.543 -0.1477  0.1056 -0.3235
21438W        W64491  34.367   8.200  22.228  0.1383 -0.2578 -0.1114
21439W        W64492  15.651  12.090  14.496  0.1604  0.0158  0.0478
21440W        W64493  27.780  24.516  28.355  0.0739  0.2713 -0.1182
21441W        W64494   0.923  14.715   6.299 -0.1576  0.1595 -0.0612
21442W        W64495   1.901  17.525  14.986  0.1960 -0.0745 -0.1354
21443W        W64496  19.731   6.668  17.247  0.1433 -0.0781 -0.1221
21444W        W64497  20.661  17.043  21.631 -0.1671 -0.2356  0.3650
21445W        W64498   3.078  11.226  17.775 -0.0146  0.1883  0.1616
21446W        W64499  19.948   1.758  20.655  0.1384 -0.0970 -0.0740
21447W        W64500  21.970   3.335  26.506 -0.2694 -0.3773 -0.0289
21448W        W64501  18.289  29.169  20.246  0.0338 -0.3502  0.0300
21449W        W64502  23.555  14.149  24.185  0.0809  0.2616 -0.0681
21450W        W64503  31.943  14.475  24.752  0.1465  0.2150  0.0555
21451W        W64504   9.976  14.517  18.108  0.1107  0.0667 -0.0112
21452W        W64505  28.347  24.660  15.007  0.0913  0.1132  0.0817
21453W        W64506  23.799   4.637  23.308  0.2600 -0.0116  0.1333
21454W        W64507  32.390   3.187   1.448 -0.0391  0.2048  0.0807
21455W        W64508  31.384  14.560   3.460  0.0192  0.0575 -0.1101
21456W        W64509  25.218   2.521  25.074  0.0449  0.1609 -0.2169
21457W        W64510   7.468  11.537  19.465 -0.0099 -0.1026  0.1710
21458W        W64511   1.614  18.876  20.911  0.0078  0.0323  0.3267
21459W        W64512  31.195   2.328  14.358 -0.1658  0.0552 -0.2260
21460W        W64513   5.146   7.127  28.494 -0.2412  0.0785  0.0102
21461W        W64514  29.776   2.696  13.897  0.2063 -0.0321  0.0454
21462W        W64515  23.439  34.244  16.789 -0.2980 -0.1967 -0.0028
21463W        W64516   0.768   7.258  26.247 -0.5394 -0.0057  0.1149
21464W        W64517  21.888  16.019  26.979  0.0617  0.0724  0.0485
21465W        W64518  27.825  11.771  19.502  0.1068 -0.0313  0.1480
21466W        W64519   3.869  28.120  19.249  0.1510  0.0945 -0.3418
21467W        W64520   0.277  27.434  23.048 -0.1228 -0.2942  0.2253
21468W        W64521   3.389  13.584  19.517 -0.1691  0.1111  0.1240
21469W        W64522  24.029  17.695  21.604 -0.0672 -0.1250  0.3277
21470W        W64523  29.064   4.286  27.355 -0.1427  0.1297 -0.2157
21471W        W64524   0.653   9.044  22.900  0.0969  0.2854 -0.1169
21472W        W64525  33.811  19.001  23.503 -0.0534  0.0373 -0.0451
21473W        W64526  13.966  27.202  19.056 -0.0168  0.1130  0.3429
21474W        W64527  28.180  19.253  22.834 -0.2365  0.2087 -0.3233
21475W        W64528  24.843  24.616  16.211  0.0173  0.2215 -0.0320
21476W        W64529   8.955  26.748  21.521  0.0983  0.4782 -0.1117
21477W        W64530  22.659  13.137  26.064  0.1970 -0.0442  0.0863
21478W        W64531  21.055  19.734  17.890  0.1546 -0.0122  0.1000
21479W        W64532   5.168  11.864   4.632 -0.1529  0.1084 -0.1848
21480W        W64533   7.433  10.280  22.134 -0.1123  0.1692  0.0582
21481W        W64534  27.865  25.714   1.159  0.0635 -0.0837 -0.0263
21482W        W64535  32.577  22.940  17.785 -0.1263  0.0481  0.3758
21483W        W64536  18.588  10.025   1.736  0.1328  0.0030 -0.0226
21484W        W64537  12.929   6.524  18.743 -0.0920 -0.1038  0.0516
21485W        W64538  23.117   7.443  25.828  0.0015  0.0040 -0.1291
21486W        W64539  34.235  20.242  21.671 -0.3923 -0.1668  0.1408
21487W        W64540  25.873  19.973  21.577  0.1732 -0.0510  0.1790
21488W        W64541  18.706  17.457  14.871 -0.0956 -0.0898 -0.1483
21489W        W64542  34.392   9.881  17.320  0.0515 -0.0030 -0.0654
21490W        W64543   6.734   6.397  14.378 -0.0329  0.0241  0.1176
21491W        W64544  25.605   9.264  23.192  0.0755  0.0497  0.0889
21492W        W64545  20.844  21.995  22.722  0.0374 -0.2688 -0.1171
21493W        W64546  15.428  29.995  15.522 -0.2263  0.0771 -0.1915
21494W        W64547  20.259   1.174   4.531  0.3092  0.1700 -0.3004
21495W        W64548   3.834   9.361  28.093 -0.2739 -0.0353  0.0318
21496W        W64549   5.375  18.299  19.807  0.0214 -0.1744 -0.0963
21497W        W64550  29.558  11.052  24.831  0.0138  0.0275  0.1172
21498W        W64551  32.555   3.944  16.877 -0.4569 -0.0735 -0.0744
21499W        W64552  19.044   0.428  24.649 -0.0343 -0.1042  0.0871
21500W        W64553  22.115  23.957   2.265 -0.0886 -0.2027  0.1293
21501W        W64554  13.508  26.434   0.753 -0.3908 -0.1695 -0.3843
21502W        W64555  10.986  20.450  23.631  0.1477 -0.0151 -0.0002
21503W        W64556   0.030  16.548  26.185  0.1906 -0.0168 -0.0468
21504W        W64557  30.596   8.220   0.072  0.2989  0.0358 -0.1907
21505W        W64558  24.307  12.367   1.056  0.2043  0.1253 -0.0524
21506W        W64559  24.321  32.095  18.376  0.0373  0.1763 -0.0695
21507W        W64560  34.067  17.677  26.132 -0.1345 -0.0548  0.0194
21508W        W64561  34.124  24.751  13.609 -0.0132 -0.2167 -0.2005
21509W        W64562  27.558   9.892  14.417 -0.1015  0.1679  0.0137
21510W        W64563   2.880  19.483  16.329 -0.1827  0.0022 -0.1455
21511W        W64564  30.120  28.270  13.969  0.0336 -0.0411  0.4022
21512W        W64565  30.414  34.504  19.935 -0.2260 -0.0512  0.0004
21513W        W64566  24.492  27.906  17.519 -0.0758 -0.0928 -0.0749
21514W        W64567  13.671  12.447  16.623  0.2484 -0.1133  0.3144
21515W        W64568  22.151  23.819  25.389 -0.0029 -0.0964 -0.0076
21516W        W64569  23.779  31.599  25.241  0.1797 -0.1580  0.2681
21517W        W64570  24.536  28.507  19.653  0.0585 -0.1683 -0.3918
21518W        W64571  24.838   5.525  26.502 -0.3272 -0.2588 -0.4086
21519W        W64572  14.738  25.371  20.388 -0.1433  0.2592  0.2265
21520W        W64573   0.636  20.845  14.878 -0.1072 -0.0846 -0.1791
21521W        W64574  16.943   0.266  28.040  0.0554  0.1009 -0.0241
21522W        W64575  18.519   4.909   4.406 -0.2778 -0.0219 -0.0244
21523W        W64576   3.301  24.528  15.913  0.0739  0.0621 -0.4668
21524W        W64577  16.953   6.868  18.762 -0.0604 -0.0672 -0.1693
21525W        W64578   0.679  17.910  24.207  0.1031  0.2552 -0.0561
21526W        W64579  22.909   7.274   4.032  0.3447  0.0788  0.2584
21527W        W64580  25.908  20.310  16.068  0.1246  0.1038  0.0202
21528W        W64581   1.757   1.369  16.355 -0.1002  0.1289 -0.1560
21529W        W64582  33.715  17.612  24.918 -0.0574  0.0192 -0.0060
21530W        W64583  26.349  23.375  17.049  0.2548 -0.3598  0.3019
21531W        W64584  32.469  19.242  25.507 -0.1090  0.0071 -0.2917
21532W        W64585   3.939  13.014   8.208  0.0951  0.0352  0.0784
21533W        W64586   3.893  24.002  16.584  0.2275  0.1120 -0.1323
21534W        W64587  16.307  19.592  27.124  0.0806  0.0780  0.0509
21535W        W64588  16.519  18.060  13.796  0.0481 -0.2889  0.2241
21536W        W64589  26.689   5.805  16.504  0.0950  0.0084  0.1885
21537W        W64590  30.207  20.065  22.283  0.1476  0.2260  0.1715
21538W        W64591  11.756  17.684  18.390  0.0535  0.1869  0.0131
21539W        W64592  14.761  18.746  23.854 -0.1092 -0.2382  0.0780
21540W        W64593  33.160   9.985  16.176 -0.2351  0.0222  0.3004
21541W        W64594   2.236  20.824  16.233 -0.1222 -0.1150 -0.1693
21542W        W64595  16.655  14.268   8.907 -0.1124  0.0781 -0.2919
21543W        W64596   3.442   5.985  25.346 -0.4276  0.1038 -0.0470
21544W        W64597  13.321   1.733  28.239 -0.0900  0.2333 -0.2966
21545W        W64598  26.451  27.624  23.541  0.1560  0.2032  0.1946
21546W        W64599   8.176  16.515  17.361 -0.1149 -0.1056 -0.2847
21547W        W64600   8.247   5.731  22.571 -0.0368 -0.0817 -0.1998
21548W        W64601  14.129  29.294   6.185 -0.1284 -0.3450  0.0429
21549W        W64602  19.471  23.080  17.683 -0.0029  0.0972  0.1611
21550W        W64603  28.582   8.719  18.744 -0.1598 -0.2961 -0.2245
21551W        W64604  24.080  18.356  17.660 -0.1167  0.0419  0.0680
21552W        W64605  26.830  25.464  16.499 -0.1607  0.0687  0.0836
21553W        W64606  28.921  20.384  17.383 -0.0858  0.3113 -0.3866
21554W        W64607   0.437   7.937   2.696 -0.0369 -0.0732 -0.2737
21555W        W64608  21.825   9.342  19.141  0.0859 -0.0607  0.1475
21556W        W64609   2.334   8.452  18.001  0.1090  0.0915  0.0821
21557W        W64610   9.666   3.272  23.663 -0.1896 -0.3189  0.0678
21558W        W64611  28.149   1.159   0.793 -0.0878 -0.0313 -0.0186
21559W        W64612   6.130  25.254  17.895 -0.3115  0.1876 -0.1602
21560W        W64613  21.209   9.854   2.149 -0.1754  0.0905  0.1688
21561W        W64614   1.978  24.705   1.803 -0.2866  0.2062 -0.0099
21562W        W64615  32.049  19.706  14.849  0.2676 -0.0845  0.0282
21563W        W64616   0.622   5.517  17.640  0.1633  0.2227 -0.0531
21564W        W64617  31.683  20.846  15.818 -0.0538 -0.0101  0.1239
21565W        W64618   1.289  28.616  12.884 -0.1454 -0.0740  0.1468
21566W        W64619  27.113  13.589  15.128  0.2081  0.4492 -0.4312
21567W        W64620  26.238   3.806  17.311 -0.1346  0.0548 -0.2191
21568W        W64621   4.303  22.161  19.395 -0.2285  0.0793 -0.0376
21569W        W64622  26.868   6.212  20.962  0.1237 -0.7597 -0.0141
21570W        W64623  28.840  27.754  18.028  0.6191 -0.0168 -0.1244
21571W        W64624   5.408  11.577   2.675 -0.2520 -0.0122  0.0403
21572W        W64625   1.446  20.367   5.144  0.0157  0.1386  0.0567
21573W        W64626  22.146   7.289  17.711  0.2482  0.2139  0.2095
21574W        W64627   7.772  16.471  20.257 -0.0610  0.1452 -0.1517
21575W        W64628  26.870  21.162   2.099 -0.1880 -0.3858  0.3064
21576W        W64629  25.360   4.631   3.663  0.2804 -0.2243  0.1147
21577W        W64630  30.522   4.088  17.874  0.0353 -0.0372 -0.0895
21578W        W64631  21.012   8.227  26.709 -0.0294  0.0196 -0.2310
21579W        W64632  27.441  13.067  17.049 -0.1032  0.1507 -0.1385
21580W        W64633  23.091  21.047  17.685  0.0976  0.1815 -0.0672
21581W        W64634  16.053  17.290  13.364  0.3647 -0.1690 -0.2227
21582W        W64635  21.224   9.418  29.101  0.3226  0.0262 -0.2652
21583W        W64636  32.139  20.567  20.710 -0.0600  0.0907  0.1020
21584W        W64637   1.878  14.829  13.528  0.0164  0.0687  0.0713
21585W        W64638  26.091  20.103  22.251 -0.4186  0.2579  0.0848
21586W        W64639  30.978   7.971  24.503  0.2412  0.1613 -0.0147
21587W        W64640  34.328  11.157  13.803  0.1274 -0.2883  0.0473
21588W        W64641   2.712  18.899  16.321 -0.1109 -0.1512  0.2140
21589W        W64642  22.521   8.080   5.239  0.3689  0.3088 -0.1270
21590W        W64643   7.934  28.911  21.303  0.2298  0.0356  0.0715
21591W        W64644  29.047  30.849  27.778  0.1737 -0.0100  0.1092
21592W        W64645   3.227  24.677  18.784  0.0260  0.2049 -0.1478
21593W        W64646  13.168  17.279  21.601 -0.1412  0.1709 -0.0847
21594W        W64647  28.038  15.838  17.960 -0.0999 -0.4071  0.1056
21595W        W64648   8.445  17.697  18.482  0.2327  0.0056  0.1951
21596W        W64649  26.864  17.158  22.203  0.0492 -0.1938  0.1177
21597W        W64650  16.764   6.770   1.918 -0.2633  0.0272  0.0942
21598W        W64651   5.695  25.680  21.429  0.0377  0.1287 -0.2862
21599W        W64652  26.788   8.579   0.758  0.0243  0.2022  0.0431
21600W        W64653  27.972  14.336  23.810 -0.1046 -0.1741 -0.3672
21601W        W64654   4.356  21.227   1.204 -0.0321  0.0976  0.3033
21602W        W64655  32.563   4.076   3.294 -0.2366 -0.2078 -0.2624
21603W        W64656  25.433  10.576  25.385  0.0991  0.2007  0.2144
21604W        W64657  19.453  10.626  27.783 -0.1169  0.1292  0.2523
21605W        W64658  30.764   8.122  17.624  0.2083 -0.5330 -0.2529
21606W        W64659   7.876  24.398  24.169  0.2721 -0.2459 -0.0228
21607W        W64660  26.027  18.032  17.389  0.1135 -0.1001  0.0346
21608W        W64661   4.665  16.965   2.298  0.1483  0.1270 -0.4078
21609W        W64662  31.999   8.176  24.604 -0.0797 -0.0691  0.1365
21610W        W64663  28.887  15.203   5.063  0.1125 -0.3392  0.1772
21611W        W64664  31.692  27.401   5.353 -0.0148 -0.0861 -0.1155
21612W        W64665   3.549  25.116   1.575 -0.1908  0.2342 -0.4085
21613W        W64666  11.822  33.215   4.291 -0.1286 -0.0123  0.0596
21614W        W64667   0.166  19.214  15.648 -0.1844 -0.0300 -0.2769
21615W        W64668   7.331  22.959  15.012  0.0080 -0.1922 -0.0879
21616W        W64669  26.116  15.558  25.115  0.1208  0.0704  0.4748
21617W        W64670  24.302  10.092  28.494 -0.0563 -0.0638  0.1293
21618W        W64671  21.149  17.115  24.540  0.2602  0.0120  0.3606
21619W        W64672   5.273  13.692  19.999 -0.1062  0.0942 -0.0763
21620W        W64673  33.837  20.211  21.449  0.1383  0.3867  0.1953
21621W        W64674  26.572  14.249   1.637 -0.0188  0.2871 -0.0468
21622W        W64675  31.243  16.698   6.819 -0.1529 -0.2688  0.2048
21623W        W64676  21.465  16.965  14.487  0.0210 -0.2721  0.4146
21624W        W64677  29.110  31.828  18.699 -0.0903  0.0628  0.2286
21625W        W64678  23.352  20.541   1.594 -0.3797  0.0742 -0.0070
21626W        W64679  20.125  18.436  26.824 -0.0188  0.0721 -0.1179
21627W        W64680  30.783  15.262  25.706  0.1265 -0.2161 -0.1823
21628W        W64681   2.269  11.442  25.979  0.1595 -0.2301  0.1225
21629W        W64682   7.910  23.993  20.432  0.0547  0.2000 -0.1870
21630W        W64683  14.409  11.997   0.604 -0.2661 -0.3806  0.3262
21631W        W64684  27.183  11.977  21.684 -0.3105  0.0789 -0.0137
21632W        W64685  27.073  10.937  18.587 -0.0553  0.0766  0.1877
21633W        W64686  26.985  21.604  19.826 -0.0823 -0.2344 -0.1961
21634W        W64687  29.035  20.903   7.601  0.2118 -0.2857  0.0231
21635W        W64688   8.536   7.174  28.769 -0.0200 -0.2251 -0.1592
21636W        W64689  31.405  15.246  27.091 -0.1804  0.1153  0.0016
21637W        W64690  30.878  22.016  13.607  0.4380  0.3893  0.2843
21638W        W64691  25.015  11.617   6.350 -0.0946 -0.1441 -0.2225
21639W        W64692  27.876  15.624  15.581 -0.0308  0.5617 -0.0399
21640W        W64693   4.346   7.098   0.090 -0.3453 -0.0698  0.1571
21641W        W64694   5.900  24.076  23.916 -0.1055 -0.2634  0.3456
21642W        W64695  18.371  14.667  28.097  0.2784  0.2210 -0.0827
21643W        W64696   7.292  17.171  19.632  0.1058  0.0985  0.1218
21644W        W64697  26.043   5.799  17.060 -0.1108  0.1367 -0.1531
21645W        W64698  27.681  22.948  18.441  0.1305  0.2502 -0.0357
21646W        W64699  21.955  28.821  17.437 -0.0816  0.2467 -0.2596
21647W        W64700   7.908  24.514  19.898 -0.0088 -0.0461 -0.0307
21648W        W64701   1.753   5.125  23.534 -0.1204 -0.1474  0.0870
21649W        W64702  10.231  26.372  20.860 -0.1579 -0.1067 -0.0358
21650W        W64703   0.751  34.651  26.038 -0.3567 -0.1064  0.2238
21651W        W64704  18.124  14.074  26.017  0.1622 -0.1354  0.0925
21652W        W64705   0.560  19.191  26.098  0.4212 -0.1957 -0.1035
21653W        W64706  22.600  17.924  13.430 -0.0370  0.0877 -0.0130
21654W        W64707   4.116  26.428  21.017 -0.1721  0.1403 -0.1487
21655W        W64708  34.602  27.532  14.885  0.1250  0.0572  0.3175
21656W        W64709   7.643  29.950  19.534  0.2256 -0.3177 -0.1115
21657W        W64710  28.035  11.522  16.767  0.0766 -0.0209 -0.1599
21658W        W64711  27.867  25.984  18.354 -0.0122 -0.0412  0.1121
21659W        W64712  27.976  16.456  13.704 -0.2032  0.3400  0.2364
21660W        W64713  33.326  25.522   0.530 -0.0775 -0.1495 -0.0592
21661W        W64714   5.407   7.589  15.265 -0.2067 -0.1590  0.2148
21662W        W64715  27.962  12.678  20.499 -0.3890 -0.2638 -0.2176
21663W        W64716   5.294  31.306  16.956  0.2560  0.1263  0.2158
21664W        W64717  33.190   7.646   4.319  0.0889 -0.2330  0.4146
21665W        W64718  16.688  25.017  27.495  0.1531 -0.2156  0.0417
21666W        W64719  19.659   2.802  28.942  0.0927 -0.0041 -0.1270
21667W        W64720  29.130  10.032  19.254 -0.0052  0.2506 -0.0814
21668W        W64721  34.603  11.471  24.873 -0.0530 -0.1454 -0.2022
21669W        W64722  11.925  27.330  19.900  0.2110  0.0792 -0.2684
21670W        W64723  13.696  15.560  25.086  0.3502  0.3014  0.4955
21671W        W64724   5.729  13.492  19.323  0.0733  0.2294 -0.0915
21672W        W64725  22.746  20.960  20.302 -0.0076 -0.2133  0.1152
21673W        W64726   0.789  21.105  20.551  0.3586 -0.1102  0.0447
21674W        W64727   2.012  18.144  27.092 -0.0454 -0.2969  0.0135
21675W        W64728  27.105  10.736  22.186  0.2551 -0.2350  0.2062
21676W        W64729  33.713   8.472   0.029 -0.1216 -0.2753  0.2436
21677W        W64730  12.168  25.751  25.098 -0.1191 -0.1159  0.0267
21678W        W64731   2.582   7.815  22.419  0.1528 -0.0473  0.0230
21679W        W64732   0.613  19.377  15.681 -0.0115 -0.1969  0.2315
21680W        W64733  24.243  18.365  18.524  0.1677 -0.0920 -0.4687
21681W        W64734  19.725  20.639   2.857  0.3122  0.1719 -0.0733
21682W        W64735  18.661  29.482  21.710 -0.3800 -0.1014 -0.2000
21683W        W64736  23.516  19.572   1.617 -0.1097 -0.2188  0.0198
21684W        W64737  14.987   1.480  17.732 -0.1345  0.1301 -0.4382
21685W        W64738  28.883  13.753   0.915  0.0543 -0.1302  0.3960
21686W        W64739  24.516  28.429  16.316  0.4641  0.2168 -0.0321
21687W        W64740  12.742   4.672  21.298  0.0278 -0.1282  0.0115
21688W        W64741  20.827  20.482  27.648  0.1967  0.0595  0.1557
21689W        W64742  22.851  16.078  22.745  0.0415  0.0148 -0.3874
21690W        W64743  12.191   6.213  15.164 -0.0832  0.1875  0.0112
21691W        W64744  28.173  22.827  15.059 -0.0439  0.1314 -0.1964
21692W        W64745   9.433  11.937  16.476  0.2053 -0.2096 -0.2037
21693W        W64746  31.159   5.829  25.493  0.0364  0.0717 -0.0123
21694W        W64747  32.889  14.426  27.318  0.0783 -0.0840 -0.3114
21695W        W64748  17.725   8.694  20.637 -0.0119 -0.4228 -0.1235
21696W        W64749   5.106   6.911  20.498  0.2439 -0.0393 -0.2823
21697W        W64750  33.048   9.330  24.878  0.0106  0.3265  0.0174
21698W        W64751  27.645  15.666  24.732  0.1825 -0.1095 -0.0434
21699W        W64752  12.435  20.431  23.759 -0.1207 -0.1455  0.1458
21700W        W64753   4.991  27.164  25.132  0.0745  0.2959 -0.0260
21701W        W64754   9.781  29.913  16.420 -0.1012 -0.0225  0.1111
21702W        W64755   2.823  18.359   3.065 -0.0668  0.3506  0.1519
21703W        W64756  26.214   6.987   4.134  0.1267  0.0089  0.3431
21704W        W64757  21.133  30.733  23.894 -0.2681  0.3776 -0.0807
21705W        W64758  29.099  23.446  25.486  0.0374  0.0332  0.0660
21706W        W64759  28.524  29.540  23.167 -0.0059  0.2960  0.3187
21707W        W64760   6.742   5.944  16.018  0.2249 -0.0420  0.3095
21708W        W64761  27.672  34.333  22.680 -0.1771 -0.0143 -0.0147
21709W        W64762  10.500  18.381  17.166 -0.3376 -0.1774  0.1096
21710W        W64763  12.865  17.305  19.732  0.1024  0.1670 -0.0579
21711W        W64764  19.572  24.814  15.762 -0.0443 -0.2157  0.0885
21712W        W64765   0.604  17.848  15.304  0.0089 -0.2152 -0.0221
21713W        W64766  30.509  26.193  20.873 -0.2231 -0.0396 -0.1093
21714W        W64767  32.340  33.766  16.315 -0.0002  0.1322 -0.0942
21715W        W64768  24.387  24.179   2.016  0.0130 -0.4104  0.1013
21716W        W64769   7.720  24.453   1.130 -0.1458  0.2105 -0.1184
21717W        W64770  33.906   1.931  18.944 -0.0339 -0.0210 -0.1371
21718W        W64771  23.296  20.333   4.464  0.2219 -0.1198 -0.0453
21719W        W64772  19.600  18.221  22.420  0.2000 -0.4181  0.0264
21720W        W64773  13.085  26.224  26.976 -0.1440  0.3494  0.0006
21721W        W64774  25.827  12.525  15.648 -0.0582  0.0882  0.2901
21722W        W64775  22.744  25.940  28.025  0.3506 -0.1516 -0.1430
21723W        W64776  32.572  17.891  15.813  0.0474 -0.2275  0.1111
21724W        W64777  14.696   4.465  21.782  0.5686  0.0353  0.3221
21725W        W64778  29.087  19.332  15.282  0.0068  0.1755 -0.1424
21726W        W64779  27.437  19.071  22.812  0.0971  0.4474  0.1456
21727W        W64780  10.524   7.892  22.186 -0.0900 -0.1176  0.2040
21728W        W64781  22.908  21.006  25.846 -0.4105 -0.1447 -0.2175
21729W        W64782  12.574  14.097  16.041  0.2203  0.0921  0.0967
21730W        W64783   1.176   4.738  24.528  0.0101 -0.1579 -0.0423
21731W        W64784  11.127  23.261  23.722 -0.3156  0.2020  0.2152
21732W        W64785   4.016  13.578  17.177  0.0047 -0.0588 -0.0225
21733W        W64786  12.175   3.780   0.858 -0.2829  0.0451  0.3222
21734W        W64787  10.931   0.840  18.664  0.4021  0.1649 -0.0641
21735W        W64788  23.701  23.908  17.459  0.0499  0.1643  0.2405
21736W        W64789  32.001  33.571  18.408  0.2716  0.2548 -0.3603
21737W        W64790   5.014  27.345  18.660  0.3569  0.0386 -0.1451
21738W        W64791  21.873  24.139  23.294 -0.0811  0.0133 -0.0354
21739W        W64792  24.469  17.787  21.382 -0.2316  0.2643  0.2724
21740W        W64793  29.325   9.783  17.253  0.1103 -0.1250  0.0362
21741W        W64794  30.135  16.696  13.560  0.2586  0.1799  0.0157
21742W        W64795  22.744   4.925  26.691  0.1633  0.1065  0.1860
21743W        W64796  20.409  30.297  26.843 -0.0861  0.0440  0.0209
21744W        W64797   2.040  17.920  19.622 -0.2912  0.3925  0.2754
21745W        W64798  29.991  15.228  16.027 -0.2348  0.0844 -0.0007
21746W        W64799   8.544  20.794  20.972  0.0812  0.1064  0.1417
21747W        W64800  21.572  19.177  14.866 -0.1690  0.4089  0.0538
21748W        W64801   0.355  12.559  16.016  0.1055  0.0518 -0.2319
21749W        W64802  24.939  28.272   0.181  0.0474  0.0586  0.0348
21750W        W64803  27.153  18.978  18.973  0.1486 -0.0189  0.0055
21751W        W64804   7.983  20.928  15.683  0.0050 -0.0757 -0.2332
21752W        W64805  23.525  14.830  27.092  0.1844  0.0051  0.1218
21753W        W64806   3.545  11.152  16.992  0.2760  0.0657 -0.0387
21754W        W64807  20.652  20.002  26.794 -0.0544 -0.1464 -0.1923
21755W        W64808  11.979   8.141  24.069  0.3163  0.1984 -0.0845
21756W        W64809  32.927   7.112  29.199  0.0469  0.0824 -0.1310
21757W        W64810  23.173  11.163   0.087  0.0700  0.2445 -0.2250
21758W        W64811  24.281  16.445   0.481 -0.0030 -0.1514  0.2617
21759W        W64812   3.413  12.664  13.638  0.1812 -0.0211 -0.1272
21760W        W64813  24.291  32.173   5.723  0.1027 -0.1103 -0.1452
21761W        W64814  32.681  23.417  17.394  0.2204 -0.1112  0.1941
21762W        W64815   4.165  15.350  28.726  0.5226  0.0126  0.2929
21763W        W64816  24.444  13.606  15.118 -0.1824 -0.1030  0.0066
21764W        W64817  26.698  29.340   4.250  0.1856  0.2195 -0.0702
21765W        W64818  24.514  26.887  25.133  0.0942  0.1317 -0.0718
21766W        W64819  24.811  24.976  21.549  0.1642 -0.1534 -0.0362
21767W        W64820  23.530   8.691  23.868 -0.1375 -0.3125 -0.0031
21768W        W64821  14.353  14.821  26.291 -0.1739  0.0244  0.2349
21769W        W64822  11.151   9.278   3.774  0.0081  0.0839 -0.3002
21770W        W64823   2.365   3.522  28.252 -0.2139  0.0165  0.2005
21771W        W64824   5.219   6.318  26.577  0.3258  0.0841 -0.0528
21772W        W64825   4.527  17.094  24.406 -0.1027  0.0937 -0.1972
21773W        W64826   8.016  11.468  15.408  0.1152  0.1369 -0.1414
21774W        W64827   5.412  15.978  19.614 -0.0331  0.1554  0.2842
21775W        W64828  31.649   6.270  26.837 -0.0564 -0.3313  0.1312
21776W        W64829  19.913  19.871  23.496  0.0416  0.0168  0.0135
21777W        W64830  25.612  13.802  15.636  0.0059  0.2532 -0.2301
21778W        W64831  33.723  11.006  21.809 -0.1067  0.0063  0.0151
21779W        W64832  34.418   4.254  23.159 -0.4051  0.0978  0.2651
21780W        W64833  17.217  15.644   9.400 -0.0094 -0.2093 -0.0284
21781W        W64834  18.828   2.979   9.416 -0.3202  0.0731  0.0103
21782W        W64835   0.112   0.797  21.247  0.0131 -0.0418  0.1592
21783W        W64836  20.696  25.222   0.790 -0.2742  0.2113  0.1772
21784W        W64837  32.334  19.755  14.152  0.1157  0.3147  0.1278
21785W        W64838   2.166   4.133  22.295  0.0149 -0.0738 -0.2524
21786W        W64839  23.219  10.084   7.998  0.2862 -0.0445  0.2919
21787W        W64840  15.126   7.524   4.319 -0.1679 -0.1478  0.0728
21788W        W64841   6.159   6.304   0.876  0.2779 -0.1107  0.3401
21789W        W64842  32.224  18.062  25.953  0.0766  0.0275 -0.0518
21790W        W64843  21.324  26.344  18.472 -0.3817  0.2248 -0.1827
21791W        W64844  34.319  29.032  15.215 -0.0023 -0.1487 -0.3374
21792W        W64845  26.998   3.706   2.831  0.0041 -0.2060  0.0447
21793W        W64846  24.156  32.430  25.522  0.0350 -0.2169 -0.0376
21794W        W64847  29.973   5.686  19.332  0.1350  0.0700  0.0700
21795W        W64848   1.478   5.623   5.114  0.0077 -0.3285  0.0770
21796W        W64849  32.233  21.469  19.499 -0.0722 -0.1714  0.1933
21797W        W64850  34.178  12.964  10.449  0.1323 -0.1292 -0.2406
21798W        W64851  10.825   8.779  25.624 -0.0215  0.1025 -0.0969
21799W        W64852  28.049   3.563  16.866 -0.1367 -0.2584  0.1229
21800W        W64853  23.025  19.010  28.599  0.2220  0.1070 -0.2583
21801W        W64854  15.867   1.673  14.528  0.1011 -0.2670  0.0721
21802W        W64855  31.711   7.668  19.181 -0.2815 -0.1945  0.1167
21803W        W64856  23.958  22.755  23.502  0.3839  0.3916  0.1224
21804W        W64857  19.558  16.647  15.665 -0.0643 -0.3205  0.0128
21805W        W64858  28.014  11.497  26.683 -0.5752  0.1127  0.1248
21806W        W64859  28.679  23.098  17.355  0.3489 -0.0743 -0.1403
21807W        W64860  30.991   3.964  27.297  0.3523  0.2236 -0.2479
21808W        W64861   3.465   0.725  14.712 -0.0247 -0.2066  0.1744
21809W        W64862  31.784  33.871  25.159  0.0408 -0.0920  0.1641
21810W        W64863  30.159  19.483  14.044  0.1475 -0.2288 -0.1593
21811W        W64864  10.122  12.249  16.949  0.0578 -0.1185 -0.1622
21812W        W64865  29.632   6.183  23.481 -0.1103  0.2815 -0.0790
21813W        W64866   6.636  14.272   7.705  0.0865  0.2159  0.0586
21814W        W64867  23.493   8.391   4.415  0.3466 -0.0644  0.1745
21815W        W64868  18.855  14.718   2.829 -0.0357  0.1578  0.2499
21816W        W64869  31.737  23.568  20.272 -0.0113 -0.3089 -0.1635
21817W        W64870  27.687  20.242  27.262  0.0614 -0.1051 -0.0045
21818W        W64871  23.372  15.401  16.822 -0.1254 -0.0552  0.0895
21819W        W64872  20.596  13.424  22.097 -0.1561  0.0563  0.1550
21820W        W64873  22.033  30.391  26.134  0.1208  0.1354  0.1112
21821W        W64874  23.091  21.997   0.790 -0.2158 -0.2098  0.0122
21822W        W64875   3.279  10.868  23.472 -0.0724  0.4001  0.1686
21823W        W64876  19.011   9.967   8.924 -0.1210 -0.2053 -0.1580
21824W        W64877   2.876   5.763  23.196 -0.2226 -0.0483  0.0229
21825W        W64878  31.364  23.205  14.170  0.1268 -0.0184  0.0810
21826W        W64879  23.348  11.278   1.115  0.2133  0.0038 -0.1428
21827W        W64880   6.354  12.210   4.274 -0.2107 -0.1319  0.0472
21828W        W64881  16.730  27.600   2.309 -0.1343  0.2836 -0.3262
21829W        W64882   1.437   2.299  18.152 -0.0841  0.1118  0.1640
21830W        W64883  20.394   6.542  27.987  0.4464 -0.2503 -0.1018
21831W        W64884  15.606  23.712  20.656  0.3555  0.0698  0.2382
21832W        W64885  32.552   6.468   0.483 -0.0620  0.1305  0.1953
21833W        W64886  27.151   2.022   0.884 -0.3051 -0.0569 -0.0284
21834W        W64887   6.005  10.112  19.392 -0.2156 -0.1821 -0.1855
21835W        W64888  29.901  23.502  15.241 -0.0985  0.0243  0.1278
21836W        W64889   2.635  32.878  20.488  0.0243 -0.1242  0.0740
21837W        W64890  31.038  12.291  16.482  0.1808 -0.0549  0.3019
21838W        W64891  21.050  18.172  16.532 -0.2444 -0.2452 -0.0196
21839W        W64892  13.541  16.607  23.533 -0.0861  0.0517 -0.0569
21840W        W64893  33.355  33.067  16.095  0.1836  0.1400  0.1120
21841W        W64894   6.850   8.804  24.086  0.2221  0.0847 -0.0890
21842W        W64895  30.123   9.904  21.945 -0.0318  0.2574 -0.1175
21843W        W64896   5.302  29.899  26.218 -0.0425  0.0386  0.1442
21844W        W64897  14.316  12.321  29.039 -0.1813 -0.1909 -0.2229
21845W        W64898   6.841  15.203  20.987 -0.1797 -0.1380  0.0963
21846W        W64899  33.013  26.665  14.879  0.1278 -0.0802  0.1259
21847W        W64900  32.922   7.523  18.070 -0.1538 -0.2570 -0.0196
21848W        W64901  26.708  16.946   5.863  0.0584  0.1911 -0.0775
21849W        W64902  31.082   6.373   1.982 -0.1098 -0.2327  0.1153
21850W        W64903  15.174  16.113  14.842  0.1267  0.0137  0.0429
21851W        W64904  34.227   0.990  19.123 -0.0790  0.0942  0.0293
21852W        W64905  22.475  25.021   2.183 -0.0044  0.0787 -0.0190
21853W        W64906   1.115   6.546  14.065  0.0700  0.2772  0.1039
21854W        W64907  13.563  10.394  26.167 -0.0807 -0.0845 -0.0525
21855W        W64908  31.512  14.561   4.140  0.3872  0.1625  0.1299
21856W        W64909  22.422  18.391   5.278 -0.0536 -0.0169 -0.0228
21857W        W64910  29.397  18.179  17.366  0.1467  0.0658  0.1891
21858W        W64911   4.203  20.235  18.959 -0.2334  0.6070 -0.0663
21859W        W64912   3.070   8.193  19.025 -0.1110  0.2564  0.2920
21860W        W64913   7.227  24.332  16.595 -0.1056 -0.1969 -0.1169
21861W        W64914  26.984  29.475  16.187 -0.0928 -0.1345  0.1383
21862W        W64915   8.922  26.230   0.889 -0.0662  0.3524  0.3484
21863W        W64916  24.086  24.742   4.645  0.1514 -0.0590 -0.0718
21864W        W64917  15.134  10.775  21.990  0.1794 -0.0684  0.0787
21865W        W64918  33.587  21.229  25.230 -0.2628 -0.1267 -0.1285
21866W        W64919  23.911   8.888   0.743 -0.1042 -0.4356 -0.1935
21867W        W64920  26.655   7.587  25.535 -0.1570 -0.1419  0.0810
21868W        W64921  21.089   4.469  17.459 -0.0132 -0.1174 -0.1161
21869W        W64922  26.781  18.721  16.881  0.2307 -0.2127 -0.1665
21870W        W64923  23.347   9.144  15.049  0.0063 -0.5614  0.2458
21871W        W64924  25.129  18.164  18.703  0.1435  0.0124 -0.0903
21872W        W64925  11.011  22.962  19.047  0.0316 -0.0893  0.0015
21873W        W64926  18.345  25.704  14.911 -0.4465 -0.1816 -0.1338
21874W        W64927  25.592  30.993  22.380  0.0875  0.1758 -0.5631
21875W        W64928  22.417  29.525   5.530  0.3175  0.0809 -0.0703
21876W        W64929  30.227   4.840   4.421  0.2011 -0.0469  0.4966
21877W        W64930  33.356  23.826  27.175  0.3205  0.2321 -0.0885
21878W        W64931  23.251  22.842  19.997  0.0644 -0.1292 -0.3011
21879W        W64932  29.962  18.851  20.237  0.3971  0.3695  0.4554
21880W        W64933   7.641  28.579  13.468 -0.3179  0.2915 -0.2465
21881W        W64934   2.820  14.499  18.980 -0.1925  0.3240  0.2878
21882W        W64935  26.627  17.095  20.293 -0.0521 -0.0967  0.0350
21883W        W64936  15.359  24.924  19.798  0.1392 -0.1942  0.2355
21884W        W64937  20.887  10.969  21.475  0.0474 -0.0681 -0.1563
21885W        W64938   6.813  15.111  21.527 -0.1718  0.0638  0.0485
21886W        W64939  27.274  17.810  23.777  0.1035 -0.2167 -0.0637
21887W        W64940  31.883  14.163  16.441  0.1024  0.0806 -0.0148
21888W        W64941  25.763   6.735  24.632  0.1046 -0.0941 -0.0961
21889W        W64942   0.362  13.152  26.808 -0.0190  0.0146  0.1565
21890W        W64943  25.250  18.697   3.933 -0.2203  0.2282 -0.0153
21891W        W64944  28.202  29.515  16.496  0.2602 -0.4306  0.0910
21892W        W64945  21.891  20.773   8.228 -0.0086 -0.1432  0.0432
21893W        W64946  20.020  15.192  28.564  0.3049 -0.3288  0.2049
21894W        W64947  23.068   6.516  15.179  0.0798  0.1066  0.1869
21895W        W64948  32.409  27.652  20.571  0.0211 -0.0685  0.1536
21896W        W64949  28.520  18.095  17.205  0.1095 -0.1225  0.2395
21897W        W64950  25.040  20.337  17.754 -0.3755  0.2124 -0.0918
21898W        W64951  32.837  17.624   0.365  0.0535 -0.0341 -0.1886
21899W        W64952  16.269  31.341  22.867  0.0306  0.0679 -0.0576
21900W        W64953  22.383  11.969   0.989  0.1057  0.1486  0.0054
21901W        W64954   6.151  10.916   9.755  0.3532  0.1114  0.1674
21902W        W64955   1.832   0.331  20.364 -0.0862 -0.1165 -0.1281
21903W        W64956  15.635  13.431   5.331  0.0343  0.2178  0.2458
21904W        W64957  22.273  17.437  14.944 -0.0558  0.0377 -0.0537
21905W        W64958  24.146   5.853  21.400  0.0042 -0.1013 -0.3702
21906W        W64959  22.387   8.945  18.169  0.0475 -0.0640 -0.0667
21907W        W64960   3.506  31.071  14.629 -0.3729 -0.2349  0.0888
21908W        W64961  12.929  21.619  20.251 -0.1435 -0.0074 -0.3147
21909W        W64962  21.888  20.347  22.321  0.1392  0.1868 -0.0335
21910W        W64963  17.962  14.001   2.121 -0.3907 -0.2175  0.2988
21911W        W64964  24.095  13.038  15.227  0.2870  0.0210 -0.0050
21912W        W64965  30.129  20.621   4.613  0.3153  0.0792 -0.0681
21913W        W64966  32.916  11.341  28.765 -0.0936 -0.0095  0.1541
21914W        W64967   5.374  19.666   1.469 -0.1254 -0.0788 -0.0762
21915W        W64968   3.326   7.107  29.039  0.2439 -0.1386  0.0199
21916W        W64969   0.456  20.874   7.376  0.2129 -0.1155 -0.1614
21917W        W64970   5.918  32.032  20.325 -0.3617 -0.0802  0.0911
21918W        W64971  18.657  12.239  18.185 -0.0848  0.2207 -0.2177
21919W        W64972  18.286  19.297   4.445 -0.0253  0.0002 -0.0734
21920W        W64973  33.805  20.374  21.918 -0.2543  0.0188 -0.3094
21921W        W64974   2.164   2.442   0.879  0.2173  0.0166 -0.3774
21922W        W64975  28.958  14.790  17.995 -0.0632  0.3596  0.0436
21923W        W64976  15.590  16.479  16.005 -0.1522  0.0084 -0.0467
21924W        W64977  26.534  10.734   4.343 -0.0521 -0.0582 -0.5395
21925W        W64978  32.062  27.197  22.688  0.0014 -0.0079 -0.0728
21926W        W64979  17.596  10.639  19.757  0.0392  0.2673  0.4491
21927W        W64980   2.131  25.340  16.180 -0.1872  0.1166 -0.2112
21928W        W64981   0.902  15.845   1.607  0.0620  0.1855  0.7380
21929W        W64982   1.833  14.195  18.773  0.2522  0.1381 -0.0706
21930W        W64983   9.232  14.199  24.429 -0.0723 -0.0048 -0.1368
21931W        W64984  29.397  27.367  23.231 -0.0007  0.2672  0.0111
21932W        W64985  22.414  17.967   0.992  0.0044 -0.2112  0.1199
21933W        W64986  27.054  11.371   0.834  0.1096 -0.1825  0.0851
21934W        W64987  33.998   9.489  16.563  0.0549  0.0940 -0.2276
21935W        W64988  12.030   1.740  24.771 -0.0847  0.1604  0.1447
21936W        W64989  26.986   9.334  27.545  0.3112  0.2042  0.0716
21937W        W64990  23.181  13.621  14.501 -0.1982 -0.2492 -0.1691
21938W        W64991  32.856  13.470  14.987 -0.2554  0.2365  0.1279
21939W        W64992  20.944   7.852  20.160 -0.2027  0.1452 -0.1317
21940W        W64993  29.226  16.886  20.236 -0.0540 -0.0201  0.1271
21941W        W64994  33.963  22.628   5.486  0.0632  0.0731 -0.0133
21942W        W64995  15.840   2.091  19.782 -0.1003 -0.1964  0.2001
21943W        W64996  34.480  21.634  29.049  0.1346  0.0626  0.1548
21944W        W64997  12.229  13.863  18.149  0.1538 -0.1513  0.3620
21945W        W64998  13.358   2.005  28.748  0.0095  0.1260 -0.2057
21946W        W64999  33.980  15.242   9.679 -0.1014  0.2599 -0.1615
21947W        W65000   0.531   8.212  21.673  0.2837 -0.1829  0.1266
21948W        W65001  22.465  19.784  14.844  0.1747  0.2451  0.0347
21949W        W65002  28.720   8.193  19.095  0.1265  0.3454 -0.1271
21950W        W65003  27.678  34.048  20.269  0.1754 -0.1807 -0.3725
21951W        W65004  24.189   7.900  18.833 -0.2124 -0.1280  0.0364
21952W        W65005  12.716  15.023  20.710 -0.2169 -0.4846  0.2309
21953W        W65006  25.493   3.551  24.002 -0.1610  0.1746  0.2827
21954W        W65007  30.596  22.946  20.881 -0.0107 -0.1212 -0.1263
21955W        W65008  15.881  33.071   7.956 -0.0033  0.0071  0.3346
21956W        W65009   3.640  18.635  16.266  0.0388  0.0592 -0.1326
21957W        W65010  23.094   8.301  28.271 -0.3341  0.1327 -0.1948
21958W        W65011   3.897  32.331  18.353 -0.0479 -0.0483  0.1952
21959W        W65012   2.921  34.040  17.267 -0.2865 -0.0269 -0.1292
21960W        W65013  28.842  14.252  17.176 -0.0918 -0.0686 -0.1710
21961W        W65014  27.587  34.440   3.533  0.4095 -0.2994  0.0827
21962W        W65015  32.775   2.234  25.974  0.0399  0.2889 -0.2413
21963W        W65016   3.672  18.929  15.822  0.1843 -0.0669  0.4625
21964W        W65017  29.719  18.470  16.621  0.1601  0.1756 -0.1003
21965W        W65018   3.200  20.289  25.638 -0.2013  0.0666  0.2547
21966W        W65019  26.997   4.555   0.129 -0.4024  0.0367  0.1811
21967W        W65020   4.368  22.133  22.002  0.3191 -0.3204 -0.1090
21968W        W65021   2.665  16.925  24.364 -0.1448  0.1569 -0.1654
21969W        W65022  24.734  26.880  24.019  0.0036 -0.0185  0.1070
21970W        W65023  21.178  17.076  27.624  0.1450  0.0874  0.0875
21971W        W65024  30.894   5.708  13.854 -0.2001  0.2688 -0.4231
21972W        W65025   6.863  13.145   3.968  0.0922 -0.1270 -0.2993
21973W        W65026  15.119  14.533  24.092  0.0066 -0.1260 -0.2516
21974W        W65027  29.633   9.907  16.446  0.1638  0.1076  0.0060
21975W        W65028  32.849  24.125  23.635 -0.0967  0.4572  0.0088
21976W        W65029   2.757  28.325   3.089 -0.1673 -0.1993 -0.0611
21977W        W65030  19.033   4.007  18.854  0.1538 -0.0357 -0.1752
21978W        W65031  19.909   3.819   1.661  0.0175 -0.1006  0.0293
21979W        W65032  25.567  24.633   9.073 -0.1314  0.0387  0.0364
21980W        W65033  31.411  10.186  16.062 -0.0785 -0.1564  0.0932
21981W        W65034   2.841  18.819   6.912  0.1174  0.0054  0.2238
21982W        W65035  27.288  15.453  21.904  0.0443 -0.0700  0.4408
21983W        W65036  20.910  12.945   4.479  0.1347 -0.4976  0.2224
21984W        W65037  21.759  27.381  17.118  0.3693  0.2035 -0.2022
21985W        W65038  24.191  30.042  27.947 -0.2174  0.1442  0.0272
21986W        W65039  31.848  11.835  22.808 -0.0945  0.2848  0.1016
21987W        W65040  13.172   7.414  28.220  0.0991  0.2448  0.1278
21988W        W65041   9.713   4.891  19.486  0.0854  0.0858  0.1624
21989W        W65042  23.746  18.024  13.321 -0.1607  0.0470 -0.1086
21990W        W65043  32.516  21.559   0.949  0.0431  0.2825  0.0948
21991W        W65044  31.532  20.267  24.762 -0.2405 -0.0592 -0.0064
21992W        W65045  20.276   6.873   3.831 -0.1957 -0.2642  0.0349
21993W        W65046  23.660  11.084   2.996 -0.3184  0.0140  0.1654
21994W        W65047  29.923  14.024   6.361  0.0070 -0.1464 -0.2307
21995W        W65048  24.799  11.750   6.857  0.0982  0.0122  0.1745
21996W        W65049  21.602   0.022   5.375 -0.1553 -0.0086 -0.0636
21997W        W65050  11.133  18.452  22.945  0.3098 -0.1570  0.0696
21998W        W65051  33.592  34.403  20.755  0.0224 -0.0287 -0.2190
21999W        W65052  30.021  21.786  16.699 -0.0215 -0.1151  0.2364
22000W        W65053  34.345   8.258  17.741 -0.0677 -0.0386 -0.2072
22001W        W65054  28.423  13.001  22.675 -0.1796 -0.1070 -0.0144
22002W        W65055   8.828   1.909  18.481 -0.1226  0.2241  0.2184
22003W        W65056  20.957  30.645   6.505  0.0381 -0.0267  0.1224
22004W        W65057  11.688  16.555  18.899 -0.1742  0.0316 -0.1449
22005W        W65058  33.946  22.409   6.663  0.1072 -0.3801  0.2095
22006W        W65059   6.694   4.703  24.639  0.0376 -0.0797  0.1209
22007W        W65060  26.162  33.296  16.165  0.0081 -0.2140 -0.0751
22008W        W65061   8.781  19.374  15.692  0.1013  0.0587  0.0075
22009W        W65062  31.933  15.677  18.192  0.0942  0.2820 -0.1601
22010W        W65063  30.376  28.326  19.936  0.1751  0.3076 -0.0548
22011W        W65064   4.604  22.257   4.121  0.1720  0.2336 -0.1886
22012W        W65065  25.082  23.833  18.041 -0.0713 -0.1498  0.0140
22013W        W65066  31.813  23.796  28.095  0.1109 -0.1627  0.0863
22014W        W65067  31.333  21.884  15.224  0.1397 -0.0442  0.0389
22015W        W65068  15.333  18.705  23.702 -0.3483 -0.0447 -0.0084
22016W        W65069  24.511  24.119  14.650 -0.0651 -0.1383 -0.0309
22017W        W65070  29.002  16.399   0.714  0.1328 -0.0740  0.0413
22018W        W65071  16.291  19.138  14.783  0.3320  0.0387 -0.1238
22019W        W65072  22.717  16.407  27.263  0.0891  0.1998  0.2466
22020W        W65073  28.154  10.429  15.159 -0.0265  0.0748 -0.1937
22021W        W65074  20.049  13.503  20.426 -0.2963 -0.1300  0.0437
22022W        W65075  26.157  13.717  22.983  0.0942  0.1756 -0.0841
22023W        W65076   6.509  23.018  26.008  0.2132 -0.2310  0.0410
22024W        W65077  11.302  21.470  17.864  0.1540 -0.1484  0.0587
22025W        W65078  28.205   0.400  26.059  0.0566  0.2084  0.0226
22026W        W65079  14.783  23.310   4.839 -0.2029  0.0812 -0.2449
22027W        W65080  16.585   5.296  17.289  0.1764  0.0611 -0.3446
22028W        W65081  22.491  24.538  25.436 -0.0122  0.3196  0.0356
22029W        W65082  31.587  28.955  16.996 -0.0456 -0.2131 -0.0684
22030W        W65083  32.538   2.400  17.639 -0.1094  0.1726 -0.2496
22031W        W65084   6.779  16.159  14.970 -0.2349  0.6140 -0.0621
22032W        W65085  14.820  24.899  25.771  0.2158  0.0320 -0.0098
22033W        W65086   7.364  22.251  25.690  0.2003  0.0071  0.0620
22034W        W65087  32.043  24.361   1.229  0.3274  0.1257  0.1505
22035W        W65088  14.132  14.226  17.006  0.2568  0.0860  0.1485
22036W        W65089   2.347   4.929   3.469  0.0116 -0.0636 -0.0811
22037W        W65090  25.248  15.898  23.329  0.1468  0.0234 -0.0948
22038W        W65091   3.040  12.680   9.469 -0.1897 -0.0574  0.0378
22039W        W65092  31.143  22.063   1.897 -0.1664  0.2193  0.2843
22040W        W65093  28.835   8.924  20.321  0.1247 -0.0434 -0.0001
22041W        W65094  22.301  32.712  23.947  0.3169 -0.1206 -0.1970
22042W        W65095  23.156  12.983  14.952 -0.0665 -0.2939 -0.3591
22043W        W65096   3.839  11.449  20.045  0.2356 -0.1903 -0.4228
22044W        W65097  32.776  13.822  25.867  0.1135  0.0025 -0.4739
22045W        W65098  31.146  29.762   4.259  0.1346 -0.0984 -0.0689
22046W        W65099  24.109  31.394  29.109 -0.1263  0.1488  0.1186
22047W        W65100   4.635   9.055  24.554  0.1857  0.1446  0.0439
22048W        W65101   6.062   4.682  19.212 -0.3502  0.2419  0.0428
22049W        W65102   3.838  20.249  25.058 -0.1627 -0.0855  0.0555
22050W        W65103  34.176  28.424  16.983  0.1972  0.0807  0.5311
22051W        W65104  33.436  27.691  24.057 -0.1617  0.2594 -0.0729
22052W        W65105  24.732  13.068   5.510 -0.1575 -0.0968  0.0284
22053W        W65106  31.083  17.547  22.616  0.1545 -0.1605  0.3142
22054W        W65107  28.539   9.714  10.089  0.3554  0.0024  0.2279
22055W        W65108   7.744   7.815   1.191 -0.0514 -0.0905  0.0960
22056W        W65109  26.760  21.588   3.688  0.0553  0.0000  0.0447
22057W        W65110  33.754  11.660  18.924 -0.2874 -0.0493  0.3141
22058W        W65111  33.191  15.704   2.224  0.2883 -0.0142  0.0837
22059W        W65112  24.692   7.944  20.717 -0.1750  0.0797 -0.1002
22060W        W65113   5.099   5.979  24.857 -0.2507  0.1840  0.4075
22061W        W65114  27.428  14.114   3.810 -0.2280  0.1041 -0.0908
22062W        W65115  33.112  24.997   8.282 -0.1417 -0.0403  0.1386
22063W        W65116  27.055   5.261  21.506  0.1881  0.0484 -0.1220
22064W        W65117   6.027  19.934   2.851  0.0409 -0.3407 -0.0059
22065W        W65118   1.545  29.020   2.504  0.3607 -0.3566 -0.2108
22066W        W65119  17.586   9.153   6.769 -0.0019  0.1700  0.2333
22067W        W65120  33.865  17.925  15.036 -0.0169 -0.0479  0.1595
22068W        W65121   6.691   6.810   7.056  0.0160 -0.2370 -0.2006
22069W        W65122  12.651  23.684  16.761  0.0268  0.2929  0.0476
22070W        W65123   1.805  27.519  26.193 -0.1588 -0.1367  0.0313
22071W        W65124  25.249   7.563  26.554 -0.1924  0.1068  0.0030
22072W        W65125   3.960   7.750   1.532 -0.0089  0.0078  0.0072
22073W        W65126  26.450  12.207  17.286 -0.1662 -0.1981  0.1707
22074W        W65127  17.629  20.658  21.617 -0.1766  0.0128  0.0945
22075W        W65128   2.196   9.690   7.211  0.0296 -0.0880  0.1040
22076W        W65129  23.050   6.688  14.689  0.3452 -0.1331  0.0142
22077W        W65130  25.945  31.162  21.546 -0.0941  0.2872 -0.2681
22078W        W65131  32.571  19.265  22.300  0.0807  0.0216 -0.1768
22079W        W65132  32.898   6.585   0.971  0.0645  0.1020  0.0307
22080W        W65133  30.241  13.553  16.219  0.0160 -0.1543 -0.0116
22081W        W65134  25.394  10.726  15.836  0.0062  0.1120  0.2616
22082W        W65135  34.406  32.708   4.365  0.1242  0.0562  0.0697
22083W        W65136   5.910  24.423   2.055  0.1796  0.2132  0.0271
22084W        W65137   2.407   7.160  19.845  0.2117  0.3059  0.1839
22085W        W65138  10.282  22.414   0.652  0.1541 -0.2752  0.0122
22086W        W65139   2.567  17.150  23.077  0.0095 -0.2466  0.0621
22087W        W65140  24.752  32.794  22.213 -0.1963  0.0437 -0.1815
22088W        W65141  22.892  21.234  17.257 -0.0333 -0.2171  0.1510
22089W        W65142  27.065   9.886   3.291  0.0237  0.4186 -0.0456
22090W        W65143   3.945   1.216  17.831 -0.0131  0.0004  0.1904
22091W        W65144  10.560  11.460  18.677  0.0928 -0.0179 -0.2090
22092W        W65145   0.990  18.555  14.847 -0.1351  0.1314  0.0526
22093W        W65146   7.450   6.519  15.910  0.1904  0.1585  0.3087
22094W        W65147  26.863   2.037  16.916 -0.2867  0.0138  0.2619
22095W        W65148  21.399   8.412  15.482 -0.2380 -0.1194 -0.1152
22096W        W65149  26.273  17.280  15.831 -0.2064  0.0975  0.1812
22097W        W65150  31.842  25.381  18.929 -0.0726 -0.1752  0.2764
22098W        W65151  32.579  34.027  25.585  0.2073  0.1464  0.2178
22099W        W65152  29.306  27.069   0.308  0.0837  0.0345 -0.2334
22100W        W65153   8.814  17.665  21.804 -0.1955 -0.1916 -0.2255
22101W        W65154  30.771   7.004   1.761 -0.0866  0.1159  0.1742
22102W        W65155  26.821  31.913  17.166 -0.0344  0.1908 -0.0391
22103W        W65156  33.503  11.192  14.344 -0.0235 -0.1724 -0.0378
22104W        W65157  14.680  25.887  21.923 -0.2902  0.0408 -0.0653
22105W        W65158  27.672  19.822  14.296  0.2239 -0.1004 -0.1473
22106W        W65159   0.854   5.859  14.628 -0.1639  0.0661 -0.0369
22107W        W65160  31.098   9.902  16.300 -0.0554  0.0905  0.0442
22108W        W65161  24.877   9.613   6.015  0.4716  0.4435  0.0830
22109W        W65162  23.195   2.525  22.332 -0.0488  0.0245 -0.1615
22110W        W65163  17.632   7.560  26.963 -0.0783  0.3659 -0.2944
22111W        W65164  14.375  27.040  20.184  0.0054 -0.2198 -0.1111
22112W        W65165  26.584  14.820  17.820  0.0411 -0.2254 -0.0002
22113W        W65166  14.052  14.430  13.930 -0.2354 -0.1566 -0.0120
22114W        W65167   1.161  28.231   8.938  0.1832 -0.0437  0.4685
22115W        W65168  21.997  11.801  21.480  0.0586  0.0631  0.0389
22116W        W65169  14.427  19.577  21.150 -0.1796  0.0222 -0.1169
22117W        W65170  32.524  33.440   2.053 -0.4820  0.2325 -0.0233
22118W        W65171  28.239  19.481  17.296 -0.1459 -0.2326  0.0321
22119W        W65172  17.078   7.472  25.912 -0.0426  0.0893  0.0903
22120W        W65173   2.498  12.468  21.453  0.3199 -0.3135 -0.0205
22121W        W65174   0.404  18.596  18.419  0.1273  0.3626 -0.1926
22122W        W65175  27.971  15.684  25.230 -0.1715  0.0260 -0.1265
22123W        W65176  25.001  24.370   8.371  0.1443 -0.1812 -0.0224
22124W        W65177  23.265  20.778  23.442 -0.0923  0.0187 -0.0702
22125W        W65178   1.362   8.448   8.904  0.0545  0.2838 -0.3127
22126W        W65179   9.223  22.922   0.279 -0.1684 -0.0972 -0.0133
22127W        W65180  17.801  23.133  16.240  0.0674  0.0382 -0.0647
22128W        W65181  23.524  19.615  26.070 -0.1323  0.2246 -0.1528
22129W        W65182  30.951  13.930  17.766  0.1513 -0.1948  0.0915
22130W        W65183  21.991  10.170  23.353  0.0656  0.0314  0.1240
22131W        W65184  22.931  19.454   6.505  0.3514 -0.0881 -0.1755
22132W        W65185  18.950   6.868  18.601 -0.1331  0.2706 -0.4131
22133W        W65186  20.863  30.806  23.390 -0.1130 -0.2128 -0.1421
22134W        W65187  30.066  21.029  21.994  0.0190  0.0886 -0.1278
22135W        W65188  29.092  16.388  17.222  0.0863  0.0956  0.0106
22136W        W65189   4.431   5.116  19.259  0.0879 -0.0390  0.0787
22137W        W65190   2.274   5.550  23.931  0.1940 -0.1484  0.3588
22138W        W65191  26.149  21.864  19.074 -0.0188  0.1749  0.1850
22139W        W65192   2.940  23.850  13.212 -0.0136 -0.1085 -0.2956
22140W        W65193  31.946  10.035   8.560  0.2114 -0.2573 -0.1178
22141W        W65194  14.423   7.343   6.005  0.3144 -0.1436  0.1798
22142W        W65195  16.710  13.873  13.676 -0.1496 -0.2996 -0.1965
22143W        W65196  30.710  17.854  15.444  0.0723 -0.1081 -0.4209
22144W        W65197   9.813   1.741  27.382 -0.3076 -0.1136 -0.2249
22145W        W65198  20.404  18.361   9.728 -0.1837  0.0062  0.0416
22146W        W65199   1.713  28.555   0.079  0.0860 -0.0124 -0.0793
22147W        W65200  21.055   5.401  16.761 -0.2030  0.2964  0.0214
22148W        W65201  19.694  24.532   4.408  0.1169 -0.1113  0.1124
22149W        W65202  10.774  21.656   2.618  0.2387  0.4083  0.2646
22150W        W65203  21.714  18.592  18.158  0.1161  0.0854 -0.2482
22151W        W65204   5.628  25.243  17.684  0.0650 -0.2304 -0.4006
22152W        W65205  11.220  18.842   8.109 -0.0232  0.0769 -0.2469
22153W        W65206   3.364  29.580  20.642 -0.0682  0.0001 -0.0135
22154W        W65207  30.604  25.920   0.731 -0.0640 -0.1396 -0.1082
22155W        W65208  15.564  24.558   8.298 -0.1339  0.0410  0.0365
22156W        W65209  28.940  16.245  26.957  0.0655 -0.0388  0.1133
22157W        W65210  31.321  20.630  14.661 -0.3840  0.5210  0.1218
22158W        W65211  23.086  28.059  16.543 -0.2681 -0.0904 -0.1231
22159W        W65212  21.306  25.697  19.514 -0.1228  0.0193  0.3461
22160W        W65213  18.112  23.047  28.871  0.2913 -0.0188 -0.1681
22161W        W65214   1.997   8.967  15.998 -0.2975  0.3299 -0.0073
22162W        W65215   0.591  15.446  27.288 -0.0994  0.0674  0.0591
22163W        W65216  21.799  23.149   1.999 -0.1892 -0.1018 -0.3565
22164W        W65217  19.401  22.732   6.081  0.1138 -0.2520  0.2714
22165W        W65218  28.077   2.810   1.459 -0.2431 -0.1066  0.1689
22166W        W65219  20.370  30.680   1.972  0.1493  0.2903  0.2514
22167W        W65220  20.262  25.801  11.198 -0.1808  0.3162 -0.3523
22168W        W65221  31.492   9.758  15.210  0.0855 -0.1058  0.2804
22169W        W65222  20.851  14.353  27.328 -0.1280  0.3544 -0.0416
22170W        W65223  14.587  22.537   9.180 -0.0915 -0.2072 -0.3015
22171W        W65224  19.602   6.582  16.705  0.1017 -0.1825 -0.0576
22172W        W65225  25.568   4.188   3.479 -0.2308 -0.3040  0.3727
22173W        W65226  10.035  12.225   6.155 -0.1362 -0.0995  0.0881
22174W        W65227  31.487  18.388   9.779  0.3232  0.3300 -0.1842
22175W        W65228  27.125  14.874  23.874  0.1470 -0.0289 -0.2744
22176W        W65229  27.480  30.334   0.020 -0.0626  0.0571 -0.2227
22177W        W65230  32.168  29.749  27.154  0.0342 -0.0425 -0.2009
22178W        W65231  30.961   5.041  18.788  0.0413 -0.3106  0.0212
22179W        W65232  10.327  10.269  15.901  0.4263  0.1103  0.0659
22180W        W65233  26.758  16.325   1.574  0.0451  0.4531 -0.0326
22181W        W65234  25.716  24.528  15.433  0.1432 -0.0623  0.1337
22182W        W65235   0.362  16.407   1.569  0.2803  0.0944 -0.0894
22183W        W65236  29.122  19.380  20.465 -0.4982 -0.3539  0.1873
22184W        W65237  21.076   5.939   3.225  0.0243  0.3145 -0.1523
22185W        W65238   1.538  23.946  26.188  0.2226 -0.0237  0.0522
22186W        W65239  21.568   9.433  14.753  0.0876  0.2051 -0.1327
22187W        W65240   1.382  15.693  21.376  0.1341  0.0152  0.2902
22188W        W65241  26.740  12.818  23.061  0.2316  0.1202 -0.2007
22189W        W65242  26.549  23.265  26.245  0.1126  0.1405 -0.0935
22190W        W65243  25.086  31.143  17.290  0.2896  0.0890 -0.2387
22191W        W65244  33.366  31.874   3.827 -0.0799 -0.0707 -0.2003
22192W        W65245  24.690  22.509  18.219 -0.0949  0.1345 -0.2084
22193W        W65246  18.583  28.775  26.630  0.0075  0.0539 -0.3352
22194W        W65247  27.434   2.787   4.016 -0.1662 -0.0909 -0.0373
22195W        W65248  13.938  27.438  22.402 -0.0612  0.0324  0.3219
22196W        W65249  17.592  26.123   2.617  0.1469 -0.0526 -0.1863
22197W        W65250  34.207  21.137  23.917 -0.0109 -0.0542 -0.0565
22198W        W65251  26.782  14.300  20.197  0.0381  0.1012 -0.0923
22199W        W65252   4.463   1.086   5.724 -0.0280  0.1377 -0.2006
22200W        W65253  33.551   7.920   1.570  0.0475  0.2662 -0.2309
22201W        W65254  25.492   7.147   8.054  0.0606  0.0360 -0.0821
22202W        W65255   1.576  24.350   1.770  0.2021 -0.0747  0.2639
22203W        W65256  12.843  18.856  27.258  0.1980  0.1756 -0.2881
22204W        W65257  30.258  18.737  16.014 -0.2955  0.0737  0.0539
22205W        W65258  20.136   6.196  18.569 -0.3462 -0.0215  0.1032
22206W        W65259  26.907  22.037  15.288 -0.1579 -0.1965  0.0104
22207W        W65260  18.128  30.194   7.372 -0.1039  0.1748  0.0213
22208W        W65261  33.700   8.807  20.853  0.0978  0.1433  0.0017
22209W        W65262  21.533  21.160  25.483 -0.0640 -0.1464  0.2000
22210W        W65263  32.102  16.142  18.509  0.1094  0.2641 -0.3970
22211W        W65264  32.046  31.059   8.177  0.1250 -0.1225 -0.3204
22212W        W65265  14.727   7.004  24.231 -0.2113  0.1458 -0.0371
22213W        W65266  33.308   7.235  19.785 -0.1683 -0.0495 -0.2236
22214W        W65267  27.582  22.252   5.273  0.0451 -0.1342 -0.0939
22215W        W65268  20.287  18.679  24.376 -0.0601  0.1252  0.1094
22216W        W65269   3.221  14.171  17.758  0.1718 -0.1472 -0.2307
22217W        W65270  18.309  32.766   4.169 -0.0184 -0.0823  0.1073
22218W        W65271  33.652  17.440   0.923  0.1478 -0.0702  0.3096
22219W        W65272  25.147  25.302   1.165 -0.0156  0.0760 -0.0997
22220W        W65273  26.545  28.407   4.467  0.0381  0.2376  0.1600
22221W        W65274  31.748  18.040   7.498 -0.2366 -0.1363 -0.1609
22222W        W65275  22.774  26.650  19.869  0.0369 -0.0935 -0.2034
22223W        W65276  26.780   4.234   2.739  0.1474  0.1714 -0.0715
22224W        W65277  34.409  29.670   0.608 -0.2602  0.1241 -0.2861
22225W        W65278  27.682  29.726  21.812 -0.1183 -0.1030 -0.1843
22226W        W65279   0.078  10.501   3.212  0.1331  0.1760  0.1657
22227W        W65280  29.462   0.558   6.171  0.0798 -0.0564 -0.4063
22228W        W65281   0.673  25.708   1.731  0.0873  0.0076 -0.0925
22229W        W65282  17.999  16.499  14.727 -0.2800  0.0214 -0.0872
22230W        W65283   2.730  16.712  23.828  0.1817  0.0591 -0.0464
22231W        W65284  26.967   5.386  14.904  0.0682 -0.2610  0.0495
22232W        W65285  19.589  18.302   2.989  0.1594 -0.0080 -0.0846
22233W        W65286  20.210  13.999   5.374  0.2093  0.1071  0.2626
22234W        W65287  29.577   5.989   7.600 -0.2992 -0.1419  0.0727
22235W        W65288  28.187  22.615   0.498 -0.1695 -0.2548 -0.3694
22236W        W65289  24.229  10.342  16.212 -0.1813 -0.1014 -0.0206
22237W        W65290  26.251  18.937  17.417 -0.0243  0.2986 -0.1582
22238W        W65291  14.047  33.341  18.257 -0.1730 -0.2739 -0.1405
22239W        W65292   6.088  19.168   8.910  0.2308  0.1894  0.0367
22240W        W65293  17.870   6.823  15.707  0.0222  0.0371 -0.4616
22241W        W65294  15.396  34.138  22.699 -0.1998  0.1786 -0.1087
22242W        W65295   0.572  33.555  17.260  0.1419  0.1133  0.1937
22243W        W65296  34.416  20.873   0.501  0.0966  0.0357  0.0284
22244W        W65297  15.714  12.508   0.311 -0.2143  0.1553 -0.0295
22245W        W65298   0.425   4.335  19.903 -0.2005 -0.2764 -0.1585
22246W        W65299   7.617  23.898  14.422 -0.1171  0.1299 -0.0483
22247W        W65300  32.695   9.642  25.075 -0.1121  0.3203  0.2537
22248W        W65301  20.525  27.333   5.239  0.0903  0.0567  0.0530
22249W        W65302  29.565  30.916  20.342  0.0559 -0.1360  0.0188
22250W        W65303   1.191   5.814   9.669  0.0013 -0.2947  0.2316
22251W        W65304  27.993  25.900   8.042 -0.0762  0.1669 -0.0653
22252W        W65305  25.862  26.548  25.782 -0.3177  0.1778  0.2650
22253W        W65306  18.090  26.261  16.807 -0.3577  0.0028  0.0243
22254W        W65307  20.871  16.615  22.615  0.2775  0.0244  0.1812
22255W        W65308  32.303  20.592   3.654  0.3592 -0.1317  0.0874
22256W        W65309  24.510  13.892  19.837  0.1347 -0.1630 -0.1342
22257W        W65310  24.396  24.029  10.837 -0.0423  0.2946 -0.0573
22258W        W65311  28.735  15.594  15.690 -0.0954 -0.1676  0.0421
22259W        W65312  29.539  14.318  20.479  0.0760  0.1310  0.0175
22260W        W65313  33.095  12.397  28.683  0.0257 -0.0235  0.1327
22261W        W65314  29.523  14.131  15.774 -0.1737 -0.0669 -0.5715
22262W        W65315  22.180  22.505   3.842  0.2630 -0.3388 -0.1987
22263W        W65316  11.733   8.613  19.755 -0.1718  0.0551  0.2030
22264W        W65317  22.451   5.053   5.746 -0.1417  0.0382  0.2267
22265W        W65318  23.881   7.388  24.877  0.2968 -0.4938  0.1321
22266W        W65319  31.955   8.790   2.360 -0.0637  0.0686 -0.1751
22267W        W65320  34.476  24.416  19.142  0.1944  0.1661  0.3176
22268W        W65321  33.041  19.466  14.584 -0.0078  0.3993 -0.2451
22269W        W65322   5.941  21.793  28.505  0.0376  0.3132 -0.0606
22270W        W65323  32.544  16.798   1.451 -0.3501  0.1846 -0.1495
22271W        W65324  33.100  13.799   8.139  0.1676 -0.2982 -0.1782
22272W        W65325   0.816   5.782  21.686 -0.1118 -0.0097  0.0361
22273W        W65326  22.905  10.913   5.645 -0.2358  0.0956 -0.1661
22274W        W65327  22.095  22.899   9.042 -0.0993  0.1757  0.1988
22275W        W65328   3.303  15.463   3.927  0.1914  0.0861 -0.0629
22276W        W65329  32.181   3.446  16.198  0.1729  0.2263 -0.0559
22277W        W65330  10.398  23.018   3.505  0.0586 -0.1921 -0.0125
22278W        W65331  17.830  10.608  25.043  0.0187 -0.0200  0.0815
22279W        W65332  25.750  18.536  18.220  0.2241 -0.1644  0.1267
22280W        W65333  21.162  18.628  14.405  0.0405 -0.0667  0.1973
22281W        W65334  21.089  18.590   0.353 -0.1078 -0.0546  0.2736
22282W        W65335  22.963   7.681  28.965  0.2834  0.0619  0.0569
22283W        W65336  25.295  20.791  28.028  0.1808  0.1638 -0.3119
22284W        W65337   9.489  11.598  16.065  0.0746  0.0573 -0.0706
22285W        W65338   0.931   6.668  17.132  0.3070  0.0869 -0.2480
22286W        W65339  23.562  34.475  27.121 -0.2182  0.0386 -0.3040
22287W        W65340   9.890  22.983   3.512  0.0996 -0.2202 -0.1070
22288W        W65341  27.508  11.521   2.418 -0.1351  0.3642  0.1890
22289W        W65342  33.886  17.417   4.010 -0.1091  0.3841  0.0429
22290W        W65343  29.518  23.141  14.657 -0.0672 -0.1044  0.2209
22291W        W65344  27.587  28.425  28.531 -0.0457 -0.0174  0.1898
22292W        W65345   9.360   3.133  23.201  0.1054  0.0273 -0.0197
22293W        W65346  12.282  11.437  16.311 -0.1687  0.1982  0.1509
22294W        W65347  24.342  32.518  19.998 -0.1904 -0.0549  0.3367
22295W        W65348  12.786   2.432  27.920  0.1262 -0.2236  0.0545
22296W        W65349   9.952  14.996   8.163 -0.0570  0.1511  0.0264
22297W        W65350  34.106   3.580  10.390  0.0643 -0.0227  0.0226
22298W        W65351   0.810  16.652  16.706 -0.4432 -0.0148 -0.4872
22299W        W65352  28.488  24.501   1.979  0.0121 -0.0166  0.2252
22300W        W65353  21.838  16.068   3.940  0.0778 -0.0571 -0.0200
22301W        W65354   2.792  13.253  21.158  0.3427  0.0875 -0.1934
22302W        W65355  31.775  20.744   2.165 -0.0727  0.2263 -0.2571
22303W        W65356  33.456  17.350   4.254  0.0912  0.0990  0.1041
22304W        W65357  10.944  24.893  28.650  0.0787 -0.0207 -0.0194
22305W        W65358  19.759   7.485  15.934 -0.1996 -0.2743  0.0072
22306W        W65359   3.296  15.206  18.694  0.0115  0.2167 -0.0447
22307W        W65360  25.879  23.885  20.442  0.0871  0.0234 -0.2093
22308W        W65361  22.159  18.259  18.047  0.0921 -0.1376  0.0389
22309W        W65362  20.017  29.095   2.443 -0.0329  0.1462 -0.0526
22310W        W65363  22.648  22.790  20.931  0.3115  0.0689 -0.0845
22311W        W65364  10.316  17.737  18.000 -0.2758 -0.1112 -0.1917
22312W        W65365  16.564  11.464  15.631  0.1881 -0.0520  0.2344
22313W        W65366  15.912  18.830   1.976  0.1591  0.1188 -0.0575
22314W        W65367  30.260  15.247  10.045  0.1919 -0.1822  0.1389
22315W        W65368  18.153  23.655  10.757  0.0844 -0.0043  0.0454
22316W        W65369  18.680  29.221   2.539  0.0869  0.0938 -0.0597
22317W        W65370  21.568  26.238  23.213  0.0124 -0.1925  0.0648
22318W        W65371   0.877  19.259  17.796 -0.2765 -0.1042  0.1965
22319W        W65372  29.974  21.109  26.884  0.1767  0.0590  0.3967
22320W        W65373  30.913  12.183  15.876  0.0386  0.0545  0.0714
22321W        W65374  12.381  15.377  11.234  0.1312 -0.0466  0.2125
22322W        W65375  25.426  12.181  19.372  0.1612  0.1707  0.0769
22323W        W65376  14.460  26.231  29.019 -0.1446  0.0700  0.3046
22324W        W65377  31.764   5.729   2.817  0.0122 -0.1103 -0.0363
22325W        W65378  31.242  31.563  22.481  0.0659  0.0569  0.0199
22326W        W65379  26.237  10.781  25.868  0.2983 -0.3786 -0.1296
22327W        W65380  33.278  25.890   9.702  0.1977  0.2381  0.1579
22328W        W65381  24.139  23.010  19.864 -0.0672  0.3022  0.0693
22329W        W65382  22.627  20.167  22.470  0.0451  0.2600 -0.3501
22330W        W65383  17.371  32.108   3.526  0.2953  0.0869  0.0986
22331W        W65384  34.049  25.435   5.987 -0.2832  0.0570  0.1316
22332W        W65385  10.128  15.431  22.037  0.0115  0.1637  0.0322
22333W        W65386  33.027  16.195  28.548  0.1287  0.1455  0.0983
22334W        W65387  25.314   2.926   0.174 -0.1629 -0.2747 -0.0807
22335W        W65388  22.993  22.361  26.245 -0.1059 -0.2769  0.1460
22336W        W65389  19.397  23.078   6.967  0.1643 -0.2055  0.4177
22337W        W65390   5.088   1.425   4.111  0.0125  0.0035 -0.2491
22338W        W65391  22.048  22.000  15.275  0.1543 -0.0897 -0.2199
22339W        W65392  26.384  25.776   3.995 -0.0394 -0.1133  0.1987
22340W        W65393  20.343   4.193   3.570  0.2275 -0.1887 -0.2810
22341W        W65394  25.535  21.278  26.769 -0.1577  0.0511  0.2248
22342W        W65395  25.383   8.336   2.038  0.0525 -0.1970  0.3501
22343W        W65396   5.212  27.481  24.732 -0.2759 -0.2273  0.2002
22344W        W65397  25.161   8.297   8.504  0.0783  0.1094  0.0885
22345W        W65398  27.944  10.219  14.683  0.0843 -0.1917 -0.1738
22346W        W65399  25.314  14.799  24.064  0.0452 -0.3016  0.1200
22347W        W65400   3.103   2.041  16.301 -0.1424  0.0158 -0.1807
22348W        W65401  32.853  31.597  28.480  0.1749 -0.0387 -0.1887
22349W        W65402  34.386   1.031  27.343  0.0551 -0.0250  0.2803
22350W        W65403   1.354   0.583  15.592 -0.1881  0.1064 -0.1145
22351W        W65404  26.715   9.275  26.387  0.3454 -0.0039 -0.0162
22352W        W65405   2.864  26.409  28.446 -0.0479 -0.1714  0.1471
22353W        W65406  27.933  20.486  19.571  0.4025 -0.5593  0.0762
22354W        W65407  28.515  16.475  16.325  0.2584  0.0481 -0.1415
22355W        W65408  21.395  15.847   4.187  0.2930 -0.4091 -0.0234
22356W        W65409  29.261   9.564  25.326  0.0915  0.1492  0.1761
22357W        W65410  30.652  25.393   9.131 -0.1150 -0.0763 -0.0847
22358W        W65411   5.340  17.679  20.611  0.2645 -0.0392  0.3953
22359W        W65412  32.518  15.033   5.181 -0.0707  0.2057  0.0667
22360W        W65413   2.234   2.414  14.965 -0.0238 -0.2468  0.1299
22361W        W65414   0.367  11.832  20.921 -0.0225  0.1096 -0.0589
22362W        W65415  22.642  11.242  22.960  0.0844  0.0240 -0.2959
22363W        W65416  16.905  27.704  26.589  0.2619 -0.1243  0.1084
22364W        W65417  23.815  14.155  20.920  0.0594  0.3208  0.0923
22365W        W65418  20.988  18.273  23.702 -0.0158  0.1097  0.0140
22366W        W65419   1.089  11.582  21.812  0.1141 -0.0744  0.1161
22367W        W65420   2.482   2.025  28.501  0.1591  0.1465  0.0430
22368W        W65421  19.364  15.390  23.454 -0.0044  0.0745 -0.1057
22369W        W65422  22.930  22.958  22.008  0.0493  0.1443  0.1797
22370W        W65423  22.431  26.396  23.140  0.2852  0.0063 -0.2261
22371W        W65424  28.582  24.338  22.564 -0.0592 -0.0208 -0.2893
22372W        W65425  33.842  17.967  25.246  0.3770 -0.0833 -0.2462
22373W        W65426  18.182  18.945   0.505 -0.1601 -0.0923  0.5406
22374W        W65427  26.135  10.781  28.854  0.0834  0.2782 -0.0407
22375W        W65428  28.381   6.110   9.155  0.2966  0.2811  0.4585
22376W        W65429  30.270  12.090  26.022  0.3404 -0.1032  0.0386
22377W        W65430  21.238  29.064  25.373  0.2229  0.1853 -0.2585
22378W        W65431  31.445  19.934   3.997  0.2195 -0.0389  0.2145
22379W        W65432  30.973  30.588  26.947 -0.2648 -0.2478  0.3054
22380W        W65433  29.835  19.221  17.071  0.2414 -0.1558  0.0005
22381W        W65434  23.963   6.765   7.161 -0.0569 -0.1266 -0.2188
22382W        W65435  26.699  16.284   6.205  0.2437  0.0183  0.0234
22383W        W65436  12.592  23.325  28.566  0.0544 -0.0592  0.4071
22384W        W65437  28.585   7.643  17.802 -0.2139  0.0560 -0.0833
22385W        W65438  23.312  23.881   4.582 -0.0258 -0.0663 -0.2544
22386W        W65439  29.738  11.109   7.066  0.1772 -0.2454  0.0876
22387W        W65440  17.010  18.036  14.797 -0.1004 -0.1518 -0.1077
22388W        W65441  22.436  11.654  23.204  0.0504  0.2259 -0.2288
22389W        W65442  28.601  28.833   7.253 -0.0211  0.2853  0.1329
22390W        W65443  30.857   7.897   0.345  0.2813 -0.1876  0.0991
22391W        W65444  16.829   3.069  16.843 -0.4410 -0.1121 -0.1923
22392W        W65445  26.259   9.626   2.302 -0.1633  0.0059 -0.0012
22393W        W65446  33.584  19.247   3.157 -0.0599  0.1850 -0.0556
22394W        W65447  27.481  25.483   3.127 -0.3422 -0.1974  0.0993
22395W        W65448  32.845  25.409   8.140  0.4528  0.0464  0.1434
22396W        W65449  14.874   8.882  28.541  0.0850  0.1680 -0.0180
22397W        W65450   9.500  11.198  19.272  0.2727  0.0141 -0.4452
22398W        W65451   7.786  26.255  19.703 -0.1734 -0.0453  0.1069
22399W        W65452   0.035  13.250  18.950  0.0563 -0.1099  0.2452
22400W        W65453  18.163  11.169  16.590  0.0292 -0.0766 -0.2343
22401W        W65454  34.348   1.893  19.851  0.2907 -0.0865 -0.0667
22402W        W65455   5.130  15.855  24.595 -0.2006  0.2604  0.1317
22403W        W65456   0.200  16.901  25.891  0.1164  0.2221  0.1356
22404W        W65457  14.386  12.386  19.993  0.1758 -0.1661 -0.0334
22405W        W65458  30.928  20.998  20.881  0.0635 -0.0665 -0.1019
22406W        W65459  26.287  11.014  25.063  0.1838 -0.0015  0.2884
22407W        W65460  32.339  14.303  25.799 -0.1927 -0.4437  0.2948
22408W        W65461  31.908   3.561   2.154 -0.2230 -0.1880  0.1964
22409W        W65462  12.882  14.269  20.984  0.1967  0.0078  0.0485
22410W        W65463  13.161  18.172  23.173  0.0373  0.3261  0.1145
22411W        W65464  24.958  10.317  28.800 -0.2214 -0.1131  0.2851
22412W        W65465  31.789  17.944  18.867  0.1742  0.2071 -0.0709
22413W        W65466  23.156  16.709  20.885  0.0135  0.0390 -0.0896
22414W        W65467  10.794   5.805  17.265 -0.1257 -0.3366  0.0245
22415W        W65468  16.792  30.474   4.542  0.3051 -0.2775 -0.2252
22416W        W65469  30.600  11.619  17.628 -0.1910  0.0392  0.0615
22417W        W65470  31.581   6.976   9.781  0.1527  0.0695 -0.1365
22418W        W65471  32.108  14.191  27.995  0.0125  0.0248  0.6270
22419W        W65472  25.011  24.919  10.087 -0.0956 -0.2162  0.2113
22420W        W65473   3.390  24.341  16.396  0.0129 -0.0489 -0.1762
22421W        W65474  25.468  13.882  28.006  0.3275  0.1209 -0.2357
22422W        W65475   1.413  25.710   7.268 -0.1308  0.3124 -0.3605
22423W        W65476  15.353   1.041  26.673 -0.0462 -0.2320 -0.1185
22424W        W65477  19.794  34.507   0.807  0.3349  0.1113 -0.0989
22425W        W65478  33.664  14.582   6.309  0.3299 -0.1554 -0.1862
22426W        W65479   2.922  21.516  29.042  0.2718 -0.0881 -0.0334
22427W        W65480  31.404  29.886   8.271 -0.0958  0.0436  0.0610
22428W        W65481  32.657   0.976  22.824 -0.3702 -0.0594 -0.1252
22429W        W65482  27.059  18.953  16.237 -0.0040  0.2965  0.0760
22430W        W65483  21.995  25.783  25.547  0.0922  0.1505  0.3978
22431W        W65484  30.259   9.517  22.332  0.0291 -0.0914  0.1866
22432W        W65485  25.683   7.262  18.151 -0.2201  0.2366 -0.2271
22433W        W65486  15.560   9.099  22.669 -0.1269  0.1200 -0.0404
22434W        W65487  11.424  12.784  25.370  0.0009  0.0434 -0.3718
22435W        W65488  22.631  10.803   1.123  0.2818 -0.0353  0.6316
22436W        W65489  27.186  11.774  15.565  0.4310  0.2697  0.1536
22437W        W65490   9.425   6.175  18.701  0.1187 -0.1317  0.0644
22438W        W65491  20.151   8.620  18.663  0.2041 -0.1412  0.1787
22439W        W65492  27.680  13.566  19.638 -0.0924 -0.1545 -0.1152
22440W        W65493  24.850  21.865  15.183 -0.1470  0.1778 -0.2677
22441W        W65494   4.858   8.003   1.635  0.1690  0.2510 -0.3057
22442W        W65495  28.134  10.451   4.693 -0.1489 -0.0584 -0.1572
22443W        W65496  29.971  13.942  16.486 -0.0289 -0.0037  0.0514
22444W        W65497  27.121  17.619  21.624 -0.0018 -0.2048  0.1014
22445W        W65498   5.066  27.483  17.053 -0.0999 -0.3280  0.1970
22446W        W65499   3.365  32.511  23.592  0.0298 -0.1119 -0.0272
22447W        W65500  29.976  24.180  21.951  0.2538 -0.0449  0.1702
22448W        W65501  28.253  20.820  28.373  0.1957 -0.1362 -0.1601
22449W        W65502   3.550  26.656   6.832  0.4105 -0.0248 -0.2804
22450W        W65503  26.247   8.181   1.242 -0.1598 -0.0427  0.3644
22451W        W65504  29.469   0.055   6.288  0.1922  0.0135  0.0413
22452W        W65505   3.794  13.165   1.110  0.0595  0.3274 -0.2234
22453W        W65506   0.221  24.909  13.090  0.1069 -0.0373  0.1116
22454W        W65507  32.957  19.333  16.390  0.3345 -0.1666  0.2220
22455W        W65508  14.833  29.188   3.244 -0.1240  0.3744 -0.2779
22456W        W65509  25.626  29.695   2.904 -0.0456  0.0528 -0.1469
22457W        W65510  28.201   0.383  22.877  0.0541  0.1434 -0.3002
22458W        W65511  28.655  15.547  27.334 -0.1120 -0.0452 -0.1453
22459W        W65512  29.734  25.882  15.845  0.0642  0.2442  0.3666
22460W        W65513  26.204  10.537   8.728 -0.0570  0.0061 -0.1391
22461W        W65514  27.674   7.935   0.983 -0.2982 -0.3610  0.2114
22462W        W65515  14.042   5.809  21.644  0.0432 -0.0311 -0.1047
22463W        W65516  12.416  11.086  11.385  0.0576  0.0731 -0.0429
22464W        W65517   2.113  25.669  19.793  0.0001  0.0109 -0.0510
22465W        W65518  18.778  23.804  26.767 -0.0830 -0.2277 -0.2862
22466W        W65519  26.115  24.521  20.408 -0.3896  0.3015  0.1861
22467W        W65520  29.696  16.120   3.287 -0.1309  0.0044 -0.0925
22468W        W65521   7.647   7.546   2.665 -0.4249 -0.4036  0.0782
22469W        W65522  23.568  25.848   0.060 -0.1126  0.0730 -0.0651
22470W        W65523  28.231  12.444   5.443 -0.0024  0.0748  0.3471
22471W        W65524  18.815   3.879  24.722 -0.0182 -0.3593 -0.2860
22472W        W65525   7.497  19.564  18.257 -0.0030  0.4496 -0.1267
22473W        W65526  28.561  17.694  17.794  0.0581  0.0980  0.0556
22474W        W65527  30.730  15.976  26.797 -0.1400  0.0392  0.0153
22475W        W65528  27.233   7.740   0.847  0.1536  0.0329  0.3356
22476W        W65529  33.390  29.509   4.017 -0.1486 -0.2462 -0.1498
22477W        W65530  30.920  28.098  18.526  0.2364  0.1412 -0.1712
22478W        W65531  16.551  30.865  26.249  0.1821  0.2514 -0.2558
22479W        W65532  19.146  29.466   1.371  0.4872 -0.1730  0.3768
22480W        W65533   8.447   6.509   6.604 -0.0161  0.0804  0.0239
22481W        W65534  27.404  17.094  27.431  0.0215  0.4075  0.1587
22482W        W65535  24.505  24.768  29.126 -0.0570 -0.1873 -0.1234
22483W        W65536  21.272  19.352  15.176 -0.0452  0.0962 -0.1393
22484W        W65537  32.844  10.396   7.912  0.0536 -0.0772  0.0643
22485W        W65538   6.314   9.647   7.033  0.1919  0.1939 -0.2208
22486W        W65539  20.518  27.061   7.368 -0.0607  0.1657  0.2346
22487W        W65540  27.501  21.636  17.719 -0.3658 -0.2189  0.2136
22488W        W65541  32.268   4.607  21.279  0.1647  0.1086 -0.0510
22489W        W65542  33.888  17.961   7.278  0.0731  0.1768 -0.3954
22490W        W65543   5.225  22.196   3.034  0.0978 -0.0950 -0.0494
22491W        W65544  28.059  24.109   7.274 -0.2354  0.2087 -0.0684
22492W        W65545  10.598  25.850  18.406 -0.0844 -0.0548 -0.2179
22493W        W65546  20.349  14.572  25.923  0.1485  0.0236  0.2014
22494W        W65547  26.759  32.405   3.233  0.1661 -0.2643 -0.0117
22495W        W65548  16.390  33.369  19.490  0.0944 -0.1172 -0.1685
22496W        W65549  19.552  22.435   6.881 -0.0366 -0.1292 -0.1890
22497W        W65550  26.643  11.959   6.251 -0.2743 -0.2625  0.2685
22498W        W65551  32.709  16.802   7.743  0.2308 -0.0631 -0.0922
22499W        W65552  28.007  12.376  26.472 -0.0658 -0.0088 -0.1142
22500W        W65553  16.365  20.672  22.047  0.2761  0.1466  0.2856
22501W        W65554  23.870  19.602  18.517 -0.4369  0.1752 -0.0519
22502W        W65555  27.242  21.995  17.450 -0.2778  0.1378  0.1990
22503W        W65556  17.534  12.392  19.343  0.1995 -0.1989 -0.0786
22504W        W65557  32.547  13.059   5.264  0.1630 -0.1065 -0.0354
22505W        W65558   3.061  22.529   8.996  0.1454 -0.2478 -0.1549
22506W        W65559   1.382  10.713  17.116  0.1506  0.3694  0.1061
22507W        W65560  27.331  14.780   2.395  0.0513 -0.0117  0.2211
22508W        W65561  22.479   2.817   4.765 -0.0216 -0.0101 -0.0505
22509W        W65562  29.827  17.753   5.705 -0.2650 -0.1275  0.2695
22510W        W65563  32.262   5.638   2.715  0.2176 -0.1009  0.0142
22511W        W65564  30.853  32.807  28.797  0.2948  0.1346 -0.1871
22512W        W65565  29.164  16.415  14.475  0.0708  0.2023  0.1214
22513W        W65566  16.718  32.320   0.510  0.1591 -0.1627 -0.1392
22514W        W65567  19.472  21.492   4.127  0.0184 -0.1026  0.2880
22515W        W65568   0.742   8.674   0.474 -0.0953 -0.0912  0.0783
22516W        W65569  28.274  15.481   8.135  0.1993 -0.1799 -0.3378
22517W        W65570  31.666  22.054   6.141 -0.0255 -0.0789  0.1832
22518W        W65571  17.019  32.946  10.233 -0.0271  0.0969 -0.0240
22519W        W65572  28.276  26.982  26.185  0.0778 -0.1673 -0.1355
22520W        W65573   9.506  31.469   4.619 -0.3076  0.0284  0.0397
22521W        W65574  33.444  18.051   2.261 -0.0526 -0.0675 -0.0452
22522W        W65575  27.554  11.244   9.928  0.1243  0.0882  0.0006
22523W        W65576  16.809  21.165  13.606 -0.0471 -0.1634 -0.1167
22524W        W65577  30.638   5.276  24.306 -0.2080  0.1265 -0.3453
22525W        W65578  28.461  16.692  25.986 -0.0557  0.1552 -0.0464
22526W        W65579  17.745  16.676  26.223 -0.2900  0.0603  0.0602
22527W        W65580  18.754  13.217  13.281  0.2994 -0.0166 -0.1729
22528W        W65581   4.266   5.956   6.997  0.1203 -0.1138 -0.1946
22529W        W65582   9.981   4.283  15.116 -0.1240  0.1629 -0.2004
22530W        W65583  31.890  12.778  27.717 -0.2592  0.0548 -0.0730
22531W        W65584  22.150   6.428  26.979 -0.0132  0.0521  0.2711
22532W        W65585  26.615   8.835   3.335  0.2872  0.1284  0.2680
22533W        W65586  33.462  16.221  29.070  0.1622 -0.0942 -0.2049
22534W        W65587  23.504  11.746  10.176  0.2580  0.0702  0.2188
22535W        W65588  22.582  10.244   4.519  0.1725  0.0398 -0.0090
22536W        W65589  32.009  21.938  15.956 -0.1920 -0.0065 -0.0143
22537W        W65590  30.202  28.771  22.122  0.1762 -0.3393  0.2987
22538W        W65591  29.966  19.293  29.153  0.2951  0.0482 -0.0701
22539W        W65592  30.302  19.649  25.795  0.3700 -0.2116  0.2877
22540W        W65593  32.652   4.398  29.013  0.1978 -0.1477 -0.2922
22541W        W65594  25.301  19.766  26.053 -0.1007  0.1843 -0.1153
22542W        W65595  14.732  32.624  28.526 -0.2960 -0.2680  0.3655
22543W        W65596  26.410  19.003   4.168  0.0422 -0.2143  0.0208
22544W        W65597  32.700  17.486  20.931 -0.0466 -0.2618  0.1166
22545W        W65598  24.042  24.016  16.032  0.1738 -0.3991  0.0287
22546W        W65599   8.530   1.017   5.875  0.3479  0.0264 -0.0998
22547W        W65600  21.517  20.722  25.903 -0.1239 -0.0523 -0.3018
22548W        W65601   5.757  25.104  14.178  0.3305 -0.0235 -0.1382
22549W        W65602  23.111  28.374  16.967  0.1161 -0.3268 -0.0524
22550W        W65603  33.954  26.681  13.457 -0.0871  0.0860  0.1754
22551W        W65604  33.881  16.430   7.821 -0.1712 -0.0749  0.0963
22552W        W65605  28.049  14.413  23.294 -0.0836  0.0619  0.1962
22553W        W65606  28.594  27.919   8.303  0.2631 -0.3531 -0.0343
22554W        W65607   2.219  16.514   7.622 -0.3410 -0.1203 -0.0126
22555W        W65608  33.306  16.516   0.298 -0.3282 -0.0009 -0.2524
22556W        W65609  13.259   8.426  18.356 -0.0681  0.2524  0.0015
22557W        W65610  29.067  17.716  26.073 -0.2602 -0.1674  0.0455
22558W        W65611  18.952  21.254  24.639 -0.0458  0.1362  0.3506
22559W        W65612  32.056  12.416  24.071 -0.2308  0.2732  0.1865
22560W        W65613  23.473  17.296   4.085 -0.2500 -0.1432  0.3459
22561W        W65614   2.775  24.045   2.907  0.2099  0.1846  0.0617
22562W        W65615  13.166  10.248  15.311  0.2957 -0.0836  0.3482
22563W        W65616  27.187   2.957   3.076 -0.2224 -0.0934  0.2435
22564W        W65617  21.160  16.604   6.317  0.2006  0.0037  0.2473
22565W        W65618  31.223  10.142  15.512  0.0112  0.0513 -0.0085
22566W        W65619   7.541  25.497  20.709 -0.1483 -0.0167 -0.0082
22567W        W65620  20.839  16.811   5.840  0.0904  0.3218  0.1649
22568W        W65621  26.664  32.626  23.810 -0.1226  0.0005 -0.1341
22569W        W65622   0.344  33.789  23.755 -0.0426  0.1379  0.0226
22570W        W65623   4.879  27.524   6.915 -0.0213 -0.3296  0.0025
22571W        W65624  26.433  15.578  16.201  0.3155  0.1391  0.2669
22572W        W65625  33.120  25.096   8.869  0.1458 -0.1151 -0.0694
22573W        W65626   1.668  11.733   1.887  0.1481 -0.1001  0.1853
22574W        W65627  22.994  19.463  25.089  0.0063  0.1850  0.3201
22575W        W65628  25.216  19.516  28.504 -0.2316 -0.1006  0.0773
22576W        W65629  22.703  21.418   8.074  0.2722 -0.0290  0.2538
22577W        W65630  24.112  19.753  26.756 -0.3693 -0.2842 -0.1108
22578W        W65631  30.867  20.431  19.494 -0.1644 -0.1370 -0.2298
22579W        W65632  34.052  19.810  27.115 -0.0771 -0.2555 -0.0556
22580W        W65633  32.037   3.532   9.460  0.4095 -0.1479 -0.1770
22581W        W65634  25.762  27.835   7.252 -0.0450 -0.1517  0.0088
22582W        W65635  27.498  10.569   0.839 -0.0057  0.1781 -0.0066
22583W        W65636  30.007  25.088   3.167 -0.3586 -0.4374  0.1216
22584W        W65637  27.928   2.012   5.234  0.1109  0.1998  0.1532
22585W        W65638  24.181  12.551  20.596 -0.0260  0.1287  0.2169
22586W        W65639  33.050  19.508  23.378  0.0353 -0.1616 -0.0697
22587W        W65640   1.679  17.833  20.503 -0.2532 -0.1681  0.1941
22588W        W65641  24.452   8.894  19.995 -0.3108 -0.0143 -0.0132
22589W        W65642  31.372   6.374  24.223  0.2705  0.0262  0.0733
22590W        W65643  10.746   9.667   2.658 -0.4707  0.0537  0.1228
22591W        W65644  26.984  33.944  10.230  0.3657  0.4619  0.2153
22592W        W65645  29.876  20.061   4.474  0.2244 -0.0692 -0.1104
22593W        W65646  24.709   0.045   7.306  0.0805  0.4373  0.1542
22594W        W65647   7.103   5.428  25.061 -0.1734  0.1158 -0.1903
22595W        W65648  24.572  23.391  20.776  0.2177 -0.0588 -0.1753
22596W        W65649  19.583  11.669   1.752 -0.0843 -0.3439  0.0544
22597W        W65650  27.255  30.130  24.677  0.3274 -0.1764  0.0260
22598W        W65651   1.231  10.721   7.125 -0.1347 -0.0114  0.2985
22599W        W65652   4.212  20.619  22.964 -0.2005 -0.0791 -0.1289
22600W        W65653   4.117   3.460  14.814 -0.1649 -0.0691  0.1140
22601W        W65654  28.642  10.230  28.807  0.0248  0.0736 -0.2792
22602W        W65655  24.590  22.149   9.044 -0.2984  0.0520 -0.0335
22603W        W65656  19.819  24.533  23.816 -0.0969 -0.0112 -0.1817
22604W        W65657   3.205  13.044  25.411  0.1378  0.0002 -0.2307
22605W        W65658  25.100  18.463   3.450 -0.2100  0.3290 -0.1556
22606W        W65659   0.320   5.841  27.016  0.1795  0.2093 -0.0327
22607W        W65660   1.756  12.145   0.845 -0.0942 -0.2190  0.2857
22608W        W65661  21.339   2.238  21.966 -0.4641 -0.3198 -0.1493
22609W        W65662   1.940   6.920  14.285 -0.0635 -0.1765 -0.0718
22610W        W65663  30.946   2.617  27.029  0.3327 -0.1620 -0.0783
22611W        W65664  19.752  30.503  22.710 -0.0631  0.0676 -0.0012
22612W        W65665  17.787  29.159  15.566 -0.1335  0.1450  0.1456
22613W        W65666  22.429  14.811  23.046 -0.1046 -0.1617 -0.0719
22614W        W65667  17.765   7.932   7.791 -0.0810 -0.1748  0.1684
22615W        W65668  10.244   6.445   6.560  0.1157 -0.2375 -0.1673
22616W        W65669  21.471  17.945  16.120  0.0551 -0.3502  0.1711
22617W        W65670   7.725  11.257  22.808 -0.0724 -0.1890  0.2447
22618W        W65671  24.282  12.372  15.668  0.2542  0.2024 -0.0295
22619W        W65672  33.413  21.187  25.750 -0.1606  0.1545  0.0029
22620W        W65673   4.785  15.671  28.038 -0.0646 -0.1088 -0.2079
22621W        W65674  30.145  25.011  25.792  0.1682  0.0384 -0.2044
22622W        W65675  20.938  20.852  14.600  0.1536 -0.2785 -0.1448
22623W        W65676   2.198  11.378  24.924  0.0313 -0.1382 -0.3822
22624W        W65677  33.531  10.928   9.068  0.2090  0.0810  0.1257
22625W        W65678  30.646  29.886   4.295  0.0917 -0.0930  0.0041
22626W        W65679  23.245  15.862  26.946 -0.2428 -0.5018  0.1777
22627W        W65680  12.154  14.254  25.611  0.0437 -0.0597  0.1022
22628W        W65681  22.445  32.143  27.111  0.1265  0.2662  0.0441
22629W        W65682  20.935   8.103  21.011  0.2973  0.1464 -0.0745
22630W        W65683   5.956  33.692  26.266 -0.0107 -0.1171 -0.0106
22631W        W65684  29.727   7.594  23.224 -0.1194  0.1338  0.2664
22632W        W65685  33.738  24.916  19.409  0.0216 -0.0406  0.0506
22633W        W65686  21.542   8.822  24.315 -0.0159 -0.0232  0.2138
22634W        W65687  28.502  20.389  15.295  0.1112 -0.0065 -0.2353
22635W        W65688   1.143  24.865   8.748 -0.0626  0.1135 -0.1213
22636W        W65689   0.712  17.164  16.814  0.1683 -0.1771  0.1577
22637W        W65690  27.751  12.938  23.482  0.2501 -0.0576  0.1274
22638W        W65691  32.232  15.412  15.986  0.2519  0.1184  0.4255
22639W        W65692   4.711  28.859  25.756 -0.1139 -0.1450 -0.1432
22640W        W65693  27.366  19.363  19.988  0.0127  0.1399 -0.2514
22641W        W65694  24.681  18.085  16.998 -0.1112 -0.0055 -0.1044
22642W        W65695  26.518  25.212  19.243 -0.0618 -0.0112  0.0010
22643W        W65696  18.964  14.778  22.959  0.3053 -0.2014 -0.1302
22644W        W65697  34.149  17.811   0.331 -0.1167 -0.0925  0.0040
22645W        W65698  20.162  22.874  28.152  0.1559 -0.2310  0.0982
22646W        W65699  25.933  19.001  18.143  0.0806 -0.0015  0.1374
22647W        W65700   7.777   0.524  18.203 -0.0345 -0.2474  0.3047
22648W        W65701  24.948  18.663  20.463 -0.0335  0.0396  0.2734
22649W        W65702  28.534  22.763  16.015  0.4212 -0.3507  0.0181
22650W        W65703   1.116   8.666  21.169 -0.0753 -0.0096  0.1523
22651W        W65704   3.811  23.720  14.933  0.0203 -0.2133 -0.1323
22652W        W65705  26.677   5.597   0.390  0.0363 -0.0552  0.2932
22653W        W65706  24.756  26.062  16.233 -0.0537 -0.0559 -0.4473
22654W        W65707   0.313  17.785  17.927  0.2468  0.0924  0.0940
22655W        W65708  22.993  18.389  26.063 -0.0048 -0.3637  0.0990
22656W        W65709  10.792  11.396  21.724 -0.1660 -0.0426  0.1484
22657W        W65710   1.157   4.894  14.553  0.1777 -0.0934 -0.2064
22658W        W65711  32.494   1.505  16.797 -0.3642  0.1376 -0.2142
22659W        W65712   2.451  23.399  20.855 -0.1918  0.0840  0.1101
22660W        W65713  34.007  21.193  16.825 -0.5548  0.2736 -0.4666
22661W        W65714  31.389  25.295  20.249  0.1629 -0.0132  0.3656
22662W        W65715  23.891  34.686  20.309  0.1835 -0.0267 -0.1061
22663W        W65716  10.091   4.590  21.785  0.1435 -0.1563  0.4858
22664W        W65717  28.733  21.203  26.274 -0.0045  0.3382 -0.0404
22665W        W65718   6.318  17.132  18.303  0.2052  0.0697 -0.0764
22666W        W65719  26.923   8.274  16.871  0.2027 -0.0691  0.1978
22667W        W65720  32.430  33.172   0.672  0.0535  0.2142 -0.0074
22668W        W65721  25.529  26.320  16.022 -0.0788 -0.0526 -0.0239
22669W        W65722   7.148  25.266  17.630  0.1138  0.2331  0.2641
22670W        W65723  19.112   8.307  21.481 -0.2710  0.3391 -0.1467
22671W        W65724  32.180  18.162  20.774  0.2862 -0.0433  0.1817
22672W        W65725  33.978  19.071  15.904  0.1945  0.0297  0.1066
22673W        W65726  28.931  16.943  16.882  0.3026  0.1950  0.0323
22674W        W65727  28.151  32.227   8.489 -0.0259  0.2075  0.2090
22675W        W65728  31.483  19.109  13.751  0.1054 -0.2255 -0.0959
22676W        W65729  25.335  22.421  17.723  0.1333  0.1909 -0.0563
22677W        W65730  33.393  15.176  16.153 -0.0348 -0.0487 -0.1137
22678W        W65731  15.977   1.020   0.183  0.4091  0.2192 -0.1474
22679W        W65732  21.046  31.578  23.921  0.1422  0.4253 -0.4346
22680W        W65733  24.835  17.220  13.794 -0.1536 -0.0417 -0.3010
22681W        W65734  32.905  25.953  16.386 -0.0183  0.1791 -0.0155
22682W        W65735  29.569  24.928  26.426  0.2713 -0.1444  0.2256
22683W        W65736  33.290   6.940  18.157 -0.0163  0.1221  0.1697
22684W        W65737  21.554   3.857  14.584 -0.0545  0.0375  0.1250
22685W        W65738   2.835  33.478  19.244 -0.2322  0.0544 -0.1753
22686W        W65739  25.178  12.061  22.257  0.0627  0.1144  0.2762
22687W        W65740  14.392   4.091  20.324 -0.1523  0.3511 -0.2353
22688W        W65741   1.808  13.199  24.994 -0.0108 -0.0081 -0.0082
22689W        W65742  30.959  26.577   1.261 -0.0629 -0.4735  0.0825
22690W        W65743  13.576  22.190  14.328  0.0185  0.0838  0.0411
22691W        W65744  34.227  14.785  15.812 -0.2956  0.0942  0.1614
22692W        W65745  24.818  18.106  16.530 -0.1291 -0.0851  0.1655
22693W        W65746  13.454  24.518  22.207 -0.0257 -0.1725 -0.0519
22694W        W65747  28.754   4.893  21.162 -0.1649  0.0589  0.1454
22695W        W65748  32.663  18.797  16.170  0.4326 -0.0265 -0.1140
22696W        W65749  31.722  26.543  18.834 -0.0546  0.4340  0.1395
22697W        W65750   9.234   3.908  15.596 -0.3359  0.0309  0.1961
22698W        W65751  31.317  24.787  15.322  0.0076  0.1331  0.4619
22699W        W65752  12.326   3.345  15.453  0.0440  0.0960 -0.2367
22700W        W65753  16.405  12.087  21.376  0.0382 -0.0666 -0.0998
22701W        W65754  13.638   4.736  16.449  0.1203 -0.3186  0.0911
22702W        W65755   3.622  21.234  19.670 -0.0892 -0.1054  0.1011
22703W        W65756   9.516   3.954  24.449 -0.1279  0.1896  0.1199
22704W        W65757  27.997  17.362  16.322  0.0562 -0.3176  0.0374
22705W        W65758  27.287  24.422  17.582  0.0152  0.0369 -0.0352
22706W        W65759  31.394   3.512  15.296 -0.1653 -0.0044  0.1143
22707W        W65760  29.774  25.750  13.875  0.0096 -0.2294 -0.1976
22708W        W65761  14.949  28.784  26.335 -0.0602 -0.5770 -0.2399
22709W        W65762  29.533  19.406  18.178 -0.1851  0.0635 -0.0574
22710W        W65763  34.287  23.132  18.141  0.0254 -0.0794 -0.2304
22711W        W65764  34.500  22.629  19.178  0.1785  0.0863 -0.0893
22712W        W65765   0.665   7.502   2.869 -0.1434  0.0936 -0.3771
22713W        W65766   1.107  16.916  24.035 -0.0781  0.1955  0.0093
22714W        W65767   1.036   7.542   7.431  0.1265  0.0193 -0.2721
22715W        W65768  28.611  14.940  22.879 -0.3274 -0.0336  0.2426
22716W        W65769  24.142  26.806  14.889 -0.1982 -0.2480 -0.2556
22717W        W65770  15.646   5.673   0.002 -0.0392 -0.0531 -0.0277
22718W        W65771   1.831  18.450  13.796  0.1495  0.0721  0.0530
22719W        W65772   2.138  14.849  24.608 -0.3061  0.0989  0.2321
22720W        W65773   1.306  27.905   0.337 -0.4700 -0.0460  0.0070
22721W        W65774  27.693  17.724  19.279 -0.0018 -0.0580 -0.0174
22722W        W65775  10.051  29.643  16.711  0.2924  0.0600 -0.0192
22723W        W65776  28.363  21.102  16.452  0.1913  0.2651 -0.1719
22724W        W65777   0.768  31.410   9.195  0.1061  0.1775 -0.1629
22725W        W65778   6.933  23.474  25.667  0.0191 -0.1959 -0.2305
22726W        W65779   6.969  14.598  21.498  0.1890  0.0100 -0.0737
22727W        W65780  31.394   7.164  18.131 -0.1667  0.0291  0.0011
22728W        W65781  30.225  16.891  25.356 -0.1701  0.3339 -0.2080
22729W        W65782  23.014  34.253  28.063 -0.1302  0.0469 -0.3021
22730W        W65783   8.020  16.151  20.522 -0.2945 -0.0185 -0.1001
22731W        W65784  15.429  27.171  19.452  0.0149 -0.2494  0.0392
22732W        W65785  34.497   9.746  16.281 -0.4012  0.1969 -0.1723
22733W        W65786  32.267  21.284   5.872 -0.0899  0.5343  0.1233
22734W        W65787  26.449  27.728  17.507  0.2396  0.1908  0.1608
22735W        W65788  16.327   9.770  19.607 -0.1148 -0.0093 -0.0369
22736W        W65789  18.870  31.182  27.453 -0.1492  0.0518 -0.0375
22737W        W65790   3.695  23.259  25.648  0.2538 -0.0362 -0.1748
22738W        W65791  34.299  19.906  23.190  0.1079 -0.0621 -0.0255
22739W        W65792   5.213  31.198  14.907 -0.1373  0.1821 -0.1841
22740W        W65793   4.261  24.573  16.744  0.2071 -0.1348 -0.0160
22741W        W65794   2.989  27.491  22.751 -0.0058 -0.2812  0.0662
22742W        W65795  26.513  18.736  22.313 -0.1703 -0.2983 -0.2265
22743W        W65796   8.861  13.660   0.526  0.2499 -0.3192 -0.2438
22744W        W65797   0.776  10.663  15.402  0.2188  0.0693 -0.0005
22745W        W65798  16.112  17.047  14.630  0.2612 -0.0524  0.0618
22746W        W65799  26.144  20.047  27.202 -0.3525 -0.0754  0.2009
22747W        W65800  32.778  14.096  16.682  0.0262 -0.4228  0.0659
22748W        W65801  12.966  18.150   9.008  0.3239  0.0995 -0.0828
22749W        W65802  29.135  14.486  26.512 -0.2819 -0.0450 -0.0295
22750W        W65803  27.921  27.576  23.294 -0.2428  0.0018  0.2138
22751W        W65804  11.983  23.881  15.783 -0.1124  0.2287 -0.0882
22752W        W65805  31.423   9.825  19.191  0.0486  0.1754 -0.0418
22753W        W65806   0.823  28.667   1.293  0.2146 -0.1458 -0.0046
22754W        W65807  31.490   4.369  23.423  0.0397 -0.2422 -0.0455
22755W        W65808  21.638  18.925  22.041 -0.1335  0.2525 -0.0999
22756W        W65809  26.420  28.804  22.255 -0.0704  0.3213 -0.0366
22757W        W65810  24.226  34.629  24.635 -0.1989 -0.1050 -0.2990
22758W        W65811   4.630  22.735  18.397 -0.0257 -0.1057  0.1428
22759W        W65812  17.208  19.221  29.057  0.2378  0.2929  0.0599
22760W        W65813   0.815  25.081  23.153 -0.0430  0.0991 -0.1445
22761W        W65814   7.866  15.352  23.186 -0.0699  0.0950 -0.4969
22762W        W65815  25.735  27.488   0.037  0.1289 -0.0457 -0.3384
22763W        W65816   0.085  23.593  18.796 -0.1109 -0.0267 -0.3133
22764W        W65817  19.356  28.776  23.295  0.3664 -0.1632  0.4182
22765W        W65818  16.145  19.887  24.195 -0.4134 -0.1823  0.0708
22766W        W65819  29.746  14.780  16.208 -0.2484 -0.2254  0.1602
22767W        W65820  30.846  31.385  24.826  0.1773 -0.2554  0.0856
22768W        W65821  26.951  18.083   0.727 -0.3182  0.0883  0.1990
22769W        W65822  32.260  14.129  14.432 -0.3000  0.2509  0.3810
22770W        W65823  29.029  14.724  24.798  0.0875 -0.1781 -0.1346
22771W        W65824   4.872  25.999  20.730 -0.0381  0.0771  0.2347
22772W        W65825   4.802  16.216  24.329  0.0138  0.0576  0.1701
22773W        W65826  31.574  17.831  23.878  0.0694  0.0909  0.1064
22774W        W65827  21.063  32.308  16.473  0.2231 -0.0526 -0.0642
22775W        W65828  21.198  23.684  24.215  0.0531  0.0857  0.3135
22776W        W65829  21.044  23.131  21.772 -0.0750 -0.0522 -0.2183
22777W        W65830  30.128  11.201  20.366  0.1668 -0.0577  0.1634
22778W        W65831  12.310  20.333  19.070 -0.1437 -0.0569  0.0587
22779W        W65832  29.968  34.568   8.849  0.1333  0.2444 -0.1130
22780W        W65833   8.779  33.243   7.650  0.1957  0.2755 -0.1237
22781W        W65834  32.770   9.242   0.946  0.2060 -0.0736  0.1915
22782W        W65835  16.130  26.280  16.050 -0.3456  0.1573 -0.1448
22783W        W65836   0.496  17.833  22.455 -0.2447 -0.1495 -0.3818
22784W        W65837  26.354  33.001  16.500 -0.0097  0.2591  0.0402
22785W        W65838  33.846  26.368  17.614 -0.1175  0.0547 -0.1098
22786W        W65839  26.429  34.472  17.189 -0.1372  0.2494  0.3088
22787W        W65840  31.133  27.804  21.019 -0.0973 -0.1233  0.1020
22788W        W65841  34.079  34.211  27.976  0.1974  0.4192  0.0349
22789W        W65842   8.580  29.025  13.462 -0.4207 -0.1978  0.0924
22790W        W65843  15.105  28.423  24.110  0.3244  0.1087  0.2947
22791W        W65844  33.387   2.695  20.369 -0.1027 -0.1361 -0.1894
22792W        W65845  27.145  30.223  15.480 -0.3525  0.1791 -0.0022
22793W        W65846   1.249  30.632  15.182 -0.1078  0.1570 -0.2268
22794W        W65847  28.028  26.783  26.564  0.1295 -0.0557  0.0919
22795W        W65848  14.980   4.841   2.123  0.3314 -0.2827 -0.0206
22796W        W65849  20.448  32.316   4.689  0.0576 -0.0232 -0.2111
22797W        W65850  31.841  11.947  22.337 -0.3103 -0.0889 -0.2738
22798W        W65851   6.838  29.202  19.191  0.0302 -0.1746  0.0178
22799W        W65852   3.922  31.597   1.276 -0.0586 -0.1022 -0.1388
22800W        W65853  32.757  27.630  19.795  0.1891 -0.4745 -0.0602
22801W        W65854  34.467   2.246  22.918 -0.3785  0.2785  0.2174
22802W        W65855   1.652  21.071  24.792 -0.3000  0.1721 -0.0015
22803W        W65856  32.253  34.382  20.442  0.2834  0.2087 -0.2607
22804W        W65857  17.160   7.751  19.225 -0.2075  0.0666 -0.0695
22805W        W65858  18.555  23.411  16.375  0.0025  0.1657 -0.0406
22806W        W65859  26.798   4.913  13.752 -0.0165 -0.2475 -0.0803
22807W        W65860  31.953  14.492  26.171  0.1581 -0.2433 -0.1304
22808W        W65861   8.195  15.165  15.735 -0.1259  0.5661  0.0529
22809W        W65862  23.787  13.417  20.105  0.0461  0.0804  0.1881
22810W        W65863  11.099  10.906  26.322 -0.0238 -0.1583 -0.1657
22811W        W65864  18.585  33.582  19.848 -0.2093 -0.4942  0.2997
22812W        W65865   2.673  17.555   4.706 -0.1313  0.1565 -0.3802
22813W        W65866  29.506  15.510  24.329  0.0945  0.1778 -0.2593
22814W        W65867  13.947  13.118  21.146 -0.1066  0.0744 -0.0780
22815W        W65868   3.425   1.972  24.430  0.2056 -0.3323 -0.3744
22816W        W65869   1.833  30.082  17.876  0.1624  0.0459 -0.1153
22817W        W65870   7.552   1.489  16.512  0.0920  0.0923 -0.0048
22818W        W65871  19.889  14.852  16.193 -0.3068  0.1774  0.1864
22819W        W65872  21.298  18.601  20.595 -0.1914 -0.0707 -0.0613
22820W        W65873   6.914  13.101  17.905 -0.1116  0.1029 -0.0726
22821W        W65874  26.174  19.218   5.716 -0.0639 -0.0332 -0.1955
22822W        W65875   9.340  32.233  15.855  0.1891 -0.2466  0.0237
22823W        W65876   0.320  31.948  17.785  0.1743 -0.0370  0.1291
22824W        W65877  19.717  10.090  19.502 -0.1908  0.1832 -0.1222
22825W        W65878  19.834  31.633   2.408 -0.0876 -0.0688 -0.6377
22826W        W65879  10.496  20.796   7.247 -0.2689 -0.2164  0.0166
22827W        W65880   6.169  29.980  25.487 -0.1927 -0.1474  0.0315
22828W        W65881  26.468  29.335  22.873  0.3693 -0.1878  0.1546
22829W        W65882  11.768   8.637   3.982  0.2068  0.0048 -0.0017
22830W        W65883  21.738  32.834  16.415  0.0554 -0.0410  0.1019
22831W        W65884  18.469  22.283  15.628  0.0814 -0.2006  0.0246
22832W        W65885   0.470  15.391   2.907  0.3746 -0.2423  0.1490
22833W        W65886  31.917  29.568  21.238 -0.0358 -0.2070  0.3104
22834W        W65887  21.529  26.467  28.161  0.0267  0.0633  0.2535
22835W        W65888   4.350  32.907  15.021  0.0062  0.0834 -0.1076
22836W        W65889  16.412  13.857  15.096  0.1048  0.2130  0.0817
22837W        W65890   5.246  31.498  20.519  0.1152 -0.0945 -0.1591
22838W        W65891   4.177   0.032  19.483 -0.3102  0.0595 -0.0371
22839W        W65892  21.479   1.827  16.192  0.1137  0.4422  0.0287
22840W        W65893   0.959  22.323  29.155 -0.0054 -0.1080  0.2616
22841W        W65894   3.334  32.516  27.762 -0.0043 -0.0938 -0.0231
22842W        W65895   1.669  12.461  18.385 -0.2859  0.4512 -0.1272
22843W        W65896  26.923  22.772  26.551  0.1099  0.0425  0.0100
22844W        W65897  25.175  14.131  20.416  0.1254  0.0027  0.2191
22845W        W65898  21.451   0.262  27.426  0.0677  0.1503  0.2202
22846W        W65899   4.394  21.988  20.051  0.0716 -0.0530  0.3407
22847W        W65900  29.889   1.505  21.601  0.0177  0.2959 -0.0765
22848W        W65901  20.040   9.540  16.375  0.0145  0.1409  0.0739
22849W        W65902   9.099  13.639  26.972 -0.1847 -0.1462 -0.0330
22850W        W65903   8.911  11.631  25.277 -0.0058  0.0369 -0.0485
22851W        W65904   4.893  14.593  14.803  0.3029  0.0594 -0.0329
22852W        W65905  25.879  21.852  23.195 -0.1797 -0.1931 -0.2602
22853W        W65906  27.267  22.654  16.313  0.0159  0.0149 -0.3737
22854W        W65907  20.850  32.693   6.430  0.0566 -0.3798  0.1786
22855W        W65908  20.394  10.333  19.554  0.0100 -0.1593  0.2788
22856W        W65909  21.791  21.897  24.808  0.2413  0.0418  0.1259
22857W        W65910  33.092  17.712  13.409 -0.0717 -0.0628 -0.5071
22858W        W65911  32.891  33.515  22.905  0.2201 -0.0523 -0.0683
22859W        W65912  21.418  21.202  16.093  0.0468  0.1141 -0.4531
22860W        W65913   4.141  28.576  25.089 -0.2651 -0.0781  0.3160
22861W        W65914  27.436  24.513  23.025  0.0841 -0.1238 -0.0151
22862W        W65915  27.742  19.510  15.493  0.1952  0.1197  0.1365
22863W        W65916   2.598  10.947   0.007  0.1147  0.3221  0.1311
22864W        W65917  25.181  19.160  16.274  0.2587 -0.2673 -0.0190
22865W        W65918  24.937  33.746  24.136 -0.2334  0.1355  0.4456
22866W        W65919  15.852   8.730  18.815 -0.3352 -0.2908  0.2735
22867W        W65920  32.502   3.129  20.416  0.1429  0.0633  0.0447
22868W        W65921  34.063  10.449  16.320 -0.3130 -0.0469  0.0505
22869W        W65922  22.593  19.601  16.653  0.1408 -0.0695 -0.0391
22870W        W65923   0.427  14.785  13.823  0.2840  0.0049 -0.1061
22871W        W65924  33.726   0.221   4.646 -0.0990 -0.0432 -0.0144
22872W        W65925  18.884  13.007   5.379 -0.0486 -0.2659  0.1146
22873W        W65926  32.968   2.427  22.181  0.1709  0.1689 -0.1041
22874W        W65927  24.686   5.877  16.706  0.1089 -0.2173 -0.1069
22875W        W65928   5.718  23.306  17.586 -0.1773 -0.3434  0.1341
22876W        W65929   7.287  22.090  17.346 -0.1530 -0.3291 -0.1186
22877W        W65930  24.116  27.321  15.703 -0.1883 -0.2773 -0.0315
22878W        W65931  27.322  32.606  16.984  0.0885  0.0073 -0.1421
22879W        W65932   4.923  21.486  16.258  0.1310  0.1480  0.0925
22880W        W65933  25.027  10.647  16.126 -0.2768  0.0033  0.0141
22881W        W65934  20.457  21.963  24.143 -0.0937 -0.0880 -0.2796
22882W        W65935   2.120  25.098  17.587  0.1907  0.1827 -0.1582
22883W        W65936  19.907  22.379  23.693 -0.0990 -0.2182 -0.6200
22884W        W65937  26.569  11.622  19.120 -0.0566 -0.3919 -0.0566
22885W        W65938  25.281  29.205  25.321  0.2270 -0.1394  0.0667
22886W        W65939  21.898  16.638  19.446 -0.0336 -0.0423 -0.5449
22887W        W65940  31.592  21.581  21.158  0.0472  0.0379  0.2363
22888W        W65941  27.373  28.635  27.266  0.0767 -0.2722 -0.3379
22889W        W65942   1.924  28.316  13.448 -0.0452  0.1365 -0.1579
22890W        W65943  26.059   9.371  21.366  0.0952  0.1417  0.1204
22891W        W65944  25.784  15.971   6.381 -0.1372  0.0341 -0.0520
22892W        W65945  12.066  13.851  25.856  0.3272  0.0525  0.1221
22893W        W65946   5.717  17.375  27.716  0.0625  0.2017 -0.2134
22894W        W65947   0.070  27.615  15.740  0.0896  0.0417 -0.1832
22895W        W65948  28.548  30.643   2.005 -0.0111 -0.1780 -0.1627
22896W        W65949  19.717  25.717  18.578 -0.2882  0.0314  0.0663
22897W        W65950  26.540  30.128   2.298 -0.2408 -0.0047 -0.0828
22898W        W65951  34.073  21.373  16.106  0.1515 -0.1805  0.0792
22899W        W65952   0.570   2.943  16.632 -0.1876  0.1204  0.4866
22900W        W65953  29.173  23.383  14.255  0.1730  0.0641  0.1506
22901W        W65954  23.391  13.692  20.005  0.2125  0.3085  0.0594
22902W        W65955  30.921  24.529  21.720 -0.1970 -0.1843 -0.1967
22903W        W65956  15.316   8.108   8.341 -0.1592  0.2229 -0.1390
22904W        W65957  31.511  31.249  15.238  0.1519 -0.0012 -0.0956
22905W        W65958  24.003  26.118  23.820 -0.4143  0.0768  0.1550
22906W        W65959  27.142  23.679  14.077  0.0014 -0.1109  0.1838
22907W        W65960  10.297  28.947  14.174  0.1441 -0.0125  0.0282
22908W        W65961  31.013  15.659  18.497  0.4539 -0.4275  0.2939
22909W        W65962  25.536  17.069  24.636 -0.1840  0.1090  0.0135
22910W        W65963  30.508   0.231  18.368 -0.0543 -0.0453 -0.2674
22911W        W65964  25.470  14.100  16.530 -0.1677 -0.2053 -0.1630
22912W        W65965  31.384  21.171  19.237 -0.0683  0.2449 -0.0090
22913W        W65966  34.095  28.042  25.989 -0.0444 -0.4080 -0.3521
22914W        W65967  11.437  23.083  22.632 -0.1348 -0.1951 -0.2860
22915W        W65968  31.631   0.988  22.909  0.0232 -0.0775 -0.1663
22916W        W65969  28.992  18.648  14.278 -0.2167 -0.0299 -0.1443
22917W        W65970  26.040  23.091  20.163  0.2051  0.0390 -0.1038
22918W        W65971  19.616   6.440  27.039  0.1752 -0.0791  0.1403
22919W        W65972  14.536  10.527  18.039 -0.1698  0.4196  0.3642
22920W        W65973   9.645  27.704   8.862  0.2681  0.0794 -0.1226
22921W        W65974  12.255  23.587  16.998 -0.1105 -0.2164 -0.3247
22922W        W65975  28.184  19.938  24.487 -0.0409 -0.1616 -0.1503
22923W        W65976  26.669  30.151  27.520  0.0787 -0.2217  0.0710
22924W        W65977  33.263  10.836  26.816 -0.0120 -0.0752  0.2179
22925W        W65978   0.993  29.585  16.561  0.2047  0.0344  0.0461
22926W        W65979  31.024  20.035  23.362 -0.2369  0.3392  0.1985
22927W        W65980   2.659  28.267  27.670 -0.2499  0.0878 -0.0337
22928W        W65981  22.388  15.990  16.054  0.1530 -0.3843  0.0123
22929W        W65982  26.555  14.016  16.242  0.1201  0.0324 -0.0642
22930W        W65983   6.039  25.528  17.433  0.3176 -0.0177 -0.0545
22931W        W65984  31.248  23.361  26.421 -0.0738 -0.0462 -0.0881
22932W        W65985  26.311  28.476  14.519 -0.1491  0.1819 -0.1821
22933W        W65986  31.035  21.561  28.235  0.0468 -0.0775 -0.1179
22934W        W65987  31.105  12.519  22.113 -0.2225  0.0415 -0.1400
22935W        W65988  26.206  27.577  16.555  0.1501 -0.0992 -0.2654
22936W        W65989  16.266  11.829  23.182  0.0198  0.0476  0.2136
22937W        W65990  31.292  13.766  17.142 -0.0375 -0.3578 -0.1016
22938W        W65991   2.317  22.646  18.427 -0.1212 -0.4624 -0.0735
22939W        W65992  34.677  29.077   1.405 -0.2587  0.0291 -0.1533
22940W        W65993  26.318  17.665  19.237 -0.2797  0.2501  0.1719
22941W        W65994   4.276  12.789  20.811  0.0634 -0.0426 -0.2503
22942W        W65995  28.638  17.704  25.805  0.3639  0.5186  0.0705
22943W        W65996   9.895  31.834  18.604 -0.0668 -0.0990 -0.1822
22944W        W65997  25.223   8.955  15.259 -0.0895  0.0012  0.1767
22945W        W65998   8.763  29.549  25.087 -0.0484  0.0244 -0.0471
22946W        W65999  17.484  33.300  23.665 -0.1527 -0.2973 -0.0373
22947W        W66000  30.015   6.892  28.383 -0.0323 -0.1443 -0.1151
22948W        W66001   1.921  29.254  13.527  0.1708 -0.0032 -0.0367
22949W        W66002  11.414  16.506  20.394 -0.1738 -0.0640 -0.1618
22950W        W66003  17.780   6.476  22.028  0.2215 -0.0183  0.2163
22951W        W66004  34.153  24.581  21.253 -0.2133 -0.1306  0.1732
22952W        W66005  27.934  21.976  10.006  0.1795  0.1739 -0.0908
22953W        W66006  12.049  28.934  15.520  0.2182  0.2464  0.4303
22954W        W66007   5.338   8.926  16.782  0.1693 -0.2259  0.0189
22955W        W66008  32.242  16.788  20.239 -0.1981 -0.0491  0.0877
22956W        W66009  21.010  22.092   4.950 -0.1235 -0.3258 -0.0332
22957W        W66010  33.793  19.992  22.318 -0.0474  0.0901  0.1589
22958W        W66011  32.709  31.310  13.807  0.2647  0.1330  0.0895
22959W        W66012  23.556  13.592  18.443  0.3311  0.0108 -0.0286
22960W        W66013   0.071   2.536  20.522 -0.1339  0.0733 -0.0939
22961W        W66014  25.165   3.707  18.049 -0.2470  0.2635 -0.2521
22962W        W66015  31.343   9.710  17.233 -0.1185  0.0409  0.0780
22963W        W66016  31.326  19.292  25.083 -0.0777 -0.2984 -0.2984
22964W        W66017  28.132  25.752   8.586  0.0598  0.3607 -0.1526
22965W        W66018  22.446  16.845  24.522 -0.0130  0.0232 -0.1042
22966W        W66019  28.382  20.129  24.008 -0.4203 -0.2100  0.0284
22967W        W66020   8.630  28.382  18.969  0.2152 -0.1975  0.1633
22968W        W66021   0.435  22.439  20.998 -0.1097 -0.0244 -0.1893
22969W        W66022  30.232   5.806  18.378  0.0624 -0.2063  0.1487
22970W        W66023  27.341   4.786  22.300 -0.1166 -0.3460  0.2040
22971W        W66024  26.266  21.451  15.630 -0.1969  0.1917 -0.1096
22972W        W66025   0.493  10.237  15.077 -0.1341  0.0457  0.3216
22973W        W66026  17.368  20.141  15.468  0.1793  0.1184 -0.0240
22974W        W66027  14.394   9.285  18.574 -0.3642 -0.1178 -0.1208
22975W        W66028  29.684   1.004  20.917  0.2087 -0.1249 -0.1164
22976W        W66029  29.453  19.179  15.780 -0.0829  0.1247  0.0856
22977W        W66030  24.369  21.002  18.038  0.0509  0.1717  0.0885
22978W        W66031  21.324  22.230  23.136  0.1961  0.0701 -0.0321
22979W        W66032  27.917   9.249   0.064  0.1696  0.0965  0.1995
22980W        W66033  31.983  18.154  15.133 -0.1008  0.0349 -0.1816
22981W        W66034   9.409  16.066  18.981 -0.1147 -0.0807  0.1532
22982W        W66035   2.080  24.807  26.284  0.0087  0.1583  0.1690
22983W        W66036   5.312  24.826  21.220  0.0325 -0.0493 -0.1539
22984W        W66037  24.760  16.187  25.115  0.1289 -0.0965  0.1943
22985W        W66038  23.877  30.393  20.236 -0.1123  0.2661  0.0416
22986W        W66039   2.125  33.301  18.225 -0.0578  0.5153  0.2551
22987W        W66040  15.663   6.506  18.580  0.0426  0.1245 -0.0660
22988W        W66041  21.598  32.958  18.829  0.4181  0.1922 -0.0947
22989W        W66042   4.450  20.922  13.219 -0.3108 -0.4462 -0.3785
22990W        W66043  26.831  15.090  21.231 -0.0103 -0.0504 -0.0749
22991W        W66044  33.571  12.779  16.260 -0.0640  0.3533  0.0811
22992W        W66045  27.885  14.685  28.830 -0.2268  0.2972  0.1621
22993W        W66046  21.486  14.465   0.258  0.3283 -0.4905  0.0964
22994W        W66047  26.110  27.558   0.356 -0.1002  0.4500 -0.2658
22995W        W66048   3.191  13.233  22.628  0.1247  0.2333 -0.2044
22996W        W66049  30.811   4.243   2.936  0.2439 -0.1079 -0.0327
22997W        W66050  25.836  34.342  24.226  0.0565 -0.1413  0.1141
22998W        W66051  24.612  27.208  16.820  0.0193  0.2010 -0.0772
22999W        W66052  23.901  16.057   5.524 -0.0332  0.2062  0.0476
23000W        W66053  30.281  19.080  26.446 -0.2094 -0.0764  0.1566
23001W        W66054  32.097   1.459  20.971 -0.0242  0.0633  0.1899
23002W        W66055   7.148  32.390  15.875 -0.0738  0.2381 -0.1108
23003W        W66056   9.168  15.837  24.685  0.0489  0.2523  0.1101
23004W        W66057  28.873  33.854   8.073  0.2099 -0.2764 -0.0469
23005W        W66058  30.480  27.035  20.934 -0.0205  0.6500  0.0216
23006W        W66059  34.484   7.297  18.311  0.0615 -0.0513 -0.0630
23007W        W66060  24.659  11.157  13.510 -0.0212 -0.2375  0.0942
23008W        W66061  12.174  20.934  13.653  0.1453 -0.2499  0.1351
23009W        W66062   0.226  14.200  19.638  0.1469 -0.1331 -0.1304
23010W        W66063  30.543  13.356  19.120  0.1963  0.1431 -0.0255
23011W        W66064  21.693  32.612  22.424  0.1160  0.0580  0.0192
23012W        W66065  27.310  26.986  23.417 -0.2951 -0.3391  0.0897
23013W        W66066   0.825  26.464  13.709  0.0000 -0.0966  0.0485
23014W        W66067  26.964  29.695   2.301 -0.1382 -0.2634  0.0829
23015W        W66068  31.417  15.996  13.970  0.1602  0.0083  0.2937
23016W        W66069  23.008  16.519  23.511  0.1913  0.2139  0.0734
23017W        W66070  17.442   8.845  16.603 -0.4050  0.1512 -0.1410
23018W        W66071  18.502  19.485  24.783  0.1022  0.0227  0.0451
23019W        W66072  28.113  27.109  14.954  0.0199 -0.0691  0.1631
23020W        W66073  19.819  33.635  24.861  0.0609 -0.0402  0.4683
23021W        W66074  33.622  15.413  20.157 -0.0754  0.0566  0.2559
23022W        W66075  32.372   5.506  15.578  0.0964  0.2068 -0.3988
23023W        W66076  25.459  17.904   1.812 -0.0016 -0.1323 -0.1037
23024W        W66077  22.657  18.537  13.685 -0.1231  0.0617  0.0209
23025W        W66078  32.134  31.416  15.196  0.0663  0.3020  0.3829
23026W        W66079   1.071  24.578  24.758 -0.2334  0.0178  0.1414
23027W        W66080  23.183  32.647  18.933 -0.0484  0.0332  0.0913
23028W        W66081  25.704  13.811   4.145  0.1522  0.0210 -0.2423
23029W        W66082  10.007  13.802  24.537 -0.4511 -0.1466 -0.0225
23030W        W66083  30.211  21.723  18.790 -0.1058  0.0576  0.4246
23031W        W66084   1.581  19.563  14.258  0.1066  0.0216  0.0261
23032W        W66085  24.409   7.001  15.611 -0.1596  0.0338  0.2089
23033W        W66086   3.245  30.419   5.114 -0.0081  0.0206  0.2421
23034W        W66087  33.205  29.246  19.276  0.1918 -0.0012 -0.1461
23035W        W66088  22.929  19.805   0.112  0.0578 -0.0419  0.0911
23036W        W66089   3.458  29.442  28.565 -0.0263  0.0964 -0.1417
23037W        W66090  22.918  31.929  18.358 -0.0474  0.3533 -0.0008
23038W        W66091  33.610  29.182  16.700  0.0490  0.1918  0.2799
23039W        W66092   6.513  16.416  29.156 -0.3984  0.0658  0.4847
23040W        W66093  34.071  33.172  13.392 -0.1051 -0.3064  0.0405
23041W        W66094   8.487  20.370  17.939  0.2256 -0.1599 -0.0171
23042W        W66095  23.315  15.632  25.954  0.2373  0.2464 -0.1417
23043W        W66096  24.902  27.256  21.622 -0.0582 -0.0426 -0.2722
23044W        W66097  21.276  21.657   8.757  0.0230 -0.0895 -0.0321
23045W        W66098  15.666  26.927   3.950  0.1059  0.0740 -0.0211
23046W        W66099  28.819  25.071  15.995  0.1143  0.1275 -0.2571
23047W        W66100  25.892  11.102   5.775  0.0561  0.2896 -0.0120
23048W        W66101   2.737   4.235   0.436  0.1223  0.1066  0.1955
23049W        W66102   9.572   8.373  18.000  0.0029 -0.2631 -0.1017
23050W        W66103  31.076  32.024  14.519  0.0834 -0.2840  0.0401
23051W        W66104  32.675  27.631  14.049  0.1648 -0.2380  0.0001
23052W        W66105  18.523   0.577  21.056  0.2109  0.1934 -0.1065
23053W        W66106   3.950  13.278  23.274  0.0730  0.1194 -0.0324
23054W        W66107  25.536  22.231  28.238 -0.2755 -0.0944 -0.0041
23055W        W66108  24.562   6.917  19.982 -0.0935 -0.0195 -0.0627
23056W        W66109   4.688  16.941  19.575 -0.2665 -0.0670 -0.4900
23057W        W66110   0.272  26.560   0.246 -0.0200 -0.0386  0.2621
23058W        W66111  27.976  30.959  17.116 -0.3275  0.2620 -0.2713
23059W        W66112  33.192   3.516  15.312 -0.2399 -0.2652 -0.0364
23060W        W66113  33.363  26.974  17.195 -0.0044  0.4142 -0.2555
23061W        W66114  26.345  10.797  15.257 -0.3378 -0.1583 -0.0149
23062W        W66115  10.742   4.186  15.821 -0.2909 -0.0790 -0.0870
23063W        W66116  13.350  28.705  22.092  0.2131 -0.0165  0.0447
23064W        W66117  24.041  28.969  17.997 -0.1513  0.3203 -0.2761
23065W        W66118  30.086  24.711  24.179 -0.2614 -0.0043  0.2836
23066W        W66119   8.564  16.683  22.074  0.1786 -0.0224  0.3180
23067W        W66120  16.238   1.652  25.836 -0.0797  0.2513  0.1433
23068W        W66121  23.833   1.188  21.063  0.2073  0.0265  0.0899
23069W        W66122  14.248  22.413  22.252  0.0076  0.0377  0.0243
23070W        W66123  32.964  34.435  14.139 -0.1848  0.1030 -0.0417
23071W        W66124   4.550  22.712  20.887 -0.1481  0.0429  0.0181
23072W        W66125  12.688  28.382  15.061 -0.1199  0.3048 -0.0521
23073W        W66126  21.699  24.902  18.646 -0.0056  0.1593  0.0741
23074W        W66127  24.665  17.469  28.775 -0.2886 -0.1206 -0.0359
23075W        W66128   8.629  22.699  19.849 -0.1348  0.2570  0.1024
23076W        W66129  14.325   4.133   0.282  0.0927 -0.0693 -0.0558
23077W        W66130  14.043  17.725  15.834 -0.1786 -0.0783 -0.0806
23078W        W66131  20.252  14.538  24.351  0.2149  0.1833 -0.1492
23079W        W66132  25.429  33.052   0.081 -0.0048 -0.1002 -0.0661
23080W        W66133  22.377  15.875  22.838  0.1636  0.0622  0.0567
23081W        W66134  19.523   5.340  28.379 -0.0903  0.2843 -0.1050
23082W        W66135  34.233  32.756  20.471  0.0076 -0.2817 -0.2896
23083W        W66136  22.470   9.123  14.964 -0.2091  0.2522 -0.3550
23084W        W66137   7.721   3.630  15.914  0.0623 -0.0006 -0.1319
23085W        W66138  26.680  32.243  25.626  0.1097 -0.3806  0.1506
23086W        W66139  17.992   1.314  22.921  0.0990 -0.0259 -0.1414
23087W        W66140   3.888  31.758  16.662 -0.2161 -0.2473 -0.1339
23088W        W66141  29.243  23.016  22.462  0.2602 -0.0575  0.0445
23089W        W66142  22.150  20.891  22.018  0.4130  0.0571 -0.0005
23090W        W66143  12.123  30.111  16.453 -0.0221 -0.0256  0.1028
23091W        W66144   9.308  11.507  24.980 -0.0306  0.0842  0.0163
23092W        W66145  21.620  27.555  23.696  0.2680  0.4188 -0.4942
23093W        W66146  16.286  29.764  14.485 -0.0015  0.4212  0.0562
23094W        W66147  26.778  24.215  21.409 -0.0916  0.1656  0.0963
23095W        W66148  26.728  18.546  15.251  0.0796 -0.0191  0.0937
23096W        W66149   0.937  15.722  21.170 -0.0975 -0.1332 -0.0321
23097W        W66150  27.919  26.028  26.049 -0.1370 -0.0139  0.2097
23098W        W66151  32.319  12.452   3.723 -0.3486  0.1845  0.0763
23099W        W66152  15.661  24.752   4.004 -0.0010 -0.0861  0.2840
23100W        W66153  33.559   7.471  22.184 -0.0347  0.0204 -0.0886
23101W        W66154  32.777  19.006  25.825  0.1502  0.2924 -0.0334
23102W        W66155  19.525  19.360  24.383  0.1299 -0.0122  0.3947
23103W        W66156  29.092  29.212  20.741 -0.1036  0.0550 -0.0956
23104W        W66157  19.374  31.121  15.434  0.1040  0.0359  0.1576
23105W        W66158  30.166  16.317  22.824  0.2495 -0.4825  0.5574
23106W        W66159  32.384  23.850  23.579  0.0838 -0.2687 -0.0672
23107W        W66160  30.725   8.801   0.644  0.1755  0.1456 -0.1949
23108W        W66161  22.065  24.367  18.870 -0.3495 -0.0784  0.4010
23109W        W66162  32.371  24.697  17.601  0.0759 -0.0999 -0.1117
23110W        W66163   1.467  12.968   7.251 -0.0993 -0.2985 -0.2014
23111W        W66164  16.983  21.089  23.625  0.0615  0.1658 -0.4450
23112W        W66165   0.803  15.000  19.378 -0.0331  0.2148  0.4144
23113W        W66166  11.984  25.865  22.398  0.2267  0.3079 -0.3464
23114W        W66167  27.186  20.435  23.022  0.2178  0.1597 -0.0072
23115W        W66168  32.481  32.825  25.164  0.0110 -0.2441 -0.2386
23116W        W66169   5.129  24.289   2.199  0.0075  0.1927  0.0878
23117W        W66170  32.125  21.047   2.228 -0.0258 -0.0369 -0.0413
23118W        W66171  31.147  31.075  13.857 -0.1571  0.0313 -0.0236
23119W        W66172  29.672  20.573  27.562 -0.0290 -0.3235 -0.0511
23120W        W66173  34.055  32.365  16.167 -0.0673 -0.2543  0.0504
23121W        W66174  25.209  20.329  20.818  0.2469 -0.2229  0.0231
23122W        W66175   6.232  16.945  23.262 -0.4936 -0.1732  0.1784
23123W        W66176  29.701   5.038  23.150  0.2078 -0.0621 -0.2576
23124W        W66177  25.565  21.035  17.156 -0.0243 -0.3551 -0.1210
23125W        W66178   5.421  11.470   3.271 -0.1648  0.1434  0.0142
23126W        W66179  30.237  20.194  13.917 -0.0729 -0.1570  0.2845
23127W        W66180  30.114  21.186  26.076 -0.1625 -0.2143  0.1216
23128W        W66181  10.721  17.928  28.392  0.0590  0.2058  0.0838
23129W        W66182   8.791  17.518   7.116  0.3246  0.2128  0.2512
23130W        W66183  18.718  21.086  15.983  0.2645 -0.1336 -0.0840
23131W        W66184  13.384  13.975  20.158  0.2391  0.1510  0.1452
23132W        W66185  31.589  30.504  15.847  0.1183 -0.2894 -0.0072
23133W        W66186   7.640  14.326  21.902  0.1905  0.2839 -0.0059
23134W        W66187  12.771  18.922  28.441 -0.0031 -0.1028  0.0523
23135W        W66188  20.093  27.309  16.820 -0.0687 -0.3049  0.4617
23136W        W66189  33.682  34.639  22.908  0.2300 -0.1015  0.0757
23137W        W66190  27.030  17.769  15.463  0.0419 -0.1310  0.1610
23138W        W66191  25.573  28.971  23.114  0.0983 -0.1083  0.3182
23139W        W66192  30.478  25.499  20.329 -0.1071 -0.0229 -0.0937
23140W        W66193  22.076  33.996  16.780  0.1931 -0.0710  0.0258
23141W        W66194  32.621  23.300  22.572 -0.0275 -0.1675  0.0806
23142W        W66195  27.733   5.246  19.102 -0.0259  0.1584  0.1937
23143W        W66196  31.141   8.933  15.863  0.2476 -0.2752 -0.1903
23144W        W66197  16.436  27.851   1.651  0.3842 -0.1057  0.0135
23145W        W66198  13.037  30.415  27.388  0.1154 -0.3046  0.3559
23146W        W66199   6.968  14.196  16.838 -0.2232  0.1287 -0.1802
23147W        W66200  33.073  26.682  15.755 -0.0388  0.3330 -0.3236
23148W        W66201  17.673  31.874  20.600  0.2190 -0.1696  0.4512
23149W        W66202   4.240  25.561   6.432  0.0111  0.1273 -0.0101
23150W        W66203   3.201  34.166   6.014 -0.0839 -0.0357  0.1495
23151W        W66204  32.379  13.703  14.808  0.0200 -0.1878  0.0918
23152W        W66205  30.365  25.875  21.228  0.3749 -0.1294  0.1048
23153W        W66206  31.376  13.584  15.246  0.1537  0.1350 -0.1922
23154W        W66207  17.157  15.634  15.574 -0.0865  0.0338  0.1218
23155W        W66208  29.286  11.765  17.519 -0.1101  0.0506 -0.2018
23156W        W66209  14.732  24.705   4.629 -0.0365 -0.4448 -0.2028
23157W        W66210  19.995  20.934  18.844 -0.0213 -0.3507 -0.1910
23158W        W66211  23.657  30.318  16.301  0.1286 -0.2935  0.1205
23159W        W66212  22.833  34.230  23.759  0.0088 -0.2149 -0.0898
23160W        W66213  32.897   0.706  27.887 -0.2603  0.1050 -0.1246
23161W        W66214   8.336  33.522  17.987  0.2043 -0.1333  0.1285
23162W        W66215   6.891   2.068  22.500  0.0559  0.1941 -0.2730
23163W        W66216  14.699  18.878  20.890 -0.1076  0.0663  0.4100
23164W        W66217   7.970   5.039  19.592 -0.1888 -0.0512  0.0744
23165W        W66218   5.244   5.351  20.480 -0.2861 -0.0575  0.0456
23166W        W66219  29.943  19.564   8.392 -0.6162  0.0976  0.0614
23167W        W66220  18.864  16.475   4.500 -0.0340  0.0402 -0.0125
23168W        W66221  29.427  19.342  19.434  0.0554 -0.0603 -0.0714
23169W        W66222   4.067  17.436  21.139  0.1196  0.3632 -0.0257
23170W        W66223  28.898  24.550  18.420  0.0803 -0.1520  0.1135
23171W        W66224  27.256  10.435  19.250  0.1332  0.2611 -0.1578
23172W        W66225  32.156  13.933  15.378 -0.2623 -0.0578 -0.0876
23173W        W66226  28.857  18.083  27.829  0.0281  0.1214 -0.2479
23174W        W66227  21.824  14.686  21.569 -0.0616  0.1232 -0.0292
23175W        W66228   1.304  19.486  20.527 -0.0606 -0.3558  0.1639
23176W        W66229  30.796   7.852   4.038  0.0482  0.0894  0.0895
23177W        W66230  31.844  34.624  16.441  0.2575  0.2751 -0.0192
23178W        W66231   5.785  25.077  24.712 -0.0767 -0.1474  0.0915
23179W        W66232  24.161  17.409  21.209 -0.0060  0.1304  0.0592
23180W        W66233  34.369  33.522  14.609 -0.0527 -0.1693 -0.2215
23181W        W66234  20.111  26.422  22.985  0.2422  0.0316  0.2725
23182W        W66235  30.175  18.799  21.245  0.0362 -0.0884  0.3353
23183W        W66236  26.527  18.176  19.538  0.1787  0.0762  0.1778
23184W        W66237   0.681  12.169  13.902  0.1611 -0.2338  0.1585
23185W        W66238   4.212  14.213  15.024  0.1770 -0.0842 -0.2753
23186W        W66239  19.228  30.400  18.352 -0.4525 -0.1401 -0.1659
23187W        W66240  23.504  26.645  18.290  0.0969 -0.2117 -0.2138
23188W        W66241  28.886  30.844   1.676  0.4390  0.2193 -0.0352
23189W        W66242  31.191  24.805  20.087  0.5132  0.0876  0.0292
23190W        W66243  11.347  25.214  27.330  0.1427  0.3487  0.0920
23191W        W66244  28.603  20.273  14.738  0.1586  0.0337  0.0244
23192W        W66245   7.146  34.573  25.036  0.0868 -0.4562  0.0762
23193W        W66246  20.974  34.649  14.984 -0.1348  0.0817  0.1217
23194W        W66247   2.239  31.375  20.166 -0.2608 -0.2957  0.0895
23195W        W66248  25.135  26.861  21.794  0.0679  0.1690 -0.0691
23196W        W66249  33.699  18.480   2.023 -0.0214  0.1199  0.1893
23197W        W66250  20.238  15.323   2.860 -0.0970 -0.1149 -0.0465
23198W        W66251   1.717  16.140  20.585 -0.2279  0.4635  0.2392
23199W        W66252  10.612  12.315   1.453  0.0666  0.0844 -0.3265
23200W        W66253  14.754  33.421  22.170  0.0755 -0.1531  0.0544
23201W        W66254   5.623   3.267  25.933  0.3293 -0.2259 -0.4645
23202W        W66255  31.943  17.606  16.366 -0.0243  0.2588 -0.0801
23203W        W66256  27.178  34.250  16.667 -0.2355  0.1052 -0.3476
23204W        W66257  30.801  23.092  21.359 -0.3257  0.2839 -0.1822
23205W        W66258   3.618   7.111  21.561 -0.1823  0.1727  0.1534
23206W        W66259  27.974   5.382  23.145 -0.0850 -0.1276 -0.1516
23207W        W66260  34.158  20.201  17.747  0.2244  0.0500  0.0205
23208W        W66261  29.616  15.975  24.480  0.0304 -0.2215  0.3578
23209W        W66262   8.517  26.246  13.482 -0.0898 -0.0780 -0.0499
23210W        W66263  29.984  33.744  22.307  0.0290 -0.2122 -0.2814
23211W        W66264  23.987  24.504   1.929  0.1289  0.1480  0.0352
23212W        W66265  30.444  23.355  17.173  0.2770 -0.0052 -0.1608
23213W        W66266  20.801   9.195   6.248 -0.1093  0.0234 -0.0348
23214W        W66267  28.060  21.542  17.976 -0.0676 -0.0420  0.0305
23215W        W66268   8.787  33.491  18.209  0.4121  0.1061 -0.0946
23216W        W66269  21.908  15.776  14.760 -0.1772  0.0354  0.1274
23217W        W66270   1.870  34.126  17.242 -0.0215  0.1214 -0.1988
23218W        W66271  33.725  28.728  17.008  0.0647 -0.1923 -0.0466
23219W        W66272  29.423  22.470  13.881 -0.3851 -0.4199 -0.0287
23220W        W66273  28.049  21.788  20.446  0.2869  0.2396  0.3530
23221W        W66274  10.699  32.792  27.544  0.0049  0.0657  0.1270
23222W        W66275  30.850  10.269  22.170  0.1286  0.0703 -0.1819
23223W        W66276  23.346  26.914  23.908  0.2009  0.3071 -0.0724
23224W        W66277  34.012  23.789  15.502  0.0469 -0.0271  0.0315
23225W        W66278  26.682  29.382  22.413 -0.0131  0.3639 -0.2375
23226W        W66279  23.446  33.787   4.973 -0.0102  0.1776  0.3577
23227W        W66280   0.169   3.467  15.038  0.3543  0.0368  0.0879
23228W        W66281  22.993  34.545  26.329 -0.0933 -0.0498  0.1249
23229W        W66282   9.381  12.763  23.692  0.0423  0.5331 -0.0043
23230W        W66283  34.622   9.373  24.979  0.1382  0.0719 -0.0908
23231W        W66284  29.097  12.557  17.248 -0.0192 -0.2149 -0.2262
23232W        W66285  29.230  13.579  19.716  0.0828 -0.0634  0.0327
23233W        W66286  31.085  31.665  22.998  0.1787 -0.1689 -0.2401
23234W        W66287   9.895  18.003  17.755  0.0511  0.1290 -0.0267
23235W        W66288   2.984  25.097  16.504  0.0381  0.0926 -0.1290
23236W        W66289  20.650  29.763  18.783 -0.4465  0.1156  0.0465
23237W        W66290  22.569  14.410  22.651 -0.4262  0.0829  0.0508
23238W        W66291  25.054  20.960   6.436  0.2446 -0.2016  0.0367
23239W        W66292  24.477  25.623  16.102 -0.3310 -0.0596 -0.3334
23240W        W66293  21.065  19.723  22.205  0.2338 -0.1695 -0.1684
23241W        W66294   0.094  30.079  17.914 -0.1055 -0.0491  0.3306
23242W        W66295  32.354   0.188  20.541 -0.0270  0.0474 -0.0579
23243W        W66296  15.310  15.993   0.928  0.3348  0.1698  0.0965
23244W        W66297  25.186  17.210  26.077 -0.0760  0.3468 -0.2002
23245W        W66298  25.712  27.606  21.504 -0.0487  0.1216 -0.2816
23246W        W66299  31.094  21.675   9.076  0.1235 -0.0381  0.3878
23247W        W66300  22.576  27.520   6.151  0.0512 -0.0769 -0.0497
23248W        W66301   3.152  12.552  14.798  0.3882 -0.0923  0.0767
23249W        W66302  17.996   9.269  27.468  0.2084  0.0949 -0.0190
23250W        W66303   2.819   2.062  13.609 -0.0468  0.0300  0.1093
23251W        W66304   4.482   2.281  27.389  0.1257 -0.0158  0.0113
23252W        W66305  12.338  27.059   1.505 -0.0947  0.1015 -0.2349
23253W        W66306  10.962  19.472  23.166 -0.0489 -0.0437 -0.0946
23254W        W66307  23.441  22.755  18.811 -0.4735 -0.3845 -0.1538
23255W        W66308  34.359  15.369  17.201 -0.3110 -0.1428 -0.0866
23256W        W66309  29.235  20.487  26.479  0.0659 -0.0745 -0.0754
23257W        W66310  17.774   9.190  16.768  0.1292  0.0205 -0.1376
23258W        W66311  28.046  16.188  16.905  0.0172 -0.0309 -0.4102
23259W        W66312  25.528  20.331  24.152  0.0425  0.2061  0.0685
23260W        W66313  34.146   0.080  27.772  0.2563  0.2241  0.1038
23261W        W66314  14.904  27.877  18.906  0.2204 -0.0507  0.0361
23262W        W66315  25.445  13.615  18.120 -0.0261  0.3555  0.0743
23263W        W66316  17.993  25.741   6.699 -0.1707  0.0615  0.2116
23264W        W66317  18.739  27.177  24.731 -0.0282  0.2089 -0.1224
23265W        W66318  11.393  10.801   1.001  0.1578 -0.0870 -0.3469
23266W        W66319  25.845  11.744   4.774  0.2164 -0.0455 -0.0022
23267W        W66320   7.108  13.875  26.672  0.0010  0.1283 -0.0366
23268W        W66321  32.003  12.619   0.913 -0.0313 -0.2978  0.1357
23269W        W66322   5.958  32.761  13.366 -0.0527  0.1253  0.2003
23270W        W66323   6.621  22.057  14.936 -0.2774  0.1499  0.2041
23271W        W66324   4.053  11.313  24.218 -0.1085  0.0664 -0.4282
23272W        W66325  32.177  23.451  22.830  0.0315 -0.1759 -0.0431
23273W        W66326   7.421  14.397  24.800 -0.1734  0.0358  0.2477
23274W        W66327  19.976   6.997  22.770  0.1842  0.0418  0.3549
23275W        W66328   2.360  22.203  23.848 -0.1044 -0.2049  0.0790
23276W        W66329  19.757  28.999   6.177 -0.0281 -0.0109  0.0384
23277W        W66330   8.190   3.272  28.314  0.0897 -0.1260 -0.1342
23278W        W66331  21.279  20.209  19.400 -0.1458 -0.1481 -0.1464
23279W        W66332  25.418  11.936   3.241 -0.2270 -0.1674  0.0987
23280W        W66333  33.668   0.393  16.024 -0.0081 -0.4474 -0.1919
23281W        W66334  21.178  11.722  26.216  0.3073  0.1984 -0.2188
23282W        W66335  16.716  17.067  12.429  0.1847  0.3478  0.1878
23283W        W66336  30.795   6.406  26.444 -0.0295 -0.0148 -0.0577
23284W        W66337   1.871  15.167   1.385 -0.2684 -0.0378 -0.3538
23285W        W66338   9.859  22.011  14.772  0.0999 -0.3547 -0.2096
23286W        W66339  32.755  19.870  17.297  0.2571 -0.0664 -0.2197
23287W        W66340  21.434  20.340  21.948 -0.4348 -0.0058 -0.0498
23288W        W66341  16.912  34.330  15.300  0.1772 -0.2555 -0.0627
23289W        W66342   4.683  24.397  19.157  0.2130 -0.0869  0.0615
23290W        W66343  13.423   8.829  19.120  0.1527  0.0691 -0.0420
23291W        W66344  29.445  26.398  24.306 -0.3410 -0.0309 -0.3413
23292W        W66345   4.513  22.231  13.887  0.2558  0.1654  0.0023
23293W        W66346  13.779   9.127  23.646 -0.0749  0.0094 -0.1566
23294W        W66347  29.028   2.627  15.258  0.2531 -0.0917  0.2298
23295W        W66348   4.823  34.123  18.814 -0.3093 -0.2780  0.0861
23296W        W66349  24.588  25.861  14.823  0.1126 -0.1192 -0.2667
23297W        W66350  10.807  31.507  18.508 -0.1163 -0.1087 -0.2021
23298W        W66351  18.579   8.509  16.938 -0.0478 -0.1141  0.0222
23299W        W66352   3.058  30.018  13.848  0.0200 -0.1733 -0.3378
23300W        W66353  26.789  26.222  21.080 -0.2913  0.3509  0.1104
23301W        W66354   3.644  20.088  18.859  0.0348 -0.1051  0.1715
23302W        W66355  29.449  31.424  28.413  0.0150  0.1520  0.0161
23303W        W66356   7.847   0.148  21.431 -0.1455  0.0909 -0.4754
23304W        W66357   1.441  26.892  22.039 -0.0472 -0.2193 -0.0798
23305W        W66358  29.050  16.482  27.379  0.3320 -0.2289 -0.0705
23306W        W66359  18.589  28.893  23.982 -0.0800 -0.0598  0.2514
23307W        W66360  21.139   7.208  23.685  0.1004 -0.3251 -0.0723
23308W        W66361  33.927  23.545   5.217 -0.0776  0.1667  0.2047
23309W        W66362  23.099  20.222  22.588 -0.0499  0.1379  0.2319
23310W        W66363   7.138  18.402  15.755 -0.3759 -0.0925  0.3853
23311W        W66364   0.684  24.268  20.790  0.0114 -0.3750  0.0477
23312W        W66365   1.445  15.088  18.684 -0.2236 -0.0540  0.1521
23313W        W66366   2.240  25.850   9.892  0.1934 -0.3890 -0.0028
23314W        W66367  28.019  22.486  28.439 -0.0290 -0.3384 -0.1576
23315W        W66368  27.054  30.022  17.355  0.4994  0.1333  0.0616
23316W        W66369  23.179   0.068  15.166  0.3080  0.1269  0.1966
23317W        W66370  29.842  14.084  22.915 -0.3533  0.0230 -0.2318
23318W        W66371  28.892   4.455   7.804 -0.1022  0.1724 -0.3186
23319W        W66372  23.555   1.301  21.495 -0.0831  0.0869  0.2445
23320W        W66373  30.603  11.387   3.546  0.0653  0.0281 -0.1465
23321W        W66374   1.021   6.179   3.029 -0.2164  0.0636 -0.2476
23322W        W66375  28.136  28.390  23.435 -0.0197  0.0060  0.2591
23323W        W66376  30.480  13.514   1.022  0.1299  0.0169 -0.0151
23324W        W66377   2.433  24.382  13.520 -0.1834 -0.0888 -0.0422
23325W        W66378   2.724  12.384  17.127  0.1269  0.4528  0.4253
23326W        W66379   4.228   1.803  21.546  0.1547 -0.0323 -0.1658
23327W        W66380   0.180  30.049   1.883 -0.2270  0.2087 -0.0350
23328W        W66381  31.433  11.973  28.213 -0.0713 -0.0149 -0.1187
23329W        W66382  25.054  24.080  14.887 -0.0822  0.0526  0.1073
23330W        W66383  25.221  23.382  25.715 -0.0844  0.0515 -0.0264
23331W        W66384  31.323  22.866  20.209 -0.1244  0.1347 -0.2059
23332W        W66385   1.429  24.370  17.244 -0.0440 -0.4452 -0.3386
23333W        W66386  20.402  11.073  28.893 -0.3204 -0.0022 -0.1591
23334W        W66387  28.697  10.557  24.367 -0.3664 -0.3114  0.0226
23335W        W66388  29.674  30.829  25.311  0.0903  0.2971 -0.1257
23336W        W66389  26.799  28.866  20.885 -0.2734 -0.1945 -0.2709
23337W        W66390  21.761  20.007  20.603  0.3155 -0.0119 -0.0929
23338W        W66391  28.719  32.566  27.713  0.2577  0.2457 -0.2493
23339W        W66392  17.617  19.620   6.544  0.0489 -0.0967  0.1683
23340W        W66393  11.161  22.956  19.651 -0.1395 -0.0353  0.0925
23341W        W66394  19.967  11.638  21.637 -0.0006  0.1948  0.0480
23342W        W66395  24.855  19.224  14.896 -0.2063 -0.1673 -0.1422
23343W        W66396  33.201  21.210  16.312 -0.0799 -0.2768 -0.3467
23344W        W66397  25.820  24.804   0.851  0.1756  0.0373 -0.2623
23345W        W66398  25.705  21.207  27.204  0.3046 -0.0378  0.2257
23346W        W66399  21.776  28.748  19.187 -0.1160 -0.4073 -0.2126
23347W        W66400  30.204  24.444  22.409  0.0450  0.2409 -0.4042
23348W        W66401  30.549  29.782   3.541 -0.0903  0.0242 -0.1203
23349W        W66402   0.033  29.601  27.909  0.5210  0.1834 -0.0087
23350W        W66403  31.922  22.870  24.819  0.2264 -0.0042  0.3466
23351W        W66404   0.931  22.674  20.745 -0.2347 -0.1750  0.0513
23352W        W66405  32.277  29.214  25.348 -0.0852 -0.4040  0.0158
23353W        W66406  14.201  21.802  27.392  0.2540 -0.2511  0.0909
23354W        W66407  29.359  23.130  18.189  0.1019  0.0941 -0.1028
23355W        W66408  24.005  28.403  22.533  0.1539 -0.0923 -0.2590
23356W        W66409  30.883  11.233  26.158  0.8046  0.0276  0.0366
23357W        W66410  13.361  27.001  24.556 -0.0192 -0.1932 -0.0260
23358W        W66411  31.042   9.787   0.150 -0.0115  0.0022  0.0557
23359W        W66412  29.024  29.361  18.321  0.3730  0.2135 -0.1337
23360W        W66413  24.029  32.669  23.721 -0.3809 -0.3027 -0.5409
23361W        W66414  30.062   8.985   0.604 -0.1248 -0.1413  0.0657
23362W        W66415  22.321  32.000  18.143 -0.2901 -0.1260 -0.2368
23363W        W66416  24.681  24.853  15.099 -0.0927  0.0219  0.0913
23364W        W66417   9.755  10.922  25.191  0.2281  0.4525  0.0786
23365W        W66418  28.149   4.860  14.198  0.2354 -0.0641  0.0261
23366W        W66419  21.716  14.677  16.607 -0.4112  0.1679  0.3068
23367W        W66420   0.361  33.131  15.021 -0.0876 -0.3162 -0.2602
23368W        W66421   3.840   8.762  20.725 -0.0491  0.1584 -0.1753
23369W        W66422  26.049  19.644  26.910 -0.1431  0.0495 -0.0998
23370W        W66423  32.445  20.990  13.470  0.3211  0.2312 -0.2495
23371W        W66424  14.516  20.245  14.392  0.3793 -0.0136 -0.2357
23372W        W66425   7.153   2.736  18.529 -0.0305 -0.0977 -0.3932
23373W        W66426  22.860  14.585  17.155 -0.0454 -0.1532  0.0720
23374W        W66427  20.987   7.663  21.381 -0.0430 -0.2137  0.2517
23375W        W66428  14.784  22.217  27.101 -0.0557 -0.0268 -0.2566
23376W        W66429  25.282  28.771  21.206 -0.0661  0.3343  0.1156
23377W        W66430  21.547   7.909  21.909  0.1364 -0.0196 -0.2693
23378W        W66431   4.441  30.792  16.997  0.0287 -0.0847 -0.2153
23379W        W66432  30.777  18.795  19.439 -0.0699 -0.2949 -0.3649
23380W        W66433  27.826  20.444  27.702  0.0562  0.0946  0.0126
23381W        W66434  16.174  28.189  20.822  0.2427 -0.3561 -0.0040
23382W        W66435  26.237  20.802  24.505  0.1188 -0.0588  0.1092
23383W        W66436  24.068  31.274  17.834  0.0282  0.2309 -0.1628
23384W        W66437  23.578  32.624  18.553 -0.0542  0.1104 -0.0873
23385W        W66438  19.443  29.028  22.529  0.0200  0.1637 -0.2033
23386W        W66439  25.574  25.771  15.911 -0.0068 -0.1873 -0.2215
23387W        W66440  13.657  31.701  19.597 -0.1454 -0.0299 -0.2624
23388W        W66441  21.435  24.134  19.408 -0.1211 -0.4308 -0.1894
23389W        W66442  22.812   8.065  22.824 -0.2412  0.1452 -0.3386
23390W        W66443  31.163  22.650  23.134  0.2435  0.1977  0.3076
23391W        W66444  11.717  20.953  21.232  0.0337  0.3176  0.1231
23392W        W66445  29.681  21.445  15.371  0.2962 -0.1364  0.0714
23393W        W66446  22.147  18.947  21.941  0.0211  0.2758 -0.1805
23394W        W66447   3.535  16.445  21.532 -0.0757  0.1837 -0.0400
23395W        W66448  29.747  27.006  25.380 -0.0735 -0.0016  0.1703
23396W        W66449  25.211  12.621  22.167  0.0075 -0.3806  0.0836
23397W        W66450  34.411  28.281  21.184  0.0071  0.0734  0.1622
23398W        W66451   9.278  20.115  20.773 -0.2002 -0.0490  0.0574
23399W        W66452  12.659  23.725  23.404  0.0149  0.3255  0.4290
23400W        W66453   0.679  17.906  21.567  0.2408  0.0118 -0.0762
23401W        W66454  22.500  24.254  16.763 -0.1679 -0.1151  0.3711
23402W        W66455  16.764  10.267  21.496  0.1770 -0.0821  0.2111
23403W        W66456   2.985  28.684  26.987  0.0276  0.1092 -0.1223
23404W        W66457   5.046  23.214  28.822  0.0757  0.0028 -0.1050
23405W        W66458  26.477  27.392  19.928  0.1063 -0.2183 -0.2655
23406W        W66459  23.092   0.060  23.583 -0.1743 -0.1042 -0.2400
23407W        W66460  31.886  24.023  20.538  0.1855  0.2986  0.0293
23408W        W66461  18.471  24.529  15.034  0.0080 -0.2314  0.0048
23409W        W66462  27.253  13.197  22.502 -0.1038 -0.0751 -0.1541
23410W        W66463  26.090  30.577  16.431 -0.1904  0.0888 -0.0602
23411W        W66464  30.847  14.045  20.511  0.1112 -0.1525  0.0557
23412W        W66465  17.715   8.887   3.601  0.3115 -0.3018  0.0285
23413W        W66466  10.762  25.646  16.486  0.1221  0.4269  0.4000
23414W        W66467   0.431  17.857  23.638  0.1963  0.1405 -0.3144
23415W        W66468  29.158  15.269  14.623  0.1163  0.0632 -0.0709
23416W        W66469  22.933  25.961   4.602 -0.0058 -0.0358  0.2828
23417W        W66470  16.935  22.625  14.979  0.1296 -0.0477 -0.0010
23418W        W66471  32.200  18.312   6.790 -0.1682 -0.3488  0.2264
23419W        W66472  17.457  24.953  19.620 -0.3853  0.0563  0.0781
23420W        W66473  30.655  19.225  16.507 -0.2544  0.0149  0.0616
23421W        W66474   6.948  17.371  22.605  0.0408 -0.1332 -0.1794
23422W        W66475  30.803  11.310  23.424 -0.2830  0.0373 -0.1378
23423W        W66476  12.981  22.377   8.495  0.0390  0.1336 -0.0712
23424W        W66477  22.150   4.504  27.312  0.1026  0.1574 -0.0249
23425W        W66478  34.348   2.644   1.251  0.2212  0.2340 -0.0501
23426W        W66479   5.454  13.136  13.722  0.2274 -0.5769  0.2165
23427W        W66480   5.487   1.590  15.739 -0.1435  0.1757 -0.2515
23428W        W66481   1.350  30.367  24.707 -0.3316 -0.2786  0.0551
23429W        W66482  13.990   0.952   5.856  0.0184  0.1418  0.1491
23430W        W66483  34.658  34.672   2.331 -0.0659  0.0724 -0.2289
23431W        W66484   1.464  17.432   8.004 -0.2411  0.0901 -0.2481
23432W        W66485  31.713  32.924  19.533 -0.0104  0.2343 -0.1359
23433W        W66486   0.219  13.179   5.448  0.0600  0.0577  0.0683
23434W        W66487  33.528  31.440  13.782  0.2881 -0.0084  0.1203
23435W        W66488  22.492  21.975  27.035 -0.0721 -0.1127 -0.0407
23436W        W66489  10.068  11.799   5.872 -0.2026 -0.2606  0.0122
23437W        W66490   6.877  30.254  22.222  0.0881 -0.1344 -0.1164
23438W        W66491  24.760  11.115  28.185  0.1510 -0.2314 -0.1341
23439W        W66492  18.316  23.485  25.638  0.1218 -0.3410 -0.1048
23440W        W66493   1.075  13.502   2.020 -0.0305  0.2130  0.0315
23441W        W66494  18.318  15.593  23.302 -0.1293  0.1200 -0.0323
23442W        W66495  34.601  28.270   7.346 -0.2577 -0.0028  0.3071
23443W        W66496   3.817  27.433   1.978  0.0165  0.2672  0.0614
23444W        W66497  33.746  19.520  25.172 -0.0587 -0.0063  0.0735
23445W        W66498  33.078  25.905  20.131  0.0355  0.1494  0.0808
23446W        W66499   3.258  30.517   0.768  0.2533 -0.1158 -0.2281
23447W        W66500  33.031  13.988   6.868 -0.0699 -0.0655  0.0121
23448W        W66501  20.835   4.244  19.210  0.0611  0.0629  0.0217
23449W        W66502  33.878  19.534  28.840  0.3352 -0.1153  0.0239
23450W        W66503  21.985  22.498   1.075 -0.1355 -0.0326 -0.1394
23451W        W66504  20.243   4.054  15.535  0.1455 -0.0532  0.2976
23452W        W66505  28.335  11.820   0.548 -0.0713  0.1808 -0.1284
23453W        W66506  32.846  14.432   5.989 -0.3173 -0.2512 -0.0045
23454W        W66507  26.700  18.254   7.305 -0.1636 -0.0776  0.3257
23455W        W66508   1.104  24.713   0.854 -0.2134  0.0481  0.2594
23456W        W66509  26.608   1.828  10.327 -0.2040  0.0510  0.2512
23457W        W66510  31.398  23.075  20.648  0.1192  0.0173  0.0257
23458W        W66511  16.994  11.548  21.193 -0.2250 -0.1423 -0.2287
23459W        W66512  26.991   0.897  25.241 -0.0307  0.0961 -0.1586
23460W        W66513  32.817  22.414  25.151 -0.0767 -0.2097 -0.0175
23461W        W66514   0.439  26.701  27.891 -0.1731  0.1874 -0.0915
23462W        W66515   9.912  33.577  27.967  0.1447 -0.2174 -0.1123
23463W        W66516   9.422  30.291  16.721  0.0824  0.2589 -0.2207
23464W        W66517  31.781  27.614  20.691  0.1032 -0.1480  0.0417
23465W        W66518  24.987  13.278  28.525  0.3940 -0.3177  0.0040
23466W        W66519  25.435  28.166  14.889 -0.1967  0.0199  0.0410
23467W        W66520  22.869   1.766   3.961 -0.1166  0.0341  0.0358
23468W        W66521  21.100  18.601  22.861 -0.1812  0.2065 -0.1116
23469W        W66522   6.241   5.527  15.973 -0.2690 -0.0115 -0.0791
23470W        W66523  19.600  19.493  14.485 -0.0712 -0.2401 -0.0804
23471W        W66524   9.163  33.983   6.914 -0.2487 -0.0984 -0.2803
23472W        W66525   4.116  12.565   4.041  0.0338  0.2665  0.3135
23473W        W66526  15.299  25.600  23.608  0.0754 -0.0439 -0.1783
23474W        W66527  24.166  23.953  28.617  0.1347 -0.0461 -0.0651
23475W        W66528  16.151  31.453   9.091 -0.0361 -0.0793  0.2592
23476W        W66529  11.814  26.438  23.664 -0.1614  0.0193 -0.0707
23477W        W66530  22.878  26.550  26.696  0.1764 -0.0517  0.0251
23478W        W66531  33.106  34.320   1.513  0.1129  0.1820 -0.2021
23479W        W66532  21.653  17.397  26.825 -0.2642 -0.1330  0.2580
23480W        W66533  14.343  16.661  22.017  0.1387  0.2437 -0.1568
23481W        W66534   5.805  13.654  25.887 -0.2246  0.0085  0.0759
23482W        W66535  29.370  26.640  25.348  0.0834  0.0553 -0.2361
23483W        W66536  31.403  16.403  14.277 -0.0332  0.0581 -0.2165
23484W        W66537  14.391  33.890  21.240 -0.0382  0.0005  0.1279
23485W        W66538   2.337  22.618   2.056 -0.2236 -0.3077 -0.0606
23486W        W66539  23.303  23.236  14.376  0.1565 -0.2308 -0.0082
23487W        W66540  27.952  20.456   1.624 -0.0224 -0.1257 -0.0364
23488W        W66541  11.414   9.934  21.622 -0.2110 -0.2543  0.1649
23489W        W66542  20.591  17.103  25.928  0.0297  0.0247  0.0452
23490W        W66543  33.245  15.613  25.189 -0.1280  0.1338 -0.0164
23491W        W66544  22.114  13.402  21.499 -0.0750 -0.1762  0.0180
23492W        W66545  23.466  19.417  22.790  0.3581 -0.0258  0.1401
23493W        W66546   2.481  16.773  20.023 -0.0818  0.0525 -0.3827
23494W        W66547   5.366  31.883   4.504  0.0597 -0.3845 -0.0001
23495W        W66548  24.173  25.282  23.797  0.0277 -0.0594 -0.1015
23496W        W66549  22.906  25.646  20.434  0.2731 -0.1948  0.1708
23497W        W66550  23.455  15.406  15.288 -0.1482  0.2129 -0.1955
23498W        W66551  25.335   7.800   1.074 -0.2230  0.1350  0.1137
23499W        W66552  34.472   8.864  15.937 -0.3139 -0.0328 -0.0027
23500W        W66553   0.728  28.771  17.716 -0.3564  0.2350  0.1129
23501W        W66554  18.051  31.705  27.465  0.3522 -0.0282 -0.1766
23502W        W66555   2.568  15.094  23.254 -0.1352 -0.1681 -0.1322
23503W        W66556  32.279  14.139  10.555 -0.0706 -0.1206  0.0791
23504W        W66557  29.829  21.278  21.052  0.0644 -0.1109  0.1799
23505W        W66558   8.170   8.176   3.762 -0.2246 -0.0942 -0.0757
23506W        W66559  29.490   9.238  28.286  0.1644 -0.2505 -0.0312
23507W        W66560  24.777  21.640  22.838  0.0250 -0.0733 -0.0569
23508W        W66561  33.135  14.294  27.802 -0.0483  0.0039  0.1420
23509W        W66562   2.832   6.833   7.084  0.1916  0.1300 -0.1667
23510W        W66563  23.690  31.002  16.476 -0.1124 -0.0503  0.1229
23511W        W66564  13.639  18.642  16.395 -0.1293 -0.0161 -0.1602
23512W        W66565   5.992   6.056  28.122  0.0854 -0.0133  0.0653
23513W        W66566  28.592  33.747  21.560  0.1585 -0.2642 -0.0503
23514W        W66567  23.798  23.295  22.016  0.0911  0.1957 -0.1468
23515W        W66568  26.831  32.700   4.650  0.2682 -0.1675 -0.0199
23516W        W66569   4.624  26.020   4.009 -0.0971  0.0768  0.1796
23517W        W66570  34.467  16.133   2.878 -0.1085  0.0051  0.1267
23518W        W66571  13.545  22.536  18.871 -0.0416  0.0900  0.1148
23519W        W66572   7.755  31.126  14.411  0.0220  0.1258  0.1354
23520W        W66573   4.927  15.341  17.919  0.2972  0.0381  0.4278
23521W        W66574   5.492  14.447   6.813 -0.0031 -0.0093  0.1231
23522W        W66575   2.744  14.775  15.767  0.0173  0.0292 -0.0311
23523W        W66576  27.608  20.856  22.096  0.1371  0.1231 -0.2535
23524W        W66577  21.586  22.198  18.962 -0.0629  0.2247 -0.0932
23525W        W66578  10.306  24.193   4.162 -0.0949  0.3640  0.1099
23526W        W66579   1.854  18.092  23.461 -0.0146  0.1157  0.2245
23527W        W66580   3.662  32.036  17.154 -0.1131 -0.1263 -0.1350
23528W        W66581  12.186  30.751  22.852  0.1226  0.2461 -0.0145
23529W        W66582  22.588  18.194  28.372  0.1923 -0.2612  0.1730
23530W        W66583  24.289  26.133  20.733  0.1288 -0.3307 -0.1023
23531W        W66584   0.702  10.287  25.472 -0.1775  0.0355 -0.0570
23532W        W66585  21.907  18.779   8.459  0.1601  0.0182 -0.1604
23533W        W66586  34.242  27.469  25.350  0.1266 -0.0599  0.3171
23534W        W66587  32.558  21.914  25.077  0.0361  0.1536 -0.0227
23535W        W66588  15.542  28.435  23.122 -0.0126  0.4070 -0.3501
23536W        W66589   1.375  13.748  20.053 -0.0368  0.0329  0.1200
23537W        W66590  33.246  16.519  27.034 -0.2356  0.1983  0.2779
23538W        W66591  30.756  24.598  17.680 -0.0551  0.0855  0.1671
23539W        W66592  28.105  32.087  25.455 -0.2087 -0.2294 -0.2313
23540W        W66593  34.008   9.082  21.165  0.0044  0.0981 -0.0513
23541W        W66594  15.184   8.346  22.484 -0.2889 -0.3114 -0.0068
23542W        W66595   5.597  11.713  20.828 -0.1426  0.0225 -0.1460
23543W        W66596  32.183  26.222  18.829  0.1610 -0.0641  0.0445
23544W        W66597  16.969  13.768  22.987 -0.2950  0.1361  0.1127
23545W        W66598  21.408  32.952  21.285  0.0691  0.0626  0.0696
23546W        W66599  28.341   6.524   3.911 -0.0469  0.0470  0.0204
23547W        W66600  24.785  18.578  28.368  0.0501 -0.0998  0.2057
23548W        W66601  31.833  12.118  20.836  0.0025  0.2154  0.1413
23549W        W66602  10.297  30.976  21.169  0.1329 -0.1674  0.0923
23550W        W66603  10.777  18.590  25.727 -0.0263 -0.3665 -0.0454
23551W        W66604  25.897  12.279  19.273 -0.3307  0.0107 -0.2699
23552W        W66605  14.524   7.254  15.316  0.1499  0.2765 -0.1134
23553W        W66606  24.106  22.796  14.311  0.1998  0.1338  0.0074
23554W        W66607   4.501  32.210  15.569 -0.2208  0.0444  0.0757
23555W        W66608  26.701  20.278  16.358 -0.2192  0.0046  0.1236
23556W        W66609  29.296  32.399  27.696 -0.2535 -0.3213 -0.1294
23557W        W66610  31.157   0.792  23.120 -0.0865 -0.3259 -0.1622
23558W        W66611  25.476  24.174  18.126 -0.1154 -0.0147  0.1637
23559W        W66612  27.793   7.655   7.535  0.2373 -0.0075  0.1890
23560W        W66613  32.154  25.825  16.930 -0.2336 -0.2249  0.0679
23561W        W66614  28.014  20.974  27.460  0.3835  0.0261  0.1804
23562W        W66615   9.461   8.507  23.008 -0.3105  0.1716 -0.0885
23563W        W66616  34.296  30.123  28.820  0.0552 -0.0476  0.0041
23564W        W66617  31.756  10.990  15.503 -0.0014 -0.0466  0.1329
23565W        W66618  33.076  29.382  25.803 -0.4003  0.2697  0.0409
23566W        W66619   5.463  21.646  15.538 -0.1429  0.0705  0.1853
23567W        W66620  28.820  18.825   9.752  0.0817  0.0628 -0.1977
23568W        W66621  32.978  12.952  19.917  0.1556  0.2615  0.0468
23569W        W66622  21.693  16.008  15.329 -0.0515  0.0473 -0.1352
23570W        W66623  33.659  18.606  19.587 -0.1982 -0.3225 -0.0688
23571W        W66624   1.485  19.003  13.060  0.0066 -0.0715  0.2830
23572W        W66625  31.968  18.706  13.050 -0.1385 -0.0091  0.2183
23573W        W66626  31.356   1.787  19.182  0.1777  0.0936 -0.1694
23574W        W66627   5.067  16.661   5.885  0.1492 -0.0555 -0.2022
23575W        W66628  29.602   6.071   8.844  0.1253 -0.2935 -0.2082
23576W        W66629  29.427  20.063   5.427 -0.0793 -0.0091 -0.1487
23577W        W66630  10.306  19.648   7.943 -0.2551 -0.0593 -0.3409
23578W        W66631  22.391   8.128  26.135 -0.3056 -0.2155  0.1002
23579W        W66632  26.512  10.280   5.590  0.2034 -0.0477 -0.1035
23580W        W66633  30.834  25.996  24.425  0.1227  0.0488 -0.1108
23581W        W66634   2.004  26.199  20.383  0.1553 -0.0753 -0.0284
23582W        W66635   3.445  14.180  14.665  0.2232  0.1242  0.0522
23583W        W66636   1.785  14.098  21.953  0.1625 -0.1752  0.1946
23584W        W66637  24.235  17.156  15.627  0.1333 -0.0646 -0.0937
23585W        W66638  28.393  25.212   5.047 -0.3105 -0.0889  0.2217
23586W        W66639   0.134  26.111  25.768 -0.1431 -0.3228  0.1789
23587W        W66640   3.873  31.168   8.353 -0.0482 -0.1611 -0.0974
23588W        W66641  32.871   0.341  28.248  0.1345 -0.0735  0.2313
23589W        W66642  26.394  28.053   0.398 -0.2068 -0.2038 -0.1118
23590W        W66643  33.324  18.572   1.518  0.0657 -0.2343  0.3723
23591W        W66644  22.662  25.977   7.014 -0.1759 -0.2012 -0.1781
23592W        W66645  20.181  21.866  20.994 -0.0431 -0.0566 -0.1563
23593W        W66646   4.843   5.263   0.951 -0.2958  0.0052 -0.0080
23594W        W66647  33.121  12.310  17.529 -0.0292 -0.0192  0.0067
23595W        W66648  15.134  18.320   6.880  0.1283 -0.1490 -0.1547
23596W        W66649  22.464  19.902  14.362 -0.1986  0.1502  0.0090
23597W        W66650  19.571   5.517  26.967  0.1289  0.3406  0.2082
23598W        W66651   2.474  13.359  14.713  0.2952  0.0024 -0.0621
23599W        W66652  20.173  14.373   0.421 -0.1199  0.3036  0.0913
23600W        W66653   7.428  24.461   6.807  0.1151 -0.0133  0.4090
23601W        W66654  30.405  25.938  21.971 -0.0906 -0.0098  0.0839
23602W        W66655  20.967  10.194   0.903  0.2387  0.1584  0.0434
23603W        W66656   1.296  20.478  25.361  0.1835  0.0402 -0.2558
23604W        W66657  26.535  22.366  15.277 -0.1738 -0.1771 -0.2131
23605W        W66658  10.329   6.591  22.995  0.0999 -0.4632 -0.1899
23606W        W66659  30.434  22.240  29.134 -0.0613  0.2921  0.2909
23607W        W66660  27.144  28.650  23.601  0.1736  0.0522  0.1298
23608W        W66661  18.452  27.578   7.829  0.0084  0.1477  0.0951
23609W        W66662  22.802  17.858  22.743 -0.0795 -0.0101 -0.0122
23610W        W66663   9.083  34.396  19.821  0.0818 -0.0504 -0.1281
23611W        W66664  15.130  24.225  21.372 -0.0326 -0.2564 -0.0876
23612W        W66665  21.765  24.018  22.734 -0.1345 -0.3039 -0.0313
23613W        W66666  28.183   0.361  17.626 -0.0774 -0.0174  0.1174
23614W        W66667   4.918  29.699  20.807 -0.4412  0.1884  0.0932
23615W        W66668   8.223  25.994  17.398  0.2699 -0.1057  0.0730
23616W        W66669  30.151  22.970  14.990 -0.0782 -0.2116  0.1610
23617W        W66670  12.237  26.602  15.597 -0.1139  0.0359  0.0003
23618W        W66671  26.444  28.954  15.818  0.1534 -0.1454 -0.0868
23619W        W66672   1.842  25.268   9.185 -0.1881 -0.6902  0.2113
23620W        W66673  26.898  14.302  19.577 -0.1527 -0.3678  0.0622
23621W        W66674  32.004   2.296  25.542  0.0400 -0.0085 -0.2305
23622W        W66675  21.055  19.663  23.767  0.0568 -0.1210 -0.3451
23623W        W66676  31.865  23.480  18.405  0.0421 -0.1059 -0.2018
23624W        W66677  27.508  24.452  19.000 -0.0912  0.0070 -0.0406
23625W        W66678   7.016  23.125  20.702 -0.2413 -0.1130  0.1967
23626W        W66679  23.600   0.859   9.028 -0.0625 -0.1494  0.0468
23627W        W66680  19.845  21.563   1.072 -0.0272 -0.1760  0.0907
23628W        W66681  30.472  18.836   0.884  0.2371  0.1170  0.0635
23629W        W66682  21.871  33.047  16.905  0.1083 -0.1261 -0.1526
23630W        W66683  33.949  13.951  15.775 -0.2840  0.2575 -0.2928
23631W        W66684  21.957  34.688  26.176 -0.0709  0.2869 -0.2594
23632W        W66685  27.909  31.185  15.229  0.0673  0.4337  0.1043
23633W        W66686   1.878  20.330  15.389 -0.2538  0.0884  0.0298
23634W        W66687  12.118  12.832  22.792  0.0172 -0.2315 -0.0940
23635W        W66688  32.778  10.584  23.925  0.3850  0.2062 -0.0630
23636W        W66689  33.139  27.170   4.244 -0.0082  0.1835 -0.1901
23637W        W66690   7.943  16.514  25.044 -0.1165  0.1051 -0.2015
23638W        W66691  32.147  10.773  26.722 -0.1597 -0.1667 -0.1468
23639W        W66692  23.902  25.739   5.728  0.1487  0.2509 -0.1097
23640W        W66693  33.767   7.079  26.154 -0.0616  0.1533 -0.0670
23641W        W66694  13.652  23.075   3.563  0.2674  0.0691  0.1576
23642W        W66695  24.563  17.678  16.700 -0.1628 -0.0765  0.3148
23643W        W66696  30.804  17.756  13.513 -0.2107  0.0619  0.0692
23644W        W66697   4.996   4.773  23.032  0.1166 -0.0229  0.0767
23645W        W66698  32.692  26.215  17.134  0.2135  0.3583 -0.1402
23646W        W66699  15.775  21.006   2.072 -0.0707  0.0787 -0.1318
23647W        W66700  25.983   0.579  17.365 -0.0622 -0.0882  0.1321
23648W        W66701  19.769  16.462  23.510  0.3440 -0.1922  0.3563
23649W        W66702  19.190  14.922  26.119  0.2214  0.2523  0.0259
23650W        W66703  18.139  27.330  24.897  0.1107  0.2842 -0.2103
23651W        W66704  33.561  31.913  14.538  0.0434  0.0432 -0.0747
23652W        W66705   5.055  18.371  24.560 -0.0083  0.2495  0.0673
23653W        W66706  25.211  11.358   0.396 -0.0867 -0.0208  0.2087
23654W        W66707  18.424  18.771  22.331 -0.0900  0.0013 -0.1266
23655W        W66708  28.948   9.683  20.231  0.0319 -0.0527  0.0808
23656W        W66709   9.282  28.413  15.298  0.0557 -0.2752 -0.0487
23657W        W66710  23.852  24.530  26.795 -0.2189  0.1582 -0.0989
23658W        W66711  21.208  12.456  16.062 -0.2865  0.2537 -0.3089
23659W        W66712  19.112  15.367   6.857 -0.1602 -0.0826 -0.1610
23660W        W66713   6.406  26.237  24.314  0.2270 -0.0494 -0.1193
23661W        W66714  31.615   1.000  19.172 -0.0471 -0.0188 -0.1810
23662W        W66715  27.967  14.178   9.503  0.2304 -0.0013 -0.1120
23663W        W66716   3.019  12.148   6.848  0.0241  0.0816  0.0475
23664W        W66717  12.421  33.621   4.767  0.0980  0.2324 -0.0935
23665W        W66718  28.309  23.490  17.960  0.0526 -0.0537 -0.0028
23666W        W66719  15.529  23.479   7.293  0.3086  0.2669 -0.1005
23667W        W66720  12.385  19.875  14.980  0.2010  0.1080  0.1439
23668W        W66721   1.038   3.230  17.195  0.0839 -0.1225 -0.0930
23669W        W66722  29.640  17.295  27.217 -0.0170 -0.0172 -0.0535
23670W        W66723   0.598  25.334  16.885 -0.1894  0.1535 -0.1166
23671W        W66724   2.716  21.373  23.708 -0.3094  0.0366 -0.1890
23672W        W66725  14.166  21.399  19.334 -0.0019 -0.0990  0.0562
23673W        W66726  28.263  22.863  25.389  0.2683 -0.3975 -0.1674
23674W        W66727  26.007  29.526   8.687  0.1403 -0.3046  0.1034
23675W        W66728  26.257  17.307  14.310 -0.2408 -0.2552 -0.0744
23676W        W66729   1.303  30.700  14.333 -0.1407  0.1205 -0.1470
23677W        W66730   5.985  32.675  17.130  0.0391 -0.2606 -0.0936
23678W        W66731  19.939  19.279  27.019 -0.1128 -0.1121  0.0864
23679W        W66732   3.851   0.843  21.604  0.1050 -0.0269  0.3609
23680W        W66733  24.757   0.306  20.176  0.3427 -0.0569 -0.1444
23681W        W66734  23.880  15.508  29.027  0.0058  0.2614  0.4159
23682W        W66735  17.748  11.914  23.928  0.1459 -0.0074 -0.1107
23683W        W66736   0.765   5.985  23.736  0.3808 -0.2183  0.0040
23684W        W66737  26.937  19.191   2.739 -0.1844  0.4631 -0.0921
23685W        W66738  20.918  29.360  16.399  0.0659 -0.2220  0.1885
23686W        W66739  25.053  22.888  21.594 -0.1470  0.1993 -0.0927
23687W        W66740  17.658   3.361   8.836  0.2266  0.0194  0.1006
23688W        W66741  20.879  17.784  26.134 -0.1690  0.2227  0.1325
23689W        W66742   9.091  15.582  15.084 -0.0175  0.2784  0.2401
23690W        W66743  25.382  13.698  18.764  0.0455 -0.5068 -0.0256
23691W        W66744   4.654  15.107  20.765  0.0508 -0.0056 -0.1293
23692W        W66745   3.935  14.393  26.219  0.1995  0.2928  0.1369
23693W        W66746  29.016   2.667  17.040  0.2223  0.0908 -0.1802
23694W        W66747  15.577   9.208  14.713  0.0239 -0.1342 -0.2564
23695W        W66748  18.719  18.486  27.263  0.2305 -0.2717  0.3559
23696W        W66749   8.108  19.099  23.834  0.0349 -0.2070  0.0044
23697W        W66750  14.173  16.597  28.430  0.1091 -0.1341  0.0745
23698W        W66751  26.071  24.006  25.437  0.0808 -0.1406  0.0625
23699W        W66752   8.746  16.698  14.766  0.1150  0.0389 -0.0690
23700W        W66753  25.068  26.573  20.959 -0.1076 -0.0445 -0.1597
23701W        W66754  26.248  21.085  27.259 -0.0960 -0.2235  0.1695
23702W        W66755  28.685   0.253  21.585  0.1413  0.1533  0.0627
23703W        W66756  18.663   1.150  17.336  0.0946  0.2385 -0.0249
23704W        W66757  25.056  16.957  20.538 -0.0072  0.0620 -0.0535
23705W        W66758  25.739   4.012  25.583  0.1396  0.3719  0.0639
23706W        W66759  30.460  19.727  24.992  0.1632 -0.3381  0.2327
23707W        W66760  21.148  13.053  15.946 -0.1862  0.0774  0.1594
23708W        W66761  11.244  12.898  22.448  0.0620 -0.0811 -0.0072
23709W        W66762  11.490  10.282   6.886 -0.0070  0.1889 -0.0000
23710W        W66763   3.678  27.859  16.243 -0.2787  0.1239 -0.0748
23711W        W66764  18.956  25.160  28.826  0.1406  0.1175  0.3227
23712W        W66765  26.045  15.246  28.159  0.0314 -0.1833  0.2638
23713W        W66766  14.703  32.927  25.922  0.2911 -0.3231 -0.3301
23714W        W66767  22.168   3.281  18.061  0.1688  0.1717 -0.0295
23715W        W66768  23.099  14.611   3.886  0.0451 -0.0561 -0.0080
23716W        W66769  25.409  13.822  20.046  0.2605  0.1519 -0.1863
23717W        W66770  16.325   8.718   3.153  0.1676 -0.2092 -0.2371
23718W        W66771   6.393   4.051  28.451  0.0584 -0.2083 -0.1315
23719W        W66772  21.240  22.542   5.034  0.1844  0.0141  0.0919
23720W        W66773  10.175  19.009  22.149  0.2895  0.0652  0.1130
23721W        W66774  15.749  27.488   7.658 -0.0628  0.0838  0.0128
23722W        W66775  19.394  15.789   5.716  0.2340 -0.1456  0.0531
23723W        W66776   3.600  26.309  21.319  0.1194  0.1801 -0.1854
23724W        W66777  26.849  34.269  17.503  0.0498 -0.1364 -0.0667
23725W        W66778  19.350  15.447   8.455  0.0986  0.0491  0.3063
23726W        W66779  33.734  24.452   2.036 -0.1619 -0.4278 -0.1052
23727W        W66780  29.361  28.005  27.369 -0.2126 -0.1005 -0.0841
23728W        W66781  27.341  18.059  21.392  0.2119  0.1491  0.1999
23729W        W66782  28.297  19.430  17.916 -0.1451  0.2637 -0.6694
23730W        W66783  24.262  30.757  22.785 -0.3024 -0.2559 -0.3263
23731W        W66784   1.504  20.026   4.537  0.0913 -0.0776  0.4096
23732W        W66785  32.151  19.866  21.531 -0.2757 -0.1665 -0.1316
23733W        W66786  31.490  19.083  14.322 -0.1272 -0.3817  0.0204
23734W        W66787  15.719  25.481  25.882  0.1068 -0.0586  0.1331
23735W        W66788  11.376  25.591   0.575  0.0206  0.1712  0.2885
23736W        W66789  17.525  13.944   0.917  0.0431 -0.3051  0.1671
23737W        W66790  31.020  14.258  21.071 -0.2643 -0.0202  0.0659
23738W        W66791  19.530  26.039   3.167  0.1022 -0.1500 -0.0567
23739W        W66792  34.416   2.423  28.396  0.2129  0.1611  0.1183
23740W        W66793  29.402  16.537   0.954 -0.0505  0.1329 -0.0021
23741W        W66794   2.119  20.946  13.865  0.0061 -0.1824  0.0254
23742W        W66795  14.148  10.481  23.593 -0.3390 -0.1491 -0.0743
23743W        W66796  17.649  16.759   4.344  0.1895 -0.1625 -0.1149
23744W        W66797  16.430  23.981  15.885  0.1067 -0.2860  0.0366
23745W        W66798  26.703  10.336   7.497 -0.2871 -0.2237 -0.0488
23746W        W66799  33.884  19.048  22.907  0.2403  0.0496 -0.1382
23747W        W66800  28.353  24.479  20.042  0.0504  0.0779 -0.0109
23748W        W66801   6.055  10.216   2.959 -0.0709  0.5851 -0.3188
23749W        W66802  21.744  34.304  22.270  0.0064 -0.0676  0.2489
23750W        W66803  21.394  25.016  24.498 -0.2278  0.2573 -0.0874
23751W        W66804  27.812  24.592  17.620 -0.0708  0.1913  0.1395
23752W        W66805  31.681  17.041   1.017  0.0897  0.2800  0.1147
23753W        W66806   9.634  26.050  18.545 -0.0643 -0.4585  0.0112
23754W        W66807   8.707  31.718  13.292 -0.2660  0.5177 -0.0225
23755W        W66808  34.682  24.441   1.179 -0.4262 -0.1801  0.0219
23756W        W66809  24.009  24.014  25.175  0.1372 -0.1216  0.0195
23757W        W66810  26.989  22.732  16.810  0.1587  0.3565 -0.1106
23758W        W66811   2.675  22.787   8.206 -0.0362  0.0223  0.1835
23759W        W66812  26.088  24.771  16.884  0.0495  0.2945 -0.0959
23760W        W66813  30.681  14.197  18.161 -0.0560  0.1144 -0.2017
23761W        W66814  26.954  15.794  14.221 -0.1192 -0.5402  0.1757
23762W        W66815  33.324   3.225  20.514  0.0176  0.2113  0.3409
23763W        W66816  31.175  11.268  16.401 -0.0639  0.5304 -0.2448
23764W        W66817  13.566  23.523  15.066  0.1847  0.0382 -0.0881
23765W        W66818   1.716  10.174   6.499  0.0344  0.0895 -0.1729
23766W        W66819  15.616  24.678  27.032  0.0324  0.0514  0.0543
23767W        W66820  18.131  22.113  18.183  0.1888 -0.0262  0.1592
23768W        W66821  17.137  19.942   4.132 -0.1194  0.0607  0.1042
23769W        W66822   7.295  20.298   3.003  0.0801  0.1554 -0.3004
23770W        W66823  26.295  26.686  25.568 -0.1718  0.1248 -0.1209
23771W        W66824   1.122  25.971  22.885  0.0361  0.0899 -0.3416
23772W        W66825  23.296  22.315   4.168  0.2037  0.1724  0.0991
23773W        W66826  29.331  25.020  25.207 -0.1147  0.1140  0.0873
23774W        W66827  13.459  14.292  26.787  0.4626  0.2500 -0.0108
23775W        W66828  31.694  26.283  17.258 -0.2208 -0.0700  0.0882
23776W        W66829  16.151  19.074  28.589 -0.2416  0.0191 -0.1933
23777W        W66830   4.016  19.703   0.711 -0.0550 -0.0060 -0.2757
23778W        W66831   1.686  23.746  19.005  0.2306  0.1347  0.3786
23779W        W66832  24.621  30.783   9.926 -0.0362  0.0396 -0.1581
23780W        W66833  33.085  34.403  24.211 -0.0280 -0.0236  0.0941
23781W        W66834   2.826   1.539   5.541 -0.2674 -0.0500  0.0827
23782W        W66835  26.752  16.975  14.538  0.1695 -0.1263 -0.0715
23783W        W66836  25.401  24.341   2.411  0.2358  0.0273 -0.1145
23784W        W66837   2.837  31.445   7.381  0.1290 -0.0129  0.1591
23785W        W66838  22.317  25.837  24.215 -0.0942 -0.1751  0.1907
23786W        W66839  15.460   1.246  23.061 -0.1839 -0.3949 -0.2850
23787W        W66840   3.915   0.361  19.685  0.0039 -0.3150  0.0198
23788W        W66841  33.107  12.319  24.125  0.0220 -0.0895 -0.1917
23789W        W66842   0.035  25.628  26.021  0.0366  0.0682  0.3046
23790W        W66843  32.004  28.027  20.669 -0.0452  0.0670  0.5030
23791W        W66844  16.492  12.473  27.859  0.0560  0.1554  0.3909
23792W        W66845  24.432  17.298   5.679  0.0579  0.1651 -0.1741
23793W        W66846  21.211  34.237  19.183  0.0121 -0.1632  0.0841
23794W        W66847  19.232  25.799  25.194 -0.3868 -0.3157  0.1337
23795W        W66848  34.605  12.704  16.232 -0.1274 -0.0514  0.1906
23796W        W66849  32.499   8.924  17.459 -0.0213  0.0860  0.0336
23797W        W66850  22.706  14.613  24.177 -0.3189 -0.0836  0.3103
23798W        W66851  34.157  18.759  19.217 -0.1074 -0.1784  0.0047
23799W        W66852  20.211  33.749  21.848  0.0716 -0.0380 -0.2322
23800W        W66853   7.611  24.959  17.731  0.0559  0.2151 -0.2166
23801W        W66854   5.467  30.833  28.259 -0.1480  0.0233 -0.3652
23802W        W66855  21.535   4.444  19.523  0.1408 -0.1379  0.2088
23803W        W66856  34.143  31.064  23.945  0.1726  0.2357 -0.0160
23804W        W66857   4.640   0.237  23.200 -0.0622  0.0240  0.0075
23805W        W66858  17.519  24.484   6.994 -0.4984 -0.0282 -0.1733
23806W        W66859  28.976  24.627  25.203  0.2189 -0.1096 -0.3569
23807W        W66860  11.098  24.988  15.227 -0.0995 -0.1845  0.2249
23808W        W66861  22.535   2.074  20.741 -0.0332 -0.0750  0.2578
23809W        W66862  16.341  10.121  23.345 -0.1752  0.2004  0.1218
23810W        W66863  31.386  27.739   5.053  0.0387 -0.0955  0.0864
23811W        W66864   8.678  28.294  21.775  0.0362 -0.2249 -0.2054
23812W        W66865   5.922   4.723   3.434 -0.2834  0.1412  0.1759
23813W        W66866  29.853   8.845  20.294  0.3513 -0.0175  0.2362
23814W        W66867   1.661  21.273   7.444 -0.3308  0.0307 -0.2301
23815W        W66868  13.052  15.476  19.347  0.0892 -0.1455  0.0694
23816W        W66869   6.827  12.640  18.113  0.0432 -0.0099 -0.1184
23817W        W66870  24.154  16.608   2.536 -0.1657 -0.2940  0.0004
23818W        W66871  26.657  16.304   4.775 -0.1901 -0.1853  0.0655
23819W        W66872  30.123  13.076   9.442  0.0120  0.2239  0.2795
23820W        W66873  15.114  27.080  17.048  0.0381 -0.2435  0.1101
23821W        W66874  25.479  31.660   2.844 -0.1674  0.1515 -0.2752
23822W        W66875   2.478  28.610   2.525 -0.2684  0.0074 -0.0541
23823W        W66876  23.756  15.278   3.628 -0.1129  0.1034 -0.2676
23824W        W66877  11.220  22.900   1.259 -0.0800 -0.1925  0.2108
23825W        W66878   2.655   5.603  14.745  0.0411  0.0588  0.1676
23826W        W66879  25.859  30.782   9.087  0.2033 -0.4455  0.1663
23827W        W66880  31.478  24.846  20.579  0.1686 -0.0540  0.2796
23828W        W66881   4.125  21.648  14.670 -0.1412  0.0506 -0.1536
23829W        W66882  27.690  28.105  20.307  0.3320  0.1310  0.1014
23830W        W66883  21.207   3.051  10.056 -0.0903 -0.1825 -0.1755
23831W        W66884  24.648  20.886  26.761 -0.0260 -0.1133  0.0230
23832W        W66885  25.502  29.526  27.761  0.1388 -0.2679  0.0519
23833W        W66886   2.313  14.804  17.106 -0.0324 -0.1343 -0.2981
23834W        W66887   2.565  19.794  20.386 -0.0919  0.3461 -0.0497
23835W        W66888  10.385  13.100   5.892  0.0475  0.2813 -0.0616
23836W        W66889  32.013   5.631   7.918 -0.0498  0.2199 -0.2450
23837W        W66890  21.630  15.030  19.154 -0.1605  0.0631 -0.2772
23838W        W66891  15.199  32.963  26.073 -0.2776 -0.0352 -0.1136
23839W        W66892  23.327  24.408  20.467  0.0076  0.0855 -0.3491
23840W        W66893  19.045  32.213  28.520  0.1362  0.0544 -0.0662
23841W        W66894  32.304  15.625  26.941 -0.0124 -0.0831 -0.1865
23842W        W66895  13.087  13.513  25.126  0.1972 -0.1745 -0.1514
23843W        W66896  14.205  23.063   4.164 -0.1700  0.1550 -0.2013
23844W        W66897   4.133  29.175  20.536  0.4243 -0.1026  0.0221
23845W        W66898  33.711  17.672   1.416  0.0695 -0.0833  0.1182
23846W        W66899  21.964  14.067   0.659  0.1386 -0.0204  0.1141
23847W        W66900  18.957   7.243  27.673  0.4131  0.1817  0.1001
23848W        W66901   2.044  10.019   3.016  0.0363 -0.3144  0.0629
23849W        W66902  17.132  13.437   8.066  0.1961  0.2192 -0.2579
23850W        W66903  24.821  33.220   0.875  0.0485  0.1879  0.0954
23851W        W66904  15.095  31.282  21.821  0.1342  0.1251 -0.2050
23852W        W66905   7.669  29.309   1.161 -0.0271 -0.2339 -0.2346
23853W        W66906  34.382  23.371   8.932  0.1608  0.0440 -0.1719
23854W        W66907  21.365  10.499   1.679 -0.0240  0.1415  0.0758
23855W        W66908  15.121  31.637   7.692 -0.2677 -0.3045 -0.1155
23856W        W66909  28.452  24.312  25.968  0.1771 -0.0356  0.0106
23857W        W66910  31.182  11.109  17.120 -0.0777 -0.0912 -0.2356
23858W        W66911   3.161  32.897  18.158  0.0003  0.0506 -0.1352
23859W        W66912  22.780  22.418   5.676 -0.1192  0.0229 -0.0285
23860W        W66913  25.416   0.883   2.437 -0.3088  0.3009  0.3741
23861W        W66914   1.535  17.721  20.005  0.2904  0.2613  0.0324
23862W        W66915   5.645  11.556  17.452 -0.2662  0.0078 -0.1100
23863W        W66916   0.224  26.548  15.957 -0.3412 -0.2442 -0.1924
23864W        W66917  26.392  21.452   7.719 -0.2973  0.0353  0.1119
23865W        W66918  26.992  19.811  16.138  0.0136  0.0671 -0.1491
23866W        W66919  29.861  23.308  23.065 -0.0309 -0.1322 -0.0938
23867W        W66920   6.229  25.188   1.522  0.0887 -0.1603  0.1590
23868W        W66921  12.982  19.504  26.450  0.0349  0.4624  0.1459
23869W        W66922  29.956  20.571  17.036  0.3464  0.1122  0.2825
23870W        W66923  18.671  25.970   1.183  0.0886 -0.2039  0.2576
23871W        W66924  28.524  26.851   2.550 -0.2182  0.0847  0.1183
23872W        W66925  16.333  19.643  21.289 -0.1877  0.0556 -0.3212
23873W        W66926   2.323  26.424  22.352 -0.0981 -0.0060  0.0928
23874W        W66927  31.308  22.434  14.800 -0.2346  0.0095  0.0461
23875W        W66928  12.634   7.806  18.775  0.0241 -0.1998 -0.0030
23876W        W66929   3.564   9.582   1.559  0.0622  0.0547  0.1024
23877W        W66930  30.312   8.014  15.438  0.3984  0.0658 -0.1345
23878W        W66931  25.628  20.153   1.958  0.2606  0.1533 -0.0561
23879W        W66932  32.635  31.065  23.668 -0.0882 -0.1881  0.1766
23880W        W66933  27.456  13.345  15.880 -0.0933  0.1009 -0.1106
23881W        W66934   4.440  19.630   3.169 -0.1233  0.0346  0.0864
23882W        W66935   6.945  22.029   2.729 -0.0254  0.1945 -0.0266
23883W        W66936  28.894  13.454   4.835  0.2541 -0.2024 -0.0752
23884W        W66937  29.927   4.589  22.348 -0.0416 -0.1758 -0.1692
23885W        W66938  34.429  22.260   1.421  0.2820  0.1731  0.0807
23886W        W66939   3.150  16.548  22.824 -0.0405  0.0429 -0.0467
23887W        W66940  19.392  22.432   8.729  0.0007  0.2153 -0.1078
23888W        W66941  26.971  22.654  28.539 -0.0452  0.0037  0.0542
23889W        W66942  22.106   5.897   3.368 -0.1898  0.0517 -0.0401
23890W        W66943  30.721  33.853  28.225 -0.0902  0.3852  0.0758
23891W        W66944  23.796  31.480  28.126  0.1190  0.0318 -0.0273
23892W        W66945  22.983  18.422   5.426  0.0870  0.1462 -0.2216
23893W        W66946  33.173  22.942  16.085  0.1421 -0.1973  0.0610
23894W        W66947  26.238  32.775  10.799  0.1565  0.3326  0.0126
23895W        W66948  25.708  28.660   9.688 -0.0114 -0.0593 -0.0096
23896W        W66949   4.739   8.966  17.689  0.1097 -0.0703 -0.0628
23897W        W66950  27.267  22.841  17.926 -0.0665  0.1391  0.4014
23898W        W66951  30.788  28.381  26.157  0.1896 -0.2193  0.0868
23899W        W66952  27.653  22.327  16.779 -0.0499  0.2264  0.1382
23900W        W66953  25.439  26.968  22.160  0.0400  0.3144 -0.1018
23901W        W66954  28.159  15.361   4.349  0.0594 -0.4033  0.0026
23902W        W66955  11.905  11.842  16.254  0.2824 -0.2089  0.3924
23903W        W66956  21.978  17.969   6.886 -0.1902  0.1391  0.1584
23904W        W66957  30.443   3.431  26.128 -0.2702  0.0097 -0.3361
23905W        W66958   3.682  15.350  14.565  0.2494  0.5805 -0.1405
23906W        W66959  27.656  32.128  16.285 -0.2113  0.1596  0.2777
23907W        W66960  25.234  20.258  27.397 -0.1607  0.1051  0.1039
23908W        W66961  27.780  22.824   0.151 -0.2125 -0.1098 -0.0638
23909W        W66962  25.286  25.651  16.322 -0.3480 -0.0940 -0.0544
23910W        W66963  28.183   2.127  28.429  0.2402 -0.1126  0.2390
23911W        W66964  12.959  18.589   6.720 -0.4238  0.0726  0.0689
23912W        W66965   3.794  20.488  16.649  0.0583  0.0321 -0.0349
23913W        W66966  23.834   8.621  21.681 -0.0808 -0.1762  0.1208
23914W        W66967   3.974  16.779  23.524 -0.0944 -0.0908 -0.4610
23915W        W66968  29.212   5.850   0.875 -0.1225  0.0268  0.1921
23916W        W66969  11.431   1.305  18.332 -0.1504  0.0113  0.0991
23917W        W66970  30.566  20.472   7.687 -0.2939 -0.3563  0.0266
23918W        W66971  24.730  20.787   5.687  0.0344  0.1948 -0.2019
23919W        W66972  21.384  23.239  29.133 -0.1734  0.1039 -0.0692
23920W        W66973  29.642  16.653  28.516 -0.1856  0.3774 -0.1345
23921W        W66974  30.367  24.978  17.603  0.3392 -0.2087 -0.1924
23922W        W66975   0.441   7.852   1.011  0.3344  0.3837  0.0493
23923W        W66976  34.019   9.877  23.055  0.1092  0.0603 -0.3417
23924W        W66977  24.338  19.289   3.645  0.0716  0.0812  0.1105
23925W        W66978  22.894  20.233  27.697 -0.1070  0.1150 -0.0830
23926W        W66979  33.580  20.349  26.271 -0.1079 -0.0741 -0.2206
23927W        W66980  28.089   3.539  10.416  0.0246  0.2352  0.0823
23928W        W66981  15.437  27.873  17.488  0.0690 -0.0075  0.0491
23929W        W66982  26.895  13.444   1.189  0.0559  0.1939 -0.2879
23930W        W66983  20.817  29.055  14.785 -0.0788  0.0613 -0.1664
23931W        W66984  28.298  20.066   2.559 -0.0377  0.1775 -0.1219
23932W        W66985   9.223  33.446  29.068 -0.0748 -0.0937 -0.1736
23933W        W66986  27.886  22.347  24.857 -0.1798  0.0491  0.0887
23934W        W66987  28.310   0.341  15.706  0.2763  0.1269 -0.0276
23935W        W66988  19.422  27.247  20.618  0.1177  0.1219 -0.0618
23936W        W66989  26.702  22.350   3.606  0.3111  0.1640  0.0838
23937W        W66990  28.794  10.314  21.191  0.0238  0.0225  0.1160
23938W        W66991  19.345   8.290  17.924 -0.2488  0.0147 -0.0165
23939W        W66992  21.614   3.151  17.285 -0.1915 -0.0512  0.2324
23940W        W66993  19.020  21.853  21.902 -0.4735 -0.2663 -0.1778
23941W        W66994  32.839  16.517   2.586 -0.2110  0.1604 -0.0505
23942W        W66995  27.245  30.511  23.835 -0.1760 -0.1886  0.2428
23943W        W66996  22.912  25.204  21.078 -0.2646  0.1112 -0.1152
23944W        W66997  28.653  28.426  29.003 -0.0902  0.0581  0.1395
23945W        W66998  22.094  32.591   9.241 -0.0252  0.2128  0.2268
23946W        W66999   5.548   9.882  15.393 -0.0544 -0.0133 -0.1376
23947W        W67000  24.947  15.949  29.018  0.0402  0.0392  0.2796
23948W        W67001  13.631  32.647  26.975 -0.1095  0.2873 -0.1890
23949W        W67002  24.794  30.823  17.525 -0.5165  0.4797 -0.2003
23950W        W67003  27.205  20.613  24.785  0.4989 -0.2451 -0.1563
23951W        W67004   1.521   9.968   3.998 -0.4024  0.2309 -0.2308
23952W        W67005  26.979  31.278   8.181 -0.0709  0.1926 -0.4966
23953W        W67006  18.574  29.025  22.991 -0.1562  0.0474 -0.1099
23954W        W67007  28.475  19.509  16.828 -0.1225  0.1326 -0.0223
23955W        W67008  18.663  30.498   2.787 -0.1606 -0.0610 -0.1021
23956W        W67009  30.130   1.936  21.727  0.0313 -0.1485  0.0366
23957W        W67010  22.354  14.724  23.644 -0.3076 -0.3331  0.0134
23958W        W67011  24.366  18.674  26.514 -0.1783 -0.3618 -0.0454
23959W        W67012  16.961  15.688  19.798  0.1319  0.0387  0.1375
23960W        W67013  31.192  25.794  21.586 -0.0948 -0.0057 -0.2031
23961W        W67014  21.868  14.010  19.047  0.2152  0.1010  0.1668
23962W        W67015  27.015   0.574   8.093  0.1243  0.0936 -0.0663
23963W        W67016   3.577  28.029   6.959 -0.1760 -0.2001 -0.1070
23964W        W67017  28.630  20.415   4.239 -0.1938 -0.0637 -0.0751
23965W        W67018   0.160  10.095  27.748  0.1811  0.0195  0.1407
23966W        W67019  27.943  14.437   4.559 -0.2483  0.0041 -0.1922
23967W        W67020  23.918   0.595  16.307 -0.2518 -0.0552 -0.1861
23968W        W67021  26.138  22.626   1.383  0.0134  0.3101  0.0806
23969W        W67022  26.955  18.186  26.443  0.3968  0.1882  0.1994
23970W        W67023   4.619  29.535  16.282  0.1867  0.0094  0.0526
23971W        W67024  31.676   0.527  27.851 -0.1078  0.2192 -0.0040
23972W        W67025  19.165  26.243  24.979  0.0523 -0.2950  0.0043
23973W        W67026  17.242  17.562   0.659  0.0013  0.0263 -0.0074
23974W        W67027  23.076  33.431   3.399 -0.3638 -0.1023  0.0154
23975W        W67028  27.744  20.072  16.320 -0.3114  0.0089 -0.1697
23976W        W67029   3.050  27.554  25.316  0.2087 -0.0792 -0.1671
23977W        W67030  10.040  12.024   9.184  0.0412 -0.2318  0.1608
23978W        W67031  18.951   7.203   1.329  0.0817 -0.4124 -0.3798
23979W        W67032  22.319  13.007  23.410  0.3254  0.3049  0.0660
23980W        W67033   7.911  11.616   4.882 -0.0160 -0.1752 -0.1217
23981W        W67034  31.628  26.812  19.314  0.1925  0.0667 -0.2150
23982W        W67035  32.278   7.057  20.402  0.4529  0.3353  0.0642
23983W        W67036   1.069  21.562  21.950 -0.0723 -0.0516  0.1439
23984W        W67037  26.592  23.526  23.513  0.3571 -0.1363 -0.0360
23985W        W67038  13.855  24.431   2.000  0.0585 -0.1911  0.1663
23986W        W67039  21.172  25.032  17.835  0.1649 -0.2307  0.3762
23987W        W67040  29.824  24.654  28.338  0.2593  0.1345  0.1651
23988W        W67041   0.141  14.533   7.416  0.4771  0.1257 -0.3823
23989W        W67042  26.677  20.284  19.940  0.0396 -0.3930 -0.1682
23990W        W67043  16.994  24.703  25.564  0.2122 -0.0466  0.1695
23991W        W67044  10.848  10.339  28.792  0.3470 -0.1012  0.1066
23992W        W67045  27.508  12.327   1.153 -0.0633 -0.0609  0.1450
23993W        W67046  31.882   4.717  26.854 -0.2183  0.1667  0.0703
23994W        W67047  27.296  14.029  15.208  0.1356 -0.1110 -0.1382
23995W        W67048  17.120   2.496  22.349 -0.0164  0.0343  0.1714
23996W        W67049  29.552  29.849  22.699  0.1346  0.2500 -0.5229
23997W        W67050  29.194  24.430   9.583  0.2428  0.2745  0.1110
23998W        W67051   6.526   8.485  27.005  0.2282  0.0856  0.1245
23999W        W67052  25.884  30.318  16.030  0.1579  0.3295 -0.0261
24000W        W67053  17.177  10.456   0.445  0.1465  0.1750 -0.0418
24001W        W67054  11.233  22.080   8.157 -0.2496 -0.3965  0.0698
24002W        W67055  17.135  19.512   7.942 -0.0467 -0.0988 -0.1832
24003W        W67056  31.874   5.608   7.458 -0.0022  0.3726  0.1392
24004W        W67057  20.673  20.799  21.985  0.4278 -0.2345 -0.1084
24005W        W67058  26.624   4.342  22.033 -0.2034 -0.2078 -0.0677
24006W        W67059  20.115  32.649  26.752 -0.1842 -0.1403 -0.0229
24007W        W67060  26.382  33.702  22.366 -0.0072  0.2255 -0.1443
24008W        W67061  25.198  13.689  15.897 -0.0443 -0.0508 -0.0521
24009W        W67062  30.150  20.414   3.589 -0.1808 -0.0800 -0.1717
24010W        W67063  23.926  17.715   5.798 -0.5439  0.0597 -0.5064
24011W        W67064  34.453   9.145  21.465  0.0487  0.1866 -0.0356
24012W        W67065  25.582  15.487  23.222 -0.0249  0.1864 -0.3817
24013W        W67066  29.658  20.297  13.546  0.1465  0.1963 -0.4095
24014W        W67067  31.453  25.770  25.099 -0.1035 -0.1756  0.0663
24015W        W67068  28.328  12.271   1.941  0.0911  0.0175 -0.2812
24016W        W67069  15.691  28.796   5.566  0.2050  0.1506 -0.0712
24017W        W67070  22.638  17.187   5.509  0.4372 -0.1947 -0.1414
24018W        W67071  24.824  18.208   2.971 -0.0706  0.2372 -0.2737
24019W        W67072   1.016   7.814  23.483  0.1459 -0.0614  0.0779
24020W        W67073  34.270  19.235   4.906  0.0185  0.0408 -0.0158
24021W        W67074   2.421   1.206  17.507 -0.1064  0.3632  0.0118
24022W        W67075   2.709  24.274   3.337  0.1385  0.1802  0.0990
24023W        W67076  15.581   4.111  26.852  0.1137  0.0556  0.3350
24024W        W67077  19.862  23.496  10.565  0.2467 -0.0389 -0.2043
24025W        W67078   1.474  14.193   1.295  0.1755 -0.0169 -0.0812
24026W        W67079  21.310   5.856  22.610  0.0464  0.0313  0.1131
24027W        W67080  33.657   2.217   6.722 -0.1841 -0.0848  0.0166
24028W        W67081  34.254  28.252  24.104  0.2090  0.1303 -0.1990
24029W        W67082  28.420  25.093   9.365 -0.2175 -0.0990  0.0220
24030W        W67083  24.304  10.166   4.226 -0.0394 -0.1551 -0.1615
24031W        W67084  17.357  26.352  27.209  0.1875 -0.0833 -0.1854
24032W        W67085  31.273   4.745   1.993  0.0414 -0.1258  0.0676
24033W        W67086  26.041  15.770  19.668  0.1149 -0.1487  0.0950
24034W        W67087  25.228  21.568   1.066  0.0568  0.0191 -0.0952
24035W        W67088  13.057   2.172   0.456 -0.1774 -0.0310 -0.0853
24036W        W67089  23.100  11.806  19.960 -0.1539  0.0633 -0.0452
24037W        W67090  25.746  25.713   6.120 -0.1007  0.0934 -0.0957
24038W        W67091  14.223  23.210  25.999  0.2428  0.3082  0.0700
24039W        W67092  32.751  11.835   4.979 -0.2605  0.0910 -0.1006
24040W        W67093   8.332  34.407  24.190 -0.0858 -0.2118 -0.2050
24041W        W67094   2.051  24.241  22.456  0.1606 -0.2082  0.1894
24042W        W67095  16.254  24.193  19.577  0.0348 -0.4143  0.1008
24043W        W67096  28.935  18.463  24.213  0.3296 -0.0561  0.3042
24044W        W67097   3.667  13.657  21.629  0.0818 -0.0805 -0.4709
24045W        W67098   2.142  32.186   6.353 -0.0546  0.3107 -0.3264
24046W        W67099  19.263  18.220   7.346 -0.0381 -0.1280 -0.0124
24047W        W67100  33.649  24.781   0.103 -0.0459  0.0699 -0.1053
24048W        W67101  22.115  13.119  21.007 -0.1229 -0.1515  0.1196
24049W        W67102  29.076   3.405  22.752 -0.0426 -0.2007 -0.1661
24050W        W67103  25.613  30.678  18.234  0.3384 -0.2728  0.0345
24051W        W67104  28.661   5.096  19.024 -0.0202 -0.0053  0.1225
24052W        W67105  26.260  23.860  24.945  0.2640 -0.0936  0.1261
24053W        W67106   5.761  33.217  22.049  0.0315  0.0585  0.0474
24054W        W67107  32.394  26.365  21.049  0.0894  0.2655 -0.4317
24055W        W67108  31.854  15.920  25.833  0.0924 -0.1574  0.4405
24056W        W67109  31.642  14.987  29.097  0.1411  0.1856 -0.0116
24057W        W67110   3.160   7.300  19.149 -0.1073  0.0098 -0.1480
24058W        W67111   1.685  13.910   5.061  0.0847 -0.0294  0.0998
24059W        W67112  12.399  30.940  19.050  0.3318  0.2037 -0.0877
24060W        W67113  22.634  26.486  24.176  0.1193  0.0382 -0.0229
24061W        W67114  27.932  32.599  18.939  0.0537  0.0602 -0.0432
24062W        W67115  22.235  12.367  14.853 -0.0573  0.1157 -0.2073
24063W        W67116  32.753   1.679  26.486  0.2457 -0.0598  0.0907
24064W        W67117  19.561  25.758  24.465  0.0763 -0.3308 -0.0519
24065W        W67118  25.732  19.492   3.756  0.0963 -0.1310  0.2873
24066W        W67119  24.442  21.150  18.613 -0.2237 -0.1804 -0.1801
24067W        W67120  26.754  12.880  15.981  0.3833  0.2804  0.2150
24068W        W67121  33.556  12.175  18.956  0.0135  0.1848  0.1511
24069W        W67122  15.090   7.345   6.407 -0.2243 -0.0940 -0.1322
24070W        W67123  28.132  24.901  27.685 -0.1564  0.0271  0.0153
24071W        W67124   7.879  21.987  27.473  0.2096  0.1284  0.1057
24072W        W67125  32.685  20.506   6.630 -0.3151  0.0565 -0.2367
24073W        W67126  19.653  29.300   8.603 -0.5233 -0.3969 -0.2084
24074W        W67127  26.242  19.653  21.936 -0.2775  0.1582 -0.0933
24075W        W67128  21.200  32.386  15.627  0.0128  0.2740  0.3688
24076W        W67129  30.359  18.297  24.637  0.0538  0.0680  0.0424
24077W        W67130  23.616  20.800  22.437 -0.0587  0.0981  0.2199
24078W        W67131   9.012   0.229  17.152 -0.0636 -0.3925 -0.1374
24079W        W67132   6.755   6.243  19.073 -0.0682 -0.0767  0.1165
24080W        W67133  24.095   9.329   0.670  0.1595  0.0167 -0.0643
24081W        W67134   6.976  11.734   8.347  0.0344  0.0419 -0.2423
24082W        W67135   0.051  28.873  24.697  0.0459  0.1537  0.1448
24083W        W67136  24.147  23.927  17.125 -0.0671  0.0041 -0.0138
24084W        W67137   0.499  28.326  27.814 -0.1874 -0.3214 -0.2224
24085W        W67138   2.148  23.853   0.641  0.4657 -0.2619  0.1245
24086W        W67139  23.237  15.272  26.412 -0.2784 -0.1069  0.3150
24087W        W67140  28.523  30.229  16.806  0.2001  0.0702  0.0405
24088W        W67141   2.414  18.423  22.567 -0.2115  0.0972 -0.1598
24089W        W67142   3.035  20.977   7.163  0.0992  0.0874 -0.0559
24090W        W67143  31.052  13.531  19.267  0.0526 -0.0920 -0.1476
24091W        W67144   4.320  21.707  19.175  0.0545  0.0063 -0.1737
24092W        W67145  25.283  24.773  19.224  0.1255 -0.4819 -0.0145
24093W        W67146  25.351  26.159  14.026  0.0998 -0.0303  0.2886
24094W        W67147  33.894  19.441  24.255 -0.0843  0.2133  0.1014
24095W        W67148   4.063  19.003   4.693 -0.0178 -0.1890  0.2104
24096W        W67149  25.522  10.348   3.757 -0.1810 -0.2124 -0.0722
24097W        W67150  24.494  26.034  26.918  0.4082  0.0531  0.1735
24098W        W67151  33.081  16.956   7.077 -0.1932 -0.0413 -0.0767
24099W        W67152   4.038   6.268  23.610 -0.1810  0.0862 -0.0407
24100W        W67153  10.977  25.477  18.381 -0.3287 -0.2148  0.2978
24101W        W67154  14.490   2.356  23.384 -0.0940  0.0483 -0.1928
24102W        W67155  27.365  30.074   2.870 -0.1476 -0.0619  0.2910
24103W        W67156  33.120  18.680  24.911 -0.3493 -0.2569 -0.1586
24104W        W67157  31.628   6.708   6.961  0.0083 -0.1218 -0.2936
24105W        W67158  13.985  10.642  25.234 -0.0934  0.0035  0.0528
24106W        W67159   8.115   0.304  29.096 -0.1892  0.0341 -0.1752
24107W        W67160  31.233  16.313  27.490 -0.2971  0.0993  0.1826
24108W        W67161   4.896  26.709  13.374  0.0322 -0.1535 -0.2813
24109W        W67162  19.981  23.085   3.153  0.0795 -0.0034 -0.3375
24110W        W67163  29.184  13.053   0.212 -0.3167  0.0274 -0.1870
24111W        W67164  21.669  26.829  14.938 -0.0437  0.0728  0.4090
24112W        W67165   4.061  13.500  22.267 -0.0431 -0.0202 -0.1615
24113W        W67166  27.742  20.768   7.752 -0.0592 -0.1840  0.0581
24114W        W67167  12.102  20.940   9.573 -0.2353 -0.1105 -0.3401
24115W        W67168  24.948  24.350  17.834 -0.1207  0.0021 -0.0118
24116W        W67169  28.385  32.302  18.713 -0.2970 -0.0635  0.0607
24117W        W67170   1.780  26.372   0.346 -0.2788 -0.0714  0.1787
24118W        W67171  30.920  29.302  23.720 -0.0541  0.1183 -0.1631
24119W        W67172   5.943  21.336   5.718 -0.2163  0.0081  0.1902
24120W        W67173  25.665  12.588   3.387  0.0071  0.2310  0.1041
24121W        W67174  25.072  24.545  21.242 -0.0923  0.0807  0.2541
24122W        W67175  25.201   2.247  20.640 -0.2728 -0.1621  0.0967
24123W        W67176  22.800  27.659   0.043  0.0294 -0.0959 -0.2607
24124W        W67177  31.264  18.239  14.148 -0.2480  0.2493  0.2878
24125W        W67178  31.988  26.746   5.107  0.0945  0.3389  0.0357
24126W        W67179  21.325  23.445  23.431  0.0725 -0.0359  0.1090
24127W        W67180  25.301  10.620   2.878  0.1002  0.3098 -0.1647
24128W        W67181   3.748  15.423  16.785 -0.1119 -0.0331 -0.0995
24129W        W67182  33.503  12.248   8.224  0.3787 -0.2759 -0.0605
24130W        W67183  31.100  22.122  28.328  0.3884 -0.1598  0.0260
24131W        W67184  23.520  27.061   1.373 -0.0938 -0.2308 -0.1390
24132W        W67185  22.680   8.748  21.408 -0.0158  0.3395 -0.0398
24133W        W67186   9.963  15.864  16.468 -0.0883 -0.3305 -0.1228
24134W        W67187  30.977  16.428  28.261 -0.0647 -0.1635  0.1022
24135W        W67188  19.756   6.313  19.613  0.0646  0.4855  0.1990
24136W        W67189  24.096  27.730  16.257  0.0141 -0.1475  0.3192
24137W        W67190  30.581  16.775  19.370  0.0674 -0.0246  0.1594
24138W        W67191  33.637   9.053  25.866  0.3485  0.2487 -0.3868
24139W        W67192   1.928  13.466  24.383  0.1280  0.2115 -0.0580
24140W        W67193  25.710  31.937  28.262  0.0703  0.3152 -0.0218
24141W        W67194  11.641  34.011  22.713  0.3500  0.4724 -0.0488
24142W        W67195  10.292  15.182   9.904  0.0761 -0.0282  0.1841
24143W        W67196  26.512  20.481   7.300 -0.1119 -0.1289  0.2644
24144W        W67197  17.825  16.955   1.373  0.0438 -0.2093  0.0402
24145W        W67198  14.086  28.169   8.872  0.0653  0.0152  0.0534
24146W        W67199  16.771  29.125  26.372  0.0124  0.0961  0.0047
24147W        W67200  16.313  19.822  14.177  0.2133 -0.0156 -0.0114
24148W        W67201  28.193  22.243  23.206 -0.0067  0.2217 -0.0434
24149W        W67202  22.603  24.880  18.852 -0.0048  0.1248 -0.0551
24150W        W67203  20.138  25.408   5.690  0.3836 -0.1912 -0.1766
24151W        W67204  14.321  28.958   1.338  0.0401 -0.1496  0.2120
24152W        W67205  21.682   0.490   2.945  0.3772 -0.1561 -0.0422
24153W        W67206   5.711  14.323   2.387  0.0138 -0.2459 -0.1053
24154W        W67207   8.877  29.947  15.345 -0.2333 -0.2614 -0.0582
24155W        W67208  28.678  11.083   2.503 -0.0044 -0.1423 -0.0489
24156W        W67209   6.350  16.049   2.377  0.0993  0.0044 -0.0490
24157W        W67210  17.458  12.222   6.703  0.1548  0.1528  0.1071
24158W        W67211  25.706  22.439   7.760 -0.2588  0.0972  0.0152
24159W        W67212   1.575   4.604  14.453 -0.1079  0.2404 -0.0522
24160W        W67213  32.701  10.998   3.281 -0.0590 -0.0891 -0.3652
24161W        W67214  20.930  24.902   3.354 -0.1736 -0.0967  0.0508
24162W        W67215   2.423  12.792   5.186  0.1475 -0.0328 -0.2853
24163W        W67216  27.046  30.278  16.487 -0.0985 -0.1430 -0.0673
24164W        W67217   9.374  19.841   0.470 -0.0467 -0.3521  0.1302
24165W        W67218  22.743  16.267   2.529 -0.1346  0.1082 -0.0797
24166W        W67219   5.117  19.846   1.055 -0.2074  0.0136  0.0852
24167W        W67220  13.717  29.635   0.300  0.2640 -0.1582 -0.0451
24168W        W67221  27.711  18.670   6.753 -0.2845 -0.3120  0.0759
24169W        W67222  29.398  19.085  24.248 -0.2667  0.0607  0.1135
24170W        W67223   9.985   6.500  20.205  0.1892  0.3030  0.1397
24171W        W67224  25.735  19.120   4.681  0.0210  0.3644  0.1917
24172W        W67225  34.527  27.870   5.143 -0.1146 -0.2177  0.1673
24173W        W67226  31.214  25.863  27.144 -0.0931  0.1551  0.2074
24174W        W67227  24.508  10.289  25.761  0.0218  0.2654 -0.0526
24175W        W67228  11.408   8.377  17.330 -0.1765 -0.1016  0.0782
24176W        W67229  29.505  34.036  18.435  0.1197 -0.1958  0.2343
24177W        W67230  19.300  22.608  24.843  0.3705  0.0937  0.5452
24178W        W67231  30.510  10.004   2.548  0.1511  0.1726 -0.2028
24179W        W67232  11.158   2.057   6.867 -0.2172  0.1789  0.0955
24180W        W67233   2.592  16.815   0.144 -0.1173  0.0734 -0.2072
24181W        W67234   4.833  25.650  22.452 -0.1773 -0.3226 -0.1405
24182W        W67235  33.101  19.671   5.641 -0.3014 -0.0502  0.0059
24183W        W67236  12.500  29.934  26.191 -0.3447 -0.0298  0.0270
24184W        W67237  24.378  17.806  17.989 -0.1331 -0.0419 -0.1889
24185W        W67238   7.925  22.212   7.197  0.0968 -0.2111  0.1702
24186W        W67239  29.842  20.043  20.285 -0.3462  0.1276  0.0481
24187W        W67240   3.721   3.352  24.731 -0.0791  0.2657 -0.1799
24188W        W67241   5.110  27.094   1.338  0.2407  0.2287 -0.0092
24189W        W67242  28.873  15.099  16.594  0.0460 -0.2242  0.6012
24190W        W67243   7.263   9.869  22.479 -0.0553 -0.4891 -0.3636
24191W        W67244   0.963  12.919  18.400 -0.1037  0.1153 -0.1269
24192W        W67245  16.215  34.604  14.466 -0.1861  0.2921  0.3496
24193W        W67246  25.888  29.046   5.436  0.5084 -0.2500 -0.2735
24194W        W67247   1.864  27.966  22.477  0.3339  0.0651  0.4465
24195W        W67248  17.865  23.450  15.705  0.0466  0.0403  0.0453
24196W        W67249  22.708  30.581  19.400 -0.0696  0.2100 -0.2403
24197W        W67250   2.533  23.728  19.509 -0.2027  0.1399  0.0430
24198W        W67251  29.039  22.467  15.375 -0.1569 -0.2497 -0.2804
24199W        W67252   9.565  26.155  24.250  0.0920 -0.0837 -0.0303
24200W        W67253   4.311  19.063  19.501 -0.0948  0.2514 -0.1555
24201W        W67254  31.258  32.594  23.803 -0.0103  0.0307  0.0466
24202W        W67255  32.454   0.692  26.551 -0.0663 -0.3096 -0.0124
24203W        W67256  18.905   6.372  23.732 -0.0218  0.3212  0.0954
24204W        W67257  20.428  12.508   7.826 -0.2115 -0.2428 -0.1239
24205W        W67258  19.886   8.721  27.991  0.0714 -0.0972  0.0659
24206W        W67259  31.554  17.542   9.049 -0.0352  0.1210  0.1594
24207W        W67260   3.335  15.228  22.285 -0.4274  0.2416 -0.0407
24208W        W67261  26.270  15.276  27.386  0.0663 -0.1738  0.0238
24209W        W67262  14.049  28.434  21.303  0.1296 -0.2046  0.4427
24210W        W67263   9.464  18.197   4.107 -0.2135 -0.0059 -0.0024
24211W        W67264  28.606  26.606  26.937 -0.2653  0.0720 -0.3796
24212W        W67265   3.324  27.448   0.463 -0.1891  0.0317  0.0242
24213W        W67266  23.593  26.560   1.186 -0.4969  0.1087 -0.4990
24214W        W67267  32.695  20.963   5.631  0.2012  0.0577 -0.1817
24215W        W67268   1.267  34.398  21.050 -0.0472  0.0364 -0.1843
24216W        W67269  33.992  18.198  15.640 -0.0863  0.0604 -0.1421
24217W        W67270  14.171   2.471  17.031 -0.1589 -0.2261  0.1886
24218W        W67271  26.824  18.933  25.302  0.0603  0.1179 -0.0044
24219W        W67272  27.890  14.650   8.156 -0.1887  0.0098 -0.1054
24220W        W67273  27.553  18.585  10.276  0.0337 -0.0133 -0.0496
24221W        W67274  22.575   1.005  27.381 -0.1683  0.1586 -0.2632
24222W        W67275   0.907  19.950  28.337 -0.1079 -0.0879  0.1597
24223W        W67276  27.413  15.492  19.604  0.1734 -0.3704  0.2654
24224W        W67277  20.844   7.049  14.054  0.3765 -0.0577  0.1002
24225W        W67278  20.119  19.722   3.887 -0.1098 -0.1570 -0.3479
24226W        W67279  30.081  22.334  24.442 -0.0547  0.1275 -0.3534
24227W        W67280  24.227  20.254   9.779  0.3172 -0.1109 -0.2519
24228W        W67281  26.387  26.621   1.244  0.2674  0.1989 -0.0239
24229W        W67282  25.794  16.718   8.258  0.3102  0.1097 -0.0808
24230W        W67283  19.214  25.552  17.122 -0.2192 -0.2851 -0.2789
24231W        W67284   1.540  25.469   5.821  0.1126  0.0279  0.1418
24232W        W67285  15.370   1.312   3.982  0.1126  0.2125 -0.3648
24233W        W67286  28.243  23.326   4.741 -0.2127  0.0060  0.2802
24234W        W67287  34.475  33.945  17.506  0.2469  0.1599 -0.0265
24235W        W67288  27.960  22.115  19.524  0.0255 -0.0163 -0.0120
24236W        W67289  32.838  24.627   4.285 -0.1697 -0.4050  0.1628
24237W        W67290  32.270  24.716  16.703  0.1898 -0.1812 -0.2160
24238W        W67291   7.211  11.390  17.313  0.0916 -0.0639  0.0425
24239W        W67292  31.131  27.605  22.465 -0.0967  0.0195  0.2843
24240W        W67293  30.500  10.456  16.757  0.0854 -0.4589 -0.1451
24241W        W67294  28.906  14.317  16.195  0.1831 -0.0573 -0.0610
24242W        W67295  29.719   0.448   5.125 -0.2039 -0.0437 -0.1539
24243W        W67296  28.598  17.238   3.118  0.0945 -0.1207  0.3089
24244W        W67297   0.330  18.294  21.729  0.1171  0.0637  0.0089
24245W        W67298  20.735  17.783  19.940  0.1472  0.0047  0.1511
24246W        W67299  23.613   6.754   4.242 -0.0181  0.0126  0.1692
24247W        W67300  33.188   2.107   3.751 -0.0314 -0.0430  0.0488
24248W        W67301  28.223   7.146  24.203 -0.1889 -0.0900  0.0247
24249W        W67302  10.966   2.946  28.049 -0.0416  0.0865 -0.0750
24250W        W67303  18.799   7.898  20.530 -0.0927 -0.2455 -0.3925
24251W        W67304   2.991   7.281   3.615 -0.1884 -0.0630  0.0158
24252W        W67305  25.803   3.890  28.440  0.2448 -0.1809 -0.0795
24253W        W67306  23.229  12.797  23.062  0.1299 -0.0882  0.0845
24254W        W67307  30.662  18.758   9.607 -0.1435 -0.1300 -0.0492
24255W        W67308   9.379  12.400  26.573  0.1164 -0.1007 -0.1524
24256W        W67309   3.485  24.107   3.931  0.0749 -0.3009  0.0831
24257W        W67310  12.320  14.088  27.351 -0.0387  0.1642  0.0978
24258W        W67311  34.165  18.050   5.864  0.1980  0.0221  0.3533
24259W        W67312  27.608  12.720   7.122  0.2088  0.0127 -0.0288
24260W        W67313  25.351  32.879  24.490 -0.1208  0.2853 -0.0093
24261W        W67314  27.879  18.524   8.913 -0.0836  0.1217 -0.1596
24262W        W67315   4.359  18.510  24.286  0.0353 -0.0871  0.2247
24263W        W67316   2.456  16.675   5.701  0.3051 -0.1166 -0.0655
24264W        W67317  24.992  29.528   8.528 -0.0476 -0.0285  0.0523
24265W        W67318  21.316  25.789   2.905 -0.1097  0.0141 -0.0672
24266W        W67319  31.020  29.392   8.821  0.2230  0.3351 -0.0183
24267W        W67320  28.716  31.308  18.212 -0.0990 -0.0072 -0.2979
24268W        W67321  22.984  17.160  17.828  0.4259  0.1885 -0.2361
24269W        W67322  23.276  19.632  25.596 -0.2826  0.1323  0.3027
24270W        W67323  13.604   1.864  20.533  0.2138 -0.1768  0.5364
24271W        W67324  28.678  19.332  22.167 -0.1662 -0.2307 -0.0458
24272W        W67325  16.546  10.557  14.526  0.1635  0.0139 -0.0075
24273W        W67326  31.738  31.557   5.777 -0.2035 -0.2482  0.0938
24274W        W67327  21.703  16.132  19.173  0.1145 -0.1094  0.0534
24275W        W67328   8.108  24.659  19.213 -0.4470 -0.2344 -0.3949
24276W        W67329  19.423  24.587  17.835  0.0009  0.1069 -0.0271
24277W        W67330   9.846  27.629  19.783 -0.0738  0.0264 -0.0222
24278W        W67331  28.064  23.080  26.130  0.1915 -0.3900  0.0249
24279W        W67332  29.938  32.036   4.264  0.0944 -0.0090  0.0145
24280W        W67333  29.266  23.505  27.786 -0.0126 -0.0188 -0.0551
24281W        W67334  25.184  32.825  17.544  0.0279 -0.4438  0.0925
24282W        W67335  29.988  15.024   0.237  0.0479 -0.0023 -0.0972
24283W        W67336  29.835  19.992  19.433 -0.0361 -0.0633 -0.2247
24284W        W67337  26.355  30.607  19.451 -0.2695  0.3849  0.0213
24285W        W67338  25.322  17.615  19.500  0.2365 -0.0942 -0.0393
24286W        W67339  25.014  27.069  28.064  0.0945  0.1284 -0.3461
24287W        W67340  25.402  28.490  22.046  0.1166  0.0995 -0.0393
24288W        W67341  18.663  29.940  18.344 -0.0289  0.2510 -0.0707
24289W        W67342  23.371   6.754  18.500  0.0123  0.0489  0.1007
24290W        W67343  10.806  18.411   1.952 -0.1277 -0.1833  0.1937
24291W        W67344  21.873  15.255  19.555 -0.4375  0.0228  0.2256
24292W        W67345  17.742  27.389  16.087 -0.0089 -0.1941  0.1283
24293W        W67346  27.566  12.646  22.925  0.1036 -0.0922  0.0709
24294W        W67347  10.538  17.651   0.295  0.0971  0.2966  0.2904
24295W        W67348   0.035  32.696  20.276 -0.2204  0.1236 -0.1999
24296W        W67349   3.542  18.091  19.525 -0.1664 -0.2616  0.0006
24297W        W67350  29.970  19.122  14.852  0.2785 -0.2550  0.1345
24298W        W67351  19.698   9.179   0.279 -0.1113  0.4159 -0.0231
24299W        W67352  29.696  19.819  27.785  0.1329 -0.0637 -0.1681
24300W        W67353   9.373  14.773  25.012 -0.1627 -0.0484 -0.0054
24301W        W67354  23.316   5.373  18.789 -0.5102 -0.1126 -0.2821
24302W        W67355   9.013  30.774  18.797 -0.0661  0.2098  0.1219
24303W        W67356  27.517  29.893  17.122 -0.0618  0.0959  0.3529
24304W        W67357  12.691  25.490  26.865  0.0012  0.1632  0.2541
24305W        W67358   4.547  23.301  20.078 -0.0785 -0.0789  0.0975
24306W        W67359   0.549  21.351   0.978 -0.1631  0.3316  0.0210
24307W        W67360  32.594  20.197  14.636 -0.0409 -0.1579 -0.0518
24308W        W67361  17.357  32.353  27.418 -0.0318 -0.3788  0.1886
24309W        W67362  30.355  17.496  19.999 -0.2168  0.1694 -0.0817
24310W        W67363  20.010  33.036  22.838  0.1121  0.0976 -0.0392
24311W        W67364   2.530  23.429  15.478  0.0713  0.1403 -0.0038
24312W        W67365  23.326   8.491  21.676  0.1027  0.5246 -0.0590
24313W        W67366  25.577  10.725  21.938  0.0467  0.0724 -0.3147
24314W        W67367   5.855  21.953  21.266  0.1444  0.2487  0.1510
24315W        W67368  22.856  29.549  14.632  0.3344  0.2002 -0.2824
24316W        W67369  21.760  31.526  19.361 -0.1293  0.0703 -0.2231
24317W        W67370  27.300  32.140  14.552 -0.0020 -0.0532 -0.0386
24318W        W67371  32.785  22.953  27.391  0.0143  0.0135  0.3959
24319W        W67372  18.193  25.575  14.092 -0.1455 -0.1241  0.0447
24320W        W67373  30.884   1.553  20.091 -0.1036 -0.1455 -0.2508
24321W        W67374  32.720  27.719  18.802 -0.3561 -0.0273 -0.1754
24322W        W67375  30.955  27.142  17.605  0.0543  0.0989 -0.2616
24323W        W67376  30.441  24.142  25.295 -0.0705 -0.0873  0.1405
24324W        W67377  23.106  30.741  17.217 -0.1384 -0.0127  0.0505
24325W        W67378  25.183  20.064   2.124 -0.1901 -0.1433 -0.1330
24326W        W67379   7.901  30.161   5.576 -0.0885  0.1006  0.1418
24327W        W67380  21.792  30.925  17.533  0.0342  0.1162 -0.0507
24328W        W67381  23.599  24.839  21.142 -0.0329 -0.0453 -0.1400
24329W        W67382  23.101  32.462  14.646  0.1540  0.1126  0.2067
24330W        W67383  32.703  16.481  16.740 -0.0466  0.1632 -0.1719
24331W        W67384  25.582   6.541  19.271 -0.0395  0.3307  0.1706
24332W        W67385  20.062  32.644  23.231  0.0084  0.2398  0.0584
24333W        W67386  29.219   6.777   0.897  0.0548  0.1949  0.1183
24334W        W67387  33.298  11.769  19.671  0.0429  0.0228  0.0400
24335W        W67388  24.266  21.221  26.572 -0.1556  0.5183 -0.0455
24336W        W67389   5.405  19.933  14.142 -0.1258 -0.0357  0.1047
24337W        W67390  29.394   2.642   1.907  0.1969  0.0464  0.2961
24338W        W67391  26.274  31.737   1.519  0.0817  0.2524 -0.0717
24339W        W67392  20.141   7.628  15.516 -0.1017  0.0140  0.1331
24340W        W67393  15.261   6.858  16.723  0.0266 -0.0454 -0.0472
24341W        W67394  19.801   2.521  17.129  0.0240  0.3447  0.0720
24342W        W67395  18.557  28.156  23.264 -0.2056 -0.1532  0.0520
24343W        W67396  33.319  21.115  19.398  0.0793 -0.0456 -0.1185
24344W        W67397  21.725  13.439   1.294  0.1740 -0.2560  0.1169
24345W        W67398  25.207  18.893  19.885 -0.0173  0.0482  0.0525
24346W        W67399   9.223  23.214  18.312 -0.1853  0.1173 -0.6245
24347W        W67400   0.303  23.569   2.197  0.2774 -0.3450 -0.0044
24348W        W67401   5.772  32.419  28.013  0.4945  0.3155 -0.2056
24349W        W67402  15.010  12.619  18.227 -0.0692  0.2955  0.2395
24350W        W67403   6.629  22.900  25.378 -0.2105 -0.1093  0.1064
24351W        W67404   8.082  26.277  15.405 -0.3313  0.0888 -0.0181
24352W        W67405  24.208  26.442  18.857  0.0178 -0.0925 -0.1109
24353W        W67406  24.044  25.363  22.106  0.3177  0.0593  0.1782
24354W        W67407  23.399  15.790  17.394 -0.3816  0.0573 -0.0865
24355W        W67408   8.058  18.394  20.895  0.0214 -0.0437  0.1799
24356W        W67409  11.018  19.006  23.579 -0.0001  0.1366 -0.4672
24357W        W67410  10.665  23.375  19.165  0.1658  0.0380 -0.0835
24358W        W67411  19.018   5.144  24.345  0.0098 -0.1474  0.0055
24359W        W67412  10.002   8.557  27.707 -0.2463  0.0150  0.2754
24360W        W67413  22.699   1.835   1.568 -0.1344 -0.2518  0.2203
24361W        W67414   9.479  15.062  17.810  0.0160  0.1386  0.2236
24362W        W67415  14.185  23.938   4.969  0.0644  0.1565 -0.0253
24363W        W67416  17.467  23.490  20.623 -0.0342 -0.1480  0.0376
24364W        W67417  11.768  26.638  15.493  0.1530 -0.1166 -0.1588
24365W        W67418  22.776  22.328  20.699 -0.0316  0.1940 -0.1172
24366W        W67419  33.255  12.139  16.453  0.0081 -0.0490  0.0468
24367W        W67420  21.291   0.649  20.708 -0.1443 -0.1170  0.0326
24368W        W67421  27.705  25.602  18.000  0.0912  0.1846  0.0618
24369W        W67422  12.410  14.576   2.500  0.2712 -0.0783  0.1328
24370W        W67423   1.511  21.581   6.678  0.3025 -0.2772 -0.2341
24371W        W67424  12.774  11.458  21.044  0.5474 -0.0981 -0.2808
24372W        W67425  30.946  20.796  16.809  0.1499  0.0606  0.0095
24373W        W67426  32.104  14.306  17.900 -0.2557 -0.1899  0.1088
24374W        W67427  30.117   2.065  20.024  0.0122  0.1320  0.1908
24375W        W67428  23.474  13.622  21.462 -0.1364  0.0798  0.2511
24376W        W67429  26.743  33.993  20.040 -0.0644 -0.2332 -0.1575
24377W        W67430  12.043  32.677  14.716  0.2539 -0.0952  0.0055
24378W        W67431   2.992  12.629  17.717  0.0318  0.2194  0.2602
24379W        W67432   3.396  19.909   8.556 -0.2807  0.0451 -0.1588
24380W        W67433   2.024  28.654  15.295 -0.0774  0.0070  0.1565
24381W        W67434  29.169  23.169  18.979 -0.1223 -0.2002 -0.0321
24382W        W67435  29.298  24.371  21.295 -0.1121 -0.0973 -0.1075
24383W        W67436   1.115  12.328   2.702 -0.1749  0.1104  0.0720
24384W        W67437  21.036  23.020  15.087 -0.1129 -0.1227  0.0089
24385W        W67438  19.963  22.726  18.122  0.0030  0.1539 -0.1554
24386W        W67439  16.596  32.769  19.662  0.2232  0.1533 -0.2972
24387W        W67440  27.587  25.800  27.333  0.1179  0.4276  0.2067
24388W        W67441  24.892  33.003  20.769 -0.0645 -0.0364 -0.0867
24389W        W67442  17.959  22.857  15.810 -0.0281  0.1559  0.3619
24390W        W67443  17.741  23.095  24.086  0.1169 -0.1889 -0.0484
24391W        W67444   6.686  27.420  28.038 -0.1070 -0.0491 -0.3163
24392W        W67445  34.096  26.115  28.775 -0.1441  0.2877  0.1783
24393W        W67446  33.034  21.872  19.137  0.2811  0.0459  0.0146
24394W        W67447  34.372   6.479  19.989  0.1104 -0.0402 -0.3041
24395W        W67448   0.298   9.545  17.515  0.0326 -0.1791 -0.1827
24396W        W67449  28.531   7.624  21.047 -0.0432  0.1252  0.2231
24397W        W67450  29.149  21.722  13.684  0.3078 -0.0694  0.1864
24398W        W67451  19.704  30.527  16.662 -0.4104 -0.2137  0.3723
24399W        W67452  23.552  29.221  14.959  0.1000 -0.1579  0.5132
24400W        W67453  31.233  28.660  26.669  0.0102  0.0926 -0.1897
24401W        W67454   5.387  15.310  19.936 -0.0752  0.0457 -0.0475
24402W        W67455  34.684   4.346  14.993 -0.0658  0.2704  0.2548
24403W        W67456  32.995  31.171  17.744  0.0966  0.1567  0.0784
24404W        W67457  24.920  24.829  20.439 -0.0219  0.3801  0.1478
24405W        W67458  26.125  28.536  23.247 -0.2061 -0.1411 -0.3634
24406W        W67459  29.013   2.194   0.626 -0.1451 -0.2518 -0.1413
24407W        W67460  26.115  18.779  15.460 -0.1208 -0.1972  0.0108
24408W        W67461   6.635  24.351  26.433  0.1087  0.0421 -0.1182
24409W        W67462  29.882  24.416  24.594  0.0433 -0.3081  0.0257
24410W        W67463   1.391  23.787  21.022 -0.0670  0.1624 -0.0464
24411W        W67464   4.203  17.352   7.538 -0.1298 -0.1004 -0.0771
24412W        W67465  27.923  24.827  14.783  0.3821  0.1629 -0.2095
24413W        W67466   1.557  20.268  24.827  0.0526  0.0616  0.0300
24414W        W67467  18.321  33.256  14.684 -0.0004  0.0360  0.1249
24415W        W67468  24.086  14.545  16.211 -0.0862 -0.1225 -0.0036
24416W        W67469  10.882  13.176  19.191 -0.2542  0.1032  0.1333
24417W        W67470  30.901   7.941  23.220  0.0240  0.1849  0.1458
24418W        W67471  17.971  20.901  23.810 -0.2448  0.1201 -0.1556
24419W        W67472  16.658   2.335  19.305  0.3156 -0.0171 -0.1131
24420W        W67473  12.128  30.149  18.736  0.0422  0.0011 -0.1022
24421W        W67474  27.994  24.300  15.020 -0.0151  0.2197  0.3793
24422W        W67475  19.143  24.608  18.561  0.0081  0.0255  0.6869
24423W        W67476  13.785  25.870  15.141 -0.0548 -0.0477  0.0872
24424W        W67477   0.372  13.361   2.951 -0.2087 -0.0680 -0.0145
24425W        W67478  22.815  25.244  24.779 -0.3470  0.0039 -0.4488
24426W        W67479  30.917  16.692  16.869 -0.0527 -0.2395  0.4276
24427W        W67480  33.905   6.748  16.042  0.0070 -0.0482  0.0817
24428W        W67481  21.569  33.001  19.761  0.4490 -0.2297 -0.0612
24429W        W67482   0.214  17.198  23.154  0.0618 -0.0045  0.2722
24430W        W67483  20.305  25.775   6.427  0.1517  0.2507  0.0623
24431W        W67484   2.455   4.559  26.562  0.1465 -0.1147 -0.2654
24432W        W67485  33.922  27.282  22.420  0.4743  0.0659 -0.0746
24433W        W67486   2.300  27.152  24.976  0.0329 -0.0914  0.4380
24434W        W67487  31.726   0.506  21.767 -0.0043 -0.1714  0.2078
24435W        W67488  29.863  18.041  25.949  0.1382  0.1519  0.4056
24436W        W67489  32.962  30.417  18.348  0.0977  0.0584  0.0406
24437W        W67490  32.301  16.216   5.960 -0.1169 -0.1192  0.0740
24438W        W67491   0.756  30.138  20.243  0.0572  0.0064  0.0356
24439W        W67492  17.296  26.323  19.326 -0.1204 -0.1129  0.0593
24440W        W67493  18.282  17.961  13.487  0.1496  0.1478  0.2862
24441W        W67494  13.571  29.894  21.916  0.2924  0.1520  0.2554
24442W        W67495  32.034   5.873  18.286 -0.1126 -0.2036  0.1750
24443W        W67496  27.633  26.582  21.432  0.0072 -0.0590  0.0536
24444W        W67497  24.597   7.004  23.809  0.5004  0.1768 -0.2789
24445W        W67498  17.611  26.711  18.545  0.2316  0.1224 -0.0951
24446W        W67499   9.052  20.961  24.866  0.0398 -0.1098 -0.0900
24447W        W67500  25.315  20.747  20.003 -0.4552 -0.0105 -0.1155
24448W        W67501  11.043  30.366  21.375  0.1314  0.1183 -0.0079
24449W        W67502  18.564  24.067  15.752  0.0052  0.2177  0.0353
24450W        W67503   4.573  26.006   0.441 -0.0729 -0.0769 -0.1298
24451W        W67504  10.138  25.765  15.973  0.3711 -0.1987  0.0535
24452W        W67505  27.520   1.059  18.276 -0.1472 -0.2417 -0.0027
24453W        W67506  28.760  26.813  21.109 -0.1400 -0.0797  0.0805
24454W        W67507  18.611  26.885  17.864 -0.1228 -0.2307  0.4111
24455W        W67508  31.954  25.518  15.158  0.0762 -0.0800  0.0671
24456W        W67509  20.264  29.420  17.036 -0.2182  0.0599 -0.1772
24457W        W67510   4.140  31.408  23.707 -0.3079 -0.1457  0.0313
24458W        W67511  13.339  16.141  18.834 -0.0687 -0.0131  0.0635
24459W        W67512  15.777  29.909  20.509 -0.2268  0.0587 -0.0669
24460W        W67513  17.737  10.306  26.790  0.0174  0.0128 -0.0169
24461W        W67514  22.975  26.467  28.260  0.1603  0.0953  0.0502
24462W        W67515  14.608  33.800  26.121 -0.0034 -0.0931 -0.0119
24463W        W67516  31.736   9.727   2.995  0.2633  0.0531 -0.0732
24464W        W67517  27.504  29.551  24.369 -0.2020  0.2951  0.0989
24465W        W67518  31.993   1.095  15.045  0.1843  0.2897  0.2399
24466W        W67519   6.981  16.789   1.289 -0.2495 -0.2576 -0.2626
24467W        W67520   0.801  17.501  17.635  0.0877  0.7204 -0.0136
24468W        W67521   6.668  26.171  14.540  0.1774 -0.1100 -0.1914
24469W        W67522  22.406  30.779  25.433 -0.2517 -0.3828 -0.0925
24470W        W67523  20.823  21.149  18.830 -0.0651  0.2069  0.1156
24471W        W67524   6.730  25.119  18.137 -0.0645 -0.0549  0.2294
24472W        W67525  32.752  32.355  15.854  0.1704  0.0406 -0.0591
24473W        W67526  32.178  26.323  17.261  0.2495  0.0046  0.0305
24474W        W67527  30.018  15.608  14.958  0.0502  0.0893 -0.0203
24475W        W67528  17.800  26.808  21.853 -0.1057 -0.1601  0.0226
24476W        W67529  33.222  13.640  27.396  0.0049 -0.0433  0.1485
24477W        W67530  26.892  26.303  14.596 -0.1846  0.2577 -0.1209
24478W        W67531  11.311  15.823   0.418 -0.2210  0.1888  0.0779
24479W        W67532  18.217   0.082  28.787  0.0383  0.0226  0.2517
24480W        W67533  23.823  15.528  19.857  0.1094 -0.2782  0.0810
24481W        W67534   3.411  28.284  19.144 -0.1533  0.1352 -0.0023
24482W        W67535  27.494  19.020   5.157 -0.1140 -0.0772  0.0347
24483W        W67536  25.031  22.643  14.616 -0.2270 -0.0072  0.3420
24484W        W67537  23.924  28.909  25.668 -0.2250  0.0278  0.0353
24485W        W67538  22.941  18.855  14.545  0.0672 -0.0684  0.3927
24486W        W67539  31.370   2.289  21.998 -0.3404 -0.0702  0.0855
24487W        W67540   0.883   3.168  14.220  0.1736 -0.0471  0.0912
24488W        W67541  25.225   1.061   8.021 -0.2030  0.1790 -0.1688
24489W        W67542   4.950  25.576  21.865  0.0660  0.0999 -0.0976
24490W        W67543  17.361  22.612  14.641  0.4537 -0.4193 -0.0571
24491W        W67544   4.008  27.832  21.448 -0.2754 -0.2974  0.2308
24492W        W67545  17.037  10.616  21.866 -0.0438  0.2648  0.1198
24493W        W67546  13.272  10.691  24.713 -0.1719  0.0602 -0.0426
24494W        W67547  33.726  10.569  24.403  0.2107 -0.0380 -0.1367
24495W        W67548  12.079  28.740   1.954 -0.1800  0.2688 -0.0590
24496W        W67549   8.470  22.407  21.453 -0.2291  0.1794 -0.0733
24497W        W67550  27.572  32.201  18.971 -0.0054 -0.0065 -0.2397
24498W        W67551  28.784  26.022  22.621 -0.0846  0.0376 -0.1702
24499W        W67552  24.316  20.498  26.808 -0.0441 -0.2578  0.0177
24500W        W67553  27.679  31.950  19.487  0.0497  0.1548  0.0975
24501W        W67554   5.004  21.140  14.855  0.0176  0.0628  0.1080
24502W        W67555   2.331  22.711   4.511  0.2871  0.0705 -0.0931
24503W        W67556  18.619  25.861  23.012 -0.1083  0.2760 -0.1591
24504W        W67557  28.481  21.543  16.316 -0.3894  0.1299 -0.1789
24505W        W67558  26.032  29.746  19.791 -0.2290  0.0579  0.3096
24506W        W67559   3.973  20.026  23.932  0.0494  0.1466  0.0031
24507W        W67560  13.213  14.421  17.923 -0.1038  0.0739 -0.1052
24508W        W67561  23.530   2.226  16.578  0.3711  0.2770  0.0568
24509W        W67562  30.023  13.678  15.520 -0.2246 -0.1179 -0.0569
24510W        W67563   1.086   2.623  21.635  0.2172 -0.0682  0.1569
24511W        W67564   3.097  29.656  17.798 -0.1992 -0.1045  0.0189
24512W        W67565   7.966  10.183  24.257 -0.0848 -0.1182  0.0823
24513W        W67566  20.532  25.306  16.013 -0.2634 -0.1837 -0.1652
24514W        W67567  33.674  17.617  13.684  0.2283 -0.2182  0.0103
24515W        W67568   4.087  11.538  22.508 -0.1352 -0.2772  0.1928
24516W        W67569  20.140   8.058  19.835  0.2374 -0.3047 -0.0815
24517W        W67570  32.055  31.088  14.862  0.0437  0.4802 -0.2123
24518W        W67571   7.954  26.166  27.319 -0.1931  0.1198 -0.1841
24519W        W67572  16.050  23.956  16.564  0.0839  0.0852 -0.1664
24520W        W67573   3.727  17.937  25.549 -0.0078  0.0994  0.0400
24521W        W67574  16.766  20.303  22.650  0.1391 -0.1922  0.0788
24522W        W67575   9.745   1.453  19.005  0.3821 -0.0702  0.0569
24523W        W67576  24.415  19.064  25.303  0.0588 -0.2572 -0.0119
24524W        W67577  31.819  32.456  20.697  0.0992  0.0045 -0.1211
24525W        W67578  30.528  20.847  28.172 -0.0247 -0.2836 -0.2578
24526W        W67579  33.948  15.219  18.148  0.0643  0.0069  0.2226
24527W        W67580  29.914  23.013  16.397  0.2412  0.0199 -0.2849
24528W        W67581  31.262   6.765  26.352  0.4145  0.1498  0.2483
24529W        W67582  28.781  26.066  15.429 -0.0449  0.0833 -0.0240
24530W        W67583  13.140   3.245  22.212 -0.0685  0.0242  0.1107
24531W        W67584   0.774  25.215  19.920 -0.1347  0.1106 -0.1258
24532W        W67585  22.451   1.311  13.796  0.1163 -0.1001  0.1701
24533W        W67586   3.726  22.210  20.096  0.2103  0.0352 -0.2297
24534W        W67587  28.733  25.580  29.194  0.0820  0.0242 -0.0057
24535W        W67588  26.629  27.189   3.623 -0.0422 -0.0529  0.1991
24536W        W67589  33.251  22.957  17.912  0.0199  0.1361 -0.0586
24537W        W67590  23.876  22.955  17.624  0.1982 -0.1972  0.1771
24538W        W67591   3.241  27.277  14.160  0.0895  0.0051 -0.2909
24539W        W67592   4.705  29.959  13.830  0.0856 -0.1239  0.0772
24540W        W67593   9.115  23.433  14.592  0.1838 -0.1678  0.0913
24541W        W67594  18.627  31.953  25.976 -0.1802  0.1673  0.1395
24542W        W67595  32.546   1.695  20.695 -0.1145 -0.1346 -0.0263
24543W        W67596  23.504  19.613  27.711  0.0118 -0.1231  0.2275
24544W        W67597   2.031  11.893  15.626 -0.0651  0.0008 -0.0211
24545W        W67598  27.241  25.504  21.691  0.2036  0.2576  0.2959
24546W        W67599  31.571  15.232  15.166 -0.4292  0.4777 -0.1616
24547W        W67600  31.735   6.372  16.060 -0.0460  0.0047 -0.1345
24548W        W67601  27.408  27.361  16.292  0.2034  0.0817  0.1255
24549W        W67602  10.870  34.511   0.255  0.2879 -0.2106 -0.2215
24550W        W67603  23.561  20.088  26.327 -0.0485  0.1639 -0.1079
24551W        W67604   6.097   3.371   1.116  0.0248  0.2653  0.0982
24552W        W67605   0.160  26.472  17.055  0.0761  0.0626  0.0767
24553W        W67606  20.774  25.456  21.801  0.1610  0.3162  0.1358
24554W        W67607  26.419  19.856  19.736  0.1914  0.1119 -0.0739
24555W        W67608  25.880  17.066   8.757 -0.0366  0.0469 -0.0568
24556W        W67609  31.652  24.360  20.175  0.0148 -0.1953 -0.1737
24557W        W67610  33.173  31.265  19.359  0.1516  0.2049  0.2835
24558W        W67611  12.944  22.166  28.887 -0.1252  0.0367 -0.3994
24559W        W67612  22.419  30.112  17.873  0.1070 -0.0925 -0.1495
24560W        W67613  21.127  23.632  26.741 -0.4345  0.0376 -0.1556
24561W        W67614  18.960   1.862  17.201 -0.1126 -0.1482 -0.2232
24562W        W67615  33.825  19.555  14.815  0.0651 -0.0471  0.0842
24563W        W67616  21.051   7.119  20.420 -0.0918 -0.1393  0.0757
24564W        W67617  20.497  24.006   7.586  0.1309 -0.2430  0.2223
24565W        W67618   3.131  14.706  16.115  0.3581 -0.2063  0.2520
24566W        W67619  30.753  24.359  23.134 -0.0490  0.0956  0.4100
24567W        W67620   1.319  33.959  14.751  0.2272  0.2908  0.3168
24568W        W67621  31.956  27.747   3.932  0.1109 -0.1234  0.1239
24569W        W67622  19.561  22.266  17.497 -0.1251 -0.1200  0.2072
24570W        W67623  21.650   9.982  17.033 -0.0571 -0.2852  0.0544
24571W        W67624  22.345  30.341  18.448 -0.3039  0.2107  0.1230
24572W        W67625  15.192  29.259  23.857  0.0765 -0.0586 -0.0862
24573W        W67626  22.732   4.468  17.444  0.0355 -0.1075 -0.1848
24574W        W67627  25.417   0.987  14.524  0.1743 -0.1160  0.0567
24575W        W67628   5.458  32.954  20.211  0.3421  0.2933  0.0349
24576W        W67629  15.178  27.517  18.537 -0.1091  0.2037 -0.0800
24577W        W67630  30.551  12.190  25.298 -0.1718  0.0364  0.4082
24578W        W67631  29.046  29.462  13.991 -0.1522 -0.0736 -0.2954
24579W        W67632  22.201   4.741  19.196  0.2912 -0.1318 -0.2140
24580W        W67633  33.012  27.928  24.272 -0.2495  0.1743  0.1446
24581W        W67634  29.519  25.361  18.550 -0.0290  0.1984 -0.0510
24582W        W67635  25.817  26.988  15.030 -0.0021 -0.1826 -0.1937
24583W        W67636  33.107  24.709  26.869  0.0262  0.1910  0.0814
24584W        W67637   5.467  15.825  25.371  0.1631 -0.1813  0.4275
24585W        W67638  28.605  26.698  18.867 -0.0202  0.3816  0.4910
24586W        W67639  16.454  13.834  14.600  0.2390 -0.3354 -0.2277
24587W        W67640  32.889  23.781  22.663  0.3129 -0.2635 -0.0378
24588W        W67641  27.650  23.584  18.041  0.1377 -0.0995 -0.0046
24589W        W67642  19.747  33.508  21.461 -0.1066 -0.0590  0.3293
24590W        W67643   0.189   2.891  24.584 -0.1271 -0.0619 -0.0731
24591W        W67644  25.530  30.488  25.604 -0.1159  0.3490 -0.0264
24592W        W67645   4.287   1.045  13.989 -0.2100  0.0399 -0.0508
24593W        W67646  34.668  30.524  16.070  0.2624 -0.3320 -0.1688
24594W        W67647  23.392  16.320  15.755 -0.4176 -0.1140  0.2485
24595W        W67648   7.976  13.696  29.073 -0.1432 -0.0491 -0.1448
24596W        W67649   5.570  26.503  24.215  0.0059 -0.2113  0.1021
24597W        W67650  18.389   5.528  14.929 -0.0862 -0.0641  0.0225
24598W        W67651  27.844  17.242  19.169  0.1991 -0.1314 -0.0507
24599W        W67652   0.911   1.645  22.642  0.3411 -0.0359  0.1046
24600W        W67653  31.332  16.560  20.105  0.2970 -0.0564  0.3675
24601W        W67654  27.343  16.151  20.187 -0.3741  0.1181  0.0668
24602W        W67655  10.441  21.250   0.825 -0.2566  0.2041 -0.0235
24603W        W67656  29.084  22.590  16.932 -0.1932  0.5118  0.0997
24604W        W67657   2.930  17.581  16.733  0.1381  0.0944 -0.1440
24605W        W67658   2.982   3.090   5.886 -0.2680 -0.2007  0.2628
24606W        W67659   8.619  20.408  26.705  0.0613  0.0605  0.0858
24607W        W67660  33.216  26.639   2.676 -0.1819  0.1560  0.2192
24608W        W67661  30.148   0.664  21.123 -0.1366 -0.0888  0.1152
24609W        W67662  23.781  12.712  15.594 -0.0003  0.3181 -0.0999
24610W        W67663   3.515   1.189  16.439  0.1890  0.1943 -0.0450
24611W        W67664  29.556  12.191   0.283 -0.0553  0.2055  0.3947
24612W        W67665  31.392  21.051  22.707  0.2255  0.2287  0.0025
24613W        W67666  14.272  11.495  18.788  0.0810  0.1237  0.0574
24614W        W67667   7.288  20.435  15.507 -0.0413 -0.1940 -0.0267
24615W        W67668  22.749  18.322  14.713  0.0650  0.0733 -0.0487
24616W        W67669  22.951   7.421  19.781  0.2897  0.1056  0.1951
24617W        W67670  21.688  34.282  19.618 -0.3390 -0.0006  0.0616
24618W        W67671   0.498  23.290   6.420 -0.0034  0.1071 -0.0848
24619W        W67672   3.207   8.789   2.685 -0.0307 -0.0304  0.0636
24620W        W67673  26.877  34.580   2.408 -0.1164 -0.0759  0.3096
24621W        W67674  26.552  19.568  14.307  0.1544 -0.1823  0.0035
24622W        W67675  23.409  24.600  16.429  0.3444 -0.1980 -0.0987
24623W        W67676  20.332  24.364  19.550  0.0049  0.2252  0.1114
24624W        W67677   7.852   1.132  26.332 -0.0052  0.0612 -0.0526
24625W        W67678  20.630  23.356  19.116  0.2749 -0.1528 -0.3150
24626W        W67679   0.628  22.064  15.556  0.1538  0.0195  0.1459
24627W        W67680   4.243  28.100   1.158  0.0324  0.1213  0.0717
24628W        W67681  17.562   1.948  24.223 -0.1177  0.0767 -0.2858
24629W        W67682   8.152  29.000  15.839 -0.0256 -0.0504 -0.2429
24630W        W67683  24.920  32.493  23.253  0.4043  0.0521 -0.0011
24631W        W67684   4.565  23.069   9.296 -0.0914  0.0003  0.0851
24632W        W67685  25.754  18.149  17.854 -0.0718 -0.0763  0.0802
24633W        W67686  27.344  17.805  25.583 -0.3979  0.4390  0.0743
24634W        W67687  30.169  31.101  22.404  0.0359  0.1512 -0.0356
24635W        W67688  10.324  13.035  17.467  0.1819 -0.1426 -0.0617
24636W        W67689  27.242  17.959  20.742 -0.0653  0.1215 -0.0012
24637W        W67690  25.633  25.127  21.095 -0.0352  0.2158 -0.3375
24638W        W67691   8.944  23.615  18.445 -0.0051 -0.1135 -0.2311
24639W        W67692   6.956   5.360  27.909  0.0527 -0.0981  0.0108
24640W        W67693  25.287   3.886  28.289  0.0672  0.0389 -0.3369
24641W        W67694  28.398  28.199  22.954  0.1205  0.2881  0.1633
24642W        W67695  14.887  23.017  17.937  0.1238 -0.0457 -0.0871
24643W        W67696  33.903  16.493  19.963  0.2370 -0.1004 -0.1185
24644W        W67697  12.445  32.808  23.042 -0.1189  0.1291  0.1394
24645W        W67698  25.589   5.448  17.043  0.1499  0.0644  0.2317
24646W        W67699  22.292  13.164  22.009 -0.1204 -0.1492  0.3201
24647W        W67700  18.576  22.847  20.087 -0.1223  0.2137 -0.0380
24648W        W67701  28.726  33.312  16.797 -0.1194 -0.0772 -0.2705
24649W        W67702  15.142  29.088  19.567 -0.3039 -0.2371  0.4050
24650W        W67703  30.019  31.600  20.861 -0.2484 -0.6757  0.0229
24651W        W67704   2.480   6.291  19.943  0.0236 -0.0197  0.1695
24652W        W67705  20.965  19.536  16.059  0.0559 -0.1790  0.1394
24653W        W67706   9.126   8.674   6.045 -0.1128  0.0374 -0.0425
24654W        W67707  31.512  10.528  20.731  0.0690 -0.2048 -0.0065
24655W        W67708  10.032  22.535  19.956 -0.2119 -0.2842  0.1938
24656W        W67709  33.718  30.791  17.524  0.0809 -0.0090  0.1801
24657W        W67710  27.948  20.160  16.751 -0.3377  0.0763 -0.2131
24658W        W67711  27.364  14.190  18.216  0.1060  0.0897 -0.0154
24659W        W67712  25.726  28.340  16.001 -0.1231  0.2334 -0.1599
24660W        W67713  11.699  23.852  18.445 -0.1978  0.1177  0.2225
24661W        W67714  32.393  30.702  17.151  0.2771  0.0951  0.2633
24662W        W67715   1.943  24.644  14.915 -0.1489 -0.1343  0.0662
24663W        W67716   3.720  13.057   4.777 -0.0076  0.0408  0.0870
24664W        W67717  10.932  28.696  28.699 -0.0301  0.0196 -0.1029
24665W        W67718   2.050  32.589  21.842  0.1029 -0.1626 -0.1123
24666W        W67719   3.144  33.413  18.163  0.1170  0.1394 -0.3276
24667W        W67720  24.850  15.337  14.179  0.1810  0.0721 -0.0924
24668W        W67721  23.608  27.656   7.680  0.0462 -0.1380  0.4136
24669W        W67722  20.006  12.821   1.106 -0.0463 -0.0516  0.2761
24670W        W67723  19.277   1.314  24.969 -0.1689 -0.0702  0.0533
24671W        W67724  22.865  13.642  25.525 -0.2216  0.0731 -0.2237
24672W        W67725  33.120  20.934  17.046  0.0102 -0.1739 -0.1055
24673W        W67726  27.332  32.164  20.805 -0.2489  0.0336  0.2027
24674W        W67727  33.351   0.111   4.247 -0.1679 -0.0647 -0.0583
24675W        W67728  32.832  32.103  17.370  0.0141  0.2291  0.0041
24676W        W67729  33.828   1.452  23.956 -0.1193 -0.0032 -0.0864
24677W        W67730  23.537  21.617  19.199 -0.1306  0.0829  0.0488
24678W        W67731   2.381  29.489  18.989  0.0352  0.2203  0.0516
24679W        W67732  30.950  33.261  19.893  0.1228  0.1587 -0.1823
24680W        W67733  18.775  32.251  15.378  0.1820 -0.0724 -0.2563
24681W        W67734  29.076   6.752  15.861  0.1056 -0.1839  0.0585
24682W        W67735  21.066  22.171  17.302  0.2732  0.1370 -0.0470
24683W        W67736  15.578  24.278  19.118  0.0522 -0.0635  0.3211
24684W        W67737  12.861  18.973  26.170  0.1239 -0.3010 -0.0329
24685W        W67738  22.336   5.527   2.728  0.0127  0.1438  0.1489
24686W        W67739   0.817  26.291   7.787  0.1060  0.1139  0.1856
24687W        W67740  16.671  27.956  25.683 -0.1789  0.0333  0.0198
24688W        W67741  31.752  10.562  16.844 -0.2066 -0.0375 -0.0022
24689W        W67742  28.741  23.655  21.737 -0.2030  0.1215 -0.2135
24690W        W67743  18.724  26.471  15.457  0.1637  0.0782 -0.1135
24691W        W67744  34.444  26.664   0.101 -0.4168 -0.1531 -0.2060
24692W        W67745   2.736  31.863   2.475 -0.1029 -0.0601  0.1872
24693W        W67746  30.385   9.215  15.908 -0.0804  0.1971  0.0092
24694W        W67747  28.130   7.398  19.396 -0.0123  0.3870  0.4603
24695W        W67748   3.992  17.772  13.430  0.0040  0.2392  0.1926
24696W        W67749  23.358  30.140  16.694  0.2151  0.1367 -0.0882
24697W        W67750  33.742  29.100   2.986 -0.0913  0.0888  0.3965
24698W        W67751  11.612  23.843  15.416  0.1337  0.1280 -0.1943
24699W        W67752  30.386  12.549  16.502 -0.2558 -0.0043 -0.0633
24700W        W67753   3.277  10.702   7.439 -0.1636 -0.0530 -0.1380
24701W        W67754   8.065  27.289  23.907  0.0748 -0.2121  0.5410
24702W        W67755   1.172  13.268  28.306  0.2179  0.0236 -0.0865
24703W        W67756  28.265  21.897  29.192 -0.0249 -0.1634  0.1478
24704W        W67757  10.945   3.382  14.680  0.1728 -0.1294 -0.3906
24705W        W67758   0.146  31.579  23.371 -0.0936 -0.2571  0.0774
24706W        W67759  20.749  19.957  21.213  0.2052  0.2459  0.5308
24707W        W67760  28.696  16.942  16.070 -0.1769  0.1587  0.2417
24708W        W67761  17.821  11.185  22.183 -0.2695  0.5981  0.2855
24709W        W67762  19.379  30.461  26.367  0.1154  0.1123 -0.4252
24710W        W67763  26.364  21.603  24.973 -0.1913  0.1282 -0.2836
24711W        W67764  18.446   2.760   7.930  0.0234  0.1125 -0.1905
24712W        W67765  17.820  16.374  12.924 -0.3701 -0.3016  0.1917
24713W        W67766  32.273  14.629  14.548 -0.1595  0.1348  0.0511
24714W        W67767  29.738   1.184  16.606  0.3937  0.3203  0.0097
24715W        W67768  29.348   2.222  22.813 -0.0848 -0.0836 -0.1926
24716W        W67769  31.307   5.653  24.449  0.3712  0.2825  0.1933
24717W        W67770   4.189  21.533   6.047 -0.2157  0.0714 -0.0650
24718W        W67771  28.722  34.336  15.485  0.3300 -0.0673 -0.0135
24719W        W67772  24.663  32.813  19.281  0.2860  0.2454  0.2104
24720W        W67773  13.428  25.861  18.764 -0.1383  0.2411 -0.1363
24721W        W67774   8.768  33.934  21.156 -0.5080 -0.3260 -0.1440
24722W        W67775  24.057  18.700  21.471 -0.1889  0.0486 -0.1826
24723W        W67776  18.857  25.673  24.611 -0.2213  0.1240 -0.0700
24724W        W67777  12.364  16.708  13.809 -0.1411  0.3471  0.2542
24725W        W67778   7.535  17.569  23.773 -0.0782 -0.1897  0.0076
24726W        W67779  17.915  31.025  21.724 -0.1013  0.1412 -0.3016
24727W        W67780  20.456  13.765  14.017  0.1404 -0.1107  0.3724
24728W        W67781  13.030  22.782  14.686  0.0611  0.1069 -0.3616
24729W        W67782   4.316  20.875  21.905 -0.1686 -0.1207  0.1003
24730W        W67783  21.334  30.092  27.186 -0.0709 -0.3823  0.0940
24731W        W67784   1.776  11.927  17.127 -0.1597 -0.3834  0.0354
24732W        W67785  32.739  33.741  26.221 -0.1779 -0.2293  0.1732
24733W        W67786   3.481  21.008  13.702  0.3109 -0.1660  0.2382
24734W        W67787   0.565   4.415  22.019 -0.0509 -0.0756  0.0825
24735W        W67788  15.892  18.813  14.868 -0.0409  0.0744 -0.0681
24736W        W67789  27.842  24.184   4.892  0.1453  0.1410  0.2402
24737W        W67790   0.048  24.885   0.896  0.2706  0.3268 -0.0684
24738W        W67791  28.118  14.822  27.336  0.2239  0.1609 -0.1944
24739W        W67792  26.977  15.256  15.318 -0.1055  0.1730 -0.1516
24740W        W67793  23.124  28.812  26.290 -0.0264 -0.2388  0.0866
24741W        W67794  24.317  28.914  21.383  0.1363  0.0890  0.2709
24742W        W67795  33.461  30.833   7.507 -0.2471 -0.1844  0.0857
24743W        W67796   3.904   5.011   0.588  0.0234 -0.2142  0.1510
24744W        W67797   2.372  27.459  27.104  0.1054 -0.3206 -0.0708
24745W        W67798  18.015  26.149  19.906 -0.0201 -0.0091 -0.1126
24746W        W67799  24.993  27.131  22.746 -0.0103  0.0355  0.0906
24747W        W67800  30.619  13.529  25.686 -0.2508  0.2803 -0.2538
24748W        W67801  31.473  25.737   2.404 -0.0472  0.2409  0.0250
24749W        W67802  23.697  26.451  18.729 -0.0530 -0.0165 -0.2178
24750W        W67803   0.336  23.831  17.863 -0.0140 -0.2687 -0.0290
24751W        W67804  21.860   1.521  19.556  0.0803 -0.0409 -0.0216
24752W        W67805  29.565  28.296  10.262 -0.4059 -0.3091 -0.5248
24753W        W67806  24.624  25.141  16.128 -0.3967 -0.0670 -0.1040
24754W        W67807  33.095  29.669  14.875  0.0781  0.1785  0.1714
24755W        W67808  20.124  31.595  24.054  0.2871  0.1192  0.2483
24756W        W67809  15.764  22.658  28.423 -0.0479  0.0276 -0.1700
24757W        W67810   8.940   0.029  14.555  0.1334  0.1982 -0.0077
24758W        W67811  32.195  20.718  19.483 -0.1543 -0.1448  0.3164
24759W        W67812  27.022   2.109  20.260  0.1167  0.0887 -0.0503
24760W        W67813  29.052  23.632  17.369 -0.0358 -0.3156  0.1794
24761W        W67814  26.430  30.711  14.204 -0.0023 -0.0335  0.1877
24762W        W67815  30.188  27.925  15.067  0.2119 -0.2914 -0.1368
24763W        W67816  30.682  27.371   5.008  0.1888 -0.0492  0.0799
24764W        W67817  26.279  24.926  16.043 -0.2262  0.0233 -0.1477
24765W        W67818  31.625  28.657  17.820 -0.1998 -0.2968  0.1017
24766W        W67819  27.542  20.263  19.842  0.2819  0.2107 -0.1193
24767W        W67820   3.607  12.511   0.526  0.0654  0.0404  0.0676
24768W        W67821  32.678  26.680  20.694 -0.1871 -0.1353  0.0781
24769W        W67822  33.315  10.346  25.607 -0.1744  0.0121  0.2269
24770W        W67823  17.853  32.528  18.179  0.2313 -0.0882 -0.1452
24771W        W67824  29.550  20.391  24.613  0.2753 -0.0378  0.1052
24772W        W67825  28.910  23.914   4.076 -0.0103 -0.1903  0.0338
24773W        W67826   6.783  12.286  22.826  0.0783 -0.1667  0.0974
24774W        W67827   7.807  28.242   1.287 -0.2025 -0.3559  0.0253
24775W        W67828   1.588   0.104  14.567  0.0201 -0.1770 -0.1510
24776W        W67829  22.239  22.897  28.060 -0.1631  0.3659 -0.0950
24777W        W67830  11.889  20.818  23.789 -0.0712  0.0571  0.0255
24778W        W67831  27.447  19.175   1.816  0.0343  0.0210 -0.0258
24779W        W67832   9.843   4.990  15.769  0.2406 -0.1448  0.0004
24780W        W67833  24.977  28.660  16.164  0.1900  0.1787  0.3059
24781W        W67834  30.944  20.341  13.418 -0.0059 -0.3178  0.1584
24782W        W67835  28.286  15.065  20.117  0.0208  0.2646  0.4756
24783W        W67836  29.719   6.953  22.025 -0.1599  0.2333 -0.3123
24784W        W67837  24.060  33.944  16.377 -0.1448 -0.1834 -0.2543
24785W        W67838  17.224  21.968  13.830  0.0389 -0.0896  0.0007
24786W        W67839  31.672  22.256  15.661 -0.1988  0.1141 -0.0072
24787W        W67840  31.055  33.814  17.254 -0.0870 -0.3056 -0.2403
24788W        W67841   2.497  34.675  16.123  0.0912  0.0390 -0.0226
24789W        W67842  17.930  29.463  20.437 -0.0099  0.0767  0.4324
24790W        W67843  24.061  33.734  14.177 -0.0299  0.3652 -0.0168
24791W        W67844  26.729  26.685  16.074  0.1870  0.1219 -0.0903
24792W        W67845   9.938  25.944  14.350  0.0556 -0.0442 -0.0206
24793W        W67846  26.019   0.433   1.384 -0.1424 -0.1435  0.1722
24794W        W67847  17.900  23.282  25.767  0.4111 -0.1665  0.0608
24795W        W67848   3.062  28.709  17.843  0.5094  0.1771 -0.1359
24796W        W67849   3.413  24.902  16.265 -0.1056 -0.2050 -0.1630
24797W        W67850  22.094   4.431  16.478  0.1903 -0.0318 -0.1187
24798W        W67851  24.956  11.140  26.765 -0.1255  0.0859  0.1384
24799W        W67852  29.606  12.981   9.310  0.0940 -0.2823 -0.1437
24800W        W67853  20.513  25.368  27.871  0.2449  0.0567 -0.2848
24801W        W67854   9.640   7.427  17.268  0.0765 -0.1266  0.0562
24802W        W67855  20.084  11.197  16.947  0.0337  0.2922  0.2085
24803W        W67856  30.592  16.513  21.133 -0.0098 -0.2072 -0.0527
24804W        W67857  15.858  25.645  22.211 -0.3365 -0.0103  0.3255
24805W        W67858  24.325  30.756  21.757 -0.1905 -0.1409  0.0892
24806W        W67859  22.602  16.610  25.311 -0.1358  0.2193  0.3375
24807W        W67860  19.303  23.323  21.592 -0.0779 -0.2469  0.0454
24808W        W67861  32.693   6.146   8.718  0.2185  0.0216 -0.2534
24809W        W67862  31.759  24.669  28.964 -0.2352 -0.1251  0.1731
24810W        W67863  28.158  33.869  15.275  0.2097 -0.0082 -0.1990
24811W        W67864   2.151  17.521  27.817  0.2226 -0.0820 -0.3719
24812W        W67865  15.577  22.705  25.821 -0.1454 -0.1646  0.2202
24813W        W67866   1.384  34.057  16.155  0.0036 -0.1342  0.1024
24814W        W67867   2.319   2.750  15.387 -0.3119  0.1612 -0.1467
24815W        W67868  31.757  14.744  17.829  0.0607  0.0769 -0.2119
24816W        W67869  34.557  24.811   3.859  0.0761 -0.2853 -0.1872
24817W        W67870  13.536  24.859  15.459 -0.0071 -0.0031  0.1638
24818W        W67871   5.678   5.947  17.382 -0.1127  0.3067  0.2011
24819W        W67872  12.576  16.924  22.052  0.1306 -0.2517  0.0074
24820W        W67873  22.697  33.894  18.765 -0.3008 -0.1166  0.2126
24821W        W67874  24.525  26.183  19.309 -0.2447  0.0753  0.2348
24822W        W67875   9.715  27.224  16.912  0.1068 -0.0886 -0.2852
24823W        W67876  30.556  30.490  18.665 -0.0309  0.3384 -0.0680
24824W        W67877  32.107  34.207  16.269 -0.1607  0.0289 -0.0079
24825W        W67878  13.598  28.234  22.146  0.0515 -0.3676 -0.3060
24826W        W67879   8.372  24.323  27.134  0.1664  0.1933 -0.0991
24827W        W67880  30.806   2.069  19.244  0.1101 -0.0327 -0.1839
24828W        W67881  25.095  20.349  24.682  0.1430 -0.1450 -0.0890
24829W        W67882  15.662  23.228  23.702  0.1406  0.3772  0.0566
24830W        W67883  17.778  12.428   4.715  0.4302  0.0915 -0.1476
24831W        W67884  24.124  18.001  20.343 -0.1450  0.2307 -0.0091
24832W        W67885  25.325   2.106  16.340  0.0408 -0.0910  0.1058
24833W        W67886  31.055  15.046  19.217  0.3288 -0.2070  0.1419
24834W        W67887   8.860   1.559  21.937 -0.3107  0.0142 -0.0680
24835W        W67888  28.574  14.555  23.207  0.2856  0.2112 -0.0906
24836W        W67889  30.628   3.708   8.191 -0.0454  0.1459 -0.1486
24837W        W67890  30.360   0.428  19.293  0.0583  0.1328  0.0425
24838W        W67891  25.553   8.204  26.950 -0.2352 -0.0260 -0.2210
24839W        W67892  23.822  30.953  21.640  0.1583 -0.3041  0.1096
24840W        W67893  30.347   4.112  28.096 -0.2858  0.3654  0.1730
24841W        W67894  30.847  11.660  16.153  0.0774  0.1988  0.3226
24842W        W67895  22.719  18.499  22.225 -0.0349 -0.2692 -0.2157
24843W        W67896   6.759  34.526  19.848  0.4981 -0.1862  0.1020
24844W        W67897  20.875  13.396  26.515  0.3500 -0.2163  0.1773
24845W        W67898   7.156   5.339  25.705  0.2406  0.1394  0.1422
24846W        W67899  21.457   0.470  20.220  0.0888  0.2392  0.3880
24847W        W67900  25.649  27.684  26.343 -0.2805  0.0980 -0.1630
24848W        W67901  19.570   9.721  16.337  0.0078  0.0840  0.0663
24849W        W67902  21.306  24.436  20.748 -0.0972  0.1743  0.4506
24850W        W67903   0.601  26.220  25.288  0.1014  0.0898 -0.1140
24851W        W67904  29.745  22.996  17.524 -0.1419 -0.2245  0.1723
24852W        W67905   2.402  17.884  28.945 -0.1238 -0.2857  0.0041
24853W        W67906  25.117   1.294  20.828  0.0709 -0.4143 -0.1498
24854W        W67907  21.025  24.818   0.027  0.2050 -0.0008 -0.2079
24855W        W67908  33.020  18.106  21.725  0.1408 -0.1311 -0.1815
24856W        W67909  27.096  25.256   3.693 -0.1129 -0.0996  0.0485
24857W        W67910  29.178   7.328   2.485 -0.3058  0.1352 -0.3922
24858W        W67911  34.313  28.278  15.195  0.0807  0.0023  0.1211
24859W        W67912   0.204  33.966  26.609  0.1010 -0.0942 -0.2582
24860W        W67913  20.712  23.367  16.512 -0.1834  0.0104  0.1525
24861W        W67914  16.243   6.601  19.374  0.0529 -0.0397  0.0481
24862W        W67915  33.356  12.596  22.479 -0.2263  0.2051 -0.2752
24863W        W67916  29.793  12.780  19.186 -0.0581  0.1517 -0.2087
24864W        W67917  17.765  25.662  14.849  0.1448 -0.0336 -0.3089
24865W        W67918  33.821  19.247  20.374 -0.0476  0.0820 -0.2853
24866W        W67919  26.710  25.427  27.402  0.1332 -0.2807 -0.1525
24867W        W67920   9.081  10.005  29.166  0.0514  0.1999 -0.1415
24868W        W67921  30.019  26.541  26.605 -0.3180  0.1258 -0.2426
24869W        W67922  20.602   7.667  17.564 -0.0685  0.0723 -0.0301
24870W        W67923   0.833  24.975   7.726 -0.0382  0.3917 -0.0654
24871W        W67924   0.922  16.347  14.994 -0.0329 -0.2163 -0.3438
24872W        W67925  28.184  18.795  25.455 -0.4752 -0.2482  0.0426
24873W        W67926  13.974  23.420  18.707  0.2068 -0.1613 -0.0131
24874W        W67927  18.857   5.064  14.902  0.0424  0.1760  0.4083
24875W        W67928  27.600  27.317  18.068 -0.1859 -0.3630 -0.2238
24876W        W67929  16.533  22.922  10.570 -0.0638  0.1492  0.0516
24877W        W67930   8.291  25.964  19.853 -0.2120 -0.0488 -0.3218
24878W        W67931  19.243   4.627   8.463 -0.0150 -0.0762 -0.0007
24879W        W67932  30.367  32.281  18.692  0.0991  0.1104 -0.1671
24880W        W67933   1.833   8.667   6.146 -0.3877  0.2532 -0.0808
24881W        W67934  18.061  22.840   0.522  0.0874  0.1157 -0.2341
24882W        W67935  28.394  19.496  23.267 -0.0625 -0.2430 -0.1456
24883W        W67936  10.363  22.015   5.860 -0.0367 -0.1556  0.1803
24884W        W67937   3.781  28.755  25.404 -0.0856 -0.2709  0.1441
24885W        W67938  20.883  14.218  19.668  0.1922  0.2863  0.0776
24886W        W67939  29.427  11.710  27.901  0.4926 -0.0391 -0.3175
24887W        W67940  28.628   2.808  19.047 -0.1444  0.0330  0.1991
24888W        W67941   4.390  28.475  19.684 -0.2297 -0.3422 -0.3563
24889W        W67942  25.241  21.613   3.635  0.1586  0.0413  0.0302
24890W        W67943  12.044  13.997  19.811  0.3351 -0.0082  0.2657
24891W        W67944   1.547  27.094  26.052  0.1356  0.1380  0.2646
24892W        W67945   4.514  17.241   1.882  0.1280  0.2554 -0.3789
24893W        W67946  30.522   8.712  20.103 -0.0595 -0.2000  0.1407
24894W        W67947  13.486  29.381  22.081  0.1730 -0.3075 -0.0568
24895W        W67948  33.755   1.630   1.723  0.0757 -0.3390 -0.0555
24896W        W67949  25.631  21.382  28.712  0.2903 -0.0955  0.2111
24897W        W67950  20.262  16.277  15.048 -0.2437  0.3202  0.4835
24898W        W67951  27.589  13.206  19.301 -0.1221 -0.0952 -0.1543
24899W        W67952   2.009  25.508   1.887 -0.1721 -0.3182  0.0703
24900W        W67953   5.314   2.135  20.087 -0.4433 -0.0575 -0.2995
24901W        W67954  12.197  31.049   9.600 -0.4792  0.0861 -0.0371
24902W        W67955   5.395  20.826  26.877  0.0880  0.0365  0.1326
24903W        W67956  28.489  24.623  25.467 -0.0342  0.0991 -0.1823
24904W        W67957  17.079   9.809  15.667  0.1409  0.1584  0.2608
24905W        W67958  26.727  29.320  26.573  0.2799  0.0869  0.1206
24906W        W67959  22.775  33.448  22.945  0.3232 -0.1622 -0.0213
24907W        W67960  28.837  23.927  20.737  0.0353 -0.0162 -0.1931
24908W        W67961  34.052  28.307  21.769 -0.1089 -0.2322 -0.3664
24909W        W67962  20.300  27.327  26.166 -0.2715 -0.0551  0.0444
24910W        W67963  33.217  28.360  22.047  0.1590 -0.0802 -0.0449
24911W        W67964  18.495  34.423  15.698  0.0758 -0.3629 -0.4534
24912W        W67965  20.632  18.650  27.979 -0.0317 -0.2139 -0.1503
24913W        W67966   3.512  21.502  15.891 -0.0175 -0.0689 -0.3242
24914W        W67967  14.251  28.052  17.683  0.1111 -0.0503 -0.0430
24915W        W67968   6.437  21.272  14.677 -0.0939  0.0080  0.0955
24916W        W67969  22.568  29.939  24.967  0.2892  0.0654  0.1433
24917W        W67970  31.966   2.602  17.306  0.2650 -0.1103 -0.0880
24918W        W67971   0.836  27.236   1.955 -0.0063  0.0889  0.2849
24919W        W67972  24.198  21.255  15.561 -0.0841 -0.0625  0.0325
24920W        W67973  28.352  25.905  20.119 -0.1943 -0.2608  0.0548
24921W        W67974  23.820  16.399  24.913  0.0801 -0.0897  0.4697
24922W        W67975  32.232  26.100  19.299  0.1860 -0.1550 -0.0291
24923W        W67976  22.038  33.381  16.368  0.0786  0.1645 -0.1100
24924W        W67977  32.751  12.003  15.861  0.1353 -0.2849 -0.0703
24925W        W67978  31.552  28.159  20.895  0.3409 -0.0981  0.2895
24926W        W67979  31.644  17.300  17.737 -0.0102  0.1330  0.0066
24927W        W67980  29.395  23.464  15.085 -0.2144  0.0942  0.2120
24928W        W67981  16.108  22.523  15.293 -0.1202  0.1710 -0.3165
24929W        W67982  25.041  28.241  24.121 -0.0577  0.0607 -0.0063
24930W        W67983  25.455  16.939   7.326  0.1386 -0.0755  0.3861
24931W        W67984  25.929   9.216  20.047 -0.1796  0.0543  0.1994
24932W        W67985   0.083   2.477  18.173  0.3200  0.0217  0.1387
24933W        W67986  27.104  10.531  20.875 -0.3440 -0.0256 -0.1646
24934W        W67987  26.251   0.886  18.336 -0.0399 -0.0261  0.3504
24935W        W67988  29.068  34.301  28.883 -0.1030  0.1162  0.0866
24936W        W67989   0.229  19.123  16.159 -0.0258  0.3776 -0.0623
24937W        W67990   6.503  33.026  17.156 -0.3222 -0.1835  0.0634
24938W        W67991   0.497  33.644   2.972 -0.0344  0.0842  0.3123
24939W        W67992  21.059  24.880   2.819 -0.0381 -0.0418  0.0205
24940W        W67993   8.726  16.717  15.948 -0.1721 -0.3116 -0.3399
24941W        W67994  32.944  13.814  22.858 -0.2157 -0.4206  0.0224
24942W        W67995  16.500  11.138  23.090 -0.1526 -0.2063 -0.2907
24943W        W67996   4.615  30.838  13.564  0.1812  0.2430  0.0848
24944W        W67997  28.922  25.283  20.795  0.1769 -0.0581  0.0367
24945W        W67998  13.001   6.693   0.834 -0.3110  0.1838 -0.1214
24946W        W67999  10.059  32.370  18.851  0.0819 -0.1686  0.0436
24947W        W68000  10.858  12.693   3.993  0.1142 -0.2512  0.0529
24948W        W68001   6.982   3.331  20.071  0.3712  0.0641 -0.1192
24949W        W68002   0.583   2.729  16.169  0.0061 -0.2387  0.4607
24950W        W68003  33.493  23.423  15.246  0.4974  0.0663  0.1806
24951W        W68004   2.368  28.475  21.691 -0.1052 -0.0060  0.0823
24952W        W68005  14.810   8.107  21.502  0.1621 -0.1386  0.1222
24953W        W68006  28.050  26.009  23.888  0.2485  0.2954 -0.1337
24954W        W68007  24.366   0.165   0.306  0.0317  0.2165 -0.0221
24955W        W68008  30.965  31.536  25.574 -0.1093 -0.2131 -0.0547
24956W        W68009  17.027  28.360  21.955 -0.0446  0.2123  0.2244
24957W        W68010  27.735   7.609  22.584  0.1911  0.1299  0.0075
24958W        W68011  32.219  23.299  17.947  0.0054  0.2715  0.0525
24959W        W68012   1.165  23.779  21.503 -0.0399 -0.1772 -0.3691
24960W        W68013   8.101  24.782  24.350 -0.1625 -0.1064  0.2849
24961W        W68014  15.698  22.898  22.375 -0.2137  0.4516 -0.0489
24962W        W68015  30.653  29.698  20.619 -0.2669  0.0449  0.0114
24963W        W68016  20.851  22.172  23.222  0.0639  0.2817 -0.1429
24964W        W68017   3.121  26.179  24.290  0.0553  0.2681  0.0410
24965W        W68018  31.447  14.983  16.504  0.0252 -0.3606 -0.0070
24966W        W68019  28.228  17.830  15.502 -0.1299 -0.0561 -0.1876
24967W        W68020  27.194  34.078  14.397 -0.0428 -0.1701 -0.1418
24968W        W68021  19.543  26.509  20.938  0.1374 -0.2693 -0.1455
24969W        W68022  19.407  22.599  17.870 -0.2241  0.0144  0.0161
24970W        W68023  24.411  30.516  17.387  0.0862 -0.0884  0.0540
24971W        W68024  26.709  10.140  21.581 -0.1485  0.2863 -0.0647
24972W        W68025  17.631  29.929  18.332  0.1647 -0.0469 -0.0473
24973W        W68026  23.230  24.937   0.444 -0.2522 -0.0201 -0.0328
24974W        W68027   3.110  28.583  14.361 -0.0884  0.2560  0.1119
24975W        W68028  30.181  25.231  14.955 -0.1606  0.2659  0.0345
24976W        W68029  32.085   2.250   0.322  0.0912 -0.2783  0.1149
24977W        W68030  31.145  22.800  14.401 -0.1118  0.1733 -0.0000
24978W        W68031  11.592  19.201  19.415  0.1294 -0.1026 -0.1364
24979W        W68032  24.927   9.874  14.502  0.1041  0.0808 -0.1440
24980W        W68033  26.152   6.253  14.792  0.1474 -0.0028 -0.1930
24981W        W68034  29.200   2.098  17.748 -0.2990 -0.0550  0.0226
24982W        W68035   9.380  19.791   0.962 -0.1923 -0.1512  0.2888
24983W        W68036  27.141  16.515  28.071 -0.1261 -0.2138  0.0661
24984W        W68037  11.437  15.268  19.940 -0.0854  0.1767  0.0139
24985W        W68038  19.195  33.084  23.647  0.1061 -0.1891  0.0558
24986W        W68039  18.890  27.570  26.768 -0.0968  0.1552 -0.0886
24987W        W68040  14.376  14.035  14.557 -0.0854 -0.0421  0.0401
24988W        W68041   4.260  24.338  15.958 -0.0031  0.0235 -0.0236
24989W        W68042  33.893   8.800  25.477  0.0424 -0.0682 -0.0354
24990W        W68043  26.224  11.926  15.712  0.2736 -0.0796  0.0472
24991W        W68044  27.901   9.362  17.421 -0.1334  0.3099 -0.3374
24992W        W68045  29.761  21.804  15.022 -0.1053 -0.1287  0.1528
24993W        W68046  21.135  32.463  21.129  0.3563  0.2716  0.1041
24994W        W68047  15.978  22.106  23.541  0.1102 -0.3020  0.0358
24995W        W68048  26.875  30.742  22.491  0.0904  0.3107  0.3924
24996W        W68049  33.318  15.630  22.574  0.3707  0.0017 -0.1929
24997W        W68050  19.140  27.496  23.901 -0.1614 -0.1803 -0.0502
24998W        W68051  26.532  24.469   1.376  0.0014  0.1491  0.0305
24999W        W68052  32.869  12.246  26.253 -0.0244 -0.1660  0.0150
25000W        W68053  22.169  10.226  28.354  0.4087  0.3372 -0.1538
25001W        W68054  21.221  14.240  22.132 -0.4255 -0.0157 -0.0825
25002W        W68055   4.231  29.004  16.229 -0.3210  0.1724  0.2381
25003W        W68056  25.499  15.740  20.226 -0.0335 -0.3100  0.5230
25004W        W68057   1.254  27.900   5.268 -0.0872  0.2736 -0.2373
25005W        W68058   5.646  26.912  23.953  0.0411  0.0889 -0.0099
25006W        W68059  21.144  32.988  18.880  0.2780 -0.0214 -0.2752
25007W        W68060   4.784  22.664  28.569  0.1174  0.1122 -0.2267
25008W        W68061  14.835   0.533  15.396  0.0920  0.0882 -0.1382
25009W        W68062   4.713  20.394  15.037 -0.0850 -0.1015  0.0377
25010W        W68063  30.856  18.695  14.602  0.2308  0.1884  0.0037
25011W        W68064   4.128  32.631  17.898  0.1627 -0.1139 -0.4024
25012W        W68065   0.958  33.219  19.180 -0.1026  0.0420 -0.3787
25013W        W68066  28.028  16.257  17.694  0.1693 -0.3084 -0.0919
25014W        W68067  28.594  20.249   1.188 -0.0874  0.2255  0.0510
25015W        W68068   9.991   5.052   9.688 -0.2492  0.0848 -0.3615
25016W        W68069  20.225   0.844  20.230  0.0008 -0.3349  0.4883
25017W        W68070  30.760   7.218  14.456  0.0769  0.1699 -0.1093
25018W        W68071  10.630  30.160  14.788  0.1957 -0.2625  0.4004
25019W        W68072   7.530  32.953  18.506 -0.0181  0.2107  0.1351
25020W        W68073  27.661  16.668   8.359 -0.1054 -0.1089  0.2627
25021W        W68074   2.365  21.237   1.880 -0.3451  0.1724  0.2090
25022W        W68075  32.133   4.448   1.026  0.0099  0.1375  0.0248
25023W        W68076   1.839  22.428   2.908 -0.0322  0.0419  0.4596
25024W        W68077   5.697  33.393  21.521  0.2777  0.1455  0.1922
25025W        W68078  28.036  18.263  18.004  0.0664  0.4086 -0.0597
25026W        W68079  32.256   9.233  15.592  0.0993 -0.1190 -0.3975
25027W        W68080  26.326  16.906   1.314  0.0590 -0.1914 -0.2660
25028W        W68081  19.572  16.337  21.148 -0.0585 -0.2254  0.1510
25029W        W68082   8.058  32.502  17.788  0.2578  0.0245  0.0918
25030W        W68083  32.588  26.674   6.921 -0.0448  0.0197  0.2109
25031W        W68084  19.553  28.751  24.097  0.1626 -0.0228 -0.0681
25032W        W68085  16.474   0.008   9.813  0.3018  0.1467 -0.0259
25033W        W68086  21.028  25.288  16.761 -0.3795 -0.1014 -0.1595
25034W        W68087  12.304  25.689  27.209  0.2510 -0.1251  0.1365
25035W        W68088   0.986   3.573  16.086 -0.0775 -0.0811  0.0538
25036W        W68089  30.527  31.391  19.794  0.1388 -0.2016  0.1402
25037W        W68090  27.106   4.386   2.116 -0.1032 -0.1212 -0.0590
25038W        W68091  25.755   8.710  24.516 -0.1346 -0.1755 -0.0597
25039W        W68092   2.336  16.107  14.565 -0.0965 -0.0929  0.5344
25040W        W68093  31.219  31.455  20.567 -0.0377 -0.3704  0.3893
25041W        W68094  27.324  12.184   0.716  0.2637  0.0009  0.1785
25042W        W68095   8.042  32.716  20.220  0.1360 -0.1059  0.5287
25043W        W68096  29.265  26.047  15.708 -0.0467 -0.2376  0.1788
25044W        W68097  18.150  19.170  23.686  0.2699  0.0460  0.0110
25045W        W68098   0.131  33.841   1.260 -0.0384 -0.0017  0.0957
25046W        W68099  32.728  22.589   9.110  0.0575 -0.3834  0.1165
25047W        W68100  21.561  13.334  16.061 -0.1808 -0.2260  0.1417
25048W        W68101   9.615  28.795  28.018  0.1008 -0.0261 -0.1236
25049W        W68102   0.751  31.165   4.673 -0.1288  0.5327 -0.0214
25050W        W68103  10.479  25.608  27.912 -0.0659  0.3976 -0.1202
25051W        W68104   7.802  24.121  18.783  0.2044 -0.4502 -0.0650
25052W        W68105  29.634   9.561  21.511  0.2573  0.2261 -0.0444
25053W        W68106  29.579  30.491  27.303 -0.2885  0.2806  0.0253
25054W        W68107  25.438  23.023  19.308 -0.2912 -0.0247  0.1909
25055W        W68108   2.849  21.616  13.555  0.2377 -0.5164 -0.1750
25056W        W68109   6.060   9.223  25.597  0.3596 -0.0184 -0.0874
25057W        W68110  26.899  22.561  15.928  0.2366  0.1166 -0.1421
25058W        W68111  13.315   8.090  17.503  0.0105  0.1283  0.0495
25059W        W68112  19.207  31.978   6.458  0.1381  0.3107  0.0030
25060W        W68113  27.890   6.351  23.354 -0.0671  0.0082 -0.1033
25061W        W68114  12.344  18.585  22.620 -0.0643  0.3331  0.1224
25062W        W68115  22.812  10.824  18.269 -0.0868  0.2029  0.1485
25063W        W68116  27.096  27.179  14.922 -0.0074  0.0029  0.1907
25064W        W68117  30.771  25.089  22.994  0.2205  0.3026 -0.0989
25065W        W68118   5.720   1.240  20.401 -0.0262 -0.2323  0.0244
25066W        W68119  15.607  25.675   0.428  0.0501 -0.0493  0.0770
25067W        W68120  25.503  27.302  16.387  0.1236  0.1689 -0.0696
25068W        W68121  21.249  28.492  22.861  0.0828  0.0829 -0.1304
25069W        W68122  32.234  26.320  14.058  0.4708 -0.0536  0.3564
25070W        W68123  31.792  13.352   6.542  0.1082 -0.1518 -0.0001
25071W        W68124  25.236  24.688  16.883  0.4522 -0.2500 -0.0672
25072W        W68125   3.265   1.163   0.713 -0.2386  0.0952 -0.1890
25073W        W68126  26.764  31.846   1.563  0.1994 -0.2573  0.0764
25074W        W68127  32.936  25.142  15.602 -0.2452 -0.0958 -0.3467
25075W        W68128  27.070  19.779  20.840  0.0640  0.1840 -0.1067
25076W        W68129  11.715  25.622   9.008  0.1669 -0.0287 -0.0441
25077W        W68130  33.291  32.244  22.306  0.0258  0.1910  0.0096
25078W        W68131  32.914  26.567  23.655  0.1802 -0.0296 -0.3197
25079W        W68132  30.919  15.220  19.788 -0.3909 -0.2004  0.1287
25080W        W68133  18.884  22.668  29.088 -0.4283  0.0410  0.1027
25081W        W68134  26.020  21.221  27.765 -0.1884  0.2616 -0.2859
25082W        W68135   0.074   6.826  21.307  0.0169 -0.2979 -0.3096
25083W        W68136  11.396  17.686   6.028 -0.0587  0.0177 -0.2584
25084W        W68137  24.684  28.776  21.009  0.2066  0.0228  0.1062
25085W        W68138   1.631  13.902  26.819  0.2171 -0.1347  0.0240
25086W        W68139  30.920  19.797  16.645 -0.1150 -0.2505 -0.0430
25087W        W68140   5.807  21.101  26.692  0.0056  0.3175 -0.2858
25088W        W68141   1.784  27.095  14.464 -0.0418  0.0648 -0.2739
25089W        W68142  24.073  28.133   3.187 -0.0885  0.0368 -0.1735
25090W        W68143  24.329   8.281  19.268  0.1402 -0.0169 -0.2074
25091W        W68144   3.830   3.056   4.306  0.0230  0.0173  0.0042
25092W        W68145  32.291  27.143  14.744  0.2114 -0.0771 -0.1366
25093W        W68146   7.701  26.040   1.159  0.1484  0.0035 -0.2403
25094W        W68147  27.397  22.776  28.916  0.0187 -0.3897  0.3370
25095W        W68148   6.416   6.955  16.953  0.0058  0.5549 -0.1154
25096W        W68149  33.111  34.022  28.380 -0.1093 -0.0734 -0.0282
25097W        W68150   0.118  33.045  28.655  0.0290 -0.1444 -0.1487
25098W        W68151  20.614  22.156   0.610 -0.2518 -0.1834  0.1770
25099W        W68152   6.278  16.603  16.225  0.1090 -0.2358 -0.1408
25100W        W68153  24.252  14.754  19.667 -0.2193  0.1650 -0.0726
25101W        W68154   4.196  11.880   3.219  0.0633 -0.4280  0.0069
25102W        W68155  26.423  23.333  17.527  0.3417 -0.0172  0.0471
25103W        W68156  19.753   8.482  16.063 -0.1118  0.0111 -0.0478
25104W        W68157  20.377  32.006   2.369 -0.2090  0.0452 -0.2451
25105W        W68158  33.874   3.919  22.894 -0.3264 -0.1997 -0.0954
25106W        W68159  11.650  26.169  28.490  0.0945  0.1818  0.2172
25107W        W68160  33.223  16.981  21.765 -0.1918  0.0307  0.0349
25108W        W68161  31.067  19.500  26.438  0.0523  0.0330 -0.2101
25109W        W68162  32.728   7.463  24.668  0.2644  0.2336 -0.0888
25110W        W68163  29.497  22.110  14.693  0.0066  0.2658 -0.0057
25111W        W68164   5.624  18.826   4.633  0.0077  0.2015 -0.2615
25112W        W68165  12.363  32.380  19.683 -0.0675  0.1982  0.1899
25113W        W68166  16.022  21.697  15.021  0.0341 -0.1529 -0.0056
25114W        W68167   4.569   9.695  24.101  0.0042  0.0218 -0.1921
25115W        W68168   8.000  20.304  26.781  0.3023  0.2175 -0.0702
25116W        W68169  14.979  19.721  15.075  0.1579 -0.2766 -0.1203
25117W        W68170  12.145  17.152  21.629  0.2086  0.2633 -0.0832
25118W        W68171  31.216   8.005   1.476  0.0571 -0.0636 -0.1056
25119W        W68172  32.275   4.517  24.637 -0.0992 -0.2299 -0.3881
25120W        W68173  23.419  18.796  14.806  0.0830  0.0754 -0.0956
25121W        W68174  32.048   8.801   2.842  0.0350 -0.0762  0.0864
25122W        W68175  30.947  22.020   5.558 -0.2579 -0.4504  0.3088
25123W        W68176  14.262  29.145  21.916 -0.0253 -0.2307 -0.2381
25124W        W68177  32.932  24.428  16.047 -0.1481 -0.1051  0.0864
25125W        W68178  32.197  22.836  15.022  0.0993 -0.0500 -0.1600
25126W        W68179  22.491  18.289  25.956 -0.1820  0.1391 -0.3515
25127W        W68180  12.935  11.349   1.626 -0.0143 -0.0874 -0.1617
25128W        W68181   3.352  22.550  18.870  0.1392 -0.1022  0.2337
25129W        W68182  30.565  26.790  26.841  0.2965  0.0255  0.0916
25130W        W68183  28.765  26.283  21.154 -0.1791 -0.0060  0.1674
25131W        W68184  20.585   8.968  24.443  0.0461  0.1208  0.0002
25132W        W68185  20.707  23.646  28.605 -0.1846  0.2201  0.0029
25133W        W68186  31.837   2.609  16.767 -0.2749 -0.2314  0.1931
25134W        W68187  17.456  10.342  21.116 -0.2105 -0.0689 -0.2855
25135W        W68188  11.888  31.737  21.480 -0.0032  0.0297 -0.4151
25136W        W68189   8.954   6.740   6.337 -0.1869  0.2789  0.1454
25137W        W68190   1.844  30.233   7.515 -0.0994  0.4225 -0.1416
25138W        W68191  30.561  31.900  23.923  0.2289 -0.2242  0.1762
25139W        W68192  18.431  25.247  26.586 -0.2239  0.1203 -0.0562
25140W        W68193  19.617  12.558  22.644 -0.1272 -0.2137  0.0478
25141W        W68194   0.768  26.835   1.087  0.0563 -0.1381  0.2605
25142W        W68195  20.996  26.119  17.100 -0.0167  0.0701 -0.0757
25143W        W68196  32.684   0.671  20.894  0.2275  0.1464 -0.0604
25144W        W68197   9.051  21.455  28.826 -0.3411  0.2148  0.1326
25145W        W68198  21.979  19.144  24.464  0.4361 -0.4331  0.2259
25146W        W68199  16.840  14.849  15.865  0.1227 -0.3857  0.0444
25147W        W68200  25.914  12.173   7.442 -0.1200  0.1643  0.1487
25148W        W68201  20.190  19.849   6.774 -0.2908 -0.0226 -0.1139
25149W        W68202  14.797  19.052  16.364 -0.1470 -0.1452 -0.0736
25150W        W68203  33.950  26.831  17.829  0.0044  0.0233  0.0967
25151W        W68204  11.029  26.976  27.068  0.0033  0.0091  0.1618
25152W        W68205  14.747  12.869  18.640 -0.1295 -0.1993 -0.2343
25153W        W68206  22.767  26.040  14.846 -0.0882  0.0512  0.1233
25154W        W68207   3.222   7.489  14.247 -0.1532  0.0624 -0.0772
25155W        W68208   0.019   6.017  25.057  0.2144 -0.1448  0.0882
25156W        W68209  26.683  28.394  27.114  0.0938 -0.0775  0.1740
25157W        W68210  27.438  19.468  14.026  0.0150 -0.1109  0.1257
25158W        W68211   8.490  33.804   1.859  0.1833  0.0445 -0.0220
25159W        W68212  27.798  27.687  29.110 -0.0249  0.2501 -0.1146
25160W        W68213  23.965  26.120  26.892 -0.2101  0.0440 -0.0921
25161W        W68214  19.292   9.836  24.413  0.0572 -0.1051 -0.1201
25162W        W68215  18.369  32.570  23.621 -0.0842  0.1390  0.0469
25163W        W68216  27.953  31.169   2.490 -0.2374 -0.0959 -0.2576
25164W        W68217  32.067   1.796   5.526 -0.0543 -0.1830 -0.1410
25165W        W68218  32.085  26.469  28.070 -0.4977  0.1683 -0.1599
25166W        W68219   9.881  23.104  28.118 -0.1433 -0.0129 -0.0200
25167W        W68220  20.062  24.976  16.933  0.0300 -0.1685 -0.0837
25168W        W68221  15.313   7.205  25.031 -0.1743  0.2447 -0.1314
25169W        W68222  31.019  21.037   8.496 -0.0336  0.0851 -0.2472
25170W        W68223  22.985  24.088  21.386 -0.0747  0.2495 -0.1820
25171W        W68224  26.859  29.102  18.075 -0.0395  0.0111  0.2384
25172W        W68225  28.523  15.734  26.462  0.1019 -0.1324  0.1746
25173W        W68226   6.441  24.864  28.386 -0.0097  0.1555 -0.0769
25174W        W68227  24.051   2.199  17.846 -0.2040  0.1995 -0.2529
25175W        W68228  26.256  22.008  23.433 -0.0959 -0.0746 -0.1851
25176W        W68229   2.471  30.358  20.572  0.4764  0.1126  0.1422
25177W        W68230  29.718   4.115   2.830 -0.3379  0.1387 -0.4153
25178W        W68231  24.010  13.374  14.848  0.1310 -0.0115  0.0067
25179W        W68232  34.271   0.302  17.867 -0.1718  0.2576 -0.3186
25180W        W68233   0.630   3.181  15.982  0.2055 -0.0001  0.1474
25181W        W68234  33.994  29.537  18.278  0.0185 -0.1722 -0.0714
25182W        W68235   5.313   4.856  10.398  0.1789 -0.1500 -0.2198
25183W        W68236  10.372  24.242   4.774  0.2830  0.0371  0.1223
25184W        W68237  33.192  24.386  17.875 -0.0704  0.0222 -0.1739
25185W        W68238  34.601  21.074  20.533  0.0383  0.0299 -0.0609
25186W        W68239  34.602  19.767  16.105 -0.0647  0.0527 -0.1100
25187W        W68240  13.894  21.922  16.198 -0.0856  0.1675  0.2643
25188W        W68241  20.864  28.743  18.939 -0.2472 -0.0869 -0.1422
25189W        W68242  26.610  28.607  16.451 -0.0013  0.2114  0.1172
25190W        W68243  24.315   5.796  18.821 -0.1123  0.0740 -0.0897
25191W        W68244  29.542  30.856   0.277 -0.1495 -0.0953  0.1308
25192W        W68245  32.541  24.023  29.142  0.1125  0.2959 -0.3325
25193W        W68246  26.359  26.201  20.736 -0.1463 -0.3473  0.0939
25194W        W68247  16.515  24.358  16.208 -0.2044  0.1168  0.2622
25195W        W68248  34.455  19.116  21.102  0.0829  0.4991 -0.1783
25196W        W68249  14.692  23.936  15.498 -0.2774 -0.1865 -0.0296
25197W        W68250  26.341   3.456  23.196  0.3438  0.3318 -0.0314
25198W        W68251  24.402  26.533  22.918 -0.1441  0.2923 -0.3476
25199W        W68252   5.468   7.602   3.386  0.0216  0.0213  0.3088
25200W        W68253  30.600  30.581   9.256 -0.1972 -0.0712  0.1376
25201W        W68254  28.923  17.549   0.061 -0.1480 -0.0667 -0.1882
25202W        W68255   3.559  13.688  23.188  0.3060  0.3868 -0.0706
25203W        W68256  25.559  14.668  25.433 -0.0030  0.0757 -0.0014
25204W        W68257  25.077  31.016   1.715  0.1627 -0.1103  0.2306
25205W        W68258   5.400  26.386  22.372  0.0499  0.3127 -0.0499
25206W        W68259  29.773   2.320  16.477  0.2313  0.2322  0.2603
25207W        W68260   5.334  34.334  14.691 -0.0047  0.0709 -0.2266
25208W        W68261   6.820  26.584  17.524  0.0103  0.0501 -0.0362
25209W        W68262  28.960   4.816   3.864  0.0924  0.4165 -0.1111
25210W        W68263  33.149  12.492  27.723  0.1504 -0.0829 -0.3909
25211W        W68264   6.256  27.403   1.291 -0.4657 -0.0404 -0.0718
25212W        W68265   3.345   0.931  28.580 -0.0305  0.0667  0.1172
25213W        W68266  25.921  11.185  15.964  0.0067  0.1633 -0.0554
25214W        W68267  25.422  29.695  17.291  0.0914  0.3624 -0.0556
25215W        W68268  18.987   2.643  23.712 -0.0226  0.2159  0.1054
25216W        W68269  27.125  22.236  20.665 -0.2994 -0.0277  0.2298
25217W        W68270  22.411  27.755   4.569  0.0332 -0.2682  0.2091
25218W        W68271  21.598  18.111  27.425  0.0408 -0.0401  0.0249
25219W        W68272  29.009  27.589  15.989 -0.3282 -0.2785  0.1020
25220W        W68273  15.004   8.805  25.512  0.1482 -0.0313  0.1809
25221W        W68274  30.336  19.539   5.916 -0.0786  0.2356  0.2146
25222W        W68275  28.376   1.237   6.387  0.1606  0.0638  0.0716
25223W        W68276  27.307  28.237  27.563  0.1269 -0.2773 -0.0581
25224W        W68277  24.161   0.396  20.105  0.2678 -0.2287 -0.1674
25225W        W68278  11.514   1.537   4.867 -0.4205 -0.0853 -0.2239
25226W        W68279   3.073  16.622  21.638  0.0891  0.0697  0.0429
25227W        W68280  32.582  26.834  21.168  0.0598 -0.2897 -0.0185
25228W        W68281   1.893  26.932  24.665 -0.2254 -0.1868  0.0530
25229W        W68282   9.696  16.095  29.168  0.2224 -0.2314  0.2169
25230W        W68283  26.599  26.009  10.352 -0.2388  0.1254 -0.0888
25231W        W68284  28.022  23.426  21.111 -0.1471  0.2994  0.0874
25232W        W68285  15.791  27.521  23.401  0.1668 -0.1916  0.0087
25233W        W68286   3.843  16.657  28.602 -0.2344 -0.0580 -0.3170
25234W        W68287   5.920  23.909  20.561 -0.0064  0.0478  0.4272
25235W        W68288   2.020  12.311   3.061 -0.1102 -0.0276 -0.0024
25236W        W68289   4.013  26.919   6.019  0.1169 -0.1170  0.1617
25237W        W68290  10.306  12.373  10.906 -0.0879  0.0598 -0.0664
25238W        W68291   5.931  25.030  26.548  0.2667 -0.4694 -0.0609
25239W        W68292  26.761  23.714  27.871 -0.0332  0.1196 -0.2788
25240W        W68293  29.329  24.693  18.071 -0.1213  0.0214 -0.1633
25241W        W68294  34.279  21.957  19.786  0.0387  0.3453 -0.3619
25242W        W68295  34.463  29.934  16.097 -0.1826 -0.1739  0.2142
25243W        W68296   6.088  34.390  15.347  0.1698 -0.2435 -0.2897
25244W        W68297  29.578   2.126  16.054  0.0805 -0.1535  0.2249
25245W        W68298  30.237  30.833  16.305  0.0915 -0.0619 -0.2175
25246W        W68299  27.234  27.071   6.171 -0.2068  0.3712  0.0204
25247W        W68300  16.199  15.389   8.692 -0.0369  0.1008  0.0325
25248W        W68301   5.236  15.653  28.182 -0.0015  0.1064  0.0874
25249W        W68302   3.242  17.492  21.303  0.0753  0.0061  0.0531
25250W        W68303  21.710  27.046  16.427  0.1677 -0.3455  0.1454
25251W        W68304   3.056  12.359  20.391  0.2857  0.2274 -0.0534
25252W        W68305  14.766  23.148  22.258  0.2648 -0.1821 -0.2499
25253W        W68306   5.536   6.097  15.415  0.0182 -0.0615  0.2458
25254W        W68307  32.380  25.371  19.107 -0.3534  0.1950 -0.0351
25255W        W68308   1.679  29.434  18.328 -0.3251 -0.2231 -0.0662
25256W        W68309  25.074  11.139  29.154 -0.1126  0.2429 -0.1356
25257W        W68310   2.938  25.503  25.809 -0.0861 -0.1229  0.0886
25258W        W68311  19.824  25.261  21.495 -0.2321  0.0693  0.0758
25259W        W68312   5.094  20.717  14.544 -0.0126 -0.0322 -0.1298
25260W        W68313  26.374  26.008  17.583  0.1356  0.1498  0.0624
25261W        W68314  10.866  30.595  14.451  0.3273 -0.3187  0.0392
25262W        W68315  23.066  22.216  14.573  0.4058 -0.0503  0.0906
25263W        W68316   4.170  25.353  25.906 -0.0876  0.0487 -0.1608
25264W        W68317  25.618  31.641  22.193  0.1957  0.4331  0.3210
25265W        W68318   1.655  29.099  17.949  0.0476 -0.2364 -0.3668
25266W        W68319  20.684  11.307   8.980  0.3734 -0.0258  0.2871
25267W        W68320  22.632  24.971  22.928 -0.2060  0.1072  0.1272
25268W        W68321   1.504  21.625  22.206  0.0869  0.1006 -0.4517
25269W        W68322  20.762   6.234  26.308  0.0840 -0.1112  0.0855
25270W        W68323  32.292  25.021   9.166  0.0333 -0.1803  0.0185
25271W        W68324   7.808  12.845  18.356  0.5635 -0.0252 -0.0417
25272W        W68325  22.975  28.245  15.149 -0.2027  0.1038  0.1334
25273W        W68326  28.322  25.155  15.094 -0.0407 -0.3758  0.1380
25274W        W68327  30.936   3.240  13.958  0.3337  0.1000  0.0135
25275W        W68328  23.637  24.896  23.570 -0.0422 -0.2128  0.1993
25276W        W68329   1.592  11.011  18.588 -0.0661  0.0083 -0.0492
25277W        W68330   4.935  11.768  18.457 -0.2592  0.0552  0.0219
25278W        W68331  28.437   5.158  20.159  0.0487 -0.0304  0.2557
25279W        W68332  29.896   5.226   2.421 -0.2552  0.0178 -0.1763
25280W        W68333   1.257  20.472  16.004  0.0423 -0.0729 -0.1799
25281W        W68334   0.353  29.541   2.732 -0.0413 -0.0139 -0.0133
25282W        W68335  20.618  16.373  23.637 -0.0254  0.0537 -0.1233
25283W        W68336   3.636  15.943  19.688  0.0241  0.0735 -0.0540
25284W        W68337  33.956   5.308   1.789  0.0955 -0.1518 -0.2374
25285W        W68338  27.805   8.873   1.375 -0.0732 -0.1228  0.1422
25286W        W68339  26.850  13.960   0.246  0.0582 -0.3092 -0.1748
25287W        W68340  34.138  32.015  15.515  0.0325 -0.0038  0.0691
25288W        W68341   2.382  23.695  22.151  0.0643 -0.1315  0.4280
25289W        W68342  19.271  30.403   9.509 -0.0130 -0.1207 -0.0858
25290W        W68343   5.679  25.450  16.799 -0.3441  0.0124 -0.2677
25291W        W68344   1.809  12.984  18.550  0.1229  0.1620 -0.0178
25292W        W68345  16.097  23.638  18.591  0.0633 -0.0339 -0.0783
25293W        W68346  13.330  21.856   2.272 -0.1050 -0.3333 -0.3022
25294W        W68347  10.330  28.847  17.630 -0.4204 -0.2003 -0.2193
25295W        W68348  30.577   4.667   0.363 -0.0460 -0.1324  0.0404
25296W        W68349   2.270  13.032  21.086  0.0417  0.3333 -0.0596
25297W        W68350   6.313  16.693  13.514 -0.1017  0.0871  0.2470
25298W        W68351  31.425  17.016  16.930 -0.1430  0.4597 -0.1016
25299W        W68352  29.997  18.718  19.627 -0.1165  0.1640 -0.1688
25300W        W68353  20.522   5.017  16.964 -0.2401  0.1075  0.2997
25301W        W68354  30.305  20.954  14.153 -0.0159  0.3867  0.1806
25302W        W68355  34.063  28.065  14.346 -0.1219 -0.2215 -0.3340
25303W        W68356  27.241   5.324  25.888  0.0227 -0.3068 -0.0437
25304W        W68357  27.828  20.030  22.572  0.2234 -0.1642  0.1553
25305W        W68358  33.119  21.290  28.356  0.2200 -0.1586  0.0709
25306W        W68359  30.603  23.414  28.392 -0.3177 -0.2242  0.1544
25307W        W68360  29.797  21.240   3.929  0.0330 -0.0362 -0.1148
25308W        W68361  26.727  29.780   4.330  0.2189 -0.1657  0.0341
25309W        W68362   3.127  30.104  26.126 -0.0558  0.2070  0.0790
25310W        W68363  30.657  18.007  22.075 -0.2936 -0.0202 -0.1837
25311W        W68364   3.095   0.259  26.623  0.1582 -0.0724  0.4298
25312W        W68365  32.342  12.328  15.178  0.2460 -0.1204  0.1425
25313W        W68366  13.897  22.733   5.797 -0.1550 -0.0277  0.2304
25314W        W68367   6.680  32.766  19.174 -0.1553  0.3661  0.1191
25315W        W68368  14.309   0.998  17.748 -0.1522  0.0411 -0.2681
25316W        W68369  13.891  27.702   6.812 -0.0463 -0.1492 -0.2222
25317W        W68370  22.090  26.254  21.352 -0.4801 -0.0082 -0.4600
25318W        W68371  32.769  26.984  22.566  0.0165 -0.1541  0.1990
25319W        W68372   1.492  30.056  25.130 -0.0740  0.0568  0.1984
25320W        W68373   5.645  26.226  22.769 -0.2645 -0.0987  0.2327
25321W        W68374   5.961  17.312  19.863  0.1366 -0.0292  0.1444
25322W        W68375   0.317  29.507  16.786  0.2736  0.2864 -0.1372
25323W        W68376   0.009   1.633  29.163  0.3527 -0.3197  0.1362
25324W        W68377  29.995  22.452  23.945 -0.0485 -0.1348 -0.1320
25325W        W68378  15.565  24.553  19.572  0.1765  0.0733 -0.1822
25326W        W68379  22.828  17.854  22.228  0.0136 -0.2860  0.2398
25327W        W68380  24.470   5.233  24.513 -0.0354  0.1371  0.0210
25328W        W68381  10.800  27.008   3.492  0.0914 -0.0849 -0.1683
25329W        W68382  21.949  14.527   0.504 -0.1491  0.0263  0.1203
25330W        W68383  29.340  17.174  27.870 -0.2463 -0.0813 -0.0037
25331W        W68384  25.486  26.934  26.747  0.0232  0.2209 -0.1362
25332W        W68385  25.103  21.655  24.980 -0.1515 -0.0059 -0.0340
25333W        W68386   0.765  25.593  27.444  0.0171 -0.2529  0.1848
25334W        W68387   4.128  29.104  20.003  0.0972 -0.1006 -0.2705
25335W        W68388  11.762  13.387   3.403  0.0147 -0.1000  0.2794
25336W        W68389  23.410  10.833  24.148  0.2108 -0.2347 -0.0383
25337W        W68390  18.588  17.071  28.867 -0.0729  0.1424 -0.2559
25338W        W68391  14.332  30.844  14.872 -0.0854 -0.1329  0.0854
25339W        W68392  29.744  15.155  26.473  0.1460 -0.0703  0.2988
25340W        W68393   0.402  16.752  28.553 -0.0514  0.1577 -0.3531
25341W        W68394  33.152   7.407  21.945 -0.1041 -0.1691 -0.2027
25342W        W68395  27.845  14.572  17.921 -0.1014 -0.0588 -0.0754
25343W        W68396  15.967  25.646  17.750 -0.2005 -0.3151  0.0928
25344W        W68397  31.371  29.557  21.228  0.0077 -0.0244  0.1232
25345W        W68398  31.915  27.785  20.199 -0.1544  0.0183 -0.3929
25346W        W68399   2.456  10.120  22.556  0.1870 -0.0204 -0.6805
25347W        W68400  13.242  34.404  24.814 -0.1584  0.0750 -0.1889
25348W        W68401  22.997  27.707  18.908 -0.1523 -0.2055  0.0887
25349W        W68402  22.435  27.301  21.689  0.3482  0.0460  0.0030
25350W        W68403   2.651  32.022  19.100  0.1319 -0.1967  0.0064
25351W        W68404   2.630  28.095   1.618 -0.1178 -0.3032 -0.1098
25352W        W68405  22.979  27.311  17.230 -0.0589  0.0387  0.1554
25353W        W68406  27.155   7.363   6.383 -0.2568  0.1549  0.1306
25354W        W68407  28.875  13.788  25.966  0.1242 -0.1052  0.0130
25355W        W68408  23.070  32.421  16.842 -0.1312 -0.2306  0.2186
25356W        W68409  13.252   2.738  22.105  0.0538  0.1187  0.0372
25357W        W68410  19.091  29.173  18.059  0.1599 -0.0521  0.0879
25358W        W68411  20.325   4.898   4.965  0.1599 -0.0527  0.0870
25359W        W68412   2.301  21.074  15.309  0.1056  0.1506  0.3257
25360W        W68413   3.359  20.442   3.769  0.1952  0.1190  0.0109
25361W        W68414  18.391   1.111  25.659 -0.1011 -0.0601  0.1586
25362W        W68415   4.784   0.997  20.644 -0.1694  0.0835  0.1395
25363W        W68416  30.316  34.150  23.035 -0.0615 -0.0547 -0.1824
25364W        W68417  12.225  29.726   1.061  0.0788  0.1570 -0.0539
25365W        W68418  17.804   7.017  14.285 -0.1720 -0.0473  0.2945
25366W        W68419  15.561   7.527  24.695  0.2539  0.1151 -0.0727
25367W        W68420   6.018  16.827  17.999 -0.0132  0.1372 -0.0004
25368W        W68421  31.679  10.686  19.753 -0.0092 -0.1170 -0.2416
25369W        W68422  31.078  28.184   8.972  0.1902  0.0776  0.0470
25370W        W68423  17.986  25.480  28.474  0.1483  0.0689 -0.0546
25371W        W68424   9.032  11.372  10.332 -0.1125  0.0994  0.2033
25372W        W68425  24.855  13.300  23.653 -0.0327 -0.0289 -0.0153
25373W        W68426  11.996  22.072  23.253  0.1870 -0.2113  0.1980
25374W        W68427  26.082  22.866   8.801 -0.0534 -0.0882 -0.1417
25375W        W68428  19.263  33.731  24.633  0.0229  0.2513  0.1624
25376W        W68429  19.056   4.253  15.340  0.1353 -0.1522 -0.0809
25377W        W68430  24.180  27.877   9.679  0.1067 -0.1571  0.1150
25378W        W68431  17.918  25.859  26.204 -0.0179  0.1336 -0.0777
25379W        W68432   9.627   1.273  27.339  0.0745 -0.2596  0.0027
25380W        W68433  12.876  33.519  16.876 -0.1508  0.1139  0.0474
25381W        W68434  29.006  27.381  28.109 -0.1678  0.1092  0.1199
25382W        W68435  22.242  33.648  24.259 -0.0931 -0.2303 -0.2410
25383W        W68436  32.149  21.250  17.169  0.0001 -0.1125  0.0997
25384W        W68437  25.676  24.908  14.656  0.0136  0.2367 -0.2041
25385W        W68438  19.055  25.037   8.307 -0.4070  0.0446 -0.2347
25386W        W68439  17.909  16.375   4.049  0.2490 -0.1028 -0.0425
25387W        W68440  24.024  10.212  23.006  0.5372 -0.3208 -0.1666
25388W        W68441  29.021  31.187  28.255 -0.1067  0.0352  0.0596
25389W        W68442  27.576  24.197  26.229  0.4179 -0.2042 -0.3442
25390W        W68443  17.158  10.695  20.741  0.0397 -0.0082 -0.0927
25391W        W68444  28.774   3.725  20.598 -0.0419  0.0539  0.1219
25392W        W68445   7.841  24.520  26.610  0.0806  0.0034  0.3034
25393W        W68446  16.461  34.551   5.425 -0.0693 -0.1094 -0.0011
25394W        W68447  29.964  16.023   6.596  0.0199 -0.0363 -0.0452
25395W        W68448  28.562  20.899  27.915  0.0215 -0.1428 -0.2089
25396W        W68449  29.949   1.942  15.100  0.0604 -0.3284  0.0941
25397W        W68450  13.132  24.975  13.464  0.1585  0.4296  0.2869
25398W        W68451  33.013  25.846  26.457  0.0195 -0.0093 -0.0546
25399W        W68452   7.843  20.652  27.134  0.0692  0.2709 -0.1360
25400W        W68453  11.592  25.184   9.187  0.0558  0.0062  0.1281
25401W        W68454  26.330  19.405  20.253 -0.1565  0.1593  0.2173
25402W        W68455  31.596   7.521  16.994 -0.0025  0.0818  0.0772
25403W        W68456  30.480  21.049  15.076 -0.0419  0.0379 -0.2044
25404W        W68457  28.959  19.210   2.657 -0.0389 -0.1668 -0.0768
25405W        W68458  21.300  33.412  20.951 -0.0478  0.0929 -0.0319
25406W        W68459  26.306  29.028  14.628 -0.1352 -0.4174 -0.0592
25407W        W68460   7.238  27.249  21.592 -0.0581  0.2281 -0.0662
25408W        W68461  13.442  18.741  21.299 -0.1486 -0.0890 -0.0208
25409W        W68462  31.148  29.416  27.069  0.1687  0.4136 -0.1841
25410W        W68463   6.237  17.019   3.297  0.2227 -0.2932  0.2545
25411W        W68464  32.962  16.526  15.711 -0.1189 -0.2345 -0.0385
25412W        W68465  10.982  25.932  22.105  0.0851 -0.2216  0.0169
25413W        W68466   1.610  18.439   5.286  0.1047  0.0058 -0.1626
25414W        W68467   6.374  31.126  18.710 -0.1892  0.2166 -0.0074
25415W        W68468  30.039  31.861   1.894 -0.0702 -0.0724  0.0668
25416W        W68469  25.932  29.619   0.807 -0.1887 -0.0003 -0.0991
25417W        W68470  25.485  13.283  28.967 -0.3324 -0.1331 -0.0820
25418W        W68471   4.493   2.677  18.695  0.1825  0.2237 -0.1073
25419W        W68472  30.962  21.469  13.716  0.2268 -0.1318 -0.0001
25420W        W68473  24.436   7.913  16.690 -0.1598 -0.2757  0.1447
25421W        W68474  16.123   8.266  19.729 -0.0546 -0.0541  0.3002
25422W        W68475  30.936   3.298  26.447  0.2105  0.1287 -0.1742
25423W        W68476  23.685  15.319   7.559 -0.0892  0.2335 -0.1267
25424W        W68477  20.533  29.179  15.179 -0.0136  0.1457  0.1432
25425W        W68478  31.124  27.927  23.668  0.0894  0.3058 -0.1213
25426W        W68479   6.103  19.397  28.318 -0.2705 -0.2309  0.3228
25427W        W68480  24.846  26.814  21.384 -0.0848  0.1486  0.0449
25428W        W68481   7.613  31.994  14.242  0.1834 -0.2357  0.1007
25429W        W68482  26.511  20.856  21.581 -0.0283 -0.2415 -0.0308
25430W        W68483  24.309   3.761  20.164  0.1260  0.1933  0.3787
25431W        W68484  21.741   9.041  25.616  0.0394  0.2082 -0.0636
25432W        W68485  34.022  31.574   3.605 -0.1105 -0.3573 -0.0056
25433W        W68486  31.278  17.915   0.033  0.2466 -0.0742  0.1151
25434W        W68487   9.972  33.556  22.720  0.2436  0.5051 -0.0996
25435W        W68488  24.813  18.881   3.691  0.2094  0.0348 -0.0548
25436W        W68489   1.778  23.730  14.756 -0.0980 -0.0070  0.0004
25437W        W68490  30.600   9.468   1.217 -0.1012  0.0107 -0.0151
25438W        W68491  26.676  24.944  21.576  0.4870  0.1676  0.1626
25439W        W68492  27.247  24.886  19.119  0.2685 -0.0072  0.3094
25440W        W68493   2.400   1.045  23.637  0.0874  0.0548 -0.0976
25441W        W68494  25.986  32.623  27.878  0.0796 -0.2583 -0.0398
25442W        W68495   3.508  28.575   1.408  0.2266  0.0822 -0.0216
25443W        W68496  32.741  17.714  25.809  0.0389  0.2205  0.1476
25444W        W68497  16.306  21.428   1.075 -0.2291 -0.0043  0.2816
25445W        W68498  17.666  32.817   1.241  0.1371 -0.0364 -0.0256
25446W        W68499  28.875  29.501  17.218 -0.0730 -0.1526  0.1324
25447W        W68500  32.617  32.940  20.015 -0.2990 -0.1605 -0.1424
25448W        W68501  34.296   1.959  16.628 -0.0395  0.0955 -0.0547
25449W        W68502   9.601  25.221  26.423  0.1874  0.1658  0.0854
25450W        W68503   0.966  27.679  18.328 -0.0754  0.1626  0.4004
25451W        W68504  28.375  29.774  26.879  0.1905  0.0915  0.0921
25452W        W68505  29.205  22.216  17.317 -0.2125  0.0055  0.0279
25453W        W68506   3.472  17.559  25.804 -0.2464  0.0407 -0.0353
25454W        W68507  11.606  17.706   2.899 -0.1473  0.2291  0.0105
25455W        W68508  29.952  18.657  14.300 -0.2983  0.1143 -0.0085
25456W        W68509  29.005  22.791  14.693  0.2536 -0.4702  0.2417
25457W        W68510  30.139  31.972  23.200 -0.0882 -0.0001 -0.0284
25458W        W68511  24.383  24.117   1.110  0.2050  0.1920  0.2794
25459W        W68512  26.148  18.568  15.971  0.1569  0.4130  0.1466
25460W        W68513   3.231  20.549  27.746  0.2134 -0.1486 -0.1669
25461W        W68514  16.925  19.354  13.325  0.2455 -0.0123  0.1181
25462W        W68515  25.220  23.458  26.561  0.1694 -0.0128  0.1680
25463W        W68516  21.691  31.485  18.732  0.2663 -0.2328  0.1807
25464W        W68517  33.928  19.331  27.238  0.1198  0.3888  0.0170
25465W        W68518  13.824  19.417  26.184 -0.2072  0.0001 -0.2914
25466W        W68519  10.428   7.570  26.312 -0.2551  0.2639 -0.0392
25467W        W68520  30.653  31.716  21.701 -0.2048  0.2770  0.0738
25468W        W68521  33.356  28.705  20.586  0.2621 -0.0169 -0.0339
25469W        W68522  10.418  34.200   7.695  0.0233  0.0734 -0.0793
25470W        W68523  32.548  18.503  21.035 -0.1495  0.1744  0.0348
25471W        W68524  24.475  21.964  21.380  0.1390  0.0315 -0.1847
25472W        W68525  15.953  23.039  14.735 -0.0374  0.0872  0.0511
25473W        W68526  28.912   4.362  28.323 -0.2068 -0.2458 -0.1433
25474W        W68527  28.817  12.704  15.443  0.0137  0.0228  0.1129
25475W        W68528  19.079  13.949   3.240 -0.0044  0.1372  0.2743
25476W        W68529  22.048  20.094  17.786 -0.0657 -0.0893  0.0058
25477W        W68530  20.177  26.834   9.138  0.0549  0.2775  0.0057
25478W        W68531  14.381  29.073  18.054  0.0900 -0.3924  0.0104
25479W        W68532  24.714  34.369  23.969  0.0763 -0.1070  0.1746
25480W        W68533   1.312   4.134  24.552  0.0943 -0.2322 -0.0933
25481W        W68534  17.846   0.066  28.122  0.0431  0.3192  0.1487
25482W        W68535   1.492  33.318  23.951  0.0526  0.1372 -0.1861
25483W        W68536   0.453   3.848  23.573 -0.0496  0.0693  0.1142
25484W        W68537  20.161  24.975  25.100  0.1009  0.1700 -0.2223
25485W        W68538  21.807   2.466  16.575  0.0617 -0.3062 -0.2403
25486W        W68539  20.007  12.402  18.152 -0.1387  0.0023 -0.0770
25487W        W68540  14.565  30.562  24.995 -0.4199 -0.0549 -0.2588
25488W        W68541  23.676  10.463  15.376  0.3813 -0.1129 -0.2297
25489W        W68542   2.705   9.172  21.526  0.4140  0.1082  0.4335
25490W        W68543   1.410  30.319  23.786  0.2095 -0.0110  0.1418
25491W        W68544  22.001  19.431  19.077 -0.1228  0.0413  0.1072
25492W        W68545  32.001  25.439   7.484  0.0929  0.1643  0.3181
25493W        W68546  27.322  25.426  17.506 -0.0736  0.0549  0.2013
25494W        W68547   0.705  30.044  24.370  0.1531 -0.2337 -0.0962
25495W        W68548  11.331  26.414   9.568 -0.1976  0.2744  0.0635
25496W        W68549   2.853  22.913  25.322 -0.2336  0.0786  0.1355
25497W        W68550  15.316  31.718  16.235  0.0236 -0.1120  0.0904
25498W        W68551  31.770  23.314  18.869 -0.1546  0.1546 -0.0828
25499W        W68552  21.889  11.045  20.272 -0.3205 -0.0020  0.0878
25500W        W68553  25.973  26.787   8.725  0.1294 -0.0508 -0.1546
25501W        W68554   0.326  25.493  26.477  0.1089 -0.1664 -0.0927
25502W        W68555  26.432  13.247   2.449 -0.0168 -0.3544  0.1094
25503W        W68556  19.979  21.407  21.152 -0.0533 -0.0979 -0.0393
25504W        W68557  34.427  14.467   7.807 -0.0139 -0.1168 -0.3558
25505W        W68558  20.498  22.845  15.068 -0.0433 -0.1974 -0.2464
25506W        W68559   0.305  30.269  18.870  0.0437 -0.0476  0.0977
25507W        W68560  11.006   1.009   9.310 -0.2016  0.2786 -0.1340
25508W        W68561  30.435   2.558  16.434  0.1932  0.2087 -0.0661
25509W        W68562  18.231   4.954   4.784 -0.3938  0.4000  0.0119
25510W        W68563  31.298   1.817  25.015 -0.1503  0.3554  0.0090
25511W        W68564  19.696   9.681  23.607  0.2004  0.0789 -0.1046
25512W        W68565   5.966  12.500   5.058  0.3104 -0.1519  0.0719
25513W        W68566  29.507  24.632  26.874  0.0436 -0.1986 -0.2729
25514W        W68567  23.065  25.442   6.100  0.0728 -0.1391 -0.1806
25515W        W68568  32.398  28.520   3.147  0.0491 -0.1793  0.2705
25516W        W68569  13.647  27.664  22.931 -0.1837  0.2088 -0.2025
25517W        W68570  30.545  13.704  26.621  0.2251  0.0088  0.1405
25518W        W68571  17.467  19.122  28.515 -0.0923 -0.1561 -0.0753
25519W        W68572   2.156   0.327  19.451 -0.3767  0.0408 -0.0523
25520W        W68573  32.273   0.949   7.411 -0.1377  0.0573  0.1071
25521W        W68574  12.641  18.353  17.316 -0.3045  0.1678  0.2201
25522W        W68575   1.609  22.514   7.669  0.1547  0.0030 -0.0188
25523W        W68576  26.529  28.189   0.979 -0.1564 -0.1713 -0.2138
25524W        W68577  22.911  21.983   2.592 -0.2377  0.2745  0.0192
25525W        W68578   9.474   4.863  17.070  0.1309 -0.1492  0.3713
25526W        W68579  31.118  27.682   0.544 -0.0482  0.1459 -0.1888
25527W        W68580  31.566  15.311  26.539 -0.2363 -0.1202  0.0400
25528W        W68581  34.569  20.009   9.377  0.2184  0.0846  0.2827
25529W        W68582   5.630  22.767  22.226  0.2129  0.0016 -0.0726
25530W        W68583  22.716  31.932  15.686  0.1429 -0.1702  0.0830
25531W        W68584   1.462  23.325  21.322 -0.2208  0.1626  0.1448
25532W        W68585  32.019   9.866  21.131  0.0059 -0.1840 -0.0708
25533W        W68586  20.502  16.052   3.615  0.0481  0.0467 -0.3337
25534W        W68587  15.775  26.828  26.802 -0.0630  0.0139 -0.4194
25535W        W68588  23.768  16.985  21.010 -0.1133  0.3172 -0.0855
25536W        W68589  13.365  28.440   0.948 -0.3780 -0.1229  0.1722
25537W        W68590  30.140  25.983   7.093  0.0614  0.1987 -0.1908
25538W        W68591  31.186  19.287   1.296  0.2596  0.1684  0.0412
25539W        W68592  14.117   7.752  20.914  0.5419 -0.0747 -0.1614
25540W        W68593  12.829  29.952  20.716  0.1412  0.0803 -0.1095
25541W        W68594  33.573  31.885  19.561 -0.1306  0.1034  0.0925
25542W        W68595  21.208  20.916  19.812  0.2699 -0.1002  0.0904
25543W        W68596  17.109  22.311  21.262  0.0601 -0.1618 -0.1872
25544W        W68597   0.621  29.977   7.482 -0.0129 -0.3762  0.1088
25545W        W68598  22.397  15.487  21.890 -0.1118 -0.2017 -0.2116
25546W        W68599  25.434   2.026  18.398 -0.0484  0.4300 -0.0134
25547W        W68600  25.017   3.901  24.036 -0.1587 -0.2197  0.0926
25548W        W68601  20.284  28.076   0.425  0.2532 -0.1019  0.1634
25549W        W68602  33.628  30.790  14.601 -0.0238  0.0209  0.0127
25550W        W68603  16.069  18.527  15.269  0.0376  0.2116 -0.0622
25551W        W68604  28.001   5.244   8.928  0.1132 -0.3489  0.2310
25552W        W68605  22.641   2.542  20.105 -0.0844  0.0132  0.3785
25553W        W68606  23.229  18.373   1.356 -0.2021  0.0621  0.1571
25554W        W68607   6.586  16.229  27.388  0.2984 -0.0493  0.0418
25555W        W68608  13.778  31.548   7.717 -0.0036 -0.1142  0.0230
25556W        W68609  23.456  21.119  16.518  0.2338  0.0626  0.3367
25557W        W68610  24.987  27.330  17.780 -0.3268  0.2604 -0.1824
25558W        W68611   8.920  20.163  25.332 -0.1349  0.1163  0.0303
25559W        W68612  23.678   7.053  18.179  0.1847 -0.0044  0.0005
25560W        W68613  23.568  28.126   4.804  0.0332  0.0547 -0.0853
25561W        W68614  25.968  25.644  21.006 -0.0258 -0.1317 -0.4229
25562W        W68615   2.546  24.905   5.623 -0.3981  0.0921 -0.0130
25563W        W68616  21.396  24.501  24.500  0.0473 -0.1138  0.3201
25564W        W68617  28.923  30.650   5.918 -0.1556 -0.2839 -0.0693
25565W        W68618  14.723  13.289  26.121  0.2626  0.0576 -0.0680
25566W        W68619  23.616  19.705  15.881  0.3212 -0.0614 -0.3153
25567W        W68620  16.303  21.448  19.944  0.1276 -0.3155  0.0047
25568W        W68621  23.119  28.964  18.478 -0.0025 -0.1421 -0.6020
25569W        W68622   4.826  23.618  16.104 -0.2269  0.0357  0.0938
25570W        W68623  28.076  26.417  24.139 -0.1219 -0.2500  0.0557
25571W        W68624  30.266  10.490  16.329 -0.0153 -0.1484  0.0529
25572W        W68625  31.192   8.555  19.226  0.0362  0.0352  0.1839
25573W        W68626  26.272  24.478  25.191 -0.2902  0.0616  0.2897
25574W        W68627  26.408  11.079   6.413 -0.0797  0.0517 -0.0943
25575W        W68628  24.896  26.919   1.316  0.1755 -0.0328 -0.2136
25576W        W68629  18.191  26.138  17.305 -0.3004 -0.1554  0.3199
25577W        W68630  15.951  23.926  15.601 -0.1664  0.2866  0.1917
25578W        W68631   5.950  27.966  22.161  0.0902 -0.1430 -0.1017
25579W        W68632  28.422  20.966   5.234  0.0172  0.1557 -0.0221
25580W        W68633  32.013  17.618   0.232  0.2938  0.0185 -0.2347
25581W        W68634  30.692  18.427   7.125  0.1938  0.1056 -0.0780
25582W        W68635  27.124  11.847  26.964  0.0312  0.2705  0.2839
25583W        W68636   5.585  16.152  19.092 -0.1784  0.0844 -0.1047
25584W        W68637  24.198  21.205  20.853 -0.0409  0.1449  0.1282
25585W        W68638   9.538  17.706  15.599 -0.5830  0.1918  0.1811
25586W        W68639  10.529  28.740  21.822  0.1067  0.0378  0.0398
25587W        W68640  24.753  17.804   5.341 -0.1281 -0.0064 -0.0291
25588W        W68641  23.085  27.619  25.993  0.3140 -0.1658  0.0067
25589W        W68642  25.523  17.270   6.533 -0.1539  0.0165  0.3529
25590W        W68643  17.354  34.413   1.169  0.2180 -0.2451 -0.1949
25591W        W68644  26.563   1.439  19.363  0.2122 -0.2286 -0.1065
25592W        W68645  29.011  10.196   6.505  0.0491 -0.2085  0.4146
25593W        W68646  22.836  18.893  25.949  0.2267  0.0731 -0.1106
25594W        W68647  17.301  21.755  29.069  0.0364 -0.1696  0.1322
25595W        W68648  33.929  24.206   3.003  0.1938 -0.0253  0.1141
25596W        W68649  33.199   7.436   4.806 -0.0976  0.1586  0.1789
25597W        W68650  16.402  23.708  27.045 -0.0374  0.1102 -0.0568
25598W        W68651   8.049  21.979   5.912  0.1457 -0.2661 -0.1058
25599W        W68652  19.346  14.201  16.387  0.3568  0.3112  0.1548
25600W        W68653  34.364  29.597  21.548  0.1977  0.1241  0.1511
25601W        W68654  29.752  22.021  24.150 -0.2137  0.1467 -0.1422
25602W        W68655  22.081  22.299  24.101 -0.2185 -0.3059 -0.1898
25603W        W68656  31.382   7.773  14.590  0.5216  0.0860 -0.0184
25604W        W68657  17.139  34.528  27.156 -0.0846  0.1357 -0.1171
25605W        W68658  14.156  22.511   3.215  0.2234 -0.4299  0.1799
25606W        W68659  11.927  26.327  13.907  0.4636  0.0555 -0.0483
25607W        W68660  25.620  12.289   2.951  0.1328  0.0731 -0.2552
25608W        W68661  26.795  18.351  10.183  0.5000 -0.0536 -0.0137
25609W        W68662  24.705  29.775  21.109  0.0728  0.1363 -0.0269
25610W        W68663  21.527  11.914  14.854  0.3627  0.0672  0.0417
25611W        W68664  18.558  20.200  21.626  0.0037  0.0351 -0.0094
25612W        W68665  31.187  20.072  28.276 -0.1830 -0.2865  0.0245
25613W        W68666  29.027  33.071  19.094 -0.4549  0.0457  0.0635
25614W        W68667  27.155  32.110  23.284 -0.1670 -0.2577  0.1532
25615W        W68668  12.555  19.803  22.320 -0.1824 -0.1013  0.1420
25616W        W68669  31.193  32.689  16.118 -0.0255 -0.0698 -0.0176
25617W        W68670  34.075  22.335  21.202 -0.3787 -0.0544 -0.2970
25618W        W68671  18.577  29.155  22.087  0.2227  0.3256 -0.0288
25619W        W68672  20.405  27.401  15.208  0.0989 -0.1989 -0.2871
25620W        W68673  24.167  18.694   0.053 -0.1114  0.0323  0.2499
25621W        W68674  29.441  27.621  21.930  0.2118  0.0672  0.1435
25622W        W68675  19.191  34.607  27.441 -0.1936  0.3205  0.0678
25623W        W68676  34.158  19.635  15.167 -0.0327  0.0459 -0.1359
25624W        W68677  31.489  23.078  15.377 -0.1071  0.1805 -0.3124
25625W        W68678   4.929   7.472   8.589  0.2511 -0.0404 -0.2075
25626W        W68679   9.178   5.735   0.723  0.0026 -0.2691 -0.0158
25627W        W68680  25.863  24.611  25.471  0.2757  0.2097 -0.0100
25628W        W68681   1.617  16.008  19.533 -0.1509 -0.0964  0.1043
25629W        W68682  30.861  20.791  29.019  0.1478  0.0930  0.0383
25630W        W68683  16.250  12.592  14.145 -0.2620 -0.0381  0.1333
25631W        W68684  17.255  27.128   2.720 -0.1129 -0.0516 -0.0971
25632W        W68685  21.220   9.577  24.938 -0.2695 -0.0013  0.0772
25633W        W68686  18.789  23.946   1.257 -0.0205  0.3178  0.2722
25634W        W68687  20.928  15.715  24.344  0.0623  0.2716  0.1580
25635W        W68688   9.754  32.538  27.320 -0.0205  0.3294  0.1120
25636W        W68689   9.752   5.308  18.540  0.0647  0.0994 -0.1767
25637W        W68690   3.760  15.200  19.949 -0.1085  0.1301  0.1376
25638W        W68691  17.721  29.083  21.728  0.0973 -0.0951 -0.1400
25639W        W68692   3.120  21.271  23.021  0.2747 -0.4262 -0.1356
25640W        W68693  32.207  18.517   9.437 -0.0048 -0.1291 -0.1041
25641W        W68694  18.338  25.308  25.555 -0.0388 -0.1634  0.2037
25642W        W68695  23.994  25.995  22.838 -0.0248  0.0525 -0.0399
25643W        W68696  34.540  19.057   5.354  0.0920  0.3602 -0.4062
25644W        W68697  16.661   7.624  19.085  0.0362  0.2476 -0.0763
25645W        W68698   5.315  32.128   4.062  0.1828  0.1745  0.1023
25646W        W68699  34.402  17.066   2.148  0.0965  0.0663  0.2646
25647W        W68700  19.493  11.414  14.315  0.4370  0.2988  0.1969
25648W        W68701  21.477  15.602  24.584  0.0194  0.0544 -0.0417
25649W        W68702  30.566  33.257   5.832 -0.0710 -0.1574  0.0604
25650W        W68703   3.769  28.636  27.639  0.1023 -0.3068 -0.1556
25651W        W68704  34.085  25.590  21.147  0.0434 -0.0705 -0.0546
25652W        W68705   7.282  24.336  21.358  0.1506  0.1217  0.0119
25653W        W68706  31.468  16.874  27.385  0.1887  0.2137  0.2038
25654W        W68707  11.583  19.423   7.933  0.1454 -0.3790 -0.0565
25655W        W68708  25.468  17.765  16.286  0.1506  0.0456 -0.0374
25656W        W68709  29.004   7.086  27.196 -0.0956 -0.0821  0.1272
25657W        W68710  23.358  19.664  14.837  0.0630 -0.1664  0.0350
25658W        W68711  26.960  27.267   9.432 -0.0827 -0.1303  0.3933
25659W        W68712   4.057  14.583  21.279  0.1349 -0.0023  0.3472
25660W        W68713  28.248   3.263  16.140 -0.0602 -0.1167  0.1768
25661W        W68714  30.246  21.055   0.871  0.2428 -0.1186 -0.2874
25662W        W68715  16.880   8.074   4.400  0.0798  0.0009 -0.1216
25663W        W68716  33.905  22.904  26.259  0.0524  0.1928 -0.2153
25664W        W68717  32.839  28.070   5.233  0.2578 -0.1987 -0.2384
25665W        W68718  20.654  30.623  27.164  0.1999 -0.3555  0.2615
25666W        W68719   5.196  18.494  28.817 -0.0067 -0.1015  0.1102
25667W        W68720  30.200  20.004  24.137 -0.2319 -0.0925 -0.1106
25668W        W68721  12.043  18.480  10.348 -0.1425  0.0539  0.0481
25669W        W68722   2.210  23.624   0.161  0.0475 -0.1414  0.1584
25670W        W68723   1.565  14.278  24.054 -0.2206  0.3109 -0.1553
25671W        W68724  31.440  28.889  27.441  0.1177  0.1704 -0.3319
25672W        W68725  24.394  18.508  24.521  0.0498 -0.0901  0.1987
25673W        W68726  18.970  24.138  28.801  0.1585  0.1248 -0.0751
25674W        W68727  14.969  17.634   2.235 -0.2123  0.2347  0.5131
25675W        W68728  18.047  12.991   3.385 -0.2318 -0.2324  0.0850
25676W        W68729  27.352  24.501   3.508  0.0209 -0.0408 -0.2652
25677W        W68730   0.856  32.506  27.097 -0.1722  0.0112  0.6917
25678W        W68731  30.394  25.089   1.106 -0.2999 -0.1599  0.0612
25679W        W68732  19.312  24.578  23.967  0.1356  0.0142 -0.0039
25680W        W68733  16.275  19.789  27.881  0.1607 -0.0405 -0.1475
25681W        W68734  32.033   1.641  16.959  0.3619  0.1797 -0.1922
25682W        W68735  31.944   4.381   6.466  0.1008 -0.1164  0.2122
25683W        W68736  34.272  20.272  13.984 -0.2062 -0.1598 -0.1241
25684W        W68737  18.949  24.951  27.777 -0.0126 -0.0210 -0.2708
25685W        W68738  18.691  29.152  15.497 -0.4219 -0.2659 -0.1006
25686W        W68739  33.026  26.150  28.262  0.0983 -0.0445  0.0413
25687W        W68740  24.546  28.752  25.475 -0.2149  0.0820 -0.0269
25688W        W68741   1.779  19.825   2.640  0.1798 -0.1770 -0.0329
25689W        W68742  29.608  20.006  26.793  0.1437  0.3642 -0.0825
25690W        W68743  15.842  24.882  27.398  0.0130 -0.2015 -0.0818
25691W        W68744  11.036  24.315   8.884 -0.3905 -0.1976 -0.1775
25692W        W68745   0.034  16.992  13.919 -0.2603 -0.1361  0.1785
25693W        W68746  24.524  10.008  25.312  0.2100  0.1126 -0.0430
25694W        W68747  25.513   7.831  24.200  0.0465 -0.3415  0.0583
25695W        W68748  30.713  30.453   4.283 -0.0185 -0.0591 -0.2294
25696W        W68749  22.456  25.573  24.698 -0.3366 -0.3429 -0.0260
25697W        W68750  34.399   5.840  26.173 -0.0484 -0.0447  0.0972
25698W        W68751  14.059  21.160  14.093 -0.2288 -0.0847 -0.3655
25699W        W68752  20.304  17.083  22.353 -0.1368 -0.2007 -0.0765
25700W        W68753  20.781  24.033  28.885  0.0589 -0.0111  0.1122
25701W        W68754  19.420   7.123  18.999  0.0539  0.3008 -0.2527
25702W        W68755  18.210  31.424  24.940  0.1206  0.0409  0.3285
25703W        W68756  22.231  19.628   4.260  0.0638 -0.1224  0.2044
25704W        W68757   7.493  26.038  19.350  0.0609 -0.1109 -0.1987
25705W        W68758  23.690  32.525   2.449 -0.0323  0.1653 -0.3134
25706W        W68759  28.275  28.458  24.998 -0.1320  0.0726 -0.1094
25707W        W68760  30.707   1.499  26.459  0.1646 -0.2824  0.0410
25708W        W68761  25.092  22.000  20.111  0.1856 -0.0944 -0.0786
25709W        W68762   0.686  21.415  28.341  0.2641  0.1340 -0.1202
25710W        W68763  16.399   1.040   5.757  0.2204 -0.0431  0.0244
25711W        W68764  33.935  11.398  25.875  0.1211 -0.2424 -0.0039
25712W        W68765  32.318  27.091   1.536  0.2975 -0.1119  0.1967
25713W        W68766  30.799  19.115  22.895 -0.0856 -0.0645  0.0277
25714W        W68767   0.202   4.318   9.101 -0.0717  0.1871  0.0070
25715W        W68768  22.996  30.191   8.780  0.2646 -0.0916 -0.1242
25716W        W68769  32.552  33.892  20.937 -0.2321  0.0399 -0.0645
25717W        W68770  28.482  31.735  24.063 -0.2057 -0.0343  0.3141
25718W        W68771   9.568  24.047   4.848 -0.1910  0.1562  0.0175
25719W        W68772  32.656   7.040  21.106  0.1526  0.1441 -0.0689
25720W        W68773  31.118  23.303  24.226  0.0685 -0.2769 -0.1717
25721W        W68774  14.697  22.054  22.238  0.0317 -0.0720  0.3075
25722W        W68775  15.658  34.350   8.473  0.0953  0.2090 -0.0883
25723W        W68776  15.553  27.368  17.646 -0.1086  0.2065  0.0339
25724W        W68777  25.929  22.294  16.667  0.1017 -0.0786  0.2058
25725W        W68778   4.045  28.659   7.377 -0.0390  0.2396  0.1868
25726W        W68779  21.795  21.819  19.713  0.2413 -0.1230 -0.1076
25727W        W68780  22.321  23.513   3.756 -0.1404 -0.4988  0.3367
25728W        W68781  31.801   8.355  23.970 -0.2772 -0.2451  0.2247
25729W        W68782  25.156  27.219  19.194  0.0218  0.0364  0.1045
25730W        W68783   0.645  24.503  15.362  0.1215  0.1586 -0.0462
25731W        W68784   3.874  22.553  23.890 -0.1003  0.0584 -0.1576
25732W        W68785  19.709   2.762  18.845  0.1061  0.1309  0.1783
25733W        W68786  15.835  14.547   3.958  0.2413  0.1445  0.0335
25734W        W68787  13.881  30.061  14.806  0.1432 -0.0957 -0.1770
25735W        W68788  32.683  14.086  14.784 -0.0588  0.1870 -0.3085
25736W        W68789  16.016  11.829  24.190  0.0471 -0.0975 -0.0114
25737W        W68790  27.245  17.952  27.706 -0.2097 -0.0359 -0.1728
25738W        W68791  32.133  24.350  14.192  0.0988 -0.3254 -0.0534
25739W        W68792  21.327   6.690  21.200 -0.3454  0.0419 -0.3906
25740W        W68793  26.817  28.481  22.642  0.1551 -0.2381  0.0249
25741W        W68794   0.647  33.599  20.017  0.1133  0.0727 -0.0239
25742W        W68795  34.415  13.889  19.910  0.0461 -0.1286  0.0891
25743W        W68796   6.625  25.187  28.926  0.1196 -0.0365  0.1260
25744W        W68797   8.688  24.887   2.724  0.1537  0.1714 -0.0485
25745W        W68798  29.777  19.992  13.958  0.1250 -0.0139  0.1946
25746W        W68799   2.946  23.887  15.376 -0.2990  0.0188  0.1976
25747W        W68800  28.463  22.259  19.531 -0.1030 -0.0596  0.1608
25748W        W68801  32.975  30.593   4.381 -0.0858  0.0219 -0.0076
25749W        W68802  30.912  23.053   2.332 -0.0914 -0.2617 -0.1205
25750W        W68803  32.132  31.804   2.907 -0.1385  0.2191 -0.2222
25751W        W68804  26.776  14.841  19.578  0.0731  0.1283  0.4540
25752W        W68805  24.868  21.808   9.894 -0.0989  0.0927 -0.1977
25753W        W68806  24.396  19.310   6.825 -0.0609  0.2237 -0.1128
25754W        W68807  14.336  31.299   1.887 -0.1179 -0.0823 -0.0603
25755W        W68808   6.928   4.671   5.832 -0.0869 -0.1331 -0.3239
25756W        W68809  29.413  27.118  21.811  0.1928 -0.0937 -0.2279
25757W        W68810  13.333  17.076  14.620  0.0019  0.0104  0.2159
25758W        W68811  14.472   3.234  26.595 -0.1145  0.2533  0.0245
25759W        W68812  14.688  10.208   6.138 -0.1163  0.0089  0.0703
25760W        W68813  19.417  27.039  15.889 -0.2194 -0.1506  0.2078
25761W        W68814  21.865  28.673  20.847 -0.2999  0.3789  0.0927
25762W        W68815   1.093  31.246   8.449  0.2635 -0.0026 -0.2340
25763W        W68816  28.484  21.758  27.640 -0.0498  0.1475 -0.0973
25764W        W68817  29.964  32.876  24.684 -0.1596  0.0951 -0.0211
25765W        W68818  16.898  21.354   7.822  0.1382 -0.2498 -0.2534
25766W        W68819  29.267   8.722  19.556 -0.0711  0.2995  0.0865
25767W        W68820   0.277  25.738   1.058  0.1692  0.0041  0.2233
25768W        W68821  33.555  13.451  27.050 -0.0982  0.0688 -0.0819
25769W        W68822   0.472   9.314  21.018  0.0882 -0.3419  0.4605
25770W        W68823  34.595  31.785  22.035 -0.0544 -0.0820 -0.0617
25771W        W68824   1.561   3.686   3.272 -0.0498  0.1699 -0.5524
25772W        W68825  33.843  27.098   8.102  0.1539 -0.0427 -0.0499
25773W        W68826   9.846  13.532  26.060  0.2474  0.3207  0.2695
25774W        W68827  24.960  26.248  10.311 -0.2571  0.1114 -0.0645
25775W        W68828  23.527  31.515  23.119  0.0876  0.0463  0.3249
25776W        W68829  28.712  22.811  23.492 -0.1460  0.1728  0.2604
25777W        W68830   3.276  17.268   1.766 -0.0222  0.3019 -0.2211
25778W        W68831  20.360  15.788   0.717  0.0823 -0.2950  0.3247
25779W        W68832  13.534   0.139  28.013 -0.4064  0.0878 -0.1630
25780W        W68833  18.192  18.396   7.759  0.2508 -0.4647  0.1256
25781W        W68834  30.147  20.352  27.450 -0.2375 -0.2456 -0.2196
25782W        W68835   5.623  34.226   4.894  0.2187 -0.0197 -0.0995
25783W        W68836  26.187  20.194  15.627  0.1409  0.0498  0.0359
25784W        W68837  26.176  27.343  23.179  0.0447 -0.0444  0.1324
25785W        W68838   2.689   8.351   0.809  0.0666  0.2751 -0.0638
25786W        W68839   2.018  23.649  17.544  0.3215 -0.2458  0.0334
25787W        W68840  13.002  22.507   7.856  0.4471 -0.3060  0.1076
25788W        W68841  18.525  17.032   1.330  0.2260  0.3607 -0.0573
25789W        W68842  31.249  14.574  24.192 -0.4288  0.3551 -0.0933
25790W        W68843  21.031  27.282  16.407  0.3033 -0.1431  0.2599
25791W        W68844   0.322   1.782   0.379 -0.1202  0.1677 -0.2667
25792W        W68845   7.426  31.839  27.182  0.0352  0.0021 -0.0272
25793W        W68846  31.596   9.409  22.430 -0.0061  0.0690 -0.0502
25794W        W68847  31.707  33.262   1.081  0.0369 -0.1987 -0.3057
25795W        W68848  28.821  22.629   1.685 -0.2801  0.0903  0.1526
25796W        W68849  32.519  17.781  14.001 -0.0218  0.2919  0.0206
25797W        W68850  28.687  14.401  18.205  0.0657  0.2246  0.1687
25798W        W68851  22.262   9.176   1.843  0.2167 -0.2669 -0.0523
25799W        W68852  30.673  26.773  27.981 -0.0415  0.0939  0.1677
25800W        W68853  13.356  21.582  28.053  0.3258 -0.1137  0.1720
25801W        W68854  22.097  17.952  19.030 -0.0624 -0.0251 -0.1491
25802W        W68855  27.345  22.353   2.727  0.2614  0.0571  0.4446
25803W        W68856  29.516  20.839   2.588  0.0833 -0.0004  0.2786
25804W        W68857  33.141  18.138   8.982 -0.1759 -0.1051 -0.3873
25805W        W68858  24.084  21.353   5.012 -0.1288  0.1356 -0.2419
25806W        W68859  29.996  21.850  26.657 -0.0886  0.1186 -0.0286
25807W        W68860  31.062  18.467  21.987  0.3370  0.0599  0.1892
25808W        W68861  22.246  17.023  25.016  0.1151 -0.2134 -0.3702
25809W        W68862  13.010  33.527   6.595 -0.0286  0.0455 -0.0609
25810W        W68863  20.829  26.586   1.305 -0.1948  0.3775 -0.0628
25811W        W68864  15.151  16.498   3.870  0.3892 -0.1701  0.3816
25812W        W68865  23.676  23.520   3.814 -0.1139  0.0887 -0.0953
25813W        W68866  32.188  26.740  15.534 -0.0919  0.1788 -0.0808
25814W        W68867  29.727  17.063   0.638 -0.1986  0.1472  0.1031
25815W        W68868  26.694  25.972   3.587  0.0994 -0.0799  0.0610
25816W        W68869   0.943  32.896  25.274  0.4443 -0.2377  0.1403
25817W        W68870  16.830  26.038  19.337  0.0424 -0.1447  0.0983
25818W        W68871  29.892  29.034   4.390  0.0562  0.2822 -0.0853
25819W        W68872  28.357  28.162  25.623  0.4827 -0.1972 -0.0556
25820W        W68873  32.013  23.025  21.858 -0.0362 -0.1625  0.3190
25821W        W68874  31.633  13.056   0.802 -0.1534  0.3181 -0.2777
25822W        W68875   5.967  14.621   1.722 -0.0735 -0.2060 -0.0695
25823W        W68876  28.993  24.175  24.419  0.1622 -0.0584  0.1273
25824W        W68877  11.747  28.702   7.689  0.1565  0.0576  0.3731
25825W        W68878  12.453   6.045   8.265 -0.0721  0.0622  0.0102
25826W        W68879   1.793  29.502   0.579  0.2878  0.1060 -0.0704
25827W        W68880  12.836  19.198   9.365  0.5416 -0.0714 -0.3302
25828W        W68881  15.081  21.757  15.989  0.3638  0.4238  0.1217
25829W        W68882  33.684  32.727  25.960 -0.0762 -0.3619 -0.2480
25830W        W68883  10.695   0.452   6.142 -0.1218  0.2325  0.0777
25831W        W68884  24.883  22.312   9.430 -0.1873 -0.2500  0.0129
25832W        W68885  31.063  12.367   4.573 -0.4414 -0.0591 -0.1627
25833W        W68886  31.299  12.474  28.593 -0.2351 -0.3733 -0.2181
25834W        W68887  23.768  20.232   7.742 -0.1116  0.2951 -0.0204
25835W        W68888  16.597   2.384  14.202 -0.3655 -0.1871  0.1372
25836W        W68889  33.037  30.107   7.048 -0.1472 -0.0030 -0.0934
25837W        W68890  31.723  28.463  25.358  0.1337 -0.2807 -0.2621
25838W        W68891   5.626  12.716  24.827  0.0610 -0.1921 -0.0636
25839W        W68892  25.597   0.459   2.189  0.2373 -0.1948 -0.1103
25840W        W68893  19.564  29.092   6.762 -0.0117  0.0166  0.2613
25841W        W68894  19.076  18.782   9.726  0.0087  0.0581  0.0627
25842W        W68895  17.652  22.614   1.305  0.0587 -0.0448  0.1993
25843W        W68896   9.588  27.011   1.030  0.0749  0.0834 -0.1724
25844W        W68897  12.909  19.056   6.599 -0.2794 -0.1924 -0.1809
25845W        W68898  31.880  13.727  14.345 -0.1517 -0.0762  0.4170
25846W        W68899  30.116  10.076  15.540 -0.0705  0.2067 -0.1164
25847W        W68900  19.498   7.862   0.714 -0.2064  0.1904 -0.2425
25848W        W68901   0.707  34.117   1.556 -0.2212 -0.0210 -0.1410
25849W        W68902  17.146   3.193  17.237  0.2687  0.1929 -0.1642
25850W        W68903  24.610  21.024  28.437 -0.0948 -0.1254 -0.1160
25851W        W68904  24.213  18.969   3.999  0.2225 -0.1152 -0.1244
25852W        W68905  23.304   7.449   1.252 -0.2642  0.4070 -0.3881
25853W        W68906   8.192  25.404  13.403 -0.0252  0.4339  0.2117
25854W        W68907  32.589  28.371  28.351  0.0209  0.0143  0.2696
25855W        W68908   0.740  34.608  23.282 -0.1371 -0.0201 -0.0733
25856W        W68909   5.385  34.391  25.180  0.2154  0.0484  0.2402
25857W        W68910  32.229  33.852  23.434  0.1355 -0.5325 -0.1004
25858W        W68911   6.054  28.657   1.100 -0.0501 -0.0745 -0.0615
25859W        W68912  27.973  16.686   7.858 -0.3304 -0.1112 -0.1163
25860W        W68913  32.283   2.228   5.834 -0.0319  0.2591  0.2589
25861W        W68914  34.595  18.816  28.020  0.2394  0.0586 -0.2509
25862W        W68915  20.692   0.782  27.447 -0.1468  0.3106  0.1304
25863W        W68916   8.986  26.154  16.741 -0.2536 -0.0694  0.1029
25864W        W68917   3.137  31.894  27.159 -0.0421  0.0802  0.2598
25865W        W68918  30.471  32.659  16.922 -0.1953  0.1461 -0.1038
25866W        W68919   7.970  33.432  22.370 -0.0872  0.2407 -0.1219
25867W        W68920  31.041  21.451  21.677  0.0288 -0.2657 -0.0646
25868W        W68921  27.908  22.679  28.894  0.0241 -0.0884  0.0571
25869W        W68922  24.557  17.796   8.592 -0.1289  0.1463 -0.0070
25870W        W68923  25.785  34.410  14.715  0.0612  0.2190 -0.0910
25871W        W68924  21.180  22.716  16.368  0.1885  0.1987  0.2063
25872W        W68925  24.739  13.026  28.886 -0.1920 -0.1280 -0.0303
25873W        W68926  16.809  32.343  17.745  0.1432  0.1769 -0.2624
25874W        W68927   1.089   4.875   8.848  0.2179 -0.1135 -0.1019
25875W        W68928   2.743  18.461   7.840 -0.3055 -0.0658 -0.1285
25876W        W68929  21.312  16.845  16.252 -0.2448  0.0333  0.2394
25877W        W68930  22.931  10.130  22.101 -0.2376  0.1273  0.1654
25878W        W68931  16.652  23.765   2.883  0.1233 -0.1027 -0.3457
25879W        W68932  29.823  24.211   9.014  0.0102  0.1194  0.1374
25880W        W68933  21.179  17.950   6.486 -0.1608  0.2865  0.0916
25881W        W68934  27.211  24.015  22.993  0.0534 -0.3636 -0.3143
25882W        W68935   6.691  24.890   5.095 -0.1476 -0.2776 -0.1098
25883W        W68936   8.703   2.189   2.043  0.0927 -0.0688 -0.2713
25884W        W68937   4.330   0.156   1.907 -0.3758  0.0570  0.2312
25885W        W68938  18.575  11.800  22.294 -0.1358 -0.0827 -0.1263
25886W        W68939  12.802  21.835  27.279  0.0906  0.3352  0.1015
25887W        W68940  17.163  14.257  27.413 -0.1034  0.0659  0.0926
25888W        W68941  13.161  21.275  16.487 -0.1627 -0.1164 -0.1693
25889W        W68942  19.579  27.246   7.067  0.0271  0.1319 -0.0557
25890W        W68943  30.157  19.327   5.100  0.6260 -0.2335 -0.0319
25891W        W68944  10.204  15.456   6.709  0.0395 -0.3035 -0.0820
25892W        W68945  10.135  15.295   7.206  0.1936 -0.0552 -0.1115
25893W        W68946  33.283  34.171  14.564  0.3430  0.0961  0.3017
25894W        W68947  29.743  29.138  26.190 -0.1078 -0.0062  0.1806
25895W        W68948  15.371  24.270  22.308  0.0143 -0.0044  0.0861
25896W        W68949  28.485  16.718   6.202  0.3860 -0.1202 -0.0290
25897W        W68950  33.134  25.493  24.620 -0.0130 -0.2419 -0.3343
25898W        W68951  24.549   6.210  17.412  0.0581  0.1250  0.0518
25899W        W68952  20.580   3.752   0.560 -0.0589  0.2938  0.0859
25900W        W68953  28.949  29.761   5.274  0.1141 -0.2276  0.3075
25901W        W68954  25.439  20.122  21.375  0.4162  0.2375 -0.3893
25902W        W68955  16.490   8.063   2.281 -0.1985  0.7081  0.1495
25903W        W68956  13.831   5.905  18.937  0.1860  0.1300  0.1017
25904W        W68957  21.245  22.802   0.316 -0.0835 -0.0317  0.3196
25905W        W68958  21.831  15.569   4.172 -0.1671  0.1394 -0.2094
25906W        W68959  32.804  17.045   0.995 -0.0867  0.2006  0.2515
25907W        W68960   1.514  13.538   0.108  0.0681  0.2023  0.0264
25908W        W68961   0.166  28.058   1.362 -0.2414 -0.3259 -0.1852
25909W        W68962  16.312  24.496   2.194 -0.0957 -0.2433  0.1865
25910W        W68963  27.070  24.927  18.400 -0.1419 -0.2655  0.0845
25911W        W68964  12.177   4.892   2.101 -0.0855 -0.0069  0.1990
25912W        W68965  31.008  10.289   8.636 -0.0028  0.0834 -0.3432
25913W        W68966  11.415  23.140  23.128  0.0061  0.1971 -0.4457
25914W        W68967  25.433  21.599  21.851 -0.2237 -0.3063 -0.3593
25915W        W68968  33.151  17.615   5.657 -0.0852 -0.2577  0.3245
25916W        W68969  21.193  21.668   5.656 -0.1157 -0.0506 -0.2608
25917W        W68970   3.328  16.084  28.293 -0.0091 -0.0637  0.1320
25918W        W68971  26.921  31.325  25.927  0.0960 -0.0490 -0.0600
25919W        W68972  20.852  28.657   4.876 -0.0988  0.1240 -0.1663
25920W        W68973  34.246  19.104  22.387  0.0970 -0.1692 -0.1603
25921W        W68974   3.734  25.649  25.858 -0.1010  0.0106  0.0713
25922W        W68975  28.433   2.296  24.394  0.1478  0.1412 -0.3905
25923W        W68976   5.963  28.798   7.661 -0.0833  0.2428 -0.0455
25924W        W68977  23.000  20.993  15.147  0.0321 -0.0119 -0.2104
25925W        W68978   6.892  26.844  27.004  0.6247 -0.0855  0.1722
25926W        W68979  34.543  12.746  23.817 -0.1804  0.0265 -0.0764
25927W        W68980   7.319  26.292  28.690  0.0638  0.2531 -0.3052
25928W        W68981  22.899  24.705  25.703 -0.2391 -0.0380  0.0356
25929W        W68982  24.362  12.034   8.477 -0.0694 -0.0279  0.2176
25930W        W68983  24.217  12.864   8.684 -0.0207  0.0035  0.2677
25931W        W68984  26.500  34.529   8.437 -0.0912 -0.0783 -0.0306
25932W        W68985  16.779  33.870  19.200  0.0704 -0.1464  0.2530
25933W        W68986  30.440  17.349   8.066  0.0051 -0.0134  0.2466
25934W        W68987  13.032   4.596   3.199 -0.4013  0.2172  0.1583
25935W        W68988   2.390  22.310   7.342 -0.0802  0.1078 -0.1780
25936W        W68989  29.246  18.411  20.388  0.1101 -0.3511  0.0562
25937W        W68990  32.759  26.376   4.972 -0.0003  0.0405 -0.1455
25938W        W68991  16.190  34.407  21.420  0.3774 -0.0304 -0.3361
25939W        W68992  27.097  23.852  27.425  0.1437  0.0401  0.1714
25940W        W68993  32.216  22.851  28.466 -0.1735  0.0986 -0.0627
25941W        W68994  26.722  19.528   3.854 -0.1916  0.2811  0.3514
25942W        W68995  25.190  26.577   8.027  0.0275 -0.0080 -0.0360
25943W        W68996  31.571  26.869   4.351  0.0604  0.0040  0.2747
25944W        W68997  20.060  30.423  23.073  0.1332  0.1311  0.1752
25945W        W68998  29.313  27.756   5.574 -0.0960 -0.2362 -0.2320
25946W        W68999  24.878  19.572  23.542 -0.0276 -0.3145 -0.1526
25947W        W69000  17.136   8.988  26.160  0.0760 -0.1494 -0.2176
25948W        W69001   2.727  34.400  28.711 -0.4923 -0.1679  0.2593
25949W        W69002  15.715  15.211  22.966 -0.0002  0.2315 -0.1068
25950W        W69003  16.161  34.196  18.097  0.0161 -0.0074 -0.2032
25951W        W69004   0.497  18.254  20.806 -0.0510 -0.1797  0.1031
25952W        W69005  26.016  24.586  24.227  0.0689  0.0349  0.1615
25953W        W69006  30.282  23.016  23.133  0.3929  0.0856 -0.1407
25954W        W69007  28.856  31.488  15.035 -0.4245  0.1554 -0.1966
25955W        W69008  18.025   6.711  24.354 -0.1542  0.1922 -0.1132
25956W        W69009  34.016  23.805  16.859 -0.2351  0.0044  0.0489
25957W        W69010  30.214  14.578  20.041  0.3231  0.1625 -0.2228
25958W        W69011  20.769  10.078  26.423 -0.0878 -0.3738 -0.1323
25959W        W69012  23.212  18.968   2.993 -0.0442  0.0897 -0.4117
25960W        W69013  25.099   4.262  19.292 -0.1673  0.1575 -0.0793
25961W        W69014  24.602  27.323  15.379  0.0210 -0.1057  0.1827
25962W        W69015   3.454   8.904  16.319 -0.1698 -0.0411  0.1195
25963W        W69016  12.074   1.987  25.363 -0.1582 -0.0695 -0.2218
25964W        W69017  16.395   4.010  24.416  0.2559 -0.1870  0.0649
25965W        W69018  30.572  33.448  22.483  0.2083 -0.0346 -0.2003
25966W        W69019  21.178  13.830  26.537 -0.0484 -0.1994  0.1370
25967W        W69020   8.795  16.468  20.506  0.0787 -0.2123  0.0433
25968W        W69021  27.384   7.125  16.660  0.1829  0.1545 -0.1680
25969W        W69022  16.486  14.474  25.781 -0.3229 -0.1151 -0.6015
25970W        W69023   0.793  25.161  16.042 -0.1124  0.1200  0.1043
25971W        W69024  34.250  15.168  14.357  0.3891  0.2733 -0.0518
25972W        W69025  30.990  24.385  19.912 -0.1672 -0.0827  0.1936
25973W        W69026  20.129  21.014  16.309 -0.1383  0.0650  0.0395
25974W        W69027  14.565  23.894  20.723 -0.1571 -0.0447 -0.0146
25975W        W69028  19.921  25.571  24.805 -0.0432 -0.2225  0.1084
25976W        W69029  32.049  31.982  20.686 -0.1187 -0.1450  0.0765
25977W        W69030   3.516   0.273  20.582 -0.0763 -0.0066 -0.0745
25978W        W69031   2.063   1.142  24.992  0.2293  0.4483  0.0414
25979W        W69032  12.878  33.889  20.213 -0.2130 -0.0695  0.2128
25980W        W69033  31.790   3.121  14.630 -0.3650 -0.1302 -0.3773
25981W        W69034  17.994  32.215  20.813  0.0740  0.0655 -0.1276
25982W        W69035  24.322  23.312  14.433 -0.3197  0.0055  0.1397
25983W        W69036  30.424  27.803  29.064  0.0397 -0.1680 -0.0421
25984W        W69037  34.404  10.878  16.196 -0.0424 -0.0282 -0.2446
25985W        W69038  34.203  25.445  16.567  0.0248  0.2466  0.1189
25986W        W69039  30.306  28.715  19.479 -0.2750 -0.2841  0.1363
25987W        W69040  27.345   1.900  24.164 -0.0113  0.1475  0.0304
25988W        W69041  29.258  18.684  16.063  0.2672  0.3323  0.0275
25989W        W69042  15.379  26.033  20.134  0.1668  0.0673  0.1654
25990W        W69043  15.388  27.026  16.299  0.0206  0.2958  0.0391
25991W        W69044  15.996   5.573  26.110 -0.0832  0.1861  0.1623
25992W        W69045   0.914   0.466  13.978  0.0039 -0.1988  0.2398
25993W        W69046  12.711   0.494  17.429  0.2695  0.0656 -0.4145
25994W        W69047  30.347  31.834  20.419 -0.0420 -0.0128 -0.0313
25995W        W69048   6.830  32.518  24.552  0.0402  0.2685  0.0290
25996W        W69049  18.830   4.378  23.823 -0.0931 -0.5061  0.0768
25997W        W69050  34.462  18.365  25.455 -0.1470  0.2346  0.0862
25998W        W69051  20.461  31.864  15.285  0.1734  0.0471 -0.2171
25999W        W69052  26.559  27.316  20.909 -0.2338  0.2254 -0.0937
26000W        W69053   0.124  33.543  14.836  0.2659  0.0469 -0.0408
26001W        W69054  33.559  31.209  18.015 -0.0535  0.0857  0.0137
26002W        W69055   1.260  16.103  22.547  0.3788  0.3603  0.2830
26003W        W69056  29.952  31.510  18.014  0.1095 -0.1405  0.1879
26004W        W69057   8.389   1.528  27.197  0.2354  0.0563  0.0158
26005W        W69058  34.266   3.451  22.158 -0.1353 -0.0995  0.1643
26006W        W69059  31.377   2.385  22.586 -0.3052  0.2333 -0.3419
26007W        W69060  17.820  27.590  14.648  0.0621 -0.0638 -0.0710
26008W        W69061  29.401   4.082  15.017 -0.2444  0.0930  0.0807
26009W        W69062   3.720  31.681  22.109  0.0043 -0.2687  0.0535
26010W        W69063  17.682   4.951  23.902  0.3007  0.0586 -0.1554
26011W        W69064  12.058  34.447  21.132 -0.2756 -0.0785 -0.4490
26012W        W69065  22.879  26.884  16.253 -0.3702 -0.1774 -0.1380
26013W        W69066   5.119  29.329  23.046 -0.2157  0.0806  0.0098
26014W        W69067  33.300  20.971  19.881  0.0802 -0.1183  0.0775
26015W        W69068  26.399  20.855  17.685 -0.0621  0.1266 -0.1197
26016W        W69069  25.772   6.044   6.063  0.0065  0.3264 -0.1502
26017W        W69070  31.436  25.196  17.639  0.2871 -0.1464  0.0544
26018W        W69071  26.717  13.655  18.033  0.2572 -0.0028  0.0589
26019W        W69072  24.878  17.035  22.984  0.2515 -0.0253  0.1830
26020W        W69073   0.054  11.631  21.839 -0.1013 -0.0099  0.1369
26021W        W69074   4.444  17.897   4.918 -0.2891  0.1672 -0.1760
26022W        W69075   6.840  18.313  14.541 -0.2416 -0.5387 -0.1378
26023W        W69076  30.568   3.244  19.112 -0.2366  0.0517 -0.1311
26024W        W69077  14.130   0.568  26.343 -0.0347 -0.2504 -0.1096
26025W        W69078  34.411  22.926  25.957  0.4185 -0.1866  0.4788
26026W        W69079   4.361  23.600  15.312 -0.1528 -0.2914  0.0930
26027W        W69080   6.574   0.370  24.519 -0.2355 -0.0666  0.2071
26028W        W69081  26.598  31.166  20.216  0.0035 -0.1898 -0.1125
26029W        W69082   2.964  32.626   3.787  0.3455  0.0946  0.2053
26030W        W69083  24.574  15.871  21.202 -0.3020  0.3838 -0.1633
26031W        W69084  33.234  30.616  23.183  0.1151  0.0182 -0.0980
26032W        W69085   2.795  23.497  14.092  0.0161  0.3533 -0.1360
26033W        W69086  33.318   0.049  21.003 -0.3189  0.1325 -0.2585
26034W        W69087  20.003   7.638   9.569 -0.4015  0.0518  0.0194
26035W        W69088  31.316  32.925  23.462  0.3806 -0.1376 -0.2023
26036W        W69089  29.913  23.811  23.102 -0.2097 -0.0690 -0.1050
26037W        W69090  20.326  33.826  14.918 -0.0255  0.0327  0.2596
26038W        W69091   9.608  23.240  20.836 -0.0035  0.1007 -0.4458
26039W        W69092  30.405   1.804  14.844  0.0097 -0.1096  0.1627
26040W        W69093  14.091   7.586  15.478 -0.3524 -0.0266  0.1309
26041W        W69094  18.563  31.634  23.566  0.1355  0.1166  0.2764
26042W        W69095  25.685  30.277  24.844  0.0502 -0.1154 -0.2386
26043W        W69096   1.106  18.163  27.057 -0.1430 -0.0298 -0.1302
26044W        W69097  19.145  22.350   3.824 -0.1705  0.5350  0.0257
26045W        W69098  13.628  28.104   0.052 -0.2892  0.1416  0.0790
26046W        W69099  10.802   2.040  17.055 -0.0147  0.2382 -0.2159
26047W        W69100  34.131  12.870  15.544 -0.0900 -0.4311  0.5361
26048W        W69101  33.586  31.423  15.729  0.1430 -0.3922  0.4433
26049W        W69102  33.688  31.845  16.872 -0.2162 -0.2097  0.1653
26050W        W69103  28.914   4.506  18.860 -0.0771 -0.2049  0.0011
26051W        W69104   8.668  27.448  14.468  0.0860 -0.2760 -0.0176
26052W        W69105  13.514  14.001  15.746 -0.0389  0.1845 -0.1711
26053W        W69106  33.537  27.840  19.225 -0.2959  0.0363  0.0415
26054W        W69107  19.603  25.433  15.809  0.0457 -0.1559 -0.0368
26055W        W69108   5.425   0.348  15.328 -0.0624  0.0423  0.4100
26056W        W69109  32.985  23.377  15.300 -0.1065 -0.0763  0.0750
26057W        W69110  20.658   1.685  22.037 -0.0280 -0.1092  0.1489
26058W        W69111  24.632   7.011  10.037  0.0159  0.0182 -0.1996
26059W        W69112  26.510   7.783   2.436 -0.1159 -0.0804  0.1331
26060W        W69113  22.864  23.986  15.804 -0.1313 -0.0894  0.1492
26061W        W69114  30.156  17.467  25.255  0.0677 -0.0203 -0.2170
26062W        W69115  31.976   5.760   6.576 -0.2264  0.1500  0.0260
26063W        W69116   2.341  30.476  14.344  0.1472 -0.0798 -0.2541
26064W        W69117   1.871  31.117  19.039 -0.1106  0.0165 -0.1237
26065W        W69118  14.976   4.076   4.111  0.0617  0.1058  0.0482
26066W        W69119  27.192  16.624  23.520  0.2389  0.0525  0.0460
26067W        W69120   5.212  29.259  18.021  0.2151  0.0166  0.2021
26068W        W69121  31.084  28.058   6.789 -0.2412 -0.0940  0.0419
26069W        W69122  29.963  12.434  15.636  0.1859 -0.0041 -0.1051
26070W        W69123  25.594  17.299  19.794  0.1348  0.2501 -0.0516
26071W        W69124  25.863  18.768  20.765  0.1223  0.0495  0.0545
26072W        W69125  33.856  24.550  26.306  0.1913 -0.0011  0.3141
26073W        W69126   3.905  10.775  14.695 -0.1429 -0.1594  0.0159
26074W        W69127  27.693  26.945  13.761 -0.0379  0.0287 -0.0471
26075W        W69128  21.492   8.211  21.096 -0.2339  0.1836  0.0666
26076W        W69129  17.640  30.222  19.291  0.2758  0.0879 -0.1683
26077W        W69130  27.336   7.596  16.436  0.0809  0.0059  0.0788
26078W        W69131  29.536   4.581  19.535 -0.2235  0.1363  0.2702
26079W        W69132  22.344  33.338  17.785  0.0675 -0.1380  0.2584
26080W        W69133  12.117  16.554  14.904 -0.1732 -0.0308 -0.0180
26081W        W69134  29.079  22.121  16.782  0.0007  0.1763  0.2005
26082W        W69135  25.702  31.628  15.072  0.0002  0.1985 -0.1095
26083W        W69136   1.128  30.103  14.892  0.1324 -0.0777 -0.2314
26084W        W69137  25.993  19.309  13.796  0.1772  0.2139  0.0994
26085W        W69138   6.984  16.640  14.931 -0.0984 -0.3416  0.2312
26086W        W69139  31.239  27.783  14.398 -0.0003  0.1535  0.0495
26087W        W69140  16.124  18.924   7.990 -0.0691 -0.0436  0.2198
26088W        W69141  18.696  26.507  14.149  0.2688  0.0761 -0.2405
26089W        W69142  20.709  23.283  15.272  0.1092 -0.1624 -0.0186
26090W        W69143  22.311   9.525  21.564 -0.1208  0.1397  0.1342
26091W        W69144  17.225  26.099  17.347 -0.0105  0.1801 -0.1654
26092W        W69145   2.148  22.480  16.892  0.1093  0.2511 -0.0654
26093W        W69146  32.696   3.201  19.197  0.0175 -0.1287 -0.1122
26094W        W69147   0.848  26.701  16.960  0.2557  0.0169 -0.0833
26095W        W69148   0.756  18.706  16.631  0.0649 -0.1130 -0.0815
26096W        W69149   8.571  32.916  29.174 -0.1504 -0.2188  0.4230
26097W        W69150   5.101   2.737  22.493 -0.0710  0.2243 -0.1770
26098W        W69151  34.138  18.668  18.713  0.0507  0.0696 -0.1615
26099W        W69152  24.731  30.429  18.159  0.0284  0.2600  0.0529
26100W        W69153  23.521   8.071  21.657 -0.0309 -0.1019 -0.0409
26101W        W69154   4.939  22.266  25.043 -0.0457  0.4696  0.1744
26102W        W69155  23.471  33.986  20.616  0.3738 -0.0011  0.0264
26103W        W69156  26.594  11.344  21.056  0.0409  0.1726 -0.1933
26104W        W69157  29.081   8.115  15.475 -0.1434 -0.0316 -0.1688
26105W        W69158  28.203  26.272  24.626  0.0030  0.1055 -0.1146
26106W        W69159  18.311  26.106  22.119 -0.3295  0.0132  0.0106
26107W        W69160  17.224  16.060  13.577 -0.0897  0.0820 -0.5491
26108W        W69161  34.153  19.598  25.810  0.0951 -0.1082  0.0183
26109W        W69162   7.480  13.543  15.650 -0.0245 -0.0134 -0.1766
26110W        W69163  25.475  33.779  17.650 -0.1241 -0.1792  0.0535
26111W        W69164   4.484  32.539  16.281 -0.1588  0.1189 -0.2018
26112W        W69165   1.697   7.024  26.445 -0.0030  0.0268  0.1427
26113W        W69166  28.959  23.043  18.585  0.2346  0.0916 -0.2202
26114W        W69167  28.457  13.037  22.101  0.2213  0.2667 -0.0387
26115W        W69168   5.581  12.287  17.899 -0.4243 -0.0737 -0.1844
26116W        W69169  19.928  25.979  16.542  0.3603  0.2679  0.3491
26117W        W69170  28.094  20.551  18.719 -0.1735  0.0289 -0.1654
26118W        W69171  32.490   1.068  19.498 -0.3154  0.1079  0.0276
26119W        W69172   8.835  13.196  22.371  0.3460 -0.1564  0.0391
26120W        W69173  18.887   6.127  21.074  0.0100  0.1235  0.1163
26121W        W69174  18.077  29.891  19.426  0.0099  0.1253  0.1740
26122W        W69175  14.988  25.638  19.276 -0.0729  0.0746 -0.0425
26123W        W69176  11.453   8.649  26.288  0.0729  0.0908  0.1747
26124W        W69177  25.085   1.602  28.336  0.1419  0.2790 -0.0518
26125W        W69178  27.213  15.498  14.819 -0.2859  0.3405 -0.0106
26126W        W69179  31.118  31.930  15.016  0.0552 -0.3634  0.1690
26127W        W69180   8.762   8.677   2.730  0.2267 -0.1696  0.3340
26128W        W69181  14.534  23.131  16.130 -0.1673 -0.1952  0.1802
26129W        W69182   4.466  20.043  21.768 -0.0939 -0.0401  0.0746
26130W        W69183   0.908  24.213   4.819  0.0607  0.2581  0.2799
26131W        W69184  18.854  27.515  26.245  0.2736 -0.1027 -0.0759
26132W        W69185  17.407  28.422  25.899  0.0543  0.1080  0.0201
26133W        W69186  28.208  27.338  24.261 -0.1882 -0.1629  0.0060
26134W        W69187  22.600  32.001  28.378  0.0538  0.1919 -0.1138
26135W        W69188   4.766  30.449  21.274 -0.1014  0.0260  0.0831
26136W        W69189  27.549  28.279  17.803  0.3448  0.0178  0.2440
26137W        W69190  11.056  27.947  23.079 -0.0090 -0.1446  0.0949
26138W        W69191  28.615  23.859  18.108 -0.1744 -0.0745 -0.1511
26139W        W69192  25.199   2.777  19.228  0.3346 -0.0547  0.0796
26140W        W69193  29.048   2.054  22.416 -0.0212 -0.0953 -0.1071
26141W        W69194  33.968  25.561  24.021 -0.4494  0.3143 -0.1722
26142W        W69195   0.640  33.674  15.618 -0.0844 -0.1263 -0.0608
26143W        W69196  24.894  10.505  21.315 -0.0312  0.1417  0.1319
26144W        W69197  26.216  17.298  17.979 -0.2690  0.2083  0.1205
26145W        W69198   0.813  21.803  24.497 -0.0707 -0.0060  0.1594
26146W        W69199  16.825  25.337  14.199  0.0917  0.0820  0.0059
26147W        W69200   0.020   9.074  14.708  0.0234 -0.1214 -0.2203
26148W        W69201  26.933  15.056  18.090 -0.2829 -0.1289  0.1025
26149W        W69202   3.133  18.830  19.485 -0.2926 -0.0559 -0.0575
26150W        W69203  19.663   9.265  15.968 -0.1106 -0.3137  0.3166
26151W        W69204  30.055  25.542  25.790 -0.0944 -0.2487 -0.1198
26152W        W69205  31.071  29.349  20.529 -0.5070 -0.3090 -0.0751
26153W        W69206  33.763  23.097  18.138 -0.3303  0.3144 -0.2210
26154W        W69207  10.885  27.081  15.659 -0.0433  0.0683 -0.0514
26155W        W69208  29.578  25.777  18.845  0.0792 -0.0430 -0.0659
26156W        W69209  29.216  30.400  14.998 -0.1296  0.1613 -0.0924
26157W        W69210  31.924   2.966  26.208 -0.3103 -0.2882  0.0128
26158W        W69211   6.214  17.745  22.472  0.0645  0.0848 -0.3869
26159W        W69212   2.684  33.919  19.471  0.1503  0.1579  0.2278
26160W        W69213  22.141  25.644  17.305 -0.2964 -0.0346 -0.1376
26161W        W69214  22.370  29.012  20.361  0.1169  0.1869  0.0921
26162W        W69215   4.902  28.894  26.219 -0.1784 -0.0742 -0.0852
26163W        W69216  24.800  12.335  24.253 -0.1058 -0.1277  0.1575
26164W        W69217  16.157   0.658  21.517  0.1044 -0.4347  0.0809
26165W        W69218  19.934  26.112  20.438  0.0609 -0.2262  0.1337
26166W        W69219  18.580  15.249  23.687 -0.1920  0.0262  0.1530
26167W        W69220  15.018   4.599  24.710 -0.2065 -0.0628  0.0744
26168W        W69221  28.173  31.109  24.540  0.1185 -0.1163 -0.2486
26169W        W69222   9.275  11.835  23.193 -0.3237  0.0388  0.0341
26170W        W69223  24.373  22.283  14.053  0.1592 -0.2054 -0.0812
26171W        W69224   0.116   5.825  19.478 -0.3718  0.1072  0.3467
26172W        W69225  30.943  20.950  14.820 -0.0084 -0.0262 -0.0693
26173W        W69226   8.469  32.097  25.168  0.0042  0.1585  0.2086
26174W        W69227  29.662  20.891  16.330  0.0362  0.2488  0.0936
26175W        W69228  20.782   8.091  13.869 -0.0909 -0.2146 -0.2454
26176W        W69229  20.561  25.082  22.610  0.0563  0.0332 -0.2520
26177W        W69230   9.722  17.582  20.994 -0.2314 -0.4327 -0.1114
26178W        W69231  33.093  29.257  13.497 -0.2557  0.1522 -0.0803
26179W        W69232   1.157  24.669  21.545 -0.2211 -0.2467  0.0968
26180W        W69233  21.521  22.724  19.076  0.3170  0.2415  0.0541
26181W        W69234  29.327  19.021  14.873  0.0754 -0.0234 -0.2138
26182W        W69235  34.543   1.680  18.022 -0.2116  0.0465 -0.3557
26183W        W69236  33.035  11.900  14.515 -0.0451  0.2225  0.0126
26184W        W69237  22.345  18.245   6.551  0.3282  0.2470  0.0630
26185W        W69238  33.701  14.645  17.443 -0.2754  0.0132 -0.1381
26186W        W69239  24.161  31.547  24.573 -0.0769  0.2651  0.1274
26187W        W69240   0.941   3.593  13.376 -0.0443 -0.3076  0.0986
26188W        W69241  25.941  27.997  19.279  0.1022 -0.0074  0.0177
26189W        W69242  24.662  20.703  16.105 -0.0647 -0.3385 -0.2703
26190W        W69243  29.995  33.145  22.074 -0.2128  0.0514 -0.0201
26191W        W69244  26.527  29.461  15.966 -0.0413 -0.0363  0.0048
26192W        W69245  29.385  30.463  18.086  0.1532  0.2126  0.1027
26193W        W69246  31.589  30.980  18.739 -0.0394  0.0561 -0.0220
26194W        W69247   7.589   3.141  25.678  0.2812  0.1768  0.0836
26195W        W69248  18.458  24.701  15.705 -0.5236 -0.0463 -0.2543
26196W        W69249  15.742   0.737   1.816 -0.1220 -0.0325  0.1266
26197W        W69250  31.255  21.695  24.066  0.0254 -0.0177 -0.2074
26198W        W69251  26.106  30.044  16.452 -0.2426 -0.2599  0.0597
26199W        W69252  26.469  27.977   1.766 -0.0642 -0.0883  0.1702
26200W        W69253   0.777  31.088  14.749 -0.0256  0.0580 -0.0178
26201W        W69254  31.682  11.845  23.376 -0.2096 -0.1197  0.0764
26202W        W69255   5.159  33.028  18.987 -0.2011 -0.1703 -0.1349
26203W        W69256   5.562  33.801  14.530 -0.1015 -0.0427  0.2631
26204W        W69257   1.899  31.042  20.133 -0.1224 -0.2133  0.1271
26205W        W69258   6.800  24.027  27.713 -0.3289  0.1248 -0.0019
26206W        W69259  34.543  26.119  22.054 -0.1449  0.0420 -0.1306
26207W        W69260  12.290  21.196  24.341  0.0374 -0.2013 -0.0250
26208W        W69261   1.185  28.800  17.324  0.0345 -0.2208  0.1364
26209W        W69262  28.602   1.319  23.496 -0.1831 -0.1189  0.1093
26210W        W69263  23.052  34.466  18.417  0.0259 -0.1650 -0.1050
26211W        W69264  16.109  12.123  23.575  0.1269 -0.0830 -0.1657
26212W        W69265  23.247  18.883  16.368  0.1974  0.0032 -0.1839
26213W        W69266  34.104   4.344  18.767 -0.1050 -0.1729 -0.2483
26214W        W69267  19.631  26.632  24.273  0.1731  0.3149  0.0162
26215W        W69268  20.477  14.648  19.736  0.2054 -0.0156  0.3820
26216W        W69269  30.502  30.749   2.627 -0.2709  0.1607  0.2438
26217W        W69270   2.224  16.311   0.299  0.1220  0.2815  0.0220
26218W        W69271  33.549  25.319  22.344  0.1429  0.1101  0.1338
26219W        W69272  25.220  29.016  19.046 -0.2618  0.1070 -0.0412
26220W        W69273  34.436  22.632  21.104  0.1426  0.1760 -0.2192
26221W        W69274  33.844  27.444  16.010 -0.1481  0.3524  0.1544
26222W        W69275   9.818  32.004  14.367 -0.2248 -0.0644 -0.0361
26223W        W69276  24.595  25.373  15.012  0.1781  0.0571  0.0755
26224W        W69277  29.789  32.010  14.633  0.0815 -0.2074 -0.0156
26225W        W69278  20.614  29.556  23.091 -0.2043  0.1524 -0.0250
26226W        W69279  21.912  28.139  20.522  0.0324 -0.0779 -0.0189
26227W        W69280  10.776  10.233  22.358 -0.0418 -0.2270 -0.0593
26228W        W69281  32.157  21.666  14.247 -0.3639  0.0551 -0.1718
26229W        W69282  15.949  26.931  18.442  0.0895 -0.1222  0.0882
26230W        W69283   3.269   9.804  24.430 -0.1501 -0.0308  0.0610
26231W        W69284  33.634  14.697  14.208  0.2638 -0.1671  0.1835
26232W        W69285  23.983  23.499  20.000  0.3470 -0.1997  0.0051
26233W        W69286  13.552   1.273  17.381 -0.2088  0.0737 -0.0237
26234W        W69287  31.477  20.160  21.990 -0.1379 -0.1086  0.1042
26235W        W69288   7.774   0.760  25.419  0.0839  0.0105  0.1777
26236W        W69289  26.974  12.543  16.233 -0.1925  0.0498  0.0163
26237W        W69290  25.095  31.668  24.588 -0.0024  0.1326 -0.2039
26238W        W69291  27.236  28.196   0.833 -0.1892 -0.0868  0.0348
26239W        W69292  23.642  16.846  23.044  0.0217 -0.2401  0.0743
26240W        W69293  18.308  34.550  27.862 -0.2120  0.3890 -0.1982
26241W        W69294   4.790   9.401  17.477 -0.3310 -0.2622 -0.1070
26242W        W69295   8.332   2.904   0.687 -0.0838  0.0940 -0.2228
26243W        W69296  25.651  14.418  23.997  0.0081  0.2543  0.0486
26244W        W69297  23.590   4.240  14.170 -0.3155 -0.5045  0.2843
26245W        W69298  10.748  20.044  16.908  0.2890 -0.1213 -0.0147
26246W        W69299   0.825  23.870   3.020 -0.0086  0.1019 -0.1428
26247W        W69300   3.151  11.094  27.695  0.0020  0.3366  0.0865
26248W        W69301  33.894  11.807  25.460 -0.2811  0.1030 -0.0309
26249W        W69302  10.556  19.256  22.426 -0.0637 -0.1591  0.0694
26250W        W69303  22.208  24.307  26.329  0.0890 -0.0075 -0.0600
26251W        W69304  26.616  29.560  16.572 -0.2695 -0.2353  0.1918
26252W        W69305  22.534  22.443  23.209 -0.3266  0.0912 -0.1295
26253W        W69306  25.102  23.793  22.566 -0.0120 -0.1435  0.1970
26254W        W69307  25.476  27.217  15.368 -0.0230 -0.1656 -0.3505
26255W        W69308   7.502  21.306  27.822  0.0469  0.0695  0.2671
26256W        W69309  10.582   6.337  23.999  0.0762 -0.0698 -0.0153
26257W        W69310  13.173  25.097  18.091  0.1804  0.2819  0.0119
26258W        W69311   0.642  15.072  13.455  0.2814  0.1305 -0.0093
26259W        W69312  31.173  33.546  28.443 -0.3047 -0.0232  0.1150
26260W        W69313  28.404  13.931  22.525  0.2464 -0.2263 -0.1480
26261W        W69314  32.809   5.961  20.249  0.1044  0.2548 -0.0126
26262W        W69315  25.619   0.500  24.511  0.3568 -0.1908 -0.0756
26263W        W69316   6.554  29.826  25.220 -0.0339  0.2919 -0.1100
26264W        W69317  31.423  20.879  20.896 -0.2496 -0.0965 -0.1152
26265W        W69318  33.787  10.969  18.245  0.0586 -0.0662  0.1077
26266W        W69319  31.103  25.691  20.663  0.1805 -0.2761 -0.1294
26267W        W69320  27.467  10.262  26.319 -0.0371  0.1313  0.0797
26268W        W69321  13.583   1.582   0.733  0.0615 -0.2422  0.0753
26269W        W69322  28.157   6.505  17.117  0.1248  0.0101  0.0476
26270W        W69323  23.454  24.052  21.340 -0.0955  0.0581  0.1810
26271W        W69324   8.510   6.371  21.517 -0.1433  0.0689 -0.1116
26272W        W69325  27.160  33.107  16.091  0.1944  0.1363  0.0328
26273W        W69326  33.095  17.408  19.454  0.1550 -0.0681 -0.0569
26274W        W69327  26.665  21.351  16.482 -0.1215 -0.1787 -0.3239
26275W        W69328  29.469  19.693  16.100 -0.1557 -0.0781  0.0612
26276W        W69329   4.641  28.643   6.740 -0.2491 -0.2747 -0.1173
26277W        W69330  18.663  31.647  20.904 -0.0696 -0.3952  0.0354
26278W        W69331  32.465  24.015  16.444  0.1037 -0.1999 -0.4392
26279W        W69332  13.933  28.037  21.597  0.1958 -0.0157 -0.1509
26280W        W69333  23.023  10.196   5.084  0.0831  0.0568  0.0308
26281W        W69334   9.167  17.314   2.418  0.0247 -0.1788 -0.1031
26282W        W69335  24.194  32.023  19.669  0.0355  0.0192  0.0419
26283W        W69336  27.998  27.478   4.725 -0.2682  0.0886 -0.0936
26284W        W69337  31.772  27.923  15.756 -0.0458 -0.2212 -0.0934
26285W        W69338  33.013  31.677   4.092 -0.1081  0.0893  0.0198
26286W        W69339  25.876  34.645  14.253 -0.1553  0.2316  0.1985
26287W        W69340  31.928  30.148  21.435  0.4311 -0.2181  0.1694
26288W        W69341  23.333   9.528  23.293  0.2018  0.3038 -0.4044
26289W        W69342  26.330  16.292  16.740 -0.1977 -0.1091 -0.1136
26290W        W69343  27.294  32.934   0.484 -0.1006 -0.1720 -0.3662
26291W        W69344  26.088  32.666  17.931  0.0571  0.0484 -0.0044
26292W        W69345   7.221  32.367  17.262  0.0753  0.0787  0.3964
26293W        W69346  33.373  18.014  16.904  0.0102  0.1167  0.1292
26294W        W69347  27.002  17.142  25.274 -0.2065 -0.1761 -0.1476
26295W        W69348  13.225  24.601  25.606 -0.0021  0.0113  0.0065
26296W        W69349   0.795  34.368  15.960  0.0326  0.0903 -0.2414
26297W        W69350  24.316  27.804  22.299  0.2729  0.0820 -0.5929
26298W        W69351   6.078  33.539  17.914 -0.1039 -0.0785  0.0419
26299W        W69352  34.623  21.249  16.988 -0.2737  0.2985 -0.2462
26300W        W69353  24.355  34.040  23.953  0.0186 -0.0280 -0.4357
26301W        W69354   0.886  22.380  22.229  0.2401 -0.4076 -0.2768
26302W        W69355  33.235  23.118  19.450 -0.2847  0.0304  0.1298
26303W        W69356  16.290  29.186  18.868  0.1820  0.1970 -0.0028
26304W        W69357   9.240  20.396  24.328 -0.0699 -0.0373 -0.2841
26305W        W69358  30.503  21.147  18.796 -0.0938  0.0858  0.0873
26306W        W69359  23.185   2.614  17.724  0.1179 -0.1026 -0.1792
26307W        W69360   1.408  29.549  15.601 -0.0260  0.2375  0.0018
26308W        W69361   3.464  31.153  16.280 -0.1644  0.0660  0.0592
26309W        W69362  29.911   4.201  15.790 -0.0275  0.0229 -0.4407
26310W        W69363  18.759   6.473  15.568  0.4873 -0.0307  0.0596
26311W        W69364  26.891  30.900  14.284 -0.0932  0.0679 -0.0327
26312W        W69365  25.131  14.786  23.141  0.3247  0.0324  0.0848
26313W        W69366  33.290  25.145  27.087  0.0545 -0.0160  0.0763
26314W        W69367   1.552  21.265  18.122  0.2232  0.0866  0.2006
26315W        W69368  20.322  32.536  18.773 -0.0674 -0.2920 -0.0990
26316W        W69369   9.000  31.548  16.830 -0.2675 -0.1827  0.2653
26317W        W69370  29.876  27.378  16.293  0.0149  0.1647 -0.0126
26318W        W69371  21.921  17.545  23.128  0.2230 -0.1052 -0.0900
26319W        W69372  24.186  15.675  17.899  0.2146  0.2847 -0.3376
26320W        W69373  18.529  33.104  24.433  0.1108 -0.1259  0.1396
26321W        W69374  14.411  30.813  27.067  0.0746  0.0535  0.0194
26322W        W69375  30.109  23.388  24.430 -0.0276 -0.0639  0.0375
26323W        W69376   3.698  20.471  25.518 -0.0576  0.4148  0.1612
26324W        W69377  11.447  11.479  27.118 -0.4340  0.0294  0.0090
26325W        W69378  11.353   7.857  19.636  0.0033  0.0633  0.1544
26326W        W69379  14.597  10.611  26.287 -0.0637 -0.2549 -0.0224
26327W        W69380   6.676  11.881   2.307  0.0244  0.2478  0.1609
26328W        W69381   0.805  25.787  14.873 -0.1238 -0.1503 -0.0629
26329W        W69382  14.635  11.051   2.161  0.1801 -0.1339  0.3625
26330W        W69383  22.159  29.298  16.244  0.1193  0.0870  0.4136
26331W        W69384  32.065  20.200  20.265 -0.1179 -0.0046 -0.1652
26332W        W69385   2.097  14.131  14.180  0.2461 -0.3544  0.0763
26333W        W69386   6.616  18.804  20.366  0.1268  0.0020  0.1077
26334W        W69387  31.585   7.862  20.334  0.2066 -0.1671  0.0679
26335W        W69388  17.155  28.535  15.541  0.4039 -0.0856  0.0830
26336W        W69389  10.008  18.777  23.312 -0.1349  0.1006 -0.0287
26337W        W69390   0.473  22.112  26.349  0.1644 -0.2421  0.0050
26338W        W69391  28.223   0.040  16.300 -0.3098 -0.0755  0.1713
26339W        W69392  34.069  11.552  14.476 -0.3279  0.0116 -0.0458
26340W        W69393  19.865  18.793  25.791 -0.1024 -0.2406  0.2150
26341W        W69394   6.485   0.829  17.414 -0.1419 -0.1403 -0.0528
26342W        W69395  26.531  29.817  19.917 -0.3456 -0.0177 -0.1340
26343W        W69396  22.561  24.483  22.681 -0.0686 -0.1284 -0.2022
26344W        W69397  33.960  28.952  27.427 -0.1451 -0.0843  0.1185
26345W        W69398   8.534  29.824   5.754 -0.0651 -0.0958  0.2698
26346W        W69399  20.348  14.595  18.929  0.0459 -0.0893  0.3072
26347W        W69400  24.552  27.433  17.447  0.1602 -0.1771 -0.2089
26348W        W69401  28.994  19.032  17.438  0.0496 -0.2239  0.2779
26349W        W69402  27.647  25.118  20.500 -0.2050  0.0769 -0.0243
26350W        W69403  19.633   5.691  17.966 -0.2844  0.0085 -0.1962
26351W        W69404  11.608  31.546  25.143 -0.0081 -0.0026 -0.0292
26352W        W69405  13.724  27.898  24.285  0.0022  0.1178  0.2184
26353W        W69406   6.803  22.771  19.386  0.0000  0.1940 -0.4207
26354W        W69407  34.216  31.542  16.537 -0.0160  0.1395  0.3903
26355W        W69408   1.613  28.157  28.016 -0.2512 -0.2012 -0.2358
26356W        W69409  29.640  32.406  17.181  0.2570 -0.1222  0.0230
26357W        W69410  27.313  30.925  22.811 -0.2203  0.2131 -0.0211
26358W        W69411  11.261  29.160   0.525  0.0818 -0.1711 -0.1554
26359W        W69412  27.646  24.960  19.627  0.2881  0.0599  0.2215
26360W        W69413  25.544  11.591  20.105 -0.1260  0.2540  0.0955
26361W        W69414   5.614  27.981  13.628  0.0897 -0.2828 -0.0577
26362W        W69415  26.011  24.094  16.376  0.0994 -0.0666  0.2133
26363W        W69416  17.185   1.889   0.971  0.0530 -0.2518 -0.1874
26364W        W69417  27.190  31.286  17.891  0.1729  0.0497 -0.0238
26365W        W69418  15.551  32.848   1.104 -0.2998 -0.2938  0.0878
26366W        W69419  21.334  22.254  18.049 -0.2273  0.0529 -0.0261
26367W        W69420  25.584   3.147  17.534 -0.1341  0.0073  0.0507
26368W        W69421  34.573  29.776   3.085  0.0279  0.1126  0.0498
26369W        W69422   1.508  24.348   4.923 -0.0226 -0.2407 -0.0866
26370W        W69423  25.803  22.430  18.071  0.6677 -0.2019 -0.0121
26371W        W69424  30.896  32.038   1.021  0.1467 -0.1722 -0.1394
26372W        W69425  24.922  24.073  23.588 -0.1487 -0.2200 -0.0883
26373W        W69426  17.969   0.784   0.381 -0.0643 -0.0711 -0.3386
26374W        W69427  24.472  26.812  15.233  0.2125 -0.0397 -0.0767
26375W        W69428  17.431  23.873  14.215 -0.1182 -0.1265  0.0718
26376W        W69429  29.913  32.330   1.549  0.1147 -0.0912 -0.0538
26377W        W69430  23.384  14.147  15.851  0.0982 -0.0263  0.3922
26378W        W69431  19.323  29.012  26.903  0.0090 -0.3134  0.0346
26379W        W69432   4.740  11.672  23.841 -0.2553 -0.0895 -0.0199
26380W        W69433  22.330  34.079   1.064  0.3198 -0.3807  0.0138
26381W        W69434  26.851  19.977  21.298 -0.0583  0.2634 -0.0968
26382W        W69435   0.100  30.814   6.609 -0.0436  0.1126 -0.1458
26383W        W69436   6.558   0.776  28.729  0.0201 -0.1056  0.2450
26384W        W69437   4.307  25.376  16.220  0.0845 -0.1856 -0.3872
26385W        W69438  30.538   1.605  19.152 -0.0330  0.1828 -0.1262
26386W        W69439   3.520  10.081  26.934 -0.1674 -0.0173 -0.3063
26387W        W69440  30.966  28.418  21.716 -0.4809  0.2436  0.0643
26388W        W69441  23.363  34.430   1.076  0.0909 -0.0345 -0.1123
26389W        W69442  32.870  20.824  16.079 -0.1869  0.2303 -0.2138
26390W        W69443  23.644   4.567  17.428 -0.1529  0.1201 -0.0899
26391W        W69444  34.345  18.862   0.082  0.0823 -0.0109  0.0189
26392W        W69445   0.632  21.619  16.258 -0.0441  0.3146  0.0070
26393W        W69446  33.503  27.602  27.038 -0.0206 -0.1650  0.4000
26394W        W69447   4.533  25.135  15.284 -0.1944 -0.1755  0.0124
26395W        W69448  32.424  22.683  20.570 -0.1012  0.0092 -0.1705
26396W        W69449   5.402  10.871   1.539 -0.1175  0.1648  0.0261
26397W        W69450  27.749  31.023  27.335 -0.0235  0.1913 -0.1268
26398W        W69451   3.199  32.221  19.001  0.0513 -0.2735  0.2015
26399W        W69452  30.920  21.562   5.766  0.0987  0.4807  0.0005
26400W        W69453  19.895   4.146  14.670  0.0848  0.4095 -0.0252
26401W        W69454   2.768  19.330  18.501  0.0743 -0.0990  0.0993
26402W        W69455  14.465  26.859  13.896  0.1340  0.1944  0.1404
26403W        W69456   8.367  33.779  16.086 -0.2731 -0.1229 -0.2154
26404W        W69457   6.499  25.544  16.295  0.3077  0.2271 -0.2132
26405W        W69458  28.544  25.317  16.309 -0.1149 -0.0911  0.0398
26406W        W69459   0.542  23.814  23.380 -0.1413 -0.0030  0.1988
26407W        W69460  22.638  24.646   2.451 -0.0141  0.3866  0.2900
26408W        W69461  22.464  31.557  20.368  0.2828  0.2789 -0.2273
26409W        W69462  30.605  25.129  25.799  0.0782 -0.1571  0.0752
26410W        W69463  14.373  23.374  21.828  0.3223  0.0731 -0.4437
26411W        W69464  21.588   8.157  17.681  0.1445 -0.0567  0.0315
26412W        W69465  12.344  28.821  25.274 -0.4908 -0.1414 -0.1008
26413W        W69466   0.119  32.617  17.165  0.2424  0.1524  0.4565
26414W        W69467   7.259  28.977  19.513 -0.0792 -0.1306  0.0130
26415W        W69468   7.486  30.487   1.565  0.2408 -0.0953  0.0066
26416W        W69469   1.961  28.108  18.633 -0.0277 -0.1015  0.1982
26417W        W69470  10.471   1.047  26.718  0.1987 -0.2968  0.1566
26418W        W69471   8.987   4.562  22.492  0.3086  0.0462 -0.0904
26419W        W69472  30.006  24.791  13.951 -0.2061 -0.1941  0.1402
26420W        W69473  16.231  25.074  20.915  0.1280  0.0561  0.1223
26421W        W69474  27.699  25.225  14.421  0.1759 -0.0501  0.1852
26422W        W69475   1.810  27.685  23.320  0.2562 -0.0856  0.0660
26423W        W69476   5.896   4.421  22.884 -0.1396  0.0811  0.2047
26424W        W69477   2.922   5.995  24.287 -0.2385 -0.2931 -0.0535
26425W        W69478  32.251  30.325  18.740 -0.0687  0.1136 -0.2052
26426W        W69479  17.753  22.310  20.898 -0.0969  0.3405  0.0218
26427W        W69480  12.948  31.605  22.963 -0.1634  0.3169  0.0360
26428W        W69481  28.148  31.895  16.734 -0.1086 -0.1154  0.0510
26429W        W69482   3.530  25.988   7.074 -0.3716 -0.0427 -0.2727
26430W        W69483  19.914   4.073  17.999 -0.0156 -0.0002 -0.1322
26431W        W69484  10.067   6.004  27.267  0.0987 -0.1999  0.0806
26432W        W69485  20.193   5.639  21.167 -0.0265 -0.1687  0.0661
26433W        W69486  33.917   1.801  25.618 -0.0798 -0.0829 -0.2574
26434W        W69487  34.387  25.928  25.771  0.1326  0.0608  0.0663
26435W        W69488  24.399  22.040  16.934  0.1646  0.1116 -0.0138
26436W        W69489  34.500  15.585  18.955  0.1720  0.3430  0.3767
26437W        W69490  33.501  19.643  23.257  0.1787  0.3000  0.0168
26438W        W69491  24.616  18.233  20.368 -0.0153 -0.0405  0.1786
26439W        W69492   0.971  28.406  17.423  0.0768  0.0613 -0.1592
26440W        W69493   3.418  10.644  27.653 -0.2565  0.2429 -0.0734
26441W        W69494  30.208   6.504  18.843 -0.0529  0.4953 -0.3558
26442W        W69495  32.131  14.176  22.489  0.1815 -0.2227 -0.1476
26443W        W69496   9.179  27.550  18.244 -0.0714 -0.1975 -0.1680
26444W        W69497  33.162  29.702   3.231  0.1013  0.0077  0.0271
26445W        W69498  32.432  26.327   0.928  0.1905 -0.2719  0.3269
26446W        W69499   2.816  28.860  14.745  0.2216 -0.0947 -0.0629
26447W        W69500   0.741  32.627   2.787  0.1955  0.0402  0.0870
26448W        W69501  28.501   1.825   4.107 -0.0010 -0.0051 -0.1222
26449W        W69502  10.368   2.483  23.293 -0.2625 -0.1234 -0.0668
26450W        W69503  18.794  31.747  22.386 -0.0732  0.2432 -0.0741
26451W        W69504  17.865  30.712  14.650 -0.2985  0.0947  0.1181
26452W        W69505  30.444  20.517  17.109  0.2627 -0.3568  0.1586
26453W        W69506  15.643   5.522  25.781 -0.3302  0.2399  0.0014
26454W        W69507   0.570   3.692   3.833 -0.3577 -0.1702  0.2156
26455W        W69508   4.340  30.485  15.371  0.2013 -0.1432 -0.0064
26456W        W69509  32.066   6.935  15.382 -0.1172  0.3536 -0.1318
26457W        W69510  27.475  21.417  19.740  0.1053 -0.0118 -0.0188
26458W        W69511  26.457  31.004  23.728  0.1957  0.0759  0.0061
26459W        W69512  22.776  28.150  21.174 -0.1206 -0.0210  0.1157
26460W        W69513   0.025  32.554   5.490 -0.3275  0.0364  0.2064
26461W        W69514  34.547  12.093  24.419  0.2454  0.6125 -0.2109
26462W        W69515  31.681   2.387  25.960  0.1347 -0.0303  0.0297
26463W        W69516  28.528  27.260  28.111 -0.2797  0.0011 -0.0160
26464W        W69517  25.115  23.604  16.593 -0.0239 -0.1556  0.1552
26465W        W69518  29.609   3.612  15.705  0.1210 -0.4009 -0.2539
26466W        W69519  27.370  14.711  13.729  0.3802 -0.2151 -0.0040
26467W        W69520  20.698  31.443  16.583  0.3700  0.2253 -0.0797
26468W        W69521  23.398  25.328  21.025  0.3023 -0.0331  0.3200
26469W        W69522   5.620  29.146  24.383  0.0602  0.0470 -0.2004
26470W        W69523  33.001  22.969  17.460 -0.1011 -0.1412  0.2632
26471W        W69524  34.064  26.382  18.077 -0.1421  0.1694 -0.4475
26472W        W69525   1.513  18.037   9.290  0.4770  0.0654 -0.2162
26473W        W69526   3.274  27.209   8.682 -0.1702  0.0282  0.3128
26474W        W69527  20.373  26.740  14.997 -0.1614  0.2259  0.0478
26475W        W69528   9.987  25.844  22.439 -0.1756 -0.0466 -0.1781
26476W        W69529  25.167  28.643   0.475 -0.1611 -0.0357  0.0160
26477W        W69530   1.456  20.760  22.376  0.1426  0.1968 -0.1766
26478W        W69531  16.896  26.539  15.023  0.1288 -0.1657 -0.0491
26479W        W69532  29.954   2.647  22.375 -0.0089 -0.3948 -0.0330
26480W        W69533  26.079  15.461  17.093  0.2126 -0.0135  0.0663
26481W        W69534  16.663  28.793  20.631  0.1802  0.0192  0.0687
26482W        W69535  15.574  21.948  19.490  0.3614 -0.1127 -0.1778
26483W        W69536   3.144  13.012  15.304  0.0214 -0.1466  0.0251
26484W        W69537  24.914   4.181  27.919  0.0028  0.0327  0.1552
26485W        W69538  18.484  33.490  15.430  0.3737  0.4331 -0.1474
26486W        W69539  32.556  33.799  24.521 -0.2556  0.0923 -0.1235
26487W        W69540  13.295   8.380  25.893  0.3574 -0.0702 -0.2594
26488W        W69541  25.082  30.685  24.031 -0.3016 -0.2258  0.0607
26489W        W69542   5.722   2.189  23.058  0.1457  0.3163 -0.0630
26490W        W69543   6.616   6.067  17.072 -0.3149  0.1205  0.0354
26491W        W69544   4.247  31.098  28.498  0.0105  0.1582 -0.0323
26492W        W69545  33.627  18.864  21.505 -0.3191 -0.0044 -0.1449
26493W        W69546  33.499  23.992  15.242  0.1432  0.3697 -0.1568
26494W        W69547  19.808  34.014  19.634 -0.0123 -0.0705 -0.3007
26495W        W69548  32.239  22.924  25.987 -0.2973 -0.2919  0.2295
26496W        W69549   5.796   9.235  19.572  0.1136 -0.1483 -0.1785
26497W        W69550   3.208   5.710   0.396 -0.0681 -0.1771  0.1939
26498W        W69551  26.646   0.450   0.072  0.0426  0.0114  0.0063
26499W        W69552  24.313   7.334  15.241 -0.0902  0.0010  0.1063
26500W        W69553  21.560   5.347  19.029 -0.0980 -0.0486  0.0011
26501W        W69554  25.020   3.356  22.095 -0.0257  0.0815  0.2589
26502W        W69555  27.026   9.153   6.788  0.0834  0.1328  0.4195
26503W        W69556  23.243  28.881  15.406 -0.0627 -0.3317  0.1187
26504W        W69557   0.398  33.181  18.555 -0.0244 -0.2344 -0.0356
26505W        W69558  15.725  20.739  25.003 -0.4035  0.0933 -0.0734
26506W        W69559  26.125  27.227  27.777  0.1865  0.2610  0.1164
26507W        W69560   6.717   4.448  18.848 -0.0093 -0.0023  0.1426
26508W        W69561  30.062  12.485  21.445 -0.1504  0.2773  0.0309
26509W        W69562   3.594  25.627  15.035 -0.1358 -0.1027 -0.2508
26510W        W69563  29.464   6.640  22.603  0.0304 -0.1505  0.1724
26511W        W69564  24.011  23.948  16.649  0.3521 -0.0620  0.0299
26512W        W69565   2.661  27.028  20.342 -0.2087 -0.2025 -0.1725
26513W        W69566  24.794   5.034  21.168  0.1477  0.0815  0.0833
26514W        W69567  23.267  31.645  14.767 -0.2820  0.3946  0.0309
26515W        W69568  25.667  27.215   1.544 -0.0162 -0.0847  0.4419
26516W        W69569  11.229  23.598  21.326 -0.4627  0.1687  0.0845
26517W        W69570  18.136   0.642  23.892  0.0422  0.2357 -0.1275
26518W        W69571  23.958  18.141  19.195  0.0991 -0.1589 -0.2490
26519W        W69572  32.659  18.773   0.913  0.4393  0.1824 -0.2204
26520W        W69573  28.779  19.204  23.486  0.1936  0.0412 -0.0728
26521W        W69574  15.956  13.678  15.925 -0.0888  0.0591  0.0688
26522W        W69575  24.295  32.014  20.166  0.1241 -0.0168  0.1385
26523W        W69576  16.180  29.718  24.690 -0.3415  0.1986 -0.2164
26524W        W69577  25.204  22.828  15.442 -0.0675 -0.4006 -0.0480
26525W        W69578  29.510  25.336   5.111 -0.1673 -0.0696 -0.0575
26526W        W69579  17.682  11.343   1.448 -0.3727 -0.3063  0.1332
26527W        W69580   0.130  18.421   2.685 -0.1992 -0.0341  0.0692
26528W        W69581  33.164  33.614  27.616  0.0206 -0.1862 -0.1340
26529W        W69582   6.006   1.156  25.730  0.0724 -0.2913  0.0314
26530W        W69583  30.481   9.561  16.323  0.1356 -0.1759 -0.1958
26531W        W69584  30.704  25.110  21.950  0.2799  0.1451 -0.0947
26532W        W69585  12.759  29.213  19.004 -0.0068  0.1212 -0.0502
26533W        W69586  31.157  28.802  26.094 -0.0278 -0.0545  0.0653
26534W        W69587  31.935  32.879   0.772  0.0903 -0.2535  0.0496
26535W        W69588  23.438  33.455  27.408 -0.1626 -0.1255 -0.2157
26536W        W69589  12.530   1.424  19.264  0.3760  0.2288 -0.1649
26537W        W69590  24.270  24.660  21.977  0.3359  0.1969  0.0498
26538W        W69591   1.096  31.707  15.027 -0.0215 -0.0777  0.0502
26539W        W69592  25.956  16.870  15.208 -0.0528 -0.2993  0.0653
26540W        W69593  28.308  22.688  20.127  0.0370  0.1758 -0.1129
26541W        W69594  28.063  34.223  18.956  0.2604 -0.2268 -0.2493
26542W        W69595  19.104   1.727  27.672  0.1767  0.1151 -0.0473
26543W        W69596  24.561  17.279   2.856 -0.1492 -0.0456  0.0337
26544W        W69597  34.066   0.122  20.383  0.1421  0.4498  0.1603
26545W        W69598  19.054  13.916  16.690 -0.2279  0.0942  0.0916
26546W        W69599   3.060  21.667  17.197  0.1125  0.1359 -0.2164
26547W        W69600  34.099  18.246  19.268 -0.0375  0.2675  0.0447
26548W        W69601  24.564  32.744  25.357  0.1832  0.0964 -0.1215
26549W        W69602   3.649  24.716  22.421  0.0067 -0.1142  0.0428
26550W        W69603  27.818  33.018  15.292 -0.1223 -0.1638 -0.2888
26551W        W69604   6.365  14.723   0.499  0.1468 -0.1061 -0.0940
26552W        W69605  16.984  14.243   2.325 -0.2839  0.1416 -0.2799
26553W        W69606  18.499   2.855  20.100 -0.0188 -0.0887  0.0594
26554W        W69607  21.468  34.552  17.178  0.1143 -0.2289  0.0555
26555W        W69608  13.447  26.542  15.349  0.0832  0.3195  0.1046
26556W        W69609   0.088  24.931   1.388 -0.2058 -0.4069  0.0965
26557W        W69610  30.429   0.610  16.617 -0.2846 -0.2812 -0.0966
26558W        W69611  12.240  28.862  28.731 -0.0034 -0.1290 -0.2937
26559W        W69612  28.624  31.894   2.065 -0.1123 -0.1489  0.0806
26560W        W69613  33.858  12.931   0.075 -0.0083 -0.3728 -0.1003
26561W        W69614  34.322  28.718   4.087 -0.7860  0.1964 -0.1656
26562W        W69615  29.164   4.804  15.010  0.0384 -0.2671  0.0024
26563W        W69616  15.333   9.470  18.574 -0.0224 -0.0554  0.0901
26564W        W69617  25.834   9.072  25.293 -0.2346  0.1285 -0.1989
26565W        W69618  30.135  33.956  26.108 -0.1940  0.0190  0.0131
26566W        W69619  19.972   1.987   2.480 -0.0366  0.0548  0.2232
26567W        W69620  24.522  22.197  20.149  0.3403 -0.2990 -0.0450
26568W        W69621  26.632  22.679   1.052 -0.0374  0.1935 -0.0261
26569W        W69622  33.527  24.643  17.156  0.1157 -0.1812  0.1905
26570W        W69623  17.151  34.181  28.605  0.0132  0.0709 -0.0132
26571W        W69624  25.404  20.698  22.636 -0.1821 -0.1182 -0.2283
26572W        W69625   6.702  21.450  15.969 -0.1420  0.1646  0.0928
26573W        W69626  33.144  31.395  23.709 -0.1940 -0.2024  0.2189
26574W        W69627   3.615  28.305  20.186  0.2429  0.0476 -0.2248
26575W        W69628   9.285   1.171   7.796 -0.5477 -0.3432  0.3948
26576W        W69629  28.350  27.970  18.128 -0.1751 -0.0644  0.1258
26577W        W69630  23.963  23.739   5.568  0.0151  0.2255  0.0792
26578W        W69631   1.118   6.237   0.218 -0.1633  0.2968 -0.0099
26579W        W69632   6.420  20.740  24.789  0.0854 -0.1838 -0.3206
26580W        W69633   7.206  25.916  17.543 -0.3218 -0.2876 -0.1580
26581W        W69634  31.258  11.818  17.537 -0.2423 -0.1639  0.1255
26582W        W69635  14.711  20.152  17.207  0.0944  0.0392 -0.0192
26583W        W69636  30.908  22.622  25.108 -0.0327  0.1194  0.0479
26584W        W69637   6.421  19.695  15.358 -0.0047 -0.1089 -0.0703
26585W        W69638  11.371  14.348  26.780 -0.0946 -0.2675 -0.0573
26586W        W69639  25.323   0.428   6.224  0.1467 -0.2599  0.1431
26587W        W69640   0.219  32.748  10.215 -0.2501 -0.1600 -0.2584
26588W        W69641  32.455  24.867  23.403 -0.3204 -0.4170  0.0595
26589W        W69642  18.642  24.365  16.647 -0.2072  0.2937 -0.3861
26590W        W69643  32.618  19.288  15.552  0.0328 -0.0286 -0.2246
26591W        W69644  27.364   1.265   2.506 -0.0107  0.1632 -0.0377
26592W        W69645  23.842  15.607  21.095  0.0860 -0.2318 -0.0782
26593W        W69646  32.240  31.050  15.935  0.0298  0.0130 -0.0886
26594W        W69647  26.706  19.584  20.479  0.2188 -0.0166  0.0757
26595W        W69648   8.614   2.328  19.116 -0.0216 -0.0734 -0.1249
26596W        W69649  21.750  21.053  15.671 -0.2100  0.0177 -0.0786
26597W        W69650  23.838  24.689  10.413  0.0055 -0.0451  0.3145
26598W        W69651  26.282   7.369  22.684  0.1489 -0.2362 -0.1551
26599W        W69652  30.383  20.319  15.545 -0.1771 -0.1570 -0.1903
26600W        W69653  10.953  19.901  21.619 -0.0556 -0.1425 -0.0241
26601W        W69654   3.230  33.148  18.590  0.1127 -0.2249  0.1125
26602W        W69655  29.533  31.145  17.646  0.1373  0.2624 -0.3180
26603W        W69656   6.644  27.281   8.130 -0.2525 -0.1692 -0.0397
26604W        W69657  23.856  33.560   4.632  0.2707  0.0664  0.0088
26605W        W69658  26.418   1.560   0.108  0.0960  0.0536  0.1325
26606W        W69659   5.800  30.531  23.606 -0.2241 -0.2921  0.1460
26607W        W69660  26.654   5.481  23.792 -0.1573  0.2391  0.2070
26608W        W69661  25.864  16.806  18.032 -0.3899 -0.3750  0.0425
26609W        W69662  10.014  21.569  19.506  0.0218  0.0320  0.2479
26610W        W69663   1.890   2.815  16.729  0.1675 -0.1743  0.1960
26611W        W69664  27.200  31.682  28.413  0.0154 -0.1710 -0.2051
26612W        W69665  27.464  18.612  22.969 -0.0279  0.0569 -0.1530
26613W        W69666  23.547  34.687  29.043 -0.2694  0.2373  0.0621
26614W        W69667  29.034  11.673  18.402 -0.3828  0.1561  0.3722
26615W        W69668  25.337  15.843   6.230 -0.1814 -0.0263  0.2353
26616W        W69669  29.923  19.986  16.418  0.2266  0.1182  0.2622
26617W        W69670  23.772  21.645  17.771 -0.0627  0.2433 -0.1132
26618W        W69671  19.947  33.658  20.971 -0.3765  0.0853 -0.2227
26619W        W69672  29.265  20.785  23.376 -0.3801 -0.1259 -0.1413
26620W        W69673   1.988  23.625  14.157 -0.0289  0.0241 -0.1495
26621W        W69674  17.744  12.968  22.044 -0.1446 -0.1523 -0.1608
26622W        W69675  22.788  24.384  27.969 -0.2125  0.1502 -0.0720
26623W        W69676  16.835  20.423  22.199  0.0845  0.1563 -0.1589
26624W        W69677  34.680  11.409  15.315 -0.0913  0.1658  0.0366
26625W        W69678  32.006  25.476  18.397 -0.3720  0.1211  0.0851
26626W        W69679  12.158  26.638  22.450  0.1088 -0.1021  0.0452
26627W        W69680  17.198   0.235  14.431 -0.1422 -0.2155  0.1466
26628W        W69681  22.961  21.706  17.957 -0.2219  0.1946  0.1202
26629W        W69682  32.156   1.982  15.505  0.0771  0.1550 -0.0022
26630W        W69683  27.575   0.169  22.886 -0.1742 -0.3173 -0.1822
26631W        W69684   0.845   9.389  18.703 -0.3397  0.1863  0.0619
26632W        W69685  10.810  23.283  14.599  0.3013 -0.2225  0.3284
26633W        W69686  22.841  27.099  22.037 -0.0043  0.1724 -0.4115
26634W        W69687  33.544  28.430  25.063  0.0699  0.0052 -0.0440
26635W        W69688  30.157   2.897  22.001 -0.0292 -0.0504 -0.1730
26636W        W69689  23.345  24.391  29.146 -0.2108 -0.4464  0.2648
26637W        W69690  13.779  26.651  18.324 -0.3342 -0.1397 -0.2091
26638W        W69691  17.613  25.415  18.396 -0.2526 -0.1240 -0.3067
26639W        W69692  20.416  27.744  16.344  0.0715 -0.1540  0.1854
26640W        W69693  27.934  33.199  23.826 -0.0615  0.1227 -0.3313
26641W        W69694  26.032  21.858  14.215 -0.3459  0.2141 -0.0910
26642W        W69695  29.645  26.695  22.515  0.0450  0.3274  0.3174
26643W        W69696  28.911  29.666  24.703  0.3405  0.0324  0.1073
26644W        W69697  34.633  16.233   1.988 -0.0431 -0.1531  0.0954
26645W        W69698  13.082  28.369  18.719  0.4225 -0.0704 -0.0646
26646W        W69699  26.681  18.807  25.757  0.1602 -0.3222 -0.1112
26647W        W69700  23.654  15.435  16.256  0.1225  0.1434  0.0096
26648W        W69701   2.513   5.361  22.717  0.3828  0.1784  0.0236
26649W        W69702   2.845  14.621  26.626 -0.0676  0.1347 -0.2457
26650W        W69703  20.643  24.333  22.763 -0.1788 -0.0618  0.2430
26651W        W69704   4.516  26.806  27.352 -0.0195 -0.4310 -0.0762
26652W        W69705  13.660   2.941  16.098  0.2461  0.4537  0.2130
26653W        W69706  26.178  20.371  28.069  0.3973 -0.0043 -0.0173
26654W        W69707  28.732  21.611  20.063 -0.1268 -0.2095 -0.1758
26655W        W69708  19.793   2.909  24.000 -0.0970  0.3494 -0.1617
26656W        W69709  27.363  20.654  17.615 -0.0665  0.1663  0.1241
26657W        W69710   2.187  13.976  26.156 -0.1114  0.1034 -0.0157
26658W        W69711   2.470  29.536  20.577 -0.0756 -0.1112  0.1258
26659W        W69712  19.126  21.541  13.590  0.0101  0.3205 -0.2765
26660W        W69713  29.511  29.530  18.764  0.1066  0.1650  0.1642
26661W        W69714  32.960  31.837  21.609 -0.0889 -0.2376 -0.1004
26662W        W69715  13.281  30.985  19.607 -0.2563  0.0390  0.2247
26663W        W69716   8.334   4.993  20.660 -0.1396 -0.1162 -0.1021
26664W        W69717  11.898  22.888  18.605 -0.1414  0.3048  0.0786
26665W        W69718  32.751  28.879  14.203 -0.0456 -0.1275 -0.1872
26666W        W69719   2.131   3.577  21.059 -0.1952 -0.1017  0.1853
26667W        W69720   5.418  27.473   2.582  0.3422 -0.1865  0.0545
26668W        W69721   1.503   5.997  16.081 -0.1942 -0.0526 -0.0520
26669W        W69722  20.197   1.782  18.146 -0.0689 -0.0615  0.0644
26670W        W69723   0.660  22.730  18.590 -0.0155  0.1993 -0.0811
26671W        W69724  20.350  22.677  24.063 -0.0672  0.0823 -0.2607
26672W        W69725  30.265   8.691  23.586  0.0267 -0.0838  0.0584
26673W        W69726  29.360  18.096   6.503 -0.5577  0.1109 -0.1250
26674W        W69727   3.908  14.992   3.308 -0.1090  0.1891 -0.1131
26675W        W69728  26.523  29.847   3.310  0.0157  0.2057 -0.1304
26676W        W69729   0.056   4.480  22.011  0.0223  0.1720  0.0475
26677W        W69730   4.077  33.921  27.002  0.0000  0.3050  0.0326
26678W        W69731  19.107  19.553  13.249 -0.0174 -0.0475 -0.0163
26679W        W69732  24.094  27.202  20.030  0.1479  0.0365  0.0499
26680W        W69733  25.123   8.751  24.288  0.1593 -0.2232 -0.2048
26681W        W69734   6.970  34.382  26.310  0.1691  0.2913 -0.0797
26682W        W69735  33.630  32.182  15.409 -0.1933 -0.0015 -0.0854
26683W        W69736  26.925   1.825  15.420  0.3430 -0.0046  0.0849
26684W        W69737   5.340  29.006  19.747  0.1338 -0.1024  0.3476
26685W        W69738  13.696  29.492  18.766  0.2166 -0.4108 -0.0086
26686W        W69739  27.008  29.623  23.348  0.0758  0.0396  0.3520
26687W        W69740   6.578   5.750  21.990  0.0487  0.0221 -0.1059
26688W        W69741  33.311  31.782  19.120 -0.1635  0.2004  0.2769
26689W        W69742  29.686  21.738  14.332  0.0678  0.0091 -0.1245
26690W        W69743  34.537  28.391   5.151  0.0536 -0.3012  0.1889
26691W        W69744  11.794   2.214  19.505 -0.1047 -0.0644  0.0518
26692W        W69745  24.289  30.197  28.458 -0.0136 -0.2218  0.1453
26693W        W69746  24.263  33.648  22.009 -0.1542 -0.1850  0.0095
26694W        W69747  31.600  23.723  29.160  0.0368 -0.1588 -0.1379
26695W        W69748  11.814  29.639  19.673  0.2531  0.0751 -0.0957
26696W        W69749  21.000  21.465  16.212 -0.0619  0.2723  0.2637
26697W        W69750  25.342  20.918  20.493  0.1015  0.0171 -0.0425
26698W        W69751   8.369   6.055  14.837  0.3092 -0.0852 -0.0623
26699W        W69752  26.865  28.397  23.922  0.3110  0.1349 -0.3162
26700W        W69753  30.159  15.512  14.494 -0.1328 -0.0416 -0.0895
26701W        W69754  29.915  32.702  24.201  0.2475  0.0164  0.2296
26702W        W69755   7.769  32.339  14.634  0.2271  0.1136 -0.1022
26703W        W69756  29.009  26.465  17.394 -0.0338 -0.0104  0.0468
26704W        W69757  32.177   3.765  27.729 -0.0716 -0.3072 -0.1547
26705W        W69758   1.567   3.252  19.971 -0.0405  0.3266 -0.0713
26706W        W69759  12.311   8.941  15.815  0.0940 -0.3782 -0.2107
26707W        W69760  16.138  29.923  17.430  0.0430 -0.0749 -0.3814
26708W        W69761  30.167   1.471  15.127  0.4073 -0.0934 -0.1509
26709W        W69762  28.952   6.936  17.159 -0.0780 -0.1390 -0.0196
26710W        W69763   5.097  29.481  28.640 -0.1381 -0.1731 -0.1262
26711W        W69764  25.189  15.460   2.971 -0.5980  0.0074  0.1156
26712W        W69765  33.772  29.445  13.011  0.0163  0.1786 -0.2821
26713W        W69766  25.101  28.019  20.179 -0.1922 -0.0162  0.2242
26714W        W69767  21.569  18.489  19.009  0.0943  0.2189  0.2171
26715W        W69768  29.815  28.695  19.851 -0.2203  0.0289 -0.1054
26716W        W69769  12.169  32.174  22.975 -0.1022 -0.1865  0.0074
26717W        W69770  24.784  14.032  19.407 -0.3218  0.1345 -0.4113
26718W        W69771  32.997  17.940  14.329  0.1821 -0.1585  0.0663
26719W        W69772   8.110  26.206  27.772  0.1332  0.2820 -0.1534
26720W        W69773   8.791  10.978  15.110 -0.0565 -0.0596  0.0692
26721W        W69774  29.436   8.183  22.466  0.1066 -0.1408  0.2281
26722W        W69775   4.692  31.675  22.679 -0.2702 -0.2321  0.1594
26723W        W69776  30.389  18.823  27.633  0.3207 -0.1255 -0.1194
26724W        W69777  21.599  30.776  21.692 -0.1307  0.2364 -0.0051
26725W        W69778  27.471   0.252  14.249 -0.0901  0.1498  0.0201
26726W        W69779  30.168  15.497  21.925  0.2038 -0.5157 -0.0838
26727W        W69780  27.599  31.705  16.012  0.1631  0.1774 -0.1070
26728W        W69781   3.390  21.419   2.624 -0.0517  0.0430 -0.6309
26729W        W69782  29.649  29.130  15.071  0.1312  0.0448 -0.0423
26730W        W69783  30.035   0.450  27.115 -0.0388  0.0362 -0.1178
26731W        W69784   4.654   2.123  21.283  0.1135 -0.3091 -0.2893
26732W        W69785  30.022  22.045   2.336 -0.1489  0.3574 -0.0843
26733W        W69786  31.306  18.713  14.037  0.0676 -0.0590 -0.0463
26734W        W69787  31.645   0.802  17.265 -0.3521  0.4517 -0.0329
26735W        W69788  26.592  33.315  17.270  0.0995  0.3217  0.1275
26736W        W69789  29.751   1.333  18.499 -0.4595  0.1619 -0.2587
26737W        W69790  22.182  32.629  22.458 -0.0300  0.5039 -0.0218
26738W        W69791   2.291   9.133  19.597 -0.3261 -0.0146 -0.1659
26739W        W69792  21.446  21.843  27.601  0.0028  0.0942  0.1497
26740W        W69793   2.292  30.000  15.248 -0.0512  0.0166  0.0056
26741W        W69794   7.634   4.668  18.192 -0.0643 -0.1206 -0.1534
26742W        W69795  34.243  20.096  25.558 -0.3890  0.2897 -0.0536
26743W        W69796  31.534  29.734  29.055  0.0973  0.0848 -0.0447
26744W        W69797  25.399   8.751  16.208  0.1312  0.1879  0.0675
26745W        W69798  27.367  32.256  23.789  0.0408 -0.2045 -0.3225
26746W        W69799  11.563  27.552   0.417 -0.2212 -0.1074  0.0744
26747W        W69800   5.231  29.353  14.912 -0.1984 -0.0623 -0.1947
26748W        W69801  25.520  21.787  26.804 -0.2251 -0.2188 -0.0675
26749W        W69802  30.621  27.243   1.649 -0.0243  0.0101 -0.2237
26750W        W69803  12.494  29.614  27.468 -0.1651 -0.2241 -0.0452
26751W        W69804  26.036   1.131  28.267 -0.2754 -0.2224 -0.0291
26752W        W69805  18.813  26.344  15.989  0.1045 -0.2299 -0.0373
26753W        W69806  25.282  11.503  25.980 -0.0516  0.0865  0.1198
26754W        W69807  27.744  28.003  23.602 -0.0410  0.1640 -0.0307
26755W        W69808  18.442  29.832  19.045 -0.2806 -0.1293  0.0550
26756W        W69809  33.519   6.713  23.827 -0.3736 -0.1238  0.2028
26757W        W69810  24.674  32.741  17.605  0.0765 -0.0216 -0.2079
26758W        W69811  30.549  10.854  26.261  0.2086  0.1821  0.2296
26759W        W69812  21.594   3.476   0.530  0.2825 -0.1931  0.2185
26760W        W69813  12.754  19.501  22.632 -0.1293 -0.0812  0.1502
26761W        W69814  18.104  11.250  17.989 -0.1245  0.2488  0.1148
26762W        W69815  23.113  32.276  25.257 -0.2091  0.1291 -0.2227
26763W        W69816  32.674  10.258  17.532 -0.0899 -0.1199  0.0347
26764W        W69817   2.931  31.765  18.272  0.0729  0.1520 -0.0419
26765W        W69818  23.618   5.875  21.458  0.1422 -0.0037 -0.2159
26766W        W69819  29.195   2.389  24.843 -0.4239 -0.2443 -0.0890
26767W        W69820  15.174  13.475  17.146 -0.0825  0.0207  0.2185
26768W        W69821  20.062  11.643   2.629 -0.0207  0.1954 -0.0672
26769W        W69822   1.575  30.403  17.563 -0.0554 -0.0989 -0.0164
26770W        W69823  24.133   7.041  22.000  0.0952  0.1048 -0.1593
26771W        W69824   4.567  32.882   8.801  0.0982 -0.5720 -0.1014
26772W        W69825  34.145   4.465   7.262 -0.0160 -0.0907  0.0818
26773W        W69826  23.298  21.864  15.613  0.0006 -0.0728  0.0287
26774W        W69827  12.544  22.501  29.160  0.0164 -0.1558  0.2531
26775W        W69828  21.302   5.544  17.548 -0.2055  0.2250 -0.1343
26776W        W69829  17.355   3.485  19.527 -0.1557 -0.3089 -0.0986
26777W        W69830  32.991   9.162  24.203  0.2877 -0.1106 -0.2357
26778W        W69831   7.559  33.811  17.835  0.0323 -0.2504  0.2122
26779W        W69832  24.104  34.072  22.357 -0.3264 -0.2042 -0.0235
26780W        W69833   9.003  30.656  16.814  0.1225 -0.3030 -0.0712
26781W        W69834   5.282  19.279  26.804 -0.0808 -0.0446  0.3428
26782W        W69835  16.177  25.568  26.171  0.1921 -0.2634  0.0255
26783W        W69836  34.579  21.933  17.203 -0.0140 -0.1899  0.3922
26784W        W69837   2.487  31.784  24.672  0.3968 -0.2422  0.0480
26785W        W69838  18.753  34.355  22.386 -0.0387 -0.0599  0.1397
26786W        W69839   0.030  29.025  29.117  0.2394 -0.2151 -0.1525
26787W        W69840  30.224  17.404  24.421 -0.0998  0.0029  0.0019
26788W        W69841  11.564  26.030   8.713 -0.0459  0.2892 -0.3006
26789W        W69842  26.358   0.495  16.040  0.0890  0.1935 -0.1145
26790W        W69843   2.404  23.495  16.617 -0.1266 -0.2488  0.2596
26791W        W69844   2.707  26.109   2.797 -0.0140 -0.0978 -0.0505
26792W        W69845  31.986   4.396  21.768 -0.2697  0.4080  0.1227
26793W        W69846  22.000   3.329  20.354 -0.0615  0.0087 -0.0274
26794W        W69847  17.549  10.699  27.700 -0.2012  0.1158 -0.1203
26795W        W69848   4.920   6.254  22.532 -0.0313  0.1852  0.0767
26796W        W69849  33.602  10.398  18.246  0.0376 -0.0563 -0.1251
26797W        W69850  21.153  24.672   6.873 -0.2915  0.0972  0.0324
26798W        W69851   0.683  23.006   5.054 -0.1614 -0.0089 -0.0000
26799W        W69852   0.707  19.655   9.128  0.0283 -0.4149 -0.1104
26800W        W69853  31.592  24.626   7.088  0.1084 -0.0573 -0.0617
26801W        W69854  31.113   0.161  14.269 -0.0672  0.0683 -0.0069
26802W        W69855  28.642   4.461   9.284  0.0502  0.1102  0.1977
26803W        W69856  21.998  15.345  14.440  0.1296 -0.2819 -0.1643
26804W        W69857  20.682  21.005  22.814 -0.1478 -0.0182  0.1954
26805W        W69858  33.755   9.569  16.141 -0.3447  0.0163  0.0652
26806W        W69859  26.945  31.032   5.217  0.1610  0.0774  0.1410
26807W        W69860  15.642  27.125  22.990 -0.0393 -0.1778  0.1456
26808W        W69861   5.403   1.888  15.347 -0.0081 -0.0619 -0.1256
26809W        W69862   9.963   9.983  18.445 -0.0969 -0.0725  0.1092
26810W        W69863  25.753  20.066  19.055  0.1760 -0.1563 -0.4094
26811W        W69864  14.681  24.576   3.773 -0.1004  0.2316 -0.3690
26812W        W69865   3.649  24.480  25.416 -0.1611 -0.1465 -0.0891
26813W        W69866  27.622  34.073  21.991 -0.1921 -0.3139  0.0968
26814W        W69867   3.975   1.041  24.484  0.0333 -0.1258  0.1273
26815W        W69868  32.971  29.529  18.506  0.0008  0.3544  0.3004
26816W        W69869  23.030  18.119  19.481  0.1177  0.1261 -0.0147
26817W        W69870  32.089  30.032  25.723  0.0770 -0.0234 -0.0621
26818W        W69871   7.493  14.986  25.627 -0.1173 -0.2343 -0.0594
26819W        W69872   5.959   0.177  23.616 -0.0386 -0.0405 -0.2246
26820W        W69873  29.893  25.688  21.411 -0.1000 -0.0999 -0.2611
26821W        W69874   1.530   1.621  16.003  0.1334  0.1843 -0.2101
26822W        W69875  20.164  26.312  16.771 -0.1722  0.0719 -0.1360
26823W        W69876  34.062   0.125  14.850 -0.2287  0.1322 -0.0234
26824W        W69877   9.878  32.616   6.484 -0.0690  0.1741 -0.0708
26825W        W69878  15.085   7.100  21.569  0.1479  0.0229  0.1985
26826W        W69879  27.806   2.790  25.859 -0.1376 -0.2053  0.2909
26827W        W69880   7.839   2.951  21.814 -0.0566  0.0555 -0.2628
26828W        W69881  32.305  20.039  17.262  0.1419 -0.0611 -0.3331
26829W        W69882  26.503  22.584   4.089 -0.0044  0.2581  0.2250
26830W        W69883  22.207  29.603  17.943 -0.0718  0.0776 -0.0571
26831W        W69884  30.782  12.145   8.009  0.1728  0.0182 -0.5766
26832W        W69885  30.475   6.366   1.397 -0.2632 -0.0928  0.1049
26833W        W69886  29.524   1.294  17.850 -0.1567  0.0667  0.0672
26834W        W69887  23.334  34.404  24.035  0.2699 -0.1803  0.1001
26835W        W69888   4.808   6.562  23.701 -0.4683 -0.0372 -0.0180
26836W        W69889  27.557  19.818   8.789 -0.0504 -0.1792  0.0950
26837W        W69890  22.191  34.503   8.076  0.2971  0.0166  0.0379
26838W        W69891  22.449  29.695  15.998  0.1107  0.2465 -0.0831
26839W        W69892   5.949  14.769  15.017  0.2455  0.0845 -0.0960
26840W        W69893  25.002   0.130   3.281 -0.1916  0.2567 -0.0876
26841W        W69894   3.843   7.826   0.990 -0.1902  0.1113  0.4478
26842W        W69895  11.136  34.142  24.348 -0.0936 -0.0028  0.2729
26843W        W69896   7.733  20.637  20.546  0.1715 -0.2557  0.4550
26844W        W69897  24.301  24.640  10.741 -0.0107 -0.0134  0.0743
26845W        W69898  12.915  19.203   2.019  0.0626  0.0785  0.0285
26846W        W69899  11.537  31.807  19.265  0.0620 -0.2521 -0.1753
26847W        W69900  19.630  21.494  14.595 -0.0553  0.0504 -0.0763
26848W        W69901   4.256   1.842  15.064  0.0914  0.0203  0.2067
26849W        W69902   2.920  28.209  17.156  0.6384 -0.1441  0.0698
26850W        W69903  13.512  32.964  24.191 -0.0714 -0.0563 -0.0090
26851W        W69904   9.219   7.960   0.211  0.1071 -0.2519 -0.3131
26852W        W69905  23.963   7.749  28.239 -0.0241  0.0548 -0.0249
26853W        W69906  34.499   0.834  20.016  0.7146 -0.2338 -0.0738
26854W        W69907  20.844  34.289  20.738 -0.1270 -0.2361  0.0145
26855W        W69908   7.285  12.941  24.214  0.2171 -0.2145 -0.1419
26856W        W69909  28.646  25.430   7.304 -0.0268  0.0377  0.1457
26857W        W69910  13.357  30.688  14.894  0.1289  0.0511 -0.1699
26858W        W69911  17.161  31.601  15.214  0.1849 -0.0499  0.0388
26859W        W69912  19.494  32.194  21.149 -0.3209  0.1139  0.0789
26860W        W69913   0.767  23.620  14.330  0.3023  0.1162 -0.1736
26861W        W69914  11.292  27.858  17.392  0.0603  0.0707 -0.1016
26862W        W69915   8.920   7.249   6.295 -0.0305 -0.1322  0.0779
26863W        W69916  29.815   2.757   4.885 -0.2026 -0.0777  0.2256
26864W        W69917  21.311  26.030  24.492  0.2275 -0.1704 -0.0079
26865W        W69918  33.320  31.380  18.785 -0.0571 -0.3335 -0.0239
26866W        W69919  18.291  11.436  15.462  0.3531  0.0397  0.1757
26867W        W69920  20.335   3.849  15.090  0.0983 -0.2630  0.0609
26868W        W69921  29.540  21.004  19.934  0.4519  0.1706  0.0787
26869W        W69922  19.495  21.863   8.522 -0.2044  0.1895 -0.0963
26870W        W69923   2.035   0.643  17.246  0.0080  0.1691 -0.0745
26871W        W69924  32.275  29.866  28.479  0.0062  0.1348 -0.4166
26872W        W69925  22.032   9.384  17.144  0.0568 -0.0702 -0.0104
26873W        W69926   4.887  27.992   6.230 -0.1857 -0.3219  0.1878
26874W        W69927  19.426   6.095  21.425 -0.1780 -0.1400  0.0036
26875W        W69928  22.790  26.038  26.714 -0.3017  0.2237  0.1079
26876W        W69929   3.570  29.832  19.187  0.0741  0.0299  0.1777
26877W        W69930  25.125  25.695  19.164  0.2996 -0.0954 -0.2355
26878W        W69931   2.751  30.536   1.980  0.0630 -0.0319 -0.1099
26879W        W69932  17.939  23.881  23.593 -0.2442  0.7827  0.0546
26880W        W69933  13.393  20.983  22.822 -0.2527 -0.1780 -0.0732
26881W        W69934  20.306   8.430  17.820 -0.2399  0.0174  0.2388
26882W        W69935  30.273  27.527  24.911 -0.0566  0.2651  0.0549
26883W        W69936  32.174   0.579   4.020 -0.1301 -0.1880  0.2134
26884W        W69937  13.637  27.039   3.497 -0.0237  0.1406 -0.0849
26885W        W69938  27.532  22.404  21.105  0.1129  0.0172  0.1855
26886W        W69939  19.632  24.471  19.995  0.2198 -0.0431  0.2172
26887W        W69940  18.941  28.710  27.026  0.0762  0.1146 -0.2461
26888W        W69941  31.127   1.236  28.717  0.0613  0.2741 -0.0148
26889W        W69942  34.302  20.536  14.868 -0.0389  0.0749 -0.2320
26890W        W69943  33.159  26.395   0.585  0.1015 -0.0225  0.0233
26891W        W69944  34.507   0.328  26.317 -0.2604  0.1544 -0.1557
26892W        W69945   1.970  32.015   1.895  0.1463  0.0221 -0.1783
26893W        W69946  29.147  24.412  23.616  0.0240  0.1128  0.0528
26894W        W69947  32.673  34.418  23.169  0.2403  0.1087  0.3902
26895W        W69948  26.971  15.634  19.431  0.0294  0.2091 -0.0702
26896W        W69949  27.652   9.568  19.537 -0.1871 -0.0430  0.2110
26897W        W69950   6.334  16.642  14.061  0.1655 -0.0036 -0.3069
26898W        W69951   8.203  29.174  24.483  0.3286 -0.0236 -0.2792
26899W        W69952   2.822   7.421  16.794  0.0444  0.0188  0.1137
26900W        W69953  34.102   0.864   0.945 -0.1243 -0.0819  0.2854
26901W        W69954  17.776  26.363  17.639  0.4281 -0.0893 -0.1824
26902W        W69955   4.223   2.348  14.360  0.4203 -0.1275  0.2120
26903W        W69956  26.199  28.032  28.005  0.1929 -0.1216 -0.1499
26904W        W69957  19.950   1.370  18.413  0.0177  0.2582 -0.1334
26905W        W69958  30.159  28.055   4.279 -0.2200  0.0670 -0.2301
26906W        W69959   2.091   6.599   7.240  0.0737  0.0110 -0.1971
26907W        W69960   6.831   1.702   0.463 -0.0311  0.0584 -0.2023
26908W        W69961  27.592   9.048  26.989  0.1618 -0.1678 -0.1407
26909W        W69962  30.294  18.068  23.890  0.0281 -0.1293 -0.0510
26910W        W69963  24.301  19.879  20.333  0.0041 -0.1115  0.2844
26911W        W69964   1.406   4.372  17.351 -0.2055 -0.0836  0.1793
26912W        W69965  11.050  28.897  20.910 -0.1365 -0.0002 -0.1192
26913W        W69966  29.791  16.695  25.562  0.2437 -0.1101 -0.0231
26914W        W69967  23.076  23.830   7.503  0.1023 -0.4009 -0.0158
26915W        W69968  20.604  20.302  25.410  0.2473  0.3241 -0.1173
26916W        W69969  31.909  24.928  16.420 -0.0741  0.1470 -0.2301
26917W        W69970  29.393  22.090   1.813  0.2505  0.1345 -0.1555
26918W        W69971  21.071  22.317   2.433  0.1551  0.1754  0.0882
26919W        W69972  28.210  19.066  14.654  0.0577 -0.1651  0.2972
26920W        W69973   8.869  19.634  20.951 -0.1029 -0.3224 -0.0220
26921W        W69974  23.425  23.568  25.229  0.0921  0.1476 -0.0047
26922W        W69975   0.968   3.102  26.395 -0.1626 -0.0147  0.3766
26923W        W69976  23.586  31.482  15.538 -0.1117 -0.0334  0.1578
26924W        W69977  13.590  18.689  17.084  0.1049 -0.1157 -0.0657
26925W        W69978   6.986  23.938   3.908  0.0750  0.3092  0.2529
26926W        W69979  28.260  24.013   5.055 -0.0680  0.0859 -0.2978
26927W        W69980  32.549  14.319  15.559  0.0879 -0.2869  0.0306
26928W        W69981   3.526  24.994  24.644  0.0415 -0.4099 -0.2602
26929W        W69982  27.091   4.887   2.541  0.1525  0.3284  0.0040
26930W        W69983   1.573  10.461  27.882  0.1219  0.2000 -0.2032
26931W        W69984  12.779  31.586  20.580  0.2944 -0.3407  0.0720
26932W        W69985   6.579   6.441   4.022 -0.0719 -0.0081  0.0988
26933W        W69986  30.097  24.762   3.785  0.0897  0.0512 -0.2344
26934W        W69987  17.456   8.670  17.821  0.2650 -0.0294  0.0466
26935W        W69988  11.518  22.327  16.023 -0.0238  0.1025 -0.1118
26936W        W69989  24.287  24.380  17.919  0.0028 -0.0448 -0.2275
26937W        W69990   3.521  25.553  24.714  0.0829 -0.2024  0.0091
26938W        W69991  34.307  19.705   3.315  0.3265 -0.1043 -0.0964
26939W        W69992   5.580   3.332  24.121 -0.4432 -0.0338  0.1392
26940W        W69993  29.777  34.268  18.123 -0.0265  0.2232  0.2908
26941W        W69994  30.956  19.282  18.444 -0.0628 -0.1203  0.0398
26942W        W69995  16.734   1.035  26.410 -0.0173  0.0997  0.2337
26943W        W69996   8.503   5.875  20.278 -0.0716 -0.2258  0.0332
26944W        W69997  19.854   1.968   3.475 -0.4077  0.1806  0.1092
26945W        W69998  18.091  17.332   2.234 -0.1077 -0.1747  0.0928
26946W        W69999  14.085  33.540  22.331  0.0111 -0.0719  0.0571
26947W        W70000  18.615  15.455   6.910  0.3356  0.2647  0.1408
26948W        W70001   3.404  33.925   1.231 -0.1415 -0.1678 -0.1161
26949W        W70002  30.131  33.625   9.122  0.3474 -0.2316 -0.1358
26950W        W70003  15.181  29.786   8.505 -0.3042  0.1528  0.1702
26951W        W70004  23.417  23.385  22.978 -0.1393 -0.3533 -0.0044
26952W        W70005  33.040   5.189  28.464 -0.0196 -0.1254 -0.4670
26953W        W70006  23.213  12.290   0.552  0.0335 -0.3677  0.0841
26954W        W70007  23.838   9.777   1.176 -0.0746  0.1396 -0.0451
26955W        W70008   9.191  28.382  13.733  0.1592  0.2982 -0.1977
26956W        W70009  18.511   7.640   1.950 -0.1766 -0.0172 -0.0055
26957W        W70010  28.573  29.234  27.387 -0.2219 -0.0121 -0.1129
26958W        W70011  20.255  23.053   5.107  0.2188 -0.3069 -0.0645
26959W        W70012  14.235  11.232   1.195  0.1631 -0.2575 -0.0063
26960W        W70013  27.512   9.313  17.134  0.2944  0.3424  0.1110
26961W        W70014  15.606  26.464  28.878  0.0474 -0.0512  0.4252
26962W        W70015  19.960  23.549   9.371 -0.1144 -0.1360  0.2146
26963W        W70016  27.785   1.688  16.858 -0.0845 -0.1692  0.0293
26964W        W70017   7.073  28.525   2.420 -0.1234 -0.1339  0.0684
26965W        W70018  16.970  29.709  17.826  0.0490  0.1965  0.0409
26966W        W70019  29.903  23.211  19.831 -0.0065 -0.0488  0.0784
26967W        W70020   4.414  29.064   3.217 -0.1888  0.0686 -0.0315
26968W        W70021  25.481  32.121   2.035  0.1277  0.1514 -0.1276
26969W        W70022  26.956  15.192  24.822  0.0046  0.2298 -0.0774
26970W        W70023  27.479   0.094   9.814  0.0286 -0.1109 -0.0582
26971W        W70024   1.468  34.682  23.096 -0.0889  0.1330  0.2096
26972W        W70025  16.001  22.808  25.324  0.2161  0.0028 -0.1953
26973W        W70026   5.052  28.024  20.925 -0.2204  0.0887 -0.2374
26974W        W70027  33.965  16.345   8.614  0.0866 -0.0665 -0.0945
26975W        W70028  32.129  29.498  20.771  0.0946  0.2930 -0.1599
26976W        W70029  28.603  21.316  24.522  0.0973 -0.3731 -0.2599
26977W        W70030  28.248  23.930  17.199 -0.1579 -0.2656 -0.0023
26978W        W70031  26.403   5.971  23.874 -0.0302 -0.2482  0.3429
26979W        W70032  10.215  28.438  26.881  0.3634  0.0439 -0.0973
26980W        W70033   3.838   1.081   3.476 -0.2568 -0.2825 -0.0061
26981W        W70034  21.352  21.885  28.667  0.1655  0.1255  0.1499
26982W        W70035  17.518   4.735  17.017  0.2016  0.1940  0.1905
26983W        W70036  26.512  25.991  25.256  0.1002 -0.2367  0.0070
26984W        W70037   9.758  29.749  15.498 -0.0457 -0.0314  0.4743
26985W        W70038   1.511  26.777  22.881  0.2286  0.2943  0.3524
26986W        W70039  19.174  15.595  28.738 -0.2082  0.2678 -0.0787
26987W        W70040  11.821  32.110   0.836  0.4050  0.1677 -0.0948
26988W        W70041  14.001  33.003   3.281 -0.3348  0.0464 -0.2647
26989W        W70042  23.125  22.851  25.704 -0.0856 -0.1740  0.0783
26990W        W70043  13.347   3.481  18.213 -0.0180  0.0621 -0.1464
26991W        W70044  12.681   3.673   5.792 -0.0017  0.1194  0.2392
26992W        W70045   2.934  30.108  14.752 -0.0206 -0.1350  0.1259
26993W        W70046  18.176   9.367  18.998  0.2357 -0.1981 -0.1929
26994W        W70047  23.569  15.006  26.646 -0.0040 -0.3132 -0.1429
26995W        W70048  29.680  26.778   2.977  0.0698 -0.1495  0.3502
26996W        W70049  24.770   0.218  22.079 -0.0660  0.2734  0.0794
26997W        W70050   9.923  28.813  13.221  0.0392  0.0554 -0.0420
26998W        W70051  10.982  31.521   3.785  0.2131 -0.3578 -0.0698
26999W        W70052  29.201  34.490  18.625 -0.0366 -0.2884  0.2933
27000W        W70053  29.701  21.552  18.855  0.0006 -0.1424 -0.1332
27001W        W70054  25.973   7.146   2.446  0.1963 -0.1440 -0.1648
27002W        W70055  24.619  28.330   7.755 -0.2749  0.2267  0.0413
27003W        W70056   9.071   1.359  21.566 -0.1052  0.3978  0.0697
27004W        W70057  13.957  26.016   4.498 -0.4168  0.1230  0.0507
27005W        W70058  28.818  22.126  28.060 -0.1045  0.1595  0.1749
27006W        W70059  29.232   6.872  17.530  0.2981 -0.0092 -0.2766
27007W        W70060  12.643  31.653  27.363 -0.1171  0.2296 -0.1122
27008W        W70061  22.130  25.016  27.594  0.2924 -0.1016 -0.1105
27009W        W70062   3.131  14.634  20.527 -0.3203  0.2270 -0.0926
27010W        W70063   5.137  34.478   7.863  0.1015 -0.0483  0.2841
27011W        W70064  27.533  31.531   7.872 -0.0583  0.1719 -0.0760
27012W        W70065  15.353  33.441  17.908  0.0023 -0.0505 -0.3248
27013W        W70066  21.153  34.360  16.792  0.1460 -0.1382 -0.0191
27014W        W70067  11.461   1.068  23.702 -0.1634  0.1738  0.1770
27015W        W70068  12.561  22.050  16.366  0.0873 -0.2546  0.2774
27016W        W70069  14.134  21.471  17.489 -0.2409 -0.0198  0.2818
27017W        W70070  23.393  24.881  29.071 -0.2788 -0.0796 -0.0135
27018W        W70071   0.157  21.955  18.763 -0.1394  0.2862  0.1033
27019W        W70072  23.772  19.133  27.438 -0.1116  0.0350  0.0204
27020W        W70073  30.010  15.409  23.753  0.0892  0.5359 -0.3038
27021W        W70074  29.092  28.270   2.669  0.0939  0.2516  0.2502
27022W        W70075  30.280  33.416  15.303 -0.1570  0.2363 -0.0634
27023W        W70076  24.628  24.193  21.154  0.3383 -0.1279 -0.0123
27024W        W70077  34.286  19.138   4.114  0.0274  0.1173 -0.0034
27025W        W70078  22.016  12.265  21.754 -0.4577 -0.1057  0.4782
27026W        W70079  22.175   2.456  21.392 -0.1964  0.0601 -0.1879
27027W        W70080  11.324   0.139  20.502 -0.1243 -0.1742 -0.0232
27028W        W70081  11.343  21.135   0.973 -0.1061 -0.2417  0.0491
27029W        W70082  33.432   5.322  20.806  0.1320  0.2375  0.0487
27030W        W70083  22.877  33.392  25.964 -0.0681  0.1194 -0.6100
27031W        W70084  17.333  29.274  10.496 -0.0869  0.0993 -0.1751
27032W        W70085  31.645   9.360  27.467  0.2915 -0.0388 -0.2785
27033W        W70086  27.003  34.212  21.844  0.1816  0.0684 -0.1355
27034W        W70087  23.720  22.746   7.720  0.1034 -0.0802  0.2056
27035W        W70088   0.054  32.055  18.723  0.1413 -0.0111  0.0556
27036W        W70089   3.334   5.391  20.045  0.1445  0.0558  0.3071
27037W        W70090  20.119  21.991   6.290 -0.1205 -0.0918  0.1983
27038W        W70091   4.555   3.004  15.642  0.2289  0.1476 -0.0652
27039W        W70092  25.208  16.650   2.264 -0.0971 -0.1259  0.0329
27040W        W70093  28.634  20.328  16.974  0.0148 -0.1784 -0.0629
27041W        W70094  26.361  26.153  23.112 -0.0027 -0.1051 -0.0003
27042W        W70095  21.394  29.186  15.743 -0.1596 -0.0533  0.0005
27043W        W70096   9.108  17.222  24.433  0.1445 -0.2089  0.3501
27044W        W70097   8.020  27.862  27.083  0.3985 -0.0432  0.1525
27045W        W70098  29.674  31.469   5.322 -0.5024 -0.0619  0.0393
27046W        W70099  15.021  26.057   1.773  0.3537  0.1220 -0.1707
27047W        W70100  24.173   7.993   4.712 -0.1734 -0.1251 -0.1606
27048W        W70101  15.600   5.166   3.467  0.2592 -0.0133 -0.0761
27049W        W70102  32.853  33.422   6.820 -0.0775 -0.0293 -0.4718
27050W        W70103  26.600   0.104  25.030 -0.4358 -0.1972  0.0075
27051W        W70104  26.858  29.516  27.514  0.1460 -0.2454 -0.3039
27052W        W70105   0.334  27.469  24.133  0.1513  0.0103 -0.0683
27053W        W70106  33.688  19.050  26.115 -0.2460 -0.0710  0.1523
27054W        W70107  22.902  15.820  18.216  0.1399  0.1366 -0.0491
27055W        W70108  32.141  11.270  28.074  0.0260 -0.5674 -0.3269
27056W        W70109  32.588  19.081  16.563 -0.0014  0.0408 -0.1289
27057W        W70110   4.991  22.025  25.852 -0.1158  0.1937  0.0771
27058W        W70111  28.440  26.054  22.941 -0.0209  0.0678  0.3061
27059W        W70112  26.623  29.738   0.953  0.0656 -0.2037  0.0447
27060W        W70113  28.380  30.519   0.157 -0.0851 -0.0445 -0.2067
27061W        W70114  27.715  29.090  20.320 -0.1715  0.1310  0.0195
27062W        W70115  30.079   6.325  27.875 -0.0379  0.1787  0.0895
27063W        W70116  12.118  28.058  26.076  0.2780  0.2090 -0.2730
27064W        W70117   2.323   4.086   9.650  0.0443  0.0444 -0.3015
27065W        W70118  12.593  22.122   5.858 -0.1491 -0.0809  0.0150
27066W        W70119  25.602  13.482   7.085  0.0110  0.1393 -0.1803
27067W        W70120  25.890  28.837   7.481 -0.1434  0.1182  0.0074
27068W        W70121  32.817  26.230  25.881  0.0069  0.0186 -0.0672
27069W        W70122  17.741  21.921   7.370  0.1751  0.2247 -0.1445
27070W        W70123   1.990  30.157  17.352 -0.1000 -0.2210  0.2594
27071W        W70124   2.351  27.387  17.776 -0.1743  0.0343 -0.0430
27072W        W70125  26.138   6.510  27.433 -0.0215 -0.0955  0.0347
27073W        W70126  13.780  25.725   6.500  0.0338 -0.0919  0.0335
27074W        W70127   0.925   0.754  27.745 -0.5107  0.1240 -0.2588
27075W        W70128   1.571   3.024  21.789  0.1010 -0.0750  0.3656
27076W        W70129   9.405  31.488  22.133  0.2788  0.3380 -0.1471
27077W        W70130   0.175  27.420  17.763  0.1222 -0.2200  0.2997
27078W        W70131  18.554  32.705   3.086  0.1180 -0.2659 -0.1138
27079W        W70132  30.040  29.609  18.714  0.1222 -0.3199  0.2445
27080W        W70133  31.360  27.833   5.964  0.1074  0.3105 -0.0192
27081W        W70134  23.980  17.505  18.222  0.0704 -0.0007  0.0777
27082W        W70135  32.608  18.418  18.662 -0.1853 -0.1287  0.1017
27083W        W70136  32.327  22.008  13.869  0.0797  0.1941  0.0901
27084W        W70137   2.850  31.934   7.484  0.0554  0.0117  0.0840
27085W        W70138   5.165  16.346  19.428 -0.0739 -0.3747 -0.0614
27086W        W70139  28.148  22.314   6.579 -0.0846  0.2861  0.1583
27087W        W70140  32.461  21.554  22.712 -0.3121 -0.1133 -0.1688
27088W        W70141   1.104  11.605  16.959  0.1883  0.2359  0.0089
27089W        W70142   2.551  17.192  14.745  0.3824 -0.1661 -0.2181
27090W        W70143   5.956  18.265  23.996 -0.2099  0.1654  0.4055
27091W        W70144  30.241   0.886  28.737  0.0195  0.0552 -0.0589
27092W        W70145   2.508   6.916  20.330  0.1729  0.0943  0.1293
27093W        W70146  26.010  25.386   5.018  0.1271  0.0165 -0.2008
27094W        W70147   4.075  30.036  24.147 -0.0160  0.0052 -0.2724
27095W        W70148  13.661  20.431  24.658 -0.0979 -0.2017  0.2720
27096W        W70149  16.996   2.772   4.405 -0.1977  0.2302 -0.1577
27097W        W70150  24.411  14.338  19.390 -0.3241  0.1489  0.0613
27098W        W70151  30.084  31.819  16.724 -0.1288  0.1177  0.3558
27099W        W70152  18.613  25.555  15.464  0.1037 -0.2617 -0.1529
27100W        W70153   3.700  21.430   2.080  0.1472  0.1291  0.2783
27101W        W70154  29.405  25.987  14.658  0.0477  0.0864 -0.0090
27102W        W70155  30.742  25.496  21.362 -0.0325 -0.2881  0.1523
27103W        W70156  32.545   1.190  27.942  0.0514 -0.0891 -0.2833
27104W        W70157  18.176  16.326  26.288  0.0386  0.0473  0.4359
27105W        W70158  25.049  25.966  23.545  0.2958  0.3617 -0.0222
27106W        W70159  19.095   3.927  16.996  0.1209 -0.1646  0.1147
27107W        W70160  10.748  13.024   3.635  0.1764  0.0632 -0.0079
27108W        W70161  30.828  17.280  27.733 -0.3143  0.1431  0.3344
27109W        W70162  13.015   0.589  23.706 -0.2259 -0.2096 -0.1000
27110W        W70163  28.166   2.191   0.239  0.0549 -0.1348 -0.1304
27111W        W70164  21.000   0.362   6.737 -0.1989  0.0513 -0.2584
27112W        W70165  21.452   1.555  25.445 -0.2123 -0.1307  0.0837
27113W        W70166  30.951  23.853   1.307  0.1365 -0.0708 -0.3677
27114W        W70167  14.209  25.266   2.373 -0.1489  0.1121 -0.0326
27115W        W70168   0.057  10.044  22.381 -0.1341 -0.3275 -0.2305
27116W        W70169   1.391  21.746  14.134  0.0097  0.1057 -0.1515
27117W        W70170  27.164   6.009  21.953  0.1256  0.1800  0.0094
27118W        W70171  26.031   0.162  28.793  0.3889  0.3132  0.0807
27119W        W70172  33.738   6.007  18.938  0.3493  0.0902  0.5021
27120W        W70173  20.248  32.566  24.270 -0.2579 -0.2727  0.2793
27121W        W70174   0.706  34.287   4.305  0.1155  0.0591 -0.2965
27122W        W70175   8.411  30.387  13.016  0.1817 -0.0828 -0.0498
27123W        W70176  18.716  25.557   2.906  0.1043 -0.1799  0.0448
27124W        W70177  31.979   0.943  21.985  0.0784  0.0554  0.1333
27125W        W70178  22.018  15.837  18.657 -0.0456  0.0865  0.3193
27126W        W70179  22.369  25.976  17.647  0.1995 -0.1280  0.2685
27127W        W70180  22.601   1.300  24.612  0.0900  0.0192  0.2459
27128W        W70181  14.430  22.727  10.019 -0.0928 -0.2714  0.1264
27129W        W70182  15.372  32.087   4.794 -0.1308  0.4084 -0.0979
27130W        W70183  29.381  16.749  14.827 -0.3593 -0.0332  0.4092
27131W        W70184  14.157  26.770  27.846  0.0912 -0.0303 -0.0158
27132W        W70185  16.616   2.591  19.714 -0.0157  0.0808  0.0676
27133W        W70186  23.138   3.632  14.426  0.0367 -0.1413  0.0314
27134W        W70187  31.919  19.343   8.870  0.0114  0.1167 -0.0848
27135W        W70188   0.454  23.753   5.729  0.0165  0.1611 -0.0810
27136W        W70189  32.427   5.858  15.222  0.2699 -0.2972  0.0902
27137W        W70190  21.306  21.067  18.150  0.3022  0.0285  0.1085
27138W        W70191  22.347  14.749  20.329  0.3252  0.2369  0.4131
27139W        W70192  32.358  10.926   4.069  0.2075  0.2914  0.1148
27140W        W70193  13.002  23.844   7.671  0.1714  0.1102  0.4134
27141W        W70194  26.690  30.928  18.695  0.1884  0.0945  0.1844
27142W        W70195  20.195   3.323  15.048 -0.2566  0.0564 -0.2990
27143W        W70196  14.307  23.624  26.867 -0.0594  0.2390 -0.0310
27144W        W70197  28.402   1.507  18.685 -0.5146  0.2457  0.3228
27145W        W70198  14.809  26.370   9.979 -0.1020 -0.2405 -0.1747
27146W        W70199  14.210  17.788   0.065 -0.1770 -0.1916 -0.1266
27147W        W70200  32.295  32.269   6.622  0.3385  0.1046  0.0962
27148W        W70201  20.792  26.866  17.931 -0.1948 -0.0570  0.2813
27149W        W70202  32.434  29.214  24.787  0.1603 -0.1480 -0.0347
27150W        W70203  12.216  22.366  14.537  0.1736  0.0539  0.1174
27151W        W70204  17.988  28.162   8.708  0.2282 -0.0982  0.2735
27152W        W70205  11.996  17.337  20.227  0.1653 -0.1775  0.1206
27153W        W70206   1.382  23.164   4.693  0.0970 -0.1883 -0.1064
27154W        W70207  16.839  13.925  24.091  0.1172  0.0022 -0.1519
27155W        W70208  27.858  26.949  22.752 -0.2283  0.1058  0.2534
27156W        W70209  25.068  28.963   2.869 -0.0208 -0.1769  0.0916
27157W        W70210  34.073  33.365   1.021  0.0270 -0.0302  0.0900
27158W        W70211  22.197  28.647  25.956  0.0120 -0.0644 -0.1349
27159W        W70212  14.103  21.927  17.108 -0.1810 -0.4297  0.2190
27160W        W70213  19.595  33.958   0.292 -0.0029 -0.0935  0.0736
27161W        W70214  24.517   6.797  26.223  0.2753 -0.0335  0.3516
27162W        W70215   9.526  29.918  21.684 -0.0214 -0.2757 -0.0582
27163W        W70216  25.530  32.756   3.197 -0.0302 -0.1743 -0.1702
27164W        W70217  19.652   0.260  25.738 -0.1500 -0.1610 -0.0096
27165W        W70218  15.523  25.133   0.380  0.0180 -0.0248 -0.1683
27166W        W70219  32.219  23.559  25.199 -0.3004  0.0592  0.0937
27167W        W70220  25.453  29.025  28.202 -0.0630  0.1862 -0.0386
27168W        W70221  20.332  34.428  18.876 -0.0978  0.0226  0.1444
27169W        W70222  20.493  30.170  14.949  0.2230 -0.2069 -0.3324
27170W        W70223  26.890   5.003   6.262 -0.0333 -0.0388 -0.1889
27171W        W70224   4.581  20.456  14.168 -0.1977 -0.0294  0.0452
27172W        W70225  31.430  25.844   3.477  0.1013 -0.0772 -0.0452
27173W        W70226  32.798  26.300  20.053 -0.0543 -0.3933 -0.5164
27174W        W70227  17.533  21.910   5.174  0.2115  0.1384  0.1112
27175W        W70228   4.518  16.029  18.644  0.2318 -0.1623 -0.0188
27176W        W70229  15.197  25.765   4.054  0.0796 -0.1821  0.2681
27177W        W70230  25.269  34.169  15.951  0.0051 -0.0439 -0.0499
27178W        W70231   0.241   0.019  14.732 -0.0328 -0.3480  0.0972
27179W        W70232  12.985  27.723  14.793 -0.0020 -0.0082  0.1198
27180W        W70233  17.207   1.006  29.103  0.0711 -0.0653  0.1654
27181W        W70234  32.740  21.299   9.303  0.1749 -0.0336 -0.0097
27182W        W70235  20.943  29.659   4.538  0.0623  0.0732  0.0544
27183W        W70236  24.681  28.922  16.573  0.0967  0.1473  0.3735
27184W        W70237   5.009  27.752   0.678  0.1804 -0.1120  0.0151
27185W        W70238  26.863   1.198  23.464 -0.2363 -0.1862 -0.0554
27186W        W70239  20.349  26.770  17.579  0.3327 -0.1094  0.0590
27187W        W70240  30.484  13.973   6.439 -0.0381  0.0377 -0.0050
27188W        W70241  15.164  20.270  23.734  0.2925 -0.2555 -0.3360
27189W        W70242   6.752  24.028  25.066 -0.3279 -0.2847  0.0383
27190W        W70243   2.291  25.245   2.393 -0.3046  0.0915 -0.0816
27191W        W70244  27.561  34.473  26.376  0.1555  0.2049 -0.2054
27192W        W70245   8.258  27.710  15.498  0.0545  0.1263  0.0090
27193W        W70246  29.322  19.511   8.518  0.0267 -0.1144 -0.2056
27194W        W70247  22.911   1.687  28.899  0.0046 -0.0264 -0.0852
27195W        W70248  21.795  30.704  20.022  0.3143 -0.0565 -0.3009
27196W        W70249  32.394   4.411  20.794 -0.0964 -0.0029 -0.0867
27197W        W70250  24.742  15.504  28.909  0.0327 -0.1991  0.2551
27198W        W70251  32.512   6.038  25.422  0.4220 -0.3316 -0.1610
27199W        W70252  32.389   2.109  27.879  0.2518 -0.1522 -0.0511
27200W        W70253  29.721  33.415  20.260 -0.1247 -0.0838 -0.1737
27201W        W70254  30.065  12.111  15.226  0.1517 -0.1431 -0.0961
27202W        W70255  21.342  29.127  24.076  0.2243 -0.1182 -0.0162
27203W        W70256  24.123  21.380   0.040 -0.2270  0.0465 -0.1655
27204W        W70257  25.292  17.850  15.235 -0.1741  0.0213  0.0253
27205W        W70258  24.984  25.340  21.174 -0.0734 -0.0364 -0.2928
27206W        W70259  21.571  32.087  15.145 -0.1253  0.3909 -0.0517
27207W        W70260  14.742   8.219  22.164 -0.0670 -0.3453 -0.0642
27208W        W70261  19.936  22.087  19.770 -0.0315 -0.0662  0.1717
27209W        W70262  27.058  30.307  14.890 -0.0844 -0.1588  0.0434
27210W        W70263  26.558   9.215  23.621 -0.1629  0.0077 -0.0320
27211W        W70264   1.602   4.169  26.068 -0.0547  0.0224 -0.2227
27212W        W70265  27.194  12.984   2.256 -0.0420  0.0418 -0.1851
27213W        W70266  13.246  27.485  15.231 -0.0663 -0.0044  0.0452
27214W        W70267  20.557  24.535   3.463  0.0680  0.1317 -0.1622
27215W        W70268  31.071  28.106   2.836  0.0335 -0.0258  0.0675
27216W        W70269   3.426  32.982   9.872  0.5505  0.0731  0.1784
27217W        W70270  30.144  13.161  24.349 -0.0782  0.2722 -0.0287
27218W        W70271  15.243  27.953   5.375  0.2206 -0.1402  0.2439
27219W        W70272  34.129  30.371   3.368 -0.1556  0.1025  0.1689
27220W        W70273  21.027  21.700  28.955  0.3041  0.2443  0.0392
27221W        W70274  18.107  20.339  23.061 -0.0222  0.1067  0.1894
27222W        W70275  17.813  32.200  15.250 -0.0348 -0.0015 -0.1146
27223W        W70276  32.809  23.627   5.551 -0.0842 -0.0585  0.3162
27224W        W70277  19.700  24.309   6.444 -0.0640 -0.3856  0.0815
27225W        W70278  18.518   5.263  19.592  0.1628 -0.1023 -0.0079
27226W        W70279  27.025  21.616  22.299 -0.0250  0.1594 -0.0955
27227W        W70280  34.651  32.640  21.416  0.2007  0.0353 -0.3767
27228W        W70281  24.282   9.362   5.367 -0.0309 -0.0446 -0.0320
27229W        W70282  24.162  23.078  20.862  0.1719 -0.0793 -0.1175
27230W        W70283  29.792  21.306  24.603 -0.0757 -0.3004  0.5300
27231W        W70284  30.457   7.555   0.075 -0.2355  0.0598  0.4523
27232W        W70285  33.193  30.200  26.998  0.0863 -0.1017  0.1486
27233W        W70286  26.755  30.717   1.122  0.4510  0.2413 -0.1713
27234W        W70287   5.480  25.339  26.946 -0.0925 -0.0607 -0.1064
27235W        W70288  31.306  27.597   3.810 -0.0913 -0.3569  0.1493
27236W        W70289  16.351  10.134   7.867 -0.2576  0.2123 -0.0086
27237W        W70290  31.146  23.598   7.765  0.2463  0.2454  0.4023
27238W        W70291  32.970  32.070  24.917 -0.0882 -0.2095 -0.1511
27239W        W70292  30.880  27.669   4.675 -0.3564  0.0050 -0.0660
27240W        W70293  34.431  34.422   1.681  0.0568 -0.0655  0.2491
27241W        W70294  23.590   8.201   6.179 -0.2273  0.3778 -0.1405
27242W        W70295  25.764  34.162   1.932 -0.1064  0.0655  0.0586
27243W        W70296   5.935  25.850   5.792 -0.1171 -0.1311  0.3149
27244W        W70297  23.270   1.248  26.852  0.1908  0.2507 -0.2098
27245W        W70298  33.515  31.473  13.112 -0.0256 -0.2366  0.1817
27246W        W70299  25.519  27.030   8.764 -0.1011  0.3698  0.0057
27247W        W70300  32.609  27.825   2.123  0.0008 -0.0879  0.0161
27248W        W70301  24.121  30.312  25.917  0.0249 -0.0048 -0.0498
27249W        W70302  34.222  26.167  28.231  0.2026 -0.1514 -0.0871
27250W        W70303  15.011  18.334   0.468 -0.0499 -0.0112  0.3583
27251W        W70304   5.031   6.255  25.459  0.0620  0.3132 -0.4123
27252W        W70305  31.899  22.481   6.958  0.1719 -0.2089  0.0069
27253W        W70306  33.021  33.777  22.460 -0.1860 -0.1555 -0.2272
27254W        W70307  33.789   9.203   5.875  0.0276  0.1404  0.0761
27255W        W70308  26.474   4.484  16.475  0.5024  0.0547 -0.1098
27256W        W70309  18.559   2.640   4.202  0.0169 -0.0302  0.1930
27257W        W70310  24.377  33.983  26.930  0.1643 -0.0530 -0.0799
27258W        W70311  27.529  15.621  16.000  0.5097 -0.0346 -0.2847
27259W        W70312  22.130  11.233   3.225  0.0673  0.3190  0.0492
27260W        W70313  10.967  27.900  14.472 -0.0998  0.1000 -0.0722
27261W        W70314  31.802  31.671   1.557 -0.1829  0.3223  0.0576
27262W        W70315  26.021  30.761  27.340 -0.0860  0.0236 -0.0921
27263W        W70316   2.197  29.964   3.195 -0.0186  0.0802 -0.3164
27264W        W70317  27.202  21.723  24.042 -0.2792 -0.2848 -0.1321
27265W        W70318  22.963  11.274  27.510  0.0682 -0.0733  0.1195
27266W        W70319   3.915  32.932  22.455 -0.2738  0.4011  0.0047
27267W        W70320  23.384  11.209   2.423 -0.0589  0.3066 -0.1193
27268W        W70321  22.834   1.765  14.954  0.2086 -0.0273 -0.2243
27269W        W70322  19.402  33.190  25.789 -0.1834 -0.1195 -0.0290
27270W        W70323  24.557  25.230   9.730 -0.0109  0.0884  0.0876
27271W        W70324   6.057   3.315   6.533 -0.0517 -0.2125 -0.0039
27272W        W70325  29.556  23.674  25.484  0.1593  0.2087  0.1057
27273W        W70326  25.499  22.078   5.307  0.0131 -0.1810  0.0802
27274W        W70327  18.181  29.722  28.618 -0.3335 -0.0042 -0.0225
27275W        W70328   2.068  28.680  26.675  0.0173 -0.5043  0.0577
27276W        W70329   0.952  33.620  27.270  0.1239 -0.1120  0.3056
27277W        W70330  23.467  14.435  26.601  0.2470  0.0084 -0.0469
27278W        W70331  18.680  23.933   8.607  0.0505  0.0668 -0.1946
27279W        W70332  31.328   6.247   0.609  0.0683  0.0563 -0.0052
27280W        W70333  32.058  16.302  20.123  0.4152  0.2669  0.0659
27281W        W70334  17.484   9.391  28.853 -0.0300 -0.2472  0.0262
27282W        W70335  18.222  27.888  16.614  0.3635  0.0274  0.2279
27283W        W70336  30.054  18.976  13.939 -0.0062 -0.0430  0.0417
27284W        W70337  30.666  17.053   5.888  0.3457  0.1224 -0.0069
27285W        W70338  29.230  22.907  14.268 -0.1527  0.0934  0.0236
27286W        W70339  20.240  24.900   9.667 -0.3124 -0.0754 -0.2840
27287W        W70340  31.366  10.671   7.744 -0.3418  0.0188  0.1255
27288W        W70341  19.975  30.480  25.352  0.1054  0.0662  0.0211
27289W        W70342  25.037  29.952  17.437  0.0866  0.1573 -0.1363
27290W        W70343   3.957  15.836   8.040 -0.1676 -0.1227  0.2125
27291W        W70344  28.815  12.320   3.561  0.3529  0.0266  0.0039
27292W        W70345   2.439  22.323  22.398 -0.3057  0.2911  0.1974
27293W        W70346  24.249  14.014   7.290 -0.1848 -0.0531 -0.0049
27294W        W70347  11.689  30.075   4.548  0.4232  0.2298  0.1515
27295W        W70348  14.208  21.697  28.405 -0.1379  0.1066 -0.2270
27296W        W70349  17.054  23.998   7.792 -0.0996 -0.1181  0.0780
27297W        W70350  28.809  30.910   9.973  0.1483  0.0824  0.0868
27298W        W70351  34.096  18.136  22.523  0.2979 -0.1680  0.0867
27299W        W70352  27.458   5.005  22.864  0.1076  0.4111  0.0862
27300W        W70353  20.853  13.505  14.124  0.2852 -0.1535 -0.1773
27301W        W70354  33.847   3.849  25.093  0.0817 -0.2145  0.1118
27302W        W70355   0.356  28.650   1.580 -0.0585 -0.1445 -0.1307
27303W        W70356  31.832  33.649   6.014  0.0104  0.0528  0.1014
27304W        W70357   3.535  16.968  25.029 -0.2026  0.2923 -0.0356
27305W        W70358   3.335   2.235  20.688 -0.4478 -0.1913  0.2003
27306W        W70359  32.593  18.072   8.223  0.0284  0.1154 -0.0520
27307W        W70360  13.881  24.145   2.532  0.2286  0.0488 -0.1304
27308W        W70361  26.883  32.308  27.548 -0.0808 -0.2043  0.0315
27309W        W70362  21.371   2.281  24.916  0.1140 -0.0220  0.1332
27310W        W70363  20.380   3.447   6.636  0.0885  0.0682 -0.0693
27311W        W70364  27.157  33.456   7.146  0.0311  0.1479  0.1450
27312W        W70365  24.939  23.614   5.931 -0.0688  0.0487  0.0765
27313W        W70366  32.777   0.854   0.512 -0.3278  0.0899  0.4569
27314W        W70367   0.672  33.282  25.030 -0.2008  0.1352  0.0954
27315W        W70368  26.911   7.902   0.143  0.1516 -0.0808 -0.2556
27316W        W70369  16.581   6.360  28.316 -0.4842  0.1499  0.2429
27317W        W70370  32.845  25.670  20.574 -0.0904 -0.0626  0.0918
27318W        W70371  29.592   6.804  14.954 -0.0677 -0.0946  0.0273
27319W        W70372  27.945   1.270  18.565  0.2164 -0.0135 -0.0078
27320W        W70373  13.510  14.682   8.566  0.1870  0.0746  0.1796
27321W        W70374  30.076  26.856  25.771  0.2034  0.0610 -0.1928
27322W        W70375  28.426  30.419  24.001  0.0832  0.2387 -0.2275
27323W        W70376  21.715  22.541  26.116  0.0983 -0.3502  0.0954
27324W        W70377   8.504  28.599  23.461 -0.0063 -0.0555  0.2589
27325W        W70378  21.093  24.392  15.639 -0.1566 -0.1681 -0.2990
27326W        W70379  25.954  14.863  21.861 -0.1214  0.3020 -0.2906
27327W        W70380  23.133   9.790   6.802 -0.0167  0.0463 -0.0317
27328W        W70381  24.438  17.981  19.743 -0.2325  0.3626  0.1251
27329W        W70382   0.917  19.965  23.750 -0.1909  0.0149  0.0426
27330W        W70383  26.408  24.473   1.934  0.0623 -0.0244  0.1585
27331W        W70384  33.406   4.965  28.729  0.1054 -0.1501 -0.1344
27332W        W70385  18.311   2.261   7.167  0.1254  0.1130 -0.0242
27333W        W70386   3.945  31.271  27.062 -0.1263  0.4056 -0.2601
27334W        W70387  25.666   6.890  28.567 -0.2069  0.0956 -0.3934
27335W        W70388  11.053  16.125  21.078 -0.1689 -0.0774 -0.2491
27336W        W70389   8.255  33.810   3.893 -0.1752  0.2062 -0.3953
27337W        W70390  27.803   1.418  21.212 -0.1018  0.2908  0.0530
27338W        W70391  34.222  25.119   8.505  0.1590 -0.1458 -0.2571
27339W        W70392  34.263  30.352  15.284 -0.1574 -0.1226 -0.1334
27340W        W70393  25.894  11.597  18.696 -0.1743 -0.0144  0.1341
27341W        W70394  29.019  20.767  22.757  0.2431 -0.0828  0.0459
27342W        W70395   2.643   7.040  24.828  0.0783  0.0064 -0.1998
27343W        W70396  22.860   4.576   6.209 -0.0751 -0.1048  0.0937
27344W        W70397  32.717   1.279  27.421 -0.0948 -0.0484 -0.1401
27345W        W70398  20.182   5.515  26.062 -0.1425  0.0600  0.0987
27346W        W70399   7.464  34.620  20.191 -0.3008  0.1050  0.0578
27347W        W70400  25.559  16.861  25.197 -0.0795 -0.0808 -0.8109
27348W        W70401   1.267  27.479   3.532  0.0868  0.0999 -0.0334
27349W        W70402  21.313  28.844  27.229 -0.0169 -0.0950  0.0838
27350W        W70403  24.401  32.473   1.136  0.1073 -0.0625  0.0935
27351W        W70404   2.009   8.111   2.659  0.2429 -0.3110 -0.1675
27352W        W70405  15.800  24.200   9.599  0.0662 -0.2414  0.3811
27353W        W70406  30.625   7.030  25.806  0.0277 -0.2059  0.0725
27354W        W70407  18.553  22.652  25.861 -0.1602  0.0658  0.0213
27355W        W70408  19.497   2.773   3.948 -0.1451  0.1933  0.2744
27356W        W70409  27.343  25.013  15.075  0.3282 -0.2999  0.0083
27357W        W70410  11.671   0.012  20.138 -0.0278  0.1148 -0.0799
27358W        W70411  23.911  13.157   5.143  0.0590 -0.0901 -0.1805
27359W        W70412  24.939   4.137  14.755 -0.2188 -0.0471 -0.0367
27360W        W70413  24.293   4.635  15.688  0.0052 -0.2986  0.0359
27361W        W70414   7.253  26.572   5.518 -0.0023 -0.1291 -0.0664
27362W        W70415   5.241   7.314   5.787  0.0274 -0.0622 -0.1917
27363W        W70416  27.153  31.751  23.946  0.2589  0.0769 -0.1362
27364W        W70417  27.997  29.547  24.813  0.1855 -0.2796 -0.0356
27365W        W70418  19.564  21.148   7.884  0.0452 -0.1100  0.2183
27366W        W70419  24.376   0.366  23.661  0.0550  0.0254 -0.4966
27367W        W70420  31.879  29.958  16.641  0.0301  0.0268  0.0669
27368W        W70421   7.578   9.753   3.775 -0.4000 -0.2468  0.2335
27369W        W70422   1.022  31.042   8.956  0.1288 -0.0336 -0.1185
27370W        W70423  30.053   5.217  16.979 -0.3849 -0.2467 -0.0355
27371W        W70424  19.948  22.772  20.824 -0.0402  0.1412 -0.0203
27372W        W70425  27.935  27.231  19.621 -0.0101 -0.0152  0.0637
27373W        W70426  31.039  27.191   0.437  0.0846  0.1114  0.3036
27374W        W70427  27.888  23.821   6.684  0.0222  0.2458  0.1325
27375W        W70428  32.716   1.248  15.686  0.0687 -0.1393  0.1136
27376W        W70429  20.514   0.118   6.871  0.0024 -0.0012  0.4327
27377W        W70430   6.879   6.549  27.521  0.2341 -0.1597 -0.2349
27378W        W70431  19.622  26.496  23.760 -0.0598 -0.3077  0.1838
27379W        W70432  15.421  28.743   4.965  0.1503 -0.0951  0.1728
27380W        W70433  25.038  20.442   3.070 -0.1783 -0.0387  0.1101
27381W        W70434  31.765  17.965   6.114  0.0023 -0.0874 -0.0980
27382W        W70435  32.520   3.773  22.879 -0.0201  0.1923 -0.5565
27383W        W70436   6.521  31.242  25.171  0.0663  0.2480  0.0875
27384W        W70437   9.574   2.015  21.302 -0.2658  0.3813  0.4377
27385W        W70438  17.372  23.528   6.879 -0.2032 -0.2803  0.1729
27386W        W70439   0.181   0.370   9.351 -0.2740 -0.2182 -0.0977
27387W        W70440   2.381  16.569  24.697 -0.0245 -0.0879  0.0928
27388W        W70441   4.549  33.161   8.343 -0.0560  0.3562 -0.1462
27389W        W70442  27.224  10.304   2.506 -0.5990  0.1075  0.0399
27390W        W70443  25.564   1.839   1.131 -0.0486  0.2904 -0.2293
27391W        W70444  32.629  27.460  21.822  0.0530 -0.0158  0.0666
27392W        W70445  17.673  32.037  23.134  0.0117  0.1899 -0.0810
27393W        W70446  32.061  11.457   6.095  0.2599  0.0917 -0.0070
27394W        W70447  30.312  34.540  21.606 -0.2528 -0.0651 -0.1817
27395W        W70448  14.456  20.217   6.276 -0.0064 -0.2307 -0.1058
27396W        W70449  14.178  33.212  19.918  0.1406 -0.1381 -0.0766
27397W        W70450  32.699  32.999   3.386 -0.1509 -0.1078 -0.1178
27398W        W70451  33.720  32.074   6.364 -0.1887 -0.0639 -0.0886
27399W        W70452  30.445   4.651   6.537 -0.2240  0.0207  0.0413
27400W        W70453  26.687  19.438  28.932  0.1131 -0.2180  0.3212
27401W        W70454  25.758   9.264  13.294  0.1378 -0.0964 -0.0604
27402W        W70455  22.748  28.225   0.085  0.0001  0.3642  0.0874
27403W        W70456  20.071  17.623  21.502  0.2108 -0.1090 -0.0757
27404W        W70457  18.809  10.981   2.371 -0.0824  0.0238 -0.1077
27405W        W70458  13.383  28.171   7.345  0.1350 -0.5483  0.0062
27406W        W70459  21.380  23.495   9.699 -0.2060 -0.4179 -0.0755
27407W        W70460  23.021  16.395   3.762 -0.0732 -0.0470 -0.1027
27408W        W70461   2.603  32.346  17.030  0.0576 -0.0262 -0.2176
27409W        W70462  23.556  18.792   0.136 -0.0996 -0.1578  0.0452
27410W        W70463  23.968  32.764  26.331  0.1264 -0.3158  0.0105
27411W        W70464  32.858  16.394  14.492 -0.1527 -0.0596 -0.1896
27412W        W70465   1.969  28.256  21.487 -0.2530 -0.3850 -0.1091
27413W        W70466  21.490   5.734  21.296  0.2946  0.0865 -0.0471
27414W        W70467  23.857  27.423   9.467  0.0122  0.3984  0.1598
27415W        W70468  32.358  30.339  28.707 -0.1016 -0.1816  0.0650
27416W        W70469  26.840  32.431   7.636  0.0656 -0.1489 -0.0279
27417W        W70470  13.958  10.113  27.761 -0.4572  0.1766 -0.0308
27418W        W70471  13.845   5.323  23.262  0.0842 -0.2648 -0.0845
27419W        W70472  20.516  14.575  27.997 -0.0295 -0.3791  0.1357
27420W        W70473  23.180  23.415  11.303 -0.1006 -0.1297 -0.0996
27421W        W70474  25.455  30.255  23.034  0.2123  0.1755  0.0185
27422W        W70475   0.345   3.154  21.119 -0.1183  0.1812  0.1885
27423W        W70476   1.926  27.376  20.928 -0.0061 -0.0942  0.0294
27424W        W70477  20.108  12.316   8.276  0.0000  0.1896 -0.0064
27425W        W70478  10.572  34.108  16.247 -0.1157  0.0604 -0.0122
27426W        W70479  18.557  28.404  27.398  0.1634  0.1065 -0.0551
27427W        W70480  13.061  12.730  23.211  0.0858  0.2731 -0.3752
27428W        W70481  15.312  19.037  24.474  0.2009  0.1488  0.2697
27429W        W70482  12.225  26.117  25.463  0.4178 -0.2076 -0.1402
27430W        W70483  14.753   1.634  20.905  0.1573 -0.0634 -0.0382
27431W        W70484  24.526   2.201   7.325 -0.1609  0.0522  0.0339
27432W        W70485  23.749  18.581   8.403 -0.0604  0.1141  0.0134
27433W        W70486  15.990  12.058   1.570  0.0664 -0.2914 -0.1981
27434W        W70487   1.570  13.713   1.127 -0.0748 -0.1153  0.0861
27435W        W70488  19.902  27.319   2.407  0.2017  0.1382  0.4402
27436W        W70489  24.230   7.494  24.462 -0.0249  0.0284 -0.0823
27437W        W70490  12.449  23.516  15.260  0.0876 -0.2077 -0.4088
27438W        W70491   7.994  19.351   4.357  0.0293  0.1426  0.4087
27439W        W70492  25.822  13.985  19.227 -0.0105  0.1737 -0.5197
27440W        W70493  22.323  18.685   2.620  0.0532  0.0378  0.0458
27441W        W70494  20.219   1.614  23.381 -0.0972 -0.3380 -0.0452
27442W        W70495   3.925  31.305  16.689 -0.1007 -0.2559  0.0119
27443W        W70496  33.014  19.400   5.138 -0.1781  0.0928 -0.0757
27444W        W70497   4.779  22.610  28.028 -0.0773  0.2892  0.2658
27445W        W70498  22.084  30.703  20.782  0.1505 -0.0905  0.2740
27446W        W70499  26.640  13.644  23.025  0.1976 -0.2028 -0.1888
27447W        W70500  14.562  20.088  14.924 -0.0477  0.0453 -0.3174
27448W        W70501  26.966   2.537  15.918  0.0902 -0.1304 -0.2102
27449W        W70502   1.080  33.278  21.681  0.1029  0.1730  0.1809
27450W        W70503  33.182   3.041   2.331 -0.0347  0.1305  0.0598
27451W        W70504  12.616  17.335  27.193 -0.3544  0.0595  0.1031
27452W        W70505   7.328  21.402  18.433 -0.1263 -0.1506 -0.2205
27453W        W70506  19.693   4.229  14.143  0.1008  0.2049 -0.0351
27454W        W70507   0.057   8.848  22.304 -0.0702 -0.0392 -0.1312
27455W        W70508  28.666  25.283  24.588  0.0193 -0.1204  0.1162
27456W        W70509  31.525  11.559   7.579  0.1845 -0.0357 -0.1958
27457W        W70510  31.335  31.167   2.676  0.1121 -0.0664  0.0757
27458W        W70511  24.106  25.432  15.312 -0.0020  0.0348  0.1846
27459W        W70512  24.745  30.756  21.353 -0.1969 -0.0225  0.0209
27460W        W70513  26.747  24.426  16.656  0.0454  0.0393 -0.0135
27461W        W70514  23.866  11.581   4.151  0.2082 -0.2020  0.0451
27462W        W70515  21.513   3.873  24.838  0.2685 -0.0992  0.0087
27463W        W70516  34.219  34.497  23.056  0.3161  0.0837 -0.0366
27464W        W70517  24.563  27.030   4.185 -0.3160 -0.2148  0.3809
27465W        W70518  25.721  32.139  15.092 -0.3857  0.0571 -0.0684
27466W        W70519  19.274  33.167  20.560 -0.1763  0.5354 -0.1319
27467W        W70520  15.587  10.317  25.863  0.0459 -0.2088 -0.1021
27468W        W70521  27.934  30.918  23.398 -0.0765 -0.2430 -0.1903
27469W        W70522  14.509   5.771  16.409 -0.1938  0.0011 -0.3925
27470W        W70523  28.135  27.275  26.660  0.0138 -0.1673 -0.0163
27471W        W70524   1.189   0.299  27.954  0.0516  0.0104 -0.2699
27472W        W70525  32.215  23.753  18.099  0.2435 -0.1884  0.3849
27473W        W70526  26.508   2.085  17.800  0.0164  0.2910  0.1002
27474W        W70527   2.920  19.134   4.169 -0.2101 -0.2142 -0.0461
27475W        W70528  26.702  21.750  22.607 -0.1552  0.1293 -0.0576
27476W        W70529  24.827  16.461  14.588  0.0532 -0.4309  0.1924
27477W        W70530  33.217   9.322  23.246 -0.2386 -0.0497 -0.0857
27478W        W70531  25.325   9.956  20.361  0.1092  0.1971  0.2166
27479W        W70532   6.684  28.576   6.836 -0.0216  0.0270 -0.1401
27480W        W70533   5.984  26.896  24.406  0.0089 -0.1380 -0.0343
27481W        W70534  11.247   4.543  27.154 -0.0757  0.2417  0.0106
27482W        W70535   4.405  25.147  20.645  0.2159  0.1219  0.0293
27483W        W70536  31.813  25.121  24.443  0.3165  0.1187  0.0602
27484W        W70537  25.487  25.335   4.371  0.0244  0.1078 -0.1845
27485W        W70538  22.916  14.201  17.942  0.2160  0.2010 -0.2585
27486W        W70539   4.680  18.294   6.314 -0.0118  0.3060 -0.1517
27487W        W70540   0.265   7.819   7.652 -0.1553 -0.2922 -0.0537
27488W        W70541  13.076   3.551   4.978  0.1475  0.0144 -0.1323
27489W        W70542  25.376  34.203  17.351  0.2211 -0.3431  0.0064
27490W        W70543  17.852  26.475  24.571 -0.4377  0.0231 -0.2206
27491W        W70544  33.754  33.742  20.064 -0.2174  0.1094 -0.0714
27492W        W70545  31.181  26.488  27.547  0.0254 -0.5331 -0.1121
27493W        W70546  23.187  18.768  24.173 -0.1107 -0.0845 -0.0382
27494W        W70547  15.546  13.470   0.071 -0.0397  0.2610 -0.1744
27495W        W70548   0.749  27.445   8.412 -0.1487 -0.1789  0.0123
27496W        W70549  15.304  23.436  21.625 -0.3731 -0.0306 -0.3584
27497W        W70550  34.247  22.624  18.042  0.2849  0.1196 -0.0398
27498W        W70551  22.338  19.033   0.059 -0.0870 -0.0685  0.0264
27499W        W70552  21.928  27.690   3.276 -0.2972  0.0101 -0.2135
27500W        W70553  24.621  22.015   7.182 -0.1075 -0.1152 -0.0611
27501W        W70554  29.677   9.873   3.963  0.1331  0.1511 -0.0683
27502W        W70555   4.365  12.089  28.073  0.0127  0.1601  0.0558
27503W        W70556  33.811  29.553  18.752 -0.0327 -0.1530 -0.2359
27504W        W70557  14.536  15.978  17.087  0.0791 -0.0663 -0.1321
27505W        W70558  26.806  11.067   2.170 -0.2379 -0.2812  0.0320
27506W        W70559  12.695   4.688  17.830  0.1214  0.0524 -0.0003
27507W        W70560  32.284  22.519  22.873 -0.2054  0.0171 -0.2261
27508W        W70561  27.641  17.182   4.175  0.0786 -0.0343  0.1935
27509W        W70562   4.924  34.132   0.591  0.1796 -0.1992  0.0140
27510W        W70563  19.888   0.899   1.776 -0.2220 -0.2403  0.0760
27511W        W70564  23.714  28.834  15.305 -0.0092 -0.1289 -0.0873
27512W        W70565  32.083  19.563  25.432 -0.0545  0.0378 -0.1452
27513W        W70566  17.442  23.462  28.350  0.1891 -0.0027 -0.0073
27514W        W70567  24.914  34.638  18.760  0.2400 -0.1472 -0.0980
27515W        W70568  33.474  12.342  21.692  0.1521  0.1137 -0.0950
27516W        W70569  31.576   0.771  26.307 -0.1160 -0.2590 -0.1082
27517W        W70570  17.724  23.716  18.832  0.3474 -0.0366  0.0768
27518W        W70571  29.625  15.595  16.062 -0.1066 -0.2303  0.1660
27519W        W70572  12.601  18.594   7.768  0.3964  0.2127 -0.1729
27520W        W70573  26.233  26.882   8.048 -0.0681 -0.1747  0.1407
27521W        W70574  18.317  14.464   3.615 -0.4180 -0.2456  0.1621
27522W        W70575  12.195  17.903  28.501 -0.0041  0.0171  0.1243
27523W        W70576  27.370   6.890   6.594 -0.0125  0.2249  0.2413
27524W        W70577  25.499   2.916  25.344  0.1985  0.0736  0.2564
27525W        W70578  28.303  31.777  19.385 -0.2226 -0.1268  0.0002
27526W        W70579  27.695   6.280  11.005  0.0320 -0.1891 -0.1046
27527W        W70580  19.947   0.839  20.653 -0.0576  0.1551  0.0224
27528W        W70581  22.453  20.127   2.433  0.3508 -0.0200  0.1299
27529W        W70582  26.272   2.386   5.551  0.0053 -0.1064 -0.1240
27530W        W70583   7.288  16.980  28.629 -0.1746 -0.2826 -0.0968
27531W        W70584   0.226  13.753   8.478 -0.1257 -0.2190  0.1116
27532W        W70585  27.271  24.198   2.816 -0.0024  0.0730 -0.1523
27533W        W70586   4.557  14.866   5.840  0.1325 -0.0306 -0.2650
27534W        W70587  20.958  23.425  22.647 -0.0001  0.1909 -0.1949
27535W        W70588  12.931  11.485   1.050 -0.1765 -0.0705  0.2934
27536W        W70589  24.127  31.755   3.441 -0.0619  0.0845 -0.0173
27537W        W70590  25.710   7.007   4.099 -0.0081 -0.1775  0.3002
27538W        W70591  29.171  22.258  18.435  0.4776  0.0198  0.1403
27539W        W70592  23.113   4.443   3.122  0.2137  0.2850  0.2173
27540W        W70593  23.543  17.103  12.867  0.0256  0.1504  0.4506
27541W        W70594  33.531   8.103   1.064  0.1279 -0.0202  0.0794
27542W        W70595  33.755  24.747   6.432 -0.0083  0.0498 -0.0163
27543W        W70596  32.659  11.771   8.476 -0.1674 -0.0781 -0.0089
27544W        W70597  32.106   9.880  24.577  0.0662 -0.0443  0.0287
27545W        W70598  27.126  29.387   3.196 -0.2616  0.1928  0.3318
27546W        W70599  22.590  14.686   4.113  0.0369  0.1098  0.0771
27547W        W70600  18.863  27.584  15.321  0.6263 -0.3212  0.1846
27548W        W70601  28.217   0.370   1.212 -0.2330 -0.3977  0.0318
27549W        W70602  28.224  25.648   9.352  0.0931  0.1738  0.1331
27550W        W70603  29.718  15.762  14.595  0.1464  0.0020 -0.0365
27551W        W70604   8.629  19.324   0.147  0.1432 -0.2550 -0.1478
27552W        W70605  18.056  20.184  24.473  0.0997 -0.0869 -0.2208
27553W        W70606   3.551   4.062  25.098 -0.1124 -0.4184 -0.0962
27554W        W70607   3.183   0.157  20.896 -0.3386 -0.2776  0.0292
27555W        W70608  11.957  20.243   2.295 -0.1565 -0.1068  0.1994
27556W        W70609  25.238  11.604  21.973 -0.0246  0.0217  0.5513
27557W        W70610  18.270  32.817  25.274  0.3465  0.1038  0.2605
27558W        W70611  19.710  27.892   8.313 -0.0109  0.0314 -0.0496
27559W        W70612   4.776  27.136  19.132 -0.0752 -0.0358 -0.0563
27560W        W70613  23.474  27.195   5.926 -0.3288  0.0360  0.0124
27561W        W70614   6.802  29.249  23.872  0.2049 -0.2220  0.0385
27562W        W70615  24.518   4.954   6.452 -0.2928  0.1347  0.2605
27563W        W70616  28.296  33.303  25.197 -0.3114  0.0011  0.1321
27564W        W70617  25.972  20.669   2.638 -0.4347 -0.0288 -0.0941
27565W        W70618  29.878  33.941   2.239 -0.1471  0.0215 -0.0385
27566W        W70619  23.000  19.154  24.637  0.1970 -0.0328 -0.0261
27567W        W70620  17.228   3.270   9.738  0.0778  0.0944 -0.0880
27568W        W70621  11.530  20.242   5.434  0.3119  0.0894 -0.0591
27569W        W70622  18.997  23.151  18.522 -0.0753  0.1080  0.1438
27570W        W70623  21.193  18.605   7.147  0.1714 -0.4016 -0.0815
27571W        W70624   1.175  24.233  23.652  0.1421 -0.1273 -0.3322
27572W        W70625  18.785  24.345  25.706  0.0499  0.2093  0.2504
27573W        W70626  17.133   7.563  26.491 -0.3895  0.0373 -0.0646
27574W        W70627  15.397  32.588   0.038 -0.1464  0.0224  0.0480
27575W        W70628   9.993  15.432  10.224  0.1011  0.0654 -0.1200
27576W        W70629  13.180   7.654  10.136 -0.0632  0.0271 -0.1368
27577W        W70630  21.559  25.718  28.460  0.2297 -0.0097  0.2685
27578W        W70631  22.532  24.935  29.033 -0.1621 -0.1008 -0.0483
27579W        W70632  22.863   7.450  16.369  0.1595  0.0295  0.1114
27580W        W70633  30.258  12.636   6.842  0.0778  0.0384 -0.2960
27581W        W70634  11.178  31.953  27.438  0.0261 -0.0802  0.1190
27582W        W70635  31.467  21.782  17.519 -0.2716  0.1399 -0.4213
27583W        W70636  23.254  32.253   6.575 -0.0712  0.1480  0.0624
27584W        W70637  29.334   4.522  22.128 -0.0548  0.0192 -0.4326
27585W        W70638  19.791   7.691   7.391 -0.0605 -0.3103  0.4856
27586W        W70639  19.344  25.107  19.936  0.2271 -0.0662 -0.0556
27587W        W70640   0.584  16.320   9.752 -0.0542  0.2690  0.0331
27588W        W70641  30.513  30.918  28.742 -0.0566  0.0524 -0.1404
27589W        W70642  16.622  29.669  28.351 -0.1052  0.1375 -0.0517
27590W        W70643   6.673  17.838   3.685  0.0211  0.0288  0.1440
27591W        W70644  16.583  26.036  15.075  0.0714  0.1037  0.0030
27592W        W70645   2.614  29.057   7.221 -0.0122  0.4172 -0.0349
27593W        W70646  12.946  28.974   7.673 -0.0655 -0.0715 -0.0156
27594W        W70647  33.316  20.681  21.125  0.0695 -0.1318 -0.2099
27595W        W70648   7.384  29.390   5.836 -0.1249  0.3041 -0.0136
27596W        W70649  24.284  21.701  22.658  0.1932  0.0717  0.1449
27597W        W70650   3.299  24.173   4.925 -0.0404  0.4366  0.0598
27598W        W70651  21.287  34.236   6.236 -0.0392  0.1271  0.2382
27599W        W70652  27.067   2.571   6.427  0.3097 -0.1693  0.4084
27600W        W70653  29.560  25.183   8.117  0.1139 -0.1579  0.0673
27601W        W70654  21.641  16.499  15.071 -0.1456  0.1985 -0.1059
27602W        W70655  24.259  27.282  16.441  0.0349 -0.1289 -0.0017
27603W        W70656   5.037  33.582  18.747 -0.2013  0.0565  0.3756
27604W        W70657   3.546  15.373  14.026 -0.1458  0.1988 -0.1284
27605W        W70658   4.421  34.680   9.094 -0.3127  0.1305 -0.3212
27606W        W70659  18.353  31.959   3.700 -0.1471 -0.2267 -0.1097
27607W        W70660  28.044   2.202  18.863 -0.2336  0.1038  0.3785
27608W        W70661  22.693  30.007  15.023 -0.0425  0.1175  0.2578
27609W        W70662  30.746  22.341  23.419  0.1497 -0.1101  0.1765
27610W        W70663  18.419  23.857  20.577 -0.3470  0.2299 -0.2247
27611W        W70664   1.362  29.954  22.906  0.0703  0.1024 -0.2221
27612W        W70665  31.612  22.283   3.190  0.0215  0.0751 -0.0029
27613W        W70666  17.063  31.880  25.601  0.4154  0.0454 -0.2473
27614W        W70667  13.035  19.784  17.282 -0.0926  0.0173 -0.1356
27615W        W70668  13.522  29.487  25.257  0.0971  0.1834  0.3701
27616W        W70669   4.739  28.476   2.410 -0.3709  0.3605  0.2503
27617W        W70670  32.593  28.977  21.539 -0.1312  0.1848 -0.0381
27618W        W70671   6.803  31.760  19.429 -0.2162 -0.3059 -0.1996
27619W        W70672  28.825  34.662  14.721 -0.0677 -0.1354 -0.2104
27620W        W70673  23.048  23.430  22.660  0.0214  0.2171  0.1025
27621W        W70674  30.756  32.453  22.205  0.1689  0.0501  0.0602
27622W        W70675  31.187   1.717   8.091 -0.1612  0.1302 -0.2430
27623W        W70676  31.907   0.323  14.679  0.3730  0.0757 -0.0512
27624W        W70677  21.071   5.673  14.898 -0.0656  0.0051  0.0160
27625W        W70678  11.027  27.183  26.038 -0.1018  0.1373 -0.3419
27626W        W70679  23.134  28.229  16.076 -0.0058  0.1498  0.3902
27627W        W70680  26.857   0.585  20.570  0.1166  0.1633  0.1371
27628W        W70681  30.539   4.482  24.070  0.1022 -0.0901  0.1213
27629W        W70682  29.808  33.178  24.054  0.0239  0.0904  0.1548
27630W        W70683  31.575   6.852  18.441  0.4204  0.0062  0.1412
27631W        W70684  21.313  29.026  16.361  0.0072 -0.0501  0.2486
27632W        W70685   1.237   5.733  21.202  0.1010 -0.4278  0.1948
27633W        W70686  21.111  30.370  17.627 -0.1961  0.0242 -0.0432
27634W        W70687  25.197  24.915  23.813  0.1272  0.2355 -0.2840
27635W        W70688  22.211  13.076  22.866 -0.0917 -0.0428 -0.0590
27636W        W70689  34.050  33.061   7.826  0.3072  0.0720  0.4179
27637W        W70690   1.004  24.720   6.428 -0.2881  0.0795  0.3080
27638W        W70691   9.046  22.550  14.907 -0.0065 -0.1971  0.1403
27639W        W70692  30.391  34.550  20.747  0.0781 -0.1439  0.3552
27640W        W70693  25.077  15.578  15.351  0.1140  0.3764 -0.1535
27641W        W70694  16.778  32.500  14.650  0.0561 -0.1355 -0.1573
27642W        W70695   2.348   3.332  27.068  0.1331 -0.4942  0.0301
27643W        W70696   5.241  20.190  22.408  0.2494 -0.0807  0.3680
27644W        W70697  32.607  29.578  24.259 -0.0790 -0.0526 -0.0856
27645W        W70698  17.988   4.871   0.094 -0.4784  0.1306  0.1868
27646W        W70699  18.489  33.784  18.819 -0.0781 -0.2576  0.0446
27647W        W70700  12.424   0.761  21.356  0.1020 -0.1815 -0.3964
27648W        W70701   4.617   3.643  19.626  0.0285  0.1967  0.1607
27649W        W70702  27.200  33.746  21.016  0.0583 -0.0431  0.3454
27650W        W70703  24.948  25.488  22.212  0.1252 -0.0522  0.0301
27651W        W70704   0.081   4.581  20.259 -0.0860 -0.0249  0.3345
27652W        W70705  24.384   1.407  13.610  0.0281  0.0694 -0.1230
27653W        W70706  29.115  26.576  20.361  0.1962 -0.0872  0.0397
27654W        W70707  29.883  23.834  19.821  0.0315  0.0575 -0.2630
27655W        W70708  22.264  21.222   3.148 -0.0754  0.0337  0.0443
27656W        W70709  30.180   7.045  25.551  0.0706 -0.3153 -0.2599
27657W        W70710   9.024   1.604  19.566  0.1440 -0.1520  0.1404
27658W        W70711  29.476   9.254  14.803 -0.2247  0.0294 -0.2929
27659W        W70712  16.922   7.937  21.427 -0.1331 -0.2429 -0.6385
27660W        W70713  30.570  30.294  17.269  0.2742  0.2858  0.1659
27661W        W70714  31.853  24.547  13.510 -0.0377 -0.2787 -0.0468
27662W        W70715  32.747   0.082  15.858  0.0661  0.2180 -0.0807
27663W        W70716  20.082  23.918  19.693  0.1626  0.2612  0.1002
27664W        W70717   9.589  10.089  18.792 -0.0492 -0.0873 -0.0052
27665W        W70718  23.784   4.905  20.623 -0.0150 -0.0702  0.1790
27666W        W70719  33.178  24.910  25.904 -0.2752  0.2869  0.0847
27667W        W70720  34.011  27.466  15.441 -0.0876  0.1136  0.1547
27668W        W70721   2.359   2.161  19.042  0.1787 -0.0820 -0.0955
27669W        W70722  33.984  11.663  20.269  0.3104  0.0633  0.0409
27670W        W70723  28.889   3.212  19.913  0.1014 -0.0332  0.1361
27671W        W70724   5.064   3.942  22.246 -0.1233  0.1819 -0.0255
27672W        W70725  24.691  28.528  27.464  0.1852  0.2203  0.3706
27673W        W70726  27.664  27.857  22.379 -0.0215  0.2143  0.0262
27674W        W70727  29.651   9.889  19.218 -0.0599  0.1006  0.0642
27675W        W70728  27.390   1.883  19.542 -0.0532  0.3067  0.1517
27676W        W70729  31.668   2.002  14.959  0.0905  0.0337 -0.0775
27677W        W70730  32.290  30.133  14.982  0.3702 -0.1878  0.3137
27678W        W70731  23.071   9.035  24.817  0.2455  0.0467 -0.1796
27679W        W70732  25.963  32.880  23.602 -0.3158 -0.0580 -0.0837
27680W        W70733  27.978  20.556  21.205 -0.1481  0.0943 -0.0136
27681W        W70734  31.097  33.744  19.622  0.0420  0.0850 -0.2951
27682W        W70735  27.247  21.406  24.975  0.1533  0.0148 -0.1673
27683W        W70736  29.431  18.609  15.251  0.0524  0.3883 -0.2983
27684W        W70737   1.383  31.084  15.471  0.1369  0.0111 -0.4445
27685W        W70738  33.348  30.778  25.355 -0.0871  0.0459 -0.0122
27686W        W70739  24.784   5.424  27.079  0.2348 -0.1449  0.1797
27687W        W70740  24.528  29.373  18.456  0.0328  0.1464  0.2236
27688W        W70741   2.467  21.472  19.731  0.0059  0.3018 -0.0771
27689W        W70742  27.697  31.159  17.915 -0.3328  0.2242 -0.2290
27690W        W70743  22.372  33.935  26.784  0.0652 -0.3220 -0.1399
27691W        W70744  25.403  22.873  21.172 -0.1341 -0.1591 -0.0402
27692W        W70745  28.708  32.763  18.903  0.2013 -0.0225 -0.2534
27693W        W70746  30.644  28.789  22.793  0.0958  0.0871 -0.1110
27694W        W70747   0.690   3.043   5.355 -0.0268  0.2445 -0.2018
27695W        W70748  17.025  12.055  25.677  0.1959  0.0795 -0.1304
27696W        W70749  34.521  25.122  21.956  0.1647  0.0052  0.3905
27697W        W70750  13.605  13.498  18.730 -0.2262 -0.1783  0.2149
27698W        W70751   8.877  15.192  15.299  0.1063 -0.3001 -0.0392
27699W        W70752  11.718  26.416  21.738  0.1435 -0.1984  0.2188
27700W        W70753   0.435   2.224  26.043  0.0711  0.2158 -0.1222
27701W        W70754  25.341   7.988   5.930  0.1375 -0.1322  0.2255
27702W        W70755   2.084  28.192  17.203  0.0557  0.1270  0.0602
27703W        W70756  22.296  27.052  28.722  0.0314 -0.2559 -0.2303
27704W        W70757  26.664   4.047  17.264 -0.1487 -0.0294  0.0752
27705W        W70758   8.403  16.213  14.451  0.3967 -0.0474  0.0338
27706W        W70759  27.774  25.709  23.120 -0.2428 -0.2646 -0.3275
27707W        W70760  15.467   5.834   1.218  0.0474  0.2578  0.0172
27708W        W70761   0.724  27.042  14.485 -0.0383 -0.0415 -0.2891
27709W        W70762  17.984  27.348  15.042 -0.2572  0.3679  0.1024
27710W        W70763  25.080   3.315  19.313  0.0573 -0.0861 -0.1910
27711W        W70764  18.583  13.302  12.840  0.1511  0.0964  0.1973
27712W        W70765  11.616  27.539  18.431 -0.1338  0.0494  0.1032
27713W        W70766   4.899  28.415  22.453 -0.1989  0.1764 -0.1196
27714W        W70767  21.130  12.964  19.239 -0.0718  0.2811 -0.0968
27715W        W70768  25.141  23.661  16.082 -0.1432  0.0033  0.0906
27716W        W70769  25.822  11.976  16.469  0.0108  0.1595 -0.2113
27717W        W70770   1.236  32.082  23.085 -0.0240 -0.0210  0.0118
27718W        W70771  17.808  28.086  18.629 -0.1142 -0.0974 -0.1999
27719W        W70772  15.948   7.516  16.230  0.1848 -0.0348 -0.0507
27720W        W70773  25.302   0.389  22.048 -0.3168 -0.0230 -0.2103
27721W        W70774  17.116  27.977  21.472 -0.0976  0.2342 -0.0888
27722W        W70775  17.801  18.570  22.970 -0.1115  0.0450  0.1541
27723W        W70776  29.071   4.658  20.738 -0.0620  0.0063 -0.1195
27724W        W70777  21.799  28.400  17.704  0.1838 -0.1278 -0.0126
27725W        W70778  14.095  26.923  25.533  0.3177 -0.2330  0.0597
27726W        W70779  25.585  22.922   2.515  0.2733 -0.1842 -0.2333
27727W        W70780  34.460   2.082  18.948  0.0227 -0.1021  0.0658
27728W        W70781   8.164  24.321  24.581  0.0858 -0.0223  0.0544
27729W        W70782  32.317  22.511  25.076 -0.0020 -0.2958 -0.2232
27730W        W70783   4.389  30.835  22.460  0.3754  0.3580  0.2014
27731W        W70784  29.257  12.084  16.444  0.3508  0.2681 -0.2447
27732W        W70785   2.746  27.055  24.715  0.0157 -0.0223 -0.1729
27733W        W70786  14.798   7.746  21.915 -0.2202  0.2931  0.0997
27734W        W70787  26.102   5.653  21.095 -0.0310 -0.1329 -0.1741
27735W        W70788   5.377   8.044  16.162  0.0758 -0.0402  0.2357
27736W        W70789  30.139  26.569  27.852  0.1596  0.1331 -0.0662
27737W        W70790   4.077  20.444  14.363  0.0770  0.1623  0.4978
27738W        W70791   2.100  29.988  20.797  0.2200  0.2724 -0.5134
27739W        W70792   8.781   6.967  15.143 -0.0720  0.1077  0.2246
27740W        W70793   7.459  22.807  13.248 -0.3074  0.1046  0.0530
27741W        W70794  25.195  29.620  15.173 -0.1314 -0.1265  0.2522
27742W        W70795  23.967   2.159  19.376  0.3416  0.0129  0.0163
27743W        W70796  20.665  20.804  21.347  0.0921 -0.1630  0.1779
27744W        W70797  14.726  23.514   8.816 -0.1016 -0.3417  0.1353
27745W        W70798   0.676  28.031  20.677 -0.0946 -0.0402  0.1530
27746W        W70799   5.008   1.413  20.991  0.2188  0.1022  0.1139
27747W        W70800  10.794   7.851  25.091  0.1800 -0.1049  0.0657
27748W        W70801  14.684  24.113  21.619  0.1091 -0.3003 -0.2102
27749W        W70802  21.490  14.214  25.699 -0.2367 -0.4229 -0.0545
27750W        W70803  16.786  33.981   1.368 -0.1379  0.1404  0.0082
27751W        W70804  31.772  29.757   3.119 -0.2987  0.1452 -0.2235
27752W        W70805  19.454  11.868  14.080 -0.1567  0.0648  0.2893
27753W        W70806   0.460  24.164  15.015  0.0722  0.0496  0.0442
27754W        W70807  21.923  11.314  17.034  0.1948  0.0211 -0.2887
27755W        W70808  26.794  17.942  16.410 -0.1927 -0.1401  0.0767
27756W        W70809   0.454  18.699   2.322 -0.1281 -0.3508  0.2768
27757W        W70810  23.545  20.635  21.451  0.1529  0.3174 -0.0095
27758W        W70811  26.748   2.530  14.650  0.1786 -0.1717 -0.0590
27759W        W70812  15.075  31.930  14.479  0.0806 -0.2505 -0.0820
27760W        W70813  18.663  31.166  19.348  0.2278 -0.1730 -0.3750
27761W        W70814   1.978  25.232  18.082 -0.2603 -0.2459  0.0515
27762W        W70815  19.089  32.306  15.013  0.1753  0.0465 -0.1590
27763W        W70816  21.865   3.322   7.656  0.0506  0.0146 -0.0920
27764W        W70817   4.902  26.040  14.982 -0.0105 -0.0939  0.2565
27765W        W70818  30.184  14.898  28.653  0.0325 -0.1662 -0.0609
27766W        W70819  28.394  33.864  14.207 -0.0793  0.1207 -0.0908
27767W        W70820  32.874  10.569   1.952 -0.0743 -0.1842 -0.0388
27768W        W70821   6.311  17.486   6.933 -0.1926 -0.1282  0.1691
27769W        W70822   3.074  31.130  17.790 -0.1623  0.1600  0.0486
27770W        W70823  21.782  13.730  19.836  0.1696  0.0599  0.0240
27771W        W70824  23.312   6.139   0.103  0.2013  0.0545  0.1688
27772W        W70825  19.592  14.580  26.143 -0.0081  0.0457 -0.0622
27773W        W70826   5.965  28.113  16.148  0.3217 -0.2036 -0.1514
27774W        W70827  30.612  25.597  24.016  0.1001  0.0690  0.1801
27775W        W70828  31.688   1.193  22.460  0.0970 -0.0068  0.0978
27776W        W70829  26.362  22.876  16.030  0.1097  0.0832  0.3512
27777W        W70830  34.516  13.231  17.437 -0.3208  0.0657 -0.2189
27778W        W70831  30.952  33.899  14.832  0.2045  0.2565 -0.1480
27779W        W70832   1.639  12.772  15.801  0.1440 -0.1939 -0.0062
27780W        W70833   1.171   2.372  14.773 -0.1795 -0.2057 -0.1515
27781W        W70834  23.034  29.991  17.866 -0.2332 -0.0174  0.0450
27782W        W70835  26.870   1.837  24.385 -0.0274  0.1048  0.0234
27783W        W70836   9.375  26.814  23.751  0.0230  0.0946 -0.3036
27784W        W70837  21.957  20.412  14.534 -0.0173  0.3370  0.0216
27785W        W70838   6.179  32.289  16.027  0.0230  0.0273 -0.0361
27786W        W70839   0.264  29.714  14.920 -0.1965 -0.4966  0.2967
27787W        W70840  28.349   1.229  20.448 -0.0145 -0.2380  0.0808
27788W        W70841  24.521  19.863  14.252  0.1981 -0.0117  0.0068
27789W        W70842  27.209   0.862  20.718 -0.0970 -0.1989  0.0959
27790W        W70843  22.333  27.365  13.858  0.2954  0.2896 -0.2120
27791W        W70844   0.985   2.618  19.940 -0.0788 -0.0973 -0.0880
27792W        W70845  16.527  13.480  13.530  0.0921  0.1385  0.1992
27793W        W70846  34.584   3.536  21.757 -0.0312 -0.1791  0.0237
27794W        W70847   5.014   2.860  24.629 -0.2681 -0.4162  0.0645
27795W        W70848   0.142  24.200  22.459 -0.0358 -0.0149 -0.0958
27796W        W70849   6.151  26.995  14.761  0.0061 -0.0264  0.0002
27797W        W70850  31.198   6.552   0.943 -0.0954 -0.2210  0.0138
27798W        W70851  29.469  32.047  19.741 -0.2173 -0.0121  0.0226
27799W        W70852  20.214   3.409   5.341 -0.0230 -0.0261  0.1139
27800W        W70853   9.526  18.966  27.032  0.0095 -0.0976 -0.0392
27801W        W70854   1.915  30.193  28.030 -0.0917  0.1189  0.0428
27802W        W70855  27.412  33.870  15.694 -0.1497  0.0834 -0.3568
27803W        W70856  26.747   1.854  15.989 -0.1343 -0.1643  0.0332
27804W        W70857  20.628  33.513  15.213 -0.1032 -0.4100 -0.0031
27805W        W70858  25.107  26.578  14.556  0.0117  0.0516  0.3100
27806W        W70859   1.127  30.368   8.025 -0.2138 -0.0851 -0.0894
27807W        W70860  30.828  33.069  22.637 -0.0996  0.6551  0.0369
27808W        W70861  11.445  28.322   6.889  0.1265 -0.1330 -0.0645
27809W        W70862  30.152   3.919  17.198  0.1630  0.2436  0.0529
27810W        W70863  21.990  34.015  23.069 -0.2308  0.0146  0.1511
27811W        W70864  12.151   0.250   3.397 -0.2020  0.2849 -0.1516
27812W        W70865  20.254  31.416  19.823  0.2100  0.0793 -0.2513
27813W        W70866  33.955   7.202  19.217 -0.2533 -0.0647 -0.1886
27814W        W70867   7.375  27.542   8.201  0.0907 -0.0897  0.1827
27815W        W70868  21.250  30.294   2.719 -0.1620  0.2358  0.1803
27816W        W70869   1.073  17.804  16.579  0.4112 -0.1077  0.0177
27817W        W70870   1.077  31.061  19.856  0.1672  0.0777 -0.0671
27818W        W70871   5.217  24.042  13.366 -0.0875 -0.2093  0.0340
27819W        W70872  13.121  29.457   2.689 -0.1877  0.0694 -0.0909
27820W        W70873  30.441  14.914  25.656  0.1833 -0.0390 -0.1046
27821W        W70874  17.173  26.067   3.906 -0.0067 -0.0554  0.1644
27822W        W70875  20.865  32.986  23.264 -0.0178  0.0483  0.1212
27823W        W70876  32.804  18.426  23.420  0.1275 -0.1215  0.2259
27824W        W70877  12.092  29.504  21.842 -0.1421 -0.0882  0.0408
27825W        W70878  16.819   8.479  19.702  0.1611 -0.1468  0.0907
27826W        W70879  12.925   3.283  26.172  0.1677  0.0686 -0.1603
27827W        W70880  15.763   9.865  15.794  0.0219  0.0146  0.2241
27828W        W70881  20.377  28.410  15.530  0.1472 -0.0575 -0.1280
27829W        W70882  24.245  25.919  15.187 -0.0459 -0.0245  0.0841
27830W        W70883  27.991  25.008  25.807 -0.1267  0.0408  0.1656
27831W        W70884  19.306  29.183  16.120 -0.1901 -0.3404 -0.0419
27832W        W70885  25.331   6.148  16.652  0.1485  0.1804  0.1445
27833W        W70886   1.545  28.933  26.027  0.1420 -0.2023  0.1924
27834W        W70887  21.934  31.914   3.991  0.1440  0.0588  0.0279
27835W        W70888  30.734  13.097   0.915 -0.0185  0.0340  0.1373
27836W        W70889   1.736  31.282  16.961 -0.1958 -0.1403 -0.0611
27837W        W70890  23.496  28.833  16.300 -0.0461 -0.0044  0.3076
27838W        W70891  31.378  28.004  26.846 -0.1270 -0.0791 -0.1253
27839W        W70892  14.654  22.204  15.097 -0.1239 -0.1540  0.0648
27840W        W70893  23.085   3.781  26.036 -0.1814  0.4588 -0.1116
27841W        W70894  21.404  27.986  28.839  0.0236  0.1351 -0.0044
27842W        W70895   6.566  16.564   3.252 -0.3982  0.0028 -0.1777
27843W        W70896  16.868  33.545  21.036 -0.1718  0.3193  0.3371
27844W        W70897  27.968   4.196   7.700 -0.1036 -0.2724 -0.1403
27845W        W70898  31.446  25.630  15.029 -0.0162  0.0459 -0.0179
27846W        W70899  32.653  27.118  19.994 -0.1982 -0.0238  0.1585
27847W        W70900   0.916  17.870   2.170 -0.2490 -0.1102 -0.0294
27848W        W70901  30.993  22.407  18.001 -0.2527  0.3216  0.1949
27849W        W70902  29.009  23.446  20.688  0.2663  0.1586 -0.1071
27850W        W70903  34.635  12.574  21.374  0.1972 -0.1460  0.2022
27851W        W70904  29.546  33.045  17.784  0.0794  0.1757 -0.0207
27852W        W70905  16.349   1.179  16.284  0.1120  0.1696 -0.0178
27853W        W70906  14.231  27.140  21.026  0.1168  0.3691 -0.1317
27854W        W70907  20.647  33.395  22.779 -0.1609 -0.0804 -0.0262
27855W        W70908  30.318   2.369  17.822 -0.0758  0.1570 -0.0657
27856W        W70909   3.016  20.873  15.795 -0.2501 -0.0193 -0.3146
27857W        W70910   9.470  10.456  16.790  0.0760  0.2124 -0.0025
27858W        W70911   5.868  32.403  19.474  0.1562  0.0812  0.0890
27859W        W70912  30.111  20.744  25.241  0.1397  0.2859  0.3282
27860W        W70913  26.343  32.230  19.099 -0.0381 -0.1470 -0.1037
27861W        W70914   4.920   0.899  28.144 -0.1026  0.0544 -0.0226
27862W        W70915   7.265  30.852  20.264  0.2471  0.0268 -0.0846
27863W        W70916  17.642   8.024  16.367 -0.0001  0.0449  0.2518
27864W        W70917  28.768  24.770   9.543  0.2019  0.2734 -0.1172
27865W        W70918   6.605   1.527  28.388 -0.0716 -0.0294  0.0118
27866W        W70919  19.382  23.511  16.848 -0.0770  0.0066 -0.0063
27867W        W70920   6.932   5.206  22.964  0.0520  0.0351 -0.2176
27868W        W70921   9.702   3.498  27.282  0.0421  0.0339  0.2527
27869W        W70922  10.522  28.523  28.301 -0.2361  0.0119  0.2933
27870W        W70923  20.078  29.554  17.460  0.0268 -0.0136 -0.2673
27871W        W70924  15.470  23.525  15.529  0.0411 -0.1731 -0.1047
27872W        W70925  12.427  27.702   0.011 -0.0137 -0.2049 -0.2427
27873W        W70926  21.193  29.800  25.405  0.1118  0.1257  0.0641
27874W        W70927  16.929  10.452  18.863 -0.1382  0.0268 -0.0741
27875W        W70928  31.815  14.282   3.346 -0.4104 -0.1120  0.1401
27876W        W70929  30.051  25.952  18.654  0.0410  0.1174  0.3394
27877W        W70930  27.261  19.976  14.565 -0.0140 -0.0684 -0.2217
27878W        W70931  24.539  27.792   0.478 -0.0429 -0.0739 -0.2739
27879W        W70932  17.133  27.402  23.738 -0.0207  0.2873 -0.0739
27880W        W70933  20.758  17.343  20.691  0.1210  0.0369 -0.3309
27881W        W70934  30.872   7.797  14.455 -0.0032 -0.1915 -0.0738
27882W        W70935  31.942   6.709   5.686 -0.0875  0.0035 -0.2488
27883W        W70936   1.844   9.042  24.972  0.2642 -0.2890 -0.0697
27884W        W70937   4.399  31.364   5.329  0.0269  0.1738  0.0209
27885W        W70938   4.583  20.857  15.126  0.2175 -0.1319 -0.2558
27886W        W70939  28.943  27.006  23.081  0.2731  0.1282  0.2230
27887W        W70940  14.303  20.278   0.191 -0.2193 -0.1528 -0.3919
27888W        W70941  34.175   0.363  19.932 -0.1520  0.2692 -0.0632
27889W        W70942  15.959   0.874  16.103  0.0807  0.1201 -0.2107
27890W        W70943  14.221   8.870  27.242 -0.1058 -0.2298  0.1004
27891W        W70944  34.282  11.316  28.248  0.0991  0.1949 -0.1294
27892W        W70945  27.400  20.077   1.115  0.1054  0.1597  0.1412
27893W        W70946   8.951   0.558  16.278  0.2948  0.3831 -0.1769
27894W        W70947  23.628  23.779  16.287  0.2340 -0.0361  0.2105
27895W        W70948  12.473  10.940  18.140 -0.3683 -0.0747 -0.1488
27896W        W70949  27.576   3.165  21.827 -0.0688 -0.2475 -0.0233
27897W        W70950  10.598  18.021  21.781  0.1821 -0.0011  0.2126
27898W        W70951  27.257  16.708  22.977  0.2578 -0.1473  0.0868
27899W        W70952  26.760  11.134  16.512  0.0242 -0.0156 -0.0284
27900W        W70953   5.676  28.520  27.627 -0.1205 -0.3074 -0.0770
27901W        W70954  29.264  19.746  18.787 -0.3514 -0.0846 -0.1996
27902W        W70955  30.500  29.128  21.902 -0.2255 -0.3536  0.0281
27903W        W70956   7.232  26.146  26.566 -0.1310 -0.2210 -0.0100
27904W        W70957  15.239  23.723  16.349 -0.3533  0.1391  0.1573
27905W        W70958  16.083  10.764  19.627  0.1182  0.1260 -0.0267
27906W        W70959  22.968   5.699   1.452  0.0148 -0.3058 -0.0571
27907W        W70960  13.814   3.649  14.043 -0.0849 -0.2004  0.0905
27908W        W70961  22.015   3.400  15.565 -0.0152 -0.1200  0.0523
27909W        W70962  22.299  29.011  21.444  0.5492 -0.0994 -0.0545
27910W        W70963  23.014  30.876  18.711 -0.2185  0.2519  0.1242
27911W        W70964  11.797  28.773  21.245  0.2132 -0.0094 -0.1184
27912W        W70965   1.691  29.608  17.852 -0.2789 -0.2064 -0.2094
27913W        W70966   4.937  33.362  27.134  0.2443 -0.1842 -0.3054
27914W        W70967   9.659  32.447  24.948 -0.0436  0.0287 -0.3562
27915W        W70968  14.644   5.697  24.264  0.0238 -0.0677  0.0245
27916W        W70969   4.972  17.097  25.280 -0.0366  0.0432 -0.2366
27917W        W70970  25.670  20.302  19.542  0.0655 -0.0352 -0.1028
27918W        W70971   0.082  21.619  14.981  0.0159 -0.0059  0.0213
27919W        W70972  21.873  20.607  20.256  0.2402  0.0826  0.4115
27920W        W70973  33.517  11.983  13.980 -0.0476 -0.0761  0.1152
27921W        W70974  14.950  30.034  27.491 -0.2108 -0.2083  0.2316
27922W        W70975   3.444  19.356  27.414  0.1324  0.1199 -0.0675
27923W        W70976  18.278  26.762  27.086  0.0661 -0.1109 -0.1113
27924W        W70977  15.361  19.003  15.597 -0.2341  0.1544 -0.1083
27925W        W70978   5.995   4.681  15.559 -0.3276 -0.0211 -0.1092
27926W        W70979  29.792   1.819   7.030 -0.0295  0.4813 -0.2652
27927W        W70980  11.675  23.297   1.399 -0.4380  0.0049 -0.2260
27928W        W70981  19.106   8.674  22.406 -0.2540 -0.3018 -0.0888
27929W        W70982  18.578  31.832  18.084  0.3409  0.0346  0.0021
27930W        W70983  33.521   9.705  20.671 -0.0044  0.0974  0.0143
27931W        W70984   5.620  25.141  23.709  0.1299  0.1730 -0.2039
27932W        W70985  21.370  33.269  28.589  0.3348 -0.1202 -0.0483
27933W        W70986  21.548  14.781  20.172 -0.0573 -0.2648  0.7500
27934W        W70987  29.843   5.102   2.997  0.0319  0.2344 -0.2035
27935W        W70988  28.929  34.237  19.211 -0.0738  0.1126 -0.1528
27936W        W70989   4.837  34.468  20.132 -0.2466  0.5373 -0.0321
27937W        W70990   9.398   5.130  21.936 -0.0029  0.2276 -0.1257
27938W        W70991   1.999  16.125  18.078  0.1388 -0.2562  0.2978
27939W        W70992  12.283   4.451  17.696  0.0495  0.1486  0.2539
27940W        W70993   8.555  29.572  19.832 -0.1781  0.0421  0.2317
27941W        W70994  22.236  14.949  19.837 -0.0645 -0.1707 -0.0729
27942W        W70995   5.661   5.509  20.964  0.3334 -0.0462 -0.4287
27943W        W70996  20.089  15.434  22.645  0.2873  0.0047  0.0062
27944W        W70997  17.046   6.433   2.800  0.0178  0.0378 -0.0683
27945W        W70998  22.311  34.252  17.604 -0.3648 -0.0953  0.1085
27946W        W70999  25.192   3.375  21.155 -0.2664  0.1320 -0.2658
27947W        W71000  26.683  26.629  21.471 -0.1748 -0.4731  0.0454
27948W        W71001  32.626  31.362  13.287  0.2766 -0.1641  0.1461
27949W        W71002   3.749   0.251  14.416  0.0379  0.1132 -0.1339
27950W        W71003  33.259  24.815   4.961  0.0327 -0.3888  0.3735
27951W        W71004   9.112   9.323  18.518  0.1130 -0.6595 -0.0828
27952W        W71005   1.048  26.666  23.659  0.1229 -0.4845 -0.1848
27953W        W71006  14.804  29.288  13.370  0.2629  0.1064  0.0168
27954W        W71007  34.067   0.327  25.663 -0.0551  0.0314  0.3675
27955W        W71008  18.873  10.980  26.506 -0.0275  0.1892 -0.0393
27956W        W71009   0.209  24.649   4.589 -0.3573  0.2333 -0.1727
27957W        W71010  17.105  31.955  18.018 -0.0490  0.0792  0.1375
27958W        W71011  21.136  20.007  20.855  0.2395 -0.0494  0.1116
27959W        W71012  21.773  20.023  21.167  0.1594 -0.0466 -0.1024
27960W        W71013   7.534  21.114   0.701  0.0013 -0.0263 -0.2741
27961W        W71014  15.954  29.953  15.421  0.1352 -0.0699 -0.0176
27962W        W71015  33.096  33.327  20.607 -0.0244 -0.3186  0.0129
27963W        W71016  27.481  25.978   1.415  0.1330  0.0798 -0.0661
27964W        W71017  22.812   6.370  17.029 -0.2018  0.1906  0.1482
27965W        W71018   9.496  21.225  23.771 -0.1019  0.1777  0.1284
27966W        W71019  23.764   0.702   4.696 -0.1139 -0.0066  0.3285
27967W        W71020  31.932  27.004  18.921  0.1135  0.1004 -0.0694
27968W        W71021  34.543  23.921  18.012 -0.2889 -0.0829  0.0994
27969W        W71022  19.229  34.608   4.738  0.0259  0.0559  0.5439
27970W        W71023   2.175  32.679  28.599 -0.1157  0.0364 -0.3525
27971W        W71024  11.820  13.439  18.983  0.2480 -0.1352  0.0572
27972W        W71025  24.301  30.107  20.441 -0.0020 -0.1688  0.2780
27973W        W71026  28.653   5.790  22.466 -0.1582 -0.1300 -0.1441
27974W        W71027  17.460  33.337  18.398  0.1854 -0.0814 -0.1126
27975W        W71028   5.250  26.183  24.107  0.0819  0.1285 -0.0198
27976W        W71029  12.460  16.631  21.597 -0.2734  0.1328  0.0833
27977W        W71030  33.337   4.340  17.404 -0.4187  0.0827 -0.0641
27978W        W71031  32.540  34.402  24.847 -0.0350 -0.2616 -0.1701
27979W        W71032  34.396  26.564  17.752  0.0654  0.1874  0.2489
27980W        W71033  21.580  18.062  15.227 -0.1197 -0.2950 -0.2419
27981W        W71034  27.513  11.363  20.858  0.4995  0.2770 -0.2164
27982W        W71035  23.697  15.643  14.322  0.2500  0.0595  0.0774
27983W        W71036   6.551  31.557  25.523 -0.2094 -0.1252  0.2157
27984W        W71037   2.953   6.200  21.470 -0.0178 -0.0585 -0.0492
27985W        W71038   8.285   2.655  29.187 -0.0448  0.1045  0.1474
27986W        W71039  21.006   3.852  14.639  0.2013 -0.0121  0.0873
27987W        W71040  28.084   3.784  20.062  0.0086  0.1622 -0.0180
27988W        W71041   3.458  14.165  23.045 -0.1508  0.0661  0.1705
27989W        W71042  26.913  32.802  15.754  0.0679 -0.1843  0.0108
27990W        W71043  33.739   0.768  15.465 -0.2440  0.2141 -0.2148
27991W        W71044  15.163  23.808  23.257  0.4216  0.1021 -0.2409
27992W        W71045  21.771   2.343  23.987  0.0805  0.0989 -0.2212
27993W        W71046  29.399  22.788  18.633 -0.0585 -0.1100 -0.0967
27994W        W71047  29.964  18.798  23.444 -0.1062  0.0148 -0.0066
27995W        W71048  20.064  28.702  15.887 -0.0377 -0.0959 -0.0192
27996W        W71049  18.688  31.542  17.694 -0.0107 -0.0534  0.1192
27997W        W71050  25.416   2.746  17.146  0.1625  0.1427  0.3079
27998W        W71051  22.664  15.318  21.084  0.1981  0.1314 -0.0846
27999W        W71052  34.366  29.942  17.528  0.1693  0.0575  0.1105
28000W        W71053  25.042  29.478  27.630  0.2510 -0.0044  0.1047
28001W        W71054  16.598   4.597  25.673 -0.0538 -0.0490 -0.0352
28002W        W71055  10.962  24.223   7.032  0.0210 -0.0478 -0.3135
28003W        W71056   2.375  30.355  25.404  0.0572 -0.0776 -0.1123
28004W        W71057  25.698  28.949  15.401 -0.1341  0.2293  0.0029
28005W        W71058   0.039  18.152  18.123 -0.1743  0.0481  0.1048
28006W        W71059  21.707   3.517  16.409 -0.1685  0.3108 -0.2714
28007W        W71060  34.640  13.111  15.425  0.1765  0.0519  0.1767
28008W        W71061  21.622  24.476  19.780 -0.0764  0.0405 -0.2260
28009W        W71062  32.724  24.508  28.873  0.1767 -0.1142  0.1206
28010W        W71063  31.197  24.189  22.762  0.0944 -0.0620 -0.1957
28011W        W71064  24.368   7.072  28.642 -0.0773 -0.0313  0.0559
28012W        W71065   1.488  27.003  18.722 -0.3248 -0.1387 -0.0069
28013W        W71066  24.292   1.000  20.878  0.0921 -0.1507 -0.3744
28014W        W71067  32.621  29.840  17.546  0.2996  0.0067 -0.0573
28015W        W71068  34.449   3.000   8.427  0.0700  0.0936  0.0652
28016W        W71069  32.400  29.139  28.354 -0.2028 -0.3304 -0.2441
28017W        W71070   3.984   2.312  17.343  0.1846  0.0247 -0.0161
28018W        W71071  31.972  23.590  17.666 -0.0693 -0.0659 -0.0169
28019W        W71072  22.233  26.407  20.521 -0.1153  0.3304 -0.1434
28020W        W71073  24.671  28.038  27.864  0.0295  0.1048  0.1983
28021W        W71074   2.717  27.263  12.860  0.2865 -0.0808  0.0710
28022W        W71075  29.573  29.083  17.003  0.0708 -0.0982 -0.1566
28023W        W71076  19.626   5.963   1.230 -0.0878  0.0187 -0.0398
28024W        W71077   0.672   2.137  24.220 -0.1453  0.1820  0.2222
28025W        W71078  34.043  25.276   1.803  0.1737 -0.3107 -0.0700
28026W        W71079  18.428   3.865  22.854 -0.2452  0.1037  0.4103
28027W        W71080   1.325   9.502  22.426  0.4043 -0.0907 -0.1143
28028W        W71081  16.140  23.186  17.774  0.1083  0.0047  0.0051
28029W        W71082   8.547  29.268  15.884 -0.1294 -0.2168 -0.1093
28030W        W71083   4.132  14.337  19.764  0.1590  0.1844 -0.2198
28031W        W71084  21.039   4.106  16.437 -0.0077 -0.2085 -0.1187
28032W        W71085   0.962   8.524  19.978 -0.1530  0.1787  0.3129
28033W        W71086  18.705  31.558  19.773 -0.2545  0.2638 -0.0359
28034W        W71087  23.768  33.001  22.533  0.2002  0.1147 -0.1026
28035W        W71088  30.954   7.449  21.935  0.2059  0.1334 -0.3513
28036W        W71089  16.808  32.310  16.452  0.1731  0.3187 -0.1108
28037W        W71090  16.544   3.432   7.674 -0.0037  0.2637  0.2707
28038W        W71091  20.445   6.774  23.545  0.2058 -0.2283  0.3904
28039W        W71092  16.352  22.256  25.403  0.3997  0.1988 -0.2485
28040W        W71093  32.947  26.819  17.401 -0.0255  0.0415 -0.1638
28041W        W71094  23.291  10.587  18.192  0.0755 -0.0919 -0.2672
28042W        W71095  24.365  29.019  15.185  0.0080  0.3394  0.1055
28043W        W71096  15.693   4.162   1.452 -0.0825 -0.2346  0.0670
28044W        W71097  29.427   1.514  28.977 -0.0619  0.0880 -0.1179
28045W        W71098  27.187  24.040  18.841  0.5362 -0.2287 -0.1014
28046W        W71099   3.192   2.436  17.799  0.3276 -0.0945  0.1114
28047W        W71100  30.572  34.410  18.527 -0.1891 -0.2593 -0.0690
28048W        W71101   1.173  10.539  18.110 -0.1755 -0.0125 -0.1288
28049W        W71102   9.478  32.342   3.945 -0.0234 -0.0516  0.0704
28050W        W71103  34.069   2.438  15.354  0.2978  0.0383  0.0557
28051W        W71104  11.267   9.918  26.844  0.3304  0.0593  0.0354
28052W        W71105  27.993   2.459  15.994  0.0656 -0.2785 -0.1671
28053W        W71106  26.733  31.150  17.802  0.1539  0.0817 -0.2395
28054W        W71107  34.402  29.402  16.104 -0.2317  0.0327  0.2040
28055W        W71108  25.174  31.669  17.279 -0.0345 -0.0161  0.0118
28056W        W71109  19.902  11.310  21.124  0.0075 -0.1035  0.1598
28057W        W71110  33.221  21.623  23.603 -0.0179 -0.0574 -0.1642
28058W        W71111   5.167  23.059  22.119  0.2903 -0.2052  0.1122
28059W        W71112  27.415  34.069  20.702  0.2451  0.1873  0.4264
28060W        W71113  28.175  28.002   2.638  0.0350 -0.2190  0.0089
28061W        W71114  18.018   3.663  21.632 -0.0956 -0.2204  0.1945
28062W        W71115  27.862   6.313  16.775 -0.1863 -0.1147  0.1250
28063W        W71116  29.479  16.767  15.355 -0.0268 -0.1009 -0.2473
28064W        W71117  10.580  33.113  25.774  0.4001  0.0378 -0.1220
28065W        W71118  32.292   0.922  20.521 -0.0161 -0.0833 -0.0464
28066W        W71119   6.622  14.239  21.750  0.1521  0.3407  0.1458
28067W        W71120  20.839  24.620  22.419  0.1614  0.1973  0.0689
28068W        W71121  23.970  12.663  13.160 -0.2296  0.2063  0.1898
28069W        W71122  22.731  25.267  21.746 -0.1143  0.1786 -0.1787
28070W        W71123  34.491  32.527  19.867  0.2320 -0.1901 -0.1195
28071W        W71124  11.593  34.481  14.520 -0.1273  0.2230  0.1315
28072W        W71125  15.436  23.810  22.570  0.0471 -0.4011 -0.1535
28073W        W71126   6.569   3.206  10.052 -0.0672 -0.4050  0.3171
28074W        W71127  27.362  25.137   6.225  0.0627 -0.2508 -0.0492
28075W        W71128  28.704  23.814  16.525 -0.0844  0.2297 -0.1847
28076W        W71129   3.903  28.383   1.567  0.0751 -0.0738 -0.2878
28077W        W71130  19.984  30.833  18.906 -0.0192 -0.1099 -0.0683
28078W        W71131   6.454  27.135  17.133 -0.1831  0.1437 -0.0909
28079W        W71132  19.397  31.797   5.053 -0.0706 -0.2807 -0.0833
28080W        W71133  23.163  19.805  23.985 -0.2237  0.0303  0.1507
28081W        W71134  30.240  27.549  22.621  0.0124  0.1307 -0.0286
28082W        W71135   7.738  30.070  17.218  0.0841 -0.0206 -0.1092
28083W        W71136  31.447  31.504  28.217 -0.1180  0.0274  0.0443
28084W        W71137  18.364  21.072  16.422  0.0111 -0.0530  0.3519
28085W        W71138  31.772  30.005   2.663  0.1591 -0.0709  0.2087
28086W        W71139  19.906  30.111  16.592 -0.1514  0.0666 -0.2935
28087W        W71140  18.222  21.668  20.623  0.1249  0.0002 -0.0985
28088W        W71141  31.284  33.646  24.901 -0.0357  0.1244  0.1563
28089W        W71142  24.081  22.589  19.459  0.0005 -0.3030 -0.1237
28090W        W71143  24.401  32.439  17.236 -0.0150 -0.0051 -0.1009
28091W        W71144  32.008  29.742  24.035 -0.1053 -0.0367  0.4077
28092W        W71145  31.583   9.552  18.637  0.1264  0.0833  0.0731
28093W        W71146   6.889   3.277  28.497 -0.1804  0.0629 -0.0496
28094W        W71147  21.145  29.716   9.383  0.3195  0.1537  0.0359
28095W        W71148  20.837  21.522  15.242  0.0795  0.0267 -0.3507
28096W        W71149  30.931   4.387  14.557 -0.0853  0.1514  0.3996
28097W        W71150  30.409  29.873  13.841  0.0419 -0.2920  0.1962
28098W        W71151  30.835   6.696  27.265 -0.1670 -0.1055  0.2324
28099W        W71152   1.452   6.792  25.491 -0.1802  0.1400 -0.1920
28100W        W71153  19.374  26.698  16.667  0.2757 -0.0809 -0.0640
28101W        W71154  23.776   7.911  27.338 -0.4159 -0.1920 -0.0473
28102W        W71155   6.234  31.737  18.566 -0.0638  0.1993 -0.3285
28103W        W71156   6.555   1.848  17.468  0.0857  0.0152  0.0519
28104W        W71157  17.767  28.595  17.933 -0.0791 -0.1849 -0.2165
28105W        W71158  30.122  34.202  15.391 -0.0393 -0.1308 -0.3607
28106W        W71159  24.509  20.753  24.080 -0.0376 -0.0685 -0.0941
28107W        W71160  28.753  15.260  22.324  0.1685 -0.0747 -0.0799
28108W        W71161   4.540  31.530  13.598 -0.0108 -0.0159 -0.1513
28109W        W71162  25.305  26.930  17.467 -0.3618 -0.1469 -0.2675
28110W        W71163  23.519   6.964  25.037 -0.4707  0.2189 -0.0300
28111W        W71164  13.865  26.952  28.746  0.0324  0.1124 -0.3460
28112W        W71165   1.634   5.023  16.847 -0.1764 -0.2128 -0.0557
28113W        W71166   8.454  31.779   0.268  0.3844  0.1704 -0.1739
28114W        W71167  20.751  15.227  23.510 -0.0030 -0.0334 -0.1214
28115W        W71168  28.226  31.629  26.608 -0.0737  0.0511  0.2559
28116W        W71169  19.328   4.735   4.399  0.0877  0.0080  0.1879
28117W        W71170   2.174  31.779   0.572  0.3633 -0.3367 -0.0845
28118W        W71171  20.487   6.531  16.565 -0.1631 -0.0234 -0.0991
28119W        W71172  27.473   6.595  18.524 -0.0464 -0.2132 -0.0309
28120W        W71173  19.414   2.053  24.602 -0.0503 -0.2962  0.1459
28121W        W71174   9.364  31.432  21.672 -0.3871  0.0350 -0.3540
28122W        W71175   0.162   3.338  15.814  0.4265 -0.0462  0.1291
28123W        W71176  29.640  32.014  18.246  0.0463 -0.1105 -0.1074
28124W        W71177  21.008  21.494  23.767 -0.0255  0.0094 -0.2534
28125W        W71178  22.218  24.270  18.298 -0.0234 -0.0924  0.0525
28126W        W71179  10.460   0.694  23.244  0.2416  0.1421 -0.1869
28127W        W71180  12.836  24.388  21.335  0.1510  0.2250 -0.2494
28128W        W71181  31.528  32.134  25.434  0.1413  0.0237  0.0378
28129W        W71182  32.809  19.927  28.509  0.0099 -0.1323 -0.2262
28130W        W71183   4.406  26.133  28.656 -0.3967  0.0402  0.2349
28131W        W71184   1.741   5.704  18.729  0.0890 -0.2467 -0.2569
28132W        W71185  25.351  30.540   9.654  0.0372 -0.0096  0.2167
28133W        W71186  34.142  26.717  25.502  0.2539 -0.1225  0.1626
28134W        W71187   9.412  34.325  16.840  0.1212 -0.0204 -0.1211
28135W        W71188  24.486   8.998  24.785  0.0573  0.3715 -0.2647
28136W        W71189   1.514  21.183   0.864  0.0034  0.5424  0.2157
28137W        W71190   5.741   0.253  25.933 -0.1134 -0.2144  0.1536
28138W        W71191  20.568   4.140   0.885  0.3164 -0.2436  0.3178
28139W        W71192  28.312   8.769   2.006  0.1570 -0.3040 -0.0776
28140W        W71193   3.631   3.726   7.881  0.0129 -0.0335  0.0738
28141W        W71194  33.102  32.678  23.246  0.0207 -0.0942  0.4363
28142W        W71195   1.635  22.303  14.816  0.0439  0.0418 -0.1041
28143W        W71196  26.301  19.319  23.433 -0.2875  0.2472  0.4337
28144W        W71197  21.071  28.549  20.312 -0.0274  0.3936  0.0757
28145W        W71198  27.880   3.099  22.271  0.4232  0.1627  0.0956
28146W        W71199  27.357  23.236  19.384  0.1043 -0.2105 -0.2091
28147W        W71200  29.120   6.494   1.342  0.1562 -0.0069  0.2477
28148W        W71201  15.217  30.966  23.414 -0.0733  0.0677 -0.2061
28149W        W71202  26.644   8.862  24.005 -0.0636 -0.1281 -0.1111
28150W        W71203  26.621  12.181  16.003 -0.1455 -0.0444  0.2341
28151W        W71204  23.912  24.493  16.419  0.0152  0.0469 -0.0089
28152W        W71205  26.060  32.469  19.936 -0.1915  0.4376  0.0818
28153W        W71206   1.640   2.437   6.297 -0.1349 -0.0548 -0.1534
28154W        W71207  17.673  28.346  26.337  0.0365 -0.1499 -0.1616
28155W        W71208  31.601   6.439  17.545  0.0270  0.4742 -0.0688
28156W        W71209  25.349  25.498  13.962  0.1080 -0.1657 -0.0279
28157W        W71210  15.607   6.195  15.565  0.2435  0.2286  0.1117
28158W        W71211  34.391  14.442  15.466  0.1814  0.0138 -0.0080
28159W        W71212  17.683   5.966  18.774  0.0625 -0.1373 -0.0637
28160W        W71213  31.841   4.290  15.245 -0.1944  0.3261 -0.6009
28161W        W71214  25.868  29.000   0.003 -0.3283  0.3315  0.0709
28162W        W71215  26.456  16.608  24.607 -0.1019 -0.2750  0.0780
28163W        W71216   0.229  28.507   7.002 -0.0144  0.3011 -0.0457
28164W        W71217  27.273   1.729   2.230  0.3089  0.0974  0.0012
28165W        W71218   0.686   3.726  18.492 -0.0042 -0.3538  0.1161
28166W        W71219  17.422  27.409  25.548  0.3304 -0.2342  0.2404
28167W        W71220   0.786   1.414   3.702 -0.0227 -0.3154  0.1230
28168W        W71221   9.151  24.868  22.670  0.0763  0.1647 -0.2540
28169W        W71222   0.308  10.659  21.550 -0.0608 -0.0043 -0.2890
28170W        W71223  25.068  34.236  28.127  0.0463 -0.1153  0.0708
28171W        W71224   0.608  32.039  26.962 -0.1260 -0.0234 -0.1192
28172W        W71225  30.555  29.995  28.814 -0.1296  0.0839 -0.2723
28173W        W71226  19.468   5.340  15.598 -0.1385 -0.1238  0.1074
28174W        W71227  11.735  29.984  28.816  0.0723 -0.2058 -0.3075
28175W        W71228  19.122   8.602  20.515 -0.3591  0.4540 -0.1291
28176W        W71229  17.423   1.383  17.779 -0.1241 -0.1884 -0.1640
28177W        W71230   5.344  18.213  20.666 -0.0100  0.3357  0.1138
28178W        W71231  28.322  27.652  20.167 -0.2814 -0.1879  0.2742
28179W        W71232  21.718   2.517  19.117  0.1883  0.1546  0.1884
28180W        W71233  24.230  17.694   1.901 -0.0823  0.1158  0.1854
28181W        W71234  28.602  34.075  18.131 -0.1600  0.0778 -0.0265
28182W        W71235  24.119   6.589  26.448 -0.2244 -0.0918 -0.1566
28183W        W71236  21.918  28.626  21.335 -0.2021  0.1249  0.2477
28184W        W71237   0.968  30.714   2.864 -0.0578 -0.2574  0.2096
28185W        W71238   1.872   7.941  19.624  0.0273  0.3849  0.1223
28186W        W71239   8.559   9.228  14.235 -0.4044  0.2358  0.2900
28187W        W71240  33.392  32.752  16.990 -0.1740  0.2574 -0.0876
28188W        W71241  21.515  23.499  20.760  0.1258  0.1971 -0.0092
28189W        W71242  11.900   4.738  17.953  0.2364  0.1291 -0.0886
28190W        W71243   4.606  15.955  19.127  0.2477 -0.2053  0.2520
28191W        W71244   9.920  27.338  24.941  0.0849 -0.0197  0.2114
28192W        W71245  30.829  30.354  29.067 -0.0223 -0.3428  0.0953
28193W        W71246  32.342   4.245  18.217 -0.0012 -0.0663 -0.0676
28194W        W71247  32.613  15.828  24.605  0.3270  0.0406 -0.0164
28195W        W71248  17.860   2.210  27.806  0.1109  0.1559 -0.3541
28196W        W71249  27.544   5.303  16.437  0.0168 -0.4030  0.3091
28197W        W71250   3.441  22.820  18.162 -0.0410 -0.1687 -0.1783
28198W        W71251  26.112   6.608  20.771  0.3149  0.1104 -0.0851
28199W        W71252  18.435   7.968  18.647  0.1713  0.1069  0.1827
28200W        W71253  11.834   4.248  20.111 -0.1780 -0.0437  0.0147
28201W        W71254  33.465  33.345  23.673  0.0773  0.1541 -0.1937
28202W        W71255  11.201  26.143  23.810  0.1346  0.0231 -0.1502
28203W        W71256  22.633  15.096   3.849 -0.2612 -0.1177 -0.3211
28204W        W71257  12.424  14.592   7.671 -0.2063  0.2317 -0.1867
28205W        W71258  31.534  29.541  18.426  0.2765 -0.0288 -0.1812
28206W        W71259  27.535  31.658  15.429 -0.1221 -0.2021  0.3857
28207W        W71260  29.947  25.229   1.407  0.1136 -0.0960 -0.0609
28208W        W71261  30.037  26.563  16.875 -0.2235  0.1717 -0.1619
28209W        W71262  18.597   0.847  28.949  0.0361 -0.2191 -0.0259
28210W        W71263  13.947   3.309   3.827 -0.2017 -0.2767 -0.0932
28211W        W71264   0.142   2.702   6.894  0.0194  0.1119 -0.0332
28212W        W71265   7.802   4.564   7.465  0.0277 -0.2067 -0.4063
28213W        W71266  32.929  28.053  23.460  0.3877 -0.0674  0.1485
28214W        W71267  23.315  22.059  19.396 -0.2857 -0.0932 -0.0204
28215W        W71268  27.907  15.108  15.285  0.1109 -0.2611  0.0719
28216W        W71269  14.928   8.149   1.603  0.1195  0.1112  0.1026
28217W        W71270  33.802  24.909  16.174 -0.0255 -0.1778  0.0411
28218W        W71271  28.863  30.328  18.036  0.0532  0.0671  0.0954
28219W        W71272   3.730  16.274  19.385 -0.0166  0.0043 -0.0662
28220W        W71273   6.342  11.634  17.156 -0.1974  0.0871 -0.1212
28221W        W71274   2.434   3.178  27.821  0.0624 -0.1345  0.2709
28222W        W71275  22.987  27.933   4.774 -0.1153  0.3588  0.0011
28223W        W71276  19.298  32.389  27.216  0.1629 -0.0581 -0.1686
28224W        W71277  24.231  17.773  15.282 -0.1749 -0.1811  0.3140
28225W        W71278   2.104  22.216  25.063 -0.1766  0.2053 -0.2338
28226W        W71279  20.940   9.094  20.859 -0.1633 -0.1143  0.0145
28227W        W71280  28.758  33.765   8.627  0.0292 -0.4318 -0.1586
28228W        W71281   4.138  26.277   0.428 -0.0475 -0.1480 -0.0600
28229W        W71282  28.400  30.037  20.922  0.3467 -0.1972 -0.0581
28230W        W71283   7.473  20.936  19.541  0.1579 -0.0520 -0.1928
28231W        W71284   6.808  28.438   3.523  0.4086 -0.0376 -0.0599
28232W        W71285   3.274  23.040  18.620 -0.0232 -0.0182  0.3259
28233W        W71286  18.986  30.419  19.502 -0.0310  0.0835 -0.2379
28234W        W71287  21.547  11.910  17.233 -0.1245 -0.2869 -0.4517
28235W        W71288   6.912   0.684   0.464  0.1127 -0.5885  0.4041
28236W        W71289  29.536  26.424  17.548  0.4243  0.2137  0.2393
28237W        W71290   5.634  24.994  22.764 -0.0161  0.2729  0.0557
28238W        W71291   4.929   7.760  26.649 -0.2456 -0.2230  0.0181
28239W        W71292  27.926  29.079  19.880  0.1453  0.2989  0.2820
28240W        W71293  23.533  32.634  20.717  0.0047 -0.0292 -0.0997
28241W        W71294  20.129  27.822  25.318 -0.1916 -0.0102  0.1354
28242W        W71295  32.875   5.817  16.128 -0.1977 -0.0523  0.1490
28243W        W71296   3.425   7.194  23.795 -0.2093  0.0111  0.0971
28244W        W71297   0.756  32.836  22.812  0.2224  0.1496 -0.1158
28245W        W71298  31.626  27.582   1.376  0.1243  0.2217  0.2757
28246W        W71299  25.204  30.794  13.944  0.0452 -0.1827 -0.1844
28247W        W71300  33.743  34.207   3.534  0.2036 -0.3052 -0.0329
28248W        W71301   4.178  29.313  16.739  0.0060  0.0808 -0.2016
28249W        W71302  27.886  20.975  15.552  0.1641 -0.1364 -0.0294
28250W        W71303  30.017   6.192  14.213  0.1624  0.3290 -0.3279
28251W        W71304  32.782  27.390  24.688  0.1870 -0.2348 -0.1233
28252W        W71305  31.762  23.975  18.185 -0.2252 -0.0174 -0.0600
28253W        W71306  34.121  22.450  22.142 -0.0058  0.2102 -0.3301
28254W        W71307   9.634   8.005  28.142  0.0091  0.1337  0.1483
28255W        W71308  17.390  30.870  16.082 -0.0047  0.2411  0.1100
28256W        W71309  24.341  28.414  23.483  0.0841  0.2032 -0.3228
28257W        W71310  25.371  32.428  26.230  0.2540  0.3403  0.1726
28258W        W71311  16.307  27.118  26.328 -0.1367  0.0257  0.0022
28259W        W71312   5.642  13.319  23.448 -0.0113  0.2024 -0.2736
28260W        W71313  29.476  25.577  14.215  0.1816 -0.1821  0.0909
28261W        W71314  16.747   1.838   2.756 -0.2985 -0.0315  0.2491
28262W        W71315  19.293  10.721  24.270  0.1547 -0.0654  0.2208
28263W        W71316  23.269  23.662  23.577 -0.0217  0.0362  0.3208
28264W        W71317  19.875   3.751  13.880 -0.0667  0.0077 -0.1059
28265W        W71318  29.798  33.286  19.295  0.0472 -0.3621 -0.0146
28266W        W71319   3.476   1.742  23.923 -0.2517  0.0286  0.2234
28267W        W71320  30.491   5.944   1.082 -0.1146  0.0947 -0.0970
28268W        W71321  33.822   4.778  28.335  0.1132 -0.3647 -0.0925
28269W        W71322  29.178  33.550   5.731  0.1836 -0.3484  0.2399
28270W        W71323  13.610  27.529  19.170  0.0631  0.0413  0.1087
28271W        W71324  28.234   8.575  21.584  0.1805 -0.3953 -0.4444
28272W        W71325   8.552  29.867  24.706 -0.0208  0.1860 -0.0891
28273W        W71326  27.719  26.080  29.138  0.1230 -0.1613  0.2665
28274W        W71327  16.882  31.824   2.252 -0.0108 -0.2484 -0.0693
28275W        W71328  23.261  29.684  19.499  0.2126  0.2888  0.0079
28276W        W71329  21.672  28.347  28.045 -0.0817  0.0266  0.0712
28277W        W71330  16.293  11.303  20.939 -0.0534 -0.1538  0.1715
28278W        W71331   9.930  28.756  21.004 -0.0582  0.3112 -0.1267
28279W        W71332  12.403  33.670  18.338 -0.2216 -0.1395 -0.1825
28280W        W71333  13.793   1.142   2.508  0.3587 -0.2379 -0.0794
28281W        W71334   0.991  23.359  22.602  0.0376  0.0713 -0.0616
28282W        W71335  29.201  14.537  24.317 -0.2972 -0.0312  0.0973
28283W        W71336  10.941  26.806  14.458  0.0245  0.3850 -0.0615
28284W        W71337   9.285  10.861   1.306 -0.1471 -0.1616  0.2046
28285W        W71338   3.994   2.389  26.431  0.1544 -0.1551  0.4552
28286W        W71339  32.320   1.538  22.795  0.1822  0.0264  0.1493
28287W        W71340  25.569  15.589  17.228 -0.0581  0.1033  0.0594
28288W        W71341  30.337   2.508  18.904 -0.0385  0.0286  0.0590
28289W        W71342  10.440  12.278  24.923  0.1017  0.5215 -0.1908
28290W        W71343   6.356  21.294  13.899  0.1610  0.0531 -0.2175
28291W        W71344  26.410  18.335  20.545 -0.1843  0.2844 -0.0580
28292W        W71345  25.379   2.425  21.832  0.3164  0.0288 -0.1497
28293W        W71346  34.131  31.830  18.267 -0.0312  0.1939  0.2076
28294W        W71347   8.318  28.194   1.263  0.0966  0.0568 -0.2800
28295W        W71348  16.122   5.463  17.209  0.2584 -0.0989  0.0025
28296W        W71349  31.100   1.030  18.026 -0.1198  0.1462 -0.3242
28297W        W71350  28.780  24.806  26.890 -0.1312  0.0208  0.1467
28298W        W71351  24.190  28.167  19.834 -0.1499 -0.0901  0.3214
28299W        W71352  26.465   0.279   1.173 -0.3176 -0.0571 -0.0738
28300W        W71353  30.661  26.171  15.861 -0.1589 -0.0421 -0.0174
28301W        W71354  25.175  20.928  17.438 -0.0604  0.0433  0.4691
28302W        W71355   9.597  19.803  15.183  0.1281  0.1995 -0.2179
28303W        W71356   7.357  27.621  18.598  0.4246 -0.4029  0.1247
28304W        W71357  28.298  18.672  17.929  0.2902  0.0356 -0.0294
28305W        W71358  12.938  29.334   3.150 -0.1917 -0.3281 -0.0943
28306W        W71359   8.484  21.194  26.639  0.0370  0.0781  0.2416
28307W        W71360  13.840  14.219  27.493  0.1147 -0.0136  0.3990
28308W        W71361  23.772   0.919  17.297 -0.2654  0.0444  0.1613
28309W        W71362  30.442  17.979  20.126  0.1142  0.2759 -0.0996
28310W        W71363  17.465   1.792   2.313 -0.5045  0.1504  0.2327
28311W        W71364  33.727   4.773  24.603 -0.0514  0.0612 -0.1247
28312W        W71365  11.274   2.880  15.684 -0.1694 -0.1810 -0.1133
28313W        W71366  13.702  27.976  17.562 -0.1709 -0.0746  0.2015
28314W        W71367  33.884   9.531  18.450  0.1636 -0.1139  0.1359
28315W        W71368  26.967  27.205   2.647 -0.1110 -0.1365 -0.1474
28316W        W71369  14.463  21.541  18.273 -0.1007  0.0392 -0.2657
28317W        W71370  15.539  25.131  23.611  0.1570  0.2026 -0.1601
28318W        W71371   0.952  20.239  16.768  0.2951  0.0388  0.0130
28319W        W71372   6.362  28.153  19.194 -0.3123  0.0810  0.0656
28320W        W71373  28.211  30.261  21.322 -0.2923 -0.2292 -0.1623
28321W        W71374   1.244  27.262  19.127  0.1483 -0.0093  0.2404
28322W        W71375   2.416  22.072  18.639 -0.1609  0.0962 -0.2052
28323W        W71376  19.366  33.712  25.108 -0.0533 -0.1490 -0.0673
28324W        W71377   7.268   0.126  26.023  0.1679 -0.2484 -0.0789
28325W        W71378  31.935   1.786  19.409 -0.2366  0.2812  0.2687
28326W        W71379  25.855  16.860  23.310  0.1701  0.1532 -0.0076
28327W        W71380  23.970  27.132  15.261 -0.1679  0.1152 -0.0190
28328W        W71381   0.562   2.633  15.283 -0.1748  0.1190 -0.0480
28329W        W71382  32.564  33.032  23.956  0.2860 -0.2038 -0.1204
28330W        W71383  33.661  28.991  20.877 -0.1986 -0.1278  0.1255
28331W        W71384  22.900  19.359  15.528 -0.0235  0.0166 -0.0751
28332W        W71385  29.309  23.994  20.493  0.3123 -0.1754 -0.3424
28333W        W71386  11.933   2.347  20.492  0.0517 -0.0748  0.1445
28334W        W71387  21.353  31.477  21.627 -0.2910  0.1386 -0.5409
28335W        W71388   2.334  13.698  14.304  0.0831 -0.0693  0.0434
28336W        W71389  11.898  26.882  22.847 -0.1091 -0.0046  0.1716
28337W        W71390   5.436   3.464  19.813 -0.0151 -0.1771 -0.2197
28338W        W71391  19.180  33.545   2.186 -0.1787 -0.0070  0.1327
28339W        W71392  24.502  32.733  16.654 -0.1044 -0.0393  0.0291
28340W        W71393  19.064  28.208  19.371  0.0916  0.2837 -0.0265
28341W        W71394  11.087  33.558  24.259  0.0115  0.1906 -0.0686
28342W        W71395  26.619  29.145  21.973 -0.1752 -0.2183  0.3133
28343W        W71396   2.227  34.257  26.609  0.0185 -0.0609 -0.0690
28344W        W71397   7.515  27.876  26.755  0.2758  0.0697  0.2532
28345W        W71398  17.963  22.515  13.741 -0.0546 -0.2972  0.0992
28346W        W71399  25.622  14.680  15.820  0.1212  0.1846  0.0444
28347W        W71400  26.971  20.002  17.729  0.1099  0.1384 -0.3048
28348W        W71401  20.544   0.026  21.563  0.1895  0.1112  0.0961
28349W        W71402  24.586  29.971  28.940  0.1364  0.1808 -0.2052
28350W        W71403  16.317  11.841  14.382 -0.2934 -0.0508  0.2663
28351W        W71404  17.435  31.682   1.026  0.1519 -0.0799 -0.0674
28352W        W71405   0.036  12.096  20.588  0.0775 -0.4127 -0.1273
28353W        W71406  33.027   1.849  20.539 -0.5018  0.0752 -0.0642
28354W        W71407   9.213  23.751  20.117 -0.1255 -0.0756 -0.1273
28355W        W71408   2.364  28.195  13.789  0.0521  0.1684  0.0151
28356W        W71409  32.990   2.330   2.242 -0.1450  0.0606  0.3177
28357W        W71410  12.105  22.485  25.732  0.0826 -0.2989  0.2427
28358W        W71411  21.825  33.383  26.064  0.1523 -0.2435 -0.2099
28359W        W71412  23.146  25.808  18.053  0.0374 -0.0561  0.1972
28360W        W71413   7.340   7.607  27.685  0.1313  0.3100 -0.0618
28361W        W71414  13.328  23.286  23.657 -0.2530  0.2614  0.1207
28362W        W71415  24.521  22.662  23.509 -0.1420  0.2220 -0.2432
28363W        W71416  16.417   1.438  24.809  0.0672  0.0626 -0.3485
28364W        W71417  18.880  27.627  22.222  0.1994  0.0631 -0.3043
28365W        W71418  10.447   1.100  16.657  0.0835  0.0908 -0.2050
28366W        W71419  23.702   9.919  15.110 -0.3591 -0.1216 -0.0296
28367W        W71420   9.656  29.916  13.967 -0.2192  0.2794  0.1027
28368W        W71421  33.007  23.414  24.625  0.0010  0.0960  0.1255
28369W        W71422   0.529   6.906  23.634  0.0506 -0.0429 -0.1050
28370W        W71423  10.743  29.484  18.282  0.1244  0.1925 -0.0108
28371W        W71424  26.357   0.382  24.598  0.0194  0.2643  0.0612
28372W        W71425  28.428  33.880  18.985 -0.4596  0.2052  0.0092
28373W        W71426  10.049  18.409  17.432  0.2705 -0.1037 -0.1167
28374W        W71427  24.580   1.805  19.323  0.0933 -0.1360 -0.1838
28375W        W71428  22.305   4.571   1.283  0.0410 -0.0493 -0.0441
28376W        W71429   2.207  11.251  17.576  0.0271  0.0812 -0.2263
28377W        W71430  26.357   4.412  21.082 -0.1970  0.2317 -0.0988
28378W        W71431   4.883  26.778   3.305 -0.0263 -0.2731 -0.0954
28379W        W71432  24.343  33.123   3.352  0.0044 -0.0081 -0.1293
28380W        W71433  31.149  30.524  13.936  0.1104  0.1308 -0.0549
28381W        W71434  33.288  12.626   0.742 -0.1477 -0.2072  0.0569
28382W        W71435  33.120  34.034  22.057 -0.0949 -0.1151 -0.2798
28383W        W71436  22.098   5.177   2.938  0.3147  0.1489  0.0681
28384W        W71437  33.617  27.237   4.508 -0.1362 -0.1303  0.1743
28385W        W71438   6.642   3.228  22.793 -0.0996  0.1077  0.0239
28386W        W71439  26.045  27.607  25.110  0.0031 -0.4262  0.1758
28387W        W71440  29.601   2.097  18.066  0.3480  0.1776 -0.1186
28388W        W71441  34.089  26.922  22.967  0.1597 -0.1404  0.1856
28389W        W71442  11.325  30.243  25.398 -0.0020  0.1958 -0.1634
28390W        W71443  15.404  32.526  20.067 -0.0067 -0.0548  0.4023
28391W        W71444  10.510  26.261  28.200  0.0884  0.0436 -0.0731
28392W        W71445  33.060  23.725  14.922  0.2980  0.1674  0.0831
28393W        W71446  26.907   4.943  22.165 -0.3058 -0.1732  0.2418
28394W        W71447  31.599  27.998  16.682  0.0756  0.0846 -0.1631
28395W        W71448  22.467   6.814  17.676  0.0934  0.0341  0.0022
28396W        W71449  14.293  32.413  17.424  0.0909 -0.2431 -0.0105
28397W        W71450  29.050  22.699  27.239  0.2275 -0.0361 -0.0460
28398W        W71451  32.942  22.799  19.206  0.0543 -0.1583 -0.0166
28399W        W71452  26.746   4.002   4.613 -0.1772 -0.4772  0.3277
28400W        W71453  32.948  28.480  19.957 -0.4114 -0.0429  0.2082
28401W        W71454  23.416  27.459  26.432  0.1560 -0.0717  0.2656
28402W        W71455  32.133  31.682  18.951 -0.2098 -0.3390 -0.2358
28403W        W71456  22.710   8.752  26.181  0.3883 -0.1135 -0.2256
28404W        W71457  33.325  25.690  16.375 -0.3206 -0.0201 -0.1745
28405W        W71458   5.037  22.086   4.255  0.2346 -0.0536 -0.1526
28406W        W71459  33.904   6.240   1.798  0.3470 -0.0802  0.2099
28407W        W71460  23.095  18.399   2.999 -0.0074  0.0981 -0.1263
28408W        W71461  21.774   4.618  20.630 -0.2189 -0.1090  0.2982
28409W        W71462  27.193   2.474  15.493  0.3091 -0.0198 -0.0639
28410W        W71463   3.221   3.413  15.300  0.0914 -0.1568  0.0580
28411W        W71464  11.649  34.425  19.176 -0.1748  0.0583  0.2577
28412W        W71465   2.685  23.248   0.364  0.0459 -0.1488  0.0629
28413W        W71466  28.278  33.248  20.557  0.3970 -0.0811 -0.1046
28414W        W71467  22.180  29.914  24.083 -0.2906 -0.0451 -0.2178
28415W        W71468  30.084  16.357  25.321  0.0875  0.4804 -0.0407
28416W        W71469  25.567  30.357   8.726  0.0316  0.0950  0.2922
28417W        W71470  32.726  26.403  13.172  0.2504 -0.1436 -0.2350
28418W        W71471   5.629  18.102  24.678  0.0151  0.1610  0.1580
28419W        W71472  26.992  25.084  16.827  0.1587  0.1943 -0.2302
28420W        W71473  24.540  20.314  29.130 -0.0222 -0.0513 -0.1774
28421W        W71474  22.024  33.243   3.181  0.0396  0.1420 -0.0819
28422W        W71475  26.461  34.273   2.543  0.0348  0.1378 -0.1069
28423W        W71476   0.315  13.236   7.682  0.0155  0.3024 -0.0804
28424W        W71477  31.600   8.624  20.948 -0.0685 -0.2655  0.0494
28425W        W71478   6.455  22.654  20.251  0.3660  0.0771 -0.0719
28426W        W71479  28.166  29.200  15.106  0.1388 -0.3311  0.0529
28427W        W71480   3.733   0.833   1.844  0.2904  0.1917 -0.0202
28428W        W71481   0.766   1.076   4.039 -0.1101  0.2948  0.0627
28429W        W71482   0.688  28.017  17.053 -0.0081  0.1062 -0.3888
28430W        W71483  26.137  28.824  19.433 -0.1617 -0.0189  0.0485
28431W        W71484  25.667  29.141   7.980 -0.1920  0.3973  0.0201
28432W        W71485  34.088  22.916  19.030 -0.0374  0.1071 -0.0432
28433W        W71486  33.492  33.978  26.579 -0.0887 -0.0484  0.1081
28434W        W71487  16.169  20.665  22.570 -0.1757 -0.2994  0.2446
28435W        W71488  10.533  20.181  16.400  0.2755 -0.0619  0.1063
28436W        W71489  31.405  10.370  26.304  0.1909  0.2468  0.1162
28437W        W71490  25.459  26.507  20.162  0.1140  0.1903 -0.0952
28438W        W71491  11.773  27.845  22.070 -0.1001 -0.1490 -0.0004
28439W        W71492  32.431  26.977  17.346 -0.1106  0.1183  0.1268
28440W        W71493  32.672  31.201  29.159  0.0767 -0.0386 -0.1735
28441W        W71494   9.116  22.865   5.206 -0.0106 -0.0720  0.1577
28442W        W71495  30.010  25.181  16.386 -0.0676 -0.2360  0.1329
28443W        W71496  23.733  21.538  20.285  0.0072  0.0557 -0.6207
28444W        W71497  25.726  30.849   1.344 -0.0079  0.4215  0.0455
28445W        W71498  27.946   1.804   9.863 -0.0417  0.0430  0.3531
28446W        W71499  12.542   4.922   2.548  0.0491  0.2404  0.0523
28447W        W71500  34.535  33.780   1.758  0.4694 -0.3674  0.0659
28448W        W71501   7.851   0.185   4.462  0.0647 -0.3296 -0.0297
28449W        W71502  23.737  27.586  15.952  0.2188  0.0540  0.2253
28450W        W71503   1.630   6.605  16.562  0.2562 -0.0850 -0.4027
28451W        W71504   9.784   1.633   2.917  0.1596 -0.0684  0.1888
28452W        W71505  33.375  22.111  13.924  0.0815 -0.1930 -0.0809
28453W        W71506  23.130  25.389   3.152 -0.2393  0.4246 -0.1451
28454W        W71507  25.646   1.389   1.536  0.0440 -0.0531  0.0828
28455W        W71508  19.993  24.070  20.484  0.0405  0.3340  0.2299
28456W        W71509  20.054  25.904  22.777  0.5487 -0.1816  0.1620
28457W        W71510  14.880   5.023  27.553  0.1902  0.0562 -0.5547
28458W        W71511   4.824  28.203   5.288  0.1151 -0.1805 -0.1714
28459W        W71512  19.123  10.430  28.111  0.1142  0.2329  0.2403
28460W        W71513  26.276  29.437   9.624  0.2038  0.1909  0.0827
28461W        W71514   6.060  27.845  13.931 -0.1806 -0.2510  0.0275
28462W        W71515   3.328  22.981  20.822 -0.2789 -0.0012  0.0495
28463W        W71516   4.894  13.165  22.263 -0.0248 -0.1289  0.4592
28464W        W71517  27.128   1.621  19.943  0.1433 -0.4159 -0.1826
28465W        W71518  29.021   1.988  19.569 -0.0957 -0.0527  0.1795
28466W        W71519  16.531  31.938   1.829 -0.1689  0.1700 -0.3027
28467W        W71520  33.041  15.300  16.945 -0.0018 -0.0540 -0.0274
28468W        W71521  28.432  27.219  20.408 -0.1856 -0.1629  0.1522
28469W        W71522  27.919   2.566   5.044  0.0899 -0.0508 -0.0716
28470W        W71523  33.066   1.566  18.691 -0.0842  0.0839  0.2116
28471W        W71524  30.576  34.073  15.192 -0.3059  0.1093  0.1489
28472W        W71525  20.072  17.482  13.341  0.0634  0.0167 -0.1275
28473W        W71526  31.032  34.051  25.240  0.2208 -0.2222 -0.0963
28474W        W71527  30.627  11.714   6.345 -0.0249  0.1355 -0.3292
28475W        W71528  24.993  32.399  25.396  0.3180 -0.2447 -0.0392
28476W        W71529  28.337   6.443  26.362  0.2907 -0.2272 -0.3238
28477W        W71530  30.390  31.247  24.671 -0.1560  0.0898 -0.0785
28478W        W71531  24.532  20.859  15.563  0.0496  0.1284  0.1239
28479W        W71532   3.564  30.971   7.494  0.2290  0.0365  0.1122
28480W        W71533   9.249  31.298  14.620 -0.2277  0.2218  0.2519
28481W        W71534   0.120   7.933  16.001  0.2146 -0.3328 -0.0263
28482W        W71535  27.731  30.637  27.803 -0.2865 -0.0179  0.3006
28483W        W71536  18.987   2.493   9.563 -0.0761 -0.0419  0.1102
28484W        W71537  31.323   1.625  20.781  0.0756 -0.0208  0.2320
28485W        W71538  34.252   0.838  17.707  0.0891 -0.2468 -0.1270
28486W        W71539   5.441  24.409  15.532 -0.1949  0.0932  0.1096
28487W        W71540  31.831  24.739  22.862 -0.3923 -0.0280 -0.0404
28488W        W71541   7.332  16.082  18.739  0.0011  0.0851 -0.2086
28489W        W71542  31.358  32.388  23.323  0.0315  0.0169 -0.0344
28490W        W71543  29.302  12.228  17.565  0.1397 -0.1266  0.7157
28491W        W71544  32.200  34.043   8.768  0.0645  0.0999 -0.4142
28492W        W71545  20.442   3.960  19.251 -0.1821  0.0375  0.1717
28493W        W71546   4.524  33.198  24.086 -0.1234 -0.1015 -0.0198
28494W        W71547  23.903  27.060  19.017  0.1841 -0.0109  0.1686
28495W        W71548  16.331   1.486  27.156 -0.2315 -0.2124 -0.1893
28496W        W71549  33.713   0.005  15.710  0.0852  0.1883  0.1892
28497W        W71550   2.179   2.404  16.916 -0.1272 -0.3364 -0.1831
28498W        W71551  24.562   5.534   8.510  0.2572  0.0948 -0.4314
28499W        W71552  17.040  31.841   5.519 -0.0010 -0.1975  0.0802
28500W        W71553  30.880  30.886  24.757  0.1273  0.2687  0.0752
28501W        W71554  33.594  33.027  21.068  0.1113 -0.3049  0.0333
28502W        W71555  22.940  15.322  17.950 -0.1838 -0.1388  0.0409
28503W        W71556  18.783  21.947  18.598  0.2110  0.0310  0.1752
28504W        W71557  32.895  33.714   7.643 -0.1102 -0.3882 -0.1846
28505W        W71558  18.221   2.786  26.664  0.1619  0.0017  0.0997
28506W        W71559  28.558  18.444  18.336 -0.0343 -0.1722 -0.1440
28507W        W71560  16.458   5.695  27.417  0.0848  0.1148 -0.1909
28508W        W71561  26.692  12.313   0.337 -0.1124  0.0046 -0.1565
28509W        W71562  26.434  32.758  23.342  0.1881  0.0574  0.0114
28510W        W71563  20.128  30.375  15.502  0.0551 -0.0206  0.1356
28511W        W71564  23.875  23.136  15.677  0.2458 -0.0902 -0.1640
28512W        W71565  27.852  10.812  22.089  0.2151 -0.1219 -0.1244
28513W        W71566  20.300  20.831  18.437  0.3254  0.0844 -0.0726
28514W        W71567  18.521  33.119  22.515 -0.2823  0.0498  0.2204
28515W        W71568   9.072  11.578   5.489 -0.0489  0.2295 -0.1606
28516W        W71569  25.494  26.133  21.642 -0.0526 -0.0722 -0.0237
28517W        W71570  25.610  10.595   6.991  0.1487 -0.2577 -0.1614
28518W        W71571   2.851   0.713  15.061 -0.0972  0.1766  0.1788
28519W        W71572   1.538  10.454   9.605  0.1308  0.1327  0.0980
28520W        W71573  20.846  10.894   0.797 -0.1708 -0.0106  0.0296
28521W        W71574  32.906   8.829  16.206  0.2906  0.0785 -0.1479
28522W        W71575  11.533  29.486   1.645  0.1989  0.0643 -0.1440
28523W        W71576  26.978  25.909  24.813 -0.0887  0.1968 -0.2694
28524W        W71577  31.287  19.860  27.309 -0.2998 -0.1936  0.1472
28525W        W71578   1.547  30.268   0.103  0.0947 -0.1119  0.3130
28526W        W71579  22.297  22.866  16.994 -0.1933 -0.2290  0.1289
28527W        W71580  21.721  29.334  26.560 -0.1905 -0.2676  0.2493
28528W        W71581  18.957  23.028   6.075  0.2032 -0.0799 -0.0999
28529W        W71582  34.369   7.528  20.526 -0.3294  0.1364 -0.2112
28530W        W71583  16.506   3.774  19.036  0.2137 -0.2271  0.0688
28531W        W71584  19.050  20.525  21.765  0.3518  0.0109  0.1794
28532W        W71585   1.380   7.371   5.978 -0.2740 -0.0279 -0.1461
28533W        W71586   9.520  23.952  17.042 -0.1293 -0.4663 -0.0266
28534W        W71587  26.169  18.615   2.684 -0.2660  0.0037  0.0599
28535W        W71588   3.464   7.035  27.053  0.0401  0.0428  0.5402
28536W        W71589  26.042  23.595  16.589 -0.2593  0.1058  0.0059
28537W        W71590  26.280  23.883  19.145  0.0324 -0.0709 -0.1571
28538W        W71591  29.713  34.401   6.013  0.0437  0.0795 -0.0082
28539W        W71592  19.572  22.221  18.420 -0.3818  0.0257 -0.1821
28540W        W71593  27.176  30.295   9.375  0.0561 -0.1101  0.1733
28541W        W71594  28.926   4.114  26.897 -0.1011 -0.1828 -0.0033
28542W        W71595  18.037  20.886   5.770 -0.2873  0.3628  0.3358
28543W        W71596  28.534  25.233  27.707 -0.0055  0.0027  0.0521
28544W        W71597   2.422   4.296   0.854  0.2818  0.2301  0.0548
28545W        W71598   0.614  32.267  21.629  0.0722  0.1721 -0.0629
28546W        W71599  30.280  18.816   5.173  0.0845  0.4520 -0.1466
28547W        W71600   6.218  28.871   0.621  0.0826  0.0907 -0.0802
28548W        W71601  28.048  24.267  14.102  0.1166  0.2110 -0.1606
28549W        W71602   6.625   8.242  25.463  0.1261  0.0493 -0.0197
28550W        W71603  13.590  12.964  17.113 -0.0498  0.4438 -0.1500
28551W        W71604   7.784  28.118  16.659 -0.1273 -0.3133  0.2042
28552W        W71605  10.172  26.533  26.694 -0.0938  0.0357 -0.0314
28553W        W71606  15.977  10.610  14.552 -0.1032 -0.1308  0.0543
28554W        W71607   4.657  31.022  27.254 -0.1190  0.0830  0.2027
28555W        W71608  21.551  26.077   1.996  0.0737 -0.0206 -0.0940
28556W        W71609  13.061   3.481  15.198 -0.0493  0.0737  0.1477
28557W        W71610  14.723   0.677  28.996  0.0848 -0.1625 -0.3182
28558W        W71611  16.225  27.906   8.579  0.1447  0.0913  0.1643
28559W        W71612  26.966  27.021  20.585  0.1841 -0.0788  0.0526
28560W        W71613  18.568   3.231  16.162 -0.0703 -0.4329  0.0544
28561W        W71614  29.285  25.012   4.757 -0.0819 -0.1886 -0.2137
28562W        W71615  30.371  24.967  19.372  0.0407 -0.2479 -0.0294
28563W        W71616  26.328   4.969  27.687 -0.0154 -0.0255 -0.2810
28564W        W71617  11.508  25.054  25.674  0.3119  0.0333 -0.0476
28565W        W71618  26.660  26.209  29.002 -0.0602  0.1081  0.0192
28566W        W71619  29.491  14.377  27.003  0.1037  0.1837  0.3337
28567W        W71620  21.876   7.981  15.519 -0.3153 -0.0077 -0.0530
28568W        W71621  28.273   4.857  21.053 -0.0747  0.1726 -0.0371
28569W        W71622  26.716  27.201   7.749 -0.0173 -0.1567 -0.3387
28570W        W71623   3.808   4.648  28.752 -0.3122  0.1180  0.2387
28571W        W71624  24.026  32.182  26.420 -0.0029  0.2764 -0.4762
28572W        W71625  30.702  30.012  23.665  0.0744  0.1669 -0.0304
28573W        W71626  34.431  21.140   6.360 -0.1144  0.0697 -0.2059
28574W        W71627  19.437   5.833  15.676  0.0136 -0.1789 -0.0355
28575W        W71628  26.442  28.585  20.622  0.1658  0.3626 -0.1446
28576W        W71629  30.191  31.721  19.010  0.1932 -0.0843 -0.4562
28577W        W71630   1.532   6.932   5.866  0.1752 -0.0763 -0.2010
28578W        W71631  27.125   7.828  23.524 -0.1989 -0.4611  0.1338
28579W        W71632  10.637  18.300   1.485  0.1002 -0.1094  0.0016
28580W        W71633  25.267  30.662  28.566  0.2619  0.0508  0.0313
28581W        W71634  21.261  10.162   2.539 -0.2441  0.1963  0.0470
28582W        W71635   7.125   9.529  25.900 -0.0466  0.0819 -0.3231
28583W        W71636  31.841  22.602  27.170 -0.1616 -0.0408  0.2102
28584W        W71637  24.954  27.974   2.094  0.0503 -0.1536  0.1371
28585W        W71638  12.499  15.538   7.172  0.1499 -0.3527 -0.1654
28586W        W71639  25.905  25.034  20.253  0.1043  0.1331 -0.0013
28587W        W71640  33.019  20.215  26.260 -0.0538 -0.0451 -0.1957
28588W        W71641  30.536   3.506  23.522  0.1460  0.2215 -0.2311
28589W        W71642  14.206  21.701   7.321 -0.0594  0.2019 -0.1623
28590W        W71643  10.688  15.959   2.957 -0.0191  0.0239 -0.0969
28591W        W71644  26.883  31.326   3.413 -0.0594  0.1616 -0.1750
28592W        W71645  18.406  20.841  17.816  0.1043 -0.0781 -0.0982
28593W        W71646   4.875  25.959  16.714  0.2688 -0.1951  0.1560
28594W        W71647  19.412  11.218   3.504  0.2907  0.1459 -0.0587
28595W        W71648   0.377  32.860   5.254 -0.1959 -0.0665 -0.2552
28596W        W71649  11.636   0.782  18.403  0.0461  0.2135 -0.0017
28597W        W71650   8.641  30.828  22.436  0.1017  0.0441  0.0288
28598W        W71651  17.847  10.059   2.851  0.0736  0.1630  0.0885
28599W        W71652  32.900  32.747  15.139 -0.0423  0.0261 -0.1004
28600W        W71653  23.721  29.284  16.925 -0.4319  0.0286 -0.0024
28601W        W71654  23.811  29.654   0.594 -0.1148  0.2658 -0.0109
28602W        W71655   3.682   0.951  18.339 -0.1995 -0.1377  0.1631
28603W        W71656  21.137  21.730  20.334  0.2024 -0.1970  0.2963
28604W        W71657   9.389   9.913   6.276 -0.3164 -0.0649 -0.2561
28605W        W71658  14.306  15.150  22.223 -0.1436  0.0768  0.1189
28606W        W71659  21.172  18.870   2.073 -0.1161 -0.3560  0.0920
28607W        W71660  27.814  30.486  16.852  0.1751 -0.2306  0.1608
28608W        W71661  31.205  31.266  18.623 -0.2315 -0.3488 -0.1546
28609W        W71662   4.876  28.382   1.820  0.0345  0.3475  0.0089
28610W        W71663  11.342  14.111   3.946  0.0345 -0.0557  0.3325
28611W        W71664  29.819   2.103  15.613  0.0651 -0.2122 -0.0227
28612W        W71665  31.184  31.715  24.647 -0.3974 -0.0986 -0.0369
28613W        W71666  22.739  30.129  18.260 -0.1425 -0.0095 -0.1455
28614W        W71667  29.436  28.932  25.229 -0.0420  0.0577 -0.1063
28615W        W71668  18.893   0.998  16.307 -0.1645 -0.2792 -0.0110
28616W        W71669  21.035   9.356  22.948 -0.2952  0.0327 -0.1612
28617W        W71670  14.415  22.212   5.593  0.2974  0.0361 -0.2586
28618W        W71671  33.138   5.472  14.765  0.0818 -0.0424  0.4120
28619W        W71672  17.244  34.295  21.195 -0.1581  0.0725  0.0632
28620W        W71673  16.964  33.356  16.117  0.0728  0.1371 -0.3583
28621W        W71674  20.698   5.004  13.477 -0.1191  0.0736  0.0185
28622W        W71675  28.642  28.399  18.766  0.0438 -0.0647  0.0138
28623W        W71676  32.423  26.825   3.544 -0.2424 -0.2325  0.0132
28624W        W71677  13.895  29.368   3.398  0.1981 -0.0415 -0.3700
28625W        W71678  29.323  31.270   4.065 -0.0487  0.0876 -0.0277
28626W        W71679  10.659  33.938   8.627  0.1133  0.0746 -0.0006
28627W        W71680  34.383  27.771  15.380 -0.2975  0.1682  0.0577
28628W        W71681  26.877  33.038   7.483  0.1438 -0.1055 -0.3975
28629W        W71682  23.656   7.888  16.099 -0.4651 -0.1858 -0.0675
28630W        W71683   0.792  11.370   6.370  0.2490 -0.0083 -0.0697
28631W        W71684  23.931   7.877  16.953  0.0980  0.2016  0.0122
28632W        W71685  21.970   8.357  16.781  0.0929  0.1880 -0.1407
28633W        W71686  16.739   2.645   7.109 -0.0260  0.0430  0.1675
28634W        W71687  17.394   1.763   6.434 -0.1689  0.0864 -0.1413
28635W        W71688  25.085  33.144  23.089 -0.3232  0.0710 -0.0099
28636W        W71689  24.990  21.094  24.121  0.2547 -0.0702 -0.1302
28637W        W71690  23.927  29.889  20.203 -0.1319 -0.1230 -0.2046
28638W        W71691  32.757  34.283   6.814 -0.0227  0.1983 -0.2064
28639W        W71692   3.276  24.568  29.017 -0.0883 -0.0195  0.5069
28640W        W71693  14.155  29.003  23.146  0.0843  0.2334 -0.4022
28641W        W71694  32.126  26.182   0.207  0.4791  0.0979 -0.1598
28642W        W71695  32.119  32.313   1.213 -0.2331  0.1296  0.1851
28643W        W71696  24.204   4.226  26.606  0.1604  0.1873  0.0026
28644W        W71697  20.660  31.005  19.643  0.0606  0.1291 -0.2344
28645W        W71698  13.875  22.952  26.251 -0.1788 -0.2594 -0.2704
28646W        W71699  33.890  34.400  16.489  0.1373 -0.0477 -0.1941
28647W        W71700  10.414   8.230  25.746  0.1179  0.2309  0.2125
28648W        W71701  32.856  29.232   7.589  0.2375  0.1994 -0.2310
28649W        W71702  14.703  30.388  22.993 -0.1373 -0.1694  0.0200
28650W        W71703   7.398  28.991  24.758 -0.1102 -0.1350  0.3201
28651W        W71704   4.352  34.378  16.965 -0.0234  0.1144  0.0611
28652W        W71705  27.476  22.116  15.008 -0.0609  0.2962 -0.1165
28653W        W71706  23.232   1.192  18.081 -0.0322 -0.2140 -0.2135
28654W        W71707  29.169   0.585  15.553 -0.1346 -0.0022 -0.0525
28655W        W71708  16.269  11.906  19.223 -0.3735  0.2399 -0.1007
28656W        W71709   1.391  29.965  16.480 -0.0112  0.2825 -0.0970
28657W        W71710  13.220  22.704  16.122  0.2618 -0.1960 -0.0268
28658W        W71711  25.802  32.650  28.751 -0.0488 -0.0274 -0.3103
28659W        W71712   2.647  11.620  21.430 -0.0302  0.0365  0.0659
28660W        W71713  20.648  27.030  27.667 -0.1186  0.2241  0.2312
28661W        W71714   0.762   4.129  16.092 -0.1162  0.1239  0.5062
28662W        W71715  13.602  34.348  18.242  0.0646 -0.0344 -0.0518
28663W        W71716  34.544   1.031  23.458 -0.2316  0.2310  0.0397
28664W        W71717  23.801  33.353   2.800  0.0776  0.3127 -0.0696
28665W        W71718  29.863   8.776  19.435  0.1599  0.1353 -0.4431
28666W        W71719  21.910   0.819  14.970  0.0463 -0.0742 -0.0200
28667W        W71720  10.405  27.080   0.496  0.0013 -0.4673  0.0278
28668W        W71721  13.525  10.888  18.506  0.1655  0.3132 -0.1018
28669W        W71722  22.540  31.224  15.345  0.0288  0.1599 -0.0881
28670W        W71723  23.333  12.298  26.562  0.2563 -0.4185 -0.0711
28671W        W71724  16.531   8.635  26.941 -0.0092  0.2651 -0.1403
28672W        W71725   5.734   2.064  15.677 -0.0564  0.0195  0.2299
28673W        W71726  18.842  21.320   3.444 -0.1740  0.1168  0.4466
28674W        W71727   0.339   2.246  28.814 -0.1523 -0.2145 -0.1217
28675W        W71728  22.858  12.536  23.363  0.0449  0.3340 -0.0119
28676W        W71729   1.404   3.137  18.497  0.0677  0.4327  0.3385
28677W        W71730  23.504  12.500   5.851  0.0502  0.0140  0.1627
28678W        W71731  17.699   6.177   0.508 -0.1016 -0.1481  0.0388
28679W        W71732  24.361  15.369   3.506  0.0659 -0.1649 -0.4530
28680W        W71733  11.467  28.144  17.901  0.0304 -0.2650 -0.0921
28681W        W71734  21.805  26.565   4.553  0.0396  0.1541 -0.0139
28682W        W71735  22.218  21.847  14.824 -0.0223  0.1174 -0.0482
28683W        W71736  29.742   6.815  24.685  0.2675  0.0403  0.3199
28684W        W71737   0.556  27.495  22.453 -0.2559 -0.2961  0.1750
28685W        W71738  24.914   4.626  18.998 -0.0750 -0.1514  0.2622
28686W        W71739  20.818  24.303  10.482  0.1560 -0.1406  0.1230
28687W        W71740  25.545  11.149   2.320  0.1151 -0.0267 -0.1921
28688W        W71741  29.532  15.619  20.733 -0.3070  0.3786  0.2337
28689W        W71742  32.283   9.851   0.437 -0.1203  0.2140  0.1681
28690W        W71743   7.396  25.855  29.056  0.1495  0.3317  0.0745
28691W        W71744  21.265  26.504  14.944  0.1147 -0.0219 -0.1946
28692W        W71745   3.365   7.583  16.638  0.0356 -0.1130 -0.0750
28693W        W71746  34.393  30.952  19.443  0.0816  0.1656 -0.1784
28694W        W71747   8.244  25.974  22.253  0.3670 -0.1709 -0.3045
28695W        W71748  18.527   1.249   3.976  0.0900 -0.1571 -0.1388
28696W        W71749  28.642  34.493  26.228 -0.3073  0.1077 -0.2212
28697W        W71750  34.649  13.173  21.529  0.1942 -0.0213  0.1257
28698W        W71751  20.561  26.990   7.871 -0.0481  0.2251 -0.0811
28699W        W71752   0.512  27.269  13.826 -0.2473 -0.0711  0.1098
28700W        W71753  28.060  27.568  24.938  0.1699 -0.0555  0.2671
28701W        W71754   9.623  32.553  26.139  0.2383  0.0562 -0.0662
28702W        W71755  30.517   0.536  15.591  0.4494  0.3074 -0.2988
28703W        W71756  23.887  28.841  16.733 -0.4695 -0.0558  0.1125
28704W        W71757  23.009  26.450  27.245 -0.0165  0.1982 -0.0037
28705W        W71758  31.329  33.759  18.969  0.1979  0.2100 -0.1476
28706W        W71759   0.845   4.554  21.640  0.2911 -0.0415 -0.2506
28707W        W71760  10.976   5.310  17.257 -0.1218  0.1090  0.2534
28708W        W71761  30.786  15.807  26.106  0.2191  0.0916 -0.1025
28709W        W71762  16.702  26.222  17.365 -0.0109 -0.1635 -0.0014
28710W        W71763  26.681   2.752  15.183 -0.0272 -0.1325 -0.0605
28711W        W71764   0.842  30.211  20.926 -0.0525  0.5981  0.0784
28712W        W71765   2.464  29.328  14.717 -0.1069 -0.4672 -0.4950
28713W        W71766  11.156   0.735  22.630  0.1000  0.0513  0.1384
28714W        W71767  26.998  33.051  21.146 -0.2050 -0.2771 -0.0575
28715W        W71768  33.470  31.266  20.657 -0.1528  0.2767 -0.2573
28716W        W71769  34.091   0.624  26.164  0.1763  0.0580 -0.0885
28717W        W71770   2.203  18.868  14.518 -0.4640  0.2077  0.1327
28718W        W71771  25.795  20.519  14.523 -0.1424 -0.1495  0.2965
28719W        W71772  25.819  14.356  14.313  0.0061  0.0339 -0.0607
28720W        W71773  29.148   8.598  20.005 -0.1404  0.0990  0.0641
28721W        W71774  22.259   0.934   4.131 -0.0600  0.1155  0.1702
28722W        W71775   7.124  27.746  20.299  0.0680  0.0318 -0.1807
28723W        W71776  10.496  23.857  19.015 -0.1032 -0.0385  0.0208
28724W        W71777  30.781   1.393  18.336 -0.0555  0.1027  0.1614
28725W        W71778   9.708  22.755   1.200 -0.0610 -0.0625 -0.1094
28726W        W71779  16.113  30.079   6.322  0.0626 -0.0152 -0.1705
28727W        W71780  19.265  30.326  22.766  0.2791 -0.0404 -0.2009
28728W        W71781   6.448  25.520  18.162 -0.2570  0.1266  0.1908
28729W        W71782  27.260  28.922  20.523 -0.0573  0.1362 -0.0907
28730W        W71783  25.068   7.983   6.386 -0.1837  0.0494  0.1204
28731W        W71784  32.388   5.793  26.390  0.0662 -0.0913 -0.2864
28732W        W71785  27.849  33.606   9.068  0.1224  0.3866 -0.3104
28733W        W71786  31.599  33.529  21.531 -0.2467  0.3448  0.0629
28734W        W71787  22.052  24.824  22.042 -0.1538 -0.1481 -0.0268
28735W        W71788  32.875  24.759  17.898  0.0436 -0.0459 -0.0417
28736W        W71789  18.323  24.802  25.519  0.0149  0.3003  0.1726
28737W        W71790  30.360  30.879  14.187 -0.1479  0.1483 -0.1766
28738W        W71791  25.017  33.275  28.372 -0.2846 -0.2054 -0.2008
28739W        W71792  28.482   7.620  24.233 -0.1178 -0.2094  0.0684
28740W        W71793   2.864  28.185  21.575 -0.3910 -0.1270 -0.2755
28741W        W71794   5.480   5.155  25.328 -0.1115 -0.2502 -0.2883
28742W        W71795  17.100  16.899  24.951 -0.2830  0.0184  0.1096
28743W        W71796  26.568   4.048  25.914 -0.0264  0.0839 -0.0730
28744W        W71797   5.158   3.024   5.176  0.2218  0.2892 -0.0510
28745W        W71798  20.281   3.049  25.059  0.0936 -0.2813 -0.0879
28746W        W71799  29.068   1.363  23.221 -0.1817  0.0991  0.2125
28747W        W71800   4.998  25.254  25.597  0.1741  0.1942 -0.0088
28748W        W71801  11.653  13.348  19.488 -0.0693  0.2058 -0.1040
28749W        W71802   7.398  33.289  25.958 -0.2029  0.0006 -0.0397
28750W        W71803  30.568  22.046  25.921  0.1395  0.0662  0.0962
28751W        W71804  27.654  13.350   0.572 -0.1114  0.2992  0.2750
28752W        W71805  33.268  29.902  15.385  0.0445 -0.1841 -0.0798
28753W        W71806  18.047  30.241  26.330  0.0429  0.1532 -0.0427
28754W        W71807  18.842  26.351  21.222  0.3435 -0.0041 -0.0009
28755W        W71808  27.408   0.413  20.487 -0.0189 -0.2319  0.1107
28756W        W71809  29.328   5.182  25.649 -0.0587  0.2427  0.3416
28757W        W71810  24.756  13.150  17.615  0.2321  0.2208  0.1300
28758W        W71811  34.478   2.861  28.662 -0.0044  0.4527  0.0543
28759W        W71812   3.758   3.720  27.060  0.2549  0.2837  0.2621
28760W        W71813   4.948  32.490  27.391  0.1209 -0.2839 -0.0619
28761W        W71814  20.388  27.275  17.679  0.0477  0.1863  0.1596
28762W        W71815  27.148  13.259  16.696  0.2219 -0.0884  0.3764
28763W        W71816  23.239  28.678  14.953 -0.0882 -0.1302  0.2997
28764W        W71817   9.308  25.945  14.507 -0.1878  0.3500  0.0475
28765W        W71818  30.744   5.045  26.507  0.3572  0.0820 -0.0045
28766W        W71819  27.792  19.142  18.622  0.0094 -0.2293 -0.0914
28767W        W71820  15.978  28.467  15.691 -0.0607  0.1137 -0.1006
28768W        W71821  15.012   2.423  26.132  0.1230  0.3317  0.1260
28769W        W71822  24.404  14.901  16.354 -0.0434 -0.0363  0.2843
28770W        W71823  25.539  31.512  18.065  0.2852  0.0354 -0.3364
28771W        W71824  12.379   3.389   6.760  0.2271 -0.2243 -0.1664
28772W        W71825   9.219   0.860  25.813  0.1198 -0.0198 -0.2189
28773W        W71826  27.542   3.321   3.921  0.0453  0.1335  0.0198
28774W        W71827  10.346  27.768   0.750  0.1769 -0.0306 -0.1011
28775W        W71828  20.667  33.431  25.230 -0.0574 -0.1332  0.0764
28776W        W71829   7.967  27.302  15.678  0.0524  0.1000  0.0591
28777W        W71830  12.530  26.221  24.368 -0.2449  0.1392  0.0348
28778W        W71831   2.087  33.852  16.816  0.0327 -0.0151  0.1018
28779W        W71832  29.553   5.209  23.581  0.0614 -0.0938  0.1823
28780W        W71833  18.511  27.062  20.002  0.0592  0.2461 -0.2955
28781W        W71834  23.819  27.598  22.030 -0.2860  0.1359  0.1127
28782W        W71835  22.078  23.964  20.176 -0.2659  0.0908 -0.0420
28783W        W71836   3.370  23.405   4.947 -0.1204 -0.2029  0.0578
28784W        W71837  34.570  10.729  17.876 -0.1478  0.0313 -0.1650
28785W        W71838  15.611  31.800  25.460  0.0892 -0.0372  0.1160
28786W        W71839  33.379  31.396  22.630  0.0834 -0.1290  0.0267
28787W        W71840   3.481  31.518  19.031  0.3119 -0.0519 -0.0421
28788W        W71841  30.493  13.312  21.042  0.0083 -0.0995 -0.1416
28789W        W71842  12.312  30.345   8.645 -0.0744  0.0884 -0.0249
28790W        W71843  29.466   1.322  21.344  0.1885 -0.0414  0.4490
28791W        W71844  28.675  29.538  23.630 -0.3574  0.0531 -0.1454
28792W        W71845  23.183  26.973   4.208 -0.1221 -0.1584  0.0308
28793W        W71846  28.256   1.741   3.571  0.1771  0.0093 -0.3249
28794W        W71847  33.760   1.037  18.909  0.2452  0.1451 -0.2144
28795W        W71848  26.576  23.792  15.331 -0.1080  0.2057 -0.3432
28796W        W71849   4.255   4.277  14.835  0.0368 -0.1256 -0.3331
28797W        W71850  34.370  26.785  23.380  0.0761 -0.4551  0.0057
28798W        W71851  17.540  10.269  19.396 -0.1860 -0.0390 -0.0696
28799W        W71852  28.523  26.208  17.519  0.2542 -0.1058 -0.1729
28800W        W71853  29.310  29.908  14.152  0.1048  0.0678 -0.0697
28801W        W71854  34.205  20.762  21.630  0.0336 -0.2544 -0.1030
28802W        W71855  27.439  32.609  23.403 -0.2867 -0.0602 -0.1021
28803W        W71856  14.685  21.491  25.141  0.2923 -0.0068 -0.0121
28804W        W71857  19.080   0.828  22.142 -0.1415  0.0588  0.0605
28805W        W71858  12.853   8.739  18.248  0.0197  0.2103 -0.0910
28806W        W71859  21.330   0.419  23.534  0.1305 -0.3606 -0.3594
28807W        W71860  29.986  30.221  22.603 -0.0918  0.0986  0.1125
28808W        W71861  10.788  27.233  20.750  0.1643  0.1678  0.0672
28809W        W71862   0.429   3.244  14.115  0.0570  0.0900 -0.1908
28810W        W71863  29.321  27.611  14.407  0.0615  0.0949  0.0756
28811W        W71864  15.098  30.225  28.187 -0.1900 -0.0257  0.2301
28812W        W71865  34.026  27.766  18.252 -0.3237 -0.0662 -0.1663
28813W        W71866  29.481  23.156  20.397 -0.1246 -0.3032  0.0983
28814W        W71867  18.887   3.696   0.523  0.0834 -0.2786 -0.1916
28815W        W71868   2.402  33.514  17.760  0.1026  0.0089 -0.3394
28816W        W71869  18.308  17.825  24.792 -0.0375 -0.2407 -0.2737
28817W        W71870  28.145  27.144  16.968  0.1904  0.0450  0.0665
28818W        W71871  20.969  11.776  27.515 -0.2001 -0.2332 -0.0092
28819W        W71872  12.651  29.085   2.729  0.0866 -0.0471 -0.1534
28820W        W71873  28.218  31.131  25.190  0.2124  0.1490  0.0099
28821W        W71874  17.704  31.478   4.646 -0.0630 -0.2157  0.0125
28822W        W71875  32.598  16.414  20.169 -0.2668 -0.0058  0.0539
28823W        W71876   3.735  24.796  17.171 -0.1212  0.4391 -0.0086
28824W        W71877  27.647   9.418  14.539  0.0073  0.2100 -0.1255
28825W        W71878   1.670  19.658   8.540 -0.1888 -0.4061 -0.0864
28826W        W71879  14.751  28.853  25.231 -0.3195 -0.2287  0.2612
28827W        W71880  15.695  28.814   3.576  0.2827 -0.1423  0.2033
28828W        W71881   2.800  31.030   0.188 -0.0234 -0.2598 -0.1615
28829W        W71882   9.855  32.585   5.141  0.3028  0.1879 -0.2175
28830W        W71883  27.471  15.091   9.164  0.0352 -0.1756  0.2729
28831W        W71884  25.041   0.479  13.904 -0.1138 -0.1655 -0.2203
28832W        W71885  29.356  29.828  16.660 -0.0402  0.1945 -0.2365
28833W        W71886   3.127  27.791   1.394  0.0235  0.0731 -0.2607
28834W        W71887   7.833  30.749   6.583  0.2855 -0.1402  0.3311
28835W        W71888  14.478  13.072  29.125 -0.0051  0.3035  0.2653
28836W        W71889  15.538  34.308  18.857  0.0545  0.0144 -0.1925
28837W        W71890  31.358   2.084   3.402  0.0660 -0.1142  0.1707
28838W        W71891  14.462  32.456  20.899  0.2055 -0.0683  0.3499
28839W        W71892  16.064  16.655  24.832 -0.1363 -0.0431 -0.1431
28840W        W71893  23.639  24.090  17.034  0.0703 -0.1065  0.0046
28841W        W71894  21.764  25.565  22.553  0.0282 -0.1568 -0.2623
28842W        W71895  30.925   8.134   7.031 -0.0582 -0.0758  0.0179
28843W        W71896  22.040   3.501   6.723 -0.2040  0.2581  0.0267
28844W        W71897  24.666  34.230   2.445 -0.0146 -0.0867 -0.2214
28845W        W71898  31.833  34.228  13.876  0.0335 -0.1815  0.1846
28846W        W71899  32.303   1.200   1.793  0.2261 -0.0138 -0.0019
28847W        W71900  23.509   3.025  25.521  0.3320 -0.1597  0.2287
28848W        W71901  19.175   2.797  28.557 -0.1035 -0.2101  0.0973
28849W        W71902  26.907   3.919   1.827 -0.0301 -0.1845 -0.1238
28850W        W71903  29.630   3.927  20.659  0.1185 -0.1585 -0.5043
28851W        W71904  31.901  18.565  15.590 -0.0705  0.1597 -0.1536
28852W        W71905   2.250   6.992  23.431  0.2214  0.3867  0.0505
28853W        W71906  28.679  23.690   8.136  0.2461 -0.0956  0.2637
28854W        W71907  18.607  12.682   0.906 -0.0565  0.1038 -0.1194
28855W        W71908  26.256   3.467  14.981  0.0209 -0.1222 -0.3387
28856W        W71909  21.781   2.526  22.202  0.0041  0.2274  0.0016
28857W        W71910  19.738  16.818  23.099 -0.3002  0.0008  0.2207
28858W        W71911  34.115  31.752   7.247  0.0022  0.0706  0.0006
28859W        W71912  21.163   5.659   0.070 -0.2432 -0.0852  0.2634
28860W        W71913  19.691   1.120  16.000  0.0426  0.3367 -0.0868
28861W        W71914  30.073   5.429  15.202  0.1596 -0.0364 -0.0160
28862W        W71915  28.906  13.771  17.545  0.2060  0.2341  0.1927
28863W        W71916  21.011  32.964   2.953  0.1797 -0.5038  0.0035
28864W        W71917  16.286  30.045  18.403  0.1675  0.2684  0.1510
28865W        W71918  32.038  30.329  17.838 -0.3266 -0.2723  0.1719
28866W        W71919  26.264  20.802   3.081  0.1541 -0.3119  0.0332
28867W        W71920  19.439   7.092  14.715 -0.0352  0.2228 -0.1482
28868W        W71921  30.631  16.264  22.527 -0.0774 -0.0797 -0.3180
28869W        W71922  30.356  20.865  17.483  0.1709 -0.3276 -0.0122
28870W        W71923  17.657   1.826  17.977 -0.0280  0.2503  0.0061
28871W        W71924   6.454  27.276  19.153 -0.1588  0.1187 -0.1421
28872W        W71925  21.377  22.765  21.312 -0.3222 -0.2154 -0.1659
28873W        W71926  24.620  21.423  26.912 -0.0334 -0.1951  0.1804
28874W        W71927  34.110  30.204  22.083 -0.2010 -0.0969  0.0110
28875W        W71928  31.513  28.752   1.547  0.2895 -0.0820 -0.2570
28876W        W71929   1.951  21.316  18.936  0.0480 -0.0431  0.0932
28877W        W71930  33.995  33.922   3.163 -0.0743  0.0170  0.0031
28878W        W71931  19.512  34.425   5.692 -0.0165  0.0683  0.3381
28879W        W71932  25.613   0.237   3.205  0.0881  0.1212  0.0054
28880W        W71933  25.046   2.110   6.762  0.2218 -0.2424 -0.1025
28881W        W71934  11.512   8.765   1.387  0.1736 -0.3168  0.2752
28882W        W71935  22.554  27.066  19.237  0.0805  0.0225 -0.2029
28883W        W71936  22.588  13.465   2.120  0.1297 -0.0289  0.0791
28884W        W71937  25.619  15.090  17.856  0.2115  0.6831  0.2603
28885W        W71938  34.074  24.000   9.048 -0.0514 -0.0882 -0.2541
28886W        W71939   4.181   2.379   6.092  0.3587 -0.3614  0.3923
28887W        W71940  24.145   2.050  18.778 -0.1135  0.1826 -0.2711
28888W        W71941  17.540  20.715   5.473 -0.1797 -0.0470  0.0853
28889W        W71942  31.193   2.069   6.603 -0.0452  0.2853  0.0677
28890W        W71943   4.083   3.751  18.828  0.0952 -0.1214  0.0366
28891W        W71944  27.535   2.965  16.544  0.1557 -0.0946  0.0494
28892W        W71945  31.840   5.446   0.705  0.2209  0.0929 -0.1292
28893W        W71946  21.575  30.909   2.597 -0.3461 -0.1979  0.4243
28894W        W71947  26.321   5.840   7.495 -0.2457 -0.1252  0.0236
28895W        W71948  25.275   9.609   3.286  0.0760 -0.2558 -0.0550
28896W        W71949  19.996  30.093   7.556  0.0630 -0.0849  0.0812
28897W        W71950   2.548   8.568  19.808  0.3594 -0.1801  0.0473
28898W        W71951   9.834  27.041   1.698  0.3931  0.0295  0.1328
28899W        W71952  28.152  25.575  27.053 -0.1469 -0.0349  0.1488
28900W        W71953   5.601  26.757   4.836 -0.2236  0.0034  0.1659
28901W        W71954   8.727   5.675   0.388  0.1862  0.0963  0.0801
28902W        W71955  32.421  30.236  21.570 -0.0709  0.2371  0.0514
28903W        W71956  22.472  30.690  16.040  0.1120 -0.1788  0.0775
28904W        W71957   3.465  22.719  24.152 -0.3704 -0.2666 -0.0541
28905W        W71958  17.256   3.044   9.221  0.0952 -0.1460 -0.1119
28906W        W71959  12.584  30.241  22.545 -0.2054  0.0228 -0.1579
28907W        W71960  27.368   4.499  18.109  0.1230  0.3374  0.0179
28908W        W71961  20.711  30.039  24.646 -0.1446 -0.0715 -0.1540
28909W        W71962  26.595   5.486  29.054  0.1488  0.1659 -0.0600
28910W        W71963  15.192  26.333  28.550 -0.0322 -0.1407 -0.1274
28911W        W71964   6.646  33.588  27.382 -0.3736 -0.2999 -0.2546
28912W        W71965  19.630  27.808  27.540  0.1421  0.4110 -0.0762
28913W        W71966   3.160  32.372  14.875  0.0515 -0.0852 -0.0728
28914W        W71967  10.881   2.369  21.972 -0.0013 -0.1129  0.1035
28915W        W71968  30.357  26.598   2.391  0.2530 -0.1704  0.2655
28916W        W71969  28.495  32.626   1.181 -0.1704 -0.0351 -0.0566
28917W        W71970   6.256  32.467   2.649 -0.0599  0.0096  0.1862
28918W        W71971   5.540  11.259  21.647  0.0840 -0.1921 -0.2315
28919W        W71972  28.143  19.062  15.206  0.0323 -0.0297 -0.2828
28920W        W71973  27.757  31.492  28.068  0.1448  0.2594 -0.1414
28921W        W71974  29.015  30.270  25.597  0.2073  0.0480  0.1738
28922W        W71975  25.367   0.768   0.839 -0.1140 -0.2049  0.1889
28923W        W71976  13.172   1.093   5.098 -0.2697  0.0210 -0.2691
28924W        W71977  19.892  16.212  28.295  0.2251 -0.2277 -0.0416
28925W        W71978  32.867  13.398  18.926 -0.1584  0.0309  0.2553
28926W        W71979  23.759  33.441  21.357  0.1248 -0.1382  0.1241
28927W        W71980   8.397   3.902   1.037 -0.1646  0.2920 -0.0880
28928W        W71981   8.159  30.358  13.528  0.2367  0.0006 -0.1558
28929W        W71982  22.460  33.766  29.039 -0.2809  0.2189 -0.1366
28930W        W71983  28.207   3.286  21.911  0.0660 -0.0107 -0.0787
28931W        W71984   1.223  30.759   8.565 -0.0423  0.1410 -0.2007
28932W        W71985   5.380   0.999   1.032 -0.0816 -0.2329  0.0191
28933W        W71986   5.150  25.128  17.571 -0.2749 -0.2707 -0.1644
28934W        W71987  29.036  34.365  20.841  0.4583 -0.0316  0.1986
28935W        W71988  20.384  32.863   0.389  0.0764  0.2183  0.0004
28936W        W71989   0.872  31.325  15.617  0.0956 -0.0166 -0.5966
28937W        W71990  10.785  10.654  18.176 -0.0146 -0.0194 -0.3262
28938W        W71991  19.249  29.918  20.756  0.1939  0.2504 -0.3901
28939W        W71992   1.366   0.000   8.052  0.2210  0.2116  0.0192
28940W        W71993  33.059  32.643  27.232  0.0711 -0.0771  0.0039
28941W        W71994  25.706  24.855  28.076 -0.2942 -0.0214  0.0131
28942W        W71995  23.588   5.761   2.356  0.0041 -0.1020 -0.0807
28943W        W71996  26.400   7.404  16.967  0.2176 -0.0666 -0.0942
28944W        W71997  13.067  20.013   4.722  0.0307  0.1238  0.2035
28945W        W71998   8.085  27.925  21.105 -0.1109 -0.0417 -0.4321
28946W        W71999  33.835  17.697  25.697  0.2211  0.2810  0.1248
28947W        W72000  14.574  15.115  25.467  0.0481 -0.1326  0.0790
28948W        W72001  32.182  24.216  27.130  0.2715  0.0693 -0.0381
28949W        W72002  20.929  13.366  24.198 -0.1595 -0.1346  0.5262
28950W        W72003  28.270  30.260  26.070 -0.0025 -0.2492 -0.0638
28951W        W72004  23.557  32.417   1.252 -0.0849 -0.2532 -0.1743
28952W        W72005  24.156  24.995  15.092  0.2186 -0.2017 -0.2049
28953W        W72006   3.920  18.627  24.522 -0.2927 -0.3635  0.3872
28954W        W72007  24.440  31.013   0.586 -0.2064  0.1087 -0.1316
28955W        W72008  17.528   2.645   4.895 -0.1673 -0.1321  0.0841
28956W        W72009  21.631  34.514  27.163 -0.2197 -0.1475  0.2105
28957W        W72010  19.782  23.788   6.468  0.2856  0.1899  0.3188
28958W        W72011  34.067  21.476   4.042 -0.0399  0.2384  0.3578
28959W        W72012   8.929  23.564  28.667  0.2202 -0.1251  0.3328
28960W        W72013  11.987  31.848   3.957  0.0151  0.3348  0.0751
28961W        W72014  24.724  34.322   9.529  0.0904 -0.0648 -0.1660
28962W        W72015  32.918   2.807   4.111 -0.0347  0.2371 -0.0605
28963W        W72016  17.471  31.074  24.365  0.2814 -0.3322  0.0074
28964W        W72017  33.086  19.237  20.880  0.0636 -0.0493  0.0700
28965W        W72018  20.484   0.031   4.429 -0.2488 -0.1832 -0.2454
28966W        W72019  20.293  28.288   5.476  0.1893  0.0748  0.0345
28967W        W72020  25.400  19.344   8.972 -0.1251 -0.0607 -0.0685
28968W        W72021  29.465  33.737  25.840 -0.1158  0.0779  0.0760
28969W        W72022  13.579  23.514  16.746  0.1512  0.2860 -0.1510
28970W        W72023  25.516   3.971   6.733  0.1249 -0.0264  0.1833
28971W        W72024  20.019   2.953   1.511  0.1059 -0.0567  0.0660
28972W        W72025  27.581   2.852   0.735 -0.1557  0.1057  0.0232
28973W        W72026  14.194  32.801  22.928  0.1125  0.1157  0.1631
28974W        W72027  22.036   3.940  24.737 -0.2905 -0.3523 -0.2761
28975W        W72028  27.571   1.320  19.023  0.2989 -0.0858  0.0206
28976W        W72029   7.262  27.083   7.290  0.0392  0.1288 -0.0096
28977W        W72030   9.853  25.310   1.136 -0.2781  0.1795  0.0010
28978W        W72031   5.083  30.972  27.013 -0.0376  0.0731 -0.2286
28979W        W72032  25.950  33.104   0.991 -0.1540  0.0506  0.2436
28980W        W72033  29.835  32.605  26.881 -0.0197  0.0585 -0.1849
28981W        W72034  18.855  13.772  15.014 -0.1343  0.1602 -0.0939
28982W        W72035   1.964   4.134  19.693  0.0044 -0.1556 -0.0081
28983W        W72036   9.049  22.029  25.712  0.0087  0.0895  0.0924
28984W        W72037  16.181  33.063  24.552 -0.1330  0.0730 -0.1333
28985W        W72038  20.044  16.044  23.244  0.2821  0.0485  0.1669
28986W        W72039   1.495   6.843  21.961  0.0460 -0.1006 -0.1077
28987W        W72040   3.275  31.229  15.714  0.1552  0.0073 -0.4482
28988W        W72041  14.499  23.863   5.981 -0.0636  0.2825  0.1055
28989W        W72042  23.305  21.494   0.565  0.0042 -0.1120  0.1321
28990W        W72043  29.080  27.795  23.918  0.1591  0.0666 -0.0688
28991W        W72044  23.434  18.810   4.832 -0.2541 -0.1103  0.0717
28992W        W72045   0.933  24.236  21.649  0.2436 -0.0706  0.5485
28993W        W72046   8.665  15.576   2.608 -0.2562 -0.1079  0.0950
28994W        W72047   9.664  13.009   4.711  0.1390 -0.0756 -0.1693
28995W        W72048  27.531   6.154  15.955 -0.1666 -0.0199 -0.2035
28996W        W72049  23.369  34.164  19.775  0.0622  0.2102  0.0829
28997W        W72050  30.467   3.612   0.542  0.0282 -0.0356  0.0338
28998W        W72051  19.840  30.049  20.459  0.1658  0.1556  0.1709
28999W        W72052   1.089   8.215   9.668  0.3337 -0.1035  0.1494
29000W        W72053  28.073   3.318  24.976  0.2257 -0.1849  0.2523
29001W        W72054  24.608  11.775   3.677 -0.2523 -0.0382  0.2814
29002W        W72055  25.879   3.210   5.431 -0.2611 -0.0488  0.0695
29003W        W72056   0.083  33.049  27.218  0.0626  0.0214 -0.0632
29004W        W72057   0.604  32.618  20.900  0.0667 -0.2217  0.2649
29005W        W72058  17.423  21.308  24.509  0.0093  0.2379 -0.0318
29006W        W72059  24.638  28.129  21.093  0.0356 -0.3579 -0.0872
29007W        W72060  25.077  25.308  24.130  0.0652  0.0452 -0.1857
29008W        W72061  31.857  28.446  14.218  0.1336 -0.2495 -0.1919
29009W        W72062  25.391   6.123   4.612  0.0964 -0.0166 -0.0029
29010W        W72063  22.002  34.513  23.164  0.4216 -0.0188 -0.0103
29011W        W72064  10.619  34.153  14.444  0.1081 -0.1400  0.1931
29012W        W72065  20.711  26.907   4.139 -0.0013  0.1695 -0.2341
29013W        W72066  26.443  32.385  17.782  0.0491 -0.1027 -0.3575
29014W        W72067   3.515  24.874   3.733 -0.0247  0.0070  0.2630
29015W        W72068  30.716   2.782  24.164  0.0880 -0.0784 -0.3579
29016W        W72069  25.359  21.161  26.216 -0.0644 -0.0357  0.0676
29017W        W72070   4.539   8.293   2.951 -0.2292 -0.1330 -0.2159
29018W        W72071  34.125  32.468  26.069  0.2741 -0.0306 -0.1412
29019W        W72072  13.484   3.993  14.093  0.1842  0.1311  0.1338
29020W        W72073   1.282  29.953  17.714  0.0094 -0.1905  0.2307
29021W        W72074  14.699  15.266  15.063 -0.1226  0.2527 -0.0984
29022W        W72075  19.829  22.358   7.890  0.0636  0.0053 -0.3004
29023W        W72076  31.602  31.946   3.354 -0.0668  0.1159  0.0677
29024W        W72077  31.199  25.936  28.356  0.3653  0.1049  0.1520
29025W        W72078  18.741   3.397  23.591 -0.2110  0.2633  0.0167
29026W        W72079  24.381  18.392   2.650  0.0050 -0.0692 -0.0805
29027W        W72080   1.528  28.038  21.472  0.1000  0.1139 -0.1479
29028W        W72081  31.196  32.101  28.108  0.1600 -0.2693 -0.2122
29029W        W72082  16.888  32.520   8.467 -0.2863 -0.0453  0.0635
29030W        W72083   0.304  30.036  23.222 -0.3721  0.1524  0.0303
29031W        W72084  26.163   1.833   5.329 -0.1521  0.2968  0.2550
29032W        W72085  15.088   4.690  26.085 -0.1914 -0.4141  0.1130
29033W        W72086  33.183  28.017  13.700  0.0130  0.0071  0.1798
29034W        W72087  33.040  34.332   4.269  0.2329  0.2047  0.0574
29035W        W72088  29.039  29.162   5.132 -0.0261 -0.1372 -0.1113
29036W        W72089  27.670   2.773  20.071  0.0631  0.1480  0.0488
29037W        W72090   1.663  15.637  19.958 -0.0864 -0.2817 -0.2526
29038W        W72091  30.813   0.505  26.537  0.2091  0.2348  0.0131
29039W        W72092  28.222   1.161  14.023 -0.0929 -0.0500  0.2551
29040W        W72093  18.828  27.209  28.901 -0.0656 -0.2502  0.0696
29041W        W72094  13.092   4.889   8.761  0.2371  0.1880  0.0186
29042W        W72095  19.421  24.192   3.313  0.0327 -0.0174  0.5161
29043W        W72096  27.229  17.620  21.146 -0.2344  0.0600  0.1928
29044W        W72097  27.586  12.163  27.347 -0.0355  0.0103 -0.0620
29045W        W72098  24.959   6.202   9.724 -0.0771 -0.1144 -0.1078
29046W        W72099  27.881  21.983  20.048 -0.1397 -0.3272 -0.0946
29047W        W72100  32.691  34.343  22.702 -0.0973 -0.1152 -0.0079
29048W        W72101  31.686   7.288  22.816 -0.1677 -0.0101 -0.1195
29049W        W72102   6.214   5.995  17.360 -0.1874  0.0233 -0.0854
29050W        W72103  24.245  29.418   8.468 -0.0531 -0.3602 -0.1579
29051W        W72104  26.011   1.484  24.206  0.1412  0.2363 -0.0490
29052W        W72105   4.357   1.610  19.210 -0.0198  0.1148  0.1981
29053W        W72106  12.624  20.236   7.155 -0.0822  0.0623 -0.3173
29054W        W72107  15.797  30.231  16.185  0.3100 -0.1054  0.2856
29055W        W72108  29.821  15.025   9.689 -0.0295 -0.2028 -0.0177
29056W        W72109  21.073  24.161  24.566  0.1748 -0.0260  0.3726
29057W        W72110  23.456   2.123  18.330 -0.1788 -0.0416  0.0870
29058W        W72111   3.346  25.736   3.617 -0.2516  0.0350 -0.0724
29059W        W72112   1.559  26.457  15.425  0.0465  0.0857  0.1654
29060W        W72113  23.484   8.355  18.604  0.2177  0.0524 -0.1903
29061W        W72114  19.879   7.142   3.654  0.0367  0.2150 -0.2563
29062W        W72115  10.406  21.778  24.718  0.2506  0.1997  0.0668
29063W        W72116  31.007   7.390   1.515  0.3018  0.0360 -0.0619
29064W        W72117  17.790  19.711  13.183 -0.1056  0.0283  0.0820
29065W        W72118  16.455  33.129  10.195  0.1614  0.0824  0.0122
29066W        W72119  15.873   4.068  19.782  0.1618  0.3044  0.1539
29067W        W72120  17.614  32.891  28.311 -0.0553  0.0724  0.1671
29068W        W72121  27.306   5.101   1.198 -0.0783 -0.0022  0.0343
29069W        W72122  23.376  17.523  16.148  0.2377 -0.1120  0.0899
29070W        W72123   6.350   1.113  19.784  0.2040 -0.3454 -0.0127
29071W        W72124  32.559   7.217  15.418  0.0586  0.1644 -0.2906
29072W        W72125  32.375   9.921  17.374 -0.0863  0.0944 -0.0801
29073W        W72126  18.383  25.373   6.648  0.0134  0.2420 -0.2762
29074W        W72127  30.010   4.828  26.565  0.0733  0.3282  0.0731
29075W        W72128  14.278  12.437  26.300  0.1412 -0.1115  0.1402
29076W        W72129   8.029   5.818   2.831  0.2369 -0.1395 -0.0855
29077W        W72130   4.434   1.396   3.274 -0.4700  0.0269  0.3484
29078W        W72131  28.787  12.081  26.430  0.0678  0.3707 -0.1292
29079W        W72132  22.353  28.109   5.036 -0.0534  0.0122  0.1065
29080W        W72133  16.315  15.210   3.815 -0.1012  0.1680  0.1963
29081W        W72134   5.501  32.478  21.566 -0.0624  0.0717  0.0802
29082W        W72135   3.443  22.663  16.563 -0.0301  0.1497  0.0569
29083W        W72136  22.191  28.367  28.108 -0.1359  0.0993 -0.0512
29084W        W72137  27.099  34.479   1.212  0.3137 -0.1226 -0.0451
29085W        W72138  16.366  33.233  22.784 -0.0577 -0.2046  0.0785
29086W        W72139  19.653   0.189   6.843 -0.2593 -0.0959 -0.0526
29087W        W72140   1.860  24.769  22.453  0.1069  0.1235 -0.0674
29088W        W72141  29.510  31.028   5.089  0.1189 -0.2446  0.1586
29089W        W72142  17.067   6.070  23.785 -0.0086 -0.2668 -0.0359
29090W        W72143  19.261  11.017  26.043  0.0129 -0.1278  0.1932
29091W        W72144  18.792  24.865  17.319  0.1962 -0.0430 -0.0171
29092W        W72145  31.200   9.587   9.413  0.0282 -0.1115 -0.2166
29093W        W72146  34.575   0.562   3.686 -0.0520 -0.1391  0.1717
29094W        W72147  17.978   2.146  24.993  0.0679  0.0809 -0.1109
29095W        W72148  27.167   3.194  22.219 -0.1230 -0.1742  0.0557
29096W        W72149   9.408  31.703  29.133  0.2199 -0.2139 -0.1002
29097W        W72150  26.293  30.691  28.657  0.3029 -0.2898 -0.1213
29098W        W72151  23.597  30.027   6.180 -0.0839 -0.2020  0.1027
29099W        W72152  31.079  13.553   7.173 -0.1412  0.1203 -0.3248
29100W        W72153  24.667  26.810  10.384  0.0899  0.2049 -0.1086
29101W        W72154  32.040  16.547   1.529  0.2277  0.1179  0.0622
29102W        W72155  28.903  18.729   7.438  0.0517  0.0788 -0.0399
29103W        W72156  14.903  27.605  29.014 -0.0058  0.0427  0.2318
29104W        W72157  28.248   1.574  16.614  0.3033 -0.2949 -0.0455
29105W        W72158  15.541  32.226   0.336  0.1752 -0.0219  0.1242
29106W        W72159  23.522  22.344  20.678  0.0289 -0.2027 -0.1564
29107W        W72160   8.152  21.879  28.978  0.0231  0.2158  0.2220
29108W        W72161   6.599   2.310   5.053  0.0338  0.1802 -0.0059
29109W        W72162  26.710  33.720  24.975 -0.3151  0.1842  0.1292
29110W        W72163  27.693   5.292  22.274  0.0649 -0.1652 -0.0615
29111W        W72164  31.738  16.984   5.908  0.0033  0.0499  0.1186
29112W        W72165  21.536  32.175   0.768  0.2263  0.3019  0.0909
29113W        W72166  26.445   2.048  28.519  0.0596  0.2608  0.0058
29114W        W72167  18.095  21.427   8.554  0.0048  0.2954  0.0491
29115W        W72168  19.609  14.492  17.836  0.2236 -0.1130 -0.0332
29116W        W72169   9.381   5.595   3.024 -0.1178  0.2759  0.2312
29117W        W72170  19.012  28.812   4.417 -0.1281 -0.1144  0.0535
29118W        W72171  31.826   0.688   2.445 -0.3566 -0.0051  0.0668
29119W        W72172  21.708  27.338  20.769  0.0466  0.0456  0.3641
29120W        W72173   7.522  26.123   4.173 -0.0510 -0.3760  0.0857
29121W        W72174  25.633   8.233   4.918 -0.1476 -0.1034 -0.1935
29122W        W72175   5.982  10.299  27.917  0.2005  0.0516  0.0188
29123W        W72176  12.147  13.583   3.942  0.1961 -0.1705 -0.1361
29124W        W72177  29.220   5.434  26.893  0.2868  0.0487 -0.2629
29125W        W72178  16.586  31.461  28.311  0.2882 -0.1187 -0.0870
29126W        W72179  25.527  12.829  17.438 -0.2628 -0.0255  0.2155
29127W        W72180  29.737   0.210  19.943  0.3183 -0.2141 -0.1827
29128W        W72181  23.705   2.538  17.980  0.0738 -0.0076 -0.1747
29129W        W72182  15.824  26.722  21.848 -0.2529  0.2079 -0.0495
29130W        W72183  29.775  25.876   0.182  0.1996  0.0094 -0.0232
29131W        W72184  13.305  21.277  29.100  0.1424  0.1737 -0.1311
29132W        W72185  32.715  20.117   8.219 -0.0900 -0.1162 -0.1714
29133W        W72186  26.797  31.411   0.704 -0.0164 -0.0034 -0.0657
29134W        W72187  21.323  10.439  17.098  0.0172 -0.1397  0.0684
29135W        W72188  11.463  31.869   0.103 -0.2356 -0.0965  0.1693
29136W        W72189  27.368  12.783   0.083  0.1269  0.0993  0.1559
29137W        W72190  22.608   9.848  24.312 -0.2367 -0.1942  0.0712
29138W        W72191  32.592   3.636  15.977  0.0083 -0.1242  0.2518
29139W        W72192  13.435  21.576  23.146  0.0609 -0.0117 -0.0829
29140W        W72193  20.387   6.002   8.119  0.0368  0.0047  0.0202
29141W        W72194  10.922  29.815  22.521  0.0260  0.0647 -0.0316
29142W        W72195  28.930  19.771   3.480  0.4938  0.0266  0.0804
29143W        W72196   3.093   9.900   8.777  0.0087  0.2723  0.1394
29144W        W72197  25.623  31.656  23.988  0.2516 -0.1236  0.1625
29145W        W72198   3.489  33.508  27.774 -0.3677 -0.1181  0.2747
29146W        W72199  33.108  27.069   8.504  0.0165 -0.0028 -0.2781
29147W        W72200   1.697  31.121  13.034  0.1182  0.1354 -0.0582
29148W        W72201  19.170   4.726  25.617 -0.0223  0.0235  0.1002
29149W        W72202   3.849  28.763   6.181  0.2015  0.0399 -0.1563
29150W        W72203  21.728  10.571  16.299 -0.1610  0.0564  0.0058
29151W        W72204  27.680   6.968  20.627 -0.0216 -0.1962 -0.0062
29152W        W72205  29.244  25.547  17.373 -0.0565 -0.1256 -0.0060
29153W        W72206   3.372  10.943   2.642  0.0489  0.0205  0.0659
29154W        W72207  32.649   6.372   9.211  0.0303 -0.0803 -0.2016
29155W        W72208  26.131   2.407  16.423 -0.0449  0.0101 -0.1303
29156W        W72209  14.187  15.939   3.058  0.2571 -0.1335 -0.3339
29157W        W72210  27.402  19.394  18.833  0.0972  0.0322 -0.1874
29158W        W72211   3.441   4.589  19.940 -0.0599  0.1598 -0.0723
29159W        W72212  28.243  19.658  26.704 -0.0411 -0.0992  0.0560
29160W        W72213  14.554  30.855  28.044 -0.1436  0.3068 -0.1378
29161W        W72214   2.172  26.554  17.120  0.3503 -0.2044  0.0963
29162W        W72215  28.687  11.226   4.893 -0.0979  0.2265 -0.1224
29163W        W72216  19.945  28.515  26.124 -0.0521 -0.2332  0.0394
29164W        W72217  13.120  21.649  20.715  0.2407 -0.0253 -0.0539
29165W        W72218  20.722  19.361  14.990 -0.1259  0.1594  0.4475
29166W        W72219  31.976  33.476  26.051  0.0885  0.1366 -0.3170
29167W        W72220  23.319  34.308   5.788  0.0144  0.0631 -0.2410
29168W        W72221  26.575  23.284  19.988 -0.0108  0.1698 -0.0503
29169W        W72222  13.518  23.045  21.929  0.2971 -0.4339  0.3339
29170W        W72223  27.448  25.036  10.063 -0.1287  0.0922 -0.0282
29171W        W72224   2.658   0.805  27.775 -0.0679 -0.2475 -0.3041
29172W        W72225   6.676  18.652  16.440  0.4113 -0.3994 -0.3107
29173W        W72226  33.358  29.582  18.838 -0.1441 -0.1184  0.4637
29174W        W72227  29.555  16.904   9.313 -0.0377 -0.0498 -0.2723
29175W        W72228  21.863  32.073   4.540  0.0868 -0.1410 -0.1169
29176W        W72229  11.293  27.691  27.681  0.2303  0.3166 -0.1710
29177W        W72230  29.069  10.027  26.259  0.1052 -0.2236 -0.1581
29178W        W72231  26.617  30.400  10.035 -0.0002 -0.0930  0.0407
29179W        W72232  25.623   2.684  19.851  0.0031 -0.0507 -0.2001
29180W        W72233  21.192   3.218   9.573  0.2936 -0.0914 -0.1723
29181W        W72234  34.622  14.614  24.165  0.4777  0.0741 -0.1409
29182W        W72235   4.764  30.661  24.468 -0.1667  0.1593 -0.1601
29183W        W72236  33.991   4.506   5.686 -0.1200  0.0295 -0.1414
29184W        W72237   1.443  22.149  15.224  0.0795  0.1057  0.1054
29185W        W72238  31.098  34.573   4.441  0.1000  0.1374 -0.4133
29186W        W72239  24.165  15.286   5.046  0.0541  0.0134  0.0032
29187W        W72240  34.026  29.690   1.824  0.1103 -0.3146 -0.1702
29188W        W72241  10.418   8.563  23.992  0.3208 -0.2238 -0.0059
29189W        W72242  30.785   0.043  21.635  0.3727 -0.3775  0.0996
29190W        W72243   4.193  33.193   5.725  0.0317  0.0880  0.2636
29191W        W72244   7.261  31.886  19.171  0.0551 -0.0396  0.0348
29192W        W72245  21.733  13.097   7.906  0.0049 -0.0745  0.1123
29193W        W72246   7.426   4.942   5.696  0.3773 -0.3923  0.0299
29194W        W72247   4.214  15.977  16.085 -0.1013  0.0232  0.3562
29195W        W72248  24.195  18.426  26.956  0.0719  0.0113 -0.0141
29196W        W72249   0.990  17.161   6.079  0.0975 -0.2556  0.2154
29197W        W72250  28.012   8.325  28.862 -0.1428 -0.2126 -0.0345
29198W        W72251  12.590   6.422   9.301 -0.1496 -0.1230 -0.1378
29199W        W72252  31.727  32.879  20.029  0.3057  0.0465 -0.1920
29200W        W72253  16.595  27.098   4.995  0.1829  0.1200  0.0895
29201W        W72254  10.186  31.263   6.032 -0.3098  0.0084  0.0391
29202W        W72255  22.772  11.811  20.826  0.1763 -0.2320 -0.1622
29203W        W72256  31.641  28.445  24.066 -0.0553  0.0790 -0.0410
29204W        W72257  31.830   8.159  21.135 -0.0648  0.2031  0.1788
29205W        W72258  25.454  34.532  27.825  0.0007  0.0224  0.0980
29206W        W72259  32.774  15.526  16.563 -0.0352  0.0461  0.0786
29207W        W72260  30.895  11.618   3.876  0.1938  0.3821 -0.2676
29208W        W72261  21.059  20.612   7.428 -0.0456 -0.3870  0.3045
29209W        W72262  29.004  25.957   8.943  0.1242  0.3248  0.3634
29210W        W72263  26.840  19.563  23.372 -0.1789 -0.2264 -0.1513
29211W        W72264  31.047  28.230   3.355 -0.1844 -0.1043  0.0599
29212W        W72265  32.388  30.356   2.374 -0.0965  0.1007  0.0041
29213W        W72266  27.052  27.721   5.316  0.2444 -0.1670 -0.1551
29214W        W72267  24.112  24.283  17.422 -0.1057 -0.2939  0.1635
29215W        W72268  29.191   1.183  20.244  0.2180 -0.3692 -0.2374
29216W        W72269  24.238   5.614  19.679 -0.0486  0.0991 -0.0082
29217W        W72270  20.704  29.408   9.421 -0.2082 -0.1342 -0.2590
29218W        W72271  34.356   6.234   1.635 -0.0319 -0.0749 -0.1945
29219W        W72272  33.685  27.023   5.740 -0.3662  0.0084  0.0409
29220W        W72273  28.794  29.998   6.725  0.2167  0.0900  0.2848
29221W        W72274  23.359  19.281   1.980  0.1921  0.0679  0.3536
29222W        W72275  20.125  18.238  25.851 -0.1977  0.1609  0.0649
29223W        W72276  24.069   8.174  26.883  0.1727  0.1842  0.0945
29224W        W72277  27.540  19.419  28.817  0.1358 -0.0028 -0.0961
29225W        W72278   2.740  23.735  14.639 -0.2763 -0.0282 -0.0201
29226W        W72279  26.539  15.131   5.512  0.1387 -0.1049 -0.0442
29227W        W72280   0.865  33.449   2.750 -0.1471 -0.1843 -0.0232
29228W        W72281  10.329   8.606   1.232  0.0540 -0.0841 -0.2741
29229W        W72282  29.571   6.054  25.321  0.4017  0.1884  0.1792
29230W        W72283  25.852  28.560   3.341  0.0790  0.2824  0.0549
29231W        W72284  18.745  24.332   0.135  0.1467 -0.0657  0.1988
29232W        W72285   0.765  11.051  23.728 -0.1221 -0.0290 -0.1143
29233W        W72286  29.278  26.444   2.279  0.1157  0.1922  0.2327
29234W        W72287  31.375  34.038  27.424  0.0976  0.1494 -0.1248
29235W        W72288   0.130  29.618  17.667  0.3012  0.3315  0.0169
29236W        W72289  23.350   5.099   4.647  0.0678 -0.0478  0.1004
29237W        W72290  13.389  23.193   0.830  0.1434  0.1382  0.1116
29238W        W72291   9.289  32.567   5.813  0.1526  0.2445 -0.0817
29239W        W72292  18.389  30.982   3.678  0.1376  0.2099  0.3190
29240W        W72293   5.071  19.100  26.333 -0.1387  0.0949 -0.0508
29241W        W72294  31.930  31.540  27.926 -0.2789  0.0859  0.1718
29242W        W72295  13.191  16.914  26.554 -0.1882 -0.0869  0.0764
29243W        W72296  31.002  31.608   2.160 -0.1017 -0.2081 -0.2041
29244W        W72297   9.628  27.249   5.243  0.0062  0.0978  0.0327
29245W        W72298  16.850  30.949   7.017  0.0317 -0.0781  0.0208
29246W        W72299  18.826  26.242   0.653 -0.0892 -0.2298  0.1687
29247W        W72300   8.490  32.668   3.361 -0.1055  0.0590 -0.0211
29248W        W72301  24.137   4.418   1.576  0.0670 -0.0370 -0.2216
29249W        W72302  29.408   0.871  22.553 -0.0359  0.2038 -0.3424
29250W        W72303  33.701  28.454   7.567 -0.0619 -0.0073 -0.2833
29251W        W72304  24.619   5.336  20.812 -0.0565  0.0441 -0.1375
29252W        W72305  28.713  21.055  22.988 -0.2885  0.1233 -0.0531
29253W        W72306  32.204  19.237   8.024  0.0609  0.0635 -0.0582
29254W        W72307  28.556  21.643  26.549 -0.6194  0.1047  0.1527
29255W        W72308  21.067   0.514  27.741 -0.1531  0.0027  0.1664
29256W        W72309  26.434  32.500   2.285 -0.0695 -0.0656  0.0618
29257W        W72310  29.522  10.262  11.326 -0.0364 -0.1593 -0.0541
29258W        W72311  21.738  10.988  27.114 -0.1898  0.1860  0.0503
29259W        W72312  26.187   5.885  19.739 -0.2651 -0.1639 -0.1627
29260W        W72313  24.330  32.371   7.558  0.1138  0.0431  0.1143
29261W        W72314  17.954  26.620  23.165  0.3533 -0.3462 -0.1565
29262W        W72315  12.266   4.552  24.110 -0.1298  0.3766 -0.0125
29263W        W72316   6.460  22.229  27.065  0.0992  0.0353  0.0624
29264W        W72317  19.236   2.019   4.137 -0.1647 -0.3163  0.1588
29265W        W72318  25.938  20.791  21.722 -0.0114  0.2041  0.0157
29266W        W72319   0.484  22.102   1.896  0.1237  0.1535  0.0454
29267W        W72320  28.140  12.766   1.792 -0.0505 -0.1357  0.0688
29268W        W72321   9.218   1.407   0.973 -0.1238 -0.1100 -0.2213
29269W        W72322  17.015  21.121  26.510  0.0091  0.2570  0.0221
29270W        W72323  11.221   9.131   2.054  0.2618 -0.3404  0.0411
29271W        W72324  28.713   4.805  21.642  0.2339  0.0923  0.0076
29272W        W72325  31.597  31.746  15.791 -0.1450 -0.0888 -0.2968
29273W        W72326  22.793  25.163   6.584 -0.0054 -0.2403 -0.2719
29274W        W72327  18.005  27.620  21.219 -0.1479  0.0517 -0.3418
29275W        W72328  29.587  17.516  15.311 -0.0501  0.0404  0.0366
29276W        W72329  31.394   3.497  23.896 -0.3456 -0.2345  0.2142
29277W        W72330  23.699  21.741  26.666 -0.0813 -0.2395  0.0705
29278W        W72331  11.930  10.423  23.052  0.0283 -0.1442 -0.4265
29279W        W72332   8.682   7.772  23.929 -0.2926  0.1437 -0.4791
29280W        W72333  23.024  27.563   0.518 -0.0165  0.0390 -0.0621
29281W        W72334  28.042  27.294  29.084 -0.0133  0.1345 -0.0080
29282W        W72335   1.009  31.746  26.815  0.0888  0.1597  0.1387
29283W        W72336  16.805  28.864   4.240  0.0809 -0.0992  0.1958
29284W        W72337  27.763  30.286  17.374 -0.2235 -0.0948  0.4220
29285W        W72338  10.499   4.890   3.957 -0.2807  0.0724  0.1754
29286W        W72339  20.150  24.574  22.808  0.0040 -0.1008 -0.1677
29287W        W72340  26.577  29.182  18.822  0.1446  0.0451  0.0455
29288W        W72341  16.969  10.751  27.905 -0.0231  0.1609 -0.1436
29289W        W72342  30.889  28.799  25.019 -0.1170  0.4271  0.0505
29290W        W72343  12.917   8.733   6.673 -0.2962 -0.0992  0.0737
29291W        W72344  28.296   9.630  22.289  0.0909  0.2225  0.1875
29292W        W72345   7.970   5.560  18.279 -0.0775 -0.1028  0.0665
29293W        W72346  19.712  23.101  20.543  0.0335  0.4834  0.0536
29294W        W72347  21.119   3.458  19.356 -0.3779  0.0224 -0.0871
29295W        W72348  28.337  32.517  26.541  0.0200 -0.2938 -0.2631
29296W        W72349  26.891  26.261  28.560  0.0166 -0.1135 -0.0209
29297W        W72350  23.307  26.212  14.743  0.1510 -0.0204 -0.3524
29298W        W72351   1.089  29.616  15.069 -0.0917  0.1717  0.0440
29299W        W72352  27.695   0.016  21.359  0.0626  0.1471 -0.1788
29300W        W72353  30.233  30.910  19.176  0.0415 -0.0743  0.1032
29301W        W72354  23.418   9.839  18.889  0.1539 -0.1228 -0.0336
29302W        W72355   6.445   6.836  14.522 -0.1573  0.2062  0.0039
29303W        W72356  10.712  28.329  21.541 -0.1775  0.1900  0.1580
29304W        W72357  12.576  11.291  17.384 -0.1359 -0.0748  0.1945
29305W        W72358  19.660  23.136  18.445  0.0765  0.0833 -0.2578
29306W        W72359  20.272  31.543  14.947 -0.1042 -0.0084 -0.2710
29307W        W72360  24.079  17.075  25.974  0.2269 -0.0939  0.2723
29308W        W72361  24.943  29.462  26.611 -0.1845  0.1220  0.1218
29309W        W72362  27.997  23.856  22.056  0.2026  0.2842  0.0604
29310W        W72363  15.173  31.567  23.262  0.2619  0.2317 -0.1353
29311W        W72364  13.113   3.136  18.923 -0.0781 -0.2710  0.1086
29312W        W72365  23.579  11.560  26.797  0.0259 -0.1443  0.2921
29313W        W72366  34.604   1.860  17.556 -0.0909 -0.0809  0.0886
29314W        W72367  27.822  12.028   0.766 -0.0857  0.2564  0.0348
29315W        W72368  25.689   0.261  27.918 -0.2747 -0.0533  0.4003
29316W        W72369  27.080  10.357  27.239  0.0834 -0.1414 -0.1887
29317W        W72370  20.635  11.031  18.246 -0.1118 -0.1409  0.1486
29318W        W72371   1.671  33.228  19.777  0.2807 -0.0091  0.0923
29319W        W72372  26.210   8.194  19.008 -0.4299 -0.0371 -0.1107
29320W        W72373  16.858  33.845  24.708 -0.3178  0.0236 -0.0222
29321W        W72374   3.047  31.648  17.693 -0.2850  0.0169 -0.0064
29322W        W72375  21.815   7.402  20.837  0.1585 -0.0272  0.0803
29323W        W72376  24.627   3.362  24.197 -0.0996 -0.1302 -0.1250
29324W        W72377  17.787   4.020  18.275 -0.3280  0.0341  0.0904
29325W        W72378   5.155   7.283  24.414 -0.5433  0.1888 -0.0538
29326W        W72379   1.079  11.876  19.028 -0.1340  0.1681 -0.0757
29327W        W72380   8.496   2.819  16.423 -0.0150  0.0836  0.1862
29328W        W72381   7.148   9.175  26.558 -0.1474  0.2773 -0.2491
29329W        W72382  26.478  28.714  26.430  0.0892  0.0368  0.1483
29330W        W72383  17.537  22.554  27.461 -0.3510  0.1207 -0.1048
29331W        W72384   0.692  34.237  23.693  0.0283 -0.2290 -0.0245
29332W        W72385  11.237  25.549  16.512  0.1257  0.0290 -0.1813
29333W        W72386  30.450  31.350  21.205  0.1304 -0.0533  0.0213
29334W        W72387   7.184  34.190  25.432  0.2313 -0.1951 -0.1480
29335W        W72388  25.426  32.965  24.952 -0.0892  0.1279 -0.4557
29336W        W72389  34.547   9.019  24.503 -0.2316 -0.1739 -0.3743
29337W        W72390  20.754   3.886  20.492  0.1732  0.0119 -0.0983
29338W        W72391   2.423  25.720  21.638  0.1613 -0.0892 -0.0317
29339W        W72392  18.478   1.226  22.798 -0.0467  0.0842  0.1884
29340W        W72393  20.078   2.571  17.605 -0.1160 -0.0154 -0.3683
29341W        W72394  33.094  23.434  22.276 -0.0553  0.2627 -0.0046
29342W        W72395   3.426  32.101  13.983  0.2958 -0.0237  0.1351
29343W        W72396  31.031  22.814  24.204 -0.4081  0.0233  0.2389
29344W        W72397  30.970  29.833  13.187 -0.1511 -0.1680 -0.4575
29345W        W72398  12.093  32.503  28.953 -0.0721 -0.1603 -0.1310
29346W        W72399  33.254  11.454  17.553  0.0823  0.1206 -0.1276
29347W        W72400  28.892  22.081  24.742  0.3083 -0.2063  0.0854
29348W        W72401  10.405  15.083  20.370  0.2368 -0.1636  0.2612
29349W        W72402  31.624   2.230  17.529 -0.0170  0.1687  0.1246
29350W        W72403   2.698  34.664  24.878 -0.0078 -0.2297  0.0641
29351W        W72404  28.866  17.414  15.203 -0.3376 -0.2556 -0.0507
29352W        W72405  16.598  28.993  18.505 -0.0002  0.2196  0.0332
29353W        W72406  21.933   0.504  16.216 -0.1363  0.0252  0.0621
29354W        W72407   2.090   8.006  22.246  0.2331 -0.2452 -0.0730
29355W        W72408  30.105   4.141  16.743  0.0802 -0.0021  0.2874
29356W        W72409  16.450  22.401  19.410  0.2390 -0.1910 -0.4300
29357W        W72410  28.027  24.343  18.785  0.0353  0.0104 -0.0142
29358W        W72411  23.909  22.317  14.353  0.0818 -0.0034 -0.2006
29359W        W72412  28.816  25.137  25.481 -0.0931  0.1000 -0.2308
29360W        W72413  27.206  31.711  18.132 -0.1919  0.1256  0.2139
29361W        W72414  21.539  29.981   2.459  0.2815  0.0553 -0.1054
29362W        W72415  31.536  25.003  14.447 -0.0555 -0.0266 -0.2530
29363W        W72416  22.988   5.139  19.454 -0.0455 -0.0198  0.3906
29364W        W72417   7.414  19.133  19.312  0.0216  0.1130 -0.0730
29365W        W72418  16.552   0.585  18.620 -0.1700  0.2102  0.0208
29366W        W72419  22.346  27.020  26.291  0.1306 -0.4142 -0.1155
29367W        W72420  15.382  34.431  23.092  0.3261  0.0249  0.0140
29368W        W72421  25.268   5.454  21.859  0.2945 -0.2326 -0.0527
29369W        W72422  25.349  29.746  17.856  0.0865  0.0494 -0.2791
29370W        W72423  28.117  33.216  18.228  0.1006  0.2246 -0.2582
29371W        W72424   9.643  27.341  22.813 -0.2705 -0.0034 -0.1117
29372W        W72425  25.485   1.546  20.600 -0.0828  0.0198 -0.2079
29373W        W72426   5.953   2.822  25.533 -0.0300  0.1225 -0.0604
29374W        W72427  16.991  29.308  16.006  0.1296  0.0031 -0.0022
29375W        W72428  12.532  30.004  17.366  0.0180  0.3024 -0.3911
29376W        W72429  16.881  31.352  19.497 -0.0199 -0.0453  0.1210
29377W        W72430  28.823  19.280   5.218  0.2376  0.0587 -0.2412
29378W        W72431  23.856  27.080  23.798  0.0002  0.1129 -0.2445
29379W        W72432  34.599   7.693  18.633  0.1002  0.0303 -0.0294
29380W        W72433  21.869   3.228  17.689  0.1277 -0.0643 -0.2168
29381W        W72434  27.250  27.512  15.770  0.0794 -0.0515  0.0881
29382W        W72435  17.704  32.948  15.348  0.2959  0.1867 -0.4938
29383W        W72436  18.692   7.806  14.605 -0.0872 -0.2178  0.1575
29384W        W72437  19.899  16.635  24.265  0.1927 -0.2384 -0.1604
29385W        W72438  32.696  30.018  18.460 -0.0364 -0.2584 -0.3262
29386W        W72439  31.075  33.632  22.503 -0.0889  0.1144 -0.1332
29387W        W72440  24.333  32.361  20.760  0.0220 -0.2176 -0.0711
29388W        W72441  15.544   5.966  21.044 -0.1868  0.1093 -0.0841
29389W        W72442  23.320   4.092  16.763  0.0576 -0.0652  0.0919
29390W        W72443  29.056  33.559  21.537 -0.6498 -0.0102 -0.0197
29391W        W72444  34.558  31.023  20.752  0.0724 -0.1403  0.1364
29392W        W72445  13.776  25.908  23.883  0.0171  0.0114 -0.0159
29393W        W72446  20.597   2.644  20.145  0.0672  0.1534 -0.4887
29394W        W72447  24.390  22.534  20.582 -0.1516  0.2853 -0.2653
29395W        W72448  32.025   5.709   3.772  0.0735  0.2315  0.1724
29396W        W72449  19.367   7.528   5.829  0.1355  0.2437 -0.0987
29397W        W72450  33.288  13.822  27.879  0.0421 -0.1629 -0.0876
29398W        W72451  29.118  24.922   8.123  0.1960 -0.0613  0.0616
29399W        W72452  27.354  26.220  14.899 -0.0593  0.0059  0.0216
29400W        W72453  32.995  30.153  23.978  0.0322 -0.2518 -0.0976
29401W        W72454  32.682  22.042  26.854  0.0477 -0.0895 -0.1305
29402W        W72455  23.169  28.858  23.966  0.0056 -0.1592 -0.2952
29403W        W72456   0.380   8.393  24.086 -0.1493  0.1079  0.0553
29404W        W72457  28.107  12.429  21.546 -0.1272  0.1066 -0.1042
29405W        W72458   4.737  31.116  22.705  0.0847 -0.0325 -0.0307
29406W        W72459  34.540  25.699  24.843 -0.3108  0.1493  0.0206
29407W        W72460  15.998   8.752  24.711 -0.0987 -0.0943  0.3382
29408W        W72461  29.143   4.953  21.866 -0.2002 -0.1921  0.2357
29409W        W72462  10.813   0.503  24.911  0.0405  0.0476 -0.0951
29410W        W72463   6.234   2.904  26.054 -0.0760 -0.4299 -0.1036
29411W        W72464   9.038   6.379  17.297 -0.0869 -0.2735  0.0555
29412W        W72465  32.847  33.159  14.135 -0.1639  0.0581 -0.5081
29413W        W72466  13.436  33.870  17.021  0.0848 -0.1268 -0.1286
29414W        W72467  23.751   6.663  22.100  0.1059  0.1193  0.5265
29415W        W72468  31.627  20.026  14.798 -0.0142  0.0208 -0.0068
29416W        W72469   4.058  24.407  22.572 -0.2536 -0.1369  0.2367
29417W        W72470  32.912  19.566   4.114 -0.2555  0.1041 -0.1523
29418W        W72471  31.186  30.925  19.091  0.1616 -0.2250 -0.0050
29419W        W72472  13.381  22.649   4.908  0.5370 -0.1689  0.2441
29420W        W72473  22.114  18.219  25.659 -0.1532 -0.0630  0.1050
29421W        W72474  29.010  25.616  14.392 -0.0546 -0.2122  0.2535
29422W        W72475  23.778  15.665  16.990  0.2488  0.0761  0.1010
29423W        W72476  19.161  34.639  21.260  0.0692 -0.1715 -0.1694
29424W        W72477   5.262  31.462  27.185  0.0076  0.2398 -0.2057
29425W        W72478  10.425  15.567  21.696  0.0462  0.1249  0.1359
29426W        W72479  32.598  18.830  14.730  0.0492  0.1649  0.4205
29427W        W72480  11.929  26.606  16.576  0.0909  0.1606  0.1171
29428W        W72481   2.875   0.649  14.569 -0.1008  0.3202  0.2028
29429W        W72482  13.480  32.426  26.597  0.2547  0.0528 -0.1227
29430W        W72483  29.774   6.042  20.213 -0.0318  0.1372 -0.1909
29431W        W72484  29.503  23.791  15.432 -0.0365  0.0604  0.1243
29432W        W72485  22.452  23.300  18.667 -0.4429 -0.0698 -0.4173
29433W        W72486   2.093   7.147  14.800 -0.0620 -0.3181  0.3440
29434W        W72487  18.526  24.831  19.648  0.1144 -0.0647 -0.0988
29435W        W72488  28.116  31.745  17.224 -0.0251  0.1721 -0.4371
29436W        W72489  10.050   6.576  16.259  0.2626 -0.0457 -0.0410
29437W        W72490  22.817  31.486  16.560  0.2348 -0.0064 -0.1344
29438W        W72491  23.234   8.576  17.822 -0.1012 -0.1644 -0.2269
29439W        W72492  26.089  18.687   3.632  0.1676 -0.0347 -0.1643
29440W        W72493  32.783  25.524  13.675 -0.2444 -0.2460  0.1736
29441W        W72494  28.945   8.462  20.533  0.1335  0.3361 -0.2620
29442W        W72495   3.659  20.226  26.000  0.2258  0.0203 -0.1445
29443W        W72496  13.875  29.800  19.196 -0.0148 -0.0659 -0.1624
29444W        W72497  19.554  27.450  16.601  0.1032  0.0177 -0.0259
29445W        W72498   4.821  21.319  17.603 -0.0390  0.2439  0.2838
29446W        W72499  16.358  26.010  17.875  0.0029  0.0371 -0.0286
29447W        W72500  26.891  14.825   7.193 -0.2314  0.1939 -0.4133
29448W        W72501  24.902  11.424   1.839 -0.4118 -0.2189  0.2628
29449W        W72502   1.495  32.966  17.044  0.0148 -0.0564  0.0711
29450W        W72503   2.384  32.316  18.579 -0.2461 -0.0517  0.1861
29451W        W72504   5.444   1.207  18.503  0.0191 -0.0369  0.1704
29452W        W72505  34.588  30.443  18.218 -0.0850 -0.2103 -0.1455
29453W        W72506  23.963  22.988  19.273  0.2335  0.0105  0.0597
29454W        W72507  15.597   2.417   0.069 -0.5034 -0.1443 -0.1014
29455W        W72508  19.578  33.729  23.026  0.1583 -0.1583  0.0091
29456W        W72509  18.649   8.328  20.685 -0.1442  0.2622 -0.0759
29457W        W72510  20.313  23.271  16.213 -0.0088 -0.1294  0.1005
29458W        W72511  14.996  10.881  26.130  0.0815 -0.0127  0.1400
29459W        W72512  29.175  15.252  23.481 -0.0753  0.2892 -0.2196
29460W        W72513  31.250  16.185  18.017 -0.1344 -0.2187  0.1752
29461W        W72514  34.157   7.293  23.896  0.1711  0.0335  0.1187
29462W        W72515  24.417  25.331  20.221  0.1198  0.2248 -0.0653
29463W        W72516  24.633   1.196  18.267  0.1839  0.0458 -0.2956
29464W        W72517  16.108  20.549   6.047 -0.0376 -0.0535 -0.0834
29465W        W72518  21.985  28.539  15.367 -0.1553 -0.2933  0.0329
29466W        W72519  31.751   1.478  19.024  0.1218  0.1329 -0.3239
29467W        W72520  12.872  25.055  20.507 -0.5207 -0.1512 -0.0303
29468W        W72521  26.323  17.969  22.942 -0.2349  0.1480 -0.0402
29469W        W72522  14.013   3.254  21.614 -0.0830  0.1388 -0.4571
29470W        W72523  23.743  31.574  14.541  0.0480 -0.0124 -0.0798
29471W        W72524   5.819   2.868  15.178 -0.0512  0.2322  0.0132
29472W        W72525  22.108  33.622  15.830  0.0320  0.1071 -0.0671
29473W        W72526  32.808  20.563  15.596  0.1479 -0.2923  0.2424
29474W        W72527  10.048   5.686  17.970 -0.1208  0.1375 -0.0387
29475W        W72528  21.175  29.759  27.748  0.0827  0.1537  0.0526
29476W        W72529  11.461  30.148  23.915  0.1648 -0.3909 -0.1822
29477W        W72530  34.205   1.523  27.942  0.0065 -0.1077 -0.0626
29478W        W72531   2.984  28.918   1.352 -0.0047  0.1337 -0.1293
29479W        W72532  22.948   0.995  14.503 -0.2858  0.0967 -0.0288
29480W        W72533  12.215  28.927   8.347  0.3511 -0.0367 -0.1313
29481W        W72534   3.476  16.764  19.347 -0.0562 -0.1320  0.2980
29482W        W72535  12.773  26.024  15.802  0.0017  0.1486  0.0800
29483W        W72536  30.918  18.644  27.740 -0.1487  0.2437  0.0806
29484W        W72537  21.234  21.886  20.825  0.0143  0.0013 -0.1919
29485W        W72538  13.190  28.705  15.384  0.2258 -0.0028 -0.1087
29486W        W72539  33.289  26.033   5.816  0.1512 -0.0894 -0.0460
29487W        W72540  18.068   3.530  20.505  0.1713 -0.2438 -0.0235
29488W        W72541  21.407  28.824  20.020 -0.0889 -0.2059  0.4067
29489W        W72542  21.541  22.873  14.801 -0.3180  0.1358 -0.1788
29490W        W72543  29.990  23.037  24.056 -0.1217  0.0083 -0.0448
29491W        W72544  17.625  34.266  18.891 -0.1779 -0.2557 -0.0548
29492W        W72545  27.179  34.215  17.158  0.2680  0.1069  0.1886
29493W        W72546  19.906   2.408  16.165  0.0750 -0.1617 -0.1053
29494W        W72547  31.610  19.868   9.758  0.0435 -0.1076 -0.2856
29495W        W72548  14.502   9.797  15.083 -0.0588  0.2210 -0.1396
29496W        W72549  25.736   6.073  21.252 -0.2035 -0.2508  0.0598
29497W        W72550  22.710   0.254  19.353 -0.3679 -0.2674 -0.0893
29498W        W72551  14.881  23.450  16.195  0.3432 -0.4243 -0.0152
29499W        W72552  25.999  29.533  17.817  0.1341  0.1014  0.0419
29500W        W72553  17.890  19.106  23.036  0.1361  0.0271  0.2195
29501W        W72554   1.110   3.040  16.069  0.3374  0.2098 -0.2531
29502W        W72555   4.416   7.893  26.570 -0.0873  0.1238 -0.2696
29503W        W72556  28.928   6.879   3.499 -0.1110 -0.0889 -0.1673
29504W        W72557  15.256  26.836  23.119 -0.0774 -0.2553 -0.2594
29505W        W72558  26.082  22.941  23.026 -0.0455 -0.1238  0.1991
29506W        W72559  23.598   0.841  20.010 -0.0288  0.0138  0.1006
29507W        W72560  25.399  27.977  24.663 -0.2308 -0.0449  0.1363
29508W        W72561  32.596  32.797  21.038 -0.0432  0.1461  0.1522
29509W        W72562  16.819   9.073  15.029  0.0247  0.1782 -0.2104
29510W        W72563   8.660  32.797  17.221  0.3051  0.0204  0.1124
29511W        W72564  30.599   0.829  21.514  0.1579 -0.2038  0.1446
29512W        W72565   8.168   2.701  22.128 -0.3650 -0.3226 -0.1681
29513W        W72566  28.398  10.868   3.948  0.4657  0.2254 -0.1476
29514W        W72567   3.200   1.445  18.558  0.0665  0.2720 -0.0023
29515W        W72568  32.679  20.020  21.691  0.1761  0.2996 -0.1519
29516W        W72569   3.266   2.307  13.727  0.3179  0.1337 -0.0541
29517W        W72570  26.576  15.372  20.867 -0.3845 -0.3404 -0.0869
29518W        W72571   7.264  28.744  21.725  0.2396 -0.0521  0.1360
29519W        W72572  29.449  26.860   2.530 -0.2915  0.3426 -0.0778
29520W        W72573  22.170   9.359  20.068 -0.0670 -0.2797 -0.0104
29521W        W72574  15.984   6.714  22.061 -0.2240 -0.0870  0.0231
29522W        W72575  16.628  25.547  25.842 -0.2703  0.1022  0.0920
29523W        W72576   0.177   0.172  18.905 -0.0039  0.1814 -0.0451
29524W        W72577  34.201  10.204   6.759  0.1043 -0.0738  0.0368
29525W        W72578  19.071  31.392  15.953 -0.0673  0.1550 -0.0061
29526W        W72579  22.877  33.716  21.073 -0.0545  0.2481 -0.0898
29527W        W72580  22.721  25.873  19.299  0.2944  0.0946 -0.0848
29528W        W72581  30.571   2.275  23.399  0.0280  0.1776 -0.2182
29529W        W72582  26.897  34.088   2.450  0.1374 -0.0595  0.3050
29530W        W72583   1.245  34.172  13.635 -0.1152 -0.2576 -0.1594
29531W        W72584   0.265   0.415  23.326 -0.0207 -0.0013  0.2095
29532W        W72585  24.796  32.162   8.836  0.0434  0.2031 -0.2623
29533W        W72586  19.517  33.460  23.531 -0.0298 -0.1947  0.0117
29534W        W72587  30.704   1.031  19.924  0.0955 -0.3076  0.2972
29535W        W72588  24.965   1.926  15.508  0.1325  0.1151 -0.0398
29536W        W72589  27.643  30.484  18.036  0.1007  0.0193  0.1811
29537W        W72590  29.634   3.914  19.071  0.1829  0.0237 -0.1500
29538W        W72591  32.031  28.420  23.664 -0.1037  0.1657  0.2972
29539W        W72592  34.192  19.341  16.901  0.0645 -0.0871  0.0519
29540W        W72593  20.868  33.203  28.593 -0.1313  0.1763 -0.2121
29541W        W72594  21.702  15.604  23.144  0.2256 -0.0049  0.1726
29542W        W72595  16.977  15.587   0.471 -0.1031 -0.0264 -0.0881
29543W        W72596  34.071  31.541  15.681 -0.1278 -0.1136  0.0776
29544W        W72597  13.386  21.930  19.425  0.0917  0.1271  0.0561
29545W        W72598  25.640   1.833   4.044  0.2235 -0.1511 -0.0752
29546W        W72599  21.777  27.754  22.410 -0.1156 -0.0435 -0.2167
29547W        W72600  13.077  18.865  24.219  0.2911 -0.2444  0.2931
29548W        W72601   5.654  30.141  21.568 -0.1552 -0.1381 -0.0358
29549W        W72602   9.028  20.181   4.078  0.1140  0.0979  0.4761
29550W        W72603  29.549  16.268  17.151 -0.0368  0.1118 -0.1041
29551W        W72604   3.359  23.697   1.357  0.2085 -0.1359  0.2084
29552W        W72605  25.091  31.582  25.957  0.2210  0.0592  0.0667
29553W        W72606  23.777   4.497   1.096 -0.3443  0.0649  0.3425
29554W        W72607   2.989  31.780  28.142 -0.1187  0.0362 -0.2555
29555W        W72608  30.655   3.341  20.553  0.1585 -0.2310 -0.2240
29556W        W72609  23.321  27.631  20.681 -0.0509  0.0588 -0.0947
29557W        W72610  25.896  27.114  21.964  0.1651  0.0480  0.3695
29558W        W72611  31.090  27.509  14.898 -0.1392 -0.1995 -0.2033
29559W        W72612  27.262  30.923  28.704 -0.1780 -0.0516  0.0261
29560W        W72613  33.331   6.299  27.247 -0.0559  0.0804 -0.1532
29561W        W72614  30.217  33.431  21.578 -0.0379  0.0054  0.0515
29562W        W72615  24.411  28.047  14.036  0.1371  0.2479  0.3220
29563W        W72616   2.656  11.722   0.860 -0.0799  0.0331  0.1078
29564W        W72617  22.474   8.381  20.028 -0.0618 -0.2045 -0.2193
29565W        W72618  30.915  30.650  17.047 -0.0997  0.1166  0.1210
29566W        W72619  11.102  21.012  23.147  0.0881 -0.0484  0.2065
29567W        W72620   0.004  32.332  24.442  0.1890 -0.5172  0.2089
29568W        W72621   2.494   0.477  16.463  0.0488 -0.3926  0.2058
29569W        W72622   1.924  30.681   0.875 -0.2837 -0.3109  0.0455
29570W        W72623  18.632  28.298  26.807  0.2583 -0.0144  0.0213
29571W        W72624   3.242  31.779  17.192 -0.2332 -0.1794 -0.2557
29572W        W72625  24.013  21.314  25.622  0.0558 -0.0943  0.0368
29573W        W72626  17.757   1.031  19.808  0.0664 -0.3066 -0.0342
29574W        W72627  10.304  33.269  23.006  0.1467  0.1759 -0.0066
29575W        W72628  32.599   6.769  19.477  0.0131  0.2447  0.1782
29576W        W72629  17.505   2.879  20.236  0.1100  0.0896 -0.3361
29577W        W72630  24.690   3.165   0.698 -0.3281  0.1263 -0.0519
29578W        W72631  33.768  31.767  18.790 -0.2955  0.3475  0.0442
29579W        W72632  28.257  32.460  14.068 -0.3458 -0.0415  0.4198
29580W        W72633  30.325   4.943  23.831 -0.2113 -0.1176  0.0162
29581W        W72634  32.034  32.478  14.552  0.0190 -0.0577 -0.0895
29582W        W72635  23.622  25.536  15.348 -0.1809  0.1280 -0.1103
29583W        W72636  28.062  34.211   7.286 -0.3316  0.0773  0.4293
29584W        W72637   5.904  19.793  21.433  0.1015 -0.1081  0.0626
29585W        W72638  19.089  31.778  24.391 -0.0707  0.0385  0.0682
29586W        W72639   9.251   0.035  19.511 -0.1839  0.0208  0.0263
29587W        W72640  28.015  32.222  19.669 -0.2741 -0.0083  0.1020
29588W        W72641  15.586  25.132   1.895 -0.1347 -0.0387  0.3055
29589W        W72642  18.848  25.380  23.228 -0.2608 -0.0028 -0.3309
29590W        W72643   1.925  23.803  25.857  0.0524  0.4217  0.0820
29591W        W72644  16.959  34.144  16.561 -0.0247 -0.2949  0.0544
29592W        W72645  18.905   2.766  18.949 -0.2409 -0.1694  0.0292
29593W        W72646  31.344  31.200  21.000  0.0629 -0.1288 -0.2150
29594W        W72647  23.714   6.289  20.884 -0.1986 -0.3752 -0.0493
29595W        W72648  10.074  27.707  18.294 -0.1256  0.0633 -0.2103
29596W        W72649   0.094  32.478   2.189  0.2578  0.1755  0.1320
29597W        W72650  20.079  14.000  14.664 -0.1597  0.1015 -0.0929
29598W        W72651  20.024   2.535  26.766 -0.4198  0.0083 -0.1558
29599W        W72652   5.678   2.790  25.128 -0.0341  0.1132  0.2734
29600W        W72653  30.630   0.216  16.202 -0.1776  0.2480 -0.0706
29601W        W72654  24.083  32.100  21.133 -0.0194 -0.1160  0.2193
29602W        W72655  20.023   0.650  19.277 -0.0057 -0.1550  0.2909
29603W        W72656  30.477  29.621  16.345  0.1263  0.0937 -0.0104
29604W        W72657   9.033   7.833  10.631 -0.0219 -0.2841  0.1932
29605W        W72658   1.737  25.337   7.198 -0.0105 -0.0503  0.1598
29606W        W72659   1.706  13.891   4.086  0.1274 -0.0745 -0.0425
29607W        W72660  28.230   4.406  16.599  0.2831  0.0591  0.4020
29608W        W72661  25.785  22.782  24.971  0.1343  0.0177 -0.2207
29609W        W72662  16.537  31.518   1.493  0.2071  0.0956 -0.0424
29610W        W72663   3.501  30.797  16.644  0.3083  0.2303 -0.0455
29611W        W72664  10.109  34.376  14.201 -0.2479 -0.0213 -0.0787
29612W        W72665  30.955  17.047   5.413 -0.1561 -0.4417  0.1323
29613W        W72666   8.647   6.074  23.264  0.3356  0.3495  0.2496
29614W        W72667  13.667   1.540  15.775  0.2562  0.2380 -0.4325
29615W        W72668  16.467  26.739  19.705  0.2155  0.0747 -0.0350
29616W        W72669   0.463   1.235  15.185 -0.1547 -0.5116  0.0909
29617W        W72670  16.254  33.622  26.048 -0.2650 -0.0047 -0.2499
29618W        W72671  18.361  26.223  15.888  0.2310 -0.0471  0.3050
29619W        W72672  13.327   2.180  22.136 -0.0560 -0.3298 -0.0223
29620W        W72673  31.865   3.352  16.944 -0.0723 -0.1202  0.1509
29621W        W72674  24.535   5.724  19.291  0.3464 -0.2865 -0.2027
29622W        W72675  24.160  28.176  23.999  0.2684 -0.3418  0.2743
29623W        W72676   2.722  11.244   3.556 -0.2637 -0.0315 -0.0051
29624W        W72677  27.465   4.895  20.889  0.0857 -0.2106  0.0623
29625W        W72678  30.279  29.441   1.386 -0.2759  0.2400 -0.3460
29626W        W72679  13.669  18.576  24.830 -0.0212  0.0417  0.1472
29627W        W72680  25.237   9.831  27.107 -0.1437 -0.2353  0.1789
29628W        W72681  29.367  32.519  23.240  0.3120 -0.1750 -0.0086
29629W        W72682  32.638   1.969  17.947 -0.1259 -0.1875  0.1250
29630W        W72683  29.662   5.736   0.130 -0.0866 -0.0531  0.0106
29631W        W72684  33.954  10.893   2.679 -0.2499  0.3457  0.2055
29632W        W72685   5.320   2.719  14.060 -0.2411 -0.1792 -0.2186
29633W        W72686  13.139  24.637   0.485  0.1978 -0.0890 -0.2576
29634W        W72687   0.836   7.048  19.630  0.1472 -0.1957  0.0494
29635W        W72688  27.303  17.805  26.091 -0.0357 -0.0395  0.0906
29636W        W72689  31.600   4.718  21.006 -0.0843  0.0142 -0.1944
29637W        W72690  25.102  14.607  15.904 -0.1270 -0.2487  0.0765
29638W        W72691  27.467  32.573  18.628 -0.0197 -0.0415  0.1516
29639W        W72692   8.067   1.570  27.568  0.0780  0.3229  0.4778
29640W        W72693  12.580  28.287  16.921 -0.1776 -0.2344 -0.0930
29641W        W72694  27.972  16.536   1.020 -0.4392  0.0146  0.0146
29642W        W72695  17.798  22.455  17.362  0.2340  0.1062 -0.2253
29643W        W72696  31.345   1.343  19.368  0.1364 -0.2677  0.1738
29644W        W72697  25.304  33.544   3.370  0.0435 -0.2811 -0.4402
29645W        W72698  27.025  33.504  22.762 -0.0680  0.1577  0.2436
29646W        W72699  21.677  32.083   6.658  0.1675  0.0495  0.0233
29647W        W72700  15.295   3.274  26.513  0.2809 -0.0021  0.0170
29648W        W72701  19.301   9.269  22.160 -0.0576 -0.0256  0.2241
29649W        W72702  14.978   9.167   1.166 -0.1049 -0.2851  0.3038
29650W        W72703  32.310   1.226  26.801  0.2438  0.1447 -0.1591
29651W        W72704  20.059  32.888  15.521 -0.1318 -0.1155 -0.4081
29652W        W72705  12.192   7.418  20.034 -0.0532  0.1988 -0.0830
29653W        W72706  11.767  33.590   3.479  0.0404 -0.3280  0.0740
29654W        W72707   7.675   1.019  18.248  0.1565 -0.1393 -0.1272
29655W        W72708  24.129  26.971  22.844  0.0640  0.3754 -0.0146
29656W        W72709   3.956   2.385  27.477 -0.1411 -0.1078 -0.0942
29657W        W72710  26.204   6.522  16.109  0.1338  0.1411 -0.0928
29658W        W72711   3.434  31.928  16.723  0.2909 -0.0109  0.0815
29659W        W72712   5.296   3.807   1.471  0.0864  0.2616  0.0959
29660W        W72713  29.434  26.934  17.941  0.0603 -0.0112  0.0372
29661W        W72714  18.000  22.814  21.095 -0.4448 -0.0145 -0.3953
29662W        W72715  30.477  30.311  20.068  0.1178 -0.1300  0.1332
29663W        W72716   3.090   1.016  17.749  0.0563  0.0660 -0.0488
29664W        W72717  25.360  28.184  25.558  0.1916  0.0193 -0.0938
29665W        W72718  29.289   0.446  17.405 -0.0125 -0.1746  0.0998
29666W        W72719   8.832  32.529  28.870  0.2263  0.1099 -0.0235
29667W        W72720   8.542   0.842  20.673 -0.0030 -0.3368  0.2012
29668W        W72721   9.783  31.649  20.715 -0.3431 -0.1371 -0.2900
29669W        W72722  26.185  30.892  21.249 -0.1626 -0.2182 -0.1228
29670W        W72723  29.242  30.524  20.467  0.0268 -0.1936 -0.1395
29671W        W72724   1.398  11.971  18.363 -0.0228 -0.2266 -0.2463
29672W        W72725  13.154   2.869  14.864  0.2264  0.1985 -0.1973
29673W        W72726  28.895  15.500  19.526  0.2962  0.0291  0.2668
29674W        W72727  26.079   7.631   2.167  0.0164  0.0757  0.0261
29675W        W72728  15.209   4.703  19.527 -0.1562  0.1731 -0.0334
29676W        W72729  32.459   4.381  19.755 -0.1207  0.2988  0.0673
29677W        W72730  12.946  32.828  20.055 -0.0005 -0.0522 -0.1001
29678W        W72731  25.418  28.941  14.547 -0.1262 -0.1345  0.0150
29679W        W72732  33.452   6.630  17.123 -0.0980 -0.0798  0.2312
29680W        W72733  28.977  26.644  16.063 -0.0161  0.1417  0.0811
29681W        W72734  22.642  28.614  22.000  0.0419 -0.0201  0.0485
29682W        W72735  29.299  18.447   2.379 -0.2239  0.0654 -0.1560
29683W        W72736  16.335  13.586   0.273 -0.1522 -0.1475  0.2657
29684W        W72737  22.389   0.911  15.292  0.0387  0.3767 -0.2503
29685W        W72738  29.528   6.447  20.041  0.1460  0.1033 -0.1751
29686W        W72739  25.521   8.762   1.308 -0.2039 -0.2615 -0.1966
29687W        W72740   1.537   3.532  22.246  0.2417  0.0795 -0.0363
29688W        W72741  27.612  10.076   0.933 -0.1896  0.1679  0.0285
29689W        W72742  29.424   3.468  17.548 -0.1725 -0.2357 -0.3490
29690W        W72743  12.018  22.202  13.748  0.0002 -0.1387 -0.3228
29691W        W72744  29.943  34.226   4.466  0.0208 -0.2055  0.1624
29692W        W72745   2.818   7.400   9.368 -0.0690 -0.1696  0.0996
29693W        W72746  32.537  23.229   9.853  0.1630 -0.1421  0.0424
29694W        W72747  30.922   0.822  27.151  0.0947  0.0171  0.0509
29695W        W72748  27.021   7.783  22.055 -0.0557 -0.3345  0.1080
29696W        W72749   1.310   0.067  19.076  0.0089  0.0036 -0.0089
29697W        W72750  20.191   0.271   9.667 -0.0495  0.0078  0.1330
29698W        W72751  23.480  34.335  20.238  0.2622 -0.2122  0.1880
29699W        W72752   2.789  17.310  17.683  0.0099 -0.3382 -0.2532
29700W        W72753  28.843  31.477   2.380 -0.0508 -0.0056  0.1670
29701W        W72754  27.095  32.577   6.866 -0.2405 -0.0500  0.2523
29702W        W72755   2.014   0.622  14.831 -0.1767  0.0747  0.1186
29703W        W72756  17.045  34.609  16.950  0.0952  0.0819  0.1146
29704W        W72757  20.022   6.545  15.373  0.0483 -0.0812  0.0991
29705W        W72758  14.070  23.080  18.281  0.0027 -0.0228 -0.1029
29706W        W72759  12.947   4.064  21.523 -0.2201 -0.2292  0.0047
29707W        W72760  27.089  29.424  20.358 -0.1362 -0.1306  0.0940
29708W        W72761  17.612   1.408  15.898 -0.2451  0.0704 -0.1034
29709W        W72762  22.208  26.502  23.876 -0.0993  0.1282  0.1708
29710W        W72763  22.507  11.262  20.018 -0.0106  0.0220 -0.1885
29711W        W72764  26.518  33.644   9.337  0.3223  0.0209  0.0560
29712W        W72765  26.240   8.296  16.432  0.2797 -0.1209 -0.2172
29713W        W72766  11.023   1.163  16.755 -0.2074 -0.2953  0.1253
29714W        W72767  17.262   8.605  19.904 -0.0804 -0.0019  0.0983
29715W        W72768  26.110   3.124  27.776  0.0686 -0.1325 -0.4723
29716W        W72769  26.297   1.360  17.817  0.1454  0.2610  0.1735
29717W        W72770  11.742   0.144  13.745 -0.1269 -0.3221  0.2623
29718W        W72771  16.031  33.386  25.525  0.1414  0.2261 -0.0468
29719W        W72772   3.206   6.465  22.378 -0.0164  0.0322  0.2688
29720W        W72773   8.374  31.215  17.676  0.0911  0.0729 -0.0380
29721W        W72774  29.401  32.533   6.894 -0.0364  0.0146  0.3135
29722W        W72775  24.909   1.355  15.932 -0.0705 -0.1624 -0.2494
29723W        W72776   3.901   3.290  26.511 -0.2679 -0.0389 -0.3802
29724W        W72777  29.011  30.718  19.421 -0.1008 -0.0871 -0.2061
29725W        W72778  23.530  16.087   1.490  0.1187 -0.0438  0.0795
29726W        W72779   4.379  28.094  20.557 -0.1305 -0.1252 -0.1353
29727W        W72780   0.244   3.651  19.288 -0.1306  0.0115 -0.0428
29728W        W72781  31.040  10.716   1.359 -0.2558  0.1743 -0.1899
29729W        W72782   2.964  29.205  17.827 -0.0493 -0.1059  0.2367
29730W        W72783  24.832   0.111  25.544 -0.3052 -0.3961  0.2518
29731W        W72784  26.251   5.471  21.756 -0.2168  0.0351  0.1360
29732W        W72785   4.977   2.499  16.489 -0.2388 -0.0359 -0.0623
29733W        W72786  17.630  34.113  25.021 -0.1796 -0.2921  0.2041
29734W        W72787   0.768  18.230  22.541 -0.2365 -0.2152  0.1272
29735W        W72788  21.444   4.371  16.682 -0.0916 -0.2230 -0.0261
29736W        W72789  10.780   3.949  17.414  0.0233 -0.1766  0.3662
29737W        W72790  28.926   4.437  16.254  0.0800  0.1025 -0.0741
29738W        W72791  23.836   5.720  15.296 -0.0354 -0.1353 -0.3173
29739W        W72792  28.388  31.526  16.527 -0.2296 -0.1223  0.1373
29740W        W72793  27.036  13.057   6.695 -0.0395  0.1230  0.2944
29741W        W72794  13.755   2.917  13.879 -0.2711  0.0392  0.0521
29742W        W72795  29.275  15.642   0.103 -0.2321 -0.3295  0.1923
29743W        W72796  18.365   0.444   9.214  0.1643 -0.1622 -0.1073
29744W        W72797  25.026  28.528  28.462 -0.0474  0.1704 -0.1183
29745W        W72798   7.414  31.233  22.895  0.0661 -0.2176  0.0491
29746W        W72799  22.207  33.372  28.743 -0.2362 -0.0659 -0.0154
29747W        W72800   7.771   3.231  24.284 -0.2307 -0.3162  0.1121
29748W        W72801  30.184  31.937  18.338  0.0306 -0.2002  0.0478
29749W        W72802  10.048   4.295  23.459 -0.0779 -0.0957 -0.0459
29750W        W72803  31.666   2.245  21.283  0.2031 -0.1020 -0.1304
29751W        W72804  34.108  23.399  19.814 -0.0301 -0.2909  0.0209
29752W        W72805  19.703  34.357  21.167 -0.3014  0.1490 -0.0921
29753W        W72806  21.756  26.606  19.108 -0.0150 -0.5879 -0.0625
29754W        W72807   0.282  31.374  24.494 -0.0529  0.0569 -0.1919
29755W        W72808   9.242  31.110  23.634  0.1821 -0.1265  0.0756
29756W        W72809  27.193  17.518  14.088 -0.2184  0.0363 -0.0508
29757W        W72810  22.148   0.166  24.780  0.5796 -0.2004 -0.0564
29758W        W72811  31.028   0.984  21.211  0.3584 -0.0122 -0.3789
29759W        W72812  25.720   7.972   7.598 -0.1097 -0.1178 -0.1249
29760W        W72813  26.290   7.231   0.592  0.1726 -0.1444 -0.2925
29761W        W72814  20.416  31.340  26.048  0.3724  0.0456 -0.1322
29762W        W72815  31.635  28.828   0.724  0.0265 -0.0525 -0.0776
29763W        W72816  34.681  21.978  22.500 -0.0612  0.0164 -0.0546
29764W        W72817  25.506   4.084  19.063 -0.4059  0.0938  0.0472
29765W        W72818  22.649  28.233   1.471  0.0415  0.0292 -0.3610
29766W        W72819  26.600  16.527  25.840 -0.3074 -0.0614 -0.0338
29767W        W72820  21.497  16.876   1.376 -0.2159 -0.2061  0.0181
29768W        W72821  31.252  32.485   4.098 -0.2911 -0.0711 -0.1926
29769W        W72822  28.590   1.792  25.063  0.0080  0.0816  0.4301
29770W        W72823  14.186  18.157  22.994 -0.4527 -0.1708 -0.1194
29771W        W72824   2.886  33.468  16.881  0.0655 -0.0407  0.2209
29772W        W72825  30.394  30.226  20.606 -0.0984  0.1439 -0.1290
29773W        W72826  12.226  23.932  15.326  0.0456 -0.1983 -0.3337
29774W        W72827  33.544  28.143  25.686  0.2761  0.2203 -0.0409
29775W        W72828  22.261  29.676  17.401 -0.0952 -0.0400  0.0353
29776W        W72829  18.532  28.918   9.855  0.0977 -0.1159  0.2818
29777W        W72830  28.007  33.659  16.887 -0.2613 -0.0147  0.3261
29778W        W72831  21.105   5.983  18.213  0.2080 -0.2334 -0.3896
29779W        W72832  22.151   6.566  14.956 -0.0913 -0.1697  0.2599
29780W        W72833  28.911   6.979  18.474  0.1229  0.2374 -0.1303
29781W        W72834  14.602  19.725  22.435 -0.0649  0.0071  0.0957
29782W        W72835  14.050   2.107   0.188 -0.0073 -0.3139 -0.0841
29783W        W72836   0.042  11.522   2.869  0.1151  0.0721  0.0702
29784W        W72837  26.931   3.324  23.492 -0.1557 -0.1229  0.0658
29785W        W72838  15.799   5.017   1.638 -0.3910  0.0816 -0.2923
29786W        W72839   0.159  17.418  17.648  0.0525 -0.1406 -0.2090
29787W        W72840   1.248  26.273   1.902  0.0445  0.0491  0.1315
29788W        W72841  15.983  24.881  17.278  0.0197  0.2292  0.3865
29789W        W72842  16.975  24.394  17.151 -0.1134 -0.1231 -0.0035
29790W        W72843   0.016   7.663  26.585 -0.1340  0.1675 -0.1941
29791W        W72844  14.338   2.201  26.066 -0.4458 -0.0494 -0.2573
29792W        W72845  26.202   0.941  20.008 -0.1162  0.0778 -0.1689
29793W        W72846  12.275  32.283  15.528 -0.1421 -0.1305  0.0936
29794W        W72847  32.337   7.371  19.967 -0.0341 -0.0363 -0.0548
29795W        W72848  20.506  15.880  24.614  0.1688  0.2012  0.2650
29796W        W72849  18.010  31.252  15.371 -0.0225 -0.0326 -0.1871
29797W        W72850  15.670  14.621  24.813  0.2802 -0.0974 -0.0119
29798W        W72851  14.351   4.562  18.453  0.1614  0.3768 -0.0589
29799W        W72852   6.403   7.687  18.958 -0.1922  0.2205 -0.2351
29800W        W72853  29.484   7.625   4.975 -0.2294  0.0276  0.1264
29801W        W72854  25.845  29.626  16.638  0.2218  0.1988  0.2771
29802W        W72855  30.344  33.285   2.268 -0.1113 -0.1433  0.0685
29803W        W72856  29.467  14.305  14.241 -0.1699 -0.1020 -0.2090
29804W        W72857  25.834   1.717  17.506 -0.0007 -0.2447  0.2342
29805W        W72858  18.461   4.031  21.642 -0.2145 -0.1988 -0.1650
29806W        W72859  26.799  26.784  20.064 -0.0651  0.0024 -0.2593
29807W        W72860  19.629   6.944  18.593 -0.0238 -0.0063 -0.1151
29808W        W72861  24.029  19.485   4.053 -0.1897 -0.0085  0.3513
29809W        W72862  34.558  34.257  26.931  0.2106  0.1115 -0.0573
29810W        W72863  33.760  15.881  27.380  0.1559 -0.1049  0.2752
29811W        W72864   0.038  10.924  25.978 -0.2053 -0.0396  0.0316
29812W        W72865  21.026  11.037   6.026 -0.3924 -0.0178 -0.2024
29813W        W72866  25.056  25.775  20.852  0.0446 -0.1596  0.0177
29814W        W72867  32.991   4.596  19.877  0.0291  0.4610 -0.3066
29815W        W72868  30.659   1.876  20.458  0.0021  0.0600 -0.2551
29816W        W72869  26.048   8.823  14.137  0.3386  0.2627 -0.1779
29817W        W72870  33.444  29.112   4.336  0.1230  0.1775 -0.0408
29818W        W72871  10.466  24.507  28.236  0.0020  0.3076  0.2822
29819W        W72872  22.272   2.473  23.160 -0.1289  0.0954 -0.1794
29820W        W72873  34.544  33.233  15.153  0.1612  0.0153  0.0340
29821W        W72874  33.762   0.908  23.291 -0.1368  0.0273 -0.0059
29822W        W72875  27.149  30.389  26.490 -0.0229  0.2034 -0.1928
29823W        W72876  18.488  26.545  22.927  0.0329  0.0301 -0.4161
29824W        W72877  30.469   1.138  25.550  0.0293  0.1314  0.1276
29825W        W72878  33.817   7.106   0.494  0.2254  0.2628  0.2379
29826W        W72879  24.085  28.074  23.119 -0.0599 -0.2625 -0.3026
29827W        W72880   3.767  32.276   0.563 -0.3802  0.1717 -0.1406
29828W        W72881  32.766  32.789  21.599  0.0054  0.4475 -0.0108
29829W        W72882   2.156   6.906  19.355 -0.3335 -0.0738  0.1860
29830W        W72883  27.264  30.850  25.634  0.1389  0.2235 -0.1281
29831W        W72884  21.191  29.275   9.191 -0.0115 -0.3428 -0.2458
29832W        W72885   1.310  27.280   7.013 -0.0629 -0.0358 -0.0409
29833W        W72886  22.545  11.238  18.296  0.2482 -0.3133  0.0161
29834W        W72887  11.372  17.082  24.460 -0.0749 -0.3133 -0.3817
29835W        W72888  27.922   8.364  25.327  0.1583 -0.1628 -0.3034
29836W        W72889  15.041   9.973   8.474 -0.2321 -0.0999 -0.2561
29837W        W72890  17.062  31.539  21.599 -0.4508  0.1044 -0.2220
29838W        W72891  31.490  19.530  26.682  0.3152  0.3733 -0.0736
29839W        W72892  12.707   7.861  19.258  0.0819  0.1050  0.1760
29840W        W72893  31.509  10.703  24.106 -0.0405 -0.1814  0.3540
29841W        W72894  28.737   0.347  26.264  0.0596 -0.1537  0.0265
29842W        W72895  19.470   3.601  16.609 -0.3231  0.1654  0.2544
29843W        W72896   9.207   8.055   8.475 -0.1398  0.0363  0.0395
29844W        W72897  22.542  13.848  15.457 -0.3507 -0.0978 -0.0089
29845W        W72898  25.100   1.328  26.249 -0.3316 -0.1407  0.0140
29846W        W72899  19.591  25.210   2.181  0.1050  0.4346 -0.2615
29847W        W72900  11.927   9.091   1.266 -0.0531  0.2418  0.3751
29848W        W72901  27.137  14.381  18.669 -0.4110  0.0209  0.0685
29849W        W72902   0.900  18.686  24.046  0.1468  0.0879  0.1910
29850W        W72903  25.873  28.130  18.277  0.3568  0.0601 -0.3712
29851W        W72904  22.529  11.258  25.269 -0.1248 -0.3367  0.1633
29852W        W72905  27.452   3.299  20.106 -0.2776 -0.2410  0.2525
29853W        W72906   4.351   4.873   5.998  0.1278 -0.0779 -0.1446
29854W        W72907  31.814  13.674  27.205 -0.0954  0.1715 -0.1119
29855W        W72908   4.752   1.489  17.416 -0.2290  0.0035  0.1874
29856W        W72909  28.244  20.106  18.570  0.1312 -0.1682 -0.0889
29857W        W72910   2.877   5.409  15.668 -0.2462  0.1367 -0.0837
29858W        W72911  15.073   1.375  17.244 -0.0923  0.1743 -0.1879
29859W        W72912  24.533  33.932   5.390 -0.0136  0.3367  0.1037
29860W        W72913  26.459  19.550  21.186 -0.1047  0.0837  0.0025
29861W        W72914  26.319  32.361   0.965 -0.3019 -0.4708  0.1557
29862W        W72915   3.926   2.149  21.752 -0.0733 -0.2840  0.0719
29863W        W72916  23.315  30.349  18.663  0.0145 -0.2669  0.0818
29864W        W72917   2.694  31.716  14.596 -0.1923  0.1859 -0.1133
29865W        W72918  22.584   5.410  16.360  0.2702  0.0413 -0.0264
29866W        W72919  20.440  18.391  21.030  0.3087  0.3457 -0.1819
29867W        W72920   8.418   3.815   8.591  0.2173 -0.0374  0.0281
29868W        W72921  14.502  26.175  19.130 -0.1630 -0.0836  0.3088
29869W        W72922   7.283   5.739  15.833  0.2273  0.0767  0.0642
29870W        W72923  30.824  26.823  25.113  0.0229 -0.1633  0.0818
29871W        W72924  10.519   2.827   0.390  0.1780 -0.1824 -0.0958
29872W        W72925  15.401   8.053  24.119 -0.0521 -0.2932 -0.1300
29873W        W72926   2.702  13.473  17.027  0.2225  0.0157 -0.0051
29874W        W72927  24.361  33.545  23.678 -0.2239  0.0863 -0.1073
29875W        W72928  25.799  31.631  14.073  0.1914 -0.0173  0.1924
29876W        W72929  16.197  17.788  13.527  0.2844 -0.2599  0.0951
29877W        W72930  21.881  27.001   8.953 -0.1371  0.0163 -0.1593
29878W        W72931   4.637  27.091  16.746 -0.4865  0.1571  0.1091
29879W        W72932  28.433   8.282   1.002 -0.2175 -0.1087 -0.0225
29880W        W72933  32.499   2.136  20.510 -0.0962  0.0218  0.1233
29881W        W72934  29.142   3.391   4.335 -0.0824 -0.0824  0.4658
29882W        W72935  12.906  29.234  15.026  0.0801 -0.2895  0.2565
29883W        W72936   3.652  10.868  28.998  0.0039 -0.2929  0.0581
29884W        W72937   1.852  30.153  26.580 -0.0896 -0.3552  0.1398
29885W        W72938   2.460   0.193  22.286 -0.1379  0.1033  0.0600
29886W        W72939  15.383  25.751   6.245 -0.0195  0.1576 -0.0037
29887W        W72940   9.553  28.909  15.973 -0.0074  0.3791  0.0024
29888W        W72941  13.874  26.200  26.128  0.2131 -0.0149 -0.0029
29889W        W72942   2.901  32.516  16.666  0.0821 -0.2126  0.0552
29890W        W72943  22.699  21.579  14.261 -0.2409  0.1135 -0.1414
29891W        W72944   6.071   2.366  28.006 -0.1336 -0.0412  0.0824
29892W        W72945  14.143   8.611  20.254  0.0024 -0.1411  0.0349
29893W        W72946  25.116  11.347  21.302  0.0815  0.3140  0.0221
29894W        W72947  34.553   2.128   3.254 -0.1662 -0.0259 -0.1382
29895W        W72948  17.015  33.174  15.589  0.1296  0.2167  0.1602
29896W        W72949  24.076  34.128   7.991  0.0510 -0.0612 -0.1606
29897W        W72950   0.754   3.193  18.496  0.5642  0.1018 -0.0157
29898W        W72951  21.862   2.328  17.530  0.1244  0.0977 -0.1146
29899W        W72952   1.375   7.701  25.045 -0.3315 -0.2508  0.2177
29900W        W72953   3.343  28.925   4.837 -0.1120  0.1213 -0.0780
29901W        W72954  25.558  16.957  16.324  0.3549 -0.1055 -0.1808
29902W        W72955  16.407  30.692  23.453 -0.1361 -0.2826 -0.0875
29903W        W72956   6.797   6.032  23.983  0.2969  0.0700  0.2293
29904W        W72957   6.620   9.127   7.771 -0.3819 -0.0455  0.1571
29905W        W72958  10.990   3.649   5.439 -0.1174 -0.0420 -0.0673
29906W        W72959   5.960  10.940  21.428  0.1070  0.3585 -0.1366
29907W        W72960  11.760   5.191  23.348  0.0603  0.2058  0.2607
29908W        W72961   1.470   1.522  16.822  0.0500 -0.0445  0.1901
29909W        W72962   4.151   0.753  25.433  0.1172 -0.0217 -0.1880
29910W        W72963  31.708  32.938  23.980  0.0624 -0.0040 -0.2633
29911W        W72964   8.479  32.144  16.525 -0.0694 -0.0988 -0.0349
29912W        W72965  27.582  16.399  17.266  0.1108 -0.3074 -0.0331
29913W        W72966  29.247   2.312   7.017 -0.3027 -0.1873 -0.1063
29914W        W72967  30.126  29.399  22.094 -0.2574 -0.0175  0.0082
29915W        W72968  32.892  23.959  14.001  0.0667 -0.0993  0.2099
29916W        W72969  17.061  19.078  28.217 -0.0751  0.2370 -0.0693
29917W        W72970  33.410  25.864  15.929  0.0090  0.2701  0.0020
29918W        W72971  32.425  26.485  24.341 -0.1578 -0.0980  0.1649
29919W        W72972   7.396   3.061  25.225 -0.0583 -0.0313 -0.2288
29920W        W72973  29.968  31.047  22.873  0.0957  0.3114  0.0221
29921W        W72974  10.475   3.502  20.067  0.1720 -0.0519  0.0440
29922W        W72975   2.804  33.867  15.546  0.1122 -0.2791  0.1097
29923W        W72976  28.937  27.102   3.449 -0.0664 -0.1555 -0.0956
29924W        W72977  32.206  24.367  25.901  0.4839 -0.4568  0.0585
29925W        W72978  30.994  32.186  23.660 -0.1165 -0.0451 -0.2086
29926W        W72979  25.950  30.579  23.696 -0.3391 -0.1627 -0.2402
29927W        W72980  23.011  32.023   0.592  0.0384  0.0653  0.0139
29928W        W72981  21.561   6.631  14.078 -0.0770  0.3042 -0.0769
29929W        W72982   5.769  28.800   6.328  0.1558  0.0556  0.0329
29930W        W72983  31.411  31.847  17.356 -0.0916 -0.0130  0.0509
29931W        W72984   6.815  30.323  26.571  0.1140  0.1931  0.0563
29932W        W72985  28.965   4.431   4.477 -0.0983 -0.1242  0.2481
29933W        W72986  28.374  23.692  24.863  0.3332  0.0025 -0.0401
29934W        W72987   9.833   6.491   5.881  0.0198  0.1398  0.1538
29935W        W72988  26.355  12.107  23.908 -0.2550 -0.1622  0.3253
29936W        W72989  17.393  33.253  25.641 -0.1320  0.1539  0.1459
29937W        W72990  11.702   3.490   6.060 -0.0842  0.1905  0.1272
29938W        W72991   2.683  16.519   8.924 -0.2197  0.0716 -0.1713
29939W        W72992  27.417  22.127  27.253 -0.0822 -0.4412  0.0448
29940W        W72993  31.987   6.028  20.863  0.0060 -0.0964 -0.4975
29941W        W72994  17.989   7.485  27.330  0.1161 -0.1193 -0.0759
29942W        W72995  11.483  26.785  26.851 -0.1484  0.0538  0.0425
29943W        W72996  28.815  28.592   2.957  0.2260  0.0992  0.2151
29944W        W72997  31.203  12.929   8.269  0.0612  0.1374 -0.0248
29945W        W72998  23.422   8.834  27.094  0.2892  0.0401 -0.0287
29946W        W72999   2.713  34.217   2.000  0.2454  0.1244 -0.1802
29947W        W73000   1.140  24.500  19.022  0.2068 -0.0109 -0.2167
29948W        W73001  23.624   8.499  27.441  0.0238  0.3335 -0.1917
29949W        W73002  32.713   1.348  22.484 -0.1758 -0.1283  0.0460
29950W        W73003  27.251  10.037  14.874 -0.1134 -0.0008 -0.1580
29951W        W73004  23.033  23.822   9.473  0.2418 -0.0254 -0.2274
29952W        W73005   7.743   7.279  27.697 -0.3074 -0.1311 -0.3959
29953W        W73006   3.137  33.178   5.897  0.1781 -0.2856 -0.1259
29954W        W73007  16.963  11.524   9.997 -0.1603  0.2911  0.2714
29955W        W73008   1.077   8.472  26.577 -0.1204  0.0901 -0.3875
29956W        W73009  24.488  28.883  21.844 -0.2129  0.0912 -0.0825
29957W        W73010  34.069   0.745   5.422 -0.0060  0.1221 -0.1868
29958W        W73011  17.827  31.482   7.074 -0.0840  0.0015  0.4239
29959W        W73012  20.236  28.262  16.235 -0.0221 -0.0035  0.2381
29960W        W73013  20.882  15.255  24.065 -0.0620  0.3753 -0.1455
29961W        W73014  21.404   8.942   1.973  0.1366  0.0849 -0.1812
29962W        W73015  27.553   5.440   3.859  0.2416  0.0819 -0.1444
29963W        W73016  24.195  33.009  17.911  0.0359 -0.1670 -0.1693
29964W        W73017  24.353   0.708  27.521  0.0165  0.0872  0.0812
29965W        W73018  30.995   6.034  20.699  0.2169  0.0998 -0.0279
29966W        W73019  33.214  12.592   5.003  0.2654  0.2141 -0.0169
29967W        W73020   5.723  19.087  23.336  0.0416  0.0526  0.4548
29968W        W73021  18.367  23.536  20.160 -0.1401 -0.2061  0.3172
29969W        W73022  21.960  30.506   9.902 -0.1706 -0.0880 -0.1416
29970W        W73023  23.413   7.648  15.707  0.3380 -0.1624 -0.1746
29971W        W73024  10.809  32.748   2.147  0.0119 -0.0531  0.1704
29972W        W73025  32.440   2.870  24.916 -0.0530  0.0668 -0.1264
29973W        W73026  26.320  31.612   9.282  0.1914  0.0215 -0.0005
29974W        W73027  31.147   5.766  19.126 -0.0303 -0.1519  0.1675
29975W        W73028  18.766  26.658   2.439 -0.2413 -0.2326 -0.1029
29976W        W73029  26.645  30.069  14.742 -0.1473 -0.0587 -0.1507
29977W        W73030  33.738   8.474   4.535 -0.1621 -0.0957 -0.3578
29978W        W73031  22.677  24.094   6.373 -0.1940  0.1095 -0.0838
29979W        W73032  17.168  27.900   4.983  0.0129  0.1189 -0.0613
29980W        W73033  27.499  29.213  19.576  0.1252 -0.1035 -0.1898
29981W        W73034  21.774  26.605  27.358 -0.1473 -0.0911 -0.1462
29982W        W73035  26.174   6.628   3.273  0.0925 -0.1011  0.0037
29983W        W73036  29.002  32.163   1.751 -0.0069 -0.1976 -0.0538
29984W        W73037  29.348  26.016  26.307 -0.0829  0.0095  0.0990
29985W        W73038   8.228  27.172  23.119 -0.0289 -0.1660  0.3934
29986W        W73039  13.463  25.906   5.093  0.1773  0.0055  0.2432
29987W        W73040  30.559  12.790  25.122  0.0558  0.1706 -0.0519
29988W        W73041   0.884   0.660  15.756 -0.0576  0.1998 -0.3897
29989W        W73042  31.280  32.909   8.616  0.2829 -0.0549  0.1351
29990W        W73043  20.631   4.929   0.388  0.1446 -0.1302  0.1011
29991W        W73044  11.088  27.940   4.199  0.0047  0.0590  0.0335
29992W        W73045  20.144  32.298   5.550 -0.0115  0.1064 -0.3395
29993W        W73046   1.482  25.435   6.752 -0.1726  0.0235 -0.0013
29994W        W73047  25.236  33.098  20.374  0.0603 -0.2753  0.2291
29995W        W73048  29.476  12.436   6.717 -0.0606  0.1609 -0.1118
29996W        W73049  21.223  17.559   2.967  0.0898 -0.0093  0.0067
29997W        W73050  25.166  24.705  17.433  0.2539 -0.1037 -0.0281
29998W        W73051  25.807  12.692   9.999 -0.3672 -0.0965 -0.2687
29999W        W73052  23.302   1.857   0.910 -0.4532  0.1036 -0.0324
30000W        W73053  12.692  32.238  26.744  0.0979  0.2092 -0.0010
30001W        W73054  23.320  29.906  24.261  0.6082 -0.4354  0.0019
30002W        W73055  14.054   5.188  19.670  0.2777  0.2615  0.0373
30003W        W73056   0.355   8.113   3.802 -0.3789 -0.1983  0.1916
30004W        W73057  17.729  34.449  16.130 -0.0424  0.0116 -0.0942
30005W        W73058  12.832  32.586   3.351  0.1832  0.2960  0.2498
30006W        W73059   1.314  32.672  21.062  0.3944 -0.0625 -0.0161
30007W        W73060  30.056   2.611  20.344 -0.2265  0.1769  0.0831
30008W        W73061  18.875  27.269   4.194  0.1245  0.1712  0.2841
30009W        W73062   9.329  28.231   2.772  0.0004 -0.0804  0.0581
30010W        W73063  30.101  33.242   4.356 -0.0908 -0.1149 -0.1395
30011W        W73064   7.626  33.563  17.346  0.2730  0.0784  0.1033
30012W        W73065  29.570   0.868  19.871 -0.1467 -0.0689 -0.0564
30013W        W73066  19.560  24.898   4.021  0.2826  0.1256 -0.0780
30014W        W73067  16.541   1.428  16.743  0.2220 -0.0584 -0.1187
30015W        W73068  27.546  13.183  17.520  0.0951  0.4878 -0.2422
30016W        W73069  23.494   8.451  20.209 -0.4668  0.2877  0.0802
30017W        W73070  19.490   3.556  16.044  0.3607  0.1701 -0.0165
30018W        W73071  17.969   6.264  27.234  0.2737  0.2751  0.2109
30019W        W73072  29.211  24.213  24.863 -0.0060  0.0654  0.2536
30020W        W73073   2.174  16.472  19.760  0.2530 -0.2553 -0.2477
30021W        W73074  11.097  34.455  14.551 -0.2979  0.1590  0.1211
30022W        W73075  28.519   0.904  29.129  0.0470  0.2778 -0.3422
30023W        W73076   3.392  24.367   5.923  0.2013 -0.0641  0.0910
30024W        W73077   6.132  28.169  24.166  0.1067  0.0572  0.1318
30025W        W73078   1.751  21.364   4.946 -0.0522 -0.1110  0.3070
30026W        W73079  10.792  22.078  19.759  0.1057 -0.0641  0.0933
30027W        W73080  10.767  27.498   4.117  0.1966  0.0823 -0.1206
30028W        W73081  26.363  11.560   1.656  0.1366 -0.0769  0.1206
30029W        W73082  25.205  26.310  22.081 -0.1230  0.0382 -0.0223
30030W        W73083  18.972  23.399  26.482 -0.1107 -0.0654 -0.2736
30031W        W73084  33.156   1.415   7.162  0.2665  0.0265  0.0233
30032W        W73085   5.071   7.962  21.096  0.1985  0.0542  0.0456
30033W        W73086  30.715   6.729   6.552  0.5025  0.0141  0.0607
30034W        W73087   0.525  14.169   8.292 -0.0128 -0.0933  0.2311
30035W        W73088  12.437   9.776  18.729  0.2127 -0.0174 -0.1711
30036W        W73089  22.825  15.852  20.970  0.0741  0.3284  0.0995
30037W        W73090   1.338  33.472  27.880  0.3021 -0.0314 -0.0123
30038W        W73091  26.795   5.558  26.490 -0.0446 -0.0361  0.3626
30039W        W73092  29.414  33.849  14.194 -0.1287  0.1187 -0.2621
30040W        W73093  28.175   9.130   1.534 -0.0605 -0.0215  0.0989
30041W        W73094   4.366  25.181  21.146 -0.1781 -0.0871  0.0222
30042W        W73095  24.438  24.998  24.498  0.2401 -0.2283 -0.3472
30043W        W73096  26.879  14.201  24.711 -0.2427 -0.0094  0.0650
30044W        W73097  20.914   6.618  27.928 -0.1446  0.0790 -0.2220
30045W        W73098  28.002  17.211   5.065  0.4203 -0.2085  0.2061
30046W        W73099  12.215  24.312  20.275  0.1480 -0.1649 -0.0727
30047W        W73100  33.559   6.557  22.396  0.4167 -0.4169  0.2538
30048W        W73101  10.627  34.123  23.472 -0.0734 -0.1679  0.0323
30049W        W73102  18.266  24.927  21.748 -0.0172  0.1248  0.0740
30050W        W73103  18.932  30.057  15.663 -0.2396  0.2424 -0.2982
30051W        W73104  28.950   1.156  28.975  0.0018 -0.0428 -0.3748
30052W        W73105   2.441   0.219  15.670 -0.2088  0.1786 -0.0219
30053W        W73106  11.174  25.857   4.988 -0.0396 -0.1307  0.2090
30054W        W73107  22.270  17.266  26.401 -0.3586 -0.1960  0.2535
30055W        W73108  21.047   6.642  20.814 -0.2253 -0.1819 -0.1086
30056W        W73109  25.804  13.212  26.421 -0.3114 -0.0322 -0.3124
30057W        W73110  33.924   3.313   1.788 -0.1394  0.0037 -0.3235
30058W        W73111  33.789   9.766   4.561  0.0089 -0.3239  0.0380
30059W        W73112  24.012  13.988  24.491 -0.1492 -0.1576  0.0453
30060W        W73113  27.921  29.221   0.548 -0.0835 -0.1199 -0.2907
30061W        W73114  11.204  30.906  23.297  0.1788  0.4075  0.2638
30062W        W73115   7.023  24.566   0.028 -0.3420  0.0947 -0.1093
30063W        W73116   4.341  12.615   2.641  0.2625 -0.1724  0.1133
30064W        W73117  20.657  17.343   0.817  0.2865 -0.4938  0.0534
30065W        W73118  26.467  30.506   2.663  0.0324 -0.1540  0.1343
30066W        W73119   6.864   1.967   4.174 -0.1618  0.2759  0.1190
30067W        W73120  18.303  16.661   5.351  0.2096 -0.1020 -0.0308
30068W        W73121  18.899   1.644  15.022 -0.2266 -0.0612 -0.1386
30069W        W73122  20.689  10.268   2.514 -0.0413 -0.0423  0.0277
30070W        W73123  16.935   2.811   9.624  0.0078 -0.0135 -0.0239
30071W        W73124  14.300  12.404   6.358 -0.1531  0.1722 -0.0095
30072W        W73125  26.134  27.993  21.315  0.1545 -0.0566 -0.0289
30073W        W73126  21.636   4.956   0.209  0.1211 -0.0940  0.1247
30074W        W73127  27.706  14.316  27.189  0.1503 -0.0791 -0.0526
30075W        W73128   9.158  10.513  29.107  0.2822  0.1852  0.0561
30076W        W73129  20.814  31.511   6.267 -0.4791 -0.1562  0.0828
30077W        W73130  17.765   7.930  26.014 -0.1316  0.1095  0.2722
30078W        W73131  24.511  29.248  28.942  0.1232 -0.0333 -0.1373
30079W        W73132  28.086  27.999   5.963  0.1119 -0.1893 -0.2856
30080W        W73133  20.865  16.124  22.542 -0.2857  0.1438 -0.0385
30081W        W73134  26.022  34.463  15.677 -0.0314  0.0302 -0.1557
30082W        W73135  22.326  31.822   6.358  0.0174 -0.1036 -0.1347
30083W        W73136   4.149   5.855   0.570 -0.0896 -0.2915 -0.0159
30084W        W73137   8.741   0.219  15.619  0.1014  0.0718 -0.1637
30085W        W73138  20.345  19.285  29.125  0.1693 -0.1811 -0.0191
30086W        W73139  32.492   4.169  22.606 -0.0612  0.1910  0.0903
30087W        W73140  22.751   1.790  23.855  0.1465 -0.1613  0.4593
30088W        W73141  11.605  33.820  28.571  0.1306 -0.4136 -0.4828
30089W        W73142  33.308   4.827  15.643 -0.1324  0.0878 -0.2896
30090W        W73143  24.773  14.667  28.291 -0.1172 -0.1784  0.3077
30091W        W73144  22.705   2.329  23.317  0.1330  0.1303 -0.0835
30092W        W73145  24.073   2.821  17.221 -0.2236 -0.0525 -0.0489
30093W        W73146   3.103  30.871   4.427 -0.0047  0.1713  0.1182
30094W        W73147   3.627  29.567  21.146 -0.0809 -0.5982 -0.0686
30095W        W73148  33.781  33.437   8.022  0.1549 -0.0595  0.0800
30096W        W73149   2.509   3.601   5.811 -0.0912 -0.1537 -0.1428
30097W        W73150  27.293  33.073   7.937  0.0250  0.2360  0.0432
30098W        W73151  15.714  22.219  28.119  0.2569  0.0605 -0.0064
30099W        W73152  26.391  32.050   5.954  0.0150  0.0260 -0.0644
30100W        W73153  18.283   2.066  29.063 -0.0579 -0.1780  0.2522
30101W        W73154  30.617  34.388  21.222  0.1245 -0.0680  0.2566
30102W        W73155  11.936   3.217  21.679 -0.1136  0.0912  0.3531
30103W        W73156  30.740  33.445  18.152 -0.0268  0.2822 -0.1057
30104W        W73157  21.303  14.775   4.209 -0.0990  0.0062 -0.0227
30105W        W73158  21.602   2.663   9.239 -0.3076 -0.0246  0.1090
30106W        W73159  11.087   1.214  22.495 -0.1560 -0.3522  0.3743
30107W        W73160  23.549   6.030  26.096 -0.2271 -0.0475  0.1634
30108W        W73161   3.855  25.944   7.622 -0.0436 -0.3692 -0.1670
30109W        W73162  26.018   7.399  27.383 -0.2752 -0.0798  0.0667
30110W        W73163   4.849   3.936  17.724 -0.1101 -0.0576  0.1247
30111W        W73164  30.575   0.373   7.234 -0.0888  0.0960  0.2346
30112W        W73165  33.919  10.407  19.433 -0.0951  0.1346 -0.1364
30113W        W73166  20.825  11.379  27.217 -0.1972 -0.2434  0.1199
30114W        W73167  30.265  10.053  21.035 -0.0014  0.1040 -0.2539
30115W        W73168  25.889  17.479  22.156 -0.1583 -0.0338 -0.1632
30116W        W73169   9.668   9.783   7.902  0.2977 -0.0052 -0.0818
30117W        W73170  33.738   0.418  20.735 -0.0307  0.0602 -0.1794
30118W        W73171  29.895  29.190  25.642 -0.1182  0.0252  0.0122
30119W        W73172  31.214   2.351  15.841 -0.1816  0.1713  0.3210
30120W        W73173  24.722  17.081  29.197  0.3270  0.0573 -0.2157
30121W        W73174  24.562  14.349   6.894  0.2846  0.3164  0.3852
30122W        W73175  24.505  33.271   8.255  0.0668 -0.0295 -0.0926
30123W        W73176  24.095  33.710   5.530 -0.1550  0.1120 -0.3089
30124W        W73177  25.663   1.374  19.499 -0.0437  0.0315 -0.2771
30125W        W73178   1.419   2.939  16.981 -0.1689  0.0728 -0.2025
30126W        W73179   8.380  32.865  25.809 -0.2099 -0.2431 -0.3483
30127W        W73180  27.305  29.276   4.895  0.0125  0.0420  0.0215
30128W        W73181   8.346   0.165   0.572  0.1877 -0.0500  0.5494
30129W        W73182  31.623  30.788  28.657 -0.0107 -0.0821  0.0798
30130W        W73183  27.927  10.186   2.970  0.3709  0.0195 -0.0746
30131W        W73184  25.846  31.697   9.061  0.1240  0.0842 -0.0814
30132W        W73185   6.474  10.563   2.685  0.2550  0.1927 -0.0070
30133W        W73186  31.501  22.450  24.370 -0.0717  0.2035  0.2044
30134W        W73187   0.178  14.999   4.051 -0.1123 -0.0531 -0.0155
30135W        W73188  27.246  24.694  19.603 -0.4013 -0.0666 -0.1471
30136W        W73189  33.602  18.999  15.634 -0.0304  0.3035  0.4520
30137W        W73190   6.866  20.408   5.252  0.3533  0.0387 -0.1034
30138W        W73191  29.981  24.812  17.216 -0.0174  0.0808 -0.0107
30139W        W73192  25.296  29.752  21.771 -0.1543  0.2453  0.1476
30140W        W73193   2.389   2.805  17.084  0.0682  0.1136  0.1453
30141W        W73194  25.387  31.406   5.747  0.1081  0.0466 -0.0667
30142W        W73195  21.388  11.238  24.784  0.3008  0.0662  0.0167
30143W        W73196   1.986   2.070   7.933  0.1713  0.2148  0.1016
30144W        W73197  16.724   5.062   5.966  0.0470  0.0637 -0.1474
30145W        W73198  22.138  20.109  14.053  0.1208  0.5611  0.4008
30146W        W73199  11.887   9.078   4.841  0.2677 -0.2168 -0.3213
30147W        W73200  32.221   1.649  19.808 -0.1029 -0.1353 -0.3892
30148W        W73201  23.114  18.673   8.751 -0.0365  0.0050  0.0710
30149W        W73202  33.710  33.816   5.146  0.2931  0.4333  0.2734
30150W        W73203  28.348  29.395  28.886 -0.2351  0.0470 -0.0468
30151W        W73204   9.413  30.942   4.597  0.0011  0.1406  0.0947
30152W        W73205   2.267  18.730  19.517  0.1996 -0.1345  0.1487
30153W        W73206  24.303   5.560   8.992  0.0920  0.0775 -0.1553
30154W        W73207  13.496  32.136   5.094 -0.4169 -0.0292 -0.3503
30155W        W73208   7.007  28.558  20.354 -0.0260 -0.2173  0.0417
30156W        W73209  28.713  32.865   2.036  0.1332  0.1127  0.1045
30157W        W73210  31.210  18.545  19.406 -0.1580  0.0518 -0.1716
30158W        W73211  32.406   3.274  20.945 -0.2601  0.2468  0.1409
30159W        W73212  34.609   8.524  21.941  0.2757 -0.0642 -0.5216
30160W        W73213   5.822  33.810   3.728  0.2868 -0.0979 -0.0413
30161W        W73214  18.140   0.929   9.253 -0.0009 -0.4083  0.0614
30162W        W73215  24.959  32.024   1.504  0.3576  0.1582 -0.0843
30163W        W73216  20.210  19.994  20.496  0.1035  0.1032 -0.1262
30164W        W73217  24.104   1.457   5.742  0.1712 -0.1805 -0.1731
30165W        W73218  22.441  17.658   9.905 -0.2103 -0.0196  0.0962
30166W        W73219  31.815   0.677   0.076 -0.1451  0.2352 -0.0036
30167W        W73220   8.701   4.297   5.578 -0.0159  0.3893  0.2424
30168W        W73221  15.103  25.789  24.491  0.0764 -0.2977 -0.3700
30169W        W73222  15.739   0.196  10.454 -0.0366 -0.0055 -0.0550
30170W        W73223  22.341   5.776  27.875 -0.0401 -0.0488  0.0629
30171W        W73224  20.810   3.165   3.188  0.1316  0.1422  0.0521
30172W        W73225   0.467  25.343  18.303  0.1385  0.0982  0.0870
30173W        W73226  25.840  17.220  21.426  0.0700  0.0786 -0.2242
30174W        W73227  30.711   8.479   2.786 -0.3077 -0.3458 -0.1749
30175W        W73228  29.387   6.023   4.798  0.3740 -0.4588  0.3201
30176W        W73229  11.863  34.014  20.783  0.0705 -0.3387 -0.2262
30177W        W73230   4.441  31.981   4.415 -0.0752 -0.0623 -0.2247
30178W        W73231  25.809   8.847   8.021 -0.0734 -0.3851 -0.0117
30179W        W73232   2.961   1.677  19.446 -0.1548 -0.1405 -0.1330
30180W        W73233  34.610   1.825   4.808 -0.0060  0.2198  0.1063
30181W        W73234  29.270  28.875  16.597 -0.0732 -0.1618  0.1016
30182W        W73235  31.016  32.150  21.932  0.0078 -0.1012  0.0318
30183W        W73236  17.098  27.173   2.253 -0.1041  0.0608  0.3206
30184W        W73237  28.742  11.943   7.104 -0.3113 -0.3694  0.0766
30185W        W73238   2.025   9.679   8.334  0.2954  0.0204 -0.0914
30186W        W73239  26.486  16.049  18.898 -0.1985 -0.2742  0.1498
30187W        W73240   0.915  25.371  16.455 -0.0081 -0.4267 -0.1184
30188W        W73241  21.246  34.337  22.444  0.3703 -0.2784 -0.0239
30189W        W73242  28.830  31.163  16.521  0.2009 -0.0960  0.0665
30190W        W73243  27.378   8.876  17.384 -0.1205  0.0806 -0.1808
30191W        W73244   2.114  26.559  25.489 -0.2687 -0.0933  0.2395
30192W        W73245   0.073  20.796  17.792 -0.1683  0.1863  0.1283
30193W        W73246  25.692  29.467  24.317  0.1540  0.1957  0.3646
30194W        W73247  13.770   4.411  19.416  0.0383  0.0332 -0.1024
30195W        W73248  15.434   1.774  16.061  0.0105 -0.1924  0.0637
30196W        W73249  23.204  32.863  14.385 -0.3245  0.0651 -0.1222
30197W        W73250  32.221  31.964  28.882 -0.2977  0.2057  0.0641
30198W        W73251   0.195   0.966  23.119  0.1198  0.2522  0.2085
30199W        W73252  22.127  30.838  18.292 -0.0139 -0.0438 -0.1872
30200W        W73253  34.299  11.957  22.670 -0.4842  0.1549 -0.1340
30201W        W73254  11.120   5.146  19.767 -0.0673  0.3130  0.0691
30202W        W73255  10.290  30.140  18.974  0.2081  0.1253  0.4045
30203W        W73256  21.003   6.574  13.948 -0.2039 -0.1304 -0.1795
30204W        W73257  33.501  21.809  22.329 -0.0528  0.4212  0.1728
30205W        W73258  18.609   9.780  25.039  0.0182 -0.0255  0.1632
30206W        W73259   0.627  10.358  27.652 -0.0158 -0.2433  0.1166
30207W        W73260  20.776  10.913  20.108  0.2788 -0.0678 -0.4164
30208W        W73261  23.451  13.873   1.682 -0.1734  0.3231 -0.0436
30209W        W73262  30.530   7.826  18.291  0.0712  0.1011 -0.1547
30210W        W73263  21.365   5.326  19.487 -0.1811  0.0817 -0.0571
30211W        W73264  23.382  19.084  21.461  0.5081  0.0354 -0.1031
30212W        W73265   2.385  34.036  25.064  0.1259  0.1612 -0.3384
30213W        W73266   5.982   4.440  17.565 -0.0241 -0.1129  0.0547
30214W        W73267  30.470  31.586  13.578 -0.2466 -0.2094  0.0284
30215W        W73268   6.135  31.052  17.919  0.0214 -0.2006  0.7250
30216W        W73269  28.558  31.723  17.999  0.1011 -0.4349 -0.1096
30217W        W73270   5.988   1.334  17.865 -0.1980 -0.0607 -0.1994
30218W        W73271   4.076   7.288  28.657  0.0171 -0.2551  0.2344
30219W        W73272  33.044   4.920  26.072  0.0933 -0.4368  0.0437
30220W        W73273  29.159   9.654  15.738  0.2106 -0.1002  0.0166
30221W        W73274   2.495   4.092  16.892  0.1707 -0.1856  0.1148
30222W        W73275  23.327  32.853  28.021 -0.0985 -0.0496  0.0550
30223W        W73276  17.089  33.628  22.321 -0.1030  0.1206 -0.3086
30224W        W73277  32.467   6.703  14.196 -0.2471  0.1190 -0.0878
30225W        W73278   3.608  13.248  17.183 -0.1186  0.0717  0.2068
30226W        W73279   5.722   4.783  16.658 -0.3068  0.0793  0.1651
30227W        W73280  10.554   7.143   4.564 -0.2295  0.2542  0.2805
30228W        W73281  30.665   5.744  17.475 -0.3248  0.2581 -0.0169
30229W        W73282  31.341  18.914  27.389  0.3105  0.1730 -0.2951
30230W        W73283  13.823  23.553  20.215 -0.3586 -0.0731 -0.0551
30231W        W73284   5.459   3.830  21.244 -0.0268 -0.3232 -0.3548
30232W        W73285   0.860   3.334  23.032  0.0523  0.0505  0.0921
30233W        W73286  24.732  30.972  18.027 -0.0926 -0.2120  0.2821
30234W        W73287   0.901  34.542  18.901  0.0364 -0.0998 -0.0194
30235W        W73288  26.956  17.962  23.417  0.1927  0.1004 -0.2727
30236W        W73289  27.931  15.116  15.829 -0.1052 -0.3541  0.1372
30237W        W73290   1.846   1.543  15.430  0.1918  0.0116  0.4600
30238W        W73291  14.066   2.452  28.423 -0.2565  0.1332 -0.1544
30239W        W73292   8.335  26.478  15.028 -0.0558  0.3396  0.1020
30240W        W73293   0.892  20.334  17.397 -0.2457 -0.1011  0.1762
30241W        W73294  19.172  28.308  14.592 -0.4851 -0.3072  0.2056
30242W        W73295  23.848   4.276  27.157  0.0607  0.1837 -0.2395
30243W        W73296  30.927  34.253  26.576  0.1044 -0.0090  0.2575
30244W        W73297  29.579  11.019   9.274  0.0216  0.1273 -0.0170
30245W        W73298  18.992  30.856   2.621 -0.1237  0.1364 -0.1317
30246W        W73299  20.276   3.544   0.994  0.1079  0.2211 -0.3749
30247W        W73300  21.548   5.406  15.972 -0.3100  0.0463  0.1306
30248W        W73301   2.763   1.927  16.713  0.1779  0.1019 -0.2654
30249W        W73302  28.629   3.893  26.559 -0.3762  0.2028  0.1658
30250W        W73303   8.744  31.853  26.865  0.2599  0.0641  0.2748
30251W        W73304  34.065  32.676  21.372 -0.0766 -0.2044  0.2166
30252W        W73305  22.736  22.806   3.047 -0.0703 -0.0090 -0.4877
30253W        W73306  28.771   3.350  22.301 -0.2488  0.1305  0.2954
30254W        W73307   8.655   5.253   9.669 -0.1941  0.0433  0.0142
30255W        W73308   8.380   3.149  26.588  0.0390 -0.1606 -0.0685
30256W        W73309   5.596   8.289   1.530  0.0364  0.0795  0.0815
30257W        W73310  21.181  24.288  19.845 -0.1449 -0.1659  0.2933
30258W        W73311  25.783   4.449   0.426  0.2654 -0.0467  0.3731
30259W        W73312  16.968   8.753  16.461  0.1574  0.0621  0.1477
30260W        W73313  10.357   4.960  24.096  0.0949  0.3694  0.2768
30261W        W73314  28.125   5.487  28.537  0.1580 -0.0887 -0.0239
30262W        W73315  30.133   2.258  21.229 -0.2094  0.0119  0.0848
30263W        W73316  33.250  32.005  17.602  0.1164 -0.1494  0.0019
30264W        W73317  25.290   9.215   3.652 -0.1944 -0.0294 -0.1554
30265W        W73318   1.011  18.863  23.571  0.1116 -0.1584  0.1058
30266W        W73319   7.713   6.260  16.702 -0.1408 -0.0867  0.0681
30267W        W73320  12.246   6.274  14.610 -0.0271  0.1029  0.0752
30268W        W73321  21.084  15.741  26.589  0.0543  0.1447  0.0493
30269W        W73322  30.602  33.174  18.652 -0.1116  0.3185 -0.0024
30270W        W73323   0.213   4.322  18.686  0.3674 -0.2284  0.0360
30271W        W73324   5.604  32.968  13.021  0.1200  0.4375 -0.0910
30272W        W73325  27.836  29.927  24.553 -0.3777 -0.1800  0.1613
30273W        W73326   4.087   1.293  19.492  0.0866 -0.0946  0.1308
30274W        W73327  31.588   0.114  21.138 -0.1374 -0.2657 -0.2490
30275W        W73328  32.190  30.676  15.085 -0.1810  0.2136 -0.1186
30276W        W73329  29.425   1.150  14.162 -0.3269  0.1101  0.0536
30277W        W73330  26.052   2.962  19.932  0.1020 -0.2206 -0.5973
30278W        W73331  34.019   3.822   2.482 -0.0084 -0.4186 -0.0023
30279W        W73332  28.207   5.309  22.121  0.2430  0.1577  0.0647
30280W        W73333  33.850   1.229  20.675 -0.2315 -0.2503 -0.1352
30281W        W73334  23.560  30.317  15.184  0.3484  0.0118  0.0334
30282W        W73335  22.255  31.299  14.915 -0.1428  0.1699 -0.4618
30283W        W73336  28.812  15.305  18.902  0.0246 -0.0464 -0.1243
30284W        W73337  32.059  11.596  23.611 -0.1122 -0.0361  0.0293
30285W        W73338  30.708  29.370  22.823 -0.2086  0.0227  0.0712
30286W        W73339  30.179  10.800   0.557 -0.1296 -0.1171  0.0317
30287W        W73340  23.327   6.151  19.825  0.2517 -0.2184 -0.0255
30288W        W73341  13.171   2.057  19.093 -0.2790  0.0938  0.0550
30289W        W73342   7.293   6.739  19.603 -0.1096  0.1985  0.2075
30290W        W73343  31.771  32.455  16.214 -0.1541  0.3443  0.0198
30291W        W73344  27.721  13.012   4.126  0.0253  0.2884  0.2026
30292W        W73345  29.127  27.451  17.694  0.1591 -0.2575 -0.2276
30293W        W73346   7.890   0.693  23.594 -0.2475 -0.0033  0.1076
30294W        W73347  31.594  33.563  15.791  0.0307 -0.0758 -0.0045
30295W        W73348  24.199  13.530  16.355 -0.0788 -0.0050  0.2042
30296W        W73349   5.061   1.858  17.251 -0.0664 -0.0820  0.2288
30297W        W73350  30.896  25.069  15.497  0.1091  0.4495 -0.0734
30298W        W73351   3.427  18.177  21.751  0.2273  0.3228  0.0499
30299W        W73352   1.745  22.796  29.170  0.1888  0.1622 -0.0349
30300W        W73353  10.274  29.392  15.309  0.0500 -0.1382  0.0311
30301W        W73354  21.777  12.360  24.086  0.0341 -0.1182  0.1983
30302W        W73355  29.583  34.348  16.408  0.0032 -0.2971 -0.0331
30303W        W73356  32.909  11.518  18.907  0.1757  0.1958 -0.0496
30304W        W73357  24.396  25.093   1.462 -0.0019  0.4287  0.2138
30305W        W73358   2.062   9.808  17.023 -0.0306 -0.2470  0.0417
30306W        W73359  31.203  33.288   0.934  0.1245 -0.6019 -0.2537
30307W        W73360  30.870   2.374  18.064 -0.1871  0.2041  0.1489
30308W        W73361  26.361   3.357  14.454 -0.2393 -0.0982  0.3201
30309W        W73362  23.153  22.914   2.791  0.2712  0.0829 -0.3380
30310W        W73363  12.376   8.487  20.145 -0.1521 -0.2655 -0.0498
30311W        W73364   8.335   6.214  28.364 -0.1950 -0.0595  0.4524
30312W        W73365  30.844  28.572  16.510  0.0741  0.0663 -0.0763
30313W        W73366  33.250  11.637  14.216 -0.0745  0.0994 -0.2625
30314W        W73367  22.815  14.232  21.449 -0.0353 -0.0845  0.3303
30315W        W73368  30.198   6.123   2.448  0.0632  0.3782  0.1873
30316W        W73369  16.033   7.888   0.692  0.1238  0.0120  0.2387
30317W        W73370  31.950   7.613  16.017 -0.1512 -0.3869  0.0382
30318W        W73371   7.298   8.005   0.484 -0.1764  0.1590 -0.1781
30319W        W73372  19.381  29.943   2.353  0.4362 -0.1201 -0.1157
30320W        W73373   0.994  26.639  18.223  0.2886  0.0083 -0.0668
30321W        W73374  34.615   5.910   1.418  0.1338  0.2063 -0.1677
30322W        W73375   5.173  31.182  26.535 -0.1399  0.2331  0.2289
30323W        W73376   5.349  32.177  13.540 -0.1649 -0.1089  0.1484
30324W        W73377  27.587  26.894  14.239  0.3882 -0.2207 -0.1722
30325W        W73378  29.250   1.496   4.568  0.1712  0.0320 -0.1000
30326W        W73379   1.911  31.368  18.265 -0.0890  0.0118 -0.0254
30327W        W73380   9.348   6.983  15.237 -0.0856  0.1532 -0.1171
30328W        W73381  19.665  25.938  19.993  0.1298 -0.3193  0.1801
30329W        W73382  19.104  28.236  23.216 -0.1587  0.3003  0.2738
30330W        W73383  24.113   6.696  20.031 -0.0940 -0.0998 -0.0022
30331W        W73384  15.627  29.760  13.919 -0.0516 -0.1740 -0.1579
30332W        W73385  11.132  25.726   0.066 -0.0146  0.1110  0.4690
30333W        W73386  29.377  34.494  28.526  0.0196 -0.0221 -0.2289
30334W        W73387  31.685  30.559  25.073  0.2116  0.0534  0.2291
30335W        W73388  31.469  10.455  15.237  0.4030  0.1211 -0.3562
30336W        W73389  14.211   7.333  14.465 -0.0843  0.0550 -0.0649
30337W        W73390  17.684  26.879  19.613 -0.0050  0.0132 -0.0451
30338W        W73391   8.559  32.399  26.703  0.2332  0.0377 -0.0030
30339W        W73392   8.676  34.112  18.999 -0.1321 -0.2358  0.0900
30340W        W73393   0.849  20.489  24.785 -0.0359  0.0949 -0.0180
30341W        W73394  20.087  10.819  21.131  0.1818 -0.2226 -0.3753
30342W        W73395   1.678  30.835  13.888  0.1045 -0.1874  0.0329
30343W        W73396   7.330   3.123  16.567  0.1874 -0.1640  0.3176
30344W        W73397  33.637  17.780  15.484  0.0331 -0.2369 -0.1719
30345W        W73398  14.144  26.571   1.496  0.1596  0.1917  0.0249
30346W        W73399  33.158  10.600  15.494  0.1894  0.2448 -0.3134
30347W        W73400  26.780   9.344  19.031  0.3289 -0.0773 -0.2345
30348W        W73401  11.761  19.536  20.108 -0.5979 -0.3376 -0.1718
30349W        W73402  18.596  26.831  16.225 -0.1129  0.1065  0.0395
30350W        W73403   5.646   2.387  28.997  0.0395 -0.0477 -0.2034
30351W        W73404  12.442  18.026   3.205  0.1469 -0.3364 -0.2449
30352W        W73405   6.092  29.569  19.631 -0.0566 -0.1237 -0.1612
30353W        W73406  18.465   6.667   0.051  0.0249  0.0509 -0.0032
30354W        W73407  23.426  34.470  18.735  0.0506 -0.0461 -0.1802
30355W        W73408  34.303  33.109  27.423  0.3289 -0.4577 -0.0806
30356W        W73409  28.933  17.873  15.780  0.1141 -0.1941 -0.2455
30357W        W73410  33.543   5.506  17.437  0.0798  0.4507 -0.1672
30358W        W73411   2.354  25.653  22.882  0.2585 -0.1908 -0.3776
30359W        W73412  29.676   6.145  29.019  0.2496 -0.1596 -0.0871
30360W        W73413  24.189  15.835  18.383 -0.2154 -0.2782 -0.1837
30361W        W73414  11.550   1.188  21.491  0.2888  0.2681  0.3224
30362W        W73415  29.201   6.423  17.722  0.1982  0.2040  0.0303
30363W        W73416   3.531  34.533  20.946 -0.3114 -0.2136  0.3788
30364W        W73417  23.029  26.905  19.462 -0.0090  0.0179  0.0889
30365W        W73418  29.455   0.412  22.171 -0.1054 -0.1911  0.1603
30366W        W73419  28.101  18.399  14.026  0.1169  0.1123  0.0414
30367W        W73420  31.680  28.283  21.356 -0.0930 -0.0500 -0.0921
30368W        W73421   8.766   0.014  17.556 -0.0563 -0.1305  0.1247
30369W        W73422  30.194  20.272  14.826  0.0753 -0.0422  0.5571
30370W        W73423  25.500   3.458  26.997 -0.0754 -0.0700  0.2879
30371W        W73424  29.559  19.601   2.491  0.1047 -0.0457 -0.0434
30372W        W73425   2.385   0.959  16.084  0.1050  0.3309 -0.3576
30373W        W73426  33.761  33.165  20.087  0.4900  0.0564 -0.1729
30374W        W73427  27.615  21.271  18.275  0.1743  0.0378 -0.0824
30375W        W73428  34.565  26.149  17.393 -0.0478  0.3007 -0.0042
30376W        W73429   4.169  27.739  16.238 -0.1124  0.1858 -0.1719
30377W        W73430  24.612  16.073  20.115  0.0888 -0.1619 -0.2818
30378W        W73431  31.927  18.508  24.114 -0.1460  0.0916 -0.1537
30379W        W73432   4.519  32.121  13.480  0.1035  0.0469  0.2631
30380W        W73433  22.328   4.078  14.649 -0.0613  0.0922  0.0929
30381W        W73434   1.594  15.438  24.197  0.1966 -0.2249  0.2227
30382W        W73435  31.183   1.961  20.437 -0.1691  0.0204 -0.0845
30383W        W73436   1.681   2.355  14.951 -0.0435 -0.0811  0.1594
30384W        W73437  22.016   5.598  19.280  0.2597 -0.4939  0.0968
30385W        W73438  17.763   8.687  16.998  0.0305  0.0880 -0.2268
30386W        W73439  25.982   7.295  20.608  0.2024 -0.2880 -0.2317
30387W        W73440  31.334  15.403  18.951  0.0303 -0.4333  0.0328
30388W        W73441  33.775  30.578  19.948  0.6046 -0.1705  0.2515
30389W        W73442  26.753  19.546  19.916  0.1067  0.0001 -0.1126
30390W        W73443   8.154   3.727  16.323 -0.1663 -0.0659 -0.1868
30391W        W73444   6.963   2.069  28.889  0.0183 -0.1846 -0.0801
30392W        W73445  28.802  10.912  24.785 -0.1341  0.0168  0.0991
30393W        W73446   2.432  12.025   0.208  0.0552 -0.2285 -0.0737
30394W        W73447  31.614  13.218  23.853 -0.0449 -0.2784 -0.4197
30395W        W73448  22.576   2.582   0.134 -0.0607  0.0763 -0.1304
30396W        W73449   5.489  25.805  20.631 -0.1978 -0.0980 -0.1789
30397W        W73450  18.220   7.992  19.180 -0.0808 -0.2238  0.0295
30398W        W73451  34.033   5.299  20.513  0.1210  0.1962 -0.3641
30399W        W73452  14.199  31.611  15.557  0.1285 -0.2464  0.2163
30400W        W73453   7.534   9.291  19.631  0.2314  0.2489 -0.0192
30401W        W73454  32.239   2.256  16.606 -0.2680 -0.1367 -0.1619
30402W        W73455  12.570   0.697  19.216  0.2417 -0.1770  0.0496
30403W        W73456  34.384  34.256  16.236 -0.0405 -0.0866  0.2112
30404W        W73457  19.730  23.681  23.252 -0.1625 -0.1562  0.1990
30405W        W73458  28.292  26.192  18.035  0.0214 -0.0352 -0.0785
30406W        W73459  32.259  33.383  16.667  0.3944 -0.0578  0.4037
30407W        W73460  24.814  30.229  19.175  0.1045 -0.0789 -0.0313
30408W        W73461  34.199  14.777  17.277  0.5339 -0.4078  0.0853
30409W        W73462  23.633   9.015  28.541  0.2909  0.1760  0.2381
30410W        W73463  27.879  25.640  19.144 -0.2855  0.1345 -0.0195
30411W        W73464  28.636   3.101  20.886  0.2140 -0.2005  0.1563
30412W        W73465  23.812   4.461  18.577 -0.0097 -0.1197  0.0011
30413W        W73466  29.480  12.872  16.180 -0.2011  0.2167  0.4090
30414W        W73467   0.947  29.095  24.116 -0.0590  0.0394  0.0203
30415W        W73468  26.778  14.782   2.295  0.2174 -0.0031 -0.0121
30416W        W73469   9.696  20.743  16.506 -0.3123  0.1672 -0.2839
30417W        W73470   6.276   4.900  17.526 -0.0677  0.1456  0.2822
30418W        W73471   0.067   1.029  14.397  0.2132  0.0330  0.1538
30419W        W73472   7.651  33.988  23.763 -0.0532  0.1189  0.1998
30420W        W73473   2.291  31.016  19.836  0.0866  0.0400  0.0714
30421W        W73474  28.660  31.046  19.174 -0.0517 -0.1931 -0.1816
30422W        W73475   4.204  31.278  22.765 -0.0086 -0.2340 -0.2928
30423W        W73476   3.720  19.731  25.851  0.0142  0.1447  0.4683
30424W        W73477  16.988  26.559  21.626  0.3464  0.0146 -0.0017
30425W        W73478   6.494   3.994  20.404 -0.0084  0.2714 -0.2909
30426W        W73479   0.163  12.762   4.122  0.1150  0.0802  0.0654
30427W        W73480  26.497   5.879   0.933 -0.4936  0.2784  0.0623
30428W        W73481  28.674   3.709  23.707 -0.1440  0.1065 -0.0796
30429W        W73482  33.506   0.936  24.005  0.1026 -0.3978 -0.0376
30430W        W73483  26.843  29.532  17.011 -0.0614 -0.2769  0.0988
30431W        W73484  29.303  10.419  21.068 -0.2893 -0.1528  0.2792
30432W        W73485   2.296  10.462   3.036 -0.0190  0.2190  0.0427
30433W        W73486   1.321   3.273  21.065 -0.0723  0.0702  0.1702
30434W        W73487   4.312   3.219  13.355  0.0358 -0.1637  0.1876
30435W        W73488  24.662   2.163  17.087 -0.1161  0.2423 -0.0749
30436W        W73489   4.402  32.697  21.625  0.1770 -0.0200 -0.1811
30437W        W73490  33.601  26.987  22.740  0.3102  0.1515  0.0324
30438W        W73491   0.050   4.719  23.579  0.2439 -0.2259  0.0260
30439W        W73492  19.151   2.638  29.057  0.1326 -0.2073  0.0232
30440W        W73493  27.961   3.720  15.487  0.1325  0.2120 -0.4819
30441W        W73494  25.237  34.423  22.715  0.3437 -0.0386 -0.0126
30442W        W73495   8.549   5.891  19.625 -0.1681  0.2154 -0.0074
30443W        W73496   6.966   8.179  21.442 -0.0700 -0.0011 -0.0154
30444W        W73497  17.675   3.093  24.818  0.3191  0.1704  0.2908
30445W        W73498   8.790  32.541  21.044 -0.1388  0.2223  0.2567
30446W        W73499   1.336  16.326   2.788 -0.3668 -0.2250  0.0042
30447W        W73500  17.802  23.930   3.385  0.1372 -0.3149  0.2023
30448W        W73501  28.008   1.774  15.691  0.1168  0.2349 -0.1209
30449W        W73502  27.361  30.558  19.753 -0.0375 -0.2193 -0.0931
30450W        W73503  20.716  21.713  23.467  0.0506  0.1543 -0.0915
30451W        W73504   4.375   4.995  23.959 -0.0042 -0.1871 -0.0640
30452W        W73505  15.174  33.800   0.880  0.2513 -0.0647  0.1616
30453W        W73506   1.502  10.248  15.773  0.0650  0.1219 -0.1368
30454W        W73507  31.557  24.495  18.043 -0.1603  0.2146  0.0134
30455W        W73508   7.678   6.454  24.572 -0.0693  0.0514 -0.1324
30456W        W73509  22.970   7.915  16.253  0.0554  0.1288  0.0769
30457W        W73510  32.784  30.777  19.705  0.1017  0.0982  0.2348
30458W        W73511   8.480   9.881  27.687 -0.1036  0.2464  0.1002
30459W        W73512   0.254  33.434  20.897  0.0569 -0.0623  0.1148
30460W        W73513  23.905   4.944  15.817  0.0072  0.1096 -0.0621
30461W        W73514  26.814  20.715  15.819  0.0796 -0.0333 -0.0361
30462W        W73515  33.355  25.377  20.204 -0.0257  0.2540 -0.0183
30463W        W73516  29.618  14.077  26.564 -0.0846 -0.0213 -0.2103
30464W        W73517  34.634  33.325  13.658  0.1192 -0.2814  0.3474
30465W        W73518  19.875  25.734  19.463  0.0724 -0.0483  0.0874
30466W        W73519   8.912   1.209  17.860 -0.3075 -0.4830  0.0277
30467W        W73520   3.963  14.070  23.041  0.0014  0.1479 -0.0289
30468W        W73521  34.235   1.250  15.837  0.0043 -0.1202  0.2148
30469W        W73522  17.520  29.028  14.783 -0.1185  0.0730 -0.1350
30470W        W73523  15.901   5.637  19.180 -0.0318 -0.4143 -0.1948
30471W        W73524   4.871  11.676   1.335  0.0261  0.1235 -0.1515
30472W        W73525   6.247   5.383  21.716 -0.0588  0.1192 -0.0483
30473W        W73526  13.481   0.467  20.578  0.1387  0.0506 -0.2654
30474W        W73527   2.608   4.692  28.083  0.0611  0.2226 -0.0078
30475W        W73528   0.401   1.574  16.908  0.1161  0.1168  0.3087
30476W        W73529  17.787  24.164  18.663  0.0393  0.0683  0.0032
30477W        W73530   8.662   0.150  16.313  0.2651  0.2261  0.3124
30478W        W73531  23.430  32.083  21.615  0.1084 -0.0648  0.1476
30479W        W73532  21.469  12.940  26.387  0.3272  0.0412  0.2433
30480W        W73533  30.741   1.011   0.235  0.0955  0.1751 -0.0572
30481W        W73534  34.369   2.558   7.172  0.0686 -0.1796 -0.1384
30482W        W73535  29.123  19.223  24.704  0.0341  0.0681  0.0480
30483W        W73536  16.720   5.625  18.585  0.5027 -0.0687 -0.2969
30484W        W73537   5.204   0.361  15.836  0.0498  0.2298  0.0602
30485W        W73538  32.777  10.055  26.954 -0.1374  0.1723 -0.2451
30486W        W73539  23.357   1.261  15.614  0.2401  0.2370 -0.1486
30487W        W73540  11.157  20.853  15.826 -0.0187  0.4233  0.1020
30488W        W73541   4.448  24.244  15.506 -0.0856  0.2788 -0.1410
30489W        W73542  12.688  31.299  21.048  0.0249 -0.1367  0.4544
30490W        W73543  33.107  15.413   5.781  0.2385 -0.0342 -0.0310
30491W        W73544  30.866   1.529  24.358  0.2446  0.0453  0.0305
30492W        W73545   4.013  20.347  19.838 -0.0874 -0.0151 -0.1273
30493W        W73546  32.875  16.928  25.885 -0.2078  0.0260  0.1601
30494W        W73547  30.461  11.323  22.912  0.2633 -0.1352 -0.2388
30495W        W73548  10.366  13.048  24.147  0.1927 -0.1528 -0.1559
30496W        W73549  21.501   6.167  24.780 -0.0957 -0.1294 -0.3404
30497W        W73550  13.033  30.795   1.714 -0.0830 -0.1433  0.0832
30498W        W73551  19.875  10.643  19.499 -0.0041 -0.0119 -0.3758
30499W        W73552  15.710  23.184  21.403 -0.3527  0.1661 -0.1281
30500W        W73553   8.677  31.926   4.875  0.0072  0.1970  0.1131
30501W        W73554   5.450   0.500  23.201 -0.2287 -0.0251 -0.1147
30502W        W73555   6.478  10.488  17.765  0.2089  0.1058  0.1225
30503W        W73556  30.673   1.098  18.708  0.1025  0.0305  0.0643
30504W        W73557  32.920   5.863  22.043  0.1733 -0.2031  0.2092
30505W        W73558   4.306   3.039  22.006  0.0544  0.0680 -0.0405
30506W        W73559  21.037  14.106  17.684 -0.1908 -0.0915 -0.0795
30507W        W73560  27.459  33.054  15.642 -0.0167 -0.0914  0.0265
30508W        W73561  15.848  15.660   1.039 -0.2108 -0.1367 -0.0094
30509W        W73562  34.101  29.560  22.063 -0.3726 -0.0728 -0.0542
30510W        W73563  27.027   5.773  26.868 -0.3160 -0.0476 -0.1103
30511W        W73564   1.074  33.853  20.006 -0.0302 -0.1018  0.1011
30512W        W73565   9.973  32.237  14.778 -0.4043 -0.3351 -0.0359
30513W        W73566   1.100   2.167  23.128 -0.1623 -0.1433  0.0548
30514W        W73567  32.280  10.381  19.224  0.0497 -0.2023  0.0002
30515W        W73568  21.536   3.437  14.919  0.0328  0.0371 -0.0631
30516W        W73569  31.251   3.046  17.384  0.2003  0.2868  0.0397
30517W        W73570  15.995  30.593  16.429  0.2692  0.0588 -0.2015
30518W        W73571  31.303  12.874  22.373  0.0352  0.3380 -0.1114
30519W        W73572   1.828  31.086  14.803 -0.1768 -0.2039  0.2931
30520W        W73573   4.900  29.161  18.473 -0.4447  0.2543  0.2616
30521W        W73574  30.102   6.855  23.732  0.1507 -0.2743 -0.1170
30522W        W73575  31.846   9.254  20.784 -0.0101  0.0891  0.0753
30523W        W73576  28.434   2.779  19.525  0.1937  0.2318 -0.0896
30524W        W73577  24.197   3.203  20.993 -0.0334  0.2089  0.1019
30525W        W73578   0.588   6.056  24.707 -0.3689 -0.2540 -0.1987
30526W        W73579   6.628  24.389  19.624 -0.2168 -0.0880  0.1958
30527W        W73580  31.450   4.413  21.616 -0.1548 -0.1868 -0.1068
30528W        W73581  27.594   5.102  21.308 -0.0406 -0.0029  0.4835
30529W        W73582   1.023   9.028  23.656 -0.3011 -0.0569 -0.1538
30530W        W73583  31.438   2.743  14.533 -0.2241 -0.3712  0.0681
30531W        W73584   5.013  19.652  21.327  0.3882 -0.3257  0.2183
30532W        W73585  26.363  25.921  16.114  0.0587  0.1713 -0.0857
30533W        W73586  33.599   1.093  14.101  0.2140  0.3258 -0.2260
30534W        W73587  29.080  34.198  22.609 -0.0252  0.0798  0.3125
30535W        W73588  23.521  29.663  16.540  0.2129  0.1637 -0.2468
30536W        W73589  22.965  17.973  19.970  0.3357  0.0346 -0.2336
30537W        W73590  34.426  31.826   4.678 -0.3022  0.2455 -0.0169
30538W        W73591  14.355   7.042  23.147  0.2200  0.0006 -0.0269
30539W        W73592   1.613  32.010  18.672 -0.0087 -0.1164 -0.1785
30540W        W73593  23.006  33.492  21.990 -0.1686  0.2425 -0.0014
30541W        W73594  31.174  34.182  18.136 -0.2681 -0.0966 -0.1511
30542W        W73595  33.209   3.765  10.201 -0.1479 -0.2023 -0.1455
30543W        W73596   4.618   3.203   0.977 -0.3014 -0.2547  0.1773
30544W        W73597  17.757   4.445  24.048  0.1925  0.1962  0.2481
30545W        W73598  29.247  29.764  16.087  0.0716 -0.0182 -0.1412
30546W        W73599  25.058   4.145  15.975 -0.1657 -0.1614  0.1075
30547W        W73600  19.278  31.829  14.837  0.1868  0.0988 -0.3343
30548W        W73601  24.277  10.188   1.192 -0.0909  0.0705  0.2290
30549W        W73602  33.993  13.209  20.238 -0.0772  0.0247 -0.2952
30550W        W73603   4.686  34.451  16.255 -0.2682  0.2607  0.2368
30551W        W73604   4.522   1.346   8.432  0.0743  0.1431  0.2725
30552W        W73605  34.204  11.565  15.042  0.3848  0.0902  0.0719
30553W        W73606  25.035  26.225  15.862  0.2672 -0.0644 -0.1235
30554W        W73607  23.741   9.112  15.720  0.0778  0.1577  0.1465
30555W        W73608  31.096  32.134  27.593  0.1633  0.0214 -0.1063
30556W        W73609  24.128  23.678  21.956 -0.0192  0.0452 -0.1526
30557W        W73610  31.895  14.394  13.669  0.1488  0.0563 -0.3007
30558W        W73611  33.742   7.273  20.859  0.0699  0.2261 -0.2882
30559W        W73612   5.552  34.140  13.587 -0.1924 -0.1592  0.0213
30560W        W73613  33.539   5.657  25.989  0.1509  0.1484  0.1167
30561W        W73614  23.529   3.609  17.021  0.2755 -0.2751  0.0438
30562W        W73615   7.904   3.784  26.369  0.0033  0.0780 -0.0214
30563W        W73616   1.475  32.793  22.180 -0.0117 -0.0322 -0.1617
30564W        W73617  20.518  20.732  20.868  0.2230 -0.0298  0.1100
30565W        W73618  25.564  25.185  14.270  0.2504  0.1644  0.1883
30566W        W73619   2.292   5.489  27.026 -0.0692 -0.2409  0.1348
30567W        W73620  22.613  11.368  15.746  0.3085  0.4011 -0.0829
30568W        W73621  22.497  21.582  19.012  0.1070 -0.1374 -0.0043
30569W        W73622   2.814  20.566  14.159  0.0232  0.0111 -0.0983
30570W        W73623   9.252   2.411  23.699  0.0743  0.2419  0.0343
30571W        W73624  27.575  28.646  19.632 -0.1227 -0.2716 -0.1840
30572W        W73625   9.710  22.074  20.661  0.5746  0.2907  0.0248
30573W        W73626  21.676   0.029  20.470 -0.2123  0.2404 -0.4350
30574W        W73627  32.299   4.254  27.342 -0.1278 -0.0275  0.1862
30575W        W73628  23.808   4.024   0.388 -0.3930  0.0031  0.0605
30576W        W73629  28.490   6.231  22.049 -0.1613  0.3152  0.0678
30577W        W73630   2.034  30.455  16.957  0.2349 -0.2429  0.0930
30578W        W73631   4.564   1.736  23.994  0.4796 -0.1609  0.1819
30579W        W73632  19.620  26.385  17.019 -0.1533  0.0164  0.0256
30580W        W73633  14.747  29.312  21.933  0.2233 -0.3080  0.0576
30581W        W73634   0.622  21.088  17.573 -0.0239  0.1674 -0.1278
30582W        W73635   7.529  30.301  27.159 -0.1854  0.0752  0.0430
30583W        W73636  17.691  15.792  14.494  0.4204 -0.0218  0.0127
30584W        W73637   1.991   0.341  15.521 -0.6006 -0.0513 -0.0675
30585W        W73638  32.842  25.724  14.671  0.2734  0.3895 -0.1472
30586W        W73639  12.385  25.346   2.071  0.0073 -0.3857  0.1286
30587W        W73640   4.237  34.451  24.381 -0.0310 -0.0288  0.2982
30588W        W73641  27.801   2.905  13.729  0.0826 -0.0706  0.1395
30589W        W73642  21.463   7.566  15.141  0.1542 -0.0320 -0.2450
30590W        W73643  32.284  26.033  18.423 -0.4830 -0.1498 -0.0589
30591W        W73644  30.823   1.774  15.274  0.1525 -0.0755  0.0128
30592W        W73645  10.082  32.743  17.240 -0.0326  0.2762 -0.1670
30593W        W73646  24.467   6.195  20.666 -0.2226  0.3445  0.2289
30594W        W73647   8.788   9.378  19.886 -0.0213 -0.0243 -0.3720
30595W        W73648  28.820  23.751  15.920  0.0831  0.2144 -0.1159
30596W        W73649  26.012  14.555  21.025  0.1388  0.0590  0.2793
30597W        W73650  21.048  26.082  15.826  0.1493  0.0766 -0.0696
30598W        W73651  32.101  17.338  14.556 -0.0020  0.1913  0.1247
30599W        W73652   5.635  23.581  26.704 -0.3656  0.0572 -0.0976
30600W        W73653  24.637  28.198  20.162  0.0200 -0.0754  0.0823
30601W        W73654  32.078   3.492  17.472  0.1268 -0.0719 -0.3594
30602W        W73655  12.638  34.135  19.829 -0.0355 -0.1442  0.0903
30603W        W73656  20.406   8.087  15.273 -0.1552 -0.1029 -0.3052
30604W        W73657  16.343   2.009  17.596  0.1876  0.1064 -0.1251
30605W        W73658   8.207   8.619   1.492  0.2479  0.2155  0.1564
30606W        W73659  28.473   1.716  23.746 -0.0066  0.1843 -0.1184
30607W        W73660  30.920  24.604  24.621 -0.1266 -0.1657  0.1443
30608W        W73661   8.017  26.858  14.752  0.1649 -0.0281  0.0003
30609W        W73662  33.275  26.755  16.432 -0.0635 -0.2292  0.1148
30610W        W73663   5.789  18.950   7.864  0.2572  0.1095 -0.1441
30611W        W73664  14.178   3.647  27.025 -0.3541  0.2465 -0.0254
30612W        W73665  18.296  11.906  23.181 -0.1049  0.0224  0.1814
30613W        W73666  17.736   0.511  15.714  0.1017 -0.1786 -0.0044
30614W        W73667  16.480  19.419   3.121 -0.1845  0.1549  0.1695
30615W        W73668  31.485  14.729   2.918 -0.1847  0.0539  0.1141
30616W        W73669  22.411  16.855  20.227  0.4048 -0.1184 -0.0637
30617W        W73670  27.411  34.576  25.454  0.1537 -0.2434  0.0110
30618W        W73671   4.498  18.110  23.196 -0.2555  0.0775 -0.0339
30619W        W73672  32.529  20.009  21.116  0.3543  0.1561  0.1281
30620W        W73673   4.602   6.512  20.493 -0.1806 -0.0807  0.0075
30621W        W73674   0.781  11.706  15.953 -0.5527 -0.1157  0.1690
30622W        W73675   0.245   2.792  19.171  0.0085  0.1788  0.2207
30623W        W73676  26.958   1.829   6.670 -0.1741 -0.1114  0.1147
30624W        W73677  13.190   3.489  16.555 -0.0312  0.0791  0.2123
30625W        W73678   6.021  15.725  17.655  0.1141  0.0863  0.0939
30626W        W73679   0.445   2.498  20.038  0.3722 -0.0756  0.0737
30627W        W73680  15.048  34.044   3.445  0.1095  0.4208 -0.0082
30628W        W73681  23.877   1.805  20.429 -0.0036  0.0659  0.1679
30629W        W73682   1.704  10.295  20.369  0.1965  0.2877  0.1036
30630W        W73683  33.285   3.716   6.161  0.2660  0.2429  0.0005
30631W        W73684   7.543   3.814  14.751 -0.1487  0.2296 -0.1466
30632W        W73685   2.072   2.965  17.796 -0.1409  0.1527  0.1380
30633W        W73686  30.508  29.327  18.548  0.1731  0.2401  0.1717
30634W        W73687   8.746  15.444   0.009  0.0784  0.1845 -0.2358
30635W        W73688   2.757  30.552  22.816 -0.0133  0.0125  0.0840
30636W        W73689  10.624   4.512  29.007 -0.2496 -0.1907 -0.0327
30637W        W73690  23.579  18.862  19.064 -0.3828  0.1030 -0.2131
30638W        W73691  29.902  33.614  18.316 -0.0493  0.1013 -0.1009
30639W        W73692   0.211  11.237  18.095 -0.3365  0.0879 -0.0562
30640W        W73693  15.610  15.288  28.506  0.0424  0.0700 -0.0226
30641W        W73694  23.355  23.017  16.419 -0.1082 -0.0610  0.0218
30642W        W73695  15.049   8.648  23.563  0.1737 -0.3074  0.4700
30643W        W73696   5.537  17.053  17.812 -0.0910  0.1263 -0.2882
30644W        W73697  12.133   5.767  26.381  0.5370  0.0442 -0.1667
30645W        W73698  25.065   2.524  16.209 -0.3420 -0.0886 -0.2703
30646W        W73699   9.541  29.754  27.053  0.2435  0.1600 -0.2696
30647W        W73700  31.270   7.897  21.802  0.2033  0.3404  0.1051
30648W        W73701  22.078  24.092  27.231  0.1564  0.2274  0.1406
30649W        W73702  30.164   4.602  21.142  0.2130 -0.0466  0.0837
30650W        W73703   1.926   8.859  15.435  0.2032 -0.3068 -0.3187
30651W        W73704  30.931   5.781  23.042 -0.0530  0.2724  0.1435
30652W        W73705  29.215  34.379   3.349  0.1188  0.0716 -0.2315
30653W        W73706   3.951  10.379   3.263 -0.0125 -0.0504 -0.0566
30654W        W73707  30.423  34.595  15.345 -0.0268  0.1366  0.2414
30655W        W73708   4.674  23.807  22.392 -0.0891 -0.0187 -0.0012
30656W        W73709   8.208   2.722  27.080  0.1049  0.1949 -0.0845
30657W        W73710   6.255  30.641  16.819  0.0090 -0.0750  0.0872
30658W        W73711  19.363  31.533  16.548 -0.0314 -0.0140  0.0036
30659W        W73712  18.961  32.252  24.041  0.2004  0.3504  0.0053
30660W        W73713   3.085   1.557  14.500  0.3018  0.0064  0.1520
30661W        W73714  32.758  29.769  19.806  0.3193 -0.1581  0.3793
30662W        W73715   8.772   6.738  21.095 -0.0587 -0.0021  0.0269
30663W        W73716   6.093   8.292  21.024  0.0195 -0.0480  0.0007
30664W        W73717  26.414  30.626  22.102  0.0118  0.0534  0.3153
30665W        W73718  26.352   6.465   1.975 -0.0135  0.2058 -0.1472
30666W        W73719  29.979   1.668  22.806  0.1058  0.0319 -0.1450
30667W        W73720  24.958   1.985  21.529  0.3475  0.2117  0.0034
30668W        W73721  21.785   4.016  28.246  0.0538 -0.1247 -0.2501
30669W        W73722   9.032   3.047  10.094  0.0187 -0.0166 -0.1208
30670W        W73723  26.479   0.669  19.124  0.1962 -0.0672 -0.0414
30671W        W73724  33.724   4.114  27.510 -0.0850 -0.3153  0.0160
30672W        W73725  22.535   1.082  22.527  0.1004 -0.0475 -0.5615
30673W        W73726  28.646  29.696  22.305  0.1818  0.0829  0.1712
30674W        W73727  32.443   5.021  14.879  0.0581 -0.0487 -0.1064
30675W        W73728   4.734  10.897  14.823 -0.0117  0.0127  0.0722
30676W        W73729   0.609   7.865  18.190  0.2003 -0.2360  0.2644
30677W        W73730  15.390   2.416  19.024 -0.1304  0.0006 -0.0417
30678W        W73731  19.992  27.936  14.892  0.0670 -0.1592 -0.2834
30679W        W73732  20.786   0.415  20.759  0.2839  0.2446  0.0765
30680W        W73733  31.923  21.342  16.651 -0.1005  0.0145 -0.2666
30681W        W73734  22.624  32.564  20.067  0.0447  0.2014  0.0948
30682W        W73735  27.025  14.508  23.449 -0.1609 -0.0966 -0.0740
30683W        W73736   8.153  20.131  16.737  0.0212  0.1631 -0.1199
30684W        W73737  22.353   7.976  15.256  0.3801 -0.3049  0.1603
30685W        W73738  13.515   3.989  13.453  0.0342 -0.2060 -0.0649
30686W        W73739  33.952  11.136  22.224 -0.1067 -0.0310 -0.0053
30687W        W73740  30.779  31.045  27.096  0.0618  0.1135 -0.0154
30688W        W73741  29.472  29.141   2.357  0.0470 -0.1213  0.1682
30689W        W73742  21.743  33.795  10.237  0.0581 -0.0705 -0.1857
30690W        W73743  24.439  13.724   3.984 -0.0576 -0.0357  0.0647
30691W        W73744  28.682  12.429   2.316  0.1423 -0.0277  0.6079
30692W        W73745  32.196   5.715  28.485  0.1946 -0.3772 -0.1592
30693W        W73746  22.026  31.394  16.146  0.2928 -0.0608 -0.3906
30694W        W73747   2.675   6.444  16.561 -0.1354  0.0901 -0.1225
30695W        W73748  30.676  30.058  18.896  0.0568  0.2122 -0.1101
30696W        W73749  29.598  22.389  17.025 -0.3719 -0.0710 -0.1854
30697W        W73750   4.838  10.906   7.047  0.0357  0.1768  0.1744
30698W        W73751   8.202   0.342  22.572  0.0711  0.1324 -0.0702
30699W        W73752  26.344  29.908   9.459  0.1117  0.0301  0.0309
30700W        W73753  23.091   4.757   9.866 -0.0250  0.1262 -0.0234
30701W        W73754  31.961  30.665  20.118  0.0306 -0.2898  0.2180
30702W        W73755  31.566   1.484  16.796 -0.3437 -0.0660  0.0020
30703W        W73756   4.413   2.706  20.424  0.0418  0.0282 -0.0684
30704W        W73757  31.928  11.295  21.474 -0.1270 -0.3264  0.0679
30705W        W73758  10.863   8.298  24.768  0.2155  0.0436  0.0576
30706W        W73759  31.200   5.249  25.729 -0.0844 -0.0978  0.1438
30707W        W73760  24.891  26.669  16.145 -0.5111  0.0002  0.0678
30708W        W73761  11.117   7.112  19.779  0.2225 -0.1701  0.1830
30709W        W73762   5.837   5.127  21.765 -0.4147  0.1040 -0.0010
30710W        W73763   6.581  21.049  27.563  0.2001 -0.1659 -0.0822
30711W        W73764  29.126   1.933  19.069  0.2567 -0.3550  0.0421
30712W        W73765  11.494   1.403  19.730 -0.0210  0.1364 -0.1172
30713W        W73766   4.418   7.148  16.802 -0.1152  0.0399  0.3968
30714W        W73767  13.675   0.094  14.943  0.0648  0.0589  0.2308
30715W        W73768  25.907  25.585   7.477 -0.1801 -0.2349 -0.3070
30716W        W73769   2.286  15.038  14.222 -0.0958 -0.1743  0.0940
30717W        W73770  14.801  32.943  25.055 -0.0985  0.2261 -0.1054
30718W        W73771   0.733  31.983  26.382  0.0456  0.2321  0.1996
30719W        W73772  26.268   2.433  15.116 -0.1327  0.0038 -0.5680
30720W        W73773  12.610   0.907  23.566 -0.1342 -0.0837  0.1812
30721W        W73774  24.595   9.377  18.731  0.2511 -0.1564 -0.1433
30722W        W73775  24.184  27.944  20.301  0.0852  0.0289  0.1027
30723W        W73776  28.933  29.602  26.589  0.0337  0.1462  0.0844
30724W        W73777  30.815  11.163  25.138  0.2578  0.0716  0.1704
30725W        W73778   8.390  15.895  22.726 -0.0879  0.0579 -0.0497
30726W        W73779  22.284   7.791  21.841 -0.4568 -0.1133  0.4823
30727W        W73780   6.460   3.787  17.270  0.0006  0.1091  0.4933
30728W        W73781   3.663  20.013  21.243  0.0236 -0.1964  0.0161
30729W        W73782  23.066  10.060  14.585  0.1096  0.1106 -0.0767
30730W        W73783   6.658   3.933  22.180  0.2201 -0.0596  0.0676
30731W        W73784   1.723  10.170  18.119  0.2538  0.0589  0.1816
30732W        W73785  30.181   1.955   4.550  0.1274  0.1843  0.1347
30733W        W73786   8.635  34.282  16.248 -0.0571  0.1521  0.0771
30734W        W73787   2.602   4.018  27.358 -0.1115  0.0942 -0.3535
30735W        W73788   1.734   1.946  16.712 -0.0921  0.1732 -0.2052
30736W        W73789   6.066  32.784  14.401 -0.1794 -0.4875  0.0387
30737W        W73790   8.163   0.079  14.446 -0.0687  0.1289 -0.0639
30738W        W73791  20.155  13.624  22.209 -0.2947  0.1565  0.2536
30739W        W73792  24.918  17.438   3.754  0.2061 -0.1391  0.0797
30740W        W73793   2.453  28.848  16.046  0.1357 -0.1724 -0.1115
30741W        W73794   5.661  26.095  16.064  0.0019 -0.0194 -0.0242
30742W        W73795  31.152   0.891  19.557 -0.0157  0.0366  0.1002
30743W        W73796  29.991   5.259   9.348 -0.1499 -0.0284 -0.5116
30744W        W73797  29.387   0.012  20.948 -0.0168  0.1223 -0.1066
30745W        W73798  34.199   7.510   2.014 -0.0610 -0.1631  0.0939
30746W        W73799   3.795   4.735  16.987  0.1662  0.0872  0.0437
30747W        W73800   2.796   4.061  19.064 -0.0021 -0.0296  0.2402
30748W        W73801  25.542  34.319  26.432  0.2208 -0.3499 -0.0324
30749W        W73802  24.766   9.646   7.240 -0.2690  0.1399  0.1820
30750W        W73803  27.367   3.621  23.493  0.1311 -0.0651 -0.0391
30751W        W73804  27.965  10.131  23.299  0.0006 -0.1310  0.0517
30752W        W73805  28.643   6.548  29.201 -0.1119  0.1165  0.3897
30753W        W73806   9.267   3.116  21.092 -0.0957  0.0295  0.4792
30754W        W73807  11.192  30.116  29.085  0.0597  0.1606  0.1641
30755W        W73808  31.871  22.314  23.454 -0.0601 -0.0992 -0.0424
30756W        W73809   6.005  22.505  27.705  0.2547  0.1341  0.2287
30757W        W73810   3.730   8.002  22.383 -0.2239  0.0846 -0.1690
30758W        W73811   6.638  31.275  28.427  0.0723  0.0656 -0.1042
30759W        W73812  11.439  29.245  22.746  0.1633 -0.3563  0.3051
30760W        W73813  10.436  16.493  27.837  0.1533  0.2541  0.4926
30761W        W73814  20.931  32.324  20.279  0.0393  0.0265 -0.2920
30762W        W73815  29.100  31.291  24.020 -0.1669  0.0128 -0.0931
30763W        W73816   7.199  34.410  28.901  0.2736  0.5355  0.1130
30764W        W73817   3.853  32.849  21.555  0.0383  0.0759  0.1068
30765W        W73818  27.080  12.675  20.666 -0.1836  0.2399 -0.1755
30766W        W73819  25.581  22.285  24.783  0.1735 -0.1741 -0.2395
30767W        W73820  33.752  20.488  20.937  0.1583 -0.3476 -0.2577
30768W        W73821   0.718  26.931  20.246  0.2126  0.0707 -0.3336
30769W        W73822  26.788   9.408  16.462 -0.3187  0.0698  0.4712
30770W        W73823   9.622   5.171  22.791  0.0565  0.1600  0.2521
30771W        W73824   9.323  20.042  14.844 -0.1973 -0.0664  0.0650
30772W        W73825  10.521  25.430  15.773  0.1680 -0.1943 -0.3240
30773W        W73826   5.054  27.334  18.100  0.0233  0.0126  0.1472
30774W        W73827  32.535   4.587  23.147  0.0717  0.1667 -0.3100
30775W        W73828   4.545   1.802  27.054  0.0295 -0.3270 -0.3234
30776W        W73829   5.380   7.710  15.748  0.0186 -0.3059  0.1324
30777W        W73830  17.913   2.306  18.048 -0.2483 -0.1993  0.0839
30778W        W73831  33.346  23.272   6.006 -0.0536  0.0116 -0.1142
30779W        W73832  20.129   7.501  20.201 -0.0380 -0.2496  0.0318
30780W        W73833  32.050   1.818  20.464  0.1420  0.1325 -0.3177
30781W        W73834   2.587  12.734   8.416 -0.0951 -0.0207 -0.0448
30782W        W73835  26.808  33.249  16.429 -0.0913 -0.3860 -0.2280
30783W        W73836   3.030   9.915  22.598  0.0791  0.2522 -0.1550
30784W        W73837  24.324  34.110   2.857  0.0153 -0.1572  0.1046
30785W        W73838  25.561   0.197   1.201 -0.1583 -0.0910 -0.1328
30786W        W73839   2.614  32.626  21.710 -0.1381  0.0381  0.2117
30787W        W73840  16.209  22.534  25.789 -0.1350  0.0952 -0.2251
30788W        W73841   5.307   2.629  14.889  0.1977 -0.1041 -0.0219
30789W        W73842  10.736  32.597  26.591  0.1736 -0.0370  0.1425
30790W        W73843  26.328  34.233  15.986  0.1214  0.1469 -0.1949
30791W        W73844  23.671  27.505  15.019  0.2851 -0.1605  0.0343
30792W        W73845  24.004  31.062   0.282 -0.3634 -0.1311 -0.1252
30793W        W73846   5.452   7.106   1.392 -0.0179 -0.0760  0.1720
30794W        W73847  31.884  25.882   7.633 -0.1700  0.0634  0.0946
30795W        W73848  25.421  18.200   6.482 -0.0388  0.2609  0.0615
30796W        W73849  17.109   9.228  26.571  0.2764 -0.0442  0.2379
30797W        W73850   0.308  33.697   5.354 -0.0145  0.0185  0.1362
30798W        W73851  28.009   8.668  27.822 -0.0909 -0.0117 -0.2211
30799W        W73852  20.446  21.834  15.036  0.0768  0.2501  0.1512
30800W        W73853  19.013   5.605  17.265  0.2449 -0.2818 -0.0876
30801W        W73854  10.436  12.055  22.907  0.2616 -0.0805 -0.3787
30802W        W73855   6.794   4.994   8.578 -0.0368 -0.0246 -0.2555
30803W        W73856  23.714  17.946  17.382 -0.1310 -0.3681  0.0635
30804W        W73857   7.373   6.799  28.376  0.1105 -0.3224  0.3651
30805W        W73858   2.700  33.700  23.310 -0.1430  0.3447  0.0283
30806W        W73859  30.365  28.805  14.533  0.1780 -0.1381  0.3892
30807W        W73860   0.847  23.185  21.518  0.1517  0.1994  0.0100
30808W        W73861   0.484  34.116  15.492  0.4232 -0.2007  0.1140
30809W        W73862   7.188   1.354  24.603  0.0156  0.3922  0.2138
30810W        W73863  17.319  33.266  21.021 -0.0848  0.1386  0.0127
30811W        W73864  13.241  34.269  17.924  0.0738  0.2316 -0.0313
30812W        W73865   6.090   5.063   0.327  0.3891  0.5730  0.1898
30813W        W73866  33.360   6.500  25.426  0.0650 -0.0727  0.1110
30814W        W73867  28.479   2.906  17.036 -0.1552 -0.0930  0.1100
30815W        W73868  29.055   8.016   5.083 -0.2172 -0.2448  0.2313
30816W        W73869   5.519   4.869  19.899  0.2537 -0.0511 -0.1633
30817W        W73870   6.188   8.800  18.614  0.1771 -0.0898  0.2245
30818W        W73871   9.242  16.151  22.676  0.3568 -0.0985  0.1351
30819W        W73872  11.151   6.061  15.037  0.0272  0.0994 -0.1906
30820W        W73873   5.177   4.651  23.506  0.1475  0.0342  0.1386
30821W        W73874  22.604   5.763  22.228  0.2133 -0.0169  0.1414
30822W        W73875   0.255  15.457  27.851 -0.1894  0.1522 -0.1330
30823W        W73876  26.899  34.380  14.831 -0.0928  0.6244  0.1929
30824W        W73877  25.425  34.663  20.385 -0.2067 -0.2702 -0.2114
30825W        W73878   0.867   4.251  24.248  0.0242 -0.1082  0.0209
30826W        W73879  34.514  34.193   2.534 -0.0722  0.1350  0.1557
30827W        W73880  13.164  18.797  18.527  0.0694 -0.0409 -0.0874
30828W        W73881  25.532  31.162  14.344  0.0005 -0.0879 -0.3441
30829W        W73882  30.460   1.591  14.319  0.0424 -0.2805 -0.0772
30830W        W73883  24.774   6.945  21.483 -0.0231  0.1112  0.3107
30831W        W73884  21.668  31.238   3.244  0.1781 -0.1513 -0.3587
30832W        W73885  17.955  25.883  23.217 -0.1626  0.0738 -0.3024
30833W        W73886   3.756  30.254  14.294  0.5099 -0.3193 -0.0423
30834W        W73887  19.912   3.135   0.936 -0.0074  0.0211  0.0865
30835W        W73888  28.897   8.876   6.566 -0.1495 -0.0222  0.1636
30836W        W73889  33.317   1.547  24.098  0.0560 -0.1629 -0.2799
30837W        W73890   7.779   7.737  27.389 -0.0477  0.1014  0.1640
30838W        W73891   0.688  29.456  13.280  0.0264 -0.2694 -0.0309
30839W        W73892  24.867  31.867  19.103 -0.0355  0.1704 -0.0889
30840W        W73893   1.651   1.169  19.725  0.1349  0.0597 -0.0837
30841W        W73894  31.764   1.903  20.942 -0.1092  0.0356 -0.1140
30842W        W73895   9.167  34.574  26.993  0.3230 -0.2076 -0.5586
30843W        W73896  34.390   2.096  20.374 -0.0667  0.0613  0.0597
30844W        W73897  31.569   8.771  14.986 -0.1015 -0.1884 -0.0229
30845W        W73898  31.919  12.863  19.981  0.0144 -0.1017 -0.0262
30846W        W73899  26.549   7.352  28.084  0.1229  0.0226 -0.3305
30847W        W73900  23.536   2.826  27.299  0.3041 -0.2322 -0.1013
30848W        W73901  28.923  15.900   0.420  0.1632 -0.0146  0.0148
30849W        W73902  21.710  27.873  17.193  0.0437  0.0446  0.0436
30850W        W73903  33.671   4.944  20.520 -0.1390  0.2697  0.1510
30851W        W73904  22.389   2.227  15.720 -0.4593 -0.0273  0.0204
30852W        W73905   3.809  31.035  24.473 -0.2958 -0.2630  0.2508
30853W        W73906   3.440  28.167  19.670  0.3669 -0.0769  0.0615
30854W        W73907   2.623  28.374  24.938 -0.0027  0.0098  0.0867
30855W        W73908  22.351   2.343  17.613 -0.1928 -0.2204  0.0935
30856W        W73909  23.871   5.260  26.526  0.4351 -0.0054 -0.1142
30857W        W73910   6.545  11.736  23.792 -0.1917 -0.2742  0.2604
30858W        W73911  13.238   5.782  15.977 -0.1514  0.0925  0.1059
30859W        W73912  28.640  34.101  21.988  0.1996 -0.2954 -0.3273
30860W        W73913   5.931  19.096  22.379  0.1254  0.0731  0.1051
30861W        W73914   3.666   3.141  13.959  0.2886  0.0497 -0.0762
30862W        W73915   8.645  29.449  14.514 -0.1006 -0.4029 -0.0411
30863W        W73916  31.045  30.413  20.118 -0.3311  0.0622  0.0507
30864W        W73917   2.511  26.284  25.484  0.1923 -0.0082 -0.0782
30865W        W73918   6.801   7.980  15.432  0.4532 -0.0410  0.0513
30866W        W73919  32.924  32.685  19.228 -0.0212  0.0895  0.0007
30867W        W73920  10.858  34.647  15.400 -0.2794  0.2306 -0.3760
30868W        W73921  11.511  18.813   5.955  0.0720 -0.3059 -0.0027
30869W        W73922  22.309   5.701  18.085 -0.0884  0.1712  0.0621
30870W        W73923  11.504   7.311  19.966  0.3217 -0.0674  0.1660
30871W        W73924  26.769   8.629  23.162  0.0728  0.0921  0.0841
30872W        W73925  31.247  27.611  21.801  0.1340 -0.1562 -0.2489
30873W        W73926  22.618  12.306  14.514 -0.1311  0.1095 -0.1950
30874W        W73927  28.365  30.110  19.275  0.0346  0.2609 -0.2137
30875W        W73928  32.501  26.335  13.616  0.1949 -0.0757 -0.0722
30876W        W73929  28.011   8.037  18.566  0.4224  0.0843  0.3056
30877W        W73930  26.667   8.658  24.603  0.1715  0.0968  0.0178
30878W        W73931   3.863   2.870  24.149  0.0327  0.1739  0.1111
30879W        W73932  28.379  22.782  26.363  0.4410  0.3038 -0.1661
30880W        W73933  30.306  13.379  28.515 -0.5982  0.3103 -0.2109
30881W        W73934  15.754  21.011  22.974  0.3918 -0.0910  0.0780
30882W        W73935  18.307   8.164  14.767 -0.1691 -0.3034 -0.0496
30883W        W73936  25.401   1.997  24.547  0.2176  0.0683 -0.1360
30884W        W73937  31.831  24.559  17.653 -0.0454 -0.6191  0.0937
30885W        W73938  27.358   7.901   0.310 -0.3289  0.1853 -0.1708
30886W        W73939  24.676  29.996   5.352 -0.3351 -0.1192 -0.1519
30887W        W73940  29.875  27.889   6.010 -0.0106  0.0648 -0.0642
30888W        W73941  31.543  25.666  17.800 -0.1845  0.1927  0.1294
30889W        W73942  31.963  31.291  13.198 -0.0612 -0.1584 -0.1010
30890W        W73943  29.176   4.480   1.438  0.0826  0.0311  0.0124
30891W        W73944   0.343   3.325  17.618 -0.1664  0.0768 -0.0606
30892W        W73945   1.606   6.926  19.242 -0.2793  0.1791  0.0530
30893W        W73946  28.715  24.439  26.359  0.0907  0.4475  0.2182
30894W        W73947  23.518  30.475  22.658  0.2300 -0.0920 -0.1637
30895W        W73948  29.665  28.309  24.506  0.0760 -0.0818  0.0162
30896W        W73949  28.011  31.267  17.446  0.0772  0.0533 -0.1347
30897W        W73950  31.932   7.490  19.659  0.1758 -0.1124 -0.1965
30898W        W73951  27.611  32.272  26.579 -0.0302  0.1556 -0.0817
30899W        W73952   6.118   1.657  21.152  0.0486 -0.1291  0.0288
30900W        W73953   2.143  17.246  21.677  0.3153 -0.1462 -0.0538
30901W        W73954  26.119  14.008  20.650  0.3238  0.1123  0.3380
30902W        W73955  26.384   9.626  22.410 -0.3418  0.2707  0.0852
30903W        W73956   9.903   7.114  27.405 -0.1293  0.1750 -0.2358
30904W        W73957   3.668  30.317  17.541  0.2374 -0.1537  0.0597
30905W        W73958  29.486  33.110  26.238  0.2870 -0.2948 -0.1631
30906W        W73959   5.722  14.363  17.728  0.0034 -0.1715 -0.1412
30907W        W73960  22.455   4.191   1.623  0.2079  0.0639 -0.2808
30908W        W73961   5.646   3.788  16.930  0.0651  0.1905 -0.0367
30909W        W73962  28.395  32.587  14.802  0.0943 -0.0994 -0.1466
30910W        W73963  29.296  11.409  21.485 -0.0694 -0.0924  0.1069
30911W        W73964  28.921  31.810  23.001 -0.0960 -0.1901  0.0526
30912W        W73965  30.852  16.819  16.096 -0.1089 -0.0389 -0.0665
30913W        W73966  19.475   3.569  21.423  0.0387 -0.1417  0.2081
30914W        W73967   3.536   1.952  19.397 -0.2477 -0.1381 -0.0928
30915W        W73968   3.930   6.928  24.679  0.1078  0.1092  0.0403
30916W        W73969   6.969  34.070   2.160  0.1117 -0.0641 -0.0017
30917W        W73970   1.413  30.060  21.543 -0.1618  0.0129  0.1911
30918W        W73971  14.739  31.867  20.150 -0.0352 -0.0641 -0.0810
30919W        W73972   5.715  24.923  25.224 -0.0201  0.2206 -0.0645
30920W        W73973   8.228  26.893  29.137  0.2168 -0.0532  0.1634
30921W        W73974  18.923   0.143  17.446  0.2917 -0.0619  0.1123
30922W        W73975  30.599  32.183   2.981 -0.1423 -0.1895  0.2826
30923W        W73976  19.858  31.610  15.931  0.0053 -0.0748  0.2552
30924W        W73977  34.199   2.956  14.871  0.2627 -0.0260 -0.0616
30925W        W73978  21.515  11.384  16.646  0.1817 -0.0817 -0.1063
30926W        W73979  33.955  11.745   5.451 -0.0541  0.0678  0.1583
30927W        W73980  31.759  23.641  21.274 -0.0511  0.0285  0.2805
30928W        W73981  10.540   9.844  19.257  0.0998 -0.1958 -0.1273
30929W        W73982  27.160   8.057  20.301  0.1157  0.0001  0.1760
30930W        W73983  29.987  32.568  20.096  0.0649 -0.4031  0.0224
30931W        W73984  20.583   2.966   4.730 -0.1711 -0.1804  0.1272
30932W        W73985  21.263   6.738  14.820 -0.0467  0.1853  0.0795
30933W        W73986  26.433   0.356  18.647 -0.1153  0.3659  0.1930
30934W        W73987  21.992   2.945  23.345  0.0439  0.1670 -0.1151
30935W        W73988  26.777  34.543   9.119  0.1917 -0.0199  0.2220
30936W        W73989  18.943   5.724  23.584  0.2359 -0.0296  0.3121
30937W        W73990   4.683   1.929  25.513  0.2178 -0.0272 -0.0182
30938W        W73991  29.990  12.242  18.586  0.1813  0.0192 -0.1874
30939W        W73992  14.434  27.066  15.434  0.3930 -0.1591 -0.0688
30940W        W73993  26.720  15.605  24.503 -0.0381 -0.0168 -0.0590
30941W        W73994  30.967   8.267  25.685  0.3956  0.0249  0.2437
30942W        W73995   0.503  23.224  22.876  0.2171  0.0420 -0.2855
30943W        W73996  31.914   2.729   0.337  0.0064  0.0870  0.1548
30944W        W73997  33.259  15.225   2.735 -0.1834 -0.0420  0.1399
30945W        W73998   3.645  31.728  24.315 -0.0149  0.0332 -0.2115
30946W        W73999  31.575  32.605  22.868 -0.1479  0.2442  0.0287
30947W        W74000  20.047  32.952  21.269 -0.0860 -0.1560  0.3813
30948W        W74001  26.194   7.963  23.824  0.2114 -0.3774 -0.1499
30949W        W74002  25.360  32.688  14.624  0.0516  0.2164 -0.2662
30950W        W74003  21.238  33.525  15.777 -0.1119  0.1582 -0.2600
30951W        W74004   8.538  32.150  13.550  0.2426  0.2055 -0.0390
30952W        W74005  31.297   3.602  18.128 -0.0712 -0.0723  0.2761
30953W        W74006   5.050  31.821  28.022 -0.1534  0.0146 -0.1678
30954W        W74007   4.757   1.095  25.123  0.0694 -0.0387 -0.1154
30955W        W74008  19.204  24.906  26.770  0.2223 -0.3542 -0.1977
30956W        W74009   0.625   3.128  26.742 -0.3141  0.2790  0.0046
30957W        W74010  18.126  25.942  29.108  0.1525 -0.3140 -0.0730
30958W        W74011  29.776  32.018  21.529 -0.0992  0.3957  0.1725
30959W        W74012  32.933   5.213  19.857  0.1483 -0.3507 -0.2605
30960W        W74013  27.051   8.352  26.671  0.3640 -0.0760  0.1923
30961W        W74014  30.646  24.143  24.823  0.0187  0.3745 -0.3844
30962W        W74015  22.705  33.404  15.227 -0.3494 -0.3168 -0.2699
30963W        W74016  13.008  11.002  28.012 -0.0940 -0.1601  0.0313
30964W        W74017  20.790  31.878  16.742  0.1382  0.0173  0.0191
30965W        W74018  34.277   1.028  16.421 -0.2713  0.0152 -0.0376
30966W        W74019  29.341  11.437  16.159 -0.3234 -0.0996  0.1937
30967W        W74020  14.263  28.725  28.423 -0.1629 -0.0377  0.1621
30968W        W74021   2.295  33.747  15.702 -0.0332 -0.1020 -0.2948
30969W        W74022  10.633  11.082  19.841  0.1300  0.2344  0.1387
30970W        W74023  14.804   2.164  20.714 -0.3359 -0.0083 -0.1230
30971W        W74024   3.585  18.957  25.347 -0.3461 -0.2227 -0.2033
30972W        W74025  24.534  11.909  15.458  0.1017  0.0284 -0.1698
30973W        W74026  26.125  22.987  25.913  0.2206  0.0450  0.4132
30974W        W74027  26.687  26.564   4.778 -0.0152  0.1955  0.0534
30975W        W74028  29.127  28.538  24.519  0.1334  0.4401 -0.2868
30976W        W74029   4.634  32.305  16.735  0.0919 -0.1151  0.4425
30977W        W74030  25.861  24.567  16.216 -0.0298 -0.0174 -0.3112
30978W        W74031  33.051   7.250  23.007 -0.1291 -0.0510 -0.1815
30979W        W74032  15.514   9.482  24.461  0.2648 -0.2258  0.1244
30980W        W74033  11.649   7.022  22.350  0.1892 -0.0272  0.0020
30981W        W74034  26.449  30.319   1.839 -0.0918 -0.1374 -0.3212
30982W        W74035  23.357   1.534  24.196 -0.1011 -0.0053 -0.2267
30983W        W74036  34.396  12.262  14.960 -0.0634  0.0850  0.1108
30984W        W74037  29.333  30.418  24.447  0.0370 -0.0031  0.1108
30985W        W74038   1.336   6.316  15.774  0.0353 -0.0542  0.3520
30986W        W74039  30.472  33.601  16.114 -0.1396 -0.0345 -0.3439
30987W        W74040  29.032  11.803  15.563  0.3393 -0.1554  0.2038
30988W        W74041  12.958  16.185   4.375 -0.0459 -0.0635  0.2866
30989W        W74042   9.569   4.210  15.836  0.0799 -0.2010 -0.3044
30990W        W74043   1.297  32.034   0.286 -0.1790 -0.1669  0.1253
30991W        W74044  13.796   6.515   3.661 -0.1645  0.1312  0.2400
30992W        W74045  20.089  32.277  19.949 -0.0197  0.1301 -0.0275
30993W        W74046  13.330   4.301   3.479 -0.0295  0.0209 -0.1693
30994W        W74047  18.618  32.576  22.621 -0.0883  0.1765  0.3011
30995W        W74048  31.818  19.053  25.139  0.4090 -0.0070  0.2282
30996W        W74049  30.962   6.523  19.026 -0.1855 -0.2036  0.2557
30997W        W74050   3.712  17.840  27.269 -0.0249  0.0814 -0.1774
30998W        W74051  15.961   8.293  16.434  0.4474 -0.1659 -0.1642
30999W        W74052   8.143  34.336   3.937  0.2028  0.0409 -0.1418
31000W        W74053  34.341  22.744  28.235  0.1032 -0.0558 -0.2855
31001W        W74054   3.441  32.837  26.923 -0.0907  0.0033  0.0661
31002W        W74055  26.740   3.972   6.359 -0.0421 -0.1675 -0.1408
31003W        W74056   2.557  12.498  14.770 -0.2096 -0.0072  0.1579
31004W        W74057   9.626  15.456   3.304  0.0399 -0.0774  0.3043
31005W        W74058   8.764   7.665  25.004 -0.4322  0.0021 -0.3051
31006W        W74059  34.679  29.576   4.261 -0.1405  0.1337 -0.1644
31007W        W74060   4.322  33.025  16.417  0.0268  0.0777  0.2542
31008W        W74061   3.401  29.199   6.926 -0.1385 -0.2177  0.0355
31009W        W74062   7.265   8.991   3.025 -0.0553 -0.1520  0.0295
31010W        W74063   7.211   2.911   9.449  0.3534  0.2812  0.0834
31011W        W74064  31.287  29.290  24.143 -0.1864 -0.0490 -0.1801
31012W        W74065   9.630   5.699  27.498  0.1600  0.4857 -0.1683
31013W        W74066  24.950   7.184   9.639 -0.4886 -0.0090  0.0006
31014W        W74067   4.736  21.970  13.450 -0.2520 -0.0991 -0.0269
31015W        W74068  33.620   4.558   3.832  0.0735 -0.3073 -0.3840
31016W        W74069  31.470  25.911   2.920 -0.1797 -0.1241 -0.1516
31017W        W74070  18.167  23.885  28.585 -0.0237  0.0328  0.1432
31018W        W74071  32.795  27.378   3.876 -0.1149  0.1956 -0.0927
31019W        W74072  12.908  32.776  23.270 -0.1991 -0.1241  0.2970
31020W        W74073  23.140   4.108  14.113 -0.1115  0.1407  0.1237
31021W        W74074  29.197  15.906   5.280 -0.1802 -0.3228 -0.1188
31022W        W74075  21.090   2.068  16.947  0.0578 -0.0815 -0.0569
31023W        W74076  33.073  28.261  28.470  0.0313 -0.1252  0.0741
31024W        W74077  17.309   0.036  28.536 -0.1895  0.2824  0.1872
31025W        W74078   2.590  13.579  27.527 -0.0315 -0.0973  0.1420
31026W        W74079   7.567   1.793  26.847  0.0318  0.0817  0.0415
31027W        W74080  15.854  29.604  25.109 -0.3298 -0.2800 -0.0191
31028W        W74081  32.504  24.867   1.975  0.0075 -0.1593  0.2884
31029W        W74082  26.345   9.654   7.383 -0.1152 -0.2109  0.0525
31030W        W74083   0.532   7.759  23.247  0.1888 -0.2278  0.1845
31031W        W74084   8.057  32.750  19.277 -0.0742  0.1243 -0.2058
31032W        W74085  34.180   7.049  17.478 -0.0274  0.1940  0.0614
31033W        W74086   2.205  12.656  20.117  0.3078  0.2288  0.1019
31034W        W74087  29.127  31.027   0.507 -0.1845  0.3129 -0.1980
31035W        W74088   1.233  29.101  23.215 -0.1311  0.0947 -0.0119
31036W        W74089  20.524   8.689  21.902  0.1818  0.3750 -0.1482
31037W        W74090   8.855   3.546  24.058  0.1767 -0.0698  0.1974
31038W        W74091  29.789  27.266   2.916  0.0021 -0.3679  0.1273
31039W        W74092  26.360  31.912   8.832 -0.0879  0.0229  0.3479
31040W        W74093  15.072   2.845  25.908  0.2896  0.2324  0.1593
31041W        W74094  22.933  17.749  23.298 -0.1645 -0.1529 -0.0045
31042W        W74095  20.671   6.356  26.777 -0.6641  0.0298  0.1997
31043W        W74096   9.628  23.453  26.022  0.1649 -0.0852 -0.1136
31044W        W74097  29.386  33.995   1.988 -0.1582 -0.0897  0.0650
31045W        W74098  31.511  34.350   0.290 -0.0128  0.3804 -0.2530
31046W        W74099   4.456  26.982  24.743  0.0552 -0.3066  0.0862
31047W        W74100  27.173  31.325  15.807  0.1063 -0.0422 -0.1561
31048W        W74101   7.045  34.090  16.345 -0.0311 -0.0007  0.2801
31049W        W74102  31.793  17.890   5.583  0.0630 -0.3889 -0.1977
31050W        W74103  34.467  17.506  15.666  0.1216 -0.1765  0.1686
31051W        W74104  27.144  23.118  24.881 -0.3096 -0.1197  0.1590
31052W        W74105  14.898   4.062  17.433 -0.1024 -0.1910 -0.0949
31053W        W74106  29.494   1.001  26.543 -0.1554  0.1532 -0.2023
31054W        W74107  29.704  12.102  20.963  0.0351  0.0736 -0.0748
31055W        W74108   2.192  30.445  22.841 -0.1376 -0.0005 -0.2794
31056W        W74109   1.789  17.343   6.218 -0.1730 -0.0035  0.1558
31057W        W74110  10.278  21.293  24.378 -0.0460  0.0175  0.0162
31058W        W74111  28.738  10.843   9.000 -0.1318 -0.0733 -0.0407
31059W        W74112  19.805   3.044  27.766  0.0089  0.0369 -0.1932
31060W        W74113  11.688  21.941  21.998 -0.0764  0.0667 -0.3430
31061W        W74114  24.220  29.117  13.413 -0.1583  0.3303 -0.0540
31062W        W74115   6.984   3.572  27.867 -0.3464  0.3540 -0.0465
31063W        W74116  20.895   3.188  23.066 -0.0105  0.1311  0.2051
31064W        W74117   5.223  30.342  15.615  0.1750 -0.0706  0.1289
31065W        W74118  16.563   2.354  17.233 -0.1397 -0.1434  0.2512
31066W        W74119  32.705  18.089  26.827  0.0879 -0.0156  0.3344
31067W        W74120  21.442  33.395   4.280 -0.0832 -0.0259  0.0174
31068W        W74121  19.135  31.945   9.333  0.0742  0.1666 -0.0436
31069W        W74122  11.937   5.750  15.242  0.1490  0.2732  0.2055
31070W        W74123  14.238  14.865  21.823 -0.0745  0.0237 -0.1191
31071W        W74124  20.248   0.528  25.350 -0.0952  0.0139 -0.2185
31072W        W74125  27.762  21.903   0.600 -0.0736  0.0459  0.4895
31073W        W74126  29.095  27.410  24.231  0.2166 -0.0878 -0.1044
31074W        W74127  19.169  14.259  20.308 -0.4785  0.1366 -0.2477
31075W        W74128  23.936  32.061  20.543  0.1039  0.0531  0.1849
31076W        W74129  27.158   3.264   2.560  0.3906 -0.0420 -0.0078
31077W        W74130  24.927   5.635  19.660  0.2011  0.0204  0.0695
31078W        W74131  12.469  28.440   0.706 -0.0949  0.1978  0.0144
31079W        W74132  23.541   5.626   4.989  0.2128 -0.1083 -0.1469
31080W        W74133   5.054  26.886  27.644  0.2177  0.1453 -0.1480
31081W        W74134  31.557   4.898  20.027 -0.1980 -0.1553 -0.0602
31082W        W74135  15.560   2.818  18.683 -0.1380  0.0581  0.2061
31083W        W74136  29.310   5.789  16.265 -0.3161 -0.1555  0.1310
31084W        W74137  12.694   2.850   9.344  0.0070 -0.0731 -0.1001
31085W        W74138   1.916  25.621  15.085 -0.0328 -0.2851  0.1747
31086W        W74139  32.262  28.455  19.611 -0.0529 -0.1089 -0.0848
31087W        W74140  19.048   7.445  14.741 -0.1053 -0.0993 -0.2778
31088W        W74141  27.743  13.236  21.242  0.4037 -0.0200  0.2040
31089W        W74142   7.414  11.197  20.910 -0.0201  0.1784  0.0360
31090W        W74143  34.560   6.972  29.069 -0.0422 -0.0850  0.2237
31091W        W74144   1.762  31.939  21.152 -0.1567 -0.2862  0.0321
31092W        W74145   5.433  32.030  19.380  0.1893 -0.0966  0.3847
31093W        W74146  16.747   0.975  18.456 -0.0347 -0.0280  0.1314
31094W        W74147   7.854  28.138   3.164 -0.2818  0.0081  0.1252
31095W        W74148  31.346  17.141  27.848  0.1214 -0.3049 -0.2475
31096W        W74149   7.060  31.089  18.801  0.0176  0.3472 -0.1674
31097W        W74150   2.918   7.952  27.377  0.0140 -0.1556  0.0026
31098W        W74151  31.143   7.772  20.550 -0.2053  0.1134  0.2621
31099W        W74152   5.317  12.522  17.571  0.4402 -0.1870  0.1459
31100W        W74153   6.632   0.367  28.319  0.0163  0.2218  0.1175
31101W        W74154   3.957  23.165  14.436  0.1942  0.1168  0.0004
31102W        W74155  26.680   7.784   4.652 -0.2002  0.1721 -0.2782
31103W        W74156  30.632  27.294   8.938 -0.0402  0.1704  0.0962
31104W        W74157  26.504  11.561  21.906  0.1056 -0.1722  0.1819
31105W        W74158   1.784  28.504  24.036  0.2652 -0.0074  0.2385
31106W        W74159  26.349  33.779   6.591 -0.2138 -0.0038 -0.3029
31107W        W74160  33.522  28.805  27.679 -0.2230  0.0204 -0.0761
31108W        W74161  25.507  30.736  19.455 -0.2792 -0.2631  0.1502
31109W        W74162  12.640  28.062  22.448 -0.1256 -0.0268  0.4626
31110W        W74163  29.654  27.472  25.123  0.1583 -0.0273  0.0643
31111W        W74164  13.124  27.914  27.721 -0.0293  0.3984 -0.0342
31112W        W74165  34.681  27.757  18.095  0.0576  0.1277 -0.1066
31113W        W74166   7.856  31.404  17.607 -0.0925  0.3101  0.0359
31114W        W74167  24.901  32.726  27.511 -0.1190  0.0212 -0.2118
31115W        W74168  21.913  26.329  20.122 -0.0378  0.0257 -0.0135
31116W        W74169  10.287  17.825  27.192 -0.0047  0.1296 -0.0850
31117W        W74170  15.077   6.196  21.926 -0.0441  0.2045 -0.1573
31118W        W74171  28.820  18.185  18.629 -0.1346 -0.1181  0.1243
31119W        W74172  30.676  30.548  16.557  0.1576  0.2239  0.1958
31120W        W74173  29.608  10.121  28.425 -0.0956  0.0679  0.2200
31121W        W74174  16.087  30.729   3.718 -0.1053  0.2312 -0.2655
31122W        W74175  32.458  13.828  27.796  0.1799 -0.1542  0.3555
31123W        W74176  27.422   3.922   7.660  0.1298 -0.0912  0.0132
31124W        W74177   8.859  24.947  16.359  0.1418 -0.1488 -0.1630
31125W        W74178   5.885  11.954   5.974  0.1180  0.1101 -0.3542
31126W        W74179  29.719  20.497  19.277  0.1491 -0.2137  0.0250
31127W        W74180  21.650  11.491  23.975 -0.2655 -0.2145 -0.1901
31128W        W74181  30.394   8.312  20.515 -0.0933  0.3956 -0.0174
31129W        W74182  19.494  15.575  22.128  0.1864 -0.3492 -0.0726
31130W        W74183  33.804  10.268   3.574 -0.0286  0.0804 -0.1264
31131W        W74184   4.571  33.474   5.416 -0.1462  0.1733  0.0823
31132W        W74185  32.326  13.405  14.199  0.0043 -0.1297 -0.1038
31133W        W74186   4.600  27.728   0.074 -0.3687  0.2030 -0.2221
31134W        W74187  27.868   5.832  20.815  0.2998 -0.0388 -0.2097
31135W        W74188   1.549  29.058   8.287  0.0100  0.0344 -0.2270
31136W        W74189   2.498   4.170  19.852 -0.0415 -0.2235 -0.2634
31137W        W74190  27.756   8.544   4.431 -0.0654  0.1440 -0.0028
31138W        W74191  21.615   8.209   7.705  0.3728  0.1722 -0.1393
31139W        W74192  34.279  30.730  23.085 -0.2004  0.0188  0.0716
31140W        W74193   5.052  14.904  24.876 -0.0788 -0.1961 -0.1132
31141W        W74194  27.640   8.767  23.298  0.1334 -0.0980 -0.1259
31142W        W74195   1.417   0.709   0.866 -0.2300 -0.0694  0.1298
31143W        W74196  23.023  30.900  19.959  0.2298 -0.0308 -0.3046
31144W        W74197  33.534  24.736  27.663 -0.3392  0.1440  0.1442
31145W        W74198  32.582  15.311   2.994 -0.2201 -0.1385  0.5681
31146W        W74199   5.471   1.381  16.157  0.0324  0.2532 -0.0792
31147W        W74200   6.230   0.199  15.839 -0.1130  0.3254  0.1854
31148W        W74201   0.257  34.511  21.970  0.2054 -0.1070 -0.0126
31149W        W74202  28.366   7.445  14.824  0.2164  0.0377  0.1976
31150W        W74203   3.427  34.313  19.310  0.0960 -0.1021 -0.2426
31151W        W74204   2.899   4.078  25.861  0.4260 -0.2404  0.0168
31152W        W74205  17.442   5.182   3.986 -0.0676  0.1123  0.1435
31153W        W74206   6.584  28.806  20.040 -0.0297  0.0794  0.1763
31154W        W74207  19.915  10.876  18.024  0.2313  0.0520  0.0696
31155W        W74208   6.854  12.792  21.903  0.0588 -0.2131  0.3404
31156W        W74209   2.686  17.113  13.738 -0.1266 -0.0515  0.0973
31157W        W74210  18.289  32.832  10.460  0.0527  0.0631 -0.1889
31158W        W74211  20.875   5.066  23.061 -0.0558  0.2556  0.1254
31159W        W74212  28.474   6.083  26.825  0.0636  0.3696 -0.1456
31160W        W74213   6.975  29.294   6.121 -0.3524  0.1035 -0.2006
31161W        W74214   0.403  10.190  25.003  0.0020 -0.2156  0.1135
31162W        W74215  30.664   8.180  26.561 -0.2460  0.0469  0.2370
31163W        W74216  18.565  11.216  25.629  0.1378 -0.0604  0.2442
31164W        W74217  27.940  14.650  17.414 -0.0961 -0.2095 -0.2947
31165W        W74218   0.980  34.085  16.910 -0.0491 -0.2808  0.1103
31166W        W74219  28.963  34.034  27.594  0.2467  0.3638  0.0216
31167W        W74220   0.198   8.850  28.876  0.0770  0.1209 -0.2309
31168W        W74221  24.831   2.499  20.988  0.4134  0.4187  0.1762
31169W        W74222   7.612   1.087  21.691  0.2256 -0.1743  0.0460
31170W        W74223  13.227  21.157   7.928  0.1160 -0.2252  0.1316
31171W        W74224   1.036   6.240  18.033  0.0463  0.1780  0.0286
31172W        W74225   7.725  10.117   9.519  0.0297  0.2205  0.2031
31173W        W74226   6.573   3.520  21.933 -0.1791  0.2369 -0.1102
31174W        W74227   1.542   6.951  23.816 -0.5072  0.4733  0.2282
31175W        W74228  30.146   9.979  26.107  0.3262  0.1436 -0.0315
31176W        W74229  22.691   3.007  25.410  0.1110 -0.1412 -0.1763
31177W        W74230  28.388   0.865   0.424  0.2793 -0.3300 -0.3140
31178W        W74231  29.950  31.395  27.383  0.0339  0.2120  0.1571
31179W        W74232  15.418   6.583  24.314  0.0514  0.2773 -0.2350
31180W        W74233   0.550  10.075  16.849 -0.1786 -0.3329  0.3752
31181W        W74234  33.650   5.725   4.070 -0.3113 -0.0868 -0.3640
31182W        W74235  20.509  24.769   8.156  0.2414  0.3974 -0.0999
31183W        W74236  32.196   4.918   6.255 -0.1405 -0.0411 -0.0528
31184W        W74237  34.036  15.750  10.062  0.2781  0.1833 -0.1068
31185W        W74238  20.449  25.673  23.647  0.1017  0.1158 -0.1471
31186W        W74239  26.635  33.735  18.956 -0.0623  0.0872  0.2137
31187W        W74240  25.223  12.374  15.908  0.0327  0.1131  0.1563
31188W        W74241  30.648  16.805   0.874 -0.0990 -0.1763  0.1881
31189W        W74242  24.282  13.076  23.893  0.0178 -0.0973  0.3464
31190W        W74243  19.452  14.969  24.255  0.3151 -0.0684 -0.0088
31191W        W74244  26.621   1.421   5.900  0.0546  0.0580 -0.0109
31192W        W74245   8.255  14.127  19.793  0.0985 -0.0140  0.0321
31193W        W74246   8.687  31.924  28.770  0.0365 -0.2989  0.1439
31194W        W74247   3.003  10.136  26.766  0.0185 -0.0720 -0.0171
31195W        W74248  28.014   7.995   2.786 -0.1768 -0.0296 -0.1981
31196W        W74249  30.975  11.833  15.025  0.1023  0.1141 -0.3723
31197W        W74250   1.544  29.137  21.625 -0.3216  0.0356  0.2889
31198W        W74251  29.079  16.897   2.395 -0.1964 -0.4044 -0.1608
31199W        W74252  33.371   0.372  15.593 -0.2597  0.0319  0.0412
31200W        W74253  28.017   0.524  22.116  0.4671  0.2467 -0.0443
31201W        W74254  31.440  32.917  17.632 -0.0008 -0.0941  0.1534
31202W        W74255  34.082   2.127  28.652  0.2068  0.1644 -0.2844
31203W        W74256   9.562  30.946  22.393 -0.0438 -0.3239  0.0799
31204W        W74257  26.044   2.310  22.326  0.0773 -0.2404  0.1614
31205W        W74258   9.326  31.789  26.829  0.1948  0.4469  0.1391
31206W        W74259  34.640   4.105   1.044  0.2158 -0.2870 -0.1600
31207W        W74260  29.310   1.285  28.556 -0.0066  0.1894 -0.1132
31208W        W74261   0.645   8.340  17.890 -0.0963  0.0298  0.1509
31209W        W74262  15.712  28.425  27.365  0.2467  0.5384 -0.2949
31210W        W74263  16.652   0.320   1.574  0.1655  0.0259 -0.0045
31211W        W74264  26.585   3.615   5.079  0.2877  0.1689 -0.0301
31212W        W74265  14.434  31.487   4.418  0.1083  0.0827 -0.3041
31213W        W74266  12.239  14.937  25.824  0.0476  0.2391 -0.1172
31214W        W74267  27.122   6.424  15.811  0.0799  0.0364  0.0383
31215W        W74268   8.006   4.212  20.067 -0.0513  0.1697  0.0467
31216W        W74269  26.694   1.624  24.840  0.0401 -0.0612 -0.1205
31217W        W74270  25.474   9.782   7.844  0.0475  0.0493  0.1960
31218W        W74271  31.101   5.081  19.263  0.1777 -0.1216 -0.0840
31219W        W74272   4.210  33.861   1.748 -0.2142  0.1374 -0.2677
31220W        W74273   6.815  11.241  26.349 -0.1331  0.2438  0.1117
31221W        W74274   1.415  32.073  23.602 -0.0180  0.1096 -0.3932
31222W        W74275   4.759   0.447  28.952  0.3534  0.3633  0.0431
31223W        W74276   2.798  30.748  18.085 -0.3679  0.1449  0.3258
31224W        W74277  24.020  16.559  22.102 -0.0402 -0.1543  0.1735
31225W        W74278  33.504   2.842  25.863 -0.0481  0.1422  0.1582
31226W        W74279  28.095   6.741   0.289  0.0266  0.3055  0.1444
31227W        W74280  29.890  29.926  13.903 -0.2431  0.3650 -0.1022
31228W        W74281   5.200  31.639  21.884  0.2631 -0.2985  0.3710
31229W        W74282  17.108  32.026  19.928  0.1045 -0.1537 -0.0598
31230W        W74283  18.692   7.925  19.023 -0.4058 -0.4383  0.0237
31231W        W74284   1.811   8.854  20.509  0.2366 -0.2866 -0.1719
31232W        W74285   8.360   2.025   6.433 -0.0823 -0.0101 -0.1711
31233W        W74286  29.125  32.684  16.492 -0.0427  0.2021 -0.0599
31234W        W74287   6.551  25.719  27.824 -0.2512 -0.1278 -0.0449
31235W        W74288  16.305  24.325  15.584 -0.1101 -0.0299 -0.0656
31236W        W74289   4.879   2.450   4.048 -0.2461 -0.2117  0.2161
31237W        W74290  25.119   7.118  16.619 -0.3124 -0.2218  0.1364
31238W        W74291  19.913  27.645  23.853  0.1559  0.2638  0.1590
31239W        W74292   0.192   0.108  17.792  0.1557 -0.0792  0.2384
31240W        W74293  34.289  11.636  27.859  0.0112 -0.0249  0.1744
31241W        W74294   3.998  28.671  22.649  0.2302  0.0660  0.0027
31242W        W74295  14.274  14.756  24.739  0.1618 -0.1955 -0.1229
31243W        W74296  23.910  31.259  15.141  0.1828 -0.3218 -0.3525
31244W        W74297  20.462   7.535  23.083 -0.0225 -0.1044 -0.0075
31245W        W74298  24.705  17.207  15.922  0.3729 -0.0597  0.0191
31246W        W74299  10.283   5.752  23.241 -0.0319  0.0372 -0.2493
31247W        W74300  29.159  20.901  25.405  0.0106  0.1647 -0.2543
31248W        W74301  16.094  24.913   0.811 -0.1169 -0.0583  0.0862
31249W        W74302  26.361  10.915   2.900  0.1730 -0.3219 -0.4261
31250W        W74303  21.409  10.628   2.372  0.2733 -0.0490 -0.2678
31251W        W74304  32.286   3.307   2.490 -0.0366 -0.0465  0.1723
31252W        W74305   2.302  27.928  20.443 -0.2653 -0.0294  0.1643
31253W        W74306   3.091   2.873  13.915  0.1718 -0.2164 -0.1252
31254W        W74307  28.503  32.996  29.005  0.0449  0.2169 -0.0143
31255W        W74308  22.785   1.249   7.844 -0.2370 -0.1809  0.2596
31256W        W74309  33.931  10.635  15.881 -0.0012 -0.1077 -0.1976
31257W        W74310  31.967  11.528  26.785 -0.2761  0.2591 -0.1098
31258W        W74311  19.512  31.363  14.633  0.0602  0.1595 -0.2455
31259W        W74312   5.233   5.852   2.479 -0.0109  0.1917  0.1435
31260W        W74313   1.660   3.151  23.717 -0.2623  0.2011  0.0197
31261W        W74314  32.509   8.738  19.593  0.3029  0.1042 -0.0345
31262W        W74315  32.054   4.218  21.070 -0.0423 -0.1326  0.2605
31263W        W74316   9.491  25.091  27.296 -0.1613 -0.2135  0.1705
31264W        W74317  32.872   8.316   3.961 -0.0903  0.0090 -0.1122
31265W        W74318  16.713  28.328  19.753 -0.0106 -0.0004  0.0182
31266W        W74319   2.229   0.981  18.583 -0.1078  0.0271 -0.0329
31267W        W74320  34.311   5.362  22.170 -0.0161 -0.1596 -0.0614
31268W        W74321  33.628   9.760   8.799  0.1447  0.0963 -0.0480
31269W        W74322  22.279  34.515   2.632  0.0958  0.1271  0.1134
31270W        W74323  29.598  26.574  13.947  0.0003  0.1167  0.0835
31271W        W74324   0.708  34.671  14.145  0.0697 -0.0205  0.3213
31272W        W74325   3.411   8.212  24.562  0.0339 -0.3011  0.1371
31273W        W74326   7.612  13.172   1.125 -0.3872  0.1068  0.1667
31274W        W74327  31.724   0.186   2.316 -0.2720  0.2055  0.0830
31275W        W74328  28.946  29.653   4.749  0.0840  0.1896 -0.1699
31276W        W74329   7.522   7.013   3.423  0.2571 -0.1510 -0.0024
31277W        W74330  32.465   5.039  10.110  0.1091 -0.1632 -0.0973
31278W        W74331  33.111   4.345  17.867 -0.1433  0.4217  0.0946
31279W        W74332  30.142  22.353  26.405  0.0392 -0.1905  0.2432
31280W        W74333  24.914   7.326  26.896 -0.2642  0.1807 -0.1082
31281W        W74334  32.325   6.204  15.619 -0.0510  0.3688  0.0995
31282W        W74335  22.224   3.976  15.689 -0.0632 -0.1619  0.1086
31283W        W74336  26.283  14.915  26.533  0.0431  0.0263 -0.0238
31284W        W74337   6.860   2.661  22.391 -0.0410 -0.0148 -0.0832
31285W        W74338  33.746   2.962   2.547  0.0382 -0.0992 -0.0079
31286W        W74339  30.059   5.854   3.353  0.0795 -0.3084 -0.0802
31287W        W74340   8.956   7.772   8.058  0.1154 -0.1724  0.0747
31288W        W74341  32.718  21.321  16.222  0.0956 -0.1303  0.0208
31289W        W74342  23.775  26.500  19.960 -0.0850 -0.4152 -0.3234
31290W        W74343  21.882  31.355  27.973 -0.1667  0.1902  0.1353
31291W        W74344  25.966   4.894  22.232  0.0792 -0.3691 -0.4130
31292W        W74345  26.706   6.840  17.848 -0.0123  0.0946 -0.0530
31293W        W74346   1.561   7.233  20.124  0.1911  0.3536  0.2610
31294W        W74347  24.782  13.715  23.321  0.2450  0.0223  0.2432
31295W        W74348   4.125   8.319  26.674 -0.1946 -0.0313  0.0853
31296W        W74349  23.159   8.700  16.676  0.1005 -0.1008  0.0952
31297W        W74350   0.077   6.942  21.815  0.2951 -0.2057 -0.0026
31298W        W74351   0.166  19.876  26.410  0.0138 -0.3001 -0.2679
31299W        W74352   1.853   9.138  29.069  0.0063 -0.0851 -0.0632
31300W        W74353   8.134   7.073  19.858  0.4223 -0.0477 -0.0373
31301W        W74354  18.127   5.726  18.832  0.0151 -0.3005 -0.1798
31302W        W74355  33.643   2.187  14.122  0.1641  0.3860 -0.0716
31303W        W74356  30.020   7.717  15.654 -0.2499  0.1186  0.1338
31304W        W74357   2.780   8.916   7.454  0.0352  0.0195  0.0137
31305W        W74358  29.894   5.105  10.418 -0.1373 -0.4451 -0.1476
31306W        W74359  20.188  21.635  23.324  0.0271 -0.4250  0.0744
31307W        W74360  33.747  12.587  22.132 -0.2589 -0.1863 -0.1200
31308W        W74361   4.210  34.558  16.031 -0.1809  0.1528  0.0143
31309W        W74362  25.440   3.055  22.530 -0.1135  0.0813 -0.0113
31310W        W74363  33.793  19.745  16.728  0.0046  0.0105  0.1959
31311W        W74364  28.371  15.912  24.977  0.0582 -0.2163 -0.1466
31312W        W74365   3.518  25.246  20.222 -0.0808  0.0367 -0.0331
31313W        W74366  17.702  16.140  26.384  0.3432 -0.1542  0.1545
31314W        W74367   6.106  23.700   6.089  0.3369 -0.0704 -0.2708
31315W        W74368   8.477   0.711  15.657 -0.0847  0.0117 -0.3018
31316W        W74369  26.950  22.711  18.840 -0.0356 -0.2866 -0.0080
31317W        W74370  30.035  11.229  20.922  0.0431 -0.1532  0.1836
31318W        W74371   7.184   4.479   2.594  0.1269  0.0288 -0.0229
31319W        W74372   4.621   0.457  16.535 -0.0869  0.3579 -0.0983
31320W        W74373   0.215  10.351  17.930 -0.2103  0.0260  0.1607
31321W        W74374  33.735  33.939  21.100 -0.2113 -0.2161 -0.1303
31322W        W74375  26.550   6.099  18.391 -0.0368  0.3008  0.0034
31323W        W74376  20.247  13.112  22.146 -0.0850  0.3314  0.1378
31324W        W74377  29.238  10.560  26.351  0.2214 -0.1681  0.2591
31325W        W74378  10.129   5.561  21.345 -0.2742 -0.3849 -0.1300
31326W        W74379  31.609  15.188   3.422 -0.0338 -0.0154  0.0120
31327W        W74380  11.796   0.932   2.301 -0.2112  0.1752  0.1350
31328W        W74381  18.845  28.902  18.929  0.2137  0.0538 -0.2455
31329W        W74382  10.275   6.117  21.392 -0.1009 -0.0133  0.0570
31330W        W74383  13.752  15.055  21.928  0.0893 -0.4706  0.0218
31331W        W74384   1.543   5.211  14.874 -0.1386  0.0830 -0.2065
31332W        W74385  31.773  15.357  16.312  0.1028  0.1252 -0.0706
31333W        W74386   0.178  29.115  15.017 -0.0489 -0.1807  0.0859
31334W        W74387  25.140   8.156  27.484 -0.0720 -0.3264  0.2132
31335W        W74388  16.920  21.772  14.724  0.1068  0.1123  0.2105
31336W        W74389  20.874   3.437  20.824 -0.1467  0.4233  0.0649
31337W        W74390  26.346  11.696  15.293 -0.1741 -0.0747 -0.0867
31338W        W74391   8.969  27.409  24.582  0.1500  0.0380 -0.1092
31339W        W74392   7.901  25.668   4.672  0.2720  0.2378  0.3207
31340W        W74393   5.086   6.163  20.013  0.0730  0.0152 -0.0547
31341W        W74394   3.114   5.981  17.382 -0.0599 -0.0986  0.1569
31342W        W74395  25.546   4.893  14.472 -0.0351  0.0559  0.0263
31343W        W74396   0.797   4.207   1.782 -0.0541 -0.0985  0.1085
31344W        W74397  18.851  24.098  14.956 -0.2307  0.0785 -0.2189
31345W        W74398  25.044  25.117  29.040  0.0337 -0.2530  0.0537
31346W        W74399   3.241   8.225  15.131 -0.0771  0.1164  0.1067
31347W        W74400   7.469   4.745   1.760  0.0028  0.2073 -0.1987
31348W        W74401   3.761   0.149  23.447  0.1480  0.0279  0.3370
31349W        W74402  10.371  16.060  15.583 -0.1961  0.1517 -0.0325
31350W        W74403   5.325  14.352  17.192  0.0335 -0.2778 -0.2289
31351W        W74404  16.189  26.572  18.287  0.0357 -0.0855  0.1392
31352W        W74405  22.586  10.927  21.375 -0.1819 -0.1214 -0.0274
31353W        W74406  23.744   5.570  10.019 -0.2522  0.2044  0.2690
31354W        W74407  13.537  29.920  14.244  0.1342 -0.0129  0.0053
31355W        W74408   3.602  11.437  17.872 -0.0373  0.0846  0.1357
31356W        W74409  21.854  24.485  20.738 -0.0032 -0.1995 -0.2485
31357W        W74410  28.655  29.839   3.260 -0.2581 -0.3076 -0.0204
31358W        W74411  30.948  30.470  19.601 -0.2572  0.2919 -0.0032
31359W        W74412  26.931  27.799  28.339 -0.0526  0.2478 -0.0190
31360W        W74413   2.047   9.655   1.811 -0.2999  0.2101  0.1238
31361W        W74414  32.372   5.610   7.348  0.0016  0.2373 -0.1410
31362W        W74415  21.784  28.869   7.328 -0.0487 -0.1739  0.0545
31363W        W74416  20.213   2.736  18.080  0.1471 -0.1803  0.1314
31364W        W74417   6.725   5.031  22.550 -0.2402 -0.1739  0.0604
31365W        W74418  29.724  29.755  22.163  0.2902 -0.0407 -0.1005
31366W        W74419  33.446  12.161   5.413 -0.1620 -0.0147 -0.0969
31367W        W74420   1.522  28.772   5.836 -0.1938 -0.3707  0.0906
31368W        W74421   4.386  25.946  16.226 -0.1268  0.1596  0.0048
31369W        W74422  26.427   0.495  20.903 -0.4368  0.0791 -0.0153
31370W        W74423   2.098  31.819   1.130  0.0474  0.1147 -0.0757
31371W        W74424  27.655   4.787  14.107  0.2116  0.1887  0.2287
31372W        W74425   8.765  34.663   7.031  0.1903 -0.0241  0.0370
31373W        W74426   3.127   7.185   7.359 -0.3179  0.0339 -0.2572
31374W        W74427  19.297   3.208  21.131  0.2959 -0.2826 -0.0136
31375W        W74428   0.579  34.527   1.926  0.1105 -0.0241 -0.1121
31376W        W74429  17.675  11.548  22.756 -0.2559  0.0461  0.2965
31377W        W74430   3.710  16.450  28.134 -0.2518 -0.0370  0.3591
31378W        W74431  29.375  21.294  20.973 -0.4438 -0.0220  0.1285
31379W        W74432   0.168   0.285  16.521  0.0146 -0.0319  0.1640
31380W        W74433  24.848   1.260  14.718  0.0659 -0.0269  0.0308
31381W        W74434   1.016  15.676  16.473  0.3481  0.3013 -0.0051
31382W        W74435  23.100   3.701  25.237  0.2881  0.1504  0.1851
31383W        W74436  26.708  32.030  16.328  0.2279  0.0343 -0.0541
31384W        W74437   2.773   9.218  26.652 -0.2287 -0.1545 -0.1740
31385W        W74438  26.479  14.216  21.092 -0.1395  0.0777  0.2635
31386W        W74439  31.753  14.283   4.629 -0.3236 -0.4478 -0.0311
31387W        W74440  29.053  21.375  21.998 -0.0169  0.0944 -0.1181
31388W        W74441  14.539   1.384  28.304  0.0502 -0.2505 -0.2771
31389W        W74442   9.238   5.185  29.113 -0.1247 -0.0021  0.0311
31390W        W74443  34.040   0.466  13.439 -0.0968 -0.0354  0.0984
31391W        W74444  23.722   7.924  26.561  0.0276  0.1643 -0.1237
31392W        W74445  25.317  30.259  17.849  0.1639 -0.0317 -0.4234
31393W        W74446  29.949  29.284   0.127 -0.0250  0.2208  0.0429
31394W        W74447  33.271  29.099  22.732  0.0558  0.2700  0.0046
31395W        W74448  13.643   7.835  27.478 -0.1252 -0.1849 -0.0752
31396W        W74449  19.184  25.859  24.082  0.0730 -0.0425  0.1781
31397W        W74450   1.345  13.964   9.386  0.0355 -0.2417  0.0301
31398W        W74451   6.092  21.412  26.273 -0.2000 -0.1191 -0.0128
31399W        W74452   2.216   4.168   0.344  0.1488 -0.2747 -0.0601
31400W        W74453   7.384   2.395  15.407 -0.1280 -0.1574 -0.0982
31401W        W74454   0.274   5.256  28.344 -0.0134 -0.0498  0.1631
31402W        W74455  19.906  33.157  23.488  0.1315  0.3180  0.1605
31403W        W74456  29.659   3.574  27.264 -0.2399  0.1001 -0.2615
31404W        W74457  27.343   6.572  24.461  0.1195  0.1317  0.2575
31405W        W74458  26.541  20.583   5.970  0.0375 -0.2230  0.0634
31406W        W74459  20.098  32.184  26.973  0.4860  0.3152 -0.0283
31407W        W74460  11.304  10.451   0.524  0.2358 -0.2538 -0.4287
31408W        W74461  29.494  22.039  18.108 -0.2363 -0.0506 -0.0658
31409W        W74462  23.292  21.862   7.486 -0.4287 -0.0169  0.0195
31410W        W74463  29.746  14.285  18.386  0.1176  0.0904 -0.1668
31411W        W74464  34.419   1.407   7.234  0.1023 -0.0461  0.2184
31412W        W74465  29.998  15.010   8.213  0.1305  0.3765 -0.1860
31413W        W74466  31.220  12.364  17.529 -0.0893 -0.0710  0.0023
31414W        W74467  19.768  14.524  15.216  0.1251 -0.1721 -0.0679
31415W        W74468   8.443   3.542  21.779  0.0128 -0.0916  0.0224
31416W        W74469   2.935  10.037  28.076 -0.0070  0.0767  0.0149
31417W        W74470  32.713   4.749  21.063  0.0596  0.3540 -0.0067
31418W        W74471  32.824   5.304  23.582 -0.0873  0.1142  0.1702
31419W        W74472  20.238   5.471  18.743  0.1823 -0.1626  0.0110
31420W        W74473  31.873   0.417  25.168 -0.0099 -0.0096 -0.1270
31421W        W74474  30.770   4.195  26.012 -0.1907  0.3181 -0.2972
31422W        W74475  17.624   4.982  27.378  0.1268  0.0863  0.0141
31423W        W74476  28.818  25.527   6.801  0.2562  0.0223 -0.0359
31424W        W74477  23.009   1.889   6.109  0.0630 -0.3869 -0.0170
31425W        W74478  23.618  10.579  25.749  0.1103  0.1518 -0.2342
31426W        W74479  30.636   4.626  28.030 -0.0891  0.1029  0.3283
31427W        W74480   4.922  19.218   8.946  0.0130  0.4176  0.0218
31428W        W74481  30.794  33.281  15.441 -0.2091  0.3329 -0.2507
31429W        W74482   7.400  31.504  26.774  0.1802  0.3584 -0.0208
31430W        W74483  11.030   6.901  16.035 -0.2239 -0.0710 -0.3229
31431W        W74484  30.463  24.891  26.781  0.1160  0.2380 -0.0036
31432W        W74485  26.401   6.692   6.562 -0.0937 -0.1319 -0.0829
31433W        W74486  33.737  24.741  15.234  0.0249  0.0045 -0.0443
31434W        W74487  27.559   4.985   3.986 -0.1752  0.3071 -0.1457
31435W        W74488   6.306   4.647   7.459 -0.2034 -0.0291  0.1660
31436W        W74489  31.010  12.359   1.853 -0.1315 -0.4285 -0.3265
31437W        W74490  15.742  28.237  25.803 -0.1986 -0.0883 -0.1133
31438W        W74491  32.104  19.624   5.217 -0.4014 -0.1638  0.2034
31439W        W74492   3.258  12.372   5.983 -0.0082  0.0131 -0.0529
31440W        W74493   1.144  29.693  16.099  0.2375 -0.1273  0.2265
31441W        W74494  32.892  26.953  15.318  0.1674 -0.3480 -0.0494
31442W        W74495  24.316  10.829  20.820  0.3301 -0.2293 -0.0461
31443W        W74496  31.027   9.994  20.142  0.0683 -0.0733 -0.3185
31444W        W74497   7.300   6.158  22.754  0.0771 -0.3282 -0.0493
31445W        W74498  19.865  11.715  14.575 -0.2088  0.0430 -0.0744
31446W        W74499  21.162   7.756  22.396 -0.1952  0.0356 -0.0623
31447W        W74500  11.443  20.195  15.078  0.0809 -0.2112 -0.0994
31448W        W74501  20.430  13.069   6.378  0.0001 -0.0984  0.1475
31449W        W74502  24.585   1.896  27.585  0.0669  0.1636 -0.2257
31450W        W74503  33.495  15.528  27.170 -0.4224  0.3190  0.0708
31451W        W74504  12.335   9.826  20.667 -0.0758 -0.0849 -0.3367
31452W        W74505  24.905   7.872  25.795 -0.2921  0.3679 -0.0314
31453W        W74506  21.386   0.525   3.542 -0.0328  0.1640 -0.1808
31454W        W74507  20.453   7.949  24.280 -0.2191 -0.1180 -0.2590
31455W        W74508   7.658   9.018   1.089 -0.1060  0.0445  0.0601
31456W        W74509  28.885  25.138   0.300  0.0721 -0.5991  0.1635
31457W        W74510  26.664  30.576   9.503  0.0308  0.0993 -0.3173
31458W        W74511  19.065   9.367  24.379  0.0344 -0.1366 -0.1563
31459W        W74512  16.590  29.938   7.566 -0.1163  0.2999  0.3668
31460W        W74513  29.383   3.522  16.817 -0.1594 -0.0769  0.0506
31461W        W74514  15.908   9.033   7.542  0.2697  0.3125  0.2285
31462W        W74515  13.181  22.324  21.303 -0.0438  0.0836 -0.4125
31463W        W74516  29.866   4.545  19.935  0.2789  0.1553 -0.3687
31464W        W74517  29.071   5.300  26.078  0.1468  0.2192 -0.0473
31465W        W74518  32.062  20.570  16.225  0.3857  0.2047  0.2384
31466W        W74519  32.785   7.394   4.502  0.0418 -0.0571  0.3030
31467W        W74520   2.289   4.475   3.505  0.0623 -0.2270  0.3091
31468W        W74521  28.690  28.447  14.258  0.4263 -0.1537 -0.1940
31469W        W74522  29.062   5.939  17.915 -0.1085 -0.2609 -0.2702
31470W        W74523  24.799  12.358  20.864 -0.1900  0.1898  0.4347
31471W        W74524   2.233   1.654  28.721  0.2091  0.0488 -0.2059
31472W        W74525   6.434   3.279   6.206  0.0576  0.1474  0.0383
31473W        W74526   9.110  15.653  19.161 -0.2016  0.0789  0.0112
31474W        W74527  26.098  33.148  10.123  0.0479  0.1111 -0.2206
31475W        W74528   3.920  29.614  20.694 -0.0376 -0.2523  0.0004
31476W        W74529   4.528   6.369  10.433  0.2947  0.2857  0.1289
31477W        W74530  30.591  22.063  17.256  0.2198 -0.0573  0.2281
31478W        W74531  25.202  31.265  22.235 -0.1092 -0.3944 -0.0648
31479W        W74532  28.720   2.831  23.144  0.2088  0.2629  0.1151
31480W        W74533  24.105  28.674  14.473 -0.1876 -0.1750 -0.2042
31481W        W74534  27.323  33.093  20.534 -0.0706 -0.1119  0.0819
31482W        W74535  11.522  23.664  24.375  0.0086  0.2412 -0.2021
31483W        W74536  28.429   5.085   1.802 -0.0071 -0.4402 -0.0711
31484W        W74537   7.759  28.222  26.477  0.2706 -0.1823  0.2745
31485W        W74538  22.414  10.931  15.549  0.0601  0.0211  0.2618
31486W        W74539  21.947  22.767  23.947 -0.2321  0.0347  0.0674
31487W        W74540  30.494   3.381  15.373 -0.0242  0.1969  0.3267
31488W        W74541  23.493  23.009  21.566  0.0059 -0.1900  0.1516
31489W        W74542  31.656   5.881   4.673  0.3343 -0.0496  0.2114
31490W        W74543  24.544   5.674  28.056  0.2853  0.0922 -0.0269
31491W        W74544  28.951  32.179  28.824 -0.4965 -0.0283 -0.0989
31492W        W74545  26.002   7.725  18.817  0.0518  0.1399 -0.1078
31493W        W74546  30.450  21.188   7.037  0.2678 -0.2358  0.1773
31494W        W74547   0.419  10.982   3.953 -0.2044  0.0945 -0.1415
31495W        W74548  28.040  30.122  21.982 -0.2199  0.0745 -0.1271
31496W        W74549   7.228   3.447  23.027  0.3096 -0.1467  0.1107
31497W        W74550  23.648  28.621   7.320  0.0134 -0.1067  0.0776
31498W        W74551  23.224   9.206  27.875  0.0261  0.2706  0.0217
31499W        W74552   3.800  31.834  27.824 -0.1492 -0.3418  0.0429
31500W        W74553  24.199   8.117  25.294  0.1852 -0.3027 -0.2012
31501W        W74554  33.674  16.420   5.896  0.0935 -0.2836  0.1954
31502W        W74555  22.884  14.674  22.306  0.0964 -0.2284 -0.2237
31503W        W74556  33.585  12.706  17.163  0.1289  0.5174  0.1118
31504W        W74557  32.472   7.229  14.915 -0.1164  0.1513 -0.1134
31505W        W74558  28.958  14.476  28.628 -0.1071 -0.4141 -0.0367
31506W        W74559  23.225  12.405  22.543  0.3185  0.0196 -0.2656
31507W        W74560  20.399   0.106  25.140  0.1272 -0.0899 -0.0796
31508W        W74561   6.074  20.904   5.564  0.1788  0.2316  0.3124
31509W        W74562  31.009   9.899   2.441  0.0125 -0.0121 -0.3539
31510W        W74563   3.012   6.174   6.518 -0.1817  0.2980  0.1491
31511W        W74564   3.976   2.855  26.680  0.0099 -0.1498  0.2456
31512W        W74565  29.260  32.503  26.101 -0.0412  0.1892 -0.1825
31513W        W74566  17.096  28.148  19.308  0.0153  0.1626 -0.1339
31514W        W74567   2.165  26.666  27.169 -0.0813 -0.1640 -0.3441
31515W        W74568   7.758   4.239   8.511 -0.0009 -0.0015  0.1533
31516W        W74569  32.177   1.798  28.666 -0.2463 -0.0827 -0.0903
31517W        W74570  11.012   1.515   9.287  0.1494  0.0296  0.1856
31518W        W74571   2.344  31.180   6.096 -0.2200 -0.3044 -0.1677
31519W        W74572   0.033   2.334  23.391 -0.1751 -0.4451  0.0418
31520W        W74573  24.952   8.406  23.863 -0.2246  0.2857  0.3072
31521W        W74574   0.351  13.962  24.398 -0.2478  0.1231  0.0803
31522W        W74575   5.905   3.346  28.689  0.1378  0.0031  0.2404
31523W        W74576  24.237  10.411   3.424  0.0991 -0.1325 -0.0485
31524W        W74577  32.677   2.610  28.551 -0.0673 -0.3036 -0.0109
31525W        W74578  12.317  12.751  24.003  0.1352  0.3051 -0.0631
31526W        W74579  33.339   2.815   0.204  0.1538  0.0377  0.1323
31527W        W74580  23.363  17.422  23.990  0.3118 -0.1332  0.1802
31528W        W74581   5.016  29.737  16.838  0.1216  0.0396 -0.1317
31529W        W74582   6.970   1.077  28.834  0.2484  0.0308  0.2016
31530W        W74583  26.478  15.640  21.867  0.2862 -0.0330  0.2127
31531W        W74584  25.634   0.987   1.836 -0.0479 -0.4778 -0.0747
31532W        W74585  21.191  27.909   2.145 -0.1822 -0.1214  0.0374
31533W        W74586  12.973   7.433  23.472 -0.2979 -0.1510 -0.3411
31534W        W74587  29.004   5.653  19.666  0.3127 -0.0044 -0.1105
31535W        W74588  30.355  13.627  20.120  0.4765 -0.3448  0.0483
31536W        W74589  21.504  30.687  18.621 -0.2414  0.2522 -0.2138
31537W        W74590  28.221   3.233  15.062 -0.4223 -0.0309 -0.0741
31538W        W74591   5.572   2.965   0.448  0.2079  0.0292 -0.4128
31539W        W74592  11.698   5.481  24.504 -0.0999  0.1678  0.4303
31540W        W74593  21.225  33.398  24.473 -0.3507  0.1047 -0.1655
31541W        W74594   5.880  34.074  27.645 -0.2240 -0.1088 -0.0070
31542W        W74595  16.149  31.600  27.275 -0.0747  0.0937 -0.0110
31543W        W74596  18.413   0.243  17.381 -0.1225 -0.0132  0.0194
31544W        W74597  10.308  13.002  22.036 -0.0092 -0.0995 -0.0676
31545W        W74598   5.682   9.436   6.254 -0.2494 -0.0149  0.0725
31546W        W74599   5.392  20.076   0.703 -0.0246 -0.0543 -0.1934
31547W        W74600   4.893   0.545   4.405  0.1873 -0.1312 -0.0390
31548W        W74601  11.654  33.131   6.324 -0.0754 -0.2994  0.0341
31549W        W74602  11.064  29.066  23.102  0.1201 -0.0175  0.0568
31550W        W74603  26.665  11.080  17.024  0.0870 -0.0986  0.4760
31551W        W74604  18.922  33.614  15.131 -0.2613  0.3720 -0.6030
31552W        W74605  31.589   0.892  23.606 -0.0733  0.2404  0.0346
31553W        W74606   0.622   3.654  15.406 -0.1463  0.2968  0.2340
31554W        W74607  19.272  10.627  20.669  0.2410  0.3880 -0.0714
31555W        W74608   9.916  33.066  28.130  0.2021  0.1146  0.0813
31556W        W74609   9.766   7.381  22.078 -0.1112  0.0584 -0.1096
31557W        W74610  17.892   8.773  27.477 -0.0613 -0.1620 -0.0652
31558W        W74611   7.084  32.539  23.441  0.0560 -0.2186 -0.2197
31559W        W74612  25.225   3.329   3.311  0.1237  0.1538 -0.1309
31560W        W74613  26.008  19.555  22.428  0.1479  0.0700 -0.1616
31561W        W74614   0.964  25.684   4.621  0.0682 -0.3833 -0.0005
31562W        W74615  14.390  22.951  16.640 -0.3328 -0.1534 -0.2139
31563W        W74616  13.856   7.365  17.421 -0.2069 -0.1349  0.1540
31564W        W74617  26.557  31.345   6.899 -0.0510  0.2921  0.1340
31565W        W74618  21.366  31.179  27.847  0.1057  0.1412 -0.1889
31566W        W74619  21.623  10.241   7.109  0.1709  0.1654  0.1892
31567W        W74620  30.033   5.641   8.982 -0.0031  0.0905  0.2699
31568W        W74621  21.987   9.553  15.395 -0.0811 -0.0196 -0.0688
31569W        W74622  24.204  12.331   7.500 -0.1928  0.3110 -0.0188
31570W        W74623  16.810   8.852  25.370 -0.2164  0.2098  0.0712
31571W        W74624  20.612   1.405  10.832  0.0155  0.0037  0.2812
31572W        W74625  32.376  30.580  26.625 -0.0787 -0.0299  0.0191
31573W        W74626  33.816  16.459  17.342  0.1904 -0.1614 -0.1450
31574W        W74627   0.811  19.323   5.754 -0.2080  0.0379  0.4208
31575W        W74628  20.919   8.466  26.130 -0.4857  0.1825 -0.2252
31576W        W74629  31.678  23.764   2.209 -0.0532 -0.2504  0.0171
31577W        W74630  10.069  32.220  23.481  0.1647  0.2926  0.0367
31578W        W74631  25.384  20.700  27.580 -0.3078  0.0927  0.0251
31579W        W74632  24.104   4.341  24.870 -0.0309 -0.2284 -0.0748
31580W        W74633  34.422  12.245  18.286  0.1635 -0.1528  0.2150
31581W        W74634  17.518   9.328   6.290 -0.1268  0.1328  0.0986
31582W        W74635   5.167   2.761  20.179 -0.0784 -0.0231 -0.1375
31583W        W74636  23.180  25.002  27.292  0.0802  0.2824  0.1181
31584W        W74637  22.306  20.910  18.020  0.0123 -0.2600  0.0972
31585W        W74638  23.629  21.754  21.862 -0.1355 -0.0611 -0.0337
31586W        W74639  28.320   5.797  14.981  0.2346  0.3535 -0.1071
31587W        W74640  30.066  30.284  14.775  0.1441  0.0802 -0.0014
31588W        W74641  27.105  32.288   8.405 -0.0605 -0.0994  0.2766
31589W        W74642  27.634  21.484  25.415 -0.1204  0.1218  0.0264
31590W        W74643  32.473   5.199  19.526 -0.0122  0.0018  0.3042
31591W        W74644  17.356  34.473   2.127 -0.1438 -0.1019 -0.0397
31592W        W74645   0.712  20.518  20.467  0.3230 -0.1115 -0.1275
31593W        W74646  19.938  11.224  22.017 -0.1639 -0.1792 -0.1390
31594W        W74647  20.672  33.779   3.329 -0.0416 -0.0681 -0.1021
31595W        W74648   2.864  25.928   0.895 -0.3492  0.0726 -0.0047
31596W        W74649   9.763  24.416  23.689 -0.1620  0.3131 -0.0109
31597W        W74650  16.933   5.229  19.617 -0.1522  0.0706 -0.4130
31598W        W74651  26.049   9.948  28.138  0.1850  0.0489  0.1757
31599W        W74652  15.780  25.695  28.464 -0.1901 -0.3187 -0.0719
31600W        W74653   5.206   0.760  25.180  0.2516 -0.3240 -0.1338
31601W        W74654  27.616   0.863  20.455  0.0036 -0.2212  0.1564
31602W        W74655  27.940  13.986  28.376  0.1243 -0.0264  0.0489
31603W        W74656  30.873  11.723   0.293  0.2700 -0.0484 -0.1619
31604W        W74657  27.445   8.369  15.099 -0.0995  0.3104  0.0432
31605W        W74658  29.042  11.473  15.165 -0.2840 -0.0400  0.1960
31606W        W74659   3.886  14.483  16.858  0.0190 -0.1589 -0.0095
31607W        W74660   7.944  27.886  25.593  0.0253 -0.1525  0.0136
31608W        W74661   2.354   9.154  26.888 -0.0301 -0.4411 -0.1428
31609W        W74662   2.753  27.841  16.059 -0.0154 -0.2195 -0.2677
31610W        W74663  25.561   8.092  24.663 -0.1559  0.2566  0.0182
31611W        W74664   0.018  23.373   6.352 -0.1480  0.2279 -0.5843
31612W        W74665  25.261  27.842   3.979 -0.0813  0.0612 -0.1503
31613W        W74666  30.262  27.028  28.059  0.1734 -0.2012  0.1451
31614W        W74667   0.498   6.751  14.621  0.1765  0.0180  0.1082
31615W        W74668  25.383   8.265  16.263 -0.0385  0.2289 -0.1849
31616W        W74669  27.472   9.803  27.881 -0.0605 -0.2091 -0.3424
31617W        W74670   8.597  32.622  22.068 -0.0776  0.1091  0.1052
31618W        W74671  29.091  21.432   9.564  0.0260 -0.0098 -0.0727
31619W        W74672   5.212  21.016  26.321 -0.2029 -0.3516  0.0277
31620W        W74673  26.767   5.620   8.363  0.1591 -0.2283  0.2179
31621W        W74674  33.321   7.987  23.465 -0.2609  0.0075 -0.2594
31622W        W74675  24.300   3.850  23.186  0.1396  0.0560 -0.0054
31623W        W74676  34.144   9.862   4.084  0.0731  0.1343 -0.1824
31624W        W74677  33.731  15.242   0.000  0.0513 -0.0905  0.1032
31625W        W74678  34.649   2.404   2.200 -0.3190  0.0701  0.1138
31626W        W74679   1.376  17.554   2.925  0.2435  0.2841 -0.0693
31627W        W74680  29.583   9.768   2.588  0.1077 -0.0213  0.1466
31628W        W74681  25.930   2.025   6.562  0.4205 -0.1624  0.2138
31629W        W74682  17.669  32.558  16.016  0.1062  0.0480  0.2041
31630W        W74683  27.309   3.941   8.713  0.0374 -0.3794  0.1952
31631W        W74684  33.522  29.279  24.674  0.2691  0.0320  0.0766
31632W        W74685   1.656  25.972  13.488  0.1996 -0.3079 -0.0661
31633W        W74686  16.197  34.642   7.016 -0.0077  0.1813  0.1727
31634W        W74687   3.413  29.846   3.535 -0.1517  0.2626 -0.0658
31635W        W74688   7.281  30.756  27.273  0.0093 -0.0147 -0.0637
31636W        W74689   9.422   3.567   8.883 -0.0637  0.3449 -0.2735
31637W        W74690  18.695  12.822  28.102  0.1682  0.2919  0.2094
31638W        W74691  26.271   3.404   0.707 -0.1596  0.0647  0.1772
31639W        W74692  34.447   8.128  24.398 -0.4178 -0.1020 -0.2449
31640W        W74693  21.659   0.626   0.067 -0.1021 -0.4028 -0.3640
31641W        W74694  18.507  31.619  28.696  0.0103 -0.2594 -0.1336
31642W        W74695  26.853  12.596  19.301 -0.1101  0.1034 -0.2004
31643W        W74696   9.339   5.031   6.362  0.4612 -0.0324  0.0452
31644W        W74697  27.149   6.446  17.252  0.3061  0.0934 -0.2461
31645W        W74698  27.318  29.361  21.551  0.0724  0.1837 -0.2326
31646W        W74699  15.719  28.371  21.514 -0.1156  0.0955  0.1156
31647W        W74700   1.315  33.074   9.879 -0.1913  0.0932  0.1024
31648W        W74701  26.421  18.117  20.108  0.2255  0.0623  0.0415
31649W        W74702  21.455   1.418   3.010  0.1057  0.2128 -0.1390
31650W        W74703  20.698   6.610   2.919 -0.0594 -0.1047  0.0696
31651W        W74704  21.478   1.241  23.520 -0.0222 -0.0935 -0.4198
31652W        W74705  26.117  31.039   4.081  0.1648  0.1437 -0.1457
31653W        W74706   8.043  25.802  15.585  0.1900 -0.3693 -0.1141
31654W        W74707  33.244  31.768  15.469  0.1580 -0.2018 -0.0060
31655W        W74708  31.178   9.639  15.774  0.0292  0.2327  0.0745
31656W        W74709   1.715   4.940  24.630 -0.0517 -0.0347 -0.2000
31657W        W74710  22.917  12.871  21.722  0.4543  0.0787  0.1591
31658W        W74711  11.068   3.540   2.422  0.1196 -0.0738  0.3618
31659W        W74712  26.571  12.399  25.605  0.0167 -0.0267 -0.1313
31660W        W74713  24.712  13.977  22.292 -0.1107  0.2416  0.0745
31661W        W74714   3.009  32.324   0.833  0.2814  0.2344  0.5411
31662W        W74715  26.839  29.435  25.375 -0.3153  0.2525 -0.0227
31663W        W74716  24.618   4.948  23.811 -0.3082  0.1498  0.2466
31664W        W74717   7.001  34.290   8.350  0.0038  0.2402 -0.0166
31665W        W74718   3.209   3.885   0.517  0.1051  0.2102  0.1546
31666W        W74719  21.804  34.146   6.001 -0.0060 -0.1748 -0.0422
31667W        W74720  31.160   1.211   3.839  0.2785  0.1825  0.1544
31668W        W74721  15.769   6.999  24.728 -0.0086  0.3513 -0.0404
31669W        W74722   3.212  12.436   3.028 -0.1821 -0.3167 -0.0609
31670W        W74723  33.385  20.097  16.452 -0.0656 -0.1081 -0.0551
31671W        W74724  26.681  29.053   0.489 -0.0901  0.1009  0.0406
31672W        W74725  31.527  29.967  14.455 -0.1305 -0.2197  0.3326
31673W        W74726   6.667  28.698  26.663 -0.0395 -0.2806 -0.0257
31674W        W74727  21.947  14.660   1.817 -0.0938  0.1403 -0.2210
31675W        W74728  29.820   6.211   5.836  0.2266  0.0197 -0.0400
31676W        W74729  27.316   5.965  22.824 -0.2312  0.0131  0.0618
31677W        W74730  25.348  31.910   1.112  0.1022 -0.0435 -0.0354
31678W        W74731  15.469   9.396  20.488 -0.1012 -0.0161 -0.3542
31679W        W74732  33.585  10.509  23.344 -0.1522  0.2332 -0.0168
31680W        W74733  34.053   1.123   7.299 -0.3690  0.0463  0.4324
31681W        W74734  11.575  25.929  17.747  0.1664  0.1501 -0.2387
31682W        W74735  32.120  16.593   6.380 -0.0444  0.0912 -0.1370
31683W        W74736  12.487   4.700   6.502  0.1988  0.1514 -0.1093
31684W        W74737  24.640  11.998   7.270  0.1817 -0.0286 -0.0580
31685W        W74738   4.649  30.502   7.519  0.0428 -0.0067  0.0646
31686W        W74739   6.069  32.562  20.437  0.0450 -0.1131 -0.0270
31687W        W74740   2.440  10.421   0.704  0.0040 -0.0187  0.3589
31688W        W74741  31.404   2.121  26.277  0.1253 -0.0079  0.0007
31689W        W74742  26.916  32.761  15.140 -0.0673  0.1027  0.2072
31690W        W74743  27.365   3.536   8.413  0.2870  0.2296 -0.0969
31691W        W74744  15.793   4.162   8.095  0.0237 -0.0891 -0.2489
31692W        W74745  31.037  11.880  27.310  0.0862 -0.1843  0.1612
31693W        W74746  20.223   7.176  16.119  0.1432  0.0019  0.0962
31694W        W74747  21.547  24.682  28.835  0.0669  0.1114  0.1230
31695W        W74748  29.869   2.034  19.545  0.0853 -0.2488  0.0034
31696W        W74749  21.977  34.152  26.994  0.2323 -0.0416 -0.1045
31697W        W74750  32.545  11.168   8.662  0.0701 -0.1468  0.0093
31698W        W74751  25.090   1.730  23.840 -0.2018 -0.3249 -0.0287
31699W        W74752  27.580  25.063  25.061 -0.1105 -0.1224 -0.3164
31700W        W74753  31.651   7.240   3.607 -0.0605 -0.0645  0.1810
31701W        W74754  28.789   6.983  16.277  0.1405 -0.0093 -0.0888
31702W        W74755  17.691  23.374   9.642  0.1224 -0.1849 -0.0327
31703W        W74756  29.266  29.387  25.676 -0.3276  0.1410  0.1791
31704W        W74757   3.153   4.555   1.280 -0.0538 -0.0892  0.0370
31705W        W74758  12.038  31.984  25.682  0.0256  0.2695  0.1670
31706W        W74759  33.543   0.363   9.150 -0.0052 -0.0422 -0.4319
31707W        W74760  34.186  24.379  25.969 -0.0846 -0.3309 -0.1823
31708W        W74761  18.238  28.568  19.452 -0.1650  0.1756  0.0746
31709W        W74762   2.235   3.463  28.762 -0.1615 -0.0913 -0.1432
31710W        W74763  23.702  11.148   8.137  0.1612  0.1271 -0.0154
31711W        W74764  34.552  25.499  18.093 -0.1167 -0.5298  0.0282
31712W        W74765   3.479  34.095   4.085 -0.4088 -0.0675  0.0062
31713W        W74766  24.735   8.695  14.260  0.0042 -0.0036  0.0264
31714W        W74767  17.206  17.665   1.283  0.1354 -0.1162 -0.1546
31715W        W74768  17.556  22.671  24.116  0.0074 -0.2046  0.0839
31716W        W74769  32.894  13.523  23.614  0.3108 -0.2322  0.0450
31717W        W74770  27.125   1.845   0.393  0.0051  0.1975 -0.0523
31718W        W74771  13.921   3.398  17.473 -0.1543  0.0413  0.2964
31719W        W74772   8.733   1.981   7.812 -0.3263 -0.1576 -0.1928
31720W        W74773   9.964   3.796  26.897 -0.0078  0.4296  0.1059
31721W        W74774  24.835  27.706   1.024  0.2087  0.1678  0.0881
31722W        W74775  27.748   6.468  28.172 -0.1601 -0.1086  0.3158
31723W        W74776  31.790  19.500  22.503  0.0923  0.0865 -0.1439
31724W        W74777   3.162  16.427  27.963  0.0551 -0.1553 -0.1916
31725W        W74778  28.351   1.587  16.035 -0.1377 -0.1981  0.1395
31726W        W74779  20.199  27.336   1.951 -0.0153 -0.2766 -0.0172
31727W        W74780  26.395   9.649   3.939  0.0723  0.1824 -0.0437
31728W        W74781  19.256  31.150   3.903  0.0051 -0.2242  0.0091
31729W        W74782  10.017  10.682   4.979 -0.3088  0.1750  0.0303
31730W        W74783  22.312   0.580  24.565 -0.1302 -0.0170  0.0151
31731W        W74784  27.854   6.055   5.591  0.0272 -0.0852  0.2518
31732W        W74785   7.394  25.928  22.822 -0.0182 -0.1725  0.2152
31733W        W74786  10.119   9.274  16.357 -0.0709  0.1093  0.3181
31734W        W74787  21.505  29.895   2.985 -0.0224  0.0605 -0.1541
31735W        W74788  21.191  26.529   7.764  0.0067  0.2127 -0.0478
31736W        W74789   2.865  34.261   9.682 -0.0472  0.2938  0.0833
31737W        W74790  25.015   1.265   5.618 -0.0252  0.1067 -0.2431
31738W        W74791  33.724   3.164   0.703  0.3184 -0.1197 -0.0285
31739W        W74792  14.690  29.490   6.500  0.2456 -0.2727 -0.2228
31740W        W74793  25.184  20.619   6.895 -0.1912  0.0185 -0.3687
31741W        W74794  27.713  26.419   0.442 -0.1415  0.0238 -0.0828
31742W        W74795  32.731   2.597  15.979 -0.1779  0.4878 -0.1036
31743W        W74796  19.532  11.034  19.283 -0.0425 -0.1577 -0.1700
31744W        W74797  26.380  29.770   1.902 -0.2147 -0.3467  0.1987
31745W        W74798  10.614  11.553  26.716 -0.0614 -0.1250 -0.1415
31746W        W74799  11.748  24.031  18.966  0.2212 -0.0554 -0.0223
31747W        W74800  26.070   2.743   0.358  0.1848 -0.1123  0.3876
31748W        W74801  32.598  22.249   8.449  0.0109  0.1216 -0.0277
31749W        W74802   1.615  31.310  27.329 -0.0420  0.1542 -0.2318
31750W        W74803  27.765   4.999   2.381 -0.2152 -0.3644 -0.3212
31751W        W74804  33.433   0.642   6.076 -0.3424  0.1827 -0.1085
31752W        W74805   6.791  30.491  20.770 -0.1524 -0.3182  0.1493
31753W        W74806  28.143  28.853   6.946  0.1136 -0.1416 -0.1485
31754W        W74807  32.008  20.939   9.564 -0.0521 -0.0629 -0.1925
31755W        W74808  33.499  33.229  24.585  0.1136 -0.5010 -0.2665
31756W        W74809  32.469  12.193  24.381  0.1062 -0.0531  0.4310
31757W        W74810   5.259   6.812   7.197 -0.0224 -0.1843 -0.6306
31758W        W74811   5.245  13.143  15.874  0.3772  0.3996  0.1161
31759W        W74812   7.934  29.377  21.360  0.0380  0.3778  0.0169
31760W        W74813  23.454   3.816  25.635  0.3482  0.0279 -0.0081
31761W        W74814  29.137   4.243  16.642  0.0666 -0.5433 -0.1653
31762W        W74815  26.165  29.666  20.248 -0.0637 -0.0738 -0.2980
31763W        W74816  31.007   4.804  15.609 -0.0073 -0.4052 -0.0158
31764W        W74817   6.401   1.301  14.870  0.2668  0.0282 -0.3674
31765W        W74818  11.246   2.187  27.914 -0.1723  0.1118 -0.2199
31766W        W74819   5.233   3.917  24.090  0.0128  0.3098 -0.4763
31767W        W74820  19.811   2.035  17.398 -0.1476 -0.0520 -0.3303
31768W        W74821  32.225  29.647  20.111 -0.0679 -0.3232  0.0396
31769W        W74822  29.401   3.593   4.704 -0.0079  0.0978  0.1430
31770W        W74823   8.149  32.680   7.346  0.1497 -0.1905  0.0520
31771W        W74824   1.228   4.134  23.410 -0.1126  0.1159  0.0125
31772W        W74825  32.743   0.808  20.265 -0.0200 -0.2321  0.0840
31773W        W74826  10.008  10.192  18.015 -0.3843 -0.0143 -0.0901
31774W        W74827  34.661  18.394  16.896  0.0783 -0.0011  0.0076
31775W        W74828   9.159   6.235   1.507 -0.2238  0.1927  0.2567
31776W        W74829  31.939  14.698   4.338 -0.0652  0.4944  0.1768
31777W        W74830  30.950   7.559  29.142  0.1387  0.1898 -0.0557
31778W        W74831   9.113  30.464  25.877  0.0773 -0.3584  0.1654
31779W        W74832  34.521   3.482   8.272 -0.0347 -0.1170 -0.0434
31780W        W74833  10.513  12.432   0.667  0.2791 -0.0600  0.1188
31781W        W74834  14.772   2.684   9.371  0.0178 -0.2877  0.0590
31782W        W74835  26.949   2.872  26.358  0.0858 -0.0460  0.2561
31783W        W74836   4.733  22.593  23.273 -0.1547  0.0793  0.1423
31784W        W74837  16.419  29.112  16.769 -0.1375 -0.0607  0.1278
31785W        W74838   4.825   3.375  14.224 -0.0261 -0.2119 -0.0404
31786W        W74839  19.180  29.224   8.697  0.0509  0.1309 -0.0313
31787W        W74840   7.023  30.339  27.076  0.0464  0.1182 -0.0373
31788W        W74841  19.624  19.407   0.737  0.0811 -0.0434  0.3251
31789W        W74842   8.399  27.760   0.639  0.3193  0.0068 -0.0763
31790W        W74843  20.701   8.986   7.143 -0.1764 -0.4350 -0.1011
31791W        W74844  27.644  11.874  22.191 -0.3220  0.0748 -0.0448
31792W        W74845  28.247  34.618   2.335 -0.3289 -0.0029  0.3425
31793W        W74846  25.955  33.230  20.427  0.1702  0.3563 -0.0546
31794W        W74847  29.110   7.649  15.597 -0.3115  0.2414  0.1285
31795W        W74848  33.311  21.286  28.826 -0.0318 -0.3389 -0.0477
31796W        W74849   1.199   8.419  25.572  0.2096  0.1019 -0.2013
31797W        W74850  18.809  10.742  24.461 -0.1525  0.3834  0.2097
31798W        W74851  27.571   2.158  18.603  0.0359 -0.1764  0.0608
31799W        W74852  31.026  33.380   6.173 -0.3402  0.0668 -0.4401
31800W        W74853  34.488   6.597   5.897 -0.0249  0.3022  0.1553
31801W        W74854  26.884   1.355  10.043  0.1324  0.0787 -0.0251
31802W        W74855   7.330  23.819   2.894 -0.0342  0.1919 -0.3108
31803W        W74856  23.769   4.290   9.395 -0.0684 -0.0856 -0.2667
31804W        W74857  18.369  12.113  28.528  0.0373  0.0568  0.0856
31805W        W74858   5.709  28.053  18.620 -0.2966 -0.0160  0.0378
31806W        W74859  15.944  33.044   4.373  0.0571 -0.0723  0.0385
31807W        W74860   0.269   8.379   5.654  0.1503 -0.1346  0.1609
31808W        W74861  32.540  29.139  27.850  0.1756  0.0784  0.1176
31809W        W74862  29.102   8.363  27.052  0.0070 -0.1008  0.2269
31810W        W74863  31.313   6.933   1.682 -0.3966 -0.1712  0.0796
31811W        W74864  24.981  12.231   1.755  0.0010  0.1467 -0.0511
31812W        W74865   0.412  25.706  16.101  0.0130  0.0892  0.1440
31813W        W74866   5.151   8.955   8.513 -0.1103  0.2687  0.1362
31814W        W74867  15.039  21.492  24.613 -0.2471 -0.0959 -0.0639
31815W        W74868  31.268  33.437  26.979 -0.2160 -0.1511  0.0384
31816W        W74869  30.861   0.315   7.781 -0.3018  0.1668 -0.0205
31817W        W74870  18.833  11.884  29.001 -0.2793 -0.0702 -0.0964
31818W        W74871  29.110  10.288  29.036 -0.2102  0.2301 -0.1438
31819W        W74872  19.999   4.558  25.589  0.0494 -0.2885 -0.2333
31820W        W74873  34.651  28.074   8.841 -0.0536  0.0188  0.0671
31821W        W74874   1.597  29.242  25.628  0.1915 -0.1511  0.3611
31822W        W74875  21.119  11.054   2.506  0.4442 -0.2834  0.0403
31823W        W74876  22.217  24.358   1.355  0.0147 -0.0442 -0.1139
31824W        W74877  30.580  28.358  27.916 -0.0003 -0.0109  0.1265
31825W        W74878   4.473  12.688  29.169 -0.1401  0.1825  0.1748
31826W        W74879  13.547  29.116  19.752 -0.0376 -0.2190  0.2667
31827W        W74880  26.442   4.293  23.519 -0.1030 -0.0083  0.2036
31828W        W74881  20.202  23.080   1.640  0.0013 -0.1626 -0.0160
31829W        W74882  34.588  28.694  20.656 -0.1851  0.0600  0.3139
31830W        W74883   5.887  30.492   8.017  0.0372  0.1928  0.0868
31831W        W74884  32.123   8.544  10.412 -0.1053 -0.2249  0.2413
31832W        W74885  30.370  31.701   2.863  0.0731 -0.0570  0.0250
31833W        W74886  33.180  10.132  18.373 -0.0836  0.0417 -0.1090
31834W        W74887   1.720  28.331  28.856  0.0778  0.0837 -0.0171
31835W        W74888  28.001  18.886   1.815  0.0448  0.1037 -0.2131
31836W        W74889  18.074   3.644  22.455  0.0927  0.2033 -0.1227
31837W        W74890  17.991  30.474   4.345 -0.3099  0.0967 -0.2943
31838W        W74891  18.325  33.217  25.891 -0.0622 -0.1665  0.1761
31839W        W74892  21.658  34.674   4.865 -0.0116 -0.0289 -0.0073
31840W        W74893   2.540  32.645  27.268  0.1417  0.0280 -0.0542
31841W        W74894  28.759   9.827  16.577 -0.1601  0.0372 -0.0622
31842W        W74895  18.457   3.859   0.288 -0.0852  0.2263 -0.2875
31843W        W74896  29.086  33.386   8.808  0.0240 -0.3784 -0.3710
31844W        W74897  19.688  14.699   0.294  0.1382 -0.0336 -0.4612
31845W        W74898  33.856  14.020   9.518 -0.0556 -0.1828 -0.0126
31846W        W74899  17.662   4.059   7.675  0.2368  0.0869  0.1951
31847W        W74900  31.364  32.980   5.454  0.2826  0.0238  0.2298
31848W        W74901  33.834   8.552  19.738  0.0220 -0.2283  0.4315
31849W        W74902  33.647  12.121  17.250  0.1113  0.4214  0.3798
31850W        W74903  25.943  11.539  15.569 -0.0797  0.2188  0.2062
31851W        W74904  23.854  34.421   8.489 -0.0699 -0.1792  0.0480
31852W        W74905  13.909   2.427   6.365 -0.1482  0.2735  0.0200
31853W        W74906  33.357  26.888  15.287 -0.2060  0.0775  0.1367
31854W        W74907  33.869  20.721  13.388  0.0427  0.2178  0.2146
31855W        W74908   3.497  10.178   9.014  0.1490 -0.2916 -0.1416
31856W        W74909   8.169   2.974  20.178 -0.1384  0.0813  0.1043
31857W        W74910  25.450  32.714  16.202 -0.2654  0.1485  0.3948
31858W        W74911   5.737  16.260  21.505 -0.1529  0.0847  0.0001
31859W        W74912  16.727   7.332   0.403  0.0188 -0.1823 -0.0733
31860W        W74913  15.032  24.766   2.031  0.2873  0.0771  0.1971
31861W        W74914   7.815   5.858  18.685 -0.0441 -0.2594  0.0574
31862W        W74915   6.540  11.992  22.393  0.1019  0.4798 -0.0687
31863W        W74916  21.714  18.881  21.497  0.3432  0.2099  0.2771
31864W        W74917  19.105  12.199  27.623  0.0376 -0.4213  0.0828
31865W        W74918   4.454  15.394  14.823  0.5985 -0.1585  0.0037
31866W        W74919  25.295  26.772  19.773  0.0433 -0.0534 -0.1617
31867W        W74920  29.284  30.597  29.074  0.0742 -0.1317  0.2064
31868W        W74921   4.116  12.493  24.063 -0.3060 -0.4642  0.0114
31869W        W74922   1.950   6.182   4.591 -0.2258 -0.1178  0.3960
31870W        W74923  27.014  10.884  24.128 -0.0991 -0.1571 -0.0156
31871W        W74924  34.602   4.087  19.014 -0.1178  0.0690 -0.3184
31872W        W74925  27.555   0.148  23.429  0.2041  0.3764  0.1273
31873W        W74926   2.234  34.673  18.990  0.1641 -0.1477  0.0902
31874W        W74927   2.734  10.006  20.579  0.0759  0.3788  0.0116
31875W        W74928  23.207   7.158  18.194  0.1481 -0.1996  0.0997
31876W        W74929  10.257  30.995  20.186  0.0030  0.0238 -0.3154
31877W        W74930   8.143  25.862  22.782  0.1190 -0.0601  0.0323
31878W        W74931  29.691  11.289  25.805  0.4103 -0.0441 -0.0779
31879W        W74932  22.140   3.757  23.394  0.1130 -0.0110 -0.3554
31880W        W74933  30.677   0.987  15.688 -0.1888  0.0270  0.2819
31881W        W74934   0.023   6.860  17.652 -0.3132  0.2443  0.2849
31882W        W74935  34.089  23.107  26.797 -0.2559 -0.2249  0.0485
31883W        W74936  20.468   0.515  19.024  0.3348 -0.3138  0.2067
31884W        W74937  20.477  24.115  26.244 -0.1426 -0.1140  0.1185
31885W        W74938  32.705  33.084  17.957 -0.1963  0.0354 -0.0166
31886W        W74939  29.340  32.874  15.404  0.1463  0.1302  0.1173
31887W        W74940  10.541   2.204  27.021  0.2276 -0.2690 -0.1546
31888W        W74941   7.738   7.991  18.385  0.0495  0.0604  0.0605
31889W        W74942  20.528   6.709  20.333 -0.2762 -0.0692 -0.1258
31890W        W74943  31.879   0.509  18.935 -0.2951  0.0111  0.2533
31891W        W74944  29.876  33.290  18.674  0.0105 -0.1743 -0.1424
31892W        W74945  31.993  23.798  13.781  0.1913  0.0787 -0.1699
31893W        W74946   0.777  33.704  19.470  0.1459 -0.0569  0.2370
31894W        W74947  20.345   4.751  13.708 -0.0542  0.0428  0.0403
31895W        W74948  12.646  29.641   2.640  0.0059  0.1004  0.0774
31896W        W74949  29.235  29.432  16.882 -0.1130 -0.2758  0.0173
31897W        W74950  19.377   6.904  17.678 -0.1233 -0.1177 -0.2225
31898W        W74951  22.127   0.557  18.111  0.1588  0.2395  0.0971
31899W        W74952  22.096  34.464  20.546 -0.0549 -0.2578  0.1064
31900W        W74953  26.706   3.062  16.901  0.0872 -0.0950  0.0410
31901W        W74954  32.438   4.491   2.740 -0.0890 -0.0529 -0.3387
31902W        W74955   5.815   6.301   1.875  0.1113 -0.0297 -0.2319
31903W        W74956   6.499  25.225  22.326 -0.0458 -0.0662 -0.0730
31904W        W74957   5.465   3.182  14.758  0.0187  0.3279  0.1691
31905W        W74958  20.530  20.388  19.915 -0.1674 -0.1943  0.2495
31906W        W74959  12.045   7.933  20.650  0.1787  0.3468  0.0632
31907W        W74960   0.800  13.202  23.658 -0.4460  0.3567 -0.1726
31908W        W74961   5.869  30.819  24.752 -0.0682 -0.1293  0.0309
31909W        W74962   0.364  12.403  18.971  0.0519 -0.0136  0.0267
31910W        W74963  14.342   2.586   1.311  0.3987 -0.0204  0.2751
31911W        W74964   0.748  28.766  16.453  0.1426 -0.4767  0.0779
31912W        W74965   1.199  13.593  15.523  0.1281 -0.0421 -0.1640
31913W        W74966   3.967  18.565  15.090  0.0141 -0.1056  0.1815
31914W        W74967   7.250   5.188  20.790 -0.0773 -0.0926 -0.2807
31915W        W74968   7.537  28.538  16.930 -0.2815  0.1047 -0.1386
31916W        W74969  15.026   1.314  25.349 -0.2372  0.4130  0.0271
31917W        W74970   6.475  23.615  14.068 -0.1630  0.1388 -0.2203
31918W        W74971  34.583  24.843  20.023  0.0987 -0.0893 -0.3627
31919W        W74972   8.828   0.388  18.271 -0.2406  0.0484 -0.1396
31920W        W74973  32.955  26.544  13.595 -0.0216 -0.0292 -0.0975
31921W        W74974  29.439  21.110   7.654 -0.1503  0.0791  0.0164
31922W        W74975   9.505   4.704  20.081  0.1560 -0.0321 -0.0925
31923W        W74976  20.859  26.764  21.199 -0.2451  0.2239 -0.2360
31924W        W74977   3.420   7.613  20.826 -0.2648 -0.1062  0.0853
31925W        W74978  27.783  10.797  15.240 -0.0185  0.0317 -0.0455
31926W        W74979  26.115   1.301  15.124  0.1802  0.2007  0.0762
31927W        W74980  16.944   8.976  23.554  0.0645 -0.0824  0.1066
31928W        W74981   9.882   1.222  21.981 -0.1692  0.1300 -0.1445
31929W        W74982   6.395  16.125   2.980  0.0571 -0.0281  0.0912
31930W        W74983  32.305  25.792  23.677  0.1817 -0.0478  0.1271
31931W        W74984  34.356  30.707  15.647  0.0007 -0.0764 -0.0613
31932W        W74985   3.325   2.099  10.268 -0.4187 -0.0744 -0.0595
31933W        W74986  22.860   4.748  14.903 -0.1168 -0.1615  0.1684
31934W        W74987   8.267   9.758   6.617  0.0529  0.2209  0.1594
31935W        W74988  28.911   0.779  13.435 -0.0570  0.0358 -0.3138
31936W        W74989   6.903  17.118  15.284  0.5385 -0.0448  0.1556
31937W        W74990  20.842   3.064   1.190  0.0192 -0.1881  0.0394
31938W        W74991   7.980   5.729  14.414 -0.2033  0.0827 -0.2428
31939W        W74992  25.282  14.484  16.770  0.0876 -0.0206  0.0167
31940W        W74993  34.435   8.208  23.430  0.0913  0.0873 -0.0084
31941W        W74994  14.373  33.633  20.174 -0.0593  0.0828 -0.1376
31942W        W74995  25.218   1.243  19.817 -0.1732 -0.1804 -0.1174
31943W        W74996  29.552   5.392   4.282 -0.2221 -0.3493 -0.2506
31944W        W74997  21.376   4.873  26.688 -0.1847 -0.0434  0.2629
31945W        W74998  18.860  34.681   0.099 -0.1009  0.1617 -0.0249
31946W        W74999  26.305  13.959  18.247  0.2087  0.0111 -0.3431
31947W        W75000  29.931   1.059  28.376  0.2561 -0.0083 -0.1413
31948W        W75001  11.627  15.264  20.376  0.0989 -0.0408  0.0987
31949W        W75002  30.911  30.517   5.093 -0.3220  0.0435 -0.3923
31950W        W75003  24.368  11.113  16.809  0.1615  0.0930  0.1028
31951W        W75004  33.750   1.770  16.318 -0.0603  0.0331  0.0871
31952W        W75005   9.862  25.587  18.436 -0.0293  0.0218  0.0382
31953W        W75006  17.393  27.505  16.924  0.2039 -0.0376 -0.0928
31954W        W75007  12.135   5.359  14.180 -0.2093  0.2225  0.1195
31955W        W75008  20.063  14.804  28.150  0.1573 -0.1794  0.3304
31956W        W75009   0.354  17.586  13.970 -0.2555  0.1928 -0.0195
31957W        W75010  27.857   1.068  23.287 -0.1766  0.5230  0.2774
31958W        W75011  31.036  14.606  13.867 -0.1802  0.1150 -0.2888
31959W        W75012   8.889  26.397  27.442  0.1779  0.2464  0.3415
31960W        W75013  28.530  16.189  17.664  0.1925 -0.1684  0.3169
31961W        W75014   2.401   4.152  19.353 -0.1005 -0.2181  0.3516
31962W        W75015   8.737   5.571  17.199 -0.0642 -0.2038  0.0978
31963W        W75016  21.660  24.257   4.879  0.0412 -0.2280  0.0610
31964W        W75017  24.487  10.420  28.867  0.1325  0.3181  0.2955
31965W        W75018  19.980   1.057  22.500 -0.3308 -0.2415 -0.1088
31966W        W75019  27.325  29.149  27.290  0.2881 -0.1015 -0.1075
31967W        W75020  18.979   9.021  23.348 -0.2381 -0.1244  0.0237
31968W        W75021   3.393  11.041  28.231 -0.0607  0.1869  0.2147
31969W        W75022   2.194   5.145  25.570 -0.1705 -0.0457  0.2986
31970W        W75023  19.370   2.527  28.077  0.0410  0.1290 -0.1145
31971W        W75024  32.523  19.672  14.590  0.1949 -0.0249  0.1398
31972W        W75025  21.412  18.946  15.408  0.0523 -0.3278 -0.0560
31973W        W75026  30.495   4.993  16.474 -0.2921 -0.3642 -0.1461
31974W        W75027   2.421   8.039  21.786  0.3094  0.2830  0.1333
31975W        W75028  31.700   6.511  17.045 -0.0197  0.0907  0.2981
31976W        W75029  26.215   1.627   2.933  0.4124 -0.2564 -0.0077
31977W        W75030  18.933   8.987  21.947  0.1926  0.0432 -0.3047
31978W        W75031  11.680   8.350  18.288 -0.1379  0.1914  0.0378
31979W        W75032  12.898  27.305   5.152  0.0443  0.0969 -0.0262
31980W        W75033  14.284  14.987  24.089 -0.0333  0.1299  0.1797
31981W        W75034   8.255   7.319  21.171 -0.0911  0.0466 -0.1386
31982W        W75035   6.993  13.199  19.915 -0.1825 -0.1469  0.0281
31983W        W75036   7.177  10.932  28.541 -0.0794 -0.0300  0.1450
31984W        W75037  32.203  10.085  28.133  0.2745  0.2259  0.1679
31985W        W75038  20.536   4.008  14.609  0.0928 -0.2482  0.0894
31986W        W75039  28.364  15.906  23.726 -0.0949  0.2650  0.1642
31987W        W75040  20.386  12.889  21.167 -0.0255  0.2399  0.2173
31988W        W75041  20.864   5.266  19.764 -0.2913 -0.0461 -0.0152
31989W        W75042  26.677  34.308  18.052 -0.0340 -0.3558 -0.2649
31990W        W75043  17.308  15.981   0.379 -0.1491 -0.0230 -0.1085
31991W        W75044  10.757   0.484  22.919  0.1070 -0.0108  0.0093
31992W        W75045  33.587   4.091  17.780  0.1568 -0.0138 -0.0298
31993W        W75046  30.535   3.507  26.669  0.1365  0.0049 -0.0415
31994W        W75047  22.431   6.599  16.822 -0.2401 -0.2181  0.0804
31995W        W75048  22.742  29.952  27.264 -0.0935 -0.0219 -0.1624
31996W        W75049  32.652  18.334  19.154 -0.2198 -0.4076 -0.1837
31997W        W75050  31.671  12.096  20.315  0.2066  0.1108 -0.0043
31998W        W75051  33.338  33.393  13.965  0.0217  0.5070  0.1786
31999W        W75052  30.971   4.858  14.680  0.3360 -0.3727 -0.0256
32000W        W75053  21.776  10.987   9.693 -0.0813  0.4210  0.1769
32001W        W75054  32.217  22.021  21.579  0.2742 -0.1535  0.5392
32002W        W75055  33.670  10.049  20.983  0.2272  0.2091  0.0093
32003W        W75056  30.153   5.304  14.281  0.1580 -0.2032  0.3824
32004W        W75057  27.103   5.865  14.994 -0.0230 -0.2488 -0.2531
32005W        W75058  29.657  25.512  16.472 -0.0969  0.0924 -0.2882
32006W        W75059  17.272   3.478  19.045 -0.0623 -0.2794 -0.1969
32007W        W75060  12.491   1.712   4.942 -0.2378  0.1492 -0.2632
32008W        W75061  33.637   3.882  20.873 -0.1267  0.1805  0.3793
32009W        W75062   1.989   4.608  13.998 -0.0991 -0.1320  0.0826
32010W        W75063  21.634  11.020  26.621  0.0663  0.1685 -0.2842
32011W        W75064  27.689  34.233  19.758  0.1461  0.0282  0.1496
32012W        W75065   4.662   9.422  17.974  0.0952 -0.1908 -0.1563
32013W        W75066   9.270   1.892  21.691  0.0590  0.1863  0.1109
32014W        W75067  34.028  11.739  15.534 -0.1203 -0.0140  0.0431
32015W        W75068  30.175  10.199  14.814  0.3032 -0.3547 -0.1533
32016W        W75069   3.361  12.249   0.123  0.4027 -0.1969  0.1683
32017W        W75070  31.733  10.426  15.668 -0.0349 -0.0292 -0.0573
32018W        W75071   2.907   6.628   1.218  0.3147 -0.3341 -0.5045
32019W        W75072  21.192  12.483  18.974  0.1585  0.0141 -0.2594
32020W        W75073   2.869   1.123  14.835  0.0848 -0.0202  0.0586
32021W        W75074  25.538  31.329  25.821 -0.1856 -0.4058 -0.1508
32022W        W75075  21.811   7.636  15.856  0.0995 -0.3240 -0.2868
32023W        W75076   5.827   3.666  21.638 -0.1257 -0.2708 -0.2732
32024W        W75077  25.323  32.822  15.592  0.1280  0.2240 -0.1907
32025W        W75078  24.906  10.370  22.803 -0.2508  0.2807 -0.0422
32026W        W75079  12.263   9.845  15.842 -0.0589 -0.3660 -0.1951
32027W        W75080  24.696   7.179  16.403 -0.1319  0.0755  0.1102
32028W        W75081  33.846  34.378  19.361 -0.2868 -0.0750  0.0033
32029W        W75082  34.068  31.830  19.574 -0.0463  0.4377  0.1516
32030W        W75083  11.256   9.683  23.928 -0.0190  0.2224  0.1398
32031W        W75084  29.796   6.584   1.420 -0.2736 -0.1206 -0.0987
32032W        W75085  28.744   7.775  25.056 -0.1023 -0.0404 -0.2417
32033W        W75086  27.652   3.790  16.567 -0.1571  0.4160 -0.2118
32034W        W75087  25.831  13.400  15.917 -0.0473 -0.2644  0.0676
32035W        W75088  19.272   8.090  20.356  0.2923 -0.1862  0.4441
32036W        W75089   0.157  12.388  25.961 -0.1890 -0.4355 -0.2447
32037W        W75090  28.531  28.710  28.155 -0.1140  0.1192 -0.1415
32038W        W75091  23.181   9.831  19.884 -0.0575  0.1339  0.1554
32039W        W75092   0.162  30.028  13.796  0.3736  0.1237  0.0016
32040W        W75093   4.396   7.294  21.432 -0.4340 -0.1735 -0.1782
32041W        W75094  17.510  27.832  23.421  0.0408 -0.2496 -0.6009
32042W        W75095  32.946  20.192  20.895 -0.0490  0.0614 -0.0076
32043W        W75096  33.478  30.414  18.299 -0.3014  0.0723  0.1509
32044W        W75097  20.292   4.446  14.560 -0.0605 -0.0027  0.0559
32045W        W75098   7.682   2.577  28.350 -0.2903  0.0898  0.0975
32046W        W75099  21.133  32.422  22.366 -0.0258  0.1153 -0.1391
32047W        W75100  30.620  30.841  21.166  0.2264  0.3237 -0.2261
32048W        W75101  14.532   5.421  22.140 -0.2695  0.0250  0.0840
32049W        W75102  12.051  33.693  23.610  0.1578 -0.2620  0.1090
32050W        W75103   9.503  17.195  14.258 -0.4090  0.0809 -0.1626
32051W        W75104   2.241  13.781  20.514  0.1300 -0.0224 -0.1351
32052W        W75105  22.252  21.306  15.906  0.0755 -0.2805 -0.2182
32053W        W75106   7.341   3.336  14.621  0.1210  0.0290 -0.1153
32054W        W75107   2.760  28.191  15.654  0.0054  0.0999  0.0971
32055W        W75108  22.794   6.431  25.580  0.0139 -0.0703  0.0325
32056W        W75109  18.522  30.712  19.283  0.0730  0.3714 -0.1927
32057W        W75110   7.401  16.578  24.779 -0.1220 -0.1375  0.2134
32058W        W75111   9.850  30.406  18.175  0.1378  0.0643  0.2227
32059W        W75112  21.785   8.976  22.532  0.0925 -0.1182  0.2387
32060W        W75113  25.141   8.661  25.211 -0.1424  0.2040 -0.2243
32061W        W75114  34.010  17.565  17.679  0.0287 -0.2784 -0.0885
32062W        W75115   2.174  23.646   2.304 -0.1503  0.0862  0.2165
32063W        W75116  28.801  10.126  21.635 -0.0356  0.0142 -0.2300
32064W        W75117   5.535   0.155  16.689 -0.1733 -0.0420 -0.0244
32065W        W75118  14.359  14.655  17.254  0.1660  0.0621  0.0015
32066W        W75119  26.022   5.232  23.216  0.1020 -0.1312  0.1137
32067W        W75120   7.666  17.865  23.335 -0.2705 -0.0425 -0.1336
32068W        W75121   7.908   6.778  28.456 -0.1713 -0.1964  0.0521
32069W        W75122  16.963   0.854  17.034 -0.1621  0.1825 -0.0430
32070W        W75123  28.570   9.649  28.719 -0.0528 -0.1019  0.1125
32071W        W75124  25.641   5.943  25.326 -0.2136 -0.0076  0.1137
32072W        W75125  27.840  25.123  15.308 -0.0371  0.3131 -0.1046
32073W        W75126  22.847  11.687  15.326 -0.2173  0.1068 -0.1764
32074W        W75127  21.074  33.816  14.314  0.3905  0.2624  0.2813
32075W        W75128   0.614  19.153  17.000  0.2596  0.0648  0.2020
32076W        W75129  30.874   4.771  17.366  0.3877  0.0135 -0.0963
32077W        W75130  33.644  10.494  27.041 -0.3566  0.0709 -0.1364
32078W        W75131  30.434   1.074  16.829  0.0912 -0.0720 -0.0652
32079W        W75132   0.054  34.120  13.889 -0.0879 -0.0173 -0.1697
32080W        W75133   4.125   0.508  27.076  0.1759  0.0848  0.1521
32081W        W75134   8.592   2.529  17.738  0.1345  0.0576 -0.0762
32082W        W75135  25.141   7.863  13.978  0.0354  0.0935  0.3572
32083W        W75136  20.902   5.606  17.905  0.2118  0.0901 -0.1426
32084W        W75137  32.848  13.480  15.682 -0.0692  0.0847 -0.1346
32085W        W75138   0.877  25.659  15.899 -0.0955  0.0960 -0.3242
32086W        W75139  28.976   3.363  26.088  0.1278 -0.4447 -0.4054
32087W        W75140   5.540  17.826  13.508  0.2494  0.1747 -0.1419
32088W        W75141  22.448   3.101  23.170  0.0341 -0.2380 -0.1834
32089W        W75142   7.062   9.156  17.520 -0.0299 -0.0995 -0.0490
32090W        W75143   1.737   4.365  23.148 -0.0483 -0.1204  0.5154
32091W        W75144   7.340   6.331  28.135 -0.0999 -0.0032  0.0185
32092W        W75145  29.301   7.394  23.423 -0.1498  0.0082  0.0216
32093W        W75146   4.892   9.352   1.177  0.1964  0.0297 -0.0075
32094W        W75147  24.479   4.286  16.154 -0.1465 -0.0104  0.1129
32095W        W75148   4.820   2.351  18.941 -0.2351  0.1918 -0.0409
32096W        W75149  33.590  19.398  17.021 -0.1524 -0.2426 -0.0642
32097W        W75150  17.686   8.605  15.257 -0.1233 -0.2230  0.1304
32098W        W75151  28.227   4.463   1.709 -0.0374 -0.0217 -0.0968
32099W        W75152  11.236  30.754   0.681 -0.4638  0.1731  0.1708
32100W        W75153  21.386   4.934  25.747  0.0761 -0.1643  0.1095
32101W        W75154   2.037   3.907  25.298 -0.2687  0.2050  0.3631
32102W        W75155  11.361  33.524  14.647  0.3792 -0.3749 -0.0380
32103W        W75156  20.538  15.106  15.439 -0.1677 -0.4003  0.2132
32104W        W75157  28.281  23.995  20.328  0.1971  0.2444  0.0792
32105W        W75158   4.598   2.807  16.575  0.1844  0.0949 -0.2833
32106W        W75159  30.042   7.185  19.576  0.0141 -0.1741 -0.0096
32107W        W75160  13.305   4.381   6.920  0.1354  0.2595  0.2038
32108W        W75161   7.075  31.971  18.430 -0.0565  0.0532  0.3108
32109W        W75162   2.775  16.994  21.058 -0.1297  0.0153 -0.3363
32110W        W75163  19.032   0.707  19.646  0.0505  0.2135 -0.2238
32111W        W75164  13.635  19.322  15.917  0.0835 -0.0746  0.1303
32112W        W75165  21.800  26.099  18.846 -0.2124  0.1030 -0.1618
32113W        W75166  14.720   1.629  19.282  0.1896  0.0350 -0.0736
32114W        W75167   3.322  11.776  24.655  0.1767 -0.0126  0.0871
32115W        W75168   5.490   3.716  25.741 -0.1396 -0.0839 -0.1311
32116W        W75169   2.087   0.034  28.115  0.0267  0.1102 -0.1698
32117W        W75170  25.713   3.489  16.568  0.0608  0.0723 -0.0255
32118W        W75171   8.550   1.423  27.629 -0.1638 -0.1932 -0.2106
32119W        W75172  27.654  32.267  25.356  0.0041  0.3824  0.0867
32120W        W75173  21.341  29.040  18.224  0.0896 -0.1775  0.2126
32121W        W75174  25.028   5.462  18.098  0.2809  0.1328  0.1112
32122W        W75175  31.999   7.597   1.218  0.1362 -0.0098  0.1476
32123W        W75176   4.566   8.402  19.411 -0.0255  0.1371  0.0680
32124W        W75177  29.905   5.967  16.687  0.1245  0.2788  0.2164
32125W        W75178  24.801  16.129  21.950 -0.1909  0.3332 -0.2809
32126W        W75179   7.889   2.415  15.257  0.2155 -0.0340 -0.0812
32127W        W75180  28.208  18.395  19.608 -0.2177  0.2007  0.0119
32128W        W75181  31.298  17.829  20.955  0.2363  0.1616 -0.2318
32129W        W75182   2.732   5.801  18.190 -0.0082  0.1449 -0.0913
32130W        W75183  33.416  33.316  14.789  0.1385  0.2189  0.2679
32131W        W75184  33.456  26.046  21.056  0.1076  0.1087 -0.1679
32132W        W75185   2.944   4.471  20.023 -0.0350  0.0145  0.0353
32133W        W75186  16.772   4.542  17.811  0.0010 -0.1866 -0.0461
32134W        W75187   0.985   9.188  16.594 -0.4474 -0.4648  0.1867
32135W        W75188  13.321   7.874  15.603  0.0725 -0.1735 -0.1532
32136W        W75189  28.542  15.081  23.791 -0.0700  0.0269 -0.3742
32137W        W75190   6.828  24.077  26.076 -0.1200  0.0731 -0.4419
32138W        W75191   9.836   6.153  18.071 -0.1622  0.1600  0.2568
32139W        W75192  22.202   1.790  17.561 -0.2335 -0.1839 -0.3343
32140W        W75193  28.018   8.971  22.416  0.0343 -0.0001 -0.0639
32141W        W75194   9.985  30.873  19.777  0.1847 -0.1521 -0.1761
32142W        W75195   1.301  22.778  18.963  0.1685 -0.0292 -0.1308
32143W        W75196   7.731  14.570  18.423  0.2314 -0.1297  0.1780
32144W        W75197   1.557  13.830  15.961 -0.1077  0.0293  0.0187
32145W        W75198  29.338  10.086   1.212  0.1892  0.1892 -0.0739
32146W        W75199  29.451   7.127  18.877  0.2767  0.1469  0.1535
32147W        W75200   2.377  34.516  19.460 -0.2986 -0.1335  0.1583
32148W        W75201  24.840   7.024  17.024 -0.1609  0.0260 -0.1045
32149W        W75202  21.778  23.891  15.636 -0.0937 -0.1545 -0.0540
32150W        W75203  32.929  26.430  16.256  0.2829 -0.0874  0.0446
32151W        W75204  12.899  31.773  23.508  0.1297  0.0266 -0.1280
32152W        W75205   4.710   4.214  25.516 -0.1276  0.0448  0.3164
32153W        W75206  21.611   1.462  21.003  0.0927  0.1070 -0.1275
32154W        W75207  33.717  33.560  13.334 -0.0589  0.0231  0.0017
32155W        W75208  15.174  30.501  18.891 -0.0152  0.0882  0.3050
32156W        W75209  28.246   8.145  20.674 -0.0423 -0.2214  0.0870
32157W        W75210   6.605  34.330  21.008 -0.1497 -0.2679  0.1396
32158W        W75211  27.238   2.625  17.456 -0.0231 -0.0518  0.1164
32159W        W75212   4.967  14.544  15.845  0.1694  0.0686 -0.2334
32160W        W75213  14.603  30.553  20.019  0.0788  0.0442 -0.0503
32161W        W75214  18.192  34.131  23.587 -0.0030  0.1187  0.2739
32162W        W75215  28.648   5.340  26.399  0.0350  0.0489 -0.0925
32163W        W75216  10.339  16.733  16.943  0.0606 -0.0376 -0.0441
32164W        W75217  32.471   5.789  17.274  0.1541 -0.1289 -0.2589
32165W        W75218  19.596   5.069  24.767  0.1122  0.0107  0.1636
32166W        W75219   1.629  16.446  25.694 -0.0728 -0.0424 -0.2416
32167W        W75220  11.275  18.551  15.304  0.0846  0.1027 -0.1202
32168W        W75221  28.458   6.729  24.621  0.0120 -0.0825 -0.1719
32169W        W75222  26.944   2.113  14.461  0.0788 -0.2296  0.3118
32170W        W75223  14.905  28.009  15.885  0.0478  0.3593 -0.0964
32171W        W75224   3.116  10.135  13.675 -0.0279  0.0674  0.0600
32172W        W75225  32.103  29.079   2.241 -0.0087  0.1417  0.0066
32173W        W75226   4.542  15.074   5.285  0.2235 -0.1223  0.2977
32174W        W75227  32.654  16.891  16.410  0.2871 -0.0673 -0.0956
32175W        W75228  12.307   8.636  28.232  0.0016  0.1936  0.0352
32176W        W75229   0.859  21.690  21.043  0.2559 -0.0155 -0.1216
32177W        W75230   6.908  25.996  29.065  0.0476 -0.0006 -0.5130
32178W        W75231  24.118   3.833  15.310  0.0426  0.1350  0.1750
32179W        W75232  13.092   2.204  16.713 -0.1426  0.0604  0.1984
32180W        W75233   2.822   7.404  25.095 -0.1937  0.0498  0.0509
32181W        W75234  14.184  12.431  21.603 -0.0360 -0.1593 -0.1575
32182W        W75235   0.490   4.329  14.919 -0.2615  0.1111  0.0644
32183W        W75236   5.037   2.457   4.554  0.4729  0.2936 -0.0742
32184W        W75237  33.044   4.551  14.965 -0.0840 -0.2926 -0.0595
32185W        W75238   7.265  20.483  23.390  0.0770 -0.1593 -0.0927
32186W        W75239  26.620   4.572  15.584 -0.1179 -0.1441 -0.1311
32187W        W75240  29.647  10.062  25.384  0.1379 -0.2807  0.4121
32188W        W75241  32.740  22.261  15.189 -0.2822  0.0489  0.1091
32189W        W75242  10.270   9.800  26.947 -0.0364 -0.0150  0.2597
32190W        W75243  33.677   6.356  17.466 -0.0775  0.0657  0.0400
32191W        W75244   7.742  11.231  16.390  0.1330 -0.0453 -0.1280
32192W        W75245  16.509  32.176  16.855  0.1501  0.0251 -0.0251
32193W        W75246  19.882  29.504   2.008  0.4342 -0.1054  0.5470
32194W        W75247  13.099   0.013  19.566 -0.4062  0.1425 -0.0056
32195W        W75248  28.359  25.520  22.037  0.0914  0.0120 -0.0245
32196W        W75249   3.808  17.331   5.674 -0.1111  0.1261  0.2769
32197W        W75250   0.578   2.790  22.055 -0.1207  0.3620 -0.3441
32198W        W75251  26.119   6.353  21.237 -0.1785  0.1491  0.3281
32199W        W75252  17.084   0.793  23.657  0.1251 -0.0028 -0.0846
32200W        W75253  16.428   4.580  22.813 -0.1711 -0.1049  0.0563
32201W        W75254  10.633  33.639  28.439 -0.4553 -0.1367 -0.1311
32202W        W75255  17.374  27.073  15.708  0.2967 -0.0446 -0.3906
32203W        W75256  31.165   0.711  20.826  0.0810  0.0854  0.1679
32204W        W75257  28.826  33.827  17.045 -0.0387  0.1954 -0.0124
32205W        W75258   3.234   7.156  22.223 -0.2885  0.2086  0.1864
32206W        W75259  24.914   9.356  21.503  0.1055 -0.2189  0.1818
32207W        W75260  26.325  12.223  17.824 -0.1551  0.0282 -0.1544
32208W        W75261  27.138  14.838  15.820  0.2839 -0.0230  0.1590
32209W        W75262  12.029  14.545  17.126  0.0387 -0.0046 -0.1447
32210W        W75263  26.873   4.473  14.547  0.0227 -0.0468 -0.2538
32211W        W75264  32.932  14.656  17.047  0.0295  0.0905 -0.1870
32212W        W75265  24.064  12.047   6.415 -0.0377 -0.1789  0.0694
32213W        W75266  11.689   2.715  16.357 -0.2823  0.0382 -0.0652
32214W        W75267  12.603   1.258  21.401 -0.2383 -0.4743  0.1308
32215W        W75268  32.174   4.273  14.860 -0.4382  0.0023  0.1245
32216W        W75269   1.224   7.509  24.580 -0.1454 -0.0084 -0.1651
32217W        W75270  20.609  33.024  20.542  0.1857  0.0244  0.1396
32218W        W75271  21.063  30.789  27.856  0.3882  0.1069  0.1426
32219W        W75272  32.827   1.289  16.522  0.0642 -0.1636  0.0336
32220W        W75273  10.656   7.405  19.314 -0.0164 -0.1447  0.0329
32221W        W75274   1.769   4.243  15.923 -0.0134 -0.1232  0.2871
32222W        W75275  19.429   4.453  20.838  0.0134  0.0533 -0.1369
32223W        W75276   6.595  12.512  19.815  0.0268 -0.1511  0.1929
32224W        W75277  31.820  17.863   8.840 -0.0121  0.1912 -0.1946
32225W        W75278   1.447  21.741  26.367 -0.2627  0.0747  0.1196
32226W        W75279  30.200  14.291   8.747 -0.1649 -0.0738 -0.0841
32227W        W75280  31.612  32.400  21.536  0.0445  0.0982  0.1331
32228W        W75281   5.258   5.836  22.406 -0.1759 -0.0423 -0.0814
32229W        W75282  24.559   5.733   4.773 -0.1026  0.1408  0.0004
32230W        W75283  31.793  24.476  16.719  0.1730  0.1412  0.3358
32231W        W75284  31.547   8.899  16.644 -0.3138 -0.1040  0.1902
32232W        W75285  25.295   3.530  25.337  0.2967 -0.0697 -0.0309
32233W        W75286   5.138  31.332  17.403 -0.1602  0.1771 -0.0886
32234W        W75287  23.617  28.348  18.695 -0.0715  0.2748  0.3066
32235W        W75288   0.396   7.979  20.404  0.1973 -0.0631 -0.0095
32236W        W75289  24.525   0.432   0.730 -0.1329  0.0135 -0.2373
32237W        W75290   3.930   7.495  24.978  0.0054  0.0523  0.0870
32238W        W75291   9.311  18.969  28.674  0.3002 -0.1746  0.2665
32239W        W75292  30.234  24.967  22.155 -0.0023 -0.2394 -0.3625
32240W        W75293   4.874  15.048  16.333 -0.1855  0.0668  0.1965
32241W        W75294  11.296   0.021  14.130 -0.0257  0.0797 -0.0526
32242W        W75295   0.912   8.618   5.060 -0.1181  0.0657 -0.1873
32243W        W75296  29.021   3.504   2.044 -0.3078 -0.1776  0.0105
32244W        W75297  12.300   3.932  20.253 -0.0954 -0.0188  0.0278
32245W        W75298  18.332  24.982  16.106 -0.3464 -0.0305 -0.1571
32246W        W75299   8.577   6.473  18.618 -0.0038 -0.2026  0.0371
32247W        W75300  21.014  29.597   6.396  0.2125  0.1662  0.0933
32248W        W75301   3.022  13.406   8.104  0.4671 -0.0217 -0.3947
32249W        W75302  25.338  25.257  26.148  0.0458 -0.2148  0.2437
32250W        W75303   2.291   3.240  15.468 -0.1311  0.0049  0.4030
32251W        W75304  34.340  21.833  18.731  0.1537  0.1091 -0.3065
32252W        W75305   1.046   6.704  21.970  0.1574 -0.0331 -0.0382
32253W        W75306  18.517  13.214   8.294  0.0731  0.2876  0.0851
32254W        W75307   8.477  32.923   0.448  0.0801 -0.1107 -0.0555
32255W        W75308  20.669   6.244  16.037 -0.0701  0.3653 -0.0184
32256W        W75309  30.982   2.735  23.453 -0.2576 -0.2759  0.2287
32257W        W75310  34.077  14.492   0.604  0.3728 -0.4056  0.4112
32258W        W75311   8.463   0.064  18.035 -0.0400 -0.0071  0.2378
32259W        W75312  27.447  32.989  18.357 -0.1048  0.1534 -0.1937
32260W        W75313  33.600   0.771  28.837  0.2531 -0.1729 -0.0601
32261W        W75314   1.527   7.836  27.596 -0.0941  0.1559  0.2141
32262W        W75315  19.701   3.036  21.489  0.0193 -0.1615  0.2590
32263W        W75316  16.818  10.207  24.069 -0.3001 -0.3236  0.2469
32264W        W75317  20.589  11.733   2.812 -0.2257 -0.1524 -0.0298
32265W        W75318   4.924  31.270   5.383  0.1734 -0.2185  0.0654
32266W        W75319   2.686   5.702  22.326 -0.1417 -0.2785  0.3216
32267W        W75320  28.520   5.904  17.958  0.1207 -0.1818  0.0082
32268W        W75321  32.093  27.783   1.954 -0.0800  0.1188  0.0682
32269W        W75322  32.204  27.812  22.081  0.1128  0.0997  0.0216
32270W        W75323  13.127  18.841  17.186  0.0833  0.0817  0.1808
32271W        W75324  20.387  34.420  25.782 -0.1071 -0.3674 -0.1146
32272W        W75325  19.424  25.687   1.876 -0.0922  0.3311 -0.0696
32273W        W75326   2.075   4.156  13.868 -0.1576 -0.1422 -0.1202
32274W        W75327   1.728  32.844  20.667  0.0576  0.3656 -0.0906
32275W        W75328  11.318   7.795  26.918  0.2852 -0.0885 -0.0767
32276W        W75329  26.391   2.692  17.728 -0.0968  0.1607  0.0572
32277W        W75330   9.776  34.013   2.530 -0.0758  0.0587  0.0784
32278W        W75331   7.351  20.722  27.318  0.2361 -0.1531  0.0268
32279W        W75332  26.626  11.974  22.155  0.0747  0.2714 -0.3228
32280W        W75333  12.638  31.375   9.430  0.0764 -0.0899  0.0471
32281W        W75334  22.837  12.755   0.460  0.0657  0.2293 -0.4250
32282W        W75335   6.704   3.236  17.902  0.0747 -0.2521 -0.1667
32283W        W75336  15.979  22.820  19.611 -0.0876 -0.1869  0.3137
32284W        W75337  17.434   2.600   4.203 -0.2031 -0.0350  0.1984
32285W        W75338  30.695  33.038   8.541 -0.0964  0.4600 -0.3068
32286W        W75339  29.705   9.160  18.002 -0.0008  0.1836  0.1744
32287W        W75340  23.266   2.463   3.562 -0.1251  0.1892  0.0200
32288W        W75341  22.616  11.114  15.033  0.0429 -0.2074 -0.1670
32289W        W75342   2.803   8.246  17.807 -0.0047 -0.3062 -0.0046
32290W        W75343  29.595   4.042   5.583 -0.0850 -0.1078 -0.1594
32291W        W75344  33.756  29.100   0.175 -0.0746 -0.3661  0.1928
32292W        W75345  30.862   3.293  17.642  0.2550  0.0398 -0.0006
32293W        W75346  27.834   1.871  13.945  0.1800  0.0152 -0.3629
32294W        W75347  18.771  10.352  25.067  0.1792 -0.1684  0.1000
32295W        W75348  10.775  15.788  18.737 -0.0799  0.1700  0.0141
32296W        W75349  20.319   8.007  23.114 -0.1541 -0.2697  0.2150
32297W        W75350   5.281   4.062  18.165 -0.2042  0.1201  0.0195
32298W        W75351  33.234  14.025  24.857 -0.3557  0.1227 -0.0557
32299W        W75352  32.274   9.264  15.005  0.0569  0.0062  0.0528
32300W        W75353  32.620  10.548  23.318  0.1057  0.1867 -0.0020
32301W        W75354   7.805   9.401   0.254 -0.1799  0.0480 -0.1682
32302W        W75355   6.753  10.653  28.440 -0.0659  0.2550  0.2649
32303W        W75356  22.986  33.174  26.447 -0.0269  0.0363 -0.1105
32304W        W75357  28.686   7.112   5.523  0.2885 -0.1731 -0.1276
32305W        W75358   3.764   4.118  18.565 -0.0943  0.2083  0.0024
32306W        W75359  21.994  30.171   4.152  0.1754  0.0256 -0.1091
32307W        W75360  30.118  10.771   1.041  0.1267 -0.0146  0.0391
32308W        W75361  32.433   4.068  18.888 -0.1826  0.1515  0.3319
32309W        W75362   1.522   6.359  19.174 -0.1695 -0.0390  0.0012
32310W        W75363  28.117  27.939  19.593  0.4846  0.0139 -0.2432
32311W        W75364  21.637  10.232  19.275  0.0225  0.0527 -0.0389
32312W        W75365  30.421   2.574   2.342 -0.0772  0.0199  0.3995
32313W        W75366  34.367   6.028  29.111  0.0876 -0.0335  0.2027
32314W        W75367  31.397   2.035   1.564  0.3136  0.0416 -0.1866
32315W        W75368  15.385   0.699   2.734 -0.1145 -0.1534  0.1568
32316W        W75369  27.779  26.150  14.213 -0.0600 -0.2098 -0.0035
32317W        W75370  31.233  20.340   8.008  0.0245  0.0157  0.0685
32318W        W75371   8.275   1.960  19.148 -0.1480 -0.0197 -0.1513
32319W        W75372   4.617   7.963  28.367  0.0735  0.0818  0.3030
32320W        W75373  24.635  11.303  15.591  0.0999 -0.0501  0.1724
32321W        W75374  26.821  24.505  25.370  0.0961  0.2740 -0.2514
32322W        W75375  25.265   8.129  18.451  0.1555 -0.0093  0.3257
32323W        W75376  32.346  28.336  26.159  0.0908 -0.0728 -0.1183
32324W        W75377  27.498  31.156   2.689  0.0101 -0.4184  0.0107
32325W        W75378  27.225  11.333  17.365  0.1567  0.0123  0.0442
32326W        W75379  20.366   4.360  26.624 -0.1216 -0.2056  0.1349
32327W        W75380  18.807  18.611  29.200  0.3678 -0.2367  0.0360
32328W        W75381  10.806   3.354   2.017  0.0098 -0.3425  0.1181
32329W        W75382  22.712  19.876  18.191 -0.0437 -0.3303  0.2053
32330W        W75383   7.383   4.531   7.778 -0.2019 -0.1253  0.0729
32331W        W75384  30.830  14.296   6.634  0.2500  0.0147  0.0133
32332W        W75385  24.597   1.457  20.865 -0.2356 -0.0726 -0.1455
32333W        W75386   3.065  17.268   0.973 -0.3162 -0.0454  0.1405
32334W        W75387  30.519   7.015  21.565 -0.0102  0.0693  0.1178
32335W        W75388  25.007  32.569  14.975  0.0011  0.2174 -0.2075
32336W        W75389  16.209   0.460  17.358 -0.1348 -0.3068  0.0561
32337W        W75390  14.686   7.692  23.499 -0.0288 -0.1094 -0.4107
32338W        W75391   6.087  14.981  16.506  0.0810 -0.0667 -0.4465
32339W        W75392  21.016  15.290  27.458 -0.0056  0.0967  0.0466
32340W        W75393   2.575  30.411  16.749 -0.0449  0.0864 -0.1186
32341W        W75394  31.462  11.356  20.203 -0.2919 -0.2539  0.1431
32342W        W75395   4.701   9.767  16.052 -0.1358 -0.0531 -0.2838
32343W        W75396  29.070  12.273  23.552  0.2522 -0.2393 -0.2450
32344W        W75397  25.628   6.152  14.823 -0.1005  0.1131 -0.1755
32345W        W75398  19.023  33.609  28.877 -0.2058 -0.0607 -0.2772
32346W        W75399  17.157   8.392  15.455  0.0533 -0.1572 -0.2788
32347W        W75400  20.888  33.169   6.194 -0.1555 -0.0050 -0.1745
32348W        W75401   1.594   2.523   5.780 -0.2513 -0.3086 -0.1126
32349W        W75402  34.485   0.189  24.485  0.3410  0.1628  0.3209
32350W        W75403  29.896   4.189  13.478  0.1718  0.0602  0.0526
32351W        W75404  34.524  28.582  21.545 -0.1475  0.1936  0.1198
32352W        W75405  25.488  11.097  20.163 -0.0723  0.0928 -0.2738
32353W        W75406  32.989   7.283  23.876 -0.0439 -0.2199 -0.2382
32354W        W75407   2.788  13.659  26.562 -0.1698  0.1098  0.1696
32355W        W75408  34.480  13.198  14.526 -0.0770 -0.1523  0.0306
32356W        W75409  23.376   7.669  19.914 -0.1861  0.2921 -0.0290
32357W        W75410   9.881   8.302  24.576  0.1299  0.1185  0.1932
32358W        W75411  27.736  32.870  21.747  0.1010  0.2602  0.0972
32359W        W75412  17.843  29.945  18.822 -0.1291 -0.1526  0.0604
32360W        W75413  20.683  10.901  14.928  0.0955  0.2695 -0.2396
32361W        W75414   0.261  31.363  17.519 -0.2954 -0.0042 -0.0667
32362W        W75415   1.994   9.652  17.967 -0.1131  0.1652 -0.1969
32363W        W75416   0.707  15.661  19.920 -0.0295 -0.1250  0.0938
32364W        W75417   7.856  19.795  15.548  0.1891 -0.4137 -0.2162
32365W        W75418   6.546   1.248  15.417  0.3182 -0.0432 -0.2946
32366W        W75419   8.029  29.856  26.364 -0.2068  0.0524 -0.3199
32367W        W75420  21.919   6.496  18.268  0.0327  0.3979  0.1793
32368W        W75421   6.122   1.025  20.524 -0.1439 -0.0960 -0.0292
32369W        W75422  24.317  18.689  24.979 -0.0329  0.2489  0.1840
32370W        W75423  34.292  12.498  17.803  0.0873 -0.1091 -0.3998
32371W        W75424   1.446  20.655  19.334 -0.0949 -0.2808  0.0674
32372W        W75425  28.902  31.070   2.730 -0.0100  0.0804  0.2557
32373W        W75426  17.771  29.997  16.946 -0.0019 -0.1647  0.3713
32374W        W75427  20.497   9.946  15.595 -0.0872 -0.1125 -0.1567
32375W        W75428   9.698  25.278  23.158  0.1166  0.0277 -0.0582
32376W        W75429  17.905  13.934   7.913  0.0365 -0.1740  0.0414
32377W        W75430   6.288  34.351  20.659  0.2366 -0.3667 -0.2626
32378W        W75431  17.234  32.316  17.497  0.1840  0.1548 -0.0738
32379W        W75432  23.196   6.389  18.780  0.1905  0.2830 -0.0797
32380W        W75433  11.784  32.302   2.598  0.0029  0.1923 -0.2534
32381W        W75434  30.584  17.453  13.205  0.1965 -0.2734  0.1671
32382W        W75435  23.066  18.474  15.652  0.1201 -0.0259  0.1207
32383W        W75436   4.581  33.956  25.766 -0.0016 -0.1945  0.3073
32384W        W75437  24.150  14.616  24.677 -0.2779 -0.2400  0.1856
32385W        W75438  24.730  10.759  20.549  0.0509  0.1218  0.4984
32386W        W75439   8.367  30.098  21.515 -0.0101  0.4128  0.5479
32387W        W75440  29.962   7.862  27.026  0.1745 -0.0356  0.2497
32388W        W75441   2.761  34.569  17.688 -0.0542 -0.1159  0.0875
32389W        W75442   7.884  16.660  19.325  0.2549 -0.0767 -0.0460
32390W        W75443  22.171   5.158  15.394  0.2938 -0.0788 -0.1099
32391W        W75444   6.826  17.851  21.826 -0.0214 -0.2368  0.1371
32392W        W75445   6.945  24.730   7.705 -0.0332 -0.1481  0.1146
32393W        W75446   9.402  34.015  25.996 -0.1272  0.1327  0.2688
32394W        W75447  26.621  18.605  17.337  0.0982 -0.0995 -0.0128
32395W        W75448   6.512   8.202  17.819  0.2454  0.0031  0.3339
32396W        W75449   9.450  14.620  18.047 -0.0615  0.1704  0.1409
32397W        W75450  33.305  16.071  24.945 -0.0765  0.0737 -0.0228
32398W        W75451  13.292   8.915  25.981 -0.0670  0.0721  0.4562
32399W        W75452  21.455  17.549  14.484  0.0124  0.0784  0.2631
32400W        W75453  26.879  30.970  17.293  0.0839 -0.0182  0.0627
32401W        W75454  19.958  10.284  17.366 -0.0606  0.0245  0.2596
32402W        W75455  29.730  12.971  15.145 -0.0292 -0.1119 -0.1922
32403W        W75456   0.187  25.512  20.811  0.1869  0.0708  0.0092
32404W        W75457   3.567  16.441  23.665 -0.1727  0.2647  0.1141
32405W        W75458  30.236  11.401  18.332  0.0630 -0.0465  0.1429
32406W        W75459  11.817  17.747  21.330  0.0164 -0.3553  0.1849
32407W        W75460  13.158   5.011  23.722 -0.1963 -0.0008  0.0556
32408W        W75461  31.880  19.481   4.399 -0.2836 -0.1873 -0.0460
32409W        W75462  11.469   2.561  22.838  0.2032 -0.2279  0.1432
32410W        W75463   7.151  13.033  20.641 -0.1133 -0.2223  0.1766
32411W        W75464   6.617   0.571  23.885  0.0264  0.0756  0.3559
32412W        W75465   6.683   4.136  21.135 -0.2157  0.0748  0.1521
32413W        W75466  16.387  17.631  27.551  0.0676 -0.1195  0.1101
32414W        W75467   4.285  28.553  21.867 -0.1264 -0.0572  0.0079
32415W        W75468  22.000  33.897  19.903  0.1349  0.2929 -0.0573
32416W        W75469  23.701   0.752  21.472 -0.1607 -0.1180  0.0547
32417W        W75470  27.423   8.819  20.757  0.2970  0.1995 -0.2258
32418W        W75471  26.309  28.434  19.807 -0.1082 -0.3322  0.0020
32419W        W75472   2.239  30.270  28.864 -0.2300 -0.1714  0.0667
32420W        W75473   7.357  28.988  22.176  0.3257  0.2288 -0.2554
32421W        W75474  30.253  22.052  15.276 -0.0215  0.1169  0.0704
32422W        W75475   0.394   7.308  15.495  0.0016 -0.0866  0.1277
32423W        W75476  34.108  32.493   2.850 -0.2382  0.2623 -0.4035
32424W        W75477   4.842   7.789  24.042  0.1807  0.0716 -0.0485
32425W        W75478  25.838   3.166  18.979  0.1729  0.0484 -0.2069
32426W        W75479  32.570   8.463  22.723  0.1596  0.2189 -0.1634
32427W        W75480   6.183  10.816  14.558 -0.2150 -0.0973  0.4809
32428W        W75481  24.305  30.928  26.621  0.2931  0.1548 -0.1513
32429W        W75482  30.405   4.724  26.275  0.0964  0.1702 -0.1420
32430W        W75483  22.621  33.629  22.331 -0.2628  0.0742  0.0124
32431W        W75484   0.660  15.244  21.163  0.0644  0.3594 -0.0962
32432W        W75485   6.445  10.107   0.253 -0.0612  0.1307  0.2007
32433W        W75486   6.402  33.813  14.819  0.0784  0.0389  0.0132
32434W        W75487   2.393  30.791  15.918  0.0261 -0.0410 -0.2176
32435W        W75488  10.392  16.960  15.374  0.1425  0.0685  0.2007
32436W        W75489   0.335  13.579  22.893 -0.0027 -0.2914  0.0605
32437W        W75490   7.192   5.965  19.826  0.0302  0.3026 -0.4283
32438W        W75491   3.070  34.438  14.636  0.0851 -0.0694  0.1171
32439W        W75492   8.783   4.485  14.440 -0.2158 -0.1808  0.1468
32440W        W75493  24.568  33.244  28.127 -0.2171  0.1204 -0.1206
32441W        W75494   5.405   3.440  15.630 -0.0071 -0.3012  0.0543
32442W        W75495   3.437  11.843  19.915  0.2717 -0.2685 -0.3967
32443W        W75496  22.239  34.649  27.979 -0.0238  0.3721 -0.2142
32444W        W75497   6.492  26.428  15.630  0.2449  0.0401 -0.0031
32445W        W75498  11.253  12.994  25.802 -0.0018 -0.2761 -0.3114
32446W        W75499   3.894   8.460  26.196  0.1004  0.0764 -0.0271
32447W        W75500   5.156  31.853  16.188 -0.3122  0.1002 -0.1384
32448W        W75501  23.814  17.575  15.632 -0.3138  0.2715  0.4914
32449W        W75502  29.369   9.899  17.876 -0.0586 -0.0787 -0.0825
32450W        W75503  26.525  34.627  15.728 -0.4573  0.0571 -0.1349
32451W        W75504  29.553   4.995  26.063 -0.1831  0.2025  0.0539
32452W        W75505   0.197   5.798  24.669  0.1730 -0.0749  0.1838
32453W        W75506  20.128   3.633  17.643  0.0785 -0.2396  0.2166
32454W        W75507  24.072  27.532  18.231  0.1204  0.0662  0.3679
32455W        W75508  12.923   4.124  24.756 -0.2360  0.0557 -0.2692
32456W        W75509  34.072  22.707  25.149  0.0116  0.2516  0.3785
32457W        W75510  31.166   1.253  26.197  0.1368  0.2768  0.0988
32458W        W75511   5.460   4.661  21.814  0.1278  0.0733 -0.0168
32459W        W75512  27.850  23.663  20.611  0.4118  0.1657  0.2910
32460W        W75513  30.297   8.818  16.792  0.0403 -0.0930 -0.2268
32461W        W75514   5.262  13.508  14.206 -0.0868  0.0192  0.1022
32462W        W75515   3.108   1.266  21.492  0.1797 -0.1048  0.1040
32463W        W75516  33.666   4.621  27.223  0.1898 -0.2768  0.1003
32464W        W75517  29.049  12.323  19.802  0.3226  0.1124  0.1043
32465W        W75518  22.647  30.294   6.350 -0.1356 -0.0507 -0.0408
32466W        W75519   8.095   9.518  17.202  0.2833  0.0507 -0.6127
32467W        W75520   6.031  29.680  13.635 -0.0914 -0.2202  0.0670
32468W        W75521   9.286  16.449  17.754  0.1327 -0.4043  0.0458
32469W        W75522  30.717  13.289  25.136  0.0193 -0.1507  0.1039
32470W        W75523   3.978  15.436   6.191  0.3848 -0.1738  0.0027
32471W        W75524   2.135  28.607  20.968 -0.2386 -0.0460 -0.0891
32472W        W75525  17.437  24.587   4.456 -0.0856 -0.1848  0.0580
32473W        W75526   0.323   8.857  26.115 -0.2025 -0.0813  0.1250
32474W        W75527   7.032  10.692  19.367  0.2634  0.0418  0.3088
32475W        W75528  34.086  33.841   3.682  0.1147  0.0955 -0.0905
32476W        W75529  32.029  32.554  19.613 -0.2782 -0.0428 -0.0489
32477W        W75530  28.649  31.621  18.580  0.3503 -0.1527 -0.1950
32478W        W75531  32.744  28.301   7.694 -0.3688 -0.0445 -0.1126
32479W        W75532  30.705   4.971  20.268 -0.2229 -0.2787 -0.0104
32480W        W75533   3.922  32.328  20.067 -0.0159  0.1613  0.1960
32481W        W75534  29.550   5.976  14.302  0.1273 -0.0069 -0.1110
32482W        W75535  33.416  32.075  18.053  0.1881 -0.0332 -0.0555
32483W        W75536  34.039   0.697  18.646  0.2128 -0.2125 -0.1357
32484W        W75537   3.089   2.609  21.523 -0.0224 -0.3171  0.0523
32485W        W75538  18.111   1.244  20.680 -0.0777 -0.1073 -0.1544
32486W        W75539  24.107  33.133  21.254 -0.3603 -0.1380 -0.1130
32487W        W75540  31.506   3.647  23.442 -0.0962  0.0607 -0.0279
32488W        W75541  10.382  34.563  15.504 -0.1748 -0.1206  0.0549
32489W        W75542  23.779   6.926  19.751 -0.1853 -0.3065 -0.4092
32490W        W75543  20.095   8.812   8.722 -0.0000  0.4188  0.2871
32491W        W75544   2.220  17.403  17.179 -0.0193  0.0909 -0.2531
32492W        W75545   1.466   0.538  19.272 -0.0913 -0.1601 -0.0116
32493W        W75546  16.252  13.054  26.742  0.1170 -0.0609 -0.1778
32494W        W75547   7.639  34.385  16.263 -0.2992  0.1820 -0.3049
32495W        W75548   6.285  25.740   6.135 -0.0951 -0.1795 -0.1486
32496W        W75549  31.102  29.286  24.931  0.0826 -0.1297  0.1460
32497W        W75550  27.703   6.361   7.777  0.0944 -0.1069  0.0928
32498W        W75551  32.247  13.962  20.640 -0.1708 -0.1363  0.1644
32499W        W75552  16.369  30.270  20.127  0.2882 -0.2936 -0.1119
32500W        W75553  17.021  34.298   6.608  0.0459  0.1486 -0.0887
32501W        W75554  16.938  21.964  17.242  0.2080 -0.5043  0.1054
32502W        W75555  34.089   5.442  15.327 -0.0197 -0.1528  0.2190
32503W        W75556  22.521   9.946  16.143  0.0303 -0.0098  0.0709
32504W        W75557  28.699   4.752  17.232 -0.0197  0.1713 -0.2904
32505W        W75558   4.529   7.587  20.998 -0.3107 -0.0918  0.1440
32506W        W75559  27.882   6.478  27.254 -0.1833 -0.1331  0.0123
32507W        W75560  18.604   9.447  20.850  0.1508 -0.0232  0.0837
32508W        W75561  31.081   2.875  16.040  0.0359  0.0469  0.0398
32509W        W75562  32.335  20.653  15.819 -0.0170  0.1003  0.2758
32510W        W75563  19.396   9.212  25.841 -0.1271  0.2635 -0.2038
32511W        W75564  30.588  18.152   4.513 -0.2363  0.1879  0.1104
32512W        W75565  27.518  15.201  21.524  0.2165  0.1681  0.1914
32513W        W75566  32.898  17.856  14.806  0.2603  0.2177 -0.1239
32514W        W75567  17.979  15.618   0.419  0.0373  0.0535  0.1318
32515W        W75568  27.521   0.946  15.608 -0.0330 -0.0940 -0.0903
32516W        W75569  18.021   6.291   8.583 -0.1379  0.0102 -0.1716
32517W        W75570   2.450   0.605  16.927  0.1869  0.1360 -0.0851
32518W        W75571   6.247   4.677  14.716 -0.2196 -0.0953  0.0010
32519W        W75572  26.062  15.310  16.572  0.0143 -0.0068 -0.1470
32520W        W75573  18.496  30.571  15.239 -0.5247 -0.0805  0.1147
32521W        W75574  14.633   8.907  19.564  0.4589  0.0566 -0.0672
32522W        W75575   3.858   7.613  21.733  0.1494  0.0463  0.1842
32523W        W75576  34.648   8.440  20.913  0.2135  0.1813  0.0383
32524W        W75577  27.734  15.669  21.903 -0.2567  0.1010  0.1798
32525W        W75578  27.602  13.554  22.632  0.1350  0.1712 -0.1922
32526W        W75579  23.394  30.356  18.078 -0.3599  0.0172 -0.4109
32527W        W75580  29.260  29.155  13.651  0.1365  0.3736  0.0037
32528W        W75581  24.132  11.741  23.679  0.1223  0.0108 -0.1407
32529W        W75582  12.241  31.036  18.305  0.0969  0.0855  0.2062
32530W        W75583  27.166  32.620  24.480 -0.3283 -0.3132 -0.1474
32531W        W75584  23.592  19.612  26.563  0.1272 -0.2108  0.0013
32532W        W75585  32.295  33.153  25.770 -0.0354  0.2615  0.0713
32533W        W75586  28.720  33.654  19.487  0.0642  0.1737 -0.0468
32534W        W75587   1.599  32.899  23.726 -0.0434  0.0143  0.2318
32535W        W75588  33.982   3.338  24.319 -0.2225 -0.3684  0.1164
32536W        W75589  29.419   2.631  16.019 -0.1313 -0.3805  0.0371
32537W        W75590  24.264   9.593  18.385 -0.2243  0.1797 -0.0141
32538W        W75591  24.199  16.610  27.284 -0.0557  0.1498  0.1333
32539W        W75592  26.296  24.736  18.203 -0.0008  0.0424 -0.3199
32540W        W75593   0.640  34.297  20.350  0.1699  0.0041  0.1672
32541W        W75594  21.035   5.996  17.596  0.2787  0.2424 -0.0095
32542W        W75595  23.192   0.650  15.291 -0.1309 -0.0445 -0.0993
32543W        W75596  28.125  15.341   4.808  0.0604 -0.2408 -0.1535
32544W        W75597  26.125   5.589  15.876  0.0705  0.0057 -0.0829
32545W        W75598  12.978  18.295  29.167 -0.3245 -0.0017 -0.0882
32546W        W75599  22.855   2.056  15.929  0.1280  0.1565  0.3161
32547W        W75600   4.106   7.237  14.936 -0.1279 -0.2639 -0.2623
32548W        W75601   4.046   3.308  27.113  0.1761 -0.1364  0.1850
32549W        W75602  27.900  26.967  20.096 -0.3263 -0.0528  0.0117
32550W        W75603  14.270   4.742  17.465 -0.1237 -0.0359 -0.1260
32551W        W75604  13.089  33.767   5.716 -0.1871 -0.0230  0.2070
32552W        W75605   7.636  12.482  16.219  0.0093 -0.1514  0.1114
32553W        W75606   5.719  11.341  26.606 -0.1887 -0.1203  0.1259
32554W        W75607  21.030  28.846   1.135 -0.0871 -0.0245 -0.0963
32555W        W75608  27.321  20.818  15.858 -0.2321 -0.4016 -0.2806
32556W        W75609  15.250  13.601  21.616  0.0396 -0.1462  0.3288
32557W        W75610   7.716  32.043  19.667  0.0468 -0.1302  0.0211
32558W        W75611  30.236  14.342  18.175  0.2520 -0.0378  0.0809
32559W        W75612   7.050   5.663  19.417 -0.1513 -0.1346  0.0680
32560W        W75613   0.130  29.142  19.705  0.0973  0.0152 -0.0313
32561W        W75614  26.921  10.287  23.980  0.0678 -0.2640 -0.2444
32562W        W75615  13.255   6.112   7.890  0.1625  0.0240  0.1111
32563W        W75616  33.524   3.426  22.941 -0.0576 -0.1674 -0.1694
32564W        W75617   1.867  29.042  23.951 -0.0580 -0.0848 -0.0906
32565W        W75618  12.704  29.609  15.442  0.3756  0.0959 -0.2442
32566W        W75619  14.314   1.644  21.687  0.0191 -0.2203 -0.0791
32567W        W75620  26.089   5.596   0.608  0.0450  0.1790  0.2144
32568W        W75621  25.282   0.766   7.059  0.2032  0.0398 -0.0754
32569W        W75622  10.570  20.498  28.702 -0.0346 -0.0092 -0.2585
32570W        W75623  33.223   7.701  23.852  0.1421 -0.1046 -0.1173
32571W        W75624  28.661  31.197   0.779 -0.1915 -0.0293 -0.1817
32572W        W75625  32.401   3.501   7.433  0.1783  0.1270  0.2447
32573W        W75626  23.905  13.437  22.155 -0.0464 -0.1152  0.1074
32574W        W75627  27.073   3.693  28.849  0.6220  0.2000  0.1204
32575W        W75628   5.841   1.868  28.171  0.2651 -0.0821  0.0144
32576W        W75629  20.337   4.928   7.580 -0.1970  0.0799 -0.3663
32577W        W75630   1.082   3.860   2.002 -0.1246  0.1047 -0.0887
32578W        W75631   4.476   7.878   8.401  0.0513 -0.0235  0.0662
32579W        W75632  13.025   2.599  14.365  0.0484 -0.0150  0.0959
32580W        W75633  33.491   1.672  15.857  0.2975  0.2600 -0.0828
32581W        W75634  29.947  27.566  15.853  0.3755 -0.2962  0.0785
32582W        W75635  10.768   3.912  26.371 -0.2034 -0.0750 -0.1012
32583W        W75636  18.231   3.016  17.387 -0.0546 -0.3400 -0.0123
32584W        W75637  19.611   1.742  18.996  0.0277 -0.2814  0.0085
32585W        W75638  22.546   8.007  14.757  0.0026 -0.1360 -0.3378
32586W        W75639  33.909  10.666  14.386 -0.0047  0.1771 -0.0857
32587W        W75640  30.519  24.394  16.110  0.1227  0.0177  0.2084
32588W        W75641  23.971  24.788  18.155  0.3700  0.1326  0.0462
32589W        W75642  20.227   3.073   0.491  0.1419 -0.1795  0.2115
32590W        W75643   0.471   1.724  20.789 -0.0782 -0.1632 -0.1124
32591W        W75644   7.786  10.538  15.316  0.1170  0.2353 -0.0159
32592W        W75645  23.444  11.292   7.768 -0.0656 -0.1542 -0.0838
32593W        W75646   2.645   1.731  17.482  0.1708 -0.4156 -0.1498
32594W        W75647  31.908  30.614  26.383  0.0525 -0.0861 -0.2518
32595W        W75648  23.573   9.799  23.748  0.2724 -0.0968 -0.1526
32596W        W75649   7.281   0.547  17.355  0.1317 -0.0876  0.1690
32597W        W75650  28.241   0.007  24.841  0.0096 -0.1777  0.0020
32598W        W75651  19.154   6.401  24.608 -0.1169  0.0619  0.1088
32599W        W75652  21.341  29.587  21.628 -0.2458 -0.0416 -0.0084
32600W        W75653   7.425  21.113   3.404 -0.2332 -0.0320  0.2051
32601W        W75654  14.517  29.662  26.664  0.1734  0.0710  0.0485
32602W        W75655  31.760   9.196  17.964  0.0048  0.0847  0.1709
32603W        W75656   5.333   0.912   7.122 -0.1279 -0.0064 -0.3196
32604W        W75657  25.285   8.221  21.975 -0.0524  0.1575  0.1322
32605W        W75658   6.722   6.110  19.567  0.3483 -0.0825 -0.0892
32606W        W75659   9.487   2.681  26.792  0.0586 -0.3405  0.1201
32607W        W75660  22.749   2.673  16.412 -0.2198 -0.0429  0.2068
32608W        W75661  15.112   5.525   5.513 -0.1960  0.0484  0.1024
32609W        W75662  31.591   9.236   7.039 -0.0801  0.0279  0.0394
32610W        W75663  31.047  33.770  26.604  0.0342 -0.1701  0.1972
32611W        W75664   4.330  15.285   0.287 -0.1757  0.1918 -0.0277
32612W        W75665  32.942  16.950  19.544 -0.3642  0.1765 -0.1927
32613W        W75666  24.593  11.502  26.278 -0.0588  0.2768  0.0188
32614W        W75667   4.180  32.535  26.140 -0.0655 -0.3303 -0.3206
32615W        W75668  20.775  11.203  14.603  0.1161 -0.0317  0.0638
32616W        W75669   1.478   3.427  27.926 -0.2389  0.2440  0.4010
32617W        W75670   0.562   0.587  15.248 -0.1047 -0.0413 -0.4177
32618W        W75671  32.609  33.576  15.878  0.2032  0.0935  0.0144
32619W        W75672   7.532  15.786  21.425 -0.0773 -0.1095  0.2289
32620W        W75673  26.614  32.292  21.627  0.3026 -0.0992  0.2637
32621W        W75674   3.707   2.383  23.216  0.2254  0.0118 -0.0075
32622W        W75675  34.283   6.323  25.656  0.1395  0.1089 -0.0490
32623W        W75676   0.236  21.362  17.877  0.0404  0.1601  0.1544
32624W        W75677  25.357   4.980  20.425  0.0737 -0.1035 -0.0067
32625W        W75678  12.455  26.534  16.615 -0.0867  0.0162  0.0517
32626W        W75679  24.263   1.700  22.324  0.0036  0.0235 -0.1980
32627W        W75680  25.504  15.029  18.347 -0.1941  0.0638  0.3104
32628W        W75681   3.990   1.688  16.015  0.1665 -0.0589  0.2051
32629W        W75682  29.103  10.678  17.736  0.2995  0.4306  0.0749
32630W        W75683  19.360   4.789  21.237  0.0787  0.2482 -0.0984
32631W        W75684  22.487   6.007  26.394  0.3259 -0.0312 -0.2546
32632W        W75685  31.432  10.203  24.259 -0.0150  0.1979  0.1932
32633W        W75686  10.587  32.711   2.632  0.2930 -0.3299  0.1761
32634W        W75687  24.391  30.528  20.078 -0.1926  0.1802 -0.1082
32635W        W75688   1.828   3.956  23.559 -0.0969  0.1268  0.0545
32636W        W75689  28.807   5.689  25.922 -0.1788 -0.1194 -0.2164
32637W        W75690  34.290  23.488  14.968  0.1504  0.1122 -0.1405
32638W        W75691  11.690   1.586  16.126 -0.0157 -0.1010 -0.1246
32639W        W75692  22.622  32.600  20.579 -0.0280  0.2171  0.1942
32640W        W75693  22.703   7.893  24.967 -0.0093  0.2270 -0.1542
32641W        W75694  30.702   2.863  13.721  0.0522  0.2146  0.1716
32642W        W75695  25.426   8.434  19.268 -0.0610  0.2598  0.1987
32643W        W75696   9.338  23.722   0.195 -0.1940 -0.0208  0.2395
32644W        W75697  25.407  30.144  21.100  0.1714  0.0448  0.1109
32645W        W75698  30.112  26.314  15.230 -0.1744  0.3530  0.2196
32646W        W75699   1.935  12.114   0.287 -0.1647 -0.0313 -0.1099
32647W        W75700  32.444   8.114   3.740  0.2154 -0.1301 -0.1169
32648W        W75701   0.343  15.303  26.152 -0.0444 -0.0763  0.0369
32649W        W75702   3.244   2.491   2.844 -0.1450 -0.2588 -0.0464
32650W        W75703   5.341  11.725  17.073  0.0909  0.1062 -0.0529
32651W        W75704  22.571  26.121  23.823 -0.2600  0.0066 -0.2357
32652W        W75705   6.241   1.994  27.726  0.0003  0.4223 -0.0823
32653W        W75706   4.684  23.768   5.037  0.0087 -0.3147 -0.0369
32654W        W75707  22.607   1.878  18.297 -0.2260  0.3940  0.0768
32655W        W75708  33.026  10.221  25.188 -0.2938 -0.3076  0.0627
32656W        W75709  25.726  18.962  19.549  0.0998 -0.3641  0.1394
32657W        W75710  26.323   6.854  20.344 -0.0940  0.1359  0.1122
32658W        W75711  26.825   1.789  17.360  0.2738 -0.0537 -0.1311
32659W        W75712  19.727   7.088  16.231  0.2349  0.1358  0.0875
32660W        W75713   5.336  20.810  20.756  0.0695 -0.0083 -0.2573
32661W        W75714  11.686   7.139  26.603  0.1017  0.3879  0.0346
32662W        W75715   6.181  29.022  19.374  0.1640 -0.1553  0.0694
32663W        W75716  32.253   4.281  23.702  0.0145  0.0223 -0.0969
32664W        W75717  29.867   5.354   6.601  0.0249 -0.0081 -0.1402
32665W        W75718  27.368   0.909  19.424 -0.3161 -0.2394  0.1018
32666W        W75719  28.241  16.956  18.446 -0.2125  0.3342 -0.1276
32667W        W75720   2.560   7.714  17.409  0.0577  0.1313  0.3707
32668W        W75721  11.033   9.182  23.368 -0.0913 -0.1893  0.0897
32669W        W75722  25.594  18.545   3.444  0.1098 -0.0406  0.1910
32670W        W75723  26.237   5.310  27.367  0.2120  0.0129  0.0179
32671W        W75724  18.721   7.555  26.897  0.1698 -0.1480 -0.0265
32672W        W75725  27.731   1.780  17.727 -0.1340  0.1076 -0.0947
32673W        W75726  21.284   7.150  16.881  0.0721 -0.0579  0.0113
32674W        W75727   2.216  14.697   2.908 -0.1080 -0.3370 -0.0730
32675W        W75728   1.595   7.756  17.315  0.1555 -0.0978  0.0574
32676W        W75729  24.888  31.432   8.032  0.1906 -0.1311 -0.0782
32677W        W75730  33.283  34.036  14.011 -0.0726  0.2295  0.2696
32678W        W75731  27.339   4.947  16.223 -0.0278  0.3230 -0.0344
32679W        W75732   1.572  33.746  23.626  0.2951  0.0450 -0.1894
32680W        W75733  24.453  26.368  14.962  0.1596 -0.0382  0.0646
32681W        W75734  28.927  30.461  24.213 -0.1430 -0.3781 -0.1489
32682W        W75735  24.894  13.677  20.268 -0.0848  0.0109 -0.2396
32683W        W75736  25.079  19.881   9.212 -0.2246 -0.0161  0.0221
32684W        W75737  23.106  18.038  27.870  0.2601 -0.2336  0.1761
32685W        W75738  31.486  34.248  24.960 -0.1370 -0.1941  0.0129
32686W        W75739  27.943  28.651  16.765 -0.1692 -0.0661 -0.1922
32687W        W75740  30.151  10.839  25.384 -0.4147 -0.3102  0.2315
32688W        W75741  27.061   7.984   6.864 -0.2606  0.3826  0.1283
32689W        W75742  18.874  28.574  16.228  0.2221  0.4171 -0.2328
32690W        W75743  34.351  19.993   3.998 -0.0053  0.0278 -0.1938
32691W        W75744  17.329   1.327  16.392  0.0148  0.0296  0.1382
32692W        W75745   0.947  11.471  18.180  0.0887  0.0593  0.2067
32693W        W75746  31.778   4.064   2.157 -0.0671  0.0925 -0.0059
32694W        W75747  29.915   4.197  21.920 -0.3282  0.0522  0.4431
32695W        W75748  32.242  21.007   4.592 -0.0844 -0.1291  0.0098
32696W        W75749  13.122   1.335   9.407 -0.1855 -0.1221 -0.2701
32697W        W75750  29.637   8.607  19.943  0.0087  0.0869  0.0110
32698W        W75751  19.459   8.102  14.028  0.1846 -0.2697 -0.2078
32699W        W75752   5.977   3.825  28.388 -0.1111  0.2171  0.0912
32700W        W75753   9.315  34.333  26.530 -0.0044 -0.4286  0.2876
32701W        W75754  30.061  10.726  23.133 -0.1784  0.3189  0.1002
32702W        W75755  26.881  33.909  10.756 -0.1354  0.3560  0.0821
32703W        W75756   7.207  32.729  27.476 -0.1991 -0.0089 -0.2485
32704W        W75757  24.212  29.677   7.898  0.3016 -0.0483 -0.1521
32705W        W75758  11.641   3.351   3.068  0.1427 -0.1980  0.0037
32706W        W75759  29.386   2.113   3.876 -0.1131  0.0025 -0.0099
32707W        W75760   5.047   5.785  16.761  0.0813 -0.2879 -0.0178
32708W        W75761  33.289   0.827  21.772  0.1812 -0.0488 -0.0029
32709W        W75762  33.855   4.577  26.149 -0.1518 -0.0307 -0.0431
32710W        W75763  30.550  15.874  10.371  0.0060 -0.3086  0.0016
32711W        W75764  30.684  12.434   1.530  0.2054  0.0194 -0.0148
32712W        W75765  25.014  17.608  14.167 -0.0865  0.2468 -0.0563
32713W        W75766  13.781   9.687  25.104  0.0584  0.0628 -0.0219
32714W        W75767  21.211   1.601  18.924  0.4262 -0.0424  0.0551
32715W        W75768  19.751  27.384  27.880 -0.1563 -0.1892 -0.2152
32716W        W75769  20.475  14.476  25.361  0.2875 -0.0731 -0.1456
32717W        W75770  26.234  19.187  18.691  0.1403  0.0894  0.1694
32718W        W75771  29.038  22.816  26.738  0.2058 -0.1465  0.3308
32719W        W75772  29.353  24.274  28.744 -0.1476 -0.1603 -0.0869
32720W        W75773  14.054   4.055  14.343  0.1274  0.2210  0.2348
32721W        W75774   0.616  30.744  13.905 -0.2212 -0.1714 -0.0862
32722W        W75775   8.740  12.770   9.426  0.2072  0.1310 -0.0131
32723W        W75776  23.981   8.280   4.024 -0.1862  0.3696  0.0209
32724W        W75777  31.442  32.732  24.727 -0.1481 -0.1707  0.0528
32725W        W75778  31.316  28.210  23.189  0.1318  0.2982  0.2392
32726W        W75779  16.500  26.026  15.631  0.2893 -0.1068  0.0383
32727W        W75780  28.891  16.075  16.422 -0.1466 -0.1413 -0.1839
32728W        W75781  29.590  14.541   4.165  0.1001  0.2674  0.2263
32729W        W75782  21.144  31.411   9.224 -0.0089  0.0629 -0.0927
32730W        W75783  21.503   2.776  17.567 -0.2119 -0.1029 -0.1867
32731W        W75784  28.628  14.421  24.617 -0.2109  0.1656 -0.0154
32732W        W75785   5.403  22.483   8.915  0.3761  0.3864  0.0754
32733W        W75786   1.504   1.866  14.250  0.2147  0.2973 -0.1454
32734W        W75787   1.628  12.721   6.325  0.0430 -0.2780 -0.1622
32735W        W75788  21.457  18.543  25.479 -0.0521 -0.3574  0.2350
32736W        W75789  23.547   8.104  28.237  0.1839  0.0105 -0.0085
32737W        W75790  31.834  34.273   4.630  0.0503  0.0406  0.0454
32738W        W75791  32.246   1.289  14.687 -0.1247 -0.0213  0.0153
32739W        W75792  29.031  32.821   8.935 -0.0969  0.0730  0.0394
32740W        W75793  28.115  11.568   7.628  0.0027 -0.1209 -0.0245
32741W        W75794  33.923  19.376  21.716  0.0634  0.0403  0.0213
32742W        W75795  26.289  25.003  24.852  0.2630 -0.3905  0.2437
32743W        W75796   4.952  18.955  17.132  0.0404 -0.1352 -0.2970
32744W        W75797  25.594  33.455   0.347  0.1942 -0.1568 -0.0430
32745W        W75798   9.421   7.770  18.322 -0.0363  0.0507  0.0862
32746W        W75799   1.596  12.045   4.337 -0.1482  0.1273  0.1813
32747W        W75800  27.428  34.480  26.909 -0.3410 -0.1321  0.0883
32748W        W75801  24.529   0.962  14.950  0.1083 -0.0795  0.1597
32749W        W75802  30.743   5.729  28.402 -0.0609  0.5320  0.1137
32750W        W75803   0.225   2.999   3.316 -0.1585  0.0544  0.1572
32751W        W75804  24.801  10.535  16.973  0.2006 -0.1973  0.0065
32752W        W75805  33.559   5.117  17.689  0.0431 -0.0322 -0.2119
32753W        W75806   0.035   9.346  19.038  0.3688  0.0366  0.0159
32754W        W75807   5.257   0.692  21.380 -0.2830 -0.2424 -0.0606
32755W        W75808   3.783  10.775  21.416  0.1305  0.1004 -0.4181
32756W        W75809  32.929   8.442  22.073 -0.2109 -0.4442  0.1243
32757W        W75810  31.307  24.660  23.071  0.2753 -0.0252 -0.0605
32758W        W75811  32.456  32.407  28.666  0.0596 -0.0429 -0.0063
32759W        W75812  27.093  16.522  17.325 -0.2244 -0.2184 -0.1211
32760W        W75813   2.578  22.507  25.234 -0.0088  0.1624  0.2208
32761W        W75814  25.188  16.363  14.144  0.1392 -0.3101  0.2130
32762W        W75815  25.378   1.982  25.880  0.0618  0.1182 -0.1744
32763W        W75816   8.266  33.351  20.663  0.0841  0.3367 -0.0956
32764W        W75817  33.812  14.738  19.316 -0.0726 -0.1130  0.1264
32765W        W75818  13.550  27.425  21.399  0.2201 -0.1286 -0.1965
32766W        W75819  28.243  12.057  15.056 -0.2469 -0.1066  0.0119
32767W        W75820  29.876  25.290  16.967 -0.0057 -0.0943  0.1346
32768W        W75821   1.204  14.837  21.323 -0.0440 -0.0305 -0.3638
32769W        W75822   6.081  24.731  15.829 -0.1419  0.1105 -0.2223
32770W        W75823  28.515  23.500  27.008  0.0127 -0.0732 -0.0850
32771W        W75824  25.708   8.370   4.325  0.1928  0.0758 -0.4179
32772W        W75825  34.500   4.557   9.729 -0.2308  0.4547  0.2565
32773W        W75826  14.180   7.216  25.792  0.1374  0.3064 -0.1534
32774W        W75827   1.025  14.909   3.364 -0.1156  0.1107  0.0871
32775W        W75828  26.503  17.047  19.768  0.2079 -0.2404  0.1526
32776W        W75829   5.163  22.280  28.891 -0.2501  0.1585 -0.0031
32777W        W75830  24.581  17.588   3.307  0.0553  0.0050  0.0947
32778W        W75831  10.402   9.581   2.246 -0.1443  0.0706 -0.0789
32779W        W75832  13.499  12.032  25.251 -0.0569 -0.0162  0.0758
32780W        W75833   8.644  17.033  27.456  0.1194 -0.0810  0.3037
32781W        W75834   8.916   2.757  19.159  0.3419  0.1127 -0.3128
32782W        W75835  10.593  12.375  26.056  0.1264  0.0508  0.0018
32783W        W75836  19.729   4.712   8.544  0.0617  0.0289 -0.1831
32784W        W75837  22.208   9.521  26.489  0.0670 -0.1641 -0.0551
32785W        W75838  24.034  10.717   9.886  0.2062  0.0685  0.1997
32786W        W75839  28.011  15.173  14.802  0.1846 -0.2258 -0.0934
32787W        W75840  32.529  17.225   3.561 -0.0114  0.1084  0.0283
32788W        W75841  34.083   2.297   3.066 -0.2342  0.0109  0.1558
32789W        W75842  32.765  26.570  14.106 -0.1464  0.1178  0.1097
32790W        W75843  32.889  10.559  18.397 -0.0781  0.1641  0.0772
32791W        W75844  21.509  11.697   7.122  0.1696  0.1129 -0.4735
32792W        W75845  29.738  16.712   8.271  0.0425  0.2473  0.0406
32793W        W75846  34.682  11.127   4.371  0.3465 -0.3056  0.1932
32794W        W75847   2.921  30.116   2.613  0.0436 -0.2545 -0.1459
32795W        W75848  11.901   8.005  25.508  0.0550 -0.3062  0.1792
32796W        W75849  31.419   4.167  18.850 -0.5419 -0.0344  0.2715
32797W        W75850  28.070  26.450  20.178 -0.0936 -0.1880  0.0226
32798W        W75851  17.852  12.703  27.951  0.0080  0.2541  0.0269
32799W        W75852   2.994   6.888  14.543 -0.0181  0.0862  0.1307
32800W        W75853   0.977   2.071  24.962 -0.3051  0.3416  0.0328
32801W        W75854   1.532  12.284  23.733  0.0697 -0.2969  0.1970
32802W        W75855  28.034  31.395   5.326  0.3227 -0.0928 -0.0866
32803W        W75856  22.054   6.701  25.042 -0.0242 -0.1417  0.0352
32804W        W75857  20.656  32.846   6.894 -0.0994 -0.0802  0.1868
32805W        W75858   0.212  18.964  14.671  0.1072 -0.0098 -0.0498
32806W        W75859  22.410  10.783   6.568  0.0158  0.3340  0.3540
32807W        W75860  16.031  31.253   3.402 -0.0145  0.3690  0.0019
32808W        W75861  23.608   0.109  19.057 -0.3668 -0.2067 -0.0798
32809W        W75862  25.762   3.676  19.934 -0.4399 -0.2484  0.1998
32810W        W75863   4.710   0.144  27.636  0.0923 -0.1779 -0.1919
32811W        W75864  24.695  16.332  14.119 -0.0573  0.1240 -0.0806
32812W        W75865   1.757  32.868  16.595  0.0607 -0.4344  0.4616
32813W        W75866  11.879   0.330  24.368  0.1245  0.1875  0.2351
32814W        W75867   8.004   9.646  27.405 -0.2461 -0.0746 -0.1839
32815W        W75868  23.491   9.771  17.097  0.2141  0.1543  0.0281
32816W        W75869  29.602   3.473   8.999 -0.1767 -0.1404  0.1602
32817W        W75870  27.437   6.908  21.920 -0.3210 -0.1162 -0.5357
32818W        W75871  34.467  33.444  17.307 -0.0510  0.0921  0.3710
32819W        W75872   1.662  10.985   2.856 -0.3066 -0.1025  0.1886
32820W        W75873   3.958  12.479  16.662  0.1965 -0.1940  0.1666
32821W        W75874  28.894  32.649   7.858  0.1841 -0.1601 -0.0969
32822W        W75875  34.623  13.035  13.047  0.1656  0.0082  0.1050
32823W        W75876  26.682   5.976  15.770  0.0276 -0.2734  0.1725
32824W        W75877  32.442  16.315  26.376 -0.0055  0.0254 -0.4076
32825W        W75878   4.943  25.233   1.613  0.0254 -0.2687  0.2280
32826W        W75879  31.550  17.244  19.372  0.3220  0.1037 -0.0710
32827W        W75880  27.752   4.352  26.544  0.1189 -0.1180  0.1131
32828W        W75881  34.259  30.161  14.650 -0.0714  0.0468  0.1006
32829W        W75882  27.696  12.102  15.976 -0.3366  0.1268  0.0302
32830W        W75883   8.714  11.644  20.515  0.2481 -0.1337 -0.1976
32831W        W75884  17.482  11.411  27.450  0.1516 -0.1680  0.0710
32832W        W75885   0.490   2.657  25.030  0.1029 -0.0910  0.1542
32833W        W75886  12.563  21.887   3.042  0.0341  0.0189 -0.1293
32834W        W75887   1.316   4.197   4.667  0.0449  0.0735  0.1607
32835W        W75888   9.888  22.415  22.699  0.4210  0.0816 -0.1664
32836W        W75889  29.495  17.702  14.846  0.0209  0.1829  0.1011
32837W        W75890  12.541   0.684  25.688 -0.0724  0.1554 -0.0518
32838W        W75891  24.492   4.161  22.073  0.0425 -0.0524 -0.3166
32839W        W75892  15.804  31.927  16.072 -0.4015  0.2179 -0.2237
32840W        W75893  25.303   6.705  28.315  0.0344 -0.0154 -0.3163
32841W        W75894  30.010  13.562  28.144 -0.0977 -0.1367 -0.1719
32842W        W75895  24.030   3.829  17.445  0.0102  0.0111 -0.0634
32843W        W75896   3.002  21.587  26.095 -0.0445  0.3203  0.1111
32844W        W75897   3.875  11.503  27.600 -0.0479  0.1424  0.1701
32845W        W75898  21.989  30.737  28.941 -0.1634 -0.0728  0.0961
32846W        W75899   3.962  30.249  15.060 -0.3032 -0.0611 -0.0084
32847W        W75900  23.594  21.201  18.999 -0.0983 -0.1451  0.0189
32848W        W75901  32.725   0.019   9.879 -0.0862 -0.1571 -0.2088
32849W        W75902   0.511  16.215  27.695  0.0365  0.1543 -0.1345
32850W        W75903  30.741  18.285  15.053  0.0646  0.2499  0.0963
32851W        W75904   5.895  31.740   4.377  0.2775 -0.2406  0.2093
32852W        W75905  23.384  16.454  24.476  0.1607 -0.1531  0.0710
32853W        W75906  17.054   9.491  16.156 -0.2296  0.1469 -0.1475
32854W        W75907  29.907  17.441  19.769 -0.2757 -0.0675 -0.3480
32855W        W75908  27.415  16.364  28.886 -0.1478 -0.0253  0.4329
32856W        W75909  21.981  14.519  17.477  0.1359  0.0058 -0.2160
32857W        W75910   4.938  18.590   7.209  0.0814 -0.0818  0.0879
32858W        W75911   8.817  10.226   2.361 -0.0434  0.0102 -0.0573
32859W        W75912  30.529   9.860  28.279 -0.0518  0.0232 -0.1789
32860W        W75913  16.022   1.677  16.166 -0.1071  0.2500 -0.2065
32861W        W75914  25.149  23.648   2.978  0.1264  0.0521 -0.0239
32862W        W75915  26.077  11.440   6.762 -0.0693  0.0915  0.3272
32863W        W75916  27.843  34.309  15.600 -0.2084 -0.3162 -0.0621
32864W        W75917  19.795  21.786   3.056  0.3419 -0.1820 -0.2690
32865W        W75918  31.624  16.668  28.712  0.0407 -0.1346 -0.1590
32866W        W75919  28.185   1.896   4.795 -0.3440  0.1188  0.0795
32867W        W75920  17.151  18.838   0.750 -0.0790  0.1177  0.1150
32868W        W75921  33.623  30.288  20.920  0.2764  0.1254 -0.1472
32869W        W75922  23.827   1.230  25.944 -0.0949 -0.0714 -0.0916
32870W        W75923   4.900   5.439   5.426 -0.0600 -0.1992 -0.0037
32871W        W75924  21.190   0.154   0.568  0.0906 -0.1666  0.3929
32872W        W75925  32.930  33.107  13.586 -0.0751  0.0614 -0.1322
32873W        W75926  32.007  10.048  18.316 -0.0368 -0.0819 -0.2948
32874W        W75927  34.491  15.328   2.308 -0.2731 -0.3263 -0.2909
32875W        W75928  18.970  17.787   8.263  0.0955  0.4449 -0.2909
32876W        W75929  13.671   2.898   0.624  0.0721  0.0389  0.0807
32877W        W75930  21.208  25.668  17.742  0.0252 -0.0518 -0.3833
32878W        W75931  11.278   4.882  23.116  0.0522  0.0541  0.1272
32879W        W75932  14.566   8.828  18.436 -0.1828 -0.3463  0.2197
32880W        W75933   1.929   9.654  18.834 -0.2609 -0.1190 -0.5194
32881W        W75934  22.874   5.626  26.393 -0.2957  0.0029  0.0561
32882W        W75935   1.542  12.974  17.032  0.1593  0.2358  0.1828
32883W        W75936  24.889  24.633  22.125  0.0137  0.1364 -0.0741
32884W        W75937  32.012  22.785  20.873  0.0274  0.3745 -0.2468
32885W        W75938   7.471   4.458   3.022  0.2015 -0.3082 -0.0743
32886W        W75939  10.713   6.011  26.346 -0.2652  0.3252  0.0240
32887W        W75940  29.705  33.033  16.665  0.1634 -0.0244 -0.1304
32888W        W75941   9.003   4.174  15.239 -0.0728  0.0447 -0.2907
32889W        W75942  34.121  13.059   0.513  0.0034  0.1688  0.2418
32890W        W75943  22.654   6.684  21.989  0.1528 -0.0203 -0.0150
32891W        W75944  25.443  33.272  17.468  0.1963  0.1165 -0.0010
32892W        W75945   0.208   6.594   6.141 -0.2161 -0.0130  0.0242
32893W        W75946  33.192   1.930   0.327  0.0054  0.1424 -0.1432
32894W        W75947   0.810   4.294   0.544  0.0870  0.0400 -0.1063
32895W        W75948  24.330   5.076  21.470  0.2169  0.1725 -0.2813
32896W        W75949  14.910  13.873  14.352  0.1459  0.2234 -0.0266
32897W        W75950  10.501   7.449   7.759 -0.3207 -0.4690 -0.4601
32898W        W75951  29.172   2.290  23.263  0.0924 -0.2480  0.0412
32899W        W75952  24.474   2.996  15.077  0.2461 -0.3717  0.0266
32900W        W75953   7.924   8.266  19.687 -0.1884 -0.2090  0.0978
32901W        W75954  29.349   8.673   2.795 -0.1126 -0.2324  0.0695
32902W        W75955  25.549   4.298  28.109  0.1635 -0.2366 -0.1111
32903W        W75956  32.515  28.927  23.905  0.1157  0.0892  0.1094
32904W        W75957  23.244   2.513   4.732  0.0353  0.1316  0.1823
32905W        W75958  27.679   0.677   6.139 -0.4271 -0.0472  0.2254
32906W        W75959   0.581  15.843   0.896 -0.1240 -0.0709  0.0296
32907W        W75960  27.901   3.825  20.983  0.2380 -0.0910  0.0188
32908W        W75961  24.600   8.630  25.959 -0.2264 -0.3060 -0.0996
32909W        W75962  12.407  19.677   2.812 -0.1535  0.0290  0.0840
32910W        W75963   7.614   5.515   0.495 -0.1002 -0.0561  0.0812
32911W        W75964  27.788  22.472  14.478  0.3928 -0.3536  0.1534
32912W        W75965  26.861   6.927  20.128  0.0642 -0.0127  0.2599
32913W        W75966  26.424  22.702  27.765 -0.1699  0.2829  0.1655
32914W        W75967  23.754  25.774  20.837 -0.1433  0.1478  0.2083
32915W        W75968  22.037   5.260   7.793 -0.1337  0.0829 -0.0715
32916W        W75969   3.835  16.807   2.456 -0.0483  0.0507  0.1066
32917W        W75970  32.107  31.046  16.431  0.0835  0.0950 -0.0148
32918W        W75971  27.396  10.300  10.174  0.0627 -0.0118  0.0684
32919W        W75972   1.076   4.101   6.004 -0.2640  0.0384  0.0137
32920W        W75973  15.586  25.470   9.446  0.1587 -0.0318  0.0455
32921W        W75974   7.331   4.417  26.775  0.0274  0.0004  0.1694
32922W        W75975  20.971   8.500  24.347 -0.0072 -0.1080  0.0272
32923W        W75976  22.991  10.623   4.231 -0.1766  0.1173  0.1840
32924W        W75977   1.786  21.843   3.010  0.2258  0.0049  0.3345
32925W        W75978  28.922  17.108  23.231 -0.0154 -0.1339  0.1868
32926W        W75979  34.284  27.695  20.861  0.2819 -0.0561  0.1835
32927W        W75980  21.944  30.346   1.333  0.1728 -0.1172  0.0797
32928W        W75981  23.091   4.200  22.646  0.3969 -0.0017  0.0270
32929W        W75982  29.027  18.143  27.222 -0.0582  0.3418  0.0001
32930W        W75983  25.177  29.572  22.229 -0.4595 -0.0755  0.1205
32931W        W75984  31.498   9.296   3.763  0.0168 -0.1580  0.0043
32932W        W75985  34.248   0.166  18.455 -0.0964  0.0543  0.3481
32933W        W75986  18.229  14.303  23.411 -0.3241 -0.0188 -0.0821
32934W        W75987   4.421  31.586  25.696 -0.1523  0.0189 -0.0461
32935W        W75988  11.475   9.036  23.234 -0.0916 -0.0408  0.2630
32936W        W75989  33.154  32.958   5.105 -0.2335 -0.1559 -0.1488
32937W        W75990   8.710   7.698  17.478 -0.3446 -0.1143 -0.2499
32938W        W75991  28.095  10.241   2.499  0.1579  0.1408 -0.2055
32939W        W75992   1.617  22.569  18.583  0.1085 -0.2267  0.2475
32940W        W75993  14.969   8.176  16.862  0.0924 -0.0220  0.2134
32941W        W75994  25.482   2.008   9.063  0.2860 -0.2001  0.2195
32942W        W75995  34.314   7.499  25.172  0.2376  0.1168  0.0220
32943W        W75996   4.777  11.733   1.846  0.1762 -0.0745 -0.1060
32944W        W75997  27.754  20.253  14.747  0.1542 -0.1361 -0.4191
32945W        W75998  10.578  20.998  16.983  0.2244 -0.1722  0.3555
32946W        W75999  25.530  26.786  18.365 -0.1189 -0.0032  0.2547
32947W        W76000  33.507  12.867  27.897  0.0925  0.2287  0.0141
32948W        W76001  16.399  34.522   4.426  0.2741 -0.3009 -0.0638
32949W        W76002  32.526  16.593  19.665  0.3820 -0.1551 -0.0128
32950W        W76003  27.077   4.347  23.952 -0.2184 -0.1977 -0.0980
32951W        W76004  20.513   2.852  16.662 -0.0714 -0.2233  0.2565
32952W        W76005  22.299  32.521   0.329 -0.0532 -0.0367 -0.0805
32953W        W76006  10.484   2.595  19.043  0.0579 -0.0584 -0.2594
32954W        W76007  28.891  30.914   8.984  0.1833 -0.2693 -0.2566
32955W        W76008   4.554   8.709   3.814 -0.0661 -0.1842  0.3037
32956W        W76009  15.670  31.284   0.547  0.3210  0.0070  0.1472
32957W        W76010   5.712  34.423  28.468  0.3824  0.0115  0.2754
32958W        W76011  23.602  11.807   9.212 -0.0910 -0.2995 -0.1514
32959W        W76012  20.219   9.429  20.209  0.0115 -0.0557  0.2579
32960W        W76013  20.810  30.375   0.276  0.3804 -0.1446  0.0642
32961W        W76014   1.361  16.592  28.445 -0.0413 -0.0127  0.0052
32962W        W76015  25.667  28.855   2.361  0.0277 -0.0579 -0.1957
32963W        W76016  28.222  15.811  16.450 -0.1541  0.1555 -0.2760
32964W        W76017  33.513   6.548  21.877 -0.0531  0.2010 -0.0411
32965W        W76018  32.359   4.901  20.578 -0.1922  0.2219 -0.0345
32966W        W76019   4.087   1.245  23.556  0.0370  0.2287  0.2373
32967W        W76020   4.987  11.378  24.183 -0.0776 -0.0950 -0.1155
32968W        W76021  20.407  28.725  15.106  0.1721 -0.1007 -0.0583
32969W        W76022  33.063  12.059  25.369  0.0507  0.1357 -0.0318
32970W        W76023  14.321  33.975  16.956 -0.0211 -0.3866 -0.1030
32971W        W76024  12.423  13.368  28.157  0.3180 -0.0476 -0.2117
32972W        W76025   1.027   1.357  23.256 -0.0385 -0.2377 -0.1380
32973W        W76026  16.308  30.200  23.642  0.0630  0.1014 -0.0705
32974W        W76027   5.459   1.317  22.047  0.0854 -0.2934 -0.1316
32975W        W76028   5.853  16.531  24.760 -0.0253  0.0707  0.2459
32976W        W76029  32.637   5.026   0.444  0.1394  0.0067 -0.1091
32977W        W76030  23.916  17.760   0.642  0.2274  0.0273 -0.3976
32978W        W76031   2.915   9.214   7.864 -0.0967  0.1151 -0.0839
32979W        W76032  23.232   0.494  24.492  0.3003 -0.0248 -0.2121
32980W        W76033  31.995  22.406   6.372 -0.2578  0.2046  0.1170
32981W        W76034  20.822  14.980   9.128 -0.2993 -0.2414 -0.0078
32982W        W76035   1.930   4.747  25.106  0.2992 -0.0202 -0.0435
32983W        W76036   3.851  28.142  21.812 -0.0441  0.1407 -0.1095
32984W        W76037   9.492  12.824  15.824 -0.0857  0.1920  0.2134
32985W        W76038   3.411  15.515  21.374  0.1891  0.2570 -0.0322
32986W        W76039  14.573  33.770   3.202 -0.0065  0.0888 -0.0372
32987W        W76040  28.820   3.231   0.485 -0.1943  0.0688  0.0628
32988W        W76041   3.791   2.566  25.408  0.0412 -0.0070 -0.0789
32989W        W76042  24.693   5.078  17.168  0.0062  0.0433 -0.1019
32990W        W76043  16.942   4.070  20.425 -0.1558  0.5008 -0.2252
32991W        W76044  28.852   2.936  13.906 -0.0995 -0.1593 -0.0323
32992W        W76045   3.441  17.802  22.123  0.1740 -0.2008  0.0970
32993W        W76046  24.277   9.316   1.565  0.4251 -0.1616  0.3611
32994W        W76047  33.037   6.722  21.092  0.1786 -0.1245 -0.1058
32995W        W76048  24.910   1.358   5.083  0.0847  0.3341 -0.1623
32996W        W76049  25.132  22.098  17.984 -0.1763  0.2459 -0.2391
32997W        W76050   8.250  18.917  20.982  0.0121 -0.1098 -0.1528
32998W        W76051   2.292  16.452  18.880 -0.3229  0.2792  0.1695
32999W        W76052  22.946  14.709  20.503 -0.0485  0.1903 -0.3079
33000W        W76053  29.296   8.314  22.930 -0.0098 -0.4551  0.1487
33001W        W76054  30.932  14.939  17.587 -0.1056  0.1174 -0.0347
33002W        W76055  27.501  31.565  27.156 -0.0947  0.1519 -0.2497
33003W        W76056   9.641  27.721  23.463  0.1658 -0.1110  0.1798
33004W        W76057   0.449   9.956  17.711  0.1520 -0.0930 -0.1621
33005W        W76058  24.175  16.404  20.482  0.2694  0.0503 -0.0416
33006W        W76059  22.254  31.912  25.905 -0.1354 -0.1615  0.3257
33007W        W76060  13.866  13.353   5.302 -0.0406  0.1358  0.0400
33008W        W76061  19.762  10.590  16.008  0.2793  0.0472  0.1053
33009W        W76062  16.345  11.774  18.714  0.1420  0.1742 -0.1832
33010W        W76063  29.263   6.448   9.165 -0.1777 -0.1443  0.1300
33011W        W76064  26.472   7.277   2.395 -0.1800 -0.0621 -0.0768
33012W        W76065   1.516  12.493   7.825 -0.1493  0.1427  0.0689
33013W        W76066  20.976  34.223  14.620 -0.0501 -0.3760  0.1768
33014W        W76067  12.719   1.714  26.216  0.4681  0.0096 -0.5716
33015W        W76068  22.582  12.836  24.671 -0.0662  0.2279  0.0812
33016W        W76069  28.741   2.139  21.426  0.0611 -0.0478 -0.2316
33017W        W76070   1.918  27.315   2.270 -0.4062  0.1416 -0.0630
33018W        W76071  28.932  18.950   3.549  0.1806 -0.3353 -0.0103
33019W        W76072  31.254  13.104   7.320  0.0983  0.2265  0.1059
33020W        W76073   4.969   7.678  26.140 -0.0472  0.3312 -0.0413
33021W        W76074   6.768  16.755   2.578 -0.1515 -0.2371  0.2020
33022W        W76075  18.171  34.517  21.211  0.0089 -0.2937 -0.0997
33023W        W76076  19.828   7.995  15.291 -0.0927 -0.0157 -0.1696
33024W        W76077  21.347  14.363  23.062  0.2487  0.2250 -0.1587
33025W        W76078  31.049  18.695  17.581 -0.1478 -0.3681 -0.3561
33026W        W76079   3.215   6.024  14.133 -0.1312  0.2609  0.0841
33027W        W76080  30.451  30.811  17.286 -0.1978  0.2220 -0.0977
33028W        W76081  28.445   1.744   6.335 -0.0309  0.1060  0.1824
33029W        W76082  33.726   9.256   3.804 -0.1509 -0.2540  0.2162
33030W        W76083   7.655  26.578   1.475  0.0994  0.3396 -0.3684
33031W        W76084   0.040  23.817  16.326  0.0962  0.1608  0.1237
33032W        W76085  33.269  34.472  21.887 -0.2290 -0.3966 -0.3448
33033W        W76086  11.183  15.120  21.276  0.4166 -0.2882  0.2446
33034W        W76087  12.056  21.276  27.403  0.2262 -0.0307  0.1142
33035W        W76088  26.636  33.400  18.198  0.1231  0.1598 -0.4523
33036W        W76089  34.015  10.105  18.906  0.0859 -0.2670 -0.0587
33037W        W76090  19.692  11.421   6.020  0.3324 -0.0722 -0.0808
33038W        W76091  13.693  15.181  25.387  0.2955  0.2062 -0.4261
33039W        W76092  25.155  10.045  27.568  0.0678 -0.0876 -0.0615
33040W        W76093  26.671  25.686   4.362 -0.3832  0.1981 -0.1840
33041W        W76094  10.283  19.908  24.683 -0.2824 -0.0472 -0.0912
33042W        W76095   5.535   1.272  25.810 -0.1574  0.1593  0.0673
33043W        W76096  27.333  26.193  21.434  0.0455  0.3324 -0.1286
33044W        W76097  32.916  30.562  25.253  0.0431  0.3430  0.1074
33045W        W76098  15.202   3.952   5.556  0.0735 -0.2232  0.0570
33046W        W76099  10.187   8.985   5.916 -0.0411  0.1362 -0.0077
33047W        W76100  21.310  13.189   4.262  0.2656  0.0331  0.0833
33048W        W76101  25.036   2.711   4.151 -0.1102  0.2171 -0.1932
33049W        W76102  22.914  16.654  24.268  0.2116  0.1108 -0.2901
33050W        W76103  26.131   8.500  15.775  0.2716  0.3577 -0.0928
33051W        W76104  34.274  13.701  21.706  0.0508  0.1358  0.0174
33052W        W76105  30.098   0.340  25.935 -0.1500 -0.0880  0.0708
33053W        W76106  29.879  12.823   7.166  0.1326  0.1338 -0.3946
33054W        W76107   5.696  18.932  15.202  0.1302 -0.0166  0.3443
33055W        W76108  10.558   0.582  16.779 -0.0591  0.0366 -0.0357
33056W        W76109  19.860  30.620   7.952 -0.0920  0.0545 -0.3622
33057W        W76110  30.636   6.058  15.330 -0.0444  0.0780 -0.1126
33058W        W76111  20.015  28.048  27.832 -0.1613 -0.5033  0.0435
33059W        W76112  33.078  31.810   1.616 -0.1699 -0.3195  0.0443
33060W        W76113  16.574  33.078  15.806  0.1790 -0.3635 -0.1818
33061W        W76114  25.833  22.856   9.783  0.0973  0.2152  0.1187
33062W        W76115  32.600  33.081   4.956  0.0808  0.2665  0.0753
33063W        W76116   0.385   3.921   6.730 -0.0799  0.0478 -0.3677
33064W        W76117  27.104  13.885  27.322  0.1516  0.1760  0.0711
33065W        W76118   3.025  22.903   3.734 -0.3157 -0.0405  0.0464
33066W        W76119  27.306  16.032  26.007 -0.1049  0.3957 -0.2260
33067W        W76120  33.201   4.661   4.259 -0.5149 -0.0602 -0.0399
33068W        W76121  24.546   4.741  19.326 -0.0082  0.2095 -0.1129
33069W        W76122  28.728  16.081  25.288  0.0714  0.1323  0.1220
33070W        W76123  22.466   4.364  28.900  0.3257  0.4862  0.0317
33071W        W76124   5.714  19.203  18.105  0.2451  0.1262  0.1366
33072W        W76125   1.726   2.335  29.010 -0.3231  0.1569 -0.0314
33073W        W76126  33.596   0.859  20.448 -0.0678 -0.2929  0.2952
33074W        W76127  13.943   8.044   3.152  0.0882  0.1000  0.1791
33075W        W76128  31.781   2.575  22.964  0.0157 -0.0661  0.4053
33076W        W76129  26.646  19.991  18.997 -0.0612 -0.0476 -0.2049
33077W        W76130  20.148  25.856   7.375 -0.0681  0.1304 -0.0854
33078W        W76131  34.481  19.537  20.496  0.0758  0.0336 -0.0235
33079W        W76132  10.827   5.507   4.837 -0.1422  0.2828 -0.1315
33080W        W76133   4.823   9.898   5.460  0.0392  0.0064 -0.3172
33081W        W76134  31.447   3.719  20.345  0.3205 -0.0641  0.1024
33082W        W76135  20.661   3.978  28.216  0.0887  0.0675  0.1139
33083W        W76136   3.469  33.234  26.627  0.1102  0.0155  0.4138
33084W        W76137  21.531  26.042   7.040  0.0091 -0.2056  0.3168
33085W        W76138   0.693  25.285   4.917  0.2106  0.2635 -0.0219
33086W        W76139  13.394  17.317  27.894  0.1370  0.0135 -0.1457
33087W        W76140   7.988  33.734   8.692  0.0109 -0.1401  0.0498
33088W        W76141  31.954   3.340   7.652 -0.1376 -0.0216  0.1173
33089W        W76142  30.485   0.449  28.794  0.1221 -0.0167 -0.1904
33090W        W76143   9.094  24.061  24.755 -0.1420 -0.0214  0.0178
33091W        W76144  23.952  14.155  28.559 -0.2301 -0.0938 -0.1712
33092W        W76145  20.742  33.281  23.764  0.1417  0.0199  0.0710
33093W        W76146   1.453  30.262   7.139  0.0061 -0.0065 -0.1700
33094W        W76147  25.147  18.412   7.022  0.0287  0.3319  0.2066
33095W        W76148  18.263   0.864  16.944 -0.1784 -0.0997 -0.0599
33096W        W76149  26.070  28.481  10.085 -0.1979 -0.1465  0.0695
33097W        W76150  24.016  32.543  25.017 -0.2030  0.2506 -0.1106
33098W        W76151  23.452   7.861   3.151  0.4661  0.0615  0.1951
33099W        W76152  32.608  28.895  16.281  0.1337  0.2631  0.0110
33100W        W76153  30.477  30.951  16.832  0.1214 -0.1769  0.1481
33101W        W76154  18.311  28.981  14.841  0.0444  0.4778 -0.0106
33102W        W76155  12.835  14.451  26.133 -0.2990  0.2379 -0.0858
33103W        W76156  28.188   8.638   8.093 -0.3164 -0.0460 -0.0497
33104W        W76157  31.188  28.449   1.074  0.0161 -0.0147  0.2103
33105W        W76158  22.859  12.096   3.597  0.0746  0.2466 -0.2073
33106W        W76159  22.563   2.455   2.752  0.0343 -0.3230 -0.3356
33107W        W76160  16.033  21.915   5.439  0.2713  0.2432 -0.0824
33108W        W76161  19.954   1.593  29.126 -0.0077 -0.0997  0.1893
33109W        W76162  29.302  34.243  27.877  0.3593  0.0344  0.0626
33110W        W76163  27.378   4.574   1.253 -0.2120 -0.2026  0.0406
33111W        W76164   1.511   1.315   3.431  0.0553 -0.1708  0.5056
33112W        W76165  22.283   2.219  19.015  0.0994 -0.0836 -0.0524
33113W        W76166  14.290   4.475  26.589 -0.0263 -0.0888 -0.1129
33114W        W76167  25.585  21.257   3.856  0.2556  0.0937 -0.1850
33115W        W76168  25.664   5.782   2.935  0.0276  0.0210  0.3060
33116W        W76169  31.798  12.133  25.517  0.2668 -0.2110 -0.3273
33117W        W76170  24.133   2.828   3.242 -0.1664  0.0503 -0.4486
33118W        W76171  29.760  18.368  16.043  0.1226  0.0627 -0.1393
33119W        W76172  29.530  15.123  28.054  0.4566  0.2326 -0.0294
33120W        W76173  20.856  23.668  20.949  0.1237 -0.0760  0.0459
33121W        W76174  20.707  21.695   4.822  0.0263 -0.0538  0.0250
33122W        W76175  31.669   7.892   0.435  0.1545  0.1243  0.1138
33123W        W76176  32.198   8.153   5.394  0.0309 -0.2456 -0.0360
33124W        W76177  25.656   9.289  23.727  0.0553 -0.1051 -0.3085
33125W        W76178  23.134  19.352   9.798 -0.2822  0.0626 -0.1281
33126W        W76179  30.728   7.107   6.978 -0.0740 -0.1734 -0.2723
33127W        W76180  28.606   5.935  18.866  0.1602  0.0285  0.2457
33128W        W76181   3.068   9.602  15.351 -0.1493  0.2037  0.0381
33129W        W76182  24.893   6.968   7.450  0.0860  0.3759 -0.0674
33130W        W76183   8.109   6.890   1.362 -0.0109 -0.0003 -0.3969
33131W        W76184  17.391   5.278  19.319 -0.0803 -0.0117  0.0663
33132W        W76185  20.961   9.761  27.932  0.0226 -0.2866  0.2341
33133W        W76186  27.633   0.244   7.570 -0.0924  0.0829 -0.1802
33134W        W76187  21.271  14.880   2.453  0.1382 -0.0034 -0.0259
33135W        W76188  32.474  33.089   3.903  0.0673  0.0800 -0.1845
33136W        W76189  28.089  33.835   2.303  0.2717  0.3314  0.3185
33137W        W76190  23.066  26.420  15.738  0.0739  0.2571  0.3496
33138W        W76191  23.931  33.920  19.448 -0.1465  0.1474 -0.0535
33139W        W76192  12.192  14.970   7.885  0.2509 -0.1722  0.0708
33140W        W76193  15.800  33.226  16.032 -0.3985 -0.2051  0.1213
33141W        W76194   8.425   5.278  23.065 -0.0867  0.0019  0.1872
33142W        W76195   4.020  32.838  27.746 -0.1184  0.0603 -0.2580
33143W        W76196   4.021  28.115  16.524  0.0329  0.1408  0.0038
33144W        W76197  11.280  33.719   5.475 -0.2417 -0.0229 -0.1364
33145W        W76198  26.578   8.385  25.473 -0.2578  0.0051  0.0618
33146W        W76199   6.993  13.543  23.292 -0.0066 -0.4183 -0.3763
33147W        W76200   4.337  29.575   1.543 -0.1635 -0.3584  0.2388
33148W        W76201  26.328   7.962  25.316 -0.1089 -0.2081 -0.1436
33149W        W76202  16.882  30.330   4.049 -0.0632 -0.0231 -0.0288
33150W        W76203  24.606   0.925   5.177  0.1791 -0.0158 -0.0295
33151W        W76204  30.528  19.982  24.557 -0.1026  0.1132 -0.1181
33152W        W76205  28.397  26.777  15.702 -0.0101 -0.0495  0.2272
33153W        W76206  11.073   4.783  27.740 -0.1246  0.0241  0.0818
33154W        W76207  21.913   1.326   7.467  0.1935  0.1563  0.0221
33155W        W76208  28.954   9.393   5.832  0.0260 -0.3217 -0.0789
33156W        W76209   9.027  10.202   7.677 -0.1716 -0.0583 -0.0421
33157W        W76210  15.124   1.835  28.414  0.0436 -0.0329  0.2205
33158W        W76211   7.419   7.022  15.479  0.3422  0.1448  0.1852
33159W        W76212   7.968  12.374  24.827 -0.1057  0.1213  0.0481
33160W        W76213  16.416   7.602   2.864  0.0541  0.0615 -0.1862
33161W        W76214  27.674   6.560  17.247  0.3046  0.0998 -0.0746
33162W        W76215   5.547   6.698   5.225  0.1068  0.0569  0.1991
33163W        W76216  18.876  30.807  21.894  0.1455  0.1091  0.1901
33164W        W76217  10.412  24.222  25.516 -0.2138  0.1295  0.3839
33165W        W76218   4.649   1.561   1.214 -0.1020 -0.3093 -0.1369
33166W        W76219  31.480  24.473   3.844  0.1950  0.1951 -0.0377
33167W        W76220  31.423   5.411  17.617 -0.2584 -0.0304 -0.0373
33168W        W76221  15.173  24.035   2.052  0.2609  0.0919  0.0047
33169W        W76222  27.808   6.018  22.883  0.0460 -0.1417 -0.0954
33170W        W76223   2.964   1.097   7.744 -0.0910  0.0243 -0.0836
33171W        W76224  31.034  14.487  20.661  0.0483 -0.0789  0.0279
33172W        W76225   1.969   9.628   8.879 -0.4513  0.1927  0.3000
33173W        W76226  14.624   2.973  27.208  0.3178 -0.0433 -0.0151
33174W        W76227  31.923  32.032  27.640 -0.2282  0.0930 -0.3013
33175W        W76228  31.336   2.351  27.258  0.1457 -0.1077 -0.0119
33176W        W76229  27.032   7.740   7.335 -0.1353 -0.0753  0.1817
33177W        W76230  24.280  23.815   5.160 -0.0184  0.4051 -0.0935
33178W        W76231  33.724  31.759  17.860 -0.1770 -0.1340  0.1878
33179W        W76232  31.654  33.718  26.385 -0.0841 -0.2520  0.0793
33180W        W76233   4.792  13.681  28.832  0.1961  0.0656  0.1457
33181W        W76234  21.734  22.273  26.939  0.0816 -0.0574 -0.1218
33182W        W76235  16.385  18.010   4.585  0.4664 -0.0108  0.4429
33183W        W76236  27.741  12.287  28.514 -0.0087  0.0323 -0.1296
33184W        W76237  13.105   7.628  22.688 -0.1290 -0.1055  0.1088
33185W        W76238  25.951   1.034   3.819 -0.1516 -0.0505 -0.0167
33186W        W76239  33.603   5.051  26.028 -0.1374 -0.0456 -0.0459
33187W        W76240  31.058  24.166  25.777 -0.2709 -0.1417 -0.1781
33188W        W76241  32.114   6.522   9.821  0.1915 -0.0844  0.0476
33189W        W76242  30.101   8.737  17.924 -0.0796  0.0105  0.0935
33190W        W76243  23.426   4.226  28.323  0.0815  0.2030  0.1512
33191W        W76244   5.119  19.568  13.904  0.2561  0.0159 -0.2150
33192W        W76245   6.429  22.400   4.475 -0.1642 -0.4721  0.1214
33193W        W76246   4.488   3.960   3.444  0.0472  0.3169  0.3317
33194W        W76247  27.893  33.458  13.879 -0.3156 -0.1603 -0.2971
33195W        W76248  22.312  28.531  15.743 -0.0222  0.1299 -0.1842
33196W        W76249  10.811  31.967  20.901  0.2709 -0.1845  0.0833
33197W        W76250  15.421   0.165  22.495  0.0281 -0.2279  0.0400
33198W        W76251  18.438  15.057  27.697 -0.0290 -0.0975 -0.1169
33199W        W76252   2.607  19.739  28.389 -0.2452 -0.0272 -0.0309
33200W        W76253  16.850  30.651   6.016  0.1890  0.1416 -0.0202
33201W        W76254   2.657  27.424   6.268  0.2601  0.4928 -0.2426
33202W        W76255  18.014   0.123   1.796  0.0672  0.0060 -0.0406
33203W        W76256  32.279   3.253   8.667 -0.2584 -0.1208  0.0712
33204W        W76257   0.791   9.462  22.606 -0.2965 -0.0539  0.0106
33205W        W76258  10.984  18.390  23.413  0.3959 -0.0518  0.2862
33206W        W76259  28.480   3.647  15.207 -0.0584 -0.0413 -0.1209
33207W        W76260  32.738  26.736  25.822  0.3116 -0.1634  0.2187
33208W        W76261  26.153   1.492  26.971  0.0468  0.0060 -0.1723
33209W        W76262  26.739  17.750  26.509 -0.1579 -0.0090 -0.3147
33210W        W76263  11.517  29.629   2.147  0.0603  0.1661  0.0024
33211W        W76264  18.476   0.978   2.024  0.1446 -0.2902 -0.1995
33212W        W76265   0.900  21.659   3.855  0.2679 -0.1809  0.2129
33213W        W76266  17.481  17.269   9.187  0.0776  0.0587  0.0484
33214W        W76267  21.723  13.157  21.268 -0.0108  0.2746  0.2376
33215W        W76268  32.691   7.741  15.409 -0.0669  0.1004  0.2256
33216W        W76269  25.792  18.849   5.292 -0.2403 -0.0788 -0.0671
33217W        W76270  29.375  24.752  19.106  0.0507 -0.0416  0.2585
33218W        W76271  12.765   9.348   5.504 -0.0341 -0.2453  0.1300
33219W        W76272  29.104   4.679  27.909  0.1313 -0.0013  0.1309
33220W        W76273   0.826  33.266   0.602 -0.0570 -0.1885 -0.1569
33221W        W76274  32.388  16.633  16.059  0.2015  0.2085 -0.0050
33222W        W76275  29.776  26.791   0.074 -0.2228 -0.2089 -0.0407
33223W        W76276   0.714  17.529   6.942  0.2994 -0.1011 -0.1208
33224W        W76277  33.080   6.782  27.068  0.2081  0.1806 -0.0621
33225W        W76278  31.606   7.629  24.576  0.2158 -0.1353  0.2094
33226W        W76279   7.765  23.471  27.364 -0.0623 -0.2753  0.0974
33227W        W76280  31.730  29.255   1.016 -0.3382  0.1709 -0.2667
33228W        W76281   4.516   4.121  23.660  0.1956 -0.0261 -0.0436
33229W        W76282  21.672  16.998   0.358  0.0159  0.1566  0.0859
33230W        W76283  17.551   4.004   9.574 -0.1349 -0.1430 -0.0097
33231W        W76284   4.558   5.335  23.090 -0.1229  0.2266  0.1760
33232W        W76285  10.032  18.906  15.384  0.2077 -0.2590 -0.4988
33233W        W76286  34.634   0.636  27.192 -0.3717  0.2758 -0.0002
33234W        W76287  13.479  31.662  28.356  0.0152 -0.0579 -0.0054
33235W        W76288   0.905   7.691  24.921  0.3299 -0.1394  0.0070
33236W        W76289   6.439  27.464  26.078  0.0214  0.3875  0.0608
33237W        W76290  32.056   2.767  10.297 -0.5452  0.0404  0.1315
33238W        W76291  21.512  34.221   4.521 -0.1424 -0.0512 -0.0694
33239W        W76292  31.583  10.877  27.181 -0.0332 -0.1130 -0.0588
33240W        W76293  29.524  16.754  21.056 -0.0419  0.0167  0.0932
33241W        W76294  11.591  30.787   5.019  0.0181 -0.0441 -0.2990
33242W        W76295  28.636   4.583  26.651  0.1940 -0.1109  0.1257
33243W        W76296   6.438  17.990   8.548  0.1061 -0.1218 -0.0820
33244W        W76297  17.900   1.953   7.383 -0.1635  0.0074 -0.1377
33245W        W76298  32.148   1.215  15.531  0.2907  0.2477  0.2716
33246W        W76299  30.137  31.164   4.397 -0.3292  0.0845 -0.1358
33247W        W76300  32.593  19.424  24.891  0.0101 -0.0382 -0.0270
33248W        W76301  27.380  15.390   8.738 -0.0783 -0.1418  0.1043
33249W        W76302   8.406   9.949  20.663 -0.2664  0.1199  0.1651
33250W        W76303  13.309  34.104   9.265 -0.2467  0.1363 -0.1641
33251W        W76304  15.520   0.147   0.921 -0.1261 -0.0929  0.0890
33252W        W76305   3.596   7.658  18.513 -0.1007  0.0983  0.0617
33253W        W76306  28.892  10.122  17.015  0.3067 -0.2757 -0.1531
33254W        W76307   6.551   3.601  16.757  0.1209  0.2991  0.0870
33255W        W76308   1.431   8.318   6.302  0.3253  0.1808 -0.1409
33256W        W76309   4.201   2.260  28.741  0.1131  0.1678 -0.1017
33257W        W76310  21.766  25.922  27.951 -0.0678  0.3222 -0.0187
33258W        W76311  29.793  34.544  25.395 -0.1462 -0.4440 -0.1191
33259W        W76312  29.973   4.798  27.025  0.2093 -0.1941  0.1460
33260W        W76313  25.738  27.344  17.637  0.2039 -0.1679  0.1673
33261W        W76314  27.278  28.882  15.648 -0.1295 -0.0489  0.4039
33262W        W76315  23.175  14.402   9.715 -0.0029  0.0715  0.1756
33263W        W76316  30.341  27.942  20.816  0.3551 -0.1807 -0.0309
33264W        W76317  33.909  34.209  28.484 -0.0116 -0.2757 -0.1392
33265W        W76318   5.716   5.083  14.434  0.2279  0.0168  0.1063
33266W        W76319   8.630   4.134  24.821  0.5200  0.0464  0.0127
33267W        W76320  34.038  28.079  19.941 -0.1889  0.3080 -0.0556
33268W        W76321   3.306  34.538  23.759  0.2369 -0.0691  0.3208
33269W        W76322  13.526  28.776   2.894  0.0997  0.0561 -0.2719
33270W        W76323  30.426   4.758  27.249  0.2018  0.0626 -0.1389
33271W        W76324  29.591   1.045  21.804  0.0633  0.0758  0.0246
33272W        W76325  30.563   4.268  21.086  0.0597 -0.0635 -0.2028
33273W        W76326  19.832  33.142   7.396  0.4096 -0.1765  0.1428
33274W        W76327  12.225  31.904  19.793  0.1773 -0.4129  0.3694
33275W        W76328  10.143  34.200   7.212  0.3378 -0.0791  0.1016
33276W        W76329   8.261  13.260   5.437 -0.0932  0.0994 -0.2386
33277W        W76330  31.952   7.097  23.698 -0.2063 -0.1797 -0.2220
33278W        W76331   4.459  14.309  22.177 -0.1150  0.2547 -0.1578
33279W        W76332  13.873   2.027   2.467 -0.3118  0.0111  0.2123
33280W        W76333  27.294  32.149   6.972  0.0484 -0.1225 -0.3770
33281W        W76334  19.003  32.813   0.819  0.1244 -0.0903  0.1598
33282W        W76335  29.574  20.928  13.590 -0.2068 -0.0631  0.0467
33283W        W76336  25.908  30.024   8.943  0.3385 -0.1064  0.3002
33284W        W76337  26.565  15.477  19.671  0.0149  0.1315 -0.0043
33285W        W76338  29.370  29.866  25.368  0.0289  0.0850  0.2944
33286W        W76339   3.377  11.117  14.747 -0.2876  0.2210  0.0549
33287W        W76340   5.952  32.126  28.387  0.0860 -0.0509 -0.1692
33288W        W76341  25.008   0.110  16.688  0.2324 -0.1614 -0.1924
33289W        W76342  23.326   7.408   7.329 -0.0445 -0.1963  0.0826
33290W        W76343  20.357  32.087  25.319 -0.0997  0.0818  0.1245
33291W        W76344  22.520  11.001  17.838 -0.0012  0.1825  0.2617
33292W        W76345  33.344   1.137  28.506 -0.0153  0.2740  0.0140
33293W        W76346   6.907  13.071   0.589  0.0195  0.1176  0.1685
33294W        W76347  13.160   0.106  28.359 -0.2195  0.1536  0.0347
33295W        W76348  33.082  12.996   2.025 -0.2084  0.0295 -0.1260
33296W        W76349   1.351  34.551  28.169  0.0155 -0.0519  0.0962
33297W        W76350  16.711   5.490  14.182  0.0110  0.1382 -0.1483
33298W        W76351  31.718  11.508  28.312 -0.0895 -0.1006  0.1715
33299W        W76352   5.399  13.105  23.057  0.2031 -0.2179  0.2237
33300W        W76353   0.717  33.961   8.969  0.1437  0.4146  0.1868
33301W        W76354   6.796  15.963   3.992 -0.0824 -0.0536  0.1668
33302W        W76355  16.709   3.243  24.892 -0.1104 -0.4489 -0.1648
33303W        W76356  30.351  19.952  22.955  0.1147 -0.2708  0.0015
33304W        W76357  12.709   3.509  20.366  0.0090 -0.1576 -0.1245
33305W        W76358  20.354  16.730  25.043 -0.0863  0.1707 -0.1786
33306W        W76359  32.777  29.505   5.021 -0.1610  0.2319  0.1086
33307W        W76360  28.269   4.244   8.900  0.0156 -0.1139  0.3062
33308W        W76361  26.407  16.955  28.096 -0.2377  0.1345 -0.2785
33309W        W76362   5.210   7.704  21.544  0.4084 -0.2110 -0.2142
33310W        W76363  33.713   2.553  23.067 -0.1699 -0.1003  0.2335
33311W        W76364  34.152   4.651  24.870 -0.2045 -0.0752 -0.1009
33312W        W76365  26.242   7.818  26.533 -0.0855  0.1443 -0.0625
33313W        W76366  21.477   4.040  20.008 -0.0151  0.0097  0.0510
33314W        W76367   4.865  31.159  19.184  0.1944 -0.1045 -0.1358
33315W        W76368  34.165  26.800  21.016 -0.0148 -0.0271  0.1107
33316W        W76369   5.681  11.752   4.668  0.2153  0.0196 -0.2961
33317W        W76370   1.967  31.379   2.569  0.0969  0.0809 -0.1458
33318W        W76371  21.139  31.023  10.053 -0.0777  0.2226  0.0803
33319W        W76372  27.845   2.952  15.337 -0.2314  0.2656 -0.0339
33320W        W76373  33.159  10.692  10.010 -0.2748 -0.1694  0.0366
33321W        W76374  22.017  11.571   4.394 -0.0078  0.4021  0.2530
33322W        W76375  18.390   6.761   1.338 -0.2726 -0.1571 -0.2441
33323W        W76376  32.877   7.902   4.684 -0.1305  0.4414 -0.1016
33324W        W76377  22.656   2.595   8.461  0.2351 -0.3161 -0.0244
33325W        W76378   5.805   0.538   7.919 -0.0087  0.1464 -0.2280
33326W        W76379   2.308  34.541  20.889  0.0685 -0.1487  0.1836
33327W        W76380  32.793  31.918  15.583  0.0642  0.1672 -0.0642
33328W        W76381  29.023   9.132   2.120  0.0816 -0.1411 -0.0761
33329W        W76382   7.625   4.777   6.381 -0.1021  0.0518  0.2787
33330W        W76383  22.487  13.791  26.949 -0.0068  0.0345  0.1974
33331W        W76384  10.375  20.359  25.168 -0.0179  0.0856 -0.1783
33332W        W76385  25.950   9.471   8.574  0.1747 -0.1231 -0.0343
33333W        W76386   4.114  24.532   7.261  0.1278 -0.1246 -0.1006
33334W        W76387  10.136   7.647  22.366 -0.2265  0.1442  0.0815
33335W        W76388  20.009  27.917  24.831 -0.1827 -0.1745 -0.1343
33336W        W76389   8.575  24.509  21.925 -0.0689  0.2307  0.0819
33337W        W76390   1.467  11.127   0.474 -0.3753 -0.2318 -0.1442
33338W        W76391  22.380   5.673  28.838  0.0272 -0.2688 -0.2019
33339W        W76392  26.043  17.726   0.673 -0.2373 -0.1357  0.1539
33340W        W76393  31.916   6.887  10.240  0.0364  0.3685 -0.1221
33341W        W76394  24.568  10.192   9.269 -0.1226  0.2640  0.0197
33342W        W76395  34.535   8.687  27.460  0.0084  0.0647  0.0643
33343W        W76396  18.575  33.064  19.894 -0.1884  0.2209 -0.2343
33344W        W76397  24.005  19.709  27.268  0.0293 -0.0213 -0.2051
33345W        W76398  24.219  33.245  17.010 -0.1421  0.1118  0.0010
33346W        W76399  26.021   7.501  16.110 -0.0354  0.1189 -0.0015
33347W        W76400  17.065  13.945  12.743  0.3634  0.2381 -0.1000
33348W        W76401  31.833  33.358  20.103 -0.2392  0.1705  0.2506
33349W        W76402   2.602   4.106   6.653 -0.0944 -0.0369 -0.1213
33350W        W76403  13.389  28.158  16.122 -0.0179  0.1955 -0.0508
33351W        W76404  11.462   1.943  26.907  0.1102  0.1156 -0.3001
33352W        W76405  26.883  13.117   2.693 -0.2817  0.1285 -0.1028
33353W        W76406   7.485   9.420   2.800  0.0236  0.0846 -0.2338
33354W        W76407  27.482  14.623   3.904  0.1887  0.0268 -0.0808
33355W        W76408   5.211   6.158   0.639  0.1566 -0.1366  0.0602
33356W        W76409  34.374   3.439  19.827 -0.0455  0.0258  0.1858
33357W        W76410  34.684  28.434  26.912  0.2056  0.0064 -0.1313
33358W        W76411  29.501   5.859  19.862  0.0534  0.2861  0.1842
33359W        W76412  25.083   1.588  16.347  0.0768  0.2367 -0.0388
33360W        W76413  28.194  33.958  17.668  0.2468 -0.0603 -0.2755
33361W        W76414   1.196  20.731   4.859 -0.1346  0.0507 -0.1438
33362W        W76415  25.950   3.508   8.738 -0.2097  0.1848  0.1600
33363W        W76416  26.216  13.245  23.731 -0.1847 -0.1636  0.1801
33364W        W76417  28.009   9.419   6.370 -0.2358 -0.0454 -0.1010
33365W        W76418  31.338   4.940  10.336  0.0689 -0.3228 -0.0641
33366W        W76419  24.005   9.289  24.927  0.0617 -0.0745  0.0695
33367W        W76420  22.779   0.481   1.992  0.1947 -0.1749  0.0544
33368W        W76421  17.725  33.900   6.389  0.1235 -0.0104  0.0770
33369W        W76422  33.572   8.872   6.647  0.0684  0.2277  0.2931
33370W        W76423  29.493  19.975  21.875  0.0538 -0.2826 -0.3361
33371W        W76424  13.243  12.493   0.167 -0.1152 -0.1679  0.2326
33372W        W76425  29.783   4.118   1.448  0.3137 -0.1348 -0.2884
33373W        W76426   1.137  30.911  13.904  0.1556 -0.1106 -0.0032
33374W        W76427  25.011  15.795  16.067  0.2933  0.5446 -0.3539
33375W        W76428  28.294  17.262  22.238  0.4104  0.1851  0.0516
33376W        W76429  18.656  13.198   1.346  0.0345  0.2721  0.3105
33377W        W76430   0.024  16.072  18.900 -0.1448  0.1424  0.0247
33378W        W76431   3.415   0.889   8.202 -0.5752  0.0493  0.0680
33379W        W76432  26.569  17.371   4.564  0.0152  0.0524  0.3015
33380W        W76433   6.905  14.750  24.102 -0.0405 -0.2347 -0.0108
33381W        W76434  33.381  15.764  28.691 -0.3146 -0.1190  0.3445
33382W        W76435   2.673  21.782  23.102  0.3911  0.0368  0.0554
33383W        W76436   2.088   9.371  24.154  0.2221  0.3854 -0.2672
33384W        W76437   7.377   8.717  17.441 -0.0678  0.0688 -0.2207
33385W        W76438  33.255  11.791  27.365 -0.0655  0.0398 -0.0017
33386W        W76439  21.206  18.172  26.663 -0.0934  0.0707 -0.3893
33387W        W76440  23.795  17.822  22.024  0.1530  0.1333  0.1809
33388W        W76441  18.816  11.372  19.460  0.1334  0.0790 -0.2387
33389W        W76442  28.773  34.222  13.689 -0.2148  0.3040 -0.2566
33390W        W76443  24.173   2.704  21.056  0.3054  0.0287  0.0873
33391W        W76444   0.467  22.581  14.514  0.2072  0.3202  0.2288
33392W        W76445  13.309  29.654   7.060 -0.0399  0.3348 -0.2123
33393W        W76446  22.597   0.877  23.265  0.1371 -0.1835  0.1711
33394W        W76447  22.185  20.994   4.012 -0.0670 -0.2976  0.2847
33395W        W76448   9.652   5.431   9.824 -0.1329  0.1318  0.1649
33396W        W76449   4.744  14.736  29.039  0.1856  0.0032  0.0628
33397W        W76450  21.194  28.152  15.372 -0.1728 -0.0566 -0.4668
33398W        W76451  27.452   1.090   3.868  0.0714  0.2714 -0.0668
33399W        W76452  30.067  32.511   2.422  0.1355  0.3809 -0.1210
33400W        W76453  28.715   1.126  20.043  0.0148 -0.0956 -0.0311
33401W        W76454   0.939   3.858   9.039  0.1247 -0.0696  0.0645
33402W        W76455  32.722   5.061  17.739  0.0641  0.3361 -0.2008
33403W        W76456   5.535  14.738  23.218  0.0749  0.0444  0.1117
33404W        W76457   0.569  29.424  29.114  0.1701 -0.3508 -0.2334
33405W        W76458  27.811   7.383   5.584 -0.0304  0.3524  0.3698
33406W        W76459  13.285  27.602  28.635  0.0955 -0.3069  0.1715
33407W        W76460   0.013  19.722  22.984  0.0426  0.1134  0.0287
33408W        W76461  30.331  32.923   8.050  0.2860  0.1853  0.0585
33409W        W76462  23.687   3.928   5.997 -0.0572 -0.2065  0.1851
33410W        W76463  16.084  31.845   1.717  0.0079  0.1490 -0.1910
33411W        W76464  26.517   5.886  24.818 -0.0197 -0.2128  0.1447
33412W        W76465   2.162   2.013   8.483  0.1012 -0.0715 -0.1509
33413W        W76466  26.695   7.576  17.367  0.0827  0.0515  0.0003
33414W        W76467  12.850  12.078  16.882 -0.2002 -0.0965  0.0716
33415W        W76468  27.758   2.718  24.301 -0.0864  0.0569  0.1003
33416W        W76469  27.758  25.529  15.663  0.2257  0.2169  0.1631
33417W        W76470  18.252  17.772   9.056  0.0506  0.1046 -0.0156
33418W        W76471  32.065  15.347  24.889  0.0211 -0.2344  0.2513
33419W        W76472   6.223  34.636   6.078  0.1931  0.1678 -0.1194
33420W        W76473  16.239  12.171  22.800 -0.0132 -0.2108  0.0436
33421W        W76474   7.921  10.040   5.032  0.0804  0.1041  0.0154
33422W        W76475   4.152   3.503   5.805 -0.3613  0.1500  0.2206
33423W        W76476  33.950  17.048  19.891  0.1625  0.3446  0.3336
33424W        W76477  31.233   1.237   3.309 -0.1494  0.1728 -0.4045
33425W        W76478  21.700  33.541  14.987 -0.1697 -0.3682 -0.0394
33426W        W76479   6.798  19.469  23.985  0.0311 -0.0842 -0.0909
33427W        W76480  25.878  12.628   8.195  0.2358  0.1805 -0.0273
33428W        W76481  14.010  11.486  27.762  0.3010 -0.2580  0.2403
33429W        W76482  33.471  24.702   7.530 -0.2028 -0.1590  0.3275
33430W        W76483   5.886  13.640  22.037 -0.0746 -0.1511  0.0744
33431W        W76484  31.228  34.263  19.121  0.4544 -0.0661 -0.0566
33432W        W76485  30.209   1.086   0.061 -0.2583 -0.2311 -0.0252
33433W        W76486  11.747   6.969  27.903 -0.1317 -0.4492 -0.0392
33434W        W76487  28.827   2.315   7.924 -0.0788 -0.0722 -0.1542
33435W        W76488  25.525   4.480  22.912  0.0077 -0.4815  0.2240
33436W        W76489  14.416  34.273   7.206  0.0401 -0.2073  0.0735
33437W        W76490  21.191  18.299  27.748 -0.0688  0.0411 -0.2827
33438W        W76491  22.791  32.339   0.977 -0.1322  0.2071  0.1642
33439W        W76492  29.159   7.949  25.675  0.2223 -0.1131  0.1236
33440W        W76493  26.668  32.458  26.096  0.2137 -0.0549 -0.0916
33441W        W76494  22.194   6.524  15.589 -0.0541  0.1760  0.0271
33442W        W76495   2.117  10.930   4.715 -0.1201  0.2086  0.0876
33443W        W76496  31.557  15.724   8.612 -0.2386  0.0089  0.0210
33444W        W76497  33.078   6.935  15.454 -0.2189 -0.1326  0.1340
33445W        W76498   3.648   5.715  17.764  0.0211  0.3568 -0.1372
33446W        W76499   0.373  13.871   2.560 -0.2859 -0.2061  0.1553
33447W        W76500  14.228  14.775  22.637 -0.3587 -0.0213  0.1284
33448W        W76501  28.372  32.755   5.769  0.2633 -0.0126 -0.0940
33449W        W76502  12.675  14.394  27.513  0.2142 -0.0987 -0.0567
33450W        W76503  23.751   9.469  16.788 -0.0424  0.0444 -0.0515
33451W        W76504  34.441   3.642   8.780 -0.0324 -0.0931  0.1973
33452W        W76505   0.314  24.097  27.086 -0.1041 -0.1470  0.1168
33453W        W76506  34.653   7.621  23.798  0.3047  0.0362 -0.2886
33454W        W76507  30.202   2.051  19.183 -0.1035  0.1338 -0.1131
33455W        W76508  17.344  14.643  23.390 -0.1823 -0.4635  0.1690
33456W        W76509  30.123   9.442  27.132  0.0815 -0.0431 -0.1327
33457W        W76510  33.757  24.034   9.898  0.0793 -0.2806 -0.0570
33458W        W76511  20.774  16.508  23.113 -0.0694  0.1430 -0.2599
33459W        W76512  24.143  28.736  26.056  0.2157  0.3783 -0.2762
33460W        W76513   0.388   7.674  28.549  0.1510 -0.0274  0.1049
33461W        W76514  18.593  31.871   4.660  0.1838 -0.2451  0.0880
33462W        W76515   3.595   4.889   2.939  0.0715 -0.1231 -0.2680
33463W        W76516  21.453   0.611  17.612 -0.0364 -0.0789 -0.2792
33464W        W76517  17.876   9.500  27.930  0.0480  0.5333 -0.0122
33465W        W76518  29.747  17.930  15.587 -0.1330  0.2546 -0.2767
33466W        W76519  34.152  33.267  21.958  0.0831  0.2005  0.2487
33467W        W76520  24.736   3.178   5.362  0.1056  0.0619 -0.1306
33468W        W76521   3.037   2.367   8.037  0.0247 -0.3615  0.3378
33469W        W76522  28.040   2.020   6.586 -0.2133  0.1797 -0.1373
33470W        W76523   1.011  15.454   4.248 -0.0005  0.2425  0.0066
33471W        W76524  26.025  34.194   5.825  0.1207  0.0018 -0.1363
33472W        W76525  25.965  11.476  26.428  0.1052  0.0171 -0.0547
33473W        W76526   4.392   1.891   1.435  0.1338 -0.0132  0.1578
33474W        W76527  14.310  15.308   5.414  0.2573  0.1273 -0.1364
33475W        W76528  34.315  13.879  16.250 -0.0779  0.1805  0.3712
33476W        W76529  31.528  12.049  27.318 -0.2226 -0.3724 -0.1272
33477W        W76530   7.235  33.878   1.739 -0.2552 -0.0529 -0.4713
33478W        W76531  23.281  10.724   8.595  0.0412 -0.0575  0.3869
33479W        W76532  24.114  17.052   5.245  0.2623  0.1078 -0.0599
33480W        W76533   0.357  12.226   5.861 -0.1128 -0.2699  0.1489
33481W        W76534  31.113  19.834  15.787 -0.3839  0.0354 -0.0420
33482W        W76535   5.516   9.114  20.534  0.0750  0.1036  0.1642
33483W        W76536  28.244  27.912   0.126 -0.3277  0.3168  0.4682
33484W        W76537   8.141  29.555   7.570 -0.3982  0.0593  0.0067
33485W        W76538   6.154  33.179  26.628  0.2155 -0.1374 -0.0166
33486W        W76539   7.720  10.294  23.202 -0.0302  0.0368  0.0354
33487W        W76540  20.067  30.564  20.745 -0.0438 -0.2589 -0.2659
33488W        W76541   4.685  27.851  26.928  0.2757 -0.1174 -0.0529
33489W        W76542  30.393  19.842   0.317  0.3291 -0.0190 -0.0868
33490W        W76543   6.034  16.813  26.764  0.0916  0.1146 -0.2377
33491W        W76544  34.066  19.288   1.267 -0.0601  0.2338 -0.0813
33492W        W76545   7.601  13.833  26.661  0.1812  0.0102  0.0039
33493W        W76546  27.405  25.951   3.181 -0.0251  0.0243  0.0692
33494W        W76547  21.738   8.899  23.845 -0.0464  0.0762  0.3372
33495W        W76548   0.796  22.391   7.094  0.0447  0.2226  0.2784
33496W        W76549  12.121  18.358  19.390 -0.1954 -0.1598  0.0038
33497W        W76550  18.508   5.786  10.739 -0.2048  0.0836  0.1098
33498W        W76551   6.065   4.961   5.859  0.0309  0.1322  0.1350
33499W        W76552  24.443   8.102   2.201  0.3647 -0.1721  0.0285
33500W        W76553  29.459   8.821  22.315 -0.0292  0.0689  0.1384
33501W        W76554  29.347   3.458  18.587 -0.4510  0.0721  0.0346
33502W        W76555  29.757  18.678   3.183 -0.3134  0.4163  0.1577
33503W        W76556   1.786  14.181  28.983  0.0822  0.1945 -0.2301
33504W        W76557  27.384  30.577  22.294  0.0225  0.2676 -0.1950
33505W        W76558  28.147   3.919  19.009  0.2971 -0.1860 -0.1641
33506W        W76559  30.397  31.130  20.216 -0.2269 -0.3231 -0.2880
33507W        W76560   9.649   9.894   6.950  0.1740 -0.1838 -0.0984
33508W        W76561  26.757  22.673   0.559 -0.2343 -0.1005 -0.0256
33509W        W76562  16.495   5.856   3.517  0.0858  0.0478  0.3384
33510W        W76563  23.283   5.397  24.837  0.1198 -0.0967 -0.0134
33511W        W76564  22.381   0.909  21.341 -0.0682  0.0529  0.0277
33512W        W76565  21.743  30.540   3.448 -0.2492 -0.2527  0.0897
33513W        W76566  11.307  11.558   9.108  0.0848 -0.0343  0.4174
33514W        W76567  27.199  23.805  28.399  0.2592  0.0698  0.2311
33515W        W76568  26.083  17.404  25.709  0.0015  0.2718  0.3571
33516W        W76569   8.419   7.971   0.597  0.1721 -0.1190 -0.0150
33517W        W76570   7.764   9.538   8.299 -0.1823 -0.0177  0.0055
33518W        W76571  26.856  21.126   1.500  0.1501  0.0053 -0.5522
33519W        W76572   6.012  33.244   6.416 -0.3000 -0.0613 -0.3824
33520W        W76573   9.477  26.846  14.220  0.2237 -0.1145  0.0424
33521W        W76574  28.425   8.725   5.452 -0.0350 -0.2387  0.1790
33522W        W76575  25.586  12.915  15.359  0.1518  0.0857 -0.0369
33523W        W76576   8.023   7.325  23.454 -0.3618 -0.1476 -0.5930
33524W        W76577   0.826  20.640  17.831  0.2726 -0.1360  0.0804
33525W        W76578  31.339  33.109  21.214 -0.3660 -0.1845 -0.1061
33526W        W76579  32.677  16.581  14.928  0.0776 -0.0139  0.0060
33527W        W76580   0.435  16.241  13.850 -0.2637 -0.1210  0.1499
33528W        W76581   8.901   0.486  18.919  0.0320 -0.3088 -0.0334
33529W        W76582  22.345  31.195  16.702  0.0080  0.1488  0.1485
33530W        W76583  33.729  32.929  15.527 -0.1544 -0.2007 -0.1717
33531W        W76584  14.328  14.733  28.958  0.1685  0.0240  0.4426
33532W        W76585  17.628  18.434  13.851  0.3306 -0.0484 -0.0255
33533W        W76586   4.178   0.930  16.944  0.2168  0.0103 -0.2531
33534W        W76587   0.157  24.722  25.046 -0.1485  0.0658 -0.1709
33535W        W76588  33.463  21.529   0.023 -0.2591 -0.2071 -0.0178
33536W        W76589  29.629  12.464   2.896 -0.1610 -0.1885  0.1759
33537W        W76590  29.076   2.969   2.256  0.2466 -0.2667 -0.1134
33538W        W76591  25.932   6.293  15.294  0.0857 -0.0663  0.1845
33539W        W76592  34.096  19.606  22.448 -0.2001  0.2511  0.0091
33540W        W76593  23.873  26.686  21.492  0.0834  0.3653 -0.0017
33541W        W76594   1.961   4.724  16.717  0.0934 -0.0107 -0.0471
33542W        W76595  30.969  16.684  19.077 -0.1090  0.2181 -0.1775
33543W        W76596  25.338  18.240  16.659  0.0206  0.5124 -0.1493
33544W        W76597  27.857  12.472  24.037 -0.0102  0.0296  0.2127
33545W        W76598  26.033   8.508  25.361  0.0380  0.1133  0.2908
33546W        W76599  32.096   2.768  15.387  0.1307  0.0079 -0.0367
33547W        W76600  27.282  21.224  20.863 -0.2057 -0.2285  0.2261
33548W        W76601  23.184  33.460  24.319 -0.6230  0.0745  0.0320
33549W        W76602  11.576   6.341  18.834  0.1043  0.1221  0.2142
33550W        W76603  32.686  13.843  18.675 -0.3201 -0.0413  0.1292
33551W        W76604  29.293  33.449  17.917 -0.1442  0.1222 -0.0688
33552W        W76605   0.183  17.835  17.434  0.1332 -0.1845  0.0370
33553W        W76606  20.594   9.582  19.922  0.2683 -0.0310  0.1967
33554W        W76607   6.606  13.446  16.879 -0.0231 -0.1546 -0.1261
33555W        W76608  26.460  17.400  20.702  0.1405 -0.1209 -0.1315
33556W        W76609   6.337   1.481  26.388  0.0151  0.1484  0.1295
33557W        W76610  33.642   5.792  19.795  0.1208  0.1901 -0.4934
33558W        W76611  34.298  10.396  20.755  0.1127 -0.2177 -0.6129
33559W        W76612  10.129   0.732  16.488  0.2531  0.0191  0.1061
33560W        W76613  19.056  26.852  27.361 -0.2325  0.1988  0.0772
33561W        W76614   3.174   7.762  14.727  0.5194 -0.2463  0.1840
33562W        W76615  24.457   6.362  16.802  0.0598  0.0821  0.0416
33563W        W76616  28.986   3.113  16.857  0.2790  0.1244  0.0876
33564W        W76617   2.596  25.803  23.305 -0.0005  0.3568  0.0479
33565W        W76618   1.750  12.176   2.274  0.0879  0.0246 -0.1916
33566W        W76619   4.922  11.494  16.529 -0.0212  0.1719  0.1969
33567W        W76620   3.478   6.454  15.315 -0.0479 -0.1489  0.0147
33568W        W76621   7.552  18.195  21.575 -0.1787 -0.1026 -0.1059
33569W        W76622  24.945   6.904  25.308 -0.0412 -0.0181  0.0583
33570W        W76623  20.515  22.225  19.733  0.0958 -0.1372  0.0309
33571W        W76624  15.178  22.223  15.203 -0.0825 -0.0758  0.3316
33572W        W76625  15.100  28.685  22.754 -0.0943  0.0178  0.2897
33573W        W76626  27.483  14.213  21.295 -0.0324 -0.3269 -0.1857
33574W        W76627   0.229  18.131  24.413 -0.1359 -0.1618  0.2006
33575W        W76628  25.065  15.878  20.963 -0.3806  0.1255 -0.1162
33576W        W76629  31.227  18.280   6.250  0.0901  0.0407 -0.0944
33577W        W76630  31.493   0.736  18.307 -0.1114  0.0285 -0.2982
33578W        W76631  15.270   4.159   1.706  0.3906  0.1905 -0.1762
33579W        W76632  22.258  24.367  17.196  0.1873 -0.0588 -0.1668
33580W        W76633  29.342  14.211  27.832 -0.1005 -0.0836  0.1380
33581W        W76634   3.095  12.248  24.685  0.3467 -0.0484 -0.2137
33582W        W76635   3.243   3.357  15.834  0.1872  0.1821 -0.1198
33583W        W76636  27.151  13.017  11.080  0.3731  0.2031  0.2168
33584W        W76637  34.655  15.843  16.606 -0.1113  0.0588 -0.0203
33585W        W76638  10.103   9.582  20.012  0.4268  0.2496 -0.1372
33586W        W76639  33.550  33.917  23.207  0.0562  0.0160  0.0485
33587W        W76640  28.307   3.773  17.966  0.2720 -0.0317  0.0773
33588W        W76641  10.004   1.299   1.417  0.0589  0.2265 -0.0479
33589W        W76642  26.577   0.444   5.051 -0.2625  0.0634  0.3735
33590W        W76643  27.434  16.592  18.234 -0.0378 -0.1999 -0.0146
33591W        W76644  34.084  12.881  16.216  0.0627  0.2498  0.0369
33592W        W76645  30.736  24.711  20.177 -0.1842 -0.3717  0.1209
33593W        W76646  28.817  33.722  16.514  0.0226 -0.1195  0.2143
33594W        W76647  33.318  10.830  18.321 -0.2883  0.3570  0.0910
33595W        W76648   5.997  12.277   1.122  0.0260  0.1971  0.1547
33596W        W76649   1.907   7.299  23.674 -0.0769  0.2517  0.1284
33597W        W76650   4.891   2.361  14.810  0.0355  0.0893  0.2527
33598W        W76651  17.898   1.378   0.121  0.2531 -0.2070 -0.1092
33599W        W76652  12.325   2.420  15.021 -0.3996 -0.1127 -0.3169
33600W        W76653  31.067   3.886  19.418 -0.1609 -0.1493 -0.2730
33601W        W76654   7.242   8.870  14.465 -0.0229  0.1870  0.0308
33602W        W76655  28.175   6.855  27.328  0.2774 -0.3018 -0.1945
33603W        W76656  24.357   5.100  26.784 -0.1274  0.1867 -0.1288
33604W        W76657  29.786   4.913  23.885  0.0864 -0.0037 -0.2172
33605W        W76658  28.692   6.751   0.781 -0.0679 -0.1717 -0.0669
33606W        W76659  12.796   7.062   4.337  0.2233 -0.2254 -0.0552
33607W        W76660   8.623  12.313  15.929 -0.0912  0.1149  0.0329
33608W        W76661  19.663   8.031  19.977  0.0346  0.2395  0.2170
33609W        W76662  27.563   1.397  21.616  0.2398 -0.2172 -0.0144
33610W        W76663  19.504   2.728  21.829 -0.4091  0.4035 -0.0090
33611W        W76664   3.550  16.333  26.696 -0.1835  0.1311 -0.2238
33612W        W76665  17.237   4.579  19.232  0.1217  0.1974 -0.0313
33613W        W76666  15.348   6.224   0.911  0.1488  0.2974 -0.0344
33614W        W76667  29.869  33.288  15.588  0.2419 -0.3404 -0.1086
33615W        W76668  30.013  12.140   4.038  0.0925 -0.0330 -0.0342
33616W        W76669  14.010  33.974   7.504 -0.0410 -0.3171  0.0602
33617W        W76670  28.254  26.499  21.139  0.1053  0.1082 -0.2122
33618W        W76671   7.341  25.846  23.344 -0.1087 -0.1357 -0.2232
33619W        W76672  25.331  13.458  27.159  0.1672  0.1381 -0.0737
33620W        W76673  34.588  22.078   1.843  0.0552  0.0397 -0.0400
33621W        W76674  31.081   6.394   6.522  0.0218  0.2422  0.2566
33622W        W76675  31.320  13.668  23.719 -0.1180 -0.1418  0.0273
33623W        W76676   3.282  25.729  26.128 -0.0764 -0.1670  0.0278
33624W        W76677  16.911   8.640  25.802 -0.4190  0.0414  0.1001
33625W        W76678  17.195  31.018   1.914 -0.0152  0.0424 -0.2380
33626W        W76679   1.902  32.540  24.066  0.0160 -0.0170  0.2041
33627W        W76680  20.355   1.486  16.695  0.1843  0.1517  0.4282
33628W        W76681  23.778  16.712  19.660 -0.2788 -0.1253  0.1330
33629W        W76682  17.476  34.022  15.871  0.1096 -0.1731  0.0044
33630W        W76683  30.708   2.900  17.410 -0.0740  0.0226  0.1441
33631W        W76684  20.727   4.599  21.701 -0.4220  0.1088  0.1121
33632W        W76685  23.369  30.108  26.081 -0.0540  0.0704  0.0901
33633W        W76686  25.939  12.559  25.160 -0.0410  0.3796 -0.4525
33634W        W76687   4.196   4.725   0.303 -0.3924 -0.0361 -0.2681
33635W        W76688   0.829   3.068   6.221  0.1075  0.2243 -0.0098
33636W        W76689  18.465   0.291  20.581 -0.0180  0.1863  0.2121
33637W        W76690  29.394   7.885  19.294 -0.0465 -0.2153  0.1489
33638W        W76691  33.863  29.034  24.198 -0.0303 -0.0079  0.0726
33639W        W76692  15.806   0.710  25.425  0.0634  0.0230  0.0113
33640W        W76693   3.825   2.161  24.112 -0.2514  0.0362 -0.0496
33641W        W76694  28.676   0.897  23.821  0.1826  0.0826 -0.0086
33642W        W76695  31.831   6.264  17.996 -0.0014 -0.0727  0.0246
33643W        W76696  24.416   2.524  16.891  0.0468 -0.3897 -0.1350
33644W        W76697  27.430  19.803  17.323 -0.3708  0.0402 -0.1090
33645W        W76698  32.555   8.368  17.532 -0.0443  0.0388 -0.0604
33646W        W76699  33.153  28.627   2.242  0.2003  0.1063 -0.3132
33647W        W76700  34.066  25.866  17.565 -0.0648  0.0888  0.1856
33648W        W76701   2.841  18.713  15.166 -0.3351  0.1832  0.1636
33649W        W76702  19.521  24.001  14.620  0.0502  0.2856  0.2281
33650W        W76703  25.411   2.949  28.240 -0.2135 -0.1659  0.0775
33651W        W76704  31.551   1.950  15.920  0.2161  0.1443 -0.0224
33652W        W76705   7.550  18.028   4.642  0.1195  0.1716  0.0231
33653W        W76706   6.926  11.832   5.645 -0.3476  0.0047 -0.1625
33654W        W76707  31.629  21.685  15.594 -0.1069 -0.2083 -0.2383
33655W        W76708  23.105   9.308  19.650 -0.0868  0.0657  0.0678
33656W        W76709  24.967  18.095  22.698  0.2530  0.1536  0.0850
33657W        W76710  23.737   8.186  22.714 -0.0173  0.4879 -0.1356
33658W        W76711   5.330  14.461  27.414  0.0025  0.0761  0.2077
33659W        W76712  28.560   5.373  27.936 -0.2594 -0.2208 -0.1675
33660W        W76713  28.474  11.983  16.020  0.0811  0.0628 -0.0392
33661W        W76714   8.324   3.325  17.376  0.0102  0.1830  0.0186
33662W        W76715  15.329  32.254  23.885  0.0206  0.1961 -0.2096
33663W        W76716  32.350   6.774  26.418  0.3916 -0.2119  0.1038
33664W        W76717  28.238  24.827  19.285 -0.2888 -0.0086  0.0099
33665W        W76718   3.874   7.925  17.356 -0.2307  0.1287 -0.3545
33666W        W76719  10.747  14.289  11.077 -0.0890 -0.1401  0.5141
33667W        W76720   5.191  33.916  22.372  0.1325  0.1820  0.1990
33668W        W76721  33.208   7.330  20.304  0.0963 -0.1734  0.1781
33669W        W76722  24.999   9.818  23.476 -0.1528 -0.0719 -0.4053
33670W        W76723   5.253  33.085  22.834  0.1185  0.0410 -0.0758
33671W        W76724  34.493  17.466  19.961  0.0155 -0.1922  0.3945
33672W        W76725   8.005   2.432  27.431 -0.1611  0.2818  0.0953
33673W        W76726  30.119  15.373   5.053  0.2850  0.2524 -0.1106
33674W        W76727  34.647  21.743  23.394 -0.1313  0.1001 -0.0345
33675W        W76728  22.622   4.809  19.508 -0.1975 -0.3553  0.2765
33676W        W76729  17.041   8.496  27.066  0.0226 -0.2220 -0.1161
33677W        W76730  28.187  33.286   6.877  0.0925 -0.4093  0.5740
33678W        W76731  29.573   9.789  20.501  0.0882  0.0793 -0.1588
33679W        W76732  25.228  16.874  16.821  0.0728  0.1421  0.0840
33680W        W76733  24.423  12.578  22.569  0.0205  0.2250 -0.0685
33681W        W76734   1.276  18.590  18.886  0.0865 -0.2170  0.0237
33682W        W76735  22.413  31.986  23.832  0.2137  0.2836  0.1491
33683W        W76736  23.282  19.989  22.960 -0.0548  0.0850 -0.1249
33684W        W76737   4.818   7.375  18.301  0.2209 -0.0297 -0.0323
33685W        W76738   4.899  18.357  20.759  0.0479  0.2888 -0.2273
33686W        W76739  12.241  20.366  15.774 -0.3157 -0.1522 -0.0465
33687W        W76740  22.740   9.887  17.677 -0.1161  0.1703  0.1443
33688W        W76741   1.251  15.008  24.491 -0.1069  0.4486 -0.2365
33689W        W76742  24.631   4.552  17.958  0.0710 -0.1815 -0.2658
33690W        W76743   0.325  10.071  26.438  0.1147  0.0151 -0.1674
33691W        W76744   1.559  11.829  26.380 -0.0981  0.0941 -0.0710
33692W        W76745  25.267  14.190  25.587 -0.1046  0.1113 -0.0970
33693W        W76746   7.997  15.374  26.658 -0.2538  0.1640 -0.2149
33694W        W76747  31.005   0.049  19.953  0.2549 -0.0216 -0.0753
33695W        W76748  15.355  30.726  22.529 -0.0319  0.1883 -0.1980
33696W        W76749  26.966  16.805  16.238  0.0369 -0.2208 -0.0228
33697W        W76750   5.949   1.167  21.033  0.0886 -0.0916  0.0766
33698W        W76751  13.455  14.927  26.002 -0.0781  0.0306  0.0656
33699W        W76752  27.510  19.751  27.571  0.1343  0.1663 -0.0029
33700W        W76753  28.661   0.488  22.960  0.2436  0.1297 -0.0611
33701W        W76754   5.904  23.673  22.010 -0.2770  0.1566 -0.2192
33702W        W76755  18.453   1.302  17.777  0.0433 -0.2658 -0.0402
33703W        W76756   4.927  23.748  22.929 -0.0398 -0.3648  0.1503
33704W        W76757  31.764  26.733  15.125  0.1360 -0.3121 -0.2195
33705W        W76758  18.319  33.278   4.338 -0.0053 -0.1988 -0.1070
33706W        W76759  30.367   6.920  15.992  0.0114 -0.0721 -0.0419
33707W        W76760  34.293  12.674  19.399  0.1316  0.0995  0.2562
33708W        W76761   1.931  11.419  18.986 -0.0228  0.3245 -0.1118
33709W        W76762   6.935   3.193  19.461 -0.1290  0.1266  0.0835
33710W        W76763   2.895   6.509  26.397  0.0675 -0.1276 -0.1393
33711W        W76764  32.809   7.041  18.342 -0.2872  0.1124 -0.0393
33712W        W76765  23.187   1.599   7.126  0.0628  0.0985  0.1716
33713W        W76766  20.646   9.381  14.315  0.0423  0.0767 -0.0937
33714W        W76767  22.490   7.194  16.177 -0.0333  0.3328  0.1790
33715W        W76768   9.079  11.550  16.515  0.1355 -0.1002 -0.2366
33716W        W76769  10.927  25.858  27.990  0.2649 -0.0792  0.1813
33717W        W76770   2.653  20.073  19.551  0.2306  0.0515 -0.3963
33718W        W76771   6.716  18.186  25.581 -0.0801  0.0296  0.4723
33719W        W76772  23.961   9.682  18.794 -0.0183  0.0502  0.3172
33720W        W76773   5.196  11.249  28.979 -0.0492 -0.1500  0.1390
33721W        W76774  14.714  26.110   1.401 -0.0672 -0.0381  0.2232
33722W        W76775  14.089  23.897  16.273 -0.1810  0.0708 -0.2870
33723W        W76776   3.346   1.063  20.124  0.0378 -0.1672  0.0434
33724W        W76777  30.986  14.490  27.608  0.2522  0.0349 -0.1653
33725W        W76778  31.682  27.513   6.418  0.3313 -0.1859  0.0963
33726W        W76779   5.761  16.981  25.087  0.0209  0.1565 -0.1345
33727W        W76780  29.514   1.371  24.690  0.1564 -0.0660  0.3269
33728W        W76781  31.411  30.314  24.743 -0.0433  0.3017  0.3469
33729W        W76782   4.404   2.640  14.815 -0.2047  0.2136 -0.1543
33730W        W76783  32.533   0.833  18.235  0.0383 -0.4453  0.0500
33731W        W76784  15.733   9.879  26.788  0.2296  0.0052  0.3260
33732W        W76785  12.334  22.505  14.024 -0.1360  0.2630 -0.1275
33733W        W76786  23.444  33.822  24.071 -0.1154 -0.2109  0.2324
33734W        W76787   7.935   8.082   0.777 -0.2475 -0.0589  0.0983
33735W        W76788  30.848  22.508  14.751 -0.0868  0.0358 -0.1004
33736W        W76789   3.557   4.546  20.500  0.0765 -0.0475 -0.0166
33737W        W76790   4.005   5.908  20.270 -0.1622 -0.2052  0.1555
33738W        W76791   0.075   5.011  20.057  0.2016  0.4129 -0.2239
33739W        W76792  27.410  29.675   1.397  0.1551  0.0085 -0.2609
33740W        W76793  15.923   3.484  25.209 -0.0423 -0.3812 -0.2253
33741W        W76794   2.778  18.618  21.179  0.0189  0.0539 -0.2050
33742W        W76795  28.854   1.083  14.765  0.2161 -0.2396 -0.1387
33743W        W76796   4.133  26.776  13.346  0.1092 -0.0672  0.0614
33744W        W76797  27.368  27.987  28.793 -0.2462 -0.0956  0.2543
33745W        W76798  28.607   9.275  22.229 -0.0506  0.0062  0.2724
33746W        W76799   7.601   7.035  25.746 -0.1673 -0.3031 -0.1048
33747W        W76800  22.354   0.831  16.064  0.1020 -0.3311  0.0207
33748W        W76801  19.819   5.828  20.666 -0.2738  0.2218 -0.0710
33749W        W76802  13.807  11.938   0.877 -0.1456 -0.0054 -0.2434
33750W        W76803   5.414  26.150  24.644 -0.0288 -0.0537  0.1672
33751W        W76804   0.151   7.080   3.658 -0.0835 -0.0505  0.2094
33752W        W76805   5.375  11.623  18.763  0.1383 -0.3928 -0.0750
33753W        W76806   0.498  28.339  16.750 -0.1187  0.0104 -0.0926
33754W        W76807  30.754  31.082  24.301  0.3566  0.0994 -0.1276
33755W        W76808  32.724  15.302  23.046  0.0740  0.3402  0.0265
33756W        W76809  22.791  18.668  18.848  0.1140  0.0135  0.0481
33757W        W76810  19.209   4.738  15.210  0.4772 -0.2780  0.0335
33758W        W76811   4.257  10.753  17.222  0.3054  0.3037 -0.0632
33759W        W76812   8.415  34.039  19.413  0.0205  0.2631 -0.1320
33760W        W76813  20.733   8.036   1.265 -0.0566 -0.0981  0.1982
33761W        W76814  30.186  23.611  21.308 -0.1440  0.0255  0.0695
33762W        W76815   1.164   4.733  17.676 -0.1161  0.0804 -0.1823
33763W        W76816  26.388   8.073  18.240  0.1597  0.2877 -0.2400
33764W        W76817  28.180  12.176  17.302  0.1040  0.1090  0.1480
33765W        W76818  33.942  12.065  15.903 -0.2598  0.2320  0.3577
33766W        W76819  34.483  14.491  25.868  0.0892  0.3093  0.0409
33767W        W76820   0.586  17.605  15.779 -0.0754  0.1424 -0.4034
33768W        W76821   5.222  10.454   3.228 -0.3714  0.0562  0.0842
33769W        W76822   2.532  13.965  27.885 -0.0136  0.1065 -0.4064
33770W        W76823   4.972  20.036  27.575  0.3463 -0.0431  0.1503
33771W        W76824  24.071  10.756  15.156  0.0782 -0.1429 -0.4094
33772W        W76825  22.732  33.940  27.609 -0.4175 -0.1311  0.0739
33773W        W76826  32.498   1.073  14.301 -0.2276 -0.0693  0.1942
33774W        W76827  23.663   5.829  17.059  0.1224  0.0917  0.1130
33775W        W76828  32.891   8.858  18.155  0.1732 -0.0525  0.0318
33776W        W76829  29.555   7.551  28.837 -0.2539  0.4789  0.0248
33777W        W76830   0.893  15.042   2.902  0.1061  0.0129  0.0952
33778W        W76831   5.130  18.346  16.392  0.0808 -0.0289 -0.0080
33779W        W76832  30.086  15.969  22.307  0.0610  0.1654  0.1396
33780W        W76833  33.424  24.690   0.840  0.1447  0.0616 -0.0862
33781W        W76834  30.240   3.668  13.997 -0.0875 -0.3089 -0.0625
33782W        W76835  23.778   1.890  16.923  0.1258  0.2552  0.1406
33783W        W76836  29.555   4.598  24.224  0.3809 -0.0492  0.0123
33784W        W76837  20.121   3.194   4.883  0.0585  0.3786  0.0150
33785W        W76838  18.243  32.245   3.313 -0.1340 -0.0623  0.1118
33786W        W76839  18.165  11.200  22.741 -0.1775 -0.0225 -0.0939
33787W        W76840  26.866  16.759  13.679 -0.0690  0.2506 -0.0809
33788W        W76841  26.891  10.278  16.227  0.1180 -0.1212 -0.0818
33789W        W76842  22.912   3.752  20.424 -0.2738 -0.1432  0.0206
33790W        W76843  20.246  31.357  26.594  0.4119  0.1682  0.1414
33791W        W76844   8.093   0.755  18.957 -0.0613 -0.0008 -0.0794
33792W        W76845  13.348  12.122  19.269  0.1513  0.1347 -0.4554
33793W        W76846  25.535  30.690  14.318 -0.0641  0.1385 -0.0790
33794W        W76847   8.219  10.310  17.823  0.0482 -0.3349 -0.0558
33795W        W76848   3.626  13.361  25.618 -0.3176  0.0669  0.1174
33796W        W76849   1.769   3.316  14.217  0.1419 -0.1790 -0.1936
33797W        W76850   3.220  14.452  15.542 -0.0248  0.1587  0.0371
33798W        W76851  26.758   5.188   6.753  0.0855  0.0325 -0.0727
33799W        W76852   2.643  18.478  16.132  0.0509 -0.1575 -0.0665
33800W        W76853   2.852  13.619   0.053  0.0279 -0.0144  0.1187
33801W        W76854   0.963   5.345  19.978  0.3096 -0.0060 -0.3283
33802W        W76855   3.289  34.261  28.909  0.0281 -0.0872 -0.0108
33803W        W76856  26.648   6.731  19.518  0.1856  0.0400 -0.0717
33804W        W76857  25.507  20.981  20.940 -0.0695  0.2371 -0.2513
33805W        W76858  26.401  27.932  18.421  0.1357 -0.0904  0.1543
33806W        W76859   6.928  14.659  14.829  0.2673 -0.0058 -0.0390
33807W        W76860  29.382   5.664   8.018 -0.1252 -0.0706  0.0394
33808W        W76861   5.138   8.491   3.504  0.0555 -0.0698  0.1124
33809W        W76862  11.774   5.954  23.966  0.0628 -0.0933  0.1243
33810W        W76863  10.261  29.683  25.366 -0.1773  0.4157  0.1864
33811W        W76864  11.267   2.031  17.220 -0.3158  0.1863 -0.1998
33812W        W76865  25.715  31.997  16.540 -0.3030  0.1936  0.6317
33813W        W76866  12.600  13.808  22.669 -0.0224  0.1305  0.3964
33814W        W76867   1.249  13.274  20.032  0.0843  0.1661 -0.0734
33815W        W76868  28.161  21.253  20.430 -0.1165  0.3154 -0.0159
33816W        W76869  34.183  10.896  18.538 -0.0040 -0.2312 -0.0999
33817W        W76870   9.951   7.488  22.923 -0.3437 -0.3288  0.0185
33818W        W76871  24.146  12.254  18.837  0.2174  0.2559  0.3870
33819W        W76872  32.809  15.934  14.209 -0.1061  0.1798 -0.0248
33820W        W76873   7.224  14.080  25.282  0.0206  0.0420  0.0682
33821W        W76874  12.983  11.986  20.198  0.0536  0.4313  0.2291
33822W        W76875  34.338  14.009  17.784  0.1699 -0.4506 -0.0344
33823W        W76876   8.473  29.361  17.572 -0.0998 -0.1233  0.1689
33824W        W76877  30.926   4.301  15.530  0.0376  0.0769  0.0085
33825W        W76878   5.435  21.830   3.576 -0.1702 -0.0933  0.0486
33826W        W76879  15.984   6.007   7.524  0.0266  0.0933  0.2851
33827W        W76880  33.813   3.931  28.273  0.0283 -0.2306  0.2682
33828W        W76881  25.065  26.714  16.938 -0.1170  0.0125 -0.0464
33829W        W76882  32.350  12.623   7.912 -0.2808 -0.1028  0.1593
33830W        W76883   6.306  26.491  21.484  0.1984  0.1507  0.1237
33831W        W76884   5.521   2.687  28.095  0.2663  0.2411 -0.0285
33832W        W76885   0.181  12.759  22.543  0.0309  0.0307 -0.2190
33833W        W76886  23.193   8.787  22.290  0.0033 -0.0569  0.0840
33834W        W76887  10.181   9.006  18.313  0.2343 -0.0576 -0.1531
33835W        W76888   3.276   5.789  21.680  0.2215  0.1630 -0.0449
33836W        W76889  28.569  14.075  23.583  0.1579  0.0688  0.0899
33837W        W76890   2.828  29.140  16.747 -0.0033  0.2202 -0.3387
33838W        W76891   6.753   4.097  21.639  0.1349 -0.1411 -0.0798
33839W        W76892   9.631  12.993   2.713  0.2742 -0.0788  0.3502
33840W        W76893  21.101   8.329  17.334 -0.1810  0.0760 -0.2847
33841W        W76894  25.694   6.800  20.538 -0.0996  0.3194  0.2915
33842W        W76895  33.199  29.652  21.401 -0.2194 -0.1547 -0.1426
33843W        W76896  16.289  17.542  14.709 -0.0742 -0.1660 -0.3300
33844W        W76897  26.523   8.473   3.876  0.0733 -0.1703  0.0275
33845W        W76898  13.021  10.647   2.441 -0.0998  0.1395  0.2238
33846W        W76899  31.322   0.790   3.627 -0.1564 -0.0649  0.0966
33847W        W76900  28.137  30.901  18.064  0.0845  0.0194 -0.0732
33848W        W76901  29.536  13.948  23.497  0.0865 -0.2366 -0.0634
33849W        W76902  30.545   1.978  18.778 -0.1664 -0.1202 -0.0742
33850W        W76903  33.494  29.007  13.207  0.3110  0.0388 -0.1714
33851W        W76904  27.027   9.671  17.798 -0.3059 -0.1650 -0.3527
33852W        W76905   5.341   9.701  18.918 -0.1325 -0.0568 -0.1492
33853W        W76906   7.855   2.078  17.713  0.1584  0.0018 -0.0956
33854W        W76907   5.644   6.691  18.108 -0.1691 -0.2743  0.0671
33855W        W76908  19.598   2.313  15.368 -0.2136  0.0835  0.0883
33856W        W76909   6.214   2.495  15.240 -0.0340 -0.1520 -0.2474
33857W        W76910   3.867  30.977  21.280  0.0480  0.1623 -0.1197
33858W        W76911  34.247  19.589  25.258  0.0396  0.1561 -0.1551
33859W        W76912   6.057   5.653  18.329 -0.0263  0.4496 -0.1091
33860W        W76913  14.186  22.941  24.763 -0.0108  0.3858  0.0856
33861W        W76914  10.308   8.256  19.089 -0.2339  0.1205 -0.2566
33862W        W76915   6.513  18.234  21.917 -0.0354 -0.1157  0.0359
33863W        W76916   5.574  33.656   4.744  0.1299  0.2098 -0.0863
33864W        W76917  31.982   1.851  24.695 -0.1076 -0.1022 -0.1837
33865W        W76918   9.790   7.341   0.533 -0.2354  0.0532 -0.0307
33866W        W76919  29.597  33.623  23.691  0.0976  0.1222  0.1595
33867W        W76920  28.434   4.984  14.704 -0.2366  0.2604  0.0644
33868W        W76921  32.859   6.426  14.385 -0.2076  0.1426  0.0661
33869W        W76922  20.959  18.852  15.147 -0.0293 -0.1940  0.1611
33870W        W76923  28.330  28.907  27.057 -0.0093  0.0633 -0.0695
33871W        W76924   1.096   0.590  17.037 -0.2181  0.1619  0.3612
33872W        W76925  19.178   7.878  27.033 -0.0165 -0.1393  0.0069
33873W        W76926   8.777  19.238  17.595 -0.4259 -0.2408  0.0080
33874W        W76927   8.281  30.794  13.363  0.0417 -0.0005 -0.2889
33875W        W76928  27.199  28.028  15.440  0.0707 -0.2037 -0.2131
33876W        W76929  25.179   9.440   4.490 -0.0405 -0.4526 -0.0081
33877W        W76930  34.499  18.683  20.806  0.0271  0.4043 -0.1181
33878W        W76931  31.718   5.380  20.195  0.2556 -0.1287 -0.1242
33879W        W76932  26.551   8.254  24.981 -0.3866 -0.2201 -0.0736
33880W        W76933  22.975   6.936   1.500 -0.1074 -0.1257  0.1962
33881W        W76934  16.022  17.208  22.869  0.1108 -0.2640  0.0511
33882W        W76935  21.404   8.777  19.231  0.1919  0.0281  0.0592
33883W        W76936  23.673   0.180   8.340  0.1375 -0.4338 -0.0668
33884W        W76937   5.443   5.969  20.726 -0.2716  0.1950  0.2968
33885W        W76938   7.939  14.108  17.807  0.1238  0.4301  0.0827
33886W        W76939  20.663   8.266  21.587 -0.3286  0.1265 -0.2262
33887W        W76940  26.473  23.169  22.588 -0.0025 -0.0508 -0.2790
33888W        W76941  29.515  17.259  26.556  0.1972 -0.1250 -0.2006
33889W        W76942   6.339   5.753  20.990  0.1602  0.2931  0.0232
33890W        W76943   5.767  33.000  13.952  0.3885  0.1356  0.0167
33891W        W76944  27.624  26.943  28.127  0.3432  0.1286  0.2488
33892W        W76945  30.138  13.429  18.201  0.1959 -0.0106 -0.2936
33893W        W76946  13.057  11.206   0.599  0.0375 -0.1871  0.3267
33894W        W76947  33.463  24.258   0.716  0.2097 -0.0135  0.3393
33895W        W76948  24.300   4.591  21.744  0.0560 -0.2386  0.0691
33896W        W76949  27.071  19.595  27.165 -0.4930 -0.0364  0.1692
33897W        W76950  23.100  28.945  16.119 -0.0648 -0.0751  0.0127
33898W        W76951  31.141   6.836  17.037  0.1267  0.1172  0.1017
33899W        W76952   5.125   1.508  15.431  0.1358  0.2078 -0.0140
33900W        W76953   1.247  14.360  14.665  0.0599 -0.0221  0.1215
33901W        W76954  27.424   6.406  24.981 -0.1988 -0.2989  0.1343
33902W        W76955  22.588   1.912  18.826  0.0872 -0.1819  0.1643
33903W        W76956  23.392   2.075  22.544 -0.2720 -0.2878 -0.1799
33904W        W76957   9.602  17.003  25.784 -0.2785  0.0585  0.2030
33905W        W76958   2.777  15.468   3.045 -0.0169 -0.0826  0.1494
33906W        W76959  28.405  33.710   5.060  0.0956  0.1103 -0.1087
33907W        W76960  25.672  14.893  14.663  0.1736 -0.3916 -0.2222
33908W        W76961   8.368   6.040   1.601 -0.2826  0.1752  0.1043
33909W        W76962  17.913   8.488  27.895  0.2374  0.0727  0.1609
33910W        W76963  17.134   9.870  17.700  0.1393  0.0578  0.0837
33911W        W76964   0.867   9.054  20.817 -0.1071 -0.0754  0.3404
33912W        W76965  32.141  25.360   0.793 -0.0922 -0.0756 -0.3388
33913W        W76966  34.681   7.091   0.552  0.0263 -0.2851 -0.2189
33914W        W76967  28.943   7.423  24.143 -0.0359  0.2789 -0.1473
33915W        W76968   8.526  18.417  22.763 -0.2799 -0.0068 -0.2818
33916W        W76969   1.734  23.366  17.170 -0.1814 -0.2294 -0.1767
33917W        W76970  31.609   8.037  23.110  0.0302  0.2287 -0.4596
33918W        W76971  20.339   4.939  24.846  0.1686 -0.2366  0.1384
33919W        W76972  33.420  19.222  24.269  0.3210 -0.1383  0.2556
33920W        W76973  33.847  24.121  14.381  0.0558 -0.0633  0.1569
33921W        W76974   1.006   2.542  14.153  0.1533  0.0754 -0.1496
33922W        W76975  30.986   4.089  20.784  0.0544  0.2349  0.0417
33923W        W76976  23.778   7.390  19.668  0.1903  0.2947 -0.2513
33924W        W76977  31.863   7.217  24.654 -0.0591  0.1328 -0.0251
33925W        W76978  34.078  12.291  15.468  0.3193  0.0902 -0.3279
33926W        W76979  19.602  30.324  14.209  0.1277  0.1877  0.0783
33927W        W76980   5.169   2.076  22.937  0.0255 -0.0893  0.0310
33928W        W76981  21.695  11.341   1.222  0.0590 -0.1212 -0.1326
33929W        W76982   3.638  32.960  21.980  0.0607  0.2786 -0.0631
33930W        W76983  29.756  11.440  21.652 -0.2838 -0.0455  0.0260
33931W        W76984   1.853  32.805  18.998  0.0999 -0.1984 -0.0598
33932W        W76985  21.628  12.867  24.610 -0.1543  0.1062 -0.0044
33933W        W76986   0.496   4.323   2.991  0.1015  0.1135  0.1039
33934W        W76987   2.526   8.107  26.135 -0.0632 -0.0363 -0.0735
33935W        W76988   1.758   4.591  17.708  0.1873 -0.0306 -0.0295
33936W        W76989  28.773  21.988  15.441 -0.1321  0.0388 -0.2435
33937W        W76990   3.774   7.468   2.460  0.2217 -0.0438 -0.1536
33938W        W76991  11.813   1.226  16.495  0.1969  0.1773  0.3120
33939W        W76992   4.795  31.657  14.932 -0.0833 -0.1588 -0.2664
33940W        W76993   1.312  20.763  24.959  0.0075 -0.3101  0.0970
33941W        W76994   2.291   9.345  16.989  0.1038 -0.0459 -0.2315
33942W        W76995   2.402  13.431  29.020  0.1887 -0.0051 -0.0819
33943W        W76996  31.875  32.549  14.085  0.2419 -0.2504  0.0431
33944W        W76997  30.634  18.645   2.341  0.2887 -0.1942 -0.1859
33945W        W76998  28.947   2.184  25.694 -0.1431 -0.1450  0.2375
33946W        W76999   9.428  13.497  15.572 -0.0953  0.2788 -0.1458
33947W        W77000   7.480   4.066   8.836  0.1287 -0.1074 -0.1036
33948W        W77001  27.661  18.246   7.225 -0.0293 -0.2366 -0.2412
33949W        W77002  19.277  11.502   0.421  0.0932  0.0549 -0.2021
33950W        W77003  11.789  26.839  19.264 -0.0169  0.0029  0.1026
33951W        W77004  23.924   6.996  15.726  0.1631  0.2200 -0.0509
33952W        W77005   6.892   6.558  28.320  0.1417 -0.2548 -0.0320
33953W        W77006   1.785  15.219  22.871  0.2091 -0.0814 -0.1356
33954W        W77007   0.716  33.154   3.178  0.0312 -0.2101  0.0268
33955W        W77008   9.296  33.838  16.678  0.0566 -0.0622 -0.1874
33956W        W77009  32.793   7.833   7.124 -0.1933  0.0747 -0.2546
33957W        W77010   2.677  11.305  22.082  0.0173  0.1990 -0.3427
33958W        W77011   0.447  23.657  17.193  0.0322  0.2372  0.0940
33959W        W77012  33.225   1.952  29.006  0.1875  0.3260 -0.2409
33960W        W77013  22.020  30.925  16.415 -0.3365  0.0251 -0.0489
33961W        W77014  33.874   0.915  27.191 -0.1565 -0.3259 -0.0990
33962W        W77015   5.874  33.430  23.439  0.0198 -0.0653  0.1118
33963W        W77016  24.258  22.945  23.196 -0.1839 -0.2977 -0.1568
33964W        W77017  34.298   1.513  16.320 -0.2667  0.3660  0.1146
33965W        W77018   7.022  15.895   4.585 -0.4760 -0.2154  0.0113
33966W        W77019   4.134   0.796  16.078 -0.0089  0.3343 -0.1005
33967W        W77020  26.264  13.085  16.146  0.0327  0.1482  0.1453
33968W        W77021  28.773  34.246  14.413  0.4197 -0.0910  0.2253
33969W        W77022  33.372  22.609  21.334  0.2136  0.1336  0.0158
33970W        W77023  30.450   2.455  18.398 -0.1015 -0.0479  0.0210
33971W        W77024   4.231  14.171  26.574 -0.2657  0.0339 -0.2968
33972W        W77025   3.148  31.029  18.337  0.4992 -0.0213  0.0583
33973W        W77026  27.693  30.759  17.558 -0.0169 -0.1493 -0.1067
33974W        W77027  28.844  17.322   1.058 -0.1103 -0.1751 -0.2095
33975W        W77028  32.417  22.786  15.536  0.0292 -0.0472 -0.0618
33976W        W77029   7.219  16.083  14.724  0.1034  0.0000  0.0851
33977W        W77030  24.236  13.864  28.209 -0.0311  0.3681 -0.1123
33978W        W77031  18.150  30.949  28.294  0.1090  0.1698  0.0192
33979W        W77032   2.191   9.038  17.457  0.0389 -0.0175 -0.3940
33980W        W77033   7.127   1.970  24.293  0.3805  0.1755  0.2249
33981W        W77034  13.153  15.087  18.942 -0.0239 -0.2673 -0.0426
33982W        W77035  19.205  12.329  14.176  0.0034 -0.0732 -0.0750
33983W        W77036  25.246  10.497  20.404 -0.0702 -0.2130 -0.1478
33984W        W77037  23.597  14.923  16.855  0.0252  0.0023  0.1357
33985W        W77038  33.503  15.751  14.127  0.0704 -0.0913 -0.2747
33986W        W77039   9.609  22.982  23.943 -0.3628 -0.4507  0.0167
33987W        W77040   5.979  18.171  20.266 -0.1987 -0.2857 -0.3169
33988W        W77041  28.488  31.294  21.826 -0.0928  0.1607 -0.0539
33989W        W77042  20.865   7.216  25.264 -0.0936 -0.0173 -0.0905
33990W        W77043  13.557   3.662  15.358  0.0826 -0.0602  0.1964
33991W        W77044   8.943   6.548  24.403  0.3599  0.1668  0.1112
33992W        W77045   7.366  26.173   1.518 -0.1938  0.0543 -0.0229
33993W        W77046  28.355  23.647  16.159  0.2658  0.3286  0.1438
33994W        W77047  30.668   7.184  17.222 -0.0614  0.1273 -0.0804
33995W        W77048  10.555  10.273   1.128  0.2351 -0.0600 -0.2500
33996W        W77049  21.440   6.164  19.660  0.0209 -0.0848  0.1853
33997W        W77050   6.605  24.191   3.152  0.1820  0.0509  0.1608
33998W        W77051  15.058   7.651  21.528 -0.2882 -0.1802 -0.0436
33999W        W77052  28.084  15.422  14.321 -0.0293  0.1127 -0.0496
34000W        W77053  34.565   3.956   2.280  0.2190 -0.1830 -0.1900
34001W        W77054  19.606   1.825   0.665 -0.1976 -0.1056  0.0074
34002W        W77055  22.398   4.375  19.515 -0.0625  0.1077 -0.1795
34003W        W77056  33.609   5.407  15.198  0.0160 -0.0353  0.0926
34004W        W77057  28.676  23.917  18.868 -0.0291  0.1259  0.4805
34005W        W77058  29.680  14.104   3.913 -0.0509  0.1458 -0.2205
34006W        W77059   2.609  23.401  19.019 -0.2131 -0.0780  0.3970
34007W        W77060  28.366  32.932  24.869  0.1276 -0.0127 -0.0955
34008W        W77061  30.528  17.625  27.344  0.2926 -0.3491  0.2779
34009W        W77062   3.415  22.235  22.005 -0.0327  0.0319 -0.2058
34010W        W77063  31.097  20.319  16.941  0.0433 -0.0719 -0.0550
34011W        W77064   3.067   4.906   0.958  0.2180 -0.2332  0.0167
34012W        W77065  13.223   8.969  18.586 -0.1534 -0.0080 -0.4205
34013W        W77066   3.213   0.808  19.088  0.1560 -0.1564 -0.1218
34014W        W77067  30.361  25.322  25.402 -0.0889  0.0256  0.1179
34015W        W77068  28.724   4.389   5.985 -0.1716 -0.0820 -0.4731
34016W        W77069  32.397   9.129  18.750 -0.0109  0.4274  0.0827
34017W        W77070  24.424  17.812  28.397  0.0773  0.5780  0.3266
34018W        W77071  12.661  13.199  21.328 -0.3901  0.1644 -0.0043
34019W        W77072   2.354  34.203   1.649  0.2496 -0.1257  0.0827
34020W        W77073  26.696  26.015  16.702 -0.0088  0.0373 -0.0523
34021W        W77074   5.873  10.367  21.184  0.1049  0.0664 -0.0575
34022W        W77075  26.197   9.923   4.700  0.1069 -0.0745  0.2271
34023W        W77076  21.281   3.643   1.817  0.0505  0.5036  0.0155
34024W        W77077   1.364  17.516   1.923  0.0855  0.0835 -0.4116
34025W        W77078  21.073  20.121  27.084  0.0301 -0.0727 -0.3084
34026W        W77079  31.341   7.669  14.091  0.3226  0.1273 -0.1474
34027W        W77080  26.646   9.844  14.631  0.2488 -0.5132 -0.1669
34028W        W77081   8.731  12.952   5.165  0.3085  0.0702  0.0085
34029W        W77082   2.282  34.390   1.201 -0.0808  0.0086 -0.2752
34030W        W77083   3.421  10.364   0.562 -0.5825  0.3803 -0.0703
34031W        W77084   5.190   6.208  24.038 -0.3488 -0.1389 -0.2056
34032W        W77085   7.806   3.775  20.267  0.0296 -0.0544 -0.1492
34033W        W77086   9.243  29.626  15.185  0.0932  0.3645 -0.0133
34034W        W77087  16.294   6.668   9.440  0.0713  0.1033 -0.0886
34035W        W77088  15.328  10.178   3.083  0.0002 -0.3236 -0.1478
34036W        W77089  29.696   6.147  21.127  0.0979 -0.0349 -0.2335
34037W        W77090  12.206   0.691  14.734 -0.1007  0.1074  0.0666
34038W        W77091  11.872   9.820  16.210  0.0417  0.0988 -0.0904
34039W        W77092  33.364  13.786  28.736 -0.0180  0.1178  0.1636
34040W        W77093  30.083  10.116  28.362  0.0573  0.0634 -0.1280
34041W        W77094   1.173  33.846  26.272  0.0883 -0.2516  0.0104
34042W        W77095   9.094  16.180  23.728  0.1046 -0.3057  0.1474
34043W        W77096   8.834  28.245  25.201  0.0409 -0.2427 -0.3096
34044W        W77097  27.436  20.345  14.277  0.0366 -0.2870 -0.0605
34045W        W77098  17.963  18.096  13.841 -0.2469 -0.2408  0.1626
34046W        W77099   9.816   2.236  14.983 -0.3267  0.0011 -0.3246
34047W        W77100   0.100  16.832  17.637  0.1554  0.0355 -0.1882
34048W        W77101  33.896   4.502  14.681  0.0441 -0.0257  0.2585
34049W        W77102  11.636  17.498  21.684  0.0845  0.0855 -0.0544
34050W        W77103  24.311   7.845  18.299 -0.5509 -0.2069  0.0705
34051W        W77104   2.599  34.514  17.234  0.3899 -0.1869 -0.2405
34052W        W77105   0.772   0.212   2.763  0.0308  0.1082 -0.0068
34053W        W77106  31.143   4.105  20.256 -0.1040 -0.1677  0.1184
34054W        W77107   7.108   3.987  17.826  0.1715  0.2547 -0.2812
34055W        W77108  24.620  13.469  16.652  0.0901 -0.0397  0.3369
34056W        W77109   9.906  22.896  14.765 -0.1405  0.1220 -0.0086
34057W        W77110   1.264   3.353  21.575  0.3068  0.1017 -0.0888
34058W        W77111  27.771  22.421   1.890 -0.2950 -0.1197  0.1761
34059W        W77112  28.832  24.543  24.688  0.1792  0.0351  0.0822
34060W        W77113  29.923  34.095  21.521  0.0258 -0.1395 -0.1141
34061W        W77114   0.474   4.277  22.763 -0.0272 -0.2156  0.2354
34062W        W77115  29.801  11.902  18.864 -0.0327 -0.0244  0.1424
34063W        W77116  17.499   5.388   4.853 -0.1603 -0.2692 -0.1585
34064W        W77117  25.026   2.132  17.471 -0.1771 -0.0513  0.0263
34065W        W77118  29.167   9.741  16.254 -0.1971 -0.3524 -0.1285
34066W        W77119  30.763  17.326   5.050  0.0900 -0.0332 -0.1287
34067W        W77120   4.303  25.778  23.841 -0.0281  0.2272  0.0457
34068W        W77121  19.776  15.538  14.842 -0.1471 -0.2734 -0.0491
34069W        W77122  34.467   7.407  15.956 -0.1480  0.1183 -0.0980
34070W        W77123   3.089   7.446  18.062 -0.1400 -0.2966 -0.1625
34071W        W77124  20.370   1.552  18.590  0.0622  0.0202 -0.0085
34072W        W77125   1.987  17.035  14.160 -0.1777 -0.0899 -0.1480
34073W        W77126  16.233  32.317  17.736  0.0004 -0.0489  0.0096
34074W        W77127  33.345  31.039  18.432 -0.1326 -0.0759 -0.1670
34075W        W77128  14.720  29.680   3.073  0.0890 -0.0325 -0.1738
34076W        W77129   0.648  19.999  17.108 -0.4362  0.1056  0.3053
34077W        W77130  27.941  23.755  23.331 -0.6820  0.0429  0.2887
34078W        W77131   9.092  33.234  15.687  0.0221  0.0947 -0.1983
34079W        W77132  11.792  17.807  13.678  0.1150 -0.0947  0.1255
34080W        W77133  12.229   7.949  23.644  0.3617  0.0474  0.0807
34081W        W77134   7.645  33.812  26.571 -0.0229 -0.2533  0.1710
34082W        W77135  27.635  13.902   2.884  0.0251  0.0491  0.2992
34083W        W77136   0.086   9.258  21.952  0.1898  0.3468  0.0644
34084W        W77137   1.249  15.856   7.237  0.1872  0.0124 -0.0745
34085W        W77138  25.966  23.039   5.310 -0.2094  0.0614  0.2909
34086W        W77139  32.049   0.170  24.177  0.0680 -0.2407 -0.1614
34087W        W77140  30.718   7.263   1.151 -0.1367 -0.1046 -0.1189
34088W        W77141   9.276   3.087  19.400  0.1820 -0.1580 -0.0570
34089W        W77142   8.455   5.552   5.080 -0.0230 -0.0213 -0.0129
34090W        W77143  17.456  10.113   3.246 -0.0824  0.2388  0.0722
34091W        W77144  31.147  16.064  21.598  0.0183 -0.0725  0.1649
34092W        W77145   4.024   1.908  18.290 -0.2627  0.2110  0.2866
34093W        W77146   1.699  10.212  15.198 -0.0449  0.1919  0.1048
34094W        W77147  23.362   0.597  25.343 -0.0933  0.0598 -0.0276
34095W        W77148   4.657  24.900  14.432 -0.0223 -0.0745  0.0515
34096W        W77149  30.717   8.606  25.357 -0.0646  0.1806 -0.2300
34097W        W77150  24.156  11.499  20.057 -0.1983 -0.1131 -0.3025
34098W        W77151  30.539   9.724  17.620  0.2631  0.0034 -0.2204
34099W        W77152   1.481   4.521  18.290  0.3720 -0.4314 -0.2967
34100W        W77153   4.803  19.070  16.626 -0.0645  0.0816 -0.2450
34101W        W77154  28.601   1.804   8.939  0.1346  0.1340 -0.0154
34102W        W77155   6.653  16.183   9.539 -0.2828 -0.3300  0.1360
34103W        W77156   4.300  31.259  21.403 -0.2448 -0.0085  0.0716
34104W        W77157  29.695  20.521  20.289 -0.0549  0.3222  0.1950
34105W        W77158  23.447   6.924  19.345  0.1924  0.1220 -0.1100
34106W        W77159  14.691   4.370   0.000 -0.1967  0.0261 -0.2645
34107W        W77160  26.090  15.736  26.244  0.1344  0.0270  0.2378
34108W        W77161  20.812   4.153  17.749 -0.1624  0.0184 -0.0405
34109W        W77162  26.657   8.961  27.340 -0.1119 -0.1394 -0.0624
34110W        W77163  24.331  25.627   8.587 -0.2521  0.1389  0.0605
34111W        W77164   3.902  10.698  26.838 -0.2688 -0.0013  0.2392
34112W        W77165  23.178  14.949  27.780 -0.2181 -0.0050  0.1047
34113W        W77166   8.021  17.685   1.532  0.2606 -0.0386  0.3496
34114W        W77167  27.426  27.903  16.993 -0.0034 -0.5384 -0.0599
34115W        W77168   8.468  23.465  18.413 -0.1731  0.0679  0.0591
34116W        W77169  26.063  17.528   5.570 -0.0591  0.0760  0.0571
34117W        W77170  24.401   0.482  22.334 -0.0494 -0.1641  0.0594
34118W        W77171  16.049  24.711  26.118 -0.2347 -0.1738  0.0096
34119W        W77172  25.972  10.716  25.373 -0.0548 -0.1582 -0.0888
34120W        W77173   7.919  32.695  16.845  0.1601 -0.1622 -0.2369
34121W        W77174  28.626  20.111  15.736 -0.1990 -0.4354 -0.1551
34122W        W77175  30.583   9.707  22.737  0.2690 -0.2227 -0.3941
34123W        W77176   3.068  32.482  16.083 -0.1170  0.1851  0.2202
34124W        W77177   1.269  19.876  16.013  0.3506 -0.0746 -0.2216
34125W        W77178   6.031   0.598  22.286 -0.1808 -0.3349 -0.0578
34126W        W77179   4.350  34.402   4.360  0.1145  0.0991  0.1087
34127W        W77180   0.586  22.668  24.060 -0.2187 -0.0914  0.0492
34128W        W77181   2.652   1.782  18.202 -0.0003 -0.0243  0.0611
34129W        W77182  23.610   2.818  17.535  0.2730 -0.0108  0.3843
34130W        W77183  34.603   8.731  17.632 -0.4792 -0.2355  0.2281
34131W        W77184   2.313  33.759   5.481 -0.0266 -0.1328  0.0136
34132W        W77185  12.311  21.752  16.786  0.0985  0.1390 -0.1145
34133W        W77186  28.947  32.662  24.312 -0.0866  0.2296 -0.2145
34134W        W77187  21.449   9.550   1.408 -0.2077  0.0571  0.0246
34135W        W77188   7.213   9.525  22.092 -0.1713 -0.0629 -0.4008
34136W        W77189   6.077   2.593  13.883  0.4649  0.1338 -0.3368
34137W        W77190  34.416   3.626  13.502  0.0761 -0.1947 -0.0969
34138W        W77191   2.579  33.818  14.071 -0.2009 -0.0581  0.1399
34139W        W77192   2.134   5.686  22.931 -0.5430 -0.0421  0.1181
34140W        W77193  27.710  24.245  24.102 -0.1355 -0.3766 -0.0838
34141W        W77194   1.051   3.444  18.229  0.0346 -0.0721 -0.1129
34142W        W77195  26.905   8.875  18.952 -0.1039  0.0163  0.1591
34143W        W77196  26.586   8.159  29.014  0.0675 -0.3611 -0.0515
34144W        W77197  18.533  20.325  21.068  0.0178 -0.0026  0.2900
34145W        W77198   8.935  10.219  21.298 -0.1490  0.2353  0.1470
34146W        W77199  22.026  15.541  24.059  0.2213 -0.1586 -0.1235
34147W        W77200  28.359   5.247  16.083  0.0733 -0.1102  0.0352
34148W        W77201   6.920  32.403  18.197  0.2139 -0.0859 -0.2468
34149W        W77202  23.495  26.011  20.111  0.0046  0.2865 -0.3272
34150W        W77203  19.722  33.296  22.522  0.0875  0.1765  0.0660
34151W        W77204   3.098  23.074  23.379  0.0080  0.1100 -0.0564
34152W        W77205  27.237   7.210   2.035 -0.1202 -0.4091  0.4565
34153W        W77206  33.624   0.856  27.612  0.3792 -0.4349 -0.2958
34154W        W77207  13.227  20.942  13.595  0.1352 -0.1600 -0.1590
34155W        W77208   2.451  32.862   7.070 -0.0175  0.3903  0.3959
34156W        W77209  21.605   5.314  25.462  0.2215  0.3805 -0.2160
34157W        W77210  22.195  15.033   0.932  0.0482 -0.1708 -0.1093
34158W        W77211  33.955  30.632  23.725  0.2709  0.0234 -0.1076
34159W        W77212  27.833   4.005  18.122 -0.0591 -0.1853 -0.1292
34160W        W77213  30.542  33.934  22.389 -0.0076  0.0347 -0.1355
34161W        W77214  34.485  15.541   0.531 -0.4091  0.2828 -0.1898
34162W        W77215  22.927  24.715  22.273 -0.1262 -0.0680  0.2974
34163W        W77216  31.699   7.910  22.057  0.1923  0.2312  0.1099
34164W        W77217  31.212  17.312  17.346 -0.0788 -0.0494  0.1495
34165W        W77218  13.258   8.415  21.464  0.3458 -0.2126  0.2311
34166W        W77219   7.558  12.878  14.950  0.2337  0.1688  0.2199
34167W        W77220  20.808   7.394  22.730 -0.2036  0.2160  0.0912
34168W        W77221  26.659  13.958  14.463 -0.1600  0.0612 -0.1230
34169W        W77222   9.671   7.536  19.253 -0.1533 -0.0969 -0.3442
34170W        W77223  26.860   9.131   1.020  0.0221  0.1053  0.1385
34171W        W77224  27.845  26.204  21.238  0.0536  0.0720 -0.0559
34172W        W77225  13.827  33.978  17.899  0.3936  0.1490 -0.0439
34173W        W77226   9.456  12.207  16.904  0.0563 -0.0801  0.1913
34174W        W77227  31.429   7.718  26.565 -0.0907  0.3455 -0.0119
34175W        W77228   9.985   6.354  24.996 -0.3408  0.1716  0.1274
34176W        W77229  27.395   8.198  24.467  0.1711 -0.1750  0.0792
34177W        W77230  29.100  20.660  28.206 -0.0872  0.2634  0.0815
34178W        W77231  27.634  17.308   0.033 -0.2341 -0.2138  0.1699
34179W        W77232  27.033  12.507   1.008 -0.1126 -0.0150  0.0295
34180W        W77233   7.386   7.802  16.552 -0.1052  0.2479 -0.3267
34181W        W77234   6.353  29.119   8.938  0.1682  0.2831 -0.3219
34182W        W77235   4.351   8.948  16.397  0.1644 -0.1764  0.0431
34183W        W77236  23.921  10.178  13.612 -0.0822  0.0144 -0.0515
34184W        W77237   7.966  16.258  22.732 -0.1110 -0.2091  0.0312
34185W        W77238  10.769   0.391  23.987 -0.1199 -0.0708  0.0337
34186W        W77239  10.875  25.696  22.692 -0.1364 -0.2842  0.3813
34187W        W77240  33.416  33.838  19.701 -0.4261  0.2606  0.0238
34188W        W77241   9.725  15.471  17.689  0.1191 -0.2580 -0.0383
34189W        W77242  32.351  27.758  21.025 -0.0332  0.2021  0.0424
34190W        W77243  31.278  21.653  27.093  0.6503 -0.5051  0.2294
34191W        W77244  27.526  15.562  29.117  0.1388  0.4472  0.1484
34192W        W77245  28.447  31.311   4.050 -0.2426  0.3106  0.2170
34193W        W77246  30.564  13.048  17.430  0.0346  0.1797  0.0214
34194W        W77247  27.425  15.950  19.114  0.1584  0.3758 -0.1755
34195W        W77248  34.547  10.436  10.605 -0.0893  0.0894 -0.0068
34196W        W77249  30.019  17.845   2.640  0.1365 -0.0231 -0.1177
34197W        W77250   3.836  14.288  18.625  0.0669 -0.0087  0.3109
34198W        W77251  22.736   2.391  17.974 -0.1567  0.2360  0.0111
34199W        W77252   0.267  17.880  21.062 -0.2720 -0.2350 -0.2116
34200W        W77253  18.267   9.504  25.383 -0.0984 -0.1170  0.3462
34201W        W77254  24.856   3.792  22.931 -0.1259  0.1802  0.0419
34202W        W77255   0.918   6.573  24.367  0.0872 -0.0777 -0.0298
34203W        W77256  34.203  32.915  18.931 -0.0022  0.2272  0.1207
34204W        W77257  15.001  15.668   2.631 -0.0987 -0.4417 -0.0712
34205W        W77258  29.416  24.201  17.901  0.2381 -0.1768  0.0518
34206W        W77259  31.225  10.694  19.039  0.2055  0.0293  0.0231
34207W        W77260  33.258  24.757  20.181  0.2280 -0.0163  0.1243
34208W        W77261  11.053   2.228   4.939  0.0284  0.1959 -0.0442
34209W        W77262   2.867  33.009  19.451 -0.1671  0.0133  0.0117
34210W        W77263  32.566   7.042  27.914 -0.2681  0.1013 -0.0029
34211W        W77264  33.241  14.385  19.067  0.0900  0.3248  0.1697
34212W        W77265  27.979  21.300  24.701  0.0235 -0.1457 -0.1256
34213W        W77266  15.371   8.028  21.362  0.1796 -0.1867  0.1203
34214W        W77267  26.604  17.570  21.255 -0.0349 -0.0733  0.0540
34215W        W77268  24.382   7.976  21.528  0.1020  0.1970 -0.0204
34216W        W77269  21.241  14.692  18.908 -0.5067 -0.4106  0.0792
34217W        W77270   2.021   5.412   3.641  0.0340  0.0627  0.0587
34218W        W77271  30.886  13.052   0.365 -0.0478 -0.1468 -0.1051
34219W        W77272   3.968   1.829  19.609 -0.0550  0.2450 -0.0646
34220W        W77273   2.580   3.965  23.362  0.2340  0.0748  0.0539
34221W        W77274   5.101   9.301  24.624 -0.0395 -0.1023 -0.0721
34222W        W77275   0.169  27.926  26.991 -0.0544 -0.0931  0.2074
34223W        W77276  14.294  27.963  18.156 -0.1733  0.2894 -0.2336
34224W        W77277  20.307   7.506   0.970  0.1357 -0.3149 -0.0115
34225W        W77278  16.987  20.860  25.002 -0.2473 -0.3112 -0.1247
34226W        W77279  24.341  11.097  20.316 -0.2579 -0.2542 -0.1013
34227W        W77280  24.815  10.158   5.101  0.0433 -0.0388  0.2113
34228W        W77281   1.163   8.357  18.552  0.3345 -0.0917 -0.2100
34229W        W77282  16.600   5.717  22.694  0.2268  0.0671  0.0011
34230W        W77283   8.812   8.961  17.090 -0.2563 -0.0180 -0.1372
34231W        W77284   5.151   8.894  25.466  0.4457  0.2439 -0.0491
34232W        W77285   2.637   7.963  23.690 -0.1183  0.0186 -0.2102
34233W        W77286  25.997   6.855  15.282 -0.1428  0.0096  0.3652
34234W        W77287  24.364  20.542  18.424  0.3939  0.1445  0.0536
34235W        W77288  28.895  11.747   2.232  0.0774  0.1155 -0.2589
34236W        W77289  32.122  12.381   1.931  0.0073  0.3448  0.0616
34237W        W77290  25.636  33.079  19.501 -0.0891 -0.3709 -0.1383
34238W        W77291  30.769  19.060  23.779  0.2582  0.2343 -0.2459
34239W        W77292   6.268  19.474  15.820  0.0108  0.4346 -0.2839
34240W        W77293  11.934  14.991  27.606 -0.0484  0.0478 -0.0975
34241W        W77294   3.126  19.496  17.149  0.1869  0.0187  0.0358
34242W        W77295   3.481   7.636  17.199  0.1597 -0.2046  0.0454
34243W        W77296   9.954  22.423  18.713  0.0305  0.0741  0.0508
34244W        W77297  22.243  21.937  24.408  0.3847 -0.1306 -0.0400
34245W        W77298   5.257   3.413   9.283  0.0734  0.3674  0.0226
34246W        W77299   7.576  10.263  13.855  0.0599 -0.0814 -0.4256
34247W        W77300  32.460   2.063  26.867  0.0599  0.0130 -0.1094
34248W        W77301  20.316   0.982  16.696 -0.0295  0.0570 -0.1219
34249W        W77302  10.281   9.462  17.082  0.3573 -0.0823 -0.1541
34250W        W77303  32.142  14.125  28.577  0.1978 -0.2754  0.1708
34251W        W77304  23.505   0.793  17.691  0.1917 -0.1746 -0.2346
34252W        W77305  14.399   0.015   2.973  0.3560 -0.0922 -0.1903
34253W        W77306  28.701   4.858   2.293  0.0494 -0.2103  0.3402
34254W        W77307  25.738  33.650   9.483  0.4457  0.1945  0.2076
34255W        W77308   2.479  10.294  16.402 -0.0863 -0.0424  0.2493
34256W        W77309  26.246   7.382  20.100  0.0333 -0.2358  0.0700
34257W        W77310  23.990  20.370  18.814 -0.1402 -0.0452 -0.3916
34258W        W77311  26.951  17.735  14.896  0.0171  0.1599 -0.1251
34259W        W77312   1.829  24.615   0.053  0.1475 -0.1827  0.0114
34260W        W77313   2.044  34.529  15.912 -0.3830 -0.1340  0.2333
34261W        W77314   0.613  13.924  19.336  0.3211  0.0052  0.1716
34262W        W77315  26.148   0.949   1.601 -0.2892 -0.0631  0.4502
34263W        W77316   3.801  10.811  24.567 -0.0250  0.2529  0.0215
34264W        W77317   1.737   3.905  22.526  0.2138 -0.1580 -0.3350
34265W        W77318   9.705   4.751   2.970  0.2341  0.2009 -0.0404
34266W        W77319   1.708   1.597   5.643 -0.3000  0.0887  0.2852
34267W        W77320   2.424   9.015  16.624 -0.0598  0.0260 -0.0836
34268W        W77321  32.163  18.236  18.831 -0.1708  0.1722  0.2600
34269W        W77322  30.295  13.210  24.834  0.0566 -0.0652  0.1830
34270W        W77323  23.504  24.871   1.404 -0.1533 -0.0917 -0.0445
34271W        W77324   8.268   9.640  15.515 -0.2177  0.0917 -0.2441
34272W        W77325   0.773  21.234  23.500  0.0751  0.3123 -0.0210
34273W        W77326  30.109  10.676  21.039 -0.0498  0.0386 -0.1378
34274W        W77327   0.713   5.741  20.708  0.1361  0.0482 -0.0551
34275W        W77328  18.514  17.422   2.968  0.0819 -0.1608  0.2536
34276W        W77329  14.733   8.078  17.855 -0.0015 -0.2901  0.1292
34277W        W77330  30.593  11.913  21.003  0.0116 -0.2603 -0.2190
34278W        W77331  22.037  11.092  23.870  0.1128 -0.2898  0.1142
34279W        W77332  25.231  13.060  16.820 -0.2900  0.0924  0.1629
34280W        W77333  26.855  21.892  23.727  0.2866 -0.2392  0.4584
34281W        W77334  31.637   9.512  21.166  0.1754  0.3341 -0.1505
34282W        W77335  25.966  19.718   5.712  0.2621  0.2557 -0.4636
34283W        W77336   4.402  20.214   3.288 -0.0312  0.2312  0.1723
34284W        W77337  14.900  34.284   3.965  0.1779 -0.0382 -0.1420
34285W        W77338  26.130  11.674  19.983  0.3033  0.1536 -0.1769
34286W        W77339  30.787   4.102  18.578 -0.0111  0.1442  0.0769
34287W        W77340  30.051   6.905   1.857 -0.0618 -0.2386 -0.0386
34288W        W77341  26.537  12.376   2.116  0.0311  0.0479 -0.0616
34289W        W77342  32.502   5.090   1.874  0.2805  0.1775 -0.1069
34290W        W77343  21.488  12.373  13.648 -0.0427  0.1226  0.0680
34291W        W77344  15.287  10.476   8.546 -0.1837  0.1044 -0.3206
34292W        W77345   4.716   8.392   9.311  0.1869  0.2208 -0.0873
34293W        W77346  32.464  34.100  13.291  0.1135  0.2566  0.1721
34294W        W77347  24.851   8.299  21.469  0.0079 -0.0204  0.2609
34295W        W77348   3.504   4.845  15.030  0.2922 -0.0393 -0.0833
34296W        W77349  14.956  18.850   7.452 -0.0532  0.1119  0.2821
34297W        W77350   3.279  16.306   0.107 -0.1953  0.1574  0.0432
34298W        W77351  22.502  17.834  26.202  0.0007  0.0224 -0.0520
34299W        W77352   9.118  23.370   0.671 -0.0716 -0.0486  0.1096
34300W        W77353   4.040  14.880   8.822 -0.0643  0.1209 -0.1828
34301W        W77354   3.846   4.159  20.389  0.1627 -0.0751 -0.0167
34302W        W77355  33.509   5.552  19.320 -0.0385 -0.0767 -0.2398
34303W        W77356  13.222  11.142  24.485 -0.4360  0.0158 -0.0859
34304W        W77357  34.471   4.054  28.924 -0.0466 -0.0416 -0.0639
34305W        W77358  27.677   5.804  25.036 -0.0637  0.0801  0.1379
34306W        W77359  32.096   7.249  16.870 -0.1898  0.1706  0.1425
34307W        W77360   1.943  19.826  24.075  0.0795  0.1173 -0.2181
34308W        W77361  26.227   8.963   3.616 -0.2081  0.0626  0.0375
34309W        W77362   2.170  24.508  14.521 -0.1135  0.0232 -0.1362
34310W        W77363  31.983  32.048   4.905  0.0127  0.1227  0.0691
34311W        W77364  23.909  12.101  13.261  0.1400  0.4741  0.0062
34312W        W77365   7.860  24.209   8.024  0.0823 -0.1010  0.1571
34313W        W77366   1.001   0.326  28.531 -0.3697  0.2348  0.0071
34314W        W77367   0.048  19.179  21.538  0.1508  0.0079  0.0661
34315W        W77368   5.953   2.576  18.781 -0.0457 -0.2039 -0.0413
34316W        W77369  23.707   2.751  21.801 -0.0980 -0.0718 -0.2464
34317W        W77370  31.618  30.848  16.575 -0.2415 -0.0718 -0.1821
34318W        W77371  33.343  10.455  22.872 -0.1565  0.0215 -0.2812
34319W        W77372   2.921  17.131  21.613 -0.2672  0.1411 -0.0106
34320W        W77373   4.124  17.273  15.196  0.1771  0.0431  0.0910
34321W        W77374  22.816   3.195  23.515  0.1735 -0.2399  0.1721
34322W        W77375  14.812  18.220   0.889 -0.5396  0.2051 -0.0945
34323W        W77376  31.171  10.604   8.992 -0.2808  0.3238  0.2085
34324W        W77377  25.332  10.366  22.233  0.2253  0.2940  0.1480
34325W        W77378  14.338  22.317  27.475 -0.1429  0.5449  0.1130
34326W        W77379  32.524  17.839   7.221 -0.0701 -0.4614 -0.0722
34327W        W77380  22.229  14.198  23.720  0.0531 -0.1289  0.1274
34328W        W77381  31.435  19.031   5.043  0.2800 -0.0064  0.1733
34329W        W77382  10.547  13.676   7.052 -0.0936 -0.3306 -0.2088
34330W        W77383   6.925   7.510  24.820  0.2787 -0.1952 -0.1610
34331W        W77384   7.797   7.260   8.439  0.4422 -0.0571  0.0294
34332W        W77385   3.599  30.032  20.705  0.1835  0.3760  0.2283
34333W        W77386  31.963  31.914  16.220  0.0883 -0.0230  0.1367
34334W        W77387  26.075  15.876  21.491 -0.0229 -0.0003 -0.0444
34335W        W77388  34.240  10.173   8.683  0.1303 -0.0421 -0.0136
34336W        W77389  16.385  33.575  27.147  0.0218  0.0058  0.0593
34337W        W77390  22.017   6.211  15.976 -0.1822  0.2213  0.1169
34338W        W77391   8.093  12.009   2.575 -0.0500 -0.0626 -0.0059
34339W        W77392  26.497   8.147  20.071 -0.1047  0.1433 -0.1533
34340W        W77393   9.302  32.116  15.250  0.0857  0.1788  0.1893
34341W        W77394  25.691  34.032  15.542  0.0753 -0.0713 -0.0645
34342W        W77395  31.726  20.508  26.182 -0.1880 -0.0380  0.2300
34343W        W77396   8.683   8.369   0.481 -0.0093  0.4580 -0.3917
34344W        W77397  16.974  12.811  15.455 -0.0376 -0.1751  0.3195
34345W        W77398   6.480  12.710   1.786 -0.1604  0.0711  0.0237
34346W        W77399  30.155   7.352  16.241 -0.1425  0.1934  0.1594
34347W        W77400  30.610  19.785   1.747  0.2016  0.2127 -0.0955
34348W        W77401  11.339  12.106  24.292 -0.0388 -0.3991  0.0215
34349W        W77402   2.620   3.214   4.288  0.0166  0.1362 -0.1675
34350W        W77403  17.479  12.652   9.194 -0.0267 -0.1314  0.0097
34351W        W77404   5.232  22.939  20.483 -0.2155  0.1749 -0.3103
34352W        W77405   6.225   1.240   8.648  0.0863  0.3908 -0.0351
34353W        W77406  31.897  19.835  15.783  0.1413  0.2650 -0.1657
34354W        W77407  30.546  24.564  27.207 -0.2454  0.0272  0.2047
34355W        W77408  29.704  11.977  17.919  0.1374  0.0911 -0.0804
34356W        W77409   2.657  12.611  15.305 -0.1736  0.1411  0.1907
34357W        W77410   2.626  26.657  22.690 -0.2890  0.1398  0.2050
34358W        W77411  30.891  17.954  18.764 -0.0424 -0.3118  0.0589
34359W        W77412   4.959   7.841  27.187 -0.1911 -0.0047 -0.0084
34360W        W77413   3.850  34.306   2.615  0.0832 -0.4756  0.1389
34361W        W77414   5.516   9.898  21.175  0.1469 -0.1316  0.0338
34362W        W77415  30.093  33.305  17.608 -0.1637 -0.2154 -0.0303
34363W        W77416  22.861   4.682  27.227  0.1292  0.2365 -0.1556
34364W        W77417  17.322   6.630  26.091 -0.0996  0.5657 -0.0190
34365W        W77418  16.719   1.011   3.517  0.1043  0.1681 -0.1158
34366W        W77419   1.214   1.381  14.094  0.0003  0.0119 -0.0983
34367W        W77420  31.670  28.471  26.942  0.0301  0.0527  0.3820
34368W        W77421  25.554  15.614  15.330 -0.4192 -0.0108 -0.1873
34369W        W77422  34.581  24.193   3.156  0.1853  0.1005  0.2951
34370W        W77423   8.837   8.455  17.269  0.1624 -0.1951 -0.1390
34371W        W77424   2.412  24.140   0.251 -0.3171 -0.0950  0.0510
34372W        W77425  13.491   4.715   4.847  0.1504  0.0029 -0.2327
34373W        W77426   2.922   9.528   9.447  0.1698 -0.1812 -0.0285
34374W        W77427  26.867  13.811  21.888 -0.0614 -0.1018  0.3257
34375W        W77428   3.126   3.756   8.280 -0.1973  0.0591 -0.0477
34376W        W77429   1.669  26.198  28.588  0.1159  0.1659 -0.0956
34377W        W77430  31.930  18.130   2.634  0.0372 -0.0426  0.0323
34378W        W77431   0.523  34.092  18.290  0.1112 -0.0298 -0.1959
34379W        W77432  11.925  15.067  22.901  0.2022  0.0030  0.0732
34380W        W77433   3.116  31.471  20.696  0.2598  0.2829  0.2707
34381W        W77434  10.437   4.660  22.623  0.0182  0.0052 -0.0025
34382W        W77435   7.188   0.486  17.847  0.0969  0.0727 -0.1599
34383W        W77436   8.824  23.386   9.497 -0.0793  0.3199 -0.3841
34384W        W77437   1.226  25.348  26.202  0.0353 -0.1902  0.2911
34385W        W77438   8.446  19.394  14.707  0.1235 -0.0011  0.1468
34386W        W77439  33.215  29.984  21.737  0.0436  0.4603 -0.0283
34387W        W77440   7.356   3.355  16.103 -0.1122 -0.2372  0.0380
34388W        W77441   4.807   9.984  22.767 -0.0766 -0.3578  0.0614
34389W        W77442  28.648  17.272   2.404  0.1518  0.0683  0.0600
34390W        W77443  27.973   8.737  26.387  0.1145  0.1303 -0.0746
34391W        W77444  28.895  14.173  21.638  0.0451  0.1785  0.1187
34392W        W77445  12.704  17.898  18.949 -0.4653 -0.1773  0.1132
34393W        W77446  24.545  24.080  17.652 -0.1456  0.1083 -0.3927
34394W        W77447   1.774   2.397  26.347  0.0742 -0.2009 -0.0929
34395W        W77448   3.723   0.370   2.148 -0.0654  0.0956  0.2881
34396W        W77449  29.386   9.158   2.941  0.0230 -0.2034  0.1703
34397W        W77450   0.150  14.070  22.905 -0.1675  0.4604 -0.2817
34398W        W77451  31.716   3.407  16.419  0.1590  0.1749  0.2955
34399W        W77452  12.638  21.517   2.315  0.0424  0.1926  0.1811
34400W        W77453   9.412  10.415   1.899  0.3098 -0.0425 -0.0879
34401W        W77454  32.829  11.002   3.823 -0.2209  0.2907  0.1097
34402W        W77455  21.109  34.203  19.885 -0.0122  0.1698 -0.0079
34403W        W77456  13.096  16.918   0.501  0.2956 -0.1141 -0.2112
34404W        W77457   9.608   8.752   3.992  0.1709  0.1094  0.0535
34405W        W77458   5.044  25.961  18.165 -0.1594  0.1812  0.4133
34406W        W77459   7.128  17.675  14.540 -0.1711  0.0811 -0.0334
34407W        W77460  23.364   6.615  27.930  0.0063 -0.2658 -0.1168
34408W        W77461  27.306  16.640  21.620  0.2480  0.0605  0.0622
34409W        W77462  26.427   9.875  23.930  0.0490  0.0093 -0.2204
34410W        W77463  16.203  11.284  23.434  0.0898 -0.1431  0.1618
34411W        W77464  30.047   3.121  14.766 -0.1306  0.1065 -0.1259
34412W        W77465  26.998   2.812   0.165 -0.1287  0.1761  0.0311
34413W        W77466  34.493   4.482  21.551 -0.2219 -0.0250 -0.1142
34414W        W77467   1.625   7.375  22.775  0.0755  0.1691  0.1352
34415W        W77468   2.204  27.268  23.308  0.0568 -0.2525  0.1793
34416W        W77469  10.613  13.262   1.707 -0.0696 -0.0527  0.0797
34417W        W77470  21.690  31.502   0.450 -0.1307 -0.0899 -0.2627
34418W        W77471  27.385  14.499  10.001  0.3324 -0.2643  0.3095
34419W        W77472  27.849  12.516  21.046 -0.2550  0.0731 -0.1241
34420W        W77473  18.505  25.918  14.311 -0.4790  0.1582 -0.0401
34421W        W77474   1.330  33.143  20.710 -0.0298  0.2041 -0.0458
34422W        W77475   2.115  20.015  22.664 -0.1926 -0.2258  0.0730
34423W        W77476  28.553  16.055   1.429 -0.0104 -0.4460 -0.0645
34424W        W77477  32.256   9.851  19.449 -0.0166 -0.1814  0.0820
34425W        W77478  27.303   5.587  16.035 -0.1867  0.0395  0.0453
34426W        W77479   9.189   6.471  16.795  0.0453 -0.0567  0.0363
34427W        W77480  30.106  13.320  20.618 -0.1153 -0.2965 -0.3965
34428W        W77481   3.430   3.272   0.657  0.0198 -0.0834  0.2103
34429W        W77482   1.597   9.728  15.377 -0.0941 -0.1423  0.0806
34430W        W77483   3.838  27.386  27.043  0.1637 -0.0355  0.3097
34431W        W77484  24.026   5.111  19.561  0.1492  0.0234 -0.2497
34432W        W77485  29.160   6.054   3.208  0.0823  0.1771  0.0931
34433W        W77486  28.079  32.792  27.114 -0.2003 -0.1265 -0.1246
34434W        W77487  32.567  33.772  27.505  0.0453 -0.3058 -0.2168
34435W        W77488  18.641   9.413  22.158 -0.3165 -0.2053  0.0468
34436W        W77489   4.551  22.272  26.124  0.0888 -0.1814  0.0775
34437W        W77490  24.046  14.068  25.196  0.1279  0.0464 -0.2640
34438W        W77491   9.514   7.525  16.400  0.0321  0.0713  0.1142
34439W        W77492  11.954  11.999   2.112 -0.0388 -0.0727  0.1620
34440W        W77493   8.121  33.916  24.173 -0.1712 -0.0689 -0.3902
34441W        W77494  31.535  10.653  29.026  0.0544  0.2239 -0.0796
34442W        W77495  25.589  17.806   4.622 -0.1175 -0.2794  0.0268
34443W        W77496  25.801   3.124  14.817 -0.1013  0.1940  0.1955
34444W        W77497  28.400  31.728   9.167  0.1273 -0.1105  0.1661
34445W        W77498  17.443   8.298  16.831  0.0991 -0.1125  0.0428
34446W        W77499  23.382   9.262   0.335 -0.0638  0.4591 -0.2563
34447W        W77500   1.952   8.704  14.857  0.0588 -0.0607 -0.0303
34448W        W77501   6.316  22.875  19.067 -0.2013  0.0785  0.0334
34449W        W77502   0.550  18.494  28.946 -0.3444  0.0667  0.1831
34450W        W77503  10.163  15.906  27.314  0.3582 -0.2070  0.0655
34451W        W77504   0.335  10.618  28.306 -0.1168  0.0611  0.1478
34452W        W77505  15.929  23.794   6.488  0.1082  0.0030  0.0209
34453W        W77506  25.065   6.317   0.455  0.0362  0.0970  0.2043
34454W        W77507  29.506  16.264  24.026  0.1481  0.0080 -0.1282
34455W        W77508  26.473   8.478  17.048  0.0025 -0.0070  0.0363
34456W        W77509  24.677   6.564  14.611 -0.3926 -0.0187 -0.1563
34457W        W77510  26.816  14.682  25.068 -0.1296 -0.0824 -0.1811
34458W        W77511  12.258  16.436  15.709 -0.1607 -0.2024 -0.0657
34459W        W77512  15.312   2.052  25.911  0.0599  0.0497 -0.0275
34460W        W77513  16.414   5.254  23.645 -0.2788 -0.1543  0.2179
34461W        W77514   7.070  30.631   3.266 -0.0176  0.3354  0.0144
34462W        W77515  17.363   9.737   9.286 -0.3118 -0.0081  0.2634
34463W        W77516  34.049  12.648  15.082  0.1541  0.1211  0.0419
34464W        W77517  34.585  31.021  14.337  0.1645  0.1142 -0.0704
34465W        W77518   6.375  24.334  17.868  0.1417 -0.0568 -0.1357
34466W        W77519   7.824  14.553  22.600  0.1605 -0.5242 -0.3189
34467W        W77520   0.591  13.193  28.371  0.0432 -0.0706 -0.1318
34468W        W77521  27.659   9.297  22.470  0.0454 -0.1302  0.0306
34469W        W77522   5.997  16.002  27.234 -0.3607  0.1329 -0.1165
34470W        W77523   1.820  32.469  13.929 -0.0622 -0.0218  0.0966
34471W        W77524  30.995  31.041  28.941  0.4288  0.1735 -0.0535
34472W        W77525  12.395   8.545   2.299 -0.0581  0.0365  0.0339
34473W        W77526  29.778  25.008  15.485 -0.2922 -0.0568  0.2055
34474W        W77527  30.630  26.352  16.335 -0.1290  0.1966 -0.1416
34475W        W77528  27.774  12.425  20.028 -0.2637  0.0823 -0.1016
34476W        W77529   3.818  29.671   5.992  0.0393  0.0235  0.1089
34477W        W77530  29.990  12.496  23.398  0.1959  0.0548  0.1741
34478W        W77531  34.548  16.551   1.452  0.2665 -0.1716  0.1223
34479W        W77532  31.336  16.677  24.601  0.1938 -0.0681 -0.0213
34480W        W77533  31.981  20.097  26.559 -0.1086  0.2768 -0.2592
34481W        W77534   1.480  33.264  16.533  0.2998 -0.1575 -0.2536
34482W        W77535   3.014  30.964  21.858  0.1363 -0.2678  0.1310
34483W        W77536  32.363  22.580  21.735  0.2429  0.2443 -0.4994
34484W        W77537  18.308  13.753  28.358  0.1694  0.0319 -0.0031
34485W        W77538  24.797   1.073  20.079 -0.0529 -0.0634 -0.2352
34486W        W77539  27.609  12.946   6.205  0.2001  0.0093 -0.4330
34487W        W77540  26.715   6.148  19.559 -0.0110  0.3045 -0.2145
34488W        W77541  25.301  19.938  19.416  0.0965 -0.0578 -0.0751
34489W        W77542   2.931   8.372  27.049  0.3432 -0.0712  0.1806
34490W        W77543  19.021  12.868  17.630  0.0072 -0.0875  0.1063
34491W        W77544  31.181  10.567   3.018 -0.0851  0.0007  0.1617
34492W        W77545   7.527  27.404   3.158 -0.0068 -0.1571 -0.1403
34493W        W77546   4.707  15.193  25.632  0.2779 -0.1586 -0.1310
34494W        W77547  31.941   2.541   0.801 -0.0451  0.0861 -0.0416
34495W        W77548  26.579  17.138   5.019  0.0244  0.7632  0.1557
34496W        W77549  32.791   7.129  17.816  0.0880  0.2172 -0.2642
34497W        W77550   0.390  29.235  27.915 -0.3092  0.1854 -0.0577
34498W        W77551  14.107   7.169  25.028  0.0142  0.1165 -0.2528
34499W        W77552  32.261  18.176  10.039  0.0872  0.0430 -0.0929
34500W        W77553   2.741   9.357  16.187 -0.0623  0.1759  0.1749
34501W        W77554  28.961  16.451   2.044  0.2766  0.1782 -0.0188
34502W        W77555  11.684  32.782  17.210 -0.4542  0.0222 -0.1040
34503W        W77556  30.059   5.093   3.946  0.1233  0.1331  0.0647
34504W        W77557  32.819  13.885  24.409 -0.0063  0.2331 -0.0641
34505W        W77558  24.499  21.473   2.152 -0.2990 -0.2863  0.0170
34506W        W77559   1.326  25.685   2.379  0.0526  0.1963  0.0529
34507W        W77560   5.925  12.691  18.736 -0.1411 -0.2529 -0.0620
34508W        W77561  29.721   3.171  23.258 -0.0060  0.1357 -0.2289
34509W        W77562  13.746  25.648  14.668 -0.2323 -0.2440 -0.0370
34510W        W77563   5.949   8.321   3.520 -0.0398 -0.1836  0.2054
34511W        W77564  22.375  13.895  18.885 -0.4517  0.1674  0.2077
34512W        W77565  30.984   2.209   1.775 -0.2127  0.2028 -0.0461
34513W        W77566  27.691   9.784  14.944  0.4233 -0.1711 -0.1522
34514W        W77567  29.869  11.172  19.478  0.2373 -0.0390  0.4256
34515W        W77568  30.698  23.562  16.812 -0.0642  0.1340 -0.0334
34516W        W77569  21.445   4.096   5.951 -0.0850 -0.1287  0.0115
34517W        W77570   0.673  30.291   7.840 -0.1540 -0.3178 -0.2125
34518W        W77571  33.866  34.164  18.912 -0.0027 -0.1679 -0.0900
34519W        W77572  24.021  17.944  22.482 -0.0689  0.0569 -0.1147
34520W        W77573  15.490  21.231   0.612 -0.0824 -0.2865  0.0017
34521W        W77574  18.322  30.925  23.123 -0.0748  0.0521  0.1288
34522W        W77575  17.232  17.202  25.289 -0.1425 -0.2378 -0.1606
34523W        W77576  31.427  19.619  28.151 -0.0570 -0.1212  0.0195
34524W        W77577  32.139  21.845   0.237  0.4012 -0.1955  0.0331
34525W        W77578  23.240  31.643  21.735 -0.1459 -0.1292 -0.1612
34526W        W77579  27.968   2.716  28.369  0.2457 -0.2978 -0.0242
34527W        W77580  30.970  12.983  19.884  0.1026  0.0709 -0.0398
34528W        W77581   7.180   7.060   9.116 -0.2001 -0.0596  0.2238
34529W        W77582  34.679  32.960  25.595  0.0013  0.1562  0.2565
34530W        W77583   8.769   1.215  14.729  0.0950 -0.1214  0.0405
34531W        W77584  12.001  26.869   1.169 -0.0297 -0.0581 -0.0191
34532W        W77585  34.154  15.907  20.810  0.1135  0.0478 -0.2010
34533W        W77586  30.708  12.088  25.777 -0.0320  0.0324  0.2978
34534W        W77587  25.056  27.193  26.761  0.1288  0.4290 -0.0700
34535W        W77588  28.320  14.876   5.068 -0.2597 -0.1079 -0.1019
34536W        W77589  31.047  20.931   3.732  0.0250 -0.1232 -0.2721
34537W        W77590  30.606  19.577  19.670  0.1431 -0.0048  0.1308
34538W        W77591  15.178  12.030  14.312 -0.0317  0.0193  0.3775
34539W        W77592  19.436   0.286  26.447 -0.1104 -0.1041  0.1092
34540W        W77593  12.650  16.607   1.050 -0.1333 -0.1151 -0.0003
34541W        W77594  30.128   0.423  22.155  0.1499 -0.4698 -0.1748
34542W        W77595  31.888  30.655  19.068  0.0657 -0.2952  0.0980
34543W        W77596  34.193   1.681   3.066  0.2969  0.0216  0.2629
34544W        W77597  29.957   0.689  20.184  0.1630 -0.3414  0.2367
34545W        W77598  34.328   4.946   4.079  0.0196  0.2661 -0.0008
34546W        W77599  14.559  28.329   1.661  0.1032  0.0401  0.2313
34547W        W77600  22.403  23.535  19.979 -0.0034 -0.2060 -0.0023
34548W        W77601  25.141  15.278  28.500  0.0197  0.1573  0.1435
34549W        W77602  21.614   8.421  23.930 -0.2455 -0.0569 -0.0450
34550W        W77603  28.301  16.565  20.170  0.1790  0.2568 -0.1089
34551W        W77604  30.230   5.627  20.228 -0.2122  0.0082  0.2479
34552W        W77605  18.471  33.202  18.589  0.3126  0.0117 -0.1215
34553W        W77606  18.001  34.497   0.524 -0.1755 -0.1009  0.0209
34554W        W77607  15.793   0.493  16.489  0.1525 -0.2937  0.2173
34555W        W77608   5.914   2.451  19.792 -0.1058  0.3145 -0.0589
34556W        W77609  29.712  34.603  18.487  0.2013  0.0136  0.2419
34557W        W77610   7.998   4.577  15.633  0.1471  0.0173  0.1049
34558W        W77611  25.748  10.146   4.673 -0.1873 -0.1885  0.1789
34559W        W77612  27.036  14.571  14.561  0.0113 -0.0501 -0.2703
34560W        W77613  11.682  16.818   4.842  0.0117 -0.1778 -0.0581
34561W        W77614  19.730   0.769   1.124 -0.2347 -0.3129  0.1407
34562W        W77615  30.120   3.599  24.324 -0.0674  0.1622 -0.3482
34563W        W77616   2.290   1.401   2.274 -0.2060  0.0076  0.0243
34564W        W77617  19.756  12.380  15.768  0.2123 -0.1675 -0.2573
34565W        W77618  18.833   0.231  25.049 -0.2247  0.1687 -0.2336
34566W        W77619   2.246   4.880  22.823  0.0959 -0.0507 -0.2192
34567W        W77620   2.205  17.388   3.079 -0.1057 -0.1471  0.2348
34568W        W77621  24.281   2.003   2.491  0.1722  0.1898 -0.2132
34569W        W77622   3.986  22.348   5.347 -0.2517 -0.0012 -0.0575
34570W        W77623   2.236   5.882   7.166  0.1868  0.0972  0.2180
34571W        W77624   4.370   6.676  17.278  0.2418 -0.0470  0.2605
34572W        W77625  10.834  10.332   1.872  0.0696 -0.0929 -0.1537
34573W        W77626   9.363   5.582  20.327 -0.2145 -0.1247  0.1370
34574W        W77627  33.579  18.456   0.816  0.1224  0.2276 -0.1516
34575W        W77628  31.206  16.033   2.338 -0.1239 -0.5184  0.2057
34576W        W77629  21.050   4.583  16.288 -0.4221  0.0235  0.1196
34577W        W77630   9.052   3.745  20.215  0.0461 -0.1561 -0.1401
34578W        W77631  19.532   9.081  27.526  0.6983  0.1110 -0.1922
34579W        W77632  24.742   1.891  22.386 -0.2271 -0.1308 -0.1563
34580W        W77633  28.833  23.170  21.738  0.3119 -0.3437  0.0674
34581W        W77634  29.853   9.998  21.432  0.2906 -0.0038 -0.0126
34582W        W77635   6.393  16.123   6.535 -0.2397  0.0521  0.2412
34583W        W77636   2.923  11.933  28.609 -0.1130 -0.1882  0.1193
34584W        W77637  33.514  10.551  20.213  0.0025  0.0958 -0.0037
34585W        W77638   8.619  18.276  15.708 -0.1763  0.0464  0.0097
34586W        W77639  17.172   1.895  21.185 -0.0558 -0.0901 -0.0792
34587W        W77640  20.194  21.298  22.959  0.0165 -0.0489  0.0366
34588W        W77641  18.072  12.474  26.540 -0.0291  0.0142  0.2667
34589W        W77642  27.670   0.915  22.250 -0.4107 -0.0458  0.0316
34590W        W77643   4.090  29.053  17.432  0.0151  0.2318 -0.0604
34591W        W77644  29.729   0.894  17.648  0.1144  0.3548  0.1904
34592W        W77645  18.365  25.318   5.873  0.0437  0.0178 -0.1923
34593W        W77646  33.294   2.092  23.872  0.0522 -0.0485  0.0274
34594W        W77647  23.842  27.440   1.109 -0.0786  0.1642 -0.0377
34595W        W77648  30.604  27.658  16.514  0.1705 -0.1666  0.3805
34596W        W77649   1.856   5.200   2.443  0.0492  0.5850  0.0482
34597W        W77650  33.332  13.564  18.666  0.3004 -0.1914 -0.1797
34598W        W77651  29.764  17.372  23.471  0.0510 -0.0276 -0.3000
34599W        W77652  33.782  31.535  24.915 -0.0175 -0.3877  0.1187
34600W        W77653  28.422  17.993  18.141  0.1836 -0.0134 -0.0206
34601W        W77654  21.503  14.979  22.436  0.2892  0.1005 -0.4934
34602W        W77655  27.971   3.234  20.729 -0.1022 -0.1781 -0.0630
34603W        W77656  11.287  28.024  14.127 -0.1790  0.1314  0.2142
34604W        W77657  33.269   9.096  16.418  0.0093 -0.1548  0.0934
34605W        W77658   0.930  32.921   8.742 -0.1269  0.2956 -0.0951
34606W        W77659   1.702   9.062  24.052 -0.2027 -0.1957 -0.2198
34607W        W77660  19.914  13.853  27.547 -0.1662 -0.1165 -0.1558
34608W        W77661  33.306   6.448   9.242 -0.3667 -0.2414 -0.0538
34609W        W77662  29.795   7.254  27.863 -0.2327  0.0585  0.3079
34610W        W77663   8.182  23.749   0.847  0.0144 -0.1129  0.0087
34611W        W77664  33.895  11.657  28.950  0.0523  0.1846 -0.2033
34612W        W77665   7.077  26.259  21.577 -0.0007  0.1043 -0.0046
34613W        W77666   4.478   9.314  22.129  0.0684  0.2777 -0.1815
34614W        W77667  30.580   2.801  15.439 -0.1720 -0.2238 -0.2066
34615W        W77668  32.845  17.325  22.815  0.2884 -0.2551 -0.1667
34616W        W77669  27.371  16.001  21.723 -0.0734 -0.0058 -0.2300
34617W        W77670   5.114   8.241  17.395  0.2710  0.3266 -0.5161
34618W        W77671   4.812  27.523  23.515  0.0015 -0.0692 -0.1696
34619W        W77672   6.195   3.778  28.934  0.1778  0.0249  0.0327
34620W        W77673   7.090  10.244  24.245 -0.0613 -0.0925 -0.0476
34621W        W77674  33.662   2.021  23.333  0.0622  0.2549  0.0339
34622W        W77675   0.118  29.096   4.092 -0.0253 -0.0416 -0.1774
34623W        W77676   8.648  31.386   6.627 -0.0180  0.0458  0.2896
34624W        W77677  20.375  12.807   4.264  0.0013 -0.0919 -0.2811
34625W        W77678  30.795  13.979   1.190  0.3363  0.2560 -0.3419
34626W        W77679  31.880  23.671  26.553 -0.1359 -0.1533 -0.1026
34627W        W77680  30.137  12.144   1.864  0.0029 -0.0676 -0.0406
34628W        W77681  29.175  30.141   3.240 -0.1942  0.1167  0.0113
34629W        W77682  16.159  10.928  14.252 -0.2474 -0.1553 -0.2017
34630W        W77683  22.229  11.548  10.424 -0.1570  0.0037 -0.1778
34631W        W77684  29.805  31.461  22.639 -0.0534  0.3335 -0.1474
34632W        W77685   5.603   6.077   5.183  0.1670 -0.2784 -0.3638
34633W        W77686  14.001   0.244  26.710  0.0244  0.2030  0.0635
34634W        W77687   8.169  31.041  21.699 -0.1189 -0.0697  0.2355
34635W        W77688  21.404  33.302  19.236  0.0907  0.1174 -0.0987
34636W        W77689   4.441  11.726   5.741  0.1908  0.2895  0.1701
34637W        W77690  28.278  20.088  19.406  0.3060  0.0648 -0.1621
34638W        W77691  21.912   7.704  23.930 -0.0883  0.1543  0.0626
34639W        W77692   0.007  12.753  21.823 -0.1590  0.3535  0.1144
34640W        W77693   8.652  17.374  24.211 -0.0675 -0.0881 -0.1591
34641W        W77694  16.317  10.982  20.575  0.0315  0.4561  0.0720
34642W        W77695  11.487  26.575  22.848  0.1902  0.1662  0.0781
34643W        W77696  31.502  32.138  21.995  0.0776  0.0889  0.2741
34644W        W77697  11.159  16.580   3.948 -0.4959  0.0146  0.1786
34645W        W77698  26.000  18.067  27.582  0.2922 -0.1983  0.0977
34646W        W77699  34.385  33.542  24.562  0.2100 -0.3128 -0.0606
34647W        W77700  28.266  15.574   1.325 -0.0456 -0.0343 -0.1368
34648W        W77701  34.665  18.363  15.828  0.2023  0.0824 -0.0368
34649W        W77702  20.629  19.667   6.715 -0.0959 -0.3352 -0.1417
34650W        W77703  34.154  17.435  14.958  0.0204 -0.1170  0.0654
34651W        W77704  22.563   8.656  27.586 -0.0251 -0.2944 -0.2070
34652W        W77705   7.222  24.260  14.265  0.0387  0.0203  0.0614
34653W        W77706  32.065  15.024  28.217 -0.4620 -0.0692  0.1595
34654W        W77707  32.016   0.317   0.517 -0.2236  0.1204  0.0198
34655W        W77708  33.868  20.016  14.350  0.6294 -0.1521  0.3514
34656W        W77709  27.422  27.152   5.247  0.3265  0.0326  0.2009
34657W        W77710  25.904   5.588  20.555  0.0792  0.2657  0.0593
34658W        W77711   3.406  17.021   0.416  0.0463  0.2056 -0.0126
34659W        W77712  21.849   9.462  23.842 -0.0181  0.1175  0.5880
34660W        W77713   3.432  30.652  13.927  0.0589  0.4108  0.1236
34661W        W77714   2.532  28.106   8.489 -0.2325 -0.3216  0.2770
34662W        W77715  34.405  31.978   1.547  0.1339  0.3873  0.1049
34663W        W77716  11.455  12.979   3.205  0.0498  0.1399 -0.0612
34664W        W77717  29.586  18.481  26.033  0.0296 -0.0267  0.2538
34665W        W77718  26.471  19.681  26.651  0.5345  0.0437 -0.0391
34666W        W77719   4.475   2.510  29.026  0.0931 -0.1421  0.1124
34667W        W77720  20.547   3.855  22.165 -0.0735 -0.2100 -0.1686
34668W        W77721  23.655  18.738  27.845  0.3592  0.0491  0.1801
34669W        W77722  23.086   8.441  23.623  0.1526 -0.0016  0.0188
34670W        W77723   4.567   9.069  17.202 -0.1175 -0.1223 -0.0431
34671W        W77724  18.709   8.100  24.184  0.2137  0.1193 -0.1258
34672W        W77725  33.104   2.425  21.716 -0.1967  0.0717  0.0470
34673W        W77726   3.290  28.365  18.162 -0.0012  0.0100 -0.0506
34674W        W77727   7.475  18.742   6.357  0.0553  0.3909  0.3171
34675W        W77728  32.811  33.695   6.168 -0.1113  0.2521 -0.2579
34676W        W77729   4.670  22.669  22.806 -0.2036  0.0717 -0.0628
34677W        W77730  31.591  11.142  26.761 -0.1672  0.1934  0.2224
34678W        W77731  31.545   8.777  19.961 -0.1029  0.0220  0.2090
34679W        W77732   3.756  19.958   1.408  0.0400 -0.1507  0.0477
34680W        W77733   4.234  28.180  17.965  0.0644 -0.1313 -0.2934
34681W        W77734   6.935  15.427  19.810  0.0283  0.0308 -0.3104
34682W        W77735  31.005  19.787  21.385  0.0186  0.0302  0.1435
34683W        W77736  23.724  13.770  15.083  0.0122 -0.1041  0.0021
34684W        W77737   9.048  13.498  28.044  0.0963  0.0181  0.1582
34685W        W77738  18.402  21.025   6.886 -0.1243  0.0288 -0.2631
34686W        W77739   2.029   7.695  28.203  0.0915  0.0069  0.3190
34687W        W77740  15.207   2.796  16.056  0.1992  0.2021  0.0253
34688W        W77741  27.076  11.869  25.671 -0.1009  0.0941  0.1224
34689W        W77742  23.366   1.326  27.806 -0.0605  0.0035 -0.0526
34690W        W77743  11.204  29.083  22.271  0.2412  0.2851  0.1667
34691W        W77744  21.521  24.074  24.265 -0.4217 -0.3192  0.1937
34692W        W77745  26.923  13.878  16.964  0.0044  0.2736  0.2432
34693W        W77746  25.625   3.855  15.640  0.0450  0.0617 -0.2739
34694W        W77747  30.449  11.686  27.853  0.1661 -0.1242  0.1673
34695W        W77748  25.740  16.358  25.175  0.0427 -0.1866  0.0303
34696W        W77749  29.852   1.220  24.387  0.2210 -0.2014  0.0197
34697W        W77750  32.976   7.381  15.060 -0.1783  0.0717 -0.0789
34698W        W77751  27.906  32.510  17.657  0.3802 -0.0763 -0.1413
34699W        W77752  26.753   7.170  21.052  0.0522 -0.3138 -0.1611
34700W        W77753  25.201  14.906  19.737  0.3520 -0.2214 -0.0131
34701W        W77754  27.862   0.244  28.126 -0.0421 -0.1874  0.4732
34702W        W77755  30.631   4.788  15.163 -0.5194  0.0066 -0.2551
34703W        W77756  26.692   8.246   8.872 -0.2341  0.1529  0.0998
34704W        W77757   2.563  17.964  16.344  0.1523  0.2888  0.0984
34705W        W77758  31.150  13.786  23.171  0.0201  0.0337 -0.0431
34706W        W77759  32.140   1.813   1.907 -0.0965 -0.0226  0.2836
34707W        W77760  30.709  13.956  27.018 -0.1821 -0.1693 -0.3211
34708W        W77761  20.558   5.652  25.265 -0.1114  0.0333  0.1394
34709W        W77762  29.481   1.179  16.183 -0.1293  0.2226  0.2863
34710W        W77763  18.984  19.676  26.811 -0.0243 -0.1279  0.1191
34711W        W77764   0.936  20.011  19.911 -0.0135 -0.0075  0.0032
34712W        W77765  25.100  32.436  15.906  0.0092 -0.0879  0.0187
34713W        W77766   4.459  21.167   3.123 -0.2385  0.0811  0.0293
34714W        W77767   0.560  27.059   5.454  0.2038  0.0046  0.0175
34715W        W77768   1.016   2.589   6.676 -0.2422  0.0879 -0.0014
34716W        W77769  30.810  10.262   2.946 -0.0596  0.1253 -0.2773
34717W        W77770  28.584  19.837  25.919  0.0585  0.0264 -0.1009
34718W        W77771   1.297  16.662  16.458  0.1308  0.0704 -0.3037
34719W        W77772  29.913   7.200  28.858  0.1299  0.0825  0.0462
34720W        W77773  33.111   5.524  15.319  0.2644 -0.0550  0.3446
34721W        W77774   0.077   7.373  21.030  0.3562 -0.1258 -0.1136
34722W        W77775   1.020   4.750  28.447 -0.2932 -0.0689 -0.0165
34723W        W77776  26.961  27.189  19.692 -0.2318  0.0449  0.0927
34724W        W77777  11.652   6.250  18.338  0.1115  0.1348  0.0969
34725W        W77778  24.943   6.110  17.046  0.0312  0.0844 -0.0124
34726W        W77779  34.223   3.453  20.668 -0.0587 -0.0452 -0.0531
34727W        W77780  21.505   4.547  22.065  0.0111 -0.3244  0.2631
34728W        W77781   1.759  23.380   2.767 -0.4000  0.1222 -0.0106
34729W        W77782  30.192   4.910  17.384  0.0383 -0.3259 -0.0861
34730W        W77783  26.423   6.687   1.515 -0.4727 -0.2248  0.1331
34731W        W77784  32.729  11.548   3.732 -0.1009 -0.2350 -0.1279
34732W        W77785   9.897  18.132  14.929  0.0668 -0.1650  0.1071
34733W        W77786  20.341  11.342  17.370  0.0446 -0.1071 -0.0793
34734W        W77787  27.981   0.086   4.010  0.1521  0.0241 -0.1398
34735W        W77788  31.391  10.039   8.360  0.0093  0.0379  0.0750
34736W        W77789  23.186  25.671  22.736  0.1238  0.0766  0.3299
34737W        W77790   2.641  18.085   4.446  0.0490  0.0520 -0.0138
34738W        W77791  34.261  24.171   5.914 -0.1885 -0.0728  0.0904
34739W        W77792  34.049  11.561   8.432  0.0761 -0.1130 -0.2547
34740W        W77793   7.056  29.112  26.398 -0.1108 -0.0578  0.2584
34741W        W77794  27.472  15.795   4.078  0.1409  0.1505  0.1207
34742W        W77795  31.957  15.928  14.201 -0.0041 -0.0846  0.1911
34743W        W77796  33.483  21.633  14.527  0.0097 -0.0915  0.2760
34744W        W77797   8.113  24.440  14.078  0.2708 -0.1438 -0.1397
34745W        W77798   3.119   9.645   5.158 -0.0578 -0.2090  0.1621
34746W        W77799  20.931  18.860  17.291 -0.2051 -0.2215  0.2768
34747W        W77800  32.092  31.876   5.932  0.1331 -0.1801 -0.0672
34748W        W77801   0.038  12.068   8.065  0.1387  0.1154 -0.1756
34749W        W77802   8.146  32.798  26.767  0.1637 -0.0073  0.0108
34750W        W77803  33.491   9.484   2.182 -0.1206 -0.0897  0.2188
34751W        W77804  24.246  26.991  27.058  0.0431  0.2696 -0.0166
34752W        W77805  17.377  24.332  20.327  0.0534  0.0352  0.3691
34753W        W77806   6.072   4.570   8.461 -0.0054 -0.3257 -0.0413
34754W        W77807   4.496   7.354   5.860  0.3098 -0.2058 -0.1494
34755W        W77808   7.746  10.919   5.319 -0.0593 -0.1247 -0.1208
34756W        W77809  27.607   8.731  17.842 -0.0239 -0.0227  0.3564
34757W        W77810   9.401  12.878   6.852  0.2376  0.1887 -0.0539
34758W        W77811  28.701  22.313  22.093  0.4254  0.1904  0.0406
34759W        W77812  28.437   7.143  23.119  0.2718  0.0454 -0.0915
34760W        W77813  21.704   0.279   6.523 -0.0293 -0.1685  0.1006
34761W        W77814   4.395  10.466  18.641 -0.1845  0.1837 -0.2486
34762W        W77815   7.964  27.689  28.923  0.0696 -0.1853  0.0174
34763W        W77816  13.127   5.310   0.244 -0.2039 -0.1498  0.3028
34764W        W77817   1.304   2.224  23.667  0.0338 -0.0606  0.0097
34765W        W77818  26.282   7.942   2.954 -0.0009 -0.0232 -0.2692
34766W        W77819  18.143  10.893  14.601 -0.1312 -0.2032  0.0002
34767W        W77820  20.351  12.685   0.776  0.1946  0.3541 -0.2351
34768W        W77821  27.433   5.608   0.013 -0.2225 -0.0744 -0.0629
34769W        W77822   3.799  21.307  26.318  0.0742  0.2415 -0.1814
34770W        W77823  20.706  14.394   3.756  0.1341  0.0037 -0.1156
34771W        W77824  32.787  12.203  20.906 -0.0228 -0.1058  0.2349
34772W        W77825   4.166   4.381   9.667 -0.0257  0.1201 -0.0934
34773W        W77826   1.012  23.115  28.860 -0.2954  0.0656  0.0699
34774W        W77827   1.509  11.858  13.884 -0.2299  0.1796  0.0660
34775W        W77828   7.006  18.937  27.171 -0.0088 -0.4174 -0.0043
34776W        W77829  24.173   4.232   5.509  0.2943  0.3273  0.2798
34777W        W77830  16.914   4.228  22.807  0.0342  0.1184 -0.0571
34778W        W77831   7.454   4.878   2.269  0.1487  0.1026 -0.3506
34779W        W77832   1.299  11.714  17.418 -0.1318  0.2653 -0.0155
34780W        W77833  11.422  26.338  18.091  0.1496 -0.1081 -0.2385
34781W        W77834  20.777  19.058   3.140 -0.1983  0.0598 -0.3788
34782W        W77835  32.383   3.073  10.099 -0.0033 -0.2405  0.2682
34783W        W77836  30.368   8.567  26.524  0.1438 -0.1624  0.5086
34784W        W77837   0.107   7.918  19.097  0.2465  0.0338  0.1953
34785W        W77838  33.385   6.154   1.590 -0.0937  0.3439  0.3435
34786W        W77839   2.212  27.174   6.089 -0.1279 -0.0680 -0.0579
34787W        W77840  30.097  30.917   8.488 -0.2405  0.1729  0.3570
34788W        W77841  33.028  33.848   0.779  0.0237  0.2145 -0.1026
34789W        W77842  34.231  15.844  21.888  0.0538  0.0447  0.1415
34790W        W77843   0.525  21.143  16.163 -0.3576 -0.1966  0.0417
34791W        W77844   2.916   2.717   2.441 -0.2723  0.3571 -0.3504
34792W        W77845  32.812   6.120   8.208 -0.0120  0.1085 -0.1865
34793W        W77846  16.248  15.426   2.978 -0.1766  0.0327 -0.2168
34794W        W77847  14.809  33.220  19.375 -0.0460  0.2464 -0.1027
34795W        W77848  31.410  14.145  19.291 -0.2699 -0.2662 -0.5049
34796W        W77849  27.511  17.799   7.060 -0.2534 -0.2386  0.0756
34797W        W77850  12.831   1.213   4.161 -0.1142  0.0374 -0.1308
34798W        W77851  24.099  20.013  27.712 -0.1931 -0.3263  0.2364
34799W        W77852   1.523  19.187  19.233 -0.0403 -0.1504  0.0998
34800W        W77853  22.530  14.569  13.088 -0.1584 -0.0620 -0.4336
34801W        W77854  29.183  22.482  25.057  0.0328  0.0034 -0.3416
34802W        W77855  17.890   2.509  20.199  0.0969 -0.2290  0.1159
34803W        W77856   3.353  19.181   4.622 -0.5242  0.0655  0.0026
34804W        W77857  24.295  11.490   1.079 -0.0933  0.1103 -0.0370
34805W        W77858  20.337  17.294  27.911 -0.0439 -0.1726  0.1226
34806W        W77859  24.959  17.568  24.177 -0.0803 -0.2314 -0.1479
34807W        W77860  31.332  20.698  25.039 -0.0667 -0.2841 -0.0967
34808W        W77861  29.890   7.694   5.389  0.3278  0.1341 -0.0547
34809W        W77862  30.153  15.104   1.857 -0.0105 -0.0487 -0.3236
34810W        W77863  34.295  32.608  17.846  0.3685 -0.0478 -0.0073
34811W        W77864  32.710  34.283  15.979  0.1804  0.2279  0.1824
34812W        W77865  30.953  14.056   0.338 -0.2195 -0.0613 -0.2485
34813W        W77866   4.426  30.489   4.961  0.5538 -0.0657 -0.1174
34814W        W77867  19.630   8.937   9.524  0.1987 -0.3173 -0.0031
34815W        W77868  19.329   9.363  18.254  0.3198  0.1101 -0.0892
34816W        W77869  29.417   6.021   2.646  0.1405  0.0653  0.2454
34817W        W77870   0.599   2.948  26.062  0.0587 -0.0900  0.1325
34818W        W77871   1.677  11.459  25.945  0.0087 -0.1630  0.1818
34819W        W77872  24.817  12.396   3.875 -0.1451  0.0711 -0.0950
34820W        W77873  30.937   8.695   7.082 -0.0623 -0.1819 -0.1045
34821W        W77874  17.674  15.849  13.553  0.0166 -0.0843  0.1327
34822W        W77875  17.913   3.171   5.936  0.3275 -0.1282 -0.3515
34823W        W77876   7.884  32.987   2.738  0.0653 -0.1344 -0.0882
34824W        W77877  25.215  10.210   0.942  0.1190  0.0501 -0.0317
34825W        W77878  14.234  24.779  26.486 -0.2304 -0.0569  0.3518
34826W        W77879  22.539   6.347  17.448 -0.3423 -0.0670  0.0106
34827W        W77880   6.421   5.468   7.858  0.1808  0.1789 -0.1272
34828W        W77881  16.970   8.692  10.047 -0.3591  0.0638  0.4526
34829W        W77882  26.952  31.368   4.154 -0.1331  0.2427 -0.0156
34830W        W77883   4.747   5.766   1.142  0.2067  0.2067  0.2583
34831W        W77884   1.881  14.766  26.673 -0.0466 -0.0677 -0.0852
34832W        W77885  33.191  26.290   7.865  0.1031  0.5024  0.0501
34833W        W77886   7.437  17.269  18.509 -0.1338 -0.0478 -0.2469
34834W        W77887   1.647   3.837   9.620  0.0076  0.0056 -0.0456
34835W        W77888  29.272  25.116  15.445 -0.1459 -0.2441 -0.3030
34836W        W77889  32.494  31.787  18.199 -0.0502 -0.2447 -0.5079
34837W        W77890   3.241  22.987   1.809  0.1856 -0.1871 -0.3401
34838W        W77891  23.409  17.483   6.995  0.1825  0.0316  0.1546
34839W        W77892  23.601  11.202  20.929  0.0784  0.0219  0.2479
34840W        W77893  22.366  11.571  21.807  0.2599 -0.0521  0.0690
34841W        W77894  31.176  27.023  16.591 -0.0915  0.2899  0.0521
34842W        W77895   7.420  12.093  16.436  0.1431  0.1456  0.0950
34843W        W77896  30.291  30.799   1.716 -0.0693 -0.1388 -0.0250
34844W        W77897   0.614  10.394   9.668 -0.1797  0.2373 -0.2611
34845W        W77898  22.879   9.816  25.358 -0.1397  0.0623 -0.1179
34846W        W77899   6.655   4.443  24.226 -0.1485  0.1204  0.0885
34847W        W77900   1.976   1.063   2.439 -0.1757  0.1468  0.0876
34848W        W77901   3.147  12.586  25.699  0.1469  0.1593 -0.0225
34849W        W77902  30.795  15.842   1.315 -0.0302 -0.1017  0.0809
34850W        W77903  20.465   2.316  24.472  0.0190 -0.1204 -0.2717
34851W        W77904   0.270   8.979  23.992  0.0632  0.1350 -0.2659
34852W        W77905  24.362  16.588   4.019 -0.0212  0.0527  0.0128
34853W        W77906  27.848  31.573   2.132  0.0408 -0.0322  0.1234
34854W        W77907  33.233   8.980  20.768 -0.0238 -0.1239 -0.0810
34855W        W77908  34.524  17.937  19.310  0.1063  0.1484 -0.0754
34856W        W77909  23.441   9.375  16.050  0.0852 -0.0077 -0.1236
34857W        W77910  27.609  19.522  19.276 -0.0710 -0.1235  0.0666
34858W        W77911  24.631  28.966   5.322  0.3725 -0.1275 -0.2814
34859W        W77912  22.847  21.645   7.264  0.0077  0.2919 -0.0485
34860W        W77913  32.092  28.202   2.931  0.2168 -0.0254 -0.2896
34861W        W77914   7.268  15.166  28.222  0.1169 -0.0624  0.1152
34862W        W77915  14.563   5.795  18.875 -0.1281  0.4247 -0.1633
34863W        W77916   3.828   6.845   0.894  0.1357 -0.2157  0.2870
34864W        W77917   2.892  31.792   0.720 -0.2396 -0.0438 -0.0806
34865W        W77918  12.626   6.530   7.028  0.1376 -0.0390  0.0458
34866W        W77919  23.653   2.242  26.017 -0.0712  0.1610 -0.0525
34867W        W77920  31.195  23.843   2.654  0.0614  0.2083  0.0371
34868W        W77921  29.133  13.023   2.014 -0.2205 -0.1603 -0.1216
34869W        W77922  31.544   9.023   2.335  0.1020 -0.4012 -0.2198
34870W        W77923  27.120   1.800   9.294  0.0865  0.2848  0.0448
34871W        W77924   4.293   5.270   4.342  0.0360  0.2861  0.0629
34872W        W77925  18.729   7.724   3.461  0.0089 -0.2575 -0.0947
34873W        W77926  34.336  24.626   4.350 -0.0064  0.1149  0.1987
34874W        W77927  21.779  20.741   5.129  0.2391 -0.1739  0.1081
34875W        W77928  22.248   7.682  25.997  0.0354  0.1956  0.1899
34876W        W77929  32.319  30.320  15.485 -0.0165 -0.0074  0.0373
34877W        W77930   0.648  32.990  21.847  0.2137  0.0306  0.1506
34878W        W77931   4.268  22.314  18.409 -0.0512 -0.2143 -0.0357
34879W        W77932  19.105  23.250  27.305 -0.2147  0.0952  0.0631
34880W        W77933  34.042   6.007   1.275  0.3117  0.0984  0.2128
34881W        W77934  31.752   4.892  16.746  0.2658 -0.2118  0.1300
34882W        W77935   1.942  14.824  27.848 -0.1668 -0.1137 -0.2485
34883W        W77936  31.978  31.297  23.073  0.0378 -0.2742 -0.2234
34884W        W77937   1.773   3.742   2.795  0.2288  0.1794 -0.1599
34885W        W77938   1.771  15.300  18.999  0.0710 -0.3055  0.2349
34886W        W77939  24.321   6.206  23.086 -0.0967  0.1064 -0.0147
34887W        W77940  28.324  28.430   1.946  0.2554  0.0063 -0.0169
34888W        W77941  24.844  11.259  18.421 -0.2017  0.2502  0.1209
34889W        W77942  13.175  12.770   8.855  0.1652  0.0019  0.1722
34890W        W77943   8.854   2.059  26.540  0.0034 -0.0370 -0.2301
34891W        W77944  19.032  17.733  25.272  0.1777 -0.0175 -0.0788
34892W        W77945   2.298  18.834   6.996  0.0935 -0.0200  0.0485
34893W        W77946  18.291  13.029   5.400  0.0706 -0.1747  0.4166
34894W        W77947  21.496  25.192  28.989 -0.1619  0.0227 -0.0953
34895W        W77948  26.045   6.774  13.970  0.1454  0.1028  0.3752
34896W        W77949   7.638  24.534  19.090  0.2094 -0.1061 -0.0769
34897W        W77950  15.719   5.838  10.219  0.1296  0.3229  0.1776
34898W        W77951  31.197   8.017   3.757 -0.2244  0.4976 -0.0285
34899W        W77952  34.412   8.968  23.968 -0.1988  0.2920  0.1991
34900W        W77953  29.095  11.290  15.710 -0.1587  0.2880  0.1025
34901W        W77954   6.672   6.349   3.320 -0.1586 -0.0920  0.0118
34902W        W77955  10.369   4.508   6.997  0.4337  0.1480  0.1869
34903W        W77956  21.086  17.707  23.440  0.0189 -0.0599 -0.1192
34904W        W77957   9.379   4.503   6.210  0.1405  0.2215  0.2404
34905W        W77958  33.222   9.829  23.917 -0.0592 -0.2094  0.2000
34906W        W77959  32.423  17.196  16.779 -0.1960  0.1383 -0.3716
34907W        W77960   9.451   2.102   9.296 -0.0732  0.1759  0.0269
34908W        W77961  27.385   2.369   4.392  0.1546 -0.1308 -0.0340
34909W        W77962  17.502  33.877  18.422 -0.1171  0.2649 -0.1261
34910W        W77963  24.939  22.835  13.986 -0.0723 -0.1221 -0.1624
34911W        W77964  24.573  15.881  24.355 -0.0717  0.0438  0.0358
34912W        W77965  31.713  29.403  22.463 -0.1280 -0.5144  0.4036
34913W        W77966  26.570   6.377  18.798 -0.0665  0.1281 -0.0973
34914W        W77967   7.753  14.875   7.155  0.1077  0.2726 -0.1375
34915W        W77968  24.548  16.108  22.764 -0.0005  0.2831 -0.0265
34916W        W77969  26.499  23.838   7.255 -0.1755  0.1499 -0.2091
34917W        W77970  28.161  14.763  27.845  0.0468  0.1784 -0.0910
34918W        W77971   9.062  22.963   1.864  0.1172 -0.1394  0.1879
34919W        W77972  18.955   5.553  15.753 -0.3661 -0.1387 -0.1322
34920W        W77973  20.666  16.730  13.749 -0.1250  0.0312  0.3638
34921W        W77974  17.340   9.891  23.634 -0.2324  0.0323 -0.0282
34922W        W77975   5.080  21.515  27.185  0.2267  0.1391 -0.1041
34923W        W77976  17.832  33.885  24.518  0.0038  0.3136  0.0273
34924W        W77977   9.040   7.720  15.752 -0.1016  0.0783 -0.0926
34925W        W77978  13.431  16.659  26.124  0.0064 -0.1386  0.3271
34926W        W77979   6.826   3.437  24.255 -0.2846  0.1651 -0.1731
34927W        W77980  28.106  19.925   6.479 -0.1184  0.0957  0.0238
34928W        W77981  33.197  11.325  15.763  0.3764  0.1703 -0.3202
34929W        W77982  10.400  23.710   1.276 -0.2050  0.1182  0.4658
34930W        W77983  21.814   0.474   7.871  0.1492  0.1537 -0.1342
34931W        W77984  20.787   6.480  15.539  0.1344  0.4583  0.0720
34932W        W77985  31.740  16.513   4.111 -0.0109 -0.0635 -0.0362
34933W        W77986  24.820   7.811  18.025  0.0186  0.0137 -0.1431
34934W        W77987  16.033  16.078  22.386 -0.0586 -0.1294 -0.1248
34935W        W77988   6.324  15.548  22.969  0.0903 -0.1283  0.3711
34936W        W77989   3.968  21.701  28.346 -0.0021 -0.1165 -0.5010
34937W        W77990  19.033  19.104   7.133 -0.1521 -0.1859  0.4024
34938W        W77991  29.466   2.139   5.334 -0.0605 -0.0534 -0.0089
34939W        W77992   8.916  10.625   1.115  0.1548  0.3524 -0.0367
34940W        W77993  23.368  11.329   0.624 -0.1601 -0.0436 -0.0113
34941W        W77994  27.748   5.700   8.712 -0.1951  0.0781 -0.0869
34942W        W77995  28.715  21.818   6.137  0.1659 -0.0061 -0.0755
34943W        W77996  27.261   2.112  14.865  0.2916  0.0368 -0.1596
34944W        W77997   5.975  34.575  19.356  0.2117  0.1320  0.0402
34945W        W77998  31.437   4.954  18.602  0.1280 -0.0873  0.1296
34946W        W77999   0.047  24.422  28.259  0.0852 -0.1976 -0.0070
34947W        W78000  21.394  16.489  20.830  0.0819  0.2773 -0.3428
34948W        W78001  29.238  15.999   6.217  0.0999 -0.1558  0.0350
34949W        W78002  22.848  16.429   0.364 -0.3058  0.3535  0.0884
34950W        W78003  33.227   7.021   9.192  0.1806  0.3439 -0.1467
34951W        W78004  26.628   6.849   4.583  0.0163  0.1331 -0.1113
34952W        W78005  13.041  31.184  25.829  0.0973  0.1929 -0.1174
34953W        W78006  29.872   4.894   7.900 -0.2276  0.1704  0.0235
34954W        W78007   2.200  15.889  21.412 -0.4134  0.1685 -0.1082
34955W        W78008  30.414  19.357  23.581  0.0613 -0.4464 -0.3074
34956W        W78009  22.043  14.471  22.608 -0.0143  0.1745  0.2707
34957W        W78010   2.749  30.290  28.087 -0.1852 -0.0226 -0.5002
34958W        W78011   1.354  10.082   6.891 -0.0678 -0.0826  0.1712
34959W        W78012  21.486  14.321  20.744 -0.1659 -0.1514  0.1779
34960W        W78013  28.407   8.405  25.122 -0.0307  0.1802 -0.2539
34961W        W78014  23.202  31.117  25.891  0.0621 -0.0297 -0.0157
34962W        W78015   1.066  20.478   6.208 -0.3848 -0.1248  0.0270
34963W        W78016  30.194  13.318  23.120 -0.0981  0.1001  0.0140
34964W        W78017  16.374  20.697  15.307  0.0762  0.0731 -0.1210
34965W        W78018  10.200  11.538   8.268 -0.1743 -0.0829  0.1083
34966W        W78019  32.239  27.625  14.414  0.3093 -0.1992  0.0076
34967W        W78020   7.056   6.903  17.588 -0.1202  0.0224  0.4252
34968W        W78021   6.101  22.765   5.442  0.3012 -0.1203  0.2125
34969W        W78022  27.188  33.394  25.031  0.0277  0.2350 -0.0298
34970W        W78023   6.946  10.390  18.926  0.1353  0.0147  0.2991
34971W        W78024   0.811  32.713   6.060  0.1751 -0.4305  0.0360
34972W        W78025   2.223   9.547   5.068  0.0174  0.0920 -0.1223
34973W        W78026  20.311  13.639  21.643 -0.1774 -0.2918 -0.1294
34974W        W78027  16.914   5.483  27.279 -0.3694 -0.0742  0.1814
34975W        W78028   5.637   8.194  17.151  0.0840  0.1186 -0.1910
34976W        W78029  27.564   1.453  27.093 -0.1870 -0.0912 -0.0477
34977W        W78030  30.139   6.608  19.891 -0.0029 -0.0076  0.0826
34978W        W78031  13.326  14.086  19.070 -0.1383 -0.0213  0.1200
34979W        W78032  24.904   3.243   8.896  0.2283 -0.1509  0.3646
34980W        W78033  34.327   6.578  27.201  0.0350 -0.2259  0.1397
34981W        W78034   2.319   5.867   4.619 -0.0086  0.2089  0.1879
34982W        W78035   0.467  33.582   2.245 -0.1215 -0.0653  0.2045
34983W        W78036  24.777  10.755   6.549  0.2065  0.0233 -0.0321
34984W        W78037  22.583  24.008  15.265  0.1788 -0.3416  0.1065
34985W        W78038  22.898  15.563  26.664  0.1933  0.0674 -0.1896
34986W        W78039  32.977  21.649   4.885 -0.1287  0.3567 -0.3352
34987W        W78040  16.137   3.673   5.797 -0.2766 -0.1105 -0.1676
34988W        W78041   0.489  21.612  15.777  0.1229 -0.0979 -0.1390
34989W        W78042   9.717   7.474   8.785 -0.0868  0.0474  0.0209
34990W        W78043  22.510   8.555  25.781 -0.0215 -0.0144  0.3196
34991W        W78044   6.170  13.978  21.722 -0.2989  0.1853 -0.0273
34992W        W78045  32.108  17.458   4.367 -0.0661  0.0799  0.0962
34993W        W78046   3.741   5.106  26.444 -0.2255 -0.0447 -0.0153
34994W        W78047  28.611   9.730   4.599  0.0959 -0.0316 -0.0009
34995W        W78048  15.172  26.379   0.483 -0.1394  0.0881 -0.1847
34996W        W78049  34.302   0.655  19.546  0.1301 -0.3624 -0.4244
34997W        W78050  24.798   7.831   1.369  0.1688  0.2796 -0.1656
34998W        W78051  10.980  11.635  10.316 -0.1454  0.2391  0.1171
34999W        W78052  18.351   3.474   3.375  0.1381  0.1171 -0.0285
35000W        W78053  26.739  32.899  14.434  0.3603  0.0222  0.0937
35001W        W78054  16.647  16.197  23.033  0.0370  0.1406 -0.2397
35002W        W78055  20.146  34.163   9.246  0.0003  0.1056  0.2884
35003W        W78056   1.239  15.240  26.410 -0.0186  0.3209  0.1028
35004W        W78057   0.086  11.526  21.326 -0.0110 -0.2165 -0.4611
35005W        W78058  25.160   6.897  14.259 -0.0083 -0.0315  0.2563
35006W        W78059  33.337  31.492  24.234 -0.2280 -0.1151  0.0912
35007W        W78060  28.016   8.307   5.705 -0.0266  0.0692 -0.3392
35008W        W78061  27.447  30.135  27.521  0.0719  0.1278 -0.0204
35009W        W78062   2.727   4.077  24.640 -0.0090 -0.2592 -0.0994
35010W        W78063  19.363   9.911  28.573  0.1038 -0.5456  0.0164
35011W        W78064  31.062  17.344  13.397  0.1140  0.1251  0.0366
35012W        W78065  13.401   2.608   6.398 -0.4384 -0.1106  0.3512
35013W        W78066  30.708   4.762  21.257 -0.1265 -0.0104  0.2217
35014W        W78067  20.520  10.515  22.175 -0.0165 -0.1240  0.0070
35015W        W78068  25.474   5.453  16.475  0.0583 -0.2000  0.2255
35016W        W78069  16.940  12.894   9.796 -0.1235 -0.2264 -0.2056
35017W        W78070   8.255  16.072  21.283 -0.2149 -0.2431  0.0546
35018W        W78071   8.879  32.351  25.293  0.1245 -0.0993  0.0431
35019W        W78072  27.961  20.030  18.044 -0.1583  0.0746 -0.2373
35020W        W78073  11.789   1.170  21.977 -0.6645  0.0390  0.1363
35021W        W78074  32.048  12.874   6.396  0.1155 -0.0596 -0.1900
35022W        W78075  21.328   6.360   8.312 -0.0877 -0.1397 -0.0244
35023W        W78076  29.490   2.575   8.339  0.0035 -0.0541 -0.2062
35024W        W78077  21.668   0.228  25.767  0.0086 -0.0622  0.1527
35025W        W78078   7.605   0.111  10.175  0.0494  0.2715  0.0328
35026W        W78079  14.793  31.036   4.144 -0.1698  0.2200 -0.0749
35027W        W78080  29.208   1.068  15.631  0.2574 -0.0348  0.0028
35028W        W78081  30.095   9.105   2.694 -0.2129 -0.0452  0.0320
35029W        W78082   0.532   1.383   5.057 -0.0086  0.1050 -0.0418
35030W        W78083   5.180  25.152  22.645 -0.0029  0.3410  0.0897
35031W        W78084  33.208  11.338  27.165  0.3361  0.0663  0.0307
35032W        W78085  30.208   4.920   5.358 -0.1599 -0.0775  0.1147
35033W        W78086  21.676  33.926   6.441 -0.1295 -0.1068  0.2270
35034W        W78087  26.675  20.797  16.362  0.2807 -0.1653  0.4524
35035W        W78088   3.461   5.563   2.333  0.0239  0.1415 -0.0885
35036W        W78089   8.798   2.610   0.860 -0.1209  0.1157 -0.1510
35037W        W78090  27.629   7.797  18.326 -0.0107  0.0206  0.2308
35038W        W78091  18.141   5.825  22.652 -0.3552 -0.0452  0.1229
35039W        W78092  24.531  16.320  26.587  0.0057 -0.1171 -0.3381
35040W        W78093  26.954   7.060  27.862 -0.0205  0.2082  0.3863
35041W        W78094   4.364   7.587  27.335 -0.0317 -0.0754 -0.2568
35042W        W78095   3.010  19.810  15.791  0.0948 -0.1413 -0.3360
35043W        W78096  10.030  12.328  11.320 -0.2794 -0.2037  0.1286
35044W        W78097   3.533  33.781   0.481  0.0685  0.2783 -0.3460
35045W        W78098  20.148  26.114   5.928 -0.2343  0.0401 -0.0956
35046W        W78099  21.854   8.736   0.174  0.0130 -0.1547  0.1535
35047W        W78100  28.481  32.416  25.440 -0.0537 -0.4037 -0.0847
35048W        W78101  30.228  19.742  18.864  0.1176 -0.2328  0.0309
35049W        W78102   2.080  13.669  22.143  0.0739  0.1604  0.1340
35050W        W78103   3.176  11.691  18.101  0.1365  0.3746 -0.0942
35051W        W78104  31.025  11.436   2.622  0.0560  0.0565 -0.1048
35052W        W78105  27.149  17.532  27.135 -0.3953  0.0666 -0.0636
35053W        W78106   6.111  12.186   3.006  0.2101  0.1448 -0.1756
35054W        W78107  25.316  17.845  28.025 -0.2209 -0.1881 -0.2289
35055W        W78108  30.575   9.896  15.063 -0.0143 -0.1561 -0.1495
35056W        W78109  16.205  27.331  21.288  0.1410  0.1460 -0.1848
35057W        W78110  30.785   3.308  28.867  0.2416 -0.0356 -0.0995
35058W        W78111  22.591  21.934  19.844  0.1215  0.3331  0.0261
35059W        W78112  20.388  17.404  21.843 -0.3820 -0.0084 -0.0148
35060W        W78113  31.281  11.767  10.245  0.0131 -0.1326 -0.0019
35061W        W78114   6.519  24.359  13.661  0.0136 -0.0052 -0.2702
35062W        W78115   1.014  30.885   2.324 -0.1191 -0.2759  0.3929
35063W        W78116  28.431  10.073   7.994  0.1903  0.0349 -0.2930
35064W        W78117  10.673  14.909   1.228 -0.0040  0.3000  0.0767
35065W        W78118  10.275   0.842   5.270  0.1776 -0.3380 -0.0943
35066W        W78119  15.254  31.231  14.645  0.2360  0.0328 -0.2238
35067W        W78120   0.033  11.288   3.824 -0.1091  0.1979  0.3606
35068W        W78121  10.263  11.378   6.016 -0.3521 -0.0872  0.1181
35069W        W78122   5.792  30.457   2.949  0.0147  0.1711  0.0685
35070W        W78123   1.957  19.234  22.830 -0.1597 -0.1979 -0.0537
35071W        W78124  30.971  13.159  18.337 -0.0070 -0.0534 -0.3111
35072W        W78125  27.686  11.284  16.142  0.0299  0.1013  0.0287
35073W        W78126  29.869  10.357   1.972  0.4797  0.3310 -0.1101
35074W        W78127  31.141  32.579  16.665 -0.0671  0.1781 -0.1211
35075W        W78128  27.751  25.063  17.330  0.1940 -0.3302  0.0703
35076W        W78129   3.187   9.960   0.429  0.3818 -0.1313 -0.0649
35077W        W78130  13.749   9.889  10.791 -0.0032 -0.0168  0.6064
35078W        W78131  31.407  12.677  20.396 -0.1523 -0.4742  0.0836
35079W        W78132  23.370  22.062  23.438  0.3287  0.0024 -0.1907
35080W        W78133  30.914   1.166  21.758 -0.1624 -0.3881 -0.3312
35081W        W78134  18.310   6.176  25.085 -0.1252 -0.1049  0.0526
35082W        W78135  34.512  30.149   6.290  0.1625 -0.0611  0.1581
35083W        W78136  31.823   8.086   1.111 -0.0869  0.0115  0.0146
35084W        W78137   5.455   1.699  23.864 -0.0841 -0.0051 -0.0439
35085W        W78138  24.011  11.403  16.316  0.0097  0.0471  0.1560
35086W        W78139   7.564  14.991   8.748  0.3771  0.1724  0.2249
35087W        W78140  20.430   9.020  28.773 -0.0511  0.2456 -0.1347
35088W        W78141  33.911  17.252   2.304 -0.1571 -0.1335 -0.1445
35089W        W78142  32.262  15.290   2.162  0.2251  0.1191 -0.1351
35090W        W78143  11.143  26.225   1.975  0.1480  0.0603  0.0341
35091W        W78144  20.129   8.835   7.264 -0.1087 -0.2035 -0.3680
35092W        W78145   8.153   6.266  17.053  0.0539  0.3017 -0.2334
35093W        W78146  33.780   3.154  22.045  0.2879 -0.0629 -0.5530
35094W        W78147   2.330  23.950  16.052  0.1701 -0.2808  0.0749
35095W        W78148   5.525  32.663   4.585  0.2908  0.0188 -0.0784
35096W        W78149  26.333  18.940  19.989  0.4344 -0.0427 -0.0202
35097W        W78150  26.857  31.120   9.060  0.3088  0.0539  0.0586
35098W        W78151  29.651  18.112  18.790  0.3271 -0.2122  0.3491
35099W        W78152   7.438  14.685  21.689  0.1424  0.0649  0.5595
35100W        W78153   1.100  29.202  21.174 -0.0464  0.0172 -0.0575
35101W        W78154  18.978  22.764  18.087 -0.1132 -0.2976  0.0714
35102W        W78155  33.905  10.992   1.778  0.0817 -0.1912 -0.1092
35103W        W78156  25.091   0.003   5.644  0.3141 -0.1191  0.0909
35104W        W78157  23.979   6.073   9.092 -0.0241 -0.1086  0.0230
35105W        W78158   5.033  15.887   2.099  0.1633  0.1035 -0.0434
35106W        W78159   5.746  29.196  13.550  0.4443 -0.4336 -0.0438
35107W        W78160  21.504   5.906  20.104 -0.1217  0.4136  0.1184
35108W        W78161  27.049  15.375  20.785 -0.1177 -0.0242  0.0826
35109W        W78162   9.612  18.216  15.779 -0.2133  0.0647 -0.0244
35110W        W78163  31.525  14.188   3.782 -0.1939 -0.0657  0.1823
35111W        W78164  25.057  13.175  22.608 -0.0658  0.1133  0.4184
35112W        W78165  14.155   9.533  15.914 -0.3377  0.2565  0.1191
35113W        W78166  33.639   3.670   2.813  0.0186  0.0135  0.3271
35114W        W78167   4.562   3.809  27.018  0.2683 -0.0478 -0.0478
35115W        W78168  28.495  17.888   4.436 -0.0812  0.2092  0.2187
35116W        W78169  18.185  10.265  28.712 -0.0053  0.0904 -0.0372
35117W        W78170  30.747  12.020   0.670  0.1408 -0.0314  0.2520
35118W        W78171  34.271  12.358   9.802  0.1919 -0.3842 -0.0502
35119W        W78172  33.122  10.282  20.053  0.1978  0.1012 -0.2463
35120W        W78173   9.000   5.560   5.265  0.0385 -0.0643 -0.1782
35121W        W78174   5.607  32.956   8.213  0.0905  0.3685 -0.0166
35122W        W78175   4.224  33.227   7.438 -0.2487 -0.1742 -0.1167
35123W        W78176   4.872  30.106   3.340  0.0370  0.0414 -0.0891
35124W        W78177  24.788  16.366   1.082  0.0252  0.1539 -0.2857
35125W        W78178  26.209   6.681   9.541 -0.2884 -0.1014  0.0052
35126W        W78179  25.410   5.641  26.499 -0.0147  0.0931  0.0474
35127W        W78180  33.279  22.946  15.215 -0.0201 -0.1889  0.1238
35128W        W78181   3.168  15.446   4.441 -0.3771  0.1442  0.4210
35129W        W78182  31.002  10.628  17.467 -0.0589 -0.0695  0.0924
35130W        W78183  15.752   9.372  24.021 -0.0976 -0.0604  0.1436
35131W        W78184  32.356  31.449  26.449  0.2182 -0.0901 -0.2107
35132W        W78185  18.464   2.345  16.090 -0.1589  0.0170  0.2293
35133W        W78186   2.686  26.103   2.109  0.2285 -0.0682 -0.2443
35134W        W78187  17.356   9.896   8.185 -0.5043  0.4346 -0.2511
35135W        W78188  15.216   6.481   2.102  0.0111 -0.1923 -0.2824
35136W        W78189  25.211  20.947  27.161 -0.0697  0.0422 -0.1663
35137W        W78190   1.078   4.291   1.009 -0.1899 -0.1919  0.0440
35138W        W78191   3.852  26.164  19.296  0.1332  0.0915 -0.1810
35139W        W78192  34.644  13.827   4.940 -0.2988  0.2568  0.2060
35140W        W78193  19.788   5.251   6.219 -0.0601 -0.0574  0.1141
35141W        W78194  16.647  19.644   7.934 -0.2610  0.0486  0.0806
35142W        W78195   0.536   1.034  27.899  0.1490  0.0939 -0.0477
35143W        W78196   8.606  12.374  28.114  0.3748 -0.0840 -0.1285
35144W        W78197  27.980   0.751  16.679  0.0668  0.1794 -0.4788
35145W        W78198  33.894  24.139   3.892 -0.0625  0.0275 -0.1254
35146W        W78199  30.624   0.441   8.224  0.3201  0.1098  0.2248
35147W        W78200  30.750  10.195   1.218  0.0170 -0.3443  0.3549
35148W        W78201  18.922  26.155   4.394 -0.0785 -0.1357  0.1459
35149W        W78202  14.599  25.419   0.737  0.0188  0.4809 -0.2200
35150W        W78203  28.519  11.383  16.776  0.2101  0.0070  0.1275
35151W        W78204  17.963   5.066  21.308 -0.4894  0.1023  0.2933
35152W        W78205   1.140  18.453   9.453  0.0799  0.1402 -0.1291
35153W        W78206  29.633   7.188   5.316 -0.0332  0.1891  0.3192
35154W        W78207  29.853  20.204   7.248 -0.0095  0.1490  0.0468
35155W        W78208  23.270   5.667  14.716 -0.4828 -0.1001 -0.0408
35156W        W78209  20.004  12.782   0.461  0.0661  0.0172  0.0514
35157W        W78210   1.035  26.725  14.059  0.1323  0.0378 -0.4036
35158W        W78211   4.724   3.050  20.215 -0.0354 -0.0058 -0.0318
35159W        W78212   3.232  10.375   0.090 -0.2432 -0.2849 -0.1363
35160W        W78213  16.155  26.940   0.255  0.2625  0.4202  0.0441
35161W        W78214  18.217  17.809  28.322 -0.4267  0.0890  0.0017
35162W        W78215  29.442   9.594  15.218  0.1133 -0.0140 -0.1315
35163W        W78216  33.840  18.711   2.474 -0.1098  0.0513 -0.0957
35164W        W78217  27.037  26.314  13.611  0.1863  0.1517 -0.0473
35165W        W78218  16.742   0.712  28.271  0.2008 -0.1549 -0.2850
35166W        W78219  34.098   4.756   7.693  0.1576 -0.0463  0.1124
35167W        W78220   4.604  32.791  25.534  0.1571 -0.0301 -0.1885
35168W        W78221   2.750  16.289  20.384  0.2750  0.0155 -0.3509
35169W        W78222  30.636  15.695  14.321  0.0272  0.0395 -0.1214
35170W        W78223  17.027   0.732  16.383  0.3030 -0.2850 -0.2254
35171W        W78224  25.614   2.323  24.824 -0.0586  0.1622  0.2623
35172W        W78225  23.547   9.936   6.384  0.0280 -0.0580 -0.0712
35173W        W78226  13.237  14.368   5.876 -0.2566 -0.0715 -0.1376
35174W        W78227  32.058  12.407  26.358 -0.3197 -0.2563  0.0288
35175W        W78228  28.700  17.070   5.813 -0.0638  0.0240  0.1682
35176W        W78229  20.905  10.103  20.957  0.2736  0.2377  0.1131
35177W        W78230  32.004  10.412  20.103  0.0595  0.1789  0.2731
35178W        W78231  28.703  29.202  24.902  0.0403 -0.3496 -0.0196
35179W        W78232  33.539   2.320   6.199 -0.3160 -0.6752  0.2641
35180W        W78233  19.358   6.346  25.037 -0.1316 -0.2043  0.1098
35181W        W78234  27.659   8.672   5.087  0.2255 -0.2398  0.2780
35182W        W78235  30.807  30.010  25.831 -0.0614 -0.1564  0.0265
35183W        W78236   4.320   1.017   1.924  0.3203 -0.1803 -0.0106
35184W        W78237  34.147  10.695  17.104  0.1273  0.0380  0.0586
35185W        W78238   0.257  32.342   8.867 -0.1328  0.0455 -0.1363
35186W        W78239  28.925  16.842  26.940  0.1233  0.0825  0.2142
35187W        W78240   2.839  10.203   8.397 -0.2626  0.2840  0.1419
35188W        W78241  27.626  11.053  26.708 -0.1122 -0.1333 -0.2080
35189W        W78242   7.902  17.573  18.539  0.0765 -0.0206 -0.2370
35190W        W78243   0.836  15.081  22.527  0.0575  0.1011  0.0854
35191W        W78244  34.194  28.177  13.713 -0.0274 -0.0166 -0.0384
35192W        W78245   8.690   1.183   1.668 -0.0695 -0.2311  0.1649
35193W        W78246  25.576   0.821  25.249 -0.1199 -0.0179 -0.2597
35194W        W78247  27.351  15.530   6.981  0.4289  0.3142 -0.1883
35195W        W78248   3.611  14.936  26.658  0.4562  0.2665  0.0106
35196W        W78249   5.704  13.748  18.141  0.0180  0.4611 -0.0638
35197W        W78250  30.057  14.440  27.474 -0.3222 -0.0312 -0.1191
35198W        W78251  27.842   9.580  25.684  0.2807  0.1277  0.2401
35199W        W78252  22.665   7.688  17.624  0.1465 -0.1234  0.4316
35200W        W78253  27.034  10.036  22.037  0.1663 -0.0521 -0.0334
35201W        W78254   1.314   4.857  28.940 -0.0694  0.0676  0.2645
35202W        W78255  14.443   8.087   1.781  0.3710  0.2781  0.0838
35203W        W78256  27.856   3.326  16.480  0.1913  0.0798 -0.2907
35204W        W78257  15.918   2.089  27.826 -0.0735 -0.0874  0.1200
35205W        W78258  31.904   5.708   3.309 -0.0400 -0.2109  0.1597
35206W        W78259   1.920  17.790  21.677  0.1030 -0.2351 -0.3084
35207W        W78260  20.271  13.589  23.589 -0.2249  0.1006 -0.2609
35208W        W78261  20.394  11.518  21.321  0.0944 -0.0594 -0.3989
35209W        W78262  21.063   3.219  18.917  0.0857 -0.4410 -0.0249
35210W        W78263   9.464  17.642  18.641 -0.2642  0.0880 -0.0141
35211W        W78264   4.506  30.340  22.191 -0.1684  0.2593  0.2761
35212W        W78265  31.304  26.813  18.876 -0.1232 -0.1089 -0.0348
35213W        W78266   6.865   4.666  23.124 -0.0040  0.0736 -0.1432
35214W        W78267  22.387  18.222  22.573 -0.1144  0.3297  0.1961
35215W        W78268  32.868  12.677   5.319 -0.2534  0.2701  0.0032
35216W        W78269  10.718  24.879   3.521 -0.0304  0.1766 -0.1368
35217W        W78270  26.486  12.526  27.557  0.0982 -0.0958 -0.1251
35218W        W78271  30.540   7.331  26.196  0.2093  0.0358 -0.1550
35219W        W78272   5.207  21.343  23.391  0.1471  0.0861 -0.3262
35220W        W78273   2.410  24.069  24.858 -0.0996 -0.2756 -0.2089
35221W        W78274   0.289  34.432  19.591 -0.2194  0.1368  0.3620
35222W        W78275  32.261  28.323  18.993  0.1252 -0.0533  0.0955
35223W        W78276  28.586  22.287  23.564 -0.0782  0.1619 -0.0712
35224W        W78277  26.809   7.179  14.626 -0.2519  0.0246 -0.0812
35225W        W78278   8.139  10.915   0.750  0.1993  0.0730  0.1342
35226W        W78279  24.141   7.236  19.998  0.1023  0.3255 -0.1181
35227W        W78280   8.313  30.716  15.912  0.2188 -0.0877  0.2038
35228W        W78281   7.728   3.107  28.136  0.0466 -0.3726  0.1102
35229W        W78282  29.809  17.527  15.977 -0.1641  0.2421  0.0124
35230W        W78283   7.086  14.895  16.306 -0.3164 -0.0622 -0.0988
35231W        W78284   0.184  16.416  21.139 -0.0806  0.1391 -0.1785
35232W        W78285   5.929  30.999  18.865 -0.2274  0.1880  0.1579
35233W        W78286  30.629  13.273  24.381 -0.0317 -0.2354 -0.2515
35234W        W78287  32.588  13.153   1.757 -0.1108 -0.1215 -0.1994
35235W        W78288  22.741  17.416  17.420  0.1786 -0.0624  0.4007
35236W        W78289   3.674   2.865   1.362  0.1511  0.0837 -0.2284
35237W        W78290  19.775   2.579  20.639 -0.1631 -0.0652 -0.0995
35238W        W78291  25.040  12.808  24.282  0.1214  0.1642  0.3266
35239W        W78292   0.263  16.206  16.396  0.0016 -0.2573  0.0124
35240W        W78293   2.524  25.790   8.958 -0.0117 -0.1075 -0.2814
35241W        W78294   4.197   7.681   4.367 -0.1138  0.1645 -0.1106
35242W        W78295   7.370  13.236  18.426 -0.1627 -0.3988 -0.1628
35243W        W78296   1.907  14.957  21.734  0.0521 -0.0426 -0.0083
35244W        W78297   2.157  17.344   6.780  0.1377  0.0937 -0.2707
35245W        W78298  32.043  19.246  16.679 -0.0757  0.1897 -0.3297
35246W        W78299   8.592  23.337  22.579 -0.2792 -0.1750 -0.0946
35247W        W78300   0.747   5.572  16.426 -0.0032  0.1537 -0.3521
35248W        W78301  19.674   3.733  14.329 -0.2037 -0.4891 -0.5388
35249W        W78302   6.010  31.393  15.047 -0.0269 -0.2641  0.1848
35250W        W78303  27.691  14.700  22.935  0.1198 -0.1675 -0.1778
35251W        W78304  14.830  10.971   0.851 -0.0975  0.0748 -0.3036
35252W        W78305   3.557  18.646  21.677  0.1594  0.1042  0.0814
35253W        W78306  32.398  33.710  17.074  0.3957 -0.0152  0.0887
35254W        W78307  34.506  11.880  14.108  0.0957 -0.1180  0.0238
35255W        W78308   1.102   0.213  14.436  0.0103  0.0871  0.2002
35256W        W78309  28.043  23.642   2.521 -0.0147 -0.0689  0.1526
35257W        W78310  23.851  19.625  14.457 -0.2395 -0.0970 -0.1214
35258W        W78311  31.563  30.308  19.997 -0.0340 -0.1761  0.0595
35259W        W78312  26.657   6.369  23.767  0.2064 -0.3065 -0.0396
35260W        W78313  15.357   0.993  19.232  0.0167  0.0663 -0.1058
35261W        W78314  31.357  12.490  15.595 -0.0398 -0.0221 -0.3318
35262W        W78315  30.334  15.494  25.941 -0.2697 -0.1875  0.0081
35263W        W78316  10.523   4.365  27.181 -0.1029  0.1822 -0.1242
35264W        W78317  29.841   8.289  18.170  0.1752  0.1461 -0.0095
35265W        W78318  26.601  15.096  16.431  0.1080 -0.1296 -0.0682
35266W        W78319  29.078  19.089  19.159  0.1273  0.2609  0.3109
35267W        W78320  24.460   2.382  21.415 -0.1870  0.1717 -0.0614
35268W        W78321  31.540  13.017  13.869 -0.0721 -0.0395  0.0212
35269W        W78322   9.881  13.894  24.066 -0.0130  0.3400 -0.0442
35270W        W78323   5.686  11.139  16.142 -0.1862 -0.1117  0.2641
35271W        W78324  30.519   8.218  22.234 -0.1289 -0.0187  0.4067
35272W        W78325  31.812  14.552   2.027  0.0600  0.2180  0.1501
35273W        W78326  25.566   7.143  19.400  0.0886 -0.0229  0.0182
35274W        W78327  11.367  32.828  14.473 -0.3220  0.2594  0.0560
35275W        W78328  31.192  29.412  21.649  0.0570  0.1019 -0.0243
35276W        W78329   5.397  23.577  22.043  0.0214  0.0470  0.1753
35277W        W78330   8.303  19.290  21.316  0.2239  0.4848  0.2164
35278W        W78331  24.894  20.288  22.189 -0.3751  0.1030 -0.2347
35279W        W78332  23.717  33.574  16.166 -0.3869 -0.0192  0.0690
35280W        W78333  26.844  24.122  18.426  0.0420 -0.4448  0.1252
35281W        W78334   3.645  11.148  26.676  0.1996  0.1680 -0.2168
35282W        W78335   1.302   6.748  24.782 -0.1166  0.1899  0.3565
35283W        W78336   0.970  15.535  16.011 -0.2803  0.0440  0.0197
35284W        W78337   4.038   8.600  19.412  0.2186  0.2393  0.0250
35285W        W78338  30.855   7.153  17.805 -0.0269  0.2487  0.2507
35286W        W78339  34.463   6.226   5.276 -0.4435 -0.1484  0.3140
35287W        W78340  24.659   4.302  17.576  0.1215  0.1589  0.2321
35288W        W78341   8.549   9.580  26.300 -0.0873 -0.3608  0.0172
35289W        W78342  32.205   1.554  25.837  0.0883  0.1830  0.4849
35290W        W78343   1.400  33.775  18.759 -0.1533  0.2929 -0.1298
35291W        W78344  32.286  20.887  18.068 -0.3785 -0.1520 -0.3400
35292W        W78345   1.103  13.522  21.809 -0.0302 -0.0371  0.0966
35293W        W78346  32.076  31.186  17.418  0.2994 -0.0100  0.0068
35294W        W78347  10.695   9.849   4.108 -0.0249  0.0046 -0.4419
35295W        W78348  26.707  14.900  23.555 -0.0489 -0.1021 -0.0061
35296W        W78349   0.567  10.264  14.478  0.1330  0.2241  0.1439
35297W        W78350   2.943   2.637  15.820 -0.1103  0.0112  0.2841
35298W        W78351  10.933  20.859  14.156  0.1045  0.0274  0.0540
35299W        W78352  29.532   4.496  16.744 -0.1888  0.3518  0.4284
35300W        W78353  26.786  19.615  23.951 -0.2062 -0.0684 -0.0874
35301W        W78354  23.880  15.763  28.482 -0.2495 -0.0505 -0.0187
35302W        W78355   8.690   5.231  29.023  0.1584 -0.1610  0.0730
35303W        W78356  12.669   5.045  23.281 -0.3522 -0.0878 -0.0472
35304W        W78357   7.488  34.160  20.393 -0.1057  0.1805 -0.2572
35305W        W78358   9.579   5.842  21.141 -0.0991  0.2505  0.1492
35306W        W78359  14.665  11.332  14.787  0.3408 -0.0200  0.1904
35307W        W78360   8.700  19.236   8.302  0.2508 -0.0734  0.0293
35308W        W78361  26.836   9.688  18.686 -0.0004  0.0205  0.2340
35309W        W78362  27.578  18.702  27.464 -0.0532  0.0395  0.1271
35310W        W78363  27.975  11.503  18.947 -0.3430  0.0538  0.0490
35311W        W78364  32.081  27.820  23.499  0.5407 -0.0625 -0.0885
35312W        W78365  27.992  10.473  15.686  0.0572 -0.0289 -0.0934
35313W        W78366  10.865  34.292  18.398 -0.3575  0.1294  0.2660
35314W        W78367  13.980  11.688   2.429 -0.2001 -0.3177 -0.1278
35315W        W78368  34.528   6.416  16.361  0.0811  0.0562 -0.2273
35316W        W78369   4.460  16.959   0.140 -0.3711  0.0101  0.1877
35317W        W78370  19.324  21.517  24.416 -0.1114  0.0177 -0.0744
35318W        W78371  11.313  12.107  28.713  0.0605 -0.1618 -0.1639
35319W        W78372  32.188  19.372   1.293 -0.2268  0.1901 -0.1420
35320W        W78373  13.183  30.329   5.233  0.2249 -0.0025  0.4057
35321W        W78374  16.936   4.823  17.391  0.1437 -0.1307 -0.1371
35322W        W78375  29.211   7.658  24.932 -0.0825 -0.0444 -0.2416
35323W        W78376  23.346  22.341  17.323  0.0283 -0.1219 -0.1370
35324W        W78377   3.576  27.937  16.728 -0.1388  0.2888 -0.2526
35325W        W78378  20.972  23.460  16.053  0.0708  0.0862 -0.0233
35326W        W78379  21.899  10.538  15.379  0.1019  0.0413 -0.2689
35327W        W78380  30.980   9.518  24.186 -0.3559 -0.2198  0.0427
35328W        W78381   8.789  10.395  23.702 -0.0035 -0.0892  0.1005
35329W        W78382  28.621  23.709  25.497 -0.3888  0.3602  0.1398
35330W        W78383   0.799  12.283  26.009  0.2760 -0.1588  0.0035
35331W        W78384  34.163   9.590  24.859  0.0704 -0.0520 -0.1378
35332W        W78385  18.297   6.300  26.708 -0.0997  0.0319  0.0387
35333W        W78386   2.528  13.093  16.036 -0.4737  0.3080  0.1453
35334W        W78387   3.385   9.641   0.010 -0.0154 -0.1002  0.0663
35335W        W78388  14.849  14.925  23.217  0.3885 -0.2442  0.1026
35336W        W78389  21.713   7.440  28.588  0.0702  0.1711 -0.1378
35337W        W78390  30.839   6.797  15.889 -0.0845 -0.3257  0.0201
35338W        W78391  29.326   0.249  18.884  0.1610 -0.0414 -0.2314
35339W        W78392   8.946   9.207  15.737  0.2740  0.0231  0.0680
35340W        W78393  13.195  10.988  16.047 -0.0310  0.1205  0.2180
35341W        W78394  22.194  21.821  15.830 -0.0106 -0.0940 -0.1137
35342W        W78395   2.763   9.503  19.796  0.1388  0.1078  0.1171
35343W        W78396  25.088  27.897  21.133  0.0131 -0.2732  0.3331
35344W        W78397   5.396  12.450   1.843  0.1201 -0.0006  0.3449
35345W        W78398  27.262  18.096  22.216  0.0931  0.0768 -0.2602
35346W        W78399  33.152   2.030  14.239 -0.0219  0.0705 -0.0631
35347W        W78400  34.496  10.265  18.188 -0.2090  0.0180  0.1507
35348W        W78401   5.269  20.538  18.198  0.0221  0.0560  0.1729
35349W        W78402  14.744  13.265  23.725 -0.0462  0.2561 -0.0297
35350W        W78403  28.632  22.836  18.846 -0.0701  0.2166 -0.0259
35351W        W78404  33.109  26.704  22.796 -0.0720  0.0133  0.2545
35352W        W78405   4.290  17.745  13.964 -0.1203 -0.1507 -0.1658
35353W        W78406  27.555   5.876  22.381  0.0603 -0.2518 -0.1567
35354W        W78407  26.219  34.309  14.327 -0.0396  0.2381 -0.1903
35355W        W78408   1.611   9.986  21.410 -0.2232  0.1432  0.1151
35356W        W78409   5.224  10.667   5.986  0.1614 -0.2545  0.3582
35357W        W78410   0.933   3.767   7.354 -0.2307  0.3402 -0.0876
35358W        W78411   6.674  15.297   2.893  0.0093 -0.1873  0.1728
35359W        W78412  18.092   2.555  16.427 -0.1151  0.5867 -0.0854
35360W        W78413  28.989  11.688   2.726 -0.1814 -0.3689  0.1767
35361W        W78414  28.444   7.806  26.834 -0.0798  0.1138 -0.1702
35362W        W78415  30.506   8.343  15.781  0.0091  0.2187  0.2665
35363W        W78416  31.141   0.347  19.197  0.1052 -0.2394  0.2666
35364W        W78417  12.569  19.768  21.741 -0.0003 -0.2040  0.0187
35365W        W78418  13.442  13.411  21.002  0.0735  0.2036  0.0907
35366W        W78419  23.199  26.671  22.816  0.3719  0.1394 -0.1900
35367W        W78420  10.935   8.220  22.216  0.1435 -0.0144  0.2203
35368W        W78421  29.349   1.101  18.792  0.0212  0.0032  0.1457
35369W        W78422  32.219   5.366  16.954  0.0781 -0.1048  0.0633
35370W        W78423   5.313  14.272  23.580 -0.0505 -0.0387  0.0226
35371W        W78424  33.148  18.126  22.694  0.0859 -0.1481 -0.1199
35372W        W78425  21.511  21.132  17.662 -0.0761  0.2711 -0.3060
35373W        W78426  30.842  11.834  16.615  0.0401  0.0935  0.0058
35374W        W78427   5.345  34.399  21.458  0.0902  0.0127  0.0728
35375W        W78428  28.043  14.024  19.708  0.1502  0.3147  0.1686
35376W        W78429  22.900  32.752  24.244 -0.2520  0.1050  0.3130
35377W        W78430   2.211  20.855  18.983  0.0130 -0.4587 -0.3018
35378W        W78431  30.982   5.007  16.785  0.0936 -0.3977 -0.1073
35379W        W78432  24.796   6.526  14.104  0.3030  0.0810 -0.1496
35380W        W78433  32.239   2.574  19.903 -0.0247  0.1189  0.1500
35381W        W78434   7.495  19.270   2.140 -0.0534  0.4248 -0.2359
35382W        W78435   8.905   5.625  18.195  0.1670  0.2136  0.1653
35383W        W78436   2.582  11.670  17.722 -0.2259 -0.3145  0.1283
35384W        W78437  29.225  15.074  26.357 -0.1054  0.0223 -0.2752
35385W        W78438  10.435  32.984  21.047 -0.2719  0.1949  0.0968
35386W        W78439  32.242   3.054  17.248  0.0219 -0.0304 -0.0257
35387W        W78440  26.282  14.178  14.285  0.3903 -0.0782  0.0652
35388W        W78441  31.746  18.021   0.009 -0.2547  0.0189  0.0200
35389W        W78442  22.900   4.716  20.831 -0.3032  0.0900 -0.0776
35390W        W78443  13.130  13.255  14.971 -0.1340 -0.3223 -0.0032
35391W        W78444  31.224  23.881  27.308  0.0317  0.2120  0.0675
35392W        W78445  23.873  13.013  26.889 -0.1248  0.1684  0.0282
35393W        W78446  26.006  15.459  21.912 -0.1976  0.3017 -0.0362
35394W        W78447  23.101  16.340  13.232  0.1564 -0.3674  0.3284
35395W        W78448  32.541  16.995  22.550  0.3406  0.0949 -0.0313
35396W        W78449  29.227  21.613  23.816  0.0234 -0.0895  0.0299
35397W        W78450  34.162  19.812  21.261 -0.0246  0.0599 -0.1570
35398W        W78451  23.275   5.016  16.784  0.0588  0.2703 -0.3079
35399W        W78452   1.714  16.887  19.513  0.3276 -0.1823  0.1810
35400W        W78453   2.173   6.218  27.031  0.0207  0.0241  0.0556
35401W        W78454   2.378   3.709  16.047  0.0563  0.0421  0.3739
35402W        W78455  33.211   2.973  24.953 -0.1814  0.1184  0.0991
35403W        W78456  21.762  27.073  17.557  0.0130  0.1357 -0.2062
35404W        W78457   7.144   9.778   0.748 -0.0138  0.0513 -0.3290
35405W        W78458   5.971   7.392  13.902  0.1985  0.0453  0.0449
35406W        W78459  15.175   8.298  27.447  0.0899  0.1698 -0.2596
35407W        W78460  33.676  11.335  15.644  0.0119  0.0950 -0.0523
35408W        W78461  11.518  21.430  15.338  0.2625 -0.2963  0.0089
35409W        W78462  13.849  34.595   8.639 -0.0162 -0.2168 -0.0817
35410W        W78463  24.121  19.011  20.299 -0.0354 -0.1706 -0.2114
35411W        W78464   1.338  13.364  22.437 -0.1886  0.2745  0.1040
35412W        W78465   9.140  10.535  18.186 -0.1316  0.2150 -0.0140
35413W        W78466  34.244  20.597  18.025 -0.2620  0.0937  0.1162
35414W        W78467  26.701  10.244  14.872  0.0511 -0.2556  0.1769
35415W        W78468  28.419  13.800   7.329 -0.2392  0.0476  0.0381
35416W        W78469  11.179   9.461  16.774 -0.1190 -0.1133  0.4665
35417W        W78470  28.709   4.495  19.749  0.3266 -0.0112 -0.2263
35418W        W78471   9.915  11.017  21.176  0.0228 -0.3415 -0.0684
35419W        W78472   7.986   5.476  22.149  0.2002 -0.1053 -0.0807
35420W        W78473  34.324  21.041  17.602 -0.0767 -0.2766  0.1470
35421W        W78474   1.553   6.545  14.368 -0.0774 -0.0829 -0.2019
35422W        W78475   3.135   5.453   6.147 -0.2583  0.1961  0.1148
35423W        W78476   6.142  24.709  27.083 -0.2425 -0.0519 -0.1627
35424W        W78477  32.940   0.792  19.294 -0.0808 -0.3568 -0.1173
35425W        W78478   1.776  12.907  22.176  0.0006  0.0411 -0.1257
35426W        W78479   6.878  27.124   6.726 -0.2776 -0.0672  0.0234
35427W        W78480   5.805   7.524  16.724 -0.0998 -0.2401  0.1281
35428W        W78481  20.257  11.596  16.107  0.2917 -0.4034  0.1401
35429W        W78482   2.257  13.350  25.316 -0.1444  0.2108  0.1435
35430W        W78483   7.513   9.126  15.544 -0.1362  0.0364 -0.1711
35431W        W78484   0.418   5.428  13.775  0.0440 -0.0046 -0.1936
35432W        W78485   2.091  17.615  20.048 -0.2314  0.3495 -0.0022
35433W        W78486  29.718  27.010  20.999 -0.0912  0.1106 -0.3406
35434W        W78487  13.306  22.142  18.968 -0.3774 -0.1643 -0.0985
35435W        W78488  32.231  20.393  19.838  0.1194  0.1369 -0.2492
35436W        W78489   0.823  15.523  24.753 -0.2401  0.1931  0.2831
35437W        W78490   0.020   3.022  14.701  0.1670  0.1887 -0.2067
35438W        W78491   3.803  19.376  15.742  0.1926 -0.0275 -0.0681
35439W        W78492  23.942   3.893  16.200 -0.0725 -0.2604 -0.1417
35440W        W78493  21.273  21.540  25.537 -0.0121 -0.3820 -0.3478
35441W        W78494  14.086  13.593  20.400 -0.0080 -0.1552 -0.1933
35442W        W78495   6.410   9.247   1.055 -0.3148 -0.2190  0.1635
35443W        W78496  19.849  13.559  26.587 -0.2953  0.0364 -0.1721
35444W        W78497  29.810  11.596  20.151  0.4153  0.0756  0.1095
35445W        W78498   3.370  26.484  16.432 -0.0226 -0.0595 -0.0005
35446W        W78499  31.688  14.842  15.382 -0.0169  0.3414 -0.0329
35447W        W78500  27.012  17.204  22.825  0.1190 -0.0137 -0.1109
35448W        W78501  17.713   4.859  19.368 -0.3149 -0.0666  0.0612
35449W        W78502   3.015   3.009  16.220 -0.1004 -0.0678 -0.0321
35450W        W78503   8.824   6.907  15.922  0.0670 -0.1096 -0.0541
35451W        W78504  12.849   2.938  26.505 -0.1612  0.3826 -0.0506
35452W        W78505   0.236  19.869  27.315  0.0688 -0.1784 -0.1986
35453W        W78506  11.277  25.085  18.261 -0.1162  0.4699  0.2429
35454W        W78507   6.758  16.051   1.956 -0.2802 -0.2524 -0.1315
35455W        W78508  24.068  28.675  19.778  0.0525 -0.1139  0.1388
35456W        W78509   7.559  12.524  17.577 -0.0209 -0.2120  0.1464
35457W        W78510  27.316  10.741  15.341  0.0427 -0.0455  0.0328
35458W        W78511  29.797  11.052  20.059  0.0717 -0.2088  0.3824
35459W        W78512  33.605  23.050  23.939  0.1544  0.1221 -0.1663
35460W        W78513   4.121  18.053  19.453 -0.0041 -0.2555  0.1119
35461W        W78514  25.306  24.686  21.782 -0.3206 -0.4201  0.4183
35462W        W78515   2.629   1.411  28.939 -0.0023 -0.0909 -0.2301
35463W        W78516  20.619  15.492  20.358  0.4489 -0.2998 -0.0893
35464W        W78517   1.611  27.658  19.293  0.1828  0.0541  0.1203
35465W        W78518   4.607  19.425  16.259  0.0288  0.0605  0.0880
35466W        W78519   4.363   0.028  16.589  0.2748 -0.1144 -0.3340
35467W        W78520  33.809  11.036  15.172 -0.1850  0.0292 -0.0766
35468W        W78521   3.808  31.500  14.759 -0.0388 -0.1516 -0.1421
35469W        W78522   2.577   1.634  14.367 -0.1776  0.1284 -0.0761
35470W        W78523  34.012  10.193  21.604 -0.0576 -0.2526  0.2686
35471W        W78524  23.541   6.171  23.783  0.4022  0.0327  0.0610
35472W        W78525  33.275   1.515  25.708  0.1236 -0.0014  0.0112
35473W        W78526  23.426   8.162  24.672  0.0185 -0.1775  0.0732
35474W        W78527  22.818  18.008  17.259  0.2614 -0.1426 -0.0588
35475W        W78528  23.351  12.441  27.066  0.0400 -0.1698 -0.3627
35476W        W78529  13.688   2.220  16.829 -0.2138 -0.1124  0.3558
35477W        W78530  26.706  16.393  28.923  0.0879  0.0893  0.0109
35478W        W78531   4.104  20.681  25.142  0.1419  0.1065 -0.0248
35479W        W78532  25.072   9.875  15.121  0.3721 -0.2014  0.0983
35480W        W78533  30.115   8.109  16.046 -0.0979  0.2902  0.1876
35481W        W78534  11.777  15.643  25.305  0.2129  0.1211  0.0944
35482W        W78535  12.885   9.224   6.467 -0.1157  0.0373  0.4136
35483W        W78536  22.628  33.434  18.383 -0.0421  0.1572 -0.1088
35484W        W78537  25.420  16.813  20.966 -0.1054  0.5053  0.1270
35485W        W78538  16.917  10.219  15.356 -0.2142 -0.0167  0.0947
35486W        W78539   2.110  14.777  17.650 -0.2265 -0.0024  0.0144
35487W        W78540  21.012  10.095  17.920 -0.1294  0.1693  0.2005
35488W        W78541  29.732   8.282  24.981  0.1813  0.1226 -0.0699
35489W        W78542  25.506  11.963  15.687 -0.1639  0.1235 -0.2142
35490W        W78543   0.107  25.123   5.455  0.2470 -0.0551  0.0969
35491W        W78544  24.785  15.808  24.826 -0.0532  0.2331 -0.0650
35492W        W78545  28.642  11.543  15.869  0.0228 -0.2870  0.1651
35493W        W78546  27.620   7.240  15.694 -0.2829 -0.1086 -0.0607
35494W        W78547  30.617  12.339  20.271  0.0388 -0.0790  0.0514
35495W        W78548  20.161  34.584  22.128  0.3659  0.1453  0.0018
35496W        W78549  26.773  14.524  23.969 -0.1354  0.2109 -0.0908
35497W        W78550  11.169  21.037   8.020 -0.0277  0.1790 -0.2641
35498W        W78551  30.902  17.115  14.308 -0.0255  0.0943 -0.2789
35499W        W78552  28.307  11.652  19.671  0.3071  0.0198 -0.1115
35500W        W78553  10.173   9.037  16.799 -0.0856  0.1562  0.1671
35501W        W78554  31.851  11.648  15.525 -0.0600  0.2331  0.1664
35502W        W78555  29.255  32.988  23.098  0.0930  0.1679  0.2679
35503W        W78556  19.807  15.311  13.282 -0.0722  0.0278  0.2820
35504W        W78557  17.950  11.016  15.785  0.1093  0.0059 -0.1078
35505W        W78558   9.812  11.363  21.516  0.1543  0.1131  0.1546
35506W        W78559   3.729  34.045  16.652 -0.1967  0.0231  0.0169
35507W        W78560  26.993  25.897   4.086 -0.0143 -0.0625 -0.3520
35508W        W78561  25.881  22.139  22.578 -0.0189  0.1095 -0.0370
35509W        W78562  28.438   5.767   1.946  0.0197 -0.1927 -0.0077
35510W        W78563  20.831  22.688  28.098  0.1551  0.2841  0.1369
35511W        W78564  20.645  32.341  17.479  0.0962  0.0288  0.1129
35512W        W78565   4.172  17.245  23.056 -0.1276 -0.1637 -0.2349
35513W        W78566   9.397  20.579  23.567 -0.0708 -0.0132  0.1560
35514W        W78567  29.174  29.943  24.265  0.1999 -0.1054 -0.3371
35515W        W78568  31.326   6.410  15.405 -0.0031 -0.1004  0.0142
35516W        W78569  30.554   4.856  17.012  0.0919  0.1808 -0.0921
35517W        W78570   4.586  17.381   9.049 -0.0593 -0.2388  0.0243
35518W        W78571  18.311  11.633  25.896 -0.2584 -0.1990 -0.1156
35519W        W78572   2.084  18.559  16.940 -0.0944 -0.1104 -0.0330
35520W        W78573  32.796  18.728  15.193 -0.0033  0.1528  0.0359
35521W        W78574  20.924  21.086  17.796 -0.1070  0.0984 -0.1278
35522W        W78575   8.323  10.363  21.886 -0.2098 -0.2341 -0.0109
35523W        W78576  32.650  18.174   3.701 -0.1727  0.0370 -0.1236
35524W        W78577  33.323   8.649  21.771  0.0974 -0.1691  0.2032
35525W        W78578  30.124   9.869  27.862 -0.2550  0.2106 -0.2982
35526W        W78579   0.944  10.112  19.703  0.0835  0.0011 -0.4706
35527W        W78580   4.103  26.929   0.941 -0.2791  0.0216  0.2714
35528W        W78581   3.576  18.671  23.725  0.0145 -0.1428 -0.1250
35529W        W78582  25.225  23.193  15.832  0.1770 -0.0116 -0.0417
35530W        W78583  32.896   5.904  15.006  0.0739 -0.0959  0.1245
35531W        W78584   9.679  15.542  20.845 -0.2901 -0.2350  0.0819
35532W        W78585  23.731   2.463  15.092  0.1679  0.0272 -0.1153
35533W        W78586  14.955  11.783  21.047 -0.1848  0.0772 -0.2995
35534W        W78587  10.168  29.263  13.402 -0.2095 -0.1392  0.1632
35535W        W78588   7.994  23.685   7.384  0.0307 -0.0037  0.0971
35536W        W78589  19.700  19.906  17.012  0.2646  0.1654  0.1633
35537W        W78590  19.681  33.214  14.943  0.1898  0.0237 -0.0600
35538W        W78591  31.628  19.120  18.687 -0.1540 -0.1315  0.0415
35539W        W78592  24.132  31.436  15.604 -0.0545 -0.0008 -0.0926
35540W        W78593  33.015   2.913   4.597 -0.0555  0.1897  0.2567
35541W        W78594   0.182  23.348  20.700 -0.0190  0.1204 -0.0998
35542W        W78595   1.242   2.874  24.424 -0.2286 -0.2386 -0.0819
35543W        W78596  27.274   3.903  20.872  0.0263 -0.0080  0.1176
35544W        W78597  26.542   7.520   6.228 -0.2406 -0.3381  0.1311
35545W        W78598  28.337  16.926  14.519 -0.1584 -0.0796  0.2592
35546W        W78599  32.890  16.780  24.759  0.2204  0.0952  0.0025
35547W        W78600  30.701  18.986  17.349  0.1480  0.0597  0.2731
35548W        W78601  27.688  31.072  21.239  0.2877 -0.0989 -0.1192
35549W        W78602  11.890  16.841  27.023  0.2346 -0.1032 -0.0086
35550W        W78603  19.633  10.299  26.144 -0.3782  0.2201  0.0460
35551W        W78604   5.338   3.249  18.428  0.1044 -0.0653  0.1797
35552W        W78605   0.589  11.506  20.606 -0.1027  0.1249  0.1620
35553W        W78606   5.622  10.525  27.012  0.2953  0.1072 -0.2143
35554W        W78607  24.022   4.048  21.247  0.0871 -0.2018 -0.5552
35555W        W78608  33.908  15.005  15.428  0.2475  0.1191  0.1124
35556W        W78609   0.752   7.021   2.808  0.0200 -0.2530  0.2822
35557W        W78610  34.304  23.379  28.747  0.0717 -0.2679 -0.0402
35558W        W78611   1.766   0.431  21.236  0.1592  0.0378  0.2968
35559W        W78612   0.158  14.155  18.708 -0.0481  0.0155 -0.1201
35560W        W78613  29.468  28.021  26.897 -0.3910  0.3100 -0.0491
35561W        W78614  28.675   4.929  14.042  0.0480  0.2133  0.0047
35562W        W78615  13.538  21.560  18.928 -0.3280 -0.2829 -0.0214
35563W        W78616   7.811  18.047  16.603  0.1603 -0.1103 -0.1059
35564W        W78617  18.079  31.867  26.205  0.0567 -0.3171  0.1817
35565W        W78618   1.962  10.177  22.692 -0.0937  0.1017  0.1362
35566W        W78619  30.041   6.751  24.240  0.2026 -0.3764 -0.0264
35567W        W78620  31.440  31.151  14.697 -0.2797  0.1428  0.3596
35568W        W78621  34.153  25.596   1.468 -0.2003  0.0931  0.0803
35569W        W78622  23.494  32.196  15.042  0.1013 -0.4037  0.1053
35570W        W78623   4.543  16.564  14.803 -0.3414 -0.0597 -0.1907
35571W        W78624  14.208  24.715   0.350 -0.2292 -0.1573  0.1392
35572W        W78625   3.372  30.121  24.914  0.1547  0.1839 -0.0432
35573W        W78626  32.237  16.927  22.966 -0.0038  0.0890 -0.1010
35574W        W78627   1.057  11.917  14.686  0.0375  0.2792 -0.0413
35575W        W78628  18.908  18.328  14.315  0.1022  0.1640 -0.0420
35576W        W78629  29.191  20.785  16.492 -0.0233 -0.0743 -0.1324
35577W        W78630   2.522  13.595  16.136  0.1187 -0.0453  0.0431
35578W        W78631  26.338  19.982  20.219  0.0308  0.0981 -0.2851
35579W        W78632  16.812   7.905  22.254 -0.1746  0.0781  0.0141
35580W        W78633   5.671  16.892  23.288 -0.0765  0.0760  0.0258
35581W        W78634  27.359  17.438  22.392  0.2646  0.0754  0.0975
35582W        W78635  15.267  26.887  15.462 -0.1507  0.0952  0.2211
35583W        W78636  27.720  12.566   0.579  0.0617  0.1405 -0.1512
35584W        W78637  27.688   7.121  21.408 -0.0025 -0.1508  0.1376
35585W        W78638  29.434  27.107  15.225  0.1154 -0.0618 -0.1926
35586W        W78639   1.232   9.641  24.515  0.0109  0.2187  0.2246
35587W        W78640  28.923  12.317  22.242  0.0777  0.0679 -0.0753
35588W        W78641  31.635  12.826  21.049 -0.0440 -0.0048  0.1679
35589W        W78642  12.257  15.491  21.027 -0.2023 -0.1617 -0.0553
35590W        W78643  28.093   0.630  24.939 -0.2369 -0.3308 -0.2235
35591W        W78644  32.060  15.107  22.209 -0.1683 -0.1107 -0.0590
35592W        W78645   0.181  26.447  23.151 -0.4533  0.1606 -0.0692
35593W        W78646   7.678   0.129  21.895  0.0099 -0.0310 -0.2463
35594W        W78647  20.482   7.997  18.502 -0.1790  0.2772  0.1077
35595W        W78648  24.371  16.564  20.025  0.0080  0.0203  0.1676
35596W        W78649   0.660   7.557  20.325  0.3417 -0.0299  0.1701
35597W        W78650  34.124  29.232  22.492 -0.1768  0.1370 -0.1222
35598W        W78651   0.106   8.401  19.124 -0.0123 -0.1476 -0.0004
35599W        W78652  27.909  12.914   3.560  0.0126  0.0650 -0.2747
35600W        W78653  27.758  13.968  23.610  0.2397 -0.0153  0.0349
35601W        W78654  26.265   3.369  16.825  0.2223  0.0155 -0.0626
35602W        W78655   1.424  11.256  23.558 -0.2647  0.4393  0.0491
35603W        W78656  26.380  20.435  24.884 -0.0401 -0.1287 -0.0342
35604W        W78657  31.937  14.760  21.044 -0.0089  0.1726 -0.2985
35605W        W78658   0.753  24.933  16.628 -0.2559  0.1577  0.0681
35606W        W78659  22.606  16.799  22.171 -0.1635 -0.1925  0.2450
35607W        W78660   1.952  24.297  22.951 -0.1245  0.3381 -0.1305
35608W        W78661   5.362  16.068  24.116  0.3041  0.0097  0.1509
35609W        W78662   1.834  14.259  14.624  0.0722  0.0771  0.2347
35610W        W78663   1.454   9.136  14.406  0.0478  0.1449 -0.0729
35611W        W78664  29.957  18.397  15.580  0.2000  0.0985 -0.0528
35612W        W78665  10.959  29.470  22.131 -0.2913  0.1805 -0.0292
35613W        W78666   6.305   8.252  20.565 -0.0551  0.1446 -0.0724
35614W        W78667  18.320  10.905  16.143 -0.3559  0.4050  0.1387
35615W        W78668  21.455  10.063  23.549 -0.0228 -0.0320 -0.2240
35616W        W78669  29.378  14.904  14.333 -0.0655 -0.0893  0.1223
35617W        W78670   1.678  15.011  23.313  0.2075  0.1082  0.1563
35618W        W78671  20.873   3.768  27.283 -0.2983 -0.4439 -0.1944
35619W        W78672  30.150  12.792  22.493  0.1154  0.1521  0.0501
35620W        W78673   5.372  17.752  15.486 -0.1924  0.1569  0.0225
35621W        W78674  10.916  14.896  19.070  0.2662 -0.0269  0.2168
35622W        W78675   5.294  10.124  23.511  0.0458 -0.1085  0.0635
35623W        W78676   9.466  30.818  25.042 -0.0860 -0.2226  0.0706
35624W        W78677  13.828  19.435   8.034  0.4726 -0.0346  0.0953
35625W        W78678  20.082  30.393  25.830  0.1362  0.0058 -0.2149
35626W        W78679   8.820   4.671  17.338  0.2080 -0.4484 -0.1805
35627W        W78680  17.633  13.806  14.153  0.2254  0.2228  0.1023
35628W        W78681   0.805  24.810  19.682  0.5023  0.1975  0.1049
35629W        W78682  33.872  24.664  25.249 -0.5436 -0.0957  0.1360
35630W        W78683   6.922   8.636  19.613  0.0284  0.3241 -0.0743
35631W        W78684  30.256   3.041  17.611  0.3162  0.0949 -0.1622
35632W        W78685   0.516  31.930  23.166 -0.2734  0.0636  0.2028
35633W        W78686  10.417   6.348  18.558 -0.1502 -0.0482  0.2676
35634W        W78687  21.621   4.069  20.819  0.0452 -0.0384  0.3836
35635W        W78688  22.897  14.230   3.463  0.0471  0.1298 -0.1923
35636W        W78689   5.622   8.731  25.589 -0.1999  0.1262 -0.1244
35637W        W78690  16.900  22.455  18.919 -0.0361  0.2575 -0.0809
35638W        W78691  21.838  13.658  18.022  0.2047  0.0444 -0.0579
35639W        W78692  18.656   9.027  22.911  0.0634  0.1806 -0.1235
35640W        W78693  26.224  19.169  24.738 -0.1253 -0.2592 -0.1815
35641W        W78694  23.525   4.186  15.968 -0.2207 -0.1162 -0.1338
35642W        W78695   7.536   5.251  24.833 -0.0761  0.0749  0.0911
35643W        W78696  21.738   9.019   0.565  0.0840 -0.0700  0.1837
35644W        W78697  33.585  20.601  22.907 -0.2310 -0.0252  0.0535
35645W        W78698  25.834  25.804  23.600 -0.3371  0.1814  0.2918
35646W        W78699  21.188  20.209  24.200 -0.5736 -0.0464  0.0740
35647W        W78700  24.724  28.175  18.194  0.3759 -0.0956 -0.3945
35648W        W78701  20.963  29.337  18.796 -0.3144  0.0136  0.2487
35649W        W78702  16.848  21.648  24.524  0.1294 -0.1380  0.0946
35650W        W78703   2.380  18.123  21.972 -0.1524  0.1877 -0.0749
35651W        W78704   4.262  12.246  15.170 -0.1180  0.0074 -0.0305
35652W        W78705  31.861   6.241  16.561 -0.0058 -0.0323  0.1943
35653W        W78706  13.376  30.116  14.888  0.2560  0.1576 -0.0099
35654W        W78707  27.686   2.001  25.727 -0.2965  0.2612  0.0447
35655W        W78708  27.065  10.109  14.436 -0.2934  0.0692  0.3060
35656W        W78709  32.270   4.473   2.008  0.1982  0.0756 -0.0195
35657W        W78710  25.739  13.996  14.618 -0.3732  0.1824 -0.0243
35658W        W78711  31.117   4.148   4.824  0.0276 -0.2576 -0.1757
35659W        W78712  23.856  23.477  14.892  0.1102  0.1815 -0.0660
35660W        W78713  14.396  24.652  24.909  0.2321 -0.3656 -0.0039
35661W        W78714   3.279  11.588   0.811 -0.0330 -0.0033  0.1619
35662W        W78715  32.657   9.344  21.664  0.1200 -0.1573  0.1024
35663W        W78716   0.686   1.284  14.316 -0.0712 -0.0345 -0.3072
35664W        W78717  17.193   6.829  16.023 -0.1007 -0.1201  0.0561
35665W        W78718   3.378  15.901  13.926 -0.0353  0.0602  0.0875
35666W        W78719  33.257  15.519  16.447  0.3117  0.1280  0.1457
35667W        W78720   0.430  21.477  20.889 -0.1245  0.1778 -0.0899
35668W        W78721  30.868   2.978  22.094  0.0565 -0.5061  0.3338
35669W        W78722  33.973  12.600  27.805  0.0481  0.0367 -0.5285
35670W        W78723  32.243  19.788   5.988 -0.2815  0.2310  0.0290
35671W        W78724  18.139  19.737  24.999  0.0835 -0.1257  0.2596
35672W        W78725  26.411   2.407  21.498 -0.0307  0.2623  0.0563
35673W        W78726   6.851  32.769  16.007  0.1788  0.1732  0.3513
35674W        W78727   6.578   7.114  23.168  0.3725  0.0875  0.0392
35675W        W78728   2.729   5.163  24.640  0.0072  0.3192  0.1963
35676W        W78729   4.595  25.251  19.372  0.0126 -0.0454 -0.1803
35677W        W78730  10.408   7.262  22.635  0.1542  0.0519 -0.0335
35678W        W78731  24.088   2.610  15.959  0.0409  0.1258  0.1643
35679W        W78732  34.076  14.870  17.767  0.0916 -0.3655  0.1054
35680W        W78733  33.416  12.954  25.437  0.0764  0.2350  0.1383
35681W        W78734  32.743   6.452  24.614 -0.1096 -0.1492 -0.2384
35682W        W78735  27.126   4.114  17.405  0.1804  0.0121  0.2372
35683W        W78736   4.615  18.635  22.081  0.0471  0.0931  0.0713
35684W        W78737  30.579   1.543   5.124  0.1817  0.2018  0.0728
35685W        W78738  18.849  20.207  23.389 -0.1227 -0.1198 -0.1105
35686W        W78739  10.381  11.132  24.042  0.1614  0.3000 -0.0001
35687W        W78740   8.976   2.272  24.110  0.3262 -0.0692  0.3352
35688W        W78741   3.611  22.444   4.443  0.1935  0.1435  0.0658
35689W        W78742  32.247  10.667  19.686  0.2236  0.0871  0.1208
35690W        W78743  23.332   0.364  19.354 -0.0872  0.0430 -0.1982
35691W        W78744   0.152  29.155  22.840 -0.2561  0.0047  0.0925
35692W        W78745   2.453  12.786   2.824  0.0259 -0.1667  0.1759
35693W        W78746  26.766  13.905  19.865  0.1343 -0.2172 -0.1246
35694W        W78747  23.158  10.064  16.843 -0.2038 -0.1601  0.1334
35695W        W78748  32.104  18.975  24.647  0.2463  0.0841 -0.1724
35696W        W78749  11.866  17.449  22.169  0.0124 -0.2872 -0.1793
35697W        W78750  31.051  16.127  17.337 -0.1598  0.3721 -0.4113
35698W        W78751  14.800  30.269   7.204 -0.0639 -0.0530  0.1790
35699W        W78752   2.201   5.166   8.092 -0.0264  0.0600 -0.1805
35700W        W78753  27.724   1.360  15.326  0.1316 -0.1600  0.3031
35701W        W78754  30.493  14.618  19.498 -0.0597 -0.2091 -0.3106
35702W        W78755   6.265  16.316  15.743 -0.0500  0.0958  0.0460
35703W        W78756  30.353  17.084  19.710  0.1728 -0.0129 -0.0630
35704W        W78757  28.169  24.244  23.414  0.5272 -0.1238 -0.0065
35705W        W78758  29.455  19.310  28.496 -0.2071 -0.0549 -0.1519
35706W        W78759  15.176  11.982  18.806 -0.0743  0.3753 -0.1506
35707W        W78760  25.013  23.140   7.152  0.0380 -0.0993 -0.1536
35708W        W78761  32.880  19.716  15.346 -0.0166  0.2397 -0.3052
35709W        W78762  14.488   8.060  16.628 -0.0341 -0.0765 -0.0778
35710W        W78763  22.019  34.122  20.897 -0.0672 -0.0482  0.1134
35711W        W78764  10.801  33.552  14.488  0.1988  0.0843 -0.0514
35712W        W78765   9.044   7.457  24.125  0.1827 -0.1218 -0.5373
35713W        W78766  14.358   3.794  24.748 -0.1080  0.1601  0.1459
35714W        W78767   4.198  10.801  16.647 -0.0255 -0.4079 -0.4917
35715W        W78768  28.416  24.675   3.596 -0.0660 -0.2214 -0.0095
35716W        W78769   1.096  11.929  20.042 -0.1181  0.0546 -0.1410
35717W        W78770  31.461   4.548  15.799  0.0884  0.1776 -0.2511
35718W        W78771  32.103  11.571  16.323 -0.1478  0.0025 -0.1584
35719W        W78772  29.201  18.449   7.787  0.1510 -0.2069  0.0058
35720W        W78773   0.401  26.197  21.902 -0.3216  0.2782  0.1187
35721W        W78774  33.755  27.652  14.998 -0.2015  0.1143 -0.1270
35722W        W78775  34.271  25.190  20.181  0.0172 -0.1398 -0.1598
35723W        W78776   8.900   6.856  17.069 -0.1376 -0.2333  0.3752
35724W        W78777  18.108  10.486  23.527  0.1221  0.1479  0.2473
35725W        W78778  30.517  14.545   6.956 -0.2464 -0.0261  0.0777
35726W        W78779   5.970  20.469  16.112 -0.2399 -0.0705  0.0162
35727W        W78780   5.422   8.366  28.389  0.2936 -0.0026  0.0268
35728W        W78781   7.906  12.510  28.490  0.1058  0.1430 -0.0795
35729W        W78782   1.682  14.295  15.079 -0.1451 -0.2695  0.1434
35730W        W78783  14.557  20.518  24.498 -0.1182 -0.0290  0.0746
35731W        W78784  25.583  23.195  22.882  0.0634 -0.1726  0.0012
35732W        W78785  27.857   3.459  19.715 -0.1241  0.2938  0.5367
35733W        W78786   3.013  15.345  20.432  0.6281  0.1158  0.0018
35734W        W78787   4.887  29.779  24.868  0.2979  0.5382  0.0727
35735W        W78788  33.686  13.605  27.513 -0.2120  0.0301  0.1786
35736W        W78789  17.999  14.707  15.632  0.1450 -0.1161 -0.4623
35737W        W78790  25.749   0.003  18.215  0.2540  0.0520 -0.1493
35738W        W78791  32.164  13.214  16.361  0.1020 -0.0183  0.1302
35739W        W78792  18.711  12.593  14.135 -0.2246 -0.0038  0.1781
35740W        W78793  27.966  22.026  14.548  0.1769 -0.1348 -0.2843
35741W        W78794   0.684   1.744   9.638  0.1155  0.1741 -0.0263
35742W        W78795   6.007  15.107  19.228 -0.0136  0.0449 -0.0703
35743W        W78796  12.725   3.175   5.603 -0.0141 -0.1472 -0.0397
35744W        W78797  33.013  16.327  18.207 -0.3552 -0.0614  0.3637
35745W        W78798  17.454  26.044  23.044  0.2814 -0.3065  0.2447
35746W        W78799   6.809  16.794  21.012  0.0774 -0.0973 -0.1594
35747W        W78800  28.967  18.820  15.179  0.1785  0.0531  0.1481
35748W        W78801   6.474   2.233   3.337  0.1067  0.1851  0.2698
35749W        W78802  34.678  18.887  22.570  0.3169  0.2320 -0.0550
35750W        W78803  31.893   2.171  23.357 -0.2852 -0.0440 -0.2451
35751W        W78804  28.691  30.156  27.392 -0.5981  0.0456 -0.1251
35752W        W78805   1.274   9.593  17.549 -0.2004  0.1006  0.1258
35753W        W78806   1.276  17.472  28.350  0.0017  0.0215  0.0491
35754W        W78807  33.562   6.749  25.033  0.0794 -0.0876 -0.1504
35755W        W78808  16.157  12.985  23.469  0.0207 -0.0202 -0.2688
35756W        W78809  29.964   3.200   7.965 -0.3183 -0.0141  0.1610
35757W        W78810   8.798  21.333  18.268  0.4395 -0.0347 -0.2238
35758W        W78811   4.859   1.663  19.152  0.0086 -0.0996 -0.4648
35759W        W78812  13.599  25.171   7.336 -0.2174  0.0169 -0.4228
35760W        W78813  24.613  27.541  17.975 -0.1856  0.0838  0.0014
35761W        W78814   0.010  10.365   3.690  0.3931 -0.0917 -0.3010
35762W        W78815  21.785  28.730   2.071  0.1815  0.2293  0.1118
35763W        W78816  11.692   3.539   4.734  0.1561  0.3751  0.0959
35764W        W78817  33.105   1.893   1.018 -0.0383 -0.0349 -0.2893
35765W        W78818  34.284  13.895  14.802 -0.1863  0.2138  0.0838
35766W        W78819  18.185  22.528  26.254 -0.1293  0.0637  0.3566
35767W        W78820   6.355  28.222  15.253  0.1926  0.2769  0.1654
35768W        W78821  32.081  21.046   3.501 -0.0692  0.1613 -0.0636
35769W        W78822   1.217  22.194  17.336 -0.3104 -0.0890 -0.2936
35770W        W78823  32.022   4.747  19.784  0.0871  0.1886  0.4331
35771W        W78824  34.422  12.005  22.048  0.1547 -0.0170  0.0258
35772W        W78825  27.225  15.918  28.148 -0.1364  0.0087 -0.0670
35773W        W78826  32.599  12.074  20.410  0.4390  0.0270  0.2982
35774W        W78827   3.979  15.023  23.364 -0.0980  0.1716  0.1375
35775W        W78828  33.370   0.240  23.700 -0.1333  0.3353  0.2821
35776W        W78829   2.388  12.976  16.522  0.1263 -0.0610 -0.2430
35777W        W78830  24.342  12.074  20.728  0.0184 -0.1637 -0.1537
35778W        W78831   2.906  21.341  21.582 -0.2587  0.1726 -0.1366
35779W        W78832  22.938   7.161  17.747 -0.2578  0.1539 -0.0422
35780W        W78833  15.729  17.822   5.809  0.1062  0.1346 -0.2815
35781W        W78834  32.885  24.115  24.757 -0.2005  0.1056  0.0020
35782W        W78835  34.533   3.094   8.937 -0.1407  0.1892  0.0684
35783W        W78836   3.448  34.441  16.873  0.0742  0.2538  0.2702
35784W        W78837  31.863  11.504   0.463 -0.0190  0.0494  0.0697
35785W        W78838  18.811   5.754  19.434  0.3587  0.1981  0.0288
35786W        W78839  32.790  10.297   1.548 -0.0893  0.0748  0.2845
35787W        W78840  26.367   9.459  16.184  0.0444 -0.2067 -0.1179
35788W        W78841  29.625  28.207  14.611  0.1773 -0.1346 -0.1588
35789W        W78842  33.710  25.318  26.972  0.0803 -0.1963  0.0516
35790W        W78843  32.889  22.239  18.451 -0.0162 -0.0926  0.0610
35791W        W78844  29.244  19.738  15.641 -0.2751 -0.0422  0.0796
35792W        W78845  28.507   1.425   0.475  0.0022 -0.1759 -0.0255
35793W        W78846  23.759  10.229  23.567  0.0065 -0.0743  0.2564
35794W        W78847  15.330   2.196  22.389 -0.2042 -0.1840 -0.0629
35795W        W78848  30.343  27.860  22.988 -0.1085 -0.2148  0.2735
35796W        W78849  31.654   0.544  20.872 -0.1427 -0.1859  0.5013
35797W        W78850  12.486   9.178  26.077  0.1007 -0.1190  0.1713
35798W        W78851  25.913  18.858  28.867  0.0433  0.0707 -0.2914
35799W        W78852  17.425  15.456  25.886  0.0017  0.2302  0.3541
35800W        W78853  24.616  31.641  24.334 -0.0976 -0.0589 -0.0761
35801W        W78854  21.857  32.301  19.920 -0.2206  0.0111  0.2806
35802W        W78855  18.511   1.626  17.304  0.1338 -0.1277 -0.1450
35803W        W78856   3.767  12.647  22.159  0.2513 -0.0032  0.0055
35804W        W78857  33.888   4.261  17.371  0.0158  0.3469  0.0428
35805W        W78858   6.300   3.840  25.453 -0.0315  0.0151 -0.0508
35806W        W78859   8.202  29.254  25.428  0.0815 -0.1481  0.1701
35807W        W78860  29.669  26.427  21.795 -0.0783 -0.1333 -0.3322
35808W        W78861   2.191   4.026   6.914 -0.4256 -0.1601  0.3780
35809W        W78862   8.238   8.828   2.011 -0.2405 -0.2689 -0.3049
35810W        W78863   2.501  26.837  19.924 -0.1263 -0.1940 -0.0110
35811W        W78864  18.367  14.078  25.104  0.1396 -0.0796  0.1888
35812W        W78865  24.947  10.659  27.390  0.0275 -0.2407  0.0950
35813W        W78866   9.916  30.115  22.951  0.1859 -0.1536  0.2077
35814W        W78867  29.086  13.789  16.905 -0.1624 -0.0504 -0.1111
35815W        W78868  29.793  34.289   0.553  0.1507  0.0708  0.0259
35816W        W78869   3.355   5.804  19.738 -0.0669 -0.2448  0.2013
35817W        W78870   8.128  25.063  14.898 -0.1292 -0.0607  0.2739
35818W        W78871  28.136  13.387   0.991 -0.2740 -0.1341  0.2417
35819W        W78872   0.007  21.019  14.978 -0.2397  0.1565 -0.2893
35820W        W78873  32.150  13.507  15.652 -0.0857 -0.0554 -0.0090
35821W        W78874  30.122   7.258  26.548  0.0071 -0.4438  0.0593
35822W        W78875  29.801  25.140   9.781 -0.2329 -0.1708 -0.0923
35823W        W78876  31.244   9.326  18.916 -0.3117 -0.3121  0.2341
35824W        W78877   2.495   9.800  16.099  0.0621 -0.1005 -0.2193
35825W        W78878  26.566   2.171  27.684 -0.0912  0.0008 -0.1677
35826W        W78879   0.705  13.077  21.646 -0.1002 -0.1325  0.2863
35827W        W78880   5.525  17.937  20.213 -0.2240 -0.1071  0.0970
35828W        W78881  33.111  23.972   3.663  0.1354  0.0322  0.1569
35829W        W78882   2.207  13.814  21.051 -0.0702 -0.1729 -0.0133
35830W        W78883  11.215  11.780   3.517 -0.2728  0.4217  0.2147
35831W        W78884  26.643  19.411  24.941  0.1886  0.0050 -0.0195
35832W        W78885  25.704   0.572  17.811  0.1059  0.4131  0.0645
35833W        W78886   8.430   6.445  26.566  0.1204  0.0325  0.1217
35834W        W78887  32.892  24.735  22.641  0.1943  0.0118 -0.2699
35835W        W78888  22.517  17.478   3.774  0.0115 -0.2076 -0.0212
35836W        W78889   0.715   8.180  16.598 -0.0233 -0.1525 -0.2524
35837W        W78890  28.882  18.601  21.192  0.3083 -0.1698 -0.1017
35838W        W78891   5.884  34.624  22.176 -0.0983  0.4418  0.0795
35839W        W78892  23.958   9.898  16.949 -0.2429 -0.0694 -0.0088
35840W        W78893  11.195   6.691  18.669  0.1093  0.1043  0.1644
35841W        W78894  30.402   7.926  14.951  0.0464  0.2164  0.0438
35842W        W78895  18.526  16.849  13.386 -0.1650 -0.0499 -0.0673
35843W        W78896   9.878  17.681  18.300 -0.3120  0.1142  0.0870
35844W        W78897  19.006  13.052   2.514  0.1804 -0.1249 -0.0471
35845W        W78898   0.040  14.043  14.664 -0.0117 -0.3238 -0.2476
35846W        W78899  33.854   9.660  24.436  0.1227 -0.1672  0.0649
35847W        W78900  24.082  18.231   5.059 -0.3463 -0.1919  0.1899
35848W        W78901   6.856  11.515  14.571 -0.3589 -0.0293  0.0094
35849W        W78902   6.756  29.022   6.511  0.1653  0.1689  0.2685
35850W        W78903   1.551   0.232  16.811  0.0624  0.0407 -0.1324
35851W        W78904  30.569  15.824  18.544 -0.0618 -0.2624 -0.0461
35852W        W78905  15.525  13.520  28.177 -0.1044  0.0402 -0.2518
35853W        W78906  14.659   4.810   1.006 -0.1594  0.1436 -0.0153
35854W        W78907   8.983  15.732   1.093 -0.0035  0.0506  0.0366
35855W        W78908   0.143  13.095  14.959  0.0613 -0.1413  0.3184
35856W        W78909  28.540  19.939  19.785 -0.1113 -0.1295 -0.0783
35857W        W78910  31.794  10.952   7.724 -0.1272  0.2729  0.1155
35858W        W78911  24.316  23.829  20.809  0.0270  0.2474 -0.3059
35859W        W78912   1.102  23.140   9.160 -0.4832 -0.0609  0.0716
35860W        W78913   8.265  33.767  22.743  0.1785  0.2554  0.3405
35861W        W78914   5.194   3.081  22.125  0.0930  0.2753 -0.2519
35862W        W78915   3.534  28.072   1.453  0.1255  0.1311 -0.1666
35863W        W78916   1.740  32.333  16.547 -0.4588 -0.1368 -0.0609
35864W        W78917  30.183   2.743  21.286 -0.0196 -0.1601 -0.1054
35865W        W78918  20.037  11.114  21.545  0.0741 -0.0469 -0.2643
35866W        W78919  29.209   6.473  17.230 -0.0593 -0.0148 -0.1070
35867W        W78920  30.216  15.155  24.935 -0.0885 -0.2121  0.1543
35868W        W78921  27.916  23.967  23.748  0.0789  0.0487 -0.3289
35869W        W78922  30.631  12.349  24.351  0.3134  0.1138  0.1506
35870W        W78923   6.466  18.711  14.761 -0.1675  0.0665  0.3241
35871W        W78924  27.286  12.303  18.836 -0.1104 -0.1694  0.3533
35872W        W78925  33.711  12.315  24.206 -0.2132  0.1220 -0.2913
35873W        W78926  17.619  25.379  17.772  0.1001 -0.1132 -0.2350
35874W        W78927  33.795  25.556  20.522  0.1628 -0.2551 -0.1315
35875W        W78928  28.502  21.082  27.384  0.0058 -0.2363 -0.3114
35876W        W78929  33.166   1.152  20.171  0.0257  0.1668  0.1607
35877W        W78930  26.695   4.165  14.969 -0.0761  0.1489  0.1737
35878W        W78931  29.046  25.519  15.734 -0.0825 -0.0714  0.1138
35879W        W78932   2.137  27.243  21.504 -0.2724  0.0378 -0.1808
35880W        W78933   8.289  21.958  15.245  0.1221 -0.1153 -0.0669
35881W        W78934   0.675  31.703  16.609 -0.1532 -0.0480 -0.4623
35882W        W78935  26.805   1.367  20.386  0.0266  0.0649  0.0471
35883W        W78936   5.793  19.360  25.907 -0.1333  0.2429  0.0978
35884W        W78937   6.166  11.615   8.368 -0.1944  0.2135  0.2736
35885W        W78938  31.865  33.915  22.736  0.2605  0.2999  0.1054
35886W        W78939  27.613  24.647   0.942  0.0355  0.0731  0.2114
35887W        W78940  33.890   3.154   9.248  0.0373 -0.2829 -0.1169
35888W        W78941   8.499  32.475  20.609  0.0021  0.1389 -0.0938
35889W        W78942   4.174  21.256  28.469 -0.0155  0.0373 -0.0046
35890W        W78943  11.783   6.555  22.209 -0.1153  0.2523  0.1326
35891W        W78944  15.636   9.811  21.037  0.1585 -0.1506  0.3757
35892W        W78945   1.841  23.582  20.854  0.1139 -0.1147 -0.0707
35893W        W78946   1.248  17.543  20.440 -0.0493  0.2243 -0.1196
35894W        W78947  31.057   3.033   1.780  0.1871 -0.1850  0.0363
35895W        W78948  20.465  19.740  21.554 -0.4681 -0.1341  0.1633
35896W        W78949   4.094  20.434  25.919  0.0135  0.1383 -0.1059
35897W        W78950  18.615  24.006  25.396  0.1069  0.0741  0.3538
35898W        W78951   3.660  29.142   2.575  0.0441 -0.1990  0.2643
35899W        W78952   1.462  14.650  21.732  0.2617  0.0091 -0.0045
35900W        W78953   1.447  11.137  22.590  0.1581 -0.3634 -0.1174
35901W        W78954   0.200   4.744  19.141 -0.1232 -0.0225  0.2284
35902W        W78955  30.303   7.279  16.721  0.0798 -0.0969 -0.2089
35903W        W78956  24.403  23.738  19.127  0.2263 -0.0450 -0.2028
35904W        W78957   4.773  31.082  15.778  0.0079 -0.0021  0.2312
35905W        W78958   1.026  20.918  17.395 -0.0433  0.2760  0.0857
35906W        W78959  29.438  18.066  24.011 -0.1134 -0.0965  0.1536
35907W        W78960   2.266  18.870  28.765 -0.1526  0.1439  0.1300
35908W        W78961   0.018  27.826   6.047  0.0820 -0.0014 -0.1834
35909W        W78962  25.475  14.013   0.124 -0.1939 -0.0148  0.0325
35910W        W78963  18.026  34.364  24.775 -0.1173 -0.4768  0.0531
35911W        W78964   1.670  10.241  17.114 -0.1367  0.0232 -0.0967
35912W        W78965  26.189  16.022  22.043 -0.0912 -0.1081  0.1122
35913W        W78966  26.178  16.360  14.207  0.1045 -0.0388 -0.1595
35914W        W78967  24.798  22.608  15.951  0.1519  0.0525  0.3369
35915W        W78968  27.479  31.044  25.224  0.2429 -0.1743  0.1445
35916W        W78969  33.861   2.773  20.029 -0.2400  0.1526  0.0349
35917W        W78970  33.221  27.799  26.147  0.0905 -0.1896 -0.2818
35918W        W78971   6.693  18.991  21.454 -0.0550 -0.0744  0.1151
35919W        W78972   2.987  22.167  17.022 -0.1849 -0.2079  0.1292
35920W        W78973   6.522   4.593  19.901  0.1584  0.1504  0.1076
35921W        W78974  31.668  10.734  22.212  0.0260 -0.0341  0.1564
35922W        W78975   3.219  13.160  20.910  0.3409 -0.0711  0.1172
35923W        W78976   5.320   8.981  22.041 -0.0055  0.0196  0.3152
35924W        W78977  22.998   4.544  23.932 -0.0246 -0.3272 -0.1256
35925W        W78978  11.128   7.150   4.928  0.1566  0.0600  0.0058
35926W        W78979  21.240  22.763  17.570  0.0332  0.1221 -0.0522
35927W        W78980  13.612   3.533  22.163 -0.0034 -0.1998  0.3007
35928W        W78981   1.323  10.750  17.629  0.0781 -0.2109 -0.2127
35929W        W78982   2.683   3.243  19.883 -0.0502 -0.1377 -0.1342
35930W        W78983  12.978  28.688  20.774  0.1176  0.1265  0.3121
35931W        W78984  20.230   7.059  25.020  0.0997 -0.3084  0.5116
35932W        W78985  16.995  19.952   6.186 -0.2049 -0.0025 -0.0657
35933W        W78986  33.917  12.913  22.505 -0.0928 -0.1485 -0.0614
35934W        W78987  16.974   4.475  20.682 -0.6625 -0.2953  0.3942
35935W        W78988  13.836  22.269   7.380  0.0696  0.1527  0.1273
35936W        W78989   2.340   7.518  24.864  0.1671 -0.2558 -0.0626
35937W        W78990  14.152   0.016  15.161 -0.1651  0.5261  0.2217
35938W        W78991  29.839  16.860  17.752  0.0673 -0.2467  0.1044
35939W        W78992  23.613  14.415  25.530  0.0092 -0.0708 -0.2005
35940W        W78993  17.958   1.027  15.977 -0.0897  0.3341 -0.0252
35941W        W78994  32.321  12.831  16.648  0.0848  0.0527 -0.0800
35942W        W78995   6.300  26.540  13.643  0.1165 -0.1211  0.3081
35943W        W78996  30.641  14.729  16.148  0.0832  0.0071  0.0534
35944W        W78997   7.301   9.618  15.469  0.2240  0.2380  0.1956
35945W        W78998   7.948   2.109  23.495 -0.2268 -0.2684  0.0777
35946W        W78999   1.831  27.254   0.681  0.0521 -0.5387  0.0999
35947W        W79000   3.766   7.520  20.461 -0.1838  0.1176  0.0100
35948W        W79001  28.338  17.617  21.111 -0.0365 -0.0335  0.5684
35949W        W79002  12.925   7.277  25.948  0.2246 -0.2587 -0.1714
35950W        W79003  19.854  23.847  22.367  0.2418 -0.0391 -0.0283
35951W        W79004  28.010   9.001  28.187 -0.2766  0.0963 -0.0261
35952W        W79005   5.920   0.990   0.232 -0.0761  0.1688 -0.0201
35953W        W79006  22.669  13.010  15.189  0.2810  0.2547 -0.0840
35954W        W79007   5.561   0.068  25.530 -0.0083  0.0132 -0.0786
35955W        W79008   2.991  14.350   5.907 -0.0507  0.0265  0.1945
35956W        W79009  25.416   6.106  15.278  0.2562  0.2706  0.2346
35957W        W79010  33.075   6.911  19.322  0.1976  0.1497 -0.2290
35958W        W79011  22.771   9.361  24.048  0.3378  0.1703 -0.1085
35959W        W79012  31.547  30.648  14.525  0.2642  0.1619  0.0692
35960W        W79013   2.727  14.394   6.621  0.1590  0.2878  0.0725
35961W        W79014  31.573  21.204  15.382  0.0683  0.2549  0.0775
35962W        W79015  20.988   6.263  21.169  0.1132 -0.0096  0.0641
35963W        W79016   6.282  13.685  22.521  0.2468  0.1432 -0.1800
35964W        W79017  30.592  10.889   3.620 -0.1725  0.0842 -0.2080
35965W        W79018   7.043   5.270   2.532 -0.1892  0.0686 -0.4174
35966W        W79019  26.630  17.124  23.337 -0.0298  0.1051 -0.0422
35967W        W79020  11.381   5.863  19.103  0.2374 -0.0452 -0.1450
35968W        W79021  25.378  16.024  13.725 -0.0625  0.1171  0.1183
35969W        W79022   1.823  19.350  14.581 -0.2247  0.1251 -0.0038
35970W        W79023  30.549  14.635  22.938  0.3256 -0.2086 -0.2957
35971W        W79024  20.905   9.299  25.324  0.0660  0.3433  0.3569
35972W        W79025  32.416  13.682   3.593 -0.1396  0.0977  0.2231
35973W        W79026   0.976  16.408  21.754  0.1286 -0.0085 -0.3738
35974W        W79027  33.250  24.793  15.932  0.1560 -0.0380  0.0746
35975W        W79028   6.546   0.907  24.454 -0.1371  0.0770  0.2316
35976W        W79029  31.643  23.277  28.353 -0.1294  0.2706 -0.1597
35977W        W79030  34.537  17.451  19.407 -0.1022 -0.0913  0.0212
35978W        W79031   4.175  32.836   2.136 -0.3299 -0.2132 -0.0221
35979W        W79032   6.580  12.800  27.647 -0.4224  0.2567  0.3371
35980W        W79033  14.918   1.216  19.530 -0.0976  0.0578 -0.2822
35981W        W79034   8.260   3.168  25.722 -0.0128 -0.2508  0.1418
35982W        W79035  17.537  13.048  16.121 -0.1130 -0.1092 -0.0746
35983W        W79036   0.959  23.911  17.747  0.1984  0.1857  0.1430
35984W        W79037   3.448  24.996  23.520  0.4306  0.1765 -0.0615
35985W        W79038  30.584  34.083  26.906 -0.0842 -0.1987 -0.0337
35986W        W79039  26.407  31.451  16.533  0.0218 -0.1632  0.2608
35987W        W79040   0.578  24.891  23.590 -0.3346  0.2211 -0.0795
35988W        W79041   1.575  14.536   1.003  0.1708 -0.1509  0.1978
35989W        W79042   6.038   3.049   1.894  0.0691 -0.0395  0.1210
35990W        W79043   8.837  10.397  21.774 -0.0492  0.0310  0.0971
35991W        W79044   8.112  20.654   2.807 -0.0594  0.3356 -0.4586
35992W        W79045   5.933  18.208  18.960 -0.1448 -0.1655 -0.3258
35993W        W79046   2.077  13.415   1.515 -0.4243  0.0428 -0.1940
35994W        W79047   4.821  13.181  22.780 -0.3171 -0.3156  0.1285
35995W        W79048   3.794  29.970  22.805 -0.1180 -0.1040  0.0467
35996W        W79049  19.593  30.056  19.641  0.0832  0.4607  0.0063
35997W        W79050  31.210  32.593  21.915  0.3742  0.2008 -0.3166
35998W        W79051  14.536  15.693   6.671  0.0516 -0.2021 -0.1915
35999W        W79052  33.613   3.485  18.999 -0.2562 -0.0063  0.1764
36000W        W79053  19.891  13.945  16.483  0.1559 -0.0943  0.3662
36001W        W79054  25.745   6.115  27.749 -0.2684 -0.0824  0.4354
36002W        W79055   0.786  25.535  25.136 -0.0381 -0.0403  0.4070
36003W        W79056  34.585  32.938  13.993  0.3508  0.0916 -0.0773
36004W        W79057  23.852  29.661   3.818 -0.1050 -0.2388  0.0526
36005W        W79058   2.473  12.531  16.698  0.4292 -0.2835  0.1160
36006W        W79059  25.411   9.922  14.741  0.0182 -0.0381 -0.2539
36007W        W79060  30.261  10.457   5.830 -0.0250 -0.0668  0.2154
36008W        W79061  23.740   8.290  20.756 -0.2082  0.0130  0.1486
36009W        W79062  25.613  13.049  20.822 -0.0262  0.0820 -0.0537
36010W        W79063  10.728  15.046  28.507  0.2693  0.1956 -0.0169
36011W        W79064  11.542   2.295   0.997  0.0365 -0.0504  0.1122
36012W        W79065  25.919   5.568   3.818  0.0069 -0.0836 -0.0273
36013W        W79066   1.103   9.688  16.597  0.2503 -0.2339 -0.1642
36014W        W79067  12.616  17.321  23.341 -0.3564 -0.0023  0.3087
36015W        W79068  18.624   4.770  25.119 -0.0231 -0.2170  0.2776
36016W        W79069   0.289  13.420  27.914 -0.0321  0.1203  0.1582
36017W        W79070  29.055  28.257  23.656  0.0528  0.1052  0.0657
36018W        W79071  30.222  25.213  15.892 -0.3662  0.1355 -0.0892
36019W        W79072  29.028   4.843   2.724  0.2134  0.3949 -0.1918
36020W        W79073  28.132  31.808  23.734  0.0211 -0.3258 -0.1360
36021W        W79074   4.545  24.261  24.340 -0.3391 -0.2153  0.1314
36022W        W79075  31.503  12.232  22.864  0.0944  0.0117  0.2318
36023W        W79076   4.977  20.981  16.382 -0.1411 -0.2817  0.0700
36024W        W79077   0.890  30.316  15.261  0.1529 -0.1199 -0.0553
36025W        W79078  31.797  21.556  16.176 -0.1482 -0.0454  0.0121
36026W        W79079  14.787   5.842  22.173 -0.0877  0.0337 -0.1944
36027W        W79080   5.290  34.286  27.063  0.1439 -0.1614  0.1263
36028W        W79081  24.476  16.513  23.115 -0.0656  0.1464  0.0957
36029W        W79082  22.345  16.845  26.872 -0.2120 -0.1657  0.2898
36030W        W79083   4.408  14.043   3.614 -0.1894 -0.1593  0.2959
36031W        W79084   6.288   9.054  16.602  0.1317 -0.3147  0.2930
36032W        W79085  25.884  29.260  27.516 -0.0863 -0.1456  0.1154
36033W        W79086  26.169  13.500  21.326  0.0630 -0.1627  0.1314
36034W        W79087  27.527   9.348  23.896  0.1479  0.1552 -0.0389
36035W        W79088  31.272  18.965  23.094 -0.1541  0.1064 -0.0096
36036W        W79089  34.194  28.446   6.794  0.1841 -0.0357 -0.0749
36037W        W79090   7.213  10.643   0.717  0.2598 -0.0236  0.1213
36038W        W79091  29.568  19.484   1.707  0.1338 -0.1770 -0.3036
36039W        W79092  29.833  12.830  20.337  0.2022  0.0364  0.0089
36040W        W79093  33.331  11.673  20.889  0.0004  0.1746 -0.3004
36041W        W79094   2.061  17.056  14.677  0.1090 -0.1718 -0.0693
36042W        W79095   6.018  30.343  19.551  0.1248 -0.1815 -0.1276
36043W        W79096  32.091  13.600  17.035 -0.1679  0.4067  0.2650
36044W        W79097   1.765  17.078  25.355  0.3369  0.0253 -0.2908
36045W        W79098  28.565  21.900   3.384 -0.0901  0.2197  0.0728
36046W        W79099  10.497  19.594  29.050 -0.0104  0.0459  0.1855
36047W        W79100   0.305  14.017  15.529  0.0497  0.1371  0.1565
36048W        W79101  18.350   1.051  23.873 -0.0520  0.1640  0.3351
36049W        W79102  30.606  32.109   0.585  0.1591 -0.2863  0.0998
36050W        W79103   1.683  13.064  22.640 -0.0242  0.3048  0.1900
36051W        W79104  25.299  17.188  14.680  0.3309  0.1683  0.1549
36052W        W79105  27.474   7.876   6.528 -0.1778 -0.0209  0.1640
36053W        W79106  22.734   1.445  26.093  0.0298 -0.1603 -0.0197
36054W        W79107   1.820  22.846  22.041 -0.1175 -0.6337  0.1557
36055W        W79108   9.266   0.178  17.583  0.2872  0.1925  0.1654
36056W        W79109  25.933  10.719  27.924  0.2343 -0.0549  0.0132
36057W        W79110   9.743   5.856  15.426 -0.3361  0.0036  0.1505
36058W        W79111  13.290  13.667   4.056  0.5118  0.2914  0.0905
36059W        W79112  29.741  25.056  18.906  0.2532  0.1702  0.0074
36060W        W79113  21.975  34.126  25.996 -0.0431  0.0640 -0.0281
36061W        W79114  16.077  26.629   2.425 -0.1555 -0.1080  0.4586
36062W        W79115  15.860  10.821  27.265 -0.1625 -0.1075  0.0713
36063W        W79116  30.067   0.472  15.289  0.2314 -0.1301 -0.3799
36064W        W79117  15.892  17.429  14.376 -0.1041  0.2589  0.3901
36065W        W79118   3.149  17.327  13.820 -0.0934  0.1237  0.0486
36066W        W79119  28.492  32.107   0.910  0.2993 -0.2583 -0.0835
36067W        W79120  30.795   8.320  18.196 -0.1702 -0.1685  0.0198
36068W        W79121  25.912  30.969  28.247  0.2234  0.1801  0.2750
36069W        W79122  10.058  19.641   3.167 -0.0303 -0.1632  0.0911
36070W        W79123   1.929  10.482   2.365  0.2774  0.0310  0.1919
36071W        W79124  28.852  16.130  23.612  0.2242  0.1636 -0.1340
36072W        W79125  21.905   5.395   0.446  0.0785  0.3229 -0.0391
36073W        W79126   1.835  33.364  20.776 -0.0140  0.0966 -0.0432
36074W        W79127  25.568  19.405  22.384  0.0237  0.4175 -0.2887
36075W        W79128  30.525  32.058  16.523 -0.0639  0.0003 -0.4052
36076W        W79129  27.197   7.086  22.956  0.0524 -0.0301 -0.1947
36077W        W79130  22.939  10.281  15.392  0.2225 -0.1393 -0.0366
36078W        W79131   8.314  10.881  21.875 -0.0475 -0.1030  0.4426
36079W        W79132   3.099  24.401  27.728 -0.0066  0.0293 -0.0375
36080W        W79133  29.770  28.764  24.716  0.1885 -0.1629 -0.3847
36081W        W79134  13.136   5.987  19.308  0.1353 -0.2575  0.1757
36082W        W79135  27.875  16.075  24.989 -0.1461 -0.0766  0.1443
36083W        W79136  33.073   4.279   3.922  0.2186 -0.2793  0.1955
36084W        W79137  29.349  28.522  24.958  0.1930 -0.1170 -0.4278
36085W        W79138  28.698  24.391  23.323  0.2274 -0.3091  0.0048
36086W        W79139  29.228   3.809  18.158  0.0766 -0.0090  0.0741
36087W        W79140   9.039  21.514  21.684  0.3017 -0.1415 -0.0738
36088W        W79141  33.880   5.588  22.126 -0.0050  0.2052 -0.1451
36089W        W79142  13.392   2.600  10.045 -0.0843 -0.0708  0.1232
36090W        W79143  25.335   5.943  19.522 -0.0350 -0.0894  0.0480
36091W        W79144  20.566  30.405   3.420  0.3269  0.0197  0.0859
36092W        W79145  16.603   9.608   0.173 -0.1920 -0.0900 -0.2288
36093W        W79146  23.126  28.602  14.117  0.1831  0.1990 -0.4193
36094W        W79147  29.366  11.235  14.565 -0.1130  0.1795 -0.0452
36095W        W79148  10.347  28.955  20.403  0.2888  0.0170  0.1859
36096W        W79149  24.122  14.662  15.258 -0.1374  0.2299 -0.1427
36097W        W79150  26.628  13.553  23.519  0.0752 -0.0886 -0.1909
36098W        W79151  32.022  32.648   9.096 -0.0074  0.2985  0.1388
36099W        W79152   5.576  14.712   4.419 -0.0353 -0.2212 -0.2020
36100W        W79153  24.495   4.592  13.945  0.0418  0.1303  0.0194
36101W        W79154   5.687  10.253   8.283 -0.2610 -0.0830 -0.0670
36102W        W79155   6.998  10.307  22.419  0.0237  0.1066  0.0789
36103W        W79156  27.005  30.114   8.284  0.0958 -0.0154 -0.1617
36104W        W79157  25.847  19.109  16.807  0.1134 -0.1817  0.0278
36105W        W79158   5.991  13.905  19.353  0.0104 -0.1850 -0.2208
36106W        W79159  24.094  33.522  24.619 -0.1032  0.2144 -0.0177
36107W        W79160   0.601  23.052   9.188 -0.1912 -0.3142  0.2477
36108W        W79161  29.761   5.411  26.046  0.0125  0.0425  0.1926
36109W        W79162   3.226  18.128   4.258 -0.3426  0.2272 -0.1132
36110W        W79163  26.074  15.923   1.027  0.0085 -0.3377 -0.0180
36111W        W79164   6.655  25.258  13.502  0.1692  0.2181 -0.0600
36112W        W79165  28.209   8.967   0.554 -0.0374  0.1564  0.2437
36113W        W79166  20.850  13.312  19.490  0.0077  0.1926 -0.2157
36114W        W79167  31.955  16.194   1.208  0.0255 -0.1956  0.0035
36115W        W79168   1.148  10.270  18.571  0.2128  0.3419  0.3651
36116W        W79169   1.191  12.136  15.115 -0.1777 -0.0498  0.1046
36117W        W79170  34.643  32.760  14.940 -0.0306 -0.1766 -0.0873
36118W        W79171  27.482  14.631  19.318  0.0839  0.0565 -0.2013
36119W        W79172  31.346  19.236  17.596  0.1177  0.0772  0.0178
36120W        W79173  33.048   4.097  25.653 -0.4076  0.1582  0.1655
36121W        W79174  33.832  17.080  29.142 -0.0006  0.2948  0.0802
36122W        W79175  28.764  32.368  20.320 -0.1154  0.2649  0.4537
36123W        W79176  31.481  14.654  14.252  0.0305 -0.1678 -0.4840
36124W        W79177  16.859   0.254  22.358 -0.0836 -0.1111  0.2479
36125W        W79178   2.439  18.408   1.836 -0.0259  0.0020  0.3034
36126W        W79179  29.511  24.407  16.655 -0.1981  0.2757 -0.1276
36127W        W79180  18.776  15.933  22.784 -0.0354 -0.4708 -0.0008
36128W        W79181   1.899   1.466  19.127 -0.1157 -0.1094  0.1615
36129W        W79182  28.765  28.358  25.826  0.1304  0.0025 -0.4054
36130W        W79183  34.487  24.148   6.463  0.3609  0.0102  0.0311
36131W        W79184   5.698   9.977   6.012  0.3399  0.0375 -0.1478
36132W        W79185   4.686   0.613   5.990 -0.1756 -0.3499 -0.2252
36133W        W79186  15.390  23.849   8.903 -0.2048 -0.0184  0.0795
36134W        W79187  25.177  11.118   1.499  0.0289  0.0380 -0.1646
36135W        W79188   9.781  25.465   5.146  0.1300  0.0031  0.0820
36136W        W79189  25.197   4.694  18.397 -0.1856 -0.1974 -0.0281
36137W        W79190  26.364  30.015   2.841 -0.2073 -0.2448  0.0032
36138W        W79191  10.923  31.485   0.646  0.0353  0.0240  0.1282
36139W        W79192  33.067  32.010  26.587 -0.1273 -0.0343 -0.0632
36140W        W79193  27.905  34.123  24.198  0.1250 -0.1374  0.1648
36141W        W79194  14.279  20.372  28.701 -0.0300  0.1046  0.1175
36142W        W79195   4.119  28.703   8.261 -0.1823  0.0530 -0.3146
36143W        W79196  12.487  16.793  25.046  0.0579 -0.0194  0.1767
36144W        W79197  34.523   4.616  26.286  0.2319  0.0567 -0.1380
36145W        W79198  16.714  28.268  22.326  0.2199  0.0477 -0.1640
36146W        W79199  29.758  32.217  21.062 -0.0376  0.1726 -0.0544
36147W        W79200  17.222   2.751  28.614 -0.4275  0.1976  0.1969
36148W        W79201   3.232  33.655   2.591 -0.0675  0.3200 -0.0855
36149W        W79202  14.996  18.587  15.551 -0.2606  0.1035  0.0266
36150W        W79203  32.687  14.433  20.569  0.2173 -0.0732  0.0590
36151W        W79204   5.892  20.094  14.083 -0.2394 -0.0580  0.0661
36152W        W79205   1.833  13.586   2.374  0.2325  0.1214 -0.3036
36153W        W79206  14.431  25.342  19.669 -0.0271  0.3298  0.4264
36154W        W79207  32.546  27.100  25.593  0.4601 -0.2470  0.0139
36155W        W79208   3.576  31.913   8.604 -0.1084  0.0628 -0.1072
36156W        W79209  25.530  21.910   1.801  0.0247 -0.0527  0.1428
36157W        W79210  11.715  14.155  17.279 -0.0825  0.1084  0.2620
36158W        W79211  30.357  12.586  28.090 -0.0230  0.4136 -0.1571
36159W        W79212  27.108   0.294   4.981  0.3218  0.0277 -0.0263
36160W        W79213  16.186  17.436   3.070  0.0911  0.0459 -0.2637
36161W        W79214  27.501   7.693  14.226  0.0866 -0.0030  0.2186
36162W        W79215   4.016   7.932  26.090 -0.3994  0.0611  0.0489
36163W        W79216  31.061  27.988  24.511 -0.4438 -0.0853 -0.1406
36164W        W79217  28.697  33.260  15.170 -0.1617 -0.0720 -0.0594
36165W        W79218  25.407  11.531  18.811  0.2014 -0.1204 -0.1377
36166W        W79219   4.253  14.932  28.444 -0.3094 -0.1924  0.0242
36167W        W79220  19.570   4.845  15.545  0.0898 -0.1113  0.2918
36168W        W79221  24.360   4.584  14.735  0.1462 -0.1388  0.0488
36169W        W79222   1.706  17.711  25.879  0.0529  0.2772 -0.0173
36170W        W79223  25.813  10.557  19.528  0.0788  0.0348 -0.1050
36171W        W79224  30.928  17.342  15.252 -0.2985 -0.1700 -0.2153
36172W        W79225  34.461  23.674   1.231 -0.2682 -0.1871  0.1052
36173W        W79226   4.761   9.973  20.338 -0.1544  0.0358  0.1186
36174W        W79227  23.129   2.059  17.990  0.3945  0.2133 -0.2201
36175W        W79228  22.884  10.854  15.347 -0.1164  0.1028 -0.4144
36176W        W79229  21.572   3.888   2.176 -0.1178  0.2965  0.0504
36177W        W79230  28.657  24.025   1.725 -0.0799 -0.2633  0.0658
36178W        W79231  31.713  28.030  26.502 -0.0390  0.3224  0.1814
36179W        W79232  33.843  12.922  23.508  0.0557  0.1088  0.3673
36180W        W79233  31.356   4.951  22.547  0.4075  0.2638  0.1980
36181W        W79234   4.812  21.355  23.703  0.0662 -0.0308  0.0726
36182W        W79235  26.322   6.988  19.823  0.3002 -0.0023  0.0373
36183W        W79236   1.897  12.202  19.511  0.0870  0.2795 -0.1225
36184W        W79237  31.566  22.200  16.174  0.0444  0.0988 -0.0767
36185W        W79238   7.677  11.756  15.096  0.0162  0.1646  0.0982
36186W        W79239  32.107  20.898   0.346  0.0395 -0.1316 -0.3107
36187W        W79240  26.940  11.319  16.093  0.5183 -0.2299 -0.0750
36188W        W79241   4.258  32.717   4.866 -0.3164  0.1282  0.2621
36189W        W79242   5.469  13.037  17.594  0.2573 -0.1920 -0.1969
36190W        W79243   6.461  19.814  28.346  0.0845 -0.1707 -0.2266
36191W        W79244  16.559  21.839  28.231  0.0429  0.3316  0.0019
36192W        W79245   7.066   7.887  20.338 -0.0434  0.1221  0.2322
36193W        W79246  28.511  10.556   2.560 -0.3817  0.2609 -0.0672
36194W        W79247   4.531   7.263  19.751 -0.2593  0.0929 -0.2778
36195W        W79248  32.695  14.963  24.796 -0.1618 -0.0286  0.1848
36196W        W79249  31.791  15.399  15.570  0.0207 -0.0277 -0.3131
36197W        W79250  31.459  11.632  27.571 -0.1140  0.3062 -0.1814
36198W        W79251  23.683   2.092  22.963 -0.0476  0.1191  0.1368
36199W        W79252  29.477  27.856  10.078 -0.0219  0.0506  0.1769
36200W        W79253  32.532   7.046   3.238  0.0241 -0.1396 -0.2639
36201W        W79254  33.875  23.356   2.544 -0.4017  0.0353 -0.0404
36202W        W79255   2.489  30.010   0.976 -0.1285  0.2426 -0.2405
36203W        W79256  27.231   5.800  19.234 -0.1538  0.2048 -0.4125
36204W        W79257   6.491  10.263  15.191  0.0312 -0.0063  0.3172
36205W        W79258   3.513  26.913   7.292  0.1675 -0.3906 -0.2223
36206W        W79259  24.445   5.600  16.380 -0.0208  0.1530  0.1045
36207W        W79260  33.593   8.027  23.929 -0.0789 -0.0144 -0.1827
36208W        W79261  22.171  20.175  23.693  0.1178 -0.0644 -0.4038
36209W        W79262  31.746  24.129  25.731 -0.0563  0.4353 -0.1360
36210W        W79263  25.841  15.384  18.884 -0.0791 -0.2328 -0.3800
36211W        W79264  11.880  12.436  23.664 -0.0833 -0.1614  0.0393
36212W        W79265  11.977  26.969   7.957 -0.1219  0.1546  0.1752
36213W        W79266  28.987  19.857  16.099 -0.1434  0.1824  0.1424
36214W        W79267   0.436  15.375  25.140 -0.0016  0.2563 -0.0642
36215W        W79268  33.921   0.806  24.232  0.1656 -0.4454  0.2431
36216W        W79269   5.448  19.471  22.821 -0.0878 -0.1676  0.5566
36217W        W79270  31.356   8.263  18.265  0.0181  0.0389 -0.4160
36218W        W79271  19.802   3.528  18.058 -0.1049  0.0192  0.0680
36219W        W79272  11.433  24.362  19.781  0.4575 -0.3416  0.0046
36220W        W79273  25.377  24.697   0.688  0.2359  0.0615 -0.3508
36221W        W79274  15.698   9.596   0.331 -0.0950 -0.0630 -0.1484
36222W        W79275  23.868  11.039   4.104 -0.0679  0.0360  0.3261
36223W        W79276  20.202  11.915   0.224 -0.1393 -0.2239 -0.1408
36224W        W79277  19.952   9.700  19.241  0.0742 -0.2890 -0.0069
36225W        W79278  28.101   7.676  25.670  0.0276  0.0273  0.0935
36226W        W79279   3.734   6.122   2.533 -0.2446 -0.2371 -0.1284
36227W        W79280  32.686  25.859  19.078 -0.1434 -0.1184 -0.1598
36228W        W79281   2.773   9.239  25.429 -0.0820 -0.0514  0.0769
36229W        W79282   1.476  23.652  21.898 -0.3021 -0.4091 -0.2510
36230W        W79283  24.650  15.749  17.555 -0.2287 -0.0740  0.2522
36231W        W79284   2.513  18.962  14.852  0.1020 -0.3285  0.1100
36232W        W79285   5.676  13.268   5.429  0.0415  0.3397  0.0732
36233W        W79286  19.354   1.264  16.759  0.0261  0.0664 -0.2323
36234W        W79287   0.816  10.017  16.254 -0.1540  0.2990  0.0070
36235W        W79288  29.129   1.991  15.865  0.1824 -0.0045 -0.3007
36236W        W79289  24.012  13.170  15.957  0.2814 -0.1907  0.1508
36237W        W79290  21.205   0.432  24.039 -0.1161 -0.2999 -0.0809
36238W        W79291   3.969  19.367  27.929 -0.0255 -0.0395 -0.1593
36239W        W79292  26.242   8.229  25.827 -0.1287 -0.1351  0.2178
36240W        W79293  18.122  30.295  19.053  0.2520 -0.2570  0.1036
36241W        W79294  13.956  34.334  18.659 -0.1933  0.3195 -0.1130
36242W        W79295  29.790   8.853  27.086  0.2124  0.2369 -0.0924
36243W        W79296   6.078  24.077   8.572 -0.0641 -0.2820  0.1728
36244W        W79297   0.111  31.343   7.368 -0.4448  0.0544  0.2041
36245W        W79298  31.858  27.260  13.069 -0.1952 -0.3157 -0.2583
36246W        W79299  30.233  10.908  22.089 -0.0494  0.0933  0.0810
36247W        W79300  17.764  24.083  22.210 -0.0789  0.0555  0.3748
36248W        W79301   6.982   7.958  27.493  0.0571 -0.1277 -0.2214
36249W        W79302  16.649   5.033  26.030  0.2949 -0.1189 -0.2603
36250W        W79303  15.836   7.385   0.644 -0.3373 -0.1951  0.2520
36251W        W79304  19.793  23.243  22.462 -0.0174 -0.3573 -0.2177
36252W        W79305   0.939  11.928  18.492  0.0084 -0.0901  0.1604
36253W        W79306  33.473   5.751  27.379  0.3460  0.0044  0.1210
36254W        W79307  26.931  34.160  26.599  0.4626  0.1381 -0.0492
36255W        W79308  30.539  28.694  20.348 -0.0324  0.0043  0.0331
36256W        W79309  32.921   6.683   1.952 -0.0350 -0.2914  0.0063
36257W        W79310   6.362   6.988  21.458 -0.0818 -0.0663  0.1306
36258W        W79311  23.137  26.262  22.389  0.1255 -0.1214 -0.0118
36259W        W79312  21.380  12.083  20.080  0.0732  0.1509 -0.1865
36260W        W79313  33.667   9.466  17.861 -0.0790 -0.2621  0.1252
36261W        W79314  32.629  15.304  15.717 -0.0068  0.0669  0.1653
36262W        W79315  29.269   5.457  19.055 -0.0617  0.2289 -0.1824
36263W        W79316   9.643  17.859   4.525  0.0430  0.0267  0.1022
36264W        W79317   6.633   8.911  15.881  0.2212 -0.4015 -0.3863
36265W        W79318  32.107   7.011  23.204 -0.1214 -0.2914  0.0049
36266W        W79319   7.827  19.108   3.485  0.2279  0.1444 -0.0800
36267W        W79320  34.317  17.403   5.111 -0.2092 -0.0263  0.1280
36268W        W79321   3.982  21.711   3.527  0.0676  0.1359  0.3862
36269W        W79322   4.008  28.987  15.787 -0.3023 -0.2277  0.0868
36270W        W79323   3.198   5.635  26.089  0.0859  0.2943 -0.1717
36271W        W79324  29.607  22.570  21.707 -0.1305  0.2617  0.1853
36272W        W79325   0.641  15.106   7.167  0.2422  0.3308  0.2239
36273W        W79326   8.778  13.032  21.792 -0.3402  0.2457 -0.0731
36274W        W79327  28.505   8.579  23.039  0.1131 -0.0800 -0.0812
36275W        W79328   1.918  32.426  20.450  0.0151 -0.1462 -0.2935
36276W        W79329  33.707   6.487  21.411  0.0234  0.0676 -0.1523
36277W        W79330  31.982  13.376  21.382 -0.1256 -0.0847  0.0679
36278W        W79331  27.858   0.238  10.114  0.0747 -0.3976 -0.2547
36279W        W79332  31.556  18.977   8.956  0.2501 -0.1562  0.1497
36280W        W79333   7.464  23.573   7.244 -0.1374 -0.0458  0.0674
36281W        W79334  18.928  13.468  18.234 -0.0917  0.1798  0.1112
36282W        W79335  14.854  12.914  25.295  0.1023  0.1572  0.0743
36283W        W79336  31.516   1.237   4.995 -0.1730  0.0419  0.0776
36284W        W79337  20.991   6.174   9.838 -0.0863  0.4536 -0.2956
36285W        W79338  33.435  31.377  26.735 -0.1051 -0.1916  0.3102
36286W        W79339   0.578  12.391   7.756 -0.0888 -0.1332 -0.2412
36287W        W79340  28.592   0.484  23.511 -0.0337  0.0317 -0.1971
36288W        W79341  32.112  16.632  18.090  0.2657  0.4787  0.2148
36289W        W79342  33.011  21.776  29.064 -0.2969  0.1297 -0.1703
36290W        W79343   1.815   7.160   1.380  0.0098 -0.0573  0.2155
36291W        W79344  31.153  20.419  20.910  0.1388 -0.2266  0.1519
36292W        W79345   0.818   7.232   1.538 -0.3382 -0.0668 -0.1880
36293W        W79346   3.881  10.165  25.567 -0.1550  0.2042 -0.2763
36294W        W79347  22.728   8.515  19.565  0.0947 -0.0568  0.4328
36295W        W79348   2.594   5.194  28.950 -0.1364  0.0393 -0.1026
36296W        W79349  29.168  19.766  18.278 -0.0346  0.1970 -0.1962
36297W        W79350  28.873  20.122  21.092 -0.0953  0.3112  0.1274
36298W        W79351  27.521  21.651  26.991  0.1200  0.1372 -0.0520
36299W        W79352   5.434  22.923  21.329 -0.1580 -0.0584  0.0576
36300W        W79353  14.811   5.192   0.253  0.0275  0.0378  0.0886
36301W        W79354  20.867  14.229  18.233 -0.2094  0.2929  0.1508
36302W        W79355  28.997  13.040   4.538  0.0970  0.1374 -0.3067
36303W        W79356   9.432  10.159  28.827  0.1959 -0.2357  0.0670
36304W        W79357  24.953   6.467  29.187 -0.0378  0.0840  0.0605
36305W        W79358   1.674  19.742  22.984  0.0888  0.0696  0.1975
36306W        W79359  33.240   8.893  10.227  0.0305  0.3817  0.0626
36307W        W79360  26.127  18.372  25.609  0.2005 -0.0641 -0.1953
36308W        W79361  23.337  30.905  28.728 -0.3081 -0.1542  0.1571
36309W        W79362   7.576  14.273  23.009 -0.0093  0.0680  0.2551
36310W        W79363  32.272   1.269   2.280  0.0679  0.2123  0.3489
36311W        W79364  23.809   9.501  21.734  0.3539 -0.3122 -0.1070
36312W        W79365  32.427   4.838   0.860  0.2774  0.4389  0.1256
36313W        W79366   7.269   5.014  28.319  0.1845 -0.1943 -0.1108
36314W        W79367  22.088   3.811   3.473  0.3145 -0.2590  0.2107
36315W        W79368  22.459  25.105  28.581  0.1898 -0.0495  0.0856
36316W        W79369  19.179  18.899  15.318  0.1299 -0.1293  0.2538
36317W        W79370   2.941   1.989  17.785  0.0725  0.2891 -0.0174
36318W        W79371   4.263  23.302  21.967  0.2274  0.0156  0.1131
36319W        W79372   3.731  22.171   3.435 -0.1636 -0.2628 -0.0401
36320W        W79373  33.100  15.535  15.910  0.2100 -0.0146  0.1470
36321W        W79374   3.184   4.390   1.777  0.0924 -0.1831  0.0382
36322W        W79375  23.584  18.502  25.288  0.0645 -0.1262  0.0597
36323W        W79376   3.110   8.582  29.124  0.1214 -0.2806  0.2130
36324W        W79377  22.406   9.551  25.986  0.2174 -0.1373  0.1069
36325W        W79378  32.416  12.001  14.814 -0.1128  0.1968  0.2677
36326W        W79379  33.385  24.826   1.336  0.0564 -0.0842 -0.2552
36327W        W79380  11.008  19.889  19.496 -0.2048  0.2344 -0.0203
36328W        W79381   5.756  29.549   8.377 -0.0926  0.1402  0.2784
36329W        W79382  26.886   8.569  20.329  0.0212 -0.0465  0.1553
36330W        W79383  32.537   7.012  13.776  0.1735 -0.2912 -0.2236
36331W        W79384   0.088  22.319   0.193  0.2019  0.0856  0.2511
36332W        W79385   1.170   5.186  28.627 -0.1496 -0.0301 -0.1502
36333W        W79386  24.723  29.034  26.789  0.0992  0.3933  0.0969
36334W        W79387  21.740  14.869  13.828  0.0893 -0.1053 -0.0602
36335W        W79388  29.066  24.188  29.162 -0.1673 -0.0078 -0.1436
36336W        W79389  28.140   2.901  26.905 -0.2088 -0.3049 -0.2772
36337W        W79390  26.280  22.502   4.542 -0.1193  0.1192 -0.1489
36338W        W79391  21.760  22.060   9.365  0.0138  0.2238  0.1211
36339W        W79392  10.827   1.009  15.214  0.0724  0.1573 -0.3227
36340W        W79393   6.421  34.216   7.182  0.2499 -0.0090 -0.0273
36341W        W79394  32.350   1.932   2.815  0.2207  0.0944  0.6783
36342W        W79395  34.549  11.739  24.020 -0.0318  0.1902  0.0511
36343W        W79396   3.950  20.052   2.056 -0.1115  0.0962  0.4219
36344W        W79397  26.486  17.754  14.722  0.0773  0.0193 -0.0977
36345W        W79398   5.244   5.830  19.299 -0.0778 -0.2283  0.0930
36346W        W79399  20.309  32.780   2.178 -0.0799  0.1926 -0.0644
36347W        W79400  28.356  15.182   0.460  0.4551 -0.1561 -0.2696
36348W        W79401  30.584  15.777  19.027 -0.0939  0.1098  0.0125
36349W        W79402  23.459  11.489  27.322 -0.1134  0.0448  0.1520
36350W        W79403  31.544  28.665  21.069  0.0417 -0.0798  0.1020
36351W        W79404   0.699  19.355  13.789 -0.0534 -0.2342 -0.0298
36352W        W79405  10.612  11.249  27.149  0.2557 -0.0870 -0.2891
36353W        W79406  14.787  10.615  19.824  0.0661 -0.1193 -0.1392
36354W        W79407   2.095  26.119  27.659  0.0981  0.1553 -0.3373
36355W        W79408  26.734  12.047  23.185 -0.1483  0.1095 -0.1174
36356W        W79409  28.105  21.042  21.253 -0.2215 -0.2409  0.3341
36357W        W79410   0.674   0.219  13.044 -0.1093  0.2842  0.0262
36358W        W79411  12.390  12.056  15.799 -0.2429 -0.1611 -0.0930
36359W        W79412   3.120  17.413  18.628 -0.2094 -0.0241  0.2050
36360W        W79413   8.282  15.574   6.920 -0.0876 -0.1684  0.3840
36361W        W79414  25.847   5.372   9.689 -0.1494  0.2935  0.1943
36362W        W79415  15.896   3.331  14.811  0.2773  0.4514 -0.3834
36363W        W79416  27.236  10.392  25.824  0.2427 -0.1359 -0.1326
36364W        W79417  13.109  16.150  22.495 -0.1569 -0.1971  0.0529
36365W        W79418  33.962  24.290  27.400 -0.1699  0.1410 -0.1390
36366W        W79419  28.984   8.616  19.068  0.1446 -0.1891  0.0747
36367W        W79420  24.359   0.085  14.625 -0.2700  0.0331  0.0341
36368W        W79421  21.279  10.066  19.555  0.1384 -0.0399 -0.1198
36369W        W79422  33.497   3.506  18.333 -0.0258  0.1791  0.0171
36370W        W79423   2.419   6.398  17.723  0.2930 -0.0942  0.1051
36371W        W79424   4.789  19.228  18.228 -0.0625 -0.0375 -0.0741
36372W        W79425  28.373  26.288  15.780  0.1979  0.0209 -0.0809
36373W        W79426  28.845  17.434  16.041 -0.1364 -0.0596  0.3946
36374W        W79427   2.060  11.643  27.082  0.1744  0.1556 -0.1797
36375W        W79428  12.908  15.990  21.171  0.1805  0.3145 -0.0381
36376W        W79429  13.378  11.317  18.439  0.0228 -0.2028  0.3072
36377W        W79430  32.905   7.318  26.792  0.2446 -0.0448 -0.1186
36378W        W79431  26.854   5.510   2.710  0.0978  0.1605 -0.1147
36379W        W79432  29.696   4.346  23.741  0.3268 -0.0323  0.0670
36380W        W79433  25.146  22.319  15.547  0.0994  0.0876 -0.1330
36381W        W79434  26.198   9.968  14.871  0.1208 -0.0327 -0.1458
36382W        W79435   1.598  16.193   0.506  0.2349 -0.1731  0.0034
36383W        W79436  12.685   3.650   0.069  0.2143  0.1838  0.0119
36384W        W79437   3.930  21.993   1.033  0.0166  0.1203 -0.1622
36385W        W79438  31.003  28.897   5.859 -0.0391 -0.4563  0.0421
36386W        W79439   0.976   9.892  25.753 -0.1420 -0.0288 -0.1622
36387W        W79440   4.298  32.485   5.307 -0.0970 -0.1693 -0.0426
36388W        W79441  29.174   6.063  27.583  0.0785 -0.0350 -0.0714
36389W        W79442  21.891   2.666  16.125 -0.1717  0.1244 -0.1467
36390W        W79443  23.730  16.840  24.559  0.0505  0.0161 -0.0628
36391W        W79444   2.012  13.419  18.469 -0.1467  0.2156 -0.1385
36392W        W79445  32.646  27.441  22.822 -0.2170 -0.1465  0.0613
36393W        W79446   2.342  33.819   3.692 -0.1930  0.3104  0.1779
36394W        W79447  17.570  15.230   5.468  0.2234  0.1492 -0.0567
36395W        W79448  28.302  23.030  16.981 -0.0740 -0.0491  0.1427
36396W        W79449  24.134  14.489  17.685 -0.2124 -0.3112 -0.2866
36397W        W79450  33.983  16.830  15.716  0.1609 -0.1071  0.1712
36398W        W79451  11.394  15.169   9.034  0.1530  0.0134 -0.2304
36399W        W79452  12.490  16.582  16.572  0.3258  0.1364 -0.1794
36400W        W79453  16.428   9.621  10.257 -0.2215 -0.0065  0.0574
36401W        W79454  33.095   9.098  28.637  0.1698  0.0545  0.0821
36402W        W79455   7.189  11.725  15.261  0.2613  0.2561  0.1669
36403W        W79456  32.051   2.588  21.239  0.1394 -0.2137  0.4320
36404W        W79457  25.611  13.427   0.832 -0.0851  0.1794 -0.1697
36405W        W79458   8.207  26.593   1.366  0.4075  0.0380 -0.3844
36406W        W79459  20.155   1.325   7.212  0.1378 -0.1991  0.2380
36407W        W79460  18.935  17.197  29.181 -0.2678  0.3528  0.0598
36408W        W79461  26.370  24.481  19.375  0.0548  0.0509  0.1151
36409W        W79462  31.287   0.344  26.469  0.0896 -0.0094 -0.0170
36410W        W79463  19.696  23.270  19.200  0.1959 -0.0423 -0.0053
36411W        W79464  23.572  14.871  15.409 -0.1092  0.2540 -0.1538
36412W        W79465  31.238  20.884   1.987 -0.1653  0.0905  0.1865
36413W        W79466   0.792  12.144   0.743  0.1303  0.4496  0.1331
36414W        W79467  12.480  24.231   8.328  0.0275  0.1844  0.1958
36415W        W79468  19.298  14.880   6.132  0.1572  0.1163  0.2212
36416W        W79469  28.665   7.164  24.486  0.0893 -0.2004 -0.1737
36417W        W79470  19.081  19.177   2.583  0.2574 -0.0752  0.2810
36418W        W79471  23.745  12.613   4.142 -0.1049  0.1774 -0.2019
36419W        W79472  24.425  31.236  22.923 -0.3988  0.1461  0.1139
36420W        W79473  29.435  18.571  23.433 -0.1071  0.0511 -0.1357
36421W        W79474  17.781  12.888  14.227 -0.0703  0.0796 -0.0745
36422W        W79475  10.218  29.141   7.847  0.0157 -0.2876  0.1642
36423W        W79476   7.744  13.343  18.907  0.0139 -0.2271 -0.1477
36424W        W79477  16.089  28.597  27.126  0.0517 -0.0358 -0.0398
36425W        W79478  18.579  16.124   0.501 -0.2078  0.2016  0.0149
36426W        W79479  15.149   5.905  14.598 -0.2171  0.3222  0.3487
36427W        W79480  27.847  16.693  17.645 -0.0984 -0.0321 -0.1549
36428W        W79481  31.455  14.516   2.348  0.1458 -0.4299  0.0902
36429W        W79482  26.248  17.781  26.626  0.1306 -0.1550  0.2672
36430W        W79483  30.027  31.181   6.780  0.1367 -0.2955 -0.0470
36431W        W79484  18.698  23.263   9.097  0.1482 -0.3026  0.0039
36432W        W79485  31.889  19.847  17.601  0.0863 -0.2098  0.1042
36433W        W79486  26.132  10.785   6.054  0.1331 -0.0268  0.0672
36434W        W79487  12.821  12.512  25.072  0.1911 -0.0369 -0.0378
36435W        W79488   6.725  26.266   2.915  0.1316  0.0195 -0.1792
36436W        W79489  34.264  31.124  22.721  0.1316 -0.1173 -0.1073
36437W        W79490   1.356  17.039  27.615  0.0318 -0.0154  0.0838
36438W        W79491   5.374  12.101  22.083 -0.2496  0.0731 -0.0119
36439W        W79492  21.484   9.933  25.258 -0.0751  0.1906 -0.1037
36440W        W79493  16.780  24.688  15.919  0.1262 -0.2275  0.0837
36441W        W79494  21.484   3.234  21.379 -0.2123  0.1401  0.0300
36442W        W79495  26.353   5.273  18.860 -0.0910  0.3306  0.0997
36443W        W79496   5.173   9.933  26.916 -0.2366 -0.1841 -0.2245
36444W        W79497   0.443   8.036  25.642  0.2257  0.0772 -0.0265
36445W        W79498  21.611  18.534   9.302 -0.1895  0.0679  0.1964
36446W        W79499  11.353  27.857  24.715  0.1159 -0.0863  0.2443
36447W        W79500  17.409   6.747  15.587 -0.1327 -0.4665 -0.2144
36448W        W79501  26.880   5.281  25.516  0.1320 -0.3245  0.0549
36449W        W79502  25.821   8.575   7.095 -0.0473 -0.0046  0.1430
36450W        W79503  29.647  11.315   9.717  0.1480 -0.2322 -0.1944
36451W        W79504  25.075  18.672  18.926 -0.0028  0.2041  0.1601
36452W        W79505  29.484  22.619  22.585 -0.1735  0.1484 -0.0053
36453W        W79506  22.239  10.404   9.519 -0.1845 -0.2620  0.0654
36454W        W79507   5.440  26.169  20.974 -0.1473  0.1045 -0.0504
36455W        W79508  25.633  11.797  26.935 -0.3620 -0.0168  0.3303
36456W        W79509  26.239  21.819  17.022 -0.2072 -0.0171 -0.2159
36457W        W79510  28.841   9.890  20.996  0.0046 -0.2197  0.0977
36458W        W79511   1.918  13.049   2.592  0.0235 -0.1159 -0.0313
36459W        W79512   7.590  10.327   8.999 -0.0455  0.0067 -0.1506
36460W        W79513   8.388  13.770  15.274 -0.0996 -0.3249 -0.1988
36461W        W79514   6.895  15.382   7.258 -0.0561 -0.0420 -0.1165
36462W        W79515   5.837  24.848  18.627 -0.1169  0.0842 -0.1981
36463W        W79516  34.287   8.255   5.982  0.3467  0.2533 -0.1483
36464W        W79517  34.140  25.252  13.840 -0.1793 -0.3219 -0.3069
36465W        W79518   9.059  22.276   5.134  0.0800 -0.1237  0.1295
36466W        W79519  16.025  30.924   1.200 -0.0580 -0.0915  0.0128
36467W        W79520  25.392   3.439  17.059 -0.2726  0.1083 -0.0337
36468W        W79521  34.374  19.305  16.024  0.0166 -0.0641 -0.1060
36469W        W79522  33.673   2.495  26.286 -0.2144 -0.1470  0.0699
36470W        W79523  23.855  14.555  22.348  0.0310 -0.0541  0.1032
36471W        W79524   7.336  17.735  21.065  0.0176  0.0058  0.1370
36472W        W79525  30.930   6.145   4.833 -0.1682 -0.0357 -0.0830
36473W        W79526  25.137  18.833   0.261  0.2031 -0.0120 -0.1383
36474W        W79527   5.871  24.571   7.163 -0.0915  0.1432  0.1668
36475W        W79528  28.851  10.105  10.187 -0.1636  0.3773 -0.2086
36476W        W79529   4.529  10.768   8.161 -0.1146 -0.1389  0.1244
36477W        W79530  17.862  17.844  23.122  0.1804  0.0281  0.1520
36478W        W79531  32.339  15.697  22.229  0.4107  0.1239  0.1581
36479W        W79532  26.861  19.648  14.728 -0.1308 -0.0989 -0.0349
36480W        W79533  24.687   5.908  26.755 -0.1441  0.0636 -0.0901
36481W        W79534   1.218  24.309  23.034  0.1204  0.1902  0.0465
36482W        W79535  30.281  27.123  23.409 -0.2326  0.0118  0.2193
36483W        W79536  30.221  22.518   8.215 -0.0338 -0.0338 -0.0917
36484W        W79537  22.587  24.203  26.689  0.0621  0.0513 -0.1863
36485W        W79538  33.288   4.555   6.096 -0.0483  0.4696 -0.0268
36486W        W79539  31.045  15.704  16.909  0.1766  0.2406  0.0865
36487W        W79540   5.463  30.094  23.143 -0.0300  0.2981  0.0082
36488W        W79541  29.439   8.229  24.222  0.1519 -0.1769  0.3037
36489W        W79542  33.467  23.150  26.713  0.0057  0.0116 -0.0241
36490W        W79543  22.818   9.066  23.629 -0.1466 -0.2266  0.1125
36491W        W79544  27.543  16.005   5.862 -0.1162  0.0458  0.2015
36492W        W79545  21.959  31.222   7.882 -0.0540 -0.1258 -0.1638
36493W        W79546  28.693  21.746  22.298 -0.1493 -0.0580  0.1764
36494W        W79547   1.019  29.203  16.228  0.0781  0.3486 -0.0222
36495W        W79548   0.166  16.987  19.300  0.0658 -0.1052  0.1757
36496W        W79549  30.347  19.661  26.996 -0.0780  0.2210  0.1873
36497W        W79550   0.346  24.566  19.746 -0.1762  0.2650  0.0760
36498W        W79551  22.951   9.939  20.345  0.1375 -0.1540 -0.1738
36499W        W79552  29.543  18.593  18.770  0.0203 -0.2072  0.0915
36500W        W79553  22.850  25.209  25.749  0.0278 -0.3366  0.1589
36501W        W79554   0.318  27.033   2.914  0.0591  0.1032  0.0416
36502W        W79555  34.144   9.451   4.476 -0.0021  0.2572  0.0615
36503W        W79556  15.153   4.146  15.502 -0.1189  0.0535 -0.1329
36504W        W79557   0.450  10.442   4.066 -0.2008  0.2133 -0.1013
36505W        W79558  19.202  19.613  27.486 -0.2002 -0.0656  0.0731
36506W        W79559  24.993  19.840   6.880  0.1751  0.0621  0.0268
36507W        W79560   2.109  13.857  16.380 -0.2346  0.0042 -0.1321
36508W        W79561  33.502  17.732   4.653  0.0044  0.1334  0.1121
36509W        W79562  20.218   7.382  28.584  0.0013 -0.2936 -0.2229
36510W        W79563  33.440   6.749   0.728  0.1531 -0.1266  0.0456
36511W        W79564  13.036   2.050  24.452 -0.0717  0.0346 -0.0742
36512W        W79565  26.032   0.386   2.999  0.1396  0.0780 -0.0953
36513W        W79566  33.615   5.710   7.140  0.1161 -0.0251 -0.1784
36514W        W79567  29.455  17.535  25.190  0.0505 -0.0066  0.0913
36515W        W79568   3.179  24.801   1.750  0.0728  0.3679 -0.2025
36516W        W79569  33.109   5.070   0.400 -0.2542  0.1049  0.1427
36517W        W79570   4.697   4.582   0.329 -0.1395 -0.2679  0.0375
36518W        W79571   3.348   9.020   8.715  0.2878  0.0571 -0.2121
36519W        W79572  20.187  18.328   3.394  0.1073 -0.3702  0.0202
36520W        W79573  30.685  32.660  16.329  0.1121  0.0170  0.3168
36521W        W79574  26.913   5.717  21.052  0.1783  0.1072 -0.2418
36522W        W79575   6.023  18.352   3.094 -0.0680 -0.2102  0.2464
36523W        W79576   4.587  17.850   6.485  0.2132  0.1896 -0.2436
36524W        W79577   6.556  21.765  18.832 -0.0161 -0.2439  0.2737
36525W        W79578   9.972  14.720  16.507 -0.0416  0.1655  0.3014
36526W        W79579  30.654   5.975   9.066 -0.0870  0.2501  0.1415
36527W        W79580   7.464   6.457  26.177  0.1375 -0.0727  0.1110
36528W        W79581  22.857  26.573   1.526 -0.2982 -0.0475  0.0349
36529W        W79582  32.868  20.226  23.297  0.2046  0.1518 -0.1407
36530W        W79583  22.063  25.020  15.152 -0.1486 -0.0719  0.5444
36531W        W79584  30.491  12.388   8.995 -0.2190  0.1268  0.0386
36532W        W79585  25.158   3.003   5.243 -0.1822 -0.1492 -0.0237
36533W        W79586  28.888  27.525   8.357 -0.1496  0.2084  0.0663
36534W        W79587  22.708   0.889   7.046  0.0974 -0.3118  0.1931
36535W        W79588  13.430  16.317  20.293  0.1865 -0.0568 -0.1604
36536W        W79589   3.838   6.974  20.322  0.4322  0.1279 -0.3002
36537W        W79590  12.405  24.845   1.797  0.2081 -0.1451 -0.0893
36538W        W79591  17.082   9.486  17.983  0.3369  0.1592 -0.0628
36539W        W79592  12.380  19.257  10.692 -0.1397 -0.1090  0.0110
36540W        W79593  19.095  13.900  12.562 -0.1622 -0.1793 -0.0554
36541W        W79594   0.316  16.991   0.602  0.3410  0.1827 -0.2682
36542W        W79595  33.001   4.755   6.842  0.2042 -0.1751 -0.2488
36543W        W79596  11.620  18.708  22.883  0.0031  0.3862 -0.2890
36544W        W79597   4.915   8.527   8.791  0.1834  0.1677  0.1083
36545W        W79598  14.584  28.989  28.976 -0.2377  0.0118 -0.1910
36546W        W79599  10.129  18.926  17.162  0.0100 -0.0821 -0.5225
36547W        W79600  16.712  22.815  21.699  0.0974 -0.1585 -0.1990
36548W        W79601  26.171  14.821  15.719 -0.0182 -0.3690  0.3066
36549W        W79602  28.968  16.736  21.319  0.0878 -0.1728 -0.5118
36550W        W79603  22.688  31.608   5.610  0.0050 -0.2037 -0.2414
36551W        W79604  31.422  29.194  23.504 -0.1798 -0.0859 -0.2779
36552W        W79605   0.009  19.065   7.283 -0.2082  0.0610  0.2713
36553W        W79606  30.973   7.508  19.263 -0.0450  0.0915  0.1776
36554W        W79607  25.391  12.980  18.276 -0.1529  0.0149 -0.0178
36555W        W79608   3.614  16.752   9.274  0.0064  0.0820 -0.1014
36556W        W79609  32.759  10.547  19.073  0.0326  0.1738  0.2480
36557W        W79610  29.465  31.649  14.913  0.2031  0.1017  0.1301
36558W        W79611   0.691  21.899  29.101  0.0898  0.1755  0.0258
36559W        W79612  12.710   8.915  24.756 -0.1980  0.3008  0.1805
36560W        W79613   5.547   8.180  18.642 -0.0640  0.2738  0.2912
36561W        W79614  18.958  16.397  22.465  0.0656 -0.1223 -0.0369
36562W        W79615  30.130  16.557  24.570  0.0001 -0.0438  0.2162
36563W        W79616   6.683   2.627   3.637  0.1799 -0.0243  0.3373
36564W        W79617  28.939  18.800  23.228 -0.1718 -0.1145  0.4193
36565W        W79618  29.092   9.970  20.581 -0.1632  0.0846  0.0293
36566W        W79619  30.796  12.151  26.297  0.1521 -0.2851  0.1388
36567W        W79620  25.830   9.775  28.592 -0.1149 -0.0940 -0.0971
36568W        W79621  21.456  18.954   0.534  0.0033  0.0119  0.0069
36569W        W79622   7.202   2.209  17.612 -0.2506 -0.5504  0.0717
36570W        W79623   1.845  18.643  24.675  0.1100  0.0627 -0.2519
36571W        W79624  19.931  23.969  10.351 -0.1222 -0.0312  0.1211
36572W        W79625   4.466  13.327  23.215 -0.2652 -0.1048 -0.1358
36573W        W79626  32.879  16.405   1.591  0.3302 -0.0232  0.0038
36574W        W79627  18.552  21.920  20.124 -0.2564  0.1272  0.3673
36575W        W79628  26.822  22.926  19.704  0.2180 -0.0846 -0.2845
36576W        W79629  31.659   2.355  28.560  0.1527 -0.3045  0.0696
36577W        W79630  25.602  29.810   5.666  0.1624  0.1151 -0.2908
36578W        W79631  32.413   4.071  21.554 -0.3369 -0.1284 -0.1232
36579W        W79632  27.231  17.755   0.457  0.0701  0.0198 -0.0712
36580W        W79633   7.436   7.473  24.898 -0.0549 -0.3622  0.1683
36581W        W79634  31.492  16.045  22.644  0.0039  0.1097  0.1098
36582W        W79635  29.709  24.561   3.574 -0.0391  0.2596  0.1413
36583W        W79636  26.985  18.971  17.325  0.2312  0.2497 -0.1053
36584W        W79637   4.789   4.918  10.415 -0.3216  0.1776  0.1910
36585W        W79638  30.232  14.104   7.333 -0.4035 -0.2010  0.1619
36586W        W79639  24.425  17.575  14.226 -0.0347  0.1000 -0.4262
36587W        W79640  25.893  28.886   1.848  0.1785  0.0154  0.4651
36588W        W79641  20.487   5.761   6.717 -0.3395 -0.1253 -0.0594
36589W        W79642  11.926   7.666  25.107  0.1707 -0.0153  0.0823
36590W        W79643  32.377  10.815   1.069  0.1445 -0.4002  0.2353
36591W        W79644  27.980   3.745   7.047 -0.0107  0.0830  0.1167
36592W        W79645   9.947  22.830  27.651 -0.1987  0.1997 -0.0258
36593W        W79646   1.104  18.673   0.431  0.1403  0.2984  0.1746
36594W        W79647  32.150  28.105  27.466  0.2847 -0.0372  0.2136
36595W        W79648  20.582  19.498  18.353 -0.1726  0.0359  0.4136
36596W        W79649  28.606   2.781   1.336 -0.2770 -0.1263 -0.0383
36597W        W79650  16.220   8.344  26.647  0.0298  0.1822 -0.0583
36598W        W79651  34.261  16.770  13.861 -0.2022  0.0170 -0.1214
36599W        W79652   1.962   9.858  24.318  0.0886  0.1071 -0.2601
36600W        W79653  30.775   7.993  21.902 -0.2317  0.0675  0.1660
36601W        W79654   6.340  18.493   0.873 -0.0740  0.1400  0.1730
36602W        W79655   7.098   3.634  16.541  0.0667 -0.2702 -0.0484
36603W        W79656  28.998  23.256  14.759  0.0850 -0.1576  0.2305
36604W        W79657  32.553   8.061   5.833 -0.0257 -0.0514 -0.0869
36605W        W79658  11.727  25.804  13.637 -0.1174 -0.1749  0.3385
36606W        W79659  12.297   4.196  21.644 -0.1384 -0.1957  0.1434
36607W        W79660  17.504  21.035  22.807  0.2525 -0.6510  0.0158
36608W        W79661  25.034   5.479   8.645  0.0676 -0.0441 -0.2501
36609W        W79662  18.764  19.397   4.455  0.3380  0.1202  0.2353
36610W        W79663   9.687   8.551  20.967 -0.0320 -0.0581  0.1706
36611W        W79664   2.988   6.992   2.582 -0.2319  0.1480  0.4641
36612W        W79665  34.015  22.500   2.097 -0.1193  0.0066 -0.2381
36613W        W79666  31.580  22.562  16.947  0.1925 -0.0864  0.0147
36614W        W79667  18.795  17.891   2.508 -0.2242  0.2419  0.0889
36615W        W79668  21.772  17.210  19.441  0.0279 -0.2057  0.4284
36616W        W79669   0.365  18.330   8.912 -0.1619 -0.1494  0.3341
36617W        W79670  21.474   7.675  16.941 -0.4432  0.0216 -0.0958
36618W        W79671  22.120   8.888  26.809 -0.2206  0.0510  0.3297
36619W        W79672   6.410  32.624  15.650  0.0796 -0.0192  0.2763
36620W        W79673  17.631  21.441   2.359  0.0525 -0.0537 -0.1555
36621W        W79674  34.120   9.942  28.797  0.2775 -0.0478  0.2914
36622W        W79675  31.182  15.761  28.040  0.0419  0.1475  0.0662
36623W        W79676  29.713   5.919  28.556  0.0035 -0.1876 -0.0603
36624W        W79677  27.951  18.116  28.488 -0.0813 -0.0096 -0.0641
36625W        W79678  22.105  14.752  19.382  0.2921 -0.2847 -0.1313
36626W        W79679  21.704  14.575   8.541  0.1688 -0.2362  0.2576
36627W        W79680   1.777  14.285  27.420  0.2541  0.0055  0.0633
36628W        W79681   4.744   7.818  22.046 -0.0189 -0.2026 -0.0279
36629W        W79682   5.056   6.760   0.117 -0.0167  0.1077  0.1730
36630W        W79683  29.172  26.025   0.972 -0.1417  0.3960  0.1003
36631W        W79684   0.352  20.145  20.630 -0.2358  0.1567  0.1723
36632W        W79685  28.186   7.426   2.684 -0.2159  0.1139 -0.0086
36633W        W79686  26.447  13.197  15.635 -0.0652  0.2905 -0.0972
36634W        W79687  27.239   4.015   2.495 -0.0087 -0.2215 -0.2674
36635W        W79688   6.135  26.077   1.503 -0.1786 -0.0435 -0.0192
36636W        W79689  26.049   5.168  24.289  0.0258  0.1592 -0.0198
36637W        W79690   3.970  18.835   0.112 -0.0212 -0.2461 -0.0504
36638W        W79691  13.548  20.477  15.870  0.1676 -0.0239 -0.2909
36639W        W79692  31.998  30.923   1.606  0.1983 -0.0508  0.1280
36640W        W79693  22.186  26.063   1.449  0.3955  0.1589  0.3834
36641W        W79694  25.478  12.277  23.603 -0.4129  0.0669  0.0955
36642W        W79695  20.393  13.411  18.270  0.0583 -0.1602 -0.1473
36643W        W79696  26.458   3.962  23.095 -0.0538  0.1715  0.1951
36644W        W79697   8.787  11.466  24.535  0.2152 -0.1904  0.0138
36645W        W79698  18.175   5.978   1.865 -0.1926  0.1323 -0.1640
36646W        W79699  23.432  12.439  21.003 -0.1644  0.0830  0.0193
36647W        W79700   2.153   9.690   7.852  0.0491  0.1063  0.1613
36648W        W79701   6.313  21.941   6.453 -0.0071  0.0104 -0.2319
36649W        W79702   7.721  31.280  21.659 -0.1596  0.3844  0.0045
36650W        W79703  31.550  24.446   0.959 -0.1499  0.0029 -0.0240
36651W        W79704  29.929  13.683  27.608 -0.4851  0.2118  0.0765
36652W        W79705  24.966   1.028  18.787 -0.0994 -0.0591  0.1134
36653W        W79706  29.499  13.163  23.092 -0.3346  0.0438  0.0030
36654W        W79707   1.767  15.953   9.069  0.1939  0.1214 -0.0128
36655W        W79708  33.419   8.451   5.838  0.0931 -0.0367  0.1426
36656W        W79709  34.094  14.117  22.876 -0.0001  0.1324  0.2022
36657W        W79710  30.958   5.866  25.044  0.2773  0.0110  0.2122
36658W        W79711  20.548  21.545  27.402 -0.2461  0.0156 -0.3171
36659W        W79712  28.477  16.494  17.081 -0.0010  0.0635 -0.0609
36660W        W79713   0.542   6.363   7.563 -0.0285  0.2374  0.1813
36661W        W79714  16.589   7.201  17.294 -0.0794  0.0080 -0.1353
36662W        W79715  31.042   9.237   6.336  0.0689  0.4939 -0.0586
36663W        W79716   3.930  20.325   5.269 -0.2003  0.0445  0.0051
36664W        W79717  22.584  11.501  17.733  0.2150 -0.2555 -0.0160
36665W        W79718  17.600  22.546  16.890 -0.0364  0.0623 -0.0166
36666W        W79719  13.346  26.676  28.179 -0.0872  0.2625  0.0850
36667W        W79720  28.115  21.773  22.950 -0.1321  0.1160  0.2779
36668W        W79721  20.090  33.781  28.231  0.0267  0.2591  0.1166
36669W        W79722   6.116  11.130  23.536  0.2111  0.1368 -0.0361
36670W        W79723   2.284  15.422  21.516 -0.4096  0.2654 -0.0930
36671W        W79724  32.636  13.347   6.266 -0.0122  0.0841  0.2323
36672W        W79725   2.870   0.980  28.302  0.2874  0.1163 -0.2138
36673W        W79726  22.956  18.357  13.285 -0.1435 -0.1462  0.1855
36674W        W79727  34.013  27.524   9.439 -0.0089 -0.1322 -0.0062
36675W        W79728  23.639  17.644  19.767  0.1177  0.0214 -0.1175
36676W        W79729   5.766   7.132  18.346  0.0459 -0.2569  0.1023
36677W        W79730  23.191   2.756  20.839  0.0916  0.3882  0.2499
36678W        W79731  10.130  10.596  21.068 -0.2055  0.1692  0.1284
36679W        W79732  31.206   7.927   8.871 -0.1061  0.0861  0.0853
36680W        W79733   4.194   6.275  20.805 -0.0384  0.1334  0.2687
36681W        W79734  33.802   3.270   1.328 -0.1513  0.0151  0.2911
36682W        W79735  22.265  13.968  19.865  0.1375  0.0174 -0.0971
36683W        W79736   6.746   6.062  16.535  0.1632  0.1827 -0.0185
36684W        W79737  24.396  17.230  27.511  0.1221  0.0590 -0.1389
36685W        W79738  12.131  34.509  14.676 -0.0397  0.2548 -0.1720
36686W        W79739  34.391  13.550  21.252  0.1373 -0.0467  0.3008
36687W        W79740  33.288  13.210  15.731 -0.2809  0.0027  0.1498
36688W        W79741  29.448   8.219   0.824 -0.2084 -0.2278  0.2949
36689W        W79742  26.181  29.211   5.000  0.3345 -0.0112 -0.1106
36690W        W79743  26.344  12.656  15.759  0.3536  0.0948  0.1345
36691W        W79744   0.269  31.489  18.030 -0.2467  0.1315  0.4613
36692W        W79745   0.461  26.010  26.094 -0.1384 -0.1733 -0.1701
36693W        W79746   8.045   5.562   2.321  0.0452 -0.0043 -0.3877
36694W        W79747   1.274  22.750   7.913  0.0695  0.0689 -0.0900
36695W        W79748  29.083  20.305   1.438 -0.0206 -0.1634  0.2231
36696W        W79749  26.872  11.829   9.782  0.0167  0.1270  0.1664
36697W        W79750  32.976  12.665  27.217  0.2499  0.1691 -0.2499
36698W        W79751  14.990  11.629   0.483  0.1984 -0.2550  0.1203
36699W        W79752  20.306  13.013  20.512  0.2137  0.3374 -0.2092
36700W        W79753  22.409   3.119  16.785  0.1137  0.1551 -0.4018
36701W        W79754  33.334  15.817   8.812 -0.0958 -0.1297  0.0176
36702W        W79755  29.228   2.164  21.487  0.2416 -0.2772 -0.1093
36703W        W79756  32.376   6.532  24.265  0.2365 -0.0266  0.1152
36704W        W79757  26.595  15.745  20.129 -0.2426  0.3132  0.1938
36705W        W79758   7.140  28.515  15.509 -0.0712  0.0620  0.0391
36706W        W79759   9.844  12.340  19.476  0.3048 -0.2183 -0.2002
36707W        W79760  32.970   9.488  10.136 -0.2540 -0.1054 -0.2080
36708W        W79761   8.147   8.082  27.508 -0.2491  0.1124 -0.1093
36709W        W79762  14.773  32.871   3.318 -0.1883  0.0216  0.1209
36710W        W79763  25.619  25.419  17.161 -0.2649  0.1210 -0.0734
36711W        W79764  24.316  27.313  23.587 -0.0209  0.3817 -0.0700
36712W        W79765  27.074  12.391  23.017 -0.2601  0.0783  0.0199
36713W        W79766   1.116   5.186  15.153 -0.0064 -0.3434  0.0929
36714W        W79767  19.870  11.625  28.993 -0.0751  0.2064 -0.0464
36715W        W79768   2.490   7.103  15.401 -0.0832  0.1317 -0.2536
36716W        W79769  17.867  12.848  22.948 -0.0542 -0.1071 -0.1131
36717W        W79770  29.446  29.431  17.392  0.3002 -0.1928 -0.1577
36718W        W79771  17.375  12.369  16.643 -0.0608  0.0103 -0.3297
36719W        W79772   0.132  16.320   7.053 -0.2272  0.1958 -0.0335
36720W        W79773  24.509   9.588  13.566  0.0002  0.6063 -0.0461
36721W        W79774  10.589  25.204  16.193 -0.1108 -0.0343  0.1138
36722W        W79775  28.261  19.919  17.645  0.3056  0.2416 -0.1789
36723W        W79776  28.438   7.053   9.790  0.0917  0.0959  0.0297
36724W        W79777  29.841  14.677   7.865  0.1568  0.2487 -0.1515
36725W        W79778  27.775  18.311   7.918 -0.1294  0.0263  0.1949
36726W        W79779  27.327  29.087  18.346  0.0138  0.1238 -0.1135
36727W        W79780  10.021  22.266  27.691  0.0577 -0.2286  0.0454
36728W        W79781   7.372  16.950  27.062  0.0442  0.2550  0.2255
36729W        W79782  13.413  32.234  16.125 -0.1555  0.1736 -0.0793
36730W        W79783  13.681  11.240  19.480  0.0520 -0.3300  0.1664
36731W        W79784  28.791  16.137  15.593 -0.0035  0.1035  0.0794
36732W        W79785   9.559   4.785   4.484 -0.0313  0.0042 -0.1610
36733W        W79786   5.886   6.989   2.613 -0.1453 -0.0980  0.0053
36734W        W79787   3.899  25.827  23.467 -0.2015  0.0912  0.1924
36735W        W79788  32.124  15.955  27.925  0.0229  0.0410  0.4199
36736W        W79789  15.996  13.114   8.944 -0.1163  0.2889 -0.0060
36737W        W79790  26.883  16.743  19.982 -0.1116 -0.0918  0.2203
36738W        W79791  27.431  20.734  20.730  0.3178  0.3726  0.1927
36739W        W79792  25.149  21.764  14.590  0.1079 -0.0014  0.7344
36740W        W79793  31.235  34.536  25.315 -0.1110  0.3946 -0.1901
36741W        W79794  30.409   9.160  23.513  0.1086  0.0260 -0.3915
36742W        W79795  23.443  18.225  26.432  0.0597 -0.0932  0.2265
36743W        W79796  23.446  19.223  18.733 -0.1831 -0.0895  0.1524
36744W        W79797   8.776  17.903   0.218 -0.2508  0.1343  0.0446
36745W        W79798  34.143  20.032   1.480  0.3453 -0.0193  0.0254
36746W        W79799  31.402  25.510  15.828 -0.0503  0.1302 -0.0997
36747W        W79800  33.495  11.794   0.606 -0.0926 -0.2736 -0.2316
36748W        W79801  30.752  17.629  25.946  0.1417  0.1067  0.1539
36749W        W79802  24.210  17.262   4.744  0.0346 -0.0831  0.0207
36750W        W79803  33.624  17.486  15.103 -0.0489  0.1934 -0.0554
36751W        W79804  25.163  18.043   1.414  0.1502  0.0898  0.3412
36752W        W79805  24.780   8.958  15.422  0.2319  0.0678 -0.4758
36753W        W79806   5.602   7.248  16.026  0.0059  0.2504  0.1654
36754W        W79807  31.672  27.067  20.890  0.0662  0.2702  0.3961
36755W        W79808  23.985   6.420   9.963  0.0947  0.1027 -0.2146
36756W        W79809  31.602   7.718   3.840  0.0551 -0.1895 -0.2375
36757W        W79810  24.554  11.965   1.216  0.1341 -0.0129  0.1549
36758W        W79811   8.300  15.502   8.450 -0.1539  0.0286  0.2444
36759W        W79812  12.399  17.232  19.925 -0.0874  0.0214  0.1069
36760W        W79813  34.094   6.697  10.331 -0.1777 -0.0480 -0.0260
36761W        W79814   1.569  12.477  27.791 -0.1997 -0.0631  0.1028
36762W        W79815   4.182   3.662   6.905 -0.1384 -0.1343  0.0701
36763W        W79816   3.992  13.779  21.222  0.3047  0.2133 -0.2147
36764W        W79817  34.236   7.214  27.151 -0.1618 -0.0962  0.0461
36765W        W79818  26.216  28.188  25.108 -0.0625  0.0223 -0.3124
36766W        W79819   6.432  19.374   8.457  0.1856  0.0315 -0.2151
36767W        W79820   2.315  16.463  17.953 -0.4195 -0.2534 -0.0403
36768W        W79821  28.622  13.709  21.453  0.1045 -0.1199 -0.0407
36769W        W79822  26.430   8.892  25.470  0.0797  0.0272 -0.1543
36770W        W79823  26.317   1.119   6.250 -0.0855  0.1180 -0.0404
36771W        W79824  26.046   6.743  28.919  0.2622  0.0669  0.2399
36772W        W79825  31.407  18.427  22.418  0.3932 -0.2898  0.2344
36773W        W79826  11.873  10.189  18.849 -0.0634  0.1586 -0.1209
36774W        W79827   5.131   5.170  22.815 -0.2334 -0.0063  0.2571
36775W        W79828  16.780   2.935   9.100 -0.0631 -0.0640  0.0555
36776W        W79829   3.109  31.566   7.952  0.1283  0.1190  0.2003
36777W        W79830  25.605   0.089   5.402  0.1305 -0.0201  0.0656
36778W        W79831  27.814  23.921  22.862 -0.0541  0.0236  0.1423
36779W        W79832  15.923   2.092   6.644  0.2649 -0.1230  0.0725
36780W        W79833  23.986   5.264  16.242 -0.0595  0.1908  0.1170
36781W        W79834   2.097  11.734   9.416 -0.0875  0.3658 -0.1370
36782W        W79835  14.060  10.733   8.585  0.2758 -0.0769  0.0252
36783W        W79836   9.127  20.860  24.032 -0.1839 -0.3346  0.0590
36784W        W79837  16.416  13.638  24.366 -0.1361  0.2735 -0.0968
36785W        W79838   7.972  16.328  25.526  0.0110 -0.0795 -0.1800
36786W        W79839  22.014   0.303   9.207  0.0714 -0.1253 -0.3744
36787W        W79840  25.302  20.102  26.616  0.1585 -0.1860 -0.0200
36788W        W79841  33.463  19.984  14.746 -0.1002 -0.0224  0.3030
36789W        W79842  18.291  24.521  22.981  0.0457  0.0238  0.2356
36790W        W79843  31.457  13.675  16.316  0.0115  0.0198  0.0992
36791W        W79844  22.206  22.438  16.569  0.1302  0.1039 -0.1809
36792W        W79845  19.157  12.949  17.091 -0.3300  0.0870 -0.3704
36793W        W79846  29.917  19.588  15.072 -0.0660  0.0488 -0.0200
36794W        W79847   8.471  13.654  21.017 -0.4138  0.1303 -0.2672
36795W        W79848  28.314   3.289  15.604 -0.2449 -0.1237 -0.0683
36796W        W79849   4.670  16.121   3.608 -0.3219 -0.2677  0.1935
36797W        W79850  18.032   5.260  27.659 -0.1500  0.1687  0.0442
36798W        W79851   1.598  31.966   1.119  0.0508  0.0701 -0.2416
36799W        W79852  26.932  10.449  10.023  0.0352  0.0991  0.2422
36800W        W79853   1.652  20.158  15.914 -0.3647 -0.1500 -0.2153
36801W        W79854   0.882  17.325   5.643 -0.1290  0.0932 -0.2881
36802W        W79855  25.619  11.698  24.924  0.3364 -0.0580  0.1848
36803W        W79856  29.453   9.852  23.779  0.0583  0.3150 -0.1606
36804W        W79857  14.012  26.473   5.851 -0.1204  0.0360  0.1050
36805W        W79858  20.404  14.703   3.273  0.1985  0.0734 -0.0647
36806W        W79859  11.543   9.402  18.315 -0.2181 -0.0734  0.0566
36807W        W79860   3.708  12.981  27.064  0.2724 -0.1174 -0.0612
36808W        W79861  29.552  12.286   4.269 -0.1531  0.0626  0.0291
36809W        W79862  29.503   7.101   7.585 -0.0530 -0.2143 -0.1278
36810W        W79863  28.170   9.438  23.839 -0.0702 -0.2043  0.1305
36811W        W79864  24.084  32.875   8.955  0.0584 -0.1890 -0.0315
36812W        W79865  17.250  12.875  22.344  0.1785  0.1664  0.4482
36813W        W79866  28.840  30.089  14.212 -0.1242 -0.1271 -0.1721
36814W        W79867   0.611  34.149  28.337 -0.1634 -0.3113  0.2280
36815W        W79868  22.371   0.662   1.063  0.1480 -0.2299 -0.0962
36816W        W79869  10.994  11.398  23.181 -0.1483 -0.2324 -0.0387
36817W        W79870  33.814  12.488   1.413  0.0695  0.0403  0.2288
36818W        W79871  16.023  12.984  16.532 -0.4498  0.0018 -0.0612
36819W        W79872   9.694  10.691   8.170  0.3132 -0.3140  0.1058
36820W        W79873  22.970  13.127  25.511  0.0511 -0.0948  0.1314
36821W        W79874  29.378  18.060  25.915 -0.0321  0.0690  0.0633
36822W        W79875  18.886   3.403  25.167  0.0976  0.0153  0.1079
36823W        W79876  34.379   8.883  17.186 -0.1365 -0.2188 -0.0748
36824W        W79877  30.221  28.647  22.623 -0.0881 -0.0512  0.0028
36825W        W79878  10.049  15.974  21.106 -0.3686 -0.1527  0.1250
36826W        W79879  12.118  25.305   4.196  0.1443  0.3137 -0.0143
36827W        W79880  28.414   5.379   4.872  0.0349 -0.5862 -0.0820
36828W        W79881  21.515  20.297  25.066 -0.1123  0.0576 -0.2465
36829W        W79882   4.141  16.639   2.796 -0.2745  0.3200 -0.0257
36830W        W79883  28.430   5.320  24.479 -0.2111  0.0080  0.0744
36831W        W79884  30.649   8.341  23.430  0.1842 -0.0695  0.1318
36832W        W79885  33.902   0.123   0.120 -0.0481  0.1352  0.0328
36833W        W79886  10.365  15.510  18.841 -0.0001  0.2135 -0.1199
36834W        W79887  29.953  20.983   7.689  0.3915  0.1926 -0.0482
36835W        W79888  19.746  23.551   0.952 -0.2695 -0.0012 -0.1651
36836W        W79889  18.110  22.341  21.958  0.1257  0.0999 -0.0791
36837W        W79890  29.369  10.488  28.628 -0.2027 -0.0203  0.1178
36838W        W79891  33.562  17.510  19.287 -0.1228  0.1635  0.2196
36839W        W79892  13.037   9.376   8.946  0.1107  0.0582 -0.0112
36840W        W79893  32.122  12.008   8.622  0.1161 -0.0351  0.1140
36841W        W79894  12.546   4.275  23.767 -0.0132  0.0284 -0.1571
36842W        W79895  21.419   2.576   8.164  0.1038 -0.1014  0.1433
36843W        W79896  12.177  22.714   8.837 -0.3965  0.1211 -0.2084
36844W        W79897  25.990  25.313  19.089 -0.1515  0.1659  0.0609
36845W        W79898   2.641  19.179   2.563  0.0977  0.0616  0.0309
36846W        W79899  23.045  20.108  21.268  0.0221  0.2026  0.0434
36847W        W79900   7.821   1.942   3.537  0.3556  0.2589 -0.3349
36848W        W79901  23.936  15.354  13.745 -0.0769 -0.1244  0.2160
36849W        W79902  25.857  19.154  14.671 -0.1833 -0.0816 -0.0728
36850W        W79903   4.820  21.351   4.223  0.1381  0.2467  0.2404
36851W        W79904  19.156  22.450  22.503 -0.0033  0.1917 -0.0236
36852W        W79905  11.251  22.695  27.189  0.0395  0.1332 -0.1942
36853W        W79906  29.365  14.357   2.587  0.1832  0.3246 -0.0739
36854W        W79907  13.968   4.785  23.343  0.0607 -0.0916 -0.2381
36855W        W79908   1.806  20.548  20.265 -0.2910  0.1617  0.0669
36856W        W79909  28.577  28.304  20.241  0.0553  0.1727  0.0258
36857W        W79910  33.596   0.384  21.272 -0.2121  0.3263 -0.1884
36858W        W79911  30.143   5.967  17.414  0.2345 -0.0966 -0.0925
36859W        W79912  23.849  23.436  16.529  0.1094  0.0135  0.0756
36860W        W79913  16.168  13.290  20.357 -0.2129 -0.0422  0.0031
36861W        W79914  32.905  21.377  25.740 -0.0224  0.1684  0.0238
36862W        W79915   9.255  18.221   4.551  0.2527 -0.3685  0.2102
36863W        W79916  29.123   8.723  17.753 -0.0817 -0.0624 -0.2685
36864W        W79917   0.007  21.530  27.010 -0.2070 -0.1573  0.2193
36865W        W79918   4.451  14.636  20.867 -0.0057 -0.0778  0.1536
36866W        W79919   3.838  10.905  20.951 -0.3208  0.0221  0.1785
36867W        W79920  22.889   5.552   4.052  0.0047 -0.0018 -0.0689
36868W        W79921  22.568  19.447  15.931 -0.2318 -0.0499  0.1572
36869W        W79922   9.078  26.564  19.549  0.2173  0.2205 -0.1326
36870W        W79923  24.518  21.892  20.691 -0.2462 -0.1687  0.1829
36871W        W79924  12.790  12.240  26.392  0.1881  0.2734  0.0250
36872W        W79925  22.125   9.499  22.191  0.1798 -0.0085  0.0100
36873W        W79926   0.588  11.926  14.952 -0.3390  0.1395  0.0253
36874W        W79927   3.207   8.266  19.534  0.1992  0.0688 -0.1396
36875W        W79928  26.919   2.563  14.192 -0.3970  0.1827 -0.1159
36876W        W79929  31.927  15.513  17.304 -0.3292  0.2115 -0.0110
36877W        W79930  32.815  22.672  20.961 -0.1246  0.3226  0.0975
36878W        W79931   6.235  14.343  15.468 -0.0478  0.0390  0.2089
36879W        W79932  23.036   8.732  14.932  0.0892  0.3287  0.0790
36880W        W79933   4.879  25.656  19.420 -0.1391  0.1012 -0.0230
36881W        W79934  27.426   0.675  16.010 -0.1279  0.1432 -0.0456
36882W        W79935  15.329  13.076  23.961  0.2720  0.0858  0.1306
36883W        W79936   3.980   0.961  17.420 -0.3960 -0.0209 -0.3967
36884W        W79937  10.403  18.285  21.219  0.1320 -0.0120 -0.0205
36885W        W79938   0.368   5.238  22.799  0.1427  0.3134 -0.0002
36886W        W79939  24.938  19.027  19.450  0.0006 -0.2368  0.0623
36887W        W79940  23.582  19.098   2.565  0.3870  0.0210  0.0622
36888W        W79941   2.900  13.891   6.809  0.1040  0.0068  0.0951
36889W        W79942  31.692  19.391  23.891  0.2048  0.3902 -0.0430
36890W        W79943  33.028  14.123  25.528  0.1242 -0.1144 -0.1539
36891W        W79944  34.260   8.735  22.280  0.0887  0.3507 -0.1553
36892W        W79945   3.521  25.789  19.385 -0.0678  0.4443  0.2532
36893W        W79946  30.825  19.148  17.824 -0.0141 -0.4144 -0.3039
36894W        W79947  10.950  27.721  28.841  0.0346 -0.1728 -0.1900
36895W        W79948   9.588  30.681  17.502 -0.0097  0.0976 -0.2363
36896W        W79949  22.911   1.457   0.144 -0.0292 -0.4429  0.0540
36897W        W79950  25.831  11.837  13.545  0.0050 -0.2404  0.0770
36898W        W79951  22.327  29.830  27.733 -0.1806  0.0451  0.2961
36899W        W79952  21.349  15.204   7.502  0.2004  0.1425 -0.0882
36900W        W79953   2.597   3.250  23.478 -0.2089  0.1013  0.0025
36901W        W79954  20.155   1.565  14.877  0.3217  0.1980  0.1369
36902W        W79955   6.977  30.201  16.556  0.1054 -0.0622  0.0452
36903W        W79956  23.802  31.603  19.485 -0.1289  0.3471  0.3153
36904W        W79957   8.743   4.083  23.970  0.2514 -0.0793  0.2425
36905W        W79958  14.414   4.605  25.395 -0.2011 -0.0331 -0.1743
36906W        W79959  30.026  15.618  17.472 -0.0114 -0.0275  0.0005
36907W        W79960  25.099  10.030  25.878 -0.0054 -0.2347  0.0031
36908W        W79961  19.883  27.558  15.208  0.0755 -0.1397 -0.1113
36909W        W79962  27.923  10.492  20.004  0.0429 -0.1646  0.1775
36910W        W79963  28.996  11.363  17.119 -0.1693  0.2495  0.1586
36911W        W79964  20.809  19.800  14.120  0.1051  0.1214 -0.0865
36912W        W79965  26.429  18.301  24.311  0.0940 -0.1734 -0.0956
36913W        W79966   4.880  13.618  26.248  0.1249  0.3314  0.0779
36914W        W79967   0.319  17.236  28.786  0.1090 -0.0485 -0.4041
36915W        W79968  26.182   9.630  20.309 -0.0356  0.1444  0.2433
36916W        W79969  33.418  31.794  26.957  0.0443  0.1654  0.0537
36917W        W79970  28.943  20.815  24.046 -0.1270  0.0816 -0.1618
36918W        W79971   0.435  18.626  22.601  0.0226 -0.1552 -0.3108
36919W        W79972  22.480  30.946  24.109 -0.0382 -0.0764  0.2042
36920W        W79973  31.204  14.993  22.367 -0.3652 -0.0219  0.2210
36921W        W79974  27.775  12.078  23.628  0.0130 -0.1760  0.0612
36922W        W79975  15.484   0.786  19.969 -0.0879 -0.4242  0.1760
36923W        W79976   0.505  11.481  17.116  0.0991  0.0498  0.1598
36924W        W79977  34.348   3.590  15.637  0.0267  0.0184 -0.3492
36925W        W79978  26.185  15.508  14.732  0.1432 -0.0743  0.1461
36926W        W79979  32.738  19.953  27.512 -0.0592  0.2585  0.0930
36927W        W79980   1.792   6.860  13.406 -0.0330  0.0883  0.1641
36928W        W79981  31.738  30.779   0.083 -0.1146 -0.1656  0.0075
36929W        W79982  26.218   5.769  17.510 -0.0843  0.0108 -0.3183
36930W        W79983   6.042  23.643  25.638 -0.0200  0.1064 -0.1250
36931W        W79984  23.344  24.027  26.333 -0.1926  0.1409 -0.2666
36932W        W79985   5.174  14.093   2.345 -0.0231  0.1621  0.0243
36933W        W79986  32.132  20.717  21.732 -0.0199  0.1007 -0.0833
36934W        W79987  25.579  21.553  17.991 -0.3440 -0.2635 -0.0333
36935W        W79988  21.032  10.910  18.568 -0.0456 -0.0422 -0.1828
36936W        W79989  33.119   9.937  19.596 -0.0242 -0.1396  0.0290
36937W        W79990   8.455   6.146  22.752 -0.2318 -0.1461 -0.2329
36938W        W79991  32.783  25.754  13.174 -0.0031 -0.0524 -0.1474
36939W        W79992  29.998   7.852  17.897 -0.1141  0.1631  0.1344
36940W        W79993   2.427   5.819   2.997  0.1707  0.2435  0.0259
36941W        W79994   8.897  12.131  22.768  0.0443  0.1917  0.3729
36942W        W79995   3.549   7.972  25.635  0.0213  0.0901  0.1106
36943W        W79996  25.350  16.219  14.622  0.4664  0.1410  0.3756
36944W        W79997  32.388  32.490  20.046 -0.0565 -0.3374 -0.1143
36945W        W79998   5.497  28.513  16.391  0.0432  0.0696 -0.1303
36946W        W79999   0.829  25.084  25.345 -0.3053 -0.0461  0.1829
36947W        W80000  32.453   4.843  25.730  0.0007 -0.0735  0.1097
36948W        W80001  33.747   1.966  26.261  0.3912 -0.2266  0.1457
36949W        W80002  26.914  23.637  17.751  0.2825 -0.1583  0.1041
36950W        W80003  28.784  11.989  18.806 -0.0501 -0.0511 -0.0293
36951W        W80004   6.605  21.341  25.624  0.0473 -0.2162 -0.0585
36952W        W80005  14.146   2.360  18.192  0.1091 -0.0774  0.3778
36953W        W80006   7.157  10.539  17.048  0.2518 -0.2115  0.0828
36954W        W80007   4.577  17.221  28.306  0.2025 -0.1097  0.1394
36955W        W80008  30.283  20.247   2.334  0.1710 -0.1647 -0.0563
36956W        W80009  28.008  12.878  21.464 -0.3151  0.0230 -0.0766
36957W        W80010  28.892  20.282  23.872 -0.0428 -0.1641  0.0110
36958W        W80011  32.863  24.580  18.548 -0.2999  0.0299 -0.0990
36959W        W80012  30.199   7.458  20.457  0.4615 -0.1959  0.1558
36960W        W80013  22.129   4.217  15.258  0.2721 -0.0742 -0.0855
36961W        W80014  30.204  12.073  23.357  0.1209  0.1483 -0.2178
36962W        W80015   6.689  20.408  14.364  0.0920  0.1861 -0.0054
36963W        W80016   8.445  24.509  15.548  0.0449  0.1316  0.1562
36964W        W80017   5.064   0.500  14.946 -0.0599  0.0431 -0.1012
36965W        W80018   6.400  26.891  18.333 -0.0413 -0.3081  0.0340
36966W        W80019  21.693  13.118  19.965 -0.0522  0.0453  0.2387
36967W        W80020   2.525  25.781  13.380 -0.0618 -0.1753  0.4680
36968W        W80021  12.529  22.684  22.715 -0.4905  0.0047  0.0821
36969W        W80022  30.756  12.875   1.723 -0.0663  0.2292 -0.0087
36970W        W80023  27.954  26.793  15.889  0.0663  0.1596  0.0075
36971W        W80024  33.984  23.367  18.534  0.0666  0.2966 -0.0943
36972W        W80025  17.286   6.704  20.197 -0.0343 -0.0113 -0.2101
36973W        W80026  30.931   2.800  18.369  0.1229 -0.2162  0.0732
36974W        W80027  34.235  13.508  15.728 -0.0933  0.0112 -0.0243
36975W        W80028  30.252  34.676   2.666  0.2815  0.0320  0.0040
36976W        W80029  26.357  25.666  23.188 -0.0592 -0.0655  0.1754
36977W        W80030  25.113   5.165  15.591 -0.0145  0.1514 -0.2720
36978W        W80031  13.071  10.257  25.959  0.1217  0.3143 -0.2839
36979W        W80032   5.333  32.736  17.270  0.2492 -0.1849  0.1878
36980W        W80033  16.908  10.781  28.869  0.0049 -0.1090 -0.3585
36981W        W80034  26.109   7.401  23.138 -0.1517 -0.0669 -0.0054
36982W        W80035   2.996  11.438  20.390  0.0781  0.0129 -0.2876
36983W        W80036  11.183   0.882  17.150 -0.2493 -0.1564  0.1668
36984W        W80037  32.833   6.522   5.047 -0.0186 -0.0418 -0.4791
36985W        W80038  34.466  15.955   0.190 -0.4315 -0.2714 -0.0221
36986W        W80039   1.670  13.623  16.423 -0.4144  0.0955  0.1210
36987W        W80040   8.721  11.145  24.181 -0.0532 -0.0586 -0.0143
36988W        W80041   1.894  10.859  15.225  0.2406 -0.1683  0.0531
36989W        W80042  11.009  28.160  28.539 -0.1182  0.1417 -0.4563
36990W        W80043   1.703  34.067  20.774  0.0443 -0.0421  0.0107
36991W        W80044  28.198  16.850  22.580  0.2568  0.0109 -0.3502
36992W        W80045   1.424  10.151   2.224 -0.1154 -0.3789  0.1859
36993W        W80046  15.481  20.789  19.971  0.3707  0.0154 -0.2048
36994W        W80047  29.858   5.456  27.793  0.1649 -0.1240  0.1479
36995W        W80048  33.950   8.160  22.582  0.3088 -0.0931 -0.2579
36996W        W80049   3.402   6.677  15.819 -0.3958 -0.2218 -0.2337
36997W        W80050  23.844  16.338  23.248 -0.1388 -0.6301  0.1932
36998W        W80051  13.415  11.731  20.342  0.2204 -0.3416 -0.1385
36999W        W80052   8.883   0.638  27.188  0.1829  0.0077 -0.2308
37000W        W80053  30.865   2.997  14.538  0.1010 -0.0085  0.0548
37001W        W80054  32.486  19.232  17.736 -0.2073  0.0355  0.3211
37002W        W80055  28.324  14.985  23.395 -0.2637  0.0367  0.2217
37003W        W80056   2.069  24.285   4.004 -0.0520  0.3535  0.0806
37004W        W80057  23.760  25.276  20.658 -0.1962  0.0646  0.1225
37005W        W80058  25.517   4.774   0.152 -0.3301 -0.0747  0.2194
37006W        W80059  28.660  19.238  24.696  0.0523 -0.4461  0.3238
37007W        W80060   2.204  14.919  22.876 -0.2961  0.0694 -0.1601
37008W        W80061  21.283  32.008   1.258  0.1200 -0.1222 -0.1764
37009W        W80062  19.694  14.910  15.687  0.0772  0.0790 -0.1815
37010W        W80063  24.962  20.934  22.743 -0.1778  0.3168 -0.1675
37011W        W80064  27.486   7.681  18.832  0.0221  0.1193 -0.3072
37012W        W80065  30.363  10.635  20.254  0.0767 -0.2415 -0.1070
37013W        W80066  22.016  12.398  26.990  0.0419  0.1813 -0.1154
37014W        W80067   6.459   9.594  18.524 -0.1571  0.2311 -0.0708
37015W        W80068   2.509  27.145  28.361 -0.0591  0.0800  0.0010
37016W        W80069  33.991  26.428  19.436  0.1798  0.1206 -0.1264
37017W        W80070   5.561  31.171  19.894 -0.2598 -0.1450  0.0068
37018W        W80071  33.120  10.284  16.530  0.3284  0.2815 -0.3446
37019W        W80072   2.856  18.357  18.606  0.3713  0.1077  0.1270
37020W        W80073   3.637  20.794  14.553  0.0773  0.0110  0.2338
37021W        W80074   1.582   6.670   2.768 -0.0639 -0.0254  0.0547
37022W        W80075   3.870  13.317  20.251  0.1754  0.0703  0.1852
37023W        W80076  18.315   1.558  19.943 -0.2265  0.4015  0.1496
37024W        W80077  29.109  24.151  17.395 -0.0398  0.0170  0.1242
37025W        W80078  26.301   6.354   0.763  0.0647  0.0477  0.1015
37026W        W80079   2.425  16.219  19.324  0.2693 -0.4790 -0.1595
37027W        W80080  19.906   7.521  19.737 -0.4448 -0.1491  0.1591
37028W        W80081   8.605  17.093  19.013  0.0504  0.0818  0.0828
37029W        W80082   2.746  14.731  14.181  0.1241  0.0632 -0.1312
37030W        W80083  16.368   3.419  19.774  0.0349 -0.1611  0.0123
37031W        W80084   6.820   3.407   5.918  0.2383  0.4718  0.0112
37032W        W80085  23.094   1.503  14.645  0.0108 -0.1334 -0.1008
37033W        W80086  32.452  20.291  18.866  0.1311 -0.1292  0.1690
37034W        W80087   6.324  24.090  14.072  0.1510 -0.0358 -0.0605
37035W        W80088  23.865  25.208  16.981  0.0111 -0.1586  0.3473
37036W        W80089  21.972  25.123  26.076  0.3639  0.2101  0.0717
37037W        W80090  10.046  29.255  15.744 -0.0792 -0.2296 -0.2763
37038W        W80091  32.449  29.473  28.958 -0.2167 -0.0542 -0.1488
37039W        W80092  26.234  13.541  18.481  0.0817  0.0944  0.0600
37040W        W80093  24.856  17.125  17.399 -0.0846  0.0747 -0.3506
37041W        W80094   5.696  29.311  14.434 -0.1194 -0.2666  0.3930
37042W        W80095  14.260  16.185  16.742  0.3245 -0.0808  0.1001
37043W        W80096  28.473  13.720  20.887 -0.0278 -0.0002 -0.0908
37044W        W80097  21.083  24.161  21.045  0.1445  0.1219  0.0427
37045W        W80098  31.618  26.793  18.296 -0.1146 -0.5111 -0.0676
37046W        W80099  30.745  21.175  21.298  0.4086  0.2124 -0.0902
37047W        W80100  31.144  17.685  17.705 -0.0670 -0.1610  0.3983
37048W        W80101  29.632  27.802  19.424 -0.1489 -0.2178  0.2324
37049W        W80102  25.520  25.717  26.216  0.1110  0.2628 -0.3012
37050W        W80103  13.072   4.264  14.132 -0.1445 -0.3016  0.1925
37051W        W80104   0.192  27.893  20.925  0.0561  0.0491  0.2494
37052W        W80105  26.456  22.119  27.805 -0.0177 -0.2977 -0.0968
37053W        W80106  18.317  27.599  26.099 -0.0301  0.1298 -0.1014
37054W        W80107  20.648  24.073  17.760 -0.0295 -0.0279 -0.1350
37055W        W80108  32.726  15.601  20.530 -0.1333  0.0769  0.1561
37056W        W80109  26.532   8.742   1.189  0.0247  0.0247  0.2185
37057W        W80110   6.164  18.844  16.324  0.0254  0.2603 -0.0900
37058W        W80111   7.756  27.222  15.110  0.1587 -0.0712 -0.1534
37059W        W80112   4.784  21.624   7.386 -0.2023  0.0705 -0.1246
37060W        W80113   1.513   6.042  28.992 -0.2244  0.0434  0.0603
37061W        W80114  29.956  16.631  20.867  0.2783 -0.1222 -0.2144
37062W        W80115  27.924  10.177  16.943 -0.2359  0.2212 -0.1535
37063W        W80116   9.849  18.125  21.184 -0.1873 -0.0479 -0.1744
37064W        W80117   4.686  19.115  22.782 -0.4055 -0.3051  0.0388
37065W        W80118  29.078  13.440   7.417 -0.0424  0.1969 -0.0259
37066W        W80119   3.262  14.301  22.650 -0.0142 -0.1431  0.1081
37067W        W80120  33.178   8.236  21.542 -0.1357  0.1902 -0.2067
37068W        W80121   7.506   5.846  19.126  0.0948  0.2251 -0.0346
37069W        W80122  27.978  10.685  16.692  0.0285  0.0501  0.2379
37070W        W80123   8.047   5.295  23.986 -0.2876 -0.0868 -0.1978
37071W        W80124   9.147  19.580   3.094 -0.0664  0.1587 -0.0021
37072W        W80125  23.158  30.163  27.043 -0.5492  0.0695  0.4311
37073W        W80126  32.830  28.164  17.391 -0.0980  0.0729 -0.1911
37074W        W80127  22.589  29.131  14.838 -0.0500  0.2252 -0.1655
37075W        W80128  17.466  30.742   7.844  0.4127 -0.1272 -0.0750
37076W        W80129   0.127  12.908  20.841 -0.0314  0.0871  0.2627
37077W        W80130  26.085  13.433   4.109 -0.0088 -0.1338 -0.1379
37078W        W80131  30.117   9.557  28.539  0.4278  0.0835  0.1343
37079W        W80132  24.681  29.041  20.598  0.2106 -0.4807  0.0423
37080W        W80133  31.902   7.560  22.452  0.0421  0.0185 -0.0455
37081W        W80134   2.140  29.639  18.100 -0.1151 -0.3967 -0.0390
37082W        W80135   3.238  21.759  21.986 -0.0623 -0.0856 -0.0676
37083W        W80136  22.385  12.156  13.523 -0.1007  0.2109  0.2865
37084W        W80137  20.389  12.460  18.473  0.1514 -0.1036 -0.0128
37085W        W80138  32.207  18.986  16.295 -0.1915  0.0333  0.1246
37086W        W80139  16.976   8.031  14.985  0.0433  0.0609 -0.2232
37087W        W80140   8.874  14.860  24.096  0.3095 -0.2399  0.0110
37088W        W80141  27.509  15.188  22.980  0.1301  0.1816  0.0558
37089W        W80142  31.687  27.783  17.983 -0.2168  0.1558 -0.5651
37090W        W80143  26.844  24.455  19.139 -0.2397 -0.0169 -0.2079
37091W        W80144  12.269  29.229  14.578 -0.0914 -0.0749  0.2863
37092W        W80145   7.400  11.946  26.099 -0.1872 -0.3776  0.2483
37093W        W80146  25.207  32.722  19.380 -0.2871  0.1092  0.1392
37094W        W80147  29.440  18.060  28.886  0.0969 -0.2292 -0.0673
37095W        W80148  28.401  25.472  13.756 -0.0331  0.0026 -0.1545
37096W        W80149  31.602   7.981  16.756 -0.0717  0.2532  0.0620
37097W        W80150  31.582  24.150   4.690 -0.1236  0.3239 -0.3623
37098W        W80151   1.115  25.620  24.742  0.3412 -0.0577 -0.0021
37099W        W80152   8.365  33.969  21.752  0.0807 -0.0872 -0.0509
37100W        W80153  34.509   3.886  15.144  0.3563 -0.1863 -0.2269
37101W        W80154  34.395  30.990  13.864 -0.3501  0.0521 -0.3639
37102W        W80155  28.887  23.329  16.373  0.1527 -0.1546  0.2859
37103W        W80156  34.414  14.155  21.383 -0.1794 -0.2962  0.1724
37104W        W80157   2.618  13.970  16.466  0.1214 -0.4278  0.2681
37105W        W80158  23.222  21.302  15.537  0.4022  0.2517 -0.4032
37106W        W80159  13.725  18.143  16.271  0.2263  0.1966 -0.0652
37107W        W80160  16.127   5.450  28.567  0.2904  0.0053  0.0021
37108W        W80161  24.946  15.156   1.205 -0.2296 -0.0676  0.0295
37109W        W80162  29.647  25.527  24.195 -0.3480 -0.0678 -0.1115
37110W        W80163   1.198   9.386  15.669 -0.0912 -0.2092  0.0207
37111W        W80164   7.588   4.911  19.235 -0.1147 -0.0392 -0.2551
37112W        W80165  30.459   7.569  21.627 -0.2309 -0.3126  0.0600
37113W        W80166  32.962  17.376  20.440 -0.1470  0.0891  0.1034
37114W        W80167  10.095  14.066  20.685 -0.0505 -0.1738  0.0247
37115W        W80168  33.427  13.889  25.317 -0.1421 -0.0373 -0.3056
37116W        W80169  14.364  12.040  26.641 -0.0661  0.2037  0.3179
37117W        W80170  31.221   9.230  27.827  0.0697  0.0666 -0.0539
37118W        W80171  28.670  18.449  21.619  0.0087  0.3638  0.0609
37119W        W80172  27.113  28.274  17.153  0.2172 -0.1109  0.4274
37120W        W80173  19.273  29.239   4.548  0.1439  0.1701  0.0757
37121W        W80174  20.850  20.469  19.167  0.0725 -0.1247  0.0569
37122W        W80175  33.679  19.797  21.204 -0.0367 -0.1692  0.1566
37123W        W80176  25.316  18.384  15.109 -0.2419  0.3564  0.1063
37124W        W80177  16.649   4.292  16.374  0.2739  0.0818 -0.1251
37125W        W80178   5.417   3.915  16.526  0.1814 -0.0806 -0.1117
37126W        W80179  27.148  15.016  14.840 -0.0418  0.1596  0.0759
37127W        W80180  11.983  26.008  20.791  0.0785  0.1680 -0.0041
37128W        W80181  29.166   9.207  19.336 -0.1551 -0.4383 -0.1703
37129W        W80182  28.527  15.552  22.816  0.1049  0.3762 -0.0564
37130W        W80183  21.647  21.929  17.836 -0.0549  0.1557  0.4426
37131W        W80184  25.107   9.608  16.423 -0.0722 -0.0602  0.0304
37132W        W80185  25.480  29.371  18.135 -0.2307 -0.3336  0.0779
37133W        W80186  31.468  17.970  22.624 -0.3595  0.0957 -0.0607
37134W        W80187  28.945  14.428  23.795  0.0558  0.0668  0.0691
37135W        W80188   5.187  18.335   8.112  0.0131  0.0132  0.2286
37136W        W80189  33.402   7.994  20.626  0.2813  0.0350  0.1006
37137W        W80190  34.633  10.806  20.778 -0.1849  0.4248  0.0229
37138W        W80191  30.404  32.192  16.071 -0.1075 -0.1640  0.0461
37139W        W80192  32.075  18.459  13.814  0.0940 -0.2613 -0.0953
37140W        W80193  34.033  19.489  19.973 -0.1521  0.0993 -0.0599
37141W        W80194   3.410  15.617  16.385 -0.3951  0.0341 -0.3038
37142W        W80195  11.676  30.655   0.417  0.0159  0.0728  0.0700
37143W        W80196   6.183  30.084  17.123  0.2519 -0.3133 -0.1107
37144W        W80197   0.983  10.208   5.430 -0.0215  0.1488  0.0790
37145W        W80198   8.655  21.717  16.582  0.2796  0.3308  0.1160
37146W        W80199  22.378  14.377  21.187 -0.0370 -0.0508  0.1300
37147W        W80200  23.410  20.270  19.362 -0.2273 -0.0937  0.1477
37148W        W80201   0.530  15.382  16.195 -0.0645 -0.0989  0.1546
37149W        W80202   7.706  14.323  15.579 -0.0672 -0.0037  0.2753
37150W        W80203   1.491  31.400  15.051  0.2985 -0.0036  0.3256
37151W        W80204  32.891   2.379  17.215  0.0015  0.4377 -0.1004
37152W        W80205  28.222  13.045  16.070 -0.2621 -0.1990 -0.0308
37153W        W80206  25.368  28.426  16.405  0.1840  0.1080  0.1460
37154W        W80207   3.042  25.749  17.457 -0.0916  0.2694 -0.0514
37155W        W80208  30.213  16.357  16.712 -0.2288  0.3740 -0.1783
37156W        W80209  29.438   8.771  21.293  0.0777  0.0690  0.0533
37157W        W80210   0.245  26.441  18.659 -0.0631 -0.1375  0.1480
37158W        W80211   2.043  31.662   4.052  0.0359  0.4655 -0.0452
37159W        W80212  24.972  23.002  15.008 -0.0064 -0.1239 -0.3329
37160W        W80213  10.499  19.136  21.792 -0.2748  0.0134 -0.2684
37161W        W80214  24.827  17.169  27.760  0.0923  0.0420 -0.0348
37162W        W80215  33.827   5.547   8.606  0.3782 -0.3225 -0.0332
37163W        W80216   4.465  18.294  14.085  0.1259  0.2229 -0.1703
37164W        W80217  16.560   5.686  18.101 -0.0815 -0.3163  0.2972
37165W        W80218   1.514  13.829  17.095 -0.1340 -0.0139 -0.0749
37166W        W80219  21.408  12.995  25.292  0.2135  0.1411 -0.0872
37167W        W80220  29.628   2.153  20.348  0.1339  0.3263  0.1191
37168W        W80221  33.658  10.415  25.968  0.0148  0.1149  0.0809
37169W        W80222  28.820  33.784  22.833 -0.0821  0.0593 -0.0167
37170W        W80223   0.523  15.565   4.310  0.3687 -0.1905 -0.0375
37171W        W80224   8.966   6.974  18.399 -0.0688  0.1753 -0.0846
37172W        W80225  29.880  11.991   1.143 -0.0325  0.0360  0.1276
37173W        W80226  26.215   0.591  19.565 -0.0088  0.0949  0.1003
37174W        W80227  29.748  19.317  21.147  0.1863 -0.0717  0.3349
37175W        W80228  28.267  18.748  15.583  0.2750  0.3118 -0.0532
37176W        W80229  27.594   9.976  24.235  0.2775  0.2611  0.3016
37177W        W80230   0.850  26.044  17.442  0.0374  0.0717  0.3298
37178W        W80231  18.255  30.107   3.975 -0.2964  0.0693 -0.1634
37179W        W80232  29.233  16.320  15.370 -0.2150  0.1838 -0.3227
37180W        W80233   7.045  24.996  14.085 -0.1510  0.0636 -0.0537
37181W        W80234   4.402  21.662   6.473  0.0149 -0.1071 -0.0244
37182W        W80235   9.973  23.559  21.121 -0.0199 -0.1617  0.2607
37183W        W80236  30.052  23.556  19.398 -0.3247 -0.0051 -0.1253
37184W        W80237  12.300  10.476  28.111 -0.4090 -0.0472  0.1363
37185W        W80238   5.037   4.216  20.303  0.0786 -0.1438 -0.1497
37186W        W80239   6.947  16.098   8.279  0.0124 -0.1800 -0.2802
37187W        W80240  24.851  12.732  20.446  0.0522  0.4015 -0.0594
37188W        W80241  28.250  16.840  19.328 -0.0644  0.2278 -0.2236
37189W        W80242   5.256  15.829  14.248 -0.0547 -0.0458 -0.0981
37190W        W80243  32.207  15.797  26.185  0.0136  0.0358  0.0796
37191W        W80244  28.830  21.286  21.063  0.0072  0.0050  0.2193
37192W        W80245  27.468   5.578  17.848 -0.2190  0.0273 -0.1389
37193W        W80246  31.745  34.301  25.503 -0.0239 -0.0237 -0.1923
37194W        W80247   8.080  15.030   8.485 -0.3331  0.0908 -0.2047
37195W        W80248   1.026   6.823  15.865  0.0271 -0.1170 -0.0289
37196W        W80249   4.437  29.678  17.683 -0.0778  0.4171 -0.2123
37197W        W80250   3.833  30.350  24.534 -0.0339 -0.2235  0.1991
37198W        W80251  33.631  11.466  22.805 -0.1995  0.1214 -0.1174
37199W        W80252   4.509  10.053  17.179 -0.0451 -0.1874  0.0296
37200W        W80253  28.491  19.742  16.017  0.0747  0.3375 -0.4188
37201W        W80254  23.001  12.463  20.674  0.0944  0.0589 -0.3929
37202W        W80255  32.818  29.783  16.680 -0.0934  0.1460 -0.2494
37203W        W80256  25.433   9.530  20.198 -0.1644  0.3740  0.2195
37204W        W80257  31.133  17.731  14.487 -0.5391 -0.0140  0.2707
37205W        W80258   3.642   4.181  15.388 -0.0593  0.1436 -0.0665
37206W        W80259   1.784  12.080  18.030  0.1873  0.0309 -0.0644
37207W        W80260  19.112  23.242  17.221 -0.2462 -0.1480 -0.1080
37208W        W80261   1.464   4.889  16.392  0.0774 -0.0393 -0.3292
37209W        W80262  27.116  12.609  21.662  0.0170 -0.0180 -0.0448
37210W        W80263  27.936  20.749  14.339  0.0370  0.0348 -0.0414
37211W        W80264  31.731  15.712  26.293 -0.1203  0.3041 -0.0592
37212W        W80265  32.227  28.524  25.198 -0.2349  0.0766 -0.1849
37213W        W80266   5.496  16.524   3.166  0.1164 -0.0450 -0.0056
37214W        W80267   6.433  32.060  19.606 -0.0329 -0.1493  0.1087
37215W        W80268  26.798  12.004  16.991 -0.0466  0.0450 -0.3607
37216W        W80269  27.121  20.059   2.258  0.1325  0.0623  0.0785
37217W        W80270  22.311  17.426  21.706  0.1423 -0.0442  0.0429
37218W        W80271  24.482  10.041   2.340 -0.2583 -0.0799 -0.0009
37219W        W80272  10.383  22.334  17.818 -0.0567 -0.0525  0.0315
37220W        W80273  17.455  28.310  18.358 -0.1666 -0.1084  0.2848
37221W        W80274  24.950  18.174  19.215  0.1402  0.2678  0.1368
37222W        W80275   1.172  24.204  21.206 -0.1644  0.1009 -0.0364
37223W        W80276  31.027  24.571  14.955 -0.1437 -0.0362  0.0018
37224W        W80277   9.248  19.260  15.947  0.4146 -0.0490  0.0307
37225W        W80278  31.202   2.414   4.238 -0.2002  0.1357 -0.1244
37226W        W80279   3.895  33.492  22.659  0.1086  0.0389  0.0768
37227W        W80280   7.222  29.723  14.820 -0.0850  0.2850 -0.2748
37228W        W80281   0.833  27.336  25.464  0.0470 -0.0434  0.0298
37229W        W80282  20.773  21.393  20.216  0.2806 -0.1565  0.1442
37230W        W80283  26.009  11.995  28.797  0.1545  0.5497  0.1487
37231W        W80284  32.718  30.333  14.161 -0.1342 -0.1170  0.2107
37232W        W80285  34.305  10.120  17.763 -0.1998  0.2576 -0.1571
37233W        W80286  28.265  15.937  23.214 -0.0968  0.1471  0.0699
37234W        W80287  28.271  18.169  19.138  0.1233  0.4287  0.0404
37235W        W80288   0.527  22.357  20.430  0.0576 -0.0488  0.0723
37236W        W80289  28.271   7.504  27.233 -0.0949  0.0721 -0.1752
37237W        W80290  34.221  18.254  16.537 -0.3207  0.2041 -0.0009
37238W        W80291   2.605  27.189  13.408 -0.0803  0.1738  0.2908
37239W        W80292   3.032  11.240  14.353  0.1411 -0.3106 -0.1613
37240W        W80293  10.228   4.862  16.109  0.0618  0.1260  0.1208
37241W        W80294  11.842   9.119  18.600  0.1355  0.1174 -0.2194
37242W        W80295  24.458  13.116  14.955  0.3163 -0.1010  0.0959
37243W        W80296  13.090  20.570  17.263 -0.0733  0.1901  0.0804
37244W        W80297  22.510   9.682   6.528 -0.0039 -0.0603  0.0257
37245W        W80298   2.368  32.638  18.172 -0.3183  0.0284 -0.1574
37246W        W80299  27.955  10.713  23.923  0.5608 -0.0055 -0.0342
37247W        W80300   7.536  12.260  18.927 -0.1577  0.0614 -0.1570
37248W        W80301  29.702  20.480  14.962  0.2688 -0.1583  0.0040
37249W        W80302  30.088  22.926  25.232  0.2441 -0.3430 -0.3606
37250W        W80303  30.469  12.166  19.710  0.2023 -0.0352  0.0108
37251W        W80304  33.186  21.470  22.169 -0.4222  0.0038 -0.2124
37252W        W80305  27.910  26.125  14.993 -0.3910 -0.0193  0.0190
37253W        W80306   2.183   2.448  17.443 -0.0758  0.3290  0.0149
37254W        W80307  23.320  15.875  26.426  0.2090 -0.0185  0.0999
37255W        W80308  28.539  26.466  20.699 -0.0224  0.1437 -0.0157
37256W        W80309   2.178  20.644   8.074 -0.3747 -0.0874 -0.2615
37257W        W80310  32.512  14.399  17.025 -0.3289  0.3241 -0.0297
37258W        W80311   3.494   5.847  18.224 -0.1773 -0.1087 -0.0335
37259W        W80312  31.222   0.788   0.912  0.0811 -0.0907  0.0522
37260W        W80313   1.528  20.136  20.089  0.0598  0.0723 -0.0134
37261W        W80314  15.811  11.508  16.789  0.0654 -0.1107  0.1854
37262W        W80315   1.632   1.028  26.193 -0.0598 -0.1087 -0.1311
37263W        W80316  33.709  22.301  20.187  0.0132  0.0668 -0.0173
37264W        W80317  12.875  11.884   7.845  0.0423  0.0159 -0.2432
37265W        W80318  28.003  19.611  15.946  0.1095  0.0270  0.2118
37266W        W80319  20.344   0.328  22.009 -0.3647  0.0647 -0.0346
37267W        W80320   9.555  32.023   3.292  0.3085 -0.0217  0.0254
37268W        W80321   3.544  17.829  17.267  0.2397  0.2209  0.1785
37269W        W80322  12.574  12.021  22.226 -0.0184  0.3275 -0.2983
37270W        W80323  29.247  20.996  22.210  0.2738  0.0774  0.0048
37271W        W80324  31.238   1.448  18.409 -0.0161 -0.0467  0.0410
37272W        W80325  20.446  21.790  25.200  0.3172 -0.0032  0.0174
37273W        W80326   6.646   2.715  18.039  0.0459  0.2614  0.2017
37274W        W80327   3.546   7.228  24.831 -0.2321 -0.1690 -0.3429
37275W        W80328  16.680  22.079  23.261  0.0048 -0.0135  0.1458
37276W        W80329   2.134  14.059  19.271 -0.2169 -0.0259  0.0421
37277W        W80330  34.465  27.312  14.435  0.1671  0.1012 -0.1691
37278W        W80331  32.767  13.458  21.110 -0.0535 -0.0393 -0.0470
37279W        W80332  27.507  23.183   0.340 -0.0798  0.1368 -0.5484
37280W        W80333  12.574   5.790   0.998  0.0665 -0.2237  0.1747
37281W        W80334  29.991  28.306  20.785 -0.2987 -0.1823 -0.2564
37282W        W80335  22.584  27.305  21.162  0.0352  0.2309 -0.3174
37283W        W80336  18.167  31.846  16.130 -0.1188 -0.2960  0.1865
37284W        W80337  29.488  18.610  13.970  0.2390  0.0200 -0.1411
37285W        W80338   7.071  14.194  14.604  0.0412 -0.1442  0.0257
37286W        W80339   5.516  19.252  20.747 -0.3325  0.2325 -0.5850
37287W        W80340  19.384   5.805  23.355  0.2577 -0.2246  0.0782
37288W        W80341   1.758   5.614  20.388  0.1391 -0.3178 -0.0127
37289W        W80342  32.201   6.516  23.129  0.3514 -0.0351  0.0785
37290W        W80343  31.328  15.038  18.100 -0.0148  0.3003  0.0293
37291W        W80344  30.555  11.576  22.487  0.3167  0.1738  0.2892
37292W        W80345  31.624  26.755  16.319  0.3514  0.1519  0.4145
37293W        W80346   6.920  17.652  25.601 -0.1366  0.3180  0.1250
37294W        W80347  28.531  19.901  15.237  0.2211  0.2250  0.1026
37295W        W80348   6.562  13.982  14.914  0.0449 -0.1174 -0.1135
37296W        W80349  19.969  18.227   6.958 -0.1827 -0.4594 -0.1371
37297W        W80350   3.941  18.547  15.870  0.1539  0.0835 -0.2488
37298W        W80351  17.919  32.058   6.300  0.2622  0.1568  0.1737
37299W        W80352  26.072  27.790  20.199 -0.1070  0.0649  0.1157
37300W        W80353   2.238   8.266  20.675 -0.1561 -0.0226  0.0220
37301W        W80354  25.907  25.913  19.566  0.3286 -0.1926 -0.2387
37302W        W80355  23.134  20.635  20.592  0.2075  0.0813 -0.3175
37303W        W80356  23.954   5.756  22.457 -0.2941  0.3077  0.2983
37304W        W80357   6.401  12.447  21.025 -0.0260 -0.2585 -0.0727
37305W        W80358  22.432  15.380  22.790 -0.1634 -0.1635  0.0858
37306W        W80359   3.827  33.409  26.290  0.1589 -0.3297 -0.0262
37307W        W80360  29.350  16.544   4.509 -0.2169  0.3564  0.0306
37308W        W80361  32.961  20.858  16.548 -0.2505 -0.1632  0.1539
37309W        W80362  12.135   7.124  14.648  0.0133  0.0122  0.1995
37310W        W80363  22.182  10.014   4.781 -0.0772  0.3254 -0.2791
37311W        W80364  33.150  13.991  21.774  0.3144 -0.2604 -0.1485
37312W        W80365   7.786   8.148  18.834 -0.0225  0.3006  0.0766
37313W        W80366  12.737  14.028  29.191  0.2759 -0.0211  0.2458
37314W        W80367  24.187   4.314  18.240  0.0149  0.0020  0.2524
37315W        W80368  28.176   4.591  26.259  0.1697  0.1341  0.0723
37316W        W80369  24.290  10.326   0.597 -0.0729  0.0178 -0.0384
37317W        W80370  24.748  23.360  16.764  0.2216  0.3204  0.1995
37318W        W80371   6.166  12.917  21.370  0.2384 -0.0058  0.0961
37319W        W80372  34.327  25.361   4.922  0.1015 -0.2365 -0.1814
37320W        W80373  25.514  26.510  14.983  0.0256 -0.0846 -0.0824
37321W        W80374  30.883  20.614  17.268 -0.1730 -0.3911 -0.0526
37322W        W80375   7.019   4.621  28.722  0.1986 -0.1800 -0.1373
37323W        W80376   2.137   6.438  14.334  0.3436  0.2885  0.3077
37324W        W80377  30.644  16.000   6.753  0.0363  0.0348 -0.0210
37325W        W80378   8.783  13.540  18.823 -0.0238 -0.4464 -0.0149
37326W        W80379  27.949  16.068  21.594  0.0778 -0.1592 -0.4652
37327W        W80380  29.181  17.495  27.382 -0.0667 -0.1829 -0.0096
37328W        W80381   0.868  21.420   8.489  0.2187 -0.2135 -0.2653
37329W        W80382  28.472   8.898  22.603  0.0569 -0.0728  0.1584
37330W        W80383   8.181  12.920  15.766  0.0868 -0.1205  0.1806
37331W        W80384  22.505  14.921  22.543 -0.1753 -0.0294  0.3902
37332W        W80385  31.343  13.855  24.264  0.0789 -0.1147  0.0029
37333W        W80386  32.616   2.502  18.652 -0.2884 -0.3666  0.0241
37334W        W80387  19.926  27.101  15.866 -0.0568  0.2287  0.1528
37335W        W80388  32.558  20.403  16.161 -0.2696  0.1088 -0.1207
37336W        W80389  28.063   8.541  16.795 -0.1245 -0.1466 -0.1364
37337W        W80390  26.048  22.269  17.148  0.1544  0.0189  0.1580
37338W        W80391  32.125  27.263  25.176 -0.3594 -0.1061  0.3574
37339W        W80392  20.487   0.205  25.757  0.2220  0.1820 -0.0959
37340W        W80393  29.393  29.415  22.329  0.3952 -0.1055  0.1222
37341W        W80394  22.183  12.231  25.365  0.3286  0.4950  0.1766
37342W        W80395   3.490  10.216   2.500 -0.0773  0.1585 -0.2236
37343W        W80396   7.130  32.965  24.549  0.1214  0.1836 -0.1014
37344W        W80397   3.646   1.211  13.447 -0.3013  0.2932  0.0822
37345W        W80398  30.202  16.439  14.045  0.1872  0.1242  0.0064
37346W        W80399  33.639  26.804  21.712 -0.2907  0.0371  0.0869
37347W        W80400   2.990  32.544  13.487 -0.1127 -0.1759  0.2043
37348W        W80401   3.888  32.303  27.705 -0.0726 -0.0222 -0.0401
37349W        W80402   6.523  14.517  24.517 -0.1686  0.0550  0.0455
37350W        W80403   3.274  24.258  20.886  0.2275 -0.0102  0.1837
37351W        W80404  20.141  24.572  28.791  0.2941 -0.2475  0.0994
37352W        W80405   0.115   6.162  25.883  0.1077  0.0348  0.3517
37353W        W80406  17.580  25.381  21.952 -0.3379  0.1765  0.4061
37354W        W80407  32.428  17.748  14.571  0.0313 -0.3206 -0.0979
37355W        W80408   1.261  14.493  15.160 -0.0487 -0.1139  0.1772
37356W        W80409  11.180  15.003  17.219 -0.0905  0.1288 -0.0812
37357W        W80410  30.353  29.717  22.437  0.1202  0.1102 -0.0857
37358W        W80411  33.487  16.747  22.131  0.2892 -0.2163 -0.0782
37359W        W80412  12.688  13.382   9.546 -0.1284  0.1728  0.2124
37360W        W80413  27.338  19.646  15.017 -0.1217 -0.0589  0.0757
37361W        W80414  27.619  16.589  15.813 -0.1952 -0.1219 -0.1087
37362W        W80415   0.963  27.104  26.559  0.0542 -0.1944  0.3442
37363W        W80416  18.581  28.468  15.076  0.2190 -0.0865 -0.1521
37364W        W80417  25.344  22.459  21.474  0.1801 -0.0672 -0.0978
37365W        W80418  30.118   9.090  15.452  0.0790  0.0770  0.0251
37366W        W80419  21.083  23.039  19.216 -0.0804  0.1788  0.1043
37367W        W80420  24.540  16.396  16.341 -0.0698  0.0702 -0.0234
37368W        W80421  29.856   8.762  26.620 -0.4553 -0.0965  0.4104
37369W        W80422   5.220  17.390  14.384  0.0509  0.0707  0.4403
37370W        W80423  32.309   6.535  25.530 -0.0717  0.1494  0.2907
37371W        W80424  19.180  21.288  13.977  0.1177 -0.0038 -0.0801
37372W        W80425  30.228  19.023  24.011 -0.0496  0.0232  0.0000
37373W        W80426  33.043  17.257  24.644  0.2940  0.1628 -0.0914
37374W        W80427  30.736  26.539  13.946 -0.0707  0.1896  0.0229
37375W        W80428  34.300  15.851  18.616  0.2352  0.0139 -0.0470
37376W        W80429   4.063   5.844  27.407  0.1903  0.0866 -0.1063
37377W        W80430  34.194  27.959   1.342 -0.1531  0.2310 -0.0393
37378W        W80431   6.415  19.560  22.884 -0.0025 -0.1071  0.2697
37379W        W80432  28.117  14.372  24.796  0.1343  0.0755 -0.0521
37380W        W80433  11.058   7.788   7.463  0.3592  0.0365  0.0294
37381W        W80434  10.658  30.258  20.504 -0.0704  0.1761  0.1944
37382W        W80435   2.150   2.186   4.115  0.3387  0.0844 -0.2585
37383W        W80436   2.352  15.335   6.706 -0.0197  0.0984  0.2400
37384W        W80437  32.250  21.616  18.494  0.1478  0.3920 -0.0097
37385W        W80438  29.193  13.027   8.282  0.0579 -0.2049 -0.1006
37386W        W80439  13.206  17.401  15.925  0.1735 -0.1294  0.0780
37387W        W80440   9.913  16.012  22.528  0.0112 -0.1670 -0.2469
37388W        W80441  26.058  27.340  27.285 -0.4848 -0.2667  0.0828
37389W        W80442  24.185  25.888   2.624 -0.2599 -0.2390 -0.0547
37390W        W80443   0.058  19.269  24.219 -0.0142  0.2892  0.1529
37391W        W80444   2.230  29.694  22.967 -0.0499  0.1009 -0.1122
37392W        W80445  11.624  23.072  18.206  0.2386 -0.0244 -0.0227
37393W        W80446   2.122  18.024  25.704 -0.0859 -0.0993 -0.0418
37394W        W80447  29.738   1.291   7.671  0.0469  0.0132 -0.3535
37395W        W80448   0.147  22.472   1.733 -0.0829  0.1335 -0.1635
37396W        W80449  31.722   4.126   0.271 -0.0729  0.0832 -0.0430
37397W        W80450  30.233  10.309  18.059  0.1708 -0.1985 -0.0548
37398W        W80451   3.492  25.403  16.455 -0.1279 -0.3128  0.0959
37399W        W80452  23.323  15.592   3.637  0.0607 -0.1120  0.0521
37400W        W80453  28.339   2.537  26.575  0.2182  0.1703 -0.0263
37401W        W80454   0.695  12.320  20.155  0.4093 -0.0343 -0.0824
37402W        W80455  23.148  20.800  17.248  0.2023  0.2340  0.1942
37403W        W80456   0.853  30.111  25.495 -0.0472 -0.1306 -0.1939
37404W        W80457  24.024  18.688  17.308 -0.1104 -0.2739 -0.1056
37405W        W80458  21.289  22.740  22.288 -0.0941  0.0644  0.0656
37406W        W80459   0.326  22.175  17.401 -0.1770  0.0238 -0.1527
37407W        W80460  28.200  16.829  27.553 -0.0909  0.4166 -0.0324
37408W        W80461  12.019  17.449  14.468 -0.0372  0.2403 -0.0472
37409W        W80462  24.899  26.403  19.010  0.2969  0.1024  0.1665
37410W        W80463   2.711  33.138  18.472  0.1259  0.1918  0.4059
37411W        W80464  16.248  22.472  16.685  0.1255 -0.2732  0.2079
37412W        W80465  24.163  21.731  15.196 -0.1017 -0.1555 -0.1092
37413W        W80466  32.643  29.134   5.362  0.0676 -0.1067  0.1556
37414W        W80467  10.376  10.654  26.741  0.1115  0.2597 -0.3276
37415W        W80468  20.113  25.091  15.954  0.1067  0.0818  0.0333
37416W        W80469   5.036   0.427  22.917  0.0704  0.3779 -0.0056
37417W        W80470  26.995  12.940  25.481 -0.2782  0.3137 -0.1139
37418W        W80471   3.466   8.333  22.637 -0.0886  0.2296  0.2376
37419W        W80472  27.487   4.268  25.178  0.1520 -0.0683  0.0371
37420W        W80473   1.485  27.048  14.015 -0.0383  0.0608  0.0448
37421W        W80474  26.450  18.724   0.930 -0.0539  0.1351  0.1462
37422W        W80475  22.376  16.086  19.649 -0.0310  0.1226 -0.1650
37423W        W80476   7.901  19.772  18.086  0.1261 -0.2886  0.0876
37424W        W80477  29.673  22.909  27.291  0.1642 -0.1416  0.0146
37425W        W80478  28.982  16.236   1.186 -0.1352  0.3570  0.1233
37426W        W80479  29.973   9.667  25.208 -0.0306  0.1623  0.1871
37427W        W80480   0.561  24.042  13.176  0.0916 -0.0354 -0.0001
37428W        W80481  20.472  20.503   8.848 -0.1263 -0.1927 -0.1018
37429W        W80482  28.729  13.202  15.390 -0.0004 -0.3137 -0.0338
37430W        W80483   4.796  17.824  27.109 -0.0477 -0.2442  0.1366
37431W        W80484   9.206   6.286  16.172  0.2745 -0.3297 -0.1573
37432W        W80485  33.547  15.319   4.439  0.3601  0.2963  0.0281
37433W        W80486   8.384  19.980  18.212 -0.1724  0.2129  0.1568
37434W        W80487  27.605   5.571  19.589 -0.1385  0.2698  0.1999
37435W        W80488  31.410  15.609  15.884 -0.1837  0.1431 -0.0002
37436W        W80489  33.232  22.728  16.626  0.0711  0.0117 -0.0895
37437W        W80490  25.530   5.971  17.098  0.1670 -0.0701  0.1246
37438W        W80491  23.416  17.083  27.290 -0.0561 -0.0946 -0.0916
37439W        W80492  24.384  19.735  22.600  0.0706  0.0087 -0.2149
37440W        W80493  27.766  21.320  26.681  0.1289 -0.3247  0.2143
37441W        W80494  11.445  18.539  25.459 -0.1478  0.0768  0.2352
37442W        W80495  31.263  17.217  23.281 -0.4314 -0.0271  0.0546
37443W        W80496  34.089  13.526  24.299  0.3805 -0.0641 -0.5323
37444W        W80497  25.249  18.707  16.498 -0.2016  0.2977  0.0088
37445W        W80498   6.705   4.755   0.684  0.0076  0.1001  0.4023
37446W        W80499  29.626  12.612  17.057 -0.0337  0.0533  0.2683
37447W        W80500  25.751  19.672  25.382 -0.0951  0.2411  0.3433
37448W        W80501  14.207  31.436  22.270  0.3139  0.3631  0.2732
37449W        W80502   2.136  17.134  20.296  0.2406  0.1622 -0.2833
37450W        W80503  15.618  11.208  25.331  0.1269  0.0921  0.1168
37451W        W80504  18.557   4.569  19.351 -0.0835 -0.2472  0.2012
37452W        W80505   4.740   2.190  13.307  0.1634  0.1562 -0.0115
37453W        W80506  21.855  18.664  24.147 -0.1073  0.1070  0.6358
37454W        W80507  13.435  33.366  24.480  0.1917  0.0105 -0.3118
37455W        W80508  27.794  13.963  14.689 -0.1047  0.0200  0.1350
37456W        W80509   0.276  15.841  25.399  0.2068 -0.1688  0.0233
37457W        W80510   8.232  21.125  27.818 -0.1932 -0.1027 -0.1450
37458W        W80511   2.465  20.177  14.199  0.2687  0.0916 -0.0423
37459W        W80512  22.385  23.355  26.120 -0.2165  0.1798  0.1484
37460W        W80513  15.588   7.598  19.351 -0.1652 -0.1081  0.1768
37461W        W80514   3.143  27.727  17.488  0.0713  0.3137  0.1401
37462W        W80515  34.493  22.053  15.079  0.0515 -0.0925  0.1434
37463W        W80516  30.083   7.948  28.924  0.1169 -0.3831 -0.1385
37464W        W80517  26.659  27.443  14.892  0.1204 -0.2927 -0.1246
37465W        W80518  26.230  14.807  27.277  0.2763  0.2916 -0.1073
37466W        W80519  23.453   2.199   2.680 -0.1303  0.5154 -0.2302
37467W        W80520   1.641  12.371   7.345 -0.1202  0.0637 -0.1709
37468W        W80521  29.243  20.657   0.139  0.1186  0.1789  0.1689
37469W        W80522  34.564  33.746   3.514  0.1345  0.0659 -0.0078
37470W        W80523  34.683  22.243  18.371 -0.5136  0.4612  0.1890
37471W        W80524   8.507  29.137  26.303  0.2312  0.1381  0.1809
37472W        W80525  34.545   6.720   1.587 -0.0076  0.0198  0.2767
37473W        W80526  29.065  21.750  20.822 -0.0704  0.2643 -0.0412
37474W        W80527  27.020  27.549  14.177  0.1189 -0.0175 -0.0736
37475W        W80528  33.688  20.872  23.836 -0.0526  0.2414 -0.1097
37476W        W80529  27.720  13.293  24.485 -0.2887 -0.1465 -0.1135
37477W        W80530  11.557  12.106   8.119  0.1006 -0.1178 -0.0298
37478W        W80531  27.778   0.474  15.621 -0.1497  0.1334 -0.1286
37479W        W80532  33.287   8.911  14.503 -0.1640  0.0247  0.0535
37480W        W80533  33.031  19.008  26.555 -0.2668  0.2585 -0.0772
37481W        W80534   3.463   6.406  10.510 -0.0216  0.1204  0.0394
37482W        W80535   0.337  26.618   5.401  0.0949 -0.0357  0.2232
37483W        W80536  29.438  21.976   5.638 -0.2052  0.1261 -0.0533
37484W        W80537  25.937  20.580  25.069 -0.2362 -0.4794  0.0523
37485W        W80538  19.306  30.260  28.521  0.1559 -0.4267  0.1029
37486W        W80539  28.860  10.027  17.802 -0.3214  0.1651  0.0635
37487W        W80540  26.512   4.494   0.512 -0.1127  0.0082  0.0316
37488W        W80541  30.326  31.384  21.940 -0.0837 -0.0772  0.0636
37489W        W80542  26.729   5.980  20.081  0.4699  0.3259 -0.2196
37490W        W80543  31.575  12.482  22.198  0.0471 -0.2247  0.2076
37491W        W80544  20.908  26.599  26.066 -0.1702  0.3309  0.1023
37492W        W80545   5.536   4.899  21.402 -0.0969 -0.1590 -0.0490
37493W        W80546  31.179  13.360  14.582  0.0253  0.1362  0.1539
37494W        W80547  20.400  17.737   5.479  0.0583  0.2571 -0.2724
37495W        W80548  31.276   2.289  19.040 -0.1884  0.0021 -0.2274
37496W        W80549   1.572  24.297  15.830 -0.3415  0.2177  0.0424
37497W        W80550   1.033  31.109   0.080  0.2373  0.0774  0.0303
37498W        W80551  26.018  26.565  23.000 -0.2497 -0.0191 -0.1459
37499W        W80552   1.877  24.639  14.134  0.0430 -0.2207  0.0168
37500W        W80553   4.119  29.066  28.553 -0.2725  0.1805  0.1122
37501W        W80554   5.883  28.864  14.369  0.0712 -0.1221  0.1530
37502W        W80555  20.002   7.723   6.919  0.0174  0.0063 -0.1560
37503W        W80556  32.156  14.861  13.973 -0.2735  0.0387 -0.0970
37504W        W80557   0.856  17.552  13.788  0.2302 -0.0353 -0.4381
37505W        W80558  25.478  19.312  17.029 -0.1479  0.2805 -0.2113
37506W        W80559  24.782  34.279  15.736 -0.0753 -0.1467  0.2080
37507W        W80560   6.546  34.209   8.643  0.1845  0.4165  0.0323
37508W        W80561  19.015  13.685  20.841 -0.0416  0.1325  0.1023
37509W        W80562  22.189   8.419  15.463 -0.1314 -0.1593  0.2607
37510W        W80563  33.025   4.120   5.952  0.2445 -0.0047  0.3666
37511W        W80564  28.061   4.862  23.504 -0.0061 -0.0989 -0.3818
37512W        W80565  25.016  17.789  23.712 -0.0101 -0.3673 -0.0731
37513W        W80566   4.119  22.650  18.787  0.0121 -0.0020 -0.4512
37514W        W80567   2.948  17.198  17.128  0.1463  0.1650  0.2294
37515W        W80568  29.678  19.814  25.862  0.1181  0.1293 -0.0150
37516W        W80569   1.341   7.000  21.046 -0.0039  0.0424 -0.1515
37517W        W80570  31.894  16.420  25.679  0.0068  0.0880 -0.0488
37518W        W80571  21.093  12.501  20.043 -0.3127 -0.2444 -0.2404
37519W        W80572   3.186  28.540  19.919 -0.0675 -0.2197  0.1670
37520W        W80573  25.616  10.151  23.118 -0.0181  0.0905  0.1643
37521W        W80574   8.225  11.222  24.157  0.4033 -0.1228 -0.0662
37522W        W80575   0.598  11.533  17.851  0.0311  0.1598  0.1858
37523W        W80576   2.581  31.207  23.650  0.2296 -0.0640 -0.2785
37524W        W80577  22.484  32.321  22.907  0.2077 -0.0572 -0.2611
37525W        W80578  11.066   2.483  16.384 -0.1097  0.1499 -0.3029
37526W        W80579  10.685  31.038  17.410  0.0041 -0.3347 -0.1240
37527W        W80580   1.255  27.845  18.749 -0.5380  0.0526  0.1191
37528W        W80581   0.436  15.020  21.531  0.0129 -0.1573  0.0187
37529W        W80582  24.099  28.056  18.521  0.1849 -0.0465 -0.0474
37530W        W80583   2.520  13.528  17.487  0.2178 -0.0290 -0.0431
37531W        W80584  31.723   8.274  17.197  0.1647 -0.5244 -0.0282
37532W        W80585  11.152  26.147  14.912  0.0232  0.1867  0.2139
37533W        W80586  25.677  14.375   8.145  0.0160  0.2723  0.1651
37534W        W80587  21.455   7.390  27.703  0.1062  0.3589 -0.0858
37535W        W80588  33.655  20.055  13.865  0.0043  0.3441  0.0537
37536W        W80589   5.475  18.538  15.459 -0.0497  0.0646 -0.0970
37537W        W80590  27.116  17.021  17.138  0.0558 -0.0129 -0.0011
37538W        W80591  33.446  28.393  16.804 -0.0678 -0.0890 -0.0818
37539W        W80592  26.218  30.334   9.212 -0.0260  0.1557 -0.0390
37540W        W80593  31.427  30.610  26.663  0.0570 -0.2295  0.1330
37541W        W80594  24.669  26.131  17.252 -0.1631  0.1332  0.3962
37542W        W80595   1.963  29.751  28.895  0.1468 -0.1029  0.0315
37543W        W80596  32.611  17.958   4.160  0.1770  0.2364 -0.2106
37544W        W80597  31.532  20.819  17.727  0.0732  0.1301  0.0147
37545W        W80598  34.260  24.246  20.452 -0.1493  0.2630  0.3168
37546W        W80599  21.930  27.275  22.585  0.0910  0.0694  0.1928
37547W        W80600  32.863   8.755  27.119  0.0581  0.0193  0.2003
37548W        W80601  21.522  21.778  16.762  0.1160  0.0935 -0.1262
37549W        W80602  15.180   0.768  26.203 -0.4672  0.0016 -0.3007
37550W        W80603  31.075  24.103  15.568 -0.1921  0.4447  0.0321
37551W        W80604   6.487  18.892  27.122 -0.2560  0.5116  0.1331
37552W        W80605  22.278  11.455  14.345  0.2035 -0.0157  0.3964
37553W        W80606  32.607  18.348  20.553  0.1535  0.4242 -0.0378
37554W        W80607  28.641  34.424  16.333  0.1219  0.0898 -0.1811
37555W        W80608   8.447  14.025   2.944  0.0197 -0.1366 -0.0704
37556W        W80609   3.036  20.804  15.233 -0.4742 -0.0997  0.1566
37557W        W80610  33.991   8.990  15.811 -0.0295  0.1116 -0.3044
37558W        W80611  29.404  16.833  22.500  0.1170  0.2948 -0.1860
37559W        W80612  23.290  15.721  13.046 -0.0458  0.0911  0.1151
37560W        W80613  30.391  28.990   0.071  0.3422 -0.0468  0.0291
37561W        W80614   4.270  26.804  17.792 -0.1397 -0.0279 -0.0567
37562W        W80615   2.134  29.057  27.340  0.0988  0.0889  0.1449
37563W        W80616  13.063  14.931  26.371  0.0177 -0.1535 -0.0426
37564W        W80617  30.991  11.744  17.911 -0.2738 -0.0004 -0.3626
37565W        W80618  28.173  22.353   8.407 -0.2778  0.0522  0.0473
37566W        W80619  22.922   2.833  27.418  0.1101 -0.2454  0.0070
37567W        W80620  33.626  19.454  18.411 -0.3621 -0.0209  0.0480
37568W        W80621  17.471  18.979   8.658 -0.0649 -0.1531 -0.2074
37569W        W80622  13.045  20.969  26.652 -0.3916  0.0220 -0.0690
37570W        W80623   7.620  23.193  22.565  0.1446  0.2347  0.2470
37571W        W80624  26.043  16.434   1.050 -0.1105 -0.0038 -0.0589
37572W        W80625  12.234  13.300   2.559 -0.1749  0.0125  0.1096
37573W        W80626  19.801  23.398  15.009 -0.0103 -0.0921 -0.1631
37574W        W80627  25.711  13.425  23.555 -0.0100 -0.3769  0.3558
37575W        W80628  22.858  12.238  15.740  0.1812  0.1612  0.2001
37576W        W80629   6.595  26.640  12.922  0.1460  0.1221 -0.0407
37577W        W80630  31.169   9.177  22.972 -0.0946 -0.2904 -0.0345
37578W        W80631  25.301   2.553  27.994  0.0715  0.2777 -0.1336
37579W        W80632   0.144  31.330   8.797  0.3518  0.3421  0.0776
37580W        W80633  11.573  28.497  14.256  0.0428 -0.0859 -0.2751
37581W        W80634  27.914  22.727  16.995 -0.0067  0.1819 -0.1493
37582W        W80635   9.376  16.249  19.928  0.0779  0.3037 -0.0268
37583W        W80636  33.401  19.973  26.499 -0.1591  0.1981  0.2320
37584W        W80637   4.573   5.264  16.184 -0.1409  0.0270 -0.1363
37585W        W80638  28.948   5.379  23.658  0.1478 -0.0265 -0.3098
37586W        W80639  32.004  22.837  17.832 -0.2168 -0.0734 -0.2362
37587W        W80640  27.828  20.358  20.217  0.3682 -0.1083 -0.0622
37588W        W80641  16.386  22.324   0.232 -0.2898 -0.2375 -0.0951
37589W        W80642  32.671  28.525  18.184  0.0228 -0.0884  0.2872
37590W        W80643  10.958  21.338  19.873  0.0447 -0.1163 -0.0614
37591W        W80644   6.549  16.405  27.799  0.1238 -0.2162 -0.0207
37592W        W80645  10.053  23.235  18.059  0.1319 -0.0762  0.0846
37593W        W80646  11.471   6.188   0.718 -0.2149  0.0567 -0.0738
37594W        W80647  28.211  21.817  15.531 -0.0968  0.1985  0.0461
37595W        W80648  33.567   1.693  14.123 -0.1665 -0.1835  0.3434
37596W        W80649   5.884   4.143  18.456 -0.1640  0.1400 -0.0741
37597W        W80650   0.551  29.201   5.453 -0.1586 -0.0533  0.0122
37598W        W80651   4.626  14.687  22.456 -0.0263  0.0302 -0.2181
37599W        W80652  23.835   9.101  14.874  0.1137  0.2407 -0.1856
37600W        W80653   0.166  21.939  16.308 -0.0524  0.0580 -0.0225
37601W        W80654  33.402  32.071  13.953 -0.0731 -0.2808 -0.1883
37602W        W80655  28.201  19.969  15.554  0.2648  0.1139  0.1163
37603W        W80656   7.771  11.350  18.928 -0.1625 -0.3700 -0.4323
37604W        W80657  17.934  10.661  25.549 -0.1450 -0.0556  0.1389
37605W        W80658  21.409  17.863   2.578  0.0655 -0.1357 -0.0200
37606W        W80659  26.534   7.512   3.842  0.0659  0.1848 -0.0827
37607W        W80660   7.534  11.019  23.670 -0.1821 -0.0537 -0.0606
37608W        W80661  33.022  15.767  18.085  0.2347 -0.0684  0.0057
37609W        W80662   4.337  25.628  18.784  0.1290  0.0829 -0.0459
37610W        W80663  29.738  25.942   4.445 -0.0053  0.1337 -0.2747
37611W        W80664  26.311  12.847  25.797 -0.1373 -0.1106  0.1537
37612W        W80665   2.080  23.772  26.355 -0.2661  0.1072  0.0678
37613W        W80666  21.575   3.052  19.137  0.0540  0.2067 -0.1707
37614W        W80667  28.599  15.844  26.918 -0.1786  0.1547 -0.0309
37615W        W80668  28.876  25.671  16.345 -0.1273 -0.1542 -0.4765
37616W        W80669   8.182  23.479   3.325 -0.2071 -0.0182 -0.0510
37617W        W80670  27.885   7.644  15.551  0.2380  0.2176  0.3950
37618W        W80671   2.408  15.575  21.072 -0.0954 -0.0209 -0.1502
37619W        W80672  11.508  31.911  24.338 -0.0117  0.0559  0.3489
37620W        W80673  33.525   7.329  25.320 -0.0162  0.0301 -0.2305
37621W        W80674  28.857  18.770  23.829  0.1584  0.2573  0.0514
37622W        W80675  12.197   2.251  17.714 -0.1821  0.0130 -0.1096
37623W        W80676   8.505  26.378  17.568  0.0840  0.0754  0.2221
37624W        W80677  30.504  31.186  25.183 -0.0858 -0.3068 -0.2046
37625W        W80678  31.104   7.364  24.403 -0.3723  0.0434 -0.0850
37626W        W80679  27.620  33.392  24.478 -0.3271  0.0706  0.4831
37627W        W80680   8.791   1.493   4.270  0.1578 -0.1513 -0.3325
37628W        W80681  33.889   3.908  18.908 -0.2794  0.2141  0.3048
37629W        W80682  26.652  13.243   6.922 -0.2474 -0.0784  0.1776
37630W        W80683   1.930  13.697  18.949  0.1209  0.0997  0.1016
37631W        W80684   6.942  22.366  16.818  0.0096 -0.0501  0.1870
37632W        W80685  23.171  34.240  16.393 -0.1570  0.0471  0.1566
37633W        W80686  22.701  29.191  18.623  0.1696  0.1413  0.0865
37634W        W80687   4.658  20.964  20.206  0.4260  0.0278  0.2224
37635W        W80688   1.032  25.564  19.102 -0.0333 -0.0165 -0.1486
37636W        W80689  25.501  23.920  25.370  0.1292  0.1105  0.2390
37637W        W80690   1.328  12.764  21.064  0.0967  0.0674  0.1211
37638W        W80691   0.493  32.419  17.917 -0.1925  0.0639 -0.0615
37639W        W80692  28.387  29.105  28.438  0.0543  0.0444  0.0700
37640W        W80693   2.943  19.210  13.609  0.3733 -0.0773  0.1042
37641W        W80694   9.040  11.305  17.009  0.1661  0.0344  0.3369
37642W        W80695  32.944  27.170   0.907 -0.0309  0.0355  0.5598
37643W        W80696  20.953  22.237   6.935 -0.0306  0.1945 -0.2399
37644W        W80697  13.057  20.061   8.990  0.0302 -0.2648  0.1394
37645W        W80698   6.240   5.832   8.223 -0.0432 -0.2219 -0.0485
37646W        W80699  27.168  27.060  15.962 -0.1035  0.0932  0.3102
37647W        W80700  24.885  25.865  25.046  0.0063  0.0660 -0.2026
37648W        W80701  32.123  12.753  17.274 -0.0669  0.2713 -0.1346
37649W        W80702  29.250   5.858  23.429  0.3573  0.2764  0.1978
37650W        W80703  12.984  17.980  22.574  0.0022  0.1454  0.3931
37651W        W80704  30.697  30.494  25.384 -0.2197  0.1280  0.3183
37652W        W80705  13.279  18.516  14.252 -0.4692  0.1926  0.4760
37653W        W80706  25.897  21.533  16.072  0.0586  0.2262 -0.2061
37654W        W80707  23.199  18.011  16.317 -0.0177 -0.0916 -0.1022
37655W        W80708  28.393  11.630  17.678  0.0728 -0.2148  0.0593
37656W        W80709  21.111  22.261   0.459 -0.0126 -0.0214  0.2129
37657W        W80710  26.495  34.596  17.699  0.1674 -0.4280 -0.1547
37658W        W80711   3.590  19.634   4.517 -0.0794  0.0107 -0.1700
37659W        W80712  33.166   8.315  14.056  0.2572  0.2161  0.2099
37660W        W80713   1.915  13.801  13.539  0.1709 -0.0137 -0.0297
37661W        W80714   8.890  18.750  26.326  0.2106  0.5875 -0.1181
37662W        W80715   4.031  26.801   6.984  0.0837  0.2074  0.1944
37663W        W80716  21.204  19.766  25.971 -0.4072  0.0713  0.1049
37664W        W80717   0.393   6.044  20.426  0.1751 -0.0485  0.1069
37665W        W80718   5.559  31.688  17.535  0.2003  0.1910  0.1126
37666W        W80719  13.939   8.126  27.731 -0.4223  0.1865 -0.0248
37667W        W80720  18.432  13.488  18.130  0.1343 -0.0871 -0.0227
37668W        W80721   3.546  12.757  16.719 -0.1940  0.1928  0.2646
37669W        W80722  34.652  21.168  27.392  0.0201  0.0563 -0.2639
37670W        W80723   4.991  11.087  28.490  0.1113  0.3943  0.0346
37671W        W80724  10.766   2.769  15.485 -0.0184 -0.1316  0.0926
37672W        W80725  29.333  31.218   6.120 -0.0406 -0.1419  0.1204
37673W        W80726   6.817   6.554   1.754  0.0074 -0.0413 -0.1178
37674W        W80727   3.132  15.902   4.026  0.1788  0.0570  0.0873
37675W        W80728  30.448   9.872  18.093  0.0713 -0.0845 -0.3201
37676W        W80729  31.902  31.737  19.829  0.1691 -0.4225  0.1551
37677W        W80730  27.503  11.444  28.182  0.1844 -0.0214 -0.0625
37678W        W80731  17.332  31.732  24.266 -0.2359 -0.1077  0.1514
37679W        W80732  28.522  13.474  17.467 -0.0950 -0.2985  0.0121
37680W        W80733  11.514   4.120  24.452  0.0051 -0.2430 -0.0074
37681W        W80734  34.060  30.183  22.959 -0.1289  0.0378  0.0590
37682W        W80735  31.701   3.729   3.140  0.0831  0.2021  0.1737
37683W        W80736  25.007  16.216  24.437  0.2379  0.1862 -0.0864
37684W        W80737   5.145   5.746  21.862 -0.0077 -0.1608  0.0705
37685W        W80738  21.191  16.931  14.002  0.5908 -0.1013 -0.0669
37686W        W80739  27.843  18.304  22.101  0.2144  0.0675  0.1479
37687W        W80740   7.794   6.972   2.941 -0.2281 -0.1781  0.1602
37688W        W80741   4.760   9.849   7.139 -0.0098  0.0383 -0.2738
37689W        W80742   2.777  26.317  23.076  0.4441  0.3463  0.2992
37690W        W80743  28.758  21.837   9.611  0.0603  0.0952 -0.0738
37691W        W80744  10.591  29.884  25.751  0.3574 -0.0550  0.1153
37692W        W80745  24.112  29.357  25.553 -0.0301  0.1346  0.3083
37693W        W80746   9.510  32.157  18.330  0.2816  0.0339 -0.0637
37694W        W80747  32.775  17.109  15.171  0.3161 -0.2391  0.2406
37695W        W80748  32.928   8.718   0.191 -0.0172 -0.2830 -0.3801
37696W        W80749  30.445  17.574  23.041 -0.1495  0.0699  0.1044
37697W        W80750  14.900  24.832   5.477  0.2088  0.2168  0.2794
37698W        W80751  29.677  18.154  22.175 -0.2402 -0.2394 -0.2579
37699W        W80752  12.122   8.798  10.981 -0.0073  0.0542 -0.2402
37700W        W80753   7.358  19.661   3.657  0.2724  0.1242 -0.3180
37701W        W80754  29.684  30.614  27.808  0.0628  0.2719 -0.0483
37702W        W80755  30.389  15.378  28.304 -0.0349 -0.0100 -0.2809
37703W        W80756   0.156  14.877  15.647 -0.2080  0.1334  0.1721
37704W        W80757  24.237  25.551  20.695 -0.1038  0.0354  0.4295
37705W        W80758  31.105  12.387  23.319  0.1919  0.1573  0.1024
37706W        W80759  33.821  11.521  17.191  0.0025  0.0426 -0.2426
37707W        W80760  11.676   3.771  27.674 -0.3888 -0.4644 -0.1583
37708W        W80761  16.531  28.395  24.823 -0.1669 -0.2020  0.2385
37709W        W80762  11.441  30.158  26.191 -0.4719 -0.0308 -0.0696
37710W        W80763  34.417  23.467  23.176 -0.1686  0.2677  0.1846
37711W        W80764  32.841  23.675  27.462  0.0845  0.1166 -0.2319
37712W        W80765   0.846  11.264  17.461 -0.1734 -0.1640  0.0844
37713W        W80766  23.387  20.133  16.357 -0.0864 -0.0906 -0.0412
37714W        W80767   0.055  20.513  20.449  0.2365  0.1184  0.3697
37715W        W80768  33.924   4.054  18.303  0.1709 -0.0824 -0.2457
37716W        W80769  18.783  14.692  28.416  0.4252  0.1543 -0.0693
37717W        W80770  15.884  10.134  18.216 -0.0880  0.0692  0.2150
37718W        W80771  24.117  16.013  20.792  0.0989 -0.2308 -0.1755
37719W        W80772   7.660  11.044  18.074  0.2815  0.0649  0.0830
37720W        W80773  33.628  20.030  28.631  0.0620 -0.2508  0.4039
37721W        W80774  33.554  18.273  23.884  0.2526 -0.3768 -0.0457
37722W        W80775  32.952   6.721  17.075  0.0355 -0.0694  0.1309
37723W        W80776   0.825  28.380  23.588  0.0173 -0.1929  0.2281
37724W        W80777  27.076  22.904  24.394 -0.3068  0.0917 -0.0770
37725W        W80778  20.824   1.819  25.316  0.0799 -0.0087  0.1270
37726W        W80779   0.830  18.134   3.169 -0.0485 -0.1830 -0.0291
37727W        W80780  26.867  20.769  20.825 -0.2889  0.3043  0.0277
37728W        W80781   2.684  14.605   2.590 -0.0685 -0.0371 -0.3026
37729W        W80782  10.270  33.843  15.375 -0.1753 -0.0968 -0.1740
37730W        W80783   0.020  21.031   0.065 -0.0355 -0.2456 -0.1502
37731W        W80784  31.265  19.834   8.115 -0.1587  0.0070  0.1451
37732W        W80785  17.149  28.687  19.806  0.4448 -0.3047  0.0877
37733W        W80786  27.038  30.731  25.166 -0.2269  0.1571  0.1076
37734W        W80787  24.784   8.668  18.222 -0.1305  0.1882 -0.1986
37735W        W80788  17.872  22.136  19.319 -0.1007 -0.3865 -0.3651
37736W        W80789  26.627  11.517  22.411 -0.0218  0.1777 -0.0211
37737W        W80790  14.147   7.932  23.397 -0.1167  0.2387 -0.0194
37738W        W80791  22.517  14.626  25.931  0.3066 -0.3127 -0.1261
37739W        W80792  23.972  22.857   9.516  0.0339 -0.3101  0.0946
37740W        W80793  11.051   5.972  20.781 -0.0967  0.1355  0.3813
37741W        W80794  28.941  28.204  25.001 -0.2410  0.1917 -0.0700
37742W        W80795  28.017   6.226  22.388  0.1448 -0.2080  0.0449
37743W        W80796   0.478  12.210   2.584  0.1339 -0.1526 -0.1720
37744W        W80797  34.109  15.191  26.180 -0.0784  0.0722 -0.0399
37745W        W80798   2.361  15.706  28.676  0.0165  0.4842  0.2000
37746W        W80799  13.821  33.401  17.796 -0.4252 -0.2214 -0.1660
37747W        W80800  32.282  16.347  16.892  0.2013  0.1284  0.1312
37748W        W80801   2.712   1.344   8.995  0.0375  0.1729  0.1316
37749W        W80802   6.320   5.880  22.509 -0.1758 -0.1956  0.2533
37750W        W80803  13.279   4.982   2.885 -0.0011  0.1960  0.0426
37751W        W80804   3.133  19.419  14.505 -0.1925 -0.1277  0.0851
37752W        W80805   4.256   8.123   1.883  0.2093 -0.2139 -0.1623
37753W        W80806  31.694  23.181   4.324  0.1565 -0.1435  0.0128
37754W        W80807  33.755  32.892  14.716 -0.0515 -0.0727 -0.0889
37755W        W80808   6.486  18.982   0.591  0.0463  0.0287  0.2867
37756W        W80809  26.201  23.650  16.087 -0.2411  0.1126  0.1453
37757W        W80810   8.520  28.890   3.071  0.1450 -0.0722 -0.0707
37758W        W80811   6.942  13.755  17.607 -0.2703  0.0061 -0.3817
37759W        W80812  25.212  30.572  20.555 -0.1048  0.1538 -0.1676
37760W        W80813  24.114  30.107   5.471 -0.1890  0.1635  0.2405
37761W        W80814  14.002   4.810  15.572  0.1811 -0.0806  0.0294
37762W        W80815   3.439  15.747  23.197  0.2834 -0.1915  0.0662
37763W        W80816   5.396  16.885  14.385  0.1236  0.0298 -0.1060
37764W        W80817  31.735   0.072  23.004  0.2140 -0.0498  0.1337
37765W        W80818  21.780  23.948   1.215 -0.0718 -0.0945  0.0555
37766W        W80819  21.790   6.339   4.741 -0.0765  0.2215  0.2968
37767W        W80820  16.437  30.315  21.084  0.3938  0.1205  0.0504
37768W        W80821  22.082   6.997  16.554 -0.4552  0.1603  0.0695
37769W        W80822   9.607  21.759  21.970  0.1130 -0.2650  0.0116
37770W        W80823  32.112  13.311  14.696 -0.1182  0.1238  0.0674
37771W        W80824  19.914  16.362  26.030  0.1280  0.1597 -0.3681
37772W        W80825  24.496  22.393  19.651 -0.2053  0.2007  0.1554
37773W        W80826  12.818  21.671  13.888 -0.1724 -0.0632 -0.0033
37774W        W80827  32.834  20.442  15.075 -0.1187 -0.1322  0.1362
37775W        W80828   4.277  15.467  22.824  0.0434 -0.3673 -0.1208
37776W        W80829   2.517  11.008  14.317  0.0685  0.2190  0.0692
37777W        W80830   1.376  20.977  18.549 -0.2365 -0.0764 -0.0406
37778W        W80831  10.310  12.043  19.866  0.2913 -0.1069 -0.0531
37779W        W80832  28.413   3.963  21.367  0.1424 -0.0768 -0.1337
37780W        W80833  15.724  25.592  16.163  0.2154  0.2867 -0.1426
37781W        W80834   2.114  33.082  22.619 -0.1789  0.0258  0.1298
37782W        W80835  28.759  21.508  23.318  0.1652  0.2979 -0.2528
37783W        W80836  30.872  11.014  19.232 -0.1272 -0.0072 -0.1476
37784W        W80837   9.605  14.520  19.501 -0.2166 -0.0673  0.1757
37785W        W80838  29.686  14.671  20.870  0.1027 -0.1029  0.2852
37786W        W80839  22.236  31.482  27.656  0.0052  0.2324  0.0265
37787W        W80840  31.423  18.971  25.662 -0.1329 -0.0019  0.3468
37788W        W80841  14.828   2.926  14.628 -0.0344  0.1811 -0.0773
37789W        W80842  10.593  20.441   5.869  0.0679  0.1567  0.1097
37790W        W80843   4.098   8.935  27.988 -0.1387 -0.0661 -0.2470
37791W        W80844  32.516  22.964  26.910 -0.4002  0.2529 -0.1868
37792W        W80845  16.004  26.083  10.352  0.4472 -0.0640 -0.0163
37793W        W80846  32.413  18.187  19.633 -0.2920  0.0821 -0.0570
37794W        W80847   2.063  12.574  22.531  0.2741 -0.1850 -0.2818
37795W        W80848  20.561  24.880   4.027 -0.2680 -0.0241 -0.0517
37796W        W80849  17.539  21.061  14.892 -0.4361  0.2556  0.1583
37797W        W80850  13.093  33.187  23.792  0.1363  0.0395  0.0322
37798W        W80851  29.001   7.458  22.018  0.0551  0.1615  0.0933
37799W        W80852  25.807   7.870  25.586  0.0623 -0.1088 -0.0924
37800W        W80853  23.573  26.797   6.684  0.0436 -0.1330 -0.1238
37801W        W80854  31.611  12.021   0.695 -0.1349 -0.0771  0.1396
37802W        W80855   7.579  24.087  18.289  0.0096 -0.1666 -0.2617
37803W        W80856   9.489   5.390  28.569  0.1449  0.2810 -0.3034
37804W        W80857  32.346  15.172  17.562 -0.1819  0.0556  0.1870
37805W        W80858   8.109  24.560   4.311  0.0136 -0.2596  0.0399
37806W        W80859  11.758  18.199  20.523 -0.2673 -0.2314  0.0233
37807W        W80860  16.266  22.293  18.936  0.1724  0.2016  0.1492
37808W        W80861  32.046  29.859   7.932 -0.2677  0.1411 -0.1206
37809W        W80862  21.726   8.111   2.116 -0.1562  0.1726 -0.1228
37810W        W80863   3.043   1.365  14.051  0.3756  0.1542 -0.1657
37811W        W80864  29.102  16.371  16.060 -0.0530  0.0823 -0.0569
37812W        W80865   9.561  16.164  16.704  0.0916 -0.0434 -0.1071
37813W        W80866  28.653   9.908  26.545 -0.1555 -0.0058  0.1527
37814W        W80867  16.673  26.374  18.179  0.2387  0.0940 -0.3252
37815W        W80868  22.465  15.487  24.354  0.0092  0.0805  0.1071
37816W        W80869  27.780  23.297   5.662  0.2176  0.1067 -0.1629
37817W        W80870  21.790  15.448  18.965  0.2987  0.2618  0.0795
37818W        W80871   9.983  32.066  20.965  0.1145 -0.0735 -0.3296
37819W        W80872   9.685   5.385  21.133 -0.1304  0.1050 -0.1630
37820W        W80873   9.972  23.522  18.468 -0.0358 -0.0639 -0.0618
37821W        W80874   3.976  15.738  27.097 -0.0784  0.1024  0.1038
37822W        W80875  33.466  34.468  19.017  0.1485  0.2323  0.0850
37823W        W80876  26.607  29.308  19.286  0.1640  0.0308  0.2860
37824W        W80877   7.560  11.944   2.905  0.3754 -0.2216  0.0083
37825W        W80878  30.713   5.165  27.221  0.0021  0.1535 -0.3278
37826W        W80879   8.526  17.203  23.362  0.2303 -0.1202  0.2193
37827W        W80880  32.081   6.078  17.481  0.0323  0.0357  0.0896
37828W        W80881  33.353  16.646  24.857  0.1261 -0.1701 -0.1680
37829W        W80882  22.537  21.182   9.695  0.0360 -0.1311 -0.1410
37830W        W80883  26.495  15.023  15.349 -0.2536 -0.1327 -0.2328
37831W        W80884  24.794  30.885  24.430 -0.1317 -0.1039 -0.1842
37832W        W80885   3.196  22.766  19.396 -0.1402  0.3301  0.3252
37833W        W80886  28.221  33.300   6.381  0.0351  0.2171  0.0283
37834W        W80887  27.945  24.882  16.321 -0.2165 -0.0297 -0.0557
37835W        W80888  21.591  19.870  17.999 -0.1575 -0.1547  0.0028
37836W        W80889  27.724  22.536  10.471 -0.2915 -0.1435 -0.0137
37837W        W80890  22.792  19.465  24.106  0.2484  0.0683 -0.0789
37838W        W80891  32.558  25.566  23.266 -0.2109 -0.0454 -0.3525
37839W        W80892  20.001  30.915   8.861 -0.1418  0.0230  0.3571
37840W        W80893  32.695  18.583   2.335  0.0569  0.1646  0.1970
37841W        W80894  23.917   0.183   6.126 -0.2396 -0.3460  0.1498
37842W        W80895  23.826   5.126  23.189  0.1939 -0.0531 -0.1044
37843W        W80896   1.756  19.110   7.110 -0.1256 -0.0096 -0.0906
37844W        W80897   5.671  15.248  18.874 -0.0027  0.5157 -0.0027
37845W        W80898   5.907  19.086  24.346  0.1699  0.2130 -0.1154
37846W        W80899  28.239  12.325  10.508 -0.2567 -0.0350 -0.2116
37847W        W80900  20.003  11.442   8.491 -0.2225  0.0792 -0.0024
37848W        W80901  26.899  18.706  14.758  0.1227  0.0292  0.0268
37849W        W80902  28.052  23.978  14.572 -0.0278 -0.1264 -0.3116
37850W        W80903  20.713  14.611  17.066  0.1831 -0.0082  0.3692
37851W        W80904  19.897  18.600  23.470  0.0147  0.1664  0.0843
37852W        W80905   0.041  10.232   6.741 -0.1602 -0.1101  0.0740
37853W        W80906   4.349   6.721  16.305 -0.2220  0.0066 -0.0267
37854W        W80907   4.202  20.478   6.181 -0.2796 -0.1776 -0.0183
37855W        W80908  22.000  21.011   5.937  0.1190 -0.0222  0.4663
37856W        W80909  28.118   8.954   5.002  0.1750 -0.0144  0.0684
37857W        W80910   7.028  18.226  17.011  0.1803 -0.2807  0.2761
37858W        W80911   2.227  13.920  18.020 -0.0587  0.0016  0.0416
37859W        W80912  20.345  25.418   4.995  0.3863 -0.1517 -0.1491
37860W        W80913   6.760  13.510   5.684 -0.3274  0.0817 -0.2053
37861W        W80914   4.927  11.419  18.031  0.1619 -0.1249  0.0364
37862W        W80915   5.776  10.878   4.261  0.0849 -0.1484  0.1779
37863W        W80916  23.788  26.581  26.711  0.1072 -0.2316  0.0633
37864W        W80917   6.653  22.280  18.640  0.1173  0.2445 -0.2560
37865W        W80918  21.097  13.172  20.669  0.0980 -0.0016  0.2137
37866W        W80919   0.754   6.230  29.083 -0.0442 -0.1108 -0.2744
37867W        W80920  19.338   6.011  25.750  0.2480 -0.2120  0.0090
37868W        W80921   3.064  16.011  28.834 -0.0163 -0.0158 -0.1633
37869W        W80922  10.051  18.306  24.316  0.3600 -0.0787  0.3508
37870W        W80923  31.839  16.497   4.951  0.0900 -0.3313 -0.1003
37871W        W80924   1.673  26.649  15.914  0.4854 -0.1226  0.3898
37872W        W80925   3.365  16.782  21.177  0.3825  0.1442  0.2177
37873W        W80926   1.333  29.601  14.611 -0.1198  0.1045  0.1026
37874W        W80927  31.017  13.527  17.478 -0.0240  0.0089  0.0322
37875W        W80928  34.517  21.086  18.187 -0.0130  0.0558 -0.2226
37876W        W80929   6.204  34.473  26.832  0.1411 -0.0760 -0.1141
37877W        W80930   1.694  29.602   5.327 -0.2538  0.0037  0.0725
37878W        W80931  31.347  18.441  22.925 -0.0458  0.0479  0.2404
37879W        W80932   3.163   5.109  20.461 -0.1059  0.2071 -0.2169
37880W        W80933  32.399   2.450  18.114  0.1290  0.1414 -0.3325
37881W        W80934   7.858  15.231  17.166  0.1474 -0.2606  0.1476
37882W        W80935  27.085   4.291  21.881  0.3047 -0.0368  0.3777
37883W        W80936  17.743  17.048   8.268  0.3245 -0.2436  0.5830
37884W        W80937  20.530  21.141  17.534  0.0474  0.0687  0.1804
37885W        W80938  33.043  19.253  22.900  0.1014  0.0602 -0.1759
37886W        W80939   9.406  13.274  14.669 -0.0595  0.1600  0.0779
37887W        W80940  29.881   5.818  24.448  0.0907  0.0181 -0.4891
37888W        W80941  18.715  33.041  24.891  0.1724  0.4100 -0.1312
37889W        W80942   3.991  24.320  21.636 -0.0124  0.1058  0.0195
37890W        W80943  33.767  16.852  16.164 -0.0881  0.1294  0.0358
37891W        W80944  24.318  23.138  16.142 -0.0704  0.2647  0.0262
37892W        W80945  26.988  13.590   3.939 -0.0142 -0.0964  0.1899
37893W        W80946  25.659  10.469   4.208  0.0505 -0.2100 -0.1742
37894W        W80947  34.257  33.334  18.637 -0.2303  0.0964 -0.2192
37895W        W80948  15.365  33.511   2.451  0.0107 -0.0477 -0.0507
37896W        W80949  12.912  19.584  20.458  0.3809  0.2167  0.3774
37897W        W80950  18.713   1.134   3.119 -0.1075 -0.0239 -0.0065
37898W        W80951  25.810   3.455  28.129  0.1303 -0.0580 -0.0256
37899W        W80952   7.105  34.389   3.728 -0.0518  0.1761 -0.3178
37900W        W80953  33.998  16.978  28.638 -0.3619  0.0593  0.0912
37901W        W80954  31.340  26.588  20.728 -0.0499 -0.1945  0.0493
37902W        W80955   8.918  25.018  25.133 -0.1467 -0.1630  0.0060
37903W        W80956  33.843   2.738  17.609  0.0233 -0.0381 -0.0010
37904W        W80957  12.142  31.031  21.630 -0.2698 -0.0825  0.1297
37905W        W80958  24.905  23.034  26.850  0.0372 -0.0846  0.1752
37906W        W80959  11.282   9.564  24.537  0.3394  0.0950  0.1800
37907W        W80960   3.444  24.753   1.090  0.2333  0.0044 -0.0371
37908W        W80961  13.707  18.134  13.291  0.2611 -0.3020  0.0931
37909W        W80962  14.774   5.919  23.661 -0.0747 -0.0650 -0.0771
37910W        W80963   1.632  20.808   4.993  0.1275  0.1598 -0.3381
37911W        W80964   1.851   4.275   3.713  0.2950 -0.2405  0.1256
37912W        W80965  24.435  23.087   3.903 -0.0119 -0.1287 -0.3215
37913W        W80966  23.655  13.685  28.007  0.2063 -0.2301 -0.2113
37914W        W80967  24.599  21.786  24.728  0.2096  0.0009 -0.1696
37915W        W80968   5.293  16.124  28.963 -0.0905  0.4174  0.1807
37916W        W80969  31.947   0.116  24.711 -0.1177  0.0495  0.1239
37917W        W80970   2.982   6.843  23.804 -0.1102 -0.2629 -0.0224
37918W        W80971  31.094  25.013  28.551 -0.3818 -0.0991  0.0029
37919W        W80972   4.997   1.070  19.701  0.1376 -0.1507 -0.0197
37920W        W80973  18.391   9.136  16.431  0.0092  0.1615  0.4259
37921W        W80974  27.067  18.812  22.152  0.0587 -0.2505 -0.3323
37922W        W80975  19.308  20.764  28.625  0.2905 -0.1105 -0.5246
37923W        W80976   8.988   8.420  19.539 -0.1070 -0.0373 -0.0347
37924W        W80977  25.831  11.238  25.970 -0.1497 -0.1608 -0.0700
37925W        W80978   0.101  13.820  21.458 -0.0977 -0.0371 -0.2956
37926W        W80979  12.079  17.766   2.748 -0.1633 -0.0565 -0.0772
37927W        W80980   2.850  32.107  18.608  0.1529  0.0118 -0.1010
37928W        W80981  13.414   0.990   0.689 -0.3169 -0.0595 -0.2677
37929W        W80982  12.007   4.620   6.297 -0.1032 -0.2602  0.1537
37930W        W80983  30.462  10.670  20.704  0.1055 -0.1234  0.1611
37931W        W80984  30.224   6.653   6.889  0.1595 -0.0700  0.2521
37932W        W80985  32.431  22.046  18.168 -0.2475 -0.0865  0.2042
37933W        W80986   4.589  18.794  25.644 -0.2955  0.0313  0.0253
37934W        W80987  31.549  17.599  28.173 -0.0514 -0.1955  0.0681
37935W        W80988  28.083  20.704   8.603  0.1231 -0.1043 -0.1431
37936W        W80989   2.028   6.086  19.662  0.2524 -0.3606  0.1018
37937W        W80990  28.473  31.813  19.856  0.1642  0.1186  0.0262
37938W        W80991   7.119  23.193  13.364  0.0235  0.1525 -0.0466
37939W        W80992  33.940  12.368  23.635  0.4650 -0.2313 -0.0670
37940W        W80993  24.914   6.701   2.384  0.2355  0.0471  0.1261
37941W        W80994   4.986  27.079  15.353  0.0768 -0.0124 -0.4467
37942W        W80995  22.115  12.789  15.223 -0.0245  0.0262  0.0664
37943W        W80996  17.158  17.760  14.399  0.1498 -0.1606 -0.0346
37944W        W80997   8.078  15.940  16.320 -0.1481  0.1830  0.0700
37945W        W80998   4.459  11.406   5.372 -0.2672  0.0977  0.1735
37946W        W80999   1.486  18.400  26.823  0.2238  0.1797 -0.1312
37947W        W81000  31.416  33.088   6.012  0.1978 -0.2478 -0.0475
37948W        W81001  27.550  12.754  22.241  0.0686  0.2345  0.1300
37949W        W81002  23.739  20.382   9.188 -0.3109 -0.1255  0.1966
37950W        W81003  34.304   3.091  25.171  0.0537  0.0073 -0.3085
37951W        W81004   1.918  12.636  18.864 -0.0029  0.0505 -0.0505
37952W        W81005  32.935  11.868  16.732 -0.2917  0.0406  0.4207
37953W        W81006  32.405  14.609  28.154 -0.0334  0.1407 -0.0079
37954W        W81007   8.793  16.718  22.578  0.2185  0.0490 -0.2162
37955W        W81008   0.672  16.855  21.712 -0.1259  0.0170 -0.0526
37956W        W81009  16.918  27.270  24.925 -0.2690 -0.1222 -0.1940
37957W        W81010  30.652   8.537  26.121  0.0685  0.3515 -0.2502
37958W        W81011   5.704  33.881  16.725  0.0061  0.3304  0.2050
37959W        W81012  31.636  13.242  22.371 -0.0921 -0.0041  0.1859
37960W        W81013  34.461   9.093   1.169  0.0733  0.3458  0.0154
37961W        W81014  13.698  20.716  22.043  0.2241 -0.4432 -0.3561
37962W        W81015   3.113  23.057  22.154  0.0804  0.2095  0.2303
37963W        W81016   6.391  31.819  20.094 -0.0050  0.1340 -0.3254
37964W        W81017  23.729  12.840  16.883 -0.0843 -0.0361  0.1679
37965W        W81018  15.285  26.867  17.846  0.0847  0.2815 -0.1913
37966W        W81019  11.253  21.812  14.590  0.0703  0.0832  0.0138
37967W        W81020   4.528  15.427   4.003 -0.2703 -0.0122 -0.2575
37968W        W81021  31.084  34.120  22.642 -0.0073 -0.0054 -0.0482
37969W        W81022  16.507   7.645   5.821  0.1271 -0.1342 -0.1010
37970W        W81023  12.704   0.211  28.100  0.1932  0.3066 -0.0920
37971W        W81024  30.431  10.790  19.102 -0.1101 -0.4405  0.0522
37972W        W81025  21.892  12.156   1.071  0.2382  0.2025 -0.3365
37973W        W81026  23.094  22.683  27.109 -0.3795  0.0133  0.0066
37974W        W81027   0.554   0.001  19.213  0.0160 -0.2039  0.1336
37975W        W81028   8.491  13.528  22.691 -0.1426  0.2481 -0.0216
37976W        W81029  28.275  19.077  23.560 -0.3282 -0.0157 -0.3687
37977W        W81030   5.634   6.985  26.512  0.0676  0.0890  0.2351
37978W        W81031  21.679  33.025  23.110  0.0363  0.1985  0.2374
37979W        W81032  25.106   2.516   2.215  0.1733 -0.4794  0.4366
37980W        W81033  29.762   5.234  26.812 -0.0722  0.6198  0.2553
37981W        W81034  25.746   3.689   8.168 -0.1576 -0.2174 -0.1180
37982W        W81035  23.752   5.072  18.914  0.0818  0.3203  0.0551
37983W        W81036  26.172  25.161  27.981  0.2466 -0.0171 -0.3167
37984W        W81037  30.608  20.740  20.466  0.1337 -0.1910  0.0316
37985W        W81038  23.326   2.530   6.510  0.1566 -0.0677 -0.0129
37986W        W81039  30.139   9.107  17.128 -0.2218  0.0453 -0.1132
37987W        W81040  25.436  17.661   3.716  0.0226 -0.0715 -0.1427
37988W        W81041   6.055  25.440  16.497 -0.5919 -0.1817 -0.2498
37989W        W81042   5.194  27.418  16.399  0.1468 -0.0220 -0.1251
37990W        W81043  24.180  13.663  24.809  0.4015  0.2690  0.1725
37991W        W81044  31.920   8.470  15.652  0.0284 -0.6143  0.0745
37992W        W81045   7.235  22.875  28.406  0.0841 -0.0939  0.0595
37993W        W81046   4.207   3.254  17.416 -0.0059 -0.2249  0.2573
37994W        W81047   6.522  14.465  15.085 -0.1655 -0.0789  0.5084
37995W        W81048  33.480  16.592  16.546  0.0137 -0.2404 -0.0219
37996W        W81049   4.538  31.186  24.067 -0.3751  0.0625  0.0291
37997W        W81050  11.696  17.932   5.694  0.0646  0.0529  0.0248
37998W        W81051  32.385   8.244  18.723 -0.1603 -0.0487 -0.1410
37999W        W81052   3.001  21.448  15.824  0.0136 -0.0347 -0.2193
38000W        W81053  32.907   6.129   1.861 -0.0558  0.0477 -0.0679
38001W        W81054   6.744  18.075  23.318 -0.1998 -0.2106  0.1711
38002W        W81055   2.400  21.429  22.244 -0.1019  0.0816  0.1164
38003W        W81056  22.732   6.380  15.811 -0.2294  0.1808 -0.3310
38004W        W81057  26.916  18.486  24.485  0.0965 -0.1635  0.2948
38005W        W81058  26.947  31.557  24.466 -0.5984  0.0011 -0.1727
38006W        W81059  26.317  11.248  19.922  0.0327 -0.1859  0.0531
38007W        W81060  12.073  28.256   0.917 -0.1477  0.1391  0.1436
38008W        W81061  22.514  11.605  27.584 -0.0907 -0.0162  0.2969
38009W        W81062  24.153  16.250  26.134  0.0125 -0.0036  0.1528
38010W        W81063  30.617  32.127  14.896 -0.1771 -0.0606 -0.0407
38011W        W81064   0.657  15.274   3.364  0.2266 -0.2639 -0.1819
38012W        W81065  25.002  23.964  20.302 -0.0003  0.0158  0.2801
38013W        W81066  28.278  11.004   3.483 -0.0299  0.0665 -0.1717
38014W        W81067  29.123  24.789  16.476 -0.1283 -0.0626 -0.1894
38015W        W81068  23.426  11.956  15.850  0.0061  0.0183  0.3519
38016W        W81069  27.479  14.802  27.152  0.0970  0.0966 -0.2492
38017W        W81070  27.199  16.624  27.536 -0.2230  0.2557  0.0062
38018W        W81071  32.365   9.961  18.932  0.1474 -0.0476 -0.2888
38019W        W81072  24.365  34.653  25.494 -0.0689 -0.0890  0.1105
38020W        W81073   4.823   6.749  26.194  0.1322  0.1472  0.5350
38021W        W81074  15.429  25.145   2.723 -0.0233 -0.1624  0.1002
38022W        W81075  26.348   6.266  15.591 -0.3521  0.0061  0.0954
38023W        W81076  23.208  18.879  25.107 -0.4601  0.0394 -0.0737
38024W        W81077  23.028  20.204   6.725  0.1545  0.0230 -0.1562
38025W        W81078  12.612  16.810  23.153  0.0601  0.0872  0.3240
38026W        W81079  33.096  15.300  17.667  0.1098 -0.2549  0.1850
38027W        W81080  20.091  19.337  26.582  0.1805 -0.2999 -0.2063
38028W        W81081  23.514  14.585  27.565 -0.0466  0.1385 -0.2260
38029W        W81082   1.169  14.076   1.922 -0.2372  0.1107 -0.0147
38030W        W81083  17.946   7.022  18.681  0.0130 -0.3187 -0.3486
38031W        W81084  17.749  30.849  15.525  0.1447 -0.1406 -0.0739
38032W        W81085  32.441   8.691  16.122  0.3614 -0.0369  0.0395
38033W        W81086  29.873  24.732  19.285 -0.0698  0.3418  0.1219
38034W        W81087   8.872   7.454  17.031 -0.0753 -0.3509  0.0143
38035W        W81088   5.950  13.003  14.313  0.0808 -0.1298 -0.0892
38036W        W81089   0.013  12.775   4.665  0.1905  0.4442 -0.0871
38037W        W81090  26.914  30.204   4.113  0.0216 -0.0628  0.1151
38038W        W81091   4.497   0.016  18.311  0.0484  0.0439  0.2576
38039W        W81092  23.694  16.150  25.799  0.1721 -0.0946  0.0129
38040W        W81093   4.114  20.001  21.396  0.0932 -0.0786  0.0088
38041W        W81094  23.024   6.693  21.322  0.0297  0.1999 -0.0805
38042W        W81095  24.623  28.505   8.302 -0.0308  0.1139  0.0101
38043W        W81096   2.200  22.840   3.993  0.0653 -0.1543 -0.0943
38044W        W81097   2.773  16.558  18.169  0.4025  0.0322 -0.0147
38045W        W81098   7.066   5.486  19.901  0.1360  0.2176 -0.1017
38046W        W81099   2.563  12.442  19.640 -0.1057  0.3375 -0.0416
38047W        W81100  30.422  34.514   5.253 -0.1933  0.1596  0.0332
38048W        W81101  30.154  26.629  27.099 -0.0272  0.1822 -0.1053
38049W        W81102  22.342  18.852   3.800 -0.1265 -0.0542 -0.0461
38050W        W81103   1.394  32.328  14.914  0.0219 -0.1426 -0.0278
38051W        W81104  17.225   7.691  16.409  0.0279 -0.1385 -0.3867
38052W        W81105  27.838  17.739  14.618 -0.1164 -0.0502  0.2112
38053W        W81106   9.234  22.132  15.033 -0.0170  0.1029 -0.0047
38054W        W81107  10.414  10.643   1.758  0.2894 -0.0907  0.1057
38055W        W81108  27.405   3.484  25.854 -0.2704 -0.0416 -0.2717
38056W        W81109  23.336  17.436  22.014  0.0643  0.2236  0.1429
38057W        W81110   4.389   4.746   2.626  0.0325 -0.0623 -0.1839
38058W        W81111  27.187  15.944  26.842 -0.1063 -0.0758 -0.1914
38059W        W81112  23.654  20.106  14.585 -0.0083  0.0731  0.0934
38060W        W81113  11.810   7.502   3.992 -0.1252  0.3420  0.0417
38061W        W81114  21.073  17.705   7.295  0.0891 -0.1439 -0.2561
38062W        W81115  13.394  18.302   4.608  0.2145  0.3905 -0.1653
38063W        W81116  27.723   7.872   8.615 -0.1540 -0.1814 -0.2260
38064W        W81117  12.467  20.389   5.400 -0.0666 -0.1279  0.1405
38065W        W81118  18.110  18.674   9.316 -0.1148 -0.2635  0.3397
38066W        W81119  15.746   0.309   2.032 -0.0367 -0.0412 -0.1590
38067W        W81120  20.797  13.193  17.289  0.2144  0.0026 -0.1483
38068W        W81121  21.934  27.021  23.028 -0.2486  0.3892  0.1539
38069W        W81122  10.503  24.747  29.068 -0.0788  0.0330 -0.1923
38070W        W81123   0.964   9.867  13.907  0.0908  0.2721 -0.0034
38071W        W81124  27.114  11.259  26.368 -0.2020 -0.0059  0.0111
38072W        W81125   6.872  27.277   7.625  0.3598 -0.1440 -0.1759
38073W        W81126   6.587   4.470   1.499 -0.0434 -0.3288 -0.2718
38074W        W81127  23.111  10.230   8.830 -0.5084 -0.3347 -0.0294
38075W        W81128  23.923  10.236  24.997 -0.0092  0.0133 -0.0726
38076W        W81129  15.891  27.852   9.741 -0.0304 -0.0233  0.3835
38077W        W81130  31.842  16.357   7.647  0.0474 -0.0834  0.1859
38078W        W81131  23.604  34.514  16.401 -0.0977 -0.0686  0.0407
38079W        W81132   1.626  12.397   9.185  0.2911 -0.1245 -0.2313
38080W        W81133  12.184  19.153  26.765  0.2420  0.1513  0.0723
38081W        W81134  25.602  22.020  17.809  0.0143 -0.0897 -0.2453
38082W        W81135   3.149   8.806  26.779  0.1008  0.0108 -0.0681
38083W        W81136  26.872  26.194  15.735 -0.0238 -0.2055  0.0848
38084W        W81137  27.139  33.139  26.533  0.0648 -0.1028  0.0298
38085W        W81138   3.083  11.019  17.150  0.3966  0.3379  0.1013
38086W        W81139  31.682  15.344  25.308  0.1630  0.1922  0.3512
38087W        W81140  30.164  10.472   2.440  0.1287 -0.0134 -0.1308
38088W        W81141  33.543  23.894  22.669 -0.2898 -0.0939 -0.1233
38089W        W81142  27.928   6.070   7.360 -0.2226  0.1177  0.0317
38090W        W81143  27.485  12.979  17.997  0.1169 -0.5352  0.0880
38091W        W81144  33.186  25.326   4.829  0.2767 -0.1210 -0.0480
38092W        W81145   0.801   1.458  21.457 -0.0747 -0.2567  0.2507
38093W        W81146   7.061  15.987  26.603  0.1205 -0.0702  0.0221
38094W        W81147  16.240  32.707   7.388 -0.2728 -0.0846 -0.0794
38095W        W81148  20.714  33.828  17.548  0.2026 -0.1602  0.0447
38096W        W81149  28.651  18.142  19.595 -0.1143 -0.0848  0.0695
38097W        W81150   6.746  24.106  10.084  0.3942  0.1755 -0.1441
38098W        W81151  25.907   5.084   4.642  0.0376  0.2624 -0.2493
38099W        W81152  17.248   7.170   0.375  0.1874 -0.0441  0.0993
38100W        W81153  27.124  31.408   9.379 -0.0290  0.1599  0.0200
38101W        W81154   3.688  25.024  15.329 -0.2063 -0.1349 -0.0732
38102W        W81155   4.145  10.081  18.484  0.2718 -0.1380 -0.0034
38103W        W81156   0.430  12.750  19.964  0.1433  0.1781 -0.0486
38104W        W81157   2.490  15.763  27.710 -0.0272 -0.2240 -0.1486
38105W        W81158  22.638  22.089   7.403  0.0550 -0.0647 -0.1407
38106W        W81159  32.324   5.508   9.888 -0.1538  0.1841  0.2701
38107W        W81160  30.893  17.780  14.936 -0.0215  0.1709 -0.1436
38108W        W81161  21.124   9.911   0.545  0.1963 -0.0965  0.0726
38109W        W81162  34.463  15.044  18.998 -0.0580 -0.2189  0.0058
38110W        W81163   1.223  16.510  23.174  0.1576 -0.0220 -0.0663
38111W        W81164  18.646   5.860   6.247 -0.3718 -0.0249  0.0089
38112W        W81165   2.063  19.903   6.877 -0.0869 -0.0379 -0.0433
38113W        W81166  33.049  32.080  27.179 -0.1327  0.2038  0.0086
38114W        W81167   0.831  21.002   5.386  0.0924  0.2129 -0.2652
38115W        W81168  34.349  22.872   1.313  0.3263  0.2709 -0.0577
38116W        W81169  28.477  18.733  14.440 -0.1195  0.2026  0.0071
38117W        W81170  31.019  18.022   1.864  0.1601 -0.4150 -0.0351
38118W        W81171  10.940  10.695  17.081 -0.2424 -0.1211  0.3900
38119W        W81172  16.504   6.544  22.601 -0.1321  0.2909 -0.1772
38120W        W81173  30.956  30.762  18.681  0.0394 -0.1544  0.1162
38121W        W81174   0.347  14.434   3.946 -0.0242  0.1440  0.0720
38122W        W81175  28.765  11.845   0.818  0.0839  0.3338 -0.0998
38123W        W81176   0.043  19.855  25.549 -0.1951 -0.1027 -0.2911
38124W        W81177  26.491  34.679   9.637 -0.1147 -0.1295  0.0917
38125W        W81178   1.953   9.099   3.943  0.0006 -0.1582 -0.0470
38126W        W81179  30.508  22.769   5.007  0.1858  0.0517  0.3547
38127W        W81180   0.979   5.163   0.419 -0.1109 -0.0103  0.3514
38128W        W81181   3.310  16.347   3.040  0.1656  0.0506 -0.2165
38129W        W81182  22.428  23.755   1.059  0.1990  0.1118 -0.1917
38130W        W81183  33.634   9.101  18.253  0.0943  0.0064  0.0792
38131W        W81184   6.413  32.234   9.668  0.3390 -0.1385 -0.0142
38132W        W81185  28.902  33.268   1.131 -0.2832 -0.0711  0.3287
38133W        W81186  33.756   6.154   2.917 -0.2513 -0.0055 -0.2524
38134W        W81187   9.356  25.732   7.853  0.0260 -0.2804 -0.2400
38135W        W81188  27.768  17.860   3.868  0.4964  0.0279  0.0664
38136W        W81189  25.533  23.090  20.068 -0.2336  0.0163 -0.1921
38137W        W81190  31.007   3.461   1.355  0.1408 -0.0997  0.2520
38138W        W81191  21.974  28.830   3.987 -0.0247  0.2400  0.2063
38139W        W81192   4.052  29.503  22.792 -0.1426  0.0808 -0.1018
38140W        W81193  30.817  20.756  22.285  0.1466 -0.0477 -0.1059
38141W        W81194  33.228  11.355  16.609  0.1675 -0.3085 -0.0308
38142W        W81195  27.357  15.817  27.439  0.1528 -0.0146  0.0688
38143W        W81196  16.486  25.668  27.686 -0.1180  0.0125 -0.1691
38144W        W81197  25.635  29.211  18.711  0.1540 -0.0939 -0.0116
38145W        W81198  26.596  12.579   0.822 -0.0886 -0.1421 -0.4051
38146W        W81199  33.619  13.745  21.932  0.0251  0.2454  0.2051
38147W        W81200  28.421  11.034  24.034  0.1105  0.0221  0.2774
38148W        W81201   1.778   8.650  14.349 -0.1627  0.1765  0.1829
38149W        W81202  34.144  15.134   7.156  0.1688  0.0915 -0.0730
38150W        W81203  24.558  32.190   6.116  0.1709  0.0478  0.1381
38151W        W81204  10.508  28.351   0.124 -0.5359  0.1501 -0.0973
38152W        W81205  22.370  27.059  22.236  0.0115  0.4208 -0.0604
38153W        W81206  19.998  17.531  22.471  0.4649 -0.1464  0.0000
38154W        W81207  27.774  22.504  27.347 -0.0858  0.1168 -0.4426
38155W        W81208  30.517  21.314   3.407 -0.3475  0.1482 -0.1429
38156W        W81209  19.207  10.024  14.777 -0.1693 -0.0815  0.1420
38157W        W81210   5.340   4.913   7.412  0.2125  0.3819  0.1997
38158W        W81211   7.983  10.588   9.594  0.2370 -0.3016  0.0838
38159W        W81212  31.238  33.325   2.665 -0.1829 -0.3731  0.0747
38160W        W81213  26.515  25.949   1.742 -0.1382 -0.2724 -0.2909
38161W        W81214   4.809  19.107  24.748  0.2631  0.0482  0.3542
38162W        W81215  28.860  20.749  26.104  0.0518 -0.3809 -0.1234
38163W        W81216  12.659  18.210  22.302 -0.2828  0.2942 -0.1363
38164W        W81217  21.206  14.551  19.412 -0.4907 -0.1304 -0.2309
38165W        W81218  30.952  33.721   0.134  0.3444  0.1312 -0.3535
38166W        W81219  31.601  16.912  20.891  0.2177  0.1801 -0.0846
38167W        W81220  28.326  11.602   4.258  0.4408 -0.0958 -0.0167
38168W        W81221  28.544  17.825  18.793 -0.3503 -0.3425 -0.0310
38169W        W81222  31.629  23.910  21.758  0.1148  0.2549 -0.0026
38170W        W81223  17.176  12.569  21.531  0.0733  0.3610 -0.0706
38171W        W81224  19.175   0.089   6.982 -0.2575 -0.1180 -0.0356
38172W        W81225  26.291  25.881  19.890  0.2318  0.2251  0.2620
38173W        W81226  20.962  13.243  27.435  0.2896 -0.0002 -0.0476
38174W        W81227   2.351  14.492  14.418 -0.2947  0.2600  0.0010
38175W        W81228   2.174  31.403  28.442  0.1989  0.1726  0.0985
38176W        W81229  31.238   4.696  27.731 -0.1956  0.2645 -0.1128
38177W        W81230   6.852  12.736  19.395 -0.0954 -0.0391  0.2167
38178W        W81231  24.010  13.586  26.392  0.1813 -0.1655 -0.2102
38179W        W81232  17.834  10.514  18.068 -0.0534 -0.3299 -0.0186
38180W        W81233   9.747  18.796   1.983  0.2006  0.1430  0.1472
38181W        W81234  14.162   7.068  20.200  0.0461 -0.0377 -0.0232
38182W        W81235   7.232  14.633  25.255 -0.1021  0.1024 -0.1071
38183W        W81236   1.902  33.614  19.569 -0.0890  0.0651 -0.2840
38184W        W81237   9.777  27.063  18.375  0.3913  0.1151 -0.0724
38185W        W81238   3.498  32.207  28.201 -0.2586  0.3697  0.2887
38186W        W81239  11.462  33.038  28.256 -0.2377  0.0610  0.2172
38187W        W81240  31.058  16.300  14.716 -0.2864 -0.2454  0.1369
38188W        W81241   3.396  27.889  22.619 -0.0821 -0.2113 -0.0552
38189W        W81242  17.986  26.322   0.249 -0.0808  0.2224 -0.1914
38190W        W81243  27.248  32.099  28.030 -0.2120  0.1000  0.1053
38191W        W81244   8.307  20.395  20.742  0.0365  0.0804  0.1332
38192W        W81245  33.518   5.378  20.260 -0.0452  0.1770 -0.0914
38193W        W81246  23.586   9.475  17.724 -0.0484  0.1026 -0.1444
38194W        W81247  25.261  26.149  19.874  0.3058  0.1970 -0.1472
38195W        W81248  32.250  17.950  22.864 -0.4525 -0.1493 -0.0167
38196W        W81249   3.430  13.189  19.900 -0.3430 -0.1975  0.0655
38197W        W81250   4.645  11.701  19.501  0.0250 -0.0720  0.1603
38198W        W81251   4.715   3.888  18.695  0.2381  0.0558  0.3476
38199W        W81252  34.360  14.637  23.699  0.0588  0.3476  0.0154
38200W        W81253  30.910  12.716   9.250  0.1182 -0.2866  0.2258
38201W        W81254  28.397   1.479   5.917 -0.0704 -0.2254  0.0090
38202W        W81255   1.278  21.440   8.170 -0.0931  0.1306 -0.0590
38203W        W81256   2.892  10.456  22.695  0.0722  0.0162  0.2231
38204W        W81257  22.718  16.155   6.184  0.3850  0.1530  0.1122
38205W        W81258  32.528  22.078  29.132 -0.0426 -0.2850  0.3611
38206W        W81259   8.916   9.238   8.925  0.1352 -0.0349  0.0311
38207W        W81260  26.376  26.331  17.930 -0.1810  0.1755  0.4604
38208W        W81261  33.902  22.563  28.824 -0.1620 -0.0013 -0.0617
38209W        W81262  12.383  16.525  26.229 -0.1212 -0.0099  0.3787
38210W        W81263  17.518   2.749  27.114 -0.0788 -0.2412  0.0063
38211W        W81264   2.346  15.761   6.149  0.0115  0.3007 -0.0608
38212W        W81265  25.216  15.880  18.555 -0.6325  0.1964  0.1739
38213W        W81266  24.458  27.304  21.324 -0.0680 -0.0468  0.0418
38214W        W81267  28.034   8.247  26.662 -0.1212  0.1198 -0.1916
38215W        W81268  29.264  16.865   2.846  0.3694  0.0338  0.0139
38216W        W81269   3.103  18.246  15.183 -0.3013  0.2185 -0.3212
38217W        W81270  11.603  16.738  25.784  0.1448  0.0045  0.1524
38218W        W81271  22.814  13.663  18.830  0.1332 -0.1339  0.1514
38219W        W81272  33.897  26.529  23.460 -0.1905 -0.0060 -0.1491
38220W        W81273  28.394  10.475  18.896 -0.4148 -0.2482  0.3055
38221W        W81274  30.363  12.074  15.790  0.1432  0.1306 -0.0310
38222W        W81275  31.958   5.266  15.731 -0.2024 -0.1616  0.0409
38223W        W81276  30.723  14.402   3.521  0.0702  0.4873 -0.3051
38224W        W81277   2.630  13.451   8.986  0.1605  0.1649  0.0016
38225W        W81278  22.143   5.694   6.693 -0.0864  0.0632  0.0821
38226W        W81279   7.561   5.700  16.627 -0.6701 -0.0595  0.0732
38227W        W81280   0.091  17.822  26.047  0.1719  0.2814  0.2614
38228W        W81281  20.199  20.773  26.947  0.2537 -0.1127  0.3153
38229W        W81282   2.212  32.416   0.422 -0.0349  0.0271  0.2278
38230W        W81283  27.859   6.822   7.825 -0.0476 -0.1196 -0.1949
38231W        W81284   4.918   2.411  20.441 -0.0404 -0.0542  0.0508
38232W        W81285  15.323  20.968   2.259  0.1650 -0.1620  0.0888
38233W        W81286  23.261   2.813  16.492 -0.1114 -0.0899  0.0705
38234W        W81287  26.877  19.837   5.305 -0.2990 -0.0087  0.4201
38235W        W81288  28.518  25.027   4.130  0.3208  0.2859 -0.2452
38236W        W81289  22.652   8.050  22.298 -0.0093 -0.2057  0.1196
38237W        W81290  11.241  26.908   0.091 -0.2569 -0.1053  0.5305
38238W        W81291  17.814   8.490   6.196  0.4119 -0.0078  0.5021
38239W        W81292  16.626  16.905  26.938  0.1111 -0.3285  0.0931
38240W        W81293  28.830  15.863  17.261 -0.2849 -0.4675  0.2444
38241W        W81294  24.003   6.536  20.553  0.3794 -0.2762 -0.2154
38242W        W81295  10.111   2.232  18.406 -0.2009  0.3275 -0.0172
38243W        W81296   2.463   8.188  14.401  0.1570  0.0674  0.1169
38244W        W81297  25.603   5.813   0.714  0.0796 -0.0867  0.0281
38245W        W81298  14.702  14.944  22.015  0.1005  0.0848  0.2709
38246W        W81299  18.377  24.367   6.593  0.0815  0.1849 -0.2739
38247W        W81300  10.146  26.425  27.463  0.1308 -0.2654 -0.1620
38248W        W81301  12.739   9.073  22.590 -0.0836  0.0950  0.0193
38249W        W81302  29.099  18.232   0.827 -0.3003  0.0105 -0.0486
38250W        W81303  10.438  13.708  25.249  0.3097  0.1383 -0.0910
38251W        W81304   1.509  22.513   1.391 -0.1183 -0.0108  0.0743
38252W        W81305  19.050  13.204  28.034 -0.0634  0.4096  0.1446
38253W        W81306  32.859  19.658  22.128  0.0755  0.1477  0.5093
38254W        W81307  23.054  31.523  18.116  0.1428 -0.1407  0.0218
38255W        W81308   4.039  25.796  24.973 -0.1641 -0.1114  0.1737
38256W        W81309  21.807  19.321  16.298  0.2341 -0.0536  0.3006
38257W        W81310   5.698   0.667   6.296  0.1217 -0.5204 -0.1359
38258W        W81311   1.484  16.553  21.901 -0.2422 -0.0620 -0.1918
38259W        W81312  17.956  13.999  25.475  0.2412  0.0016 -0.1323
38260W        W81313   5.006   7.141  24.927  0.2131  0.0858  0.3484
38261W        W81314   2.342  27.485  28.959  0.0112 -0.2831  0.0580
38262W        W81315  13.561  22.478  24.068  0.2209  0.2118  0.2255
38263W        W81316  30.613  20.514   1.371  0.0955  0.0976  0.3187
38264W        W81317  33.742   6.564   2.331 -0.1311  0.4239 -0.0999
38265W        W81318  20.953  11.088  25.614  0.0824 -0.4409 -0.3571
38266W        W81319  29.603  25.690  27.797 -0.2207  0.3194 -0.4210
38267W        W81320  29.267   2.977  15.558  0.1576 -0.0770 -0.0945
38268W        W81321  18.824  15.247   4.571  0.1450  0.2123  0.2812
38269W        W81322   0.767   7.015  20.524  0.0440 -0.0630  0.0656
38270W        W81323  33.719  19.852   1.816  0.2333  0.0076 -0.0420
38271W        W81324  25.894  19.951  24.311  0.0011 -0.1811 -0.0259
38272W        W81325  14.575  11.865  14.675 -0.1925 -0.1172  0.0186
38273W        W81326  25.747  30.784  24.641  0.0644  0.1118 -0.3122
38274W        W81327  34.666  11.311  26.619  0.1536 -0.1720  0.0339
38275W        W81328  25.332  32.217  24.707  0.1771 -0.1728 -0.0955
38276W        W81329   4.635  20.399   0.184  0.2002 -0.1458  0.0145
38277W        W81330  20.854  27.771  22.441  0.0798  0.1659 -0.0308
38278W        W81331  14.127   7.632  24.317  0.0155  0.4106 -0.2790
38279W        W81332   6.953   9.446  29.169 -0.0781  0.1148 -0.0516
38280W        W81333   4.350   4.026  28.967 -0.4377 -0.1561 -0.1732
38281W        W81334  21.916  30.942  26.374 -0.0072  0.2094  0.0317
38282W        W81335   4.685  16.635  22.511  0.1533 -0.0242 -0.1165
38283W        W81336  34.454  32.292  21.986 -0.1490 -0.0799 -0.1866
38284W        W81337  28.144  11.382  24.364  0.0453  0.1655 -0.1211
38285W        W81338  26.352  33.118   8.244 -0.0056  0.0641 -0.5042
38286W        W81339  13.553   2.389  16.100  0.0632 -0.1479 -0.1528
38287W        W81340  28.120   8.796  25.464 -0.0390  0.1751 -0.3696
38288W        W81341  21.335  16.830   8.532 -0.0413 -0.0849  0.4442
38289W        W81342  31.940   7.674  27.012  0.0875  0.2146 -0.0786
38290W        W81343  12.506  31.691  25.571 -0.1913 -0.0119 -0.1188
38291W        W81344  32.207   7.673  19.259  0.2645 -0.0025 -0.3586
38292W        W81345   1.945  14.842   0.973 -0.1151 -0.2181  0.1307
38293W        W81346   1.739   8.319  28.251  0.0314  0.1627 -0.0620
38294W        W81347  22.245   0.585   3.779  0.3452  0.1170  0.1237
38295W        W81348  32.800  24.628  25.582  0.0617  0.0266  0.1143
38296W        W81349   7.350  17.016  22.814 -0.2371 -0.2512 -0.0055
38297W        W81350  21.113   0.596  10.361  0.0160  0.1831 -0.0740
38298W        W81351  22.742  11.449  29.082 -0.0306  0.1682 -0.5097
38299W        W81352  17.260  21.178  25.275 -0.2873  0.1964 -0.2584
38300W        W81353   0.813  18.547  20.365 -0.3788  0.0441  0.0310
38301W        W81354  26.472  21.169  28.013  0.3130 -0.0219 -0.1709
38302W        W81355  30.841  21.144   2.534  0.1334  0.3050 -0.0050
38303W        W81356   3.517  10.947   6.997 -0.2422 -0.0500  0.3401
38304W        W81357   2.839  13.392   3.819  0.1476 -0.1172 -0.2134
38305W        W81358  20.067  25.384  10.349 -0.1688  0.0699 -0.3584
38306W        W81359  28.453  33.275   2.039  0.2395  0.0100 -0.0532
38307W        W81360   0.581  27.027  19.674  0.1432  0.2223  0.0167
38308W        W81361   1.222  14.643  19.562  0.4507  0.2495 -0.1060
38309W        W81362  18.254  28.309  27.760  0.1483  0.0710 -0.0554
38310W        W81363  32.581  25.476   6.544  0.1945 -0.2653  0.1215
38311W        W81364  26.363  11.175  16.184  0.0255  0.0180 -0.0719
38312W        W81365  32.257  14.827  17.865 -0.2786 -0.3055 -0.2550
38313W        W81366   9.430  21.937   7.480  0.2463  0.1908  0.2171
38314W        W81367  19.543  15.420  14.442 -0.0868  0.1199 -0.1016
38315W        W81368  21.550  24.387   9.602 -0.4175 -0.3293 -0.0831
38316W        W81369  33.263  17.024  20.830 -0.0293  0.0949  0.1895
38317W        W81370  29.908   7.835   3.884 -0.2422 -0.1109  0.0297
38318W        W81371   2.364  13.488  28.013 -0.1434  0.1757 -0.0168
38319W        W81372  26.652  34.161   6.581  0.1985  0.2921  0.1527
38320W        W81373  25.413  15.429   8.630  0.3674 -0.0237  0.1738
38321W        W81374   6.512  19.845  19.809 -0.0296  0.0054 -0.1597
38322W        W81375   2.551   8.773  21.223 -0.1895 -0.0607 -0.2377
38323W        W81376   6.840  23.488  17.881  0.3336  0.1854 -0.2816
38324W        W81377  18.600  10.505  23.403 -0.0162 -0.3118 -0.1613
38325W        W81378   3.559  29.070  17.441 -0.0334  0.1757 -0.0949
38326W        W81379  20.481  27.790   1.064 -0.0276 -0.2228 -0.1589
38327W        W81380  28.345  15.698  14.660 -0.0862  0.1330  0.2404
38328W        W81381  17.127  22.467  18.080  0.0015  0.1130  0.1952
38329W        W81382   7.158  15.832  20.921 -0.1278 -0.3862 -0.2206
38330W        W81383  32.218  33.955  26.231  0.1921  0.3093  0.0838
38331W        W81384   4.503  18.069  20.516  0.1756  0.0563 -0.0567
38332W        W81385   6.188  23.653   1.511  0.0427  0.0910 -0.0321
38333W        W81386   7.794  19.771  19.984  0.2668 -0.0704 -0.1206
38334W        W81387  30.262  31.498   7.197  0.0474  0.1152  0.1183
38335W        W81388  25.047  21.435   0.329  0.0878  0.0793  0.2630
38336W        W81389  20.657  25.201   0.106  0.0041  0.1747  0.2321
38337W        W81390  11.096   2.982  22.455  0.0948 -0.0237 -0.1125
38338W        W81391  21.795  21.610  28.097  0.1302 -0.4790 -0.3170
38339W        W81392  30.847  13.088  22.555  0.1873  0.0023 -0.0409
38340W        W81393  23.642   5.365  16.663  0.1318 -0.3084  0.0734
38341W        W81394   4.988   9.071  18.982  0.1019  0.2037  0.0931
38342W        W81395  23.626  16.937  28.948 -0.1136 -0.0579  0.1625
38343W        W81396  17.821  18.635   5.463 -0.0234  0.1715  0.2385
38344W        W81397  31.406  17.999  18.105  0.0724  0.3856 -0.0888
38345W        W81398  27.932  18.538  24.394  0.1273  0.0417 -0.0221
38346W        W81399  33.529  26.139  20.548 -0.2359  0.0039  0.0931
38347W        W81400   0.867   8.887  17.778 -0.1893 -0.0218  0.3102
38348W        W81401   6.665  19.050  23.002  0.1851 -0.1463 -0.1036
38349W        W81402  20.012  10.657  16.948 -0.1643  0.0362  0.3820
38350W        W81403  24.288  27.829   7.837  0.1154  0.1304 -0.0823
38351W        W81404  22.141  17.396  26.900 -0.1580  0.0219  0.0867
38352W        W81405  12.803  12.073  10.143 -0.0258 -0.0325 -0.1971
38353W        W81406   4.176   9.074   2.760 -0.2504  0.3714 -0.0706
38354W        W81407  19.879  26.337   4.585 -0.0760 -0.2281 -0.2136
38355W        W81408  32.426  17.304  23.446 -0.0699 -0.0016  0.2260
38356W        W81409  31.907  25.893   2.591 -0.0652 -0.0636 -0.2264
38357W        W81410  30.328  13.108  20.157  0.2119  0.2283  0.1678
38358W        W81411   2.583  34.045   4.064  0.2837 -0.2374 -0.1161
38359W        W81412   2.337  20.726   9.246 -0.0147  0.2130 -0.1933
38360W        W81413  18.767  14.980   6.920 -0.1206  0.1798 -0.1157
38361W        W81414   3.958  14.871   7.455 -0.3780 -0.0480 -0.0129
38362W        W81415  31.317  12.067  21.949 -0.0031 -0.2295 -0.3281
38363W        W81416  24.263   2.470   4.538 -0.3894 -0.1447 -0.0764
38364W        W81417  32.397  14.846   5.986 -0.2476 -0.3026 -0.4182
38365W        W81418   7.650  20.121  23.206  0.0416 -0.1624 -0.1666
38366W        W81419   2.008  10.049  15.818  0.0306 -0.4706 -0.2466
38367W        W81420  11.898   6.703  18.510 -0.1413  0.0299  0.1639
38368W        W81421  22.446  10.518  28.863 -0.2094  0.0716  0.2716
38369W        W81422   9.255   4.207  27.395 -0.1283  0.1625  0.2690
38370W        W81423  10.810   7.197   8.654  0.2674  0.2501  0.1972
38371W        W81424  24.290  32.561   0.638 -0.1901  0.0786  0.3132
38372W        W81425   3.555  24.021  14.597  0.0139  0.4356 -0.0693
38373W        W81426  33.040   2.526  25.676  0.0257  0.0327 -0.0375
38374W        W81427  34.564  33.915   3.976  0.3353  0.1453 -0.0764
38375W        W81428  32.618   9.855  28.271  0.2774 -0.2535 -0.1413
38376W        W81429   1.845  22.444  22.305 -0.0658  0.0659 -0.2098
38377W        W81430  23.175  13.847   2.308  0.0903  0.0323  0.0484
38378W        W81431  34.408   9.185  16.688  0.2616  0.2449 -0.1345
38379W        W81432  19.501  25.413   4.809  0.1982  0.0235 -0.1548
38380W        W81433  29.559  22.871  25.232  0.1267  0.1659  0.1759
38381W        W81434   2.572  10.418   4.912 -0.1540 -0.0980 -0.2922
38382W        W81435  12.813   3.254  19.850  0.0108 -0.0133  0.1419
38383W        W81436   4.217  15.958  19.493 -0.0471 -0.2801 -0.0107
38384W        W81437   3.651  11.836  10.510  0.0273  0.1107 -0.0514
38385W        W81438  17.464  24.402   0.107 -0.2361 -0.2155 -0.3929
38386W        W81439  34.217  10.727  25.273 -0.0254 -0.1358  0.2017
38387W        W81440  34.250  24.557   3.011 -0.1939  0.2943 -0.1253
38388W        W81441  31.927  27.328   3.558 -0.1938  0.2916 -0.2011
38389W        W81442   3.951  16.958  28.022  0.0618  0.0307 -0.0883
38390W        W81443  22.565   5.831  18.925 -0.1193  0.0157  0.0120
38391W        W81444  27.989  17.943   8.198  0.0131  0.0557  0.0600
38392W        W81445  24.912  11.938  17.336  0.1096  0.0559  0.1513
38393W        W81446   4.504  17.749  19.589  0.2071 -0.0926  0.3247
38394W        W81447  19.804  29.207   5.702  0.3488 -0.0060 -0.0754
38395W        W81448  30.658  17.977   1.400 -0.3902 -0.4403  0.0791
38396W        W81449  18.171  33.988  25.719 -0.0867 -0.5312  0.2757
38397W        W81450  18.546   2.930   4.890 -0.0326  0.0928 -0.0591
38398W        W81451   7.083   5.512  16.707  0.4017  0.0241 -0.1219
38399W        W81452  26.098  21.204  21.461 -0.0805 -0.0628 -0.2008
38400W        W81453  18.539  28.884  27.513 -0.3519  0.0796 -0.1479
38401W        W81454   2.068  30.424   2.942 -0.1244 -0.1099  0.2351
38402W        W81455  16.932  10.143   1.038  0.1094  0.2246 -0.0391
38403W        W81456  23.423  11.080  19.723  0.2342 -0.1839  0.3213
38404W        W81457  19.814  27.003  23.682 -0.0787 -0.0698  0.1646
38405W        W81458   3.157  29.337   1.210 -0.2200 -0.2530 -0.1403
38406W        W81459   8.904  18.284  27.122 -0.1781 -0.1023  0.0250
38407W        W81460   5.025   9.904   3.515  0.3170  0.1566 -0.3897
38408W        W81461  17.692  12.402  21.571  0.3934  0.1263 -0.0458
38409W        W81462  26.639  18.554  20.200 -0.1462  0.5265  0.0334
38410W        W81463  30.580  21.592   7.830  0.0735 -0.0829 -0.0770
38411W        W81464  30.979  23.252  20.889  0.0906  0.0084 -0.1111
38412W        W81465  28.841  11.616   9.542  0.0486  0.0537  0.2682
38413W        W81466   1.988   9.887  22.226  0.0595  0.4489  0.0453
38414W        W81467   1.094  17.109  20.231  0.1455 -0.3125  0.3085
38415W        W81468  19.522   1.183   2.437 -0.1557  0.1237  0.1201
38416W        W81469  22.103  18.246  20.143  0.2446  0.1132  0.0211
38417W        W81470   0.707  10.058  19.223  0.0555 -0.1151  0.2546
38418W        W81471  31.901  14.857  23.077 -0.0040 -0.5002  0.4132
38419W        W81472  30.106  26.608  24.709 -0.2217  0.1603 -0.0624
38420W        W81473  31.785  26.887  15.881 -0.0294 -0.1379  0.2977
38421W        W81474  21.406  17.826  27.018 -0.0583  0.2002 -0.0599
38422W        W81475  26.082  12.585   0.901  0.0529 -0.2211 -0.1550
38423W        W81476  24.016  24.417   7.977  0.0797 -0.0507 -0.0102
38424W        W81477   9.868  15.868  18.926 -0.0937  0.1487 -0.1076
38425W        W81478  32.219   0.315   2.529  0.0414 -0.1804  0.2159
38426W        W81479   0.293  19.830   5.239  0.0859 -0.0574 -0.2220
38427W        W81480  26.149  27.423  21.683  0.1734  0.2780  0.0572
38428W        W81481  31.333  11.460  15.887  0.2448  0.0838 -0.2435
38429W        W81482  22.181  28.236   9.966  0.0351 -0.2046 -0.0942
38430W        W81483  29.959  14.248   0.853  0.1754 -0.2417 -0.0162
38431W        W81484  17.503   8.282  22.893 -0.0213 -0.0437 -0.0803
38432W        W81485  22.475  12.588  19.808  0.0993 -0.1174  0.0862
38433W        W81486  32.890  19.058  25.223 -0.0896 -0.0899 -0.0092
38434W        W81487  14.957  15.625  13.761  0.0354 -0.2986 -0.1247
38435W        W81488  14.086  13.037   5.649  0.0103 -0.0116 -0.1009
38436W        W81489   6.026  24.649  28.075 -0.2996  0.0265  0.3509
38437W        W81490  24.125   8.329  22.141  0.1304  0.0122 -0.0862
38438W        W81491  11.518  25.809   3.279 -0.0221  0.0737  0.4372
38439W        W81492  11.747  16.643  26.593 -0.0527 -0.4017  0.0593
38440W        W81493  23.665  27.879  16.398 -0.1889  0.1524 -0.0489
38441W        W81494  22.835  18.175  23.677  0.4240 -0.2588 -0.3258
38442W        W81495   7.156  31.081   5.949  0.0883  0.1696 -0.1821
38443W        W81496  22.346  18.092  25.203  0.2010 -0.1027  0.0430
38444W        W81497  11.800  26.878  25.131 -0.0650 -0.2945  0.1710
38445W        W81498  28.632  19.711  21.649  0.4200  0.4580 -0.2850
38446W        W81499  16.235  17.558   7.253 -0.0854  0.3690  0.0508
38447W        W81500  10.339  26.048  16.482  0.3164 -0.0611  0.0528
38448W        W81501  16.962  16.801  28.616 -0.0466  0.0378  0.2285
38449W        W81502   7.335  17.904   1.683 -0.2538  0.0305 -0.0612
38450W        W81503  30.326  19.044  16.983 -0.1462  0.4498 -0.2834
38451W        W81504  27.461  16.818  15.297  0.4320 -0.3616  0.1717
38452W        W81505  15.357   9.671   5.070 -0.1350  0.2330 -0.2154
38453W        W81506   5.022  13.180  25.359  0.1374 -0.1011 -0.2076
38454W        W81507  34.091  15.671  25.555  0.0237 -0.2963  0.5519
38455W        W81508  25.012  14.550   8.741 -0.0777 -0.0145  0.0623
38456W        W81509   6.686  13.923  18.420  0.0480  0.1069  0.0565
38457W        W81510  18.127  10.968   0.074 -0.0088 -0.0251 -0.1510
38458W        W81511   0.871   4.151  13.482  0.0170 -0.1691  0.2092
38459W        W81512  30.538  15.528  22.228  0.2099  0.0935 -0.2143
38460W        W81513  28.439  22.231  28.424  0.1488  0.0781 -0.0637
38461W        W81514  24.574  23.247   6.788 -0.2998  0.2810 -0.4011
38462W        W81515  33.824  14.962  27.329 -0.0990 -0.1203 -0.0210
38463W        W81516  27.140  21.394  16.672  0.1255 -0.4638  0.0156
38464W        W81517  20.686  15.351  24.601  0.0019  0.3468 -0.0197
38465W        W81518  29.646  23.461   0.950  0.1762  0.3607  0.1315
38466W        W81519  28.786  15.528  14.945  0.1464 -0.1348 -0.0921
38467W        W81520  29.336  19.466  27.399 -0.0560 -0.2889  0.0879
38468W        W81521   2.539  24.045   1.798 -0.1125  0.2790 -0.3419
38469W        W81522   1.293  14.064  27.221  0.3124  0.1699  0.1762
38470W        W81523   1.786   7.480  24.135 -0.0769  0.4096 -0.0924
38471W        W81524  17.831  23.209  24.621  0.1573  0.0087 -0.4804
38472W        W81525  22.745  15.934  27.117 -0.1179 -0.1735  0.3222
38473W        W81526   0.614  12.208   6.840 -0.0489  0.1715  0.0505
38474W        W81527  24.487  32.438  14.649 -0.4022  0.1755 -0.0050
38475W        W81528  25.354   6.380  16.176 -0.0450  0.2581  0.2342
38476W        W81529   1.076  27.080   4.325  0.0674  0.1413  0.0352
38477W        W81530  23.443   5.327   2.621 -0.1636  0.2146 -0.0062
38478W        W81531   1.410  16.734  25.324  0.3380 -0.0741 -0.1476
38479W        W81532  33.854   3.489  17.362  0.2270 -0.1772  0.4505
38480W        W81533  28.600   4.090   4.350 -0.0476 -0.1206  0.0201
38481W        W81534   6.155  29.443  17.086  0.1814 -0.3619 -0.1161
38482W        W81535  24.033   7.003   4.062  0.2729 -0.1197  0.2294
38483W        W81536  26.640   4.758  14.942  0.4547  0.0554 -0.2815
38484W        W81537   8.971  15.084  25.277 -0.2622  0.0189 -0.0355
38485W        W81538  29.750  27.366  20.546  0.1423  0.1282  0.0172
38486W        W81539   4.863   9.117  21.770  0.0383 -0.0807  0.2793
38487W        W81540  32.416   7.531  27.036  0.2076 -0.1658  0.0097
38488W        W81541  30.527  11.317  26.543 -0.1087 -0.0848 -0.2315
38489W        W81542  18.081  32.643  15.122 -0.1139  0.0033 -0.0932
38490W        W81543  21.067   3.355   6.655 -0.3246 -0.0239  0.1676
38491W        W81544   7.319  15.138   7.470  0.2877 -0.1802  0.2566
38492W        W81545  31.121  16.576  15.172  0.0618 -0.0055 -0.2314
38493W        W81546  30.905  21.609   7.440  0.1296  0.0386  0.0786
38494W        W81547   6.903  27.751   9.139  0.0508  0.0723 -0.1879
38495W        W81548  28.753   9.574   7.268  0.2182 -0.1385 -0.2155
38496W        W81549   8.643  19.862   7.081  0.2193 -0.0070 -0.0892
38497W        W81550  32.644  10.426   3.257  0.0123 -0.0652  0.1289
38498W        W81551  18.789  33.349   7.026 -0.2185  0.0961  0.3632
38499W        W81552  30.799  13.380  20.197 -0.1520  0.3737  0.1515
38500W        W81553  30.684   5.306   8.362  0.1411 -0.1925  0.2045
38501W        W81554  12.834  19.890  25.633  0.0504 -0.0357  0.2449
38502W        W81555   5.385   5.423   3.040 -0.0674  0.0816  0.0032
38503W        W81556   4.179  24.522   2.102  0.1035 -0.3044  0.0600
38504W        W81557  26.709  17.252   7.431  0.0646 -0.0461  0.2205
38505W        W81558  30.614  11.137  27.080 -0.1374  0.1727 -0.0569
38506W        W81559  28.299   4.180  22.304  0.2497  0.2698 -0.0751
38507W        W81560  29.216  33.388  25.639  0.2075  0.0750 -0.1076
38508W        W81561  32.774  12.802  24.969  0.1417 -0.2334  0.0333
38509W        W81562  31.047   5.459  15.526 -0.4937  0.3991 -0.0006
38510W        W81563   2.789  16.508  13.701  0.2543 -0.0401  0.2929
38511W        W81564  31.161   3.019   7.974 -0.4004 -0.0242  0.1821
38512W        W81565  29.259   1.010   4.779 -0.0098  0.0714  0.0388
38513W        W81566  30.841  16.818   2.074  0.4108 -0.1511 -0.0301
38514W        W81567  19.025  18.982  27.453 -0.0396  0.1615 -0.0055
38515W        W81568  32.990   4.761   7.747  0.0860 -0.2098  0.1222
38516W        W81569  29.502  17.199  25.623 -0.0954 -0.0840 -0.0242
38517W        W81570   2.843  14.509  24.088 -0.0754 -0.1605  0.1506
38518W        W81571   5.130  27.840   8.681  0.1779  0.0034  0.2502
38519W        W81572   2.044  16.410   1.325  0.0391  0.1010 -0.0646
38520W        W81573  31.141  26.112   8.003 -0.1198 -0.1661 -0.1230
38521W        W81574   2.237   4.969   2.807  0.2553 -0.2396  0.0944
38522W        W81575   1.201   5.596   1.725 -0.1883 -0.2114  0.2308
38523W        W81576  29.033  28.014  24.462  0.0139 -0.0878  0.0135
38524W        W81577  24.833  23.114  20.431  0.4448 -0.1866 -0.1462
38525W        W81578   0.156   9.902  18.162 -0.2376  0.1746  0.1821
38526W        W81579  33.448  34.506  15.364 -0.4659  0.4547  0.2459
38527W        W81580  20.659   7.921  22.689 -0.1054 -0.2369  0.1195
38528W        W81581   2.871  14.582  21.415  0.0461  0.1071  0.3408
38529W        W81582  30.183  19.604  21.105  0.2137  0.2351 -0.0751
38530W        W81583   4.019  21.364  22.696  0.1488  0.2230 -0.0942
38531W        W81584  33.429  27.811  23.415  0.2300 -0.1454  0.2859
38532W        W81585  33.639   7.715  15.053 -0.0758 -0.2971  0.0757
38533W        W81586   8.784  27.202  23.340 -0.2693  0.1103 -0.0234
38534W        W81587  30.984  10.472  15.252 -0.1772  0.0174  0.0518
38535W        W81588  12.769  25.804  25.131  0.1505 -0.0678  0.0038
38536W        W81589  19.781  18.524  24.425  0.0257 -0.1821 -0.2073
38537W        W81590  13.081  20.170  17.595  0.2628  0.1144 -0.0088
38538W        W81591  23.658  22.226   2.243  0.1455  0.3990 -0.2338
38539W        W81592   5.989  17.223  15.508 -0.0864 -0.0287  0.0444
38540W        W81593   3.876  21.004  16.904  0.0597  0.3011 -0.2190
38541W        W81594   1.237  34.340   7.689  0.0318  0.1568 -0.0169
38542W        W81595  13.152  14.439  18.447  0.1162  0.3192 -0.0124
38543W        W81596  22.777  23.054  28.308  0.0346 -0.1185 -0.1284
38544W        W81597   0.710  11.744  16.589  0.0824  0.1126 -0.3817
38545W        W81598  30.221  25.647   3.622 -0.2009  0.2398 -0.2714
38546W        W81599  32.758  27.300  15.041 -0.1315  0.1151 -0.4271
38547W        W81600  18.832  29.193   2.996  0.1267 -0.1218  0.2395
38548W        W81601  28.279  23.842  26.041  0.1931  0.0407 -0.2027
38549W        W81602   3.257  28.877  20.343 -0.0740  0.2946 -0.3137
38550W        W81603  31.472  11.516  21.026  0.4125 -0.0228  0.4136
38551W        W81604  12.746  21.236  14.529 -0.0818  0.1333  0.2557
38552W        W81605  27.843  17.504  22.022  0.0894 -0.0948 -0.0274
38553W        W81606  10.054  28.761  28.266  0.1447 -0.0203  0.1832
38554W        W81607  30.908  25.270  20.354  0.0929  0.4148  0.0098
38555W        W81608   3.926  24.314  17.002 -0.0246 -0.0412  0.2581
38556W        W81609  23.777  22.056  26.000 -0.0675 -0.0978  0.0326
38557W        W81610   2.135  28.162  14.338 -0.0748 -0.1265  0.0345
38558W        W81611   6.013  10.388  20.236  0.1819 -0.2193  0.0889
38559W        W81612   0.450  21.804  24.907  0.4064  0.1510  0.0233
38560W        W81613  26.449  23.063  20.489  0.0070  0.3288 -0.2097
38561W        W81614   1.787   6.056  14.298  0.2638  0.0521 -0.1524
38562W        W81615   1.862  19.530  21.473  0.0376  0.0870 -0.0192
38563W        W81616  11.132  21.373  16.153  0.0113 -0.2277 -0.0636
38564W        W81617  19.026   3.984  19.753 -0.1288  0.1415 -0.0655
38565W        W81618  28.799  25.570  21.817 -0.3125 -0.0065 -0.1709
38566W        W81619  34.315  29.204  18.170 -0.0625  0.1097 -0.0472
38567W        W81620   2.472   9.603  25.147  0.1073 -0.1259 -0.1202
38568W        W81621   0.281   8.195  16.912  0.1456 -0.0403  0.1719
38569W        W81622  33.696  14.218  19.344  0.0602  0.1563 -0.3049
38570W        W81623  34.425  16.819  14.843 -0.4004 -0.0631 -0.1130
38571W        W81624   4.484  32.126  22.535 -0.1075 -0.1833 -0.2431
38572W        W81625  21.445  28.273  20.050 -0.1157 -0.3113  0.2650
38573W        W81626   5.795   2.619  16.114 -0.0161 -0.4127 -0.0549
38574W        W81627  12.693  27.519   0.954 -0.3669  0.2301 -0.4250
38575W        W81628  19.175   5.207  16.945 -0.3400 -0.0144  0.0306
38576W        W81629   7.012  25.566  18.362 -0.1448  0.3356  0.1368
38577W        W81630  28.197  15.948  20.536  0.0136  0.0604 -0.0952
38578W        W81631   6.422  18.259  19.082  0.0533 -0.3961 -0.1921
38579W        W81632  28.757   6.806  23.239  0.1114  0.2294  0.0700
38580W        W81633  25.779  23.310  17.945  0.1470 -0.0074 -0.1019
38581W        W81634  32.140  33.925  19.688  0.2022  0.5239  0.1489
38582W        W81635  33.798  21.299  14.653  0.0119  0.1624  0.0301
38583W        W81636  25.578  12.910   5.854  0.2970  0.0573 -0.0090
38584W        W81637   8.714  22.523  18.326 -0.2236 -0.0216 -0.1911
38585W        W81638  33.442  17.707  20.178 -0.2597  0.1156  0.0188
38586W        W81639  10.064  15.634  17.386 -0.1894  0.1300 -0.0264
38587W        W81640  27.128  18.388  18.290  0.1428 -0.1985  0.1298
38588W        W81641  26.899  15.847  16.852 -0.5543  0.2677  0.2856
38589W        W81642  23.736  24.932  21.858 -0.0243  0.2632  0.4527
38590W        W81643  17.836  34.322  25.583  0.0392  0.0589  0.1877
38591W        W81644  31.646  30.026  17.065  0.1377 -0.2460  0.0079
38592W        W81645   3.529  18.824  18.390  0.0168 -0.2670 -0.3340
38593W        W81646   2.755  10.807  19.257 -0.1661  0.0110 -0.3585
38594W        W81647  13.955   9.546  21.850 -0.1696  0.3576 -0.1288
38595W        W81648  20.117  29.856   3.299  0.2229 -0.2627 -0.2244
38596W        W81649  20.683  14.762  13.157 -0.3185  0.0965  0.1029
38597W        W81650  26.472  17.902  22.202  0.1307  0.2198 -0.2023
38598W        W81651  17.756  22.295   9.726 -0.3235 -0.1111 -0.1265
38599W        W81652   2.522  29.374  18.394 -0.0518 -0.1305 -0.1190
38600W        W81653   1.348  13.199  17.494  0.0999  0.1823  0.0684
38601W        W81654  26.479   3.453  19.255 -0.0673  0.0589 -0.0205
38602W        W81655   5.930   9.594   0.406  0.1451 -0.0016 -0.1496
38603W        W81656  21.523  14.183  16.635  0.4158 -0.0289  0.1961
38604W        W81657  24.544  10.237  17.718 -0.2687 -0.4642 -0.2502
38605W        W81658  19.870  22.622  18.610  0.0187  0.0602 -0.0003
38606W        W81659  34.054  11.961  26.787 -0.1882  0.1603 -0.1037
38607W        W81660  27.006  33.379  27.203  0.0356 -0.0959 -0.0301
38608W        W81661  32.606   6.887  22.929  0.0731 -0.0442  0.1468
38609W        W81662  33.183  31.020  14.649 -0.0153 -0.0310 -0.0319
38610W        W81663   3.469  30.308  22.350 -0.0308  0.0846 -0.0787
38611W        W81664   2.090   0.914  21.962 -0.1184 -0.1001  0.0705
38612W        W81665  22.494  10.541  14.038  0.1768 -0.0258 -0.1055
38613W        W81666   0.455  21.338  14.744 -0.4184 -0.1803  0.0134
38614W        W81667  14.861  25.500  25.999  0.0507 -0.0367 -0.0858
38615W        W81668  12.195  12.590  20.215  0.2569  0.2260 -0.2071
38616W        W81669  20.892  33.682  14.786  0.0927 -0.0430  0.0803
38617W        W81670   6.027   0.848  16.934  0.0800  0.0044  0.1196
38618W        W81671   4.388  19.093  21.878  0.0233  0.0531  0.0622
38619W        W81672  32.695  22.975  23.431  0.1485 -0.0472 -0.0550
38620W        W81673  31.062  33.440  23.541 -0.0838  0.2143  0.2352
38621W        W81674  31.649  18.801  19.439  0.2628  0.1723  0.0669
38622W        W81675   9.211   4.205   2.317 -0.0642 -0.0747 -0.1436
38623W        W81676  11.486  26.351  15.906  0.2432  0.5369  0.1666
38624W        W81677  22.925  23.171  14.812 -0.0351  0.0410  0.1035
38625W        W81678   3.706   2.264  19.778  0.1651  0.0851  0.2064
38626W        W81679  26.505  15.455  14.396 -0.5511  0.1176  0.0019
38627W        W81680  20.615  19.280  14.394 -0.1421 -0.1487  0.3061
38628W        W81681   3.654  29.445  17.132  0.0485 -0.1184 -0.1822
38629W        W81682   3.166   9.551  26.720 -0.0132 -0.0734 -0.0146
38630W        W81683   1.762  21.802  15.742  0.2206  0.0354  0.2764
38631W        W81684   7.799  29.468  14.700  0.2323  0.0708 -0.0283
38632W        W81685  33.882  10.131  26.346 -0.0024  0.0012  0.1085
38633W        W81686  30.830  17.828  19.829 -0.3117  0.3646  0.1832
38634W        W81687   9.261  17.487  20.894  0.0354 -0.0561  0.0650
38635W        W81688   6.247  23.961  17.017 -0.1256 -0.0344  0.1437
38636W        W81689   8.417   3.706   2.552 -0.0845  0.0399  0.1034
38637W        W81690  29.982  18.444  19.071  0.0732  0.1551 -0.2442
38638W        W81691   1.034   1.404  15.986  0.0462 -0.3428 -0.1303
38639W        W81692  15.419   5.769  27.609 -0.0804 -0.1443  0.1196
38640W        W81693  26.581  17.141  23.910 -0.0754 -0.0932  0.0736
38641W        W81694  11.665  21.282  19.310 -0.0363  0.0532 -0.0621
38642W        W81695  34.477  28.986  17.694  0.0199  0.0390 -0.2402
38643W        W81696  14.882   8.476  18.221 -0.0944 -0.0972 -0.0960
38644W        W81697  23.107   8.317  17.342  0.0016 -0.1835  0.2158
38645W        W81698  27.423   5.556  21.123  0.4091  0.2088 -0.0019
38646W        W81699  31.469   7.930  21.361 -0.0231  0.0217 -0.3490
38647W        W81700   0.418   7.099  14.162  0.0437  0.0846 -0.0516
38648W        W81701  29.249   9.103  18.241 -0.0568 -0.1683  0.2758
38649W        W81702  27.220   7.520  25.774  0.0801 -0.0930  0.0269
38650W        W81703  26.569  21.156   4.609  0.2450  0.0607  0.0405
38651W        W81704   1.541   7.506  19.733  0.4934 -0.2526 -0.1465
38652W        W81705   1.210   3.139  23.559 -0.0999 -0.2722 -0.2340
38653W        W81706  22.538  20.933  19.366  0.2734 -0.3899  0.0684
38654W        W81707   6.291   0.977  24.967  0.1320  0.2799  0.3561
38655W        W81708  13.049  13.927  16.022 -0.3620  0.0643  0.0671
38656W        W81709   4.867  26.703  21.588 -0.0541  0.3011 -0.5154
38657W        W81710  14.351   3.238  17.168  0.0354 -0.0504 -0.1317
38658W        W81711  32.630  12.621  17.571  0.1124 -0.2760  0.1921
38659W        W81712  10.505  32.799  15.712 -0.0195 -0.1091 -0.1766
38660W        W81713  18.928  30.917  23.377 -0.2748 -0.0587 -0.0159
38661W        W81714  28.878  25.374  25.970  0.1153  0.1973  0.0716
38662W        W81715  16.965   7.616  21.840 -0.1614  0.1693  0.1758
38663W        W81716  23.182  13.322  23.125 -0.0686  0.0711 -0.0025
38664W        W81717  28.984  15.116  27.240 -0.0707  0.3262  0.1537
38665W        W81718  30.323  17.487  17.474  0.3505 -0.1938  0.3377
38666W        W81719  31.213  20.258  13.881 -0.2137 -0.0965  0.1573
38667W        W81720  11.395  16.147  24.705 -0.3029 -0.1606 -0.2909
38668W        W81721  33.199  14.596  23.791  0.1408 -0.0319 -0.0799
38669W        W81722  14.375   7.859  22.127  0.0784 -0.0805 -0.0483
38670W        W81723   1.899   4.524  21.174 -0.0979 -0.1814  0.1088
38671W        W81724   5.214  24.652  18.344 -0.1057 -0.5333 -0.0760
38672W        W81725   0.415  27.475  13.309  0.0798 -0.1096  0.0750
38673W        W81726  25.781  16.678  17.557  0.2831  0.0858 -0.2549
38674W        W81727   1.358  14.793  20.145 -0.1655 -0.0814 -0.1077
38675W        W81728  13.947  22.722  20.696 -0.1046  0.2090  0.1667
38676W        W81729  33.226  24.729  15.462  0.0937  0.2105 -0.0188
38677W        W81730  31.484  24.720  22.518  0.1524  0.0936  0.1546
38678W        W81731  25.331  16.373  15.602  0.0600 -0.1723 -0.0983
38679W        W81732  23.162  32.328  20.816 -0.0847 -0.0618  0.1080
38680W        W81733   9.856  31.686  21.709 -0.3321 -0.2700 -0.0372
38681W        W81734  17.525  12.055  26.726 -0.0297 -0.0879 -0.2636
38682W        W81735   0.231  19.667  19.832 -0.1859 -0.2708 -0.3613
38683W        W81736  33.443  26.347  14.345  0.0864 -0.0503  0.0549
38684W        W81737  26.260  19.141  22.079  0.0554  0.3910  0.0982
38685W        W81738   3.106  28.308  25.051 -0.0947 -0.2208 -0.0577
38686W        W81739   6.158  11.914  14.811 -0.0787  0.1445  0.0876
38687W        W81740  31.017  19.850  20.272 -0.3252 -0.0516  0.0172
38688W        W81741   1.195  20.637  14.160 -0.0067  0.0194 -0.4170
38689W        W81742   4.113  26.190  21.466  0.0045  0.2544 -0.0200
38690W        W81743  31.100   4.134  16.595  0.1173  0.0670  0.1383
38691W        W81744  32.586  11.959  15.376 -0.0790  0.0815  0.1749
38692W        W81745  26.228   6.642  23.856  0.0178 -0.2132 -0.0043
38693W        W81746   8.920  11.806  21.693 -0.1041 -0.3811  0.1985
38694W        W81747  23.383  20.445  13.790 -0.0108 -0.0362  0.1990
38695W        W81748   2.238  19.140  19.142  0.3575  0.1446  0.3125
38696W        W81749   5.750  16.578  27.240  0.1742 -0.3428 -0.0695
38697W        W81750  29.998  30.409   4.663  0.1850 -0.0391 -0.2079
38698W        W81751  31.207   6.058  17.616 -0.0058  0.1719 -0.4096
38699W        W81752   6.231  12.683  19.375 -0.2387 -0.0725 -0.0403
38700W        W81753  28.189  32.918  17.751 -0.0243 -0.2142 -0.1112
38701W        W81754  11.349  17.478  18.211  0.0908 -0.0351  0.1272
38702W        W81755  28.368  21.812  23.501  0.3349 -0.1588 -0.2868
38703W        W81756  31.297  31.950  19.151  0.0578  0.0211 -0.0777
38704W        W81757  28.777   1.077  20.629  0.0016 -0.0984  0.1000
38705W        W81758  13.333  23.153  18.768  0.1646  0.0258 -0.0859
38706W        W81759  30.198  12.615  19.530 -0.1807 -0.0966  0.1231
38707W        W81760   0.744   3.962   4.986  0.2628 -0.0646 -0.3161
38708W        W81761  20.947   7.016  22.089  0.1746  0.1034  0.3204
38709W        W81762   2.563  14.643  28.710  0.1284  0.0361 -0.1549
38710W        W81763  28.846  22.565  19.455 -0.1876 -0.0071  0.0115
38711W        W81764  14.276  23.297   1.459 -0.0621  0.0590 -0.0698
38712W        W81765   8.523   7.815  26.770  0.1834  0.0483  0.1555
38713W        W81766   8.130   9.625  22.245  0.0749  0.0272  0.1421
38714W        W81767   1.985   3.200  18.305  0.1386  0.2634 -0.1493
38715W        W81768  28.402  25.909  17.120 -0.0105 -0.1145  0.0946
38716W        W81769  28.919  22.715  16.337  0.2860 -0.0284 -0.1347
38717W        W81770  29.067  24.088  18.291  0.3067  0.0587 -0.0894
38718W        W81771  30.755  28.842  14.152  0.2017  0.1833  0.0079
38719W        W81772   8.846  15.242  16.451 -0.4460  0.0791  0.0078
38720W        W81773   3.698  22.802  18.640 -0.1606  0.0744  0.0585
38721W        W81774  30.683  13.391  16.482 -0.0555 -0.0373  0.2751
38722W        W81775  33.783  27.697  12.501  0.1259  0.2461 -0.0198
38723W        W81776   3.290  30.832   2.065 -0.2765 -0.0802 -0.3100
38724W        W81777  15.747  21.764  21.895 -0.3180 -0.1034 -0.0321
38725W        W81778  26.279  13.497  26.561  0.0329  0.2769 -0.0814
38726W        W81779  21.076   0.370  19.851 -0.1460  0.1543 -0.1255
38727W        W81780  29.864  15.917   1.557  0.0297 -0.3513 -0.3239
38728W        W81781  33.765   7.045  16.934  0.0788  0.0991  0.1062
38729W        W81782  30.891  31.743  29.008  0.0888 -0.0327 -0.1248
38730W        W81783  18.869   5.516   1.787  0.0924  0.1272 -0.1098
38731W        W81784   6.975  28.593  19.688  0.2373 -0.0653 -0.0819
38732W        W81785  26.788  15.046  14.427 -0.1504 -0.0407  0.1098
38733W        W81786   0.625  31.491  13.444  0.1857  0.0844 -0.3837
38734W        W81787  33.627  16.361   2.800 -0.3275 -0.2596 -0.3804
38735W        W81788  29.612  23.617  20.694  0.1486 -0.4575 -0.2483
38736W        W81789  25.663  26.692  15.418  0.1129 -0.1233  0.1100
38737W        W81790  11.498  25.330  18.999 -0.1097 -0.1846  0.0116
38738W        W81791  26.274  30.785  18.243  0.0371  0.1706 -0.0673
38739W        W81792   5.183  16.556  23.983  0.0637 -0.0060 -0.2206
38740W        W81793   2.827  23.026  21.725 -0.2376  0.0686  0.0734
38741W        W81794  29.692  12.038  22.773  0.1138 -0.0932 -0.2702
38742W        W81795   6.096  27.648  16.027  0.0435 -0.2115  0.1282
38743W        W81796  24.294   8.794  17.884 -0.1819 -0.1278  0.1470
38744W        W81797  24.083   0.557  17.779  0.1166  0.3182 -0.0097
38745W        W81798  26.868  13.595  19.054 -0.2697  0.1662  0.3288
38746W        W81799  24.087  29.575  16.714 -0.1969  0.2034 -0.2062
38747W        W81800  32.914   9.309  20.639  0.3748 -0.1613 -0.1532
38748W        W81801   9.636  27.541  18.597 -0.2856 -0.0216  0.1422
38749W        W81802   1.656  15.026  16.865  0.0957  0.1664  0.0748
38750W        W81803  27.813  12.214  16.926 -0.1814  0.0226  0.0706
38751W        W81804  16.936  12.950  14.027  0.1321 -0.0456 -0.0961
38752W        W81805   1.318  22.119  22.221  0.1060 -0.2557 -0.0499
38753W        W81806  30.227  15.246  23.314 -0.1635 -0.1256 -0.0782
38754W        W81807  31.526  10.953  17.561  0.3065 -0.0318 -0.0955
38755W        W81808  22.915  24.519  16.598 -0.1863  0.0368  0.0957
38756W        W81809   0.393  21.387  23.762  0.0865 -0.1658  0.1269
38757W        W81810  14.090   7.479  16.945 -0.0545 -0.4437 -0.0006
38758W        W81811  31.511  18.093  13.739  0.1503  0.0146  0.0132
38759W        W81812  32.598  20.550  20.358 -0.0068  0.4219 -0.1287
38760W        W81813   8.533  21.266  14.726 -0.4087  0.1673 -0.3969
38761W        W81814  22.464  14.186  14.939 -0.2345 -0.0337 -0.2128
38762W        W81815  31.430   8.710   7.168 -0.3145  0.1488  0.2199
38763W        W81816  32.735   9.744   0.673  0.0716 -0.0377  0.1501
38764W        W81817  24.235  19.151  16.696 -0.3148  0.0675  0.1230
38765W        W81818  17.972  22.510  17.851 -0.1496 -0.0722 -0.0793
38766W        W81819  22.902  28.978  19.043  0.0124  0.2761 -0.3330
38767W        W81820  16.678  11.612  21.643  0.2130 -0.2973  0.1426
38768W        W81821   4.863  27.826   2.005 -0.1363 -0.0907 -0.1071
38769W        W81822  33.197  30.201  16.800  0.1863 -0.0331  0.2435
38770W        W81823   3.711   1.401  15.568  0.0013  0.0380  0.0312
38771W        W81824  12.717  23.803  14.843  0.0288  0.4267  0.0496
38772W        W81825  18.044   0.008  21.701  0.3431  0.0609  0.0394
38773W        W81826   6.410  20.726  16.011 -0.0351  0.2543  0.0851
38774W        W81827  33.857  21.716  19.639 -0.2460  0.0769 -0.0698
38775W        W81828  21.159  30.849  15.130 -0.1735  0.2188  0.1188
38776W        W81829  22.073  21.073  20.417 -0.0003 -0.0486 -0.0341
38777W        W81830   4.446  27.409  25.076 -0.2355  0.0050 -0.1303
38778W        W81831   2.665  20.529   1.198  0.4187 -0.2367  0.0432
38779W        W81832   5.665  22.964  20.187 -0.0758 -0.0656  0.3133
38780W        W81833   2.134   7.848  18.243 -0.1671 -0.0907 -0.0602
38781W        W81834  26.908   8.420  14.995  0.1935 -0.1003  0.2269
38782W        W81835  29.164  25.269  16.370 -0.0354 -0.1163 -0.2384
38783W        W81836  13.465   0.812   1.255 -0.1575 -0.3022  0.1974
38784W        W81837  19.739  28.781  20.568  0.1734 -0.1141  0.1446
38785W        W81838  11.158   7.180  26.534 -0.1497  0.1651  0.0476
38786W        W81839  27.254  12.092  23.425  0.1565 -0.0062 -0.3983
38787W        W81840  12.634  31.389  28.730  0.0294 -0.1871  0.1761
38788W        W81841  22.347  11.470  23.677  0.0313  0.0191 -0.1304
38789W        W81842  15.811  10.548  21.829 -0.1161 -0.0665  0.0936
38790W        W81843  34.636  19.672  14.903 -0.0830 -0.1903 -0.2874
38791W        W81844  12.035   5.256  10.216  0.0312 -0.2470  0.2990
38792W        W81845  22.823  14.808  20.064 -0.1366  0.0501 -0.1798
38793W        W81846   1.706  22.838  16.902  0.0408  0.1297 -0.2822
38794W        W81847  31.225   2.428  21.419 -0.1220  0.3027  0.0235
38795W        W81848   0.469  26.271  16.294  0.4367  0.3014  0.1697
38796W        W81849   5.548   9.223  18.168 -0.1213 -0.2820  0.0090
38797W        W81850  11.956   7.904   3.697  0.0863 -0.0144 -0.0041
38798W        W81851  31.272  16.194  24.657  0.0708 -0.1946  0.3230
38799W        W81852  28.984  31.733  23.833 -0.2406  0.1382  0.2630
38800W        W81853   7.927  24.593  25.456 -0.2440  0.1857  0.3870
38801W        W81854  15.770  24.142  22.105 -0.3189  0.1112  0.0890
38802W        W81855  29.580  18.907  19.109  0.2245  0.2093 -0.1656
38803W        W81856   2.412  32.116  19.592 -0.1406  0.2678  0.0690
38804W        W81857  30.803  26.013  23.229 -0.0149  0.0410 -0.0295
38805W        W81858  10.813  30.115  14.298  0.0711  0.0482 -0.1171
38806W        W81859  22.670  15.979  20.403 -0.4772 -0.1411  0.0495
38807W        W81860  34.428  17.028  19.677 -0.2981 -0.2828  0.2699
38808W        W81861   5.577   2.525  15.419  0.1815  0.3797 -0.1870
38809W        W81862  23.655   8.543  19.708  0.1583 -0.0829 -0.0440
38810W        W81863  30.556  33.670  13.444 -0.1729  0.3203 -0.0113
38811W        W81864  27.395  24.803  15.503  0.0117  0.0363 -0.1451
38812W        W81865  34.439  21.632  20.290  0.1050 -0.2984  0.2376
38813W        W81866   4.669  10.922  21.674 -0.2155  0.2390 -0.0231
38814W        W81867  27.652   3.998  19.601  0.1527 -0.0661  0.1001
38815W        W81868  31.423  22.155   5.415  0.1493  0.2513  0.3800
38816W        W81869  28.939  23.900  14.177  0.2348 -0.3026 -0.0108
38817W        W81870   0.252  24.223  22.943 -0.1433  0.0869 -0.0330
38818W        W81871   3.052  29.130  22.244  0.0109  0.1173  0.1494
38819W        W81872  32.348  20.348  21.440 -0.2854 -0.3150  0.1403
38820W        W81873  20.429   3.071  22.848  0.0613 -0.2000  0.0458
38821W        W81874  30.953  28.634  18.677  0.2463 -0.0214 -0.0085
38822W        W81875  23.954  28.104  22.146  0.1689 -0.2685  0.0144
38823W        W81876   9.993  30.785  16.875 -0.0972  0.4414  0.1251
38824W        W81877  33.664  34.000  17.334  0.1503 -0.0284 -0.0783
38825W        W81878  32.460  20.734  14.275  0.1541  0.0827 -0.2659
38826W        W81879   9.531  26.669  19.251  0.1633 -0.1607  0.2415
38827W        W81880   1.168  29.033   2.076 -0.0513  0.3352  0.3122
38828W        W81881   7.192  21.212  13.640  0.0517 -0.0635  0.1428
38829W        W81882  33.509  21.940  23.374  0.1054  0.0578 -0.2688
38830W        W81883   2.542  19.033  23.864 -0.0469 -0.2241 -0.0015
38831W        W81884  30.464  34.315  23.885 -0.1074 -0.1155  0.0176
38832W        W81885  21.064   0.766  16.842  0.0857 -0.2489  0.1843
38833W        W81886   2.538   3.033  17.602  0.1727 -0.1536  0.0903
38834W        W81887  27.334  17.066  22.029  0.1689  0.4670 -0.0833
38835W        W81888  16.017  26.144  15.102  0.1436 -0.0446 -0.1042
38836W        W81889   3.584  31.038  18.025 -0.2349 -0.1362 -0.0560
38837W        W81890  34.643   4.036  16.954 -0.0199 -0.3579  0.0783
38838W        W81891   9.325  14.684   5.012  0.1053  0.1430  0.1826
38839W        W81892  32.136  12.213   2.852 -0.0642 -0.1181  0.3247
38840W        W81893  10.756  17.171  19.762  0.4084  0.1748  0.2309
38841W        W81894  32.650  16.550  22.147 -0.1547  0.1470  0.0977
38842W        W81895  13.010  27.368  14.384 -0.0271  0.0559  0.3072
38843W        W81896  29.254   4.735  17.123 -0.1844  0.1517 -0.0256
38844W        W81897   6.207  28.769  13.984  0.1659 -0.0330  0.2396
38845W        W81898  22.760  20.973  13.810  0.1747  0.5086 -0.2194
38846W        W81899   7.496  21.425  13.318  0.0865 -0.1709  0.0326
38847W        W81900  31.296  29.066  15.458 -0.1133  0.2459  0.2532
38848W        W81901  34.634  21.077  19.979  0.0011 -0.0883  0.2565
38849W        W81902  30.481   0.572  25.424 -0.1198 -0.1557  0.0238
38850W        W81903   1.011  25.283  23.618  0.0665 -0.2512  0.0976
38851W        W81904   2.502  26.645  21.883  0.4458  0.2046  0.0667
38852W        W81905   1.515  26.784  24.357  0.2233 -0.0156  0.1339
38853W        W81906  13.664  10.518  23.828  0.0132 -0.1127  0.0388
38854W        W81907  28.032  28.595  28.457 -0.3197 -0.1617 -0.0434
38855W        W81908  30.133  19.625  19.543  0.1850 -0.1760 -0.1201
38856W        W81909   4.561  21.958   0.948 -0.1628 -0.0712 -0.2257
38857W        W81910  20.691   9.963  28.950 -0.1057  0.3433 -0.0364
38858W        W81911   2.726  21.783  18.324 -0.0121 -0.2019 -0.0709
38859W        W81912  25.924   6.562  20.183  0.1773  0.1495 -0.1345
38860W        W81913  32.777  20.103  15.763  0.2265 -0.3399  0.1733
38861W        W81914   9.401  24.252  23.430 -0.0732 -0.0709  0.2331
38862W        W81915   3.140  10.861  26.425  0.0122 -0.3395 -0.2978
38863W        W81916  33.135  10.024  21.006 -0.0919  0.0305  0.0657
38864W        W81917  33.438  16.093  18.455 -0.0072 -0.2567 -0.0499
38865W        W81918   0.796  16.806   3.464 -0.2362  0.0897 -0.3355
38866W        W81919  30.459   5.135  18.726 -0.0235  0.0933  0.1282
38867W        W81920  11.888  16.114  19.092 -0.3852  0.0102  0.1522
38868W        W81921  32.069  26.888  17.790 -0.2278 -0.0727  0.1806
38869W        W81922   2.297  27.146  20.712  0.1208  0.1875 -0.1897
38870W        W81923  28.771  14.624  25.205  0.0024  0.1749 -0.0899
38871W        W81924   5.519  12.188   8.337 -0.3172 -0.1279  0.1380
38872W        W81925   3.438  12.722  18.105 -0.0449  0.0885  0.0373
38873W        W81926  13.229  26.267  17.813 -0.0836 -0.0691  0.0264
38874W        W81927  24.177  34.088  19.002  0.2180  0.0867  0.3203
38875W        W81928   1.300  20.077  22.951  0.0254 -0.2581 -0.0689
38876W        W81929   0.413  20.867  24.850 -0.1863 -0.0883  0.0896
38877W        W81930   0.509  27.424  17.349  0.1383  0.1239 -0.3667
38878W        W81931  23.066  25.162  18.685 -0.1102  0.2761  0.4041
38879W        W81932  29.472   2.065  16.816 -0.2190  0.1363 -0.1533
38880W        W81933   1.333   2.375  15.277  0.0670  0.0886 -0.2013
38881W        W81934   2.884  28.636  22.282 -0.3226  0.0573 -0.2210
38882W        W81935  31.893  34.320  21.069  0.1201  0.4056  0.2405
38883W        W81936  27.267   9.609  24.295 -0.3680  0.1968 -0.1665
38884W        W81937  31.728  17.287  13.357 -0.1769  0.0355  0.0569
38885W        W81938   2.321  16.102  20.894  0.2656 -0.3343 -0.2592
38886W        W81939  26.017  13.452  25.616  0.1325 -0.0942  0.1198
38887W        W81940  34.611  23.134  22.794  0.2040 -0.0709 -0.0500
38888W        W81941   4.513  11.457  18.508 -0.2885 -0.3491 -0.3024
38889W        W81942   0.466  14.550  18.654 -0.3464 -0.1790  0.0720
38890W        W81943  25.656  11.112  15.519 -0.1471  0.0479  0.1236
38891W        W81944   3.097  15.999  21.519  0.0259 -0.2153 -0.1897
38892W        W81945  13.684  18.405  14.531  0.3183 -0.3030  0.0793
38893W        W81946  10.435  25.059  16.779  0.4567 -0.2200  0.1215
38894W        W81947  33.729   9.748  23.971  0.0614  0.0164  0.1393
38895W        W81948  29.885  34.174  19.316  0.1973 -0.0274  0.1256
38896W        W81949  27.848  32.698  18.353 -0.1624  0.3315 -0.1728
38897W        W81950  30.000   9.611  16.348 -0.1002 -0.2424  0.3210
38898W        W81951  15.425  10.519  18.473  0.0534 -0.2071 -0.2488
38899W        W81952  33.087  23.327  27.080  0.2525 -0.1709 -0.0643
38900W        W81953  29.319   4.903  15.505  0.1665 -0.1647 -0.0016
38901W        W81954   2.321  14.470  26.344  0.0736 -0.0006  0.0590
38902W        W81955  16.521  22.675   3.652 -0.1075 -0.1145 -0.1423
38903W        W81956   7.560  27.323  17.122 -0.0365 -0.5903  0.2787
38904W        W81957  19.791  31.969  16.637 -0.4499 -0.5313 -0.1724
38905W        W81958  29.951  25.834  19.177  0.1580 -0.2534 -0.0580
38906W        W81959   0.530   6.738  16.722  0.1354  0.2723  0.2499
38907W        W81960  29.575  28.482  18.854 -0.1844 -0.3087  0.2862
38908W        W81961  30.082  28.796  15.227 -0.2980  0.2156 -0.1296
38909W        W81962   2.245   2.589  14.000  0.1021  0.1672  0.1741
38910W        W81963  26.091  11.814  19.121 -0.0816  0.0202  0.0453
38911W        W81964  13.352   8.841  26.736  0.4048  0.0390 -0.1746
38912W        W81965  32.599  13.122  26.232  0.0768 -0.1161  0.2980
38913W        W81966   8.575  29.277  18.877 -0.0178  0.1035  0.3047
38914W        W81967  26.256  25.067  17.302 -0.2010 -0.4765  0.2010
38915W        W81968  13.976  12.593  17.053 -0.0596  0.3981 -0.3681
38916W        W81969  17.573  25.469  24.512 -0.6505  0.1645 -0.2594
38917W        W81970   6.048  27.960  12.870 -0.0953  0.0629  0.0525
38918W        W81971   8.028  21.982  24.977  0.3286 -0.1269 -0.0685
38919W        W81972   5.848  15.893  16.545 -0.1194  0.3115 -0.2221
38920W        W81973   8.396  16.774  19.351  0.0148  0.1543  0.3666
38921W        W81974  23.855  33.941  21.977 -0.4303  0.0615  0.1981
38922W        W81975  21.744  26.895  21.124 -0.1305 -0.0736 -0.1320
38923W        W81976   4.598   8.592  20.956 -0.1082 -0.3407 -0.1816
38924W        W81977  24.935   4.479   5.104 -0.1940 -0.2537 -0.3351
38925W        W81978  16.894   2.051  27.303 -0.0928 -0.2586  0.1485
38926W        W81979  28.665   8.886  21.972 -0.2100 -0.1362  0.2586
38927W        W81980  21.292  12.464  19.520  0.0301 -0.1685 -0.0764
38928W        W81981   9.666  24.490  12.971 -0.0154 -0.3634  0.1757
38929W        W81982  28.963  27.495  14.851  0.4086 -0.0688  0.0194
38930W        W81983  11.485   3.315  19.110 -0.0588 -0.2184 -0.1976
38931W        W81984  23.757  16.485  16.118 -0.0523  0.0965  0.0528
38932W        W81985  25.976  30.305  18.132  0.0802  0.0761 -0.1856
38933W        W81986  11.172  16.412  13.876  0.2177 -0.1284  0.2964
38934W        W81987  10.560   3.006  25.656 -0.2444  0.2583 -0.1570
38935W        W81988  24.710  16.934  18.444  0.1579 -0.0844 -0.2524
38936W        W81989   6.796  18.265  18.294 -0.1620  0.0113  0.0439
38937W        W81990  28.040  22.682  16.002 -0.0705 -0.1065 -0.3499
38938W        W81991  29.141  19.688  24.933 -0.1802 -0.0162  0.0624
38939W        W81992  27.185  21.538  28.338  0.1215 -0.0302 -0.3526
38940W        W81993   1.660  27.891  15.031 -0.0245  0.0107 -0.1531
38941W        W81994  24.618  12.755  26.882 -0.1468 -0.0763 -0.2077
38942W        W81995   5.721   0.010  19.806  0.1999  0.3354  0.4783
38943W        W81996  24.092  34.015  23.499 -0.1484 -0.3179 -0.1854
38944W        W81997  34.629  10.490  25.069  0.0095  0.0285 -0.0419
38945W        W81998   1.931  22.767  15.847 -0.4278 -0.0387 -0.0422
38946W        W81999   4.208  25.690   5.871 -0.1057  0.0168 -0.1385
38947W        W82000   2.238  13.647  22.650 -0.1001 -0.1283  0.2898
38948W        W82001  26.366  19.190  26.595  0.0598 -0.0689  0.0856
38949W        W82002  20.495  22.461  13.994 -0.1424 -0.3983 -0.1888
38950W        W82003   0.456  10.870  16.440 -0.1636 -0.0439 -0.2862
38951W        W82004  25.764  10.266  14.915  0.0165  0.1452  0.0218
38952W        W82005  16.147  26.117   7.122  0.1706  0.1012 -0.0485
38953W        W82006  16.021  21.950  16.305  0.1902  0.2875 -0.0316
38954W        W82007   4.046  24.567  19.683  0.2847 -0.0841 -0.2027
38955W        W82008  14.478  16.801  24.028  0.0799  0.0757  0.0052
38956W        W82009   5.003  29.670   1.928  0.0406 -0.0762  0.2211
38957W        W82010  19.409  20.765  22.147 -0.1810 -0.0786  0.0126
38958W        W82011  27.420   8.979  21.857  0.0217  0.1348 -0.1815
38959W        W82012  12.136  24.048  28.469  0.1577 -0.2454  0.1200
38960W        W82013  31.418  12.506  14.446  0.2052  0.1772  0.0091
38961W        W82014  34.502  26.582  20.179  0.1994  0.3996  0.0512
38962W        W82015   8.029  25.837  20.633  0.3026 -0.4024  0.0831
38963W        W82016  24.587  33.032  23.112  0.0704  0.3064  0.1646
38964W        W82017  34.271   9.318  19.268  0.0058  0.1697 -0.1470
38965W        W82018  26.812   7.744  19.511 -0.0688 -0.1685  0.1621
38966W        W82019   0.829   1.902  23.748  0.2102  0.1406  0.3240
38967W        W82020  34.478  21.634  25.642  0.2339  0.0218 -0.0824
38968W        W82021   2.407  27.317  19.847  0.2424 -0.2596 -0.1990
38969W        W82022  21.040  25.487  15.056  0.0450 -0.2077  0.0856
38970W        W82023  24.129  16.522  17.691 -0.0962  0.0915 -0.0864
38971W        W82024  31.827  14.468  19.017 -0.1069 -0.0283  0.1815
38972W        W82025  28.365  18.369  22.044 -0.3085 -0.0187 -0.2133
38973W        W82026   4.062  11.236  17.040  0.2073  0.0282  0.0366
38974W        W82027  26.496   2.349   2.825  0.0569 -0.0991  0.2953
38975W        W82028  15.575  30.177  14.183 -0.2014  0.1391  0.0596
38976W        W82029  22.599  12.455   3.234  0.0306  0.0565  0.0906
38977W        W82030  31.928  25.847  20.995 -0.0226 -0.1814 -0.2277
38978W        W82031  31.490   9.901   1.097  0.0495  0.2558  0.2070
38979W        W82032  29.356   8.899  27.359  0.0477 -0.1844 -0.0151
38980W        W82033  28.787  19.787  27.055 -0.3458 -0.0188  0.0281
38981W        W82034  28.172  15.493  25.639  0.0698 -0.1199 -0.1351
38982W        W82035  30.590  24.767  15.757  0.3444  0.1556 -0.0959
38983W        W82036  32.037  19.305  26.368 -0.1041 -0.0108  0.2345
38984W        W82037  24.586  18.140  18.828 -0.1239 -0.0141  0.1809
38985W        W82038  32.481  10.705  22.740 -0.0676  0.0534 -0.1195
38986W        W82039  32.423   6.270   5.145  0.0806 -0.0499  0.0413
38987W        W82040  16.861  30.079  16.665  0.4845  0.0920  0.3019
38988W        W82041   3.708  30.104  18.032 -0.0657  0.2656 -0.2857
38989W        W82042  24.496  31.921  26.424  0.0265 -0.1138 -0.0096
38990W        W82043  12.381  23.397  23.622  0.2005 -0.0826  0.0427
38991W        W82044  28.997   0.194  19.386 -0.0796 -0.3550  0.1225
38992W        W82045  12.445  18.720  19.548 -0.1909 -0.2638  0.2718
38993W        W82046  31.709  23.030  16.316 -0.1264  0.0470  0.2895
38994W        W82047  28.274  31.341  18.423  0.2047 -0.0241 -0.0578
38995W        W82048  10.782   7.599  21.783 -0.3413 -0.1283 -0.0023
38996W        W82049  31.279   2.318  20.098  0.2859 -0.1933  0.1880
38997W        W82050   4.720  26.119   7.220 -0.0365  0.1631  0.4694
38998W        W82051  30.422  27.910  27.490  0.1137 -0.0723  0.0562
38999W        W82052   2.679  20.958  23.988  0.1000 -0.0387 -0.0385
39000W        W82053  27.229  20.492  14.767 -0.2131 -0.2133 -0.0643
39001W        W82054  23.886  24.457  15.103  0.3348  0.0332  0.0026
39002W        W82055  26.025  20.442  14.032 -0.2356 -0.1608 -0.2701
39003W        W82056  28.404  31.284  19.530 -0.1891 -0.2360  0.0722
39004W        W82057   5.875  20.855  26.272 -0.1076  0.0456 -0.5672
39005W        W82058   2.276   4.702  19.923 -0.3075  0.0602 -0.2051
39006W        W82059  14.630   4.375  25.806 -0.1609  0.1043  0.0719
39007W        W82060   4.902  34.629   2.471 -0.2786  0.0644 -0.0738
39008W        W82061  32.391  15.863  14.464  0.1873  0.0662 -0.0429
39009W        W82062  24.322  24.118  15.128 -0.5454 -0.1337 -0.0726
39010W        W82063  28.589  20.829  15.013 -0.2400 -0.2103  0.1620
39011W        W82064  11.322   7.285  15.901  0.2640  0.0185 -0.0202
39012W        W82065  10.203  25.830  26.026  0.1838  0.1548 -0.1181
39013W        W82066  24.477  13.050  14.063  0.4474  0.1208 -0.1738
39014W        W82067   9.388  23.244  21.418  0.5163  0.2059 -0.3477
39015W        W82068  22.205  17.811  26.614 -0.1103 -0.1813  0.0227
39016W        W82069  30.626  20.883  19.673  0.3261 -0.0199  0.4596
39017W        W82070  32.582  19.511   6.308  0.3430 -0.1297 -0.1742
39018W        W82071  34.348   6.850  21.061 -0.0034  0.3816 -0.0296
39019W        W82072   0.485   3.494  22.567 -0.2522  0.0311  0.3046
39020W        W82073  19.888  25.442  22.977  0.0262  0.3094 -0.1989
39021W        W82074   6.634  10.127   6.954 -0.2111  0.1293 -0.1433
39022W        W82075  12.721   3.966  25.824 -0.0804  0.1944  0.0390
39023W        W82076  19.238  16.175  13.115  0.2725 -0.0226 -0.3944
39024W        W82077  31.365  18.325  15.130  0.1679  0.0042  0.0361
39025W        W82078  22.857  16.052  15.860  0.0533 -0.0546 -0.1131
39026W        W82079  25.211   2.397  29.072  0.0976  0.0626 -0.0387
39027W        W82080  34.052  29.352  15.423  0.2325  0.1833  0.2822
39028W        W82081  10.282   9.623   8.926  0.0079  0.1529 -0.0845
39029W        W82082   3.278   1.530  13.258  0.0418  0.2390  0.0672
39030W        W82083  34.492  24.842  26.626  0.1533 -0.1480 -0.1177
39031W        W82084  33.573  29.413  13.505  0.1508  0.0094  0.1511
39032W        W82085  27.131  18.428  17.398  0.0826  0.1615 -0.3111
39033W        W82086   3.446  28.123  14.550 -0.1429  0.1841 -0.1128
39034W        W82087  34.596   1.056  19.576 -0.2417  0.0978 -0.3070
39035W        W82088  20.427  21.708  22.525 -0.1455 -0.0572 -0.1570
39036W        W82089  23.315  14.146  20.199  0.1470 -0.3328  0.2429
39037W        W82090   2.452   6.451  28.686  0.2981  0.1221  0.0092
39038W        W82091  30.134   8.910  19.862  0.1463  0.0851 -0.2032
39039W        W82092   1.908  10.324   8.205 -0.0052 -0.0497 -0.0653
39040W        W82093   0.454  18.707  23.807 -0.1711 -0.0074  0.0783
39041W        W82094  31.120  19.374  25.548 -0.0216 -0.1637 -0.2166
39042W        W82095  32.904  16.182  17.214 -0.0475  0.0146 -0.1788
39043W        W82096  31.951  29.192  17.273 -0.1164  0.1341  0.1923
39044W        W82097  30.937  22.870  20.532 -0.2542  0.0977  0.2120
39045W        W82098  22.002   8.257  16.112 -0.1003  0.0026  0.3018
39046W        W82099   5.708  23.198  15.958  0.1616 -0.1725 -0.0971
39047W        W82100  32.528  20.884  16.951  0.1400  0.0438  0.2195
39048W        W82101   0.719  24.857  19.128  0.4360  0.0876 -0.2573
39049W        W82102   2.346  20.321   1.593 -0.1507  0.3881 -0.1415
39050W        W82103  23.566   4.294  26.679 -0.0669 -0.0201 -0.0947
39051W        W82104  11.939  15.235  19.247  0.1471 -0.0344  0.0005
39052W        W82105   4.797  19.538   4.284  0.1017  0.2113  0.0622
39053W        W82106   3.399  21.981  18.874  0.1667  0.4795 -0.0291
39054W        W82107  28.734  33.387  24.294  0.1354  0.1322  0.2385
39055W        W82108   9.341  29.625  23.537 -0.1025 -0.0266 -0.0571
39056W        W82109  25.595  22.763  18.360 -0.0680  0.0043  0.0363
39057W        W82110  32.118   3.692  15.771 -0.3150  0.1344  0.2622
39058W        W82111   1.113  25.972  13.335  0.2437  0.2314  0.0999
39059W        W82112  34.239  11.384  18.765  0.0158 -0.0424 -0.0517
39060W        W82113  26.613  22.525  25.032  0.1383 -0.3283  0.0990
39061W        W82114  12.156  20.985   3.915  0.1389  0.0772 -0.1550
39062W        W82115  21.539   3.224  20.230 -0.2372 -0.0661 -0.1157
39063W        W82116  10.006  26.708  20.199  0.0116 -0.0185  0.3595
39064W        W82117  27.194  25.350  14.564  0.0200 -0.1844  0.1811
39065W        W82118  27.516  25.180  22.388 -0.1864  0.2561 -0.4158
39066W        W82119  21.862   0.219  15.216  0.1321 -0.2406  0.0026
39067W        W82120  32.898  18.868  23.626  0.0590 -0.2656  0.4746
39068W        W82121  20.485  22.614   0.786  0.4295  0.1436  0.1733
39069W        W82122  28.710  29.150  15.417 -0.0428 -0.1620 -0.2034
39070W        W82123  17.527  16.565  14.733  0.2407 -0.1818 -0.0432
39071W        W82124  32.652  15.055  19.644  0.2228  0.0611 -0.0225
39072W        W82125  25.497  22.458  16.885 -0.4214 -0.0724 -0.1452
39073W        W82126   3.757   4.410  20.986  0.0330 -0.3918 -0.0908
39074W        W82127   0.305  16.601   2.530 -0.4383  0.2578 -0.2042
39075W        W82128  31.214  18.779   6.275 -0.0171  0.0719  0.0699
39076W        W82129   4.468  24.193  16.423  0.0898 -0.0129  0.0015
39077W        W82130   5.506  17.806  25.794 -0.1036 -0.0200  0.1719
39078W        W82131   7.440  32.879   1.592 -0.0600  0.1496  0.2258
39079W        W82132  11.689  33.534  16.770 -0.0179  0.1946 -0.1693
39080W        W82133  31.855  25.187  20.577 -0.4914 -0.1129 -0.1074
39081W        W82134   9.084  33.444  24.435 -0.0391 -0.0410 -0.0292
39082W        W82135  19.822  13.361  27.466 -0.0695 -0.0966 -0.0478
39083W        W82136  32.317  22.224  27.788 -0.3162  0.0320 -0.3252
39084W        W82137   1.198  15.408  19.010  0.0609 -0.1246  0.1333
39085W        W82138   8.564   0.475  15.186  0.1760  0.1076 -0.2859
39086W        W82139   0.567   4.293  14.417 -0.1328 -0.2942  0.2341
39087W        W82140   3.834  24.732   6.782  0.3709 -0.1603 -0.2661
39088W        W82141  28.893   4.552   8.270  0.0178 -0.2747  0.1006
39089W        W82142  15.183  25.990  17.397  0.0434  0.4926  0.1045
39090W        W82143  25.192   4.708  15.798 -0.3115 -0.3125  0.1235
39091W        W82144   4.773  17.727  21.532  0.3058  0.0409 -0.1061
39092W        W82145  20.076  23.047  21.390  0.1236  0.0358 -0.1502
39093W        W82146  32.896  25.943  15.156  0.1042  0.0929 -0.0018
39094W        W82147  17.466   3.377   0.393 -0.1939 -0.3913  0.1817
39095W        W82148   4.086   2.813  19.598  0.2587 -0.1525 -0.0158
39096W        W82149  24.416   5.098  22.025  0.2400  0.2505  0.0614
39097W        W82150   4.996  27.668  20.045 -0.0891  0.1506  0.0826
39098W        W82151   5.672  34.224  21.148  0.1553 -0.4012 -0.2436
39099W        W82152  24.426  16.772  15.795  0.1437  0.0175 -0.1228
39100W        W82153  28.055  25.701  24.786 -0.1857  0.1647  0.1895
39101W        W82154   6.678  30.166   0.074  0.0108 -0.1386  0.2118
39102W        W82155  34.260  24.373   1.924  0.1473  0.0723 -0.1388
39103W        W82156  30.620  29.174  24.728 -0.2266 -0.1019  0.0944
39104W        W82157  24.833  20.555  19.273  0.3491  0.0254  0.2916
39105W        W82158  11.457  31.820  16.775 -0.0172 -0.2317 -0.2515
39106W        W82159  13.781  15.437  24.524 -0.1411  0.1247 -0.0154
39107W        W82160  23.263   0.104  27.465 -0.2501  0.1814 -0.2073
39108W        W82161  13.076  21.304  17.918 -0.1822  0.1703 -0.0447
39109W        W82162  18.155   5.598  25.792 -0.0327  0.0829 -0.0183
39110W        W82163   8.717  17.567  14.312 -0.0134 -0.1359  0.0592
39111W        W82164  33.990  22.895  20.170  0.0968 -0.0154  0.2408
39112W        W82165  31.457  32.539  26.379 -0.0817 -0.2062  0.2266
39113W        W82166  30.510  25.632  13.742  0.3022  0.3472  0.0610
39114W        W82167   0.856  13.250  19.524 -0.2098  0.0804 -0.0629
39115W        W82168  25.876  24.933  22.325  0.0335  0.2830 -0.0073
39116W        W82169  28.961  16.132  21.570 -0.1353 -0.1769  0.4176
39117W        W82170   4.100  11.420  26.543 -0.2546 -0.1886  0.1784
39118W        W82171  29.733  28.062  21.760  0.0887  0.1190  0.1013
39119W        W82172  22.905  24.640  28.886  0.0583 -0.0864  0.0171
39120W        W82173  15.641  19.853  15.244 -0.2697 -0.2558  0.2565
39121W        W82174  30.143   7.225  15.597 -0.1233  0.1405 -0.1809
39122W        W82175  31.222  22.066  15.684 -0.1750 -0.0486 -0.1802
39123W        W82176  23.044  31.272   2.975  0.0652 -0.0647 -0.1901
39124W        W82177  23.649  26.369  22.507 -0.1253  0.1838 -0.0178
39125W        W82178  32.520  28.524  13.535  0.0037  0.1358  0.0830
39126W        W82179  24.781  13.248  24.123 -0.0156 -0.2624  0.1244
39127W        W82180  31.483  22.455  18.862 -0.1078 -0.0789  0.1121
39128W        W82181  11.795  18.275   4.187  0.3624 -0.1976  0.2780
39129W        W82182   9.399  24.934  24.874 -0.0148  0.1421 -0.1002
39130W        W82183   6.635  15.392  15.340 -0.0371 -0.1602 -0.2648
39131W        W82184  34.362  17.288  13.916 -0.1261  0.0717 -0.1210
39132W        W82185  25.505  16.618   1.822  0.2666  0.0471 -0.1585
39133W        W82186   0.795  18.219  16.241  0.1853  0.0567 -0.2928
39134W        W82187   3.243  30.082  23.977  0.1378 -0.3245 -0.0538
39135W        W82188  28.127   4.205   6.744  0.3469  0.0953  0.3433
39136W        W82189   6.804  34.001  18.453 -0.0413  0.1658  0.1155
39137W        W82190   8.437  18.060  20.714 -0.2088 -0.2850 -0.0168
39138W        W82191  22.294  11.756  18.286 -0.3758  0.1137  0.1742
39139W        W82192  22.075  24.456  22.877 -0.2017  0.1929 -0.0371
39140W        W82193   4.765  24.416  26.214  0.3109  0.0832 -0.1915
39141W        W82194   2.667  22.514  21.556 -0.1832  0.0793 -0.0462
39142W        W82195   3.013  15.537  14.256  0.0105  0.1781  0.4177
39143W        W82196   9.503   2.315  16.461  0.0652  0.2328  0.2245
39144W        W82197  21.229  12.266   4.535  0.1801 -0.0140 -0.0315
39145W        W82198  14.811   7.553  16.138  0.2638  0.0232 -0.1349
39146W        W82199   1.109  27.215  28.856 -0.1952  0.0337  0.0110
39147W        W82200  27.587   9.191  15.836 -0.1403 -0.1254 -0.2833
39148W        W82201  34.616  29.695  20.363 -0.1659 -0.0653 -0.0439
39149W        W82202  28.937   8.335  23.318  0.1574  0.1700  0.2448
39150W        W82203   7.574  19.984  24.391  0.4103 -0.2459  0.0014
39151W        W82204   5.408  21.554  14.774 -0.0823  0.2742 -0.0997
39152W        W82205  20.645  29.074  14.265  0.2747 -0.1592  0.2030
39153W        W82206   9.867   8.362   1.148 -0.1159  0.1301  0.1113
39154W        W82207  10.609   7.506   9.115 -0.1662  0.0052  0.0229
39155W        W82208  28.710   5.134   1.096 -0.2219 -0.2030 -0.1589
39156W        W82209  32.381  19.776  17.651 -0.0964 -0.0045 -0.0927
39157W        W82210  29.067   2.496  19.100 -0.0037  0.0860 -0.2878
39158W        W82211  25.564   1.599  18.847  0.1633  0.1421  0.2188
39159W        W82212   6.131  12.597  14.675 -0.0345 -0.2004  0.0945
39160W        W82213   2.648  14.829  17.578 -0.0076 -0.2562  0.1263
39161W        W82214  30.721  11.048  18.426  0.2871 -0.1003  0.0095
39162W        W82215   4.739  28.848  18.800 -0.1342 -0.3645 -0.1648
39163W        W82216   8.202   5.378   0.497  0.2476 -0.0435  0.0412
39164W        W82217   8.450  24.843  24.846 -0.0011  0.2844  0.0777
39165W        W82218  29.901  17.843  19.151 -0.1043 -0.0951 -0.3095
39166W        W82219  33.778  33.338  19.546  0.0735  0.1142 -0.1380
39167W        W82220  23.428  23.160  14.866 -0.0359  0.5402  0.1692
39168W        W82221  30.434   0.258  22.500 -0.0825 -0.0833 -0.0572
39169W        W82222   7.491   0.180  18.093  0.0497  0.2938 -0.2333
39170W        W82223  23.156  13.944  21.697 -0.0523  0.1843  0.0785
39171W        W82224   7.216  16.181  19.221  0.3966 -0.1596 -0.0749
39172W        W82225  13.137  34.183  27.913  0.1300  0.1522 -0.0226
39173W        W82226  33.157  11.856  17.881 -0.3104  0.0213 -0.2295
39174W        W82227  25.730  16.308  21.567  0.0480  0.2501 -0.2241
39175W        W82228  29.328  18.596  22.930  0.0247 -0.0901  0.0871
39176W        W82229   1.716  20.021  27.247  0.1036  0.3748 -0.0256
39177W        W82230  29.787  10.453  18.758  0.1204  0.1770 -0.1945
39178W        W82231  29.731  26.051  17.957 -0.2853 -0.2528  0.1168
39179W        W82232  15.739  22.602  16.782  0.0190  0.2510 -0.2645
39180W        W82233  29.316  12.854   1.641 -0.1259  0.1964 -0.0283
39181W        W82234  31.910  13.245  28.054  0.4773 -0.1353 -0.1427
39182W        W82235  15.508  26.848   9.116  0.1630 -0.1335  0.1874
39183W        W82236  34.041  32.352   0.364  0.0361  0.1649 -0.0486
39184W        W82237   6.180  15.150   0.784  0.1697  0.2095 -0.0835
39185W        W82238  26.759   6.357   0.919  0.0571 -0.0417 -0.2251
39186W        W82239  26.433  16.088  27.032 -0.0131 -0.1445  0.0313
39187W        W82240  20.091   2.585   5.133  0.0643 -0.1981  0.0393
39188W        W82241  23.458  26.895  18.789 -0.3118 -0.0016 -0.1533
39189W        W82242  18.072   3.695  18.558  0.0730  0.0540 -0.1351
39190W        W82243  34.594   2.156  26.204 -0.1865  0.0246  0.3399
39191W        W82244  24.179   0.030   9.350 -0.1723 -0.0486  0.2352
39192W        W82245  10.802  30.637  15.593 -0.1747  0.1992  0.1265
39193W        W82246   7.604  20.439  14.533 -0.2427 -0.0610  0.2698
39194W        W82247  32.343   2.868  19.449 -0.2892  0.1679  0.1945
39195W        W82248   2.869  20.770  25.152 -0.0952 -0.1692 -0.1026
39196W        W82249  20.751  15.436   0.667  0.2424  0.0660 -0.2286
39197W        W82250  20.306   1.993  15.146  0.3149 -0.0029  0.1307
39198W        W82251   5.427  26.397  25.505 -0.1587  0.0242  0.4599
39199W        W82252   4.587  19.157  23.733 -0.3537  0.2915  0.0692
39200W        W82253  26.295  17.714  16.203 -0.1108 -0.0025  0.1207
39201W        W82254  24.900  15.014  23.880  0.3639  0.2439 -0.1651
39202W        W82255  21.549  30.476  23.888 -0.2484 -0.1864  0.2573
39203W        W82256   7.954  32.646  25.474  0.1108  0.2253  0.1858
39204W        W82257   8.155  16.884  23.245  0.0233 -0.2140  0.3596
39205W        W82258  22.492  22.041  15.520 -0.1114 -0.1869 -0.0370
39206W        W82259  26.732  31.512  21.039  0.0139  0.0438 -0.1513
39207W        W82260   5.812   3.530  20.749 -0.1185  0.1005 -0.0477
39208W        W82261   1.547  22.620  19.435 -0.1295 -0.0448  0.1359
39209W        W82262  31.131  21.288  16.934  0.2307  0.3215  0.0288
39210W        W82263  17.722  13.594  14.987  0.1894  0.0784 -0.0662
39211W        W82264   3.354   0.055   3.540 -0.0394 -0.7617  0.0338
39212W        W82265   4.864  19.715  20.065  0.0339 -0.0303  0.3438
39213W        W82266   3.295  34.228  15.734 -0.2511  0.3562 -0.1682
39214W        W82267   2.561   0.125  26.515  0.2099  0.1312  0.0234
39215W        W82268  32.121  10.414  22.579  0.0176  0.1710 -0.0133
39216W        W82269  31.529  28.987  19.985  0.2215 -0.0373  0.0491
39217W        W82270  16.482  18.550  13.905  0.0505 -0.1040  0.1316
39218W        W82271  24.229  24.806  16.723 -0.0534  0.2337 -0.1865
39219W        W82272  17.337  25.267  16.900 -0.0788  0.1305  0.0509
39220W        W82273  11.686  15.927  18.140  0.2392  0.0954 -0.0112
39221W        W82274  27.659  24.594  17.134 -0.0181 -0.1402 -0.1399
39222W        W82275  30.198  29.294   1.903 -0.1940  0.2942  0.1729
39223W        W82276   1.250  17.475  17.846  0.3805 -0.2618 -0.1058
39224W        W82277  27.713  13.987  20.089 -0.1574  0.1453 -0.4970
39225W        W82278  31.661   8.506  22.880 -0.0207  0.0468 -0.0266
39226W        W82279  23.664   2.075  23.618  0.2619  0.3651  0.0887
39227W        W82280  30.669  25.568  25.930  0.1294  0.2581 -0.3296
39228W        W82281  30.949  19.812   3.849  0.0381  0.0218 -0.3315
39229W        W82282  22.803  18.883  17.664  0.3104  0.0819 -0.2969
39230W        W82283  30.643   6.871   4.316  0.1899  0.2056 -0.0592
39231W        W82284  10.493   3.821  18.132 -0.0999  0.1686 -0.0678
39232W        W82285  19.256  27.589  17.981  0.0837  0.0635 -0.2441
39233W        W82286   7.225  13.479  20.805 -0.2172 -0.0158  0.2658
39234W        W82287  19.297   8.034  17.129  0.1356 -0.0464 -0.1071
39235W        W82288  10.903  25.419  25.347 -0.0582 -0.0157 -0.0931
39236W        W82289   7.615  25.403  19.370  0.2840  0.2399 -0.4007
39237W        W82290  27.390  32.504  21.696  0.0608  0.0335  0.0581
39238W        W82291  21.314  23.716  21.204  0.0237 -0.0787 -0.0515
39239W        W82292  14.629  28.319  21.925  0.4838 -0.0051 -0.0407
39240W        W82293   2.941  21.277  22.205  0.1248  0.2165  0.0195
39241W        W82294  23.908   8.340  25.672 -0.0452 -0.1536 -0.2261
39242W        W82295  33.207  16.901  18.982  0.0516 -0.3647 -0.1596
39243W        W82296   5.211   3.386  26.668 -0.4529 -0.2890  0.0471
39244W        W82297   0.453  21.485  23.246  0.3400  0.0528  0.1436
39245W        W82298   2.590  11.740  24.155  0.0131  0.1469 -0.0086
39246W        W82299   1.365   7.592  15.418  0.0176 -0.2911  0.0220
39247W        W82300   7.671  34.039  18.712  0.0545 -0.0537 -0.0883
39248W        W82301  25.879   8.994  22.238 -0.4738 -0.1952  0.2363
39249W        W82302  31.470  11.928  24.160 -0.2606 -0.1604  0.4996
39250W        W82303  33.279  31.644  27.945 -0.2185 -0.1855  0.2158
39251W        W82304   2.908  17.622  28.197  0.2866  0.0210 -0.1331
39252W        W82305   5.177  23.643  21.521 -0.2389 -0.2533 -0.2187
39253W        W82306  26.881  20.947  16.799 -0.4604  0.3037  0.0168
39254W        W82307  11.805  30.158  19.446 -0.2663 -0.2556 -0.1350
39255W        W82308  13.001  23.087  27.827  0.1141 -0.2175  0.2819
39256W        W82309  21.237   6.866  14.332 -0.0538 -0.2533 -0.0543
39257W        W82310  27.478  32.859  21.291  0.0207  0.0030  0.1061
39258W        W82311  29.296  20.201  23.667  0.4350 -0.0147 -0.0879
39259W        W82312   8.402  12.439   1.626 -0.1565 -0.1755  0.1946
39260W        W82313  33.305  15.724   1.672 -0.3281 -0.5436 -0.1543
39261W        W82314  32.963  18.442  14.306 -0.2026 -0.1964  0.0927
39262W        W82315   9.803   6.497  22.244  0.3753 -0.1541 -0.0240
39263W        W82316  22.139  14.674  27.194 -0.1592  0.4117  0.0048
39264W        W82317  28.998   0.352  24.678 -0.5359 -0.4824  0.0397
39265W        W82318  27.534  25.027  16.836 -0.1054  0.2669 -0.1837
39266W        W82319  16.854  27.578  21.838 -0.1569 -0.2618  0.0985
39267W        W82320  28.425  12.859  23.533 -0.1452  0.1301  0.1676
39268W        W82321   3.622  28.699  21.293 -0.0963  0.4178  0.0429
39269W        W82322  25.777  13.718  17.419 -0.0714 -0.1826 -0.2264
39270W        W82323  22.575  32.924  22.155 -0.1147 -0.0994  0.1610
39271W        W82324  23.821  23.555  18.886  0.1685  0.0276 -0.2154
39272W        W82325  12.403   4.181  24.947  0.1932 -0.1826  0.1021
39273W        W82326   1.230   5.011   7.885 -0.1948  0.0106  0.1165
39274W        W82327  30.669  27.324  22.437 -0.4018  0.1276 -0.2298
39275W        W82328   7.717  19.250  26.499  0.0669 -0.2462 -0.2211
39276W        W82329   1.994  13.294  14.888  0.2025 -0.1432 -0.1619
39277W        W82330  32.378  25.135  15.439 -0.1675  0.1931 -0.3419
39278W        W82331  27.810  25.580  17.427  0.0151  0.0696  0.1354
39279W        W82332   5.621  26.427   6.989  0.0924  0.2082 -0.0761
39280W        W82333  25.375  16.656  28.613  0.2451  0.2115 -0.3073
39281W        W82334  29.300  17.306  15.009 -0.3716  0.2761  0.0741
39282W        W82335  29.863   2.279   6.190  0.0320  0.1272  0.0412
39283W        W82336  30.588  22.254  25.397 -0.1564  0.0349 -0.2662
39284W        W82337   6.329  15.443  22.385 -0.5001  0.0713  0.4460
39285W        W82338   1.272  13.317  24.917 -0.0000  0.0321 -0.2389
39286W        W82339  27.732  30.960  22.447 -0.2421  0.2019 -0.3153
39287W        W82340   7.695  22.050  15.580  0.4102 -0.0850  0.1363
39288W        W82341   6.735  12.359   1.566 -0.0856 -0.0829 -0.5246
39289W        W82342  33.528  20.546  19.920 -0.3063  0.0290 -0.0201
39290W        W82343   4.752  11.389  20.887  0.4663  0.1532 -0.0513
39291W        W82344  14.717  34.457  23.826  0.3499 -0.2050 -0.0357
39292W        W82345   1.670  17.907  13.561  0.0652 -0.0200  0.0909
39293W        W82346   1.353  14.300  16.881  0.1611 -0.1637  0.2936
39294W        W82347  19.004  13.590  13.093 -0.1647 -0.0610  0.0389
39295W        W82348  30.378   3.599   3.644  0.2243  0.0142 -0.0403
39296W        W82349  17.612  32.006  18.043  0.1550  0.1281 -0.3089
39297W        W82350  10.479  23.166  22.569 -0.0028 -0.0535  0.3390
39298W        W82351  34.597  26.568  13.449 -0.0181 -0.2609 -0.2625
39299W        W82352  18.146  22.056  15.266  0.2868  0.1525  0.1963
39300W        W82353  24.595   1.255  21.741  0.1831 -0.0273  0.1344
39301W        W82354  34.073  28.296  15.998  0.0741  0.0001  0.0255
39302W        W82355   9.655  20.150  18.385 -0.2077  0.0484 -0.2592
39303W        W82356  24.891  29.038  17.004 -0.1497 -0.0833 -0.3933
39304W        W82357  29.168  24.767  14.584  0.2193  0.1082  0.0968
39305W        W82358   5.460   6.034  16.343 -0.2313  0.1156  0.1222
39306W        W82359  28.723  23.989  15.385 -0.2590  0.2929 -0.1995
39307W        W82360  16.472   0.216  27.437 -0.1813 -0.3505 -0.0352
39308W        W82361   6.349  16.960  21.494  0.4693  0.0602  0.4981
39309W        W82362  18.603  21.972  20.638 -0.0183 -0.1760 -0.1748
39310W        W82363  22.570   0.178   2.477  0.3335 -0.2182 -0.0594
39311W        W82364   0.161  20.099  14.640  0.0583 -0.1988  0.4814
39312W        W82365  27.502  11.148  22.734  0.4250  0.0258  0.1741
39313W        W82366  21.704   7.307  29.164 -0.0668 -0.3920 -0.2081
39314W        W82367   1.402  28.744  24.939  0.1450 -0.2169 -0.1126
39315W        W82368  19.279  15.028  24.708  0.4615 -0.3469 -0.0220
39316W        W82369   1.827  20.032  18.375  0.1854 -0.0057  0.0208
39317W        W82370  16.997  26.811  16.657  0.0990  0.1325 -0.0169
39318W        W82371   0.083  21.340  28.788 -0.0380 -0.1641  0.0468
39319W        W82372  34.068  14.909  22.350  0.0747  0.4008  0.3946
39320W        W82373  32.464  33.310  18.425  0.0934  0.0144 -0.3913
39321W        W82374  33.337  31.890  22.754 -0.3527  0.0304  0.1647
39322W        W82375  15.055  24.256   6.263 -0.0112 -0.1328 -0.2785
39323W        W82376   4.601  28.747   3.642 -0.1682 -0.0025  0.0672
39324W        W82377   6.794  21.592  20.889  0.0984 -0.4650  0.3690
39325W        W82378  12.642   7.611  26.151 -0.2011 -0.3206  0.0564
39326W        W82379   5.063   3.575  13.870  0.2189 -0.1969 -0.1075
39327W        W82380   7.271  17.344  25.436 -0.0442  0.2290  0.0998
39328W        W82381  28.838   4.803   3.177 -0.1306 -0.1123  0.2700
39329W        W82382  21.887   6.906   5.090 -0.2086  0.2107  0.3251
39330W        W82383   6.658  27.990  16.735  0.3398  0.1997  0.1477
39331W        W82384  28.353   3.205  24.074  0.0023 -0.0421  0.0077
39332W        W82385   7.848  22.245  25.473  0.0181  0.1417 -0.1606
39333W        W82386  26.799   0.494   7.175 -0.0441  0.1395 -0.0789
39334W        W82387  22.177  24.850  22.563 -0.0623 -0.4079  0.0045
39335W        W82388  22.496   7.577  24.646 -0.0781  0.2386  0.0865
39336W        W82389   0.743  17.521  23.915 -0.0616 -0.0978  0.1946
39337W        W82390  29.163  20.888  13.313 -0.3125  0.0238  0.0647
39338W        W82391  26.360  14.695  10.094  0.1177 -0.2064 -0.1152
39339W        W82392  15.137  23.900   4.169  0.2235  0.0028  0.0729
39340W        W82393  12.858  13.581  15.199  0.0289  0.1472 -0.0496
39341W        W82394   1.752  23.931  28.204  0.0495 -0.1844 -0.1453
39342W        W82395  27.793  21.519  20.130  0.2723 -0.2104 -0.0132
39343W        W82396   0.093  19.271  16.970 -0.0684 -0.0677 -0.0908
39344W        W82397  33.119  29.924  22.309  0.2205 -0.1912 -0.0877
39345W        W82398  20.943  24.527  18.927  0.0254 -0.0245 -0.1196
39346W        W82399   1.665  33.249  20.275  0.1562  0.1702  0.0465
39347W        W82400   2.408  16.432  14.973 -0.1011  0.0235 -0.0557
39348W        W82401  34.425  11.923  15.934 -0.0695  0.0012  0.0930
39349W        W82402  22.012  29.294  14.320  0.1626  0.0334  0.0562
39350W        W82403   8.481   4.417   4.235 -0.1436  0.3844  0.2923
39351W        W82404  26.573  24.357  29.184 -0.1915 -0.2924  0.3122
39352W        W82405  33.131  27.622  26.647 -0.0339  0.1978 -0.1632
39353W        W82406  30.915  13.528  18.053 -0.1570  0.1791  0.3175
39354W        W82407   6.579  28.740  28.605  0.4056  0.0538 -0.1236
39355W        W82408   3.994  28.165  24.248 -0.1880  0.0235 -0.0381
39356W        W82409   8.486  31.281   0.306  0.1216  0.1768  0.0580
39357W        W82410  18.559  17.895  14.980 -0.0689 -0.3204  0.5579
39358W        W82411  33.319  20.371  20.660  0.3593  0.1953  0.0081
39359W        W82412  27.517  19.105   0.320 -0.2076 -0.0092 -0.0561
39360W        W82413  33.172   1.265  18.282  0.1362 -0.2530  0.1514
39361W        W82414  13.953  13.317  21.559  0.0591 -0.1175 -0.0815
39362W        W82415   1.481  22.962  26.254 -0.1527  0.0470  0.1561
39363W        W82416  15.922   3.759  21.843  0.1170  0.1717 -0.0249
39364W        W82417  24.283  15.323  14.959 -0.1136 -0.2993  0.1735
39365W        W82418   0.681  17.774  27.576  0.3642  0.0402  0.0265
39366W        W82419   1.410   5.462  17.305 -0.1039 -0.0040  0.2081
39367W        W82420  28.827  22.320  19.888  0.0459  0.4250  0.0552
39368W        W82421  32.777  23.672  21.568  0.2046 -0.0652 -0.2085
39369W        W82422   3.517  12.752   7.386  0.1024  0.0562 -0.1325
39370W        W82423   3.352  32.019   0.653 -0.2375  0.1245 -0.0321
39371W        W82424  32.532   6.532  20.259  0.0270 -0.0480 -0.0045
39372W        W82425  20.452  33.572  18.213  0.0470 -0.0978  0.0490
39373W        W82426  32.278  10.940  18.186  0.2148 -0.0402 -0.1154
39374W        W82427   1.830   0.584  26.536  0.0020 -0.2517 -0.0355
39375W        W82428  26.255  22.546  24.713  0.2301 -0.0450 -0.2448
39376W        W82429  23.153  19.278   0.964  0.1541  0.1242  0.0457
39377W        W82430   2.305  31.708  14.956  0.1764  0.2480  0.2134
39378W        W82431  16.372  12.322  24.868  0.1478 -0.0574  0.0235
39379W        W82432  34.373  20.567  24.161  0.0325 -0.2205  0.0089
39380W        W82433  30.431  13.573  17.528 -0.1342 -0.2799 -0.0560
39381W        W82434   9.810   0.947  22.609 -0.1274 -0.1251 -0.0102
39382W        W82435  27.350  18.935  15.767  0.0451  0.2746  0.0139
39383W        W82436  23.400  25.444  14.902 -0.0982  0.2412  0.0743
39384W        W82437  12.922   2.921  25.245  0.1884 -0.4190  0.3271
39385W        W82438  29.778  13.920   0.251  0.0125 -0.0256  0.2266
39386W        W82439  22.764   9.156  28.510  0.3184 -0.0162  0.0294
39387W        W82440  25.603  24.962  23.246  0.1481 -0.1168  0.1113
39388W        W82441  24.279  11.000  24.140  0.0338 -0.2450 -0.1103
39389W        W82442  21.515  19.596  20.834 -0.1100  0.1356  0.0592
39390W        W82443  13.751  16.218  15.894 -0.3025 -0.1716  0.1089
39391W        W82444   8.737  12.059  20.747  0.2381  0.2659  0.1418
39392W        W82445   0.120  20.071   0.271 -0.0569 -0.1416 -0.0051
39393W        W82446  11.427   3.234  17.601  0.1254  0.2276  0.2780
39394W        W82447  33.170  34.591  17.154 -0.1510  0.3456  0.0353
39395W        W82448  33.815   2.455  25.694  0.2043  0.2227 -0.2622
39396W        W82449  27.833   9.807   8.793  0.0351 -0.1498 -0.0427
39397W        W82450   2.197   7.820  13.405 -0.1189 -0.0366 -0.0072
39398W        W82451  23.116  14.790   1.929  0.2057  0.1670 -0.1406
39399W        W82452  20.309  24.779  22.296  0.0023 -0.0200  0.0082
39400W        W82453  15.106  24.318  17.498 -0.0287 -0.1948  0.1685
39401W        W82454   1.544   1.885  15.262  0.1881  0.3208 -0.0828
39402W        W82455  11.402  19.469   5.547 -0.4559 -0.0042  0.0603
39403W        W82456  30.789  17.489  20.316  0.1863 -0.1891 -0.1789
39404W        W82457   1.897  17.470  28.303  0.1186  0.0515 -0.1367
39405W        W82458  30.193  25.338  21.249 -0.1094  0.0314  0.2387
39406W        W82459  23.891  16.451  19.076 -0.0051 -0.3936  0.0876
39407W        W82460  26.728  27.587  25.423 -0.1923 -0.1099 -0.1284
39408W        W82461  33.075  15.318   3.703 -0.0478 -0.0345 -0.2543
39409W        W82462  28.021  16.358  27.761 -0.1146  0.1847  0.1566
39410W        W82463  26.147  17.743   4.537  0.0053 -0.0984  0.0942
39411W        W82464  34.506  28.500  22.141  0.1741  0.3632  0.2736
39412W        W82465  26.254  10.425  27.314 -0.1298  0.4375  0.0316
39413W        W82466  34.116  25.391  19.547  0.1125  0.2421  0.3921
39414W        W82467   9.297  24.067  20.955 -0.0192  0.3678  0.0199
39415W        W82468  30.539  22.504  19.047 -0.2150 -0.2201  0.2376
39416W        W82469  32.560  23.093  16.526 -0.2437  0.0339 -0.2454
39417W        W82470  32.561  24.721  28.473 -0.2903 -0.4916 -0.0488
39418W        W82471  28.969  13.329  19.370  0.2119  0.0631  0.0166
39419W        W82472  22.787  16.842  21.355 -0.2609 -0.0928 -0.1227
39420W        W82473   0.528  23.771  26.714 -0.1357  0.0750  0.0134
39421W        W82474  16.219  25.515  23.805  0.0953 -0.1418 -0.0599
39422W        W82475  31.225  20.734   2.432  0.1600 -0.0766  0.0311
39423W        W82476  29.885  18.462  23.805  0.1456  0.0908 -0.4406
39424W        W82477  23.259  31.263  16.127 -0.3516 -0.1149  0.2279
39425W        W82478  25.902   8.405  19.427 -0.0117  0.2800 -0.0266
39426W        W82479   7.216  28.465  16.018 -0.0554 -0.0771  0.0755
39427W        W82480  30.550  19.785  15.884  0.1746 -0.1517  0.1985
39428W        W82481   2.876  32.348  28.833 -0.1258  0.0391 -0.1155
39429W        W82482  33.884  21.435  24.857 -0.1174  0.1259 -0.1197
39430W        W82483   1.612  27.146  21.346  0.4667  0.1642 -0.0215
39431W        W82484   9.859  28.035   3.220 -0.4048 -0.0213 -0.0342
39432W        W82485  30.934  22.835  15.881  0.3053  0.1905  0.2663
39433W        W82486   8.706  23.344  25.452 -0.3453  0.2343 -0.1203
39434W        W82487  25.701  16.901  18.589 -0.1101 -0.2830 -0.1687
39435W        W82488  32.586  18.415   5.073 -0.2122 -0.1166  0.0664
39436W        W82489  15.662  25.164   4.322  0.0304  0.2065 -0.1853
39437W        W82490  27.701  15.106  22.022 -0.3053 -0.1828  0.1174
39438W        W82491  21.107   1.818   2.858 -0.1463  0.1161 -0.0420
39439W        W82492   6.656  21.229  17.535  0.3199  0.0566 -0.2710
39440W        W82493  34.374  19.790  13.992 -0.2527  0.2379 -0.1744
39441W        W82494  20.130   0.498  22.401  0.0145  0.3127 -0.2792
39442W        W82495  32.825  13.742  22.066 -0.2950  0.1154  0.3131
39443W        W82496  15.119   4.354   2.621 -0.0737  0.0150  0.2200
39444W        W82497  29.589  12.144  20.457  0.0047  0.2621 -0.1210
39445W        W82498  27.775  18.276  19.820  0.3674 -0.4828  0.1243
39446W        W82499  24.145  29.338  24.466  0.0230 -0.1800 -0.5110
39447W        W82500  31.319  20.088   9.347  0.0720 -0.0608 -0.2804
39448W        W82501  25.012  19.967  15.637 -0.3422  0.0577  0.2805
39449W        W82502  28.606  27.012  18.374  0.0031 -0.0185 -0.1265
39450W        W82503  33.577  13.454  20.293 -0.0635  0.0871  0.0439
39451W        W82504   5.987  11.810   3.412 -0.2294 -0.1252  0.2204
39452W        W82505  15.398  20.276   1.539  0.2063  0.0353 -0.1017
39453W        W82506  28.838   3.052   6.055 -0.2815 -0.0756  0.2323
39454W        W82507  27.674  16.798  22.704 -0.1455  0.1509 -0.0652
39455W        W82508   3.868  24.113  23.466 -0.1982 -0.2790 -0.0469
39456W        W82509  13.818  33.898  18.451  0.0781 -0.0007 -0.0573
39457W        W82510   2.916  23.533   8.577  0.0921 -0.0487  0.0771
39458W        W82511   7.458  31.901   0.602  0.1471  0.3315 -0.1604
39459W        W82512   2.254   6.929  23.885  0.1156  0.0003  0.0830
39460W        W82513  19.395   0.897  24.648  0.1661  0.3078 -0.2259
39461W        W82514  20.730  33.143  22.345 -0.0273  0.1419 -0.0640
39462W        W82515  26.276  26.018  22.314  0.0177 -0.1915 -0.2415
39463W        W82516  29.144   7.981  26.289 -0.0846  0.3833 -0.0651
39464W        W82517  27.887  28.066  24.893 -0.0508  0.0776 -0.0146
39465W        W82518  21.204  15.216   0.712 -0.1813  0.2627  0.1659
39466W        W82519  23.004  16.461   4.312  0.0415  0.0087  0.0767
39467W        W82520  21.820  15.465   9.028 -0.2782  0.0150 -0.3035
39468W        W82521  12.975  19.352  16.478 -0.2608 -0.1662 -0.1091
39469W        W82522  34.258  27.875  22.177  0.0408 -0.0916  0.1390
39470W        W82523  34.075  33.853  19.566 -0.2979  0.2416  0.0749
39471W        W82524  29.587  26.403  15.945  0.1403  0.2272 -0.0060
39472W        W82525   0.191  30.070  17.440 -0.0532  0.0956  0.0847
39473W        W82526  20.707  32.833  26.862 -0.1896 -0.1024  0.1217
39474W        W82527  29.496   4.678  28.294  0.2863 -0.2269 -0.1520
39475W        W82528  11.109  25.108  18.784 -0.0311 -0.1593  0.1284
39476W        W82529  33.756  22.194  18.454  0.1720  0.1210 -0.0139
39477W        W82530   2.320  33.562  16.219 -0.0837  0.1093 -0.0991
39478W        W82531   0.009  20.299   4.277 -0.1739  0.1897 -0.0383
39479W        W82532  27.390  19.438  14.513  0.0355  0.0737 -0.3104
39480W        W82533  25.702  33.536  22.796  0.0103 -0.1236  0.1785
39481W        W82534  32.089  18.735   6.564  0.0276 -0.3245 -0.0283
39482W        W82535   8.045  28.837  13.727  0.2707  0.2221 -0.3881
39483W        W82536  16.230  27.736  17.304  0.0316 -0.0849 -0.2891
39484W        W82537  33.518  17.168  14.475  0.0732 -0.3228  0.0740
39485W        W82538  22.081  16.756  17.606 -0.0557  0.1254  0.1158
39486W        W82539   7.423  14.772   3.314  0.1981 -0.0225  0.2097
39487W        W82540  17.977   8.804  16.494 -0.0229 -0.0169  0.0840
39488W        W82541  32.431  17.975  27.535 -0.0135 -0.0760  0.0305
39489W        W82542  32.543  27.961  20.179  0.0235 -0.1482  0.5468
39490W        W82543   9.361  18.907  20.357 -0.1608 -0.1045  0.1376
39491W        W82544  31.286  16.241  15.488 -0.0025  0.1717 -0.0761
39492W        W82545  31.757  19.966  25.464  0.2000  0.2334  0.0010
39493W        W82546  18.384  26.292  25.785 -0.2443 -0.0202  0.0322
39494W        W82547   2.793  24.455  17.418  0.2547 -0.0321 -0.1274
39495W        W82548  12.408  19.193   1.767 -0.0768  0.0266  0.0721
39496W        W82549   4.666  29.270  17.528  0.0970 -0.0429 -0.2021
39497W        W82550   4.953  28.794  17.063 -0.3104 -0.0379 -0.0620
39498W        W82551  11.769   7.340   0.584  0.0848 -0.1975 -0.0094
39499W        W82552   5.559  25.580  17.320  0.1017  0.1193 -0.0241
39500W        W82553  33.020  12.130   2.844 -0.2362 -0.1957  0.0516
39501W        W82554   0.317  31.516   3.337  0.0355  0.0013  0.0328
39502W        W82555   0.122   6.341  19.929  0.0160  0.2230 -0.1734
39503W        W82556  30.849  17.428  26.532  0.1560 -0.0041  0.1078
39504W        W82557  31.924  18.235  25.637  0.0725  0.5768 -0.1458
39505W        W82558  33.422  25.862  17.510  0.1088  0.0548  0.1777
39506W        W82559  32.669  13.053   2.335  0.1291  0.2127  0.1178
39507W        W82560  32.711  17.035  20.980  0.0366  0.0736  0.1047
39508W        W82561  16.470   1.049  28.003 -0.1728 -0.1467 -0.2677
39509W        W82562  26.519   3.892  20.134  0.2851 -0.1304  0.1945
39510W        W82563  19.538  31.541  19.310 -0.2599 -0.2056  0.1760
39511W        W82564  21.322  22.324  21.754 -0.1396 -0.0310  0.2148
39512W        W82565   8.851  10.056   2.857  0.0567 -0.0062 -0.2218
39513W        W82566  28.455  22.300  21.304  0.3325  0.1536  0.0902
39514W        W82567  27.468   9.851   0.491  0.4010 -0.0446  0.1244
39515W        W82568   7.852  25.841  15.106 -0.0783  0.1437  0.1619
39516W        W82569   6.446  32.613  23.634  0.2055  0.2688 -0.2507
39517W        W82570  17.841  11.058  19.882 -0.0906 -0.2194 -0.4438
39518W        W82571   1.742   6.024   7.120 -0.0963  0.0001  0.0841
39519W        W82572  27.583  16.614  22.123  0.2306 -0.0268 -0.2430
39520W        W82573  15.689  14.738  21.414  0.0504  0.3645 -0.4081
39521W        W82574  32.217   0.549  20.865  0.1559 -0.5416 -0.2939
39522W        W82575   4.543  13.897   5.893  0.1833 -0.0335 -0.2345
39523W        W82576  17.697  34.056  22.647 -0.1308  0.0933  0.0272
39524W        W82577   5.674  30.267  26.610  0.0634  0.0610 -0.0473
39525W        W82578   3.378  18.167  20.742  0.0001 -0.0044 -0.0703
39526W        W82579  28.831  21.181   3.926 -0.1062 -0.3272 -0.3911
39527W        W82580  29.323  21.146  17.610  0.0337 -0.2244  0.4594
39528W        W82581  25.300  11.569  29.018  0.1236 -0.1932  0.1105
39529W        W82582  24.221  14.379  20.503 -0.1961 -0.1945 -0.2477
39530W        W82583  32.288   6.065   0.452  0.0862 -0.1862  0.2110
39531W        W82584   8.733  10.929  21.111  0.1795 -0.0031 -0.1481
39532W        W82585  24.917  26.263   5.639  0.0350  0.3912 -0.2765
39533W        W82586  27.695  16.528   1.712 -0.0585  0.3109  0.0141
39534W        W82587  19.337  15.070  22.677 -0.2168 -0.0739 -0.2278
39535W        W82588  27.539   1.960  20.042  0.0760 -0.0787 -0.1394
39536W        W82589  23.957  22.009  28.438 -0.0153  0.1702 -0.0706
39537W        W82590  26.581  24.613  14.957 -0.0166 -0.2620 -0.3623
39538W        W82591   4.293  32.288   8.147 -0.3292  0.4571  0.1235
39539W        W82592  24.799   9.049   0.363  0.1333 -0.3532 -0.3689
39540W        W82593   0.105  21.537  15.470  0.1485 -0.1286  0.2096
39541W        W82594  22.527   7.997   3.626  0.1245  0.1274  0.2111
39542W        W82595  28.877  11.434  27.241  0.0680  0.3501 -0.0208
39543W        W82596   3.624  28.045  13.731  0.0735  0.0153  0.0523
39544W        W82597   3.870  17.239  25.615 -0.1958 -0.1754  0.1691
39545W        W82598  24.051  22.281   9.002 -0.0508 -0.2982 -0.3371
39546W        W82599  30.687  30.291   1.300 -0.1022  0.1390  0.2120
39547W        W82600  22.098  19.580  23.121 -0.0109  0.0152  0.0574
39548W        W82601  32.488  28.493  16.604  0.3967 -0.2665 -0.1910
39549W        W82602   9.005  13.656   4.216 -0.5498  0.2877  0.3028
39550W        W82603   1.109   2.282   5.831 -0.1767 -0.1367  0.0955
39551W        W82604  30.024  34.336   1.524  0.3025 -0.1917 -0.2018
39552W        W82605  18.769  16.575  10.049  0.4306  0.2053 -0.1257
39553W        W82606   1.811  32.851   1.944  0.2152  0.1816  0.0785
39554W        W82607   3.513  29.795  17.535 -0.0051 -0.1736 -0.4833
39555W        W82608  31.807   6.267  18.607  0.3868 -0.1348 -0.0836
39556W        W82609  18.151   7.504  21.963 -0.0489  0.1154 -0.0546
39557W        W82610  30.263  16.686  18.061  0.3350  0.0767 -0.0872
39558W        W82611  29.597   9.823  26.640  0.2204  0.3263 -0.3327
39559W        W82612  28.864   2.323  14.840 -0.1512 -0.1340 -0.1264
39560W        W82613  24.760  17.785  15.218  0.2019 -0.0432 -0.1856
39561W        W82614  13.176   0.889  19.771 -0.1195  0.1612 -0.0425
39562W        W82615  31.443  29.183  18.047 -0.0892 -0.0787 -0.0161
39563W        W82616  20.093  23.884  14.833  0.2076  0.2861  0.1734
39564W        W82617  21.394  12.520  27.241 -0.2425 -0.4524  0.1344
39565W        W82618  20.941  19.602   9.536  0.0795 -0.1976  0.0757
39566W        W82619   6.799  24.419  22.104 -0.1036 -0.5004 -0.1364
39567W        W82620  32.752  13.072  17.963  0.2111 -0.3637 -0.0195
39568W        W82621  28.578  31.237  24.198  0.0595 -0.2236  0.1560
39569W        W82622  21.293  12.548  24.431 -0.0657 -0.1381  0.1251
39570W        W82623  32.198  28.074   2.360 -0.1100  0.0949  0.0267
39571W        W82624  31.130   5.012  15.196  0.1636 -0.2326  0.0592
39572W        W82625  11.615  25.463  21.588 -0.1477  0.2547 -0.1246
39573W        W82626  26.136  31.674  23.204 -0.0210  0.2155 -0.1106
39574W        W82627  22.470  11.030  24.022 -0.1396 -0.1280  0.2195
39575W        W82628   3.695  17.374  18.066  0.4680 -0.4957  0.1130
39576W        W82629   1.558  23.192  18.209 -0.2169 -0.2523  0.0229
39577W        W82630  24.467  14.106  27.661  0.3790  0.0249 -0.0700
39578W        W82631   2.547  18.750   5.112 -0.1209  0.0524 -0.1094
39579W        W82632  19.930  15.669  23.650  0.2005 -0.0463  0.2180
39580W        W82633   3.177  22.692   8.450  0.0196 -0.0234 -0.0081
39581W        W82634   7.141   7.299  16.457  0.0606 -0.1277 -0.0363
39582W        W82635  26.337  24.555  16.348 -0.2263 -0.2568  0.0285
39583W        W82636   2.892  24.795  23.975 -0.2710 -0.0123  0.0058
39584W        W82637  10.576  33.161  20.290  0.1498 -0.1346 -0.0952
39585W        W82638  21.667  22.609  16.155  0.0744  0.1125 -0.2042
39586W        W82639  21.893  26.222  14.213  0.1000  0.0044 -0.1556
39587W        W82640  34.344   2.326  14.121  0.2150  0.1184 -0.1106
39588W        W82641  32.120  25.360  21.611 -0.0920 -0.4443  0.1378
39589W        W82642  11.415  21.472   0.038 -0.0983 -0.0773 -0.0675
39590W        W82643   3.173  28.223   7.269  0.2498  0.0043  0.0385
39591W        W82644   6.452  19.225  16.664 -0.1225  0.2557  0.1047
39592W        W82645   2.692  13.692   2.561  0.3533  0.0451 -0.0634
39593W        W82646   1.339  17.795  18.289 -0.1381 -0.1025  0.1340
39594W        W82647  24.149  19.959  23.273  0.2085 -0.0388 -0.2893
39595W        W82648   0.826  15.834  18.356  0.5020 -0.2181  0.1396
39596W        W82649  32.953   6.004  28.052  0.1195  0.3655 -0.0500
39597W        W82650  32.860   1.177  25.720  0.0204 -0.0825  0.0389
39598W        W82651  14.725  10.633  25.482  0.1365  0.0572  0.0290
39599W        W82652  25.890  32.325   1.225  0.0941  0.0848 -0.2256
39600W        W82653  26.528  29.932  22.438 -0.3599 -0.2492 -0.1607
39601W        W82654  32.210  25.111  28.586 -0.1570 -0.0960  0.0838
39602W        W82655  23.105   1.762  24.807 -0.0968  0.1656  0.0031
39603W        W82656  22.437  12.557  21.755  0.1894  0.1100  0.0562
39604W        W82657  29.936  15.912  26.377 -0.0047  0.1397  0.0064
39605W        W82658  27.358   1.568   9.947  0.0346  0.2178  0.0387
39606W        W82659  28.136  26.519  27.312 -0.4353 -0.2034  0.0478
39607W        W82660   1.416  26.331  22.630  0.1495 -0.1139  0.0583
39608W        W82661  10.215   1.822  21.430  0.0876 -0.1309 -0.0443
39609W        W82662  31.332  25.739  13.571  0.0797 -0.3332 -0.2731
39610W        W82663   4.238  16.097  26.082  0.3396  0.2207  0.0389
39611W        W82664  24.241  20.867   3.037  0.0297  0.0124  0.1747
39612W        W82665   1.179  30.129  20.545  0.1982 -0.0254  0.2691
39613W        W82666  14.263  29.303  15.427 -0.1236  0.5175 -0.0658
39614W        W82667  25.407  30.362  19.107 -0.0093 -0.1344 -0.0344
39615W        W82668   9.458  21.691   7.953  0.2026  0.1329 -0.1553
39616W        W82669   9.338  32.890  26.368 -0.3262 -0.3323  0.0497
39617W        W82670  32.651  28.802   2.381 -0.0225  0.0560  0.0803
39618W        W82671  30.784   7.203  22.422 -0.1388  0.1018  0.2909
39619W        W82672   4.111  12.790  27.429  0.2109 -0.2511  0.1309
39620W        W82673  12.981  25.662   4.497  0.0687 -0.1348  0.1513
39621W        W82674  19.553  24.873  19.451 -0.0730 -0.2899 -0.0931
39622W        W82675  34.445  16.925  14.345 -0.0143  0.0252 -0.0059
39623W        W82676   1.187  22.441  21.176 -0.0596  0.1749 -0.1204
39624W        W82677  20.003  27.710  22.162 -0.2384 -0.3718 -0.2030
39625W        W82678  26.421  24.898  20.277  0.0164  0.0405  0.1967
39626W        W82679  29.453  12.350   8.434  0.1865  0.0168  0.1606
39627W        W82680  19.078  23.284  21.137 -0.1465  0.3906 -0.3285
39628W        W82681  24.970   2.469  25.858 -0.1738 -0.1276  0.1331
39629W        W82682  30.044  34.309  17.242 -0.2045 -0.1002  0.3222
39630W        W82683  27.276  14.886  14.241  0.1753 -0.1043 -0.2634
39631W        W82684   5.912   1.812   4.625  0.0695 -0.0702 -0.1497
39632W        W82685   4.546  26.760  26.436  0.1514  0.1001  0.2338
39633W        W82686   5.642   7.243   5.460 -0.1351 -0.0935  0.0220
39634W        W82687  23.200  16.512  27.211  0.2257  0.2223  0.1028
39635W        W82688  15.660  21.859   2.655 -0.1150  0.3342  0.3067
39636W        W82689  18.855  17.762  24.624 -0.0604  0.0277 -0.1267
39637W        W82690  18.502  21.642   7.377 -0.2464 -0.1126 -0.3733
39638W        W82691  34.520  15.070  16.814  0.3060  0.2417 -0.2326
39639W        W82692  31.698   9.699  16.185  0.2561  0.0241  0.2136
39640W        W82693  24.011  17.835  27.606 -0.2259  0.2050  0.0663
39641W        W82694  25.673  25.719  19.089  0.2227 -0.1468 -0.0060
39642W        W82695  22.778  20.707  18.002  0.0425  0.2195 -0.0556
39643W        W82696  22.758  32.929  19.806  0.0447  0.1170  0.1988
39644W        W82697  26.928  17.305   1.989  0.2785 -0.0997  0.0054
39645W        W82698   4.438  24.140  22.693 -0.2658 -0.0233 -0.0065
39646W        W82699  23.205  29.134  14.615  0.2623 -0.2098 -0.1054
39647W        W82700  29.194   2.405   4.446 -0.0058  0.0501 -0.1589
39648W        W82701  26.554  31.103  13.989 -0.2659 -0.2035 -0.2411
39649W        W82702  25.929  28.354  18.954 -0.0661  0.1266  0.0260
39650W        W82703  31.797  11.306  24.951 -0.1496  0.0110 -0.1528
39651W        W82704  19.038  24.526  22.413 -0.0029 -0.0714 -0.2580
39652W        W82705  32.781  25.234  23.547  0.0515  0.1773  0.1563
39653W        W82706   9.139  18.898   7.732 -0.0813  0.0325 -0.0897
39654W        W82707  18.698  14.711  25.405 -0.2141  0.1148 -0.2925
39655W        W82708  22.122  17.209   7.950  0.1927  0.0490  0.0035
39656W        W82709  25.120  21.429  14.280 -0.0453 -0.0116  0.3617
39657W        W82710  10.588   8.012  23.969  0.1548  0.2659  0.1405
39658W        W82711   0.264  11.962   9.413  0.2230 -0.0682 -0.0765
39659W        W82712  11.877   8.493   2.398  0.4080  0.0186  0.2318
39660W        W82713  30.065  18.564  17.906 -0.0869 -0.1943 -0.0211
39661W        W82714  17.715  14.559  22.489 -0.0324 -0.0212 -0.0715
39662W        W82715   4.693  23.817  23.780  0.1104  0.3268 -0.2179
39663W        W82716  33.137  31.749   6.994  0.1650  0.0662  0.0470
39664W        W82717  28.238  27.921  23.491  0.1737 -0.3233 -0.1525
39665W        W82718  24.932  27.125  22.169 -0.2979  0.1521 -0.1005
39666W        W82719  33.004   9.379  19.548  0.0401 -0.1709  0.2381
39667W        W82720  12.410  13.369  18.172  0.0585  0.2775 -0.0167
39668W        W82721   0.848  18.523  15.828  0.0031  0.1162 -0.1952
39669W        W82722  24.176   0.388   3.467 -0.0156  0.1579 -0.2865
39670W        W82723  16.590   4.773  18.381 -0.3463  0.3032 -0.4030
39671W        W82724  32.259  12.874   2.151 -0.2960 -0.1555  0.0128
39672W        W82725  32.267  18.429  26.535 -0.3301  0.2856 -0.2299
39673W        W82726  15.511  20.942  23.431 -0.3430  0.0262 -0.1348
39674W        W82727  24.796  26.615  15.682  0.2261  0.0662  0.0099
39675W        W82728  10.650   1.806  18.877  0.0163  0.0230  0.1747
39676W        W82729   6.736  18.414  15.009 -0.2697 -0.1243  0.1821
39677W        W82730   9.591  17.540  20.535 -0.1946  0.5373 -0.1215
39678W        W82731  26.755   3.481   2.039 -0.2822 -0.2324 -0.4803
39679W        W82732  31.561   9.242  21.860  0.0965 -0.5825 -0.1602
39680W        W82733   6.876  15.702  13.811  0.2223  0.0372 -0.0564
39681W        W82734  33.210  17.933  17.349 -0.0113 -0.0944 -0.3248
39682W        W82735   6.045   8.696   9.093  0.0215  0.4286 -0.0727
39683W        W82736  22.505  20.486  23.884 -0.1124 -0.0481  0.2895
39684W        W82737   0.865  29.797  21.562 -0.2348  0.0633  0.2857
39685W        W82738   2.241  10.672   3.719 -0.1428 -0.2096  0.0326
39686W        W82739   1.762   2.269  23.838 -0.0741  0.0925  0.1018
39687W        W82740  22.387  26.287  18.616  0.1700 -0.2726 -0.0334
39688W        W82741  23.098  30.022  25.157  0.0928  0.0128 -0.1056
39689W        W82742  30.559   6.014  13.624  0.1069  0.1735 -0.0670
39690W        W82743   3.739  16.755  27.598 -0.3967 -0.1074 -0.1538
39691W        W82744   5.172   1.519  14.754 -0.0154  0.1346 -0.1071
39692W        W82745  19.226  24.393   4.081 -0.1181 -0.1238  0.3869
39693W        W82746  33.325   0.317  22.788  0.0827  0.2103  0.0904
39694W        W82747  14.595   0.112  29.020  0.0882 -0.0438  0.0674
39695W        W82748  27.812  25.844  28.606  0.1057 -0.2512  0.0237
39696W        W82749  32.201   6.640  15.822  0.1179  0.1171  0.2529
39697W        W82750  30.470  28.728  21.620  0.3601  0.1889 -0.2569
39698W        W82751  15.966  14.804   0.687  0.0317 -0.1216 -0.0084
39699W        W82752  25.327  29.143  13.595 -0.2505 -0.1590 -0.0682
39700W        W82753   0.610  16.870  15.791  0.1751 -0.3440 -0.0853
39701W        W82754   1.421  17.795  17.302 -0.0868 -0.0730 -0.0892
39702W        W82755  17.680  20.046  24.798 -0.0788 -0.1412 -0.1514
39703W        W82756  26.479   1.036  14.194  0.0210 -0.3029  0.1303
39704W        W82757  25.975  23.741  18.789 -0.2331  0.1399 -0.0675
39705W        W82758  22.947  19.400  18.465  0.0624  0.0130  0.3262
39706W        W82759  21.339  20.822   1.015 -0.0121 -0.2807 -0.4384
39707W        W82760   1.359   5.806  18.299 -0.1400  0.0682 -0.0189
39708W        W82761  10.533  18.168  14.479 -0.1019  0.0139  0.3205
39709W        W82762  23.144  26.847  18.006  0.1574 -0.1508  0.1952
39710W        W82763   9.378   0.903  15.387 -0.0638 -0.2713  0.0243
39711W        W82764  29.067  33.664  16.037  0.2200 -0.0805 -0.1883
39712W        W82765  29.211   3.290  21.565  0.2477 -0.2266 -0.1282
39713W        W82766  25.795  31.091  14.760 -0.1060  0.0290 -0.2191
39714W        W82767  23.142  29.587  25.729  0.0003  0.0625 -0.2148
39715W        W82768  32.388  28.582   0.398 -0.2386 -0.1099 -0.0811
39716W        W82769   6.825  16.540   7.377  0.0640 -0.6564  0.0143
39717W        W82770  24.490  23.699  17.987 -0.0916  0.0110  0.1775
39718W        W82771   2.040  10.205  19.976 -0.1978 -0.2339 -0.0843
39719W        W82772  10.600  16.043  24.839 -0.1006 -0.1387 -0.5779
39720W        W82773  30.768  30.815  19.947  0.3584 -0.1905  0.0281
39721W        W82774   1.828  16.399  29.023 -0.0224  0.0930  0.0420
39722W        W82775   8.094  27.338  25.442 -0.0032 -0.2501 -0.2145
39723W        W82776  34.505  17.910  24.371  0.2149  0.0731 -0.0012
39724W        W82777  13.549  17.992  20.685  0.0289 -0.1509  0.0763
39725W        W82778  31.647  10.724   2.726 -0.0999  0.2934 -0.2645
39726W        W82779  22.333  25.591   2.163 -0.0585 -0.0570 -0.1778
39727W        W82780  24.763  22.008  24.356 -0.0724  0.2282 -0.1583
39728W        W82781   4.304  19.993  14.064 -0.2836  0.1055 -0.2879
39729W        W82782  28.102  10.070  27.233  0.0261 -0.0401  0.3014
39730W        W82783  29.569  30.117   1.627  0.3191 -0.1624  0.1936
39731W        W82784   0.384   2.735  23.597  0.3059  0.1647  0.1617
39732W        W82785   0.721   5.290  21.029  0.0641 -0.2069  0.0120
39733W        W82786  27.402  30.537  24.281  0.0583  0.2109  0.0528
39734W        W82787  33.788  25.718  28.023  0.1044  0.0212 -0.0011
39735W        W82788  19.666  24.510   4.912  0.0038 -0.0036 -0.1017
39736W        W82789   0.791  28.062   5.439 -0.1357  0.0436  0.2996
39737W        W82790   1.459  25.388  24.421  0.3587  0.1986 -0.0246
39738W        W82791  24.383  29.147  16.088  0.0034  0.0173  0.0102
39739W        W82792  26.038  25.674   9.339 -0.1854  0.1963  0.0945
39740W        W82793   4.175  11.899   8.627 -0.0534 -0.0179  0.1573
39741W        W82794  27.698  10.269   4.705  0.0612 -0.1022  0.1413
39742W        W82795   3.533   1.579   0.798 -0.3047  0.2726 -0.1790
39743W        W82796  30.601  26.737  23.367 -0.1162 -0.1787  0.3135
39744W        W82797   2.405  29.748  16.169  0.1220 -0.0985 -0.3271
39745W        W82798   5.249  30.573  24.519  0.0676  0.1622 -0.0298
39746W        W82799  31.061  27.477   1.899 -0.2163  0.0763 -0.2453
39747W        W82800  13.397   6.744  24.329  0.0514 -0.2300 -0.0451
39748W        W82801   3.002  11.755  19.626  0.0393  0.0892  0.0076
39749W        W82802  30.252   3.150  24.931 -0.1730 -0.0282 -0.1849
39750W        W82803  26.379  20.281   1.796  0.1906  0.1087  0.0088
39751W        W82804  13.234  12.038   9.969 -0.0463  0.1487  0.2422
39752W        W82805  25.773  18.211  26.585  0.4671 -0.0583  0.1503
39753W        W82806  30.142   4.918   7.415 -0.0187 -0.0624 -0.1386
39754W        W82807  14.012  30.584  22.642 -0.0188  0.2995 -0.2512
39755W        W82808  22.716  18.836   8.508  0.2551  0.4377  0.1544
39756W        W82809  30.022  13.932  23.321  0.2687 -0.2740  0.2094
39757W        W82810   0.995   1.752   1.970 -0.3245 -0.3877 -0.0539
39758W        W82811  30.222  28.595  21.143  0.1302  0.3082 -0.1921
39759W        W82812   0.842  33.982  15.079 -0.1778 -0.0934 -0.0119
39760W        W82813  33.277   1.104  29.093  0.1122  0.1310  0.0918
39761W        W82814  25.135  15.369  23.088  0.0768  0.0715 -0.0682
39762W        W82815  33.051  23.011  23.696  0.0865  0.1555 -0.1285
39763W        W82816  11.018  32.346   3.350  0.1940 -0.0660  0.1105
39764W        W82817   6.099  26.284   3.661  0.1517 -0.0121 -0.0661
39765W        W82818  29.611  31.539  18.382 -0.3616  0.0142 -0.3212
39766W        W82819  12.051  22.179   9.587  0.1450  0.0955 -0.2838
39767W        W82820  26.471  14.405   0.639 -0.1300 -0.1052  0.3364
39768W        W82821   5.415  18.793  22.333 -0.1401 -0.1030 -0.2310
39769W        W82822  23.136  10.324  22.539 -0.2744 -0.1455 -0.1082
39770W        W82823  26.765  28.424   7.896 -0.2280 -0.4268  0.3770
39771W        W82824  19.992  21.960   7.531 -0.3761  0.1087  0.2911
39772W        W82825  29.580  17.953  21.673 -0.1790  0.0177 -0.1635
39773W        W82826  31.285   3.281  21.713 -0.0776  0.1997  0.1337
39774W        W82827  28.258   1.491  23.069 -0.0538 -0.1796 -0.0643
39775W        W82828  24.866  22.602   1.319 -0.0557 -0.0659 -0.1541
39776W        W82829  23.883   0.297   0.028  0.3023 -0.1493  0.2252
39777W        W82830   3.447  27.899   9.185  0.1509 -0.1132 -0.0635
39778W        W82831  14.100   4.050  16.604  0.0504 -0.1681  0.2292
39779W        W82832  34.552  20.891  28.770  0.1181  0.1416 -0.1598
39780W        W82833   2.966  18.744   5.592  0.0705  0.2837 -0.1778
39781W        W82834  31.382  28.447  16.371  0.1001  0.0396  0.1877
39782W        W82835  17.163  12.469  24.041 -0.2128  0.3439  0.1601
39783W        W82836  29.502  12.300  10.113 -0.2657 -0.3279 -0.0311
39784W        W82837  32.510  21.295   2.554  0.2945 -0.1307 -0.1021
39785W        W82838  28.887   6.710   6.799  0.0421 -0.0711 -0.0466
39786W        W82839  30.251  13.473  19.679 -0.3207  0.3151 -0.2319
39787W        W82840  30.906   7.850   7.468 -0.1087  0.0748  0.2453
39788W        W82841  13.144  15.361  21.293  0.1914  0.0007  0.0705
39789W        W82842  26.970  34.070   7.863 -0.0079  0.0500 -0.3441
39790W        W82843  15.609  24.263  27.952 -0.0627  0.0537  0.3260
39791W        W82844  26.173  33.405   7.577 -0.0028  0.0252  0.3255
39792W        W82845   3.591   5.046   6.688 -0.2139 -0.0626  0.1613
39793W        W82846   3.706  31.436  26.629  0.2585 -0.2959 -0.2384
39794W        W82847  33.421  22.453  19.419  0.1301  0.1397 -0.1004
39795W        W82848  27.963  16.287  28.771  0.0523  0.0408  0.0107
39796W        W82849   6.552   7.019   8.089  0.1058 -0.2631 -0.0380
39797W        W82850   4.378   5.727  16.043  0.1171 -0.3177  0.0400
39798W        W82851  29.208  25.897  22.405  0.2042  0.0054 -0.0024
39799W        W82852  24.122  21.562   6.122 -0.1232 -0.3640  0.3923
39800W        W82853  22.888  18.356  26.563 -0.1248 -0.1049 -0.1126
39801W        W82854  22.686  32.360  18.151  0.1197 -0.2012  0.0438
39802W        W82855  24.635  18.095  24.495 -0.1351  0.1177  0.0378
39803W        W82856  18.223  30.798   2.877 -0.0403  0.3538  0.2348
39804W        W82857   1.220  24.363  15.434 -0.1026 -0.3290 -0.5326
39805W        W82858  24.077   6.421   2.072  0.0468  0.2349  0.1620
39806W        W82859  25.917  21.226   7.942  0.0409 -0.2591  0.1049
39807W        W82860   4.922   9.768  25.837 -0.0769 -0.1361  0.2417
39808W        W82861   7.580  15.567  16.847 -0.0144 -0.1475 -0.1771
39809W        W82862  11.209  30.587   0.170  0.4350 -0.0916 -0.0742
39810W        W82863   3.466  21.377  14.108 -0.2617 -0.1323  0.3115
39811W        W82864  28.633  27.216   5.848 -0.1637  0.4761 -0.0643
39812W        W82865  33.371  16.462  16.060 -0.0109 -0.0533 -0.0737
39813W        W82866  30.906  12.689  15.664 -0.0460  0.0748 -0.2782
39814W        W82867   3.137  29.327  27.790  0.4890  0.0241  0.1063
39815W        W82868  34.443  17.749   0.853  0.1699 -0.1945  0.0241
39816W        W82869  29.552  25.529  17.882  0.1679 -0.2795  0.2245
39817W        W82870   7.220   6.540  18.951 -0.1995  0.1967  0.3131
39818W        W82871  32.303  30.996  19.779  0.1121 -0.1128  0.0266
39819W        W82872   1.677  17.030  28.389 -0.3282  0.3063  0.0908
39820W        W82873  20.352  21.102   4.265  0.2377 -0.0834 -0.0426
39821W        W82874  33.695   9.187  24.447  0.1804  0.2541 -0.0768
39822W        W82875   5.995  14.770  17.407  0.1490 -0.1626 -0.2326
39823W        W82876   9.289   4.989  23.923 -0.1623  0.0388  0.1120
39824W        W82877  32.473  28.578   6.231  0.0202  0.1292 -0.2061
39825W        W82878  30.793  21.713  25.459 -0.2112 -0.1742 -0.0617
39826W        W82879  30.505   2.018   3.592 -0.1292 -0.1973  0.0026
39827W        W82880  19.461  23.899   1.164 -0.1399  0.0358 -0.2905
39828W        W82881  12.461  24.055   3.407  0.1064  0.2185 -0.0085
39829W        W82882  29.097  18.869  22.327 -0.3367  0.0884 -0.4027
39830W        W82883  24.450   2.430  18.612  0.0254  0.0903 -0.1557
39831W        W82884  28.338   6.866  23.588  0.0938  0.1592 -0.0498
39832W        W82885  10.131   1.348  27.480  0.3912  0.0506 -0.0940
39833W        W82886  23.271   7.056   7.662 -0.3060  0.2124 -0.1921
39834W        W82887   5.827  26.156  20.531 -0.1811  0.2545 -0.0695
39835W        W82888   2.558  29.054  20.465 -0.0868 -0.2680  0.1900
39836W        W82889   3.404   6.356  17.218 -0.1079 -0.2414 -0.1079
39837W        W82890  11.710   3.750  23.187 -0.0425  0.1758  0.4032
39838W        W82891   1.887  26.717   7.533 -0.2669 -0.3781 -0.1201
39839W        W82892   3.724   8.022  15.228  0.0842  0.0086  0.0050
39840W        W82893  21.134  11.412   2.852  0.1699  0.0977  0.1698
39841W        W82894  24.649  16.642  27.069  0.3167  0.2104 -0.0081
39842W        W82895  30.972  21.264  22.648  0.0955 -0.2195 -0.2741
39843W        W82896   5.179  12.835   2.239  0.2035 -0.1135 -0.0863
39844W        W82897   2.415  29.496  15.291  0.0187 -0.0084 -0.2078
39845W        W82898  32.959  33.961  26.628 -0.2886  0.0757  0.2024
39846W        W82899  31.308  21.130  28.350  0.0023 -0.1089 -0.0765
39847W        W82900   2.830  17.592  26.360  0.1373  0.2011  0.1007
39848W        W82901  31.825  27.329  28.133  0.0544 -0.2611 -0.3529
39849W        W82902  27.612  19.608   6.803 -0.1652 -0.4166 -0.2138
39850W        W82903  33.560  28.064  21.896 -0.2777  0.0910 -0.0198
39851W        W82904  16.801   4.160   9.504  0.1621 -0.3159 -0.0403
39852W        W82905  23.148  23.125   1.767 -0.0613  0.0390  0.1463
39853W        W82906  30.678  32.852  26.759  0.2781  0.1467  0.4005
39854W        W82907  26.802  28.952  28.089  0.0395 -0.3795 -0.1056
39855W        W82908   7.480  28.548   0.493 -0.1360  0.1643  0.0212
39856W        W82909  11.859  17.647   5.298 -0.3235 -0.3419  0.0615
39857W        W82910  13.042  22.595   0.012 -0.1365 -0.0540  0.2959
39858W        W82911  27.744  10.653  28.458 -0.1407 -0.0820  0.2446
39859W        W82912  28.372   8.155   6.021 -0.0373 -0.0497  0.0857
39860W        W82913  14.755  26.047  24.157  0.3159 -0.0405  0.3525
39861W        W82914  17.943   1.935   1.438 -0.0673 -0.0201 -0.0464
39862W        W82915   2.733  32.308  23.196  0.0284 -0.0810 -0.3789
39863W        W82916   2.483  19.411  17.030  0.2206 -0.3285 -0.2445
39864W        W82917  25.841  21.975   7.034 -0.2514  0.0482 -0.0416
39865W        W82918   4.325  20.877  25.592  0.1610 -0.0079 -0.1254
39866W        W82919   7.172  32.737   3.974 -0.0424 -0.0554 -0.1010
39867W        W82920  25.463   4.845   8.157 -0.1115  0.1683  0.2053
39868W        W82921  33.568  11.900  15.319 -0.1618 -0.0711  0.0097
39869W        W82922  26.214  11.015  20.766 -0.0188  0.1513 -0.1455
39870W        W82923   1.167  12.970   6.097  0.1150 -0.2361  0.2209
39871W        W82924  27.644  26.323   6.681 -0.0939  0.2372 -0.0347
39872W        W82925  15.201   6.927  22.406 -0.0148 -0.2820 -0.0920
39873W        W82926  30.253  27.605  27.142 -0.0899  0.0645 -0.0807
39874W        W82927   8.265  24.143   4.136  0.2920 -0.0734  0.0468
39875W        W82928  33.494   9.889  27.857 -0.2386  0.2461 -0.0163
39876W        W82929  11.910  16.971   2.171 -0.1714  0.2204 -0.2908
39877W        W82930   0.187  12.319  27.090  0.0128 -0.1565  0.0770
39878W        W82931  21.527  23.285  16.926  0.1598 -0.0509 -0.1547
39879W        W82932  19.442  19.570   8.119 -0.4887  0.0852  0.0227
39880W        W82933   4.439  15.955   4.088  0.0419  0.0191  0.3558
39881W        W82934  32.689  25.842   3.309  0.1822 -0.1910 -0.0188
39882W        W82935   4.477  19.606  14.301 -0.1570  0.1403 -0.1619
39883W        W82936  31.147  21.875  20.497 -0.2595 -0.1557  0.5017
39884W        W82937   0.247  27.123  26.918  0.1673 -0.3200 -0.1429
39885W        W82938   5.684  21.497   3.869 -0.0611 -0.0725 -0.1380
39886W        W82939  30.948  33.201   5.115 -0.0130 -0.2663  0.0967
39887W        W82940  16.647  27.339   4.532  0.2175  0.2040  0.2074
39888W        W82941  16.371  27.263   6.895 -0.2766  0.0741  0.0005
39889W        W82942   0.438   6.246  14.795  0.0296  0.1287 -0.0522
39890W        W82943   6.690   2.320  17.706  0.0915 -0.0052  0.4767
39891W        W82944  25.630  11.886  22.241 -0.2001 -0.0582  0.0207
39892W        W82945  27.115  15.047  22.108  0.1864 -0.1161  0.1516
39893W        W82946  29.534  27.980   7.446 -0.0410  0.0321  0.3841
39894W        W82947  29.104  33.525  26.127 -0.1067  0.2582  0.0616
39895W        W82948  34.196  29.708  20.600 -0.3303  0.3968  0.0149
39896W        W82949  24.821  17.515  19.739 -0.1736  0.1311  0.1992
39897W        W82950  29.426   2.237  25.232 -0.1824 -0.1549  0.0231
39898W        W82951   6.682  12.896   1.281  0.3338 -0.1330 -0.2992
39899W        W82952  25.865  13.071  21.332 -0.2712  0.2456  0.2060
39900W        W82953   3.872  21.370  10.241 -0.1677 -0.1261  0.2040
39901W        W82954  29.408  21.074  19.453 -0.2099 -0.2110  0.5653
39902W        W82955  32.604  27.191  27.109  0.0078 -0.2485  0.0616
39903W        W82956  28.451  34.155   9.641  0.0727  0.1825 -0.1946
39904W        W82957   7.615  34.174  20.921  0.0981  0.0224  0.2286
39905W        W82958   3.719  23.870  25.444 -0.0254 -0.1350 -0.3248
39906W        W82959  20.972   0.911  22.074  0.2877  0.1873 -0.3014
39907W        W82960  22.630  13.983  21.810 -0.1005  0.1572  0.3034
39908W        W82961  16.721  25.346   6.175  0.2558  0.0903  0.0982
39909W        W82962  10.583  19.637  23.385 -0.0725  0.1508 -0.0211
39910W        W82963  24.465  18.375  13.565 -0.2283  0.1976 -0.2694
39911W        W82964  27.634  20.399   1.964 -0.0352  0.1123  0.0867
39912W        W82965  15.683  21.612  22.795 -0.2241  0.4536 -0.0858
39913W        W82966  25.337  30.382   1.176 -0.0700 -0.0824  0.0662
39914W        W82967   5.267  11.868   7.845  0.0669  0.0090  0.3128
39915W        W82968   6.191  28.022  23.116 -0.1349  0.0145  0.0308
39916W        W82969  32.233  16.103   0.340 -0.1833 -0.4574 -0.1556
39917W        W82970  25.671  13.090   3.548 -0.1928  0.2218  0.0976
39918W        W82971  13.379  15.783  18.306  0.0401 -0.2144 -0.3803
39919W        W82972   6.188   2.548   2.681  0.1510  0.1662  0.2895
39920W        W82973  20.611   9.318  28.431 -0.3257  0.3730  0.1222
39921W        W82974   6.495  30.322  14.427  0.2428  0.2039  0.1451
39922W        W82975  17.333  10.766  23.346 -0.1179 -0.1850  0.0655
39923W        W82976   4.514  22.850  25.548 -0.1951  0.1067 -0.0190
39924W        W82977  12.773  17.600  21.578 -0.0072 -0.0678  0.1997
39925W        W82978  27.560  31.195   2.181 -0.2218  0.2128 -0.0642
39926W        W82979  27.503  17.352   0.520  0.0403  0.3687  0.0852
39927W        W82980  29.206  19.359  19.944  0.0150 -0.2558  0.0852
39928W        W82981  23.876  32.725  15.676  0.2176 -0.0297  0.0348
39929W        W82982  28.143  14.972  22.913 -0.0891  0.1290 -0.0991
39930W        W82983   3.564  19.691  27.775 -0.1671  0.2134  0.2403
39931W        W82984  28.913  21.783  28.758  0.2034 -0.1879  0.0099
39932W        W82985  23.562  10.400  27.850  0.1833  0.2027  0.1124
39933W        W82986  21.164  23.423   0.300 -0.1922 -0.0504  0.1072
39934W        W82987  34.153  10.955  17.928  0.1620 -0.1015  0.4689
39935W        W82988   2.238  19.313  20.486 -0.2324 -0.2473 -0.2154
39936W        W82989  29.590  21.197   3.453 -0.0203 -0.0679 -0.4244
39937W        W82990  24.888  28.179  17.250 -0.3808  0.3591 -0.1728
39938W        W82991   4.847  21.146  25.920 -0.0966  0.3300  0.3587
39939W        W82992  20.205  13.604  28.511 -0.2169  0.1335 -0.0427
39940W        W82993   8.974  31.069   8.082  0.2635 -0.1335  0.0763
39941W        W82994   9.213  33.083  25.327  0.0242  0.0077  0.4305
39942W        W82995  11.300  31.865  20.121  0.0853  0.0151  0.2428
39943W        W82996  15.744  21.285  20.033 -0.3103 -0.2478  0.3554
39944W        W82997  22.538  22.051  23.946  0.2109  0.3812 -0.1707
39945W        W82998  21.217  17.751  15.012  0.1260  0.1564  0.3050
39946W        W82999  22.954  22.531  10.831  0.0461  0.0811 -0.3145
39947W        W83000  10.099  19.652  27.639  0.0129 -0.1329  0.0288
39948W        W83001  26.283  30.135  10.270 -0.0231 -0.2094  0.0554
39949W        W83002   8.518  24.551   9.929  0.3135 -0.1277  0.1090
39950W        W83003  32.084  27.234  27.032  0.2769 -0.1307  0.0336
39951W        W83004  25.691  15.476  21.053  0.1236  0.1584  0.0603
39952W        W83005   7.119  15.359  10.241  0.2859 -0.0163 -0.3923
39953W        W83006  31.763  33.255  19.077  0.1507  0.0131  0.1836
39954W        W83007  32.382   4.472   7.726 -0.0340 -0.1573  0.0816
39955W        W83008  14.045   7.159  28.116  0.0217 -0.3279  0.0709
39956W        W83009   3.554   2.147  17.515 -0.0305  0.0942  0.0364
39957W        W83010   2.391   3.765  17.494  0.0634 -0.0591  0.0352
39958W        W83011  26.203  17.438  23.991  0.1385 -0.1194  0.0677
39959W        W83012   9.787   1.656  21.753 -0.3050  0.2833 -0.1462
39960W        W83013  21.476  13.752  25.994 -0.0588  0.1471  0.1071
39961W        W83014   4.407  11.857  22.302 -0.0151 -0.1390  0.4078
39962W        W83015  10.814  19.521   9.111 -0.0598 -0.0929 -0.1395
39963W        W83016   4.106  31.694  13.497 -0.2363 -0.4535  0.1698
39964W        W83017  10.898  16.908   9.950  0.0239  0.2516 -0.1568
39965W        W83018  25.567  33.867  21.957  0.3103 -0.0683  0.2354
39966W        W83019  11.362  29.564   6.253  0.0760 -0.0403  0.1158
39967W        W83020  27.094  11.131  23.673  0.2310  0.2037  0.3089
39968W        W83021  25.945   5.936  28.220 -0.0542 -0.0797  0.0403
39969W        W83022  33.787  24.502  22.663  0.1697 -0.1636 -0.0615
39970W        W83023  29.467  17.770  18.039 -0.1332  0.0165 -0.0756
39971W        W83024   3.994  14.474   3.372 -0.2597  0.2041  0.2328
39972W        W83025   6.951  21.943   5.093  0.1920  0.0877  0.1465
39973W        W83026  25.114  17.452   1.658 -0.2017  0.2044  0.2085
39974W        W83027  20.495  30.864  17.880 -0.2173 -0.1711 -0.1276
39975W        W83028  30.444  20.175   6.618 -0.3307 -0.2065 -0.0827
39976W        W83029  30.803  13.262   5.672  0.2075  0.2200  0.5098
39977W        W83030  27.895  15.348  16.396  0.1311 -0.0724 -0.2560
39978W        W83031  24.915  18.476  16.899 -0.0914  0.0951 -0.0052
39979W        W83032  25.750  27.454  22.289  0.0997  0.1352 -0.0941
39980W        W83033  28.355  12.139  26.764  0.2859  0.0516 -0.1380
39981W        W83034  23.723  32.527  27.956  0.0663 -0.0624 -0.0656
39982W        W83035  19.732  22.332  24.215  0.3076  0.1009  0.2068
39983W        W83036  33.082  29.311   1.831  0.4766 -0.0457  0.2283
39984W        W83037  34.680   7.038   7.033  0.0083  0.1554 -0.3633
39985W        W83038  16.295  16.390   1.551 -0.1242  0.1815 -0.1681
39986W        W83039  11.309   1.577   0.678  0.2077 -0.0551 -0.2596
39987W        W83040  10.284  15.798   2.644  0.0324 -0.0631 -0.0895
39988W        W83041  27.613  28.610   9.058 -0.3014 -0.3674 -0.1001
39989W        W83042   8.201  18.572  29.117 -0.1930  0.1912  0.2680
39990W        W83043  34.474  32.272  15.931  0.0373 -0.0297  0.0969
39991W        W83044  26.308   7.148   4.811  0.0526  0.1040 -0.1094
39992W        W83045  34.128  21.876  24.768 -0.0092 -0.0195  0.0619
39993W        W83046  33.030  27.628  25.202  0.0139 -0.1057  0.3150
39994W        W83047   4.061   3.942  28.535  0.2863 -0.1975  0.0620
39995W        W83048  32.509  17.825  28.192 -0.6684  0.0221 -0.2244
39996W        W83049  24.471  17.001   2.423  0.1548 -0.1430  0.0217
39997W        W83050  10.005  19.577  28.907 -0.0077 -0.2230  0.1689
39998W        W83051  22.053  11.383   7.083  0.0449  0.2147 -0.2441
39999W        W83052  24.077   7.588  25.312 -0.1545  0.0737  0.0505
40000W        W83053  16.995   3.902   6.494  0.1122 -0.0812  0.0577
40001W        W83054  13.809  29.589  27.571  0.0057 -0.3052  0.0794
40002W        W83055  21.443  15.468  21.367  0.0761  0.3818 -0.0109
40003W        W83056   1.473  26.179  19.239 -0.1467  0.3992  0.1375
40004W        W83057   7.322  25.796  27.827 -0.2138  0.4819 -0.0697
40005W        W83058  19.807  15.631  24.978 -0.4819  0.0196 -0.1881
40006W        W83059  30.080  24.006  23.727  0.0160  0.2175 -0.2380
40007W        W83060   0.777  19.939  18.418  0.0763 -0.2305  0.1397
40008W        W83061  24.273  20.183  24.758 -0.1776 -0.0004  0.1356
40009W        W83062  10.913  29.348  24.200 -0.1899  0.2989 -0.1314
40010W        W83063  29.681  23.044  15.128  0.0329  0.0483 -0.0882
40011W        W83064   5.131  25.850  25.810 -0.2089 -0.1323 -0.2650
40012W        W83065  20.808  18.008  25.443  0.0671  0.1617  0.0024
40013W        W83066  34.479  33.553   5.428 -0.2140 -0.1681 -0.3191
40014W        W83067  14.235  17.198   2.273 -0.1317 -0.0877  0.1224
40015W        W83068   4.723   9.574   3.775 -0.0674  0.3136  0.0873
40016W        W83069   0.158  14.023  20.086 -0.1079  0.3148  0.1523
40017W        W83070   0.323  29.647  24.410  0.3373 -0.0297  0.0300
40018W        W83071  22.194  20.224   1.467 -0.0240  0.1894  0.0448
40019W        W83072  31.386   2.027  23.562 -0.0780 -0.3665 -0.2494
40020W        W83073  31.918  23.008  27.524 -0.2690 -0.2554 -0.0507
40021W        W83074  30.866  18.121   3.337 -0.0100 -0.0778 -0.1213
40022W        W83075  33.086  16.105   0.196 -0.2412 -0.2018 -0.1167
40023W        W83076   1.855  28.954   4.629 -0.1266  0.0438  0.0072
40024W        W83077  23.912  22.892   6.199  0.0902  0.1362 -0.0469
40025W        W83078  31.233  11.886  15.553  0.1361 -0.3108  0.2922
40026W        W83079   4.447  10.160  17.688  0.0342  0.1443  0.0762
40027W        W83080   2.298  16.332   5.375 -0.0038  0.1271  0.0333
40028W        W83081  25.432  14.929  24.979  0.2204 -0.0683  0.0114
40029W        W83082  31.981  15.100  25.643 -0.1113  0.0424 -0.1771
40030W        W83083  23.173  17.894  26.731  0.1814 -0.1232 -0.1380
40031W        W83084  33.390  20.165  14.271  0.0436  0.0715 -0.0877
40032W        W83085  26.165  20.825   4.631  0.0842  0.0007 -0.2540
40033W        W83086  32.932   8.631  25.913 -0.0055 -0.5807  0.0911
40034W        W83087  23.535  29.070  17.815 -0.0236  0.0842  0.3874
40035W        W83088  31.303  16.988  18.404 -0.1892  0.2441  0.0238
40036W        W83089  33.328   8.090  21.960 -0.0387 -0.0638 -0.0533
40037W        W83090   8.094   6.303   8.730  0.1479 -0.0902 -0.1870
40038W        W83091  30.155  25.372  23.054 -0.0522  0.1503  0.2025
40039W        W83092   7.278  26.111   0.658  0.0614 -0.2751 -0.2950
40040W        W83093  30.500  24.336  19.771 -0.3730  0.2700  0.1343
40041W        W83094  32.596  13.521  20.445 -0.1282 -0.1449 -0.3412
40042W        W83095  28.986   7.893  22.351 -0.0857  0.0687  0.1550
40043W        W83096   3.297  20.403  23.430  0.1946 -0.1020 -0.1575
40044W        W83097  11.111   3.722   4.893  0.0041 -0.1631 -0.1588
40045W        W83098  18.010  32.752  29.184 -0.2519  0.0952  0.0114
40046W        W83099   4.963  25.089  24.670  0.3782  0.4997  0.0803
40047W        W83100   2.006  16.509  18.471 -0.1236 -0.2267  0.2935
40048W        W83101   6.198  22.057  14.630 -0.0156 -0.0221 -0.0964
40049W        W83102  16.721  22.411   4.985 -0.2705  0.0552 -0.2131
40050W        W83103  33.032  25.037   7.241  0.1132  0.1615 -0.1198
40051W        W83104  31.758   1.713  22.430  0.1490 -0.1499 -0.0482
40052W        W83105   5.829  14.781  25.864 -0.1737  0.1817 -0.0543
40053W        W83106  28.545  25.183  20.369 -0.0712 -0.0261 -0.5532
40054W        W83107   6.116   7.266  28.373 -0.1815 -0.1277  0.2989
40055W        W83108  30.568  24.697   9.043 -0.0156 -0.1329  0.1795
40056W        W83109  31.339  22.018   0.983  0.0486 -0.0571  0.2067
40057W        W83110  30.662  17.459  28.282 -0.0479 -0.1570  0.3306
40058W        W83111  25.478  34.094  23.548 -0.0883  0.2214  0.3103
40059W        W83112  33.522  28.711  17.983 -0.1706 -0.0301  0.0947
40060W        W83113   1.279  20.549  27.885 -0.1389  0.1775  0.2676
40061W        W83114  18.860  16.408  14.253  0.2287 -0.0519 -0.0593
40062W        W83115  28.668  29.242   1.397 -0.1525 -0.0036  0.0719
40063W        W83116  20.413  12.067   0.952 -0.0057 -0.0601 -0.2327
40064W        W83117  23.906  18.914  23.358 -0.1927 -0.2769  0.0962
40065W        W83118   1.336  19.163   5.471  0.3069  0.0812 -0.0385
40066W        W83119  25.535   6.777  17.700  0.3013 -0.2182  0.0784
40067W        W83120  22.221  27.912  28.469  0.2299 -0.0713  0.4607
40068W        W83121  32.984   9.686  22.039  0.1743 -0.0755  0.1980
40069W        W83122  19.676  25.338   7.037 -0.1052 -0.3330  0.0328
40070W        W83123  31.883  26.261   8.809 -0.0821 -0.2789 -0.0599
40071W        W83124  28.958  11.437  10.437 -0.0303 -0.1354  0.0143
40072W        W83125  25.920  34.513  20.492  0.0869  0.2629 -0.1080
40073W        W83126   4.195  25.315  24.113 -0.3686  0.2069  0.3354
40074W        W83127  16.669   6.289  21.654  0.0469 -0.1186 -0.1271
40075W        W83128  13.037   1.462  21.170  0.2618  0.0348 -0.3077
40076W        W83129  25.111  21.410  10.641 -0.0929 -0.1832  0.0097
40077W        W83130  33.542  19.467   6.787 -0.2843 -0.4507  0.2416
40078W        W83131   4.048  16.930  27.123  0.1836 -0.2495 -0.1243
40079W        W83132  17.877  13.430   2.698 -0.0677 -0.0003  0.1923
40080W        W83133  23.279  25.636   7.230 -0.0157 -0.0043 -0.2655
40081W        W83134  25.744  21.643   2.899  0.0899  0.0970  0.2943
40082W        W83135   3.209  28.949  10.178  0.2782  0.0149  0.0460
40083W        W83136  11.211  20.573  10.528  0.2952  0.0888 -0.0948
40084W        W83137   4.425   6.159  27.225 -0.0282 -0.0039  0.0946
40085W        W83138   5.765  20.630  27.871  0.1765  0.1939 -0.2738
40086W        W83139  22.535  14.088  18.435 -0.1345 -0.3896  0.0913
40087W        W83140  29.865  17.026  28.081 -0.3584  0.2229 -0.0147
40088W        W83141  32.398  13.385  28.029 -0.2212 -0.0271 -0.0761
40089W        W83142  22.423   0.594   2.379  0.2985  0.0827  0.1626
40090W        W83143  26.561  14.426  23.556 -0.2099 -0.1545  0.0506
40091W        W83144  34.003   1.695   7.671 -0.0595 -0.0239  0.0829
40092W        W83145  27.525  12.612  26.556  0.3286 -0.1043 -0.0721
40093W        W83146   0.767  19.612   0.459 -0.2063 -0.2942 -0.1124
40094W        W83147  34.042  21.894  23.067 -0.0041  0.3627 -0.0195
40095W        W83148  32.985  33.063  21.220 -0.2363 -0.2450  0.0478
40096W        W83149  31.785  30.147   1.493 -0.2266 -0.3311 -0.3280
40097W        W83150  31.187   1.939  21.300 -0.0457 -0.1710  0.0357
40098W        W83151  20.493  16.846  22.876  0.3913 -0.2659 -0.1002
40099W        W83152  19.862   0.348  27.794  0.3349 -0.0868  0.2316
40100W        W83153  23.500   3.055  24.213  0.1786 -0.3386  0.2882
40101W        W83154   3.728  26.743  23.713  0.3711  0.1315  0.1169
40102W        W83155   2.469  13.094  19.336  0.0036  0.0856  0.2085
40103W        W83156  31.313   9.781   3.355  0.1706 -0.3448 -0.4386
40104W        W83157  33.063  11.835  28.846  0.2363  0.4002  0.3372
40105W        W83158  33.298  24.866  17.533 -0.0137  0.0380 -0.1898
40106W        W83159  22.320  33.267   2.149  0.4410 -0.0651 -0.0328
40107W        W83160  25.636  20.795  22.117 -0.1195  0.2950  0.1747
40108W        W83161   9.121  21.612  26.354 -0.1225 -0.0667  0.0615
40109W        W83162   0.586  34.100  28.895 -0.1946  0.0833  0.0347
40110W        W83163  23.481  26.152   9.453 -0.0333 -0.0175 -0.2013
40111W        W83164  32.112  28.658  24.128  0.0431 -0.2055 -0.1362
40112W        W83165  22.133  24.619  19.836 -0.1431 -0.0973  0.0943
40113W        W83166  30.568  18.481   7.897  0.0470 -0.0046 -0.0010
40114W        W83167  16.445  18.962   0.255  0.1254  0.2397  0.2306
40115W        W83168   3.165  25.798  15.766  0.2715  0.0186  0.2814
40116W        W83169  29.628  17.793  17.003  0.1813  0.2073  0.0923
40117W        W83170   5.822  17.537  17.424 -0.0468 -0.2840 -0.3699
40118W        W83171  22.053   8.016  27.405  0.0872 -0.2976  0.1608
40119W        W83172  23.951  19.318   0.152 -0.2199  0.0754 -0.1315
40120W        W83173  31.375   0.038   3.692 -0.0036 -0.1917 -0.1937
40121W        W83174  18.006  15.932  23.838  0.1992  0.0182 -0.0646
40122W        W83175  34.365  24.139  15.246  0.4192 -0.2182  0.0255
40123W        W83176  15.793  27.006   2.565 -0.3359 -0.2551 -0.0982
40124W        W83177  33.945   7.708  15.569 -0.2999  0.1296  0.1369
40125W        W83178   5.029  17.433  16.684 -0.1481  0.0882 -0.3231
40126W        W83179  21.474  30.483  18.152  0.1975 -0.0164 -0.0176
40127W        W83180   0.475  18.354  23.437 -0.3862 -0.3082  0.3107
40128W        W83181  12.684  32.174  20.768 -0.2276  0.0098 -0.1407
40129W        W83182  21.296  28.751   0.623  0.1512  0.0161 -0.4086
40130W        W83183  31.096  13.300   1.561 -0.0439  0.1042 -0.3273
40131W        W83184   7.879  17.929  17.168 -0.2496  0.4728 -0.2835
40132W        W83185   3.292  15.915   6.915 -0.3776  0.2765  0.2591
40133W        W83186   3.613  18.628  19.513 -0.1571  0.0556 -0.1413
40134W        W83187  33.590  26.767   3.700 -0.3343  0.0270  0.0303
40135W        W83188  24.421  34.281   8.448 -0.1505  0.0163  0.0994
40136W        W83189  10.100  21.227   3.227  0.2697 -0.3038 -0.0950
40137W        W83190  16.209  17.521   1.019  0.0702 -0.1730 -0.1195
40138W        W83191   8.331  16.600  28.402  0.3041 -0.1308 -0.0604
40139W        W83192  23.428  10.803   7.316 -0.3519 -0.1668 -0.3764
40140W        W83193  28.031  21.504   1.408 -0.1661 -0.2931  0.2442
40141W        W83194  23.090  24.097  17.037 -0.2031 -0.4027  0.2360
40142W        W83195  31.050   9.617   8.961 -0.0570 -0.1028  0.1178
40143W        W83196  18.010  28.320  22.363  0.0126  0.3106  0.0028
40144W        W83197   7.197  18.488  17.416 -0.0762  0.2583  0.0089
40145W        W83198   4.511  13.085  25.437  0.0905  0.3736  0.0343
40146W        W83199  32.036  20.000   6.582 -0.1549  0.1343  0.0625
40147W        W83200   5.818  22.799   8.447  0.0067  0.0693  0.0256
40148W        W83201   6.523  32.586   7.697  0.0859 -0.0220 -0.0151
40149W        W83202   2.640  17.214  15.356 -0.0264 -0.1356 -0.1095
40150W        W83203  29.743  16.360  23.178  0.1468 -0.2596 -0.0873
40151W        W83204  33.183  32.540  13.028  0.3875 -0.2620  0.0237
40152W        W83205  24.803  18.575   7.741 -0.1898  0.2366 -0.0413
40153W        W83206   0.806   8.159  28.795 -0.1506 -0.1182  0.3328
40154W        W83207  31.887  12.746   0.374  0.5513  0.1358  0.1610
40155W        W83208  28.995  27.874   3.657 -0.0754 -0.5042  0.1381
40156W        W83209   3.726  13.337  27.383  0.0021  0.1546 -0.2570
40157W        W83210  19.238  27.644   3.412 -0.0916 -0.0599  0.4349
40158W        W83211   0.903  11.451  28.426 -0.3015 -0.1396 -0.1072
40159W        W83212  32.656  29.765   8.300  0.0016  0.0012 -0.0430
40160W        W83213  20.633  18.837  22.959  0.0519  0.0120 -0.2469
40161W        W83214  28.501  17.661   8.566  0.1138 -0.2354 -0.0238
40162W        W83215   6.215  19.658  25.677 -0.0591  0.0588 -0.2174
40163W        W83216  29.664  20.713   1.112  0.3039  0.1799  0.0780
40164W        W83217   1.505  13.864  28.674 -0.0298 -0.0394  0.2161
40165W        W83218  31.213  27.098   4.586 -0.3414  0.2629  0.0770
40166W        W83219   3.986  21.007   6.972  0.1614 -0.0903  0.2873
40167W        W83220  25.210  17.341   6.115 -0.0020  0.3320 -0.2363
40168W        W83221  16.725  15.064   7.495 -0.1544 -0.0191 -0.1891
40169W        W83222   4.816  23.406   2.692  0.0743  0.1287  0.2195
40170W        W83223   4.955  20.800  28.308  0.2708  0.1816  0.2401
40171W        W83224  26.204  14.044  23.807 -0.2056  0.1615 -0.2617
40172W        W83225  34.100  26.100  23.890  0.0685  0.0582  0.2136
40173W        W83226   8.598  26.319   8.537 -0.1297  0.0497 -0.0596
40174W        W83227  30.836  29.906  16.053  0.0978  0.1750 -0.0790
40175W        W83228   2.299  28.927  14.456 -0.1791 -0.3787  0.0592
40176W        W83229  26.986  20.956   6.038 -0.0459  0.1797  0.1311
40177W        W83230   8.508  29.130   2.536  0.2988 -0.1987  0.1126
40178W        W83231   7.742  21.903   5.449 -0.1816  0.0824  0.1284
40179W        W83232   2.149  20.862   2.700 -0.0374 -0.0431 -0.1224
40180W        W83233   1.141  17.044  14.558 -0.1691 -0.0305 -0.0620
40181W        W83234   3.631  14.922   9.186  0.0983  0.2157  0.2063
40182W        W83235  28.848  15.067   2.751 -0.3103 -0.0503  0.0919
40183W        W83236   6.970   7.226  15.812  0.0673  0.2834 -0.2672
40184W        W83237  17.908   3.125  24.282 -0.1401 -0.2409 -0.0085
40185W        W83238  15.548  34.415  24.203 -0.0661 -0.1064 -0.1432
40186W        W83239  30.698   8.514   4.630  0.0979  0.1162 -0.1688
40187W        W83240  17.462  26.693  27.608 -0.1343 -0.2082 -0.0577
40188W        W83241  32.537  24.521  14.719 -0.2946  0.0976 -0.1065
40189W        W83242  15.266  27.097  18.268 -0.1118 -0.0326 -0.1564
40190W        W83243  26.896  24.963   1.245  0.0508  0.1889  0.1544
40191W        W83244   2.142   6.506  24.067  0.3683  0.1616  0.1119
40192W        W83245   2.077  10.399   4.786  0.2021  0.0035  0.1724
40193W        W83246  18.684  23.808   1.805  0.4543 -0.1150  0.1163
40194W        W83247  24.004  14.852  18.052  0.1936 -0.0887 -0.3687
40195W        W83248  10.130  15.476  24.179  0.1954  0.0467  0.0007
40196W        W83249   1.429   4.108  15.542  0.2591  0.1930 -0.4333
40197W        W83250   5.224   5.043  14.720 -0.1879  0.3334 -0.0215
40198W        W83251   6.713  16.242  22.298  0.0249 -0.0665 -0.1127
40199W        W83252  30.343  16.957  24.142  0.3380 -0.0563 -0.2085
40200W        W83253  31.633  23.161  19.934  0.0889 -0.1656 -0.2816
40201W        W83254  12.964  25.611  15.574  0.1028 -0.1327  0.2572
40202W        W83255   4.059  16.074  14.341 -0.2874 -0.0305  0.1423
40203W        W83256  28.421  22.957  16.512  0.1133 -0.0509 -0.2108
40204W        W83257   1.903  22.387   3.728  0.0999  0.0194  0.0416
40205W        W83258  31.773  22.605  17.461  0.1281  0.2698 -0.1836
40206W        W83259   0.435  20.132  16.199  0.0652 -0.1060  0.2219
40207W        W83260  26.476  25.570  22.383  0.1849 -0.0924 -0.0487
40208W        W83261  25.202  23.759  21.192 -0.0637  0.0778  0.3820
40209W        W83262   5.107  18.675   4.339 -0.3022  0.0126 -0.0374
40210W        W83263  22.779   1.845  27.023  0.2089 -0.0880 -0.4616
40211W        W83264  22.210   1.725   4.642 -0.0743  0.1156 -0.0629
40212W        W83265  23.524  26.084  23.780 -0.0573 -0.1147 -0.1831
40213W        W83266  28.165  26.653  14.761 -0.0894 -0.1758  0.0593
40214W        W83267  13.984   6.718  17.388  0.0729 -0.2465  0.0141
40215W        W83268  14.459  21.054  18.987  0.0171  0.2856 -0.1732
40216W        W83269   3.981   2.402   5.263 -0.3005  0.1166  0.1315
40217W        W83270  22.078  22.934  25.503  0.0501 -0.0421  0.0021
40218W        W83271  28.952  14.792  15.970 -0.0794  0.2120  0.1212
40219W        W83272  23.949  21.197  15.059 -0.0664 -0.0351  0.0822
40220W        W83273   0.953  10.408  25.921  0.2384  0.3028 -0.0794
40221W        W83274   1.181  24.900  20.947  0.1176  0.0810 -0.0725
40222W        W83275   1.781   2.683   2.488  0.3249 -0.1290  0.0460
40223W        W83276  21.645   8.016  27.750  0.1184 -0.0474  0.0140
40224W        W83277   8.491  27.063  14.816  0.1620  0.0236 -0.1187
40225W        W83278  22.708  23.862  19.543 -0.0121  0.0741  0.0210
40226W        W83279  32.200   5.481  14.696 -0.1053 -0.1117  0.0478
40227W        W83280  33.452  26.237  24.938 -0.3130  0.0157 -0.0024
40228W        W83281  27.005  19.383  17.651 -0.0964  0.1527  0.1454
40229W        W83282  33.131  18.821  28.674  0.1532  0.2353 -0.2753
40230W        W83283  21.171   0.075  18.047  0.0601 -0.4086  0.2747
40231W        W83284   5.560  12.621  17.093 -0.0908  0.0764  0.2340
40232W        W83285   5.819   9.570  18.950 -0.0652  0.1607  0.0413
40233W        W83286   7.391  11.411  17.773 -0.0094 -0.1239  0.2787
40234W        W83287   4.083  18.179   4.154  0.0634  0.1746 -0.0025
40235W        W83288   8.870  23.839  20.521  0.1798  0.0996 -0.1250
40236W        W83289  32.524  25.404  15.908 -0.0343 -0.1578  0.0914
40237W        W83290   4.768  15.173  13.949  0.1317  0.1551 -0.0025
40238W        W83291  26.571  27.389  16.888 -0.0465 -0.0553 -0.1722
40239W        W83292   0.249  29.332  24.960 -0.1201  0.2149 -0.3452
40240W        W83293   5.004  22.053  21.426 -0.0463  0.0756  0.2170
40241W        W83294  11.893  26.527  17.998  0.0334  0.0852 -0.0868
40242W        W83295   2.645  27.757  13.522 -0.0107  0.0361  0.1254
40243W        W83296   4.395  18.760  29.078  0.1027 -0.0694  0.2978
40244W        W83297   2.270  23.452  23.154  0.3477  0.1135  0.2694
40245W        W83298  25.737  28.118  28.194 -0.1432 -0.1608  0.2314
40246W        W83299  28.163  32.406   3.036  0.0394 -0.3661 -0.1955
40247W        W83300  11.579  31.110   1.979  0.1028 -0.1387  0.0625
40248W        W83301  32.153  16.695  18.801  0.5082 -0.0960 -0.0864
40249W        W83302  29.602  16.744  22.082 -0.0943 -0.0641 -0.1357
40250W        W83303   9.105  24.415  13.784  0.0603  0.2646  0.1928
40251W        W83304  26.144  32.303  15.411 -0.0413 -0.0093  0.3359
40252W        W83305   6.672  31.500  21.386  0.1849  0.0313 -0.1350
40253W        W83306  16.131  25.567   9.190 -0.0939  0.1359 -0.1555
40254W        W83307   0.235  16.214  25.759  0.3868  0.0480 -0.1438
40255W        W83308  24.613  25.041  21.978  0.0252 -0.1906 -0.2998
40256W        W83309   7.097   8.037  14.633  0.4675 -0.0711 -0.0785
40257W        W83310  34.120  32.617  27.405  0.1165  0.2893 -0.0390
40258W        W83311  12.878  27.938  18.987 -0.1428 -0.2142  0.0693
40259W        W83312  14.654  25.421  23.532 -0.1248 -0.2243 -0.0543
40260W        W83313   2.837  20.409  18.377  0.1305 -0.1569  0.1187
40261W        W83314  31.563   1.844  17.145  0.1589 -0.2002  0.1294
40262W        W83315  29.264   7.101  15.620 -0.1994 -0.1281  0.0961
40263W        W83316   1.245  22.222  28.655 -0.1287  0.1407  0.2255
40264W        W83317  24.048  29.007  22.645  0.0172 -0.0812 -0.0698
40265W        W83318  31.485  16.305  28.442 -0.5007  0.0622 -0.1789
40266W        W83319   6.735  13.206  23.105  0.2988  0.2040  0.1081
40267W        W83320  13.643  11.599  25.529  0.0948  0.0948 -0.0514
40268W        W83321  28.388  11.254   5.306 -0.1152  0.0225  0.0260
40269W        W83322   3.317  23.294  14.139 -0.1616  0.0901  0.1112
40270W        W83323   6.436   8.534  22.779  0.0942 -0.0408  0.0745
40271W        W83324  27.550  32.957  16.383 -0.2298 -0.1969 -0.1558
40272W        W83325   1.517  32.608  16.231  0.0903  0.0325  0.1129
40273W        W83326   1.076  19.354  28.585  0.3240 -0.1373  0.0518
40274W        W83327  29.221   9.296  17.128 -0.0173 -0.1393 -0.1156
40275W        W83328  27.188  23.083  14.928 -0.0548 -0.2807  0.0774
40276W        W83329   5.598  15.760   0.072  0.3400 -0.0555 -0.0441
40277W        W83330   4.823  28.882  14.868 -0.1263  0.0292 -0.0039
40278W        W83331   5.487  20.457   2.358  0.1151 -0.2033  0.0937
40279W        W83332   1.743  33.908  25.278 -0.0436  0.2990  0.1453
40280W        W83333  30.069  19.718  24.630 -0.0402 -0.0925  0.1172
40281W        W83334  29.552  16.460  15.762 -0.3520 -0.1903  0.0439
40282W        W83335  18.950  11.615  23.232  0.0585  0.0630  0.3075
40283W        W83336  20.312  21.510  25.924  0.0689  0.0151 -0.1519
40284W        W83337  27.910  31.427  19.368  0.2895  0.0888  0.3728
40285W        W83338  29.697  12.595  17.558  0.1201 -0.2224  0.1207
40286W        W83339  28.055  32.744  14.378 -0.2225 -0.5024 -0.0336
40287W        W83340   4.428  13.944  24.253 -0.0342  0.0223 -0.0556
40288W        W83341  18.307  25.665  20.181 -0.0984 -0.1454 -0.1501
40289W        W83342  29.999  22.619  16.099 -0.5494  0.2139  0.2335
40290W        W83343  32.086  17.884  13.755  0.1518  0.1501 -0.1612
40291W        W83344  24.517  31.390  13.600 -0.0669  0.0957 -0.1174
40292W        W83345  31.924  19.766  20.493 -0.4183 -0.1938  0.1539
40293W        W83346  30.919  29.058   8.467  0.0102  0.2961 -0.1074
40294W        W83347  29.484   1.650  15.911  0.0571 -0.1407 -0.4499
40295W        W83348  34.194  28.604   7.319 -0.1923  0.2338 -0.2191
40296W        W83349   4.128  16.251  20.826  0.0064  0.4044 -0.0302
40297W        W83350  31.397  19.726  17.472 -0.0780  0.0211 -0.0157
40298W        W83351  21.630  18.077  19.278 -0.1983 -0.1391 -0.2728
40299W        W83352  27.980  30.107  16.478 -0.1990 -0.0354 -0.0838
40300W        W83353  30.341  33.625  24.829  0.1916 -0.1028  0.2234
40301W        W83354   5.895  16.223  23.428 -0.0104  0.0485  0.2145
40302W        W83355  21.031  30.816  18.745  0.0017  0.1563 -0.0929
40303W        W83356  26.130  11.971  18.376  0.0678 -0.2088 -0.2072
40304W        W83357  33.825  32.316  27.913  0.2534  0.0005 -0.2980
40305W        W83358   5.664   0.696   8.890 -0.2170 -0.2554 -0.1297
40306W        W83359  29.157   8.327  18.302  0.1033  0.1315 -0.1373
40307W        W83360   6.058   5.078   9.969  0.2011  0.0715  0.0621
40308W        W83361  28.484  31.723  14.676 -0.2091 -0.0253  0.0590
40309W        W83362   6.532  33.907  15.637  0.0772 -0.2556 -0.2009
40310W        W83363   0.646  14.301  28.315  0.3287 -0.2548 -0.3085
40311W        W83364  26.906  26.834  23.587  0.0140  0.2938 -0.1674
40312W        W83365  13.863  24.361  23.197  0.0988  0.1151  0.0122
40313W        W83366  12.581  12.559  17.369  0.3609  0.1798  0.1291
40314W        W83367   0.612  18.658   1.278  0.2143  0.2642  0.0708
40315W        W83368  26.182  23.185  24.059 -0.0574 -0.0918  0.1729
40316W        W83369   5.135   9.828  15.681  0.1716 -0.0355 -0.1478
40317W        W83370  28.924  30.057  13.749  0.2790 -0.1660  0.0209
40318W        W83371   4.580  14.749  19.687 -0.3037  0.2286 -0.1590
40319W        W83372   9.988   1.035   0.977  0.0681 -0.0939  0.0019
40320W        W83373  28.067   2.560  17.124 -0.0502 -0.2427 -0.2437
40321W        W83374   6.846   3.347   0.055  0.1475  0.1552  0.0585
40322W        W83375  31.709  34.498   2.850  0.1329 -0.1358  0.0396
40323W        W83376   0.355  15.445  13.132  0.1528  0.0568  0.3760
40324W        W83377  11.297  27.942  20.096 -0.0714 -0.1319 -0.0305
40325W        W83378  31.463  13.004  19.938  0.0889  0.0185  0.1152
40326W        W83379   1.526  25.308  20.992  0.3257  0.2049 -0.1235
40327W        W83380   9.991  34.513  18.586 -0.0245  0.1574  0.2457
40328W        W83381   2.635  20.614  19.770  0.1806  0.0539  0.0072
40329W        W83382   1.105  11.982  17.958 -0.2886  0.0576  0.1997
40330W        W83383   7.946  24.902  22.359  0.2172 -0.1820  0.0187
40331W        W83384  14.922  29.522  22.606 -0.1011  0.2112 -0.0297
40332W        W83385  21.062   4.339  19.633  0.3291 -0.0464 -0.1861
40333W        W83386  13.828  20.682  20.355 -0.1570 -0.3366 -0.0840
40334W        W83387  13.260  33.062  19.604 -0.1051 -0.0591 -0.1554
40335W        W83388  14.599  19.390  13.929  0.0077  0.0720 -0.0420
40336W        W83389  27.517  20.166  20.589  0.1442 -0.1465 -0.0670
40337W        W83390  29.232   1.690   3.652 -0.1509  0.6690  0.2706
40338W        W83391  22.511   4.945  17.215 -0.2401 -0.6114  0.2882
40339W        W83392  32.146  23.854  24.770  0.0570  0.2383  0.2174
40340W        W83393  29.526  21.417  17.261  0.0110 -0.1706  0.0007
40341W        W83394   0.559  24.002  14.122 -0.1678  0.1718  0.2650
40342W        W83395  16.379  30.700   0.915  0.1757  0.0752 -0.0336
40343W        W83396  19.204  21.028  22.602  0.0000  0.0756 -0.1753
40344W        W83397  24.826  26.791  17.602  0.2277 -0.0257  0.0364
40345W        W83398  12.472  17.734  16.700  0.0292  0.0714 -0.2057
40346W        W83399  29.296   0.495  24.227 -0.0973 -0.1793  0.1368
40347W        W83400  21.034   1.418  21.377  0.0603  0.1563  0.1025
40348W        W83401  28.731   2.235   3.990  0.0207  0.2044  0.1160
40349W        W83402  25.196  17.428  17.621 -0.1864 -0.4893 -0.1748
40350W        W83403  18.260  31.779  24.607  0.1769  0.1366  0.0459
40351W        W83404  27.049  29.240  16.617  0.2031  0.0396 -0.0296
40352W        W83405  28.553  31.701  23.439 -0.0558 -0.1274 -0.0765
40353W        W83406   1.229  22.176  25.167 -0.0224  0.0505  0.0361
40354W        W83407  33.459  11.877  25.097  0.0693  0.0907 -0.0893
40355W        W83408  18.561  10.128  17.714 -0.0198 -0.0992  0.0517
40356W        W83409  32.398  29.132  15.795  0.0878  0.2059 -0.2080
40357W        W83410  23.695   8.352  17.143 -0.0684  0.0182  0.0471
40358W        W83411   5.642  25.093   6.520 -0.1197 -0.0800  0.2011
40359W        W83412  31.470  11.687  21.558  0.0417  0.2615 -0.2883
40360W        W83413  15.697  29.412  14.803 -0.2624 -0.1792 -0.0515
40361W        W83414   8.056  12.226  19.760 -0.2123  0.2828  0.0866
40362W        W83415  28.587   8.939   0.188  0.0911 -0.0322 -0.2123
40363W        W83416  13.267  25.805  14.455  0.1072  0.1037  0.1000
40364W        W83417  31.894  22.041   3.962  0.2561  0.1218 -0.1192
40365W        W83418  28.901  29.264  15.927  0.0603 -0.2953 -0.1973
40366W        W83419  15.144   8.063   3.039 -0.0722 -0.0082  0.1274
40367W        W83420   3.652   3.315  18.773  0.0893  0.0554  0.2494
40368W        W83421   2.049  12.011  19.950  0.1022  0.1895 -0.0550
40369W        W83422   0.895   5.619  15.358  0.2241 -0.0847  0.3245
40370W        W83423  23.432  11.137  22.418 -0.2130  0.1683 -0.3624
40371W        W83424   1.003  29.349  19.320 -0.2085  0.0214 -0.1596
40372W        W83425  23.229  25.069  15.253 -0.0276 -0.0748  0.1332
40373W        W83426  34.479  26.761  24.323 -0.2926 -0.1552  0.2701
40374W        W83427   0.841  30.000  28.002 -0.1661  0.0026  0.1656
40375W        W83428   1.591  34.488  14.037  0.2196  0.0302 -0.1605
40376W        W83429   6.757   0.686  18.084  0.2921 -0.0306  0.0953
40377W        W83430   4.761  17.456  14.744 -0.1588  0.1082 -0.1081
40378W        W83431  20.877  32.572  18.729  0.0651 -0.1856  0.1526
40379W        W83432  28.375  27.459  18.330 -0.2315 -0.2789 -0.3286
40380W        W83433  13.841  30.021  16.091 -0.4578 -0.0848 -0.0383
40381W        W83434  15.645   3.846  19.058 -0.1369  0.1095  0.4319
40382W        W83435  13.136  10.002  14.858 -0.1342  0.1059  0.0106
40383W        W83436   0.710  23.703  13.562 -0.1825 -0.0864  0.2497
40384W        W83437  18.226  31.492  17.803 -0.0072  0.0256 -0.0082
40385W        W83438  30.913  20.088  17.630 -0.2422 -0.1977 -0.0554
40386W        W83439   5.206  15.665   6.893  0.0156  0.0062  0.2918
40387W        W83440   3.005  25.611   1.887  0.1625  0.0174  0.1077
40388W        W83441  29.807  21.174  25.126  0.1760  0.0977 -0.2140
40389W        W83442  17.311  31.499  18.073  0.2060  0.2746  0.0964
40390W        W83443  14.716   0.197  18.666 -0.1372  0.2376 -0.1379
40391W        W83444  28.214  26.300  18.665  0.0945 -0.2651  0.0556
40392W        W83445  20.660  23.994  24.935  0.1356 -0.0408  0.0828
40393W        W83446   2.142  29.989  28.412 -0.0850 -0.0031  0.1878
40394W        W83447  26.793  16.889  18.380  0.3589  0.0299  0.1141
40395W        W83448  26.766  16.652  20.646 -0.2822  0.0926 -0.1569
40396W        W83449   4.830  30.229  18.958 -0.2587  0.0507  0.0803
40397W        W83450   7.681  30.278  12.770 -0.0152  0.0249 -0.2076
40398W        W83451   2.235   5.063  19.170 -0.1586 -0.0163  0.0718
40399W        W83452  28.042  34.408  19.388 -0.0297 -0.2618 -0.2911
40400W        W83453  20.337   7.170  20.508  0.2379 -0.2148  0.2917
40401W        W83454  27.239  15.493  24.524 -0.1445 -0.0163 -0.2709
40402W        W83455  25.838   3.499  17.313  0.3152 -0.0572 -0.1790
40403W        W83456  34.137  32.356  22.429  0.1930 -0.2430  0.0814
40404W        W83457  23.475  13.247  16.775 -0.1515 -0.1329 -0.0243
40405W        W83458  32.366  34.231  23.728  0.1221 -0.0478  0.1218
40406W        W83459  26.503  25.733  18.491 -0.0886  0.1912 -0.2304
40407W        W83460   4.652  27.138  14.189  0.1758 -0.2659  0.1290
40408W        W83461   9.152  27.216   0.851 -0.0561 -0.0193 -0.0115
40409W        W83462   5.896  21.672  14.828  0.2392  0.0348 -0.2736
40410W        W83463  30.199  15.106  26.305  0.0256  0.2091  0.0199
40411W        W83464  12.139  28.463   1.453 -0.1194 -0.2548  0.1581
40412W        W83465   3.787  15.264  15.499 -0.2351 -0.1119  0.0287
40413W        W83466  27.616  27.697  15.544  0.0193 -0.1729  0.0389
40414W        W83467  32.671  29.472  15.487  0.0429  0.1412 -0.0863
40415W        W83468  29.211  15.792  23.556 -0.2460 -0.1796 -0.0958
40416W        W83469   0.625  31.498  15.155  0.3406  0.0002 -0.4498
40417W        W83470  30.641  24.657  22.228  0.2468 -0.1546  0.3328
40418W        W83471  19.998  21.929  17.580  0.1204  0.2976 -0.1707
40419W        W83472  28.982  17.521  22.252 -0.2094  0.0523  0.0801
40420W        W83473  26.702  30.895  21.218 -0.1334  0.0438  0.2428
40421W        W83474  34.021  22.045  15.351 -0.0745  0.2215  0.0725
40422W        W83475   7.070  21.408  25.464  0.0384 -0.0667  0.0076
40423W        W83476   6.668   2.016  27.054  0.4521  0.2340 -0.0387
40424W        W83477  18.940  21.790  19.326  0.4182  0.5495  0.0131
40425W        W83478  13.326  26.459  15.827 -0.0008 -0.0461  0.1779
40426W        W83479  24.566  20.234  21.148 -0.1574 -0.0864  0.2788
40427W        W83480  34.324  30.457  19.239 -0.1064 -0.0341  0.2582
40428W        W83481   0.193  29.114   4.745  0.1640  0.1548  0.0923
40429W        W83482  27.478  26.747  15.528 -0.1278 -0.1792 -0.1691
40430W        W83483   0.946   1.016  20.553  0.0704 -0.1286  0.5592
40431W        W83484  25.860  20.641  17.464 -0.0521 -0.0750 -0.2343
40432W        W83485  33.172  26.270  22.983 -0.1238  0.1696 -0.2223
40433W        W83486  27.263  29.314  22.518 -0.1174 -0.1070  0.0435
40434W        W83487  14.469  26.373  26.153  0.2396 -0.2207 -0.0947
40435W        W83488  11.435   0.377  18.048 -0.1094  0.1052 -0.0590
40436W        W83489   8.440   5.479  19.923 -0.1333 -0.0206 -0.4158
40437W        W83490  31.184   5.929  19.611  0.1523  0.2583 -0.1944
40438W        W83491   3.515  26.938  15.799  0.0425 -0.2070 -0.0641
40439W        W83492   6.932  11.092  21.734  0.0620 -0.3261  0.0021
40440W        W83493   6.072  28.305  13.684  0.2926  0.1766 -0.4687
40441W        W83494   3.953  27.617   9.843  0.0141  0.1039  0.0540
40442W        W83495  29.670  25.887  20.216  0.1214 -0.1138  0.2272
40443W        W83496   2.990  23.003  19.830 -0.1118 -0.1408  0.1410
40444W        W83497  28.604  19.334  16.357 -0.2342 -0.0061  0.1929
40445W        W83498  10.493  34.203  18.090  0.0161 -0.2283  0.1025
40446W        W83499   0.464  18.644  17.048 -0.0878 -0.1613 -0.1203
40447W        W83500  28.736  19.567  15.616 -0.0797 -0.0796  0.2257
40448W        W83501  23.230  28.482   1.520  0.1320 -0.2004  0.1057
40449W        W83502  32.625  33.197  19.524  0.2597  0.2944 -0.3681
40450W        W83503  25.220   3.192  26.652 -0.3389  0.0852 -0.2220
40451W        W83504  32.999  29.419   3.569 -0.0175 -0.1219 -0.3274
40452W        W83505  15.670  27.274   8.921 -0.1787 -0.1288 -0.1278
40453W        W83506  18.763  27.570  27.863 -0.4180 -0.0119 -0.2696
40454W        W83507  28.160  12.913  26.479  0.4997 -0.0400 -0.1537
40455W        W83508  32.565   5.526  24.331 -0.0205 -0.1728  0.0163
40456W        W83509  21.681  17.649  14.921 -0.4985  0.3020 -0.2545
40457W        W83510  22.968  20.316  17.250 -0.1505 -0.3121 -0.0660
40458W        W83511   2.355  18.471  20.419 -0.5569 -0.0493  0.0324
40459W        W83512   2.669  20.686   1.718  0.1775 -0.0419  0.3403
40460W        W83513  18.578  12.257  21.879  0.0515  0.0540  0.3152
40461W        W83514   1.646  22.812  14.763 -0.0764  0.0595  0.0733
40462W        W83515  24.277   0.076  20.970  0.2677 -0.3351 -0.1230
40463W        W83516  26.827  34.404  22.788  0.0617 -0.1572  0.0757
40464W        W83517   1.908  24.235  24.928 -0.0329 -0.1266 -0.0131
40465W        W83518   1.815  19.720  28.772  0.1944 -0.0068  0.1617
40466W        W83519   4.833  10.041  27.431  0.1968  0.1997 -0.2968
40467W        W83520  24.329  24.553  14.854 -0.2783  0.1303  0.1598
40468W        W83521  28.728  26.650  21.637  0.1789  0.1514 -0.2886
40469W        W83522   9.264  16.425   7.132  0.2359 -0.1587  0.2765
40470W        W83523  27.664  26.365  16.990 -0.0752 -0.2720  0.1652
40471W        W83524  31.992  25.997  15.642 -0.0752 -0.1316 -0.3735
40472W        W83525  25.718  10.320  20.595 -0.0872  0.1697 -0.0499
40473W        W83526  22.484  28.436  15.302 -0.3129 -0.0939 -0.1829
40474W        W83527  22.458   2.546  20.962 -0.1061 -0.4912 -0.0063
40475W        W83528  17.397  22.113  17.163 -0.4542 -0.2542  0.0800
40476W        W83529  27.540  10.442  14.426 -0.3094  0.1813  0.0675
40477W        W83530   4.053   1.820  16.507  0.0517 -0.0366 -0.3601
40478W        W83531  26.315  27.437  15.746 -0.0890 -0.3381 -0.1398
40479W        W83532   0.657   4.988  13.885 -0.2128  0.0487  0.1752
40480W        W83533   1.465  30.867  19.307 -0.0821 -0.0543  0.0123
40481W        W83534  21.180  19.813  20.407  0.1395  0.1768 -0.2092
40482W        W83535  21.134  18.962  27.279 -0.1117  0.1473 -0.0639
40483W        W83536  32.912  26.138  17.595 -0.0426 -0.1686 -0.0686
40484W        W83537  31.320  30.647  17.385 -0.1921 -0.0410  0.0730
40485W        W83538  32.505  28.597  15.179 -0.0685  0.1959  0.1863
40486W        W83539  30.901  33.922  13.842  0.0056 -0.0364  0.2971
40487W        W83540   3.282   4.370  21.264  0.0021  0.2533  0.1293
40488W        W83541  30.712   0.965  13.734  0.2950  0.2026 -0.1300
40489W        W83542   6.739   5.325   2.023  0.3088  0.0584  0.1192
40490W        W83543  14.224  21.138  28.883  0.1075 -0.0958  0.1861
40491W        W83544   9.864  22.368   1.550  0.0953  0.0104  0.1154
40492W        W83545   2.305  10.731  17.323  0.0805 -0.2396 -0.3743
40493W        W83546   0.352  22.564  17.004 -0.0094 -0.2909  0.3961
40494W        W83547  18.439   7.125  25.172 -0.0466 -0.0904  0.1111
40495W        W83548   6.097  22.471  24.415  0.2972  0.3439  0.0293
40496W        W83549  14.562   0.067  19.219 -0.1089 -0.5374 -0.0411
40497W        W83550  27.762   2.078  23.159 -0.0149 -0.0756  0.1872
40498W        W83551  26.694  27.440  15.398  0.4362 -0.1157  0.1641
40499W        W83552   7.786  31.185   4.684  0.0449 -0.2714 -0.0410
40500W        W83553  28.680  22.148   3.818  0.0527 -0.0585  0.1185
40501W        W83554  10.133  32.507  21.147  0.0058  0.0750  0.1547
40502W        W83555  33.710  27.331  17.050  0.1150  0.1104 -0.2607
40503W        W83556  25.606   0.847  28.123 -0.5633 -0.0716  0.2306
40504W        W83557  28.646  20.690  16.553 -0.1094  0.1192 -0.2495
40505W        W83558  34.194  30.210  17.920  0.2476 -0.1442  0.0508
40506W        W83559  28.381  33.692   3.046  0.2344 -0.3965 -0.4582
40507W        W83560   0.552  18.569  14.533  0.1517 -0.0950 -0.3022
40508W        W83561  32.360  25.678  16.481  0.0885 -0.0408  0.2464
40509W        W83562  29.633  24.017  16.362  0.1716 -0.3549  0.2177
40510W        W83563   1.879  20.341  14.919  0.4450 -0.1468 -0.2622
40511W        W83564  19.161  24.734   0.007 -0.0237  0.2485 -0.4024
40512W        W83565   5.005  12.473  19.095 -0.1169 -0.0673  0.2875
40513W        W83566  17.414  11.663  26.480 -0.0247 -0.0501  0.0971
40514W        W83567  33.918  21.452  22.788  0.2305 -0.3022 -0.2100
40515W        W83568   4.865  31.878  18.205  0.0535 -0.0388 -0.0898
40516W        W83569  13.339  22.758  18.482  0.0960 -0.2424  0.1464
40517W        W83570   5.806  23.128  14.585 -0.1777  0.2801  0.0459
40518W        W83571   3.084   5.434  18.270  0.2061  0.2781 -0.0922
40519W        W83572  28.148  25.455  17.095  0.1225  0.3290 -0.2564
40520W        W83573  26.774  26.143  22.223 -0.1258  0.1168  0.2043
40521W        W83574  28.788  25.073  14.401  0.0784  0.2146 -0.0491
40522W        W83575  24.277  22.247  13.590  0.0357  0.1775 -0.1482
40523W        W83576  34.606  30.556  13.881  0.3391  0.1374  0.1692
40524W        W83577   4.795  23.801  21.287  0.2833 -0.0279  0.1796
40525W        W83578   4.246  31.633  19.598  0.2500  0.0241 -0.2499
40526W        W83579   0.143  17.982  25.496 -0.4569 -0.0894  0.2504
40527W        W83580   3.485  10.382  17.975  0.0525  0.2423 -0.4187
40528W        W83581  34.430  33.997  18.924  0.3487 -0.0108  0.0328
40529W        W83582   7.461  33.065  14.648 -0.0093  0.0181 -0.0715
40530W        W83583  14.201  30.382  14.707 -0.2528 -0.1248  0.2910
40531W        W83584  28.472  29.582  18.454  0.1699  0.0131 -0.0338
40532W        W83585  32.996  12.527  16.144 -0.0055  0.5378 -0.2292
40533W        W83586  24.253  31.084  20.442 -0.1950 -0.1395 -0.2354
40534W        W83587   3.999   7.523  23.813 -0.0728  0.2428  0.0288
40535W        W83588  20.935  18.542  25.383 -0.1094 -0.2581 -0.0811
40536W        W83589  21.888  14.223  28.272 -0.1517 -0.0853  0.1900
40537W        W83590   3.474  15.691  18.807 -0.2359 -0.0721  0.4240
40538W        W83591   7.188  13.494  18.032  0.0192  0.1290  0.0757
40539W        W83592  33.783   3.399  22.454 -0.1903 -0.0618  0.0872
40540W        W83593  30.179  30.396  19.694 -0.0144 -0.1029  0.1632
40541W        W83594   8.002  26.365  22.964  0.0503  0.1297 -0.5637
40542W        W83595  31.172  21.851  17.117  0.0933 -0.2340 -0.2140
40543W        W83596  25.573   3.719  24.453 -0.0957  0.1591 -0.0472
40544W        W83597   2.726  25.911  19.265 -0.0148  0.1110  0.1127
40545W        W83598  30.922  28.689  21.183  0.1683 -0.2063 -0.0362
40546W        W83599   8.926  33.490   7.077  0.0496  0.2099  0.0889
40547W        W83600   0.164  12.007   1.444 -0.1516  0.1620 -0.0843
40548W        W83601  29.510  20.965  17.047 -0.1524  0.0968  0.1383
40549W        W83602  31.133  12.359  28.098 -0.0109  0.2377 -0.0584
40550W        W83603  27.755   2.689  19.348  0.2083  0.0632  0.2049
40551W        W83604  16.228  24.889  25.226  0.0783  0.1122  0.2703
40552W        W83605  25.714   7.731  23.752  0.3725 -0.1098  0.0694
40553W        W83606  30.704  30.182  14.705  0.1325 -0.1293  0.3032
40554W        W83607   8.317  30.904  14.308  0.1681 -0.0378 -0.1719
40555W        W83608  23.143  20.722  16.453 -0.1261 -0.0637 -0.0511
40556W        W83609  19.872  29.472  18.079  0.1427  0.0342  0.0755
40557W        W83610  10.582  26.216  23.094  0.2997  0.0239 -0.0865
40558W        W83611  23.778  28.620  17.744  0.0661 -0.0595  0.0778
40559W        W83612   9.936  22.266  16.362  0.0290 -0.3241  0.1764
40560W        W83613  29.580  16.440  25.227 -0.0710 -0.0967 -0.1345
40561W        W83614  25.886  34.168  18.294 -0.0057  0.0589 -0.0380
40562W        W83615  18.188  19.403   7.456  0.0128 -0.1543 -0.2249
40563W        W83616   3.085  22.561  24.446  0.2477  0.0524 -0.0789
40564W        W83617   3.379  14.982  19.587  0.2602 -0.0317 -0.2488
40565W        W83618  34.165   9.003  27.609 -0.0618  0.0744  0.1011
40566W        W83619  12.498  17.886  17.971 -0.2444 -0.2973 -0.0679
40567W        W83620   5.423   6.501  22.838  0.0377 -0.1754 -0.1850
40568W        W83621   4.721  27.829  18.715  0.0177 -0.2202 -0.1177
40569W        W83622  23.587  29.049   2.699 -0.2369 -0.2070 -0.0052
40570W        W83623  19.680  30.280  18.614 -0.1400  0.0977  0.1376
40571W        W83624  29.905  21.712  25.097 -0.1059  0.0192 -0.2403
40572W        W83625   5.423  23.446  26.253 -0.2818 -0.1541 -0.1481
40573W        W83626   8.620  30.247  17.677 -0.2734  0.1698 -0.2425
40574W        W83627  26.571   8.817  21.549 -0.0850 -0.0359 -0.3282
40575W        W83628   4.852  21.676  14.783  0.0515 -0.2352 -0.1393
40576W        W83629  34.348  34.229  23.804 -0.0612  0.0042  0.1821
40577W        W83630  26.986  15.327  23.606 -0.0185 -0.0571  0.0783
40578W        W83631  31.894  18.906  14.029  0.1067 -0.3761  0.0222
40579W        W83632  29.178  27.573  28.690 -0.0592 -0.0011 -0.2857
40580W        W83633  32.011   4.984  20.243 -0.1525  0.2285 -0.0023
40581W        W83634  22.802   6.369  26.125  0.0955 -0.3748 -0.2018
40582W        W83635  28.125  24.310  28.106  0.0779  0.2272  0.2620
40583W        W83636  24.040  19.837  23.799 -0.1826 -0.1683 -0.2340
40584W        W83637  16.712  20.407  14.848 -0.1905  0.3492  0.0080
40585W        W83638  10.638  28.969  15.174  0.0777 -0.2182 -0.1555
40586W        W83639  32.144  16.699  13.782  0.0183  0.3398 -0.4635
40587W        W83640  33.394  15.253  23.593 -0.4336 -0.1384 -0.0759
40588W        W83641  28.378  24.760  29.095  0.0286 -0.3095  0.1010
40589W        W83642  32.339   7.766  27.954  0.0636  0.0505  0.0241
40590W        W83643  13.899  27.916  28.864 -0.3677  0.2982  0.0831
40591W        W83644  11.494  27.463   1.782 -0.2090  0.1708 -0.0237
40592W        W83645   7.480   2.736  24.318 -0.0508  0.3680  0.0963
40593W        W83646  11.277  26.535  28.287  0.2104  0.1612  0.2600
40594W        W83647  24.492  19.390  13.984  0.0714 -0.2875 -0.1713
40595W        W83648   2.691  27.961  22.633  0.0292 -0.0870 -0.0398
40596W        W83649   2.693  15.861   3.353 -0.2308  0.2217  0.0598
40597W        W83650  22.865  23.769  16.748  0.1407 -0.1442  0.1129
40598W        W83651  28.816  23.493  25.042  0.2778 -0.1181 -0.3363
40599W        W83652  29.262   0.551  19.699 -0.1275  0.0782  0.1045
40600W        W83653  22.665  28.133  21.776 -0.4283  0.3342 -0.3139
40601W        W83654  31.057  31.479  14.317 -0.0996 -0.3525  0.2938
40602W        W83655  15.016  22.919  14.016 -0.3900  0.1162 -0.1377
40603W        W83656  22.342  17.897  15.687  0.0642  0.4802 -0.2113
40604W        W83657  21.540  21.542  24.599 -0.2852  0.0234 -0.0518
40605W        W83658  26.863  29.362   5.438  0.1663 -0.2219 -0.1228
40606W        W83659   1.630  14.018  17.859 -0.1862  0.0066 -0.2802
40607W        W83660  25.720  26.649  22.472  0.1666  0.2577 -0.0757
40608W        W83661  23.540  20.689  18.821 -0.2434  0.0330  0.2444
40609W        W83662   8.190  17.946  15.718  0.4199 -0.3313 -0.2117
40610W        W83663   3.025   1.960  17.233  0.1381 -0.0182 -0.1025
40611W        W83664  24.262  22.905   0.331  0.2656 -0.0992  0.2209
40612W        W83665  27.830   7.905  16.617  0.1761 -0.1188 -0.0706
40613W        W83666   5.086  21.748  15.207  0.0171 -0.1715 -0.0812
40614W        W83667   8.910  20.475  18.790  0.1062 -0.0645 -0.2751
40615W        W83668  15.519   7.766  28.293 -0.2736 -0.0666 -0.0960
40616W        W83669   5.022  22.056  15.599  0.0790 -0.1819  0.0099
40617W        W83670  24.572  29.204  25.310 -0.0366  0.0690 -0.1781
40618W        W83671   7.301   8.956  21.800  0.2701  0.0400 -0.2089
40619W        W83672  14.470  31.992  27.652  0.0461 -0.1476  0.2337
40620W        W83673  14.957  27.760  18.155  0.2234 -0.0285  0.0111
40621W        W83674  27.629   1.849  28.792 -0.3057  0.0868 -0.1773
40622W        W83675  29.688  30.124  13.510  0.1472  0.1057 -0.0837
40623W        W83676   4.539  29.276  17.049 -0.2030 -0.0908  0.3076
40624W        W83677  18.608  25.426  19.805 -0.0714  0.0026 -0.1503
40625W        W83678  31.807   6.193  24.751  0.1705 -0.0134 -0.0119
40626W        W83679   5.385  18.860  27.593  0.1194  0.1839  0.1079
40627W        W83680  31.807  13.277  20.914 -0.1295  0.0311 -0.0601
40628W        W83681   1.423  28.993  22.721  0.0409  0.1540  0.0074
40629W        W83682   4.112  28.846  13.891  0.0358 -0.1567  0.2597
40630W        W83683   9.326  27.957   3.182  0.0103 -0.0238  0.2343
40631W        W83684  28.020  20.138  19.013  0.1673 -0.0221 -0.0713
40632W        W83685  32.110  21.763  27.407  0.0386 -0.4434  0.1333
40633W        W83686   0.276  28.230  14.664 -0.1028 -0.0002 -0.2457
40634W        W83687   8.193   3.628  20.812  0.2366 -0.0884  0.1807
40635W        W83688  20.002   0.868  17.075  0.1761  0.5862  0.2141
40636W        W83689   4.730  26.376  13.757  0.0713  0.0863 -0.2246
40637W        W83690  33.828  20.885  18.866  0.2003  0.0907 -0.0565
40638W        W83691  28.168  12.310   9.536  0.2575 -0.2086 -0.0515
40639W        W83692  16.766  26.242   3.617  0.1380  0.2345 -0.2639
40640W        W83693   0.355  29.872  20.322  0.0544  0.1324 -0.2325
40641W        W83694  12.740  17.799  14.524  0.4307 -0.3850 -0.0390
40642W        W83695  29.912  30.671   1.079 -0.0981  0.2922 -0.2976
40643W        W83696   6.599  18.007  18.671 -0.1023 -0.1434  0.4357
40644W        W83697  28.440  34.120   5.929 -0.1054  0.1002 -0.1593
40645W        W83698   9.740  25.675  26.164  0.0998  0.0527  0.1744
40646W        W83699  27.778  29.723  16.731  0.1955 -0.4873  0.1489
40647W        W83700  34.299   0.472  17.347 -0.1473  0.2770  0.1885
40648W        W83701   7.289  14.140  18.889 -0.0208  0.0258 -0.3773
40649W        W83702  30.220  27.763   5.667 -0.1975  0.1196  0.1683
40650W        W83703  30.679   8.601  24.415 -0.1383  0.0128  0.5425
40651W        W83704  26.583  23.472   0.290 -0.0176  0.4832 -0.0773
40652W        W83705  23.412  16.794   2.231  0.1167 -0.4526  0.0311
40653W        W83706   3.502  27.508   2.418 -0.1423  0.0701  0.2319
40654W        W83707  25.385  12.058  21.726 -0.3182 -0.1628 -0.0145
40655W        W83708  11.160  31.357  19.886  0.0715 -0.0878 -0.0140
40656W        W83709  21.062  28.103  15.927  0.0885  0.3354 -0.3652
40657W        W83710  15.481  13.850  24.155  0.2384  0.0630  0.1346
40658W        W83711   4.241  33.808  22.430  0.1465  0.0553  0.0085
40659W        W83712  24.334  26.566  17.518 -0.0415  0.0881  0.0477
40660W        W83713   1.542  16.550  15.377 -0.1538  0.1693 -0.2581
40661W        W83714  30.990  14.353  20.163 -0.2162  0.2329 -0.2247
40662W        W83715   7.800  22.375  13.279 -0.0063  0.0461  0.0036
40663W        W83716   5.142  30.746   1.247 -0.1740  0.0797 -0.0313
40664W        W83717  31.942  26.769  17.193  0.0875  0.1353 -0.0993
40665W        W83718  32.628  17.296  26.213  0.0533 -0.2373  0.0701
40666W        W83719   2.256  23.429  25.953 -0.1231 -0.1225 -0.3900
40667W        W83720  32.289  21.298  26.302 -0.0184  0.1254 -0.2002
40668W        W83721  20.749  32.666  13.669 -0.0311  0.1647  0.3249
40669W        W83722  24.248  33.145  22.346 -0.3309 -0.2962 -0.0563
40670W        W83723  34.289  12.427  16.004  0.0469 -0.0431 -0.2556
40671W        W83724   1.026  15.496   5.088 -0.1689  0.0227  0.0429
40672W        W83725   3.507   0.901  22.190  0.0768 -0.0540 -0.3157
40673W        W83726   1.058  21.273  16.296  0.0317 -0.1328 -0.0338
40674W        W83727  22.007  22.422   3.327 -0.1992  0.0037  0.0372
40675W        W83728  18.702  23.980  18.144 -0.1744  0.0263 -0.1644
40676W        W83729   5.799  14.998   3.043  0.0150 -0.2728 -0.1417
40677W        W83730  26.883  29.955   1.914  0.4514  0.0236 -0.1149
40678W        W83731  32.497  15.069   2.506 -0.1377 -0.1623 -0.0515
40679W        W83732  10.679  26.365  13.555 -0.2051  0.2516  0.0208
40680W        W83733  26.966  17.765  28.946 -0.3764 -0.0173  0.0483
40681W        W83734   2.257   8.882  23.337 -0.1617 -0.0845  0.1007
40682W        W83735  10.301   0.341  14.260  0.3275  0.3804 -0.1851
40683W        W83736   1.186  17.704  24.312 -0.2166 -0.0765  0.0692
40684W        W83737  30.329  25.511  22.224  0.1563  0.1906  0.1105
40685W        W83738  33.704  11.001  24.986  0.2276  0.2222 -0.2846
40686W        W83739  22.678  28.000  22.519 -0.0603  0.1841  0.1071
40687W        W83740  21.154  24.941  14.857  0.1853 -0.1011 -0.2887
40688W        W83741  30.129  12.757  17.258 -0.3786  0.0818  0.0525
40689W        W83742  29.045   5.174  28.048  0.0068 -0.3314  0.0538
40690W        W83743   0.189  20.191  15.221  0.2605 -0.0332 -0.0153
40691W        W83744  22.589  32.277  25.145  0.0930 -0.0906 -0.1785
40692W        W83745   0.109  31.657  13.317 -0.1346 -0.0032 -0.1243
40693W        W83746  26.923  18.718  15.745 -0.0704  0.0840  0.0264
40694W        W83747  10.375  21.952  27.425 -0.1505  0.2993  0.2611
40695W        W83748  15.564  26.247   1.835  0.0372 -0.1022 -0.0830
40696W        W83749  22.698  18.979  23.857  0.0500 -0.3595 -0.0545
40697W        W83750  24.460  26.449  24.754  0.0840  0.3944 -0.0704
40698W        W83751   4.040   9.493  19.964 -0.0474 -0.3104 -0.0981
40699W        W83752  21.183  25.710   3.395  0.0918 -0.4070  0.0296
40700W        W83753  28.641  28.209  23.356 -0.3004 -0.0673 -0.3224
40701W        W83754  17.082  22.894  15.420 -0.0191  0.1378  0.2609
40702W        W83755   1.616  16.872  20.983  0.0360 -0.2722 -0.1002
40703W        W83756  33.582  23.831  15.828 -0.0407 -0.1376 -0.2476
40704W        W83757  15.575  31.181  17.587  0.0799 -0.0903  0.2335
40705W        W83758   6.344   3.986   1.617 -0.4047 -0.2257  0.0255
40706W        W83759  28.368  16.263  19.183  0.0193  0.0249 -0.2112
40707W        W83760  31.077  28.990  20.136 -0.1393  0.2007 -0.1240
40708W        W83761   7.237  14.956  27.713 -0.1923 -0.0920 -0.1072
40709W        W83762  32.838  24.321  24.229  0.2504  0.3293 -0.2719
40710W        W83763  32.752   4.315   6.854  0.1224 -0.0402  0.1345
40711W        W83764  20.764   5.224  24.600 -0.0080 -0.3130 -0.0383
40712W        W83765  15.546   3.468  24.155  0.0321  0.2133  0.3767
40713W        W83766   2.338  24.287  18.166  0.0970  0.1953  0.2611
40714W        W83767  21.562  13.650   5.278  0.2819 -0.0090  0.1663
40715W        W83768   3.978  31.836   4.553  0.3326  0.0759  0.2818
40716W        W83769  30.577   7.818  28.859 -0.1655  0.0171  0.0081
40717W        W83770  31.510  15.884  27.302 -0.1765  0.2075 -0.0166
40718W        W83771  34.673   5.732  22.594  0.6192  0.3119 -0.2825
40719W        W83772  13.996  13.314  18.237 -0.2969 -0.2089  0.1219
40720W        W83773   2.352  23.677  20.037  0.1187  0.1289  0.0654
40721W        W83774   5.135  25.421  17.125  0.1984  0.1451 -0.3883
40722W        W83775  24.520  29.401  16.881 -0.0594  0.3655 -0.0545
40723W        W83776  30.988  25.687  15.604  0.0805 -0.3946 -0.1515
40724W        W83777   9.817  33.322   1.031  0.2818  0.0933  0.1651
40725W        W83778   2.880   4.930  14.435 -0.0253 -0.0727  0.3965
40726W        W83779  32.394  25.912   1.993 -0.1620  0.0408  0.2981
40727W        W83780   1.897  30.576  19.310  0.2625 -0.0848 -0.2193
40728W        W83781  33.625  18.553  15.848  0.1505 -0.0814  0.0058
40729W        W83782  32.720   2.728  26.063  0.1962  0.0925 -0.0719
40730W        W83783   4.893  22.144  22.580  0.1380 -0.2595 -0.3104
40731W        W83784  32.717   2.992   3.151  0.2825 -0.0494  0.0792
40732W        W83785  28.195   9.106  19.182 -0.2759 -0.0013 -0.2304
40733W        W83786   6.180  33.520  20.631 -0.3195 -0.1573 -0.0470
40734W        W83787  23.504  27.311  21.047  0.0352 -0.0001 -0.1736
40735W        W83788   2.033  18.119  26.189 -0.0154 -0.2199  0.1158
40736W        W83789  30.539  27.885  17.529 -0.1931 -0.0665 -0.0643
40737W        W83790  30.169  28.922   8.588  0.0631 -0.0405  0.1071
40738W        W83791   3.408   2.807  27.982 -0.2559 -0.2870  0.1613
40739W        W83792   9.858  22.411  13.483 -0.3046 -0.0179 -0.0217
40740W        W83793   2.838  20.420  22.631  0.0222  0.0516 -0.2683
40741W        W83794  25.328  11.255  18.383 -0.1558 -0.1895  0.0113
40742W        W83795   1.631  29.510  22.959  0.1918  0.0055 -0.2308
40743W        W83796   3.132  24.263   3.581  0.1260 -0.0921  0.0219
40744W        W83797  23.612  23.257   6.505  0.2301 -0.0948  0.0134
40745W        W83798  31.660  21.242   1.984  0.1371 -0.0757  0.2234
40746W        W83799   4.495  21.286  17.197 -0.0912 -0.2747  0.1288
40747W        W83800  32.800  15.018  14.795  0.0895 -0.2005  0.0686
40748W        W83801  30.640  22.122  26.665 -0.2637  0.1581  0.0227
40749W        W83802  20.301  30.574   0.929 -0.1704  0.2079 -0.1364
40750W        W83803   5.660  34.176  15.500  0.1967 -0.0188  0.3237
40751W        W83804  25.625  32.398  15.584 -0.3093  0.0472 -0.2158
40752W        W83805  17.220  26.184  21.307  0.2266  0.2410 -0.1841
40753W        W83806  20.076  29.624   5.720  0.0519 -0.0757  0.2492
40754W        W83807  32.725  15.004  16.699  0.2625 -0.2988 -0.1526
40755W        W83808  34.114  23.887  20.042  0.2260  0.2330 -0.2209
40756W        W83809  24.020   0.061  19.565  0.0438  0.2236 -0.1866
40757W        W83810  27.264   7.261  18.952 -0.0939  0.1445  0.2098
40758W        W83811  16.307  17.290  15.607 -0.1925 -0.0144  0.3000
40759W        W83812  18.884  26.246  19.513  0.0732  0.2704  0.1119
40760W        W83813  29.929   7.240  24.038 -0.2216  0.0750 -0.1562
40761W        W83814  33.912  24.049  24.468 -0.2759  0.2155 -0.0434
40762W        W83815  23.400   4.722   4.151 -0.0387 -0.0141  0.0878
40763W        W83816  19.209  30.528  17.643  0.1103  0.3085  0.0407
40764W        W83817  27.688  15.185  14.370  0.1757 -0.0561  0.0123
40765W        W83818  17.724   4.967  24.760  0.1478 -0.1549  0.0642
40766W        W83819   8.673  15.253  15.940  0.2553  0.2102  0.2155
40767W        W83820  23.211  23.463  26.312 -0.1503  0.0560 -0.1675
40768W        W83821  33.977  19.825  16.232 -0.2543  0.2409 -0.1035
40769W        W83822  16.052  31.608   4.118 -0.2125 -0.3258  0.1070
40770W        W83823  28.098  24.700  16.872  0.3270  0.0098  0.2045
40771W        W83824   2.740  17.505  21.220  0.0745  0.2593  0.0721
40772W        W83825  29.815  16.445   1.824  0.1403 -0.0786  0.4083
40773W        W83826  21.207  10.585  19.342 -0.1763  0.2177  0.0425
40774W        W83827  28.795  27.561  20.139 -0.0159  0.1507 -0.0844
40775W        W83828   1.413  26.127  26.119  0.0136  0.3806 -0.5389
40776W        W83829  29.826   1.222  19.619  0.1617 -0.3293 -0.1988
40777W        W83830  28.733   3.166  17.422 -0.2413 -0.0734 -0.0232
40778W        W83831  14.674  25.479  24.528 -0.2252  0.2478 -0.1492
40779W        W83832  28.495  32.710  19.821 -0.1672 -0.3176  0.0180
40780W        W83833  12.369  31.996  19.319  0.3684  0.2688 -0.1165
40781W        W83834  20.043  14.870   0.544 -0.2716  0.1785 -0.0040
40782W        W83835  21.346  19.214  27.635 -0.1284  0.0277 -0.4712
40783W        W83836  30.886   6.218  24.325 -0.2660 -0.0007 -0.4297
40784W        W83837  26.508  34.220   3.223 -0.0722  0.3136 -0.3578
40785W        W83838  29.944  30.594   0.591 -0.0311 -0.0177 -0.0993
40786W        W83839  33.907  23.814  17.538  0.1905 -0.2842  0.2668
40787W        W83840   6.871   9.700  16.182  0.3464  0.0046 -0.1015
40788W        W83841  32.998  10.556  20.445 -0.2930 -0.0700 -0.3231
40789W        W83842  28.288  26.675  19.812  0.0363  0.1723  0.1035
40790W        W83843  10.095   5.289  22.289  0.0297  0.0997  0.1421
40791W        W83844  28.626  13.623   0.162 -0.0759  0.0515  0.3140
40792W        W83845  33.149  14.067  15.187  0.0100  0.1332  0.1129
40793W        W83846  33.109  22.835  14.593  0.0816  0.3723  0.1775
40794W        W83847  28.553  31.998  25.077 -0.1337 -0.0467  0.1788
40795W        W83848  24.236  22.627  24.889 -0.2340 -0.0762  0.2345
40796W        W83849  26.836  20.463  20.414 -0.3223  0.2018  0.0817
40797W        W83850  29.493  20.881   2.044 -0.1385  0.3856 -0.2891
40798W        W83851  31.103  27.356  23.654 -0.3370  0.0701 -0.0080
40799W        W83852  24.608   6.834  25.711 -0.3254  0.0848 -0.0365
40800W        W83853  24.211  17.219  28.960 -0.1095 -0.2158  0.1631
40801W        W83854  22.864  26.379  15.271 -0.0128 -0.2524  0.1225
40802W        W83855  30.483  30.193  22.629 -0.0546 -0.1994  0.0904
40803W        W83856  33.164  12.445  26.764  0.0870  0.0543  0.1211
40804W        W83857  25.701  25.291  27.916  0.0187 -0.1889 -0.0668
40805W        W83858  25.347  27.734  17.031 -0.1429  0.2535 -0.1845
40806W        W83859  30.765  24.911  19.702 -0.0833 -0.1414  0.0392
40807W        W83860   1.061  26.515   6.721  0.1147 -0.2614 -0.2778
40808W        W83861   2.229  29.613   2.754 -0.1921 -0.0029 -0.3117
40809W        W83862  29.191  21.584  21.314 -0.1951  0.1803  0.2879
40810W        W83863  22.983  11.821  19.425 -0.1581 -0.0374 -0.2345
40811W        W83864  20.014   7.047  20.902  0.3658  0.0937 -0.0123
40812W        W83865  22.084  20.179  20.097  0.1505 -0.0253 -0.2320
40813W        W83866  28.382  29.984  23.677 -0.0176  0.0498 -0.0526
40814W        W83867  24.874  27.106  16.352 -0.2150  0.0478  0.0000
40815W        W83868   6.002  23.625  25.006  0.2706 -0.0235 -0.1190
40816W        W83869   6.905  31.075  21.380 -0.1910  0.0484  0.2682
40817W        W83870   9.145  29.192   0.717 -0.2417 -0.1655  0.0427
40818W        W83871  32.687  27.907  15.894  0.0773  0.0494 -0.2917
40819W        W83872  26.160  31.322   0.778 -0.1078 -0.1652  0.2796
40820W        W83873  10.522   8.722  22.639  0.0931  0.2472 -0.1893
40821W        W83874  31.345  28.078   9.361  0.0633  0.3257  0.2180
40822W        W83875  31.068  19.130  21.995  0.2162  0.0368 -0.2028
40823W        W83876  31.356  32.816   4.982 -0.1008 -0.1771 -0.0222
40824W        W83877   1.374  32.029  16.780  0.0893  0.0722  0.1463
40825W        W83878  16.689  29.426  19.588 -0.1608  0.0791  0.3427
40826W        W83879  20.084  24.966   8.281 -0.1268 -0.2991 -0.3548
40827W        W83880   8.093  22.689  25.604 -0.0252 -0.0699  0.1086
40828W        W83881  27.347  19.805  19.743  0.1705 -0.0524 -0.2355
40829W        W83882   1.082  16.004  17.624  0.3856  0.2385  0.0047
40830W        W83883  30.788   1.852  16.281  0.2816 -0.0250  0.0273
40831W        W83884  33.323  33.561  24.259 -0.0621 -0.1936  0.2539
40832W        W83885   2.851  31.830   3.354  0.1697  0.0724  0.0002
40833W        W83886   0.761  16.778  25.432 -0.0093  0.1521  0.5747
40834W        W83887   0.392  17.480   5.750 -0.0967  0.2012 -0.0245
40835W        W83888  31.735  29.759  21.664  0.4017  0.1146  0.3013
40836W        W83889  16.618   1.465  19.355  0.0414 -0.1903 -0.0279
40837W        W83890  29.098  20.615  24.503 -0.1628 -0.1575 -0.2284
40838W        W83891  11.371   9.054  17.936  0.0278  0.0940 -0.0836
40839W        W83892  32.677   4.231   4.302 -0.0566 -0.0950  0.0243
40840W        W83893  30.886  21.913   6.326  0.1337 -0.0113 -0.0943
40841W        W83894   0.706  19.198   2.404 -0.0683 -0.3319 -0.2821
40842W        W83895  27.336  18.023  14.081  0.0656 -0.3154 -0.0873
40843W        W83896  26.791  17.113  29.075  0.3296 -0.0779 -0.0381
40844W        W83897  17.484  12.239  24.374  0.0852  0.0352 -0.0474
40845W        W83898  21.488  20.646  15.778 -0.1135  0.3048  0.2758
40846W        W83899  32.179  27.442   5.522 -0.5017  0.1031  0.2284
40847W        W83900   2.142   6.754  15.208  0.0830 -0.1681  0.0697
40848W        W83901  26.000  30.639  22.390 -0.0839  0.2253 -0.1736
40849W        W83902  24.605  34.103  26.098  0.1900 -0.2184  0.1445
40850W        W83903  13.694  19.685  17.088 -0.0593  0.1127  0.0398
40851W        W83904   3.477  28.220  23.058 -0.0297 -0.0233  0.2077
40852W        W83905   8.480   0.376  23.360 -0.2435 -0.0653  0.0749
40853W        W83906   8.660  25.981  26.907 -0.0820  0.0155  0.3699
40854W        W83907  25.856   1.193  14.733 -0.0241 -0.1308 -0.0137
40855W        W83908  31.326  22.832  28.073  0.2142  0.1042 -0.0168
40856W        W83909  21.022  19.073  19.775  0.3400 -0.1594 -0.0852
40857W        W83910   0.484  31.802  21.314 -0.1666  0.0456  0.1244
40858W        W83911  20.704   0.843  16.267 -0.1551  0.0158  0.4131
40859W        W83912  29.480  21.933   0.378  0.1059  0.3515 -0.0210
40860W        W83913  29.446  14.403  15.280  0.0049 -0.0259 -0.2456
40861W        W83914   1.393  10.720  25.867  0.1532 -0.0315 -0.1666
40862W        W83915  27.378  22.526   8.094 -0.4584  0.0635  0.1748
40863W        W83916  32.486  20.027  20.103  0.3868 -0.2071  0.0836
40864W        W83917   4.013  28.752  18.063 -0.1900 -0.1579  0.0846
40865W        W83918   7.214   4.502   0.563 -0.4084 -0.2361 -0.0080
40866W        W83919  26.313  29.268  19.686  0.1009 -0.0641  0.0639
40867W        W83920  26.624  31.609  22.381  0.2374 -0.1301  0.1379
40868W        W83921  19.035  30.499   0.809  0.2894 -0.0827 -0.1243
40869W        W83922   2.930  12.528  25.231 -0.0873 -0.1161 -0.0860
40870W        W83923  33.522  27.396  21.151  0.0443  0.0239 -0.0390
40871W        W83924   8.465  22.032  24.068  0.0421 -0.2258  0.0360
40872W        W83925  15.054  23.772  17.504  0.1088 -0.1071  0.0545
40873W        W83926  30.829   0.437  19.581 -0.0157  0.0476 -0.0384
40874W        W83927  32.593  18.643   7.384 -0.1926 -0.3439 -0.1594
40875W        W83928  34.065  19.851  13.574 -0.0221 -0.4350  0.1712
40876W        W83929  34.526  22.383  15.459  0.1309  0.3674  0.1025
40877W        W83930  30.772  28.919  26.338 -0.4779 -0.0736  0.0625
40878W        W83931  28.253  33.674   0.702 -0.0236 -0.0471 -0.1258
40879W        W83932  10.162  29.537  21.007 -0.1126  0.4530 -0.1223
40880W        W83933  24.325  34.121  21.131 -0.5269 -0.3248 -0.0452
40881W        W83934   3.719  17.136  19.645 -0.0132  0.2422 -0.0341
40882W        W83935  11.026  16.571  19.146  0.1204 -0.1206 -0.0806
40883W        W83936  31.122   7.145  18.549 -0.2039  0.1430  0.0837
40884W        W83937  31.217  19.966  25.628 -0.1430 -0.1513 -0.1421
40885W        W83938   0.315  26.814   7.193 -0.0533  0.3008 -0.0075
40886W        W83939  11.515  27.028  24.228 -0.2892  0.0955  0.1906
40887W        W83940  23.200   1.569  25.697 -0.1568 -0.0570  0.0528
40888W        W83941   4.869  31.561  15.729  0.0026 -0.1653  0.0895
40889W        W83942  23.768  23.748  24.354 -0.3775 -0.2916 -0.0467
40890W        W83943  22.227  24.527  28.745  0.0488 -0.2027 -0.0111
40891W        W83944   4.091   6.159   1.591  0.2541 -0.1639  0.3059
40892W        W83945  27.126  29.714   0.560 -0.1793  0.3867 -0.0168
40893W        W83946  27.345  13.728  26.212 -0.3676 -0.0593  0.2514
40894W        W83947  19.554  24.411  25.708 -0.1413 -0.3515  0.1520
40895W        W83948  26.284  23.037  14.255 -0.0919 -0.4046 -0.2059
40896W        W83949   9.028   1.143   4.590 -0.0703 -0.0357  0.1900
40897W        W83950  15.083  26.651  25.303 -0.2949  0.1760  0.0899
40898W        W83951  33.430   1.915  19.132  0.0225  0.1178 -0.2142
40899W        W83952   5.665  31.140  21.112  0.1966  0.1403 -0.0068
40900W        W83953   6.156  22.399  23.815 -0.0898  0.0433  0.2080
40901W        W83954  29.004   7.086  26.676 -0.0676 -0.1534 -0.1512
40902W        W83955   4.731  31.918  22.116  0.0912 -0.0188 -0.1147
40903W        W83956  23.414  29.992   3.958 -0.0034 -0.2015  0.1549
40904W        W83957  19.364  13.548  16.403 -0.1981  0.0222 -0.2834
40905W        W83958  26.752  23.151  16.063  0.3240  0.3604 -0.1916
40906W        W83959  22.854  32.652  21.048  0.2340 -0.1622  0.0516
40907W        W83960  26.959   8.039  18.462 -0.1898 -0.0555  0.1124
40908W        W83961  13.793  24.024  22.278  0.2103 -0.1446  0.1947
40909W        W83962  27.273  27.780   6.929 -0.0102 -0.0159 -0.1801
40910W        W83963  32.533  27.548  13.128  0.0485  0.0327  0.2783
40911W        W83964  15.763   4.528  22.429  0.1341 -0.0267  0.2302
40912W        W83965  31.887  28.621  24.724  0.0410  0.0616  0.2376
40913W        W83966  33.022   2.542  17.725 -0.2612  0.2196 -0.1140
40914W        W83967  34.078  25.865  16.736 -0.0427 -0.1862  0.1522
40915W        W83968   1.889  20.605  24.641 -0.0618  0.4270  0.0845
40916W        W83969  27.971  29.173  16.872  0.2265  0.3081  0.1542
40917W        W83970  33.639  34.068  21.888  0.3459  0.3230  0.0289
40918W        W83971  18.797  31.586   9.364  0.2892 -0.1443 -0.0486
40919W        W83972  33.107  28.991  19.745  0.1425  0.1552 -0.1649
40920W        W83973  30.315  12.425   7.364  0.0522 -0.0496  0.0529
40921W        W83974   2.307  18.355  21.386  0.0407 -0.0756  0.1146
40922W        W83975   0.117   1.765  16.519  0.1947  0.0257 -0.2891
40923W        W83976  31.179  21.808  24.527  0.1997 -0.1591 -0.0068
40924W        W83977  27.304   2.385  18.966  0.0530  0.1778 -0.2402
40925W        W83978  31.432   9.966  18.304  0.1164 -0.0487 -0.1031
40926W        W83979   1.914  13.630  28.140  0.0217 -0.1615  0.0814
40927W        W83980  27.005  12.400   2.330  0.0660 -0.0494  0.1423
40928W        W83981  17.642   0.370  25.187 -0.1661 -0.0776 -0.1792
40929W        W83982  30.365  29.751  14.729  0.1989 -0.0481 -0.1404
40930W        W83983  26.836  11.851  19.556 -0.0432 -0.1695 -0.1628
40931W        W83984   1.632  13.869   2.011  0.2065 -0.2760  0.0765
40932W        W83985  31.573  19.955  20.870  0.0443 -0.1901 -0.0297
40933W        W83986   3.785  22.301  18.707  0.1355 -0.2094 -0.0578
40934W        W83987  31.156  21.535  17.860 -0.1365 -0.0009 -0.2136
40935W        W83988  19.231  33.291  24.833 -0.0512  0.4452  0.2157
40936W        W83989   3.822  19.263  18.218 -0.2788 -0.0075 -0.0653
40937W        W83990   4.486  26.480   1.862 -0.2111 -0.1565  0.0593
40938W        W83991   9.023  11.241  23.740  0.2422  0.2698 -0.3308
40939W        W83992   8.679   3.124  19.392  0.5374  0.0171  0.2307
40940W        W83993  33.777  29.566  21.499 -0.3429  0.2665  0.2377
40941W        W83994  24.405  11.658  15.864  0.2297 -0.2620  0.2098
40942W        W83995   3.983  28.035  23.373  0.1387  0.0619 -0.1053
40943W        W83996  31.148  26.570  18.381 -0.1658  0.3406 -0.1165
40944W        W83997  27.060  26.022  22.962  0.0488 -0.2497  0.1663
40945W        W83998  21.957  24.429  20.258 -0.1601  0.1403 -0.1444
40946W        W83999  34.650  26.900  16.874 -0.1931  0.3017  0.1845
40947W        W84000  30.684  25.769   6.475  0.1729 -0.0147 -0.1191
40948W        W84001  13.037  24.402  13.896 -0.3708 -0.1523 -0.3241
40949W        W84002   7.067  13.776  14.955  0.1948 -0.0837 -0.1853
40950W        W84003  27.104  20.526  25.482 -0.2177  0.0170 -0.0873
40951W        W84004  28.480  31.011  15.534  0.0453 -0.2590  0.0444
40952W        W84005   1.871  14.527  23.037  0.0045  0.2632 -0.0127
40953W        W84006  30.777  24.933  19.009  0.0616 -0.0481 -0.2121
40954W        W84007  32.358   9.415  16.569 -0.1389 -0.1472  0.0270
40955W        W84008  26.995  22.762  14.310 -0.2189  0.2830 -0.1097
40956W        W84009   0.928   0.817  26.766  0.3026  0.2326 -0.0198
40957W        W84010   2.565  22.105  19.484 -0.1419  0.1746  0.1364
40958W        W84011  23.171  30.690  24.330 -0.1095  0.0733 -0.3671
40959W        W84012  30.428  10.248  15.905 -0.0475  0.0561 -0.0903
40960W        W84013   4.420  14.155  21.086  0.0508 -0.2801 -0.0685
40961W        W84014   5.607  28.011  26.865 -0.0108 -0.4589  0.2137
40962W        W84015  23.620  26.964  25.232  0.1545  0.0489 -0.0650
40963W        W84016  32.525  25.488  21.365 -0.0046  0.1412  0.0839
40964W        W84017   5.482   0.779  15.034  0.1963 -0.4637 -0.0241
40965W        W84018  34.296  29.066  13.837 -0.3591 -0.1472  0.0347
40966W        W84019   5.307  20.177  15.097  0.2223  0.2978 -0.0503
40967W        W84020   2.342   5.809  21.941 -0.0625 -0.1857  0.0001
40968W        W84021  21.595  31.172  20.074 -0.0047 -0.3232  0.1333
40969W        W84022   1.677  25.420  19.826 -0.3347 -0.0332 -0.1461
40970W        W84023  27.089   4.803   4.111 -0.5252  0.0624  0.2575
40971W        W84024  18.835  12.315  26.299 -0.3859 -0.2292 -0.1590
40972W        W84025   4.741   2.320  22.087 -0.1975  0.2584 -0.0537
40973W        W84026   0.186  22.495  18.802  0.0768  0.2357 -0.0476
40974W        W84027  33.508   6.646  20.145 -0.0098 -0.0911  0.2954
40975W        W84028  18.174  32.843  18.329 -0.2785 -0.1979 -0.3687
40976W        W84029  29.594  34.633  26.653 -0.1989  0.0729  0.3116
40977W        W84030  10.148  30.255  23.930 -0.0115 -0.1117 -0.1002
40978W        W84031  32.521  10.939  20.773  0.0213  0.3147  0.2471
40979W        W84032   0.179  34.193  14.584  0.0736 -0.1074  0.3339
40980W        W84033   4.632  11.103   1.157  0.0754 -0.0837 -0.0388
40981W        W84034  11.166  17.148   7.406 -0.0759  0.0680  0.0358
40982W        W84035  32.435   2.948  18.879  0.1510  0.1567  0.0983
40983W        W84036  22.592  15.160  26.567 -0.2147 -0.3705 -0.0523
40984W        W84037   6.108  29.759  17.921 -0.1560 -0.0137  0.0485
40985W        W84038   0.187   0.139  27.986 -0.2108  0.0662 -0.0362
40986W        W84039  27.535  32.614  26.206 -0.0459 -0.0144  0.2155
40987W        W84040   4.576  26.904  13.673 -0.0698  0.3190 -0.0260
40988W        W84041  33.114  23.929   5.176  0.4623  0.0428  0.0423
40989W        W84042  17.352  24.697  24.977  0.0672  0.0783  0.0336
40990W        W84043   1.169  30.501   2.025 -0.1212 -0.2965 -0.0102
40991W        W84044  32.936  29.388  22.510  0.3237 -0.0689  0.1068
40992W        W84045  32.227  28.153  24.616  0.3414 -0.1400  0.1587
40993W        W84046  32.654   1.854  23.256 -0.0021  0.1747  0.1036
40994W        W84047  23.759  25.325  17.441 -0.0655 -0.0774  0.0307
40995W        W84048  25.591  18.354  15.732 -0.0160 -0.1172  0.1073
40996W        W84049  32.013  30.263  23.017 -0.3271 -0.2059  0.1855
40997W        W84050  27.772  30.494  27.195 -0.0049  0.0264  0.0029
40998W        W84051   2.740  10.813  20.163  0.0405  0.1649 -0.0526
40999W        W84052  10.828  15.981  20.447  0.0095  0.0697 -0.1023
41000W        W84053  25.179  22.072  25.888  0.2406  0.0113  0.2600
41001W        W84054  32.764  11.700  14.982 -0.1016  0.3367 -0.1497
41002W        W84055  27.914  15.626  22.314 -0.1692 -0.0994  0.1104
41003W        W84056  31.043  19.392  27.369  0.0849  0.2561  0.0702
41004W        W84057   0.048   1.556  25.510 -0.0268 -0.1397 -0.1276
41005W        W84058   1.325  28.569  15.559 -0.1251 -0.2946 -0.0057
41006W        W84059   2.475   3.234  13.429  0.2909 -0.1813 -0.1802
41007W        W84060  32.392  10.015  15.556  0.1171  0.0387  0.0003
41008W        W84061   0.059  15.319  15.954  0.2355 -0.1996  0.2841
41009W        W84062   5.667   0.491  19.892 -0.0222  0.0259 -0.1978
41010W        W84063   3.494  34.506  22.602  0.1193 -0.0499  0.0830
41011W        W84064   0.471  33.911   7.832  0.1951  0.2036 -0.1552
41012W        W84065  24.829  12.647  14.842  0.0373 -0.0378  0.0006
41013W        W84066   1.473  30.086  27.775  0.1978 -0.0478  0.2120
41014W        W84067  17.079  18.563  13.862 -0.2520 -0.2550 -0.2212
41015W        W84068  29.611   2.715   7.856  0.1872  0.0546  0.1941
41016W        W84069   4.841  33.477  19.475  0.0970 -0.2489  0.2930
41017W        W84070  27.522  23.430  18.560 -0.3463  0.2761  0.1016
41018W        W84071  20.866  14.627   0.918  0.0258  0.0305 -0.1683
41019W        W84072  21.547  22.215  22.183  0.1698  0.0767 -0.0422
41020W        W84073  28.224   9.308   2.771  0.3350  0.4643 -0.4415
41021W        W84074   2.370  28.807  22.866  0.2132 -0.0906 -0.0640
41022W        W84075  17.685  15.818  15.426  0.0358 -0.1822 -0.0631
41023W        W84076  23.823   2.265  28.506 -0.1021 -0.2553 -0.2995
41024W        W84077   0.949  19.952  29.158  0.1483 -0.0043 -0.0703
41025W        W84078  11.876   5.487  28.621 -0.2580 -0.1995 -0.0787
41026W        W84079  30.358  10.935  16.755  0.1638  0.2904  0.0043
41027W        W84080  26.888  24.754  26.778  0.1128 -0.1977  0.0138
41028W        W84081  30.359  16.106   6.231 -0.0690 -0.0316 -0.1060
41029W        W84082  32.123  32.360   0.567 -0.0637 -0.2770 -0.0616
41030W        W84083   0.768   3.536  17.461  0.1609 -0.1288  0.4181
41031W        W84084   1.376  25.103  21.565  0.1286  0.0188 -0.1815
41032W        W84085  19.092  18.088   6.024 -0.0343 -0.1753 -0.3941
41033W        W84086  34.186  17.434   1.884  0.1614  0.0930 -0.2595
41034W        W84087   0.560  24.670  16.204  0.0375  0.1300 -0.0435
41035W        W84088  32.375  20.529  28.734  0.2114  0.4663 -0.2689
41036W        W84089  31.646   0.521  24.740  0.1841  0.1421 -0.3170
41037W        W84090   0.634  24.547  21.892  0.0539  0.1456 -0.0098
41038W        W84091   2.150  21.385   1.269  0.1552  0.2628 -0.1351
41039W        W84092   6.441  14.302  16.859 -0.1445  0.0542 -0.0790
41040W        W84093  24.293   0.051  17.901  0.2379  0.2787  0.1342
41041W        W84094  28.389  23.535  22.212 -0.1638 -0.1753  0.0671
41042W        W84095   0.917  31.991  25.908  0.1168 -0.1694  0.0805
41043W        W84096  32.949  29.501  27.856  0.0660 -0.1694  0.0877
41044W        W84097  34.429   6.790  16.009 -0.2419  0.0531 -0.0666
41045W        W84098  22.012   4.285  26.810 -0.0209 -0.0655 -0.4503
41046W        W84099  19.015  17.429  14.446 -0.2654 -0.0691  0.1414
41047W        W84100  23.973  25.211   2.699 -0.1927  0.2827  0.0604
41048W        W84101  23.278  14.685  15.910 -0.1650 -0.4384  0.1821
41049W        W84102  22.940  15.392  24.196  0.1376 -0.1442  0.0333
41050W        W84103   5.727  30.711  21.943 -0.1881  0.0169  0.1579
41051W        W84104  27.176  31.047   4.547 -0.0535  0.0823  0.0588
41052W        W84105  25.524  32.092  25.893  0.0107 -0.2186 -0.2398
41053W        W84106   5.057   1.956  14.541  0.3121 -0.1954  0.0380
41054W        W84107  32.471  24.000  22.331  0.2025  0.0149 -0.1016
41055W        W84108   2.762   9.385  16.738  0.1173 -0.1107  0.2285
41056W        W84109  11.930  14.697  25.449  0.1186  0.0188  0.2352
41057W        W84110  32.847  31.766  17.748  0.2033 -0.2152 -0.3139
41058W        W84111  31.461  22.807  26.547  0.1041 -0.1628 -0.0271
41059W        W84112  33.988  18.485  23.802 -0.1256  0.2738  0.2035
41060W        W84113   5.035  11.769   2.992  0.1199 -0.0968  0.0962
41061W        W84114   8.849  13.043   7.305  0.0182  0.1487  0.0581
41062W        W84115  24.881   6.197  16.382 -0.0384  0.1282 -0.0176
41063W        W84116  12.797  22.851  20.529 -0.2646  0.2555  0.0616
41064W        W84117  25.619   5.909   5.635  0.0005  0.1083 -0.2529
41065W        W84118  29.330   8.160   6.560  0.0115 -0.0316 -0.1111
41066W        W84119  21.455  29.189  18.801  0.1917  0.2757 -0.3365
41067W        W84120  32.060  29.646   0.995  0.0891  0.0511  0.0822
41068W        W84121  31.400  24.048   6.873  0.0158  0.2462 -0.1475
41069W        W84122  34.084   1.070  15.301  0.1547 -0.0044 -0.2886
41070W        W84123  21.040  32.249   8.000  0.0556  0.0564  0.1038
41071W        W84124  23.399  26.790   7.241  0.2606  0.0550  0.3163
41072W        W84125  23.926   5.941  21.819  0.0696 -0.0872 -0.1310
41073W        W84126  11.228   8.742  25.226  0.0726 -0.0310 -0.0484
41074W        W84127  30.606   9.528  18.411 -0.0043  0.2737 -0.0826
41075W        W84128  31.252  34.493   1.160  0.1654  0.1673  0.0436
41076W        W84129  25.757  13.390  15.384 -0.0467  0.0733  0.0698
41077W        W84130  17.416  26.336  18.829  0.0660  0.2929 -0.0114
41078W        W84131  13.627  21.681  24.959 -0.2520  0.1339  0.0660
41079W        W84132  31.159  16.652   1.327 -0.1479  0.0405 -0.0014
41080W        W84133  34.547   5.447  28.580  0.4502 -0.0336 -0.1359
41081W        W84134  26.070  26.040   8.143 -0.0805  0.3415  0.0646
41082W        W84135  30.311  23.585   4.964  0.1390  0.0156 -0.0465
41083W        W84136  27.411  20.276  25.045  0.0132  0.1452 -0.0438
41084W        W84137  13.393   0.180   4.991 -0.3779  0.1092 -0.1014
41085W        W84138   1.200  21.315  20.427  0.3413 -0.0921  0.1296
41086W        W84139  28.883   9.067   0.573  0.0754  0.3261  0.2975
41087W        W84140  29.740  20.819  22.983  0.2915  0.0452 -0.1909
41088W        W84141  30.635   4.258  20.140  0.0286 -0.1101 -0.0632
41089W        W84142  17.309  19.981  25.107  0.3036 -0.0514  0.0620
41090W        W84143  32.571  16.733  15.499  0.0857  0.2917 -0.2616
41091W        W84144  25.741  24.434   2.947  0.4015 -0.0498 -0.0062
41092W        W84145   4.844  32.737  22.092 -0.1229  0.3437  0.1690
41093W        W84146  33.995  14.709   7.314 -0.1801  0.1280  0.3481
41094W        W84147   6.626  33.507  18.582  0.1204 -0.0165  0.0554
41095W        W84148  29.472  11.002   4.493 -0.0414 -0.1151  0.1944
41096W        W84149   1.790   1.141  24.112  0.1027 -0.0332  0.1798
41097W        W84150  31.029  27.049  18.464 -0.1252  0.0066  0.0877
41098W        W84151  32.972  21.570  14.219  0.1255  0.0930 -0.1395
41099W        W84152  14.711  14.988   0.723  0.0914  0.0775  0.0264
41100W        W84153  11.479  13.340  25.431  0.3379 -0.1469  0.2125
41101W        W84154   2.970  14.607  19.517 -0.0045  0.0628 -0.1138
41102W        W84155   2.274  25.265   7.139 -0.1909  0.2720  0.1347
41103W        W84156  26.341   7.349  19.472 -0.2493 -0.0464 -0.2223
41104W        W84157   8.222   3.743  19.970 -0.0559  0.1951 -0.0885
41105W        W84158   8.350   7.382  20.704  0.0570  0.2722  0.0167
41106W        W84159  24.376  29.525  15.132 -0.1901 -0.0528  0.4289
41107W        W84160  30.874   6.037   4.237 -0.0100  0.0717 -0.0639
41108W        W84161  13.842  22.685  28.095  0.1020 -0.0371  0.2046
41109W        W84162  27.917  22.665   1.457 -0.3493  0.0999  0.2756
41110W        W84163  30.592  25.910  19.822 -0.2526  0.0914 -0.1674
41111W        W84164  31.004  17.207  24.967 -0.0136 -0.3159 -0.0997
41112W        W84165  22.626  17.069  21.753 -0.1950  0.1945 -0.2777
41113W        W84166  30.770  23.093  16.237 -0.0165 -0.1133  0.0755
41114W        W84167  28.616  29.027  14.885 -0.2559 -0.0977 -0.1686
41115W        W84168   0.539   6.790  21.848  0.1742  0.0400  0.1111
41116W        W84169   0.747  14.172  18.892  0.0477 -0.2701 -0.1628
41117W        W84170   6.432  17.814  25.836  0.0256  0.2668 -0.0413
41118W        W84171   8.860   0.002  23.390 -0.1962  0.0403  0.1463
41119W        W84172  28.390  31.255  15.116 -0.0322  0.2577  0.1133
41120W        W84173   0.700   2.837  22.938 -0.0517  0.1815 -0.0481
41121W        W84174  15.105  22.412   6.938 -0.1461  0.0849 -0.1856
41122W        W84175  30.175  12.364   1.443 -0.0390  0.0573  0.1690
41123W        W84176  26.818  12.520   3.171 -0.0844  0.0020 -0.1970
41124W        W84177   2.065  31.587  16.163 -0.2603  0.3690  0.2577
41125W        W84178  21.210  20.261  28.884 -0.0577 -0.1228  0.0210
41126W        W84179   3.535  25.374  23.178  0.1503  0.0627 -0.2406
41127W        W84180  14.526  32.420   7.511  0.0939  0.0842 -0.0703
41128W        W84181  18.786  25.567  26.232 -0.3583 -0.2021  0.1390
41129W        W84182   2.265  17.854  25.060 -0.0449 -0.2690  0.0384
41130W        W84183   7.304   4.005  28.736  0.1403 -0.2887 -0.1922
41131W        W84184   6.987   4.324  22.087 -0.1486  0.1241  0.0491
41132W        W84185  11.325  16.221   4.213 -0.1873  0.0958 -0.3570
41133W        W84186  27.871  24.539  21.301  0.0578  0.1484 -0.0517
41134W        W84187  31.052  15.441  22.252  0.4184  0.4398 -0.0239
41135W        W84188   1.528  16.434  26.982  0.0567  0.0266 -0.1362
41136W        W84189  24.401  21.017  16.402 -0.1384  0.0474 -0.0185
41137W        W84190  15.726   6.805  22.866 -0.2744  0.0657 -0.3713
41138W        W84191  27.343  22.400  18.408 -0.1395  0.1791 -0.2818
41139W        W84192  27.100  20.806  27.858  0.0721  0.1258  0.1341
41140W        W84193   6.952  28.868   3.334 -0.1321  0.3066  0.0324
41141W        W84194  17.836  17.338   5.764 -0.5143 -0.3025 -0.1138
41142W        W84195   1.626   7.999   6.671 -0.3225 -0.1850  0.2323
41143W        W84196  34.209  33.457   1.966  0.4682  0.2940 -0.3462
41144W        W84197  29.943  10.981  28.967 -0.3107 -0.1839 -0.2162
41145W        W84198  18.439  22.990  15.562  0.0216  0.0545 -0.1371
41146W        W84199   3.527  12.188  22.664 -0.0096  0.0431 -0.1432
41147W        W84200   7.601   0.657  19.199  0.0400  0.0525 -0.2860
41148W        W84201  11.179  32.159  19.092  0.1558  0.4525  0.1337
41149W        W84202   5.154  30.253   7.606  0.0167 -0.3612  0.1198
41150W        W84203  17.090  25.750  23.152 -0.2945  0.0281 -0.0435
41151W        W84204   0.090  30.562  15.244  0.0799  0.1812 -0.0648
41152W        W84205  23.163  13.711  15.915 -0.2659  0.0665 -0.1806
41153W        W84206  27.117  13.673  27.995  0.0205 -0.0952 -0.0947
41154W        W84207  12.001  26.328  15.222 -0.0338  0.0556 -0.1027
41155W        W84208  14.069  15.728  28.838  0.2169  0.0866 -0.2011
41156W        W84209  13.661  10.046   7.346  0.1169  0.3858 -0.2299
41157W        W84210   0.023  17.341  25.822  0.1841  0.2686  0.1510
41158W        W84211   0.096  16.033  14.167  0.0862 -0.3272  0.0838
41159W        W84212  20.044  21.977  28.889 -0.0495 -0.0730  0.0541
41160W        W84213   0.337  14.874  20.326 -0.0711  0.0005 -0.0199
41161W        W84214   0.966   1.193   5.097 -0.0429  0.0925  0.2471
41162W        W84215   4.633  26.932  18.580  0.0203  0.2236 -0.2520
41163W        W84216  13.333  27.837  15.648 -0.0140 -0.1444 -0.0474
41164W        W84217   3.602  23.543  15.862  0.0448 -0.2222  0.3160
41165W        W84218  21.973  20.179   0.548  0.0463 -0.1761 -0.3497
41166W        W84219  21.740  25.774  16.531  0.3077  0.0635 -0.0307
41167W        W84220   0.939   2.138  19.317  0.0124 -0.0204  0.2413
41168W        W84221  33.985  27.732  17.572 -0.1634  0.0796 -0.0504
41169W        W84222  32.937  19.423  23.906 -0.2922  0.0528  0.0352
41170W        W84223  34.625  32.600   8.439 -0.1067 -0.4052  0.2270
41171W        W84224   3.082  26.004  19.695  0.1161 -0.2365  0.1907
41172W        W84225   6.153  26.239   2.670  0.0724  0.3894  0.0413
41173W        W84226  29.532  31.284  23.112 -0.0695  0.2246  0.1841
41174W        W84227  23.827  22.136  10.644 -0.0780  0.2334  0.3291
41175W        W84228  12.130  33.889   7.818 -0.2714 -0.2336 -0.1478
41176W        W84229   8.529  23.097  19.342 -0.1574 -0.2886  0.0812
41177W        W84230  33.158  18.398  16.010  0.1330  0.1443 -0.1916
41178W        W84231  20.268  28.153  22.598 -0.0236 -0.3721 -0.2412
41179W        W84232  17.952  31.605   5.391 -0.1134 -0.2088  0.0437
41180W        W84233  27.723  13.766   0.793 -0.3587  0.1244  0.2464
41181W        W84234  32.435   3.309  27.829 -0.1377 -0.0858  0.0490
41182W        W84235   3.162  19.441  24.697 -0.0597 -0.0508  0.1035
41183W        W84236  11.981   1.791   4.001 -0.1800  0.2164 -0.0855
41184W        W84237  28.171  34.600  28.471 -0.2995 -0.3051 -0.0804
41185W        W84238   3.018  18.324  27.176 -0.0691  0.1695 -0.0500
41186W        W84239  25.259  16.175  19.500  0.3652 -0.0127  0.1037
41187W        W84240   6.860  25.475  24.746  0.4312  0.2534  0.3567
41188W        W84241  33.444  27.442  22.549 -0.0482 -0.0123  0.0879
41189W        W84242  33.060  20.977  22.078 -0.1877  0.0613  0.1435
41190W        W84243   5.871  23.237  25.858  0.2371  0.0321  0.0550
41191W        W84244  13.449  21.014  18.033  0.2162 -0.0908  0.0569
41192W        W84245  32.051  23.392  14.093 -0.0660  0.2037  0.2007
41193W        W84246  21.682  29.619  26.116  0.0225 -0.0427 -0.4495
41194W        W84247  18.210  12.253   9.106  0.1449 -0.2249  0.0589
41195W        W84248  17.932  33.226  25.212  0.0854 -0.1864 -0.0466
41196W        W84249  16.164  20.935  20.074 -0.3023  0.1335 -0.1132
41197W        W84250   5.458  18.907  29.056  0.3801  0.1388 -0.0520
41198W        W84251  20.346  22.032  23.619 -0.1351  0.0015  0.0891
41199W        W84252  18.122  26.147  25.040 -0.2453 -0.1395 -0.2187
41200W        W84253   5.542  32.430   8.496  0.3253 -0.0750 -0.0959
41201W        W84254  19.555   9.585  17.321  0.0434  0.2274  0.0545
41202W        W84255  30.358  18.642  22.860  0.3678 -0.0132 -0.2935
41203W        W84256  25.277  25.590  16.814  0.0103 -0.1652 -0.0493
41204W        W84257  28.163  20.800   6.757  0.2022 -0.0212  0.2435
41205W        W84258   1.860  31.202   5.190  0.1031  0.2524 -0.0185
41206W        W84259   6.024   2.492   6.559 -0.1973 -0.1983  0.2165
41207W        W84260   5.235   2.236  22.459 -0.0174  0.1157 -0.1139
41208W        W84261   5.309  30.565  22.858 -0.2321 -0.0835 -0.2532
41209W        W84262   3.599  10.908   4.668 -0.0084 -0.1315 -0.2490
41210W        W84263   3.751  20.158  26.981 -0.1856  0.0819 -0.0551
41211W        W84264  22.939  31.523  15.557 -0.4793 -0.0068  0.3032
41212W        W84265  30.599  12.506   2.044  0.1254 -0.1622  0.0335
41213W        W84266  34.239   4.893  16.091  0.2493  0.0195 -0.1667
41214W        W84267  29.890  24.009  22.546  0.0977 -0.4606 -0.3932
41215W        W84268   4.102  23.132   0.896 -0.0992 -0.0972  0.0190
41216W        W84269  19.486  21.390  25.250  0.0680  0.3960  0.2722
41217W        W84270  20.354  22.501   3.684  0.0068  0.1318  0.0449
41218W        W84271   7.148  21.360  24.412  0.1397  0.0992 -0.3971
41219W        W84272  28.236   2.935  16.568 -0.1968  0.3433  0.0493
41220W        W84273  16.612  19.229  23.234  0.0884 -0.1112  0.1457
41221W        W84274  19.376  28.972  15.122  0.3790  0.3011 -0.0915
41222W        W84275  29.455  21.371  13.380  0.0529  0.5100  0.2815
41223W        W84276  33.154  12.611   9.137 -0.1454  0.2686  0.2390
41224W        W84277   0.669   5.254  18.155  0.1312  0.0062 -0.1164
41225W        W84278   6.913  33.814  23.252  0.0162 -0.0057 -0.2138
41226W        W84279  28.991  17.841  23.871  0.0606  0.0620  0.0929
41227W        W84280  26.912  21.099   0.998 -0.1984  0.1052 -0.0615
41228W        W84281  11.974  22.806  16.870  0.0490  0.1605  0.2453
41229W        W84282   4.264  25.280  21.618 -0.0125  0.0678 -0.2839
41230W        W84283  33.639   1.759   0.614 -0.0478 -0.2479 -0.1895
41231W        W84284   1.542  28.971  16.230  0.0116 -0.1053 -0.0407
41232W        W84285   0.520  18.457   4.293 -0.1353 -0.1420 -0.0066
41233W        W84286  25.545   1.080  21.291  0.1398 -0.1927  0.2536
41234W        W84287  25.828   6.693  15.817  0.1819 -0.1833 -0.1704
41235W        W84288  20.957  31.776  20.209  0.2544 -0.1519 -0.2232
41236W        W84289   6.357  32.716   4.074 -0.0314 -0.1182  0.1645
41237W        W84290   5.935  19.020  18.523  0.0355 -0.0579  0.0922
41238W        W84291  33.942  29.685  24.025 -0.2330  0.0202  0.0280
41239W        W84292  26.578  21.878  16.607  0.1776  0.3413 -0.1069
41240W        W84293  30.899  23.338   1.353 -0.1935 -0.0057  0.1842
41241W        W84294   3.525  34.665   2.612  0.1254 -0.0255  0.0235
41242W        W84295  29.899  28.844  25.180  0.2305  0.0777  0.0714
41243W        W84296  28.052  17.199  21.180 -0.2017 -0.1952 -0.0386
41244W        W84297  23.013  17.620   0.412  0.2857  0.3989 -0.0943
41245W        W84298   8.493   4.912  19.107  0.1213  0.2233  0.0925
41246W        W84299   7.025   8.233   1.958  0.1509 -0.2481 -0.0077
41247W        W84300   7.126  13.037  21.497  0.2312 -0.3037  0.2926
41248W        W84301  14.440  22.856  20.014  0.0677  0.0934  0.0244
41249W        W84302  12.063  30.010  25.830  0.2064 -0.1917 -0.0331
41250W        W84303  28.464  21.536   1.592 -0.1376  0.0505  0.0126
41251W        W84304   0.596  20.097  24.427  0.2177  0.2475  0.3075
41252W        W84305  26.294  19.046  21.282  0.2083 -0.1044 -0.1004
41253W        W84306   7.766  22.491  25.934  0.2756 -0.1981  0.4213
41254W        W84307  32.866  18.681   1.371 -0.1802  0.0473  0.0499
41255W        W84308   3.823  33.201  19.465  0.1966  0.0913  0.1216
41256W        W84309  28.303  19.634  20.837 -0.1164 -0.1469  0.0528
41257W        W84310  34.175  31.986  21.037  0.1304  0.0051  0.4199
41258W        W84311  21.960  24.734  28.377 -0.1503 -0.1960  0.2727
41259W        W84312  31.552  31.971  24.899  0.4181 -0.0038  0.3584
41260W        W84313  30.163   0.890   3.039 -0.0656 -0.0453  0.1167
41261W        W84314  20.624   2.628   4.241  0.0936  0.0709 -0.2392
41262W        W84315  33.208  28.050  17.089  0.0432 -0.2422  0.2542
41263W        W84316   3.142  26.737  22.772  0.0191 -0.2695  0.1694
41264W        W84317  20.646  24.816  14.791  0.2355 -0.2184  0.0873
41265W        W84318  15.281  27.115   1.761 -0.2913  0.0901  0.4910
41266W        W84319  25.252  28.516  23.284  0.4390  0.1358 -0.1657
41267W        W84320   3.119  13.946   3.823 -0.0139  0.1105 -0.0283
41268W        W84321  27.882   4.057  15.903  0.0094  0.0397 -0.1659
41269W        W84322  34.134   5.331  23.451 -0.1746  0.0648 -0.1366
41270W        W84323  26.020  25.304  22.077  0.3048  0.1820 -0.1819
41271W        W84324  10.763  25.819  25.110 -0.0460 -0.0339  0.0776
41272W        W84325   6.529  33.037  14.455 -0.0509  0.0714 -0.1650
41273W        W84326  25.205  26.476  15.317  0.3333 -0.0155  0.1338
41274W        W84327  32.113   0.430  28.402 -0.0696 -0.1234 -0.4098
41275W        W84328   3.478  26.351  23.507  0.3936 -0.0465 -0.1920
41276W        W84329  27.652  18.326  25.788 -0.1968 -0.0625 -0.0183
41277W        W84330  25.151  26.728  24.235 -0.0170  0.0387 -0.1515
41278W        W84331  27.481  19.794  21.094 -0.2212  0.2039  0.0449
41279W        W84332  30.828  13.776   2.439  0.1532  0.1597  0.3380
41280W        W84333  11.877  34.123  21.496 -0.2306  0.0033 -0.0618
41281W        W84334  25.687  29.945  15.223  0.2364 -0.2268 -0.0169
41282W        W84335  32.097   6.262  26.293  0.4251  0.1142  0.0862
41283W        W84336  31.147   2.652  23.901  0.0402  0.1319 -0.1784
41284W        W84337  26.265  10.197  25.577  0.0397 -0.0494  0.0208
41285W        W84338  33.817  25.604  15.802  0.2463  0.1433  0.1034
41286W        W84339   7.199  30.109  15.927 -0.1875  0.2214  0.0152
41287W        W84340  33.466  33.150  29.058  0.0458 -0.0715  0.1772
41288W        W84341   0.683  15.061  17.813 -0.2123 -0.0989  0.1152
41289W        W84342  34.105   6.390  22.812  0.0150 -0.1736  0.1296
41290W        W84343  30.858   0.466  20.475  0.0311  0.1016 -0.2792
41291W        W84344  19.016  26.953  18.726 -0.1228 -0.0401 -0.0638
41292W        W84345  31.303   7.683  22.663 -0.0914 -0.0695 -0.2459
41293W        W84346  13.139  22.224  18.516 -0.0095 -0.0651  0.0562
41294W        W84347  14.714  27.221  23.115 -0.1561 -0.0904  0.2521
41295W        W84348  14.482   7.187  27.817  0.0160 -0.2557  0.0763
41296W        W84349  32.869  12.448  20.136 -0.1722  0.4510 -0.2163
41297W        W84350  26.079  31.429  19.752 -0.0719  0.1530  0.0272
41298W        W84351  11.402  18.639  15.844  0.0567 -0.0231 -0.0423
41299W        W84352  25.962  17.190   3.221 -0.1992  0.0493 -0.2530
41300W        W84353  10.792  18.207   6.972 -0.0959  0.0292  0.2216
41301W        W84354   6.356  11.936  18.115 -0.0784  0.0399  0.1436
41302W        W84355   1.594   9.553  23.253  0.1591 -0.0279 -0.0711
41303W        W84356  32.591  15.728  13.432  0.1785 -0.0483 -0.1750
41304W        W84357  28.376   0.654   9.285  0.0719  0.0120  0.3946
41305W        W84358  11.186  14.676  16.337 -0.1859  0.1550  0.1994
41306W        W84359   1.407  21.881  23.682  0.2345 -0.3455 -0.3534
41307W        W84360  28.382  18.204  26.280  0.0647 -0.0979 -0.1238
41308W        W84361  22.118  30.345  21.617 -0.0464  0.2366 -0.0866
41309W        W84362  10.376  29.968  16.089 -0.0033  0.0078 -0.1479
41310W        W84363   1.369  17.592  18.850 -0.2079  0.4341  0.2248
41311W        W84364  29.113  25.958   7.020  0.3199 -0.0337  0.1002
41312W        W84365  30.397  19.987  17.444 -0.1118 -0.0689  0.1194
41313W        W84366  13.040   7.900  16.233 -0.1426 -0.0853  0.1152
41314W        W84367  30.009  23.449  25.694 -0.2968 -0.0742  0.0389
41315W        W84368  28.261   8.677  27.388  0.1131 -0.0802  0.0269
41316W        W84369   6.385  31.204   0.178 -0.2079 -0.2982 -0.0360
41317W        W84370   1.073  16.803  14.967 -0.0257  0.1099 -0.3711
41318W        W84371  34.288  22.999  22.017 -0.4599 -0.0818  0.3427
41319W        W84372  21.724  25.639  18.492  0.1801  0.0679 -0.0993
41320W        W84373   0.702  33.529  15.084 -0.3185 -0.0121 -0.1484
41321W        W84374   3.194  10.756  20.162 -0.1715 -0.0658  0.1676
41322W        W84375   3.835   9.719   6.382  0.1508  0.1938  0.0384
41323W        W84376  33.260   0.836  25.012 -0.0730 -0.0867 -0.1856
41324W        W84377  19.915  33.775  18.560 -0.0842  0.0957  0.2088
41325W        W84378  13.766  19.956  24.586 -0.0694 -0.1098  0.1543
41326W        W84379  29.309   6.205  18.822 -0.0889 -0.0051 -0.3438
41327W        W84380   6.847  14.963   0.134 -0.0837  0.1128  0.0749
41328W        W84381   3.645  22.401  23.440 -0.0682  0.3167  0.0531
41329W        W84382  32.096  28.143   0.621  0.0286 -0.0866  0.1020
41330W        W84383   4.791  24.437   3.695 -0.1242 -0.0758  0.1801
41331W        W84384   7.674  13.805  25.116 -0.2890 -0.3358 -0.3892
41332W        W84385  31.967  20.444  23.304 -0.2434  0.0693 -0.0743
41333W        W84386  32.794  19.107   4.172 -0.1741  0.2005  0.2246
41334W        W84387  15.897  26.108  23.193  0.1646 -0.0721  0.0133
41335W        W84388  24.308  11.113  26.090 -0.2043  0.1583  0.0278
41336W        W84389   5.079  30.071  23.458 -0.0319 -0.2308 -0.0304
41337W        W84390  23.396  17.856  28.275 -0.0535 -0.0199 -0.1755
41338W        W84391  33.056  33.930   8.833 -0.0940 -0.0005 -0.1200
41339W        W84392  31.453  11.479  17.273 -0.1596  0.1243  0.2381
41340W        W84393  22.122  30.888  21.566 -0.3315 -0.0945 -0.2048
41341W        W84394  17.892  18.643  24.385  0.1320  0.1799 -0.1978
41342W        W84395  32.470   1.885  21.691 -0.1991  0.0512  0.1159
41343W        W84396  10.205  23.438  28.645 -0.3594  0.1737 -0.1196
41344W        W84397   4.560  15.889  22.967 -0.0226  0.0063 -0.2064
41345W        W84398   4.907  32.685  20.315 -0.0046 -0.1215 -0.0018
41346W        W84399  31.824   1.870  19.961  0.0829 -0.1751  0.2156
41347W        W84400  23.538   6.792   3.543 -0.1881 -0.1302 -0.1602
41348W        W84401  23.393  10.433  17.105  0.0707 -0.2898 -0.3533
41349W        W84402  26.317  19.266  27.102 -0.1163 -0.3092  0.3443
41350W        W84403  32.436  30.129  24.008  0.2393  0.2805  0.0440
41351W        W84404  28.667  27.780  27.949 -0.1443  0.3816  0.0019
41352W        W84405  21.004  20.753  23.777 -0.0893  0.0056 -0.0132
41353W        W84406   1.467  24.932   6.609  0.0308  0.0333  0.3276
41354W        W84407  26.839   5.045  15.298 -0.0415  0.3032 -0.2336
41355W        W84408  18.704  11.586  17.790 -0.0378 -0.1871  0.0698
41356W        W84409  34.171  18.802  20.002 -0.0694  0.1573  0.0134
41357W        W84410  29.372  13.346   3.514 -0.1986 -0.4282  0.1007
41358W        W84411  33.022  21.930  19.642 -0.2277 -0.0861  0.1354
41359W        W84412  12.276  24.543  16.736 -0.2639  0.1960  0.2309
41360W        W84413  27.777  20.045   7.102 -0.1924 -0.1987 -0.4123
41361W        W84414   1.770  28.709  21.277 -0.0607  0.0517  0.1001
41362W        W84415  28.936  29.974  25.110  0.1620 -0.0640 -0.3236
41363W        W84416   5.933  21.234  18.391  0.2033  0.0218 -0.1666
41364W        W84417  13.520   2.019   0.347  0.2109 -0.2360  0.0479
41365W        W84418   2.729   8.313  22.193 -0.1469 -0.2653  0.2252
41366W        W84419  20.904  24.716  24.487  0.0475  0.0229 -0.0670
41367W        W84420   4.532   6.381  14.416 -0.1590 -0.0934  0.1325
41368W        W84421  12.034  24.881  16.479 -0.0196 -0.1272 -0.2171
41369W        W84422  33.134  23.893  17.101 -0.0109  0.0415 -0.5318
41370W        W84423  14.459  31.704  23.421  0.2947  0.0219 -0.3311
41371W        W84424   8.281  20.576  28.559 -0.0941  0.0101 -0.2163
41372W        W84425  20.375  29.027   8.045 -0.1870 -0.1696 -0.0693
41373W        W84426  31.902  25.163   6.038 -0.1216  0.0270  0.0930
41374W        W84427  20.060  27.510  18.093 -0.0491  0.0013 -0.0084
41375W        W84428  28.682  22.195  18.542  0.3930  0.3265  0.0012
41376W        W84429  27.774  33.491  14.917 -0.0170  0.2704 -0.1638
41377W        W84430   1.401   6.766  27.008  0.1571  0.1770 -0.0358
41378W        W84431   1.203   2.174   0.546 -0.0007  0.2212 -0.0079
41379W        W84432  34.128  32.601  14.579  0.1738 -0.2777 -0.1178
41380W        W84433  31.170   5.485  16.799  0.2285  0.1764 -0.0328
41381W        W84434  32.944  27.438  22.343 -0.0567 -0.1665 -0.1608
41382W        W84435  25.167  20.017   3.404  0.2137 -0.0264  0.2824
41383W        W84436   4.843  20.959   0.130  0.0815  0.0801  0.0360
41384W        W84437   7.321  12.974  28.925 -0.0991  0.1900  0.2489
41385W        W84438   6.653  16.538  21.896 -0.0286  0.0325  0.1837
41386W        W84439   7.195  31.469  28.401 -0.0271  0.0768  0.0524
41387W        W84440  29.187  23.159  19.572  0.1211  0.3192  0.0586
41388W        W84441  31.672  18.096   8.452  0.4197  0.1189 -0.2074
41389W        W84442  20.194  25.400  22.556 -0.0710 -0.1224 -0.0811
41390W        W84443  32.964  33.521  17.747 -0.0748  0.3257  0.2513
41391W        W84444   5.595  15.939  17.607 -0.4011  0.0824 -0.0802
41392W        W84445  31.515  21.849  18.091  0.2375 -0.0211  0.1993
41393W        W84446  34.264  27.218  28.123  0.1387  0.0957 -0.0998
41394W        W84447  12.465  33.406  20.852  0.1034  0.2163 -0.2074
41395W        W84448  27.350   4.064  28.691 -0.2763  0.1394 -0.0645
41396W        W84449  31.675  23.935  27.180 -0.2423  0.1962 -0.0789
41397W        W84450   3.827  27.275   4.326  0.2902  0.0627  0.1551
41398W        W84451  14.622  11.748   5.616 -0.0638  0.2938 -0.1404
41399W        W84452  21.484   1.428   4.512  0.3285 -0.0564  0.0856
41400W        W84453  33.826   6.905  22.096 -0.0578  0.3410 -0.1755
41401W        W84454  28.697  21.141  25.796 -0.4370  0.2459  0.0169
41402W        W84455  28.176   9.374   1.009  0.0498  0.0077 -0.0660
41403W        W84456   1.400  17.905  23.395 -0.2921  0.0606  0.0035
41404W        W84457  23.769  23.892   1.431  0.1180 -0.4309 -0.2167
41405W        W84458  21.396  21.483   1.354  0.2962  0.1856 -0.0072
41406W        W84459   9.347  25.781  25.301  0.1099 -0.0426  0.2087
41407W        W84460  21.980  13.049  16.231  0.2453  0.0924 -0.1441
41408W        W84461  18.106  23.552  27.267  0.1851 -0.5104 -0.1367
41409W        W84462  29.348  29.646  15.591  0.1332  0.1896 -0.5563
41410W        W84463   6.553   1.807  22.035  0.0401  0.2398 -0.1106
41411W        W84464   4.406  17.970  10.307 -0.3334  0.1540  0.1786
41412W        W84465  22.871  20.675  15.580  0.2775  0.0458 -0.2272
41413W        W84466   7.205  14.019   4.020 -0.3250  0.1605 -0.0244
41414W        W84467  10.354  32.926  15.244 -0.0671  0.1037 -0.3292
41415W        W84468  14.881  14.163   0.289  0.1782  0.0215 -0.0041
41416W        W84469   1.280  27.386  25.664 -0.2955 -0.0088  0.1939
41417W        W84470   5.187  13.880  29.001  0.2775 -0.2115 -0.1648
41418W        W84471  11.368  29.545  23.831 -0.1120  0.2008  0.1324
41419W        W84472  21.843  21.515  17.421  0.2453 -0.1026  0.1135
41420W        W84473  10.213  26.250  28.676  0.0465  0.1999  0.1573
41421W        W84474  25.626   9.758   1.617 -0.1029  0.2230 -0.0971
41422W        W84475  19.844  31.523  10.565 -0.0560  0.1300 -0.2411
41423W        W84476  25.569  31.027  17.725 -0.2189  0.3908 -0.1710
41424W        W84477  26.469   2.038  22.637 -0.1527 -0.1936  0.0968
41425W        W84478   5.619   2.075   6.281 -0.1733 -0.0461  0.0911
41426W        W84479  26.241  16.681  23.816 -0.3681  0.4553  0.1411
41427W        W84480   0.151   0.344  24.131 -0.2127  0.4434  0.0156
41428W        W84481  33.531  27.268  27.426 -0.1569 -0.2447  0.2054
41429W        W84482   4.423  19.248  27.316 -0.2310 -0.2364 -0.1042
41430W        W84483   3.194   9.113  18.993 -0.2740  0.0997 -0.3176
41431W        W84484   8.824  24.231  20.210  0.0985 -0.0403 -0.1520
41432W        W84485  31.933  13.872   3.717  0.0920  0.1157  0.1706
41433W        W84486  22.781   0.728  15.004  0.0497  0.1950  0.0308
41434W        W84487  13.081  12.457  10.283 -0.2073 -0.0096 -0.2057
41435W        W84488  11.386  23.355   0.968  0.1660  0.2389  0.3602
41436W        W84489   1.418  24.433  20.304 -0.1588 -0.2507  0.2243
41437W        W84490   5.388  27.168  25.819 -0.0625 -0.0943 -0.2865
41438W        W84491  26.866  12.228  17.823  0.0487 -0.2172  0.0282
41439W        W84492  34.613  22.380  17.762 -0.0942 -0.4772 -0.0877
41440W        W84493  17.904  24.731  14.719  0.0518  0.2384  0.2555
41441W        W84494   8.968  21.159   0.566  0.1449  0.0744 -0.0959
41442W        W84495  19.831  26.646  15.945 -0.0100 -0.5127 -0.0585
41443W        W84496   2.294  23.011  21.898  0.0867 -0.1126 -0.1266
41444W        W84497   6.302  17.993   3.286  0.0949 -0.1285 -0.0169
41445W        W84498   3.378   1.458  19.244  0.0178  0.1209  0.0298
41446W        W84499  25.501  17.415  18.739  0.0971 -0.0860 -0.0881
41447W        W84500  22.987  14.444   1.430  0.2225  0.0725 -0.1278
41448W        W84501  24.490   5.775  20.398 -0.2089 -0.0456  0.2970
41449W        W84502   8.721  14.174  21.098  0.0600  0.1718 -0.2365
41450W        W84503  29.613  27.994  23.466  0.1436 -0.1446 -0.2176
41451W        W84504  16.382  13.052   1.616  0.0990 -0.1994  0.0225
41452W        W84505  34.353  28.231  18.050  0.1646 -0.1402  0.2589
41453W        W84506  17.076  28.934   0.715 -0.1456 -0.1596  0.0680
41454W        W84507   1.649  17.792  27.642  0.0041  0.0663  0.1805
41455W        W84508  29.609   0.476  26.621  0.0810  0.0703 -0.3776
41456W        W84509   1.792  26.026  14.366 -0.0158 -0.1198 -0.2114
41457W        W84510  17.886  20.369   3.503  0.0269 -0.0889  0.2765
41458W        W84511  28.879  28.445  22.948 -0.0813 -0.0249  0.0021
41459W        W84512  15.658  30.587  28.936  0.0262 -0.0943 -0.0814
41460W        W84513  24.884  21.910   3.523 -0.0375  0.2656  0.2216
41461W        W84514  34.086   2.240   5.251  0.1805  0.0212 -0.0929
41462W        W84515  13.135  31.338   2.846 -0.0765 -0.0100 -0.0328
41463W        W84516   0.597   0.329  25.127 -0.2048 -0.1044  0.4100
41464W        W84517   8.083  34.605  22.762  0.0943  0.1825 -0.1469
41465W        W84518  21.692  22.824   0.127  0.1799  0.2804 -0.0065
41466W        W84519  23.882  27.205   0.495 -0.1215 -0.0747 -0.1126
41467W        W84520   0.101  21.317  21.750  0.0421 -0.0222 -0.1793
41468W        W84521  27.202  32.070   0.910  0.0726  0.1485 -0.1389
41469W        W84522   2.679  24.065   7.346  0.0981 -0.0209 -0.1930
41470W        W84523  18.022  19.774   4.351  0.0229 -0.0577 -0.1200
41471W        W84524  19.142  28.031   2.055 -0.0147 -0.0866  0.1181
41472W        W84525   5.919   5.612  26.912 -0.1107  0.0633 -0.2246
41473W        W84526   8.106  27.340  21.269  0.1906  0.1497  0.0754
41474W        W84527  29.781  33.719  14.537  0.1366 -0.0095 -0.1758
41475W        W84528   2.857  29.862  19.116  0.0188 -0.0194 -0.0723
41476W        W84529   2.894  23.619   5.632 -0.0823 -0.0804 -0.1276
41477W        W84530   4.410   6.853  20.840 -0.0777 -0.4385  0.3640
41478W        W84531   6.346  30.443  24.206 -0.0334 -0.0212 -0.1202
41479W        W84532   9.604  10.017  16.003  0.0910 -0.3375 -0.0598
41480W        W84533   7.476  21.792  16.924 -0.1864 -0.1441 -0.1068
41481W        W84534   2.425  17.474  28.204  0.1084  0.0739  0.0075
41482W        W84535   8.209  31.904  28.901  0.2554 -0.0891  0.0333
41483W        W84536  25.247  13.158  26.283  0.2528 -0.1684 -0.1509
41484W        W84537  17.205  17.164  27.157 -0.1137 -0.0698  0.0994
41485W        W84538  32.936  18.035  13.800  0.2069  0.2941 -0.2469
41486W        W84539  32.106   9.469  19.775 -0.2721  0.0880 -0.0470
41487W        W84540  24.283  27.455  20.431 -0.2992  0.3415  0.1842
41488W        W84541  32.858  31.734   0.565 -0.1963 -0.1264  0.0471
41489W        W84542  21.100  30.819  25.670  0.0881  0.0638 -0.0824
41490W        W84543  16.076  29.224  21.098  0.3190  0.0984  0.0068
41491W        W84544   1.273  26.860   1.212  0.0989  0.2092  0.1039
41492W        W84545  32.084   3.875  22.677  0.0007 -0.0721  0.0473
41493W        W84546  20.441  16.270  13.499 -0.0327  0.1535 -0.1800
41494W        W84547  25.776  13.734  21.485  0.0561  0.0371  0.0681
41495W        W84548  33.392  19.392  21.300  0.0108 -0.0774 -0.2002
41496W        W84549  24.849  27.597  28.132 -0.0737  0.0075 -0.0287
41497W        W84550  33.399  31.936  24.607 -0.0683 -0.1089  0.2895
41498W        W84551   8.042  12.459  19.049  0.2815  0.1224 -0.1018
41499W        W84552  26.156  15.921  17.714 -0.0861  0.0105  0.0364
41500W        W84553  12.559  34.539   0.305  0.2142 -0.0408  0.2167
41501W        W84554  24.381   5.333  15.884 -0.1125 -0.0830  0.2128
41502W        W84555  32.066   4.871   2.808 -0.2168  0.0825  0.1221
41503W        W84556   1.631  27.251  23.518 -0.0192 -0.2251 -0.1037
41504W        W84557  15.330  28.069  25.600 -0.0167  0.0886 -0.0612
41505W        W84558  20.765  26.190  16.276  0.0599 -0.1385 -0.0508
41506W        W84559   0.233  13.758   5.400 -0.0367  0.0101  0.0789
41507W        W84560  28.408  25.610   8.245  0.0491  0.1441 -0.2837
41508W        W84561   2.554   9.804   3.350  0.2469  0.0356  0.0267
41509W        W84562  31.835  26.943  25.489 -0.0002 -0.0075  0.0671
41510W        W84563  11.988  24.302   3.616 -0.0496 -0.0330  0.2005
41511W        W84564  29.347  21.612   1.956  0.2460  0.2179  0.0275
41512W        W84565  26.268   1.093  25.877  0.0307 -0.0340  0.2816
41513W        W84566  23.371  17.363  28.866 -0.1068  0.0523  0.0864
41514W        W84567  16.917   9.723  20.714 -0.2157 -0.3467 -0.0389
41515W        W84568  31.493  16.837  25.874 -0.0064 -0.0836 -0.1061
41516W        W84569  30.037  20.015   9.206 -0.2440  0.0575 -0.3161
41517W        W84570  31.580  29.066  13.591  0.1616  0.1712  0.0468
41518W        W84571  17.472  25.743  26.501  0.3517 -0.2135  0.0346
41519W        W84572  30.905   9.725   6.493  0.1289 -0.0682 -0.1433
41520W        W84573  13.364  21.691   7.860  0.3063  0.1078  0.1216
41521W        W84574   2.825  31.870  28.951 -0.1477  0.0546 -0.2744
41522W        W84575  29.173  23.941   9.677  0.0068  0.0515 -0.2164
41523W        W84576  28.547  23.543   4.261 -0.0676  0.2330 -0.4480
41524W        W84577   5.943  23.382  14.985 -0.0294 -0.1164 -0.1444
41525W        W84578   0.748  14.361   6.739  0.2201 -0.0252 -0.1368
41526W        W84579   3.532  15.858   2.092  0.0113 -0.0474 -0.3933
41527W        W84580  10.262  14.010  27.573 -0.0540  0.1076  0.1463
41528W        W84581  30.133  25.611  16.640 -0.0155 -0.1230  0.3183
41529W        W84582   0.132  28.014  28.602 -0.3485 -0.1533 -0.3076
41530W        W84583  18.727  23.385  26.990  0.2378 -0.0220  0.1348
41531W        W84584   4.096   0.732   2.770  0.0941  0.0409  0.0970
41532W        W84585   6.216   5.017  26.001 -0.1712  0.0035 -0.1317
41533W        W84586   1.857  10.313   1.523 -0.1356 -0.0369 -0.1601
41534W        W84587  34.077   1.158  19.556  0.2051  0.4400 -0.4775
41535W        W84588  32.163   3.796   5.007  0.0562 -0.2273 -0.3367
41536W        W84589  21.042  14.317  23.945 -0.3519 -0.0873 -0.3306
41537W        W84590   7.993  21.530  25.732  0.0402 -0.1430 -0.0424
41538W        W84591  24.368  25.318  19.313 -0.1592  0.1394 -0.2737
41539W        W84592  24.546  10.362   6.385  0.1760  0.2204 -0.0185
41540W        W84593   8.175  34.383  17.825 -0.0203 -0.2158 -0.0989
41541W        W84594  27.508  18.071   8.256  0.0730 -0.1574  0.0548
41542W        W84595  32.199  29.734  23.047  0.3142  0.0184  0.2742
41543W        W84596   4.271  10.517  27.206 -0.0688  0.0854 -0.0379
41544W        W84597   3.271  12.554  14.112 -0.2187  0.1721  0.0890
41545W        W84598  24.373   1.458   4.916 -0.1648 -0.1281  0.4225
41546W        W84599  18.290  18.292  24.017  0.0358 -0.1455 -0.0340
41547W        W84600  33.708  25.040  13.789  0.0292 -0.2815 -0.0262
41548W        W84601  31.032  19.565  27.851 -0.0890 -0.0776 -0.2306
41549W        W84602  28.384  31.317  26.113 -0.1340 -0.0260  0.1007
41550W        W84603   6.116  28.153   5.732  0.0111  0.0484 -0.2654
41551W        W84604  29.892  33.657   0.965 -0.0981 -0.0181  0.0731
41552W        W84605  24.752  13.818   2.162  0.2302  0.0601  0.3972
41553W        W84606  26.808  10.713  26.898 -0.1390 -0.0733 -0.1604
41554W        W84607   9.088  13.253  10.040  0.0249  0.1812 -0.1333
41555W        W84608  23.807  13.464  27.454 -0.3307  0.3000  0.0978
41556W        W84609  26.780  30.471  17.351 -0.2737 -0.0208 -0.2372
41557W        W84610  30.331  14.589   1.645  0.2380  0.0306 -0.2547
41558W        W84611   5.538  17.369   2.787 -0.2414  0.1835 -0.0001
41559W        W84612  20.472  19.094  13.322 -0.0657  0.3674  0.1241
41560W        W84613  33.084   9.370   1.702  0.0224  0.0157 -0.3302
41561W        W84614  32.953  22.987  24.456 -0.4768  0.2141  0.1151
41562W        W84615  23.984  27.963  18.971  0.0196  0.2697 -0.0432
41563W        W84616  17.752   8.583  22.547 -0.0393 -0.2639 -0.1464
41564W        W84617  21.365  27.710   0.852 -0.0989 -0.1354 -0.1227
41565W        W84618  32.685  27.665  26.937 -0.0344 -0.1659 -0.1082
41566W        W84619  32.684  31.494   6.159 -0.1582  0.1624  0.0838
41567W        W84620   1.656  13.515   2.820 -0.0878  0.2037  0.1635
41568W        W84621   4.719  34.609   9.517  0.0697 -0.0587 -0.1278
41569W        W84622  16.050  30.767   4.254  0.0146 -0.2261 -0.3052
41570W        W84623  30.945  25.384  18.914 -0.2699 -0.2384 -0.5123
41571W        W84624   6.686  31.959   8.657  0.0891  0.0678  0.0185
41572W        W84625  25.788  30.242   4.900  0.1079 -0.1123  0.0775
41573W        W84626   7.122  20.690   2.269 -0.1875  0.0940 -0.1379
41574W        W84627  18.306  22.530  25.225  0.0107 -0.0828  0.1465
41575W        W84628  32.143   8.257  19.209 -0.1857  0.0743 -0.1452
41576W        W84629  23.101   7.615   0.816 -0.1444 -0.2448 -0.2900
41577W        W84630  23.911  11.460  15.755 -0.0371 -0.2581  0.1380
41578W        W84631  10.731  24.830   4.398  0.1080 -0.0342 -0.0252
41579W        W84632  13.478  13.761   7.243 -0.1658  0.1420  0.1617
41580W        W84633  34.275  16.553   9.496 -0.3030  0.0376 -0.1724
41581W        W84634   9.612  20.414  22.579 -0.2890 -0.5053 -0.4287
41582W        W84635   7.173  29.093  23.567  0.1552 -0.2362  0.2030
41583W        W84636   1.030   3.059  25.774 -0.1294 -0.1683  0.1432
41584W        W84637  27.120  19.125  21.739  0.0498 -0.2510 -0.2775
41585W        W84638  16.244  18.018   6.930 -0.0753 -0.1576  0.0042
41586W        W84639  32.887   8.051  19.735  0.1436 -0.2178 -0.0552
41587W        W84640   0.277  29.530  15.377  0.3854 -0.1025 -0.0892
41588W        W84641  34.483  32.937   8.085 -0.2288  0.2828  0.0362
41589W        W84642  24.404   0.594  23.203 -0.1959 -0.2397  0.0686
41590W        W84643  14.332  20.612   4.386 -0.1280 -0.1524  0.2738
41591W        W84644   4.297  10.998  23.709 -0.2256 -0.0750 -0.4259
41592W        W84645   1.868  26.717  28.636  0.1247 -0.0173 -0.2646
41593W        W84646  11.057   2.657  20.530 -0.0804  0.2423  0.3326
41594W        W84647   3.790  14.704  20.148  0.3223  0.0695 -0.1373
41595W        W84648   7.841  17.258  28.211 -0.3698 -0.1885  0.0620
41596W        W84649  34.140  16.632   5.756 -0.0115 -0.2087 -0.1650
41597W        W84650  34.111  17.525  25.251  0.1610 -0.0697  0.1357
41598W        W84651  30.078  25.132  26.602 -0.0636 -0.1055 -0.0353
41599W        W84652  18.456   3.247   4.471 -0.0249  0.2446 -0.3928
41600W        W84653   0.474   9.905   3.015  0.2810  0.2381 -0.2016
41601W        W84654  31.336  17.171   6.553  0.0136 -0.4350 -0.0367
41602W        W84655  28.387  25.994   3.062  0.2170 -0.2600 -0.1172
41603W        W84656   3.095  17.711   7.009 -0.2910 -0.1020  0.2377
41604W        W84657  26.070  16.144   4.109  0.0651  0.0152 -0.0163
41605W        W84658  21.957  23.804  16.723  0.1734 -0.1792 -0.2206
41606W        W84659  14.110   5.630  19.278 -0.0110  0.0832 -0.2165
41607W        W84660  30.745   5.941   6.648  0.1919  0.0115 -0.1143
41608W        W84661  17.428  22.908  26.494 -0.1115  0.0081  0.0638
41609W        W84662   4.377  16.518   2.195  0.4111 -0.1927 -0.0834
41610W        W84663  25.957  22.037  18.561  0.2293  0.2601  0.1086
41611W        W84664  31.314  27.364   5.743  0.1093  0.3905  0.1575
41612W        W84665  24.890  29.680   1.488  0.2785  0.0694 -0.1576
41613W        W84666  29.911  26.254   5.029  0.1920 -0.0563 -0.0111
41614W        W84667   0.115  20.585  14.760  0.1740  0.0710  0.3181
41615W        W84668  22.987  22.835  23.938  0.0905  0.0991 -0.2238
41616W        W84669  30.985  25.329   2.783 -0.1479  0.2022  0.1999
41617W        W84670  26.768   4.443   7.258  0.1500 -0.1166  0.0764
41618W        W84671  22.534  24.440   9.529 -0.0179  0.0221  0.1824
41619W        W84672  24.797   3.153   6.814 -0.1773 -0.0646 -0.0868
41620W        W84673  32.524  21.617  21.389  0.0650 -0.1642  0.1759
41621W        W84674  32.882   6.932   0.594  0.1648 -0.1534  0.2233
41622W        W84675  26.163   7.580  25.698  0.1735  0.1314  0.0636
41623W        W84676   0.740  22.930   5.916  0.1534 -0.1744  0.1782
41624W        W84677  22.792  13.503  23.615 -0.0681 -0.0946  0.1887
41625W        W84678  32.451  27.372  22.278  0.2359  0.1101  0.1602
41626W        W84679   5.186  20.551  18.965 -0.1219 -0.1542 -0.1381
41627W        W84680  14.045  28.337   5.971  0.4497  0.0459  0.1408
41628W        W84681  31.933  14.916  18.283  0.2228  0.1310 -0.1119
41629W        W84682   0.128  32.673  27.534  0.2465 -0.2341  0.2158
41630W        W84683  27.543  28.774  14.017  0.1248 -0.2238 -0.0748
41631W        W84684  30.019  30.835  27.284 -0.0192  0.4005 -0.1524
41632W        W84685  21.316   6.462  27.134  0.0646  0.4080 -0.0057
41633W        W84686  16.715  28.253  25.253  0.2814  0.3673  0.1252
41634W        W84687  32.177  32.681  15.810 -0.1516 -0.1085 -0.1352
41635W        W84688   3.425  12.042   7.234 -0.3837  0.0850 -0.0151
41636W        W84689  34.314  16.318   1.067  0.1451 -0.4248  0.0574
41637W        W84690  29.321  16.981  25.096  0.1692 -0.3915  0.0312
41638W        W84691  21.938  19.315   5.712  0.3090 -0.1433  0.1667
41639W        W84692  18.500  17.296  13.102  0.0052  0.1804  0.1322
41640W        W84693   1.968   0.515   0.638 -0.1494  0.3095 -0.0888
41641W        W84694  23.635  34.029  21.128  0.0551 -0.0932 -0.0064
41642W        W84695   1.437   5.241  14.323  0.2337 -0.0100  0.1189
41643W        W84696  32.755  28.171  15.453 -0.0052  0.0778 -0.0735
41644W        W84697  13.843  27.403   9.685  0.0438 -0.0476  0.0903
41645W        W84698   0.281  17.348   6.657  0.2999 -0.1440  0.0366
41646W        W84699  20.457  26.035   5.179 -0.0391  0.0862  0.0317
41647W        W84700  33.589   2.226  21.879  0.0382 -0.0227 -0.0279
41648W        W84701  16.919  15.656  25.041  0.0040  0.0772  0.3033
41649W        W84702   0.870  24.261   6.539 -0.2414 -0.0321  0.1521
41650W        W84703  34.604   4.614  28.759  0.4697  0.0552 -0.0286
41651W        W84704  27.233  19.973  26.026 -0.2005 -0.2074  0.2068
41652W        W84705  33.523   6.750   8.836  0.1051  0.1254 -0.3944
41653W        W84706   4.465  28.846  23.656 -0.1960  0.0653 -0.2925
41654W        W84707  31.550  33.002  15.467 -0.0143 -0.0093  0.1925
41655W        W84708   7.480  20.636   4.737  0.2447  0.0200  0.2336
41656W        W84709   1.249   9.420   5.048 -0.1418  0.3362  0.5800
41657W        W84710  22.137  26.568  25.440  0.0553 -0.0254  0.3538
41658W        W84711  23.150  17.177  26.281 -0.2408 -0.2792 -0.0089
41659W        W84712  22.520  14.028  28.262 -0.2102 -0.3163 -0.0964
41660W        W84713   9.753  14.679  27.896 -0.1573 -0.4127  0.2406
41661W        W84714  23.386  16.686  24.939  0.0345 -0.0510 -0.2619
41662W        W84715  30.248  34.545  18.126 -0.2407  0.0388  0.4620
41663W        W84716  32.639  28.792   7.834  0.3432 -0.1372 -0.0627
41664W        W84717   8.055  12.901   0.941 -0.0452 -0.1816  0.1192
41665W        W84718  24.650  21.540   5.178  0.0423 -0.1062  0.0952
41666W        W84719  31.088  32.031   6.060 -0.1313  0.0639  0.0813
41667W        W84720   0.662  12.082  24.588 -0.3143 -0.1471  0.1378
41668W        W84721   0.672  14.991   2.466  0.4021  0.0713  0.1445
41669W        W84722  18.764  14.931   0.142 -0.0764 -0.0069 -0.0585
41670W        W84723   5.664  31.173  27.894  0.1849 -0.0930  0.2505
41671W        W84724  14.132  33.257  28.635  0.2350 -0.0209  0.0789
41672W        W84725  22.397   0.036  18.234 -0.0339  0.3038  0.0026
41673W        W84726  32.255  24.089  26.659  0.1353  0.1432 -0.0410
41674W        W84727   2.285  21.079  21.070 -0.1756 -0.1611 -0.0686
41675W        W84728  18.664  21.304   7.743 -0.0280 -0.0875 -0.0067
41676W        W84729   3.970  29.061   5.353 -0.0759  0.0235 -0.0971
41677W        W84730  18.814   5.814  14.818 -0.0985 -0.4466  0.2974
41678W        W84731  10.569  28.276  19.826 -0.1449  0.3261  0.2574
41679W        W84732  28.548  31.358  23.086  0.1074  0.2895 -0.1865
41680W        W84733  26.454  31.112  16.929 -0.1686  0.0413 -0.2085
41681W        W84734  23.293  31.627  24.193  0.0809 -0.0937 -0.2409
41682W        W84735  21.430  20.853  26.547  0.3346  0.2233 -0.0574
41683W        W84736   5.425  33.420  19.009  0.0010  0.0599 -0.1899
41684W        W84737  30.735  29.434  16.755  0.2509 -0.1963  0.4519
41685W        W84738   0.610   1.158  28.424 -0.0322  0.0905 -0.0188
41686W        W84739  23.319  19.307  24.151 -0.0615 -0.0890 -0.1621
41687W        W84740   2.943  26.932  14.201 -0.2832 -0.0399  0.3633
41688W        W84741   7.004   4.118  22.652 -0.3076 -0.0757 -0.0240
41689W        W84742  30.649  16.550  18.419 -0.0558 -0.4104 -0.1439
41690W        W84743  26.659  11.684   9.147  0.3132 -0.2499  0.1535
41691W        W84744  22.582  17.561  24.378 -0.1469 -0.0021 -0.2818
41692W        W84745  33.317  27.442   3.242  0.1494  0.4310 -0.4368
41693W        W84746  27.808  18.928  29.011 -0.1232  0.3788 -0.0659
41694W        W84747  18.183  18.470   0.454  0.1547 -0.1717 -0.0395
41695W        W84748  32.288  33.653  27.015  0.2749 -0.0242  0.2221
41696W        W84749   1.608  14.834  15.674 -0.1507  0.1455  0.0537
41697W        W84750  33.436  21.574  28.063 -0.1658 -0.1110 -0.4300
41698W        W84751   5.762  28.554  14.736 -0.0523  0.0534  0.0902
41699W        W84752   3.303  31.421   1.794 -0.1858 -0.0997 -0.0345
41700W        W84753  22.108  24.246  25.151  0.0605 -0.1893  0.2902
41701W        W84754  32.350  33.199  15.660  0.3416  0.0709 -0.2678
41702W        W84755   0.046  19.823   3.622 -0.1065  0.0189  0.1711
41703W        W84756  22.491  23.491  25.083 -0.3773  0.3470 -0.1866
41704W        W84757  12.820  32.045  25.399  0.2863 -0.1766 -0.0172
41705W        W84758  31.368  15.823  20.834 -0.0303  0.1318  0.2159
41706W        W84759   0.384  25.146  24.602  0.0340  0.0717  0.0982
41707W        W84760   4.860  22.932  14.749  0.1374  0.0667  0.1158
41708W        W84761  25.504  26.109   1.287  0.0711 -0.1776 -0.2318
41709W        W84762  19.996  10.935  17.479 -0.0459  0.0760  0.0564
41710W        W84763  27.054  30.083   0.233 -0.0221  0.0208  0.1364
41711W        W84764   8.297  27.908   8.051 -0.1844 -0.3117 -0.1060
41712W        W84765  22.429   3.955  19.257  0.0266  0.2807  0.0366
41713W        W84766  10.818  25.814   2.852 -0.1591 -0.1185 -0.1836
41714W        W84767  30.284  31.872  21.323  0.1494 -0.3731  0.0874
41715W        W84768   0.171   6.838   1.958  0.1329 -0.0428  0.0606
41716W        W84769  12.192   4.460   7.318  0.0675 -0.1048 -0.0941
41717W        W84770   6.973   7.794   8.823 -0.1087  0.1699 -0.2086
41718W        W84771  22.270  27.818  21.780 -0.1990 -0.1040 -0.0857
41719W        W84772   1.217   8.072  23.115 -0.5746  0.2110 -0.1037
41720W        W84773   8.562  17.038  20.894 -0.0823 -0.4404 -0.3411
41721W        W84774  23.567  27.846  13.692  0.0253 -0.2854 -0.0600
41722W        W84775  29.164  14.254  10.048  0.3655 -0.0468 -0.2612
41723W        W84776  29.697  14.428  16.555  0.2396 -0.0619  0.3995
41724W        W84777  28.037  21.243  28.238  0.3096 -0.3129 -0.1678
41725W        W84778  24.726   3.351   9.846 -0.2670 -0.1113  0.3036
41726W        W84779  16.443  24.712  16.973  0.1021 -0.0739 -0.0740
41727W        W84780  25.205   5.641  24.362 -0.2416  0.0485 -0.2641
41728W        W84781  33.323  32.068  21.304 -0.1283 -0.0324 -0.2749
41729W        W84782  19.897  28.672  26.960  0.1981 -0.0538 -0.0119
41730W        W84783  13.614   7.267   4.838  0.1577  0.0347 -0.1396
41731W        W84784  23.361  28.272  23.330  0.3992 -0.2940 -0.1407
41732W        W84785   9.071  16.316  24.862 -0.1184  0.0317 -0.1318
41733W        W84786  25.182  31.716   7.785  0.1798 -0.0564  0.0123
41734W        W84787   1.373  18.186  20.257 -0.0031 -0.2994  0.1087
41735W        W84788  18.584   6.728  28.535  0.2057  0.1611  0.2341
41736W        W84789  30.546  31.405   4.465 -0.1321  0.1127  0.0386
41737W        W84790  12.538   8.094  10.223 -0.2737 -0.2596 -0.1254
41738W        W84791   4.772  28.855   6.302  0.1816 -0.1050 -0.1958
41739W        W84792  27.084  24.622  26.077 -0.1845  0.2094 -0.0373
41740W        W84793  19.660  31.782   6.249 -0.0913  0.0553 -0.0412
41741W        W84794  24.998  16.413  13.538 -0.2091  0.1607 -0.2109
41742W        W84795   5.620   0.197   5.498 -0.3327 -0.2564 -0.0154
41743W        W84796   8.285   5.079   0.149 -0.0657 -0.0554 -0.0903
41744W        W84797  32.975  21.232  23.483 -0.0375  0.2046 -0.1235
41745W        W84798  31.708  28.754   2.079  0.3360 -0.5271  0.3383
41746W        W84799  24.862  19.421  25.317  0.5205 -0.0782 -0.2379
41747W        W84800  12.721  32.474  10.676 -0.1092  0.0255  0.3067
41748W        W84801   8.942  25.715   3.860 -0.1847 -0.1534 -0.0250
41749W        W84802  32.777  30.859   7.496 -0.1806  0.0910 -0.1990
41750W        W84803  24.751  20.188   0.474 -0.1233 -0.0707  0.2554
41751W        W84804   6.928  14.847  20.690  0.0448 -0.5244 -0.0022
41752W        W84805  29.409  13.903  10.888  0.2124 -0.2095  0.0820
41753W        W84806  33.436  26.616  12.888 -0.4138 -0.3047 -0.0323
41754W        W84807  28.862  18.303  23.061 -0.0763 -0.4433 -0.0632
41755W        W84808  26.863  30.881   6.191 -0.0675 -0.0849 -0.0592
41756W        W84809   0.510  29.850  28.675 -0.1725  0.0089 -0.0519
41757W        W84810  33.851  25.098  22.696 -0.1335  0.1108 -0.1889
41758W        W84811  26.137  14.047  13.731 -0.0566  0.0018 -0.1305
41759W        W84812  20.491  28.657   4.535  0.3489 -0.1802 -0.3378
41760W        W84813   3.892  22.825  23.236 -0.2024 -0.0736  0.3438
41761W        W84814  12.530  15.369  18.451  0.0471 -0.0873 -0.1332
41762W        W84815  14.288  11.489   7.325  0.2791  0.1612  0.0223
41763W        W84816  17.236  18.593  25.612 -0.2605  0.0899 -0.1719
41764W        W84817  24.415  25.432   6.373 -0.0322  0.2869 -0.4530
41765W        W84818   1.918  20.316  14.368 -0.1575  0.3196  0.0385
41766W        W84819  32.016  16.544   0.548 -0.0852  0.0463  0.0405
41767W        W84820  13.119   4.576   7.722  0.6994  0.1279  0.0029
41768W        W84821   1.138  16.569  22.236  0.0678 -0.2565 -0.2198
41769W        W84822   0.232  25.955   3.876 -0.0833  0.0140  0.2070
41770W        W84823  11.773  31.371  16.619  0.0143 -0.0382  0.0833
41771W        W84824  30.586  24.210   1.542  0.4582  0.0278  0.0875
41772W        W84825  16.706  19.925  27.050 -0.0886  0.1543 -0.0624
41773W        W84826  22.381   1.058  28.906 -0.1674 -0.0322 -0.0101
41774W        W84827  28.595  22.428   0.700  0.1593 -0.1258 -0.3312
41775W        W84828   0.608  30.187  17.920  0.0401 -0.0484 -0.2051
41776W        W84829   3.051  14.644   6.387 -0.0663 -0.0086 -0.0287
41777W        W84830  13.681  27.036   8.381  0.1178  0.2071 -0.0733
41778W        W84831  26.247   0.657  22.756  0.0562  0.1613  0.0250
41779W        W84832  24.388   4.479   6.424  0.0784 -0.0181 -0.2331
41780W        W84833  16.910  21.511   6.358  0.0734 -0.0210  0.1450
41781W        W84834  13.850  29.736  21.244  0.2388  0.0581 -0.1950
41782W        W84835  34.146  28.447   1.006  0.0021  0.0443  0.0262
41783W        W84836  21.011   5.080   6.202 -0.1702 -0.1820 -0.1511
41784W        W84837  29.047  21.514   6.883  0.1603 -0.1362  0.0830
41785W        W84838  22.145   1.702  10.168 -0.2719 -0.4050 -0.3744
41786W        W84839  26.298  33.707  24.066  0.0588  0.0657 -0.1684
41787W        W84840   4.232  24.155   7.510 -0.3187  0.3161 -0.0181
41788W        W84841  32.467  16.233   1.901  0.0111 -0.3759 -0.0298
41789W        W84842  26.024  25.262   2.303  0.3875 -0.3759  0.1085
41790W        W84843  17.975  19.457   1.889 -0.0121  0.0407 -0.0708
41791W        W84844  32.126  16.167  17.866 -0.1515  0.3047  0.1624
41792W        W84845  30.722  22.461  20.840 -0.1880 -0.0620  0.1977
41793W        W84846  31.909   0.485  19.846 -0.3604  0.0626  0.1541
41794W        W84847   2.527   8.671  20.747 -0.0882 -0.0769  0.2845
41795W        W84848  16.345  30.703  15.800 -0.0891  0.1468 -0.0066
41796W        W84849   6.578  16.590  26.084 -0.2403 -0.2383  0.0367
41797W        W84850   4.391  29.857  22.899 -0.2207  0.0295  0.1327
41798W        W84851   2.147  12.347   2.071  0.3177  0.1430  0.2183
41799W        W84852  17.783  25.217   4.217  0.0282  0.2671  0.0243
41800W        W84853  33.434   4.637   7.219 -0.2250 -0.0847 -0.1806
41801W        W84854  34.518  16.384  23.174  0.1484  0.2890  0.0979
41802W        W84855  15.655  16.773   9.948  0.0516  0.2483  0.1091
41803W        W84856  15.625  29.410  27.232  0.2755  0.0090 -0.2701
41804W        W84857  22.173  22.512   6.574  0.0763 -0.0226 -0.1533
41805W        W84858  24.273  27.994  27.556 -0.0402  0.0529  0.1541
41806W        W84859  12.861  17.369   3.807 -0.1417  0.1517 -0.2056
41807W        W84860  16.708  31.895  21.360  0.1737 -0.1329  0.3828
41808W        W84861  28.351   0.331   9.761 -0.2575  0.1354  0.0847
41809W        W84862   5.524  20.923  23.532 -0.0716 -0.4079  0.2883
41810W        W84863  19.136  29.296  21.656 -0.2347 -0.0762 -0.0416
41811W        W84864   9.693  16.659  28.935  0.3546  0.2992  0.0160
41812W        W84865  33.487  18.475  28.073  0.2335 -0.2470 -0.0774
41813W        W84866  14.757  18.303  26.578 -0.1709 -0.0790  0.1398
41814W        W84867   5.116  22.568   6.413  0.1694  0.1228  0.0826
41815W        W84868  28.224  25.213   7.476 -0.1442 -0.1636  0.2242
41816W        W84869   8.341   4.157   3.837 -0.0816 -0.1428 -0.0341
41817W        W84870   5.378  34.224   8.681  0.0019 -0.3319  0.2967
41818W        W84871  27.255   8.303  18.114  0.0669  0.0834  0.1864
41819W        W84872  23.459  14.506  13.464 -0.1562 -0.0762 -0.0605
41820W        W84873  29.154  33.709   1.085 -0.1378 -0.1690 -0.5990
41821W        W84874  23.642  12.039  22.382 -0.3110 -0.0015  0.1169
41822W        W84875  27.658  27.403   2.092 -0.3556 -0.1358 -0.0978
41823W        W84876  33.432  32.725  25.457  0.0826 -0.0736 -0.2377
41824W        W84877  11.190  25.586   8.952  0.0239  0.1356  0.0771
41825W        W84878   1.862  21.505   8.913  0.0054 -0.1433  0.1267
41826W        W84879  29.968  17.896  20.318 -0.1638 -0.1664 -0.1365
41827W        W84880   0.491  25.846  26.802 -0.1873  0.0830 -0.1120
41828W        W84881  27.745  23.214   4.646 -0.3937 -0.0942  0.1803
41829W        W84882  23.007   9.281  16.355  0.0952 -0.0615  0.3582
41830W        W84883  32.171  19.765  16.853 -0.1427  0.1284  0.1584
41831W        W84884   3.861  14.322  28.740  0.0275  0.0482  0.1975
41832W        W84885  15.491  29.220  19.885 -0.1597 -0.0229  0.1302
41833W        W84886  32.187   9.196   8.320 -0.0499  0.0766 -0.4970
41834W        W84887   0.372  17.424  24.935 -0.2378  0.0487 -0.0220
41835W        W84888  33.047  26.919   6.998  0.2113 -0.3466 -0.0305
41836W        W84889   3.967  32.725  28.983 -0.0171  0.3551  0.3186
41837W        W84890   3.534  29.452   0.289  0.1289 -0.1904  0.0320
41838W        W84891   3.276  22.879   9.316  0.5264  0.2395  0.4119
41839W        W84892  33.192  27.075  28.709 -0.1192  0.0669 -0.3268
41840W        W84893  20.586  18.658  18.735 -0.3621 -0.1216 -0.0577
41841W        W84894  23.237  14.645   8.853 -0.0387  0.1293  0.0312
41842W        W84895  19.405  17.872  23.302  0.2482 -0.3711  0.1266
41843W        W84896  12.218   2.666   0.723  0.0785 -0.4066  0.0731
41844W        W84897   1.156  17.866  21.814  0.1372 -0.1019 -0.0741
41845W        W84898  33.404  24.743   9.054 -0.0541  0.2143  0.2193
41846W        W84899  21.823  27.907   5.804 -0.0675  0.0985  0.1159
41847W        W84900   0.019  25.180  16.178 -0.0042 -0.0263 -0.1642
41848W        W84901  24.253  11.170   8.090  0.3891  0.1702  0.1985
41849W        W84902   3.748  19.508  26.834  0.0472 -0.0828  0.3627
41850W        W84903  14.412  27.825  28.903 -0.1079 -0.1807 -0.0703
41851W        W84904  26.841   4.492   9.876  0.2475 -0.3958 -0.0284
41852W        W84905  25.174  33.102  16.057  0.4042  0.4000  0.1476
41853W        W84906   7.013  32.637  26.508 -0.4128 -0.0162  0.1534
41854W        W84907  10.588  29.513   4.038  0.0487 -0.1261 -0.2154
41855W        W84908  18.567   7.178  16.559  0.2866  0.2190 -0.1744
41856W        W84909  28.614  27.803   8.768 -0.0734  0.1539  0.0712
41857W        W84910   4.912  25.330  26.180 -0.1309  0.0265 -0.1404
41858W        W84911   5.150  11.777  15.592 -0.0457 -0.0346  0.2055
41859W        W84912   8.336  19.717  24.836 -0.1733 -0.0437  0.2668
41860W        W84913  27.100  29.063  17.091 -0.2127 -0.0887 -0.0699
41861W        W84914  30.135  24.485  15.695  0.1223 -0.0402  0.2627
41862W        W84915   0.684  16.027  23.581  0.0475 -0.0715 -0.1197
41863W        W84916  25.039   0.662  20.324  0.0594 -0.0452  0.0096
41864W        W84917  23.055  28.862  19.935  0.2610  0.3257 -0.1899
41865W        W84918  15.566  19.557   6.947 -0.1390  0.2089 -0.2033
41866W        W84919  32.976  26.729   6.402  0.1099  0.0967  0.0663
41867W        W84920  28.084  30.524  22.270 -0.0086  0.0148  0.0491
41868W        W84921  23.955  27.642  16.841  0.1536  0.1081 -0.0095
41869W        W84922  14.019  28.986  19.852  0.2278  0.0792 -0.0559
41870W        W84923  33.497  16.390  15.294  0.1269 -0.1930  0.0259
41871W        W84924  16.638  25.100   4.013  0.0695 -0.4496  0.0277
41872W        W84925   1.492  24.287  24.042  0.1315  0.2033  0.2967
41873W        W84926   5.443  17.753  21.480 -0.0272  0.2387  0.2301
41874W        W84927  20.838  32.808   0.675 -0.0993 -0.0671  0.2263
41875W        W84928  14.889  30.292  25.927 -0.2667  0.2403  0.2330
41876W        W84929  22.846  21.910  16.477  0.3640 -0.0131 -0.2704
41877W        W84930   0.672   4.987  17.730  0.1481  0.0552 -0.2600
41878W        W84931  20.570  27.289  16.554  0.1023  0.0028 -0.2300
41879W        W84932  22.685  10.862   6.077 -0.2137  0.2473 -0.0521
41880W        W84933  10.162  16.675  19.518  0.2996  0.2753  0.2163
41881W        W84934   0.409  15.718  25.889 -0.0454 -0.0860 -0.0338
41882W        W84935   6.489  32.489  21.594 -0.0786 -0.2235  0.0237
41883W        W84936  31.161  21.983  18.745 -0.0539  0.1595  0.0625
41884W        W84937   9.306   2.138  22.672  0.2423 -0.1490  0.1182
41885W        W84938   5.309   3.757  19.102 -0.0159 -0.1110  0.1428
41886W        W84939   4.711  15.807  23.528 -0.2357  0.2293 -0.0097
41887W        W84940  12.688  28.568  28.191 -0.0740  0.0891  0.0636
41888W        W84941  20.012   4.224  18.507 -0.1373 -0.1069 -0.0255
41889W        W84942  28.157  24.000  22.511  0.0504 -0.1987  0.4470
41890W        W84943  25.536   7.150  14.361 -0.0492 -0.0239 -0.0523
41891W        W84944  22.873  14.919  25.736  0.0468 -0.1265  0.2384
41892W        W84945  11.227  25.720  15.216  0.0305  0.0122  0.0058
41893W        W84946   1.305  21.667  25.952 -0.0741  0.2564 -0.0365
41894W        W84947  28.924  27.930  19.439  0.0286  0.0107  0.1894
41895W        W84948  30.661  29.103  20.791  0.0461 -0.2381 -0.1327
41896W        W84949   0.165  28.278  18.203  0.1470 -0.1004  0.1151
41897W        W84950   7.373   3.580  20.542  0.2705  0.3806  0.2013
41898W        W84951   1.317  26.872  14.499  0.1702 -0.1213 -0.0466
41899W        W84952   5.513   2.012  22.081 -0.2530 -0.2720 -0.2538
41900W        W84953   0.209  25.635  22.085  0.0383  0.2571  0.1251
41901W        W84954  26.849  25.182  15.309 -0.1972  0.0749 -0.0366
41902W        W84955  19.001  27.113   2.536  0.0049  0.0938 -0.2667
41903W        W84956   4.697  21.032  15.921 -0.0496 -0.2326 -0.1374
41904W        W84957  15.499  31.672  17.776  0.2580 -0.0809 -0.0492
41905W        W84958  19.578  28.921  19.176  0.0840  0.1282 -0.1865
41906W        W84959  32.837   8.490  19.967 -0.2832  0.2469 -0.3178
41907W        W84960   7.171   1.745  22.178  0.3850 -0.0558 -0.2317
41908W        W84961  28.798   2.545  20.105 -0.0304  0.0750  0.0365
41909W        W84962   1.954  17.143  21.262 -0.0213  0.1803  0.1152
41910W        W84963   9.258  24.007  15.434 -0.1186  0.2793 -0.0811
41911W        W84964  28.549  26.495  18.335 -0.1818 -0.1898  0.2117
41912W        W84965   1.721  29.916  13.855 -0.1522 -0.1696  0.0195
41913W        W84966  32.062  31.400  21.540 -0.4421 -0.1997 -0.0678
41914W        W84967  26.994   1.541  16.922  0.0331  0.0382 -0.1061
41915W        W84968  23.844   5.664  21.023 -0.1205  0.0855  0.0867
41916W        W84969  24.233   9.617  28.516  0.3759 -0.1048 -0.0339
41917W        W84970  10.698   6.267  16.360  0.2857 -0.0277  0.1104
41918W        W84971  29.348  29.914  17.159  0.3112  0.2825  0.0548
41919W        W84972  23.616  28.583  19.571 -0.1840  0.3165  0.2953
41920W        W84973  28.421  29.969  21.777  0.2257  0.1658  0.1590
41921W        W84974  32.906  33.014  28.819  0.1858 -0.2202  0.1568
41922W        W84975  13.106  18.654  16.131 -0.1785 -0.0215  0.0841
41923W        W84976   3.680  24.027  27.896  0.1474  0.0190  0.2339
41924W        W84977  26.207   9.902  16.117 -0.1554  0.3454  0.0804
41925W        W84978  33.207  30.023   7.568 -0.0347  0.4481  0.0749
41926W        W84979  25.544  16.450  22.501  0.2556 -0.0316  0.2200
41927W        W84980  27.227   2.809  27.195 -0.1166  0.0413  0.0037
41928W        W84981  33.856  34.458   1.143 -0.0877  0.3208  0.0055
41929W        W84982  24.477   3.528  20.740 -0.0095 -0.1790 -0.0301
41930W        W84983   6.646   2.262  15.576  0.0425  0.0197  0.0635
41931W        W84984  27.073  26.735  14.079 -0.0066 -0.1483  0.2072
41932W        W84985  13.982  32.886  27.947  0.1289 -0.2775  0.1152
41933W        W84986   4.879  29.962  22.599 -0.0009  0.0068 -0.1661
41934W        W84987  33.105  29.643  23.600 -0.2518  0.0616 -0.2505
41935W        W84988  11.041  32.221  26.489 -0.0947  0.1207  0.3551
41936W        W84989   1.713   9.822  20.162  0.0004  0.0770 -0.1537
41937W        W84990  29.631  33.484  17.583  0.0113 -0.1733 -0.1702
41938W        W84991  28.496  14.862  20.554 -0.0696 -0.1214  0.0069
41939W        W84992   9.746  30.294  21.339 -0.0321 -0.1215  0.2028
41940W        W84993  29.929  25.378  20.355  0.1393  0.2417  0.2491
41941W        W84994   0.093  26.865  18.452 -0.2666  0.0033 -0.1451
41942W        W84995   2.978  20.804  13.663 -0.2250 -0.0483  0.2985
41943W        W84996  24.582   3.855  19.604  0.3770 -0.1307 -0.2011
41944W        W84997   8.838  33.965  15.223  0.3423 -0.0391  0.0773
41945W        W84998   3.571  20.906  15.984 -0.1030 -0.2841  0.0474
41946W        W84999   1.654   3.940  17.126 -0.0294 -0.3360  0.0617
41947W        W85000   0.005  23.424  17.958  0.2140 -0.3419 -0.0106
41948W        W85001  19.433  33.390  20.096  0.0972  0.0116 -0.1353
41949W        W85002   6.833  26.703  13.893 -0.0052  0.0085 -0.4321
41950W        W85003   0.404  18.566  16.196 -0.4404  0.1028 -0.0202
41951W        W85004  20.713  28.598  14.580  0.2371 -0.0751 -0.1871
41952W        W85005  32.516  25.894  20.972  0.1320  0.1638  0.0499
41953W        W85006  34.459  22.761  18.609  0.2996  0.0805  0.0028
41954W        W85007  32.652  11.551  16.511 -0.0755  0.0372  0.1365
41955W        W85008  24.504   3.663  21.908  0.0120  0.0472 -0.0828
41956W        W85009   0.040  31.900  18.231 -0.0909  0.0763 -0.3958
41957W        W85010  30.028  28.177  22.591 -0.3689 -0.0236  0.2753
41958W        W85011   0.235  10.132  28.699  0.3353 -0.1112  0.2961
41959W        W85012  28.739  14.104  22.909  0.4163  0.3993 -0.1769
41960W        W85013   9.456   1.777  25.498 -0.1214 -0.2572 -0.0238
41961W        W85014  25.765  21.897  16.394 -0.1462  0.2742 -0.1419
41962W        W85015  31.359  27.502   0.948 -0.1104  0.3297  0.1521
41963W        W85016  30.630  25.045  21.449 -0.0410 -0.3394  0.0090
41964W        W85017  24.364  18.793  23.076 -0.0918 -0.1368  0.2371
41965W        W85018   1.805  31.706  21.600  0.2682  0.1356  0.1596
41966W        W85019  31.908  26.026   2.148  0.2207 -0.1064  0.3997
41967W        W85020  25.953  20.720  19.534  0.0853 -0.0055  0.2441
41968W        W85021   9.459  28.999  13.962  0.0162 -0.1041 -0.3218
41969W        W85022  16.219  17.741  27.064 -0.4835  0.2215  0.1242
41970W        W85023   7.344  22.158  23.785 -0.0067  0.2245 -0.3522
41971W        W85024   2.279   6.718  19.896 -0.1390 -0.0048  0.0421
41972W        W85025  12.792  30.264  16.972  0.0499  0.3499 -0.1183
41973W        W85026  28.492  26.233   1.631 -0.0737 -0.0050 -0.1042
41974W        W85027  21.534  28.204   3.691 -0.0372 -0.3302  0.2701
41975W        W85028  25.381  33.625  18.098  0.2372 -0.0766  0.2373
41976W        W85029  29.299  19.226  16.369 -0.0764  0.1356  0.1771
41977W        W85030   1.484  19.180  13.896  0.0496 -0.0184 -0.2492
41978W        W85031  34.294  33.729  20.217  0.0051  0.1541 -0.0255
41979W        W85032   5.242   9.892  16.123 -0.3678  0.4117 -0.1328
41980W        W85033  33.927  33.675  14.226  0.0357 -0.0242 -0.1540
41981W        W85034  34.419  20.603  25.454  0.1174  0.0518  0.0256
41982W        W85035  34.311  31.122  25.392 -0.0006  0.2496  0.2684
41983W        W85036   6.160   5.152  29.018  0.0254  0.1547  0.1564
41984W        W85037  32.228  22.821  16.055  0.1047  0.1488 -0.0596
41985W        W85038  30.629  24.880  15.022 -0.0758  0.2882  0.1804
41986W        W85039  32.133  24.385  21.899  0.1221  0.0276 -0.3078
41987W        W85040  17.532  31.254  15.361 -0.0207 -0.3049  0.2326
41988W        W85041  28.815   9.640  17.181 -0.2116 -0.5269  0.0458
41989W        W85042  18.000   0.820  20.421 -0.1919  0.0712 -0.1803
41990W        W85043  30.206  23.335  21.742  0.0159  0.1536  0.1976
41991W        W85044  28.159  21.471  20.890 -0.2344  0.0834  0.0204
41992W        W85045  20.479  30.320  29.126 -0.0890 -0.0267 -0.1483
41993W        W85046  32.235  29.985   0.534 -0.1122 -0.2173 -0.0351
41994W        W85047  26.657   4.796  23.598 -0.1429  0.0253 -0.2397
41995W        W85048   8.183  29.625  22.234 -0.2703  0.0296  0.0445
41996W        W85049  34.041  22.645  15.520  0.0574 -0.0499  0.0314
41997W        W85050  10.254   0.642  22.781  0.4017  0.0487 -0.3917
41998W        W85051  18.728  10.629  20.085  0.0051 -0.0944 -0.1897
41999W        W85052   8.850  21.138  28.407 -0.0249  0.2978 -0.0157
42000W        W85053  12.108  32.911  20.382  0.1158  0.2636 -0.2532
42001W        W85054   6.485  20.867  22.286 -0.1455  0.1419 -0.3174
42002W        W85055  21.696  17.134  14.056  0.1201 -0.0324 -0.0436
42003W        W85056  32.160  23.450  22.344 -0.3169  0.0180  0.1929
42004W        W85057  23.138  14.194   0.094 -0.0407 -0.1221  0.1457
42005W        W85058   6.397  31.476   0.694 -0.0769 -0.1167 -0.1394
42006W        W85059  27.029   0.058  16.591 -0.2351 -0.4146 -0.0124
42007W        W85060   6.478   6.468   7.358 -0.0647 -0.1391 -0.4155
42008W        W85061  24.264  15.540  20.875 -0.2987  0.4791  0.0086
42009W        W85062   5.928  10.115  23.525  0.1766 -0.0281 -0.0966
42010W        W85063   6.114  30.190  26.038 -0.0547 -0.0417 -0.0999
42011W        W85064   3.600  23.566  20.389 -0.0651  0.0754 -0.0285
42012W        W85065  31.328  29.546   2.622  0.1513  0.0126  0.2509
42013W        W85066  32.889  24.246  21.617  0.1207  0.0322  0.2693
42014W        W85067  23.215   6.626  17.362  0.2440 -0.0085  0.1399
42015W        W85068   0.893  30.147  18.900 -0.4106 -0.2535 -0.2437
42016W        W85069   1.560  27.258  16.544 -0.0159  0.0001 -0.0265
42017W        W85070  30.159  20.327  28.842 -0.2940 -0.2624 -0.0321
42018W        W85071  18.951  22.582   1.463  0.0997  0.1585  0.0241
42019W        W85072  33.983  30.581  16.497  0.1056 -0.1883 -0.1519
42020W        W85073  20.065  25.677  23.332 -0.0130 -0.1561 -0.2623
42021W        W85074  14.577  26.056  16.160  0.0470 -0.2639  0.3737
42022W        W85075  17.489   5.290  15.185 -0.1359  0.1162  0.1492
42023W        W85076  28.815  20.605  20.105  0.4280  0.0529 -0.2096
42024W        W85077  33.344  27.994  20.565 -0.2209 -0.4230 -0.1144
42025W        W85078   6.373   7.808  21.440  0.0447 -0.0049 -0.1002
42026W        W85079  26.346  26.867  17.782 -0.1312  0.0173 -0.2484
42027W        W85080   4.956  29.303  16.580 -0.1443 -0.1938  0.1716
42028W        W85081   0.848   2.840  24.124 -0.2874  0.1991  0.3160
42029W        W85082  22.016  27.115  18.410  0.0837 -0.1004  0.3932
42030W        W85083  29.297  29.898  19.097  0.4816  0.0250 -0.2337
42031W        W85084   5.792   0.128  24.143  0.0015  0.0114  0.0183
42032W        W85085  31.214  23.115  23.729  0.1336  0.1708  0.2901
42033W        W85086  24.294  22.844  15.720  0.0534 -0.3424  0.2460
42034W        W85087   6.169  29.097   6.561  0.0615  0.3621  0.2659
42035W        W85088  21.860  18.658   0.448 -0.2510  0.2354  0.1455
42036W        W85089  29.856  17.169  28.597 -0.0002  0.0835  0.0768
42037W        W85090  19.979  24.068   1.963  0.4380 -0.0088  0.1508
42038W        W85091  24.113  25.283  19.773  0.1031 -0.2299  0.2043
42039W        W85092  25.707   0.542  28.919 -0.0336  0.0348 -0.1019
42040W        W85093   1.268  21.602  23.267 -0.2118  0.0999 -0.2249
42041W        W85094  29.696   3.036  17.628 -0.2628  0.1146 -0.1558
42042W        W85095   8.745   4.607  18.573 -0.1791 -0.1798 -0.0308
42043W        W85096  27.217  16.354  16.242 -0.0424  0.2438  0.1450
42044W        W85097   3.083  21.724  20.259 -0.3883 -0.1783 -0.2249
42045W        W85098   9.422   5.226  16.320  0.1605  0.3349  0.1516
42046W        W85099  30.420  22.816  16.494 -0.2020 -0.0854  0.0034
42047W        W85100   8.561   1.608  19.810  0.0550 -0.2058  0.3186
42048W        W85101  21.131  20.863  16.862  0.0164  0.0054 -0.0327
42049W        W85102   5.140  13.974  19.303 -0.2706  0.3838 -0.2237
42050W        W85103  31.057  33.450  14.971  0.0102  0.1063  0.0953
42051W        W85104  25.936  19.733  16.863  0.2950 -0.0856  0.0548
42052W        W85105   3.175  20.190  17.978 -0.1533 -0.0088 -0.3074
42053W        W85106  14.918  28.456  19.248  0.1913 -0.1198 -0.0303
42054W        W85107  11.454  22.552  13.769 -0.1862  0.2379  0.0651
42055W        W85108  16.651   4.289  19.274 -0.2462 -0.2305 -0.3216
42056W        W85109  23.747  24.951  16.193  0.0327  0.1650 -0.4328
42057W        W85110   3.121  33.534  21.491  0.0258 -0.3278  0.0947
42058W        W85111  25.836  29.752  27.484 -0.1070  0.0308 -0.0081
42059W        W85112   8.750  15.169  22.861 -0.2003  0.0806  0.0258
42060W        W85113  30.478  24.683  17.141 -0.2697  0.0663 -0.3668
42061W        W85114  30.436   4.433  14.219  0.1012  0.2211 -0.1074
42062W        W85115   0.144  23.516  22.470 -0.0677  0.0461  0.1957
42063W        W85116  25.588  32.512  21.824 -0.0867  0.3502  0.1652
42064W        W85117  34.601  30.030   4.555 -0.1933  0.0451 -0.0489
42065W        W85118  22.902  28.642  14.583  0.1874 -0.0379  0.3295
42066W        W85119  28.037  21.205   3.238 -0.0331  0.0217  0.0411
42067W        W85120  12.387   4.737  19.602  0.1011 -0.4046  0.0062
42068W        W85121  16.402  26.625  15.381 -0.1522  0.4191 -0.4192
42069W        W85122  30.945  28.261  19.138 -0.0895 -0.0274  0.3193
42070W        W85123   4.436  30.764  20.063 -0.3066  0.0113 -0.1630
42071W        W85124  27.349  34.032  16.200 -0.0647  0.4010 -0.0571
42072W        W85125  26.338   9.709  25.729  0.0407 -0.0946 -0.2678
42073W        W85126  20.602  10.730  15.844  0.0389 -0.2257 -0.0818
42074W        W85127   2.395  27.249   0.794 -0.1989 -0.1113  0.0620
42075W        W85128  29.861   0.410   7.244 -0.0428 -0.2002  0.2130
42076W        W85129   8.733  22.801  22.712  0.1440 -0.0977  0.1363
42077W        W85130  26.024  19.743  15.854 -0.1194  0.1607 -0.3297
42078W        W85131  16.049  31.780  15.420 -0.3106  0.0773  0.1165
42079W        W85132  33.581  27.385  14.568  0.1044 -0.1967  0.2428
42080W        W85133  23.806  16.627   4.327 -0.2125 -0.1844 -0.1381
42081W        W85134  34.481  16.257  16.300  0.1298  0.0323  0.0131
42082W        W85135  20.198  31.487  22.743  0.1363  0.1389  0.2284
42083W        W85136  30.710  33.157  16.852 -0.1161  0.1596  0.0505
42084W        W85137  23.370  30.095  14.789 -0.3395  0.2724 -0.2816
42085W        W85138   5.084  20.177  23.265 -0.0567  0.2022 -0.3230
42086W        W85139   4.351   3.527  18.386 -0.0248  0.1667 -0.3369
42087W        W85140  31.080  31.701  18.773  0.1235 -0.1403  0.1776
42088W        W85141   0.035  13.718  23.279 -0.0649 -0.0172  0.0034
42089W        W85142   4.552  33.953  14.308 -0.0949  0.1215  0.3651
42090W        W85143   3.745   2.454  15.563 -0.0654  0.2276 -0.1659
42091W        W85144  30.751  26.268  18.124  0.1326 -0.0654 -0.1179
42092W        W85145  32.757  28.495   4.035  0.0631  0.2508 -0.1674
42093W        W85146   9.170   2.114  15.613 -0.0378  0.2331  0.2485
42094W        W85147   0.838  14.760  14.654  0.1880 -0.3603 -0.1945
42095W        W85148  33.427  17.594  17.822  0.0635 -0.3752  0.4480
42096W        W85149  31.832   3.417  24.215  0.0902 -0.0433  0.0833
42097W        W85150  28.721  28.313  15.956  0.2836 -0.0185 -0.1227
42098W        W85151  19.916  12.775  21.867  0.0730 -0.1151 -0.3678
42099W        W85152   7.444   7.244  17.854 -0.1164  0.0748 -0.1473
42100W        W85153  21.781   0.977  16.111  0.2387 -0.0058  0.0631
42101W        W85154  27.725  13.719  27.998 -0.2933  0.0815 -0.0957
42102W        W85155   7.154  22.182  28.842 -0.5858 -0.0664  0.0812
42103W        W85156  30.459  28.599  24.897 -0.2495 -0.3785  0.0045
42104W        W85157   0.390   1.574  28.674 -0.1851  0.0958  0.0369
42105W        W85158  24.992  28.596  14.398 -0.1542 -0.4280  0.3557
42106W        W85159  32.662  22.697  25.924 -0.0011 -0.2981 -0.2192
42107W        W85160  18.250  29.410  24.018 -0.2728  0.1138 -0.0987
42108W        W85161  17.137  18.146  15.267 -0.0348  0.1866 -0.1188
42109W        W85162  10.533   6.923  19.949 -0.2154  0.0228 -0.3532
42110W        W85163  17.484  28.419  19.257  0.0330 -0.2669  0.0494
42111W        W85164   1.453  18.558  19.376  0.4270 -0.1369  0.2102
42112W        W85165  29.673  32.858   0.247 -0.0830  0.2870 -0.0333
42113W        W85166   2.954  16.657  15.273 -0.1102 -0.0368  0.0516
42114W        W85167   4.895  32.264  20.130  0.1596  0.1392  0.0811
42115W        W85168  25.564  25.769  22.818 -0.0748  0.2046 -0.2852
42116W        W85169   6.286   1.512  24.849 -0.3278  0.0531 -0.2740
42117W        W85170   5.378   1.271  25.245 -0.1534  0.0541 -0.0067
42118W        W85171   2.883  30.146  26.578 -0.2257  0.1745  0.2021
42119W        W85172  19.661  16.499  26.905  0.2452 -0.1581 -0.3756
42120W        W85173   9.859  19.721  14.312 -0.0417 -0.1353 -0.3360
42121W        W85174  31.252  27.822  27.455  0.1437  0.1599  0.0488
42122W        W85175   1.872  25.967  24.524  0.2546  0.0657 -0.1631
42123W        W85176  34.051   7.954  25.967  0.1961  0.2851  0.3988
42124W        W85177  13.222   0.826  18.702 -0.0408 -0.0478  0.0674
42125W        W85178  18.652  25.368  20.438  0.2223  0.3586  0.0409
42126W        W85179  33.503  32.248  18.978 -0.2803  0.0596  0.1867
42127W        W85180  17.555  25.925  19.792 -0.0348  0.1202  0.1698
42128W        W85181  27.956  32.534  15.078  0.0677  0.0569 -0.2928
42129W        W85182  16.187  29.360  19.336 -0.2882  0.0788 -0.1203
42130W        W85183   4.779   1.824  14.142 -0.0437 -0.3315  0.0515
42131W        W85184   9.309  18.948  13.470 -0.0694  0.2126  0.3694
42132W        W85185  23.190  23.593   0.295 -0.2730  0.0807  0.0766
42133W        W85186  13.054  24.231  15.218 -0.0430  0.2401 -0.2209
42134W        W85187  22.745   4.647  19.068 -0.1777 -0.0643  0.0218
42135W        W85188  31.606  15.803  27.832 -0.3268  0.2173 -0.0587
42136W        W85189  29.120  22.328  26.662 -0.0291 -0.4028  0.0573
42137W        W85190  30.863  25.098  17.690 -0.1117  0.1586  0.3378
42138W        W85191   8.094   1.291  16.363 -0.1260 -0.3454  0.2953
42139W        W85192   1.911  31.259   0.497 -0.1400 -0.3397  0.2066
42140W        W85193  20.399  11.632  18.017 -0.0085  0.0120  0.0246
42141W        W85194  28.574  29.427  21.809  0.3808  0.0121 -0.3330
42142W        W85195  31.154  30.850  14.267  0.0092 -0.1823  0.1552
42143W        W85196  17.290  32.597  24.860  0.2457  0.2532 -0.0208
42144W        W85197  32.162  29.239  25.840  0.0741 -0.0362 -0.2428
42145W        W85198  32.213  30.311  20.917  0.2134 -0.1934  0.0217
42146W        W85199  24.837  29.120  15.159  0.0960 -0.1934 -0.0514
42147W        W85200  27.563   7.108  25.573 -0.2890  0.2016 -0.3666
42148W        W85201  30.841  18.164  19.321 -0.0152  0.0903  0.0188
42149W        W85202   8.769  28.286  14.005 -0.1531 -0.0394  0.1637
42150W        W85203   1.248  10.012  20.088 -0.1014  0.0624  0.0342
42151W        W85204   2.314  25.848  14.092  0.1179 -0.0976  0.2637
42152W        W85205   1.856  26.117  25.011  0.0312 -0.1268  0.1900
42153W        W85206   2.728  33.461  14.394 -0.1081 -0.0629 -0.3425
42154W        W85207  31.334  27.500  17.856 -0.0012 -0.0446  0.1742
42155W        W85208   1.651  21.062  23.615  0.0643  0.0957 -0.2574
42156W        W85209  32.308  10.207  16.855 -0.0519 -0.0120 -0.3231
42157W        W85210  33.056  28.882  27.820  0.1915 -0.2612  0.0379
42158W        W85211  29.667  13.125  24.172 -0.2178 -0.1095  0.2164
42159W        W85212  27.693  18.325  22.614  0.1276 -0.1304  0.0331
42160W        W85213  26.943  25.922  21.461 -0.3124 -0.1923 -0.0231
42161W        W85214   5.916  30.131  23.923 -0.2127  0.1670  0.0304
42162W        W85215   3.529  30.361  19.634 -0.0274  0.0576 -0.1330
42163W        W85216  13.330   5.666  17.665 -0.1644  0.0960 -0.1641
42164W        W85217  28.998  24.851  19.684 -0.2514  0.1699 -0.3381
42165W        W85218   0.538  14.578  20.797 -0.3970  0.0133  0.2536
42166W        W85219   5.796   1.489   0.767  0.0258  0.3421 -0.2773
42167W        W85220   7.061  19.911  25.619 -0.0093 -0.3180 -0.1698
42168W        W85221  22.746  32.935  17.319 -0.1590  0.4335  0.1095
42169W        W85222   4.541   0.935  25.738  0.0098  0.0363 -0.0609
42170W        W85223   3.560  23.693  16.382 -0.3315  0.2354  0.0097
42171W        W85224  29.781   5.562  18.428 -0.2413  0.0285 -0.2363
42172W        W85225   0.173   8.292  24.707 -0.2426 -0.2217 -0.0110
42173W        W85226   7.327  17.879  29.007  0.2059 -0.0323 -0.1568
42174W        W85227  33.830  21.826  17.910  0.0154  0.1406  0.1166
42175W        W85228  32.557  25.091   3.575 -0.1939  0.0739 -0.1148
42176W        W85229  27.802  27.865  17.573 -0.2689  0.2210 -0.2298
42177W        W85230  29.325  18.417  22.382  0.2799  0.1026  0.1318
42178W        W85231  25.190  23.845  14.404  0.1921  0.1478 -0.0010
42179W        W85232  25.486  11.649  15.310  0.0016  0.3544 -0.0178
42180W        W85233  24.006   3.576  14.599 -0.2009 -0.0329 -0.0243
42181W        W85234  14.568  21.516  22.547 -0.0911  0.3005  0.2324
42182W        W85235  26.491  34.558  19.362  0.1835  0.1578 -0.0750
42183W        W85236  20.118  13.018  15.982 -0.0590  0.2186  0.4087
42184W        W85237   0.732  32.075  14.936 -0.2859  0.2667  0.0193
42185W        W85238  13.089  32.290  22.220 -0.1414 -0.0416  0.1278
42186W        W85239  32.279   1.626  23.428  0.3041  0.3150 -0.1708
42187W        W85240  20.250   8.034  17.442  0.1650 -0.0412 -0.0260
42188W        W85241  22.702   1.445  18.912 -0.1799 -0.1458 -0.2821
42189W        W85242  24.711  13.404   1.359 -0.1121  0.0500  0.0208
42190W        W85243  17.741  23.230  19.096  0.1783 -0.1213 -0.2233
42191W        W85244  15.914  30.392  26.578  0.1128 -0.1548 -0.1223
42192W        W85245   3.218   3.787  28.281 -0.1650 -0.3342 -0.0556
42193W        W85246   6.090  25.007  14.602  0.1048  0.1884  0.2402
42194W        W85247  32.583   5.557  16.580  0.0561 -0.0462 -0.0390
42195W        W85248  29.024  18.714  19.978 -0.0768  0.2006  0.0391
42196W        W85249  26.235  24.270  14.907 -0.3103 -0.0106  0.2306
42197W        W85250   0.952  15.635  23.320  0.0716  0.1099  0.3682
42198W        W85251   4.451   3.085  14.467 -0.1417 -0.1684  0.3082
42199W        W85252  12.610  30.379  20.005  0.1752 -0.5169 -0.0546
42200W        W85253  30.808  24.173  24.220 -0.0172  0.0793 -0.1015
42201W        W85254  26.655   3.106  17.856  0.1311  0.3022 -0.2627
42202W        W85255  17.450   2.414  19.972 -0.1813 -0.1344 -0.0477
42203W        W85256  34.317  21.604  15.235 -0.0168  0.0899  0.1129
42204W        W85257  27.940  30.481  18.440 -0.0592  0.1137  0.1254
42205W        W85258  18.213   3.568  19.427  0.0972 -0.1685 -0.0411
42206W        W85259  32.608  11.419  28.225  0.1682  0.0768  0.1482
42207W        W85260  27.441  19.269  17.825  0.3263  0.0737  0.0692
42208W        W85261  28.550  20.280  28.742  0.0158  0.0085  0.1437
42209W        W85262  17.514  27.483  17.881  0.0209  0.1708  0.0847
42210W        W85263  29.107  13.714  21.571  0.2020 -0.4541 -0.1512
42211W        W85264  18.504  26.565  17.101  0.0724 -0.0765 -0.3110
42212W        W85265   6.288  28.547  17.062  0.1772 -0.0502  0.3330
42213W        W85266  33.428  18.983  18.225  0.1423 -0.0835  0.0246
42214W        W85267   1.865  27.629  19.785 -0.1333 -0.0382  0.0242
42215W        W85268   6.314   1.671   6.646 -0.0798  0.1995 -0.3285
42216W        W85269  29.492  28.884   0.991  0.0334 -0.1072  0.3241
42217W        W85270  34.255  23.563  21.616 -0.2334  0.1474  0.2357
42218W        W85271   9.417  33.479  24.936 -0.1987  0.0180 -0.0592
42219W        W85272  13.691   0.992  22.934  0.2189  0.1127 -0.0027
42220W        W85273   9.924  21.520  22.305 -0.2645 -0.1497  0.0872
42221W        W85274  30.119  32.075   3.244  0.1010  0.5537 -0.0121
42222W        W85275  24.280  13.273  18.744  0.0645  0.1616 -0.0964
42223W        W85276   0.352  28.242  13.810  0.1704  0.0242  0.1388
42224W        W85277   5.474  24.540  17.475 -0.0546  0.2020  0.0152
42225W        W85278  30.607  25.642  15.918 -0.1867 -0.0695 -0.3111
42226W        W85279  32.644  19.018  21.137  0.1231 -0.0499  0.0080
42227W        W85280  34.538  29.314  15.547  0.1330  0.2855 -0.1886
42228W        W85281  34.403   5.529  25.119 -0.1580 -0.1388 -0.2002
42229W        W85282   6.466  29.772  18.384  0.1348  0.1663  0.2255
42230W        W85283  17.449   9.428  25.073  0.1872  0.1148 -0.2095
42231W        W85284   7.372   2.347  23.603 -0.1826  0.1124 -0.2386
42232W        W85285   3.860   5.248  28.720  0.3096  0.0055 -0.1644
42233W        W85286   5.134  29.093  24.348  0.3992  0.3706 -0.1752
42234W        W85287   0.384   2.931  18.123 -0.0006  0.3814  0.2995
42235W        W85288   1.294   2.563  25.631  0.0617 -0.0341 -0.0385
42236W        W85289   7.686  34.515  18.431  0.3166  0.1719  0.0241
42237W        W85290   4.675  15.357  23.094 -0.1363  0.2133 -0.0271
42238W        W85291  28.226  32.490  16.767 -0.2323 -0.0972 -0.2890
42239W        W85292  18.348  34.678  25.088 -0.0730 -0.0335 -0.1035
42240W        W85293  28.922   5.517  14.308  0.0909 -0.2279 -0.0873
42241W        W85294  32.656   0.502  18.614 -0.2629 -0.0353 -0.1446
42242W        W85295  33.148  30.259  17.902 -0.2717 -0.4759 -0.0040
42243W        W85296   8.992  29.133  14.363  0.0520 -0.0139  0.0779
42244W        W85297   3.042  18.912  22.241 -0.2216 -0.3058 -0.4020
42245W        W85298  21.963  29.820  16.168  0.2251 -0.1273  0.0631
42246W        W85299  21.443   9.048  18.635  0.0716  0.1853 -0.2067
42247W        W85300   2.216  29.439  23.454 -0.1579 -0.0068 -0.1054
42248W        W85301   3.720  26.011  24.564 -0.1906 -0.1487  0.0230
42249W        W85302  31.241  23.616  21.945 -0.0637  0.1879 -0.4298
42250W        W85303  31.433   0.835  28.743  0.1335 -0.0039  0.1400
42251W        W85304  17.808  20.500  23.530  0.0435  0.2891 -0.1231
42252W        W85305   1.065  10.859  27.120  0.2217  0.1144 -0.0725
42253W        W85306  32.486   3.068  16.112  0.2559  0.2128 -0.2540
42254W        W85307  13.118  21.146  23.165 -0.0899  0.1486  0.1665
42255W        W85308   0.577  19.747  25.094 -0.2536 -0.2828 -0.1277
42256W        W85309  32.193  18.513  19.188 -0.1456  0.0861 -0.0297
42257W        W85310  17.565  31.806  26.132 -0.2903 -0.1047  0.0949
42258W        W85311   8.602  31.919  16.972  0.3526  0.1663  0.0062
42259W        W85312   2.040   6.296  24.881 -0.0974  0.1972  0.2764
42260W        W85313   3.269  31.950  21.995  0.0844 -0.2699 -0.1376
42261W        W85314   1.736  25.625  13.970 -0.4109 -0.1056  0.2697
42262W        W85315  31.898   3.535  19.408 -0.2436 -0.0475  0.0872
42263W        W85316  29.823  31.572  17.370  0.1199  0.1310 -0.0555
42264W        W85317  29.848  23.111  15.881  0.1694  0.0879  0.1452
42265W        W85318  24.634  19.150  18.978  0.2426 -0.0317  0.1457
42266W        W85319   1.447  34.177   0.184 -0.0101  0.2019  0.2163
42267W        W85320  10.257  24.438  16.769  0.0637  0.0394 -0.0378
42268W        W85321  19.782  25.939  18.144 -0.0906 -0.0309  0.4236
42269W        W85322  32.725   1.688  13.463  0.1314 -0.0221 -0.0147
42270W        W85323  34.574  33.058  25.074 -0.0534 -0.0975  0.0233
42271W        W85324   0.254  17.768   3.707 -0.0947 -0.1605  0.2052
42272W        W85325   2.208  27.425  15.394 -0.1005 -0.1275  0.1277
42273W        W85326  25.480  26.444  24.480  0.2932 -0.2513 -0.0290
42274W        W85327  10.385   0.889   9.188 -0.0867 -0.3961 -0.0293
42275W        W85328   1.331  27.610  19.686  0.2515  0.0678 -0.0812
42276W        W85329  33.816  26.325  16.780 -0.1177 -0.1199  0.1766
42277W        W85330   0.530   3.781  13.397 -0.3533  0.5606  0.0219
42278W        W85331   3.473  19.211  20.721 -0.4059 -0.0770 -0.1171
42279W        W85332   8.055   6.788  24.982  0.0057 -0.1805 -0.1742
42280W        W85333  28.439  33.537  17.728  0.0461  0.1696 -0.0918
42281W        W85334   2.276  29.715  14.416 -0.2027  0.2668 -0.2899
42282W        W85335  34.523   0.667  25.881  0.1958  0.0424 -0.2373
42283W        W85336  18.198   0.120  14.796  0.1608 -0.0211 -0.1758
42284W        W85337  19.970  15.809  15.678 -0.0403  0.2806  0.0357
42285W        W85338  28.061   4.338   3.185  0.0490 -0.0706 -0.0622
42286W        W85339  25.177   0.097  10.998 -0.1611  0.2351  0.1593
42287W        W85340  29.891   3.588   7.591  0.2649 -0.3748 -0.0216
42288W        W85341   5.520  30.572  17.734 -0.2106 -0.0801  0.1827
42289W        W85342  24.585  21.898  23.195 -0.0907 -0.0807  0.1168
42290W        W85343  32.471  34.047  26.671  0.3862 -0.0283 -0.1908
42291W        W85344  31.336  21.797  19.687 -0.2930 -0.0219  0.2181
42292W        W85345  20.249   5.067  21.188  0.1293  0.0821  0.0477
42293W        W85346  29.014  21.284   1.195 -0.0285  0.3493 -0.2508
42294W        W85347  29.072   1.689  26.832 -0.5626  0.0030 -0.1199
42295W        W85348  23.575   3.060  18.510 -0.1449  0.1869 -0.2634
42296W        W85349  29.644  34.203  22.630 -0.1785  0.0858 -0.3374
42297W        W85350  27.356  33.222  28.089 -0.0560  0.3085 -0.0681
42298W        W85351   3.626   2.153  16.385 -0.0469 -0.1355  0.1152
42299W        W85352  34.122  17.339   6.597 -0.1018  0.2435 -0.1283
42300W        W85353   7.414   1.648  28.841  0.2653 -0.2628  0.0269
42301W        W85354  25.975  24.137  18.342  0.0008 -0.2278  0.1187
42302W        W85355   1.865  24.331  13.704 -0.0115 -0.1517  0.0945
42303W        W85356   8.073   2.310   0.982 -0.0169  0.0188 -0.0443
42304W        W85357   7.993  29.329  16.614 -0.0314 -0.0167 -0.0510
42305W        W85358  33.801  27.058  27.016 -0.3056  0.1896  0.2736
42306W        W85359  19.956   9.823  17.174 -0.0482 -0.1545  0.0549
42307W        W85360   1.748  18.326   1.789 -0.2248  0.2211 -0.1511
42308W        W85361  30.060  11.152  26.469  0.3138 -0.0262 -0.1792
42309W        W85362  30.906  29.618  20.187 -0.0711  0.0503 -0.1108
42310W        W85363   2.582  18.165  13.463  0.0449 -0.0247 -0.1277
42311W        W85364  10.031   7.863   1.298  0.0004 -0.0478 -0.0354
42312W        W85365  16.587  31.329  16.735 -0.1569  0.0981  0.1063
42313W        W85366   4.348  13.433  20.070 -0.0616 -0.2152 -0.2494
42314W        W85367   2.108  13.068  28.164 -0.0436 -0.2355 -0.1208
42315W        W85368  27.522  19.890  18.906  0.1529  0.0889  0.1424
42316W        W85369  33.466  32.637  20.334 -0.5962  0.1041  0.1050
42317W        W85370  15.880  23.170  20.783  0.1656  0.0609  0.1878
42318W        W85371   5.405   2.190  21.429  0.0196 -0.0123 -0.0738
42319W        W85372   9.016  22.604  15.459 -0.0779 -0.0789 -0.3723
42320W        W85373   9.360  29.684  17.967 -0.0043  0.0912 -0.1021
42321W        W85374   2.340   7.798  18.729 -0.0726 -0.1709 -0.0747
42322W        W85375  14.092  30.502  17.574 -0.2297 -0.0721 -0.0086
42323W        W85376  25.783   2.196  19.751  0.1648  0.2138 -0.0746
42324W        W85377   8.560  32.933  15.036 -0.2853  0.4034  0.3928
42325W        W85378  13.986  26.700  20.973 -0.3245  0.0975  0.2534
42326W        W85379  21.012  25.371  23.543  0.3088  0.4112  0.3207
42327W        W85380  19.850  33.704  15.016 -0.0291 -0.0344  0.2866
42328W        W85381  25.915  25.768  28.612  0.2168  0.0247  0.2128
42329W        W85382  20.502  29.777  28.585  0.1118  0.1697  0.0457
42330W        W85383   6.458  33.923   6.713 -0.2370  0.0462 -0.1547
42331W        W85384   4.728  10.982  24.782 -0.0233 -0.5013 -0.2637
42332W        W85385  15.464  31.444  16.687  0.2538 -0.1660 -0.2286
42333W        W85386  17.319  25.803  19.357 -0.1020 -0.0934  0.2510
42334W        W85387   7.409  20.884   6.082 -0.2396 -0.2777 -0.0522
42335W        W85388  18.638  27.745   4.247  0.0344  0.2727 -0.4809
42336W        W85389  19.831  27.885  16.985 -0.0280 -0.0275 -0.4522
42337W        W85390  27.824  32.824  16.891 -0.3251  0.2304 -0.2177
42338W        W85391  31.853   8.510  25.366  0.1142  0.4233 -0.1616
42339W        W85392  24.155   3.500  19.752 -0.0686 -0.1410  0.1296
42340W        W85393  32.477  25.572  18.332 -0.0781 -0.2329  0.0852
42341W        W85394   1.209  29.720   6.333  0.2307 -0.3480  0.4020
42342W        W85395  25.782   3.925  13.526  0.2174 -0.0331  0.1523
42343W        W85396   5.123  23.084  16.699 -0.1128 -0.0185 -0.0420
42344W        W85397   5.287  33.650   3.890 -0.0924 -0.0414  0.0979
42345W        W85398   0.927   0.346  13.453 -0.1034 -0.0870 -0.0368
42346W        W85399   5.012   1.601  25.245 -0.1082  0.1862  0.0420
42347W        W85400  18.379   8.544   3.001  0.0569  0.1674  0.0310
42348W        W85401   2.037  17.644  14.498  0.1749  0.1474  0.1720
42349W        W85402  31.234   8.299  17.428 -0.1176  0.0858  0.0276
42350W        W85403  33.899  21.398  17.594  0.0893 -0.2850  0.1277
42351W        W85404   7.535  21.063   8.136 -0.1597  0.1567  0.2606
42352W        W85405  32.832  24.632  17.371 -0.2600  0.4685  0.1798
42353W        W85406   5.632   3.087  18.076 -0.0706  0.1462  0.0697
42354W        W85407   4.566  33.461  17.033  0.0962 -0.0315  0.2817
42355W        W85408  32.392  28.514  17.170 -0.0624 -0.1056  0.0611
42356W        W85409  23.437  28.807   0.364  0.3813 -0.2368  0.1147
42357W        W85410   1.005  20.818  23.209  0.2031  0.2023  0.2810
42358W        W85411  25.887  10.945  23.101 -0.1103 -0.0945  0.1914
42359W        W85412  32.963   4.096  20.209 -0.0400 -0.0349 -0.0473
42360W        W85413  11.229  29.468  18.583 -0.1925  0.1551  0.2417
42361W        W85414  24.941  26.885  18.127  0.1551 -0.1969  0.3224
42362W        W85415  30.434   0.023  29.157 -0.2510 -0.0095  0.1475
42363W        W85416  23.492  22.190  10.183 -0.3404  0.0478  0.0088
42364W        W85417   6.627  20.278  20.983 -0.1583  0.3381 -0.0322
42365W        W85418  30.412  23.104  22.631 -0.0913 -0.2937 -0.1738
42366W        W85419  33.974  21.620   6.323  0.0961  0.1129 -0.0892
42367W        W85420  31.646   0.606   9.053 -0.1595 -0.0729 -0.0633
42368W        W85421  17.472  28.728  23.618 -0.0236 -0.0755  0.2090
42369W        W85422   0.207  33.935  21.873  0.1534 -0.0906  0.0273
42370W        W85423  25.883   6.637   1.711 -0.0397 -0.2309  0.3700
42371W        W85424  20.019  33.968  19.117 -0.2289  0.2559  0.0048
42372W        W85425   0.190  19.538  25.933  0.1011 -0.0300 -0.3530
42373W        W85426  24.030   3.652  18.801  0.0175  0.3188  0.1862
42374W        W85427  22.944  10.857  26.122  0.1461 -0.0584 -0.0273
42375W        W85428  32.410   4.773  23.608  0.3360 -0.2235 -0.1563
42376W        W85429  33.427  30.013   0.813  0.0917 -0.2210 -0.1196
42377W        W85430   4.977  26.813   0.272 -0.0843  0.1546 -0.0660
42378W        W85431   9.753  27.924  20.217  0.2414  0.0669 -0.0457
42379W        W85432  23.787  18.399  22.827  0.3153  0.1030 -0.0868
42380W        W85433  23.066   5.780  18.751 -0.2155  0.2612 -0.0706
42381W        W85434   1.839  24.277  15.304  0.1468  0.0387  0.1121
42382W        W85435  32.540  24.776  16.007  0.1024  0.1994 -0.1654
42383W        W85436  34.597   4.354  19.801 -0.1655 -0.0141  0.0231
42384W        W85437  33.242  27.228  21.926  0.1545 -0.4099 -0.0958
42385W        W85438  25.034  31.322  16.822 -0.1190  0.0661 -0.1311
42386W        W85439  29.307   1.662  18.120 -0.4049  0.0277 -0.3046
42387W        W85440   3.478  21.701  22.899  0.0185 -0.3300  0.2103
42388W        W85441  30.979   3.033  16.997  0.0598  0.1007 -0.2077
42389W        W85442  31.949   3.088  13.482 -0.0576  0.0648 -0.1764
42390W        W85443  30.398   2.314  19.607  0.4866 -0.2224 -0.0424
42391W        W85444   6.414   4.896  23.451 -0.3063  0.1227  0.2998
42392W        W85445   2.662  12.084  16.790  0.1665  0.3721  0.2277
42393W        W85446   2.902  10.858  25.980  0.0646  0.0187  0.2001
42394W        W85447  30.079   7.131  20.098 -0.2681 -0.0163 -0.1917
42395W        W85448  29.994  22.053  20.391 -0.0802  0.0326  0.0557
42396W        W85449  16.657  30.592  18.882 -0.0056  0.0360  0.0691
42397W        W85450   5.321  11.505  23.707  0.0453 -0.0501 -0.3600
42398W        W85451   9.353  22.294  14.563  0.3884  0.3690  0.2980
42399W        W85452  29.502   0.104   2.813  0.1763  0.1263  0.2854
42400W        W85453  28.983   7.269   3.180 -0.1458 -0.1763  0.0974
42401W        W85454  33.469  23.949  28.888  0.0856 -0.0090 -0.0702
42402W        W85455  22.200   2.154  16.706  0.1958  0.0171  0.3856
42403W        W85456   3.258  29.221  19.045  0.1571  0.2255  0.0075
42404W        W85457  21.176  11.758  16.887  0.2296 -0.0699  0.2931
42405W        W85458  31.318  19.218  20.185  0.0016 -0.0025 -0.1074
42406W        W85459  30.168  30.896  26.027 -0.3010 -0.0313  0.0817
42407W        W85460   5.142  28.265  26.787 -0.1766 -0.1937 -0.0619
42408W        W85461  30.375  32.690  24.946  0.2736 -0.3620 -0.1700
42409W        W85462  24.415  25.081  23.248 -0.1410 -0.2060 -0.1612
42410W        W85463   9.157  10.061  16.720  0.0451 -0.3293  0.0751
42411W        W85464  31.886  30.371   3.027  0.0395  0.1783 -0.0706
42412W        W85465  26.059  24.330   1.021  0.2804 -0.2298  0.1858
42413W        W85466  33.145  29.391  15.330 -0.1821 -0.3992  0.0000
42414W        W85467   4.599  31.887  17.795  0.1717  0.1036  0.0704
42415W        W85468  28.306  29.297  14.603  0.1070  0.0031  0.2392
42416W        W85469  22.853  13.916  14.270  0.0316  0.0320 -0.0511
42417W        W85470  24.677   1.752  16.620  0.2218 -0.1296  0.1598
42418W        W85471  32.528   4.948   1.326 -0.1237  0.3493 -0.2772
42419W        W85472  23.772   8.771  20.535 -0.1587  0.1264 -0.0366
42420W        W85473   9.473  33.093  21.116  0.0524  0.0587 -0.2389
42421W        W85474   3.379   6.386  18.548  0.1457  0.0564 -0.0693
42422W        W85475   9.768  34.409  15.092 -0.0424 -0.2332  0.3014
42423W        W85476  13.666  30.336  22.269 -0.0583  0.0114 -0.0020
42424W        W85477  33.746  27.237   3.186  0.3186  0.2614 -0.1670
42425W        W85478  23.894  32.194  22.082  0.0679 -0.1069 -0.3455
42426W        W85479   7.703  19.696  23.617  0.0102 -0.1474 -0.2774
42427W        W85480  13.894  20.099  28.986 -0.2706 -0.0507  0.2626
42428W        W85481  31.631  22.478  23.066  0.5001 -0.2466 -0.1139
42429W        W85482   1.025  30.698  22.370 -0.0527 -0.0139  0.1480
42430W        W85483  27.391  12.359  26.166 -0.3376 -0.0837  0.0845
42431W        W85484   8.457   3.285  20.467  0.1723  0.1518 -0.0611
42432W        W85485  28.708   7.001   3.986  0.2704 -0.0271  0.2774
42433W        W85486  26.705   4.646  19.671 -0.1015  0.2622 -0.0052
42434W        W85487  17.746  23.500  13.719 -0.2241 -0.0223  0.2070
42435W        W85488  32.897  30.295  22.970  0.0344  0.0550 -0.0061
42436W        W85489   6.708  15.459  15.972  0.3532  0.0843 -0.3009
42437W        W85490  20.381  22.624  16.030  0.0540  0.2103 -0.1986
42438W        W85491  24.738   5.843   6.880 -0.1148  0.0886 -0.0747
42439W        W85492  33.825   2.645  28.171  0.0686 -0.1203 -0.1476
42440W        W85493  20.768  10.368  19.247 -0.0402 -0.1503  0.2775
42441W        W85494  33.623  13.237  23.835 -0.0245  0.1191 -0.0787
42442W        W85495   7.840  13.112   8.129  0.1224  0.1942 -0.2496
42443W        W85496  27.035   4.645  20.061 -0.0745 -0.1847 -0.1704
42444W        W85497  23.628   8.957  19.372  0.2600  0.0563 -0.2829
42445W        W85498   4.350  29.283  18.756 -0.1194 -0.0022 -0.2019
42446W        W85499   9.769  24.960  16.730  0.0334 -0.0685  0.2263
42447W        W85500  33.953  23.130   8.698  0.0065 -0.2349 -0.0632
42448W        W85501  10.553  13.393  25.627 -0.0834 -0.2268  0.0962
42449W        W85502   8.745  29.139  17.162  0.1406  0.3491 -0.1973
42450W        W85503  15.450  26.617  28.218  0.2289  0.1168 -0.0320
42451W        W85504  15.765  22.843  20.258  0.2894  0.0113 -0.2289
42452W        W85505  33.865  17.052  13.672  0.3840  0.3472  0.2028
42453W        W85506  30.382  29.933  19.681 -0.0337  0.0858  0.0785
42454W        W85507  23.851  14.694   3.097  0.2461 -0.0517 -0.1123
42455W        W85508  24.522  31.229  17.685  0.0665 -0.0444  0.0256
42456W        W85509   0.725   0.445  16.189 -0.2274 -0.0523  0.1271
42457W        W85510   3.309   0.027  15.725 -0.0553  0.0749  0.1173
42458W        W85511   4.916  22.652  21.219  0.0404  0.1279  0.0674
42459W        W85512  16.177   2.393  20.024 -0.2065  0.0645  0.1419
42460W        W85513  14.960  32.554   2.454  0.0358  0.2830  0.2318
42461W        W85514  21.710  26.392  15.628  0.0636 -0.0260 -0.0766
42462W        W85515   1.914   3.016  27.856  0.1847 -0.1004  0.0264
42463W        W85516  33.395  24.766  28.209 -0.2579  0.2248 -0.1938
42464W        W85517  20.337  23.662  24.135  0.1890 -0.0075  0.1398
42465W        W85518   5.636  28.267  21.269  0.0055  0.1035  0.0185
42466W        W85519  33.932  13.025  27.003 -0.1040  0.0097  0.1759
42467W        W85520  25.567   2.464   0.258  0.2044  0.2125  0.4343
42468W        W85521  26.380  29.384  25.712  0.0840 -0.0108  0.5126
42469W        W85522  32.179  21.189  22.916 -0.2637  0.1513  0.0386
42470W        W85523  26.006  20.536  17.928  0.1227  0.0697  0.0556
42471W        W85524   9.353  17.601  18.109  0.2344  0.2385  0.0895
42472W        W85525   0.992   3.855  15.672 -0.0049  0.1591  0.3780
42473W        W85526   4.344  28.069   9.128 -0.0555 -0.1265 -0.2818
42474W        W85527  31.095   3.143   3.125  0.2358  0.1958  0.3903
42475W        W85528  28.230  21.307  14.304 -0.0496  0.1775 -0.2387
42476W        W85529  25.498   0.899  27.221 -0.1333  0.0323  0.0721
42477W        W85530  21.152  29.152  21.578  0.0124  0.0835  0.2011
42478W        W85531   1.097  14.374  19.994 -0.1002 -0.2317 -0.2231
42479W        W85532  32.768  30.575  28.448 -0.4132 -0.0171 -0.0235
42480W        W85533  24.261   5.310  17.408  0.1316 -0.0874  0.0014
42481W        W85534  30.638   4.590  23.580 -0.0568 -0.1543 -0.2643
42482W        W85535  31.766  16.254  20.885  0.2914 -0.1384  0.0942
42483W        W85536  26.412  27.345  25.997  0.0059 -0.0190  0.1522
42484W        W85537  24.046  32.116  14.865  0.1962  0.1316  0.1012
42485W        W85538  25.070  23.518  20.784 -0.2414  0.1032  0.0373
42486W        W85539   4.592  27.098  18.143 -0.0178  0.0374  0.0430
42487W        W85540   9.609  17.218  18.304  0.0922 -0.2287  0.1616
42488W        W85541  33.740  31.234  21.118 -0.0599  0.0196  0.1158
42489W        W85542   0.980   0.139  20.919 -0.1540  0.0683  0.1797
42490W        W85543  10.095  13.346  21.449 -0.0764 -0.1524  0.0548
42491W        W85544  20.887  27.238  25.797 -0.2112 -0.0258  0.0791
42492W        W85545   1.876  26.213  13.893 -0.0791 -0.2239  0.0108
42493W        W85546  29.672   3.738  15.237 -0.3535 -0.1586 -0.0004
42494W        W85547  19.880   3.013  21.014 -0.0842  0.1606 -0.1399
42495W        W85548  21.854  16.389  20.511 -0.0103 -0.1561 -0.1115
42496W        W85549   1.329  15.307   1.438  0.0044 -0.1940 -0.0327
42497W        W85550   1.218   5.726  20.321 -0.0458  0.6896 -0.4200
42498W        W85551  18.205  28.413  14.748 -0.0765 -0.2070  0.1783
42499W        W85552  33.420  24.860  22.463 -0.0877  0.1932  0.1647
42500W        W85553  33.048  19.221  24.810  0.1941 -0.1894 -0.1105
42501W        W85554  31.189  29.020  20.930 -0.0404 -0.1473  0.0878
42502W        W85555   7.488  31.668  13.885  0.0223  0.0658  0.0964
42503W        W85556  28.442  30.534   5.608 -0.0943 -0.0569 -0.0875
42504W        W85557  19.235  26.703  21.361 -0.1913 -0.1525 -0.3266
42505W        W85558   3.833   2.535   1.956 -0.7287 -0.0836  0.2210
42506W        W85559   2.157  29.818  20.284  0.2344 -0.2058  0.0301
42507W        W85560  32.114   8.249   7.684 -0.0634  0.0088 -0.1062
42508W        W85561  23.542  26.103  17.855 -0.0325  0.0868 -0.1407
42509W        W85562  12.179  20.188  16.753  0.2038 -0.0267 -0.2489
42510W        W85563  26.762  21.295  25.940  0.1045  0.0570 -0.2203
42511W        W85564  32.450   2.301  22.537 -0.0189  0.0569 -0.0033
42512W        W85565   4.212  21.853  20.489  0.2697 -0.0926 -0.2322
42513W        W85566   3.571  12.206  14.475  0.0420 -0.0048 -0.1298
42514W        W85567  34.045   7.623  22.684 -0.3169  0.0076  0.1330
42515W        W85568  27.599  31.154  25.768  0.1341 -0.0093  0.2416
42516W        W85569  31.069  28.161  14.722 -0.0058  0.1514  0.0770
42517W        W85570  18.755  31.038  18.734 -0.0661 -0.2828  0.1356
42518W        W85571  34.537  14.006  20.927 -0.0549  0.2167  0.1858
42519W        W85572   6.460  14.679  14.156 -0.2573 -0.0784  0.0699
42520W        W85573   5.772  13.729   3.134 -0.1739 -0.0684 -0.0601
42521W        W85574   8.354  28.835  25.659  0.2320  0.1565  0.0827
42522W        W85575  33.283   7.371  28.369  0.2788 -0.2366 -0.0017
42523W        W85576   3.930   4.390  25.131  0.0691  0.2115 -0.1031
42524W        W85577   3.654   1.057  23.414  0.0052  0.1374  0.1606
42525W        W85578  27.349   9.286  17.631  0.0133  0.1054 -0.3460
42526W        W85579  24.295  33.901   0.690 -0.2982 -0.0513 -0.0242
42527W        W85580  13.542  24.914   6.632  0.3189 -0.0198 -0.2311
42528W        W85581   6.592  24.364  22.723  0.0021 -0.1321 -0.0899
42529W        W85582   7.728  16.015  14.882 -0.0026  0.2675 -0.2791
42530W        W85583   2.714   6.660  18.012 -0.0134 -0.1460  0.3925
42531W        W85584  32.062  23.825   0.051 -0.0782 -0.1406  0.1228
42532W        W85585  32.978   0.486  25.275 -0.0881  0.0728 -0.0825
42533W        W85586   1.522  34.067  28.353  0.0839  0.1723  0.1212
42534W        W85587  27.173   7.586  18.158  0.0590 -0.1731  0.1202
42535W        W85588   2.275  31.605  13.728 -0.0709  0.2236  0.3333
42536W        W85589   0.291  12.792   3.346 -0.0417  0.0226 -0.0796
42537W        W85590   0.045   6.185  17.254  0.1361  0.0699 -0.1190
42538W        W85591  19.138  19.374  23.331  0.1435 -0.2121  0.2775
42539W        W85592  25.939  27.377  23.650  0.1682  0.3091 -0.0480
42540W        W85593  29.972  24.082  27.428 -0.0125 -0.1015 -0.0289
42541W        W85594  27.028  31.685   2.569  0.3197 -0.1680  0.0762
42542W        W85595  30.213  31.953  17.713  0.1333  0.1113  0.2740
42543W        W85596  25.806  33.726   4.667  0.0322 -0.2696 -0.1167
42544W        W85597  25.392  15.224  20.101  0.2830  0.1388  0.1913
42545W        W85598   0.040   1.913  22.093  0.2056 -0.2506  0.0309
42546W        W85599  29.017  20.084  25.386  0.1299  0.0649  0.2004
42547W        W85600   5.681   4.559  14.558 -0.2817 -0.0092 -0.2261
42548W        W85601   8.864   3.036  27.505  0.0502  0.2874 -0.2273
42549W        W85602  23.307  32.654  23.849  0.1094 -0.1750  0.4622
42550W        W85603   5.795  31.702  26.902 -0.0505 -0.2949 -0.3060
42551W        W85604   4.261  22.706  17.153 -0.0723  0.2270  0.4805
42552W        W85605  24.102  30.450   2.296  0.1559  0.3599  0.0232
42553W        W85606   0.569   7.421  15.968  0.0967  0.1512  0.1044
42554W        W85607  30.300  17.179  17.905  0.0578  0.0167  0.0756
42555W        W85608  30.816   5.334  18.382 -0.1734  0.0532 -0.0551
42556W        W85609   4.871  30.624  17.353  0.2569  0.0417  0.1492
42557W        W85610  17.830  31.433  26.359 -0.5343  0.1101  0.1692
42558W        W85611  32.432   0.552  17.072 -0.0030 -0.0305 -0.0017
42559W        W85612  32.964   3.682   2.078  0.2750 -0.0023 -0.0859
42560W        W85613   3.169   2.130  15.467  0.1241  0.1856 -0.1911
42561W        W85614  24.358  17.220  15.107 -0.1393 -0.1368  0.1986
42562W        W85615   9.758  28.411  13.654 -0.0416  0.0623 -0.4669
42563W        W85616  25.154  15.447  25.008  0.3321 -0.0982 -0.1191
42564W        W85617  29.975  24.990  20.726  0.0233  0.1106 -0.2217
42565W        W85618  12.999   5.649  20.489  0.1719  0.0276 -0.2165
42566W        W85619   0.112  26.460  18.062  0.0077 -0.2786 -0.2339
42567W        W85620   8.722  23.565  19.532  0.0138 -0.0236  0.0235
42568W        W85621   1.275  30.946  23.138 -0.1774  0.2126  0.0626
42569W        W85622  20.061   4.763  18.491  0.0951  0.2079 -0.1353
42570W        W85623   4.979   4.692   0.762 -0.1805  0.3154  0.1898
42571W        W85624  28.368  22.692   4.619  0.1426 -0.1705 -0.1105
42572W        W85625  34.586  23.106  14.680  0.2370 -0.0003  0.0143
42573W        W85626   3.749  11.662  28.177 -0.1244 -0.0582  0.0135
42574W        W85627  10.672  10.541  17.604 -0.1686 -0.0472  0.0923
42575W        W85628   1.284  17.484   6.991 -0.2102 -0.0108 -0.2419
42576W        W85629   4.385  28.608  26.907 -0.3462  0.0049 -0.1538
42577W        W85630  24.473  13.081  28.401 -0.1699 -0.1826 -0.0234
42578W        W85631   0.412  18.138  17.088 -0.0239 -0.0785 -0.4273
42579W        W85632  19.401  20.071  22.458 -0.3657  0.0662 -0.1956
42580W        W85633  29.313   3.113  14.107  0.1507  0.0446  0.1786
42581W        W85634  27.589   2.444  15.215  0.0933  0.0025  0.1925
42582W        W85635   5.694  26.196  23.724 -0.2218  0.0461  0.2928
42583W        W85636  19.849  17.529  14.353 -0.2075 -0.4960 -0.1993
42584W        W85637  31.937   8.533  29.073 -0.0743 -0.0027 -0.2295
42585W        W85638  28.285  33.632  22.853 -0.0407 -0.2110  0.0490
42586W        W85639  14.947  25.764  25.510  0.3202  0.0616 -0.1265
42587W        W85640  33.993  12.628  21.587  0.1250  0.3091  0.0062
42588W        W85641  31.026  26.213  20.171  0.2310 -0.0137  0.0759
42589W        W85642   4.771  33.875  17.154 -0.1855  0.0480  0.2214
42590W        W85643  30.431  16.897  20.859  0.0792 -0.2583 -0.0490
42591W        W85644  22.492   8.949  25.406 -0.0318 -0.0783  0.2269
42592W        W85645  21.559   0.262  26.769 -0.0187  0.1356  0.1912
42593W        W85646  29.509  24.880  16.881 -0.0455 -0.0030  0.0693
42594W        W85647  32.635  18.476  13.906 -0.3008 -0.3694 -0.0022
42595W        W85648  30.246  32.715  21.854 -0.0678 -0.1723 -0.0104
42596W        W85649  28.077  16.422  15.963  0.1781  0.2654 -0.0508
42597W        W85650   9.515  31.608  17.801 -0.0094  0.3519  0.0762
42598W        W85651  30.825   3.567  18.497 -0.1067 -0.0338 -0.1983
42599W        W85652   0.100  23.220  16.569  0.1290 -0.4416  0.0795
42600W        W85653   0.786  23.484  19.249  0.1200 -0.2649  0.2057
42601W        W85654  19.738  21.782  26.963 -0.0747  0.1682  0.2402
42602W        W85655  32.730  32.207  19.871  0.0118 -0.3753  0.0471
42603W        W85656  28.271   3.900  21.888 -0.1672 -0.0561  0.0747
42604W        W85657  18.465   6.109  20.037 -0.0281 -0.1748 -0.0507
42605W        W85658  33.946  25.049   0.443  0.1829 -0.0857 -0.1183
42606W        W85659  23.580  23.763  23.200 -0.0993 -0.0466  0.0626
42607W        W85660  27.279   7.511  19.394 -0.0325  0.2412  0.2127
42608W        W85661   3.471  21.393  20.123  0.2560 -0.1653 -0.1440
42609W        W85662  28.448  21.831  26.991 -0.1169  0.3449 -0.0198
42610W        W85663   4.723  17.563  17.642  0.0507 -0.1230  0.2954
42611W        W85664   1.879  17.570  23.272 -0.0527  0.2825  0.3858
42612W        W85665  27.698  32.912  19.779  0.1762  0.1689 -0.2361
42613W        W85666   6.663  33.974  22.344  0.0593  0.2331 -0.2831
42614W        W85667  14.807  11.670  14.183 -0.1476  0.2023 -0.1243
42615W        W85668  28.931   1.474  18.785 -0.0996  0.1451 -0.0360
42616W        W85669  27.901  29.893  14.641  0.2662  0.1388 -0.0387
42617W        W85670  33.004  22.232  16.655  0.2086 -0.0634 -0.2507
42618W        W85671   1.034  23.578  20.282 -0.0727 -0.1643 -0.0136
42619W        W85672  30.945  31.082   4.841  0.2296  0.0122  0.0062
42620W        W85673  24.228   4.033  16.988  0.1154 -0.1471 -0.1880
42621W        W85674   4.344  25.998  20.792  0.0869 -0.0432 -0.2206
42622W        W85675   1.731  24.039  17.693  0.1736 -0.1262  0.1809
42623W        W85676  32.373  14.991   1.582 -0.0584 -0.2197 -0.2697
42624W        W85677  27.692  27.211   3.861  0.0395 -0.0740 -0.0451
42625W        W85678   3.550   8.351  20.683  0.0192  0.1552  0.3198
42626W        W85679  17.942   7.955  23.587 -0.0239 -0.0268  0.1373
42627W        W85680   6.769  26.360  20.605 -0.2580  0.0352  0.2199
42628W        W85681  26.669   5.201   9.384 -0.1323  0.1730  0.1190
42629W        W85682  28.583   6.096  15.641  0.2582 -0.1407  0.0842
42630W        W85683  30.454  16.993  20.241  0.1088 -0.1273  0.0694
42631W        W85684   8.939  34.431  15.483 -0.0898 -0.0209  0.0942
42632W        W85685   9.235  27.136  21.588  0.1320 -0.2012  0.0181
42633W        W85686  34.411  32.343  17.411  0.0799  0.4920  0.3705
42634W        W85687   1.654  31.336  16.365  0.3098  0.0605 -0.0167
42635W        W85688   1.660   0.869  16.310 -0.2715  0.0526 -0.0827
42636W        W85689  27.993  28.559  15.896  0.2227  0.0796 -0.0987
42637W        W85690   9.122  17.728  14.009 -0.1020 -0.1261  0.0558
42638W        W85691   7.770  33.732   1.956 -0.1182  0.1216 -0.3548
42639W        W85692  24.775  14.943  27.887 -0.1202 -0.1775 -0.0646
42640W        W85693  33.896   5.863  21.247  0.0431  0.1475 -0.1161
42641W        W85694  27.210  22.408  17.105  0.2018  0.1854  0.0508
42642W        W85695  31.878   5.516  14.271 -0.0312  0.3136  0.0937
42643W        W85696   7.048  17.126  23.163 -0.1668 -0.3787 -0.0020
42644W        W85697  29.998  29.229  16.323 -0.1831 -0.0373 -0.1070
42645W        W85698  27.298  33.260  19.314  0.0322 -0.0323 -0.1625
42646W        W85699   4.358  13.358  23.687  0.0575  0.1395 -0.1858
42647W        W85700  23.033   0.928   1.859  0.2957 -0.0522 -0.0405
42648W        W85701  12.737  15.155  22.975 -0.3737  0.1653 -0.1840
42649W        W85702  30.802   3.377  20.095  0.0143 -0.0384  0.1650
42650W        W85703   6.958   5.260  28.624 -0.0446 -0.1978  0.0102
42651W        W85704  21.516  30.964  16.725  0.1157 -0.0572  0.0693
42652W        W85705  11.613  21.039  22.346 -0.0489  0.0303 -0.0719
42653W        W85706  28.439  19.165   3.040 -0.0547  0.1634  0.3423
42654W        W85707  34.253  30.272  19.728  0.1191  0.2590  0.2683
42655W        W85708  30.715   8.828  16.415  0.1371  0.0647  0.2510
42656W        W85709   1.486  30.280  19.648  0.2291 -0.0601  0.0165
42657W        W85710  26.146   4.897  14.656 -0.0366 -0.2705 -0.3249
42658W        W85711   5.693  33.634   4.259  0.0016 -0.0019  0.1888
42659W        W85712  31.163  22.856  18.782  0.1312  0.0188  0.0590
42660W        W85713  31.697  18.680  21.989 -0.0454 -0.0788  0.0051
42661W        W85714   2.739  17.761  24.372 -0.0638 -0.0117  0.2714
42662W        W85715  25.047  24.518  23.568  0.0024 -0.1339  0.3974
42663W        W85716  34.635  12.700  18.134 -0.1318 -0.1724  0.2323
42664W        W85717  33.667   5.263  14.494  0.0496  0.0209 -0.2165
42665W        W85718  15.222   5.959  17.135  0.0010 -0.0329 -0.1216
42666W        W85719  30.518  30.170   3.892  0.1145  0.2196  0.0217
42667W        W85720  19.028  29.961   1.598 -0.0295 -0.1838 -0.0421
42668W        W85721  30.356  33.270   1.697  0.0009 -0.0523 -0.0664
42669W        W85722   5.860   8.640  28.516 -0.0899 -0.0088  0.2037
42670W        W85723  27.466  23.234  24.542 -0.0168 -0.1528  0.0899
42671W        W85724  27.086  28.799   9.389 -0.0339  0.1044  0.2211
42672W        W85725  31.262  19.452  18.888  0.1246  0.1535  0.0213
42673W        W85726   9.073  29.016  13.292  0.0819  0.4880  0.0230
42674W        W85727   8.439  29.099  23.476  0.0202  0.1940 -0.1226
42675W        W85728  28.845   3.233  15.292 -0.3656 -0.4362 -0.1666
42676W        W85729  23.415  19.495  21.094 -0.0904 -0.0691 -0.0581
42677W        W85730  15.617  11.269  23.615  0.0762  0.1524  0.0092
42678W        W85731  29.457  32.729  26.584 -0.0700 -0.0060 -0.0760
42679W        W85732  26.001  26.256  21.637  0.2678  0.1160 -0.2591
42680W        W85733  33.693  33.736  21.536 -0.2332 -0.1584 -0.3381
42681W        W85734  28.379   2.938   0.427  0.0125 -0.2442 -0.4820
42682W        W85735  27.809  17.071  18.138  0.0857 -0.0066  0.2335
42683W        W85736  34.643  23.125  21.163  0.0385 -0.2465  0.0528
42684W        W85737  26.416  18.367  24.842 -0.5064 -0.0379  0.1752
42685W        W85738   5.927  33.843  17.545 -0.6395  0.2412  0.1643
42686W        W85739  32.216  28.218   1.240  0.0387 -0.1688 -0.2149
42687W        W85740  26.946  25.421   2.521 -0.0870 -0.0913 -0.3445
42688W        W85741  34.526  23.667  15.383 -0.1664 -0.0793  0.0992
42689W        W85742  20.981  34.532   9.679  0.1945  0.0325 -0.1397
42690W        W85743  28.478   9.123   8.350  0.2316  0.0590 -0.1690
42691W        W85744  30.892  16.100  18.357  0.0164  0.0676 -0.0172
42692W        W85745   8.992  30.087  24.945  0.1054  0.0520  0.1580
42693W        W85746  13.403  12.031  11.806 -0.0904 -0.0815 -0.0658
42694W        W85747   3.992  28.811  20.948 -0.0110 -0.6145 -0.3095
42695W        W85748  27.359  15.146   0.763 -0.0324  0.1069 -0.0565
42696W        W85749  31.448  29.422  20.180  0.2011 -0.2169 -0.1643
42697W        W85750  31.035  20.151  18.976  0.1035  0.0815  0.2350
42698W        W85751  21.455  21.707  16.243 -0.0551  0.0883  0.0771
42699W        W85752  28.409  24.498   0.380 -0.1372  0.1880 -0.1651
42700W        W85753  27.823  25.529  18.642 -0.3423  0.2732 -0.1848
42701W        W85754   0.127  31.109   1.200  0.1331 -0.2374 -0.2548
42702W        W85755   0.580  26.427  17.260 -0.0903 -0.1193  0.1324
42703W        W85756  15.139  33.975  17.237 -0.1151  0.0664  0.2628
42704W        W85757  30.945   4.522   5.844  0.0958 -0.0112  0.0881
42705W        W85758  19.974  32.106  23.055 -0.1206 -0.2724 -0.1491
42706W        W85759   1.593  31.561   4.985  0.0908 -0.0471 -0.0823
42707W        W85760  31.485   7.511  16.480 -0.0602 -0.2016  0.4409
42708W        W85761  21.911  18.381   6.301  0.1209  0.0415  0.2981
42709W        W85762  30.909  19.821  26.955 -0.0200  0.0083  0.3329
42710W        W85763   6.695  29.981  15.803 -0.0980  0.0889 -0.0918
42711W        W85764  25.090  30.401  14.801 -0.2013  0.0966 -0.0799
42712W        W85765  31.680  31.330   0.107 -0.3329 -0.3273 -0.1245
42713W        W85766  14.988  31.938  22.008 -0.1096  0.0762 -0.1936
42714W        W85767  34.121  33.967  23.288  0.0579 -0.0323  0.1349
42715W        W85768  28.383   3.025  22.346 -0.3059 -0.2031 -0.2001
42716W        W85769   3.880  33.997  26.515  0.1299  0.1289 -0.1713
42717W        W85770  21.115  13.652  19.248  0.0073  0.0923 -0.0088
42718W        W85771  26.951  28.572   6.216  0.1332  0.2246  0.1624
42719W        W85772   5.179  11.149  16.252  0.1486 -0.0361  0.1063
42720W        W85773  30.976  16.196  26.404 -0.1079  0.0805 -0.4365
42721W        W85774   1.597  25.593  24.895  0.0267 -0.3103  0.0031
42722W        W85775   6.816  13.883  22.344  0.1285  0.1012  0.0942
42723W        W85776  31.998  14.508  26.786  0.0199  0.1881 -0.2041
42724W        W85777  23.305   8.019   5.724  0.0126  0.0897 -0.5148
42725W        W85778  22.016  14.647  25.889 -0.0242 -0.2149  0.1237
42726W        W85779  10.110  15.557  16.913 -0.2243 -0.0144 -0.0871
42727W        W85780  32.966  26.125   8.754  0.0449 -0.0730  0.1906
42728W        W85781   2.017  26.868  18.664 -0.1347 -0.0892 -0.0359
42729W        W85782  28.563  23.894   1.213 -0.0799  0.1863  0.0038
42730W        W85783   3.516   6.044   1.513  0.1983  0.1975 -0.0027
42731W        W85784  14.453  27.000  23.525 -0.2685  0.4238 -0.0504
42732W        W85785  32.987   3.832  21.457 -0.1768 -0.0067 -0.0141
42733W        W85786  27.642  27.357  20.973 -0.0390  0.1742 -0.0559
42734W        W85787  23.839   3.972  24.439 -0.2505  0.1107  0.3596
42735W        W85788  11.129  25.918  20.942  0.1959  0.1207 -0.1661
42736W        W85789  23.650  23.086   8.133  0.2419 -0.2539  0.0721
42737W        W85790  29.811   7.782  21.841  0.3175 -0.0308 -0.0467
42738W        W85791  30.822  21.941  20.886 -0.1290  0.0028  0.1463
42739W        W85792  32.673  33.787  16.692 -0.0154  0.1268 -0.2774
42740W        W85793  22.157  26.561   5.756  0.1246  0.1750 -0.0497
42741W        W85794  31.459  26.903  27.412  0.3785 -0.0897  0.1489
42742W        W85795  29.198  28.721  28.309 -0.2375 -0.0946 -0.0016
42743W        W85796   5.777   0.952  18.167  0.2355  0.0821 -0.0343
42744W        W85797   3.518  12.480  17.622 -0.3136 -0.0134  0.0456
42745W        W85798  15.716  26.166  25.319 -0.1787 -0.0209  0.0235
42746W        W85799   4.639   8.116  25.026 -0.1288 -0.0205  0.0014
42747W        W85800  31.528  29.038  25.905  0.1303  0.0166  0.1193
42748W        W85801  26.528   4.069  15.573 -0.1276  0.3367 -0.1006
42749W        W85802  18.415  22.638  28.856 -0.0774 -0.0419 -0.0801
42750W        W85803  26.912  30.604  21.569 -0.0457  0.0864  0.0887
42751W        W85804  32.453  31.477   4.403  0.0018  0.2643  0.3952
42752W        W85805   0.021  30.820  25.240  0.2048  0.4223 -0.0399
42753W        W85806  33.385  33.230  16.735  0.1277 -0.1063  0.1207
42754W        W85807  29.531  21.628   4.886 -0.3127 -0.1130 -0.2832
42755W        W85808   0.200  14.302   2.136 -0.1213 -0.0481  0.3346
42756W        W85809  34.283  23.461  21.077 -0.0669  0.1038  0.0090
42757W        W85810  18.069   5.765  23.939  0.0589 -0.0046  0.0602
42758W        W85811  22.812  28.648  25.116 -0.0266 -0.1589 -0.0940
42759W        W85812  27.980   3.091  17.777  0.1135  0.0483 -0.2762
42760W        W85813  26.969   3.591   4.779 -0.0482 -0.0215 -0.2876
42761W        W85814  21.559  24.500  10.317 -0.1183 -0.0390  0.0795
42762W        W85815  21.337  30.281  25.571 -0.0432  0.1319  0.1648
42763W        W85816  13.788  14.071  22.287 -0.0957  0.0248 -0.1448
42764W        W85817  23.635  29.616  25.867 -0.0262  0.0192 -0.1355
42765W        W85818  28.643  11.562  20.099 -0.3189  0.3157 -0.1510
42766W        W85819   2.079  20.864  19.845 -0.1358  0.4008 -0.0451
42767W        W85820  34.366  34.007  18.018  0.3990 -0.1424 -0.1464
42768W        W85821   1.314  10.222  19.061  0.0209  0.1064 -0.1446
42769W        W85822  31.036  32.864  25.022  0.0502 -0.0629 -0.2057
42770W        W85823  19.012  26.399   3.966  0.4604 -0.0129 -0.0412
42771W        W85824  24.839  32.198  24.828  0.0278 -0.0842 -0.2835
42772W        W85825  27.955   4.635  25.684 -0.1475 -0.3054  0.0471
42773W        W85826   8.944  26.095  26.462 -0.0788 -0.2002 -0.4429
42774W        W85827  20.822  26.890  15.073  0.0943  0.0545 -0.0826
42775W        W85828  34.673  29.984   8.249  0.4132  0.2718 -0.2502
42776W        W85829  34.274  23.345  25.733 -0.1056 -0.0898 -0.3003
42777W        W85830  26.255   6.760  24.450 -0.0967 -0.1228  0.2540
42778W        W85831  24.465  17.296  26.544  0.1760  0.1521  0.4921
42779W        W85832  14.780   2.127  25.797 -0.2637  0.2111 -0.1975
42780W        W85833   7.377   1.350  16.050  0.3260 -0.2429  0.2342
42781W        W85834  30.539   3.806  20.844  0.1139 -0.0094 -0.1335
42782W        W85835   8.416  30.856  18.058  0.2348 -0.0086 -0.3329
42783W        W85836   9.165   0.821   0.421  0.1464 -0.0788  0.3709
42784W        W85837   2.783  20.316  23.434 -0.1807  0.2667  0.1309
42785W        W85838  32.572  23.374  14.281 -0.0814  0.1442 -0.3470
42786W        W85839  28.202  25.158  14.115  0.1928 -0.1166 -0.5341
42787W        W85840  24.838  26.744  19.975  0.2866 -0.3543  0.1685
42788W        W85841  14.756  22.810  15.105 -0.5754 -0.0328  0.2536
42789W        W85842   1.134   0.679  14.414  0.1703  0.0449  0.1470
42790W        W85843  33.587  28.897  21.383 -0.0920  0.0538 -0.2286
42791W        W85844  33.735  24.066   4.703 -0.1111  0.1920 -0.3302
42792W        W85845  28.767   8.410  18.006 -0.0778  0.1077  0.0018
42793W        W85846   0.974  30.836  16.353  0.0263 -0.2178  0.1609
42794W        W85847   5.086   6.270  16.145 -0.2496 -0.1290 -0.0716
42795W        W85848   0.537  15.520  18.746 -0.1077 -0.4151 -0.0117
42796W        W85849   7.854  26.467  13.049 -0.4889 -0.0551  0.2844
42797W        W85850  21.012   0.958  23.633 -0.0422 -0.2658 -0.0048
42798W        W85851   6.356  32.640  17.422 -0.0499  0.0895  0.0275
42799W        W85852  33.245   6.017  15.816  0.0200 -0.4013  0.0618
42800W        W85853  33.196  30.132  23.411  0.1758 -0.2050 -0.0695
42801W        W85854  23.316  15.182   6.061  0.1671 -0.0116 -0.0347
42802W        W85855  14.314  25.934  16.552  0.0139 -0.0475  0.0808
42803W        W85856  29.552   1.562   1.452 -0.2074 -0.2526 -0.0190
42804W        W85857  23.765  29.934   2.425 -0.2107 -0.3245 -0.1470
42805W        W85858  19.735  22.635   2.188 -0.2212  0.1916 -0.2399
42806W        W85859   0.210   9.065  15.378  0.1901 -0.1981  0.0768
42807W        W85860   5.650  33.969   2.360  0.0738 -0.1569  0.0197
42808W        W85861   3.785  27.200   0.547 -0.3105 -0.2202 -0.0778
42809W        W85862  27.690  34.047  25.374  0.0567 -0.0175 -0.1424
42810W        W85863   2.519  25.991  15.146  0.1568 -0.1309 -0.0816
42811W        W85864  11.797  18.916  24.860  0.0222  0.0971  0.0593
42812W        W85865  19.515  33.163   2.762  0.1890  0.4986 -0.0095
42813W        W85866  23.923  11.782  18.878  0.1649 -0.2870 -0.1726
42814W        W85867   8.937   2.545   1.313  0.0750 -0.1583 -0.0366
42815W        W85868  22.724   0.177   9.326  0.1957 -0.0566  0.1825
42816W        W85869  11.587  21.535  26.661  0.2370 -0.0545 -0.0137
42817W        W85870  28.497  26.391  14.336  0.0489 -0.3203 -0.1750
42818W        W85871  27.976   0.665  19.715 -0.3073 -0.0872  0.1808
42819W        W85872  28.813  19.000  14.704 -0.3216 -0.1909 -0.0095
42820W        W85873   0.634   0.645  23.005 -0.1750 -0.0741 -0.0110
42821W        W85874  10.454  17.186  28.688 -0.2981  0.1091  0.0779
42822W        W85875  34.186  31.609   9.589  0.0686 -0.1853 -0.2866
42823W        W85876  27.169   4.122  18.805  0.0576 -0.0070 -0.2820
42824W        W85877  30.524   2.395  16.922  0.1959  0.1372  0.0951
42825W        W85878   3.089  31.389  18.698 -0.2913  0.3538  0.1179
42826W        W85879  22.802  12.595  17.138  0.0293 -0.0052 -0.0194
42827W        W85880   0.819  28.134  22.504  0.2722  0.0878 -0.0912
42828W        W85881   0.137   1.988  24.263  0.5384  0.0323  0.1695
42829W        W85882  18.178  29.234  16.305 -0.0479 -0.1189 -0.0844
42830W        W85883  30.927  16.866  28.015  0.3942  0.1174  0.2116
42831W        W85884  10.031  15.562  28.865  0.1606 -0.2460  0.1323
42832W        W85885  20.169  29.476  24.653 -0.2672 -0.2285 -0.1050
42833W        W85886   1.134  19.107   8.453 -0.1070  0.0759 -0.1749
42834W        W85887   1.478  29.350  28.543  0.1802  0.1161  0.2387
42835W        W85888  27.509  27.215  20.470  0.2262 -0.2518 -0.1076
42836W        W85889  22.207  32.505  18.061 -0.0538 -0.0074 -0.0222
42837W        W85890   2.958   4.625  18.499  0.2423 -0.0058 -0.2195
42838W        W85891  18.236  18.894  24.626  0.0603  0.0209 -0.0056
42839W        W85892  21.109  26.436  22.084 -0.0530 -0.0389  0.0364
42840W        W85893  11.346  22.703  23.335  0.0489 -0.2369 -0.0627
42841W        W85894   0.887   4.728   0.223  0.0025 -0.0374  0.2067
42842W        W85895  30.662  17.719  23.897 -0.0781  0.2220 -0.1833
42843W        W85896  29.642  26.165  21.368 -0.0557 -0.0190 -0.1690
42844W        W85897   0.025   0.299  19.370 -0.1292  0.2136  0.0559
42845W        W85898   1.421  30.087  14.265  0.0589  0.1743 -0.0850
42846W        W85899  33.979   5.699  27.381  0.1347  0.0728  0.1409
42847W        W85900  12.077  25.560  19.883  0.0836 -0.2421 -0.2909
42848W        W85901   0.269  20.044  22.529 -0.1889  0.0808  0.1698
42849W        W85902  25.792  26.314  18.461  0.0420  0.0124 -0.0797
42850W        W85903  23.462  17.133  28.286  0.1406 -0.3299  0.2283
42851W        W85904  28.941  31.566  25.592 -0.1921  0.0456 -0.0737
42852W        W85905  22.902  11.063   3.268 -0.5081 -0.2131 -0.0672
42853W        W85906  24.897  21.189  15.479 -0.1811  0.0837  0.2507
42854W        W85907  28.220  32.006  24.708 -0.1295 -0.2205  0.1488
42855W        W85908  12.510  12.914  15.243 -0.0529  0.0938  0.0429
42856W        W85909   4.256  29.986   3.241  0.1524 -0.0666 -0.3126
42857W        W85910   6.208   0.757  18.786 -0.0878 -0.2056  0.0457
42858W        W85911   9.555  28.581  17.298  0.2184 -0.1103 -0.0201
42859W        W85912  20.364  32.259  14.098  0.0492  0.0460 -0.0252
42860W        W85913  15.892  28.775  16.578  0.0635  0.0657  0.0033
42861W        W85914   0.509  34.280   0.630  0.0211  0.3286  0.2433
42862W        W85915   1.748   4.887  25.554  0.1798  0.0810 -0.1916
42863W        W85916  20.677   1.351  26.413 -0.2454  0.1617 -0.3636
42864W        W85917  34.067   0.388  12.880  0.0431 -0.2999 -0.1390
42865W        W85918  12.509  18.618  14.707  0.2167  0.1196 -0.2050
42866W        W85919   9.523  24.559   0.376 -0.1785  0.1123 -0.0848
42867W        W85920   3.742  28.397  18.809 -0.4227  0.0526  0.0262
42868W        W85921  25.357   1.710  19.666  0.0515  0.1117  0.1394
42869W        W85922  20.947  26.416  21.560  0.0823  0.0577  0.2800
42870W        W85923  26.558  28.697  14.921  0.1014 -0.0791  0.1461
42871W        W85924   1.290  19.771   2.492  0.0677  0.4238  0.3894
42872W        W85925  11.691  28.410  18.992 -0.2708  0.2362  0.0664
42873W        W85926  20.152  17.526   8.569 -0.0258  0.0199 -0.2477
42874W        W85927  19.001   2.498  21.899  0.0945 -0.0955 -0.1277
42875W        W85928  30.049  31.678   3.583 -0.1551 -0.1614  0.2168
42876W        W85929  30.704   1.138  28.422  0.0777  0.2233  0.1864
42877W        W85930  29.090  32.861  22.271 -0.1046 -0.0511 -0.3805
42878W        W85931  24.499   0.464  15.522  0.0782  0.1247 -0.1138
42879W        W85932  33.134   1.628  23.279  0.4516  0.2272 -0.1245
42880W        W85933  24.656   3.857  15.168 -0.0578  0.0081  0.2416
42881W        W85934  16.689  33.066  17.132  0.1141  0.1773  0.0200
42882W        W85935  23.676  21.107  18.461  0.1066  0.1711 -0.1355
42883W        W85936  29.319  18.176  18.402 -0.0104  0.2667 -0.0889
42884W        W85937  13.827   4.217  26.813 -0.1444  0.2329  0.0716
42885W        W85938  23.199  12.360  16.791 -0.1725 -0.0659  0.2640
42886W        W85939  11.163  21.880  16.138  0.0606  0.0807  0.2687
42887W        W85940  23.112  16.884   0.759 -0.1082 -0.2117  0.1273
42888W        W85941  26.962  30.438  20.830  0.0767  0.1765  0.0748
42889W        W85942   8.903  31.001  17.800  0.0167 -0.0756  0.0394
42890W        W85943  27.710   3.754  23.966 -0.1056 -0.0208  0.3103
42891W        W85944  28.474  11.419  10.662 -0.1879 -0.1291  0.3382
42892W        W85945   9.265  30.626   5.847 -0.3185 -0.3543 -0.1165
42893W        W85946  24.516  17.553  14.797 -0.1285 -0.2170  0.3184
42894W        W85947  26.069  23.078   6.618  0.0361  0.1504  0.1107
42895W        W85948  28.536  28.104   6.506  0.4123 -0.0500  0.0537
42896W        W85949   0.787  24.351  19.905  0.1557  0.0509  0.1365
42897W        W85950  23.294  25.817  17.481 -0.3129  0.1955 -0.1934
42898W        W85951   6.772   7.002   2.622 -0.0327  0.0975 -0.0668
42899W        W85952   3.974  30.663  18.834  0.0284 -0.1574 -0.2677
42900W        W85953  32.445  32.779  14.811  0.0267  0.0384 -0.0796
42901W        W85954  24.607   8.947  22.035  0.0964  0.0373  0.1014
42902W        W85955  18.195  28.519   4.948  0.0158 -0.1329 -0.3974
42903W        W85956   1.021  17.065  15.446 -0.4796 -0.1012 -0.5740
42904W        W85957  32.547  18.180  14.332  0.1885  0.0640  0.2104
42905W        W85958   5.685  27.517  26.834  0.0166  0.0999 -0.6620
42906W        W85959   3.953   7.543   0.313 -0.0593 -0.0550  0.1521
42907W        W85960  28.542  13.566  19.240 -0.2670 -0.1998 -0.0839
42908W        W85961  29.744  21.031  27.729 -0.0288 -0.0052 -0.2338
42909W        W85962  31.232  24.642  28.977  0.0682  0.2295 -0.0165
42910W        W85963  14.452  25.663  23.114  0.1096  0.0639 -0.2043
42911W        W85964   1.262  30.432   0.537  0.0794  0.4346 -0.1061
42912W        W85965  20.650  25.076  24.267 -0.1429  0.0414 -0.0053
42913W        W85966  29.710  19.628  19.049  0.0112 -0.0786  0.1942
42914W        W85967   3.100  29.106  27.250  0.1461 -0.0840 -0.0217
42915W        W85968  30.408  21.363  23.876  0.3196 -0.1365 -0.1193
42916W        W85969   6.835  10.180  14.847 -0.2501  0.0268 -0.0898
42917W        W85970  24.834  30.874   0.843 -0.2363  0.0763 -0.0480
42918W        W85971  34.541  32.913   2.402  0.2616  0.2597  0.3779
42919W        W85972  18.462   8.083  15.679 -0.2564  0.0523  0.1461
42920W        W85973  26.288  33.914   0.339  0.0951  0.0801 -0.1763
42921W        W85974  22.880   2.024   7.169  0.2334 -0.1886  0.0911
42922W        W85975   9.609  29.632  24.506  0.2337  0.1387  0.2810
42923W        W85976  10.604  31.476  10.173  0.1380 -0.3614 -0.2108
42924W        W85977  22.779  25.059  17.682  0.4628 -0.1193  0.3187
42925W        W85978   1.291  30.109   0.980 -0.0210 -0.0189  0.0388
42926W        W85979  12.661  24.612  28.133  0.2527  0.2685 -0.0748
42927W        W85980   3.156  13.982  18.243  0.0183  0.0944  0.0585
42928W        W85981  31.639  33.804  20.444 -0.0634 -0.1242 -0.1408
42929W        W85982  32.397   7.329   5.953  0.0107 -0.4420  0.3425
42930W        W85983  29.637  12.879  17.967  0.1599  0.1095  0.1696
42931W        W85984  27.607   0.654  26.234  0.1120 -0.3800  0.4429
42932W        W85985   8.544   3.099  27.037 -0.1302 -0.3195 -0.0102
42933W        W85986  26.430  32.517   4.245 -0.0575  0.0212 -0.1935
42934W        W85987  26.951   2.556  10.525  0.0390 -0.0209 -0.1859
42935W        W85988  33.209  33.626   0.121 -0.0465 -0.0139 -0.2447
42936W        W85989   4.913  32.891   7.899  0.2154  0.2136 -0.2188
42937W        W85990  29.182  13.776   6.618 -0.0080  0.0850  0.1315
42938W        W85991  25.065  22.184  22.734 -0.3903 -0.0618  0.1624
42939W        W85992   4.535  33.403  27.502  0.0250 -0.1063 -0.4099
42940W        W85993  26.707  28.195  16.211 -0.0411 -0.0524 -0.1020
42941W        W85994   9.253  21.353   0.209  0.1314 -0.0808 -0.1634
42942W        W85995  18.674   4.255  26.936 -0.1975 -0.0530  0.1572
42943W        W85996  31.257  24.219   0.534  0.2568 -0.0824 -0.0579
42944W        W85997  23.335  14.761   6.923 -0.2436  0.0130 -0.0348
42945W        W85998  21.283  16.453  16.589  0.0346 -0.0055 -0.2633
42946W        W85999  26.386   2.725  17.199 -0.2716 -0.5007 -0.0505
42947W        W86000   3.907  25.757  15.489 -0.2211  0.2885  0.0455
42948W        W86001  29.936  26.764   7.604  0.2395 -0.0190 -0.1373
42949W        W86002  33.206  21.743  18.635 -0.0601 -0.1536 -0.2442
42950W        W86003  28.583  30.025  18.354 -0.0928 -0.0947  0.1189
42951W        W86004  30.378   0.350   2.290 -0.1188  0.2812 -0.1194
42952W        W86005  19.984  24.977   5.982 -0.2606 -0.0339  0.1881
42953W        W86006  23.608  29.045  15.797  0.0305 -0.1538  0.2657
42954W        W86007  25.077   2.867  24.013 -0.3471  0.0711  0.2787
42955W        W86008  21.507  10.748  20.170 -0.1275 -0.3089  0.2458
42956W        W86009  30.998  34.112  18.705 -0.1313 -0.2744 -0.1270
42957W        W86010  23.269  28.354  25.834  0.1401 -0.1236  0.1963
42958W        W86011   3.606   1.750   1.738  0.1474 -0.0745 -0.0178
42959W        W86012  12.663  22.939  17.419 -0.0400  0.0339 -0.1067
42960W        W86013   6.344   0.338   3.113 -0.0981  0.3136  0.1559
42961W        W86014  10.355  25.579   4.713  0.1166  0.0538 -0.1865
42962W        W86015   8.897  23.803  27.420  0.0825  0.1839 -0.2600
42963W        W86016   1.990   7.820  16.602  0.0877 -0.1629  0.0213
42964W        W86017  31.172  27.771   3.305 -0.2224  0.0885  0.0456
42965W        W86018  25.064   4.407  28.371  0.0880 -0.0782  0.0869
42966W        W86019   0.150  31.358  21.579  0.2824  0.1192 -0.2076
42967W        W86020  14.786  16.984   1.570  0.0687  0.0037 -0.2962
42968W        W86021   3.025  31.414  24.409  0.1687 -0.1582 -0.0006
42969W        W86022  21.569  11.881  13.820 -0.0604 -0.2439 -0.0463
42970W        W86023  22.686  34.040  24.680 -0.1986 -0.0073 -0.0746
42971W        W86024  22.047  29.916  15.665 -0.5561  0.0551  0.4507
42972W        W86025  29.795  34.617  22.858  0.0846  0.1078  0.2762
42973W        W86026   6.911   9.506   7.900  0.0527 -0.2875 -0.3222
42974W        W86027  27.172  31.719  16.259  0.3018  0.0127  0.1799
42975W        W86028   9.451  17.665  16.586 -0.0055 -0.1927  0.3043
42976W        W86029  23.539  25.839  22.463  0.1047 -0.1783  0.0305
42977W        W86030  29.468   2.792  19.265 -0.0373  0.0085 -0.2393
42978W        W86031  15.436  31.939  22.969  0.3702 -0.1595 -0.0581
42979W        W86032   8.522  19.052   9.878  0.2712 -0.4831 -0.2150
42980W        W86033  30.211  23.948  25.817  0.2105  0.1573  0.3129
42981W        W86034   0.765  14.476  17.491 -0.2894 -0.1015  0.1973
42982W        W86035   2.123   5.866  17.692  0.0782 -0.0687  0.0156
42983W        W86036   5.441  31.371  18.583 -0.0538  0.0810  0.2215
42984W        W86037  30.486   6.133  28.199  0.2379  0.3355  0.1098
42985W        W86038  25.835  28.984  14.140  0.1187  0.2698 -0.1749
42986W        W86039  20.620  30.992  16.790 -0.2298 -0.0183 -0.0508
42987W        W86040   9.678  27.537  18.081 -0.2539  0.1892  0.0388
42988W        W86041  32.321   1.729  24.237 -0.2604  0.1837 -0.1854
42989W        W86042   0.729  33.702   0.835  0.0633  0.0574 -0.0927
42990W        W86043  19.484  30.132  21.874 -0.1222  0.2721  0.0592
42991W        W86044   3.492  31.096  27.167  0.1905 -0.1162 -0.1065
42992W        W86045  34.315  10.412   4.045  0.1542 -0.0389 -0.0013
42993W        W86046  12.442  11.468  18.131  0.0354  0.0369  0.0280
42994W        W86047   2.159  31.264   3.024  0.0273 -0.0129  0.1323
42995W        W86048  31.611  28.335   5.952 -0.1297  0.2858 -0.1174
42996W        W86049   8.970   0.622   4.160  0.2310  0.1441 -0.0719
42997W        W86050   2.435   6.564   6.733 -0.0145 -0.0641 -0.0497
42998W        W86051  23.214  23.138   8.756 -0.0394 -0.1809 -0.4658
42999W        W86052  18.988  20.475  15.471 -0.1709 -0.1610  0.1425
43000W        W86053  28.343  31.465  20.243 -0.1477  0.2810  0.1088
43001W        W86054  16.276  33.125  20.174 -0.0932 -0.0501 -0.1986
43002W        W86055  31.380  27.403  24.444  0.0696  0.0715  0.0154
43003W        W86056   1.759  24.593   5.338 -0.0948  0.1160  0.3219
43004W        W86057  26.927  29.166  15.801  0.0093  0.0732  0.0774
43005W        W86058   1.292   4.898  19.791 -0.1585  0.2054 -0.0504
43006W        W86059   4.487  19.101   9.115  0.3719 -0.0680 -0.0746
43007W        W86060   5.080  24.570  20.839 -0.1839  0.0547 -0.2523
43008W        W86061  28.572  30.884  24.944 -0.1511 -0.1533 -0.1397
43009W        W86062  22.462  32.268   7.109  0.2040 -0.1417 -0.0026
43010W        W86063  32.723  21.087   4.468  0.3448  0.1849 -0.1023
43011W        W86064  30.714  34.318  19.061  0.1219 -0.0479 -0.1372
43012W        W86065  26.859  27.867  17.121  0.0599 -0.0448  0.0018
43013W        W86066  29.594  31.531  13.363 -0.0260  0.0478  0.1902
43014W        W86067  24.781   0.083  10.162  0.0049  0.2621  0.4183
43015W        W86068  28.113   0.781  28.791 -0.3002  0.4494 -0.2315
43016W        W86069   0.517  14.497   5.369  0.1805 -0.0594 -0.2564
43017W        W86070  31.128  12.942  26.088 -0.1950  0.1919 -0.0546
43018W        W86071  15.059  19.561   9.289  0.0195 -0.1371 -0.0073
43019W        W86072  22.914  21.731   0.370  0.0615  0.3671 -0.2555
43020W        W86073   8.147  10.919  18.140 -0.1572 -0.2565 -0.1484
43021W        W86074  25.075  15.348  22.493  0.1911 -0.2078 -0.0281
43022W        W86075  11.351  14.226  16.485  0.1339  0.1722  0.1934
43023W        W86076   0.448  12.093  25.135  0.3102 -0.1981 -0.1338
43024W        W86077  25.380  32.063  25.182  0.1105 -0.1890 -0.0848
43025W        W86078  31.625  17.776  17.712  0.0342  0.2506  0.0494
43026W        W86079  30.412   9.467  27.992  0.0757  0.0648  0.0332
43027W        W86080  27.343  28.214  18.277 -0.1010 -0.2501  0.1402
43028W        W86081   7.656  28.840  19.174  0.0711  0.0368 -0.3358
43029W        W86082   2.128   4.390   2.559 -0.1659  0.0833  0.0310
43030W        W86083   4.033  20.861  24.296 -0.0784  0.4743  0.0548
43031W        W86084  28.491  13.488  23.637 -0.1281 -0.0484  0.5761
43032W        W86085  25.611   7.748  17.408  0.0727  0.0831  0.1568
43033W        W86086  34.381  34.268  24.389  0.2075 -0.0853  0.1496
43034W        W86087  12.366  16.999  15.656  0.0930  0.0326 -0.0385
43035W        W86088   0.176   6.190   4.857  0.1638  0.1465 -0.0785
43036W        W86089   8.652  33.811  16.600  0.0617  0.1886 -0.1598
43037W        W86090  31.567   5.318   0.296  0.0903  0.0125  0.1344
43038W        W86091  18.949  30.924  14.103  0.0264  0.0258 -0.0323
43039W        W86092   5.334  30.404  18.176 -0.2375 -0.3932 -0.0070
43040W        W86093  26.705  22.838   3.676 -0.0703 -0.0637  0.1332
43041W        W86094   3.121  27.713   5.414  0.1049 -0.2500 -0.0204
43042W        W86095   3.273   2.280  26.896 -0.0074 -0.0896  0.0520
43043W        W86096  27.044  28.448  21.993 -0.1995  0.0776 -0.4284
43044W        W86097  26.054   5.533   1.055 -0.0625 -0.0082 -0.0909
43045W        W86098  16.386  30.577  28.098 -0.0665  0.0246 -0.3170
43046W        W86099  24.229   9.666  20.286  0.1820 -0.1901 -0.1072
43047W        W86100  17.020  31.071   0.375  0.0938 -0.1630 -0.1055
43048W        W86101  13.313  10.771   5.695  0.0965 -0.2096 -0.0328
43049W        W86102  11.902   2.174   7.008 -0.2120 -0.1765 -0.0744
43050W        W86103  29.389  30.097  18.612 -0.2564 -0.1179  0.1474
43051W        W86104  17.915  26.514  20.630  0.0713  0.0062  0.1861
43052W        W86105  17.825   1.307  20.222 -0.2678 -0.0984 -0.2992
43053W        W86106  19.713  20.075   6.545  0.3993  0.4128  0.0832
43054W        W86107   3.921  23.034  26.364  0.0315  0.5454  0.0245
43055W        W86108  28.999  31.271  22.877 -0.2233  0.0323 -0.1887
43056W        W86109   1.805  32.894  25.640 -0.0181 -0.0506  0.2552
43057W        W86110   3.299   5.326   3.017  0.2637 -0.2103  0.0205
43058W        W86111   0.879  28.391  19.503  0.1606  0.1786 -0.2036
43059W        W86112   2.013  19.129  25.637  0.2585 -0.0599  0.1285
43060W        W86113   6.586  30.201  21.076  0.4678 -0.0831  0.2215
43061W        W86114  19.035  29.043  22.311  0.1418 -0.0641 -0.2456
43062W        W86115  24.803  34.258  16.588  0.0409 -0.0499  0.2642
43063W        W86116  22.469  34.194   5.365 -0.0018  0.1526 -0.1967
43064W        W86117   6.189  23.951   0.369 -0.1152 -0.1549  0.0054
43065W        W86118  10.214   6.391  26.962  0.5382  0.1570  0.0360
43066W        W86119   3.789  32.566   1.876  0.0021  0.0298 -0.3869
43067W        W86120  11.106  20.499  24.478  0.2681  0.0451  0.2172
43068W        W86121  15.633  11.934   0.166 -0.0025 -0.0053  0.3204
43069W        W86122  24.151  30.077  16.356  0.0949  0.1518  0.2054
43070W        W86123   8.300   9.480  23.311  0.0930  0.1832  0.0038
43071W        W86124   5.759  32.106  14.874 -0.1254 -0.2642  0.2064
43072W        W86125  30.388  17.957   7.181 -0.1913  0.3144  0.1709
43073W        W86126  28.356  17.274  22.817 -0.1701 -0.2742 -0.0736
43074W        W86127  22.661  23.295   8.421 -0.5232  0.2210 -0.2927
43075W        W86128  23.204  22.388  20.299 -0.0455 -0.0850 -0.2472
43076W        W86129  24.981  22.860   9.222  0.0897  0.0154 -0.1987
43077W        W86130  32.441  32.158  22.975 -0.0295  0.0015  0.0912
43078W        W86131  29.358   4.555  22.602 -0.2542  0.2071 -0.0789
43079W        W86132   3.173  11.565  26.009  0.1451  0.3720 -0.0662
43080W        W86133  11.047  24.402  25.450 -0.1185 -0.1343 -0.0192
43081W        W86134  12.609  23.843  28.474  0.0874 -0.2351 -0.1072
43082W        W86135  25.636   8.378   2.475  0.0165  0.1160  0.0793
43083W        W86136  32.196  27.246  15.773  0.0483 -0.3747 -0.0445
43084W        W86137  16.765  24.194  20.320 -0.3198 -0.1947 -0.2354
43085W        W86138  34.401  26.504  18.639  0.2093  0.1730 -0.0319
43086W        W86139   1.339  27.475  28.530 -0.0372 -0.3974  0.3865
43087W        W86140  12.292  19.579  17.898  0.1178 -0.2691  0.1822
43088W        W86141   8.421  25.437  27.020 -0.1863  0.2587  0.1525
43089W        W86142  26.565  26.949   5.964  0.2100 -0.3140 -0.2604
43090W        W86143  30.538  24.661  23.705  0.0747  0.1960 -0.1664
43091W        W86144  25.024   2.499   3.238 -0.0202 -0.1737 -0.4190
43092W        W86145  16.400  26.818  19.203 -0.0186 -0.0237  0.0102
43093W        W86146  28.027   7.891  18.015  0.0127  0.0055  0.3180
43094W        W86147  30.727   4.854   0.829  0.1016 -0.2415  0.0054
43095W        W86148   3.627  30.295  16.630  0.2333  0.1302 -0.1694
43096W        W86149   4.306  34.352  14.572 -0.1079 -0.2739  0.2765
43097W        W86150  30.374   0.745  28.258  0.1495  0.0448  0.0796
43098W        W86151  32.205  10.950   3.221  0.1327 -0.1472  0.2435
43099W        W86152  22.176  21.960   9.734 -0.0580  0.1083 -0.0266
43100W        W86153   2.223  20.771  27.668 -0.0340 -0.1327  0.1576
43101W        W86154  33.276  15.841  15.008  0.1049  0.1652 -0.2931
43102W        W86155  20.302   6.754  19.573 -0.1783  0.4382  0.0189
43103W        W86156  23.213  27.150  25.676  0.1184 -0.0659  0.1183
43104W        W86157   3.877  24.839  21.400 -0.2099 -0.3812  0.0076
43105W        W86158  27.223  27.407   5.680  0.1296 -0.3200  0.1721
43106W        W86159  27.643  15.214   2.638  0.0885 -0.3566  0.4384
43107W        W86160   2.634  24.481   6.052  0.4036 -0.0904 -0.5864
43108W        W86161   8.865  32.985  10.035 -0.0039  0.0943  0.1743
43109W        W86162  17.526  26.361  21.684 -0.2467 -0.2128  0.4492
43110W        W86163  14.835  29.982   2.066 -0.2011  0.2124 -0.0780
43111W        W86164  24.680  20.059   2.277 -0.3083 -0.3306 -0.1797
43112W        W86165  25.085  18.481  25.670 -0.0147  0.0815 -0.0194
43113W        W86166   6.300   1.663  15.175 -0.0950  0.1225  0.1528
43114W        W86167   9.471  26.202  17.426  0.0716  0.0716  0.1663
43115W        W86168  19.383  31.433  28.777 -0.4754  0.2497  0.3905
43116W        W86169   1.477  11.256  20.674 -0.1006  0.0016 -0.0374
43117W        W86170  20.507  16.187   1.812 -0.0731 -0.3878  0.1001
43118W        W86171  31.495  32.641  28.896  0.2393  0.1434 -0.2267
43119W        W86172  34.542  21.186  25.387 -0.4187 -0.1812 -0.0127
43120W        W86173  33.899   0.662   1.398  0.3069  0.0151 -0.1013
43121W        W86174  15.539  24.011  28.519 -0.0256 -0.1500  0.0070
43122W        W86175   6.925   4.266  24.873 -0.1449  0.0886 -0.0057
43123W        W86176   7.436  32.772   3.459 -0.0634  0.0759  0.1477
43124W        W86177  25.161  28.554   6.254  0.0788  0.0818  0.1448
43125W        W86178   2.815  12.939  22.370 -0.1033 -0.0231 -0.0807
43126W        W86179   6.565   6.197  22.250 -0.0485  0.3348  0.1783
43127W        W86180  33.671  23.697  16.343 -0.1695  0.3805  0.2784
43128W        W86181   7.262  21.698  13.728 -0.4153  0.0852 -0.0757
43129W        W86182   6.623   8.236  29.000  0.5100 -0.2480 -0.3145
43130W        W86183  21.385   8.925  10.993  0.1946  0.1479 -0.2315
43131W        W86184   1.778  23.443  19.470 -0.1369  0.1375  0.0828
43132W        W86185  10.718  26.066  17.394 -0.0255  0.0536  0.2832
43133W        W86186   8.727  24.430   3.934 -0.1444 -0.1467 -0.0177
43134W        W86187  19.710  13.655  27.072 -0.1054  0.0401  0.2036
43135W        W86188  14.225  25.793  24.053 -0.1536  0.3059 -0.1379
43136W        W86189  33.471  26.304   3.201 -0.0382 -0.1432  0.2654
43137W        W86190   4.105  26.666  19.104  0.2451 -0.1262 -0.0543
43138W        W86191  11.888  16.365  27.932  0.2844  0.0963  0.0145
43139W        W86192  27.569  17.898  21.892 -0.1030 -0.2480 -0.1228
43140W        W86193  25.901  18.272  19.811 -0.1924  0.1497 -0.0467
43141W        W86194  14.465  16.931  14.782  0.0895  0.1044  0.0822
43142W        W86195  24.473  18.752   4.387 -0.1873 -0.0886 -0.1096
43143W        W86196  25.211  34.132  26.787 -0.0499  0.0929  0.0683
43144W        W86197  31.353  14.236   2.789 -0.0694 -0.0393  0.1953
43145W        W86198   2.092  29.961   2.159 -0.0090 -0.1980  0.5311
43146W        W86199   5.218  33.744  23.439  0.1761 -0.2286 -0.0008
43147W        W86200  32.425  15.710   1.978  0.1441  0.1095  0.0621
43148W        W86201  24.267  27.152  22.204  0.2998 -0.0678  0.1578
43149W        W86202  27.508   1.661  15.705 -0.2364 -0.2135 -0.0406
43150W        W86203  23.831  34.405  19.191 -0.0198 -0.1180  0.1473
43151W        W86204   9.337  10.425  23.709 -0.0941 -0.3044  0.1062
43152W        W86205  24.247  30.550  20.596 -0.2534  0.1063  0.2414
43153W        W86206  32.261  27.891  18.799 -0.1121  0.0912  0.0162
43154W        W86207  33.397   5.289  16.512 -0.3013 -0.1534 -0.0502
43155W        W86208  23.491   3.214   5.077  0.1601  0.0624  0.0964
43156W        W86209   2.939  25.921  20.650 -0.2789  0.0803  0.1619
43157W        W86210  20.271  20.218  14.586 -0.0748 -0.2423  0.0860
43158W        W86211   6.873  32.596  27.063 -0.0572 -0.0753 -0.2949
43159W        W86212  32.446  15.099  27.844  0.1579  0.3283 -0.2442
43160W        W86213   2.488   0.826   7.566 -0.1136  0.3234  0.0703
43161W        W86214   2.931   9.163  27.566  0.1260  0.2535  0.1092
43162W        W86215  27.464  24.732  23.576 -0.1371 -0.0792 -0.1082
43163W        W86216  25.664  27.978   0.898  0.2782 -0.0518 -0.1364
43164W        W86217  27.569   3.264  18.598  0.3683 -0.2184 -0.1299
43165W        W86218   0.182   6.754  19.102  0.0301  0.1890 -0.0503
43166W        W86219  15.584   7.115  23.381  0.1296 -0.1581 -0.0279
43167W        W86220  19.366  22.491   1.739  0.0611 -0.3245  0.0916
43168W        W86221  26.908  18.522   1.259  0.1237 -0.2710 -0.2080
43169W        W86222  30.624  10.141   4.326 -0.2142 -0.0341 -0.1398
43170W        W86223   6.456  10.832  18.787 -0.2586 -0.1385 -0.0742
43171W        W86224   6.252  25.200   4.163  0.1102 -0.2404 -0.2850
43172W        W86225  23.351  30.460   7.066 -0.0924 -0.3227  0.0077
43173W        W86226   3.072  31.116  16.751  0.0673 -0.5029 -0.0394
43174W        W86227  13.721  10.134   6.009  0.0133 -0.0374 -0.1767
43175W        W86228  23.226  12.399   0.085  0.0092 -0.2237  0.1701
43176W        W86229   4.906   1.542   9.936 -0.1427 -0.0877  0.0256
43177W        W86230   3.738  30.746   6.485  0.3234  0.0868  0.0171
43178W        W86231  29.006  17.054  20.837 -0.0431  0.0088  0.0745
43179W        W86232  17.472  23.494  29.078 -0.3711 -0.0399 -0.1910
43180W        W86233  30.055  28.286  19.191  0.0652 -0.0848  0.5088
43181W        W86234  27.927  28.633  15.366 -0.1423 -0.1208 -0.0920
43182W        W86235  13.036  30.683  20.119  0.1160 -0.0243 -0.2569
43183W        W86236   9.657  32.793  15.974 -0.4241  0.0735  0.0925
43184W        W86237   6.065   1.808   1.022  0.3734 -0.2724  0.0282
43185W        W86238   7.218  12.055  15.947 -0.2826  0.1601 -0.1240
43186W        W86239  10.554  31.536  16.609 -0.1526 -0.0161 -0.1824
43187W        W86240   0.315  23.906   0.916 -0.0129 -0.1821  0.1289
43188W        W86241  27.224  23.596  19.028  0.0051  0.3166 -0.4198
43189W        W86242  33.855  22.923  22.421 -0.1607  0.1884  0.0548
43190W        W86243   4.101  22.803  20.717  0.0584 -0.1489  0.0539
43191W        W86244  12.449  15.590  21.785  0.3176  0.2705 -0.1557
43192W        W86245   4.611  31.975   7.059  0.1687 -0.1310  0.2277
43193W        W86246   8.261  30.668  23.228  0.2659 -0.0223  0.0461
43194W        W86247  28.805  33.336  14.215 -0.0500 -0.2094 -0.1416
43195W        W86248  24.667  30.628   0.384 -0.2183 -0.0080  0.1463
43196W        W86249  10.039  10.159   0.812  0.2015 -0.4232 -0.1088
43197W        W86250  22.010  22.330  23.093 -0.0265 -0.0433  0.2134
43198W        W86251  31.045  25.814  24.812  0.2523  0.1352 -0.1841
43199W        W86252  30.176  18.705   3.434  0.1819 -0.0680 -0.0606
43200W        W86253  29.674   9.857   7.463 -0.2905  0.0625  0.1491
43201W        W86254  11.900  16.671   1.687 -0.2860 -0.0007 -0.3622
43202W        W86255   2.744  19.741   2.568  0.3623  0.2694  0.1142
43203W        W86256  32.866  25.196  27.381 -0.0700  0.1688 -0.0209
43204W        W86257  33.535   8.001  24.431  0.0002 -0.0406 -0.0399
43205W        W86258  28.839  23.462  25.909  0.0754 -0.0983 -0.2691
43206W        W86259  13.591  20.662  27.542 -0.1259 -0.0766  0.1781
43207W        W86260  21.374   8.690  22.577  0.1427 -0.3318  0.1337
43208W        W86261   0.860  20.933  25.136  0.2502 -0.0255 -0.0236
43209W        W86262   4.739  31.410  16.201  0.1799  0.1487  0.3053
43210W        W86263  27.297  18.380  15.630 -0.1333 -0.0366 -0.1032
43211W        W86264   0.534  30.384  17.401  0.2406  0.2252  0.0571
43212W        W86265  20.332  24.369   8.877  0.0490 -0.1347 -0.2156
43213W        W86266  22.178  28.058  19.416 -0.0375  0.0233  0.1731
43214W        W86267   3.485  32.446  15.764  0.1420  0.1065  0.1318
43215W        W86268   0.161  12.289  19.480 -0.0168 -0.3461 -0.0269
43216W        W86269  10.055   9.307   8.647 -0.2476  0.0195 -0.1028
43217W        W86270   8.825   8.058  21.269 -0.2211  0.1004  0.2220
43218W        W86271  19.303  32.778  28.837  0.0065  0.1079  0.0593
43219W        W86272  23.488  31.069   5.323  0.0373  0.2147 -0.0510
43220W        W86273  19.699  27.919  10.388  0.5341  0.4065 -0.2118
43221W        W86274  26.486  17.443   2.314  0.0066 -0.1011  0.0274
43222W        W86275  28.285  14.847  24.822 -0.1354  0.0537  0.1322
43223W        W86276   0.121  28.018  25.225  0.0361  0.1974  0.3020
43224W        W86277  22.510  20.032   1.940  0.3935  0.0001  0.0756
43225W        W86278   6.929  10.526  15.992 -0.3046  0.1131  0.0835
43226W        W86279  24.577   2.200  25.734 -0.2831 -0.0410  0.0254
43227W        W86280  26.268  12.259  14.798  0.0688 -0.2200 -0.2160
43228W        W86281  26.740  27.917  18.965 -0.1620  0.5441 -0.1490
43229W        W86282   8.798  17.264  17.640 -0.1442  0.1907  0.0829
43230W        W86283   3.940  18.025   4.637  0.1367 -0.4462 -0.1183
43231W        W86284   1.451  30.908   2.655  0.0362  0.6483 -0.0173
43232W        W86285   1.908  28.703  24.846  0.1729 -0.0362 -0.2045
43233W        W86286  16.523  28.398   4.477  0.0427  0.0395 -0.3095
43234W        W86287  27.083  19.453  22.872 -0.2805 -0.1288  0.1940
43235W        W86288  34.113  19.971   7.985  0.4429 -0.3948  0.4036
43236W        W86289   0.680  24.393  24.519  0.2766 -0.1667  0.2566
43237W        W86290   9.580  27.613   5.961 -0.1151 -0.1127 -0.2971
43238W        W86291  27.526  33.952  17.401 -0.1713 -0.2229 -0.0420
43239W        W86292  21.886  27.589   4.386 -0.2624  0.0020 -0.1968
43240W        W86293  22.928  19.980   2.189  0.1904 -0.1281 -0.1903
43241W        W86294  30.165  21.484   6.119 -0.0504 -0.1302 -0.1298
43242W        W86295  25.386  29.382  24.709  0.1367 -0.0013 -0.2375
43243W        W86296   3.269  16.580  25.530  0.1606 -0.0461  0.0553
43244W        W86297  21.160  29.789   2.665  0.1325 -0.0805 -0.3489
43245W        W86298  33.298  17.521   0.549  0.5603  0.1495 -0.2044
43246W        W86299  29.389  21.705  19.244  0.3243  0.1098 -0.0058
43247W        W86300  31.525   9.936  28.564 -0.2435 -0.1360  0.0297
43248W        W86301  13.425  25.821  27.792  0.2707 -0.0406 -0.0350
43249W        W86302  32.139  23.417  26.088 -0.2047  0.0412 -0.6006
43250W        W86303  27.342  33.681  18.626  0.0737  0.1961 -0.3994
43251W        W86304  15.060  11.541  18.372 -0.2616  0.0779  0.0496
43252W        W86305  30.601   2.409   6.563 -0.1925  0.0820  0.0560
43253W        W86306  23.515  15.927  27.766 -0.0591 -0.1366 -0.0871
43254W        W86307  32.188  23.857   3.318  0.0725 -0.3285 -0.1463
43255W        W86308  22.160   5.468  22.277 -0.0347  0.0518 -0.1083
43256W        W86309  12.329  14.169  10.507 -0.1893  0.1148 -0.0677
43257W        W86310  20.636  19.486  28.754 -0.1554 -0.0477 -0.1107
43258W        W86311  12.194  26.298  27.834  0.2325  0.2877  0.1265
43259W        W86312   4.455  26.328  25.591  0.2077 -0.1092  0.0694
43260W        W86313  24.113  34.557  15.520  0.3285 -0.2223 -0.0245
43261W        W86314   7.612  25.886   7.594 -0.0656 -0.2924  0.1239
43262W        W86315  25.478  23.772   9.779  0.2084  0.1761 -0.0060
43263W        W86316  31.036  24.118  14.610  0.1033 -0.0077 -0.1906
43264W        W86317   1.360  25.184   2.284 -0.0063  0.1919  0.0491
43265W        W86318  22.381   1.040   8.273 -0.0108 -0.0680  0.1310
43266W        W86319   9.730   8.114  27.650  0.0018 -0.0200 -0.4423
43267W        W86320  25.340  23.637   1.825  0.1294  0.2057 -0.3914
43268W        W86321   0.071   0.466  26.735  0.2965  0.0621 -0.2907
43269W        W86322  27.763  24.214  19.528 -0.0797 -0.1995 -0.1001
43270W        W86323  32.327  30.561  22.710  0.1436  0.0417  0.0975
43271W        W86324   2.555  22.346  19.940  0.0477  0.1085  0.0565
43272W        W86325   6.408  30.414   1.589  0.0390 -0.6023 -0.0567
43273W        W86326  15.454  33.617  22.600  0.2622  0.3168 -0.0132
43274W        W86327  31.647  14.895  28.016 -0.0976 -0.1986  0.1577
43275W        W86328  27.405  12.552   3.936 -0.0872 -0.2598  0.3253
43276W        W86329  28.236  14.618   9.416  0.0513 -0.1359  0.3205
43277W        W86330  10.069  21.376   1.391 -0.1805  0.0092  0.0160
43278W        W86331   8.176   3.004  23.920 -0.1013  0.2286  0.1823
43279W        W86332  21.826   0.784  22.077  0.0078  0.1312 -0.2431
43280W        W86333   1.301  28.446  28.436 -0.2575 -0.1078 -0.1423
43281W        W86334   9.877  31.149  26.250 -0.0914  0.0846 -0.1101
43282W        W86335  14.260  26.810  24.100 -0.1396 -0.0643  0.1588
43283W        W86336   3.797   3.070   9.100  0.0358 -0.3566  0.1606
43284W        W86337  20.997  33.543  28.206  0.2054 -0.0079 -0.0961
43285W        W86338  28.809  30.784  23.840 -0.1892 -0.5086 -0.0809
43286W        W86339   3.583  29.364  22.642 -0.0267  0.1902 -0.0187
43287W        W86340   4.972  32.889  16.267  0.4847 -0.0635  0.1090
43288W        W86341  27.486  32.540  18.042 -0.0806 -0.2516 -0.0523
43289W        W86342  31.625  22.339  26.774  0.1654  0.1535 -0.0593
43290W        W86343  17.263   9.753  14.291  0.0103 -0.2175  0.0815
43291W        W86344   0.935  26.593   0.707 -0.0341  0.0660 -0.1007
43292W        W86345  21.967  21.178  23.559  0.0999  0.0674  0.0220
43293W        W86346   9.117  13.774   7.851 -0.1194  0.0475  0.0927
43294W        W86347  26.023  29.690  25.942  0.2210  0.1272 -0.0893
43295W        W86348  10.123  29.243  24.081  0.0806  0.1129  0.0274
43296W        W86349  31.766   1.502  16.308  0.0816 -0.2485 -0.1627
43297W        W86350  26.082  31.188   1.818  0.1711  0.1782  0.4168
43298W        W86351  18.296  20.192  24.937 -0.0402 -0.0341 -0.3204
43299W        W86352   1.116  34.000   5.277 -0.1478  0.1473  0.1469
43300W        W86353  17.469  26.158  24.995 -0.0100  0.2896 -0.1296
43301W        W86354  27.584  10.462  23.442 -0.1237 -0.2337 -0.2347
43302W        W86355   2.280  17.332   1.856 -0.3243 -0.1187 -0.1435
43303W        W86356  24.585  21.379  20.596 -0.0320  0.2624  0.2975
43304W        W86357  24.442  12.784   7.522 -0.1581  0.0335  0.0328
43305W        W86358   6.966   1.373  20.270  0.2895 -0.0887  0.3824
43306W        W86359  33.643  26.566  15.500  0.2786 -0.1179 -0.1139
43307W        W86360   3.404  23.264  15.097  0.0712  0.0770 -0.0659
43308W        W86361  26.574  28.366  15.719 -0.0009  0.2899  0.0232
43309W        W86362  21.331   3.903  22.489  0.1630 -0.0954 -0.2495
43310W        W86363  12.990  18.233   3.011  0.0748  0.0327  0.1552
43311W        W86364  28.953  22.612  29.019  0.1471  0.1457 -0.0082
43312W        W86365  20.862  27.204  20.548 -0.1440  0.0235 -0.4926
43313W        W86366  20.247  25.416  29.021  0.0679 -0.1104  0.2142
43314W        W86367  33.948  18.588   7.128  0.4634  0.2514 -0.0290
43315W        W86368   2.979   0.989  21.903  0.2676 -0.0116  0.2259
43316W        W86369   4.563  30.278   0.843 -0.0973 -0.1181  0.0281
43317W        W86370   0.529  23.049  19.517 -0.1044  0.1211 -0.0425
43318W        W86371  30.367   6.843  28.931 -0.0385  0.0085  0.1854
43319W        W86372  30.517  20.248  27.715 -0.2022  0.0429  0.0834
43320W        W86373  28.223   2.103  17.464  0.2078 -0.1661 -0.0800
43321W        W86374   7.868  28.499  22.832  0.3026  0.1778  0.1603
43322W        W86375  12.518  11.339  22.337 -0.0467  0.4373  0.0247
43323W        W86376   1.048  22.966   3.109  0.0009 -0.0039  0.2591
43324W        W86377   2.713   2.928  13.133  0.3980 -0.2086 -0.0848
43325W        W86378   0.622  13.248  20.001  0.3432  0.1113  0.0283
43326W        W86379   0.416   6.958  24.633 -0.3499 -0.0315 -0.0508
43327W        W86380   7.411  28.481  23.028 -0.1229  0.1635  0.1638
43328W        W86381  30.767  26.957  23.841 -0.0257  0.2040 -0.1939
43329W        W86382  34.413  15.472  23.644  0.0847  0.0842  0.1117
43330W        W86383  17.809  26.000   0.650 -0.0788  0.0765  0.0370
43331W        W86384  25.211   0.565  14.746  0.3552  0.1402 -0.1855
43332W        W86385   0.151  23.013   8.830 -0.1052  0.4030  0.1067
43333W        W86386  27.998  26.963  15.421  0.0075  0.3403  0.0532
43334W        W86387   5.639  17.768  17.821  0.4186  0.0538  0.0439
43335W        W86388  34.351   9.714  16.851  0.1361 -0.0021  0.0714
43336W        W86389  21.393  29.341   4.661  0.0707  0.0163 -0.0309
43337W        W86390  15.211  26.360  19.755  0.3061 -0.0853 -0.2577
43338W        W86391  10.451   9.342  18.027  0.2880 -0.3915  0.0754
43339W        W86392   4.677  12.463  21.717 -0.0305 -0.3657 -0.0198
43340W        W86393  31.414  12.350  20.874  0.4734 -0.1845  0.1104
43341W        W86394  30.382  17.964  26.007 -0.1713 -0.2497 -0.4879
43342W        W86395   7.041   5.618  26.996  0.0023  0.0381  0.2026
43343W        W86396  27.621  32.387  28.189  0.0271  0.2147 -0.1358
43344W        W86397  24.991  19.736   6.250  0.0068  0.1410  0.0413
43345W        W86398  11.454   8.448   4.374 -0.2651 -0.0917 -0.3188
43346W        W86399   0.435  33.939  13.264 -0.1049 -0.0764  0.3550
43347W        W86400  31.860   6.650  21.264 -0.0050  0.0930 -0.3022
43348W        W86401  11.976  29.242  27.466 -0.1008 -0.0056 -0.1859
43349W        W86402  23.713  23.198   1.057 -0.0126  0.0062 -0.1444
43350W        W86403  31.618  30.830   8.843  0.0909  0.2456  0.2248
43351W        W86404  27.232  10.184   3.706  0.2207  0.3864 -0.0501
43352W        W86405   3.237  26.100   0.060 -0.2150 -0.0625  0.0162
43353W        W86406  25.523  26.065   7.262 -0.4197 -0.0516  0.0589
43354W        W86407   3.917  20.776  22.494  0.0273 -0.0182  0.2322
43355W        W86408  17.763   2.696  22.120  0.1337  0.1215 -0.0385
43356W        W86409  27.238  21.696   6.728  0.0980 -0.1211  0.0922
43357W        W86410  19.528  11.293  21.595  0.0040 -0.2585  0.0497
43358W        W86411  32.970  30.668  25.841  0.2213 -0.3770 -0.0459
43359W        W86412  20.198  26.729   7.571  0.0861  0.0121  0.1841
43360W        W86413  22.093   5.629  28.332  0.1600 -0.1803 -0.0195
43361W        W86414  29.539  26.373  20.149  0.0252  0.0669 -0.0380
43362W        W86415  18.357  18.674   7.388 -0.0540  0.1394  0.0475
43363W        W86416  24.576   6.421   0.688  0.1180  0.1255  0.1570
43364W        W86417  29.861  32.694  21.088  0.0259 -0.0492 -0.0967
43365W        W86418  32.333  12.219   0.968 -0.0957  0.3043 -0.1556
43366W        W86419   7.993   4.389   8.005  0.1011  0.1920 -0.3093
43367W        W86420  21.523   2.831  19.851  0.1499 -0.2362  0.1084
43368W        W86421   4.615  15.108   1.337 -0.2122  0.2851 -0.1942
43369W        W86422  28.867  27.744   6.407  0.1528  0.0398 -0.0214
43370W        W86423  21.610  31.166   9.250  0.0297  0.3166  0.2933
43371W        W86424  29.615  13.144   3.036 -0.0332 -0.1111 -0.0295
43372W        W86425  13.756  21.117   3.078  0.1697  0.1599 -0.0855
43373W        W86426   0.947  31.296   3.479  0.1463  0.0091 -0.0198
43374W        W86427  33.868  19.547   5.748  0.1365  0.1304  0.1546
43375W        W86428  20.334  23.924   1.208 -0.0120 -0.0427 -0.0786
43376W        W86429  18.203  15.529  28.879  0.1872 -0.0209 -0.0923
43377W        W86430   8.625   2.915  15.861 -0.0530 -0.2258 -0.0285
43378W        W86431  23.429  29.793  17.123  0.1813 -0.1990 -0.1320
43379W        W86432  32.674   9.321  26.375  0.0608  0.0106  0.0030
43380W        W86433  31.652  29.416  20.669  0.2310  0.1224 -0.2844
43381W        W86434  27.790  20.952  22.555 -0.4466  0.0326 -0.2054
43382W        W86435  23.130  27.247  21.404  0.0715  0.3633  0.1008
43383W        W86436  33.506  18.753  24.206  0.1706 -0.0211  0.0685
43384W        W86437  22.053   1.932  15.873 -0.2223 -0.2206  0.2824
43385W        W86438  17.957  18.618  28.064 -0.4533 -0.0264  0.0004
43386W        W86439  12.500  28.852  20.330 -0.0618  0.0599 -0.0718
43387W        W86440  27.291  25.338  22.846 -0.3336 -0.2664  0.3154
43388W        W86441  27.243  30.849  23.355 -0.1129 -0.2013 -0.0041
43389W        W86442  30.345   0.024   4.041 -0.0694 -0.0905 -0.1133
43390W        W86443   5.769  28.416   2.644 -0.1818  0.0158 -0.1414
43391W        W86444  31.581   6.178   3.678 -0.7084  0.0586 -0.2527
43392W        W86445   1.536  24.658  21.258  0.0516  0.0030  0.0186
43393W        W86446   4.476  24.743   8.951 -0.2012  0.2519 -0.1426
43394W        W86447  24.749  16.032   4.850 -0.5749  0.0349  0.0399
43395W        W86448  33.371  31.477  17.642  0.1396  0.0328  0.2404
43396W        W86449  31.395  30.997  27.004 -0.0177  0.0492 -0.0193
43397W        W86450  16.942  24.169  28.309  0.2005  0.0307  0.1071
43398W        W86451  30.539  13.139  17.994  0.0861 -0.0807  0.0130
43399W        W86452  29.364   7.731  19.819 -0.2561 -0.2940 -0.1430
43400W        W86453  10.991  21.850   8.561 -0.2810 -0.1176  0.2981
43401W        W86454  29.844  21.878  24.630 -0.1708  0.2438  0.3266
43402W        W86455  22.582  16.685   4.478 -0.1579 -0.4028  0.0527
43403W        W86456  29.561  13.994  24.020 -0.0167 -0.2352  0.2029
43404W        W86457  34.300  27.562  25.897  0.2172  0.0240  0.3149
43405W        W86458  18.355  27.153   4.223 -0.1527 -0.1251 -0.0435
43406W        W86459  26.644   1.568   1.640  0.0680  0.1450  0.4962
43407W        W86460  30.102  30.007  24.444 -0.1304  0.0942 -0.0068
43408W        W86461   5.739  19.218  18.961  0.0464 -0.0439 -0.2666
43409W        W86462   7.080  20.526   3.397 -0.2043 -0.1217 -0.0168
43410W        W86463  14.371   1.615  16.704  0.0846 -0.0260 -0.1375
43411W        W86464  31.664   8.087   5.642  0.0834  0.1564  0.1036
43412W        W86465  20.673  12.871  22.966 -0.1499 -0.0074  0.2340
43413W        W86466  18.787   3.852   1.885  0.1964  0.3377  0.2423
43414W        W86467  13.473  25.932   3.243  0.0504 -0.2888  0.0306
43415W        W86468  27.145  29.848  21.733  0.0444 -0.2813 -0.1229
43416W        W86469  32.522  31.914   4.069 -0.0454  0.1826  0.1021
43417W        W86470  30.685   1.815   9.067 -0.0507 -0.1879  0.0070
43418W        W86471  20.155  32.158  19.409 -0.2140 -0.1929  0.0731
43419W        W86472  13.275  23.312  24.163  0.0568 -0.3244 -0.0259
43420W        W86473   4.803  28.476  27.749 -0.2387 -0.1701  0.0587
43421W        W86474  23.080   2.806  16.021 -0.0584  0.1506 -0.1053
43422W        W86475  12.963   2.618  21.317 -0.1710  0.0386 -0.2432
43423W        W86476  32.076  30.178  22.546  0.0970 -0.2887  0.0769
43424W        W86477  34.434  28.768   4.706  0.0090  0.0222 -0.0270
43425W        W86478  25.604  30.030  18.816 -0.0750 -0.1373 -0.2139
43426W        W86479  34.241  12.018  28.257  0.1867 -0.1004  0.2450
43427W        W86480   7.392  31.893   4.637  0.1581 -0.1335 -0.0966
43428W        W86481  27.103   7.427  15.802 -0.0867 -0.0357  0.3646
43429W        W86482   1.153  25.340  17.110 -0.1450  0.0610  0.0294
43430W        W86483  19.251  27.231   3.768 -0.1199 -0.2879 -0.4307
43431W        W86484  31.403  26.886  22.854 -0.0856  0.3096 -0.1059
43432W        W86485  27.018  22.996  10.279 -0.0277  0.1688  0.2004
43433W        W86486  30.710   2.048  19.925  0.2112  0.1406 -0.0106
43434W        W86487  19.142   4.748   3.554 -0.0372  0.2643 -0.0528
43435W        W86488  12.125  28.116  22.560 -0.0542  0.1439  0.2301
43436W        W86489  31.210  18.816  23.608 -0.1848 -0.1649  0.0067
43437W        W86490  11.828  15.518  29.052  0.2931 -0.3063  0.0421
43438W        W86491   6.111  30.090  27.295 -0.2340 -0.2588 -0.1810
43439W        W86492  24.403  27.886  25.953  0.1801  0.0509 -0.1235
43440W        W86493  27.215  31.058  24.354  0.5782 -0.2433  0.2176
43441W        W86494   0.803  23.100  23.929  0.0770 -0.0448 -0.0569
43442W        W86495   4.353   4.300   7.556  0.0641 -0.4051  0.2079
43443W        W86496  31.983  21.433  20.906  0.1276  0.2905  0.1954
43444W        W86497  27.465  23.131   6.600  0.1366  0.0968  0.0803
43445W        W86498  20.260   1.623  25.282 -0.1012 -0.1746 -0.5319
43446W        W86499  32.869   4.150  21.831 -0.2684 -0.2562  0.3405
43447W        W86500  32.636  20.816  25.293  0.0851 -0.1463 -0.0584
43448W        W86501  14.188  17.469   6.372 -0.1704 -0.2129 -0.3280
43449W        W86502  16.183  25.246   6.044 -0.2696  0.0577 -0.1751
43450W        W86503  11.186  23.848   0.134 -0.1181  0.0639  0.2015
43451W        W86504   2.166   3.631  21.612 -0.0993  0.2504 -0.1591
43452W        W86505  34.197  33.824   8.095 -0.0055 -0.1334 -0.1527
43453W        W86506  19.238  29.180  21.047 -0.1501  0.0329 -0.0594
43454W        W86507  25.555   3.130  16.204  0.0540  0.0971 -0.1764
43455W        W86508  24.451  32.744  27.785 -0.0910  0.1793  0.2264
43456W        W86509  26.905   5.072  18.605 -0.0206  0.2576  0.0033
43457W        W86510  32.489   2.158  14.393 -0.1006 -0.2249  0.0440
43458W        W86511  15.931  18.661  24.319 -0.0791 -0.2166  0.0930
43459W        W86512  13.741  11.685   7.042  0.1579  0.5423  0.0275
43460W        W86513  29.313  34.443  22.982  0.0783 -0.1836 -0.1635
43461W        W86514  13.636  20.699  28.234  0.0255  0.0720 -0.0859
43462W        W86515   9.546   0.009   7.645 -0.1223 -0.0547 -0.1957
43463W        W86516   1.519  30.565  27.639  0.0216  0.0401  0.2651
43464W        W86517  10.539   0.652   7.201 -0.1510 -0.0014  0.1201
43465W        W86518   3.486  31.298  24.157  0.1333  0.1882  0.2080
43466W        W86519  24.823  13.997   7.121 -0.0278  0.4887 -0.4083
43467W        W86520  11.409   5.091  20.522 -0.1268 -0.0628 -0.1048
43468W        W86521   6.341  13.807  24.054  0.1007  0.0195  0.0089
43469W        W86522  21.333  11.984   8.877  0.0901 -0.0286  0.1173
43470W        W86523  22.931  16.366   5.312 -0.4441 -0.0656 -0.2133
43471W        W86524   6.602  14.853   1.566 -0.1497  0.0149 -0.0436
43472W        W86525   5.464  25.090  18.455  0.1669 -0.0252 -0.1837
43473W        W86526  29.566   2.135  22.219  0.1088  0.2021  0.2228
43474W        W86527  17.214  24.062  22.103 -0.1823  0.2826 -0.1518
43475W        W86528   0.708  28.500   6.564  0.0807 -0.0570  0.0377
43476W        W86529  24.665  26.005   8.252 -0.1339  0.3452  0.0657
43477W        W86530  28.127  33.789   6.848 -0.0764 -0.0916 -0.3151
43478W        W86531  31.159  23.197  17.863  0.2527 -0.1452  0.1176
43479W        W86532  30.763   2.457   3.985 -0.1274  0.0586  0.0948
43480W        W86533  22.246   9.915   3.525 -0.3071  0.0634  0.0520
43481W        W86534  30.893   4.567   1.712 -0.2825 -0.1164 -0.1337
43482W        W86535  22.969  20.312  23.248  0.1048 -0.0745 -0.1627
43483W        W86536   8.047  29.591  19.647 -0.0230 -0.0247  0.0075
43484W        W86537  27.769  14.311   1.187 -0.5681 -0.2977  0.2684
43485W        W86538  22.955  21.666   5.390  0.2550 -0.2753  0.2675
43486W        W86539  31.025   8.574  23.780  0.0647 -0.1693 -0.1674
43487W        W86540  20.666  26.676   9.283  0.4213 -0.2051 -0.1774
43488W        W86541  29.987  21.107  13.834 -0.0595  0.0225  0.2430
43489W        W86542  32.819  33.091   1.784 -0.1005  0.0534  0.3302
43490W        W86543  30.089  28.259   7.733 -0.1594 -0.2305  0.1192
43491W        W86544  31.845  28.985   4.873  0.1335 -0.1183  0.0771
43492W        W86545   2.324  34.435  17.943 -0.1247  0.0047  0.0331
43493W        W86546   6.407   5.870   4.371 -0.0078 -0.4752 -0.1402
43494W        W86547  23.313  21.787   2.910  0.3123 -0.1011  0.1695
43495W        W86548  30.126   4.076   7.499 -0.2109  0.0988  0.0390
43496W        W86549  34.496  28.045  21.766  0.1286  0.2502 -0.0441
43497W        W86550  34.204   0.679  23.430 -0.3109  0.1549 -0.1515
43498W        W86551  30.881  22.636  16.579  0.0246 -0.0361  0.1292
43499W        W86552  30.848   9.170   9.380  0.0991  0.0067 -0.0917
43500W        W86553  11.494  27.367   6.992  0.3660 -0.0467  0.0143
43501W        W86554  17.951  27.475   5.126 -0.2258  0.1733 -0.2000
43502W        W86555  29.634  26.742  24.609  0.0389  0.3433 -0.3958
43503W        W86556   6.445  28.210   0.412 -0.3295 -0.2397  0.2220
43504W        W86557  28.599   0.377   2.309  0.4352 -0.1880 -0.2662
43505W        W86558  25.360  26.728   7.530 -0.1121 -0.1686 -0.1351
43506W        W86559   6.772  34.429  14.267  0.3011  0.0001 -0.0396
43507W        W86560  22.507  21.384   2.292 -0.1407  0.2132  0.1142
43508W        W86561  21.403  12.233  21.047  0.2148 -0.0980 -0.0958
43509W        W86562  32.228  27.621  13.847 -0.6677  0.1608 -0.2513
43510W        W86563  31.160   7.084  20.367  0.2689  0.3635  0.0164
43511W        W86564  30.350  30.016  17.652 -0.0434  0.1573  0.3937
43512W        W86565  17.870  23.077   7.557  0.1867 -0.5475 -0.0795
43513W        W86566  25.045  27.608   5.236  0.1650 -0.0726 -0.2156
43514W        W86567  27.045  29.710  24.555  0.2633  0.2147 -0.0644
43515W        W86568  29.412  32.635   4.107 -0.0022 -0.0659 -0.0780
43516W        W86569   4.415   2.680  17.258 -0.2684  0.2167  0.1316
43517W        W86570  29.525   2.603  27.668  0.0154  0.0898 -0.2398
43518W        W86571   4.220  17.461  27.028 -0.1646  0.2855  0.3956
43519W        W86572  25.456   2.332  15.087 -0.0077 -0.0425 -0.0172
43520W        W86573   4.892  18.512  19.013 -0.2132 -0.3841  0.3521
43521W        W86574  11.351  27.019  23.102 -0.0872  0.0771 -0.0250
43522W        W86575  15.240   0.473  28.366 -0.1359  0.1343  0.3641
43523W        W86576  16.179  27.851  25.831  0.0595  0.0266  0.2026
43524W        W86577  30.184   4.133  25.823  0.0664  0.4598 -0.0175
43525W        W86578  25.240   4.135  25.452 -0.0853 -0.1222  0.0594
43526W        W86579   1.522  33.343  17.361  0.2079 -0.0221 -0.1583
43527W        W86580   3.525   3.768  20.364 -0.2925 -0.0967 -0.0455
43528W        W86581   2.292  24.944  18.483  0.2967  0.0540  0.0093
43529W        W86582   7.987   6.716   0.919 -0.2296 -0.1337  0.0753
43530W        W86583  27.265  32.562  16.423 -0.0277  0.1625 -0.1327
43531W        W86584  23.154  30.558  19.154  0.0128 -0.1336 -0.1604
43532W        W86585   5.914  13.301  24.697 -0.3260  0.1366 -0.3174
43533W        W86586  19.240  18.129  25.022 -0.0515 -0.2802 -0.0932
43534W        W86587  33.256  27.733  24.768  0.0105  0.0032  0.3836
43535W        W86588   6.944  30.255  25.394 -0.0811  0.1405  0.1913
43536W        W86589   0.644  13.299   5.155  0.1885  0.1363  0.1137
43537W        W86590  32.549  19.582  19.949 -0.0097  0.0554 -0.0018
43538W        W86591  12.252   4.968   3.020  0.3271  0.1455  0.3899
43539W        W86592   9.717  33.566  21.214  0.2317 -0.2366  0.0931
43540W        W86593   9.812  29.124  18.795  0.0072 -0.1476  0.1718
43541W        W86594  32.862   3.661  17.838 -0.0747 -0.1980  0.0153
43542W        W86595  22.525  25.174  14.823 -0.0537  0.0624 -0.3139
43543W        W86596   2.260  22.120  15.638 -0.1021 -0.0625  0.3622
43544W        W86597  20.822  31.387  21.688  0.3900  0.0336 -0.0120
43545W        W86598  27.891  29.911  19.354  0.3478 -0.3126  0.3132
43546W        W86599   3.305   2.763  23.529 -0.2075  0.0121 -0.0084
43547W        W86600  32.312  29.885  21.117 -0.3055  0.0373  0.3203
43548W        W86601  17.333  11.183  20.741  0.0709  0.0323  0.2441
43549W        W86602  25.677   3.202  14.088 -0.0460 -0.0071 -0.0286
43550W        W86603  34.458   0.713  22.940  0.0513 -0.0666 -0.1104
43551W        W86604   1.375  31.162   2.163 -0.2217 -0.2073 -0.2658
43552W        W86605  19.635   2.094  18.094 -0.1689 -0.0356  0.0222
43553W        W86606  27.433  23.810  17.537 -0.0438  0.0094 -0.0410
43554W        W86607   1.928   1.288  20.202 -0.1706 -0.1847  0.0200
43555W        W86608  28.794  34.573  21.265  0.1398  0.3294  0.1760
43556W        W86609   1.467   1.083  17.387 -0.1299  0.3172  0.1418
43557W        W86610  25.539  12.587   4.994 -0.0908  0.1826  0.1277
43558W        W86611  28.582  27.492   0.031  0.1921  0.2698  0.1880
43559W        W86612  21.714  22.271  19.934  0.0292  0.0024 -0.0586
43560W        W86613  28.486   5.184  22.542 -0.0393 -0.1281 -0.2926
43561W        W86614   8.941   3.659  14.617  0.0043  0.2446  0.1994
43562W        W86615  10.132  22.479  20.551  0.0646  0.1320  0.0745
43563W        W86616   8.806  31.286  18.732  0.2721  0.1249  0.2135
43564W        W86617  28.269   5.862  21.143 -0.4654 -0.0844 -0.0249
43565W        W86618  34.074   2.251  21.826  0.0232 -0.1578 -0.2647
43566W        W86619  26.716  13.712  17.505 -0.2362  0.4723 -0.3798
43567W        W86620  33.770  13.531  20.815 -0.1403  0.0503 -0.0778
43568W        W86621  25.038  26.974   5.211 -0.0867 -0.2596  0.0860
43569W        W86622  15.031   1.414  16.113 -0.3879 -0.2015 -0.1551
43570W        W86623  14.896   0.172  28.127 -0.1665 -0.1343 -0.2081
43571W        W86624   7.303  18.128  23.575  0.2862 -0.3793  0.2838
43572W        W86625   7.526  27.863  19.701 -0.2924 -0.3923  0.4783
43573W        W86626  27.204  33.397  21.481  0.2971 -0.0158  0.1576
43574W        W86627   1.475   1.771  18.144 -0.0725 -0.0460 -0.1083
43575W        W86628  31.443  29.406  18.919 -0.1297 -0.1475 -0.2346
43576W        W86629  26.341  32.937  21.103 -0.1913  0.0119  0.4673
43577W        W86630  17.033   3.980  22.409  0.0717  0.3363 -0.0429
43578W        W86631   2.203  30.507   3.807  0.0222 -0.0846  0.0933
43579W        W86632  33.515  32.533  13.829 -0.2710 -0.0911 -0.1016
43580W        W86633   3.088  29.512  21.089 -0.3163  0.1094 -0.1363
43581W        W86634  12.608   3.235  23.034  0.1709  0.2597 -0.0644
43582W        W86635   9.280  13.610  21.523  0.1498  0.1700 -0.2234
43583W        W86636  26.153  11.366  17.232 -0.1511  0.2732  0.0286
43584W        W86637  31.274  29.986  21.527 -0.1599  0.1133 -0.4417
43585W        W86638  19.668   7.576  25.820 -0.2385  0.1433  0.0518
43586W        W86639  23.963   2.347  22.655  0.0450  0.1480 -0.1577
43587W        W86640  10.730  28.524  21.080  0.1883  0.0895 -0.3497
43588W        W86641  28.430  29.226  24.400 -0.0489  0.1199 -0.0661
43589W        W86642   2.268   6.892  28.739 -0.1014 -0.1949  0.1672
43590W        W86643   3.370   0.548  14.303 -0.1669 -0.1090  0.0689
43591W        W86644  33.480  26.886  15.946 -0.1116 -0.4078  0.2360
43592W        W86645  33.852   9.000  19.224 -0.2586 -0.1214  0.2613
43593W        W86646  13.973  31.717  22.650 -0.1759  0.0821 -0.1177
43594W        W86647   2.054  15.383  23.294 -0.0913  0.1474  0.3879
43595W        W86648  22.407   1.882  19.362 -0.0153 -0.0641 -0.1110
43596W        W86649   3.470   0.997  14.036 -0.2397  0.0645 -0.0097
43597W        W86650  29.651   4.058  28.716 -0.1146 -0.1580  0.0891
43598W        W86651  21.338  28.988  23.023  0.2102  0.0490  0.1373
43599W        W86652  20.486  32.564  14.984 -0.0957  0.2819  0.1398
43600W        W86653   6.222  21.362  25.306 -0.0070 -0.0656 -0.2893
43601W        W86654  26.249  34.579  14.760  0.2638 -0.1670 -0.0058
43602W        W86655  25.894  30.251   0.536  0.0339 -0.0594  0.1217
43603W        W86656   7.799  33.004  20.564  0.2772 -0.1302 -0.1777
43604W        W86657  19.035  33.270   5.950  0.0805 -0.1627 -0.1720
43605W        W86658   1.500   5.003  27.236  0.2159 -0.0038 -0.0416
43606W        W86659  27.265  21.681  15.993 -0.3987 -0.1991  0.3749
43607W        W86660  16.439  25.384   5.558 -0.2066 -0.2219 -0.0085
43608W        W86661  31.714  29.661  16.221 -0.1159  0.1754 -0.1116
43609W        W86662   8.414  30.729  17.586 -0.0390  0.0693  0.0015
43610W        W86663  27.020  12.406  16.777 -0.0271  0.1137 -0.2106
43611W        W86664  25.403   2.287   7.585 -0.2153 -0.0716  0.1276
43612W        W86665  26.374  19.769  25.737 -0.3477  0.0428 -0.1177
43613W        W86666  26.324  11.777  16.936  0.0429 -0.2430 -0.0540
43614W        W86667   1.680  16.701   7.074 -0.0251  0.1498 -0.1307
43615W        W86668   1.393  22.553  20.707 -0.4995 -0.1139 -0.0863
43616W        W86669  21.998  11.893   3.136  0.1152  0.1087  0.1082
43617W        W86670  30.864  26.998  18.913 -0.3615 -0.3829 -0.2094
43618W        W86671  17.283  22.950  27.231  0.1439 -0.2335 -0.1053
43619W        W86672  30.800  33.918  21.123  0.0321  0.1209  0.0832
43620W        W86673  28.973   8.131  28.346  0.1724  0.0379  0.5226
43621W        W86674  19.244  34.040  28.816  0.1759 -0.3656 -0.0897
43622W        W86675  24.125  33.780  21.555  0.0049  0.0105  0.0657
43623W        W86676  27.848   4.534  19.421  0.0610 -0.0319 -0.0815
43624W        W86677  22.968   3.233  19.383  0.3946 -0.2057  0.0572
43625W        W86678   4.700  25.340  18.882  0.0973  0.1154 -0.2356
43626W        W86679  16.064   6.820  23.951  0.0238  0.1703  0.1456
43627W        W86680  29.101  19.665  21.942  0.0635 -0.0993  0.3534
43628W        W86681  32.562   2.076  24.565  0.0660  0.0915  0.3916
43629W        W86682  31.907   6.857  17.287  0.0557  0.0788  0.1406
43630W        W86683  32.853  28.002  21.171  0.0746 -0.0681  0.1990
43631W        W86684  12.600  30.979  23.204 -0.1663  0.2290 -0.2522
43632W        W86685  20.777  11.951  22.709  0.0953  0.0931  0.2647
43633W        W86686  27.855  24.361  20.242  0.0716  0.1043  0.0232
43634W        W86687   2.127  11.701  23.891  0.2893 -0.1085  0.1288
43635W        W86688   6.562   2.361  29.006 -0.0485  0.1238 -0.0846
43636W        W86689  29.664  23.848  16.787  0.2151  0.0548  0.0378
43637W        W86690   2.762  27.112  25.194 -0.0353  0.1534  0.1321
43638W        W86691   5.139  13.233   4.231  0.0207 -0.0992  0.0194
43639W        W86692  15.978  29.979  24.124  0.0200  0.0949  0.0001
43640W        W86693   3.200   2.356  21.104 -0.3032 -0.2247  0.1193
43641W        W86694  25.951  25.260  16.838  0.0581  0.0236  0.3039
43642W        W86695  22.112  27.472  25.017  0.3072 -0.1066  0.0119
43643W        W86696  22.035  17.699  23.620  0.3280  0.0101 -0.0953
43644W        W86697  34.355   6.741  21.556 -0.1783 -0.0038  0.1611
43645W        W86698   7.192  21.081  19.858  0.2083  0.0655  0.1105
43646W        W86699   3.151  22.956  22.645 -0.1425  0.2029 -0.2443
43647W        W86700   3.865  27.153  20.341  0.2249 -0.1576  0.2240
43648W        W86701  21.224   7.003  24.305 -0.3853 -0.2155  0.1420
43649W        W86702   9.322  27.359  22.121 -0.2484  0.0286 -0.0105
43650W        W86703  23.060  32.767   3.063 -0.1705 -0.0566 -0.1976
43651W        W86704  26.209   1.579  25.384 -0.2535  0.0113  0.2445
43652W        W86705  28.589  29.643  14.309  0.2981  0.3036  0.4713
43653W        W86706  23.332  16.329  13.779 -0.0651 -0.1208  0.0558
43654W        W86707  33.789  16.094  25.693 -0.0055  0.1126 -0.2089
43655W        W86708   7.675   1.434  24.702  0.0068  0.0602  0.1353
43656W        W86709  22.973   5.071  23.903 -0.2424  0.2055 -0.1627
43657W        W86710   3.843  31.358  15.777 -0.1578 -0.0178 -0.1016
43658W        W86711  32.943  32.909  18.513  0.0764 -0.1079  0.4225
43659W        W86712  34.012  15.405  28.012  0.0275 -0.0152 -0.1234
43660W        W86713  29.758  10.368  16.623 -0.5183  0.1542  0.2160
43661W        W86714  28.932  31.428  19.027 -0.1059  0.0786  0.0502
43662W        W86715   0.578  20.790  16.517 -0.2543 -0.1866 -0.2914
43663W        W86716   5.131  26.901  18.805  0.1014 -0.0454 -0.1300
43664W        W86717  23.167   8.847  28.256 -0.0384 -0.1333  0.3417
43665W        W86718   0.532  34.430  15.056 -0.2344 -0.3240 -0.1429
43666W        W86719   2.531  25.838  14.641  0.0649 -0.1099 -0.0347
43667W        W86720  10.386  26.829  27.279  0.0902 -0.0114  0.3399
43668W        W86721  25.412  27.349  21.901  0.1840 -0.2087 -0.0537
43669W        W86722  11.642   6.171  15.287  0.4559 -0.1783 -0.0962
43670W        W86723  30.262  32.189  19.849 -0.0244 -0.0322 -0.4446
43671W        W86724   3.326  25.158  27.171  0.0184 -0.1333  0.2730
43672W        W86725   3.029  26.155  14.796  0.4235  0.2297 -0.1666
43673W        W86726   1.743  19.330   1.793  0.0489  0.1822 -0.0010
43674W        W86727  15.118  28.164  16.698 -0.0925 -0.2970  0.0507
43675W        W86728  21.697   3.768  26.650  0.0219  0.1595  0.0125
43676W        W86729  23.169  21.091  22.338  0.2263  0.2040 -0.1155
43677W        W86730  27.721  31.975  27.709  0.1679  0.0570  0.0126
43678W        W86731  11.801  20.301  25.597  0.0438  0.2969  0.0421
43679W        W86732  20.286  30.025  22.106 -0.0482 -0.1507 -0.1264
43680W        W86733  31.457  29.172  16.379  0.0028  0.1224  0.0363
43681W        W86734  24.928  22.346  20.484 -0.2716  0.3146 -0.0572
43682W        W86735  30.060  32.309  14.874  0.2494 -0.2455  0.2144
43683W        W86736  23.357  22.923  17.784  0.3079 -0.1315 -0.3048
43684W        W86737   0.710  33.407  26.910  0.4754  0.0715  0.0784
43685W        W86738  30.550  29.740  28.166 -0.0079  0.1649 -0.0666
43686W        W86739   2.447  10.605  19.718  0.1259 -0.2284  0.1748
43687W        W86740  34.484  20.734  26.426 -0.4438 -0.0558  0.1511
43688W        W86741   4.608   3.247  18.797 -0.1914  0.0884 -0.0303
43689W        W86742  16.541   3.875  21.229  0.0478  0.1762 -0.0838
43690W        W86743  33.048  25.017  27.899 -0.5159 -0.1212  0.0208
43691W        W86744  28.576  21.644  19.597  0.0186  0.1377  0.2376
43692W        W86745  31.613  29.883  25.497 -0.2013  0.3612 -0.0965
43693W        W86746  27.812  33.931  21.024  0.1134  0.0364  0.0627
43694W        W86747   4.244   0.131  17.856 -0.3792 -0.0825 -0.0148
43695W        W86748  27.908   3.417   2.772  0.3750 -0.0277  0.1661
43696W        W86749  32.729  24.608  15.605 -0.0039  0.0962 -0.0120
43697W        W86750  15.929   6.994  18.537 -0.1290 -0.0209 -0.0437
43698W        W86751  11.638  29.666  26.338  0.1146 -0.1894  0.2266
43699W        W86752  15.425   1.966  14.516 -0.0403 -0.1971 -0.1207
43700W        W86753  10.081  29.075  14.707 -0.4655 -0.1001 -0.2442
43701W        W86754   2.797  34.639   7.378  0.1811 -0.0108  0.3481
43702W        W86755  25.016  28.362  13.465 -0.4804 -0.2086 -0.0879
43703W        W86756  20.367   3.249  16.365  0.1300  0.0985 -0.1215
43704W        W86757   0.236  28.445   0.956  0.1213  0.0895 -0.1512
43705W        W86758  27.747   6.981  20.151 -0.0443  0.0311 -0.1105
43706W        W86759  23.614   8.494  24.314 -0.0963  0.0070 -0.3910
43707W        W86760  16.360  30.383  25.243  0.1050  0.1915  0.2374
43708W        W86761  32.788  17.657  24.547 -0.1750 -0.1080  0.2128
43709W        W86762  27.596  24.270  22.038  0.3679 -0.2871  0.0957
43710W        W86763  22.741  26.926   3.093 -0.0394 -0.2020  0.0706
43711W        W86764   4.751   6.627  25.141 -0.2309  0.1033 -0.2672
43712W        W86765  33.425   9.642  22.229 -0.0058  0.0124 -0.0776
43713W        W86766   3.444  27.186  16.256 -0.0947  0.2159  0.0085
43714W        W86767  27.517  23.126   5.291  0.0728 -0.0156  0.1754
43715W        W86768  20.102   4.551  18.968  0.0734 -0.2234  0.0762
43716W        W86769  34.404  29.771   2.135  0.0951  0.0496  0.0410
43717W        W86770   3.199  28.714  25.487 -0.1540  0.4515 -0.0294
43718W        W86771  23.901  32.348  20.014 -0.0745 -0.2135 -0.1718
43719W        W86772  24.779  31.394  19.749  0.1041 -0.1219 -0.0070
43720W        W86773  20.622  20.877  15.976  0.2036  0.0085  0.1728
43721W        W86774  22.431  32.562  19.069  0.1334  0.2121 -0.2808
43722W        W86775  24.818   9.525  21.009 -0.0481  0.0349 -0.1929
43723W        W86776   2.462  25.945   0.555  0.1676  0.0886  0.0690
43724W        W86777  10.513   3.564  14.840  0.0320 -0.4619  0.0966
43725W        W86778  32.807   7.924  26.130 -0.2074 -0.0578 -0.0139
43726W        W86779  10.659   0.091  23.460 -0.0233 -0.2529 -0.1280
43727W        W86780  19.556  33.141  16.400 -0.4233  0.1518 -0.0139
43728W        W86781  19.404  31.868  19.733 -0.0159  0.0192 -0.0551
43729W        W86782  27.446  33.355  14.087  0.2085  0.2321  0.2951
43730W        W86783  23.398  13.770  17.329  0.2482 -0.1545  0.0041
43731W        W86784  33.726   1.902  24.099  0.0442  0.0973  0.1187
43732W        W86785  22.748  10.820  16.107  0.2476  0.1502  0.2130
43733W        W86786  20.212  23.386  15.345 -0.0405 -0.3100 -0.1419
43734W        W86787  30.604  20.838  27.065 -0.2998  0.0682 -0.0311
43735W        W86788  18.965   0.836  24.385  0.1362 -0.4157 -0.2161
43736W        W86789  30.836  29.973  16.583 -0.2299 -0.0549  0.0404
43737W        W86790  33.056  27.750  17.517  0.0011 -0.3367  0.1358
43738W        W86791   1.888  31.765  16.608  0.2061 -0.3837  0.2253
43739W        W86792  30.981  32.120  18.528 -0.0945  0.1031 -0.0057
43740W        W86793  28.565  32.042  16.525 -0.0350 -0.2513 -0.1153
43741W        W86794  34.148  10.858   4.297 -0.1191  0.1357 -0.1429
43742W        W86795  23.461   0.270  20.027 -0.1163 -0.1953 -0.0374
43743W        W86796  27.760   5.273  18.085  0.2257 -0.1448 -0.0026
43744W        W86797  33.789  12.607  15.843 -0.1500  0.0944  0.1193
43745W        W86798  24.143   8.730  13.481  0.1038  0.0128 -0.1111
43746W        W86799  16.064   8.964  27.886  0.0758 -0.0545 -0.0722
43747W        W86800   7.384   0.368  20.547 -0.0765  0.1309 -0.0904
43748W        W86801  22.571   4.869  22.622  0.2378 -0.2234 -0.0719
43749W        W86802  21.439   3.447  22.307  0.0571 -0.2413  0.1213
43750W        W86803  14.717  29.509  21.450 -0.0883 -0.2294  0.0124
43751W        W86804  30.080  26.347  17.733 -0.0464 -0.1823  0.1475
43752W        W86805   6.105  22.557   4.926 -0.2234  0.1496 -0.0388
43753W        W86806  18.911  31.423  14.853  0.0973 -0.1431 -0.2746
43754W        W86807  16.952  29.883   4.308 -0.3399  0.0750 -0.0949
43755W        W86808   5.432  31.836  13.923  0.3042  0.0528 -0.2408
43756W        W86809   2.324  24.032  16.672 -0.0878  0.0119 -0.0110
43757W        W86810  31.119  26.442  17.841  0.0782 -0.1279 -0.0624
43758W        W86811  27.237  27.987  17.561  0.1676  0.2004 -0.1711
43759W        W86812  32.766  15.320   8.778  0.0496 -0.0780  0.1209
43760W        W86813  27.196   3.300  15.794 -0.2028  0.2495  0.1842
43761W        W86814  16.465   6.999  18.589  0.2878  0.1505  0.1828
43762W        W86815  33.359  25.700  20.672  0.2583  0.0860  0.0545
43763W        W86816  15.893  32.313  23.541 -0.0172 -0.0511 -0.0916
43764W        W86817  31.084   0.597  22.364  0.6003 -0.1535  0.2159
43765W        W86818  26.583  12.659  20.219  0.0027  0.1927 -0.3953
43766W        W86819  33.633   4.510  19.783 -0.2733  0.0030  0.0853
43767W        W86820  17.827   0.015  23.201 -0.0793  0.4560  0.3620
43768W        W86821  22.065  24.969  27.030  0.2783 -0.0269 -0.1553
43769W        W86822   2.219  24.214  17.674  0.1174  0.1720 -0.2480
43770W        W86823   7.493   7.415  27.188 -0.2849 -0.0013  0.3042
43771W        W86824  17.457  25.408  16.365  0.1259  0.0308  0.1741
43772W        W86825  21.946  20.560  21.711  0.0973  0.1276 -0.0211
43773W        W86826  12.580  24.659  26.979 -0.1608 -0.0222 -0.1451
43774W        W86827   6.097  19.455   6.493  0.0637  0.1723  0.1744
43775W        W86828  25.450  32.133  16.158  0.5825 -0.1938 -0.1301
43776W        W86829  22.731   6.622  20.800  0.4051 -0.0454 -0.1258
43777W        W86830  24.263  25.569  16.604 -0.1316  0.1212 -0.1735
43778W        W86831  32.069  23.894  22.051 -0.0535 -0.0803 -0.0269
43779W        W86832  23.364  24.917  26.467  0.4966 -0.1431 -0.1513
43780W        W86833  19.459   3.346   6.662 -0.0953 -0.2101  0.1245
43781W        W86834   2.407  30.847  14.768 -0.1973 -0.0238  0.1212
43782W        W86835   6.712  32.844  25.780 -0.1248 -0.0598  0.1905
43783W        W86836  25.524  19.064  19.044 -0.1108 -0.1239  0.2138
43784W        W86837   1.309  20.791  26.232 -0.0192 -0.1829  0.1718
43785W        W86838   0.968  17.197  15.978 -0.0954 -0.4718 -0.1194
43786W        W86839  33.026   0.352  18.963 -0.2797  0.2794  0.0200
43787W        W86840  10.995  15.585  22.712  0.3156 -0.3768  0.2332
43788W        W86841  27.318   3.411  16.310 -0.0238 -0.1547  0.2664
43789W        W86842   1.411  19.476  24.637  0.0424  0.0463  0.0360
43790W        W86843   7.106   1.271   3.374  0.0230 -0.1783  0.1437
43791W        W86844   9.128   3.527   8.370 -0.0034  0.1038  0.1603
43792W        W86845   2.191  31.723  28.859  0.0561 -0.1592 -0.0832
43793W        W86846   5.411  23.160  26.686 -0.2762  0.3320 -0.2778
43794W        W86847  18.830  34.383  16.745  0.0980  0.1108  0.1610
43795W        W86848   5.914   9.457  16.818  0.0555 -0.1338 -0.1390
43796W        W86849  14.149  25.556  15.290 -0.3928 -0.2609 -0.0748
43797W        W86850   4.294   0.413  22.360  0.3538 -0.1388 -0.1008
43798W        W86851   3.262  27.625  13.744  0.2021 -0.0536  0.1540
43799W        W86852  16.100  30.042  14.950  0.1390 -0.0100  0.3307
43800W        W86853  18.134  32.866  24.800 -0.2838  0.0380  0.0376
43801W        W86854  30.621   6.896   6.049 -0.2902 -0.0980 -0.0954
43802W        W86855  24.050   6.552  14.845 -0.0517  0.1183 -0.0651
43803W        W86856  27.257  26.732  19.765  0.1732 -0.1771  0.0657
43804W        W86857   0.787  23.942  19.558 -0.0041 -0.1619  0.0175
43805W        W86858  34.628  31.317  16.643 -0.1707 -0.1941  0.0254
43806W        W86859  29.612   9.673  18.282  0.1363 -0.0027 -0.0268
43807W        W86860  16.511  32.269  19.873 -0.2784 -0.3077  0.1112
43808W        W86861  16.604   2.228  27.694  0.1281  0.2296  0.0627
43809W        W86862  28.480  24.701  14.175  0.0115  0.2842  0.3098
43810W        W86863   8.491  28.818  17.480  0.2214  0.1503  0.0589
43811W        W86864  32.935  24.801  24.344 -0.0790  0.0054  0.0213
43812W        W86865   7.963  27.094  18.923  0.1356 -0.1403  0.0174
43813W        W86866   6.294   3.352   2.144 -0.4531  0.2774  0.0210
43814W        W86867  24.865  25.450  21.657  0.0150  0.0935  0.2094
43815W        W86868  23.064   1.955  16.730 -0.1397  0.0347 -0.3731
43816W        W86869  28.032  29.835  21.483 -0.1261  0.0080 -0.0969
43817W        W86870   7.671   9.521  16.314  0.0627 -0.0352 -0.3495
43818W        W86871  27.326   0.386  18.708 -0.0294  0.1031  0.0270
43819W        W86872  23.564  29.650   1.661  0.1203  0.1719  0.1093
43820W        W86873   3.455  33.035   1.009 -0.0819  0.1700  0.1072
43821W        W86874  11.797  22.354   4.977 -0.0778 -0.0432 -0.0678
43822W        W86875  19.731  22.621  17.159  0.3982 -0.0365 -0.2838
43823W        W86876  13.070  34.261  16.293  0.2329 -0.1716 -0.2904
43824W        W86877  28.583  32.776  16.468  0.1725  0.0345  0.1739
43825W        W86878  24.542  33.736  16.436  0.0674  0.1271  0.0460
43826W        W86879  26.385  28.228  18.827 -0.1822  0.5611 -0.2355
43827W        W86880  23.223  20.539  19.989  0.0946 -0.0895  0.0503
43828W        W86881   4.130  28.391  22.985 -0.1040 -0.2179  0.1724
43829W        W86882   5.654   5.110   9.192 -0.1748 -0.2070 -0.3715
43830W        W86883  21.457  32.855  17.137 -0.0805  0.0327 -0.0018
43831W        W86884   6.994  32.953  23.703 -0.0926 -0.0419 -0.2756
43832W        W86885  22.848  32.598  17.724  0.0385 -0.0466  0.2533
43833W        W86886  21.401  32.469  27.172 -0.0675  0.1132  0.1738
43834W        W86887  19.241  34.112  17.630  0.2595 -0.1045 -0.3363
43835W        W86888  29.221  15.456   0.550  0.2182 -0.0299 -0.2843
43836W        W86889  26.162  24.120  24.411  0.0039 -0.0788  0.0464
43837W        W86890  18.636  19.103   0.259 -0.0077 -0.3651  0.2668
43838W        W86891  16.505  30.899  21.061 -0.4080  0.1260  0.0600
43839W        W86892  14.666  34.096  24.213  0.0649  0.1171 -0.0759
43840W        W86893   4.138   9.374   2.027 -0.1114  0.1867  0.1993
43841W        W86894  22.058  18.548  15.849  0.0793  0.0318 -0.1553
43842W        W86895  13.301   4.538  19.142  0.3579  0.0288 -0.0579
43843W        W86896  33.950  18.115  22.983 -0.0916 -0.0134 -0.3029
43844W        W86897  33.976   2.221  14.465  0.2281  0.0417 -0.2108
43845W        W86898   0.628  15.368  22.863 -0.1043 -0.0415  0.1903
43846W        W86899  24.636   5.429  20.013  0.1289  0.1872 -0.2298
43847W        W86900  18.480   7.699  22.324  0.1526  0.2379 -0.1111
43848W        W86901   7.254  26.858  17.239 -0.3667 -0.0477 -0.1166
43849W        W86902  26.826  26.456  22.909 -0.0777 -0.1601 -0.1221
43850W        W86903   1.979   3.052  23.291  0.2537 -0.0721  0.0950
43851W        W86904   4.475  29.003  19.603  0.0876 -0.0160  0.1567
43852W        W86905   7.236  30.897  13.325  0.0304  0.0878 -0.0794
43853W        W86906   2.611  33.382  15.426 -0.1019 -0.2776  0.1939
43854W        W86907  33.637   4.341  24.408 -0.1838 -0.1794 -0.0709
43855W        W86908   1.679   0.664   4.312  0.0411  0.1584  0.0743
43856W        W86909  10.166  23.729  15.291 -0.3679 -0.1518  0.0820
43857W        W86910   1.128   2.542  22.816 -0.1215 -0.0501 -0.1697
43858W        W86911  32.492  33.112  27.195  0.0857  0.1227 -0.0468
43859W        W86912  14.015  26.207  24.839  0.3387 -0.0783  0.1131
43860W        W86913  21.795  30.976   2.074  0.1443  0.2982 -0.0918
43861W        W86914   1.307   1.333   2.119  0.0249  0.0265 -0.1034
43862W        W86915  30.092   0.188  26.698 -0.0082  0.0926 -0.3346
43863W        W86916   1.144  30.711  20.750  0.1373  0.1546 -0.0456
43864W        W86917  33.963  21.834  23.549 -0.0515  0.1746 -0.2301
43865W        W86918   6.723   5.023  20.998 -0.0089 -0.0418 -0.0951
43866W        W86919   1.146  16.229  23.604  0.2661  0.4126 -0.0397
43867W        W86920  22.725   4.799  28.901 -0.1817 -0.3061 -0.0097
43868W        W86921   1.128  30.930   0.573 -0.0121  0.1312  0.0236
43869W        W86922  18.082  14.344   6.656 -0.3174  0.1819 -0.1765
43870W        W86923   0.233  34.417  20.657 -0.1492  0.0509  0.1767
43871W        W86924  10.140  30.217  23.421  0.3008 -0.0643 -0.0381
43872W        W86925  29.805  24.402  20.091  0.0007 -0.1120 -0.1186
43873W        W86926  20.676   4.505  22.651  0.1649 -0.1996 -0.2240
43874W        W86927  22.979  30.753  20.425  0.1093 -0.4305  0.5618
43875W        W86928  14.501  26.930  14.784 -0.0593 -0.0461  0.1067
43876W        W86929   8.506  13.932  20.162  0.0494  0.2449  0.1983
43877W        W86930  26.841  30.090  23.681 -0.3044  0.0237 -0.0436
43878W        W86931  14.854  25.059  21.407  0.2266 -0.3381 -0.0086
43879W        W86932   1.583   4.283   8.788 -0.0266  0.2833  0.3121
43880W        W86933  25.090  34.673  24.081  0.1588  0.1235 -0.3452
43881W        W86934   1.528  28.879  15.138  0.2955  0.1301  0.0969
43882W        W86935   0.594  28.658  14.932 -0.0163  0.0497  0.0943
43883W        W86936   1.081  17.258  16.481  0.3599 -0.0429 -0.3474
43884W        W86937  30.600  11.706   2.655 -0.0904 -0.2625  0.1101
43885W        W86938  27.341   4.410  16.486 -0.1364 -0.0325  0.0539
43886W        W86939   1.237  18.323  15.983  0.0532 -0.1178  0.0156
43887W        W86940  31.554   8.753  16.024 -0.2062 -0.1289  0.5020
43888W        W86941  23.538  32.839   0.991 -0.0732  0.3803  0.1470
43889W        W86942  29.109  18.511  18.989 -0.0796 -0.0842  0.1095
43890W        W86943  31.889  21.507  15.145 -0.1451  0.1968 -0.0143
43891W        W86944  17.970  21.612  18.120 -0.1509 -0.1990  0.1212
43892W        W86945   0.537   6.217   0.397 -0.2812 -0.0364 -0.0943
43893W        W86946  18.507   3.887   5.888  0.0110  0.0311  0.0124
43894W        W86947  33.229   1.561  17.465  0.0908  0.0122 -0.0641
43895W        W86948  28.269   5.521  21.690  0.2657 -0.1804 -0.4607
43896W        W86949  27.878  19.127  18.066  0.2797 -0.3639 -0.0577
43897W        W86950  30.772   1.007  16.264 -0.2091 -0.0884 -0.2967
43898W        W86951  28.660  26.118  23.405 -0.1110 -0.1176  0.2421
43899W        W86952  19.404  12.911  24.632 -0.1762  0.5266 -0.1877
43900W        W86953  25.044   1.042   0.161 -0.2120  0.0937  0.1671
43901W        W86954  13.459  26.986  14.441 -0.0034 -0.0235 -0.0130
43902W        W86955   8.695  15.103  22.079  0.1143  0.2440 -0.0157
43903W        W86956  33.061   5.970  18.538 -0.2932  0.0067 -0.1094
43904W        W86957  21.040  24.452  21.900  0.1706  0.2549  0.2279
43905W        W86958  24.333  26.086  22.060  0.3988  0.1119  0.0971
43906W        W86959  29.040  16.704  15.661  0.1121  0.3472 -0.0228
43907W        W86960   0.921  23.523  17.402  0.0006 -0.3282  0.0500
43908W        W86961  12.840  32.405  17.866 -0.2597  0.0211  0.5190
43909W        W86962   0.297  22.428  15.609 -0.0137  0.0768  0.1936
43910W        W86963  22.713  32.054  28.848  0.0621  0.1234 -0.5850
43911W        W86964  25.640  30.542  20.817 -0.0492 -0.0206 -0.1210
43912W        W86965  33.118   8.607  18.971  0.1857 -0.0414 -0.1229
43913W        W86966   8.076  30.809  19.009 -0.0727 -0.0249  0.0971
43914W        W86967  14.241   9.655   8.876  0.1573  0.0405 -0.2349
43915W        W86968  28.189   9.740  19.311  0.3449 -0.0657 -0.2093
43916W        W86969  20.976   6.765   2.375  0.3293  0.1949 -0.3424
43917W        W86970  29.476   5.564  19.488 -0.1355  0.3091  0.0864
43918W        W86971   3.507  32.567  25.275 -0.0801 -0.0036 -0.2991
43919W        W86972  19.215   2.840  18.174  0.0057 -0.0277 -0.4073
43920W        W86973   7.544  31.107  27.007  0.0097 -0.0056 -0.2772
43921W        W86974  20.991  27.120  23.310  0.1300 -0.0653  0.2196
43922W        W86975  16.283  26.101  18.557  0.0717  0.1152 -0.0587
43923W        W86976   7.471  16.251  20.660  0.0555 -0.0054  0.1570
43924W        W86977  17.812   9.904  16.399 -0.0505 -0.3064 -0.2610
43925W        W86978  27.447  34.542  22.182  0.2166 -0.0054  0.0834
43926W        W86979  20.671  21.768  24.782  0.0885 -0.2471  0.1953
43927W        W86980  24.725  29.015  15.688  0.3155  0.1882  0.2279
43928W        W86981   8.456  29.148  28.257 -0.0938 -0.1337 -0.2740
43929W        W86982  20.393  23.140   6.809  0.2154 -0.0421 -0.1414
43930W        W86983   6.779  28.715  17.250 -0.4473 -0.0832  0.0365
43931W        W86984   2.008  25.388  21.677  0.1876 -0.1603 -0.0377
43932W        W86985   5.705  25.003  27.863  0.3423 -0.2554  0.0654
43933W        W86986   7.441  30.294   3.013 -0.0171  0.1977  0.0396
43934W        W86987  34.291  26.774  17.184 -0.1343 -0.3289 -0.0760
43935W        W86988   0.330  32.999  26.118 -0.4162 -0.1822  0.1964
43936W        W86989   7.487   6.964   8.033 -0.0013 -0.1815  0.0562
43937W        W86990  26.719  19.088  20.324  0.1044  0.1444 -0.2881
43938W        W86991  24.274  33.592  18.797 -0.1968 -0.2199  0.1093
43939W        W86992  25.853  27.254  14.561  0.1947  0.1512 -0.1368
43940W        W86993  22.165   8.454  27.104 -0.2899  0.1778  0.3574
43941W        W86994  28.484  10.274   2.998 -0.0204  0.4316  0.3033
43942W        W86995  13.264   2.800  17.468 -0.2807  0.0193 -0.0923
43943W        W86996  13.923  22.176  27.736 -0.2613 -0.4172  0.0556
43944W        W86997  32.769  32.513  18.670  0.0261 -0.0633 -0.1640
43945W        W86998  30.913  25.526  16.417 -0.2281 -0.1143  0.1107
43946W        W86999   4.041  27.649  19.526 -0.0325  0.1024  0.0899
43947W        W87000   9.468  29.770  19.161 -0.1084  0.0803 -0.0296
43948W        W87001  11.767  25.568  14.964 -0.1393  0.0112 -0.2557
43949W        W87002   7.712  30.412  17.745  0.2263  0.0649  0.2299
43950W        W87003  29.628  20.793  20.756  0.0980 -0.0179  0.0359
43951W        W87004  33.067   7.448  16.943  0.2047 -0.3127 -0.3068
43952W        W87005  32.689  25.920  29.187 -0.0310 -0.0232 -0.0532
43953W        W87006  31.896   4.799  23.750  0.1225 -0.2198 -0.0451
43954W        W87007  11.104   5.536   7.482  0.1597 -0.0444  0.2278
43955W        W87008  34.182  24.511  14.591 -0.1552 -0.2097  0.1190
43956W        W87009   4.092  30.895   2.030 -0.0796 -0.2455 -0.1001
43957W        W87010  13.432  16.175  16.702  0.3320 -0.1828  0.1673
43958W        W87011   6.614   5.338  23.288  0.3273 -0.1352  0.4050
43959W        W87012  16.805  26.076  22.934 -0.2926  0.0862  0.3158
43960W        W87013  29.924  25.629   2.298  0.2499 -0.0673  0.1054
43961W        W87014  29.509  20.506  14.506 -0.1533 -0.0906 -0.0372
43962W        W87015  13.349  25.784  24.158  0.0992 -0.0329 -0.1766
43963W        W87016  29.270  21.341  28.550 -0.0849  0.2760  0.0207
43964W        W87017   9.999  24.567  20.863 -0.2049 -0.1703  0.1698
43965W        W87018  24.144  33.371  10.212  0.2911  0.0800  0.1013
43966W        W87019   5.781  34.365   0.118 -0.1861  0.1322 -0.1043
43967W        W87020  22.552   8.988  19.544 -0.0129  0.2216  0.2535
43968W        W87021  26.429  31.886  22.832 -0.0664 -0.3311  0.1625
43969W        W87022   3.046   3.668  22.015 -0.2222 -0.2706  0.1581
43970W        W87023  32.940  15.221  29.088  0.0654 -0.0656  0.1541
43971W        W87024   2.051   3.441  20.579 -0.1303 -0.0105 -0.1053
43972W        W87025  30.906   0.752   7.241  0.2791 -0.4996  0.2499
43973W        W87026   7.673   1.036  22.859  0.0441 -0.0803  0.0782
43974W        W87027  31.447  27.536  16.448  0.3458  0.3844 -0.1824
43975W        W87028   9.371   0.926   4.110 -0.4184 -0.0360  0.0825
43976W        W87029  33.644  24.304  17.626 -0.0043 -0.0517 -0.1449
43977W        W87030  31.755   7.553  26.223  0.1731  0.4945 -0.0475
43978W        W87031  34.101  13.187  20.795 -0.1336  0.1192 -0.0915
43979W        W87032  20.410  15.365  21.799 -0.0001 -0.6291  0.0766
43980W        W87033  29.192   6.838   3.966  0.2622 -0.0633 -0.2737
43981W        W87034   3.823  13.958  15.069 -0.2556  0.1165 -0.1449
43982W        W87035   1.623   6.085  23.069  0.0397  0.0370 -0.0805
43983W        W87036  25.543   2.237  13.704 -0.0266  0.0467 -0.0356
43984W        W87037  19.943   0.432  14.604 -0.3182  0.0796  0.1074
43985W        W87038   3.638   3.835  24.646  0.0482  0.0715 -0.2093
43986W        W87039  28.195  30.785  15.143  0.0661 -0.2363  0.0596
43987W        W87040  11.441  33.289  17.181  0.0724  0.0595 -0.1393
43988W        W87041  27.457  15.665  20.631  0.1678  0.2794 -0.1008
43989W        W87042  21.752  14.474   4.521  0.1776  0.5001  0.0311
43990W        W87043  24.642  22.226  20.987  0.2662  0.1033 -0.2522
43991W        W87044   2.293   1.741  13.963 -0.0421  0.2872 -0.0125
43992W        W87045  33.677  33.985  16.753  0.1251  0.1757  0.1330
43993W        W87046  29.670  32.008  15.137  0.0437 -0.1448 -0.0353
43994W        W87047   2.774  18.126   3.925  0.2900 -0.0155  0.0172
43995W        W87048  20.936  30.248  21.115 -0.1784 -0.3363  0.1946
43996W        W87049  17.024  29.534  26.589  0.1160 -0.2077  0.0560
43997W        W87050  26.496  21.711  16.170 -0.0322  0.2842 -0.0129
43998W        W87051  18.245   4.951  17.085 -0.0845 -0.0356 -0.2618
43999W        W87052  25.742  32.519   1.741  0.2586  0.1928 -0.0789
44000W        W87053  13.817  29.253  19.227  0.0047  0.0110 -0.0577
44001W        W87054   4.005   7.584  27.730 -0.0731  0.0486 -0.0893
44002W        W87055  28.234  24.884  17.306 -0.2702  0.1206  0.2022
44003W        W87056  25.261  11.396   7.478  0.0488 -0.1223  0.1253
44004W        W87057   0.956   4.298   9.354  0.0506  0.1211  0.1811
44005W        W87058  22.870  10.346  17.457 -0.1034  0.3979  0.0242
44006W        W87059   2.871  34.199   8.139 -0.2727  0.0186 -0.0744
44007W        W87060   1.174   7.607  20.287  0.0553 -0.0950 -0.1673
44008W        W87061  22.595   1.727  25.008 -0.1990 -0.1156 -0.2150
44009W        W87062   3.696  26.718  23.209  0.1094  0.2555 -0.1252
44010W        W87063   4.228   9.648  17.531 -0.1230  0.3032  0.1026
44011W        W87064   2.110  32.766  14.160 -0.0826  0.2532  0.0123
44012W        W87065  23.216  31.264  20.929 -0.3497 -0.1134  0.0076
44013W        W87066  28.149   1.349  23.692  0.0456  0.1700  0.1965
44014W        W87067   0.405  32.291   7.249 -0.0987 -0.0511  0.2178
44015W        W87068  16.226   1.497   0.328  0.0757 -0.5047  0.1279
44016W        W87069  18.002  28.473  20.749  0.1312 -0.2010  0.3218
44017W        W87070  29.668  28.587  25.544 -0.0016 -0.0729  0.2546
44018W        W87071   7.456   4.369  14.781 -0.3985  0.1209  0.0970
44019W        W87072  30.722   5.960  19.852 -0.1358 -0.2627 -0.1460
44020W        W87073   1.894  27.099  20.417 -0.0343 -0.2147  0.1323
44021W        W87074  14.565  30.733  14.477  0.1254  0.1600 -0.1455
44022W        W87075  24.446  33.470  27.247  0.1321  0.0678 -0.1832
44023W        W87076  33.728   0.814  13.600  0.0359  0.0010 -0.0358
44024W        W87077  24.717   1.351  19.199  0.1233  0.0397  0.0275
44025W        W87078   2.097   2.155  26.841 -0.0984  0.0423  0.0803
44026W        W87079   9.011   2.304   9.524 -0.1037  0.2406 -0.0879
44027W        W87080   8.353  25.478  18.191  0.3052  0.3762  0.1732
44028W        W87081  18.879   1.482  16.879 -0.0061 -0.2341  0.2637
44029W        W87082  14.190   1.630  13.729 -0.1810 -0.1019  0.1683
44030W        W87083   1.531  32.649   2.309 -0.0329  0.2585  0.0512
44031W        W87084  11.338   7.200  21.383 -0.2493  0.1128 -0.0855
44032W        W87085   1.157  22.945  21.094 -0.1806 -0.0524 -0.0831
44033W        W87086   8.726   1.478  15.195 -0.3496 -0.2226 -0.0007
44034W        W87087   5.441   1.234  16.645  0.3079 -0.0012  0.0803
44035W        W87088  19.658  21.825  26.485 -0.1343 -0.1438  0.0821
44036W        W87089   4.750   2.929   3.842  0.0273 -0.1660  0.2101
44037W        W87090   3.832  31.617   4.113  0.0181  0.4694  0.0329
44038W        W87091   4.265  24.546  24.715  0.1748 -0.0631  0.0122
44039W        W87092  26.587   0.346   8.191 -0.2939  0.3426 -0.3137
44040W        W87093  23.125   6.010  18.058 -0.0529  0.0445  0.0984
44041W        W87094  33.610  33.490  20.515  0.5629  0.0982  0.0595
44042W        W87095  14.508   1.179  16.944  0.0310  0.1601 -0.0216
44043W        W87096  26.396  11.154  28.623  0.1948  0.1214  0.0384
44044W        W87097  26.169  27.673  28.922  0.2015  0.2274 -0.1215
44045W        W87098   1.832  30.471  14.156  0.1191 -0.0926 -0.0010
44046W        W87099  14.567  28.062  19.253  0.0451 -0.1048  0.3350
44047W        W87100   8.496   2.240   1.518  0.3673 -0.1735  0.0548
44048W        W87101   7.981   1.372  24.276  0.1465 -0.0368  0.3303
44049W        W87102  18.534  26.017   4.952  0.0762 -0.1534 -0.2230
44050W        W87103   9.823  11.541   2.416 -0.1800  0.0151 -0.1111
44051W        W87104   3.665   6.190  14.069 -0.1910  0.3004  0.2821
44052W        W87105  25.492  28.988  22.556 -0.0665 -0.1886  0.1843
44053W        W87106  19.429  15.254  27.988  0.0652 -0.2111  0.1579
44054W        W87107  33.680   8.564  18.419  0.1747  0.1266 -0.0711
44055W        W87108  25.784  29.994  25.268 -0.0565  0.2412  0.1214
44056W        W87109   0.597  15.723  17.725  0.0516  0.0267  0.0826
44057W        W87110  18.967   4.087  22.461 -0.2448 -0.2375  0.1898
44058W        W87111  30.754  30.005  23.175  0.0443  0.0666  0.3759
44059W        W87112   9.828  23.054  15.801  0.2434 -0.0745 -0.1290
44060W        W87113  20.550   6.233  18.967  0.5172  0.0838 -0.1340
44061W        W87114   2.714   8.923   2.734  0.1851 -0.1116 -0.0841
44062W        W87115   3.275  34.521   6.938 -0.0447  0.0259  0.0102
44063W        W87116   0.354  31.400  15.663  0.0619  0.2650 -0.1998
44064W        W87117  33.917  29.985  19.076 -0.0430  0.2586  0.0727
44065W        W87118  29.751  31.243   7.174 -0.1397  0.1403 -0.1446
44066W        W87119  34.432   7.209   9.566  0.0174 -0.1936 -0.2611
44067W        W87120  26.554  16.504  18.660 -0.3469  0.3334  0.1210
44068W        W87121  28.124  22.184   5.574  0.2811  0.2342 -0.2970
44069W        W87122  27.419   4.866  17.206  0.3152 -0.0364 -0.0497
44070W        W87123  24.767  28.350  19.209  0.0471  0.1670 -0.1890
44071W        W87124   9.023  29.763  14.611  0.0409  0.0141 -0.0611
44072W        W87125  16.877  28.582  14.275  0.1017 -0.0147 -0.0761
44073W        W87126  25.722   1.693   0.616  0.0904  0.0589 -0.4235
44074W        W87127  17.666   2.681  16.147 -0.0655 -0.2753  0.0204
44075W        W87128  27.460   4.503   3.798 -0.2454  0.1183  0.1622
44076W        W87129   8.048   4.321  21.481 -0.1963  0.2363  0.2654
44077W        W87130  23.971  24.180   0.712  0.0965  0.1073  0.0881
44078W        W87131  25.965  32.662   0.834 -0.3243  0.1771  0.0097
44079W        W87132   4.616  11.860  21.834 -0.0139  0.0386 -0.3311
44080W        W87133  25.163   4.321  18.748  0.2106  0.0821 -0.2779
44081W        W87134   9.755  32.486  14.293 -0.1621 -0.0507 -0.0749
44082W        W87135  13.547  32.964  27.468 -0.0617  0.0220 -0.1373
44083W        W87136   1.688   8.814   4.707  0.1783  0.2185 -0.0923
44084W        W87137  31.482  20.389  28.589  0.0074  0.1567  0.0449
44085W        W87138   7.239   6.031  25.903  0.0970 -0.1053  0.2183
44086W        W87139  33.453  31.786  22.315 -0.1862  0.1703 -0.0430
44087W        W87140  27.440  26.810   6.804  0.0443 -0.1148  0.0714
44088W        W87141   7.122  12.919   0.974  0.0538 -0.2467  0.0191
44089W        W87142  27.252  28.117  18.773  0.2698  0.3649 -0.0253
44090W        W87143  20.782  22.391  16.369 -0.1862 -0.0960 -0.2754
44091W        W87144   6.771  34.256  24.545  0.1586  0.0765 -0.0042
44092W        W87145  33.984  16.255  18.249  0.0825  0.1913  0.3457
44093W        W87146  30.530  18.387  21.670 -0.0890 -0.3487  0.1528
44094W        W87147  16.130   7.430  19.381 -0.1942 -0.0634  0.2958
44095W        W87148  19.971  29.199  19.175 -0.0448  0.1023 -0.2270
44096W        W87149  23.004  29.782   1.293  0.1237 -0.1592 -0.0876
44097W        W87150  30.730  31.575  24.388  0.0543 -0.0881 -0.1260
44098W        W87151  31.941   5.613  15.192 -0.0339 -0.0808 -0.2109
44099W        W87152  27.896  25.920   2.817  0.0227  0.0926 -0.1373
44100W        W87153  30.061   0.076  17.523 -0.0293  0.0087 -0.1625
44101W        W87154   2.960   3.990  26.498  0.3087 -0.3490  0.2837
44102W        W87155  25.627  29.921  16.287  0.0704 -0.1072  0.2857
44103W        W87156  28.536  30.269  16.341  0.1261  0.1625  0.1733
44104W        W87157   4.041   1.377  18.423  0.1778 -0.0952  0.1797
44105W        W87158   6.796  22.352  22.836 -0.0731 -0.2435 -0.1471
44106W        W87159  25.644  32.883  28.316 -0.2261 -0.0581  0.0594
44107W        W87160  22.360  26.287  15.439 -0.2806  0.1376 -0.1239
44108W        W87161   5.109  32.316  20.627 -0.0838 -0.1501 -0.1746
44109W        W87162   8.777  31.554  14.844  0.0360 -0.1534  0.2190
44110W        W87163   0.230  10.180   0.488  0.0904 -0.3993 -0.1984
44111W        W87164  24.682  32.760  16.160 -0.1477  0.0809  0.0031
44112W        W87165   7.829  28.242  13.777 -0.2057  0.1840  0.0242
44113W        W87166  34.499  18.301  15.370  0.0986 -0.1443  0.0087
44114W        W87167  14.112  16.540  16.078 -0.0204 -0.3065 -0.1496
44115W        W87168   8.242  22.073  19.861  0.2365 -0.2067  0.0303
44116W        W87169  24.724  34.600  22.676  0.0176 -0.2254  0.0384
44117W        W87170  31.364   1.712  19.798 -0.1260  0.0481  0.0600
44118W        W87171  17.752   6.235  17.106 -0.0396 -0.3091 -0.0955
44119W        W87172  24.281  23.419  19.569  0.0952 -0.0438  0.2941
44120W        W87173  31.664  28.884   9.583 -0.0197 -0.4379  0.1220
44121W        W87174  34.278  26.952  13.131 -0.0626 -0.1318 -0.0326
44122W        W87175  29.588  11.348  15.019 -0.1366  0.1364  0.1885
44123W        W87176   8.970  18.943  19.047  0.0096 -0.0104 -0.0227
44124W        W87177   9.677   1.646  26.044 -0.2375  0.0367  0.0648
44125W        W87178   5.300   2.711  21.548 -0.2485  0.1273  0.0775
44126W        W87179  20.297   5.881  14.492 -0.1221  0.2400  0.0369
44127W        W87180  32.672  14.189  26.288 -0.3843 -0.2740  0.3963
44128W        W87181   6.829   0.294  26.469 -0.1565 -0.1584  0.0323
44129W        W87182  31.953  11.882  15.065  0.2577  0.2023  0.0335
44130W        W87183  31.725  32.486  23.752 -0.0132  0.0398  0.0981
44131W        W87184  33.985   9.834   8.485  0.0817  0.2927  0.1230
44132W        W87185  32.516   3.747   6.936 -0.0932 -0.4329  0.3051
44133W        W87186  25.031  20.151  23.073 -0.1963 -0.0945 -0.0438
44134W        W87187  21.060  11.790  14.769  0.0825 -0.2416  0.2019
44135W        W87188  31.492  26.119  22.519  0.2026 -0.1183  0.0942
44136W        W87189  25.991  21.848  21.142 -0.0119  0.2984 -0.0368
44137W        W87190  31.923  27.633  16.585 -0.1680  0.2027 -0.0856
44138W        W87191  21.376  21.916  23.627 -0.1856  0.0487 -0.0806
44139W        W87192   1.632  31.989  15.645  0.0793  0.3278 -0.0459
44140W        W87193   7.533  19.252   1.057  0.1715 -0.2984 -0.2516
44141W        W87194  26.661   3.482  17.217 -0.0328  0.0217 -0.0665
44142W        W87195   2.838  28.189   2.478 -0.1742  0.3346  0.2739
44143W        W87196   9.914   0.548   0.820 -0.1796  0.2150  0.0005
44144W        W87197  34.576  29.211  18.885  0.1180 -0.1491  0.1584
44145W        W87198  34.647   1.510   6.719 -0.2034 -0.2136  0.3552
44146W        W87199   0.236  33.364  25.259  0.0796 -0.0084  0.0851
44147W        W87200  14.243   0.194  27.196 -0.0730  0.0807  0.3236
44148W        W87201   8.949  25.874  27.380 -0.2190  0.1719  0.0544
44149W        W87202  32.126  32.183  14.996 -0.1158  0.3328  0.0409
44150W        W87203  26.946  27.012  16.866  0.0253  0.2467  0.0063
44151W        W87204   6.177   7.427  19.332 -0.2362 -0.0792 -0.2135
44152W        W87205  29.267  27.158   2.125  0.1562 -0.0235 -0.0645
44153W        W87206  32.105  15.464  27.948 -0.1400  0.0222 -0.3244
44154W        W87207  28.582  29.053  17.343  0.2024  0.0493  0.1939
44155W        W87208  20.389  31.795   9.219  0.1610 -0.4193  0.0543
44156W        W87209   4.065   2.930  15.634 -0.1910 -0.0824  0.2025
44157W        W87210  28.756  31.803  16.154  0.1064 -0.1907 -0.0862
44158W        W87211  30.614   0.244  17.338  0.0038 -0.0842 -0.0871
44159W        W87212  14.526  26.943   3.085  0.1062  0.1612  0.2193
44160W        W87213  12.186  24.067  19.803 -0.3839 -0.1511  0.3915
44161W        W87214  27.991  31.397  16.852 -0.2993 -0.1676  0.0618
44162W        W87215  22.591  11.012  14.356  0.0491  0.1504 -0.0241
44163W        W87216  27.025   1.269  13.881 -0.0730 -0.0366  0.1943
44164W        W87217   4.049  14.641  15.132  0.2330 -0.0999  0.0483
44165W        W87218   5.457  22.998   0.118  0.0853  0.1987  0.0183
44166W        W87219  26.526  26.986  18.789 -0.0456 -0.1536 -0.0727
44167W        W87220   3.731  14.393  15.967  0.0394  0.2559  0.0220
44168W        W87221  25.772  30.281  26.484 -0.1981  0.0187  0.1493
44169W        W87222  26.659   8.454  28.079  0.2561 -0.1574 -0.1721
44170W        W87223  33.763  16.320  15.779  0.1821  0.4572 -0.1237
44171W        W87224   7.243   5.726  20.804  0.2890 -0.0700  0.0825
44172W        W87225  27.200  18.726  15.218 -0.0201  0.5474 -0.1768
44173W        W87226  26.110  19.164  24.229  0.1994  0.1634  0.0637
44174W        W87227   6.223  26.746  19.837 -0.0067 -0.1534  0.1435
44175W        W87228  29.182  10.002  24.629 -0.2941 -0.6207 -0.1942
44176W        W87229   4.595  18.318  25.328 -0.1622  0.5115  0.2045
44177W        W87230  24.105  28.895  18.871  0.2919  0.1859 -0.1107
44178W        W87231  11.754  26.222  16.878 -0.1719 -0.1244 -0.2631
44179W        W87232   1.771  27.420  25.697 -0.2899  0.0588 -0.1874
44180W        W87233   2.328  27.763  16.265  0.0773  0.1465 -0.1561
44181W        W87234   3.938   2.183  15.954 -0.2992 -0.0188  0.0527
44182W        W87235  13.202   3.527  20.089 -0.4425 -0.0510 -0.1875
44183W        W87236  23.627  25.624  21.375 -0.1184  0.1296  0.3562
44184W        W87237  19.060  33.889  14.374  0.3194  0.0746 -0.2954
44185W        W87238  31.815  31.202  27.101  0.0195  0.0207 -0.1206
44186W        W87239  30.631  29.568  23.476 -0.1317 -0.2508 -0.2083
44187W        W87240  33.808   5.074  15.593 -0.1142 -0.0540  0.5341
44188W        W87241  20.837  22.003  15.443  0.0206 -0.1533 -0.2399
44189W        W87242   5.364  33.033   5.521 -0.1235  0.1133 -0.0950
44190W        W87243  32.897   3.361  21.775  0.2866  0.0180  0.0831
44191W        W87244  28.766   3.653  14.419  0.0876 -0.0250 -0.0220
44192W        W87245  20.740  23.161  20.823 -0.1816 -0.0117 -0.0299
44193W        W87246  23.556   0.705  23.707  0.2487  0.0834  0.0124
44194W        W87247  14.514  29.203  14.821 -0.1241  0.1806  0.0511
44195W        W87248  26.799  19.275  22.111  0.2343 -0.0946 -0.1160
44196W        W87249  32.359  25.092  24.405 -0.0232  0.0416  0.0241
44197W        W87250  29.343   9.133  17.684  0.1068  0.2602 -0.0219
44198W        W87251  13.587  33.730  20.934  0.0615  0.0932 -0.1933
44199W        W87252  30.313  29.970  16.679 -0.0296 -0.1620  0.0150
44200W        W87253  32.218   5.251  19.897  0.1420  0.3207  0.2693
44201W        W87254   1.517  31.901  19.686 -0.0631 -0.0716 -0.1679
44202W        W87255  15.856  11.937  15.496 -0.0235 -0.2298 -0.2909
44203W        W87256   1.992  14.359   4.898  0.3591 -0.2059 -0.0183
44204W        W87257  26.349  27.398  22.659  0.2268  0.2395 -0.2417
44205W        W87258   4.364   7.661  25.177 -0.1639 -0.0309  0.3826
44206W        W87259   2.458   6.379   4.561 -0.3264  0.1123  0.2771
44207W        W87260  29.806   5.047  25.613  0.2279  0.0265  0.0117
44208W        W87261  13.188  21.556  27.415 -0.2535  0.0293  0.1105
44209W        W87262   2.918  15.559  16.580 -0.0116 -0.0830 -0.2935
44210W        W87263   2.738  28.741  21.801 -0.1803  0.4127  0.3887
44211W        W87264  19.233  24.737   3.077 -0.0760 -0.2964 -0.0943
44212W        W87265   9.422   1.683  24.804  0.1258 -0.1086 -0.1486
44213W        W87266   9.809  28.269  20.942  0.0411  0.0613 -0.1398
44214W        W87267   2.398  28.678  14.963  0.0552  0.3364  0.0871
44215W        W87268   8.579  34.545  21.684  0.2632 -0.0734 -0.1233
44216W        W87269   5.945  34.132   5.613 -0.0568  0.1725  0.1373
44217W        W87270  21.257  27.523  15.838 -0.2546 -0.0789  0.0692
44218W        W87271   2.112  34.221  13.192 -0.0465 -0.3569 -0.1623
44219W        W87272  28.992  11.908   3.226  0.1038 -0.1229 -0.2728
44220W        W87273  15.591  24.355  16.776 -0.1375  0.0968 -0.0951
44221W        W87274   9.645   1.926   7.792 -0.0247  0.0123  0.0023
44222W        W87275  14.944  27.421  24.165  0.0269 -0.0308 -0.1102
44223W        W87276  18.925  23.992  17.354 -0.0681  0.1423  0.2137
44224W        W87277  26.520  10.885  18.548  0.0219 -0.0553 -0.1199
44225W        W87278  25.972  13.996  21.077  0.0866 -0.1728 -0.0533
44226W        W87279   9.959  26.136  17.259 -0.2046  0.1821  0.1700
44227W        W87280  29.974   0.635  20.652 -0.2313  0.1610  0.2185
44228W        W87281   5.371   3.046  26.294 -0.1592 -0.1735  0.3271
44229W        W87282  22.849   1.225  15.628 -0.2205  0.1228 -0.1719
44230W        W87283  24.204   6.241  25.108  0.0091 -0.1764  0.1192
44231W        W87284  27.294  30.763  17.275  0.1270 -0.1410 -0.0706
44232W        W87285  24.040  19.499  19.748  0.0056  0.0333 -0.1339
44233W        W87286   0.971  13.762  22.785  0.1508  0.1924  0.1446
44234W        W87287  17.377   6.038  20.695  0.2573 -0.0545 -0.0530
44235W        W87288  33.020  14.484  15.656  0.1454 -0.4954 -0.0898
44236W        W87289   3.049  32.150  16.955 -0.0773  0.3105  0.0068
44237W        W87290   3.679  22.643   7.256  0.0474 -0.0080  0.3179
44238W        W87291  20.555  27.557  27.503 -0.1034 -0.1736 -0.1535
44239W        W87292  14.284   8.455  27.519  0.1146 -0.0621 -0.2113
44240W        W87293  28.443  28.735  23.203 -0.0099  0.0844 -0.0681
44241W        W87294  23.473  32.565  27.537  0.2090  0.1051 -0.3155
44242W        W87295  27.236  26.566   7.296  0.0539 -0.1503 -0.0581
44243W        W87296   2.806  20.245  20.584 -0.0301  0.0498  0.1946
44244W        W87297  30.082  31.358  19.598  0.1424 -0.1630  0.0265
44245W        W87298  17.843  20.625  14.776  0.0078  0.0134  0.1677
44246W        W87299   8.660  33.652  17.664 -0.1202 -0.1061  0.1327
44247W        W87300  25.805  28.544  17.504  0.0520 -0.0814  0.4996
44248W        W87301   3.854  22.741  16.836  0.0861  0.2446  0.0815
44249W        W87302   4.669   4.296  27.140 -0.1400 -0.1639 -0.0267
44250W        W87303  30.034  21.441  21.724 -0.6585  0.3186 -0.2284
44251W        W87304  29.917  33.604  13.306 -0.0180  0.1923 -0.4475
44252W        W87305  25.875  25.367  18.640  0.0069 -0.1207 -0.2007
44253W        W87306   3.115   7.465  18.572  0.2959 -0.1188  0.0298
44254W        W87307   2.900  33.940  29.012 -0.1792  0.0196  0.0918
44255W        W87308   0.342  29.716  22.282 -0.0838  0.1952  0.1758
44256W        W87309   0.333  26.631   3.861 -0.2189 -0.0993  0.0288
44257W        W87310  23.134  18.701  21.103  0.0786  0.2134  0.1083
44258W        W87311   2.681  33.173  27.200 -0.0560 -0.2156  0.0515
44259W        W87312  34.193  34.268   0.814 -0.0454 -0.0221 -0.0168
44260W        W87313  19.308   8.255  23.624  0.1493  0.0396  0.4309
44261W        W87314  26.524   0.805  28.143  0.1699  0.0207 -0.1562
44262W        W87315  19.098  33.030  25.259  0.1732 -0.2004 -0.2246
44263W        W87316  30.830  30.075  20.897  0.3403  0.4278 -0.0497
44264W        W87317   8.235  14.247  15.553 -0.0017  0.1393  0.0987
44265W        W87318   4.572   2.703  21.272 -0.0467  0.0401  0.0249
44266W        W87319  28.272  32.615  22.038 -0.0952 -0.1515  0.0932
44267W        W87320  29.892  13.573   0.600 -0.1111 -0.2225 -0.0205
44268W        W87321  34.036  26.503  22.032  0.0225  0.0908 -0.0336
44269W        W87322  34.147  20.211  24.567 -0.2007  0.0008 -0.3768
44270W        W87323  25.634  21.042  21.408  0.0716 -0.0477 -0.0731
44271W        W87324   5.587  32.993  25.728 -0.1231 -0.2887  0.0817
44272W        W87325  28.542   2.000  15.048 -0.2438  0.0782 -0.2331
44273W        W87326  34.509   4.013   2.780 -0.3412  0.0668  0.4896
44274W        W87327   4.937  29.504   3.871 -0.0794  0.3239 -0.0351
44275W        W87328   2.085  34.312  14.055  0.0264  0.0090  0.1346
44276W        W87329  28.387  18.606  17.107  0.1668 -0.0001 -0.0724
44277W        W87330  13.852  32.031   0.217  0.0293  0.1010  0.0495
44278W        W87331   1.934   1.869  20.180 -0.1229  0.2153  0.1733
44279W        W87332   9.475  28.004  20.667  0.0509  0.2362 -0.1273
44280W        W87333  21.108   1.782  22.215  0.0898 -0.1927  0.0832
44281W        W87334  31.115  32.141   3.375 -0.1410 -0.2568 -0.0144
44282W        W87335   7.105  33.496   3.102  0.2184 -0.1804 -0.6050
44283W        W87336   6.674  16.050  25.853 -0.0830 -0.1824 -0.1190
44284W        W87337   9.439  24.661   1.885 -0.0078  0.3218 -0.1425
44285W        W87338   9.103  27.117  26.006 -0.0158  0.3759  0.0334
44286W        W87339   7.148  16.402   0.585 -0.0259 -0.1057 -0.0660
44287W        W87340  23.342  29.870   0.407 -0.0202 -0.2839  0.1040
44288W        W87341  34.632  26.969   2.610  0.0991 -0.0678  0.0401
44289W        W87342  32.182  32.977  19.290 -0.1021  0.2414 -0.3182
44290W        W87343   9.105  17.236  16.708  0.0676  0.2162 -0.1505
44291W        W87344   5.199   3.585  18.020 -0.0270 -0.3120  0.2832
44292W        W87345   3.414  27.358  16.817 -0.1801 -0.3309 -0.0312
44293W        W87346  33.586   1.852  14.643 -0.4706  0.1776 -0.4016
44294W        W87347  13.545   3.818   0.791 -0.0188  0.1164  0.2945
44295W        W87348   2.059   4.411  24.750 -0.3335  0.0684  0.1755
44296W        W87349  30.602   2.237   0.779 -0.1038  0.0858 -0.0853
44297W        W87350   7.722  31.970   1.795 -0.0897 -0.1879  0.1489
44298W        W87351   0.391  33.112  13.744 -0.2689  0.0268  0.3305
44299W        W87352  27.387  28.937  19.987 -0.2914 -0.1640 -0.1207
44300W        W87353   7.728  20.987  17.789  0.1527 -0.0909 -0.1051
44301W        W87354  33.419  18.049  13.608  0.2618 -0.0864 -0.1250
44302W        W87355   7.588  17.281  14.433 -0.2353 -0.0260 -0.0942
44303W        W87356  31.543  33.279  17.167  0.0670  0.0034 -0.1746
44304W        W87357  19.307   6.730  24.202  0.2242 -0.1401  0.0133
44305W        W87358   1.678  31.387  20.967 -0.1943  0.0732 -0.1211
44306W        W87359  19.908  23.982  18.392 -0.0307  0.0671 -0.2006
44307W        W87360   9.007  22.816  22.237 -0.0264  0.3041 -0.1987
44308W        W87361   1.918  28.471  22.098  0.2384 -0.0359 -0.2020
44309W        W87362  14.672  23.076  23.317  0.2383  0.2156  0.0793
44310W        W87363  11.927   7.609  14.328 -0.0883 -0.0752  0.0739
44311W        W87364  33.324  33.793  15.532 -0.0242 -0.0735 -0.2162
44312W        W87365  20.448  34.655  27.917 -0.1278  0.0186 -0.1901
44313W        W87366  28.613  28.971  23.991  0.2903 -0.3063 -0.2197
44314W        W87367  24.751  23.490  24.321  0.0450 -0.3145  0.1659
44315W        W87368   3.057  24.850  17.789  0.2408 -0.1790 -0.2625
44316W        W87369  33.916   6.866  22.828 -0.3278  0.0654 -0.2298
44317W        W87370  27.312   0.496  25.093  0.1138  0.1613  0.1329
44318W        W87371   4.418   2.603  13.608  0.0915  0.2723 -0.0642
44319W        W87372   9.782   1.704  23.698 -0.0449 -0.1796  0.1042
44320W        W87373   6.797   4.462  15.410  0.0895 -0.0546 -0.1268
44321W        W87374   1.420  33.854   1.577  0.1363  0.0403  0.0417
44322W        W87375  28.445  30.438  18.587  0.1591  0.0427 -0.1191
44323W        W87376  26.657  27.800   6.219  0.0250 -0.0848  0.2133
44324W        W87377   9.817   2.796  21.068 -0.0937  0.5300 -0.1646
44325W        W87378   4.890   6.474  17.242  0.0057  0.2751 -0.1068
44326W        W87379   3.291  28.835  16.493  0.0034 -0.0632 -0.0119
44327W        W87380  25.986   2.777  20.621  0.0838  0.0430  0.0328
44328W        W87381   0.573   3.429   6.441  0.0254 -0.0457  0.4396
44329W        W87382  24.224  31.659  16.517 -0.3830 -0.0354  0.2212
44330W        W87383  20.304  26.766  18.138  0.3324 -0.1900 -0.0708
44331W        W87384  12.028  30.710  18.698  0.0445 -0.0743 -0.2204
44332W        W87385  10.880   2.171  20.665  0.2151  0.1483 -0.0734
44333W        W87386   9.307  14.594  20.010  0.2633 -0.3705  0.4841
44334W        W87387  26.933   6.041  17.452  0.0657 -0.1931  0.1206
44335W        W87388  27.966  10.420  18.162  0.0796  0.2995 -0.3618
44336W        W87389  29.829   3.703   3.860 -0.1900 -0.0036  0.1234
44337W        W87390  22.990  31.419  23.728  0.1775 -0.1452  0.3106
44338W        W87391  22.233  32.259   4.081  0.2500 -0.3423 -0.0939
44339W        W87392   6.665  34.370  25.343 -0.0326 -0.0003 -0.0375
44340W        W87393  26.477   3.438  27.126  0.0825  0.1131  0.1702
44341W        W87394   2.131  17.033   2.450 -0.0495 -0.1591 -0.0621
44342W        W87395  14.750  24.573  21.501 -0.1230  0.1874  0.4167
44343W        W87396  11.433  33.346   7.350 -0.1123 -0.1137  0.0441
44344W        W87397  11.041   6.907  27.232 -0.1000 -0.0852 -0.2609
44345W        W87398   1.413  25.525  15.059  0.0570  0.0363 -0.0555
44346W        W87399  25.654   6.859  17.051  0.2467  0.1935 -0.1727
44347W        W87400   3.356   4.931  23.902 -0.1553  0.0533  0.0663
44348W        W87401  28.488  23.537  17.452 -0.2210 -0.0689  0.0138
44349W        W87402  24.793  20.324  26.603 -0.4129  0.3397  0.0927
44350W        W87403   6.360  25.539  24.192  0.0802 -0.0502  0.0266
44351W        W87404  30.089  21.412  28.300 -0.0561 -0.2060  0.4161
44352W        W87405  23.545  18.399  15.621 -0.1445  0.0622 -0.2660
44353W        W87406   0.443  23.124  18.127 -0.0664 -0.3653  0.0662
44354W        W87407   1.153   1.697  18.593  0.1455 -0.2604 -0.2387
44355W        W87408  10.891  28.002   1.744 -0.0602 -0.0948 -0.0783
44356W        W87409  23.983  22.641   0.964 -0.0359 -0.2162 -0.0885
44357W        W87410   0.138  34.243  28.853  0.3363 -0.1411  0.0737
44358W        W87411  10.743  26.740  16.163  0.0735 -0.0294  0.0110
44359W        W87412  30.325   7.277   3.357 -0.0172 -0.0967  0.0797
44360W        W87413  30.138   7.130   0.224 -0.2615 -0.1351 -0.0409
44361W        W87414  34.678  28.961   6.076  0.0802  0.1775 -0.1294
44362W        W87415  27.562  30.031  18.653  0.0465  0.0984 -0.4350
44363W        W87416  29.816  32.746  18.940  0.0290 -0.2095  0.0905
44364W        W87417  27.461  33.209   1.458  0.3006  0.1400  0.0242
44365W        W87418  33.760   4.924  19.494  0.0947  0.2551 -0.0774
44366W        W87419   1.465  23.159  21.837 -0.1946  0.0858  0.0010
44367W        W87420  23.308   2.499  14.529 -0.0373  0.0160  0.0780
44368W        W87421  15.566  24.888  18.116  0.2102 -0.0370  0.1364
44369W        W87422  31.192  31.235  24.495 -0.0190 -0.1871  0.1731
44370W        W87423   8.569   2.423  24.793 -0.0733 -0.1406 -0.0231
44371W        W87424  25.561  27.169  27.217  0.0791  0.1029  0.1245
44372W        W87425  19.830  32.262  14.822  0.2365 -0.2225  0.0098
44373W        W87426   4.287  13.654   7.071 -0.0003 -0.1777 -0.0292
44374W        W87427  21.023  33.844   2.751 -0.1406  0.0480  0.0937
44375W        W87428   4.721  31.825   3.979  0.3632 -0.1932  0.0406
44376W        W87429  33.239  26.553  18.398  0.1952 -0.0422  0.1183
44377W        W87430  33.707  34.631  26.795  0.4269  0.1504 -0.3883
44378W        W87431  12.184  33.688  15.421 -0.1801 -0.0107 -0.0210
44379W        W87432   3.551  25.559  18.327 -0.0938 -0.3290 -0.1303
44380W        W87433   4.449  26.606  14.133 -0.0641  0.2274  0.3964
44381W        W87434  30.926   3.643  23.972 -0.0646  0.0511  0.2443
44382W        W87435   7.666   0.981  17.417  0.1746 -0.3087 -0.0460
44383W        W87436  34.321  15.754   2.534  0.0868 -0.0953 -0.1461
44384W        W87437  28.368  30.051  27.850 -0.1821 -0.0290  0.2024
44385W        W87438  23.811  31.346   9.940 -0.0289  0.3983  0.2005
44386W        W87439  27.078  31.276  26.496 -0.1042 -0.2215  0.2070
44387W        W87440   8.634   2.771  18.770 -0.2890  0.0572 -0.0675
44388W        W87441   0.483   2.782   9.392  0.2336 -0.0538  0.1287
44389W        W87442  31.791  23.979   5.731 -0.0816  0.0301  0.1931
44390W        W87443  32.961  21.771  16.330  0.2275 -0.1626  0.1292
44391W        W87444   2.112   1.554  22.696 -0.3776  0.1615 -0.2422
44392W        W87445  34.406   9.149  28.844  0.2863 -0.0657 -0.0595
44393W        W87446  22.789   3.199  14.202  0.0857  0.0796  0.3398
44394W        W87447  32.024  29.347  22.845  0.2591 -0.1033 -0.2091
44395W        W87448  23.799   2.031   1.550 -0.2134 -0.1489  0.2142
44396W        W87449   4.790   6.588   3.332  0.0660  0.0117 -0.1657
44397W        W87450  24.240  30.882  16.691 -0.3081  0.0253  0.0936
44398W        W87451   9.823   2.436  19.277  0.0466 -0.1291  0.0517
44399W        W87452  28.449   1.192  21.740 -0.0423 -0.0884  0.0661
44400W        W87453   4.507  18.519  23.514  0.0865  0.0515 -0.2210
44401W        W87454  17.059  31.958   6.896  0.1408  0.0386 -0.1641
44402W        W87455  28.108   0.324  23.357  0.2081  0.0089  0.1286
44403W        W87456  30.630  16.216  14.063 -0.2892  0.0983 -0.2144
44404W        W87457  21.085  30.076   7.487  0.0130 -0.4527  0.1006
44405W        W87458   0.723  22.115  14.337 -0.0705 -0.1531 -0.3338
44406W        W87459  29.847  28.034  23.033  0.1885 -0.2465 -0.1944
44407W        W87460  29.180  23.976  16.770 -0.1967  0.1596  0.2911
44408W        W87461  12.138  11.581  15.845 -0.2600  0.0993  0.2644
44409W        W87462   2.381  24.873  14.334 -0.0268  0.0678 -0.3474
44410W        W87463  25.692  12.202   0.152 -0.3539 -0.0991 -0.6797
44411W        W87464  32.881  33.356  15.511  0.2965  0.2115 -0.0654
44412W        W87465  22.344  30.159  20.605 -0.0531  0.0788  0.1431
44413W        W87466  20.885  32.482  27.276  0.0710 -0.0362  0.2435
44414W        W87467  28.302  10.423  25.301 -0.0825  0.1219  0.2010
44415W        W87468  30.447  31.587  28.687 -0.1456  0.0748  0.0547
44416W        W87469   8.722  29.653   5.344 -0.2375 -0.4056 -0.3203
44417W        W87470   4.707  27.299  17.652 -0.0063 -0.1710 -0.2043
44418W        W87471   2.247   8.764  18.669 -0.2457 -0.1496 -0.1392
44419W        W87472  32.825  23.592  20.023 -0.0298  0.0324  0.0772
44420W        W87473   8.352  13.227  23.551 -0.1414  0.1561 -0.2152
44421W        W87474  27.418   9.825   4.002  0.1375  0.0139 -0.1330
44422W        W87475  33.766   8.135   2.447 -0.0940  0.4023 -0.0245
44423W        W87476  23.822  17.503  14.337 -0.3117  0.2385  0.1200
44424W        W87477  12.874  27.207  21.958 -0.1939 -0.2360 -0.3636
44425W        W87478  11.583   1.613  21.790 -0.2640  0.1549 -0.0761
44426W        W87479   6.316  32.899  19.914 -0.0418  0.1179  0.0334
44427W        W87480   4.742  19.713  20.885 -0.0411 -0.1302  0.0428
44428W        W87481  26.773  19.617   6.426 -0.0732  0.1847  0.3591
44429W        W87482  20.099  30.042  21.198  0.3613 -0.3662  0.3272
44430W        W87483   7.775  15.631  26.292 -0.2659 -0.2053 -0.0373
44431W        W87484   4.267  34.066  23.066 -0.1785 -0.0153  0.0367
44432W        W87485  17.714   6.848  26.280  0.0057 -0.2629  0.1045
44433W        W87486  16.615  34.432  14.034 -0.0290  0.3146  0.0348
44434W        W87487   0.077   2.756   7.429  0.0465 -0.2714  0.2100
44435W        W87488   2.477  19.784  15.101 -0.0237 -0.1079  0.1383
44436W        W87489   5.653   3.909   2.009  0.0527 -0.1851  0.2651
44437W        W87490  28.180  34.410   8.100 -0.0105 -0.2181  0.0317
44438W        W87491  15.001  10.384  29.168 -0.3000  0.0748 -0.1303
44439W        W87492  19.040  33.518  22.250 -0.0809  0.2203 -0.1720
44440W        W87493  31.878  29.912   7.415  0.3657 -0.0995 -0.2504
44441W        W87494  26.802  30.171  16.905  0.2448 -0.2517 -0.2448
44442W        W87495  27.939  28.989   2.900 -0.2300 -0.1118  0.0644
44443W        W87496  18.891  26.314   0.055 -0.0666 -0.2268  0.0653
44444W        W87497   8.825  25.725  24.492  0.3921  0.1220  0.1296
44445W        W87498  30.753  12.646  26.652 -0.0218 -0.2128  0.1636
44446W        W87499   0.408  24.024   7.132  0.1183  0.2097  0.2259
44447W        W87500  19.685   1.630  28.451  0.1944 -0.2201  0.2408
44448W        W87501  22.818   6.492   9.385 -0.4284 -0.2321  0.2906
44449W        W87502  21.848  19.584  15.047  0.1158 -0.0457 -0.1226
44450W        W87503  22.184  29.828   8.252 -0.2474  0.0439  0.0195
44451W        W87504  31.056  30.232  17.189  0.0981 -0.2616  0.0587
44452W        W87505   1.738   0.822  21.644 -0.0297  0.2286  0.1908
44453W        W87506  28.172   6.629   0.827 -0.3296 -0.0358 -0.2778
44454W        W87507   5.069  19.327   1.821 -0.1211  0.2188  0.1280
44455W        W87508  32.656  33.154   0.116  0.1143 -0.2805 -0.0416
44456W        W87509  26.739  29.344   3.579  0.1683  0.0154  0.0950
44457W        W87510   3.992  30.452   6.811 -0.0084 -0.3445 -0.4410
44458W        W87511   8.341   9.520  19.756  0.2163  0.1012 -0.0014
44459W        W87512   9.548  29.197  13.415 -0.0619  0.1179 -0.3312
44460W        W87513  12.621   9.517  17.862 -0.2021 -0.0222 -0.1968
44461W        W87514  25.768  32.139  28.724 -0.1793 -0.0045 -0.1415
44462W        W87515  27.228  31.459  21.828  0.1678 -0.0426  0.1257
44463W        W87516   3.211  31.774   4.975  0.1952  0.4618 -0.2516
44464W        W87517  19.502  32.793  25.012 -0.1508  0.0543 -0.0473
44465W        W87518   7.285   6.580   3.581  0.1034  0.2095  0.1784
44466W        W87519  34.233   0.278   3.282 -0.2197  0.0141  0.0025
44467W        W87520   2.526  22.294  22.891  0.1465  0.1448  0.0224
44468W        W87521  32.577  22.338   5.572 -0.2110  0.0243 -0.2550
44469W        W87522   1.619  11.886  27.004  0.2747 -0.2311  0.1137
44470W        W87523  18.373  28.895  28.742 -0.0808  0.1036 -0.1506
44471W        W87524  31.220  24.607  14.473 -0.0625  0.1863 -0.1200
44472W        W87525  23.643   9.824   1.704 -0.2481  0.1787  0.1887
44473W        W87526   1.485  32.174   2.028  0.0546 -0.3249 -0.1186
44474W        W87527  29.708  30.177  23.168 -0.4896 -0.1421 -0.0744
44475W        W87528   2.876  20.099  15.399  0.0654  0.0020 -0.2752
44476W        W87529  29.800  28.513  23.041 -0.0376 -0.0853  0.0857
44477W        W87530  24.855   4.266  24.702 -0.0889 -0.1768 -0.0405
44478W        W87531  31.087  30.715  21.183  0.1166 -0.3532 -0.0544
44479W        W87532   7.223   7.690   0.848 -0.1793  0.0572 -0.0775
44480W        W87533  29.726  32.200  23.403 -0.2861  0.1290  0.2464
44481W        W87534  12.249  32.568  22.618 -0.0240  0.1965 -0.2110
44482W        W87535   0.144  25.885   0.111 -0.2069  0.1332  0.4125
44483W        W87536  17.461  21.570  27.776  0.4089 -0.0729  0.0824
44484W        W87537   8.315   8.425   2.785 -0.0996  0.1612 -0.2824
44485W        W87538  31.842  14.039   6.810 -0.2694  0.0158 -0.2390
44486W        W87539  23.451  33.221   6.706 -0.2741 -0.1444  0.5245
44487W        W87540  30.727  26.918  22.860 -0.2798  0.1559 -0.1520
44488W        W87541   6.029   5.768   4.005 -0.0570 -0.0055 -0.0913
44489W        W87542  13.710  30.418  27.219  0.4125 -0.2728 -0.1020
44490W        W87543  13.993  13.308  28.519  0.3241 -0.1469  0.1046
44491W        W87544  11.492   2.910  21.084  0.0620  0.1191  0.1429
44492W        W87545  16.572  10.543  15.638  0.3813  0.0482  0.4026
44493W        W87546  30.205   5.978  24.750 -0.1042  0.0221 -0.0971
44494W        W87547  19.341  30.286  10.035 -0.1158 -0.0822 -0.2655
44495W        W87548  26.666  28.712  17.790  0.0231 -0.2536 -0.0591
44496W        W87549  30.968   4.575  19.363  0.1116 -0.0096 -0.0717
44497W        W87550  31.274   5.092   6.336  0.2727 -0.2612 -0.0639
44498W        W87551  32.635  12.087   0.552 -0.0661 -0.0826  0.1108
44499W        W87552  24.483  30.434  29.030 -0.1288  0.1301 -0.0627
44500W        W87553  28.404  33.816  20.718 -0.2154  0.0663  0.0647
44501W        W87554   1.638  28.871  24.468 -0.0902 -0.0156 -0.0510
44502W        W87555  20.489  34.314   8.834  0.2392  0.2439 -0.1032
44503W        W87556   6.784  29.780  27.592 -0.0835  0.1905 -0.0656
44504W        W87557  25.990   9.155  18.779  0.2558 -0.0727  0.0293
44505W        W87558   0.549  26.321  27.049  0.0359 -0.0733 -0.0442
44506W        W87559  33.283  27.043  29.200 -0.1449  0.2208  0.1027
44507W        W87560   6.395  19.129  13.438 -0.0388  0.3119  0.0930
44508W        W87561  31.472  32.147  22.857 -0.1566  0.3308  0.1429
44509W        W87562  27.156  34.423  27.322  0.2903  0.0380  0.3833
44510W        W87563  31.428  19.897   5.264  0.0420 -0.2776  0.1717
44511W        W87564  28.655  26.330   3.860 -0.0963  0.0610  0.0169
44512W        W87565  16.203  33.888  23.737  0.3160  0.2893  0.0493
44513W        W87566  25.086  28.470   1.387  0.0468  0.2062  0.1926
44514W        W87567  22.586   3.610  14.508 -0.0316  0.1912  0.0788
44515W        W87568   3.442  15.508   0.208  0.1286 -0.0102 -0.1903
44516W        W87569   9.870   1.251  16.125 -0.1536 -0.3987  0.0171
44517W        W87570  33.118  32.797  25.856 -0.4839  0.1800  0.1449
44518W        W87571  26.559  23.390  19.018  0.2066  0.0670  0.4198
44519W        W87572  28.635   8.527  28.320 -0.2243  0.0970 -0.0584
44520W        W87573  28.006   8.868  20.897 -0.1171 -0.2740 -0.1251
44521W        W87574   6.662   9.741  28.013 -0.3091  0.0063 -0.0582
44522W        W87575  28.432  25.032  10.227 -0.2601  0.0531 -0.0175
44523W        W87576   0.315  15.382  20.396 -0.1288  0.0651 -0.3183
44524W        W87577  33.264  31.053  21.208 -0.0750 -0.0203 -0.0686
44525W        W87578  16.384  13.064   3.541  0.0288  0.0988 -0.0107
44526W        W87579  31.841  16.212   6.238  0.1060  0.0788 -0.2395
44527W        W87580  21.065  24.054  19.029 -0.2712  0.0779 -0.1454
44528W        W87581  26.914  27.741   7.271 -0.0690  0.2601  0.3380
44529W        W87582  32.207  32.450  21.035  0.3893 -0.1348  0.1844
44530W        W87583  25.229   9.250   0.081 -0.2077 -0.1841  0.1281
44531W        W87584  33.705  15.996   9.169 -0.1291 -0.1528 -0.1111
44532W        W87585  23.940  32.261  23.052  0.1290 -0.2043 -0.2527
44533W        W87586  27.211  18.905  20.293  0.0292 -0.3144  0.0325
44534W        W87587  20.905  24.140  16.069 -0.1380 -0.1878 -0.1257
44535W        W87588   2.437  30.530   3.322  0.1792  0.4160  0.0318
44536W        W87589  26.631   6.618   5.543  0.0646 -0.1487  0.1964
44537W        W87590   1.317  28.957   0.168  0.0141 -0.3196 -0.1596
44538W        W87591   8.260   3.152   8.072 -0.1204  0.1067  0.0866
44539W        W87592   8.638  30.007  25.243  0.1389 -0.1002 -0.1651
44540W        W87593   1.279   1.513  24.452 -0.0801 -0.0221  0.1397
44541W        W87594  24.117  30.631  14.430 -0.1412 -0.0412  0.0615
44542W        W87595   0.669   3.736  14.310  0.2670 -0.1161 -0.0957
44543W        W87596  25.860   3.604   6.679  0.0698  0.1887 -0.0149
44544W        W87597  28.632  30.360  25.065 -0.1859 -0.0683  0.2869
44545W        W87598  32.267  23.733  21.039 -0.0136 -0.0147 -0.1281
44546W        W87599  34.585  16.670  20.595  0.1663 -0.1142 -0.0115
44547W        W87600   5.327  19.881  14.645 -0.1556 -0.2652  0.2108
44548W        W87601  21.569  34.121  16.931  0.1513 -0.3114 -0.1711
44549W        W87602  16.439  15.185  27.964  0.2419 -0.2569 -0.1784
44550W        W87603  27.772  22.291  21.966  0.0619  0.0788 -0.4142
44551W        W87604  20.204  27.808  14.474  0.4290 -0.0060  0.2482
44552W        W87605  32.611  23.675  24.801  0.1641 -0.1131  0.1040
44553W        W87606   0.825   3.863  25.332  0.2351 -0.2469 -0.2231
44554W        W87607  11.096  22.142  15.000  0.4140 -0.1602  0.2261
44555W        W87608  12.179  10.685  23.438  0.1058  0.1273 -0.0393
44556W        W87609   6.045  22.622   1.234 -0.5997 -0.2493  0.0442
44557W        W87610   2.759   0.600  15.992  0.0786 -0.0546  0.0936
44558W        W87611  27.469  33.991  26.767  0.2124  0.0914 -0.6083
44559W        W87612  11.127  22.833  21.172  0.0786 -0.0735 -0.0875
44560W        W87613  33.359  30.958   1.506  0.3439  0.1073  0.1213
44561W        W87614  32.523  27.566  28.723  0.1048 -0.2952 -0.0842
44562W        W87615  10.669  14.560   5.503 -0.1261 -0.2586  0.0286
44563W        W87616   2.443   2.719  16.562  0.0070  0.1376  0.0594
44564W        W87617  17.266   4.966  20.265  0.0004 -0.0462 -0.1519
44565W        W87618  24.892   6.834   6.411  0.0723 -0.0677 -0.1293
44566W        W87619  23.634  19.718  24.040  0.0835 -0.1406  0.2000
44567W        W87620   5.174  10.438  22.637  0.0014 -0.1431 -0.0056
44568W        W87621  17.832  31.478  24.332 -0.3034  0.0844  0.0329
44569W        W87622  23.824   0.055   3.285  0.1198  0.1344 -0.1033
44570W        W87623  14.847  28.906  18.976  0.1349 -0.1451 -0.3546
44571W        W87624  12.325  32.856   7.897  0.0997  0.0059 -0.1320
44572W        W87625  32.733  24.977  16.639  0.1298  0.1859 -0.0534
44573W        W87626  15.801   4.718   2.137 -0.0051 -0.1003  0.0655
44574W        W87627  29.228  25.967   1.929  0.3967  0.0976 -0.2494
44575W        W87628  31.373  34.153  19.646  0.1808 -0.0220  0.0850
44576W        W87629  20.162   0.598  23.910 -0.0748  0.0063 -0.1100
44577W        W87630  25.359  23.912  23.206  0.0032 -0.0545  0.0539
44578W        W87631  32.889   4.542  15.516 -0.1366  0.1179 -0.1962
44579W        W87632  32.314  25.198  18.664 -0.1824  0.1736 -0.1945
44580W        W87633   3.321   1.019   2.583 -0.0837  0.0441  0.1686
44581W        W87634   4.596  31.319  28.133 -0.1830  0.1653  0.3143
44582W        W87635   3.111  13.583  27.468 -0.1484 -0.1425 -0.2337
44583W        W87636   3.283   7.326   4.260  0.2101  0.4607  0.0946
44584W        W87637   3.786  27.962  26.613 -0.1578 -0.0314  0.2969
44585W        W87638   5.402  34.212  18.331  0.2006 -0.4322 -0.1435
44586W        W87639   4.779  33.898  26.278 -0.0941 -0.0042  0.0817
44587W        W87640  15.500   9.741  23.713  0.2285  0.1070  0.0204
44588W        W87641   5.143  19.728  26.955 -0.7119  0.0255  0.0534
44589W        W87642  26.820   4.545  21.271 -0.0386 -0.2643 -0.0184
44590W        W87643   8.963   7.933   0.656 -0.0164 -0.1586 -0.0612
44591W        W87644   1.236  13.954  15.158  0.2227  0.0327 -0.0849
44592W        W87645  29.776  28.903   3.079  0.3610  0.0518 -0.0427
44593W        W87646   3.298  32.861  14.802  0.0789 -0.2346  0.0769
44594W        W87647  21.340   1.919   8.798  0.0540 -0.1548 -0.0443
44595W        W87648   5.706   9.717  25.450 -0.0815  0.1636  0.1544
44596W        W87649  27.673   0.484  20.052  0.1815 -0.0231 -0.2406
44597W        W87650   8.891  10.866  18.994 -0.0112  0.0239  0.0510
44598W        W87651  14.850  30.151   8.683 -0.0409  0.2386  0.0847
44599W        W87652  28.815  24.540  17.454 -0.2351  0.0867 -0.3046
44600W        W87653  32.723   0.571   1.497 -0.2874  0.0423  0.2205
44601W        W87654  13.233   9.152  28.296  0.0791 -0.1941  0.0515
44602W        W87655   9.172  10.888  22.002 -0.0561  0.3895  0.5303
44603W        W87656   3.026   0.236   5.489 -0.1365  0.2519 -0.0192
44604W        W87657  15.200  13.476  14.904  0.1301 -0.1620 -0.1791
44605W        W87658  18.438   6.072  10.296 -0.1479 -0.1411 -0.0301
44606W        W87659  27.703  30.987  19.689  0.2245 -0.1099  0.0107
44607W        W87660  26.746  16.905  26.326 -0.2226  0.2225 -0.1377
44608W        W87661   0.261  32.290   1.306  0.2450 -0.2341  0.0427
44609W        W87662  20.048  26.344   9.974  0.2812 -0.0580 -0.2092
44610W        W87663  21.926   0.055   1.913  0.2261  0.2223  0.0998
44611W        W87664  25.812  22.072  15.063  0.2060 -0.0786  0.2463
44612W        W87665   6.216  29.034   5.572  0.0762 -0.1734 -0.0709
44613W        W87666   2.194   0.762  25.283 -0.0920 -0.3293  0.2261
44614W        W87667  30.095  24.720  29.061 -0.1766 -0.0419 -0.1122
44615W        W87668  32.865  19.383   4.564  0.4811  0.2097  0.0506
44616W        W87669  29.711  25.570  19.674 -0.0003  0.0990  0.2871
44617W        W87670  18.685  29.547  27.289  0.0159 -0.3183  0.0055
44618W        W87671   6.388  20.406  25.172  0.0072 -0.2833 -0.0916
44619W        W87672  25.522  26.051   2.183 -0.0501 -0.4608 -0.0651
44620W        W87673  18.194  28.932  21.823  0.1669 -0.1050  0.1710
44621W        W87674   5.941  27.094  22.201  0.0946  0.3222 -0.0351
44622W        W87675  27.990   5.220   6.563 -0.1714 -0.1703 -0.1879
44623W        W87676   4.597  29.324   2.797 -0.3097 -0.0119 -0.0479
44624W        W87677  21.825  13.345  24.737  0.1640 -0.1790 -0.1611
44625W        W87678  26.915  29.297  19.776 -0.1936  0.2479 -0.1752
44626W        W87679  19.542  24.990  23.835  0.3036  0.1008 -0.2214
44627W        W87680  18.320  23.572  26.813  0.1566 -0.0138  0.2744
44628W        W87681  14.034  30.486   5.762  0.4352 -0.1353  0.0907
44629W        W87682   0.607   1.280  22.432 -0.1795  0.1675  0.1451
44630W        W87683  21.042  32.978  24.674 -0.1942  0.1737 -0.0523
44631W        W87684  21.098   2.549  19.923  0.2031 -0.0258  0.0744
44632W        W87685  18.096  28.909  23.990 -0.3631 -0.1355 -0.0523
44633W        W87686  10.913  10.712  23.742  0.0359 -0.2884 -0.2854
44634W        W87687  34.540  24.897  14.799 -0.0723  0.0208  0.4061
44635W        W87688   3.859   5.562  26.062 -0.1025  0.0843  0.2018
44636W        W87689  13.927  34.444   2.922  0.1384  0.0694  0.0781
44637W        W87690   4.596  24.381  27.020  0.3027  0.0303 -0.0752
44638W        W87691  21.947  12.408  23.617 -0.2445 -0.5365  0.0754
44639W        W87692   4.964  30.033   5.489  0.2471 -0.4740 -0.1196
44640W        W87693  34.073   3.796  21.049 -0.1637  0.0867 -0.2348
44641W        W87694  29.167  16.295  13.826 -0.2010  0.0823 -0.0929
44642W        W87695   9.084   2.980  26.823  0.1680 -0.0436 -0.2386
44643W        W87696  27.566  13.292   2.872  0.0035  0.2676 -0.0802
44644W        W87697  26.293  29.081   9.105  0.1906  0.2222  0.0447
44645W        W87698   4.232   6.359  21.949 -0.0309  0.1407 -0.3557
44646W        W87699  20.808  27.021   6.007  0.0139  0.1039  0.0483
44647W        W87700  29.469  23.351  25.093  0.0578  0.1235 -0.0499
44648W        W87701  29.650  32.493  15.128  0.0733 -0.0369  0.2270
44649W        W87702  17.824  23.625  21.525 -0.2872 -0.0112 -0.0169
44650W        W87703  26.692  20.755   1.887 -0.0821  0.2763 -0.3828
44651W        W87704  21.107   2.340   8.406 -0.0771  0.1937  0.2612
44652W        W87705  17.117  26.240   2.784  0.2327 -0.1594 -0.2136
44653W        W87706  23.273   3.592  24.746 -0.0707 -0.0219  0.2925
44654W        W87707  31.678  29.858  20.377  0.0787  0.2376  0.1847
44655W        W87708  23.864   3.885   8.413 -0.1035  0.0152  0.3463
44656W        W87709  11.753   0.730  28.787  0.0560 -0.1183 -0.2302
44657W        W87710   3.577   8.576  22.151 -0.0877  0.2918 -0.3263
44658W        W87711   9.955  29.668  27.391 -0.2588  0.2029  0.1433
44659W        W87712  24.845  33.575  15.213 -0.0286 -0.3582 -0.1404
44660W        W87713   4.846   4.147   1.957 -0.0787  0.1515 -0.2956
44661W        W87714   7.575  33.356   6.231  0.0114 -0.0518  0.2801
44662W        W87715  33.633   0.053  19.752  0.2390 -0.1184  0.0110
44663W        W87716   5.636  33.784  22.589 -0.0558 -0.2952 -0.0655
44664W        W87717  29.920  31.864  26.282  0.3215  0.1748  0.0903
44665W        W87718  31.396   1.792   2.595 -0.1391  0.0047 -0.0037
44666W        W87719   6.688  16.041  16.021  0.1818 -0.0555 -0.2775
44667W        W87720   9.620  33.805  22.497  0.0711 -0.2185  0.0625
44668W        W87721  33.586  23.410  26.313 -0.1225  0.4105 -0.1112
44669W        W87722   9.686  29.356   6.252  0.0354 -0.0322 -0.0941
44670W        W87723  18.967  10.205  27.717  0.1504 -0.0478 -0.1589
44671W        W87724  18.348   1.489  25.149 -0.1209  0.2226 -0.0638
44672W        W87725   1.145  13.973   5.715 -0.1725  0.0368  0.2733
44673W        W87726  24.335  30.945  27.382  0.1026 -0.1096  0.4227
44674W        W87727  34.018  31.594  23.554 -0.1026 -0.2573 -0.1274
44675W        W87728  11.091  10.310  21.516  0.0278  0.2095  0.4226
44676W        W87729  29.589  23.175  25.611  0.0745  0.1739  0.0546
44677W        W87730   7.209  33.548   7.131 -0.1135  0.0644 -0.0616
44678W        W87731  28.607  29.918  15.237  0.2430 -0.0985 -0.2159
44679W        W87732  28.503  11.862  27.158  0.3964 -0.2240 -0.3481
44680W        W87733   2.523  19.632  27.345  0.1557  0.0007 -0.0815
44681W        W87734  25.473   3.966  19.543 -0.0608  0.2266 -0.0650
44682W        W87735  12.212  29.859  28.672  0.2220  0.1011  0.0570
44683W        W87736  27.996   2.159  24.169  0.0890 -0.1540 -0.0754
44684W        W87737  29.838  34.563  21.789  0.2985 -0.3846 -0.0566
44685W        W87738   5.193   0.161  17.423  0.3438 -0.0593 -0.1067
44686W        W87739   7.053  34.576   4.187 -0.2864 -0.0221  0.0163
44687W        W87740   7.442  31.123  17.860  0.0135 -0.1050 -0.0435
44688W        W87741   2.931   4.491  23.867 -0.0084 -0.0413  0.3012
44689W        W87742   9.941   2.999   8.964 -0.0175 -0.0473  0.2659
44690W        W87743  34.527   5.380  20.809 -0.2092 -0.0603 -0.1632
44691W        W87744  31.909   6.409  20.208 -0.1759  0.2645 -0.1205
44692W        W87745  15.406  19.252  23.477 -0.2672 -0.1208  0.1410
44693W        W87746  25.486  24.598  24.065 -0.0167  0.1166  0.2076
44694W        W87747  24.370  34.310  25.032  0.0501 -0.2360  0.0163
44695W        W87748  31.743   3.269  20.507  0.1095 -0.1053  0.1161
44696W        W87749  24.167   2.166  23.198 -0.3155 -0.0894 -0.1827
44697W        W87750   6.375  20.106   7.968 -0.4979  0.0358 -0.1638
44698W        W87751  16.052  21.040  26.126  0.3671 -0.0192 -0.2360
44699W        W87752  16.201   2.653  28.447 -0.0205 -0.0727  0.3632
44700W        W87753   6.367   0.518  22.710 -0.0874 -0.0057 -0.1917
44701W        W87754   0.504  27.875   0.246  0.3237  0.0532  0.3404
44702W        W87755  12.467  25.965  10.059  0.0032 -0.2826 -0.0849
44703W        W87756  34.414   1.592  27.477  0.0010 -0.1525 -0.1109
44704W        W87757   9.740  30.174  19.218  0.1927  0.1242 -0.0046
44705W        W87758  26.079   2.464  23.279 -0.2521 -0.0903 -0.1341
44706W        W87759   3.664  10.823  18.753  0.3419 -0.0776 -0.2146
44707W        W87760  32.221  27.205   3.994  0.0519 -0.3304 -0.1546
44708W        W87761  25.456  20.329  14.226 -0.2300 -0.0397  0.0840
44709W        W87762  10.172  30.403  16.165  0.0773  0.0207 -0.1255
44710W        W87763  28.728  18.242   7.629 -0.1742  0.2539  0.1340
44711W        W87764  23.297  28.967   8.014 -0.4004 -0.1123 -0.0118
44712W        W87765   6.123  20.841  19.256  0.0373 -0.1830 -0.3025
44713W        W87766   1.462   2.619   2.876 -0.0395  0.1776 -0.2410
44714W        W87767   5.449  33.686  18.435 -0.3201  0.0433  0.1072
44715W        W87768   6.915  30.437  19.370 -0.0075 -0.0678 -0.2155
44716W        W87769  31.644  34.516  22.355  0.0660  0.0542 -0.1396
44717W        W87770   7.065  15.927  20.424  0.0888 -0.1642  0.2317
44718W        W87771   3.240   0.962  19.594 -0.0388 -0.1388  0.1196
44719W        W87772  20.156  34.475  26.318  0.1950  0.4216  0.2310
44720W        W87773  28.791  29.166  19.916  0.2576 -0.2782 -0.2783
44721W        W87774  17.130  25.823  24.749  0.0980  0.0293  0.2647
44722W        W87775  31.836  29.974  20.876 -0.0418  0.0521  0.0928
44723W        W87776  21.646  31.465  20.833  0.0677 -0.3022  0.0873
44724W        W87777  27.930  24.790  25.321 -0.2370 -0.0435 -0.2660
44725W        W87778  17.087   7.042  15.141 -0.1512  0.0248  0.0568
44726W        W87779   9.866  16.558  25.902  0.1100 -0.1915 -0.2367
44727W        W87780  16.976  26.832  15.564  0.0513  0.1853 -0.0191
44728W        W87781  24.744  19.280  10.304 -0.3857  0.0428  0.0486
44729W        W87782   1.156  28.201  27.046 -0.2893  0.0053 -0.0555
44730W        W87783  12.869  31.711   4.532  0.2030  0.1693 -0.0954
44731W        W87784  30.587  32.947  18.173  0.2687 -0.4095  0.1140
44732W        W87785  30.890  23.383  23.389 -0.1152  0.0336 -0.0999
44733W        W87786  12.859   9.688   8.581 -0.3284 -0.1475 -0.0290
44734W        W87787   8.906  32.077   0.735  0.0182 -0.3931 -0.1605
44735W        W87788  17.844  23.735   4.375  0.0898 -0.1851  0.0149
44736W        W87789  17.231  30.676   6.764  0.1657 -0.0441  0.0170
44737W        W87790  29.124  34.359   2.774  0.0017  0.0302 -0.0248
44738W        W87791  33.545  18.151  18.649 -0.1503  0.0404 -0.0138
44739W        W87792  33.741  31.860  23.187  0.1981  0.0473 -0.2665
44740W        W87793  33.663  23.532  25.208 -0.2506  0.1062  0.0642
44741W        W87794  25.361  19.412   7.576 -0.0542 -0.0312 -0.1820
44742W        W87795  25.995  21.262  19.638  0.1484 -0.0825 -0.0026
44743W        W87796  33.243   3.507   2.482  0.3438  0.2929  0.2870
44744W        W87797  25.387   3.912  28.822 -0.3485 -0.3467 -0.2308
44745W        W87798  24.234  12.739  16.062  0.1697 -0.1960 -0.1089
44746W        W87799  17.693  23.500  14.315  0.1722  0.0305  0.0468
44747W        W87800   2.715  28.856  14.212 -0.2157 -0.0121  0.1410
44748W        W87801  32.224  25.684   5.543  0.1695  0.1526 -0.3167
44749W        W87802   1.986  23.837  19.818 -0.0267 -0.1179 -0.0295
44750W        W87803  28.024  34.349   6.714  0.2031 -0.3548  0.1005
44751W        W87804  33.448   1.548   2.252  0.3200 -0.1112 -0.0485
44752W        W87805  27.416   5.472   0.922  0.1264 -0.1887  0.4902
44753W        W87806  31.060  26.583  16.878  0.0004 -0.1834  0.1512
44754W        W87807  32.087   5.075  21.166 -0.1151 -0.1957 -0.1523
44755W        W87808  32.272  34.097  14.773 -0.2491  0.1015 -0.1298
44756W        W87809  32.342  16.801  29.005 -0.2239 -0.1003  0.0190
44757W        W87810  18.251  23.093  26.053  0.1960  0.0592  0.0408
44758W        W87811   0.046  22.886  19.554 -0.2341  0.0669 -0.2148
44759W        W87812  32.798  28.573   1.196  0.1058  0.2674 -0.0274
44760W        W87813  14.200  33.101  23.833  0.0001  0.3204 -0.0527
44761W        W87814  25.011  31.557  18.161 -0.0275  0.1518 -0.1833
44762W        W87815  13.656  27.519   9.235 -0.3424 -0.0702  0.0322
44763W        W87816  27.954  15.971  21.111  0.1265  0.1514 -0.1952
44764W        W87817   1.481   7.864  18.406 -0.1050 -0.1169  0.1269
44765W        W87818  31.459  31.358  25.611 -0.1510 -0.2499 -0.1376
44766W        W87819  32.773   2.174  10.315  0.1363  0.3141 -0.1536
44767W        W87820  26.039  23.503   2.964 -0.2336 -0.1517  0.1525
44768W        W87821  33.151  32.168  19.542  0.0730 -0.0206 -0.1484
44769W        W87822  27.637  27.210  23.085  0.1534 -0.0971 -0.2632
44770W        W87823  28.450  28.259  21.768  0.0658  0.1765 -0.1105
44771W        W87824  30.316   6.564  21.526  0.0632  0.1744  0.1870
44772W        W87825  20.470   8.635  27.385  0.0126  0.0144  0.1840
44773W        W87826  22.219   9.414  24.170 -0.1219  0.0395 -0.0599
44774W        W87827  30.716  29.000   2.290 -0.0718 -0.0506 -0.0970
44775W        W87828  14.963  21.263  26.073  0.2969 -0.0884  0.1185
44776W        W87829  32.603  17.685  26.540  0.0294 -0.0431  0.1748
44777W        W87830  30.780  16.461   1.634  0.2135  0.1683  0.0418
44778W        W87831  13.060  28.554  25.358 -0.4362  0.1218 -0.0706
44779W        W87832  10.575  29.662  16.698  0.1166 -0.0935 -0.2567
44780W        W87833   1.547   4.478  26.925  0.1288 -0.3058  0.3968
44781W        W87834  12.848  24.807   5.930  0.2170 -0.0646  0.0153
44782W        W87835  27.524   4.591  21.882  0.0068 -0.0256  0.3664
44783W        W87836  16.040  28.473  23.084  0.0010 -0.0928 -0.1865
44784W        W87837  23.402  26.301   6.961  0.0107  0.0938 -0.0693
44785W        W87838  20.428   3.661   7.045 -0.1955  0.0235  0.0693
44786W        W87839   9.376   3.622  19.461 -0.1442  0.1363  0.1553
44787W        W87840  22.870   8.629   2.595  0.0035 -0.1771 -0.2430
44788W        W87841  33.460  34.409  28.323  0.0961  0.2273 -0.0390
44789W        W87842  10.723  29.080   3.398  0.1627 -0.0041 -0.0180
44790W        W87843  25.977  24.100  17.861 -0.0094  0.2493 -0.0987
44791W        W87844  30.950  19.576  16.142  0.0822  0.4005 -0.3352
44792W        W87845  27.958  13.260   3.140 -0.0999  0.0886 -0.2254
44793W        W87846  30.555  23.847   7.720  0.0139  0.0930 -0.0930
44794W        W87847   9.933  29.945   0.899  0.6244 -0.3649  0.3186
44795W        W87848   8.858  33.146  25.713 -0.1025  0.1588 -0.3853
44796W        W87849  18.989   8.977  21.403  0.1841  0.1461  0.0245
44797W        W87850  33.515  13.584  10.176  0.0430 -0.0537 -0.1162
44798W        W87851  17.957   1.207   7.559  0.2993  0.1279 -0.0085
44799W        W87852  30.012   0.963  17.133  0.0176  0.0896 -0.1787
44800W        W87853   0.067   8.451   2.507 -0.3021 -0.2698 -0.1319
44801W        W87854   2.493  32.405  22.206  0.1562  0.1912  0.0730
44802W        W87855  27.740  17.622  17.532  0.1039 -0.3546 -0.1025
44803W        W87856  13.114  31.314   1.432 -0.0136  0.0264 -0.2567
44804W        W87857   1.160  29.112  26.341  0.1793  0.2211 -0.0499
44805W        W87858  31.522   6.329  10.727 -0.1464  0.2523 -0.4028
44806W        W87859  26.998   1.951  18.513  0.0394 -0.0162  0.1202
44807W        W87860  25.335  10.966  23.353  0.0143 -0.2403 -0.0087
44808W        W87861  23.347  27.227  13.836  0.0702 -0.0896  0.0150
44809W        W87862  34.644  26.569  25.418 -0.1246  0.0462 -0.0282
44810W        W87863   3.868  25.299  21.225 -0.0731 -0.1264 -0.1472
44811W        W87864  26.591   4.708  14.217  0.1091  0.1403 -0.1767
44812W        W87865  30.289   7.969   5.699  0.1793  0.0887 -0.0593
44813W        W87866   0.872   0.264   4.683  0.0171 -0.0952  0.0416
44814W        W87867  12.502  15.363   3.359  0.1247  0.1724 -0.0639
44815W        W87868  26.961  31.210  28.431  0.0965  0.0303  0.0948
44816W        W87869  13.153   0.873  17.170 -0.1120  0.3601 -0.0963
44817W        W87870  20.377  27.198   6.069 -0.2360 -0.1277 -0.2283
44818W        W87871  14.387  23.760  25.042 -0.3394 -0.0477  0.1694
44819W        W87872  18.207  22.542   1.131 -0.0440  0.1098 -0.2796
44820W        W87873   2.902  29.821   4.690  0.1954  0.0102  0.2972
44821W        W87874  10.443  30.768  20.650  0.0281  0.1576 -0.1758
44822W        W87875  30.894  21.945  18.306  0.0679 -0.1884  0.0950
44823W        W87876  12.314  32.690   0.879 -0.0857 -0.5356  0.1541
44824W        W87877  30.558   3.001  16.223 -0.0257 -0.1135  0.0862
44825W        W87878  27.446   5.260  26.311 -0.2380 -0.0519  0.2321
44826W        W87879   1.565   0.996   9.838  0.0095  0.2481 -0.0688
44827W        W87880   8.968  19.587   1.736 -0.1690 -0.1191 -0.1147
44828W        W87881  25.132  15.501  23.590  0.2185 -0.3760  0.1414
44829W        W87882  33.637   9.267  22.555  0.3138  0.1996  0.3223
44830W        W87883  20.610  24.462  29.029 -0.2447  0.0017 -0.0554
44831W        W87884  14.190  31.064   7.387  0.1048  0.0274 -0.1534
44832W        W87885  23.991  23.730   0.998 -0.0466 -0.0129  0.1806
44833W        W87886  25.834  22.429  24.351 -0.0705  0.2784 -0.0435
44834W        W87887  19.699  30.155  25.541  0.2462  0.0240  0.0262
44835W        W87888   7.924  21.900  17.550  0.0938  0.1838  0.0031
44836W        W87889   0.352  28.964  21.380  0.0089  0.0336  0.0016
44837W        W87890   3.407  28.105  29.055 -0.1219  0.2846 -0.1464
44838W        W87891   5.014  25.504  23.023  0.0288 -0.1430 -0.0504
44839W        W87892  34.392  22.064   6.849 -0.0461  0.1569  0.0239
44840W        W87893  26.754  16.288  16.490 -0.3738 -0.3947 -0.0583
44841W        W87894  15.198  25.209  17.987  0.1659  0.0084 -0.2691
44842W        W87895  26.102  28.281  28.535 -0.1337 -0.1806 -0.3080
44843W        W87896  14.307  29.674   2.685  0.0425 -0.0542 -0.4019
44844W        W87897  18.142  24.169  10.648 -0.0249 -0.0822 -0.0660
44845W        W87898   8.366  29.832   7.934 -0.3267  0.4363 -0.2771
44846W        W87899  25.103  22.533  23.977 -0.1645  0.3017 -0.1156
44847W        W87900  30.606  27.945  14.336  0.0409 -0.0846 -0.2536
44848W        W87901   5.611  17.549   5.588 -0.1964  0.1275 -0.1904
44849W        W87902   9.346   6.142  21.526 -0.1433 -0.2054 -0.0982
44850W        W87903  30.969  31.023  18.230  0.2483  0.2452 -0.1042
44851W        W87904  11.845  22.778  23.339 -0.0990  0.0660  0.1040
44852W        W87905  21.646  27.619   9.734 -0.0681  0.0338  0.0006
44853W        W87906  23.542   7.307  20.483 -0.1423 -0.0479 -0.0112
44854W        W87907   4.126  24.221  25.553  0.2423 -0.0151 -0.0046
44855W        W87908  29.538  33.664   4.844  0.2578 -0.0737 -0.0190
44856W        W87909  33.128  21.709   7.479  0.2367 -0.3242  0.1326
44857W        W87910  20.797  23.706  24.517  0.0267 -0.0044  0.1725
44858W        W87911   5.182   4.711  24.575  0.1523 -0.1465 -0.0080
44859W        W87912  27.637  32.406  24.257  0.0319 -0.0028  0.1220
44860W        W87913  30.862  32.142   3.935 -0.1774 -0.1833  0.1181
44861W        W87914  22.268  28.944  28.808 -0.1137  0.3217 -0.3091
44862W        W87915   0.038  33.649  17.834 -0.1169 -0.0593  0.0608
44863W        W87916  32.881  34.370  15.505  0.0851  0.2320  0.1875
44864W        W87917   5.948  32.097   1.137 -0.1093  0.0947 -0.1722
44865W        W87918  32.986  11.736  28.288 -0.0681 -0.5229  0.2535
44866W        W87919  17.575  10.459  23.675  0.3123  0.1686 -0.1669
44867W        W87920  11.586  22.683   4.296 -0.1562 -0.1893 -0.1874
44868W        W87921  30.670  20.145  25.539  0.4688 -0.0626 -0.0691
44869W        W87922  18.844  30.863   1.897  0.1421  0.1312  0.0968
44870W        W87923  25.456  11.535   1.986  0.2520 -0.3065  0.1604
44871W        W87924   4.938  28.836  21.275 -0.0247 -0.2323 -0.0715
44872W        W87925  33.583   2.093   3.436  0.0700 -0.2611  0.2102
44873W        W87926   1.419   3.245   7.124  0.1767 -0.3193 -0.1161
44874W        W87927  10.947  30.303  28.330 -0.0029 -0.1988  0.1484
44875W        W87928  13.629   7.419  22.513 -0.2998  0.0252  0.1174
44876W        W87929   4.439  10.919  10.373  0.1134 -0.0056 -0.4544
44877W        W87930   0.152  17.015   8.853  0.1414  0.0912 -0.1231
44878W        W87931  25.157   1.568  21.701  0.3336 -0.4536 -0.0212
44879W        W87932  27.425  23.485  22.868 -0.1400 -0.2390  0.1660
44880W        W87933  29.528  28.800   7.190 -0.2503  0.4254  0.2179
44881W        W87934  12.520  21.088  15.435 -0.2874  0.0761 -0.0810
44882W        W87935   3.131  29.108  28.212 -0.0614  0.0868  0.0449
44883W        W87936  26.377   8.691   8.951  0.1074 -0.1745  0.0868
44884W        W87937  26.119  30.803   0.455 -0.1773  0.5103  0.0574
44885W        W87938  29.691  22.171  25.714  0.3580 -0.1164 -0.0199
44886W        W87939  11.621  19.103  26.593 -0.0544 -0.1849  0.2039
44887W        W87940  30.326  23.764   6.418 -0.1352 -0.4468 -0.0615
44888W        W87941  25.189  30.250  16.241  0.0810  0.1191  0.0701
44889W        W87942   6.184  26.057   7.683  0.1046 -0.2246 -0.4088
44890W        W87943  33.098   4.618  18.918  0.1533  0.2078  0.1584
44891W        W87944  20.916  24.431  24.952  0.2609  0.1690 -0.0112
44892W        W87945  33.129   3.691   1.535 -0.1680 -0.3834 -0.0394
44893W        W87946  25.865  27.773  21.929 -0.2552  0.1866 -0.3899
44894W        W87947   7.524  31.607   9.023 -0.1499 -0.0414 -0.3625
44895W        W87948  17.500  14.445   2.361  0.0618 -0.1953 -0.0925
44896W        W87949  26.475  33.932   5.923 -0.1351  0.3396 -0.0267
44897W        W87950  27.796  23.837  18.680  0.1718  0.2569 -0.0797
44898W        W87951  27.768   9.313   7.727 -0.1105  0.0537  0.3546
44899W        W87952  26.516   9.941   5.941 -0.1321 -0.1961 -0.2190
44900W        W87953  16.834  30.174   7.913  0.1204  0.0450 -0.0413
44901W        W87954  33.663   1.133   1.941  0.2847 -0.1363  0.2206
44902W        W87955  32.726  15.484  20.026 -0.3428 -0.2064  0.2294
44903W        W87956  22.101  19.531  10.075  0.2652 -0.2020 -0.0454
44904W        W87957  33.118  27.598   9.392 -0.1005 -0.1021  0.2123
44905W        W87958  14.847   5.644  19.285  0.0337 -0.1370  0.2397
44906W        W87959  30.092  16.931  21.246 -0.3737 -0.0898 -0.0049
44907W        W87960  14.505  22.430  28.010  0.0579  0.0049  0.3796
44908W        W87961  18.548   2.946   3.350  0.1463 -0.3009  0.2152
44909W        W87962  15.458  23.237   0.591 -0.0743  0.0919  0.1998
44910W        W87963  22.603  21.542  23.782  0.0198 -0.0779  0.4551
44911W        W87964  23.561   2.506  19.229  0.0579 -0.2536 -0.1209
44912W        W87965  17.899   2.059  22.963 -0.2876 -0.2914  0.1697
44913W        W87966  26.885  26.101  17.755 -0.0375 -0.0057 -0.1093
44914W        W87967  28.461   0.990  18.389 -0.1415 -0.0496  0.1020
44915W        W87968   2.129   9.615  17.469 -0.0475  0.1758 -0.0922
44916W        W87969  20.354   6.564  15.777  0.0939 -0.2071 -0.1282
44917W        W87970  25.677  15.149  16.049  0.1579  0.0729 -0.0306
44918W        W87971  25.738  11.204  24.992  0.0177  0.0716  0.0902
44919W        W87972  21.617  17.947   5.343 -0.3468 -0.2088 -0.0642
44920W        W87973  27.488  12.417  14.469 -0.0518  0.0614 -0.0437
44921W        W87974  18.061  20.575  26.804  0.1438  0.0854 -0.3276
44922W        W87975  16.082  23.747  20.316  0.3880 -0.2886 -0.0089
44923W        W87976  17.574  33.181   7.597 -0.1313 -0.0931 -0.0202
44924W        W87977  32.772   6.091   3.414 -0.0490  0.2093  0.0181
44925W        W87978   0.213  18.638   3.395  0.0276  0.1967  0.1003
44926W        W87979   1.395  23.964  20.498  0.0138 -0.3913 -0.0897
44927W        W87980  23.145   9.851   2.004 -0.0303  0.1313  0.1142
44928W        W87981  32.575  29.558  28.241  0.1221 -0.0042 -0.0258
44929W        W87982   1.141  13.360   7.229 -0.0059 -0.0078 -0.1803
44930W        W87983  26.765  26.337  20.608 -0.1707 -0.1725 -0.0985
44931W        W87984  28.599  28.385   2.564  0.0867  0.0905  0.0901
44932W        W87985  26.922   6.993  25.838 -0.0587  0.0938 -0.1100
44933W        W87986  17.736   0.408  19.103 -0.1740 -0.0322 -0.0124
44934W        W87987   4.833  27.411   3.909  0.0958  0.0573  0.1986
44935W        W87988  20.492   2.283  22.670  0.0050 -0.2598 -0.1188
44936W        W87989  21.258  27.865   9.563  0.2626 -0.1598  0.2038
44937W        W87990   4.108  19.002  26.860  0.1487  0.0831 -0.3726
44938W        W87991   7.790  33.968  22.364 -0.2661 -0.0666 -0.0376
44939W        W87992   5.007  25.759   1.729 -0.0625 -0.0087  0.0660
44940W        W87993  17.438  20.956   0.020  0.0694 -0.0518 -0.0486
44941W        W87994   4.970  12.375   2.065  0.0170  0.2027  0.1484
44942W        W87995  26.786   2.405   0.542  0.2508 -0.2101  0.3039
44943W        W87996  25.105  26.888   0.788 -0.1739  0.2063 -0.1463
44944W        W87997  29.652  28.467  26.773 -0.1729 -0.2133  0.3461
44945W        W87998   5.111   0.924  25.712  0.1007 -0.2256 -0.2079
44946W        W87999   3.232  17.760   1.065 -0.0381 -0.0507  0.1556
44947W        W88000  11.517  32.234  15.748 -0.0887 -0.1295 -0.2327
44948W        W88001   4.618  12.414  28.403  0.2043  0.2607  0.2112
44949W        W88002   7.090   9.889  19.137 -0.0448 -0.3578 -0.0954
44950W        W88003  24.066  29.752  15.537 -0.0759 -0.1824  0.1475
44951W        W88004  13.916  30.347   6.960  0.1431 -0.0370 -0.0449
44952W        W88005  33.429  31.936   4.777  0.0069 -0.1287 -0.0645
44953W        W88006  31.402   3.660   6.257  0.0751  0.2660  0.2758
44954W        W88007  32.394   1.095  25.777 -0.0797 -0.1270  0.0013
44955W        W88008  13.070   8.141  20.483  0.0188  0.1200 -0.3249
44956W        W88009  21.013  31.100  10.525  0.0758 -0.1829  0.0397
44957W        W88010  26.242   3.315   8.304 -0.0050  0.0665 -0.1553
44958W        W88011   4.720   6.795   7.343  0.0513 -0.3803 -0.1494
44959W        W88012  21.292   0.770   3.031  0.0534 -0.0906 -0.0804
44960W        W88013  32.209   6.997   2.849 -0.2539 -0.2837 -0.0959
44961W        W88014  29.396  13.470  18.951 -0.3532  0.1187  0.0523
44962W        W88015   0.322   0.014   0.906 -0.1127  0.2135  0.1473
44963W        W88016  32.932  19.650  27.939 -0.2387  0.1502 -0.0995
44964W        W88017   0.173  17.725   9.837 -0.2727 -0.0670  0.0523
44965W        W88018   1.492  27.276  27.113 -0.1856  0.1130 -0.0073
44966W        W88019  28.147   2.745   9.547 -0.3030 -0.3661 -0.0431
44967W        W88020   6.816  33.119  20.077  0.1700  0.0531  0.0262
44968W        W88021  26.861  26.627  18.828 -0.0799 -0.0838 -0.3791
44969W        W88022  20.583  31.783  24.058 -0.1590 -0.0145 -0.0990
44970W        W88023  10.547   3.081  21.626  0.2136 -0.0914 -0.1889
44971W        W88024  32.680   5.244  18.200 -0.1214  0.1526  0.1816
44972W        W88025  25.509   7.179   1.676  0.1965  0.0153 -0.1751
44973W        W88026   1.232  33.744   6.527 -0.0403 -0.3019  0.1007
44974W        W88027  30.423   3.625   5.718  0.0464 -0.1981  0.0757
44975W        W88028  33.268  30.870  22.643  0.0792 -0.0965 -0.1318
44976W        W88029   3.955   2.527  16.459 -0.1222  0.1212  0.1071
44977W        W88030  33.018   7.652  23.286  0.0982 -0.3056 -0.1046
44978W        W88031  31.839  23.817  16.918  0.0514  0.5218  0.0553
44979W        W88032  33.919  15.554   5.478 -0.0470 -0.1910  0.1648
44980W        W88033  32.218  29.286  24.145 -0.1378  0.0869  0.0061
44981W        W88034  28.698  21.468  16.903  0.0631  0.0012 -0.1196
44982W        W88035   5.735   7.401   0.514  0.1511  0.0369 -0.1733
44983W        W88036  26.738  19.358  26.259 -0.0492  0.4834 -0.2106
44984W        W88037  29.426   1.202  19.356 -0.1692 -0.0609 -0.0254
44985W        W88038  26.818  22.029  19.522  0.4535 -0.3482 -0.0016
44986W        W88039  11.822  28.515  20.389 -0.1821  0.0304  0.3810
44987W        W88040  24.922   1.412  29.056  0.1817  0.3584 -0.1911
44988W        W88041   8.625  28.422  27.432  0.1368  0.0163  0.0951
44989W        W88042  15.247   5.505   8.312  0.0822 -0.1807  0.1321
44990W        W88043  26.542  27.644  18.038  0.0025 -0.0929 -0.4648
44991W        W88044  23.905   3.487  23.364 -0.0008  0.1687  0.0268
44992W        W88045  33.068  15.273   3.246 -0.1156 -0.0841 -0.0074
44993W        W88046  20.897   1.284  24.245  0.0446 -0.2609  0.0854
44994W        W88047  32.489   5.611  23.338  0.0285 -0.0270  0.1041
44995W        W88048  10.835  30.107  17.870 -0.1526  0.0224 -0.1712
44996W        W88049  20.640  27.795  22.915 -0.1273 -0.0186 -0.0591
44997W        W88050  30.652  29.382   1.741  0.2767 -0.3376  0.2504
44998W        W88051  30.283  25.787  15.058 -0.2628 -0.0290  0.3408
44999W        W88052  10.768  30.559   5.324  0.0132  0.3008 -0.0446
45000W        W88053  21.328   4.805  28.119 -0.1398 -0.4486 -0.1348
45001W        W88054  11.550  31.563  27.634 -0.2462  0.0402 -0.0524
45002W        W88055  32.960  10.674  21.908 -0.1923 -0.6447 -0.1174
45003W        W88056  12.168  28.421  27.767 -0.2646  0.3195  0.0087
45004W        W88057  17.409   4.137   6.289  0.3091  0.1713 -0.1629
45005W        W88058   2.960  30.271  22.451 -0.1362  0.1012 -0.0433
45006W        W88059  16.128   3.281  25.774  0.0467  0.2663  0.0483
45007W        W88060   3.582  23.404   2.606  0.2090  0.0901  0.1927
45008W        W88061  25.318   0.331  24.931 -0.1295 -0.0663  0.0482
45009W        W88062  17.340  18.667  24.423  0.2248  0.0553  0.0164
45010W        W88063  34.476  27.323   3.916  0.0683 -0.0898 -0.1444
45011W        W88064   3.335   2.967  22.247  0.0903 -0.0401  0.1072
45012W        W88065  24.135  15.921   0.383 -0.0892  0.2173  0.0825
45013W        W88066  26.822   6.883  23.726 -0.0298 -0.4383  0.2575
45014W        W88067  32.570   5.854  18.273  0.1650 -0.0411 -0.0217
45015W        W88068  21.754  34.168  28.541  0.3785  0.1593 -0.1399
45016W        W88069  28.231  28.003  27.141 -0.1807  0.3652  0.1427
45017W        W88070   1.017  21.929   0.400  0.0133  0.0694  0.1524
45018W        W88071  32.525  27.080  26.111  0.0982  0.2838 -0.0392
45019W        W88072  19.073  13.428   8.015  0.1217  0.3166 -0.1140
45020W        W88073   4.246  12.446  20.410 -0.1009  0.3200 -0.0617
45021W        W88074  17.566  32.926  18.055 -0.1948 -0.0473  0.1613
45022W        W88075  33.269   3.109  27.989 -0.0461  0.1926  0.2522
45023W        W88076   1.204   1.802  21.575  0.2394 -0.1600  0.0632
45024W        W88077  12.726  25.947   9.532 -0.1420  0.2353  0.1178
45025W        W88078  33.955  31.890  23.937  0.1321 -0.3389  0.0651
45026W        W88079  19.473   9.034  28.156  0.0326 -0.1834 -0.1194
45027W        W88080  10.443  18.103   4.163  0.1162 -0.2110  0.3164
45028W        W88081  33.493  33.989   9.222 -0.0219  0.0747 -0.0042
45029W        W88082  27.353   2.286  22.528 -0.0905 -0.1372 -0.2324
45030W        W88083   7.705  27.476  27.029 -0.1545 -0.1403  0.2870
45031W        W88084  31.502  27.508  20.178 -0.0872 -0.0205 -0.1324
45032W        W88085   6.999  25.203   6.095 -0.1441  0.0709  0.1302
45033W        W88086   0.847  32.473   8.873  0.1917  0.1003 -0.0430
45034W        W88087   0.758  29.866   9.790  0.0901 -0.0691  0.2610
45035W        W88088   2.014  27.968  12.851  0.1527 -0.4161 -0.1333
45036W        W88089  25.342  23.659   6.262 -0.2632 -0.2069 -0.1162
45037W        W88090  33.520  31.859  20.482  0.0878  0.1212  0.2415
45038W        W88091  31.493  33.740  23.365 -0.0604  0.2919 -0.1195
45039W        W88092  22.315  24.367   6.554 -0.1040 -0.1741 -0.0452
45040W        W88093  10.613   0.068  16.880  0.3604  0.2233  0.3139
45041W        W88094  30.104   1.771   5.334 -0.4650 -0.1166 -0.1783
45042W        W88095  26.846   5.075  16.216 -0.1897 -0.0625  0.1865
45043W        W88096   3.468  26.409   2.086  0.0121 -0.0809 -0.0141
45044W        W88097  17.519  25.206   6.306  0.1343  0.1134 -0.0824
45045W        W88098  28.059  20.851  24.018 -0.0257  0.1652  0.1776
45046W        W88099  27.548   1.557   2.899 -0.0821  0.0689  0.1902
45047W        W88100  20.063  32.854  18.446  0.0734 -0.1865 -0.1186
45048W        W88101  24.384  29.391  18.916 -0.1436  0.0291  0.1712
45049W        W88102  26.063  20.018  24.954  0.1516  0.1208 -0.0792
45050W        W88103  20.822  12.906   7.059 -0.2592 -0.2150  0.0354
45051W        W88104  21.948   4.393  16.911  0.1356  0.0934  0.0148
45052W        W88105   3.684  28.780   1.959  0.1021 -0.1524 -0.1030
45053W        W88106  27.042  12.527  26.624 -0.3041 -0.1606  0.0825
45054W        W88107  24.755  30.212   4.587 -0.4921 -0.0622  0.0513
45055W        W88108  32.127  30.828   7.566  0.2620  0.3251 -0.0658
45056W        W88109   2.120  16.171  27.858  0.0194 -0.0225  0.1776
45057W        W88110   5.175   3.555  17.095  0.0649  0.2277 -0.0845
45058W        W88111  25.195   6.486   6.622  0.1447 -0.2096  0.1586
45059W        W88112  19.112   4.018  24.009  0.1150  0.1260  0.1580
45060W        W88113   2.815  31.067  24.113 -0.1382 -0.1078 -0.3231
45061W        W88114  29.091  34.170  14.048  0.1231 -0.1410 -0.2992
45062W        W88115  29.890  24.379   4.813  0.3157 -0.1423  0.0940
45063W        W88116   2.551  33.453  18.834  0.0719 -0.1098  0.3204
45064W        W88117  17.506   6.300  15.225  0.1391 -0.0496 -0.0463
45065W        W88118  23.846  13.323  25.404 -0.0146 -0.3478  0.0971
45066W        W88119  12.409  29.321  20.172 -0.0544  0.0207  0.3836
45067W        W88120  24.345  29.831  13.983  0.3727  0.0986  0.3210
45068W        W88121  20.669  25.950  27.242 -0.1626  0.1455 -0.2656
45069W        W88122  18.853  21.642  28.272  0.1300 -0.0515  0.2098
45070W        W88123  28.273  31.635  25.337 -0.0360  0.2287  0.0849
45071W        W88124  29.706  31.443   2.080 -0.1976  0.0583  0.1676
45072W        W88125   3.812  33.842  26.030 -0.1734 -0.0181  0.1243
45073W        W88126   2.642  17.179  23.582  0.1979  0.0405  0.0341
45074W        W88127   2.862  27.602   9.341 -0.0100 -0.2197 -0.0815
45075W        W88128   5.367   4.373  18.526 -0.0251 -0.2739  0.0078
45076W        W88129  30.170  11.978   6.991  0.0263  0.1367 -0.1303
45077W        W88130  30.332  20.810  23.444 -0.1239  0.0209  0.2174
45078W        W88131   0.995  33.364   1.160  0.1671  0.1085 -0.1694
45079W        W88132   9.782  26.522  25.189  0.0067 -0.2560  0.1847
45080W        W88133  23.388  30.226  19.474  0.2074  0.1452 -0.0751
45081W        W88134  28.963   6.705  20.736  0.2588  0.0197  0.0026
45082W        W88135  28.942   2.922   5.206  0.0693  0.3868 -0.0481
45083W        W88136  23.993  33.068   0.714  0.1394 -0.1829 -0.0647
45084W        W88137  26.513   6.066   7.884 -0.2317 -0.0450 -0.5623
45085W        W88138  22.150  30.459  28.470 -0.0384 -0.0790 -0.2132
45086W        W88139  23.804  24.901  24.823  0.1845  0.2158  0.0376
45087W        W88140   8.802  28.050  21.007  0.0118  0.0690  0.0724
45088W        W88141   3.984  21.759  15.354 -0.1157 -0.3470  0.0791
45089W        W88142  33.229  33.378   7.185  0.1461  0.1729 -0.3038
45090W        W88143   8.454  24.199  28.403  0.0186  0.0262  0.0392
45091W        W88144  29.514  33.746  27.790  0.2545 -0.2937  0.2893
45092W        W88145  26.583  20.471  21.285 -0.0577  0.0221  0.1396
45093W        W88146   1.593   9.590  26.743  0.0625  0.0482 -0.0954
45094W        W88147  24.986   0.075  27.952 -0.1212 -0.2414  0.1037
45095W        W88148  33.148   7.766  22.315  0.1841 -0.0051 -0.0701
45096W        W88149  28.962  30.045  10.458  0.2139  0.2648 -0.1375
45097W        W88150  25.908  27.270  16.105 -0.1534 -0.0885 -0.1024
45098W        W88151  31.970  19.112   5.263 -0.0927 -0.0099 -0.0646
45099W        W88152  33.273   5.757   3.662 -0.0074  0.0732 -0.1723
45100W        W88153  34.012  26.336   4.116  0.0250 -0.1269  0.0775
45101W        W88154   3.655   2.481   4.078  0.1575  0.0428 -0.0417
45102W        W88155   7.029  17.966   4.505 -0.1907 -0.0201 -0.3033
45103W        W88156  30.848  33.350  26.731  0.1676  0.0342  0.2173
45104W        W88157  33.713   4.969   4.200  0.0166  0.2214  0.1647
45105W        W88158  21.622   1.271  27.087 -0.1491 -0.0011 -0.0478
45106W        W88159   1.869  12.301  16.049 -0.2319 -0.0235  0.0361
45107W        W88160  22.230   4.867   3.398 -0.1033 -0.0849  0.0901
45108W        W88161   6.163  15.557  19.395 -0.0277 -0.1739 -0.0233
45109W        W88162  31.488   7.912   4.343 -0.0566  0.2629  0.2777
45110W        W88163  31.449   7.281  23.635 -0.0862 -0.2298  0.2012
45111W        W88164  32.251  28.657   4.078 -0.0175  0.0598  0.2220
45112W        W88165  16.566  33.448  27.607  0.0923 -0.0762  0.4431
45113W        W88166  28.338  30.216   1.946  0.0538  0.3083 -0.1140
45114W        W88167   7.529  12.831   6.844  0.1457 -0.1008  0.0998
45115W        W88168  23.693  30.801  24.593  0.1384 -0.0399  0.1687
45116W        W88169  16.138  25.656  18.204  0.0444  0.0434  0.0923
45117W        W88170  25.713  27.211  23.212  0.0912  0.0976  0.0628
45118W        W88171   3.228  25.314   0.384 -0.0256  0.1076  0.1652
45119W        W88172   1.312  18.685  16.854  0.0748 -0.2366  0.2874
45120W        W88173  34.347   9.859   5.394  0.0616  0.0270 -0.0536
45121W        W88174  25.076  21.933   9.003  0.0445  0.3082 -0.0937
45122W        W88175  33.441  33.620   4.750 -0.0243 -0.0135 -0.0248
45123W        W88176   4.701  27.706  14.219  0.1429  0.2174  0.1269
45124W        W88177  17.135  30.358   6.346  0.0676 -0.4441  0.0064
45125W        W88178  32.546   1.320   0.416  0.0871 -0.0606  0.1809
45126W        W88179  13.573  26.098   7.741 -0.0597 -0.0892 -0.0522
45127W        W88180  12.419  13.174   0.538 -0.2974 -0.1929 -0.0719
45128W        W88181  12.162  11.769   5.614 -0.1265 -0.5137  0.0190
45129W        W88182  10.107   1.367   9.259  0.0681 -0.0598 -0.0288
45130W        W88183  28.229   5.707   8.794  0.2116 -0.0257 -0.1608
45131W        W88184  26.558  27.228   6.358 -0.0454 -0.2615 -0.0858
45132W        W88185  20.405  21.217  23.402 -0.0401 -0.0959  0.1656
45133W        W88186  30.744   0.149  24.040 -0.4408  0.4031  0.0382
45134W        W88187  10.462   7.365  23.180  0.0895  0.0696  0.3150
45135W        W88188  22.826  32.460  10.463  0.1861  0.2466  0.2314
45136W        W88189   1.426  21.274  14.985  0.4691  0.1090  0.1486
45137W        W88190  13.428  31.911  17.152 -0.1403 -0.3044  0.0804
45138W        W88191   3.772   9.689  24.278  0.1881  0.1340 -0.2603
45139W        W88192  24.936   2.664   5.571  0.1232 -0.3051  0.1731
45140W        W88193  24.932   1.075  26.791  0.0532  0.0106  0.1229
45141W        W88194  18.393   3.527  21.897 -0.0982 -0.1943 -0.1166
45142W        W88195  25.736   8.727  26.263  0.1705 -0.0819 -0.1319
45143W        W88196  23.682  17.728   6.667 -0.1226  0.2743 -0.1381
45144W        W88197   9.264  25.768   6.204 -0.3651 -0.2901  0.0135
45145W        W88198   3.176  33.880   4.460  0.1107 -0.0899 -0.1713
45146W        W88199  28.264  22.082   0.456  0.2155 -0.0749  0.3071
45147W        W88200  29.586  19.549  22.500 -0.2801  0.1149  0.3894
45148W        W88201  33.610   4.680   4.583  0.0408  0.0806 -0.2971
45149W        W88202  18.066   4.069  19.332 -0.0454 -0.0131  0.0298
45150W        W88203  30.832   7.188   9.551 -0.3406  0.0620 -0.0335
45151W        W88204   6.677  33.324   5.855  0.1447  0.1976  0.1671
45152W        W88205  31.420  31.170   2.196  0.0367  0.1908  0.1544
45153W        W88206  31.234  30.697   9.557  0.2450  0.0561 -0.0169
45154W        W88207  12.606  25.716   2.884  0.0059  0.3078  0.3484
45155W        W88208  25.220  29.795  23.476  0.1878  0.2716 -0.1195
45156W        W88209  32.717   8.134   7.525 -0.0923 -0.3792 -0.0463
45157W        W88210  32.162  26.743   6.512 -0.0981 -0.1470  0.1789
45158W        W88211  33.654  32.660   2.892  0.0187  0.2469  0.0038
45159W        W88212  24.045   0.048  17.349  0.1093  0.0061  0.0347
45160W        W88213   5.764  24.313  26.959  0.1582  0.2022  0.1518
45161W        W88214  30.323   0.805  25.927  0.1872  0.0679  0.0354
45162W        W88215  24.930  19.922  21.441 -0.3374  0.1193  0.0504
45163W        W88216  21.984  34.401   4.599  0.0154  0.2347 -0.1443
45164W        W88217  11.068   2.871   4.319 -0.0374  0.0547 -0.0795
45165W        W88218  29.610  27.942   1.417  0.0110 -0.0037  0.0971
45166W        W88219  30.565  33.548  27.729  0.2688 -0.1822  0.3162
45167W        W88220  32.792   1.358  20.405  0.2082 -0.1020 -0.0233
45168W        W88221  28.102   0.039   4.799 -0.2389 -0.0456 -0.0769
45169W        W88222   5.785  27.054   3.680  0.0634 -0.1523  0.0133
45170W        W88223  29.585  12.599  10.836 -0.2555  0.1425 -0.4736
45171W        W88224  27.603  16.540  19.768  0.2944 -0.0725 -0.0967
45172W        W88225  24.699   2.897   8.562 -0.2434  0.1619  0.0910
45173W        W88226   4.783  15.521  15.716  0.2106  0.0299 -0.1771
45174W        W88227  17.210   2.422   9.346  0.3864  0.1329 -0.0603
45175W        W88228  30.143  32.584  20.693 -0.1108 -0.0088  0.0022
45176W        W88229  30.157  34.528  24.361 -0.1340 -0.3340  0.1486
45177W        W88230   1.897  34.089   5.450  0.0029 -0.2148  0.1845
45178W        W88231  16.615  28.394   2.763 -0.0015  0.1006 -0.2875
45179W        W88232   4.571  31.421   1.867  0.3264 -0.0631  0.0966
45180W        W88233  12.887  14.672  22.220 -0.1231  0.1931 -0.1211
45181W        W88234  25.969   4.776  22.792 -0.2641  0.0334  0.3554
45182W        W88235  26.065   5.454   8.337 -0.1062  0.3166  0.1656
45183W        W88236   2.062  31.609  17.780  0.1554  0.2358 -0.1699
45184W        W88237  25.772  16.028  19.343  0.1067 -0.0005 -0.1605
45185W        W88238  20.839   0.178  28.719  0.0759  0.2072  0.1185
45186W        W88239  27.300  32.095  24.364 -0.0571  0.4194  0.0311
45187W        W88240  32.243  32.005  17.677 -0.1745 -0.2999  0.0733
45188W        W88241   3.967  31.633   8.646  0.3181 -0.1844 -0.0694
45189W        W88242  26.620   0.538  14.101  0.0151 -0.3817 -0.1301
45190W        W88243  32.498  28.923  14.796 -0.0874  0.0499  0.4282
45191W        W88244  11.496  25.097  17.800 -0.1341 -0.1338  0.1119
45192W        W88245  22.000  33.873  17.771 -0.0567 -0.2682  0.1313
45193W        W88246  24.025   9.466  23.974  0.2190  0.0873  0.1099
45194W        W88247   6.175  32.854  17.962 -0.0083  0.0760  0.2554
45195W        W88248  16.709  11.502  22.247  0.1728 -0.1804  0.0573
45196W        W88249  23.683  23.578  26.517 -0.1540  0.1275  0.0950
45197W        W88250  19.808  21.005  21.367 -0.0032  0.0758  0.0795
45198W        W88251   1.371  29.026  14.372  0.1181  0.4058  0.3113
45199W        W88252  30.058   1.615  18.775  0.0861  0.0718 -0.2073
45200W        W88253  30.890  10.101  24.211  0.0112  0.1605  0.0660
45201W        W88254  31.628  17.825  25.493  0.0847  0.3217 -0.0754
45202W        W88255  10.327   4.147  17.703 -0.0970 -0.1069  0.2497
45203W        W88256   2.254  26.193  21.572  0.0605 -0.1625  0.3239
45204W        W88257  32.341  31.502  27.706 -0.2236 -0.2947 -0.0237
45205W        W88258   6.806  34.412  16.960 -0.3503  0.3275 -0.0525
45206W        W88259  20.239   2.856  17.069 -0.1374 -0.3298  0.0584
45207W        W88260  11.327  32.810  19.912  0.2980 -0.1331 -0.1714
45208W        W88261  32.408   8.765  25.942 -0.1329 -0.1660  0.2968
45209W        W88262   3.600  32.870  14.321  0.1639 -0.2246 -0.2932
45210W        W88263   2.640  29.359  15.800  0.1051 -0.0886  0.1769
45211W        W88264   5.590  14.866  27.363 -0.0718 -0.1329  0.1550
45212W        W88265   2.470   3.760   5.331 -0.0792  0.0990  0.1831
45213W        W88266   6.629  25.307  21.885  0.1690 -0.0914 -0.1295
45214W        W88267  30.716  26.848  16.253  0.0605 -0.2468  0.1144
45215W        W88268  20.823  28.441  17.869  0.0695  0.0019  0.1802
45216W        W88269  28.380  31.444  18.975 -0.0408 -0.3099 -0.3370
45217W        W88270  28.132  31.797  17.766 -0.3319  0.0530  0.0233
45218W        W88271  21.933   7.980  14.420 -0.3570 -0.2502  0.1736
45219W        W88272   0.829   8.602  21.924  0.1436  0.1314 -0.0445
45220W        W88273   0.214  25.214  19.127  0.0917  0.4530 -0.0512
45221W        W88274  28.972  32.216  19.827  0.0251  0.1245  0.0551
45222W        W88275  29.073  31.739  18.182  0.1680 -0.2607  0.1732
45223W        W88276  21.668   4.313  25.031  0.0439  0.1292 -0.0305
45224W        W88277  26.713  34.112  19.527 -0.0980 -0.0319  0.0147
45225W        W88278  11.727  15.679  26.425  0.0095  0.0905 -0.2047
45226W        W88279  13.082  14.878  17.053 -0.0677  0.0990  0.1318
45227W        W88280   0.651   2.454   2.987 -0.0290 -0.2459 -0.0248
45228W        W88281   0.214   0.421  16.048 -0.0731 -0.1204 -0.1708
45229W        W88282  30.478  33.731  13.964  0.0234  0.1549 -0.2852
45230W        W88283  27.128  27.935  22.087 -0.4806 -0.3018 -0.0741
45231W        W88284  29.289  26.917  15.803 -0.0776 -0.2764  0.0345
45232W        W88285  27.633   5.391   1.623 -0.0390  0.0416  0.1228
45233W        W88286   1.641   1.045  19.217  0.0377  0.1646  0.0707
45234W        W88287  27.670  32.399   8.253 -0.0499  0.1699 -0.1440
45235W        W88288   5.957  17.401  16.956  0.0997  0.1204 -0.0040
45236W        W88289  13.609  26.854  13.762 -0.0526 -0.3853  0.1489
45237W        W88290  30.303  17.886  14.260  0.0986  0.2471 -0.0137
45238W        W88291  28.848  29.404  21.118  0.2349 -0.0123  0.5703
45239W        W88292   3.810  32.401  24.888  0.4362  0.0266 -0.0831
45240W        W88293  18.099   4.508  19.580  0.1819 -0.0112  0.1891
45241W        W88294  23.982  27.527  21.473 -0.1816 -0.1074 -0.2068
45242W        W88295  20.917   8.776  26.630 -0.3598  0.0467 -0.0304
45243W        W88296   0.792  31.051  17.419  0.1516  0.1406 -0.0904
45244W        W88297  34.394  26.574  25.948 -0.1811  0.1669  0.1811
45245W        W88298   3.894   2.924  17.179 -0.0156  0.0090  0.0628
45246W        W88299  29.518   2.648  14.306  0.2074 -0.1364 -0.1156
45247W        W88300   5.222  17.166   5.872  0.1274  0.1600 -0.1155
45248W        W88301   0.178  34.328  20.166  0.4927 -0.1481  0.0516
45249W        W88302   9.246   3.916  26.614 -0.3294  0.0475  0.0721
45250W        W88303   7.500   0.103  17.084 -0.1200 -0.1005  0.0693
45251W        W88304  28.321   4.971  23.022  0.2150 -0.0300 -0.1941
45252W        W88305  13.804  28.118  26.830  0.0880  0.2466 -0.2059
45253W        W88306   0.469  24.472  21.454  0.0405 -0.0807 -0.0772
45254W        W88307  13.182  20.444  16.219  0.0522  0.1071  0.2444
45255W        W88308   1.622   3.350  22.682 -0.2305 -0.0272  0.0827
45256W        W88309   4.063   5.348  19.015  0.2930 -0.1049  0.0502
45257W        W88310  20.319  32.208  16.674  0.3610  0.0475 -0.2747
45258W        W88311  32.217   2.107  20.082 -0.2981 -0.1619  0.0412
45259W        W88312  19.826   2.371  25.851 -0.1772 -0.0512  0.0498
45260W        W88313   2.595  30.662   0.383 -0.0351  0.2287  0.0721
45261W        W88314  33.062  18.719  20.931 -0.2094  0.0504  0.0298
45262W        W88315  19.062  24.121  19.368  0.1610 -0.1198 -0.2521
45263W        W88316   6.965  22.326  24.175 -0.4562 -0.0501  0.1801
45264W        W88317  10.920  34.113  16.636  0.2329  0.3641  0.1602
45265W        W88318  26.978   7.684  23.071  0.0652  0.3013 -0.3517
45266W        W88319   1.694  27.791  18.347 -0.0142  0.0723  0.2225
45267W        W88320  23.554  17.596  17.068  0.1733  0.0535 -0.1401
45268W        W88321   6.833  10.154   1.049  0.2882  0.4625 -0.0245
45269W        W88322  15.165  28.440  18.807  0.1054 -0.1123  0.0233
45270W        W88323  34.633   8.211  28.379  0.1164  0.1626 -0.0723
45271W        W88324  28.594  33.364  19.043  0.0845  0.1308 -0.1929
45272W        W88325  31.677  31.075  19.885  0.0498  0.0299 -0.3548
45273W        W88326  34.166  33.332  27.828  0.3367 -0.0707 -0.2420
45274W        W88327   5.745  11.383  23.334 -0.0866 -0.0173  0.1711
45275W        W88328  19.498   3.942  19.467 -0.2990 -0.0494  0.2148
45276W        W88329  26.077   4.854  18.924  0.0558 -0.0888  0.0263
45277W        W88330  29.300  32.435  24.671  0.1387  0.0636  0.0232
45278W        W88331  27.044  23.594  16.531 -0.2002  0.1665  0.0265
45279W        W88332  21.066  25.606  14.528  0.1678  0.4824  0.0138
45280W        W88333  15.461   4.546  25.723 -0.0405  0.0590 -0.0467
45281W        W88334  22.961   2.545  22.745 -0.0990  0.0110 -0.0491
45282W        W88335  29.648  31.533  16.415 -0.0070 -0.0556 -0.0168
45283W        W88336  23.195  10.820  17.278  0.2782  0.3872  0.1556
45284W        W88337  31.573  28.787  23.703 -0.1367 -0.1497  0.1566
45285W        W88338   8.312   8.073  23.156  0.0033  0.0834  0.1718
45286W        W88339  27.022   0.989  15.957 -0.1324  0.2072 -0.1740
45287W        W88340  18.535   5.552   2.569 -0.1023  0.0704  0.1158
45288W        W88341  21.012   4.191  20.954 -0.1811  0.2699 -0.3566
45289W        W88342  29.226  16.500  18.052  0.0399 -0.2631  0.1478
45290W        W88343  19.622  24.424  18.592  0.1729  0.0867 -0.0614
45291W        W88344  20.722   4.006  18.330 -0.2794  0.0365  0.0580
45292W        W88345   4.063  28.566  19.355  0.2162  0.0621  0.1068
45293W        W88346  18.368  32.218  14.727 -0.0740 -0.3168 -0.0128
45294W        W88347  30.890  11.614  17.221  0.2935 -0.2087  0.0334
45295W        W88348  30.545  28.015  18.947 -0.0167  0.3303 -0.0832
45296W        W88349   7.080  25.789  23.777  0.0887 -0.0012 -0.2143
45297W        W88350  18.685  31.485  24.082 -0.0525  0.0428  0.0859
45298W        W88351  24.903  33.565  25.189 -0.0347 -0.1012 -0.1080
45299W        W88352  23.266  13.530  15.055  0.0921 -0.4625 -0.3420
45300W        W88353  14.080  17.322  25.363  0.3660  0.2723 -0.3128
45301W        W88354  32.914  34.033  17.885  0.2277 -0.1665 -0.1045
45302W        W88355  12.470   5.658  21.102  0.0733  0.0721  0.2067
45303W        W88356  11.170  12.458  14.709 -0.0038  0.2226  0.4292
45304W        W88357  14.736  26.746  23.225  0.2632 -0.0846 -0.1451
45305W        W88358  21.614  31.287  28.407  0.3258  0.1928  0.0898
45306W        W88359  28.462  28.704  19.238  0.1157 -0.2639 -0.1182
45307W        W88360  26.260  13.591  15.442 -0.3778 -0.2491 -0.2759
45308W        W88361  24.319  22.842  24.376  0.0948 -0.0432 -0.3489
45309W        W88362  31.515  32.075  23.884  0.0249  0.3874 -0.0420
45310W        W88363  31.725  30.161  26.722  0.1724 -0.1955  0.0493
45311W        W88364   7.176   1.052  25.876  0.1600 -0.0846 -0.0181
45312W        W88365   3.691  27.558  24.207  0.3137 -0.0441 -0.0266
45313W        W88366  24.084  27.667   0.507  0.0766  0.2973  0.0329
45314W        W88367  18.486  12.172  22.627  0.0503  0.0854 -0.0493
45315W        W88368   7.888  20.682  13.571  0.1027  0.1576  0.0005
45316W        W88369   0.646   0.850   7.519  0.1867 -0.2563 -0.1035
45317W        W88370  30.585   9.916  25.896  0.0639 -0.1611  0.0681
45318W        W88371   4.910  13.524  21.864 -0.0313  0.0662 -0.1724
45319W        W88372  20.197   8.150  28.830  0.1060 -0.1355 -0.0280
45320W        W88373  33.304  29.704  26.047  0.0923 -0.0397 -0.3113
45321W        W88374  26.512   8.473  22.775 -0.0200  0.0619 -0.0611
45322W        W88375  30.151  33.798  14.929 -0.0718 -0.0052  0.1510
45323W        W88376   8.605  12.024   1.429  0.0369 -0.0123 -0.0105
45324W        W88377  20.664   0.960  23.087 -0.0091  0.1789  0.0650
45325W        W88378  21.930  18.787  16.990 -0.4976 -0.0459 -0.2398
45326W        W88379  30.871  31.494   5.120 -0.3987 -0.2133  0.0042
45327W        W88380   1.593   4.472  24.322 -0.0243 -0.2744  0.0530
45328W        W88381   2.416  15.875  15.528 -0.0142  0.1843  0.0327
45329W        W88382  28.646  31.974  17.371 -0.0136 -0.0764  0.0869
45330W        W88383  23.164  32.224  22.505 -0.0016 -0.0459  0.0260
45331W        W88384  29.492  10.220  27.372  0.0627 -0.2013 -0.2535
45332W        W88385  21.038   0.461  18.940  0.3294  0.2648  0.1142
45333W        W88386  22.258  24.046  16.313 -0.3536 -0.0101 -0.0304
45334W        W88387  13.848   2.181  28.819 -0.0134 -0.0999 -0.2188
45335W        W88388  20.727   2.338  19.721 -0.3083 -0.3567  0.0725
45336W        W88389   2.730  25.094  20.775 -0.0388  0.1978  0.0326
45337W        W88390  32.353   2.899  28.904  0.4090 -0.1419  0.3054
45338W        W88391  15.110  30.966  21.411  0.1679  0.1670  0.0946
45339W        W88392  14.828  24.496  26.450 -0.0446  0.0410  0.2228
45340W        W88393  32.182   4.262  16.669  0.1382  0.2480  0.2089
45341W        W88394   6.880   3.984  14.085 -0.1411 -0.0060  0.0876
45342W        W88395  30.728  13.055  16.071  0.0480  0.0548 -0.2899
45343W        W88396   3.281   7.487  20.133 -0.0703 -0.0334 -0.2334
45344W        W88397   1.277  13.783  14.278 -0.1592 -0.2160 -0.3059
45345W        W88398   2.978  31.977   2.040 -0.0119  0.2235 -0.2988
45346W        W88399  24.070  30.852  25.767 -0.1097  0.2285 -0.1849
45347W        W88400  16.374  13.949  25.816 -0.1190  0.0277 -0.2881
45348W        W88401   1.870   2.378  20.106  0.0607  0.8215  0.2544
45349W        W88402   3.929  34.657   8.412 -0.0302 -0.1819 -0.1517
45350W        W88403  24.978   0.135  17.513 -0.3423 -0.1677  0.1785
45351W        W88404  24.693  29.922  14.309 -0.0036 -0.0260 -0.3334
45352W        W88405   0.585   6.899  20.027  0.0463  0.2164 -0.3908
45353W        W88406   0.105  30.670  20.485  0.0344 -0.0294 -0.0469
45354W        W88407  29.182  20.613   5.977 -0.0525 -0.0803  0.2761
45355W        W88408   2.394   6.514  16.177 -0.0347 -0.1735  0.3204
45356W        W88409  16.042  28.960  20.546  0.1411 -0.0607 -0.0372
45357W        W88410  22.120  29.934  15.196  0.3349  0.4287  0.0101
45358W        W88411  28.145  33.708  28.602  0.0879 -0.1115 -0.0088
45359W        W88412  22.663  27.262   2.295 -0.2676 -0.0941  0.0172
45360W        W88413  30.945   1.663  18.837  0.1470 -0.3148 -0.1999
45361W        W88414   1.742  31.441  15.844  0.5435 -0.0244 -0.2158
45362W        W88415  19.057  31.574  19.411 -0.3712 -0.1153  0.2460
45363W        W88416  27.882   4.719  17.305  0.0770  0.1748 -0.1906
45364W        W88417  25.803  10.998  19.349  0.0328  0.0895 -0.1050
45365W        W88418  33.157  29.819  29.113 -0.2378 -0.2255 -0.1182
45366W        W88419   4.449   0.051  20.455 -0.1953  0.1105  0.1067
45367W        W88420   3.220  27.565  25.900 -0.0646 -0.3009  0.1179
45368W        W88421  27.945  21.906  15.094  0.0781 -0.2047 -0.0216
45369W        W88422   4.977   2.435  21.115 -0.0355 -0.3849  0.1046
45370W        W88423  30.896  24.914   0.188 -0.1975 -0.1015  0.0314
45371W        W88424  31.730   1.395  21.874 -0.0782  0.4918 -0.0143
45372W        W88425  20.200  13.047  27.251  0.2064  0.0679 -0.0252
45373W        W88426  31.053  10.793  16.683  0.1302  0.1158 -0.0038
45374W        W88427  33.896  27.779  25.498  0.2212 -0.0112  0.0281
45375W        W88428   5.245  29.343  19.088 -0.0536 -0.1212  0.3609
45376W        W88429   0.434  20.555  25.825  0.0902 -0.2629 -0.3327
45377W        W88430  11.711  28.301  25.347  0.1988 -0.1013  0.0992
45378W        W88431  20.722  34.618  14.376 -0.2540  0.3377 -0.1351
45379W        W88432  25.618   3.200  20.001  0.0640 -0.1644 -0.0877
45380W        W88433  18.620   2.654  17.506  0.2916 -0.0979 -0.2659
45381W        W88434  22.299  20.775  20.789  0.0558  0.2252 -0.1348
45382W        W88435   6.846  34.623  24.083 -0.1977  0.2459 -0.2545
45383W        W88436  14.506  28.923  18.494  0.1017  0.0326  0.1355
45384W        W88437  30.372  17.169  13.714  0.0513 -0.0668  0.1218
45385W        W88438   0.822   6.609  14.945 -0.1976  0.0710 -0.0293
45386W        W88439  15.206   3.218  22.387  0.0917  0.1146  0.0583
45387W        W88440   3.637   1.559  24.997 -0.3802  0.0588  0.1127
45388W        W88441  14.208  28.941  16.028  0.1780 -0.2678  0.0687
45389W        W88442  11.053  15.866  19.295  0.1422  0.3194  0.3502
45390W        W88443  12.105  34.633  19.292 -0.0368  0.1005 -0.2328
45391W        W88444  24.041  26.710  18.451  0.2062 -0.1365 -0.3245
45392W        W88445   9.298  29.639  24.116  0.2337  0.0201 -0.0007
45393W        W88446  33.536  12.810  21.379  0.0354 -0.2228 -0.1067
45394W        W88447  26.241  11.548  20.637  0.2885  0.1443  0.1704
45395W        W88448  12.749   6.114  25.677  0.1713 -0.0063  0.3933
45396W        W88449   0.881  34.530  15.478 -0.3633 -0.0099 -0.0928
45397W        W88450  32.086  14.586  23.586  0.1557 -0.0827 -0.1080
45398W        W88451  25.628   2.200  14.626  0.0117 -0.0153  0.1928
45399W        W88452  16.769  10.299  14.158 -0.4190  0.0903 -0.0480
45400W        W88453  18.815  10.780  18.231 -0.0851 -0.0859  0.2241
45401W        W88454  23.895   1.695  16.398 -0.2411 -0.1735  0.0778
45402W        W88455   4.097  29.257   0.177 -0.0516 -0.0208 -0.2170
45403W        W88456  10.308   1.367  17.088 -0.1411 -0.3563  0.3079
45404W        W88457   1.099   6.383  16.782 -0.0454 -0.0123 -0.2862
45405W        W88458  34.566  19.361  18.606  0.1588  0.0596  0.2288
45406W        W88459   3.063  32.966  16.642  0.1645 -0.1014  0.0857
45407W        W88460   2.880  12.588   2.644  0.0320 -0.1889 -0.1891
45408W        W88461  27.039  30.407  18.133  0.1497  0.1866 -0.0371
45409W        W88462  13.331  15.932  17.313  0.0370 -0.2569  0.3191
45410W        W88463  27.318   0.199  26.510  0.1001  0.2133  0.2268
45411W        W88464  11.843  31.224   6.164  0.0259 -0.0588 -0.1933
45412W        W88465  13.543  20.419  16.681  0.0913  0.0911  0.2478
45413W        W88466   7.127  33.214  19.317  0.0917  0.2019  0.0442
45414W        W88467  18.785  10.686  20.627 -0.1381  0.0464 -0.1026
45415W        W88468   7.110   0.905  24.285  0.4541 -0.0672 -0.0247
45416W        W88469  18.207  26.675  15.795  0.1901 -0.1078 -0.3198
45417W        W88470  10.376  28.003   9.453 -0.1873 -0.0820  0.0629
45418W        W88471   7.174  11.585   7.373 -0.0368  0.2972 -0.1169
45419W        W88472  14.881  22.587  20.667  0.3201  0.0520 -0.0276
45420W        W88473  31.872   3.392  15.083  0.2839  0.0654 -0.2311
45421W        W88474  28.962   9.385  15.371 -0.2178 -0.1258 -0.0167
45422W        W88475  23.623  29.358   1.210 -0.0831 -0.0991  0.0063
45423W        W88476  29.338  32.851  21.289 -0.0501 -0.0271 -0.0702
45424W        W88477   1.811  34.210  14.509 -0.1225 -0.0502 -0.0379
45425W        W88478  26.449  30.443  15.580 -0.2445  0.0385  0.0403
45426W        W88479  26.279   7.081   6.240 -0.1128 -0.2566 -0.1371
45427W        W88480  23.493   5.603  23.824 -0.0831  0.4413  0.2539
45428W        W88481  34.637   3.645  17.708 -0.1450 -0.0421 -0.0392
45429W        W88482  12.311   1.500  22.779 -0.1262 -0.3436  0.2162
45430W        W88483  31.863  30.237  14.174 -0.2280  0.2149  0.2447
45431W        W88484   6.433   4.346  17.431 -0.0065 -0.0111 -0.0234
45432W        W88485  20.814  28.787  19.520  0.1145  0.2768 -0.0808
45433W        W88486  32.079  20.545  18.399 -0.0897  0.1066 -0.3289
45434W        W88487   0.687   1.174  16.986  0.1932  0.0724  0.0335
45435W        W88488  26.381   2.758  25.116  0.0110 -0.2206  0.3714
45436W        W88489   2.814  25.737  23.737 -0.1103 -0.0833  0.1864
45437W        W88490   9.719   7.307   6.915 -0.0596 -0.0037  0.1798
45438W        W88491   0.928  26.616  14.684  0.1667 -0.2802  0.0076
45439W        W88492  12.346  32.458  23.391  0.0631  0.2375 -0.2079
45440W        W88493  31.792  20.043  22.430 -0.1088  0.1800  0.0229
45441W        W88494   4.637  33.677  13.515 -0.2268  0.0196 -0.1232
45442W        W88495  27.670  26.823  25.433  0.1888  0.0640  0.1730
45443W        W88496  25.043   7.594  20.793  0.0324 -0.0578 -0.1128
45444W        W88497  19.315  30.496  25.867 -0.1978  0.3135  0.0319
45445W        W88498  24.966   5.427  25.515  0.0508  0.4261  0.0218
45446W        W88499  30.631   0.533  21.980  0.1206  0.2738 -0.2681
45447W        W88500   4.790  22.388   3.186  0.0733 -0.1473  0.3590
45448W        W88501  30.548  33.100  15.044  0.4708 -0.0979 -0.1814
45449W        W88502  26.646  33.338  24.742  0.1494  0.2242 -0.0292
45450W        W88503  31.129  33.383  22.997 -0.1334 -0.3982  0.1518
45451W        W88504  32.072  29.873  15.343  0.0944  0.0604 -0.2091
45452W        W88505  29.380   6.540  27.424  0.4630  0.1192  0.0215
45453W        W88506  28.319   6.435  25.020 -0.3861 -0.3654 -0.3177
45454W        W88507  20.237  31.011  20.678  0.2996 -0.1005 -0.3782
45455W        W88508  17.531  18.872  15.580  0.2689 -0.2885  0.2456
45456W        W88509  33.811   1.995  22.232  0.0798  0.2190 -0.2123
45457W        W88510  15.914   4.728  28.247  0.1171 -0.0561 -0.0103
45458W        W88511  11.053   1.985  28.747 -0.1142 -0.0021 -0.1202
45459W        W88512   6.652  33.452  16.977 -0.0765 -0.2047  0.2116
45460W        W88513  29.131   4.731  19.856 -0.0067 -0.0092  0.1673
45461W        W88514   6.226  29.469   6.958 -0.1387 -0.2846 -0.1788
45462W        W88515  23.526  25.340  18.818 -0.1639 -0.0504  0.0818
45463W        W88516  32.846  31.726  20.033 -0.1278 -0.3025  0.0452
45464W        W88517  10.861   1.238  15.654 -0.1805  0.1668  0.0645
45465W        W88518  24.300   1.155  20.279 -0.1302 -0.3921  0.2957
45466W        W88519   2.923   9.495   0.049  0.0127 -0.1115 -0.2541
45467W        W88520  27.408   1.272  16.815 -0.0041 -0.1782  0.0398
45468W        W88521  27.068  20.953  20.430 -0.0369  0.1667 -0.1207
45469W        W88522   0.902  11.825  25.921  0.2192  0.0225 -0.0961
45470W        W88523  25.012  25.483   0.181  0.2526 -0.0624  0.0210
45471W        W88524  24.271  31.365  20.897  0.0365 -0.0438  0.0927
45472W        W88525  23.015  32.379  15.665  0.0705 -0.1178  0.0357
45473W        W88526   7.411  24.317   0.171 -0.0463 -0.4547  0.0980
45474W        W88527  30.279  32.527  22.358  0.3927  0.0923 -0.1047
45475W        W88528  28.894   3.846  16.845  0.0380  0.2512  0.0818
45476W        W88529  26.701  23.055  17.220 -0.2578 -0.1143 -0.4693
45477W        W88530  29.875  34.150  18.797  0.1548  0.0132 -0.0160
45478W        W88531  26.588  33.719   7.398  0.1472 -0.0273 -0.0555
45479W        W88532  29.271  29.350  19.858  0.0784  0.1826 -0.0433
45480W        W88533  26.714  10.942   3.356  0.0376 -0.0536  0.2585
45481W        W88534  20.340  31.623  27.083 -0.0456  0.1216  0.2927
45482W        W88535  23.092  28.189  28.088 -0.0966  0.2955  0.1464
45483W        W88536   6.661   0.452  21.234 -0.2211  0.0563 -0.0899
45484W        W88537  12.877  28.818  18.325  0.2303 -0.0321 -0.2977
45485W        W88538   4.548  25.202  22.371 -0.2314  0.1633 -0.0271
45486W        W88539  22.311  18.699  23.975 -0.2247 -0.0692 -0.1340
45487W        W88540  27.371  21.890  16.993 -0.4639  0.2074  0.1574
45488W        W88541  19.774   1.902  24.935 -0.0168  0.0261  0.0809
45489W        W88542  31.078   6.103  18.778 -0.0636 -0.1749 -0.1286
45490W        W88543  28.763  27.522  14.298  0.1047 -0.3609 -0.0076
45491W        W88544   0.229  25.594  19.577  0.2787  0.1400  0.0710
45492W        W88545  21.913   1.820   8.098  0.1786  0.5091 -0.3363
45493W        W88546   1.675  16.515  17.983  0.2940  0.5823  0.0618
45494W        W88547  12.049  25.810  15.270 -0.2077  0.0959  0.1788
45495W        W88548  22.781  30.203  22.039  0.1165 -0.1382  0.1457
45496W        W88549  13.011   6.491  19.228 -0.1259 -0.0180 -0.1180
45497W        W88550  24.487   8.290  18.764  0.0873 -0.1230 -0.1034
45498W        W88551  28.002   3.776  14.945  0.2861  0.2197  0.1415
45499W        W88552  21.822   0.818  21.505  0.0693 -0.0925  0.2140
45500W        W88553  23.481  27.046  15.250 -0.0887  0.1543  0.1233
45501W        W88554  30.352   4.717  22.523 -0.0043  0.1139 -0.1366
45502W        W88555  11.325   0.316   9.072  0.3382 -0.2672  0.0037
45503W        W88556   1.328   7.053  28.779 -0.3673  0.2743  0.1786
45504W        W88557  11.134  10.683  27.463 -0.0572 -0.1677 -0.1824
45505W        W88558  27.689   7.804  24.573 -0.2102 -0.1904  0.0765
45506W        W88559  28.875   9.111  24.437 -0.2347 -0.0547  0.1701
45507W        W88560   3.236  16.510  26.176 -0.1749 -0.3188 -0.0567
45508W        W88561   7.735   0.251  26.341 -0.0413  0.1498 -0.2741
45509W        W88562   7.581  29.720  21.104  0.0444 -0.0608 -0.0588
45510W        W88563  32.263  31.010  21.942  0.1955 -0.0839  0.1262
45511W        W88564  24.397  20.413  15.292 -0.1916  0.0204  0.1791
45512W        W88565   3.227  26.770   0.394 -0.0195 -0.1848  0.2026
45513W        W88566  32.008   9.028  17.416  0.0835  0.2671 -0.0877
45514W        W88567  10.522   5.179  20.490 -0.3370  0.1234 -0.0341
45515W        W88568  18.555  10.258  16.841 -0.1857 -0.2880  0.2437
45516W        W88569  16.504   6.115  16.207  0.1138 -0.1621 -0.0349
45517W        W88570  24.253  28.518  20.250  0.0598  0.2147  0.0308
45518W        W88571   1.417  18.335  15.000 -0.1198  0.0837  0.2158
45519W        W88572  30.374  31.188  16.011 -0.2130  0.3468 -0.1855
45520W        W88573  12.190  11.660  10.054 -0.1245  0.0315  0.2184
45521W        W88574  11.381  10.383  19.838  0.0411 -0.0082  0.2825
45522W        W88575   0.466  34.228  14.168  0.1554  0.3490  0.0933
45523W        W88576  34.116  27.796  18.725 -0.0081 -0.0390 -0.2939
45524W        W88577  33.179  11.888  18.684 -0.0361 -0.1277  0.0866
45525W        W88578  29.674   7.215  22.442 -0.2372 -0.1200  0.0006
45526W        W88579  20.199  11.733  26.777  0.2376  0.1801 -0.2288
45527W        W88580  21.745  27.442   5.498  0.1693 -0.0439  0.1858
45528W        W88581  30.372   5.083  21.042 -0.0504  0.2252  0.1745
45529W        W88582   3.138  11.909  24.225 -0.1024 -0.2238  0.1381
45530W        W88583  31.263  31.744  21.088  0.0348  0.2328  0.0121
45531W        W88584  32.352  30.055  14.392 -0.1441 -0.0868  0.0122
45532W        W88585   1.106   7.140  14.974  0.0040 -0.2327  0.1007
45533W        W88586  32.890  24.208  15.231 -0.0849  0.1773 -0.1308
45534W        W88587   3.232   5.025  22.610 -0.0817 -0.1791  0.1530
45535W        W88588  29.465  21.936  18.740  0.0916 -0.0353  0.0934
45536W        W88589   0.273   4.613  21.533 -0.1475  0.1593 -0.0606
45537W        W88590   2.337  23.510  22.660 -0.1553 -0.4884 -0.1545
45538W        W88591  18.374   1.489  15.014  0.1528  0.1358  0.0157
45539W        W88592  33.258  25.741  13.729  0.1354 -0.1288  0.2695
45540W        W88593  31.465  18.289  21.843  0.1523 -0.0276  0.0196
45541W        W88594  28.346  17.010  27.060  0.2088  0.0344 -0.1003
45542W        W88595  25.627  31.585  20.101  0.1894  0.0016 -0.2365
45543W        W88596  18.770  29.637  26.808 -0.1194 -0.2132 -0.1917
45544W        W88597   9.707  14.745   5.984  0.0178 -0.1522  0.0458
45545W        W88598  24.232  22.481  18.360  0.1265  0.1916  0.1340
45546W        W88599  29.670   6.448  18.589  0.0596  0.0395 -0.3029
45547W        W88600  29.018  30.514  13.571  0.0959  0.2825  0.1448
45548W        W88601  26.499  24.770  25.589  0.2939  0.1970 -0.0826
45549W        W88602  33.577   3.901  28.846  0.2596  0.2968  0.1270
45550W        W88603  18.153   4.197   1.119  0.0350  0.1603 -0.0000
45551W        W88604  17.833   2.891   0.490 -0.0446  0.1937 -0.0523
45552W        W88605   1.402  33.225  28.975 -0.2256  0.1587 -0.1229
45553W        W88606  10.311  22.312  21.622  0.1949 -0.2518  0.1526
45554W        W88607  19.552  21.085  19.066  0.1088 -0.1764  0.2212
45555W        W88608   8.265   2.542  19.938  0.0856 -0.3410 -0.2411
45556W        W88609   7.242  25.352  18.778  0.5145 -0.3158  0.0868
45557W        W88610  30.440  30.102   3.004 -0.0639  0.0189  0.2477
45558W        W88611  24.626   6.593  24.585 -0.1845 -0.3803  0.0078
45559W        W88612  26.608  13.446  28.689  0.1322  0.1941 -0.1938
45560W        W88613  17.158  32.951  23.443  0.0287 -0.0266  0.3235
45561W        W88614  12.464   1.594   1.058  0.0038 -0.0134  0.0582
45562W        W88615  33.976  27.763  20.427  0.0882 -0.0007 -0.1700
45563W        W88616   8.338  34.322   1.315  0.0549  0.0196 -0.2536
45564W        W88617  10.318  33.157  19.282  0.2329  0.0804 -0.0491
45565W        W88618  31.470   6.011  28.887 -0.1109  0.3112  0.1379
45566W        W88619   6.289   7.355  23.504 -0.1423  0.1656  0.1369
45567W        W88620  23.454  31.812  18.325 -0.1675 -0.3108  0.1095
45568W        W88621  34.482  33.007   1.859  0.1444 -0.0779  0.3611
45569W        W88622  30.135  30.151   9.884 -0.1195 -0.1484  0.0772
45570W        W88623  22.369   1.743  26.275  0.0915 -0.4730  0.1424
45571W        W88624   6.133   0.329  19.868 -0.0900 -0.1251  0.1178
45572W        W88625  23.067  17.172   2.514 -0.1185  0.1005  0.0199
45573W        W88626   0.542   1.817  14.283  0.2144 -0.1262 -0.1298
45574W        W88627  14.948  34.559  23.375  0.1235  0.0338 -0.0917
45575W        W88628   3.184  21.913  18.315  0.0345 -0.3151 -0.0886
45576W        W88629  12.129  18.742   2.768 -0.0875 -0.0118  0.0227
45577W        W88630   2.225  19.470  23.676  0.1433 -0.0327  0.1043
45578W        W88631  17.160  24.903  21.566  0.1229 -0.0911  0.0136
45579W        W88632  31.702  32.447  18.566 -0.0684 -0.1900 -0.4707
45580W        W88633  17.378   1.426   8.727  0.0871  0.5326  0.4459
45581W        W88634  24.479  33.112   8.743 -0.2352  0.0468 -0.0333
45582W        W88635   6.847  26.309   0.835  0.0909 -0.0853 -0.1012
45583W        W88636  31.018  26.007  17.602 -0.1464  0.2026  0.2371
45584W        W88637  32.856   9.818  22.956 -0.3092 -0.2246  0.1939
45585W        W88638  14.738   7.730  28.600 -0.0052 -0.0161 -0.0059
45586W        W88639  16.438  15.259  12.856 -0.2466 -0.0769 -0.1434
45587W        W88640  22.588  13.751  13.828  0.2105 -0.1060  0.1219
45588W        W88641  19.333  34.455  24.319 -0.3041 -0.1148  0.0450
45589W        W88642  30.387   2.127  15.952 -0.1927 -0.0191 -0.2268
45590W        W88643  32.094  26.603  18.494 -0.2202  0.1159  0.0379
45591W        W88644   6.355  11.267  20.017 -0.0061  0.0332  0.0143
45592W        W88645  31.883   3.853  28.878  0.3962 -0.0377  0.0262
45593W        W88646  26.501   4.378  21.583 -0.1702 -0.3078 -0.1767
45594W        W88647  28.309   1.407  18.211 -0.3630 -0.1008 -0.3998
45595W        W88648  20.288   0.894  27.226 -0.2707 -0.0965  0.0542
45596W        W88649  31.538  32.128  18.141 -0.1047 -0.2513 -0.0583
45597W        W88650  33.607  29.686  17.316 -0.0597 -0.1319  0.0187
45598W        W88651  26.648  34.180  16.372  0.0682 -0.1312 -0.2076
45599W        W88652  24.215   8.614   7.433 -0.0462 -0.2570  0.1306
45600W        W88653  12.158   0.746  18.694  0.0728 -0.2566  0.0317
45601W        W88654  18.992  24.475  17.591  0.2250 -0.0729 -0.0771
45602W        W88655  27.485  24.814  20.098  0.0847  0.0812 -0.1733
45603W        W88656   1.899   6.642  14.718 -0.0053  0.2443  0.2085
45604W        W88657  25.636   8.325  18.120 -0.2225  0.0822  0.0816
45605W        W88658  27.944   1.273  15.772  0.0622  0.0297  0.1550
45606W        W88659  19.822   1.584  17.860 -0.0757  0.0808 -0.3474
45607W        W88660  27.241  11.109  27.906 -0.0719 -0.0865  0.1737
45608W        W88661  28.932   8.047  21.462  0.2605  0.0733 -0.1693
45609W        W88662   1.450   5.985   2.131 -0.1584 -0.2335 -0.2642
45610W        W88663  20.040  25.478  28.551 -0.4461 -0.0829  0.0482
45611W        W88664  34.271   9.773   6.974 -0.2046 -0.2143  0.2591
45612W        W88665   6.119   1.149  15.914  0.1854  0.1045  0.0322
45613W        W88666  21.942   8.850   9.121 -0.0869  0.0895  0.1211
45614W        W88667  15.659   1.892   1.925  0.1712 -0.1358 -0.0466
45615W        W88668   8.384   6.757  20.751 -0.2073 -0.2319 -0.1584
45616W        W88669  29.429  32.199   0.750 -0.3338 -0.0354 -0.1664
45617W        W88670  30.643   7.010  26.973 -0.0582 -0.0631 -0.1968
45618W        W88671  11.881  26.523  14.351 -0.0261 -0.0337 -0.2044
45619W        W88672  25.314  23.773   4.086 -0.0804  0.1603  0.3150
45620W        W88673  29.891   4.184  17.505 -0.1932  0.1944  0.1407
45621W        W88674   7.933  17.917  15.278  0.1809  0.2657  0.0007
45622W        W88675   4.119   1.640  13.861 -0.5972  0.1784 -0.0876
45623W        W88676  17.132   0.490  21.579 -0.0205  0.3026  0.0562
45624W        W88677   1.852   7.180   6.208 -0.2832 -0.1567  0.1206
45625W        W88678  27.140  29.266   2.135  0.2396  0.0246  0.0917
45626W        W88679   0.667  15.871  22.652 -0.1717 -0.1924 -0.3620
45627W        W88680  15.326   8.267  18.259 -0.1050  0.0261 -0.1304
45628W        W88681  10.290   0.361  18.219  0.0040 -0.1134  0.0083
45629W        W88682   3.758   5.537   8.094 -0.0816 -0.0094  0.1457
45630W        W88683  34.009  21.079  17.975 -0.2414  0.2588 -0.1955
45631W        W88684  26.444  26.872  17.108  0.1457 -0.0733  0.3200
45632W        W88685   3.602  32.025  19.221 -0.2259  0.1482 -0.0307
45633W        W88686  31.080  11.834  26.568 -0.0509  0.0195  0.1660
45634W        W88687  23.438   3.437  23.184  0.1359 -0.1433  0.1842
45635W        W88688  16.923   1.665  20.375  0.2758  0.0374 -0.1946
45636W        W88689   8.890   1.778   8.240  0.2275 -0.0761 -0.2352
45637W        W88690  27.994  11.379   3.908 -0.2961  0.0572  0.0555
45638W        W88691   6.785  31.086  18.374  0.0009 -0.1423 -0.1314
45639W        W88692  26.829   2.206  28.178  0.0095  0.1342 -0.1466
45640W        W88693  34.096   0.543   4.779  0.1573 -0.0193  0.1416
45641W        W88694  25.051   0.871   4.877  0.1038 -0.0185  0.1768
45642W        W88695   2.464  14.673  21.055 -0.2335 -0.0399 -0.1893
45643W        W88696  26.064  27.828  16.088  0.0427  0.3933  0.1182
45644W        W88697  29.611  33.260  18.227  0.3642 -0.0442  0.0660
45645W        W88698  33.737  21.905  25.130 -0.0104 -0.0393 -0.0675
45646W        W88699  32.321  28.983  26.424  0.0899 -0.3732  0.3428
45647W        W88700  24.177  27.658  15.263 -0.1316  0.2565 -0.2269
45648W        W88701  23.989   4.647  15.145 -0.0446  0.3580 -0.0379
45649W        W88702   3.210  23.019  24.948  0.1148  0.2540  0.1856
45650W        W88703   5.540   2.066  17.322  0.1203 -0.2214 -0.0587
45651W        W88704   4.772  26.221   4.793  0.0099  0.2202 -0.0378
45652W        W88705   8.632   8.156  15.059  0.0393 -0.0950 -0.0878
45653W        W88706  13.078  22.222   2.433  0.2577  0.1098  0.3691
45654W        W88707  20.058  14.804   2.922 -0.0103  0.1631 -0.0405
45655W        W88708  31.136  25.556   8.252 -0.3185  0.3758 -0.0909
45656W        W88709  31.869  14.030  19.276 -0.0892  0.0919 -0.1508
45657W        W88710  13.571   4.785   1.905 -0.2231 -0.0205  0.1121
45658W        W88711  29.666   9.949   0.795 -0.4362 -0.1121  0.0375
45659W        W88712  21.756   3.369  23.461  0.1883  0.1205  0.0259
45660W        W88713  12.186   5.563  16.616 -0.0843  0.0570  0.0784
45661W        W88714   7.986  27.656   3.121  0.0602 -0.2009  0.0771
45662W        W88715  31.023   8.223  21.516 -0.1383  0.0236  0.0405
45663W        W88716  30.199   7.686   6.593  0.0811  0.0234 -0.0687
45664W        W88717  23.771   4.809  16.457 -0.0807  0.0618 -0.1790
45665W        W88718  28.844  34.396  17.799 -0.0777 -0.0004  0.0645
45666W        W88719   0.571   4.118  13.949  0.0669 -0.1127  0.1360
45667W        W88720  31.645  26.252  24.761  0.2509  0.2064  0.1741
45668W        W88721   6.438  34.087  15.209 -0.1701  0.1802  0.1680
45669W        W88722  31.849  19.633  23.066 -0.1008  0.3558  0.3793
45670W        W88723  25.472  10.677  19.146 -0.1741 -0.1513 -0.1109
45671W        W88724  31.242   4.502   9.094 -0.2037 -0.1170 -0.2784
45672W        W88725  10.495  27.120  25.496 -0.0168 -0.2116  0.2371
45673W        W88726   9.013  23.957  14.566 -0.0045 -0.0928  0.1496
45674W        W88727   1.042   9.542   9.565 -0.1959 -0.1561  0.2539
45675W        W88728   3.118   7.964  21.030 -0.2397 -0.2011 -0.1506
45676W        W88729  10.205  10.946  26.321  0.0972  0.1484 -0.1314
45677W        W88730  18.055  33.610  27.632  0.3885  0.1885 -0.1963
45678W        W88731   3.684  30.631  25.652  0.1100  0.0986  0.2483
45679W        W88732  16.707  25.618  23.956  0.0776 -0.1207  0.3731
45680W        W88733  25.525  31.458  21.468  0.1592  0.1060  0.0420
45681W        W88734  16.104   5.098  16.414  0.4147  0.0022 -0.5639
45682W        W88735  21.601  10.653   0.194  0.2472  0.2457 -0.0543
45683W        W88736   9.835  24.031  20.847 -0.1086 -0.1481  0.0311
45684W        W88737  30.073  17.633   1.899  0.1440 -0.0293 -0.0185
45685W        W88738  27.370  23.128  18.863 -0.0390  0.0013 -0.0875
45686W        W88739  17.579  21.258   3.943  0.0664  0.0974 -0.0454
45687W        W88740  31.618  29.471  23.101 -0.0510  0.1043  0.0954
45688W        W88741  29.383  33.081  14.097  0.0075  0.0524 -0.1370
45689W        W88742   0.413  12.959  18.899  0.2347 -0.0976  0.1902
45690W        W88743   4.951   0.173  23.944 -0.1079 -0.3388 -0.3438
45691W        W88744  19.219  29.573  25.987  0.2152 -0.1860  0.1330
45692W        W88745   8.046   6.231  18.488 -0.0182 -0.2668 -0.1443
45693W        W88746  28.158   3.047   2.908  0.3288 -0.0807 -0.0140
45694W        W88747   3.732  31.262  27.663 -0.0446  0.2981  0.3838
45695W        W88748  11.426   5.595  20.542 -0.1549  0.2693  0.3073
45696W        W88749  33.567   2.530  15.444 -0.3137 -0.1868 -0.1859
45697W        W88750  26.304   7.108   3.617 -0.2739 -0.2915  0.1119
45698W        W88751  28.180  30.489  14.174  0.1581  0.0642  0.1898
45699W        W88752   4.692  21.858  17.432 -0.0429  0.0285 -0.1616
45700W        W88753  32.270  27.804  21.545 -0.2622 -0.0272  0.0158
45701W        W88754   1.960  26.192  15.175 -0.2110  0.3001 -0.1673
45702W        W88755   2.720  30.208  24.604 -0.2159  0.3417 -0.2546
45703W        W88756  22.598  17.986  18.780  0.0949 -0.0107 -0.0943
45704W        W88757   3.256   9.434  25.173  0.0806 -0.1223 -0.1852
45705W        W88758  24.928   0.017   7.788  0.0552  0.0341  0.2350
45706W        W88759  22.022   4.720  19.683  0.2141  0.2223 -0.1139
45707W        W88760   9.649  26.703  19.724 -0.1543 -0.0949 -0.0752
45708W        W88761  27.308   5.684  13.988 -0.0955 -0.0672  0.1326
45709W        W88762  29.054  21.290  19.219  0.1197 -0.1698 -0.0190
45710W        W88763  26.887  31.266  22.587 -0.0468 -0.1418 -0.0990
45711W        W88764  17.122  28.853  17.531  0.0969  0.0601 -0.1007
45712W        W88765  19.026   3.647  21.170 -0.2018 -0.0291  0.3431
45713W        W88766  25.167  33.137  19.003  0.3237  0.1326  0.0299
45714W        W88767  26.852  29.880  14.276 -0.2907  0.2280 -0.0981
45715W        W88768  23.146  18.936   6.281  0.1530 -0.0303  0.2431
45716W        W88769  33.742   3.460  28.636  0.0283 -0.2506 -0.0081
45717W        W88770   2.783  29.367   8.549 -0.3667 -0.0071 -0.2024
45718W        W88771  28.771   3.567   9.835 -0.0787 -0.2237  0.0337
45719W        W88772  10.634  17.477  21.189  0.2618 -0.1205  0.1446
45720W        W88773  28.015  17.529   4.152 -0.2003 -0.0283  0.0946
45721W        W88774   4.514   4.147  17.006 -0.0463  0.1132 -0.2242
45722W        W88775   7.841   2.334  16.210 -0.2222 -0.4526 -0.2147
45723W        W88776  16.147  17.263  23.808  0.0577  0.3301 -0.3629
45724W        W88777  28.814  20.894   0.016  0.1756 -0.1509  0.0460
45725W        W88778  16.242  27.419  22.450 -0.2264 -0.0976  0.0728
45726W        W88779  20.389  29.063  19.768 -0.1045  0.0063  0.2196
45727W        W88780  19.690   0.047  22.495 -0.1587 -0.3184 -0.1111
45728W        W88781  22.276  26.539  26.385 -0.1491  0.1825 -0.0312
45729W        W88782   6.168  20.476  14.227  0.1379  0.2196 -0.0752
45730W        W88783  30.007   7.968   9.156  0.0851  0.0817 -0.2411
45731W        W88784  25.044   5.354   2.148  0.0856  0.1403 -0.0646
45732W        W88785  10.201   9.387   1.228  0.0111  0.0189  0.0931
45733W        W88786  20.202  30.150   2.831  0.0165  0.0531  0.2109
45734W        W88787   4.677  15.614  17.526 -0.1436  0.0433 -0.0920
45735W        W88788  14.619   0.025  16.600  0.0296  0.1645  0.0125
45736W        W88789  24.402   3.221   2.470 -0.3291 -0.1827  0.1897
45737W        W88790  23.226  30.231   1.122 -0.2079  0.1089  0.4878
45738W        W88791  27.378   4.804  18.505 -0.1964  0.0078 -0.2728
45739W        W88792  28.436  28.845  25.777  0.1544 -0.0100 -0.0426
45740W        W88793  26.243   2.931  23.166 -0.3626  0.0012 -0.3969
45741W        W88794  31.689  33.794  19.859 -0.2510 -0.1423  0.1795
45742W        W88795   3.915  29.986  21.071 -0.0289  0.1864  0.1703
45743W        W88796   9.451   9.428   6.585 -0.0720 -0.0293  0.2236
45744W        W88797  13.577  22.045  17.035 -0.1287 -0.1656 -0.1162
45745W        W88798   9.735  26.447   6.827 -0.2091  0.2889 -0.0964
45746W        W88799  33.254  10.801  18.855  0.1337  0.1347  0.0052
45747W        W88800   2.399  30.636  18.379 -0.2062 -0.2925  0.0976
45748W        W88801  21.879   5.286  25.904  0.1598  0.0440 -0.1760
45749W        W88802  15.486  10.445   0.030  0.0677 -0.2635 -0.0542
45750W        W88803   3.435   3.572   0.159  0.2790 -0.0275  0.1216
45751W        W88804   4.573   8.725  15.146  0.3225 -0.1280  0.4103
45752W        W88805  28.942   3.868  18.565  0.0668  0.2074  0.1261
45753W        W88806   6.350   5.927  15.694  0.1519 -0.1279 -0.4428
45754W        W88807  32.773  22.349  14.624  0.0818  0.1210 -0.0409
45755W        W88808  11.787  20.764  27.084  0.2999  0.0015 -0.0345
45756W        W88809   0.267  11.740  26.594 -0.1486  0.0389  0.3204
45757W        W88810  12.208  29.836  27.140  0.1040 -0.1523  0.0731
45758W        W88811  32.498   9.400  10.203 -0.4341  0.0635 -0.1124
45759W        W88812   7.116  23.369  29.102  0.0566 -0.0091 -0.1863
45760W        W88813  18.880   0.993  16.801  0.0254  0.1959 -0.1022
45761W        W88814  17.782  27.910  25.257 -0.2926  0.1582  0.0213
45762W        W88815  22.583   6.247   3.384  0.7242  0.1138 -0.0589
45763W        W88816  15.644  21.780  21.251 -0.1132  0.0959  0.5240
45764W        W88817  32.465   0.729  27.540 -0.1630  0.3450 -0.0965
45765W        W88818  29.529   7.349   0.309 -0.1395 -0.0611  0.0662
45766W        W88819  15.096   2.239  16.799 -0.0125  0.2329 -0.4756
45767W        W88820  13.328  32.738  23.753  0.3791  0.0639 -0.0653
45768W        W88821  27.257   0.545  25.627 -0.0040 -0.1706 -0.1690
45769W        W88822   1.305   7.540  28.636 -0.1135 -0.0534  0.2505
45770W        W88823   0.545  32.096   3.334 -0.1200  0.2560  0.1802
45771W        W88824  29.695   0.093  14.167 -0.1448 -0.1198  0.1556
45772W        W88825   5.209  11.659  14.282 -0.1097  0.1029  0.1085
45773W        W88826  29.223  19.280   1.109  0.3038  0.0917 -0.3452
45774W        W88827  24.174  31.733  17.010  0.0142 -0.0204  0.0609
45775W        W88828   5.558  29.639  24.509 -0.2425  0.0902  0.1401
45776W        W88829  32.918  31.104  21.852  0.1959  0.0387  0.1975
45777W        W88830   3.552  34.213  21.307 -0.1747  0.2110 -0.3137
45778W        W88831  32.450  13.136   1.269  0.2397 -0.3643 -0.2653
45779W        W88832  16.154   0.180  16.686  0.0202  0.2467 -0.1571
45780W        W88833  12.356   9.132  29.010  0.1180  0.1573  0.1964
45781W        W88834  31.332  30.509  15.372  0.1251 -0.2804 -0.0749
45782W        W88835  30.823   2.808   8.644 -0.0086 -0.2121  0.0144
45783W        W88836  27.518  29.389  16.932 -0.2737  0.3191  0.0352
45784W        W88837   4.542  33.142   2.868  0.0782  0.0401 -0.2027
45785W        W88838  15.171  33.739  25.045 -0.1151  0.1034 -0.0512
45786W        W88839  34.449  29.892  23.287 -0.0966  0.0605  0.3525
45787W        W88840   8.259   5.048  23.491 -0.0184 -0.2830 -0.0841
45788W        W88841   5.687   5.287  18.513 -0.0828  0.1704  0.1103
45789W        W88842  25.576   4.843  28.316  0.1678  0.0388 -0.1061
45790W        W88843  30.754   7.665  17.808  0.2265 -0.0578 -0.0079
45791W        W88844  25.291  30.683  17.473  0.0299  0.0672 -0.0524
45792W        W88845  25.315   7.603  25.546 -0.1081 -0.2766  0.1372
45793W        W88846  33.241  21.052  23.006 -0.0006  0.2798  0.4551
45794W        W88847  17.396   4.146   4.091 -0.1648  0.0979 -0.2371
45795W        W88848  21.000   8.006   5.268  0.1171  0.0502 -0.3462
45796W        W88849   7.357  26.979  20.172  0.2413 -0.1257 -0.1039
45797W        W88850   9.532  29.868  25.810  0.0960  0.0551  0.1293
45798W        W88851   3.775  31.732   0.295  0.1528  0.0746 -0.1723
45799W        W88852  30.061   7.688  26.116  0.1400 -0.0574 -0.0275
45800W        W88853   1.789   4.736  17.210 -0.0066 -0.0010  0.1403
45801W        W88854  26.284   0.766   0.844 -0.2149 -0.0372  0.0500
45802W        W88855  11.524   7.648  19.224 -0.1788  0.0220  0.1015
45803W        W88856  28.672   3.816  22.662  0.1184 -0.1357 -0.1633
45804W        W88857   8.727  31.880  24.550 -0.0306 -0.0904  0.0648
45805W        W88858  22.201   2.274  16.194 -0.0349  0.0315 -0.1428
45806W        W88859  16.297  10.493  25.198  0.0601  0.1556 -0.0044
45807W        W88860  11.532  29.830  18.333 -0.1082 -0.1539  0.1009
45808W        W88861   5.290   6.662  19.707 -0.1134  0.2418 -0.0801
45809W        W88862  31.477   8.806  25.555  0.0816 -0.2278  0.0486
45810W        W88863  32.935   3.016  14.278  0.0351 -0.0589 -0.1006
45811W        W88864  25.190  32.791  14.143 -0.0003 -0.1544 -0.0847
45812W        W88865  14.167  27.437  17.420  0.0208 -0.1686  0.2010
45813W        W88866  11.179  28.405  19.901 -0.3471 -0.2605  0.2650
45814W        W88867  21.100   1.760   4.673 -0.0481  0.1673  0.0647
45815W        W88868  23.327  27.286  22.530 -0.0405  0.2018 -0.2448
45816W        W88869  23.056  19.133  23.511 -0.3509  0.0091 -0.1023
45817W        W88870  22.371  31.521   0.868  0.0452  0.1420  0.1771
45818W        W88871   4.506  32.009  19.747  0.3249  0.0335  0.3309
45819W        W88872  30.770   8.399  17.157  0.2349 -0.0524 -0.3148
45820W        W88873  11.767  26.569  20.592 -0.0742  0.0375 -0.2010
45821W        W88874  31.575  21.759  16.582  0.1541 -0.1212 -0.2539
45822W        W88875   3.262  29.306  26.143  0.5061 -0.0277 -0.0200
45823W        W88876  26.358  26.627   8.417 -0.1067 -0.2215 -0.4785
45824W        W88877  32.800  16.127  21.062 -0.0137  0.5543 -0.0546
45825W        W88878  21.305  24.434  16.159  0.2115 -0.1424 -0.0695
45826W        W88879  27.876  10.818  17.746  0.2263  0.0051 -0.2407
45827W        W88880  32.818   1.344  14.626 -0.2243  0.1531 -0.0768
45828W        W88881   7.010  17.513  18.439  0.1475  0.4171  0.1349
45829W        W88882   2.877  16.136  19.465 -0.0605 -0.1551  0.1619
45830W        W88883  13.108  33.914  21.161 -0.0820  0.1569  0.2769
45831W        W88884  25.279  26.190  17.991 -0.0738 -0.0416  0.1403
45832W        W88885   5.132  28.038   0.252 -0.0608 -0.2313 -0.0595
45833W        W88886   8.595   2.676  15.429 -0.1843  0.0903 -0.0979
45834W        W88887   7.802  32.295   1.456 -0.0676 -0.4320 -0.2178
45835W        W88888   2.265  20.933  28.787  0.1043  0.1856  0.1209
45836W        W88889  12.506  22.825   4.203 -0.1545 -0.3522 -0.1920
45837W        W88890  34.150   2.504   6.597  0.1433  0.2309  0.1878
45838W        W88891   1.641   3.687  20.874 -0.1770 -0.0207  0.1326
45839W        W88892  28.918  26.157   5.161 -0.0353 -0.0340 -0.0165
45840W        W88893   5.083   2.453  26.540 -0.2594 -0.3316  0.0436
45841W        W88894  23.519   2.600  16.050 -0.1218 -0.1741  0.1054
45842W        W88895   9.132  20.051  23.531 -0.4042  0.2226  0.1083
45843W        W88896   6.954   2.587  20.665  0.1768 -0.0818  0.0769
45844W        W88897  19.564   2.668  22.705 -0.1478 -0.5158  0.3898
45845W        W88898   2.222   2.233   5.009 -0.2194  0.1469  0.1280
45846W        W88899  31.384  28.035   0.848 -0.3539  0.0485  0.1800
45847W        W88900   1.391  30.939   1.290  0.1172  0.0263 -0.0543
45848W        W88901  13.735  29.641   5.267  0.0828  0.1929 -0.1695
45849W        W88902  33.557  22.246  17.865  0.0669  0.2171 -0.0581
45850W        W88903  26.952  15.949  22.797 -0.2470  0.2264  0.0008
45851W        W88904   9.798   1.999  20.452  0.0155  0.0920  0.2257
45852W        W88905  32.570   3.263  16.547 -0.1903  0.1381  0.1378
45853W        W88906  17.320  12.178  13.648  0.1667 -0.0186  0.0345
45854W        W88907  16.784   1.754  14.853 -0.1555 -0.0020 -0.0703
45855W        W88908  28.316   0.398  28.539 -0.1135 -0.1303 -0.2320
45856W        W88909   1.276  31.050   3.184 -0.2955 -0.2450  0.2304
45857W        W88910  31.171   5.380   8.121  0.1973  0.0584 -0.1187
45858W        W88911  20.939  12.204  13.656  0.0107  0.3485  0.1138
45859W        W88912  28.197  26.330   2.126  0.0013 -0.1778 -0.2879
45860W        W88913   3.271  22.379  17.462  0.1265 -0.1460  0.0226
45861W        W88914  23.277  26.023  28.158  0.0127 -0.1096  0.2035
45862W        W88915   8.172  30.684   2.168 -0.2567  0.1899 -0.3517
45863W        W88916  17.383  21.962  26.829  0.3539  0.2003  0.0226
45864W        W88917  14.351  10.218   0.229 -0.1749  0.0899 -0.1287
45865W        W88918  26.723  28.189  17.504  0.0789  0.5011  0.3333
45866W        W88919  18.446  22.688  27.729 -0.0312  0.7346 -0.1583
45867W        W88920   8.017  18.526  19.420  0.1932 -0.3841 -0.0354
45868W        W88921  23.267  27.355   8.662  0.0466 -0.2422 -0.1009
45869W        W88922  34.413  33.739   0.885  0.0186  0.1684  0.0250
45870W        W88923  24.711  27.881  10.520 -0.2256 -0.0752 -0.2541
45871W        W88924  21.139   9.726   3.357 -0.3462 -0.0896 -0.0395
45872W        W88925   0.391   6.927   5.148  0.0207  0.0971 -0.2395
45873W        W88926  23.343  31.826  25.283  0.2427 -0.1284 -0.1982
45874W        W88927  25.138  29.982  14.565  0.1232 -0.0447 -0.0326
45875W        W88928  31.041   7.317  27.306 -0.1217  0.0504 -0.1032
45876W        W88929  11.458  12.237   0.502 -0.2376 -0.2199 -0.2042
45877W        W88930   5.487  20.980  25.003  0.2208  0.0880  0.2480
45878W        W88931  24.003   7.132   0.634  0.2219  0.0860 -0.0589
45879W        W88932  26.629  11.305  15.185 -0.0129 -0.0471 -0.0005
45880W        W88933  34.546   2.076   5.213  0.1442 -0.3272  0.1611
45881W        W88934  29.404  33.830   8.077 -0.0081  0.1008  0.0348
45882W        W88935  11.201  25.625   1.324 -0.1780  0.1517 -0.0098
45883W        W88936  23.196   0.846  26.559  0.1150 -0.0984 -0.1217
45884W        W88937  32.747  29.823   3.006  0.0736 -0.3484 -0.2805
45885W        W88938   9.569   4.029   9.255  0.0002 -0.0895  0.0398
45886W        W88939  33.655   8.980  14.886 -0.2368  0.0527 -0.0815
45887W        W88940  14.526   2.067   4.165  0.1226  0.1606 -0.1956
45888W        W88941  30.440  12.857   0.227  0.2539  0.4524  0.1794
45889W        W88942  21.819   5.019  28.895  0.0998  0.1431 -0.0750
45890W        W88943  25.455  32.584  29.105  0.0091 -0.1787  0.0095
45891W        W88944  31.875  33.734  18.882 -0.1281  0.0356 -0.1430
45892W        W88945  24.865  30.758  29.071 -0.1029 -0.2398  0.0579
45893W        W88946  25.728   0.411  28.370 -0.1622 -0.3485  0.0828
45894W        W88947  32.064  32.735   3.859  0.2515 -0.1038  0.0904
45895W        W88948  29.381   5.616  28.135 -0.1778  0.0230 -0.0431
45896W        W88949  19.103  31.173  26.464  0.1572 -0.2541  0.1747
45897W        W88950  20.896   7.847  15.252 -0.0472 -0.3338 -0.3080
45898W        W88951  26.653   5.846  22.197 -0.2238 -0.1736  0.0861
45899W        W88952  25.787  24.730  23.673 -0.0565  0.2580  0.0079
45900W        W88953   0.278   1.397  21.468 -0.0852 -0.1645 -0.0966
45901W        W88954  32.764  20.626  24.314  0.0339  0.0179  0.2029
45902W        W88955   2.351   2.986  28.971  0.1339  0.1034  0.1419
45903W        W88956   3.125   4.793  17.911  0.0515 -0.2624  0.0392
45904W        W88957  33.894  21.234  28.228 -0.2179  0.0250 -0.1350
45905W        W88958   9.754  29.034   8.190 -0.0420  0.0362  0.2559
45906W        W88959  23.626  17.467   3.091  0.2853  0.1322  0.0443
45907W        W88960  32.863  31.880  22.958 -0.1081  0.0676 -0.1323
45908W        W88961  11.250  18.795  20.951  0.1769 -0.4179 -0.2373
45909W        W88962  34.195  23.000   7.586 -0.0756  0.0042 -0.0042
45910W        W88963   0.593  31.062  17.908 -0.1722 -0.1117  0.0440
45911W        W88964  25.047  28.920  10.066 -0.0480  0.1908 -0.0123
45912W        W88965   5.439   5.585  17.039 -0.1658 -0.0249 -0.0509
45913W        W88966  22.359  23.788   9.545  0.0751 -0.0636  0.1642
45914W        W88967  31.391   8.017   7.426  0.1148 -0.1497  0.1641
45915W        W88968   5.118  30.817  28.729 -0.0982  0.0854  0.1135
45916W        W88969   6.501  23.841  25.698 -0.1885 -0.3341  0.2969
45917W        W88970   1.994   0.600  22.977  0.1943 -0.3377 -0.2224
45918W        W88971   1.210  16.622  15.946  0.0137  0.1048 -0.1890
45919W        W88972  30.602  31.800  22.958  0.0015  0.5510 -0.2778
45920W        W88973   6.964  34.082   9.398  0.1119  0.0412 -0.1598
45921W        W88974  16.088   0.666  21.021 -0.3152 -0.0678 -0.1203
45922W        W88975  29.861   1.080  27.308  0.2560 -0.1935  0.2139
45923W        W88976   3.116   6.107  15.069  0.1819 -0.0212  0.0695
45924W        W88977  34.680  32.287  17.877  0.1980  0.2103  0.2600
45925W        W88978  15.977  30.872   9.977 -0.0279 -0.1986  0.2122
45926W        W88979   2.348  26.493   3.722  0.4487  0.1956 -0.0645
45927W        W88980  27.234   9.067  23.188  0.1268  0.1556  0.3005
45928W        W88981   4.318  31.613  25.176 -0.0659 -0.3374 -0.1611
45929W        W88982   5.112  29.314  17.191 -0.2788  0.3530  0.0797
45930W        W88983   9.340  20.287   4.939 -0.0700  0.1823 -0.0800
45931W        W88984  33.251  26.024  18.388 -0.0523 -0.1970  0.0812
45932W        W88985  13.509  24.018  21.588  0.0972  0.2087  0.1956
45933W        W88986  20.751  25.318   3.570 -0.2004  0.0005  0.2479
45934W        W88987  25.776   6.311  16.430 -0.0993  0.3708 -0.0032
45935W        W88988   8.525   7.443   6.566  0.3949  0.1940 -0.0051
45936W        W88989   5.536   0.649   0.202  0.0031 -0.2033 -0.2127
45937W        W88990  27.038   7.597  25.222  0.1260  0.1639 -0.1395
45938W        W88991  28.743  31.638   8.724 -0.0914 -0.0215  0.1042
45939W        W88992  22.599   5.163   3.061  0.2718 -0.0306  0.0937
45940W        W88993  18.278   9.883  22.754  0.0385 -0.4984 -0.2882
45941W        W88994  23.784   5.341   4.660  0.3151 -0.1686  0.0176
45942W        W88995  14.109  25.766   7.527  0.1567 -0.0077  0.1070
45943W        W88996  23.022   8.697  10.116  0.1194  0.0924 -0.5380
45944W        W88997  27.956   3.846   3.757  0.1152  0.0808 -0.1964
45945W        W88998  31.950   6.696  18.157  0.3747 -0.0809  0.0056
45946W        W88999  16.746   1.368   8.053 -0.1258  0.2742  0.1923
45947W        W89000  26.773  24.214   2.905  0.0574 -0.2529  0.2837
45948W        W89001   6.624  31.791   3.287 -0.2286  0.2527  0.3121
45949W        W89002  25.991   2.183   2.985  0.0007  0.1722 -0.0144
45950W        W89003  22.735  20.910  24.038  0.0846 -0.4715  0.1213
45951W        W89004  31.792  16.242  19.384  0.0200  0.1472 -0.0144
45952W        W89005  25.429  19.643   2.751  0.2025  0.1998 -0.1217
45953W        W89006   0.262  34.609  16.935 -0.1523 -0.3101 -0.4200
45954W        W89007   2.909   1.024  28.822  0.0041  0.1066 -0.0437
45955W        W89008  17.910  32.364   8.059 -0.3097  0.0246 -0.0265
45956W        W89009  20.465  29.965   3.701  0.1145 -0.1119 -0.0266
45957W        W89010  27.449  12.250  16.407  0.1860  0.0758  0.1569
45958W        W89011  27.815   9.604  16.136 -0.0914 -0.2592  0.4059
45959W        W89012  33.835  18.431  16.834  0.0277 -0.0920 -0.3294
45960W        W89013  11.137   0.526  22.144  0.2336 -0.0379  0.2577
45961W        W89014  31.275  30.241  20.568 -0.0572 -0.1140  0.2903
45962W        W89015   5.126   4.418   9.691  0.0656  0.1342  0.0325
45963W        W89016   0.307   8.972  26.725 -0.2799 -0.3067 -0.2162
45964W        W89017   8.162  32.208  27.548  0.3523  0.0084  0.1129
45965W        W89018  31.379  31.587   3.041 -0.3316 -0.1728 -0.1174
45966W        W89019  33.435  30.406  23.728 -0.0607  0.0892 -0.0712
45967W        W89020  12.927  25.388  27.583  0.1568 -0.2298 -0.0707
45968W        W89021  29.347  11.561   9.315  0.4403 -0.2017  0.0308
45969W        W89022   7.645  23.448  20.639 -0.0781  0.0311 -0.0570
45970W        W89023   6.286  11.690  19.310  0.1717  0.0670  0.0004
45971W        W89024  11.338  22.009  25.154  0.1657 -0.0920 -0.0289
45972W        W89025   3.017   1.931  22.998 -0.0386  0.2165 -0.0089
45973W        W89026  25.630  30.780   2.837 -0.1559  0.4707 -0.0950
45974W        W89027   5.559   4.845   8.546 -0.0947 -0.0839 -0.1650
45975W        W89028  16.850  13.342   3.236 -0.0051 -0.1412 -0.0859
45976W        W89029  26.274  16.750  15.947 -0.0271 -0.0172  0.1907
45977W        W89030  23.186  25.453  16.641  0.0243  0.0741  0.0088
45978W        W89031  29.184  12.649  15.791 -0.2726 -0.0187 -0.1694
45979W        W89032  32.049  26.901  21.256 -0.1300  0.0557  0.1243
45980W        W89033   7.471   0.370   5.303 -0.0910 -0.0479  0.1705
45981W        W89034  28.204   0.385   0.405  0.3825  0.0452  0.2441
45982W        W89035  34.386  34.504  13.639  0.0541 -0.0537 -0.1576
45983W        W89036   9.656  13.917  28.660 -0.1276 -0.0124 -0.1693
45984W        W89037   4.511   9.551  17.070 -0.3374  0.2235 -0.2056
45985W        W89038   5.608  13.698  24.054 -0.4661  0.4832 -0.3192
45986W        W89039   0.836   6.312  26.537  0.1872  0.0498  0.4012
45987W        W89040   9.761  23.223  25.113 -0.0562  0.1524 -0.0875
45988W        W89041  11.186  13.058   3.916  0.0428 -0.1410  0.1335
45989W        W89042  29.960  32.309  19.064  0.5575  0.0896  0.0163
45990W        W89043  25.279  30.948   1.170  0.1265  0.0814  0.0454
45991W        W89044   7.660   8.365  24.942  0.0231  0.0837 -0.1258
45992W        W89045   4.598  33.393   0.741  0.1718  0.1004 -0.0296
45993W        W89046  12.988  10.661   6.652 -0.0352  0.3085 -0.1449
45994W        W89047  24.038  31.727   1.754  0.1429 -0.2780  0.2419
45995W        W89048  18.124   7.567   1.159 -0.4894 -0.0117  0.2749
45996W        W89049  21.007   8.527   7.018  0.2028 -0.0762  0.1389
45997W        W89050  31.096  27.580   7.367 -0.0551  0.1543  0.2229
45998W        W89051   8.965  27.640   0.442 -0.2305  0.2372  0.1116
45999W        W89052  17.454  18.440  22.651 -0.0852  0.1026  0.1166
46000W        W89053  11.139  33.130  14.847  0.3511 -0.0812  0.0847
46001W        W89054  30.941  31.783   1.634 -0.0968 -0.1158 -0.1273
46002W        W89055  23.805   1.431   3.489 -0.0390  0.0974  0.1516
46003W        W89056  25.816   0.243  14.646  0.1517  0.1260  0.0727
46004W        W89057  27.058   9.010  16.334 -0.0862  0.2417 -0.4579
46005W        W89058  17.274  18.482  29.080  0.1386  0.2994 -0.0975
46006W        W89059  29.374  19.637   5.841  0.2597  0.0913 -0.0198
46007W        W89060  15.073   1.871  16.434  0.2968 -0.1119  0.0061
46008W        W89061  19.501  22.518   3.435  0.0517  0.0614  0.2879
46009W        W89062  31.908   0.090   4.424  0.1728 -0.2027  0.3733
46010W        W89063   4.789  32.556   9.113 -0.2066  0.0941  0.0139
46011W        W89064  33.486   1.031  22.318  0.0085  0.3052 -0.0601
46012W        W89065  10.709  25.536  18.884 -0.0654 -0.0147 -0.0493
46013W        W89066  27.058  11.477   7.066 -0.0349  0.0460  0.0547
46014W        W89067  27.936   0.731  25.423 -0.0880 -0.1168  0.1267
46015W        W89068   2.039   1.655  19.742  0.2005 -0.3877  0.0444
46016W        W89069  28.845  29.611   7.021 -0.1238  0.0391  0.0330
46017W        W89070   1.860   5.103  18.572  0.1192 -0.1918 -0.2138
46018W        W89071  33.780   5.313   0.831  0.2284 -0.1701  0.0704
46019W        W89072  31.822   1.683  18.000  0.1721  0.1071  0.1364
46020W        W89073  32.863  15.411  27.985  0.0624 -0.1993  0.1661
46021W        W89074   1.085  30.135  23.348  0.0433  0.1381 -0.1174
46022W        W89075  17.178   3.654  26.602  0.0769  0.3368  0.2085
46023W        W89076  29.089   3.805   5.555 -0.2586 -0.4021 -0.1375
46024W        W89077  22.829   8.669  23.960  0.4976  0.0142 -0.2444
46025W        W89078   7.483  32.381   0.733  0.0718  0.0682  0.0493
46026W        W89079   2.221   2.164  20.492  0.2243 -0.1360  0.0206
46027W        W89080   1.417  20.013  29.196 -0.0360  0.0722  0.0953
46028W        W89081  22.567  34.180  28.773  0.1651 -0.0483  0.2867
46029W        W89082   1.793   9.326  15.623 -0.0706  0.3000 -0.1547
46030W        W89083  12.003  31.757  27.872  0.1759  0.1138 -0.0784
46031W        W89084  24.818  31.955  15.423 -0.1377  0.2923  0.0368
46032W        W89085  21.099   3.842  17.438 -0.0311  0.0546  0.0438
46033W        W89086  19.282  18.854  28.733  0.1068  0.0157 -0.2146
46034W        W89087   3.840  16.563  24.767  0.0348  0.1790 -0.1107
46035W        W89088  10.286   6.394  22.449  0.0525 -0.0099  0.1401
46036W        W89089  27.693  12.680  17.670 -0.0254  0.1060 -0.0698
46037W        W89090   0.296  12.897   0.240 -0.1559  0.1173  0.1404
46038W        W89091  24.309  23.663   2.208 -0.0306 -0.0972  0.1544
46039W        W89092  24.654   4.639  22.185  0.1185 -0.2863 -0.2871
46040W        W89093  17.166   2.921   2.302  0.0927 -0.2079  0.0394
46041W        W89094  30.725   6.408  20.121 -0.1315  0.2329 -0.0708
46042W        W89095  25.182  27.614   2.571 -0.0375  0.3892 -0.1785
46043W        W89096  25.721  18.908   3.868 -0.1284  0.1996  0.2920
46044W        W89097   4.431  28.008  19.980 -0.0481 -0.0162  0.0133
46045W        W89098  26.041   4.741  26.477  0.0906 -0.4047  0.3484
46046W        W89099  26.621  12.310   4.537 -0.1058  0.2131 -0.2332
46047W        W89100  33.722  31.871  27.778 -0.0388 -0.0135  0.2965
46048W        W89101  21.815  33.477  19.755  0.2334 -0.0409 -0.0363
46049W        W89102  30.993  14.083  15.634 -0.1990  0.0552  0.0868
46050W        W89103   3.179  29.765   6.772 -0.2086 -0.0984  0.0475
46051W        W89104  29.028  27.686  21.120 -0.0067 -0.3246 -0.0240
46052W        W89105  21.501  32.786   0.061  0.1379 -0.3057  0.3634
46053W        W89106   1.294  31.578  16.649 -0.0295 -0.0477  0.0513
46054W        W89107  25.233  16.143   7.799 -0.0868  0.1001  0.1714
46055W        W89108  16.619  28.397  17.308 -0.1261  0.0074 -0.0394
46056W        W89109   0.138  31.971   7.495 -0.0457  0.0158  0.0806
46057W        W89110  15.598  17.806   9.426 -0.0109 -0.0856 -0.2196
46058W        W89111  27.996   4.292   8.192 -0.2323  0.2153 -0.0653
46059W        W89112  27.006   7.788  19.038  0.2248  0.1128 -0.3463
46060W        W89113  28.181   9.898  15.065 -0.0629  0.3688 -0.0509
46061W        W89114  23.859   7.153  25.438  0.1035 -0.0740 -0.0182
46062W        W89115   6.611  20.585   2.128  0.0414 -0.0987  0.2548
46063W        W89116   2.546   3.820  26.098  0.4384 -0.0655  0.1845
46064W        W89117   0.095  32.807  24.055 -0.0392  0.0912  0.4502
46065W        W89118  14.271  27.300   3.358 -0.0509 -0.0542  0.0390
46066W        W89119  11.247  24.918   2.733 -0.2750 -0.0276 -0.0442
46067W        W89120  23.452   7.939   6.629  0.0492 -0.1907  0.0969
46068W        W89121   7.209  26.773   6.190  0.2155  0.1267  0.0088
46069W        W89122   0.873  28.351  21.937 -0.0442  0.0262  0.0394
46070W        W89123   2.809   1.355   3.920 -0.2159  0.2895 -0.0474
46071W        W89124  23.755   4.904   4.415  0.2238 -0.2923 -0.1258
46072W        W89125  25.251   1.813  14.439  0.2336  0.1251  0.1954
46073W        W89126   6.895   0.048   8.851 -0.1454  0.1144 -0.1372
46074W        W89127  29.331  18.958  21.180  0.1780  0.2212 -0.0435
46075W        W89128  27.868  29.126  28.586  0.1459  0.3022  0.0790
46076W        W89129  31.665   9.969   9.268 -0.0181  0.1238 -0.1766
46077W        W89130  31.140   5.107  26.810 -0.1998  0.0376  0.0993
46078W        W89131   2.551   2.783   5.787 -0.0593 -0.1517  0.0186
46079W        W89132  22.308  34.212   7.699  0.2720  0.1300  0.3626
46080W        W89133  34.317  29.015  22.876  0.0667 -0.0379  0.1088
46081W        W89134  21.623  28.177  23.454 -0.0263  0.0461  0.1647
46082W        W89135  20.739  34.373   3.989  0.1586  0.2643 -0.0329
46083W        W89136  21.731  31.638   9.177  0.1613 -0.1283 -0.0800
46084W        W89137  23.289  11.435  25.692  0.0779  0.0559 -0.0698
46085W        W89138  30.891  30.539  20.737  0.2650 -0.5141 -0.0513
46086W        W89139   9.303  11.182  24.535  0.2182  0.0837 -0.2648
46087W        W89140  25.777  20.635  24.426  0.0835  0.1194  0.0217
46088W        W89141  27.623  15.719  10.115 -0.0743 -0.0469 -0.2107
46089W        W89142  29.258  33.742  21.945 -0.0781 -0.1309  0.1343
46090W        W89143  22.717   2.050  15.380 -0.1774  0.2879  0.2296
46091W        W89144   9.977   1.007  18.996 -0.1942 -0.0087 -0.2173
46092W        W89145  31.740  17.828  15.385 -0.1943  0.1446 -0.1234
46093W        W89146  34.130   1.436  14.212  0.1549 -0.2144 -0.1984
46094W        W89147  30.405  32.481  15.215 -0.1730  0.1401 -0.0683
46095W        W89148   5.997  29.097  24.091 -0.1186 -0.1366  0.1802
46096W        W89149  29.101  11.590  24.162 -0.1349  0.2103 -0.0526
46097W        W89150  24.633  27.729  15.079 -0.1703 -0.0751 -0.1544
46098W        W89151   3.226  33.175  17.658 -0.0394  0.1472 -0.0014
46099W        W89152  23.073  33.598  18.541  0.2562  0.3269 -0.2918
46100W        W89153   7.165  20.619  26.785 -0.3641 -0.2559  0.4002
46101W        W89154  31.098   9.179  28.895 -0.4678  0.0343 -0.1934
46102W        W89155  14.347   1.846  18.962  0.0278  0.1526  0.1038
46103W        W89156   4.548   6.293  17.637  0.1456 -0.2794 -0.1223
46104W        W89157  34.656  26.300  14.520  0.0441 -0.1126 -0.0440
46105W        W89158  14.663   0.211  17.536  0.4255  0.0054  0.0674
46106W        W89159  33.124   6.794  24.807 -0.2111 -0.1023  0.3260
46107W        W89160  19.211   8.084  24.057  0.1974  0.1412  0.2743
46108W        W89161  22.804   8.233  15.641 -0.0595  0.2438  0.3484
46109W        W89162   6.338  32.276  17.808 -0.0661  0.2900 -0.0797
46110W        W89163  24.456   8.457  14.554 -0.0610 -0.2341  0.0401
46111W        W89164  24.148   2.215  26.635 -0.3238 -0.2675  0.0494
46112W        W89165  14.065  29.260   0.529 -0.0553  0.1694 -0.2495
46113W        W89166  10.488  21.657  21.019  0.0921 -0.2937  0.0236
46114W        W89167   5.897   0.999  23.713  0.0889 -0.0095  0.0740
46115W        W89168  29.800  29.824  25.096 -0.0841  0.0810 -0.2469
46116W        W89169  15.983  30.319  19.731 -0.2554  0.1085  0.1805
46117W        W89170  29.909  24.661  21.977 -0.1534 -0.1918 -0.2543
46118W        W89171   7.734   5.395  17.305  0.0393 -0.0694 -0.2604
46119W        W89172   9.337  27.146  15.404  0.1574 -0.0037 -0.0214
46120W        W89173  28.869  30.032  21.078  0.1253 -0.0243 -0.0944
46121W        W89174  20.217  34.471  18.061  0.0887  0.0046 -0.0274
46122W        W89175   4.053  11.497  15.785  0.2308  0.1006 -0.2993
46123W        W89176  30.491  20.643   2.721 -0.4222  0.1254  0.1566
46124W        W89177  26.801  31.295  16.220  0.0539 -0.0520  0.2071
46125W        W89178  28.026   9.269  26.808 -0.0291  0.3081  0.1369
46126W        W89179   0.047   6.674  26.769  0.0558 -0.0743 -0.0036
46127W        W89180  31.280  17.799  17.241 -0.1470  0.0292 -0.0297
46128W        W89181  29.113  17.351  17.221  0.1263  0.2957  0.1880
46129W        W89182  31.948  29.038  25.029 -0.1860  0.4517 -0.1486
46130W        W89183  14.979  32.866   8.034  0.1129 -0.0974 -0.1742
46131W        W89184  21.236  29.065  20.403  0.0675  0.0628  0.0501
46132W        W89185   4.294   8.374  24.726  0.1603  0.1976  0.2304
46133W        W89186   9.216  12.081  15.825 -0.1054  0.2503  0.0757
46134W        W89187  33.490   7.180  24.803 -0.0516 -0.0829  0.2017
46135W        W89188  33.780   8.667  18.877 -0.3670  0.0773  0.3703
46136W        W89189   2.922   5.256  22.292  0.0417 -0.5349 -0.2080
46137W        W89190  20.193  31.882  21.318  0.3321 -0.1215 -0.1284
46138W        W89191  28.643  12.292  20.688  0.2876  0.1191  0.0153
46139W        W89192  16.011  33.324  18.646 -0.0384  0.0900 -0.1138
46140W        W89193  19.017   8.479  18.261  0.0508 -0.2272  0.2533
46141W        W89194   5.523   8.893  28.251 -0.3659  0.1320  0.0531
46142W        W89195   0.769  10.638  16.091 -0.1974  0.0326  0.0081
46143W        W89196  14.284   2.265  22.488  0.1544 -0.2578  0.0982
46144W        W89197   1.944   3.609  13.780  0.0940  0.0856 -0.0294
46145W        W89198  29.353  26.619  16.435 -0.0215  0.0423  0.2020
46146W        W89199  25.733   1.897  19.335 -0.0625 -0.1735 -0.2224
46147W        W89200  22.160  26.807  16.644  0.2124 -0.0636 -0.0319
46148W        W89201   6.385  31.360  18.242 -0.0613  0.0106  0.0850
46149W        W89202  28.381   5.764  17.305 -0.0307 -0.2493  0.0499
46150W        W89203   1.713  34.591  27.831 -0.1459 -0.2191  0.1967
46151W        W89204  26.606  23.823  20.051  0.0979  0.1982 -0.0144
46152W        W89205  27.495  25.517  20.760  0.0327  0.2945  0.0190
46153W        W89206  31.323   0.242  21.583  0.0811  0.3976 -0.0965
46154W        W89207  14.703   0.096  19.660 -0.1058 -0.0145 -0.2379
46155W        W89208  33.543  23.898  17.997  0.3682  0.2808 -0.3680
46156W        W89209  30.130   4.891  22.881 -0.0057 -0.1438 -0.2500
46157W        W89210  34.517  10.217  26.662 -0.4198  0.1991  0.2366
46158W        W89211   5.582   4.975  18.080 -0.1453  0.1504  0.0484
46159W        W89212  27.598  17.957  24.832 -0.2878 -0.2473 -0.0213
46160W        W89213  34.282   2.254  17.500 -0.3354  0.2398  0.0633
46161W        W89214  28.216   5.059  25.903  0.0903  0.2488  0.1249
46162W        W89215  24.240   1.625  28.877  0.1190 -0.0575 -0.0723
46163W        W89216  27.788  27.689  19.292  0.0841  0.2723  0.3275
46164W        W89217  21.771   4.874  27.898  0.1151  0.0388 -0.3786
46165W        W89218   9.898  17.046  14.542 -0.1127 -0.2453  0.2053
46166W        W89219  29.041  11.187  17.994 -0.1444 -0.0197 -0.2041
46167W        W89220  24.775   3.655  27.290  0.0906 -0.0403  0.0642
46168W        W89221  17.444   6.135  16.748  0.2973 -0.0437 -0.0922
46169W        W89222  10.550  32.311  19.154 -0.2312 -0.0644 -0.1557
46170W        W89223   5.029   5.710  23.813 -0.2009 -0.1750 -0.1886
46171W        W89224  26.673  28.902  21.372 -0.1703 -0.1117  0.0659
46172W        W89225  25.438  32.649  20.692  0.2526  0.2830  0.0439
46173W        W89226   6.960  21.327  18.889 -0.0608 -0.1009 -0.0366
46174W        W89227  21.659   0.569  13.867 -0.1066  0.0341 -0.0269
46175W        W89228  20.819   2.676  21.396  0.2528  0.5350 -0.3567
46176W        W89229  11.178   6.077  16.650  0.5919 -0.4709  0.2298
46177W        W89230  17.509   7.249  20.324  0.0084 -0.0438  0.2830
46178W        W89231  29.505  24.626  19.663  0.1299 -0.1491  0.2525
46179W        W89232  23.667  13.677  16.023  0.0532 -0.2909 -0.0468
46180W        W89233  32.662  19.129  21.814 -0.3117 -0.0037  0.1755
46181W        W89234  28.974   2.690  15.812 -0.2786  0.0227 -0.1966
46182W        W89235   6.179  19.565  18.688  0.2315  0.1183 -0.0318
46183W        W89236  12.352   6.619  18.611 -0.1088  0.1182 -0.3522
46184W        W89237  19.986  13.509  21.325  0.2229  0.0512  0.0876
46185W        W89238  28.472  28.649  21.293 -0.2433  0.6362  0.2073
46186W        W89239   7.229  28.115  26.205  0.3697  0.1234  0.0159
46187W        W89240   7.773   1.097  16.732  0.0638 -0.0437  0.0438
46188W        W89241  34.052  31.690  14.475  0.1978 -0.1532  0.3470
46189W        W89242  29.831  28.678  16.896  0.1464 -0.0085  0.2218
46190W        W89243   4.062   0.014   0.154 -0.3514  0.1809 -0.1866
46191W        W89244  26.425  28.755  19.051  0.2683  0.0456 -0.0339
46192W        W89245  34.435   5.595  15.611  0.1335  0.0235  0.0493
46193W        W89246   3.684  20.086  23.387  0.2980  0.3302  0.0204
46194W        W89247  26.400   3.127  15.392  0.4025 -0.0659 -0.0259
46195W        W89248  31.615  16.787  18.848 -0.3383  0.1288  0.1392
46196W        W89249  34.491   4.116  16.466  0.0305  0.1923 -0.1273
46197W        W89250   8.317   4.786  26.968 -0.4537 -0.2300 -0.0261
46198W        W89251   4.746  10.350  21.804 -0.1697 -0.2274  0.0291
46199W        W89252  24.070  22.447  19.950 -0.2158  0.0678 -0.0815
46200W        W89253  33.320   4.369  18.321  0.1082 -0.5674  0.0728
46201W        W89254  28.216  31.955  20.868 -0.1851 -0.0936  0.0379
46202W        W89255  33.559   6.547   3.256  0.4843  0.0049 -0.1258
46203W        W89256  24.060  29.148   2.130  0.0674  0.3449  0.2558
46204W        W89257  23.983   2.642  19.574  0.1106 -0.3754  0.2153
46205W        W89258   7.198  21.932  21.249  0.0907  0.0719  0.0286
46206W        W89259   6.878   7.751   1.847  0.0641 -0.0083 -0.1491
46207W        W89260   0.269  31.584  16.936  0.0364  0.1218 -0.0426
46208W        W89261  32.374   4.783  18.376  0.0501  0.1472  0.0894
46209W        W89262  23.081  30.355  17.532 -0.0899 -0.2057 -0.1668
46210W        W89263  14.360  30.014  16.195 -0.0599  0.0294  0.1845
46211W        W89264  30.433  32.886   2.501 -0.0966  0.3582  0.0661
46212W        W89265  18.394  23.420  16.865 -0.2725  0.0490 -0.0256
46213W        W89266  12.732  23.179  22.533 -0.1265 -0.3021 -0.1310
46214W        W89267  31.820  21.625  23.269  0.0701 -0.2792 -0.1520
46215W        W89268  11.225  28.529  24.271 -0.0800 -0.3566 -0.1105
46216W        W89269   1.763   5.076  20.579 -0.2155  0.1212  0.0122
46217W        W89270  29.630   3.215  25.057 -0.0842  0.3636  0.2462
46218W        W89271  30.096  29.411  20.217  0.1521  0.1196 -0.0438
46219W        W89272   7.372  31.639  17.745  0.1153  0.0568  0.3506
46220W        W89273  20.461  26.882  20.476 -0.0808  0.3644 -0.2263
46221W        W89274   5.387   2.064   8.782 -0.2660 -0.1425  0.0656
46222W        W89275   2.833  25.887   1.445  0.3244  0.0472  0.1772
46223W        W89276   3.943   2.905   6.490  0.1282  0.0267  0.1477
46224W        W89277  29.320  34.098   4.987 -0.0528  0.0367 -0.0393
46225W        W89278   5.228   4.560  16.744 -0.1253 -0.0872 -0.3397
46226W        W89279  24.981   1.067  15.166  0.2006 -0.0006  0.1158
46227W        W89280   1.581  23.514  15.600 -0.0411 -0.1205  0.0440
46228W        W89281   7.576   9.881  27.354 -0.1364  0.2375  0.1921
46229W        W89282   5.614  27.695  17.378 -0.0004 -0.1952  0.0981
46230W        W89283  28.849   4.889  23.837 -0.0987  0.1201  0.1139
46231W        W89284  15.717   7.133  19.128  0.0849  0.0560 -0.2646
46232W        W89285  31.594  28.410  25.897  0.0385 -0.3358 -0.1290
46233W        W89286  31.623   7.766   1.567 -0.0250 -0.0227  0.0217
46234W        W89287   6.589  29.170  15.383  0.3252 -0.0977  0.0837
46235W        W89288   3.325   6.259  15.956  0.2569 -0.0534 -0.3203
46236W        W89289   7.407   1.879  16.242 -0.0723 -0.0574  0.2134
46237W        W89290   7.029  27.706  19.827 -0.0303 -0.0079  0.0039
46238W        W89291   6.294  34.472  16.195  0.4335  0.0734  0.0482
46239W        W89292  30.773   8.038  16.267 -0.0314  0.0821  0.0936
46240W        W89293  12.966  23.731  23.851 -0.0615 -0.1982  0.1358
46241W        W89294  34.612   1.437  21.829 -0.0260  0.0650 -0.1039
46242W        W89295   3.661   6.728  23.808 -0.2748 -0.0721  0.3406
46243W        W89296  12.477   0.313  17.006 -0.3046 -0.0344  0.3111
46244W        W89297  21.103   9.979  14.281 -0.0867 -0.0869  0.3767
46245W        W89298  24.217  27.955  21.341  0.3768  0.0956 -0.0032
46246W        W89299  24.895  10.957  20.994 -0.0459  0.0809  0.2475
46247W        W89300  11.950   1.299  23.563 -0.1688 -0.2111 -0.0876
46248W        W89301   8.270  17.174  17.574 -0.0634  0.0523 -0.0793
46249W        W89302  34.229   6.042  15.560 -0.2457 -0.1449  0.4741
46250W        W89303  24.953  30.559   1.355 -0.1053 -0.0819 -0.3377
46251W        W89304  24.226   4.060  17.856 -0.0061 -0.1489  0.0114
46252W        W89305   1.822  19.053   0.204  0.1627  0.0720 -0.1932
46253W        W89306   4.556   2.295  15.150 -0.0656 -0.0785  0.0647
46254W        W89307  19.396   3.583  17.197 -0.4204 -0.1541 -0.2222
46255W        W89308   7.634  30.902  15.367 -0.0278  0.2248 -0.3252
46256W        W89309  28.629  10.690  23.378  0.0712 -0.2422 -0.3392
46257W        W89310  28.752  11.249  26.607 -0.1028  0.0053 -0.2155
46258W        W89311   0.076  31.487  15.182 -0.0018 -0.2696  0.1933
46259W        W89312   0.986   3.953  25.805 -0.0662 -0.4615 -0.3714
46260W        W89313  31.536  17.239  20.359  0.1381  0.1633 -0.0541
46261W        W89314   4.943   3.882  28.430 -0.0519  0.4037 -0.0258
46262W        W89315  28.527  18.224  15.376 -0.0640  0.2803 -0.0051
46263W        W89316   2.084  22.692  20.541  0.1192  0.2391  0.0764
46264W        W89317   9.257  34.336  17.530  0.0025 -0.0865  0.3150
46265W        W89318  14.402   5.320  21.102  0.3134 -0.1606 -0.3244
46266W        W89319  24.216  30.798  22.251 -0.1388  0.0588  0.1174
46267W        W89320   1.000  31.021   1.848 -0.1180 -0.2533 -0.1432
46268W        W89321  34.442   4.374  20.594  0.0685 -0.0827 -0.0877
46269W        W89322  34.203  33.937  24.785  0.2709  0.0442  0.0794
46270W        W89323   3.730  10.500  16.590 -0.0584 -0.1598 -0.1665
46271W        W89324  24.528   5.651  24.280  0.1157  0.1113  0.0649
46272W        W89325  12.415  23.207  20.617 -0.2434  0.0892  0.0245
46273W        W89326   4.004  28.841  18.683 -0.0938  0.4517  0.0433
46274W        W89327  31.286  18.452  21.075 -0.0457 -0.0959  0.3761
46275W        W89328  20.034  31.731  19.191 -0.0411 -0.0926 -0.1344
46276W        W89329  25.697   7.804  14.023  0.1069 -0.2391  0.0369
46277W        W89330  12.042  20.102  23.602  0.2532  0.0075  0.0432
46278W        W89331  10.818  22.820  28.257  0.0122  0.1998 -0.0726
46279W        W89332   5.825  11.573  18.029  0.0986  0.1735  0.0730
46280W        W89333  25.473  22.033  18.326 -0.3777  0.0500  0.1447
46281W        W89334  25.893  13.833  14.138  0.0833  0.3256  0.1203
46282W        W89335   2.289   8.521   2.687  0.0864 -0.1246  0.0683
46283W        W89336   8.743  11.452  28.525 -0.4194  0.0844  0.1141
46284W        W89337  29.222  25.521  19.671 -0.0244 -0.1001  0.0849
46285W        W89338  17.835   0.725  14.724  0.1859 -0.0949  0.2036
46286W        W89339   5.090  15.177  17.448  0.2150 -0.1141 -0.0341
46287W        W89340  26.265   5.194  26.686  0.1132 -0.0583 -0.2146
46288W        W89341   3.140  13.992  14.188 -0.1126 -0.0024 -0.0852
46289W        W89342  25.633  33.057  14.799  0.0996 -0.0484  0.3198
46290W        W89343   5.230  18.676  24.116  0.1243  0.1962  0.1524
46291W        W89344   7.225  31.828  21.278  0.4986 -0.0864 -0.0843
46292W        W89345   9.534   3.635  22.781 -0.0664 -0.1280 -0.1245
46293W        W89346  21.801   9.838  15.110 -0.0908 -0.0779 -0.0940
46294W        W89347   1.924   3.893  15.525  0.0313  0.1579 -0.0504
46295W        W89348  28.570   6.453  23.727  0.2920  0.1730 -0.1311
46296W        W89349  25.501   4.831  26.726 -0.2155  0.3382 -0.0336
46297W        W89350   3.402  12.703  19.911 -0.1027 -0.0304  0.0899
46298W        W89351  26.828  29.411  21.546 -0.2198  0.1348  0.1370
46299W        W89352  24.528   3.623  18.873 -0.1168 -0.1021 -0.0158
46300W        W89353  33.112  31.872  13.215  0.1748  0.1617 -0.2535
46301W        W89354  24.845   9.355  13.855  0.0113  0.2597 -0.2399
46302W        W89355   7.418  32.374  24.266 -0.1806  0.1112 -0.1478
46303W        W89356  12.068   5.201  15.241  0.1588 -0.2156 -0.2142
46304W        W89357  30.605   7.892  25.375  0.0261  0.1401 -0.2175
46305W        W89358   1.725  17.393  17.521  0.1109  0.1903  0.0886
46306W        W89359  17.856  27.388  19.413  0.3271 -0.0388  0.1204
46307W        W89360  30.571   0.104  16.761 -0.3859 -0.0180  0.1719
46308W        W89361   8.023  28.193  17.196  0.1990 -0.1184 -0.0557
46309W        W89362   8.064  29.188  14.051 -0.0648 -0.0022  0.0160
46310W        W89363   3.569   5.817  15.080 -0.3820  0.2056  0.1069
46311W        W89364   4.804   3.761  25.357  0.0644 -0.2930  0.0297
46312W        W89365  13.966  32.230  15.479  0.1613 -0.1100  0.2095
46313W        W89366   7.556  13.098  21.112 -0.2318  0.2200  0.0185
46314W        W89367  18.107  27.237  17.521 -0.0755  0.0890 -0.1570
46315W        W89368  13.742  25.197  23.448  0.2789 -0.1542  0.0023
46316W        W89369   7.498  24.722  14.016 -0.4364  0.0439  0.0283
46317W        W89370   5.971   6.555  20.252  0.1371  0.2461  0.0027
46318W        W89371   7.822   7.568  20.379 -0.0008 -0.4135  0.2347
46319W        W89372  18.899   4.428  24.755 -0.2508  0.3026 -0.2661
46320W        W89373   3.503   1.815  26.797 -0.0285 -0.1524  0.2712
46321W        W89374  27.030  25.647  22.510  0.0487  0.0956 -0.0842
46322W        W89375  29.932   6.395  23.853 -0.0828 -0.1172  0.3051
46323W        W89376  34.255   6.756  18.428 -0.2448  0.1774 -0.0098
46324W        W89377   2.800   3.356   1.770  0.2762  0.1828 -0.1523
46325W        W89378  15.341  33.352  19.650 -0.2121 -0.1152  0.3000
46326W        W89379  21.225  34.288  18.260  0.1287  0.2815 -0.0354
46327W        W89380   4.820  12.225   3.649  0.0028 -0.1740  0.0662
46328W        W89381  24.725  32.318  20.248 -0.0538 -0.2282 -0.3526
46329W        W89382  33.832  25.924   5.698 -0.0007 -0.0942 -0.1196
46330W        W89383  29.341   6.889  19.350  0.1536 -0.1044 -0.1430
46331W        W89384  30.159  16.075  17.257 -0.0073 -0.2018  0.0620
46332W        W89385   6.138   3.800  15.941  0.0084 -0.1264 -0.1310
46333W        W89386  19.057   3.555  18.698  0.0148  0.1546 -0.0540
46334W        W89387  19.136  25.411  14.678  0.2305 -0.1912 -0.1004
46335W        W89388  33.221  22.330  20.007  0.1238 -0.1708 -0.1307
46336W        W89389   0.418  32.375  15.228 -0.0125  0.2014  0.0193
46337W        W89390   0.861  30.454  24.715  0.0606  0.2751  0.0663
46338W        W89391   1.083  17.899  17.798 -0.0491 -0.1401 -0.0465
46339W        W89392  24.517  14.938  18.644  0.1876 -0.3125 -0.0458
46340W        W89393   1.177   8.005   1.544  0.0041 -0.1140 -0.1737
46341W        W89394  13.036   2.281  25.769 -0.3625  0.1601 -0.1742
46342W        W89395  33.121  22.022  14.414  0.0721  0.0102  0.1505
46343W        W89396  31.414   0.699  15.323 -0.2077 -0.2387 -0.2143
46344W        W89397   3.447   3.275  16.332  0.0237  0.0291 -0.0785
46345W        W89398  18.230  32.694  26.139 -0.0447 -0.1566  0.1143
46346W        W89399   7.106  15.245  17.808 -0.0427  0.3657 -0.3152
46347W        W89400  22.801  11.576  24.376  0.0221 -0.1571 -0.0327
46348W        W89401   8.985   1.428  28.412  0.0064  0.4483 -0.1740
46349W        W89402  29.819  31.869   0.231  0.0276 -0.0439 -0.1946
46350W        W89403  19.047  29.440  27.731  0.1580 -0.2079 -0.1579
46351W        W89404  30.535   0.190  21.197  0.2888  0.1322  0.1015
46352W        W89405   0.164  32.455  19.546 -0.0468  0.1509  0.2698
46353W        W89406   0.450  10.005  19.813  0.0934  0.1398  0.0047
46354W        W89407  22.350  22.677   5.541  0.0151 -0.1548  0.1425
46355W        W89408  21.190   5.668  25.456  0.3190  0.0236 -0.2955
46356W        W89409  30.272  27.511  14.823 -0.1215  0.0782  0.0172
46357W        W89410   7.453   0.693   4.708  0.0721 -0.0390  0.1229
46358W        W89411  34.123   3.961  15.431  0.4448 -0.0343 -0.0496
46359W        W89412  32.146   1.093  23.774 -0.3032 -0.2040 -0.0697
46360W        W89413  32.455   7.927  17.919  0.0295  0.0120  0.0635
46361W        W89414   4.316  13.600   1.674 -0.0232  0.3493  0.2141
46362W        W89415   1.221  21.157   2.692 -0.1534  0.0703  0.0852
46363W        W89416   3.610  12.676  14.551 -0.2071  0.0547  0.0248
46364W        W89417  33.272  11.223  13.887 -0.0671 -0.1148  0.3298
46365W        W89418  33.828  13.497  25.240 -0.0295 -0.1477 -0.0707
46366W        W89419  23.788   3.451  16.088 -0.0160 -0.1433 -0.0179
46367W        W89420   4.228  32.267  13.915 -0.1989  0.2576  0.0347
46368W        W89421  27.702   0.230  18.306  0.0174  0.1428 -0.3546
46369W        W89422  28.481  32.529  23.449 -0.1525  0.0945  0.2070
46370W        W89423   8.603  26.763  16.259  0.1946  0.2465  0.0193
46371W        W89424  30.378   3.282  19.657 -0.0503  0.1200 -0.0238
46372W        W89425  28.898  28.364  19.160 -0.0045  0.0838 -0.2373
46373W        W89426  26.912   9.207  17.347 -0.0201 -0.0421 -0.0566
46374W        W89427  24.389   3.845   3.164  0.0301  0.0474 -0.0066
46375W        W89428   7.019   9.333  20.410  0.1315  0.0320  0.3084
46376W        W89429   4.544  19.775  22.453 -0.1535  0.2831 -0.2206
46377W        W89430  29.786  12.072  26.437  0.0537 -0.1103  0.2034
46378W        W89431  29.924  28.876  28.973  0.0132 -0.0217  0.0128
46379W        W89432  25.213  34.640  21.751  0.1450 -0.0326  0.0484
46380W        W89433  25.105  27.815  14.748 -0.3700 -0.0315 -0.1092
46381W        W89434  19.796   7.678  23.807  0.4319 -0.0141 -0.0201
46382W        W89435   7.363   2.491  15.988 -0.0639  0.0220 -0.1353
46383W        W89436  18.918   3.533  16.507  0.4405  0.0341 -0.0366
46384W        W89437  33.653  15.509   3.954 -0.2036 -0.0180 -0.1551
46385W        W89438  21.041  19.492  21.771 -0.1320  0.0175  0.4822
46386W        W89439  15.205  16.120  27.194 -0.1353 -0.0020 -0.1281
46387W        W89440   2.604  21.352  22.696 -0.3817 -0.1944 -0.1232
46388W        W89441  25.940  31.365  21.101  0.1547  0.1204 -0.1164
46389W        W89442   4.795  17.653  22.290 -0.0224 -0.2642 -0.0485
46390W        W89443   4.713   2.849   1.405  0.1685  0.1171  0.3871
46391W        W89444  19.306   0.479  20.886 -0.0677 -0.1839 -0.2826
46392W        W89445  25.868  22.665  21.138  0.3077 -0.2515  0.0248
46393W        W89446  24.745   2.867  18.465  0.1021  0.0102 -0.1580
46394W        W89447  27.318  30.020  25.180 -0.2007 -0.1914  0.4673
46395W        W89448  19.810   1.599   1.083 -0.0637 -0.2332  0.0437
46396W        W89449   8.789  32.493   2.783 -0.0209  0.2268 -0.1038
46397W        W89450  33.464   4.063  20.394  0.2309  0.1936  0.1231
46398W        W89451   6.764   1.540  18.454  0.0259  0.1145  0.1065
46399W        W89452  14.420  11.070  15.387  0.0382  0.5086 -0.0299
46400W        W89453  34.540  25.154  24.929 -0.0793 -0.0059  0.2731
46401W        W89454  33.801   2.574  19.540 -0.2386  0.2052 -0.1376
46402W        W89455  26.392   2.702  22.094 -0.1340  0.0194 -0.1883
46403W        W89456  11.697  31.214  21.548 -0.0342  0.5034 -0.1401
46404W        W89457   6.968   0.922  17.662  0.1271  0.1612  0.0044
46405W        W89458  18.571   0.987  21.890  0.1340 -0.1962 -0.1451
46406W        W89459  21.881  27.518  19.839  0.0106  0.0087 -0.2437
46407W        W89460  28.580  29.349   9.672  0.1455 -0.1760 -0.0232
46408W        W89461  18.812  10.675  15.124  0.0641 -0.2913  0.1334
46409W        W89462   3.584  14.337  24.550  0.2283  0.1190  0.5136
46410W        W89463  29.286  26.020  15.238 -0.0366  0.3528 -0.3509
46411W        W89464  10.271  25.490  16.425 -0.3961  0.0276  0.0816
46412W        W89465   1.397   3.987  16.126 -0.0554  0.2069  0.0458
46413W        W89466   3.852   2.024  25.895 -0.1874 -0.0088  0.1247
46414W        W89467   3.635  34.637  17.925  0.1642 -0.0401  0.1969
46415W        W89468  20.060  14.807  23.183 -0.0490 -0.0054 -0.1491
46416W        W89469   9.879  25.625  21.465 -0.1098  0.1110 -0.2065
46417W        W89470  16.582   3.364   8.920  0.1579  0.1980 -0.1059
46418W        W89471  33.918   9.443  26.875  0.0303  0.0728 -0.1034
46419W        W89472  33.464  29.194  26.122 -0.1654 -0.3535 -0.1743
46420W        W89473   4.942   2.166  25.133 -0.1199  0.1743  0.0352
46421W        W89474  10.245   2.958   6.388 -0.1402 -0.1628  0.0720
46422W        W89475   4.100   5.202   3.617  0.2351  0.0491 -0.2190
46423W        W89476  25.158  34.236   0.003  0.0842 -0.5307 -0.3521
46424W        W89477  27.255  13.998  20.346  0.1048  0.0607  0.0716
46425W        W89478  19.081  26.193  20.788 -0.2317 -0.1586 -0.0850
46426W        W89479   0.625   6.308  13.470 -0.1838 -0.1969 -0.1389
46427W        W89480  28.604   7.092  28.914 -0.1611 -0.3469  0.2917
46428W        W89481  32.913  22.500   2.295 -0.0649 -0.0528 -0.0073
46429W        W89482   4.265   2.483  24.110 -0.2278  0.4444 -0.2802
46430W        W89483  31.154   3.678  27.683 -0.1693 -0.4476 -0.2285
46431W        W89484  20.509  29.495  10.913  0.0726  0.0752 -0.2928
46432W        W89485  33.795   4.423  19.237  0.3084 -0.2331  0.1151
46433W        W89486  32.667  27.434  18.176  0.1598 -0.0119  0.2854
46434W        W89487   0.128  17.619  16.068 -0.0485  0.0913  0.2257
46435W        W89488   0.347  31.339  20.488  0.1316 -0.1885  0.0356
46436W        W89489  17.731  17.587  15.143 -0.2072 -0.0375  0.2145
46437W        W89490  14.533   2.146   1.177  0.0054  0.0202 -0.2351
46438W        W89491  23.713  15.896   9.186  0.3511  0.1062  0.3517
46439W        W89492   1.219  25.714  19.936  0.0843  0.0991 -0.2957
46440W        W89493  23.747  27.552  19.143  0.1126  0.0907  0.1695
46441W        W89494  29.548   2.377   1.535 -0.1128 -0.0859  0.2051
46442W        W89495  31.828  20.326  17.491  0.1049  0.2793  0.2564
46443W        W89496   6.983   0.140  18.784 -0.0390  0.0938 -0.2135
46444W        W89497  22.349  33.579  27.768  0.2052  0.0788  0.0403
46445W        W89498  32.959   3.881  24.960 -0.1173 -0.4185  0.0823
46446W        W89499  24.320  23.728  22.830  0.0383 -0.0483 -0.1715
46447W        W89500  32.959   0.843  19.805  0.1091 -0.1309  0.2490
46448W        W89501   1.097  11.019  18.578 -0.0520 -0.0848  0.1408
46449W        W89502   9.691   4.662  22.586 -0.0589  0.0680 -0.0655
46450W        W89503  21.551  31.279  16.337 -0.2082 -0.2077 -0.0858
46451W        W89504  30.657  14.153  24.969  0.0543 -0.3817  0.1319
46452W        W89505   2.827  26.328  15.888  0.2880  0.0051  0.1895
46453W        W89506  26.587  24.450  13.996  0.0575 -0.3555  0.3086
46454W        W89507   1.298  14.810  16.462 -0.0413 -0.1619  0.0007
46455W        W89508  29.137   9.322   1.512  0.1728 -0.1384  0.0903
46456W        W89509   7.717  14.666  24.397 -0.0142  0.1706  0.0920
46457W        W89510  33.752   4.060  15.081 -0.2001 -0.1082  0.0428
46458W        W89511  32.706   1.739  14.284 -0.1499 -0.2798 -0.3893
46459W        W89512   4.562  21.263  22.020 -0.3250 -0.0292  0.0472
46460W        W89513  25.902  29.536   0.017 -0.0301  0.1311  0.1258
46461W        W89514   9.377   9.760   5.131 -0.1481  0.1325  0.0773
46462W        W89515   2.455  26.546  12.588  0.0077 -0.2079 -0.0323
46463W        W89516  33.490   6.719  14.662 -0.3506  0.1096  0.0123
46464W        W89517   8.547   1.751  20.884 -0.0924  0.1266 -0.0284
46465W        W89518   8.415  19.487  18.298 -0.0716 -0.2195  0.3256
46466W        W89519  33.653   8.721   9.136  0.1656 -0.1803  0.1363
46467W        W89520   8.270   2.473   1.951 -0.1247  0.1687  0.1025
46468W        W89521  30.322  27.385  27.635 -0.1762  0.3846  0.0938
46469W        W89522   9.802   0.385  17.271 -0.1710 -0.0839  0.0939
46470W        W89523  20.747  29.279  21.329  0.0377 -0.3363 -0.0040
46471W        W89524   1.053   8.487  22.825  0.1069  0.1483  0.3993
46472W        W89525  21.092   0.958   0.557 -0.1472  0.0845 -0.0019
46473W        W89526   6.050   0.322  14.032  0.1065  0.0320  0.0017
46474W        W89527  10.644   2.041  17.701  0.2314 -0.2681 -0.1261
46475W        W89528   0.098  34.330  19.122 -0.3214  0.1116  0.3108
46476W        W89529   5.758  25.860  14.888  0.2022  0.0878  0.0775
46477W        W89530   2.689   3.120  16.807  0.0315 -0.0868 -0.0623
46478W        W89531   7.007  32.735  15.540 -0.0365 -0.1084 -0.1188
46479W        W89532   7.350   4.434   2.120 -0.2426  0.0327 -0.3060
46480W        W89533  30.517   8.206  14.060 -0.0679 -0.2649  0.1852
46481W        W89534  21.551  17.826  21.235 -0.1855  0.2053  0.0686
46482W        W89535  34.263  30.927   6.800 -0.0344  0.0460  0.0528
46483W        W89536  30.505   6.276   8.596 -0.0135  0.0361  0.1848
46484W        W89537  28.635  23.278  15.964 -0.0469  0.0514  0.0515
46485W        W89538   7.252  12.402  18.291 -0.0424  0.0656  0.0766
46486W        W89539  34.559  17.628  28.084 -0.0540  0.4922  0.2841
46487W        W89540  30.027  28.712   8.027 -0.2980 -0.1530 -0.2670
46488W        W89541   3.364  23.201  26.013 -0.0505 -0.4547 -0.1170
46489W        W89542   2.425  14.559  15.424  0.2240  0.0321  0.0712
46490W        W89543  28.594   7.507  22.309  0.0428  0.0581  0.2441
46491W        W89544  29.604  19.995  17.026 -0.1726 -0.4486 -0.2322
46492W        W89545  20.948  27.143   5.420  0.1064 -0.1131 -0.0499
46493W        W89546  29.732  24.085  25.770  0.0589 -0.0833  0.2179
46494W        W89547   9.274   6.630  20.974 -0.0368 -0.0485 -0.3750
46495W        W89548   8.923  32.303  15.504  0.1068  0.0021  0.1370
46496W        W89549   4.480   6.908  19.378  0.2208  0.1047 -0.0320
46497W        W89550  21.605   9.468  20.258 -0.1722 -0.1689 -0.3800
46498W        W89551  33.182   3.812   0.416  0.0477  0.2198 -0.1244
46499W        W89552  32.984  29.745  27.415 -0.1199 -0.2290 -0.1180
46500W        W89553   4.900   6.170  14.797  0.0676 -0.1657 -0.0737
46501W        W89554  13.616  29.006  22.455  0.0227 -0.2096 -0.0682
46502W        W89555  14.749  31.675  23.011 -0.1490 -0.2613 -0.0614
46503W        W89556  18.223   8.017  18.158  0.3550 -0.1641  0.0502
46504W        W89557  20.140  33.822  24.480 -0.0539 -0.1777  0.1965
46505W        W89558  23.177   3.238  27.337 -0.3191  0.3611  0.1223
46506W        W89559  32.091   9.483  20.304 -0.2567  0.1194  0.2815
46507W        W89560   5.914  34.124  16.292 -0.0203  0.1347 -0.1156
46508W        W89561   7.909   2.444  20.333 -0.2186  0.1222  0.2152
46509W        W89562  31.126  10.264  18.554  0.0346  0.0680 -0.0384
46510W        W89563  12.954  25.390  13.654  0.0515 -0.0088 -0.0351
46511W        W89564  18.207   7.703   2.566  0.0376  0.2119 -0.0381
46512W        W89565  34.117  28.483  19.440 -0.0767  0.0553  0.1753
46513W        W89566  33.804  18.095   4.808  0.0692  0.0670 -0.1250
46514W        W89567  21.355   7.707  21.072  0.2010  0.0842 -0.3739
46515W        W89568  28.618   4.817   6.249 -0.0515 -0.0481 -0.2553
46516W        W89569   7.187  23.551  20.543 -0.1057  0.2931 -0.3525
46517W        W89570  31.742   6.065   5.484  0.0791 -0.0644  0.0301
46518W        W89571  26.143  28.155  15.618  0.0028 -0.2292 -0.0878
46519W        W89572  20.857   6.616   1.156 -0.0115 -0.0640 -0.1518
46520W        W89573  26.847   5.655  23.033  0.2194  0.0370  0.1139
46521W        W89574   0.404  28.441  25.339 -0.1710  0.2134  0.2225
46522W        W89575  15.974   2.185  25.919  0.0920  0.2460  0.0923
46523W        W89576   6.168  30.644  22.828 -0.1824  0.1475  0.0724
46524W        W89577  24.797  15.894  13.721  0.2885 -0.2676 -0.0515
46525W        W89578   4.196   2.205  20.493 -0.0665 -0.1020  0.4142
46526W        W89579   3.147  33.280  16.077 -0.0194  0.0376  0.1215
46527W        W89580  21.776   0.328  21.407  0.1037  0.0213  0.1739
46528W        W89581  28.637  16.573  25.424  0.0837 -0.1837  0.2066
46529W        W89582   3.718   7.566  26.730 -0.1768  0.0776  0.1653
46530W        W89583  31.957  28.820  21.385  0.0107 -0.2939 -0.1480
46531W        W89584  31.445  12.754  23.156 -0.0360 -0.0916  0.0060
46532W        W89585   1.730   1.020  21.132 -0.2037 -0.2414  0.0232
46533W        W89586  14.804  29.025  22.541  0.0477  0.0727  0.0573
46534W        W89587  19.563  24.151  23.276  0.0184 -0.2909 -0.0761
46535W        W89588   7.914   2.986  19.115 -0.2100  0.2591  0.1814
46536W        W89589  26.193  32.493   7.936  0.0182 -0.0157  0.0811
46537W        W89590   0.828  32.415  23.080 -0.2140  0.1067  0.0491
46538W        W89591   0.880  19.289  21.000 -0.5097  0.0198 -0.1776
46539W        W89592   6.862  21.596  14.675 -0.0109 -0.1906 -0.0698
46540W        W89593  22.390  33.382  26.006 -0.0018 -0.0396  0.2141
46541W        W89594   1.489  23.041   1.383 -0.1371  0.0045 -0.1566
46542W        W89595   9.705  18.710  21.372 -0.1817 -0.0701 -0.0473
46543W        W89596   5.460  33.888   5.679  0.1565  0.0067 -0.2386
46544W        W89597  20.462  33.391  14.754 -0.0418  0.0163  0.0008
46545W        W89598  23.367   1.293   0.337  0.1824 -0.3823 -0.3565
46546W        W89599  19.429  34.160   5.008 -0.0985 -0.1907  0.2024
46547W        W89600  32.210  30.692  27.952 -0.0090 -0.3436 -0.1078
46548W        W89601  13.479  30.004  28.677 -0.2050 -0.1466  0.0250
46549W        W89602   7.977  26.903   0.745  0.1106 -0.2213 -0.5519
46550W        W89603   3.184  27.975  21.945 -0.1005  0.3253  0.0123
46551W        W89604   0.419  22.900  27.254  0.1026 -0.2391 -0.0725
46552W        W89605  19.746  30.632  24.304  0.0782 -0.0794 -0.1646
46553W        W89606  31.826  16.336  16.207  0.0670 -0.2222  0.1896
46554W        W89607   9.622  12.003   6.111 -0.0497  0.0015 -0.4042
46555W        W89608   0.275  30.522  21.046  0.1482  0.1406 -0.1549
46556W        W89609  20.012  32.576   7.347 -0.2338  0.0922  0.2338
46557W        W89610  22.897   8.908  17.972  0.0398  0.0890 -0.0598
46558W        W89611   4.420  30.290  26.508  0.2233 -0.1865  0.1350
46559W        W89612  28.280   0.291  23.830  0.1223 -0.1596  0.0448
46560W        W89613  11.207  22.381   0.749 -0.0123 -0.0735  0.0357
46561W        W89614  28.032  31.528  24.901 -0.1198  0.0850 -0.2501
46562W        W89615   9.006  19.109  29.003 -0.3128 -0.2176  0.5148
46563W        W89616   3.431  28.609   5.616 -0.0978  0.0811 -0.0510
46564W        W89617   7.460  30.812   2.812 -0.2269  0.1088  0.0985
46565W        W89618  33.848   2.615   4.277 -0.0075  0.2827 -0.3847
46566W        W89619  33.882  29.676  16.621  0.2561 -0.0039  0.1379
46567W        W89620  20.937  10.148  22.291 -0.0321  0.1810  0.2858
46568W        W89621   6.058   7.800   0.496 -0.5259  0.1987  0.0476
46569W        W89622  28.398   6.404  23.236 -0.0362 -0.1949 -0.0415
46570W        W89623  33.411   2.789  27.178 -0.2295  0.2562 -0.0754
46571W        W89624  17.631   7.800   9.370  0.0469 -0.1564 -0.0200
46572W        W89625   8.427  34.072   4.308  0.1145 -0.1422 -0.1000
46573W        W89626  14.063  24.385  17.013 -0.1356 -0.0111 -0.1791
46574W        W89627  25.430  33.823  24.347 -0.2829 -0.1732 -0.4763
46575W        W89628   0.354  18.552  24.808  0.3362 -0.0887 -0.3568
46576W        W89629   1.965   2.402  15.970 -0.4925  0.2451 -0.1906
46577W        W89630  32.720  21.677  23.960  0.0830  0.0289 -0.1660
46578W        W89631   1.988  21.665  25.173  0.1747  0.0608 -0.0055
46579W        W89632   3.135  13.914  26.293  0.0421  0.0345 -0.3215
46580W        W89633   0.195  24.333  14.002 -0.0098  0.0234 -0.0330
46581W        W89634  16.200  14.276   5.966  0.2960  0.1365  0.2723
46582W        W89635   8.751  34.393   3.053 -0.1753 -0.0729  0.1162
46583W        W89636  25.414  33.070  21.810 -0.1053 -0.2516  0.2931
46584W        W89637   5.944  31.715  27.801  0.0204  0.1632  0.1043
46585W        W89638  12.338   0.482  27.647 -0.0830 -0.2998  0.1583
46586W        W89639  33.332  32.891  26.279 -0.0437  0.1020  0.0185
46587W        W89640  26.631  31.401  23.130 -0.2139 -0.0415 -0.0965
46588W        W89641  15.870   0.670  20.279  0.0177 -0.1505  0.1256
46589W        W89642  17.998  25.117  17.657  0.1927  0.0930 -0.4457
46590W        W89643   3.855  11.578   8.824  0.2243 -0.1034 -0.0910
46591W        W89644  16.735  27.450  14.785 -0.2825 -0.0820  0.0139
46592W        W89645   6.201  13.341  26.016  0.1389 -0.2545  0.1066
46593W        W89646  33.607  34.069  16.277 -0.0748  0.0544 -0.1434
46594W        W89647   6.120  28.166  18.091 -0.0819 -0.1217 -0.0427
46595W        W89648  24.235  20.790  13.839  0.0786 -0.3523 -0.2898
46596W        W89649  34.506   3.791   5.151 -0.1133 -0.0052 -0.3221
46597W        W89650   0.311   2.976   4.353 -0.1259  0.2418 -0.2205
46598W        W89651  28.279   3.537  14.581 -0.0699 -0.1749 -0.1477
46599W        W89652   5.595   3.032  20.095 -0.0175  0.0425 -0.1249
46600W        W89653   9.382   5.249  14.183  0.1081  0.2347  0.0893
46601W        W89654  16.332   4.023  14.855  0.2252 -0.1688  0.3063
46602W        W89655  24.540  32.270  22.439 -0.1356 -0.2762 -0.0858
46603W        W89656   1.239  21.466  14.575  0.2986 -0.0293 -0.0678
46604W        W89657  19.348   8.066  22.189  0.0888 -0.0695 -0.1584
46605W        W89658  30.680  34.101  16.623 -0.0714  0.0995  0.0464
46606W        W89659   5.903   7.286   1.408 -0.0245 -0.0446 -0.0846
46607W        W89660  22.223  33.970  24.673  0.0725  0.1667  0.2408
46608W        W89661   9.434   7.508  15.367  0.1832  0.0132 -0.1930
46609W        W89662  24.740  33.076  25.023  0.1901 -0.0908 -0.1274
46610W        W89663   6.128  30.078   9.221 -0.2495 -0.2127 -0.2015
46611W        W89664  28.584   8.997  26.110  0.1922 -0.1461  0.0266
46612W        W89665  26.337  17.440   1.074 -0.0881 -0.0712  0.2820
46613W        W89666  19.701   8.619   9.900 -0.2562  0.1058 -0.1967
46614W        W89667  31.046  20.604   1.152 -0.0104 -0.0096 -0.0189
46615W        W89668   3.568  30.060  13.844  0.1887 -0.0076  0.1332
46616W        W89669   7.978  34.631  15.825 -0.1504  0.2231  0.1988
46617W        W89670   5.383   6.662   4.693 -0.3586  0.0057 -0.0847
46618W        W89671  13.200  32.902   7.687 -0.0199  0.2136 -0.6070
46619W        W89672  19.116  29.052   2.573  0.1410 -0.0772  0.0358
46620W        W89673  30.562   9.397  14.429  0.1676  0.0670 -0.0522
46621W        W89674  23.981   8.008  21.799  0.0431  0.0400 -0.0018
46622W        W89675   3.742   3.644  14.058  0.1366  0.1058  0.0089
46623W        W89676  25.010   4.096  21.355  0.0127  0.0659  0.0221
46624W        W89677  10.200   8.328  26.376  0.0650 -0.0960 -0.3538
46625W        W89678   3.516  30.332  28.968  0.2796  0.3127  0.0567
46626W        W89679  27.595   3.336  17.277  0.1767 -0.3088  0.0071
46627W        W89680  11.930  34.614  16.446  0.1491  0.0004 -0.1924
46628W        W89681   3.659   9.519   5.259  0.3079 -0.0024  0.1281
46629W        W89682   1.087  10.061   1.736 -0.0831  0.0922 -0.5055
46630W        W89683  29.428  28.646  14.253 -0.0090 -0.1752  0.1910
46631W        W89684  19.433   2.159  17.107  0.0534  0.2155 -0.1142
46632W        W89685   6.875  32.098   1.344 -0.0548  0.2399 -0.1518
46633W        W89686  28.988   4.807   9.482 -0.0416 -0.2182 -0.0774
46634W        W89687  31.220  10.293  25.767 -0.0762  0.1498  0.0728
46635W        W89688  24.869   4.716  26.136 -0.1787  0.0463 -0.0127
46636W        W89689   2.090  32.478  17.382  0.0725  0.2794  0.0558
46637W        W89690  24.896   5.559  25.987 -0.1806  0.1304  0.0685
46638W        W89691   0.149  22.844  20.842  0.2361 -0.1786 -0.1058
46639W        W89692  32.853   5.705  20.793  0.0585  0.0561  0.1138
46640W        W89693   6.717  17.952  19.291  0.0604 -0.2494 -0.1635
46641W        W89694  28.662   9.894  26.013 -0.0530 -0.1524  0.0234
46642W        W89695  30.319  34.633  28.627 -0.1094  0.2111  0.0517
46643W        W89696  12.312  19.374   6.020 -0.0791 -0.0331 -0.0249
46644W        W89697  10.740  33.015  22.081 -0.2028  0.2276 -0.1573
46645W        W89698  22.944   7.804  27.832 -0.2102  0.0580  0.0860
46646W        W89699  31.227  32.556  27.335  0.0809  0.3281 -0.3166
46647W        W89700   9.312  33.489  14.722  0.0440 -0.2856 -0.2494
46648W        W89701  28.937  11.739  23.724  0.2812 -0.0806 -0.1502
46649W        W89702  26.468   2.566  16.096  0.0670  0.0365 -0.2367
46650W        W89703  29.023   1.482  16.024 -0.1371 -0.2862 -0.1800
46651W        W89704  23.538  32.700  14.739 -0.0082 -0.2061 -0.0662
46652W        W89705  26.320  18.585  16.785 -0.1980  0.2085  0.2321
46653W        W89706  24.807  31.307  20.263  0.1322  0.0414 -0.0245
46654W        W89707   4.475  33.171   2.362 -0.0661  0.0374 -0.0116
46655W        W89708  34.624  29.678  28.755  0.2029  0.4209  0.0163
46656W        W89709   6.995   5.740   8.000  0.3667 -0.0069  0.0948
46657W        W89710   5.845  34.385   6.912 -0.0534  0.0889 -0.0563
46658W        W89711  27.713  26.018  18.843  0.0466 -0.1611 -0.2015
46659W        W89712  28.466   3.277   8.336 -0.3150 -0.1980  0.1773
46660W        W89713   9.524  10.603   7.582  0.3116 -0.1332  0.1573
46661W        W89714  28.151  28.862  27.518 -0.0223  0.1858  0.3209
46662W        W89715   4.414   5.176  24.926  0.1990 -0.1788  0.0478
46663W        W89716  25.774   1.452  25.127 -0.2946  0.0057  0.3540
46664W        W89717  24.727   2.111  25.232  0.0900 -0.0236  0.1887
46665W        W89718   4.392   2.176  22.498  0.0683 -0.3602 -0.2084
46666W        W89719  31.456  25.920   3.990 -0.0293  0.0001 -0.0326
46667W        W89720  12.298  31.009  17.003  0.0337  0.1877 -0.1513
46668W        W89721   7.065  29.130  15.618  0.0998  0.3758 -0.1233
46669W        W89722  12.178  26.510  25.127 -0.2623  0.1191  0.3380
46670W        W89723  29.976  33.072  19.880  0.0039 -0.3441  0.0085
46671W        W89724  13.611  31.749  19.086  0.2324  0.1697 -0.1095
46672W        W89725  23.557   9.836   2.334  0.1085 -0.0456 -0.1908
46673W        W89726  26.222  27.344  17.796  0.1949  0.0312 -0.3939
46674W        W89727  31.449  32.684  17.157  0.1448 -0.3457 -0.0821
46675W        W89728   4.707  14.969  15.752 -0.0322  0.1129  0.4512
46676W        W89729  25.901  13.147  24.485 -0.2242 -0.0074  0.2142
46677W        W89730  12.244  12.159  23.450 -0.0347  0.0665  0.4064
46678W        W89731   2.933   0.353  23.903 -0.2909  0.0426 -0.2458
46679W        W89732  13.185   8.305  25.237  0.1115 -0.0867  0.0250
46680W        W89733   2.241   4.812   8.918 -0.1876  0.2273 -0.2911
46681W        W89734  27.368   9.857  25.095 -0.0074 -0.3272  0.2612
46682W        W89735   3.016  32.595  17.698 -0.2278  0.0702 -0.1658
46683W        W89736   6.994  30.231  18.623  0.2282 -0.0843  0.0824
46684W        W89737   5.006   0.791  27.679  0.1851 -0.0216  0.0421
46685W        W89738   2.744  17.681   0.162  0.1997 -0.1441 -0.1023
46686W        W89739   4.334  20.728  20.582 -0.0793 -0.0038 -0.0987
46687W        W89740  21.058  20.541  14.219 -0.1874  0.1468  0.2926
46688W        W89741  29.333  31.885  16.186  0.1913  0.0557 -0.0896
46689W        W89742  32.186   7.800  21.959  0.0417 -0.0163  0.2095
46690W        W89743  27.950  14.357   0.616  0.1463  0.0962 -0.3475
46691W        W89744   4.030  11.533   8.319  0.1019  0.3751  0.1890
46692W        W89745  31.473   4.842  14.853 -0.0323 -0.4111  0.2722
46693W        W89746   7.057  11.971  24.166  0.0814 -0.3397  0.0707
46694W        W89747   4.202  20.838  20.058 -0.3453 -0.0089 -0.2424
46695W        W89748  13.758  23.049  23.471 -0.1179  0.0251  0.0710
46696W        W89749  25.494   5.766   1.268  0.0039 -0.2022  0.3578
46697W        W89750  19.917  11.945   8.458  0.4555  0.2629 -0.3594
46698W        W89751  18.107  26.854   2.619 -0.3336  0.0319  0.2109
46699W        W89752   3.771  27.271  25.134 -0.1005 -0.1791 -0.3841
46700W        W89753   7.593  31.631  19.479 -0.0859 -0.3420 -0.2752
46701W        W89754  18.928   5.893  21.577  0.2518  0.2209  0.0436
46702W        W89755   5.670   4.120  18.936  0.0618  0.3108  0.1122
46703W        W89756  18.783   2.588  27.440  0.2596  0.5439 -0.0892
46704W        W89757   9.556   8.761  27.501 -0.0669 -0.0172 -0.1698
46705W        W89758   6.067  28.761   3.336 -0.2103 -0.0523 -0.0863
46706W        W89759   0.179  15.326  19.086 -0.2133  0.0944 -0.1563
46707W        W89760   7.487  31.681  20.033 -0.2586  0.3464 -0.2184
46708W        W89761  30.062  22.920  25.718 -0.2892 -0.0461  0.2380
46709W        W89762  27.008  16.016  24.361 -0.2335  0.0586 -0.0486
46710W        W89763  27.824  20.997   2.784 -0.1817  0.1417 -0.0558
46711W        W89764  10.531   1.135  19.496 -0.0718  0.2048  0.0752
46712W        W89765  23.845  10.153  18.878 -0.2155  0.0718 -0.0118
46713W        W89766  31.898   8.177  27.124 -0.0342  0.2417  0.0332
46714W        W89767  34.138   0.294   1.064  0.1087  0.0821 -0.3024
46715W        W89768  30.243  12.299  21.013  0.1733 -0.0477  0.2990
46716W        W89769  11.428  18.472  16.341 -0.2028 -0.2161 -0.0534
46717W        W89770  34.262   7.225  24.665 -0.2047  0.1350 -0.0806
46718W        W89771  34.115  28.032  23.077  0.1472 -0.0624  0.3173
46719W        W89772  17.099   4.771   0.533 -0.3829  0.2948  0.2819
46720W        W89773  34.297   9.726  15.889  0.1783  0.0663 -0.2549
46721W        W89774  34.156  31.464  14.046 -0.1512  0.0783 -0.0110
46722W        W89775  26.095   1.680  18.810  0.0546  0.2649  0.3292
46723W        W89776  30.696   1.710  25.610 -0.2949 -0.2380 -0.0707
46724W        W89777  15.092   3.273  23.645  0.0832 -0.1290 -0.4285
46725W        W89778  13.152   8.680  28.700  0.1503 -0.0503  0.3284
46726W        W89779  15.573  32.823  16.160 -0.0244 -0.0189 -0.0144
46727W        W89780  14.109   6.834   5.447  0.0749  0.2685  0.1101
46728W        W89781  14.732   4.247  17.983  0.0387  0.1927  0.0108
46729W        W89782  10.422   8.772  16.467 -0.0491  0.0715 -0.1456
46730W        W89783  15.418   4.660  15.302 -0.1813  0.2716  0.0251
46731W        W89784  34.656   3.478  26.269 -0.0463  0.0207 -0.2352
46732W        W89785  11.363  12.309  25.634 -0.3345  0.2799 -0.3314
46733W        W89786   4.621  28.071  28.504  0.0009 -0.2691 -0.1772
46734W        W89787   2.683  12.160  24.407 -0.0405 -0.3315 -0.0152
46735W        W89788  18.280  19.981   3.480 -0.0005 -0.1299  0.1293
46736W        W89789  33.640  30.850  16.224 -0.0561  0.2843 -0.1582
46737W        W89790  34.580   1.493   1.642 -0.1639  0.3770 -0.0396
46738W        W89791  28.596  34.326  22.777  0.3822  0.3591 -0.2485
46739W        W89792   3.075   6.142  16.422 -0.2191 -0.2751 -0.1744
46740W        W89793  24.995   8.510  15.377 -0.1076 -0.2688  0.3103
46741W        W89794  28.371   4.325  25.297  0.0786 -0.0834  0.1327
46742W        W89795  31.726  34.481  29.030  0.2214 -0.1408 -0.0617
46743W        W89796  28.887  28.052   4.742 -0.0006 -0.1426 -0.2495
46744W        W89797   6.331   4.609  23.049  0.0904 -0.4635 -0.0127
46745W        W89798   2.490   7.460  14.889 -0.2600 -0.1499 -0.0234
46746W        W89799   7.663  22.340   1.194 -0.2337 -0.1910  0.1188
46747W        W89800  31.765  30.488  21.105  0.0132  0.2212  0.2782
46748W        W89801   9.131  21.735  23.688  0.2881  0.0450 -0.0610
46749W        W89802  22.878  32.599   4.771  0.0030 -0.1688 -0.1926
46750W        W89803   5.361   5.937  27.801  0.2813  0.4960 -0.0381
46751W        W89804  30.565   3.635  27.310  0.0006  0.1819 -0.0701
46752W        W89805  24.531   4.709   9.464  0.1081  0.1157 -0.0414
46753W        W89806   9.662  16.039  26.344 -0.0195  0.0351 -0.2400
46754W        W89807  29.852  10.195  19.590 -0.2313  0.1550  0.1498
46755W        W89808  28.483  25.219   3.231 -0.0364 -0.1141 -0.2332
46756W        W89809   2.832  31.515  24.923  0.1371  0.1473 -0.0795
46757W        W89810   2.158  28.719   5.914  0.0325 -0.1791  0.2349
46758W        W89811  19.688  31.031  24.011 -0.0734 -0.1749  0.1020
46759W        W89812   8.385   2.785  17.384 -0.0593  0.0165 -0.0484
46760W        W89813  32.390   8.183  29.172  0.1963  0.1288  0.2390
46761W        W89814  22.446   3.156   0.270  0.1144  0.1368 -0.0329
46762W        W89815  31.802  31.412   0.956  0.1662  0.3132 -0.0284
46763W        W89816  28.106   2.945  23.737  0.1555  0.0243  0.4516
46764W        W89817  32.185  33.677  22.355 -0.0591  0.2882 -0.2540
46765W        W89818   6.297   5.767  14.886 -0.0529 -0.1358  0.1187
46766W        W89819  26.675   1.631  17.837 -0.2648 -0.0213  0.0944
46767W        W89820   1.279   8.757   7.269  0.0557 -0.1028 -0.1626
46768W        W89821  33.266  29.579  16.851 -0.0322 -0.1066  0.6562
46769W        W89822   3.073  11.199  21.479 -0.1624 -0.0184  0.2284
46770W        W89823  10.040  10.292  11.002  0.3016  0.2157 -0.1659
46771W        W89824  31.748  19.007   6.254  0.1643  0.0467  0.4160
46772W        W89825   1.694  13.035   9.331 -0.0746  0.0938 -0.1186
46773W        W89826   5.553  31.835   4.950 -0.0149 -0.0444 -0.1037
46774W        W89827   4.612   5.433  10.533  0.3314 -0.0003  0.3365
46775W        W89828   8.720  25.182  20.788 -0.0369  0.1962  0.1257
46776W        W89829  23.876  22.197   4.379 -0.2759  0.0170 -0.0254
46777W        W89830  10.368  30.638  22.621  0.1647 -0.0152 -0.0252
46778W        W89831  33.741  14.880  28.679  0.2381  0.0757 -0.2175
46779W        W89832  31.341  25.374   3.545 -0.2412  0.1035 -0.2038
46780W        W89833   7.159  31.402  19.263 -0.0558 -0.0273  0.0620
46781W        W89834  34.033   5.388  18.261  0.2130 -0.1815  0.0571
46782W        W89835   5.697  27.448  25.511 -0.3458  0.1012 -0.0786
46783W        W89836  10.713   2.690  22.433  0.2987 -0.1302 -0.1382
46784W        W89837  23.179  25.791   2.744 -0.2144  0.0947  0.2615
46785W        W89838  25.451  34.540  23.149 -0.0094 -0.0002 -0.1286
46786W        W89839  23.204   2.061  22.033  0.1052  0.1110 -0.3679
46787W        W89840  27.943   4.383  21.894  0.2562  0.2027  0.0096
46788W        W89841   0.427  18.115  18.457 -0.1636 -0.0571 -0.0308
46789W        W89842  27.936   1.079   4.189 -0.0560  0.0624 -0.0798
46790W        W89843  30.957  14.756  21.570  0.3294  0.2080  0.1118
46791W        W89844   8.295   1.268   6.728 -0.0624  0.0855 -0.0641
46792W        W89845  23.457  33.539  15.671  0.3382 -0.0922  0.2372
46793W        W89846  29.767   5.992  18.210  0.2354  0.0966 -0.2817
46794W        W89847  10.975  11.451   0.367 -0.0426 -0.0184 -0.1254
46795W        W89848  28.483   6.829   8.071  0.0527  0.2053  0.3834
46796W        W89849   8.578   0.556  26.073  0.0154 -0.1720 -0.0344
46797W        W89850  24.997   1.553  27.766 -0.0102 -0.1718 -0.0707
46798W        W89851   5.466   1.053  24.819 -0.1279  0.1775 -0.1463
46799W        W89852   5.093  12.466  25.814 -0.1833  0.0544  0.2348
46800W        W89853   6.260  32.055  21.797  0.1859  0.1040 -0.0185
46801W        W89854   3.810   1.851  22.670  0.0947  0.1043 -0.2258
46802W        W89855  11.665  22.691  22.917 -0.3261 -0.0354  0.0141
46803W        W89856  32.532  19.807  25.454  0.1997  0.0251 -0.3502
46804W        W89857   2.268  26.370   3.207  0.0925  0.4851  0.1565
46805W        W89858  11.196  25.607  19.999 -0.0980  0.0492 -0.0286
46806W        W89859  10.160  13.751  19.916  0.0950 -0.0015 -0.0598
46807W        W89860  19.622  13.929  28.794  0.6000 -0.2376  0.1002
46808W        W89861  28.888   8.866  16.249  0.1437 -0.1162  0.2778
46809W        W89862  27.570   0.990  22.835 -0.1137  0.0269 -0.2871
46810W        W89863  23.576  11.133   9.332 -0.0446  0.1665  0.2387
46811W        W89864  25.854  32.699   9.962  0.4368  0.3335 -0.1431
46812W        W89865   0.650  20.990  25.607  0.3767  0.2077  0.2267
46813W        W89866   2.548  27.879   2.886 -0.1212  0.1452 -0.1877
46814W        W89867   2.003   1.375  13.636 -0.1834 -0.1317 -0.0352
46815W        W89868  32.781  14.862  20.147  0.1522 -0.2607  0.2242
46816W        W89869  30.952  29.053  16.446  0.3671 -0.1946  0.0213
46817W        W89870  12.398  24.777  21.402 -0.0049  0.1846  0.1220
46818W        W89871  12.448   6.526  23.400  0.0288 -0.0550 -0.0090
46819W        W89872  20.474  28.773  18.601 -0.3516 -0.2359  0.3056
46820W        W89873   2.998  33.771   9.638  0.0338  0.2117 -0.0239
46821W        W89874   3.115  34.635  27.322 -0.3173 -0.3653 -0.0846
46822W        W89875  25.117  19.504  23.020  0.2349 -0.3229  0.1049
46823W        W89876  25.240  18.330  29.104  0.0039  0.1883  0.2173
46824W        W89877   0.575  33.242  28.718  0.2971 -0.1676  0.0972
46825W        W89878  32.436   5.285  13.995 -0.1057  0.0015  0.2545
46826W        W89879   4.670   6.571   6.285 -0.0254  0.0159 -0.0265
46827W        W89880   7.682   7.133   5.250 -0.0979  0.0337  0.0330
46828W        W89881  30.413  32.822   6.051 -0.0922  0.0731 -0.2008
46829W        W89882  18.563  13.313  26.546 -0.2806  0.1573 -0.0459
46830W        W89883   5.127   4.196  23.601 -0.0357  0.0918  0.0663
46831W        W89884  18.698  24.886   1.637 -0.1672 -0.0065  0.0795
46832W        W89885   8.782  12.074  23.819 -0.1439  0.3898 -0.0764
46833W        W89886  23.348   0.105  14.354  0.0438 -0.3475 -0.0238
46834W        W89887  30.936   5.942   1.794  0.0796 -0.1634 -0.1073
46835W        W89888  10.696  33.770   5.462  0.1789  0.2431 -0.0886
46836W        W89889   5.367   8.186  27.175  0.2584 -0.1320 -0.3633
46837W        W89890   3.562  13.821  18.584 -0.1874 -0.0219  0.0663
46838W        W89891  27.417  26.069  26.974 -0.3880  0.0881  0.4835
46839W        W89892  31.763  15.850  22.981 -0.1503  0.2544  0.0215
46840W        W89893  12.425   6.492   7.447  0.1343 -0.2635  0.1226
46841W        W89894  22.102  29.211   3.125 -0.0712 -0.3023  0.3237
46842W        W89895   2.166  23.799  25.375 -0.3683  0.3337 -0.1701
46843W        W89896  25.228  10.879  28.287 -0.1108 -0.1804 -0.3735
46844W        W89897   1.551   4.528  23.612 -0.2352 -0.0649 -0.1539
46845W        W89898  33.787  32.021  15.862 -0.1731 -0.2666 -0.0892
46846W        W89899  27.613  33.328   3.505  0.4657 -0.0175  0.1303
46847W        W89900   2.472   2.059  27.213 -0.0302  0.0257 -0.1738
46848W        W89901  30.339  31.587  22.398  0.1543  0.5053 -0.2848
46849W        W89902  25.743  11.116   0.599  0.2488 -0.3319  0.0931
46850W        W89903  32.335  23.891  13.401 -0.0089 -0.1766  0.1228
46851W        W89904  25.878   5.155  27.030  0.1681  0.1538  0.2313
46852W        W89905  21.778  31.115   4.764  0.2148  0.0407 -0.2639
46853W        W89906  29.894  17.433   5.266 -0.0487 -0.2394  0.0862
46854W        W89907  14.678  21.066   8.868 -0.0931  0.0223 -0.0183
46855W        W89908  34.314  27.318  26.353  0.1489 -0.1071  0.1370
46856W        W89909  27.661  34.099  25.844  0.1097 -0.0622 -0.0225
46857W        W89910  23.472  31.876   0.391 -0.2778  0.1947  0.0774
46858W        W89911  27.790   3.723  19.237  0.0578 -0.2152 -0.1407
46859W        W89912  29.472   4.165   3.323 -0.3000  0.1137 -0.1255
46860W        W89913  24.434   6.388   2.433  0.2780  0.4520  0.2262
46861W        W89914   9.337  27.609  20.077 -0.0258 -0.0242  0.2193
46862W        W89915  34.404  30.993   4.516  0.4361  0.3377 -0.2236
46863W        W89916   6.195  31.996  28.917 -0.2110  0.0546 -0.0905
46864W        W89917   5.287   3.808  20.145 -0.0308 -0.0185  0.0423
46865W        W89918   3.157  10.626  28.056 -0.0072  0.1479 -0.1701
46866W        W89919  19.835   4.471  17.776 -0.0049  0.0872  0.2943
46867W        W89920   7.711  30.246   0.083  0.2583 -0.0919 -0.0611
46868W        W89921  13.005  28.154   3.906  0.1638 -0.0612  0.0343
46869W        W89922  32.354   7.921  23.790 -0.2163  0.0273 -0.0363
46870W        W89923  26.991  31.037  19.312  0.3134 -0.1418  0.3067
46871W        W89924   4.679   6.322   4.280  0.0020 -0.0195  0.1401
46872W        W89925  25.219   5.703  18.528 -0.5309  0.0062 -0.0741
46873W        W89926   3.269  32.397  24.854  0.0874  0.2048 -0.1833
46874W        W89927  11.313  18.635  28.075  0.1257 -0.1088 -0.0045
46875W        W89928   9.393  32.311  18.852  0.2096  0.0112  0.1551
46876W        W89929  10.116   9.096  20.287 -0.1376  0.2596  0.0005
46877W        W89930   6.181  29.576  21.283  0.2910  0.1938 -0.1236
46878W        W89931   3.102   4.999   4.808 -0.0477  0.0501  0.1712
46879W        W89932  12.173  29.375  27.888  0.1218 -0.2412  0.0817
46880W        W89933   9.147  22.858   3.216 -0.1187 -0.2595  0.0223
46881W        W89934   3.228   2.687  28.415 -0.1266 -0.1057  0.0026
46882W        W89935   5.443  28.921  16.926  0.4139  0.1672  0.2595
46883W        W89936  29.480  23.569  19.070  0.0957 -0.1009  0.2505
46884W        W89937   9.528  19.712  23.724 -0.2214  0.0188  0.0376
46885W        W89938  25.155  12.977   1.835  0.3299 -0.1361  0.0290
46886W        W89939  12.959  30.974  28.375  0.0034 -0.4079  0.0794
46887W        W89940   8.004  33.079  24.351  0.1275  0.1954  0.1654
46888W        W89941  13.816  34.488  17.743 -0.1591  0.1154 -0.0625
46889W        W89942  29.326  28.678  22.837 -0.2249  0.0920  0.1917
46890W        W89943   0.987   6.489  15.466  0.3347 -0.2097 -0.0945
46891W        W89944  30.931   1.462  13.795  0.1782 -0.0320  0.0827
46892W        W89945   1.569   1.184  28.334  0.1326  0.0738 -0.1028
46893W        W89946  19.817   1.438  16.910 -0.2346  0.2865  0.3212
46894W        W89947  19.389   0.544   2.584 -0.0762  0.0825 -0.3939
46895W        W89948  28.078   4.170  15.236 -0.0928 -0.2029  0.1119
46896W        W89949  14.709   0.602  22.858  0.4010 -0.1182 -0.2074
46897W        W89950  32.562  12.547  28.816  0.0829  0.1081  0.0457
46898W        W89951  34.542  32.929  27.843  0.2944  0.0459  0.1016
46899W        W89952   4.731   3.256   6.409  0.0876 -0.0858 -0.1062
46900W        W89953   6.181   4.043  10.136 -0.2619 -0.3024  0.1085
46901W        W89954  33.622  27.459   7.281  0.0469 -0.0226 -0.1777
46902W        W89955  32.580   4.555  14.642  0.2455  0.0360  0.2984
46903W        W89956  15.924  22.162  28.566 -0.1090 -0.2295 -0.0065
46904W        W89957  32.159   0.796   4.774 -0.1694  0.0136 -0.3229
46905W        W89958  33.320   7.008  24.356  0.3312  0.0214 -0.4921
46906W        W89959   1.929   5.194  24.128  0.0169  0.0459  0.0977
46907W        W89960  34.408   5.674  21.286 -0.0075  0.0189 -0.1133
46908W        W89961  27.372  17.506  28.370 -0.2714  0.2001 -0.1763
46909W        W89962  29.982  27.716   7.271 -0.0382 -0.2019  0.1471
46910W        W89963   0.657  15.705  17.167  0.1867 -0.0986 -0.1530
46911W        W89964   6.756  26.811   5.376 -0.1313 -0.1923 -0.0981
46912W        W89965   7.739   7.742   8.548 -0.2401 -0.1508 -0.1016
46913W        W89966   2.863   3.445   9.862 -0.0094  0.0803  0.1972
46914W        W89967  24.487   8.492  27.006  0.1016 -0.0272  0.1136
46915W        W89968  27.762  21.802   8.997  0.0089  0.1796 -0.1928
46916W        W89969   2.207   6.082  27.944 -0.2483 -0.0833  0.3042
46917W        W89970  16.523   9.051   1.696  0.1189 -0.2398 -0.1126
46918W        W89971  21.165  31.135  16.019  0.0850 -0.1425 -0.1924
46919W        W89972   7.979  34.409   5.007  0.2499  0.1808  0.1754
46920W        W89973  27.537  21.919  25.671 -0.3320  0.5294  0.1840
46921W        W89974  32.571   4.865  19.956  0.2155  0.1499  0.2799
46922W        W89975  34.299   4.987  21.797  0.0428 -0.0448 -0.0852
46923W        W89976  18.890   7.167  18.989 -0.0528  0.1442  0.3514
46924W        W89977   2.413  34.147  28.993 -0.4947 -0.1473 -0.1975
46925W        W89978  31.243   1.655  14.860  0.0822 -0.2284  0.3166
46926W        W89979  31.642  13.435  18.616 -0.3465  0.2188 -0.0168
46927W        W89980  29.705  34.357   2.059  0.2268 -0.0462  0.1202
46928W        W89981  29.042   4.397  15.178  0.2034 -0.2008  0.1590
46929W        W89982  27.297  24.045   2.310 -0.2507 -0.2538  0.0603
46930W        W89983  27.920  25.963  17.149  0.0064  0.0383  0.0150
46931W        W89984  28.881  11.543  24.999  0.0173 -0.3623  0.0638
46932W        W89985   7.134   2.977  21.242 -0.1783 -0.1446 -0.2958
46933W        W89986   0.731   6.919  15.403 -0.1697 -0.0340  0.2741
46934W        W89987  11.341  33.339  23.853 -0.1062 -0.1287 -0.0577
46935W        W89988  32.518  18.244  23.910  0.1539 -0.2108  0.1402
46936W        W89989  19.131  32.861  18.108 -0.1356  0.2068  0.0955
46937W        W89990  22.297  16.941  13.488 -0.0534 -0.0595 -0.2379
46938W        W89991  16.169   4.835   7.192 -0.0396 -0.1104 -0.1394
46939W        W89992  27.937   8.073   1.960 -0.3279  0.2781 -0.0230
46940W        W89993  21.553  19.536  18.532 -0.1885  0.2271 -0.1491
46941W        W89994   3.809   5.592  19.806  0.0245  0.1372 -0.0266
46942W        W89995  12.698  14.345   8.546  0.0397 -0.1198 -0.1200
46943W        W89996  16.069   4.646  21.590  0.1131 -0.0991 -0.1816
46944W        W89997  15.295  28.502   3.582 -0.1973 -0.1868 -0.1172
46945W        W89998   6.278  34.570  19.788  0.0370  0.1685  0.1765
46946W        W89999   5.870   1.583   6.059  0.1771 -0.0045 -0.0422
46947W        W90000   8.926   2.060  23.673 -0.0070 -0.0284 -0.2379
46948W        W90001  26.802  17.706  27.425 -0.1154 -0.1544 -0.1727
46949W        W90002  23.485  29.373  15.478 -0.1238  0.2759 -0.3283
46950W        W90003   7.001  34.360   3.033  0.1392 -0.2416  0.1397
46951W        W90004  19.691   7.610  18.964  0.2135 -0.0897  0.0784
46952W        W90005  23.534  14.595   2.091  0.3026 -0.1880  0.1865
46953W        W90006  32.833   9.191   4.301  0.0011  0.1191 -0.1417
46954W        W90007   5.507  15.390   7.251  0.3180  0.2153  0.0402
46955W        W90008  28.485  29.424  16.918 -0.1621  0.1254  0.0082
46956W        W90009  25.933  33.278  17.303  0.0030  0.0298 -0.2346
46957W        W90010  23.191   3.739  22.794 -0.1349  0.6573  0.2957
46958W        W90011  28.107  13.289  21.827  0.2794  0.3561 -0.1351
46959W        W90012   2.091   7.116  24.722  0.1759  0.2737  0.0211
46960W        W90013  20.288   6.930  21.481 -0.0456  0.1149 -0.0165
46961W        W90014  33.598  34.615   0.720  0.0434 -0.3784  0.0411
46962W        W90015  24.293  22.362   0.159  0.3025 -0.3766 -0.3984
46963W        W90016  26.849   2.324  28.793 -0.4016  0.0864 -0.0195
46964W        W90017   1.982   6.972  15.657  0.0713  0.2637 -0.0548
46965W        W90018   8.241  32.435  27.116  0.1536  0.1231 -0.1784
46966W        W90019  31.268  13.859  21.562 -0.1025 -0.2295 -0.1782
46967W        W90020  23.898  12.123  25.768 -0.1177  0.0603 -0.2726
46968W        W90021  23.524  12.240  14.419 -0.3744 -0.0325  0.1272
46969W        W90022  29.511   3.325  19.081 -0.1685  0.0706 -0.0212
46970W        W90023  29.541   4.878  14.667  0.0225  0.0701  0.1401
46971W        W90024  27.173   1.679  23.191 -0.0492 -0.1343 -0.6186
46972W        W90025  18.174   6.911   0.419 -0.2474  0.0176  0.0985
46973W        W90026  27.264  24.018   3.301  0.1207  0.1087 -0.0990
46974W        W90027  20.535   2.305  10.238 -0.1347 -0.2192  0.0683
46975W        W90028  23.092  11.448  19.079  0.0723 -0.0096  0.0473
46976W        W90029  31.027  33.356   3.829  0.1391  0.1225  0.4261
46977W        W90030   1.596   6.177   5.131  0.0414 -0.1002 -0.1380
46978W        W90031  32.697  31.409   8.140 -0.2660  0.0874  0.0511
46979W        W90032  22.456   8.816   7.073  0.3138 -0.1303 -0.3297
46980W        W90033  23.333  31.573  26.670  0.0730 -0.0629 -0.0814
46981W        W90034  24.545   3.816  14.682 -0.2144  0.0709 -0.1335
46982W        W90035   8.023   3.658   1.145 -0.0915 -0.0706 -0.0749
46983W        W90036  11.863   1.092   3.367  0.0184 -0.0548 -0.1949
46984W        W90037  27.028   3.774   3.326 -0.1620 -0.0243 -0.2061
46985W        W90038  30.183   2.694  26.849 -0.3018  0.1305 -0.0796
46986W        W90039  34.256   0.312  20.931 -0.0167 -0.0935 -0.0339
46987W        W90040   7.124   6.483  27.097 -0.0824  0.3041 -0.1831
46988W        W90041  29.076  34.436   1.782  0.0286 -0.2082  0.3078
46989W        W90042   2.399  11.125  23.592  0.3988 -0.1118 -0.3309
46990W        W90043  32.589  34.447   4.083 -0.0523  0.2151 -0.1008
46991W        W90044  33.734  10.276   0.896  0.0937 -0.0456 -0.1014
46992W        W90045  24.443  17.718   3.860 -0.1231 -0.0135 -0.1676
46993W        W90046  34.355   2.587   5.052 -0.0428  0.0084  0.3890
46994W        W90047  23.573  20.020  27.363  0.1284  0.1443  0.0652
46995W        W90048   6.960  13.871   6.649  0.0562  0.1503  0.1656
46996W        W90049   4.443  29.831  24.664  0.1917  0.0182 -0.2194
46997W        W90050  17.060  18.747  25.132 -0.0603  0.2074 -0.0003
46998W        W90051  27.225  21.039   7.606  0.0556  0.0265  0.0164
46999W        W90052   2.252  14.436   3.443  0.0065 -0.1779  0.0085
47000W        W90053  12.647  31.873   9.409  0.2233  0.0831  0.1449
47001W        W90054  34.058   1.827  17.738  0.0856 -0.0915  0.1655
47002W        W90055  18.591  14.018   3.292 -0.1095 -0.2773  0.0900
47003W        W90056   3.775   0.823  15.151  0.4422 -0.1711  0.2467
47004W        W90057  10.415  30.324  15.683 -0.0060  0.1646  0.0312
47005W        W90058  23.447   6.994  28.443 -0.0880 -0.1795 -0.3847
47006W        W90059   1.753  13.268   9.831  0.0638 -0.0891  0.0095
47007W        W90060  25.161   1.045   1.615  0.1612 -0.1406  0.2492
47008W        W90061   1.813  33.208   7.702  0.0361 -0.0144  0.0785
47009W        W90062   5.102  13.246  29.031 -0.2822 -0.0929 -0.3363
47010W        W90063   2.155   1.591  17.664  0.2966 -0.1154 -0.3067
47011W        W90064  32.691  26.356  18.622  0.0269 -0.0790  0.0264
47012W        W90065   2.815   6.331  16.027 -0.1773 -0.2600  0.0992
47013W        W90066  25.506  12.002  14.899 -0.2964 -0.1119  0.0820
47014W        W90067  17.668   0.962   0.029  0.0507 -0.0018  0.3976
47015W        W90068   6.652  13.262   3.327  0.1408 -0.3297 -0.0256
47016W        W90069  18.877   2.092   3.598  0.3395 -0.2487  0.1099
47017W        W90070   1.281   4.711  25.350 -0.3871  0.0503 -0.2167
47018W        W90071  13.178  24.511   0.020  0.1534 -0.0834 -0.1506
47019W        W90072   4.969   7.754  28.686 -0.1084  0.2027 -0.1685
47020W        W90073  20.918  33.119  19.991 -0.2256  0.0522  0.1451
47021W        W90074  32.530   8.778   0.666  0.2654  0.2950  0.1747
47022W        W90075  12.033  11.229  27.142 -0.0255  0.3838  0.0114
47023W        W90076  14.926   1.918  24.549 -0.0805  0.1396  0.1916
47024W        W90077  22.599  10.570  22.642  0.3517 -0.0126  0.0639
47025W        W90078  16.173  24.746  21.351  0.2936  0.0056 -0.1163
47026W        W90079  30.270   2.569   6.150 -0.1332  0.0821  0.2576
47027W        W90080  33.400   6.084  19.377 -0.0365  0.2336 -0.0951
47028W        W90081   9.424  23.184  24.406  0.1332  0.2696  0.1585
47029W        W90082   0.782  10.542  28.469  0.3965  0.1243 -0.1015
47030W        W90083   7.152  10.461  15.119  0.0955 -0.0088  0.0026
47031W        W90084  28.728  20.757   1.283 -0.1244  0.2240 -0.0983
47032W        W90085  33.563   9.047  24.983  0.1643 -0.3460 -0.4007
47033W        W90086  33.303   8.713  26.799  0.0643  0.5011  0.1316
47034W        W90087  24.608  32.316  15.841 -0.1219 -0.0026  0.3755
47035W        W90088  29.372  34.106  18.985  0.1184  0.1209  0.3949
47036W        W90089  26.379   4.734  26.868 -0.1309 -0.0155  0.0986
47037W        W90090  34.047   3.878  25.601 -0.0229 -0.2909 -0.0040
47038W        W90091   3.377  30.398  18.302 -0.1613 -0.0692 -0.0789
47039W        W90092  24.518   6.159  13.896  0.0991  0.0904  0.2111
47040W        W90093  25.314   0.363  19.574 -0.0397  0.0323  0.2235
47041W        W90094   5.157  12.309   3.175  0.0896  0.0282  0.1565
47042W        W90095  25.236  34.254  18.882 -0.0417 -0.0233 -0.2312
47043W        W90096  27.971  34.305  16.416 -0.1370  0.2123 -0.0245
47044W        W90097  33.952  16.185  16.235  0.1532  0.5703 -0.1656
47045W        W90098  18.771  32.274  18.364  0.0024 -0.0680 -0.6046
47046W        W90099  15.400   6.451  23.147 -0.0997  0.0460  0.1072
47047W        W90100  27.618   6.438  20.564  0.2722  0.0568 -0.0625
47048W        W90101   0.238   8.671  21.599  0.1952 -0.1030  0.1527
47049W        W90102   7.149   0.471  21.384 -0.2363 -0.0371  0.1728
47050W        W90103   6.251   5.473  18.826 -0.2760  0.1360 -0.0459
47051W        W90104   1.987   3.245  19.136  0.0479 -0.1285 -0.1184
47052W        W90105  33.544   1.896  17.639  0.0696  0.0750 -0.1622
47053W        W90106  28.416   7.079   1.160  0.1557  0.3068  0.3531
47054W        W90107   9.948  32.777  15.487  0.2760 -0.3756  0.1212
47055W        W90108   9.907  11.830  16.978  0.0082 -0.0259  0.0932
47056W        W90109   4.867  18.280  24.109 -0.0426 -0.0336 -0.1166
47057W        W90110   4.035  26.303  25.284 -0.1110  0.0558  0.2383
47058W        W90111  32.118  15.606  19.271 -0.0912 -0.0107  0.1853
47059W        W90112  14.298   3.365  14.947  0.0803  0.1365  0.4202
47060W        W90113  19.085   6.768  21.713  0.0228  0.3530 -0.1093
47061W        W90114  28.382  34.324  24.339 -0.2323  0.0870 -0.0217
47062W        W90115   0.846  32.991  20.571  0.0125 -0.1686  0.2671
47063W        W90116  28.388   9.005  20.032  0.1809  0.0199  0.0673
47064W        W90117  27.372  24.617  22.267 -0.1914 -0.1021 -0.3082
47065W        W90118  21.088   1.035   3.402 -0.1105 -0.0411 -0.2095
47066W        W90119  15.669   5.802  16.007 -0.1709 -0.4192 -0.2170
47067W        W90120  23.101  12.767  19.123  0.0064 -0.0751  0.1834
47068W        W90121  30.226  20.343  20.218 -0.0744 -0.2482  0.0522
47069W        W90122  28.069  12.461  16.051  0.0254  0.3241 -0.0295
47070W        W90123  31.951  10.823  23.417  0.0905 -0.0573 -0.5152
47071W        W90124   0.219  10.535  16.896 -0.1006 -0.2383  0.0545
47072W        W90125  22.842  12.082  20.434 -0.1216  0.0259 -0.1589
47073W        W90126  12.908   3.178  21.340 -0.3445 -0.0252  0.0894
47074W        W90127  12.202  11.536  16.760  0.0229  0.0853  0.2934
47075W        W90128  29.173  14.498  18.464 -0.3054  0.0992 -0.0211
47076W        W90129  12.348  12.978  17.664 -0.2100 -0.0370  0.1588
47077W        W90130  32.397  14.537  19.674  0.1046 -0.0911 -0.1349
47078W        W90131   2.620  12.458  24.809  0.4810  0.1327  0.1532
47079W        W90132  28.591  28.018  14.645 -0.1511  0.2260 -0.2493
47080W        W90133   8.361  30.704   8.503 -0.1368 -0.1772  0.1843
47081W        W90134  32.863   0.492  23.718 -0.1907  0.0744  0.2191
47082W        W90135  11.490   9.484  17.149  0.1640 -0.0489  0.3394
47083W        W90136   8.823   1.840  21.429  0.1205  0.1728 -0.0287
47084W        W90137   8.889   9.079  20.671 -0.2158 -0.1010  0.1406
47085W        W90138  22.576  18.738  26.736  0.3173 -0.1556 -0.2539
47086W        W90139  28.030  28.270  16.377 -0.0468 -0.1267  0.2054
47087W        W90140   2.437   4.469  16.560  0.0773 -0.0604  0.0100
47088W        W90141   5.496  12.240   6.821  0.2928  0.2548 -0.0838
47089W        W90142  15.890  34.127  19.159  0.0098  0.0038 -0.0286
47090W        W90143   1.994  30.822  26.671 -0.2436 -0.0542  0.2637
47091W        W90144  13.407   4.591  23.877  0.0940 -0.0923 -0.0545
47092W        W90145  32.656  30.880  22.227  0.0467 -0.0590  0.0945
47093W        W90146   6.725  18.835  14.259  0.3362 -0.1208 -0.3748
47094W        W90147   9.046  18.302  20.092 -0.3141  0.0154  0.0673
47095W        W90148  13.588  10.669   4.344 -0.0955 -0.0574 -0.2226
47096W        W90149  26.182   1.673  14.806  0.1611  0.3066 -0.3018
47097W        W90150   5.509  18.327  25.743 -0.0935 -0.0352  0.2409
47098W        W90151   1.291   0.697  16.597 -0.0659  0.4809 -0.1332
47099W        W90152  20.768   0.843  18.848 -0.0287 -0.3316  0.1546
47100W        W90153  33.390  13.429  19.179  0.0600 -0.3872  0.4562
47101W        W90154   7.011  10.597  21.956 -0.2038 -0.1000 -0.0621
47102W        W90155   7.543  18.627  16.017  0.1661  0.2907  0.1522
47103W        W90156   9.467  29.443  12.642 -0.2293  0.3034  0.1131
47104W        W90157   6.683   7.349   7.046  0.1459  0.0812  0.1750
47105W        W90158  34.472  31.195  15.630  0.3227  0.0081 -0.1032
47106W        W90159  30.969  15.171  13.985  0.2579  0.1363 -0.2648
47107W        W90160   8.706  33.017  20.767  0.2548 -0.2262  0.0809
47108W        W90161   9.153   1.889  16.114 -0.2566  0.0741 -0.1556
47109W        W90162  29.478  20.130  19.887  0.0280 -0.3387 -0.0959
47110W        W90163  28.948  20.230  15.228 -0.1052  0.0019  0.0204
47111W        W90164   4.400  33.757  17.457  0.1364 -0.0502 -0.3799
47112W        W90165  30.335  32.673  27.217  0.1090 -0.0876  0.0458
47113W        W90166  19.593  32.990  16.902 -0.1227 -0.0665  0.1693
47114W        W90167  11.547  32.451  14.135 -0.1578 -0.1919 -0.0547
47115W        W90168  34.241  21.117  24.961 -0.0550 -0.0135  0.2614
47116W        W90169   2.705   4.500  26.011  0.1241 -0.1664  0.0978
47117W        W90170  17.944  30.827  16.042 -0.1326 -0.2875  0.3149
47118W        W90171   3.642  18.217   8.669  0.1876 -0.0190 -0.0267
47119W        W90172   7.113   0.423  24.015 -0.0914  0.2500 -0.1131
47120W        W90173   2.720   3.694  28.863 -0.0985 -0.2155  0.0881
47121W        W90174  34.320   1.420  20.782  0.2001  0.0227 -0.0051
47122W        W90175  29.577  33.039  14.590 -0.0553  0.0172 -0.0154
47123W        W90176   4.058   2.394  24.540  0.1142  0.2516  0.4176
47124W        W90177  13.361   3.356  17.724 -0.0650  0.1143 -0.2443
47125W        W90178   2.406  28.041  21.375 -0.2388 -0.1422 -0.1406
47126W        W90179  33.167  13.006  18.398 -0.1483  0.5290 -0.0698
47127W        W90180   6.801  31.410  27.998 -0.0094 -0.2418 -0.2133
47128W        W90181  27.534  33.283   0.095 -0.3728 -0.3688 -0.2090
47129W        W90182   1.232   8.862  13.557  0.3014 -0.0143 -0.2882
47130W        W90183  32.024  16.755  22.451 -0.1014 -0.3251 -0.0462
47131W        W90184   0.259   8.692  22.725 -0.2720 -0.0202 -0.2731
47132W        W90185  20.901  13.154  27.987 -0.0697 -0.0476  0.1060
47133W        W90186   2.889  29.210  20.033 -0.1509 -0.1626 -0.1413
47134W        W90187  32.875  20.262  18.535 -0.0122  0.1377  0.3623
47135W        W90188   7.662   2.691  21.325  0.0030 -0.1732 -0.0841
47136W        W90189   0.083  32.142  20.161 -0.1576 -0.0765  0.1812
47137W        W90190  27.597   7.211  26.610  0.1883  0.1747 -0.1186
47138W        W90191  23.501   4.137   9.834 -0.1806 -0.2403  0.0881
47139W        W90192  25.892  30.412  17.158  0.0082 -0.2459 -0.1327
47140W        W90193  16.704  33.540   3.796  0.1420 -0.0839  0.0667
47141W        W90194   4.930  32.917  19.486  0.0262  0.1033 -0.1564
47142W        W90195   7.881   1.675  20.638 -0.1313 -0.0193  0.4075
47143W        W90196  22.475   5.473   6.046 -0.2390  0.2461 -0.1657
47144W        W90197  26.025  26.194  19.053 -0.0703 -0.2139  0.1081
47145W        W90198  29.133  12.790  28.951 -0.1424  0.0048  0.0319
47146W        W90199   1.495  24.454  13.248  0.0603 -0.0672  0.2827
47147W        W90200  32.261   2.498   1.698  0.2323 -0.0306 -0.1296
47148W        W90201  31.298  10.889  25.023  0.0401  0.2874  0.0254
47149W        W90202  16.325  10.935  24.253 -0.3101 -0.1411  0.1374
47150W        W90203  34.558   1.985  18.475 -0.1764 -0.0247  0.0230
47151W        W90204   4.113  14.114   1.867  0.0880 -0.0805  0.0242
47152W        W90205   3.780  17.568  23.042  0.0627  0.1577  0.0474
47153W        W90206  19.867  12.921  20.968  0.1208  0.1735 -0.1546
47154W        W90207  16.876  31.167  18.188  0.1285  0.0024 -0.0121
47155W        W90208  30.212  31.377  16.518 -0.2106  0.2009  0.0667
47156W        W90209   6.005  31.618  18.047 -0.0883  0.0116  0.1717
47157W        W90210   0.226  31.084  23.618  0.2265 -0.3367 -0.0396
47158W        W90211  21.232   8.049  26.176 -0.1192 -0.1210 -0.0937
47159W        W90212  24.905  12.219  20.386 -0.0970 -0.0780  0.1176
47160W        W90213  28.133  28.200  20.025 -0.1369 -0.0689  0.4720
47161W        W90214  23.368  12.631  14.644 -0.0997  0.1554 -0.3587
47162W        W90215  29.118  30.892  14.702 -0.2366  0.2898 -0.0131
47163W        W90216  30.052   8.509  24.641 -0.2535  0.2916  0.2129
47164W        W90217   9.133   0.279  24.570  0.0769  0.1142  0.0614
47165W        W90218  34.319   1.916  20.839 -0.2928  0.5110  0.2163
47166W        W90219   7.231  31.146  15.683 -0.0047  0.0202 -0.2842
47167W        W90220  23.980  13.376  23.541 -0.0016 -0.4476  0.2709
47168W        W90221   4.826   6.132  18.151 -0.0383 -0.1148  0.1153
47169W        W90222   8.003   2.798  16.552  0.1836 -0.1464 -0.0597
47170W        W90223  34.011  30.425  18.310  0.3930  0.0912  0.2138
47171W        W90224  11.331   1.087  28.896  0.0245  0.0588 -0.0521
47172W        W90225   9.036  10.856  22.539  0.3916 -0.3398  0.0928
47173W        W90226  29.819  27.337  25.871  0.2391  0.2462  0.3885
47174W        W90227  15.365  10.521  27.869  0.1715 -0.1110 -0.2237
47175W        W90228  25.657  13.161  16.985  0.0356  0.0744 -0.0085
47176W        W90229  21.170  15.991  14.417 -0.2465  0.3357  0.0478
47177W        W90230  29.609   7.262   8.586 -0.2158  0.0320 -0.1133
47178W        W90231  15.321   6.781  19.911 -0.3405  0.1477  0.1151
47179W        W90232  31.898  33.654  27.880  0.2502  0.5109 -0.0506
47180W        W90233   4.077   2.786  23.294  0.1540 -0.2324 -0.0068
47181W        W90234  12.713   2.965  20.265 -0.0885  0.2663  0.2223
47182W        W90235  25.894  32.821  16.816  0.0995  0.3634 -0.3503
47183W        W90236   4.715   5.090  15.598  0.1844  0.1362  0.1297
47184W        W90237   2.901  24.906  15.918 -0.1795 -0.1489  0.3052
47185W        W90238  12.801   4.835  19.952 -0.0885  0.0997  0.1985
47186W        W90239   0.097   6.123  23.262  0.1984 -0.2632  0.2143
47187W        W90240   7.918   9.254   2.919 -0.2762  0.0753  0.2044
47188W        W90241  29.710   6.769  19.693 -0.0921 -0.2458 -0.1022
47189W        W90242  25.061  34.503  15.206  0.5056 -0.2886  0.0475
47190W        W90243  30.579  29.007  16.952  0.2692  0.1412  0.0671
47191W        W90244  18.726  10.785  14.553 -0.3039  0.0482  0.0454
47192W        W90245   6.294   1.098  27.585 -0.0573  0.0105 -0.1172
47193W        W90246   2.129   7.448  15.880 -0.0589  0.3064 -0.0399
47194W        W90247  20.956   4.085  13.687 -0.0615  0.0773 -0.2334
47195W        W90248  33.677   4.073  19.544 -0.0833  0.0931  0.2191
47196W        W90249   3.596  26.350  26.613  0.1688  0.2729 -0.4577
47197W        W90250  32.372   7.038  16.462 -0.0291  0.0186  0.0391
47198W        W90251  13.740  20.139  21.019 -0.1244  0.0591 -0.0894
47199W        W90252  20.768   5.492  14.326 -0.3455 -0.1643  0.2364
47200W        W90253  34.526  13.245  25.037  0.2251  0.3683 -0.0985
47201W        W90254   8.563  17.303  15.747 -0.3310 -0.0117 -0.0657
47202W        W90255   3.801   8.302  17.714  0.0688 -0.1601  0.1539
47203W        W90256   3.247   8.190  21.468  0.0600 -0.0985  0.0717
47204W        W90257   2.248   4.043  18.267  0.0877 -0.1443 -0.1771
47205W        W90258   9.128   4.753  23.418 -0.0328 -0.1947  0.4675
47206W        W90259  17.042  33.196  21.477 -0.0853  0.1917 -0.1981
47207W        W90260   4.939   0.304   7.064 -0.1838  0.1756  0.1487
47208W        W90261   1.924  30.904  13.468 -0.1273  0.2172  0.2786
47209W        W90262  23.767   4.913  20.034 -0.3257 -0.0647 -0.1030
47210W        W90263  31.853  15.713  15.111  0.0094  0.2503  0.1548
47211W        W90264  18.743  32.692  25.291  0.1218  0.2755  0.0641
47212W        W90265  22.227   1.039  24.438 -0.2818 -0.1150 -0.2205
47213W        W90266   7.517  30.523  14.136 -0.0521  0.0119  0.0951
47214W        W90267  27.415   9.717  21.201 -0.2850  0.0918 -0.2394
47215W        W90268  30.095  33.204   0.101  0.2567 -0.2676 -0.1664
47216W        W90269  19.980  22.935  15.234  0.0649 -0.1460  0.0074
47217W        W90270  28.433  16.229  26.427  0.1520 -0.1417 -0.2759
47218W        W90271  13.372   6.543  15.966 -0.1578  0.3881 -0.0379
47219W        W90272  12.056  27.157  22.360  0.1058 -0.2083 -0.1576
47220W        W90273  32.548  21.360  25.366 -0.1511 -0.2723 -0.1384
47221W        W90274  12.138  33.604  19.263  0.3111  0.0526  0.0816
47222W        W90275   9.325  33.071   0.277 -0.2744 -0.1807  0.1681
47223W        W90276   6.611  20.237  16.031  0.1999  0.0467 -0.3274
47224W        W90277  29.322  33.008  19.479 -0.0255  0.1673  0.3686
47225W        W90278   8.359  25.131  22.221  0.1169 -0.1775 -0.1704
47226W        W90279   0.622  32.545  22.128 -0.1220  0.2858  0.1147
47227W        W90280   0.546  18.619   0.212  0.1549 -0.1426 -0.1426
47228W        W90281  27.970   8.812  20.353  0.2360 -0.2015 -0.0316
47229W        W90282   2.770  30.797  23.626 -0.2570  0.0691 -0.3884
47230W        W90283  12.982  29.640  22.898 -0.0094 -0.0712  0.0613
47231W        W90284  33.680  30.412  17.081 -0.1299 -0.0736 -0.2157
47232W        W90285  33.409   7.275  19.300 -0.0070  0.2581  0.0150
47233W        W90286  33.920  16.210  21.108  0.0858 -0.0663 -0.0687
47234W        W90287  32.222   0.288   8.127 -0.0907  0.2184 -0.0291
47235W        W90288  25.862  28.087  17.704 -0.0662 -0.2448 -0.3405
47236W        W90289   2.518   2.820  24.151  0.2384  0.1419 -0.2637
47237W        W90290  12.132  10.121  26.672  0.2040  0.0410 -0.1277
47238W        W90291  20.656  14.250  24.964  0.2937 -0.5530  0.0816
47239W        W90292  12.457   9.294  22.061 -0.2464 -0.1097 -0.1840
47240W        W90293  32.142   6.457  26.790  0.1459 -0.2529  0.2438
47241W        W90294  34.260   4.425  22.160 -0.4977 -0.0907  0.2289
47242W        W90295  34.336   2.154  15.638  0.0926 -0.1188 -0.1302
47243W        W90296  22.241  15.237   6.197  0.0763 -0.4633  0.0908
47244W        W90297  26.793  12.856  18.848  0.1448  0.0093 -0.0623
47245W        W90298   3.531  20.290  15.981  0.0055  0.0121 -0.0835
47246W        W90299   3.260  29.245  24.722 -0.0637  0.2693  0.1223
47247W        W90300   4.683   6.091  15.853 -0.0622 -0.0940 -0.1349
47248W        W90301   5.456  10.219  15.748  0.0072 -0.0071 -0.2628
47249W        W90302  22.187  29.678  22.273 -0.0853  0.3760 -0.4544
47250W        W90303   2.143  23.262   9.510  0.1393  0.0544 -0.3176
47251W        W90304  22.479  16.030  21.802  0.0461  0.1004  0.2413
47252W        W90305  26.022  23.148  16.762 -0.2551  0.1615  0.1104
47253W        W90306  21.093   6.577  19.706 -0.0119  0.1870  0.2775
47254W        W90307  11.045   5.206  26.221 -0.1374 -0.0614  0.1708
47255W        W90308  11.923  15.481  20.024 -0.2591 -0.1049  0.0742
47256W        W90309  16.301   9.586  26.358 -0.4312  0.3905  0.1310
47257W        W90310  29.160   2.118  28.483 -0.2303 -0.0073  0.1073
47258W        W90311  30.342  19.211  28.143  0.0053  0.1691 -0.2317
47259W        W90312  14.506   9.452  23.264  0.2429 -0.2565  0.0478
47260W        W90313  26.704  19.688  27.922  0.0918 -0.2332  0.0577
47261W        W90314  34.082  30.878  14.959 -0.0994 -0.1605  0.2888
47262W        W90315  11.698  24.353   3.216 -0.1812 -0.2313  0.1383
47263W        W90316   0.391  12.126  28.681  0.0501 -0.2896  0.0125
47264W        W90317   4.459   8.008  15.646  0.3956  0.1507  0.0370
47265W        W90318   6.546  27.045  29.001 -0.0254 -0.1286  0.0112
47266W        W90319  19.061  31.461  21.319  0.1831  0.0477  0.0104
47267W        W90320   2.860   7.148  20.123 -0.3495 -0.1396 -0.0188
47268W        W90321   0.338  33.968  15.028 -0.1778  0.0847 -0.2196
47269W        W90322  12.922   6.442  20.949 -0.2837  0.0139  0.3169
47270W        W90323  30.482   2.029  25.187  0.0427  0.1745  0.0805
47271W        W90324  25.073  18.104  20.735 -0.1536 -0.0278  0.2705
47272W        W90325  26.660  32.339  14.093 -0.1275 -0.0871 -0.0527
47273W        W90326  30.216   7.406   3.884  0.1324  0.0121  0.1861
47274W        W90327  30.072   5.284   5.742  0.2207  0.1412 -0.0869
47275W        W90328  17.660  34.511  26.400  0.3246 -0.1235  0.0964
47276W        W90329  21.511   4.900  14.547  0.0413 -0.1566  0.0320
47277W        W90330  29.765   0.789  18.796  0.0724  0.1151 -0.4015
47278W        W90331  33.097   5.809  26.832  0.0433  0.1177 -0.0285
47279W        W90332   9.105  18.480  15.450  0.2855 -0.2129  0.0363
47280W        W90333  23.623  17.432  19.214 -0.0410 -0.3145  0.1863
47281W        W90334   7.736   3.339  23.114  0.1298  0.2240 -0.0837
47282W        W90335   2.193  28.623  23.759  0.1423  0.1227  0.0894
47283W        W90336   4.348  31.297  15.855  0.2578  0.1818 -0.0970
47284W        W90337  28.774   7.846  16.059 -0.0212  0.3701 -0.0142
47285W        W90338   7.792  19.508  20.387 -0.0332 -0.0536  0.2189
47286W        W90339   8.032   7.525   2.406  0.0908 -0.1109  0.3105
47287W        W90340  26.747   8.862  14.736  0.2274 -0.0184  0.0901
47288W        W90341  23.466   4.636  15.742  0.1210 -0.0897 -0.4278
47289W        W90342  14.740   4.419  20.765 -0.2471 -0.2769 -0.0733
47290W        W90343   9.837   3.790  15.042  0.1129  0.0500  0.1449
47291W        W90344  32.513  24.554  18.161  0.0845  0.0073 -0.3866
47292W        W90345  28.228   0.233  18.424  0.2062 -0.1040  0.1813
47293W        W90346   6.605   5.248  15.746 -0.2635 -0.1698  0.2726
47294W        W90347  30.262  11.281  15.020 -0.3347  0.0829 -0.1225
47295W        W90348   6.215  26.732  22.839 -0.0417 -0.0220 -0.1067
47296W        W90349   7.404  26.748  25.330 -0.2036  0.2796 -0.2531
47297W        W90350  21.066   5.820   2.372 -0.0418 -0.1742 -0.2866
47298W        W90351  10.790   1.877   4.408 -0.3058  0.0225  0.1637
47299W        W90352  31.308   3.568  27.170 -0.1054 -0.0490 -0.1450
47300W        W90353  18.181  18.309  22.247 -0.0822 -0.2538 -0.1136
47301W        W90354  32.923  17.332  16.603 -0.1636  0.3236  0.2444
47302W        W90355   0.632  33.021  27.277  0.2499 -0.1366  0.2061
47303W        W90356   1.255  13.026  29.177  0.1578  0.1779  0.1507
47304W        W90357   7.059  16.965  16.777  0.0108  0.2477 -0.0415
47305W        W90358   8.201   1.224  17.483  0.4119 -0.1465 -0.0274
47306W        W90359  24.168  22.712  17.162  0.0899 -0.2697  0.2841
47307W        W90360  17.003  17.234  15.182  0.0570  0.2232  0.0780
47308W        W90361  14.799   4.297   7.148 -0.0709  0.3262 -0.0396
47309W        W90362  30.177   2.435  14.974 -0.0245  0.1813  0.1568
47310W        W90363  31.784   2.046  18.340  0.0661 -0.1169  0.0930
47311W        W90364  26.664  33.230   2.506 -0.1400 -0.2637  0.1589
47312W        W90365  10.798  29.227  20.581 -0.0864 -0.1582 -0.1884
47313W        W90366   3.247   3.427  16.789 -0.1906  0.0441 -0.0209
47314W        W90367  27.570  17.357  25.487 -0.3900 -0.2793  0.3055
47315W        W90368  16.915   6.875  20.518 -0.4456 -0.5121 -0.2042
47316W        W90369   4.848  32.548  23.489  0.1244  0.1803  0.3876
47317W        W90370  24.592   9.198  14.270  0.2742  0.1914 -0.0839
47318W        W90371   0.260  20.181  21.804  0.0983  0.0937  0.0544
47319W        W90372  21.361  30.509   0.922  0.0205  0.1249 -0.0102
47320W        W90373   4.465   5.739   0.213  0.1799  0.0827  0.3745
47321W        W90374   2.177   8.682   9.094  0.0115  0.1278 -0.2371
47322W        W90375  13.559  28.154  17.048  0.1497 -0.1778 -0.1052
47323W        W90376  16.880  32.050   2.753  0.1638  0.0479  0.1290
47324W        W90377  28.090  17.601  17.987 -0.0891 -0.1059  0.0444
47325W        W90378   3.676  30.751  20.509 -0.3425  0.3039  0.0382
47326W        W90379  32.159   5.512  26.812 -0.0398  0.0008  0.0361
47327W        W90380   5.423   2.328  16.391  0.1794 -0.1583 -0.0298
47328W        W90381  14.452   9.286  17.309  0.2877  0.1681  0.0506
47329W        W90382  23.856  13.383  22.650 -0.0361 -0.1504  0.1437
47330W        W90383  11.667  31.090  19.419  0.0688 -0.1817 -0.0021
47331W        W90384  25.588  32.823   6.636 -0.0494  0.2046 -0.1597
47332W        W90385  27.043   3.010  28.539 -0.1065 -0.2124  0.1250
47333W        W90386  33.124  16.763  15.307  0.1117  0.1900  0.2441
47334W        W90387  21.448  34.163  21.753  0.0829  0.2991 -0.3244
47335W        W90388   2.007  28.656   5.457  0.0088 -0.0298 -0.2897
47336W        W90389   5.348   4.541   7.761  0.0281 -0.1173 -0.0101
47337W        W90390  31.289   3.528   3.496  0.0864  0.0670 -0.3106
47338W        W90391  15.383   0.197  16.708  0.2190  0.1198  0.2877
47339W        W90392   3.463   5.398  22.209  0.0327  0.0323  0.3538
47340W        W90393  30.934   2.630   2.054 -0.0432  0.1405 -0.3585
47341W        W90394  18.390  24.048  15.275  0.3178 -0.3828  0.1379
47342W        W90395   5.100  28.416  18.992  0.1108  0.0391  0.2512
47343W        W90396   2.940  13.793  15.995  0.2916 -0.0312 -0.1173
47344W        W90397   9.316  15.001   1.987  0.0766  0.4965 -0.2224
47345W        W90398   2.490  21.124  20.486 -0.2435 -0.2487  0.2811
47346W        W90399   2.588  15.886  20.118  0.2808  0.0329  0.0856
47347W        W90400  28.053  22.584  22.218 -0.1383 -0.1458  0.0648
47348W        W90401   5.114  34.681  18.310  0.0355 -0.2232  0.0061
47349W        W90402   5.923   3.493  23.554  0.1171 -0.3185 -0.1006
47350W        W90403   7.288   2.502  28.802 -0.3804 -0.0530 -0.2263
47351W        W90404   5.526   4.421  29.164 -0.3165  0.1520 -0.1075
47352W        W90405  31.023  23.020  26.705 -0.2158  0.0108  0.0618
47353W        W90406  25.985  30.374   2.673  0.1058  0.2389  0.0040
47354W        W90407  25.436  12.685  22.713  0.1377 -0.0620 -0.0573
47355W        W90408  30.932  15.263  27.033 -0.1925 -0.0511  0.0765
47356W        W90409   6.287   9.138  14.266  0.0373 -0.1790  0.0836
47357W        W90410   5.917   2.677  27.668 -0.3031 -0.2413 -0.1808
47358W        W90411   0.563  33.648  25.423  0.0438  0.0933  0.2632
47359W        W90412   9.121   1.647  17.709 -0.1830 -0.0674  0.0126
47360W        W90413  28.591  16.639   2.345  0.1428  0.0205 -0.1889
47361W        W90414  16.528   4.330  24.874  0.0312 -0.1731  0.0181
47362W        W90415  18.375   6.733  19.757 -0.2468  0.1021  0.0820
47363W        W90416  22.758  30.404  18.865  0.0527  0.1998 -0.0498
47364W        W90417  23.968   9.027  16.140 -0.2396  0.1890  0.1146
47365W        W90418  23.919  30.081   6.608 -0.3138 -0.2577  0.0328
47366W        W90419  13.779  33.982  13.971 -0.1118 -0.3504 -0.1207
47367W        W90420  26.348   5.968  14.426 -0.1138  0.0412 -0.1647
47368W        W90421  14.417  32.711  21.457  0.0854 -0.0988  0.0207
47369W        W90422   5.300   7.930  29.166  0.1695  0.2197 -0.2479
47370W        W90423   1.078  30.864  18.964  0.1128  0.3014  0.2111
47371W        W90424   4.980  10.603  18.784  0.0006  0.3331  0.2298
47372W        W90425   6.443  15.595  25.857  0.1157 -0.0233 -0.1812
47373W        W90426  29.866   5.423  19.869 -0.0460 -0.0734  0.1019
47374W        W90427  17.297  10.371  16.070 -0.0807  0.1185 -0.0087
47375W        W90428  15.242  28.049  20.385 -0.0421  0.1728 -0.1615
47376W        W90429   2.104  31.855  13.285  0.0240 -0.0398  0.1982
47377W        W90430  34.194   5.842  27.829  0.2740  0.0988  0.1100
47378W        W90431  28.602  16.775   8.636  0.2527  0.0570  0.1027
47379W        W90432  11.325  12.620  24.335 -0.1897  0.2615  0.1561
47380W        W90433   1.828  27.703  16.418 -0.2056 -0.0295  0.3913
47381W        W90434  28.427  28.801   5.124  0.1785  0.2339  0.1679
47382W        W90435  34.455  18.924  23.131  0.3039 -0.1453 -0.0373
47383W        W90436   5.283   2.937  27.619 -0.1155 -0.2114 -0.1922
47384W        W90437   0.305  27.544  15.209 -0.0228  0.2572  0.0178
47385W        W90438  20.154  30.293   5.280  0.2382  0.5536  0.2590
47386W        W90439  22.691  25.212  20.609  0.2120  0.0186 -0.0923
47387W        W90440  23.980  27.860  22.660 -0.3541 -0.1539  0.2405
47388W        W90441  28.627  33.740  15.117  0.0160 -0.0189  0.0472
47389W        W90442   8.526   2.689   4.625 -0.1178  0.1818  0.1983
47390W        W90443  24.922   8.041  16.343  0.3007 -0.0598 -0.1552
47391W        W90444   3.931   4.612  15.063 -0.0796  0.2939  0.2155
47392W        W90445  20.582   5.403  16.479  0.1929  0.2182 -0.7090
47393W        W90446   2.696   4.274  15.402  0.2784  0.2066 -0.1354
47394W        W90447  20.456  32.420  16.243  0.1815 -0.1576  0.1281
47395W        W90448  34.581   6.253  20.469  0.1748  0.0122  0.0529
47396W        W90449   0.241  10.985  19.779  0.1968  0.3184 -0.0789
47397W        W90450  15.512   4.784  17.099  0.2523 -0.0727  0.1270
47398W        W90451   5.038   8.758  14.789  0.1318 -0.0273  0.0771
47399W        W90452   0.037  18.500  23.071  0.1796 -0.1255 -0.0861
47400W        W90453  29.750  33.029  15.066 -0.2725  0.2401  0.0963
47401W        W90454  26.380  11.303  26.749  0.2674 -0.1375 -0.0647
47402W        W90455  20.421   4.369  16.506  0.2369  0.2364 -0.1946
47403W        W90456  32.061  30.781  20.744  0.1871  0.0084 -0.3234
47404W        W90457  17.272   7.972   2.581 -0.1349  0.0931  0.1987
47405W        W90458  30.383  31.685   6.330 -0.0874 -0.0552  0.0548
47406W        W90459  33.832  23.527  20.865  0.0865  0.1566  0.3380
47407W        W90460  11.959   0.640   4.210 -0.0597  0.0740  0.1464
47408W        W90461  23.614   4.371  16.481  0.2023  0.0698 -0.2890
47409W        W90462   0.726  10.593  18.463 -0.1575  0.5458  0.0338
47410W        W90463  12.426   5.079  14.966  0.0663  0.0507  0.0343
47411W        W90464  27.144  11.488  25.000  0.0152 -0.1049 -0.1405
47412W        W90465  26.414  21.107  18.507  0.1889 -0.1588 -0.5935
47413W        W90466  26.875   7.836  20.667 -0.1209 -0.0204  0.1725
47414W        W90467  10.118   6.150  17.635  0.2305 -0.0558 -0.3732
47415W        W90468  27.583   2.660  24.784  0.0782 -0.3032  0.1430
47416W        W90469   8.295   1.962   2.250 -0.2319 -0.2399 -0.0378
47417W        W90470   4.511   1.488  25.533  0.3492  0.1070 -0.0056
47418W        W90471  27.985  25.294  19.595 -0.1135 -0.0258 -0.1323
47419W        W90472   3.874  16.315  19.884 -0.1109  0.0516  0.0038
47420W        W90473  33.313   0.059  25.050 -0.3268  0.1000  0.1441
47421W        W90474  14.726   8.888  26.230 -0.1927  0.3263  0.0640
47422W        W90475   6.469   5.424  22.476 -0.2730  0.0702  0.0383
47423W        W90476  27.991   8.471  15.226  0.1674  0.0106 -0.0620
47424W        W90477   8.745  33.887  20.629 -0.0796 -0.1311  0.1154
47425W        W90478  32.308   9.481  24.238 -0.0048 -0.2297  0.2699
47426W        W90479  24.481  19.281  21.186  0.1539  0.1137  0.2754
47427W        W90480  22.221  20.114  20.838  0.0668 -0.0079 -0.0482
47428W        W90481  28.861  34.473  19.677  0.1259 -0.3318 -0.1203
47429W        W90482  32.118  24.279  19.076 -0.2307  0.1202  0.0677
47430W        W90483  34.673   3.463  20.200 -0.0105  0.1845  0.1808
47431W        W90484  11.103  10.809  23.236 -0.0368  0.2888 -0.4523
47432W        W90485   1.666   8.761  22.830 -0.1156  0.0583  0.0367
47433W        W90486   9.333  28.087  14.443 -0.0729  0.1825  0.0638
47434W        W90487   4.411   2.070   6.373  0.4165  0.1886 -0.1799
47435W        W90488  11.729  32.706  23.663  0.1688 -0.1946 -0.1837
47436W        W90489  10.752   0.985  24.198  0.1633  0.0039 -0.0738
47437W        W90490  21.874   4.150  14.306 -0.0337 -0.0281  0.2045
47438W        W90491  25.385  19.931  14.437  0.0509  0.2504  0.0334
47439W        W90492  33.466  12.280   2.689  0.1844  0.1439 -0.2077
47440W        W90493  27.134  10.174  21.254 -0.0390  0.1439  0.0265
47441W        W90494   1.352   4.297  17.884 -0.1546  0.1733  0.2597
47442W        W90495  30.316  33.870  13.048  0.3588  0.0538 -0.1231
47443W        W90496   5.877  10.810  17.115 -0.1514 -0.0046  0.1546
47444W        W90497   4.231   5.175  14.321 -0.2724  0.0346 -0.3403
47445W        W90498  32.905  31.631  18.574 -0.0963  0.3557 -0.0086
47446W        W90499  33.515  11.746  15.885  0.0883 -0.1283 -0.2379
47447W        W90500  21.435  13.672  18.828  0.0833 -0.2506 -0.3164
47448W        W90501  17.292  27.233   0.999 -0.1050  0.1371 -0.0036
47449W        W90502  25.155  15.904  17.883  0.2022  0.2756  0.3473
47450W        W90503  27.132  31.160  21.105 -0.1227 -0.1333  0.1906
47451W        W90504  11.430   7.589   9.851 -0.0823  0.0668 -0.0819
47452W        W90505  29.046  23.819  17.822 -0.1403 -0.0852 -0.2255
47453W        W90506  20.707  12.229  25.562 -0.1839  0.1842  0.0674
47454W        W90507  28.713   8.149   7.239 -0.1171 -0.1325 -0.1950
47455W        W90508   2.842  19.452  23.950 -0.4257  0.4899  0.3138
47456W        W90509   1.594   2.173  28.122  0.3063  0.1104 -0.1600
47457W        W90510  11.395  34.508  28.701  0.0377  0.0743  0.1712
47458W        W90511  30.368  10.809  28.714  0.0307 -0.1657 -0.1969
47459W        W90512  10.474  33.430   1.550 -0.0023  0.2463  0.0841
47460W        W90513   4.159  18.426  28.772 -0.0164  0.1112 -0.0657
47461W        W90514  31.839   7.261  28.472 -0.3286 -0.1238 -0.4418
47462W        W90515   0.771  27.553  23.509  0.0577  0.1010  0.3025
47463W        W90516   6.760  30.551  14.816 -0.1220 -0.2187  0.1531
47464W        W90517   6.059  33.760  21.612 -0.0450 -0.0898 -0.0772
47465W        W90518   1.180  14.967  15.019 -0.0621  0.2651 -0.5136
47466W        W90519  25.388  28.348  25.096  0.2450 -0.0414 -0.0524
47467W        W90520  28.353  14.809   2.075 -0.0939  0.2396 -0.0746
47468W        W90521  23.717   6.457  25.064  0.4789 -0.2025  0.1249
47469W        W90522  28.521  14.034  25.441 -0.1875 -0.3411  0.0354
47470W        W90523  32.737  12.131  25.763 -0.0807  0.2734 -0.3898
47471W        W90524   4.335  16.780   1.734 -0.0955 -0.1032  0.0352
47472W        W90525  16.792  25.567  17.943  0.0515 -0.1952 -0.1634
47473W        W90526   6.092  18.677   4.541  0.0104  0.1258  0.0786
47474W        W90527  19.511   2.795  16.784  0.1471  0.0910 -0.2646
47475W        W90528   2.405   4.003   8.631  0.1253 -0.0043  0.0216
47476W        W90529  15.710  33.126   0.173  0.0417  0.1804  0.2769
47477W        W90530   2.673   8.230  26.610 -0.1731 -0.1649 -0.1526
47478W        W90531   8.281   5.464  17.344 -0.5737  0.3954 -0.0858
47479W        W90532  13.442   2.308   1.270  0.1811  0.1107 -0.3469
47480W        W90533  32.178   6.759  19.186  0.4353 -0.0655 -0.0188
47481W        W90534   6.438  33.641  25.879 -0.4033  0.1361 -0.0388
47482W        W90535  11.004   5.454  15.391 -0.4380 -0.0437  0.1442
47483W        W90536  14.012   1.892  20.276  0.0731 -0.0175  0.0552
47484W        W90537  20.024  15.394  25.888  0.2576 -0.3591 -0.0668
47485W        W90538  10.346   2.111  28.762 -0.2587 -0.1033 -0.0559
47486W        W90539   3.453  33.148  15.212  0.1516  0.0943  0.0183
47487W        W90540  29.138   7.135  20.531 -0.0213  0.0166  0.0042
47488W        W90541   6.636   6.123   1.049 -0.0394  0.0218  0.3249
47489W        W90542  27.036  10.221  28.112 -0.1157 -0.0533  0.0429
47490W        W90543  12.226   2.248  23.152  0.0667 -0.1905 -0.3191
47491W        W90544  31.386   6.852  21.540  0.2065 -0.0367  0.0106
47492W        W90545  28.882  30.168  19.001  0.0046  0.2510 -0.0871
47493W        W90546   7.902   4.874   5.475  0.0177 -0.4380  0.0220
47494W        W90547  24.571  11.174  16.066 -0.2268  0.0314  0.1637
47495W        W90548  14.710   5.039   2.982  0.3057 -0.0292 -0.1663
47496W        W90549   2.067   7.169  26.184  0.0227 -0.1592  0.1434
47497W        W90550   1.930  33.864  25.779  0.2838  0.2643  0.1197
47498W        W90551  26.201  32.902   9.600 -0.0490 -0.0459 -0.0230
47499W        W90552  23.386   8.237  25.579  0.2224 -0.2908  0.0041
47500W        W90553  25.844   8.014  21.885 -0.0151 -0.2158  0.0389
47501W        W90554   6.372  27.868  27.959 -0.1891  0.3584  0.0968
47502W        W90555  33.339   3.007  26.325  0.0858 -0.0823 -0.1498
47503W        W90556   1.116  16.133  27.710 -0.2246  0.0326  0.1190
47504W        W90557   8.090  25.322   4.974 -0.0648  0.0243  0.0508
47505W        W90558  27.231  18.130  22.889  0.0342  0.0714 -0.0168
47506W        W90559  26.328   5.716  22.718 -0.0315 -0.0402 -0.1035
47507W        W90560   4.146  31.774  15.592  0.0289 -0.0600 -0.0937
47508W        W90561   0.379  12.435   0.748 -0.0121  0.2838 -0.2789
47509W        W90562  18.109   9.704  23.217  0.2178  0.1361  0.0789
47510W        W90563  32.943   4.229  13.702  0.1816  0.0509 -0.1159
47511W        W90564  19.039  23.728  19.685 -0.0660  0.0073  0.2061
47512W        W90565  30.770  11.094   1.411 -0.1089 -0.4565 -0.1687
47513W        W90566   1.788   7.814  16.080  0.0422  0.2947 -0.0905
47514W        W90567  26.378  15.396  23.076 -0.0470  0.2033 -0.1169
47515W        W90568   6.842  27.129  25.982 -0.3202  0.3151 -0.1414
47516W        W90569  13.429   0.809   8.977 -0.0111 -0.1500  0.1115
47517W        W90570  30.561  13.727  22.340  0.3782  0.1372  0.1658
47518W        W90571   6.570   0.631   1.317  0.0803  0.0302  0.2955
47519W        W90572  28.103   7.159  25.606 -0.0361 -0.1084 -0.2338
47520W        W90573  14.395   2.823  28.094  0.1793 -0.1136 -0.1453
47521W        W90574   1.706   6.228   1.143  0.0272 -0.1902  0.1793
47522W        W90575  22.855  15.765   0.681 -0.3129  0.3744  0.4368
47523W        W90576   4.975   8.069  19.539 -0.0076 -0.0833  0.3846
47524W        W90577  20.755   5.599  23.034 -0.1880  0.0668 -0.0557
47525W        W90578  31.415  31.789  10.487 -0.0034  0.1119 -0.0110
47526W        W90579  24.234   3.087  16.151 -0.0876  0.1145  0.2413
47527W        W90580  17.771   1.609  20.757  0.1292 -0.3040 -0.0153
47528W        W90581   3.155   5.791  22.136 -0.1342  0.2754 -0.4297
47529W        W90582  33.374   5.445  28.712  0.0014 -0.4460  0.0149
47530W        W90583  24.452  19.819  17.776  0.1792  0.2510 -0.0397
47531W        W90584   0.861  29.732  25.796 -0.3168  0.0216 -0.0886
47532W        W90585   5.653   6.631   8.096 -0.0365 -0.1741  0.1342
47533W        W90586  24.471   5.115  14.779  0.0450  0.0207 -0.0592
47534W        W90587   5.932   0.808  21.436 -0.2626  0.4120 -0.0039
47535W        W90588  24.167  12.094  22.371 -0.3028 -0.0391  0.0773
47536W        W90589   2.281  11.546  16.129 -0.1044 -0.0278 -0.2290
47537W        W90590  13.030  33.072  15.249  0.6006  0.2355  0.5147
47538W        W90591   8.328  10.063  25.469  0.1225  0.3040 -0.3152
47539W        W90592  32.499  19.222   1.678  0.2186  0.1978  0.0104
47540W        W90593  23.030   6.202  24.429 -0.1043  0.3691  0.0160
47541W        W90594   6.252   3.254   3.253 -0.1312  0.1120 -0.0798
47542W        W90595  30.127  32.290  24.513 -0.1233  0.0514  0.1637
47543W        W90596  33.609   5.621   1.665  0.4615 -0.1460  0.2262
47544W        W90597   1.057  19.389   9.388  0.1951 -0.0411 -0.3031
47545W        W90598   5.661  16.251  27.596 -0.2093 -0.1244 -0.1137
47546W        W90599  21.550   1.848   0.663 -0.2023  0.0947  0.0986
47547W        W90600  12.915  14.515  28.214 -0.2602  0.0971  0.1182
47548W        W90601  26.075  10.637  10.421 -0.0391 -0.0851 -0.1339
47549W        W90602   3.527   6.745   5.633  0.0578  0.1633 -0.1688
47550W        W90603  24.477   1.108   2.317 -0.1549 -0.0259 -0.2300
47551W        W90604  11.760  24.909  21.509  0.1572 -0.0000  0.1536
47552W        W90605  20.607  18.572  16.063  0.0369  0.0658 -0.1252
47553W        W90606  17.961   8.877   4.465  0.1797  0.1814 -0.0744
47554W        W90607  34.579  19.866  21.889  0.2311 -0.2060  0.2434
47555W        W90608   0.083  32.447  13.976 -0.3134  0.3044  0.1286
47556W        W90609   4.141   7.294   3.548  0.0140 -0.2078 -0.0900
47557W        W90610  29.733   1.492   4.468  0.2917 -0.3917  0.2835
47558W        W90611  19.625   7.880  16.367 -0.3148 -0.4249 -0.2588
47559W        W90612  33.915   2.654  23.512  0.0960  0.2964 -0.0375
47560W        W90613  17.874   2.422   7.009 -0.2518  0.0955  0.0235
47561W        W90614   0.887   5.305  21.939 -0.1031 -0.4328 -0.1547
47562W        W90615   9.602  15.376  19.436  0.1502 -0.1728  0.3066
47563W        W90616  27.729  13.811  23.105  0.2103  0.2148  0.1198
47564W        W90617  28.470  24.357  18.958  0.0511 -0.1097  0.0131
47565W        W90618  21.749  18.530  22.343  0.0618  0.0382  0.1338
47566W        W90619  29.434  22.781   3.660 -0.3679 -0.1894 -0.3224
47567W        W90620  32.082  10.228  14.582 -0.0816  0.1638 -0.1101
47568W        W90621  13.905  11.928  27.616  0.1471  0.0474 -0.2300
47569W        W90622  21.320   2.363  18.789 -0.0061  0.1016 -0.0665
47570W        W90623   7.389   1.731   3.009  0.0859  0.1556  0.0202
47571W        W90624  27.127  11.404  20.316 -0.1397 -0.0851  0.0827
47572W        W90625  14.025   2.418  15.798 -0.0708 -0.0651  0.2894
47573W        W90626  11.007  27.528  21.161 -0.0263 -0.1199 -0.2315
47574W        W90627  19.593  29.088   0.059 -0.0889 -0.1981 -0.1043
47575W        W90628   2.850   3.551   4.616  0.1678  0.2108  0.0601
47576W        W90629  10.544  32.051  25.302  0.0829 -0.0300  0.0513
47577W        W90630  18.053   5.343  17.597 -0.0448 -0.0197 -0.3475
47578W        W90631  30.579   9.149  15.261 -0.0269 -0.0856 -0.0308
47579W        W90632  29.901  13.620   7.617 -0.2478 -0.0641  0.0473
47580W        W90633  18.129   6.437  20.109 -0.1002 -0.2714 -0.0277
47581W        W90634  26.948  24.830  19.951  0.0241  0.3519  0.0497
47582W        W90635   1.460  11.943  22.280 -0.1539 -0.0565 -0.1211
47583W        W90636  31.309  29.836  15.989 -0.3451  0.1032  0.1653
47584W        W90637  18.145  10.994  21.101 -0.0111 -0.1210 -0.0903
47585W        W90638  16.170  14.713   2.240 -0.3709 -0.2472 -0.0397
47586W        W90639  32.998  15.993  16.422 -0.0123  0.0256 -0.0326
47587W        W90640   5.943   3.372   8.970  0.1581  0.0605 -0.2531
47588W        W90641  10.041   2.598  24.243  0.1174 -0.1945  0.3680
47589W        W90642  33.305  19.392  25.195 -0.3613 -0.2649  0.1796
47590W        W90643  31.381   4.439   1.562 -0.0822 -0.4664  0.1796
47591W        W90644  17.335  30.661  21.158  0.0033 -0.0142 -0.1228
47592W        W90645  32.620  26.365  19.139 -0.0414  0.0331 -0.2241
47593W        W90646  28.585  21.246  22.002 -0.1456  0.2162  0.0813
47594W        W90647  12.217   3.333  28.190  0.1070 -0.3196  0.2690
47595W        W90648  28.760  10.100   0.602  0.0453  0.0401  0.2320
47596W        W90649   2.940   5.788  23.797 -0.2740  0.1560  0.1521
47597W        W90650  11.001  11.114   8.587 -0.1305  0.0141  0.0125
47598W        W90651  17.787   9.688   3.340 -0.0941  0.0794 -0.0452
47599W        W90652   2.197   2.658  26.918 -0.2313  0.0491 -0.3253
47600W        W90653  28.353  28.312   3.933 -0.1903 -0.3198  0.4469
47601W        W90654  34.480  14.186  28.916  0.0857  0.1760  0.1933
47602W        W90655   8.198   5.199  28.858  0.0488 -0.0160 -0.0419
47603W        W90656  12.248  29.210   5.235 -0.1245 -0.0420  0.0087
47604W        W90657  26.310  34.360  22.852  0.3119 -0.1438 -0.1583
47605W        W90658   3.375  20.556   0.310  0.2126 -0.3321 -0.0142
47606W        W90659  17.173   9.091  19.921 -0.3270  0.3318 -0.0059
47607W        W90660  20.883   2.304   2.937 -0.0114 -0.2139  0.1337
47608W        W90661   6.749  13.047   2.911 -0.1269  0.2629 -0.0927
47609W        W90662  30.648   9.267  13.989 -0.3227  0.0170  0.1391
47610W        W90663  14.585   7.739   1.355  0.0109  0.0022  0.1814
47611W        W90664  34.612   4.589  16.938 -0.1320  0.2341  0.0346
47612W        W90665  27.434   1.817  18.170 -0.1096 -0.1646  0.1346
47613W        W90666   5.235   2.523  19.221 -0.2614 -0.3856  0.0026
47614W        W90667   6.438  13.749   1.814 -0.1237 -0.1766  0.1400
47615W        W90668  33.555  33.733  27.311 -0.0970 -0.0829  0.0753
47616W        W90669   3.631  13.833  27.204  0.1020  0.0521 -0.1519
47617W        W90670   1.378  30.819  17.659  0.0888  0.1178 -0.3148
47618W        W90671  15.419   5.290   5.871  0.0310 -0.1365 -0.1191
47619W        W90672   4.063  24.957  22.362 -0.0492 -0.2166 -0.1205
47620W        W90673   7.949  28.728  28.497  0.1510 -0.0288 -0.0601
47621W        W90674   7.149  13.083   8.258  0.0052 -0.2537  0.0267
47622W        W90675  32.307  23.364  23.392  0.0903  0.2117 -0.1124
47623W        W90676  24.681  10.983  17.193 -0.2729  0.1718 -0.1130
47624W        W90677   8.899  19.494  22.263  0.0033 -0.1039  0.0663
47625W        W90678  18.858  10.199  23.715  0.0043  0.0695 -0.2499
47626W        W90679   4.887   3.871  14.248  0.0996 -0.2988  0.1546
47627W        W90680  21.467  13.822  23.126  0.0838 -0.0073 -0.0168
47628W        W90681  27.853   9.392  15.355  0.3480  0.1183  0.2024
47629W        W90682  30.345   4.167  14.796  0.1307 -0.2364 -0.0380
47630W        W90683  27.766  22.669  20.566 -0.0479 -0.0352 -0.0894
47631W        W90684  34.506  15.304  24.133  0.1781 -0.3544 -0.4514
47632W        W90685  11.311   2.905  23.855  0.1740 -0.0672 -0.2049
47633W        W90686  29.847   0.816  22.255 -0.1056  0.1300 -0.4417
47634W        W90687   2.827   4.696  17.485  0.1889 -0.3642 -0.0743
47635W        W90688   4.839  30.917   5.041 -0.2322 -0.1714 -0.1629
47636W        W90689  30.950  34.491  16.070  0.1051  0.3219  0.2505
47637W        W90690   2.751  12.376  28.613 -0.0433 -0.2247  0.1677
47638W        W90691  33.545  32.367  18.506 -0.0231 -0.0245 -0.2016
47639W        W90692  12.122   3.542   7.898 -0.1620  0.1394  0.1133
47640W        W90693  12.217  31.656   1.348 -0.0122  0.3709  0.1695
47641W        W90694   6.087  14.659   2.206  0.1703 -0.0540 -0.1127
47642W        W90695  32.058  13.462  20.496  0.0341 -0.2356 -0.1343
47643W        W90696  33.525  29.551   0.082 -0.0612 -0.1857 -0.0080
47644W        W90697   6.469  30.309  25.165  0.1477 -0.2180 -0.0950
47645W        W90698  28.129  29.431  21.032  0.3118 -0.0030 -0.0249
47646W        W90699  23.908   4.063  28.489 -0.1993  0.0170  0.1504
47647W        W90700  25.633   4.723  27.843  0.4156 -0.1438  0.0780
47648W        W90701  29.891  31.085   5.865  0.2151 -0.3377  0.0763
47649W        W90702  30.799  31.175   8.125  0.1101  0.2196 -0.2072
47650W        W90703   2.213   3.724  27.376 -0.0805  0.0562 -0.1129
47651W        W90704  29.769   8.548  23.522  0.3574  0.1168 -0.2151
47652W        W90705  29.852   6.839   7.894 -0.1582  0.1228  0.2539
47653W        W90706  24.895   2.856  24.946 -0.1603  0.2610  0.0709
47654W        W90707   8.750  10.954  27.002 -0.5095 -0.2362  0.0584
47655W        W90708  33.703  16.864   3.078 -0.0827  0.1129  0.2980
47656W        W90709   3.249   6.991  19.862 -0.1027 -0.0137  0.1157
47657W        W90710   1.320   4.452   7.890 -0.1103  0.1986 -0.1307
47658W        W90711   9.955  11.998  17.456  0.1011 -0.2479 -0.0897
47659W        W90712   3.662   2.486  16.916  0.0619  0.4379 -0.2088
47660W        W90713   2.338   0.661  21.334 -0.0584  0.0068  0.3632
47661W        W90714  19.207   5.876  26.763  0.0264  0.0741  0.4149
47662W        W90715  27.709  33.672  24.069  0.0873 -0.0762 -0.0795
47663W        W90716   9.401   4.585   1.623 -0.1384 -0.0301 -0.0589
47664W        W90717   7.206   4.411  25.240 -0.0950 -0.4240  0.3770
47665W        W90718  15.537   1.552   2.295 -0.0732  0.0093 -0.1042
47666W        W90719  10.688  14.761  21.884  0.0817 -0.1209 -0.0602
47667W        W90720   4.424  32.311  18.599 -0.2778 -0.3153  0.2027
47668W        W90721  34.208  30.570  17.412  0.0666  0.0527  0.1695
47669W        W90722   0.492   3.231   1.741  0.2667 -0.0762  0.0034
47670W        W90723  28.201   6.315  29.043 -0.0742 -0.0923  0.1307
47671W        W90724  30.871   4.864  24.821  0.3836 -0.1399  0.0710
47672W        W90725  22.731   9.540  28.047  0.1350  0.3171  0.0354
47673W        W90726  19.955  28.095   9.327  0.3110 -0.0811  0.0930
47674W        W90727   1.422  26.022  14.016 -0.1937 -0.1154 -0.2844
47675W        W90728  13.032  28.167   4.458 -0.2756  0.2544  0.0579
47676W        W90729   3.633   9.186  14.975  0.1213 -0.1894  0.3257
47677W        W90730   1.267  31.815   8.442  0.0019 -0.0486 -0.3791
47678W        W90731  16.812   3.436   8.458 -0.0847 -0.1170 -0.2446
47679W        W90732   8.888   1.623   4.797 -0.2262  0.3193 -0.1053
47680W        W90733   8.369   0.894  23.310 -0.1044  0.1887  0.2077
47681W        W90734  14.045  15.974   1.867 -0.1716 -0.0407 -0.1411
47682W        W90735  26.555   5.426   1.747  0.0121 -0.1259 -0.1275
47683W        W90736   9.903  29.684   9.065  0.0642  0.0123 -0.1521
47684W        W90737  22.982   4.517  15.330 -0.0919 -0.0787 -0.0637
47685W        W90738  13.373  15.811  24.529 -0.2081 -0.0584 -0.0240
47686W        W90739   3.972   3.047   6.030  0.4067 -0.0212  0.0903
47687W        W90740   5.537   1.545   9.252 -0.1951  0.0394 -0.2894
47688W        W90741  10.211   6.581  18.172 -0.1277 -0.0179 -0.1087
47689W        W90742  23.686  15.845  24.949  0.2261  0.2751 -0.2178
47690W        W90743  32.402  34.506   2.373  0.0546  0.2170 -0.1319
47691W        W90744  29.378  11.569  25.536  0.1771 -0.1250 -0.0907
47692W        W90745  14.899   8.607   2.938  0.1388 -0.0082  0.0085
47693W        W90746  14.692  32.893   7.469 -0.1751  0.1130 -0.0354
47694W        W90747   7.631   8.877   2.165 -0.0498  0.1933  0.1458
47695W        W90748  21.981  33.840  28.005 -0.3125 -0.1389  0.0870
47696W        W90749  21.533  14.565   7.695  0.1991  0.2731 -0.1235
47697W        W90750  31.478   2.020  26.941  0.1126 -0.0141  0.0705
47698W        W90751   8.861  13.182   4.253 -0.3189  0.0577 -0.3912
47699W        W90752  34.290  10.700  24.648  0.1125 -0.2789  0.1114
47700W        W90753  27.838   6.908  26.944  0.1533 -0.1264 -0.0197
47701W        W90754  32.674  34.141   7.818 -0.2797 -0.0378 -0.0521
47702W        W90755   0.589  29.626  28.238  0.1645  0.1386  0.1996
47703W        W90756  24.029  20.606  23.134 -0.0169 -0.2604 -0.0749
47704W        W90757   1.231  10.512  20.396  0.0629 -0.0063 -0.0492
47705W        W90758  23.553   2.370   5.235 -0.2783  0.3925  0.1295
47706W        W90759  13.929  18.771   7.551  0.0842 -0.0778  0.1030
47707W        W90760  34.494  16.370   8.542 -0.1595 -0.0814 -0.0710
47708W        W90761  22.650   6.136  27.693 -0.0889  0.0103  0.0548
47709W        W90762   7.100   0.129   9.859 -0.2088 -0.3250 -0.1732
47710W        W90763   2.824   6.894  16.860 -0.2020 -0.0212  0.1540
47711W        W90764  26.036  22.009  18.024  0.0622 -0.2546  0.2795
47712W        W90765  32.898   7.637  16.084 -0.0565  0.3572  0.2562
47713W        W90766  24.382  20.658   7.768  0.2983  0.1819  0.2311
47714W        W90767  29.989   1.170  25.828  0.0051  0.2563  0.0872
47715W        W90768   3.908   5.266  17.752  0.1635 -0.0513  0.2330
47716W        W90769  31.082   9.998  15.037  0.1450  0.2069  0.4092
47717W        W90770  13.533   5.693   3.181  0.1289  0.0134  0.1629
47718W        W90771  21.448  14.770  14.709  0.0006 -0.1108 -0.2331
47719W        W90772  26.760   1.529   9.571 -0.3752  0.1266 -0.0721
47720W        W90773   6.580  10.391  26.015  0.2446  0.2871  0.1714
47721W        W90774  32.749  16.786   1.945 -0.2274 -0.0255  0.1073
47722W        W90775  27.690   3.643  20.546 -0.3829  0.1071 -0.0711
47723W        W90776   3.062  31.031   2.806 -0.0456 -0.1151  0.3245
47724W        W90777  34.200   8.709  28.949 -0.2345 -0.2844 -0.1508
47725W        W90778  13.811   4.576   2.770  0.2521  0.5123 -0.2589
47726W        W90779  33.798  27.005   5.232 -0.2139  0.0228 -0.2128
47727W        W90780   4.139  10.922  18.013 -0.0152 -0.1115  0.1492
47728W        W90781  28.367  10.494  17.099 -0.0183 -0.1582  0.0284
47729W        W90782  27.970   8.479  16.157  0.1697  0.1847  0.3870
47730W        W90783  32.649   4.415   9.227  0.0769  0.0285  0.2128
47731W        W90784   3.762  10.098  28.543 -0.3058 -0.1295  0.1518
47732W        W90785  20.727  32.338  22.607 -0.0351  0.0096  0.1493
47733W        W90786  29.713   3.555  28.700  0.0183 -0.0964 -0.1918
47734W        W90787  31.847  19.608  15.295 -0.0798  0.0425  0.1208
47735W        W90788  30.507  12.411   5.187  0.1606  0.2031 -0.1491
47736W        W90789   2.348   9.081   9.724  0.0586  0.1765  0.1149
47737W        W90790  11.785   5.836  28.969  0.0654 -0.1385  0.1640
47738W        W90791  16.295  21.431   1.590  0.1182  0.3694  0.0286
47739W        W90792  27.220  12.816  17.532 -0.1479  0.0409  0.1043
47740W        W90793  26.494  25.824  17.108  0.1008 -0.0456  0.0790
47741W        W90794  10.340  14.146  23.771  0.0377  0.0914  0.0994
47742W        W90795  29.917   3.075   8.776 -0.2043  0.0053  0.0920
47743W        W90796  34.517  20.596  14.286 -0.0704  0.0402 -0.0546
47744W        W90797  21.754   9.707  21.101 -0.3638 -0.1391  0.1121
47745W        W90798  30.874  19.306   1.728  0.0481 -0.0462 -0.2245
47746W        W90799  25.974   3.282  25.907 -0.2472  0.0836  0.1103
47747W        W90800   3.457  13.230  18.058 -0.1710 -0.1221  0.0042
47748W        W90801  22.242  33.125   1.529 -0.2837 -0.1107  0.3396
47749W        W90802   8.547  10.247  14.957 -0.1767  0.1040  0.0738
47750W        W90803  10.763  11.609   9.863 -0.0528  0.3211  0.0635
47751W        W90804   2.544  10.880   0.527  0.4413  0.1443 -0.0785
47752W        W90805  16.536   9.549  18.723  0.0237  0.0183 -0.2910
47753W        W90806   1.057  29.434   0.218 -0.0590  0.1416 -0.2090
47754W        W90807  26.472   6.115  13.865 -0.1580  0.0927 -0.0550
47755W        W90808   4.181  25.235  19.117  0.2423  0.0383  0.2392
47756W        W90809   2.465   8.628   9.509 -0.1604  0.1005 -0.1691
47757W        W90810   0.288  12.088   2.113  0.1933 -0.0568 -0.2906
47758W        W90811   1.634  27.764  22.885 -0.1282 -0.0799 -0.1948
47759W        W90812  10.683  11.447   7.217 -0.0002  0.4238  0.2702
47760W        W90813   4.288   6.820  19.871  0.0268 -0.0133  0.3595
47761W        W90814  25.099  27.406  24.830  0.0347  0.0652 -0.0580
47762W        W90815  33.263   6.308  20.419 -0.3798  0.3182 -0.0982
47763W        W90816  34.043  28.557   8.846  0.1721 -0.2201 -0.2690
47764W        W90817  34.400   3.440   5.668  0.2841  0.1851  0.1339
47765W        W90818  12.926   3.122   1.202 -0.0571 -0.1853 -0.0170
47766W        W90819   2.793   5.724  16.503 -0.1947 -0.0056  0.1047
47767W        W90820  32.996   7.425  15.642 -0.3901 -0.0973 -0.1217
47768W        W90821  25.618  34.258  24.690  0.1019  0.1274 -0.1202
47769W        W90822  10.049   7.398   3.800 -0.0282 -0.1374 -0.0776
47770W        W90823   9.367   9.024  20.474  0.5966 -0.2182 -0.0328
47771W        W90824   3.945   0.977  21.138 -0.0688  0.0044  0.1294
47772W        W90825   4.255   9.569  10.771  0.2257 -0.0141  0.0227
47773W        W90826  21.229  12.327  23.925 -0.0005 -0.2129  0.0342
47774W        W90827  32.035  34.437   7.213 -0.3335  0.3456  0.0835
47775W        W90828  10.776  15.362   9.894 -0.1669  0.3150  0.1785
47776W        W90829  21.971  33.088   7.389 -0.0081  0.3141  0.0714
47777W        W90830  14.819   6.206  28.250 -0.0621  0.1743 -0.0059
47778W        W90831  12.309  10.569  24.160  0.2155 -0.3814 -0.0876
47779W        W90832  33.075   8.561   2.542  0.0566 -0.2240 -0.2566
47780W        W90833  28.619  30.993  14.574 -0.2445  0.1212 -0.3485
47781W        W90834  11.453  32.300   8.882 -0.0835  0.0594  0.2752
47782W        W90835  17.347  23.707   4.509 -0.1994 -0.0814 -0.0336
47783W        W90836  26.424  11.568  14.771  0.1659  0.1523 -0.1062
47784W        W90837  29.139   0.704  25.002  0.1504 -0.0830  0.0235
47785W        W90838  26.902  13.495   6.483 -0.0476 -0.5702 -0.0197
47786W        W90839   1.657   6.508   4.285 -0.1616  0.0220  0.4436
47787W        W90840  21.408  32.761  21.966  0.4091  0.5964  0.1129
47788W        W90841  34.259  19.602   4.378  0.0540 -0.1786  0.1548
47789W        W90842  16.305  26.809  26.956  0.2441  0.0353 -0.3805
47790W        W90843  12.261  17.465  15.932 -0.2291  0.1292  0.0211
47791W        W90844   0.328  31.039  20.854  0.2542 -0.1450 -0.0226
47792W        W90845   7.742   3.864  19.728 -0.0883  0.2166  0.0362
47793W        W90846   2.068   4.704  22.351 -0.2096  0.1519 -0.0559
47794W        W90847  26.070   4.029  28.082 -0.2715  0.1203  0.1825
47795W        W90848  32.807   1.718  25.887  0.0129  0.0557 -0.1111
47796W        W90849  31.412  11.795  19.243  0.2741 -0.1319  0.2352
47797W        W90850  12.586  15.228   0.512  0.0096 -0.0990 -0.0358
47798W        W90851  10.023  34.409   3.889 -0.2491  0.1093 -0.1835
47799W        W90852  11.828   1.245  24.043 -0.0147 -0.2822  0.1766
47800W        W90853  26.433  13.988  23.327  0.0732  0.0797 -0.0118
47801W        W90854  28.390   5.215  20.703 -0.1098 -0.1510  0.1112
47802W        W90855  32.836   8.041  21.226 -0.0304  0.0508 -0.0074
47803W        W90856  26.289  13.663  29.038  0.1197 -0.0044 -0.0903
47804W        W90857  10.972  33.700  20.614  0.1566 -0.1827  0.0418
47805W        W90858  15.445  32.811  19.070 -0.0592 -0.0947 -0.1028
47806W        W90859   4.937  20.056  21.639  0.1167 -0.2278  0.2180
47807W        W90860  31.575  18.423   2.854 -0.1669 -0.0435 -0.2895
47808W        W90861   7.018   8.437  22.672 -0.1257 -0.2648  0.0311
47809W        W90862   1.830   4.845  15.127 -0.0708  0.1695  0.1609
47810W        W90863   1.502  32.408  28.083 -0.0222  0.1493  0.2011
47811W        W90864  20.702   7.650  22.248  0.1934  0.0682 -0.4118
47812W        W90865  30.926  30.086   4.719 -0.0798  0.0462  0.0153
47813W        W90866  21.813   5.502  17.555 -0.0894 -0.1448  0.1816
47814W        W90867  30.360   9.631  27.513 -0.3475 -0.0316  0.2335
47815W        W90868  31.803  28.442  15.874  0.0711  0.3696 -0.2243
47816W        W90869  34.243   6.279   0.646 -0.3354 -0.3472  0.0874
47817W        W90870  30.826  11.958   1.372  0.0924 -0.5833  0.4670
47818W        W90871   6.834  21.008  22.603  0.0132 -0.1886  0.0686
47819W        W90872   1.431  30.571   3.213  0.1455 -0.1193  0.4452
47820W        W90873  30.366   5.857  23.735  0.0543 -0.1219  0.1486
47821W        W90874  31.329  11.280   6.819  0.3011 -0.1104 -0.0504
47822W        W90875  31.936  15.181   6.008 -0.0950 -0.0983  0.1291
47823W        W90876   0.915  30.884  25.095 -0.2391 -0.0456  0.0665
47824W        W90877   8.030  18.799  14.103  0.0323  0.0986  0.1104
47825W        W90878   1.718  13.310   7.537  0.2035 -0.2153 -0.2633
47826W        W90879  32.520  15.740   3.097 -0.0396 -0.3740  0.1801
47827W        W90880  29.723  17.853   4.360  0.0607  0.0098  0.1536
47828W        W90881   1.222  23.548   1.870 -0.1027 -0.4055  0.1397
47829W        W90882  12.438  27.677   4.260  0.0209  0.0668 -0.1106
47830W        W90883  28.242  10.984  27.895  0.1595  0.3440  0.1014
47831W        W90884  31.094   1.313  26.855  0.1919 -0.4510  0.2304
47832W        W90885  23.818  20.772  26.759 -0.1431 -0.0622  0.2106
47833W        W90886   3.108  17.250  26.599  0.2375  0.0498 -0.1457
47834W        W90887  25.072   7.661  18.525  0.1128  0.3010 -0.0230
47835W        W90888  28.335   0.568  16.183  0.0414  0.1674  0.1419
47836W        W90889  33.377  26.202  16.460 -0.1534  0.0575  0.1622
47837W        W90890   0.770  19.806   6.411 -0.4912  0.2247 -0.0057
47838W        W90891  19.769  14.479  24.167  0.2172 -0.0276  0.1310
47839W        W90892  10.366  28.926  25.286 -0.3240 -0.0508  0.2455
47840W        W90893   6.401  11.814   8.747  0.1628  0.1789  0.0172
47841W        W90894   4.507   5.005  21.537 -0.0693 -0.1496  0.1943
47842W        W90895  25.452   1.762  23.237  0.0077 -0.1180  0.0010
47843W        W90896  24.040  10.357  25.529 -0.3064  0.0332  0.1450
47844W        W90897  10.468   4.379  19.630 -0.4086 -0.2038  0.0214
47845W        W90898  24.609   0.277   1.188  0.0195 -0.0908  0.0851
47846W        W90899  32.264  14.386  21.649 -0.1350 -0.1767 -0.1846
47847W        W90900   4.795   7.786  18.632  0.1237  0.2349  0.0780
47848W        W90901  33.527   1.187  23.594  0.1546  0.2926 -0.2362
47849W        W90902  10.840  24.886  22.522 -0.0864  0.1581  0.2667
47850W        W90903   3.092  15.919   9.105 -0.0998 -0.0273  0.0855
47851W        W90904   5.543  13.733   5.660  0.1565 -0.1811  0.3754
47852W        W90905   0.086  25.505   6.836  0.1598 -0.2614  0.2425
47853W        W90906   3.841  19.642  23.479  0.1870 -0.3809 -0.3357
47854W        W90907  27.995  31.447  27.039 -0.3327 -0.0686 -0.2780
47855W        W90908  33.892  31.514   0.620  0.0081  0.1409 -0.0285
47856W        W90909   3.091  18.833   8.286  0.2915 -0.1120 -0.0101
47857W        W90910  26.830   7.855  15.413  0.0552 -0.1196  0.0735
47858W        W90911   8.835  30.078  23.124  0.0251 -0.1713 -0.2094
47859W        W90912  13.511  18.278  13.808  0.1233 -0.1216 -0.3371
47860W        W90913  23.891  29.809   1.140 -0.2469 -0.2526 -0.0047
47861W        W90914  24.470  30.327   6.646  0.1489 -0.1475 -0.4816
47862W        W90915  28.081   1.544  21.615 -0.1805  0.1552  0.0592
47863W        W90916  28.657   7.872   0.846 -0.2517  0.0079 -0.1568
47864W        W90917  24.140  22.424   2.270  0.3129 -0.1381 -0.2564
47865W        W90918   5.561  27.817   5.061 -0.0568  0.4333  0.0897
47866W        W90919  32.447  32.636   1.525  0.1101  0.0884  0.0127
47867W        W90920  27.966  25.726  28.144 -0.1805 -0.1832 -0.3100
47868W        W90921   8.315  15.474  22.915 -0.1664  0.3881  0.0144
47869W        W90922   2.465  19.294  16.009  0.0320  0.0126  0.1656
47870W        W90923   4.177  29.997  20.523 -0.0727  0.0163  0.0654
47871W        W90924  29.087   7.674  15.079  0.1891  0.0222  0.3375
47872W        W90925  22.964  10.342  24.426 -0.2523 -0.1285  0.0800
47873W        W90926  25.946  17.997  22.509 -0.1819 -0.1392  0.0482
47874W        W90927  17.270  22.465   4.877  0.0266 -0.1448 -0.1415
47875W        W90928  29.958  19.447   2.182  0.3366 -0.0734  0.0275
47876W        W90929  27.493   1.029   0.078 -0.3038  0.2134  0.0388
47877W        W90930   4.584   7.723   8.896 -0.3756  0.0907 -0.2764
47878W        W90931  32.853   7.419  14.558 -0.0006  0.0589 -0.1848
47879W        W90932  30.570  31.192   3.084  0.2414  0.0905  0.2248
47880W        W90933  23.473  27.444   2.954  0.0344  0.3364 -0.1282
47881W        W90934  32.967   9.593  26.819  0.1075  0.0472  0.2656
47882W        W90935  26.107  20.802  25.994 -0.0050  0.1345  0.2981
47883W        W90936   1.687   2.557   4.290  0.0701 -0.0182  0.0430
47884W        W90937   0.585  11.916   4.926  0.2933  0.0517  0.1779
47885W        W90938   3.175  20.973  19.044 -0.1564  0.1327 -0.0934
47886W        W90939  28.256  15.558  20.109 -0.1655 -0.3278 -0.1036
47887W        W90940   4.684  30.832  28.340  0.1143  0.0661 -0.2206
47888W        W90941  28.225  21.374  26.987 -0.1701  0.1572  0.0855
47889W        W90942   2.547   9.371   3.890  0.2084  0.1353  0.0864
47890W        W90943  21.927  10.675  19.921  0.1099 -0.1403 -0.1094
47891W        W90944   6.627  15.563   4.775  0.0837 -0.6269 -0.1117
47892W        W90945  29.745  10.200  26.937  0.1280  0.0989  0.1476
47893W        W90946   3.891   8.149  21.592 -0.1572 -0.3321 -0.0322
47894W        W90947  18.564  11.700  19.817  0.2826 -0.0233  0.1173
47895W        W90948   2.811  27.412   8.552 -0.0200 -0.3031 -0.0806
47896W        W90949   3.766   3.345  10.397  0.2619  0.1091  0.2473
47897W        W90950   4.484   9.673  18.513  0.2295 -0.2641  0.2543
47898W        W90951  24.998   9.691  21.919  0.1098  0.1906  0.0822
47899W        W90952   6.277  29.953  24.802  0.0204  0.0031 -0.5452
47900W        W90953  15.713   4.827  26.007 -0.1441 -0.2160 -0.0710
47901W        W90954  20.994   6.077  22.921 -0.0240  0.0779 -0.3689
47902W        W90955  23.177  16.181   6.396  0.1089  0.0650  0.0505
47903W        W90956   3.270   8.528   9.944 -0.3516 -0.0200  0.0517
47904W        W90957  16.342   6.490  10.582  0.0020  0.0484  0.3328
47905W        W90958   0.983   7.451  25.445  0.0188 -0.3007  0.0695
47906W        W90959  33.054   9.612  16.891 -0.1619 -0.1953  0.0665
47907W        W90960  26.337  19.986  27.770  0.3826 -0.1495  0.2423
47908W        W90961  26.837  30.508  24.673  0.0365 -0.1075 -0.0493
47909W        W90962   6.917   1.218   0.139  0.0698 -0.4707  0.1058
47910W        W90963  30.239   4.275  25.377  0.0808  0.1400 -0.0599
47911W        W90964   9.161   5.351  15.890 -0.0444 -0.0440  0.1646
47912W        W90965   4.554   5.425   2.051 -0.2457 -0.0298  0.1305
47913W        W90966  27.763  33.293   7.151 -0.0840  0.0408  0.0714
47914W        W90967  34.489   8.412   7.896  0.2233  0.1642 -0.1524
47915W        W90968  21.659  10.440   3.849 -0.2247  0.0445  0.0385
47916W        W90969   3.508   5.115   4.488  0.0176 -0.1425  0.1574
47917W        W90970  32.085   4.255  28.662 -0.3294 -0.0043  0.0992
47918W        W90971  30.547  27.461  18.986  0.1283 -0.0560 -0.0335
47919W        W90972  21.079  29.510  22.124 -0.0765  0.0267  0.0387
47920W        W90973  29.546  30.332   9.154  0.1411  0.5011  0.1835
47921W        W90974  12.586  21.869  28.729  0.4398 -0.2314 -0.4533
47922W        W90975  28.992  14.826  17.081  0.1207  0.1938  0.0065
47923W        W90976  17.639  34.578  21.265 -0.1460  0.1453 -0.1832
47924W        W90977  10.812  15.252  17.525 -0.0260  0.2257 -0.1995
47925W        W90978  27.453  22.440   4.049 -0.1522 -0.3542  0.1205
47926W        W90979  32.886   6.634  16.319  0.1106 -0.0296  0.1182
47927W        W90980  24.382   8.621  25.516 -0.1530  0.0148  0.0658
47928W        W90981   5.458  27.668  16.818 -0.0191 -0.1707 -0.0827
47929W        W90982   2.245  15.173  23.700  0.0655  0.0847 -0.0734
47930W        W90983  13.576  13.221   4.927  0.2026 -0.0694  0.1199
47931W        W90984   7.575  29.946   3.887  0.1615  0.2380 -0.1155
47932W        W90985  24.430   0.453  10.268  0.3101 -0.0270  0.1524
47933W        W90986   4.620  32.823  14.460 -0.0008 -0.3808  0.1405
47934W        W90987  23.999  34.651  18.271  0.1733 -0.0875 -0.2360
47935W        W90988   3.408  21.613  23.824 -0.1008  0.0931  0.0022
47936W        W90989  10.048   8.542  22.622 -0.2063  0.0978 -0.2457
47937W        W90990  32.613  32.342  18.250  0.0037  0.1020 -0.0375
47938W        W90991   5.173   2.212  29.020  0.2454  0.0170  0.3383
47939W        W90992  25.583   2.224  17.596 -0.0182 -0.0160  0.0011
47940W        W90993   7.853   2.423  21.779  0.0454 -0.3121 -0.0493
47941W        W90994  23.390   6.926  17.738  0.1362  0.3578 -0.0941
47942W        W90995  34.409  22.952  17.078  0.1423 -0.4539  0.0767
47943W        W90996  29.627  12.927  27.386 -0.0974  0.1915  0.1948
47944W        W90997  20.522  24.760  14.283  0.2268 -0.0426 -0.1496
47945W        W90998   0.299  21.984  21.607 -0.2773 -0.1200  0.2496
47946W        W90999  29.376  17.040  16.506 -0.0003  0.3650 -0.0819
47947W        W91000   3.483   7.714  24.667 -0.1076  0.1823 -0.4086
47948W        W91001  11.922   4.167  16.710  0.3094  0.0523 -0.4640
47949W        W91002   5.297   0.138  14.506  0.2368  0.1381 -0.0424
47950W        W91003  19.445   7.039  15.845 -0.0844 -0.0850  0.1556
47951W        W91004  34.342  22.962  16.525  0.1511 -0.2156 -0.0507
47952W        W91005  30.875   6.620  21.603  0.2436 -0.3425 -0.0636
47953W        W91006  24.715  14.027  14.364 -0.1330 -0.1908  0.2294
47954W        W91007  10.459   1.248  23.917 -0.1192  0.0546  0.0348
47955W        W91008   0.494  31.684  18.788  0.2214  0.3259  0.0832
47956W        W91009  21.223  33.403  14.061 -0.0890  0.1286 -0.4249
47957W        W91010  33.453  30.053  15.861 -0.0640  0.0846  0.4520
47958W        W91011  16.067  14.267  14.824  0.0663 -0.0937  0.1377
47959W        W91012  27.769   8.458  27.441 -0.0497  0.1504  0.1267
47960W        W91013   5.422  11.796  21.681 -0.2055  0.2279 -0.1361
47961W        W91014   1.125   6.794   1.529  0.1513  0.2171  0.0309
47962W        W91015  14.711   9.994  19.038  0.0015  0.0950 -0.0114
47963W        W91016  29.729   0.639  23.810 -0.3086 -0.2626  0.4452
47964W        W91017   0.986  13.942  18.505  0.0987  0.0663  0.1743
47965W        W91018  33.236  18.988  20.482  0.1628 -0.3260  0.1056
47966W        W91019   3.430   7.016  15.304  0.0328 -0.2029 -0.4127
47967W        W91020  12.831  14.478  17.251  0.2388 -0.1696 -0.1212
47968W        W91021  21.868  21.256  16.265  0.1058 -0.0205  0.0184
47969W        W91022  33.138   7.596  29.159 -0.1293 -0.1387  0.2815
47970W        W91023   4.918  31.129  13.731 -0.0764  0.2343  0.0115
47971W        W91024  25.947  16.152  23.934 -0.0360  0.1361 -0.2225
47972W        W91025   3.674  33.419  18.052  0.1864  0.3094  0.3225
47973W        W91026  31.632  21.064  13.914 -0.2907 -0.2850 -0.2291
47974W        W91027  29.658  10.723  19.566  0.0007 -0.2189 -0.0040
47975W        W91028   0.935  19.877  20.383 -0.2743 -0.0254  0.0460
47976W        W91029   5.548  18.727  18.165  0.1914 -0.1706 -0.0232
47977W        W91030  22.419   4.515  16.960 -0.0516  0.2562 -0.2299
47978W        W91031  30.033   8.135  24.087 -0.2155  0.2286  0.0058
47979W        W91032  32.729  11.063  27.254 -0.5932 -0.1123 -0.3226
47980W        W91033   3.245  30.368  15.101  0.1386  0.4091 -0.0938
47981W        W91034  28.406   7.840  19.308  0.2359  0.0874  0.1006
47982W        W91035   0.134  13.824   0.717  0.2388  0.0124 -0.1643
47983W        W91036  27.946   0.008  15.910  0.1392 -0.0288 -0.0040
47984W        W91037  31.970  10.056   0.753  0.0554  0.1131  0.1724
47985W        W91038  23.244  31.320  27.910 -0.0468  0.1657 -0.0281
47986W        W91039  13.143  30.184  27.821  0.1465  0.0301 -0.0651
47987W        W91040   2.441  32.001   4.119 -0.1814 -0.0775  0.0983
47988W        W91041   2.841  33.960  14.526 -0.0306 -0.0236  0.0649
47989W        W91042   1.452  15.708  20.886  0.0624  0.2055 -0.1757
47990W        W91043  30.652   2.875  17.897  0.2137 -0.2668 -0.2037
47991W        W91044   0.106  30.928  19.909  0.3280  0.0324  0.2029
47992W        W91045  29.742  32.231  17.690 -0.0038 -0.0770 -0.0055
47993W        W91046  31.121   4.882  23.570  0.0502 -0.2909  0.2141
47994W        W91047   7.695  27.450  28.522 -0.1852  0.2178 -0.0914
47995W        W91048   0.654  18.131  14.869 -0.0249 -0.1403 -0.2546
47996W        W91049  21.006   8.732  18.937 -0.1108  0.4785  0.0091
47997W        W91050  33.719  32.145  26.020 -0.2277  0.1191 -0.4328
47998W        W91051  29.763  18.538  17.507 -0.1229 -0.1032  0.1001
47999W        W91052   4.056  10.527  20.746  0.1523 -0.2574 -0.0759
48000W        W91053   6.797  34.610  21.941  0.1278  0.1804 -0.0607
48001W        W91054  23.892  11.506  23.304 -0.0391 -0.0557 -0.0411
48002W        W91055   3.697   8.732  17.066 -0.3265 -0.0492  0.1314
48003W        W91056  31.393  13.340  27.024 -0.0896 -0.0859 -0.0281
48004W        W91057  24.109  12.033  16.645 -0.1816  0.1509  0.0785
48005W        W91058  33.330  11.999  27.858  0.0679 -0.4102  0.0429
48006W        W91059  32.037   8.753   0.864 -0.0834 -0.0371  0.1591
48007W        W91060  30.939   0.756  15.175 -0.0857  0.1674 -0.0658
48008W        W91061  26.215   3.028  15.846 -0.0012  0.0690 -0.1310
48009W        W91062  23.185   6.963   5.994  0.0165  0.0081 -0.1996
48010W        W91063  11.218  25.304  15.716 -0.0155  0.2018 -0.1863
48011W        W91064  31.960   9.295  18.425  0.1023 -0.4016 -0.0963
48012W        W91065   5.566   0.330  20.394  0.0988  0.1137  0.4226
48013W        W91066  15.638  30.779  16.118 -0.0141 -0.0086  0.0535
48014W        W91067  20.109  33.819  20.469 -0.0770  0.1911  0.0349
48015W        W91068  11.238  16.191  17.886 -0.1773  0.2082  0.2832
48016W        W91069   3.981  13.006  16.954 -0.0950  0.0412  0.1378
48017W        W91070  30.114  21.507   2.615  0.1224 -0.0123 -0.0950
48018W        W91071  34.260  28.222  22.556 -0.1306 -0.0542  0.1548
48019W        W91072  33.939  16.988  14.631 -0.1455  0.0257 -0.1899
48020W        W91073  30.307  11.118   3.264  0.2151 -0.0588 -0.3051
48021W        W91074   4.626   4.962  20.226  0.0830 -0.2276  0.2439
48022W        W91075   8.910  10.033  26.353  0.0517  0.0604 -0.1783
48023W        W91076  28.938  14.342  19.161  0.4217  0.0029 -0.2005
48024W        W91077   3.390  33.256   5.311 -0.2944 -0.1332 -0.4440
48025W        W91078  28.473   6.385  20.087  0.1167 -0.0323  0.1994
48026W        W91079  14.237  15.469  13.702  0.0498 -0.0085 -0.0266
48027W        W91080  33.182  16.342  17.592  0.0233  0.4322  0.0316
48028W        W91081   7.933  30.625  14.577 -0.0746 -0.4648  0.0196
48029W        W91082  11.885   8.085  22.300  0.1444  0.0000 -0.1154
48030W        W91083   0.845   8.906  26.539  0.3045 -0.2486 -0.0311
48031W        W91084  13.357  32.446  17.975  0.1660  0.0137  0.1033
48032W        W91085   0.146   2.059  14.333 -0.0616  0.1354 -0.0565
48033W        W91086  28.778   4.885   0.483  0.2477 -0.0173 -0.0524
48034W        W91087  22.979   9.066  26.831  0.1276  0.0101 -0.0220
48035W        W91088   7.511   5.334  15.636  0.0533  0.1181  0.2039
48036W        W91089   6.155  30.256  20.783 -0.1365  0.0610  0.1310
48037W        W91090  32.292   7.203  19.465  0.0060 -0.2457 -0.2137
48038W        W91091  14.551  16.711  14.308  0.0734  0.2230  0.4217
48039W        W91092   3.518  14.348  22.196 -0.0540  0.1727 -0.0672
48040W        W91093  29.174  15.675  16.376  0.0737 -0.0324  0.2151
48041W        W91094  16.447  10.779  17.983  0.0392  0.0787 -0.0794
48042W        W91095  34.586  17.610  27.597  0.1860  0.3748  0.2353
48043W        W91096  29.536   9.969  15.536  0.0182 -0.2271  0.2444
48044W        W91097  31.596  14.635  16.172 -0.0097  0.2617 -0.0235
48045W        W91098  19.449  10.205  19.929 -0.1107 -0.2160 -0.2252
48046W        W91099  27.555   5.188   0.363 -0.0413  0.2233 -0.0291
48047W        W91100   8.910  17.579  23.204 -0.0777 -0.0736 -0.0032
48048W        W91101   8.660   2.575  19.586  0.0055 -0.1081  0.2476
48049W        W91102  23.812  20.709  17.405 -0.1023  0.3636 -0.0979
48050W        W91103   2.956  22.239  18.670 -0.1992  0.0807  0.2596
48051W        W91104  27.867   6.585  24.640 -0.0160  0.0323 -0.0397
48052W        W91105   4.637  10.574  16.775  0.0787 -0.1491 -0.1733
48053W        W91106  19.123   4.559  23.061 -0.1987  0.1375 -0.0634
48054W        W91107   0.993   9.171  21.330 -0.0871  0.0708 -0.0306
48055W        W91108   9.120  19.297  21.892  0.1441 -0.2019 -0.1272
48056W        W91109  25.506   0.040   2.543  0.2475  0.0347  0.2046
48057W        W91110  31.114   5.963  15.361  0.0084 -0.0761  0.1278
48058W        W91111   6.952   7.930  17.755 -0.1257 -0.0310  0.0739
48059W        W91112   8.063  30.231  28.069 -0.2080  0.3043 -0.3035
48060W        W91113   2.336   2.640  24.870 -0.0638 -0.3826  0.1435
48061W        W91114  14.682  22.134   1.512 -0.3134  0.2056 -0.0123
48062W        W91115   2.270   7.433  20.508  0.0916  0.1636  0.1716
48063W        W91116  26.109  25.257  26.836  0.0497  0.1637 -0.1840
48064W        W91117  14.608  16.155   6.877 -0.2329  0.0872 -0.0957
48065W        W91118   8.608  17.571  18.930  0.0723 -0.1254 -0.1795
48066W        W91119  26.052   8.147   5.747  0.0608 -0.0344 -0.1714
48067W        W91120  27.024   6.906   0.077  0.0588 -0.2809 -0.1254
48068W        W91121  25.615   8.314  17.228 -0.2210 -0.0541 -0.1953
48069W        W91122   5.934   8.841  18.177  0.2270 -0.2353 -0.1651
48070W        W91123  14.510  12.718  25.540  0.0651  0.2975 -0.0914
48071W        W91124  10.289   2.835  21.173  0.0663 -0.2117 -0.0427
48072W        W91125   5.006  28.498  16.155  0.0142 -0.0573 -0.2628
48073W        W91126   7.553  17.912  13.894  0.3494  0.3129  0.0538
48074W        W91127   4.347  34.478  21.461 -0.0987  0.2790  0.1978
48075W        W91128  21.147   8.421  23.610 -0.1934 -0.1706 -0.1115
48076W        W91129  30.460   3.393  24.058 -0.0625  0.2048 -0.1431
48077W        W91130  34.013  14.067  27.566  0.1557 -0.0631 -0.2295
48078W        W91131  17.359  31.581  21.030  0.1361 -0.1216 -0.2261
48079W        W91132  34.316   8.267  28.743  0.0063  0.3625  0.4313
48080W        W91133  29.037  29.523  22.027  0.2239  0.3991  0.0296
48081W        W91134   9.019  20.892   7.201  0.0997  0.0127 -0.0494
48082W        W91135   1.918  16.564  22.294 -0.1717 -0.0079  0.0957
48083W        W91136  24.218   1.391  23.706  0.0343 -0.0660 -0.0633
48084W        W91137   9.075  13.061  15.581 -0.3551 -0.1585  0.1408
48085W        W91138   8.431   1.552  19.361 -0.1278 -0.3506  0.1633
48086W        W91139  29.877  18.890  27.716 -0.0545 -0.2348 -0.3497
48087W        W91140   1.442   0.185  17.773  0.0285 -0.0793 -0.0259
48088W        W91141  10.138  28.025  24.165 -0.0845 -0.1456  0.1169
48089W        W91142  30.895  11.140  16.024  0.1829  0.1107 -0.0431
48090W        W91143   8.188  18.002   6.513 -0.2528  0.0488 -0.0442
48091W        W91144   6.281   9.743  16.050 -0.1631 -0.0120  0.2481
48092W        W91145  25.196  29.872  26.494 -0.0696 -0.2350  0.1013
48093W        W91146   7.766   7.468  19.883  0.2522  0.0583 -0.2122
48094W        W91147  16.607  32.839  17.553 -0.3273  0.2191 -0.0552
48095W        W91148  22.673  19.950  17.006 -0.0034  0.3640  0.1702
48096W        W91149   1.688   9.316  17.635  0.1062 -0.0880 -0.2611
48097W        W91150   2.384   8.533   2.106 -0.2960  0.1131 -0.3088
48098W        W91151   2.089   7.540  13.980 -0.0256  0.1136 -0.0906
48099W        W91152  27.906   8.788  17.344  0.2790  0.2365 -0.0235
48100W        W91153   6.474   4.420  25.719 -0.2889  0.3602  0.0115
48101W        W91154   4.925   6.404  18.573  0.0313 -0.1119 -0.0456
48102W        W91155   9.215   9.102  21.986  0.1372 -0.0151  0.3272
48103W        W91156  27.889  10.293  21.812 -0.0926 -0.1590 -0.1496
48104W        W91157  24.130  10.233  15.075  0.1055  0.1584 -0.3164
48105W        W91158  26.544   0.530  16.496 -0.0444 -0.2630  0.3149
48106W        W91159  29.350  34.432  19.443  0.0238  0.0074 -0.3522
48107W        W91160  12.654  32.122  18.364 -0.1505 -0.1239 -0.0347
48108W        W91161   6.541  34.591  15.099 -0.2084  0.0157 -0.0187
48109W        W91162   1.555  16.826  12.823 -0.0571  0.1315  0.0574
48110W        W91163  21.730  30.700  19.180  0.1284 -0.0466 -0.2135
48111W        W91164  30.184   7.352  19.004 -0.1247 -0.2342 -0.1668
48112W        W91165   8.535  12.217  18.829  0.2766  0.0229  0.0630
48113W        W91166  26.142  18.110  19.247 -0.0485  0.0193  0.3991
48114W        W91167  28.594   8.696  17.635  0.0700 -0.1749  0.0805
48115W        W91168  10.201   5.320  18.744 -0.0682  0.0557  0.2011
48116W        W91169  11.595  17.341  23.997 -0.0415 -0.4033  0.1812
48117W        W91170   6.916  26.955  15.246  0.0224  0.0613  0.1823
48118W        W91171  27.489  17.210  21.073 -0.1933 -0.2098  0.0294
48119W        W91172  34.212  11.107  21.750  0.1004 -0.2876 -0.1391
48120W        W91173   7.661  20.169  23.799 -0.0503 -0.1025 -0.1103
48121W        W91174   4.963  32.237  24.697  0.1565 -0.0938  0.0671
48122W        W91175  19.808  16.982  14.235 -0.0045  0.1602 -0.2260
48123W        W91176   8.429  21.918  24.609  0.3342  0.2228  0.1133
48124W        W91177   9.368  30.103  16.206  0.1166 -0.0018  0.0125
48125W        W91178   1.948  19.492  16.739 -0.2643 -0.2367  0.2369
48126W        W91179   0.720   7.597  17.183  0.1712  0.0845 -0.1673
48127W        W91180   5.200   3.719   1.935  0.1374 -0.0968 -0.0784
48128W        W91181  30.185  12.768  27.515 -0.0497 -0.0520  0.3023
48129W        W91182  12.451   4.894   5.158 -0.2626 -0.0786 -0.0750
48130W        W91183   1.206  18.978  23.074 -0.0726  0.0543 -0.0294
48131W        W91184  26.397  11.152  26.217 -0.0446  0.1063  0.2241
48132W        W91185  24.359  22.212   4.943  0.0245  0.0340  0.2329
48133W        W91186  10.771   3.894  23.256  0.0978 -0.0171 -0.2444
48134W        W91187  18.792  10.285  18.196  0.4559  0.0934  0.0677
48135W        W91188   6.917  16.506  25.714 -0.0237 -0.3861  0.2449
48136W        W91189   6.552  17.787   1.300  0.2581 -0.0294 -0.1748
48137W        W91190   3.064  15.920  22.872  0.2396  0.2532 -0.1660
48138W        W91191  23.767   9.832  19.353  0.0609 -0.2850  0.3701
48139W        W91192  21.582   2.015   2.653  0.0429  0.1830  0.1718
48140W        W91193   5.026   1.733  19.935  0.0994  0.0745  0.0336
48141W        W91194  20.014   3.702  18.520 -0.2185 -0.2117 -0.0258
48142W        W91195  23.106   6.775  16.848 -0.1854  0.0542 -0.0186
48143W        W91196  31.458   8.191  14.236 -0.1713  0.3398 -0.1793
48144W        W91197   2.743  14.373  13.810  0.0549 -0.0495  0.0901
48145W        W91198   2.377   5.479  16.910 -0.2109 -0.2094  0.4071
48146W        W91199  32.696  17.344  16.119 -0.0731 -0.0727  0.1187
48147W        W91200  26.584  23.619  22.794  0.0890  0.0373 -0.0355
48148W        W91201  19.942   7.170  18.974  0.0055  0.1673 -0.2806
48149W        W91202  22.483   5.531   7.865  0.0374 -0.1126  0.0150
48150W        W91203  21.037  22.260  22.190 -0.3446 -0.2055 -0.0608
48151W        W91204  29.679   3.125  16.685  0.3106 -0.1636  0.3854
48152W        W91205  30.337   0.817   7.244  0.2708  0.1988  0.1693
48153W        W91206   2.486   2.852  15.848 -0.2302 -0.1265 -0.2837
48154W        W91207  17.806  29.903  21.215 -0.0971  0.2165  0.1707
48155W        W91208   7.630   9.727   6.699  0.1735 -0.1230 -0.0308
48156W        W91209   1.539   4.466  29.194 -0.1621 -0.1527 -0.1520
48157W        W91210   0.421   1.095  18.042  0.2515 -0.3046 -0.0425
48158W        W91211   7.028  23.880  24.325  0.0889  0.2009 -0.0209
48159W        W91212   4.134  14.838  17.629  0.0756 -0.1490  0.4123
48160W        W91213   5.637  32.619  15.071  0.1613  0.1542 -0.2140
48161W        W91214  33.330  22.715  27.078 -0.2660  0.1368  0.2559
48162W        W91215  29.817   7.720  22.663 -0.2664 -0.0208 -0.2895
48163W        W91216  19.152  31.270  16.949 -0.0828 -0.1529 -0.1432
48164W        W91217  14.307   7.171  17.267 -0.0755 -0.1101  0.0036
48165W        W91218  32.578  17.324   8.791 -0.1843  0.0229 -0.0966
48166W        W91219  12.603  22.403   3.345  0.5313  0.0113  0.1402
48167W        W91220  10.839   8.206  16.021 -0.1527  0.0050 -0.2551
48168W        W91221   7.963  16.472  21.290  0.1348 -0.0050  0.3371
48169W        W91222  23.857  16.498  20.117 -0.0036 -0.2078 -0.0079
48170W        W91223  29.234  29.680  21.166  0.5103  0.0188 -0.2109
48171W        W91224   0.622  25.838  22.154  0.0105  0.2080  0.1033
48172W        W91225  17.621   9.553   7.236  0.3501  0.0032 -0.2196
48173W        W91226  31.787  10.822   4.107 -0.1410  0.3659 -0.2458
48174W        W91227   7.252  11.275  21.334  0.0612 -0.2173  0.1132
48175W        W91228   0.164  12.579  20.452  0.0080  0.0007 -0.2791
48176W        W91229   7.747  29.561  24.541  0.0322  0.0984  0.0923
48177W        W91230  31.129  28.739  17.730 -0.0079  0.0694 -0.1404
48178W        W91231  26.984   4.842  20.619  0.2240 -0.0600 -0.0545
48179W        W91232  28.035   2.093  16.649 -0.2524 -0.0069 -0.1850
48180W        W91233  26.049   5.243  26.085 -0.1882  0.0334  0.1797
48181W        W91234   4.543  15.501   2.269  0.0241 -0.1952  0.0107
48182W        W91235  34.639   6.420  19.423 -0.0419 -0.1769 -0.0204
48183W        W91236  21.029   2.705  23.373  0.2502 -0.1789  0.2207
48184W        W91237   4.868  13.506  14.527 -0.2003 -0.0186 -0.1520
48185W        W91238   5.306  19.320  16.669  0.1299  0.0779 -0.0671
48186W        W91239  21.775  10.038  19.736  0.0423  0.1966 -0.0791
48187W        W91240   1.122   3.721  23.143 -0.0801 -0.2108  0.0097
48188W        W91241  15.555   3.124   3.860  0.3390 -0.1395 -0.0431
48189W        W91242  31.679   8.314   1.653 -0.2602  0.0893  0.0219
48190W        W91243  11.248   3.701   3.020 -0.0578  0.0141 -0.1877
48191W        W91244  28.634  11.367   0.347 -0.0900 -0.0193  0.4376
48192W        W91245  30.269  10.892  18.149 -0.0418  0.0974 -0.0578
48193W        W91246   0.865  17.786  23.415 -0.3064  0.3426  0.0370
48194W        W91247   9.966  15.305  20.464 -0.0909 -0.3006 -0.1909
48195W        W91248   1.756  13.360  26.988 -0.2347  0.0780 -0.0081
48196W        W91249   5.503  22.498  14.307 -0.0054 -0.1835  0.1076
48197W        W91250  21.381  11.437  22.124 -0.0655 -0.3232 -0.3007
48198W        W91251   1.276  10.275   2.789 -0.1215  0.0829  0.2538
48199W        W91252  18.837  12.126  23.104  0.1330  0.1643 -0.1604
48200W        W91253  24.629  10.194  19.181 -0.3530  0.0307 -0.1511
48201W        W91254   2.519  29.315  22.871  0.1581 -0.0935 -0.2295
48202W        W91255   0.437  20.917  18.159 -0.3933 -0.0609 -0.2622
48203W        W91256  27.792  33.117  23.226 -0.0522 -0.2161  0.0122
48204W        W91257   9.706   0.215  24.058 -0.0454  0.0713 -0.0678
48205W        W91258  10.234  16.322  26.603 -0.1271 -0.4458  0.1948
48206W        W91259  12.774   1.446  20.467 -0.2855 -0.4848 -0.0251
48207W        W91260  25.312   3.311   3.791 -0.1324 -0.2332 -0.2093
48208W        W91261  34.650   4.437   3.062 -0.1236  0.0037  0.2600
48209W        W91262  29.113  33.952  18.079  0.2493  0.1209  0.1055
48210W        W91263  15.001  15.308  13.335 -0.2601 -0.1125 -0.0960
48211W        W91264  19.752  30.414  18.042  0.2564 -0.1398 -0.2241
48212W        W91265  24.878   0.395  19.308 -0.2055  0.1567  0.0042
48213W        W91266  24.411  27.206  19.248  0.0354 -0.0506  0.0039
48214W        W91267   2.704   5.866  27.193 -0.0160 -0.1898 -0.1985
48215W        W91268  22.944  12.705  16.562 -0.0770  0.0794  0.2716
48216W        W91269   3.097   4.710  15.899  0.1299  0.2467  0.1185
48217W        W91270  34.270   7.929   0.472 -0.2617 -0.3347  0.1920
48218W        W91271   4.977  16.571  13.651  0.1459  0.2647  0.1594
48219W        W91272   6.056   5.104   7.535 -0.1790 -0.2048  0.1750
48220W        W91273  30.505   6.737   0.450 -0.0561  0.2325 -0.0153
48221W        W91274   5.218   6.576  20.881 -0.0784 -0.0750 -0.2640
48222W        W91275  33.548  14.872  14.980  0.0482 -0.1937 -0.2612
48223W        W91276  27.839  16.637  18.591 -0.0025 -0.1861  0.1715
48224W        W91277   2.153  21.976   8.232 -0.2378 -0.0053  0.0617
48225W        W91278   0.160   6.653   1.058 -0.1511  0.1898  0.0632
48226W        W91279   9.085   9.945   7.013 -0.0135 -0.2567  0.0151
48227W        W91280   1.690  29.254   3.790 -0.0970 -0.2371 -0.1204
48228W        W91281  28.757  23.521  16.962  0.1875  0.1684  0.2690
48229W        W91282  21.042   1.113   7.703 -0.0032  0.1937  0.0679
48230W        W91283  19.147  31.940  15.356  0.2622 -0.2454  0.1709
48231W        W91284  30.769   9.912  27.320  0.0198  0.0560 -0.0049
48232W        W91285  33.838   7.182  24.428  0.1909  0.0301  0.0332
48233W        W91286   3.099   5.475  24.199 -0.0883  0.1331 -0.1267
48234W        W91287  14.116   9.341  27.356  0.0553 -0.3424 -0.2126
48235W        W91288   1.910  25.169   8.515  0.0736  0.2317  0.2369
48236W        W91289  12.295   7.438   9.528  0.2490  0.0283  0.0754
48237W        W91290  22.683   5.592  21.767  0.0981  0.1635  0.2453
48238W        W91291  29.548   7.658  17.002 -0.0249  0.0047  0.0707
48239W        W91292  18.221   6.243   4.705  0.1498  0.0445 -0.2006
48240W        W91293   3.539  13.941   6.111  0.2629  0.0597 -0.1041
48241W        W91294  24.674   7.984  22.490 -0.1672 -0.0116 -0.3232
48242W        W91295   0.792  10.945  14.958 -0.1173  0.0553  0.3905
48243W        W91296   6.556   5.126   5.035  0.0006  0.0470  0.0932
48244W        W91297  30.877   7.204  15.334  0.1103 -0.0861 -0.2844
48245W        W91298  22.876  15.418  24.702 -0.1179 -0.1799  0.1812
48246W        W91299   6.432  21.307   1.242 -0.0270  0.0129  0.1557
48247W        W91300   2.578  11.543  23.481  0.2541  0.0266  0.1109
48248W        W91301  31.440   8.126  20.812  0.1437 -0.0847 -0.0365
48249W        W91302  25.276   0.281  20.072 -0.1187 -0.2974  0.3539
48250W        W91303   2.824   1.501  21.954  0.0440  0.2476  0.0420
48251W        W91304   4.999  19.184  21.987 -0.1221 -0.1326  0.2117
48252W        W91305  22.234  12.801  15.824 -0.0000 -0.1194  0.1647
48253W        W91306  12.002  34.449  15.918 -0.2066  0.0868  0.4372
48254W        W91307  32.780   0.015  21.803 -0.4423 -0.1629 -0.0737
48255W        W91308  31.353  20.877  25.514  0.1012  0.3320  0.1232
48256W        W91309  30.852  22.366  19.644  0.0568 -0.1657  0.0941
48257W        W91310  22.886   9.019   3.886 -0.2832 -0.4115 -0.2155
48258W        W91311   2.377   2.563  19.666  0.0979 -0.0421  0.3026
48259W        W91312  23.966   4.905  21.840  0.3034  0.0356 -0.1333
48260W        W91313  10.248   0.125   4.797 -0.0626 -0.1705 -0.0155
48261W        W91314  19.738   1.815  15.068  0.0234 -0.1604  0.1168
48262W        W91315   5.838  19.381  19.977 -0.2263  0.1601  0.2681
48263W        W91316  11.893   7.428  18.534 -0.3027  0.1587  0.2700
48264W        W91317  26.877   1.745  14.801  0.2898  0.0806  0.1062
48265W        W91318  11.525  16.396   4.653 -0.0705  0.2191  0.0171
48266W        W91319   9.327   4.387   5.723 -0.1292  0.0696 -0.1917
48267W        W91320   1.209  10.558   5.155 -0.1440 -0.0802  0.0687
48268W        W91321  28.273  25.975  28.474 -0.1709 -0.1194  0.0629
48269W        W91322  28.321  19.413   7.806 -0.3947 -0.0189 -0.1941
48270W        W91323  15.174  30.697  16.075  0.2588  0.0269  0.0645
48271W        W91324  29.376  11.030  27.160 -0.0179 -0.1325 -0.0403
48272W        W91325  30.492  16.321  28.248 -0.1116  0.0877 -0.0164
48273W        W91326  21.719  26.375   8.454 -0.3042  0.0639 -0.2101
48274W        W91327  32.822  17.305  27.216  0.1067 -0.1705  0.0536
48275W        W91328  31.244  10.945   1.809  0.1652 -0.0924  0.1663
48276W        W91329  32.069   8.779  22.915  0.2082  0.0604  0.4710
48277W        W91330  21.189   9.356  20.544  0.0658 -0.0133 -0.0933
48278W        W91331  17.264   2.810  16.973  0.2928 -0.0496 -0.1057
48279W        W91332  12.046  17.387  17.523  0.1962  0.0111  0.0500
48280W        W91333  28.777  11.138  23.634 -0.1770 -0.2968  0.2818
48281W        W91334  14.986  13.438  20.142  0.0321  0.2400  0.2026
48282W        W91335   0.612  14.004  19.908 -0.3085  0.2426  0.0594
48283W        W91336  32.894   2.837  18.981  0.0353 -0.0613  0.2594
48284W        W91337   2.853  32.496   8.237 -0.0245 -0.1676  0.0006
48285W        W91338  34.508  23.213  19.045  0.0692 -0.0953 -0.3930
48286W        W91339  34.016  27.419   5.823 -0.0455  0.2955 -0.0117
48287W        W91340  20.482   6.727   2.462  0.3279 -0.3910 -0.0669
48288W        W91341  28.797  12.811  20.871 -0.1583 -0.2338  0.4083
48289W        W91342   1.002  27.607  20.107  0.0669 -0.1677 -0.0710
48290W        W91343   0.565  24.663  13.547  0.0518  0.3958 -0.0985
48291W        W91344   4.445  26.761  17.220  0.4034 -0.1728  0.3570
48292W        W91345   7.416  23.092  20.389 -0.1108  0.0049  0.5057
48293W        W91346  22.142  34.408  16.092  0.2843 -0.0017 -0.4028
48294W        W91347   2.704   7.648  26.451 -0.1584 -0.0261 -0.2359
48295W        W91348  32.893  22.457   8.056  0.2029 -0.1237  0.2121
48296W        W91349   0.759   9.129   9.300  0.0222 -0.1038 -0.1958
48297W        W91350  19.651  33.051   0.146 -0.0719 -0.1029 -0.1787
48298W        W91351  19.889   8.772  15.233 -0.2302  0.0323  0.2010
48299W        W91352   0.632  18.016  17.632 -0.0498 -0.1667 -0.4504
48300W        W91353  31.085   5.032  17.766  0.3835  0.0277  0.1453
48301W        W91354  22.643  12.106  23.086  0.0432  0.0118 -0.2752
48302W        W91355  32.798  11.519   9.991 -0.0173  0.1008  0.0821
48303W        W91356  27.166  14.605  22.948  0.0720 -0.1058 -0.2093
48304W        W91357  29.933  10.329   4.003  0.1744 -0.1392  0.0829
48305W        W91358   0.364   5.123   1.884  0.0120 -0.1613  0.0180
48306W        W91359  34.497   2.055  15.138 -0.1189  0.1498 -0.1698
48307W        W91360   7.626  21.692  15.932  0.0187 -0.2763 -0.3242
48308W        W91361   6.312  13.894  21.285 -0.1855 -0.0692  0.0149
48309W        W91362  30.793  15.795  16.054 -0.1862  0.2559  0.0033
48310W        W91363  31.951  12.260  23.307 -0.3061 -0.0844  0.3146
48311W        W91364  23.901  22.635  17.991 -0.0462  0.2108  0.2233
48312W        W91365  33.298  15.238   6.175 -0.0958  0.0033 -0.0438
48313W        W91366  27.298  13.511  16.292  0.1002  0.2821  0.0743
48314W        W91367   8.572   0.733   9.042 -0.1374 -0.0768  0.3752
48315W        W91368  23.674   0.876  22.395  0.1717  0.3031 -0.0572
48316W        W91369  10.791   8.458   9.032  0.0067 -0.1370  0.0531
48317W        W91370  29.013   8.723  17.267  0.1319 -0.0646  0.0842
48318W        W91371  28.869  14.542  27.607  0.0448  0.0232  0.2137
48319W        W91372  11.852  22.684  20.063  0.0418  0.0195 -0.1835
48320W        W91373  19.142  16.753  15.824 -0.1493  0.0564  0.5194
48321W        W91374  18.570  12.275  19.049  0.0432  0.5263  0.0468
48322W        W91375   3.342   4.284  14.958 -0.0685 -0.2416 -0.0379
48323W        W91376   5.573  16.526  20.387 -0.2277 -0.1285 -0.1254
48324W        W91377   6.376   2.944  21.040 -0.2099 -0.2296  0.0496
48325W        W91378   7.910  31.293  16.512 -0.0918 -0.0010  0.0555
48326W        W91379   0.069   3.883  22.898  0.0597  0.1908  0.1722
48327W        W91380   5.167   7.407  23.348 -0.1886 -0.0814  0.1424
48328W        W91381  29.308  18.559  13.498 -0.1231 -0.2136 -0.0334
48329W        W91382   5.004  10.872  20.721 -0.1328  0.1519 -0.0538
48330W        W91383   5.799  10.250  18.341 -0.0196  0.0886 -0.1809
48331W        W91384  21.525   2.470  15.237 -0.0811 -0.2170 -0.1810
48332W        W91385   4.706   7.032  23.642  0.0986  0.1733 -0.3094
48333W        W91386  28.761  31.676  19.418 -0.1728  0.2101  0.1219
48334W        W91387   1.906  33.020  17.525 -0.2414 -0.0714  0.0370
48335W        W91388   8.999  21.946  27.294  0.1257 -0.1498 -0.1465
48336W        W91389   4.207   7.132  17.521 -0.3798 -0.3885  0.2331
48337W        W91390  21.225  29.134  19.697 -0.3911  0.3899 -0.4031
48338W        W91391   1.051  17.455  19.194  0.1325 -0.0720  0.2149
48339W        W91392  12.623   8.317   1.940  0.0328  0.3973 -0.1439
48340W        W91393   2.924  11.885  19.134  0.1604 -0.2537  0.1860
48341W        W91394  33.287   6.004  17.146 -0.2615 -0.2362  0.1274
48342W        W91395   4.777  24.023  24.673 -0.3688  0.2938  0.0378
48343W        W91396   0.767  11.868  28.044  0.3312  0.0538  0.2146
48344W        W91397   0.571  16.493  21.397 -0.1499  0.2771  0.1177
48345W        W91398   3.398   5.622  21.112 -0.3606  0.0794  0.0094
48346W        W91399  34.640  17.615  21.356  0.1588  0.0293 -0.1628
48347W        W91400  15.241   6.359   5.976  0.1424 -0.3730  0.1773
48348W        W91401  26.151   9.033  23.911 -0.1335 -0.2417  0.0888
48349W        W91402  21.071  31.479  14.416 -0.1365  0.3137  0.3049
48350W        W91403  30.007  17.965  25.070  0.0399 -0.0289  0.1204
48351W        W91404  30.398  16.192  20.698  0.0236  0.1620 -0.1515
48352W        W91405   2.205  31.656  23.284  0.1649 -0.1105 -0.2694
48353W        W91406  14.524  25.229  14.883 -0.2583 -0.2428 -0.1844
48354W        W91407  10.939   3.111  20.156  0.2534  0.1793 -0.2847
48355W        W91408   1.990   8.456  20.262 -0.0127  0.0794 -0.2714
48356W        W91409  16.014  12.742  14.917  0.0644 -0.0292 -0.3974
48357W        W91410   0.467  13.705  26.966 -0.3649  0.2143  0.0130
48358W        W91411  27.201  17.123  21.499 -0.2360 -0.1422  0.4270
48359W        W91412   0.730  16.235   3.269 -0.0093  0.0172  0.2564
48360W        W91413  32.207   0.303   6.122  0.0384 -0.0755 -0.2520
48361W        W91414   5.688   3.256  24.899 -0.0200 -0.0947  0.0106
48362W        W91415   0.110  27.080  26.321  0.2453 -0.2617  0.0459
48363W        W91416  11.855  17.668  25.540  0.1618  0.2168 -0.1698
48364W        W91417  24.882   8.532  17.120  0.0885 -0.0683 -0.1630
48365W        W91418   1.214  29.774  19.199  0.0850 -0.2154 -0.1992
48366W        W91419   4.409   1.947  14.553 -0.1701  0.1586 -0.1877
48367W        W91420  21.547  28.206   0.663 -0.0855  0.0336 -0.2864
48368W        W91421  22.860   9.271  26.163 -0.1034  0.0742 -0.1628
48369W        W91422   6.179   4.345  18.837 -0.2792 -0.2669  0.0240
48370W        W91423  15.309   0.499  15.153  0.1029  0.0719 -0.0552
48371W        W91424  28.628   9.421  24.866 -0.4620  0.0651  0.1958
48372W        W91425   1.235  10.094  26.225 -0.0635  0.2025  0.4953
48373W        W91426   3.735   7.781   3.458  0.2810  0.2137  0.3212
48374W        W91427  24.972   0.100   4.445 -0.0990  0.3472 -0.0609
48375W        W91428  26.341   0.986  16.200  0.1645 -0.2716  0.0093
48376W        W91429  13.850   8.373  27.152  0.0453  0.3806 -0.0926
48377W        W91430   2.356   0.524  15.174  0.0559  0.1225 -0.5671
48378W        W91431  24.754  13.423   0.845  0.1096  0.0901 -0.1928
48379W        W91432   1.750  18.528   6.148 -0.1131  0.1250 -0.0834
48380W        W91433   8.766  24.173  19.694 -0.1702 -0.1209  0.1021
48381W        W91434  21.793  10.154   1.301 -0.1766  0.2453  0.0400
48382W        W91435  18.898  23.729  29.106 -0.2383  0.1995 -0.1782
48383W        W91436  14.113  14.222  22.630 -0.0222  0.3153 -0.0463
48384W        W91437   1.248  15.866   0.337  0.0766  0.1166 -0.1528
48385W        W91438  13.167  19.785   2.987  0.0660 -0.0162  0.3040
48386W        W91439  14.075  29.713   9.712  0.1452  0.1223 -0.2183
48387W        W91440  13.861  10.695  24.482  0.1725 -0.0066 -0.0268
48388W        W91441  34.477  15.629  14.306  0.3828 -0.1938 -0.1542
48389W        W91442  31.378  27.569  26.522  0.1329  0.1612  0.0373
48390W        W91443   2.442   6.907  27.171 -0.1415 -0.0918  0.1441
48391W        W91444  33.543   7.314  23.955 -0.2567  0.1032  0.0122
48392W        W91445  31.038  24.884   7.805  0.0662  0.0391  0.0318
48393W        W91446  29.367  16.113   0.380  0.0907  0.0711  0.1079
48394W        W91447   1.537  14.603  24.692  0.0641  0.0332  0.2304
48395W        W91448   1.694  15.802  19.094  0.1750  0.1543  0.1263
48396W        W91449  18.360  12.957  14.086  0.1961  0.1589  0.0822
48397W        W91450   3.660   0.325  13.952 -0.0693 -0.0962 -0.1529
48398W        W91451  27.479  16.419  24.308  0.2686 -0.1449  0.0431
48399W        W91452  29.067   4.232  22.885 -0.1261  0.0107 -0.2141
48400W        W91453   9.334  21.324  14.559 -0.1025  0.1824  0.0989
48401W        W91454  29.694   6.143  13.743 -0.4308 -0.2898 -0.0828
48402W        W91455   0.728   3.223  17.926  0.0270 -0.1501  0.1506
48403W        W91456  30.983  18.221  17.894 -0.0338 -0.1166 -0.4091
48404W        W91457   4.769  33.968  19.511  0.2730 -0.1349 -0.0342
48405W        W91458  29.654  21.324  22.104 -0.0975  0.3648 -0.0915
48406W        W91459  16.103   5.984  24.539  0.0211  0.1119 -0.0757
48407W        W91460  29.591  25.031  22.075  0.2739  0.1506 -0.2164
48408W        W91461  30.254  15.829  28.013 -0.0409 -0.2990 -0.0258
48409W        W91462   8.200  31.667  17.361 -0.0611 -0.1236  0.2268
48410W        W91463   2.061   1.895   2.375 -0.1255  0.0467 -0.0034
48411W        W91464   3.963  23.880   6.510  0.0491  0.0458  0.0923
48412W        W91465  15.304   6.476  22.660  0.1333 -0.0973 -0.3230
48413W        W91466   4.181   1.260  13.511  0.1527 -0.0145  0.1254
48414W        W91467   2.042   6.333  17.991  0.0635 -0.0352  0.0795
48415W        W91468   1.132   3.227  13.738  0.2355 -0.1328  0.2614
48416W        W91469  16.031  23.724  25.876 -0.2153  0.0141  0.0893
48417W        W91470  32.280   8.689  16.923 -0.1062  0.1361 -0.2633
48418W        W91471  34.070   5.906   4.392  0.0798 -0.1686  0.1345
48419W        W91472   2.688  14.005  26.053 -0.1143  0.0675 -0.3735
48420W        W91473   4.879   9.546  18.826 -0.1056 -0.2637 -0.0751
48421W        W91474  18.619  20.974   0.702 -0.3531 -0.4145 -0.0897
48422W        W91475   2.175  11.189   3.622 -0.3122 -0.0707 -0.2066
48423W        W91476  28.272  24.215  21.200 -0.1123  0.0579 -0.2872
48424W        W91477   1.134  21.085  17.866 -0.3344  0.0727 -0.3462
48425W        W91478   1.741  34.143  23.956 -0.2296 -0.0453 -0.0278
48426W        W91479  25.211  17.384  20.777  0.0076 -0.0011  0.0668
48427W        W91480  30.979   2.699   2.526  0.1238  0.2425  0.0480
48428W        W91481  27.728  10.211  22.743 -0.3725 -0.3015  0.0013
48429W        W91482   1.240   1.859  27.646  0.0472 -0.0513 -0.0507
48430W        W91483   3.166   6.527   6.136 -0.2514 -0.1251 -0.2185
48431W        W91484  28.582   6.165  28.358  0.1181 -0.0755  0.1035
48432W        W91485  33.218   3.200  26.759 -0.0478 -0.1068  0.2052
48433W        W91486  11.763  14.402  27.245 -0.0440 -0.2087 -0.2889
48434W        W91487  20.838  20.335  18.606  0.0276 -0.0021 -0.0912
48435W        W91488  10.574  16.922  20.755 -0.1942 -0.3537  0.1341
48436W        W91489   2.112  10.396  10.120  0.2327 -0.1215 -0.2448
48437W        W91490  17.344  32.280  15.731  0.0410  0.2723 -0.2765
48438W        W91491   1.129  12.842  16.188  0.0175  0.0498  0.1940
48439W        W91492  14.020  12.752  28.418 -0.0344  0.0691  0.2294
48440W        W91493   2.637  14.705  18.519  0.1689 -0.0266 -0.1332
48441W        W91494  10.162  19.698  17.734  0.0648 -0.0972  0.2768
48442W        W91495  10.832  10.724  27.033 -0.3478 -0.0376  0.3012
48443W        W91496  31.410   7.155  24.888 -0.1664 -0.3260 -0.0732
48444W        W91497  14.133  10.827   3.711  0.0116 -0.2028 -0.2865
48445W        W91498   9.561  21.738  16.898 -0.0542 -0.2109 -0.0786
48446W        W91499  18.095  30.028   0.878 -0.0423 -0.1754 -0.0106
48447W        W91500  31.417  15.098   5.161 -0.5933 -0.0337  0.1176
48448W        W91501  10.151  27.051  17.197 -0.4722  0.2157  0.1243
48449W        W91502   6.666  10.777  25.662  0.1887 -0.0715  0.2535
48450W        W91503  33.482   0.349  29.044 -0.0375  0.1911 -0.2945
48451W        W91504  26.480  15.371  18.206 -0.0365  0.2302  0.2280
48452W        W91505  33.841  23.907  20.516 -0.1526 -0.2900  0.0439
48453W        W91506  13.983  28.055  22.505  0.0143 -0.0197 -0.0714
48454W        W91507   3.250   7.565  25.176 -0.1093  0.0792  0.0415
48455W        W91508  13.412   6.873  10.386 -0.2773 -0.1291  0.0177
48456W        W91509  21.347   4.458  18.549  0.1548  0.0585  0.0582
48457W        W91510  33.120  25.495  18.390 -0.2358 -0.1837  0.3883
48458W        W91511   6.431  26.933  24.135 -0.1026 -0.0917 -0.1375
48459W        W91512  26.177  22.683   7.466  0.1819 -0.2330 -0.4958
48460W        W91513   0.725   8.663  27.381 -0.1548  0.3523 -0.4470
48461W        W91514  11.789   7.545  16.993  0.1185 -0.2983  0.0118
48462W        W91515  15.029  34.029   1.359 -0.0235  0.4824  0.0097
48463W        W91516  25.281  20.145   8.206  0.2390  0.3957 -0.0609
48464W        W91517   1.971  10.433  26.690  0.0916  0.1606  0.1793
48465W        W91518  33.004   4.406  16.018 -0.0526  0.3888  0.0480
48466W        W91519  22.768   5.052  23.055 -0.1038  0.0533  0.1862
48467W        W91520  32.051   5.643  22.189  0.2490  0.3174 -0.1646
48468W        W91521  11.413   4.584  22.686 -0.2822 -0.0438  0.0211
48469W        W91522  24.605  13.385   6.146 -0.0143 -0.1078  0.1254
48470W        W91523   1.723  31.999   0.564  0.2275  0.0652 -0.1696
48471W        W91524   5.574   8.062  18.146  0.1102 -0.3086  0.3738
48472W        W91525   3.112  18.442  28.464 -0.1667  0.2707 -0.2247
48473W        W91526  22.622  26.467  10.103 -0.3065 -0.1989  0.2023
48474W        W91527   9.504  29.068  20.910 -0.2371 -0.1351 -0.0291
48475W        W91528  20.776   1.220  20.934 -0.0773  0.1032 -0.2174
48476W        W91529  28.215  13.958   7.768  0.3931 -0.2031  0.0561
48477W        W91530  16.755   5.751   6.325  0.0129  0.0028  0.0049
48478W        W91531  30.267  18.749  14.755 -0.1250 -0.3235 -0.0991
48479W        W91532   5.544   0.846  22.195 -0.0853 -0.2784 -0.0226
48480W        W91533   8.266   9.182  25.771 -0.2499 -0.0270  0.2325
48481W        W91534   7.362  15.092  23.834 -0.0358  0.4292  0.1146
48482W        W91535  14.198   7.984   1.041 -0.0567 -0.2799  0.2492
48483W        W91536   2.000  15.061   9.569 -0.2309 -0.2909  0.2474
48484W        W91537  26.303  21.261  14.695  0.0599 -0.1665 -0.0730
48485W        W91538  29.031  14.151  14.945 -0.0433 -0.2465  0.0742
48486W        W91539   9.606  20.330  29.126  0.0135 -0.0234 -0.0251
48487W        W91540   8.943   3.245   3.210 -0.2988 -0.4207 -0.5274
48488W        W91541   8.199  15.574   3.907 -0.0489  0.3643 -0.2754
48489W        W91542  33.153   5.958  14.565 -0.0267 -0.4372 -0.1230
48490W        W91543  10.254  16.405  27.414  0.1638  0.1969  0.2459
48491W        W91544  15.646  13.086   4.082 -0.0487  0.2078  0.1952
48492W        W91545   4.889   9.730  15.032  0.1050 -0.1360  0.1679
48493W        W91546  19.753   3.793   2.205 -0.3685  0.1299 -0.0736
48494W        W91547   3.279   3.085   0.153 -0.0505 -0.2361 -0.0987
48495W        W91548  20.415  29.237   8.950 -0.0071 -0.0119 -0.0048
48496W        W91549  21.080  17.368  26.972 -0.1038 -0.0905 -0.2810
48497W        W91550  10.808  20.988   9.722  0.1592  0.0155 -0.0700
48498W        W91551   2.411  10.659  16.777 -0.1425  0.1701  0.1536
48499W        W91552   1.808   4.032  27.014  0.0416 -0.0649 -0.1178
48500W        W91553   1.116  10.683  26.347  0.3451 -0.2148 -0.3028
48501W        W91554   8.830   7.648  26.114  0.0446  0.1902  0.1140
48502W        W91555  12.867  13.164  21.852 -0.1154  0.0009  0.0063
48503W        W91556  23.416   1.608  21.145  0.1504  0.0349  0.2187
48504W        W91557  29.160  33.727  28.648 -0.3309  0.1127  0.2517
48505W        W91558  27.116  13.048  16.291 -0.1098 -0.0246 -0.1120
48506W        W91559  14.955  21.296  10.046  0.1113  0.2482  0.0874
48507W        W91560  29.153  15.129   1.442  0.0799 -0.0960  0.0714
48508W        W91561  23.062  29.267  27.877  0.0164  0.3657 -0.0351
48509W        W91562  21.523  17.573  23.676  0.2801  0.3422 -0.2323
48510W        W91563  32.625  15.248  15.184 -0.1513 -0.0484 -0.0502
48511W        W91564   4.418  28.396  16.738 -0.0235 -0.1454  0.2261
48512W        W91565   1.905  25.394  19.364 -0.0961 -0.1119 -0.1823
48513W        W91566   4.737  18.536  28.580  0.1585  0.1709  0.0167
48514W        W91567  15.637  13.851  13.734 -0.1264  0.0266 -0.0582
48515W        W91568   8.132   4.362  28.853 -0.2413  0.0659  0.0254
48516W        W91569  29.694  23.194  21.686 -0.2003  0.2262 -0.0601
48517W        W91570  11.854  32.457   5.395 -0.1464  0.2580  0.2545
48518W        W91571  31.262  13.137  20.855  0.2077 -0.1024 -0.1028
48519W        W91572  20.629   6.210   3.220  0.4166  0.1423  0.1726
48520W        W91573  14.630   1.479  26.319  0.2562 -0.1127 -0.1914
48521W        W91574   7.904   7.979   7.804  0.2248  0.1070  0.2316
48522W        W91575  31.954  15.697   1.210  0.4168 -0.1342  0.0556
48523W        W91576  19.897   7.043  20.191 -0.0792  0.1095 -0.0096
48524W        W91577  28.505  14.211  21.216  0.3217  0.1106 -0.0393
48525W        W91578   8.865  17.433  16.254 -0.1056  0.1464  0.2647
48526W        W91579   1.257   7.338  19.342 -0.0335 -0.1342 -0.0973
48527W        W91580   9.086  20.861  28.798  0.0811 -0.0823 -0.2461
48528W        W91581  20.543   3.732  20.039 -0.1052 -0.0196  0.1875
48529W        W91582  34.373  16.636   8.947 -0.0497 -0.3039 -0.2476
48530W        W91583   3.910   5.927  21.076 -0.0123 -0.1711 -0.1003
48531W        W91584  31.790  14.672   9.527 -0.2109 -0.0062 -0.1787
48532W        W91585   7.807  25.901  20.031  0.2453  0.0704 -0.2522
48533W        W91586   7.178   1.158  22.523 -0.1929  0.0059  0.2360
48534W        W91587  29.918   3.349  19.959 -0.1264 -0.1632 -0.0544
48535W        W91588   9.119   0.408   6.168 -0.2913  0.0036  0.0423
48536W        W91589   4.532  28.835  25.164  0.1442  0.0658  0.0639
48537W        W91590  34.441  14.608  28.324  0.2019 -0.0442  0.2883
48538W        W91591  27.420  15.375  17.785  0.0303  0.1500 -0.2822
48539W        W91592  30.670  23.625   0.098 -0.0126  0.4899 -0.3709
48540W        W91593  24.477   4.800   7.320 -0.0851 -0.3468 -0.2865
48541W        W91594  31.760  22.939  14.802 -0.1904  0.0276 -0.0119
48542W        W91595  11.701   8.742  26.734 -0.0531  0.0587  0.1618
48543W        W91596  33.980  14.318  14.074 -0.0848  0.0510  0.0802
48544W        W91597  10.920  14.282   8.319  0.0179 -0.1068  0.0403
48545W        W91598  11.121  10.303  28.182  0.1099 -0.1789  0.2537
48546W        W91599   2.452   3.978  20.541 -0.2301 -0.0954  0.0571
48547W        W91600   1.624  11.628  15.877  0.0417  0.3152  0.1818
48548W        W91601  25.520   4.212   4.953 -0.0377  0.1220 -0.2332
48549W        W91602   7.122   8.579  27.310  0.3048  0.0009 -0.0711
48550W        W91603   5.459   4.163   8.031 -0.0774 -0.0897  0.0873
48551W        W91604  27.670  25.938  13.747 -0.1145  0.1521  0.2725
48552W        W91605   7.773  17.173  28.693 -0.4872  0.2222  0.1994
48553W        W91606  14.389  16.318   1.030  0.0998 -0.1580  0.0827
48554W        W91607   8.631  18.257  24.396  0.0742 -0.0444 -0.2604
48555W        W91608   7.554  14.818  16.513  0.3599 -0.1028  0.0714
48556W        W91609  20.750   5.206  25.114  0.1007 -0.3120  0.0545
48557W        W91610   2.294  28.166  20.889  0.1121  0.0951  0.1799
48558W        W91611   0.105  13.277   4.292  0.0150  0.0278 -0.1302
48559W        W91612  28.102   8.021   0.726 -0.0833 -0.0509  0.0333
48560W        W91613   0.663  31.554  23.399  0.1256  0.0345  0.0403
48561W        W91614  29.455  13.954   2.186 -0.1286 -0.0216 -0.0448
48562W        W91615   3.189  15.140  16.404 -0.0068  0.1365 -0.3110
48563W        W91616   3.464   9.103   2.283  0.2629 -0.0295  0.0645
48564W        W91617  27.903  20.447  20.721 -0.0587  0.1252  0.0875
48565W        W91618   4.018  24.987  27.831 -0.3089 -0.1182 -0.1979
48566W        W91619  30.997   6.486   9.455  0.1832  0.3161 -0.0235
48567W        W91620  24.898  19.032  18.425  0.1613  0.1914  0.1275
48568W        W91621  31.968  12.925  22.303 -0.2636  0.1889  0.2339
48569W        W91622   1.351   4.773   6.626 -0.1731 -0.2583  0.0994
48570W        W91623  33.301  17.819   6.105 -0.0119  0.0913 -0.4031
48571W        W91624  23.263   8.106  15.786  0.4395  0.1374  0.0489
48572W        W91625  15.247  12.972  22.849 -0.1818  0.0739 -0.2577
48573W        W91626  10.772  10.341  16.268 -0.2522  0.2225 -0.2740
48574W        W91627  12.091  15.907  22.011 -0.0405 -0.1135 -0.3631
48575W        W91628   1.311  30.216   5.051  0.1162  0.0557 -0.2587
48576W        W91629   7.811  31.113  21.196  0.2004 -0.0398  0.2683
48577W        W91630  27.737  10.646   9.983  0.0210  0.0175 -0.0572
48578W        W91631  29.839  11.816  25.808 -0.1351 -0.0239 -0.1732
48579W        W91632   2.020  32.931   4.019  0.1947 -0.2440  0.1820
48580W        W91633  20.465  10.962   3.822 -0.2046 -0.3022 -0.3396
48581W        W91634  24.910  13.717  24.097  0.1001 -0.1768 -0.1263
48582W        W91635  32.708   7.098   5.623 -0.0401  0.0372 -0.0694
48583W        W91636  10.596  31.088   0.553  0.3884 -0.0500 -0.2503
48584W        W91637  11.254  18.685  25.919 -0.1993 -0.3126  0.1183
48585W        W91638   9.810   5.835  19.986  0.4251 -0.3755 -0.0691
48586W        W91639  25.904  13.236   4.977 -0.1374 -0.0576 -0.3368
48587W        W91640  33.687   6.515   7.488  0.5568  0.0412  0.2594
48588W        W91641  31.079  24.551  27.343 -0.0976  0.0979 -0.1816
48589W        W91642  23.084   7.019  16.347  0.1612 -0.0878 -0.3690
48590W        W91643   2.094  25.094  14.639 -0.0422 -0.1736 -0.2178
48591W        W91644  24.110   5.045   7.630 -0.1071  0.1290  0.2381
48592W        W91645  14.021   3.804  24.271  0.0585  0.0882 -0.0663
48593W        W91646   0.929   7.605  22.393  0.0671  0.0343 -0.3594
48594W        W91647  29.786  11.584  21.195 -0.2604 -0.0786  0.0984
48595W        W91648   7.638  21.306  15.642  0.0604 -0.0312  0.1867
48596W        W91649   5.328   9.139  27.495 -0.1418  0.0228  0.2563
48597W        W91650   3.032  28.946  18.378 -0.2053  0.1867  0.3212
48598W        W91651   1.979   6.961   2.169 -0.3630  0.3624  0.2686
48599W        W91652  31.707  12.469  25.122  0.0941 -0.0605  0.2316
48600W        W91653  13.134   9.042   6.936 -0.1295  0.1508  0.2541
48601W        W91654  28.923  15.450   3.081 -0.2431  0.0334  0.1760
48602W        W91655   6.844   7.137  21.202  0.0527  0.0971 -0.1953
48603W        W91656  28.344   3.533  20.452  0.1783  0.1657  0.0244
48604W        W91657  30.483  32.116   8.949 -0.1729  0.0372 -0.0904
48605W        W91658   0.414  24.989  26.112 -0.0167  0.1322  0.0529
48606W        W91659   1.112  27.908  21.829 -0.0946  0.2477 -0.2138
48607W        W91660   0.499  18.178   9.332 -0.2046  0.0097 -0.0898
48608W        W91661  19.338  18.604   2.193  0.2572 -0.0260 -0.1917
48609W        W91662   5.114  32.071  14.404 -0.0303  0.1319 -0.1209
48610W        W91663  22.160  22.035   1.178 -0.0618  0.1789  0.2909
48611W        W91664   2.020   3.293  27.423  0.1695  0.2342 -0.1007
48612W        W91665  31.216  16.190  26.860 -0.1660  0.1102  0.0987
48613W        W91666  31.204   7.538   4.106  0.1068 -0.4737 -0.0450
48614W        W91667   4.874   9.174   2.518 -0.0498 -0.2123 -0.1601
48615W        W91668   4.360  29.286  28.951  0.1873  0.1253  0.0131
48616W        W91669  33.114   3.741  21.982  0.4128 -0.1392 -0.2106
48617W        W91670  25.174   2.854  21.189  0.2408 -0.2293  0.0219
48618W        W91671  31.168  13.054   6.010  0.1373  0.2445  0.0400
48619W        W91672  31.623  19.015  16.809 -0.0263 -0.0135 -0.3405
48620W        W91673  11.660   9.600   7.734 -0.1586  0.1751 -0.0493
48621W        W91674   8.759  14.423  24.310 -0.2167  0.0171  0.0212
48622W        W91675  23.945  13.963  27.017 -0.3730  0.1625 -0.1058
48623W        W91676  21.673  13.903  16.184  0.0993  0.1481 -0.0998
48624W        W91677  28.905   4.333  25.614  0.0246 -0.3156  0.1044
48625W        W91678  11.156  10.417  15.996  0.1682 -0.0812  0.4000
48626W        W91679  31.917  14.029  27.562  0.0750 -0.0292 -0.1227
48627W        W91680  24.061  17.246   0.814 -0.0361  0.0610  0.0102
48628W        W91681  32.389   1.929  26.145  0.0070 -0.0912 -0.0644
48629W        W91682  33.718  30.214  26.318 -0.0856 -0.1693  0.0907
48630W        W91683   0.097  31.016   1.688 -0.1291  0.0466 -0.0869
48631W        W91684  20.012  34.666   5.608  0.0411  0.0554  0.1284
48632W        W91685  34.508   3.989  21.948 -0.0203  0.1833  0.1292
48633W        W91686  21.330  22.295  10.972 -0.1637 -0.1065  0.2267
48634W        W91687   7.903   7.271  14.931 -0.0329 -0.0768  0.1115
48635W        W91688   0.924  27.357  13.134 -0.0518 -0.1670  0.0221
48636W        W91689  29.583  22.871  16.949  0.1790  0.2166  0.2450
48637W        W91690  12.148  25.272  22.447  0.1885  0.0827  0.0867
48638W        W91691  18.374  23.250  28.528  0.0090  0.1117 -0.1714
48639W        W91692   3.478  14.748   5.083 -0.0846  0.2629  0.2733
48640W        W91693  17.325   1.162   4.220 -0.0005  0.1815  0.2493
48641W        W91694  22.735   4.457  19.940 -0.2207 -0.0775 -0.0365
48642W        W91695  12.396   6.717   4.366 -0.0270 -0.0710  0.5250
48643W        W91696  32.331  30.222   8.304 -0.0752  0.0302  0.1823
48644W        W91697   1.692  19.825  28.298  0.3586  0.2098  0.0805
48645W        W91698   6.586  27.405   1.881 -0.0950 -0.2044 -0.3730
48646W        W91699  32.712  19.084   3.464  0.0828  0.4062  0.0517
48647W        W91700  23.700   3.502  19.970  0.2314 -0.0331 -0.0710
48648W        W91701  30.551  14.975   1.435 -0.0960 -0.1289  0.1119
48649W        W91702  16.654   0.842   0.695 -0.2610 -0.0671  0.3114
48650W        W91703  29.273   2.305   1.142 -0.1237 -0.0268 -0.0576
48651W        W91704  17.368   4.784  18.837  0.2620 -0.0103  0.2087
48652W        W91705  21.159   8.563  18.406 -0.3912  0.0319 -0.2017
48653W        W91706  16.780  14.103  26.062 -0.2566  0.3761  0.1197
48654W        W91707   0.658   7.956   5.049 -0.0418 -0.2712 -0.4439
48655W        W91708   0.020  13.819  16.569 -0.0089 -0.3020  0.3911
48656W        W91709  13.776  25.807  18.266 -0.2171 -0.0489 -0.1112
48657W        W91710  34.467   9.776  28.056  0.0232 -0.3756  0.2750
48658W        W91711  32.531   4.157  24.939 -0.0404 -0.0114 -0.0962
48659W        W91712   5.216   8.668   9.887  0.0066  0.2035  0.1126
48660W        W91713  28.215   1.933  23.347  0.1015  0.3151  0.1156
48661W        W91714  15.740  10.879   9.570  0.0585  0.2021 -0.0513
48662W        W91715   3.785  12.386  16.144  0.2501  0.1868  0.0837
48663W        W91716  27.757  12.696  26.110  0.2566  0.0752  0.1351
48664W        W91717   1.969  34.531  19.756 -0.1505  0.3268  0.1517
48665W        W91718  34.039  24.401   4.796  0.0688 -0.0370 -0.1897
48666W        W91719   1.311  14.932  28.748  0.0202  0.0754  0.0437
48667W        W91720  28.200  13.782  15.821  0.0224 -0.4011 -0.1945
48668W        W91721  22.773   7.003  25.627 -0.0674 -0.2653  0.1710
48669W        W91722   5.793   9.807   5.054  0.3700 -0.0347  0.0136
48670W        W91723  14.125   6.385   9.243  0.4671  0.1028  0.1204
48671W        W91724  18.981  27.065  27.834 -0.0329  0.3687 -0.0428
48672W        W91725  29.433   5.925  16.908  0.0442 -0.0565 -0.0289
48673W        W91726  34.351  20.034  17.323 -0.0213 -0.1705 -0.0449
48674W        W91727  11.337   6.084   8.480  0.3156  0.1500  0.0657
48675W        W91728  32.917  22.109  27.745  0.1566 -0.1009  0.1455
48676W        W91729  16.014   9.979   9.128  0.1714  0.2276  0.2548
48677W        W91730   2.108  12.321  23.015 -0.0397 -0.4300 -0.2400
48678W        W91731   3.716  30.533  28.113 -0.1912 -0.0152 -0.1055
48679W        W91732  34.495  19.177   6.322  0.1739 -0.1385  0.0254
48680W        W91733   0.219  12.247  27.605 -0.0329  0.1487 -0.0356
48681W        W91734  22.512  33.374   8.853 -0.0936  0.2656 -0.0044
48682W        W91735  14.502  22.730  25.337  0.2548  0.3471  0.3423
48683W        W91736   5.787   6.670   6.540  0.0562 -0.3077  0.4558
48684W        W91737  20.383   3.036   7.997  0.0775  0.4102  0.0219
48685W        W91738  18.205  22.522  19.225 -0.0286 -0.1398  0.4265
48686W        W91739  25.829  33.394  17.796  0.1270  0.0099  0.0268
48687W        W91740   8.699  12.790   0.330  0.1171  0.2910 -0.2765
48688W        W91741  12.273  11.401   7.049  0.4443  0.0192  0.0848
48689W        W91742  27.175   7.847   2.698 -0.1425  0.0779  0.1585
48690W        W91743  26.003  33.616  15.815 -0.2743 -0.0773  0.0551
48691W        W91744  24.714  13.498   0.361  0.1929  0.1238  0.0062
48692W        W91745  16.396  32.352   2.966 -0.3719 -0.1965 -0.2457
48693W        W91746  21.623   9.270  16.312 -0.0346 -0.3975  0.1237
48694W        W91747  33.830  10.336   2.598  0.0115 -0.0307 -0.0417
48695W        W91748  34.516  33.971  14.865  0.4341  0.1430  0.0095
48696W        W91749  30.634   9.956   0.605  0.0014 -0.0489  0.1794
48697W        W91750   8.592  17.010   0.933 -0.1026 -0.1144 -0.0222
48698W        W91751   0.955  31.598  19.636 -0.1296 -0.1782  0.1015
48699W        W91752   7.390   5.162   1.417 -0.1183  0.0854  0.0123
48700W        W91753  18.662   5.216  16.866 -0.1918  0.5770 -0.1966
48701W        W91754   5.283  13.477   8.470 -0.4229  0.1331  0.1990
48702W        W91755  11.341  31.073  22.520  0.2516 -0.1879  0.1526
48703W        W91756  23.588  27.456  25.930 -0.3048  0.2294  0.0868
48704W        W91757  21.053  30.142   9.094  0.0458 -0.0003 -0.0339
48705W        W91758  24.925  11.458  27.801  0.0994 -0.2407 -0.0688
48706W        W91759   1.068   8.453   1.053  0.0921 -0.2724  0.1489
48707W        W91760   4.946  12.104  22.985 -0.0667 -0.0184  0.0819
48708W        W91761   1.635   7.744   3.416 -0.0131  0.3357 -0.0173
48709W        W91762  19.668   5.896   7.756 -0.0045  0.1825  0.2203
48710W        W91763  30.070  13.152  14.816 -0.0149  0.0890  0.0601
48711W        W91764  21.341  16.161  13.946  0.3640  0.0259  0.0044
48712W        W91765  29.379  18.005  23.326 -0.0850  0.1132  0.0857
48713W        W91766   0.791  15.120   0.506 -0.1167 -0.2445 -0.2844
48714W        W91767  12.017  11.164  23.439 -0.0543 -0.2692  0.0097
48715W        W91768   2.649  14.564  24.584 -0.2286  0.2221  0.0099
48716W        W91769  11.399   4.799  17.840  0.0939 -0.1486  0.0153
48717W        W91770  29.632  21.314  26.537 -0.0980 -0.1006 -0.4175
48718W        W91771   3.782  13.985  23.512  0.0763 -0.0452  0.0313
48719W        W91772  13.281  15.523  17.813 -0.4499  0.0424  0.3374
48720W        W91773  19.330  16.767  27.319 -0.0219 -0.3788  0.0967
48721W        W91774  16.130  30.609  21.372  0.2647 -0.0994 -0.0435
48722W        W91775   5.889   8.657  20.228 -0.1220 -0.3051 -0.3560
48723W        W91776   6.071   3.780   3.103  0.3142  0.0277  0.0433
48724W        W91777  12.641  10.835  26.425 -0.3088 -0.2749 -0.1973
48725W        W91778   0.260   6.132   8.966  0.1983 -0.2335  0.1495
48726W        W91779  14.768  33.884  28.793  0.0235  0.1984  0.1080
48727W        W91780  27.770  22.693  23.195 -0.2565 -0.1467 -0.3261
48728W        W91781   8.545   9.778  16.806  0.1280  0.2353 -0.1348
48729W        W91782   6.965   1.831   7.831  0.1832  0.0189 -0.0475
48730W        W91783  32.281   6.861  21.414  0.0574  0.0871 -0.0490
48731W        W91784   3.821   2.827  27.664 -0.0791  0.1500  0.0352
48732W        W91785   6.292   5.619  20.361 -0.0253  0.1179  0.3096
48733W        W91786  24.781  13.033  14.490 -0.4560 -0.3497  0.1505
48734W        W91787  30.835  10.486  10.133 -0.4222  0.1387  0.0001
48735W        W91788   6.735  18.851  28.052  0.0267 -0.0507  0.1531
48736W        W91789  20.490  10.967   1.932 -0.0241  0.0859 -0.0149
48737W        W91790  24.554   6.631  20.363  0.2927 -0.2641 -0.2624
48738W        W91791  34.306  12.575  16.592  0.2206 -0.4351 -0.0176
48739W        W91792  28.227  23.671   5.572  0.0512  0.0378 -0.0477
48740W        W91793   2.324  12.047   9.112 -0.1131 -0.0932 -0.0119
48741W        W91794  30.030  11.453  22.656 -0.3176 -0.3381 -0.0623
48742W        W91795  29.407  34.394  21.510  0.1915  0.3609  0.1123
48743W        W91796  22.620   8.984  28.948  0.3684 -0.3099  0.0886
48744W        W91797   4.105  14.536   1.008 -0.1275  0.1225 -0.1223
48745W        W91798  30.047   6.581  15.504  0.0569  0.3520 -0.0485
48746W        W91799   4.147   4.910  21.902  0.1115  0.1021  0.0400
48747W        W91800   7.741  16.683  21.864  0.1429 -0.0440 -0.0236
48748W        W91801   5.771  19.132  27.434 -0.0924 -0.0087  0.2438
48749W        W91802   6.259  10.073  22.373  0.1855 -0.0021  0.1300
48750W        W91803  22.251   5.216   8.883  0.1064 -0.2825 -0.1115
48751W        W91804   5.535   6.632  26.169  0.0165 -0.0333  0.2725
48752W        W91805  23.352  10.581   5.472 -0.1447 -0.0049  0.2997
48753W        W91806   9.129   2.366   3.189  0.0796  0.1430  0.0154
48754W        W91807   3.762  34.144   8.447  0.0528 -0.1128 -0.0070
48755W        W91808  31.289   9.042   4.455  0.0146  0.1986 -0.2591
48756W        W91809   2.314  21.480   6.145 -0.0528  0.2037  0.2149
48757W        W91810   3.579  25.336   8.547 -0.1796  0.0692  0.0298
48758W        W91811  27.079  11.181  15.333  0.2291 -0.0701 -0.1263
48759W        W91812   1.487  32.829  24.454 -0.3836 -0.3164  0.0948
48760W        W91813  33.072  11.636  21.587 -0.1391 -0.1843 -0.3439
48761W        W91814   5.345   5.928  14.961  0.0411 -0.0606 -0.3339
48762W        W91815   6.039  17.115   7.375 -0.0917 -0.0986  0.1129
48763W        W91816  27.402   0.796  14.643 -0.0921  0.1051  0.0482
48764W        W91817  25.952  10.518  17.311  0.2062 -0.2953 -0.0404
48765W        W91818  28.943   0.761  25.921  0.0870 -0.2003  0.3129
48766W        W91819  11.061  14.929  10.445  0.0197 -0.0562 -0.1492
48767W        W91820   0.589  12.648  25.488  0.2563 -0.1638  0.1053
48768W        W91821  33.704  31.838  20.964 -0.1214 -0.1000 -0.0288
48769W        W91822  24.114  28.108   5.498 -0.0748  0.1084  0.0800
48770W        W91823   9.105  25.819  22.544 -0.1236 -0.2362  0.2077
48771W        W91824  24.205   5.130  15.437 -0.1336  0.1075  0.0621
48772W        W91825   3.301  32.320  17.406  0.0094  0.0591 -0.3136
48773W        W91826  11.385  14.249   2.043 -0.1462  0.1782 -0.1031
48774W        W91827   8.207  31.197  27.766 -0.1137 -0.0305 -0.0402
48775W        W91828  33.033   5.052  16.903 -0.2144  0.2877 -0.2624
48776W        W91829  11.134   8.151  23.967  0.1233  0.1218 -0.2751
48777W        W91830  30.276  21.355  26.501 -0.0912 -0.1405 -0.0780
48778W        W91831  25.953   5.709   4.786  0.0128  0.2427  0.1543
48779W        W91832  20.489  15.997   1.294 -0.0564 -0.2749 -0.0737
48780W        W91833   3.904   5.261  23.807 -0.0757  0.0412  0.0365
48781W        W91834   9.025   1.024  17.144  0.0424  0.1233 -0.1469
48782W        W91835   5.316   4.770   6.104  0.0606  0.3157  0.0154
48783W        W91836   9.153  25.912   1.749  0.2131  0.2716  0.1064
48784W        W91837  24.868  11.264  22.569  0.0942  0.0677  0.1460
48785W        W91838  22.786  29.520   4.708 -0.3310 -0.0239 -0.0290
48786W        W91839   5.950  20.687  25.678  0.3354  0.0542  0.0116
48787W        W91840  29.154  34.593  16.422  0.0457  0.1671 -0.0299
48788W        W91841  25.057   6.198  26.575 -0.0781 -0.3266  0.0501
48789W        W91842  33.181  26.111  27.783  0.0195 -0.0675 -0.0440
48790W        W91843  11.231  33.960   2.278 -0.0216 -0.1058  0.1527
48791W        W91844  29.825  12.551  26.468  0.3051  0.0499 -0.2644
48792W        W91845  24.001   5.757   3.250 -0.1065  0.0929  0.0567
48793W        W91846   7.413  34.454  27.434  0.3427 -0.2529  0.0567
48794W        W91847  29.889  28.957  28.438 -0.0395 -0.1675  0.0411
48795W        W91848  20.085  10.580   2.043 -0.2580  0.0063 -0.2448
48796W        W91849  31.271   3.441   5.862  0.1430 -0.3889  0.3699
48797W        W91850  20.881   4.974   1.977  0.1212 -0.0734  0.0396
48798W        W91851  20.677  18.084   7.273  0.2250 -0.0737  0.3403
48799W        W91852   6.238  34.283  14.831 -0.2080  0.1568  0.1673
48800W        W91853  17.637  11.337  16.477  0.0226  0.3199 -0.0269
48801W        W91854   7.979   1.347  28.044  0.0313  0.0763 -0.2933
48802W        W91855  31.053  19.570   2.117 -0.0274 -0.1748 -0.1721
48803W        W91856  23.304  33.575   9.951 -0.1606 -0.0083 -0.0066
48804W        W91857   2.655  10.465  13.608  0.2428  0.0634  0.0696
48805W        W91858  31.655  11.946   8.858  0.0236 -0.1119 -0.1027
48806W        W91859  27.899   2.987   6.348  0.0697 -0.1249 -0.0112
48807W        W91860   5.471   7.541   9.315  0.3944  0.2515  0.0174
48808W        W91861  13.985   2.352   8.824 -0.1399  0.0393  0.1348
48809W        W91862  31.516  14.949  25.555  0.1255  0.0334 -0.1661
48810W        W91863  27.283   8.856  10.088 -0.1513 -0.1014  0.1711
48811W        W91864  30.758  32.514  23.946  0.1034  0.2635  0.0733
48812W        W91865   1.244  12.471  28.224  0.1635  0.1545  0.1922
48813W        W91866  29.146   5.284  20.039  0.1742 -0.0485 -0.0364
48814W        W91867   5.424  15.940  25.846 -0.1372 -0.2711  0.3396
48815W        W91868  29.376  13.731  14.206 -0.0859 -0.0563 -0.1602
48816W        W91869  22.473   8.383   1.368 -0.2392 -0.2080  0.0102
48817W        W91870   7.085   6.831   5.877 -0.3295  0.0032  0.0137
48818W        W91871  28.796  31.537  27.873 -0.2368  0.1409  0.0458
48819W        W91872  31.491  15.547   8.153  0.2260  0.1732  0.0682
48820W        W91873   6.037   9.904   8.418 -0.1422 -0.0605  0.1054
48821W        W91874   2.351   7.961   8.016 -0.0657  0.0112  0.2548
48822W        W91875  31.995   7.148   1.489  0.0104 -0.2198 -0.1201
48823W        W91876  34.371  14.064   3.330 -0.3216  0.4746  0.0510
48824W        W91877  26.777  17.698  19.497 -0.2782 -0.0971  0.1774
48825W        W91878   7.834  12.582   2.165  0.5611  0.0560  0.1635
48826W        W91879  33.062  12.168  21.486  0.4942  0.1815  0.0143
48827W        W91880  25.802  34.437  25.637 -0.0550  0.0634 -0.0482
48828W        W91881  11.186   2.557  10.461  0.1785  0.2570 -0.3276
48829W        W91882  29.665  12.325  21.778  0.2121  0.0488  0.0682
48830W        W91883   0.875  10.518  19.049 -0.1087  0.2598  0.1216
48831W        W91884   0.240  22.182  28.408 -0.0213 -0.1779 -0.0318
48832W        W91885   0.961  28.802   4.753 -0.0754 -0.0749 -0.1158
48833W        W91886   1.608   3.593  18.648 -0.1996  0.2811  0.0037
48834W        W91887  28.086  18.963   2.682  0.0145 -0.1121 -0.1740
48835W        W91888  34.215   7.862   2.361 -0.1662 -0.1027 -0.1350
48836W        W91889   5.869  11.815  24.311  0.1213  0.2664  0.0187
48837W        W91890   7.975  34.007  10.542  0.1011 -0.0787  0.0146
48838W        W91891  19.307   0.038  23.902 -0.1519 -0.1803 -0.2041
48839W        W91892  32.005  22.329  25.514 -0.2247 -0.0060 -0.1188
48840W        W91893  21.774  11.472   2.982  0.3730 -0.0968  0.1046
48841W        W91894  32.928   0.581   4.350  0.0229  0.1980 -0.0178
48842W        W91895  20.771   9.862  10.476  0.1285  0.1268  0.1150
48843W        W91896  28.341   0.693  24.196  0.3129 -0.1150  0.1636
48844W        W91897  25.742  14.699   7.495  0.1611 -0.0185  0.2175
48845W        W91898  25.910  34.537  27.531 -0.0685  0.1182 -0.1456
48846W        W91899  24.040   5.168  26.068 -0.1218  0.0450  0.3359
48847W        W91900   2.790   6.223  25.065  0.1492 -0.3839  0.2160
48848W        W91901  31.988  15.005  20.502 -0.0323 -0.0806  0.2422
48849W        W91902  17.144   5.765  23.214 -0.1057 -0.2011 -0.0020
48850W        W91903  23.456   3.735   6.962  0.0852 -0.2176  0.1319
48851W        W91904  29.488   7.733   2.422 -0.3242 -0.0935  0.1703
48852W        W91905  19.709  15.010   3.287 -0.1137  0.1000  0.2770
48853W        W91906   3.285  26.688  27.465 -0.2274 -0.0459 -0.1474
48854W        W91907  16.535  12.156   4.213  0.0855  0.0157  0.1993
48855W        W91908  15.669   4.813   4.970  0.1607 -0.1273 -0.1907
48856W        W91909  32.677  12.514  15.503 -0.1162 -0.0631  0.3068
48857W        W91910  32.620  28.065  14.325  0.3574  0.0466 -0.4613
48858W        W91911  29.966  21.880  28.261 -0.0582  0.1703  0.2175
48859W        W91912   5.927   1.561   8.946  0.2601  0.0453 -0.0156
48860W        W91913   1.481  12.789  24.715  0.1459  0.0831  0.1258
48861W        W91914   0.124  16.558  22.376 -0.1593 -0.4281 -0.2016
48862W        W91915   0.919  19.931   3.426  0.0089  0.0541 -0.0819
48863W        W91916  29.524  10.956  28.698 -0.4375 -0.1864 -0.0332
48864W        W91917   5.755  18.779   2.128  0.2278 -0.3179  0.0865
48865W        W91918  20.635  19.124  20.611 -0.0303  0.1750 -0.0175
48866W        W91919   3.537   6.934  28.201 -0.1906 -0.0136 -0.1044
48867W        W91920   0.728  15.808  24.279  0.3901 -0.1461  0.0853
48868W        W91921   2.164  15.603   0.298 -0.2595  0.3073 -0.0880
48869W        W91922  18.789   5.435   9.646  0.3543 -0.2311  0.0912
48870W        W91923   5.071  33.257   1.156 -0.1299 -0.2223 -0.1836
48871W        W91924   7.239  12.699   4.129  0.1502 -0.1803 -0.1056
48872W        W91925  27.250  22.651  19.304 -0.0573 -0.2157  0.1206
48873W        W91926  27.729  20.298  23.387  0.0943 -0.2527  0.0863
48874W        W91927  25.810  29.157  14.634  0.0344 -0.0618 -0.2093
48875W        W91928   1.933  21.973  17.763  0.1470  0.1235  0.0209
48876W        W91929   0.907  18.273  27.489 -0.2661 -0.1905 -0.1664
48877W        W91930  16.105   8.932  19.804  0.3623  0.1981 -0.2452
48878W        W91931   7.308  12.125  19.615  0.1430  0.0575  0.2662
48879W        W91932   6.799  18.623  27.600 -0.0899  0.0486  0.0057
48880W        W91933  29.580  26.475  21.013 -0.1147 -0.3198 -0.0531
48881W        W91934   7.597  26.679  20.561 -0.0042 -0.0757  0.1981
48882W        W91935  22.010  29.244  19.988  0.2518  0.4323  0.0546
48883W        W91936   1.052   4.875   5.879  0.2902  0.1409 -0.2705
48884W        W91937  32.967   7.083   8.594  0.1314 -0.1799 -0.2664
48885W        W91938  29.491   6.207  20.677 -0.1023 -0.0209  0.1005
48886W        W91939  15.211  19.944  26.711 -0.3935  0.5507 -0.0253
48887W        W91940  10.447  25.375  18.423 -0.2910 -0.0199 -0.1643
48888W        W91941  25.034  11.789   7.868  0.2474  0.2611  0.0759
48889W        W91942  32.078   6.921  24.174 -0.0087 -0.1366 -0.0146
48890W        W91943  29.718  13.074  17.475 -0.0944  0.1447 -0.1585
48891W        W91944  10.131   1.812  14.026 -0.1464 -0.1507 -0.1005
48892W        W91945  32.849   6.288  28.491  0.1816 -0.2203  0.1649
48893W        W91946  23.203  17.141  13.816 -0.1147  0.1166 -0.1125
48894W        W91947  32.210  18.710  18.662  0.1018 -0.1943  0.1506
48895W        W91948   4.351  28.096  21.097  0.0605  0.0570  0.0236
48896W        W91949   5.127  20.539  21.459 -0.1096  0.2351  0.1144
48897W        W91950  16.527  14.505  14.916 -0.0835  0.0174 -0.4074
48898W        W91951  23.713  13.045  22.316  0.0865  0.1204  0.0498
48899W        W91952  29.163  26.539  26.225 -0.1774  0.0739 -0.1215
48900W        W91953  17.091  32.922  19.843  0.0412  0.1373 -0.1286
48901W        W91954   8.235  34.077  16.806  0.2577 -0.0731  0.1743
48902W        W91955   3.204  29.443  24.233 -0.1946 -0.1725 -0.3519
48903W        W91956  22.603   7.688  20.544 -0.0131 -0.3229 -0.0219
48904W        W91957  31.775  30.366  20.445 -0.1840  0.1259  0.1362
48905W        W91958  23.780  30.019  22.072  0.0082  0.2168 -0.1177
48906W        W91959  32.111   5.743  25.490 -0.1511 -0.3280  0.0755
48907W        W91960   7.934   6.727  26.374  0.0707  0.2649 -0.0157
48908W        W91961   4.718  15.153  22.126 -0.0252  0.2585  0.0374
48909W        W91962  10.901  14.984   3.791  0.0809 -0.3170 -0.0993
48910W        W91963   0.086  31.103  28.323 -0.0437 -0.2738 -0.1594
48911W        W91964   3.689   8.984  21.310  0.1926  0.0267  0.3522
48912W        W91965  18.435  10.849  25.991 -0.0914 -0.3102  0.0930
48913W        W91966   3.590  11.619  18.336  0.3260  0.0580  0.0758
48914W        W91967   3.408   8.152   9.640  0.0935  0.2310  0.0075
48915W        W91968  33.386  11.247  23.671 -0.0441  0.1674 -0.4536
48916W        W91969  24.060  16.874  16.139  0.1490  0.0641  0.0457
48917W        W91970  10.607   6.761   4.049 -0.2026 -0.1278 -0.0205
48918W        W91971   6.409   4.033  18.422  0.0414 -0.0779 -0.0375
48919W        W91972   0.101  19.162  20.749  0.0968 -0.0552  0.0223
48920W        W91973   2.012  11.365  21.965  0.2606 -0.2913  0.1999
48921W        W91974  25.609  20.747   5.220 -0.1501 -0.0581  0.3297
48922W        W91975  31.139  24.772   1.001  0.2109  0.1615 -0.2355
48923W        W91976   5.298  20.738  13.709 -0.0810  0.1432 -0.1450
48924W        W91977  33.723  20.247  17.326 -0.1320  0.1911 -0.1489
48925W        W91978   3.441  13.139   8.962  0.0648 -0.1745  0.3288
48926W        W91979  33.043  16.313  22.793  0.0575  0.1969  0.6103
48927W        W91980   8.491   8.116  28.399  0.1506 -0.1475 -0.0981
48928W        W91981  20.309   7.696  29.030  0.0507 -0.0206 -0.2891
48929W        W91982  32.210  33.102  22.596 -0.0438  0.0040  0.1436
48930W        W91983  29.311  24.723  15.156  0.0318 -0.3833  0.0776
48931W        W91984   5.625  24.423  18.470 -0.3060 -0.0965 -0.0759
48932W        W91985  32.975   8.203  17.944  0.0986 -0.2475 -0.0406
48933W        W91986   9.244  15.966  16.370  0.0944 -0.3033 -0.3288
48934W        W91987  25.407   9.085  25.000 -0.2186  0.1292  0.2422
48935W        W91988  10.731  32.793  20.587  0.0236 -0.0382 -0.2888
48936W        W91989  20.724  20.939  14.140 -0.4442 -0.1712 -0.0835
48937W        W91990  31.803  12.825  14.644 -0.0437  0.0897 -0.0438
48938W        W91991  32.661  32.608   1.960  0.2284 -0.1216  0.1997
48939W        W91992  33.402  11.684  25.614 -0.3071 -0.3848 -0.3501
48940W        W91993  33.083   6.420  19.478  0.0715 -0.1218  0.1174
48941W        W91994   7.031  18.006  14.908 -0.2087  0.0249  0.0968
48942W        W91995  20.174  23.652  22.050 -0.1791  0.4075 -0.3187
48943W        W91996  27.480  16.352   1.160  0.1979  0.1484 -0.0372
48944W        W91997  27.654  14.187  25.071 -0.1919 -0.5030 -0.1653
48945W        W91998   4.112  19.298  22.423 -0.2036 -0.2704  0.0427
48946W        W91999  28.786  32.701   0.257  0.1335  0.1764 -0.0468
48947W        W92000   7.723  16.904  21.417  0.1447 -0.2294  0.0016
48948W        W92001  34.320   9.210  26.533  0.0275  0.1282 -0.0909
48949W        W92002   0.440  30.370  15.607 -0.1732 -0.3910 -0.0711
48950W        W92003  30.365   9.362  19.870 -0.2171  0.0393  0.0724
48951W        W92004  14.553  10.208  27.186  0.3700 -0.2485  0.0888
48952W        W92005   3.695  15.800  17.163  0.2360  0.0483  0.0306
48953W        W92006  25.967   5.292  18.066 -0.0773 -0.0901 -0.1649
48954W        W92007  15.886  20.337  24.290  0.1272  0.3249  0.0905
48955W        W92008  11.463   8.258  22.510  0.3300  0.2927  0.2489
48956W        W92009  34.250  18.471  17.682 -0.0561  0.1013 -0.0376
48957W        W92010  22.082   0.329  18.559  0.0648  0.1299 -0.1629
48958W        W92011   2.999  18.106  26.302 -0.2866 -0.0311 -0.1460
48959W        W92012  30.694  17.991  17.595 -0.0060 -0.0803 -0.1209
48960W        W92013   4.285   4.620  14.443  0.1566 -0.2503 -0.1133
48961W        W92014  24.640   1.547  26.409 -0.1088  0.0196  0.0977
48962W        W92015   4.276  10.212  29.133  0.0149 -0.1911  0.2987
48963W        W92016  28.475  19.976  18.150 -0.3219  0.0167  0.0286
48964W        W92017   3.317  20.304  22.407  0.1958  0.0736  0.2608
48965W        W92018  32.417   1.112  23.350  0.0320  0.0666 -0.2976
48966W        W92019   6.467  16.733  23.833  0.0164 -0.0138 -0.0278
48967W        W92020  30.115  14.747   2.721 -0.1619  0.0953 -0.1864
48968W        W92021  15.678  19.577  26.320  0.1525 -0.1736  0.2294
48969W        W92022  23.719  14.924  17.659 -0.1618  0.0709  0.0009
48970W        W92023  29.877   9.208  15.911  0.0635  0.0073  0.2049
48971W        W92024   3.064  13.446  22.223 -0.0949 -0.1042  0.0325
48972W        W92025   4.833  13.748  19.632 -0.4128 -0.0020  0.1422
48973W        W92026  17.592  24.672  21.298 -0.1948  0.1818  0.0395
48974W        W92027   5.000  10.053   8.774 -0.2205 -0.1453  0.0315
48975W        W92028   4.810  14.344  19.576 -0.3115  0.2560  0.3052
48976W        W92029  30.705  11.114  20.593  0.0765  0.2241  0.1448
48977W        W92030   5.586  22.681  16.824  0.0223  0.0680 -0.0808
48978W        W92031  29.476  15.970  28.650  0.0648  0.0196  0.0802
48979W        W92032  25.912  22.214  21.489 -0.1445  0.1737 -0.0387
48980W        W92033   4.340  26.387  16.069 -0.0069 -0.2112  0.0022
48981W        W92034   1.596  20.789  18.196 -0.0162  0.2756 -0.0284
48982W        W92035  30.116  28.079  15.913  0.0365 -0.2606 -0.1895
48983W        W92036  24.636  33.307   2.617 -0.0901 -0.2439  0.0207
48984W        W92037   1.855  21.382  17.113  0.1560 -0.0572  0.0786
48985W        W92038   2.186   8.604  28.279  0.4886  0.1787  0.0161
48986W        W92039  21.466  17.052  19.933 -0.0397 -0.0341  0.1380
48987W        W92040  32.594  10.922  15.276 -0.0441  0.0112  0.0860
48988W        W92041   3.752  15.778  27.600  0.2407 -0.0306  0.0954
48989W        W92042  33.375  33.679  18.844 -0.0610 -0.1895 -0.2293
48990W        W92043  22.653  20.626  19.797 -0.0861  0.2053 -0.2170
48991W        W92044  21.082   9.674  22.443 -0.1120 -0.1547  0.0448
48992W        W92045  29.435  22.737  15.418  0.0081  0.0220  0.0214
48993W        W92046   8.058  20.202  19.942  0.1454  0.0559  0.4473
48994W        W92047  29.383  12.619  20.088  0.0818  0.0255  0.3164
48995W        W92048   6.469  14.888  14.831 -0.1897 -0.0969 -0.0396
48996W        W92049   2.623   7.852  25.207  0.1474  0.3052 -0.0112
48997W        W92050   7.614  20.221  22.001 -0.0463  0.2044  0.5086
48998W        W92051   9.593  12.053  21.554 -0.2055  0.1786 -0.1186
48999W        W92052  32.671   5.433  14.991 -0.2124  0.0991 -0.0602
49000W        W92053  27.119  29.520  17.511 -0.0057 -0.3808 -0.0783
49001W        W92054  27.831  14.068  20.944  0.0126  0.0658 -0.1641
49002W        W92055  23.615   6.637  23.629  0.0507 -0.5086 -0.1026
49003W        W92056  13.657   2.227  18.357  0.1374 -0.0876 -0.0080
49004W        W92057   2.692   8.446  23.240  0.0350 -0.0107 -0.1293
49005W        W92058  30.129  22.654  20.518  0.0487 -0.1338  0.0570
49006W        W92059  11.549  10.983  18.877  0.3351 -0.0380 -0.0055
49007W        W92060   0.590   5.924  22.232  0.1193  0.2665 -0.1325
49008W        W92061   9.091  16.558  27.662 -0.2789 -0.2220  0.0018
49009W        W92062   7.341  15.494  22.911  0.2486  0.2765  0.1164
49010W        W92063  31.532  22.581  28.945 -0.2118 -0.3781  0.1677
49011W        W92064  11.303  14.979  24.724  0.1054  0.0330  0.0907
49012W        W92065  25.975  10.265  17.951  0.0705  0.1276  0.1800
49013W        W92066  22.827   3.324  17.025  0.0220  0.1166 -0.2608
49014W        W92067  13.989   5.817  26.219 -0.0832 -0.0779  0.1002
49015W        W92068  30.826  11.667  22.973  0.1604 -0.1927 -0.0009
49016W        W92069   2.011  13.158  19.462 -0.0592  0.2419 -0.4466
49017W        W92070   2.629  10.273  17.376 -0.5079  0.0938  0.1270
49018W        W92071   4.361  17.059  18.375 -0.0445 -0.0714 -0.2510
49019W        W92072  10.446   1.362  20.623  0.1012  0.1431 -0.0388
49020W        W92073  34.166  18.048  20.582 -0.4990  0.0011  0.1708
49021W        W92074  16.928   1.583  22.124 -0.0745 -0.0141 -0.0993
49022W        W92075  25.726   0.400  15.284 -0.1378 -0.1516 -0.0428
49023W        W92076  14.161  21.277  17.981 -0.3308 -0.2209  0.1997
49024W        W92077  33.418   2.210  27.874 -0.0259 -0.0282  0.0689
49025W        W92078   0.984  10.697  21.721  0.1312  0.1723  0.1491
49026W        W92079   0.134  17.524  16.553 -0.0528 -0.1496  0.0722
49027W        W92080   0.849   2.844  14.917 -0.1230  0.0099 -0.0231
49028W        W92081   2.314   8.689  24.811 -0.0082  0.1775 -0.3171
49029W        W92082  34.233  14.861  27.917  0.1782 -0.1690  0.1255
49030W        W92083   1.218   7.945  13.926  0.3480 -0.1502 -0.2300
49031W        W92084   2.340  32.744  18.737  0.2179 -0.1889  0.2683
49032W        W92085   4.816  16.049  19.684  0.1413  0.1094  0.1150
49033W        W92086  28.920   0.937   3.512 -0.0415  0.1422  0.0373
49034W        W92087  13.437  28.311  20.970 -0.2583  0.1276 -0.0018
49035W        W92088   9.590   6.549  16.002  0.2168 -0.2621  0.1000
49036W        W92089  29.551   5.152  28.174 -0.1797 -0.0496 -0.3459
49037W        W92090  32.557  21.495  14.741  0.4068 -0.1045 -0.0261
49038W        W92091   7.100  18.165  19.615 -0.2366  0.1957  0.0705
49039W        W92092   1.033  23.009  26.420  0.1613  0.1108 -0.1993
49040W        W92093  31.161  17.472  20.640  0.1985 -0.0365  0.2675
49041W        W92094  26.760  34.201  25.893  0.1121  0.0643 -0.0029
49042W        W92095   9.080  33.044  27.877 -0.0324 -0.0989  0.2683
49043W        W92096  20.408   9.481  15.484 -0.2778 -0.3025  0.0602
49044W        W92097   4.723  25.992  19.059  0.0209 -0.0500 -0.0210
49045W        W92098  31.284  24.173  28.774 -0.1231  0.1386  0.0289
49046W        W92099  30.436  29.826  20.155  0.2279 -0.0202  0.0423
49047W        W92100  33.575  24.470  16.271 -0.2372 -0.0029  0.0662
49048W        W92101  25.167  21.273  19.459 -0.0563  0.4366 -0.0767
49049W        W92102   2.710  18.711  28.587 -0.0223 -0.0087 -0.0933
49050W        W92103  14.397  13.602   1.894  0.1439 -0.0959 -0.0233
49051W        W92104  10.208   4.456   7.860  0.0219  0.1082  0.2241
49052W        W92105  31.358   8.364  16.408  0.1755  0.0591  0.0401
49053W        W92106   1.334  32.269  17.797 -0.1150 -0.4034  0.0499
49054W        W92107  32.793  24.066  13.488  0.0831  0.2056  0.0706
49055W        W92108   3.964   2.982  21.228 -0.0843 -0.1999  0.1831
49056W        W92109   2.851  23.408  25.178  0.0351  0.0311  0.2252
49057W        W92110  32.551  23.957  14.938  0.0623 -0.3450  0.1094
49058W        W92111  28.174  11.889  22.044 -0.0965  0.0073  0.0711
49059W        W92112   7.283  19.781  22.192  0.2143  0.3960 -0.3141
49060W        W92113  32.584  15.792  16.158 -0.0522 -0.2632  0.1179
49061W        W92114  34.250  32.020  26.913 -0.0135  0.2863 -0.2572
49062W        W92115  32.489  28.095  14.861  0.0329  0.1073  0.0213
49063W        W92116  25.391   5.156  16.033  0.1660  0.0358  0.2730
49064W        W92117  29.859  16.232  24.853 -0.3277 -0.0421 -0.2720
49065W        W92118  29.840  21.331   1.846 -0.0177 -0.0899 -0.0423
49066W        W92119  13.941  15.291  16.687  0.0043 -0.0064  0.0718
49067W        W92120   0.495  28.143  25.744  0.3057  0.0321 -0.3401
49068W        W92121  10.903  27.776  15.710  0.0457  0.0592  0.0341
49069W        W92122   8.605  16.999  20.319 -0.0318 -0.2219 -0.2421
49070W        W92123  32.957   9.888  18.732  0.1928  0.2480 -0.0412
49071W        W92124  21.855   0.816  24.666 -0.2405 -0.1534  0.0191
49072W        W92125  28.323  15.241  15.552 -0.3500  0.2155  0.1355
49073W        W92126   3.561  14.342  15.141 -0.1805 -0.1173 -0.1474
49074W        W92127  30.552  11.185  16.387  0.0703 -0.2456  0.0891
49075W        W92128   4.049  26.900  24.405  0.0025 -0.2646  0.0002
49076W        W92129   7.466  34.520  26.953  0.2129  0.1923 -0.1953
49077W        W92130  33.659  14.444  14.698 -0.0954  0.1644 -0.0053
49078W        W92131  30.428  12.680  21.804  0.1014 -0.1712  0.2458
49079W        W92132  13.827  10.347  24.855 -0.3019  0.1170  0.3268
49080W        W92133  24.952  11.146  17.931 -0.1872 -0.1477 -0.1238
49081W        W92134  34.173  24.134   4.315  0.2450  0.3048 -0.0542
49082W        W92135  34.113  18.445  16.072 -0.0287  0.0307 -0.1123
49083W        W92136  26.896  12.521  18.322  0.1256 -0.1255  0.1407
49084W        W92137   0.560  23.350   5.441 -0.1800 -0.1355  0.1198
49085W        W92138   6.921  14.042  23.515  0.0987  0.0151 -0.0708
49086W        W92139  16.430  31.892   2.803  0.2692  0.1589 -0.0640
49087W        W92140  28.441   8.316   2.539  0.0835 -0.1229 -0.1262
49088W        W92141  24.734  18.233   5.767  0.1332 -0.2015  0.0759
49089W        W92142   0.728  13.962  25.764 -0.0041  0.3096  0.0163
49090W        W92143  22.709  27.123  17.599  0.0370  0.2008 -0.3487
49091W        W92144  15.147  20.202  24.641 -0.1372  0.0748  0.2253
49092W        W92145  31.391  18.572  16.759 -0.1555  0.1227  0.4718
49093W        W92146   5.415  15.425  26.696 -0.2252 -0.3614 -0.0181
49094W        W92147  30.066   9.997   9.728  0.1043 -0.0147 -0.0484
49095W        W92148   3.737   7.996  24.249  0.0332  0.0483  0.3444
49096W        W92149  34.041  34.479   5.683 -0.2300  0.0202  0.0218
49097W        W92150   2.960   8.463  22.595 -0.1556 -0.4786  0.0681
49098W        W92151  13.405  15.602  14.120 -0.3407 -0.2357  0.1465
49099W        W92152  26.764  27.459  26.729 -0.2381  0.1106  0.0174
49100W        W92153  30.876   9.653  18.971  0.2481 -0.1401  0.1300
49101W        W92154   2.272  11.996  16.446  0.0160 -0.2865  0.3479
49102W        W92155  12.872   4.881  19.303 -0.0232  0.0521  0.0352
49103W        W92156  22.596  18.352  19.178 -0.1120 -0.0553 -0.4265
49104W        W92157  29.913   8.712  18.912  0.1225  0.0335  0.0465
49105W        W92158   4.580  12.236  22.671  0.0914 -0.0775 -0.0540
49106W        W92159   7.295  34.047   0.074 -0.2273 -0.0494 -0.0436
49107W        W92160   7.298   9.418  13.748  0.3067 -0.0747 -0.0169
49108W        W92161  32.753  19.658  20.757  0.1619 -0.0643  0.1613
49109W        W92162  31.082   2.236   1.249 -0.3064  0.1064  0.2386
49110W        W92163  34.452  33.475  15.574  0.0333  0.3068 -0.0707
49111W        W92164   3.598   6.588  27.367  0.0756 -0.1001 -0.1851
49112W        W92165  10.285  20.974  15.914  0.1811 -0.3517 -0.2351
49113W        W92166   0.772  24.911  24.315 -0.2154 -0.1014  0.1148
49114W        W92167   1.468  21.632   5.320  0.1401 -0.2382  0.3374
49115W        W92168  30.828   9.118  19.618 -0.1330  0.1007 -0.1961
49116W        W92169  33.323   2.313   7.730 -0.0150 -0.2257  0.2596
49117W        W92170  28.854  11.939  17.918 -0.1306 -0.3704  0.1624
49118W        W92171  26.485  10.474  17.150  0.0369  0.0460  0.0820
49119W        W92172  30.651  20.234  20.535  0.4025  0.0069  0.3301
49120W        W92173  26.581  12.691   6.706  0.1194  0.1334 -0.3302
49121W        W92174  20.380   1.839  20.421  0.2772 -0.0078 -0.1148
49122W        W92175   8.105  29.894   6.038  0.0568 -0.0598 -0.3144
49123W        W92176  11.674  21.920  27.215 -0.0555 -0.1901 -0.0710
49124W        W92177   3.400  18.977  24.418  0.2339  0.2904 -0.0267
49125W        W92178   1.732  24.171  26.560 -0.1823 -0.0267 -0.0418
49126W        W92179  32.765  32.480   3.271  0.1209  0.0155  0.2037
49127W        W92180  12.886  21.234  17.226 -0.0677  0.0565  0.0716
49128W        W92181  25.478  14.799  22.270  0.1182  0.2490 -0.1154
49129W        W92182   6.780  22.686  20.773  0.1598  0.0767  0.0321
49130W        W92183  29.286  27.341   3.722 -0.2022 -0.2990 -0.1327
49131W        W92184  19.020   8.336  15.328 -0.1889 -0.1927  0.2896
49132W        W92185   4.298   4.381  15.834 -0.1101  0.1346 -0.0281
49133W        W92186   0.107  10.529  20.354 -0.0808 -0.3214  0.1552
49134W        W92187   7.657  28.455  18.311  0.4087 -0.0796 -0.0477
49135W        W92188   0.200  14.511  26.944 -0.0087  0.2657  0.2483
49136W        W92189  29.111   9.562  17.611  0.1401 -0.0813 -0.2385
49137W        W92190   5.091   8.652  22.518 -0.1030 -0.2064  0.2112
49138W        W92191  30.024  17.096   8.971  0.1565 -0.0250  0.1277
49139W        W92192   0.914  15.278  18.421  0.0481  0.0198  0.1338
49140W        W92193   6.501  16.795  22.434  0.0332 -0.1856  0.2346
49141W        W92194  34.331  15.213  24.986  0.1663 -0.1665  0.2336
49142W        W92195   6.706  33.078  18.795  0.1056  0.0827 -0.3412
49143W        W92196  32.163  31.051  26.723 -0.1188  0.1664  0.0654
49144W        W92197  28.941  24.453  18.895  0.2303 -0.0086 -0.1006
49145W        W92198   8.035  16.586   8.611  0.1125 -0.2928  0.0025
49146W        W92199  29.838  10.629  18.267 -0.5044 -0.0283 -0.0048
49147W        W92200  25.915  22.280  19.205  0.3197 -0.1940  0.3075
49148W        W92201   3.372  23.806   2.112 -0.1285  0.1877 -0.0789
49149W        W92202  28.192  19.641   0.152  0.3648 -0.3102 -0.0143
49150W        W92203  14.867  33.963   7.128  0.0335 -0.0384 -0.0572
49151W        W92204  27.667  14.001  24.113  0.2880 -0.0117 -0.1319
49152W        W92205   1.607  14.544  17.863  0.2051 -0.0184  0.1673
49153W        W92206  11.538  26.093  18.565 -0.1099  0.0657 -0.4018
49154W        W92207  30.480  19.840  23.777  0.0051  0.0415 -0.1174
49155W        W92208  12.857   8.445  16.080  0.4765 -0.1178 -0.0256
49156W        W92209  25.494   6.667  15.222  0.1504 -0.0439  0.0474
49157W        W92210  12.086  23.352  18.256 -0.1948  0.1973 -0.0938
49158W        W92211  15.073   1.923  17.310 -0.1954 -0.3060  0.1325
49159W        W92212  25.266  11.178  22.255 -0.3628  0.0083  0.1701
49160W        W92213  33.923  32.656  20.117 -0.1623 -0.0085  0.0623
49161W        W92214  30.224  13.402  25.967 -0.1530 -0.1359  0.4763
49162W        W92215  11.273   8.114   7.880  0.1801 -0.1573  0.1815
49163W        W92216   4.782  10.348  14.548 -0.0646  0.1107  0.3206
49164W        W92217  23.094  14.362  14.148 -0.0897  0.2014 -0.2904
49165W        W92218  30.765   2.506  14.540  0.2023  0.2733  0.0810
49166W        W92219  28.224  16.404  20.610  0.2543  0.5464  0.1751
49167W        W92220  10.122  11.811  20.913  0.1411  0.2057  0.0055
49168W        W92221  15.993   2.017  23.244 -0.0441  0.0240  0.2180
49169W        W92222  15.362  10.623  15.499  0.1170  0.2730 -0.0256
49170W        W92223  29.783  11.209  18.110 -0.2376  0.5256  0.1707
49171W        W92224  16.013   6.500  17.465 -0.1072 -0.3493  0.1166
49172W        W92225  10.404  10.643  28.464  0.0950  0.1537  0.1163
49173W        W92226  11.898   2.448   9.625  0.0758 -0.0466  0.1898
49174W        W92227   7.389  25.421  14.490 -0.2228 -0.4787 -0.1056
49175W        W92228   1.537   0.560  17.234 -0.2373  0.2146  0.1727
49176W        W92229  23.306   1.498   4.036  0.1729 -0.2187 -0.0608
49177W        W92230  11.419  29.241   3.965  0.0075 -0.0636 -0.1850
49178W        W92231   5.397  22.630   2.858 -0.1664 -0.2212 -0.2515
49179W        W92232  29.110  12.706  23.785  0.1031  0.0874  0.1775
49180W        W92233  24.633  33.867  15.569  0.1183 -0.0404 -0.1009
49181W        W92234   9.671  13.945  19.480  0.0708  0.0589  0.0807
49182W        W92235   8.481  20.374  19.818 -0.1464  0.0793 -0.1572
49183W        W92236   1.511   4.192  28.440 -0.2330  0.1877 -0.0369
49184W        W92237  27.989   9.646  17.048  0.0983 -0.1284 -0.1501
49185W        W92238  20.796  27.466  15.699  0.0872 -0.1750 -0.1193
49186W        W92239  31.777  28.372   2.543 -0.0605 -0.0232 -0.5153
49187W        W92240   2.603  16.793  21.718 -0.0387 -0.0049 -0.1608
49188W        W92241  33.340  16.119   1.970 -0.0496  0.0246 -0.1145
49189W        W92242  31.853  24.471   9.083  0.0472 -0.0135  0.0571
49190W        W92243   2.420  13.793   6.894  0.0316 -0.4018 -0.0561
49191W        W92244   4.105  18.132  18.880 -0.0731  0.0221 -0.0852
49192W        W92245  22.365   5.296   8.297 -0.1180 -0.1244  0.5886
49193W        W92246  30.097  32.962  14.377  0.1641  0.0054 -0.0609
49194W        W92247  10.910  23.006  20.156 -0.0383  0.0914 -0.3139
49195W        W92248  12.808  10.843   5.664  0.1211  0.1058  0.1193
49196W        W92249  27.263   1.728  14.478 -0.2088 -0.2872  0.2272
49197W        W92250   1.528   3.792  21.320 -0.1945  0.0782  0.0453
49198W        W92251   8.940   4.483  23.057  0.1825  0.0973  0.2431
49199W        W92252  27.732  22.502  19.978  0.2445 -0.1607  0.5147
49200W        W92253   4.936  14.674  20.591 -0.1198  0.0225  0.1630
49201W        W92254  22.342  17.465  13.317  0.2151  0.1112 -0.0701
49202W        W92255  32.032  18.747  17.901  0.0533 -0.2236  0.1487
49203W        W92256   0.197   9.158   1.963 -0.0929  0.1199  0.1896
49204W        W92257   4.304  14.113   2.303 -0.1714  0.2884 -0.0908
49205W        W92258   1.011   4.839  16.631 -0.1755  0.0053 -0.0540
49206W        W92259  19.737  23.284   0.043 -0.2022  0.1816 -0.3314
49207W        W92260   4.236  17.679  20.698 -0.0306 -0.1969  0.2882
49208W        W92261   8.944   5.624  21.170  0.2584  0.1406  0.0257
49209W        W92262   0.465  21.744  28.684  0.4361 -0.0150 -0.3144
49210W        W92263  27.883  10.103  26.655 -0.0893 -0.0911  0.0673
49211W        W92264  13.857   6.544  16.751  0.2495  0.2487  0.1371
49212W        W92265   9.297   7.560  22.155  0.2485 -0.1118 -0.2110
49213W        W92266   2.857   3.127  23.919 -0.1480  0.2561 -0.0714
49214W        W92267   8.168  13.651  16.759 -0.0817  0.0725  0.0600
49215W        W92268  32.651  15.417  13.971  0.0467 -0.0397 -0.5712
49216W        W92269   3.951  12.312   9.881 -0.0714  0.1736  0.0801
49217W        W92270  17.560  27.132  28.409  0.0948  0.0404  0.1709
49218W        W92271  25.295  15.249  25.978 -0.0282 -0.0422 -0.0644
49219W        W92272   7.457  30.743  21.937  0.0033 -0.2537 -0.2406
49220W        W92273  13.652  15.166  17.589  0.3139  0.0914 -0.1095
49221W        W92274  32.356  27.827   3.558  0.0111  0.1638 -0.3387
49222W        W92275  25.743  15.977  14.955 -0.1225 -0.1745 -0.2245
49223W        W92276   6.311  13.808  16.748  0.0322  0.1169 -0.1463
49224W        W92277  10.951  10.187  26.190  0.2547  0.2329 -0.0702
49225W        W92278   1.292  23.198  23.998 -0.0388 -0.0750 -0.0104
49226W        W92279  25.303  16.615  24.265 -0.2561 -0.0049  0.1289
49227W        W92280   4.982  26.271  19.414  0.1406 -0.0682 -0.2934
49228W        W92281  34.170   0.685  21.784  0.0893  0.0115 -0.1344
49229W        W92282   5.996  18.765  27.201 -0.2075  0.1971 -0.1553
49230W        W92283   3.837  20.341  19.282  0.0014 -0.0421  0.1245
49231W        W92284   7.783   8.564  15.173  0.1860 -0.0695 -0.0378
49232W        W92285  22.193   1.557  18.894  0.1772  0.1546  0.1408
49233W        W92286  27.379  24.409  24.400 -0.1329  0.0069  0.1872
49234W        W92287   0.274  22.698  24.432 -0.1436 -0.4213  0.1258
49235W        W92288   5.654   5.905  21.767 -0.0808 -0.2559  0.2632
49236W        W92289   7.115  28.160  20.628  0.0022  0.0319  0.2569
49237W        W92290  33.709  16.435  14.765 -0.1662  0.1075 -0.1691
49238W        W92291  24.542  10.689  14.423 -0.1482 -0.1815 -0.0999
49239W        W92292  27.346   3.852  13.965 -0.2066  0.4447 -0.3038
49240W        W92293  28.043   2.897  27.727  0.0390 -0.2405  0.0157
49241W        W92294  28.159  34.128  27.130  0.1625 -0.1604  0.0000
49242W        W92295  16.540  29.051  16.072 -0.0107  0.0097 -0.1212
49243W        W92296   4.115   7.435  17.076 -0.2197  0.1261 -0.0067
49244W        W92297  32.049  18.981  25.650  0.0757 -0.1428 -0.3146
49245W        W92298   8.962  19.225  20.526  0.5374  0.3226 -0.3296
49246W        W92299   9.845  23.222  13.463  0.3996 -0.1078 -0.1240
49247W        W92300  27.871   1.739  26.212  0.0868  0.1788  0.1067
49248W        W92301   1.807  25.342   0.605 -0.0106  0.0870  0.0299
49249W        W92302  10.783  30.567  24.415  0.0351 -0.0818 -0.1113
49250W        W92303  12.187   2.420  17.124  0.0453  0.0898 -0.0295
49251W        W92304  10.724   5.327   9.716 -0.1727 -0.2548 -0.5576
49252W        W92305  13.677   9.146  19.989 -0.0211  0.0271 -0.0261
49253W        W92306  26.000  14.164  22.827 -0.5867 -0.0068  0.0354
49254W        W92307   0.726  33.533  18.232  0.2442  0.0697  0.0010
49255W        W92308  26.820  18.316  22.181  0.3400 -0.6159 -0.3537
49256W        W92309  28.000  14.474  14.597 -0.2441  0.2568 -0.0863
49257W        W92310   7.752   6.653   1.598 -0.2189 -0.0369 -0.0055
49258W        W92311  27.916  17.565  24.097 -0.1230  0.3712 -0.2280
49259W        W92312   3.166  16.387  17.870  0.3179 -0.1634  0.1738
49260W        W92313   4.617  16.431  19.436  0.1805  0.1554 -0.1314
49261W        W92314  24.566  11.036  14.986  0.2253  0.1460 -0.0088
49262W        W92315   9.978  16.671   4.975  0.1971 -0.3981 -0.0894
49263W        W92316  10.866   9.625  18.974  0.1154 -0.1570 -0.0288
49264W        W92317   9.294  10.691   4.564 -0.1019 -0.0978  0.1306
49265W        W92318  31.936  14.474  28.900 -0.1651 -0.1200  0.1925
49266W        W92319  26.669  21.727  23.337 -0.0648 -0.2591 -0.1405
49267W        W92320   6.254   9.893  16.961 -0.4186 -0.0646  0.2768
49268W        W92321  30.743   9.431   1.785  0.0643  0.0518  0.1492
49269W        W92322  20.514   2.292  19.217  0.0445 -0.0531  0.1561
49270W        W92323   4.772   4.561   8.364 -0.3550  0.6263  0.2505
49271W        W92324   0.768   7.599  27.227  0.0402  0.3638 -0.1800
49272W        W92325  14.943  16.835  23.051  0.0802 -0.1356  0.1696
49273W        W92326   2.953  15.121  25.884  0.0566 -0.0599 -0.0044
49274W        W92327  18.083  17.466  10.038 -0.2928 -0.3145  0.1823
49275W        W92328  11.471  27.028  17.627  0.0369  0.0239 -0.5610
49276W        W92329  22.540  21.640  15.139  0.0974 -0.1183 -0.0288
49277W        W92330  16.342  18.392  14.361  0.3269 -0.0905 -0.0252
49278W        W92331  14.937  15.177   7.973 -0.0732  0.0128  0.3262
49279W        W92332  12.219   7.812   2.768 -0.2032  0.2800 -0.3986
49280W        W92333  15.749  10.703  17.343 -0.2193  0.1353 -0.2113
49281W        W92334  31.420   1.846  18.688 -0.1624  0.0113 -0.0504
49282W        W92335   5.985   8.918  15.530  0.0234 -0.2309 -0.0764
49283W        W92336   2.901   7.021  18.305 -0.4001 -0.0911 -0.1306
49284W        W92337   8.445  13.362  17.054  0.2939  0.1683  0.0773
49285W        W92338   2.984  20.021  17.093 -0.2200 -0.1409  0.2594
49286W        W92339   2.384  20.640   6.547  0.0241  0.4605 -0.2015
49287W        W92340  24.512   3.214  25.814  0.2086  0.2937 -0.1817
49288W        W92341  25.889  25.349  22.609 -0.0866 -0.1470  0.1430
49289W        W92342  33.450  29.327  19.693 -0.1034  0.3483 -0.1094
49290W        W92343  30.365   7.284  17.566 -0.2020 -0.1488  0.0047
49291W        W92344  27.926  16.393  24.119 -0.1062 -0.0581  0.2380
49292W        W92345   1.334  23.048  17.288  0.0031  0.0479  0.5182
49293W        W92346  31.618   4.125  22.573 -0.3891  0.0514 -0.0536
49294W        W92347  27.049  32.120   5.340  0.2542 -0.0531 -0.0187
49295W        W92348  30.482  28.563  18.961 -0.2539 -0.1781 -0.2444
49296W        W92349  10.987  13.160   0.563  0.0139 -0.1036  0.1926
49297W        W92350   6.061   8.195  20.132  0.1471 -0.4247 -0.0828
49298W        W92351  23.248  11.230  16.940 -0.0503  0.1472 -0.0055
49299W        W92352   4.367  11.554   9.524 -0.5301 -0.0893 -0.2999
49300W        W92353   6.078  10.037  17.537 -0.2760  0.1488  0.2607
49301W        W92354   7.330  21.046  28.331  0.2591 -0.2011  0.1004
49302W        W92355  32.938  15.651  19.526 -0.2895  0.0073 -0.0141
49303W        W92356  21.685   0.722   8.783 -0.2112 -0.0732  0.0882
49304W        W92357  18.670   7.749   9.848  0.0540  0.2818 -0.0705
49305W        W92358   4.480  13.526  18.219 -0.1826 -0.2848  0.2419
49306W        W92359  32.699   8.438  23.171 -0.1687 -0.2434 -0.4436
49307W        W92360  24.202  15.875  24.754 -0.0503  0.2708 -0.3280
49308W        W92361   7.447   5.435  22.802  0.1757  0.0500 -0.0148
49309W        W92362  29.115  26.507   0.378 -0.2535  0.1624 -0.0836
49310W        W92363   6.399   4.290  24.682 -0.2552  0.2011  0.1698
49311W        W92364  10.445   7.644  24.315  0.0723 -0.3933  0.0893
49312W        W92365   6.080   1.766  25.300  0.2241  0.0041  0.2455
49313W        W92366  24.261  15.306  27.276 -0.2111  0.1574  0.1323
49314W        W92367  24.828  31.275  23.755  0.1428 -0.0917  0.0346
49315W        W92368  16.286  15.716   1.176 -0.0599 -0.1385  0.1774
49316W        W92369   2.650  31.442  21.053  0.2916 -0.1765  0.1531
49317W        W92370  10.658  19.716  13.650 -0.0347 -0.2190 -0.1210
49318W        W92371   0.462  22.396  23.640  0.1655 -0.1328 -0.4824
49319W        W92372  29.559  27.608   0.276 -0.0970 -0.2106  0.3437
49320W        W92373   4.465  13.599  28.441  0.1124  0.0241  0.1673
49321W        W92374  10.962  23.348   6.752 -0.1245  0.0335 -0.1640
49322W        W92375   6.929  12.219   7.503  0.2461  0.0222  0.0218
49323W        W92376  33.786  15.506   0.909  0.0679 -0.0275 -0.1189
49324W        W92377  31.704  18.289   6.564  0.2138 -0.2794 -0.0042
49325W        W92378  22.054   3.582   9.860  0.1197  0.0127  0.2565
49326W        W92379   3.574   9.581   2.059  0.1465  0.2521  0.0536
49327W        W92380  29.268  26.122  19.752 -0.3703  0.2840  0.1713
49328W        W92381  26.754  25.771  20.311  0.2391  0.2823 -0.0746
49329W        W92382  12.559  14.927   4.732  0.3278 -0.1124  0.0343
49330W        W92383  33.896  33.511  14.738 -0.1344  0.0313  0.1535
49331W        W92384   2.488  24.006  28.504  0.0657 -0.1344  0.0246
49332W        W92385  11.884  30.703  20.844 -0.2189  0.3674 -0.1145
49333W        W92386   9.750  22.841  18.886 -0.0176  0.0924  0.2120
49334W        W92387  34.192  34.518  26.611 -0.3279 -0.0104 -0.0265
49335W        W92388  33.791   8.121   7.235 -0.0817 -0.3155  0.0660
49336W        W92389  29.370   8.366  17.386 -0.2812  0.3451  0.2130
49337W        W92390  24.820  10.686   1.774 -0.0227  0.0525 -0.3087
49338W        W92391   0.013   5.170  10.715 -0.1688  0.0916 -0.2894
49339W        W92392   5.327  12.175   9.252 -0.2587 -0.1764 -0.1317
49340W        W92393   2.319  32.684  25.959 -0.0859  0.0076 -0.1317
49341W        W92394   1.158   7.989  16.821  0.1821 -0.0755 -0.3431
49342W        W92395  29.456   6.663  28.366  0.4443  0.2029  0.1926
49343W        W92396  32.229  15.168   3.303  0.0908  0.3614  0.0346
49344W        W92397   4.663   8.183  26.858 -0.1295  0.1785 -0.0960
49345W        W92398  31.762   6.651  13.614  0.0135  0.0239 -0.0819
49346W        W92399  18.542  14.933  14.229  0.1617  0.0078  0.3393
49347W        W92400  34.422  30.263  24.699 -0.0958 -0.2000 -0.1439
49348W        W92401  22.282  21.545   8.736  0.1786 -0.1651 -0.0271
49349W        W92402  25.906  13.674  20.344 -0.2150  0.2827 -0.0496
49350W        W92403  32.717  11.231  21.602  0.0902 -0.2846 -0.1150
49351W        W92404  17.665  19.835  26.289 -0.0247 -0.2646  0.0834
49352W        W92405   7.268  26.467  20.298  0.0590  0.1756  0.3054
49353W        W92406   9.433  12.318  28.799 -0.0822  0.2267 -0.1088
49354W        W92407  16.361  10.653  20.041 -0.1475  0.1535  0.2942
49355W        W92408  13.075  22.016   3.148  0.3369 -0.0227 -0.1714
49356W        W92409   6.481  13.650  25.368  0.0707  0.1418 -0.0389
49357W        W92410   8.420   4.613  23.297  0.0983  0.0580  0.0000
49358W        W92411  23.191  34.526   6.474 -0.0023  0.0839 -0.0768
49359W        W92412  17.091  13.831   2.594  0.0140  0.1874 -0.0481
49360W        W92413   3.504  21.718  15.395 -0.0514  0.0087  0.0174
49361W        W92414   2.189  10.175   7.195 -0.2281 -0.0597  0.4546
49362W        W92415   5.323  17.858  23.431  0.1199 -0.0291 -0.2504
49363W        W92416  13.203  19.974  25.181 -0.2780  0.0997 -0.0072
49364W        W92417  28.379  23.506  28.664  0.2409  0.2034 -0.0758
49365W        W92418   2.007  25.767   7.222 -0.2642 -0.0390 -0.0781
49366W        W92419  22.109   9.304   6.549  0.0891 -0.2170 -0.1057
49367W        W92420   9.975  14.726  22.394 -0.1833  0.2310  0.0789
49368W        W92421   6.855   7.732  21.585  0.5234  0.1230 -0.1078
49369W        W92422  13.864  29.070  13.914 -0.0373  0.0462 -0.3559
49370W        W92423  31.987   3.476  23.171 -0.1231  0.0930  0.1098
49371W        W92424   9.810   5.342  24.501 -0.1315  0.0816 -0.1361
49372W        W92425   7.615   2.601  27.723  0.1179  0.0064  0.0897
49373W        W92426  32.948  25.855  22.669  0.1032  0.0746 -0.1163
49374W        W92427  22.149  14.826  26.685  0.0043 -0.0903 -0.0239
49375W        W92428   9.452  15.314  15.343  0.0011 -0.0563 -0.2860
49376W        W92429  21.519   3.927   8.082 -0.2743  0.0367  0.2699
49377W        W92430  32.921  18.758   2.771  0.0875 -0.3308 -0.0390
49378W        W92431  24.842  18.217  23.561  0.0980  0.1130 -0.3209
49379W        W92432  21.889  26.956  25.010 -0.0788 -0.1465  0.0628
49380W        W92433   9.193  25.805  17.656 -0.1854 -0.2659  0.3034
49381W        W92434  32.259   7.174  18.417 -0.0335 -0.0718  0.0536
49382W        W92435  29.109   4.105  22.176 -0.2237 -0.2477 -0.0020
49383W        W92436   3.167  24.279  15.086  0.1471 -0.2755  0.2478
49384W        W92437  31.902  17.228  23.268  0.1325 -0.3686 -0.3548
49385W        W92438  22.990  16.555  16.253  0.1580 -0.1660 -0.3739
49386W        W92439  14.311   8.170  24.678  0.0666  0.2353 -0.0617
49387W        W92440  27.212  21.604   7.800  0.2294 -0.1167  0.1654
49388W        W92441  33.588  29.939  16.926  0.0042  0.0251  0.2703
49389W        W92442   3.155  20.983  21.841 -0.2786  0.0656 -0.2434
49390W        W92443  26.952  18.777   5.492  0.1687  0.0005 -0.0147
49391W        W92444  10.021   3.659  23.413 -0.2361  0.1025  0.3490
49392W        W92445   2.451  10.533  25.106 -0.1071  0.0371 -0.0472
49393W        W92446  19.057  34.293  17.223 -0.0607  0.2488 -0.0379
49394W        W92447  22.915   8.596  26.643 -0.3441 -0.0217 -0.1020
49395W        W92448   7.843  15.042  19.792 -0.1090  0.2001 -0.1835
49396W        W92449  29.182  25.571  15.045 -0.0987 -0.2651  0.0370
49397W        W92450   0.181  33.350  14.141 -0.2590  0.1480  0.2201
49398W        W92451  32.892  10.628   4.195 -0.2041 -0.1925 -0.0032
49399W        W92452  34.176  13.028  24.300  0.1350  0.0496  0.1214
49400W        W92453   5.654  14.951  21.231  0.0377 -0.2353 -0.3303
49401W        W92454  26.849  17.680  22.033  0.2761  0.1493 -0.3726
49402W        W92455  32.111  14.524  16.197  0.2516  0.1468 -0.1704
49403W        W92456  15.832  25.310  24.017 -0.2536 -0.2065 -0.1463
49404W        W92457   3.406  31.429  21.115  0.3688  0.1950  0.0844
49405W        W92458   2.924  23.001  24.019  0.4721 -0.2504 -0.1881
49406W        W92459  26.383  33.489  25.258  0.1198 -0.0377 -0.0314
49407W        W92460  34.681  13.009  19.888 -0.2173  0.2133  0.2078
49408W        W92461  25.280   5.718  13.474 -0.3041  0.1222 -0.2355
49409W        W92462   5.857  22.420  13.898  0.1614  0.0580 -0.2601
49410W        W92463   1.303   9.935   5.089 -0.4307 -0.1837  0.1253
49411W        W92464  30.672  22.473   2.759  0.0055  0.0173  0.0407
49412W        W92465  29.756   0.568   8.353 -0.3566 -0.0227  0.2733
49413W        W92466  34.354   6.446  16.831 -0.0587 -0.1314  0.2424
49414W        W92467  26.316  16.628   3.852 -0.1176  0.1174  0.4007
49415W        W92468  15.022   8.097   4.184 -0.2011 -0.1365 -0.2687
49416W        W92469  30.139  17.635  28.336 -0.1801  0.0102  0.0574
49417W        W92470  21.301  15.315  18.873 -0.1773  0.1903 -0.2561
49418W        W92471  27.636  19.565  28.038 -0.3891 -0.1356 -0.0257
49419W        W92472   0.608  12.062  17.031 -0.2535  0.1981  0.1004
49420W        W92473  29.236   0.655  21.720 -0.0434 -0.0559  0.1420
49421W        W92474  22.735   9.199  22.415 -0.0497  0.0007 -0.1367
49422W        W92475  28.935   5.050  16.895 -0.0091  0.0412 -0.1862
49423W        W92476  28.254  25.664  25.649  0.0691  0.2285 -0.3281
49424W        W92477   7.526   3.515  27.879  0.0415 -0.0429 -0.1261
49425W        W92478   4.573   7.416  28.708 -0.0298  0.0800 -0.1045
49426W        W92479  13.028   0.477  18.954  0.3024  0.0380  0.0468
49427W        W92480  22.781  32.679  27.257  0.1550  0.2384  0.1160
49428W        W92481   6.795  19.902  23.671  0.1411 -0.2406  0.2601
49429W        W92482   6.470   5.956  18.771 -0.0979 -0.4653  0.1502
49430W        W92483  29.594  11.382   3.911  0.3960 -0.5255  0.0126
49431W        W92484   0.506   9.309  28.755 -0.1578  0.2336  0.1459
49432W        W92485  27.906  12.234  14.296  0.1004 -0.0115  0.3899
49433W        W92486  23.982  13.708  24.017  0.0302  0.0240 -0.0078
49434W        W92487   2.018  24.173  28.665 -0.0314 -0.1231  0.0299
49435W        W92488  26.690  14.639   8.648 -0.2268 -0.0260  0.0173
49436W        W92489  34.594  22.403   6.000 -0.1031  0.2959  0.3201
49437W        W92490  29.025   1.535  19.382  0.2396 -0.1436 -0.2033
49438W        W92491  30.051  19.647  23.838  0.1590  0.0551  0.1097
49439W        W92492  31.471  12.290  19.239  0.0689  0.0902 -0.1687
49440W        W92493  33.362  18.904   5.167  0.0385 -0.2114 -0.2386
49441W        W92494  26.435  11.554   2.149 -0.3570  0.1551 -0.1218
49442W        W92495  11.452  16.387  15.762 -0.1128 -0.0349 -0.2901
49443W        W92496  26.881  13.403   2.212 -0.2662 -0.4005 -0.0952
49444W        W92497  24.569  18.902  28.678  0.2236 -0.0003  0.0647
49445W        W92498   6.638   6.358   6.689 -0.2343 -0.1605  0.1253
49446W        W92499   8.058  21.104  18.701 -0.2294 -0.1439  0.1087
49447W        W92500  11.997  15.990  17.730  0.1091  0.2314  0.1988
49448W        W92501  22.455  21.637   5.237  0.1071  0.0056  0.2952
49449W        W92502   6.536  32.363  21.098  0.1626  0.2697 -0.0481
49450W        W92503   8.440   9.597   4.111  0.2775 -0.0916 -0.0894
49451W        W92504   8.232  25.564  15.978 -0.0899 -0.2432 -0.1019
49452W        W92505  12.908  12.004  19.572  0.2219 -0.0499  0.1603
49453W        W92506  32.758   8.087  23.500 -0.0895 -0.0403 -0.1729
49454W        W92507   7.760   4.132   2.114  0.0112  0.0268 -0.1489
49455W        W92508  21.730   8.676  22.932  0.0971  0.0941  0.2699
49456W        W92509  33.423   2.590   2.469 -0.2539  0.0380 -0.0924
49457W        W92510  12.289  24.261  25.299  0.1664 -0.1650  0.2467
49458W        W92511  28.064   4.389  22.785 -0.1374 -0.1547  0.4962
49459W        W92512   6.757  23.004  28.673  0.0464  0.2211 -0.0332
49460W        W92513  33.729  14.988  26.410  0.0773 -0.0377 -0.0229
49461W        W92514  20.762  21.396   4.392 -0.0829  0.2244 -0.0288
49462W        W92515   1.790  19.691  20.314  0.2125 -0.0275 -0.0951
49463W        W92516  22.506   1.584   1.136  0.1281 -0.3270 -0.1089
49464W        W92517  33.924  12.213   9.440 -0.1170  0.2590  0.0601
49465W        W92518   0.113  28.107  16.354 -0.0758  0.0781  0.0894
49466W        W92519  11.583  24.032  17.469 -0.3300 -0.1291 -0.0052
49467W        W92520  16.661   6.192   4.836 -0.1245 -0.1822 -0.0956
49468W        W92521   2.517   8.448   4.378  0.0517  0.0347  0.0566
49469W        W92522   0.747  25.706   2.215 -0.1864  0.2242 -0.0361
49470W        W92523  32.618  14.447  17.946  0.0408  0.2324  0.2167
49471W        W92524   2.050   9.837  15.214  0.1853 -0.1322  0.0566
49472W        W92525  25.052  11.360   2.363  0.1752 -0.0527  0.1801
49473W        W92526  34.279  26.464  15.495 -0.0446  0.2333 -0.0322
49474W        W92527  33.322  10.019  15.352  0.2494 -0.0713 -0.0250
49475W        W92528   7.310  16.430  15.796 -0.2068 -0.0379 -0.2092
49476W        W92529   4.489  13.567  17.698 -0.0396  0.1448 -0.1759
49477W        W92530  28.484   1.475  14.933 -0.2721 -0.1512 -0.3231
49478W        W92531  27.686  25.868  16.701  0.0964  0.1204  0.0572
49479W        W92532   6.251  19.061   4.195  0.2270 -0.3317  0.3405
49480W        W92533   0.630  14.906  18.391  0.0794 -0.2477 -0.1740
49481W        W92534   4.315   8.940  18.001  0.0412 -0.1241  0.0045
49482W        W92535   7.737  31.560  20.432  0.2622  0.0960  0.0990
49483W        W92536  30.815   8.649  28.559  0.1198  0.2265 -0.1313
49484W        W92537  29.776  27.835  16.280 -0.0058  0.1390  0.1905
49485W        W92538  21.334   8.277  19.293 -0.1386 -0.2829  0.5968
49486W        W92539  34.449  17.633  17.982 -0.1613 -0.0980 -0.2309
49487W        W92540  13.772   3.344   0.897 -0.2966 -0.0900 -0.1424
49488W        W92541  17.121   8.764  16.943  0.0186  0.4135  0.0363
49489W        W92542  33.601  10.751  17.854 -0.2547  0.0644  0.0766
49490W        W92543   9.790   3.876   2.768  0.5705  0.1999 -0.2731
49491W        W92544  30.804  14.517   1.515 -0.2099 -0.0568  0.0140
49492W        W92545   8.202  16.592   6.823  0.0061  0.1921  0.0912
49493W        W92546   3.684   5.353  14.951 -0.2306 -0.1788 -0.4908
49494W        W92547  30.840  19.293  28.201  0.2840  0.0837 -0.0416
49495W        W92548  31.098   8.315   8.489  0.0242 -0.0192 -0.4456
49496W        W92549  25.894  33.773  28.686 -0.2818  0.1911  0.0270
49497W        W92550  32.407  33.317  20.976  0.1710  0.1442 -0.1425
49498W        W92551  30.095   7.704  23.788  0.1493 -0.0042 -0.0235
49499W        W92552  32.847  24.202  19.386  0.2357 -0.3928 -0.2436
49500W        W92553   8.563  16.077  28.254 -0.0113  0.0380  0.1159
49501W        W92554  10.941  27.528  26.430  0.0692  0.0567 -0.0181
49502W        W92555  16.589  33.546  21.420  0.2812 -0.2182  0.1006
49503W        W92556  21.726   5.461   9.192 -0.0988 -0.0475 -0.1783
49504W        W92557   3.414  19.098  16.489  0.0775  0.1422 -0.2425
49505W        W92558  29.655  17.216  14.242  0.0735  0.0608 -0.0300
49506W        W92559   3.054   5.458   5.035  0.1883 -0.5673  0.2105
49507W        W92560  18.715  13.836  26.735  0.0915  0.4291  0.1679
49508W        W92561   5.037  23.490  25.950 -0.0085 -0.2654  0.1043
49509W        W92562  20.956  13.009   3.991  0.2805 -0.1528 -0.0521
49510W        W92563  26.417  20.992   8.746 -0.2134 -0.0570 -0.1112
49511W        W92564   7.337  12.078  21.235 -0.1616  0.1467 -0.1009
49512W        W92565  12.833   9.147  24.088 -0.1649  0.0024  0.2447
49513W        W92566  25.868   1.049   0.813  0.1548  0.1816  0.1010
49514W        W92567  34.049  16.769  19.517  0.1285  0.2066  0.0294
49515W        W92568  31.600  15.725  16.841  0.0523 -0.1312 -0.1401
49516W        W92569   2.203  15.091  25.406  0.0020 -0.5308  0.1385
49517W        W92570  19.586   5.759   0.404 -0.0396  0.0612 -0.0914
49518W        W92571   2.213  24.512  25.255 -0.0707  0.0692  0.3265
49519W        W92572  10.307  16.180  28.230  0.0538 -0.1713 -0.2545
49520W        W92573   3.470   9.862   6.002 -0.0983 -0.0152  0.2776
49521W        W92574  31.822  12.958   7.290 -0.0739 -0.0391 -0.0357
49522W        W92575  30.696   1.467   0.518  0.1485  0.0275  0.2329
49523W        W92576  29.581   9.205   1.423  0.2583 -0.1514 -0.0309
49524W        W92577   2.870  13.327   4.768  0.0258  0.1595  0.1515
49525W        W92578  13.067  18.109  20.838  0.2108 -0.0033  0.1734
49526W        W92579  28.089   7.017  24.741 -0.1199 -0.0017  0.3967
49527W        W92580  25.166   0.376  27.051 -0.1662 -0.2967  0.1125
49528W        W92581   3.913   7.064  26.873  0.1455 -0.2033 -0.2282
49529W        W92582  29.036   7.653   2.829  0.1183 -0.0215 -0.1943
49530W        W92583  25.971  20.780  15.940  0.0368 -0.1268  0.2669
49531W        W92584  25.780  25.541  25.371 -0.2173  0.1129 -0.1993
49532W        W92585  24.152  10.292  27.787 -0.0407  0.0389  0.2943
49533W        W92586  14.570  12.097  21.163 -0.1287 -0.0349  0.1455
49534W        W92587   4.412   6.699  21.470 -0.0997 -0.1010 -0.0299
49535W        W92588   9.267  17.133  19.596  0.0215 -0.1027  0.3464
49536W        W92589  28.182   5.446  23.589  0.1630 -0.0880 -0.0610
49537W        W92590  32.077  15.250  15.137 -0.2306 -0.5207  0.3938
49538W        W92591  21.592   2.153   8.429  0.0488 -0.0382  0.0137
49539W        W92592  25.080  12.564  18.637 -0.1495  0.0992  0.1616
49540W        W92593   0.633  16.776   2.789 -0.4916 -0.0293 -0.4396
49541W        W92594  24.791  11.358  21.855 -0.2957  0.1450 -0.2925
49542W        W92595  31.878   7.947   9.544 -0.1171  0.1044 -0.0699
49543W        W92596   2.088  24.341  27.313 -0.2555  0.2259 -0.1370
49544W        W92597   6.761  20.715  26.400  0.0340 -0.0364  0.1274
49545W        W92598   1.199  28.746   8.089  0.2323 -0.0527  0.4391
49546W        W92599  13.000  19.628  24.875 -0.0789  0.0049 -0.3800
49547W        W92600   2.051   7.522   4.244  0.1749  0.1441 -0.1090
49548W        W92601  34.368  29.032  19.830 -0.0026  0.0215 -0.0321
49549W        W92602  20.243  10.572  27.520  0.2367 -0.0716 -0.0658
49550W        W92603  24.315  18.834   8.573 -0.1026  0.0107  0.3219
49551W        W92604  10.718  24.628  16.809 -0.3478  0.0798  0.0965
49552W        W92605  19.999  24.204  26.418  0.0141  0.2055 -0.0397
49553W        W92606  23.025  26.280   2.799  0.0220 -0.0891 -0.1317
49554W        W92607  29.697  23.638  24.635 -0.0015 -0.0026 -0.2490
49555W        W92608   7.981  19.157  27.368  0.1653  0.0820 -0.1425
49556W        W92609  30.617  20.375  22.824 -0.0017  0.3778 -0.0081
49557W        W92610  21.165  13.601  13.694 -0.0045  0.1181  0.1365
49558W        W92611   1.031  14.831  18.090 -0.0770  0.2900  0.4734
49559W        W92612  11.914   7.305   6.555 -0.1877 -0.2422 -0.0556
49560W        W92613  17.635  30.960   6.042  0.0109 -0.1224  0.0199
49561W        W92614  31.967  21.274  23.551 -0.2038 -0.2297  0.2482
49562W        W92615   0.976  17.769   7.810 -0.0867 -0.1360 -0.0667
49563W        W92616   5.961  20.730  21.411 -0.0989 -0.0825 -0.0322
49564W        W92617  10.894  10.505   4.117 -0.1530 -0.1694 -0.0943
49565W        W92618  20.456  21.773   9.922  0.0016  0.2466  0.4043
49566W        W92619  26.884  26.876  17.564  0.0135 -0.3742  0.3686
49567W        W92620  16.991  24.592  20.051  0.1095  0.4133  0.1296
49568W        W92621  10.446   2.838  28.238  0.2621  0.1330  0.0331
49569W        W92622  32.241  12.014  16.135 -0.3354 -0.1266  0.0586
49570W        W92623  31.078  23.208   0.873  0.3889  0.1318 -0.0302
49571W        W92624   6.965  17.419  21.642 -0.1321  0.1410  0.2282
49572W        W92625  11.404   3.932   5.380  0.1287  0.1641 -0.0641
49573W        W92626   1.466  14.363  28.576 -0.1982 -0.2191  0.1240
49574W        W92627   1.854  15.735   7.970  0.1522  0.2282  0.0334
49575W        W92628   2.844  29.101   2.995  0.0136  0.3720  0.0614
49576W        W92629   0.932  10.826  20.058  0.0718  0.2277 -0.3140
49577W        W92630   6.423  15.503  23.482 -0.1768  0.3187 -0.1963
49578W        W92631  21.251   5.014  24.625 -0.1839 -0.1786  0.0524
49579W        W92632  32.416  18.399  28.447  0.2518 -0.1256 -0.0460
49580W        W92633   0.108   7.354  25.271  0.1262 -0.0953 -0.2171
49581W        W92634   2.030  30.226   4.728  0.6401 -0.0581  0.0766
49582W        W92635  25.684  26.748   4.508 -0.1326 -0.2276  0.2019
49583W        W92636  29.003   5.088  17.430 -0.0606 -0.1989  0.0061
49584W        W92637   5.530  13.866  27.018  0.1097  0.1966 -0.2681
49585W        W92638  24.423  16.327  16.823  0.0509 -0.1490 -0.1978
49586W        W92639  26.354  23.959   8.768 -0.1716  0.0984 -0.2550
49587W        W92640  30.866  19.665   2.623  0.3577  0.0166  0.1929
49588W        W92641  29.586   4.981   9.655  0.0058  0.1484  0.3514
49589W        W92642  24.325   4.361  27.800  0.0300 -0.3553  0.1358
49590W        W92643   0.065  11.245   2.424  0.1277  0.0279 -0.2168
49591W        W92644  30.209   3.076  16.558  0.1875  0.1678  0.0994
49592W        W92645   2.305  13.966   8.062  0.0664 -0.3102 -0.0287
49593W        W92646   3.827  14.727  27.089 -0.0338  0.1624  0.0578
49594W        W92647  32.498   0.130  18.969  0.1337 -0.2128 -0.0826
49595W        W92648   9.507  13.601   0.412  0.1505 -0.3940  0.1450
49596W        W92649  27.732   5.714  16.160  0.0492  0.2384  0.0377
49597W        W92650  20.735  14.060  16.239 -0.0938  0.0592  0.0517
49598W        W92651  20.947  18.242  22.241 -0.2764 -0.3788 -0.5644
49599W        W92652  19.792   8.448   6.920  0.0356  0.1889 -0.3156
49600W        W92653   9.693   5.957  28.628 -0.1270 -0.2520  0.3055
49601W        W92654  31.146  16.970  16.482 -0.3241 -0.2114 -0.3071
49602W        W92655  27.480  25.875  25.722 -0.0250  0.3801  0.2683
49603W        W92656   4.002  15.158  14.144  0.0361 -0.1034  0.0460
49604W        W92657  34.543  22.272   0.619 -0.0177  0.2593 -0.1271
49605W        W92658  20.410  30.275   4.439  0.1056 -0.1861  0.2562
49606W        W92659   4.254  21.217  24.628  0.0072  0.1186 -0.3029
49607W        W92660   2.832   6.527   0.219 -0.1853 -0.0259 -0.1165
49608W        W92661  28.126   9.024  14.605 -0.0646  0.0769 -0.1960
49609W        W92662  31.372  24.176  20.810  0.1321  0.0568  0.1655
49610W        W92663   1.992  23.620   3.291 -0.2214  0.1157  0.1652
49611W        W92664   7.404  15.799  21.943  0.0600  0.2340  0.2880
49612W        W92665   6.783  13.317  20.393 -0.1980 -0.1139 -0.1891
49613W        W92666   8.608   8.393  21.538 -0.0350  0.2145 -0.1768
49614W        W92667  15.193   8.563   7.379  0.0046  0.0323  0.0461
49615W        W92668   3.238  19.352  23.103 -0.0896 -0.1003 -0.0755
49616W        W92669  33.149  23.036  25.900  0.0663  0.2286  0.3924
49617W        W92670  17.160   4.572   3.914  0.0529 -0.0136  0.1224
49618W        W92671  26.455   2.639   5.049  0.3286  0.3607  0.1478
49619W        W92672  12.441  30.054  27.743 -0.0692  0.0535 -0.2945
49620W        W92673   7.205  17.417  16.668 -0.1490  0.0515 -0.1326
49621W        W92674  27.359   9.812  22.542 -0.0026 -0.0012 -0.1492
49622W        W92675   7.013  33.678   3.874 -0.1886  0.0043 -0.1196
49623W        W92676   2.775   8.332   6.091  0.2048 -0.1505  0.1582
49624W        W92677   3.602  21.875  23.385  0.4855  0.1175  0.1304
49625W        W92678   2.468  18.769  27.778 -0.3965  0.3075  0.1683
49626W        W92679  27.080   7.134   3.566 -0.3100 -0.0906  0.1532
49627W        W92680  25.470  33.972  28.890 -0.1929  0.0792 -0.0832
49628W        W92681  15.682   9.098   6.306 -0.0227  0.0526  0.1608
49629W        W92682  30.566   0.976  23.729  0.0584 -0.1598  0.1018
49630W        W92683  32.688  25.796  16.919  0.0254 -0.1737 -0.3232
49631W        W92684  11.600   6.630  29.180 -0.0309 -0.4759  0.1400
49632W        W92685  23.717  33.432  25.944 -0.1076  0.3158 -0.1160
49633W        W92686  24.056   5.526  20.131  0.1126 -0.2591 -0.2942
49634W        W92687  19.922  13.954  23.293 -0.0621  0.1480  0.0892
49635W        W92688  31.605   2.579   4.535  0.3105 -0.3864  0.3651
49636W        W92689   8.794  31.165   9.137 -0.2780 -0.1347 -0.2457
49637W        W92690   5.746  34.344   2.807  0.0028  0.1334  0.1162
49638W        W92691  22.038   5.626  25.276  0.2811 -0.2012  0.0390
49639W        W92692   7.355  12.638  19.230  0.0590  0.2229 -0.2553
49640W        W92693  29.530  10.026   6.288 -0.3056  0.1108 -0.0417
49641W        W92694  25.960  13.320   2.252  0.1870 -0.2203  0.1993
49642W        W92695   2.046  15.341  10.445 -0.0162 -0.1265  0.0699
49643W        W92696   4.846  25.635  25.219 -0.0645  0.0591  0.2173
49644W        W92697  33.911  18.420   9.620  0.3622  0.1252 -0.3331
49645W        W92698   4.281  11.697  19.943  0.0893  0.1133  0.2484
49646W        W92699  13.923   6.971  18.925 -0.1686  0.0290 -0.3736
49647W        W92700  26.023  23.439   1.917  0.3441 -0.1216  0.4135
49648W        W92701  10.836  24.054  20.663  0.2015 -0.3308 -0.0202
49649W        W92702  14.675  11.116  23.326  0.2570  0.0742  0.1373
49650W        W92703  30.658   9.271  18.805  0.0316 -0.0730 -0.2352
49651W        W92704  27.314  25.356  15.554 -0.1629  0.1656  0.0655
49652W        W92705  25.796  27.633   8.381 -0.0087  0.5199  0.0012
49653W        W92706  12.006  11.330  23.933  0.0509  0.1131  0.0084
49654W        W92707  33.648  19.429  25.730 -0.0420  0.0244  0.0305
49655W        W92708  28.213  20.267  25.765 -0.5663 -0.3337 -0.0735
49656W        W92709  28.377  23.978  28.401  0.2323  0.1490 -0.3140
49657W        W92710  18.528  12.716   4.251  0.1878  0.3651  0.1475
49658W        W92711   9.541   8.570   2.786  0.0856 -0.0641  0.1311
49659W        W92712   7.798   4.104   3.087  0.2155 -0.2719  0.1810
49660W        W92713  24.890  10.874  22.907  0.0599  0.2984  0.1897
49661W        W92714   0.387  23.481  21.389  0.0730  0.2325  0.2185
49662W        W92715   5.164  11.942   2.428 -0.1573 -0.2957  0.1141
49663W        W92716  23.872  24.884   8.013 -0.1038 -0.1458  0.1862
49664W        W92717  11.424  21.156  17.464  0.1431  0.2240  0.1441
49665W        W92718   1.878  14.625   9.760  0.2893  0.1554 -0.0457
49666W        W92719  14.329  27.533  26.263  0.0692 -0.0536  0.0445
49667W        W92720   0.996  30.840   7.167  0.3760  0.0228 -0.0196
49668W        W92721  31.482  26.640  13.782 -0.1192  0.0226 -0.0694
49669W        W92722  33.240   7.679  14.768  0.0558 -0.2092  0.0357
49670W        W92723  26.324  15.090  18.854 -0.0254  0.1914 -0.0119
49671W        W92724  14.416  31.911  26.481  0.0480 -0.0965  0.0222
49672W        W92725   6.904   4.224  25.630  0.0576 -0.2488 -0.0574
49673W        W92726  12.826  13.238   3.255  0.2918 -0.2190 -0.0086
49674W        W92727  16.333  25.228   2.410  0.1166  0.0397 -0.1286
49675W        W92728  32.909   9.753   3.571 -0.2515 -0.0597 -0.1797
49676W        W92729   3.156  11.661  22.320  0.3040  0.3386  0.0407
49677W        W92730  12.114  21.009  20.917  0.0088  0.0247  0.0340
49678W        W92731   0.938   1.777  28.797  0.0435 -0.2229 -0.1895
49679W        W92732   2.844  12.450  23.474 -0.1130 -0.2504 -0.1499
49680W        W92733  32.330   8.950   7.933 -0.0099  0.1532  0.1973
49681W        W92734  30.616   5.341  26.123  0.3120  0.1026 -0.2605
49682W        W92735   9.635  10.714  10.360  0.5737  0.0801 -0.1708
49683W        W92736  32.339   7.512  18.758  0.0046  0.3189  0.0794
49684W        W92737  26.393  33.028  27.888 -0.0930  0.0214  0.0441
49685W        W92738  26.809  11.982  24.327 -0.3135 -0.1137 -0.0558
49686W        W92739  30.294   8.926  24.801 -0.0935  0.2762  0.1120
49687W        W92740  33.419   9.640  18.259  0.2540  0.2752 -0.0597
49688W        W92741  30.220  23.931  14.546 -0.1442 -0.3003  0.2622
49689W        W92742   2.403  19.696  18.218  0.0231 -0.0982 -0.0037
49690W        W92743  32.816  10.209  15.262  0.1752 -0.0768  0.0786
49691W        W92744   3.514   9.107  26.690 -0.1036 -0.0846 -0.0315
49692W        W92745  30.461   0.804  22.383  0.1266  0.1018  0.2873
49693W        W92746   3.630  10.793   3.453 -0.0442  0.3847 -0.0503
49694W        W92747   3.171   8.214   6.627 -0.0188  0.0923  0.1751
49695W        W92748   1.791  11.161  20.232  0.0293  0.0683 -0.0393
49696W        W92749   1.898  24.859   7.361 -0.2092  0.1448  0.1769
49697W        W92750   1.102  14.659   9.187  0.1599  0.2003 -0.0629
49698W        W92751  16.280  16.284   4.908 -0.0547 -0.2627  0.1768
49699W        W92752  10.235  23.784  24.126  0.0491  0.1522  0.0129
49700W        W92753   3.570  20.768   8.378 -0.2570 -0.2722  0.0535
49701W        W92754  32.859  17.664   0.847 -0.3414  0.2021  0.1170
49702W        W92755  12.431  18.786  22.186 -0.1210 -0.0269  0.3615
49703W        W92756  33.474  13.838  18.133 -0.1070  0.0099 -0.1840
49704W        W92757  34.564  33.089  20.649 -0.2469  0.0641  0.0846
49705W        W92758   6.635   7.418  19.822  0.0035  0.0478  0.1232
49706W        W92759   7.420   9.206  26.117 -0.2742 -0.2233 -0.0403
49707W        W92760  34.568  11.502   6.184 -0.2514 -0.4381 -0.1202
49708W        W92761   2.024   9.920  16.378 -0.3184 -0.1594  0.0977
49709W        W92762  19.228  21.777  18.473  0.0872 -0.0119  0.0162
49710W        W92763  34.419  13.552   9.060  0.0410 -0.2386 -0.3189
49711W        W92764  30.179  10.806  19.818  0.0170  0.2617 -0.0464
49712W        W92765  31.896  33.562   6.574 -0.3367  0.0735  0.0850
49713W        W92766   1.509  18.875   5.095 -0.0241 -0.0928  0.0675
49714W        W92767  32.858   2.858   6.155  0.0522 -0.0994  0.2207
49715W        W92768  21.628   3.531  19.236  0.1126 -0.0277 -0.1681
49716W        W92769  22.570  13.470  19.260  0.0376  0.0357 -0.2723
49717W        W92770  22.045  32.220  24.061  0.4278  0.4284  0.2439
49718W        W92771  34.658  10.813  18.479  0.0908  0.1886  0.0688
49719W        W92772  26.548  16.223  21.744 -0.0877 -0.0595 -0.3297
49720W        W92773   7.769  33.777   3.271 -0.0873  0.1184  0.3775
49721W        W92774   4.413  11.959  23.391  0.0515  0.4179  0.0072
49722W        W92775  21.796   8.723  24.816  0.0138  0.0209  0.4133
49723W        W92776  34.013  33.747  26.434  0.1827  0.0820  0.1030
49724W        W92777  11.582  32.031  21.924  0.2860 -0.1647 -0.1377
49725W        W92778  34.631  25.111  25.414 -0.0985  0.0969  0.1901
49726W        W92779  34.551  15.829  25.777  0.3348  0.0417  0.0858
49727W        W92780  28.804   8.275  22.822  0.1999  0.1171  0.1159
49728W        W92781  24.317  32.128  16.738 -0.4416  0.0295  0.0876
49729W        W92782  31.998  25.265   4.794  0.2232  0.0993 -0.2127
49730W        W92783  24.378   0.659   6.435 -0.1586  0.2198 -0.1020
49731W        W92784  28.915  27.066  19.137  0.0051 -0.3454 -0.0750
49732W        W92785  30.100  30.445   8.323 -0.0349  0.1400  0.2757
49733W        W92786  10.960  27.426  15.177  0.4778 -0.0787  0.0742
49734W        W92787  13.832   8.987  15.380  0.0588 -0.0013 -0.2224
49735W        W92788  32.999  10.263  23.230  0.0036  0.1729 -0.0080
49736W        W92789   8.563  13.317   6.362  0.0248 -0.1334  0.1915
49737W        W92790  22.434   8.984   9.396  0.0406 -0.1635  0.2376
49738W        W92791  33.446  16.554  28.648 -0.3597 -0.2868 -0.2339
49739W        W92792  30.262  11.695   2.018 -0.0429 -0.1157 -0.3081
49740W        W92793  27.360  14.193  28.123  0.2169  0.0455  0.1093
49741W        W92794  25.599  20.017  20.610  0.0541 -0.1565 -0.2206
49742W        W92795  23.808   5.407  14.137  0.0662  0.0971 -0.1501
49743W        W92796  33.804  16.636  23.515 -0.0874  0.1096  0.1041
49744W        W92797  23.166  24.821  22.907 -0.0222  0.2437  0.0048
49745W        W92798   5.783   9.102   0.175  0.4347  0.0820  0.0215
49746W        W92799  21.507  31.820  26.486  0.3663  0.1509 -0.2167
49747W        W92800   9.676  11.734   6.956  0.3082  0.0971  0.0107
49748W        W92801   6.359  27.197  23.091  0.0997 -0.1412 -0.1185
49749W        W92802  30.294  10.549   7.468  0.0546  0.0177 -0.5177
49750W        W92803  13.790   2.345   5.409  0.0186  0.2527  0.2238
49751W        W92804  11.369  12.396  23.379 -0.2118  0.2334 -0.0251
49752W        W92805  34.372  11.662   3.616 -0.3294  0.1341  0.3306
49753W        W92806  30.605  16.340   3.075 -0.0848 -0.1287  0.1557
49754W        W92807  33.177  28.532   4.409  0.2951  0.1582 -0.0398
49755W        W92808  29.327  27.035   1.091  0.1451 -0.1227  0.0937
49756W        W92809  23.100  16.266  20.299 -0.0753 -0.3847  0.1070
49757W        W92810   2.430   3.999   2.214  0.3295  0.0615  0.1173
49758W        W92811   4.995   2.347  25.643 -0.2401 -0.0605  0.0624
49759W        W92812  33.645   6.380   6.853  0.2356  0.0594  0.1302
49760W        W92813  28.240  17.471   8.150  0.3086 -0.1253 -0.1515
49761W        W92814  16.600  15.432   6.249 -0.4106 -0.1392  0.3948
49762W        W92815  32.321  20.939  24.438 -0.0885 -0.2561 -0.2191
49763W        W92816  31.935   9.333   7.890 -0.0111  0.1185 -0.1695
49764W        W92817  21.936  24.886  20.476  0.1928  0.1798 -0.2719
49765W        W92818  29.801   4.688  25.207  0.0579 -0.1366  0.0106
49766W        W92819  24.828   9.553   3.632 -0.2749  0.0487 -0.2456
49767W        W92820   9.810   5.438  25.466  0.0389 -0.2138 -0.1108
49768W        W92821  11.955  24.718  21.116 -0.1629 -0.1584  0.0350
49769W        W92822   6.783  22.239  17.371 -0.0370 -0.1026  0.0462
49770W        W92823   0.842  17.163  28.271 -0.1600 -0.2326 -0.1997
49771W        W92824   2.374  11.294   0.774 -0.2152  0.0914  0.1612
49772W        W92825  10.403  33.816   0.484  0.0682 -0.1744  0.2122
49773W        W92826  20.921  12.882   1.336 -0.2028  0.5238 -0.0984
49774W        W92827   5.328   8.823   0.443  0.0539 -0.0752 -0.2822
49775W        W92828  26.903  27.439  22.705  0.2736 -0.0734 -0.2490
49776W        W92829   2.873   9.826  16.480  0.2078 -0.4398  0.2966
49777W        W92830  20.096  16.136   6.322 -0.2325 -0.1275  0.0395
49778W        W92831  30.145  11.193   5.671 -0.0858  0.3594  0.0935
49779W        W92832   4.389  28.426  24.522 -0.1440  0.1866 -0.3004
49780W        W92833   2.031  17.128  23.137  0.0808  0.1821  0.0813
49781W        W92834  31.433  10.755  23.646  0.3542  0.0471 -0.0322
49782W        W92835   0.742  18.717  25.158 -0.1195  0.3009  0.0002
49783W        W92836  28.444  19.360  21.262  0.1493 -0.0424 -0.3897
49784W        W92837   8.499  15.877  19.787  0.0975 -0.0940 -0.0254
49785W        W92838  29.332   8.363  21.524 -0.0002  0.0969 -0.2586
49786W        W92839  32.329  12.084  19.424  0.0796 -0.4387  0.0258
49787W        W92840  31.158  19.521  18.103 -0.0656 -0.2523  0.0490
49788W        W92841  18.374   0.947  14.317 -0.1114 -0.0099 -0.2306
49789W        W92842   0.406  17.419   8.963  0.4480 -0.0956  0.1604
49790W        W92843   3.699  21.221  24.152  0.2184 -0.1211 -0.0278
49791W        W92844   3.630  12.088   7.719  0.1656 -0.0683  0.0645
49792W        W92845  11.655   4.802  25.070  0.0961  0.1695 -0.1049
49793W        W92846  30.015  18.558  28.563  0.1535 -0.0379  0.1584
49794W        W92847  30.899  11.422  15.616  0.0443 -0.4745  0.0862
49795W        W92848  17.549  25.085  28.948  0.0657  0.1931  0.1119
49796W        W92849  16.968  26.342  19.793 -0.0287 -0.0208  0.1818
49797W        W92850   1.538  23.969  13.997 -0.2660  0.0565  0.0939
49798W        W92851  28.351  23.698  14.957 -0.3338  0.1569 -0.0434
49799W        W92852   1.199  10.839   9.521 -0.1540 -0.0615 -0.0562
49800W        W92853   1.465  17.532  25.500  0.1368 -0.0238 -0.1848
49801W        W92854   4.051   8.071  25.147  0.0199  0.2083 -0.1398
49802W        W92855   2.042  15.929  22.896 -0.0964 -0.3241  0.0290
49803W        W92856   0.347  22.577  19.294  0.2775 -0.2262 -0.2735
49804W        W92857  18.582  25.439   1.549  0.0860 -0.0059  0.0848
49805W        W92858  17.753   7.807  20.087  0.1176 -0.1592 -0.0651
49806W        W92859  33.694  14.900  22.734  0.2592 -0.0820 -0.0385
49807W        W92860  34.522   7.882  19.583  0.0879 -0.0716  0.0497
49808W        W92861   5.110   8.007  25.168  0.0523  0.0104 -0.0927
49809W        W92862  13.819  13.560  16.494  0.1853 -0.2593 -0.1992
49810W        W92863  27.137   1.420  19.385 -0.0795 -0.0569 -0.1393
49811W        W92864  21.752  11.085  17.439 -0.1457 -0.0693 -0.3480
49812W        W92865  20.806  28.865   6.440 -0.2168 -0.0639 -0.0620
49813W        W92866  13.038  10.493  18.514 -0.1201  0.2727  0.0505
49814W        W92867   2.365  11.865  24.679 -0.0513 -0.0833 -0.0716
49815W        W92868  10.740  16.551  21.136  0.0434 -0.3316  0.0985
49816W        W92869  25.072  15.820  24.117  0.2014  0.0545 -0.0662
49817W        W92870   7.331  25.479  24.526 -0.2625  0.1518  0.1350
49818W        W92871  31.916  16.652  21.184 -0.2394 -0.0103  0.1103
49819W        W92872  29.342  13.361  27.252 -0.5562 -0.2911 -0.0728
49820W        W92873   3.338  24.112  26.963  0.1535 -0.0907 -0.0005
49821W        W92874  11.285   4.037  17.584  0.0381 -0.1679 -0.2256
49822W        W92875   6.963  26.283   0.255 -0.2226  0.1325 -0.5687
49823W        W92876  32.265  22.755  27.311  0.0257 -0.0724  0.3511
49824W        W92877  12.476   0.882   2.629  0.1942 -0.0161  0.0784
49825W        W92878  17.269   8.328  19.222  0.0428 -0.2711  0.0954
49826W        W92879  29.110  15.826  15.890 -0.2109 -0.0278 -0.1482
49827W        W92880  21.245  21.037  14.091 -0.0965  0.0364 -0.2124
49828W        W92881  11.636  13.164  15.691  0.0772  0.1079  0.2092
49829W        W92882  31.879  22.946  17.154 -0.0443 -0.3843  0.1663
49830W        W92883  29.865  10.409   0.663 -0.0267  0.2458 -0.2354
49831W        W92884  33.049  16.949  14.797  0.2812  0.3074  0.0184
49832W        W92885  25.223   8.667  14.400 -0.1509  0.2239 -0.0148
49833W        W92886   7.681  32.498   9.379 -0.1379  0.1448  0.2092
49834W        W92887  30.303  24.578   6.519  0.1597 -0.0645  0.2149
49835W        W92888  28.302  22.200  27.930  0.0789  0.0874  0.1725
49836W        W92889  14.176   7.127  24.503 -0.1433 -0.1743 -0.0799
49837W        W92890  30.537  22.244  18.385 -0.0049 -0.0284 -0.2753
49838W        W92891  19.289  18.080  27.805  0.0001 -0.0059 -0.0416
49839W        W92892  32.457  29.357  14.452 -0.1812  0.0565  0.0963
49840W        W92893   3.775   7.977  18.933  0.1458 -0.1123  0.1359
49841W        W92894  15.940   2.841  19.047  0.0986  0.1788  0.0348
49842W        W92895   1.016  15.589  14.038 -0.0434 -0.2205  0.1678
49843W        W92896  18.168  24.250  16.889 -0.1812 -0.0565  0.3982
49844W        W92897   5.449  32.549  13.231 -0.1274 -0.1094  0.1909
49845W        W92898   8.305  28.177  19.939  0.0497  0.1461  0.3026
49846W        W92899  22.938   4.201  18.814  0.0546  0.1265  0.1442
49847W        W92900  30.230  14.839  19.152 -0.2782  0.0755 -0.1510
49848W        W92901  11.529  18.068  16.031 -0.0716  0.2173  0.1387
49849W        W92902  28.192  16.483  28.380 -0.0606  0.0390  0.1561
49850W        W92903   2.018  18.945  13.761 -0.3325 -0.0662  0.1154
49851W        W92904   0.227  21.224  16.552 -0.1169  0.0981 -0.0369
49852W        W92905   1.682  13.045  23.177 -0.1192  0.1815 -0.2368
49853W        W92906  26.227  24.642  13.760 -0.2271  0.0576  0.0575
49854W        W92907   2.085  21.677   4.723 -0.0676  0.2350  0.1422
49855W        W92908  13.060  22.343  15.364 -0.2906  0.3729 -0.0907
49856W        W92909  21.313  23.364  18.404  0.1999  0.0407  0.0119
49857W        W92910   1.532   8.296  22.706 -0.1158  0.0187 -0.3151
49858W        W92911   0.930  26.113  19.999 -0.1899 -0.1457 -0.2098
49859W        W92912   7.073  20.177  16.467  0.2742 -0.2107 -0.1423
49860W        W92913  31.103   8.994  15.278 -0.1226  0.1343  0.1083
49861W        W92914   3.923  17.985  28.765  0.0795 -0.1401  0.0305
49862W        W92915  10.183   6.107   1.409  0.0633 -0.1282 -0.0044
49863W        W92916   9.696  30.320  20.634 -0.1166  0.1236 -0.0743
49864W        W92917  26.651  18.880  24.816  0.2206 -0.0509  0.0050
49865W        W92918  30.866  23.106  22.838  0.2204  0.3482 -0.4075
49866W        W92919   2.057   6.708  26.212  0.0094 -0.2583  0.1405
49867W        W92920  33.134  32.472  18.344 -0.2054  0.1376  0.0911
49868W        W92921   5.281   8.912  19.618  0.2791 -0.0495 -0.2671
49869W        W92922  28.816  30.855  15.142 -0.1875 -0.1572  0.1353
49870W        W92923  32.380  23.165  20.787  0.1323  0.3849 -0.0087
49871W        W92924  21.334  31.960  16.695  0.0188  0.0461 -0.0417
49872W        W92925  19.232  10.733  22.811  0.1825  0.3338 -0.3892
49873W        W92926  30.990  25.291  26.228 -0.2944  0.1164  0.2681
49874W        W92927  30.142  24.428  25.764 -0.0736  0.0100  0.0140
49875W        W92928   2.727   9.988   1.405  0.0007 -0.0776 -0.0097
49876W        W92929   7.039  18.854  20.747 -0.0159  0.2293  0.1811
49877W        W92930  11.597   8.103   0.703 -0.0609 -0.1873 -0.4046
49878W        W92931  25.638  20.667  18.158  0.0706  0.2234 -0.0769
49879W        W92932  33.231  19.871  23.622  0.0421 -0.3520 -0.3517
49880W        W92933   0.314  14.891  17.018  0.0205  0.1473 -0.2060
49881W        W92934   1.301   6.557  20.632 -0.0316 -0.0858 -0.0175
49882W        W92935  34.515  10.767  19.102 -0.0322  0.0937  0.1885
49883W        W92936   2.971  32.326  13.935 -0.0436  0.2630 -0.2912
49884W        W92937   9.291  19.245  16.656  0.0200 -0.3604 -0.0744
49885W        W92938   3.044  26.713  23.304 -0.0748 -0.1071  0.1689
49886W        W92939  26.475  13.323  25.667 -0.0930  0.2744  0.3183
49887W        W92940   5.421  17.743   3.209  0.1412  0.3798  0.1335
49888W        W92941  31.150  31.663  23.594 -0.2178  0.1373  0.1919
49889W        W92942   2.165  17.006  26.911 -0.2458 -0.1046  0.1023
49890W        W92943  11.126  15.367   1.916  0.0442 -0.1238  0.3450
49891W        W92944  30.493  15.118  24.432  0.0108 -0.0040 -0.4322
49892W        W92945  26.993  18.793   0.230  0.1464 -0.0216  0.0073
49893W        W92946   0.977  22.240  28.196  0.0728 -0.0256 -0.2089
49894W        W92947   1.587  31.068  18.608 -0.1176 -0.0546  0.4988
49895W        W92948  14.851  10.574  28.044 -0.0527 -0.2438  0.0837
49896W        W92949  10.247  21.994  15.056 -0.1033  0.0283 -0.0922
49897W        W92950   7.881   8.505   9.395 -0.1015  0.1415  0.1129
49898W        W92951  18.757   8.371  19.221  0.0151  0.2399 -0.3366
49899W        W92952  20.050   2.948  16.085 -0.0379  0.1797 -0.0511
49900W        W92953  19.440  27.759  24.211 -0.1026  0.0487  0.3512
49901W        W92954   4.119  25.015  24.535  0.0305 -0.1603  0.0194
49902W        W92955  32.187   5.402  21.518 -0.2564  0.1205  0.0655
49903W        W92956  33.321  10.892  16.003  0.1190 -0.1412  0.0974
49904W        W92957  34.163  17.802  14.108 -0.0836  0.1639  0.1302
49905W        W92958   1.575   9.513   7.927 -0.0088  0.1494  0.1532
49906W        W92959  30.554  12.281  15.060  0.0240 -0.2079 -0.0145
49907W        W92960   4.544  14.287  25.132 -0.0914 -0.1459 -0.0901
49908W        W92961   5.412  25.039  16.843 -0.0210  0.0165  0.2482
49909W        W92962  13.915  25.197   3.686  0.2804  0.1083  0.1689
49910W        W92963   3.805  10.351  26.497 -0.2473  0.2796 -0.0169
49911W        W92964  28.462  20.435  14.182  0.3578 -0.1823  0.1645
49912W        W92965  28.864  18.400  16.688  0.1057 -0.1220 -0.1749
49913W        W92966   5.886  17.460  24.190 -0.0039  0.3853 -0.2375
49914W        W92967   9.978  21.241  21.749  0.1200 -0.0635  0.2730
49915W        W92968  32.930   2.399  14.428  0.1333  0.0647 -0.0737
49916W        W92969  29.818   0.721  24.299 -0.0292 -0.0949 -0.0774
49917W        W92970  14.486  27.877  25.088  0.0408  0.0763  0.1728
49918W        W92971   2.613  12.017  14.584  0.0916 -0.2354 -0.1673
49919W        W92972  17.363   9.854  24.843 -0.1723 -0.0871  0.0555
49920W        W92973  30.438  23.453   2.874 -0.2113  0.0384  0.1327
49921W        W92974  34.521  22.812  24.866  0.0305  0.1536  0.1305
49922W        W92975   1.231   9.742  19.312 -0.0562  0.0447  0.0380
49923W        W92976  30.923  21.313  22.187  0.0199  0.2536  0.0892
49924W        W92977   0.894  17.971  14.001 -0.2031 -0.1333  0.0122
49925W        W92978  30.770  13.266  17.006 -0.1596 -0.0524 -0.1750
49926W        W92979  10.462  10.181   0.667  0.0435  0.1418  0.5325
49927W        W92980  33.667  27.558  14.033  0.0921  0.0017 -0.0862
49928W        W92981   2.819  11.234  19.024 -0.2354  0.1003  0.2447
49929W        W92982   9.619  21.785  22.667  0.0798 -0.2518  0.2671
49930W        W92983   4.188   6.103  17.151  0.0465  0.0311  0.0088
49931W        W92984  26.652   7.137  16.046  0.1174  0.1613 -0.0452
49932W        W92985  26.174  27.409  17.190  0.0081 -0.0292  0.0346
49933W        W92986   2.536  24.034  27.230  0.3740  0.2851  0.0170
49934W        W92987  21.237   2.433  26.014  0.1455 -0.3627  0.1809
49935W        W92988  31.710  32.228  19.377  0.0852  0.0992  0.1006
49936W        W92989  21.435  27.613  14.922 -0.0627  0.1620  0.1744
49937W        W92990  33.661  13.976  14.341  0.1304 -0.1290 -0.2372
49938W        W92991  31.488  27.970  19.867  0.0512  0.0810 -0.3146
49939W        W92992   3.243  22.836  17.679  0.0240  0.1644  0.0739
49940W        W92993   5.382  23.109  23.802  0.0096 -0.0149  0.0964
49941W        W92994  11.211   0.331  15.413  0.1744 -0.1579 -0.1365
49942W        W92995  34.142  23.902  13.246 -0.0451 -0.0902  0.2217
49943W        W92996   9.629  15.505  18.182 -0.0924  0.2454 -0.0457
49944W        W92997   0.873  16.789  16.237 -0.2420  0.0991 -0.0026
49945W        W92998  29.118  11.434  23.322  0.1060  0.5911 -0.0414
49946W        W92999  12.079  17.708  19.834 -0.0398 -0.1504 -0.1875
49947W        W93000  27.260   5.392  23.106 -0.2870  0.2048  0.2730
49948W        W93001   7.677  22.654  14.755 -0.0681  0.1110 -0.1312
49949W        W93002   8.528  15.301  26.070 -0.2660  0.0635 -0.2216
49950W        W93003  28.256  29.980  13.444 -0.1811  0.0255  0.1136
49951W        W93004  26.384   6.681  25.473  0.0619 -0.2386  0.0955
49952W        W93005  11.325  14.150   3.249 -0.2911  0.0203  0.1099
49953W        W93006  27.409  17.729  15.089  0.0724  0.0043  0.2008
49954W        W93007  32.341  13.022  18.263 -0.2258  0.0311 -0.1212
49955W        W93008  29.785  24.771  15.942  0.0914  0.2115 -0.0831
49956W        W93009   6.136  25.491  22.660 -0.4232  0.0972 -0.1930
49957W        W93010   7.272  12.605  15.253  0.3723  0.0943  0.0665
49958W        W93011  20.937  33.789  16.123  0.3340 -0.0173  0.3250
49959W        W93012  21.201   8.469   5.305  0.0063 -0.0193 -0.1754
49960W        W93013  19.610   9.968  25.745 -0.1765  0.0561  0.0579
49961W        W93014  24.455  23.249  22.118  0.1121 -0.0637 -0.1245
49962W        W93015  32.737  18.561   3.182  0.1221 -0.1491  0.0480
49963W        W93016  31.884   9.533   0.406  0.2116 -0.0207  0.0181
49964W        W93017   1.265   6.419  22.991 -0.0714 -0.0832 -0.0620
49965W        W93018   1.380  16.527  16.908 -0.0784 -0.0826  0.0757
49966W        W93019  26.415   4.968  17.400 -0.2319  0.0487 -0.0244
49967W        W93020  13.243  18.158  14.643  0.1302 -0.1603  0.0531
49968W        W93021  25.820  14.423  16.182  0.0396  0.0598 -0.1499
49969W        W93022  11.802  12.827  18.494  0.2253  0.0290 -0.2887
49970W        W93023   1.064  25.903  14.437 -0.0719 -0.3121 -0.1954
49971W        W93024   0.822  22.039  26.858 -0.4159  0.2684 -0.2625
49972W        W93025   1.976  12.701  16.590 -0.2250  0.3166  0.2159
49973W        W93026  26.691   6.588  28.239 -0.3453 -0.1866 -0.0785
49974W        W93027  30.568   2.793  14.973  0.0009 -0.0539  0.0150
49975W        W93028  31.822  32.241  26.114 -0.2420 -0.2363 -0.3457
49976W        W93029  30.110   8.715   1.128  0.0926 -0.4704 -0.1107
49977W        W93030   3.352  14.526  24.018  0.1354  0.3609 -0.1436
49978W        W93031  10.187   7.453   2.215 -0.0373 -0.1108 -0.2211
49979W        W93032  28.174   6.023  20.150  0.2232  0.1358  0.1985
49980W        W93033   0.760  15.732  25.403  0.0895  0.0661 -0.0636
49981W        W93034  33.606   7.154  21.773 -0.1418 -0.0804  0.2972
49982W        W93035   1.488   6.439   0.591  0.0771  0.0766  0.0640
49983W        W93036  27.625  34.256  16.905  0.2003 -0.3788  0.0777
49984W        W93037   4.964  30.387   5.093 -0.2517  0.1125 -0.1552
49985W        W93038  12.666  18.744  24.481 -0.2239 -0.2995  0.3190
49986W        W93039   6.408  24.401  17.254  0.1502 -0.0359 -0.1043
49987W        W93040  23.144   6.387  23.558 -0.0362  0.2490 -0.0479
49988W        W93041  30.514  17.450  29.067  0.0409  0.1636 -0.0791
49989W        W93042  27.249  12.860  15.746 -0.0821  0.0624  0.0583
49990W        W93043  28.713   2.465  18.182 -0.0388 -0.0251  0.1454
49991W        W93044  21.972  20.507  23.138  0.2678 -0.0536 -0.4307
49992W        W93045  32.448  32.392  17.499  0.0419 -0.4298  0.0651
49993W        W93046  33.008  27.161  25.335 -0.1849 -0.0853  0.3498
49994W        W93047  33.664  18.087  24.819 -0.0282 -0.2766  0.0725
49995W        W93048  15.575  22.156  17.105  0.1011 -0.0097 -0.1384
49996W        W93049   0.494  25.205  20.436 -0.3565  0.1834 -0.0866
49997W        W93050  29.400  22.666  17.413  0.1720 -0.2814  0.2872
49998W        W93051   1.956   1.703   1.850  0.0450  0.0053 -0.2704
49999W        W93052   9.931  24.461  16.400 -0.0651  0.2722  0.3117
50000W        W93053   9.955  15.110  15.715 -0.2066 -0.0334 -0.0654
50001W        W93054  11.386   0.245   4.074 -0.1682  0.1171  0.0109
50002W        W93055  13.129  18.315  15.133  0.0667  0.1708  0.0566
50003W        W93056  10.281  14.380  22.600  0.2260  0.0723  0.0982
50004W        W93057   2.487  15.280  28.447  0.0246 -0.1136  0.0775
50005W        W93058  22.466   3.321  27.233 -0.0300 -0.0938  0.2918
50006W        W93059  19.688  24.528  24.785 -0.1018  0.1349 -0.0561
50007W        W93060  24.055  20.228  21.155  0.2080 -0.3222 -0.1253
50008W        W93061   3.819  18.318  17.567  0.0609 -0.2659  0.1243
50009W        W93062   3.279  10.900  21.043 -0.0794 -0.2675  0.1936
50010W        W93063  25.468  16.419  26.637 -0.2786 -0.0806 -0.1864
50011W        W93064  30.528   4.568  16.162 -0.0896  0.0867 -0.1371
50012W        W93065   2.848  22.747  18.502 -0.1228  0.0136  0.0054
50013W        W93066  27.885  34.596  22.007 -0.1073  0.1302 -0.2113
50014W        W93067  10.458  21.476  18.052 -0.2901 -0.1643 -0.1350
50015W        W93068  12.999  27.697  17.407 -0.0286 -0.1394 -0.0433
50016W        W93069   1.407   5.756  14.584  0.3678  0.0045  0.0795
50017W        W93070   6.144  23.852   4.645  0.2277 -0.0612  0.0539
50018W        W93071  32.679  26.090  22.184 -0.4927 -0.3094 -0.1303
50019W        W93072  33.466  23.323  20.289  0.0974  0.1456  0.1999
50020W        W93073   4.378  13.700  14.712  0.0031  0.3556  0.2776
50021W        W93074   7.453  26.310   6.215  0.3209 -0.0892  0.0984
50022W        W93075   8.801  14.002  15.490 -0.2413  0.1970  0.1175
50023W        W93076   5.160  14.446   0.691  0.2146  0.1339 -0.0614
50024W        W93077  29.196  32.599  16.983 -0.0995  0.0126  0.2193
50025W        W93078  34.245  21.217  14.206  0.1451  0.2634  0.1464
50026W        W93079  15.463  15.467   2.652  0.2598 -0.1288 -0.0202
50027W        W93080   2.621  33.453   1.185  0.1007  0.0375  0.5426
50028W        W93081  31.855  32.915  24.453 -0.1174 -0.0337 -0.0610
50029W        W93082  29.693  14.334  19.960 -0.0993 -0.1791 -0.0431
50030W        W93083  24.405   7.364  16.880 -0.1372 -0.1363  0.3106
50031W        W93084  26.746  10.197  17.921 -0.3568  0.3589 -0.0092
50032W        W93085   9.660  28.380  22.073 -0.0204  0.0536  0.1132
50033W        W93086  31.852  22.831  22.802 -0.1433 -0.1247 -0.0939
50034W        W93087  11.249  30.155  17.024 -0.0236 -0.1304  0.0239
50035W        W93088  32.734  13.260  27.254 -0.3113  0.1090 -0.2510
50036W        W93089  16.285  12.033  15.711 -0.0207  0.3547  0.3019
50037W        W93090  20.568   2.712  17.492 -0.1158 -0.3114 -0.2771
50038W        W93091   4.698  15.222   7.740 -0.0752  0.0010  0.2533
50039W        W93092   0.163  14.199  17.809 -0.4267  0.3859 -0.2212
50040W        W93093  34.568  22.151  21.947  0.1510 -0.3333 -0.1536
50041W        W93094  26.812  12.047   0.884  0.3030  0.1285  0.0008
50042W        W93095  32.261  33.951  13.787 -0.0578 -0.0044 -0.0293
50043W        W93096  34.541   8.352  16.025  0.0321  0.0161  0.0075
50044W        W93097  32.704   9.096  23.727 -0.1372  0.0416 -0.0876
50045W        W93098  22.914  22.438  19.101  0.0927 -0.3090  0.3040
50046W        W93099  18.483   3.179  17.781 -0.0578  0.0541  0.2435
50047W        W93100   9.348  32.584  25.357 -0.1076  0.0509 -0.0579
50048W        W93101  20.187  29.904   2.054 -0.1075 -0.0453  0.1781
50049W        W93102  25.574  11.606  20.992 -0.1820  0.0503 -0.2294
50050W        W93103  19.727  22.260  15.139  0.0133  0.1439  0.1179
50051W        W93104   1.048  21.706  15.484  0.3245  0.0219 -0.1220
50052W        W93105   6.592  27.205  12.964 -0.0218 -0.1405 -0.0278
50053W        W93106   4.596  20.655  25.957 -0.0174 -0.1856 -0.0666
50054W        W93107  25.320  29.035  27.727 -0.2714 -0.2990  0.1079
50055W        W93108   2.571   0.851  19.423  0.0435 -0.0495  0.1720
50056W        W93109  14.923  22.682  16.024  0.1835 -0.1606 -0.3462
50057W        W93110   1.203  22.229  16.257  0.1421  0.0437 -0.0732
50058W        W93111  13.748   8.347  17.642  0.0161 -0.0607  0.0895
50059W        W93112   8.249   7.783   0.109 -0.4282  0.4426  0.0230
50060W        W93113  26.802  24.709  17.986 -0.1241  0.0869  0.1939
50061W        W93114   9.320  30.412  18.904 -0.1874 -0.2175  0.1058
50062W        W93115   4.221  12.561  22.519 -0.0690  0.1981 -0.0591
50063W        W93116  29.921  16.305  26.689  0.1118  0.2358 -0.0111
50064W        W93117   5.987  22.611  14.451 -0.4151 -0.2057 -0.1591
50065W        W93118   4.028  29.437  22.243 -0.1551 -0.1944  0.1764
50066W        W93119  32.787  25.440  16.489 -0.1064  0.0268  0.1406
50067W        W93120  13.531   6.045  21.806  0.0694 -0.1519  0.1498
50068W        W93121   1.423  24.372  14.984  0.0447  0.2244  0.1999
50069W        W93122  34.677  23.676  17.531  0.4209 -0.0814  0.0197
50070W        W93123   4.218  33.667  25.586  0.0609 -0.0913 -0.2386
50071W        W93124  29.542  27.065  13.824 -0.1905  0.1587 -0.0741
50072W        W93125  34.104   9.490  20.847  0.0788 -0.2288 -0.1399
50073W        W93126   8.546  24.237   1.423  0.0743  0.1738  0.1976
50074W        W93127   8.726  14.034  22.024 -0.0702 -0.0981  0.2775
50075W        W93128  30.459  29.249   8.347 -0.0595  0.2443 -0.0706
50076W        W93129   4.810  22.924  27.323 -0.0898  0.1523 -0.0739
50077W        W93130  33.421  17.768  21.689 -0.0035 -0.3722  0.0077
50078W        W93131  30.884  33.792  17.828  0.1026 -0.1106 -0.0131
50079W        W93132  19.109   9.861  27.404 -0.4144 -0.0827 -0.0450
50080W        W93133   5.551  19.202  28.551 -0.3914 -0.1432  0.4125
50081W        W93134   6.023   1.421  13.854  0.3065  0.0196  0.2078
50082W        W93135   0.740  18.821  18.698 -0.0247  0.0157  0.0100
50083W        W93136  14.897  11.510   7.511 -0.0457  0.0928 -0.1678
50084W        W93137   0.329  17.690  28.970  0.0876 -0.2772  0.0162
50085W        W93138   0.951  31.059  15.200  0.4552  0.3533  0.4360
50086W        W93139   6.115  24.471  26.594  0.0997 -0.0668 -0.1571
50087W        W93140  27.700  31.733  18.986  0.0513  0.1101 -0.1048
50088W        W93141  32.428   7.393  18.022  0.0337  0.4868  0.0286
50089W        W93142  33.360  27.497  28.990 -0.3587 -0.0366  0.1640
50090W        W93143  34.220  27.052  21.521  0.0475  0.0403  0.1768
50091W        W93144   4.876   2.770  15.163  0.0558 -0.0020  0.1815
50092W        W93145  18.481  21.614  21.817 -0.2488  0.2456  0.1407
50093W        W93146   4.776  13.714   3.126  0.1977  0.2749 -0.0905
50094W        W93147  19.529  16.038  25.864  0.2099 -0.1403 -0.0536
50095W        W93148  33.457  33.329  15.639 -0.1872 -0.1728  0.4148
50096W        W93149  33.637  29.080  27.088  0.0276 -0.1929  0.2673
50097W        W93150  31.031  26.627   1.966  0.2377 -0.3749 -0.3589
50098W        W93151   7.039  10.845  19.842 -0.2610 -0.0843  0.2491
50099W        W93152  30.257   8.140  19.223 -0.0341  0.0060 -0.1461
50100W        W93153  26.682  11.995  14.984 -0.0108 -0.4212 -0.0751
50101W        W93154  23.914  12.239  21.811  0.0989 -0.1771 -0.0442
50102W        W93155  10.474   7.168  25.993  0.1491 -0.2155 -0.1072
50103W        W93156   1.139   7.455   4.654 -0.1501 -0.0228  0.0787
50104W        W93157  26.835  28.251  29.157 -0.2842  0.0268  0.0912
50105W        W93158  29.855  15.094   6.195  0.0988  0.0781 -0.2922
50106W        W93159   9.492  12.277  23.806  0.0130 -0.0113 -0.0164
50107W        W93160   7.789  14.742   0.692 -0.0495 -0.0522 -0.1994
50108W        W93161  32.803  15.439  14.510  0.1641  0.0580  0.2677
50109W        W93162  14.956  22.491  24.999  0.1234 -0.3413 -0.2160
50110W        W93163   8.209  21.007  25.492  0.1309  0.0899 -0.1087
50111W        W93164   0.470   5.968  17.267 -0.3241  0.0086 -0.1269
50112W        W93165  34.452  10.903  22.108 -0.2410  0.0993 -0.0499
50113W        W93166  13.110  13.480  18.866 -0.1342  0.2066 -0.1128
50114W        W93167   8.077   4.083  25.505  0.0785 -0.1815  0.4731
50115W        W93168  34.101  32.661  23.617 -0.3740  0.0793 -0.1215
50116W        W93169  34.127  16.199  27.415 -0.0605  0.3162 -0.3453
50117W        W93170  32.605  12.429  14.624 -0.1822 -0.1522 -0.3150
50118W        W93171  18.216   9.796  24.635  0.1983  0.2058  0.1314
50119W        W93172  28.269   7.924   5.410  0.0021  0.1966  0.4089
50120W        W93173   1.027   6.796   3.480  0.0784 -0.2548 -0.0165
50121W        W93174  11.240  10.892  27.984 -0.0502 -0.1693  0.2853
50122W        W93175  34.520  12.046  21.584  0.2374 -0.0075 -0.2411
50123W        W93176   3.737  13.449  22.711  0.3424 -0.1675  0.1601
50124W        W93177  23.246  22.930  19.261  0.2147  0.1217  0.1000
50125W        W93178   7.232  33.845  17.298  0.1387  0.0620 -0.2649
50126W        W93179  14.443   6.446  28.470  0.0803 -0.0058  0.1278
50127W        W93180   2.846  21.791   3.336  0.1545 -0.2760  0.1001
50128W        W93181  31.289   1.676  28.499 -0.4205 -0.1782  0.1496
50129W        W93182   9.564   8.755  22.631 -0.2565 -0.0678 -0.0588
50130W        W93183   5.432  16.660  19.165 -0.3689 -0.1613 -0.1843
50131W        W93184   7.677  15.752  23.462  0.1630  0.1540  0.1667
50132W        W93185   4.440  13.664  13.744  0.2817 -0.2268 -0.0426
50133W        W93186   6.112  16.724  14.606 -0.0247  0.4222 -0.1312
50134W        W93187   9.826   0.190   0.329 -0.1891 -0.2483  0.1237
50135W        W93188  19.080   9.861  19.951 -0.1716  0.2228 -0.0404
50136W        W93189  28.777  24.809  22.480  0.0055  0.1551  0.0334
50137W        W93190  21.832  21.523  27.634  0.1217 -0.1906 -0.1401
50138W        W93191  30.146  24.556  17.776  0.2885  0.0010  0.3135
50139W        W93192   5.198  16.882   2.168 -0.0149  0.2050 -0.0439
50140W        W93193   1.053  29.090   7.661 -0.1811  0.2223 -0.2927
50141W        W93194  29.874  32.554  23.690  0.1451 -0.2317 -0.0510
50142W        W93195   1.089  33.372  26.217 -0.0762 -0.2157 -0.4315
50143W        W93196  21.235  26.931  25.239  0.1879  0.0549  0.1676
50144W        W93197   8.649   1.418  25.083  0.1306 -0.0502 -0.1273
50145W        W93198  29.421  29.731  26.854 -0.0963  0.2593  0.0164
50146W        W93199   9.341  17.871  22.559  0.1616  0.0933  0.3554
50147W        W93200  25.580  23.366  16.646  0.1594  0.2767 -0.0309
50148W        W93201  25.362  25.240  27.533  0.3567 -0.2328  0.0764
50149W        W93202  27.764   9.001   6.421  0.1279  0.1120  0.0865
50150W        W93203  14.043  30.875  17.949  0.2423  0.0547 -0.0083
50151W        W93204   1.274  18.227  17.033 -0.0812  0.1945 -0.2149
50152W        W93205  22.214  15.647  18.112  0.1269  0.0785  0.2848
50153W        W93206   9.569  21.629  17.660 -0.1087  0.0174 -0.1726
50154W        W93207  26.858   4.748  16.693  0.2742 -0.1343 -0.0407
50155W        W93208  30.231  27.024  14.844  0.2679  0.1226 -0.0497
50156W        W93209  31.340  34.051  17.712 -0.1992 -0.1685 -0.3905
50157W        W93210  13.745   1.208  25.557 -0.1003  0.1191  0.0868
50158W        W93211  10.386   7.030   9.058 -0.2068  0.2630 -0.3421
50159W        W93212   4.176  14.751  18.894 -0.1180 -0.1013 -0.2457
50160W        W93213  30.221   9.381  21.322 -0.0617  0.2976 -0.0718
50161W        W93214   3.675  21.215  28.750  0.0103 -0.1175 -0.0775
50162W        W93215   6.481  19.308  24.894  0.0113  0.2896  0.4507
50163W        W93216   8.185   6.819  23.447  0.2250  0.0371 -0.3422
50164W        W93217  28.764   0.629  15.857 -0.2733  0.3007 -0.0444
50165W        W93218  13.743   3.136  27.770  0.1641 -0.1045 -0.0208
50166W        W93219   3.644  24.529  21.026 -0.1918  0.2854 -0.1771
50167W        W93220  20.817  25.880   2.883 -0.3269 -0.0064  0.0270
50168W        W93221   1.288   7.936  14.400 -0.3203 -0.0808 -0.0469
50169W        W93222  26.896  14.679  15.199 -0.1698  0.0988 -0.1605
50170W        W93223  23.552  26.521  15.665  0.1195  0.0313 -0.4258
50171W        W93224  29.056  16.804  22.894  0.0633 -0.0351 -0.2152
50172W        W93225   4.440  27.858  24.055  0.0598  0.1446 -0.0031
50173W        W93226  18.947  20.035   1.849 -0.1396  0.1420 -0.1873
50174W        W93227  28.756   6.437   9.243  0.1531  0.2262  0.2898
50175W        W93228  29.549  15.897  15.622  0.0171 -0.0436  0.2130
50176W        W93229  29.458  15.296  22.071 -0.0077 -0.0184 -0.0631
50177W        W93230   3.026   0.888   1.708 -0.2208 -0.1486 -0.0886
50178W        W93231  30.537  24.693   7.025  0.0903 -0.1184 -0.1224
50179W        W93232  31.191  20.622  18.947 -0.2123 -0.1862 -0.2721
50180W        W93233   3.730  34.594  24.078  0.0038 -0.3003  0.1822
50181W        W93234  24.434  22.143  15.067 -0.1330  0.0282 -0.0757
50182W        W93235  26.951   8.236  16.387 -0.1628  0.0823 -0.3336
50183W        W93236  15.439  21.875  14.843  0.1215 -0.0624  0.1362
50184W        W93237  14.497   4.907   2.043 -0.3633 -0.2364  0.1929
50185W        W93238  24.273  19.401  24.078 -0.1559  0.0248  0.0691
50186W        W93239  31.042  29.133  25.382  0.0190 -0.1397  0.0825
50187W        W93240  31.988  19.936  13.773  0.0914  0.1161 -0.0539
50188W        W93241  14.293  30.495   2.620 -0.1364  0.0232  0.0668
50189W        W93242  12.598   5.918  26.181 -0.2621  0.1564  0.0065
50190W        W93243  32.754  30.915   2.870 -0.2803  0.0086 -0.2351
50191W        W93244   1.526  25.472   1.906 -0.0716  0.0582 -0.0256
50192W        W93245  33.399  20.360  21.637 -0.2801  0.0131  0.2581
50193W        W93246  18.010   6.290  16.076  0.2148  0.2814 -0.2587
50194W        W93247  30.078  11.889  19.684 -0.3704 -0.0612  0.1999
50195W        W93248  30.493  10.821  25.776 -0.1413 -0.0063  0.1663
50196W        W93249  28.436   3.073  25.120 -0.1584  0.1063 -0.0586
50197W        W93250  25.463  29.638  25.122 -0.0560  0.0181 -0.0080
50198W        W93251  14.590  10.009  29.017  0.5945 -0.1083 -0.3200
50199W        W93252  24.036  17.058  26.459 -0.0266  0.2023  0.0878
50200W        W93253  31.151  15.586   1.584  0.0280 -0.1402 -0.1198
50201W        W93254  30.636   6.914  14.975  0.1857  0.0292  0.3035
50202W        W93255  11.492  15.094  19.185 -0.0741  0.0908 -0.2515
50203W        W93256  17.762   5.579  17.971 -0.2031 -0.1669  0.1075
50204W        W93257  31.166  17.444  23.784  0.1616 -0.0317 -0.0860
50205W        W93258  21.191  26.106  27.237 -0.1933  0.2791 -0.1827
50206W        W93259  15.282  19.582  23.054  0.1372  0.2187 -0.0343
50207W        W93260   3.271  10.731  24.386 -0.0720  0.1176 -0.2178
50208W        W93261  21.393  16.693  22.566 -0.0351  0.0148 -0.0926
50209W        W93262   5.883  26.649  23.610 -0.0462 -0.0418  0.0413
50210W        W93263   4.430   9.916  18.936  0.0231  0.0126  0.0861
50211W        W93264  26.937  25.968  25.763  0.1619 -0.0804 -0.0892
50212W        W93265   7.874  16.450   5.055  0.2252  0.3422 -0.1871
50213W        W93266   6.352  13.704   2.956  0.2102  0.0832 -0.0224
50214W        W93267   2.502   2.687  20.652  0.2132  0.1462 -0.0056
50215W        W93268  26.143  10.778  23.697  0.3132 -0.0966  0.1335
50216W        W93269  10.091  14.283   4.715  0.0731 -0.3496  0.3687
50217W        W93270  33.095  18.485  20.379  0.0092  0.0686 -0.0215
50218W        W93271  32.067  18.953  23.083 -0.0260 -0.0893  0.2636
50219W        W93272   1.990  15.243   5.353 -0.2061 -0.2957 -0.0711
50220W        W93273  32.662  14.279   2.957  0.2231  0.1414 -0.1979
50221W        W93274   6.516  26.502   2.130  0.1844 -0.1427  0.0127
50222W        W93275   5.171  10.327  29.197  0.1450 -0.2614 -0.1729
50223W        W93276  32.138  12.929  21.068 -0.2630  0.3787  0.0645
50224W        W93277   4.198  10.263   3.730  0.2686 -0.1054  0.0634
50225W        W93278  33.194  23.656   1.539 -0.0187 -0.2538  0.0688
50226W        W93279   5.021  17.243  23.159 -0.2385  0.2104  0.2882
50227W        W93280  21.278  19.096  21.547 -0.3927  0.1362  0.0003
50228W        W93281  24.969  10.406  18.046  0.0768 -0.0645  0.1416
50229W        W93282  28.986  21.332  24.182 -0.0874  0.2825 -0.0772
50230W        W93283   2.684  31.181  20.544 -0.0855  0.1682 -0.0336
50231W        W93284  30.115  25.623   1.110  0.0560 -0.2124 -0.0163
50232W        W93285  30.605   6.574   0.967  0.0596  0.0133  0.1783
50233W        W93286  27.320   8.117  26.050  0.2901  0.2727 -0.3020
50234W        W93287  24.484  21.968   1.923  0.0259 -0.1113  0.0725
50235W        W93288   3.311  14.561   5.540 -0.1953  0.0432 -0.0648
50236W        W93289   5.551  33.317  24.082 -0.1305  0.0836 -0.0415
50237W        W93290   1.289  13.784  23.188  0.2469  0.4897 -0.1233
50238W        W93291   4.735   6.338  24.756  0.1102  0.0202 -0.3202
50239W        W93292  26.317  10.937  28.169  0.0774  0.0156 -0.1221
50240W        W93293  19.562  21.221   4.894 -0.0251 -0.1381  0.1641
50241W        W93294   1.525  22.710   7.096  0.1051  0.0026 -0.2493
50242W        W93295   8.118  12.930  19.278 -0.1880  0.1769 -0.1207
50243W        W93296  12.910  10.551  24.379 -0.0334  0.0989 -0.0918
50244W        W93297  26.115   8.902  17.822 -0.4262  0.0836  0.2348
50245W        W93298  27.325  28.298  22.347 -0.1048 -0.1854  0.2831
50246W        W93299  15.053  12.119  23.277 -0.1292  0.1021  0.1040
50247W        W93300   9.864   4.125  14.645 -0.0416  0.0949  0.2456
50248W        W93301   0.518  31.382   0.836 -0.1619  0.1378  0.0762
50249W        W93302   6.914  16.492  24.826 -0.1913  0.2519 -0.2735
50250W        W93303  19.376   7.076  26.260  0.1007 -0.1071  0.2585
50251W        W93304  10.147  12.049   2.863 -0.0262  0.2392 -0.0570
50252W        W93305   3.633  18.437  25.701  0.3315 -0.2366 -0.2619
50253W        W93306  34.409  16.047  22.773 -0.2657  0.0173  0.3899
50254W        W93307   8.718  10.246   8.092 -0.1840 -0.1280 -0.1035
50255W        W93308  21.512  22.417  10.286 -0.1689 -0.1090  0.2894
50256W        W93309   5.003  33.980   9.539 -0.0518 -0.0528 -0.0718
50257W        W93310  31.640  14.472  27.812 -0.0517  0.1187  0.0673
50258W        W93311   5.234  14.679  18.528  0.1113  0.3661 -0.1435
50259W        W93312   6.065  14.972   4.874 -0.3773  0.0583 -0.1501
50260W        W93313  10.231  11.455  21.248 -0.0647 -0.3189  0.0388
50261W        W93314  29.099   5.235  14.756 -0.0370  0.2839  0.2114
50262W        W93315  32.424   8.164  17.035 -0.4287 -0.1989 -0.0562
50263W        W93316  27.267  12.495  17.904 -0.4053 -0.0784  0.0020
50264W        W93317  25.566  28.651  14.935 -0.2532  0.0936 -0.2352
50265W        W93318  13.350  26.156  20.012 -0.0322 -0.0962  0.3302
50266W        W93319   2.568  11.889   9.481  0.1439  0.0535  0.0529
50267W        W93320   1.481  21.731   4.832  0.2317  0.0166 -0.3530
50268W        W93321   4.293  24.451   0.037  0.0402 -0.0989 -0.1038
50269W        W93322  23.347  18.449  27.473 -0.0549 -0.0911 -0.0360
50270W        W93323  10.984  28.390  23.390  0.1615 -0.1017 -0.0135
50271W        W93324   7.260   5.289  14.118  0.0459 -0.0802  0.1750
50272W        W93325  30.576   7.028  25.198 -0.1364  0.0643  0.0014
50273W        W93326  30.428   9.461  24.956 -0.3087 -0.0633  0.2347
50274W        W93327   4.385  13.110   3.736  0.1350  0.2759 -0.1543
50275W        W93328   1.456   8.786  18.337  0.0911  0.1178  0.0682
50276W        W93329  34.670  25.769   4.953 -0.0710 -0.2178  0.0124
50277W        W93330  11.649   5.658  26.580  0.1501  0.1474 -0.2515
50278W        W93331  26.371  10.535  17.832  0.1538  0.2895  0.4168
50279W        W93332  10.867   7.976  23.562  0.1554 -0.1352 -0.1145
50280W        W93333  34.040  12.499  17.060  0.1585 -0.0034 -0.1944
50281W        W93334  16.933  13.254   5.776  0.0148  0.0745  0.1375
50282W        W93335  10.226  21.001  23.511 -0.0302 -0.2192 -0.2431
50283W        W93336   8.959  19.602  18.287 -0.0989  0.1045  0.0283
50284W        W93337  24.428  18.949  27.002  0.2114  0.0242 -0.3189
50285W        W93338  17.406  25.294  26.947 -0.0356  0.1175  0.1591
50286W        W93339   1.902   8.508  25.073 -0.1726 -0.1951 -0.0542
50287W        W93340  11.105  11.092  25.266 -0.1859 -0.3476  0.1305
50288W        W93341   3.018  21.679   0.765  0.4572  0.0826 -0.1696
50289W        W93342   5.756  30.170   1.968  0.3629 -0.4039 -0.1546
50290W        W93343  13.806  11.520   5.361 -0.0109  0.3764  0.2421
50291W        W93344  25.008  31.005  20.899 -0.3818 -0.1352 -0.2579
50292W        W93345  13.218  31.791   1.067 -0.1360 -0.2538 -0.1507
50293W        W93346  14.630  16.590   9.634 -0.1807 -0.0898 -0.1451
50294W        W93347  10.882   7.272   5.340  0.3443 -0.0123 -0.1650
50295W        W93348  22.035  21.487  24.248  0.1493 -0.0865 -0.0513
50296W        W93349   1.322  18.710  26.490  0.3037 -0.0284 -0.0794
50297W        W93350   4.121   9.167  20.689  0.0296  0.1689  0.1989
50298W        W93351   6.725  31.044  15.718  0.1050 -0.2196 -0.0098
50299W        W93352  25.076   7.890   5.194  0.0680 -0.0266  0.0149
50300W        W93353  10.980  14.737  17.673 -0.4831  0.0131  0.0299
50301W        W93354  10.639   8.703  19.707 -0.1183 -0.0069  0.0641
50302W        W93355  31.876  25.452  15.594  0.3327 -0.2658 -0.1035
50303W        W93356  23.522   1.932   5.951  0.2251 -0.2922  0.3849
50304W        W93357  32.006  11.531  29.118 -0.0524  0.2164 -0.1728
50305W        W93358  10.946  11.459   1.685 -0.2473 -0.1834  0.1843
50306W        W93359   3.669  24.916  18.404  0.0036 -0.1617  0.1354
50307W        W93360  14.074   4.447  26.057 -0.3878  0.2784  0.0127
50308W        W93361   1.715   4.342  16.389  0.0191 -0.3545  0.4628
50309W        W93362   2.582  21.842  22.461 -0.1811  0.1398  0.2444
50310W        W93363  19.728  26.919  27.163  0.2249 -0.1061  0.0070
50311W        W93364   5.376  21.693  17.058 -0.0079 -0.3846  0.0170
50312W        W93365   1.097  20.904   1.557 -0.1091  0.1366 -0.3723
50313W        W93366  10.129  26.795   4.961 -0.1185  0.2178 -0.0411
50314W        W93367  22.696  17.257  18.795  0.2425  0.0084 -0.1230
50315W        W93368   5.193   8.937   7.297  0.1242  0.1151 -0.2187
50316W        W93369  27.163  17.253   0.157 -0.1166  0.0489  0.0659
50317W        W93370  16.980  15.936  15.241  0.1975  0.0847  0.1016
50318W        W93371  34.587  25.070   4.392 -0.0509 -0.1329 -0.2622
50319W        W93372  29.633  19.792  23.461 -0.0493  0.1285 -0.0295
50320W        W93373   0.073  21.396  22.267 -0.0084 -0.0352 -0.4261
50321W        W93374  19.873  20.346   5.107 -0.0838  0.2218 -0.1072
50322W        W93375   0.352  13.797  20.893 -0.1314  0.0091 -0.3152
50323W        W93376  29.121  18.620  18.394  0.0349 -0.2307 -0.2769
50324W        W93377  27.226  24.332  22.625  0.0025 -0.0077  0.0251
50325W        W93378  11.226  23.508   1.564  0.2667  0.2038 -0.1873
50326W        W93379  25.691   9.061  18.413 -0.1576 -0.2188  0.0165
50327W        W93380   8.342  25.264  16.511  0.0264 -0.2527  0.0302
50328W        W93381  14.838   1.625  28.998  0.0322  0.1077 -0.1681
50329W        W93382   9.363  10.422  21.667 -0.0920  0.0486 -0.0383
50330W        W93383   0.813  21.573   8.041 -0.3074 -0.0475  0.3216
50331W        W93384  26.010  19.307  15.078 -0.2673  0.2981 -0.0650
50332W        W93385  32.131  10.290   7.312 -0.1321 -0.0936  0.0632
50333W        W93386  23.092  24.652  18.889 -0.0358  0.1119 -0.4979
50334W        W93387  34.341   0.641  18.205  0.0724 -0.0560  0.2471
50335W        W93388   4.036  22.693  22.377 -0.0215  0.1277  0.0112
50336W        W93389   2.518  22.971  14.229  0.3111  0.0490  0.1521
50337W        W93390  27.802  26.145   0.889  0.2566  0.1253  0.0992
50338W        W93391  31.858   8.918  10.991 -0.1671 -0.3123 -0.0183
50339W        W93392  32.442  25.847  17.349 -0.1249  0.0153  0.0344
50340W        W93393   9.067  33.935  17.613 -0.0100 -0.0480  0.1069
50341W        W93394  24.168  19.333  13.562 -0.1440 -0.1269  0.0360
50342W        W93395  13.240  34.441  24.312 -0.0183  0.3567  0.0083
50343W        W93396   5.531  13.061  26.526  0.0599  0.0365 -0.2129
50344W        W93397  25.870  29.074   3.183 -0.1837  0.0532  0.1290
50345W        W93398  30.459  11.517   5.364 -0.0176 -0.0938  0.0829
50346W        W93399  32.445  18.227  17.240 -0.1841 -0.2480  0.0419
50347W        W93400  10.347  22.495  28.523  0.0607 -0.0370 -0.0345
50348W        W93401  20.622  17.293  28.323  0.2945  0.1968  0.1020
50349W        W93402   3.113  27.659  24.379  0.1498 -0.1407  0.1167
50350W        W93403   3.305  11.517   1.653  0.0962  0.2160  0.0008
50351W        W93404  25.832  22.338  23.461 -0.1844  0.1208 -0.2399
50352W        W93405   3.405  18.512  24.284  0.2902 -0.2116  0.3679
50353W        W93406  21.158  20.470   0.193 -0.1847  0.1442  0.2109
50354W        W93407  10.897  13.825  19.135  0.0397 -0.0387  0.1078
50355W        W93408  30.015  14.156  15.572 -0.2251 -0.1485  0.0891
50356W        W93409  31.776  18.678   5.171 -0.0961 -0.2171  0.0347
50357W        W93410  21.762  27.568  18.620 -0.3038 -0.3940 -0.0735
50358W        W93411  29.391  22.707   8.866  0.3293 -0.1516  0.2471
50359W        W93412   3.734  14.837  20.756  0.3572  0.0917  0.1168
50360W        W93413   5.528   9.933  24.994  0.1569 -0.2019  0.1587
50361W        W93414  25.198  28.811  16.690 -0.0260  0.1151  0.1237
50362W        W93415  24.331  24.231  24.213 -0.2022 -0.0781 -0.0372
50363W        W93416  23.426  12.234  28.370  0.1735 -0.0096  0.0654
50364W        W93417   5.289  12.641  27.275 -0.2900  0.1885 -0.4057
50365W        W93418  34.663  24.310  19.989  0.2914  0.1519 -0.1079
50366W        W93419   0.121  13.019   1.969 -0.1152  0.0545 -0.2854
50367W        W93420  21.757  13.875   6.378  0.0327 -0.0100 -0.2274
50368W        W93421  31.260  21.282  26.673  0.1601  0.1448 -0.0187
50369W        W93422   3.308   9.335   5.541  0.4161 -0.2092 -0.1222
50370W        W93423  23.020  14.345  19.315 -0.1052  0.0909  0.0893
50371W        W93424  28.420  27.852   4.700  0.0359  0.0949 -0.2132
50372W        W93425   9.967  20.886   8.942 -0.0116  0.0916  0.0445
50373W        W93426   0.984  31.286  14.261  0.0767 -0.1103 -0.3104
50374W        W93427  22.674   9.983   2.389 -0.1768  0.0577  0.1674
50375W        W93428  30.429  30.413  19.235  0.0498 -0.1947  0.2438
50376W        W93429  30.723  24.904   2.732 -0.0730  0.1790 -0.0506
50377W        W93430   2.028  18.777  20.656 -0.1108  0.2211 -0.0570
50378W        W93431  11.613   7.026   5.683 -0.1530  0.0974 -0.3563
50379W        W93432  16.493  30.777  16.334 -0.0499  0.0936 -0.1478
50380W        W93433   7.022  24.549  24.420 -0.1101 -0.0683  0.2327
50381W        W93434  27.769   4.246   0.390  0.3381  0.0416  0.0217
50382W        W93435  34.687   8.348  27.904 -0.1709  0.2150 -0.0010
50383W        W93436  24.407   2.728   8.027  0.3721  0.3526 -0.3092
50384W        W93437   9.962  25.803  21.928 -0.1797  0.1038  0.1983
50385W        W93438  20.042   2.805  25.645  0.0736 -0.0475 -0.0210
50386W        W93439  14.480  23.717   3.569 -0.1228 -0.0162  0.1353
50387W        W93440   6.439   8.550   0.176 -0.0898 -0.0337  0.1263
50388W        W93441  16.213   9.096   8.954  0.0602 -0.1585 -0.0427
50389W        W93442  32.163  32.009  19.334  0.1190 -0.1535 -0.1531
50390W        W93443  32.269  19.913  27.823  0.3147 -0.0546  0.0906
50391W        W93444  23.486  32.910   4.005  0.2349  0.2540 -0.0692
50392W        W93445  30.867   9.844   3.185 -0.3925 -0.1009 -0.0970
50393W        W93446   5.784  10.474   1.409  0.1644 -0.1457 -0.1658
50394W        W93447  16.713  19.153   8.011  0.2120  0.1659 -0.3705
50395W        W93448  15.325  29.411  20.875  0.0555  0.0343 -0.0563
50396W        W93449   0.134  18.226  14.505 -0.2680  0.0192  0.1330
50397W        W93450   2.557   6.267  25.491 -0.1783  0.0155  0.0910
50398W        W93451   9.968  18.131  15.428 -0.1323  0.0937 -0.3639
50399W        W93452   2.113  26.036   1.917 -0.1078 -0.1482 -0.1108
50400W        W93453   0.621  16.510  25.862 -0.4153  0.0567 -0.0394
50401W        W93454   7.489  10.148   4.717  0.0712 -0.0826  0.1437
50402W        W93455   8.368   8.834  25.380 -0.0096  0.0778  0.0924
50403W        W93456  26.496  27.510  19.407  0.3556  0.4389  0.2186
50404W        W93457  34.452  17.911  14.862  0.1033 -0.1157  0.0470
50405W        W93458   6.900   2.420  19.768 -0.0295 -0.1709 -0.0918
50406W        W93459   1.663   9.277   6.603  0.2220  0.0797  0.0711
50407W        W93460  20.701  28.352   3.603  0.0719 -0.1548  0.1809
50408W        W93461  27.157  11.217   2.646 -0.1064 -0.3913  0.2128
50409W        W93462  30.903  15.509  26.541  0.1216 -0.1654  0.0914
50410W        W93463  30.177  30.464  18.306  0.0554 -0.1343 -0.0733
50411W        W93464   2.635  34.560  27.385  0.2066 -0.0486  0.3613
50412W        W93465   0.173  27.434   4.205  0.2221  0.2382 -0.3283
50413W        W93466  21.298  20.297  27.529 -0.0187  0.1110 -0.0479
50414W        W93467  30.440  33.872   2.273  0.3889  0.2177 -0.0860
50415W        W93468  16.248   7.152  15.619  0.1217  0.2512 -0.1287
50416W        W93469  10.324   9.721  21.809  0.0416 -0.1865  0.3595
50417W        W93470  30.907  11.132  22.966  0.2165 -0.0656  0.2788
50418W        W93471  18.198   7.212  15.123 -0.3164  0.2291  0.2301
50419W        W93472  32.156  27.269  16.889 -0.0612  0.1072 -0.2232
50420W        W93473   3.723   5.646  16.812 -0.0388 -0.1284  0.0664
50421W        W93474   0.133  14.059   1.147 -0.2181  0.2524 -0.2352
50422W        W93475   6.932  19.081   7.287 -0.0825  0.0549  0.0583
50423W        W93476  31.842  20.978  25.646 -0.1317  0.1831 -0.2752
50424W        W93477  24.954   7.536  25.151 -0.1535 -0.1904 -0.2332
50425W        W93478  25.190  21.761  26.292  0.0013  0.2096 -0.1609
50426W        W93479  17.981  23.031   1.037  0.0932  0.0836 -0.2282
50427W        W93480  31.433  19.330  10.388 -0.3045 -0.0887 -0.3467
50428W        W93481   4.688   1.511  19.603 -0.0306  0.1691 -0.1386
50429W        W93482  33.730   5.123   6.490  0.0339  0.0626  0.0242
50430W        W93483  31.930  27.736  24.647  0.1367 -0.2172 -0.2332
50431W        W93484  21.341   2.292  20.628  0.2849 -0.1863 -0.0849
50432W        W93485   0.843  16.216  23.004  0.0698 -0.0552  0.2194
50433W        W93486  34.062  25.203  18.003 -0.0048  0.0219 -0.1306
50434W        W93487  26.401  15.508  17.479 -0.1388 -0.0208 -0.3683
50435W        W93488   0.047   2.311   1.047  0.0511  0.1784 -0.0501
50436W        W93489  22.630   5.039  20.432  0.5398  0.1491 -0.1153
50437W        W93490  28.628  13.587   1.822 -0.0134  0.2068 -0.3811
50438W        W93491   1.488   1.038   5.316 -0.2358 -0.2167 -0.1624
50439W        W93492  21.139   3.102   3.570 -0.2526 -0.0280  0.1988
50440W        W93493  33.788  24.496   1.156  0.0313  0.1089 -0.3734
50441W        W93494  20.597   5.529  18.303  0.0335  0.0234  0.2836
50442W        W93495   1.791  18.610  27.193 -0.1226  0.3145 -0.1120
50443W        W93496  34.432  32.432   6.232 -0.1588  0.0032  0.2609
50444W        W93497   5.274   1.983  19.158  0.1676 -0.1600  0.0013
50445W        W93498  12.536  10.564   2.674  0.3602  0.1994  0.1670
50446W        W93499  25.080  10.183  19.915 -0.1149 -0.0465 -0.0583
50447W        W93500  30.685  26.954   2.193 -0.2031  0.0791 -0.0796
50448W        W93501  33.147  10.714   6.441  0.0324  0.2739 -0.1131
50449W        W93502  27.981  11.866   1.627 -0.1314  0.1228 -0.2173
50450W        W93503  29.401  19.205   6.581 -0.0856 -0.0897  0.2898
50451W        W93504   3.293   7.657   9.564  0.1721  0.2958  0.3708
50452W        W93505  34.340   6.167  28.229 -0.1728 -0.2249 -0.1980
50453W        W93506   2.131  28.912  13.928 -0.0918  0.1867  0.2290
50454W        W93507  29.157   6.307   7.577 -0.1825  0.1632 -0.0146
50455W        W93508  30.767   9.332  20.645 -0.0198 -0.1770  0.4792
50456W        W93509  27.444  21.394  22.067  0.0903 -0.2507 -0.0323
50457W        W93510  24.069  34.072   6.379 -0.2324  0.1752  0.2422
50458W        W93511  30.989  22.758   1.538  0.0566  0.0493  0.2358
50459W        W93512  30.424  11.623  23.352 -0.2529  0.1391 -0.0738
50460W        W93513   1.286  29.907  26.854  0.0693 -0.2732 -0.0123
50461W        W93514  27.059  19.248   4.972 -0.3979  0.0161 -0.0650
50462W        W93515  33.908   0.578  19.142  0.0261 -0.1364 -0.2297
50463W        W93516   1.652  30.647  18.803  0.0196  0.0664  0.1489
50464W        W93517   2.777   8.327  25.099 -0.0902 -0.2761  0.0940
50465W        W93518  33.366  11.368  15.264 -0.1175 -0.0495 -0.0018
50466W        W93519  31.208  21.689  22.050 -0.3200  0.0913  0.0260
50467W        W93520  31.078   5.727  21.870  0.0822 -0.0984  0.0214
50468W        W93521  21.015  25.328   4.406 -0.0449  0.1112  0.1925
50469W        W93522  25.967  22.604   2.670 -0.0729 -0.1067  0.1124
50470W        W93523   7.629  24.850  18.713 -0.0813 -0.1135 -0.3020
50471W        W93524  33.124  31.173  28.753  0.0099  0.0992 -0.2220
50472W        W93525  29.423  22.483  28.943  0.0281  0.0519 -0.0578
50473W        W93526  26.433  19.067  18.211 -0.1347  0.0505  0.1585
50474W        W93527   8.925  11.619   2.598 -0.0167 -0.0439 -0.1145
50475W        W93528   5.302   8.197  24.683  0.0623 -0.0462  0.0245
50476W        W93529  25.913  15.153  22.813  0.0235  0.0780  0.0578
50477W        W93530   9.024  10.508  28.528 -0.1490 -0.2905  0.1989
50478W        W93531  25.608  21.586  19.358 -0.2509 -0.4767 -0.2965
50479W        W93532  30.018   5.327  23.738  0.0680 -0.0846  0.3080
50480W        W93533  10.047   2.989  16.980  0.0590 -0.0384 -0.3555
50481W        W93534  32.622  21.347  24.269 -0.0532  0.1082 -0.0101
50482W        W93535   6.545  28.035   4.305  0.0338 -0.2509 -0.1476
50483W        W93536  17.128  10.950  24.341  0.1783 -0.2076 -0.3093
50484W        W93537  11.589  18.941  16.254  0.0872 -0.1733  0.1041
50485W        W93538  30.824   8.672  17.577 -0.1254  0.3125 -0.2065
50486W        W93539  23.719  11.011  25.403  0.4358 -0.3097 -0.3726
50487W        W93540   8.210   8.376  14.992  0.1009  0.0893  0.2429
50488W        W93541  33.223  14.579   5.611 -0.0939 -0.1110 -0.0945
50489W        W93542  22.982  22.974   4.743 -0.0238 -0.0653  0.2921
50490W        W93543   5.974  25.199  27.012 -0.0320 -0.0922 -0.0316
50491W        W93544  34.514  13.318  27.828  0.2073  0.0576 -0.2198
50492W        W93545  34.653  15.250   2.791 -0.3414  0.0398 -0.2523
50493W        W93546  29.642   8.796  10.413 -0.3175 -0.2198  0.0430
50494W        W93547  22.512  25.341  18.604 -0.1550  0.1129 -0.0760
50495W        W93548  30.642  10.475   1.669 -0.3862 -0.0870 -0.1655
50496W        W93549  34.436  12.955  20.454  0.2064  0.2609 -0.0843
50497W        W93550   2.387   7.394   5.763  0.0351 -0.2043  0.3422
50498W        W93551  33.426  12.075   1.276  0.1667 -0.1028  0.0128
50499W        W93552  32.079  20.793   3.085  0.0729  0.2066  0.2611
50500W        W93553  27.723  21.566   6.967 -0.1505 -0.3050  0.3784
50501W        W93554  15.400  31.741   8.672 -0.1503 -0.0893  0.1049
50502W        W93555  10.295  16.418   3.753 -0.3324  0.2897 -0.3495
50503W        W93556  31.398   7.025  23.076  0.0711 -0.2179 -0.2111
50504W        W93557  29.996  21.355  18.470 -0.0210  0.3414  0.4613
50505W        W93558   7.299  22.973   7.951  0.1015  0.2055  0.4362
50506W        W93559  34.345  10.704   8.028  0.2885 -0.1208  0.1187
50507W        W93560  31.945  17.150   3.441  0.1227  0.1459  0.1201
50508W        W93561  14.066   3.015  23.729 -0.1435  0.2268 -0.0601
50509W        W93562  30.754  25.047  27.189 -0.2847 -0.1600 -0.0446
50510W        W93563   8.469  17.278   2.771 -0.1565  0.2140 -0.0059
50511W        W93564   9.143  21.876  22.610  0.2890  0.0930  0.0138
50512W        W93565  28.471   3.933  25.647  0.0597  0.0579  0.2244
50513W        W93566   4.727   5.382  26.959  0.3473 -0.0071 -0.0962
50514W        W93567  28.333  20.591  10.143 -0.1480  0.0506 -0.1538
50515W        W93568   2.170  28.627  17.427 -0.3547 -0.0984 -0.0259
50516W        W93569  33.331  28.624   0.537  0.2087  0.1095  0.3854
50517W        W93570  32.065  32.782  20.322 -0.2470 -0.3072 -0.0352
50518W        W93571   9.593  12.037  22.900  0.2857  0.0941 -0.1563
50519W        W93572  19.255  24.840  26.270  0.1262 -0.0418 -0.1883
50520W        W93573  27.751  25.037  24.552 -0.0494  0.2104  0.2605
50521W        W93574  33.449  12.258   4.235 -0.0604  0.3416 -0.0969
50522W        W93575   1.241   8.062   0.583  0.4300 -0.0618 -0.2305
50523W        W93576   8.684  31.057  23.633  0.2848 -0.0068  0.1401
50524W        W93577  28.857  15.447   2.405 -0.0746 -0.2257  0.0236
50525W        W93578  34.201  16.704  26.370  0.0161  0.3668 -0.2158
50526W        W93579   5.344   2.052   4.703  0.1586  0.0862 -0.0757
50527W        W93580  13.660  27.135  16.552  0.0008 -0.3428  0.0859
50528W        W93581  28.721  31.858  20.725  0.0419  0.0095 -0.0506
50529W        W93582  27.679   2.266  18.085 -0.2050 -0.0572 -0.0245
50530W        W93583  11.413  16.585  26.949 -0.2841  0.0214  0.1535
50531W        W93584   9.651  14.261  27.638 -0.0519  0.1640 -0.0296
50532W        W93585  26.277  24.823   6.298  0.0391  0.0383  0.1369
50533W        W93586  34.594  33.806  23.443  0.0800 -0.3101  0.0170
50534W        W93587   0.769  22.644  19.059 -0.1245  0.1408 -0.0988
50535W        W93588   2.079  32.767  27.200  0.1826 -0.0293  0.0515
50536W        W93589  27.187  15.101  19.440  0.1304  0.0719 -0.0248
50537W        W93590  28.299  17.368   7.353 -0.0237 -0.0369 -0.1535
50538W        W93591  23.379   9.623  25.299  0.1405  0.2804  0.0097
50539W        W93592  14.008  25.214  21.870  0.2298 -0.1287 -0.3277
50540W        W93593   4.050  30.060   6.242  0.1660 -0.0282  0.1256
50541W        W93594  27.320  33.567  14.659 -0.1225  0.2741  0.1479
50542W        W93595  32.584   7.675  22.563 -0.2192 -0.2038  0.0045
50543W        W93596  33.414  14.426  27.043 -0.1717  0.1440  0.3044
50544W        W93597   5.836  34.439  16.644 -0.1075  0.2113  0.0126
50545W        W93598   9.628  15.185   5.721 -0.1006 -0.0143  0.2551
50546W        W93599  31.246  20.261  18.544 -0.1129 -0.2108 -0.3089
50547W        W93600  27.431  11.130  21.228  0.1418  0.2970 -0.1735
50548W        W93601   8.532  29.734   3.520  0.1404 -0.1903  0.1503
50549W        W93602  27.109  25.040   4.256 -0.0981  0.1636 -0.0788
50550W        W93603   1.690  24.648  26.493 -0.1795  0.0637  0.0374
50551W        W93604  19.888   9.127  20.623 -0.0938  0.0609 -0.3134
50552W        W93605  28.976  29.199  17.562  0.0499  0.2917 -0.0180
50553W        W93606  32.115   7.711  18.320  0.3393  0.0832  0.0741
50554W        W93607   3.350  23.847  22.223 -0.0137 -0.2181 -0.3728
50555W        W93608  25.477  20.215   0.982 -0.3695 -0.0245 -0.1726
50556W        W93609  10.780   8.214  18.971  0.3207  0.1026  0.1464
50557W        W93610   3.006   0.649  19.861  0.1467  0.1046  0.0637
50558W        W93611  19.776  21.928  21.385  0.0217 -0.2856  0.0408
50559W        W93612  20.158  14.006  16.011 -0.2562 -0.2211  0.3134
50560W        W93613   3.307   1.227   2.082  0.1177  0.2219 -0.1919
50561W        W93614   4.043  16.975  25.170 -0.2033  0.0495 -0.0801
50562W        W93615   5.204  15.804   5.696  0.0128  0.3192 -0.0673
50563W        W93616   6.110  12.060  26.254  0.1380 -0.1442 -0.1678
50564W        W93617   5.278  14.714   3.937  0.0348  0.2923  0.0986
50565W        W93618  27.038  21.346   9.199 -0.1882  0.2416  0.3641
50566W        W93619  32.501  16.584   3.050 -0.1643 -0.2583 -0.0290
50567W        W93620  10.637  26.573   1.523 -0.0049 -0.0578  0.0332
50568W        W93621  31.709  21.747  25.850  0.0198  0.0622  0.0835
50569W        W93622   0.515   8.513   1.017  0.0528  0.1481  0.2008
50570W        W93623  32.045  18.672   8.986 -0.0666  0.1024 -0.1659
50571W        W93624  33.171  15.948  23.116 -0.3513 -0.2449  0.2727
50572W        W93625  28.295  30.367  18.124  0.1569  0.2645  0.0861
50573W        W93626  24.831  16.740   8.569  0.0708 -0.2594  0.1856
50574W        W93627  25.489  10.697   0.451  0.3210 -0.1566  0.0477
50575W        W93628  32.702  19.816  23.611 -0.2137  0.0337  0.0423
50576W        W93629  27.922  17.255  27.267  0.1830 -0.1200  0.2076
50577W        W93630  28.202  19.147   2.232  0.1959  0.2043 -0.1964
50578W        W93631  29.120  17.135   1.456  0.2098 -0.0487 -0.2419
50579W        W93632  24.426  26.700   7.073 -0.0167 -0.1172  0.0920
50580W        W93633   0.115  10.083  23.332  0.1426 -0.0149 -0.0511
50581W        W93634  13.693  30.705  26.781 -0.1135 -0.2859  0.3093
50582W        W93635  24.832  31.782   1.121  0.1970  0.2193  0.1233
50583W        W93636  32.465  17.384   0.585 -0.3114 -0.0107  0.1282
50584W        W93637   5.477   4.108   7.513  0.2826 -0.4407  0.1444
50585W        W93638  22.381  19.500  18.359 -0.0963  0.3004 -0.1415
50586W        W93639  30.029  14.076  24.211 -0.2185 -0.0081  0.0732
50587W        W93640   1.682   8.429   0.866 -0.0906 -0.3852 -0.1333
50588W        W93641  25.261   5.722  20.005  0.0139 -0.3329 -0.3230
50589W        W93642   0.283  33.827  16.735  0.2060  0.2135  0.1814
50590W        W93643   1.715  32.078   3.640  0.0793 -0.1231  0.2652
50591W        W93644  27.624  17.375  16.687  0.0151  0.0185  0.0447
50592W        W93645  22.120  13.715  13.981  0.2194  0.0397 -0.5884
50593W        W93646   2.385  22.366   4.009  0.0873 -0.1709  0.1450
50594W        W93647  16.592  23.958   0.115  0.0288  0.2853  0.0757
50595W        W93648   3.790  27.363  28.149  0.2671 -0.0843  0.1343
50596W        W93649  10.946  18.237   4.927  0.2978  0.0122 -0.1403
50597W        W93650   2.877  24.860  27.040  0.0316  0.0661  0.2948
50598W        W93651   8.289  25.338   2.875 -0.1260 -0.1876 -0.0771
50599W        W93652  32.035   3.399  28.140 -0.2150  0.2426 -0.0389
50600W        W93653  23.375  30.384  23.315 -0.1055 -0.0085 -0.0804
50601W        W93654   8.725  30.433   2.724  0.1703  0.4648  0.0430
50602W        W93655  32.966   8.291   5.051 -0.1458 -0.1351 -0.0699
50603W        W93656   3.792   2.295  27.018  0.0534  0.3229  0.3876
50604W        W93657  18.515  15.917  13.701  0.1280  0.0698 -0.2057
50605W        W93658   8.407  20.972   0.106 -0.0191  0.0438 -0.0497
50606W        W93659  17.441  21.884  21.045 -0.0252 -0.2400 -0.0556
50607W        W93660  32.699  15.078  21.166  0.3523 -0.0138  0.3253
50608W        W93661   3.882   8.420  18.543 -0.1791 -0.2713  0.1341
50609W        W93662  27.552  14.674   0.452 -0.1999  0.0779  0.1140
50610W        W93663   5.102   6.763  18.941 -0.1097  0.1337  0.0168
50611W        W93664  30.833  30.794   3.962  0.1111 -0.0272 -0.0644
50612W        W93665  26.133  11.026  27.168  0.2248 -0.0067  0.2838
50613W        W93666   5.742  18.400   6.517 -0.0084  0.0375 -0.2590
50614W        W93667   0.709  10.664   3.728 -0.0697  0.2225  0.3391
50615W        W93668  33.337  15.496   1.114 -0.0082 -0.3565 -0.1818
50616W        W93669  17.542   5.459  18.836 -0.0805 -0.2289  0.0991
50617W        W93670  14.394  33.465  29.047  0.1672 -0.2697 -0.1903
50618W        W93671  20.420  20.632  19.530 -0.1104 -0.2190 -0.1282
50619W        W93672  33.336  22.875  14.103  0.0474 -0.0582  0.0065
50620W        W93673  18.926   6.416   2.251  0.0723  0.2411 -0.1324
50621W        W93674  29.172   9.696  23.412 -0.0622 -0.0089 -0.2020
50622W        W93675  13.837  16.771   0.118 -0.0236  0.2086 -0.0884
50623W        W93676   0.914  29.688  17.068 -0.0822  0.1610 -0.0602
50624W        W93677   5.568  19.557  15.884 -0.2091  0.4504 -0.0318
50625W        W93678  12.166  18.238   8.430 -0.1664 -0.0577  0.3858
50626W        W93679  26.170  15.620  21.060  0.0871 -0.1181 -0.1461
50627W        W93680   2.144   8.317   5.892 -0.1313  0.1153 -0.0608
50628W        W93681   6.715  17.499  14.950  0.4140  0.2277 -0.1604
50629W        W93682  28.296   8.296  14.899 -0.0625 -0.0653  0.3444
50630W        W93683  24.172  26.749  25.543  0.0026  0.0081  0.2235
50631W        W93684  20.347  26.457  25.187 -0.2982  0.2633 -0.4099
50632W        W93685  29.880  26.703   6.441  0.1223  0.0703  0.1260
50633W        W93686  10.345  24.540   3.324 -0.0222 -0.1765  0.0022
50634W        W93687   1.144  14.213  25.465 -0.4245 -0.1002  0.1481
50635W        W93688   5.015  29.042   0.385 -0.0080  0.0076  0.1483
50636W        W93689  28.403   0.996  25.472 -0.0498 -0.1108 -0.3276
50637W        W93690   6.507  12.681  17.744  0.0071  0.0645 -0.0451
50638W        W93691   2.975  22.579  16.762 -0.1359  0.1077  0.4279
50639W        W93692  34.530   8.854  19.276 -0.0856  0.1163  0.1092
50640W        W93693  33.940   3.093   5.608 -0.0379  0.0620 -0.0729
50641W        W93694   2.164  17.602   2.293 -0.1051 -0.0425  0.1244
50642W        W93695  12.564  11.946   0.645 -0.1102 -0.2849 -0.0203
50643W        W93696  24.137  24.614   9.033  0.0423  0.3150  0.2358
50644W        W93697   9.780  13.059  27.457  0.0468 -0.1337 -0.2892
50645W        W93698  30.259   8.182   8.699  0.1365  0.0829 -0.0339
50646W        W93699  26.665  32.668   1.243 -0.0396  0.0428 -0.2348
50647W        W93700  31.108  30.867  15.128  0.1653 -0.3182  0.2702
50648W        W93701  34.119   6.138  16.460  0.3454  0.1782  0.0641
50649W        W93702  28.393  25.901  20.640  0.1265 -0.0489  0.1275
50650W        W93703   5.172  28.393   9.205 -0.2233 -0.2735 -0.1483
50651W        W93704  29.420  32.040   6.785  0.0609  0.1285 -0.0813
50652W        W93705   6.486  13.583  19.266  0.0248  0.2179  0.1434
50653W        W93706  25.600  14.666   4.797  0.0051  0.1085  0.2102
50654W        W93707  21.816   9.556   9.384  0.0195 -0.0767 -0.0591
50655W        W93708  11.069  23.439  26.920 -0.0844  0.0332 -0.0600
50656W        W93709  26.352   4.632   8.178  0.4899 -0.0698  0.3815
50657W        W93710  29.813  17.791   0.946 -0.2259  0.0504  0.0137
50658W        W93711   1.168  24.919  26.363  0.3394  0.0504  0.0997
50659W        W93712   6.879  20.381  21.845 -0.1669  0.1799  0.2384
50660W        W93713  12.586  14.673   9.008  0.4920  0.2450  0.0191
50661W        W93714   1.399  20.311  26.900  0.1376  0.0035  0.2868
50662W        W93715  28.931  14.820  14.739  0.2798 -0.0976 -0.0118
50663W        W93716  31.025   5.921   6.238  0.0064 -0.1687  0.0291
50664W        W93717   7.239  27.461   8.859 -0.3669 -0.1121  0.3433
50665W        W93718  10.446  27.142  25.036  0.0288 -0.1691 -0.0307
50666W        W93719   4.192  13.071  22.886 -0.1871  0.2081  0.1418
50667W        W93720  17.426  29.266  20.699 -0.3092  0.1110  0.0248
50668W        W93721  32.641  24.085  19.887 -0.0116 -0.3714 -0.1989
50669W        W93722  19.522  14.448  27.565  0.3479 -0.0698 -0.2329
50670W        W93723   2.890  24.677   3.638 -0.0387 -0.2074  0.0966
50671W        W93724  34.686   3.475   4.567 -0.2033 -0.3166 -0.2135
50672W        W93725  16.866  10.063   1.955 -0.1277 -0.2224  0.0301
50673W        W93726  24.253   5.029  20.010  0.0726 -0.0674 -0.1393
50674W        W93727   3.075  27.932   7.830 -0.2894  0.1074 -0.0436
50675W        W93728   9.073  21.105   6.712  0.0732 -0.1339 -0.2049
50676W        W93729   0.731  24.668   9.353  0.2314  0.1001  0.0647
50677W        W93730  32.803  29.743  26.196  0.1796  0.1306  0.1407
50678W        W93731  31.100  12.498   6.218  0.0218  0.1782  0.0531
50679W        W93732  32.918  33.202  27.960 -0.1819 -0.2210  0.1184
50680W        W93733  14.327  24.484  14.220 -0.0861 -0.0847 -0.0571
50681W        W93734  13.896  17.352  28.778  0.1027 -0.0393  0.0571
50682W        W93735  16.227  11.109   1.621 -0.0136  0.0506  0.2047
50683W        W93736   5.650  17.397   7.426 -0.2562  0.0370 -0.0096
50684W        W93737  18.466  26.777  25.505 -0.1194 -0.1206 -0.1324
50685W        W93738   7.303   7.741   9.816  0.1145 -0.2195  0.1835
50686W        W93739  11.993  29.426   0.353  0.2933  0.1255  0.0955
50687W        W93740  30.598  11.709  24.292 -0.0286 -0.0507 -0.2859
50688W        W93741  24.856   2.519   3.733 -0.2113  0.2277  0.3531
50689W        W93742   1.223  26.281  21.583  0.0259  0.2254  0.2222
50690W        W93743   4.549   9.504  23.649 -0.3250 -0.1115 -0.0317
50691W        W93744   0.012  16.330  21.971 -0.3272  0.1838 -0.0961
50692W        W93745   9.277  18.880  19.448  0.3717 -0.0008 -0.1773
50693W        W93746  12.918  16.086   4.846 -0.1047 -0.0372  0.0753
50694W        W93747  15.177   6.106  26.861  0.1517 -0.0880 -0.2458
50695W        W93748  29.866  17.577  24.148  0.0342 -0.1891  0.1159
50696W        W93749  32.091   6.487  19.707 -0.1346  0.1455 -0.3946
50697W        W93750   1.832  17.916   3.713  0.1417 -0.1439 -0.1291
50698W        W93751  33.049  17.601   9.735  0.0265  0.2405 -0.0496
50699W        W93752   1.294   5.804  25.830 -0.0077  0.2627 -0.2649
50700W        W93753  28.742  18.091  21.230  0.1162  0.0641 -0.1089
50701W        W93754  34.027  30.541   0.064 -0.2070 -0.1068  0.1027
50702W        W93755  34.544  27.840  14.530 -0.0333  0.0811 -0.1612
50703W        W93756  27.237  28.957  17.733  0.1397  0.2606  0.0654
50704W        W93757   5.561  21.766   2.220  0.1598 -0.1407  0.2401
50705W        W93758   0.241  14.394   6.623  0.2590 -0.1330 -0.0956
50706W        W93759   4.989  11.455  19.152 -0.2723 -0.1411 -0.1827
50707W        W93760   6.369  17.322  25.031  0.0534  0.1820  0.3316
50708W        W93761  29.474   8.716   3.687 -0.0500  0.0144  0.0532
50709W        W93762  33.366  19.160  23.734 -0.2127 -0.0219 -0.0059
50710W        W93763  24.531  10.320  26.588  0.0162  0.2868  0.2673
50711W        W93764   8.546  19.427  23.574  0.0701  0.0549 -0.1252
50712W        W93765   9.289  21.431  19.807 -0.0958 -0.1538  0.1624
50713W        W93766  13.099  17.002   8.014 -0.1929 -0.1906  0.1442
50714W        W93767  28.648  30.820  18.235  0.1170  0.1159  0.1236
50715W        W93768   2.534  12.941  21.557 -0.0751  0.0165 -0.1223
50716W        W93769  21.244  22.324  24.077  0.0420  0.1415 -0.3843
50717W        W93770   1.346  33.008  17.736  0.1262 -0.1734 -0.1762
50718W        W93771   2.634  20.075  16.373  0.2016  0.1205 -0.2620
50719W        W93772  29.834  16.652  24.080 -0.1695 -0.0891 -0.2882
50720W        W93773  26.635  14.263  26.027 -0.1387 -0.2516  0.2665
50721W        W93774  30.230  18.341  17.376 -0.2613 -0.1439 -0.6313
50722W        W93775  30.953  22.812  19.360 -0.0618  0.0155  0.1010
50723W        W93776   0.348  11.822  16.093  0.1612 -0.4039 -0.1787
50724W        W93777   6.788  22.413   1.942 -0.1401 -0.0477 -0.1290
50725W        W93778   6.701  21.335  14.267 -0.1123  0.2056  0.0463
50726W        W93779   9.502  27.702  14.168  0.1869  0.1402 -0.0041
50727W        W93780  30.594  18.198  15.841  0.0703  0.2022 -0.1335
50728W        W93781  28.729   8.867  19.649 -0.1738  0.1171 -0.3590
50729W        W93782  27.633  18.373  13.805 -0.1249  0.1137 -0.2486
50730W        W93783   2.746  13.800  20.600 -0.1518 -0.3400 -0.1096
50731W        W93784   0.429  24.755  14.001 -0.1637 -0.0551  0.0790
50732W        W93785  28.607  16.186  23.009 -0.0441 -0.3033  0.0323
50733W        W93786  27.793  21.572  15.625 -0.0795 -0.2187  0.1122
50734W        W93787  33.595  27.827  20.116 -0.0806  0.0916 -0.1356
50735W        W93788   8.698  24.877  26.346  0.1771 -0.2061 -0.2183
50736W        W93789   5.714  25.287   7.226  0.2763  0.2390  0.0694
50737W        W93790  27.751   4.757   8.314  0.0319 -0.1994  0.0217
50738W        W93791  23.063  28.429  18.285  0.1602  0.0345  0.0169
50739W        W93792  23.009   0.767  18.155 -0.0809 -0.0608  0.3531
50740W        W93793  30.448  16.666  14.386 -0.0081  0.2446  0.0771
50741W        W93794  21.810  17.632  24.461  0.3270  0.1572 -0.0387
50742W        W93795  18.851  28.644  23.259 -0.1455  0.1575  0.0576
50743W        W93796  29.282   6.148  18.326 -0.1296  0.0757 -0.0015
50744W        W93797   1.601   3.604  24.063 -0.1023  0.0794  0.3029
50745W        W93798  11.677  34.187  25.468 -0.3263 -0.0584 -0.3272
50746W        W93799  25.634   9.745  16.257 -0.3830 -0.0655 -0.1160
50747W        W93800  28.932  10.346  24.842  0.0141 -0.2519 -0.0707
50748W        W93801  16.757  24.108  18.688  0.0614  0.0669  0.0014
50749W        W93802   5.277  14.942  14.520 -0.0109  0.1885 -0.2811
50750W        W93803  30.770  30.155   6.677  0.2047  0.1324  0.0336
50751W        W93804   0.288  14.977   1.649 -0.1461 -0.0818  0.2437
50752W        W93805  29.980  16.825  19.465  0.2287  0.0582 -0.0127
50753W        W93806   0.254  32.347  15.828  0.1213 -0.1193  0.1690
50754W        W93807   1.819   6.095  20.715  0.0957  0.0480 -0.0421
50755W        W93808   1.763  13.529  22.626  0.0446 -0.3404  0.1340
50756W        W93809   0.323  14.571  15.308  0.2039 -0.1571 -0.1730
50757W        W93810  29.617  34.226  15.370  0.0608  0.3213 -0.1378
50758W        W93811  24.034  27.012  17.630  0.1854 -0.0148  0.1252
50759W        W93812  32.934   2.486  23.742  0.1766  0.0592 -0.0100
50760W        W93813   0.118  12.844  23.217 -0.3091  0.0239 -0.1743
50761W        W93814   1.419  21.501  15.949  0.0445 -0.1206 -0.0494
50762W        W93815  34.052  16.769  23.104  0.0060 -0.1264 -0.1718
50763W        W93816   1.573  11.686  18.749 -0.1283 -0.2035  0.2067
50764W        W93817  26.461  28.304  22.936  0.2454 -0.0227 -0.1835
50765W        W93818  31.689  20.981  29.178 -0.1880 -0.0224 -0.3970
50766W        W93819   0.019   8.590  15.484 -0.2385  0.0732 -0.2034
50767W        W93820   5.014  25.969  21.190 -0.3219 -0.1717 -0.0214
50768W        W93821  32.381  21.667  21.918 -0.0935  0.2011 -0.1143
50769W        W93822   2.292   3.558  15.041 -0.0850  0.1083 -0.2079
50770W        W93823  28.929  13.975  18.554  0.1280  0.1893 -0.0150
50771W        W93824  28.184  33.198  17.270  0.1933 -0.1366 -0.2169
50772W        W93825  25.325  15.395  15.740 -0.0118 -0.1343 -0.3320
50773W        W93826  34.088  29.813  15.055  0.1360  0.2210 -0.0175
50774W        W93827   4.886   8.980  27.124 -0.1163  0.4112 -0.0056
50775W        W93828  14.221  28.859  14.609  0.0089  0.1611 -0.0188
50776W        W93829   7.605  16.727  16.131  0.0404 -0.0117 -0.1067
50777W        W93830  34.463  28.149  15.651 -0.0684 -0.1121  0.0432
50778W        W93831  12.129  30.354  15.278 -0.1746 -0.2339  0.2210
50779W        W93832  31.896  33.348  16.322 -0.0887  0.0156  0.3969
50780W        W93833  22.041  23.944  17.922  0.2712  0.0551  0.2026
50781W        W93834  22.271   4.811  18.719  0.1533  0.0567 -0.0158
50782W        W93835   1.512  14.331  21.320  0.1595  0.3947 -0.0668
50783W        W93836  28.404  12.728  16.940  0.4235 -0.0010  0.1220
50784W        W93837  22.293   4.370  16.037 -0.1760  0.2996 -0.2901
50785W        W93838  32.251  17.090  15.786  0.0549  0.0472 -0.3617
50786W        W93839   9.450  34.576   0.449  0.2996  0.2038 -0.0673
50787W        W93840   4.311  26.077  18.453  0.3199  0.0256 -0.4808
50788W        W93841  26.930  23.638  18.367 -0.0149  0.0026 -0.4078
50789W        W93842  11.460  30.301  27.117  0.0366 -0.0611  0.0143
50790W        W93843  29.690  23.927  15.013  0.1090 -0.1696 -0.1112
50791W        W93844   6.597  16.074  20.589  0.0730  0.2501 -0.2467
50792W        W93845   8.289  14.543  14.396  0.0921  0.1157  0.2244
50793W        W93846   9.945   9.957  22.906 -0.0049  0.0346 -0.2237
50794W        W93847  22.551  22.536  29.045  0.0442 -0.1073 -0.2143
50795W        W93848   7.375  29.849  20.704  0.2930 -0.1092 -0.2727
50796W        W93849   2.758  16.695   4.149 -0.0133 -0.1484  0.0117
50797W        W93850  32.343   5.490   0.362  0.1252 -0.0109  0.3947
50798W        W93851   1.857   7.036  19.769 -0.1953 -0.2697 -0.2054
50799W        W93852  33.048   9.725  20.485 -0.1323  0.0363 -0.2531
50800W        W93853  10.579  23.103   8.975  0.3483  0.0999  0.3146
50801W        W93854   4.442  24.342  21.788 -0.3183  0.2237  0.0323
50802W        W93855  31.255  23.886  16.005 -0.0803 -0.2327  0.3769
50803W        W93856  29.001  17.787  16.402 -0.3723  0.2209 -0.0093
50804W        W93857  25.204  27.587  18.772  0.0950  0.0280 -0.3668
50805W        W93858  10.784  24.451  23.093  0.0402  0.0286 -0.0839
50806W        W93859  10.656  17.734  23.094 -0.0094  0.0772  0.0914
50807W        W93860  30.187  20.112  25.800 -0.0135 -0.1103 -0.2035
50808W        W93861  31.176  12.090   0.344 -0.2070  0.0690 -0.3765
50809W        W93862  31.310   2.738  21.986 -0.2365  0.2493 -0.3290
50810W        W93863  34.033  29.077  21.376 -0.1518  0.0426 -0.3045
50811W        W93864  10.873  34.481  20.689 -0.2747  0.0768  0.1364
50812W        W93865  11.475  21.238  23.825 -0.1054  0.0639  0.0680
50813W        W93866   2.782  15.519  15.776 -0.3324  0.0998 -0.1531
50814W        W93867  31.976  28.163   6.623 -0.2293 -0.1048  0.0603
50815W        W93868   2.721  13.559  23.524  0.0109 -0.1717 -0.1933
50816W        W93869  34.142  23.939  21.268 -0.4187  0.1281  0.2967
50817W        W93870  34.219   6.675  19.527 -0.1073  0.0131 -0.1038
50818W        W93871  28.848  15.848   2.160 -0.0432  0.0074 -0.0812
50819W        W93872  29.247  20.364  19.508 -0.0455 -0.0747 -0.2251
50820W        W93873   5.756  10.918  15.317 -0.2510 -0.2244 -0.2194
50821W        W93874  30.051  17.778  21.831  0.0318  0.1497  0.1403
50822W        W93875  22.391  23.258  21.199  0.0176 -0.3027 -0.3236
50823W        W93876  31.223  21.925  25.731  0.1328 -0.0605  0.1788
50824W        W93877  23.202  21.611  14.472  0.0305  0.1834 -0.1245
50825W        W93878  19.234  29.226  15.612 -0.5494  0.3843  0.1961
50826W        W93879   1.529  17.001  17.833  0.0895 -0.1941 -0.1789
50827W        W93880   1.051  33.727  13.914 -0.2437 -0.0418  0.2812
50828W        W93881  31.858  33.041  15.897 -0.0477 -0.0004  0.0847
50829W        W93882   7.494   1.500  15.619 -0.0955 -0.0655  0.0744
50830W        W93883  26.607  13.843   4.738 -0.3116  0.1493 -0.2804
50831W        W93884  33.363  22.511  16.195 -0.0569  0.0576  0.0492
50832W        W93885  34.158  28.677  17.887  0.1499 -0.2038  0.3550
50833W        W93886  25.249   3.672  20.115 -0.0663  0.1446  0.0832
50834W        W93887   8.086  18.087  14.796 -0.0450  0.0438 -0.0212
50835W        W93888  33.797   9.600  26.053 -0.2289  0.2485  0.1098
50836W        W93889   0.957  14.763   7.731 -0.3185  0.0757 -0.0361
50837W        W93890  28.084  27.293  21.197  0.2473 -0.1173  0.0898
50838W        W93891  34.489  10.841   1.023 -0.0600  0.1020 -0.2278
50839W        W93892  11.327  23.994  18.118 -0.0103  0.0933 -0.3106
50840W        W93893  31.272  30.085  19.638 -0.1390 -0.3321 -0.0163
50841W        W93894  31.391   1.888  27.632 -0.2207  0.6351 -0.1082
50842W        W93895  17.696  30.947  21.275 -0.4607 -0.0999  0.0363
50843W        W93896  24.425  31.194   9.454  0.3030  0.1304 -0.0729
50844W        W93897   8.522  22.267  26.456  0.2854  0.1007 -0.2631
50845W        W93898  29.837  18.636  27.136 -0.1735  0.1686 -0.2431
50846W        W93899   7.352  19.109  21.172 -0.0906 -0.0722 -0.0530
50847W        W93900   2.490  32.177  22.617  0.1056 -0.0050 -0.0426
50848W        W93901  30.402  14.268  20.870  0.0954  0.0147  0.1192
50849W        W93902  11.002  19.610  18.299 -0.0025  0.1644  0.1905
50850W        W93903  34.107   6.084  20.366 -0.1744  0.0331 -0.2184
50851W        W93904  18.037  28.064  26.147  0.1354  0.1136 -0.1782
50852W        W93905   9.734  26.323  20.096 -0.0403  0.0957  0.0894
50853W        W93906  25.091  31.741  14.724  0.2291  0.1524  0.6038
50854W        W93907  28.701  22.035  17.152 -0.0004  0.1453 -0.0374
50855W        W93908   0.501  24.614  17.004 -0.0414  0.1695  0.0086
50856W        W93909  15.102  25.317  22.379  0.0912  0.2124  0.0715
50857W        W93910   7.782  30.717  16.446 -0.1037  0.1121 -0.4125
50858W        W93911  26.097  34.421   2.179  0.0151  0.2120 -0.1380
50859W        W93912  33.375  26.034  15.443  0.0592  0.1086  0.0730
50860W        W93913  20.274  17.983  23.824  0.1778  0.2692  0.1738
50861W        W93914  14.137   2.057  16.821  0.1861 -0.1421 -0.1215
50862W        W93915   5.524   5.112  27.228 -0.1222 -0.0777  0.1691
50863W        W93916   3.647  15.351  27.133 -0.1453  0.2923  0.2626
50864W        W93917  32.985  13.591  13.570  0.0567  0.0230  0.3585
50865W        W93918  25.320  11.760  16.882  0.3224 -0.3643  0.1023
50866W        W93919   3.430  17.339   5.268  0.0405 -0.0472 -0.2918
50867W        W93920   3.459  12.160  22.150  0.2897 -0.2580  0.1371
50868W        W93921  14.097   5.163  14.204  0.0746 -0.3447 -0.0153
50869W        W93922   1.721   2.038  19.763  0.1125 -0.0455  0.3314
50870W        W93923   1.747  18.615  14.746 -0.1365 -0.3474  0.0121
50871W        W93924   6.705  17.966  17.766  0.0577  0.0546  0.1607
50872W        W93925  16.832  24.027  21.300  0.1018  0.0382 -0.1581
50873W        W93926  29.661   1.442  23.390 -0.2010  0.1993  0.4782
50874W        W93927  32.842  27.058   3.391  0.0060 -0.2403 -0.3533
50875W        W93928   2.393  15.129  15.909  0.1383 -0.1066  0.1907
50876W        W93929  26.311  14.657  21.443 -0.3957 -0.1376 -0.1901
50877W        W93930  14.621  28.584  19.866 -0.1207  0.3126 -0.5754
50878W        W93931  21.127  11.905  14.061  0.0744  0.0879  0.3625
50879W        W93932  34.644   0.471  21.910  0.0707  0.0900 -0.2061
50880W        W93933  27.779  20.413  17.644  0.4244  0.1787  0.1778
50881W        W93934   9.888  33.482  14.181 -0.0658  0.1527  0.0408
50882W        W93935   7.469  19.975  15.341 -0.0386 -0.4636  0.2585
50883W        W93936   6.078  30.477   4.477 -0.1109  0.2623 -0.2001
50884W        W93937  31.464  28.715  23.208 -0.2902  0.2530 -0.0394
50885W        W93938   8.712  27.425  28.152 -0.0054  0.1178  0.4978
50886W        W93939  19.209   0.316  25.965 -0.1342 -0.0664 -0.0459
50887W        W93940  21.832  23.452  25.494  0.2490  0.2771 -0.0717
50888W        W93941  10.938  17.160  16.055  0.0259  0.1588  0.1414
50889W        W93942   9.420  13.851   2.849 -0.1960 -0.2418  0.0612
50890W        W93943   0.208   5.398  15.060 -0.2484 -0.0492 -0.0478
50891W        W93944  25.870  26.063  16.329 -0.0893 -0.3788 -0.0096
50892W        W93945   1.019  20.923  22.604  0.0055  0.0937 -0.1586
50893W        W93946  29.964  25.452  15.333  0.1713 -0.0605  0.1539
50894W        W93947  31.576  31.500  20.208  0.1037  0.0668  0.0850
50895W        W93948   8.668  30.424  15.077 -0.0181 -0.0160  0.1598
50896W        W93949  17.527  12.758   6.544 -0.3069 -0.1225 -0.0806
50897W        W93950  33.980  32.236  18.631  0.0943 -0.0168 -0.1758
50898W        W93951  25.282  19.109  26.683 -0.0005 -0.0919  0.1498
50899W        W93952  34.393  13.522   0.511  0.1016  0.0808 -0.0722
50900W        W93953  26.515  18.215  22.584 -0.3593  0.0894  0.1578
50901W        W93954  28.715  32.807  15.981 -0.1317 -0.0011  0.0283
50902W        W93955   5.706  20.186  17.067  0.1123  0.1776 -0.0590
50903W        W93956  31.373  16.907  24.077 -0.0681 -0.0253  0.0731
50904W        W93957   3.984   0.537  24.602 -0.1190 -0.1376 -0.0442
50905W        W93958   4.705  15.834  27.557  0.0745 -0.0702 -0.1514
50906W        W93959   5.935  22.875  29.036  0.0880 -0.1263 -0.3979
50907W        W93960   0.942  18.996  19.993  0.1785  0.2156  0.0219
50908W        W93961  32.025   8.628  26.883  0.1045 -0.2494  0.0878
50909W        W93962  33.091   1.028  20.855 -0.0919 -0.1144 -0.1235
50910W        W93963   3.048  25.024   0.842  0.0090  0.0433 -0.3131
50911W        W93964  23.660  16.373  17.768  0.1138  0.1836 -0.4286
50912W        W93965  25.488   7.086  23.530  0.0950  0.3017 -0.1195
50913W        W93966   4.160  19.567  17.734  0.0286 -0.0073 -0.2923
50914W        W93967  16.845  14.043  14.832 -0.1630  0.2861  0.2802
50915W        W93968   0.089  22.860   6.158  0.0219 -0.3903  0.1158
50916W        W93969   2.727  19.401  17.979 -0.0192  0.0908  0.1515
50917W        W93970  10.246  29.964  17.072 -0.1958  0.2279  0.0125
50918W        W93971  33.083  20.555  20.208 -0.0925 -0.1073 -0.1401
50919W        W93972  33.475  23.732  16.815 -0.0309 -0.0094  0.1089
50920W        W93973  11.684  25.201  24.442 -0.0362  0.2653 -0.0608
50921W        W93974   6.560   4.978   0.219  0.1002 -0.2713  0.0032
50922W        W93975  31.634  23.593   2.700  0.0462  0.2373  0.0169
50923W        W93976  34.052  16.590  25.447 -0.1776  0.3239 -0.1328
50924W        W93977  27.417  13.184  15.332  0.0709 -0.0216  0.1749
50925W        W93978   6.854  34.036  26.718  0.1467  0.0573  0.1465
50926W        W93979  30.708  18.477  17.275 -0.2046  0.0105  0.0778
50927W        W93980  32.244  21.255  22.256 -0.0819 -0.1817  0.2299
50928W        W93981  13.665  13.427  17.354  0.0954 -0.0979  0.1114
50929W        W93982  30.971  12.353  14.810 -0.0501  0.4889 -0.0188
50930W        W93983   4.692  16.169  25.849 -0.0943 -0.1789  0.1490
50931W        W93984   4.077  28.646  15.459 -0.0061 -0.3433 -0.1241
50932W        W93985  27.379  15.290  27.295  0.3715 -0.0705  0.1669
50933W        W93986  31.093  15.218  14.902  0.2162  0.1956  0.1552
50934W        W93987  30.544  34.682  27.632 -0.0655 -0.3194  0.0648
50935W        W93988  20.670  15.239  13.712 -0.2195 -0.1450 -0.1616
50936W        W93989  30.180  30.144   2.139 -0.2105 -0.0043  0.1574
50937W        W93990  30.784  21.402  14.932 -0.2731  0.2412 -0.1427
50938W        W93991  11.451  19.399   2.883 -0.0215  0.1592  0.3394
50939W        W93992  23.878  21.064  17.038  0.1083 -0.2837 -0.0381
50940W        W93993   2.928  10.797  19.746  0.0224 -0.1805  0.3016
50941W        W93994  29.170  10.034  25.250  0.3207  0.0475  0.0498
50942W        W93995  29.538   1.833  24.504  0.1593  0.1125 -0.1735
50943W        W93996   5.701  29.698  18.861  0.0063  0.0099  0.1513
50944W        W93997  22.664  15.567   5.331  0.2589  0.3392  0.0317
50945W        W93998   2.842  33.176  17.322 -0.3017 -0.0483  0.0472
50946W        W93999   4.712   9.206  18.461 -0.1905  0.1965  0.1485
50947W        W94000   5.333   1.414  17.305 -0.3773 -0.2419  0.1976
50948W        W94001  30.035  28.671  17.688  0.0779 -0.3701  0.2312
50949W        W94002  20.625   8.107  14.751  0.2992 -0.2049 -0.0861
50950W        W94003   0.527  23.165  22.275 -0.0927 -0.0253  0.3689
50951W        W94004   7.830  28.591  21.733  0.3127  0.1602  0.1669
50952W        W94005  31.005  31.247  21.402  0.0024  0.1967  0.2200
50953W        W94006   4.994  13.074  16.799  0.1330 -0.0762 -0.0323
50954W        W94007   2.608   9.452  28.834  0.1102 -0.1512  0.2103
50955W        W94008   5.924  17.098  22.243  0.1512 -0.0483 -0.2041
50956W        W94009  33.362  21.142  17.606 -0.1409 -0.1824 -0.5401
50957W        W94010   2.001   3.486  24.902 -0.2776  0.1023  0.0408
50958W        W94011   9.717  18.701  27.530  0.0830 -0.0408 -0.0249
50959W        W94012  11.244  15.017  14.658 -0.1189 -0.0789 -0.0449
50960W        W94013  22.666   7.009  21.099  0.2962 -0.4498 -0.0774
50961W        W94014   1.110  19.032  19.009  0.0005 -0.0067 -0.2122
50962W        W94015  33.715  10.197  22.200  0.1235  0.1438 -0.1710
50963W        W94016  21.532  13.547  20.313 -0.4259  0.1673  0.0313
50964W        W94017  27.387  27.236  21.367 -0.2345  0.3452 -0.1952
50965W        W94018   9.072  21.180  19.367 -0.0725 -0.1393 -0.1077
50966W        W94019  21.073   1.812   1.629 -0.2812 -0.3890 -0.0551
50967W        W94020   0.184  19.344  18.981  0.2435  0.0563  0.0262
50968W        W94021  32.516   0.202  24.687  0.0438 -0.3575  0.1566
50969W        W94022  24.740  23.391   7.607  0.1419  0.1243 -0.2226
50970W        W94023   7.130  15.325  15.448  0.0624  0.0598  0.1313
50971W        W94024  14.559   6.851  26.543 -0.0099  0.0447 -0.0351
50972W        W94025  26.340  25.515  20.266 -0.2928 -0.1611  0.0268
50973W        W94026  10.623  13.515   3.341  0.0229 -0.1924  0.2327
50974W        W94027  33.296  17.784  18.312  0.0236 -0.5933  0.1535
50975W        W94028  28.238  21.848  21.783 -0.3366 -0.0372 -0.2252
50976W        W94029   1.454  14.719  20.678 -0.0740 -0.1831 -0.2310
50977W        W94030   0.819  12.228  21.730 -0.2129  0.2245 -0.1597
50978W        W94031  21.888  23.206  29.049 -0.1150 -0.1382  0.0841
50979W        W94032   4.771  26.780  17.708  0.2140  0.2130  0.1448
50980W        W94033   0.938  10.045  17.608 -0.2153  0.2587  0.1976
50981W        W94034  34.553  10.354  28.197  0.0644 -0.0979  0.0204
50982W        W94035   4.100  19.085  25.088 -0.2081  0.2285  0.1575
50983W        W94036  17.463  26.079  17.916 -0.1913 -0.0321  0.1693
50984W        W94037   8.414  29.129  21.362 -0.0942  0.2488 -0.0996
50985W        W94038  29.904  14.688  25.544  0.1350 -0.0962  0.3558
50986W        W94039   4.114  16.102   2.456 -0.0079 -0.1601 -0.0435
50987W        W94040  23.610  27.049  26.673  0.0371  0.1383  0.0888
50988W        W94041  26.945   1.461  25.915 -0.0671 -0.1781 -0.0558
50989W        W94042  22.769  23.013   0.888  0.3642 -0.1131 -0.0124
50990W        W94043   1.020  32.661  14.299 -0.2352 -0.3628  0.2932
50991W        W94044   4.913   8.985  21.240  0.1375  0.3304  0.4252
50992W        W94045   9.927  26.026  18.141 -0.0533  0.1718  0.0153
50993W        W94046   1.443  16.264  18.387 -0.0809 -0.1253 -0.0388
50994W        W94047  17.284  27.791  28.031 -0.2539  0.0209  0.1776
50995W        W94048  20.193  19.694   0.339  0.3647  0.2021 -0.0081
50996W        W94049  15.648   5.978  22.482  0.3539 -0.3770  0.1620
50997W        W94050   7.945  12.737   0.434  0.0036 -0.2276 -0.4252
50998W        W94051  32.238  24.670  15.602 -0.1538 -0.1976  0.0622
50999W        W94052  25.661  16.792   3.103 -0.1795 -0.0875 -0.4012
51000W        W94053  29.392  26.603  17.006 -0.3407  0.4783 -0.3462
51001W        W94054  17.401  10.863  21.616  0.1454 -0.0379  0.3762
51002W        W94055  11.296  19.805  18.648  0.1322  0.0085 -0.5357
51003W        W94056   1.731  16.004  21.117  0.0340  0.0988 -0.2860
51004W        W94057   5.348  17.608   6.431 -0.0507  0.0206 -0.0560
51005W        W94058  26.013  11.625  23.900 -0.0814 -0.1359 -0.1567
51006W        W94059  29.876  21.328  16.190 -0.0288  0.1235  0.0533
51007W        W94060  25.265  21.688   2.120  0.1248  0.0054 -0.2828
51008W        W94061  21.656  17.210  16.245 -0.0274  0.1341  0.1267
51009W        W94062   2.593  33.267  20.136  0.1806  0.0799  0.2827
51010W        W94063   2.961  21.048  20.773  0.2163 -0.3598  0.0904
51011W        W94064  31.859  12.810  17.974 -0.0626 -0.0306  0.0957
51012W        W94065  19.238  11.072  26.877  0.3243  0.1017  0.2028
51013W        W94066  28.196  31.575  15.680 -0.1850  0.1597 -0.3371
51014W        W94067  12.152  31.668  23.755 -0.0983 -0.5359 -0.0742
51015W        W94068  19.604  29.544  19.322  0.0353 -0.0548  0.2843
51016W        W94069  14.141  25.628  22.663 -0.0237 -0.0783 -0.1993
51017W        W94070  33.260   0.333  18.536 -0.0440  0.1121 -0.0267
51018W        W94071  33.857  18.542  17.339  0.0750  0.0054  0.0324
51019W        W94072   0.591  23.397  15.632 -0.1513  0.2117  0.0694
51020W        W94073  10.988  18.463  25.304  0.3118  0.2947 -0.0207
51021W        W94074  27.276  26.472  17.830 -0.0234  0.0822 -0.1037
51022W        W94075  23.838   0.282   5.515  0.0765 -0.0957 -0.1895
51023W        W94076  25.368  23.813  15.147 -0.0682 -0.4687 -0.0582
51024W        W94077   3.901  15.712  14.062  0.0334 -0.1673  0.2577
51025W        W94078  33.971  13.694   0.959 -0.0363  0.2791  0.1877
51026W        W94079   6.913  15.217  14.016  0.1898 -0.0158  0.1511
51027W        W94080   8.944   9.326  26.511 -0.1647 -0.2977 -0.0538
51028W        W94081  26.168  27.039  19.150  0.0163  0.0149 -0.2979
51029W        W94082  23.881   6.506  19.405 -0.0523 -0.2656 -0.2493
51030W        W94083   9.355  19.405  24.222 -0.1032 -0.1779  0.0382
51031W        W94084   3.154  33.868  22.075 -0.0020 -0.1424 -0.0833
51032W        W94085  25.370  18.149  18.162  0.0067  0.2452 -0.0350
51033W        W94086  33.936   7.013  26.647 -0.1095 -0.0865 -0.2211
51034W        W94087  28.615  14.048  14.612 -0.0370 -0.3057 -0.0911
51035W        W94088   2.938   1.950  22.279  0.0905 -0.0887 -0.0199
51036W        W94089  27.318  19.068  28.010  0.0550 -0.1627 -0.2830
51037W        W94090  25.419  24.192  23.713 -0.1424  0.0762  0.0773
51038W        W94091  19.532  32.679  15.021  0.0483  0.2800 -0.1217
51039W        W94092  31.048  10.226   1.601 -0.0030  0.0522  0.0082
51040W        W94093  24.577  21.229  22.648  0.3378  0.2741 -0.2991
51041W        W94094  33.990  26.288  20.392 -0.0093 -0.2245 -0.2179
51042W        W94095   1.885   3.689  18.116  0.2396 -0.2143  0.0399
51043W        W94096  32.858   7.232  17.309  0.1560 -0.1391 -0.0533
51044W        W94097  31.677  25.932   6.259 -0.0866  0.1434  0.0569
51045W        W94098   9.809  17.866  19.984  0.3096  0.0216  0.0357
51046W        W94099  14.192  29.512   5.549  0.0331  0.1421 -0.4281
51047W        W94100   4.238  27.165  26.544 -0.0187 -0.0743 -0.1303
51048W        W94101   5.943  27.466  14.226 -0.0052 -0.2586 -0.0476
51049W        W94102   2.159  12.560   9.105 -0.0433  0.1272  0.2643
51050W        W94103   0.819   5.075  17.219  0.1015 -0.3830 -0.1277
51051W        W94104  27.922  22.126  21.480  0.1102 -0.1382 -0.1804
51052W        W94105   1.709  26.096   1.203 -0.2043 -0.0780  0.1338
51053W        W94106   1.596  26.213   5.057 -0.3647 -0.3360 -0.1918
51054W        W94107  12.175  32.589  23.844 -0.1322 -0.2500 -0.0916
51055W        W94108   9.679   0.199  14.987  0.1178 -0.0354 -0.1004
51056W        W94109  15.898  21.335  16.267  0.1798 -0.0539  0.2724
51057W        W94110   6.644   5.204  19.115 -0.0280  0.1275  0.3152
51058W        W94111   9.113  21.475  17.392 -0.0841  0.0803  0.3290
51059W        W94112   6.814  16.071  14.466 -0.0926  0.1170 -0.0692
51060W        W94113  10.599  10.108  28.306 -0.2622 -0.0925  0.0502
51061W        W94114  28.901  17.833   1.140  0.0185 -0.2906 -0.1617
51062W        W94115  30.698  26.975  14.447 -0.1943  0.1799 -0.1245
51063W        W94116   4.950  11.267  15.511 -0.1719  0.1203 -0.0916
51064W        W94117  32.230  26.627  14.862 -0.2216  0.2551  0.1583
51065W        W94118   7.766   3.094  23.590  0.1728  0.0270  0.2791
51066W        W94119  27.913  24.220  16.943  0.1084 -0.0415 -0.4479
51067W        W94120  25.091  21.868  22.276  0.2991  0.0779 -0.0200
51068W        W94121   6.951  21.871   0.752  0.0701  0.2015  0.1109
51069W        W94122  21.681   2.235  16.100  0.0437  0.2068 -0.0514
51070W        W94123  22.229  34.305  21.275 -0.0426  0.0969 -0.0386
51071W        W94124   3.495  29.041  25.783  0.0894  0.1415  0.0288
51072W        W94125   2.718  23.109  23.100 -0.0120  0.2279 -0.2440
51073W        W94126  18.533  17.133  26.356  0.0536 -0.2048 -0.0826
51074W        W94127  25.551  31.045  20.720  0.3001  0.0124 -0.2882
51075W        W94128   0.943   9.953  29.151 -0.0328 -0.2620  0.0959
51076W        W94129  17.852  29.333   9.446  0.0723 -0.3027  0.2176
51077W        W94130   8.562  13.522  23.924  0.1469 -0.0583  0.0637
51078W        W94131  24.578  18.183  26.447 -0.3970  0.0943  0.1331
51079W        W94132  33.684  17.342  27.598  0.0295 -0.2562  0.0867
51080W        W94133   3.347  17.364   7.337 -0.2040  0.0471  0.0649
51081W        W94134  11.064  24.458  13.225 -0.0240  0.0357  0.3219
51082W        W94135  21.720  13.253  17.681  0.0327 -0.1673 -0.2198
51083W        W94136  12.817  28.474  23.195 -0.1988  0.1475 -0.0507
51084W        W94137   5.709   9.626  19.975 -0.3276  0.0699 -0.2773
51085W        W94138  13.836  24.774  28.014  0.4047  0.3180  0.0187
51086W        W94139   7.467  31.691  26.204  0.0095 -0.0546  0.1465
51087W        W94140  29.156  33.056  16.789  0.2377 -0.0345  0.2383
51088W        W94141  34.470  14.441  20.990 -0.0229  0.0421 -0.0777
51089W        W94142  32.185  17.598  26.125  0.4871 -0.1118 -0.1538
51090W        W94143   9.736  23.077  25.658 -0.1100  0.1402 -0.0653
51091W        W94144  30.542  27.779  19.363 -0.2057 -0.0587  0.1731
51092W        W94145  14.340  26.145  14.847 -0.1799  0.0360 -0.1854
51093W        W94146  24.216   7.345  23.519  0.1304  0.1346  0.0385
51094W        W94147  23.705  13.232  21.135  0.0167 -0.2482  0.0694
51095W        W94148   5.767  27.324  16.597  0.2599  0.0258 -0.2837
51096W        W94149   9.397   7.135   6.385  0.3163  0.0374 -0.0805
51097W        W94150  33.714   1.988  19.650 -0.3039 -0.0019 -0.0923
51098W        W94151   3.464  14.368  17.304  0.0954 -0.1994  0.2616
51099W        W94152   8.857  13.516  27.470  0.1035 -0.1232  0.0006
51100W        W94153  21.963  18.420   3.631  0.0960 -0.0629 -0.0253
51101W        W94154  15.361  23.846  26.545  0.0019  0.0303  0.3333
51102W        W94155  22.135  25.508  17.760 -0.1749  0.6020 -0.1195
51103W        W94156  23.541   3.802  21.273  0.1598  0.0636 -0.1327
51104W        W94157  23.351   1.046  21.126 -0.1869 -0.1587  0.0175
51105W        W94158   5.241  30.863  14.061 -0.2805  0.2422  0.2599
51106W        W94159   0.239   7.036  18.202 -0.2013 -0.0284  0.0568
51107W        W94160  30.735  32.017  22.529 -0.2994  0.0379 -0.4131
51108W        W94161  19.757  26.801   4.381  0.0852 -0.1834  0.3840
51109W        W94162   5.848   6.285  17.073 -0.2090  0.0811  0.2195
51110W        W94163  32.225  27.898  19.727  0.0449 -0.0076  0.1364
51111W        W94164  21.378   7.092  15.208 -0.0531 -0.2766  0.1642
51112W        W94165  32.352  29.394   9.042  0.2414 -0.2666 -0.2664
51113W        W94166  29.802  25.923  15.021 -0.0964  0.1710 -0.0566
51114W        W94167  34.498  17.334  16.871  0.0736 -0.1421 -0.1760
51115W        W94168   0.141  16.821  18.241 -0.0038  0.2680 -0.1620
51116W        W94169  17.341  29.401  22.421  0.4290 -0.2627  0.0170
51117W        W94170   1.758   6.214  18.734 -0.2014  0.0531  0.1002
51118W        W94171   5.226  13.197  18.814  0.3108 -0.0243 -0.1293
51119W        W94172   3.640  28.692  18.385  0.0203  0.1419 -0.1492
51120W        W94173  13.333  31.549  23.304 -0.0246  0.0789  0.1293
51121W        W94174  31.917   3.512  26.299  0.2800 -0.0586  0.0965
51122W        W94175  30.275  25.983   4.775  0.1618 -0.1317  0.1596
51123W        W94176   2.488  19.847  17.787  0.0891  0.3134 -0.2791
51124W        W94177  24.864  24.621   6.483  0.0704 -0.1731  0.0459
51125W        W94178   1.481  14.401  22.489  0.1559 -0.2764  0.2233
51126W        W94179  25.765   7.905   4.486 -0.0968  0.0944 -0.0973
51127W        W94180  26.174  14.352  16.565  0.2861  0.0953 -0.0470
51128W        W94181   7.306  10.736  20.812 -0.0542  0.1015 -0.2179
51129W        W94182  26.256  18.484   4.073 -0.3771  0.2849  0.0605
51130W        W94183  18.327  21.837   5.082 -0.2523  0.1103 -0.1293
51131W        W94184  12.596  18.782   1.961 -0.2347  0.1345 -0.2295
51132W        W94185   4.813  14.319  23.452 -0.1251  0.2367 -0.2489
51133W        W94186   4.154  22.551  21.182 -0.2012  0.1730 -0.3379
51134W        W94187  24.709  30.362  15.327 -0.0695 -0.0730  0.2578
51135W        W94188  33.971   7.485  16.679 -0.0761 -0.2776 -0.1009
51136W        W94189  13.631  21.592  14.905  0.1332  0.0741 -0.3532
51137W        W94190  21.244   9.464  18.292  0.1671 -0.1145 -0.1056
51138W        W94191   1.502  16.332  12.875 -0.2108 -0.2937  0.0344
51139W        W94192   3.481  12.098   0.895  0.1942  0.1561  0.1127
51140W        W94193  22.428  30.465  14.963  0.1296 -0.0183  0.2501
51141W        W94194  32.030  19.507  19.380  0.1507  0.1402 -0.3389
51142W        W94195  21.555  24.009  20.043  0.1866 -0.0347 -0.1469
51143W        W94196   7.396  20.269  20.420  0.0832  0.2516  0.1049
51144W        W94197  24.356  27.549  27.842 -0.3941 -0.0259 -0.1906
51145W        W94198   4.711  14.070  14.758  0.1314 -0.0825  0.3193
51146W        W94199  29.053  11.022  16.093  0.2464  0.1562 -0.4190
51147W        W94200   1.740   9.141  18.177  0.0157  0.1852 -0.1850
51148W        W94201  23.464  21.255  22.749  0.0327  0.1720 -0.0529
51149W        W94202   2.350  19.730   9.710  0.0689  0.1351  0.1294
51150W        W94203  34.413  17.925  25.221 -0.1161 -0.0834  0.2771
51151W        W94204  19.733  15.329   4.452  0.2871  0.1388  0.0514
51152W        W94205  13.245  19.959  14.393  0.2729  0.0969  0.1002
51153W        W94206  30.906  15.863   6.363 -0.0676 -0.1247 -0.0794
51154W        W94207  31.654  20.114   3.548  0.1880  0.2283  0.1723
51155W        W94208   2.086  14.201  23.400 -0.0707  0.0351 -0.0327
51156W        W94209   0.670  21.917  13.894 -0.0536  0.0813  0.2636
51157W        W94210  32.219  23.830  25.697  0.1832  0.0920  0.0570
51158W        W94211  31.678  25.616  24.455  0.3779 -0.1426 -0.0429
51159W        W94212   0.102  21.772  26.592  0.0485 -0.3984  0.2360
51160W        W94213  10.188  22.002  18.925 -0.1830  0.0369 -0.1430
51161W        W94214  26.807  12.352  27.091  0.3194  0.3361 -0.2531
51162W        W94215  26.579  21.927  19.941 -0.5238  0.2023  0.1834
51163W        W94216   8.341  23.863  19.729  0.2707  0.0697  0.0120
51164W        W94217  28.756  21.224   0.389  0.0074 -0.3081 -0.1650
51165W        W94218  24.118  24.016  21.223  0.3088  0.3602  0.2164
51166W        W94219  29.347  26.066  17.144  0.0747 -0.0073  0.0097
51167W        W94220  27.890  18.492  18.909  0.2275 -0.3773  0.0979
51168W        W94221   3.057   2.655  13.456  0.0923 -0.2259 -0.2137
51169W        W94222   1.964   7.509  25.839  0.2741  0.1886  0.1305
51170W        W94223  33.090  26.023  28.825  0.1265 -0.1778  0.1571
51171W        W94224  11.349  17.283   8.116  0.0082 -0.0621 -0.2678
51172W        W94225   0.312  12.153  28.111 -0.0427  0.0328  0.1705
51173W        W94226  11.695  19.690  23.539  0.0784  0.5198  0.2848
51174W        W94227   0.060  24.714  23.663  0.3725 -0.0078  0.1437
51175W        W94228   6.973  34.044   5.123  0.2344 -0.0684 -0.0416
51176W        W94229  25.038  15.047  21.424 -0.0448 -0.1470  0.0552
51177W        W94230   3.273   4.236  20.264  0.0144 -0.0597  0.1181
51178W        W94231   8.044  26.754  20.295  0.0837  0.1207 -0.0587
51179W        W94232   2.851   7.747  26.939 -0.1312 -0.0150 -0.0505
51180W        W94233  20.574  31.586  24.723 -0.0702 -0.4104  0.0654
51181W        W94234  25.989  20.230  28.560 -0.1520  0.2588  0.0039
51182W        W94235   7.065  16.577  14.431  0.1267 -0.0184 -0.0861
51183W        W94236   3.462  27.760  14.172 -0.1431 -0.2331 -0.0822
51184W        W94237  21.562  22.360  28.654 -0.0424  0.0800 -0.1597
51185W        W94238  11.704  22.911  21.749  0.0776 -0.0940 -0.0638
51186W        W94239   4.350  15.212   3.257 -0.0048 -0.1640  0.2392
51187W        W94240  33.998  16.587  16.542 -0.1946  0.1774  0.0891
51188W        W94241  28.854  27.233  24.617  0.1927 -0.0248  0.1058
51189W        W94242  33.636  28.626   4.110 -0.2603 -0.3856 -0.0254
51190W        W94243  29.010   8.679  25.950 -0.1381 -0.1746  0.1210
51191W        W94244   2.191  19.385   5.617  0.0290 -0.0045  0.2075
51192W        W94245  30.069  22.376  19.252  0.0833  0.2349  0.1431
51193W        W94246  22.125  19.710  20.387  0.1160  0.0251 -0.0266
51194W        W94247  27.769   6.437  21.538  0.1138  0.1205 -0.1561
51195W        W94248  28.507  30.742   6.589 -0.0457  0.5751  0.0726
51196W        W94249  28.953   4.820   5.762  0.0211 -0.2618 -0.1124
51197W        W94250   1.007  17.152   2.734 -0.2397  0.0849  0.3384
51198W        W94251  17.069  25.352  19.252 -0.0382  0.1481 -0.1587
51199W        W94252  31.197  13.147  20.313 -0.0583  0.0639  0.1012
51200W        W94253  23.942  16.675  12.981 -0.4029 -0.0056  0.1560
51201W        W94254   9.777  14.191   5.620 -0.1091  0.1578  0.3209
51202W        W94255  13.191  25.045  23.505  0.1533 -0.3349  0.0017
51203W        W94256  32.179  18.082  16.372 -0.1600 -0.1059  0.0666
51204W        W94257  22.793  23.321  20.794  0.0989 -0.3702  0.0370
51205W        W94258  22.407  22.814  24.498 -0.1075  0.1761 -0.0117
51206W        W94259   3.581  26.867  19.968  0.1657 -0.1233 -0.0829
51207W        W94260  21.162  27.394  22.562  0.1075  0.1803  0.1014
51208W        W94261  26.965   8.482  10.162  0.0504  0.1307 -0.0293
51209W        W94262  26.776  17.736  20.784  0.2040 -0.1551 -0.1853
51210W        W94263  28.650   3.459  16.534 -0.0305 -0.2429  0.1088
51211W        W94264  28.509  24.675  16.455  0.1116  0.0096 -0.0570
51212W        W94265  10.019  21.197  20.374  0.1204 -0.3307  0.0457
51213W        W94266  23.461  13.309  27.127 -0.0051 -0.0289 -0.1407
51214W        W94267  29.761  26.165  19.587  0.1573 -0.0226  0.1377
51215W        W94268  25.941  23.578   3.610  0.0023 -0.0252  0.1457
51216W        W94269  13.384  15.900  27.288  0.2132 -0.0372 -0.1510
51217W        W94270   1.576  26.016  27.637 -0.2518  0.3037 -0.0086
51218W        W94271   4.213  25.641  21.302  0.1029  0.1166  0.1326
51219W        W94272  27.089  23.515  25.496 -0.4016 -0.0450 -0.3154
51220W        W94273  29.644   8.842   3.181  0.0202  0.2045  0.0301
51221W        W94274   1.352   8.982   5.248 -0.2495 -0.0845  0.0768
51222W        W94275   3.606  16.957  24.415  0.0853 -0.2508 -0.1667
51223W        W94276   0.728  34.270  20.841 -0.1824 -0.1994  0.1985
51224W        W94277   6.945  20.379  28.246  0.1888  0.0160 -0.1557
51225W        W94278  20.166  31.104  16.508  0.0356  0.2389 -0.0329
51226W        W94279   1.776  20.637  26.599 -0.0890 -0.1988  0.0884
51227W        W94280   6.441  16.861   8.354  0.0731  0.0719  0.1384
51228W        W94281   2.999   8.722  17.948  0.1203  0.4542  0.0159
51229W        W94282  32.270  23.290  26.548 -0.0191  0.0716 -0.1774
51230W        W94283  28.894  14.921  21.494  0.2694 -0.0076  0.1097
51231W        W94284  24.043  29.367  20.662 -0.2965 -0.1756 -0.1381
51232W        W94285   5.056  33.211  20.039  0.1342  0.3388  0.0515
51233W        W94286  26.736   0.471  25.895  0.1571  0.1357 -0.0236
51234W        W94287   8.889  16.362  15.134 -0.1667  0.1513 -0.3040
51235W        W94288   3.174  18.863  15.564  0.1993 -0.1090  0.0244
51236W        W94289   6.470  15.686   4.222  0.0709  0.0121  0.1579
51237W        W94290   1.957  34.033  15.908  0.0523  0.1733  0.0425
51238W        W94291   7.825   7.717  15.228 -0.1680 -0.2217  0.1162
51239W        W94292  21.875   9.689  21.755 -0.1249 -0.0364 -0.1600
51240W        W94293  12.677   0.270  22.920 -0.3156 -0.0322 -0.0608
51241W        W94294  23.013  16.011  17.148  0.0086  0.0443  0.0433
51242W        W94295  23.411  17.897   0.739 -0.3350 -0.1333 -0.0688
51243W        W94296  30.098  26.054   9.190 -0.1884 -0.2564  0.1337
51244W        W94297   6.929  21.817  25.812  0.1609  0.0237  0.2457
51245W        W94298  27.654   4.256  20.951  0.1204 -0.0092  0.1321
51246W        W94299  19.345   4.382   2.325 -0.0655 -0.3491 -0.0139
51247W        W94300  28.215  27.811  15.514  0.0799  0.1623 -0.3486
51248W        W94301  25.302  19.315   0.717  0.2159 -0.3016 -0.2510
51249W        W94302  33.047  17.320  21.312 -0.2057  0.0888 -0.1084
51250W        W94303   4.010  30.483  17.099 -0.2435 -0.2024  0.0177
51251W        W94304   1.563  13.667  22.079 -0.0038  0.0238  0.0999
51252W        W94305  11.804  16.369   9.599 -0.6275  0.2474 -0.0068
51253W        W94306   3.155  24.720  24.490  0.1851 -0.1300 -0.1838
51254W        W94307  31.053   0.991  24.548 -0.1174 -0.1142  0.2283
51255W        W94308  33.184  23.397  17.734 -0.0154 -0.0607  0.4718
51256W        W94309   9.504  15.405  28.035 -0.2388  0.3241  0.2559
51257W        W94310  21.055  15.386  26.189  0.2690  0.1074  0.4883
51258W        W94311  25.359  18.502  17.780  0.2438 -0.2634  0.0796
51259W        W94312   2.967  18.080  14.338 -0.2777  0.0838  0.2405
51260W        W94313  26.076  34.070  23.698  0.0371 -0.0285 -0.1727
51261W        W94314  30.299   3.881  18.328  0.2233 -0.1424  0.0034
51262W        W94315  33.323  30.255  27.490  0.1410  0.0135 -0.0437
51263W        W94316  26.681  33.536  28.873  0.0507  0.0123 -0.1780
51264W        W94317   3.640  12.863  25.639 -0.2723  0.2737 -0.1892
51265W        W94318   5.433   7.493  28.950 -0.0266 -0.3642  0.0818
51266W        W94319  29.918  31.073  24.752 -0.0054  0.0844 -0.2162
51267W        W94320  33.349  33.499  26.803  0.2231 -0.1600  0.0238
51268W        W94321  20.823   0.493  17.671  0.0354  0.0500 -0.0163
51269W        W94322  12.617  25.239   2.575 -0.1018  0.1241 -0.0441
51270W        W94323  20.349  29.409  27.455 -0.0989 -0.0408 -0.1902
51271W        W94324   4.867   0.400  24.421 -0.2688  0.0541  0.2563
51272W        W94325   3.402  15.665  28.905 -0.4778  0.1505 -0.0159
51273W        W94326  29.410  19.524  16.760 -0.3697 -0.0324  0.1593
51274W        W94327  23.790  25.019  26.724 -0.1071 -0.0358 -0.0164
51275W        W94328  25.283  16.398  21.244 -0.0796 -0.0753  0.4413
51276W        W94329  28.684  32.420  15.452  0.0286  0.0785 -0.1028
51277W        W94330   7.836  13.925  16.359  0.0805 -0.0095  0.1415
51278W        W94331  17.802  19.365  14.060  0.0117  0.1266  0.1427
51279W        W94332   8.813  14.991  19.934 -0.0050  0.0478  0.1372
51280W        W94333   0.840  12.927  27.042 -0.2089 -0.2648 -0.1819
51281W        W94334  15.998  21.746   7.144  0.1575 -0.0901 -0.1130
51282W        W94335  14.825  27.048  26.416  0.4031  0.0465  0.0959
51283W        W94336  27.896  26.205   1.370  0.2071 -0.1768  0.1188
51284W        W94337   2.027  23.784   4.201  0.1224 -0.0408 -0.1017
51285W        W94338  23.953  24.870   8.490  0.2240 -0.0758  0.0762
51286W        W94339   8.395  20.979  15.120 -0.0419 -0.0379  0.0123
51287W        W94340  15.614  29.163   5.132 -0.1692  0.1105 -0.2387
51288W        W94341  30.603  17.517  16.639  0.1890 -0.0186  0.2093
51289W        W94342  25.091  19.515  27.091 -0.1688  0.1698 -0.0626
51290W        W94343  32.993   3.245   2.837  0.1507  0.3091 -0.1167
51291W        W94344   8.133  14.855  28.256 -0.1294 -0.4248  0.2187
51292W        W94345  29.130  26.148  16.239 -0.2028 -0.1866 -0.0139
51293W        W94346   3.080  16.059  14.339  0.2996 -0.1636 -0.1544
51294W        W94347  17.349  29.053   2.685 -0.4949 -0.0626  0.2572
51295W        W94348  34.519  23.379  23.872  0.2309  0.0299  0.1369
51296W        W94349  28.637  25.083  13.900  0.1063 -0.1912 -0.1306
51297W        W94350  26.967  26.361  21.759  0.0756 -0.0691  0.0327
51298W        W94351  30.776  31.488  20.339  0.1248  0.1880 -0.3799
51299W        W94352  29.313  33.959  23.004 -0.1548 -0.0471  0.2078
51300W        W94353  25.142  31.192  27.273  0.3052  0.0542  0.0087
51301W        W94354  22.966   8.588  18.851  0.2888 -0.0140 -0.2928
51302W        W94355  30.797  19.002  25.716 -0.1317  0.0199  0.2396
51303W        W94356   1.783  18.850  23.199 -0.0230  0.2781  0.1156
51304W        W94357  25.533  15.114  17.367 -0.3248  0.2193  0.3091
51305W        W94358   1.300   5.115  21.744 -0.0317 -0.0842  0.1122
51306W        W94359  31.122  26.040  16.099  0.2657  0.0847 -0.0819
51307W        W94360  12.870  21.238   0.158  0.1770 -0.0325  0.0117
51308W        W94361  27.884   3.855  14.368 -0.1084  0.2521 -0.1615
51309W        W94362   5.793  18.367   0.833 -0.0258  0.1276 -0.1287
51310W        W94363  29.387  24.216  23.231  0.3444  0.3104 -0.0909
51311W        W94364  24.329  29.118   3.208  0.2099  0.3522 -0.2152
51312W        W94365   4.763  20.449  18.163 -0.1164 -0.1804 -0.0728
51313W        W94366  26.771   4.165  28.643 -0.0952 -0.1145  0.1919
51314W        W94367  27.999  19.234  19.292  0.1917  0.0674  0.2256
51315W        W94368  25.137  12.653  25.123  0.2268  0.0425  0.3088
51316W        W94369  25.341  28.561   6.759  0.0790  0.0204  0.1413
51317W        W94370  15.901  30.806  24.169  0.0407 -0.0269  0.1579
51318W        W94371  33.959   7.784  21.581  0.1663  0.2790  0.1703
51319W        W94372  15.691  27.028  21.459 -0.1143  0.2904 -0.3105
51320W        W94373  15.322   2.245  16.015  0.1479  0.2561 -0.0479
51321W        W94374   3.620   4.491  28.244 -0.1281 -0.0368 -0.0735
51322W        W94375  29.111  22.305   7.966  0.0199  0.1027  0.2321
51323W        W94376   9.578  21.536  16.226  0.0344  0.0053 -0.1488
51324W        W94377  25.493   0.599  15.709  0.0764 -0.0909 -0.3830
51325W        W94378  21.596  15.981  17.745 -0.1295  0.0000 -0.2057
51326W        W94379  19.862  22.457  23.064  0.4266  0.4291  0.0166
51327W        W94380   8.409   6.785  26.975 -0.2836  0.3620  0.2216
51328W        W94381   2.208  16.213  23.302  0.0548 -0.3639  0.2878
51329W        W94382  26.821  26.821  24.826  0.1392  0.0426 -0.2373
51330W        W94383  34.231  27.958  25.120 -0.1640 -0.1551  0.1316
51331W        W94384  25.206  28.320   4.545  0.3360  0.0072 -0.2574
51332W        W94385  27.020  25.253  19.272  0.1614  0.0115 -0.5123
51333W        W94386  17.702  15.147   0.566  0.7165 -0.2095  0.1366
51334W        W94387   1.435  25.672  19.378 -0.3185 -0.0636 -0.3876
51335W        W94388  32.470   0.706  19.041 -0.0504 -0.2173 -0.2234
51336W        W94389  28.212  26.343   8.763  0.0920 -0.2166  0.0770
51337W        W94390  27.077   9.943  25.523 -0.4035  0.3564 -0.1381
51338W        W94391  30.415  10.965  24.592  0.2284 -0.0084  0.0324
51339W        W94392  19.787  21.885  14.284 -0.1302  0.3254  0.0786
51340W        W94393   1.337  25.659  21.451  0.3398 -0.0088  0.0849
51341W        W94394   7.139  12.958  14.377  0.0030 -0.3225 -0.3647
51342W        W94395  30.816  19.495   0.315 -0.0705  0.1335  0.0909
51343W        W94396  15.827   3.817  16.156  0.0998  0.0675  0.0563
51344W        W94397  24.163  15.768  23.003  0.0937 -0.2275  0.2929
51345W        W94398   5.217  21.685  20.543 -0.0221  0.0316  0.0093
51346W        W94399   0.843   4.572  15.250 -0.2423 -0.0925 -0.3717
51347W        W94400  32.748  19.925   5.967  0.2259  0.0518 -0.1337
51348W        W94401  26.603  14.440  16.901  0.6740 -0.1105  0.6064
51349W        W94402  26.818  22.138  17.792  0.0554  0.1121  0.1230
51350W        W94403  26.792  12.834  27.014 -0.3952  0.1428 -0.0655
51351W        W94404  26.876  30.559  19.131  0.2358 -0.0328  0.2540
51352W        W94405  11.206   2.588  15.198  0.1113  0.0159  0.1348
51353W        W94406   2.699  29.782  26.087  0.4517 -0.3064  0.0135
51354W        W94407   8.311  20.020  22.563  0.0956 -0.0557  0.0542
51355W        W94408  33.514  23.139   8.215 -0.1410  0.2259  0.0654
51356W        W94409  10.407  18.887   3.623 -0.1729  0.0601 -0.1711
51357W        W94410   8.766  30.845   2.022  0.0486 -0.2292 -0.1217
51358W        W94411  27.209  19.273  22.362  0.0639  0.2768 -0.1046
51359W        W94412  27.141  17.338  15.263 -0.0095  0.2648 -0.1077
51360W        W94413  22.797  16.011  24.895 -0.1186 -0.2312 -0.1268
51361W        W94414   1.343  17.953  15.633 -0.2016 -0.1734  0.1200
51362W        W94415  32.184  32.451  16.714  0.2751 -0.0729  0.1433
51363W        W94416   9.718  14.945  19.214  0.1153 -0.1838 -0.1244
51364W        W94417  25.747  16.815   4.721  0.0194  0.2131  0.1595
51365W        W94418  34.526   5.951   9.258  0.3504 -0.1280 -0.2144
51366W        W94419  20.414  12.341  18.948  0.3085  0.0458 -0.1017
51367W        W94420  30.489  14.026   5.102  0.1246 -0.1308  0.0772
51368W        W94421   6.432   1.571   3.925  0.0214 -0.3484 -0.0367
51369W        W94422   4.587  27.211   2.568  0.3894  0.4829  0.2837
51370W        W94423  23.648   1.518  16.003 -0.1764 -0.0805 -0.0697
51371W        W94424  25.400  33.774  27.189 -0.1723 -0.1996  0.1743
51372W        W94425  27.067   4.004   7.336  0.0468 -0.2957  0.2022
51373W        W94426  29.263  11.764  21.101  0.1968  0.0915  0.0976
51374W        W94427  25.162  12.106  27.143 -0.0169  0.0288 -0.0780
51375W        W94428   2.305  12.119   3.520  0.0838  0.2431  0.2110
51376W        W94429   2.107  25.316  27.297  0.2702  0.1150 -0.1046
51377W        W94430  33.182  22.709  24.100 -0.3231 -0.2594  0.0831
51378W        W94431   3.142  29.633  28.157 -0.1035 -0.1154  0.4020
51379W        W94432  29.692  22.477  18.885  0.0356  0.0383 -0.1043
51380W        W94433  29.722  28.775   2.567 -0.0235 -0.0637 -0.0687
51381W        W94434  33.852  22.275  23.663 -0.1117 -0.3390 -0.0760
51382W        W94435  27.187  26.977  17.968  0.4465 -0.1642  0.0097
51383W        W94436   1.926  13.063  27.370  0.0674 -0.0170  0.1498
51384W        W94437   7.359  16.776   7.525 -0.1239  0.2248  0.2933
51385W        W94438  32.784  11.409   1.859 -0.3226  0.0676  0.0998
51386W        W94439   7.666  33.797   8.315 -0.4066  0.1169 -0.0494
51387W        W94440   4.001  20.519  23.809  0.0907 -0.0633  0.0830
51388W        W94441  23.734  26.017  24.226 -0.0644 -0.1069 -0.0919
51389W        W94442  28.820  25.839   3.856  0.1778  0.0416 -0.1142
51390W        W94443  31.298  16.685   0.014  0.2333  0.0016 -0.0123
51391W        W94444  34.619  27.792   3.109  0.1275  0.2068  0.3138
51392W        W94445  29.441   4.353  20.162 -0.1348 -0.0941  0.0408
51393W        W94446  25.562  21.094   4.338 -0.3831 -0.1037 -0.1026
51394W        W94447   3.071  16.970   8.255 -0.0471  0.0024  0.2330
51395W        W94448   9.893   6.996  17.196  0.0681  0.0178  0.0617
51396W        W94449  24.120   1.972   9.438  0.0283  0.3832  0.2534
51397W        W94450   3.698  15.131   3.765 -0.0492  0.2520  0.4046
51398W        W94451  18.424  23.694   9.032  0.0186 -0.0203  0.2326
51399W        W94452  27.445  32.909   3.193 -0.1216 -0.3385 -0.3360
51400W        W94453  26.871  29.933  18.325  0.1319 -0.4357 -0.1235
51401W        W94454  25.750  26.840  20.302  0.1663 -0.1289 -0.1139
51402W        W94455   2.404  10.165  28.270  0.1516 -0.2958  0.2127
51403W        W94456   2.130  17.856   4.268 -0.1851  0.1977 -0.0142
51404W        W94457  30.421   9.210   7.667  0.1966 -0.0414 -0.0159
51405W        W94458  31.406  28.421   9.720 -0.3387 -0.2647 -0.2435
51406W        W94459  33.111  31.035   0.558  0.1296 -0.2362 -0.0609
51407W        W94460  27.725  30.380  22.571  0.0497 -0.0153 -0.2411
51408W        W94461  26.542  25.572  24.981 -0.1854 -0.2228 -0.1506
51409W        W94462   5.918  16.469   2.333 -0.0726 -0.2921 -0.0486
51410W        W94463   5.655  23.755  16.760 -0.0507 -0.1020 -0.0521
51411W        W94464   9.659  26.269  21.986 -0.0507  0.0597 -0.2087
51412W        W94465  27.834  26.687  21.993  0.0441  0.1145  0.0421
51413W        W94466   0.542  16.156  17.457 -0.1357  0.0365  0.0706
51414W        W94467  21.869  18.391   5.283 -0.1275 -0.1654  0.0664
51415W        W94468  16.202   9.053  18.682 -0.1741 -0.0405 -0.1760
51416W        W94469  29.598  23.751   9.240  0.1055 -0.2121  0.2624
51417W        W94470  32.055  18.096  14.229 -0.1667 -0.0055 -0.0242
51418W        W94471  18.265   8.879  15.481 -0.4497  0.1162  0.2707
51419W        W94472  31.465  28.061   3.757  0.1712  0.1079 -0.1617
51420W        W94473   2.300   3.174   5.818  0.0666  0.3235  0.1335
51421W        W94474   3.337  18.275  22.321  0.0744 -0.0410 -0.0442
51422W        W94475  14.132   0.189  17.654 -0.0351 -0.1352 -0.1115
51423W        W94476   1.810  13.725  14.402  0.1027  0.0166 -0.1171
51424W        W94477   4.667  22.486   5.158 -0.1009 -0.1638  0.2433
51425W        W94478  31.198  27.274   5.128  0.1641  0.1865  0.2047
51426W        W94479  26.732  19.928   1.843 -0.1085 -0.1702  0.1175
51427W        W94480  32.510  15.230   9.655 -0.0012  0.1776 -0.2850
51428W        W94481  31.657  21.930  24.374 -0.2094 -0.0553 -0.2885
51429W        W94482  24.255  22.155  27.562  0.4905 -0.0931 -0.2291
51430W        W94483  12.725  22.184  17.445 -0.1201 -0.0004  0.0298
51431W        W94484  31.126  25.239  19.809 -0.0015 -0.0195  0.1003
51432W        W94485  29.533   9.394  16.574 -0.2789 -0.1707  0.2739
51433W        W94486  24.743  19.103  26.635  0.0771 -0.1771 -0.1120
51434W        W94487   3.027  19.558  27.652  0.3632  0.1937 -0.3538
51435W        W94488  25.540  23.248   5.416 -0.0248 -0.1607  0.0104
51436W        W94489   2.753  25.574   6.318  0.2112 -0.1004  0.4016
51437W        W94490   2.105  20.807   5.590 -0.1708  0.1439  0.0106
51438W        W94491  29.668  18.283   4.618 -0.0654  0.3930  0.0974
51439W        W94492  31.018  18.099   8.925  0.1251  0.0829 -0.1080
51440W        W94493  21.351  22.411  14.952  0.0417 -0.0568  0.0174
51441W        W94494  10.067  20.215  24.307 -0.1368 -0.1458  0.0791
51442W        W94495   0.935   9.310  23.224  0.1451  0.0914  0.3980
51443W        W94496  26.041   2.518  25.488 -0.5446  0.4009 -0.1496
51444W        W94497  27.827  31.891  26.812 -0.0865  0.1980  0.0486
51445W        W94498  34.246  25.287  24.489 -0.0516  0.0354 -0.3317
51446W        W94499   9.622  12.739  25.103 -0.0627  0.6171 -0.3335
51447W        W94500  25.877  25.460  17.647  0.2374 -0.0831 -0.2526
51448W        W94501  19.330  20.603  27.701 -0.0478 -0.0903  0.0907
51449W        W94502   3.551  22.051  28.384 -0.0645 -0.0084  0.3606
51450W        W94503  24.553   3.897  17.353  0.1381  0.2129  0.1154
51451W        W94504   5.144  25.919  14.017  0.1492  0.0443 -0.0384
51452W        W94505   8.405   5.507  25.387 -0.1219 -0.1908 -0.1626
51453W        W94506   8.266  19.981   3.677  0.1148  0.2265 -0.2275
51454W        W94507  31.988  19.440  27.485 -0.2661  0.1387  0.1862
51455W        W94508  30.374  29.084  21.230  0.6448  0.0457 -0.0653
51456W        W94509  23.335  27.441  18.663  0.0590 -0.3633  0.1649
51457W        W94510  25.057  28.190  26.529  0.2467  0.1137 -0.0641
51458W        W94511   3.981  23.934  24.064  0.3273  0.0638  0.1536
51459W        W94512   1.086  19.232   2.716 -0.1695  0.1195 -0.1759
51460W        W94513  34.477   7.743  21.838  0.0846  0.4389 -0.1642
51461W        W94514   4.905  20.617  16.710 -0.1137 -0.0077  0.1596
51462W        W94515  28.651   2.463  22.310 -0.0661  0.2467  0.3291
51463W        W94516  13.133  19.242   7.865 -0.3451 -0.0122  0.3288
51464W        W94517  25.081  18.165  15.567 -0.1125  0.0147  0.0697
51465W        W94518   1.591  14.844  22.196  0.3779  0.1758  0.1632
51466W        W94519  25.262  15.472   0.951  0.1955  0.0720 -0.0235
51467W        W94520   7.483  14.393   9.651  0.0016  0.1822  0.0895
51468W        W94521  24.679  14.871   2.823 -0.0089 -0.1709  0.2644
51469W        W94522   8.170  14.228   1.435  0.3103 -0.1334 -0.0104
51470W        W94523   3.469   2.109  24.987  0.2930  0.2278  0.1723
51471W        W94524  28.609  31.049  27.893 -0.1868  0.3616  0.3110
51472W        W94525   5.469  26.375  27.808 -0.0822 -0.3881 -0.1190
51473W        W94526   9.317  25.040   3.270  0.0334 -0.0216 -0.0949
51474W        W94527  31.265  16.310  20.721 -0.0646  0.0907  0.1425
51475W        W94528  30.222  24.119  26.708 -0.4497  0.1461  0.0079
51476W        W94529  27.016   8.249   4.708  0.1720 -0.0987  0.1581
51477W        W94530   0.662  24.118  17.010  0.0876 -0.3212  0.2489
51478W        W94531  34.390  24.487  18.307 -0.3720  0.0069  0.0986
51479W        W94532  13.280  19.445   1.775  0.0261  0.0352 -0.0455
51480W        W94533  30.439  11.109  19.595  0.0308 -0.1437  0.2512
51481W        W94534   5.997   9.647   9.333 -0.3417  0.2969  0.0303
51482W        W94535  23.133  16.969  28.679 -0.4005 -0.0441  0.0254
51483W        W94536  22.214   4.689  15.657  0.0008 -0.0503 -0.0210
51484W        W94537  27.039  24.338   4.459  0.1335  0.3340  0.0811
51485W        W94538  22.296  14.131  24.319  0.0863 -0.4668  0.1206
51486W        W94539   6.980  19.607  17.334 -0.0385 -0.4723 -0.1093
51487W        W94540  19.983   8.867  16.297  0.2501 -0.3706 -0.0888
51488W        W94541  26.503  28.195  26.310  0.2269  0.1571 -0.1571
51489W        W94542   3.142  13.085  17.098 -0.2010 -0.1518  0.2870
51490W        W94543   5.594  30.713  21.413  0.0241 -0.0459  0.3583
51491W        W94544   4.814  29.634   4.680  0.1274  0.1373  0.1477
51492W        W94545   5.868  22.564  23.015 -0.0538  0.1531  0.2961
51493W        W94546  18.453  19.502   3.457 -0.1658 -0.0984  0.0004
51494W        W94547  23.955  29.724  23.281 -0.3064 -0.1470  0.0889
51495W        W94548   2.018   4.156   1.180 -0.1497  0.0438  0.0733
51496W        W94549  23.970  31.335  16.797  0.0201  0.1299 -0.0468
51497W        W94550  30.770  11.368   3.036 -0.1557 -0.1754  0.3130
51498W        W94551  31.403  21.064  18.602  0.1549  0.1452 -0.0770
51499W        W94552   4.734  26.926  22.879  0.3017  0.0106 -0.0233
51500W        W94553   0.493  20.402  18.067 -0.2779 -0.0705 -0.1447
51501W        W94554   6.564  25.824  19.277 -0.1398 -0.0040 -0.1164
51502W        W94555  25.986  18.531  17.140  0.0352  0.2672 -0.1234
51503W        W94556  14.049  33.934   9.860 -0.0283 -0.0203  0.2438
51504W        W94557  16.588  32.385  17.284 -0.5030 -0.0211 -0.1677
51505W        W94558  22.581  32.070  23.306  0.0581 -0.1059 -0.0270
51506W        W94559  31.166  13.596  16.694 -0.1676 -0.2821 -0.0303
51507W        W94560  29.532   8.489   6.918 -0.0600 -0.2455  0.0367
51508W        W94561   7.694  26.958  14.216  0.1030 -0.1398 -0.1425
51509W        W94562  18.478  33.962  27.643  0.0278 -0.1043 -0.0234
51510W        W94563  30.536  27.809   8.767 -0.1823 -0.2712 -0.1694
51511W        W94564  12.065  11.970  24.969 -0.1089 -0.3100  0.0795
51512W        W94565  23.824   8.546   6.474  0.2172  0.0723  0.0348
51513W        W94566   8.692   9.432  25.022 -0.0862  0.2381  0.3879
51514W        W94567  30.722  25.518   5.402  0.2447 -0.3249  0.1688
51515W        W94568   5.883  30.979  20.264 -0.1671  0.5315  0.1689
51516W        W94569  31.350  25.359  19.233  0.4839 -0.1869 -0.0231
51517W        W94570  24.179  26.271   7.373  0.1600 -0.0361 -0.0916
51518W        W94571  14.810  25.599  16.002 -0.0454  0.1790  0.2347
51519W        W94572  32.675  20.506   5.837 -0.0866  0.1518 -0.5063
51520W        W94573  31.630   5.680   4.128  0.3113 -0.1756  0.5763
51521W        W94574  32.329   9.426  17.371 -0.2626  0.0293 -0.2450
51522W        W94575  31.092  15.832  18.996  0.0195 -0.0337 -0.0652
51523W        W94576   2.789  29.319   5.597 -0.1937 -0.0477  0.1207
51524W        W94577  28.421  31.847  22.937  0.0901 -0.1044  0.1194
51525W        W94578  34.098   7.585   5.066  0.0247  0.0628 -0.1458
51526W        W94579   2.510  26.992  15.539 -0.1020 -0.5066  0.0043
51527W        W94580  33.163  21.748   0.512 -0.1364  0.3334 -0.0416
51528W        W94581   3.374  20.900   6.310  0.1111  0.0188  0.1679
51529W        W94582  21.952  15.193  25.143 -0.1512  0.0052 -0.1664
51530W        W94583  28.445  13.590  20.418  0.1455  0.1047  0.2524
51531W        W94584   1.098  23.594  16.971  0.2001 -0.1415 -0.5298
51532W        W94585  30.940   0.203  26.170 -0.7865  0.1020 -0.0503
51533W        W94586  31.513  27.734  28.325 -0.1311  0.2483  0.3378
51534W        W94587  29.129  29.898  18.218  0.1703 -0.1094  0.1658
51535W        W94588   0.400  19.660  16.735  0.0966  0.0286 -0.2700
51536W        W94589  11.635   7.668   1.530  0.1441 -0.2399 -0.0177
51537W        W94590   6.242  21.515   3.087  0.1596 -0.0003 -0.0716
51538W        W94591  16.681  24.592  28.755  0.1711 -0.1811  0.2770
51539W        W94592   6.944  19.541   3.402 -0.2328  0.1731  0.0635
51540W        W94593  26.709  30.832  20.636 -0.0560  0.4753  0.1704
51541W        W94594  14.850  34.426  27.875 -0.1868 -0.5232  0.1038
51542W        W94595  11.753  22.538  16.457  0.1956  0.3334  0.0103
51543W        W94596  27.605  19.954  15.222  0.1625  0.1133 -0.0800
51544W        W94597  18.800  24.913  24.133  0.1299 -0.3500  0.0607
51545W        W94598  22.890  26.497   5.399 -0.0931  0.1139  0.1554
51546W        W94599  32.571  14.151  28.802 -0.1828  0.0160  0.3337
51547W        W94600   5.217  19.979  28.132  0.1493 -0.2262  0.1745
51548W        W94601   2.536  13.985  10.104 -0.1469 -0.1416 -0.0482
51549W        W94602  25.331   3.522   8.794  0.1596 -0.3067  0.0984
51550W        W94603  18.540   0.568  19.512 -0.0599 -0.2079 -0.1149
51551W        W94604   8.529  27.540   0.102  0.0323  0.1296 -0.2382
51552W        W94605  29.018  23.910  22.485 -0.2327 -0.1190  0.2599
51553W        W94606   3.769  13.256   9.863  0.0605 -0.2698 -0.0919
51554W        W94607  19.515  29.308  20.697  0.2371  0.4554 -0.0137
51555W        W94608   2.921  30.419  27.078 -0.2447 -0.0231 -0.1498
51556W        W94609   4.819  10.567  27.261  0.0090 -0.2114 -0.1501
51557W        W94610   9.288  11.112   7.529 -0.0135 -0.0975  0.1075
51558W        W94611  28.591  10.026  25.490 -0.0757  0.2039 -0.1217
51559W        W94612  33.526  10.702  28.957  0.2820  0.0622  0.1102
51560W        W94613  27.515  23.382  20.032 -0.2587 -0.1530 -0.0145
51561W        W94614  19.522  10.734   0.189 -0.1419  0.1458 -0.0437
51562W        W94615   5.479  14.001  14.294  0.0721 -0.2438 -0.0983
51563W        W94616  27.380  23.924  15.992 -0.2660 -0.1434 -0.0219
51564W        W94617  33.674  18.008   0.612  0.2032 -0.0018 -0.0780
51565W        W94618   5.604  21.734  27.099  0.1637 -0.1388 -0.0259
51566W        W94619  32.329  11.675   7.624  0.0769  0.0737 -0.0591
51567W        W94620   4.706   3.447  28.216  0.0333 -0.0890  0.0186
51568W        W94621   5.346  29.836   6.795  0.1909 -0.1556 -0.1696
51569W        W94622  22.026  11.235  23.175 -0.0203  0.1615 -0.2802
51570W        W94623  10.962  10.314  24.612 -0.0622  0.0918  0.0878
51571W        W94624  33.659   6.296   8.915  0.1378 -0.1377  0.0321
51572W        W94625  30.750  12.531  28.428 -0.2366 -0.1566  0.2415
51573W        W94626   7.387  15.627   3.241  0.1002 -0.1497  0.2268
51574W        W94627  18.894  29.090   5.463  0.0844  0.1002  0.0781
51575W        W94628  33.640  25.746  23.716  0.2373  0.2811 -0.2723
51576W        W94629  18.723  21.185  21.564  0.0416 -0.0005  0.1091
51577W        W94630  32.856  15.548   1.385 -0.0392 -0.3448  0.0501
51578W        W94631  16.129   9.802  23.012 -0.2078 -0.1401  0.0436
51579W        W94632  11.518   5.318  20.078 -0.0098 -0.0173  0.1655
51580W        W94633  33.962  13.137   4.486  0.0158 -0.0486  0.0624
51581W        W94634   7.750  26.910  16.905  0.2245  0.0410  0.0807
51582W        W94635  31.184  20.895   5.138  0.2498 -0.1745 -0.1589
51583W        W94636   9.022  27.448   3.223  0.2422  0.1907  0.1331
51584W        W94637  27.292  33.403   4.618 -0.0642  0.0176 -0.0715
51585W        W94638   5.282  10.420  28.469 -0.2940 -0.1636 -0.1134
51586W        W94639   4.028   8.546  10.071 -0.2946  0.0069 -0.0515
51587W        W94640  29.141  15.392   8.047 -0.1217  0.2661  0.0064
51588W        W94641   1.390  24.421   6.567  0.1541 -0.3874 -0.2903
51589W        W94642  15.708  26.939  29.195 -0.0014 -0.0931 -0.1869
51590W        W94643  32.549  29.649   5.433  0.0080 -0.0029 -0.1544
51591W        W94644  19.876  17.927  10.511  0.0354 -0.3453 -0.0986
51592W        W94645  17.929  32.510  10.398  0.3488  0.0231 -0.1804
51593W        W94646  24.173  20.079   5.532  0.0672 -0.3956  0.1679
51594W        W94647  22.422   0.722  27.744  0.0702  0.0652  0.1458
51595W        W94648   7.961  25.636   7.245  0.0481  0.3077  0.1499
51596W        W94649   3.570  17.007   0.976 -0.2851  0.5415  0.1926
51597W        W94650  26.181  10.485  20.828  0.3009 -0.0873 -0.0504
51598W        W94651  28.114   5.614  25.242 -0.4808  0.1439  0.1936
51599W        W94652  31.548  12.459  24.133 -0.0728  0.1273  0.1018
51600W        W94653   0.575   5.291   0.985  0.0340 -0.3695  0.3072
51601W        W94654   5.739   5.859  22.570 -0.0351 -0.0948  0.0245
51602W        W94655  27.206  20.073   5.701 -0.1094 -0.0747 -0.0805
51603W        W94656  15.968  26.252   8.380  0.3542 -0.1574 -0.2741
51604W        W94657  30.510  19.447  24.542 -0.1724 -0.0363 -0.3191
51605W        W94658  25.382  30.235   2.042  0.1773  0.1161  0.0203
51606W        W94659  25.839   6.253   5.248  0.2470 -0.1023 -0.4674
51607W        W94660  27.373  11.754   3.315 -0.1963 -0.0016  0.1014
51608W        W94661  29.029  19.850   1.131  0.3142  0.3692 -0.0094
51609W        W94662   3.743  31.395   0.819 -0.2261 -0.2226  0.0676
51610W        W94663   2.641  23.351  19.834  0.0308 -0.0004 -0.3258
51611W        W94664  20.016  32.489   0.388  0.1048 -0.0014  0.0364
51612W        W94665  22.320   2.090  23.515 -0.1012 -0.1466  0.3558
51613W        W94666   1.915  21.290  27.816 -0.0986  0.3451 -0.0665
51614W        W94667  24.954  12.250  16.362 -0.1450  0.1965 -0.1524
51615W        W94668  32.392   4.670   8.770  0.1195  0.4192  0.1762
51616W        W94669  12.527   4.179   0.059  0.1989 -0.2271 -0.2484
51617W        W94670   2.273  29.043  15.612  0.0531  0.0517  0.2024
51618W        W94671   1.827  13.478  28.927  0.0376  0.1015  0.0832
51619W        W94672   4.921  24.021  24.159  0.2321 -0.3555 -0.3923
51620W        W94673  25.790   9.113   5.144  0.2697 -0.2045  0.1897
51621W        W94674  17.959   2.503  27.004 -0.2231 -0.0084 -0.3074
51622W        W94675  22.778  24.605   7.301 -0.0918  0.0348 -0.3537
51623W        W94676  30.917  24.830  20.688 -0.1288  0.4975 -0.2369
51624W        W94677   6.495   6.901   1.451  0.2827 -0.1004 -0.2909
51625W        W94678   6.334  29.159  25.959  0.1370  0.0599 -0.1229
51626W        W94679   3.633  23.260  23.331 -0.0811 -0.1025  0.1137
51627W        W94680  18.445   4.066  29.005  0.1407 -0.0089 -0.0444
51628W        W94681  25.778  10.949  21.504  0.1911 -0.1414  0.0532
51629W        W94682  32.347  21.312  15.201  0.1039 -0.0861  0.0542
51630W        W94683  27.586  17.491  18.238  0.5223 -0.0980  0.1821
51631W        W94684   0.855  24.819  22.309 -0.1726 -0.0511 -0.0734
51632W        W94685  21.174  26.402   6.655  0.0761  0.1324  0.1737
51633W        W94686  27.539  24.310  16.263  0.0904  0.0260 -0.1214
51634W        W94687   3.403  25.716  24.225  0.1747 -0.0278 -0.0784
51635W        W94688  28.743  23.672  23.913  0.2590  0.2110  0.1879
51636W        W94689   1.851  15.910  15.709 -0.0870  0.0485 -0.1154
51637W        W94690   2.674  29.022  15.269  0.4289  0.0111 -0.0259
51638W        W94691  23.941  27.048  18.061  0.2867 -0.2781 -0.1383
51639W        W94692  17.679  26.217  23.454  0.0607  0.0230  0.2934
51640W        W94693   6.405  32.640  16.858  0.1359  0.2437 -0.0139
51641W        W94694  22.653  25.843  16.509  0.1074 -0.0332  0.0914
51642W        W94695   3.150   7.732  15.219  0.0597  0.0344  0.0761
51643W        W94696   3.687  25.853  26.976 -0.1522 -0.0364 -0.0471
51644W        W94697  33.850  17.936  16.297  0.1737 -0.1018  0.2108
51645W        W94698  14.704  16.756   1.110  0.1425 -0.3173 -0.0033
51646W        W94699   4.474  29.582   0.141 -0.0863  0.0862 -0.0642
51647W        W94700   7.416  20.492  19.252 -0.0257 -0.2034  0.0279
51648W        W94701  26.227   0.930  21.805  0.0266  0.2121 -0.3996
51649W        W94702  14.349  32.960  28.286  0.2512 -0.0625 -0.0208
51650W        W94703  33.387  31.507  14.798  0.0083 -0.0088 -0.0405
51651W        W94704  24.437  20.060  15.651  0.2870 -0.0674  0.0179
51652W        W94705  27.096  10.522  14.086  0.3993 -0.0064  0.0556
51653W        W94706  24.691   5.486  18.683 -0.1961  0.1199 -0.0083
51654W        W94707   6.422   1.918  18.351  0.1194 -0.3389 -0.2503
51655W        W94708   8.284  19.960  14.246 -0.0731  0.0607 -0.4036
51656W        W94709   6.564  26.760   0.684  0.0997  0.1260  0.1139
51657W        W94710   3.123  24.235  14.588 -0.0224 -0.1948  0.0342
51658W        W94711   2.471  24.723  19.807  0.2502 -0.0528 -0.0276
51659W        W94712  32.017  15.092  23.509 -0.1569 -0.1709  0.1304
51660W        W94713   5.333  23.432  21.101 -0.0034  0.1118 -0.3589
51661W        W94714  18.422  19.991  23.350 -0.3683  0.0928  0.3481
51662W        W94715  33.227  31.923  17.066  0.2203  0.4140 -0.0551
51663W        W94716   5.078  27.039   2.389 -0.0642 -0.0449 -0.2766
51664W        W94717   4.715   0.184  15.920  0.0556 -0.1334 -0.0582
51665W        W94718   9.478  22.667  22.088 -0.0393 -0.1225 -0.1511
51666W        W94719   2.481   6.835   7.453 -0.2429 -0.2713  0.2390
51667W        W94720  27.884  19.600  16.905 -0.3725 -0.3736 -0.2446
51668W        W94721  30.017  30.688  21.356 -0.1687 -0.0876 -0.0085
51669W        W94722  34.499  14.340  22.470  0.2185 -0.0084 -0.0368
51670W        W94723   1.133   9.384  17.094  0.1510 -0.1252 -0.1324
51671W        W94724  33.826  22.797  21.387  0.2245  0.1418 -0.0675
51672W        W94725  30.713  17.224  21.268 -0.1924  0.0903 -0.0826
51673W        W94726  28.033  30.427  16.106  0.2239 -0.0529 -0.2834
51674W        W94727   3.689   2.368  14.510 -0.2106 -0.0762  0.1412
51675W        W94728  29.006  21.935  27.641  0.1016  0.0454  0.2290
51676W        W94729   4.336  12.322  21.040 -0.0427 -0.1578  0.0232
51677W        W94730  34.168   4.157  19.299 -0.0547 -0.2506  0.0553
51678W        W94731   0.293  14.627  23.848  0.2082 -0.1245 -0.0300
51679W        W94732  14.941   3.708  16.026  0.2272  0.0958  0.0200
51680W        W94733   6.805  27.273  19.502 -0.0037  0.0012  0.1980
51681W        W94734  25.613  32.326  17.991  0.1099  0.0254 -0.1547
51682W        W94735  15.858  28.850  27.547 -0.1269 -0.0116  0.0450
51683W        W94736   2.526   0.521  14.282 -0.0216  0.0975  0.1056
51684W        W94737   7.955  23.167   0.359  0.2814 -0.0831 -0.3073
51685W        W94738  34.208  27.692  13.875  0.3287 -0.1227  0.0582
51686W        W94739  19.680  11.599  19.990 -0.0709 -0.1586  0.1790
51687W        W94740   8.733  23.228  21.196  0.2334 -0.0398  0.1111
51688W        W94741  32.245  34.235  22.363  0.0284 -0.2685  0.2283
51689W        W94742   3.037  33.641  15.143 -0.3146  0.3147 -0.0309
51690W        W94743   1.070  32.514  24.400 -0.0618 -0.3203  0.3474
51691W        W94744  25.515  32.021  21.541 -0.2047 -0.1143  0.2368
51692W        W94745  28.749  26.763   0.801  0.1230 -0.0190 -0.0043
51693W        W94746   5.182  28.424  21.442 -0.0691  0.1023 -0.2597
51694W        W94747  29.322  31.136  16.299  0.1262  0.1054 -0.1058
51695W        W94748   1.743  21.957  23.151  0.2805 -0.0922 -0.0074
51696W        W94749  11.011  17.091  15.200 -0.2657 -0.3220 -0.1302
51697W        W94750  30.790  20.613  13.021  0.3788  0.0009  0.1582
51698W        W94751   3.674   5.941  10.132 -0.2105 -0.2926 -0.4064
51699W        W94752  34.308  22.692  17.528 -0.0991  0.0669 -0.1121
51700W        W94753   4.058  19.808  22.675 -0.0392  0.2226  0.3270
51701W        W94754  11.705  10.227  22.658  0.2251  0.0715 -0.0563
51702W        W94755   6.773  32.454  19.819 -0.0505 -0.4395 -0.1533
51703W        W94756  22.164  23.557  15.189 -0.1652  0.2704 -0.1468
51704W        W94757   3.855  23.394  15.370 -0.1566 -0.0147 -0.2745
51705W        W94758  15.119  10.873  24.586  0.0131 -0.0440  0.1366
51706W        W94759  16.302  26.375  28.251  0.0068  0.4943  0.1212
51707W        W94760  30.775   8.824  21.549 -0.2112  0.1787  0.1256
51708W        W94761   0.463   0.706  20.872 -0.0557 -0.0608  0.1234
51709W        W94762   4.504  33.845   5.781 -0.1247  0.1118 -0.1182
51710W        W94763   4.369   7.688   7.790 -0.2197 -0.2127  0.0887
51711W        W94764  33.133  16.853  27.957  0.1572  0.2270 -0.1252
51712W        W94765   2.647  30.045  28.741  0.1218 -0.2663  0.4097
51713W        W94766  33.168  34.469  22.940 -0.1900 -0.0893 -0.0997
51714W        W94767   2.350   7.020  16.044  0.0897  0.0010 -0.1772
51715W        W94768  29.879  26.845  14.187 -0.2710  0.2447  0.1281
51716W        W94769   5.087  11.219  19.579  0.0566 -0.0372  0.2137
51717W        W94770   3.050  18.707  17.617 -0.0818  0.3426  0.1964
51718W        W94771   0.576  22.081  16.059 -0.0497 -0.1900 -0.1310
51719W        W94772   5.252  12.886  23.543 -0.3490  0.0787 -0.3232
51720W        W94773  28.336  24.321  15.414  0.4959  0.1968 -0.1703
51721W        W94774   0.048  27.028  13.395  0.0607 -0.0584 -0.0107
51722W        W94775  10.215  21.442  16.159 -0.1948  0.3055  0.1168
51723W        W94776  33.816  31.237  18.812  0.1131 -0.1298 -0.2015
51724W        W94777   9.593  25.527  15.837 -0.1360 -0.0272 -0.3516
51725W        W94778  21.723  26.365  15.136 -0.1049 -0.0857 -0.0370
51726W        W94779  32.501  28.912   0.012  0.0008 -0.0928 -0.1557
51727W        W94780  21.991  29.219  14.859  0.2121 -0.1469 -0.1736
51728W        W94781  20.648   0.892   1.173 -0.0029  0.1871  0.1068
51729W        W94782  31.273  19.645  14.290  0.1055  0.2818 -0.0114
51730W        W94783  24.523  24.964  22.426 -0.1311 -0.0118  0.1348
51731W        W94784  30.542  21.177  13.829 -0.1999 -0.3933  0.3161
51732W        W94785  31.700   1.739   8.002 -0.0388 -0.1156  0.0499
51733W        W94786  33.197  26.587  28.993  0.0685 -0.2691 -0.1211
51734W        W94787  32.613  29.624   1.742  0.0581  0.3037  0.5204
51735W        W94788   1.003   1.833  14.510 -0.0095  0.0793 -0.2290
51736W        W94789  11.204  14.129  23.513 -0.3667  0.3634 -0.3141
51737W        W94790   6.541  22.113  17.976 -0.2543  0.2208  0.5736
51738W        W94791   6.942  27.281  17.158 -0.1161  0.0214 -0.1381
51739W        W94792  26.896   2.381  21.735 -0.0896 -0.1403 -0.0203
51740W        W94793   1.805  17.849  18.691  0.0116 -0.0372 -0.0008
51741W        W94794  25.626   1.425  23.853  0.0370 -0.1021  0.0336
51742W        W94795  12.344  28.651  15.871  0.2253  0.0962  0.1787
51743W        W94796   5.922   1.585  24.419 -0.1305 -0.3121 -0.1479
51744W        W94797  32.775  20.337  23.884  0.1986  0.0528 -0.1312
51745W        W94798  12.505  19.888   5.819  0.2687  0.2976 -0.1612
51746W        W94799  27.168  22.472  26.837  0.0411 -0.1607  0.0078
51747W        W94800  29.919  21.044  18.856 -0.0397 -0.1177  0.2000
51748W        W94801  33.503  32.375  13.374 -0.3448 -0.1423 -0.0286
51749W        W94802  23.378  30.903  23.020  0.0303 -0.1847 -0.1211
51750W        W94803  28.309  32.593  15.712  0.1701 -0.1198  0.0203
51751W        W94804   8.727  27.794  17.735 -0.2825 -0.0993  0.2287
51752W        W94805   2.791  17.650   0.756 -0.1392 -0.2190  0.0060
51753W        W94806  15.176  23.441  20.131  0.0701  0.2285  0.0045
51754W        W94807  25.373   3.004  18.817  0.2295 -0.6671  0.0617
51755W        W94808  31.706  16.441  26.659 -0.1895 -0.1114  0.0078
51756W        W94809  16.062  30.211  29.173  0.2811 -0.0460 -0.1081
51757W        W94810  30.293  14.556  17.380 -0.1402 -0.0390 -0.2317
51758W        W94811  33.433   6.550  17.801  0.1329 -0.4103 -0.1192
51759W        W94812  30.463   6.250  16.982 -0.3969 -0.1042 -0.2888
51760W        W94813  11.680   7.341  22.806  0.0305 -0.2348 -0.0197
51761W        W94814  33.836  11.092  20.111  0.3346  0.1038 -0.2014
51762W        W94815  30.375  19.094  19.634 -0.1876  0.0050  0.2763
51763W        W94816   4.498  14.741  18.482 -0.0368 -0.2515 -0.2579
51764W        W94817   5.748  31.745  18.475 -0.0712  0.3530  0.1782
51765W        W94818  30.430  30.542  17.735 -0.1325 -0.0709 -0.0475
51766W        W94819   5.298   8.489   1.106 -0.0062  0.0940 -0.2635
51767W        W94820   8.229  17.206  19.535 -0.0910 -0.3172  0.0179
51768W        W94821   3.789   6.400  16.850 -0.0528 -0.0167  0.2614
51769W        W94822  26.876  27.028  21.178 -0.1405 -0.3640 -0.1689
51770W        W94823  24.626  31.930  17.243 -0.1137  0.1673 -0.1564
51771W        W94824  33.847  32.420  17.624 -0.1188 -0.0461  0.2698
51772W        W94825  32.795  22.427  26.381  0.0970 -0.2820  0.2277
51773W        W94826  10.235  21.132  19.639  0.2907 -0.0984 -0.3103
51774W        W94827  11.661  25.023  17.301  0.3562 -0.0611  0.2355
51775W        W94828   7.094  22.336  21.021 -0.2958 -0.2517  0.0215
51776W        W94829  25.652  20.981  17.775  0.1387  0.0482  0.0681
51777W        W94830  23.914  16.118  14.323  0.0008 -0.1061 -0.1352
51778W        W94831   5.148  19.227  21.481 -0.1128  0.2849 -0.0489
51779W        W94832   4.487  12.819  15.448 -0.1462  0.0570  0.0670
51780W        W94833   2.922   0.310  15.436 -0.1290  0.0813 -0.0132
51781W        W94834  33.600   8.914  23.021  0.0498  0.4698  0.1112
51782W        W94835  10.429  25.812   4.254 -0.1352 -0.1630  0.2419
51783W        W94836  29.061  10.551  21.511 -0.0540 -0.1502  0.1477
51784W        W94837   0.862   5.291  20.471  0.1125  0.1599 -0.1031
51785W        W94838   3.056  20.980  22.594 -0.2452  0.3141  0.2946
51786W        W94839   3.127  24.193  17.093  0.3014  0.1407  0.1977
51787W        W94840   5.239  34.478  19.646 -0.2094  0.1341 -0.0447
51788W        W94841  28.848  30.982  13.660  0.1213 -0.0166 -0.2165
51789W        W94842  31.782  22.625  26.148 -0.2204  0.2447 -0.4988
51790W        W94843  11.396  27.688  18.846  0.1735 -0.1131 -0.0780
51791W        W94844  30.416   5.973  28.923  0.1968  0.0010  0.1564
51792W        W94845  33.291  28.466  18.800  0.0926 -0.1049 -0.0371
51793W        W94846  22.653  34.069  16.273 -0.0206  0.1195  0.2211
51794W        W94847   0.218  26.777  23.515 -0.1529  0.2576 -0.0787
51795W        W94848   7.095  16.287  24.423 -0.1337 -0.2420  0.1308
51796W        W94849   1.355   6.203  15.240 -0.0680 -0.4866 -0.0739
51797W        W94850   2.268  22.152   2.230  0.2070 -0.2846  0.2160
51798W        W94851  29.838  31.782  19.420 -0.1261 -0.2416  0.1489
51799W        W94852   5.568  31.910  14.466  0.1122 -0.1727 -0.1592
51800W        W94853   3.045  22.630   1.479 -0.1520  0.1559 -0.2606
51801W        W94854  26.755  26.122  19.709 -0.0623 -0.0839 -0.0615
51802W        W94855  22.339  17.414  19.148 -0.1525  0.3256 -0.0139
51803W        W94856  24.950  21.751  16.154  0.3249 -0.0915  0.0180
51804W        W94857  34.168  33.324  20.507 -0.1216 -0.0872  0.1151
51805W        W94858  33.169  23.598  19.210  0.0593  0.2391 -0.1235
51806W        W94859   8.105  29.963  12.740 -0.3033  0.1012 -0.1156
51807W        W94860  22.586  22.104  17.770 -0.1906 -0.0219  0.1250
51808W        W94861  32.369  20.471  23.072 -0.1877 -0.0897  0.1995
51809W        W94862  19.330  27.569  20.983 -0.3512 -0.2883 -0.1201
51810W        W94863  33.381  18.868  15.076  0.0671 -0.4258 -0.3511
51811W        W94864  27.827  26.736  19.589 -0.2370  0.1169 -0.7162
51812W        W94865  24.775  34.293  25.561  0.0151 -0.2155  0.0274
51813W        W94866  28.021  27.924  21.782  0.3967 -0.1222 -0.1194
51814W        W94867   2.475  16.851  18.415 -0.1801 -0.1547  0.1002
51815W        W94868  29.428  21.661  21.869 -0.1768  0.1168 -0.0148
51816W        W94869  11.645  26.222  16.372 -0.1748  0.0162  0.2550
51817W        W94870  33.358  14.604  18.548 -0.0439  0.1141  0.0239
51818W        W94871   0.857   2.620   2.000 -0.1043 -0.0252 -0.2876
51819W        W94872   4.973   2.387  21.653  0.3364 -0.1446 -0.2923
51820W        W94873  28.066  15.018  28.487  0.4704 -0.3663  0.1645
51821W        W94874   4.037  28.692  16.588 -0.1576  0.1657  0.1691
51822W        W94875   4.751  17.897  13.803 -0.0250  0.0296  0.0557
51823W        W94876   9.620  23.576  19.096  0.1059  0.2926 -0.1936
51824W        W94877  18.429  20.087  27.648  0.3618 -0.2761  0.0931
51825W        W94878  31.388  22.267  18.339 -0.0163 -0.0022 -0.3066
51826W        W94879  31.462  24.702  16.242 -0.1807 -0.2918  0.0476
51827W        W94880  13.419  15.467  24.098  0.0577 -0.1136  0.1554
51828W        W94881  11.588  19.113  14.074  0.0376 -0.3787  0.1581
51829W        W94882  33.946  32.196  19.165 -0.0977 -0.0420 -0.3761
51830W        W94883  14.863  24.408  18.431 -0.2601 -0.4020  0.1471
51831W        W94884  24.193  15.249  23.299 -0.2605  0.1107  0.0708
51832W        W94885  10.135  31.954  15.523 -0.0139  0.2493  0.2540
51833W        W94886  29.416  20.010  17.942 -0.1431 -0.2125  0.1594
51834W        W94887  25.534   2.354  23.172  0.0839  0.1694 -0.1333
51835W        W94888   6.636  16.516  18.903  0.0441  0.1973 -0.0604
51836W        W94889  32.639  26.038  21.424 -0.1244 -0.2477  0.0143
51837W        W94890   4.610  23.481  17.573  0.0071  0.2544  0.0943
51838W        W94891  31.251  18.056   3.762 -0.1683 -0.0561  0.3594
51839W        W94892  25.284  13.948  24.520  0.0524  0.3223 -0.1357
51840W        W94893  30.177  22.160  17.031 -0.2966  0.3620 -0.3603
51841W        W94894   7.570   9.878  20.911 -0.1195 -0.1799  0.1237
51842W        W94895  29.031  12.771  21.636  0.0126  0.2247 -0.0410
51843W        W94896  13.527  30.003  27.385 -0.1291 -0.0999 -0.0034
51844W        W94897  30.988   9.172   1.365 -0.4783 -0.2632  0.2009
51845W        W94898  12.189  27.340  22.926 -0.0985  0.1260 -0.0898
51846W        W94899  28.516  32.661   6.851  0.1261  0.0523 -0.0794
51847W        W94900  31.843  29.902  13.697 -0.0938 -0.2687 -0.2721
51848W        W94901  33.345  21.491  19.688 -0.1921  0.1716 -0.0923
51849W        W94902  14.083  23.350  16.868  0.1826  0.2019 -0.0385
51850W        W94903  23.757   1.868  27.090 -0.1529 -0.1975 -0.0758
51851W        W94904  33.974  29.774  28.547 -0.0988 -0.3732  0.1697
51852W        W94905  23.436  25.612  23.596  0.0281 -0.3203  0.1163
51853W        W94906  18.868  25.491   6.607  0.2381 -0.1015 -0.0209
51854W        W94907  15.424  26.144  23.668 -0.0162  0.1946 -0.1112
51855W        W94908   7.499  13.420  21.676  0.0924 -0.2795 -0.1433
51856W        W94909  18.445  27.745  21.875  0.0151 -0.4451  0.0808
51857W        W94910  29.264  10.395  15.381  0.2371  0.2530  0.1414
51858W        W94911  32.141  32.332  21.544 -0.0571 -0.1476 -0.2331
51859W        W94912   5.406  26.269  14.887  0.2632  0.1237 -0.0337
51860W        W94913   6.163  22.324  15.782 -0.1077  0.1258  0.1257
51861W        W94914   1.608  28.415  17.217  0.1887  0.0149  0.2447
51862W        W94915   5.131   0.205  21.547  0.0561  0.0864 -0.1100
51863W        W94916  21.882  22.499  20.359 -0.2023 -0.1194 -0.0370
51864W        W94917  26.150  14.582   0.154  0.0006 -0.1623  0.2519
51865W        W94918  26.014  22.806  19.234  0.4176 -0.0083 -0.2857
51866W        W94919  25.035  29.928  18.786 -0.1727 -0.2158  0.0094
51867W        W94920  25.095  29.845  22.890 -0.1776  0.2833  0.1010
51868W        W94921  30.422  24.019  16.993 -0.0143 -0.0861 -0.0681
51869W        W94922   4.320  22.797   2.402 -0.0591 -0.0441  0.4953
51870W        W94923   4.751  14.320   0.482 -0.0882  0.0393 -0.3034
51871W        W94924   5.890  11.199  22.346 -0.2440 -0.1536 -0.3423
51872W        W94925  33.609  10.452  18.751  0.2292 -0.1840  0.1262
51873W        W94926  32.455  24.197  23.952  0.1878  0.1299  0.1083
51874W        W94927  27.976  17.585  15.852 -0.0438 -0.0531  0.0322
51875W        W94928   4.332  20.842  16.676 -0.0227 -0.0395  0.1690
51876W        W94929   1.506   7.253   0.142 -0.1700 -0.1405  0.2249
51877W        W94930   8.846  21.526  19.149  0.2357 -0.2730  0.2919
51878W        W94931  25.831  17.561  23.674 -0.0618 -0.0376  0.1877
51879W        W94932  34.052  29.346  26.464 -0.1328 -0.0980  0.0756
51880W        W94933  14.783   6.335  15.494 -0.1973  0.4403 -0.1498
51881W        W94934   7.441  20.405  18.703 -0.1002  0.3241  0.0441
51882W        W94935  33.436   5.436  18.742  0.0488  0.0045  0.1445
51883W        W94936  32.915   1.529   8.904  0.0824 -0.2327  0.0491
51884W        W94937  24.824   9.007  26.127  0.3373  0.2236 -0.3716
51885W        W94938  14.973  15.911  23.042 -0.0022  0.1445 -0.0095
51886W        W94939  17.218  31.633   3.591  0.0049  0.0911 -0.2339
51887W        W94940  25.707  25.386  15.551 -0.1158 -0.1131  0.2257
51888W        W94941   6.127  20.008  22.788  0.0764  0.1899 -0.0255
51889W        W94942  21.875  31.632  17.129  0.0860  0.0381  0.0411
51890W        W94943  15.702  23.333  20.330 -0.2742 -0.3024 -0.1666
51891W        W94944  30.332   8.533  22.598  0.1884  0.0645 -0.1495
51892W        W94945   3.247  19.821  23.313 -0.1110 -0.1883  0.2281
51893W        W94946  12.782  23.776  18.176  0.0344 -0.1398 -0.2109
51894W        W94947  10.283  33.236  14.068 -0.1094 -0.1533 -0.1123
51895W        W94948  33.463   1.572   1.240  0.1341 -0.2594 -0.0670
51896W        W94949  15.261  34.676   4.877  0.2398  0.3033  0.2494
51897W        W94950  17.622  18.499  15.297 -0.3969 -0.4068 -0.0395
51898W        W94951   7.633  32.059  15.818  0.0488  0.1200  0.0639
51899W        W94952  34.095  25.687  18.878  0.1082 -0.1886  0.0889
51900W        W94953  34.038  10.472  26.738 -0.1591  0.0203  0.1333
51901W        W94954  26.529  16.046  28.602  0.5445 -0.1648  0.2755
51902W        W94955   5.110  18.891  20.156  0.1455  0.0180  0.0231
51903W        W94956  29.571   7.421  21.260  0.2408  0.2657 -0.0399
51904W        W94957   9.518  20.496  28.665 -0.1289  0.1357 -0.0091
51905W        W94958  21.491  23.280  20.170 -0.0193 -0.1972 -0.2554
51906W        W94959   2.590  23.181  14.740 -0.0072 -0.2455 -0.2418
51907W        W94960  23.772  18.037   5.426  0.1056  0.1274  0.0899
51908W        W94961   3.572  25.956  20.000  0.3934  0.2203 -0.0415
51909W        W94962  31.887  33.029  16.849 -0.0211  0.0053 -0.0179
51910W        W94963  13.235  18.435  15.751  0.3466 -0.0232 -0.2191
51911W        W94964  31.553  12.959  25.288  0.0465 -0.0305 -0.0415
51912W        W94965  31.734  30.154  19.469  0.2997 -0.0117 -0.1687
51913W        W94966   1.072  31.871  16.320  0.0881 -0.0113 -0.0174
51914W        W94967  18.852  20.077  23.955 -0.0536 -0.0986 -0.3780
51915W        W94968   6.156  12.349  17.830 -0.3315 -0.0628 -0.2568
51916W        W94969   2.270  26.736   4.750 -0.2675 -0.1584 -0.7625
51917W        W94970   9.610  27.220  15.887  0.0778  0.1242 -0.1829
51918W        W94971  13.937  13.274  23.278  0.1808  0.1258 -0.1272
51919W        W94972  25.300  16.147  17.237  0.1705  0.0022 -0.1159
51920W        W94973   0.851  32.096  22.078  0.0651  0.4032  0.1050
51921W        W94974  15.003  13.563   3.156  0.2190 -0.0331  0.0157
51922W        W94975  23.839  11.329  14.613 -0.0354 -0.0547 -0.0857
51923W        W94976   7.901  22.808  15.691 -0.1206  0.1093  0.0377
51924W        W94977  34.120  24.392  20.006 -0.0126 -0.0914  0.1928
51925W        W94978  24.806  14.141  21.273  0.0176  0.3137  0.2341
51926W        W94979  19.497  18.449  23.207 -0.0007 -0.2649 -0.0551
51927W        W94980  27.387  22.590  14.670 -0.2346  0.0299 -0.0784
51928W        W94981  28.739  21.372  14.287  0.1029 -0.1388 -0.3297
51929W        W94982   7.070  20.145  13.461 -0.3228  0.2055  0.1116
51930W        W94983  26.781  24.112   2.326 -0.0512 -0.0499 -0.1263
51931W        W94984   3.228   3.162  20.673  0.1333  0.3121  0.2021
51932W        W94985  28.688   9.086  19.120 -0.0804  0.3831  0.1557
51933W        W94986  33.660  20.494  24.694  0.5830  0.1177  0.0533
51934W        W94987  15.920  32.484  18.097 -0.1003  0.0493 -0.2053
51935W        W94988   4.127  19.314  26.486  0.1149 -0.2467  0.1023
51936W        W94989   1.146  19.897  14.255  0.1645  0.2461 -0.0295
51937W        W94990  20.372  18.306  14.717 -0.1319 -0.0798 -0.1232
51938W        W94991  13.614  18.626   8.543 -0.0790 -0.0500 -0.5234
51939W        W94992   6.065  13.796  14.584 -0.0213 -0.0404  0.0852
51940W        W94993  20.802  21.600  14.729 -0.1247  0.0167  0.2090
51941W        W94994   4.851  16.240  21.005  0.6737  0.3241 -0.1273
51942W        W94995  12.598   6.700   1.829 -0.1188  0.0250 -0.0486
51943W        W94996  32.660  33.267  26.031  0.0902 -0.1576  0.1778
51944W        W94997  28.663  22.617  14.988  0.0234  0.1256 -0.0134
51945W        W94998  32.010  12.469  21.829 -0.0300  0.0140  0.1007
51946W        W94999   2.417  18.704  21.739 -0.0777 -0.0625 -0.0716
51947W        W95000  34.649  24.188  21.521  0.1511  0.0166 -0.1617
51948W        W95001  24.184  31.231  21.892  0.1616 -0.1640 -0.0501
51949W        W95002   5.524   2.912  18.944 -0.1320 -0.1397 -0.0409
51950W        W95003  33.367   2.011  16.558  0.1368 -0.2856 -0.4192
51951W        W95004  33.654   6.731  27.137 -0.3618  0.2910  0.1029
51952W        W95005  28.621  25.103  18.991 -0.2650  0.2622 -0.2174
51953W        W95006   1.107  31.848  17.487 -0.1269 -0.0145  0.3716
51954W        W95007  23.934  25.274  24.376  0.2325 -0.2487 -0.1771
51955W        W95008  31.497  25.638   7.225  0.0368 -0.2405 -0.1051
51956W        W95009  13.498  23.226  18.308  0.2559  0.3409 -0.0420
51957W        W95010  10.246  27.122  28.182  0.2758 -0.0767  0.0113
51958W        W95011  16.128   1.095  17.705 -0.1351  0.2182  0.0407
51959W        W95012  25.494  28.044  19.539  0.1912  0.2533  0.1969
51960W        W95013  29.668  23.189  19.329  0.1660  0.0864  0.1215
51961W        W95014   1.846  20.187  20.621 -0.0063  0.1400 -0.0269
51962W        W95015   4.551  12.682  19.992 -0.0731 -0.1181 -0.1620
51963W        W95016  33.131  14.699  20.449 -0.4065  0.1352 -0.3283
51964W        W95017  22.768   2.596  15.482  0.0498  0.0396  0.0311
51965W        W95018  22.546  21.400  24.286 -0.0290  0.0712  0.4682
51966W        W95019  34.596  25.817  14.080  0.0897  0.0178  0.1049
51967W        W95020  25.930  29.160  24.003  0.2573 -0.0196 -0.1203
51968W        W95021  25.941   3.493   7.507 -0.2849 -0.0141  0.2229
51969W        W95022  23.685   5.070  24.030  0.1333 -0.1789  0.4044
51970W        W95023  26.563  25.946  22.746  0.3149  0.1148 -0.2794
51971W        W95024  34.480   7.414  22.958 -0.0319 -0.1485  0.0847
51972W        W95025   6.980  19.887  28.507  0.1544 -0.0802 -0.0522
51973W        W95026   5.701  33.427  17.659 -0.3844 -0.0726 -0.1441
51974W        W95027   5.976  27.509  22.426  0.0859  0.1154  0.1786
51975W        W95028   9.635  22.552  16.584  0.1785  0.2524 -0.0309
51976W        W95029  25.269  18.482   2.510 -0.4771 -0.0444 -0.1668
51977W        W95030  23.811  30.554  22.029  0.1519 -0.0110  0.1081
51978W        W95031   6.526   0.226  18.065  0.2173  0.0405 -0.1530
51979W        W95032  27.505  25.400  28.268  0.1826  0.2913 -0.1300
51980W        W95033  23.302  29.935  14.274 -0.1131 -0.1158  0.4501
51981W        W95034  17.900  27.122  15.655  0.0561  0.1932 -0.2659
51982W        W95035  21.724   0.162  17.611 -0.3333 -0.2068  0.0271
51983W        W95036  28.709  22.411  20.381 -0.1036  0.1537 -0.0197
51984W        W95037  30.364  25.296  26.994  0.0273  0.1048  0.0785
51985W        W95038   4.164  22.179  16.171  0.0471  0.0203  0.0829
51986W        W95039  30.524  24.478  26.466 -0.3757 -0.2023  0.3439
51987W        W95040  30.967  14.511  22.632 -0.1012 -0.2919 -0.0499
51988W        W95041   8.932   0.743   1.834 -0.0844  0.0712  0.0026
51989W        W95042   2.875  29.317  13.983  0.0651  0.0029  0.3258
51990W        W95043  29.698  23.319  16.720 -0.0553 -0.0915  0.0120
51991W        W95044   1.889  34.472  24.955 -0.3181 -0.1329  0.2275
51992W        W95045  29.391  26.223  20.575  0.0334 -0.1576 -0.2496
51993W        W95046   2.040  25.820  28.560  0.3067 -0.0578  0.0757
51994W        W95047  32.633  24.011  21.244  0.1829 -0.0880  0.0183
51995W        W95048  29.729  21.312  16.676  0.2672  0.0145  0.1160
51996W        W95049   0.526  12.555  21.552  0.0974  0.0099  0.1020
51997W        W95050  11.002  27.320  14.554  0.1519  0.4351 -0.1660
51998W        W95051   1.508  13.890  25.686 -0.2966  0.0212  0.0743
51999W        W95052   1.263  15.056  25.653  0.0214 -0.1649  0.1862
52000W        W95053   0.377   7.430   3.937  0.3447 -0.2574  0.0159
52001W        W95054  21.481  16.755  23.267  0.2733  0.1799  0.0446
52002W        W95055   8.112  23.766   3.856 -0.1302  0.0039 -0.2192
52003W        W95056  13.563   4.720  28.205  0.0642  0.3117  0.3346
52004W        W95057  34.420  34.049  29.143  0.0743 -0.1555 -0.0089
52005W        W95058   2.764  26.724   4.670 -0.1475 -0.0866 -0.0203
52006W        W95059  27.488  20.301  19.276 -0.0072  0.1630 -0.0026
52007W        W95060  29.375  30.623   8.749 -0.0402 -0.2730  0.0529
52008W        W95061  22.503  26.317   1.773  0.0101  0.0529 -0.0215
52009W        W95062  29.793   9.703   1.275 -0.1964 -0.0250  0.2669
52010W        W95063  21.968   0.528   4.225 -0.2391 -0.0314 -0.1776
52011W        W95064   2.106  23.239  20.503 -0.1098 -0.1250 -0.2451
52012W        W95065  23.280  18.527  24.764  0.0577  0.1534  0.1626
52013W        W95066   6.789  22.986   0.024  0.0039  0.0649 -0.2081
52014W        W95067   6.431  25.429   0.795 -0.1770  0.1490  0.1368
52015W        W95068   4.263   4.417  22.649 -0.0795  0.0255 -0.1718
52016W        W95069  20.541  24.824  18.546  0.2435  0.1822 -0.1075
52017W        W95070  29.996  15.785  24.763  0.1724  0.2022 -0.1739
52018W        W95071  10.325  13.237  25.175  0.0736  0.0969  0.0183
52019W        W95072  20.831  32.945  10.521 -0.0108 -0.0661 -0.3443
52020W        W95073   4.036  31.308  15.315 -0.0302 -0.0609 -0.1503
52021W        W95074  32.346  15.755  25.045 -0.0734 -0.1444  0.1877
52022W        W95075  29.045  12.326  25.539 -0.0104 -0.0971 -0.2390
52023W        W95076   1.038  14.554  28.499  0.1235 -0.2304 -0.2384
52024W        W95077  33.135  29.771  13.439  0.0730 -0.0863 -0.0101
52025W        W95078   8.604  10.184  22.908 -0.1888  0.2339 -0.0190
52026W        W95079  21.363  11.733   3.352  0.0351 -0.1599  0.1131
52027W        W95080  23.220   5.589  16.961  0.4346 -0.1995 -0.0376
52028W        W95081   5.812  10.051  22.104  0.2109 -0.1760 -0.2950
52029W        W95082   3.739  22.417  25.462 -0.4085 -0.0657  0.0680
52030W        W95083   0.215  16.666  21.717  0.0593  0.1164  0.0426
52031W        W95084   4.300  27.765  13.163 -0.2639  0.2582 -0.0116
52032W        W95085   1.459  25.032   0.934  0.2459 -0.2618 -0.0514
52033W        W95086   2.665  12.418  23.984  0.0331  0.0610  0.0874
52034W        W95087  23.699  23.596  21.437 -0.2685  0.0861 -0.2794
52035W        W95088   3.805  30.757  20.014  0.2247  0.3542 -0.1746
52036W        W95089  13.473  17.334  16.849 -0.0575  0.0895  0.0363
52037W        W95090   7.880  33.757  16.052  0.0378  0.0916 -0.0208
52038W        W95091  26.656  23.972  21.918  0.0307 -0.1286 -0.3575
52039W        W95092  29.816   2.206  27.740  0.1700  0.1541 -0.0238
52040W        W95093  29.705   8.964   5.455 -0.0692  0.1223 -0.2558
52041W        W95094  32.420  31.124  14.377  0.0509  0.1809 -0.2312
52042W        W95095   4.373  20.609  26.394 -0.0040 -0.1813  0.0965
52043W        W95096  14.322  34.108  14.732  0.0478 -0.3523  0.1525
52044W        W95097  12.574  27.235  23.472 -0.1684 -0.0198  0.1976
52045W        W95098  33.871   7.604   0.586 -0.0591 -0.1291 -0.1611
52046W        W95099   6.075  19.021  28.689 -0.0101  0.0575  0.0011
52047W        W95100   3.711  26.246  21.837  0.0333  0.3263 -0.0889
52048W        W95101  26.148  11.320  21.633 -0.3300  0.1147  0.0022
52049W        W95102   0.433   2.124  15.345  0.1657 -0.3320  0.2780
52050W        W95103  30.006  31.059  20.552  0.0809  0.2182 -0.0756
52051W        W95104  28.860  21.133  28.770  0.0163 -0.0483 -0.0239
52052W        W95105  30.917   6.826  22.761 -0.0326 -0.3178 -0.3794
52053W        W95106  33.933  27.545  24.956  0.0814  0.3255  0.0396
52054W        W95107   4.642  27.637  18.208  0.2585 -0.0648  0.1613
52055W        W95108  13.980  33.786  29.056 -0.1005  0.0954 -0.1166
52056W        W95109   5.196   4.652  18.121 -0.3305  0.0071 -0.4351
52057W        W95110  33.745  25.743  22.146 -0.1910  0.0448  0.0585
52058W        W95111  22.675   1.622   7.200  0.2101  0.0025  0.1169
52059W        W95112  20.004  20.854  19.318 -0.3561  0.1545 -0.4574
52060W        W95113  34.577   0.034  16.259 -0.1152 -0.0621  0.0726
52061W        W95114  27.140  29.536   2.715  0.1060  0.0529  0.2175
52062W        W95115  23.426  19.577  27.120  0.2469 -0.1005  0.0367
52063W        W95116  30.030  29.097  27.985  0.1380  0.1881  0.2107
52064W        W95117  25.182  16.489  25.234  0.1743 -0.1516  0.2374
52065W        W95118  34.504  27.329  24.266 -0.1028 -0.1294 -0.2168
52066W        W95119  33.018  16.022  26.832 -0.1495 -0.1069  0.1083
52067W        W95120   0.794  33.227  14.082 -0.1676  0.1080  0.0525
52068W        W95121  30.675   4.608  18.658  0.1195 -0.0760 -0.1969
52069W        W95122   4.454  16.875  13.540 -0.0453  0.1947  0.1555
52070W        W95123  11.295  22.174  19.561  0.0704 -0.0224 -0.0684
52071W        W95124   1.834  22.147  16.647 -0.0647 -0.4681 -0.0223
52072W        W95125   6.811   1.980  19.542  0.2590  0.0213 -0.0271
52073W        W95126  29.622  10.846  26.374 -0.1137  0.0573 -0.1792
52074W        W95127  32.186   1.356  22.301  0.1647  0.0399 -0.1083
52075W        W95128  13.620  17.307  13.247 -0.1251 -0.0060  0.0078
52076W        W95129   9.888  17.957  24.616  0.2147  0.1025 -0.0301
52077W        W95130  27.877  28.574  23.021 -0.0445  0.0361  0.0323
52078W        W95131  25.572  20.036   3.039 -0.0076 -0.1884 -0.0458
52079W        W95132   5.820  22.885  17.842  0.1638 -0.2155  0.1674
52080W        W95133   1.621   2.639  23.060  0.2169 -0.1184  0.1582
52081W        W95134   4.392  28.027  19.453  0.2912  0.3178 -0.0721
52082W        W95135  28.099  27.692  16.401  0.2598  0.2113 -0.0167
52083W        W95136  16.248   8.010  25.329  0.1329 -0.0541  0.0196
52084W        W95137   7.750  15.112   1.459  0.0117  0.1942 -0.3145
52085W        W95138   7.520  12.042  26.927 -0.2057 -0.2154 -0.0202
52086W        W95139   2.274  25.211  26.405  0.0882  0.0175 -0.1871
52087W        W95140   4.836  13.358  24.948  0.5067  0.1408 -0.1281
52088W        W95141   2.577  27.070  27.790  0.0939 -0.1062 -0.0195
52089W        W95142  34.659  30.511  19.695  0.0102  0.0138 -0.0803
52090W        W95143  34.452  31.106   6.402  0.4057 -0.1019  0.1455
52091W        W95144   0.170  20.016  23.409 -0.0187  0.0913  0.1308
52092W        W95145   7.218  24.411  13.208  0.2813  0.1794  0.2198
52093W        W95146  29.556   1.330  22.254 -0.2318  0.2146  0.2089
52094W        W95147   0.363  24.860  20.145  0.4263 -0.0449  0.1652
52095W        W95148   2.307  18.934   9.570 -0.0767  0.0299  0.1015
52096W        W95149   5.494  20.312  15.998  0.0574  0.1948  0.0966
52097W        W95150   4.518   4.771  17.360 -0.0939 -0.2817  0.2840
52098W        W95151   5.966   1.533  14.804  0.0875 -0.0308 -0.2297
52099W        W95152  21.647  33.703  15.523 -0.1186 -0.3931  0.2231
52100W        W95153  22.537  16.017  17.319  0.0546  0.5328 -0.0826
52101W        W95154   9.059   1.450   9.419  0.0731 -0.2592 -0.0391
52102W        W95155  21.968  23.998  17.431  0.3372  0.1475 -0.2352
52103W        W95156  18.727  25.872  20.646  0.3155  0.1813  0.1485
52104W        W95157  26.409  27.042  21.342  0.1013  0.2528  0.0709
52105W        W95158  25.729  24.211  22.990 -0.1483 -0.0896 -0.0336
52106W        W95159  30.861  29.237  29.079 -0.1355 -0.0386 -0.3227
52107W        W95160   8.404  16.425  15.085  0.0248  0.3092 -0.2105
52108W        W95161   1.248   8.036  26.691  0.0194  0.0185 -0.0803
52109W        W95162  31.394  28.155  15.994  0.0160  0.2159  0.0622
52110W        W95163  31.221  33.962  16.403  0.1060  0.0963 -0.0674
52111W        W95164  26.774  19.731   8.935 -0.1069  0.1964  0.2556
52112W        W95165   6.837   7.894   0.707 -0.0027 -0.1095 -0.1755
52113W        W95166  28.377   2.702  28.105  0.1333  0.1120 -0.0004
52114W        W95167  23.386  16.342  26.816  0.2194  0.0274 -0.0754
52115W        W95168  33.053   3.309  14.901  0.0504 -0.0037 -0.1378
52116W        W95169  19.333  33.294  28.068 -0.2513 -0.0838  0.0423
52117W        W95170  27.226   8.035  22.768  0.1747  0.0852  0.1528
52118W        W95171  25.893  21.668  23.739 -0.1102 -0.4123 -0.2456
52119W        W95172   0.388  27.430   5.075 -0.3169  0.2281  0.1342
52120W        W95173   2.851  18.287   5.183 -0.1964 -0.0545 -0.0839
52121W        W95174   3.198  23.884  27.843 -0.3162  0.3445 -0.2039
52122W        W95175  24.410  29.728  18.047  0.2790 -0.0814  0.1506
52123W        W95176   0.492  13.322  20.705  0.0881 -0.0323  0.0419
52124W        W95177  32.666   1.769  20.174  0.1222  0.1919 -0.0708
52125W        W95178  26.406  11.661  24.247 -0.1321 -0.2203  0.1559
52126W        W95179  34.234  20.941  25.932 -0.0161 -0.0111  0.2898
52127W        W95180  28.953  19.073  22.767  0.0116 -0.2722  0.0545
52128W        W95181  25.376  29.218  19.929 -0.1021 -0.2988 -0.0522
52129W        W95182  33.598  33.928  26.042 -0.2312  0.0169  0.1713
52130W        W95183  20.036   7.193  23.762 -0.2506 -0.0215  0.0919
52131W        W95184  29.101   7.360   6.890 -0.0442  0.4291 -0.2786
52132W        W95185  10.833  30.906  19.744 -0.0802 -0.1976 -0.1402
52133W        W95186  23.756  11.721  20.903 -0.0774 -0.2008  0.2676
52134W        W95187   9.152   2.784  28.657  0.2598 -0.2898  0.1934
52135W        W95188  31.493   5.887  13.742  0.0044 -0.1899 -0.0646
52136W        W95189  33.340   4.087  21.150  0.3156  0.1250  0.1384
52137W        W95190  24.794  28.706   9.680  0.3204 -0.0867  0.1006
52138W        W95191  10.281   4.035  22.527  0.0374  0.1092 -0.0814
52139W        W95192   3.473   3.541  26.417 -0.2239  0.0127 -0.2138
52140W        W95193  16.150   0.428   6.026 -0.0179  0.1045  0.1921
52141W        W95194   6.652  29.375   1.215 -0.0681 -0.1661 -0.2509
52142W        W95195   5.678   0.778   4.697 -0.0286  0.1001 -0.1280
52143W        W95196  32.105  33.550  26.532 -0.2924  0.2781 -0.1490
52144W        W95197   4.865   1.408  27.150 -0.0207 -0.1113  0.2472
52145W        W95198   5.786  32.538  18.104 -0.2880  0.1245  0.4758
52146W        W95199   7.378  25.686  13.575 -0.0909  0.0977 -0.2892
52147W        W95200  23.454  11.890  25.810  0.1815 -0.0044  0.2017
52148W        W95201  29.361  23.206  16.116  0.1171  0.3707  0.1732
52149W        W95202  25.983  24.326   9.126 -0.2494 -0.1640  0.1475
52150W        W95203  34.096  28.922  19.181  0.0769 -0.1975 -0.1928
52151W        W95204  33.783  25.581  21.536  0.3034 -0.0587  0.4408
52152W        W95205   2.038  15.256  27.488  0.3106  0.1195  0.0751
52153W        W95206  19.629  23.723   2.250  0.0476 -0.0454  0.1589
52154W        W95207   3.914   0.715  14.281 -0.4100  0.0693  0.5961
52155W        W95208   9.831   1.337   0.072  0.0135 -0.2451  0.2012
52156W        W95209  16.036  27.997  21.818  0.2739 -0.1949  0.0783
52157W        W95210  23.046  20.715  27.795  0.2218  0.0394 -0.1758
52158W        W95211  12.239  23.448  22.029  0.0108  0.3916  0.2460
52159W        W95212  30.773  20.165  15.119 -0.4168 -0.1978  0.0727
52160W        W95213   1.146  23.922  26.496  0.2196  0.0533 -0.4262
52161W        W95214  28.387  28.787  15.241 -0.1435 -0.0123  0.0184
52162W        W95215  16.263  25.170  27.198  0.0315 -0.3020  0.1357
52163W        W95216  33.227  24.624  21.600  0.2196  0.0913  0.0736
52164W        W95217  14.288  26.266  19.573  0.1614 -0.1008  0.0932
52165W        W95218  32.434  31.549  14.675  0.1511  0.1091  0.0283
52166W        W95219   6.612  33.626  17.999 -0.0188 -0.2037  0.3067
52167W        W95220   0.588   0.886  13.634  0.0212  0.2561 -0.0704
52168W        W95221  26.736  28.838  14.399  0.0518  0.1394 -0.0608
52169W        W95222  13.504  19.557  24.858 -0.0325  0.1218 -0.0220
52170W        W95223  28.135  25.443  14.646  0.2425 -0.1027 -0.0865
52171W        W95224  34.447   1.396  14.584 -0.1374  0.1072 -0.2689
52172W        W95225  23.743  34.476   1.492 -0.1779  0.0440 -0.1647
52173W        W95226  21.787   4.960   9.034  0.3244 -0.3173  0.3176
52174W        W95227  16.386  10.918  15.379 -0.2217 -0.2008 -0.1081
52175W        W95228  23.897   6.914   6.695 -0.0110  0.0341  0.2104
52176W        W95229  25.837  27.763  17.333  0.0901 -0.0746  0.0803
52177W        W95230  10.968  16.833  25.058 -0.0821 -0.4030  0.2175
52178W        W95231   3.031  15.623  19.105 -0.3018 -0.1885  0.0310
52179W        W95232  16.162  23.148  15.186  0.3399  0.0941 -0.0188
52180W        W95233  13.288  19.729  20.132 -0.0695  0.0043 -0.3406
52181W        W95234  28.118  25.137  24.893 -0.0205 -0.1151 -0.2192
52182W        W95235   4.795  33.964  17.681  0.0404 -0.2853  0.2370
52183W        W95236  30.590  13.648  24.724  0.1514 -0.1095  0.1143
52184W        W95237   6.846  33.315  25.729 -0.1653 -0.0639 -0.0749
52185W        W95238  33.737  11.362  16.599 -0.0622  0.1161  0.1876
52186W        W95239  25.869  23.554   8.060  0.0811  0.0508  0.0487
52187W        W95240  25.352  28.059   8.873  0.4186  0.0594 -0.0855
52188W        W95241  23.088  12.047   1.365  0.3045  0.3623  0.1921
52189W        W95242   2.884  33.629  24.700 -0.0248  0.1356  0.0669
52190W        W95243  26.982  27.468  19.229  0.1550  0.3374  0.1135
52191W        W95244   1.283  12.531  14.723 -0.2360  0.0184 -0.2396
52192W        W95245  22.485   4.439   0.219  0.0254  0.1069  0.0579
52193W        W95246  32.833  21.244   4.034 -0.0062  0.1184  0.2032
52194W        W95247  10.676  13.299   7.461  0.1474 -0.2355 -0.0042
52195W        W95248  28.669   5.366  15.124 -0.1789  0.3354 -0.2294
52196W        W95249  33.876   7.361   3.431  0.2185 -0.1821 -0.1248
52197W        W95250  19.869  28.679  23.640  0.0570 -0.0527  0.2107
52198W        W95251  19.068  27.923  15.631  0.3006 -0.4229 -0.0198
52199W        W95252  25.319  27.800   4.470 -0.0486  0.1539  0.0703
52200W        W95253  28.419  15.079  15.996  0.0320 -0.0108 -0.3582
52201W        W95254   6.920  20.310  20.543 -0.1119  0.0134 -0.2570
52202W        W95255  33.173   2.723  23.058 -0.0955 -0.1546 -0.1065
52203W        W95256  28.463  19.891   4.568 -0.0268 -0.0349  0.1523
52204W        W95257  14.393  26.656  21.279 -0.1879  0.1140  0.0541
52205W        W95258   2.979  28.305   8.773  0.0237  0.1604  0.2157
52206W        W95259  15.312  17.272   5.138 -0.1419 -0.1604  0.0143
52207W        W95260   2.673  19.079  19.340  0.5706 -0.5113  0.0326
52208W        W95261  28.263   1.249  26.337 -0.1298  0.1032 -0.0160
52209W        W95262  11.571  13.506   7.062 -0.0242 -0.0829  0.0897
52210W        W95263  16.755  11.699  15.161 -0.0122  0.2870  0.0468
52211W        W95264   2.542   2.591   0.561 -0.1506 -0.0985  0.0797
52212W        W95265   0.839  24.276  27.764 -0.3921  0.0603  0.1261
52213W        W95266   3.119  28.988   8.232 -0.0727 -0.1669  0.3428
52214W        W95267  17.200  26.202   3.345  0.0046 -0.0332  0.2199
52215W        W95268   0.685  31.675  24.267  0.0162  0.1363 -0.2387
52216W        W95269   3.355  23.980  19.509  0.1960 -0.1887 -0.2757
52217W        W95270  26.433  30.700  23.341 -0.1123  0.0286 -0.2400
52218W        W95271  30.525  16.387  25.593  0.1697  0.0677  0.1641
52219W        W95272  21.412  27.247  19.346  0.0717  0.0174  0.2874
52220W        W95273   6.615  30.929  16.991 -0.3134 -0.0531  0.6239
52221W        W95274  14.058  27.385  15.203 -0.3911  0.0013  0.0866
52222W        W95275  10.797  22.192  24.662 -0.0226 -0.2086  0.0124
52223W        W95276   2.414  22.194  25.664  0.0235 -0.0855  0.2890
52224W        W95277  30.762  24.182  22.450 -0.1090 -0.1027  0.1401
52225W        W95278  34.012  25.939  27.157 -0.2707  0.0713  0.0298
52226W        W95279  29.016   5.776  15.509 -0.1102  0.1484 -0.1156
52227W        W95280  26.181   1.901  20.932  0.1240 -0.0140  0.3584
52228W        W95281   1.332   3.639  24.475 -0.2104  0.0579  0.0240
52229W        W95282  31.282  15.697  23.085  0.1014 -0.0940  0.0351
52230W        W95283  32.132  34.022   1.515 -0.1522  0.4254  0.4946
52231W        W95284  14.767  19.699   7.623  0.1049  0.3037  0.0477
52232W        W95285  30.120  31.691  19.956  0.0777 -0.0117 -0.1943
52233W        W95286  29.033  18.266  16.136 -0.1762  0.0086 -0.1020
52234W        W95287  24.451  13.772  18.484  0.1102 -0.4025  0.1152
52235W        W95288   5.987  21.902  17.728  0.0271 -0.1094  0.1321
52236W        W95289  29.656  20.762  22.307 -0.1619  0.1982 -0.4636
52237W        W95290   1.955  15.017   4.100 -0.3369  0.2544  0.0887
52238W        W95291   6.833  25.585  18.913 -0.2474 -0.3384 -0.2444
52239W        W95292  11.643  30.147  22.444 -0.0189  0.0778 -0.0743
52240W        W95293   0.464  25.467  21.302  0.1234 -0.3060  0.6198
52241W        W95294  26.727   0.429  23.793  0.3139 -0.1949  0.1294
52242W        W95295   7.029  15.890   5.304 -0.0386 -0.2824 -0.1336
52243W        W95296  19.945  31.228  19.213 -0.1300 -0.1706  0.0548
52244W        W95297  22.900   5.773  21.320  0.3893 -0.0079  0.0249
52245W        W95298   0.054  27.160  20.220  0.0097 -0.2445  0.0059
52246W        W95299  27.458  25.403  19.503  0.0229  0.2617  0.0546
52247W        W95300   8.753  21.898   6.384  0.1359 -0.1408  0.0258
52248W        W95301   2.637  29.277   1.271 -0.0903  0.1045 -0.1057
52249W        W95302  14.259  32.922  16.600 -0.0369 -0.2371 -0.0668
52250W        W95303  10.165  23.747   3.981  0.0691  0.0790  0.2572
52251W        W95304  13.491   8.438  22.572 -0.1124  0.1362 -0.2215
52252W        W95305  17.808  31.592  16.329  0.2242 -0.2739 -0.1122
52253W        W95306  32.155  18.957  22.015 -0.1851  0.0946 -0.0560
52254W        W95307  18.950  17.306  28.623 -0.1896  0.1037 -0.0794
52255W        W95308  29.685  31.398   0.710 -0.0603  0.2253  0.0740
52256W        W95309   3.914  30.243  22.076 -0.2749  0.2446  0.2651
52257W        W95310  31.815  22.194  16.682  0.5526  0.0395  0.1041
52258W        W95311  30.133  24.768  19.788  0.1319  0.0161 -0.2968
52259W        W95312  25.732  23.991  14.248  0.3507  0.1308 -0.0797
52260W        W95313  30.613  26.136  29.153 -0.1067  0.1643 -0.0685
52261W        W95314   0.454  15.855   1.421  0.0570 -0.3359  0.0567
52262W        W95315   0.746  21.632  23.968  0.0695 -0.1729  0.1649
52263W        W95316   3.995  28.312  20.691  0.3004 -0.3185  0.1141
52264W        W95317  32.664  22.171   6.967 -0.1633  0.2696 -0.1468
52265W        W95318  15.121  32.447   0.555  0.0954  0.1203 -0.1497
52266W        W95319  24.097   8.618   0.358  0.0201 -0.0697 -0.1044
52267W        W95320   1.731  16.864   2.004 -0.0324  0.0872  0.0293
52268W        W95321  24.501  26.784   1.629 -0.1696  0.1641 -0.0563
52269W        W95322  18.271  17.010  23.569 -0.1076  0.1035 -0.4261
52270W        W95323   5.644  32.397  19.012 -0.1486 -0.1303  0.2003
52271W        W95324  28.619  23.174   8.249 -0.2585  0.0028 -0.0760
52272W        W95325   7.758  19.562   0.152  0.2099  0.2553  0.0408
52273W        W95326  32.294  27.877  26.594  0.2173  0.0822 -0.1371
52274W        W95327   7.007  17.707  18.934  0.1938  0.0272  0.1315
52275W        W95328  26.845  15.220  21.690 -0.1757 -0.1587 -0.2708
52276W        W95329   4.884   8.191  18.355 -0.1704  0.1191  0.2659
52277W        W95330  28.367  34.465  17.665  0.2417 -0.4557 -0.0293
52278W        W95331  34.605  12.793  26.817 -0.1939 -0.1047  0.1791
52279W        W95332  20.857  25.877  21.388 -0.1985  0.2329 -0.0342
52280W        W95333  28.374  25.193   1.578  0.0678 -0.0086 -0.0375
52281W        W95334  32.723  27.303  24.166 -0.0018 -0.0986  0.1578
52282W        W95335  33.823  29.715  27.601 -0.0702 -0.0698  0.1068
52283W        W95336  30.481  30.440  23.580 -0.1040 -0.1160  0.2433
52284W        W95337  29.427  18.898  20.208  0.1335 -0.0916 -0.1342
52285W        W95338   4.959  10.213  16.934 -0.0677 -0.0147 -0.1049
52286W        W95339   4.025  26.515  29.198  0.5022 -0.0803  0.1104
52287W        W95340   2.620  30.156  19.455  0.1193  0.0338  0.2135
52288W        W95341  29.528  29.568  15.067  0.2031  0.1943 -0.0501
52289W        W95342  31.261  19.246   0.425  0.1418  0.0158 -0.0832
52290W        W95343  29.129  25.688   3.460  0.4249 -0.0221 -0.0088
52291W        W95344  30.223  27.030  29.186 -0.0110 -0.1500 -0.0116
52292W        W95345   3.614  25.047  22.737 -0.1321  0.1555  0.0603
52293W        W95346  29.000  30.890   0.963 -0.0120 -0.0170 -0.0509
52294W        W95347   5.065  28.978  28.612 -0.3288 -0.3141 -0.1690
52295W        W95348  26.690  21.620   8.096 -0.0320  0.2937 -0.1068
52296W        W95349  34.110  30.067   5.291  0.1636  0.1426  0.1902
52297W        W95350  32.084  32.054  27.146  0.1974 -0.0819 -0.1570
52298W        W95351  30.419  24.129  27.783  0.1751 -0.1592 -0.3064
52299W        W95352  13.257  23.243  10.182 -0.0271 -0.1430  0.1019
52300W        W95353   9.712  18.603  24.559 -0.3298  0.5592  0.1204
52301W        W95354  27.048  16.178   6.510 -0.0445  0.0750  0.0986
52302W        W95355  33.924  17.705  15.888  0.1232 -0.2791  0.2504
52303W        W95356   5.771   2.479  14.898  0.1435  0.1309  0.0199
52304W        W95357   5.527  28.960  27.822  0.0193 -0.0931  0.2301
52305W        W95358  25.242  12.791   3.218 -0.0801  0.2012 -0.1496
52306W        W95359  32.739   1.018   2.439  0.2512  0.0493  0.0594
52307W        W95360   9.570  16.185  24.038  0.0763 -0.0051  0.3334
52308W        W95361   1.863  19.247   4.219 -0.1442  0.3350 -0.0621
52309W        W95362  28.867   2.113  15.416 -0.1458  0.1549  0.2476
52310W        W95363  21.032  11.347  15.039  0.0233  0.0092 -0.1618
52311W        W95364  27.290  26.418  26.555 -0.0559  0.3083  0.0651
52312W        W95365  30.173  19.220  16.536 -0.4397  0.0597 -0.3501
52313W        W95366  28.697   0.160  24.281  0.1792 -0.3299 -0.3481
52314W        W95367  23.602  31.250  22.650 -0.1179 -0.2618 -0.0622
52315W        W95368  33.939  19.114  18.697 -0.0450  0.0335  0.1179
52316W        W95369   9.290  17.292  15.401  0.2335  0.0569  0.0528
52317W        W95370   1.668   0.372   7.725 -0.0890  0.0591 -0.1115
52318W        W95371  27.367  17.899  28.631 -0.3136 -0.0169 -0.1454
52319W        W95372  11.609  17.368  22.905 -0.1203  0.2172  0.2868
52320W        W95373  22.612  27.678  26.086  0.0643  0.0729  0.0980
52321W        W95374  29.760  25.499   8.437  0.1343 -0.3027 -0.1442
52322W        W95375   4.936   4.850  21.701  0.2887  0.5552 -0.0337
52323W        W95376  23.393  30.675  16.691  0.2475  0.0560  0.0658
52324W        W95377  28.378  34.600   6.129 -0.1542  0.1814  0.2593
52325W        W95378  33.518  26.537   5.494 -0.4045  0.1113  0.1925
52326W        W95379  26.598  30.938  10.106  0.0792 -0.2162 -0.0389
52327W        W95380   5.094   1.845  24.736  0.2032  0.1214 -0.3969
52328W        W95381  34.360  34.600  16.746 -0.1284 -0.0025 -0.1886
52329W        W95382  34.506  15.430  18.205 -0.1928 -0.0219 -0.1124
52330W        W95383   3.460  13.637   5.660 -0.0034  0.0473  0.1722
52331W        W95384  29.155  27.541  25.674 -0.0869 -0.1357 -0.5075
52332W        W95385  30.100   0.084   0.366  0.0186 -0.0408 -0.2099
52333W        W95386  12.100  17.350  27.039  0.0556  0.1371  0.0617
52334W        W95387  26.766  28.556   5.188  0.1042 -0.0407  0.0336
52335W        W95388  30.003  23.821  20.888 -0.0631 -0.1216  0.0978
52336W        W95389  33.292  17.544  28.413  0.3224  0.0159 -0.0261
52337W        W95390  31.201  15.555   9.135  0.4203 -0.3933 -0.0597
52338W        W95391  18.860  27.431   6.656  0.0745  0.0761 -0.2124
52339W        W95392  16.569  19.981  23.793 -0.0776 -0.1345 -0.0064
52340W        W95393   2.134  25.038  25.384  0.0684  0.2037  0.1014
52341W        W95394   2.569  17.023  27.735 -0.1139 -0.5832  0.0839
52342W        W95395  15.795  23.365   9.136  0.2080  0.0339 -0.2537
52343W        W95396  27.660  24.768  18.160 -0.1433  0.0041 -0.1034
52344W        W95397   6.375  12.438  22.545  0.1814 -0.1198  0.1863
52345W        W95398   2.506  29.763   5.511 -0.0229  0.3787  0.6770
52346W        W95399  34.553  12.684   9.505 -0.0426 -0.1566  0.1064
52347W        W95400  22.601  23.651  15.577 -0.0799 -0.0087  0.0851
52348W        W95401   4.331  29.688   4.512 -0.0587  0.2293  0.1859
52349W        W95402   0.993   0.490   0.688 -0.0424 -0.2159 -0.0807
52350W        W95403  32.714  32.231  19.168  0.1138 -0.0371 -0.1174
52351W        W95404  26.601  22.053  24.832  0.0464 -0.1014 -0.0719
52352W        W95405  31.697  23.704  25.093 -0.2888  0.2374  0.0456
52353W        W95406  27.668  31.266  15.728  0.0153 -0.4159 -0.2221
52354W        W95407  24.953  21.811  21.770  0.2516  0.0021 -0.0524
52355W        W95408  11.638  20.765  25.300 -0.0690  0.0676  0.2350
52356W        W95409  30.982  28.228  29.127 -0.0540 -0.1715  0.2751
52357W        W95410   4.309  28.938   4.070 -0.1662  0.1072  0.0573
52358W        W95411  29.619  20.362  17.350  0.0277  0.0413  0.1481
52359W        W95412  18.496   7.385  23.895 -0.1585  0.0701 -0.1123
52360W        W95413  20.045   7.786  21.333  0.1889  0.0760 -0.3438
52361W        W95414  10.115   5.519  20.249 -0.1026 -0.3501 -0.1061
52362W        W95415  33.194  21.473  20.258  0.1417  0.1094  0.0042
52363W        W95416  32.760   3.095   0.688  0.2887 -0.0933 -0.0566
52364W        W95417   7.923  18.757   7.230  0.0931  0.2022 -0.0381
52365W        W95418   8.267  12.056  19.308  0.2825 -0.2046  0.1004
52366W        W95419  24.269  24.918  26.581  0.1764 -0.2230 -0.0690
52367W        W95420   9.196  24.114  18.263  0.2076  0.2268 -0.0939
52368W        W95421  18.919  17.665   3.053 -0.0987 -0.2430 -0.0203
52369W        W95422  30.544   5.582  21.244 -0.0741 -0.3486  0.0375
52370W        W95423  31.216   8.308   6.247 -0.1764 -0.2520  0.1641
52371W        W95424  29.057  16.593  22.228 -0.0370  0.0810  0.2319
52372W        W95425  27.467   3.629  18.114 -0.1739  0.0513  0.1512
52373W        W95426  34.416  34.435  28.559 -0.3132 -0.2537  0.0923
52374W        W95427   6.891  22.446   0.024  0.1485 -0.0005  0.2276
52375W        W95428  20.975  33.576   0.154 -0.1470  0.0043 -0.0400
52376W        W95429  27.063  10.545  17.678 -0.0134  0.1713 -0.0776
52377W        W95430   6.284  26.041  25.666 -0.0472 -0.0814  0.2445
52378W        W95431   3.632   8.521   6.165 -0.0012 -0.1532  0.0865
52379W        W95432  24.519  15.500  18.525  0.0441 -0.1125  0.0049
52380W        W95433  29.591   6.956   4.909 -0.1053  0.1621 -0.3044
52381W        W95434  25.379  14.184  28.830  0.2719  0.1038 -0.1751
52382W        W95435   0.580  19.225  28.826 -0.1134  0.0121  0.1662
52383W        W95436  20.465  21.216   5.631  0.1125 -0.1705 -0.0168
52384W        W95437  25.665  14.922   8.881  0.0220 -0.1580 -0.2608
52385W        W95438  32.629   6.177  22.382  0.1440  0.0550  0.0465
52386W        W95439  21.736   4.861   5.274 -0.0127  0.1540 -0.0242
52387W        W95440   0.393  13.575  19.651  0.0229 -0.0981  0.1578
52388W        W95441  25.389  33.231  28.055  0.3617  0.0163  0.2104
52389W        W95442  24.333  31.047  19.004  0.0661  0.2530  0.0248
52390W        W95443   3.948  12.412   9.404  0.3069 -0.2635 -0.1995
52391W        W95444  21.041  22.905   5.441 -0.0730  0.1277  0.2572
52392W        W95445  32.303  22.753  21.291  0.1208 -0.1049 -0.3397
52393W        W95446   9.285   9.868   1.073  0.0430 -0.1988  0.2281
52394W        W95447   0.341  26.928  22.960 -0.0718 -0.1043  0.2899
52395W        W95448   9.097  28.654  16.285  0.0059 -0.2524  0.2891
52396W        W95449  29.526   0.441   2.467  0.0049  0.3775 -0.0513
52397W        W95450  21.207   8.100  24.233 -0.0302 -0.0105  0.2641
52398W        W95451  25.389  11.147  14.526 -0.0083 -0.1576  0.0282
52399W        W95452  26.667   3.455   2.548 -0.0672 -0.2518 -0.0968
52400W        W95453  26.662  33.479   3.552 -0.0857  0.2511 -0.0586
52401W        W95454  29.989  17.625  26.165  0.1235  0.1051  0.1791
52402W        W95455   8.403   1.032  22.383  0.2728  0.1301  0.1573
52403W        W95456  28.025  11.755  24.026 -0.0053 -0.0766 -0.0619
52404W        W95457  25.127  31.910   4.962 -0.2197  0.0407 -0.0157
52405W        W95458   3.297  22.086  23.698 -0.0694  0.2928 -0.2906
52406W        W95459  23.502  21.961  22.346 -0.0631 -0.0626 -0.1161
52407W        W95460   4.243  28.902  24.675  0.1089 -0.2985 -0.0639
52408W        W95461  23.591  24.146  22.443 -0.1423 -0.0824  0.1717
52409W        W95462  29.557  28.618  15.192 -0.0865 -0.0328  0.0809
52410W        W95463  34.276  14.185  13.585 -0.0336 -0.1296 -0.2035
52411W        W95464  24.382   7.773  22.110  0.2749 -0.4933 -0.0557
52412W        W95465   2.903   9.767  25.393  0.1745 -0.1277  0.0712
52413W        W95466  12.744  27.319  17.081 -0.2189 -0.1733  0.2480
52414W        W95467  27.350  28.695  17.252 -0.2636 -0.0523  0.0682
52415W        W95468   2.464  16.377   2.796  0.2154  0.2745 -0.0164
52416W        W95469   1.977  33.195  19.337 -0.1462  0.6923  0.2303
52417W        W95470  32.558  16.177   3.437  0.0483 -0.0295  0.1773
52418W        W95471  26.299  30.147  22.960 -0.3183  0.4313  0.0904
52419W        W95472  21.622  21.815   5.457  0.0393  0.0480 -0.2311
52420W        W95473  32.207  20.193  15.912 -0.1792 -0.0113  0.2484
52421W        W95474  31.531  28.484  16.902  0.0437 -0.0573  0.0021
52422W        W95475  28.880  26.974   1.278  0.0887 -0.1424 -0.0048
52423W        W95476  30.882   9.717  14.086  0.1256 -0.2373 -0.0730
52424W        W95477  14.538  24.470   2.864 -0.0708  0.0531 -0.1671
52425W        W95478  32.712  16.558  27.720  0.0817 -0.0459  0.1257
52426W        W95479  17.443  30.680  19.441  0.0575  0.0335 -0.1863
52427W        W95480   1.954   0.816  15.332 -0.0133  0.3846  0.2032
52428W        W95481  18.361  30.810  21.877  0.0209  0.1327  0.0025
52429W        W95482  12.391  22.870  14.713  0.1372 -0.0077 -0.2899
52430W        W95483   1.790   9.323   4.821  0.1042  0.0912 -0.3967
52431W        W95484   1.819  16.873   6.042  0.0581  0.1038 -0.1131
52432W        W95485   9.968  27.957  18.770  0.0462 -0.1980  0.2302
52433W        W95486  18.390  27.495  28.296  0.2965  0.2861 -0.0459
52434W        W95487  32.868   3.290   7.786 -0.0298  0.1159  0.1214
52435W        W95488  34.075  27.025  25.113 -0.2984 -0.1241 -0.0799
52436W        W95489  32.992  19.141   1.565 -0.0357 -0.1986 -0.1053
52437W        W95490   4.335  27.084   5.645 -0.0494  0.1143  0.2053
52438W        W95491  33.373  11.404   4.838  0.2241 -0.0503 -0.0286
52439W        W95492   3.450  24.534  15.414 -0.0573 -0.0544 -0.0954
52440W        W95493   4.352  10.669  26.703 -0.1445  0.2640  0.2404
52441W        W95494  32.832  24.507  23.104 -0.0080 -0.2447 -0.4487
52442W        W95495  10.943   4.215   5.041 -0.1858  0.2931 -0.2219
52443W        W95496  19.705  33.059  28.760  0.0385 -0.2348 -0.1259
52444W        W95497  34.155  20.164  15.926 -0.4005  0.1926 -0.1026
52445W        W95498  34.465  13.368  22.408  0.2301  0.1427  0.0597
52446W        W95499  22.669  28.657  20.256  0.0898 -0.2738  0.0240
52447W        W95500  26.905  21.376  23.718  0.1974 -0.0213 -0.3590
52448W        W95501  28.672  21.641   3.806 -0.0380 -0.0615  0.0893
52449W        W95502   1.340   5.971  20.754  0.2050 -0.3193 -0.0415
52450W        W95503  11.671  23.876   9.864 -0.3786 -0.1930 -0.0461
52451W        W95504  32.340  25.694  27.839 -0.1677  0.1045  0.1653
52452W        W95505   1.446  27.150  24.852 -0.1730  0.0441 -0.3308
52453W        W95506  27.974  14.833   0.222  0.1150 -0.1949 -0.3291
52454W        W95507  34.195  23.120  21.445 -0.0432  0.1181  0.1708
52455W        W95508   2.713  22.562  15.609  0.0293 -0.0493  0.2372
52456W        W95509  25.863  16.411  10.539  0.1578 -0.1135 -0.1339
52457W        W95510  34.424  12.944   4.241 -0.1328 -0.1061 -0.1379
52458W        W95511  34.273  22.599  26.740 -0.3038 -0.1270 -0.3496
52459W        W95512  33.605  19.462   0.481  0.0536 -0.1985  0.2024
52460W        W95513   4.117  11.791  28.474  0.0820  0.1636 -0.0630
52461W        W95514   1.031  16.539  15.451  0.0482  0.0161  0.0101
52462W        W95515  34.100  28.521  22.992  0.0832 -0.2179 -0.2474
52463W        W95516  23.459  12.873   2.502 -0.0818 -0.3930  0.2904
52464W        W95517  25.965  18.972   3.149 -0.3974  0.1210 -0.0856
52465W        W95518  31.108  32.122  26.475  0.0480 -0.0108  0.0651
52466W        W95519  24.157  19.964   6.765 -0.0115 -0.1417 -0.3218
52467W        W95520  10.585   9.748  26.085 -0.0517  0.0023 -0.0593
52468W        W95521   7.669  26.932   0.177  0.1993  0.1178 -0.1919
52469W        W95522  13.928  11.436  23.031 -0.1484  0.0201  0.1387
52470W        W95523  28.822  28.467  15.470  0.3532 -0.1862  0.0852
52471W        W95524  27.462   0.334   9.228 -0.0669  0.0234 -0.2032
52472W        W95525  28.977  30.841   8.492  0.1039 -0.3745 -0.2481
52473W        W95526   5.840  32.056  16.512 -0.1812 -0.0292 -0.0333
52474W        W95527  18.692   8.123  21.875 -0.1277  0.2046 -0.0381
52475W        W95528   0.294   5.108  27.763  0.1796 -0.1785 -0.0813
52476W        W95529  34.074  31.641   1.874 -0.5588  0.1009 -0.4176
52477W        W95530  29.811  21.689  25.698 -0.0551 -0.0681  0.1206
52478W        W95531   9.850  24.106  26.657 -0.0094 -0.0506 -0.0659
52479W        W95532  26.057  26.424   6.476 -0.0703  0.2740  0.3420
52480W        W95533  26.939  21.795  25.144 -0.1849  0.1814  0.0178
52481W        W95534  22.260   0.314   0.224  0.0532 -0.0176  0.1151
52482W        W95535   5.565  33.932  24.831  0.3166  0.1605  0.0953
52483W        W95536   6.641  25.251  17.591 -0.3465 -0.2605 -0.0407
52484W        W95537  30.873  18.851   5.260 -0.3139 -0.1428 -0.0328
52485W        W95538  30.426  26.473  24.369 -0.0962 -0.1256  0.2669
52486W        W95539  19.609   8.460  20.148  0.0088  0.1049 -0.1296
52487W        W95540  21.635  23.114  24.193 -0.1922  0.1705 -0.2109
52488W        W95541  30.772  13.608  21.531 -0.2120 -0.0180  0.0905
52489W        W95542   3.441  11.706  23.311 -0.0269 -0.0596  0.3833
52490W        W95543   4.770  26.505  22.086 -0.2743  0.1141 -0.1487
52491W        W95544   1.509  34.128  20.235  0.0589  0.0167 -0.2448
52492W        W95545  14.453   7.001  25.320  0.1561 -0.0777  0.0753
52493W        W95546  31.098  21.570  15.592  0.1227  0.0234  0.1905
52494W        W95547   4.509  30.636   6.690 -0.2274  0.0266 -0.1566
52495W        W95548  19.230  26.195  19.097  0.2511 -0.0629 -0.3615
52496W        W95549   7.740   5.677   4.511 -0.1619  0.0206 -0.2825
52497W        W95550   4.379   5.282   2.895  0.1419  0.2517  0.0381
52498W        W95551  31.073   9.329   8.492  0.0350  0.3978 -0.2341
52499W        W95552  32.688  18.163  22.988  0.1205 -0.2075 -0.3670
52500W        W95553  17.056  10.595  21.300  0.1480  0.0034 -0.0598
52501W        W95554  16.125  28.718  25.800 -0.1381  0.0828  0.2631
52502W        W95555   6.987   4.391   1.023  0.0802 -0.2682  0.0938
52503W        W95556  30.907  19.640  24.295  0.0284  0.0646 -0.1628
52504W        W95557   2.156  23.065  23.964  0.0620  0.0665  0.3691
52505W        W95558   4.129  21.733  22.329 -0.0771 -0.0325  0.0390
52506W        W95559   1.866  28.119  24.963 -0.1168  0.0170  0.2432
52507W        W95560  21.660  29.341  23.100  0.0002 -0.0462 -0.0828
52508W        W95561  17.942  18.070  27.979 -0.1720  0.0078 -0.3620
52509W        W95562   4.206  29.974  22.474  0.0614 -0.1103  0.0083
52510W        W95563  28.766  24.790   1.608  0.1732 -0.0829  0.0824
52511W        W95564  33.458  33.331   5.192 -0.0458  0.1645  0.2578
52512W        W95565  21.784  32.831  27.186  0.1721 -0.0104  0.0169
52513W        W95566  24.603  22.274  24.971 -0.3387  0.0348  0.3231
52514W        W95567  27.394  24.835   0.493 -0.1194  0.0823 -0.0884
52515W        W95568  24.928  20.074  24.258 -0.2140 -0.1665  0.3346
52516W        W95569   8.015   3.336  27.723 -0.2191 -0.0614  0.1599
52517W        W95570   7.131   5.831  16.311 -0.3686  0.1005  0.0474
52518W        W95571  30.542  18.204   8.488 -0.2016  0.0026  0.2357
52519W        W95572   3.892  31.792  25.537  0.1224  0.1822  0.2269
52520W        W95573   1.326  19.423   7.195  0.3973  0.2024 -0.1507
52521W        W95574  24.796   4.118  26.823  0.1252 -0.1961 -0.2785
52522W        W95575  34.176  22.084  14.696  0.1101 -0.3519  0.2386
52523W        W95576  24.800  29.395  22.986 -0.1397 -0.2264  0.0041
52524W        W95577  14.553  31.519  21.892  0.1932 -0.1370 -0.1985
52525W        W95578  33.769  25.113   6.781  0.0174  0.0867  0.2153
52526W        W95579   3.798  20.952  14.124  0.1138  0.2375 -0.2011
52527W        W95580  20.394  10.811  20.378  0.2466 -0.2383 -0.2649
52528W        W95581  15.011  20.726   1.695 -0.0247  0.0459 -0.2979
52529W        W95582   7.839  21.147  18.225 -0.1597  0.0331 -0.2070
52530W        W95583   8.961  30.855   6.365  0.0532 -0.2997 -0.2020
52531W        W95584  26.356  24.915  22.461  0.0839  0.0414 -0.3897
52532W        W95585  25.231  18.364   0.467 -0.2790  0.0378 -0.1232
52533W        W95586  34.210  23.164  27.428  0.2193 -0.3294  0.0047
52534W        W95587   0.782  26.192   8.916  0.2095 -0.0254  0.1239
52535W        W95588  34.517  14.977  25.765 -0.0639 -0.1831 -0.1092
52536W        W95589   2.075  27.060  27.475  0.2282 -0.3804  0.0527
52537W        W95590   1.325  26.240   7.110 -0.1081 -0.0457  0.0735
52538W        W95591   6.732  21.375   0.731  0.2047 -0.0572  0.0460
52539W        W95592   9.325  33.066   4.222 -0.1113 -0.0017 -0.1752
52540W        W95593   7.415   3.004  26.845 -0.1359 -0.2392  0.2972
52541W        W95594  17.794  21.711  17.300  0.2607 -0.1222  0.1362
52542W        W95595  17.248  13.569   3.471  0.1739  0.1969 -0.0186
52543W        W95596  19.703  22.933  22.891 -0.1244 -0.2632 -0.0650
52544W        W95597  33.057  32.368   2.865 -0.1116 -0.3120  0.1851
52545W        W95598  34.661  31.805   9.645 -0.2022 -0.0058 -0.1516
52546W        W95599  16.745  27.130  27.791  0.0330  0.1472 -0.0346
52547W        W95600  27.463  12.436   6.602  0.0747 -0.0704  0.4119
52548W        W95601  18.039   4.460  14.381 -0.0485 -0.1025  0.0177
52549W        W95602  29.515  22.719  16.480  0.0378 -0.0598 -0.2218
52550W        W95603   5.335  33.477  15.550 -0.0952  0.4560  0.1027
52551W        W95604   3.409  27.997  15.592 -0.0159  0.2159 -0.2251
52552W        W95605  33.889  23.182  23.463  0.1324 -0.0224  0.1108
52553W        W95606  19.940  33.639   9.820 -0.1784  0.1675  0.1582
52554W        W95607   0.959  18.386  17.709  0.3797  0.1713 -0.2140
52555W        W95608  27.462  21.138   1.593  0.2543  0.3520 -0.2478
52556W        W95609   4.073  31.142  22.208  0.0080 -0.0020 -0.2034
52557W        W95610  29.923  32.199  25.304  0.0153 -0.0387  0.0537
52558W        W95611   5.704  18.709  24.067 -0.1917  0.5959  0.3534
52559W        W95612  31.058  27.020  22.378 -0.0324 -0.1092 -0.2073
52560W        W95613   9.409  27.654  15.706  0.0950 -0.1201  0.0165
52561W        W95614  33.294  19.885  17.703 -0.1856 -0.2730  0.1670
52562W        W95615   5.174  25.575  20.951 -0.0051 -0.2130  0.1850
52563W        W95616  28.128  29.267  25.547  0.0065  0.0536 -0.1734
52564W        W95617  11.749  31.365  23.374  0.2143 -0.2553 -0.3512
52565W        W95618   5.168  19.314   0.047  0.0062 -0.2210 -0.3944
52566W        W95619   0.482  26.696  21.745  0.3697 -0.3658  0.2367
52567W        W95620   6.920  32.009  20.932 -0.0952  0.0225  0.0624
52568W        W95621  28.709   3.234   3.062  0.0409 -0.1884 -0.1017
52569W        W95622   5.646   8.288  27.569 -0.0205 -0.0866 -0.1389
52570W        W95623  32.450   0.498  28.034  0.2309  0.2783 -0.0403
52571W        W95624  32.480  18.884  19.236 -0.1381  0.2692 -0.1315
52572W        W95625   0.568  25.793  14.357 -0.0265 -0.0545  0.1259
52573W        W95626   6.828   0.838  15.476 -0.1904 -0.2369  0.2744
52574W        W95627  12.343  20.809  17.738 -0.2890 -0.0875 -0.0929
52575W        W95628   3.775  22.556  19.159  0.3370  0.0278  0.0349
52576W        W95629  33.042  29.219  24.768 -0.0740  0.2395  0.1892
52577W        W95630  33.633  14.726  22.269 -0.2647  0.0454 -0.2009
52578W        W95631   6.574   1.817  20.512 -0.1912  0.1208  0.1297
52579W        W95632   2.050   4.601  18.910  0.2319  0.0518 -0.0105
52580W        W95633   5.690   8.491  16.794 -0.2096  0.1983  0.0320
52581W        W95634  29.336   1.196  18.329  0.1229 -0.0556  0.3782
52582W        W95635  27.709   0.430  25.768 -0.1557  0.0893 -0.1846
52583W        W95636  20.734  22.369  24.196  0.0529  0.1792  0.2071
52584W        W95637  30.420  24.410  16.594  0.1552 -0.0970 -0.1329
52585W        W95638  31.851  29.730  14.158  0.0973 -0.1623 -0.0131
52586W        W95639  12.619  24.431  21.785  0.0331 -0.3023 -0.0426
52587W        W95640  29.556   1.756  26.908 -0.0197 -0.1577 -0.0831
52588W        W95641  28.582  31.118  17.809 -0.0923 -0.1483  0.2250
52589W        W95642  27.307  29.457  23.763 -0.3552  0.2749  0.2515
52590W        W95643   3.431  33.199  20.790  0.2776  0.0108  0.1025
52591W        W95644  30.890  26.379  23.566 -0.0066 -0.3090  0.1052
52592W        W95645  30.052  22.749   7.823 -0.0063  0.0037 -0.1902
52593W        W95646   6.328  24.202  22.122  0.1974 -0.3978  0.0661
52594W        W95647  13.109  31.839  21.701  0.1300 -0.0770  0.0529
52595W        W95648  30.843  21.498  16.190 -0.0675 -0.0813  0.1051
52596W        W95649  27.100  12.324  15.300 -0.3096  0.1096 -0.3562
52597W        W95650   4.639   0.107  17.456 -0.0916  0.0815  0.1010
52598W        W95651  22.846   4.548   7.079 -0.1044  0.1458 -0.1533
52599W        W95652  10.915  30.952  20.680 -0.3067 -0.3776 -0.3658
52600W        W95653  29.697   6.178  17.250 -0.0197  0.3053 -0.1145
52601W        W95654  34.685  27.588  17.323 -0.1694 -0.2684 -0.1586
52602W        W95655  31.921  29.376  28.467 -0.0966 -0.2220  0.0717
52603W        W95656   2.715   4.689  28.580  0.2652  0.4400 -0.5134
52604W        W95657  24.509   0.200  17.398  0.0361 -0.0650  0.0255
52605W        W95658  31.463  27.615  15.355 -0.3335  0.0153 -0.3518
52606W        W95659  34.473  18.901  13.729 -0.0181  0.3080 -0.0553
52607W        W95660  32.921   9.634  18.241  0.0244  0.0847 -0.3479
52608W        W95661  26.396  12.077  16.505 -0.0840 -0.0820 -0.2331
52609W        W95662  18.688  27.921   4.732 -0.1077 -0.0971 -0.2356
52610W        W95663  23.003  29.832  24.656  0.1611 -0.1129  0.4456
52611W        W95664  21.148  12.175  14.484 -0.1990 -0.5123 -0.1446
52612W        W95665  34.261   9.053  18.848 -0.0449  0.3564 -0.2527
52613W        W95666   6.108   6.609  18.065  0.3617  0.0657 -0.0101
52614W        W95667  32.088  24.390  22.434 -0.3114 -0.0768 -0.1295
52615W        W95668  11.463  27.844  21.283  0.0281 -0.0392  0.1732
52616W        W95669   9.050  22.822  24.459  0.1696 -0.2192  0.1591
52617W        W95670  30.577  12.523  17.270  0.3545  0.3070 -0.0719
52618W        W95671   1.940  32.203   2.331  0.0883  0.3697  0.0833
52619W        W95672  17.194  23.471  25.107 -0.1154 -0.0820  0.1509
52620W        W95673  18.014   3.968  15.949 -0.0054  0.2764 -0.2588
52621W        W95674   0.952  34.424  24.808  0.1307  0.0355  0.0197
52622W        W95675   4.397  22.630   6.490  0.1150  0.0860 -0.0461
52623W        W95676  11.277   1.515   3.595 -0.0528 -0.2287 -0.3151
52624W        W95677  20.712   2.717   1.966  0.3809 -0.0620 -0.2818
52625W        W95678  30.181  25.879  20.486 -0.0254  0.1256 -0.2641
52626W        W95679   7.725   2.945  14.756  0.2959 -0.2043  0.0053
52627W        W95680  23.349   3.199  15.139 -0.0277  0.1344  0.1547
52628W        W95681   9.449  26.327  26.714  0.0275  0.1687  0.1743
52629W        W95682  25.205   2.299  17.993  0.2304  0.0074 -0.0598
52630W        W95683   5.881  30.017  24.477 -0.0648  0.0645  0.2557
52631W        W95684  22.867   4.956   0.158  0.1935 -0.0937 -0.1194
52632W        W95685  22.170  32.612  19.627  0.0593 -0.2988  0.0241
52633W        W95686  30.569  21.982  17.854 -0.0449 -0.1277  0.0877
52634W        W95687   0.250  31.756   1.332 -0.1006  0.2078 -0.0383
52635W        W95688   5.026  34.057  24.806 -0.1748  0.1603 -0.2661
52636W        W95689  16.673  16.333  13.643 -0.2345  0.0230 -0.0050
52637W        W95690   2.720  30.541  19.163  0.0905  0.2265  0.3723
52638W        W95691   8.849  34.432  24.228  0.1618 -0.0654  0.1511
52639W        W95692   0.395   4.551  20.732  0.0175 -0.1184 -0.1233
52640W        W95693  32.213   1.738  14.440  0.0752 -0.3301  0.0348
52641W        W95694   1.376  34.386  15.756  0.0936 -0.1049  0.0095
52642W        W95695  24.806  23.942  20.777 -0.0889 -0.0585 -0.1490
52643W        W95696  23.332  21.039  21.229  0.0712  0.0352 -0.1661
52644W        W95697   0.428   1.521  24.192  0.0538 -0.2150  0.0525
52645W        W95698   7.382  30.880  23.255  0.2685 -0.0064 -0.1351
52646W        W95699  14.334  25.344  18.855  0.2938  0.0420  0.0596
52647W        W95700  22.170  22.892  15.759  0.0494  0.0740 -0.2400
52648W        W95701   9.424   6.330  17.814  0.0871 -0.0055  0.0727
52649W        W95702  27.728  15.063  18.140 -0.0087  0.0049 -0.4482
52650W        W95703   4.131  12.519  15.766  0.1294 -0.1609  0.0084
52651W        W95704  34.206   2.784   3.856  0.1846  0.3053 -0.0068
52652W        W95705  30.781  27.408  20.920  0.0525 -0.1329 -0.2298
52653W        W95706  30.572  22.904  14.657  0.1237  0.3288 -0.0208
52654W        W95707  32.324  24.591  24.388 -0.0487 -0.0442 -0.0140
52655W        W95708   0.493  21.176  15.236  0.1984 -0.0759 -0.0467
52656W        W95709   2.539  22.539  18.935 -0.0044  0.1858  0.1920
52657W        W95710  27.202   5.419  22.026 -0.1117 -0.1165  0.4379
52658W        W95711  25.247   2.811  18.285  0.0939 -0.5568 -0.1888
52659W        W95712  32.178   2.472  14.709  0.0326  0.2105 -0.1273
52660W        W95713   5.310   4.390  19.824 -0.0218  0.3207 -0.3019
52661W        W95714  14.489  19.639  14.968  0.1227  0.2650  0.1917
52662W        W95715  27.865   9.324  22.006 -0.2101  0.1348 -0.0282
52663W        W95716   0.754  29.314  23.681 -0.0241  0.0586 -0.0089
52664W        W95717  27.616  33.982   1.990  0.3104 -0.0297  0.0944
52665W        W95718   5.980  12.302  25.576 -0.1100  0.1176  0.1135
52666W        W95719  34.585  25.615  15.883  0.0219  0.1318  0.0622
52667W        W95720  24.225  22.009   2.934  0.0551  0.0129  0.2833
52668W        W95721  15.091  20.669  24.493  0.5570 -0.0075 -0.0723
52669W        W95722   1.979  29.912  27.109 -0.0373  0.0188  0.2020
52670W        W95723  34.167  23.528   2.076  0.1163 -0.0554 -0.1184
52671W        W95724  32.518   3.322  23.941  0.1869 -0.3749  0.0416
52672W        W95725  18.797  30.234  20.044 -0.0558 -0.2345 -0.0755
52673W        W95726   3.144  29.962  18.285  0.1614 -0.0904  0.2869
52674W        W95727   0.184   2.654  16.499  0.0529  0.3272  0.2113
52675W        W95728  26.473  28.103  14.725 -0.0445  0.1588  0.2305
52676W        W95729  30.257  26.602  21.032 -0.0929  0.1276  0.1580
52677W        W95730  29.563   0.904  23.436  0.3656  0.0995  0.2083
52678W        W95731  32.948   0.560   5.842  0.1709 -0.1092  0.0706
52679W        W95732  28.531  32.898  14.450  0.0691 -0.1871 -0.0340
52680W        W95733   1.474  33.163  25.325 -0.0997  0.0382 -0.2210
52681W        W95734  32.572   6.854   9.912 -0.0192 -0.0793  0.0915
52682W        W95735  30.307  13.028  16.328 -0.2241 -0.1526  0.0429
52683W        W95736  11.104   5.427   3.027 -0.0772 -0.0551 -0.0643
52684W        W95737   0.661  22.190  18.902 -0.0264  0.0132  0.2025
52685W        W95738   5.911  26.441  20.129 -0.1279 -0.1307  0.0178
52686W        W95739  14.151   1.405  18.251 -0.1253 -0.0423 -0.2382
52687W        W95740  31.123  17.330  14.816  0.1458 -0.1443 -0.1413
52688W        W95741   0.636  27.304  24.520 -0.2216 -0.0374 -0.1061
52689W        W95742  27.967  30.694   5.906 -0.0842 -0.0905  0.3144
52690W        W95743   1.050  25.396  14.649  0.0177  0.1668  0.0901
52691W        W95744   3.899  16.086  24.513 -0.2804 -0.0744 -0.0009
52692W        W95745   4.826  20.271  15.958  0.0964  0.1563  0.1053
52693W        W95746   0.340   4.546  15.374  0.2123 -0.5846  0.3024
52694W        W95747  13.749   2.471  20.262 -0.0265  0.3377 -0.1554
52695W        W95748  21.295  11.714  15.878  0.2732 -0.1558  0.2053
52696W        W95749  27.067  20.917  22.999 -0.0097 -0.0365  0.1345
52697W        W95750  17.469   5.454   6.456 -0.3571  0.0111  0.1557
52698W        W95751   9.543   1.116  18.021  0.0251 -0.5187  0.0745
52699W        W95752   0.437  15.271  17.381  0.0613 -0.1108 -0.0556
52700W        W95753   8.356  23.324  14.227 -0.1869 -0.2249  0.1453
52701W        W95754   6.724  28.940  23.546  0.1456 -0.0493 -0.1642
52702W        W95755   1.331  32.079  25.577  0.2073 -0.1685 -0.4882
52703W        W95756  27.256  21.341  17.203 -0.2565  0.0800  0.1248
52704W        W95757   5.109  34.323  23.838 -0.3759  0.1618 -0.1153
52705W        W95758  34.501  30.540  20.880 -0.0247  0.0397  0.0414
52706W        W95759  28.612   7.828   5.815 -0.0634  0.2103  0.2230
52707W        W95760   6.374  29.630  16.164 -0.1739  0.1850  0.0143
52708W        W95761   5.319   4.822  27.568  0.1127 -0.2021 -0.2125
52709W        W95762  12.823   2.740  18.778 -0.0339  0.0579  0.0809
52710W        W95763   8.048  10.101  23.557 -0.2025  0.0782 -0.0836
52711W        W95764  34.287  30.713  24.841 -0.0175  0.0353 -0.3202
52712W        W95765  11.156   7.006  25.652  0.0980  0.1741 -0.0556
52713W        W95766  20.935  16.468  23.983 -0.0049 -0.0022  0.0115
52714W        W95767   6.336  32.750  22.622 -0.2761 -0.2122  0.0697
52715W        W95768  32.064  23.193  21.228  0.1541 -0.5074  0.0517
52716W        W95769  33.298   3.933  22.885  0.0612 -0.1408  0.0940
52717W        W95770   6.133  31.994  25.637 -0.3879  0.1621 -0.0461
52718W        W95771   2.172   3.516  14.390 -0.1176 -0.1441 -0.0583
52719W        W95772  34.567  26.101   7.644  0.1091 -0.4094 -0.1875
52720W        W95773   1.303  21.831  22.681  0.0999 -0.0411 -0.0774
52721W        W95774  29.105  10.239  22.527 -0.0356  0.1910 -0.0294
52722W        W95775  34.202  21.170  20.888 -0.0579  0.1233 -0.2645
52723W        W95776   5.890   3.991  19.326 -0.0068  0.1250 -0.2628
52724W        W95777  20.276  34.422  20.760  0.2005  0.0798  0.2408
52725W        W95778  11.641   2.823  25.312 -0.1700  0.2934 -0.0376
52726W        W95779  19.143  30.899  15.851  0.0913  0.2830  0.1153
52727W        W95780  31.195  32.387   4.756  0.1813  0.2580 -0.1432
52728W        W95781   7.435  32.348  19.344  0.0527 -0.1541  0.0601
52729W        W95782  28.549  29.110  23.500 -0.0630  0.0309 -0.0432
52730W        W95783  18.362  21.678  24.409 -0.0180  0.3576  0.2455
52731W        W95784  30.890   2.529  19.873 -0.4621 -0.2205 -0.2090
52732W        W95785   1.947  31.613  15.371 -0.1257  0.0887  0.2160
52733W        W95786  16.379  23.560  15.563  0.2682 -0.1764 -0.1263
52734W        W95787  24.523  32.168  24.448  0.1220 -0.1583 -0.0430
52735W        W95788  22.661  21.469  24.788 -0.1031 -0.1198 -0.0293
52736W        W95789  29.407   6.613  15.341  0.0801  0.1355 -0.0879
52737W        W95790  26.023  21.172   0.898 -0.0168 -0.2346  0.1407
52738W        W95791  24.202  20.503  16.409  0.0987  0.0698 -0.1809
52739W        W95792   2.065  14.860  14.656 -0.3930  0.0869  0.0323
52740W        W95793  30.477  28.616  17.750 -0.0346 -0.2006 -0.2182
52741W        W95794   7.274  30.247  17.373 -0.1742 -0.3916 -0.0737
52742W        W95795  33.533  25.095  21.744 -0.3670 -0.3948 -0.2326
52743W        W95796   3.379  17.000  14.320 -0.2625  0.2398  0.2306
52744W        W95797  30.737  21.497  14.283 -0.2719 -0.0206 -0.0566
52745W        W95798  15.568  21.364  16.959  0.2486 -0.0266  0.1390
52746W        W95799   2.799  24.421  18.435  0.0692  0.2308  0.0595
52747W        W95800  31.629  17.830  14.320  0.2700 -0.3283  0.2030
52748W        W95801   7.229  28.607  14.927 -0.1178 -0.0713 -0.0631
52749W        W95802  25.653  15.470  14.799 -0.1000 -0.4956 -0.0265
52750W        W95803  11.171  29.347  17.447  0.0632 -0.0212 -0.3919
52751W        W95804  19.274  16.489   4.995 -0.1455  0.0065 -0.0962
52752W        W95805  10.409  34.461  20.381 -0.0703 -0.2955 -0.1778
52753W        W95806   2.463  22.714  24.016  0.3808  0.1075  0.1387
52754W        W95807  22.814   0.930  22.095  0.0953  0.2482  0.0240
52755W        W95808   7.263  27.466  24.973  0.1279 -0.1383 -0.1304
52756W        W95809   4.511  23.902  18.216  0.2124 -0.1944  0.2595
52757W        W95810   1.606  14.360  28.066  0.1141  0.1404 -0.1701
52758W        W95811   6.090  18.187  23.336  0.1216  0.1541 -0.0065
52759W        W95812  31.864  18.149  23.583 -0.2504 -0.1300  0.1137
52760W        W95813  15.617  31.337  25.629 -0.0375  0.0011  0.1692
52761W        W95814  19.995  18.295  13.536 -0.1308 -0.6040  0.0187
52762W        W95815  13.226  31.564  26.223  0.0119 -0.0128 -0.0984
52763W        W95816  33.396  12.480  13.894 -0.2583  0.2076 -0.1053
52764W        W95817  29.036  30.677  24.769 -0.1868  0.0619 -0.3477
52765W        W95818  27.592  14.906  25.607 -0.0737 -0.0562 -0.0992
52766W        W95819   7.078  32.039  23.343  0.0390  0.1848  0.2906
52767W        W95820  34.109  33.551  19.090  0.0232 -0.2475  0.0597
52768W        W95821   4.421  20.754  17.973 -0.0048  0.1228  0.3601
52769W        W95822  33.812  25.219  20.989  0.1034 -0.1185  0.0915
52770W        W95823  16.906  26.667  17.265  0.0778  0.0636  0.1757
52771W        W95824  27.560  29.266  22.025  0.2251 -0.0524 -0.2513
52772W        W95825  33.155  24.228  18.354 -0.0161 -0.0407 -0.0789
52773W        W95826  21.833  16.946  28.724  0.1056 -0.1400  0.0128
52774W        W95827  23.248  27.733  16.124  0.0591 -0.2841 -0.1840
52775W        W95828   3.135  17.442   8.675 -0.0687  0.1477 -0.2868
52776W        W95829   5.385  28.338  22.382 -0.0870  0.0054  0.1229
52777W        W95830  23.355  26.546  14.275  0.0445 -0.0840  0.2483
52778W        W95831  11.805  11.226  28.813  0.2796 -0.0097 -0.1270
52779W        W95832  28.070  10.740   2.673 -0.0033  0.2245  0.1532
52780W        W95833  30.332  32.800   5.496  0.0750 -0.1788 -0.0625
52781W        W95834   0.096  25.303  21.611 -0.0228  0.1836  0.2957
52782W        W95835   0.564   2.446   9.038  0.1998  0.1919  0.0485
52783W        W95836   5.333   9.994  17.117  0.0148  0.0845 -0.2169
52784W        W95837   2.640  14.410  27.580 -0.2940  0.0995  0.0228
52785W        W95838  27.524   9.871  17.023 -0.4407 -0.3110 -0.0291
52786W        W95839  32.134   0.185  13.883  0.2033 -0.2137 -0.2460
52787W        W95840  28.999  27.280   4.452 -0.1996  0.0107 -0.0131
52788W        W95841  24.514   0.840  16.564  0.0921 -0.1342  0.0284
52789W        W95842  34.334  15.776  16.206  0.0604 -0.0249 -0.1701
52790W        W95843   9.703  28.599  24.182  0.1918 -0.1194  0.0605
52791W        W95844   2.784  23.741  15.854  0.1169  0.2979 -0.2790
52792W        W95845  28.973   3.080   1.278 -0.0262  0.3265 -0.3249
52793W        W95846  10.546   0.124   7.686 -0.1076 -0.2073 -0.0672
52794W        W95847  16.520   7.956  21.863  0.1507  0.5341 -0.1167
52795W        W95848   8.460  30.897  25.239  0.0311  0.0676  0.2994
52796W        W95849   2.981  22.049  22.737  0.1217 -0.0713  0.1994
52797W        W95850  21.501   7.808   5.410  0.2416 -0.0899  0.1150
52798W        W95851   5.978   1.369  15.517  0.1205 -0.0346 -0.2718
52799W        W95852  13.951  18.075  24.023 -0.2237 -0.0493 -0.0895
52800W        W95853  23.878  15.291  12.975 -0.3065  0.0837 -0.3824
52801W        W95854   4.256  30.309  21.677  0.0499 -0.0890  0.0307
52802W        W95855   8.793  28.095  14.479  0.0579 -0.1866  0.1373
52803W        W95856   8.093   4.656  26.215  0.1118  0.0913  0.3879
52804W        W95857   4.359  21.331   1.699  0.0177 -0.1706 -0.1080
52805W        W95858  30.311   8.305  17.892 -0.0863  0.1494 -0.1538
52806W        W95859   5.587   9.200   1.841 -0.1957 -0.0915  0.0578
52807W        W95860  22.563  33.634  25.582 -0.2145 -0.1610 -0.0975
52808W        W95861  21.643  19.253  16.856  0.0114 -0.2750  0.0448
52809W        W95862  31.030   8.702  29.060  0.2966  0.0870 -0.2036
52810W        W95863  34.445  21.190  15.407  0.0325 -0.0662 -0.1805
52811W        W95864  14.863  22.533   1.227  0.2623 -0.2762  0.1058
52812W        W95865  25.870  15.066  16.960 -0.0515  0.1006 -0.0581
52813W        W95866  25.567  32.101  22.418  0.3527  0.3248 -0.2710
52814W        W95867  24.445  32.014   1.302  0.0535 -0.4918 -0.1767
52815W        W95868  30.937   0.249  22.686  0.3156  0.1812 -0.0862
52816W        W95869  22.729   0.504  14.498  0.0138 -0.2645  0.0433
52817W        W95870  20.635   4.933  15.666 -0.2547  0.1806 -0.0702
52818W        W95871  29.632  16.103   4.627  0.3213 -0.1428 -0.1956
52819W        W95872  11.479   5.776   2.975  0.1007  0.1753 -0.0468
52820W        W95873   8.582   5.549   7.864 -0.3392 -0.0676  0.0759
52821W        W95874   7.585  24.694  18.282 -0.0175 -0.0577 -0.2058
52822W        W95875   2.386   7.538  23.518 -0.2426  0.0894 -0.0228
52823W        W95876  29.763  14.937  23.066 -0.0585  0.1039 -0.3113
52824W        W95877  18.540  13.087  23.745 -0.1328 -0.1007  0.0138
52825W        W95878  11.183  21.388  14.817 -0.0504  0.1841 -0.1611
52826W        W95879  27.476  24.845  14.614  0.1251 -0.1870 -0.1943
52827W        W95880  20.166  31.298  25.505  0.3386  0.4902 -0.0510
52828W        W95881   3.982  22.356  14.150  0.2446  0.1590 -0.2213
52829W        W95882  31.073  14.606  26.321 -0.2083 -0.0305 -0.2852
52830W        W95883   2.169  31.460  20.905 -0.2942 -0.0721 -0.0408
52831W        W95884  32.636   9.495  15.602 -0.1674 -0.0490  0.0787
52832W        W95885  34.530   2.109  23.889  0.0543  0.1036 -0.0059
52833W        W95886  21.260  10.712  28.323 -0.3342 -0.0089  0.3144
52834W        W95887  32.659  15.450  17.924 -0.2193  0.1818  0.0482
52835W        W95888  33.688  26.926  16.736  0.1617 -0.3854  0.3256
52836W        W95889  29.251   1.889   6.122 -0.2093  0.1340 -0.1685
52837W        W95890   1.879  33.435  26.132  0.2700 -0.0169  0.0589
52838W        W95891   7.092  25.975  16.078 -0.0903  0.0209 -0.2904
52839W        W95892  22.476   4.599  23.861  0.1356  0.2425  0.2752
52840W        W95893  15.284  28.342  23.639 -0.0750  0.3325  0.2183
52841W        W95894  29.910   6.938  19.194  0.2375  0.1609 -0.1422
52842W        W95895  33.757  27.723   3.452  0.0608  0.0821 -0.2954
52843W        W95896  33.989   5.397  17.787 -0.1441  0.2299  0.1706
52844W        W95897   2.532  21.322  28.721 -0.1586  0.2248  0.4424
52845W        W95898  33.339   0.610  16.369 -0.3061  0.3232 -0.1726
52846W        W95899  22.038  13.971   3.462  0.2259 -0.0769  0.1193
52847W        W95900   5.121  25.586  27.201 -0.3482  0.2058  0.0862
52848W        W95901  11.326  29.934  15.254 -0.0454  0.3046  0.1041
52849W        W95902   2.033  23.944   7.095 -0.0737 -0.0295 -0.0324
52850W        W95903  32.692  25.728  25.569  0.1633  0.3521 -0.0973
52851W        W95904   5.585  29.394  15.233 -0.2372 -0.1938 -0.1753
52852W        W95905   8.457  27.542  20.962  0.1469  0.1485 -0.1494
52853W        W95906   8.308  30.139  22.041 -0.0301 -0.2339  0.2318
52854W        W95907  11.640  22.634  17.751  0.1966 -0.0374 -0.2542
52855W        W95908   0.552  22.902  14.021 -0.2006 -0.0501 -0.0161
52856W        W95909   8.296  30.029  17.284  0.0706 -0.2001 -0.0786
52857W        W95910   4.144   6.337  28.960  0.0070 -0.1179 -0.1924
52858W        W95911   4.105  34.354  21.940 -0.2713  0.2845  0.2120
52859W        W95912  12.370  27.307  15.506 -0.1719  0.3622  0.3770
52860W        W95913   7.559  21.129  16.113 -0.0279 -0.0210 -0.0967
52861W        W95914   2.085  31.137  17.680  0.0717  0.1715 -0.1499
52862W        W95915  34.288  25.894  14.716 -0.0243  0.1997 -0.1191
52863W        W95916   6.714  14.688  22.855 -0.2201 -0.2159  0.0157
52864W        W95917  27.839  25.878  15.984 -0.0043  0.2083 -0.0841
52865W        W95918  25.883  27.634  27.933 -0.1683  0.2895 -0.3651
52866W        W95919   2.948   9.047   2.329  0.1320 -0.0217  0.1388
52867W        W95920   8.118  25.974  24.399  0.2623  0.2523 -0.1856
52868W        W95921  15.765   4.074  17.045  0.5271  0.1262 -0.1195
52869W        W95922  27.896  23.301   6.712  0.0216 -0.1574  0.2625
52870W        W95923  31.988  20.631  15.464  0.0952 -0.1028 -0.0064
52871W        W95924   9.723  21.640  15.181  0.3252 -0.2766  0.1390
52872W        W95925   8.116   4.953   7.201 -0.4158  0.0409  0.2291
52873W        W95926  22.561  24.335  24.741 -0.1511  0.0528 -0.4305
52874W        W95927   9.047  22.851  21.505  0.1151  0.0335  0.2719
52875W        W95928  11.013  26.524  23.196 -0.1229 -0.0197 -0.2399
52876W        W95929   7.167  27.359  27.872  0.0278  0.1140 -0.0073
52877W        W95930  21.771  33.993  18.315 -0.2914 -0.1679  0.0088
52878W        W95931   7.974  15.095   3.936  0.0410 -0.0828  0.1225
52879W        W95932  33.748   7.027  19.618  0.1841 -0.1491 -0.0745
52880W        W95933   9.741  25.692  16.336 -0.0146 -0.2856  0.3104
52881W        W95934  24.705  21.840  25.824 -0.1738 -0.2019 -0.2211
52882W        W95935  29.477  16.314   5.108  0.0506  0.1969 -0.3040
52883W        W95936  33.607  20.665  19.294 -0.1173 -0.5656 -0.1683
52884W        W95937  34.222   1.038  20.411 -0.3644  0.1787  0.0163
52885W        W95938   3.245  30.965  24.485 -0.0996  0.2664  0.0831
52886W        W95939  23.736  31.942   6.490 -0.0756  0.0268 -0.2026
52887W        W95940  28.966  19.851   6.188 -0.1329 -0.0262  0.0756
52888W        W95941   9.224  29.112  21.287  0.1436  0.0429 -0.2241
52889W        W95942  32.503   3.356  17.660 -0.1642  0.1482 -0.0026
52890W        W95943   6.892   3.872   5.244 -0.1625 -0.1382  0.1735
52891W        W95944  31.614  25.015  19.705 -0.1054  0.0827 -0.1895
52892W        W95945   5.855  15.755  17.132 -0.2682  0.0527  0.1907
52893W        W95946  34.574  17.453  22.943  0.0367 -0.1290  0.0271
52894W        W95947  25.821  33.886  14.243 -0.0712  0.0174  0.2424
52895W        W95948   5.614  23.676   1.390  0.0415  0.1771 -0.0551
52896W        W95949  26.083  20.367  21.305  0.0028 -0.0755  0.0675
52897W        W95950   3.180   5.032  24.525  0.0291  0.2519  0.0650
52898W        W95951  18.806  33.671  18.441  0.0454 -0.1964 -0.0800
52899W        W95952   2.051  31.462  27.969 -0.0649 -0.0642  0.1407
52900W        W95953   6.970  29.283  13.395  0.3757  0.2716 -0.0144
52901W        W95954   0.308  25.100   0.467 -0.0609 -0.2540 -0.0758
52902W        W95955   3.356  29.189   9.683  0.0866  0.2344  0.2555
52903W        W95956  32.841   8.373  14.843 -0.2121 -0.4363  0.1097
52904W        W95957  29.675  34.022  13.710 -0.6005  0.2878 -0.1794
52905W        W95958  34.437  12.680   5.844  0.0797  0.1207  0.1827
52906W        W95959  26.862  11.019  24.611 -0.1086  0.0087  0.0326
52907W        W95960  15.047  16.712  27.026  0.0021 -0.0403 -0.1537
52908W        W95961  14.798  24.686  17.310 -0.0599 -0.2214  0.0429
52909W        W95962   6.121  29.185  16.272 -0.0559  0.1287  0.1957
52910W        W95963  12.158  33.545  16.761  0.1162 -0.0160  0.2719
52911W        W95964   9.495  24.539  19.683  0.3529 -0.0462  0.1677
52912W        W95965   2.784  29.301  24.852 -0.1218  0.0112  0.0390
52913W        W95966  24.028  27.474   2.056  0.4979 -0.2610 -0.3421
52914W        W95967  30.689   2.375  24.802 -0.1443 -0.0954 -0.1033
52915W        W95968  11.141   5.566   2.037  0.2129  0.2207 -0.0473
52916W        W95969   4.030  29.874  19.420  0.0178 -0.3631  0.0603
52917W        W95970   4.264  27.690  26.611  0.0732  0.2174  0.0776
52918W        W95971  16.704   3.957  15.948  0.2934 -0.1018  0.1668
52919W        W95972   6.333  32.704  16.270  0.3315 -0.0613 -0.0061
52920W        W95973   5.653  11.179  20.557 -0.2413 -0.3306 -0.2871
52921W        W95974   9.967  23.754  17.937  0.0716  0.0614 -0.1074
52922W        W95975  11.435   3.740  28.146  0.1216 -0.3293 -0.4136
52923W        W95976  32.263  22.438  17.562  0.0859  0.2030  0.0950
52924W        W95977  20.070  25.812  14.915  0.2596 -0.0167  0.0513
52925W        W95978  13.700   4.018   3.108  0.0718 -0.2882 -0.0668
52926W        W95979   4.266  24.110  20.595  0.0697 -0.1725  0.3261
52927W        W95980  34.132   4.879   0.176 -0.1237 -0.1080  0.2749
52928W        W95981   1.954  23.194   2.299 -0.2478  0.1283  0.0510
52929W        W95982   3.879  30.753  15.357 -0.1023  0.3416 -0.2759
52930W        W95983   0.876   8.097  20.334 -0.2503 -0.4235 -0.1937
52931W        W95984  29.939  22.975  23.523  0.1896 -0.2038 -0.1107
52932W        W95985  30.949  34.567  16.573 -0.1976  0.1798  0.1187
52933W        W95986  12.061  31.264  28.695 -0.1636 -0.4135  0.0513
52934W        W95987  23.262  23.008  15.842  0.1142  0.1438  0.1973
52935W        W95988  19.264  32.300  21.598  0.0716  0.0207  0.2027
52936W        W95989   4.829   4.032  20.802  0.1654 -0.1704  0.0980
52937W        W95990  12.516  21.950  23.207 -0.1493  0.1760 -0.1581
52938W        W95991  18.882  31.209  22.343 -0.1150 -0.1610  0.1870
52939W        W95992  29.071  28.488  20.509 -0.1823  0.2178  0.0798
52940W        W95993   0.746   0.452  23.472 -0.3627 -0.1175 -0.1871
52941W        W95994  10.816  29.429   0.636 -0.2819  0.1867 -0.2225
52942W        W95995   0.143   8.778  16.331  0.0199 -0.1288 -0.0805
52943W        W95996   1.176  31.370  17.591 -0.0914 -0.0724  0.0793
52944W        W95997  29.402  23.165  20.882 -0.0776  0.2655  0.0760
52945W        W95998   6.424  22.607  23.107 -0.0100  0.2176  0.0224
52946W        W95999   2.089  32.733  15.598  0.1196 -0.1550  0.0772
52947W        W96000   0.239  18.733   0.982  0.0078 -0.1276  0.2975
52948W        W96001  24.878  34.495  28.891  0.0091  0.0090 -0.3216
52949W        W96002   3.653  20.690  19.933  0.0227  0.3577  0.0856
52950W        W96003  23.683   3.899  23.845 -0.0076 -0.0270 -0.0194
52951W        W96004  34.458  34.514  18.195 -0.1244  0.0146 -0.0303
52952W        W96005   2.713  30.834  27.916  0.0892 -0.0043  0.1931
52953W        W96006  13.845  32.984   1.743 -0.1583  0.2764  0.1748
52954W        W96007  26.015  34.125  15.122  0.4866  0.1843 -0.2647
52955W        W96008   0.547   2.958  27.492 -0.4885  0.1027 -0.3097
52956W        W96009  26.587  31.632  19.749  0.1588 -0.2113  0.0473
52957W        W96010  29.545  28.621  17.917  0.0051  0.0269  0.0207
52958W        W96011  24.384  21.085  19.532  0.1370  0.2492 -0.2914
52959W        W96012  12.277   1.798  21.807  0.0415  0.1570  0.2465
52960W        W96013  32.275  24.898  21.865  0.1015  0.0938 -0.1079
52961W        W96014   0.704  17.354  19.911 -0.1813  0.2003  0.1871
52962W        W96015  33.216   1.073  18.795 -0.1253  0.2792 -0.3611
52963W        W96016  10.192   6.232   8.074 -0.0319  0.2052  0.1770
52964W        W96017  34.216  12.315  21.252 -0.1768 -0.0324 -0.0999
52965W        W96018  33.303   2.186  17.979 -0.0919  0.0683 -0.3191
52966W        W96019   5.849  34.473  15.854  0.1886  0.3611 -0.0497
52967W        W96020   0.113  25.122  21.045  0.0252 -0.1903 -0.0519
52968W        W96021  22.892   8.896  19.173 -0.0031  0.0049  0.0191
52969W        W96022  32.924  13.916  20.340  0.2133  0.0692  0.1873
52970W        W96023   0.795   1.280  16.523 -0.0425 -0.1953 -0.0247
52971W        W96024   6.581  29.122   4.320  0.3513 -0.1992  0.2130
52972W        W96025   7.599  23.713  16.409 -0.1297 -0.2064 -0.0863
52973W        W96026   5.007   0.895  22.989 -0.3544 -0.0627 -0.1786
52974W        W96027  25.572   2.900  13.667 -0.1342 -0.0741 -0.3365
52975W        W96028   3.918  27.897  20.281  0.0780  0.2310  0.1019
52976W        W96029  27.603  27.543  25.463  0.1394 -0.1512 -0.1337
52977W        W96030  28.283  23.444   0.962  0.1134  0.2361 -0.0557
52978W        W96031  33.643  10.909  16.966  0.1854 -0.0444  0.1459
52979W        W96032  27.803   3.698  17.758 -0.1590 -0.0519 -0.2284
52980W        W96033  33.099  24.532  19.084 -0.0770 -0.2924  0.2212
52981W        W96034  34.517  28.817  19.380  0.3113 -0.0048 -0.0462
52982W        W96035  29.051  26.751  27.347  0.0452 -0.0375  0.0215
52983W        W96036  31.734  23.326  22.773  0.0267  0.2970  0.3058
52984W        W96037  26.169   2.284  23.812 -0.0552 -0.0050 -0.1614
52985W        W96038  33.972  27.257  24.185  0.0288 -0.2535  0.0607
52986W        W96039  28.860   4.060  14.759 -0.0358 -0.3743  0.1393
52987W        W96040  26.508  16.584  21.329  0.0240  0.2620 -0.0523
52988W        W96041   6.285   0.835  15.570  0.1500  0.0500 -0.5989
52989W        W96042  21.481  19.737  25.555  0.0304  0.1526  0.1100
52990W        W96043   3.261  31.709  21.576 -0.1565 -0.1091  0.0212
52991W        W96044  12.850  24.677  15.153  0.0449 -0.1048  0.0557
52992W        W96045   5.727  26.691  17.575 -0.3473  0.1616  0.3074
52993W        W96046  30.649  31.212  14.561 -0.2795 -0.0149  0.1649
52994W        W96047   0.953  16.566   6.716 -0.1278  0.2206 -0.0267
52995W        W96048  28.297  27.675  14.331  0.1177 -0.0014  0.4824
52996W        W96049  27.164  18.240   0.258  0.0900 -0.3643 -0.3576
52997W        W96050  30.124  26.383  22.068 -0.1418  0.1087  0.0576
52998W        W96051  11.559  21.802   3.596  0.1016  0.0982 -0.2931
52999W        W96052  10.411   3.530  23.912  0.1160 -0.1848 -0.0297
53000W        W96053  10.835   2.125  19.225 -0.2576 -0.2525 -0.0927
53001W        W96054  34.158   7.974  20.284  0.0318 -0.2025  0.0218
53002W        W96055  10.403  34.326  22.489  0.0809 -0.0319  0.1196
53003W        W96056   7.004   4.818  15.648  0.0030  0.0662  0.1464
53004W        W96057  31.926  31.823   9.689 -0.0567  0.0854 -0.3379
53005W        W96058   2.228  28.048  27.428 -0.2389 -0.4660  0.0014
53006W        W96059   2.015  30.618  20.840 -0.1339 -0.2526  0.0859
53007W        W96060  22.392  31.674   8.060  0.3231 -0.1185  0.0959
53008W        W96061   6.833   1.564  23.559 -0.1567 -0.1416 -0.0136
53009W        W96062  22.735  32.466  23.721 -0.0463  0.2118 -0.1755
53010W        W96063   7.584  29.752  26.854  0.2182 -0.0504 -0.1063
53011W        W96064  28.905  26.804  25.222  0.0293  0.2373  0.0847
53012W        W96065   9.745  22.685  20.828  0.1753  0.2569 -0.0957
53013W        W96066  17.897  28.492  18.972 -0.0833  0.0179 -0.0768
53014W        W96067   9.925  17.257   5.675 -0.1707 -0.1356 -0.1073
53015W        W96068  15.040  31.158  25.639 -0.0313 -0.3840  0.0871
53016W        W96069  30.724  31.389  16.705 -0.2493 -0.3420  0.4267
53017W        W96070   5.408  30.061   2.806 -0.3216 -0.0065  0.0870
53018W        W96071  27.739  28.519  18.211  0.0425 -0.1770 -0.1827
53019W        W96072   1.537  27.733  24.698 -0.2069 -0.0532  0.0770
53020W        W96073   9.498  21.653  24.103 -0.6071 -0.1831 -0.0698
53021W        W96074  29.118  26.750  29.138  0.0267 -0.0691  0.0336
53022W        W96075  22.380   1.908  22.354  0.0102  0.1091  0.0176
53023W        W96076  27.184   4.268  14.896 -0.1390 -0.3258  0.1372
53024W        W96077   9.985  24.714  21.384  0.3034 -0.1632  0.2319
53025W        W96078   1.197  33.669  28.300  0.0238 -0.2402 -0.0323
53026W        W96079   0.508  24.005  16.281  0.1434 -0.1782 -0.3608
53027W        W96080  25.851  20.621   6.104  0.1527 -0.1220 -0.1982
53028W        W96081  10.962   9.393  18.055  0.1242  0.2551 -0.4889
53029W        W96082  24.068  11.593  27.950  0.2354  0.1664  0.0808
53030W        W96083  10.505  26.287  21.360 -0.0683 -0.1830 -0.2741
53031W        W96084  31.997  24.145  21.010  0.1480 -0.2673 -0.3264
53032W        W96085   4.526  32.969  23.596  0.0896  0.0351 -0.1688
53033W        W96086  10.500  30.772  15.999  0.1382 -0.2368  0.1351
53034W        W96087  16.341  29.632   8.815  0.0311  0.2144  0.1718
53035W        W96088  15.498  30.010   0.305  0.1386  0.0355  0.1359
53036W        W96089   4.536   4.618  25.902 -0.1428  0.3809  0.1607
53037W        W96090  20.943  20.406   0.973  0.2032  0.1756  0.2744
53038W        W96091  31.382  31.768  16.244 -0.2990 -0.1481 -0.0203
53039W        W96092  25.432  20.314  27.924 -0.0684 -0.1395 -0.1492
53040W        W96093  10.559  18.932  15.224  0.0720  0.1089  0.1602
53041W        W96094  29.982   1.933  16.230 -0.0908  0.0556 -0.1556
53042W        W96095  28.499   7.484  16.872  0.1197  0.1284  0.2065
53043W        W96096  20.068   8.130  20.343  0.2045  0.0235 -0.1602
53044W        W96097   1.046  25.330  24.223  0.1197  0.0152 -0.2592
53045W        W96098  28.607  26.440   9.635  0.0686 -0.1188 -0.1242
53046W        W96099   7.461  25.151  22.137  0.0793 -0.1580  0.1003
53047W        W96100  23.332  24.136   1.411  0.0586 -0.2357  0.2547
53048W        W96101   0.522  20.843  23.055  0.0726  0.2667  0.0069
53049W        W96102  30.423  30.610   3.135  0.4575 -0.1907  0.0649
53050W        W96103   0.532   0.293  15.660  0.3004 -0.0484  0.2352
53051W        W96104   8.903   6.705  22.061 -0.0640  0.1406  0.1231
53052W        W96105   4.727  28.195  18.187  0.0009 -0.2026  0.0124
53053W        W96106   2.743   3.243  19.058  0.2166  0.0321 -0.4229
53054W        W96107   3.770   6.881  18.074  0.0910  0.0037 -0.4665
53055W        W96108   6.802  23.605  20.908  0.1761  0.4300  0.1756
53056W        W96109   0.650   9.881  26.965  0.1605 -0.0719 -0.1231
53057W        W96110   5.333  14.510  13.590 -0.0484 -0.1037  0.1419
53058W        W96111  34.145  12.254  23.103  0.0565 -0.0984  0.4173
53059W        W96112   0.861  30.739  21.602  0.2954  0.0543  0.1896
53060W        W96113   4.348  31.776  13.977  0.2070 -0.0750  0.1339
53061W        W96114  14.384  34.629   4.607 -0.1043 -0.2502  0.3779
53062W        W96115   6.225  12.612   3.783 -0.0025 -0.1697  0.2514
53063W        W96116  23.551  23.083   2.127 -0.0013 -0.0897 -0.2380
53064W        W96117  13.358  30.118  18.571  0.0724 -0.4326 -0.1013
53065W        W96118  31.030  11.224  18.813  0.3180 -0.0631 -0.1151
53066W        W96119   1.938  32.463  28.987 -0.1131 -0.1255  0.4245
53067W        W96120  19.207  31.789  20.846 -0.1570  0.2805 -0.3833
53068W        W96121  13.883   4.849  25.285  0.0432 -0.0817 -0.0927
53069W        W96122  23.148  29.365  17.031  0.0643 -0.3950  0.1434
53070W        W96123   0.894  30.186  26.893  0.0223  0.0030  0.3323
53071W        W96124  17.249  28.302  14.464 -0.0327  0.2428 -0.1502
53072W        W96125  16.116  26.370   0.446 -0.1116 -0.0067  0.1282
53073W        W96126  32.138  19.961  22.856  0.1931 -0.3868  0.1698
53074W        W96127  25.939   5.237   1.493  0.0057  0.0678  0.0891
53075W        W96128  11.603   7.817   6.408  0.0445  0.0364 -0.0470
53076W        W96129  27.856  21.306  17.619 -0.3762  0.0567 -0.2173
53077W        W96130  12.865  28.575  19.691 -0.0277  0.4266 -0.5309
53078W        W96131  31.633  32.917  27.896 -0.0352  0.3795 -0.0110
53079W        W96132  10.262   0.566   9.818 -0.0192  0.0444 -0.0146
53080W        W96133  24.725  12.137  28.240 -0.0804 -0.0791  0.0749
53081W        W96134  14.253  13.197  19.586  0.5157  0.0317 -0.1995
53082W        W96135  24.318  32.378  27.224 -0.3047  0.0011 -0.2529
53083W        W96136   8.012   2.987  25.367  0.3502 -0.2779 -0.0313
53084W        W96137  34.100  12.604   9.177 -0.2400 -0.1214 -0.2730
53085W        W96138   3.076  10.856  23.008 -0.1705 -0.2017 -0.1714
53086W        W96139   1.804  14.048  19.812  0.1056  0.0219 -0.2115
53087W        W96140  22.560  25.632  27.678 -0.0422 -0.0353  0.3610
53088W        W96141   3.462  10.495  25.317  0.1038  0.0792 -0.2963
53089W        W96142  31.151   1.390  24.845  0.0374 -0.0623  0.3866
53090W        W96143   3.832  29.466  17.756 -0.0472 -0.0397  0.1913
53091W        W96144  32.000  34.374  22.795 -0.1162 -0.1334 -0.1174
53092W        W96145  27.885  25.943  25.439  0.1562  0.0900  0.3458
53093W        W96146  30.389  27.672  15.593  0.0244  0.4258 -0.1660
53094W        W96147   2.089  18.939   6.095 -0.1361  0.1184  0.0879
53095W        W96148  31.389  18.334  23.463  0.1102  0.0017  0.0944
53096W        W96149  32.409  13.097  25.162 -0.1032 -0.3498 -0.0559
53097W        W96150   5.211  26.106  18.711  0.1799 -0.0578  0.0236
53098W        W96151   1.696  15.504   9.395 -0.1069  0.2427  0.0705
53099W        W96152  21.420  26.678  24.295 -0.0081  0.1151 -0.1119
53100W        W96153  32.889  21.100  22.640  0.0965 -0.0280  0.0433
53101W        W96154  33.491  28.057  24.366 -0.2087  0.1723  0.1343
53102W        W96155  25.335  28.834  15.811 -0.0084  0.0787 -0.4338
53103W        W96156  29.468  29.230  26.692 -0.1583  0.2211  0.1450
53104W        W96157  30.453  29.792   8.115  0.0527 -0.0444 -0.2299
53105W        W96158  14.301  19.738  25.557  0.0723 -0.1990  0.1430
53106W        W96159  22.265  27.939  23.963  0.1136  0.0932  0.0398
53107W        W96160   0.853  26.059  23.319 -0.1106 -0.2942  0.0594
53108W        W96161   4.259  27.950  18.386  0.0668  0.1806 -0.0877
53109W        W96162   6.672   6.476   2.792 -0.1199 -0.3571  0.1357
53110W        W96163  22.789  26.659  17.761 -0.2471  0.3864  0.1358
53111W        W96164   1.119  30.241  22.211  0.0575 -0.1150  0.0201
53112W        W96165   0.009  33.481  19.943  0.1588 -0.1158  0.3237
53113W        W96166  33.154  27.539  17.084 -0.2430  0.2673 -0.3566
53114W        W96167  26.922  28.596  20.374  0.0240  0.0324 -0.3060
53115W        W96168   6.314  20.311  15.429 -0.0899  0.1938  0.1531
53116W        W96169  30.866   0.664   2.761 -0.0785 -0.0882 -0.0752
53117W        W96170  26.180  25.768  27.065 -0.2416  0.0606  0.0481
53118W        W96171   4.136  33.628   0.925 -0.0509  0.1604 -0.2893
53119W        W96172   5.484  24.479   6.396  0.1877 -0.0353  0.0721
53120W        W96173   5.938  31.129  14.596  0.1535 -0.2050 -0.0948
53121W        W96174  28.992  34.248  15.056  0.1605  0.3018  0.2205
53122W        W96175  16.660  18.469   7.194 -0.1854  0.3415  0.1256
53123W        W96176  29.326  30.808   8.121 -0.1248 -0.1206  0.0566
53124W        W96177  28.127  24.365  22.213 -0.1292 -0.3525 -0.0745
53125W        W96178   9.117  28.829   8.431  0.1403  0.1952 -0.1014
53126W        W96179  31.559  14.571  22.783 -0.1171  0.3912  0.1997
53127W        W96180  31.663   5.368  16.085  0.1632  0.3764  0.1519
53128W        W96181   9.998  23.505   0.793 -0.1836 -0.1294  0.0698
53129W        W96182   2.067  29.827   8.799  0.2188 -0.1034 -0.0790
53130W        W96183   9.010   4.637  20.107  0.2907  0.0489  0.2156
53131W        W96184  12.046  18.852   1.714  0.0128 -0.3705  0.0780
53132W        W96185   3.049   9.468   4.095 -0.0374 -0.0482 -0.0124
53133W        W96186  10.549  11.401  28.665  0.0783  0.0632 -0.0947
53134W        W96187   4.754  32.813  16.737 -0.2071 -0.1081  0.0176
53135W        W96188   1.475  11.833  16.693 -0.0740  0.0179 -0.0014
53136W        W96189  19.354  20.385  16.028 -0.3371 -0.0557  0.0378
53137W        W96190  16.267   1.719   0.842  0.0810 -0.1295 -0.0245
53138W        W96191  26.924  31.430   6.079  0.1608  0.0482 -0.0912
53139W        W96192  30.486   0.421   1.317  0.2942 -0.1049  0.1744
53140W        W96193  20.296   5.953  20.786  0.1623  0.1073  0.3858
53141W        W96194  15.299   6.409  19.455  0.0487  0.3551  0.0783
53142W        W96195   6.028  17.904  24.369  0.2714  0.2187  0.0323
53143W        W96196  29.060  32.211  14.168  0.3386 -0.1045  0.0018
53144W        W96197  29.409   7.568  20.744  0.1925 -0.1313  0.1089
53145W        W96198  33.666  29.224   8.976 -0.0333  0.0172 -0.3586
53146W        W96199   5.377  15.461  14.612 -0.0382  0.1306  0.1823
53147W        W96200   5.592  26.200   7.553 -0.1867 -0.0001 -0.0027
53148W        W96201   3.127  16.439   3.935 -0.1801 -0.0978  0.2264
53149W        W96202  29.836  32.333  19.601 -0.2919  0.0039  0.0160
53150W        W96203  11.377   5.042   8.863  0.0061 -0.1779  0.2850
53151W        W96204  16.671  27.892  14.627 -0.1822 -0.3401 -0.0237
53152W        W96205   2.828   5.525   3.141  0.0862  0.0789  0.0060
53153W        W96206  31.230  33.457  17.855  0.0388  0.2710  0.0705
53154W        W96207  10.759  29.202  16.946 -0.1729  0.0584  0.1777
53155W        W96208  32.811  30.730  14.574  0.2393  0.0663  0.2534
53156W        W96209  25.964  11.990  26.643 -0.1643 -0.0421 -0.2315
53157W        W96210  27.103   1.354   1.412  0.2602 -0.2675 -0.1572
53158W        W96211  18.796   3.017  18.335 -0.3412 -0.1300  0.1059
53159W        W96212   3.374  16.403   0.718  0.1492  0.1689  0.1803
53160W        W96213  21.302  27.854   0.338 -0.0266  0.4012 -0.0692
53161W        W96214   3.904   6.421  24.774 -0.2652  0.0119 -0.1646
53162W        W96215  33.313  34.525  16.634  0.1961  0.1436 -0.0453
53163W        W96216   5.332  33.911   9.130  0.0683  0.1422  0.1232
53164W        W96217  18.708  22.463  17.262 -0.2172 -0.4951  0.0373
53165W        W96218  33.155  16.446  14.941  0.2645 -0.1256 -0.1250
53166W        W96219  17.852  24.159  21.182 -0.2763 -0.0788 -0.0016
53167W        W96220  33.922  34.132  26.855  0.2794  0.0503  0.0694
53168W        W96221  25.275  26.789   5.594  0.3609 -0.2436 -0.2338
53169W        W96222  16.551  31.456  21.551 -0.3079 -0.0009 -0.1029
53170W        W96223  27.782  29.429  22.510 -0.2763 -0.1104  0.1542
53171W        W96224  20.403   4.821  29.141 -0.0642  0.1284 -0.1780
53172W        W96225   7.156  32.253  16.455  0.4133 -0.0430 -0.0342
53173W        W96226  22.599  20.917  21.213  0.0542  0.2816  0.2922
53174W        W96227  20.149  27.881  19.616  0.1066  0.6162  0.1357
53175W        W96228  30.733  29.592  21.853  0.2472  0.0669 -0.1047
53176W        W96229  27.967  15.253  21.597 -0.1756 -0.1602  0.1623
53177W        W96230  31.039  23.651  22.997  0.2201 -0.2362  0.1182
53178W        W96231  27.018  13.402  27.638  0.1121 -0.4651 -0.2062
53179W        W96232  19.491   3.133  17.893  0.0547 -0.0400 -0.0486
53180W        W96233  29.059  18.926  15.693  0.1126 -0.4298 -0.0504
53181W        W96234  26.323  15.035  25.132 -0.0164 -0.0268 -0.2050
53182W        W96235  10.128  14.625  17.266  0.1257  0.1521 -0.2883
53183W        W96236   7.484   8.641   3.651  0.1721  0.1610 -0.0464
53184W        W96237   0.578  32.361   6.748  0.4876  0.1945  0.6432
53185W        W96238  15.831  30.857  14.952 -0.0439  0.1617  0.2722
53186W        W96239  34.049   7.073  20.490  0.1120 -0.0288  0.3441
53187W        W96240  28.474  27.220  18.790  0.2031  0.0477 -0.2817
53188W        W96241  33.655  14.192  28.012  0.0486 -0.1295 -0.0983
53189W        W96242   1.287  21.823   9.215  0.3424  0.0278  0.0631
53190W        W96243   6.663   5.157   7.362 -0.2414 -0.2812 -0.0385
53191W        W96244  18.647  27.597  25.605  0.0475  0.1124  0.4710
53192W        W96245   8.281  24.807  25.875 -0.2176 -0.2038 -0.2650
53193W        W96246  27.791   5.977  19.295 -0.1866 -0.3899  0.2638
53194W        W96247   7.765  24.600   8.614 -0.3217 -0.1885  0.2431
53195W        W96248  31.066  28.156   0.448 -0.2925  0.1565 -0.0752
53196W        W96249   0.115  27.953   1.814  0.0165  0.2359  0.2958
53197W        W96250  26.943  23.457  19.588 -0.3303  0.3622  0.1376
53198W        W96251   3.474  24.016   6.745  0.0018  0.0219  0.1507
53199W        W96252   6.938  22.081  22.382  0.1199  0.0496  0.0731
53200W        W96253  23.909  18.566  28.376  0.0084  0.2679  0.1828
53201W        W96254   1.229   0.307   6.387 -0.0954 -0.2061  0.0351
53202W        W96255  30.399  11.922  17.138 -0.1356 -0.0536 -0.0469
53203W        W96256  13.949  17.042  23.612  0.1364  0.1845  0.2317
53204W        W96257   7.452  25.301   1.109 -0.1108 -0.4374 -0.1276
53205W        W96258   3.558  15.258  23.252 -0.1121 -0.1870  0.0432
53206W        W96259  25.145  27.837  25.210 -0.1134 -0.0519 -0.1850
53207W        W96260   0.952  20.498  15.274  0.4035 -0.4356  0.1359
53208W        W96261  29.332   3.073  28.828  0.1795  0.2191  0.1649
53209W        W96262  34.243  25.440   8.871 -0.1181  0.1669  0.0423
53210W        W96263   6.043  12.711   4.225  0.0599 -0.4147  0.1156
53211W        W96264  29.921  25.690   0.599 -0.0801 -0.3505  0.3626
53212W        W96265  34.194  24.558   5.263  0.0310 -0.2070  0.0702
53213W        W96266   1.591   7.161  24.520 -0.1227 -0.3867 -0.0809
53214W        W96267  24.504   6.310   7.901 -0.1083  0.4505 -0.2148
53215W        W96268  22.602  22.890  25.668  0.0557 -0.1031 -0.0612
53216W        W96269  17.120  16.686   6.468  0.1801  0.0745  0.0595
53217W        W96270  33.249  24.225  23.296  0.1293 -0.2071 -0.1768
53218W        W96271   8.953  11.371  27.238 -0.0305 -0.3686 -0.0782
53219W        W96272  27.170  20.136  22.045 -0.1804 -0.0677  0.1510
53220W        W96273   7.058   1.025   8.678 -0.3281 -0.0744 -0.2947
53221W        W96274  34.020  12.830   7.995  0.1458 -0.1376  0.2278
53222W        W96275   7.926  27.829   1.543  0.1087  0.2193 -0.0627
53223W        W96276  20.917  28.085   8.873  0.0912  0.2400 -0.2062
53224W        W96277  29.362  28.199  19.228 -0.1629 -0.1750  0.0146
53225W        W96278  29.213  19.374  23.335 -0.1563  0.1791 -0.2136
53226W        W96279  26.466  27.139  23.582  0.0096 -0.2335 -0.2704
53227W        W96280  32.450   2.434  25.261 -0.0671 -0.2847  0.0255
53228W        W96281  31.649  28.015   4.248  0.0912  0.0379  0.2924
53229W        W96282  29.206  14.776  21.107 -0.1526  0.0514 -0.0602
53230W        W96283   3.195   2.303  19.438 -0.1520  0.0541  0.0934
53231W        W96284  32.764  22.546   3.516  0.1921 -0.1273 -0.1025
53232W        W96285  32.928  24.763   0.677 -0.0104 -0.2477 -0.0414
53233W        W96286   3.428  19.905  23.833 -0.0419 -0.0015 -0.0090
53234W        W96287   1.980  24.562   8.592 -0.0184  0.1294 -0.0496
53235W        W96288  15.648  15.157  27.660 -0.1080  0.1612 -0.0194
53236W        W96289  31.036  23.735   0.839  0.0734 -0.0111  0.1750
53237W        W96290  25.214   1.206  17.885  0.0252  0.0051  0.2568
53238W        W96291  21.151  14.018   4.761 -0.2428  0.0865  0.0479
53239W        W96292   3.045  16.954   8.754 -0.0017 -0.0756  0.1332
53240W        W96293  14.539  12.201  19.508 -0.0263  0.0359  0.0038
53241W        W96294   7.353  27.536  19.354  0.0123  0.1024 -0.0660
53242W        W96295  31.908  26.977   3.174  0.0246 -0.1280  0.1419
53243W        W96296  20.972  13.008   9.162 -0.0364  0.0220 -0.3026
53244W        W96297  27.491  24.859   3.881 -0.1917  0.0500  0.2386
53245W        W96298   0.593  13.812   0.886 -0.0848  0.2752  0.3821
53246W        W96299  22.962  22.410  25.538  0.1944 -0.2427  0.0066
53247W        W96300   2.177  22.236  19.145  0.2485 -0.1382  0.0091
53248W        W96301   9.687  30.065  23.649 -0.0098 -0.0269 -0.2838
53249W        W96302   0.828  20.378  16.347  0.4504  0.0641 -0.0359
53250W        W96303  21.522  30.332   6.536 -0.3021  0.1658 -0.2770
53251W        W96304  28.505  20.878   7.764 -0.2065 -0.2447  0.0087
53252W        W96305  20.829  25.961  28.767  0.1519  0.1307 -0.1418
53253W        W96306  21.846   1.291   8.155 -0.1315  0.1907  0.1264
53254W        W96307   2.878   5.747   6.397  0.1230  0.1822 -0.1204
53255W        W96308   2.585  30.986   5.639  0.0743  0.0914 -0.1966
53256W        W96309  30.115  29.360  27.277 -0.1643 -0.0228 -0.1877
53257W        W96310   1.865   1.036  14.614  0.0741  0.0586 -0.0229
53258W        W96311  31.118  32.998  15.150 -0.1820 -0.1618  0.2102
53259W        W96312  26.160  22.497  18.628 -0.2000  0.1320  0.3065
53260W        W96313  31.844  26.534   2.282  0.0949  0.1326  0.3798
53261W        W96314  18.879  34.540  27.866 -0.2837  0.0885 -0.0790
53262W        W96315   4.476  15.206  26.481  0.1910  0.3301  0.0302
53263W        W96316  24.955  17.878  28.959  0.3349  0.2748  0.0692
53264W        W96317  23.081   4.071   6.883 -0.0649 -0.0985  0.1075
53265W        W96318  31.035  24.027  23.365 -0.1394 -0.2417 -0.4501
53266W        W96319   6.168  30.711   1.088  0.0205  0.2242 -0.2820
53267W        W96320  31.467  30.984  21.455 -0.0626  0.3286  0.0393
53268W        W96321   0.741  26.135   1.903  0.0547  0.0244 -0.1323
53269W        W96322  10.534   8.436  27.900  0.1674 -0.1679  0.0058
53270W        W96323  14.288   6.377  10.110 -0.1449 -0.3326  0.2002
53271W        W96324   2.013  21.031  20.462  0.2285  0.1893 -0.2758
53272W        W96325   5.665  24.268   7.515  0.0744  0.0758  0.2396
53273W        W96326   4.323  11.618   1.534 -0.0265  0.1592 -0.0976
53274W        W96327   3.371  19.556   8.087 -0.0177  0.3514 -0.0048
53275W        W96328   0.389  19.397  13.267  0.4154  0.2625  0.2711
53276W        W96329   2.458  28.360   0.082 -0.2640  0.0827  0.2625
53277W        W96330   0.857  14.373  18.356  0.1053  0.1385  0.0225
53278W        W96331  15.745   3.464  17.665  0.1576 -0.1532  0.0809
53279W        W96332   1.275  25.048  27.764 -0.4503  0.3182 -0.0539
53280W        W96333  18.505   1.886  10.593 -0.0240 -0.0703 -0.1470
53281W        W96334  20.392  18.746   5.233 -0.0398  0.1259 -0.1278
53282W        W96335  33.874   3.583  19.941 -0.3096 -0.0627  0.1962
53283W        W96336  28.436  14.814  22.308 -0.1020  0.4021 -0.3651
53284W        W96337  14.913  29.676  19.023 -0.1980  0.4163  0.1942
53285W        W96338  13.046  31.495  19.495 -0.0667  0.3423 -0.4143
53286W        W96339   6.274  12.198  19.606 -0.0422  0.1023 -0.0732
53287W        W96340  19.433  19.929  23.249 -0.0293 -0.0629 -0.1644
53288W        W96341   3.504  11.946  25.588  0.0990 -0.0854 -0.0221
53289W        W96342   3.412   2.005  18.014 -0.0119  0.2260  0.1659
53290W        W96343   3.405   3.939  26.093  0.0608  0.0002 -0.1228
53291W        W96344  32.722  29.653  24.770 -0.1968  0.0802  0.2031
53292W        W96345   3.501   2.027   3.212 -0.0763  0.0499  0.0298
53293W        W96346   1.376   8.462   2.149  0.1993  0.1067  0.1114
53294W        W96347  31.868  30.667  19.625  0.2923  0.1877  0.0779
53295W        W96348   6.434  29.768  20.838  0.0104 -0.0958  0.0944
53296W        W96349  23.580  16.713  25.536  0.0936 -0.1577 -0.5294
53297W        W96350  10.236  32.337  14.343 -0.0481  0.1624 -0.3079
53298W        W96351  24.952  27.110  15.834 -0.1047  0.0190 -0.1248
53299W        W96352   6.333   1.439  26.919 -0.1971 -0.1837  0.0543
53300W        W96353  34.452  15.441  26.931 -0.1195  0.2077 -0.0874
53301W        W96354  32.282   4.823  21.760 -0.2250  0.3060  0.2320
53302W        W96355   3.662   1.289  18.727 -0.1057 -0.0874  0.1412
53303W        W96356   0.171  25.904  20.032  0.3588  0.0818 -0.0217
53304W        W96357   0.864  17.276  22.764  0.0985  0.0210  0.2918
53305W        W96358  27.933   0.580   8.282 -0.2724 -0.1519 -0.0728
53306W        W96359   9.128  32.778  28.502  0.2417  0.1867  0.0455
53307W        W96360  26.964  26.119  25.254 -0.4836  0.1511 -0.0908
53308W        W96361  23.722  33.760   6.910  0.0841 -0.0023 -0.1178
53309W        W96362   6.946  14.392   6.710  0.1225  0.3085  0.3335
53310W        W96363  27.548   2.960  13.180  0.0444 -0.5308  0.0109
53311W        W96364  20.899  18.322   9.657  0.2660 -0.0141  0.1566
53312W        W96365  26.205  12.323   0.434 -0.0377  0.0949 -0.0098
53313W        W96366  33.198  10.314  27.017  0.3198  0.2521 -0.1369
53314W        W96367  12.911  29.968  24.670 -0.0358  0.0533 -0.1766
53315W        W96368   5.247  24.575  23.473  0.0185 -0.0278  0.0421
53316W        W96369  28.095  31.160  28.253  0.0954 -0.1088  0.4634
53317W        W96370  13.762   2.093  28.330 -0.0971 -0.2570 -0.1383
53318W        W96371   4.011  15.965  23.020 -0.0975 -0.1470 -0.0276
53319W        W96372   9.352  30.184   7.577 -0.2474  0.2078 -0.0083
53320W        W96373   3.860  18.876   5.256  0.2032 -0.1860 -0.1756
53321W        W96374   7.211  25.677  27.184 -0.2094  0.1868 -0.0101
53322W        W96375   0.892   2.134   9.796 -0.1029  0.1477 -0.0055
53323W        W96376   8.685  33.652   4.224 -0.1267  0.1647  0.1349
53324W        W96377  28.971  24.317  17.849  0.0121 -0.3340 -0.1712
53325W        W96378  33.686  19.092  19.640 -0.2135 -0.1973 -0.0931
53326W        W96379   3.854  29.509   7.938 -0.1139 -0.0949  0.1238
53327W        W96380  22.062   0.211   2.388  0.2262  0.1253  0.1239
53328W        W96381  24.302  29.861  22.417  0.1300 -0.0350  0.0211
53329W        W96382   7.754   4.113  27.522  0.0798  0.1524  0.0237
53330W        W96383  17.259  23.059  25.989 -0.1034 -0.0791  0.1411
53331W        W96384  29.288  15.612   6.680 -0.1516  0.0702  0.1244
53332W        W96385  33.240  34.448  26.640 -0.1950  0.0551 -0.0120
53333W        W96386  25.447   2.427   1.161 -0.1160 -0.1489 -0.0443
53334W        W96387   4.925  33.356   3.075  0.0383  0.0425  0.0105
53335W        W96388  24.840  16.355  15.218 -0.2660 -0.3035 -0.1424
53336W        W96389  10.788  33.847  17.052 -0.2508  0.0668  0.2399
53337W        W96390   3.832  27.829   6.104 -0.3963 -0.1929 -0.0730
53338W        W96391   5.990   0.308   0.145 -0.2365 -0.0415  0.3372
53339W        W96392  25.111  25.158  25.678  0.0927  0.0147  0.2554
53340W        W96393   0.021  11.024   6.885 -0.0214  0.0250 -0.0861
53341W        W96394  22.424  27.685  18.986 -0.3038  0.3283  0.0455
53342W        W96395  28.873  32.022   4.426 -0.2753  0.3500  0.1007
53343W        W96396   9.670  14.895  28.300  0.1228 -0.0644 -0.1669
53344W        W96397  33.402  16.767  29.084  0.1351  0.1158  0.0017
53345W        W96398  19.739  28.900   0.557  0.1054 -0.0212 -0.2272
53346W        W96399  27.939  18.807  17.114  0.1273  0.3299 -0.1837
53347W        W96400  20.909  33.305  27.012  0.0331  0.1673  0.2724
53348W        W96401  15.070  17.582   1.353 -0.0848  0.1935 -0.2951
53349W        W96402  10.295   1.604  20.239 -0.1093 -0.1595  0.1639
53350W        W96403   1.881   3.273  28.337 -0.1157 -0.5608  0.0244
53351W        W96404   4.378   1.724  22.714  0.2382 -0.2140 -0.0883
53352W        W96405  22.930  27.441   1.845  0.0555  0.0599 -0.2295
53353W        W96406  13.913   1.234  24.007 -0.0560 -0.0126  0.2436
53354W        W96407  22.833  22.997  15.668  0.0895  0.1953 -0.0293
53355W        W96408   1.928  28.854   8.690 -0.0368 -0.0929  0.0054
53356W        W96409  26.586  25.930  14.409  0.0613 -0.1678  0.0243
53357W        W96410  30.640  12.058   1.856 -0.2942  0.0010 -0.0119
53358W        W96411  23.891  28.707   3.307 -0.0051 -0.2401  0.1483
53359W        W96412   0.866   4.109  23.757  0.2592 -0.2718 -0.0318
53360W        W96413  10.340  18.680   8.136 -0.0846  0.0364  0.6705
53361W        W96414  29.964   5.783  14.533 -0.2919  0.0757 -0.0369
53362W        W96415  34.371  16.340  20.954 -0.0050 -0.0120 -0.0429
53363W        W96416   2.810  22.120  24.873  0.1078  0.2069  0.0197
53364W        W96417   2.046  20.820  22.333  0.0546  0.1363 -0.0436
53365W        W96418  29.213  29.219  15.393 -0.2992 -0.0456 -0.0287
53366W        W96419  29.501   5.025  16.708  0.0025 -0.3545  0.0201
53367W        W96420   0.404  25.377  25.718 -0.0850 -0.3239 -0.0933
53368W        W96421  33.269  30.598  28.521 -0.0236  0.1740  0.1262
53369W        W96422   3.034  29.088  15.651 -0.2685  0.4011 -0.2342
53370W        W96423   1.222  20.634  21.978  0.0997 -0.0300 -0.0920
53371W        W96424  30.706   4.316  24.612  0.3790  0.0080  0.0479
53372W        W96425   3.087  32.766  20.843 -0.2150 -0.5924  0.5836
53373W        W96426  28.941  26.860   8.714  0.2099  0.3686 -0.0447
53374W        W96427  23.085  33.111   8.059  0.1226  0.1694 -0.1119
53375W        W96428   2.895  24.072  25.800  0.1990 -0.0685 -0.2353
53376W        W96429   1.224  28.293  25.300  0.0517 -0.3344 -0.0431
53377W        W96430  29.851  11.099  17.264  0.0005  0.2374  0.0024
53378W        W96431   7.399   7.128  14.652  0.1723  0.4811  0.2662
53379W        W96432   2.625  22.934  28.923 -0.2692 -0.0745 -0.1186
53380W        W96433   1.977  34.296   0.846  0.1089 -0.0343  0.1194
53381W        W96434  28.704  23.134  25.443  0.3171  0.3634 -0.0622
53382W        W96435   6.187  16.296  23.797  0.2262 -0.2056  0.2914
53383W        W96436   5.015  30.998  24.151  0.0228 -0.0878  0.3078
53384W        W96437  30.454  11.420  23.822  0.1354  0.1001 -0.2092
53385W        W96438  30.457  19.458   3.682  0.1808 -0.0809 -0.1154
53386W        W96439  31.166   8.698  21.254  0.0434 -0.4452 -0.0451
53387W        W96440  24.585  29.780   6.437 -0.2957 -0.0299 -0.1461
53388W        W96441  34.350  21.903   2.217  0.2608  0.0609 -0.0176
53389W        W96442  32.507  19.519   8.925 -0.0687 -0.0228 -0.3499
53390W        W96443   7.353  30.244  24.789 -0.0573 -0.2355  0.1022
53391W        W96444  26.717  24.347  25.879 -0.0537  0.0608  0.0111
53392W        W96445   2.826  32.221  23.795 -0.4083  0.0243  0.2487
53393W        W96446  32.359   3.760   3.623 -0.0826  0.0043  0.4266
53394W        W96447   9.493  27.565   4.406  0.2519  0.0988 -0.2113
53395W        W96448  22.256  29.604   6.684  0.2160  0.3061  0.0962
53396W        W96449  21.418  33.952  20.728  0.0213 -0.1413 -0.0735
53397W        W96450  33.466  23.339  24.537 -0.1357 -0.0336 -0.2758
53398W        W96451  19.219   1.513  23.834 -0.0244  0.0385 -0.1998
53399W        W96452  31.295   9.292  28.432 -0.0676 -0.4034  0.1079
53400W        W96453  12.618  20.357  16.119 -0.0670  0.1007 -0.0110
53401W        W96454   0.608   1.993  28.505 -0.1524  0.0997  0.1550
53402W        W96455   6.076  32.486  18.591 -0.0245  0.0861 -0.2373
53403W        W96456  20.790  30.961   3.219  0.0240  0.0345 -0.0964
53404W        W96457   7.403  22.049  26.601  0.0449  0.0555 -0.1624
53405W        W96458  34.013  27.213  21.945 -0.0798  0.0247 -0.0381
53406W        W96459   7.274  22.967  26.649 -0.1692  0.0152 -0.3102
53407W        W96460   4.580  17.388  21.239  0.1646 -0.1628  0.0200
53408W        W96461   0.452  32.921  25.447 -0.0624  0.0083  0.3793
53409W        W96462   6.757   5.502  20.786  0.1736  0.1111 -0.1918
53410W        W96463   8.194   8.016   2.435  0.0425  0.1011  0.0938
53411W        W96464  28.701  26.035  18.769 -0.1895  0.1080 -0.1112
53412W        W96465   4.393  33.655   2.273 -0.0868 -0.3888 -0.2514
53413W        W96466  30.814   3.459  17.121  0.0919 -0.0860 -0.1599
53414W        W96467  20.135  31.106   2.566  0.2006 -0.2231  0.0411
53415W        W96468  23.345  25.188  24.287 -0.0728  0.2545 -0.1115
53416W        W96469   1.755  15.294   6.712 -0.3845  0.0629  0.2154
53417W        W96470   6.617  13.761  21.625 -0.1902 -0.2989 -0.1215
53418W        W96471   9.737  19.284   3.505  0.1690  0.0767 -0.2700
53419W        W96472  23.807  30.022  27.570  0.2218  0.1585  0.2259
53420W        W96473  22.143  26.481  24.961  0.2752  0.1538  0.0340
53421W        W96474  22.690  15.900   9.064 -0.1292 -0.1758  0.2499
53422W        W96475  26.009   4.379  21.467  0.3148 -0.1785 -0.0896
53423W        W96476  33.296  24.415  21.097 -0.1962 -0.5067 -0.0932
53424W        W96477   0.249  30.265   6.664 -0.0107 -0.1821 -0.2251
53425W        W96478  31.518  25.118  24.032  0.0594 -0.3639  0.3225
53426W        W96479  24.572   7.555  17.276  0.1337 -0.2285 -0.2746
53427W        W96480  13.863  17.083  20.868 -0.1384  0.0648 -0.3383
53428W        W96481  14.436  12.040  15.101 -0.1419  0.0080  0.0840
53429W        W96482   5.898  34.260  18.309  0.3128 -0.1995 -0.1586
53430W        W96483   1.204  32.314  15.434 -0.0851 -0.0738 -0.0105
53431W        W96484  26.992  26.892   6.532  0.0783 -0.2563 -0.1694
53432W        W96485  32.325   2.103  19.563  0.3260  0.2479  0.0979
53433W        W96486   6.588  16.296   0.594 -0.0759  0.2315  0.4459
53434W        W96487  16.195  19.669  23.145  0.2101 -0.0156 -0.1109
53435W        W96488   6.859  20.410  28.773  0.1966  0.0549 -0.0659
53436W        W96489  10.846  18.906  19.120  0.2148  0.0392 -0.1166
53437W        W96490  31.152   8.627  10.034  0.2971 -0.1064 -0.0309
53438W        W96491  12.593  34.318   0.764  0.1048 -0.0649 -0.0406
53439W        W96492  28.514  11.655  25.979 -0.2191 -0.1389  0.2244
53440W        W96493  20.818   2.531   6.615 -0.3205  0.1365 -0.0381
53441W        W96494  32.421  26.892   4.712  0.3459  0.1283 -0.2145
53442W        W96495  25.216   3.187   1.408 -0.1935 -0.1974  0.0120
53443W        W96496  34.046  20.804  28.721 -0.4072  0.0882 -0.2997
53444W        W96497  34.351   3.898   9.229 -0.2082 -0.0029  0.0829
53445W        W96498  30.195  16.308   8.315  0.0282 -0.1260 -0.1955
53446W        W96499   6.137   6.745  16.485 -0.2868 -0.0127  0.0919
53447W        W96500   2.519  28.843  25.580 -0.0685  0.2749 -0.0131
53448W        W96501   0.723  23.071   2.707 -0.0534  0.3520  0.1723
53449W        W96502  33.276  18.632  26.978 -0.1135 -0.2625  0.2244
53450W        W96503  12.135  29.333   3.382  0.0059 -0.1523 -0.0130
53451W        W96504  24.528   6.686  25.078  0.0954  0.0365 -0.1311
53452W        W96505  20.317  19.600  15.929 -0.1733 -0.2217  0.2364
53453W        W96506   4.168  29.521   3.522  0.2683 -0.0870 -0.1300
53454W        W96507  26.341  32.050   7.924  0.0290 -0.0792 -0.0050
53455W        W96508  25.145  24.426   9.960  0.0579  0.2485  0.1551
53456W        W96509  33.708  15.869  25.275 -0.1282  0.1070 -0.0032
53457W        W96510   6.591  21.656   0.306 -0.0061 -0.3652  0.0983
53458W        W96511  27.683  20.925   8.861 -0.2050  0.1071 -0.0170
53459W        W96512   8.149  34.260  17.292 -0.0080  0.2805  0.0679
53460W        W96513  29.750  28.717   1.899  0.1568  0.0880  0.1328
53461W        W96514   4.178   2.928  25.248 -0.1494  0.0943 -0.0030
53462W        W96515  10.416  33.667   2.733  0.1130  0.0257  0.0836
53463W        W96516   7.735  25.225   8.948  0.3176 -0.1888  0.0815
53464W        W96517  10.403   4.605   6.049 -0.1985 -0.3180  0.0762
53465W        W96518   9.415  24.442   6.083 -0.0979 -0.0951 -0.4280
53466W        W96519   2.702  17.011  26.848  0.1516  0.0534  0.1560
53467W        W96520  27.783  24.121  17.405 -0.1102  0.2457  0.1724
53468W        W96521  22.002  29.565  25.780  0.3818 -0.0666  0.2414
53469W        W96522   2.907   0.710  23.532 -0.0309  0.1218 -0.0392
53470W        W96523  20.209  24.315  20.883 -0.1340  0.1446 -0.3335
53471W        W96524   6.292   1.845  20.121  0.0517  0.0446 -0.3500
53472W        W96525  18.179  27.615  16.100 -0.1558 -0.2542  0.0029
53473W        W96526   0.115   0.802  13.900 -0.0164  0.0310 -0.1606
53474W        W96527  18.645  23.941  16.249 -0.4958 -0.0890  0.0408
53475W        W96528   0.159   3.011  15.196 -0.1208 -0.0291 -0.2634
53476W        W96529  34.120  30.135  15.746  0.3314  0.2849 -0.1738
53477W        W96530  32.785  31.097  25.098 -0.3114 -0.0215  0.0552
53478W        W96531  14.402  27.904  19.949 -0.0221 -0.0812  0.2745
53479W        W96532  31.500  28.929  18.660  0.0824 -0.0487 -0.0820
53480W        W96533  29.222  10.634  24.514 -0.0174 -0.0675  0.0880
53481W        W96534  26.364   4.287  27.062  0.2162  0.2300 -0.3367
53482W        W96535  28.331  24.966  19.847 -0.1812  0.0732  0.0679
53483W        W96536  12.858  11.224  25.472 -0.0006  0.3500  0.0337
53484W        W96537  29.784  14.816  20.375 -0.0032  0.2216  0.0539
53485W        W96538  29.621  33.900  17.100 -0.1286  0.1914 -0.1742
53486W        W96539  26.885   0.867  21.084 -0.1639 -0.0649 -0.1161
53487W        W96540  26.328  29.722  14.097 -0.1176  0.0191  0.1465
53488W        W96541   7.600  25.120  23.742  0.2315 -0.1185 -0.0480
53489W        W96542   9.108  28.409  27.530 -0.0701 -0.2297 -0.0802
53490W        W96543   1.497  24.662  21.907 -0.2215  0.0368  0.0085
53491W        W96544  11.448  10.501  15.599  0.0349 -0.1333 -0.0827
53492W        W96545  32.883   9.216  18.622 -0.0236 -0.1822  0.2161
53493W        W96546  29.172  29.774  10.048  0.1595  0.0249  0.1066
53494W        W96547  28.768   3.349  27.458  0.0520  0.2674 -0.0768
53495W        W96548   7.328  29.132  18.968  0.2010  0.2753 -0.1319
53496W        W96549  33.719   7.073   1.488  0.0312  0.5150  0.1864
53497W        W96550   0.732  32.179  16.114  0.2365  0.1845 -0.0949
53498W        W96551   2.521  30.358  15.506 -0.2289  0.0057  0.1212
53499W        W96552  31.635   5.366  16.947  0.1629 -0.0760 -0.1997
53500W        W96553  33.346   2.295  19.479 -0.2647 -0.0269  0.1851
53501W        W96554  28.184  34.219  14.460 -0.2037 -0.0711 -0.0592
53502W        W96555   2.419   0.236  17.555 -0.1832  0.1991  0.0281
53503W        W96556  29.713  18.498  18.280  0.1335 -0.2389  0.0526
53504W        W96557  10.365   6.581  25.911 -0.0858  0.1507  0.3110
53505W        W96558  17.194  29.858  20.024  0.1003  0.0166  0.1505
53506W        W96559  33.085  34.075  15.161 -0.2864  0.0149 -0.1106
53507W        W96560  32.585   1.522  22.020  0.0315  0.1094 -0.0587
53508W        W96561   1.770   0.026  22.036 -0.1509  0.2717 -0.0763
53509W        W96562  20.492  26.040  16.983  0.0056 -0.0525  0.2243
53510W        W96563  30.902  15.340   6.290  0.4084 -0.0941  0.0620
53511W        W96564  12.293   2.978  26.836 -0.0337 -0.2325 -0.3287
53512W        W96565   4.058   1.330  15.152 -0.1843  0.1141  0.0206
53513W        W96566  21.808   5.886  16.710  0.1642  0.1143 -0.0996
53514W        W96567  30.085  14.083   9.415 -0.2008 -0.0220 -0.0349
53515W        W96568  16.063   0.106  14.923 -0.1321 -0.0106 -0.5337
53516W        W96569   4.626  32.842   0.373 -0.1327 -0.0581  0.0113
53517W        W96570  27.066  33.599  15.928 -0.2056 -0.2455 -0.1631
53518W        W96571  25.449  13.514  22.628  0.2830  0.4148 -0.1024
53519W        W96572  30.127  28.152  14.480  0.0839 -0.0995  0.0893
53520W        W96573  25.907   7.318  19.693  0.1480 -0.5469 -0.0576
53521W        W96574  12.745  27.652  24.316 -0.1302  0.1770 -0.1261
53522W        W96575  22.309   1.791  16.271 -0.5517 -0.2858  0.0182
53523W        W96576  12.582  34.284  25.455  0.1396  0.1104  0.0188
53524W        W96577  31.438   2.305  18.042 -0.0041  0.1730  0.1079
53525W        W96578  27.258  22.591   2.298  0.1093  0.4747 -0.1285
53526W        W96579   6.875   1.643   3.769  0.1520  0.0478  0.2922
53527W        W96580  34.600  29.863  20.851 -0.1577 -0.1023 -0.2069
53528W        W96581  21.109   8.962   3.243  0.1383  0.2081 -0.0563
53529W        W96582   6.545  25.750  14.252 -0.0985  0.4284  0.1379
53530W        W96583  28.963   0.276  18.347  0.3100  0.1104 -0.5020
53531W        W96584  29.931  10.787  16.880 -0.1355  0.1047 -0.0296
53532W        W96585   5.670  25.685  23.902 -0.0134  0.1778 -0.0390
53533W        W96586  12.846  32.955  15.719 -0.0194  0.0222 -0.0379
53534W        W96587  11.196  21.486  25.794  0.1882 -0.1847  0.3890
53535W        W96588   0.062  33.123  14.529  0.0838  0.2526  0.2322
53536W        W96589   6.734  32.714  17.850 -0.0165  0.0525 -0.0330
53537W        W96590  28.393  24.711  17.740  0.1966  0.1066 -0.2440
53538W        W96591  31.045   8.907   5.419 -0.0925 -0.1724  0.0473
53539W        W96592   3.773  24.958  19.834  0.0278 -0.0803  0.0107
53540W        W96593  24.084  30.391  24.689 -0.0169  0.0324  0.0377
53541W        W96594  27.875   3.936  22.286 -0.0551 -0.1358 -0.1426
53542W        W96595  11.469  28.177  13.574 -0.1882 -0.1034 -0.0367
53543W        W96596  31.514  29.155  14.068  0.0255  0.1279 -0.0329
53544W        W96597   4.652  10.564  28.708 -0.2203  0.2125  0.2941
53545W        W96598  23.459  31.194  23.964  0.0564 -0.1904  0.3144
53546W        W96599   2.186   3.201  26.321 -0.1143 -0.0610  0.0248
53547W        W96600   1.666  25.292  17.498  0.0855 -0.2385 -0.0504
53548W        W96601   0.008  13.871  24.906  0.3108  0.2845  0.0400
53549W        W96602  13.070   7.723  17.894 -0.1766 -0.0109  0.0277
53550W        W96603  28.572  26.479  25.346 -0.0725  0.2081  0.2047
53551W        W96604   1.797   0.699  15.847  0.2880 -0.0724 -0.1536
53552W        W96605  30.588   0.081  14.287  0.1473  0.1901  0.3187
53553W        W96606   3.875   1.309  16.807 -0.1086  0.0254  0.0100
53554W        W96607   7.435  26.399  16.150  0.1050 -0.3221 -0.1458
53555W        W96608   8.496   4.478  15.420 -0.0659 -0.1064  0.0909
53556W        W96609   7.841   1.137  23.853  0.0105 -0.0618 -0.0827
53557W        W96610  33.227  28.085  19.703  0.2499  0.2062  0.1368
53558W        W96611   2.879  34.454  15.576 -0.1143 -0.1131 -0.3025
53559W        W96612  19.592  29.601  19.895  0.2776  0.2307 -0.1348
53560W        W96613  21.187  31.657  28.541  0.2785  0.1646  0.0958
53561W        W96614  30.045  11.892  24.951  0.0001  0.0840 -0.0763
53562W        W96615  24.152  28.989   1.170 -0.2012 -0.1712 -0.1359
53563W        W96616  21.852  14.134  19.571  0.0513 -0.3881 -0.0998
53564W        W96617  13.210  32.584  18.784 -0.5464 -0.2268 -0.0502
53565W        W96618  16.694   5.604  16.303 -0.0818  0.2025 -0.0127
53566W        W96619  27.325   4.038  14.443 -0.0509  0.2205 -0.1794
53567W        W96620   6.030  17.581  18.305 -0.2991 -0.1205  0.0903
53568W        W96621  33.854  21.245  13.287 -0.3184 -0.2216  0.0298
53569W        W96622  28.968  33.274  27.012  0.0830 -0.2340 -0.1203
53570W        W96623  30.742  19.842  28.207  0.0793  0.2499 -0.3462
53571W        W96624   8.900  34.397  25.995  0.1490 -0.0888 -0.2865
53572W        W96625  33.531  32.048   1.562 -0.2978  0.0570 -0.0880
53573W        W96626   5.399   2.526  22.900  0.1153 -0.0615  0.3491
53574W        W96627  19.708  32.130  20.622  0.6384 -0.2257  0.1287
53575W        W96628   5.072   0.480  18.201  0.0026 -0.1155 -0.0815
53576W        W96629  18.361  29.521  23.009  0.2134  0.0240 -0.1587
53577W        W96630   1.755  34.640  21.146 -0.0368  0.1703  0.0483
53578W        W96631  33.334   3.659  17.690  0.0103 -0.0789 -0.1454
53579W        W96632  29.336  31.110  25.000 -0.3122 -0.1576  0.1006
53580W        W96633  11.652   2.121  24.075 -0.0501 -0.1890  0.4157
53581W        W96634  30.978   0.156  27.611 -0.0480 -0.0720 -0.2580
53582W        W96635   9.392  23.923  18.789  0.0205  0.2731  0.4062
53583W        W96636  30.052   6.771  17.909  0.1026 -0.2401  0.2110
53584W        W96637   1.759  26.610  19.656 -0.3106  0.2447 -0.1887
53585W        W96638  32.911  28.444  16.967 -0.0803  0.0051  0.3101
53586W        W96639   0.751  20.523   1.572 -0.0878 -0.0868 -0.2414
53587W        W96640   4.657  11.508  22.550 -0.1714  0.1397 -0.2297
53588W        W96641  25.518  18.716  26.321  0.0893 -0.1237 -0.1339
53589W        W96642   1.698   9.170   4.360 -0.0353 -0.0323 -0.0956
53590W        W96643   7.941   1.200  20.431 -0.1685  0.0454  0.2788
53591W        W96644  32.102  23.938  22.679  0.2474  0.1035 -0.0930
53592W        W96645   6.849  23.924  16.015 -0.1598  0.1878  0.0304
53593W        W96646   2.841  26.569  24.217  0.0285  0.0712 -0.1836
53594W        W96647  12.002  10.988  26.154  0.2512  0.1077 -0.2093
53595W        W96648  30.971  27.612  15.381 -0.2255 -0.1014  0.0497
53596W        W96649  22.786  31.559  21.442  0.2938  0.1045 -0.0936
53597W        W96650  10.466   7.292  16.065  0.3731 -0.0351  0.0634
53598W        W96651   9.347   5.173  24.471  0.1239  0.0790  0.0573
53599W        W96652  24.177  22.544  15.297 -0.3438 -0.1264  0.3693
53600W        W96653   5.379  32.824  18.214 -0.2734  0.0172  0.0839
53601W        W96654   3.379  25.167  14.031  0.2690  0.1646 -0.1721
53602W        W96655  23.370  24.367  23.838  0.2808 -0.0968  0.0467
53603W        W96656   0.710   1.648  15.295 -0.1716  0.0048  0.2163
53604W        W96657   5.040  31.760  24.636  0.1417 -0.1089 -0.0255
53605W        W96658  13.015   9.152  28.754 -0.2110  0.0038  0.1470
53606W        W96659   2.886  30.250   6.881 -0.3922 -0.0750 -0.0468
53607W        W96660  30.284  31.474  17.593 -0.5129 -0.0580 -0.2982
53608W        W96661   8.678   9.079  27.860 -0.1542  0.0462  0.0161
53609W        W96662   2.470  32.906  15.317  0.1111  0.0590 -0.1597
53610W        W96663  17.567  25.070  24.123  0.0165 -0.1494  0.0726
53611W        W96664  34.219  34.081  13.914  0.0353 -0.1962 -0.3720
53612W        W96665   0.983  20.937  16.806  0.5549 -0.1742  0.0813
53613W        W96666   6.611   0.433  18.500  0.1678  0.1692 -0.1822
53614W        W96667   1.965   1.036  17.662  0.0120  0.0073 -0.0757
53615W        W96668   3.170  21.769  13.978  0.0554  0.1357 -0.0219
53616W        W96669   8.889  11.516   1.614 -0.1960 -0.1277 -0.0485
53617W        W96670   3.588  25.949  25.049  0.1449 -0.1112 -0.2357
53618W        W96671  23.186  28.411  24.960 -0.1155  0.1356 -0.2186
53619W        W96672  24.448   3.661  14.214  0.2121 -0.1426 -0.3074
53620W        W96673  32.045   7.398  26.574  0.0046  0.0601  0.3731
53621W        W96674  29.553  29.417  16.453 -0.0871 -0.1726  0.0190
53622W        W96675  34.119  32.923  19.773  0.0468 -0.0128  0.1276
53623W        W96676  17.808  11.828  23.184 -0.2720 -0.3479  0.2399
53624W        W96677   3.210  15.924   1.713 -0.1331 -0.1230 -0.0211
53625W        W96678  27.154  30.717  16.229  0.1908  0.0991 -0.0819
53626W        W96679  33.527   0.770  18.441  0.0395  0.0106  0.0693
53627W        W96680  26.372  34.098  17.644  0.1295  0.1760  0.0654
53628W        W96681  32.828   0.616  15.141  0.0836  0.2753  0.0031
53629W        W96682  15.729  10.263  26.426  0.1951 -0.1143  0.0454
53630W        W96683  33.563  23.510  14.460  0.5058  0.2359 -0.1403
53631W        W96684   5.434   1.100  20.989 -0.0156  0.2516  0.1183
53632W        W96685  13.990   4.962  21.100 -0.1759 -0.2886  0.2506
53633W        W96686  13.661   5.644  16.078 -0.2644  0.0963 -0.1258
53634W        W96687   2.867   2.520  27.103  0.0048 -0.0849 -0.0568
53635W        W96688  32.148   6.084  16.121 -0.0583  0.1295  0.0879
53636W        W96689  33.906   3.008  20.565 -0.1269 -0.1595  0.0296
53637W        W96690  21.119   6.273  23.851  0.0336 -0.0994 -0.0055
53638W        W96691   8.264   8.385  22.208  0.1473  0.0859  0.2854
53639W        W96692  32.253  17.100  25.271 -0.0957 -0.1505  0.0087
53640W        W96693   2.783  12.925  25.954  0.2804 -0.0238 -0.1171
53641W        W96694  14.765  32.521   4.322 -0.2434 -0.0555 -0.3080
53642W        W96695  30.600  10.259  28.565  0.0831  0.1194 -0.1778
53643W        W96696   7.660  27.457  21.837 -0.2201 -0.2021  0.2616
53644W        W96697  29.577  31.278   6.654  0.2918 -0.2152  0.0481
53645W        W96698  20.469  32.751   3.056  0.1491  0.1610  0.0211
53646W        W96699   3.990  17.932  14.449  0.1361  0.0716  0.0412
53647W        W96700  34.238  31.766   4.134  0.0275 -0.0274 -0.0173
53648W        W96701   3.426   6.046  16.817 -0.4646 -0.0790  0.0555
53649W        W96702   2.519  29.140  19.538  0.2363 -0.1899 -0.2392
53650W        W96703  31.273  29.745  23.560 -0.1441  0.2289 -0.2491
53651W        W96704  31.404   6.606  22.522  0.0016  0.0147 -0.1158
53652W        W96705  32.370   0.477  22.563 -0.3159 -0.1566  0.1347
53653W        W96706  23.798   5.388  22.776  0.0843  0.0186 -0.4061
53654W        W96707  26.060   4.063  15.695 -0.3528 -0.0774  0.1581
53655W        W96708   3.146   1.899   6.364 -0.2102  0.3649 -0.0970
53656W        W96709   8.285  25.453  18.674  0.1604 -0.1767 -0.2453
53657W        W96710  12.579  12.396  25.508  0.2720 -0.3019  0.0610
53658W        W96711  10.528  27.081  14.626  0.2231  0.0924  0.3126
53659W        W96712   9.697   0.049  20.836  0.0684 -0.2146 -0.2089
53660W        W96713  23.647   4.095  17.167  0.1761 -0.0738  0.1279
53661W        W96714  25.215  31.627  15.289  0.1351 -0.0135 -0.1024
53662W        W96715  32.122  31.555  22.004 -0.0910 -0.0249  0.1926
53663W        W96716   3.068  12.234  14.444  0.2015  0.0830 -0.0420
53664W        W96717   1.996  23.037   3.552  0.3592  0.2627 -0.1469
53665W        W96718  34.590  34.271  21.585 -0.3753 -0.2587  0.1671
53666W        W96719  28.674   0.776   9.737 -0.1644  0.0103 -0.1474
53667W        W96720   3.854  28.799   4.759  0.0491  0.0327  0.2161
53668W        W96721  21.039  26.388  23.977 -0.0858  0.1754 -0.1457
53669W        W96722   4.888  26.777  21.035  0.1135 -0.0477 -0.0105
53670W        W96723  24.121   5.536  14.489 -0.1612 -0.1444  0.0693
53671W        W96724   3.545  20.367  23.875 -0.0658 -0.0352  0.1564
53672W        W96725  20.964   9.814  16.363 -0.1992  0.1285  0.2641
53673W        W96726  30.683  19.471  20.165  0.1349  0.0942 -0.1400
53674W        W96727  17.198  33.528  20.629  0.4766  0.1794  0.1584
53675W        W96728   5.104  23.209  15.415  0.1910 -0.2001 -0.0718
53676W        W96729  13.788  34.526  21.514 -0.2968  0.4520 -0.1118
53677W        W96730  21.022  29.682  15.434  0.5457  0.1109  0.0133
53678W        W96731  27.106  11.593  22.611 -0.0179 -0.0481 -0.0511
53679W        W96732  22.877  23.821  21.002  0.5069 -0.2091  0.1260
53680W        W96733  24.528  27.073  17.855 -0.0615  0.0513  0.1919
53681W        W96734   0.423  22.425  14.033  0.0795  0.1942 -0.1015
53682W        W96735  11.919   3.962  15.327 -0.1400  0.0460 -0.0408
53683W        W96736  30.664   7.280  15.795  0.0314 -0.0909 -0.0645
53684W        W96737  16.959   4.767  16.092  0.0666  0.1647 -0.3580
53685W        W96738  24.053  29.661   5.335  0.0191 -0.3066  0.0335
53686W        W96739   2.425   2.277  16.211 -0.1435  0.0051 -0.2714
53687W        W96740   4.839  14.258   1.005  0.2965 -0.1074 -0.1948
53688W        W96741  33.567  15.615  27.844  0.0973  0.0708 -0.0955
53689W        W96742  23.032   0.550  17.664 -0.0098  0.2757  0.1228
53690W        W96743  14.771  32.957  20.958 -0.0259  0.0342  0.1216
53691W        W96744  21.556  27.372  25.311  0.0167  0.0459  0.0830
53692W        W96745   0.068   6.940  16.431  0.0402  0.0770  0.0589
53693W        W96746  27.793  27.694  20.612  0.3823  0.0095  0.2059
53694W        W96747  17.582   7.223  27.287 -0.0450 -0.1124  0.1314
53695W        W96748  23.891  32.164  27.051 -0.1205  0.0097 -0.2154
53696W        W96749  33.363  16.695   3.430  0.1963  0.0643  0.3919
53697W        W96750  25.295  14.561   3.269  0.0843 -0.0914 -0.1325
53698W        W96751  32.150  33.688  17.850 -0.0555 -0.2158  0.0414
53699W        W96752  32.461  33.373  17.584 -0.3022 -0.1277  0.0574
53700W        W96753  27.396   3.535  19.631 -0.1057 -0.1244  0.0326
53701W        W96754  21.808  31.803   7.541 -0.1629  0.2540  0.2916
53702W        W96755   6.001  12.736   8.371  0.0689  0.1555 -0.2696
53703W        W96756  28.008  21.440  16.361 -0.1104 -0.1486 -0.0365
53704W        W96757   7.109   2.471  18.098  0.1353  0.0411  0.0519
53705W        W96758  12.653   0.725   5.993  0.2534  0.0085  0.0766
53706W        W96759  10.697  17.082   2.346 -0.0771  0.1608 -0.3255
53707W        W96760  11.843   2.150   8.911 -0.4044  0.0861 -0.0260
53708W        W96761   8.149  21.885  14.020 -0.1217  0.1877 -0.1586
53709W        W96762  24.034  29.907  25.576 -0.2389 -0.1975 -0.0596
53710W        W96763   0.973   7.277  15.567 -0.0066  0.0576 -0.0579
53711W        W96764   1.866  26.133  26.385 -0.0005 -0.0641  0.0225
53712W        W96765   8.291  19.929  24.254  0.0558 -0.1806 -0.0526
53713W        W96766  16.563  24.593  19.523  0.1843 -0.0578  0.1159
53714W        W96767   1.544  27.116  22.486  0.1321 -0.0209  0.3739
53715W        W96768  31.984   1.660  15.169  0.0505 -0.0821  0.0015
53716W        W96769  29.636  29.994  27.287 -0.0291  0.0066  0.0828
53717W        W96770  33.562   3.911  15.548  0.1216  0.2096 -0.0387
53718W        W96771  15.117  14.147   0.994  0.1368 -0.0508 -0.0271
53719W        W96772  25.576  32.464   5.074  0.0758  0.0174  0.0529
53720W        W96773  10.315  26.610  13.820  0.0246  0.0107 -0.3248
53721W        W96774  10.618  30.060   2.365 -0.0406  0.0898  0.6142
53722W        W96775  34.033  14.283   6.316 -0.0385  0.1118 -0.0326
53723W        W96776  24.951   3.396  29.101  0.2466 -0.1646 -0.2597
53724W        W96777   2.128   9.642   2.484  0.2211  0.1995 -0.1231
53725W        W96778   9.188  21.639   5.671 -0.0636 -0.0419  0.2017
53726W        W96779   5.355  31.952  20.195 -0.0207 -0.0480  0.1477
53727W        W96780  18.080  32.617  20.508  0.2620 -0.1629  0.1916
53728W        W96781  23.593   8.581  16.534 -0.0648 -0.1162  0.3032
53729W        W96782  34.122   4.534  19.736 -0.0745  0.0361 -0.2368
53730W        W96783   3.840   3.602  17.717 -0.2143  0.1852 -0.0326
53731W        W96784  31.648   2.861  27.695  0.0575 -0.1240 -0.1698
53732W        W96785   9.031  30.954  25.816 -0.2707  0.2137 -0.0772
53733W        W96786  22.277   4.214  24.275  0.1909  0.1082 -0.1005
53734W        W96787  22.083   0.417  28.076 -0.0821 -0.1606  0.1148
53735W        W96788  33.366  29.616   8.771 -0.0067  0.2248 -0.0704
53736W        W96789  21.513   7.106  26.061 -0.1289 -0.1214  0.0721
53737W        W96790  33.350  31.081  17.418 -0.2859  0.1223 -0.2843
53738W        W96791  18.416  32.521  17.489  0.3918  0.1312  0.0937
53739W        W96792  25.516   6.237  23.594  0.1251 -0.1029 -0.1685
53740W        W96793   1.214   2.569  20.426 -0.3612 -0.1358  0.1961
53741W        W96794   3.370   4.596   9.245  0.1681  0.0642  0.2568
53742W        W96795   9.145   5.984  17.043 -0.2105 -0.1323  0.1757
53743W        W96796   3.113  28.248  17.621 -0.0303  0.0979 -0.2940
53744W        W96797  30.722   0.973  26.251  0.0460 -0.5791  0.1159
53745W        W96798  21.491   0.169  21.038 -0.2541 -0.3032  0.0602
53746W        W96799  13.948  17.882  25.114 -0.0731 -0.0478 -0.0969
53747W        W96800   9.440  13.469  24.735  0.2834  0.1425 -0.0316
53748W        W96801   0.820  25.052  25.815  0.1432  0.0723  0.2517
53749W        W96802   3.018  32.729  17.135  0.2239  0.1404 -0.1752
53750W        W96803  21.771  29.063  16.068  0.0338 -0.3715 -0.0769
53751W        W96804  15.425   7.050  15.049 -0.3910  0.1568  0.0006
53752W        W96805  32.252  21.917  25.699 -0.0628  0.1090  0.0615
53753W        W96806  32.350  31.081  18.036  0.1081 -0.1004 -0.0610
53754W        W96807  20.310   7.756   4.210  0.1624  0.1830 -0.2476
53755W        W96808   5.804  15.415  19.717  0.3639 -0.1588 -0.0204
53756W        W96809  32.177  19.333   2.857  0.2005  0.0598  0.0426
53757W        W96810  11.107   0.895  18.202  0.0585 -0.1645 -0.1511
53758W        W96811   3.686   0.768  17.831  0.1713  0.2146 -0.2292
53759W        W96812   4.655  29.312  24.439  0.1831 -0.1782 -0.0259
53760W        W96813  20.042   3.152  23.234  0.0830  0.3373  0.3132
53761W        W96814  23.720  29.150  24.795 -0.0912 -0.0175 -0.0757
53762W        W96815  25.686   0.322  17.006  0.7298 -0.0403 -0.1431
53763W        W96816  31.752  24.395   6.637 -0.1675  0.0261 -0.0635
53764W        W96817  28.437  20.458   0.763 -0.1652  0.1821 -0.1976
53765W        W96818   9.130  21.552  16.583 -0.2186 -0.1280  0.5267
53766W        W96819   8.614  29.470  27.534  0.2307  0.3931 -0.1539
53767W        W96820  25.789  21.761  20.710 -0.1005 -0.0829  0.2685
53768W        W96821   4.263   4.478  20.896  0.1341  0.1102 -0.1471
53769W        W96822   0.012  26.576  16.482  0.2073 -0.1519  0.0212
53770W        W96823   3.709  31.196  20.794  0.2159  0.1709 -0.1443
53771W        W96824  31.792   0.928  16.264 -0.0492 -0.2670 -0.0599
53772W        W96825   9.689  26.291  21.225 -0.0502 -0.0712  0.0174
53773W        W96826   9.901   9.961  22.422 -0.0639 -0.1813 -0.4110
53774W        W96827  22.632  29.665  18.430 -0.1472  0.1767  0.0313
53775W        W96828  26.415  30.486  23.825 -0.1152  0.1084 -0.3114
53776W        W96829  32.688   8.501   9.126  0.0008 -0.1232 -0.1761
53777W        W96830  26.656   0.412  15.389  0.3682  0.2294 -0.0748
53778W        W96831  26.103  30.992  17.746 -0.2579 -0.0587  0.0635
53779W        W96832  33.139  30.657  16.038 -0.1357  0.1577 -0.0262
53780W        W96833  11.211  31.042  14.860 -0.1063 -0.0534  0.2951
53781W        W96834  30.152  30.835  21.997  0.1345 -0.0160  0.3613
53782W        W96835  17.358  32.146  18.986 -0.2565 -0.1377 -0.1540
53783W        W96836  24.558  34.445  17.626 -0.0848 -0.1187  0.1176
53784W        W96837  32.600  34.225   0.726  0.2301 -0.3607 -0.0360
53785W        W96838  27.135   3.213  19.283 -0.0255  0.2351  0.0430
53786W        W96839  26.508  22.731  22.123  0.3775 -0.0042  0.0208
53787W        W96840   8.894  15.911  18.098  0.0718  0.0630  0.1010
53788W        W96841   4.127  30.687   0.282  0.2885 -0.0575 -0.3261
53789W        W96842   3.994   3.291  14.308  0.0242  0.1943  0.0217
53790W        W96843  33.486  17.298  13.327  0.1515 -0.3179  0.0342
53791W        W96844  34.674  13.512  26.876  0.2332 -0.1443  0.3337
53792W        W96845   5.193  30.323   6.215 -0.0364 -0.3170 -0.0542
53793W        W96846  34.148  10.227   8.201 -0.1530 -0.2125  0.3593
53794W        W96847  21.437  34.401  25.817 -0.2290  0.1996  0.0670
53795W        W96848  28.613   5.435  16.860 -0.0933 -0.1117 -0.0135
53796W        W96849   6.515  30.134  18.793 -0.0808  0.1215  0.0925
53797W        W96850  34.513   0.738  18.668 -0.0946 -0.3766 -0.4359
53798W        W96851   2.323  26.429  26.369 -0.2322  0.0923 -0.1366
53799W        W96852  33.692  28.069   0.354  0.1864 -0.1828 -0.0867
53800W        W96853  31.019  28.564   5.054 -0.3857  0.0164  0.0891
53801W        W96854  32.864  28.326  20.405  0.1763 -0.0753  0.0389
53802W        W96855  10.726  26.638  22.755  0.2449 -0.0000 -0.1460
53803W        W96856  22.396   2.531  26.380  0.2885  0.2842  0.0720
53804W        W96857  26.897  21.127  28.340 -0.3190  0.2981  0.0198
53805W        W96858  24.333  12.901   2.115 -0.0220  0.2176  0.2743
53806W        W96859  33.665  23.401  19.443 -0.3075 -0.1395 -0.1584
53807W        W96860  32.259  31.584  25.305  0.2586 -0.0280 -0.0613
53808W        W96861   5.374   0.400  24.270  0.1663  0.1946 -0.3012
53809W        W96862   0.866  25.892  21.733 -0.0106  0.2801  0.1972
53810W        W96863  29.751  21.818  16.107  0.3250 -0.1085  0.1090
53811W        W96864   9.663  24.485  19.076 -0.0266  0.2235 -0.2068
53812W        W96865  33.744   1.325  15.698 -0.0181 -0.3143  0.0324
53813W        W96866  16.447   6.585  16.141  0.2964  0.0809 -0.1487
53814W        W96867  26.039   0.915   6.750 -0.1061 -0.1253 -0.0223
53815W        W96868  18.169  22.151  28.830 -0.0830 -0.1824 -0.0687
53816W        W96869  23.960  11.525  22.322 -0.0198 -0.1193 -0.1960
53817W        W96870  28.651  25.222   5.521 -0.2587  0.1818  0.1810
53818W        W96871  29.373  28.372  17.401  0.2596 -0.0443 -0.1515
53819W        W96872  32.960  27.660  23.754 -0.0389  0.2110 -0.0069
53820W        W96873   0.385  31.028   9.074 -0.1336  0.0234  0.2912
53821W        W96874  25.369  25.845  17.216  0.1763  0.1859 -0.0937
53822W        W96875  16.542  12.275  25.686  0.0203  0.0117 -0.0292
53823W        W96876   9.937   1.850  28.892  0.2087  0.3091  0.0596
53824W        W96877   3.782  11.922  15.877  0.0995  0.0270 -0.0409
53825W        W96878  19.055   5.558  25.305 -0.4519 -0.1192 -0.1411
53826W        W96879  12.431  25.301   8.074 -0.1470 -0.0270  0.0062
53827W        W96880   5.776  10.962  26.348  0.0201  0.2667  0.3468
53828W        W96881   6.341   0.240   0.672 -0.3799  0.1204 -0.0213
53829W        W96882   4.659  30.057  15.969  0.3154  0.3129 -0.0792
53830W        W96883  18.202  34.205  25.222 -0.2556 -0.1097 -0.0268
53831W        W96884   7.302  23.777  14.054 -0.3410  0.1998 -0.1899
53832W        W96885   3.238   2.419  17.165  0.0231  0.0383  0.0354
53833W        W96886  31.569  34.546  19.337  0.0075  0.2421 -0.2854
53834W        W96887   4.901  14.116  27.324  0.2598 -0.3476 -0.0482
53835W        W96888   3.748   5.494  23.304  0.0593 -0.2298 -0.1553
53836W        W96889   9.156   3.686  18.982  0.0855 -0.4109 -0.0997
53837W        W96890  15.996  27.575  16.591 -0.1763 -0.1343 -0.0116
53838W        W96891   2.725  28.468   4.288  0.1800  0.0218 -0.1280
53839W        W96892  26.167  24.486  22.698 -0.0893  0.3052  0.0077
53840W        W96893  21.244  11.696  19.762 -0.0056  0.1801 -0.0488
53841W        W96894   1.990  12.180  27.194 -0.3383  0.1201  0.0967
53842W        W96895  19.959  12.935  22.884 -0.1262  0.0421 -0.2114
53843W        W96896   3.298  33.359  19.484  0.1452  0.1199 -0.0595
53844W        W96897   2.399   3.124  18.631  0.0276 -0.0295 -0.0373
53845W        W96898  34.634   2.723  21.066 -0.2555  0.0560  0.1514
53846W        W96899  26.776   3.581  26.429 -0.0448 -0.1503 -0.0256
53847W        W96900  30.502  28.435  14.181 -0.1563 -0.0657  0.2176
53848W        W96901  25.712  22.504  14.676 -0.0883  0.1671 -0.3534
53849W        W96902   0.254  32.377   3.596  0.2171  0.0152  0.3946
53850W        W96903   0.657   8.697  25.246 -0.1185 -0.0853 -0.1596
53851W        W96904  17.093  30.674  26.273 -0.2078  0.1853 -0.0167
53852W        W96905  10.375   5.740  19.879  0.0839 -0.0186  0.1206
53853W        W96906   0.785   1.262  15.594  0.1076 -0.1715  0.0363
53854W        W96907  30.604   5.664   4.444 -0.3022 -0.1405  0.1473
53855W        W96908  12.029  27.552  14.234 -0.2188  0.1124 -0.1720
53856W        W96909  27.895  31.247  18.806 -0.2225  0.0137  0.0476
53857W        W96910   5.871   4.604  20.762 -0.0105  0.0289 -0.1642
53858W        W96911  20.817   0.598  25.897  0.0185  0.0960 -0.1322
53859W        W96912  32.996   2.006  17.567  0.1880  0.2018 -0.3928
53860W        W96913   4.462  25.208  20.143 -0.0886  0.1854  0.1258
53861W        W96914   9.358   2.989  17.620 -0.0119  0.1479  0.0603
53862W        W96915   7.729  31.549  16.121 -0.0409  0.1530 -0.1057
53863W        W96916   5.995  31.521  19.983 -0.1194  0.1685 -0.0773
53864W        W96917  34.245   7.929  15.203 -0.0380 -0.1119  0.0110
53865W        W96918  14.700  27.600  15.988  0.0737  0.1141  0.0809
53866W        W96919  32.228  21.298  16.058 -0.2627  0.0450 -0.3424
53867W        W96920  20.252  19.564  25.502 -0.3055  0.0344  0.4357
53868W        W96921  15.762  14.803  23.242  0.0347 -0.2434  0.1251
53869W        W96922   4.543   2.507  25.622 -0.0641 -0.0714 -0.0630
53870W        W96923  27.280   2.492  20.287 -0.3485 -0.2767  0.0005
53871W        W96924   5.049  26.509  24.518  0.2964  0.3396 -0.1609
53872W        W96925   2.426   3.840  27.808  0.0481  0.1650 -0.0628
53873W        W96926  14.688  29.030   7.896 -0.1594 -0.1686 -0.4332
53874W        W96927  27.159  21.454  18.082 -0.0498 -0.0379 -0.1328
53875W        W96928   1.132  28.234  14.297 -0.0133  0.2658  0.1464
53876W        W96929  32.104  32.832  23.626 -0.0184 -0.0018 -0.1120
53877W        W96930   8.545  28.180  22.979  0.0055 -0.1097  0.0839
53878W        W96931  27.910  33.705  25.914 -0.1491 -0.2526 -0.1141
53879W        W96932   1.914  21.822  18.854  0.0427 -0.0292 -0.0533
53880W        W96933  33.710  27.208  15.082  0.2411  0.1548  0.2097
53881W        W96934   5.446   1.203   0.118 -0.0184  0.0278 -0.2259
53882W        W96935  10.301  15.224  20.820 -0.1137 -0.2959  0.0855
53883W        W96936  29.923   7.558  14.289  0.1160 -0.3042 -0.1845
53884W        W96937   2.280   2.347   5.558  0.2229  0.2603 -0.1645
53885W        W96938   7.979  28.664  17.676 -0.2529 -0.1805  0.2182
53886W        W96939  19.246  27.691  23.208 -0.0816 -0.3459  0.0359
53887W        W96940  29.936  30.614  28.773  0.0433 -0.0346 -0.3219
53888W        W96941  26.394  14.484  24.305  0.0247 -0.0259  0.2187
53889W        W96942  33.317  21.661  15.011  0.0044 -0.0084  0.0458
53890W        W96943  14.716  12.953  22.697  0.4542 -0.1229 -0.0088
53891W        W96944  32.245  28.178  15.862  0.1440  0.2983 -0.0046
53892W        W96945  32.661  22.712   2.676 -0.2075  0.1599  0.0856
53893W        W96946   0.618   1.695  18.761 -0.1858  0.0764 -0.1780
53894W        W96947  17.917   6.032  15.180  0.0267  0.1134  0.0889
53895W        W96948   7.889  24.697   5.714 -0.0178 -0.1652 -0.0562
53896W        W96949  32.599  10.598  27.000 -0.2844  0.0101 -0.2541
53897W        W96950  33.399  34.610   1.310  0.2105 -0.2715 -0.1137
53898W        W96951  21.314  25.849  16.848 -0.0704  0.0751 -0.0645
53899W        W96952   7.648   7.005  24.692 -0.0761 -0.1871 -0.0186
53900W        W96953   7.325   3.536  28.365  0.0118 -0.0372  0.1487
53901W        W96954   1.561  24.192  22.731 -0.0394 -0.0576 -0.0612
53902W        W96955   2.241  31.341  18.805 -0.1447 -0.0750  0.1789
53903W        W96956  31.920  30.472  13.671  0.0995 -0.0204  0.0055
53904W        W96957   8.081   0.808  18.415  0.0592 -0.1016 -0.0350
53905W        W96958  32.274  31.455  13.621 -0.2765 -0.1814  0.2779
53906W        W96959  11.211  25.786  17.293 -0.0864 -0.2359  0.2298
53907W        W96960  20.673   3.312  19.248  0.0302 -0.1199 -0.2420
53908W        W96961   2.872  14.388  22.376  0.2515  0.2620 -0.1192
53909W        W96962   7.309   8.747  24.401  0.0164 -0.1100  0.1604
53910W        W96963  32.165   2.239   2.246 -0.1723 -0.1145 -0.1749
53911W        W96964  20.149  26.388  17.843  0.0813  0.3588 -0.0824
53912W        W96965  33.235  33.455  19.375 -0.0184  0.1546  0.0148
53913W        W96966  24.038  17.193  24.781 -0.2459 -0.3756  0.0221
53914W        W96967  11.546  21.717   4.735 -0.0076  0.3894  0.0262
53915W        W96968   0.194  25.962   4.358  0.0155  0.1054  0.2399
53916W        W96969  32.337  29.528  15.122  0.1166  0.1751 -0.0099
53917W        W96970  20.912   9.012   2.775 -0.1406  0.1860 -0.0027
53918W        W96971  28.524  18.559  18.906 -0.1270  0.1020 -0.1522
53919W        W96972  12.002  32.287  14.353 -0.0882 -0.0097 -0.1919
53920W        W96973  32.741   1.630  27.748  0.1091 -0.1324  0.0841
53921W        W96974  12.506  26.975  14.848  0.0237 -0.1455  0.1173
53922W        W96975  27.951  27.170   8.625 -0.1966  0.1117  0.1731
53923W        W96976  26.948  34.401   4.435  0.3139 -0.2389 -0.1244
53924W        W96977   1.407   3.753   4.332  0.0182 -0.0918  0.0228
53925W        W96978   9.540  19.037  19.838  0.1119  0.0046 -0.1978
53926W        W96979  25.202  27.017  23.234 -0.2422 -0.2919  0.2441
53927W        W96980  32.341   4.117  26.414  0.0250  0.1152 -0.1467
53928W        W96981  17.476  13.366   5.807  0.0741  0.2678 -0.0501
53929W        W96982   2.874  34.063  22.510  0.1394  0.1146 -0.3951
53930W        W96983   2.067   2.620   3.592  0.1593  0.2630  0.0680
53931W        W96984  19.819   0.301  24.818  0.1282 -0.2389 -0.1420
53932W        W96985  11.011  32.273  21.257 -0.0390 -0.0329 -0.1007
53933W        W96986   4.095  32.119   8.720 -0.1017 -0.0696  0.0278
53934W        W96987   8.738  20.757  16.372 -0.0037  0.1186 -0.2167
53935W        W96988   0.767  33.353  23.330 -0.3109 -0.2583 -0.2573
53936W        W96989  27.782   7.170  23.820 -0.2305  0.0203 -0.3923
53937W        W96990  17.756  21.783  20.595 -0.1209  0.0598 -0.0239
53938W        W96991  11.566  17.139  26.066  0.1738  0.1151  0.2260
53939W        W96992  30.827  30.275  17.711 -0.0114  0.1059 -0.2114
53940W        W96993   5.662   0.041  18.377  0.0208  0.1562  0.3024
53941W        W96994  33.731   7.884  21.116  0.0519  0.0402  0.1862
53942W        W96995  31.595  33.234  14.965  0.1626 -0.1011 -0.0910
53943W        W96996   1.210  31.613  23.417 -0.0324 -0.3482 -0.2650
53944W        W96997  12.382  31.556   6.944 -0.1768 -0.0904 -0.1581
53945W        W96998   0.753   5.777  28.326  0.2334 -0.0300  0.1368
53946W        W96999  33.476  31.435  16.471  0.0453  0.0577 -0.0491
53947W        W97000  12.558  19.303  20.317  0.1275  0.1088 -0.1472
53948W        W97001  10.224  31.655  28.146  0.0539 -0.2329  0.1303
53949W        W97002  31.505  33.384  28.005  0.1254 -0.3057  0.0777
53950W        W97003  26.061   4.747   6.761 -0.3804 -0.1570 -0.3359
53951W        W97004  32.971  19.535  21.648 -0.1124  0.1742  0.1753
53952W        W97005  33.045  29.208  26.360 -0.0814 -0.2781 -0.3383
53953W        W97006  31.901   2.188  26.868  0.2489  0.1463 -0.2186
53954W        W97007  31.275   0.154  13.390  0.0299 -0.2296  0.0162
53955W        W97008   5.073  15.522  22.250  0.2602 -0.0666  0.0076
53956W        W97009  19.824  34.549  24.459  0.0155 -0.0008  0.0879
53957W        W97010  18.748   0.718  20.066 -0.1631 -0.0625 -0.1037
53958W        W97011  19.441  21.283  23.673 -0.4831 -0.3431 -0.1191
53959W        W97012  27.191  15.513   2.242  0.1520 -0.1038 -0.0448
53960W        W97013  34.538   5.505   1.865  0.0840  0.1682  0.0805
53961W        W97014  29.250  24.738   7.607 -0.2975  0.1133  0.0494
53962W        W97015   7.593  30.851  28.250 -0.3799 -0.0302 -0.4102
53963W        W97016  31.604  22.585  15.205 -0.1132 -0.0526  0.1779
53964W        W97017  15.355  15.528   1.335  0.1308  0.0455  0.0109
53965W        W97018  16.055  33.035  22.469  0.3564 -0.2440  0.2628
53966W        W97019  28.646   1.753  23.228  0.2583  0.2277 -0.2103
53967W        W97020   4.048   5.026   8.763 -0.1337 -0.0397  0.3316
53968W        W97021  21.174  30.067  26.109 -0.2798 -0.0372  0.2861
53969W        W97022   1.179  31.921   4.894 -0.0856 -0.2314 -0.0970
53970W        W97023   1.093   2.510  18.959  0.3849  0.1068 -0.1312
53971W        W97024   7.485  27.808  13.871 -0.2379  0.2380  0.2073
53972W        W97025  29.772  26.543  23.014  0.0468 -0.0231 -0.3624
53973W        W97026  33.064   7.922  18.375 -0.3148 -0.1706 -0.2519
53974W        W97027   6.841  31.844  16.551 -0.0874 -0.0530 -0.0302
53975W        W97028  22.835   7.502   1.640  0.1403  0.1111 -0.1037
53976W        W97029   9.540   0.688  18.368 -0.0138  0.0042  0.0191
53977W        W97030  25.731  34.351  21.234 -0.0080  0.1539 -0.0328
53978W        W97031  26.313   1.824  16.513 -0.1990  0.1487  0.3129
53979W        W97032   5.275  27.008  22.947  0.0271  0.2302  0.1173
53980W        W97033  31.429   5.063  15.761 -0.2177 -0.0080 -0.4064
53981W        W97034  12.125  27.308  19.349 -0.0712  0.2401  0.2245
53982W        W97035  14.533  13.895   1.035  0.3128  0.0543  0.2463
53983W        W97036   3.361   6.318  26.410 -0.2894  0.0994  0.0707
53984W        W97037   9.820   8.884  16.495 -0.0965 -0.0501  0.1121
53985W        W97038  22.052   5.262   2.182  0.0007  0.0627 -0.1218
53986W        W97039  32.820  23.482  15.771 -0.0118  0.0821  0.2845
53987W        W97040   9.340  26.270   6.491  0.1772  0.3452 -0.2617
53988W        W97041  14.016   5.224  28.952 -0.1501 -0.0238 -0.0393
53989W        W97042  28.601  28.066   2.951 -0.0598  0.1986 -0.2181
53990W        W97043  12.462  12.567   4.039  0.4260 -0.1240  0.1948
53991W        W97044  26.973  23.976  15.617 -0.0504  0.0072  0.0345
53992W        W97045  33.100   2.937  27.526  0.2315 -0.1685  0.0644
53993W        W97046  26.928  33.720   8.769 -0.3185  0.1570  0.0394
53994W        W97047  10.248  23.047  25.092 -0.0767  0.2956  0.1877
53995W        W97048  34.194  32.499  16.770  0.1933  0.0754  0.1446
53996W        W97049   2.725   9.782  14.544  0.1866 -0.0087 -0.0888
53997W        W97050  26.412   8.404  17.793  0.1228 -0.0072  0.0394
53998W        W97051  28.364  28.342   4.868 -0.0044  0.2249  0.1150
53999W        W97052  12.242  20.755  27.987 -0.1173 -0.0725  0.0600
54000W        W97053  13.396  15.479   5.662 -0.1134 -0.1422 -0.2718
54001W        W97054   2.945   3.173  26.421 -0.0970  0.2108 -0.0866
54002W        W97055  25.650   2.126  20.916  0.0419 -0.0528  0.0450
54003W        W97056  25.525  32.322  23.339 -0.0568  0.1992  0.2686
54004W        W97057   2.390   1.665  13.447 -0.2033  0.0016 -0.3447
54005W        W97058  34.650  12.275  23.879  0.6386 -0.1500 -0.0104
54006W        W97059  24.249  12.943  18.186 -0.0403 -0.0930  0.2901
54007W        W97060  32.374  34.397  17.476 -0.1126  0.2961  0.1087
54008W        W97061  17.857  21.117  28.890  0.0270  0.0828 -0.1657
54009W        W97062  12.942  15.928  18.458  0.2986  0.1793  0.2007
54010W        W97063  32.199  29.537  27.979 -0.0902  0.0773  0.0382
54011W        W97064  32.485  30.169  26.020 -0.1162 -0.1682  0.4261
54012W        W97065  32.977  22.543  23.313  0.2099 -0.1935 -0.0697
54013W        W97066  19.918  14.863  24.574 -0.0222  0.1347 -0.1860
54014W        W97067  24.472   2.005  24.600 -0.0702 -0.1594 -0.0782
54015W        W97068  29.624  11.271   2.276  0.2679 -0.1102 -0.2616
54016W        W97069  29.302  12.779  25.832 -0.0516 -0.0250 -0.1147
54017W        W97070  24.500  18.842  18.108 -0.2487 -0.0721  0.3172
54018W        W97071   8.644  32.349   7.355  0.1946  0.1436 -0.3188
54019W        W97072   6.798  32.481  20.690 -0.0227  0.2537 -0.1556
54020W        W97073  11.518   1.596  17.789  0.1127 -0.1275  0.0422
54021W        W97074  32.243  23.698  14.596  0.0776 -0.0522  0.4105
54022W        W97075  16.317   4.320   0.810  0.0350 -0.1872  0.0977
54023W        W97076  21.151  22.453   8.553 -0.3377 -0.2124  0.0544
54024W        W97077   8.931   6.849  25.160 -0.0675  0.1009  0.0634
54025W        W97078   8.846   2.647  22.820 -0.0480  0.1400  0.1617
54026W        W97079  29.197  20.062  13.377 -0.3516  0.0561  0.3351
54027W        W97080  30.351   3.886  26.255 -0.2219  0.1375 -0.0508
54028W        W97081  10.881  33.322   6.217 -0.1496  0.2453  0.2121
54029W        W97082   1.128  20.414  23.881  0.0348  0.0650  0.3864
54030W        W97083  32.112  28.399  28.813  0.1736  0.1403  0.1656
54031W        W97084   9.948   7.485  17.735  0.4241 -0.0743  0.3482
54032W        W97085  17.200  28.642   4.581 -0.0313  0.1465 -0.1234
54033W        W97086  14.635  21.717  15.115  0.1581 -0.3770  0.1238
54034W        W97087  23.044  31.330   2.484  0.0661 -0.1202  0.0575
54035W        W97088   1.322   0.320   5.926  0.0734  0.0780  0.0294
54036W        W97089  27.084  20.870  17.271 -0.0111 -0.0029 -0.1599
54037W        W97090   2.244   1.919  21.304  0.0440  0.3193 -0.1302
54038W        W97091  26.580  16.087   8.009  0.1009 -0.0412  0.2953
54039W        W97092   1.222  24.435  26.411  0.1407  0.0478  0.0406
54040W        W97093  31.810   2.578   3.681 -0.2203  0.0925  0.3460
54041W        W97094  30.783  32.090   1.988  0.0914 -0.0852  0.0535
54042W        W97095  31.835   6.423  19.285  0.1017 -0.4007  0.1353
54043W        W97096  33.849  11.717  20.758 -0.1515 -0.1197 -0.0333
54044W        W97097   5.315   8.004  26.051 -0.2236  0.0323 -0.2673
54045W        W97098  20.969  19.412  20.170 -0.2506 -0.1568 -0.0514
54046W        W97099  26.348  30.730  20.264  0.1494  0.1890  0.0673
54047W        W97100   1.901  18.390  19.458 -0.3228  0.1138 -0.0073
54048W        W97101   8.334   3.693  14.652 -0.0159 -0.1731 -0.1455
54049W        W97102  32.435  10.284   1.867 -0.0968  0.0595 -0.1198
54050W        W97103  30.026  34.389  26.797  0.1872 -0.2624  0.2722
54051W        W97104   4.710  32.682   1.309  0.4572 -0.0629 -0.0042
54052W        W97105   6.161   3.578  19.190 -0.3464  0.1165  0.1060
54053W        W97106   4.312   9.827  21.513  0.0931 -0.1413 -0.2247
54054W        W97107   2.142  12.699  27.025  0.4442  0.0617  0.1430
54055W        W97108  12.541  30.584   6.067 -0.0200  0.1485 -0.0435
54056W        W97109   1.074   5.144   2.789 -0.2078 -0.0446 -0.1340
54057W        W97110  28.563  32.724   2.987 -0.2492 -0.0313  0.1515
54058W        W97111  25.366  24.508   6.362  0.2417  0.0400 -0.2125
54059W        W97112  26.972   4.943   9.048  0.3168 -0.3029 -0.0042
54060W        W97113  14.050  34.034  23.649  0.0368  0.0730 -0.2744
54061W        W97114  26.190  13.278  26.093 -0.2121  0.2822  0.0216
54062W        W97115   4.151   3.408  29.048  0.0571  0.1710 -0.1934
54063W        W97116  10.080  21.319  24.855 -0.3020 -0.1256  0.0434
54064W        W97117  29.356  13.233  21.395  0.2689 -0.1381 -0.0161
54065W        W97118  15.349  28.879  25.300  0.0281 -0.2333  0.0687
54066W        W97119   0.232  18.981  24.999 -0.1436  0.2786 -0.1086
54067W        W97120   9.979  23.106   5.689 -0.2935  0.1290  0.0495
54068W        W97121   0.660  14.385  20.279  0.0241  0.0159 -0.2933
54069W        W97122   2.225   2.928  25.830  0.1449  0.0704  0.0307
54070W        W97123  31.436   0.442   1.399 -0.0982  0.3870 -0.1068
54071W        W97124  26.692  26.638  22.147 -0.2154 -0.0964 -0.2329
54072W        W97125   4.487  26.020  17.171 -0.0040  0.2594 -0.0331
54073W        W97126   0.650  33.932  14.598 -0.3128 -0.3198 -0.3657
54074W        W97127  29.334  34.106  15.843  0.1944 -0.1201  0.0280
54075W        W97128  25.858  31.779  25.956 -0.1058 -0.0624 -0.0802
54076W        W97129   4.472  16.407   7.320 -0.1966 -0.0320  0.3528
54077W        W97130  32.026  34.260  24.808 -0.0098 -0.2078  0.2547
54078W        W97131  17.056  30.243  16.127  0.0619  0.1686  0.3070
54079W        W97132  12.836  32.412   2.433 -0.2816 -0.1632 -0.0268
54080W        W97133  17.267  18.405  26.071 -0.0130  0.1892 -0.0687
54081W        W97134  10.087   5.000  20.781 -0.0608  0.1423  0.0017
54082W        W97135   8.509  33.563  18.925 -0.3082 -0.2910  0.3626
54083W        W97136  33.777  19.975  23.718  0.0361 -0.0583  0.1927
54084W        W97137  27.205  30.176   5.402 -0.4881 -0.0680  0.2082
54085W        W97138  16.834   9.468   9.976 -0.2171 -0.0842  0.4234
54086W        W97139   5.807  24.890  21.084  0.1124  0.0403 -0.0858
54087W        W97140   4.174  27.033  14.048 -0.0067 -0.0476  0.1536
54088W        W97141  24.339  20.730  26.368  0.1557  0.2151  0.1058
54089W        W97142   1.689   1.936   4.161 -0.0360 -0.0680  0.1996
54090W        W97143  11.445  15.221  28.910  0.2958 -0.1570 -0.1895
54091W        W97144  34.621  33.812  16.320 -0.0119 -0.1723  0.1635
54092W        W97145   8.648   2.605  24.285 -0.2989  0.0328  0.1775
54093W        W97146  19.973   3.470  25.504 -0.1137 -0.0546  0.1132
54094W        W97147  14.471  16.355   1.934 -0.0457  0.1513  0.1354
54095W        W97148   1.749   5.169  21.671 -0.2226 -0.0495 -0.0070
54096W        W97149  32.164  11.759  18.538  0.0128  0.1622  0.0621
54097W        W97150  16.485   6.461  16.861  0.0319  0.0537  0.0657
54098W        W97151   8.917  10.019  22.519  0.0242 -0.0584 -0.2316
54099W        W97152  32.338  27.039   5.728 -0.1369 -0.3118  0.0660
54100W        W97153  28.778  22.775  22.050 -0.0135 -0.2936  0.1921
54101W        W97154  31.027   7.450  25.787  0.1859 -0.0387 -0.0182
54102W        W97155  27.259   7.545  22.668  0.2773  0.0662 -0.2937
54103W        W97156  27.679  32.858  27.896 -0.0969 -0.2071  0.0323
54104W        W97157  26.826  22.624  20.672  0.4851 -0.1363 -0.1663
54105W        W97158  14.612  33.467   8.670 -0.0370 -0.1498 -0.1265
54106W        W97159  34.063  26.649   5.532 -0.1233  0.1948  0.0456
54107W        W97160  28.134  22.220  15.803  0.1277 -0.1261 -0.0201
54108W        W97161  24.504  22.671  20.134 -0.0040  0.0232 -0.2648
54109W        W97162   1.699  28.823  17.506  0.4142 -0.1263  0.2137
54110W        W97163  10.340  33.699  14.292 -0.0133  0.1006 -0.0485
54111W        W97164  31.103  28.882  16.916 -0.2817 -0.3299  0.2571
54112W        W97165   7.491   9.165  16.657 -0.1833 -0.0565 -0.0278
54113W        W97166  28.168  28.392  14.606 -0.3433 -0.2837  0.2501
54114W        W97167   4.228  14.488   7.280 -0.0391 -0.1467 -0.2822
54115W        W97168   7.802  32.263   7.282  0.0311 -0.1688 -0.1296
54116W        W97169   8.684  31.071  16.760  0.2215  0.1932  0.0071
54117W        W97170   1.190   0.437  26.918 -0.1076  0.2246  0.0034
54118W        W97171  10.404  13.770  18.572 -0.0005 -0.0252  0.2137
54119W        W97172  18.451   5.567  26.242  0.1862  0.3207  0.0831
54120W        W97173   8.165   2.411  19.447 -0.1742  0.0386 -0.0226
54121W        W97174  19.723  33.264   4.242 -0.1906  0.0220 -0.0018
54122W        W97175   8.672  29.738  25.891 -0.2749  0.1581 -0.0876
54123W        W97176  10.404  23.688  25.155  0.1973 -0.0850 -0.2436
54124W        W97177  12.709   2.121  18.438 -0.0006  0.5078  0.0300
54125W        W97178  15.445  25.337  20.592  0.0600  0.0582  0.1699
54126W        W97179  28.728  28.071   9.283  0.0829  0.1099  0.1560
54127W        W97180  31.330  33.145  15.882  0.0916  0.0528  0.0383
54128W        W97181   6.309  10.136   9.315  0.2299  0.1031  0.2431
54129W        W97182  27.819   6.336   1.055 -0.4402  0.2125  0.0120
54130W        W97183   4.963  32.883  17.876 -0.2410 -0.0800 -0.4366
54131W        W97184  17.556  31.775  21.639  0.0740 -0.1619  0.0552
54132W        W97185  17.654  12.975   4.165 -0.0775  0.1245  0.1472
54133W        W97186  33.150  25.201  22.665  0.0178  0.0859  0.3157
54134W        W97187  10.620  16.048   4.676  0.2997  0.0322 -0.2126
54135W        W97188   4.764   3.837  29.060 -0.2365 -0.1740  0.1448
54136W        W97189   1.755  33.370   1.764 -0.0559 -0.0869  0.2885
54137W        W97190  32.197  31.388  23.572 -0.0681 -0.0809 -0.2100
54138W        W97191  30.737  16.722   4.449 -0.1550 -0.0051  0.2759
54139W        W97192   4.486  25.993   9.283  0.2050 -0.2313  0.1956
54140W        W97193  30.807  10.475  19.388  0.1564  0.1081  0.1112
54141W        W97194  32.903  30.749   1.627  0.2161  0.0992  0.2139
54142W        W97195   7.143  30.904  19.421  0.1505 -0.0122  0.1338
54143W        W97196   2.956  10.669  27.481  0.0532  0.0272 -0.2071
54144W        W97197   9.382  22.516  13.332  0.1015  0.2573  0.0483
54145W        W97198  25.348  15.162  15.131 -0.0291  0.2066  0.0051
54146W        W97199  30.894   1.840   0.971  0.1174 -0.0811  0.1811
54147W        W97200   2.497  18.153  24.092 -0.6415 -0.2483  0.0013
54148W        W97201  26.956  18.700  24.056 -0.1649  0.0901 -0.0026
54149W        W97202  31.963  11.357   7.442 -0.2590  0.2155  0.1731
54150W        W97203  28.843  34.148   1.320  0.1034 -0.1912 -0.1063
54151W        W97204  27.956  21.484  26.261 -0.2710 -0.1003  0.2603
54152W        W97205  33.190  28.456  24.216  0.3613  0.0092  0.0306
54153W        W97206  24.693  21.269  23.383  0.4830 -0.0499 -0.1300
54154W        W97207  34.104   1.222  17.104  0.0138 -0.1898  0.0378
54155W        W97208  34.429  17.389   0.314 -0.0075 -0.1910 -0.0072
54156W        W97209  29.701  15.765   0.598  0.1625  0.1682  0.2976
54157W        W97210  15.667   5.014  27.831 -0.0893 -0.1348  0.2610
54158W        W97211  33.106   2.460  27.481  0.0610 -0.1640  0.0199
54159W        W97212   2.962  29.052  25.812 -0.1742 -0.2247  0.0911
54160W        W97213   9.620  28.977   4.164  0.0414  0.0733 -0.1446
54161W        W97214  12.467  28.697  24.722 -0.1300 -0.0098  0.1301
54162W        W97215   4.351   0.425  25.750 -0.3157  0.0094 -0.1019
54163W        W97216  16.480  30.317  19.596 -0.1692 -0.2157 -0.0022
54164W        W97217  24.449  26.108  28.882  0.1826 -0.0134 -0.4001
54165W        W97218   1.804  33.092  14.682 -0.1545  0.0430  0.3994
54166W        W97219  18.614  23.986   2.247 -0.3121  0.3618  0.2626
54167W        W97220   3.996  26.190  26.381 -0.0232  0.0735  0.0021
54168W        W97221   7.686  11.342  10.028 -0.1239  0.4906  0.3472
54169W        W97222  25.605   8.543  18.587 -0.1166  0.1902 -0.2005
54170W        W97223  33.503   7.119  13.821 -0.1664  0.0321 -0.3753
54171W        W97224  21.107  32.444  23.999  0.2519 -0.1224  0.0837
54172W        W97225  26.166  29.036  23.131 -0.0036 -0.0236  0.2102
54173W        W97226   0.415  21.917  23.492 -0.4236  0.2716  0.0015
54174W        W97227  20.604  15.228  25.149 -0.2689  0.1085  0.0707
54175W        W97228  31.224  32.640  22.462 -0.0375 -0.2722  0.0225
54176W        W97229   4.684  11.102  16.303 -0.0130 -0.0218 -0.1055
54177W        W97230  15.844   4.721  16.641  0.0686  0.3210  0.1449
54178W        W97231  15.406  31.892  10.704 -0.0816  0.2390  0.0233
54179W        W97232  23.051  29.650  23.450 -0.1681 -0.2480  0.1063
54180W        W97233  33.772  30.208  27.688 -0.1676 -0.3203 -0.3788
54181W        W97234  33.650  30.662  28.896  0.1354  0.1748 -0.1005
54182W        W97235  15.527  24.946  22.311 -0.2644  0.1119  0.0061
54183W        W97236  13.014  32.688   9.177  0.3596 -0.0012 -0.0941
54184W        W97237   5.403  12.304   4.713 -0.1213 -0.1258  0.1964
54185W        W97238  27.802   3.709  27.432  0.2497 -0.4932 -0.1408
54186W        W97239  27.821  19.183   3.959  0.0631  0.1409 -0.4487
54187W        W97240  21.215  31.673   0.319  0.1768 -0.2165 -0.1042
54188W        W97241  20.825   9.724   1.030  0.2887  0.4237 -0.2498
54189W        W97242  29.378  18.478   0.411 -0.1817  0.0288  0.0788
54190W        W97243  34.427  21.751   1.507 -0.1649  0.3032 -0.2711
54191W        W97244   1.126  32.236  28.452  0.1189 -0.1488 -0.2391
54192W        W97245  27.904  26.070  26.985 -0.1650  0.0944  0.0275
54193W        W97246   1.768   1.712  23.812 -0.0984 -0.4362  0.3748
54194W        W97247   5.114  33.574  25.004 -0.2992 -0.1034 -0.1169
54195W        W97248   1.203  33.492   3.131 -0.0474  0.1167 -0.3710
54196W        W97249  32.168  30.768  23.180 -0.0151 -0.1245  0.0268
54197W        W97250  15.925   6.319  27.608  0.1763  0.3019 -0.1413
54198W        W97251   9.359  28.858  18.594  0.1073 -0.1542  0.4277
54199W        W97252  30.910  28.662  14.591  0.1061  0.1872  0.1355
54200W        W97253  17.446  28.096  19.666  0.2069  0.1574  0.1596
54201W        W97254  30.111  33.510   3.350 -0.1821 -0.2524  0.1246
54202W        W97255   1.957  11.191   1.134 -0.1526  0.1487 -0.3397
54203W        W97256  30.215  29.294  23.443  0.0551  0.1538 -0.1772
54204W        W97257   4.288  24.972   6.575  0.1041 -0.3936 -0.1148
54205W        W97258   4.818  31.668  16.826  0.0101 -0.1194  0.0395
54206W        W97259  33.276   3.217   1.519 -0.0812 -0.2439 -0.0237
54207W        W97260   2.615   7.495  23.973  0.1105 -0.2643  0.1835
54208W        W97261  19.744  28.033  15.306 -0.1775  0.2714 -0.0335
54209W        W97262  30.863  34.574  10.345  0.2262  0.0055 -0.2416
54210W        W97263  10.796  14.743   6.361  0.1733 -0.1865 -0.0418
54211W        W97264  25.064   3.684  23.480 -0.1766  0.4158  0.0204
54212W        W97265   1.579  25.774  18.479 -0.3283  0.0225  0.3202
54213W        W97266  20.817  34.221  16.410  0.1461  0.3127  0.0915
54214W        W97267   7.508  28.399   6.420  0.1481 -0.2076  0.2240
54215W        W97268  31.647   8.214   3.894 -0.1489 -0.1634  0.3046
54216W        W97269  33.331   2.122   8.875  0.1800 -0.0389 -0.2736
54217W        W97270  33.224   7.997  27.112 -0.0153  0.0576 -0.1797
54218W        W97271  32.109   8.901   9.563  0.1860 -0.1475 -0.2581
54219W        W97272  18.218  33.630  10.469 -0.0019  0.1000  0.0624
54220W        W97273  23.414   2.548  28.300  0.2054  0.1117  0.1542
54221W        W97274  30.836  14.546  17.277  0.2167 -0.0782 -0.2143
54222W        W97275   4.674  28.498  21.606  0.0560 -0.1488 -0.1357
54223W        W97276  25.861   6.780  18.514  0.3931 -0.2252 -0.3648
54224W        W97277   2.551   2.682  21.605  0.2404  0.0389  0.0025
54225W        W97278  26.305  34.007   0.871  0.0744  0.2303 -0.0129
54226W        W97279   6.968  15.331  16.976  0.2797 -0.1871  0.1373
54227W        W97280   0.561  23.217   1.725 -0.2076 -0.1487 -0.1326
54228W        W97281  32.190  21.266  20.449  0.1311  0.1062  0.1166
54229W        W97282  28.305   3.555  22.301  0.2302 -0.1596 -0.2214
54230W        W97283   0.818  10.204   4.364 -0.1565  0.0190 -0.2458
54231W        W97284   0.339  25.490   1.462  0.0686  0.0969 -0.3176
54232W        W97285  10.664   4.811  25.515 -0.1528  0.0755  0.2659
54233W        W97286  31.562  17.489  25.816  0.0689  0.0338 -0.3595
54234W        W97287  31.576   6.019  17.284 -0.1763  0.0067  0.0925
54235W        W97288   4.335  29.109  22.621 -0.2097 -0.0970 -0.0693
54236W        W97289  34.590   6.390  13.910 -0.3995 -0.0526  0.1428
54237W        W97290   5.988  32.986   1.240 -0.0409 -0.1231 -0.3784
54238W        W97291  23.237   6.750  10.099 -0.0321  0.0040  0.0076
54239W        W97292  25.926  30.684  15.728  0.1817 -0.0457 -0.2825
54240W        W97293  29.253  19.938  13.867 -0.1816 -0.3368 -0.0684
54241W        W97294  10.041   8.149   6.169  0.0468  0.1252 -0.2918
54242W        W97295  17.078  28.676  26.219 -0.0951 -0.0184  0.1655
54243W        W97296   9.221   6.949   3.978 -0.0563 -0.1770  0.0361
54244W        W97297  29.203   4.911  19.017  0.0627  0.1550 -0.0518
54245W        W97298   4.530   4.814   6.470 -0.1901  0.0945  0.2416
54246W        W97299   0.504  29.129   2.441 -0.4170 -0.1066 -0.2365
54247W        W97300  12.321   0.628   0.864 -0.1713 -0.2156 -0.0700
54248W        W97301  22.265   6.136   9.346  0.0114  0.0614  0.0338
54249W        W97302  26.582   1.466  21.765 -0.2267  0.1013  0.1011
54250W        W97303  24.971  30.190   9.810  0.0030 -0.0338  0.0412
54251W        W97304  27.583  16.256  28.437  0.2435  0.1522 -0.0321
54252W        W97305  25.787  27.695  19.786 -0.0400  0.4411 -0.2324
54253W        W97306  11.327  20.017  26.920 -0.2788 -0.4685  0.0480
54254W        W97307  30.005  17.180  23.090 -0.3394 -0.0225  0.0820
54255W        W97308   3.515  28.917  14.799 -0.0018  0.0792  0.1675
54256W        W97309  30.971  24.675   4.996 -0.4162  0.2666 -0.2621
54257W        W97310  30.114   5.195  29.090 -0.0631  0.1665 -0.3938
54258W        W97311   0.934   4.491   3.217  0.1968  0.3051  0.1800
54259W        W97312  23.938  21.863  16.795  0.0353 -0.0267 -0.0220
54260W        W97313   8.098  20.702  27.656  0.1466 -0.0086  0.3524
54261W        W97314  13.658  30.382  24.896  0.2639  0.3768  0.1523
54262W        W97315  16.976  29.793  15.730 -0.0035  0.0698 -0.0129
54263W        W97316  30.709  24.385   7.872  0.3034 -0.0380  0.4600
54264W        W97317  32.753  20.539   1.895 -0.2171  0.0361 -0.0155
54265W        W97318   6.286  11.131   5.855  0.0022  0.0060  0.1338
54266W        W97319  18.875   4.664  24.278  0.0846 -0.1706  0.1978
54267W        W97320  34.318  28.609  27.170  0.0997 -0.1454 -0.1079
54268W        W97321   6.496  28.999   0.111  0.2266  0.1564  0.1955
54269W        W97322  32.135  20.245  19.329 -0.0866  0.0453  0.2377
54270W        W97323   3.645  27.092  17.617 -0.2727 -0.0763 -0.1576
54271W        W97324   6.830  30.752   6.879 -0.0917  0.0642  0.0538
54272W        W97325  30.067   6.311   1.824 -0.0828  0.0035 -0.1710
54273W        W97326  28.062  22.599   6.974  0.0082 -0.0880  0.0333
54274W        W97327   4.139  16.346  15.753  0.1744 -0.0565  0.0889
54275W        W97328  32.682  34.188   5.874 -0.0336  0.1333  0.2335
54276W        W97329   6.179  33.620   8.854 -0.3013 -0.0939 -0.1735
54277W        W97330  12.261  27.879  22.038  0.1454 -0.0274 -0.2389
54278W        W97331   8.409   1.930   9.073 -0.0616  0.3584 -0.3470
54279W        W97332   7.852   8.443   2.872  0.1717  0.0863  0.0941
54280W        W97333   1.178   0.267  26.078 -0.1489  0.0915  0.2030
54281W        W97334  27.730   2.340  14.749  0.2177  0.0662  0.4873
54282W        W97335  26.865   1.435   5.083 -0.2407 -0.2982  0.2950
54283W        W97336  32.753  26.764   0.683 -0.0212 -0.0507 -0.2393
54284W        W97337  34.397   8.943  26.974 -0.0307  0.0954 -0.2486
54285W        W97338   1.519  25.940  24.056 -0.0889  0.3115 -0.1465
54286W        W97339  29.375   7.630  27.868  0.1323  0.1729 -0.2855
54287W        W97340  23.569  32.691  16.868  0.1439  0.0708 -0.3477
54288W        W97341  31.081  22.177  25.340  0.0583  0.3954  0.1442
54289W        W97342  34.380  19.750   4.894 -0.0598  0.0692 -0.1157
54290W        W97343  33.860  26.432   1.460 -0.0945  0.1791 -0.3264
54291W        W97344  16.567   6.757   8.878  0.0551  0.1497 -0.1126
54292W        W97345  32.474   7.772  10.184 -0.1929  0.3142 -0.0153
54293W        W97346   6.894  30.811  22.117 -0.1140  0.3142 -0.0404
54294W        W97347  32.646  23.959  18.157  0.1540  0.1544 -0.1156
54295W        W97348  12.792  33.671  24.084  0.4113  0.0397 -0.1559
54296W        W97349  34.639  25.419  13.763  0.0960 -0.3068  0.0229
54297W        W97350   5.056   5.099   4.759 -0.1559 -0.2825  0.1982
54298W        W97351  28.176   8.826   2.544  0.1777 -0.0667 -0.3649
54299W        W97352  32.100  17.568  21.344 -0.0110 -0.0885  0.0622
54300W        W97353  11.166  28.100   1.248 -0.0055  0.2738 -0.1363
54301W        W97354  25.352  33.626  14.832  0.1309 -0.3440 -0.0743
54302W        W97355  21.390   6.867  27.777 -0.0294  0.0258 -0.2308
54303W        W97356  34.031  29.716   4.886  0.1257 -0.0448  0.2160
54304W        W97357  18.099   3.918  24.786  0.0699  0.1917  0.0140
54305W        W97358   0.666   1.935  21.704  0.0137  0.4487 -0.2233
54306W        W97359   4.860  27.663  16.067  0.2737  0.0301 -0.1494
54307W        W97360   2.658  22.562  23.579 -0.1753 -0.0801  0.2151
54308W        W97361  24.975  17.378   8.860 -0.2884  0.0094  0.2060
54309W        W97362  26.467  23.238  23.125 -0.1638 -0.0997  0.0282
54310W        W97363  34.216  33.394  16.343 -0.0560 -0.1598 -0.0150
54311W        W97364   0.471  26.481  23.945 -0.0369  0.0851 -0.0046
54312W        W97365  26.262  32.651  24.061 -0.1476  0.1609  0.1720
54313W        W97366  14.970  32.626   5.089 -0.2794 -0.1550  0.0474
54314W        W97367  16.221  28.215  19.020 -0.1314 -0.1359 -0.0061
54315W        W97368  30.952  22.100  28.844  0.0341 -0.1065  0.0598
54316W        W97369  26.603  15.515  24.995  0.1400  0.1184 -0.4324
54317W        W97370  11.872  21.860   4.076  0.1138 -0.1271  0.1849
54318W        W97371   5.028   7.041   4.590  0.0134  0.1279 -0.1457
54319W        W97372   4.042  31.282  18.427  0.1136 -0.1724 -0.1067
54320W        W97373  17.078  20.760   3.563  0.2737 -0.2636  0.0926
54321W        W97374   0.186  34.331   1.491  0.0412 -0.1867 -0.0343
54322W        W97375  16.537  28.007   6.257 -0.1980 -0.2860  0.1652
54323W        W97376  26.290  19.015   7.932  0.1917  0.2757  0.2635
54324W        W97377   0.011  33.518   6.466  0.2717  0.2132 -0.1224
54325W        W97378  28.968  10.985  23.036  0.0324  0.0816  0.1140
54326W        W97379   1.204  31.710  18.110 -0.0866 -0.1271 -0.1107
54327W        W97380  27.803  28.687  26.097  0.1716 -0.2832  0.3561
54328W        W97381  24.768  22.933  16.422 -0.0650  0.0198 -0.2596
54329W        W97382  14.184  18.751   5.133 -0.0696  0.0332 -0.0381
54330W        W97383  26.382  31.729   4.795 -0.0918 -0.2650  0.0458
54331W        W97384   7.368   8.175  25.340  0.3185  0.0364  0.2211
54332W        W97385  33.619  29.347  26.616  0.1381  0.1586 -0.4157
54333W        W97386  33.620  29.430   7.991 -0.1679 -0.1415  0.0070
54334W        W97387   6.175   3.478  20.366  0.1972 -0.1549 -0.1427
54335W        W97388  30.530  28.763  26.774  0.3677 -0.0093 -0.1706
54336W        W97389   9.279  27.368  23.572 -0.4003 -0.1235 -0.3121
54337W        W97390   2.121  27.652   2.614  0.2544 -0.1709  0.0131
54338W        W97391  27.755   0.555  27.215  0.0566  0.0089  0.2002
54339W        W97392  16.981  27.907   6.556 -0.1442  0.1831  0.3500
54340W        W97393   2.915  32.208   4.920  0.1119 -0.1628 -0.0969
54341W        W97394  28.008   9.830   0.706 -0.1496 -0.0945 -0.1548
54342W        W97395  19.014  22.090   5.620 -0.0925  0.0841  0.0510
54343W        W97396  31.037   9.503  21.113 -0.1550 -0.1567 -0.0120
54344W        W97397   2.819  32.214  17.432  0.2755  0.1384  0.0415
54345W        W97398  34.507  18.124  22.228  0.2411  0.0442  0.0841
54346W        W97399  29.651  27.911  15.598 -0.0471  0.2235 -0.0007
54347W        W97400  28.435   3.951   7.124 -0.0638 -0.0008  0.0612
54348W        W97401  15.113  33.571  19.296  0.0409  0.2990 -0.1832
54349W        W97402  10.827  32.267   7.094 -0.1822  0.1017  0.1447
54350W        W97403  29.637  33.811   2.795  0.2805 -0.1668 -0.3390
54351W        W97404  31.415  16.491  21.282 -0.0540 -0.1945  0.1549
54352W        W97405  30.428  21.450  25.272  0.3654 -0.3103 -0.0030
54353W        W97406  31.753   8.321   4.463  0.1811 -0.2222  0.0588
54354W        W97407  31.342   3.006   2.729 -0.0372  0.1124 -0.2636
54355W        W97408  21.759  25.447   1.583 -0.0467 -0.2604  0.1696
54356W        W97409  31.217   0.241  18.375  0.0218 -0.3241  0.0293
54357W        W97410  14.501  21.136   8.378  0.0082  0.0475  0.1731
54358W        W97411  33.973   1.012   4.959  0.2547  0.1289  0.2058
54359W        W97412   5.235  14.400  22.934 -0.3803 -0.0516  0.0287
54360W        W97413  26.130   1.021   9.040  0.1511  0.0600  0.1945
54361W        W97414  28.672   1.594  24.579 -0.1322  0.1017 -0.1896
54362W        W97415  32.585   7.876  18.452 -0.0139  0.3486 -0.0766
54363W        W97416  14.124   2.873   4.124  0.0797  0.0765 -0.0169
54364W        W97417   2.925   7.535  22.919  0.0726  0.1654 -0.0554
54365W        W97418   4.846  28.048   2.756  0.1384 -0.1147  0.0235
54366W        W97419  22.204  31.298  26.588 -0.1645 -0.0311  0.0020
54367W        W97420  22.976  25.137  29.193 -0.0847  0.0312 -0.2444
54368W        W97421   9.778  11.735   1.110  0.0038  0.0262  0.0533
54369W        W97422   9.187   5.280   1.584 -0.1433 -0.1287 -0.1579
54370W        W97423   2.283  30.505  27.936 -0.2696 -0.1403  0.0897
54371W        W97424  23.965  30.026   3.200  0.0380 -0.2759  0.1335
54372W        W97425   5.636  29.425  23.001 -0.1610  0.4275 -0.4025
54373W        W97426  12.656  24.396   1.499 -0.1379 -0.4211  0.2600
54374W        W97427   0.153   0.598  17.346 -0.2885 -0.3384  0.0470
54375W        W97428  26.701  21.634   0.345 -0.0582  0.1475  0.0418
54376W        W97429   3.990  13.859   3.990 -0.2550  0.0473  0.1899
54377W        W97430  30.478  18.273  25.240 -0.2540  0.0025 -0.1019
54378W        W97431  11.301  33.665  19.777 -0.0539 -0.0811 -0.0877
54379W        W97432  31.734   7.347  10.181 -0.0375 -0.0485  0.2317
54380W        W97433   3.099  32.238  22.331 -0.0899  0.2025  0.2234
54381W        W97434   3.094  12.400  26.892  0.1430  0.0536 -0.1611
54382W        W97435  32.105  24.676  27.695 -0.0967 -0.0060  0.2992
54383W        W97436  10.592  15.293   7.473 -0.1829 -0.0407 -0.0397
54384W        W97437  25.523  30.373  28.225  0.4447 -0.0837  0.3676
54385W        W97438  34.193   1.636  22.723  0.2897 -0.0145  0.2438
54386W        W97439  10.561  18.458   9.246  0.0046 -0.3736  0.2107
54387W        W97440  31.708  10.515   4.913 -0.0539  0.0075  0.2543
54388W        W97441  32.832   3.096  28.753  0.2188  0.2003  0.0655
54389W        W97442  18.682  34.063  22.005  0.1462 -0.2185  0.0400
54390W        W97443  27.511  31.744   7.241  0.1722 -0.0864 -0.2012
54391W        W97444  28.359  23.508   8.970  0.0818  0.3110 -0.2487
54392W        W97445   6.989  17.987   2.049 -0.2794 -0.2368 -0.0541
54393W        W97446  18.842  31.871   5.826 -0.1826  0.4208  0.4680
54394W        W97447  30.206  27.172  15.802  0.2221  0.0580 -0.0848
54395W        W97448  11.126  34.666  15.919 -0.1429  0.0730 -0.0409
54396W        W97449  26.584   7.077  15.113  0.1908  0.1694 -0.3184
54397W        W97450   0.356   6.953  28.940  0.1222 -0.1228  0.0029
54398W        W97451  12.471  27.406  22.261  0.0868  0.0797  0.2091
54399W        W97452  11.322  30.000   2.916  0.1771  0.2403  0.0278
54400W        W97453  34.136   9.247  24.304 -0.3628  0.0405 -0.1650
54401W        W97454  24.914   2.066  14.979  0.2917 -0.3734 -0.0289
54402W        W97455   4.146  32.986  14.532  0.0625  0.0984 -0.0233
54403W        W97456  16.384  29.790  21.865  0.3673  0.0413  0.0781
54404W        W97457  15.368  34.651  25.097  0.0156  0.1452 -0.0855
54405W        W97458   7.769  18.145  25.717 -0.0326  0.1384 -0.2315
54406W        W97459  25.020  19.707   3.024  0.2083  0.1780  0.1367
54407W        W97460  25.924  33.585  15.284  0.1468  0.0240  0.0587
54408W        W97461  11.871   1.826   1.230  0.2957 -0.0989  0.3056
54409W        W97462  34.629  21.100  21.183 -0.1545  0.2727 -0.2937
54410W        W97463  24.541  18.425  25.386 -0.1436 -0.1872  0.0502
54411W        W97464  15.907  31.905   0.367 -0.2102  0.2987 -0.0872
54412W        W97465   4.770   3.964   4.263 -0.0616 -0.1645 -0.1342
54413W        W97466   6.863  31.565  23.349  0.0385 -0.0942 -0.0283
54414W        W97467   1.316   3.877   0.703 -0.2188 -0.0040  0.1251
54415W        W97468  29.278  17.436  14.442  0.1081 -0.1270 -0.0973
54416W        W97469  33.912   1.114  21.266  0.0835  0.0497  0.3625
54417W        W97470  29.415  28.613  20.191 -0.1979 -0.1579  0.1711
54418W        W97471   1.626  28.613  18.789 -0.3356  0.2798 -0.2178
54419W        W97472  20.233  12.115  24.819  0.2598 -0.2893 -0.3802
54420W        W97473  21.855  31.037  20.487  0.0251 -0.1715  0.0930
54421W        W97474   8.107  21.280  26.148  0.3530 -0.0997 -0.3302
54422W        W97475   8.218   8.625  15.423  0.3749  0.0126  0.0133
54423W        W97476  15.918  28.471   4.909  0.0320 -0.0277  0.2018
54424W        W97477  32.571  27.873  18.366 -0.2303  0.0466  0.3189
54425W        W97478  27.653  27.670  21.409 -0.2282  0.2474  0.2004
54426W        W97479  16.230  12.873  22.605  0.1272  0.0611 -0.1805
54427W        W97480   9.997   9.801  19.340 -0.2885 -0.2957 -0.0283
54428W        W97481  31.676   1.331  14.773  0.0860 -0.0465  0.0533
54429W        W97482   3.842  30.554  17.930 -0.1098  0.1034 -0.0917
54430W        W97483  18.947   1.766  24.112  0.2521 -0.1393  0.2251
54431W        W97484  24.742   4.843  24.305 -0.1304  0.1508  0.0154
54432W        W97485   3.238  18.834  13.768 -0.0893  0.0751 -0.3605
54433W        W97486  33.457   8.474  17.568 -0.1970 -0.2112 -0.1108
54434W        W97487  30.647   2.878  20.278  0.0180  0.0713 -0.0416
54435W        W97488  28.932   9.644  22.470 -0.0096 -0.1554 -0.0269
54436W        W97489  21.017   3.238  16.765 -0.0447 -0.1821 -0.0824
54437W        W97490  10.071   6.186  23.348 -0.2210  0.5211  0.1059
54438W        W97491   4.796   0.309  20.159 -0.2404  0.1402 -0.1299
54439W        W97492  33.444  17.136  15.402  0.2011  0.0520  0.1641
54440W        W97493   0.259   3.328  19.830 -0.2539 -0.0981  0.1028
54441W        W97494  19.999  16.119  13.809 -0.0346  0.0124  0.1259
54442W        W97495   4.613  30.643  19.130  0.0252 -0.2565 -0.0840
54443W        W97496  29.334  30.688   1.290 -0.0856  0.1218 -0.0708
54444W        W97497   0.998  30.752  19.454 -0.2968 -0.1297 -0.0382
54445W        W97498  24.383  21.116  14.747  0.2813 -0.0861 -0.2431
54446W        W97499   0.459  20.452  14.411 -0.0725 -0.3063 -0.3134
54447W        W97500  17.953  32.293  16.343  0.2053  0.1900  0.4338
54448W        W97501   8.254  14.536  25.111  0.2426 -0.0043  0.1739
54449W        W97502  25.493  22.875  17.887  0.0348  0.2067  0.3945
54450W        W97503   1.273  34.197  15.268  0.1557 -0.2053  0.0061
54451W        W97504   0.140  23.125  25.756 -0.2779  0.2191 -0.1195
54452W        W97505  27.931  31.194   1.545  0.0403  0.0376 -0.3865
54453W        W97506   5.437  29.761  15.965 -0.0972  0.1158  0.0847
54454W        W97507   6.113  30.470  25.571 -0.4447 -0.0784 -0.2287
54455W        W97508  32.423  27.057  16.480  0.3949  0.3026 -0.2660
54456W        W97509  11.500  32.338  17.155  0.0519 -0.1111  0.2481
54457W        W97510  31.913  27.468  14.753  0.3650 -0.1013 -0.1431
54458W        W97511  31.089  15.062  18.689 -0.1905 -0.0245 -0.1413
54459W        W97512  12.034  32.566  19.978 -0.0792  0.0541 -0.2073
54460W        W97513  34.663  26.434  28.064 -0.2156 -0.0480 -0.1285
54461W        W97514   8.807  10.879  27.579  0.0656  0.1004 -0.1376
54462W        W97515   9.684  33.586  16.478 -0.1555  0.2835 -0.0544
54463W        W97516   7.273  20.922  15.681 -0.3913 -0.2787 -0.0559
54464W        W97517   0.651   5.953  21.250 -0.0139 -0.1147 -0.0127
54465W        W97518   5.592  32.593  13.704  0.0825 -0.0463 -0.1494
54466W        W97519  29.036   5.464  22.024 -0.0568 -0.0811  0.1399
54467W        W97520  18.947   3.182  17.896  0.0022  0.3099  0.3659
54468W        W97521  33.203  23.718  25.165 -0.1133  0.2834 -0.2422
54469W        W97522  10.242  23.296  16.047 -0.1523 -0.0176 -0.0682
54470W        W97523  26.550  10.703  21.650  0.1654  0.0809 -0.3880
54471W        W97524   4.069  33.307   8.432 -0.0989  0.2838  0.0350
54472W        W97525  24.644  10.905  28.908  0.1622  0.2968 -0.0149
54473W        W97526  28.982   2.553  17.791  0.1575 -0.2783  0.2342
54474W        W97527  12.714  14.015  17.236 -0.1251 -0.0070 -0.3657
54475W        W97528   2.212  21.962  22.755  0.0907 -0.2715 -0.0623
54476W        W97529  16.088  20.523   2.413 -0.2466 -0.3101 -0.0060
54477W        W97530   3.170  14.127  21.349  0.1590  0.3908 -0.0425
54478W        W97531   1.974   1.876  16.204  0.2615 -0.1942  0.1374
54479W        W97532   4.026   1.627  14.638  0.0025  0.0272  0.2260
54480W        W97533  26.669  11.744  27.183 -0.2381 -0.1369 -0.3555
54481W        W97534  32.936   5.250   4.527 -0.2325 -0.2007  0.3372
54482W        W97535  32.403  31.229  19.196  0.1411 -0.2095  0.1779
54483W        W97536   1.895  26.745   0.710  0.0082 -0.1239 -0.2655
54484W        W97537  14.345  31.958   5.377  0.0626 -0.1995 -0.1464
54485W        W97538  34.575  20.398  27.329  0.0910  0.1328  0.0916
54486W        W97539  27.553  10.468  14.948  0.4389  0.0951 -0.1596
54487W        W97540  24.115   2.622  16.473 -0.1354  0.0834  0.1555
54488W        W97541   3.625  21.807  21.058  0.1532  0.0615 -0.1903
54489W        W97542  28.065  26.369  16.211  0.0045 -0.0354 -0.3353
54490W        W97543  10.024  30.654  23.006  0.0562 -0.0977 -0.0957
54491W        W97544  22.817  23.564  18.425 -0.1957 -0.2218  0.0503
54492W        W97545   8.194   8.730  16.024  0.1645 -0.0597  0.2913
54493W        W97546  15.879  22.531  16.287 -0.1138  0.0867  0.0027
54494W        W97547  33.040  13.993  15.694  0.0946 -0.0604 -0.0125
54495W        W97548  22.994   0.039  18.900 -0.2014 -0.1666  0.2159
54496W        W97549   9.928   0.881  23.124  0.4827  0.2417  0.5917
54497W        W97550  23.316  31.727  22.607 -0.0726 -0.0675 -0.3360
54498W        W97551  29.518   5.127  25.129 -0.0887  0.0903  0.0796
54499W        W97552   2.173  24.019  21.171 -0.4670 -0.1556  0.0860
54500W        W97553   8.766   7.161  22.160  0.1972  0.1961 -0.2649
54501W        W97554  32.204  16.743  16.576  0.1308  0.3204 -0.0938
54502W        W97555  18.608  27.080  26.898 -0.2369 -0.0339  0.0524
54503W        W97556   4.622  12.207   2.696 -0.1665  0.2537  0.0298
54504W        W97557   2.895  25.316  15.562  0.0563  0.0707  0.2715
54505W        W97558  13.401   8.469  23.101 -0.1425  0.1948 -0.0632
54506W        W97559  31.533   8.998  20.476  0.3701  0.1649  0.2219
54507W        W97560  31.050  29.081  19.545 -0.1880 -0.1057  0.1360
54508W        W97561   6.858  13.397  17.264 -0.2943  0.4289 -0.2720
54509W        W97562  32.793   7.160  19.737 -0.0123  0.3787  0.1448
54510W        W97563   9.492  18.878  21.804  0.2680 -0.1793  0.1355
54511W        W97564  29.862  27.631  24.595  0.3531 -0.0062 -0.0671
54512W        W97565  25.187  15.225  17.043  0.0495  0.0071 -0.0396
54513W        W97566   0.661  33.667  29.074  0.1868 -0.2360  0.0170
54514W        W97567  10.127  32.564  15.887  0.1828  0.0866  0.4858
54515W        W97568  10.692  32.358  16.069 -0.0998 -0.4283  0.1644
54516W        W97569  28.057   5.690  15.375  0.2458 -0.0282  0.2566
54517W        W97570  26.074  11.164  25.530  0.1990  0.0526  0.0280
54518W        W97571  15.832  31.887  27.516  0.2343 -0.1782 -0.0956
54519W        W97572  31.051  31.049  25.819  0.1949 -0.3404 -0.0946
54520W        W97573   3.578   1.729  18.388  0.1772  0.1153  0.2582
54521W        W97574  20.718  16.893  24.424 -0.0051  0.2382 -0.0397
54522W        W97575  16.671  29.912  26.258 -0.0768 -0.1266 -0.2438
54523W        W97576  20.219  22.347  20.702  0.1158  0.2374  0.3178
54524W        W97577   4.737   0.194  17.922 -0.2167  0.0998  0.1982
54525W        W97578  27.789  31.525   1.138 -0.0845 -0.3539 -0.0018
54526W        W97579  32.050   2.334  20.790 -0.3331  0.0586 -0.2283
54527W        W97580  21.833   0.568  16.731  0.0563 -0.0648 -0.1296
54528W        W97581  15.006  10.226  16.317 -0.2682 -0.0658 -0.1661
54529W        W97582  32.224  27.000  24.682 -0.1289  0.3409 -0.2298
54530W        W97583  17.161  28.026  15.587  0.0809  0.0775  0.0630
54531W        W97584  28.378  28.905  16.686 -0.0985 -0.2831  0.2563
54532W        W97585  27.759  31.879  14.604  0.1523 -0.1822 -0.2486
54533W        W97586  34.084  13.855  21.061  0.3182  0.0686  0.1344
54534W        W97587  16.205   1.814  14.981 -0.0495  0.3808 -0.0319
54535W        W97588  31.121  32.263  28.880 -0.1139  0.0303 -0.1283
54536W        W97589  10.928   7.022   2.977 -0.3230 -0.1000 -0.1135
54537W        W97590   3.376  28.116  24.054  0.3692 -0.0433  0.1990
54538W        W97591   1.485   9.353  20.078  0.1558  0.0136  0.0074
54539W        W97592  30.501   9.700  24.459 -0.2168  0.0244 -0.1789
54540W        W97593  27.553  25.279  18.305  0.1687 -0.1175  0.0208
54541W        W97594  20.580   9.976   0.634  0.0027  0.3773  0.1774
54542W        W97595   1.784  10.870  20.995  0.1697 -0.1998 -0.1229
54543W        W97596  24.020   3.297  25.053  0.3598 -0.4280 -0.4942
54544W        W97597  11.453  22.325   9.374  0.2121  0.1334 -0.0565
54545W        W97598  33.448  23.083  21.563 -0.1962  0.2258  0.1332
54546W        W97599  28.526  17.284  23.871  0.1884  0.1870  0.0348
54547W        W97600   3.205  32.605  23.075 -0.2784 -0.1189  0.2020
54548W        W97601   8.661  28.963  15.536  0.0488 -0.0859 -0.1035
54549W        W97602  31.205   5.656  28.636 -0.1476 -0.0990 -0.2241
54550W        W97603   5.678  17.962  22.558  0.1630 -0.3069 -0.2615
54551W        W97604   0.382  33.277  15.828 -0.2072 -0.2272 -0.2515
54552W        W97605  22.145  30.949  19.790 -0.3216  0.0390 -0.2039
54553W        W97606  30.426   0.794  15.000 -0.3893 -0.0298 -0.2311
54554W        W97607  18.473   0.086  19.322 -0.0272  0.2285 -0.3480
54555W        W97608  28.220  33.315  15.202 -0.1215 -0.0139  0.0575
54556W        W97609  30.947  25.781  26.298  0.1900 -0.0380 -0.4754
54557W        W97610  10.366  31.335  19.773 -0.2079  0.2869  0.0690
54558W        W97611   4.902  28.003  21.709  0.0213 -0.0171  0.1723
54559W        W97612  24.408   1.210  15.846  0.0240 -0.3274 -0.0710
54560W        W97613  13.012   4.599  17.241  0.1036 -0.1211  0.1903
54561W        W97614   0.506   5.122  25.273 -0.3223 -0.1058  0.0157
54562W        W97615  31.354   4.649  19.006 -0.1464 -0.2398 -0.0167
54563W        W97616   7.372  12.198  27.448 -0.0332 -0.0025  0.1381
54564W        W97617  11.374   5.093  16.802 -0.1128  0.2272 -0.0068
54565W        W97618  24.099  20.074  29.006 -0.1282 -0.0913 -0.1303
54566W        W97619   3.080   0.296  18.226  0.0237 -0.1088  0.2501
54567W        W97620  27.830   0.773  19.157  0.1237 -0.5433 -0.1273
54568W        W97621   8.509  25.534  23.814  0.1837  0.1642  0.0323
54569W        W97622   9.358  31.786  14.396 -0.3473 -0.1845  0.0965
54570W        W97623   4.696   3.097  27.779 -0.0183  0.4089  0.0230
54571W        W97624  21.854   8.206  19.260  0.2130  0.0276 -0.1382
54572W        W97625  31.649   5.830  17.724  0.1904 -0.1678  0.0442
54573W        W97626   2.563   3.536  20.729  0.2099  0.0905 -0.0556
54574W        W97627  27.130  33.854   0.646 -0.0121 -0.2230  0.0870
54575W        W97628   3.583   7.102  26.447  0.2130  0.3154 -0.3610
54576W        W97629   0.643   5.249  28.721  0.0968  0.0253  0.1227
54577W        W97630   5.707  28.518  20.572  0.2562 -0.2541 -0.1881
54578W        W97631   5.897   1.478  26.173  0.0222  0.0774 -0.1671
54579W        W97632  28.807   0.828  21.896  0.4546  0.0128 -0.1054
54580W        W97633   5.452   5.914  25.330  0.2796  0.0436  0.0570
54581W        W97634   8.817   1.072  22.039 -0.0076 -0.0170  0.0575
54582W        W97635  24.270   1.173  10.866  0.2297  0.0447  0.2040
54583W        W97636  30.623  20.962  25.290 -0.0997 -0.3812 -0.1366
54584W        W97637  32.255  12.916  19.489 -0.0413  0.0103  0.2107
54585W        W97638  32.781   1.836  16.504  0.0233  0.0321 -0.1631
54586W        W97639  26.401  30.701   6.350 -0.1552  0.2598  0.1503
54587W        W97640  19.496   9.561  19.149 -0.1113 -0.1651  0.1869
54588W        W97641  31.814  32.474  25.113  0.1368 -0.3006 -0.0374
54589W        W97642  22.292   2.067  24.079  0.2533 -0.0388  0.3543
54590W        W97643  33.462   5.918   7.988  0.2779  0.0878 -0.0076
54591W        W97644  22.502  30.938  27.536  0.0185 -0.0149 -0.1562
54592W        W97645  29.017  28.112  26.197  0.0676 -0.0833  0.2712
54593W        W97646  17.001  27.206  14.271 -0.1675  0.1335 -0.0098
54594W        W97647  12.893  25.285  18.996 -0.0280 -0.0309  0.0416
54595W        W97648   4.663  25.521  17.044 -0.1309 -0.1316  0.3844
54596W        W97649   8.717  32.519  14.715  0.0646 -0.2027 -0.1148
54597W        W97650   5.039  25.216  24.142 -0.0998  0.1430 -0.0203
54598W        W97651   4.450  26.602  15.053  0.1666 -0.0678 -0.1415
54599W        W97652  32.250   2.841  20.803 -0.3257  0.0372  0.2875
54600W        W97653   6.982  34.624  25.632 -0.1580 -0.0712  0.0976
54601W        W97654   3.971  25.844  19.672  0.1206  0.1147 -0.0274
54602W        W97655  20.369   4.064  17.762  0.0476  0.2284 -0.1161
54603W        W97656  28.834   2.380  27.553 -0.3217  0.0629  0.1161
54604W        W97657   7.862  16.462  23.195  0.0355 -0.1577 -0.0450
54605W        W97658   8.009  30.948  26.692 -0.0608  0.0414 -0.6486
54606W        W97659   0.617  31.320  18.384 -0.0010  0.0714 -0.0199
54607W        W97660  26.738  12.908  16.602 -0.1812 -0.0917  0.2694
54608W        W97661  31.897  33.419  20.646 -0.1222 -0.0172 -0.4242
54609W        W97662   9.436   4.353  23.329 -0.0544  0.0841 -0.1004
54610W        W97663  33.816   8.714  28.529  0.2006 -0.5566  0.2146
54611W        W97664  16.672   1.284  17.240 -0.2752  0.0232  0.0692
54612W        W97665  14.896   0.139  25.849  0.1148 -0.0145  0.0573
54613W        W97666  26.788  10.196  23.190  0.0675 -0.0262 -0.0538
54614W        W97667   3.241  33.557  17.282  0.1138  0.0916  0.1637
54615W        W97668  13.954   0.977  14.942  0.0913 -0.1238  0.0576
54616W        W97669  15.987   6.675   2.194  0.3527  0.1169  0.1639
54617W        W97670  26.334  29.231  17.284 -0.1405  0.1755 -0.1765
54618W        W97671  31.828  29.430  15.187  0.2754  0.2608 -0.0407
54619W        W97672  32.747  19.841  13.848 -0.3133 -0.1471  0.0341
54620W        W97673  33.129   8.294   3.478 -0.0987  0.1343 -0.0065
54621W        W97674  10.246   3.948  14.039  0.3763 -0.4559  0.0061
54622W        W97675  31.897   9.066  26.610 -0.2290  0.3528  0.0361
54623W        W97676  19.267   3.064  26.535 -0.5105 -0.5172  0.3754
54624W        W97677   0.057  28.086  22.482 -0.3585 -0.2095  0.1218
54625W        W97678   8.410  11.389  20.193  0.0813 -0.2844  0.1409
54626W        W97679   8.182  25.657  26.164 -0.1136  0.1626  0.0432
54627W        W97680   2.876   8.352   0.364  0.0518  0.1902  0.1080
54628W        W97681   2.905  29.797  26.941 -0.0018 -0.2394 -0.0974
54629W        W97682  28.944  23.932  23.435 -0.0108  0.2801 -0.0989
54630W        W97683   0.976  25.897  19.423  0.0045  0.0652 -0.1056
54631W        W97684  10.111  14.172  24.941  0.0685  0.0884 -0.2642
54632W        W97685   5.730  13.246  16.426  0.2996 -0.3115 -0.1348
54633W        W97686  28.514  17.529  16.437  0.0969  0.1226  0.1009
54634W        W97687   9.028   4.735  24.275 -0.2085  0.2537  0.0157
54635W        W97688  11.926  32.204  22.389 -0.2366  0.1084  0.2314
54636W        W97689  13.519  32.359  29.134 -0.3317 -0.2775 -0.1458
54637W        W97690  31.404   5.878  21.025 -0.1826  0.4032  0.2591
54638W        W97691  14.229   3.655  20.301  0.2278  0.1068  0.0383
54639W        W97692  18.900   1.522  25.658 -0.1047 -0.0567  0.1750
54640W        W97693  25.250  23.211  28.110  0.0470  0.1762  0.1881
54641W        W97694  18.835   1.342  23.504 -0.3767 -0.1002  0.0526
54642W        W97695   7.712   6.835  10.727 -0.4128 -0.1771  0.1285
54643W        W97696  24.709  30.994  16.440  0.3014 -0.0463 -0.3765
54644W        W97697  11.831  29.146   5.019  0.2641  0.1558 -0.3777
54645W        W97698   1.258  28.774  27.898  0.1182  0.0769 -0.0477
54646W        W97699   5.946  30.871  17.474  0.0699 -0.0759  0.1979
54647W        W97700   6.224  33.353  19.684  0.0737 -0.2123  0.4071
54648W        W97701  33.147  33.187  17.265 -0.1626  0.1502 -0.0896
54649W        W97702   0.372   6.671  22.730 -0.0815 -0.5168 -0.2935
54650W        W97703  13.023   3.746  26.658 -0.1608  0.1015  0.1744
54651W        W97704  28.749   9.747  21.898 -0.0032  0.1903  0.2576
54652W        W97705  27.232  32.090  16.677  0.3154 -0.0030 -0.0665
54653W        W97706  20.707  23.449  18.481 -0.3193  0.1134 -0.2786
54654W        W97707  28.511   9.072  15.852  0.2922  0.0128 -0.2061
54655W        W97708   9.550  24.399  25.632  0.1517  0.4663 -0.0355
54656W        W97709  26.793  30.432  18.595  0.0355 -0.0860  0.4605
54657W        W97710   7.362   1.975   3.932 -0.0891  0.1982 -0.0621
54658W        W97711  28.960  23.599   1.469 -0.0676 -0.0934 -0.1556
54659W        W97712  29.114  12.442   2.067  0.0385 -0.1305  0.0198
54660W        W97713   5.364  29.131  23.411 -0.0761 -0.4747 -0.0011
54661W        W97714  27.721   8.998   2.406  0.0990  0.2891 -0.4013
54662W        W97715  22.686  33.531  14.751 -0.1121  0.2766  0.2171
54663W        W97716  25.607   8.634   7.604 -0.0936 -0.0840  0.0704
54664W        W97717  33.433  24.397  18.679 -0.2297 -0.0632 -0.1977
54665W        W97718   6.705  20.757  20.979  0.0618 -0.1622 -0.4141
54666W        W97719   4.304  23.593  18.733 -0.2157  0.0847  0.2006
54667W        W97720   1.649  31.107  17.417  0.0107 -0.0705  0.2472
54668W        W97721  33.426  26.363  15.986 -0.1426 -0.3945 -0.0655
54669W        W97722   6.280  11.591  18.837 -0.1818 -0.1766 -0.1122
54670W        W97723   7.278  29.358  27.489  0.1935  0.0516  0.0340
54671W        W97724  14.065  28.638  17.394 -0.3631  0.1421 -0.2071
54672W        W97725  34.347  22.010  20.808  0.4468  0.2270  0.0156
54673W        W97726  34.174   2.390  19.841 -0.2319  0.1335  0.4067
54674W        W97727  28.544  28.177  24.619 -0.3582  0.0051  0.2400
54675W        W97728  27.897  32.443  21.513  0.0430  0.1631  0.1725
54676W        W97729   2.164  33.484  14.531  0.1387 -0.0746  0.0142
54677W        W97730   6.282  12.735  20.288 -0.0066  0.4542  0.1661
54678W        W97731  29.015  13.236   1.076 -0.3412  0.2451  0.0347
54679W        W97732  26.022  21.349  17.710 -0.2382 -0.1798 -0.0674
54680W        W97733   2.622  11.548  29.148 -0.1655  0.0006 -0.2540
54681W        W97734  26.905  24.502  15.413  0.0933 -0.1492  0.4262
54682W        W97735  28.582   2.982  24.412 -0.0874  0.0868 -0.1351
54683W        W97736   6.414  27.988   6.202 -0.3207  0.0570 -0.1328
54684W        W97737  15.256  34.330   4.297 -0.0052 -0.1354 -0.1788
54685W        W97738  29.155  16.907  18.842  0.1239 -0.1694  0.1163
54686W        W97739  27.978  27.180   5.155  0.3992 -0.1014  0.2179
54687W        W97740   3.002  26.095  27.497  0.0385 -0.2071 -0.0815
54688W        W97741   5.985  27.820   6.061  0.1391 -0.2906 -0.0438
54689W        W97742   2.992  34.153  27.179  0.2588 -0.1151 -0.1789
54690W        W97743  10.752   9.943  15.967  0.3177  0.1488  0.0805
54691W        W97744   6.024  10.265  26.152 -0.2306 -0.0973  0.2585
54692W        W97745   0.702   1.880  17.887  0.0634 -0.3446 -0.0149
54693W        W97746  13.998  20.630  29.182 -0.3156  0.2368 -0.2204
54694W        W97747  28.604  20.443  19.688  0.2321  0.0816 -0.2637
54695W        W97748   5.908   1.726   3.986 -0.2907  0.0890  0.1178
54696W        W97749   9.258  25.328  14.341 -0.0534  0.1437  0.3864
54697W        W97750  19.197  32.115   1.477 -0.5065  0.0035  0.2119
54698W        W97751  16.721  33.946  22.547  0.0943  0.3708 -0.0599
54699W        W97752   5.131  25.355   9.338 -0.1396  0.1751 -0.0951
54700W        W97753   9.649  15.565  23.166 -0.2062 -0.2221  0.1439
54701W        W97754  30.456   5.629  14.553 -0.0262  0.2865 -0.1131
54702W        W97755  32.032  26.233  14.696  0.3059 -0.2250 -0.2220
54703W        W97756  18.928   5.918  15.480 -0.1733 -0.2481  0.0557
54704W        W97757  27.137  10.824   2.963  0.2104  0.1333 -0.0399
54705W        W97758   7.274  20.304  24.803 -0.1420  0.1013  0.3260
54706W        W97759  10.740  33.609  23.414  0.0113  0.0557  0.0212
54707W        W97760   3.117  15.777  22.022  0.1336  0.1448  0.1509
54708W        W97761   4.419   6.295  22.404  0.0872 -0.2647  0.1353
54709W        W97762  16.892   6.538  10.482  0.0701 -0.2397 -0.3866
54710W        W97763   6.547  26.919  25.098 -0.3180  0.2731  0.3596
54711W        W97764  28.425   6.756  18.292  0.1280 -0.1276 -0.0254
54712W        W97765   2.487  22.996  15.236 -0.2687 -0.3022  0.3678
54713W        W97766   3.711  11.007   5.470  0.2508  0.5894 -0.0213
54714W        W97767  29.991  27.602  17.852 -0.0903  0.1386 -0.0886
54715W        W97768  34.364   0.060  21.770 -0.2228 -0.0200 -0.0910
54716W        W97769   3.087  16.365   1.536 -0.1838  0.3148  0.0518
54717W        W97770   3.559  34.211  24.448  0.4038  0.0365  0.0655
54718W        W97771  12.298   9.772  24.564  0.0332  0.1841 -0.1467
54719W        W97772   4.572  31.031  24.824  0.2165  0.0994 -0.4217
54720W        W97773   4.071  31.483  14.381 -0.0426  0.4759  0.0749
54721W        W97774   0.795   0.853  18.469 -0.1466 -0.3486  0.0843
54722W        W97775  23.768   4.164  17.705  0.1303 -0.3153  0.2503
54723W        W97776  34.384  19.196  19.126 -0.0319  0.0679 -0.0298
54724W        W97777   9.349   5.457  27.854 -0.1407 -0.0056  0.1404
54725W        W97778  13.693  21.056  21.591  0.0703  0.0170 -0.1084
54726W        W97779  10.166   1.574  16.599 -0.5009  0.0830  0.0231
54727W        W97780  21.263  30.492  19.040 -0.3470 -0.0313 -0.1052
54728W        W97781   5.042   3.754  15.703 -0.0340  0.0929  0.2928
54729W        W97782   4.582  13.130  17.122  0.3700 -0.1098  0.2969
54730W        W97783  24.453   9.581  24.131 -0.4269 -0.1890 -0.0806
54731W        W97784   2.779  20.606  26.479 -0.0899  0.4968 -0.1245
54732W        W97785  27.726  15.326   1.093  0.2784  0.2586 -0.0351
54733W        W97786  10.400   5.960  23.719  0.0757 -0.4924 -0.2294
54734W        W97787   3.756  28.472  23.954 -0.0085 -0.0581  0.0793
54735W        W97788   1.453   8.572  15.697 -0.0864 -0.1267  0.0102
54736W        W97789   3.783  23.999  20.299 -0.1011  0.0304 -0.0153
54737W        W97790  28.079   2.009  16.144  0.0321 -0.0681  0.2853
54738W        W97791  29.754   2.538  26.701  0.1920  0.0185  0.0837
54739W        W97792   4.901  10.472  18.292 -0.0836  0.0174  0.1072
54740W        W97793   3.422   2.734  20.436  0.2681  0.1750  0.0916
54741W        W97794  18.455   0.505  21.946  0.1405 -0.0493 -0.0720
54742W        W97795   7.901  32.786  22.753 -0.1417 -0.0732 -0.1998
54743W        W97796   2.202   9.158  21.555 -0.2464 -0.0645 -0.2500
54744W        W97797  33.028   5.292  21.655 -0.4195 -0.3145  0.0282
54745W        W97798  27.148  28.461  17.635 -0.0404 -0.0232  0.1463
54746W        W97799  25.560  29.499  23.123  0.1869  0.0461  0.1264
54747W        W97800   7.667  32.528  17.503 -0.1802  0.1850 -0.3303
54748W        W97801  10.635  27.167  14.148 -0.1062 -0.0233 -0.2349
54749W        W97802  24.919   1.897   1.144  0.0913 -0.0563  0.1102
54750W        W97803  24.248  24.878  17.163  0.0481 -0.0695  0.1360
54751W        W97804   8.412   6.505  22.228  0.2014 -0.0882  0.0391
54752W        W97805  29.666  26.231  23.371 -0.3891  0.0912 -0.0357
54753W        W97806   6.549  24.994  20.544  0.1120  0.1469  0.3629
54754W        W97807  21.639   1.084   1.479  0.1753  0.0596 -0.1869
54755W        W97808  15.339   3.463  14.808  0.3753  0.0032  0.4209
54756W        W97809   8.805  27.429  19.148  0.3082  0.0569 -0.1027
54757W        W97810   5.657  29.258  24.996 -0.3470 -0.1601  0.1851
54758W        W97811   0.163  33.740  15.870 -0.1758  0.1199 -0.2202
54759W        W97812  33.880  18.938  24.475 -0.2673 -0.2226  0.0626
54760W        W97813   3.804  28.577  19.833 -0.1826  0.1118  0.0534
54761W        W97814  34.152  11.659  27.299 -0.0240  0.1094  0.1145
54762W        W97815  12.633   6.743  27.158  0.3203  0.1908 -0.3512
54763W        W97816  17.863   5.541  19.719 -0.1908 -0.0122 -0.0892
54764W        W97817  33.818  31.150  25.446  0.0016 -0.1568 -0.2561
54765W        W97818  15.514  31.380  28.828  0.2174 -0.3459 -0.0244
54766W        W97819  16.027  22.108  17.972  0.0850 -0.0759  0.1621
54767W        W97820   5.176  23.435  25.381  0.2788 -0.0540  0.1045
54768W        W97821  17.982  25.405  28.992  0.0561  0.2191  0.1707
54769W        W97822   2.876  15.081  24.614  0.1251 -0.2183  0.6446
54770W        W97823  32.414  15.237  24.455  0.1409 -0.1342  0.1316
54771W        W97824   5.947   4.507  25.101 -0.0846  0.0140  0.0399
54772W        W97825   6.699  30.719  25.355  0.1646 -0.0280 -0.0271
54773W        W97826  24.130  31.395  27.651 -0.0176  0.1331  0.0490
54774W        W97827  20.263  27.103   1.038 -0.1941 -0.0869  0.2301
54775W        W97828  23.528  31.795   4.937 -0.1434 -0.1742 -0.0652
54776W        W97829   0.606  28.365  19.901  0.2494 -0.4203  0.1390
54777W        W97830  18.022  24.533  21.466  0.0419  0.1554  0.0017
54778W        W97831  34.453  15.173  20.349  0.3267 -0.0155 -0.0919
54779W        W97832  23.786   3.036  23.197 -0.0038 -0.2336 -0.3032
54780W        W97833  17.979  12.172  16.489  0.3466  0.0740  0.0573
54781W        W97834  32.291  28.542   4.721 -0.0391 -0.3879  0.1880
54782W        W97835  14.998  12.076  17.002 -0.1791  0.1345 -0.2093
54783W        W97836  24.063  10.030  22.511  0.1350  0.0857 -0.2895
54784W        W97837  26.621   2.215   8.451  0.1195  0.0301  0.1566
54785W        W97838  34.218  26.408  13.916  0.0826  0.1890 -0.1673
54786W        W97839  20.262  29.722  23.403  0.0787  0.0600  0.0648
54787W        W97840   0.548  27.721   7.635 -0.0753  0.0229  0.2712
54788W        W97841  34.612  17.812   6.795 -0.1038 -0.0687  0.0079
54789W        W97842  21.455  25.232  23.275  0.0040  0.2087 -0.4760
54790W        W97843   4.855  30.968  22.167  0.1173  0.0780 -0.0034
54791W        W97844  29.184  27.469   6.694  0.0549 -0.1190  0.0715
54792W        W97845   1.392   8.672  23.773  0.3277 -0.3931  0.3304
54793W        W97846   9.326  26.751  25.014 -0.0776  0.1763 -0.0995
54794W        W97847  28.206   4.953  27.876  0.0830 -0.1484  0.1907
54795W        W97848  27.563  31.292  20.789  0.2718 -0.2851 -0.2033
54796W        W97849  19.811   2.853   6.918 -0.5442 -0.2256 -0.1125
54797W        W97850   8.281  28.230  18.355 -0.2624  0.0926 -0.1887
54798W        W97851  28.701  28.001  14.139 -0.1441 -0.0115  0.1254
54799W        W97852  33.256  14.320   2.942 -0.0795  0.1633  0.0492
54800W        W97853   1.009  32.650  18.663  0.2247 -0.2850 -0.0390
54801W        W97854  33.653  27.431   0.183 -0.0512  0.0123 -0.4047
54802W        W97855   2.569   3.347   0.996  0.3223  0.2102 -0.0092
54803W        W97856   0.961  24.188  20.340  0.0376  0.0310 -0.2251
54804W        W97857  32.662  28.979   4.873  0.1391  0.2293  0.1597
54805W        W97858  34.212  32.828  24.143  0.0496  0.0233 -0.2560
54806W        W97859   3.217   3.993  24.400 -0.2390 -0.0719 -0.1363
54807W        W97860  23.347  32.992  15.648  0.0162  0.2989 -0.0813
54808W        W97861  18.859  29.541  18.842  0.2216 -0.3141  0.1532
54809W        W97862  23.284  11.868  28.646  0.0631  0.0479  0.1883
54810W        W97863  29.723  28.118  15.111 -0.1437 -0.1107 -0.0893
54811W        W97864  34.478  34.035   9.052 -0.1122  0.7222 -0.0632
54812W        W97865   8.565  25.145   1.873  0.0888 -0.2162 -0.0739
54813W        W97866   8.966   7.052  10.187  0.0750 -0.0530  0.0776
54814W        W97867   3.021  27.512   5.914 -0.2014 -0.1168 -0.2977
54815W        W97868  19.644  27.815  14.490 -0.3142 -0.1180 -0.1870
54816W        W97869   8.102  20.883  26.473 -0.0955 -0.1739  0.1405
54817W        W97870  10.503   2.048  14.265  0.0477  0.1552  0.0515
54818W        W97871  20.051  16.480  22.995 -0.0632 -0.0245 -0.2311
54819W        W97872  28.571  32.916  25.329  0.2246 -0.1569 -0.0274
54820W        W97873   8.199  29.533  24.839  0.0100  0.3154 -0.3270
54821W        W97874  20.005  30.659   2.346 -0.3047  0.1514  0.2766
54822W        W97875   2.102  26.911  24.164 -0.0355  0.0352  0.1471
54823W        W97876  23.780  17.502   8.865  0.2560  0.3053  0.1961
54824W        W97877  15.486  24.780   9.273 -0.0072 -0.2012 -0.3148
54825W        W97878  18.648  26.669  26.027  0.1722 -0.0053 -0.0484
54826W        W97879  12.741  20.508  25.974  0.3922 -0.2506 -0.0289
54827W        W97880   5.569   5.483  15.965 -0.0760 -0.1012  0.1922
54828W        W97881  33.857  14.500  26.406 -0.1689  0.2388  0.1440
54829W        W97882  30.119   1.581   5.837  0.1690  0.1439  0.1930
54830W        W97883   2.292   6.566   3.432 -0.0442 -0.4955 -0.0900
54831W        W97884  34.326  33.394   3.902 -0.0262 -0.2218 -0.2738
54832W        W97885   8.736   0.504   3.257  0.0316  0.3123 -0.0690
54833W        W97886  31.880   9.341  16.463  0.1133 -0.0352 -0.0853
54834W        W97887   9.224  12.844  15.163  0.0549  0.1076 -0.0997
54835W        W97888  28.899  20.456  21.490  0.1922 -0.2049 -0.3132
54836W        W97889  27.545  12.816  24.150 -0.1082 -0.1887 -0.2140
54837W        W97890   1.674  29.372  24.299 -0.2740 -0.4822 -0.0399
54838W        W97891   9.394   7.717  26.788 -0.0098  0.3928 -0.0267
54839W        W97892   8.057   1.437  21.001 -0.0755  0.2236  0.1727
54840W        W97893  13.783  23.828   9.461 -0.0290  0.2198 -0.2182
54841W        W97894   5.869  19.936   0.518  0.2526  0.0571 -0.1050
54842W        W97895  13.789   9.200  27.969  0.2226 -0.0983 -0.3981
54843W        W97896  29.995  25.958  22.210 -0.0813 -0.1125  0.4846
54844W        W97897  19.417   3.274   0.955 -0.0432  0.0772 -0.2010
54845W        W97898   3.578  26.129  14.057 -0.3797 -0.2049  0.2755
54846W        W97899  24.994  12.113  27.675 -0.1984  0.0792  0.1539
54847W        W97900   3.577  32.240  24.483  0.0085 -0.1432 -0.1281
54848W        W97901  11.953  33.603   0.459  0.0232  0.0576  0.0119
54849W        W97902  30.540   1.270   7.639  0.0524 -0.4962 -0.1606
54850W        W97903  15.490  30.338  26.753 -0.1295 -0.3034 -0.2087
54851W        W97904  31.484  18.296  23.958 -0.0055 -0.2764 -0.0505
54852W        W97905   5.288  27.967  24.831 -0.2331 -0.2914 -0.1005
54853W        W97906   9.681  17.182  23.853 -0.4340 -0.0028 -0.2598
54854W        W97907   3.031  20.167  21.798  0.0534 -0.1251  0.0709
54855W        W97908  21.618   9.516  16.827 -0.0855  0.2359  0.5382
54856W        W97909  25.000  30.210  23.197  0.0655  0.3085 -0.0967
54857W        W97910   1.586  11.845  27.981 -0.3040 -0.0935  0.2332
54858W        W97911   1.588  33.805  27.408 -0.4666  0.2305 -0.4596
54859W        W97912  16.196  27.557  19.167  0.0685  0.0119  0.3987
54860W        W97913   5.809   3.575  16.502  0.1817  0.4238 -0.0501
54861W        W97914   0.694  34.177  19.770 -0.3779  0.2328  0.0903
54862W        W97915  32.112  33.370  21.552 -0.0564  0.3147 -0.0195
54863W        W97916  24.145  25.874  21.178  0.0449  0.1140 -0.3789
54864W        W97917  25.807  29.011  24.494  0.0105 -0.0049  0.1270
54865W        W97918  30.654  33.372  22.973  0.0078  0.0339  0.1863
54866W        W97919   1.200  28.054   2.495 -0.2004 -0.2161  0.1875
54867W        W97920  33.699  18.827  20.599  0.0867  0.2931  0.0134
54868W        W97921  13.968   1.646   0.368  0.0759 -0.1301  0.4286
54869W        W97922   7.960   0.107  18.052  0.1501 -0.0250  0.2101
54870W        W97923   1.192   5.592  28.889 -0.1709  0.0981  0.0942
54871W        W97924   1.527  19.564   6.370  0.1041  0.0200 -0.2794
54872W        W97925   1.444   2.673  15.753 -0.0056 -0.1412  0.1169
54873W        W97926  26.165   0.005  24.956  0.3610  0.2675 -0.2967
54874W        W97927   4.570   5.210   3.365  0.0752 -0.0448  0.0657
54875W        W97928  33.733   0.109  21.736  0.0808 -0.1024 -0.0181
54876W        W97929  30.535   7.528  25.069 -0.0634 -0.0416 -0.0604
54877W        W97930  26.029  13.768  28.160  0.1556 -0.1022  0.0337
54878W        W97931   0.799  12.438  26.594  0.0287 -0.0239  0.0108
54879W        W97932  17.629  32.514  26.977 -0.0347 -0.0244 -0.2121
54880W        W97933  23.326  26.041   3.566 -0.2197  0.3667  0.0513
54881W        W97934   5.566  11.221  24.960  0.2085  0.0759 -0.1048
54882W        W97935  20.037  19.362  24.586 -0.0162  0.1435 -0.0564
54883W        W97936   2.879  32.942   9.441 -0.0166  0.1169  0.2593
54884W        W97937   4.886  14.462  27.800 -0.1590  0.0059 -0.1723
54885W        W97938  10.005  15.222  16.301 -0.1984  0.1428  0.1278
54886W        W97939  25.025  25.627   4.407 -0.3157  0.2042 -0.3848
54887W        W97940   9.243   1.457  19.147  0.1017 -0.0224  0.2060
54888W        W97941  28.091   2.723   2.439  0.0028 -0.0110  0.0180
54889W        W97942   2.758  21.322   8.027  0.0771  0.1120 -0.0997
54890W        W97943  10.575   0.518   5.026 -0.1220  0.0397 -0.0325
54891W        W97944  27.570  24.135   6.949  0.0516  0.0541 -0.0722
54892W        W97945  31.733  33.283  27.563  0.0020 -0.1761 -0.2507
54893W        W97946  21.736  27.736  15.757  0.2866 -0.0355  0.0451
54894W        W97947  30.123  23.092  15.455  0.0425 -0.0209 -0.0665
54895W        W97948  12.417  24.093  23.665  0.1760 -0.0319  0.2166
54896W        W97949   5.983   5.121  10.860 -0.0052 -0.0516  0.2781
54897W        W97950  34.053  16.363  21.805  0.0589 -0.2731  0.0510
54898W        W97951  23.995  34.529   6.651 -0.0801 -0.2420 -0.0753
54899W        W97952   4.558   8.629   2.636 -0.2138  0.1725  0.0255
54900W        W97953   2.439  34.196  15.933 -0.2681  0.1461  0.0534
54901W        W97954   1.615  20.197  28.710  0.0574  0.1078 -0.0610
54902W        W97955  27.967   1.927  25.323  0.0530  0.2242 -0.1560
54903W        W97956  23.852   1.920  21.938 -0.1059 -0.4206 -0.2538
54904ION     NA97957  24.177  16.575   9.540  0.2597  0.0747 -0.3825
54905ION     NA97958  15.944  33.816   2.777  0.0144 -0.5173  0.0822
54906ION     NA97959  21.370  16.088  19.944  0.2503 -0.3743  0.0399
54907ION     NA97960   3.129  10.282  28.829  0.6393 -0.2045  0.2475
54908ION     NA97961  26.692  25.180   9.318 -0.0552 -0.1640  0.4587
54909ION     NA97962  22.690  22.051   3.482  0.0693  0.2836 -0.3696
54910ION     NA97963  14.427   8.609  24.737 -0.6092 -0.3236 -0.6633
54911ION     NA97964   8.716  12.392   4.043  0.0908  0.0354 -1.0958
54912ION     NA97965   6.281  22.741   7.461  0.6414  0.0695  0.5599
54913ION     NA97966   4.588   6.504   5.815  0.4334 -0.2440  0.1936
54914ION     NA97967  25.537  19.044   8.167 -0.3179 -0.2736  0.4276
54915ION     NA97968  15.943  13.330  10.384 -0.0450 -0.1319  0.2961
54916ION     NA97969  15.687  29.872   6.410 -0.5515 -0.8992  0.1711
54917ION     NA97970  30.182   9.632   2.011 -0.2129 -0.2823 -0.5450
54918ION     NA97971   1.990  17.960   5.704 -0.5128 -0.1843 -0.1841
54919ION     NA97972  31.228   9.008   9.386 -0.1340  0.0469  0.4409
54920ION     NA97973  13.841  28.996   3.185 -0.0212 -0.2949 -0.5753
54921ION     NA97974   2.784  24.323   3.782 -0.0341  0.1507 -0.0336
54922ION     NA97975  14.080  12.337   7.300  0.4381 -0.1661 -0.5844
54923ION     NA97976   3.601  30.795   9.226  0.3254 -0.4495 -0.5625
54924ION     NA97977  12.446  15.646   7.999  0.0312  0.0037 -0.4188
54925ION     NA97978  13.273  34.576   9.143  0.1418 -0.0769  0.2152
54926ION     NA97979  16.959  23.609  21.301 -0.0182 -0.4375 -0.2647
54927ION     NA97980  15.104   2.451   0.628 -0.0298  0.2137  0.0667
54928ION     NA97981  23.070  23.996   4.263  0.8188  0.3444  0.4162
54929ION     NA97982  32.419  10.571  27.429  0.4589  0.0380 -0.2627
54930ION     NA97983   7.200  19.490  20.959  0.6063 -0.4356  0.1744
54931ION     NA97984  32.259  26.125  28.961  0.0308  0.2108  0.7250
54932ION     NA97985  11.877  16.289   6.356 -0.7160 -0.0000  0.2270
54933ION     NA97986  31.320   8.505  10.438  0.2222 -0.2336  0.0249
54934ION     NA97987   0.669  24.724   8.394 -0.7292  0.2470  0.2109
54935ION     NA97988  25.034  21.873  14.158 -0.5245 -0.2149 -0.3189
54936ION     NA97989   3.459  23.973   7.748  0.1685 -0.2925 -0.2291
54937ION     NA97990  15.365  12.171  20.323  0.0320 -0.3261  0.0083
54938ION     NA97991   6.922  19.775   1.926 -0.2905  0.3273  0.0976
54939ION     NA97992   2.056  10.270  28.465  0.1163 -0.3306  0.2508
54940ION     NA97993   2.585   4.374  23.587  0.2975  0.2035 -0.2179
54941ION     NA97994   0.751  17.536  16.619  0.3133 -0.5985 -0.1640
54942ION     NA97995   6.298  17.104   9.828  0.5972  0.2372 -0.1151
54943ION     NA97996  17.308  22.958  10.166 -0.3787  0.1349 -0.3255
54944ION     NA97997  28.389  22.089   9.907 -0.2490  0.0223  0.4911
54945ION     NA97998  17.844  23.791  14.043  0.1442 -0.7289  0.0334
54946ION     NA97999  19.903  16.115   9.077  0.3281 -0.2015 -0.3976
54947ION     NA98000   2.909   7.339   6.488  0.0122  0.1319  0.2113
54948ION     NA98001  25.063  23.280  10.020  0.0407 -0.2831  0.3143
54949ION     NA98002  19.538  10.289  26.617  0.3605 -0.1529  0.0089
54950ION     NA98003  13.601  32.648  25.801 -0.5008 -0.1364  0.4424
54951ION     NA98004  13.007  16.267   3.660  0.3082 -0.3482 -0.2349
54952ION     NA98005  34.020  21.634   9.055  0.1502 -0.2168 -0.0121
54953ION     NA98006   9.278  31.674   5.490  0.2154  0.1223  0.1962
54954ION     NA98007  31.002  22.464  10.078  0.1943 -0.0775 -0.0271
54955ION     NA98008  21.190  11.776   9.697  0.4265 -0.0239 -0.0599
54956ION     NA98009   3.194   8.180  25.772 -0.6216 -0.1033  0.2123
54957ION     NA98010  32.875  19.095   6.655  0.3215 -0.0298  0.2657
54958ION     NA98011  15.177  33.655   3.462 -0.3419  0.1252  0.4716
54959ION     NA98012  21.556   0.582  10.458  0.3280 -0.0235  0.3442
54960ION     NA98013  20.829   5.428  20.158  0.1422 -0.1796  0.2705
54961ION     NA98014  15.430  13.780   1.601  0.0979  0.0316 -0.1502
54962ION     NA98015  33.408  30.507   5.783 -0.2408 -0.6511 -0.0340
54963ION     NA98016  30.602  17.989   0.634  0.0847 -0.2587 -0.2380
54964ION     NA98017  32.917  23.351   9.134 -0.6832  0.3990 -0.2412
54965ION     NA98018  29.702  11.466  10.946 -0.3814  0.1169  0.2184
54966ION     NA98019   1.130  34.285   9.525  0.3311  0.3180  0.2973
54967ION     NA98020  15.113  16.989  27.365  0.4474 -0.4356 -0.2062
54968ION     NA98021   3.390  18.133   9.522 -0.5668 -0.1855  0.4136
54969ION     NA98022  17.844  10.406   9.978  0.1094 -0.1773  0.1909
54970ION     NA98023  29.242  24.185   5.896 -0.2387 -0.0988  0.8583
54971ION     NA98024   5.370  33.613   8.180 -0.0707  0.0181  0.4187
54972ION     NA98025  10.120  21.577   9.519  0.5795 -0.1341 -0.1014
54973ION     NA98026  16.703   3.635   3.586  0.1809  0.3189 -0.0982
54974ION     NA98027  17.578  11.351  10.277 -0.0707 -0.2965 -0.0487
54975ION     NA98028   8.658  28.439   1.111  0.7181  0.2283 -0.0802
54976ION     NA98029  32.161  11.941  10.418  0.2240  0.0748 -0.5970
54977ION     NA98030  12.622   1.600   9.458 -0.5112  0.4302 -0.6492
54978ION     NA98031   9.617  20.243   3.427  0.2197  0.3388  0.1699
54979ION     NA98032  29.017  34.482   5.095 -0.4260 -0.3622  0.1398
54980ION     NA98033   2.052   9.717   9.984 -0.2452 -0.2940 -0.5286
54981ION     NA98034   0.699  10.412   9.236 -0.1086  0.2476  0.0221
54982ION     NA98035  18.079  20.005   9.976  0.4776  0.1033  0.1094
54983ION     NA98036   2.739  15.770   2.211 -0.6271  0.2534 -0.1086
54984ION     NA98037  13.092  26.909   5.011 -0.2600  0.4178  0.6961
54985ION     NA98038  13.389  19.120  14.137  0.3379 -0.0676  0.0394
54986ION     NA98039   8.060  34.636   5.441  0.0562  0.2370  0.1807
54987ION     NA98040  12.102   8.814   2.524  0.0217  0.1040  0.9277
54988ION     NA98041   5.945  15.359  27.912 -0.1843 -0.0130 -0.3108
54989ION     NA98042   3.968  23.110  24.965  0.0985 -0.6252  0.4260
54990ION     NA98043  12.145   0.806   9.764 -0.3037  0.0941 -0.3819
54991ION     NA98044  20.996  34.022   3.925 -0.1733  0.0322  0.1116
54992ION     NA98045  23.287  21.210  10.270  0.1765  0.1375 -0.4678
54993ION     NA98046  15.143  11.155  10.157 -0.1100  0.2982 -0.2223
54994ION     NA98047  33.524  11.787   6.076 -0.0645 -0.4271 -0.3928
54995ION     NA98048  10.176  27.917   2.845  0.0004 -0.1921 -0.4187
54996ION     NA98049  21.194  25.400   5.639  0.4872  0.2651  0.1943
54997ION     NA98050   0.065  33.766   9.306  0.0261  0.6233 -0.3708
54998ION     NA98051  14.132  10.159   4.053 -0.1387  0.0692 -0.2496
54999ION     NA98052  10.962  10.508  27.818  0.4121 -0.1261  0.4019
55000ION     NA98053  22.440  20.045  24.054  0.1617 -0.1822  0.0763
55001ION     NA98054  16.310  29.690  25.154  0.4612  0.1868  0.1046
55002ION     NA98055   4.574  34.296  28.964 -0.1316 -0.4178  0.2021
55003ION     NA98056  27.018  32.263  21.568 -0.5338 -0.4814  0.2494
55004ION     NA98057  29.217  24.190   1.276 -0.2268  0.1742 -0.2075
55005ION     NA98058  22.070  12.137  19.094 -0.0283 -0.3480 -0.0765
55006ION     NA98059  19.132   0.880  10.751 -0.4518  0.1377  0.3595
55007ION     NA98060  26.547  18.545  15.715  0.1359 -0.2101  0.3776
55008ION     NA98061  18.990  13.866  20.386  0.4297 -0.3066  0.0476
55009ION     NA98062   6.177  32.896   2.734  0.5526 -0.0249  0.4369
55010ION     NA98063  23.024  14.498   2.662 -0.0043  0.0970 -0.4543
55011ION     NA98064  34.588   6.471   1.936 -0.1108  0.2309 -0.5221
55012ION     NA98065   7.949   9.343   7.888 -0.3781 -0.1722  0.2819
55013ION     NA98066  21.578   4.845   8.318  0.4962  0.2394 -0.3110
55014ION     NA98067   7.580   5.316  25.821  0.4312  0.3054  0.0489
55015ION     NA98068  25.054  15.476  27.517 -0.2398 -0.0246  0.6522
55016ION     NA98069  17.247  12.066   7.062  0.1108 -0.3667 -0.1875
55017ION     NA98070  32.503  12.900   6.375 -0.6473  0.1686 -0.1746
55018ION     NA98071  13.868   5.260   5.591 -0.3441  0.0855  0.0372
55019ION     NA98072  18.398  18.710   0.169 -0.2634  0.2234  0.1446
55020ION     NA98073   4.979   0.765   8.847 -0.9894  0.1997 -0.4523
55021ION     NA98074  21.309  25.327   4.736 -0.1715 -0.1504 -0.8431
55022ION     NA98075  32.531  21.230   7.151  0.3459  0.0826 -0.4999
55023ION     NA98076  24.957  29.232   3.549 -0.2733  0.4415 -0.5187
55024ION     NA98077  17.870  18.551   6.115 -0.0789 -0.4287  0.1025
55025ION     NA98078  28.593  29.302   0.067  0.0572 -0.0864  0.0940
55026ION     NA98079  28.568  23.812   6.230 -0.5878  0.5432  0.6794
55027ION     NA98080  29.055   9.619   4.506 -0.4738 -0.1180  0.5108
55028ION     NA98081  21.278  21.193   1.686  0.4470  0.0813  0.4210
55029ION     NA98082  11.005  25.145   3.350 -0.0116  0.2673  0.3125
55030ION     NA98083   6.199  29.570   1.724 -0.4399 -0.7183  0.1043
55031ION     NA98084  33.615  16.967  28.764 -0.0584 -0.7320  0.0684
55032ION     NA98085   4.946   2.538  14.106 -0.4860 -0.1098  0.3681
55033ION     NA98086  17.062   9.563  24.896  0.2373  0.1590 -0.1529
55034ION     NA98087  17.844   7.059   0.726 -0.7365  0.2577  0.6077
55035ION     NA98088  34.161   7.089   0.735  0.0416  0.1157 -0.8528
55036ION     NA98089   8.417   2.217   5.252  0.4044  0.1316  0.2485
55037ION     NA98090  23.554  11.064   9.751  0.1005 -0.2710  0.1122
55038ION     NA98091   4.027   3.930   9.672  0.4378 -0.4155 -0.3613
55039ION     NA98092  18.243  14.833   2.481  0.0607  0.8923 -0.0707
55040ION     NA98093  18.520  20.456  28.532  0.5888 -0.1786  0.1261
55041ION     NA98094  25.645  12.767   6.807  0.5405 -0.2962 -0.0447
55042ION     NA98095  30.525  21.322  26.182 -0.0643 -0.0761  0.1593
55043ION     NA98096  21.963  11.990   5.609 -0.0349 -0.3800 -0.2114
55044ION     NA98097  25.562  13.467   1.250 -0.3193 -0.0741  0.3826
55045ION     NA98098  10.676  26.219   8.902  0.2286  0.1282 -0.1833
55046ION     NA98099  11.426  33.044   4.942  0.2754 -0.7134  0.3152
55047ION     NA98100   6.601  27.879   6.557  0.2354 -0.0087 -0.0244
55048ION     NA98101  31.851   6.241   0.462  0.3077  0.7203 -0.0698
55049ION     NA98102   6.041   2.965   9.120  0.2983  0.0555  0.5988
55050ION     NA98103  13.834  11.593  22.226  0.4877  0.2861 -0.1294
55051ION     NA98104  13.696   4.708   3.545  0.0050 -0.7577 -0.0200
55052ION     NA98105   5.013  27.165  22.637  0.2767 -0.0319  0.3806
55053ION     NA98106  24.494   6.806   6.175  0.1513 -0.2424  0.0967
55054ION     NA98107  16.654   8.622   3.655  0.5238  0.2980  0.6910
55055ION     NA98108   6.964  22.964   9.337  0.0880 -0.3592 -0.0257
55056ION     NA98109   3.592  17.929   5.824  0.6694 -0.1538 -0.1818
55057ION     NA98110  31.952  17.415   8.970 -0.3395 -0.0207  0.4314
55058ION     NA98111   7.808  24.104  26.220 -0.0592  0.3480 -0.1382
55059ION     NA98112   7.918  18.333   8.090 -0.2058 -0.1181  0.5897
55060ION     NA98113  11.057  21.946   0.702 -0.3075  0.0397 -0.2894
55061ION     NA98114   5.532  13.736  22.336  0.0470  0.2110 -0.4517
55062ION     NA98115  23.000   2.014   9.561  0.1666 -0.2466 -0.5144
55063ION     NA98116   0.855  21.002   9.823  0.1812  0.1982  0.0409
55064ION     NA98117   5.742   3.134  15.512 -0.1358 -0.4567  0.7333
55065ION     NA98118  25.961  23.123   9.465  0.2700 -0.0051  0.1798
55066ION     NA98119  25.813  22.828  10.225  0.0548 -0.2291 -0.0957
55067ION     NA98120  23.250  24.209  28.805  0.5252 -0.1927  0.2725
55068ION     NA98121   9.698  11.264   9.381 -0.0633 -0.0859 -0.8672
55069ION     NA98122   1.850  23.206  13.249 -0.1715 -0.2865  0.2753
55070ION     NA98123   3.483   8.597   8.832 -0.1753  0.0264  0.3985
55071ION     NA98124  13.825  18.340  17.914  0.5037  0.0154  0.0374
55072ION     NA98125  17.225   0.169   8.794  0.2393 -0.2150 -0.2833
55073ION     NA98126  12.705  12.751  10.943  0.1229  0.7082  0.2864
55074ION     NA98127  29.400  15.288  10.447 -0.1723  0.5403  0.2469
55075ION     NA98128   9.646  27.439   9.192 -0.2100  0.5928 -0.1217
55076ION     NA98129  28.101  11.094  10.708  0.0668 -0.2904 -0.3045
55077ION     NA98130  16.456  15.861   8.027 -0.3918 -0.2352  0.5232
55078ION     NA98131  29.403   3.437  24.751 -0.1476  0.3742 -0.5260
55079ION     NA98132  22.429  16.976   6.357 -0.2777 -0.1324  0.2527
55080ION     NA98133  23.151   6.079  18.476 -0.1412  0.5094 -0.2386
55081ION     NA98134  26.154  18.118   9.729 -0.4261  0.1217  0.0703
55082ION     NA98135   1.303   8.188   7.271  0.2339  0.1474 -0.4592
55083ION     NA98136  16.737  33.657   9.940 -0.3262 -0.1455 -0.7160
55084ION     NA98137  14.241  10.041  27.401 -0.1052 -0.4879 -0.1355
55085ION     NA98138  19.872   9.932   7.931  0.2749 -0.4316  0.3060
55086ION     NA98139  16.361   4.713  26.173  0.9620 -0.1607  0.0216
55087ION     NA98140   7.635   7.604   7.740 -0.4888  0.2375 -0.1792
55088ION     NA98141  10.424   9.033   3.722  0.0422 -0.5268  0.2482
55089ION     NA98142  11.329   7.983  10.842 -0.2098 -0.1376 -0.2436
55090ION     NA98143  27.716  13.458  10.577 -0.1592  0.1859 -0.1415
55091ION     NA98144  14.707  13.059   4.260  0.3695 -0.1917  0.6705
55092ION     NA98145  14.554   6.455   4.882  0.0063 -0.3620 -0.5886
55093ION     NA98146  27.733  28.163  27.336  0.0271 -0.2086 -0.1435
55094ION     NA98147  24.862   5.756  20.174 -0.0174 -0.1116  0.1856
55095ION     NA98148  32.434  14.571   0.747 -0.1716 -0.1182  0.3590
55096ION     NA98149  29.308  26.748   1.976 -0.1655  0.0419 -0.1409
55097ION     NA98150  33.451  28.030   6.394 -0.0337  0.1093  0.1718
55098ION     NA98151  25.915  20.376  26.073  0.0483 -0.1044  0.2836
55099ION     NA98152  27.764   0.871   9.843  0.3535  0.4912  0.1504
55100ION     NA98153  33.619   9.754   8.318 -0.1551 -0.1220 -0.4663
55101ION     NA98154   5.059  17.449   9.134  0.9194  0.2874 -0.0275
55102ION     NA98155   7.495  19.768  26.837 -0.3943  0.1732  0.0891
55103ION     NA98156  26.224  21.227   4.860 -0.3230  0.0175  0.0689
55104ION     NA98157  34.601  17.010   0.698  0.2718 -0.0370 -0.1205
55105ION     NA98158  27.766   7.431  25.754  0.1929 -0.2424 -0.2225
55106ION     NA98159  22.060   4.782   9.276 -0.2412 -0.4936  0.0068
55107ION     NA98160  29.769  27.618   9.823 -0.0499 -0.0016 -0.0666
55108ION     NA98161   9.212  24.958  14.555  0.1081 -0.1148 -0.6834
55109ION     NA98162   5.770  15.093  26.165 -0.5871 -0.2078  0.0627
55110ION     NA98163  10.463  28.628   8.375  0.1844  0.0549  0.4666
55111ION     NA98164   8.010  27.437   8.977 -0.1784 -0.4650 -0.4124
55112ION     NA98165  19.835  10.606   4.865 -0.7501 -0.1842 -0.6973
55113ION     NA98166  17.520   9.976  19.717 -0.1035  0.4262  0.0791
55114ION     NA98167  33.061   7.915  28.900  0.0433  0.4673 -0.4816
55115ION     NA98168   8.902  30.225  27.107  0.0655  0.0558 -0.0439
55116ION     NA98169   8.411   3.055   0.297 -0.2648  0.4998 -0.2082
55117ION     NA98170   5.796  32.266   5.330  0.3066  0.0827  0.0442
55118ION     NA98171  32.387  13.256   3.400  0.0043 -0.0736 -0.0665
55119ION     NA98172   3.516  28.891   5.263 -0.8298 -0.4579  0.4474
55120ION     NA98173  19.354  29.621  14.678 -0.1257  0.3263  0.3557
55121ION     NA98174   2.366  14.640   6.521  0.0649  0.0489  0.1241
55122ION     NA98175  34.366   2.560   9.651 -0.1038 -0.0422  0.9653
55123ION     NA98176  19.684  13.251   2.867 -0.1316 -0.0048  0.4284
55124ION     NA98177   1.182  29.864   9.802 -0.2932  0.1989  0.0133
55125ION     NA98178  17.153  13.836   9.917 -0.2830  0.4646  0.1334
55126ION     NA98179   9.021   0.011  22.934 -0.3317 -0.3672 -0.4924
55127ION     NA98180   2.380  12.126   3.929 -0.3600  0.3641  0.0005
55128ION     NA98181  19.565   2.709   9.971  0.5710  0.0683  0.0577
55129ION     NA98182  15.058  18.642  21.773 -0.2358  0.3257  0.2757
55130ION     NA98183  29.479  25.042  10.107  0.4455  0.2031  0.1406
55131ION     NA98184  24.539  34.450   5.456  0.1965  0.4748  0.0115
55132ION     NA98185   5.489   7.988   9.368 -0.0455  0.0149 -0.2529
55133ION     NA98186  11.478  23.737  14.964  0.3084 -0.3089  0.3205
55134ION     NA98187   6.118  20.005   4.593 -0.1226  0.0328 -0.4132
55135ION     NA98188   5.722  21.417   7.101 -0.5428 -0.4081 -0.3311
55136ION     NA98189  31.250   1.969   7.784  0.1167 -0.6461  0.4249
55137ION     NA98190  13.217   2.080   7.028 -0.4188  0.5607  0.2274
55138ION     NA98191   6.221  18.769   9.035  0.0689  0.4237  0.5995
55139ION     NA98192   3.147  19.770   9.375  0.0485  0.4411 -0.3941
55140ION     NA98193   7.734  32.875  26.758 -0.3820  0.3121 -0.0964
55141ION     NA98194  15.657  34.493  10.245  0.1999 -0.1091 -0.0920
55142ION     NA98195  31.462  12.192  23.361 -0.3516 -0.3968  0.5028
55143ION     NA98196  31.602   1.225  26.159 -0.1169  0.2401 -0.0287
55144ION     NA98197  22.654   2.001   4.714 -0.2422  0.2034 -0.0371
55145ION     NA98198   4.293   4.420   0.582  0.4905  0.4117 -0.2812
55146ION     NA98199  12.681  10.384  10.846 -0.1225 -0.1042  0.1516
55147ION     NA98200   5.630   1.297   7.817  0.2239  0.0700  0.0230
55148ION     NA98201   3.823  24.240   9.393  0.0216  0.4506 -0.2989
55149ION     NA98202  11.995  14.520   7.864  0.0389 -0.5307  0.2396
55150ION     NA98203  33.234  30.254  20.128  0.2865  0.0611  0.3268
55151ION     NA98204   4.854   9.516   0.317 -0.3601 -0.3990  0.1892
55152ION     NA98205  13.562  15.563  25.508 -0.4038  0.5583  0.0597
55153ION     NA98206   5.810  34.121   6.527  0.0597  0.2449 -0.0491
55154ION     NA98207   9.569  22.740   9.316 -0.2730  0.1361  0.0036
55155ION     NA98208  17.172   7.046   9.155 -0.5466 -0.3236 -0.2249
55156ION     NA98209   7.821  29.508  22.021 -0.2209  0.3381 -0.1368
55157ION     NA98210   1.493  21.350   7.085 -0.0160 -0.4608 -0.0510
55158ION     NA98211   7.827   1.108   8.734  0.0430 -0.2394  0.0602
55159ION     NA98212  32.920   6.542   9.812  0.3983 -0.5762  0.3540
55160ION     NA98213   7.816  13.032  14.540  0.4068 -0.0504 -0.1873
55161ION     NA98214  12.427  30.527   9.048 -0.9035  0.1561  0.4237
55162ION     NA98215   0.917  31.778  23.141  0.6744  0.3157  0.4864
55163ION     NA98216   8.219  10.179  10.528  0.1201 -0.2370  0.2457
55164ION     NA98217  13.741   8.561  11.038  0.0663  0.2406 -0.4311
55165ION     NA98218  22.794  11.137   4.054 -0.2766  0.2411 -0.2469
55166ION     NA98219  22.273   3.667   4.652  0.2606 -0.0050 -0.1830
55167ION     NA98220   1.954   5.640   9.985 -0.3276 -0.2997  0.4532
55168ION     NA98221  27.246  12.171   3.295 -0.4240 -0.3562 -0.1860
55169ION     NA98222  26.173   3.990  23.392 -0.1999  0.0663  0.2943
55170ION     NA98223  12.873  10.342  26.918 -0.1137  0.2267 -0.5374
55171ION     NA98224  28.613  13.555   2.467  0.3178  0.5927  0.2964
55172ION     NA98225  12.980  31.219  26.353  0.3894 -0.1369 -0.0503
55173ION     NA98226  18.540  25.242   9.759  0.6596 -0.3753 -0.5514
55174ION     NA98227   3.185   6.675  10.300  0.3411  0.2926  0.0291
55175ION     NA98228  13.890  26.253   0.929  0.1609  0.1441  0.1831
55176ION     NA98229  21.674  16.567  25.339  0.4000 -0.0671  0.0930
55177ION     NA98230   3.563  24.675   8.223  0.2169 -0.3187 -0.0041
55178ION     NA98231   8.122  13.064   4.703  0.2751  0.6420  0.3971
55179ION     NA98232  33.482  17.082  26.297  0.2869 -1.0004 -0.3252
55180ION     NA98233   8.297  26.678   4.124 -0.1560  0.5939 -0.6424
55181ION     NA98234  30.323  26.279   6.140 -0.7741 -0.1209  0.3478
55182ION     NA98235   7.564  12.437  10.515 -0.8298 -0.3305 -0.4250
55183ION     NA98236  24.952  12.507   9.940 -0.3932  0.3266  0.0441
55184ION     NA98237   4.233  25.889   6.714 -0.4832 -0.3558  0.1915
55185ION     NA98238  32.951   9.059   9.938 -0.3727  0.2717 -0.3548
55186ION     NA98239  27.069  23.242   9.076  0.0108 -0.2833  0.0818
55187ION     NA98240  23.468  11.906  26.249  0.3668  0.2802 -0.1764
55188ION     NA98241   2.599  32.226   9.349  0.3256 -0.1499  0.4706
55189ION     NA98242  34.549  12.555   4.343 -0.0204  0.0715 -0.3558
55190ION     NA98243   8.270  12.631  28.309 -0.1250  0.2249 -0.2064
55191ION     NA98244  19.228  20.169   9.912  0.4593 -0.4492 -0.1227
55192ION     NA98245  15.028  25.458  10.028 -0.3896  0.2771  0.3687
55193ION     NA98246  16.071  18.994   9.489  0.1394  0.1689  0.0962
55194ION     NA98247  18.517  17.889  13.872 -0.4213  0.4083 -0.0490
55195ION     NA98248  26.183  23.689  24.558  0.2148  0.0532  0.5113
55196ION     NA98249   9.624  23.420  28.062 -0.1175  0.0619  0.2936
55197ION     NA98250  30.951  17.111   7.880  0.0020 -0.2098  0.3407
55198ION     NA98251   3.104  14.144  13.729 -0.2582  0.2264 -0.0575
55199ION     NA98252  21.316  17.280  23.912 -0.3587  0.0067  0.6787
55200ION     NA98253  33.955   1.675   9.531 -0.0033 -0.5349  0.0316
55201ION     NA98254   6.107  21.028  15.939  0.4625 -0.2569 -0.3153
55202ION     NA98255  20.456  10.873   9.702 -0.2732  0.2458 -0.3888
55203ION     NA98256  30.775   7.572   8.719 -0.5621  0.3701  0.1831
55204ION     NA98257   3.606   8.620   0.649  0.5068 -0.3948  0.0155
55205ION     NA98258  29.589  14.214   1.039 -0.4459  0.4265 -0.3794
55206ION     NA98259   4.327   6.549  10.118 -0.1054  0.0007  0.1618
55207ION     NA98260   9.689   2.897  24.321 -0.2239 -0.1396  0.0470
55208ION     NA98261   4.286  19.205  28.209  0.2706 -0.4679 -0.4309
55209ION     NA98262  31.377   3.758  21.250 -0.1508  0.3043  0.0028
55210ION     NA98263  33.060  17.264   6.778 -0.2147  0.0373  0.2868
55211ION     NA98264  10.968  11.347  15.165 -0.0149 -0.6940 -0.1546
55212ION     NA98265  29.243  21.040  21.804 -0.4488  0.1432 -0.5347
55213ION     NA98266  19.825  28.351  10.169 -0.0217 -0.1050  0.3995
55214ION     NA98267   1.078   5.663  16.641 -0.4314 -0.2068 -0.4428
55215ION     NA98268  16.747  12.266  10.133  0.6664  0.0379 -0.2011
55216ION     NA98269  17.446  13.549  28.731 -0.0970 -0.0034  0.2426
55217ION     NA98270  32.870  12.512   0.892  0.4711  0.1168  0.6244
55218ION     NA98271   0.550   3.397   9.924 -0.0690  0.0074  0.0203
55219ION     NA98272  25.342  22.132   2.349 -0.6352  0.5431  0.2666
55220ION     NA98273   3.350  30.772   2.995 -0.0732  0.3033  0.1337
55221ION     NA98274   5.208  28.554   7.738  0.2172 -0.4564  0.1546
55222ION     NA98275  28.548  20.893   9.831  0.3204 -0.5705  0.2495
55223ION     NA98276  13.314   1.571   3.044 -0.0416 -0.4143 -0.0562
55224ION     NA98277  10.365   9.536  17.519 -0.0524 -0.0668  0.1690
55225ION     NA98278  12.163  21.942  29.050 -0.5038  0.0637 -0.4767
55226ION     NA98279  19.184  19.285  10.045 -0.8181  0.5703  0.6286
55227ION     NA98280  15.024  22.231   4.375 -0.1621  0.3776  0.0368
55228ION     NA98281  19.595  26.060   7.374  0.3309 -0.3749  0.1297
55229ION     NA98282  22.765  15.825   9.487 -0.2190 -0.4219 -0.4014
55230ION     NA98283   8.004   8.394  10.717 -0.6075  0.2880 -0.3898
55231ION     NA98284  34.328  26.562   7.193 -0.2614  0.2825  0.1121
55232ION     NA98285   3.992  31.202  21.760 -0.1724 -0.4068  0.0548
55233ION     NA98286   4.742  19.061   5.786 -0.2117 -0.1680  0.3404
55234ION     NA98287  29.734  23.551   4.468 -0.0837  0.2798  0.7538
55235ION     NA98288  25.055  12.625   4.157 -0.2374 -0.4341  0.2175
55236ION     NA98289  21.278  21.735   3.205  0.3401  0.0558 -0.0212
55237ION     NA98290  13.668  25.849   5.545  0.0666 -0.1221 -0.2531
55238ION     NA98291  22.905  10.673   9.313  0.2102 -0.2351  0.1299
55239ION     NA98292   9.850   0.829  27.948 -0.0806  0.0545 -0.1675
55240ION     NA98293  24.322  31.627  22.696 -0.1212 -0.5678 -0.7337
55241ION     NA98294   3.881  30.814   5.701 -0.4488  0.4288 -0.2371
55242ION     NA98295   4.759   3.353   9.857 -0.5350  0.5033 -0.0909
55243ION     NA98296  15.986  33.030  28.024 -0.0564 -0.3451  0.0538
55244ION     NA98297  27.203  18.360  10.279 -0.0481  0.0945 -0.0233
55245ION     NA98298  17.213  27.354   5.380  0.4120  0.1006  0.0288
55246ION     NA98299  11.971  25.663   4.013 -0.1253  0.0005  0.1879
55247ION     NA98300  20.273   0.605   7.741  0.2663  0.1439 -0.2205
55248ION     NA98301  23.221  12.406   2.563  0.3372  0.0617  0.5535
55249ION     NA98302  23.111  23.023  20.683 -0.4043 -0.1606 -0.5358
55250ION     NA98303   8.430  31.735   3.439 -0.2495 -0.3051  0.4241
55251ION     NA98304   5.742  13.400   9.544 -0.1331 -0.0097  0.8743
55252ION     NA98305   8.589  11.594  28.088  0.3861 -0.3493 -0.0472
55253ION     NA98306  29.528  25.431  25.952  0.4317  0.0792  0.2815
55254ION     NA98307   1.132  15.207   0.851 -0.3668  0.0489 -0.2843
55255ION     NA98308   2.262  12.518  23.847  0.2185  0.1053  0.2404
55256ION     NA98309   1.004  21.059   1.960 -0.1990  0.4033 -0.5925
55257ION     NA98310  27.101  10.035  26.409  0.0916  0.0944 -0.2206
55258ION     NA98311   3.624  18.645   2.644 -0.1870  0.3160 -0.1520
55259ION     NA98312  33.545  19.852   9.378 -0.3718  0.2458  0.1738
55260ION     NA98313  16.106  20.718  24.416 -0.0560 -0.3972 -0.3481
55261ION     NA98314  32.845   7.422   6.982  0.1108  0.2636 -0.0160
55262ION     NA98315  29.551  29.421  21.457 -0.4950 -0.4642 -0.6074
55263ION     NA98316  15.937  16.829  15.020  0.0198  0.5483  0.0141
55264ION     NA98317   2.268   3.195  25.162  0.3892 -0.1079 -0.0069
55265ION     NA98318  21.545  34.553   8.601 -0.0992 -0.3241 -0.1304
55266ION     NA98319   1.266   7.574  29.089  0.0042 -0.5241 -0.0773
55267ION     NA98320  28.075  21.515  28.545  0.0616 -0.2960  0.5071
55268ION     NA98321  20.146  13.570  19.984 -0.0112  0.2914 -0.3476
55269ION     NA98322   2.328   7.426  26.431  0.1721 -0.2250  0.4749
55270ION     NA98323   4.254   6.758   4.686  0.4855  0.1794 -0.1016
55271ION     NA98324   5.662   5.068   6.007 -0.1472 -0.5869  0.1748
55272ION     NA98325  27.183  34.070   6.277  0.2769 -0.3072 -0.1195
55273ION     NA98326  22.513  32.295  27.487  0.5266 -0.3436  0.4591
55274ION     NA98327  34.239   1.688  25.406 -0.4756 -0.2325  0.4992
55275ION     NA98328   5.258   8.733   6.403  0.2597 -0.3730 -0.5781
55276ION     NA98329  13.412  32.913  23.356 -0.4777 -0.3519  0.1924
55277ION     NA98330  23.903  10.329   9.689  0.4280 -0.3358 -0.7185
55278ION     NA98331  30.917  27.391   9.779  0.1798 -0.4601  0.5755
55279ION     NA98332   6.441  32.543   5.924  0.6564  0.0342 -0.0304
55280ION     NA98333  29.070  29.496   4.392 -0.2723  0.4119  0.2651
55281ION     NA98334  17.349  23.300   6.416 -0.6126 -0.1414 -0.2284
55282ION     NA98335  13.308  26.285   9.235  0.3172 -0.0118 -0.6052
55283ION     NA98336  21.075  21.923  10.548 -0.3191 -0.2502 -0.2171
55284ION     NA98337  15.404  25.290   3.478  0.9261  0.4249 -0.5213
55285ION     NA98338  15.269  32.579  27.728  0.2103  0.0551 -0.7445
55286ION     NA98339  14.574   5.886   6.881 -0.4646  0.1596  0.2262
55287ION     NA98340   8.354  29.494   2.721 -0.0408  0.5865  0.2558
55288ION     NA98341   6.659   7.987  10.106 -0.2170  0.1005 -0.0377
55289ION     NA98342  23.007  29.713   0.165 -0.1769 -0.0715 -0.1519
55290ION     NA98343   8.929  15.062   8.845 -0.4537  0.1862  0.2883
55291ION     NA98344  22.109  23.289   3.472 -0.5249  0.1077  0.0946
55292ION     NA98345   3.069  29.484   8.259 -0.0355  0.0621 -0.1041
55293ION     NA98346  15.268  15.719  23.403  0.3243 -0.1345 -0.2466
55294ION     NA98347  25.832  19.529   2.811 -0.0664 -0.3122  0.0110
55295ION     NA98348   6.547  22.154   0.659  0.1911 -0.3172 -0.5775
55296ION     NA98349  22.180   0.818  10.309  0.5077 -0.3721 -0.3420
55297ION     NA98350  11.916  10.060   2.756  0.2845 -0.2299  0.3404
55298ION     NA98351  28.254  30.363   9.511 -0.4832  0.3211  0.4150
55299ION     NA98352   1.207  12.092   8.581  0.1115 -0.4558 -0.4227
55300ION     NA98353   9.155  21.094  20.473  0.1196 -0.4325  0.2250
55301ION     NA98354  14.314  29.189   4.510 -0.2079 -0.4670  0.2329
55302ION     NA98355  14.134  17.435   7.693  0.1488 -0.5834  0.0072
55303ION     NA98356  14.721  22.747   5.387 -0.3131  0.3683 -0.1505
55304ION     NA98357  20.150  32.619   6.320 -0.4169  0.3229  0.4041
55305ION     NA98358  22.867   0.287  10.467  0.1244 -0.2743  0.2132
55306ION     NA98359   7.737  10.835   0.430 -0.2734  0.5986  0.2437
55307ION     NA98360   9.648  25.913   6.216 -0.1371 -0.1518 -0.3175
55308ION     NA98361  14.466  19.801  18.020  0.1250  0.2386 -0.6771
55309ION     NA98362  30.745  13.098   1.329  0.0727 -0.2052 -0.6995
55310ION     NA98363   3.212  16.600  18.222 -0.1892  0.2602 -0.2377
55311ION     NA98364  23.435   5.146   5.080 -0.0966 -0.0282 -0.1708
55312ION     NA98365  16.031  11.688  26.559 -0.0417 -0.3135 -0.6104
55313ION     NA98366  15.355  18.201  27.191  0.1320  0.0966  0.2397
55314ION     NA98367   6.403  18.093   0.945 -0.4364 -0.2170  0.1996
55315ION     NA98368  23.646  13.043  22.981  0.2017  0.6568  0.2178
55316ION     NA98369  33.741  17.261  25.136 -0.2606 -0.4362  0.3815
55317ION     NA98370  15.974   3.082   5.380 -0.0263 -0.0839  0.3151
55318ION     NA98371  33.061  22.038   4.989 -0.0856 -0.2154 -0.4057
55319ION     NA98372  19.191   9.086  10.525  0.5449  0.2209 -0.1866
55320ION     NA98373   9.538  32.606   9.833 -0.7962 -0.1103 -0.0585
55321ION     NA98374  31.037   5.246   7.675 -0.2360 -0.1975  0.6925
55322ION     NA98375  34.377  22.368   2.214 -0.3101 -0.1196  0.0157
55323ION     NA98376  11.238   1.770  14.483 -0.0597 -0.0435  0.7201
55324ION     NA98377  13.544  14.318   3.008 -0.1072  0.1588 -0.3859
55325ION     NA98378  25.431  13.199  28.511  0.0412  0.4240  0.3767
55326ION     NA98379  34.351  18.663   4.107  0.0397 -0.0450 -0.3089
55327ION     NA98380  20.992  20.755   5.479 -0.4784  0.2579 -0.2000
55328ION     NA98381   8.637  22.002   9.780 -0.5524 -0.3794 -0.3739
55329ION     NA98382  33.691  23.312   9.402 -0.1377 -0.2104 -0.1633
55330ION     NA98383  20.774   8.279   0.690  0.2027 -0.2020  0.9422
55331ION     NA98384  20.813  11.304   4.352  0.3542  0.3762  0.1663
55332ION     NA98385  33.195  25.754   6.144 -0.1247  0.2201 -0.3331
55333ION     NA98386  11.415  33.261  19.966 -0.4357 -0.1965 -0.3892
55334ION     NA98387  22.635  14.086  21.053  0.2584 -0.5899  0.0963
55335ION     NA98388   1.634  33.143  24.732  0.3541 -0.2006  0.3753
55336ION     NA98389   0.435  15.975   9.501  0.1353 -0.5500 -0.4051
55337ION     NA98390  12.915   9.687  11.080  0.1973  0.0245 -0.5639
55338ION     NA98391  30.804   8.690  19.409  0.0100 -0.1307  0.3589
55339ION     NA98392  29.253  24.743   7.009 -0.1339 -0.1147 -0.1426
55340ION     NA98393  12.762  34.091  26.202  0.0039 -0.7265  0.1668
55341ION     NA98394   0.720  19.115  19.570 -0.0080 -0.0178  0.1865
55342ION     NA98395  33.255  29.426  28.945  0.7047  0.0384  0.1192
55343ION     NA98396   8.827  32.383   4.993  0.4355  0.6246 -0.4941
55344ION     NA98397  30.815  27.739  18.196  0.0443 -0.4133  0.0353
55345ION     NA98398   2.842  30.410   8.073  0.2731 -0.5263  0.2886
55346ION     NA98399  13.894  26.005  10.289  0.2258  0.1662 -0.4374
55347ION     NA98400  11.803  12.750  10.857  0.2489 -0.0443  0.2616
55348ION     NA98401  34.009   2.722  25.959  0.0529 -0.1030 -0.0316
55349ION     NA98402  30.686  28.902   0.380  0.4544  0.1832 -0.2452
55350ION     NA98403  23.707  20.630   7.074  0.5069  0.4381  0.3098
55351ION     NA98404  17.122  32.256  25.360  0.2603  0.6362  0.2392
55352ION     NA98405  16.345  21.745  10.152 -0.2782  0.3963 -0.4260
55353ION     NA98406   2.595  32.799  25.262  0.1386 -0.3787  0.2601
55354ION     NA98407  17.875  24.256   0.714 -0.6437 -0.1798 -0.4571
55355ION     NA98408   5.412  18.964  26.519  0.1658 -0.5554 -0.1797
55356ION     NA98409  26.599  30.924  19.394  0.1310  0.0943  0.0260
55357ION     NA98410   3.247   5.750   3.201 -0.6520  0.1109  0.3583
55358ION     NA98411  17.932   2.984  10.199 -0.0238  0.0174  0.4228
55359ION     NA98412   5.202  22.130   8.438  0.2599 -0.1018  0.1763
55360ION     NA98413  17.332  21.177   2.894 -0.1893  0.1886 -0.1242
55361ION     NA98414   6.939  30.290  22.665  0.5860 -0.0198 -0.1351
55362ION     NA98415  30.214  22.239   9.262  0.2790 -0.1270 -0.1161
55363ION     NA98416  13.282  31.266   9.620  0.4809 -0.0544  0.2764
55364ION     NA98417   3.587  26.241   6.178  0.0638  0.1036  0.2343
55365ION     NA98418  22.199  22.037  17.963  0.4479 -0.4425  0.2568
55366ION     NA98419  15.562  18.747   5.363  0.1093 -0.1156 -0.1649
55367ION     NA98420   4.937   2.009   9.076  0.0312 -1.1218 -0.2618
55368ION     NA98421  30.811  12.534   7.781  0.1060  0.1194  0.4258
55369ION     NA98422  21.113  28.293   9.593  0.7067  0.5244 -0.4323
55370ION     NA98423  25.942  20.690   9.348 -0.4212  0.2240 -0.1610
55371ION     NA98424  21.898   5.719  20.067  0.2528 -0.1434  0.5922
55372ION     NA98425  17.503  29.698   8.119 -0.4386 -0.0348 -0.0463
55373ION     NA98426  13.764  26.767   9.886  0.0461 -0.1065 -0.2739
55374ION     NA98427  10.116  12.792   9.387 -0.4263  0.0360  0.2317
55375ION     NA98428   5.064  23.626   9.810  0.0462 -0.1766 -0.1404
55376ION     NA98429   5.383  22.053   0.128  0.0205 -0.1738  0.4013
55377ION     NA98430  13.453  15.680  14.871 -0.2817  0.2819  0.7816
55378ION     NA98431  34.080   9.786   1.853  0.1981  0.4429  0.4447
55379ION     NA98432  29.704   7.926   2.981  0.3842 -0.2530  0.1030
55380ION     NA98433   6.683  20.937   8.282  0.4672  0.0297 -0.2218
55381ION     NA98434  34.604  11.279  25.249  0.1715  0.1417 -0.2487
55382ION     NA98435  30.305  19.508   5.480  0.2056 -0.1742 -0.2649
55383ION     NA98436  31.992   3.647   0.874 -0.1445 -0.4267 -0.0148
55384ION     NA98437  18.803   9.348   9.295  0.2477  0.4596  0.0351
55385ION     NA98438   1.292  26.920   8.777 -0.3928 -0.2021 -0.0403
55386ION     NA98439  16.454  30.545   0.202 -0.1592 -0.5154  0.4125
55387ION     NA98440   8.706   0.888  10.075 -0.3466  0.2121  0.2049
55388ION     NA98441  28.108   3.566   4.125  0.0204 -0.1615 -0.2020
55389ION     NA98442  30.935  32.614   8.598  0.2642 -0.2532 -0.1733
55390ION     NA98443   7.017  29.359   1.414 -0.0366 -0.2714 -0.3691
55391ION     NA98444  10.158  34.581   9.954 -0.1402  0.1297  0.0204
55392ION     NA98445   4.425  17.882  13.501 -0.0034  0.1948 -0.2246
55393ION     NA98446  17.442  31.034   9.197  0.0757 -0.0772  0.2470
55394ION     NA98447  19.269   8.532  23.946 -0.1549  0.3088 -0.3968
55395ION     NA98448   9.664  19.749  26.383  0.3770  0.1911 -0.6630
55396ION     NA98449  22.860   3.421   9.858 -0.0466 -0.5559 -0.1717
55397ION     NA98450   2.512  17.504   1.451 -0.1539  0.3082  0.0162
55398ION     NA98451   0.359  18.291  22.402  0.1090 -0.3999 -0.1644
55399ION     NA98452  10.830  28.447   2.895  0.1227 -0.0318 -0.5139
55400ION     NA98453  22.045  26.611  23.102 -0.2916  0.4418  0.2395
55401ION     NA98454  29.629  12.161   8.803 -0.3786  0.3511 -0.1647
55402ION     NA98455  19.684   1.181  17.215 -0.1421  0.0126 -0.0860
55403ION     NA98456   6.280   3.349   9.668  0.5813  0.2061 -0.2669
55404ION     NA98457  25.834  13.638   4.500 -0.3074 -0.3986  0.0647
55405ION     NA98458  26.946   8.121  14.691  0.0677 -0.0672 -0.2565
55406ION     NA98459   6.789  14.830  21.189 -0.7182 -0.0255  0.2041
55407ION     NA98460  34.215  23.376   6.458  0.2258 -0.2051 -0.0547
55408ION     NA98461  16.797  24.747   8.309  0.3009  0.7061 -0.0499
55409ION     NA98462  22.590   2.776  23.971  0.6435 -0.2920  0.1172
55410ION     NA98463  25.625  14.788   9.361 -0.7418 -0.0015 -0.0079
55411ION     NA98464  24.139  16.333   2.227 -0.0937  0.2149  0.0317
55412ION     NA98465  15.552  26.702   9.955  0.0500 -0.5097  0.2004
55413ION     NA98466  19.245  18.710   7.075  0.4473  0.0300  0.0685
55414ION     NA98467   5.542   8.159   1.029 -0.0160  0.3861 -0.3005
55415ION     NA98468  30.415   3.461   1.466  0.5206 -0.5285  0.3857
55416ION     NA98469   0.869  26.052  28.882  0.2579  0.0807  0.3736
55417ION     NA98470   4.762   7.813  25.318  0.3092 -0.4532  0.2657
55418ION     NA98471  15.182   6.858  27.156 -0.2548  0.4026  0.4633
55419ION     NA98472  14.874  21.493   6.683  0.1644  0.0140  0.6000
55420ION     NA98473  21.155  19.066  10.009 -0.5837 -0.3439  0.1850
55421ION     NA98474  26.379   4.443   9.594  0.0436  0.0552  0.0576
55422ION     NA98475  17.412   0.894  10.265  0.1617  0.0411  0.3669
55423ION     NA98476  18.572   5.556  14.069  0.1542 -0.2225 -0.3191
55424ION     NA98477  31.828  15.864  28.220  0.1441 -0.4629 -0.0159
55425ION     NA98478  32.312   1.072   6.531  0.1648 -0.2370 -0.7743
55426ION     NA98479  12.507   9.972   5.430  0.0860  0.4116  0.4366
55427ION     NA98480  20.363  20.584   9.996 -0.6125  0.2348  0.5034
55428ION     NA98481  34.421  34.618   3.180  0.5209 -0.5073  0.3343
55429ION     NA98482  11.052  27.471  23.660 -0.2720  0.0555 -0.2283
55430ION     NA98483  22.983   5.125   2.554 -0.0374 -0.3054 -0.1481
55431ION     NA98484  16.698  12.695  14.215  0.2077  0.3190 -0.4245
55432ION     NA98485   7.723   5.569   1.168 -0.2745  0.0807 -0.1367
55433ION     NA98486  23.372  30.492  26.365 -0.3750  0.3632  0.4276
55434ION     NA98487   2.915  31.160  24.721 -1.1478 -0.3993 -0.5168
55435ION     NA98488  32.534  32.327   9.657  0.1965  0.4661  0.4435
55436ION     NA98489  19.001  10.255   5.981  0.1108 -0.2342  0.4381
55437ION     NA98490  20.755  15.867   5.755  0.8085 -0.2870  0.3384
55438ION     NA98491  24.200  22.609   6.003 -0.1705  0.3529  0.2749
55439ION     NA98492   9.806  17.080   8.903  0.3773  0.6312  0.3270
55440ION     NA98493  25.312  26.137  25.936  0.2990  0.1927 -0.6926
55441ION     NA98494   6.932  16.525   9.638  0.4970  0.1802  0.3171
55442ION     NA98495  14.207  34.032  18.503 -0.0385 -0.4036  0.1267
55443ION     NA98496  20.836  14.973   2.499 -0.3369 -0.3729  0.0322
55444W        W98497  29.818  12.445  25.940  0.1660 -0.2180 -0.2957
55445W        W98498  31.637   2.309  24.556  0.1232  0.1200 -0.1024
55446W        W98499   2.794  25.161   8.461  0.1347 -0.1715 -0.0616
55447W        W98500  30.219   2.882  28.884  0.0143  0.0457  0.1675
55448W        W98501  25.157  31.783   6.005 -0.3010  0.0602  0.0847
55449W        W98502   8.986  34.046  10.253  0.1309  0.3069  0.2511
55450W        W98503   3.983  28.246  24.776 -0.0410  0.0760  0.1485
55451W        W98504  12.277   4.455  28.783 -0.0507 -0.2544  0.0204
55452W        W98505   5.473   2.640   7.457  0.0058 -0.6091  0.2407
55453W        W98506  22.071   6.029   2.822  0.1610 -0.2144 -0.0072
55454W        W98507  33.602   4.362   9.464  0.0780 -0.0511  0.2241
55455W        W98508   8.558   5.240   2.922  0.0437  0.0218  0.0873
55456W        W98509  16.497   9.372   9.278 -0.1686  0.0996  0.6783
55457W        W98510   6.589  27.959   7.397  0.0142 -0.0610  0.0163
55458W        W98511  17.747  30.158   4.039  0.0283 -0.1159  0.0793
55459W        W98512  26.845  11.138   6.672 -0.1734 -0.0713  0.1750
55460W        W98513  27.558   9.116   6.879  0.0392 -0.1461  0.0485
55461W        W98514  28.275  26.056   4.653  0.2262 -0.2149  0.0394
55462W        W98515   2.292   9.120  25.209 -0.0012  0.1089  0.2729
55463W        W98516  29.821   0.906   9.788 -0.2250  0.0559  0.1141
55464W        W98517   9.433   0.459   4.266  0.2474 -0.2013 -0.0038
55465W        W98518  19.277  19.068   5.012 -0.0681 -0.1056 -0.0432
55466W        W98519   4.047  30.612  28.988 -0.0842 -0.1658 -0.2271
55467W        W98520  31.722   2.436  26.492 -0.0906 -0.2330  0.1675
55468W        W98521   6.701   2.700   9.330  0.4467  0.0528 -0.0205
55469W        W98522  14.891  31.364   8.390 -0.0075 -0.1934 -0.2490
55470W        W98523   2.884   3.831  15.734  0.1387  0.1224  0.3807
55471W        W98524   1.216   1.134  27.084 -0.0315 -0.2395 -0.3302
55472W        W98525  19.846  10.754  20.616 -0.0767  0.1661  0.0943
55473W        W98526  21.401   7.623   9.454 -0.0897 -0.0777  0.1038
55474W        W98527   5.574  31.801   0.659  0.3902 -0.1143  0.2220
55475W        W98528   4.890  12.842   0.146 -0.1023  0.0978  0.0697
55476W        W98529  12.965   3.495   6.751 -0.1607 -0.0706  0.1237
55477W        W98530  26.142  25.678   8.476  0.0863 -0.0375  0.1570
55478W        W98531  19.102  33.893  10.313 -0.0263  0.2173 -0.3085
55479W        W98532   6.017   8.728   5.863 -0.0292 -0.4713 -0.1278
55480W        W98533  30.192   1.761   1.353  0.2703  0.0302 -0.0452
55481W        W98534   6.238   9.996   5.080 -0.1090  0.0344  0.3073
55482W        W98535  26.395  27.052   8.671 -0.1743 -0.1894 -0.0837
55483W        W98536   6.783   1.531   1.074 -0.4134 -0.0540 -0.0400
55484W        W98537  30.519   7.767  15.895 -0.1582  0.3038  0.2502
55485W        W98538  22.474  10.783  18.698  0.2737  0.1754 -0.1165
55486W        W98539  32.672   6.058   0.818  0.3252 -0.1386 -0.3881
55487W        W98540  34.658  27.336  27.706  0.0206 -0.0008 -0.2775
55488W        W98541   1.597   6.158   1.624 -0.1471  0.1779  0.1320
55489W        W98542  16.898  33.130   0.868 -0.0779  0.0918 -0.0686
55490W        W98543   1.603  32.486   4.424 -0.2626  0.1662 -0.2592
55491W        W98544  31.072  30.638   4.621 -0.2273  0.2547  0.0720
55492W        W98545  19.768  33.974   5.828  0.1059 -0.0094  0.1821
55493W        W98546  31.933   8.344  22.040  0.0592 -0.0000 -0.1032
55494W        W98547  32.320   8.017   2.762 -0.2363 -0.0415 -0.2205
55495W        W98548   1.028  29.915   7.130 -0.3603  0.1329 -0.1161
55496W        W98549  30.272   6.502   5.892  0.4087 -0.1465  0.0468
55497W        W98550  20.360  34.407   5.331  0.3442 -0.0077 -0.0270
55498W        W98551   1.623  34.563  22.625  0.0252  0.0967  0.1951
55499W        W98552  23.624  34.216  24.361  0.2742 -0.2720  0.1705
55500W        W98553  31.698  27.089   4.846 -0.2193 -0.2231  0.2779
55501W        W98554  30.624   6.464   3.399  0.3540  0.0515 -0.1715
55502W        W98555  21.758  22.223  20.814  0.1773  0.2148 -0.1844
55503W        W98556   3.362  15.159  28.176 -0.3630  0.0750  0.1164
55504W        W98557   2.884   8.907  26.228 -0.1781  0.1427  0.0337
55505W        W98558  33.956   0.376  28.869 -0.0219 -0.2020 -0.1112
55506W        W98559   2.395  15.762  16.676 -0.1144 -0.0670  0.2135
55507W        W98560  33.612  30.971  24.021 -0.1397  0.1718  0.1740
55508W        W98561  26.324  19.313  19.553 -0.0444 -0.1926 -0.3626
55509W        W98562  11.620  19.205   8.544  0.1962  0.0119  0.2415
55510W        W98563  20.064   3.443  27.522  0.2479 -0.1715 -0.0062
55511W        W98564  32.016   7.773  28.393 -0.0079  0.0573 -0.1679
55512W        W98565  33.251  17.433   7.192 -0.1482 -0.1301  0.1664
55513W        W98566  16.292   0.062  24.839 -0.0575 -0.1477  0.2045
55514W        W98567  31.525  23.305   6.538  0.0514  0.0718  0.1515
55515W        W98568  34.404  31.632   8.534  0.2205  0.1559  0.2243
55516W        W98569  20.832   0.094  28.242  0.0580  0.0921 -0.1258
55517W        W98570   6.029  31.496   6.503  0.1356  0.2371 -0.1659
55518W        W98571  28.735   6.168  25.759 -0.1034  0.0007  0.0247
55519W        W98572  22.554   6.520   8.959  0.0404 -0.1506  0.1431
55520W        W98573   0.526  15.560   1.862  0.3774 -0.1345 -0.1118
55521W        W98574  20.891  25.549   5.335  0.2018 -0.0298 -0.1987
55522W        W98575   2.529  24.922  27.538  0.1484  0.2680  0.5549
55523W        W98576  22.473   8.101   5.968  0.0094  0.0923 -0.0126
55524W        W98577  29.727  31.397   4.500  0.2251  0.1003 -0.0063
55525W        W98578  26.866  24.265  17.753 -0.1983 -0.2823 -0.2170
55526W        W98579   4.056   3.964   6.015  0.2611 -0.3932 -0.0541
55527W        W98580  22.191   0.798  28.455 -0.1416  0.0128  0.4872
55528W        W98581   8.855   2.775   5.467  0.0171 -0.0389 -0.1855
55529W        W98582  34.596   1.796  27.928 -0.2074 -0.0377  0.1430
55530W        W98583   1.125   5.820   7.734 -0.0497  0.1940 -0.1454
55531W        W98584  29.806  14.580   6.310  0.3007 -0.0159 -0.0302
55532W        W98585  19.981  26.761  28.510 -0.0096 -0.0127  0.1536
55533W        W98586  18.943   1.775  10.312 -0.0266 -0.0022 -0.0998
55534W        W98587   4.780  16.273   5.711  0.4926  0.2636 -0.1975
55535W        W98588  11.000  23.457   5.296  0.2817 -0.0040 -0.3015
55536W        W98589   7.206   8.889   5.892  0.3627  0.3764 -0.1535
55537W        W98590  24.737   3.507  18.292 -0.1490  0.2720  0.0207
55538W        W98591  12.343  27.363   3.752 -0.0464 -0.1200  0.2766
55539W        W98592  13.511  18.935  29.061 -0.1466 -0.1508 -0.0788
55540W        W98593  28.511  15.546   5.136 -0.1789 -0.3515  0.0404
55541W        W98594  22.880  22.719   4.123 -0.1578 -0.1517  0.4185
55542W        W98595  14.398   7.423   6.911 -0.5004  0.3453  0.1284
55543W        W98596   5.999   0.572   5.058  0.3198 -0.0521  0.1542
55544W        W98597  10.493   5.016  18.968  0.2485 -0.0727 -0.0303
55545W        W98598  10.649  33.149  28.590 -0.1292 -0.0862 -0.1391
55546W        W98599   0.658   4.215  29.170  0.1780 -0.2939 -0.0566
55547W        W98600  14.192   6.648   5.020  0.0206  0.0320 -0.0805
55548W        W98601  10.864   5.744   3.547 -0.1726 -0.0248 -0.0273
55549W        W98602   3.420   1.842  28.591 -0.1888  0.1388 -0.0467
55550W        W98603  19.708   1.166  24.313  0.1416  0.0915 -0.1735
55551W        W98604  31.695  30.789  15.008 -0.3511 -0.1654  0.1278
55552W        W98605   8.663   1.004   4.318  0.0161 -0.0064  0.0277
55553W        W98606  28.432  32.349  22.944 -0.1660  0.1366  0.1834
55554W        W98607  30.113   5.079   6.229 -0.3488 -0.2324 -0.1656
55555W        W98608  15.331   0.274  24.357  0.1582  0.0524  0.0455
55556W        W98609  30.627   0.050  24.557  0.0409  0.1607  0.1744
55557W        W98610  12.162  24.394   1.027 -0.0375  0.2814  0.2407
55558W        W98611  34.129   8.683  24.368  0.0043  0.0955 -0.0776
55559W        W98612   6.364  34.027  26.706 -0.0167  0.1385 -0.0891
55560W        W98613  28.209   8.980  21.963  0.1176  0.0437 -0.2723
55561W        W98614  13.805  18.869  21.705  0.0941  0.0322 -0.0971
55562W        W98615   1.960  11.960  26.614  0.1050 -0.0376 -0.2101
55563W        W98616  17.679   2.378   3.362  0.3926  0.0397  0.4032
55564W        W98617  11.672  19.898  25.193  0.3816 -0.3099 -0.0548
55565W        W98618   6.299   3.148  20.032  0.0535  0.0542  0.2264
55566W        W98619  34.452  22.855  25.438  0.0610  0.0505 -0.0879
55567W        W98620   2.290   7.283  28.377 -0.3045  0.0807  0.2357
55568W        W98621   4.991  28.904  21.755 -0.4920  0.2741  0.0895
55569W        W98622   4.859   8.867   1.252 -0.0224 -0.3452  0.2424
55570W        W98623  34.113  12.749   5.404  0.0551 -0.2054  0.3570
55571W        W98624  18.074   2.889   0.024 -0.1928  0.2241  0.1770
55572W        W98625  16.126  31.858  10.047 -0.2484  0.1157 -0.0870
55573W        W98626   1.636  12.016  25.833  0.0476 -0.0880 -0.1009
55574W        W98627  31.761  11.372  15.057  0.2660 -0.0966 -0.0917
55575W        W98628  10.657  31.833  22.326  0.0714 -0.3581 -0.1327
55576W        W98629  24.479  15.388   0.956  0.0424  0.0798  0.2586
55577W        W98630  32.072   6.849  21.938 -0.0217 -0.1972  0.1582
55578W        W98631   5.720   6.070   9.922 -0.1387  0.0940 -0.0632
55579W        W98632  13.595  32.421  22.154  0.2547  0.2730  0.1512
55580W        W98633  17.781  24.561   4.938  0.0380 -0.1427  0.2480
55581W        W98634   1.177  27.154  21.660 -0.5519  0.0976 -0.3496
55582W        W98635   1.898   5.826  27.251 -0.0661 -0.1289 -0.1715
55583W        W98636  29.736  12.748   3.345 -0.0841  0.0231  0.1037
55584W        W98637   3.897  21.352   1.557 -0.3336  0.1807  0.0470
55585W        W98638  27.411   8.505  27.022  0.0403 -0.0089  0.0080
55586W        W98639  27.958  33.106   3.856  0.4525  0.2078 -0.6395
55587W        W98640  30.829   6.876  28.798  0.1886 -0.1961 -0.2682
55588W        W98641  18.184   8.082   2.291 -0.3145  0.2959 -0.0477
55589W        W98642  16.930  31.515  17.720  0.2923  0.0466  0.1568
55590W        W98643   9.751  25.221  17.175  0.1513  0.3499 -0.1219
55591W        W98644  32.969   5.101   1.603  0.4329 -0.1525  0.0260
55592W        W98645  31.187  24.216  26.966  0.2448 -0.2587  0.1839
55593W        W98646  32.782  14.368  18.398 -0.2709 -0.0404 -0.1154
55594W        W98647  15.423  25.699  25.280 -0.3441 -0.2308 -0.1370
55595W        W98648   7.140  13.170   1.432 -0.2009  0.0189 -0.4690
55596W        W98649  21.785   5.205  19.732 -0.2059  0.1004 -0.0594
55597W        W98650  31.122  22.304   2.434  0.1278  0.2015 -0.1399
55598W        W98651   2.260  26.555   7.843  0.0662  0.2008 -0.0775
55599W        W98652  34.549  19.295   1.953  0.1669  0.0842 -0.3005
55600W        W98653   7.571   7.141   9.465 -0.2139  0.0107  0.5018
55601W        W98654   7.498  31.411  27.373  0.0789  0.1306  0.2972
55602W        W98655  31.411  34.369   9.729 -0.3098  0.1950 -0.2165
55603W        W98656   3.837  33.806   3.900  0.1456 -0.1862 -0.2747
55604W        W98657   0.334  24.519   7.103  0.1086  0.1140 -0.2333
55605W        W98658  12.969  34.119   8.284  0.1465  0.2525 -0.0743
55606W        W98659  18.157  27.146   6.839  0.0288 -0.1504 -0.1975
55607W        W98660   5.286   2.638   9.018 -0.2505  0.2720  0.3674
55608W        W98661   4.314   7.386  24.239  0.1047 -0.0510 -0.1976
55609W        W98662  33.604  32.324   0.177 -0.0584  0.1382  0.0811
55610W        W98663  21.411  34.201   8.745 -0.4225  0.0603  0.1467
55611W        W98664  13.370  31.660   5.139  0.1487  0.0513  0.0720
55612W        W98665  24.305  26.191   7.852  0.2356  0.0845 -0.0755
55613W        W98666  20.168  33.263  20.389 -0.2805 -0.0176  0.2597
55614W        W98667  34.452  31.583   3.411 -0.0983 -0.0739  0.0366
55615W        W98668  20.279  25.605   7.819 -0.1654 -0.0813  0.1251
55616W        W98669  13.241  29.576  24.634  0.0010 -0.1613 -0.0117
55617W        W98670   6.158   8.774  22.350 -0.0203 -0.0474 -0.1156
55618W        W98671   9.686  17.754   7.225 -0.4059 -0.0602  0.1140
55619W        W98672  16.883   3.503   4.750 -0.0952 -0.0854  0.0460
55620W        W98673  27.791  15.117  17.671  0.2140 -0.3107 -0.0364
55621W        W98674   8.116  28.295   2.679  0.0513  0.4959  0.1085
55622W        W98675  12.586  27.851   7.162 -0.2347  0.1993 -0.2145
55623W        W98676  20.270  26.065   3.847  0.1015  0.4064 -0.0939
55624W        W98677   0.980  31.406   0.742  0.0680  0.0812 -0.0555
55625W        W98678  20.337   2.051   9.261 -0.0056 -0.0902 -0.0905
55626W        W98679   0.373  14.714  28.846 -0.1211 -0.1126 -0.1582
55627W        W98680  29.447  15.689  27.884  0.0545  0.3793  0.1083
55628W        W98681  23.273  30.090   2.496 -0.0966 -0.1822  0.1834
55629W        W98682   2.949  34.111   0.626  0.1914  0.1647  0.0552
55630W        W98683  12.644  33.140   8.923 -0.1924 -0.0521 -0.0159
55631W        W98684   3.598  30.414   9.019 -0.0473 -0.0813 -0.0748
55632W        W98685   4.716  11.759  21.272 -0.3421  0.0823 -0.1170
55633W        W98686   2.999   9.043   3.131 -0.0379  0.2479 -0.0930
55634W        W98687  11.415  25.241  28.691 -0.0532  0.0391 -0.2091
55635W        W98688   0.096  33.121  16.988 -0.0840 -0.0850 -0.2466
55636W        W98689  20.330  34.292  10.311  0.0073 -0.0661 -0.4787
55637W        W98690  24.264   5.079   2.656 -0.0656 -0.0575 -0.0157
55638W        W98691  16.268  32.932  10.643 -0.1528  0.1824  0.0915
55639W        W98692  25.702  34.479  23.740  0.0468  0.3543  0.3065
55640W        W98693   6.042   6.440  14.438  0.3891 -0.0146 -0.1115
55641W        W98694   4.746   2.243  13.814  0.1673 -0.1862  0.1136
55642W        W98695   7.900  11.642   4.322 -0.1262 -0.3029  0.2511
55643W        W98696  27.895   9.081  24.116  0.1042 -0.0090 -0.0949
55644W        W98697  21.006  21.440  24.640  0.1587 -0.3795  0.0533
55645W        W98698  16.470  26.148  27.750  0.2015 -0.1142  0.0304
55646W        W98699   3.293  25.837  22.376  0.0977  0.1867 -0.1038
55647W        W98700  26.099  34.676   5.656  0.2376 -0.1298 -0.0835
55648W        W98701  17.924  24.301  20.335  0.0995  0.0160  0.1582
55649W        W98702   4.563  33.293   9.268  0.2515 -0.0880  0.1119
55650W        W98703   6.749  10.811  18.035  0.0795 -0.0754 -0.1764
55651W        W98704  11.778   4.785   8.089 -0.2871  0.0343  0.2133
55652W        W98705  29.664  29.280  28.805 -0.0229  0.3534  0.0227
55653W        W98706  32.099   1.613  25.363  0.0381  0.0685 -0.0989
55654W        W98707   1.984  29.683  24.511  0.2734 -0.1400 -0.2938
55655W        W98708   0.197   7.078   4.261 -0.0729  0.3888 -0.1022
55656W        W98709  11.895  29.713   3.740  0.0190  0.1204  0.1501
55657W        W98710  22.957  34.342   8.332 -0.0023 -0.0775  0.1488
55658W        W98711  20.827   0.647  28.961 -0.2582  0.0546  0.2419
55659W        W98712  12.482  10.094   8.528 -0.2339  0.1975 -0.3329
55660W        W98713  25.444  10.159   9.087  0.1822  0.1185 -0.2984
55661W        W98714   6.558  23.885   1.850 -0.0665 -0.1636  0.3453
55662W        W98715   2.946   1.515   6.069 -0.1137 -0.0194  0.1176
55663W        W98716  24.590   6.661  17.177 -0.0388 -0.2352 -0.0151
55664W        W98717  16.893  32.165   4.646  0.0264 -0.3527  0.3517
55665W        W98718   8.451  12.838  20.188  0.5786  0.0354 -0.2557
55666W        W98719  25.156  27.264  27.480 -0.1212  0.2318  0.0777
55667W        W98720  24.396  27.679   7.261 -0.1482 -0.1226  0.0223
55668W        W98721   4.789  28.010  14.650  0.1337  0.1899 -0.1802
55669W        W98722   6.490  34.137   0.536 -0.1858  0.1075  0.0909
55670W        W98723   8.962  30.669  24.885  0.0151  0.1286  0.0667
55671W        W98724   3.265   4.322   9.692 -0.1674 -0.0965  0.1087
55672W        W98725  32.593  26.702   8.574 -0.0514  0.2077 -0.2022
55673W        W98726  10.249  33.822  27.700  0.2275 -0.1296  0.0930
55674W        W98727  11.461   3.216  27.046  0.1286  0.1443  0.2288
55675W        W98728  32.948  30.367  21.816 -0.1097 -0.1067 -0.1779
55676W        W98729  11.376  26.125  28.067 -0.4352  0.1906 -0.0301
55677W        W98730  30.033  29.621   3.447 -0.0178 -0.0499  0.3182
55678W        W98731  18.813   8.206  20.167  0.1283  0.0382 -0.2707
55679W        W98732  33.048  23.792   9.285  0.1437 -0.0907 -0.1205
55680W        W98733   3.107  34.336   9.180 -0.1542  0.0926  0.1060
55681W        W98734   8.943  31.502  17.736 -0.3621  0.0760  0.1212
55682W        W98735  19.676  30.043   4.986  0.3011 -0.0226  0.3226
55683W        W98736  30.628  16.259  17.985 -0.1865 -0.1141  0.0755
55684W        W98737   6.577  33.142  18.247 -0.0215 -0.1637  0.0012
55685W        W98738  30.408   8.891  25.765 -0.1334 -0.2193  0.1167
55686W        W98739  25.260  12.618   3.776 -0.0543  0.2737  0.4541
55687W        W98740   2.438   9.095   5.167  0.2427  0.3095  0.0079
55688W        W98741  10.678   9.328   3.936  0.1204 -0.0297  0.0607
55689W        W98742   2.908   0.436  26.076  0.0074 -0.0632  0.0486
55690W        W98743  29.491  29.833   6.429  0.2573 -0.2009 -0.2666
55691W        W98744   8.848  32.747   3.862  0.0850 -0.0777 -0.1638
55692W        W98745   1.264  28.044  15.882  0.1599 -0.2026  0.0763
55693W        W98746  13.162  14.117   0.302 -0.0622 -0.2412 -0.3300
55694W        W98747   7.404   4.380  17.547 -0.0278  0.0829 -0.2397
55695W        W98748  32.769  16.962  28.814  0.1965 -0.1097  0.0015
55696W        W98749  29.671  33.437   6.103 -0.1408 -0.1400 -0.0024
55697W        W98750  17.208  34.214   0.267  0.2014  0.2292  0.1229
55698W        W98751  29.191   8.344   7.305  0.3359  0.1922  0.1732
55699W        W98752  30.748   4.853   9.801  0.0432  0.0442 -0.0039
55700W        W98753  13.448  23.510  21.020 -0.2592  0.1425 -0.2592
55701W        W98754  11.857  13.673   0.238  0.2198 -0.3008 -0.2435
55702W        W98755  30.947   1.497  22.625 -0.0512  0.0899  0.0495
55703W        W98756   2.555  31.014   8.685 -0.0428  0.1877  0.1227
55704W        W98757   4.955  21.732  21.841  0.2043  0.0404 -0.1666
55705W        W98758   7.322  24.287  19.689  0.0804  0.3036  0.2106
55706W        W98759  17.451   7.476   6.359 -0.2855 -0.1661  0.1728
55707W        W98760  11.621  28.453   0.794  0.3017  0.1249 -0.0764
55708W        W98761   6.540  32.523  26.663 -0.2772 -0.0085  0.1655
55709W        W98762  12.644  17.459  20.730  0.0405 -0.1655  0.0538
55710W        W98763   1.446  12.914  10.109  0.0750  0.0197  0.3813
55711W        W98764  28.015  33.124  10.111 -0.1501 -0.1698  0.0899
55712W        W98765  13.621  22.460   2.348  0.1378 -0.1358 -0.3193
55713W        W98766   3.614   8.595   2.487 -0.0269  0.1043 -0.3684
55714W        W98767   5.006  25.950  29.092 -0.2579 -0.0908  0.0383
55715W        W98768   3.353   4.656  16.631 -0.0898 -0.2060 -0.0013
55716W        W98769  32.534   3.879   9.466  0.2707  0.0237  0.3620
55717W        W98770  11.845  27.175  27.739 -0.0846  0.3245 -0.2044
55718W        W98771   7.526   7.994  20.582 -0.2454  0.3336  0.1086
55719W        W98772  33.589  19.341  20.840  0.1130  0.1487 -0.1789
55720W        W98773  30.351  16.108   7.724  0.2196  0.6158 -0.0956
55721W        W98774  34.238  30.477  24.075 -0.0587 -0.2997  0.1100
55722W        W98775  17.271  29.844   6.382  0.0942  0.4885  0.1423
55723W        W98776  33.774   9.451  27.977  0.4683 -0.2356 -0.0070
55724W        W98777  18.959  32.282  25.766  0.3331  0.0039 -0.0470
55725W        W98778   1.126  34.488   4.700 -0.3251  0.0169  0.0681
55726W        W98779  20.129   7.780  24.819 -0.2395 -0.1043 -0.3951
55727W        W98780   9.567   6.973  15.748  0.0258  0.0618  0.0040
55728W        W98781  32.657  22.170   4.871 -0.2573  0.0135 -0.2214
55729W        W98782  28.797   3.467  23.282  0.1350 -0.4248 -0.2584
55730W        W98783  21.735  30.973  24.798 -0.3217  0.2657 -0.1999
55731W        W98784   0.461  30.106  19.754  0.1659 -0.1390  0.2960
55732W        W98785  31.739   2.059  19.006 -0.5118 -0.2546 -0.1606
55733W        W98786   7.542  28.750   6.789  0.1194  0.1059  0.0296
55734W        W98787  32.580  12.035   2.513  0.0457  0.0220  0.4168
55735W        W98788  25.211  12.836   8.909  0.2263 -0.3422 -0.0363
55736W        W98789   2.334  29.461   5.871 -0.3226  0.0928  0.1075
55737W        W98790   7.105  29.808   5.786 -0.2623  0.0064  0.0360
55738W        W98791  26.059  32.176  26.917 -0.0410  0.2087  0.1644
55739W        W98792   7.160   6.703   6.965 -0.2272 -0.1459  0.2621
55740W        W98793  10.299  30.381  25.995  0.2326  0.2672 -0.1215
55741W        W98794  27.183   0.832  23.719  0.3831 -0.3128  0.2838
55742W        W98795  29.312  28.154  15.383  0.1681 -0.2815  0.1094
55743W        W98796  33.615   1.656  28.413  0.0481 -0.0127  0.2597
55744W        W98797  27.514  31.092  16.960  0.1497 -0.0019  0.4907
55745W        W98798  19.525  23.729  16.370  0.2114 -0.1108  0.2209
55746W        W98799  34.651   2.055   9.480 -0.0616  0.0229  0.0742
55747W        W98800  22.961   1.158   0.690  0.0579  0.0597 -0.1570
55748W        W98801  33.997  24.561  17.408 -0.1268 -0.1956  0.0006
55749W        W98802   1.327  30.480   1.430 -0.4877 -0.0695 -0.1187
55750W        W98803  12.486  16.432   5.582 -0.4900 -0.1080 -0.3703
55751W        W98804   6.664  30.410   9.323  0.1772  0.4339  0.3162
55752W        W98805  27.449  30.701   5.878 -0.0861 -0.0149  0.0478
55753W        W98806   6.353   7.765  25.652  0.0878  0.1525 -0.0057
55754W        W98807  29.975  29.591  24.726  0.1596  0.1531  0.2240
55755W        W98808  28.413   8.815  17.161 -0.0504  0.1393  0.2456
55756W        W98809  22.008  33.099  20.987 -0.1461  0.1109 -0.1234
55757W        W98810  34.588   0.168   0.795  0.0316  0.1655 -0.0377
55758W        W98811  32.401   4.634   0.203  0.3144  0.1813 -0.4455
55759W        W98812  21.014  32.505  23.002  0.1052 -0.1540 -0.0908
55760W        W98813  28.676   1.831   2.108 -0.0601  0.1354 -0.0514
55761W        W98814  11.145   0.841   1.691 -0.1140 -0.2141  0.2759
55762W        W98815   2.298  16.457   3.368  0.2935 -0.0427 -0.0504
55763W        W98816   5.269  30.453  20.980 -0.1240  0.3575 -0.1738
55764W        W98817  15.746   8.759   5.383  0.1578 -0.1479  0.1871
55765W        W98818  23.560  22.918  23.891 -0.0247 -0.0840 -0.2550
55766W        W98819  17.350  25.940   9.657  0.2813 -0.0374  0.0081
55767W        W98820  31.483  24.709  28.433  0.1271 -0.0716  0.1275
55768W        W98821  29.680  29.379  28.255  0.1566 -0.0388 -0.2121
55769W        W98822   3.500  20.911   4.215 -0.3188  0.3656 -0.0693
55770W        W98823  21.779  31.342  17.748 -0.0499 -0.2215 -0.2697
55771W        W98824  24.466   1.041   8.642  0.2725 -0.2261 -0.0211
55772W        W98825  19.429   6.718  28.392 -0.2393 -0.1458  0.0466
55773W        W98826  28.912  25.961   0.265  0.0343 -0.3056 -0.1002
55774W        W98827   6.220   1.068   1.457 -0.0891 -0.3008 -0.2733
55775W        W98828  29.360  31.055   4.550  0.0798 -0.5783  0.2939
55776W        W98829  28.852   4.341  24.994 -0.1081  0.3574  0.0123
55777W        W98830  23.360  12.246  20.280 -0.0611  0.1667 -0.5206
55778W        W98831   4.156  19.837  26.177  0.0347  0.0541  0.0155
55779W        W98832  28.242   0.865   5.821 -0.1117 -0.0650 -0.0009
55780W        W98833  26.841   3.478  16.176  0.1133 -0.2276 -0.2210
55781W        W98834   1.281  28.937   3.765  0.0593 -0.3136 -0.1164
55782W        W98835  29.084  26.385   7.349  0.0495 -0.1942  0.2329
55783W        W98836   2.953  12.885   4.248 -0.0478  0.0556 -0.0685
55784W        W98837   2.278  14.404   2.444 -0.1718  0.0097  0.0545
55785W        W98838  17.942   4.991   9.908  0.0026 -0.0412  0.0314
55786W        W98839   5.388   7.785   6.838  0.2285  0.2077 -0.1185
55787W        W98840  33.384  28.230   7.159  0.1442 -0.3722  0.3550
55788W        W98841  12.111  30.453   6.703 -0.0999  0.3431 -0.0029
55789W        W98842  30.472  11.086   7.606  0.1693  0.2115  0.3296
55790W        W98843  22.458  20.230  17.379 -0.2430 -0.0811 -0.1700
55791W        W98844   5.631   2.548   5.165 -0.2422 -0.1112  0.1773
55792W        W98845  22.437  23.263   6.086 -0.1476  0.0684  0.0692
55793W        W98846  22.724  12.074  27.886 -0.0485  0.0335  0.1225
55794W        W98847  18.807  33.544   0.385 -0.0665 -0.2360 -0.0272
55795W        W98848   5.425  31.366   9.684 -0.1855  0.0502  0.0099
55796W        W98849   9.940  34.275   9.202  0.2238 -0.3407  0.2017
55797W        W98850   5.092   7.641   9.000  0.0954  0.0633 -0.0770
55798W        W98851  12.284   5.954  11.113  0.1378  0.0906  0.2127
55799W        W98852  24.234  22.981  25.510 -0.3106  0.1305 -0.2796
55800W        W98853  20.489   6.650  24.900  0.0012  0.0652  0.1531
55801W        W98854  14.564   4.932  27.142 -0.1042  0.1461 -0.2140
55802W        W98855  27.245  32.784  19.535 -0.2969  0.1664  0.2356
55803W        W98856   5.550  21.462  22.448  0.0491 -0.0152  0.0428
55804W        W98857   0.831   5.794   3.250  0.2687  0.3795 -0.1270
55805W        W98858  22.958  12.478  28.145 -0.0153  0.0727 -0.3119
55806W        W98859  29.687  21.257   7.214  0.0599  0.0292 -0.3306
55807W        W98860  25.249   7.539  23.727  0.0638  0.2529 -0.0481
55808W        W98861   0.672   3.654  26.664 -0.4249 -0.1127 -0.1715
55809W        W98862  23.871   6.702  28.433 -0.0872  0.0624 -0.1591
55810W        W98863  32.243   7.706  25.473  0.2021 -0.0075  0.0716
55811W        W98864  32.458   6.030  28.803 -0.0553  0.0253  0.0574
55812W        W98865   9.183  34.398   1.598  0.1816  0.0119  0.0377
55813W        W98866  30.237  12.769   4.660  0.3027 -0.0411  0.0272
55814W        W98867  21.167  18.757  28.977 -0.0046  0.1667 -0.1920
55815W        W98868   6.775  18.009   4.916  0.2255 -0.0106 -0.3592
55816W        W98869  19.136   7.343  15.627  0.1420  0.3404 -0.0978
55817W        W98870  29.729   3.848   4.310  0.1467 -0.3088  0.0201
55818W        W98871  16.028   6.789   1.374 -0.2807  0.2636  0.0084
55819W        W98872  12.016  17.534   1.380 -0.0713 -0.0097 -0.1655
55820W        W98873   6.472   2.427   6.236  0.4846  0.0692 -0.2027
55821W        W98874  11.876  13.109  18.102  0.2450 -0.1879  0.0552
55822W        W98875  28.755  13.146  23.417 -0.2593 -0.1651 -0.0121
55823W        W98876   3.111  13.812  25.135 -0.1228 -0.0525 -0.0185
55824W        W98877  32.911   2.862  20.415  0.4540 -0.2003  0.1769
55825W        W98878   9.143   8.214   6.906  0.1148 -0.2526 -0.1695
55826W        W98879  31.676  21.540   9.667  0.0024  0.0771 -0.1329
55827W        W98880  31.501  31.818   4.816  0.0418  0.2001  0.2650
55828W        W98881  29.926   2.483   5.676  0.2666 -0.0222 -0.0183
55829W        W98882  11.121  34.209   9.367  0.0181 -0.2071  0.0914
55830W        W98883   9.499  33.322   3.344 -0.0154 -0.0914 -0.1417
55831W        W98884  33.762   7.923   9.578  0.0876  0.0710  0.6510
55832W        W98885   9.002   7.753  27.117 -0.2123  0.0920  0.2640
55833W        W98886  30.308   6.798  16.556  0.0299  0.1806  0.0264
55834W        W98887  12.517  28.710   1.644  0.0361 -0.1073 -0.1799
55835W        W98888  28.811  33.137  25.750  0.1481  0.0276 -0.2544
55836W        W98889   9.087  34.066   6.483 -0.0935  0.2382 -0.1820
55837W        W98890  18.310   2.375   8.350  0.1110  0.0900 -0.3645
55838W        W98891   3.388  31.107  17.093  0.0712 -0.2690  0.2648
55839W        W98892  22.514  13.597  27.977 -0.2230  0.2664 -0.2686
55840W        W98893  16.294  11.391   0.606 -0.1646 -0.0017 -0.1186
55841W        W98894   5.546  17.934   2.597 -0.4072  0.0351  0.5304
55842W        W98895   5.223   5.968   9.916 -0.2045 -0.1344 -0.0316
55843W        W98896  12.367  16.744   5.961 -0.0596  0.0345  0.1434
55844W        W98897   8.063   2.163  10.815  0.1123 -0.0219  0.0592
55845W        W98898  25.646  15.050  28.443  0.1519  0.5191  0.0615
55846W        W98899  19.758  25.936  28.305  0.3270  0.0872  0.1710
55847W        W98900   3.597   9.020  19.271  0.2283  0.4790 -0.0362
55848W        W98901  34.046  33.034   6.287  0.0320 -0.0708  0.1764
55849W        W98902  33.806  28.291   9.211 -0.2772 -0.1107  0.0736
55850W        W98903  10.645  20.325   7.429  0.0895 -0.2753  0.0243
55851W        W98904  15.161   0.021   5.976 -0.0036  0.2903 -0.3493
55852W        W98905   3.200  27.212  24.941 -0.2951  0.1316  0.0974
55853W        W98906  27.720   9.509  25.179 -0.2858 -0.1226 -0.0186
55854W        W98907   6.638  23.049   0.610  0.0367 -0.0079 -0.1229
55855W        W98908   9.915  12.357   9.511 -0.1784 -0.1223 -0.0538
55856W        W98909   8.136  12.059   9.056 -0.2791  0.2671 -0.1346
55857W        W98910  14.401  24.017   7.549 -0.0274 -0.0200 -0.0035
55858W        W98911  30.450  34.657   8.016 -0.5696  0.2623  0.0202
55859W        W98912  17.008  33.732   1.739  0.0135 -0.1480 -0.0733
55860W        W98913   7.466   6.941  22.287 -0.1706 -0.3003 -0.0658
55861W        W98914  18.341  26.123  23.376  0.1548 -0.1743 -0.0478
55862W        W98915  28.416  29.441   1.005  0.4166 -0.0292  0.0578
55863W        W98916   4.872   6.253  27.437  0.1877 -0.0626  0.1308
55864W        W98917  23.008   5.657   6.211 -0.4260 -0.2929  0.3780
55865W        W98918  33.564  10.097   5.302 -0.3894  0.0431 -0.0724
55866W        W98919   5.791  22.186   2.113 -0.1466  0.0508 -0.2160
55867W        W98920   7.514  27.460  28.949 -0.0001  0.0173 -0.1586
55868W        W98921  34.270  32.623   7.597  0.1585  0.3051 -0.3620
55869W        W98922  10.633  27.247  27.261 -0.1478  0.0780  0.2093
55870W        W98923   7.789  16.188   7.676 -0.0643 -0.0230 -0.2507
55871W        W98924  10.484   1.642  28.202 -0.1201 -0.1451  0.2143
55872W        W98925   4.766   7.712  27.862 -0.3684 -0.1020 -0.1482
55873W        W98926  23.305   3.850   9.435  0.3778 -0.1529  0.0232
55874W        W98927   6.343   5.743   8.815  0.0212 -0.2797 -0.0280
55875W        W98928  24.010  17.877   0.097  0.1732 -0.1099 -0.2025
55876W        W98929   8.802  20.662   1.077 -0.1173 -0.0854 -0.2788
55877W        W98930  27.458  33.315  21.024  0.0464 -0.1303  0.0135
55878W        W98931  31.690   0.214   0.197  0.0641 -0.0639  0.0436
55879W        W98932   3.835  31.676   6.506  0.1203  0.1045  0.1557
55880W        W98933  20.433   0.668   9.399  0.0432  0.2001 -0.2999
55881W        W98934  16.119   9.908   5.986  0.0133  0.3007  0.1995
55882W        W98935   1.199  34.530  26.345 -0.1827  0.2981  0.2360
55883W        W98936  33.659  31.050   0.660  0.3016 -0.0177  0.0003
55884W        W98937  31.566  23.460  17.179 -0.5175 -0.2891  0.0263
55885W        W98938   7.694   3.617   3.194  0.3289 -0.0461 -0.1155
55886W        W98939  26.263  28.966   7.034  0.0682  0.1715  0.1578
55887W        W98940  34.340  34.498   8.831 -0.0790 -0.2603  0.1437
55888W        W98941   0.176   9.507   7.872 -0.1872 -0.2771 -0.1984
55889W        W98942   0.839   9.035  19.670 -0.1753  0.1136 -0.1635
55890W        W98943  29.036  14.718   8.347 -0.0292 -0.1007 -0.0789
55891W        W98944  29.008   1.696  28.819  0.0185 -0.3474 -0.0153
55892W        W98945   1.076  29.078   1.545 -0.2100 -0.0905  0.2163
55893W        W98946   5.572  34.370   8.203 -0.1263  0.0981 -0.2327
55894W        W98947   4.948   4.356   2.895  0.1785 -0.1340 -0.1691
55895W        W98948   2.772  24.660   8.415 -0.2651  0.3477  0.1107
55896W        W98949  22.551   7.231  23.237  0.0951  0.0816  0.3021
55897W        W98950   0.365  19.565  27.732 -0.1173 -0.1226 -0.1325
55898W        W98951  21.095   7.889   8.772 -0.1827  0.0850  0.2610
55899W        W98952   6.064  31.938   1.784  0.3748  0.0443 -0.0821
55900W        W98953   3.811  11.814   9.742  0.4460  0.0203 -0.2250
55901W        W98954  30.123   3.942  20.427  0.2322 -0.1327 -0.1659
55902W        W98955  30.421   1.797   0.934  0.0676 -0.0481 -0.1113
55903W        W98956  23.804  32.977   5.780  0.0048  0.1568  0.1580
55904W        W98957   3.941   4.581  23.314 -0.3720 -0.1417 -0.1112
55905W        W98958  18.005  11.338   8.635  0.0410  0.2086 -0.1224
55906W        W98959  30.363   5.739   0.655  0.3506  0.2860  0.0109
55907W        W98960  31.855  28.030  25.038 -0.0598 -0.1424  0.0449
55908W        W98961  20.629  22.868   7.695 -0.3120  0.0926 -0.0655
55909W        W98962   5.348   0.119   5.995 -0.0263  0.3360  0.0013
55910W        W98963  32.233   8.570  10.875  0.2351 -0.1905  0.1776
55911W        W98964  32.705  28.525  19.336  0.1142  0.0385  0.1201
55912W        W98965  31.855  30.137  27.244 -0.0444 -0.0439  0.1872
55913W        W98966   2.322  25.650   5.468  0.0124  0.0269  0.0018
55914W        W98967   0.705   1.102   2.918  0.0082 -0.0542 -0.1454
55915W        W98968  24.866   6.754  26.902 -0.1476  0.0286  0.1890
55916W        W98969   7.037  27.097   1.030  0.0298 -0.1750  0.0515
55917W        W98970  21.687  12.622  26.022 -0.3204 -0.0517  0.0286
55918W        W98971   9.667  27.826   1.219 -0.0120  0.0555 -0.0534
55919W        W98972   2.404  28.391   8.095  0.1583 -0.0523  0.4001
55920W        W98973  28.074  26.979   3.603 -0.1670  0.0604  0.3387
55921W        W98974   5.144  32.742   0.548  0.2014  0.3507 -0.3261
55922W        W98975  29.691   7.468  28.313  0.0998 -0.2872 -0.0919
55923W        W98976  30.715  27.853   7.147  0.1213  0.3535  0.0022
55924W        W98977  29.484  20.681   8.547  0.2780 -0.1385  0.2106
55925W        W98978   5.734  15.061   1.283  0.2383 -0.0292 -0.0259
55926W        W98979  28.283   5.557   9.281  0.1630 -0.0559 -0.2785
55927W        W98980   8.960  25.307   7.226  0.2764  0.1785 -0.0747
55928W        W98981   7.592  33.034  23.041 -0.1530 -0.0528  0.1163
55929W        W98982   6.573  29.150   2.098 -0.0156  0.2215  0.0680
55930W        W98983  34.082   3.782   4.840 -0.0281  0.0370  0.0795
55931W        W98984   4.165   1.482   1.729  0.1038  0.0303  0.0879
55932W        W98985   0.319   5.965  29.173  0.3662 -0.0071  0.0047
55933W        W98986  15.189  31.689  27.839 -0.0703 -0.0367 -0.0631
55934W        W98987  30.147  19.736   1.825  0.1938  0.0524  0.0657
55935W        W98988  28.481   2.986   7.154  0.0703  0.1372  0.0441
55936W        W98989  33.476   4.693  23.291  0.2246  0.2466  0.0156
55937W        W98990  32.556  31.665  24.911 -0.0163  0.1760  0.0299
55938W        W98991  25.119  26.459   5.192 -0.1729  0.2764  0.1638
55939W        W98992  27.373  29.039   8.474 -0.2534  0.2264 -0.2823
55940W        W98993  30.977  20.542  28.582 -0.2184 -0.0036 -0.2023
55941W        W98994   7.343  26.403   1.080 -0.0053  0.1179  0.0199
55942W        W98995   8.258   6.868   4.347  0.0100 -0.0775  0.2844
55943W        W98996  25.032   5.780   4.212 -0.0384  0.2134  0.0268
55944W        W98997   2.223   7.609  25.366 -0.0175  0.0080 -0.1795
55945W        W98998   0.092   8.588   4.480  0.3792 -0.1717 -0.3122
55946W        W98999  15.940  29.672   6.709  0.0643  0.2336 -0.1452
55947W        W99000  26.307   7.951   0.358 -0.1474  0.1089  0.1229
55948W        W99001  10.951  30.950  26.173 -0.0892  0.1562  0.1579
55949W        W99002  27.069   2.541   9.412 -0.1725 -0.1035  0.0304
55950W        W99003   3.464  17.367   4.784 -0.0263 -0.2329 -0.1175
55951W        W99004   5.571  32.130  21.254  0.1690  0.0578 -0.0990
55952W        W99005  33.193  12.663  15.173  0.1979 -0.1558 -0.1340
55953W        W99006   8.662  13.555  26.854 -0.0104  0.0986  0.4695
55954W        W99007   2.419  29.753   0.486 -0.1179  0.0788 -0.2005
55955W        W99008   1.446   3.420   9.021 -0.1150  0.0935  0.0535
55956W        W99009   1.496  28.069   7.720 -0.2709  0.1674 -0.1840
55957W        W99010  15.096  32.985  26.529  0.0840  0.3568  0.0586
55958W        W99011  17.579  32.016  28.568 -0.0139 -0.1050  0.1577
55959W        W99012   4.941  30.225   2.560  0.3855 -0.1740 -0.1121
55960W        W99013  32.947   6.599  17.929  0.0627  0.2919 -0.1063
55961W        W99014  20.472  33.728   5.855 -0.0668  0.0967 -0.1424
55962W        W99015  22.110  23.578   1.381  0.3829 -0.0210  0.1208
55963W        W99016  30.635   2.959   4.364  0.2470  0.3020  0.0480
55964W        W99017  24.040  32.476  22.560  0.0439  0.0585 -0.0590
55965W        W99018   3.891   7.843   2.141 -0.0478 -0.3047 -0.2762
55966W        W99019  12.410   3.730  22.796 -0.3753  0.0225 -0.0580
55967W        W99020  10.992  20.151   7.792  0.1058 -0.1272 -0.1089
55968W        W99021  25.417   3.006   7.547  0.1823  0.0060 -0.2438
55969W        W99022  22.794  28.442   1.951 -0.0936 -0.1608 -0.0914
55970W        W99023   4.129   9.026  10.223  0.1370 -0.1923  0.1617
55971W        W99024  15.726  12.651   3.925 -0.0529 -0.2089 -0.4701
55972W        W99025   7.502  33.056   8.994 -0.0464  0.0380 -0.1810
55973W        W99026  11.803  33.249   0.006 -0.1592  0.4079 -0.1732
55974W        W99027  33.666  22.734   6.146 -0.0433  0.0376  0.1149
55975W        W99028   2.246   0.082   0.823 -0.1594 -0.2119  0.1203
55976W        W99029  22.701  12.146   5.503 -0.0945 -0.7024 -0.2260
55977W        W99030  20.168  11.262  20.719 -0.3379  0.1116 -0.1317
55978W        W99031   9.853   9.581   4.991 -0.0681  0.0179  0.0777
55979W        W99032  22.341  34.276   2.194  0.0412  0.0096 -0.1456
55980W        W99033  22.041  11.052   2.780  0.1223 -0.0937 -0.0174
55981W        W99034   6.435   2.778   9.787  0.1965  0.0703  0.2271
55982W        W99035  34.072  32.543  28.414 -0.2514 -0.1265  0.1683
55983W        W99036  28.229  31.129  10.688  0.4382 -0.1644 -0.0553
55984W        W99037  32.990  10.609   6.924  0.2552  0.1941  0.0772
55985W        W99038  18.741   6.212   4.815  0.1641  0.1005 -0.3927
55986W        W99039  30.989  34.429  14.041  0.0620  0.0156 -0.6333
55987W        W99040  27.928   0.294  24.519 -0.1874  0.0673 -0.0237
55988W        W99041   5.370  14.101  24.624  0.2583  0.1268 -0.3511
55989W        W99042   2.905  27.585   9.873  0.2980  0.0514 -0.0326
55990W        W99043  13.634  23.207   7.320 -0.0279  0.0458 -0.0046
55991W        W99044  16.941  34.187  20.156 -0.0286 -0.0604  0.0954
55992W        W99045  18.892  31.577   8.560  0.3943 -0.1673 -0.0865
55993W        W99046   2.365   7.218   4.488  0.0101 -0.0438  0.0944
55994W        W99047  27.857   0.939   3.403 -0.1340  0.0577 -0.1425
55995W        W99048  33.428  31.582   3.014  0.1147  0.0858 -0.1712
55996W        W99049  27.300   3.062  26.674 -0.1280 -0.0486  0.2382
55997W        W99050  23.169  15.552  23.063  0.0622 -0.0018 -0.2010
55998W        W99051   1.105  18.350  25.871  0.0910 -0.1417  0.1051
55999W        W99052  30.717  28.030   5.660  0.1168  0.0145 -0.2248
56000W        W99053  15.256   3.012   4.357  0.0329  0.1773 -0.1138
56001W        W99054   7.902  32.041   3.075  0.1365  0.0771 -0.0160
56002W        W99055  15.161  13.925   8.402 -0.0003  0.0900 -0.3742
56003W        W99056  32.206  13.932  29.084 -0.0425  0.0526 -0.1611
56004W        W99057   2.294   9.604  25.621 -0.0370  0.1088  0.0232
56005W        W99058  26.833   3.422   9.788 -0.0639  0.1884 -0.3357
56006W        W99059  12.512   6.921  17.218  0.4633 -0.1911  0.0511
56007W        W99060   3.896   2.985  19.089 -0.1174  0.3117  0.0588
56008W        W99061  30.918  18.346  23.458 -0.3291  0.3898 -0.2044
56009W        W99062   8.770   4.018  25.421 -0.0791  0.1105  0.0680
56010W        W99063  27.632   2.936   8.087  0.0975 -0.2267  0.0098
56011W        W99064   5.166  24.955   7.891 -0.0824  0.0487  0.2025
56012W        W99065   1.650  24.626  23.243 -0.1188 -0.0549 -0.0419
56013W        W99066  26.130  16.635  25.982  0.0418 -0.2455  0.2838
56014W        W99067  16.788  26.829  26.636 -0.0838 -0.2014 -0.2165
56015W        W99068  12.300   7.630  10.407 -0.0972  0.2187 -0.1033
56016W        W99069  13.364   6.233   9.700  0.1295  0.2021 -0.0564
56017W        W99070  32.867   2.100   6.514  0.0446  0.1658  0.1035
56018W        W99071  16.412  21.576  27.365 -0.2618  0.2747 -0.4685
56019W        W99072   4.552  26.678   3.637  0.3283  0.0724 -0.2885
56020W        W99073  25.442   8.139  29.157 -0.3859 -0.0857  0.1200
56021W        W99074  33.843  15.982   5.720  0.3507  0.1284  0.1505
56022W        W99075  16.114  19.034  29.065  0.6200 -0.0398  0.0556
56023W        W99076  29.717  32.743   4.963 -0.1113  0.2639 -0.2239
56024W        W99077  32.212  24.078   8.925  0.3320  0.1246 -0.0784
56025W        W99078   6.957   9.721  10.056 -0.1254 -0.2452  0.3106
56026W        W99079  32.987   6.317   6.856 -0.1944 -0.0066  0.1384
56027W        W99080  29.883  14.937  23.607 -0.0625 -0.1719 -0.1628
56028W        W99081  19.177   5.100  10.663  0.1309  0.0855  0.0272
56029W        W99082  14.683  27.498   5.874 -0.2251  0.0514 -0.0126
56030W        W99083  15.101  26.586  27.832 -0.5397  0.0382 -0.1340
56031W        W99084  28.018   7.003  18.441  0.1505  0.1937 -0.1454
56032W        W99085  33.600  32.146   9.094  0.1904 -0.0908 -0.0441
56033W        W99086  18.619  32.506   6.094  0.3020  0.1013 -0.2219
56034W        W99087  12.252   7.503   1.679 -0.3643  0.2509  0.2465
56035W        W99088  20.019  23.730   5.647 -0.0637 -0.0331  0.1246
56036W        W99089   5.892  18.301   2.574 -0.0760  0.1743 -0.0466
56037W        W99090   7.851   8.028  10.485  0.0287 -0.3008 -0.1065
56038W        W99091  27.490  11.510  17.830  0.0688 -0.1228  0.0022
56039W        W99092   1.938   5.430   5.799  0.0808  0.0718 -0.1495
56040W        W99093  10.086  24.488  27.886 -0.0275  0.4201  0.1868
56041W        W99094  12.673  19.430   5.263  0.1036  0.1113  0.1363
56042W        W99095   4.492  27.752   2.372 -0.0985  0.0729  0.3722
56043W        W99096  22.129   7.051   7.024  0.1087 -0.3050  0.0282
56044W        W99097  32.843   7.796   6.574 -0.0745 -0.1235 -0.2113
56045W        W99098  31.630  32.655   2.646  0.1320 -0.3743  0.0184
56046W        W99099  33.468  29.800  28.667  0.1604 -0.0683  0.2841
56047W        W99100  31.036  32.080   4.402  0.1707 -0.0081  0.0022
56048W        W99101  27.081  15.376  16.034  0.1455  0.0475  0.1582
56049W        W99102  32.843  11.385   7.604  0.3145 -0.3237 -0.1867
56050W        W99103   1.006  13.350   6.368 -0.4556 -0.2554 -0.0949
56051W        W99104  30.832   0.593  18.243  0.3142 -0.0519 -0.1347
56052W        W99105  11.382  32.097   4.471  0.1648  0.3386 -0.1033
56053W        W99106  30.173   7.726   3.459  0.1620  0.1074 -0.1275
56054W        W99107  33.623   1.441   7.443  0.1946 -0.4077  0.1539
56055W        W99108  18.615  16.282  13.309 -0.0777  0.2305  0.1829
56056W        W99109   6.339   0.864   7.344 -0.2771 -0.0227  0.1890
56057W        W99110  32.625  23.963   7.012  0.1701  0.0539  0.1602
56058W        W99111  24.140  18.544   3.039  0.0914 -0.0329 -0.0168
56059W        W99112   7.996   3.214   1.506  0.0004  0.1379  0.0592
56060W        W99113  29.148   2.800  23.930  0.1271 -0.1058  0.0061
56061W        W99114   9.552  33.248   9.220 -0.0629  0.0134  0.2982
56062W        W99115  25.147  29.645   0.230  0.0659 -0.1173 -0.1035
56063W        W99116  19.245  18.971   1.694  0.1142 -0.2240  0.2210
56064W        W99117  32.676   4.619   7.275  0.0036  0.0251 -0.0335
56065W        W99118   2.460  28.403  28.539 -0.0295 -0.0140  0.1306
56066W        W99119   4.027  28.444  21.374 -0.4654 -0.0239 -0.0599
56067W        W99120   1.126   6.711   2.987 -0.0239  0.2032  0.0529
56068W        W99121  22.637  11.655   5.863  0.0544 -0.2380  0.2847
56069W        W99122  10.241  21.741   5.084  0.0805  0.0609  0.1545
56070W        W99123  17.210  26.529  26.648 -0.1842  0.1528  0.2062
56071W        W99124  33.187   6.964  25.356  0.1646 -0.2644 -0.3246
56072W        W99125   1.386   0.498   5.395  0.0462 -0.1395  0.0691
56073W        W99126  32.444   2.207   7.882  0.0655  0.2186 -0.0632
56074W        W99127   8.629  32.986  27.515  0.3944  0.1976 -0.3445
56075W        W99128  23.461   3.865   5.033 -0.0388  0.1615 -0.2050
56076W        W99129  17.768  22.909  27.049 -0.2760  0.2075  0.0897
56077W        W99130   1.662   8.039   8.454  0.2677 -0.1457  0.0908
56078W        W99131  29.497   4.562   6.523 -0.1571  0.0792 -0.0914
56079W        W99132  30.779  16.366  24.636  0.2437  0.2420 -0.1167
56080W        W99133  33.020  27.025  21.040 -0.0715  0.0445 -0.4268
56081W        W99134  22.159   7.156  26.715  0.1579 -0.0650  0.0711
56082W        W99135   1.381  12.093  28.985  0.0084  0.0839  0.2545
56083W        W99136  30.754  30.565  26.512  0.1864  0.1997  0.1232
56084W        W99137  18.630   2.109   9.596 -0.0385  0.1404  0.0991
56085W        W99138   7.836  19.633   1.933 -0.1251 -0.0611  0.0745
56086W        W99139  28.983  32.295   8.206  0.2809 -0.2302 -0.0739
56087W        W99140   9.900   0.714  18.052 -0.2436 -0.3395 -0.3265
56088W        W99141  20.096   8.342  24.067  0.1927 -0.2977 -0.1686
56089W        W99142  14.152   2.034   8.462 -0.2117  0.0110  0.0694
56090W        W99143  10.833  34.435   7.912  0.3282  0.2103  0.0377
56091W        W99144   8.581  18.239   0.988  0.0656 -0.0777 -0.1053
56092W        W99145   8.155  16.077  25.907  0.0272  0.1177 -0.1154
56093W        W99146  34.298  27.967  23.538  0.0499 -0.0430 -0.1227
56094W        W99147  12.944  27.195   1.318 -0.1946 -0.0551 -0.2299
56095W        W99148   4.822  26.713   2.178 -0.0476  0.0508 -0.3623
56096W        W99149  11.873  34.613   4.826 -0.2311  0.2343  0.0054
56097W        W99150  33.643   7.513   9.827  0.4269  0.1657 -0.7188
56098W        W99151  14.661  32.040   3.368 -0.0615 -0.0200 -0.2136
56099W        W99152  23.603  10.757  10.065 -0.1035 -0.0441 -0.0456
56100W        W99153  26.759  33.782   6.268  0.5150 -0.0986  0.0047
56101W        W99154   3.728   6.732   6.609  0.2084  0.3387 -0.4616
56102W        W99155  24.940  18.984  22.967  0.4693 -0.0088 -0.0650
56103W        W99156  22.627  22.391  25.921  0.2539 -0.3791  0.1265
56104W        W99157  27.595  31.520   9.394  0.2355 -0.1042  0.3278
56105W        W99158   4.748   2.061  16.697 -0.1334  0.0385 -0.1968
56106W        W99159  27.643   2.667   3.071  0.3170 -0.0420  0.1655
56107W        W99160  24.794   1.352   9.161 -0.0972  0.0863  0.0957
56108W        W99161  26.455  27.315   3.154 -0.0671 -0.3716  0.0360
56109W        W99162  28.979  23.999   0.926 -0.1417 -0.0689 -0.0568
56110W        W99163  34.218  26.089   2.693  0.2345 -0.2881 -0.0792
56111W        W99164  29.997   0.185   6.016  0.1853  0.1717 -0.1429
56112W        W99165  21.403   9.570  25.651  0.0739 -0.1305 -0.0281
56113W        W99166  19.796  31.227  28.606  0.0727 -0.2390 -0.1581
56114W        W99167   4.276  21.341   4.502 -0.2161  0.0088  0.0557
56115W        W99168  19.984  11.962   9.134  0.0993 -0.1925 -0.3370
56116W        W99169  13.947  20.234  23.771 -0.0286 -0.2647 -0.0540
56117W        W99170  25.854  14.418   2.893 -0.0666  0.2068 -0.3383
56118W        W99171  22.054  32.876   2.436 -0.2184 -0.1204  0.3033
56119W        W99172  19.468   2.168   5.967 -0.1993 -0.2524 -0.2067
56120W        W99173  27.987   1.186   0.320  0.2183  0.1174 -0.0174
56121W        W99174   5.887  32.796  15.444 -0.1518 -0.0061  0.1007
56122W        W99175   3.621  31.227   0.325  0.3101  0.1793 -0.2975
56123W        W99176  12.708  27.384  15.059  0.0742  0.0731  0.1014
56124W        W99177  10.292   9.093   4.118  0.0212 -0.2067 -0.3713
56125W        W99178   0.297   0.101   5.982  0.0709  0.0607 -0.0821
56126W        W99179   9.509  26.816   4.827  0.1028 -0.1746 -0.3793
56127W        W99180   8.192   7.011   6.765  0.0471 -0.0548  0.2148
56128W        W99181   1.744  27.818   0.561 -0.0915  0.0290 -0.2355
56129W        W99182  31.041  11.443  22.536 -0.1290 -0.1532  0.2464
56130W        W99183   0.052   2.439  27.109 -0.2134  0.1334  0.1626
56131W        W99184  12.594  30.144   5.594  0.0066  0.1401  0.0805
56132W        W99185   7.039  30.825   6.349  0.2618 -0.6254 -0.0657
56133W        W99186   6.596   4.546  28.423  0.2557  0.1750  0.1166
56134W        W99187  30.195   0.784   4.817 -0.2684  0.1862  0.1390
56135W        W99188   4.545   0.858   0.111  0.0118 -0.2804 -0.1063
56136W        W99189  10.316  22.497   5.698  0.0555 -0.0886 -0.0338
56137W        W99190  22.830  33.191  25.427 -0.1865 -0.0032 -0.1289
56138W        W99191  10.352   4.902   9.408  0.1007 -0.3157 -0.0705
56139W        W99192  27.798   7.735   5.239 -0.3171 -0.1146 -0.0882
56140W        W99193   6.612  31.304  27.542 -0.1106  0.2798 -0.1006
56141W        W99194  20.677  10.843   2.424  0.0333 -0.2374 -0.0471
56142W        W99195   0.482  32.335   8.311  0.0751 -0.1531  0.0638
56143W        W99196  32.512   4.831   2.317 -0.0755 -0.2398 -0.0107
56144W        W99197  31.977  16.115  25.261 -0.2140 -0.0964 -0.0491
56145W        W99198  32.435  11.967   5.313 -0.1800 -0.0077  0.1099
56146W        W99199  27.860  30.555   1.885  0.2324  0.0149  0.0572
56147W        W99200  24.234   7.166  24.105 -0.0430  0.0982 -0.1659
56148W        W99201   7.933   4.373   5.785  0.4193 -0.0564 -0.1032
56149W        W99202  32.285   0.876   1.279  0.0260 -0.1384 -0.3109
56150W        W99203   7.326  17.168   1.255  0.1964  0.0384  0.0319
56151W        W99204  28.481  27.247   8.538  0.2789  0.1365 -0.0028
56152W        W99205  34.583   5.118  19.280 -0.0160  0.0032 -0.1648
56153W        W99206   1.868  34.544   8.381  0.4563 -0.0272  0.1533
56154W        W99207  19.666  33.954   9.556 -0.1011  0.1581 -0.3210
56155W        W99208  21.277  21.352   6.218 -0.0569  0.1687  0.3574
56156W        W99209   1.938  12.247   8.787  0.0329 -0.1442  0.1777
56157W        W99210  21.742  23.607   7.378  0.1508 -0.2025 -0.0008
56158W        W99211  10.603  11.556  24.536  0.3726  0.1873  0.0486
56159W        W99212   0.284   0.438   2.771  0.0015 -0.3407  0.1135
56160W        W99213  12.540   1.202  10.541  0.2219 -0.5743 -0.1071
56161W        W99214  10.225   4.330   5.617 -0.3323 -0.0624 -0.0352
56162W        W99215  10.560   5.307   8.195  0.0094 -0.1655 -0.0068
56163W        W99216  14.727  33.659   7.966 -0.2020  0.3698  0.2589
56164W        W99217   2.775   9.106  20.575 -0.1716 -0.1818 -0.1518
56165W        W99218  20.346  12.329   4.126 -0.2051 -0.3519 -0.0970
56166W        W99219  32.373  31.503  19.940  0.1126  0.0333 -0.1367
56167W        W99220   8.726  15.390   7.037  0.0321  0.0158 -0.0835
56168W        W99221   7.521   0.703   7.226 -0.2453  0.2321  0.1245
56169W        W99222  11.559   4.945   7.023 -0.0307  0.1973  0.2697
56170W        W99223   2.338   3.182   9.125 -0.1950 -0.1657 -0.1294
56171W        W99224  12.623   3.870   6.774 -0.1930 -0.0083 -0.1013
56172W        W99225   7.834  31.633  26.961  0.0740  0.0794 -0.0829
56173W        W99226  31.736  31.571  23.732  0.3087  0.0052  0.1903
56174W        W99227  31.274   7.075   0.638  0.1554  0.2693  0.2941
56175W        W99228  31.335  34.143  23.677 -0.0606  0.0624 -0.0136
56176W        W99229  19.782  25.103  23.395  0.0464  0.0326  0.4812
56177W        W99230  30.858  31.314   8.578 -0.2755  0.1738  0.1625
56178W        W99231  18.015   4.760   2.800  0.0365  0.0295  0.0588
56179W        W99232  23.504   6.705   4.772  0.2698 -0.1900 -0.2131
56180W        W99233   0.620  31.568   3.748  0.1354 -0.1633  0.6428
56181W        W99234  17.703   6.058   3.919  0.1410 -0.1791  0.2355
56182W        W99235  10.960  32.489   4.697 -0.2291 -0.0206 -0.0995
56183W        W99236  30.041  32.058  28.581 -0.2750 -0.2088  0.2351
56184W        W99237  33.020  21.242   5.317 -0.0645 -0.2141 -0.2778
56185W        W99238   7.762  28.929   8.605  0.0486 -0.0423 -0.0642
56186W        W99239   5.658   1.351   4.627  0.3246 -0.2617 -0.3422
56187W        W99240  29.103   2.760  10.541  0.3255  0.3607  0.0205
56188W        W99241  29.660  11.129  15.848  0.1875 -0.5077  0.0121
56189W        W99242   5.232  27.747   4.718 -0.4229  0.3383 -0.1770
56190W        W99243  26.145  28.532   6.582 -0.1245  0.2365  0.0202
56191W        W99244  30.407  19.367   0.125  0.0861 -0.0505  0.0232
56192W        W99245  31.843  33.638   1.382 -0.0736 -0.0117  0.2456
56193W        W99246  10.782  34.351   8.414 -0.2928 -0.4367  0.0839
56194W        W99247   3.515  18.509   5.363  0.0936  0.0439  0.1174
56195W        W99248  28.291  12.963   1.256 -0.0082  0.0538 -0.3973
56196W        W99249   0.117  15.666   4.634  0.0536 -0.2456  0.1070
56197W        W99250   1.730  10.100   9.143  0.1908  0.2155  0.3122
56198W        W99251  33.945  28.959   4.459  0.1463  0.0304  0.1145
56199W        W99252  31.113  11.357   9.614  0.0281  0.1323  0.1755
56200W        W99253   4.102  27.132   8.151 -0.2492  0.0562 -0.1403
56201W        W99254  29.827   4.348   0.977 -0.0447  0.0234 -0.0421
56202W        W99255   5.243  25.514   2.566 -0.2006  0.3972 -0.0123
56203W        W99256   6.900  26.455   4.511 -0.1153 -0.1968  0.0803
56204W        W99257  33.243  27.689  27.506  0.3134  0.0232  0.1759
56205W        W99258   6.694  32.222   2.837  0.0846 -0.1635  0.2596
56206W        W99259  31.258   1.379   2.291  0.1746  0.0228 -0.3274
56207W        W99260  19.132   1.234   4.620  0.0731 -0.2259 -0.0690
56208W        W99261   3.725  33.977   5.849 -0.1000  0.2427  0.1648
56209W        W99262  30.542  33.933  25.632  0.2800  0.2438  0.0790
56210W        W99263   4.663  32.946   7.489  0.2137 -0.2862  0.5580
56211W        W99264  33.244  11.769   9.902  0.0732 -0.4617 -0.0454
56212W        W99265  24.765  30.511  20.820 -0.0107 -0.0140  0.0005
56213W        W99266   4.348   4.663   8.601 -0.2205  0.0937  0.1762
56214W        W99267   8.146  17.422   2.413  0.0472  0.0324  0.0780
56215W        W99268   1.832  28.094   9.233 -0.0394  0.3285  0.2090
56216W        W99269   2.731  32.804  16.214  0.1471  0.0563 -0.0494
56217W        W99270   7.216   1.108   1.868 -0.0805  0.0913  0.2153
56218W        W99271  31.747  10.501  28.568 -0.0111 -0.0885 -0.0021
56219W        W99272  10.525  20.442  27.317 -0.1837  0.2970  0.0059
56220W        W99273  24.431   4.178   8.668  0.2483 -0.1416 -0.0984
56221W        W99274  31.762  26.474   7.325 -0.1258  0.0089  0.0891
56222W        W99275  33.724   9.848   2.418  0.2491 -0.1234  0.2500
56223W        W99276  13.846  28.387   3.683 -0.2163  0.2167 -0.0606
56224W        W99277  16.669   8.239   2.781 -0.0952  0.1831  0.4279
56225W        W99278  11.046  30.867   2.703 -0.1161  0.1430 -0.0592
56226W        W99279  24.028  17.883   1.450  0.0214 -0.1002 -0.2060
56227W        W99280  22.170  13.750   0.260  0.1612  0.1308 -0.0519
56228W        W99281   1.600   8.487  26.662  0.1271  0.0136  0.3610
56229W        W99282   1.308  33.093  22.588 -0.0429  0.1362  0.1204
56230W        W99283   9.339  10.996  10.035  0.0830  0.2321 -0.1864
56231W        W99284  23.921  21.752  10.297  0.0241  0.0396 -0.1953
56232W        W99285   4.643   8.125   6.851 -0.1210  0.1165 -0.0553
56233W        W99286  23.146   0.664   6.750  0.0698  0.2428  0.2635
56234W        W99287   5.930  12.165  11.129 -0.1532  0.2347 -0.0974
56235W        W99288  29.240   7.504  25.886 -0.0364 -0.0477  0.1180
56236W        W99289  30.639  15.607  19.565  0.1393  0.0282  0.0878
56237W        W99290   7.469  33.581   9.923 -0.1347  0.1245  0.5855
56238W        W99291  20.832  22.025   5.691 -0.0623  0.3351  0.1247
56239W        W99292   8.323  32.252   9.837  0.0116  0.1799  0.0985
56240W        W99293   5.434   1.545   8.738 -0.0510 -0.1991  0.1082
56241W        W99294   8.815  30.869   7.527 -0.0984 -0.0126  0.1792
56242W        W99295  26.960  30.457   3.019 -0.0185  0.0308  0.1437
56243W        W99296  28.623  11.013  29.144 -0.1530  0.1009  0.0259
56244W        W99297   2.006  29.288  22.040 -0.0660 -0.0279  0.3048
56245W        W99298  31.885   2.092   2.663 -0.2628 -0.3116  0.0949
56246W        W99299   4.012  24.302  24.346 -0.2396 -0.0979 -0.0277
56247W        W99300   0.388  13.457   1.810 -0.0593 -0.0299 -0.2097
56248W        W99301   3.103  26.498   1.407  0.0542  0.0425  0.5447
56249W        W99302   7.290   2.565  19.108 -0.0757  0.2414 -0.1997
56250W        W99303  31.740  23.646   6.900 -0.0238  0.2334  0.0295
56251W        W99304  27.680  32.939   9.630  0.0253 -0.4197  0.1716
56252W        W99305   2.507  25.535  28.763 -0.3740 -0.1828  0.0495
56253W        W99306  27.413  32.196   2.637  0.3361 -0.1668 -0.2213
56254W        W99307  25.804   6.704   2.315 -0.0050  0.2500  0.2274
56255W        W99308   0.508   1.032   3.522 -0.0858  0.0451 -0.1638
56256W        W99309  28.109  10.243   8.755 -0.1073  0.1764 -0.1227
56257W        W99310   4.087  20.874   5.279  0.2539  0.2633 -0.3133
56258W        W99311  24.825  34.576   6.714  0.2350  0.0379 -0.2830
56259W        W99312  32.643   5.899   0.064  0.2097  0.1309 -0.1313
56260W        W99313  21.327  31.814   7.845 -0.1376  0.0097 -0.0096
56261W        W99314   7.617   9.035   8.567 -0.2206 -0.3603  0.0355
56262W        W99315  30.825   4.950  23.951 -0.2413 -0.3589 -0.3276
56263W        W99316  33.725   1.804   5.976  0.0483 -0.3761  0.1096
56264W        W99317  31.223  23.546   7.038 -0.0037 -0.0900 -0.1229
56265W        W99318  18.247  30.407   5.539 -0.0179  0.1315 -0.0811
56266W        W99319   2.858  25.049  28.408  0.3903 -0.2288 -0.2173
56267W        W99320  23.740   6.209  27.656  0.0483  0.0785 -0.2879
56268W        W99321  28.027  12.100  16.444  0.1339 -0.3950  0.0422
56269W        W99322   6.504   6.999   7.538 -0.0297  0.4813  0.1153
56270W        W99323   3.073   5.915   8.858 -0.2081  0.0372 -0.0826
56271W        W99324  33.607  28.394   2.194  0.2367  0.2232 -0.2413
56272W        W99325   8.795  31.053   5.191 -0.1269 -0.2331 -0.2595
56273W        W99326   7.024   0.515   8.556 -0.2999 -0.1428 -0.1054
56274W        W99327   3.875   4.360   9.288 -0.0593 -0.0774 -0.1642
56275W        W99328   7.452  27.471   7.100  0.1105  0.0001  0.1663
56276W        W99329  33.893   3.768   8.577 -0.2898 -0.3926  0.0118
56277W        W99330  15.109  29.402   6.139 -0.1990 -0.0879  0.1818
56278W        W99331  12.016   7.458   7.262 -0.1484 -0.1440  0.3546
56279W        W99332  16.131   7.311   7.354  0.0510 -0.2029  0.0010
56280W        W99333   8.265   4.893   0.665 -0.0939 -0.2958  0.6854
56281W        W99334  13.394   2.459   0.630  0.1282 -0.1340  0.0902
56282W        W99335   7.522  12.173   2.050  0.0007 -0.1916 -0.2701
56283W        W99336   5.918  34.083  10.348  0.1853 -0.2459  0.1019
56284W        W99337  29.650  21.730  28.645 -0.0964  0.0586  0.1133
56285W        W99338  15.944  14.990  10.023  0.1896 -0.0500  0.1232
56286W        W99339   6.264   5.084   3.514 -0.0317 -0.0503 -0.2632
56287W        W99340  33.627  10.909   6.477 -0.4002 -0.3124 -0.0289
56288W        W99341   7.424  30.219   5.587 -0.3293  0.1932  0.1924
56289W        W99342  18.074  32.963   2.805  0.0909  0.0542 -0.1024
56290W        W99343  34.565   0.638   3.081  0.0492  0.0958  0.1981
56291W        W99344  28.664  32.333   4.848 -0.0861  0.1714 -0.0982
56292W        W99345  34.335  13.488   4.158 -0.3527  0.1299 -0.4466
56293W        W99346  33.460   2.741   6.870  0.0508 -0.1226  0.0009
56294W        W99347  13.117   8.012   8.005 -0.4140  0.5189 -0.0058
56295W        W99348  20.646   5.863   2.875 -0.0396 -0.1381 -0.1294
56296W        W99349  16.948   3.545  23.815  0.4163 -0.0363 -0.1824
56297W        W99350   4.334   5.486  28.947  0.2192 -0.4545  0.1364
56298W        W99351   4.278  28.925   6.887  0.3517  0.0134  0.1506
56299W        W99352   0.901  15.003  24.860 -0.0110  0.0162  0.0078
56300W        W99353   1.912   9.319   7.004  0.0242 -0.0502 -0.2589
56301W        W99354   0.102  32.786   9.350  0.0437 -0.1557 -0.0888
56302W        W99355  13.738   2.966  27.302  0.0736 -0.1161  0.0514
56303W        W99356  12.065  13.728   2.200 -0.2979  0.0445  0.0798
56304W        W99357  32.677  24.926  26.781  0.1404 -0.1586 -0.2336
56305W        W99358  12.293   1.350   3.506  0.0732  0.0186 -0.0003
56306W        W99359  17.864   4.000   5.062 -0.3184  0.0710  0.0172
56307W        W99360   3.201   0.892   6.837 -0.3618 -0.1888 -0.2245
56308W        W99361  14.898   4.916   9.196 -0.2371  0.1751  0.2055
56309W        W99362   4.106  27.116  27.334 -0.1179  0.0506  0.0440
56310W        W99363  10.997  34.151   3.301  0.1110  0.3864  0.1503
56311W        W99364   1.344   3.062   2.636  0.0485 -0.1050  0.2506
56312W        W99365   7.230  22.861   3.280 -0.0370 -0.2339 -0.2299
56313W        W99366  18.986   3.116   5.900 -0.3025  0.0466  0.1994
56314W        W99367  26.217   6.300   2.438 -0.0984  0.1587  0.0225
56315W        W99368  28.361  33.819   9.058  0.3129  0.2436 -0.4912
56316W        W99369  14.575  29.871   3.528 -0.4500  0.1435  0.2472
56317W        W99370  32.551  31.927   4.651  0.1848  0.2260  0.1443
56318W        W99371  32.998   1.953  26.938  0.3836  0.2406 -0.0098
56319W        W99372   6.521   9.577  22.862 -0.1475 -0.1290 -0.0567
56320W        W99373   9.871  29.623  22.827 -0.1936 -0.0077  0.0617
56321W        W99374  11.131  24.899  27.684 -0.2451  0.0584 -0.0232
56322W        W99375  17.871  14.928   6.355  0.0541  0.0390 -0.0408
56323W        W99376   2.755   5.142   8.624 -0.0583 -0.1610  0.1328
56324W        W99377  27.457   7.652   8.259 -0.0761 -0.0295 -0.2239
56325W        W99378   1.158  22.703   6.829 -0.3044 -0.0000  0.1470
56326W        W99379  29.024   1.961   9.118  0.1460  0.2555 -0.1324
56327W        W99380  19.844  28.232   7.869  0.3323 -0.2204  0.3779
56328W        W99381  13.776  13.546  22.021 -0.2300  0.2600 -0.0825
56329W        W99382   3.612  23.589   6.995 -0.2384 -0.2037 -0.1978
56330W        W99383  11.383  31.625   5.208  0.0846 -0.0127 -0.1190
56331W        W99384  12.854  16.678  25.357 -0.2080 -0.1678 -0.1698
56332W        W99385  19.825  33.573  24.017 -0.4032 -0.1662  0.1958
56333W        W99386  31.272   7.186   5.358  0.2780  0.1688 -0.2256
56334W        W99387  16.329  19.114  27.547  0.0100 -0.1341  0.2468
56335W        W99388  29.964   3.389   2.039  0.1040  0.0888 -0.0339
56336W        W99389  20.408  31.900   5.853  0.1297  0.2281 -0.1204
56337W        W99390   1.859   5.460   6.286 -0.2245 -0.1917  0.1932
56338W        W99391  32.266  33.427   6.222 -0.0797 -0.1382 -0.1232
56339W        W99392  26.229   0.674  20.488  0.0837 -0.1604  0.0322
56340W        W99393  29.913  12.583   7.620  0.1082 -0.3177  0.0206
56341W        W99394   7.874  13.202   5.084  0.0829 -0.0783  0.2585
56342W        W99395  18.352   4.392   6.393  0.0205  0.0142  0.1384
56343W        W99396  30.857  26.906   7.389  0.3193 -0.3757 -0.3167
56344W        W99397  16.176   6.978   8.602 -0.3689 -0.1041 -0.2485
56345W        W99398  20.897  34.335  21.634  0.1924  0.1142  0.0687
56346W        W99399   9.856   1.264   4.048  0.1129  0.2972  0.0011
56347W        W99400  25.480  10.304  18.037  0.1301 -0.2036  0.1449
56348W        W99401   6.633  32.114   0.006 -0.1825 -0.1660  0.3234
56349W        W99402  30.636   6.119  26.851  0.1422 -0.0964  0.1103
56350W        W99403   2.799   9.374   4.873  0.1520  0.2865  0.1269
56351W        W99404  15.113  12.265   2.493  0.1369  0.3454 -0.2251
56352W        W99405  11.816  28.581   6.368 -0.5689 -0.0915 -0.1133
56353W        W99406   4.447  31.023   6.176  0.1516  0.0744  0.5558
56354W        W99407   3.475  34.376  26.493  0.1581  0.0199 -0.0029
56355W        W99408  10.211   9.596  21.033  0.2014 -0.2389 -0.0775
56356W        W99409  11.097  11.311   6.301  0.1969 -0.1880  0.2039
56357W        W99410  18.679   1.353  28.074  0.2685  0.1416 -0.0359
56358W        W99411   7.467  31.107   9.079  0.0007  0.0738  0.2624
56359W        W99412   3.903  30.458   5.957  0.0971 -0.1928  0.0840
56360W        W99413  12.773   2.959   9.993 -0.0166  0.2988 -0.1173
56361W        W99414   7.058  29.461   4.548  0.1215  0.0635  0.0179
56362W        W99415   1.907  20.749  19.357  0.2296  0.0475  0.4223
56363W        W99416   8.333  20.593   4.584 -0.1034 -0.1095  0.0437
56364W        W99417  26.732  19.641  28.443  0.2323  0.0401 -0.0972
56365W        W99418   3.368  28.864  27.876  0.1362  0.0673  0.2577
56366W        W99419  30.125  13.767   4.059 -0.2234  0.1323  0.2121
56367W        W99420  11.966   3.019   4.537 -0.4198 -0.0450  0.3165
56368W        W99421  19.049   1.234  19.147 -0.2418  0.1742  0.0977
56369W        W99422   1.302   6.026  27.639  0.0001 -0.0748  0.2505
56370W        W99423   8.976  27.601   8.220 -0.1582 -0.3502  0.0817
56371W        W99424   7.922  19.937  27.601  0.1859  0.2786 -0.0855
56372W        W99425  28.099   2.925  25.493 -0.2995  0.0551 -0.0602
56373W        W99426  26.382  14.246  28.042 -0.0227 -0.1332  0.0016
56374W        W99427  21.019   1.224   4.676 -0.1324  0.0740  0.0593
56375W        W99428  15.298  33.101   2.800  0.0512 -0.0123 -0.0948
56376W        W99429  11.556  22.927   1.679 -0.1773  0.2893 -0.0757
56377W        W99430   5.639  32.129   1.654  0.0135  0.0641  0.0900
56378W        W99431  10.706   1.337   4.523 -0.1890 -0.1455 -0.1789
56379W        W99432  12.385   0.395  24.372 -0.2119 -0.0134  0.1589
56380W        W99433  15.009  26.980   3.217  0.2527  0.3735 -0.3663
56381W        W99434  11.408  31.939   1.619 -0.1707  0.3743 -0.0876
56382W        W99435  10.830   3.093   6.188 -0.1664 -0.2351  0.4031
56383W        W99436  31.989   0.780  23.363  0.3035  0.2292  0.0291
56384W        W99437   4.563  32.435   7.200 -0.0434  0.2219 -0.0562
56385W        W99438  32.712  29.830   0.197 -0.2221  0.3910  0.2202
56386W        W99439   9.691  20.898  28.826  0.0396  0.1048  0.2518
56387W        W99440  30.141   0.948   7.723  0.2826 -0.3521  0.2659
56388W        W99441  32.689  32.806   2.906  0.2587  0.3937  0.2176
56389W        W99442   0.313   2.398   2.558  0.1086 -0.1180  0.0083
56390W        W99443  32.564  24.017   9.387  0.0165 -0.1208 -0.1690
56391W        W99444   3.161  23.844  20.373  0.0243 -0.0551 -0.1091
56392W        W99445  13.267  16.830   5.499  0.1984 -0.0339 -0.0061
56393W        W99446   0.078   3.309   1.095  0.1672 -0.0382 -0.0995
56394W        W99447  10.335  15.071   2.781  0.0684  0.0902  0.1042
56395W        W99448   9.171  11.391   0.443 -0.2784 -0.2233  0.2402
56396W        W99449  32.322  24.272  28.715 -0.3113 -0.0342  0.1665
56397W        W99450  28.303   1.209   6.895 -0.0139  0.1806 -0.0303
56398W        W99451  11.710  20.017  14.117 -0.1448  0.1232  0.2181
56399W        W99452   5.616   0.340   1.908 -0.1425 -0.1256  0.4194
56400W        W99453  25.106  29.720   5.520  0.0251  0.1480 -0.1943
56401W        W99454  29.856   2.875   8.329  0.2015 -0.2729  0.2834
56402W        W99455  29.279   1.752  25.422 -0.3991  0.3001 -0.1117
56403W        W99456  20.352  10.006   4.994  0.2688 -0.0218 -0.2484
56404W        W99457  34.677  14.489  14.502  0.4024 -0.0217  0.0293
56405W        W99458  13.479   0.085   9.975  0.3744  0.0820  0.0005
56406W        W99459   1.421   0.651  27.721  0.0242  0.2554  0.2287
56407W        W99460  14.749  33.826   4.885 -0.2221  0.3625  0.1772
56408W        W99461   4.885  34.232  26.699  0.1497 -0.2441 -0.1919
56409W        W99462  17.071   0.793  15.253  0.2036  0.1710 -0.0625
56410W        W99463  34.683  28.703   7.500  0.2410 -0.2380 -0.0094
56411W        W99464  26.585  22.239  28.615 -0.1573  0.3273 -0.0036
56412W        W99465  17.145  20.604   0.234 -0.0727  0.3049 -0.1945
56413W        W99466  33.377  33.098   8.009  0.0610  0.0946  0.0676
56414W        W99467  13.284  30.369   0.348  0.0209  0.3644  0.1250
56415W        W99468  33.869   0.401   6.867  0.0515 -0.0976 -0.0961
56416W        W99469  32.280   4.305   6.906 -0.1431  0.0896 -0.1257
56417W        W99470  14.969   6.076   9.295  0.0921 -0.1049  0.4598
56418W        W99471  17.482   8.995   4.582 -0.0596  0.1495  0.1305
56419W        W99472   3.274  34.318  21.763  0.3094 -0.1981  0.1527
56420W        W99473  28.516   1.562  27.374 -0.4110  0.0275  0.1402
56421W        W99474   4.677  14.035  22.562  0.0157  0.1975  0.0172
56422W        W99475  27.021  32.763   5.931  0.0647 -0.3598  0.1942
56423W        W99476   3.275  10.081  25.565 -0.0682 -0.0525  0.0161
56424W        W99477   2.462  31.392  26.709  0.1313  0.1180 -0.1013
56425W        W99478   8.486  29.625  26.355 -0.1180 -0.0490  0.0520
56426W        W99479  29.223   9.799   7.286 -0.1660  0.2209  0.2067
56427W        W99480  33.717   6.887  25.497  0.1254 -0.3350 -0.1279
56428W        W99481  33.739  11.884  22.656  0.2550  0.0180 -0.2182
56429W        W99482   7.591  13.284   2.531  0.1102 -0.1318  0.2143
56430W        W99483  15.167  18.909   3.170 -0.0383  0.2615 -0.1243
56431W        W99484  31.132   0.578   1.815  0.0679 -0.3161  0.3703
56432W        W99485  10.527   1.592  27.692  0.1508 -0.0543  0.2690
56433W        W99486  22.315   3.868   5.093 -0.1576 -0.3883 -0.1582
56434W        W99487   5.867   6.022   4.437 -0.0236 -0.1804 -0.2335
56435W        W99488   4.837   2.117   7.253 -0.1722  0.0371 -0.0131
56436W        W99489  32.467  24.357   2.734  0.0394 -0.1578  0.1015
56437W        W99490  33.782  33.887  25.069 -0.0527 -0.3483  0.0231
56438W        W99491   5.617  23.135  28.770  0.0258 -0.2860  0.0482
56439W        W99492  31.365  33.383   1.392  0.2008 -0.1491 -0.3379
56440W        W99493  30.081   6.335   5.440  0.0481 -0.0325  0.2096
56441W        W99494  24.237   6.345   6.916 -0.1984 -0.4317  0.2055
56442W        W99495  34.427  31.460   1.312  0.1544  0.0681  0.1053
56443W        W99496   2.668  32.975   0.209 -0.0878 -0.1733 -0.1991
56444W        W99497  16.093  31.929   6.957  0.1886  0.0529  0.1458
56445W        W99498  32.324   2.333  27.359 -0.2163  0.1041  0.0495
56446W        W99499  11.270   2.267   2.448 -0.0927 -0.0769  0.2144
56447W        W99500  12.317  25.631   3.736  0.0691  0.1771 -0.3279
56448W        W99501  27.433   8.361   7.783 -0.0864 -0.1412 -0.0430
56449W        W99502  27.214   3.013   9.648 -0.0516 -0.1985  0.2717
56450W        W99503   8.106  26.469   5.962 -0.1046 -0.1313  0.0287
56451W        W99504   0.438   2.995   7.191  0.0514 -0.2578 -0.1005
56452W        W99505   5.158  10.649   7.504  0.0943 -0.0534 -0.0897
56453W        W99506  11.418  25.339  29.197 -0.2837 -0.0779 -0.0800
56454W        W99507   5.493   3.294   3.930  0.0327  0.0932 -0.1082
56455W        W99508   7.852  26.042  26.464  0.2217 -0.0861 -0.1007
56456W        W99509  33.969   7.085   8.612 -0.1003 -0.0534  0.0235
56457W        W99510  34.394  30.464  28.187 -0.2099 -0.3580 -0.1247
56458W        W99511  29.077  29.246  27.584 -0.1072  0.2196  0.0271
56459W        W99512  13.707   9.835  28.715  0.0729 -0.1110 -0.0174
56460W        W99513   9.408   7.512  28.850  0.2878  0.1444  0.2807
56461W        W99514  13.605   0.870  27.262  0.3382 -0.3757 -0.1405
56462W        W99515  33.340  27.690  21.517  0.0255  0.1524  0.1412
56463W        W99516  21.614  20.085   0.134 -0.2959 -0.1462 -0.1508
56464W        W99517  17.480   7.389  23.162 -0.0906  0.2271 -0.1631
56465W        W99518   3.588   3.252  29.016  0.0836  0.0133 -0.2474
56466W        W99519  30.685  23.893   4.903 -0.0735  0.1059 -0.3582
56467W        W99520  32.247  22.346  25.975 -0.2021  0.2142 -0.0275
56468W        W99521   7.004  33.031   1.321  0.0986  0.1877 -0.1234
56469W        W99522  30.058  16.560   7.913 -0.3871 -0.2584  0.0429
56470W        W99523  10.785   5.589   5.564  0.1105  0.2459 -0.1161
56471W        W99524  19.986  23.467   6.048 -0.1356  0.0785  0.0724
56472W        W99525   2.135   1.207  28.146  0.1726 -0.1931 -0.0020
56473W        W99526  14.539  11.564   1.923  0.0497 -0.0261 -0.0822
56474W        W99527  27.462  14.146   3.290  0.0133  0.0197 -0.1937
56475W        W99528  14.892   6.153   7.074  0.0793 -0.0314 -0.0629
56476W        W99529   2.412  30.705   9.142 -0.0850  0.1819 -0.0399
56477W        W99530  28.039   3.679   1.299  0.0188  0.1510 -0.2432
56478W        W99531  26.988   4.620   0.686  0.0631 -0.0823 -0.3349
56479W        W99532  17.762  33.039  21.081  0.0510  0.1818  0.1704
56480W        W99533  15.831  31.354   9.884  0.0268 -0.1974 -0.2272
56481W        W99534  13.578  11.732  17.240  0.0314 -0.0657  0.2123
56482W        W99535   9.538   6.644   0.990  0.0774 -0.0273 -0.1834
56483W        W99536  30.009  18.051   3.736  0.1754  0.2415 -0.1688
56484W        W99537   0.126  25.185  23.776  0.0579 -0.2599 -0.1057
56485W        W99538  32.807  27.280  17.409 -0.0193  0.0856 -0.2993
56486W        W99539   7.894   6.284  10.914 -0.0176 -0.2407  0.1527
56487W        W99540  14.235   8.433  28.096 -0.0084  0.1628  0.1819
56488W        W99541  28.868  11.813   8.543 -0.1357 -0.4193  0.3142
56489W        W99542   7.145   2.569   9.046 -0.1932 -0.1380 -0.0056
56490W        W99543  13.308  34.645   0.892 -0.1494 -0.3085 -0.0571
56491W        W99544  26.285  22.388   7.817  0.0358 -0.0472 -0.0644
56492W        W99545   5.421  13.601  17.734  0.4355  0.0077  0.0529
56493W        W99546  21.403  27.891   5.587 -0.1252  0.1774  0.1436
56494W        W99547   9.470  30.305   8.635  0.1492  0.0069  0.0756
56495W        W99548  28.465  13.248   5.714 -0.1578  0.1074  0.0605
56496W        W99549  10.713   0.873  23.694 -0.2260  0.1759  0.2766
56497W        W99550   5.784  30.607   0.074 -0.1062  0.1947  0.0619
56498W        W99551  27.383  28.799  25.061  0.1079 -0.1802  0.0150
56499W        W99552   4.230  22.734   5.070  0.0877  0.1724  0.1914
56500W        W99553   8.042   1.610   7.413 -0.2594  0.1277  0.1371
56501W        W99554  34.141  17.249  10.173  0.5162  0.0571 -0.2280
56502W        W99555  20.737   6.420  22.651  0.3538  0.2273  0.0320
56503W        W99556  12.270  10.332   5.457 -0.0926  0.3216 -0.1265
56504W        W99557   6.275   4.226  26.168  0.1524  0.3774 -0.0853
56505W        W99558  30.846  21.751  27.401  0.1372 -0.0376 -0.0685
56506W        W99559  13.985  30.474   4.140  0.1948 -0.0372 -0.2080
56507W        W99560  12.175   4.660   7.802 -0.0304  0.2414  0.0789
56508W        W99561   6.151  30.962   9.853 -0.0248  0.1853 -0.1397
56509W        W99562   5.054  23.099   4.082  0.1722 -0.2778  0.1114
56510W        W99563   2.512  31.031   7.454  0.0899 -0.1772  0.1193
56511W        W99564  28.424   7.389   9.341  0.2432 -0.0226  0.0848
56512W        W99565  27.573  32.785   5.219 -0.1975  0.3680  0.0736
56513W        W99566  24.891  25.101   3.509 -0.1149 -0.3545  0.0689
56514W        W99567   4.497  21.462  27.656  0.0033  0.0535 -0.0191
56515W        W99568  29.604  29.331  20.558 -0.1870  0.1181  0.3808
56516W        W99569  19.704   3.823   5.753  0.0212 -0.1955 -0.1041
56517W        W99570  10.462   5.278   5.917 -0.0251 -0.3929 -0.0710
56518W        W99571   2.774  19.105  26.258  0.1058 -0.4153  0.2128
56519W        W99572  16.611   2.992  28.216 -0.1220  0.0240  0.1613
56520W        W99573  16.413  22.620   9.685 -0.0993 -0.2698 -0.1604
56521W        W99574  33.329   9.955   2.155  0.1221 -0.1235 -0.2498
56522W        W99575  34.489  30.014   3.965 -0.2120  0.2413  0.3201
56523W        W99576  31.977   3.236  22.227 -0.3019 -0.4219  0.4409
56524W        W99577   1.861  27.485   6.247  0.1103  0.0159 -0.0770
56525W        W99578   6.247  30.595   9.131  0.2119 -0.0735  0.0703
56526W        W99579  26.704  13.108   7.775  0.1795 -0.1356 -0.0882
56527W        W99580  12.164  15.328   6.046  0.1465 -0.2634 -0.0419
56528W        W99581  10.101  25.410   2.210  0.2516  0.0768 -0.0022
56529W        W99582   0.565  31.799  17.303 -0.1971  0.3691 -0.0497
56530W        W99583   9.378  21.298   3.681  0.2333 -0.0902 -0.2317
56531W        W99584  33.334   4.821  26.470  0.0179  0.0901  0.0422
56532W        W99585  33.778  31.437  23.970  0.2611 -0.1367 -0.2017
56533W        W99586   0.631  31.171  21.781 -0.2829  0.1124  0.3179
56534W        W99587  10.166  23.805   6.317  0.1223 -0.1760  0.2080
56535W        W99588  32.055   3.846   7.162 -0.2655 -0.1099  0.0242
56536W        W99589  26.378  34.426   6.120 -0.0770  0.2607 -0.1497
56537W        W99590  16.861  32.826   6.585  0.1179  0.0609  0.3084
56538W        W99591  29.676  31.537   5.934  0.1636 -0.1101  0.1720
56539W        W99592   6.168  14.185   3.583  0.0467 -0.1530  0.1452
56540W        W99593  26.710  32.748  24.308  0.0774  0.1118  0.0763
56541W        W99594  26.355  19.958  21.526 -0.2103 -0.0468  0.0543
56542W        W99595  13.893  27.927   9.354  0.4153  0.0707  0.1542
56543W        W99596   4.871  22.081   2.725  0.2063  0.0884 -0.0821
56544W        W99597  33.463  17.510  29.162  0.2329 -0.2739 -0.3744
56545W        W99598   4.396  16.638  10.006 -0.4384 -0.0243  0.2001
56546W        W99599  17.589  25.369   5.835 -0.0883  0.1884 -0.4139
56547W        W99600  31.432  30.482  18.845 -0.0263 -0.0729  0.0327
56548W        W99601  21.677  24.887  26.747 -0.0382  0.0590 -0.1848
56549W        W99602  29.452   6.072  27.106 -0.2040 -0.2594  0.1697
56550W        W99603  32.354   8.946  26.381 -0.1224  0.0655 -0.0853
56551W        W99604   8.103  27.208  24.904  0.1193 -0.3041 -0.1246
56552W        W99605  15.284   8.761   5.728 -0.0763  0.2935  0.0854
56553W        W99606  27.369  16.827  28.442  0.1077  0.1143  0.1980
56554W        W99607  25.693  33.166  10.750  0.1279  0.0855 -0.1884
56555W        W99608   3.257   9.345  27.210  0.0412  0.0088 -0.1810
56556W        W99609   4.062   5.876  29.135 -0.2490  0.2469 -0.1311
56557W        W99610   8.583   1.752  28.445  0.2371 -0.0787 -0.2717
56558W        W99611  26.508  12.410  16.833  0.0188  0.3535 -0.0239
56559W        W99612  33.926  20.452   3.190  0.2151 -0.0097 -0.0835
56560W        W99613   5.309  11.437  25.620 -0.1259 -0.3181 -0.3090
56561W        W99614  14.375   4.025  26.803  0.4405 -0.0540  0.1473
56562W        W99615   3.907  13.842  14.420  0.0258  0.0202  0.1903
56563W        W99616   4.666   0.323   8.835  0.1291 -0.1478 -0.2595
56564W        W99617  22.527  11.154   2.945 -0.1643  0.0558 -0.1497
56565W        W99618   9.676   5.152   0.057  0.1345  0.2829 -0.1509
56566W        W99619  28.863   2.024  23.611 -0.1650 -0.0657  0.1276
56567W        W99620  12.718   9.144   8.472  0.0848 -0.1376  0.0977
56568W        W99621  27.641  10.296  27.302 -0.0938  0.1388  0.6784
56569W        W99622  10.233   2.814   8.533 -0.2833 -0.1450  0.1088
56570W        W99623  33.258  33.664  26.298 -0.0549  0.0410  0.3172
56571W        W99624   1.834  29.114  28.897  0.3635 -0.2997  0.1481
56572W        W99625  22.946   5.422   7.690  0.0230  0.2843  0.2628
56573W        W99626  10.377   8.224   5.268  0.1734 -0.0039  0.0742
56574W        W99627  27.298   1.679   4.728 -0.3960 -0.0803  0.2690
56575W        W99628  22.272  11.603  28.953 -0.1352  0.1440  0.3130
56576W        W99629  33.047  15.503  15.436 -0.0953 -0.1468 -0.1431
56577W        W99630  27.959  29.985   5.437 -0.0562 -0.0618  0.0948
56578W        W99631  15.406  17.028  25.463  0.2514  0.0907  0.5478
56579W        W99632  16.365   9.725   5.499  0.3626  0.2132 -0.0376
56580W        W99633   4.669   1.842   2.971 -0.0970 -0.1543  0.3690
56581W        W99634   6.126   3.332   7.100 -0.2196 -0.0186 -0.2430
56582W        W99635   6.448  14.178   6.944  0.3037 -0.2348  0.0907
56583W        W99636   7.019  10.883   8.576 -0.0588 -0.2004 -0.1022
56584W        W99637   8.560   1.987  25.420  0.0113  0.2016  0.1323
56585W        W99638  28.003  30.982   8.795  0.1879  0.0453 -0.1681
56586W        W99639  11.696  30.959  16.164 -0.1258 -0.0885 -0.3075
56587W        W99640  29.448  12.359  26.787  0.1167  0.1057 -0.1019
56588W        W99641  23.128  13.476   4.090  0.2386 -0.0268  0.0333
56589W        W99642   8.152  14.000   0.843 -0.6272 -0.2173  0.0964
56590W        W99643   9.898   8.897   1.255 -0.0853  0.0177 -0.2155
56591W        W99644  18.342  14.387  21.996 -0.2020  0.2454  0.4269
56592W        W99645  19.042  10.498  17.838  0.4189  0.0162 -0.0168
56593W        W99646  15.776   8.653  26.510 -0.4834 -0.0147 -0.1335
56594W        W99647  11.811  10.301  18.104 -0.0301  0.1580 -0.3790
56595W        W99648  27.024   0.561  10.457 -0.1708 -0.0828 -0.0804
56596W        W99649  20.065  32.942   5.591  0.0624  0.2284 -0.1161
56597W        W99650  28.364  12.012   4.611  0.0018 -0.1002 -0.0958
56598W        W99651  29.397   7.023  27.560  0.1187  0.3089  0.1978
56599W        W99652  30.688  34.446  25.278  0.1128 -0.2114 -0.3177
56600W        W99653   0.979   4.748   6.927  0.4080  0.0988  0.1168
56601W        W99654  33.740  33.708   6.056 -0.2119 -0.2407 -0.1095
56602W        W99655   4.328  26.652   7.928 -0.0043 -0.2718 -0.0371
56603W        W99656  18.211   7.654  14.873 -0.1726  0.0817  0.1381
56604W        W99657  34.232  31.787   6.283  0.1251 -0.0551  0.2566
56605W        W99658  28.617  12.563   1.037 -0.3275 -0.0154  0.0229
56606W        W99659  11.386  19.539  21.205  0.1573 -0.0933 -0.4246
56607W        W99660  29.841  31.818   2.812 -0.1618 -0.1435 -0.1370
56608W        W99661  15.884   0.252   9.653 -0.3422  0.3612 -0.0493
56609W        W99662  31.352  21.730   5.750 -0.0449 -0.0306  0.1349
56610W        W99663  27.295  32.300   6.481  0.0595 -0.0093  0.2502
56611W        W99664  31.146  13.368  21.751 -0.0731 -0.0546  0.0100
56612W        W99665   5.283   3.927  25.345 -0.0736  0.0374 -0.1113
56613W        W99666  13.684  13.334   5.722  0.1726  0.3306  0.0792
56614W        W99667  25.736  30.602  28.629 -0.3376  0.2704  0.1860
56615W        W99668   1.770  19.106  24.845 -0.0270  0.2632 -0.0380
56616W        W99669  16.697   3.949   5.627 -0.0001 -0.1833  0.1367
56617W        W99670  33.180  31.685  28.887 -0.0677 -0.3003 -0.1879
56618W        W99671  20.045  10.653  23.743  0.3798  0.3450  0.0412
56619W        W99672   9.355  28.922   7.355  0.1865 -0.3294 -0.1686
56620W        W99673  28.411  30.917   2.823  0.2474  0.1763 -0.1053
56621W        W99674  26.030   4.636   4.315 -0.0785 -0.1209  0.0162
56622W        W99675   2.924   6.632   0.674  0.2737 -0.0855 -0.4033
56623W        W99676  18.037   6.222   7.837 -0.1234 -0.2525 -0.1510
56624W        W99677   3.940   5.690   9.042  0.1563 -0.0665  0.2240
56625W        W99678  15.625  28.399  13.855  0.0081 -0.2588 -0.2214
56626W        W99679   4.401   9.526   2.430 -0.1291  0.4339 -0.1555
56627W        W99680  26.488  26.300   0.752 -0.0931  0.0243 -0.3400
56628W        W99681  34.073   8.756   0.215 -0.0085  0.1777 -0.0365
56629W        W99682  33.026   6.167   9.536 -0.2083  0.0644 -0.0367
56630W        W99683  31.585  32.662   7.032 -0.0494 -0.0825  0.2501
56631W        W99684  25.297  16.079   0.216 -0.3216  0.1327  0.1627
56632W        W99685   0.926   0.644   6.182 -0.2288  0.1555 -0.2534
56633W        W99686   3.999   9.245  27.592 -0.0377 -0.3381 -0.1355
56634W        W99687  11.520  25.628  26.433 -0.4628 -0.2488  0.2404
56635W        W99688  17.068   3.339  10.629  0.0096  0.1898  0.2406
56636W        W99689  20.756   4.575   4.923  0.2279 -0.0193 -0.0938
56637W        W99690  21.649  16.292  16.907  0.0604 -0.1030 -0.1573
56638W        W99691   6.563   0.054   7.855  0.0664 -0.0381  0.2456
56639W        W99692  33.424  28.433  21.530  0.0482  0.1246 -0.2029
56640W        W99693   4.783  25.762  23.415 -0.0978 -0.1445 -0.5052
56641W        W99694  28.891   1.831   5.323  0.0410  0.0578  0.1153
56642W        W99695  15.754  21.073   8.767 -0.1814 -0.0166  0.0381
56643W        W99696   2.506  15.240   0.323  0.0546 -0.0291 -0.4852
56644W        W99697  15.268   3.555  23.032 -0.0400 -0.0564 -0.0673
56645W        W99698  22.289  17.951  22.083  0.0218 -0.2071  0.0874
56646W        W99699   5.704   9.292  17.693 -0.1960 -0.0434  0.1604
56647W        W99700  32.710  14.269   5.179  0.2723 -0.0847  0.2573
56648W        W99701   7.897  25.331   2.601  0.2480 -0.3264 -0.1071
56649W        W99702   3.582  10.660   8.890  0.0887 -0.0933  0.2416
56650W        W99703  34.474  29.698  14.618  0.1259  0.5046 -0.1220
56651W        W99704   9.981  30.364   8.720 -0.2761  0.0953  0.1821
56652W        W99705  32.664  31.978   9.841  0.1498  0.1577 -0.1987
56653W        W99706  13.054  16.833  22.304  0.2228  0.2908 -0.0398
56654W        W99707   7.685  11.132   8.692  0.4086 -0.0346  0.0234
56655W        W99708  27.637  26.819  18.234 -0.0056 -0.1981 -0.1365
56656W        W99709   3.511   0.256  22.868 -0.2782  0.4891  0.0769
56657W        W99710  16.951   8.514   9.268  0.0084  0.0261  0.1245
56658W        W99711  13.657   4.589   3.942 -0.0268 -0.0566  0.2928
56659W        W99712  25.522  21.843  24.951 -0.0092  0.0259  0.1037
56660W        W99713  22.728   7.601  23.498 -0.0763  0.1689 -0.0058
56661W        W99714  13.739  14.220   2.327  0.0639 -0.1639 -0.2753
56662W        W99715  13.023   1.145   7.585 -0.0237 -0.1621 -0.0753
56663W        W99716  11.936   8.798   3.371  0.0155 -0.4181 -0.1783
56664W        W99717   6.753   9.242   4.898  0.0111  0.0088 -0.1240
56665W        W99718  25.570  24.595  21.387 -0.0273  0.1289  0.0778
56666W        W99719  27.970  28.732   4.721  0.1435  0.3710  0.2003
56667W        W99720   8.074  13.206  21.039 -0.1153 -0.2124  0.0174
56668W        W99721  16.069  10.063  25.998 -0.1595 -0.0163 -0.0681
56669W        W99722  33.451  12.682  20.911  0.2131  0.0099 -0.0080
56670W        W99723  22.183  26.506   0.864  0.1076  0.0111 -0.2067
56671W        W99724  17.968   0.237   4.299 -0.1259  0.1861 -0.1517
56672W        W99725  29.402   0.965  24.431  0.0034  0.1037 -0.0904
56673W        W99726   1.444  29.183  28.090 -0.2417 -0.0292 -0.3044
56674W        W99727  33.106  27.394   5.263 -0.0376  0.2125 -0.0299
56675W        W99728   0.487   1.855  29.045  0.6700 -0.1624 -0.0931
56676W        W99729   3.106   2.570   8.845 -0.1218  0.0254 -0.1792
56677W        W99730   6.207  15.378   4.508 -0.1869 -0.2338 -0.1382
56678W        W99731  18.503  34.650  22.006 -0.1486 -0.1381 -0.0678
56679W        W99732   5.883   6.097   6.732  0.1574  0.0159 -0.2300
56680W        W99733  33.705   4.133   7.180  0.0466  0.1027  0.4044
56681W        W99734  20.222   8.496   8.349  0.0324  0.0172 -0.1023
56682W        W99735  12.183  28.585  15.168 -0.1182 -0.2028 -0.3104
56683W        W99736   8.224  29.750   3.112  0.0036 -0.0510  0.0015
56684W        W99737  30.191  29.560  28.496  0.1881  0.3257 -0.2511
56685W        W99738  28.721  12.886  27.036 -0.1426  0.0485  0.0631
56686W        W99739  19.620   9.540  28.313  0.1768  0.2803  0.1810
56687W        W99740   1.379  19.108   4.215  0.1777 -0.0035  0.1942
56688W        W99741   7.739  14.602  23.444 -0.0954 -0.0018  0.2584
56689W        W99742   8.742   6.445  10.915  0.4738 -0.0578 -0.1832
56690W        W99743  33.735   1.448   5.173  0.2735 -0.3300 -0.1996
56691W        W99744   4.723   6.029   7.115 -0.1518  0.2359  0.1094
56692W        W99745  29.319   4.634  23.720 -0.1674 -0.1929  0.2850
56693W        W99746  22.567  19.928  24.423 -0.1776  0.0596  0.0847
56694W        W99747  19.795   2.427  24.750  0.0564  0.0619  0.1321
56695W        W99748  34.415   6.496   7.280  0.0034 -0.0493  0.0408
56696W        W99749  13.997   0.666   2.473  0.0585  0.2002  0.0312
56697W        W99750   6.070   0.579  23.940 -0.1031 -0.2474 -0.1470
56698W        W99751  32.048   4.591  17.978  0.1055 -0.1428 -0.0639
56699W        W99752  31.682  15.231   5.552  0.0459  0.0686  0.0151
56700W        W99753  34.291  14.000   1.264  0.1215  0.0136  0.2064
56701W        W99754  12.644  26.598  26.943  0.0379  0.0919 -0.1522
56702W        W99755  24.121   9.364   6.966 -0.0709  0.3526  0.0242
56703W        W99756  22.153  11.841  18.768  0.0627  0.1399 -0.0421
56704W        W99757  18.582  17.089  22.385  0.3350 -0.1648 -0.4721
56705W        W99758   6.731  28.032   3.182 -0.2002  0.1310  0.3048
56706W        W99759   5.049   8.593   3.960  0.0011  0.1063  0.1339
56707W        W99760  28.577  22.227  26.625 -0.0141  0.0835 -0.1192
56708W        W99761  21.775  20.930   9.183  0.1927  0.0701 -0.0382
56709W        W99762   7.773  31.707  28.521 -0.1735  0.1298  0.0512
56710W        W99763  24.223  28.536   0.990 -0.1025  0.2856 -0.1446
56711W        W99764  33.926   7.708  27.276  0.1847 -0.2230  0.3221
56712W        W99765  32.135   2.639  23.529 -0.2048  0.0210 -0.0993
56713W        W99766  32.154  27.892   5.605  0.2815  0.0927  0.3059
56714W        W99767   6.061   8.034   7.303  0.2836  0.3930  0.1093
56715W        W99768   8.007  30.235  24.018 -0.1447  0.2312  0.0599
56716W        W99769   1.983  15.674  27.752  0.0760  0.0109 -0.0408
56717W        W99770  30.967  17.561  22.169  0.1787  0.1509  0.0875
56718W        W99771   4.236  34.249   6.088  0.0523 -0.2682  0.1130
56719W        W99772  33.592   0.367  28.505 -0.5582 -0.0784  0.0047
56720W        W99773  20.435   1.368   2.786  0.0699 -0.2435 -0.1602
56721W        W99774  20.188  29.007  26.143 -0.1491 -0.1151 -0.0215
56722W        W99775  13.358  11.998   6.006 -0.0146 -0.2521  0.1102
56723W        W99776   4.643  32.564   5.732  0.1346 -0.1055  0.3113
56724W        W99777   2.527  33.965   9.434  0.0342  0.1294 -0.2567
56725W        W99778   4.647  31.448  24.547 -0.1485  0.1495 -0.0977
56726W        W99779  11.681  18.651  20.658  0.0211  0.1350 -0.2480
56727W        W99780  25.153   5.979  18.133 -0.2930  0.2297  0.0938
56728W        W99781   4.713  31.941  16.413  0.3775  0.0765  0.0655
56729W        W99782  24.806  31.256   9.844  0.0606 -0.0390  0.2797
56730W        W99783   2.432  18.105   8.578  0.0101 -0.0206  0.1062
56731W        W99784  29.475   4.031  27.464 -0.0485 -0.3375  0.0693
56732W        W99785  14.899   3.359  22.800  0.0441  0.0397  0.0689
56733W        W99786  12.717  29.543   7.360  0.1080  0.0677 -0.0556
56734W        W99787  28.910  20.822  17.749  0.3106  0.1078  0.3188
56735W        W99788  26.648   4.944   4.337  0.2311 -0.3312 -0.1296
56736W        W99789  21.371  20.747  16.257 -0.1771  0.1975 -0.1820
56737W        W99790   0.086   4.795  28.210 -0.3915 -0.1160 -0.2121
56738W        W99791   1.700   4.212   2.888  0.2596  0.0927  0.1679
56739W        W99792  22.819  20.634  24.733 -0.1215  0.3597  0.3760
56740W        W99793  25.361   0.567   8.467 -0.2032  0.0446  0.0540
56741W        W99794   8.222   6.238  17.958  0.0325  0.2102  0.0042
56742W        W99795   9.769   0.897   6.740 -0.1118 -0.1795  0.2436
56743W        W99796   7.937   5.720   6.682  0.2064  0.0549 -0.2013
56744W        W99797   2.718   7.404  10.404 -0.0597  0.3992 -0.0031
56745W        W99798  23.296  12.269  26.069 -0.1920  0.0439 -0.1712
56746W        W99799   6.721   3.148   6.870 -0.0800  0.2797  0.3508
56747W        W99800  17.571  11.328  21.797 -0.3387  0.0094  0.2595
56748W        W99801   7.038  15.074   4.750  0.0440 -0.1568  0.1082
56749W        W99802   0.171   9.262  25.839  0.1376  0.0712 -0.0443
56750W        W99803  20.034  25.217  25.646 -0.3409  0.1612  0.0236
56751W        W99804  28.829  14.300   1.319 -0.2006 -0.1841  0.2915
56752W        W99805   5.086   9.935   1.315  0.2684  0.4048  0.2714
56753W        W99806   2.216  33.687  28.124  0.1237  0.2570  0.1404
56754W        W99807  19.324  26.462   8.221  0.0411 -0.1404 -0.1552
56755W        W99808  17.709  14.426   7.877 -0.1544  0.1820  0.0667
56756W        W99809  25.470   3.257   2.845  0.3767  0.0825  0.3615
56757W        W99810   3.644   4.121   6.238  0.0069 -0.0536 -0.3176
56758W        W99811  26.830  27.870  19.535  0.1486 -0.0345  0.2117
56759W        W99812  33.065   3.089  25.755  0.0005  0.2841  0.0580
56760W        W99813   8.047   4.844   1.701  0.1182 -0.0542  0.0287
56761W        W99814   0.249  14.881   2.654 -0.0019 -0.2095  0.3617
56762W        W99815  25.183   7.782   0.292  0.1195 -0.1092 -0.0107
56763W        W99816   9.307   3.487  18.589  0.2158 -0.0320 -0.1701
56764W        W99817  30.562  25.855   2.872  0.0380  0.0564  0.0572
56765W        W99818  34.301  13.136   3.773  0.2726  0.0065  0.0788
56766W        W99819  32.870  30.751   3.385 -0.0027  0.5267 -0.1285
56767W        W99820  30.222   2.140   5.851 -0.0762  0.0157  0.1413
56768W        W99821   6.079  32.906  28.951 -0.0258 -0.0730 -0.3296
56769W        W99822   1.895  16.595  27.460 -0.0372 -0.4320  0.0476
56770W        W99823  29.266  13.466   2.901  0.2792 -0.0082  0.0276
56771W        W99824   3.084  18.611  18.121 -0.0322  0.0243  0.0234
56772W        W99825  13.413  13.415  23.508 -0.0252 -0.4078 -0.3370
56773W        W99826   1.857   5.861   5.524  0.2695 -0.2660 -0.0768
56774W        W99827  28.581   3.034  25.671 -0.2470  0.0221  0.0257
56775W        W99828  28.149  18.186   3.039  0.0619  0.2599  0.0978
56776W        W99829  28.419  11.281  24.872 -0.0768  0.0982 -0.0280
56777W        W99830   3.085  31.778   8.515  0.1186  0.2234  0.0643
56778W        W99831   2.916   8.702  28.643  0.1855 -0.2080  0.1700
56779W        W99832  27.730  27.069   6.025 -0.1353 -0.4768  0.0416
56780W        W99833   5.009   5.911   0.221  0.0709 -0.0470  0.1914
56781W        W99834  33.412   2.879  19.790  0.1178  0.1164  0.1776
56782W        W99835  29.576   2.121  27.224  0.1156  0.1887 -0.1187
56783W        W99836   8.661  12.130   4.806  0.1611 -0.2438  0.1038
56784W        W99837   5.130  14.739   0.310 -0.1627  0.1183  0.0874
56785W        W99838  16.236  29.674  23.827  0.0035  0.1664  0.1117
56786W        W99839  20.219  31.301  23.639 -0.1469 -0.0344 -0.1634
56787W        W99840  25.953   8.047   3.368 -0.0951 -0.1141 -0.0989
56788W        W99841  21.491  15.486  19.326  0.2332  0.4940  0.2421
56789W        W99842  33.689  27.362  19.354 -0.0796  0.0551 -0.1334
56790W        W99843  26.499  14.383  20.613 -0.3989  0.4349  0.2665
56791W        W99844  20.799  27.883   2.477  0.0268  0.0706  0.2611
56792W        W99845  12.066   9.662   2.862  0.2678  0.2265  0.2216
56793W        W99846   4.809  15.669   7.911 -0.1185  0.0873  0.1256
56794W        W99847  28.199   6.560  26.815  0.0257  0.1423  0.0514
56795W        W99848  11.484   0.743  24.550  0.1651  0.0903 -0.1739
56796W        W99849   0.877   0.537   4.135 -0.2209 -0.0837 -0.1845
56797W        W99850  23.137  19.594   3.642  0.1976  0.1701  0.3473
56798W        W99851   4.761  25.160   6.802  0.3878  0.2054  0.2537
56799W        W99852  32.439  20.469  17.739 -0.0935  0.0411 -0.0598
56800W        W99853  28.804  15.854   6.504 -0.1031 -0.0176 -0.2324
56801W        W99854   4.955   8.359   7.867  0.4325  0.1162 -0.0336
56802W        W99855  21.640   5.275   8.197 -0.0798 -0.0948  0.2011
56803W        W99856  25.413  16.246   3.163  0.0937  0.1721 -0.1015
56804W        W99857   6.159  34.069   2.613 -0.0928  0.0183  0.0583
56805W        W99858  32.549  33.711   8.607  0.0544  0.3513 -0.0878
56806W        W99859   4.967  14.095   8.895  0.0715 -0.1950  0.3547
56807W        W99860  11.524  13.729   2.092  0.0165 -0.0143 -0.3523
56808W        W99861  14.854  10.645   5.887 -0.3082 -0.2204 -0.0214
56809W        W99862  15.987  17.185  24.732 -0.1807 -0.0404  0.2489
56810W        W99863  26.018  11.253   1.419 -0.1369  0.0642  0.2248
56811W        W99864   4.433   6.649   1.720 -0.0394  0.0878  0.0993
56812W        W99865  25.732   9.879  15.766 -0.2427 -0.1703 -0.0020
56813W        W99866  30.750  15.668   4.338 -0.0732 -0.1844  0.0316
56814W        W99867   4.225  13.779  19.664 -0.3721 -0.0956  0.1813
56815W        W99868  21.206  13.311   1.150  0.0802  0.0225 -0.0729
56816W        W99869  26.339  15.795   3.856  0.1714  0.3718  0.0437
56817W        W99870  32.840   1.394   5.707 -0.0462  0.0529  0.0815
56818W        W99871  31.314  14.364   0.306 -0.1392 -0.0695  0.1025
56819W        W99872   6.839   8.985  22.864 -0.1939 -0.0300  0.2219
56820W        W99873  27.924  15.849   4.520 -0.1819  0.3297  0.1539
56821W        W99874  33.415  30.209  13.566 -0.4722  0.2595 -0.1407
56822W        W99875   0.168  30.399   3.814 -0.1723  0.1069  0.2513
56823W        W99876  21.794  15.039   7.429  0.1522 -0.3905  0.0055
56824W        W99877   2.059   7.631  27.665 -0.0014  0.1544 -0.1465
56825W        W99878  25.718   3.047   8.949 -0.0348  0.1568 -0.2010
56826W        W99879   6.469  16.067   8.039 -0.2537 -0.1265  0.1342
56827W        W99880  10.138  26.683   0.287  0.3722  0.0720  0.4664
56828W        W99881  10.118  13.368  28.180 -0.1482  0.1665  0.1747
56829W        W99882   6.274  17.527   8.169  0.1305 -0.1154 -0.1982
56830W        W99883  29.050   8.348   9.290  0.0895 -0.1185  0.1984
56831W        W99884  30.723  20.375   0.785  0.1532 -0.1558 -0.1550
56832W        W99885   5.957   0.353  14.507 -0.1806  0.1550 -0.1596
56833W        W99886   9.205   7.837  23.938  0.0148 -0.0355  0.0752
56834W        W99887   1.515   7.309   3.679  0.2245 -0.0264 -0.2898
56835W        W99888   1.016  16.290  27.152  0.0869 -0.3459 -0.0329
56836W        W99889  20.135  31.254   5.560 -0.1073  0.0305  0.2513
56837W        W99890  17.760  12.413   1.608 -0.0816 -0.1428 -0.1208
56838W        W99891  33.759  30.766   6.466  0.1083  0.1539  0.3820
56839W        W99892  21.225   8.569  27.959  0.1171 -0.0972  0.0074
56840W        W99893  25.790   7.376  25.363  0.4142  0.1472  0.1866
56841W        W99894   5.217  18.995  24.481 -0.2337  0.0801  0.0454
56842W        W99895  13.893  24.530  25.727  0.0510  0.0541  0.1403
56843W        W99896  27.439   7.198   8.551 -0.1994 -0.2020 -0.1399
56844W        W99897  22.036   3.965   8.319 -0.2037  0.0869  0.1096
56845W        W99898  27.755   2.861  23.296  0.0658 -0.2485  0.0601
56846W        W99899  15.250  31.575  24.626 -0.0888 -0.1218  0.1904
56847W        W99900  24.740  33.844   2.785 -0.2797  0.0288 -0.1848
56848W        W99901  27.528  33.577   8.207 -0.0551 -0.0889 -0.1283
56849W        W99902  19.513   0.829  23.126  0.2120 -0.2356  0.0935
56850W        W99903  27.963  12.110   1.200 -0.1348  0.1461 -0.0439
56851W        W99904  33.997   8.402   0.652 -0.3149 -0.1410  0.1929
56852W        W99905   5.103  11.296  25.185  0.1367 -0.2699 -0.0240
56853W        W99906  17.783  33.013   4.344 -0.1137  0.1365 -0.1174
56854W        W99907  14.696  30.934   4.685  0.0751  0.0619 -0.1692
56855W        W99908  33.568   9.604   7.444 -0.2441  0.0325  0.1619
56856W        W99909   7.565  15.365  27.844  0.1197 -0.1144  0.0721
56857W        W99910   4.798   6.870   5.901  0.1393 -0.0207  0.1593
56858W        W99911  10.388   0.032   6.289  0.2580 -0.0047 -0.3727
56859W        W99912   7.970  34.112  29.023 -0.0838  0.2039  0.0444
56860W        W99913  12.022   0.839  22.283  0.0778 -0.2490  0.0990
56861W        W99914   1.757   1.985   5.023 -0.1023 -0.0920  0.2354
56862W        W99915  33.427  22.361   5.585  0.2134  0.0463  0.2212
56863W        W99916  27.175  16.755   9.307 -0.3258  0.1848 -0.1374
56864W        W99917  31.223   4.392  28.341  0.1011  0.2108 -0.0846
56865W        W99918  24.753  10.789  25.913  0.0958  0.0055  0.3081
56866W        W99919  17.585   1.823  17.193 -0.1311 -0.2679  0.0050
56867W        W99920  31.364  25.955   5.027  0.1291 -0.0342 -0.1930
56868W        W99921  11.604   4.517   8.982  0.1482  0.3495  0.1215
56869W        W99922   8.226   4.343   3.329 -0.0284 -0.0162 -0.1006
56870W        W99923  27.132   7.366   1.134 -0.2393 -0.1170  0.2153
56871W        W99924   9.874  32.613   5.618  0.0229 -0.0854  0.0438
56872W        W99925   2.070   6.198   6.829 -0.3239 -0.1361  0.1213
56873W        W99926  31.281  14.513  28.247 -0.1500 -0.0163 -0.1398
56874W        W99927  10.209   1.250  24.918 -0.1068  0.0016  0.1000
56875W        W99928  31.809  27.844  21.734 -0.0453  0.0457 -0.6612
56876W        W99929  29.705   6.124  16.194 -0.0898 -0.0041 -0.0087
56877W        W99930   2.920  26.214   5.274 -0.2756  0.1636  0.0102
56878W        W99931   1.686   7.714   0.231 -0.1763  0.4284 -0.1100
56879W        W99932  30.214  16.150   9.037  0.1076 -0.0325  0.2090
56880W        W99933  31.832   1.824  27.860  0.3195 -0.2554  0.1377
56881W        W99934  12.891  33.819  18.043  0.1809  0.1312  0.2102
56882W        W99935  31.561   5.251  24.693 -0.0005 -0.2351  0.0098
56883W        W99936  29.027   0.929  10.103 -0.7192  0.0515 -0.1184
56884W        W99937   7.253   9.959   6.527  0.1241 -0.1417  0.5618
56885W        W99938  22.724  29.013   7.638  0.1447 -0.1490 -0.4088
56886W        W99939   4.671   4.869   4.391  0.1703 -0.1891 -0.0010
56887W        W99940  15.840   5.621   8.386 -0.0313 -0.0054 -0.1365
56888W        W99941  21.028  32.043  27.459 -0.0708 -0.1312 -0.5252
56889W        W99942  29.805  31.607  23.413  0.0717 -0.0439  0.1073
56890W        W99943  28.449  13.413   7.723 -0.1427  0.0377 -0.2583
56891W        W99944  23.390  13.259  19.250 -0.0705  0.1178  0.1253
56892W        W99945  34.611  23.755   3.467 -0.0008 -0.0582  0.0769
56893W        W99946   0.258   6.384  26.365  0.1190  0.1056 -0.2166
56894W        W99947  33.189  12.932   0.295  0.2924  0.1139  0.0006
56895W        W99948  14.207  28.376   0.592 -0.1059 -0.0429  0.0410
56896W        W99949   6.970  21.660   2.037  0.0714 -0.0741 -0.1794
56897W        W99950   3.973   3.221   5.436  0.1395 -0.0856  0.3210
56898W        W99951   9.638   7.315   7.564  0.4735  0.0736  0.1740
56899W        W99952  10.570  14.994   4.155 -0.1827  0.1635  0.0727
56900W        W99953  21.396  17.851  22.832  0.1779 -0.0256  0.0361
56901W        W99954  30.612  34.093   5.432  0.0020 -0.1408  0.0032
56902W        W99955   0.997  34.269   8.603 -0.1559 -0.0832  0.1134
56903W        W99956   3.914  12.194   7.233  0.4910  0.1283  0.0899
56904W        W99957  17.277  11.480  18.982  0.1888 -0.4097  0.0927
56905W        W99958  21.638  28.020   2.421 -0.0646 -0.1731 -0.1565
56906W        W99959   2.610   7.734   1.323  0.1313  0.1683 -0.0449
56907W        W99960  23.212   5.732  17.492  0.0620 -0.1984 -0.1112
56908W        W99961   5.247   1.162   9.947  0.0969 -0.4920  0.3705
56909W        W99962  22.062  17.973  22.950  0.1002 -0.3539  0.0605
56910W        W99963  33.817   3.074  27.967 -0.0976 -0.4157  0.0905
56911W        W99964  20.176   2.026   7.481  0.0872  0.1565 -0.0626
56912W        W99965   7.701   5.293   9.140 -0.1818 -0.1049 -0.0897
56913W        W99966  12.001  11.642   6.165 -0.1810  0.2058 -0.0461
56914W        W99967   1.433  13.656   6.456  0.1432 -0.0955  0.0604
56915W        W99968  23.416  16.422   1.871  0.1225 -0.0642 -0.0946
56916W        W99969   0.309   7.884  26.947 -0.2364  0.0682 -0.3808
56917W        W99970  27.845  11.895  26.954  0.0481  0.1365 -0.2673
56918W        W99971  19.122  22.240   0.504  0.2641  0.4784 -0.0819
56919W        W99972   5.551  25.908   0.080  0.0649 -0.2651 -0.2367
56920W        W99973  14.807   0.781  23.558 -0.1374 -0.1303  0.1559
56921W        W99974  10.070  10.956   1.549  0.0413 -0.1390 -0.0475
56922W        W99975   8.571  10.814   5.258 -0.0368 -0.1788  0.1188
56923W        W99976  29.061   6.787  28.742 -0.1144 -0.2423 -0.1440
56924W        W99977   6.386   6.594  23.248  0.0676  0.3537  0.1871
56925W        W99978  17.264  32.791   8.747  0.1455  0.1635  0.0573
56926W        W99979   1.970  29.142  26.882 -0.3383  0.1207 -0.3738
56927W        W99980  22.978  24.733   5.280 -0.1704  0.0263 -0.0917
56928W        W99981  21.593  16.937  23.893 -0.1235 -0.0452 -0.0029
56929W        W99982  34.062  11.003   8.846 -0.1325  0.0721 -0.1447
56930W        W99983  22.094  17.056  21.992 -0.2523  0.1794 -0.1849
56931W        W99984  10.738  18.191   5.908 -0.2520  0.0746  0.0168
56932W        W99985  16.537   8.777   6.554  0.1363 -0.0942 -0.1103
56933W        W99986  31.696   5.222   7.815  0.0019 -0.1298 -0.0231
56934W        W99987  31.128  14.475   7.272 -0.1288  0.1290  0.0762
56935W        W99988   6.954   1.350   4.778 -0.1264  0.1358  0.2844
56936W        W99989  27.875  17.553  25.104  0.1565 -0.0883  0.0466
56937W        W99990  28.813  19.406  27.419  0.2556  0.2428 -0.0954
56938W        W99991  27.849   2.303   3.473  0.0421  0.0958  0.3353
56939W        W99992  13.700   5.742   1.408 -0.1928  0.0667 -0.0526
56940W        W99993  28.178  30.653  28.017  0.2037  0.0969 -0.0991
56941W        W99994   3.648  18.028   6.224  0.0837  0.1771 -0.1712
56942W        W99995  30.678  15.706   7.732 -0.2471 -0.2263  0.1741
56943W        W99996  33.084   6.549  24.284 -0.1249  0.0589  0.0720
56944W        W99997   0.326  12.868   5.030  0.0532  0.0362  0.2161
56945W        W99998  14.319  28.861   8.294 -0.0169 -0.2102  0.0947
56946W        W99999   8.558   2.754  26.695  0.0282  0.1943 -0.0623
56947W        W    0  30.974  30.664  26.098  0.1507  0.0433  0.1597
56948W        W    1   9.281  21.468   5.203 -0.1379 -0.0339 -0.0940
56949W        W    2   0.207  29.316  15.942 -0.3620 -0.3016  0.1296
56950W        W    3  30.864   1.652   2.450 -0.0569  0.2612 -0.0806
56951W        W    4   3.780  11.662  21.535 -0.1359 -0.1726  0.4705
56952W        W    5  32.511  25.953   6.463  0.1967 -0.2168  0.1250
56953W        W    6   0.596  10.650  24.728 -0.0663  0.4118  0.3343
56954W        W    7  23.496  28.585   4.255  0.0136 -0.2466 -0.0652
56955W        W    8  17.794   5.533  26.240 -0.2566  0.1797  0.0861
56956W        W    9  33.712   6.013   8.454  0.1082 -0.0554  0.0834
56957W        W   10   2.124   0.020  26.703  0.2824  0.2677 -0.0839
56958W        W   11  33.608   5.778  29.024  0.1029 -0.1917 -0.0538
56959W        W   12   4.525  34.183   3.346  0.0840  0.1915 -0.2041
56960W        W   13   6.961   5.593   8.720  0.1830  0.3088 -0.1028
56961W        W   14   7.892  34.076  22.837 -0.0140 -0.0959  0.4120
56962W        W   15  15.651   6.852   5.371  0.0920  0.0766  0.0543
56963W        W   16   4.737  27.076   6.669  0.2657 -0.2046  0.3580
56964W        W   17  28.391   8.452  22.069  0.2820  0.0962 -0.0899
56965W        W   18  27.921  31.374  29.068  0.1241 -0.2293 -0.0411
56966W        W   19  24.402   1.789   4.079 -0.1620  0.1843 -0.2076
56967W        W   20  30.979  19.190   7.374  0.0640  0.1986 -0.5098
56968W        W   21  11.092  32.471   9.815  0.1653  0.0324  0.0526
56969W        W   22  29.280  34.306   6.216  0.0559 -0.0343 -0.0976
56970W        W   23  30.663  27.822  21.171 -0.2618  0.0355 -0.0138
56971W        W   24   4.811  18.714   5.473 -0.5141 -0.0454 -0.1307
56972W        W   25  30.371  34.406  10.176 -0.1909 -0.0500 -0.0222
56973W        W   26  18.657   6.649   3.978  0.0350  0.2181 -0.1802
56974W        W   27   2.726   0.113   9.496  0.1878 -0.1380 -0.0566
56975W        W   28  19.579  20.673  24.466 -0.2092  0.0670 -0.1200
56976W        W   29  29.826   0.912   9.216  0.2026 -0.2943  0.0966
56977W        W   30  12.939  10.566  22.813  0.0264  0.0296 -0.2041
56978W        W   31  20.925  26.049  19.627 -0.2306 -0.1491 -0.1171
56979W        W   32  32.312  13.638  23.411  0.0123 -0.1606  0.2142
56980W        W   33   1.291  24.299  26.928  0.0791  0.3443 -0.3138
56981W        W   34  31.338  21.843  13.636  0.2530  0.0856  0.2869
56982W        W   35   6.257  30.252   2.970 -0.0793  0.1567 -0.1407
56983W        W   36  24.719  20.155   8.904  0.2625  0.0974  0.0097
56984W        W   37   4.493  31.003  17.495 -0.2014  0.1056 -0.1372
56985W        W   38  33.979  24.136   6.366 -0.1424  0.1613  0.0477
56986W        W   39  27.349   0.206  28.181  0.2655 -0.0264  0.1580
56987W        W   40  32.995  33.963   8.211 -0.0083 -0.0562 -0.0856
56988W        W   41  10.206  14.596   0.547  0.0252 -0.3948 -0.1420
56989W        W   42  29.671   8.061  25.559  0.0528  0.2239  0.3207
56990W        W   43   6.456   1.881   9.575  0.1027 -0.1138 -0.2862
56991W        W   44  28.001   4.248  23.889 -0.1070 -0.0722 -0.1519
56992W        W   45   6.537  10.557  22.462  0.1528 -0.0028  0.0005
56993W        W   46  34.299   2.960   5.951  0.0070  0.1648  0.1359
56994W        W   47   7.522   4.014  24.660  0.3777 -0.1134  0.2299
56995W        W   48  26.500   9.167  21.062 -0.1209 -0.1468 -0.0444
56996W        W   49  34.236   4.169   0.138 -0.2742  0.0607 -0.1571
56997W        W   50   6.202   1.397   2.248 -0.1350 -0.0452 -0.4482
56998W        W   51  15.468  17.319   9.032  0.2100 -0.3133 -0.2451
56999W        W   52  12.010  13.061  17.330 -0.3281 -0.1595  0.0700
57000W        W   53  11.902   5.742   4.320  0.0851  0.1210  0.0619
57001W        W   54  22.807   6.719  23.442  0.3257 -0.1985  0.0091
57002W        W   55  13.697  18.199   0.833  0.1411  0.0017  0.0326
57003W        W   56  31.433  16.669   8.465 -0.3324  0.0140  0.0095
57004W        W   57  26.726  31.799   4.281  0.1267  0.2864 -0.1990
57005W        W   58  15.768   8.900   7.950  0.0752  0.0251 -0.0188
57006W        W   59  28.623  21.429   5.743  0.0241 -0.1109  0.1715
57007W        W   60  17.547  18.552  23.930  0.3155 -0.0326 -0.1855
57008W        W   61  29.207   1.220   1.136 -0.3839 -0.2065 -0.0039
57009W        W   62  14.050   5.833   9.770 -0.0655  0.0694  0.2770
57010W        W   63  26.189  15.081   4.612  0.1810 -0.0881  0.1536
57011W        W   64   8.513   7.652   7.156  0.2183  0.3080  0.2616
57012W        W   65  15.994   8.170   2.101  0.2935 -0.0519  0.0310
57013W        W   66   0.043  34.355  15.044  0.0937 -0.4190  0.0720
57014W        W   67  25.876   4.413  14.816  0.0887  0.1779 -0.1425
57015W        W   68  14.256  13.894   9.417 -0.2017  0.0341  0.1503
57016W        W   69  25.812   1.682  16.226 -0.0101  0.2416  0.2066
57017W        W   70  23.801   9.484   8.525 -0.1066  0.0427  0.1379
57018W        W   71  14.175   1.275  24.812 -0.1300  0.1843 -0.1992
57019W        W   72  17.501  12.243   3.677  0.0242  0.1083  0.0680
57020W        W   73  10.017   5.365   0.466 -0.1220  0.0143 -0.0650
57021W        W   74  34.310  23.063   2.314 -0.0618  0.0188 -0.1744
57022W        W   75  31.286  29.469  22.714 -0.2865  0.1044 -0.0233
57023W        W   76  24.952  31.448   1.429 -0.1036  0.2639  0.0394
57024W        W   77  34.265   7.978  26.530 -0.0313 -0.0162  0.2008
57025W        W   78  32.792  32.537   5.215  0.0836 -0.2473 -0.0588
57026W        W   79  12.543  11.696   6.168  0.0539 -0.2054  0.3019
57027W        W   80   6.657  18.583   9.683 -0.3001 -0.1203 -0.0336
57028W        W   81  33.529   5.131  27.384 -0.0808  0.0830  0.0028
57029W        W   82  27.391   3.427   3.034  0.1207 -0.1984  0.1797
57030W        W   83  30.719  24.519  21.181 -0.2578 -0.2345  0.1436
57031W        W   84  23.009  13.449  14.016 -0.1088  0.0657  0.0510
57032W        W   85  19.430   1.336  27.711  0.1536 -0.0203 -0.0452
57033W        W   86   7.365  22.968   9.455 -0.1242 -0.3006 -0.3203
57034W        W   87   3.322   7.358   9.101 -0.1338  0.1038  0.1273
57035W        W   88  31.155   0.891   5.952  0.0171  0.0395 -0.2995
57036W        W   89  19.357  26.054   3.643  0.3168  0.2173 -0.1020
57037W        W   90   5.036  19.315  20.954  0.3546  0.1106 -0.0420
57038W        W   91   8.461  27.135   1.236 -0.3049 -0.1852  0.0114
57039W        W   92  22.111   4.586   4.399  0.2207 -0.0535 -0.0689
57040W        W   93  30.782  10.457   9.285 -0.2227  0.3268 -0.0010
57041W        W   94  28.349  31.927  29.192 -0.0098  0.1684 -0.0949
57042W        W   95  29.139   7.323   4.138  0.0541 -0.0306 -0.0564
57043W        W   96   0.843  12.079   2.317 -0.2460 -0.0643 -0.3090
57044W        W   97  34.226  13.682   2.252 -0.1455 -0.3968  0.3461
57045W        W   98   6.813   3.515   3.962 -0.0662 -0.2221 -0.0219
57046W        W   99   0.562  11.926   5.469 -0.0944  0.1460 -0.0814
57047W        W  100  31.575   3.199   6.109  0.0714 -0.1781 -0.0767
57048W        W  101   2.110   7.561   9.101  0.2050  0.0125  0.0192
57049W        W  102  33.920   4.961  17.996 -0.0668 -0.0119  0.2022
57050W        W  103  25.073  31.232   8.948  0.0839  0.0426 -0.0507
57051W        W  104   9.281   4.806  22.891  0.2231  0.3110  0.2360
57052W        W  105  25.232  11.602   1.474  0.0912  0.2099 -0.1309
57053W        W  106   9.734  10.447   3.230  0.1133 -0.1950 -0.0662
57054W        W  107  34.289  29.556   3.942 -0.1499 -0.0220 -0.1211
57055W        W  108  20.738  10.775   8.266  0.1451 -0.4270 -0.1059
57056W        W  109  33.766  32.655  18.867 -0.1091 -0.1443  0.1870
57057W        W  110  34.349  13.147   5.516 -0.1766 -0.1529 -0.0517
57058W        W  111   7.214  11.706   2.172 -0.1985 -0.2551  0.1012
57059W        W  112  14.711   9.497   5.598 -0.0249 -0.0348  0.2052
57060W        W  113  31.823   8.760   4.581  0.1048  0.0347 -0.1122
57061W        W  114   9.310  32.081  25.126  0.1239 -0.4031  0.0730
57062W        W  115  29.785   8.026   3.438  0.2150 -0.1387  0.4280
57063W        W  116  34.559  29.273  23.272 -0.0287  0.1393  0.0428
57064W        W  117   8.811   1.214   8.940  0.0188  0.1023 -0.1228
57065W        W  118  18.405   1.817   3.594  0.2669 -0.1836 -0.1546
57066W        W  119  10.714   1.841  26.208  0.3530  0.0326 -0.1010
57067W        W  120  14.855  20.663   2.522 -0.0351 -0.1227  0.3406
57068W        W  121   1.674   8.319  10.457  0.1975  0.0871  0.0707
57069W        W  122  29.288  21.074   5.290  0.0133 -0.0396 -0.0365
57070W        W  123   5.943  33.362  25.694 -0.3257  0.0477  0.0165
57071W        W  124  28.694  14.359  22.034  0.0194 -0.0615  0.0252
57072W        W  125  34.096  32.869   1.156 -0.3079  0.2132 -0.2757
57073W        W  126   9.097  30.644   2.463 -0.0927 -0.3342 -0.2788
57074W        W  127  22.052   4.993   6.130  0.0490  0.1974  0.0368
57075W        W  128  28.177  17.946  25.097  0.1541  0.0601  0.0503
57076W        W  129  20.000   5.278  26.929  0.1941 -0.2600  0.1901
57077W        W  130  14.882   8.601   4.962  0.0901  0.2274 -0.1822
57078W        W  131  33.724   0.056  24.797  0.0293 -0.0459 -0.0478
57079W        W  132  21.735  30.124   7.587 -0.1047 -0.0875  0.0177
57080W        W  133   9.769   0.689   5.275  0.1085  0.2154 -0.0569
57081W        W  134   6.748  31.906   8.073  0.0671  0.1220  0.2891
57082W        W  135  27.683  13.721   9.565  0.1371 -0.1347 -0.2720
57083W        W  136  11.757  15.428   9.688  0.0114  0.4130 -0.0314
57084W        W  137   0.243  32.505   4.467 -0.0353 -0.1306  0.1023
57085W        W  138  21.767  17.508   6.474 -0.0781  0.1744 -0.0050
57086W        W  139  19.741  28.554  16.751  0.0535 -0.1714  0.0025
57087W        W  140  30.255   3.169   7.437  0.0033  0.1059 -0.2086
57088W        W  141  16.347  22.742  22.911 -0.0123  0.0760  0.0412
57089W        W  142  29.158   1.384  20.947  0.0042  0.3539 -0.1830
57090W        W  143   4.885   8.511  29.048 -0.2647 -0.1300 -0.4050
57091W        W  144  30.716  13.492   6.325 -0.0412 -0.0330  0.4278
57092W        W  145   4.188  16.058   7.157 -0.3063 -0.1981  0.1705
57093W        W  146  27.923  14.288   4.021  0.3619 -0.2496 -0.2734
57094W        W  147  23.285  32.259  27.913  0.3406 -0.1080  0.0459
57095W        W  148  30.961  24.111  25.285  0.2603 -0.0272  0.0334
57096W        W  149   7.201   3.269   4.984 -0.1584  0.2206  0.1056
57097W        W  150  21.840   1.727   9.166 -0.2049 -0.2295 -0.0840
57098W        W  151   6.522  26.885   4.783  0.0306 -0.0157 -0.1736
57099W        W  152  31.968   9.375   5.518 -0.3653  0.1396  0.1563
57100W        W  153   6.169  34.571   0.432 -0.0195  0.0422  0.2747
57101W        W  154  19.530   8.226  27.283  0.2101 -0.0616 -0.0876
57102W        W  155  23.206  25.752   7.710 -0.0050 -0.1134  0.0862
57103W        W  156  12.769  30.355   1.945  0.2983  0.0746 -0.2037
57104W        W  157  29.717   4.938  22.664 -0.3902 -0.1370  0.1187
57105W        W  158  29.901  33.142   6.485  0.0880 -0.1773  0.0008
57106W        W  159  19.120  22.811   3.741 -0.2039  0.2502  0.1898
57107W        W  160   9.250   0.960   6.914 -0.1302  0.0171  0.2146
57108W        W  161  10.766  33.178   1.943 -0.1826  0.1683  0.1796
57109W        W  162  18.417   1.736   4.441 -0.0622  0.2490  0.1254
57110W        W  163  32.648  12.921  20.886  0.3422 -0.0367  0.0884
57111W        W  164  28.980   3.135   7.317  0.1846 -0.1934  0.2587
57112W        W  165  17.299  31.858   1.473  0.2351 -0.1498 -0.0141
57113W        W  166  10.218  15.768   2.130 -0.0141 -0.0072  0.1072
57114W        W  167  27.603  33.823   4.335 -0.0260  0.3485 -0.1399
57115W        W  168  28.718   0.309   9.408 -0.0259  0.1284 -0.2129
57116W        W  169   2.789   6.203   9.245  0.1345  0.3883  0.0140
57117W        W  170   1.707  26.438   5.910  0.2732 -0.0295 -0.1289
57118W        W  171  17.014   9.373  25.283 -0.1292 -0.1660  0.2452
57119W        W  172  24.385  29.499   7.172 -0.2525 -0.2066  0.1250
57120W        W  173  21.351   2.696  24.175 -0.1206 -0.0039 -0.0158
57121W        W  174   5.618  20.898   2.106 -0.0732  0.2876 -0.0825
57122W        W  175  16.353  33.854   3.984  0.1000  0.0825 -0.1771
57123W        W  176  31.170   5.184   3.079 -0.0244  0.2808  0.2555
57124W        W  177  30.905  22.637   3.840  0.4544 -0.1295  0.1705
57125W        W  178  15.319   6.137   9.955  0.2880  0.2879  0.1800
57126W        W  179  11.006  32.910   2.534 -0.3290  0.2299 -0.0663
57127W        W  180  30.813  24.994   9.593  0.2373  0.5235  0.0379
57128W        W  181  14.531  12.030  23.542  0.0610 -0.0958  0.0684
57129W        W  182  26.616   6.496   6.984  0.2062  0.1574  0.0854
57130W        W  183  27.527   5.806   2.366 -0.0274 -0.0473  0.1820
57131W        W  184   7.110  23.644   1.655  0.1790 -0.2000 -0.0665
57132W        W  185  27.085  29.253   3.917 -0.1863  0.1977  0.0019
57133W        W  186   2.942  30.558   4.752 -0.2602 -0.1320 -0.0076
57134W        W  187  29.495  10.314   7.393 -0.0567  0.1442  0.0842
57135W        W  188  19.691  14.581   8.494  0.6128 -0.3681  0.2211
57136W        W  189   8.144   8.661  14.537  0.2847  0.1362  0.0327
57137W        W  190   7.658   8.140   8.270  0.0626 -0.0361  0.1486
57138W        W  191   3.590  28.154  28.554  0.0678  0.3119  0.1726
57139W        W  192   1.826   8.170   3.572  0.2569 -0.0206 -0.3182
57140W        W  193   6.177  11.266  27.943 -0.2545 -0.1531  0.1427
57141W        W  194  33.459  27.666  28.477  0.1195  0.0950 -0.2488
57142W        W  195  15.730  29.208   7.420 -0.2955 -0.3220 -0.0587
57143W        W  196   7.191  13.112  19.433  0.0445 -0.2081  0.1498
57144W        W  197  12.780  11.292  26.782  0.0607 -0.1238 -0.1989
57145W        W  198   5.571  20.527   6.312  0.2648  0.0347 -0.4239
57146W        W  199  10.277   3.016   7.097  0.1199 -0.0450  0.0128
57147W        W  200   0.745  14.330   8.916 -0.0659  0.0503  0.0881
57148W        W  201  31.787  34.658  27.611 -0.0322  0.0317  0.0821
57149W        W  202   1.618   1.708   7.595  0.1629 -0.1427 -0.1408
57150W        W  203  33.519  20.637   9.805 -0.1450 -0.0124  0.3722
57151W        W  204  23.172   9.512  18.540  0.3139 -0.3193  0.1346
57152W        W  205  20.836  33.636   5.033  0.2610 -0.1036 -0.0662
57153W        W  206   1.838   3.376   4.029  0.1430 -0.1359 -0.2894
57154W        W  207  31.645  18.105  28.677  0.1629  0.0829  0.1516
57155W        W  208  29.211  31.138   7.202  0.0037  0.0936  0.0110
57156W        W  209   0.489   2.113  27.229  0.2343 -0.1858  0.1373
57157W        W  210  33.171   0.601  20.242 -0.1281 -0.1398 -0.0043
57158W        W  211  23.765  34.309   7.140 -0.3806  0.1785 -0.0103
57159W        W  212  32.821   2.649  29.088  0.1538 -0.0350  0.0540
57160W        W  213  31.304   6.615  28.060  0.3295  0.2980  0.1686
57161W        W  214  29.191   2.257   9.464  0.1489  0.0672 -0.1079
57162W        W  215   8.201  26.762  26.809  0.1168 -0.1983  0.1221
57163W        W  216   1.221  33.799   9.328  0.0264  0.0477 -0.1508
57164W        W  217  14.803  15.722   4.276 -0.2029  0.1961  0.0502
57165W        W  218  12.206  28.644   2.466 -0.0626  0.1186  0.0352
57166W        W  219  32.464   1.359  26.242 -0.2288  0.2210  0.1398
57167W        W  220   3.033  19.120   7.622  0.4780 -0.0014 -0.1930
57168W        W  221  22.165   0.278   6.395 -0.1096  0.2167  0.0103
57169W        W  222  12.467   3.201  23.713  0.1731 -0.0408 -0.1555
57170W        W  223  32.810   9.298   3.807 -0.2474  0.1158  0.0888
57171W        W  224  32.832   9.995  27.833 -0.1644  0.0881 -0.2627
57172W        W  225  31.711  30.797   1.982 -0.2537 -0.0971 -0.0851
57173W        W  226  28.196   5.668  27.678  0.0285  0.3305  0.1057
57174W        W  227   7.644   5.404   8.641 -0.4505 -0.0838 -0.1596
57175W        W  228   1.383  30.311   5.540 -0.1115 -0.1591  0.3132
57176W        W  229  28.082  29.550   7.275  0.1432  0.0400 -0.1160
57177W        W  230   8.247  29.835   6.896  0.0296 -0.2329  0.0645
57178W        W  231   7.334   3.256   8.485  0.3523 -0.1814  0.0243
57179W        W  232  21.450  16.576   3.729  0.0782 -0.2114 -0.2358
57180W        W  233  25.864  31.474   5.259  0.0683 -0.2002  0.1036
57181W        W  234  10.592  21.419   2.234 -0.1780  0.2321  0.1878
57182W        W  235  13.146  14.490   6.563 -0.1355 -0.0708  0.2593
57183W        W  236   8.788   4.019   0.737  0.1240  0.1548 -0.4805
57184W        W  237  28.352  19.775  27.260  0.0678 -0.0289 -0.2264
57185W        W  238   3.716   6.185   5.727  0.1473  0.1684 -0.0045
57186W        W  239   7.649  21.808  25.371 -0.5382  0.0108 -0.2911
57187W        W  240   2.339  27.302  18.809  0.4081  0.3257 -0.0287
57188W        W  241  21.579   0.813  27.644 -0.0005 -0.0107  0.1023
57189W        W  242  16.575  11.549   7.016  0.1303  0.2483 -0.3755
57190W        W  243   8.015  29.656   0.700 -0.0830 -0.3113 -0.0859
57191W        W  244  30.930   9.149   8.087  0.1512  0.1440 -0.0585
57192W        W  245   2.060  26.431   2.310  0.0663  0.1563  0.1436
57193W        W  246   9.929   7.482  15.240  0.1120  0.0758  0.0077
57194W        W  247   9.795  24.654   7.196  0.1572 -0.1786 -0.0344
57195W        W  248   2.304  20.235  27.777 -0.0822 -0.1278  0.0951
57196W        W  249   0.072   6.641   4.015  0.1558 -0.3471 -0.1376
57197W        W  250  34.162  14.752   6.193 -0.0048 -0.1783  0.0769
57198W        W  251  13.963  33.079   7.047 -0.1274 -0.0701 -0.0057
57199W        W  252   1.042  32.444   5.287 -0.3321  0.0131 -0.2237
57200W        W  253   3.931  21.066   8.200 -0.3191 -0.0027 -0.3200
57201W        W  254   3.128   5.387  10.677  0.1241  0.2799 -0.0388
57202W        W  255   0.998   0.825   2.208  0.1823 -0.3607  0.2453
57203W        W  256   3.548  22.587   1.739  0.0334 -0.0959 -0.1133
57204W        W  257  15.362  16.508  23.281 -0.2857 -0.1546  0.2520
57205W        W  258  20.021   5.917  25.096  0.2090 -0.2857 -0.0380
57206W        W  259  29.356  22.076  21.506 -0.1488  0.4085  0.1359
57207W        W  260  25.677  18.023   3.408  0.2554 -0.1740  0.0878
57208W        W  261   4.826  11.770  10.891 -0.1309 -0.0882  0.2056
57209W        W  262  23.666   3.810  28.909  0.0583 -0.1060 -0.0882
57210W        W  263   3.974  29.018   3.040 -0.2716 -0.0023  0.0045
57211W        W  264   3.346  21.279   1.627 -0.1917 -0.0853 -0.0266
57212W        W  265  34.507  13.315  23.505  0.1411 -0.3603 -0.0268
57213W        W  266   2.656  15.100  21.342  0.6303 -0.0057 -0.0704
57214W        W  267   3.016   7.908   2.254 -0.1456  0.1827  0.0802
57215W        W  268  28.902  19.160   4.721 -0.0557  0.1709 -0.0606
57216W        W  269  23.846   3.423   6.964 -0.0804 -0.1448 -0.1657
57217W        W  270  32.700  12.629   2.939 -0.1965 -0.0045 -0.0877
57218W        W  271  12.703   0.370   8.075  0.1130 -0.1632 -0.4383
57219W        W  272  25.801  14.858   0.456 -0.2775  0.3554  0.0096
57220W        W  273   9.508   8.978  10.495  0.1011 -0.0705 -0.2101
57221W        W  274  18.660   4.560   0.051 -0.1355  0.0297  0.0036
57222W        W  275   6.347  28.057   5.242 -0.1344  0.0124  0.1916
57223W        W  276  26.902   6.873  18.825  0.1316 -0.0949 -0.0057
57224W        W  277   9.421  26.566  16.656 -0.0639 -0.1912  0.0585
57225W        W  278  14.521   4.253   4.298 -0.1363 -0.3939  0.1628
57226W        W  279   9.011   8.749   0.563  0.0838 -0.2004 -0.2708
57227W        W  280   3.068  33.572   4.959 -0.0538  0.5125  0.1617
57228W        W  281  28.466  31.076   4.574 -0.2083  0.0924  0.0857
57229W        W  282   2.328   8.053   0.906  0.1049 -0.0680 -0.3336
57230W        W  283   2.730   4.011   4.819 -0.1993 -0.1495  0.1930
57231W        W  284  26.650   1.753   5.419  0.1875 -0.2519 -0.1090
57232W        W  285  13.934   6.353   5.301  0.0788 -0.1494  0.1551
57233W        W  286  23.273  12.719   1.709 -0.0530 -0.2103  0.2014
57234W        W  287  24.671   8.115  21.934  0.1257 -0.0983  0.2604
57235W        W  288   1.203  12.799   9.243  0.0008 -0.0928  0.2385
57236W        W  289  31.182  17.785   6.484 -0.0287 -0.0531  0.1681
57237W        W  290   5.487  10.693   6.475  0.0262 -0.1570 -0.1263
57238W        W  291  14.829  14.673   0.099 -0.2164 -0.2780  0.2944
57239W        W  292  32.472   3.444   9.176  0.0637 -0.2114  0.1184
57240W        W  293  29.987  18.642   4.679  0.1423 -0.0718 -0.1146
57241W        W  294   4.280  19.966   7.080  0.0587 -0.0330 -0.3364
57242W        W  295  34.656  25.316   2.593 -0.0102  0.1761  0.0085
57243W        W  296   2.229  12.976  24.617 -0.1508  0.0570 -0.2512
57244W        W  297   0.940  29.842   2.757  0.0619  0.2840  0.3248
57245W        W  298  32.924  21.615  21.129  0.2785 -0.1153 -0.2456
57246W        W  299  20.623   3.732  26.282  0.0529  0.0655  0.1608
57247W        W  300   6.682  34.091  28.152 -0.0699  0.1862 -0.0398
57248W        W  301  25.229   6.116   0.851 -0.2484 -0.2212  0.0602
57249W        W  302  24.595  20.052   8.354 -0.1885  0.0180 -0.0008
57250W        W  303  28.284  10.369  23.019  0.2530  0.2893  0.1578
57251W        W  304   7.509   2.326   6.052 -0.1883 -0.1166  0.0063
57252W        W  305   5.995   1.960   3.484 -0.0188  0.0282 -0.0047
57253W        W  306  14.319  31.318   3.001  0.2357  0.4891 -0.1348
57254W        W  307  34.549   2.314   6.733 -0.2682 -0.1387 -0.0926
57255W        W  308  28.164  12.502   8.987 -0.1672  0.1077  0.0206
57256W        W  309  18.273  32.184   5.975 -0.1653 -0.1772  0.2039
57257W        W  310  26.021   7.860  27.265 -0.1048 -0.0067 -0.1290
57258W        W  311  27.921  17.992  26.254  0.1336 -0.0925 -0.0898
57259W        W  312  10.563  28.595   7.070 -0.3369  0.2394  0.1778
57260W        W  313  12.997   4.883   0.056  0.1230 -0.2301  0.3473
57261W        W  314   0.475  27.953   8.916 -0.0578 -0.0620 -0.4180
57262W        W  315   3.148  33.104  28.035 -0.1430 -0.3650  0.3373
57263W        W  316   9.443  18.320  27.138 -0.3215 -0.2474  0.0198
57264W        W  317  22.995  21.709   9.553  0.2640  0.1111 -0.0465
57265W        W  318  25.326  27.849   6.001  0.1807 -0.2171 -0.1177
57266W        W  319  34.612  19.257  27.726  0.1712 -0.0021  0.0709
57267W        W  320  33.931   2.880  19.161  0.0445 -0.1161  0.1313
57268W        W  321   4.152   9.258  25.539  0.1155 -0.0385  0.0888
57269W        W  322  18.871   3.028  22.825 -0.1702  0.0271  0.0813
57270W        W  323  13.871  31.376   2.618 -0.0974 -0.0236 -0.1016
57271W        W  324  32.617   0.224   0.755  0.2543  0.1815 -0.2632
57272W        W  325   6.410  12.720   3.153  0.0002 -0.2509 -0.1060
57273W        W  326  28.766  32.952  22.756  0.1795 -0.0465  0.0550
57274W        W  327  12.098   7.891  18.440  0.1320  0.0358  0.2904
57275W        W  328   4.834  12.895  28.124 -0.2137 -0.0516  0.0264
57276W        W  329  26.158  10.979  17.568  0.1046 -0.0737  0.0283
57277W        W  330   5.288  28.901   5.087  0.2451 -0.0940  0.1715
57278W        W  331   7.139  23.987  25.726  0.1324  0.4285  0.1241
57279W        W  332  22.262  29.804   9.201  0.1160  0.4056  0.0355
57280W        W  333   0.272  10.958  24.299 -0.3763 -0.2170  0.0389
57281W        W  334   2.773   5.690  28.192 -0.2970  0.2276  0.1312
57282W        W  335  34.641   9.338   0.471  0.1304 -0.1144 -0.1331
57283W        W  336  33.361  19.992   6.006  0.0284  0.0022  0.2065
57284W        W  337  21.834  30.964   3.831 -0.0576 -0.0007  0.1401
57285W        W  338   0.423   7.296   0.745 -0.0748  0.1034 -0.0920
57286W        W  339  31.331  24.250   5.577  0.2132  0.1517 -0.2661
57287W        W  340  32.370  24.270  24.858  0.0212 -0.0240 -0.0598
57288W        W  341   5.890  27.964  26.453  0.0479  0.3705 -0.3042
57289W        W  342  32.824  15.408   0.835 -0.0030 -0.1393  0.4349
57290W        W  343  30.352   5.785   7.523  0.1840 -0.2734 -0.2178
57291W        W  344  31.471   4.253   5.226 -0.1375  0.1168  0.0532
57292W        W  345   5.504   1.644   3.015  0.0167  0.1406 -0.1413
57293W        W  346   5.445  31.989  24.691 -0.5874 -0.0915  0.1451
57294W        W  347  14.017   4.092   5.949 -0.0678  0.0680  0.0973
57295W        W  348   2.607  32.845  28.945 -0.0807 -0.1880  0.1251
57296W        W  349   3.205   2.449   6.081  0.0942 -0.0359 -0.1457
57297W        W  350  32.552  24.365   6.683  0.0415 -0.1026  0.1794
57298W        W  351   7.338  34.538   8.912  0.0676 -0.0301 -0.0483
57299W        W  352  11.500   6.107  27.581  0.0094  0.2741 -0.0431
57300W        W  353   7.051   5.798   5.765 -0.0903 -0.2759 -0.0364
57301W        W  354   3.625   5.976   9.294 -0.0370  0.1473  0.0197
57302W        W  355  28.229   2.723  10.110 -0.0333 -0.1678 -0.0826
57303W        W  356  30.884  24.533   1.379  0.3429  0.1500 -0.2892
57304W        W  357   4.047  10.604  25.726 -0.1406  0.0748 -0.3397
57305W        W  358  10.005  32.151  21.463 -0.2107 -0.0781 -0.0738
57306W        W  359   2.782  26.219   5.849 -0.1149  0.0064 -0.2399
57307W        W  360  32.113  17.971  24.637  0.2631 -0.2258 -0.1831
57308W        W  361  32.524   1.577   1.601 -0.0860 -0.0462  0.1821
57309W        W  362  17.504   7.128   4.975 -0.1996 -0.3681 -0.1398
57310W        W  363   4.985   7.677   4.001 -0.2109 -0.1847 -0.1859
57311W        W  364  24.791  29.110  26.275  0.0754  0.1450  0.2555
57312W        W  365  28.302   2.788  18.412 -0.1224  0.0382 -0.0914
57313W        W  366  14.325  21.702   3.681 -0.1395  0.4339  0.2745
57314W        W  367   7.953   4.100   7.598 -0.1867 -0.1049 -0.2063
57315W        W  368  32.796   3.075   8.811  0.3635  0.3220  0.1775
57316W        W  369  33.401   9.635   7.938 -0.3494 -0.2744 -0.0436
57317W        W  370  27.391   1.929  21.535 -0.0420  0.1144 -0.1567
57318W        W  371   7.645  22.870  24.544  0.1074  0.0514  0.0455
57319W        W  372   3.362  13.914   1.265  0.2600  0.1421  0.1017
57320W        W  373   9.815   3.163   7.323 -0.1428 -0.1126 -0.0100
57321W        W  374  14.011  21.348   3.959 -0.3321  0.1129 -0.0300
57322W        W  375  27.239  27.550   1.751 -0.0452  0.0620  0.2352
57323W        W  376  11.350  14.279   8.540  0.1415 -0.1556  0.0811
57324W        W  377  17.154  22.327   7.854  0.1038  0.1410 -0.1663
57325W        W  378   9.260   1.962   0.534 -0.0808  0.0547 -0.0905
57326W        W  379  34.206  25.579   2.556 -0.2410  0.0494 -0.1181
57327W        W  380  10.036   6.178   4.936 -0.2403 -0.0916  0.3535
57328W        W  381   2.252   6.604   2.013  0.0057  0.0966 -0.0675
57329W        W  382  16.074  34.035   0.951 -0.2979 -0.0808 -0.3373
57330W        W  383  33.356   8.321  24.923  0.2098  0.1828  0.0943
57331W        W  384  32.670  26.407  22.692  0.2880 -0.1390 -0.0211
57332W        W  385  10.682   2.118   3.152  0.0545 -0.1449 -0.3675
57333W        W  386  28.705  14.420   5.735 -0.1032  0.0993 -0.2484
57334W        W  387  15.854   1.509   8.986  0.2729 -0.0723  0.0385
57335W        W  388  24.880   9.109   5.678 -0.0464  0.0775 -0.0173
57336W        W  389  20.184   0.641   1.416 -0.2318 -0.2944 -0.3843
57337W        W  390  18.736  13.566   3.608 -0.0226 -0.2953  0.1643
57338W        W  391  31.366   7.805  24.022 -0.0255  0.0085  0.0602
57339W        W  392  31.690  19.442   7.381  0.3288 -0.1977  0.3596
57340W        W  393   2.921   4.557   3.546 -0.0201  0.1144  0.0659
57341W        W  394   6.020   5.139   8.493  0.0773  0.1745  0.1772
57342W        W  395  28.860  26.173   3.412  0.1552  0.0439  0.1381
57343W        W  396   4.374  17.390   4.775  0.0485  0.0180  0.0559
57344W        W  397  21.809  11.917  16.159  0.0888  0.0154  0.1268
57345W        W  398  22.992  32.234  27.283  0.0671  0.0463  0.1100
57346W        W  399   5.033  14.584   3.309 -0.3183  0.1587 -0.3292
57347W        W  400  31.727  11.219   5.219 -0.1449 -0.1593 -0.4309
57348W        W  401   0.760   7.320   9.448  0.3408  0.2642 -0.4468
57349W        W  402   0.180  15.565   0.885 -0.4141 -0.0286  0.0859
57350W        W  403   7.260  33.850   1.039  0.0323 -0.0750  0.2754
57351W        W  404   6.101  34.489  27.525 -0.2975  0.0395  0.3475
57352W        W  405  17.329  11.623   3.820 -0.3245 -0.3488  0.1357
57353W        W  406  25.739   4.626   2.103 -0.1425 -0.1305  0.0778
57354W        W  407  13.504   7.233  22.941  0.0065 -0.3162  0.0691
57355W        W  408   9.101   4.208   9.198  0.1229 -0.0168  0.0648
57356W        W  409   3.578  21.618   7.437 -0.2248  0.0824 -0.2877
57357W        W  410  19.177   1.062  15.688 -0.3681  0.0832 -0.0271
57358W        W  411  20.371   9.209   8.548  0.0939 -0.2484  0.0722
57359W        W  412   7.807  19.919   3.847  0.0150 -0.0749  0.2069
57360W        W  413  23.144  19.493   3.060 -0.1396  0.1780  0.0433
57361W        W  414   8.250  22.767   6.150 -0.0469 -0.3230 -0.2256
57362W        W  415  10.253   1.737   1.033 -0.1298  0.0305 -0.0053
57363W        W  416  32.848  28.397   6.544  0.2114  0.1155  0.0269
57364W        W  417   0.776  21.816   1.359 -0.1788 -0.1020 -0.1442
57365W        W  418   5.954  11.181   2.023 -0.0396 -0.1922 -0.1154
57366W        W  419  13.671  19.892  26.845  0.1210  0.0767 -0.3448
57367W        W  420  23.951  10.978   0.210 -0.0375 -0.1016  0.0712
57368W        W  421   2.423  33.807   6.283 -0.0749 -0.3327  0.1964
57369W        W  422  18.978   8.325  25.296 -0.0366 -0.0864 -0.3677
57370W        W  423  10.209   7.907   8.082 -0.1077 -0.0176 -0.1278
57371W        W  424   5.806  11.328   3.563  0.1439  0.0842  0.3724
57372W        W  425  23.564   5.971   7.815 -0.2617  0.1210  0.0056
57373W        W  426   5.354  10.017  24.002 -0.0612  0.0805 -0.2059
57374W        W  427  25.184  17.228   9.303 -0.0199 -0.3341  0.0280
57375W        W  428   5.269  19.350  25.935  0.0387 -0.0635 -0.0401
57376W        W  429  15.058  16.322   2.065 -0.0151  0.3343 -0.1093
57377W        W  430  15.784  17.467   1.748  0.0598  0.0919 -0.2093
57378W        W  431  30.585   8.303   8.342 -0.0030  0.2110  0.3704
57379W        W  432  11.336   1.293   0.167 -0.1559 -0.1181 -0.1979
57380W        W  433  15.143  29.247  27.144 -0.4069  0.0606 -0.2278
57381W        W  434   6.000   8.456   8.329  0.2233 -0.0998  0.2277
57382W        W  435  16.699   2.968   1.784  0.1343 -0.1938  0.1926
57383W        W  436  30.991  34.262  28.317  0.0542  0.1479 -0.0631
57384W        W  437   9.172   0.392   7.756  0.1079 -0.3084  0.0810
57385W        W  438  32.246  13.959   9.555  0.1873  0.0339 -0.2019
57386W        W  439   6.343   9.611  24.280  0.3965 -0.2919 -0.0229
57387W        W  440  31.430  23.059  19.130  0.0446  0.1035 -0.1651
57388W        W  441   9.738   0.049   0.862 -0.3232  0.2620  0.0058
57389W        W  442   7.063  22.794   5.589 -0.1537 -0.1210  0.1305
57390W        W  443  10.426  31.496   8.397  0.0190  0.1750  0.2302
57391W        W  444  27.346  34.058  23.379 -0.2229  0.3112 -0.2750
57392W        W  445  25.350  31.215   3.043  0.0772 -0.1483 -0.1403
57393W        W  446  33.807  33.647  26.938 -0.0522 -0.2403  0.2540
57394W        W  447  11.921  21.838  19.443 -0.0465  0.0921  0.0456
57395W        W  448  10.631  12.446   2.039 -0.2847 -0.2105 -0.3873
57396W        W  449   9.806   2.165   6.381  0.3763 -0.2777 -0.0731
57397W        W  450  20.619  32.604   9.838 -0.0137  0.0078  0.1707
57398W        W  451  13.901   5.470   4.658 -0.2883 -0.2467  0.2138
57399W        W  452  10.588   6.365   5.937 -0.1472 -0.2479  0.1758
57400W        W  453  15.796   8.320   2.606  0.1250 -0.0801  0.1748
57401W        W  454  32.818   0.063  27.819  0.0601  0.1328  0.2615
57402W        W  455   4.765  11.447  19.911  0.4412  0.0982 -0.0558
57403W        W  456  23.701  27.347  16.489  0.0299  0.2936 -0.0706
57404W        W  457  30.866  20.415   7.176  0.0972 -0.1796  0.0682
57405W        W  458   9.044   0.703   5.175  0.1058  0.0789  0.1446
57406W        W  459   8.474   1.015   4.924  0.1886  0.0695  0.0471
57407W        W  460   0.656  11.452  24.539 -0.1678 -0.2330  0.3510
57408W        W  461   9.875   4.812  26.790  0.0380  0.3469  0.1320
57409W        W  462   6.505  33.867   1.256  0.1277  0.0118 -0.0744
57410W        W  463   2.627   8.248   5.640 -0.0565 -0.2681 -0.0399
57411W        W  464  10.560  11.580  10.660 -0.0210  0.0172  0.0251
57412W        W  465   3.205   0.870  16.126  0.1647 -0.0669  0.0966
57413W        W  466   3.044  12.420   7.285  0.1346  0.0330  0.0460
57414W        W  467  27.712  16.716   2.419  0.2181 -0.1708  0.1298
57415W        W  468  25.709   6.948   1.180  0.0161  0.1568 -0.1312
57416W        W  469   9.122   7.489   0.473  0.0312  0.2592  0.0640
57417W        W  470  23.735  13.917  22.430  0.0491  0.0781  0.0813
57418W        W  471  27.928  14.475   2.398  0.1470  0.2010 -0.1274
57419W        W  472   1.539   6.461  21.074 -0.1028 -0.5106 -0.4608
57420W        W  473   7.325   6.065  23.758 -0.0640  0.1770 -0.0467
57421W        W  474  11.281  14.366   9.636 -0.2067  0.0816 -0.1302
57422W        W  475  33.594  16.786   9.469 -0.0968 -0.3577  0.3891
57423W        W  476   1.587  34.366  23.490  0.0629  0.0139  0.1703
57424W        W  477  33.653   4.011   8.151  0.0323 -0.1720  0.0227
57425W        W  478  20.083  29.507   4.303  0.0481 -0.1944  0.0122
57426W        W  479  25.041   2.300  26.655 -0.3684  0.3911  0.1040
57427W        W  480  15.677   6.071   2.823  0.0019  0.0749  0.0142
57428W        W  481   4.416   1.751  23.523  0.0194 -0.0367  0.1850
57429W        W  482   8.858  29.340  28.015  0.0367  0.1764 -0.0590
57430W        W  483  30.367  30.561  29.046 -0.1773 -0.1722  0.0170
57431W        W  484  12.295  20.529   2.495 -0.0812 -0.1852 -0.0954
57432W        W  485  25.262   9.825   4.883  0.2270  0.0522  0.2174
57433W        W  486   8.655  13.105  25.970 -0.0460 -0.1819  0.0534
57434W        W  487   4.196  33.286   6.241  0.1298  0.1026 -0.3794
57435W        W  488   3.809  10.618  17.115  0.0324 -0.1259 -0.0820
57436W        W  489   7.265  12.456   7.156  0.0545 -0.0249 -0.3188
57437W        W  490  24.684  18.859   9.538 -0.0221  0.0066  0.1933
57438W        W  491  15.666  14.904   4.383 -0.0235 -0.1124  0.0722
57439W        W  492  10.228  17.078  27.032 -0.0206  0.2771 -0.0692
57440W        W  493   8.602  23.175   7.821 -0.1363  0.2007 -0.1010
57441W        W  494   1.457  10.516  25.004  0.0819  0.0024 -0.0359
57442W        W  495   6.066  31.270   7.419  0.0372 -0.0388  0.0653
57443W        W  496  15.384  17.137   4.546  0.1653  0.1645 -0.4875
57444W        W  497  27.191  14.327   6.774  0.1277  0.0403 -0.1435
57445W        W  498  30.957  13.408   5.153 -0.1017  0.2039 -0.0570
57446W        W  499  26.120   3.457   5.093  0.0103 -0.0130 -0.0252
57447W        W  500  12.660   2.699   5.906 -0.2629 -0.3482  0.2624
57448W        W  501  28.189  19.359   1.793  0.1690 -0.1535 -0.3615
57449W        W  502  15.620   0.730  20.834 -0.2608 -0.0904 -0.1254
57450W        W  503  25.888   9.534  26.568  0.0150  0.1341 -0.1765
57451W        W  504  32.703  29.471   6.192 -0.0209 -0.1437 -0.0917
57452W        W  505   2.276  34.504   0.381 -0.3602 -0.1745  0.2601
57453W        W  506  12.248   3.554   8.385 -0.1620  0.0838 -0.2722
57454W        W  507   2.146  32.419   5.911 -0.2257  0.0133  0.2233
57455W        W  508  22.586  13.794   7.815 -0.3000 -0.2472 -0.2181
57456W        W  509  16.444   6.887   7.269 -0.1147 -0.0496  0.1965
57457W        W  510  32.939   6.050  24.854  0.2915 -0.0515  0.2393
57458W        W  511  34.280   3.347   7.788  0.0397 -0.2477 -0.1502
57459W        W  512  23.462   2.540   8.991 -0.1198  0.0690  0.0632
57460W        W  513  32.765  13.387   4.914 -0.0792  0.1746 -0.0325
57461W        W  514   3.480   8.170  14.664  0.3112  0.0357  0.0518
57462W        W  515  31.550  32.277  27.786  0.2799 -0.1452 -0.0098
57463W        W  516  26.951  25.608   4.998  0.2130 -0.0645 -0.2901
57464W        W  517  28.650  30.119   7.642  0.2234  0.0378  0.1312
57465W        W  518   1.572   4.680   0.869  0.2523  0.0294 -0.2090
57466W        W  519  33.853   7.727   9.086  0.1504 -0.1293  0.2463
57467W        W  520   8.440   2.275  15.200 -0.1200 -0.4613 -0.0299
57468W        W  521  19.787  12.892   9.247  0.1309  0.0967  0.3454
57469W        W  522   8.003  29.283  26.367 -0.0188  0.3178 -0.0588
57470W        W  523  34.413  30.490   4.299 -0.1630  0.1546  0.1614
57471W        W  524   9.585  10.443   9.476  0.0174  0.2194 -0.0378
57472W        W  525  23.518  10.021  26.442  0.3392  0.2740  0.1168
57473W        W  526  15.503  32.572   5.028 -0.3605 -0.1250 -0.2623
57474W        W  527   5.357  31.075   5.676 -0.0533  0.1485  0.3327
57475W        W  528   0.709   2.120   7.899 -0.2162 -0.3454 -0.0085
57476W        W  529  33.783  33.006  28.553 -0.0550  0.0925  0.3614
57477W        W  530   1.134  17.645   9.668  0.2845 -0.0941 -0.2460
57478W        W  531  31.709  11.342   6.530 -0.5016 -0.2300 -0.1758
57479W        W  532  23.639  19.143   9.773 -0.1287  0.5999  0.3134
57480W        W  533   4.148   1.834   7.337 -0.3057 -0.2329  0.3476
57481W        W  534  29.859  14.563   9.441 -0.1289 -0.0328  0.3161
57482W        W  535  30.973  28.546   8.300  0.1947  0.0208  0.2239
57483W        W  536  18.700  11.008   0.916 -0.0575  0.1309  0.2763
57484W        W  537   1.466   1.100  24.995  0.1933  0.1855 -0.1992
57485W        W  538  29.403  20.073   9.555  0.1252  0.0867  0.0526
57486W        W  539  32.856   6.334  25.683 -0.1266 -0.0500  0.0923
57487W        W  540  31.206  26.668   6.353  0.0314  0.3728  0.1767
57488W        W  541  22.667  27.103  19.703  0.2182  0.1573 -0.2428
57489W        W  542  22.170   5.274  18.354 -0.0542 -0.0540  0.2822
57490W        W  543   4.321  32.440  27.601  0.0257  0.0319 -0.1240
57491W        W  544  29.601  13.321  27.762 -0.1041 -0.0334  0.0583
57492W        W  545   4.257   2.489   1.587 -0.2398  0.0474  0.1686
57493W        W  546   1.904  30.309   8.987 -0.0760  0.2427  0.0472
57494W        W  547   3.542  11.199   5.041 -0.1774  0.1631 -0.0960
57495W        W  548  26.001   9.869  19.361  0.2476  0.1274 -0.0117
57496W        W  549   3.030  22.084   8.551 -0.2557  0.0336  0.1820
57497W        W  550   9.964  24.695   3.012  0.0083  0.0255 -0.3830
57498W        W  551  10.689   3.724  22.660 -0.1469 -0.0877 -0.1370
57499W        W  552   8.876  18.492  21.245  0.2918  0.0703 -0.0798
57500W        W  553   1.220   8.352  19.595 -0.0925  0.0939 -0.1326
57501W        W  554   5.518   7.947   8.963 -0.3585 -0.0164 -0.4843
57502W        W  555  31.523   7.099   2.331  0.1512  0.0496  0.0456
57503W        W  556  29.936  26.909  26.218  0.1169  0.0150 -0.4065
57504W        W  557   4.359   0.711  20.964  0.0594 -0.1135 -0.0408
57505W        W  558   5.693   3.105  27.873 -0.2353  0.1508 -0.0327
57506W        W  559  33.953  29.050   9.859  0.0232 -0.0035  0.4235
57507W        W  560  28.443   1.513   7.866  0.2068  0.3372 -0.0148
57508W        W  561  24.959   6.286   5.737 -0.2094  0.0078 -0.2623
57509W        W  562  13.034  32.645   9.663 -0.1339  0.2387 -0.0209
57510W        W  563  11.941  24.778  25.582 -0.1997 -0.3453  0.0706
57511W        W  564   3.568   5.954   3.965  0.0305  0.1239 -0.2357
57512W        W  565  27.205  33.705  21.909  0.3320 -0.0873  0.5450
57513W        W  566  11.153   3.415   0.748  0.0631  0.0502  0.1674
57514W        W  567  11.876   2.381   7.716  0.0096  0.0264  0.2088
57515W        W  568  12.295  26.467   8.760 -0.0348 -0.0520  0.1128
57516W        W  569  29.700   2.230   9.112  0.1045 -0.0392 -0.0271
57517W        W  570   6.884   3.637   8.444  0.0008  0.1193  0.0092
57518W        W  571   4.637   6.594  29.119  0.1774  0.0422 -0.0814
57519W        W  572   5.588  24.495  18.968  0.1554 -0.1659  0.0559
57520W        W  573   3.977   7.659  10.270 -0.1703 -0.1668  0.2520
57521W        W  574  34.686  33.850   8.068  0.0942 -0.0885  0.3213
57522W        W  575  23.419   7.517   7.854 -0.2104 -0.2425 -0.0498
57523W        W  576  11.817  24.033   6.295  0.0325  0.0082  0.1192
57524W        W  577   8.909   8.860   9.750  0.0822 -0.0954  0.1569
57525W        W  578  18.617   0.166  27.505 -0.1252 -0.1249 -0.2803
57526W        W  579  30.884  11.950  10.960 -0.2155  0.1480 -0.0775
57527W        W  580  27.481  10.380  15.664  0.3377 -0.5107 -0.1870
57528W        W  581   6.236   7.579  16.989 -0.0838  0.1300  0.0317
57529W        W  582  22.199  14.248   9.972  0.0785 -0.1132  0.0597
57530W        W  583   6.104   2.868   1.147  0.2274 -0.1679  0.3592
57531W        W  584  33.044  17.937   4.434 -0.1933  0.1247 -0.0002
57532W        W  585   6.691   3.149  10.673  0.0225 -0.2994  0.2524
57533W        W  586  10.919   4.679  22.564  0.3578 -0.0627 -0.0342
57534W        W  587   2.218   0.450   8.359 -0.0087 -0.0010  0.2824
57535W        W  588  17.574   3.344  20.427 -0.0590  0.1048 -0.0535
57536W        W  589  31.469  15.334   0.193 -0.0578 -0.0385  0.0030
57537W        W  590  17.385  21.954   2.943 -0.0638 -0.1570  0.1548
57538W        W  591  31.931   6.690   8.478  0.1640  0.0594 -0.3291
57539W        W  592  19.311  34.340  22.443 -0.1909  0.0651 -0.0736
57540W        W  593   8.402   6.555   1.612 -0.0071  0.1126  0.2024
57541W        W  594   7.071  29.385   6.711 -0.0845 -0.2869  0.0797
57542W        W  595   2.327  10.468  18.640  0.2848  0.2859 -0.0617
57543W        W  596  23.148   1.047   8.803  0.0825  0.3937  0.5718
57544W        W  597   7.427   5.256  23.809 -0.2929 -0.0121 -0.0042
57545W        W  598  23.780  23.754  27.027  0.1231  0.0702  0.0217
57546W        W  599  31.795  27.572   4.861 -0.3642  0.2243 -0.0362
57547W        W  600   3.379  14.740  28.438 -0.0029  0.0184  0.2207
57548W        W  601  28.018  30.674   9.228 -0.0307 -0.0099  0.0274
57549W        W  602  30.455   4.138   8.656 -0.2103  0.2404  0.0401
57550W        W  603  32.183  17.905   8.438  0.3455  0.1397 -0.3077
57551W        W  604  24.863   8.698   8.611  0.1305  0.0321 -0.0063
57552W        W  605   6.649   9.880   3.996  0.0454  0.1263  0.3002
57553W        W  606  30.361  12.404   7.869  0.2669 -0.0485 -0.3215
57554W        W  607   8.045  20.914   9.153  0.2194  0.2252  0.1611
57555W        W  608  31.910  19.665   6.940  0.0255 -0.3056 -0.0021
57556W        W  609   0.023   7.967  28.791  0.2337  0.1536  0.0396
57557W        W  610   3.673   0.637   9.205 -0.2358 -0.3884 -0.0661
57558W        W  611   9.237  27.467   5.531  0.1013  0.0411  0.1774
57559W        W  612  22.457   8.925   0.775 -0.2584  0.1023  0.0847
57560W        W  613  11.088   4.470   1.093  0.1037 -0.0820 -0.2701
57561W        W  614  13.531   6.922  19.915  0.1135  0.1194 -0.0251
57562W        W  615   1.895   0.383   4.630  0.1041  0.1240 -0.1468
57563W        W  616  25.618  14.483   8.657 -0.4204  0.0202  0.3449
57564W        W  617  14.976  13.871  24.889 -0.0937 -0.1950 -0.3137
57565W        W  618  17.586  27.349  27.165  0.0475 -0.1371 -0.0122
57566W        W  619  10.821   8.817  10.245 -0.0423 -0.1979  0.1303
57567W        W  620  23.042   3.131   2.069  0.0076 -0.3393  0.0119
57568W        W  621  18.861  25.536  10.518  0.0387 -0.1962  0.2354
57569W        W  622   5.504  22.008   8.732 -0.3599 -0.0896  0.3005
57570W        W  623  17.393   6.554   3.108  0.1802 -0.3156 -0.2588
57571W        W  624  18.788  26.081   5.461 -0.1002 -0.3413 -0.4851
57572W        W  625   1.703  24.550   6.998 -0.0937 -0.1312 -0.0642
57573W        W  626   3.127  20.292  25.162  0.3858  0.0154 -0.0578
57574W        W  627   5.980  20.875   2.380 -0.1088  0.0680 -0.4147
57575W        W  628   5.036  23.983   7.586  0.3527  0.0319 -0.1395
57576W        W  629  19.691  27.796   9.825  0.4120  0.0332  0.0304
57577W        W  630   1.003  21.682   6.598  0.0116  0.0664  0.1768
57578W        W  631  28.601   7.010   7.613  0.0554  0.0444  0.1164
57579W        W  632   6.986  30.905   8.337 -0.1426  0.0802  0.2033
57580W        W  633  30.063   1.875  26.973  0.1604 -0.3854  0.2143
57581W        W  634  34.131   5.219   7.447  0.2706  0.1431 -0.0559
57582W        W  635  34.047  25.552  27.586  0.2758  0.1413 -0.0639
57583W        W  636  29.576   0.917   6.583 -0.0492  0.3058  0.4044
57584W        W  637  12.824  10.737   7.302 -0.0041  0.1376  0.1502
57585W        W  638   3.007   8.996  28.067  0.0401 -0.0345 -0.0829
57586W        W  639   0.928   3.595   0.441 -0.2045 -0.0328  0.2004
57587W        W  640  32.730   7.194   7.706 -0.0373  0.0584 -0.0968
57588W        W  641  27.816  31.043  26.785  0.1799  0.2764 -0.0756
57589W        W  642  19.729  18.462   0.962  0.4055  0.3189 -0.0581
57590W        W  643  13.953  26.382   4.076 -0.2864 -0.1910  0.2470
57591W        W  644  26.581   6.201  27.599 -0.1141  0.1225 -0.1484
57592W        W  645  18.695   3.865   3.386 -0.0393  0.3493  0.0077
57593W        W  646  10.654  26.443   5.005  0.2473 -0.1579  0.1117
57594W        W  647  11.759  11.366   6.509  0.0453 -0.0977 -0.1404
57595W        W  648  33.065  11.529   8.394 -0.2622  0.0930 -0.0042
57596W        W  649   1.670  28.637  10.005  0.0868 -0.0540 -0.1053
57597W        W  650   7.594   3.405   5.505  0.2594 -0.0577 -0.0968
57598W        W  651   0.224   4.618   5.757  0.0051 -0.0131 -0.0761
57599W        W  652   3.972  19.716   5.318  0.3205 -0.3637  0.1018
57600W        W  653  27.850  30.558   4.170 -0.1395  0.0791  0.0901
57601W        W  654  18.745  19.884  25.609 -0.2722 -0.2325  0.0284
57602W        W  655   9.681   2.581   5.641  0.2371 -0.1949 -0.0440
57603W        W  656  29.830  16.258  15.347  0.0809 -0.3796 -0.1415
57604W        W  657  25.072   4.777   6.532 -0.0870 -0.0461  0.2622
57605W        W  658  34.181  27.966   5.840  0.0942  0.0355  0.0562
57606W        W  659   5.636  30.230  20.718  0.3713 -0.0473 -0.1123
57607W        W  660  29.199   6.703  27.893 -0.2340 -0.0369 -0.1774
57608W        W  661   2.566  33.292   8.647 -0.1371  0.1632  0.0116
57609W        W  662   5.856   7.990   7.952 -0.0778 -0.1240  0.1898
57610W        W  663   3.830   8.381   4.519  0.0527 -0.3563  0.1628
57611W        W  664  14.901  21.099  28.255 -0.3795 -0.1397 -0.0617
57612W        W  665  30.749   2.573   5.984 -0.0714 -0.0315 -0.3984
57613W        W  666   0.847  25.334   1.454 -0.0194 -0.3420 -0.0952
57614W        W  667  27.834  28.094  23.126  0.3773 -0.2783  0.3152
57615W        W  668  29.800  21.597  22.723  0.0034 -0.2751  0.1135
57616W        W  669   9.851  19.781   7.016  0.0382  0.2012 -0.0697
57617W        W  670  32.786   5.900   5.311 -0.4030  0.0394  0.1576
57618W        W  671  26.712   4.866   2.869  0.1143 -0.1107 -0.2675
57619W        W  672  12.945   0.336   5.128 -0.2240  0.1810  0.1560
57620W        W  673  17.202  34.403  10.411  0.1102 -0.0397 -0.0524
57621W        W  674  20.327  34.280  29.112 -0.1983 -0.1711 -0.0975
57622W        W  675  18.350  15.933   6.753  0.0006  0.0364 -0.2484
57623W        W  676   4.367  32.709  26.605  0.1821 -0.2574 -0.0648
57624W        W  677  30.835  31.681   3.079 -0.0195  0.1434 -0.1719
57625W        W  678   6.416   5.461   4.616  0.0252 -0.0392 -0.0370
57626W        W  679  27.587  12.238  17.443 -0.1176  0.2584 -0.1847
57627W        W  680  27.739  27.682   9.805  0.4722 -0.1142  0.0805
57628W        W  681  17.059  31.269   9.082 -0.1399  0.0462  0.0498
57629W        W  682  16.422  18.164  13.247 -0.3627  0.0980 -0.0250
57630W        W  683  32.360  34.128   9.258  0.1975 -0.2541  0.0169
57631W        W  684   1.702   5.237   9.129 -0.3973  0.1568  0.0872
57632W        W  685   2.696  32.614   6.698  0.1461  0.2551  0.0627
57633W        W  686  18.238   0.318  28.385  0.3066 -0.1051  0.1536
57634W        W  687  12.413  30.317   0.381  0.0679 -0.1197 -0.3613
57635W        W  688   2.674   2.226   4.376 -0.0098  0.0575 -0.0989
57636W        W  689  15.191  12.678   2.733  0.3883  0.0024  0.0412
57637W        W  690   7.907  18.302   7.002 -0.0854 -0.4543 -0.4353
57638W        W  691  31.570   5.105   5.405 -0.3214 -0.3123  0.0019
57639W        W  692   9.859  29.951  15.931  0.0004 -0.1511  0.1310
57640W        W  693  32.436   2.738   8.733 -0.0660  0.0397 -0.0641
57641W        W  694   2.021   0.080   5.476  0.1676  0.0209 -0.1581
57642W        W  695  24.742  31.695   6.284  0.1396  0.1566 -0.3585
57643W        W  696  24.399  32.642   8.139  0.1231 -0.2248  0.0639
57644W        W  697   6.797  31.906   9.845 -0.1031 -0.1696 -0.0400
57645W        W  698   5.031   1.098   1.451  0.2871  0.2437  0.0129
57646W        W  699   5.337   9.756   6.397  0.2419 -0.6178 -0.3013
57647W        W  700  13.951  32.845   6.539  0.1449  0.1040  0.0717
57648W        W  701   2.142   0.165   1.462  0.1916  0.3851 -0.1881
57649W        W  702  31.951  23.959   7.583  0.0300 -0.0978 -0.0878
57650W        W  703   0.789   7.016   6.532  0.1329  0.1767  0.2330
57651W        W  704   4.605  31.156   9.674 -0.1126 -0.2574 -0.0215
57652W        W  705  30.632  21.379   4.575  0.0289  0.0361  0.1195
57653W        W  706   1.019  10.491  10.041 -0.0050  0.1824  0.0402
57654W        W  707   6.944   0.273   1.949 -0.0876  0.3693 -0.0217
57655W        W  708  13.986  34.387  27.852 -0.1198  0.0036 -0.1539
57656W        W  709   0.332   1.326   0.605 -0.1505  0.3362  0.2243
57657W        W  710   4.955  29.732  26.501  0.1470 -0.0543  0.1906
57658W        W  711  31.844  31.390   2.181  0.0186  0.1482 -0.4420
57659W        W  712   4.441   7.980   2.454  0.0179  0.0065 -0.3178
57660W        W  713   8.402  32.397   2.382 -0.1776 -0.1944  0.0638
57661W        W  714   4.858  24.672  21.438 -0.2754  0.0538  0.1063
57662W        W  715  34.206  17.601  17.225  0.0109 -0.0015 -0.0719
57663W        W  716  31.244  30.571   5.496  0.0306 -0.0098  0.1019
57664W        W  717  31.907  16.019   5.687  0.2559  0.1955 -0.1024
57665W        W  718  23.626   9.464   6.629 -0.2408  0.0878  0.0580
57666W        W  719   0.646  31.727   2.621  0.1969 -0.1969  0.2159
57667W        W  720  23.139  33.318   0.007 -0.0863 -0.0389  0.1534
57668W        W  721  25.496  11.385   4.947 -0.1461 -0.0198 -0.0742
57669W        W  722  10.300   7.295   9.531  0.1111  0.0446 -0.0378
57670W        W  723  31.222  11.910   1.844 -0.2341  0.0020  0.0577
57671W        W  724   7.957  10.719   9.036 -0.2764 -0.3035 -0.4669
57672W        W  725  11.989   3.768  28.065  0.0433 -0.1884 -0.0773
57673W        W  726  22.537  29.302  22.175 -0.1289 -0.3433 -0.2948
57674W        W  727  13.855  25.857  24.367 -0.0892 -0.1054 -0.0165
57675W        W  728   5.349  11.386   8.649 -0.1677 -0.0514 -0.1139
57676W        W  729  28.702   7.276   4.521  0.0400 -0.0471 -0.0913
57677W        W  730  16.095  20.054  27.015 -0.2539  0.0828 -0.1709
57678W        W  731  31.183  11.359  26.594 -0.0310 -0.0085 -0.2138
57679W        W  732   2.794  18.147   0.917  0.0329  0.0516  0.0495
57680W        W  733  28.033   6.940   8.289  0.0380  0.0053 -0.1228
57681W        W  734  24.233  31.061   4.426  0.0147  0.4545  0.1729
57682W        W  735   9.295  11.522  10.717 -0.0368 -0.1519 -0.2029
57683W        W  736  32.716  12.744   3.912  0.1809  0.2180 -0.1906
57684W        W  737  33.078   9.907   6.127 -0.0371  0.2012 -0.1394
57685W        W  738  20.082  11.455   9.001  0.1166 -0.0542  0.2705
57686W        W  739   8.793  20.177   2.843  0.1826 -0.0716  0.2749
57687W        W  740   4.207  10.613   7.675 -0.1469 -0.0202  0.0276
57688W        W  741   3.133  12.076   5.327 -0.0132  0.0257  0.0836
57689W        W  742   1.099   6.082  28.118 -0.4481  0.2644 -0.1433
57690W        W  743   2.390  22.278   0.513 -0.0654 -0.3594 -0.2443
57691W        W  744   0.380  16.764   3.220  0.2129  0.2103  0.0417
57692W        W  745  27.264  16.171   3.072 -0.0068 -0.0832  0.1650
57693W        W  746   2.772  17.854   1.356  0.1688  0.0479 -0.2878
57694W        W  747   3.014   0.112  22.517 -0.0609 -0.0918 -0.2417
57695W        W  748  33.377   8.713  22.337 -0.3848  0.2917  0.0660
57696W        W  749  21.077  28.390  21.352  0.1667 -0.1761 -0.0495
57697W        W  750  28.125  16.047   1.184 -0.0055 -0.1613  0.6056
57698W        W  751  31.029   1.025  23.548 -0.1804 -0.1534 -0.4980
57699W        W  752  10.077   6.245  29.034  0.0454 -0.1908 -0.1831
57700W        W  753  24.239   5.557   2.195 -0.1129 -0.0225  0.1633
57701W        W  754  34.031   6.015  24.476  0.2319 -0.0314  0.2611
57702W        W  755   3.177   4.427  27.389  0.0692 -0.1008 -0.2766
57703W        W  756  12.584   2.002  16.425 -0.1854  0.1157  0.0707
57704W        W  757  17.666   6.760   6.051 -0.1348 -0.2202  0.0222
57705W        W  758  20.525   9.760  22.463  0.0214  0.0973 -0.1711
57706W        W  759   4.592  24.969  16.667 -0.3124  0.0544 -0.0838
57707W        W  760   4.715  20.013   2.951 -0.4293  0.1631 -0.3649
57708W        W  761   6.042  26.053  27.045  0.2771 -0.2148  0.2210
57709W        W  762  29.632  18.243   0.812 -0.1075  0.0652  0.0851
57710W        W  763   6.394   1.387  24.380 -0.0569  0.2017 -0.3146
57711W        W  764   7.356   0.045  23.238 -0.1051  0.1265 -0.1286
57712W        W  765  21.810  34.232   9.025  0.0750 -0.1242 -0.1716
57713W        W  766  25.972   1.064  23.889  0.1035 -0.0982  0.3171
57714W        W  767   8.591  26.428  26.685 -0.0623  0.3103 -0.3104
57715W        W  768  14.271   6.839   7.546 -0.2434  0.0581  0.0537
57716W        W  769  32.339  16.230   0.828  0.0508  0.1842  0.3774
57717W        W  770  23.326  25.912   0.544  0.0474 -0.1096  0.1064
57718W        W  771  33.774  18.133   6.829 -0.0966 -0.2243  0.3275
57719W        W  772  10.679  11.117   2.738  0.0096  0.1555  0.0826
57720W        W  773  33.445  13.952  18.956 -0.1259  0.0863 -0.1618
57721W        W  774   3.902   9.722  15.880  0.1441  0.1623  0.2203
57722W        W  775  16.856   4.647   8.690  0.2313  0.0022 -0.2414
57723W        W  776   3.683  23.671   8.045 -0.0955 -0.3603  0.3188
57724W        W  777  27.285   4.131   0.929  0.2421 -0.1289 -0.2601
57725W        W  778   5.981  31.293  28.271  0.2144 -0.0513 -0.2029
57726W        W  779  34.606  20.893   4.278  0.2207  0.4184  0.0186
57727W        W  780  22.406  13.669  24.047  0.1390  0.0477  0.2940
57728W        W  781   6.831   5.710  10.496  0.1547 -0.3419 -0.0508
57729W        W  782   5.177   8.200  27.662  0.0009 -0.1761  0.0063
57730W        W  783   7.351   1.050  18.921  0.1500 -0.0850 -0.0852
57731W        W  784  12.210  20.463  27.163 -0.1104 -0.0217  0.1842
57732W        W  785   1.680  22.879  23.088  0.0220  0.1156  0.1108
57733W        W  786  12.514   1.343   7.311  0.0749  0.3089  0.1499
57734W        W  787   6.096  12.694  19.835 -0.0016 -0.4427 -0.1027
57735W        W  788  16.153  34.502  27.538  0.0180 -0.1650  0.2012
57736W        W  789  12.353  13.967  28.552 -0.0257  0.3596 -0.2034
57737W        W  790  20.903  26.298   5.072 -0.1808  0.1068 -0.2273
57738W        W  791   4.900  33.094   6.211 -0.0575  0.0004  0.1888
57739W        W  792   2.245  12.659   1.385  0.0533 -0.1052  0.2546
57740W        W  793   4.691   2.657  25.134 -0.1081  0.0491 -0.3045
57741W        W  794  33.120  34.327   5.615 -0.1156  0.0765 -0.2249
57742W        W  795   4.244  31.854   2.669  0.0641 -0.0347 -0.0408
57743W        W  796  25.323  19.161   3.871  0.1515 -0.0701 -0.2368
57744W        W  797  24.701  22.694   0.325  0.1273  0.1706 -0.1185
57745W        W  798  24.587  19.874   4.258 -0.1178 -0.1630  0.0326
57746W        W  799  17.396  30.555  26.743  0.1857  0.1441 -0.2296
57747W        W  800  23.789   0.909  28.379 -0.1964 -0.0550  0.2788
57748W        W  801  31.747   3.467   4.779 -0.3272 -0.1762  0.0685
57749W        W  802   1.818  31.035  23.909 -0.2276 -0.1876 -0.0448
57750W        W  803  32.829  14.806  27.586 -0.0265 -0.1142  0.0078
57751W        W  804  13.048   8.728   9.722  0.2883 -0.1014  0.0456
57752W        W  805   7.668   9.142   5.212 -0.1733  0.0177  0.1897
57753W        W  806   7.738   3.710  25.504  0.2394  0.2564  0.1641
57754W        W  807   8.867  22.932  28.066  0.2008 -0.0318  0.0994
57755W        W  808  14.789  17.569  23.706 -0.3137  0.2823 -0.0342
57756W        W  809  17.490  13.533   8.854 -0.0570 -0.1163  0.0266
57757W        W  810  15.455  15.515  23.975 -0.1916  0.3584  0.0428
57758W        W  811  24.342  22.108  16.027 -0.0452  0.3603  0.1120
57759W        W  812  11.804  11.179  26.699 -0.1455  0.0228  0.0111
57760W        W  813  30.626  32.293   5.200 -0.0523  0.3698 -0.1159
57761W        W  814  32.857  14.381  24.899  0.1269  0.3389  0.1618
57762W        W  815   5.128   6.689   4.175  0.2294 -0.2445  0.0033
57763W        W  816  32.976  13.587   0.316 -0.0413 -0.0127  0.1618
57764W        W  817  17.374   5.427   7.447 -0.0490 -0.1546 -0.2093
57765W        W  818  27.668  32.713  23.835 -0.1558  0.0912 -0.3584
57766W        W  819  34.217   7.762   1.556  0.0052  0.1385 -0.3625
57767W        W  820  18.005  20.482   2.170  0.1266  0.1143 -0.0552
57768W        W  821  30.329  12.107   2.340  0.0393  0.2004 -0.0674
57769W        W  822   7.380   4.926  15.996 -0.1538 -0.2404 -0.0227
57770W        W  823  34.103  10.143   7.659 -0.0300  0.0784 -0.1615
57771W        W  824  33.253  15.355  22.966 -0.0432  0.1075 -0.2344
57772W        W  825   9.013   6.656   0.847 -0.1539  0.5197 -0.1801
57773W        W  826   5.886  11.787   1.323 -0.4416 -0.2460  0.0823
57774W        W  827  26.635   1.124   9.237  0.2228 -0.0365 -0.1652
57775W        W  828   4.827  18.998  28.898  0.1627  0.1193  0.2459
57776W        W  829  29.550  26.546   9.228  0.2161  0.1546 -0.3565
57777W        W  830   7.589   0.198   9.417  0.1487 -0.2034 -0.1322
57778W        W  831  29.575   4.245   9.001 -0.2966 -0.2764  0.3241
57779W        W  832   2.168   9.487   1.357 -0.2346  0.1955  0.2015
57780W        W  833  32.286  29.842   5.010  0.1112 -0.0576 -0.0232
57781W        W  834  29.613  24.830  27.404  0.1669 -0.0599  0.0218
57782W        W  835  13.412   0.148  24.596 -0.0685 -0.0034 -0.1827
57783W        W  836  12.381   5.461  16.183 -0.2614  0.1471 -0.0871
57784W        W  837   0.207  10.275   5.478  0.2820 -0.1713  0.0771
57785W        W  838   1.057   2.256  27.254  0.0344  0.2327 -0.0814
57786W        W  839  13.331   3.801   3.442 -0.0387 -0.0434  0.3119
57787W        W  840   8.228   7.366   8.625  0.0330  0.5742  0.1595
57788W        W  841   8.598   4.422   6.881  0.1140  0.0544  0.1830
57789W        W  842  30.203  15.831  26.923 -0.0140  0.0682 -0.2027
57790W        W  843   5.229  14.044   8.330 -0.1229 -0.0930  0.2041
57791W        W  844  25.676   9.541  25.190  0.0408 -0.1832  0.1039
57792W        W  845   4.277  12.236  26.618  0.0341  0.0001  0.0382
57793W        W  846   7.240   5.738  24.148 -0.0515 -0.1002 -0.0878
57794W        W  847   3.995  34.408  22.463 -0.3889 -0.0376 -0.0012
57795W        W  848  33.106  18.483  27.774  0.0572  0.0035  0.0951
57796W        W  849  26.952  17.546   8.721  0.0180 -0.1504 -0.1916
57797W        W  850  26.367  34.201   5.259  0.0050  0.4330 -0.0370
57798W        W  851  33.358  13.762   5.837 -0.0855  0.0167 -0.0322
57799W        W  852  16.747   2.974   7.555 -0.0388  0.0599  0.1178
57800W        W  853  32.825   9.515  28.695  0.0413  0.0128  0.0056
57801W        W  854  24.898  19.377   5.891 -0.2188 -0.0793  0.0427
57802W        W  855   7.230   9.156   8.141  0.2812 -0.1759  0.0961
57803W        W  856  13.301  34.053  18.640 -0.2208 -0.2359 -0.0981
57804W        W  857   7.163   2.055   9.103 -0.0391 -0.0376 -0.0854
57805W        W  858   1.485  13.394  21.505 -0.0142 -0.3714 -0.1080
57806W        W  859   2.755   5.453   4.056  0.1143 -0.3423 -0.2842
57807W        W  860  11.731  29.058   0.556 -0.2384  0.0760  0.1388
57808W        W  861  25.967   9.695   0.395 -0.2872 -0.1332  0.1826
57809W        W  862   3.361   1.663   3.681 -0.1627 -0.1139  0.1486
57810W        W  863   5.452  27.678  25.909 -0.0568  0.2611  0.1096
57811W        W  864   5.793  11.582  11.092  0.1715  0.0624 -0.3531
57812W        W  865   1.884  20.957  16.720  0.2624 -0.0950 -0.1009
57813W        W  866  24.722  19.615   3.518  0.4307 -0.3044  0.1371
57814W        W  867  14.474   6.584   4.471  0.1178  0.0561 -0.2830
57815W        W  868  15.060   7.739  24.498 -0.0864 -0.1411 -0.2659
57816W        W  869  29.857  15.015  27.032 -0.0854  0.1089 -0.0276
57817W        W  870  13.114  34.243   7.357 -0.0255  0.2934 -0.0523
57818W        W  871   0.504  30.981  23.221  0.1928  0.1391  0.1263
57819W        W  872  13.186   4.127  19.423 -0.0250  0.6365  0.0758
57820W        W  873  34.561  27.818  24.256 -0.1838 -0.1813  0.3829
57821W        W  874  23.233  22.009   8.351  0.1847 -0.2002 -0.2291
57822W        W  875  17.089  12.417  22.521  0.3929  0.1745  0.3518
57823W        W  876  11.442  11.446   3.089  0.0688  0.1274  0.0334
57824W        W  877  32.366   1.081   9.777 -0.3076  0.0487 -0.1457
57825W        W  878  19.040  25.855   7.609  0.2481  0.0126 -0.0509
57826W        W  879  19.937   7.293   9.232 -0.1365 -0.1074  0.0370
57827W        W  880  12.287  34.225   7.376  0.1348 -0.0449  0.0569
57828W        W  881   0.747   6.616  24.913 -0.0943  0.0856  0.2357
57829W        W  882   1.239  25.823   0.114  0.0843  0.1513 -0.1701
57830W        W  883  17.586  24.074  26.286  0.2928 -0.2332 -0.2674
57831W        W  884  28.120   9.083  25.847  0.3202  0.3118  0.0858
57832W        W  885   6.325  10.406   3.909  0.1164 -0.0766  0.3419
57833W        W  886   4.786  33.451  24.629  0.4702 -0.1525  0.2680
57834W        W  887   2.817  25.884  17.046 -0.1037  0.0496 -0.1003
57835W        W  888  25.790  22.623  20.279  0.3880 -0.2667 -0.0611
57836W        W  889  14.982  15.134  10.243  0.2848 -0.0504 -0.1989
57837W        W  890  27.411   6.719   8.646  0.1223 -0.0213 -0.0742
57838W        W  891   2.617  19.725   7.081 -0.1985 -0.1679  0.2347
57839W        W  892  11.755   5.749   2.026  0.0334 -0.0497  0.0604
57840W        W  893  29.502  17.264   5.583  0.1137  0.0153 -0.0135
57841W        W  894   9.197  34.461   6.819  0.1367 -0.1531 -0.2545
57842W        W  895  14.084  10.032  23.876  0.2341  0.2630  0.4125
57843W        W  896  20.931  33.836   1.193 -0.0732  0.0477  0.3419
57844W        W  897   7.019  10.385   7.714 -0.1301  0.2985 -0.4542
57845W        W  898   6.867  29.165  16.847  0.0310 -0.1434  0.0201
57846W        W  899   2.184  15.516   9.294  0.0353 -0.0785 -0.1479
57847W        W  900   0.260  15.555  24.086  0.1554  0.0311 -0.1910
57848W        W  901  13.904   3.940  21.505  0.0771  0.0654  0.2489
57849W        W  902  34.496  18.978  26.397 -0.1215 -0.4267 -0.0655
57850W        W  903   8.024   3.567   8.453  0.4446  0.0355  0.1655
57851W        W  904  15.874   2.702   5.164  0.1319 -0.2299 -0.2376
57852W        W  905  23.336  16.084  14.240  0.0970  0.0931 -0.1318
57853W        W  906  31.702  20.260  24.312 -0.0057 -0.3479 -0.0971
57854W        W  907  24.138  16.060  19.951  0.1007 -0.2245  0.1440
57855W        W  908   5.068  15.038   7.302 -0.0872 -0.0249  0.0088
57856W        W  909  17.626   2.442  23.948  0.0856  0.1200  0.2920
57857W        W  910  27.110  26.530   5.453  0.3512 -0.0601  0.0317
57858W        W  911  21.166  10.557  22.222  0.0512  0.1600 -0.0339
57859W        W  912  31.818   5.968   0.801  0.0621 -0.0191 -0.0441
57860W        W  913  18.740   9.994   5.737 -0.2596  0.1398 -0.1180
57861W        W  914  27.186  11.901  22.256  0.1602 -0.1931  0.1834
57862W        W  915   6.078  30.197   0.299 -0.2229  0.0338  0.2447
57863W        W  916  25.647  18.208   1.280 -0.0853  0.1425 -0.2832
57864W        W  917  19.588  10.212   3.294  0.1654  0.1354 -0.0577
57865W        W  918  14.063  31.246  27.404  0.1738  0.1089  0.0070
57866W        W  919   9.142   8.435   9.742 -0.1440 -0.3382  0.0933
57867W        W  920  26.861   6.264   2.927  0.1722  0.0986 -0.1933
57868W        W  921  10.819   5.035   0.760  0.0216 -0.3054  0.1389
57869W        W  922  24.987   2.803  28.941  0.0513  0.0068 -0.3412
57870W        W  923  18.361   5.165  16.291  0.3965 -0.1871 -0.2153
57871W        W  924  12.794  10.784   0.536  0.0733  0.0666 -0.1973
57872W        W  925  19.350  33.684   7.788  0.0301  0.0595  0.0266
57873W        W  926  31.637  10.074  14.860 -0.0551 -0.2269  0.0869
57874W        W  927  13.288   7.478   3.633  0.0288 -0.0795 -0.1366
57875W        W  928  24.178  10.031  26.871  0.1026  0.7610 -0.2621
57876W        W  929   6.830   4.461  27.540  0.0055  0.0336 -0.0454
57877W        W  930  20.840  17.761   3.391 -0.4132 -0.0373 -0.0291
57878W        W  931   8.587   6.982   9.036  0.0057 -0.0208 -0.0898
57879W        W  932   5.318  31.777   9.292 -0.1946  0.6402  0.0989
57880W        W  933  21.698  29.943  23.901  0.0301 -0.5251 -0.0386
57881W        W  934  18.102   4.140   5.441  0.2022  0.0904 -0.1155
57882W        W  935  30.783  10.484   7.663 -0.0629 -0.0637 -0.0902
57883W        W  936  11.269  34.039   0.813  0.2019  0.0187  0.0699
57884W        W  937   1.767   7.009   7.947  0.1037  0.1000 -0.0825
57885W        W  938  28.705  17.913  23.407 -0.0652 -0.1627  0.1326
57886W        W  939   6.203   5.227  25.545  0.0912  0.1067  0.1774
57887W        W  940  13.930  10.156  25.424 -0.3249  0.2632 -0.1395
57888W        W  941  22.542   7.792   7.889 -0.0585 -0.0647 -0.1404
57889W        W  942   6.548  30.998  22.948  0.0527  0.0405 -0.0689
57890W        W  943  34.208  19.075   7.099  0.4416  0.4260 -0.2489
57891W        W  944  13.529  34.569   6.943  0.0218 -0.0353  0.2324
57892W        W  945   8.327  24.263  20.050  0.1321 -0.3491 -0.0176
57893W        W  946  15.889  22.694   8.121  0.3363  0.1737 -0.3978
57894W        W  947  18.834  27.895  22.966  0.1637  0.0739  0.1483
57895W        W  948   1.119  24.634   4.887 -0.3762 -0.0994 -0.3155
57896W        W  949  28.914  10.593  23.887  0.1970 -0.0337 -0.2766
57897W        W  950  23.202   6.524  22.111 -0.0624  0.2885  0.0111
57898W        W  951   0.231   0.134   4.889 -0.0449  0.1749 -0.1127
57899W        W  952   6.119   9.126  27.603  0.2693  0.0632  0.4923
57900W        W  953  20.803  14.510  28.782  0.0952  0.2423  0.1247
57901W        W  954   5.723  15.791  26.840 -0.0177 -0.1049  0.2199
57902W        W  955  21.167  17.206   5.698 -0.3774 -0.2011 -0.2084
57903W        W  956   3.456  31.936  25.741 -0.2302  0.3286  0.0161
57904W        W  957  15.489   8.531  27.759  0.1136 -0.0859 -0.3568
57905W        W  958  26.015   6.563   1.105  0.0219  0.3965 -0.2216
57906W        W  959   2.969  23.156   7.523 -0.0197  0.0657 -0.0288
57907W        W  960  33.471  24.422   9.465 -0.2337 -0.0304 -0.1103
57908W        W  961  14.411   8.005  10.480  0.1139  0.0771 -0.5157
57909W        W  962  17.869  12.322   9.463 -0.1576  0.1907 -0.2464
57910W        W  963   7.570  16.209  25.136  0.1939  0.0854  0.1665
57911W        W  964   7.853  25.522   1.284 -0.1458 -0.2000 -0.3762
57912W        W  965  29.328   7.807  22.919  0.3563 -0.1352 -0.0780
57913W        W  966  13.050  21.045  27.651  0.0754  0.4121  0.1337
57914W        W  967  28.858  20.734   5.499  0.0311 -0.2050 -0.1015
57915W        W  968  22.400  12.194   4.293 -0.1298  0.3267  0.3519
57916W        W  969  14.667  23.106   8.412 -0.1272 -0.1156 -0.0490
57917W        W  970   7.258   3.079   8.005 -0.1202  0.1036 -0.1780
57918W        W  971   9.036   7.209   0.962 -0.1755 -0.0736  0.1684
57919W        W  972  14.666  30.335   0.195  0.1252 -0.0557 -0.0766
57920W        W  973   8.011  30.643   0.338  0.0702 -0.2529 -0.1866
57921W        W  974   4.813  24.724   5.618 -0.1811 -0.0611  0.0934
57922W        W  975   0.058  24.553   2.848 -0.3235 -0.0736  0.1387
57923W        W  976   8.839  24.402   0.515  0.0309  0.0288 -0.0558
57924W        W  977   1.347   5.636  21.770  0.0933  0.0780 -0.1214
57925W        W  978  13.296  34.657  25.838 -0.1034 -0.1143  0.0196
57926W        W  979  29.070  15.505   4.385  0.0010  0.3004 -0.0867
57927W        W  980  28.369   1.865   5.495 -0.0260  0.1937 -0.1012
57928W        W  981   2.916  33.405  29.013  0.0949 -0.4129 -0.1330
57929W        W  982   3.102  26.289   2.425  0.4467  0.0339  0.2923
57930W        W  983  13.075  15.341  26.118 -0.2148 -0.0742 -0.2299
57931W        W  984   4.388  14.003  21.566  0.2709  0.1408  0.3601
57932W        W  985   8.743   8.580   4.791  0.1174 -0.0398 -0.2171
57933W        W  986  33.269  16.685  26.193  0.0943 -0.1674  0.0318
57934W        W  987   9.625   3.308   9.263  0.2884  0.0878 -0.0042
57935W        W  988  20.780   1.867   3.659  0.4240 -0.1986 -0.1090
57936W        W  989  30.847  18.397  26.396  0.0156 -0.0639  0.1307
57937W        W  990  15.054  17.506  26.534 -0.2111  0.0555 -0.2305
57938W        W  991  15.601   6.428  22.272 -0.0544  0.0558 -0.2741
57939W        W  992  30.948  17.193   4.240  0.0766  0.0527  0.0657
57940W        W  993   3.782  16.681   5.022  0.0785  0.1337 -0.2035
57941W        W  994  17.730   6.850  22.320 -0.1181 -0.2314  0.3064
57942W        W  995   4.930  26.273   2.535  0.0229  0.1542 -0.5287
57943W        W  996  11.099  15.515  26.080 -0.0275  0.1829  0.1460
57944W        W  997  32.702  31.352  19.569  0.1258 -0.0431 -0.2019
57945W        W  998  29.462   5.297   0.762 -0.1800  0.1777 -0.1601
57946W        W  999   6.513   5.464   8.457 -0.3061 -0.2574  0.0077
57947W        W 1000   6.352   2.711   5.270  0.0291 -0.2943 -0.1037
57948W        W 1001   0.626  24.306   8.358 -0.1446  0.0799 -0.0058
57949W        W 1002  11.186   3.268   9.300  0.0557 -0.0336 -0.0266
57950W        W 1003  25.888  30.865   5.854 -0.1176 -0.2320  0.0864
57951W        W 1004  11.999   6.800   8.475 -0.0486 -0.3371 -0.0925
57952W        W 1005  26.452  22.085  25.329 -0.2263 -0.1012  0.1283
57953W        W 1006  22.249  25.602   1.706 -0.0403  0.2251 -0.0030
57954W        W 1007  32.421  16.156   2.810 -0.2464 -0.0139  0.1420
57955W        W 1008  20.334  22.323  16.551 -0.0761 -0.1219 -0.1096
57956W        W 1009  15.964  12.576  28.770 -0.2078  0.0316  0.0535
57957W        W 1010  34.283  14.773   5.701 -0.0309 -0.1850  0.1071
57958W        W 1011  25.583  18.778  25.084  0.0424  0.1014 -0.2155
57959W        W 1012  22.923   4.066   0.034 -0.0851 -0.0624  0.0643
57960W        W 1013  27.151  16.167   5.082 -0.2020 -0.0760  0.0572
57961W        W 1014  26.118  11.768  22.505 -0.4065 -0.3811  0.0009
57962W        W 1015  10.879   5.529   7.918 -0.0110  0.2332 -0.0965
57963W        W 1016   0.436   0.795   1.426  0.3157 -0.0737 -0.0387
57964W        W 1017  22.378  11.868   0.225  0.0554  0.1755  0.3126
57965W        W 1018  32.020  10.569  25.691  0.2190 -0.0671  0.1727
57966W        W 1019  14.403  10.578   8.892 -0.1430  0.2563  0.4526
57967W        W 1020  13.450   6.653   8.358  0.0691  0.0548  0.1397
57968W        W 1021  27.449   2.016   0.065 -0.1294  0.2241  0.0127
57969W        W 1022   3.728  17.204  19.176 -0.0646  0.1098 -0.1325
57970W        W 1023   6.268  30.213   6.258  0.1386 -0.2333 -0.2862
57971W        W 1024  33.434  15.269  18.168  0.3563 -0.2206  0.0272
57972W        W 1025  10.376   3.163   9.487 -0.2853  0.3358 -0.1640
57973W        W 1026  19.305  25.869  18.228  0.0191  0.0229 -0.2213
57974W        W 1027   0.926  20.669  21.566 -0.0155  0.2670 -0.2336
57975W        W 1028   3.236   3.881  17.787 -0.3988 -0.1527 -0.1457
57976W        W 1029  13.447   9.036   7.297  0.1812 -0.0717  0.1976
57977W        W 1030  30.171   3.330   0.220  0.0238  0.1132 -0.3660
57978W        W 1031   7.837  33.473   5.354 -0.0632 -0.0857  0.0527
57979W        W 1032  25.323  20.241  15.278  0.1214 -0.0204 -0.0700
57980W        W 1033  27.429   0.318   8.083 -0.1844 -0.2487  0.2044
57981W        W 1034  19.502   8.074  18.986 -0.0933  0.0990 -0.1338
57982W        W 1035   5.731  12.665  16.388  0.2523 -0.0660  0.2078
57983W        W 1036   1.836   7.395   8.328 -0.0103 -0.0686 -0.2773
57984W        W 1037  18.550  19.198   2.104 -0.1816 -0.2451 -0.0407
57985W        W 1038  29.220  27.298   8.648 -0.0719 -0.1527 -0.0831
57986W        W 1039  30.962   7.132   8.663 -0.2583  0.0309 -0.0485
57987W        W 1040  20.268  13.381  15.525 -0.0183  0.1307 -0.0587
57988W        W 1041   3.167  14.160  25.824  0.0869 -0.4685  0.1355
57989W        W 1042   3.624   4.899   8.592 -0.0968  0.0222  0.0770
57990W        W 1043  22.246  16.349   2.544 -0.1223  0.1025  0.2405
57991W        W 1044  12.890  13.346   1.755  0.1328  0.0192  0.1612
57992W        W 1045   5.562  12.268   6.238 -0.2638  0.2504  0.0398
57993W        W 1046   3.692  29.997   3.098 -0.0277 -0.0209 -0.1710
57994W        W 1047   5.133  33.827   8.558  0.0969  0.0199  0.0811
57995W        W 1048  24.252   3.751  24.139 -0.1270  0.0715  0.0476
57996W        W 1049  22.668  25.795  22.978  0.2327 -0.0860 -0.0828
57997W        W 1050  28.968   7.472   6.326 -0.1424  0.0790  0.4335
57998W        W 1051  26.225  14.071  15.308  0.0290 -0.1231  0.1275
57999W        W 1052  19.662  15.926  14.254  0.0323 -0.0726  0.0925
58000W        W 1053  29.189  10.965  26.645 -0.2110  0.0153  0.1427
58001W        W 1054  30.825  29.002   9.185  0.0405 -0.3362  0.0753
58002W        W 1055  28.881  13.783  28.645  0.0925  0.0750 -0.2007
58003W        W 1056   4.134  17.661   0.644 -0.2655 -0.4947  0.0463
58004W        W 1057  10.854  14.358   3.233  0.1959  0.1847 -0.0259
58005W        W 1058   9.483   9.327   7.929 -0.0916  0.0797 -0.0988
58006W        W 1059  19.660  11.220   7.621 -0.2487 -0.1808 -0.2667
58007W        W 1060   3.399  34.337   4.525  0.0183  0.0369 -0.0756
58008W        W 1061  13.549  19.944   8.422  0.1124 -0.2762  0.2332
58009W        W 1062  31.908   6.469  27.239  0.0010 -0.2902  0.0224
58010W        W 1063  12.103  34.377  25.211 -0.0476  0.1129  0.2807
58011W        W 1064  24.562   9.394  23.713  0.1724 -0.2045  0.4193
58012W        W 1065  29.502  16.842  26.990  0.0623  0.1497  0.1782
58013W        W 1066   0.170   6.349   1.537 -0.0085  0.0704 -0.0300
58014W        W 1067  33.716  14.289   7.709 -0.0332 -0.0826 -0.4338
58015W        W 1068  34.489   0.918   6.324 -0.1296 -0.0357  0.2675
58016W        W 1069   3.392   1.288  21.047 -0.0416 -0.1806  0.2763
58017W        W 1070  12.180  14.323   6.620 -0.0862 -0.1751  0.3447
58018W        W 1071  21.920   4.764  21.862  0.0312  0.1475  0.1039
58019W        W 1072   6.388  23.961  29.101  0.1283 -0.1095 -0.0747
58020W        W 1073  32.973  33.365   8.653  0.1558 -0.1359  0.3277
58021W        W 1074   2.578  11.155  15.909  0.1800  0.1960  0.0331
58022W        W 1075  26.300  18.230   9.099 -0.0913  0.2082 -0.0393
58023W        W 1076  32.281   0.334  19.395 -0.3810  0.0718  0.1992
58024W        W 1077   0.516   7.874  16.273 -0.0757  0.0476  0.0095
58025W        W 1078   5.750  11.428   5.071 -0.0825 -0.1038  0.1019
58026W        W 1079  31.855  12.120  19.530  0.0384  0.0300  0.0001
58027W        W 1080  18.139  17.667   1.133  0.1025 -0.0604 -0.2636
58028W        W 1081  19.288  16.848  23.464  0.2607  0.2793  0.0797
58029W        W 1082  28.254  11.134  21.273  0.2376 -0.0417 -0.2771
58030W        W 1083   5.622  34.235  24.118  0.1313  0.1440  0.0379
58031W        W 1084   3.864  15.752  20.477 -0.3990  0.0735 -0.2315
58032W        W 1085   9.357  16.096   3.841 -0.4327  0.0778  0.1929
58033W        W 1086   7.499   4.986   5.202 -0.4602 -0.1360  0.0133
58034W        W 1087  22.270  24.611  14.751 -0.3816 -0.0856  0.0867
58035W        W 1088  11.741   8.426  28.907  0.0821 -0.0842 -0.1046
58036W        W 1089  33.630  12.138   7.431  0.0221 -0.0274  0.0232
58037W        W 1090  13.202   6.308   1.118  0.1143  0.0147 -0.2884
58038W        W 1091  34.490  33.000   5.155 -0.0528 -0.1978 -0.0371
58039W        W 1092   6.029  14.105   4.438 -0.1719 -0.0507 -0.0655
58040W        W 1093   8.513  16.116   8.331 -0.2410  0.0278 -0.4175
58041W        W 1094  18.933   3.285  19.478 -0.0486  0.1189  0.1059
58042W        W 1095  18.752   2.371   1.574 -0.2718  0.1361  0.1271
58043W        W 1096  33.739  21.140  16.365 -0.3635 -0.0170 -0.0325
58044W        W 1097  24.126  22.315   3.624 -0.1820  0.0279  0.2176
58045W        W 1098  10.820  33.399   3.284 -0.0076 -0.2551  0.1590
58046W        W 1099  31.686  14.301   8.013  0.0886 -0.2221 -0.0595
58047W        W 1100  21.969  17.028   3.221  0.0016  0.1394 -0.0611
58048W        W 1101   5.770   8.317  25.280 -0.0242  0.3008  0.1503
58049W        W 1102  26.033  24.900   6.899 -0.3678 -0.0999 -0.0732
58050W        W 1103  27.870   9.680   0.237  0.1321  0.0591 -0.1478
58051W        W 1104   2.380  17.296  27.232  0.2940  0.1467  0.0479
58052W        W 1105  32.086  11.364  28.654 -0.0561 -0.3428 -0.1283
58053W        W 1106   1.521   8.967  19.135  0.0799 -0.0695  0.2997
58054W        W 1107  28.002  27.257  25.855 -0.1456  0.3254 -0.0486
58055W        W 1108   2.288  29.449   0.036 -0.2621 -0.0933 -0.0322
58056W        W 1109  12.835   8.453   0.653  0.1873 -0.1135 -0.0605
58057W        W 1110  26.722  17.332   3.734 -0.0408 -0.0117  0.1226
58058W        W 1111   3.433   8.918   3.696  0.1092  0.1906 -0.2804
58059W        W 1112   1.832   2.737  25.611  0.2624 -0.0794  0.1735
58060W        W 1113  11.639   8.889   6.177  0.2489  0.3108  0.1205
58061W        W 1114   0.026  25.798  21.200 -0.1863  0.0344  0.0664
58062W        W 1115  20.363   1.967   6.993  0.1817 -0.0347 -0.3847
58063W        W 1116   7.430   8.224  26.823  0.0659 -0.0058 -0.0525
58064W        W 1117   8.188   7.878   4.883 -0.0527  0.1282  0.0455
58065W        W 1118   0.701  13.556  23.999  0.0057 -0.0346 -0.0945
58066W        W 1119   0.996   2.083   9.271 -0.3141 -0.0486  0.0831
58067W        W 1120   0.638   0.055   6.992  0.1571 -0.0677 -0.0705
58068W        W 1121   0.302  15.033   5.548  0.1234 -0.3363 -0.2282
58069W        W 1122  23.214  19.575   5.793 -0.2441  0.0061  0.0713
58070W        W 1123  32.072   4.110  20.544  0.1681  0.2227 -0.3273
58071W        W 1124   0.239  17.084  26.793 -0.0870  0.2491  0.1512
58072W        W 1125   1.661   1.714   1.036  0.0394 -0.4873  0.2709
58073W        W 1126   0.908   8.268   0.197  0.1528  0.0379  0.1740
58074W        W 1127   3.563   4.256   0.942  0.1301 -0.1993 -0.0370
58075W        W 1128   4.941  19.537  22.859 -0.0126  0.1605 -0.0215
58076W        W 1129  28.298   0.826  23.262  0.0001 -0.0112  0.0502
58077W        W 1130   5.059   3.854   9.565 -0.2070  0.0201 -0.0521
58078W        W 1131   7.128  29.509   3.993  0.1596 -0.0795  0.1571
58079W        W 1132   8.948   0.513  25.583 -0.0472 -0.1319 -0.2587
58080W        W 1133   0.652   0.224   8.529  0.1984 -0.0310 -0.2774
58081W        W 1134  33.152   0.877  10.073  0.4739  0.0036 -0.0594
58082W        W 1135   0.564   8.268   9.875 -0.1475 -0.3430  0.0074
58083W        W 1136  26.813  10.016   4.801 -0.0208 -0.0324 -0.0998
58084W        W 1137  21.094   9.078  24.403  0.0169  0.0047  0.0975
58085W        W 1138  11.130  13.839   5.468 -0.1924  0.0712  0.0739
58086W        W 1139  14.353   4.717  20.905 -0.0517  0.4755 -0.3362
58087W        W 1140  17.943  24.822   9.891 -0.3021  0.5124  0.0756
58088W        W 1141  29.268   0.833   8.946 -0.3404  0.0476  0.1353
58089W        W 1142  15.961  15.672   5.518 -0.0398  0.4662 -0.1465
58090W        W 1143  24.263  16.175  27.059 -0.0530  0.2109  0.1359
58091W        W 1144  21.401  23.310  25.716  0.0656 -0.1326  0.1073
58092W        W 1145   2.382  10.926   5.137  0.0871 -0.0749 -0.2203
58093W        W 1146  17.849   7.293  20.726 -0.0324 -0.1245 -0.0301
58094W        W 1147   4.972  10.616  21.385 -0.1303  0.0122  0.2997
58095W        W 1148   7.732  15.968   2.878 -0.1031  0.1145  0.2689
58096W        W 1149  28.770   8.383  10.200 -0.0430 -0.2925  0.1233
58097W        W 1150   8.954  12.253  26.949 -0.0320 -0.2440 -0.0859
58098W        W 1151  11.311   5.408   5.665  0.0509 -0.2296  0.2126
58099W        W 1152  32.054   5.208  28.705  0.4156 -0.5285 -0.1022
58100W        W 1153  12.640  33.593   2.201 -0.1623  0.1394 -0.1857
58101W        W 1154  26.321  11.305  16.757 -0.2993 -0.0790  0.1208
58102W        W 1155   0.921  18.316   4.628 -0.1921 -0.1521 -0.0979
58103W        W 1156   0.231   2.233  18.704  0.1927 -0.2616 -0.1302
58104W        W 1157   2.480  14.559  23.079  0.0767  0.0402 -0.0048
58105W        W 1158  14.958   4.549   1.705 -0.2921  0.1093 -0.2215
58106W        W 1159   5.961   6.953   5.180 -0.2457 -0.1607  0.0190
58107W        W 1160  18.891   3.285   8.539  0.0526 -0.2716  0.0503
58108W        W 1161   8.382   6.757  17.063  0.3257  0.0401 -0.1122
58109W        W 1162   5.543  18.384   2.266  0.0887  0.3311 -0.1286
58110W        W 1163   8.168   6.214  19.509  0.3474  0.2852 -0.2113
58111W        W 1164  24.183  18.049  24.796  0.0027  0.2062 -0.3188
58112W        W 1165  32.309   8.422   4.448  0.2214  0.0650 -0.2521
58113W        W 1166  31.497   4.600   0.000  0.0158 -0.2091 -0.0030
58114W        W 1167   1.612   3.444   1.312  0.1341  0.0106 -0.0625
58115W        W 1168  26.638   6.966  25.095  0.3207  0.2502  0.1934
58116W        W 1169  18.889  24.879   1.174  0.4414 -0.2140 -0.2318
58117W        W 1170   9.696  33.927  10.518  0.1870  0.0248 -0.1516
58118W        W 1171   5.114  31.352  28.860 -0.0124  0.2774 -0.2340
58119W        W 1172  18.046   8.128  28.592 -0.0157 -0.3446  0.0778
58120W        W 1173   7.852   3.979  10.219 -0.5060 -0.0528  0.0116
58121W        W 1174  32.265  10.552   9.460  0.2472  0.1682  0.1393
58122W        W 1175  22.133  17.793   1.334 -0.1517  0.2585 -0.1522
58123W        W 1176   1.917   9.484  10.349  0.1402  0.1844 -0.2129
58124W        W 1177  26.410  18.393   7.690 -0.1256 -0.1175  0.0895
58125W        W 1178   0.251  16.777   1.989 -0.2486  0.1734  0.3149
58126W        W 1179  34.162  18.392   3.815 -0.2005  0.0323  0.2714
58127W        W 1180  14.459   6.117   2.118  0.0747  0.2467  0.1286
58128W        W 1181  19.038   3.058   2.333  0.0224 -0.4368  0.5074
58129W        W 1182  12.345  19.858  23.915 -0.1562  0.0609 -0.1829
58130W        W 1183  10.093  27.588   6.711 -0.2016 -0.2766  0.0806
58131W        W 1184   3.700  18.721   1.818  0.2447 -0.4633  0.2167
58132W        W 1185  10.117  13.098   5.423 -0.1910  0.0703  0.2866
58133W        W 1186  11.066   9.867  28.363 -0.0178 -0.1394  0.0857
58134W        W 1187  30.167  20.702   9.359  0.1069  0.1755 -0.0358
58135W        W 1188   5.317  21.725   7.246 -0.0523  0.0432 -0.2816
58136W        W 1189   5.442  12.270  19.153 -0.1271  0.1163 -0.0274
58137W        W 1190  30.899  29.777  24.913 -0.2707  0.0218 -0.1455
58138W        W 1191  15.786  17.582   8.184 -0.2000  0.3801  0.1933
58139W        W 1192  12.366  14.312   9.954  0.0886  0.0953  0.0105
58140W        W 1193  26.458   7.967   6.023 -0.2013 -0.0449 -0.0060
58141W        W 1194  31.576   5.167   2.182 -0.1247 -0.0882 -0.1632
58142W        W 1195   0.063   8.532   3.027 -0.1534 -0.0983  0.1547
58143W        W 1196  28.975  33.427   3.842 -0.0028 -0.2238  0.0143
58144W        W 1197  32.346   9.922  27.663 -0.0079  0.1145  0.4764
58145W        W 1198   3.315   7.232   9.741 -0.0512  0.0061 -0.0375
58146W        W 1199  23.581  10.405   8.876  0.0126  0.2708 -0.1106
58147W        W 1200  20.753  34.433   3.058  0.1677  0.1808  0.3904
58148W        W 1201   9.333  23.445   2.087  0.0143  0.0910  0.0963
58149W        W 1202  11.630   2.758  28.736 -0.2991  0.1468 -0.3672
58150W        W 1203  19.282   7.037   1.738 -0.0416 -0.0320  0.1331
58151W        W 1204   2.542   5.592   5.080  0.0577  0.6136 -0.1047
58152W        W 1205   6.878  21.745   6.540  0.2057  0.2240  0.0021
58153W        W 1206  29.167  21.472  18.758 -0.0555  0.0453  0.0592
58154W        W 1207  17.454  33.004   3.681 -0.0271 -0.1409  0.0081
58155W        W 1208  10.926   8.811   5.551 -0.0241  0.2877  0.0743
58156W        W 1209  25.900  14.599   0.881  0.1465 -0.2936 -0.2378
58157W        W 1210  10.363  31.375   8.915  0.1950  0.0569 -0.0787
58158W        W 1211  13.067  11.427   0.120  0.0784 -0.1046 -0.2772
58159W        W 1212   8.043  15.389   0.788  0.3061 -0.0063 -0.3224
58160W        W 1213   3.290  13.107   3.888  0.0498 -0.1154  0.2653
58161W        W 1214   8.178  11.715   6.996 -0.0757 -0.3393  0.1823
58162W        W 1215  14.668  10.098   2.579  0.0026  0.3313 -0.1036
58163W        W 1216  26.493   4.359   7.673 -0.0657 -0.1260  0.1940
58164W        W 1217   7.212   5.604   6.823  0.0126 -0.1602  0.1191
58165W        W 1218   2.899  22.311   7.499  0.2967 -0.1755 -0.3149
58166W        W 1219   3.161  10.734  23.936  0.1887  0.2529 -0.1877
58167W        W 1220   8.799  16.316  18.482  0.2644 -0.0242  0.2541
58168W        W 1221  27.954  11.808   2.441 -0.2066 -0.3212 -0.0079
58169W        W 1222   2.734  12.390   5.301  0.0786 -0.0652 -0.0434
58170W        W 1223   7.166  16.974   6.854 -0.0255 -0.1680 -0.1487
58171W        W 1224  17.434  23.430   8.529  0.1691  0.3047  0.1468
58172W        W 1225   2.294  10.861  24.775 -0.0699  0.1281  0.1097
58173W        W 1226  18.665  24.698   5.196  0.2628 -0.2539  0.0823
58174W        W 1227   0.062   5.434   4.892  0.1976 -0.0573  0.1495
58175W        W 1228  17.371  13.666  15.347  0.0394  0.1647  0.3311
58176W        W 1229  33.887   2.533   7.316  0.1550  0.3556 -0.0385
58177W        W 1230  11.592  22.298   4.020  0.2715  0.6180  0.3101
58178W        W 1231   4.888  11.539  24.764  0.3127  0.2312 -0.1229
58179W        W 1232  23.203  29.765   4.877 -0.1379 -0.3082  0.2902
58180W        W 1233  17.960  10.123   8.786 -0.0928 -0.1260  0.0985
58181W        W 1234   0.384   6.064   1.255  0.0415  0.2045 -0.0251
58182W        W 1235   2.777   8.370   9.853 -0.1036  0.0493 -0.0805
58183W        W 1236  16.048   7.580   5.951 -0.0971 -0.0003 -0.2668
58184W        W 1237  31.621   6.897   4.654  0.3521  0.1430 -0.2140
58185W        W 1238  23.863  25.360   8.601 -0.2742 -0.1586 -0.2814
58186W        W 1239  12.082   6.234   9.581 -0.0866 -0.2080  0.0605
58187W        W 1240   5.769   6.393   4.878  0.2845 -0.2557  0.1168
58188W        W 1241  14.795   4.750   7.299  0.0282  0.1117 -0.2177
58189W        W 1242  31.525   6.532   9.428 -0.1795 -0.0660  0.2811
58190W        W 1243  25.437  14.416  24.584  0.0350  0.1117  0.3577
58191W        W 1244  33.137   7.326  10.576  0.0692  0.3840 -0.1314
58192W        W 1245  31.690  34.245  18.903 -0.0197 -0.0336 -0.2238
58193W        W 1246  34.240  15.765  26.589 -0.4321  0.2778  0.0232
58194W        W 1247   8.871  17.407   5.304 -0.1649 -0.0527 -0.1499
58195W        W 1248  18.566   7.468   8.958 -0.1361  0.0536 -0.2242
58196W        W 1249  30.463   8.544  10.618  0.0839  0.1611  0.2266
58197W        W 1250  14.700  33.332   9.791  0.1834  0.0804 -0.3872
58198W        W 1251  19.940   4.963  27.548  0.0385 -0.2665  0.2315
58199W        W 1252  31.999   8.930   5.082  0.0713 -0.1295 -0.3160
58200W        W 1253   0.244  22.002   1.455 -0.1810 -0.0667 -0.1575
58201W        W 1254   9.584   1.397   9.359  0.0964 -0.2693 -0.1482
58202W        W 1255   8.036  30.067  22.466  0.0845 -0.2759  0.1421
58203W        W 1256   2.209   5.850  13.414  0.4229  0.0461  0.0052
58204W        W 1257   3.731  24.490   0.111 -0.0877 -0.1805 -0.0196
58205W        W 1258  29.302  11.214   5.682 -0.0831 -0.3516 -0.1690
58206W        W 1259  28.982  12.143   6.540  0.1247  0.1065  0.0849
58207W        W 1260  32.541  31.840   9.057 -0.3718  0.0310 -0.0469
58208W        W 1261  26.124  25.030   0.082 -0.0548  0.0422 -0.0371
58209W        W 1262   1.828  12.505   1.292 -0.1764 -0.2424 -0.0712
58210W        W 1263   3.781   0.498   5.357 -0.0964  0.1131 -0.0619
58211W        W 1264  10.604   8.257  19.493  0.0288  0.1395  0.0824
58212W        W 1265  24.712   3.166   1.640  0.0301  0.0962 -0.0592
58213W        W 1266  32.766  28.977   5.862  0.0992 -0.2069  0.0929
58214W        W 1267   3.364   3.778   3.773 -0.0331  0.1914  0.3302
58215W        W 1268  23.820  15.381   9.214  0.0185  0.0381 -0.2628
58216W        W 1269   4.610  33.822  27.882  0.3463 -0.0769 -0.1528
58217W        W 1270  33.879  17.425  28.138 -0.2239  0.2636  0.2234
58218W        W 1271  30.127  16.342   2.780 -0.1840 -0.1712  0.1958
58219W        W 1272  25.500  34.060   3.371  0.2985  0.3510 -0.3166
58220W        W 1273  15.847  16.493   4.399  0.2093 -0.0967  0.1690
58221W        W 1274   9.909  24.245  20.354 -0.0458  0.0683 -0.0562
58222W        W 1275  11.557   8.289  10.368  0.0159  0.1332 -0.3288
58223W        W 1276   6.196  10.464   5.238 -0.2057 -0.3851  0.2074
58224W        W 1277  10.370  21.131   8.741 -0.1451 -0.1682 -0.0783
58225W        W 1278   7.539   7.977   1.970  0.4494  0.0590  0.0259
58226W        W 1279  27.649   4.125   6.766 -0.1797  0.2657  0.1928
58227W        W 1280  24.681  31.360   0.906  0.1776  0.1418  0.0968
58228W        W 1281   5.307   6.616   8.744 -0.2746 -0.1877  0.1979
58229W        W 1282  27.872  15.105   0.687  0.0521  0.0141  0.0686
58230W        W 1283   1.677   3.005   0.358  0.4679  0.0165  0.1651
58231W        W 1284   6.820   4.239  26.178 -0.4677  0.1217 -0.0981
58232W        W 1285  33.950  12.106   8.359 -0.0486 -0.0522 -0.0207
58233W        W 1286  14.299  12.405   0.316 -0.1599 -0.2864  0.1786
58234W        W 1287  33.397  31.692   4.362 -0.1942 -0.0155  0.0269
58235W        W 1288   5.342  16.863   1.577  0.1749  0.1121  0.0194
58236W        W 1289  16.556  21.505   9.881 -0.1108 -0.1279  0.5289
58237W        W 1290  30.113   6.968   5.566 -0.0040 -0.0293 -0.0771
58238W        W 1291   4.434   1.592   4.277  0.0306  0.2738 -0.1310
58239W        W 1292  17.315   3.723   7.437  0.1896  0.2564 -0.3696
58240W        W 1293  27.261  28.746   4.011  0.1127 -0.2247 -0.0483
58241W        W 1294  34.672  21.086   5.861 -0.1049  0.1593 -0.1362
58242W        W 1295  28.301  20.172  10.481 -0.0958 -0.1004  0.2471
58243W        W 1296  31.780   5.777  27.905  0.2099 -0.0129  0.1427
58244W        W 1297  32.936  12.028   1.626  0.2895 -0.2017  0.1515
58245W        W 1298  34.260  10.631   3.508 -0.0920  0.2110 -0.0961
58246W        W 1299  17.563   6.357   7.703 -0.2410 -0.2156  0.1629
58247W        W 1300  34.681   6.326   7.667  0.2130 -0.1507  0.0157
58248W        W 1301  27.956   2.770  21.662 -0.2853 -0.3214 -0.0266
58249W        W 1302   7.267  30.770  24.721 -0.0534  0.0786  0.1175
58250W        W 1303  31.393  10.924   6.503  0.0161  0.4568 -0.0709
58251W        W 1304   9.975   3.420   5.448  0.1626  0.1467  0.2812
58252W        W 1305   2.858  18.628   8.767 -0.2249  0.0700  0.0613
58253W        W 1306   8.418  13.366  10.910  0.0524  0.0389 -0.1194
58254W        W 1307  32.432   9.117  27.334 -0.1432 -0.0529  0.2478
58255W        W 1308   5.337   0.120   1.583 -0.1592  0.1598 -0.0106
58256W        W 1309   4.209  30.160   4.032 -0.0421 -0.1889 -0.1859
58257W        W 1310   6.407  19.156   2.836 -0.3494  0.3331  0.2660
58258W        W 1311   1.120  26.257   8.116  0.2674  0.3069 -0.0661
58259W        W 1312  15.451   1.913   8.823  0.0447  0.2670  0.1445
58260W        W 1313   4.150  16.467   6.865 -0.1749 -0.2026  0.1069
58261W        W 1314  28.549  12.351   6.441 -0.0386 -0.2503  0.1350
58262W        W 1315  34.546  17.005   9.293 -0.2285 -0.2616  0.1848
58263W        W 1316  27.628  34.079   6.517 -0.3092 -0.1144  0.1438
58264W        W 1317   4.661  13.306   1.304  0.0879  0.0694  0.0297
58265W        W 1318   6.149  10.950   1.388 -0.0963 -0.3911 -0.2954
58266W        W 1319   0.956  12.647  23.656  0.0941  0.0791 -0.0577
58267W        W 1320  11.474  12.889   0.750 -0.0971 -0.0332 -0.2088
58268W        W 1321  14.731   1.205  15.630 -0.2680  0.1432 -0.0109
58269W        W 1322  32.122  17.229   7.153 -0.0309  0.4519 -0.2343
58270W        W 1323  14.624  14.206  24.758  0.0499 -0.0170 -0.1176
58271W        W 1324   8.863   0.558  28.588  0.1863  0.2734  0.1622
58272W        W 1325  18.396   3.344   0.093  0.0705  0.1847 -0.4581
58273W        W 1326  10.431  12.229   8.975  0.4248 -0.2059  0.0858
58274W        W 1327  14.425  11.694   6.052 -0.0536 -0.0445 -0.1808
58275W        W 1328  32.298   3.781  17.889  0.0844  0.0560  0.0401
58276W        W 1329   0.681   5.401  14.932  0.1145 -0.0389  0.1683
58277W        W 1330  27.690  21.198   5.465 -0.0258 -0.1592 -0.3385
58278W        W 1331  18.658  33.638   4.586  0.1286  0.1081  0.3184
58279W        W 1332  18.961  15.411  26.147 -0.0612  0.1853 -0.2944
58280W        W 1333   3.389   3.917  25.553 -0.1866 -0.0675  0.0269
58281W        W 1334  27.370  23.202  24.072  0.4597 -0.0787 -0.1051
58282W        W 1335  13.960  19.712   3.772  0.0461 -0.0888  0.1453
58283W        W 1336   6.576  22.805   3.112 -0.1447  0.0784  0.1222
58284W        W 1337  31.475   1.732   7.542  0.0712 -0.0689  0.2321
58285W        W 1338   0.944  11.627  15.445 -0.0237 -0.0115 -0.3232
58286W        W 1339   7.427  18.546  25.454 -0.2715 -0.0609  0.3240
58287W        W 1340  28.243  33.409   9.296 -0.2677 -0.1347  0.2327
58288W        W 1341  31.087  32.806   8.195  0.3251 -0.2513  0.0988
58289W        W 1342   8.284   2.046   8.385 -0.2517 -0.0382  0.2792
58290W        W 1343  27.676  11.912   6.052 -0.1857 -0.0311  0.0901
58291W        W 1344   8.590  19.655  21.649  0.1762  0.3017 -0.0175
58292W        W 1345  27.516   9.002  16.637 -0.3351  0.0414  0.2950
58293W        W 1346  12.685  16.652  24.125  0.1145  0.0396  0.2229
58294W        W 1347   5.745  24.974   5.510 -0.1694  0.1269 -0.1228
58295W        W 1348  17.493   3.400  24.135 -0.1706  0.1206  0.0613
58296W        W 1349   8.988   2.737   9.158  0.1016  0.0922 -0.0138
58297W        W 1350  21.329   6.705   1.820  0.1858  0.0334  0.2138
58298W        W 1351  24.893   3.267  27.634 -0.2564  0.0443  0.1261
58299W        W 1352   8.651   0.611   6.109  0.1257 -0.3200 -0.1020
58300W        W 1353   4.238   8.645   9.220 -0.1787  0.1262 -0.1288
58301W        W 1354  34.300  12.123  25.370  0.0264  0.2171  0.0712
58302W        W 1355  27.123   8.990   3.413  0.0570  0.1888 -0.2005
58303W        W 1356  28.558  16.007   0.918 -0.0147  0.2716 -0.1248
58304W        W 1357  15.371  19.766   4.418 -0.0689 -0.2108  0.0876
58305W        W 1358   0.037   2.060  25.629  0.0176 -0.0496  0.0384
58306W        W 1359  33.954  18.250  19.813 -0.1500  0.3619 -0.1351
58307W        W 1360   3.540  20.078   6.082  0.3201  0.3065  0.0261
58308W        W 1361   9.793   7.725   7.845 -0.3607 -0.0133 -0.1479
58309W        W 1362  29.736   7.764  26.562 -0.2232  0.0881 -0.0685
58310W        W 1363  27.501   2.331   8.254 -0.0375 -0.2498  0.1072
58311W        W 1364  32.889  18.094  10.067  0.0333  0.0388  0.2401
58312W        W 1365   9.053  27.694  29.159 -0.2926  0.2565  0.1564
58313W        W 1366  11.755   5.180   2.117  0.2496 -0.0181  0.0999
58314W        W 1367  32.647  24.583  27.187 -0.1758 -0.0191 -0.0697
58315W        W 1368  10.316   4.883   8.430 -0.1517  0.3693  0.0135
58316W        W 1369  11.884  20.340  27.805 -0.2280  0.1338 -0.0158
58317W        W 1370  21.153  13.386  25.623 -0.2569  0.3566  0.2057
58318W        W 1371  32.949   7.178   1.497  0.3239  0.1362  0.2491
58319W        W 1372   3.242  10.316   8.116 -0.2252  0.1878 -0.0563
58320W        W 1373  28.756  27.691  23.288 -0.0709  0.1883 -0.3230
58321W        W 1374   7.295  15.399  27.447 -0.1200  0.0474  0.0892
58322W        W 1375  24.874   9.653   8.622 -0.1815 -0.1412 -0.0867
58323W        W 1376   4.452  31.560   9.955  0.0825  0.3105  0.0590
58324W        W 1377  13.837   6.113  10.188  0.0723 -0.0680 -0.1588
58325W        W 1378  14.755  31.854   2.878 -0.0612 -0.2945 -0.1236
58326W        W 1379   2.791  16.834   3.628 -0.1423  0.0514  0.0766
58327W        W 1380   4.615  10.812   3.975 -0.0126  0.0986  0.1065
58328W        W 1381  25.335  17.222   7.915  0.1911  0.1691 -0.2069
58329W        W 1382  14.098   3.068   2.816  0.2839  0.0038  0.0112
58330W        W 1383  31.219  24.889  19.394 -0.2764  0.1421  0.0889
58331W        W 1384  10.554  16.315   4.141  0.2150  0.0097  0.1430
58332W        W 1385  22.551  14.786  26.952 -0.3033 -0.1555 -0.0635
58333W        W 1386  15.511  22.984   3.631  0.0534  0.2033 -0.2378
58334W        W 1387  10.581  33.923   7.284  0.1651 -0.2372  0.0286
58335W        W 1388   4.269   4.642   8.127  0.0321  0.0548  0.0766
58336W        W 1389  23.634  28.985  26.735 -0.0771 -0.1816  0.1995
58337W        W 1390  32.311  28.880  21.094 -0.0499 -0.1176 -0.1809
58338W        W 1391   8.052  16.848  22.252 -0.2334 -0.0537 -0.2281
58339W        W 1392  19.673  27.676   9.347  0.0350  0.2095 -0.2361
58340W        W 1393   6.017  11.054   5.346  0.0855  0.2371 -0.1822
58341W        W 1394   4.878  33.048   5.668 -0.0840  0.1036 -0.0785
58342W        W 1395  29.817   9.606  28.116 -0.2339 -0.0802 -0.0688
58343W        W 1396  29.330   3.374   2.471  0.2389 -0.0787  0.0348
58344W        W 1397  27.878  21.820   5.354  0.1770 -0.0036 -0.1018
58345W        W 1398   2.295   1.927   8.941 -0.0988 -0.1122  0.0367
58346W        W 1399  31.127  14.151  25.141  0.4244 -0.1544  0.0991
58347W        W 1400  31.017  10.984   4.751  0.1074 -0.0888  0.2888
58348W        W 1401  17.781   8.013   3.228  0.1717 -0.2560  0.1394
58349W        W 1402  12.820  19.294   8.853  0.1735 -0.4033  0.3945
58350W        W 1403   0.143  23.713   6.730 -0.3486 -0.1150 -0.0860
58351W        W 1404   1.073  19.945   7.007  0.0237 -0.1832 -0.2616
58352W        W 1405  32.156  22.918   3.931 -0.0631 -0.2319  0.0123
58353W        W 1406  32.131   9.120  28.319  0.0377 -0.1268  0.1414
58354W        W 1407  18.422  12.028  29.132  0.0364 -0.3783  0.2756
58355W        W 1408   5.867   8.138  19.591 -0.0351 -0.1488  0.0189
58356W        W 1409  34.167  30.671   7.673 -0.2445 -0.0718  0.4187
58357W        W 1410  31.969  32.930   7.852  0.0402  0.0745  0.1923
58358W        W 1411  10.128   7.912  26.154 -0.1152  0.2091 -0.1325
58359W        W 1412  17.977   0.573  29.123  0.0938 -0.1561  0.2175
58360W        W 1413  26.426   7.485  21.342  0.3643  0.1831 -0.2151
58361W        W 1414  32.341  13.409  20.898 -0.1923  0.3251 -0.3062
58362W        W 1415  32.833  30.771  28.904  0.0900 -0.1628 -0.1297
58363W        W 1416   6.631   5.997   2.888  0.1937 -0.0664 -0.2394
58364W        W 1417  12.392   7.261   5.250 -0.0246  0.2891  0.0213
58365W        W 1418  22.642   0.684   9.480 -0.2763 -0.2414  0.0408
58366W        W 1419  34.411   7.010   1.980  0.0142  0.0293  0.1846
58367W        W 1420  26.445   5.678   4.974  0.0001  0.0072 -0.0160
58368W        W 1421  29.858  15.760  28.282  0.2183 -0.2566 -0.1956
58369W        W 1422   7.923   8.115   9.900  0.1233 -0.1133 -0.2726
58370W        W 1423  24.771  27.053   8.176  0.1881  0.3334 -0.0777
58371W        W 1424   9.775   9.711   8.819 -0.0317  0.0770 -0.0302
58372W        W 1425  24.747  14.486  15.567 -0.1407  0.5024 -0.2228
58373W        W 1426   2.303  18.703  25.622  0.3610  0.0291 -0.1583
58374W        W 1427   5.262  15.287   3.504  0.1173 -0.1973  0.2829
58375W        W 1428   1.318  14.174   4.901 -0.1183  0.0293 -0.1027
58376W        W 1429  30.393   4.058   7.077  0.1588 -0.0708 -0.1097
58377W        W 1430  30.074  14.911   4.140 -0.0925  0.1929  0.1000
58378W        W 1431  30.505   8.515   6.885 -0.0325 -0.1525 -0.0212
58379W        W 1432   5.386  32.189   5.646  0.2939  0.2805  0.4700
58380W        W 1433  23.768   2.256  24.709  0.1937  0.0694  0.0906
58381W        W 1434   4.270  33.371   9.716  0.0972 -0.1360 -0.3100
58382W        W 1435   8.437   6.891   5.333  0.0641  0.1049 -0.0161
58383W        W 1436  33.104  31.937  25.530  0.2119 -0.1202  0.1570
58384W        W 1437   2.715   5.656   0.396 -0.0707  0.3863  0.0185
58385W        W 1438  24.954  12.810  28.384  0.0288  0.1312  0.0010
58386W        W 1439   6.956  15.400   5.128 -0.0306  0.1579  0.0330
58387W        W 1440  31.796  12.480  25.900 -0.0683 -0.0768  0.2154
58388W        W 1441   0.554  25.047  17.504 -0.2665 -0.0912  0.0273
58389W        W 1442   6.810   6.797  25.673  0.1812  0.3651 -0.2107
58390W        W 1443  11.805  32.809   3.471 -0.2864  0.0214 -0.1824
58391W        W 1444  31.986  25.096   1.662  0.0158 -0.0130  0.1230
58392W        W 1445  13.798  12.589  27.874 -0.1620  0.4005 -0.4229
58393W        W 1446  16.710  22.141   7.465  0.0897 -0.2443 -0.1132
58394W        W 1447  12.480   9.711   1.848 -0.1273  0.0976 -0.2411
58395W        W 1448  30.882  18.612   7.563  0.0300 -0.2888  0.0159
58396W        W 1449   7.819  19.853   4.359  0.2231  0.2047  0.0597
58397W        W 1450  32.441   6.674  23.501 -0.0969  0.1257 -0.2499
58398W        W 1451   6.106  34.630   1.860 -0.3417 -0.0316 -0.2403
58399W        W 1452   9.995  13.925   4.375 -0.1995  0.0353 -0.0020
58400W        W 1453   1.920  21.969   1.567  0.1182  0.0195  0.1764
58401W        W 1454  19.439  16.780   6.694  0.1900 -0.0685 -0.2641
58402W        W 1455   8.853  11.578  26.253 -0.1313  0.0179  0.0484
58403W        W 1456  19.858  26.212   8.603 -0.0070 -0.2490  0.0270
58404W        W 1457   0.418  10.690   9.008  0.1009  0.0825 -0.1238
58405W        W 1458  25.882   1.249  21.992 -0.0578  0.1280  0.0765
58406W        W 1459  28.555  10.119  24.545  0.1626 -0.0757 -0.4450
58407W        W 1460  34.665  11.395  25.690 -0.0556 -0.1162  0.1351
58408W        W 1461   8.961  18.111   0.621  0.0432  0.1653 -0.1920
58409W        W 1462  20.839   7.817  26.911 -0.1878  0.0646 -0.3155
58410W        W 1463  32.553   4.230   8.583 -0.4416 -0.2038 -0.2006
58411W        W 1464  13.528   2.516   4.639  0.1261  0.2091  0.0924
58412W        W 1465  18.727   0.107  26.133  0.2279  0.3299 -0.1812
58413W        W 1466   3.690  16.315   8.909  0.0129  0.0631 -0.1081
58414W        W 1467  27.638  24.121   6.354  0.1321  0.2911  0.0934
58415W        W 1468   1.323  17.201  24.506 -0.0187  0.3198  0.0276
58416W        W 1469   3.077  14.501   3.865  0.0754 -0.1660  0.1974
58417W        W 1470  16.722  15.929   5.079 -0.1067 -0.0690  0.1064
58418W        W 1471  14.762  12.462   0.615 -0.0273  0.0841 -0.0216
58419W        W 1472  25.331  27.198   0.444 -0.0758 -0.2124 -0.4349
58420W        W 1473  13.818  33.766  28.560  0.0711 -0.1645  0.0293
58421W        W 1474  30.538  14.688   8.534  0.0594 -0.0126  0.1279
58422W        W 1475  29.797  17.200  10.406 -0.0378  0.1168 -0.1298
58423W        W 1476   3.796  11.940   4.379 -0.0938  0.0045 -0.1302
58424W        W 1477  15.945  20.172   7.771  0.2097 -0.1668 -0.0718
58425W        W 1478   0.427  14.376   2.592  0.2631  0.1906  0.1234
58426W        W 1479   5.319  15.514   4.671 -0.1567  0.1534 -0.1787
58427W        W 1480   7.807  10.021   8.394  0.0668 -0.0258 -0.0206
58428W        W 1481   8.347   0.533  10.817  0.0086 -0.1324 -0.1327
58429W        W 1482  29.133  10.442  10.382  0.3314  0.0255  0.2684
58430W        W 1483   4.648   6.019   8.244 -0.3347  0.0718 -0.0103
58431W        W 1484  29.325   9.760   8.282  0.2565 -0.1951 -0.2144
58432W        W 1485   3.166  33.071   0.396 -0.1574 -0.0721  0.3366
58433W        W 1486  14.030   7.408   2.225  0.1987 -0.2416  0.0901
58434W        W 1487   2.339  32.451  23.542  0.0275  0.1741 -0.1399
58435W        W 1488  29.698   7.509   3.524  0.1367  0.4262 -0.0546
58436W        W 1489  17.687  13.023   2.857 -0.0736 -0.2874  0.1301
58437W        W 1490  17.099   9.352   6.737  0.1643 -0.0919 -0.2228
58438W        W 1491  14.606   5.596   6.583 -0.0503 -0.1269 -0.2791
58439W        W 1492  14.372  28.293  22.331  0.2309  0.0481 -0.0149
58440W        W 1493  34.400  18.954   3.234 -0.0590 -0.0075 -0.2274
58441W        W 1494   2.319  33.025  21.553 -0.0267  0.1893 -0.2356
58442W        W 1495   8.775   3.162  10.691  0.2679  0.1453 -0.0467
58443W        W 1496  31.047  20.533  23.175 -0.0783  0.3741 -0.1911
58444W        W 1497   3.853   0.271   1.143 -0.0540  0.1407 -0.0986
58445W        W 1498   9.412  15.912   1.475  0.3255  0.0285 -0.2039
58446W        W 1499   7.327  20.600   5.525  0.0355 -0.0388  0.2089
58447W        W 1500   4.860  21.863  16.731  0.1424  0.1601 -0.1646
58448W        W 1501   0.623  28.762   5.809 -0.1457  0.1013  0.1675
58449W        W 1502  15.360   9.036   8.843 -0.0697  0.0487 -0.2944
58450W        W 1503  32.632  21.480   8.851  0.5161  0.0353  0.0409
58451W        W 1504  22.057  32.407   4.954  0.0113 -0.0713  0.1170
58452W        W 1505   0.342   4.774   3.177 -0.0148 -0.0657 -0.1040
58453W        W 1506  23.516  29.240  27.642 -0.1564  0.0751 -0.2023
58454W        W 1507   2.412  32.465   9.041  0.0549 -0.3270  0.0376
58455W        W 1508  24.213  29.981  23.630  0.1219 -0.0399 -0.2106
58456W        W 1509   3.307   1.780   5.635 -0.1652  0.2477  0.1456
58457W        W 1510  28.986   4.767   4.800  0.2578  0.1535  0.1353
58458W        W 1511  32.104   2.261   5.370  0.1965  0.3224 -0.0118
58459W        W 1512  25.751  16.080   6.867  0.0054  0.0300  0.1130
58460W        W 1513  32.994   6.008   6.451  0.1929  0.0517  0.5778
58461W        W 1514   9.288   8.409   7.761  0.0333 -0.3807  0.0481
58462W        W 1515   2.424   0.109   7.102 -0.2514  0.2293  0.0203
58463W        W 1516   6.618  30.561   3.071 -0.0838 -0.0729  0.0717
58464W        W 1517  27.088   9.945  18.270  0.1143  0.2196 -0.3854
58465W        W 1518  10.642  12.690   8.140 -0.0302  0.0816  0.1084
58466W        W 1519  11.448  27.312   5.335  0.1362 -0.0167 -0.0269
58467W        W 1520  23.215   3.218   4.078 -0.1720 -0.3320 -0.0043
58468W        W 1521   6.690   2.350  25.288  0.0379  0.0399 -0.1658
58469W        W 1522   5.837   7.559   8.952 -0.0948  0.0269 -0.1117
58470W        W 1523   7.954  22.804  29.194  0.0855 -0.0424 -0.0071
58471W        W 1524  27.979  18.861   6.376 -0.0603  0.1235  0.0126
58472W        W 1525  26.255  20.280   6.393 -0.0917 -0.1155 -0.0813
58473W        W 1526  29.271   9.043   7.497  0.1409  0.0839 -0.0085
58474W        W 1527   1.155  16.172  25.468  0.0197  0.0178 -0.2786
58475W        W 1528   4.898  10.335   5.286 -0.5557 -0.0841 -0.1482
58476W        W 1529   3.380  12.263   8.718 -0.2510  0.1151  0.0092
58477W        W 1530   6.745  14.834   6.995  0.1754 -0.1796  0.1238
58478W        W 1531  34.236  12.101   2.231  0.1003  0.1824  0.0716
58479W        W 1532  23.517  14.910   8.350 -0.0336  0.0304  0.1476
58480W        W 1533  30.043   0.342  29.123 -0.2463  0.0186 -0.1686
58481W        W 1534  12.008  16.965   7.243  0.2395  0.0117 -0.0312
58482W        W 1535   0.060   6.378   3.122  0.1402 -0.1972 -0.1754
58483W        W 1536  16.598  19.449   6.717  0.1200  0.0108 -0.1621
58484W        W 1537   7.265  33.339   4.508  0.2767 -0.1014  0.0099
58485W        W 1538  12.068  31.831   8.447 -0.3914  0.0427  0.4876
58486W        W 1539   0.729  24.921   7.236  0.1089  0.1724  0.2144
58487W        W 1540  28.005  13.230   6.500  0.2540  0.1029 -0.1260
58488W        W 1541  34.486  23.479   2.517  0.4740  0.1570  0.0838
58489W        W 1542  10.151  33.363  25.824  0.1357  0.0453 -0.2157
58490W        W 1543  33.152   8.209   1.817  0.1363  0.4275  0.0200
58491W        W 1544   7.047  28.615   0.806  0.0269 -0.0090  0.2345
58492W        W 1545   2.447  20.300   3.511  0.1357  0.0310 -0.1682
58493W        W 1546   8.018  17.966  27.567  0.1424  0.0302 -0.1149
58494W        W 1547  34.415  32.575   3.553  0.0360  0.1910 -0.0875
58495W        W 1548  15.721  13.925  27.238 -0.0551  0.0185  0.2293
58496W        W 1549  31.739   9.134   4.263 -0.3843  0.1343  0.0748
58497W        W 1550  25.891   7.931   3.845 -0.1915 -0.4353  0.1469
58498W        W 1551   1.726  15.969   6.009  0.1558 -0.2472 -0.0013
58499W        W 1552  32.983  20.353  16.662 -0.0560 -0.1639 -0.1398
58500W        W 1553   7.724  11.207   4.572 -0.1657 -0.2599  0.2009
58501W        W 1554   4.248  33.712   9.195  0.3023 -0.6561 -0.1601
58502W        W 1555   6.460  34.005   9.568 -0.3999 -0.0966  0.1048
58503W        W 1556  25.998   6.310   7.749  0.0200 -0.0164 -0.2094
58504W        W 1557   7.647   4.075  26.806 -0.0968  0.1464 -0.2707
58505W        W 1558  23.497  10.320   9.861 -0.0879  0.0452  0.1046
58506W        W 1559   1.410   9.563  25.848  0.1941 -0.1055  0.0151
58507W        W 1560  16.452   6.753   8.209  0.1920  0.1513  0.2230
58508W        W 1561   1.261  21.694   7.220  0.0116 -0.1534 -0.1585
58509W        W 1562  10.879  11.038  10.287  0.1598 -0.2840 -0.2101
58510W        W 1563   5.590  20.852  19.174 -0.0355 -0.0298 -0.0485
58511W        W 1564  21.433   3.931   4.801  0.1662  0.0439  0.1402
58512W        W 1565  25.578  14.469  28.220  0.0835 -0.1375 -0.1588
58513W        W 1566  33.783  33.196   5.889 -0.0209 -0.1931  0.1587
58514W        W 1567  32.005  10.103   9.598  0.3275  0.0233 -0.0658
58515W        W 1568  18.200   6.678   9.365 -0.1693 -0.6676 -0.0504
58516W        W 1569  34.396   0.188   7.323  0.2225  0.1595  0.2391
58517W        W 1570  14.259  30.458  21.545  0.1288  0.0934  0.2314
58518W        W 1571  23.312   9.932  15.453  0.2499 -0.0364  0.2065
58519W        W 1572   6.649   8.125   5.865  0.0938  0.2129  0.1843
58520W        W 1573  10.987   3.925  10.559 -0.2911 -0.1247 -0.1688
58521W        W 1574  14.466  32.055   7.148  0.0200 -0.1593 -0.1087
58522W        W 1575   4.852  21.326  23.017 -0.2228 -0.0239 -0.1889
58523W        W 1576  18.485   8.270  26.274  0.1437 -0.2935  0.2965
58524W        W 1577   9.172   5.873  23.360 -0.1311  0.3239 -0.4077
58525W        W 1578  34.197   5.745   8.388 -0.1330  0.0601 -0.1819
58526W        W 1579   3.887  17.721   7.360  0.0069  0.0248 -0.0786
58527W        W 1580   2.099  27.018  21.959 -0.0401 -0.2124 -0.1348
58528W        W 1581  31.409  16.308   9.313 -0.1675  0.0133 -0.3124
58529W        W 1582  27.139  18.830  17.767  0.2673  0.1425 -0.0165
58530W        W 1583  28.222   8.999   7.342  0.1494  0.0335 -0.0377
58531W        W 1584  13.502   4.035   9.186 -0.5120 -0.2353 -0.1434
58532W        W 1585   3.033   7.079  10.170  0.0275 -0.0253  0.1206
58533W        W 1586   8.566  20.698   8.233  0.1921 -0.2788  0.0179
58534W        W 1587  23.222  33.956   8.430 -0.0548  0.1449 -0.0698
58535W        W 1588   5.958   8.134   9.855 -0.0686 -0.2552  0.0553
58536W        W 1589  23.963   3.170   4.640  0.2559 -0.0700  0.3830
58537W        W 1590  14.680  24.372   8.435 -0.0243 -0.0008 -0.1990
58538W        W 1591  24.863  28.116  21.846 -0.0156  0.4016 -0.0925
58539W        W 1592  11.878  32.790  28.003 -0.1663  0.0082  0.1695
58540W        W 1593   6.031   6.864   7.808 -0.0943 -0.1157  0.2500
58541W        W 1594   1.136  18.288   6.941 -0.1170  0.1144  0.2971
58542W        W 1595  18.562  17.934  23.695 -0.1975  0.0676  0.2166
58543W        W 1596  22.522  13.847   3.393 -0.3222 -0.4225 -0.2887
58544W        W 1597   4.055   7.017   2.253  0.1755 -0.0085  0.2765
58545W        W 1598   9.637  13.007  10.797 -0.0798  0.0383 -0.2644
58546W        W 1599   9.308   6.538   5.390 -0.0700 -0.2181 -0.0426
58547W        W 1600  29.980  10.076   2.771 -0.0692  0.0591 -0.0551
58548W        W 1601  23.608   4.768  26.503  0.0266 -0.1832  0.0622
58549W        W 1602  11.172   8.629   7.331  0.1567  0.3230  0.3853
58550W        W 1603  32.010  13.401   3.654  0.2840  0.1725  0.0626
58551W        W 1604   4.041  12.732  15.325 -0.2409  0.0670  0.0670
58552W        W 1605  30.749  31.415  22.640 -0.1806 -0.0270 -0.0690
58553W        W 1606  32.628   1.402   3.740 -0.0029  0.2750 -0.0945
58554W        W 1607  30.967  22.534  13.802  0.1894  0.2340  0.1044
58555W        W 1608  15.680   4.353   9.489 -0.2054 -0.2794  0.0969
58556W        W 1609  33.018  10.412  10.490  0.0316 -0.1372 -0.0248
58557W        W 1610  29.423  10.227   2.854  0.2119  0.1156 -0.1294
58558W        W 1611  32.517   4.200   5.015 -0.0161 -0.1238 -0.1162
58559W        W 1612  22.892   7.646   6.650 -0.2201 -0.1677 -0.0092
58560W        W 1613  12.000   5.420   6.523 -0.0598  0.0855 -0.0531
58561W        W 1614  28.410  20.841  28.854 -0.1674 -0.0818 -0.1746
58562W        W 1615  10.493   1.810   8.456  0.1161  0.0544  0.0024
58563W        W 1616   3.707   7.268  25.357  0.0561 -0.1006  0.1518
58564W        W 1617   7.788   7.919   3.959  0.0268  0.0367 -0.3277
58565W        W 1618  30.384  23.444   6.772  0.1131 -0.0939  0.0900
58566W        W 1619  10.206  22.943   4.404 -0.0465 -0.0488  0.0494
58567W        W 1620   1.280  16.752  26.668  0.0477 -0.2112 -0.2644
58568W        W 1621  32.548   9.350  26.922  0.1107 -0.1643 -0.3184
58569W        W 1622  24.766  11.026   6.115  0.1378  0.1061  0.1352
58570W        W 1623  17.155  12.361   9.436  0.1758 -0.1287 -0.1187
58571W        W 1624   5.064  28.523   1.351  0.1064  0.0946  0.3305
58572W        W 1625   5.101   3.343  18.899  0.0813 -0.1271 -0.0442
58573W        W 1626   3.328   5.190   5.378 -0.2808 -0.2122 -0.0109
58574W        W 1627  14.367   7.816   2.287 -0.0738 -0.0397  0.2882
58575W        W 1628  28.322  24.826   6.334  0.4040  0.0561  0.0778
58576W        W 1629   4.614   0.947   0.621 -0.1358 -0.1116  0.2757
58577W        W 1630  14.683  14.900  27.301  0.1626 -0.0374  0.2877
58578W        W 1631  33.899  21.674   2.211 -0.1409  0.0418  0.0130
58579W        W 1632  24.494   0.803   0.997  0.1267 -0.1544 -0.0321
58580W        W 1633  29.693  30.987  29.009  0.1708 -0.3262 -0.1281
58581W        W 1634  12.014   3.704   3.227  0.3471  0.2347 -0.1109
58582W        W 1635  22.963  21.352   6.750  0.0745 -0.1184 -0.0750
58583W        W 1636  34.421  19.578  16.520  0.2175 -0.2114 -0.0994
58584W        W 1637  20.715   8.475  16.085  0.0589 -0.4050  0.1278
58585W        W 1638   1.853   0.654   2.086 -0.2414 -0.0368 -0.0077
58586W        W 1639  20.565   5.602   5.011  0.2425  0.0266 -0.0081
58587W        W 1640   8.024  34.645  26.727 -0.1720 -0.1147  0.0931
58588W        W 1641   7.205  28.783   7.288  0.2812  0.0990  0.0473
58589W        W 1642   0.989   5.877  24.952  0.2408  0.2142  0.3433
58590W        W 1643  32.704  17.775  22.063  0.1740  0.0465 -0.2897
58591W        W 1644  31.854  29.513   5.736  0.1834 -0.2080 -0.0324
58592W        W 1645  21.694   9.262   2.693  0.3485 -0.2647  0.0045
58593W        W 1646   4.649   7.482   9.392  0.0862 -0.0918  0.2256
58594W        W 1647  19.766   0.270   9.880  0.1141 -0.1999  0.1837
58595W        W 1648  30.423  18.549  28.797  0.2364 -0.5660  0.1829
58596W        W 1649   5.298  12.819   3.838  0.2077 -0.1609  0.2327
58597W        W 1650  22.894   7.535   9.058  0.0137  0.3892 -0.0748
58598W        W 1651   3.307   0.114   9.162  0.1940 -0.2437  0.0171
58599W        W 1652  30.802  30.752   5.711 -0.0800 -0.0542 -0.3928
58600W        W 1653  24.691  33.540   5.722  0.4226 -0.0291  0.1747
58601W        W 1654  28.336  28.380   5.384 -0.2612 -0.3717  0.0058
58602W        W 1655  17.042   5.919  26.112 -0.1567 -0.0474  0.0732
58603W        W 1656  29.888  15.438  27.867 -0.0004  0.0907  0.1541
58604W        W 1657  34.304   2.459   6.119  0.0874 -0.0744  0.3579
58605W        W 1658  30.596  11.559   7.374 -0.4481 -0.1232 -0.0494
58606W        W 1659  26.045  12.844   2.397  0.0075  0.0964 -0.1121
58607W        W 1660   9.465  14.898   9.245  0.1183  0.0635  0.1077
58608W        W 1661  29.824   4.608  28.764 -0.2085  0.0841  0.1389
58609W        W 1662  14.112  11.337  26.882 -0.3086  0.0012 -0.1237
58610W        W 1663  29.957  16.303  21.909 -0.1534 -0.0779  0.0437
58611W        W 1664  28.179  14.423  26.121  0.0913 -0.0487  0.1934
58612W        W 1665  11.033   6.774  21.345  0.0839 -0.0379  0.2264
58613W        W 1666  19.268   4.375   6.194  0.0888 -0.0751  0.0019
58614W        W 1667   0.673   0.738   2.619 -0.2309 -0.2962 -0.3958
58615W        W 1668  14.708   1.703   3.533  0.1585  0.2251  0.0526
58616W        W 1669  31.593   5.373   1.226 -0.3079 -0.1702 -0.2756
58617W        W 1670  33.780  14.148   5.008 -0.1570  0.1627  0.1334
58618W        W 1671   9.381  32.575   4.423  0.0452  0.1697  0.0448
58619W        W 1672   3.031  12.966  20.215  0.0190  0.3151  0.3235
58620W        W 1673   8.572   8.379  22.550 -0.2926  0.0834 -0.2029
58621W        W 1674   0.206  11.670   5.190 -0.1319  0.0877  0.0287
58622W        W 1675   6.380  25.876   3.758  0.1280  0.1080 -0.3222
58623W        W 1676   1.736   9.228   6.047 -0.3704  0.4082  0.0773
58624W        W 1677  25.747  20.559   9.012  0.1250 -0.0819 -0.2992
58625W        W 1678  31.621  12.565   4.995 -0.3309  0.1925 -0.0651
58626W        W 1679  25.261  19.580   8.085  0.0440 -0.2510  0.2789
58627W        W 1680  12.736   7.962  25.230  0.2924  0.0132  0.0705
58628W        W 1681   1.950  12.051   1.451 -0.0203 -0.0521 -0.0211
58629W        W 1682   8.152   1.397   0.886  0.2636 -0.0740  0.2802
58630W        W 1683  31.972  29.065   5.674 -0.0018 -0.4750 -0.1399
58631W        W 1684  32.585  20.394  25.009  0.3966 -0.3194 -0.2523
58632W        W 1685  11.381   4.272   7.904 -0.2350 -0.2206  0.3112
58633W        W 1686  32.993  15.201   4.910  0.1218  0.0818 -0.0502
58634W        W 1687   1.014   9.928  28.236  0.0130  0.2921 -0.0796
58635W        W 1688  15.197  30.310   2.713  0.1233 -0.2544  0.0557
58636W        W 1689  27.256   8.192  29.078  0.3194 -0.3080 -0.1242
58637W        W 1690  30.104  11.480   7.400 -0.1063 -0.2079  0.0639
58638W        W 1691  23.073  17.341   5.967 -0.0323  0.2945 -0.1354
58639W        W 1692  21.178  10.871   3.072 -0.3097  0.0260  0.1376
58640W        W 1693  27.774   2.172  24.928 -0.1701  0.0792 -0.0806
58641W        W 1694  22.222  13.379   1.469 -0.0376 -0.1614  0.0273
58642W        W 1695  18.894   4.377   5.008  0.3903 -0.1264  0.2879
58643W        W 1696  11.047  17.117   5.632  0.0342  0.1412 -0.1737
58644W        W 1697  31.381  33.886   3.779 -0.0427  0.1328 -0.2072
58645W        W 1698   7.179  34.525   5.086  0.2651  0.0180 -0.1815
58646W        W 1699  25.911  19.442   3.232 -0.0069 -0.0216 -0.0715
58647W        W 1700  33.722  15.392  23.954  0.0779 -0.2266  0.0121
58648W        W 1701  12.804  31.337   5.421 -0.1932 -0.2468 -0.2642
58649W        W 1702   5.500   0.059  21.885  0.1223  0.0917  0.1707
58650W        W 1703   0.085  33.895  24.623 -0.1415  0.0153 -0.1015
58651W        W 1704  12.454   2.444   2.274 -0.0979 -0.1393 -0.0582
58652W        W 1705   2.210   6.127   1.075  0.1137 -0.0717  0.0886
58653W        W 1706   9.488   4.415   5.241  0.2796  0.1958  0.2114
58654W        W 1707   6.370  22.985   4.987  0.0571 -0.3140  0.0592
58655W        W 1708   3.619  24.203   8.957 -0.0621  0.3604 -0.0600
58656W        W 1709   8.141  27.848   9.232  0.1242 -0.1397  0.4535
58657W        W 1710  22.112  15.980   9.028 -0.1143 -0.3578 -0.1564
58658W        W 1711   0.499  15.748   4.998 -0.2492 -0.1777 -0.1042
58659W        W 1712  17.684  28.771   8.459 -0.2914 -0.1609 -0.0783
58660W        W 1713   1.826   4.024   4.542  0.1878  0.0944 -0.1309
58661W        W 1714  11.489   6.190   5.606  0.1840  0.0042 -0.2174
58662W        W 1715  13.179  31.604  27.163  0.0168 -0.2469  0.1582
58663W        W 1716  34.189  16.193   9.150 -0.1569  0.0616  0.0598
58664W        W 1717  32.683  32.633   9.356 -0.0111  0.0618 -0.1356
58665W        W 1718  22.843  12.130   4.618 -0.3222 -0.0288  0.0089
58666W        W 1719  11.026   7.293   1.406  0.0578  0.1474 -0.0509
58667W        W 1720  34.015  27.687  19.509  0.3568  0.1471 -0.0753
58668W        W 1721   2.749  11.364   5.134 -0.1030 -0.1786  0.0102
58669W        W 1722  14.940  23.630   2.863  0.0977 -0.1377 -0.1619
58670W        W 1723  33.508  12.671  29.076  0.0144  0.1606 -0.1040
58671W        W 1724  22.980  33.961   9.295  0.0039  0.2858  0.2866
58672W        W 1725   7.536   3.750   2.362  0.1519  0.1434  0.0230
58673W        W 1726  34.134   6.753   8.251  0.0959 -0.1043 -0.1468
58674W        W 1727   3.563   1.745   4.821 -0.1219 -0.0019 -0.0395
58675W        W 1728   2.396   6.007   5.495 -0.3122  0.2415  0.2101
58676W        W 1729  33.298   4.331   6.833  0.3183 -0.3818  0.3789
58677W        W 1730  12.796   6.402   3.359  0.4810 -0.0728  0.3151
58678W        W 1731  29.208  14.570  21.663  0.1462  0.1320 -0.1439
58679W        W 1732  18.878  28.003   5.501 -0.2529  0.1986 -0.3332
58680W        W 1733  11.877  18.360   5.913  0.0754 -0.2011 -0.2037
58681W        W 1734  18.084   3.197  27.936  0.2568  0.0852 -0.3177
58682W        W 1735  18.571   2.890   8.617  0.2736 -0.2966  0.0634
58683W        W 1736   5.176  21.482   7.703 -0.3327 -0.1803  0.0468
58684W        W 1737  29.559   4.085   9.958  0.0017 -0.1262 -0.1325
58685W        W 1738   7.446   9.811  10.060  0.1315  0.1028 -0.0131
58686W        W 1739  17.343  26.989   1.611  0.1560 -0.0964 -0.1683
58687W        W 1740   6.306  17.581  10.172  0.3505 -0.1099  0.1488
58688W        W 1741  14.342  33.105  22.239 -0.1130 -0.3202  0.2630
58689W        W 1742   3.888  12.932   6.195 -0.0748 -0.0101 -0.1688
58690W        W 1743   4.797  21.536   2.400 -0.2814 -0.0238 -0.0535
58691W        W 1744   0.848  18.711   7.408 -0.0935 -0.1425  0.1201
58692W        W 1745  18.538   2.951  27.191  0.1789 -0.1638  0.0904
58693W        W 1746  21.747  12.943   8.633 -0.0018  0.4233  0.0918
58694W        W 1747  28.361  32.358   9.576 -0.0868  0.2877 -0.0362
58695W        W 1748   7.970   9.404  10.428  0.0380  0.0382  0.0271
58696W        W 1749  14.860  15.914   1.843 -0.3873  0.0242  0.1088
58697W        W 1750   7.681  28.150   6.012  0.0171 -0.1065 -0.1456
58698W        W 1751   4.254   0.126   5.323 -0.1053 -0.0099 -0.1169
58699W        W 1752   9.030  21.271   7.927  0.2196  0.2020 -0.1564
58700W        W 1753  14.124   9.072   4.780 -0.0279 -0.0006 -0.0800
58701W        W 1754  29.781  11.066  10.811  0.2226 -0.1222  0.1309
58702W        W 1755  28.383  16.003  24.220 -0.1830 -0.0869  0.1111
58703W        W 1756   6.250  25.683   0.330 -0.1135  0.0590  0.1297
58704W        W 1757  14.460   2.641  18.479  0.0343  0.2020  0.2237
58705W        W 1758  31.768   7.914   5.125  0.0052 -0.2519  0.0453
58706W        W 1759   9.361  12.336   5.469 -0.1850 -0.2590 -0.0008
58707W        W 1760  15.131   9.370   7.984 -0.3643  0.3013 -0.0711
58708W        W 1761  34.094   5.486  21.684 -0.0831  0.0647  0.1511
58709W        W 1762  25.395   3.034  28.753 -0.0695 -0.1435 -0.2008
58710W        W 1763   5.791  11.003  25.869  0.0854 -0.2748 -0.1319
58711W        W 1764  13.252  33.031   8.868  0.4184  0.0333 -0.0297
58712W        W 1765  18.504   3.146   9.055  0.0900 -0.0314  0.2245
58713W        W 1766   9.790   3.067   4.226  0.3339  0.3725  0.1318
58714W        W 1767  18.489  13.939  21.502  0.0090 -0.1696 -0.2231
58715W        W 1768  24.007  17.029   9.136 -0.2342 -0.4412  0.2097
58716W        W 1769  11.598   0.082   7.715  0.1282 -0.5237 -0.2107
58717W        W 1770  28.810  22.554  26.256  0.0860 -0.1059 -0.0076
58718W        W 1771   8.572  24.405   2.792 -0.2374 -0.1263 -0.0412
58719W        W 1772  34.013   8.249   3.549 -0.0825 -0.1107 -0.0143
58720W        W 1773  32.061  10.958   9.693 -0.1308  0.0678  0.0085
58721W        W 1774   5.677  30.556   6.334  0.0903 -0.0054  0.0334
58722W        W 1775  20.262  23.915  22.659  0.1848 -0.0105  0.0314
58723W        W 1776   4.321  12.367  10.191 -0.1936  0.0190 -0.0856
58724W        W 1777  11.364   9.189  10.735  0.2481 -0.0357 -0.2051
58725W        W 1778  11.834  15.290  28.612 -0.3484  0.0197 -0.2619
58726W        W 1779  24.005   9.263  17.718 -0.1107  0.1197 -0.0967
58727W        W 1780   9.375  15.923   0.883  0.0299  0.0128  0.0292
58728W        W 1781   9.705   5.027  28.235 -0.0160  0.2288  0.2109
58729W        W 1782  22.734  22.527   6.997 -0.0074  0.1637  0.0212
58730W        W 1783  18.544   9.496  28.346 -0.0376  0.0743  0.1659
58731W        W 1784  19.393   4.956   7.687 -0.0545 -0.2692 -0.3141
58732W        W 1785  24.550   1.345  16.378  0.0746  0.3886  0.1446
58733W        W 1786  15.838  25.355  28.106  0.1991  0.1312  0.2876
58734W        W 1787  30.526   7.338  28.831 -0.1932 -0.1396 -0.1914
58735W        W 1788   2.136  20.283  26.771 -0.0593  0.2405 -0.2199
58736W        W 1789   5.181   2.528  10.158 -0.4174 -0.2754 -0.0098
58737W        W 1790  33.706  17.017  22.836  0.2671  0.0657  0.2622
58738W        W 1791  24.569  10.621   8.621  0.0144 -0.0834  0.1994
58739W        W 1792  18.375  32.343   7.204  0.0669 -0.4739  0.0619
58740W        W 1793   3.488   4.032   6.785 -0.0073 -0.0885  0.0553
58741W        W 1794  34.632  13.080   6.486 -0.2640  0.3784  0.2584
58742W        W 1795  28.399  19.429   2.605 -0.1063 -0.1166 -0.4835
58743W        W 1796  27.196   5.074   5.174 -0.0504  0.0217 -0.0399
58744W        W 1797  23.791   0.621   7.511 -0.0623 -0.2379 -0.1209
58745W        W 1798  31.393  33.966   2.088 -0.1286 -0.0203  0.0120
58746W        W 1799   0.891  17.579   3.104  0.0130 -0.4785 -0.0564
58747W        W 1800   4.521  27.093   3.045  0.1430 -0.0052  0.3334
58748W        W 1801   7.740   2.832   1.786  0.1225 -0.2661 -0.2143
58749W        W 1802  28.179   6.538   9.596  0.0443 -0.0759  0.1154
58750W        W 1803  10.332  21.485   4.078 -0.3232 -0.2077  0.0490
58751W        W 1804  10.637  32.901   6.269  0.0500  0.2550  0.0203
58752W        W 1805   1.749  31.449  28.719  0.1209 -0.1385  0.0139
58753W        W 1806   3.207   0.616  24.251  0.0603  0.2578  0.0785
58754W        W 1807  24.356  28.572   3.167 -0.1691 -0.3339 -0.3454
58755W        W 1808  11.305   3.476   1.597  0.0327 -0.1810 -0.2364
58756W        W 1809   8.523   9.901   9.020  0.2087 -0.3528 -0.2782
58757W        W 1810   9.150  27.021  19.279  0.1589  0.1378 -0.2539
58758W        W 1811  32.477  12.535  27.453 -0.0786  0.1325 -0.0455
58759W        W 1812  23.812  25.565   0.826 -0.1753  0.0848  0.4167
58760W        W 1813   4.764   6.189  10.002 -0.0028  0.4703 -0.0089
58761W        W 1814  18.478  34.262   2.994 -0.1788 -0.0118  0.0217
58762W        W 1815   1.496   0.764   8.514  0.1847  0.1376  0.1634
58763W        W 1816  11.648  14.412   7.147  0.1952 -0.1363  0.3043
58764W        W 1817  13.003   1.891   9.304 -0.2103 -0.2846 -0.2650
58765W        W 1818  16.944  32.385  21.200  0.0473  0.0707 -0.0195
58766W        W 1819  31.471  30.411  22.297  0.0604  0.0191 -0.1458
58767W        W 1820   2.196   8.918  22.123 -0.0115 -0.0348 -0.2485
58768W        W 1821  25.688  33.617   7.314 -0.3013  0.1455  0.0097
58769W        W 1822  10.595  30.540   6.527  0.0054  0.0240 -0.0200
58770W        W 1823  15.078  15.171   5.748 -0.2731 -0.0400 -0.1066
58771W        W 1824   0.566   1.870  25.299  0.4250  0.0719 -0.3660
58772W        W 1825  12.857   4.613   6.145 -0.0448 -0.1362  0.0416
58773W        W 1826  30.759   6.939  26.487 -0.1315  0.0659  0.0124
58774W        W 1827  29.355  16.946   3.492  0.1251  0.0698 -0.2860
58775W        W 1828  21.953   7.672   7.574  0.1501  0.0401 -0.0181
58776W        W 1829   0.485  21.544   4.656  0.0922 -0.1745 -0.1577
58777W        W 1830   6.009  19.752   8.929 -0.3198  0.0439  0.1667
58778W        W 1831  18.452  32.872   0.821  0.2866 -0.1859  0.1096
58779W        W 1832   1.941  10.975  26.750 -0.0086  0.0714  0.0953
58780W        W 1833  32.579   5.834  14.686 -0.0628  0.1756  0.0106
58781W        W 1834   6.924   4.667   9.500  0.1146 -0.1728 -0.3155
58782W        W 1835   7.788  31.072  15.939  0.1908  0.0821  0.1004
58783W        W 1836  30.612  17.191  19.082 -0.1377 -0.2144  0.0622
58784W        W 1837  16.178  20.600   7.298 -0.5175 -0.1378  0.0234
58785W        W 1838  16.878  23.704   0.433 -0.2871 -0.2997  0.3476
58786W        W 1839  34.656  15.616   5.861 -0.0801 -0.1144  0.1147
58787W        W 1840   5.723  25.652   4.791  0.0806 -0.1930 -0.0289
58788W        W 1841  22.534  10.685  17.398  0.1978 -0.1131 -0.2614
58789W        W 1842  30.108  10.414  10.059  0.1729  0.0300 -0.0057
58790W        W 1843  27.982  18.150   6.288  0.1891  0.1290 -0.2371
58791W        W 1844  31.753  22.695   4.123 -0.3384 -0.2071 -0.0017
58792W        W 1845  25.862  18.141   2.094 -0.0678  0.0367  0.0473
58793W        W 1846  14.129   2.811   9.569  0.2645 -0.1417  0.0404
58794W        W 1847  33.565  12.164  17.796 -0.0982  0.0205  0.2272
58795W        W 1848  20.059   4.359   8.389 -0.1763 -0.2825 -0.0247
58796W        W 1849  33.392  10.658   8.631 -0.0338  0.1864  0.4222
58797W        W 1850   3.516  18.210   4.740 -0.2303 -0.1509  0.2053
58798W        W 1851  15.164  24.129  16.626 -0.4136 -0.2242 -0.2091
58799W        W 1852  18.944  14.758  26.751  0.0159  0.2284  0.0398
58800W        W 1853  23.003  13.215   7.205 -0.0952  0.1019 -0.1831
58801W        W 1854   7.513  26.388  21.880 -0.1749 -0.0031 -0.0905
58802W        W 1855  17.078  21.327   9.872 -0.0124 -0.0314 -0.3409
58803W        W 1856  26.832  19.125  27.960  0.0824  0.0128 -0.0227
58804W        W 1857   8.912  23.529  24.067 -0.3958  0.2479 -0.0185
58805W        W 1858   3.765  23.098   7.035  0.0116 -0.1375 -0.1191
58806W        W 1859  33.272   6.142   3.323 -0.0154  0.0905  0.0274
58807W        W 1860  26.418  18.326   5.895  0.0740 -0.1714 -0.0672
58808W        W 1861  27.717   9.580   6.777 -0.1148 -0.0565 -0.3297
58809W        W 1862  28.048   9.368   8.578  0.0017 -0.0740  0.2349
58810W        W 1863   4.007  23.232   3.890  0.0201  0.1951 -0.1298
58811W        W 1864  25.341  11.078  22.742  0.4517 -0.1408 -0.0345
58812W        W 1865   9.737  18.404  25.592 -0.1365  0.1454 -0.2913
58813W        W 1866  16.524  23.905  23.721 -0.0144  0.0725  0.1805
58814W        W 1867   4.166  13.975   1.356 -0.1792  0.1177 -0.0601
58815W        W 1868   2.823  19.855   0.435 -0.1453  0.0615 -0.0619
58816W        W 1869  16.116   2.561   1.295  0.1643 -0.3777  0.3153
58817W        W 1870  14.615   6.770   2.657  0.1718  0.1520 -0.0543
58818W        W 1871   9.948  12.946  17.864 -0.0709  0.0959  0.1658
58819W        W 1872   6.477  17.547   3.177 -0.0397 -0.2235  0.1911
58820W        W 1873  27.466  15.416  26.057  0.0264 -0.2360  0.3737
58821W        W 1874   8.870   4.084  18.874  0.2737  0.2699 -0.1640
58822W        W 1875   3.695  33.323   5.784  0.2663 -0.0793 -0.1439
58823W        W 1876  13.038  10.730   4.393 -0.0512 -0.1159  0.1507
58824W        W 1877   1.265  12.425   2.203  0.0585 -0.0193 -0.2539
58825W        W 1878  24.960  31.044  28.598 -0.2169  0.1737  0.0374
58826W        W 1879  16.980  16.514   9.946 -0.1520 -0.0762  0.4142
58827W        W 1880   1.736  15.654  20.454 -0.0328  0.1668 -0.1396
58828W        W 1881  26.245  24.967   9.726 -0.1398 -0.2007  0.0496
58829W        W 1882  31.294  16.532  21.855  0.0682  0.0136  0.2448
58830W        W 1883  14.689  34.416  14.376  0.1428  0.0623  0.0787
58831W        W 1884   5.776  21.262  18.965 -0.0038 -0.1724  0.0613
58832W        W 1885  26.378   8.103  22.429  0.0101 -0.1063  0.1204
58833W        W 1886  31.782   0.341   5.345 -0.0278 -0.1259  0.1380
58834W        W 1887   3.942   6.990   7.760  0.2341  0.3791 -0.3626
58835W        W 1888  28.826   5.799  25.380 -0.0978  0.0372  0.1156
58836W        W 1889   6.996  16.368   1.088 -0.0059 -0.3179  0.5209
58837W        W 1890  11.093  10.545   6.954  0.4176  0.0964  0.0797
58838W        W 1891  13.794   5.381   9.088 -0.4363  0.0077 -0.3942
58839W        W 1892   8.061   8.996  28.608 -0.0242 -0.1451 -0.2847
58840W        W 1893  31.197  19.591   7.684 -0.2600  0.1677  0.3412
58841W        W 1894  22.183  17.545  16.890  0.0423 -0.0919 -0.0547
58842W        W 1895  29.032   1.185  26.192  0.0975  0.0324  0.1525
58843W        W 1896   0.492  32.302   5.323 -0.0492 -0.2748 -0.1503
58844W        W 1897   9.279   9.618  10.535 -0.0052  0.1138  0.2977
58845W        W 1898   3.008   5.038  28.716  0.0772 -0.0049 -0.0476
58846W        W 1899  33.911  20.691  16.561 -0.2895 -0.1751  0.0327
58847W        W 1900  32.827  18.668  19.482 -0.3491  0.0337  0.1233
58848W        W 1901   2.129  14.511   3.984  0.4102  0.1115 -0.0415
58849W        W 1902  18.815  25.027  20.038 -0.0335 -0.0949  0.1477
58850W        W 1903   6.834   9.060  19.233 -0.0456 -0.1162 -0.3977
58851W        W 1904  23.941  11.048   1.632  0.3379 -0.0675  0.0570
58852W        W 1905  17.059  23.589   5.600  0.0996  0.1991 -0.1415
58853W        W 1906  28.451  12.705  23.073  0.1792  0.3384  0.0623
58854W        W 1907  19.594  21.488   3.462  0.3521 -0.3628  0.2143
58855W        W 1908  34.301  16.139  22.275 -0.0076 -0.3319 -0.0095
58856W        W 1909  24.090   6.560   0.626 -0.2009  0.2095  0.1241
58857W        W 1910  25.153  20.597   2.098 -0.2246  0.0708 -0.1730
58858W        W 1911  26.443  10.783  16.657  0.2174 -0.1243 -0.1614
58859W        W 1912  13.099   1.602  25.880  0.2584  0.0573  0.0630
58860W        W 1913  17.448  13.512  25.858  0.3186 -0.4621 -0.1728
58861W        W 1914  20.985  20.472  26.521 -0.0874 -0.0386  0.0300
58862W        W 1915   2.059  21.969  26.105  0.1040  0.1442  0.0020
58863W        W 1916  30.486  20.487  24.414  0.2473  0.0652  0.0257
58864W        W 1917  31.779   2.575  27.362  0.0848  0.1326 -0.2293
58865W        W 1918   9.501  33.345   8.061  0.0607 -0.1012 -0.1000
58866W        W 1919   4.675   4.779  27.044  0.3364  0.2384 -0.2486
58867W        W 1920  28.718  14.812   4.794 -0.1138 -0.2327  0.3374
58868W        W 1921  29.451   0.811   7.901 -0.0687  0.0533 -0.1497
58869W        W 1922  15.766   3.869   4.482  0.1090 -0.2454 -0.0313
58870W        W 1923   4.109  13.898  20.134  0.1222 -0.0006 -0.2278
58871W        W 1924  30.662  16.173  16.985  0.0292  0.0926  0.1629
58872W        W 1925  14.264  24.419   1.747 -0.1510  0.0925  0.0832
58873W        W 1926  23.673  25.628   4.330  0.1220 -0.1183 -0.3309
58874W        W 1927  30.889  19.406  24.920 -0.0311  0.1770 -0.1850
58875W        W 1928   2.182  33.375   2.018 -0.0472 -0.4001 -0.3126
58876W        W 1929  29.222  10.563   7.836 -0.1076  0.1534 -0.2011
58877W        W 1930   3.211  21.398   2.139  0.2437  0.0099  0.0508
58878W        W 1931  31.962  32.864  18.458  0.1615  0.1194  0.1463
58879W        W 1932  13.236  14.686   3.501 -0.2482  0.3146 -0.2404
58880W        W 1933  32.137  13.935   1.421 -0.0560 -0.1055 -0.1255
58881W        W 1934  29.579   8.469   0.218 -0.0255  0.4270  0.1977
58882W        W 1935  28.400  11.995  21.603  0.2584 -0.1818  0.0696
58883W        W 1936   5.289  22.262  19.616  0.2994 -0.1057  0.1043
58884W        W 1937   7.492  18.404   7.350  0.0928  0.1546 -0.2191
58885W        W 1938  11.067  14.175  28.046  0.1584  0.1894  0.0751
58886W        W 1939  17.089  11.265   4.273  0.1180  0.2041 -0.1626
58887W        W 1940  27.931  15.748   8.257  0.2025 -0.0366 -0.0817
58888W        W 1941   0.375  18.381   0.627 -0.4295  0.0878 -0.5218
58889W        W 1942  28.543  11.035   5.902 -0.0180 -0.2016  0.1005
58890W        W 1943  10.739  16.667  16.117 -0.1995  0.1858 -0.2680
58891W        W 1944   1.187  10.853  25.223 -0.0137  0.1705  0.2515
58892W        W 1945  32.283  12.151  25.359 -0.0619 -0.1179 -0.4184
58893W        W 1946  10.210  13.471  24.115 -0.0872 -0.3509  0.1319
58894W        W 1947   4.736  19.323   2.793  0.0713 -0.2336  0.2067
58895W        W 1948  29.090  14.032   8.967  0.0960  0.2149 -0.0247
58896W        W 1949  32.599  19.695  18.645 -0.3820 -0.0474  0.3182
58897W        W 1950  20.441  13.364   2.730 -0.1444 -0.4002 -0.0452
58898W        W 1951  33.271  13.864   1.523 -0.0251 -0.2208  0.1506
58899W        W 1952  26.814  11.879   4.438  0.0168 -0.4157 -0.1334
58900W        W 1953   7.789  16.941   1.081  0.1691  0.2943  0.0682
58901W        W 1954  29.259   9.450  20.627  0.2149 -0.0720 -0.0681
58902W        W 1955  19.324  17.228  27.703  0.1886  0.0677  0.1803
58903W        W 1956   4.066  16.858  26.142 -0.2006 -0.0222 -0.1378
58904W        W 1957  25.694  33.881  10.730  0.1311  0.0583 -0.2685
58905W        W 1958  20.469  20.342   0.898  0.2103  0.0899  0.0901
58906W        W 1959  15.613  19.294   8.826  0.1571 -0.1064 -0.4659
58907W        W 1960   4.715   0.445  27.015  0.2675  0.1366 -0.2554
58908W        W 1961   9.341  10.726   6.668  0.0543  0.1526  0.0582
58909W        W 1962  30.638  20.738   3.281  0.0259 -0.0204 -0.0564
58910W        W 1963   2.778  20.621   7.438  0.1484  0.1337 -0.0760
58911W        W 1964   0.475  12.902   0.751  0.1750  0.0255 -0.0197
58912W        W 1965  29.088   6.837   7.766 -0.1539 -0.1672  0.1575
58913W        W 1966  32.623  10.854  26.589  0.0188 -0.0722  0.5810
58914W        W 1967   9.431  18.765   6.938 -0.3005 -0.2318  0.0642
58915W        W 1968   2.251   6.355   8.906 -0.0767  0.3045  0.1543
58916W        W 1969  14.427   9.297  26.326  0.1211  0.1043 -0.0854
58917W        W 1970  27.255  26.804   2.779 -0.1103  0.1334 -0.0015
58918W        W 1971   2.118   2.168  19.510 -0.0338 -0.1254  0.0092
58919W        W 1972  23.675  30.618  10.036 -0.2207 -0.0915 -0.1175
58920W        W 1973  11.241  30.184  19.214 -0.1537 -0.0752  0.0748
58921W        W 1974   6.668  28.841   5.712 -0.0791  0.2950  0.0142
58922W        W 1975   0.037  19.454   5.082 -0.0030 -0.1390 -0.1040
58923W        W 1976  32.007  21.541   8.144 -0.1213 -0.3010  0.1815
58924W        W 1977   0.605  28.808  23.746  0.0777 -0.2577  0.2554
58925W        W 1978  27.127  16.582   3.459  0.1621  0.1610  0.1560
58926W        W 1979  33.105   9.952  26.485  0.0966 -0.0827  0.1050
58927W        W 1980  10.888   5.141   1.766  0.1755 -0.1781 -0.1274
58928W        W 1981  23.263   0.598   4.625  0.1392  0.0595 -0.0693
58929W        W 1982  29.088  30.283  15.891  0.0451 -0.1019 -0.2209
58930W        W 1983  26.123  13.212  20.863 -0.3457  0.0975 -0.0747
58931W        W 1984  27.261  31.946   3.116 -0.4321  0.1205 -0.2310
58932W        W 1985  33.321  19.740  25.527 -0.0510 -0.1793  0.0465
58933W        W 1986   7.488   4.791  25.566  0.1432 -0.0383 -0.2100
58934W        W 1987  24.606  32.067  25.291  0.1757 -0.0521 -0.0247
58935W        W 1988  12.379  15.488   9.419  0.2178  0.0479  0.0296
58936W        W 1989  32.728  29.674  23.184  0.0540 -0.1639  0.1061
58937W        W 1990  34.032  16.754   6.245  0.1901 -0.0501 -0.2855
58938W        W 1991  21.479   7.346   1.517  0.0519 -0.1580 -0.1385
58939W        W 1992   8.864   0.104   5.107 -0.5635  0.1097 -0.2964
58940W        W 1993  33.298  34.529  18.455  0.0268  0.1447  0.1019
58941W        W 1994  13.837  18.876  19.726 -0.1268 -0.3869 -0.1584
58942W        W 1995  12.760  18.256   9.833  0.1292  0.2370  0.0758
58943W        W 1996  11.187  28.723  18.829  0.3733 -0.0272  0.3017
58944W        W 1997  31.339   8.136   2.479  0.0757  0.0507 -0.0798
58945W        W 1998  28.843  18.140  26.062 -0.0293  0.0360 -0.0250
58946W        W 1999   4.375   4.772   4.942 -0.1393  0.2284 -0.0986
58947W        W 2000   9.234   8.336   5.693  0.1156 -0.0896 -0.1050
58948W        W 2001  17.988   0.021   1.305 -0.0571  0.0317  0.0254
58949W        W 2002  12.253   9.231   9.307 -0.0456  0.2586 -0.1619
58950W        W 2003  20.316   8.739   3.987 -0.0872 -0.1485  0.0812
58951W        W 2004  28.284  13.554   6.806 -0.1471 -0.0436 -0.1094
58952W        W 2005   2.907  30.001  21.245  0.1340  0.0795 -0.2353
58953W        W 2006  19.586  33.961  24.289 -0.0772 -0.0926  0.0046
58954W        W 2007  22.489  15.984   4.004 -0.1850  0.1917 -0.0711
58955W        W 2008   5.316   2.508   8.468  0.1056  0.0065  0.1057
58956W        W 2009  31.763  12.409  28.836 -0.1104 -0.1337 -0.0536
58957W        W 2010  26.355   9.039  27.845  0.3447  0.0682  0.2336
58958W        W 2011  13.774   1.990   1.553  0.0994 -0.0557 -0.1233
58959W        W 2012   4.345  12.297  22.054 -0.0450  0.1003 -0.0030
58960W        W 2013  27.178  30.018   0.951  0.1985  0.3078  0.1354
58961W        W 2014  29.143  25.343   5.471 -0.2371 -0.2652 -0.0902
58962W        W 2015   8.550  20.180   5.362 -0.0206 -0.1158  0.0555
58963W        W 2016  24.079   4.095   4.407 -0.1640 -0.2267 -0.1647
58964W        W 2017  17.342  21.125   5.104  0.0855  0.0095 -0.1773
58965W        W 2018  22.621  16.839  17.601 -0.0712 -0.0159  0.0539
58966W        W 2019   5.885  14.401   5.773 -0.2042  0.0138 -0.2780
58967W        W 2020   5.499   7.181   4.853 -0.5071 -0.3464 -0.1876
58968W        W 2021  11.301  16.583   7.254  0.1283 -0.1479 -0.1218
58969W        W 2022  31.668   1.278   0.151  0.1062  0.0136 -0.1918
58970W        W 2023  16.679  12.436   0.369 -0.0816 -0.0140  0.1304
58971W        W 2024   0.838  16.325  20.289  0.1140 -0.1872 -0.0835
58972W        W 2025  25.781  13.614  10.098 -0.1428 -0.1339  0.1975
58973W        W 2026  31.601  18.417   5.584 -0.0433  0.3887  0.2149
58974W        W 2027   0.511  16.906  27.236  0.1647  0.0730  0.1218
58975W        W 2028  11.670  12.202  10.315 -0.0013 -0.1621 -0.0958
58976W        W 2029  27.415  10.676   3.996  0.2830 -0.2183  0.0010
58977W        W 2030   3.896  19.103  17.101  0.1278  0.0346  0.3876
58978W        W 2031   6.980   7.403  10.604 -0.1186  0.0726 -0.3746
58979W        W 2032   2.058  15.047  28.718 -0.0717  0.0286 -0.0592
58980W        W 2033   9.581  11.654   9.092  0.3146  0.2859 -0.2343
58981W        W 2034   7.162  12.578   6.371 -0.3815  0.1188  0.1233
58982W        W 2035   0.386  22.744   6.533  0.0159 -0.0738  0.0005
58983W        W 2036  32.667  21.317   7.577 -0.2193 -0.0762 -0.3523
58984W        W 2037   3.541  22.280   6.568 -0.1120  0.2013  0.0788
58985W        W 2038  16.605  32.369  19.253  0.2252  0.0684 -0.0427
58986W        W 2039   2.057  18.724   5.210  0.0201  0.2011  0.1096
58987W        W 2040  30.637  24.572   8.364 -0.1396 -0.0313  0.0526
58988W        W 2041   3.958  19.915  27.961 -0.1380  0.2290  0.1764
58989W        W 2042  10.714   2.517  27.918 -0.1110  0.0282 -0.2951
58990W        W 2043   0.438  20.227  16.703 -0.2304  0.1301  0.1389
58991W        W 2044  32.283  20.964  21.050  0.1036 -0.1191 -0.2267
58992W        W 2045  23.468  14.577   9.300 -0.1065 -0.1506  0.1418
58993W        W 2046   5.348  12.975  25.851  0.3220 -0.0711 -0.6026
58994W        W 2047  17.855   9.035  10.086 -0.1906 -0.0843  0.0869
58995W        W 2048  27.325   6.114  21.450 -0.0476  0.0724 -0.1899
58996W        W 2049   7.394  20.312   1.293 -0.0344  0.0081 -0.1656
58997W        W 2050  26.915   7.251   8.462  0.0812 -0.4597  0.2236
58998W        W 2051   4.852  20.128  25.163  0.2970  0.1956 -0.5590
58999W        W 2052  22.207   7.299   5.301 -0.0798  0.4497 -0.2603
59000W        W 2053   7.384  22.622   4.090 -0.1356 -0.0554  0.0333
59001W        W 2054  14.504  26.366  10.356  0.3546  0.1532  0.1049
59002W        W 2055  28.479  31.910  27.014  0.3459 -0.1093  0.2014
59003W        W 2056  33.189  14.229  20.787  0.2369  0.1560 -0.2795
59004W        W 2057   9.450  15.266  24.792 -0.1060  0.4838  0.2303
59005W        W 2058  34.030  33.370   5.072 -0.1439 -0.1421 -0.0413
59006W        W 2059  33.358   9.236   2.565 -0.0125 -0.0179 -0.0152
59007W        W 2060  21.993   7.702  22.725  0.3141  0.1139 -0.1208
59008W        W 2061   9.480  15.508   0.532  0.1411  0.3233 -0.0802
59009W        W 2062  32.535   9.964   7.962  0.0387  0.1554 -0.0838
59010W        W 2063  24.758  28.938  18.220 -0.2071 -0.2993  0.3614
59011W        W 2064   1.984   5.859  24.548 -0.0771  0.2362  0.3206
59012W        W 2065   8.011   8.935   8.906 -0.5143 -0.1781 -0.4380
59013W        W 2066   2.192   0.113  14.046 -0.0263 -0.2079  0.2297
59014W        W 2067  11.464  13.821  26.826  0.2873  0.3122  0.0873
59015W        W 2068  23.786  29.996  25.142  0.0008 -0.3178  0.2530
59016W        W 2069  34.668   8.905   5.342 -0.3305 -0.1165 -0.0170
59017W        W 2070  22.440  17.807  16.400  0.4244 -0.0721  0.1525
59018W        W 2071  11.566  26.979   1.526  0.2729 -0.0500  0.0772
59019W        W 2072   5.353  14.486  20.224  0.0524  0.0747 -0.1567
59020W        W 2073  11.468   9.978  24.293 -0.0324 -0.0347  0.2296
59021W        W 2074  31.412  14.159  23.869  0.2612 -0.0220  0.1591
59022W        W 2075   5.449  28.017  20.347  0.2980 -0.0561  0.2084
59023W        W 2076  33.035  22.403  25.701  0.0704 -0.0377  0.2232
59024W        W 2077  12.743  29.202   9.129  0.0392  0.2909 -0.0791
59025W        W 2078  19.163   6.029   5.003 -0.2048 -0.2721 -0.0086
59026W        W 2079   0.355  15.886   6.875  0.0236 -0.1893 -0.0730
59027W        W 2080   1.233  23.333  25.385 -0.1908  0.0717 -0.3047
59028W        W 2081  10.737  16.715  22.518  0.1109 -0.0907 -0.4032
59029W        W 2082   8.482   9.233   1.937 -0.0651  0.0692 -0.0055
59030W        W 2083   1.435  10.282   8.221 -0.0821 -0.1912  0.1187
59031W        W 2084   1.536  18.603   0.002 -0.2493  0.0905 -0.0294
59032W        W 2085  26.304  21.969  28.314 -0.0525  0.0641  0.1327
59033W        W 2086  28.114  20.053  28.582 -0.2157  0.0321  0.0747
59034W        W 2087   3.963  11.753   7.542 -0.3153  0.3865  0.0926
59035W        W 2088   0.048  23.189  18.478  0.1425  0.2805 -0.0747
59036W        W 2089  30.567  15.700   3.840  0.0684 -0.0877  0.0614
59037W        W 2090   5.783  16.888   2.992  0.2183 -0.0932  0.1648
59038W        W 2091   9.513  15.257  10.269  0.0330  0.0843  0.1274
59039W        W 2092  29.673  24.704  23.817  0.2101  0.1758 -0.0901
59040W        W 2093  19.718  17.514   2.050 -0.0896 -0.4936 -0.4079
59041W        W 2094  23.132  22.624  20.815 -0.0206  0.0431 -0.3016
59042W        W 2095   2.420  26.240  24.437  0.1549  0.2743  0.1991
59043W        W 2096   4.685  24.950  27.810 -0.1763  0.3007  0.0676
59044W        W 2097  29.781  31.566   9.522  0.1282  0.1912 -0.1807
59045W        W 2098   7.800  14.117  27.507  0.2196 -0.2705 -0.0759
59046W        W 2099  12.622  12.460  20.571  0.0049 -0.1013 -0.1207
59047W        W 2100   2.758  21.649  16.221  0.2249 -0.0225  0.1693
59048W        W 2101  11.740   7.912  21.083 -0.0604 -0.3783 -0.0783
59049W        W 2102  18.202  24.902  22.686 -0.0499  0.0770 -0.0389
59050W        W 2103  24.699  14.368  26.592 -0.3274  0.3226  0.2445
59051W        W 2104  26.317  23.643  21.342 -0.1525  0.2669 -0.3641
59052W        W 2105  32.631   1.462  25.189 -0.1763 -0.0301 -0.0960
59053W        W 2106  24.368   5.502  18.250  0.3665 -0.4773  0.2778
59054W        W 2107  24.594   6.394  27.140 -0.0163 -0.2547 -0.1415
59055W        W 2108   4.381  27.384   8.475  0.1383 -0.0169  0.0983
59056W        W 2109   5.527  21.373  27.414  0.1589  0.0576  0.1320
59057W        W 2110  25.293  17.411  22.204 -0.3038  0.3097  0.3022
59058W        W 2111   5.896  21.792   1.718  0.0409 -0.1803  0.0302
59059W        W 2112  21.430   1.481  26.130  0.0155  0.4013  0.1840
59060W        W 2113   7.321  21.550   4.322  0.1653  0.5239  0.1954
59061W        W 2114  14.461   6.917  28.230  0.0840 -0.0421 -0.1772
59062W        W 2115  34.125   2.132   6.959 -0.1108 -0.2079  0.0872
59063W        W 2116  14.613  23.642  28.501  0.0361 -0.0629 -0.1227
59064W        W 2117  10.140  22.629  21.171  0.0075  0.2437 -0.1953
59065W        W 2118   7.982  21.765   0.194  0.0353 -0.1339 -0.1548
59066W        W 2119  13.221  16.901   3.067 -0.0830  0.0334  0.0620
59067W        W 2120  10.328  21.912   2.921 -0.0891 -0.1337 -0.3555
59068W        W 2121  18.165  33.180  21.329 -0.1680 -0.0036 -0.1926
59069W        W 2122   0.228  11.547   3.400  0.0710  0.0798  0.1103
59070W        W 2123   2.941  17.204   0.443  0.1347 -0.0953  0.0289
59071W        W 2124   7.810  32.191  27.035 -0.0388 -0.1073 -0.1119
59072W        W 2125  18.630   9.898  27.443 -0.0332 -0.2093 -0.1059
59073W        W 2126   3.069  20.063   3.718 -0.1612  0.5397  0.0170
59074W        W 2127   7.872   9.435   8.755 -0.1392  0.0220  0.0717
59075W        W 2128   3.430  12.671  22.659 -0.0979 -0.3013  0.0181
59076W        W 2129  25.835   7.525   1.636 -0.1349  0.1802 -0.0090
59077W        W 2130  31.330   1.639   5.275  0.0080  0.0984 -0.2103
59078W        W 2131  25.395   7.896   4.054 -0.1459 -0.2517 -0.4550
59079W        W 2132  31.197  23.616  23.809 -0.1316  0.2621  0.0103
59080W        W 2133  11.594   0.989  15.802  0.0599  0.3456 -0.1733
59081W        W 2134  24.816   0.051  16.169 -0.0081 -0.0628 -0.1333
59082W        W 2135  17.621  14.003  25.892 -0.1360 -0.1642  0.2188
59083W        W 2136   9.820  20.930  15.667 -0.2028 -0.2587  0.1364
59084W        W 2137  33.092  21.126   2.216 -0.2447 -0.0769 -0.0998
59085W        W 2138  24.228  10.577  26.916 -0.1487  0.0212 -0.1113
59086W        W 2139  33.214  10.996   3.525  0.0809 -0.0732 -0.2705
59087W        W 2140   3.529  33.895  21.738 -0.2437  0.4908  0.0301
59088W        W 2141   4.682  19.079   6.260 -0.1066  0.1145 -0.0922
59089W        W 2142   1.891   3.189   6.694  0.2410  0.3178 -0.1955
59090W        W 2143   0.039  26.728   8.372  0.0513  0.3477 -0.0286
59091W        W 2144  13.532   7.291  10.152 -0.1657 -0.0795 -0.1725
59092W        W 2145   6.593  18.104   1.784  0.0459 -0.0684  0.2538
59093W        W 2146   0.424  11.187  23.432  0.0407 -0.0226  0.0458
59094W        W 2147   2.155  12.990  29.011  0.0063 -0.1246  0.0161
59095W        W 2148  14.369  11.462  20.303 -0.0617  0.1647  0.0230
59096W        W 2149   7.955  11.152  27.995 -0.0336  0.1663  0.0043
59097W        W 2150   4.243  31.945  27.730  0.0674  0.0801  0.1829
59098W        W 2151   5.442   2.119  14.875  0.2692 -0.1496 -0.1529
59099W        W 2152   4.850  17.082  23.952  0.0799 -0.0772 -0.0533
59100W        W 2153  30.809  12.304   3.200  0.1768 -0.2797 -0.1927
59101W        W 2154   3.918  14.778  25.822 -0.1976  0.4025  0.3426
59102W        W 2155   8.325  11.857   9.940 -0.1914  0.1066 -0.0147
59103W        W 2156  28.594  34.038  19.954 -0.0853  0.0483 -0.0216
59104W        W 2157  33.879   6.283   8.037  0.0456 -0.0781 -0.2268
59105W        W 2158  17.892   5.305  16.018  0.1660 -0.1413  0.0729
59106W        W 2159  25.810  21.122   4.834 -0.2727  0.0521 -0.0701
59107W        W 2160  27.486  30.368   8.525 -0.0502 -0.0631 -0.3250
59108W        W 2161  17.635   6.204   1.647 -0.0141 -0.0624 -0.1464
59109W        W 2162   8.725  12.980  27.525 -0.1528 -0.2680 -0.1096
59110W        W 2163   8.585  23.244   3.398 -0.2039 -0.0331 -0.0107
59111W        W 2164  12.275  10.079   4.196 -0.2028 -0.1139  0.1323
59112W        W 2165  23.276   1.453   4.507 -0.2244 -0.1735  0.0536
59113W        W 2166   2.776  32.773  24.763  0.3868 -0.1140  0.0445
59114W        W 2167   1.855  16.947  25.862 -0.0680 -0.2291  0.1308
59115W        W 2168   4.577  13.358   5.114  0.1050  0.2588  0.3024
59116W        W 2169  28.865  13.529  20.668  0.0528 -0.0117 -0.0061
59117W        W 2170  30.788  17.324  19.791  0.1363  0.0434 -0.0717
59118W        W 2171  15.123  21.365  14.736 -0.0740 -0.2777 -0.0208
59119W        W 2172  27.564  13.726  21.208 -0.2202  0.2148 -0.3636
59120W        W 2173   1.973  21.347  15.631 -0.0379 -0.0515  0.4857
59121W        W 2174   1.907  12.198  28.937  0.0888  0.3347 -0.0537
59122W        W 2175   7.667   3.523  27.398 -0.1237  0.1779 -0.0584
59123W        W 2176  10.084   5.939   4.092 -0.0585  0.2143 -0.2366
59124W        W 2177  27.080  28.024  24.185 -0.2157 -0.0085  0.0244
59125W        W 2178   7.993  24.403   9.041  0.0576 -0.0980  0.0430
59126W        W 2179  14.238  13.990   6.838 -0.1580 -0.2725  0.0186
59127W        W 2180   1.385  29.556  18.713  0.0669 -0.1914  0.0454
59128W        W 2181   6.774   2.347  27.995  0.0595  0.0314 -0.3946
59129W        W 2182  30.214  14.013   3.659 -0.1808 -0.2978 -0.3262
59130W        W 2183  10.515  18.593   5.767 -0.1792  0.0363 -0.0228
59131W        W 2184   6.183  13.659   3.379  0.0658  0.0732 -0.4643
59132W        W 2185  34.056  25.018   4.629  0.1406  0.0556 -0.0245
59133W        W 2186  20.958   4.562  27.539  0.1753 -0.1204  0.0922
59134W        W 2187  15.806  24.214  18.665 -0.0788 -0.3470 -0.0339
59135W        W 2188   1.453  19.267  23.591  0.0618 -0.4852  0.0303
59136W        W 2189  25.934  11.623  10.065  0.1654  0.0445  0.2773
59137W        W 2190  23.076   1.698  17.129 -0.3778 -0.0896 -0.0047
59138W        W 2191   8.311   0.541   5.793  0.2499 -0.2612  0.2816
59139W        W 2192   6.570   8.207  24.137  0.1981  0.0897  0.2658
59140W        W 2193  23.593  10.262  16.639 -0.2526  0.0937  0.0405
59141W        W 2194  13.564  12.900  27.326  0.1918 -0.0119 -0.0541
59142W        W 2195  32.048   5.906  19.268  0.2625  0.2990  0.2655
59143W        W 2196   8.335  18.320   8.803 -0.3517 -0.0945  0.1438
59144W        W 2197  13.560  32.017  21.761 -0.2128 -0.1168  0.1195
59145W        W 2198  30.983   4.420   9.531  0.3435 -0.0472  0.1719
59146W        W 2199  26.725  21.516  24.163  0.2291  0.2134  0.0950
59147W        W 2200  33.128  23.081  23.178  0.0972 -0.2407  0.1905
59148W        W 2201   5.156  13.529   9.554  0.0685  0.2954 -0.2493
59149W        W 2202   9.869   6.692   2.609  0.1315 -0.1195 -0.0493
59150W        W 2203   5.808   0.729   2.851  0.4615 -0.1220 -0.3296
59151W        W 2204   5.523  30.777  26.556 -0.1272  0.2613 -0.2277
59152W        W 2205   7.593  17.813   2.109  0.0916 -0.1900 -0.1066
59153W        W 2206  33.422  16.053  28.272  0.1367  0.0844  0.2931
59154W        W 2207  27.903  12.736   8.027  0.1361 -0.3298  0.0699
59155W        W 2208  27.880  16.678   4.260  0.0346  0.0204 -0.3500
59156W        W 2209   2.901   7.540  21.543 -0.2886 -0.1883 -0.1560
59157W        W 2210   4.462  13.129  19.014  0.0209 -0.1559  0.0438
59158W        W 2211  21.781   2.344   3.492 -0.1592  0.0379  0.1888
59159W        W 2212  12.256  16.504  26.697 -0.0784 -0.5512  0.1492
59160W        W 2213   6.121  32.500   5.383 -0.0670  0.0086  0.1064
59161W        W 2214   4.431  15.824  26.484  0.0389 -0.2725  0.1969
59162W        W 2215  10.283  11.089   3.033  0.3734 -0.1075 -0.1254
59163W        W 2216   2.006   5.144  28.278 -0.2041  0.3164  0.2093
59164W        W 2217  28.351  26.155   1.064  0.0044  0.2243 -0.0762
59165W        W 2218  32.615  21.983   9.813  0.1668  0.0300  0.0342
59166W        W 2219   1.080   9.699   7.170 -0.0769  0.3497 -0.1183
59167W        W 2220   2.780   9.408  27.962 -0.0597 -0.0503 -0.1100
59168W        W 2221   5.436   5.375   8.439  0.0343 -0.1147 -0.2025
59169W        W 2222  29.270  11.491  16.723 -0.2234  0.1103  0.0002
59170W        W 2223   8.492  13.980   6.642 -0.1150 -0.1217 -0.0421
59171W        W 2224  32.905   5.182   1.061  0.2242 -0.0274 -0.1476
59172W        W 2225  11.883  28.035   2.942 -0.0738 -0.0696  0.1394
59173W        W 2226  20.721  18.331  15.590 -0.1083  0.2253 -0.2911
59174W        W 2227   0.562  11.761  29.039 -0.4993  0.0583 -0.3452
59175W        W 2228   6.915  29.038  24.358  0.0731  0.1578  0.0620
59176W        W 2229   9.943  16.490  10.929  0.0784  0.1986  0.2359
59177W        W 2230   4.436   4.718  25.266  0.3250 -0.1059 -0.0605
59178W        W 2231  31.908  14.640   0.711  0.0975 -0.0266  0.1361
59179W        W 2232   5.464  13.298   3.872 -0.2423  0.0078 -0.2452
59180W        W 2233  33.693   9.376   8.480 -0.1484  0.0471 -0.1189
59181W        W 2234  28.852  26.495   6.867  0.0634  0.0775  0.1627
59182W        W 2235  21.465  16.256  21.875  0.0014 -0.4821  0.1556
59183W        W 2236  11.278   4.852   9.301  0.1186  0.2943 -0.1946
59184W        W 2237  31.382  13.520   4.923  0.3030  0.2910  0.0613
59185W        W 2238  23.241  19.944   4.942 -0.1507 -0.1031  0.1176
59186W        W 2239  31.250  19.376   2.540 -0.3375  0.1597 -0.0889
59187W        W 2240  24.943  11.737  18.564 -0.2695  0.0042 -0.0601
59188W        W 2241  13.269  28.873  28.693  0.1613 -0.1225  0.1992
59189W        W 2242  32.322   0.334   1.176 -0.0667  0.1275 -0.1936
59190W        W 2243   0.678  16.970   6.807  0.1428 -0.0492  0.0053
59191W        W 2244  31.718  13.159   8.973  0.0208 -0.3088 -0.2040
59192W        W 2245  13.819  14.627  24.793  0.2304 -0.0356 -0.1937
59193W        W 2246  25.958  31.498   4.770 -0.0766 -0.2699  0.0153
59194W        W 2247   3.193  17.781   9.206  0.2599 -0.3145  0.2038
59195W        W 2248  30.451   3.194  23.106 -0.2067  0.1001  0.0492
59196W        W 2249   1.596   5.661   9.363 -0.0301  0.2043 -0.0368
59197W        W 2250  26.951   9.683  21.048  0.2758  0.0199  0.3916
59198W        W 2251   0.144  21.579  19.968 -0.0952  0.5238  0.1986
59199W        W 2252  13.814  33.579   4.764 -0.0587 -0.1400 -0.0984
59200W        W 2253  31.119  14.824   6.139 -0.0717 -0.0044  0.1491
59201W        W 2254   1.526   9.559   7.253  0.1348 -0.0199  0.2817
59202W        W 2255   7.476  22.128   9.476  0.2627  0.1550 -0.0246
59203W        W 2256  34.680   7.494   0.272  0.0479 -0.1724 -0.0689
59204W        W 2257  34.150  17.700  22.699  0.3035 -0.4816  0.1621
59205W        W 2258  28.496  26.205  19.732 -0.0474  0.3184  0.1898
59206W        W 2259  25.790  23.884   8.980 -0.0340  0.1856  0.3389
59207W        W 2260  11.929   4.498  19.611  0.0230  0.0750  0.1397
59208W        W 2261  21.009  14.685  14.470  0.3101  0.1500 -0.0226
59209W        W 2262  24.963  22.363   7.254  0.1308  0.0243 -0.0068
59210W        W 2263   8.139  10.172  22.322  0.0431 -0.3295  0.2239
59211W        W 2264  10.817   6.602   7.310  0.0283  0.1723  0.0813
59212W        W 2265  21.451   8.967  26.735  0.0292  0.1988 -0.2581
59213W        W 2266  13.386  16.806  27.851 -0.1664 -0.2674  0.2680
59214W        W 2267  28.856   6.525  21.940  0.0393 -0.1669  0.0126
59215W        W 2268  11.928  21.816   8.780  0.0175 -0.0359 -0.2408
59216W        W 2269  34.398  20.912   8.544  0.0059 -0.0593  0.0816
59217W        W 2270  21.304   0.323  24.509  0.0538 -0.0249  0.0139
59218W        W 2271  27.257  14.574  20.275 -0.0157 -0.2334  0.4226
59219W        W 2272  25.185  22.717   4.327 -0.0317  0.2097  0.1728
59220W        W 2273   3.514   0.642  24.682 -0.0130  0.1639  0.0073
59221W        W 2274   0.980   6.032   5.900  0.0037  0.3320  0.0394
59222W        W 2275  34.391  15.776  27.759 -0.3374  0.0395 -0.3542
59223W        W 2276  25.055   3.193  17.906 -0.4564  0.2847 -0.3130
59224W        W 2277   3.208   5.507   8.034 -0.0141  0.0380 -0.2982
59225W        W 2278  31.666  11.338   4.369  0.0654  0.0571  0.1450
59226W        W 2279  24.255  19.637  24.703 -0.4361  0.0339 -0.0698
59227W        W 2280   0.284  28.196   2.223  0.0131 -0.3503 -0.1352
59228W        W 2281   6.041  22.198   0.410 -0.2283 -0.0150 -0.0152
59229W        W 2282   1.345  16.119   8.892 -0.0425 -0.1151  0.3637
59230W        W 2283   3.679  17.439   3.317 -0.1377  0.0336 -0.0406
59231W        W 2284  32.359  15.171   6.421  0.0034  0.0517 -0.2727
59232W        W 2285  31.806  34.275   9.031  0.1257  0.1192 -0.1264
59233W        W 2286  31.815  10.489   1.007  0.0073  0.1671  0.2543
59234W        W 2287   6.034  25.389  26.209  0.0979 -0.1944 -0.1992
59235W        W 2288   6.190  18.826   3.194  0.2080  0.1916  0.2915
59236W        W 2289  34.175  18.870   6.659  0.0438 -0.0978  0.0349
59237W        W 2290  10.466  23.714   5.962  0.2207  0.0953  0.1738
59238W        W 2291  12.676  13.553  29.011  0.1481  0.5833 -0.1240
59239W        W 2292  13.510   8.288   8.169 -0.4248 -0.1783 -0.0220
59240W        W 2293  27.482  28.509   9.523  0.0319 -0.0104  0.0678
59241W        W 2294  31.164  16.460   5.454 -0.1224 -0.3194  0.1111
59242W        W 2295  12.925  32.509   6.232  0.2415 -0.2206 -0.3156
59243W        W 2296  26.941  21.743  18.891 -0.1299  0.1442  0.2017
59244W        W 2297   4.271  26.510   6.058 -0.0524 -0.1106  0.2655
59245W        W 2298  17.705   6.455   8.238 -0.1291  0.1197  0.1808
59246W        W 2299  11.071  13.260   7.912  0.0433 -0.3162 -0.2480
59247W        W 2300  31.808  12.301   4.639 -0.1321 -0.0375  0.1176
59248W        W 2301  13.559  19.369   3.212  0.1585  0.1459  0.1313
59249W        W 2302  33.802   5.706   2.689  0.0480  0.1011 -0.1960
59250W        W 2303  30.508   9.801   3.635 -0.0852 -0.0689 -0.1913
59251W        W 2304   2.297  17.258   6.167  0.2871 -0.1885  0.1712
59252W        W 2305  17.072   1.499   2.979  0.1871  0.1020 -0.1537
59253W        W 2306   3.634   0.726  25.454 -0.3554  0.0367 -0.2069
59254W        W 2307  23.971   6.210  24.205 -0.0310 -0.1949 -0.1971
59255W        W 2308   3.069  15.543   3.480 -0.0271 -0.1175 -0.0209
59256W        W 2309  32.780  12.396  10.026 -0.1493  0.2734  0.1189
59257W        W 2310   9.632   5.639   0.919  0.2675  0.2348  0.0889
59258W        W 2311  18.342  21.765  28.416 -0.4067  0.0870 -0.1879
59259W        W 2312  25.515  25.723   7.778  0.1684  0.0808  0.1030
59260W        W 2313  25.490   8.262   3.710 -0.0754  0.2158  0.0973
59261W        W 2314  25.545  16.302   9.472  0.0821  0.2898  0.3126
59262W        W 2315  19.005  19.468  10.516 -0.0235 -0.1064 -0.1807
59263W        W 2316  30.835  16.025  20.505  0.3453 -0.1014 -0.2754
59264W        W 2317  29.576   9.855   8.826 -0.1201  0.1010  0.3532
59265W        W 2318  27.793  16.504   9.949  0.0279 -0.1253 -0.0313
59266W        W 2319   7.710  14.672   8.331 -0.1210 -0.0375 -0.1705
59267W        W 2320   0.881  12.541   3.554  0.1154 -0.3186  0.0443
59268W        W 2321  31.579  21.106   5.841 -0.0196 -0.0300  0.0739
59269W        W 2322  33.378  19.872   6.505 -0.0759  0.2241 -0.0478
59270W        W 2323   8.394  11.770   4.630  0.1279  0.1036  0.0570
59271W        W 2324  23.829  10.060   3.324 -0.0046  0.1755  0.1133
59272W        W 2325  22.132  27.283  16.216 -0.3183 -0.1685 -0.1737
59273W        W 2326   5.079   7.482   3.103  0.3794  0.2694 -0.0324
59274W        W 2327  13.527  13.954   0.877 -0.3082  0.2037 -0.0595
59275W        W 2328   2.171  15.136  21.150  0.2612 -0.0607  0.2835
59276W        W 2329  22.885  13.553  28.324 -0.3554  0.0421 -0.3000
59277W        W 2330  34.241  17.978   8.159  0.0191  0.3252 -0.1968
59278W        W 2331   9.267  31.341   0.421 -0.1638  0.0829 -0.0601
59279W        W 2332   8.118   3.087   9.575 -0.1039 -0.0585 -0.0103
59280W        W 2333  21.931   6.084   5.612 -0.2169  0.3095 -0.0832
59281W        W 2334  15.428  29.312   8.833  0.3638  0.0374  0.0492
59282W        W 2335   6.296  12.631   8.758  0.0846  0.3790  0.0463
59283W        W 2336   5.120   9.215  28.436 -0.2084 -0.2068  0.1544
59284W        W 2337   4.062   9.716   0.360  0.1114 -0.1132  0.1814
59285W        W 2338  21.533  18.927  24.506 -0.0914 -0.0076  0.0547
59286W        W 2339  32.121  31.712   8.822 -0.1715 -0.0654  0.1022
59287W        W 2340  21.894   3.333   6.247 -0.0726  0.3501  0.0542
59288W        W 2341  26.874   6.218   4.451  0.0189 -0.1297 -0.1893
59289W        W 2342   0.465  21.534   8.870 -0.1398 -0.1037 -0.0355
59290W        W 2343   0.334   1.540   2.809 -0.0169  0.0845  0.1173
59291W        W 2344  19.268   2.427  25.204  0.0124  0.2173  0.0406
59292W        W 2345   4.436  24.735   1.474  0.0390  0.3070  0.2462
59293W        W 2346   2.453  11.567   9.118 -0.2547  0.1828 -0.0201
59294W        W 2347  22.704   6.558   5.229  0.1323  0.0277 -0.0796
59295W        W 2348  10.306  28.698   1.760 -0.3164  0.0563  0.0045
59296W        W 2349  32.409   5.328   7.885 -0.3474 -0.0053 -0.0647
59297W        W 2350  23.104  11.735   9.466  0.1234 -0.1268 -0.1515
59298W        W 2351  20.649  11.672   6.458 -0.2082  0.2827  0.2085
59299W        W 2352   8.895  27.575  15.613  0.0736 -0.0771 -0.0937
59300W        W 2353  28.106  18.915   9.880  0.2384  0.0808  0.2806
59301W        W 2354   7.550   7.299   9.934 -0.1519  0.0195  0.1404
59302W        W 2355  32.266   0.940   5.680  0.0312 -0.3859  0.1772
59303W        W 2356   9.305  25.535   3.393 -0.1395  0.2092 -0.0372
59304W        W 2357  28.753   8.527  27.319 -0.4204 -0.1628 -0.3288
59305W        W 2358   5.776   4.676  24.226  0.0115  0.3851 -0.1583
59306W        W 2359  17.625  32.309  20.379  0.1344  0.3666 -0.0799
59307W        W 2360  24.956  18.592   2.140  0.3045  0.2686 -0.0667
59308W        W 2361   8.308  14.974   7.665 -0.0543  0.2296  0.3997
59309W        W 2362  30.246  18.022  17.853 -0.2800 -0.2535  0.0364
59310W        W 2363   9.074  17.492   8.582 -0.1032  0.0358 -0.0392
59311W        W 2364  26.322  10.289  21.939  0.2758  0.1661 -0.1815
59312W        W 2365   1.312  22.224  26.473  0.2890  0.1240  0.1112
59313W        W 2366  33.788  17.446   0.328 -0.1583 -0.1942  0.0120
59314W        W 2367  26.246  17.392   7.634 -0.0021  0.1388 -0.0478
59315W        W 2368  22.157  14.213   9.428  0.1535  0.2071  0.2772
59316W        W 2369   3.353   4.120   4.216 -0.1904  0.0424 -0.2398
59317W        W 2370  30.840  17.181   7.447  0.1379  0.2326 -0.0163
59318W        W 2371   6.914  15.297  27.846 -0.0551  0.2381 -0.0952
59319W        W 2372  18.757  28.290   7.206 -0.1225 -0.1309  0.2448
59320W        W 2373  11.296  11.801  18.179  0.1191 -0.4492 -0.4112
59321W        W 2374   3.089   1.013   0.153 -0.2212 -0.0636  0.0725
59322W        W 2375   6.601   7.810  19.463 -0.0606 -0.1480 -0.0681
59323W        W 2376   6.105  10.427  29.135 -0.0027  0.1686 -0.0951
59324W        W 2377  11.129  19.965   8.284 -0.1624  0.1417 -0.3621
59325W        W 2378  28.132  26.993  27.086 -0.0223  0.2303 -0.0350
59326W        W 2379   5.104   7.382   2.292  0.0416 -0.0389 -0.3106
59327W        W 2380  29.996  23.947   9.450 -0.1618  0.1004  0.1231
59328W        W 2381   8.488  19.134  27.139  0.1958 -0.0553 -0.0434
59329W        W 2382  32.100   0.051  25.591  0.0939  0.0865 -0.1186
59330W        W 2383   9.356  17.508  27.272  0.1262  0.2667 -0.0945
59331W        W 2384  11.713  17.563   7.924  0.2314  0.1167  0.0371
59332W        W 2385  32.922  20.774   8.417  0.3840 -0.1721 -0.1090
59333W        W 2386  12.112   1.316   6.367 -0.1190 -0.0902  0.0800
59334W        W 2387  25.551   2.890   5.554  0.0407 -0.2616 -0.0753
59335W        W 2388  31.626  10.464  23.298 -0.2656 -0.0523 -0.1339
59336W        W 2389  11.163   9.969   2.225  0.1039  0.2307 -0.2297
59337W        W 2390  33.929  11.464   8.911  0.0856 -0.0372  0.1507
59338W        W 2391  20.702  17.174   1.629  0.1454 -0.1193 -0.0806
59339W        W 2392   3.857  11.008   8.588 -0.0388 -0.1560  0.0280
59340W        W 2393  14.612   3.020  23.761 -0.3848  0.2407  0.2725
59341W        W 2394   0.235  27.670   8.557  0.1483  0.1099 -0.1598
59342W        W 2395  16.055  24.266   7.740  0.2095 -0.1629 -0.0745
59343W        W 2396  28.526   9.185   2.385 -0.3351  0.2682 -0.0982
59344W        W 2397  12.456   9.252   9.782 -0.1672 -0.5219 -0.3166
59345W        W 2398   9.865   8.363   3.642  0.0169  0.1126 -0.0089
59346W        W 2399  24.367  14.392   0.160  0.0677  0.0215  0.0736
59347W        W 2400  23.862  10.978   6.553 -0.2697 -0.0926 -0.3540
59348W        W 2401  16.834   6.992   3.692  0.5813 -0.0244  0.1142
59349W        W 2402  31.051  15.984  19.706 -0.3886  0.0569  0.0049
59350W        W 2403   5.182   8.701   2.361 -0.0680  0.1337 -0.1540
59351W        W 2404  31.302   9.229  14.868 -0.2950 -0.0705  0.1846
59352W        W 2405  34.658  15.409   1.797  0.1721  0.0894  0.3238
59353W        W 2406  27.097  16.987  19.525 -0.3290  0.2558 -0.1891
59354W        W 2407  26.574  33.833  22.772 -0.1205  0.1217 -0.2760
59355W        W 2408  27.790  20.023   1.453  0.0434  0.0532 -0.0456
59356W        W 2409  25.466  17.154  27.694 -0.0785  0.0027  0.0706
59357W        W 2410  32.555   7.979   5.037  0.0570  0.2068 -0.2451
59358W        W 2411   7.624   8.275  19.327  0.0948 -0.0700 -0.2901
59359W        W 2412  25.033   7.493  16.214 -0.1154 -0.0304  0.0050
59360W        W 2413   0.751   2.180   0.232  0.3159  0.2410  0.0189
59361W        W 2414   0.797  12.953   0.358 -0.1554 -0.1089  0.0626
59362W        W 2415  28.612  31.296   5.458 -0.1931 -0.0581 -0.1815
59363W        W 2416  28.110   7.288   7.798 -0.2485 -0.0674 -0.1504
59364W        W 2417  20.175  15.302  16.305  0.3815 -0.1362 -0.0917
59365W        W 2418  16.633  11.097   4.973  0.0014  0.2350  0.4310
59366W        W 2419   6.525  23.909  16.393 -0.0571  0.0304 -0.1098
59367W        W 2420  28.146   3.175  25.939  0.3424  0.2974 -0.4418
59368W        W 2421  27.688  20.294   8.649  0.1039  0.1676  0.5111
59369W        W 2422  22.764  30.851   9.932 -0.1277 -0.1376  0.2471
59370W        W 2423  15.167   7.845   7.023  0.0288 -0.0540 -0.1359
59371W        W 2424  30.597  25.609  20.825  0.2147 -0.1352 -0.0956
59372W        W 2425  25.440  18.863  27.113 -0.1267  0.0157 -0.2348
59373W        W 2426  15.446   4.744   2.451  0.1479  0.0439  0.0432
59374W        W 2427   6.811  25.017   5.609 -0.0570  0.5679  0.1927
59375W        W 2428  21.758  16.569  22.209 -0.1928  0.0347  0.0802
59376W        W 2429  16.041  29.320   4.374  0.3059 -0.1641  0.0617
59377W        W 2430  23.063  22.230   1.582  0.3219  0.1491  0.1049
59378W        W 2431  10.701   0.134   8.291  0.1995 -0.1149  0.2671
59379W        W 2432  23.676  24.612   6.615 -0.1150 -0.3020  0.1016
59380W        W 2433  32.231   8.401   8.210  0.3499  0.3001 -0.2150
59381W        W 2434   5.908   0.753   4.198 -0.1574 -0.0247 -0.2221
59382W        W 2435  11.018   2.121   7.365 -0.4919 -0.1585  0.0920
59383W        W 2436   8.299   9.484   8.095 -0.1869  0.1266 -0.0564
59384W        W 2437   8.969  16.188   0.330 -0.0471  0.0866 -0.1013
59385W        W 2438   1.346  22.620  14.421  0.0080 -0.1009  0.0288
59386W        W 2439  16.227   2.265  19.561 -0.2637 -0.1950 -0.1648
59387W        W 2440  25.400  30.780  29.084 -0.0156 -0.0642 -0.0750
59388W        W 2441   1.380   6.036   4.577  0.3079 -0.3385  0.1161
59389W        W 2442  21.441  19.355  27.215 -0.1293  0.0410 -0.0403
59390W        W 2443  11.013   2.066   3.552 -0.0043 -0.0002  0.0180
59391W        W 2444  27.876   2.994   7.632 -0.1590 -0.1360 -0.0283
59392W        W 2445   2.174  13.634   5.283  0.3898 -0.2262 -0.0970
59393W        W 2446   2.688  13.644  25.290  0.0910  0.2826 -0.1120
59394W        W 2447  13.898   8.886   7.617 -0.1854 -0.0250  0.4275
59395W        W 2448  30.590   2.851   7.635 -0.0353  0.0903 -0.2330
59396W        W 2449   2.722  30.921   3.502 -0.2230 -0.0558 -0.0128
59397W        W 2450  24.686  13.974   7.746 -0.2018 -0.2600  0.5486
59398W        W 2451  15.628   6.228   3.822  0.1360 -0.2213  0.0431
59399W        W 2452  18.670   4.934  10.520  0.1092 -0.0045 -0.0011
59400W        W 2453   0.510   6.572   9.923  0.1387 -0.1987 -0.0906
59401W        W 2454  32.676   8.863   1.876  0.0154 -0.2310  0.2336
59402W        W 2455   0.481  23.136  17.153 -0.1782  0.0869 -0.0461
59403W        W 2456  34.127   1.881   2.554 -0.1518  0.3265 -0.3168
59404W        W 2457   6.744  34.081  27.514 -0.1764  0.1426 -0.0417
59405W        W 2458   4.639   8.351   4.190 -0.2730  0.2658  0.0812
59406W        W 2459   2.040  24.423  10.221  0.0673  0.1129  0.2329
59407W        W 2460  12.945  12.680  21.560 -0.0028 -0.0069 -0.2755
59408W        W 2461  33.839  12.539   8.445  0.2443 -0.2005  0.0386
59409W        W 2462  12.725   6.613   0.010 -0.1207  0.0075 -0.0158
59410W        W 2463  29.739  18.302   4.045 -0.3803 -0.1973 -0.2566
59411W        W 2464  21.746   1.945  27.228 -0.2097 -0.0614  0.2492
59412W        W 2465   0.162  26.337   3.492  0.0473  0.0135  0.0533
59413W        W 2466   5.369   4.153   2.355  0.0829 -0.0066  0.1038
59414W        W 2467  27.348  25.914   9.658  0.0069 -0.2000  0.1094
59415W        W 2468   7.754   8.410  14.152  0.0925  0.0778  0.2125
59416W        W 2469  10.223  22.365   5.045 -0.3421  0.0819 -0.1212
59417W        W 2470  21.666  18.016   6.506  0.3966  0.2009  0.1619
59418W        W 2471   4.935  19.949   7.659 -0.0680 -0.0128 -0.2924
59419W        W 2472   1.142   6.409   4.316  0.0931 -0.0839 -0.2736
59420W        W 2473  34.281  15.852   1.919 -0.2537  0.0683 -0.1038
59421W        W 2474  31.514   1.290   7.884  0.0912 -0.2780  0.0660
59422W        W 2475  10.166  23.490  19.073 -0.0651 -0.1008 -0.0336
59423W        W 2476  34.187  12.887   6.837  0.0427 -0.1027 -0.0738
59424W        W 2477  33.984  21.957   4.042  0.0090 -0.0259 -0.3266
59425W        W 2478   1.579   9.396   1.732 -0.1459  0.1783 -0.2421
59426W        W 2479  26.078  14.536   4.770  0.0564  0.1089 -0.2442
59427W        W 2480   7.730  10.549  22.533 -0.0790  0.1764  0.0183
59428W        W 2481  31.665  30.990   5.977  0.0574 -0.2876  0.3808
59429W        W 2482   4.532  26.768  23.689 -0.0103  0.1428 -0.2820
59430W        W 2483   6.558  16.285  17.608 -0.2929  0.0025 -0.4624
59431W        W 2484  26.637  10.196  24.831 -0.1549 -0.0643  0.1316
59432W        W 2485  30.805   5.565  18.813  0.1538  0.2107 -0.2608
59433W        W 2486  28.094  19.958   8.676  0.0864 -0.0377  0.1702
59434W        W 2487  18.359  33.562  23.676 -0.3130 -0.0005  0.2659
59435W        W 2488   4.976  17.002   9.077  0.1304  0.0251  0.1002
59436W        W 2489  13.205  13.346   2.560 -0.2949  0.1068 -0.0434
59437W        W 2490  30.076   0.987   1.647 -0.0217  0.0816  0.3683
59438W        W 2491  11.080   8.031   4.257 -0.0323 -0.4569 -0.0728
59439W        W 2492   6.718  13.192  22.249 -0.0693 -0.2747 -0.0366
59440W        W 2493   1.095  25.642  28.250 -0.1846  0.0020  0.4572
59441W        W 2494   3.939  27.662   2.457  0.1883 -0.3842  0.0845
59442W        W 2495   0.427  21.789   2.987 -0.1795 -0.0081 -0.0376
59443W        W 2496   7.725   1.012  25.889 -0.0027 -0.1719  0.1801
59444W        W 2497   8.378  11.468   9.219 -0.0479  0.0127 -0.1081
59445W        W 2498  27.653  20.536   5.345 -0.0606 -0.1849 -0.2000
59446W        W 2499   0.050  32.498   6.838 -0.2691  0.0617  0.2254
59447W        W 2500   0.299  15.275   0.445 -0.3192 -0.1068 -0.0420
59448W        W 2501   9.305  24.171  27.340  0.0050 -0.0816 -0.2850
59449W        W 2502  29.023  19.309  27.941  0.4126 -0.0946  0.2271
59450W        W 2503  31.561  18.032   2.076  0.3320 -0.3188  0.0998
59451W        W 2504   5.724   8.966   6.579 -0.0684 -0.2300 -0.1041
59452W        W 2505   5.722   3.352   3.379  0.0603  0.0503  0.2084
59453W        W 2506  34.248   2.689  27.929  0.1467  0.2252  0.0391
59454W        W 2507   0.149   9.522  23.366  0.1851 -0.2468 -0.4234
59455W        W 2508   9.136  21.915   1.309 -0.2753  0.0082  0.2305
59456W        W 2509   1.730   0.195  16.344  0.2629 -0.1053 -0.0494
59457W        W 2510  10.666   7.487   3.060 -0.1615  0.1520  0.0295
59458W        W 2511   9.031  12.311  10.358 -0.1992  0.0622 -0.0561
59459W        W 2512  34.681   7.623   0.873  0.1167  0.1503  0.1593
59460W        W 2513   6.165  28.658   2.837 -0.1378  0.1710 -0.3022
59461W        W 2514  34.043   1.772   3.548  0.1091 -0.0225 -0.1673
59462W        W 2515  13.627   8.131   1.865  0.3879  0.0792  0.0072
59463W        W 2516   5.252  24.910   1.299 -0.2129  0.1189  0.0049
59464W        W 2517  23.928  10.453  15.848  0.1057  0.0341 -0.0739
59465W        W 2518   0.554  10.500   2.007  0.2096 -0.0775  0.0344
59466W        W 2519  22.405  18.392  26.459 -0.1237  0.2365 -0.1010
59467W        W 2520   1.545   7.365  18.352 -0.0135  0.2413 -0.0526
59468W        W 2521  14.201  29.482   6.705  0.0939  0.0127  0.0212
59469W        W 2522   3.303   3.756   6.379  0.0412  0.0279 -0.0336
59470W        W 2523  31.750  34.120   5.947 -0.2933 -0.0032 -0.1448
59471W        W 2524   8.784  13.661  10.247  0.1678  0.2054 -0.2300
59472W        W 2525  27.221   7.127  25.172 -0.3462  0.0570  0.0476
59473W        W 2526   6.338  23.143   3.436  0.1167 -0.3197  0.1299
59474W        W 2527  33.767   6.522   8.474 -0.1929 -0.1999  0.0743
59475W        W 2528   0.407  12.848  18.365 -0.1292  0.1860  0.2439
59476W        W 2529  32.466  11.486   7.209 -0.0523  0.2463  0.3717
59477W        W 2530  28.684  24.268   4.799 -0.1703 -0.0535  0.0222
59478W        W 2531   1.514   9.245  25.306  0.0773  0.0457 -0.3587
59479W        W 2532  26.039   6.085   2.874 -0.2117  0.0707 -0.3129
59480W        W 2533  33.502  12.355  14.393 -0.2272 -0.2025  0.0576
59481W        W 2534  18.568  16.888   4.570 -0.2143  0.1241  0.0708
59482W        W 2535  30.263  22.859   1.300 -0.1961 -0.2020 -0.0690
59483W        W 2536   2.876  17.388   8.062 -0.1051 -0.1065  0.0846
59484W        W 2537  17.264  21.088  17.225 -0.1965  0.0172 -0.0543
59485W        W 2538   0.608  12.876   7.626  0.1222  0.1018  0.3294
59486W        W 2539   3.714  27.196  14.300 -0.0162 -0.0179  0.0489
59487W        W 2540   9.811   2.537   3.917 -0.1131  0.2277 -0.5324
59488W        W 2541  25.260  29.548   0.792  0.5218 -0.6264  0.2068
59489W        W 2542   8.761   7.893   9.109 -0.1308 -0.2474  0.3579
59490W        W 2543  29.942  26.264   7.465  0.0728  0.2483  0.0047
59491W        W 2544  10.126  11.892   5.401  0.0682  0.0667  0.1825
59492W        W 2545  27.493  15.196  20.612  0.2370 -0.0249 -0.1160
59493W        W 2546  21.462  14.116   5.701  0.2296 -0.1182 -0.0869
59494W        W 2547   0.153  18.842   9.708 -0.3861  0.2462  0.1559
59495W        W 2548  10.124  16.346  29.068  0.2212 -0.2366 -0.1066
59496W        W 2549  26.575   5.708   5.543  0.0468 -0.0804  0.0352
59497W        W 2550  12.483  22.359   8.671 -0.2196 -0.1176 -0.1209
59498W        W 2551  16.150  13.503   5.436  0.0589  0.2514  0.3348
59499W        W 2552  32.927  28.696   0.191  0.1682 -0.0346  0.1230
59500W        W 2553  24.213  31.386  28.647 -0.0252 -0.0292 -0.1721
59501W        W 2554   3.557  19.456   5.427  0.0432  0.0039  0.1073
59502W        W 2555   0.839  15.367   1.515  0.0909 -0.1684 -0.2460
59503W        W 2556   0.079  15.763   2.666 -0.2165  0.0004  0.0099
59504W        W 2557  31.383  11.021   9.245 -0.1911  0.3319  0.1658
59505W        W 2558  34.109  15.151  21.420  0.2123 -0.4407  0.1150
59506W        W 2559  15.723   1.923   7.390  0.1373  0.0822 -0.2307
59507W        W 2560  30.355  19.789  28.914 -0.2207  0.1462 -0.0963
59508W        W 2561   3.800   4.014   2.579 -0.2413 -0.0988  0.2674
59509W        W 2562  32.180  20.310  14.146 -0.2049  0.3349  0.0344
59510W        W 2563  11.497   1.481  23.467 -0.1764  0.1100  0.0143
59511W        W 2564  26.382   7.070  27.514 -0.0727 -0.1221 -0.1228
59512W        W 2565  26.412  15.021  27.759  0.2015 -0.1308 -0.1272
59513W        W 2566   5.557   6.066  19.728  0.1571  0.1902 -0.1468
59514W        W 2567   9.796  26.927   8.412  0.0883  0.1668 -0.0458
59515W        W 2568  33.268  11.015   1.115 -0.0983  0.0099 -0.1227
59516W        W 2569   9.543  16.906  18.808  0.3816 -0.1342 -0.1481
59517W        W 2570  32.489  33.691   9.449 -0.2174 -0.0706  0.0618
59518W        W 2571  26.922   6.204   7.545  0.1996  0.2681  0.0770
59519W        W 2572  23.667  18.022  25.449  0.2375 -0.0745  0.1480
59520W        W 2573   3.326  13.108   1.275  0.0239 -0.0434  0.0525
59521W        W 2574  18.170  11.439   2.620  0.1112 -0.0933 -0.0267
59522W        W 2575   4.919   4.103   8.143 -0.2190 -0.1931 -0.0834
59523W        W 2576   0.546   6.792   9.466  0.3599 -0.0016  0.4400
59524W        W 2577  31.435   2.739  26.167 -0.1474  0.1639 -0.2844
59525W        W 2578  31.515  20.629   9.382 -0.0457 -0.3057 -0.2492
59526W        W 2579  33.532  18.365  27.402  0.1070 -0.1912 -0.2067
59527W        W 2580   8.479  34.008  28.790  0.6381 -0.0414 -0.1613
59528W        W 2581  13.234   5.987   2.504  0.3007 -0.0059 -0.3570
59529W        W 2582   1.964  16.305  19.381 -0.0576 -0.0302  0.0689
59530W        W 2583  14.330   9.021  10.522 -0.1676 -0.0537 -0.5256
59531W        W 2584  19.014  13.102  18.589  0.0375 -0.1068 -0.1505
59532W        W 2585  31.778  17.401   6.820 -0.2263 -0.1203 -0.1684
59533W        W 2586   0.651   1.154  22.930 -0.0711 -0.0532  0.1636
59534W        W 2587  29.404  22.104   8.378 -0.2563 -0.0803 -0.0734
59535W        W 2588  21.546  14.285   7.267  0.3954  0.2197 -0.2911
59536W        W 2589  10.608  20.628  22.114 -0.2770  0.5316  0.3198
59537W        W 2590   9.974  12.025  25.082 -0.0523 -0.1287  0.0069
59538W        W 2591  24.531  32.078   2.507  0.2106 -0.0573 -0.2453
59539W        W 2592   0.184  33.269   9.280  0.0054  0.0922 -0.1150
59540W        W 2593  26.808   6.705  26.775 -0.1046 -0.0403  0.0567
59541W        W 2594  17.516  19.332  27.111  0.0333 -0.0432  0.1926
59542W        W 2595   6.073   8.468   5.140  0.0260  0.0431 -0.2357
59543W        W 2596  31.864  30.291  28.534  0.0114 -0.0203 -0.1726
59544W        W 2597  29.421  30.209   2.836  0.0068  0.1179  0.1117
59545W        W 2598  24.370  11.832   7.747 -0.0079 -0.0620 -0.1773
59546W        W 2599  28.809  33.423   0.073 -0.1192  0.0592  0.2110
59547W        W 2600   0.177  32.017  26.401 -0.1591  0.0662  0.1328
59548W        W 2601  11.331  17.957   3.961 -0.0467 -0.0757 -0.1435
59549W        W 2602  29.623   8.464  20.971  0.0401  0.0734 -0.0649
59550W        W 2603   3.523  15.522   2.464  0.1925 -0.1583  0.1352
59551W        W 2604  30.009  20.915  28.334 -0.0286 -0.2010  0.1239
59552W        W 2605  29.389   2.618   0.741  0.2227  0.1835  0.0616
59553W        W 2606  28.346   7.322  28.086 -0.1140  0.1190 -0.2277
59554W        W 2607  31.029  30.066   2.039  0.2249  0.3483 -0.2346
59555W        W 2608   8.890  17.411   4.290  0.0689 -0.1101  0.2780
59556W        W 2609  10.473   1.307   1.266  0.0034 -0.0291 -0.1918
59557W        W 2610  15.901  25.446   0.111 -0.2842  0.4683 -0.1447
59558W        W 2611   0.727   7.934   9.457 -0.0512 -0.1250  0.1640
59559W        W 2612  14.144   8.907   3.510  0.1087  0.3511  0.0255
59560W        W 2613   4.261  12.847  23.329 -0.1894 -0.0316  0.1290
59561W        W 2614   3.149   6.799  17.299 -0.1398  0.0639  0.0332
59562W        W 2615  17.078  17.356  24.816 -0.0156  0.1142  0.0942
59563W        W 2616   0.892  11.347  25.488 -0.3472 -0.0133 -0.0435
59564W        W 2617  30.675  10.024   8.922 -0.0855 -0.2689 -0.1073
59565W        W 2618   7.533   7.077   5.827  0.0044 -0.1642 -0.1693
59566W        W 2619   9.185  16.566   6.114 -0.0160  0.3476 -0.2751
59567W        W 2620  28.732   1.382   6.674  0.1043  0.2729 -0.0396
59568W        W 2621   6.610  11.546  20.318 -0.0912 -0.1478 -0.1153
59569W        W 2622  14.686  28.691   4.682  0.0786  0.1615 -0.1218
59570W        W 2623   5.498  12.004   4.234  0.2201 -0.0231  0.1259
59571W        W 2624   9.137  20.466  21.891  0.3437 -0.2328  0.0592
59572W        W 2625   3.623  24.099   3.397  0.1508  0.0539 -0.0810
59573W        W 2626  15.676  18.248   3.448 -0.0540 -0.0173 -0.1706
59574W        W 2627   9.554  10.108   0.577  0.1032 -0.0206 -0.0434
59575W        W 2628  29.904  10.487   9.599  0.2860 -0.4593 -0.0647
59576W        W 2629  16.080  22.708   6.835 -0.1243 -0.2241  0.0267
59577W        W 2630   2.132  13.156   8.963 -0.1525 -0.2052  0.1284
59578W        W 2631   5.855  14.888   6.616 -0.2202  0.2152 -0.0957
59579W        W 2632  27.169  13.913   1.974  0.0994  0.2232 -0.0890
59580W        W 2633  17.787   7.557  29.144 -0.2916 -0.0347  0.0001
59581W        W 2634  12.501   1.832   7.641  0.1034 -0.0955  0.1644
59582W        W 2635   0.191   8.066   5.179  0.1433 -0.1071 -0.2735
59583W        W 2636  22.284   0.384  20.646  0.1976 -0.1806 -0.0082
59584W        W 2637  18.338   4.610   7.023  0.0186 -0.3787  0.1559
59585W        W 2638  25.188  24.628   9.418 -0.0671 -0.0603 -0.2090
59586W        W 2639   3.689  17.174   6.627  0.3317 -0.0623 -0.1907
59587W        W 2640  17.437  20.514  22.972  0.2056  0.5458  0.0251
59588W        W 2641   2.000  22.639   7.409  0.0125 -0.0742  0.1260
59589W        W 2642  29.829  10.704   7.894 -0.1036 -0.0272  0.1073
59590W        W 2643  19.919  14.684  19.763 -0.1446  0.0660 -0.1706
59591W        W 2644  29.944  26.826   8.747  0.0624 -0.1441  0.2842
59592W        W 2645   2.722   5.082   6.468 -0.3458 -0.0305 -0.0558
59593W        W 2646   3.865   8.315   9.458  0.1335  0.1705  0.0906
59594W        W 2647   4.421   9.480   1.129 -0.0887 -0.1817 -0.0891
59595W        W 2648   8.163  25.234   7.434 -0.1331  0.1184 -0.0206
59596W        W 2649  27.974  18.829  10.375 -0.2305 -0.2452 -0.2204
59597W        W 2650   6.902  13.332  10.036 -0.1666  0.3924 -0.3758
59598W        W 2651  10.367  17.015   9.927  0.0559 -0.1471 -0.0800
59599W        W 2652   4.311  15.524   7.954 -0.0747 -0.1092 -0.0061
59600W        W 2653  26.091  15.977   7.822 -0.4434  0.3318  0.0033
59601W        W 2654   2.869  29.772   3.632  0.1245  0.2397  0.2649
59602W        W 2655   2.976   6.310   7.105  0.1011 -0.2923 -0.3414
59603W        W 2656   5.498  19.188  24.083  0.0501 -0.1497  0.0710
59604W        W 2657  26.370   6.067   7.074 -0.0564  0.1123  0.0386
59605W        W 2658  30.962  33.004   6.531  0.2489 -0.0229 -0.0755
59606W        W 2659   7.507  29.073  25.261  0.0902  0.1698  0.1394
59607W        W 2660   4.204   2.856   3.704  0.0724 -0.0839  0.0535
59608W        W 2661  18.811  33.307   6.417 -0.1732  0.0791 -0.0455
59609W        W 2662  34.052   7.185   6.368  0.1984  0.1649  0.2968
59610W        W 2663   5.367   5.832  20.234 -0.0350  0.2269 -0.2825
59611W        W 2664   1.541  31.912   8.073 -0.3885  0.2257 -0.1447
59612W        W 2665  28.506  15.295   9.216  0.0133 -0.2445  0.0610
59613W        W 2666   4.023  15.893  28.872  0.0551 -0.2512  0.0220
59614W        W 2667   6.008  27.740   5.517  0.1432 -0.0956 -0.1850
59615W        W 2668  30.363  14.055   2.486 -0.1694  0.1012  0.0383
59616W        W 2669  19.468  10.276   7.434 -0.1412  0.2105  0.1718
59617W        W 2670   7.826   8.851   4.210 -0.0143  0.0193  0.2211
59618W        W 2671  14.995  12.918   9.536  0.1062  0.2028  0.1576
59619W        W 2672   0.814  12.647   5.933 -0.0321  0.0635  0.1065
59620W        W 2673   0.063  29.249   5.608  0.1906  0.1744 -0.1144
59621W        W 2674   5.881  32.361   8.899  0.1823  0.1551  0.2895
59622W        W 2675   8.364  11.383  11.028 -0.1960 -0.1693  0.1110
59623W        W 2676   1.884   7.786   8.016  0.2971 -0.1936 -0.1177
59624W        W 2677   0.307   9.844   5.896  0.3479 -0.1723 -0.1214
59625W        W 2678  33.062  15.883   3.818 -0.0133 -0.1255  0.0156
59626W        W 2679   2.219  24.919   8.950 -0.1183  0.2951  0.1450
59627W        W 2680   2.800  20.531   9.256 -0.1246 -0.0682 -0.0700
59628W        W 2681   4.797   7.642   6.764  0.0880  0.2155  0.2511
59629W        W 2682  15.498   4.873   9.280 -0.1732  0.1256  0.3309
59630W        W 2683   2.938  21.640   5.047 -0.0115 -0.0144  0.1030
59631W        W 2684  30.253  18.368   6.845  0.1330 -0.2535 -0.0230
59632W        W 2685  12.611  11.029  24.405  0.2174  0.3438 -0.1443
59633W        W 2686  27.113  27.198   8.061 -0.0182 -0.0579 -0.0100
59634W        W 2687  24.754  20.348   7.965  0.1141 -0.1793  0.1760
59635W        W 2688  11.019   7.419   3.958  0.1629  0.0911 -0.2189
59636W        W 2689   8.637  11.489   8.217 -0.1882 -0.0841 -0.2961
59637W        W 2690   4.309  19.662  28.188 -0.3198 -0.3528 -0.2769
59638W        W 2691   3.497  33.465   9.516 -0.1543  0.0132  0.2152
59639W        W 2692  24.248  18.017   9.521  0.3430  0.2396 -0.5210
59640W        W 2693   3.707  17.656  28.454 -0.1432 -0.0322 -0.2851
59641W        W 2694   1.419  23.024  28.191 -0.3720  0.0934 -0.0022
59642W        W 2695  20.929  11.537   5.091  0.2106  0.0329 -0.0653
59643W        W 2696  10.970  16.751  27.915 -0.0957 -0.1255  0.1705
59644W        W 2697  25.940  14.138  28.870 -0.2575  0.1191 -0.3337
59645W        W 2698  23.516  23.847  19.147  0.0368  0.0165  0.1632
59646W        W 2699  32.415  11.734   5.739  0.0167  0.0757 -0.0202
59647W        W 2700  33.511  27.701   8.203  0.0674  0.1318 -0.2489
59648W        W 2701  29.210  27.052  16.781 -0.0801 -0.2132  0.1572
59649W        W 2702  32.650  10.848   5.088  0.1675  0.4669  0.1354
59650W        W 2703  29.865  11.811   7.961 -0.1216  0.0179  0.0258
59651W        W 2704   6.443   5.535  28.652  0.2324  0.2029 -0.1970
59652W        W 2705   0.719   3.982   5.643  0.0840 -0.0630 -0.0790
59653W        W 2706   5.694   9.823  28.728  0.0775  0.0595 -0.0537
59654W        W 2707   7.370  18.889  26.791  0.0829 -0.0801  0.0748
59655W        W 2708  34.664   7.794   6.056 -0.1623  0.0740 -0.2062
59656W        W 2709   4.365  24.731   8.474 -0.1061 -0.2126  0.0699
59657W        W 2710  33.346  23.090   1.325  0.1662 -0.0574 -0.3315
59658W        W 2711   2.498  14.057   2.796 -0.0974 -0.0229  0.1982
59659W        W 2712  13.207  22.933   0.404  0.1142  0.1500 -0.3783
59660W        W 2713  31.120  33.631  10.091 -0.0949  0.0809  0.0679
59661W        W 2714  18.063   7.975  25.095 -0.0297  0.1489 -0.2160
59662W        W 2715   1.279  29.525   9.040  0.3710 -0.1361  0.1518
59663W        W 2716   5.079  22.707   4.976 -0.0605  0.2133 -0.0188
59664W        W 2717  27.213  15.416   5.300 -0.1726  0.0507  0.0625
59665W        W 2718  24.049   6.837   8.753  0.2753  0.0554 -0.0275
59666W        W 2719   5.835   2.118   4.232  0.1111 -0.0250 -0.0925
59667W        W 2720   3.891   8.556  21.199 -0.2483  0.0228 -0.0817
59668W        W 2721  12.015  10.932   7.092  0.1208 -0.4471  0.0098
59669W        W 2722   0.998  34.369   1.220 -0.1297 -0.0657  0.3166
59670W        W 2723  12.706   7.618   8.457  0.0774 -0.1359 -0.1756
59671W        W 2724  32.809   3.884   1.109  0.1061  0.1308  0.0701
59672W        W 2725   7.336   5.560   8.994 -0.1993 -0.3226 -0.1522
59673W        W 2726   8.618  14.896   7.213  0.0118 -0.0083  0.2016
59674W        W 2727  27.036   3.585   6.086  0.0079 -0.2911  0.0056
59675W        W 2728   8.295   8.050  10.773 -0.0747  0.0743  0.2962
59676W        W 2729   2.509  22.113  28.090 -0.0026 -0.2777  0.1629
59677W        W 2730  29.620  12.456   1.210 -0.0768  0.0041  0.1364
59678W        W 2731  27.090  26.005  24.165 -0.2568 -0.1578  0.1471
59679W        W 2732  20.258   0.088   0.738  0.0437 -0.0135  0.2578
59680W        W 2733  11.991  20.058   5.447 -0.2051  0.2050  0.6749
59681W        W 2734  29.715  12.638  22.614  0.0867  0.2069  0.0492
59682W        W 2735   5.877  14.389   1.300  0.2633 -0.0039  0.2177
59683W        W 2736  11.456   9.207   5.125  0.2904 -0.0280 -0.1437
59684W        W 2737  30.182  13.842  26.181 -0.0920  0.1762  0.0082
59685W        W 2738  16.444  27.542  20.967 -0.0487  0.0182 -0.1133
59686W        W 2739  12.588  21.109  26.675 -0.2660 -0.3640 -0.0448
59687W        W 2740  11.622   6.816   6.554 -0.2341 -0.2871  0.2045
59688W        W 2741  34.620   9.730   4.452  0.0108  0.1241  0.1324
59689W        W 2742  13.514  12.755  10.468  0.1693 -0.2246  0.1335
59690W        W 2743  10.869   4.613  19.902 -0.0927 -0.1894  0.2970
59691W        W 2744   3.795  14.359   7.542  0.1150  0.0403  0.5267
59692W        W 2745   4.918  10.766   3.428 -0.0104  0.3058  0.3482
59693W        W 2746   4.040  19.421   2.963 -0.1135  0.0317 -0.1417
59694W        W 2747   4.091  11.159   6.400 -0.0030  0.1841 -0.0455
59695W        W 2748  28.449  15.356   8.580  0.0961  0.0097  0.2526
59696W        W 2749  17.798   7.336   5.350 -0.2764  0.0875  0.1537
59697W        W 2750   8.376  14.474   0.661 -0.0314  0.1061 -0.1804
59698W        W 2751  33.551  11.142   7.749  0.2614  0.0099  0.2920
59699W        W 2752   6.707   0.014  10.214 -0.1180  0.0861 -0.0158
59700W        W 2753  27.692  25.319   3.781 -0.1261 -0.1148 -0.1607
59701W        W 2754  13.739   3.893   7.515  0.1227 -0.1784  0.1263
59702W        W 2755   2.421   2.545   6.439  0.1645  0.2144 -0.2404
59703W        W 2756  13.617  32.129   6.821 -0.2097 -0.1775  0.0003
59704W        W 2757  30.677  32.505  20.023  0.0996  0.0301 -0.0349
59705W        W 2758  16.281   5.951   5.907 -0.3168  0.1818  0.2491
59706W        W 2759  13.513  11.220   3.796  0.0855  0.0606 -0.1246
59707W        W 2760  17.943  15.771   7.546 -0.0923  0.0973  0.2968
59708W        W 2761  33.669  17.867  27.544  0.0389  0.3253 -0.2114
59709W        W 2762  26.267  24.683   4.101 -0.1310 -0.4364 -0.0878
59710W        W 2763  10.970   7.777   8.296  0.1111 -0.3005  0.0019
59711W        W 2764   6.361  12.116   6.011  0.1004  0.1910 -0.2286
59712W        W 2765   3.332   3.756   5.577  0.1841 -0.0846  0.1002
59713W        W 2766  14.028   5.985   3.036  0.0364  0.1950 -0.1694
59714W        W 2767  33.229   1.548  26.659 -0.0591  0.0074 -0.2312
59715W        W 2768   3.609   8.275   2.922  0.0604  0.2197  0.2222
59716W        W 2769   2.275  16.762   8.703  0.0567  0.1002  0.0876
59717W        W 2770  31.255  10.722   6.960 -0.3112  0.2041 -0.1446
59718W        W 2771  31.438  14.921   2.054  0.0507  0.0716  0.1933
59719W        W 2772  22.912  20.636  27.285  0.1213 -0.1862  0.0198
59720W        W 2773  13.005   5.053  22.178  0.3797 -0.2036 -0.1889
59721W        W 2774   3.048  20.817   6.661  0.3512  0.2317 -0.1108
59722W        W 2775   8.638   5.202  26.678  0.0890  0.2793 -0.3544
59723W        W 2776   6.496  19.507   3.160 -0.0555  0.1008 -0.1206
59724W        W 2777   9.878  11.046   2.452 -0.1357 -0.0654 -0.2062
59725W        W 2778   3.489   6.149   3.065  0.0864 -0.2235  0.2461
59726W        W 2779  10.059   2.598   8.138 -0.1515  0.3703 -0.0641
59727W        W 2780   9.367  29.319  27.819  0.1635  0.1166 -0.0961
59728W        W 2781   5.064  30.053   8.256 -0.0608 -0.1432 -0.0896
59729W        W 2782   7.516   3.761   9.229 -0.0107  0.0195 -0.2672
59730W        W 2783   6.003  27.436   6.956  0.2155  0.0170  0.2931
59731W        W 2784  30.234  11.529   8.807 -0.1351  0.1263 -0.1699
59732W        W 2785  17.988   5.652   9.287 -0.2604 -0.2987 -0.2642
59733W        W 2786   3.364  10.912   0.785  0.3160 -0.0015  0.3565
59734W        W 2787  13.973   7.864   0.605 -0.1314 -0.0820  0.1162
59735W        W 2788  15.864   7.557  10.474  0.1982 -0.0354  0.3481
59736W        W 2789  11.159  16.991   9.096 -0.1449 -0.1931 -0.2045
59737W        W 2790  26.427  19.276  28.201  0.2546  0.3221 -0.3904
59738W        W 2791   9.106  10.029  10.311  0.0116 -0.2295 -0.2111
59739W        W 2792  19.370  12.544   7.496 -0.0670  0.1084 -0.4327
59740W        W 2793  31.878  29.764   3.654 -0.0317 -0.0320 -0.0401
59741W        W 2794   9.276  25.365  18.100  0.0914 -0.0606  0.1238
59742W        W 2795  33.281  22.423   7.729  0.0108  0.0915 -0.0658
59743W        W 2796   7.215   4.617   9.908  0.0279  0.0188  0.0507
59744W        W 2797  33.892  13.437   1.926  0.3111  0.0120 -0.1362
59745W        W 2798   3.433  10.834   6.479  0.1471  0.0729 -0.1759
59746W        W 2799  26.441  13.042   3.881 -0.1004  0.1167  0.1185
59747W        W 2800  25.384   5.636   8.987  0.2548 -0.1662  0.2680
59748W        W 2801   8.474  11.706   3.443  0.0531 -0.2072 -0.1275
59749W        W 2802  33.427   2.495   7.286  0.0594  0.1707  0.3113
59750W        W 2803  24.102  19.554   4.727  0.1294 -0.1118  0.2622
59751W        W 2804  13.983   9.249  20.969 -0.1092 -0.0466  0.0386
59752W        W 2805  11.624   3.555  23.645  0.0467 -0.1148 -0.0298
59753W        W 2806   2.093  13.570   7.714  0.2180 -0.1017  0.0214
59754W        W 2807  13.000  21.552   0.543  0.0784 -0.3598  0.0533
59755W        W 2808   2.873   5.378   2.311 -0.1363 -0.3499  0.0606
59756W        W 2809   8.737   4.799   9.522 -0.3561 -0.0556 -0.2933
59757W        W 2810  33.046   6.937   9.826  0.0140 -0.0597 -0.0255
59758W        W 2811  19.520  18.681   0.401  0.0593 -0.1113 -0.3902
59759W        W 2812   4.340   5.778   5.570 -0.0784 -0.0148 -0.0828
59760W        W 2813  31.944   9.408   9.146 -0.0207 -0.0211 -0.1421
59761W        W 2814  32.039  11.217   8.878  0.2009 -0.2096 -0.2299
59762W        W 2815  31.246  13.783  28.096 -0.2395 -0.0561  0.0388
59763W        W 2816  33.928  18.901   7.475 -0.1540 -0.0356 -0.1319
59764W        W 2817  24.488  22.750   6.434  0.0925 -0.1474 -0.1959
59765W        W 2818  22.383   1.042   3.657 -0.2671  0.3341 -0.0436
59766W        W 2819  30.940  13.190  18.829  0.1872 -0.0124 -0.1278
59767W        W 2820  31.761  21.480   8.554 -0.0566 -0.3153  0.2929
59768W        W 2821  30.841  13.394  10.139  0.1428 -0.0231 -0.1231
59769W        W 2822  26.623  11.120   9.180  0.0820  0.1307 -0.1191
59770W        W 2823   7.849  33.455   4.845  0.3334 -0.0933 -0.2066
59771W        W 2824   8.456   9.382   6.330  0.1029  0.0119  0.2024
59772W        W 2825   0.949   3.806   4.536 -0.1216 -0.0252 -0.1447
59773W        W 2826   4.586  29.725   6.320  0.1175 -0.0645  0.1636
59774W        W 2827   2.849   1.249   2.473  0.1376 -0.1055  0.0760
59775W        W 2828  27.613  18.357   4.960 -0.1622 -0.0077  0.2920
59776W        W 2829  17.336  18.363   9.798  0.1961  0.1944 -0.3195
59777W        W 2830  18.659  32.226   1.596 -0.0589 -0.1332 -0.0687
59778W        W 2831  10.426  28.021  24.547  0.0314  0.0576 -0.0238
59779W        W 2832   0.569  19.871   6.878  0.3121  0.0075 -0.0903
59780W        W 2833  26.922  15.401   8.520  0.2463  0.0883  0.1694
59781W        W 2834   9.025   6.377  10.338  0.1983 -0.1471  0.0502
59782W        W 2835   6.836   5.263   6.893 -0.0181 -0.1410 -0.1297
59783W        W 2836   4.757  32.065   6.482 -0.0041  0.0590 -0.0401
59784W        W 2837  21.451   2.132  17.359 -0.2117  0.3071 -0.0126
59785W        W 2838  32.269  33.139   3.151 -0.0498  0.0116 -0.0405
59786W        W 2839   9.648  23.799   9.074  0.3877 -0.1075 -0.0106
59787W        W 2840   9.042  10.775   3.647 -0.0494 -0.2919  0.4762
59788W        W 2841   0.246   4.603  27.694  0.3277  0.2255 -0.1474
59789W        W 2842  15.415  32.411  28.639  0.0039 -0.2037 -0.1559
59790W        W 2843   9.242   7.455   5.345 -0.1742  0.3314  0.2958
59791W        W 2844   4.721  17.943   5.389  0.2455 -0.0299 -0.1141
59792W        W 2845  14.114   8.954   0.841 -0.2649 -0.0976 -0.4377
59793W        W 2846   2.015   0.921  28.526  0.4506  0.1201 -0.2166
59794W        W 2847  28.001  33.171  29.052  0.0857 -0.0769 -0.1949
59795W        W 2848  31.252  11.845  20.243  0.2351 -0.0014 -0.3350
59796W        W 2849   1.301  12.321   0.826  0.0782 -0.0470  0.3975
59797W        W 2850  14.348   3.775   6.561 -0.1693  0.2989  0.1248
59798W        W 2851   6.479   3.582   6.700 -0.1695  0.0680 -0.0772
59799W        W 2852  32.479   5.620  23.849  0.3427 -0.2133  0.0220
59800W        W 2853  31.463  16.842  10.032  0.2354  0.0535  0.2085
59801W        W 2854  32.138  24.219   3.756  0.1409 -0.3085 -0.3755
59802W        W 2855   9.486   8.784   9.655 -0.2119  0.0573 -0.2140
59803W        W 2856  31.719  15.155  20.917  0.2001  0.0625 -0.0731
59804W        W 2857  12.012   3.944  23.575  0.0045  0.0278 -0.0257
59805W        W 2858   9.533   5.154   8.006 -0.0641 -0.3958  0.0796
59806W        W 2859   3.054   3.442   7.235 -0.0798 -0.0835 -0.1423
59807W        W 2860  19.582  11.256   0.011 -0.3307 -0.0498  0.0423
59808W        W 2861  34.475  32.950   3.879  0.4180 -0.3053  0.1184
59809W        W 2862  26.781   0.237   4.590 -0.2095 -0.1334  0.0515
59810W        W 2863  13.678  10.052   3.289  0.0376 -0.1754  0.1470
59811W        W 2864   2.815  15.314   1.155  0.1403 -0.0892 -0.1312
59812W        W 2865  11.985   8.076   9.112 -0.1057 -0.0260 -0.1790
59813W        W 2866   3.506   5.883   6.514 -0.1698  0.1843  0.1109
59814W        W 2867  22.818  21.605   4.865  0.3346  0.1371  0.1509
59815W        W 2868  32.632  13.092   9.440 -0.0534  0.1146 -0.0074
59816W        W 2869  11.373  10.567   8.260  0.3044  0.2064 -0.0093
59817W        W 2870   5.720   4.141  25.330  0.2935 -0.0537 -0.2751
59818W        W 2871  32.587   6.833   8.405  0.0340 -0.0282  0.2169
59819W        W 2872  25.303  25.938   4.775  0.1244 -0.1296 -0.1508
59820W        W 2873   8.371  19.886   6.601  0.1129 -0.0002  0.0259
59821W        W 2874   1.020  14.438   8.083 -0.2081  0.1610  0.2248
59822W        W 2875  29.814  26.415   3.287 -0.4074 -0.0987  0.0374
59823W        W 2876   1.272  23.945   8.801 -0.0305 -0.0438  0.1590
59824W        W 2877   4.068  12.679   7.223 -0.0238 -0.1222 -0.1603
59825W        W 2878   3.563  11.480   2.066  0.0771 -0.0492  0.2008
59826W        W 2879  24.821  17.249  28.332 -0.1240  0.0278  0.4829
59827W        W 2880   0.325  12.455   3.740  0.2018 -0.0016 -0.1704
59828W        W 2881  16.242   6.325   9.792 -0.1961 -0.1234  0.0914
59829W        W 2882   2.550  24.186   0.768  0.1356  0.1875 -0.0354
59830W        W 2883  30.037   8.393   6.776 -0.1596  0.0086  0.0518
59831W        W 2884  12.106  12.799   6.808  0.0464 -0.1212 -0.0732
59832W        W 2885   2.074  11.806   3.029 -0.1315 -0.2198  0.4119
59833W        W 2886   4.573  23.482  26.232 -0.0286 -0.0246 -0.1494
59834W        W 2887  10.709  22.083   8.180  0.0608  0.0575  0.0185
59835W        W 2888   6.767  11.590  21.299  0.2226 -0.1142  0.0277
59836W        W 2889  21.388  13.421   3.103  0.0973  0.0859 -0.5382
59837W        W 2890  25.641  29.302  19.222 -0.0560 -0.0207 -0.0007
59838W        W 2891  32.166   7.077  10.730  0.0102  0.2343 -0.1026
59839W        W 2892   5.652  14.259   8.492 -0.4016  0.0068  0.2492
59840W        W 2893   3.522  24.411   6.456  0.2121 -0.1397  0.1932
59841W        W 2894   6.044   9.157   1.373  0.1310 -0.2112  0.0564
59842W        W 2895  11.575   9.650  28.489 -0.1520  0.1747  0.1439
59843W        W 2896  20.545  11.037   4.586 -0.0538  0.1194  0.0963
59844W        W 2897  21.146   3.102   7.291 -0.2308 -0.2576 -0.0224
59845W        W 2898   3.810   9.234  28.898 -0.1143 -0.0405  0.3031
59846W        W 2899  29.287  29.202   3.413  0.0913 -0.3258 -0.2458
59847W        W 2900   4.916   9.291   9.874  0.1570 -0.2107 -0.4067
59848W        W 2901  26.565  11.564  25.377 -0.0220 -0.0372  0.2556
59849W        W 2902  12.935  12.029  10.613  0.1729 -0.1691  0.0567
59850W        W 2903   5.029  16.210  27.171 -0.0071 -0.0481  0.0696
59851W        W 2904  16.118  15.760   4.935  0.3880  0.2631 -0.0948
59852W        W 2905  11.657   3.565  21.830  0.1190 -0.1214 -0.1354
59853W        W 2906   5.310  13.063  20.623 -0.1879  0.1307 -0.2415
59854W        W 2907  27.900  25.020   3.209  0.2395  0.4125  0.0605
59855W        W 2908  18.159   6.898   6.124 -0.0019  0.0437  0.2474
59856W        W 2909  14.730  10.840   6.854 -0.0486 -0.0629  0.0344
59857W        W 2910  27.380  21.370  24.360 -0.1352 -0.1550  0.0362
59858W        W 2911   4.724  33.694   6.705  0.0308 -0.1268  0.0976
59859W        W 2912   3.680   5.980   7.678  0.3069  0.1918  0.0525
59860W        W 2913   9.367   1.438  14.561 -0.1645 -0.1127  0.1355
59861W        W 2914  24.459  17.940   7.443  0.4348 -0.0661  0.1633
59862W        W 2915   4.495   8.521  28.188  0.1346  0.0347  0.1425
59863W        W 2916   3.013  14.375  28.464  0.0814  0.0894  0.3960
59864W        W 2917  10.505   4.882  23.660 -0.1318  0.0743  0.0398
59865W        W 2918  20.970  22.769  23.913  0.1511 -0.1283 -0.3021
59866W        W 2919  31.883   3.351  25.817  0.1679 -0.0369  0.2134
59867W        W 2920   8.160  20.275  27.289  0.0397 -0.2326 -0.0207
59868W        W 2921   1.348   0.711   3.523  0.0141 -0.2181  0.3368
59869W        W 2922  11.127  34.449  26.692  0.0395 -0.1298 -0.3354
59870W        W 2923  33.535   3.836   6.696  0.1638 -0.0409  0.2223
59871W        W 2924   5.220  15.823   3.435 -0.1219  0.0379 -0.0365
59872W        W 2925   5.104  32.398   5.966  0.0688  0.0388  0.1864
59873W        W 2926  19.850   8.045  25.843 -0.1612 -0.1325 -0.1132
59874W        W 2927  12.782  23.804   8.104  0.0105 -0.3380 -0.1891
59875W        W 2928  32.193  11.188  24.338 -0.2284  0.0237  0.0794
59876W        W 2929  10.285   4.676   6.503  0.1101 -0.0239  0.1648
59877W        W 2930  18.330  12.815   9.003 -0.1246  0.0768 -0.0731
59878W        W 2931  19.041  15.128  23.947 -0.2938  0.0969  0.0786
59879W        W 2932  13.991   0.891   6.903  0.0918  0.2193  0.1382
59880W        W 2933   2.244  34.364  27.162 -0.2722  0.1740  0.1489
59881W        W 2934  33.014   7.862  28.432  0.1180  0.0788 -0.1026
59882W        W 2935  30.247  28.348   5.689  0.1183 -0.1641  0.3376
59883W        W 2936  31.524  15.459  28.314 -0.2709  0.1102 -0.3634
59884W        W 2937  30.261   9.076  28.493  0.6727  0.0462  0.0009
59885W        W 2938  31.350  12.619   7.139 -0.0179  0.0852 -0.1503
59886W        W 2939  34.120   2.860   0.449  0.1021 -0.0384  0.1990
59887W        W 2940   9.359  16.132  25.259  0.3375  0.1022  0.0146
59888W        W 2941  24.404   8.105  25.746  0.0388 -0.0485  0.0186
59889W        W 2942  11.626   3.539   9.220 -0.2386  0.0371  0.0806
59890W        W 2943  33.930  24.428  18.624  0.1392 -0.1986  0.2133
59891W        W 2944  32.597  16.081  19.762  0.0451 -0.0465 -0.1297
59892W        W 2945   9.539  10.136  24.531 -0.2232 -0.0260 -0.2580
59893W        W 2946  10.734  30.050   8.682  0.3242 -0.0428 -0.1200
59894W        W 2947  24.994   4.066   6.873  0.0172 -0.1515 -0.0516
59895W        W 2948  31.221  16.977   1.782 -0.1934  0.0461 -0.3520
59896W        W 2949   0.335  17.447  27.402 -0.0385  0.0337  0.2395
59897W        W 2950  16.833  29.577   9.698 -0.1918  0.0437 -0.0488
59898W        W 2951  24.450  18.251  13.003  0.0165 -0.1257 -0.0733
59899W        W 2952  27.764  17.370   1.538 -0.0722  0.0203  0.0950
59900W        W 2953  20.303  13.356  26.655  0.1185 -0.0304 -0.2716
59901W        W 2954   9.357  12.165   1.178  0.0442 -0.0075  0.0839
59902W        W 2955  26.282  10.402  25.082  0.0178 -0.3228  0.0322
59903W        W 2956   4.686  14.278   8.442 -0.1022  0.1219  0.1229
59904W        W 2957   0.209   9.360   9.883  0.2185 -0.1070 -0.0157
59905W        W 2958   4.698  27.059  28.536  0.0776 -0.2726  0.4606
59906W        W 2959  29.669  17.251  21.145  0.1257 -0.0440 -0.0709
59907W        W 2960   6.909   4.214   7.944  0.0683 -0.1118  0.0086
59908W        W 2961   3.475  26.837   8.120 -0.2703  0.0829  0.2287
59909W        W 2962   9.233   7.697   1.544 -0.2714 -0.2425 -0.2326
59910W        W 2963  25.090  32.867   8.682  0.1379  0.0232  0.1133
59911W        W 2964  23.424   8.454   3.038 -0.2945 -0.0616 -0.3119
59912W        W 2965   2.797  23.799   6.147 -0.1117  0.0518 -0.2944
59913W        W 2966  31.237   5.526   5.590 -0.0061  0.2557  0.0292
59914W        W 2967   1.760  20.993   2.984 -0.1672  0.1917 -0.1704
59915W        W 2968  12.933  16.589  26.772 -0.0262  0.0143  0.0774
59916W        W 2969  14.626   7.434  24.481  0.0282 -0.0195  0.2152
59917W        W 2970   1.679  10.098   8.646  0.0118  0.3065  0.1306
59918W        W 2971  34.219   9.322   4.018  0.5284 -0.1285 -0.0565
59919W        W 2972  33.642  17.185   9.923 -0.2035 -0.0015 -0.1058
59920W        W 2973   7.369   1.858  27.337  0.0217 -0.2814  0.2659
59921W        W 2974  34.200   3.534   4.372  0.1303  0.2973  0.3406
59922W        W 2975   2.310  21.531   8.643 -0.1026 -0.0755 -0.2673
59923W        W 2976   4.559  18.956   8.648 -0.0566 -0.1337  0.0292
59924W        W 2977  16.355   2.475   8.352  0.0457 -0.3054  0.1425
59925W        W 2978   8.462  27.621   3.842  0.1683  0.2212  0.0181
59926W        W 2979   9.527  21.222  27.196 -0.0493 -0.0293  0.0250
59927W        W 2980  21.587  10.723   7.485 -0.0331 -0.1393 -0.2261
59928W        W 2981  20.966  24.576   3.754 -0.0093  0.4761 -0.1906
59929W        W 2982  13.138  30.850   5.238 -0.3820  0.0263 -0.1386
59930W        W 2983   9.711   3.513  10.282  0.0968  0.0532  0.1261
59931W        W 2984  31.544  14.693   7.513 -0.0910  0.1077  0.1207
59932W        W 2985  31.708   3.272   8.928  0.1197 -0.2234  0.2099
59933W        W 2986  31.477  19.832  22.814 -0.0133 -0.0886  0.2079
59934W        W 2987   2.492  30.334  21.196  0.1767  0.3584  0.1111
59935W        W 2988  29.805  24.201  27.901  0.2112  0.0248  0.1912
59936W        W 2989  21.351  23.834   5.214  0.0808 -0.0876 -0.1328
59937W        W 2990   5.368  11.093   0.576  0.0766  0.3383 -0.0572
59938W        W 2991  34.032  24.793  22.348  0.5976 -0.1674 -0.2367
59939W        W 2992   1.297  25.258  28.735 -0.2290 -0.5175 -0.1883
59940W        W 2993  10.589  15.963   1.435  0.0591 -0.1163 -0.3939
59941W        W 2994  11.767   9.188  23.640  0.1245  0.2392 -0.1693
59942W        W 2995  30.317  24.307   8.773  0.3301  0.2843  0.0755
59943W        W 2996   0.037  17.547  15.281 -0.0433 -0.0451 -0.0615
59944W        W 2997  14.465  20.605   8.571 -0.0094  0.1460 -0.2743
59945W        W 2998   8.005  11.278  20.948  0.2354  0.1134 -0.2045
59946W        W 2999  26.077  21.676   1.071  0.1281  0.4189 -0.0114
59947W        W 3000  31.150   9.628   8.075  0.2159 -0.0825  0.1612
59948W        W 3001  18.559  29.854  22.047 -0.0044  0.2702  0.4230
59949W        W 3002   0.094  27.500   2.676 -0.0007  0.0792  0.2766
59950W        W 3003  21.500  17.483   0.173 -0.2232 -0.2561  0.0852
59951W        W 3004  30.408  26.357   0.379 -0.3376  0.1481  0.2448
59952W        W 3005   3.592  17.973   8.174 -0.0142 -0.1759  0.1151
59953W        W 3006  34.043  24.375   2.391 -0.2235 -0.3911 -0.2417
59954W        W 3007  28.582  24.151  16.181 -0.0428 -0.1257 -0.2009
59955W        W 3008  25.555  24.859  17.686  0.1623  0.0920 -0.0606
59956W        W 3009  13.673  31.685  20.160  0.0604 -0.0996 -0.1543
59957W        W 3010   7.946  25.489  20.313  0.0900  0.0336  0.2528
59958W        W 3011  12.696  28.764  25.596  0.3986  0.0173 -0.1636
59959W        W 3012   7.420   7.493  25.478  0.1521 -0.3623  0.1952
59960W        W 3013  18.091  11.805  24.246 -0.0317  0.0314  0.1733
59961W        W 3014   4.014  16.452   9.245  0.0397  0.1144  0.1300
59962W        W 3015  14.008   5.727  24.676 -0.0439  0.3098 -0.0541
59963W        W 3016  30.407   8.810  27.858 -0.3442  0.2690  0.3241
59964W        W 3017  16.374   8.255   1.703 -0.0785  0.0162 -0.2491
59965W        W 3018   6.470   7.715  24.154 -0.1187  0.3939 -0.1228
59966W        W 3019  31.095   4.023  23.066  0.1996 -0.0462  0.1549
59967W        W 3020   1.345  26.513  27.624 -0.1644  0.0000  0.0558
59968W        W 3021  33.034  13.810   1.006 -0.0934  0.1582 -0.0785
59969W        W 3022  31.649  10.441   8.130 -0.3183  0.0227 -0.5423
59970W        W 3023  29.311   7.929   7.036  0.2779 -0.2208  0.1754
59971W        W 3024   1.000   9.072  27.505  0.1747 -0.2045 -0.0065
59972W        W 3025   9.097  20.932   4.641  0.0871  0.0584  0.3346
59973W        W 3026  11.589  21.508  16.297  0.2133 -0.0221 -0.2815
59974W        W 3027   9.280  26.036  26.094 -0.0810  0.1218 -0.0260
59975W        W 3028  32.164   3.368   4.020  0.0744  0.0169  0.2833
59976W        W 3029  30.306  18.793  27.152 -0.1490  0.2986 -0.0048
59977W        W 3030  28.632  21.769  21.162 -0.2193  0.1739  0.0318
59978W        W 3031  18.357   9.706  15.248 -0.3456  0.0493  0.0857
59979W        W 3032  31.411  14.461  26.657 -0.1926  0.0360  0.2150
59980W        W 3033   1.168  14.971   5.873  0.1765  0.0965 -0.3819
59981W        W 3034   4.228  14.651   2.960  0.1411 -0.2620  0.0930
59982W        W 3035  22.663  20.182  15.140  0.1403  0.2069  0.1189
59983W        W 3036   2.966  10.858   0.314 -0.0228  0.3741  0.0666
59984W        W 3037  17.405  28.755   5.401 -0.0959  0.1322  0.1887
59985W        W 3038  20.997  14.461  22.711 -0.2438  0.0197 -0.0075
59986W        W 3039  23.055  28.932  22.826  0.3847  0.0396  0.0379
59987W        W 3040   7.124  18.455  27.947 -0.1123  0.0367  0.2441
59988W        W 3041  27.676  13.886  10.466 -0.1176 -0.0872 -0.2006
59989W        W 3042   2.709  13.979  18.054 -0.0926 -0.2839  0.0375
59990W        W 3043   5.640  16.456  19.524  0.0825  0.1223 -0.1174
59991W        W 3044   4.454  27.595  28.438  0.0671  0.1818  0.0610
59992W        W 3045  12.249   0.029   7.240 -0.1384  0.0272  0.3384
59993W        W 3046   1.638  10.759  25.419 -0.0571 -0.1219 -0.0940
59994W        W 3047  23.697  24.296   2.878 -0.0429  0.1261  0.1566
59995W        W 3048  22.943  10.041   4.216  0.3247 -0.2074  0.2662
59996W        W 3049  23.110  16.694  25.475  0.0477  0.0238  0.2509
59997W        W 3050  30.010  25.693   3.158 -0.2089  0.0936  0.1252
59998W        W 3051   5.549  21.917   6.051 -0.0778  0.2650 -0.1245
59999W        W 3052  25.782   8.732  19.122  0.3417  0.0790  0.0016
60000W        W 3053   2.324  20.485  23.635  0.0372  0.1148 -0.2332
60001W        W 3054  24.466  24.848  20.198  0.0412 -0.2530  0.1145
60002W        W 3055  14.968   8.928   5.390 -0.1949  0.0782 -0.1485
60003W        W 3056   5.706  11.515  27.308  0.0336  0.1135 -0.0628
60004W        W 3057  28.849  16.016  24.327 -0.3698  0.1375  0.0072
60005W        W 3058   0.258  24.281   2.366  0.0020  0.0931  0.1978
60006W        W 3059  20.526  13.820  28.168  0.1574 -0.0088  0.0299
60007W        W 3060   5.007  10.545   4.840 -0.2995  0.1024  0.1035
60008W        W 3061   3.578   7.166   6.849  0.1075  0.0389  0.2159
60009W        W 3062   2.569  20.489   4.364  0.4269  0.2112 -0.2462
60010W        W 3063  13.423  11.638  26.775 -0.1437  0.0892 -0.0310
60011W        W 3064  32.549  10.808   8.202  0.1536 -0.2312 -0.1378
60012W        W 3065  31.803   5.335  18.643  0.0920  0.1549  0.2738
60013W        W 3066  21.716  20.572  15.319  0.0314  0.1769 -0.1555
60014W        W 3067  26.234  32.735  26.029  0.1154 -0.0474 -0.0864
60015W        W 3068   7.631  21.474   4.802  0.0092 -0.0423  0.1299
60016W        W 3069  25.764   5.456   5.501  0.0648  0.0765  0.1015
60017W        W 3070  14.837  14.958   4.260 -0.2721  0.1660 -0.0535
60018W        W 3071  16.932  22.342  22.894  0.0046 -0.2430  0.0616
60019W        W 3072   1.630  22.901   2.729  0.3179 -0.0938 -0.1279
60020W        W 3073  32.720  21.410  19.330 -0.1355 -0.0306  0.1261
60021W        W 3074  24.340  13.910   6.771  0.1924 -0.1415 -0.1202
60022W        W 3075  13.040  32.647  24.249 -0.1150  0.6331 -0.0660
60023W        W 3076  24.232  21.438  17.006 -0.3891  0.2047  0.0195
60024W        W 3077  31.020  14.784  27.150  0.1375  0.0189  0.1194
60025W        W 3078   0.874   7.813   2.452 -0.2462  0.0249 -0.1683
60026W        W 3079  26.667  19.068   6.384  0.0874  0.0497  0.1023
60027W        W 3080   7.120  16.592   6.434 -0.1839  0.2161  0.0177
60028W        W 3081  18.986  13.779  18.890 -0.1020 -0.0116  0.0534
60029W        W 3082   4.622  23.917   8.382 -0.1716 -0.1570 -0.0902
60030W        W 3083  24.820  23.849  27.440 -0.1105 -0.0965 -0.0407
60031W        W 3084  24.960   8.502   2.432 -0.1484 -0.0005 -0.2359
60032W        W 3085  22.412   8.561  18.505 -0.0357 -0.0129  0.0109
60033W        W 3086  29.912  11.765  27.942  0.0868 -0.0772  0.1300
60034W        W 3087   2.268   2.832   4.945 -0.0788 -0.1746 -0.3291
60035W        W 3088   9.055   0.020   8.737 -0.3783 -0.0408 -0.1525
60036W        W 3089   7.626  19.488   9.679  0.0257  0.3717  0.0333
60037W        W 3090   8.983  24.931   6.772  0.3168  0.2492  0.5291
60038W        W 3091   8.924   3.440   9.777  0.0813  0.3007 -0.0416
60039W        W 3092   0.102   1.533   8.520  0.1103 -0.0023  0.0586
60040W        W 3093   3.432   9.126   1.456 -0.1409 -0.1342  0.0819
60041W        W 3094   2.961  34.358  25.273 -0.0173 -0.0880  0.2200
60042W        W 3095  26.204  17.890  10.095 -0.0639  0.0317 -0.0390
60043W        W 3096  28.886  10.139   7.177  0.1601  0.1081 -0.1860
60044W        W 3097  14.025  26.168  28.132 -0.0214  0.1940 -0.0962
60045W        W 3098  19.641  17.932   9.673  0.0052  0.4057  0.1707
60046W        W 3099   5.719   9.615  17.245 -0.0664 -0.2840 -0.1621
60047W        W 3100  15.734  32.108  21.758  0.0555  0.2992 -0.2800
60048W        W 3101   9.326  24.259  26.543 -0.0896 -0.0092  0.0333
60049W        W 3102  21.795  25.091   1.180 -0.1020 -0.2389  0.0002
60050W        W 3103  20.343  22.477  27.871 -0.2199  0.2059  0.0476
60051W        W 3104  19.538   2.663   7.340 -0.0683 -0.2801  0.0926
60052W        W 3105  33.532  17.308  21.578 -0.0927  0.0383  0.1139
60053W        W 3106  14.451   3.553   7.518  0.2552  0.2034 -0.1478
60054W        W 3107   9.633  31.933   1.464  0.0391  0.0816  0.1032
60055W        W 3108   2.797  22.924  20.714  0.0026 -0.2434  0.0816
60056W        W 3109   8.947   3.160  28.934  0.0719 -0.0422  0.0370
60057W        W 3110  28.328  31.927   2.898  0.0350 -0.2043 -0.1328
60058W        W 3111   0.881  23.589  14.921 -0.0992 -0.0661  0.2786
60059W        W 3112   5.723  31.642  20.967  0.1770  0.0416 -0.2190
60060W        W 3113  10.318  17.789   4.558 -0.1448  0.3415 -0.0449
60061W        W 3114  33.584  23.798   3.877  0.1728 -0.0047 -0.0170
60062W        W 3115  11.206  14.926  26.242  0.0661  0.0689  0.3574
60063W        W 3116  21.773   9.533  24.396 -0.4960  0.0771 -0.0388
60064W        W 3117  13.240  10.971   7.581  0.1223  0.0997  0.1281
60065W        W 3118   5.823  24.122   6.251  0.0987  0.0320  0.1060
60066W        W 3119  24.039  16.920   3.887  0.2706  0.4691 -0.0974
60067W        W 3120  10.527  10.380   6.942 -0.5239 -0.1161  0.1349
60068W        W 3121  25.781   6.792  10.459  0.0316  0.0839 -0.1874
60069W        W 3122  30.120  23.647   8.266 -0.4191  0.3599 -0.0953
60070W        W 3123   8.626  11.312   5.454  0.2159 -0.0892  0.1030
60071W        W 3124  22.548  33.418  23.667 -0.2311  0.0958 -0.2372
60072W        W 3125   9.945  22.048  22.320 -0.3030 -0.0496 -0.2597
60073W        W 3126  23.562  20.585  20.384  0.1268 -0.0473  0.1866
60074W        W 3127   1.671  12.246   1.786 -0.1912  0.0216 -0.3075
60075W        W 3128  29.701  25.874  10.477 -0.1745  0.4497 -0.1058
60076W        W 3129  29.326   0.502  26.148  0.0792  0.1471  0.0712
60077W        W 3130  33.595  20.201   8.578  0.1202  0.0196 -0.2392
60078W        W 3131  11.416  10.072  20.762  0.2565 -0.2011  0.2756
60079W        W 3132  33.806   8.300  20.839  0.1373  0.2039 -0.2920
60080W        W 3133  24.301  32.643   1.886  0.0177  0.0573 -0.3753
60081W        W 3134  28.890  26.359   1.281 -0.0624  0.2958 -0.1968
60082W        W 3135   9.962  20.484   2.125 -0.0693 -0.0242 -0.1769
60083W        W 3136   3.020   8.861  25.155  0.3003 -0.0375 -0.4038
60084W        W 3137  10.406  11.769  24.971 -0.1170  0.1601 -0.0793
60085W        W 3138  12.249   7.278  21.232 -0.1619 -0.2074  0.2664
60086W        W 3139  13.831  18.227  26.880 -0.3578 -0.0537  0.0858
60087W        W 3140  25.069   5.686  16.917  0.4480 -0.2058  0.0903
60088W        W 3141   9.051  18.977  19.938  0.0211  0.1369 -0.0188
60089W        W 3142  27.550  25.530  17.018 -0.0070  0.3641  0.1175
60090W        W 3143  10.555   7.246   2.501 -0.0735  0.0773 -0.1827
60091W        W 3144   8.565   6.001   5.338  0.2226  0.0891 -0.0921
60092W        W 3145  15.084  16.326  27.840 -0.2294 -0.2548  0.0283
60093W        W 3146  10.647  18.385  20.705 -0.2123  0.0464  0.0294
60094W        W 3147   7.728   5.477   9.960  0.0833 -0.0502 -0.2988
60095W        W 3148  31.744  12.371  17.903  0.2870  0.5234 -0.1816
60096W        W 3149  31.942  17.136   5.388  0.3710  0.2561  0.1583
60097W        W 3150  28.926  15.669   6.981  0.0703 -0.1437 -0.1728
60098W        W 3151   3.374   0.089  21.965 -0.0752 -0.1258  0.0593
60099W        W 3152   0.965  16.766  24.487  0.0037  0.1154 -0.1275
60100W        W 3153  18.078  23.480   9.323  0.1341 -0.1138  0.2607
60101W        W 3154   5.909   4.885  26.425 -0.0464 -0.0444  0.0048
60102W        W 3155  17.775  17.898  24.758  0.1753 -0.2383 -0.1737
60103W        W 3156  30.879  26.101  22.247  0.0206 -0.0987  0.2457
60104W        W 3157  11.066  30.842  16.031 -0.1769 -0.2270 -0.2106
60105W        W 3158  24.974  23.469  28.409 -0.1386 -0.0738  0.1019
60106W        W 3159  10.914   1.403   0.945  0.0533  0.2790 -0.1317
60107W        W 3160  32.086  21.566   2.403 -0.2628  0.4284  0.0085
60108W        W 3161  29.692  16.113   6.097  0.1091  0.4912  0.0212
60109W        W 3162   1.626  31.874  27.033 -0.1160  0.1154 -0.0587
60110W        W 3163  33.349  11.326   9.536  0.1000  0.2059  0.2681
60111W        W 3164  25.275   4.629   6.005 -0.2457  0.0960 -0.0870
60112W        W 3165  18.453  13.105  25.075  0.0472 -0.1737 -0.4783
60113W        W 3166  30.157  19.640   7.269 -0.0777 -0.2492  0.2615
60114W        W 3167   5.980  23.618   6.659  0.1329  0.1206  0.2936
60115W        W 3168  23.329  16.152  23.592 -0.2262 -0.3040 -0.3326
60116W        W 3169  18.669   3.746  10.100  0.0192 -0.2367  0.0193
60117W        W 3170   3.302  27.680  15.974 -0.2344  0.0166 -0.1295
60118W        W 3171  13.226  16.976  16.208  0.0272 -0.1829 -0.3418
60119W        W 3172  30.806   8.753   8.602  0.1211 -0.1477  0.3290
60120W        W 3173  22.928   9.018   4.832  0.0311  0.0516  0.2787
60121W        W 3174  14.894  19.309   4.521 -0.0060  0.0824 -0.1202
60122W        W 3175  33.751  20.221  16.715 -0.0510 -0.0475 -0.0472
60123W        W 3176  32.287  29.400   8.434 -0.2454  0.3229 -0.0687
60124W        W 3177  30.913  11.700  28.192  0.3363 -0.0304  0.0529
60125W        W 3178  12.198   5.037   6.096  0.1981 -0.3844 -0.2098
60126W        W 3179  30.390  12.596   9.404 -0.1180 -0.0228  0.1920
60127W        W 3180  25.424  22.094  19.517  0.2297  0.1960  0.0696
60128W        W 3181   2.881  11.295   1.823  0.2741 -0.1745 -0.2505
60129W        W 3182   2.474  23.205  25.505 -0.3001 -0.3222 -0.0717
60130W        W 3183  11.452  16.694  28.732 -0.1289  0.2487  0.1032
60131W        W 3184  28.607  17.458  23.241  0.4855 -0.0644  0.0399
60132W        W 3185   5.955  17.356  29.138 -0.2049  0.0304 -0.0615
60133W        W 3186   3.726  23.004   9.139 -0.0860 -0.1213 -0.0780
60134W        W 3187  26.207   6.979   0.216 -0.2527  0.0901 -0.0253
60135W        W 3188   2.632  15.045   1.643 -0.2234 -0.1753 -0.1241
60136W        W 3189  12.279  13.185  21.556  0.0656 -0.1187  0.0077
60137W        W 3190  26.037  25.009  17.824 -0.0691 -0.1712  0.3276
60138W        W 3191  32.534   1.888  27.332  0.0692  0.1274 -0.1858
60139W        W 3192  32.139  12.310   6.582 -0.1932 -0.2030  0.2852
60140W        W 3193  11.954  16.582   5.733  0.0955  0.1255 -0.3165
60141W        W 3194   3.315   3.451  22.418 -0.0965  0.2375  0.0444
60142W        W 3195   6.095  25.921  23.524  0.0062 -0.1673  0.2972
60143W        W 3196  16.772  12.724  21.082 -0.1051 -0.2553  0.1357
60144W        W 3197  13.382   8.762  27.929  0.2700 -0.0066 -0.0101
60145W        W 3198   5.804  16.633  25.513  0.4079  0.0991 -0.2879
60146W        W 3199  29.411  22.546  21.181 -0.3356 -0.1753 -0.0781
60147W        W 3200   1.847   0.338  19.002  0.1502  0.3562  0.0907
60148W        W 3201  28.795  27.745   0.918 -0.2532  0.1074 -0.0600
60149W        W 3202  25.032   2.697   9.530 -0.1809 -0.2567 -0.0644
60150W        W 3203   9.089   5.004  26.582  0.1834  0.2145  0.2926
60151W        W 3204  30.021  20.993   2.740  0.0942  0.0316 -0.1874
60152W        W 3205  27.137  32.220   1.458  0.0334 -0.2487 -0.1719
60153W        W 3206  31.679  14.383  15.687 -0.4070 -0.1043 -0.1348
60154W        W 3207  23.060   4.786  17.235  0.0402  0.0064  0.0385
60155W        W 3208   9.950  15.831   9.143 -0.0887 -0.2239 -0.0377
60156W        W 3209  31.698  25.217   1.065 -0.2302 -0.0156  0.0694
60157W        W 3210   7.068  14.894   8.901  0.2799  0.0977  0.0375
60158W        W 3211   7.587  10.991  25.599  0.0546  0.0544 -0.0564
60159W        W 3212  27.261  20.340   6.620  0.0931 -0.3730  0.1937
60160W        W 3213  30.875  26.847   9.032 -0.1557 -0.0039 -0.0411
60161W        W 3214  33.135  13.224  14.359 -0.0394  0.2658 -0.3260
60162W        W 3215  25.888   7.998   8.298 -0.4012 -0.3488 -0.4942
60163W        W 3216  25.741  20.426  18.677  0.1619 -0.0689  0.3088
60164W        W 3217  32.656  24.080  15.655 -0.0056  0.1874  0.1630
60165W        W 3218  23.183   8.847   4.327 -0.2205 -0.1174  0.1826
60166W        W 3219  30.635  15.928   1.768 -0.0634 -0.0150  0.1820
60167W        W 3220  12.890   0.639   8.971 -0.2300  0.2490  0.0678
60168W        W 3221   2.664   1.688   2.427  0.3196  0.1230  0.2568
60169W        W 3222  28.857  18.475   3.618 -0.1275  0.1323 -0.0172
60170W        W 3223  27.518  15.275  23.654  0.0147  0.2137  0.1982
60171W        W 3224   1.638  24.496   0.859 -0.1693 -0.2613  0.1467
60172W        W 3225  11.926  23.748   5.935  0.0601  0.1567  0.2470
60173W        W 3226  18.205  24.303  25.466 -0.1141  0.3233  0.1120
60174W        W 3227   4.846  31.450   0.123 -0.1881  0.0072 -0.0411
60175W        W 3228   1.865  22.912   4.550  0.0907  0.1003  0.5166
60176W        W 3229   8.629  25.347   7.992 -0.3018  0.0524  0.2200
60177W        W 3230  30.427  16.515   7.464 -0.1537 -0.1298  0.2730
60178W        W 3231  21.289   9.697  20.911  0.0255  0.3647  0.4615
60179W        W 3232   5.967  18.051  17.304  0.0400 -0.0279 -0.1556
60180W        W 3233  28.627  11.927  10.484  0.4197 -0.1051 -0.0570
60181W        W 3234  13.441  29.325   5.489 -0.1451  0.1134  0.1245
60182W        W 3235   3.591  17.138  28.838 -0.1492  0.2009  0.0528
60183W        W 3236  25.756  22.282  14.176  0.2171 -0.1634  0.0597
60184W        W 3237   2.657  15.586   4.895 -0.0237  0.3387 -0.0592
60185W        W 3238   0.297  20.305   9.664 -0.1011  0.1674 -0.1200
60186W        W 3239  17.720  28.659   4.652 -0.1485 -0.1096  0.2937
60187W        W 3240   7.893  13.129  21.547 -0.0026 -0.1711 -0.1865
60188W        W 3241   0.172   0.816   6.625  0.0322 -0.1735  0.0870
60189W        W 3242  22.701  11.980   9.677  0.0339 -0.2933  0.0960
60190W        W 3243  12.420  16.181  27.026 -0.1593  0.1896 -0.3469
60191W        W 3244   8.577  10.959   2.618 -0.0094  0.1640  0.4041
60192W        W 3245  25.255  10.192   8.030 -0.0393  0.2865 -0.1728
60193W        W 3246   9.155  23.072   6.729 -0.2801 -0.0980 -0.0857
60194W        W 3247   3.284  10.577   9.297 -0.1583  0.3130 -0.1021
60195W        W 3248   5.028   0.489  23.453  0.2587  0.0872 -0.2111
60196W        W 3249  30.115  23.201   8.644 -0.0390 -0.0511  0.0494
60197W        W 3250   7.619  25.251  25.411 -0.0045 -0.0028  0.0946
60198W        W 3251   3.024  33.348  23.009  0.3390  0.0316 -0.3514
60199W        W 3252  12.726  16.483  21.106 -0.0746 -0.2848  0.0987
60200W        W 3253   4.013  16.759  15.110  0.2084 -0.1406  0.0453
60201W        W 3254  11.812   4.289  27.224 -0.3021 -0.1650 -0.0803
60202W        W 3255   4.862   1.843  28.168 -0.2332  0.3316  0.2882
60203W        W 3256  17.771  22.651  19.000  0.2786 -0.3501  0.0484
60204W        W 3257  29.077  23.922  27.475 -0.2759  0.1905  0.0166
60205W        W 3258   0.286  30.849  17.448 -0.0518 -0.2079  0.0042
60206W        W 3259   5.573  10.867  24.545  0.1703 -0.3478 -0.1835
60207W        W 3260   4.902  20.510   0.937 -0.0816 -0.0312  0.2134
60208W        W 3261  11.747  10.862  21.876  0.2603  0.2023 -0.3615
60209W        W 3262  28.533  17.128  18.093  0.1345 -0.1835  0.1817
60210W        W 3263  32.503  22.290   6.047 -0.0274  0.0450 -0.1959
60211W        W 3264  26.163   3.231  26.485 -0.1927 -0.0310 -0.1313
60212W        W 3265  29.610  24.395   6.046  0.0403 -0.2351  0.1078
60213W        W 3266   3.776  31.028   4.878  0.2827 -0.4555 -0.1073
60214W        W 3267  13.152  12.961   6.664  0.1287  0.1610 -0.0305
60215W        W 3268  11.130  22.088   3.845 -0.1977 -0.0327  0.1360
60216W        W 3269   1.586  18.576   0.585 -0.0767  0.1368  0.0545
60217W        W 3270  14.359  27.205  18.658 -0.0659  0.1521 -0.1261
60218W        W 3271   5.193   3.238   0.080 -0.1602 -0.0096 -0.1492
60219W        W 3272   9.566  12.574  24.210  0.2832  0.0937 -0.0691
60220W        W 3273  17.267  13.739  22.421 -0.1356 -0.1609  0.5101
60221W        W 3274   9.790  22.681  25.239 -0.1377  0.1812  0.1658
60222W        W 3275  27.595  12.300   0.192  0.0274  0.3001  0.0640
60223W        W 3276  28.297  30.094   3.061  0.4357 -0.2908  0.0884
60224W        W 3277  28.285  19.941   7.892 -0.0686  0.2022  0.0119
60225W        W 3278  11.116   4.607   8.681  0.0933 -0.0611  0.0556
60226W        W 3279  12.119  30.390  21.214 -0.0068  0.0288 -0.2153
60227W        W 3280  32.478  17.175   4.596 -0.0733  0.1479  0.0928
60228W        W 3281  29.984   0.512   9.508 -0.0815  0.2227 -0.0340
60229W        W 3282  25.225  25.857  20.367 -0.0142 -0.2503  0.2078
60230W        W 3283   6.682   4.030  22.990  0.0301  0.0298  0.0859
60231W        W 3284  34.083   9.633   6.232  0.0014  0.2640  0.1962
60232W        W 3285  28.741  16.973  28.095  0.0478 -0.0083 -0.3296
60233W        W 3286  31.810  33.168   2.652 -0.0046  0.1011 -0.3531
60234W        W 3287  33.882  27.656   1.708 -0.2533  0.1490  0.1635
60235W        W 3288  25.627  22.092  20.141  0.1669 -0.2198 -0.0926
60236W        W 3289  27.664  25.301   6.622  0.0794 -0.0204  0.0187
60237W        W 3290   1.117   8.164  24.737  0.4028 -0.3985  0.4469
60238W        W 3291  30.278  10.007   3.147 -0.1390  0.1549  0.1810
60239W        W 3292  17.200  12.107  15.174 -0.0963  0.1436 -0.1501
60240W        W 3293  28.987  21.089  14.764 -0.0428 -0.1964  0.1873
60241W        W 3294   2.406  22.087   3.594 -0.1223  0.1518  0.2231
60242W        W 3295  25.126   5.944  26.141  0.3603  0.1782  0.1490
60243W        W 3296  14.811  16.426   0.650  0.2494 -0.0432 -0.0282
60244W        W 3297  27.757  22.141   3.028 -0.0436  0.2078 -0.1836
60245W        W 3298   2.478  16.665   9.472  0.2627 -0.0203  0.0448
60246W        W 3299  26.685   7.948  27.055  0.0315  0.1266  0.1245
60247W        W 3300  11.258  14.892  26.791  0.2865 -0.1369  0.3397
60248W        W 3301   9.895  12.562  23.738  0.0032  0.2830 -0.0306
60249W        W 3302  25.849  13.973  18.535  0.0678  0.2212  0.0440
60250W        W 3303  14.653  34.329  25.501 -0.0625  0.0039  0.1032
60251W        W 3304   7.038  20.840   2.727  0.2235 -0.0647  0.0835
60252W        W 3305  31.058  19.236   6.439 -0.1476  0.2118 -0.2128
60253W        W 3306  32.085  23.740   6.036  0.0325 -0.2118  0.0344
60254W        W 3307  32.767  19.257   9.268 -0.0776  0.0238  0.0966
60255W        W 3308   8.760   7.007  28.237 -0.1181 -0.0027 -0.2113
60256W        W 3309  32.388  17.674  27.022 -0.0367  0.1024 -0.0629
60257W        W 3310  32.219  28.586   2.641 -0.2881  0.0781 -0.0443
60258W        W 3311  33.919  24.053  26.459  0.1338 -0.3031 -0.2692
60259W        W 3312   3.372  33.504  24.667 -0.1772  0.1276  0.0642
60260W        W 3313  17.793   4.468  15.701 -0.0156 -0.2830 -0.1830
60261W        W 3314  26.837   4.151   0.753  0.1565  0.1050 -0.1515
60262W        W 3315  14.842  18.092  15.617 -0.3435 -0.0032 -0.5167
60263W        W 3316  29.000   2.037   7.468 -0.1828 -0.0734  0.0990
60264W        W 3317  32.385  27.532  17.294  0.3048  0.1729 -0.1675
60265W        W 3318  21.313  12.389  28.607 -0.0964 -0.3361 -0.1259
60266W        W 3319   5.441  16.686  19.956  0.1839 -0.0078 -0.2176
60267W        W 3320  18.877   5.023   6.281 -0.0080 -0.0224  0.0450
60268W        W 3321  26.737  14.357  25.534 -0.0973 -0.0007 -0.0607
60269W        W 3322   1.714   1.977  15.734 -0.0601 -0.0132  0.1006
60270W        W 3323  28.116  20.740  15.190 -0.0501 -0.3781 -0.2865
60271W        W 3324  34.587  18.513   1.598  0.1064 -0.1806  0.4535
60272W        W 3325  17.512  33.781  26.553  0.0746 -0.0703  0.1220
60273W        W 3326  32.408  20.948   4.101  0.5522 -0.2442  0.0173
60274W        W 3327  33.262  18.544   8.218 -0.0819  0.2498 -0.1301
60275W        W 3328  27.596  20.370  22.295  0.0781 -0.2287  0.2960
60276W        W 3329  25.495   2.104   0.692  0.1233 -0.1653  0.0121
60277W        W 3330  26.427  17.610  17.146  0.1096  0.1704 -0.1669
60278W        W 3331  14.793  27.378  28.021  0.1583  0.3879  0.1065
60279W        W 3332   4.927  18.117   9.659  0.0831 -0.1668 -0.0511
60280W        W 3333  29.690  19.860   2.028  0.0585  0.0124  0.0229
60281W        W 3334   4.986  23.772  28.184  0.1951  0.1211 -0.1757
60282W        W 3335  24.627  17.381   0.912 -0.1352 -0.0738  0.0776
60283W        W 3336  11.602   6.707  10.172 -0.0715  0.1305 -0.3746
60284W        W 3337  18.552   7.796   0.483 -0.0050  0.0132  0.2356
60285W        W 3338   3.818  32.929   6.070 -0.3097 -0.0217 -0.0206
60286W        W 3339  34.052  17.630   3.584  0.1943  0.0747  0.3617
60287W        W 3340   6.568  18.286  26.630 -0.1889  0.1397  0.0857
60288W        W 3341   5.226  11.109  10.297  0.0437  0.1798  0.1310
60289W        W 3342   0.300   9.454   8.361 -0.0192 -0.1299 -0.0445
60290W        W 3343  33.700  15.323   7.259 -0.1481 -0.0785 -0.0675
60291W        W 3344   3.678  21.585  27.491  0.0606 -0.0309 -0.0858
60292W        W 3345  14.696  30.037   4.446  0.0556 -0.1444 -0.1427
60293W        W 3346   5.180   5.503  28.777  0.2340 -0.1422  0.2288
60294W        W 3347  12.598   6.139   8.858 -0.1321  0.1531 -0.0690
60295W        W 3348  28.849  17.292   3.608 -0.2097 -0.1267 -0.0625
60296W        W 3349  32.278  14.794   3.713 -0.3377  0.1548 -0.1348
60297W        W 3350   0.107  16.028   1.074 -0.0721 -0.1072  0.0501
60298W        W 3351  32.773  20.961   8.947 -0.1491 -0.1178  0.1310
60299W        W 3352  19.541  31.456   8.265 -0.0070 -0.0072 -0.1043
60300W        W 3353  34.238  22.049   8.073  0.0832 -0.0087 -0.1958
60301W        W 3354   0.816   9.423  26.691 -0.0832  0.1302  0.3011
60302W        W 3355  11.725  19.308  28.727  0.1806 -0.0692  0.0372
60303W        W 3356  29.392  18.109   2.061 -0.1193  0.2156  0.1497
60304W        W 3357  27.732  16.165   0.013  0.0870  0.2328 -0.0984
60305W        W 3358   1.414   7.604   1.806  0.0704 -0.2641  0.2374
60306W        W 3359  11.345   1.911   1.433  0.0841 -0.2875  0.0511
60307W        W 3360   5.823   8.886   8.088  0.1851 -0.2604 -0.0390
60308W        W 3361  34.054   1.424   2.466  0.0989 -0.2207  0.0053
60309W        W 3362  24.692  14.427   1.960  0.3322  0.0744 -0.1585
60310W        W 3363   7.807  11.316   7.824  0.1128  0.0410 -0.0216
60311W        W 3364  31.118  13.422  10.985  0.2133 -0.0436 -0.0069
60312W        W 3365  15.104  14.955  28.428 -0.4585  0.0237 -0.0040
60313W        W 3366  23.043  11.064   4.365  0.0148 -0.1358  0.2292
60314W        W 3367  29.212   6.731  26.397 -0.0939  0.0659  0.1488
60315W        W 3368  34.538  14.492   8.891 -0.1590  0.3017 -0.0883
60316W        W 3369  16.017  22.366  29.029 -0.1567  0.1513 -0.2120
60317W        W 3370  25.935  32.507  22.154 -0.0895  0.0206 -0.3335
60318W        W 3371   1.629  16.451  19.766 -0.0207 -0.0245 -0.1467
60319W        W 3372   4.738  32.302   4.209 -0.0529  0.0247 -0.2799
60320W        W 3373   6.050  23.300  27.953 -0.3555  0.2277 -0.2165
60321W        W 3374   1.070   8.783   0.107 -0.1333  0.0544  0.0666
60322W        W 3375  31.186  15.563   9.771 -0.2081 -0.0855 -0.1044
60323W        W 3376  22.337  11.281   8.416 -0.0894 -0.0131  0.1088
60324W        W 3377   6.646  11.397   2.584 -0.1975  0.1543 -0.2000
60325W        W 3378   0.457  13.573  28.860 -0.1450  0.2302  0.0194
60326W        W 3379  14.561  13.641   3.362 -0.0319  0.1206 -0.2166
60327W        W 3380  31.835   2.116   9.527  0.1420  0.0041  0.2832
60328W        W 3381  28.124  13.937   3.128 -0.2621  0.0433  0.1721
60329W        W 3382  28.387   8.358   3.789 -0.1864 -0.0958 -0.0164
60330W        W 3383  33.255   7.327   7.850  0.0734 -0.3634  0.0394
60331W        W 3384   4.727   2.211  28.602 -0.3947  0.0109  0.1765
60332W        W 3385  20.699  11.298   8.054  0.3940 -0.0093  0.1382
60333W        W 3386  14.142  17.744  14.495 -0.3257  0.0480 -0.0538
60334W        W 3387  14.669   5.757   7.523 -0.1450 -0.0419  0.1591
60335W        W 3388  10.853  19.472   6.705  0.1519 -0.0616  0.3315
60336W        W 3389  12.566  33.086  24.948 -0.2262 -0.1939 -0.3401
60337W        W 3390  29.350  29.545  17.840  0.1914  0.4406  0.1331
60338W        W 3391  26.523   2.685  25.627 -0.0577 -0.0046  0.4758
60339W        W 3392  31.283   0.067   1.755  0.0728 -0.1191  0.2105
60340W        W 3393   0.770  15.009   9.069 -0.0857  0.0467  0.0861
60341W        W 3394  27.376  18.680  29.168 -0.1335 -0.2566 -0.0122
60342W        W 3395   4.894   7.819  17.528  0.4722 -0.0865 -0.0370
60343W        W 3396  18.611  14.194  26.100  0.0542 -0.0531 -0.0881
60344W        W 3397   1.752  22.405  23.394 -0.1948  0.3406  0.0652
60345W        W 3398   8.702   2.879   2.312  0.1836  0.1737 -0.3249
60346W        W 3399   0.580  12.839   4.538  0.1628 -0.0311 -0.1437
60347W        W 3400  24.314  13.045   6.968  0.0227  0.2054  0.0345
60348W        W 3401  30.531  20.085   4.925  0.0653  0.0146  0.2165
60349W        W 3402   0.656  13.472  25.896 -0.1811  0.1966 -0.1675
60350W        W 3403  33.400  15.411  26.192 -0.1927  0.1571 -0.1908
60351W        W 3404   4.554   1.850   8.253  0.1237  0.1958 -0.0978
60352W        W 3405   3.229   9.094   9.329  0.1006 -0.1655 -0.0177
60353W        W 3406   1.002  21.401   9.584  0.3544 -0.2969  0.1712
60354W        W 3407  25.057  20.828   9.118 -0.3182  0.2397  0.0734
60355W        W 3408  27.253  18.354  28.439 -0.0553  0.0397 -0.1330
60356W        W 3409  28.274  16.267   6.947 -0.0192  0.0415  0.0111
60357W        W 3410  31.165  17.181  25.679  0.1527  0.1727 -0.0500
60358W        W 3411   3.599  26.560   1.287  0.0003 -0.0253  0.4111
60359W        W 3412  19.659  11.325   4.046 -0.2766 -0.2978 -0.3273
60360W        W 3413  14.695  29.193   1.072  0.1769 -0.2306 -0.1210
60361W        W 3414  22.235  13.888  26.555 -0.3035  0.0318 -0.2986
60362W        W 3415  31.783  27.032   7.356 -0.2286  0.0303  0.3104
60363W        W 3416  29.489  26.104   7.324 -0.1267  0.0822 -0.1677
60364W        W 3417   4.505  12.794   6.562 -0.3143  0.1350  0.0472
60365W        W 3418  12.081  18.857  27.344 -0.4374  0.0635  0.0641
60366W        W 3419   4.169   4.192  21.782  0.0268 -0.1549 -0.1207
60367W        W 3420   5.991  12.087   7.601 -0.0410 -0.0931  0.1676
60368W        W 3421   2.406  10.050   8.150 -0.0987 -0.1132 -0.0159
60369W        W 3422  31.766  14.543   1.176 -0.2251  0.2227 -0.0325
60370W        W 3423   0.889  27.440  24.051 -0.0176 -0.0516 -0.1589
60371W        W 3424   1.107  15.475   3.198  0.0029  0.2576  0.0205
60372W        W 3425  34.095  11.778   7.029 -0.0659 -0.2214  0.0807
60373W        W 3426  22.830  22.648  28.640  0.1796  0.1632  0.2478
60374W        W 3427   9.566  24.966   1.027 -0.0633 -0.2332  0.0682
60375W        W 3428  20.617  17.803   8.734 -0.0340  0.2356  0.0474
60376W        W 3429   1.758  19.406   6.000 -0.0818  0.2901  0.1319
60377W        W 3430   5.596  14.819   0.549 -0.0424  0.0159 -0.1568
60378W        W 3431  30.786  14.260   8.003 -0.0433  0.2386 -0.0181
60379W        W 3432   1.698  21.610   1.198  0.2419 -0.1662 -0.2942
60380W        W 3433   0.592  17.654   5.294 -0.1092  0.1937 -0.2081
60381W        W 3434  21.704  17.027   3.651 -0.2233  0.3632  0.1248
60382W        W 3435   2.354  12.617   7.930  0.1038 -0.2786  0.4755
60383W        W 3436   3.629  22.016   5.490  0.1270  0.4831 -0.0089
60384W        W 3437  32.517  11.253   5.535 -0.1327  0.0456 -0.0205
60385W        W 3438   1.478  11.973   8.920 -0.0010  0.0266  0.2182
60386W        W 3439  13.565  13.003  28.201  0.0313  0.2536  0.0339
60387W        W 3440   2.082   5.354   1.201 -0.2196 -0.1500  0.0538
60388W        W 3441   4.123  20.734  19.004 -0.0950  0.1176 -0.3711
60389W        W 3442  22.442  22.887  23.617 -0.2409  0.2432 -0.0653
60390W        W 3443   4.940  15.797   4.051 -0.1290  0.0803 -0.3336
60391W        W 3444  30.360   5.970   4.127  0.1266  0.2815  0.2271
60392W        W 3445  33.724  19.405   2.722  0.0120  0.2577 -0.2555
60393W        W 3446  29.138   8.703  21.884 -0.2474  0.0193  0.0495
60394W        W 3447   3.402   5.265   0.829  0.3318 -0.0232 -0.1609
60395W        W 3448  25.818  17.338   0.804  0.1154  0.1004  0.3709
60396W        W 3449   3.398  17.746   2.531  0.1854  0.0803  0.0273
60397W        W 3450   4.198  24.262   2.540  0.2502  0.2717  0.2203
60398W        W 3451   0.905   7.919   7.134 -0.2005 -0.1292  0.0606
60399W        W 3452  34.664  12.934   0.673 -0.1220 -0.0670  0.1261
60400W        W 3453  26.404  16.793  27.572  0.1119 -0.2807  0.2294
60401W        W 3454  33.970   2.616  22.142 -0.2060  0.0781 -0.0907
60402W        W 3455  10.292  17.601   8.085  0.4036  0.0085 -0.1153
60403W        W 3456   7.985  19.079  20.610  0.3683 -0.0033  0.0114
60404W        W 3457  25.094  20.664   4.942 -0.0203 -0.4541 -0.0665
60405W        W 3458   5.407  13.584  16.173 -0.0106  0.0126 -0.0232
60406W        W 3459  30.641  33.973  17.424  0.3513  0.0359  0.0639
60407W        W 3460   6.648  27.406  20.196 -0.0656 -0.1384  0.0224
60408W        W 3461  14.898   6.330  25.398  0.3613 -0.2249  0.0784
60409W        W 3462   2.920  13.658   8.614  0.0862 -0.0840 -0.1555
60410W        W 3463  20.941  30.624   4.597 -0.1858  0.0178  0.2412
60411W        W 3464   9.315   3.397   7.709  0.3058 -0.0949 -0.0003
60412W        W 3465  30.197  34.018   0.780  0.0272  0.0577  0.1871
60413W        W 3466  11.830  12.421   6.912  0.1033  0.0336  0.0870
60414W        W 3467   1.201  29.457   3.627 -0.0648  0.3633 -0.0339
60415W        W 3468  15.761  14.349  25.251  0.0709 -0.0779  0.1400
60416W        W 3469  18.665  15.211   9.237  0.0890  0.0583  0.2446
60417W        W 3470  11.268  10.363  27.137 -0.0237 -0.3798  0.0646
60418W        W 3471  23.149  31.395   5.121  0.1244  0.0731  0.2275
60419W        W 3472  23.629   5.716   6.831 -0.1898 -0.0673  0.2202
60420W        W 3473  29.259  21.946   7.113 -0.1425  0.0146  0.3424
60421W        W 3474   2.848  15.369   9.556  0.0352  0.3212 -0.3129
60422W        W 3475   6.677  26.962  16.153  0.0933  0.0015  0.2309
60423W        W 3476  28.185  22.641  23.544 -0.0041  0.0355 -0.0316
60424W        W 3477   8.249   5.026   8.249  0.0604  0.1212 -0.2818
60425W        W 3478   1.181  22.338  19.713 -0.3060  0.4779  0.0848
60426W        W 3479  20.977  13.273   5.772 -0.3339 -0.1629 -0.0132
60427W        W 3480   4.685   1.071   4.363 -0.2646 -0.0679  0.0930
60428W        W 3481  31.871  18.782  20.010  0.0295 -0.2075  0.0069
60429W        W 3482  31.837  33.443   3.068 -0.1041  0.1537 -0.1912
60430W        W 3483  33.085  16.464  20.013  0.2399  0.0182 -0.0927
60431W        W 3484  22.842  19.228   2.690  0.2348 -0.1705 -0.0071
60432W        W 3485   9.923  12.586   5.443 -0.1754  0.3689  0.0636
60433W        W 3486  28.433  12.998  25.713  0.4378 -0.1087  0.1115
60434W        W 3487  21.075   5.698  20.361 -0.1781  0.1468 -0.0948
60435W        W 3488   0.652  17.022   2.390 -0.1717 -0.0428 -0.0683
60436W        W 3489   6.576  12.370  24.821 -0.0413  0.0659 -0.2274
60437W        W 3490  11.507  21.029  27.587  0.3345 -0.0817  0.0132
60438W        W 3491   6.572  15.987   0.198  0.0482 -0.1500  0.2966
60439W        W 3492   6.427   1.885  23.494  0.0217 -0.2363 -0.1118
60440W        W 3493  31.018  23.829   9.015  0.2083 -0.2914 -0.2043
60441W        W 3494  26.902   4.279   1.272 -0.0380  0.2021  0.4189
60442W        W 3495  10.137  31.602   5.533 -0.0063 -0.2900  0.0438
60443W        W 3496  28.943   2.624  23.526 -0.3691  0.1390  0.2635
60444W        W 3497  29.025  32.182   1.193 -0.1211 -0.0371  0.3176
60445W        W 3498   7.295   6.512  25.680 -0.0390 -0.0567 -0.3944
60446W        W 3499  32.761  23.775  23.958  0.0425  0.1759  0.2213
60447W        W 3500  14.306  10.401   9.656  0.0596 -0.0793  0.1989
60448W        W 3501   2.152  20.336   7.147  0.0861 -0.1009 -0.0223
60449W        W 3502  29.538   3.926  26.417  0.1072  0.0814  0.0532
60450W        W 3503   6.136  29.631  25.979  0.2546 -0.0251 -0.0200
60451W        W 3504   3.104  23.449  19.998  0.2390 -0.0705 -0.3094
60452W        W 3505  32.802  22.013   8.933 -0.0185  0.1163 -0.2508
60453W        W 3506  28.092  20.078  14.359 -0.1126  0.0323 -0.1929
60454W        W 3507   2.398  28.409  19.938 -0.3236  0.3518 -0.0946
60455W        W 3508   4.524  19.967   6.006 -0.1054 -0.1308  0.0317
60456W        W 3509  29.882  24.109   5.674  0.1170 -0.0036  0.0575
60457W        W 3510  11.312  31.275  23.598 -0.0730 -0.1930 -0.0989
60458W        W 3511  33.622   6.032  26.976 -0.0851  0.3591 -0.3171
60459W        W 3512  15.363  13.181   1.037 -0.5043 -0.0259  0.3065
60460W        W 3513   6.902  15.327   6.191  0.3897 -0.1590  0.0943
60461W        W 3514   1.787  20.862   7.751  0.0515  0.0750 -0.2023
60462W        W 3515   6.987  15.646   1.759 -0.0247  0.2903 -0.0379
60463W        W 3516  28.034  11.476  27.878 -0.1050 -0.4219 -0.1068
60464W        W 3517   2.629  16.907   7.945  0.3307 -0.0173 -0.2234
60465W        W 3518   2.209  18.428   9.680 -0.0671  0.4275  0.3049
60466W        W 3519  32.849  20.403  27.629 -0.5317 -0.1493  0.1364
60467W        W 3520  26.809  24.146   8.175 -0.2447  0.0620 -0.0089
60468W        W 3521  34.675   7.363   8.694 -0.0370  0.3261  0.1476
60469W        W 3522   1.896  17.329   9.848  0.0600 -0.1705 -0.4162
60470W        W 3523  11.432  28.322   8.601  0.0994 -0.3272 -0.1763
60471W        W 3524  16.721   7.570   7.878  0.2249  0.0036  0.1294
60472W        W 3525  30.763  17.755  28.702 -0.2082 -0.0504  0.1791
60473W        W 3526  34.678   4.760  27.169  0.4348 -0.0148 -0.2301
60474W        W 3527  27.444  21.652  27.519  0.0451 -0.1603  0.1524
60475W        W 3528   8.846   1.336   6.913 -0.2321  0.0244  0.0629
60476W        W 3529   0.186  13.692   4.467 -0.0993 -0.0466 -0.0117
60477W        W 3530  15.919  29.391   7.845  0.2243 -0.0255 -0.0830
60478W        W 3531  30.721  31.980  27.861 -0.0021 -0.0042 -0.1628
60479W        W 3532   6.506  11.356   8.050 -0.1119  0.2169  0.2945
60480W        W 3533  24.512   5.786   7.899  0.0019  0.0700 -0.1185
60481W        W 3534  13.833   5.332   3.189 -0.1274  0.3321  0.3487
60482W        W 3535  30.579   4.408  29.041  0.0677 -0.1398  0.1167
60483W        W 3536   3.726  13.455  28.219  0.4832 -0.1550  0.3373
60484W        W 3537  29.148  16.059   2.543 -0.0238 -0.3347  0.2490
60485W        W 3538   3.026   4.067  27.120 -0.0620 -0.1272  0.0633
60486W        W 3539  10.916   9.568   0.646 -0.0159  0.2186 -0.1218
60487W        W 3540  25.612  22.124  27.753 -0.1397 -0.1078  0.1847
60488W        W 3541  28.731   2.149   9.448  0.1295 -0.0551 -0.0009
60489W        W 3542  18.538  25.253   0.997  0.2732  0.0515 -0.1230
60490W        W 3543  30.443  12.438   9.902 -0.2089  0.2182  0.0557
60491W        W 3544  24.294  17.055  16.643  0.0889 -0.0847  0.2616
60492W        W 3545  23.959   1.261   7.706  0.2077  0.1769  0.0936
60493W        W 3546   9.128  18.297  22.837 -0.1504  0.1902  0.0660
60494W        W 3547   1.640  32.280   6.086  0.1150  0.3133  0.2011
60495W        W 3548  17.327  17.242   5.233 -0.1831 -0.1168  0.2496
60496W        W 3549  25.579   6.075   9.570 -0.1291  0.1577  0.0552
60497W        W 3550  20.155   6.816  21.987  0.1244  0.1453 -0.2087
60498W        W 3551  27.524  13.063   1.856 -0.1811 -0.2258 -0.0899
60499W        W 3552  25.252  24.125   5.305  0.0598 -0.1991  0.1587
60500W        W 3553   1.806   5.451   4.100 -0.5246 -0.1023 -0.1432
60501W        W 3554  22.373  22.509   2.895 -0.1155 -0.2055 -0.2669
60502W        W 3555   4.448   2.659   9.656  0.2335 -0.0322  0.3828
60503W        W 3556  26.861  22.743   5.036 -0.1598 -0.1937 -0.0047
60504W        W 3557  18.824  21.162   5.985  0.0757  0.0341 -0.0504
60505W        W 3558   7.779   9.003  21.529 -0.0440 -0.2459  0.5806
60506W        W 3559   8.428   0.060   3.158  0.0815  0.0510  0.0668
60507W        W 3560   8.617  18.236   7.895 -0.1832 -0.0455 -0.0948
60508W        W 3561  31.228  24.839   2.908 -0.1033  0.2924 -0.0481
60509W        W 3562  31.050  16.624   9.355  0.3928  0.0403 -0.0571
60510W        W 3563   4.174  11.086   2.520 -0.1596  0.0534  0.2908
60511W        W 3564  25.407  12.452  28.589  0.0269 -0.3319 -0.2195
60512W        W 3565  30.520  21.751  29.042  0.6052  0.3486 -0.1294
60513W        W 3566   0.490  19.257   0.200 -0.2461  0.1863  0.0160
60514W        W 3567  30.634  15.451   1.607  0.1026  0.0332  0.0283
60515W        W 3568  28.488  10.414  25.819  0.2291  0.0840 -0.1186
60516W        W 3569  32.962  15.095   8.338  0.2064  0.0859  0.0914
60517W        W 3570   3.363  19.816   4.113 -0.0116  0.0794  0.1416
60518W        W 3571  12.446  11.956   2.340  0.0682 -0.0490 -0.0181
60519W        W 3572  30.438   6.605  26.711  0.1125  0.0155 -0.1626
60520W        W 3573   6.493   7.221  18.999  0.3231  0.3481  0.2049
60521W        W 3574   2.201  33.313   8.963 -0.1910 -0.1553 -0.3097
60522W        W 3575   5.376   5.761   7.600 -0.0812 -0.0678  0.2077
60523W        W 3576  30.476  16.866   8.246 -0.1173 -0.1739 -0.2852
60524W        W 3577  16.775  10.968   8.355  0.0406  0.0325 -0.0181
60525W        W 3578  31.164  15.931   8.879 -0.1024 -0.1346 -0.0735
60526W        W 3579  28.656  17.886   9.028 -0.1023  0.1005  0.0057
60527W        W 3580   1.018  21.784  24.941 -0.2068  0.3914 -0.1429
60528W        W 3581   4.470  21.881   7.017  0.2735 -0.2716 -0.1634
60529W        W 3582   9.660  28.119  27.526  0.0555 -0.1149 -0.0927
60530W        W 3583  26.248   9.250  26.577 -0.0637 -0.0154  0.1337
60531W        W 3584  25.739  10.195   7.877  0.1467  0.0594 -0.0920
60532W        W 3585   9.465  18.215   7.179 -0.0966  0.1028 -0.3925
60533W        W 3586  14.785  10.439  10.292 -0.2235  0.0219 -0.0199
60534W        W 3587  28.919  23.369  27.380 -0.2023  0.2488  0.2906
60535W        W 3588   1.518  13.048   2.901  0.0406 -0.1984 -0.1236
60536W        W 3589  32.539  14.094   5.604 -0.0660 -0.0590 -0.2053
60537W        W 3590   5.993  31.587   0.944 -0.0236 -0.1896  0.0978
60538W        W 3591  32.914  12.476   0.445  0.1901  0.1127 -0.3572
60539W        W 3592   8.075   4.708   6.121 -0.1461  0.2573  0.2137
60540W        W 3593  10.754  28.158  24.100  0.2067 -0.0240 -0.0890
60541W        W 3594  10.545  25.933   8.572  0.1913  0.0295 -0.1460
60542W        W 3595   1.914   9.038  16.496 -0.0282  0.1126  0.0700
60543W        W 3596   2.317  30.571   1.681  0.1523  0.0537  0.1312
60544W        W 3597  22.546  23.321   1.311 -0.1836 -0.0478  0.0777
60545W        W 3598  20.832  28.424  10.798  0.0747  0.2037  0.1056
60546W        W 3599  21.009  33.972   4.725 -0.2278 -0.0936 -0.1227
60547W        W 3600  31.417  17.977   0.582  0.0877 -0.1757  0.0846
60548W        W 3601  33.629  14.338  28.560 -0.0727 -0.1955  0.1943
60549W        W 3602  27.075   3.379   8.752  0.0871  0.0579  0.0116
60550W        W 3603  34.515  29.671   9.182  0.0024  0.1545 -0.0529
60551W        W 3604  11.516  13.304   1.573 -0.2295  0.4393  0.3176
60552W        W 3605  26.270  12.265   6.477  0.0235 -0.2111 -0.0697
60553W        W 3606  33.154  20.379  25.047  0.2363  0.0525 -0.0384
60554W        W 3607  25.661   0.226  10.037  0.0663 -0.0588 -0.3364
60555W        W 3608  34.460   1.991   0.448 -0.1984 -0.0704  0.0374
60556W        W 3609  11.536  12.534  27.403  0.2127  0.0204  0.1293
60557W        W 3610  31.608  22.736   6.653  0.1668  0.0284  0.2598
60558W        W 3611   1.725  18.295  16.732 -0.0111  0.2108  0.0477
60559W        W 3612  33.613  25.473  22.868  0.0952 -0.0645 -0.1445
60560W        W 3613   9.425  12.566  17.879 -0.0629  0.0946 -0.0764
60561W        W 3614   1.128  14.984   4.402  0.1476  0.0951  0.0487
60562W        W 3615  29.774  22.245  22.827  0.0579 -0.1426  0.0303
60563W        W 3616   0.444   5.876   0.823  0.2236 -0.1830 -0.1232
60564W        W 3617  29.899   4.707   2.621  0.1118 -0.0422 -0.5241
60565W        W 3618   2.071  13.865   1.141  0.1328  0.2380  0.0969
60566W        W 3619  13.152  14.898   8.329 -0.0412 -0.0682 -0.0959
60567W        W 3620  27.564  27.675  22.900  0.3509 -0.0594 -0.0771
60568W        W 3621  24.661  22.621  28.774 -0.0502 -0.1514 -0.0986
60569W        W 3622   0.658  14.015   3.649 -0.1026  0.2649  0.1997
60570W        W 3623   9.136   5.987   6.554  0.2756 -0.1968 -0.1008
60571W        W 3624  14.540  16.561  24.430  0.1095 -0.0312  0.0437
60572W        W 3625   1.243  21.542   1.389  0.0999  0.2802 -0.1737
60573W        W 3626   7.694  30.343   8.316 -0.2355 -0.2577 -0.0022
60574W        W 3627  25.494  19.682  21.771 -0.2060  0.0541  0.3331
60575W        W 3628  10.266  23.294  27.736  0.1944 -0.2946 -0.2440
60576W        W 3629   9.019  21.687   3.575 -0.3275 -0.2654 -0.3159
60577W        W 3630  28.582  33.142   5.278 -0.0430  0.0754 -0.3454
60578W        W 3631  29.127  23.648   2.572  0.2603  0.1418 -0.1132
60579W        W 3632  23.632  13.263   8.423  0.2886 -0.1156  0.2039
60580W        W 3633  15.657  25.605   8.330 -0.2927 -0.3973 -0.1391
60581W        W 3634  17.391  34.665   4.895 -0.0874  0.0525 -0.2787
60582W        W 3635   5.513  14.173   4.403  0.2821 -0.0590 -0.2167
60583W        W 3636  29.156   3.666  24.251  0.0305  0.0602 -0.3262
60584W        W 3637  19.333   8.148   3.779 -0.1716 -0.0398  0.0861
60585W        W 3638  10.772   8.271   8.229  0.1038  0.2770  0.0433
60586W        W 3639   2.351   7.596   2.983 -0.0860 -0.1170  0.0959
60587W        W 3640  26.493  19.782   4.748 -0.2114 -0.0039  0.0128
60588W        W 3641  19.167  33.838   0.115  0.0460  0.2235 -0.2539
60589W        W 3642  12.006  15.819   7.941 -0.4120 -0.1158  0.2214
60590W        W 3643  20.136   3.789  28.049  0.2332 -0.1296 -0.1707
60591W        W 3644   0.722  16.575  28.004 -0.2002  0.0960  0.0381
60592W        W 3645  25.858  18.045  28.564  0.1413  0.0710  0.0646
60593W        W 3646   6.337   7.967   7.795  0.0915  0.1055  0.0059
60594W        W 3647  14.155  18.310   2.512 -0.0984 -0.1881  0.1742
60595W        W 3648   1.019  27.723  22.282  0.0104 -0.3048 -0.1592
60596W        W 3649  11.507  12.417  11.631 -0.1068  0.0302  0.1093
60597W        W 3650  19.471  13.132   8.102  0.1895  0.1620  0.2960
60598W        W 3651   6.346  22.814   8.271 -0.1681 -0.1296  0.1325
60599W        W 3652  23.544  34.597   4.648 -0.1022  0.1732  0.2091
60600W        W 3653   5.305  11.893   8.820  0.1494  0.1431 -0.1081
60601W        W 3654  13.458  14.607   9.119  0.2808 -0.2961 -0.0372
60602W        W 3655  31.732   3.589  25.214  0.1112  0.1191  0.1471
60603W        W 3656   1.941  29.983   2.711 -0.0402  0.1983 -0.3154
60604W        W 3657   1.837   9.654   4.310  0.3058 -0.3104 -0.1725
60605W        W 3658   6.094  32.312   6.127  0.3136  0.1631  0.0969
60606W        W 3659  27.428  10.744   5.572 -0.1071  0.1845  0.3098
60607W        W 3660  25.916  18.489   9.697 -0.0565 -0.2390 -0.1956
60608W        W 3661  12.532  21.390   2.760 -0.3348 -0.1566  0.0938
60609W        W 3662   8.868   7.489   1.944 -0.0309 -0.2692  0.0780
60610W        W 3663  20.254  33.120   7.008 -0.1331  0.0881  0.2347
60611W        W 3664  16.964  10.220   7.964 -0.1520 -0.1100  0.1762
60612W        W 3665  14.293  19.993  10.400  0.0556  0.1048  0.2289
60613W        W 3666  11.926  33.960  15.896  0.2208 -0.0591  0.0878
60614W        W 3667   1.130  31.948  15.832  0.1023  0.2954  0.1246
60615W        W 3668  28.806  21.681   2.573 -0.0438 -0.1547 -0.0555
60616W        W 3669   4.171  13.795   4.542 -0.0060  0.2191  0.2498
60617W        W 3670  26.969   0.494   5.380 -0.1623 -0.1720 -0.3777
60618W        W 3671  10.450  12.456  21.166  0.1337  0.1792 -0.1759
60619W        W 3672  13.307   0.757  25.463 -0.2334 -0.0191 -0.2800
60620W        W 3673   3.292  14.894  17.261 -0.1715 -0.1258  0.0219
60621W        W 3674  10.530  21.900  21.449 -0.5132  0.0767  0.0323
60622W        W 3675  34.478  24.176  27.268 -0.1636 -0.0128 -0.1092
60623W        W 3676  21.926  15.213   5.377  0.1486  0.0638  0.1725
60624W        W 3677  26.423  29.684   8.364  0.0067 -0.0723  0.0416
60625W        W 3678  34.533  21.931   7.705  0.1320 -0.1984  0.2166
60626W        W 3679  10.950  14.003  10.170 -0.1699  0.3770 -0.1001
60627W        W 3680   3.152  29.661   7.822  0.1079  0.1030  0.2305
60628W        W 3681  28.928  11.605   9.016  0.0742  0.5229  0.0439
60629W        W 3682   4.868   4.991   5.966 -0.1554 -0.0798 -0.0741
60630W        W 3683  11.449  12.920   9.697  0.1570  0.0798 -0.2820
60631W        W 3684  28.198  16.320   9.679 -0.1353 -0.0789 -0.0244
60632W        W 3685   8.734  13.558   7.567  0.1137  0.0426 -0.0361
60633W        W 3686  11.792  20.179   0.276  0.0596  0.0825  0.3224
60634W        W 3687  29.203  29.394   5.567 -0.3289 -0.1756  0.1178
60635W        W 3688   6.187  13.431   8.047 -0.1727 -0.1424 -0.0621
60636W        W 3689   7.564  30.855   6.201 -0.0847  0.1377 -0.1018
60637W        W 3690  32.010  22.013   3.490 -0.2632 -0.2260  0.1098
60638W        W 3691  12.074  18.349  28.802  0.1383  0.1603 -0.0096
60639W        W 3692  32.600  12.068   6.495  0.0989 -0.0323 -0.0558
60640W        W 3693   2.271  24.416  23.304 -0.1070  0.1003  0.0092
60641W        W 3694  10.961  22.703   4.695  0.1942  0.2639 -0.2426
60642W        W 3695  31.885  28.454   4.389  0.0361  0.1868 -0.1770
60643W        W 3696  33.027  33.872   7.164 -0.2336 -0.1410 -0.1632
60644W        W 3697   6.808  22.196   7.863  0.2212 -0.0935 -0.2327
60645W        W 3698  11.011  22.335  23.439  0.1056 -0.4383  0.2165
60646W        W 3699  16.753  32.789   7.953 -0.2137 -0.1391  0.1297
60647W        W 3700  31.047  14.084  28.581 -0.0877  0.3290 -0.0450
60648W        W 3701  30.864  10.757   9.714  0.2427 -0.2507  0.2330
60649W        W 3702   8.378   3.572   1.505 -0.0599 -0.3293 -0.0373
60650W        W 3703  27.672  11.560  24.966  0.0555 -0.0638  0.1335
60651W        W 3704  16.570   6.529  10.107  0.1708  0.4266 -0.2676
60652W        W 3705   1.650  26.871   0.237 -0.0333 -0.1377  0.3242
60653W        W 3706   3.129   0.001  27.828 -0.3422 -0.2492 -0.0730
60654W        W 3707   9.670  19.533  28.550 -0.0308 -0.1139 -0.1019
60655W        W 3708  31.950  26.178   0.721 -0.0612  0.0403  0.0740
60656W        W 3709  25.446  22.829  29.122 -0.0513  0.0744 -0.4474
60657W        W 3710  26.552   1.577   4.176 -0.0200  0.0906 -0.1016
60658W        W 3711   7.448   9.111  11.006 -0.3797 -0.0336  0.0465
60659W        W 3712   5.491  24.208   8.168 -0.1555 -0.2208 -0.2871
60660W        W 3713  31.208  18.201   7.263  0.1086 -0.0013 -0.2644
60661W        W 3714  14.176  22.065  25.858  0.0002 -0.1982 -0.0720
60662W        W 3715  32.789  28.066  26.638  0.2555 -0.0753  0.0059
60663W        W 3716   2.108   4.165   6.431 -0.0804  0.2127 -0.0541
60664W        W 3717  29.230  12.642  10.545  0.1011 -0.1312 -0.2532
60665W        W 3718  13.990  13.796  27.307 -0.5217  0.0129  0.3657
60666W        W 3719  34.337  11.609  25.288 -0.3270 -0.1925  0.0897
60667W        W 3720   4.200  11.069  26.975  0.3109 -0.0497  0.3781
60668W        W 3721   4.496   6.420   9.049 -0.3896 -0.3277 -0.0938
60669W        W 3722   6.467  11.451  14.196 -0.0463  0.1688 -0.0688
60670W        W 3723  33.670  15.999   8.484  0.1028  0.1530 -0.0620
60671W        W 3724  28.282  12.221   0.826 -0.0747 -0.0279  0.0945
60672W        W 3725  20.082  15.501   7.066  0.1750 -0.3366  0.0559
60673W        W 3726   8.163  22.990   3.099 -0.0031 -0.0532 -0.4378
60674W        W 3727   2.657  22.396   3.208  0.1133  0.0280 -0.0627
60675W        W 3728  32.337  30.605   1.799 -0.4101  0.0938 -0.1667
60676W        W 3729  34.109  16.654  21.329  0.0444 -0.1582  0.1538
60677W        W 3730   7.854  21.775   4.388  0.0120  0.0425 -0.4044
60678W        W 3731  15.960  30.376   7.669  0.1618 -0.1425  0.2134
60679W        W 3732   5.242  18.846   2.570 -0.1828 -0.2314  0.1636
60680W        W 3733   0.013  24.228  25.925 -0.1612  0.1419 -0.4532
60681W        W 3734   7.696  11.029  24.174 -0.1601 -0.2832 -0.0012
60682W        W 3735  17.744  27.038  23.397 -0.0822 -0.2908 -0.0136
60683W        W 3736   2.511  11.639   1.689  0.2574  0.1384  0.3285
60684W        W 3737   4.559   5.822   4.196 -0.0353  0.2105  0.4051
60685W        W 3738   5.937   9.628  29.126 -0.1978  0.1374  0.2254
60686W        W 3739  31.743  21.443   1.504 -0.2590  0.2392  0.0595
60687W        W 3740   4.976   1.398  21.868 -0.2784  0.1243  0.0220
60688W        W 3741   1.956  10.840   3.255 -0.1470  0.3831  0.0992
60689W        W 3742  33.519  23.881  26.673 -0.2463 -0.1111  0.1806
60690W        W 3743   3.084  20.626   5.465  0.1629  0.0912  0.1343
60691W        W 3744  13.653  14.817  28.654 -0.0801 -0.0860 -0.0406
60692W        W 3745  15.476  11.629  27.901  0.1434 -0.1092  0.5418
60693W        W 3746   2.200  17.094  15.131 -0.0180 -0.0335  0.3358
60694W        W 3747  24.476  12.813   5.150 -0.1427 -0.0130  0.0027
60695W        W 3748   8.754  13.097  15.217  0.1260  0.1026  0.0519
60696W        W 3749  33.578  11.418   0.406 -0.4435  0.0772  0.0188
60697W        W 3750   4.192  33.775   3.177  0.3362 -0.0778  0.1345
60698W        W 3751   3.588  12.508   6.434  0.0532  0.1425 -0.1406
60699W        W 3752   6.054  25.276  25.103  0.0057  0.0340  0.1884
60700W        W 3753   9.696  14.333   4.173 -0.2321 -0.1102  0.1021
60701W        W 3754   3.021  14.837   6.979 -0.1200  0.2641  0.0690
60702W        W 3755  31.063  18.263   4.709  0.1802  0.3170  0.0608
60703W        W 3756  32.719   8.728  18.669  0.1571 -0.0343 -0.1303
60704W        W 3757  19.918  31.677   9.217  0.1284  0.1543  0.0462
60705W        W 3758  30.941  23.158   8.407 -0.0404 -0.1927  0.1209
60706W        W 3759   3.305  22.045   5.146  0.2205  0.0511 -0.1278
60707W        W 3760  32.808  25.461  27.778  0.1091  0.0950 -0.4726
60708W        W 3761  17.172  16.238   2.763 -0.3463 -0.0470  0.0473
60709W        W 3762  10.738  10.044   8.766 -0.0782  0.1570  0.4086
60710W        W 3763  30.102  26.718  20.149 -0.2683  0.0788 -0.0888
60711W        W 3764   3.976   9.431   6.772  0.4191  0.1638  0.1112
60712W        W 3765   2.796  20.961  28.894  0.1813  0.0412 -0.0035
60713W        W 3766  25.048  30.305  28.980  0.0760  0.1283  0.0399
60714W        W 3767   0.740  16.092   8.011 -0.0551 -0.1620  0.2948
60715W        W 3768  31.970  13.355  29.124 -0.2017  0.3048 -0.1720
60716W        W 3769  27.437  16.304  22.688  0.0190  0.2555 -0.1354
60717W        W 3770   4.086  22.021   4.415 -0.0772  0.1201  0.2257
60718W        W 3771  15.622   6.982   4.069 -0.0046 -0.0686  0.1955
60719W        W 3772   5.438  19.617   9.641  0.0927 -0.2684  0.0657
60720W        W 3773  26.552   4.041   5.397  0.0469 -0.0306  0.2332
60721W        W 3774  32.062  19.223   4.782  0.1952 -0.0955  0.2299
60722W        W 3775  32.406   6.130   1.851  0.2915 -0.0155 -0.0555
60723W        W 3776  30.597   7.026   7.823  0.1025 -0.1256 -0.0191
60724W        W 3777   3.694   8.500   5.531  0.1157  0.0594  0.1138
60725W        W 3778   3.637  28.131   4.047  0.0345  0.2423  0.2683
60726W        W 3779  27.518  23.632   4.700 -0.0083  0.0710 -0.0437
60727W        W 3780  32.910  22.170   2.708  0.0773 -0.1128  0.2500
60728W        W 3781   1.144   8.384   7.674  0.2301 -0.1031  0.0810
60729W        W 3782  29.156  11.454   5.205  0.0732  0.4824  0.0407
60730W        W 3783  31.740  21.032   7.601 -0.1942 -0.1538  0.1226
60731W        W 3784   2.577   5.289   7.705 -0.1671  0.1178  0.0780
60732W        W 3785  10.132   8.367   8.853  0.1966  0.1400 -0.2849
60733W        W 3786  34.244   4.993  13.592  0.0480  0.1331 -0.1911
60734W        W 3787  29.739  13.532  23.422 -0.2526 -0.0107 -0.3469
60735W        W 3788   3.744  33.241  18.533 -0.0326 -0.0410  0.0716
60736W        W 3789  14.669  17.750   1.027  0.1363  0.3082 -0.0009
60737W        W 3790  14.423  24.077   6.962  0.0747  0.1840 -0.2698
60738W        W 3791  34.299  13.858   1.791  0.0301 -0.2622  0.1962
60739W        W 3792   0.899  15.769   4.653 -0.4224 -0.1425 -0.0969
60740W        W 3793   8.727  10.610  28.095 -0.1398  0.1035  0.1489
60741W        W 3794  26.138  20.701   1.739  0.0784 -0.2812  0.2462
60742W        W 3795   8.922  16.704   0.113  0.0837  0.3874 -0.0196
60743W        W 3796  30.455  32.024   4.374  0.0032  0.0459  0.0790
60744W        W 3797  24.692  16.788  24.547  0.0403  0.4058  0.0192
60745W        W 3798  29.164  30.421   4.522 -0.2664 -0.0750  0.0205
60746W        W 3799  30.278  19.401   6.814 -0.2448 -0.1950 -0.2621
60747W        W 3800  30.237  24.817  26.243 -0.0999 -0.1698 -0.0239
60748W        W 3801  23.403  11.094   6.320 -0.3994 -0.0892 -0.3244
60749W        W 3802   1.621  27.005   2.539  0.3185 -0.1726 -0.1016
60750W        W 3803  27.288  34.252  17.742 -0.0099  0.2054  0.0303
60751W        W 3804  28.886   5.190   5.423  0.3132  0.2636  0.0392
60752W        W 3805  20.556  17.385   3.542  0.1450  0.0736 -0.0864
60753W        W 3806   0.856  26.644  27.559 -0.2944 -0.0346 -0.0916
60754W        W 3807  28.239  24.557   4.085  0.0168 -0.0372 -0.0075
60755W        W 3808   9.522  26.669   2.896  0.2356  0.1081 -0.0677
60756W        W 3809  24.046  25.551   2.250 -0.1739 -0.0120 -0.1460
60757W        W 3810  28.790  16.742   4.852 -0.0952 -0.1032  0.0856
60758W        W 3811  30.680  32.894   1.872 -0.0654 -0.0695 -0.1430
60759W        W 3812  14.226   0.189   6.232 -0.1339  0.1286  0.2242
60760W        W 3813  32.392  28.088  25.072  0.2035  0.0118  0.2230
60761W        W 3814  25.516  23.264  18.486  0.0167 -0.0328  0.0691
60762W        W 3815  29.386  10.652  29.177  0.0967 -0.1773 -0.0261
60763W        W 3816  27.764   7.362   7.114  0.0907 -0.3248 -0.4104
60764W        W 3817  29.968  19.236   5.582 -0.3082  0.2830  0.1269
60765W        W 3818   3.674   0.704  27.251 -0.2545  0.2431  0.0781
60766W        W 3819   1.942  32.915  26.216 -0.0694 -0.0159  0.1635
60767W        W 3820   5.267   4.622   8.239  0.1169  0.1229  0.0953
60768W        W 3821  21.855  15.491  27.097  0.1896 -0.3446 -0.1242
60769W        W 3822  14.128  20.878   4.721  0.1897 -0.1420  0.1140
60770W        W 3823  30.597  10.188  20.668  0.0663 -0.1684 -0.0024
60771W        W 3824  32.016  27.059   2.054 -0.0052 -0.0609  0.0375
60772W        W 3825   0.551  25.298   0.879  0.0303  0.2552  0.1235
60773W        W 3826   7.909   5.892   9.092 -0.0297  0.0688 -0.1231
60774W        W 3827  30.597  18.315   2.897  0.1617  0.1496 -0.0652
60775W        W 3828   4.058  14.368  24.912 -0.1147  0.0042  0.1319
60776W        W 3829  20.753  10.683   8.878 -0.0002  0.1160 -0.0153
60777W        W 3830   0.135  12.428   0.253 -0.0122  0.1340  0.1473
60778W        W 3831   6.890  20.267   8.078 -0.0990  0.0667  0.1938
60779W        W 3832  27.425   6.181   8.411  0.0337  0.0751 -0.0416
60780W        W 3833  23.882  12.176   8.312 -0.0319  0.0264 -0.2529
60781W        W 3834   3.251  24.710   3.277 -0.0793  0.2277 -0.0739
60782W        W 3835  12.936   9.978   3.591 -0.1449  0.0112  0.0516
60783W        W 3836   6.157  16.440  26.424 -0.0852 -0.0850 -0.1702
60784W        W 3837  15.884  22.661   0.768  0.1483 -0.0919  0.0804
60785W        W 3838   5.534  24.774   7.524  0.1240 -0.2263 -0.1120
60786W        W 3839  14.018  15.499   0.948 -0.1691 -0.2273  0.2548
60787W        W 3840  33.171  13.495  23.240  0.2349 -0.0940 -0.3108
60788W        W 3841  30.308   8.715   8.686 -0.1266  0.1081  0.1550
60789W        W 3842  16.388  30.833  25.055 -0.2094  0.0754 -0.2011
60790W        W 3843  26.799  20.673   6.450 -0.2496  0.0670 -0.2241
60791W        W 3844  11.039  26.579   4.056  0.1322 -0.2239 -0.0164
60792W        W 3845   8.787  14.451   0.397 -0.0297  0.0891 -0.1177
60793W        W 3846  24.192  11.674   2.557 -0.1587  0.4450  0.0728
60794W        W 3847   0.176  13.367   4.954 -0.0029 -0.0990  0.1105
60795W        W 3848  30.162  12.466   2.645  0.0155 -0.0448 -0.2323
60796W        W 3849  32.094  16.115   7.325  0.1940  0.0885 -0.1316
60797W        W 3850  31.280  26.628   2.364  0.0461  0.0398 -0.3787
60798W        W 3851  15.547  17.309  24.517 -0.4291 -0.1830 -0.0107
60799W        W 3852  15.738  26.867  27.861 -0.0580  0.2867  0.1252
60800W        W 3853  14.701  12.243  20.710 -0.0522  0.1574  0.3937
60801W        W 3854   9.120   7.957   9.564  0.5073  0.4803  0.0120
60802W        W 3855  16.098  25.311  16.548 -0.1166 -0.1195  0.0074
60803W        W 3856   3.999  17.461  16.513  0.0260  0.1181 -0.1787
60804W        W 3857  23.100  15.669   1.473 -0.1154  0.0766 -0.1123
60805W        W 3858  29.983  27.803  26.023 -0.0405  0.0881 -0.0184
60806W        W 3859  20.109  18.519  18.146  0.0438 -0.3406  0.1139
60807W        W 3860  11.580   5.290   7.390  0.1693 -0.0818 -0.1489
60808W        W 3861  10.798  21.185   0.497  0.1597 -0.0183 -0.1106
60809W        W 3862   0.513   7.904   4.213 -0.0337  0.0270 -0.0867
60810W        W 3863   2.388   8.565  27.030 -0.0512 -0.0282  0.2298
60811W        W 3864  29.767  23.931  10.249  0.0168 -0.0064  0.0837
60812W        W 3865  31.279  17.393   7.605  0.2684 -0.1574  0.1298
60813W        W 3866  33.646  13.055  24.251  0.1283  0.1877 -0.3588
60814W        W 3867   1.468  12.320   5.769  0.0337 -0.0652 -0.2027
60815W        W 3868  26.134  23.523   5.518 -0.3444 -0.1365 -0.0936
60816W        W 3869  31.642   5.236   3.142 -0.0720 -0.2132  0.2105
60817W        W 3870  31.668  27.008   2.375 -0.1346  0.0756  0.3779
60818W        W 3871  24.460   8.377   4.215  0.1148  0.0224  0.0603
60819W        W 3872  30.119  23.660   0.970  0.1271 -0.0088  0.0330
60820W        W 3873  33.264  18.080  26.590 -0.1866  0.0982  0.2413
60821W        W 3874   4.598  12.523   7.796  0.2134  0.0545 -0.1448
60822W        W 3875  23.261  13.763  20.712  0.1572 -0.3384  0.0917
60823W        W 3876  19.977  13.179  20.036 -0.0945 -0.0068  0.0779
60824W        W 3877   2.528  30.881  17.657  0.2862 -0.3446 -0.0567
60825W        W 3878  18.018  19.222   7.888  0.1387 -0.0062  0.1059
60826W        W 3879  33.997  14.877   1.428  0.2060  0.1729 -0.3376
60827W        W 3880  27.362  10.987   8.403 -0.2048  0.0917 -0.1983
60828W        W 3881  11.858  20.372  28.273 -0.1319 -0.0558  0.2931
60829W        W 3882  10.392  10.759   2.624  0.1875 -0.1103  0.0202
60830W        W 3883  13.347   4.538   5.876  0.6150 -0.1779  0.0462
60831W        W 3884  32.027  32.003   5.418  0.2428  0.0280  0.0966
60832W        W 3885  17.479  17.384  28.275 -0.0525 -0.0785  0.1393
60833W        W 3886  34.177  16.405  27.892  0.1635 -0.0322  0.1085
60834W        W 3887  23.605   0.530  25.926 -0.0669 -0.0937  0.0800
60835W        W 3888  29.820  11.943  10.190  0.1597 -0.0853 -0.0257
60836W        W 3889  29.566  28.160   2.575 -0.3367  0.1026  0.0102
60837W        W 3890  31.544  12.881   9.500  0.2518  0.0809  0.0412
60838W        W 3891  28.698  26.106  27.895  0.1983  0.1647  0.3876
60839W        W 3892   8.813  24.625  26.956 -0.2220 -0.1347 -0.2713
60840W        W 3893   6.777   6.628   8.400  0.1661  0.0115  0.2653
60841W        W 3894  29.633  25.894   5.352 -0.1885  0.0002 -0.1065
60842W        W 3895   2.574  22.802  22.720  0.1315  0.1720 -0.1642
60843W        W 3896  34.175   3.751   3.532  0.0920 -0.0183  0.2973
60844W        W 3897   5.429  15.809   5.147  0.2493  0.0002 -0.0812
60845W        W 3898  29.826  20.351   0.719  0.0210  0.0001  0.1273
60846W        W 3899  28.778   2.043  24.708 -0.1597  0.1587  0.0588
60847W        W 3900  26.533  25.532   9.513  0.1736  0.0181 -0.1611
60848W        W 3901  25.418   9.154  22.425  0.0405 -0.1072  0.2397
60849W        W 3902  14.548  25.802   9.312  0.0116 -0.2171  0.0557
60850W        W 3903   5.680   7.792   1.443 -0.3108  0.0176  0.2009
60851W        W 3904   2.434  23.737   1.044  0.1696 -0.2992  0.1130
60852W        W 3905   6.058  16.534  22.379  0.1650  0.1949  0.0116
60853W        W 3906  34.203  15.761   6.062  0.1921 -0.0492  0.0737
60854W        W 3907  34.415  10.415   6.391 -0.0269 -0.0121  0.1925
60855W        W 3908  16.286   3.966   9.783 -0.2318 -0.0620 -0.0252
60856W        W 3909  34.158  13.108  25.358  0.1525 -0.1185  0.0185
60857W        W 3910   3.410  16.424  25.019 -0.1845  0.2142  0.1580
60858W        W 3911   5.321  14.767   6.471  0.2533  0.0571 -0.0238
60859W        W 3912   3.144  30.737  19.453 -0.0494  0.0712 -0.0138
60860W        W 3913  28.826  13.895   4.182  0.0447 -0.2377 -0.0336
60861W        W 3914  19.553  11.818   2.260 -0.0723  0.1587  0.0870
60862W        W 3915  34.374  12.998   5.040  0.1371 -0.2109  0.0942
60863W        W 3916  32.389  26.807   8.080 -0.1148  0.0693  0.1675
60864W        W 3917   3.928  20.325   3.441 -0.1303 -0.0533  0.2600
60865W        W 3918  23.431  22.287   5.545 -0.0401  0.0657  0.4572
60866W        W 3919   1.909  30.889  27.763  0.0106 -0.0151 -0.2247
60867W        W 3920  24.957  32.211   4.039  0.1603  0.1473  0.1001
60868W        W 3921  11.932  20.392   8.084 -0.1380 -0.0657 -0.0313
60869W        W 3922   2.220  26.002  19.180  0.2075 -0.1325 -0.2925
60870W        W 3923  26.109  13.620  22.179 -0.1436 -0.0407  0.1448
60871W        W 3924  30.028  13.838   2.843 -0.1687 -0.2697  0.0202
60872W        W 3925  19.844  19.010   2.889  0.0196  0.1875  0.0005
60873W        W 3926  22.550  24.939  27.337 -0.3076 -0.4268  0.1805
60874W        W 3927  30.331  20.376   8.497 -0.3005  0.0707  0.4544
60875W        W 3928   6.509  11.046  28.288  0.0074  0.1480 -0.1582
60876W        W 3929  15.282  22.718  15.471 -0.3806 -0.1024  0.0443
60877W        W 3930  10.307  21.772   2.430  0.2360 -0.0170  0.1247
60878W        W 3931   5.224  20.504   5.967 -0.1690  0.0133  0.1929
60879W        W 3932  30.734  11.814   3.289  0.0698  0.4472 -0.0225
60880W        W 3933  13.366  12.722   9.350 -0.2339 -0.2325  0.1213
60881W        W 3934  33.691   9.053   9.556 -0.0917  0.0673  0.1853
60882W        W 3935   2.948  23.133   5.285 -0.0662  0.0007  0.1234
60883W        W 3936  13.735  19.484   5.661 -0.1020  0.1609  0.1255
60884W        W 3937  29.959  34.128  20.705  0.2712 -0.1322 -0.0539
60885W        W 3938   4.470  10.360   8.572 -0.0345 -0.0959 -0.0460
60886W        W 3939   2.491  16.882   7.378 -0.2193  0.1105  0.3955
60887W        W 3940   6.629  10.014   6.059  0.1983  0.1910  0.2047
60888W        W 3941  32.151  13.061   0.758 -0.1834 -0.0591 -0.0680
60889W        W 3942   5.620  20.264  28.396 -0.0372 -0.0073 -0.0671
60890W        W 3943  31.596  21.127   2.451 -0.0779  0.0392 -0.2096
60891W        W 3944   6.473  10.745  20.170  0.0792 -0.0944  0.0176
60892W        W 3945   2.858   9.075  29.005 -0.2830  0.0067  0.2769
60893W        W 3946   5.042  16.006  22.840 -0.1764  0.3732 -0.0369
60894W        W 3947  30.387  25.527   4.091  0.3936 -0.3050  0.0633
60895W        W 3948  31.155  12.504   5.150  0.2859  0.1273  0.1695
60896W        W 3949  26.643  16.501   6.698  0.4855  0.1815 -0.1228
60897W        W 3950  28.476  20.508   9.669  0.0595  0.1145  0.3763
60898W        W 3951   5.754  28.092  16.583  0.2888 -0.0043  0.0322
60899W        W 3952   1.338  23.936  16.247  0.0213 -0.0542  0.0480
60900W        W 3953  31.194  11.694   8.714  0.0450 -0.0993 -0.2236
60901W        W 3954  26.457   8.640   9.962 -0.2261  0.0778 -0.0268
60902W        W 3955  15.380  17.395  27.304 -0.2542  0.1331  0.0830
60903W        W 3956   6.904  14.807  24.763 -0.1113  0.2321  0.3033
60904W        W 3957  30.149  18.113   6.269  0.2572  0.2551 -0.1820
60905W        W 3958  22.887   9.387   5.494  0.3165 -0.1068 -0.2698
60906W        W 3959  19.853   9.873   9.541 -0.3123 -0.3083  0.5169
60907W        W 3960  32.771   4.312   5.442  0.2290  0.0908 -0.2888
60908W        W 3961  13.816   5.524   3.734 -0.3804  0.3809  0.2303
60909W        W 3962  19.414  12.430   2.426 -0.3988  0.1535 -0.0545
60910W        W 3963  19.632  13.629   2.678  0.1327 -0.0846  0.0165
60911W        W 3964  21.843  20.223  28.808  0.0679 -0.2113 -0.1098
60912W        W 3965  26.287  12.530  19.618 -0.0633 -0.1425  0.0014
60913W        W 3966  25.847  12.134  16.966  0.1897 -0.0508  0.1584
60914W        W 3967   2.124  11.880   1.887 -0.0207 -0.0850  0.0895
60915W        W 3968  30.228  11.502   2.950  0.1111 -0.0044  0.0970
60916W        W 3969  19.717  16.401   1.661  0.1720  0.1426 -0.2541
60917W        W 3970   8.930  24.717   3.115  0.0075 -0.0705  0.2831
60918W        W 3971  22.895  15.848  24.426  0.1509 -0.1840  0.2924
60919W        W 3972  25.850  16.654   9.768  0.0798 -0.1112  0.3584
60920W        W 3973  16.712  12.917  27.827 -0.1447  0.1452 -0.2393
60921W        W 3974   1.538  20.759   3.371  0.0559 -0.2094 -0.0001
60922W        W 3975  23.025  12.895   6.379 -0.3241  0.2196  0.0795
60923W        W 3976   6.502   8.884   9.211 -0.1080 -0.0326  0.0794
60924W        W 3977  15.675  17.203  23.268  0.3017 -0.1718  0.0070
60925W        W 3978  23.745  25.513   3.807  0.0840 -0.1630  0.0729
60926W        W 3979   6.101  17.774  27.649 -0.0452  0.2601  0.0407
60927W        W 3980   5.589   4.884   2.400  0.0317  0.0347 -0.1144
60928W        W 3981  15.124   5.614  24.349 -0.0313  0.1126 -0.0423
60929W        W 3982  25.621  27.338  25.920 -0.0181  0.1932  0.0929
60930W        W 3983   7.549  23.943   0.464  0.4461 -0.1666 -0.0641
60931W        W 3984  32.110   3.389  22.726 -0.5003 -0.1362  0.1371
60932W        W 3985   5.209  28.556   9.691  0.1891  0.0621 -0.3375
60933W        W 3986   1.514  27.873  26.894 -0.3145  0.1484 -0.2176
60934W        W 3987   0.202  16.188   5.294  0.1822  0.0593  0.0021
60935W        W 3988  31.344  21.348   3.886  0.0753 -0.0085 -0.2227
60936W        W 3989   4.443  19.055   9.683 -0.1997  0.1641  0.4202
60937W        W 3990  25.231  14.878  27.026 -0.0421  0.0145  0.0056
60938W        W 3991   4.008  28.088   7.266 -0.0113 -0.1805 -0.2123
60939W        W 3992  24.485  12.518   7.120 -0.0569 -0.0896  0.0508
60940W        W 3993  10.843  15.619  28.274 -0.0710  0.1291  0.4492
60941W        W 3994  16.366  10.981   6.162 -0.1707 -0.1487 -0.4585
60942W        W 3995  15.732  10.106   4.845  0.0877  0.1831  0.1888
60943W        W 3996  29.920  28.305   7.191 -0.0143  0.4711 -0.0641
60944W        W 3997  30.322  24.427   1.935 -0.0647  0.0706  0.0824
60945W        W 3998  12.494   5.755  28.458  0.2792  0.0087 -0.0804
60946W        W 3999  12.087  24.890  24.587  0.0833  0.1347 -0.1736
60947W        W 4000  28.125  20.270   3.127  0.0892 -0.2364  0.2096
60948W        W 4001  22.263   8.085   9.307 -0.3330 -0.3438  0.1344
60949W        W 4002   2.751  22.304   5.947 -0.1816 -0.1098  0.3518
60950W        W 4003  32.739  13.770   6.538  0.0638  0.0520 -0.1849
60951W        W 4004   6.093  12.163  14.412 -0.0236 -0.2372 -0.0759
60952W        W 4005  24.619   3.636  24.793  0.0339  0.1110 -0.1536
60953W        W 4006   2.445  18.596   5.967 -0.0181 -0.0090  0.0249
60954W        W 4007  21.986  24.151  28.954  0.3290  0.1605  0.2989
60955W        W 4008   2.778  24.331  24.543 -0.0613  0.3653  0.1456
60956W        W 4009  21.793  15.370  22.275 -0.0663 -0.0654 -0.1783
60957W        W 4010  28.930  20.239   2.666  0.0651  0.3451 -0.0069
60958W        W 4011  27.196  30.857  18.820 -0.3391  0.0640  0.0554
60959W        W 4012   0.646  17.820  27.086  0.0407 -0.0776 -0.2443
60960W        W 4013   4.217  22.442  20.276 -0.0143  0.1474 -0.1860
60961W        W 4014  33.819  11.269  27.360 -0.0783  0.2398 -0.0475
60962W        W 4015  24.580  18.544   6.770 -0.1664 -0.0285  0.2148
60963W        W 4016  29.301  11.663  17.995 -0.0687  0.0645 -0.2926
60964W        W 4017  11.521  17.974   6.379 -0.0764 -0.0134 -0.0777
60965W        W 4018  31.521  13.613  19.368  0.4557 -0.0915  0.0194
60966W        W 4019   0.124  17.023   2.407 -0.0190 -0.1126  0.0585
60967W        W 4020  27.210  24.199   0.054 -0.2318  0.1555 -0.2626
60968W        W 4021  27.958  14.599  26.506 -0.3359  0.2314  0.2638
60969W        W 4022   9.824  19.250   4.573 -0.0099 -0.0047  0.0575
60970W        W 4023   9.289  11.148   9.074 -0.1768  0.1208  0.0340
60971W        W 4024   1.587  28.290   6.132  0.2819 -0.0533 -0.4267
60972W        W 4025   9.390  14.203   7.327 -0.0020 -0.3462 -0.3626
60973W        W 4026  19.527  22.737   3.985  0.1218 -0.1281 -0.3520
60974W        W 4027  32.865  17.576   6.374  0.0551 -0.0092 -0.1298
60975W        W 4028   6.867   5.909   9.255 -0.0532 -0.1968  0.1038
60976W        W 4029  15.086  31.452   3.663 -0.1471  0.0809 -0.2391
60977W        W 4030  23.586  12.483  25.762  0.0224  0.0491  0.0811
60978W        W 4031  25.741  22.572   8.492 -0.0377 -0.0279  0.5135
60979W        W 4032  34.681   5.909   7.355 -0.0976 -0.0448  0.1967
60980W        W 4033  30.492  24.867   3.174  0.0346  0.2362 -0.3251
60981W        W 4034  28.541  23.534  18.492 -0.5249  0.3547 -0.0378
60982W        W 4035  25.081  10.761  22.475  0.1594  0.1157  0.1400
60983W        W 4036  25.085  32.584   2.708  0.1746 -0.2599  0.2222
60984W        W 4037  19.946  18.690   7.226  0.1457  0.0077  0.1562
60985W        W 4038  33.409  24.922   9.746  0.3292  0.3960  0.0210
60986W        W 4039   5.214  32.014   2.392 -0.2110 -0.0407  0.1975
60987W        W 4040  20.887  12.573  27.873 -0.2456 -0.2240 -0.0984
60988W        W 4041  33.514  24.327   5.080  0.2563 -0.2188  0.1812
60989W        W 4042   2.425   1.713   5.155  0.1191  0.1785  0.1516
60990W        W 4043   5.334  20.428   1.174 -0.0946  0.0312  0.1827
60991W        W 4044  30.328   0.964  25.139 -0.2689 -0.0755  0.0877
60992W        W 4045  20.782  26.126  10.391  0.1548 -0.0584  0.2055
60993W        W 4046   3.729  24.397  25.894 -0.1831  0.1221 -0.0622
60994W        W 4047  10.246   5.450   9.936 -0.3449 -0.0591  0.1620
60995W        W 4048  23.725  10.039   0.523  0.2791 -0.1007  0.2076
60996W        W 4049  26.002  32.434   3.155 -0.0178 -0.2495 -0.0456
60997W        W 4050   8.156   4.251   9.954  0.0956  0.1007  0.1857
60998W        W 4051   7.997  17.965  23.669 -0.0573  0.1895 -0.0253
60999W        W 4052   8.210  13.942   7.981  0.1969 -0.1116  0.0571
61000W        W 4053  33.869   6.705   6.400  0.1331  0.0855  0.0416
61001W        W 4054   1.948  18.259   3.326 -0.1894  0.1906  0.0474
61002W        W 4055   3.013  27.013   5.536  0.1468  0.1294 -0.2242
61003W        W 4056  30.079  20.081  26.938  0.0179 -0.4193 -0.0413
61004W        W 4057  28.515  13.574  23.143  0.0476  0.3106 -0.4217
61005W        W 4058  32.574  20.803  19.893 -0.1803 -0.0354 -0.2419
61006W        W 4059   1.845  29.595   2.444 -0.2120  0.1265  0.0164
61007W        W 4060   9.928  25.854  28.834 -0.0045 -0.0909  0.0055
61008W        W 4061  26.445  23.859   7.768 -0.0187 -0.0935  0.2324
61009W        W 4062  18.752  16.932   5.563 -0.0261 -0.0042 -0.0592
61010W        W 4063  14.417  13.469   0.776  0.3195 -0.1391  0.1766
61011W        W 4064   0.294  14.326   8.721  0.0510 -0.1050 -0.3136
61012W        W 4065  23.852  30.533  23.051  0.1477 -0.0544 -0.1886
61013W        W 4066   3.153  18.669   7.742 -0.2902 -0.0575 -0.1391
61014W        W 4067   2.234  16.598   2.332 -0.0957 -0.1076  0.0858
61015W        W 4068  15.476  20.787   0.810 -0.1600 -0.1047  0.0894
61016W        W 4069  28.054  22.518   7.529 -0.1507  0.2134 -0.0506
61017W        W 4070   2.986  17.350   6.615 -0.0483 -0.0757 -0.0910
61018W        W 4071  33.311  25.023   6.765 -0.0260  0.0984  0.1795
61019W        W 4072   7.043  18.049   7.400 -0.1346 -0.2811 -0.2816
61020W        W 4073   5.872  17.594   4.548 -0.1509 -0.2377  0.0408
61021W        W 4074  14.401  19.612   9.082 -0.0218 -0.1858 -0.0196
61022W        W 4075   3.191  28.237   2.798  0.2358  0.0822  0.0075
61023W        W 4076  18.692  11.440   6.288  0.0804 -0.3317  0.1885
61024W        W 4077  13.914   5.269   1.368  0.0873  0.0322  0.1795
61025W        W 4078   2.862  26.344   0.314 -0.1677 -0.0930 -0.4674
61026W        W 4079   8.952  23.112   8.255  0.0986 -0.0505  0.2492
61027W        W 4080  33.924  10.969  28.512 -0.4116 -0.1733  0.0865
61028W        W 4081   4.684  12.624   6.041  0.1414 -0.1143 -0.3678
61029W        W 4082  24.772  23.650  25.645  0.3106  0.3742  0.0099
61030W        W 4083  23.449  24.094  10.917  0.0509 -0.2876  0.0752
61031W        W 4084  14.236  26.612  15.699 -0.0600 -0.6346  0.0757
61032W        W 4085  24.874  19.077   6.938 -0.0592  0.1685 -0.2135
61033W        W 4086  27.674   5.131  24.991  0.0954 -0.0884 -0.3510
61034W        W 4087   5.378  20.028  21.958  0.1806  0.0202 -0.0732
61035W        W 4088   2.947  15.324  27.154 -0.0967  0.1460 -0.1457
61036W        W 4089   4.438  15.275   9.247  0.1309  0.0734  0.0617
61037W        W 4090  15.259   6.093  24.149 -0.1137 -0.0843 -0.1627
61038W        W 4091   8.703   4.318   2.915 -0.1649  0.1121 -0.0058
61039W        W 4092  28.951  15.574  26.171 -0.1114  0.0895 -0.0287
61040W        W 4093  18.050  15.136  15.229  0.1693  0.0283 -0.0537
61041W        W 4094  12.914   1.721   1.623 -0.2570  0.0508  0.0216
61042W        W 4095  19.683  32.261   5.036 -0.0749  0.0932 -0.0951
61043W        W 4096  28.429  26.453   6.539  0.0351  0.0178  0.1257
61044W        W 4097  22.894  29.368  22.528  0.0218 -0.2836 -0.2404
61045W        W 4098  19.205  22.254   1.083 -0.0070 -0.0836  0.0222
61046W        W 4099   8.199  30.238   8.187  0.1135  0.0423  0.2227
61047W        W 4100  34.529  11.868  15.417 -0.1006  0.0556 -0.1048
61048W        W 4101   6.150  26.464  18.159  0.0230  0.2705  0.0259
61049W        W 4102  31.019  21.709   4.199  0.0901 -0.0626 -0.0418
61050W        W 4103  15.936  14.743   6.027 -0.0777  0.1778  0.1924
61051W        W 4104  33.722  30.068   4.778 -0.0523  0.2515 -0.1643
61052W        W 4105   9.131  26.927  22.937 -0.1234 -0.1972  0.0848
61053W        W 4106  30.191  25.274   8.372  0.2794  0.0918 -0.2502
61054W        W 4107  15.534  23.370   8.673 -0.4265  0.0422  0.1845
61055W        W 4108  34.432  21.330  16.475 -0.1469 -0.0067 -0.0084
61056W        W 4109  34.302  15.500  28.395 -0.1419 -0.1644 -0.1069
61057W        W 4110  32.691  19.612   9.689 -0.0553  0.0153 -0.0483
61058W        W 4111  32.341  16.156  25.895  0.3662  0.1235 -0.0139
61059W        W 4112   4.358  16.849   3.603 -0.2629 -0.0822  0.3568
61060W        W 4113  18.953   9.393   7.111 -0.0903  0.4150  0.0066
61061W        W 4114  29.741  23.226   1.448 -0.3699  0.1648  0.0265
61062W        W 4115   3.263   2.957   7.595  0.0366 -0.0193  0.0073
61063W        W 4116  27.980  22.301   0.074  0.0841 -0.2127 -0.0730
61064W        W 4117   5.594  16.111   3.441 -0.2172  0.0436  0.2861
61065W        W 4118  10.895  10.706  28.300  0.0310  0.2474  0.1279
61066W        W 4119  33.451  17.306   5.372  0.1097  0.1214  0.1466
61067W        W 4120  32.646  27.119  28.531  0.1388  0.0420  0.0879
61068W        W 4121   6.466   8.781   2.403 -0.3103  0.0024  0.0473
61069W        W 4122   3.585   2.637  17.479 -0.3415 -0.0605  0.0018
61070W        W 4123  21.679  19.457   7.606  0.0581 -0.0291  0.1611
61071W        W 4124  32.381  11.049   5.974 -0.2674  0.0749 -0.1939
61072W        W 4125  28.586  26.404   7.319 -0.1976  0.1743  0.5850
61073W        W 4126  22.733  23.714   9.019  0.0115 -0.1264 -0.2234
61074W        W 4127  25.336   8.274  21.384 -0.1977  0.2448 -0.1042
61075W        W 4128  23.207  13.696   5.352  0.0849 -0.3479 -0.0820
61076W        W 4129  30.900  23.319   3.772  0.0746 -0.0910  0.3163
61077W        W 4130  32.370  33.776   0.630  0.0030 -0.0618  0.0519
61078W        W 4131  12.614  22.420  18.699 -0.0944 -0.1728 -0.1937
61079W        W 4132  16.409  30.591   9.076 -0.3977 -0.0090 -0.0733
61080W        W 4133   2.236   8.278  19.371  0.0884 -0.1525  0.0434
61081W        W 4134   4.614   0.296  21.315  0.0753  0.0711  0.0306
61082W        W 4135  11.833  32.619   0.724 -0.1161  0.4691 -0.2866
61083W        W 4136  30.925  10.301   5.229  0.0065 -0.3156  0.0852
61084W        W 4137  29.736  29.669  25.739 -0.0621 -0.1672  0.1554
61085W        W 4138  25.802  23.847  26.538  0.2817  0.0450  0.2260
61086W        W 4139  23.376   7.803  22.699  0.2692 -0.0990 -0.0072
61087W        W 4140  19.794  20.728  24.898  0.1109 -0.0647 -0.1856
61088W        W 4141   0.422  14.087  21.758  0.1587 -0.2135  0.0740
61089W        W 4142  33.637  17.757  26.845 -0.2801  0.0240  0.1199
61090W        W 4143  28.970  23.628  29.144  0.2611 -0.0484  0.0333
61091W        W 4144  12.730  14.263  27.060  0.0456  0.1056  0.2178
61092W        W 4145  23.561  16.745  26.474  0.1678 -0.1973 -0.2468
61093W        W 4146  33.963   6.478   3.652  0.3995  0.0054 -0.0317
61094W        W 4147   7.257  10.218   2.260 -0.2927 -0.0887  0.1116
61095W        W 4148  33.176  12.014   7.413  0.0658 -0.4423 -0.0464
61096W        W 4149   8.368  11.925  27.813  0.2324 -0.1262 -0.5324
61097W        W 4150  18.720  24.857   7.886  0.1623  0.2567  0.2069
61098W        W 4151  30.559  22.123  19.968  0.0170  0.1269 -0.0026
61099W        W 4152   6.956  22.497  27.284 -0.1445  0.2740 -0.0370
61100W        W 4153  15.232  25.171   1.553 -0.0920 -0.1896 -0.1247
61101W        W 4154  23.180  15.674  16.267 -0.1268  0.1692  0.0830
61102W        W 4155   2.302  32.901   0.608 -0.2213  0.1680 -0.1371
61103W        W 4156  13.633  18.115   3.810 -0.2703  0.1181 -0.0778
61104W        W 4157  29.085   7.441   5.161  0.0895 -0.1833  0.2658
61105W        W 4158   7.510  27.298  20.519 -0.3545  0.0520  0.0267
61106W        W 4159  33.837  21.122   5.322 -0.0972  0.1834  0.5716
61107W        W 4160  13.483  22.301  21.883 -0.0932 -0.2862  0.0230
61108W        W 4161   2.690   2.645   6.826 -0.1030 -0.0442  0.0324
61109W        W 4162  24.738  17.426   4.196 -0.0731 -0.6558  0.0622
61110W        W 4163  34.683  16.831   3.695 -0.2730 -0.2036  0.0893
61111W        W 4164   5.749   5.786   2.007 -0.2879  0.1126 -0.1036
61112W        W 4165  23.008  19.632   5.315 -0.3849 -0.1599 -0.1681
61113W        W 4166   0.821  18.895  18.227 -0.2158  0.1953  0.0311
61114W        W 4167   4.685  27.802  21.316 -0.0304 -0.2658  0.3468
61115W        W 4168  21.900  27.067   7.523 -0.0730 -0.1209 -0.2749
61116W        W 4169   4.732  28.015   7.900  0.0097  0.0142  0.2698
61117W        W 4170   3.643  17.443  18.735  0.2197 -0.1850  0.0433
61118W        W 4171  30.538  30.426  28.588 -0.0747 -0.0380 -0.0276
61119W        W 4172  15.110  26.202   5.438 -0.1047  0.0651 -0.1050
61120W        W 4173   2.197  26.613  20.641 -0.0968  0.1359  0.0436
61121W        W 4174   0.368   8.983  17.708  0.3613 -0.1783  0.1421
61122W        W 4175  34.202  34.395  25.577  0.2486  0.1937 -0.2913
61123W        W 4176  25.909  18.421   7.638 -0.1613 -0.0078 -0.0757
61124W        W 4177   0.098  20.308   3.668  0.3398 -0.0937  0.1227
61125W        W 4178   2.207  19.750  17.354 -0.2440 -0.1275 -0.3255
61126W        W 4179   7.591  29.412   6.749  0.1827  0.0789 -0.1694
61127W        W 4180  27.975   9.063  27.398  0.0211 -0.0831  0.4385
61128W        W 4181   4.026  11.734   3.637  0.0015  0.0350  0.2992
61129W        W 4182   1.192  20.552  17.036  0.0246  0.0950 -0.2350
61130W        W 4183  20.346  19.964  23.805 -0.0934  0.1359  0.2368
61131W        W 4184   7.405  22.365  22.335  0.2235  0.0791 -0.0803
61132W        W 4185  14.783  13.338  25.646 -0.0595 -0.0574  0.0532
61133W        W 4186  28.888  14.593   8.835  0.2507  0.4998  0.0975
61134W        W 4187  10.057   0.570   4.927  0.2770 -0.2107 -0.1655
61135W        W 4188  28.594  17.870  24.915  0.0658  0.3043  0.1805
61136W        W 4189  24.447   0.462  25.289 -0.1243  0.0040 -0.1127
61137W        W 4190  21.639  17.952  26.498  0.0485 -0.1034 -0.1062
61138W        W 4191  33.721  28.184   3.334 -0.1798 -0.0911 -0.3073
61139W        W 4192  11.448  17.287   2.099 -0.0482 -0.1678  0.3479
61140W        W 4193  30.061  23.266  26.745  0.1324  0.0573 -0.2864
61141W        W 4194   5.040  20.324   2.637 -0.0138 -0.1343 -0.0271
61142W        W 4195  24.006  28.304   2.289  0.4329 -0.2459  0.0802
61143W        W 4196   9.319  10.908  24.978 -0.2183  0.0538 -0.0323
61144W        W 4197  22.062  19.942   3.191  0.0723  0.0339 -0.2403
61145W        W 4198  30.516  26.480   6.923 -0.2606 -0.2263  0.2008
61146W        W 4199  14.110  27.055   0.758  0.2881  0.3084  0.0201
61147W        W 4200  22.440  15.489   7.129  0.1433  0.0145  0.0508
61148W        W 4201   5.695  14.914   5.503 -0.0856  0.1560  0.0319
61149W        W 4202  30.263  23.256   0.208 -0.0000 -0.0746  0.3176
61150W        W 4203  28.008   6.040  16.406  0.1378 -0.0335  0.3361
61151W        W 4204  25.744   5.319   3.106 -0.2605  0.1741 -0.1007
61152W        W 4205  26.805  24.885   0.695 -0.0436  0.0174  0.4382
61153W        W 4206  12.518  18.894   6.933 -0.0913  0.1281 -0.0516
61154W        W 4207   2.990   6.283  10.224 -0.0884 -0.5692 -0.0181
61155W        W 4208  30.689  30.876  23.434 -0.0190  0.1633 -0.3408
61156W        W 4209   1.771  30.400   4.020  0.1095  0.0826  0.0231
61157W        W 4210  13.559  24.707   6.165  0.3222 -0.3863 -0.0806
61158W        W 4211   4.972  27.992  24.171  0.1640 -0.0309  0.2092
61159W        W 4212  29.423  19.656   6.331  0.2097  0.0449  0.0992
61160W        W 4213  15.881  31.884   7.399  0.1107 -0.1842  0.0100
61161W        W 4214  33.607  24.555  14.531  0.3805 -0.1817  0.4058
61162W        W 4215  28.906  32.606  25.629 -0.0886  0.2197 -0.1995
61163W        W 4216  29.086  24.077   2.986  0.0445  0.1559  0.2222
61164W        W 4217  22.559  12.055  25.623  0.0625 -0.0529 -0.0612
61165W        W 4218   2.371  19.279  27.733 -0.2991  0.3406  0.1153
61166W        W 4219  33.764   9.075  28.969 -0.0956  0.1210  0.0720
61167W        W 4220  32.469  18.745  23.252 -0.1942 -0.1489 -0.0462
61168W        W 4221  15.990  13.332  24.981  0.3295  0.0370  0.0985
61169W        W 4222   7.392  32.559   8.917  0.0424 -0.0214 -0.0675
61170W        W 4223  33.638  11.213  24.145  0.0309  0.0273 -0.0509
61171W        W 4224  11.177  24.302   3.061 -0.2093  0.1566  0.2550
61172W        W 4225   0.018   9.280   3.983 -0.3070 -0.4863 -0.0868
61173W        W 4226  31.891  15.624  14.611 -0.1931 -0.1843 -0.1391
61174W        W 4227   4.302  14.479   4.070 -0.3017 -0.0065 -0.2710
61175W        W 4228  32.394  24.717  18.623 -0.1157  0.2160 -0.0827
61176W        W 4229  21.346  26.872   9.981  0.1716  0.0461 -0.1825
61177W        W 4230  34.239  20.308  28.881  0.3626  0.0371 -0.0009
61178W        W 4231  28.676   4.682  15.860 -0.1944  0.1399  0.1648
61179W        W 4232   9.669  20.442   9.742 -0.0436  0.4403  0.0827
61180W        W 4233  27.452  19.772  24.624 -0.2825  0.1616  0.0648
61181W        W 4234  30.089  10.552  26.204 -0.2532 -0.0093 -0.2887
61182W        W 4235  31.394   4.528  24.119 -0.2117 -0.0406  0.2615
61183W        W 4236  19.902  13.559   5.263 -0.1729  0.1993  0.0679
61184W        W 4237  34.152  21.664   8.356  0.2399 -0.3036  0.1597
61185W        W 4238   1.137  33.491  15.589 -0.0071  0.0721 -0.1176
61186W        W 4239  29.391   9.385  10.320  0.0653  0.3209 -0.0856
61187W        W 4240  16.508   7.558   2.274 -0.1531  0.1993 -0.0167
61188W        W 4241  26.885  17.642   4.151 -0.0091  0.1566  0.1583
61189W        W 4242  13.218  26.691   0.282  0.2315  0.2135  0.2653
61190W        W 4243  23.282  13.230  10.118  0.0911  0.0315 -0.0347
61191W        W 4244  23.549  28.773  20.017 -0.1236 -0.0791  0.1861
61192W        W 4245   5.744  30.490  24.388 -0.0702  0.1140  0.1124
61193W        W 4246   3.049  33.272  26.894 -0.1518  0.0163 -0.2472
61194W        W 4247   0.060  17.471  22.313  0.1411 -0.1122  0.1038
61195W        W 4248   6.719  14.972  27.503 -0.1662  0.2361 -0.0581
61196W        W 4249  23.019   0.462  16.913  0.2575  0.0919 -0.2227
61197W        W 4250   5.484   2.740  23.336  0.0745  0.0608  0.0615
61198W        W 4251  14.269   0.355   4.881  0.2871  0.4682 -0.2311
61199W        W 4252   8.011  15.545  25.884  0.0652 -0.1541 -0.0276
61200W        W 4253   4.639  20.325   3.750  0.0379  0.0557 -0.3440
61201W        W 4254  25.804  13.811  22.543  0.1799 -0.2590 -0.1578
61202W        W 4255   9.358  11.694   0.829 -0.0409  0.0136 -0.1077
61203W        W 4256   9.913   0.163  28.543  0.3025  0.0657 -0.1150
61204W        W 4257  23.184   6.935   2.319 -0.0603  0.0751 -0.0621
61205W        W 4258  33.972  14.764  25.878 -0.0223  0.0633 -0.1204
61206W        W 4259  34.336  10.489   1.865 -0.0712  0.0456 -0.0750
61207W        W 4260  33.872  27.862   0.953 -0.1095 -0.0395 -0.0529
61208W        W 4261   1.347  28.201   5.712 -0.0980 -0.0159  0.1176
61209W        W 4262   0.206  24.632   8.506  0.0640 -0.0486 -0.0877
61210W        W 4263   6.793  20.865  28.613 -0.0681  0.0062  0.2038
61211W        W 4264   5.187  31.495  20.014  0.0210  0.0018 -0.0385
61212W        W 4265   9.329  17.430   4.956 -0.0139  0.1211  0.0067
61213W        W 4266  12.051   3.609   6.441 -0.0547 -0.0410 -0.0313
61214W        W 4267   5.288   8.348  25.659  0.4223  0.0112 -0.1014
61215W        W 4268  25.285  30.466   4.634  0.0269  0.0849  0.1332
61216W        W 4269  31.930  29.513  22.026 -0.0601 -0.1214 -0.0989
61217W        W 4270  14.879  13.736   0.689  0.2199  0.1526  0.3991
61218W        W 4271   2.119  17.299   1.333 -0.0991  0.0350  0.1723
61219W        W 4272  30.599  12.894   3.929  0.3417  0.0428 -0.2303
61220W        W 4273   1.308  13.596  26.986 -0.4101 -0.2431  0.0029
61221W        W 4274  20.720  17.876   4.717 -0.1226  0.0393  0.0433
61222W        W 4275   1.692   5.444  22.115 -0.0092  0.2879 -0.1760
61223W        W 4276  22.763  26.341  28.801  0.2644  0.3240 -0.1328
61224W        W 4277  10.187   6.854  24.780  0.2517 -0.0580 -0.0292
61225W        W 4278  33.964  31.083  25.976  0.2999 -0.1716  0.3884
61226W        W 4279   9.824  25.266   0.653  0.1306 -0.0344  0.2778
61227W        W 4280  31.705  25.246  24.909  0.2960 -0.4681  0.0456
61228W        W 4281   3.655  19.398  22.600  0.0609  0.2000  0.1204
61229W        W 4282   3.199  22.301   7.129  0.3652  0.0167 -0.1125
61230W        W 4283  31.937   7.086   3.205  0.0279  0.0188  0.4443
61231W        W 4284   4.072   6.919  21.210  0.0525 -0.0920 -0.3755
61232W        W 4285   9.118  14.468   2.169  0.1237  0.1181  0.1583
61233W        W 4286  17.562  17.313   4.351  0.0369  0.2565  0.0401
61234W        W 4287  33.174  18.106   5.737 -0.1886  0.1079 -0.1380
61235W        W 4288   8.768   0.649   1.334 -0.0487  0.2395  0.2424
61236W        W 4289   9.546  12.028   8.636  0.0674  0.4010  0.1406
61237W        W 4290  33.106   2.644   9.492  0.0887  0.2032 -0.1532
61238W        W 4291   7.598  19.335  21.582 -0.1313  0.0990 -0.1789
61239W        W 4292   1.354  16.121  28.216  0.0670  0.0471 -0.0488
61240W        W 4293  31.862  15.086  28.652 -0.2167  0.1146 -0.0339
61241W        W 4294   2.118  27.351  16.607  0.2505  0.2766  0.0770
61242W        W 4295  17.269  25.519   1.765 -0.1690  0.1126 -0.0453
61243W        W 4296   0.628  20.293   9.190 -0.1109  0.0685 -0.1690
61244W        W 4297   9.854  29.655   0.165  0.3110  0.1632 -0.0654
61245W        W 4298  32.703  19.978   3.932 -0.0882 -0.1849 -0.2649
61246W        W 4299   1.716   3.730  28.221 -0.0525  0.2572 -0.2170
61247W        W 4300  34.406  13.066  25.833 -0.2348 -0.2080  0.1014
61248W        W 4301  11.395  14.838   6.482  0.0147  0.3521  0.0238
61249W        W 4302   5.725  20.433   0.433  0.2205  0.3194 -0.1329
61250W        W 4303  13.011   2.377  25.298 -0.0058 -0.2297  0.0048
61251W        W 4304  22.507  31.321   8.893  0.4076 -0.6235 -0.2726
61252W        W 4305  28.787  18.414  20.784  0.0098  0.0744 -0.0736
61253W        W 4306   3.502  27.872   4.476 -0.2329 -0.0643 -0.2469
61254W        W 4307  33.975   2.606  28.653  0.1641  0.0072 -0.0345
61255W        W 4308  24.480  19.624  16.246 -0.1224 -0.3547  0.2951
61256W        W 4309   2.410  19.432   9.287  0.0488 -0.2385 -0.2597
61257W        W 4310  15.872   0.002  25.184  0.0777 -0.1393 -0.0426
61258W        W 4311   4.632  20.524   6.925  0.1140  0.1687 -0.0603
61259W        W 4312   3.033  21.831   2.407 -0.0410 -0.3165  0.2088
61260W        W 4313  25.965  12.709  16.138  0.2268 -0.1144  0.1018
61261W        W 4314   6.353  10.217  25.591 -0.1860 -0.0455  0.2248
61262W        W 4315  31.595  23.645   4.601  0.0401  0.1620 -0.0038
61263W        W 4316  28.655  26.350  28.335 -0.1261 -0.0081  0.0320
61264W        W 4317  22.934  31.834  26.568 -0.3501 -0.0673  0.1581
61265W        W 4318  33.795  13.944  13.409  0.1679  0.4104 -0.5234
61266W        W 4319   6.035  24.616  22.851 -0.1828  0.0661  0.0009
61267W        W 4320  11.266  17.323  10.034 -0.2308  0.0363  0.1715
61268W        W 4321  22.034  14.988   8.950 -0.0195  0.0225  0.1681
61269W        W 4322  25.454  24.916  25.279  0.0418  0.0769  0.1584
61270W        W 4323  16.185   5.642   0.727  0.2501  0.2189 -0.2607
61271W        W 4324  11.116  33.374  28.503  0.0175  0.0849  0.1303
61272W        W 4325   2.546  15.340  26.161 -0.3522  0.0212  0.1095
61273W        W 4326   2.149  32.818   0.100 -0.2097  0.0536 -0.1920
61274W        W 4327  16.210   2.795  18.557  0.3824  0.1404  0.2050
61275W        W 4328  12.233  32.181   1.150  0.5816  0.1044  0.1983
61276W        W 4329   3.082  27.894   4.856 -0.0060 -0.2293 -0.1947
61277W        W 4330   7.281  12.751   4.684  0.1107  0.2481  0.1448
61278W        W 4331  24.029  30.922   6.133 -0.0497  0.0975 -0.2018
61279W        W 4332  32.547  30.537   7.835  0.0611 -0.1447 -0.2686
61280W        W 4333   0.327  25.502   2.066 -0.0411  0.0092  0.0220
61281W        W 4334  34.372  23.360  13.950 -0.1249  0.1509  0.0776
61282W        W 4335   5.191   8.050   1.305  0.0407 -0.1179  0.0254
61283W        W 4336   1.183  32.718   1.245 -0.0588 -0.1739  0.2001
61284W        W 4337  31.046  16.284   3.279  0.0655  0.1661  0.0940
61285W        W 4338  25.965  23.039   7.137  0.0566 -0.0494 -0.0730
61286W        W 4339   8.986  15.080   1.151  0.1234  0.1226  0.1175
61287W        W 4340   1.123  12.217  23.397 -0.0499  0.4820 -0.1119
61288W        W 4341  12.227  33.878   7.020  0.0114 -0.1066  0.0681
61289W        W 4342  14.505  18.411   0.496  0.0179 -0.1131  0.1803
61290W        W 4343   5.626  15.568   1.215  0.0121  0.0528 -0.3020
61291W        W 4344   4.871  33.365  29.051  0.1746 -0.3726  0.2816
61292W        W 4345  34.256  15.409  20.964 -0.0870 -0.2161 -0.1613
61293W        W 4346   7.365  21.096   2.135  0.2537  0.3017  0.4599
61294W        W 4347  23.860  27.373  29.179  0.0675  0.1380  0.3164
61295W        W 4348  31.912  33.157   6.031  0.0564  0.0368 -0.1044
61296W        W 4349  21.142   6.844  25.018 -0.0399 -0.0459  0.2610
61297W        W 4350   3.978   5.578  26.523 -0.1361  0.0393 -0.1761
61298W        W 4351  21.300  32.491   3.600 -0.4381  0.3952 -0.3924
61299W        W 4352  16.101  33.118   7.015  0.0477 -0.2340 -0.2415
61300W        W 4353   3.692   5.705   0.374 -0.0054  0.3347 -0.3429
61301W        W 4354  14.066  15.965  21.449 -0.2401 -0.0620  0.0497
61302W        W 4355   0.960  10.341  14.994  0.1749  0.1554 -0.3783
61303W        W 4356  29.800  15.249   0.693  0.0309 -0.3259 -0.1049
61304W        W 4357   2.875  18.128  17.362  0.0550 -0.0241 -0.0250
61305W        W 4358   6.260  23.473   0.685  0.0048  0.0600  0.1653
61306W        W 4359  32.866  13.052  23.190  0.2582  0.4311  0.0655
61307W        W 4360  32.462  29.209   9.479 -0.1975 -0.1796  0.2111
61308W        W 4361   2.846  18.184  19.975 -0.0370  0.0920 -0.0024
61309W        W 4362  12.222  18.793  15.272  0.0341  0.1201  0.1228
61310W        W 4363  19.062   7.691   2.172  0.1817 -0.0178  0.1065
61311W        W 4364  32.917  28.528  26.891  0.3492 -0.1342  0.0847
61312W        W 4365  33.906  22.052  16.830  0.2627 -0.1419  0.0660
61313W        W 4366   8.637  19.195  26.566  0.1877  0.1722 -0.1703
61314W        W 4367  19.038  22.084   4.581  0.1370  0.0957 -0.1678
61315W        W 4368   6.469  24.396  28.248 -0.1092 -0.0595 -0.1943
61316W        W 4369  10.142  10.881   4.462  0.1156  0.1079  0.0494
61317W        W 4370  17.110  14.366  26.817 -0.2113  0.0334 -0.0460
61318W        W 4371   3.246   2.935  27.182 -0.4089  0.0128  0.2624
61319W        W 4372   0.869  21.378  27.635  0.1466 -0.0691  0.0762
61320W        W 4373  10.184  18.528   0.577 -0.2252 -0.0137  0.1264
61321W        W 4374  31.118  25.193   0.801 -0.2319  0.0716 -0.3581
61322W        W 4375   3.457  29.640  27.493 -0.3340 -0.4299 -0.1058
61323W        W 4376   5.996  17.580   2.424  0.2981  0.0904  0.0738
61324W        W 4377  19.165  29.807   6.028  0.3032 -0.1677  0.0111
61325W        W 4378  10.179   9.554   3.276  0.1350 -0.1625 -0.0194
61326W        W 4379   1.081  14.815   3.950 -0.2376 -0.2199  0.0324
61327W        W 4380  17.580  24.483  26.830 -0.2139  0.1783  0.3509
61328W        W 4381   8.746  25.046   6.240  0.1863 -0.2306 -0.0317
61329W        W 4382  31.186  17.932  28.439  0.1455  0.1936  0.2105
61330W        W 4383   5.577  23.597  17.225  0.2040  0.0961  0.1555
61331W        W 4384  26.511  26.116  21.728 -0.2646 -0.0873 -0.0232
61332W        W 4385  26.002  28.578   9.126 -0.0186  0.1093  0.1192
61333W        W 4386  32.893  33.312  16.752  0.2159 -0.0247  0.0640
61334W        W 4387   8.569  16.695   6.062  0.2075 -0.2637 -0.1425
61335W        W 4388  26.052  16.649   7.423 -0.2000  0.0528  0.1189
61336W        W 4389  12.025  16.476  20.055  0.0192 -0.1543 -0.0192
61337W        W 4390  34.216   2.162   1.059 -0.2263  0.0232 -0.2086
61338W        W 4391   2.854  20.308  14.567  0.1364 -0.0349 -0.0003
61339W        W 4392  13.461  22.122   3.715  0.1709 -0.0156 -0.0240
61340W        W 4393   0.852  28.510   7.690 -0.1642 -0.0651  0.0415
61341W        W 4394  32.599  20.761   3.136  0.3329 -0.1051  0.0904
61342W        W 4395  17.818  14.473   9.258  0.0020  0.1579  0.2899
61343W        W 4396  29.541   3.690   1.420 -0.0310  0.0879 -0.0876
61344W        W 4397   1.216  17.979   8.794  0.3723  0.0715 -0.1705
61345W        W 4398   4.312  22.211   0.520 -0.1245 -0.0725  0.2873
61346W        W 4399  15.260   0.772  21.659 -0.3637  0.2062  0.0571
61347W        W 4400  16.620  30.548  22.958 -0.2871 -0.1400 -0.2004
61348W        W 4401   0.709  10.925   4.978 -0.2160 -0.0585 -0.1154
61349W        W 4402   3.094   1.304   4.333 -0.0477  0.1960 -0.1949
61350W        W 4403   5.892  15.524  22.672  0.2948 -0.3549  0.2457
61351W        W 4404   9.064  34.547   2.090  0.0032  0.1909  0.0404
61352W        W 4405  21.736  27.844   3.994  0.1461  0.1638 -0.1198
61353W        W 4406  27.994  13.401  26.253 -0.2552  0.0445  0.2087
61354W        W 4407  27.172  17.010   6.783 -0.1825  0.0800 -0.1874
61355W        W 4408  25.588  13.060  14.033 -0.1160 -0.0568 -0.2244
61356W        W 4409  19.951   4.215  16.693  0.1128 -0.0900  0.2288
61357W        W 4410  34.582  30.683   3.428  0.3836  0.1823 -0.2669
61358W        W 4411  29.018   0.942  16.200 -0.0922 -0.1046 -0.0623
61359W        W 4412  27.691  14.296  20.479  0.2539  0.0005  0.2483
61360W        W 4413  33.403  16.708   8.572 -0.0811 -0.1059  0.0782
61361W        W 4414  22.077  33.639  10.651  0.2538  0.0739  0.1692
61362W        W 4415  25.776  28.720   6.894 -0.5295  0.0487 -0.0901
61363W        W 4416  30.376  10.086   4.888  0.0512 -0.0664  0.1789
61364W        W 4417  20.144  24.817  24.607  0.1131 -0.0056  0.3718
61365W        W 4418   8.257   6.629   2.736 -0.1035  0.3048 -0.1502
61366W        W 4419   4.716   4.247   8.768 -0.2867 -0.3277  0.0150
61367W        W 4420   0.563  21.950   5.008  0.1608  0.1851  0.0778
61368W        W 4421  28.640  23.712  24.401  0.1863  0.1798 -0.1244
61369W        W 4422   9.178  23.164   2.862 -0.0393 -0.1044  0.2869
61370W        W 4423  11.471   7.318   3.720  0.0445 -0.2519  0.1797
61371W        W 4424  33.333  15.054  27.342 -0.0224  0.1175 -0.1329
61372W        W 4425   4.603  27.830   3.785  0.2529 -0.3247 -0.2830
61373W        W 4426  30.648   7.999   7.888 -0.4301  0.0696 -0.2789
61374W        W 4427   8.471  13.252  25.529 -0.1226  0.1508 -0.0381
61375W        W 4428   5.959  22.693   6.529 -0.1391 -0.0186  0.1100
61376W        W 4429  19.127   0.998  28.156  0.1607  0.2261  0.0151
61377W        W 4430  21.739  24.825  27.351  0.2651  0.1447 -0.2661
61378W        W 4431  11.948  12.348   9.422  0.2505  0.3089  0.3178
61379W        W 4432  31.649   9.933  10.114  0.0942 -0.0161 -0.4260
61380W        W 4433  30.034  12.032   7.570 -0.1030 -0.0037  0.2491
61381W        W 4434   0.178  15.028   2.125 -0.1406 -0.0774  0.0262
61382W        W 4435   8.280  17.822   1.013 -0.2336  0.1177  0.3652
61383W        W 4436  28.416  18.973   8.686 -0.1781 -0.2417  0.0888
61384W        W 4437   1.955  27.784  14.635 -0.2006  0.1836  0.1126
61385W        W 4438  16.489  28.060   2.410 -0.0731  0.1338 -0.0881
61386W        W 4439   6.591   3.073  21.540 -0.0248 -0.1799 -0.1706
61387W        W 4440  31.998  33.183  28.036 -0.0325 -0.1534 -0.2549
61388W        W 4441   7.768  11.345   0.542 -0.2181  0.2154  0.0255
61389W        W 4442  28.568  17.599   0.763  0.0561  0.4495  0.0074
61390W        W 4443  15.716  14.953  23.735 -0.0965  0.1437 -0.0370
61391W        W 4444  34.140  26.065  22.298  0.0212  0.2831 -0.0964
61392W        W 4445  31.908  20.720   8.406  0.0732  0.0607 -0.1800
61393W        W 4446   2.415  22.191   9.406 -0.0927 -0.1541 -0.0352
61394W        W 4447  19.412  20.842   1.554 -0.2259 -0.0638  0.3973
61395W        W 4448  29.009   7.419  10.034  0.2644  0.2020  0.0654
61396W        W 4449   4.444  21.586   3.490  0.1201 -0.1480  0.2167
61397W        W 4450  33.072  18.384   3.568 -0.2284  0.1259  0.3209
61398W        W 4451  11.573  26.631   8.261  0.1887 -0.0271  0.1419
61399W        W 4452  23.781  13.953   6.917  0.1481  0.1108 -0.1397
61400W        W 4453  32.219  23.619   1.851  0.0530 -0.0521 -0.0379
61401W        W 4454  33.622  18.726  28.622 -0.2188  0.1492  0.0762
61402W        W 4455   9.981  12.440  24.734  0.1202 -0.2023  0.1083
61403W        W 4456  25.562  23.309   9.653 -0.1378  0.1236  0.2389
61404W        W 4457   2.522   9.334   7.061 -0.3130 -0.0046 -0.0062
61405W        W 4458  29.324  24.309   7.807  0.2408  0.1008 -0.0071
61406W        W 4459  11.501   8.023   1.196 -0.2318  0.1325  0.1754
61407W        W 4460   3.050  10.397   3.908  0.2667  0.0669 -0.2038
61408W        W 4461  13.798  33.084   4.642 -0.3345  0.3791 -0.0745
61409W        W 4462  22.728  12.993   3.974  0.0184 -0.0121  0.1201
61410W        W 4463  19.387  23.224   6.284 -0.0549  0.0478  0.1260
61411W        W 4464   7.499   9.262   4.274  0.0540  0.0652 -0.1213
61412W        W 4465  19.767   6.610   5.530 -0.1781  0.0452  0.0879
61413W        W 4466  21.461  13.453  24.287 -0.2048  0.1573  0.2332
61414W        W 4467  11.995  21.840  26.877  0.2005 -0.0917  0.1727
61415W        W 4468  29.881  19.950   3.536 -0.2191  0.1292  0.1349
61416W        W 4469   9.599  30.365   0.921  0.1103 -0.0516 -0.0756
61417W        W 4470  29.115  23.295  20.129  0.1142  0.0575 -0.0445
61418W        W 4471  11.189  24.750   6.319 -0.1460 -0.3143 -0.1019
61419W        W 4472  23.634  28.872   5.438 -0.0561 -0.1497 -0.1004
61420W        W 4473  34.526  30.092   7.664 -0.1428  0.1333 -0.1344
61421W        W 4474  10.740   2.246  25.845  0.1508  0.1634 -0.2332
61422W        W 4475   4.616  28.394  24.091 -0.1387  0.0128  0.1109
61423W        W 4476   1.220  22.908   6.164 -0.3472  0.3314 -0.0419
61424W        W 4477  26.701  14.497  29.082  0.1967  0.4908 -0.0088
61425W        W 4478  23.370  20.027  25.241 -0.1823  0.0887 -0.0749
61426W        W 4479  32.931   1.597   0.644  0.3163  0.1913 -0.0177
61427W        W 4480   1.894   4.844   5.915  0.3143  0.1033 -0.0345
61428W        W 4481   4.092  17.771   9.104  0.1156  0.0626  0.4475
61429W        W 4482  27.758   8.676  22.123  0.4690  0.2991 -0.0355
61430W        W 4483  26.363  15.704   0.649 -0.1403  0.1760 -0.1305
61431W        W 4484   0.328  20.502  22.230 -0.1280  0.0788 -0.0802
61432W        W 4485  29.123  19.128  21.879  0.1559 -0.1702 -0.3775
61433W        W 4486  27.626  14.477  29.158  0.0541 -0.1162 -0.1476
61434W        W 4487  34.538  17.350   9.838 -0.0610  0.4003  0.2717
61435W        W 4488  27.040  11.687  10.519  0.0014 -0.0111  0.2986
61436W        W 4489  21.726  24.445   3.086  0.1723 -0.0850  0.1092
61437W        W 4490   1.767   2.474  27.727  0.1401  0.1846 -0.0835
61438W        W 4491  30.350  18.849   0.315  0.0467 -0.1027 -0.4388
61439W        W 4492   2.443  13.279  15.223 -0.3189  0.2659 -0.0086
61440W        W 4493  19.775  31.565   7.534  0.2277 -0.0115  0.0847
61441W        W 4494  18.283  13.985  27.927  0.1888 -0.0259 -0.1541
61442W        W 4495  10.968   6.994   4.288  0.0145 -0.1725  0.1599
61443W        W 4496   4.804  16.517   4.612  0.0580 -0.1604  0.0936
61444W        W 4497  29.765  29.825   4.280 -0.0057 -0.2482 -0.0872
61445W        W 4498  21.798  27.094   2.582  0.1685  0.0997 -0.0303
61446W        W 4499  29.582  22.763   7.941 -0.1231  0.3680  0.2413
61447W        W 4500   5.734  13.023  15.977 -0.0918 -0.1244 -0.0456
61448W        W 4501   5.677   9.242  27.865  0.0570  0.2532 -0.1158
61449W        W 4502   0.481   9.830   2.469  0.1418 -0.0739 -0.3461
61450W        W 4503   5.535   0.799   3.865  0.2826 -0.1187  0.1766
61451W        W 4504  18.029   0.356  24.871  0.1339 -0.2124 -0.1106
61452W        W 4505  22.069  25.219   8.160 -0.0937  0.3035  0.2885
61453W        W 4506  26.662  19.209   8.262 -0.0384 -0.1726  0.2576
61454W        W 4507   1.045   2.803  24.897  0.0339 -0.3579  0.2428
61455W        W 4508  28.888  28.376   2.184  0.0841  0.0321 -0.0509
61456W        W 4509   5.082  15.221   8.639  0.0979 -0.2263 -0.2068
61457W        W 4510  16.703  20.580  27.709 -0.0459  0.3052  0.1060
61458W        W 4511  21.347  26.654  21.342 -0.3191  0.0382  0.0997
61459W        W 4512  22.503   3.971   2.051 -0.0891 -0.0776 -0.0218
61460W        W 4513   3.281  17.601   8.151 -0.2798 -0.2266 -0.0066
61461W        W 4514  30.633  19.578   6.513 -0.2059  0.1637  0.0877
61462W        W 4515  25.747  16.022  18.436 -0.1602  0.1148  0.0698
61463W        W 4516  32.680  16.056   5.152 -0.1703 -0.1655 -0.0425
61464W        W 4517  34.596   9.759  21.942  0.0325 -0.2921 -0.0449
61465W        W 4518  19.099  17.076   0.480  0.1491 -0.2530  0.1107
61466W        W 4519  32.358   5.620  27.993 -0.0085 -0.2176  0.1289
61467W        W 4520  17.714  14.979   7.890 -0.1064 -0.1617 -0.1263
61468W        W 4521  25.775  16.112  27.977 -0.2449  0.1680 -0.0624
61469W        W 4522  33.060  27.679  22.796 -0.0969 -0.2317 -0.1529
61470W        W 4523   3.674  25.491   0.065 -0.0648 -0.1361 -0.2763
61471W        W 4524  22.350  28.429   5.378 -0.4130  0.2639  0.0466
61472W        W 4525   6.275  21.858   5.415  0.0770  0.2517  0.0535
61473W        W 4526   4.137   7.307  20.784 -0.0040  0.0619  0.0574
61474W        W 4527  31.598  24.884   9.235  0.0272  0.2061  0.0665
61475W        W 4528   6.202  17.389  20.436  0.2852  0.1223 -0.2996
61476W        W 4529  34.496  15.486   6.904 -0.3105 -0.1936 -0.0605
61477W        W 4530   8.075  20.826   8.284  0.0083 -0.0759 -0.1376
61478W        W 4531  22.458  30.498   1.412  0.3598 -0.1314 -0.0591
61479W        W 4532  33.050  27.602   1.056 -0.2072  0.0527  0.0045
61480W        W 4533  25.639   6.712   4.471  0.4785 -0.2584  0.0873
61481W        W 4534   8.180   1.435  24.797  0.3033  0.2122  0.0438
61482W        W 4535  12.375  17.521  21.283 -0.0572  0.3051 -0.3118
61483W        W 4536   4.142  24.733  27.011  0.1878  0.1671  0.1976
61484W        W 4537   3.298   3.855  16.202  0.0820 -0.0591 -0.0039
61485W        W 4538   4.454  21.874  18.380 -0.0218  0.0954  0.1156
61486W        W 4539   5.966  28.030  28.135  0.1848  0.3589 -0.0060
61487W        W 4540  28.471  21.315  28.495 -0.0258  0.4067  0.1458
61488W        W 4541  23.302  23.364   7.826  0.0449  0.1853  0.1308
61489W        W 4542   2.389  23.693   7.810 -0.0057  0.1187 -0.0586
61490W        W 4543  28.976   5.074  26.671  0.3113 -0.1572  0.1796
61491W        W 4544  12.008  14.744   7.233  0.1296  0.1225  0.0258
61492W        W 4545  15.657  21.688  28.663 -0.1988  0.0080  0.1048
61493W        W 4546  31.877  33.589  21.945  0.2142 -0.7080 -0.1901
61494W        W 4547   5.932  19.626   5.944 -0.0850 -0.0148 -0.0248
61495W        W 4548  17.570   0.864   8.222  0.0615 -0.0206 -0.1016
61496W        W 4549   2.248  29.626   9.200 -0.0633  0.1933  0.0995
61497W        W 4550  16.337  25.113  26.332 -0.0571  0.2603  0.3002
61498W        W 4551  32.999  24.729   9.437 -0.0144  0.0124 -0.0073
61499W        W 4552  11.039  28.332   6.044  0.0517 -0.2477 -0.3166
61500W        W 4553  32.725  12.967   0.562  0.0479 -0.2117 -0.0268
61501W        W 4554  14.294  11.202  24.537 -0.1058  0.0249  0.3151
61502W        W 4555   5.886  10.902  29.102  0.0890  0.0977  0.1417
61503W        W 4556  24.297  17.215   2.000 -0.1739 -0.0793  0.2135
61504W        W 4557   6.191  21.072  25.861 -0.1187  0.1907  0.2188
61505W        W 4558   0.405  20.963   5.019  0.1000 -0.0426  0.2057
61506W        W 4559  31.209  22.767   8.218  0.1124 -0.0496 -0.2696
61507W        W 4560  19.475   3.896  25.682 -0.2487  0.0300  0.2803
61508W        W 4561   6.649  19.159   6.395  0.0249 -0.0378 -0.1603
61509W        W 4562   0.177  25.489   3.123 -0.1467  0.0292  0.3924
61510W        W 4563   4.656   1.729   6.760 -0.2881  0.0799  0.0097
61511W        W 4564   8.167  23.712   5.678  0.0149 -0.2507  0.0330
61512W        W 4565  25.645   8.795   2.804 -0.3747 -0.1303 -0.2369
61513W        W 4566  19.525  30.426   2.347 -0.0629 -0.1035  0.1216
61514W        W 4567  12.871   2.033  27.520  0.1391 -0.0287  0.0485
61515W        W 4568  25.972   4.958   8.352  0.0592  0.0146 -0.2696
61516W        W 4569  26.096  32.802   4.036  0.0015 -0.1212 -0.0079
61517W        W 4570  16.640   9.904   0.640 -0.0096 -0.1025  0.2065
61518W        W 4571  11.359   9.047   8.258 -0.0010 -0.0024 -0.2500
61519W        W 4572  26.268  19.549  26.179 -0.2678  0.0273 -0.1027
61520W        W 4573   5.589  24.169  25.825 -0.1620  0.1194  0.0251
61521W        W 4574  33.585   3.005  23.280 -0.1265  0.1454 -0.0950
61522W        W 4575  30.607  18.605   5.616  0.1895 -0.6317 -0.4265
61523W        W 4576   2.512   5.843  25.789  0.1002  0.1450  0.1380
61524W        W 4577  25.049  34.634  26.550  0.2053 -0.0660 -0.2100
61525W        W 4578  25.688  31.086  10.526 -0.1625 -0.0167 -0.3004
61526W        W 4579  28.786  24.933   3.507 -0.2641 -0.1348 -0.1039
61527W        W 4580  26.183  11.201   9.996  0.0171 -0.3688  0.1628
61528W        W 4581   1.218  16.244  13.389  0.0865 -0.2385  0.2664
61529W        W 4582  33.523   6.963  23.100  0.0911  0.0287  0.2543
61530W        W 4583  32.609  20.920   2.244  0.0492  0.3872 -0.1573
61531W        W 4584   5.457  12.310  28.954 -0.2290 -0.2694  0.1178
61532W        W 4585  30.666  24.165  23.685 -0.0916 -0.0101 -0.4636
61533W        W 4586  28.808  20.900   9.463 -0.0879 -0.0811  0.5747
61534W        W 4587  14.578  23.442  15.750  0.3337 -0.1277 -0.0001
61535W        W 4588  21.110   3.596   5.135  0.1446 -0.1474  0.0814
61536W        W 4589  33.239  23.449   3.696  0.0846 -0.0302 -0.1351
61537W        W 4590   0.385  15.554   5.586 -0.0699 -0.1303  0.1896
61538W        W 4591   5.113  14.656  28.235  0.2743  0.3949  0.1506
61539W        W 4592  32.233  14.252   0.550  0.2013 -0.0314  0.4566
61540W        W 4593  34.146  17.920  24.760  0.2031 -0.0248 -0.3318
61541W        W 4594  24.701  18.430   1.717  0.1689 -0.0583  0.0312
61542W        W 4595  27.373  10.414   1.301  0.0483  0.1663 -0.1132
61543W        W 4596   1.241   9.824   3.514 -0.1901  0.3444  0.0689
61544W        W 4597   5.128  19.292   8.183 -0.2330 -0.3284  0.1368
61545W        W 4598   0.013  15.954   7.354 -0.1311  0.1928 -0.0958
61546W        W 4599   0.315  26.092   8.622  0.3912 -0.1250  0.0977
61547W        W 4600  34.356   1.307   7.782  0.0838  0.1860 -0.0935
61548W        W 4601   0.233  11.301   1.390 -0.1201 -0.0841 -0.0135
61549W        W 4602   2.963   7.786   6.860  0.0757 -0.2964  0.1346
61550W        W 4603  17.365   1.545   0.056 -0.0799  0.0326  0.1513
61551W        W 4604   7.203   4.124   3.241  0.0241 -0.2751  0.0210
61552W        W 4605   0.490  32.813  28.968  0.0525  0.1071  0.0562
61553W        W 4606  29.549   2.101  25.991  0.0752  0.0051  0.1410
61554W        W 4607  27.935   6.715   1.979 -0.1560 -0.1598 -0.1603
61555W        W 4608  22.594  13.361   4.396  0.0122  0.0249  0.1452
61556W        W 4609   3.908   1.771  18.745 -0.1335 -0.2332  0.0289
61557W        W 4610   2.273  23.239  27.072  0.4079 -0.0775  0.1683
61558W        W 4611   5.016   7.817   3.458 -0.1004  0.2257 -0.2491
61559W        W 4612   9.531  28.157  13.978 -0.0467  0.0181  0.3867
61560W        W 4613  34.319   8.656   0.940  0.0642 -0.0568  0.0294
61561W        W 4614  15.417  12.623   8.138 -0.2213  0.2041 -0.0630
61562W        W 4615  12.739  16.900  23.618  0.3437 -0.0916  0.4338
61563W        W 4616   5.099  13.835   5.992 -0.4210  0.1582  0.1055
61564W        W 4617  18.066  16.272   8.053 -0.1149 -0.0809 -0.0374
61565W        W 4618   3.897  28.220   9.276 -0.0976 -0.0402  0.2199
61566W        W 4619  19.284  22.707  27.148 -0.3918  0.0148  0.0401
61567W        W 4620  27.617  32.739   0.114  0.0829 -0.1079  0.0096
61568W        W 4621  26.208  24.420   0.496  0.0586  0.0643 -0.0193
61569W        W 4622  30.929  26.627  19.761 -0.0174 -0.2085 -0.0169
61570W        W 4623   5.972  24.549   6.389  0.3901 -0.1500  0.0256
61571W        W 4624  19.507  24.167  27.204  0.3759  0.0511 -0.3763
61572W        W 4625  21.460   8.787   8.536  0.0530 -0.2066 -0.1471
61573W        W 4626   7.051   7.629   0.240 -0.2565 -0.0686 -0.2935
61574W        W 4627  25.703  24.697   3.609  0.1017 -0.2214 -0.0034
61575W        W 4628  31.994  12.458  16.849 -0.1644  0.1667  0.0259
61576W        W 4629   4.140  23.258  25.356  0.1289  0.0051  0.0524
61577W        W 4630   9.953  29.894   7.302  0.0656  0.1949 -0.0406
61578W        W 4631  32.139  15.609   8.704 -0.0937  0.0143 -0.1204
61579W        W 4632   8.983  14.040   3.122  0.2574 -0.3500  0.1723
61580W        W 4633   1.689  14.095  24.990 -0.2315 -0.0516 -0.1586
61581W        W 4634  18.025  20.477   7.940  0.2474 -0.1454  0.1006
61582W        W 4635  29.102  23.844  28.669  0.0083 -0.1812  0.0911
61583W        W 4636  30.429  26.828   8.642 -0.2350  0.0155 -0.1033
61584W        W 4637  33.630  18.740   6.070  0.2266 -0.3150  0.3379
61585W        W 4638   3.514  25.478   4.845 -0.3276 -0.1858 -0.1153
61586W        W 4639  12.135  23.688   2.769  0.1676 -0.0848  0.2202
61587W        W 4640  22.908  13.889   9.768  0.0865 -0.0702 -0.1004
61588W        W 4641   5.713  11.367  27.802 -0.0166 -0.5115  0.1930
61589W        W 4642  10.724   8.119  27.520  0.1017 -0.1687 -0.3628
61590W        W 4643   0.642  28.294   4.111 -0.1343 -0.1647 -0.0846
61591W        W 4644   1.397  16.976   1.311  0.2559  0.0791  0.2150
61592W        W 4645  33.324  17.460   6.517 -0.3760  0.1243 -0.3740
61593W        W 4646   4.049  23.516   6.864  0.1369  0.1183 -0.0055
61594W        W 4647  10.065  29.117  21.335 -0.2401  0.1541 -0.1997
61595W        W 4648   0.446  29.126  18.877 -0.0922  0.0407  0.0937
61596W        W 4649   3.334   2.148   9.639 -0.0362  0.0123  0.1153
61597W        W 4650  13.401   1.903  17.637  0.0240  0.0492  0.0630
61598W        W 4651  18.896  13.232  27.459 -0.2521  0.1600 -0.0543
61599W        W 4652  32.838  21.688  28.610  0.2366  0.0893  0.1661
61600W        W 4653  32.342  18.590  22.760 -0.0936 -0.1304  0.0590
61601W        W 4654  30.803  34.059   4.628 -0.0380 -0.1072 -0.0265
61602W        W 4655  19.955  12.998   9.799 -0.0342  0.1709 -0.1990
61603W        W 4656   6.615  19.657  27.554  0.0221 -0.0951  0.0112
61604W        W 4657  33.077   5.391   5.508  0.1430 -0.1222  0.1467
61605W        W 4658  12.958  11.507  23.085  0.1026  0.0294  0.1106
61606W        W 4659   1.748  11.517  19.847  0.3175  0.0001 -0.4573
61607W        W 4660   7.896  26.519   5.476  0.0941 -0.2409 -0.3086
61608W        W 4661  30.280  15.489   4.317 -0.1150  0.2793  0.3913
61609W        W 4662  13.650  24.309   9.091  0.0221  0.0530  0.0986
61610W        W 4663   1.421   0.248  27.402 -0.2158 -0.1114 -0.1381
61611W        W 4664  20.183  12.486   3.093 -0.0395 -0.1513  0.2004
61612W        W 4665   8.770  27.731  25.369 -0.0672 -0.1400 -0.0126
61613W        W 4666   2.976   7.991   1.573 -0.3595 -0.2721  0.0315
61614W        W 4667  31.436  28.218   5.229 -0.0789 -0.1335  0.1944
61615W        W 4668  33.141  26.079   4.688 -0.0604  0.0661 -0.1577
61616W        W 4669   0.525   3.253  23.782 -0.0964  0.2072  0.0251
61617W        W 4670   7.433  20.587  28.283  0.0411  0.0582  0.0299
61618W        W 4671  24.925   7.859  29.074  0.3112 -0.2036  0.1793
61619W        W 4672   2.993  20.009   6.235 -0.0115 -0.1613 -0.3216
61620W        W 4673  10.802   0.930  26.355 -0.1186 -0.0814  0.0465
61621W        W 4674   9.081   0.256  24.083  0.0890 -0.1554  0.2740
61622W        W 4675  30.195  18.124   0.063 -0.0145 -0.0400  0.0669
61623W        W 4676   7.635   7.728  10.188  0.1501 -0.0984 -0.3287
61624W        W 4677  13.919  18.978  25.128 -0.1349 -0.1600 -0.3228
61625W        W 4678  19.879  11.948  15.430  0.0237  0.0377 -0.0914
61626W        W 4679   5.255  11.277  28.057 -0.2058 -0.0866  0.1812
61627W        W 4680  33.782  15.062   3.619  0.3521  0.3462  0.2207
61628W        W 4681   3.213  11.193  25.666  0.1905 -0.1848 -0.0985
61629W        W 4682  12.440  34.289   8.292  0.1003  0.2034 -0.0297
61630W        W 4683  17.840   7.987  27.204 -0.0142  0.0950 -0.0211
61631W        W 4684  17.092  18.452   8.382  0.1312 -0.2709  0.0628
61632W        W 4685   8.726  11.870   8.923 -0.0483 -0.2083 -0.2396
61633W        W 4686   1.632  27.027   7.898  0.1834  0.1027 -0.1723
61634W        W 4687   9.832   6.386  21.691 -0.1462 -0.0390  0.4189
61635W        W 4688   0.927  24.382   0.532 -0.3165 -0.0455  0.2996
61636W        W 4689   1.467   7.744   6.296  0.0562 -0.1206 -0.2353
61637W        W 4690  11.585  19.906   2.319  0.1413 -0.0080 -0.0847
61638W        W 4691  29.357   7.209   6.144  0.2850  0.0792  0.1541
61639W        W 4692   8.548  21.109  21.856  0.0873 -0.1061 -0.0650
61640W        W 4693  28.759   8.093   7.800 -0.0817  0.0748 -0.4889
61641W        W 4694  31.474  23.798   7.355 -0.2063  0.0750  0.0342
61642W        W 4695  23.224  19.923  17.139  0.1101 -0.0957 -0.0529
61643W        W 4696  26.996  27.988   5.903 -0.0453  0.1162  0.0451
61644W        W 4697  21.770  23.076   5.564 -0.1697 -0.0176  0.0728
61645W        W 4698   2.941  16.479   6.389  0.0431  0.2480  0.1581
61646W        W 4699  17.684  32.693   3.000  0.0843 -0.2073 -0.1119
61647W        W 4700   3.818  22.939   2.513  0.2064  0.2203  0.1340
61648W        W 4701  16.592  32.657  10.272  0.0776  0.2262 -0.0794
61649W        W 4702   2.167   1.291   4.002  0.1448 -0.0322 -0.1143
61650W        W 4703  11.008   7.337   7.590  0.0880 -0.0922  0.0130
61651W        W 4704   5.604  17.724   9.857 -0.2577 -0.0324 -0.0445
61652W        W 4705   8.695  16.846  24.290 -0.0079 -0.3131  0.2141
61653W        W 4706  12.229  15.207   4.411 -0.3125  0.0676 -0.2425
61654W        W 4707   4.864   3.206   7.038 -0.0651 -0.2778  0.4793
61655W        W 4708  29.926   0.819   0.825  0.1032  0.5661 -0.0639
61656W        W 4709  32.434  12.376  26.966  0.0650  0.2044 -0.0183
61657W        W 4710   1.966  17.995  29.029 -0.0669  0.0574  0.1185
61658W        W 4711  28.423  32.877  23.094 -0.1710  0.3676 -0.1512
61659W        W 4712  30.154  16.328   3.299  0.0546 -0.3566 -0.0494
61660W        W 4713  15.223  18.708   0.266  0.1924  0.1820 -0.3324
61661W        W 4714  17.931  24.436   1.455 -0.1690  0.0244 -0.2126
61662W        W 4715   1.002  25.307   1.885 -0.2846 -0.1112 -0.2487
61663W        W 4716   7.399  10.836   4.720  0.0390 -0.0198 -0.3402
61664W        W 4717  23.487  29.079   6.000  0.0337 -0.2223  0.1077
61665W        W 4718  21.202  31.799   2.164 -0.2296 -0.0421  0.1883
61666W        W 4719  19.418  16.464   4.491  0.1445 -0.4001  0.1008
61667W        W 4720  11.333  23.293  20.504 -0.1914  0.2102  0.0629
61668W        W 4721  33.996   9.960  27.958 -0.1467  0.1739  0.0417
61669W        W 4722  25.699  22.695   5.851 -0.2790  0.1447 -0.5497
61670W        W 4723  27.661  10.323   7.500  0.0052 -0.1104 -0.1148
61671W        W 4724   2.758  17.477  26.862 -0.1465  0.1786  0.0370
61672W        W 4725   5.117   4.641   5.674  0.2000 -0.1700 -0.0576
61673W        W 4726  31.538  24.686   5.790 -0.2311  0.0338  0.5642
61674W        W 4727  29.260  18.638   1.948  0.0193  0.0817  0.1149
61675W        W 4728  33.250   8.802   9.722  0.0219 -0.0630 -0.0971
61676W        W 4729   4.400  19.112   4.143  0.0437  0.0224 -0.2097
61677W        W 4730  28.694  19.753   5.020 -0.0050 -0.1772  0.0465
61678W        W 4731   3.787  26.805   4.500  0.1550 -0.1015  0.2260
61679W        W 4732   2.985  26.137  25.710  0.2538 -0.2711  0.3278
61680W        W 4733   2.437  11.670   3.318  0.0557 -0.4215 -0.3075
61681W        W 4734  18.073   9.989   0.343  0.1299 -0.1452 -0.1069
61682W        W 4735  10.423  17.256  26.315 -0.0963 -0.0671  0.0966
61683W        W 4736  27.474  24.443   9.603 -0.1409  0.3550 -0.1541
61684W        W 4737  28.471  13.056   3.902  0.2742  0.1020 -0.0571
61685W        W 4738  11.867  24.411  25.061 -0.1309  0.0360 -0.3027
61686W        W 4739   6.369  10.228   0.760  0.3637 -0.0013 -0.1867
61687W        W 4740  18.996  22.337   7.743 -0.0632  0.4012 -0.3752
61688W        W 4741   6.629  17.848  26.388 -0.1760 -0.2574 -0.2788
61689W        W 4742   5.793   3.177   1.432 -0.0297 -0.1159 -0.2108
61690W        W 4743   0.179  33.413  19.392 -0.0661  0.1304  0.2938
61691W        W 4744  11.160  28.067   7.209  0.1129 -0.4374 -0.0463
61692W        W 4745  19.584  16.899   8.069 -0.0786  0.1438 -0.4833
61693W        W 4746   3.625  30.763  19.225  0.0975  0.0180 -0.0260
61694W        W 4747   5.293  29.926   3.830  0.0192  0.0602 -0.2213
61695W        W 4748   3.484  20.583   0.839 -0.0920 -0.3109  0.1689
61696W        W 4749   8.481  11.886   2.298  0.0344 -0.2727  0.1759
61697W        W 4750   1.214  13.687   8.642  0.1617 -0.1198 -0.4157
61698W        W 4751  10.809   6.039   2.174 -0.0930  0.0878 -0.2116
61699W        W 4752   7.859  33.946   2.786 -0.0816 -0.0747 -0.1958
61700W        W 4753  25.908  27.971   7.862  0.1326 -0.2776  0.0541
61701W        W 4754   4.712   3.124  24.004  0.0719 -0.0109 -0.3312
61702W        W 4755  30.592  20.746   5.528  0.2461 -0.0758  0.0564
61703W        W 4756   0.054  12.335   1.076 -0.0289  0.0701 -0.0413
61704W        W 4757   9.477  25.183  27.883 -0.0055  0.0135 -0.0531
61705W        W 4758  25.522  32.349   2.898 -0.2914  0.1270  0.1372
61706W        W 4759   0.842  31.686   4.515 -0.2478  0.0371 -0.1414
61707W        W 4760  30.128  23.577  22.666  0.0242  0.0070 -0.0673
61708W        W 4761   7.703  21.189  28.999  0.1080  0.2730 -0.0398
61709W        W 4762  15.655  17.016   1.445 -0.3085 -0.2324  0.1010
61710W        W 4763  15.928  16.594   9.526 -0.0254 -0.0070 -0.4787
61711W        W 4764   6.310  15.957  25.464 -0.0936 -0.2354  0.0610
61712W        W 4765   9.272  15.660  23.810 -0.0637 -0.2692  0.0872
61713W        W 4766  15.958  13.826  29.076  0.2906 -0.1658 -0.2472
61714W        W 4767   6.112  26.524   8.575  0.1357 -0.3672  0.0223
61715W        W 4768   1.501   1.288  21.528  0.1131 -0.0053  0.3810
61716W        W 4769   2.180  25.277   4.534  0.0805 -0.0234 -0.0408
61717W        W 4770   4.872  11.199   9.486  0.1109  0.0386 -0.1797
61718W        W 4771  18.101  14.743   4.104 -0.1176 -0.1706 -0.2447
61719W        W 4772  26.666  30.036  20.988  0.2598 -0.2506 -0.1446
61720W        W 4773  23.722  19.781   1.036 -0.0781 -0.0119 -0.1845
61721W        W 4774   4.410  21.874  26.432  0.0377 -0.4621 -0.1549
61722W        W 4775  12.353   1.183  10.034  0.2309  0.1164 -0.1812
61723W        W 4776   1.539  24.492  10.037 -0.0792  0.1737 -0.0701
61724W        W 4777   2.028  26.715  20.170  0.1375  0.0852 -0.2055
61725W        W 4778  34.606  29.829  26.768 -0.2179 -0.0503  0.0946
61726W        W 4779   2.784  26.942   1.158 -0.0502  0.0107  0.0908
61727W        W 4780   9.457   7.670  10.477 -0.0081  0.2695  0.0414
61728W        W 4781  21.603  12.857  19.507 -0.0597  0.1904  0.1919
61729W        W 4782  25.359   1.279   9.710 -0.3026 -0.2232  0.0433
61730W        W 4783   1.637  10.692   1.249  0.0393  0.2087  0.1773
61731W        W 4784  22.423  30.567  16.526 -0.1952 -0.0422 -0.0238
61732W        W 4785  14.814  16.183  10.000 -0.1918 -0.0276 -0.0003
61733W        W 4786  34.433  10.219   5.780  0.2654  0.1855 -0.4819
61734W        W 4787   0.931  23.914   7.021  0.1666 -0.0752  0.1559
61735W        W 4788  27.606  18.916   9.855  0.0181 -0.0567  0.1081
61736W        W 4789  15.150   9.802  17.786  0.0598 -0.2035  0.0446
61737W        W 4790   0.373  18.652   6.614  0.1107  0.3096  0.0325
61738W        W 4791  29.177   4.447   3.006  0.0240 -0.0056  0.0438
61739W        W 4792  27.845   8.100  25.806 -0.0308  0.1717  0.0126
61740W        W 4793  26.866  12.016   7.235  0.1965 -0.0299 -0.2273
61741W        W 4794  12.263  27.474  17.794  0.0714  0.1522 -0.2886
61742W        W 4795  31.186  17.140   0.396 -0.3024  0.3128  0.3003
61743W        W 4796  21.850   8.334   8.921 -0.3349  0.3551  0.1033
61744W        W 4797  22.182  22.012   3.573 -0.3653  0.1592  0.2221
61745W        W 4798  24.230  12.320  26.708  0.2362  0.0054 -0.0564
61746W        W 4799  33.051  12.244   4.484  0.0743  0.0746 -0.2154
61747W        W 4800   6.530   2.827   4.725  0.0059 -0.0590  0.3557
61748W        W 4801  23.994  13.981   3.895  0.0949 -0.0021 -0.1436
61749W        W 4802  22.647  29.210   5.796 -0.1388  0.0858 -0.1384
61750W        W 4803  28.422  21.720  10.114  0.2283 -0.0511 -0.0128
61751W        W 4804   0.678  11.429  21.090 -0.0207  0.0721 -0.1229
61752W        W 4805  10.870  20.879   1.043 -0.0550  0.1496 -0.2315
61753W        W 4806  21.210  27.292   2.690 -0.0823  0.0782 -0.1491
61754W        W 4807   4.220  14.056   9.221  0.0676 -0.0365 -0.0779
61755W        W 4808   5.798  24.551  28.597 -0.0654  0.2272  0.0744
61756W        W 4809  27.897  23.162  20.592  0.0156 -0.1481  0.0168
61757W        W 4810  13.736   6.340  23.509 -0.0373 -0.0254 -0.2188
61758W        W 4811  28.611   3.199  28.398 -0.0934 -0.1169  0.1753
61759W        W 4812   8.826  19.443   2.770  0.1702  0.4076  0.0618
61760W        W 4813  12.554   9.545  11.286  0.2708  0.0983  0.0417
61761W        W 4814   6.731  21.824   8.849 -0.0310 -0.1048  0.0627
61762W        W 4815  33.557  13.849   6.955 -0.2275  0.0963 -0.2055
61763W        W 4816  32.896  13.925  27.585  0.1118  0.0265 -0.1194
61764W        W 4817   8.437  13.091   6.816 -0.1102  0.2386 -0.0538
61765W        W 4818  33.686  15.265   3.048  0.0657  0.1466  0.1855
61766W        W 4819  30.558  10.162   5.577 -0.2461  0.3304 -0.1178
61767W        W 4820  30.177   1.528   4.295 -0.1842 -0.0041  0.0355
61768W        W 4821  33.344  27.733   7.607  0.0703  0.0048  0.3480
61769W        W 4822  25.250  11.688   5.614 -0.0763 -0.0294 -0.3420
61770W        W 4823  33.172  20.098  15.319  0.0755  0.1168  0.0541
61771W        W 4824  31.275  13.466   9.195 -0.0414 -0.1788  0.0870
61772W        W 4825  11.868  33.089  25.389  0.1487  0.1877 -0.0661
61773W        W 4826  28.983  12.393   2.871 -0.1819 -0.1046 -0.1556
61774W        W 4827  33.984  15.615  26.956 -0.0138  0.3044  0.0288
61775W        W 4828  10.633  23.025  29.180  0.3287  0.1851  0.1520
61776W        W 4829  34.165   3.979   5.979 -0.0358  0.1099  0.0145
61777W        W 4830   0.519  17.945   4.686 -0.0430 -0.3724 -0.0957
61778W        W 4831  30.823  32.187   6.951  0.1520 -0.2208  0.0205
61779W        W 4832   2.435   2.225   9.390  0.3761  0.0440  0.1762
61780W        W 4833  30.198  32.413   0.677 -0.0751  0.1195  0.1327
61781W        W 4834  24.972  14.644   1.515  0.0068  0.1409  0.0587
61782W        W 4835  20.062  25.582  28.056  0.0631  0.0944 -0.2073
61783W        W 4836  15.504  15.267  24.490 -0.1846 -0.0484  0.2333
61784W        W 4837   2.920   8.595   3.565 -0.0834  0.1497 -0.1135
61785W        W 4838   6.346  16.575   3.681 -0.2449 -0.2024  0.0424
61786W        W 4839  33.217  29.239   6.747  0.1794  0.1085 -0.2142
61787W        W 4840  32.216  13.360  27.065 -0.0396 -0.0400 -0.0930
61788W        W 4841   1.803  16.323   8.724  0.1531  0.2708 -0.0859
61789W        W 4842   1.811  23.884   2.620 -0.1704  0.0655 -0.2024
61790W        W 4843  18.005  11.194  10.333 -0.1856  0.2138  0.2438
61791W        W 4844  34.360  23.300  24.815 -0.2631 -0.1381 -0.0275
61792W        W 4845  22.625  29.326   2.261  0.1197 -0.0721 -0.0809
61793W        W 4846   0.295  15.548   3.681 -0.2149  0.2329  0.2278
61794W        W 4847   6.403  25.115  27.249 -0.1402 -0.1852 -0.0156
61795W        W 4848  25.002  10.092   7.033  0.1649  0.1208 -0.0827
61796W        W 4849   4.515  21.453   8.690  0.1912  0.1582  0.2909
61797W        W 4850  18.413   9.463   3.085  0.0907 -0.0418 -0.2883
61798W        W 4851   6.551  32.089   4.991  0.1978  0.1131 -0.4087
61799W        W 4852  16.620  33.516  26.342  0.3162  0.0961  0.1423
61800W        W 4853   2.076  14.624   4.471  0.6275  0.2250 -0.0626
61801W        W 4854   7.649  17.977  24.711  0.2640 -0.0450 -0.1651
61802W        W 4855  23.112  34.022   7.362 -0.0105  0.0438  0.3711
61803W        W 4856  31.641   8.410  10.201 -0.0655 -0.3912 -0.0531
61804W        W 4857  24.488  13.912   0.590 -0.0066 -0.1285  0.0367
61805W        W 4858  16.972  29.489  23.996  0.0777 -0.1902 -0.0582
61806W        W 4859  33.149  19.468   1.199 -0.0438 -0.0899 -0.4288
61807W        W 4860  32.698  32.180   1.572 -0.3572  0.0163  0.0911
61808W        W 4861   3.501  16.781  21.903  0.2231  0.5352 -0.0511
61809W        W 4862  25.618  24.277  10.016  0.0166 -0.4339  0.3880
61810W        W 4863  21.659  14.828   2.731  0.2946  0.6647 -0.3134
61811W        W 4864  25.668  33.377   1.591  0.0430 -0.0520 -0.1528
61812W        W 4865   4.430  20.461   1.371  0.2051 -0.4485  0.0252
61813W        W 4866  31.491  18.888  26.897  0.1195  0.1153  0.2415
61814W        W 4867  30.418  25.191  24.923 -0.1179  0.2574 -0.1582
61815W        W 4868  32.596  20.117  26.000  0.1853  0.2616 -0.0852
61816W        W 4869  31.465  10.567   6.044  0.1092  0.4116 -0.0770
61817W        W 4870   1.507  25.695   3.315 -0.0337  0.2589 -0.3334
61818W        W 4871  10.016  29.153  22.485  0.2429 -0.0846 -0.1660
61819W        W 4872  32.751  19.837   7.101 -0.0095 -0.0443  0.2055
61820W        W 4873  27.583  23.178  15.671  0.0588  0.0846  0.1665
61821W        W 4874   5.569   0.509   8.397  0.0856 -0.1461  0.2418
61822W        W 4875  30.942  22.445   7.976  0.1790  0.0376 -0.1598
61823W        W 4876   5.210   7.802  22.992 -0.2186 -0.0554 -0.0154
61824W        W 4877  28.526  14.150  10.121 -0.0925  0.1708 -0.0731
61825W        W 4878  28.365  22.625   2.888  0.0463 -0.0188 -0.2184
61826W        W 4879  29.320  17.873  28.440  0.0612  0.5039 -0.0359
61827W        W 4880   3.631  30.666   1.226  0.2575  0.0888 -0.2189
61828W        W 4881  11.701  16.333  18.435  0.0569  0.2838  0.0865
61829W        W 4882  29.470  30.741   5.946  0.0898 -0.1428 -0.2547
61830W        W 4883   3.489  14.812   6.737  0.2544  0.3377  0.1144
61831W        W 4884  11.648  10.054   7.989  0.0264 -0.1465  0.1390
61832W        W 4885  16.596   9.323   6.679 -0.0657 -0.1078  0.1228
61833W        W 4886   1.596   3.203   7.891 -0.0696 -0.0082 -0.1105
61834W        W 4887   2.071  30.535  28.436 -0.0416 -0.0419 -0.2729
61835W        W 4888  14.123  28.500  20.819 -0.1958 -0.0083 -0.0648
61836W        W 4889   1.713  11.875   9.812  0.1987 -0.1883  0.2862
61837W        W 4890  32.816  10.347   6.472 -0.0933  0.2758  0.1638
61838W        W 4891  33.726   0.457  20.165  0.1994  0.0924  0.0274
61839W        W 4892   6.564   4.375   2.207 -0.0248  0.1658  0.1580
61840W        W 4893  32.761  27.580   4.896  0.0441  0.1555 -0.0870
61841W        W 4894  31.227  16.763   5.035  0.0705 -0.2345 -0.1731
61842W        W 4895  25.703  26.369   6.957  0.0962 -0.1320 -0.1019
61843W        W 4896  14.611  30.013  25.015  0.3940  0.0405  0.2075
61844W        W 4897   3.054   6.183  18.146 -0.0326 -0.4603  0.2281
61845W        W 4898  13.306  26.742   4.682 -0.2628  0.0614 -0.0799
61846W        W 4899  31.104  29.528   2.060  0.0258  0.3922  0.0959
61847W        W 4900  11.484   1.899   9.818  0.2545  0.1262 -0.1032
61848W        W 4901   8.066  18.700   3.740 -0.2337 -0.1245  0.3174
61849W        W 4902  23.759  25.861  28.049  0.1392 -0.3410  0.1257
61850W        W 4903  27.956   9.556   3.125 -0.2820  0.1911 -0.0803
61851W        W 4904   4.315   1.839   0.928 -0.0737  0.5218 -0.0206
61852W        W 4905  27.319  20.340   7.187  0.0337  0.0685  0.0368
61853W        W 4906   8.423  16.577  25.827 -0.1458 -0.1527  0.2110
61854W        W 4907  10.719  18.041   5.333 -0.1065 -0.0231  0.1920
61855W        W 4908   7.972  17.608  25.827  0.0527 -0.2849 -0.1353
61856W        W 4909   8.304  32.445  27.984 -0.3578 -0.0236  0.0618
61857W        W 4910  19.048  26.226  10.009 -0.0374  0.2708 -0.2200
61858W        W 4911  31.267   0.356   2.241 -0.1692  0.3274 -0.3399
61859W        W 4912  31.571  32.825  10.289 -0.1201 -0.1207  0.2031
61860W        W 4913  34.021   0.896  27.954  0.0065  0.0681 -0.2038
61861W        W 4914  24.481  19.631   7.672 -0.1749  0.0977 -0.2974
61862W        W 4915  32.443  27.467   0.075 -0.0809  0.0328  0.0766
61863W        W 4916   0.966   2.812   2.913 -0.0014  0.3140  0.1006
61864W        W 4917   7.875  22.987  26.874  0.2170  0.0222 -0.2441
61865W        W 4918   4.892  23.055  25.306 -0.1651  0.0068  0.0819
61866W        W 4919   6.399  29.515  25.591 -0.0633 -0.1255 -0.2113
61867W        W 4920  13.529  34.368   5.178  0.0746 -0.5309 -0.0821
61868W        W 4921   6.032  14.174   9.885  0.1535 -0.3304  0.0692
61869W        W 4922   5.120  10.719   5.472  0.3634 -0.0787  0.2340
61870W        W 4923  32.022   8.708   7.083 -0.0997  0.1353 -0.0543
61871W        W 4924   1.942  18.394   5.698  0.0119 -0.1890  0.0447
61872W        W 4925  21.696  29.823  23.024 -0.0487  0.2825  0.1609
61873W        W 4926  16.447  28.438   7.627  0.1850  0.2542 -0.0359
61874W        W 4927   4.906  18.919   9.366  0.2235  0.1232  0.0676
61875W        W 4928   1.074  22.445   0.985  0.0324  0.0122  0.3255
61876W        W 4929   2.826  14.894   0.224 -0.0366 -0.0674  0.1490
61877W        W 4930  29.476  34.077   0.204  0.2743  0.0045 -0.0717
61878W        W 4931  16.668  21.476  10.432  0.2574  0.0558  0.5214
61879W        W 4932  26.668   2.444   2.398 -0.2632  0.1229  0.1165
61880W        W 4933  29.305  32.782  10.336 -0.0642 -0.2048 -0.0912
61881W        W 4934  31.687  33.482   3.779 -0.1581  0.0196 -0.0161
61882W        W 4935  32.778   1.832  28.894 -0.2429  0.0712  0.3462
61883W        W 4936  14.269  18.199  10.119 -0.0844  0.4821 -0.0778
61884W        W 4937   0.892  15.937  26.005 -0.0870  0.0386 -0.3632
61885W        W 4938  24.313  25.516   1.181 -0.0983  0.1196 -0.0496
61886W        W 4939   7.044  20.933   1.816 -0.2140 -0.0190  0.0270
61887W        W 4940  17.472  28.403   9.031 -0.2415 -0.3190  0.2705
61888W        W 4941  32.937   4.099  19.693 -0.1480 -0.3182 -0.1612
61889W        W 4942   3.345  27.711  27.356 -0.1729 -0.0548 -0.0900
61890W        W 4943   8.036  16.106   6.791 -0.1983 -0.1619  0.4306
61891W        W 4944  28.868  20.267   6.273  0.2225 -0.2350  0.1479
61892W        W 4945   7.652  21.915  28.713  0.1989 -0.2340 -0.1967
61893W        W 4946   8.355  28.408   3.737 -0.2549  0.2181  0.3356
61894W        W 4947  26.359  14.696  24.783  0.1604 -0.0760  0.1641
61895W        W 4948  11.797  12.161   4.357  0.0141  0.0815 -0.1887
61896W        W 4949   5.594  24.585   2.970 -0.5979  0.1538  0.0878
61897W        W 4950  20.363  26.489   5.481 -0.0682  0.0711  0.4267
61898W        W 4951  26.015  30.577   4.146 -0.1549  0.1735 -0.0075
61899W        W 4952  24.993  27.321   9.688 -0.2007 -0.2530 -0.1442
61900W        W 4953   5.215  10.957   2.510 -0.1865 -0.1276  0.0619
61901W        W 4954  10.210  13.016   7.471  0.0376  0.0874  0.1816
61902W        W 4955  12.523  28.499   1.192  0.2788  0.3977 -0.0129
61903W        W 4956  14.209  11.427  24.971 -0.1335 -0.0690  0.1810
61904W        W 4957   8.292  28.636   1.058 -0.3057  0.1507  0.3209
61905W        W 4958   7.333  20.099  28.203 -0.0765 -0.1088 -0.3077
61906W        W 4959  21.824  19.488   9.624  0.0374 -0.3390  0.0651
61907W        W 4960   5.454  15.642   0.599  0.0479 -0.2465  0.2925
61908W        W 4961  33.060  11.579   7.105  0.2573 -0.1416 -0.3417
61909W        W 4962  24.953   5.504   8.133  0.3298 -0.0225  0.2489
61910W        W 4963   6.167   3.933   2.042 -0.2924  0.4327  0.0390
61911W        W 4964  34.627  24.815  21.561  0.1733 -0.2860  0.0357
61912W        W 4965  22.767  21.659   1.740  0.0068  0.0035  0.3002
61913W        W 4966  24.541   6.357   5.301  0.1382 -0.3019  0.0092
61914W        W 4967  25.103  23.981  26.455  0.0958 -0.0743  0.0432
61915W        W 4968  10.256  10.198  21.837  0.1425  0.0261  0.0975
61916W        W 4969  11.564  27.430   8.021  0.2213 -0.5530  0.0495
61917W        W 4970   2.716  13.139   2.234 -0.1827  0.1750 -0.1585
61918W        W 4971  26.369  11.314   5.956  0.0232 -0.0513 -0.4911
61919W        W 4972   3.217  27.209  26.869  0.0498 -0.0655  0.0858
61920W        W 4973  33.002  17.294   0.018  0.2630  0.4513  0.1813
61921W        W 4974  11.298  14.910   7.389  0.0461  0.0221  0.1064
61922W        W 4975  11.694  18.862  29.029  0.0824 -0.0845  0.1942
61923W        W 4976   1.475  22.325   3.978 -0.3659 -0.0839  0.1808
61924W        W 4977  26.853  16.631  28.513 -0.0704 -0.1204 -0.1841
61925W        W 4978   4.460  12.253   8.747  0.2228 -0.1987  0.2299
61926W        W 4979   4.764  19.229   5.409 -0.0641  0.2420 -0.3260
61927W        W 4980  26.560  20.174   9.156  0.0595  0.0485  0.1480
61928W        W 4981  25.591  31.208  19.540 -0.1691 -0.2623 -0.0740
61929W        W 4982   6.103  30.743   3.176 -0.2271  0.2422 -0.1247
61930W        W 4983  12.050  19.921  19.999  0.0670  0.0869 -0.2622
61931W        W 4984  27.936  26.191   5.011 -0.0283 -0.0796  0.1850
61932W        W 4985  23.437  28.631   5.864  0.0530  0.0577  0.0913
61933W        W 4986   7.131  23.444   3.733 -0.0121  0.0721 -0.0673
61934W        W 4987  16.090  12.655   8.123  0.2605  0.0092  0.2478
61935W        W 4988  24.597  26.484  25.634  0.1032  0.0207  0.2092
61936W        W 4989  13.762  24.741  19.531  0.1821 -0.0806  0.2237
61937W        W 4990   1.974  20.062   8.768 -0.1358  0.2017  0.1075
61938W        W 4991   1.734   8.825   5.611  0.0490  0.0096  0.1450
61939W        W 4992   8.777   7.814   8.557 -0.2622  0.1799  0.0313
61940W        W 4993  14.780  21.970  26.595 -0.1385 -0.0062  0.0754
61941W        W 4994  12.342   7.418   1.175 -0.0201  0.4992  0.1033
61942W        W 4995  30.262  28.784   6.561  0.0453  0.1145  0.1347
61943W        W 4996  28.621  21.832   7.763  0.1376 -0.3819  0.0044
61944W        W 4997  18.347  28.907  27.992  0.3632  0.1829  0.2113
61945W        W 4998   5.839  14.213  25.029  0.0238 -0.1640  0.3385
61946W        W 4999   9.836  28.155   8.817 -0.4104 -0.2158  0.3289
61947W        W 5000   4.795  27.407   0.961  0.3873  0.1423  0.1875
61948W        W 5001   2.675  10.135   8.890 -0.0477  0.1734  0.2473
61949W        W 5002   1.515  14.905   2.323  0.1181 -0.4387 -0.0193
61950W        W 5003  24.682  18.580  22.607 -0.1117 -0.2860 -0.0500
61951W        W 5004   3.130  15.085  21.356 -0.3045  0.1157 -0.0704
61952W        W 5005   9.676  18.634  28.746 -0.1820  0.4420 -0.0825
61953W        W 5006   3.347  23.403   7.911 -0.3239 -0.3343  0.0692
61954W        W 5007   7.584  21.059   1.654 -0.0104 -0.2263  0.2575
61955W        W 5008  33.683  33.884   8.774 -0.1810  0.0804  0.2684
61956W        W 5009   4.999  26.252   2.016 -0.1299 -0.1169 -0.1656
61957W        W 5010  27.276  23.883   5.625  0.0545  0.2032 -0.2183
61958W        W 5011   4.153  21.856   9.278  0.1215 -0.0927 -0.2044
61959W        W 5012   3.246  30.202   8.144  0.1278  0.0735  0.0645
61960W        W 5013   6.487  26.581   7.089  0.2004  0.0345  0.0801
61961W        W 5014  24.523   8.460   6.474 -0.1961 -0.1417  0.1254
61962W        W 5015  25.380  21.548  25.857  0.0933  0.1467 -0.1080
61963W        W 5016  28.302  12.652  24.140  0.0235  0.0402  0.0524
61964W        W 5017   1.956  22.378   6.492  0.2486  0.0768 -0.0770
61965W        W 5018  27.773  22.696   2.398 -0.1963  0.1737 -0.1996
61966W        W 5019   1.682  33.373   1.269 -0.1141 -0.0288  0.1712
61967W        W 5020  16.767  22.514   4.076  0.2803  0.0136 -0.0531
61968W        W 5021   9.826   8.619   9.240  0.3022 -0.0784  0.0663
61969W        W 5022   1.646  23.541   4.541  0.2521 -0.0112  0.3784
61970W        W 5023  23.402  17.476   8.358  0.2499 -0.1057  0.1351
61971W        W 5024  19.858   4.034   7.619 -0.1100  0.0345 -0.1692
61972W        W 5025  21.294  24.934   4.571 -0.1192  0.0551 -0.1558
61973W        W 5026  12.546  21.604   5.871  0.1944 -0.2164  0.1263
61974W        W 5027  19.504  25.649   2.383 -0.4459  0.0216 -0.1386
61975W        W 5028   6.170  26.290   5.644  0.0889  0.0568 -0.1371
61976W        W 5029   4.992  34.038   6.436 -0.2290 -0.2957 -0.2794
61977W        W 5030  27.806   5.427   4.727  0.1317 -0.1522  0.3243
61978W        W 5031   5.952   1.666   8.478  0.3979  0.1564  0.0045
61979W        W 5032   4.394  12.991   5.459  0.1798 -0.4077 -0.1488
61980W        W 5033  29.876  19.439   6.579 -0.0098 -0.5345 -0.0394
61981W        W 5034   2.077  27.640   1.026  0.0139 -0.0299  0.0188
61982W        W 5035   3.128  22.456   6.442  0.1702 -0.5901  0.0379
61983W        W 5036  13.459  20.647   6.501 -0.1426 -0.1537  0.1583
61984W        W 5037  11.519  14.757  20.432 -0.0443 -0.0449  0.0581
61985W        W 5038   7.914  31.684   0.994  0.1152  0.0710 -0.0790
61986W        W 5039   7.846  33.516  27.958 -0.2255  0.1346 -0.0048
61987W        W 5040   4.170  30.265   8.758 -0.2296 -0.2084  0.2186
61988W        W 5041  21.683  19.829  25.086  0.3693 -0.3502  0.0719
61989W        W 5042   2.606  27.945  24.602 -0.1468 -0.5745 -0.1593
61990W        W 5043  29.050  23.211  28.124  0.0420 -0.1715 -0.1610
61991W        W 5044  31.812  24.614  24.912 -0.1475  0.0493  0.1926
61992W        W 5045  13.597   4.075   5.649  0.0856 -0.1873  0.0665
61993W        W 5046  21.514  30.543  27.083  0.1204 -0.2852  0.1540
61994W        W 5047  23.923   9.265   3.295  0.0426  0.0187 -0.0733
61995W        W 5048  33.918  23.964   7.674 -0.1655  0.0646 -0.1231
61996W        W 5049  16.143   3.928  25.037 -0.2141  0.1249  0.3476
61997W        W 5050  32.326  14.289  24.193 -0.2160 -0.1734 -0.2744
61998W        W 5051   3.692   1.671   2.993 -0.2858 -0.0463 -0.0805
61999W        W 5052   8.981  30.809   4.773 -0.1511  0.1254  0.1658
62000W        W 5053  19.071  21.713   8.730  0.1990 -0.2562 -0.2205
62001W        W 5054  21.773  10.855  28.290  0.1347  0.2670  0.0495
62002W        W 5055  29.114   4.045   0.739  0.0687 -0.3476  0.3135
62003W        W 5056  33.264  34.248   6.773 -0.0723 -0.0068  0.2192
62004W        W 5057  33.092  25.883   2.242  0.1314 -0.0614  0.2018
62005W        W 5058   4.491  32.422   6.734 -0.0337  0.0678  0.0017
62006W        W 5059   3.728  19.542   8.690 -0.0626 -0.5572 -0.0441
62007W        W 5060  28.482  25.265   6.554  0.0837  0.3139  0.0463
62008W        W 5061  27.625  26.860   3.539 -0.1978  0.4650 -0.1830
62009W        W 5062  10.667  26.087   1.809  0.4434  0.0328  0.2921
62010W        W 5063  26.917  16.731   3.009 -0.0734 -0.1607  0.3261
62011W        W 5064   8.507  11.270   9.685  0.0484  0.2144 -0.3398
62012W        W 5065   1.809  17.505   4.622 -0.1743 -0.3346 -0.2576
62013W        W 5066  31.432   2.755  18.281  0.0157  0.0869  0.0031
62014W        W 5067   1.179  22.553  26.119  0.1274 -0.1463  0.0483
62015W        W 5068  30.087   7.899   1.571 -0.1091  0.1007 -0.1442
62016W        W 5069  33.199  13.039  24.917  0.0104 -0.0693  0.0673
62017W        W 5070   1.404  31.170  23.548 -0.2676  0.0802  0.0695
62018W        W 5071  31.281   5.111  25.097 -0.0708 -0.2407 -0.0286
62019W        W 5072  24.280  28.341  28.505 -0.0703 -0.0590  0.3778
62020W        W 5073  11.596  27.893  17.029  0.1127 -0.0543  0.0667
62021W        W 5074  31.403  26.892   3.300  0.1113  0.1415 -0.2539
62022W        W 5075  31.429   6.134   4.312  0.1765 -0.2695  0.1674
62023W        W 5076   3.396  15.436   0.717 -0.1216  0.0561 -0.3434
62024W        W 5077   5.751  30.417  27.410  0.0588 -0.2022  0.2638
62025W        W 5078   7.150  32.232   1.728  0.1392 -0.0753  0.1788
62026W        W 5079   0.411  26.235  28.267 -0.2119  0.0194 -0.0027
62027W        W 5080  21.672  12.468   1.413 -0.2501  0.1132  0.1328
62028W        W 5081   3.333  24.810  21.987  0.1692  0.0527  0.1057
62029W        W 5082   7.021  12.847   9.895  0.1573  0.2330 -0.1010
62030W        W 5083  34.171  29.852   4.417  0.0876 -0.1043  0.2276
62031W        W 5084  22.192  14.720   5.375  0.1040  0.0042  0.1204
62032W        W 5085  32.383  12.733   6.775 -0.0630  0.0742  0.1074
62033W        W 5086  25.873  19.264   4.193  0.1640  0.0979 -0.0070
62034W        W 5087  16.906  25.825   8.793 -0.0238 -0.0103 -0.1376
62035W        W 5088  28.539  27.377   1.212  0.0296  0.0409 -0.3284
62036W        W 5089  31.103  26.196   3.776  0.0928  0.1202 -0.1602
62037W        W 5090  29.395  33.040   9.206  0.0714 -0.3097  0.2954
62038W        W 5091   8.485   5.455  27.032 -0.0022 -0.1274 -0.0577
62039W        W 5092  10.778  17.743  27.024 -0.0921 -0.0972 -0.0450
62040W        W 5093   7.491  23.202  25.064 -0.0364 -0.4031  0.4432
62041W        W 5094  12.906  29.378   7.971 -0.3012  0.0011 -0.2750
62042W        W 5095  30.498  30.489  25.867  0.0533  0.1077  0.0753
62043W        W 5096  11.362  21.496   9.296  0.1666 -0.2175  0.0936
62044W        W 5097  34.530  30.710   5.408  0.2547 -0.2320 -0.1947
62045W        W 5098   4.884  18.448   0.499  0.0897 -0.1937 -0.1683
62046W        W 5099   1.872  22.884   1.632 -0.1449  0.0447  0.1926
62047W        W 5100  24.270  19.595  25.245  0.2855 -0.1532  0.2352
62048W        W 5101  31.491  31.659   0.449 -0.1395  0.0174  0.2053
62049W        W 5102  18.026  21.472   2.076  0.0820 -0.1899 -0.1151
62050W        W 5103  30.213  22.534  27.422 -0.1309 -0.0361  0.1974
62051W        W 5104   1.338  12.432   8.785  0.1391  0.0184 -0.2366
62052W        W 5105  11.588   3.549  15.375  0.0165 -0.3069  0.1296
62053W        W 5106  27.326  18.353   3.011  0.2706  0.3456 -0.2222
62054W        W 5107   5.679  22.416   5.709 -0.2694  0.0224  0.0523
62055W        W 5108  27.501  26.420   9.646 -0.0676 -0.0915  0.2403
62056W        W 5109  20.357  26.653   5.965 -0.0424 -0.0884  0.0264
62057W        W 5110  26.529   4.906   0.892  0.1849  0.0429  0.3022
62058W        W 5111   8.674   3.762   5.559  0.2442  0.0233 -0.2082
62059W        W 5112   5.728  19.986  24.910 -0.0266  0.1436  0.1698
62060W        W 5113  17.078  29.772   1.509 -0.0375  0.0066  0.0702
62061W        W 5114   5.561  14.680  28.410 -0.2563 -0.2690 -0.0379
62062W        W 5115   0.746  25.538   3.098 -0.3389 -0.2278  0.0261
62063W        W 5116  24.843   8.893   6.212  0.0707  0.0787 -0.1909
62064W        W 5117  12.285  10.749   5.708  0.0344  0.0470  0.4138
62065W        W 5118  29.439  26.091   6.358 -0.1313 -0.1574 -0.0712
62066W        W 5119  10.872  21.472   3.487  0.2615  0.2363  0.0503
62067W        W 5120  14.720  19.974   3.774 -0.1004  0.0715 -0.1503
62068W        W 5121  29.599  16.137   9.975  0.2924 -0.1244  0.0866
62069W        W 5122  11.812  16.067   3.419 -0.0784 -0.2052  0.0825
62070W        W 5123  10.708  11.106  25.574 -0.0590  0.0105 -0.2510
62071W        W 5124   7.273  22.396   2.724 -0.3736  0.0912  0.0738
62072W        W 5125  25.719   7.708   5.737  0.2105 -0.0489 -0.2564
62073W        W 5126   9.146   0.762   8.796  0.0081  0.0247 -0.1112
62074W        W 5127   5.025  16.455   1.403 -0.0068  0.0519  0.0820
62075W        W 5128  25.249  20.263   1.603 -0.1467 -0.0578  0.2787
62076W        W 5129   7.632  18.742   6.862  0.3563 -0.3120  0.1483
62077W        W 5130  19.073  28.643  24.141 -0.1173  0.2594 -0.1509
62078W        W 5131  33.538  14.533  26.024 -0.0201 -0.3244 -0.2225
62079W        W 5132  16.511  11.414   8.109 -0.0052  0.0836  0.4582
62080W        W 5133  13.471   3.577   1.361  0.0542  0.0216  0.2125
62081W        W 5134   7.970   5.884  26.964  0.0736  0.3931 -0.2766
62082W        W 5135  12.889  13.406   8.105  0.0951  0.3172  0.0551
62083W        W 5136  27.743  16.012   9.650  0.0531 -0.0177  0.2351
62084W        W 5137   8.623  22.892  24.716  0.5296 -0.5770  0.0600
62085W        W 5138  29.297  28.026   9.227 -0.1237  0.1564  0.0046
62086W        W 5139   1.850  33.574  15.272 -0.2461 -0.0864 -0.1123
62087W        W 5140   5.219   6.429  27.782 -0.0166 -0.1178 -0.1228
62088W        W 5141  26.464   9.528   4.856 -0.1410 -0.2045  0.3613
62089W        W 5142  15.660   6.057  19.472  0.0990  0.1805 -0.1126
62090W        W 5143   4.273  33.288  20.788 -0.1225  0.0466  0.4033
62091W        W 5144  32.263  18.645   6.043 -0.0205  0.1286  0.0829
62092W        W 5145  30.933  25.356   6.251  0.0534 -0.1685  0.0749
62093W        W 5146  10.601  17.198  26.768  0.2582 -0.4996  0.2267
62094W        W 5147   1.724  23.182  24.321  0.1085 -0.1586  0.0399
62095W        W 5148  11.163   4.973  25.241  0.1020  0.2071 -0.0980
62096W        W 5149  28.271  20.914   1.630  0.1318 -0.0664  0.1444
62097W        W 5150   2.392  14.474   8.457 -0.1748  0.2297 -0.0273
62098W        W 5151   0.953  23.941   0.092  0.1443  0.0157 -0.0601
62099W        W 5152  11.054  16.677   5.939 -0.2548 -0.0351 -0.3126
62100W        W 5153   3.986  16.405  27.073 -0.0189 -0.3529  0.0421
62101W        W 5154   7.476  17.879   7.108  0.1582 -0.0955  0.0920
62102W        W 5155   7.753  10.034  28.856  0.1718 -0.2235 -0.0478
62103W        W 5156  28.153  26.934  24.021  0.0319  0.0113  0.0301
62104W        W 5157   0.770  13.743   8.289 -0.0580  0.0344 -0.0674
62105W        W 5158  10.831  20.104  26.848 -0.1605 -0.3070 -0.1995
62106W        W 5159  11.720   1.507   9.484 -0.0861  0.1702  0.0139
62107W        W 5160  23.309  17.067  25.225 -0.0371  0.1556  0.0013
62108W        W 5161  29.943  25.344  24.887 -0.0954  0.2221  0.1159
62109W        W 5162  27.307  13.435   6.969  0.0482  0.1298  0.2307
62110W        W 5163   9.209  30.374   7.069 -0.0550 -0.0215  0.0990
62111W        W 5164  12.985  25.414  26.434  0.3070 -0.0838  0.2507
62112W        W 5165  34.405   7.222  10.053 -0.4125  0.0607  0.0393
62113W        W 5166  17.386  28.078   1.625 -0.0732  0.2628  0.1689
62114W        W 5167  25.670  29.043  25.640  0.2209 -0.3535  0.1090
62115W        W 5168  26.356   3.912  27.407  0.1688 -0.0510  0.0059
62116W        W 5169  18.955  25.791  21.718  0.0267  0.1087  0.0105
62117W        W 5170  23.680   6.274   9.486 -0.0768 -0.0065 -0.0992
62118W        W 5171  10.581   9.798   0.349 -0.0417  0.0510 -0.1699
62119W        W 5172   3.709  25.048  27.457  0.1441 -0.2241 -0.1323
62120W        W 5173  32.349  25.236  27.642  0.1180 -0.0136 -0.5328
62121W        W 5174  29.578  27.029  17.166 -0.0517  0.3452  0.1806
62122W        W 5175   3.613  25.224   1.067 -0.0039 -0.2074 -0.2578
62123W        W 5176  29.976  15.491  26.659 -0.3161 -0.1875  0.0309
62124W        W 5177   9.192  19.285  28.318 -0.1142 -0.0066  0.1611
62125W        W 5178  18.354  28.296   3.735  0.1703 -0.1315  0.2042
62126W        W 5179   1.747  26.842   6.188  0.0971  0.0040  0.0518
62127W        W 5180  24.929  27.618  22.014 -0.0259  0.0412 -0.0759
62128W        W 5181  28.285  30.100   8.384 -0.0729 -0.0469 -0.0233
62129W        W 5182   9.592  29.629   5.795 -0.3126 -0.2016 -0.2558
62130W        W 5183  27.401  23.740   0.148  0.4698  0.1182  0.0565
62131W        W 5184   0.978  13.965  26.774  0.1187  0.2206  0.1674
62132W        W 5185  18.941  32.843  19.144  0.0375 -0.0183  0.4011
62133W        W 5186  17.158  14.306  24.989  0.1757 -0.3113 -0.0136
62134W        W 5187   3.149  32.233   4.058  0.2330 -0.1099  0.1623
62135W        W 5188   1.312  16.693  21.452 -0.0096  0.0699 -0.3360
62136W        W 5189   0.679   4.974   5.061  0.0156 -0.1470 -0.2828
62137W        W 5190   4.415  27.168  19.463 -0.1512  0.0381  0.0362
62138W        W 5191   8.828  29.904  21.534  0.0256  0.0446  0.1659
62139W        W 5192   7.843  30.822  25.903 -0.0991  0.1309 -0.0169
62140W        W 5193  30.852   5.245  21.310  0.2618  0.2400 -0.3116
62141W        W 5194  22.843  29.388  10.100 -0.0556  0.3968 -0.0130
62142W        W 5195   5.900  24.111   5.684 -0.0219  0.0532  0.0999
62143W        W 5196  20.536  20.635  26.615 -0.1946 -0.5392  0.2057
62144W        W 5197  31.563   2.184  19.482 -0.0764  0.0767  0.1970
62145W        W 5198   9.956  27.538  28.839 -0.0461 -0.4428 -0.0989
62146W        W 5199  17.104   3.764   2.865  0.0656 -0.1004 -0.0046
62147W        W 5200  29.973  19.875   2.470 -0.0644 -0.3953  0.0139
62148W        W 5201  29.337  18.230  15.716 -0.1053  0.0807  0.0091
62149W        W 5202  30.144  17.738  28.868  0.1536  0.1703  0.1942
62150W        W 5203   2.982  32.994   1.765  0.0174 -0.2275 -0.2815
62151W        W 5204   5.216  26.255  15.864  0.1915  0.3763 -0.1826
62152W        W 5205   1.901  12.493  24.039 -0.1469  0.0226 -0.1356
62153W        W 5206  10.029  28.949   5.225 -0.1806 -0.1083 -0.2799
62154W        W 5207  31.118  20.672   5.650  0.2334 -0.0941 -0.3464
62155W        W 5208  16.213   9.513  17.818  0.2969  0.0016 -0.2198
62156W        W 5209   0.116  19.414  29.102  0.1716  0.3424  0.0042
62157W        W 5210   2.399  11.219  28.800  0.1955  0.2427 -0.1131
62158W        W 5211   7.435  26.636   8.191  0.3346  0.1681  0.0357
62159W        W 5212   5.608  17.404  19.256 -0.2156  0.0375 -0.0159
62160W        W 5213  26.749  26.652  28.245 -0.1234  0.2784  0.1634
62161W        W 5214   4.206  10.783  22.833  0.1868  0.0842 -0.2052
62162W        W 5215  34.574  27.162  19.211 -0.0495  0.0960 -0.1165
62163W        W 5216  32.162  18.535  16.055 -0.0932 -0.0390 -0.0021
62164W        W 5217  21.312   5.121  23.843  0.0735 -0.3543  0.0722
62165W        W 5218  11.969  25.667   5.237 -0.1649  0.2101 -0.0821
62166W        W 5219  22.018  21.808  18.244  0.0270  0.0922 -0.0692
62167W        W 5220  28.050  27.346   7.457  0.3004  0.2941  0.0407
62168W        W 5221   2.239  28.349  24.670 -0.1382  0.0780 -0.2332
62169W        W 5222   3.520  19.256  13.806  0.3232 -0.1306  0.1790
62170W        W 5223   2.915  23.953   1.130  0.1568  0.0634  0.0880
62171W        W 5224  17.987  12.741  25.782 -0.1689  0.0582 -0.0323
62172W        W 5225  28.002  28.459  27.210  0.2147  0.4841  0.0362
62173W        W 5226   0.339  20.596   4.079 -0.0620  0.0389  0.0686
62174W        W 5227   9.707  28.343  22.936  0.2221 -0.3337 -0.1103
62175W        W 5228   2.139  31.769   8.154 -0.4193  0.0918 -0.2513
62176W        W 5229   1.250  31.002  24.379  0.3222  0.1256 -0.2158
62177W        W 5230   9.685   6.221   6.542  0.0318 -0.1260 -0.0779
62178W        W 5231   6.107   0.495   1.015 -0.1394 -0.0537 -0.0079
62179W        W 5232   4.676  13.807   1.156 -0.1050 -0.2404 -0.2321
62180W        W 5233   0.318  28.000  19.068  0.0895 -0.2251 -0.0626
62181W        W 5234  15.428  23.724  10.048 -0.1280 -0.2471  0.1347
62182W        W 5235  31.804   7.362   7.932  0.0943 -0.2293 -0.0149
62183W        W 5236   1.252   8.428  21.643 -0.3400 -0.0476  0.2069
62184W        W 5237   8.647   8.400  16.791 -0.1637 -0.3395 -0.2699
62185W        W 5238  23.757  31.627  24.090  0.0538 -0.1406 -0.2893
62186W        W 5239   9.042  30.209  24.006  0.0076 -0.1239 -0.1501
62187W        W 5240   7.676  25.617  28.094 -0.3813 -0.0256  0.0058
62188W        W 5241  33.613  15.682  24.822  0.0433  0.2178  0.2510
62189W        W 5242  10.735  17.227   8.949  0.1077  0.4226  0.0880
62190W        W 5243  27.580  25.436   9.782 -0.1920 -0.2763  0.2287
62191W        W 5244   8.294  31.487  20.310 -0.0287 -0.1753  0.1218
62192W        W 5245   1.478  30.166  17.075 -0.0489  0.0453 -0.1308
62193W        W 5246   4.649  25.306   7.304 -0.1565  0.0236  0.2552
62194W        W 5247  18.834  17.553   6.270 -0.0944 -0.3199  0.1094
62195W        W 5248  32.846   4.535   0.307  0.0345  0.2150 -0.0731
62196W        W 5249  19.283  27.244   7.959  0.1708 -0.1242  0.0152
62197W        W 5250  31.225  14.411  23.411 -0.1470 -0.0348 -0.1416
62198W        W 5251   8.749   9.707   3.761 -0.2303 -0.0250 -0.1682
62199W        W 5252  27.780  19.943  19.477  0.0811  0.0744 -0.0854
62200W        W 5253   0.051   7.070  20.619  0.1057 -0.2252  0.2161
62201W        W 5254   4.390   6.150   6.005  0.4961  0.2087  0.0957
62202W        W 5255  30.079  20.057   2.987  0.1558  0.0699  0.0803
62203W        W 5256   9.378   2.546  19.444 -0.3782 -0.0901  0.0755
62204W        W 5257  14.219  14.274   9.798  0.0460 -0.0474 -0.2387
62205W        W 5258   5.505  15.237   2.630 -0.0351  0.1179  0.3014
62206W        W 5259  31.115  18.794   7.978 -0.0832 -0.1243  0.1000
62207W        W 5260  17.974  29.939  20.344 -0.0134 -0.0495 -0.3275
62208W        W 5261   9.464   8.058   1.002 -0.1395 -0.1798 -0.0920
62209W        W 5262  28.485  25.538  23.877  0.0567 -0.0957  0.1415
62210W        W 5263   9.194  20.370  18.329 -0.3320 -0.1581 -0.0301
62211W        W 5264  27.048  10.475  23.512 -0.1009  0.0813 -0.0689
62212W        W 5265  27.856  13.193  27.565 -0.0927  0.0005 -0.3428
62213W        W 5266  25.614  11.983  18.915  0.0983  0.1082 -0.0231
62214W        W 5267  13.321  12.478  26.949  0.1489  0.1020  0.0801
62215W        W 5268   5.723   8.614   9.645  0.0845 -0.0304 -0.0851
62216W        W 5269   6.836  24.811   8.261  0.2443 -0.1941 -0.0705
62217W        W 5270  34.555  23.331  25.277 -0.2117 -0.0631  0.0629
62218W        W 5271  26.777  12.512  23.454  0.0896  0.1109  0.2267
62219W        W 5272  30.407  25.072   4.156  0.2028  0.3512  0.1272
62220W        W 5273   4.653  25.025   9.526 -0.5651 -0.0754  0.0723
62221W        W 5274  10.084  11.044   9.509 -0.1535  0.3294 -0.4492
62222W        W 5275  24.898  32.417   5.059 -0.1999 -0.0527 -0.1750
62223W        W 5276  31.877   1.943  25.849 -0.1686 -0.2669 -0.0979
62224W        W 5277   8.194  31.173   6.760 -0.3213 -0.0653 -0.3302
62225W        W 5278  32.994  34.145  27.567  0.2156  0.2307  0.0310
62226W        W 5279  14.584  18.633   7.697  0.1091 -0.3250 -0.1654
62227W        W 5280  33.523  34.471  25.776 -0.0606 -0.1652  0.0746
62228W        W 5281   3.926  31.369   7.356  0.0651 -0.1361 -0.0596
62229W        W 5282  15.915  26.077  22.638 -0.1637  0.0354 -0.0878
62230W        W 5283   5.180  25.195  19.697  0.0506 -0.0901  0.0239
62231W        W 5284   7.860   0.370   7.054  0.0379  0.1034 -0.1455
62232W        W 5285  11.095   5.473   8.426 -0.2036  0.2306 -0.0503
62233W        W 5286  30.968  18.914  26.531  0.4303 -0.1989 -0.2916
62234W        W 5287  16.774  11.515   0.847  0.0515  0.2272 -0.2463
62235W        W 5288   3.393  28.659   8.559 -0.3096  0.1433  0.0561
62236W        W 5289  17.365  31.605  26.589  0.0566 -0.1990  0.1574
62237W        W 5290   9.954  13.337  10.910  0.4459 -0.1622 -0.0489
62238W        W 5291   3.930  33.198   6.798  0.2233 -0.2429  0.3540
62239W        W 5292  28.940  26.960   5.457  0.1262  0.1692  0.1346
62240W        W 5293  26.459  21.809  28.748  0.0016  0.2047  0.0641
62241W        W 5294   5.868  26.188  13.091 -0.0382  0.3465 -0.1139
62242W        W 5295   4.068  32.861  18.475  0.0891 -0.1377  0.0974
62243W        W 5296  29.144  29.097  28.774 -0.3331  0.0202 -0.1197
62244W        W 5297  34.341  27.093  17.585  0.3947  0.1582  0.0874
62245W        W 5298   0.447   4.585  25.348  0.1151 -0.0577  0.1263
62246W        W 5299  28.706  23.131   4.679 -0.0589 -0.0880  0.2021
62247W        W 5300   6.482  24.993   7.887 -0.0271  0.0444 -0.3281
62248W        W 5301  14.436  28.166  20.491  0.1456  0.3188  0.0323
62249W        W 5302  31.250  26.309  21.282 -0.3159  0.2730  0.0777
62250W        W 5303  17.909  10.809  20.702  0.0737 -0.2140 -0.0684
62251W        W 5304   6.354  26.717   3.638  0.0925  0.2098  0.0671
62252W        W 5305   8.847  26.116   6.313  0.1341  0.1151 -0.1923
62253W        W 5306  32.092  28.279   8.881 -0.2717 -0.0643  0.0311
62254W        W 5307   7.077  22.521  21.998  0.1487  0.0452  0.2082
62255W        W 5308   4.692  30.130  25.608  0.0335  0.0243 -0.0370
62256W        W 5309   3.667   1.189   9.144  0.2823 -0.2280 -0.0297
62257W        W 5310   7.201   0.682   7.691  0.2235  0.2099 -0.1368
62258W        W 5311  26.555   4.042   1.544  0.3031  0.2105 -0.0184
62259W        W 5312  13.845  14.944   8.069  0.2059 -0.0128 -0.0075
62260W        W 5313  21.282   4.947   9.721 -0.1340 -0.1501  0.0964
62261W        W 5314  23.957  24.645   0.869 -0.1180 -0.0256  0.0899
62262W        W 5315   9.839   7.003  10.288 -0.0162 -0.0576 -0.1423
62263W        W 5316   6.692  21.607   2.687  0.1871  0.2202  0.0711
62264W        W 5317  14.171  14.198  19.206  0.1238 -0.0445  0.0833
62265W        W 5318  20.050  26.059  10.697 -0.2966  0.0358 -0.0338
62266W        W 5319  29.798  34.675  22.329 -0.0867 -0.0732 -0.1414
62267W        W 5320  17.143  29.424   8.071  0.0787  0.0658  0.3479
62268W        W 5321  34.508  13.185  19.403 -0.1578 -0.0823 -0.0382
62269W        W 5322  31.547  19.559   3.598 -0.0177 -0.0651  0.2143
62270W        W 5323  20.557  29.558  20.702  0.0170  0.5199 -0.5027
62271W        W 5324   6.221  11.003  22.581  0.2809  0.0952  0.0459
62272W        W 5325  29.742   5.431   3.737 -0.0138  0.1527  0.1368
62273W        W 5326  14.037  27.390   1.704  0.2269 -0.0860 -0.2867
62274W        W 5327  33.851  22.593   7.482 -0.1885  0.1376  0.4788
62275W        W 5328   7.843  25.222   4.399 -0.2174  0.1993 -0.0679
62276W        W 5329   2.806  12.744   5.674 -0.2052  0.2877  0.1752
62277W        W 5330  19.264  31.831  22.464 -0.0777  0.1688 -0.0285
62278W        W 5331  28.099  27.199  28.599 -0.2497 -0.0161  0.2419
62279W        W 5332  32.423  30.758   0.046  0.2086  0.0707  0.2429
62280W        W 5333   1.139  20.290   0.330 -0.0135  0.0911 -0.0753
62281W        W 5334  19.599  30.544  20.307  0.0674  0.0968  0.0089
62282W        W 5335   1.493  34.181  26.563 -0.1627  0.0783 -0.0387
62283W        W 5336  14.044  22.819  10.332  0.0616  0.1328 -0.1097
62284W        W 5337   6.220  15.832  21.019  0.1422  0.0642 -0.1234
62285W        W 5338   5.692  19.197   6.142 -0.2301 -0.1922  0.3291
62286W        W 5339   9.738  21.315   8.078  0.1451  0.1429  0.0277
62287W        W 5340   9.766   9.758   6.057 -0.0597  0.0572  0.0454
62288W        W 5341  32.058  28.943   4.469  0.3109  0.2459  0.0877
62289W        W 5342   0.840   8.881  17.160  0.0195  0.0438  0.2182
62290W        W 5343  33.820  30.106  19.523  0.0046  0.1307 -0.1015
62291W        W 5344   3.439  23.838  28.343  0.2284 -0.0130 -0.0567
62292W        W 5345   7.073  32.802  28.808  0.0568  0.0815  0.0884
62293W        W 5346  29.007  19.554   6.842 -0.0639  0.0884  0.2558
62294W        W 5347   3.713  24.630   3.353 -0.0866 -0.3562  0.1666
62295W        W 5348   7.391  17.243  20.584  0.0109 -0.0534  0.0300
62296W        W 5349   1.432  17.663   7.501  0.1035 -0.0021 -0.1247
62297W        W 5350   3.398  32.366   2.124  0.4886 -0.0630  0.1339
62298W        W 5351  26.863  14.203  26.800  0.0275 -0.1671 -0.1432
62299W        W 5352   5.339  33.435  14.235  0.1694  0.2693 -0.1360
62300W        W 5353   8.102  22.162  21.182  0.0277  0.4115 -0.1358
62301W        W 5354  25.279  27.853   8.367  0.0663 -0.0042 -0.0271
62302W        W 5355  26.850  16.797  21.752 -0.0049 -0.1918  0.2669
62303W        W 5356  11.995  16.753   7.714  0.1751  0.2560 -0.0610
62304W        W 5357  11.518  12.452  29.138  0.1991  0.0376  0.1816
62305W        W 5358  24.296  13.570   3.166 -0.2108  0.2449 -0.2650
62306W        W 5359  29.095  28.885  15.722  0.1433 -0.0921 -0.0764
62307W        W 5360  31.708  25.711  22.380 -0.0899  0.2573 -0.0489
62308W        W 5361   3.907   4.348   4.234 -0.0788 -0.0559 -0.1510
62309W        W 5362   0.294  32.341  20.586  0.2132  0.0275 -0.2019
62310W        W 5363  22.850   1.429  27.549 -0.1923  0.3313  0.0669
62311W        W 5364  18.951  28.163  29.002  0.0115  0.0370  0.1276
62312W        W 5365  32.373  21.278  19.968  0.0620 -0.3707 -0.2303
62313W        W 5366   4.079   4.017   7.853 -0.0527  0.0548 -0.1473
62314W        W 5367   7.189  31.670   1.642  0.3057 -0.1072  0.3754
62315W        W 5368  12.717  16.474  28.369 -0.1260 -0.2262 -0.1456
62316W        W 5369   7.597  11.420   1.958 -0.2121  0.1289 -0.3944
62317W        W 5370   0.134  18.691  24.187 -0.0531 -0.1215 -0.1526
62318W        W 5371  26.752  28.153  10.730 -0.1882  0.0927 -0.2816
62319W        W 5372  18.922  32.112   1.042 -0.1688 -0.2208  0.2986
62320W        W 5373  23.314  20.270   2.019  0.0941  0.0733 -0.3256
62321W        W 5374   2.661   4.013   9.119  0.2771  0.3407 -0.0515
62322W        W 5375  32.691   6.340  23.940 -0.0322  0.0599  0.0078
62323W        W 5376   4.892  24.270  25.178  0.3270 -0.0194 -0.0793
62324W        W 5377   7.026   7.523  23.360  0.1266 -0.2718  0.0243
62325W        W 5378   7.944  28.850  16.787 -0.3290  0.0090  0.0636
62326W        W 5379   2.950  27.186  22.366 -0.5103  0.3978  0.0825
62327W        W 5380   2.223  20.564  25.777  0.0201  0.0700  0.1433
62328W        W 5381   3.285  22.768   4.626 -0.1447 -0.1188  0.2940
62329W        W 5382   2.845  14.535   7.389 -0.1623  0.0423  0.0985
62330W        W 5383   0.419  12.668  26.801  0.0382 -0.0467 -0.0361
62331W        W 5384   9.536  21.462  19.348 -0.1882 -0.2575 -0.1152
62332W        W 5385  13.310   1.510  14.676 -0.1262 -0.0817  0.0344
62333W        W 5386  13.067  16.507  28.009 -0.0024 -0.2359 -0.0413
62334W        W 5387  13.302  16.819   5.021  0.0868 -0.1975  0.1161
62335W        W 5388  34.146  27.721   3.950  0.2983  0.1620  0.0256
62336W        W 5389  16.983  29.702   2.974  0.1876  0.4696  0.1152
62337W        W 5390   4.540  29.572  22.552  0.0768  0.4686  0.4000
62338W        W 5391   2.544  21.556  17.057 -0.1480  0.0961 -0.3555
62339W        W 5392  14.779  12.061   2.057  0.0591 -0.1495 -0.2100
62340W        W 5393   2.256  15.324   5.880  0.0043 -0.1480 -0.1711
62341W        W 5394  31.489   4.371  19.886  0.0225 -0.1908  0.2313
62342W        W 5395   0.868  27.499  28.227  0.0138  0.0560  0.0245
62343W        W 5396  30.231  26.147  14.616  0.4211  0.3954  0.2288
62344W        W 5397  23.274  16.626  23.894  0.0309  0.3366 -0.3170
62345W        W 5398   1.883  26.263  16.321 -0.2396  0.0259 -0.0403
62346W        W 5399  29.464  26.865   8.762  0.1022 -0.0659 -0.1349
62347W        W 5400   7.397  25.060   2.579  0.0289 -0.0565 -0.0229
62348W        W 5401   8.585  16.936   5.130  0.0601 -0.0050 -0.0258
62349W        W 5402  30.744  19.831  27.457 -0.0424  0.2276  0.2744
62350W        W 5403  24.795  34.672  24.493  0.0842 -0.0227  0.3430
62351W        W 5404  14.227  10.970   5.562  0.2080  0.3088  0.0369
62352W        W 5405   3.013   7.936  19.898 -0.2158 -0.0428 -0.0649
62353W        W 5406  26.227   1.903  19.529  0.0137  0.0089  0.2633
62354W        W 5407   8.776  20.904  26.930  0.3437  0.3697  0.2248
62355W        W 5408  28.707  10.995  21.113 -0.3324  0.1299 -0.2069
62356W        W 5409   9.283  13.239   7.213  0.3080  0.0440  0.4893
62357W        W 5410   0.302  24.352   9.146 -0.3274  0.0478  0.1745
62358W        W 5411   7.560  29.729  16.771  0.0983 -0.0125 -0.1388
62359W        W 5412   0.985  15.500   2.747 -0.0875 -0.0258  0.0911
62360W        W 5413  29.117  18.482  29.051  0.1108  0.2152  0.2284
62361W        W 5414   8.206  11.079   5.075  0.2280  0.4616 -0.0981
62362W        W 5415   1.612  32.833  14.251 -0.0966  0.0611 -0.1364
62363W        W 5416  19.075  29.636  18.354 -0.0086  0.1135 -0.1846
62364W        W 5417  31.932  12.872   7.786 -0.0077 -0.2040  0.0581
62365W        W 5418  29.934  25.517   7.938 -0.0002  0.1931  0.1895
62366W        W 5419  32.051  10.836  17.437  0.1267 -0.0146  0.1371
62367W        W 5420  22.866  19.422   2.168  0.0908 -0.1808 -0.0370
62368W        W 5421  32.673   7.266   2.746  0.2864  0.1082 -0.1350
62369W        W 5422  12.798   1.144  27.311  0.3295 -0.0612 -0.0830
62370W        W 5423   9.879  21.400  20.861 -0.3806  0.1800 -0.0566
62371W        W 5424  23.570   8.964  17.760  0.1675  0.2003  0.0243
62372W        W 5425   3.101  20.888  24.709  0.0007 -0.2491 -0.1668
62373W        W 5426  24.432  21.828  27.186 -0.0228  0.1662  0.0207
62374W        W 5427   1.383  26.124  16.626  0.1094 -0.2457 -0.0501
62375W        W 5428  32.688  27.495   7.173 -0.0109 -0.0850 -0.2824
62376W        W 5429   4.515  28.941   0.068  0.1564  0.1583  0.0896
62377W        W 5430   4.656  34.404  23.046  0.1571 -0.2216 -0.1373
62378W        W 5431   4.145  13.984   7.435  0.1348  0.0368 -0.2315
62379W        W 5432  32.889  20.638  22.950 -0.0771 -0.0926 -0.1097
62380W        W 5433   6.012   8.815  24.662 -0.1561  0.0842 -0.1143
62381W        W 5434  32.377  19.429   4.296  0.1257 -0.0952  0.2866
62382W        W 5435   2.807  18.057  26.764  0.0256 -0.1200  0.2065
62383W        W 5436  31.057  21.232  23.941  0.2793 -0.0017 -0.1901
62384W        W 5437  31.638  24.777   2.464 -0.1349 -0.1198  0.0156
62385W        W 5438  22.010  24.294  16.688 -0.1435  0.1154  0.2626
62386W        W 5439  27.920  28.806   1.359 -0.1015  0.1900  0.0357
62387W        W 5440  33.206  15.713   6.243 -0.1493 -0.1981 -0.0546
62388W        W 5441  13.560  21.173  14.084 -0.1880  0.0647 -0.2051
62389W        W 5442   0.604  30.402  19.268  0.1556 -0.2489  0.0428
62390W        W 5443  33.130  28.350  20.836  0.0589  0.1098  0.0921
62391W        W 5444  34.282  16.969   5.381  0.3533  0.1094 -0.0810
62392W        W 5445  33.810   6.176  16.989 -0.1522  0.2853 -0.0943
62393W        W 5446  29.220  21.366   3.034  0.2015  0.2075  0.0366
62394W        W 5447  24.083  21.087  24.351 -0.2091  0.1439 -0.0478
62395W        W 5448   6.954   1.173   5.264 -0.1669 -0.3786 -0.1872
62396W        W 5449   2.040  21.459   0.361  0.1792 -0.0623 -0.0564
62397W        W 5450   3.351  14.734  25.625  0.2643  0.1458 -0.2853
62398W        W 5451  34.571   8.157   0.868 -0.2687 -0.0503  0.3461
62399W        W 5452  33.362  19.613  15.545 -0.0802 -0.0855 -0.1095
62400W        W 5453  10.174  11.497   0.905  0.0756 -0.2111 -0.0304
62401W        W 5454  27.839  18.639  28.444  0.2006  0.2337 -0.0525
62402W        W 5455   6.332  24.040   9.022  0.1925  0.0868  0.4072
62403W        W 5456   5.747  15.065   7.492 -0.0086 -0.2662 -0.2373
62404W        W 5457  32.090  24.039  15.151  0.1456 -0.0603 -0.1312
62405W        W 5458  19.429  33.009  18.734 -0.1441  0.2346 -0.1029
62406W        W 5459  14.302  22.924   9.454  0.4045  0.1213  0.2302
62407W        W 5460  32.284  12.774   1.618  0.1495  0.4765  0.4928
62408W        W 5461   4.617  32.184  23.991  0.2031 -0.1516  0.3197
62409W        W 5462   5.399  25.034   3.155 -0.0529 -0.1528  0.1597
62410W        W 5463  16.046  27.078   5.970 -0.2786 -0.2998 -0.4000
62411W        W 5464   1.622  10.827  29.128  0.0544 -0.2639  0.0656
62412W        W 5465   1.283  34.312  17.250 -0.2412  0.2380 -0.3665
62413W        W 5466  31.259  28.605   6.502  0.1773  0.3011 -0.1201
62414W        W 5467   0.264  22.745   2.701 -0.3833  0.4608  0.2731
62415W        W 5468  32.237  25.372   3.873  0.0170  0.0972  0.1043
62416W        W 5469   7.452  33.817  27.901  0.2719  0.0443  0.0095
62417W        W 5470   2.158  28.466   8.546 -0.1344 -0.7016 -0.0316
62418W        W 5471   3.205  24.205   9.230 -0.1576  0.0316 -0.0069
62419W        W 5472  12.248  22.105   3.698 -0.2498  0.3341  0.0534
62420W        W 5473  28.726  34.037   2.962 -0.2699 -0.0904  0.3906
62421W        W 5474   3.844   9.412   2.458 -0.1703  0.0042  0.0167
62422W        W 5475   0.281  15.754   8.509 -0.0155 -0.0172 -0.3877
62423W        W 5476   7.382  18.360   0.006 -0.2166 -0.0902  0.1879
62424W        W 5477  27.331  23.733   1.327  0.1678  0.2644  0.1745
62425W        W 5478  32.527  21.715  27.815  0.1071  0.1092  0.1728
62426W        W 5479   6.231  29.841   6.610 -0.2029 -0.0273  0.1175
62427W        W 5480   2.525  17.925   5.208 -0.0783  0.2361 -0.2577
62428W        W 5481  33.119  27.694   1.603  0.3220  0.1002  0.2268
62429W        W 5482  30.181  20.361  23.820 -0.4498  0.0520 -0.3167
62430W        W 5483  31.906   8.751  28.561 -0.2354 -0.1855  0.0418
62431W        W 5484  21.831  20.071  16.694 -0.0664 -0.0699  0.1999
62432W        W 5485  32.290  34.321   5.517  0.0244 -0.1867 -0.1086
62433W        W 5486  33.296  11.427   4.328  0.0877 -0.2482  0.1414
62434W        W 5487  33.477  29.375  27.535 -0.3088 -0.0877  0.0597
62435W        W 5488  14.094  27.227  25.122 -0.2314  0.1035 -0.0898
62436W        W 5489   3.431  18.194   0.228  0.0290 -0.2046 -0.1174
62437W        W 5490  30.396  25.271  26.216  0.0515 -0.0765  0.1365
62438W        W 5491  29.580  26.268  22.259  0.1324 -0.0364  0.0598
62439W        W 5492   2.038  10.408  25.546  0.0051  0.0119  0.2007
62440W        W 5493  25.893  26.996   5.819 -0.4292 -0.0236  0.0025
62441W        W 5494   1.977  13.265   5.772 -0.1906  0.1424  0.2250
62442W        W 5495  13.065  17.113   4.715 -0.1522  0.0503  0.1500
62443W        W 5496   4.401  26.110   4.460 -0.0499 -0.0087  0.0935
62444W        W 5497  25.475  13.673  26.398  0.3356  0.0292 -0.4543
62445W        W 5498  28.982  20.250   8.849  0.0054 -0.2526  0.0345
62446W        W 5499  33.634  28.637  21.908  0.4304 -0.0947 -0.0878
62447W        W 5500  14.297  18.753   3.438 -0.0966  0.0185  0.1890
62448W        W 5501  23.936  27.761   7.206  0.1102 -0.0670  0.1900
62449W        W 5502  19.471  29.784  27.564 -0.2296 -0.2329  0.0484
62450W        W 5503  11.456  26.082   0.117 -0.2670 -0.0548  0.0124
62451W        W 5504  29.771  20.362  17.938  0.1919  0.0675 -0.0597
62452W        W 5505  26.148  26.312  24.091 -0.2681 -0.2771  0.0711
62453W        W 5506   4.319  21.691  21.757 -0.0866  0.0034 -0.2424
62454W        W 5507  13.387  18.458   8.935 -0.0417 -0.1475  0.0302
62455W        W 5508  24.481  26.035  15.811 -0.2441  0.1639 -0.5170
62456W        W 5509  11.020  13.892  21.537 -0.2108  0.0336  0.0357
62457W        W 5510   1.740  28.002  16.758 -0.0816 -0.1541  0.0984
62458W        W 5511   2.227  33.788   4.401  0.1448 -0.0458 -0.0503
62459W        W 5512  24.309  12.740  19.015  0.0887  0.2213  0.1196
62460W        W 5513  28.075  16.504  27.226  0.0715 -0.1555  0.1960
62461W        W 5514  13.970  20.982   9.329 -0.0101  0.1053  0.0300
62462W        W 5515  26.271  14.706  28.816  0.0416 -0.0330 -0.2527
62463W        W 5516   0.933  29.151   8.918  0.0127  0.1444  0.0760
62464W        W 5517   6.637   0.593  19.008  0.1573  0.1720 -0.1808
62465W        W 5518  33.782  20.901  24.897  0.0597 -0.1279 -0.0065
62466W        W 5519  13.976  24.684  28.531 -0.1383  0.1867  0.0826
62467W        W 5520  13.244  21.906  15.154 -0.2044 -0.1975  0.1501
62468W        W 5521   6.449  12.477  10.967  0.1028 -0.1702  0.3524
62469W        W 5522  33.570  12.233   0.790 -0.0927 -0.0042 -0.4297
62470W        W 5523   1.995  14.952   7.256  0.3423  0.0085  0.1872
62471W        W 5524   2.997  23.931   4.051  0.0112 -0.0520 -0.0144
62472W        W 5525   2.985  21.258   4.537  0.0270  0.0507 -0.1661
62473W        W 5526   4.936  27.427  21.601 -0.1120 -0.1015  0.0759
62474W        W 5527  33.841  28.156   8.196 -0.2366  0.1064 -0.0222
62475W        W 5528  25.427  15.473   1.896  0.0394 -0.0168  0.3385
62476W        W 5529  29.968   7.991  22.295 -0.0264 -0.0503  0.1037
62477W        W 5530  24.123   7.693  14.820  0.1911  0.0087  0.0061
62478W        W 5531   7.481  21.655  14.703  0.1792 -0.1367 -0.3501
62479W        W 5532   1.491  30.482  22.734  0.3412  0.2469 -0.1091
62480W        W 5533  26.659  17.408   7.900 -0.2860  0.1335 -0.0998
62481W        W 5534   6.277   7.823  10.125  0.0331 -0.1548  0.0602
62482W        W 5535   8.255  10.609  15.631  0.0718 -0.0403  0.0836
62483W        W 5536  13.460  28.136  28.484  0.1707 -0.2140  0.2192
62484W        W 5537  30.017  14.151   5.073  0.1484  0.2319 -0.0602
62485W        W 5538  21.941   7.670   9.414 -0.2065  0.2347 -0.0220
62486W        W 5539   8.354  24.615  26.734 -0.2270 -0.4892  0.2727
62487W        W 5540   9.268  28.610  25.069  0.0518 -0.3019  0.0166
62488W        W 5541  14.635  20.914   2.144  0.1429 -0.0549  0.2269
62489W        W 5542   6.849   3.424  20.586 -0.0035 -0.0001  0.0473
62490W        W 5543   8.004  23.923  28.493  0.0125  0.2601 -0.0692
62491W        W 5544  22.631   0.895   4.435  0.0421  0.1045  0.1342
62492W        W 5545   5.699   5.386   4.011  0.0607 -0.2620  0.0848
62493W        W 5546  21.068  12.780   5.210 -0.1372  0.2507  0.1074
62494W        W 5547  19.734  16.620  28.550 -0.4405 -0.0567  0.0048
62495W        W 5548  34.369  18.392   0.325  0.1282  0.3616 -0.1383
62496W        W 5549  27.966   4.399   3.731 -0.0951 -0.0513 -0.0069
62497W        W 5550   2.561  31.758   0.257  0.1268 -0.2113 -0.0592
62498W        W 5551  24.585  28.375  28.860  0.1715 -0.1724  0.1213
62499W        W 5552   8.856   3.556   1.602  0.1012  0.0191 -0.2401
62500W        W 5553  26.253  29.661   4.242 -0.1931 -0.0492 -0.1104
62501W        W 5554  31.940  23.000  28.053 -0.1047  0.0857 -0.1221
62502W        W 5555  20.795  15.790   5.235 -0.0690  0.0499  0.0008
62503W        W 5556   8.751  20.873   5.644  0.1562  0.4699  0.0186
62504W        W 5557  34.567   7.301   7.875 -0.0806  0.2414  0.3177
62505W        W 5558  27.557  23.300  26.945 -0.2011 -0.1020 -0.0984
62506W        W 5559  22.333  32.215   4.592 -0.2964  0.0711  0.1257
62507W        W 5560  11.510  33.727   8.101  0.2039 -0.1194 -0.1651
62508W        W 5561  27.245  24.132   4.897  0.1612  0.0714  0.0546
62509W        W 5562  12.557  34.509  19.454  0.0425 -0.1989  0.2963
62510W        W 5563  28.872  15.076   8.976 -0.2243 -0.1167  0.2131
62511W        W 5564   3.875  20.592   7.859 -0.4295  0.0832  0.0898
62512W        W 5565  25.510  17.568   5.832 -0.0267 -0.2381  0.2397
62513W        W 5566   5.987  14.602   2.844 -0.1502  0.0397 -0.2207
62514W        W 5567  30.010  30.615   6.625 -0.0703  0.0697 -0.1414
62515W        W 5568   8.772  17.915  28.893 -0.0375  0.1513 -0.0231
62516W        W 5569   3.663  30.035   8.653  0.2551 -0.0076 -0.0235
62517W        W 5570  20.930   0.564  28.397 -0.1535 -0.1742  0.0385
62518W        W 5571   4.093   9.338  14.760 -0.1544 -0.0633  0.1710
62519W        W 5572   1.037  21.745  27.210  0.1511  0.0723 -0.1530
62520W        W 5573  25.633  23.843  24.099  0.1310  0.4496  0.1002
62521W        W 5574   1.538   9.942   3.054 -0.3422  0.0693  0.0353
62522W        W 5575  33.344  22.487   9.842 -0.0550 -0.1113 -0.2167
62523W        W 5576  34.502  22.437  27.911  0.0468  0.1791 -0.0847
62524W        W 5577  15.273  11.121  27.329 -0.2124  0.2348 -0.0844
62525W        W 5578  27.309  19.364   2.245  0.2307  0.0299 -0.3766
62526W        W 5579  11.814  17.821   3.958  0.2391 -0.2068 -0.0950
62527W        W 5580   2.334  29.426  26.279  0.0250 -0.0152  0.1199
62528W        W 5581  12.793  19.312   7.011  0.2024  0.0240 -0.0447
62529W        W 5582  32.276  19.164   6.116 -0.0208  0.2559  0.0687
62530W        W 5583  29.783  17.574  26.834 -0.1458 -0.3533 -0.0143
62531W        W 5584   7.121   4.114   5.719 -0.4144 -0.2490  0.1160
62532W        W 5585  33.776  31.675   9.194  0.1056  0.1758 -0.0240
62533W        W 5586  17.439   3.434  28.995 -0.1527 -0.1215  0.0497
62534W        W 5587  18.966  21.030  29.021  0.2433 -0.1305  0.0538
62535W        W 5588  19.320  29.683   6.579  0.2980  0.0038 -0.0807
62536W        W 5589   5.069  19.357  18.932  0.2347 -0.1661  0.0562
62537W        W 5590  30.417   1.874   1.821 -0.0790  0.5625  0.0494
62538W        W 5591   6.435  18.954   8.711 -0.0859 -0.0235  0.4148
62539W        W 5592   2.499  12.976   9.412  0.0866  0.0384 -0.4289
62540W        W 5593  20.081  18.232  24.764  0.0220 -0.1529 -0.1266
62541W        W 5594   2.247  31.175   9.999 -0.0425  0.0131  0.2309
62542W        W 5595  20.184  26.431   9.484 -0.2468 -0.1615  0.2480
62543W        W 5596   5.620  15.637   5.953  0.2910 -0.0874 -0.0020
62544W        W 5597   0.260  17.631  19.167  0.0650 -0.4172  0.0502
62545W        W 5598  33.247  29.429   6.131  0.1134  0.0270 -0.0031
62546W        W 5599  30.699  27.789   6.628 -0.0235 -0.0447 -0.2719
62547W        W 5600  17.391  21.248   4.422 -0.1358 -0.0631  0.2020
62548W        W 5601  10.325   1.358   5.230  0.0367 -0.2780 -0.4663
62549W        W 5602   2.458   4.667   9.663  0.2102  0.0971 -0.2907
62550W        W 5603  31.377  19.769   0.430 -0.0626  0.0300 -0.0100
62551W        W 5604  28.654  13.514   9.544 -0.1985  0.0664  0.0003
62552W        W 5605  11.158  16.209   6.060  0.1688 -0.0071  0.2912
62553W        W 5606   9.738  34.667  26.849 -0.0308 -0.1450 -0.2369
62554W        W 5607   1.519  31.784   4.000 -0.2147 -0.4279 -0.0909
62555W        W 5608  28.269  13.578  19.672 -0.0600 -0.2012 -0.3819
62556W        W 5609   1.370  20.623  22.889 -0.0079  0.1708  0.1590
62557W        W 5610  25.543  28.317   5.972  0.1912 -0.3773  0.0579
62558W        W 5611  16.563  12.239  14.160  0.2668  0.1605 -0.2034
62559W        W 5612   3.189  28.241   4.170 -0.2199  0.0037 -0.0947
62560W        W 5613   1.255   4.143   3.577  0.1654 -0.2474 -0.0164
62561W        W 5614   3.201  25.176   7.567 -0.1666  0.0194  0.0119
62562W        W 5615  16.321   2.133   9.316  0.1611  0.2117  0.2464
62563W        W 5616  10.081   9.962   8.141  0.0237 -0.1119 -0.4674
62564W        W 5617   4.408  24.080  17.375 -0.2518 -0.0133 -0.2934
62565W        W 5618  14.209   2.755  25.316 -0.0508 -0.2263  0.1740
62566W        W 5619   7.959   9.373   7.103  0.2163  0.0762  0.0262
62567W        W 5620  23.969  23.125  29.048 -0.0201 -0.1652  0.1129
62568W        W 5621   7.949   0.257   2.132  0.1654  0.2180  0.0207
62569W        W 5622   1.049  25.563  22.132  0.1857  0.1361 -0.0851
62570W        W 5623  28.361  27.412   8.083  0.0770  0.1149 -0.0797
62571W        W 5624  25.825   8.363  28.250 -0.3247  0.0265  0.0818
62572W        W 5625  27.070   8.377   9.345 -0.2135 -0.3734 -0.1235
62573W        W 5626   5.527  13.594   7.255  0.0835 -0.1337  0.1533
62574W        W 5627   1.273  28.294  10.044  0.1109 -0.2931  0.0894
62575W        W 5628  34.479  33.444   4.813 -0.0288 -0.3362  0.0192
62576W        W 5629  29.675  17.278   2.797 -0.1941 -0.4420 -0.2076
62577W        W 5630  13.694  14.547   3.696  0.2407 -0.0872 -0.0496
62578W        W 5631  32.366  18.590   4.329 -0.0661  0.1926 -0.2087
62579W        W 5632  12.257  26.771  27.335 -0.2095 -0.2968  0.1507
62580W        W 5633   5.118  32.066   1.649 -0.0022  0.0793 -0.0483
62581W        W 5634   7.070  20.295   7.651 -0.3659  0.1115 -0.0228
62582W        W 5635  11.697  27.616  28.025 -0.2453  0.1328  0.0530
62583W        W 5636  20.363   7.494  10.538  0.3775  0.1413 -0.0622
62584W        W 5637  19.059   7.463  28.412 -0.2585 -0.2793 -0.0249
62585W        W 5638   5.993  27.200   9.366 -0.0055 -0.1323  0.3287
62586W        W 5639  11.189  33.019   0.666 -0.0722  0.2369  0.0410
62587W        W 5640   9.938  30.142  27.157  0.2224  0.0207 -0.0084
62588W        W 5641   2.985  20.558   8.729  0.0856  0.1035 -0.1190
62589W        W 5642   4.366  14.976  26.017  0.0820 -0.0495 -0.0577
62590W        W 5643  28.219  20.237  23.097  0.1462 -0.1878 -0.1815
62591W        W 5644  30.462  13.389  28.040  0.3442 -0.1647 -0.1245
62592W        W 5645   1.370  16.734   9.182  0.0781 -0.0105  0.0546
62593W        W 5646   7.152  23.242  13.894  0.2115 -0.0391 -0.0991
62594W        W 5647  10.223  12.141   6.929 -0.0331  0.0557 -0.0296
62595W        W 5648  33.431  21.707  27.046 -0.0109 -0.2758 -0.0022
62596W        W 5649  15.558  21.487  27.347 -0.1117 -0.2860  0.0906
62597W        W 5650  24.520  17.145  25.013  0.2971 -0.1172  0.0493
62598W        W 5651   2.980  15.781   0.852 -0.0525 -0.1825 -0.1546
62599W        W 5652  29.795  24.443   4.167  0.0382  0.2061 -0.3329
62600W        W 5653   4.478  11.359   4.842 -0.0738 -0.1361  0.1340
62601W        W 5654  12.838   7.751  23.072  0.0162 -0.0228  0.0188
62602W        W 5655   4.282  10.175   9.068 -0.1255  0.4960 -0.0298
62603W        W 5656  30.176   4.099   9.092  0.1109  0.1959  0.0523
62604W        W 5657   1.583  24.630  19.343  0.0264  0.1374  0.2488
62605W        W 5658  32.821  20.941   7.260 -0.0349  0.1778 -0.0449
62606W        W 5659   0.664  19.002  28.299 -0.1347  0.0821 -0.0392
62607W        W 5660   3.982  19.606   1.744  0.1557  0.2195 -0.0123
62608W        W 5661  18.038  18.153   9.390 -0.1116  0.3222  0.1170
62609W        W 5662  10.600  24.365   9.168 -0.0031 -0.0336  0.2588
62610W        W 5663  31.638  11.091   6.099 -0.1634  0.0737 -0.1514
62611W        W 5664   5.481  27.430  18.856 -0.2350 -0.0378 -0.1576
62612W        W 5665  23.734  19.100  26.482 -0.2414 -0.1323 -0.0360
62613W        W 5666   3.319  12.507   5.435 -0.0383 -0.5255 -0.1162
62614W        W 5667   0.219  14.566  22.707  0.2524  0.2628 -0.1595
62615W        W 5668  18.210  15.495   6.610 -0.2840 -0.1288 -0.0932
62616W        W 5669  14.384   8.778  28.554  0.0509  0.1323  0.5065
62617W        W 5670  34.065  18.761  26.354  0.1632  0.1511  0.1520
62618W        W 5671  27.868   4.290  26.000 -0.0767  0.1794  0.1313
62619W        W 5672  26.730  29.443  27.956 -0.0602 -0.0164 -0.0908
62620W        W 5673  21.282  17.313  20.865 -0.1484  0.6006 -0.1591
62621W        W 5674  22.949  16.551  24.777 -0.3080  0.4875  0.1322
62622W        W 5675   2.301  19.331  24.850  0.1337  0.0895  0.0957
62623W        W 5676  31.866  18.311  26.260  0.1148 -0.0480  0.0926
62624W        W 5677   7.460  20.601  16.468  0.2059  0.1356 -0.2049
62625W        W 5678  29.645  17.395  21.637 -0.1961  0.0391 -0.4156
62626W        W 5679   5.023  27.048   7.139  0.0082 -0.0228 -0.2363
62627W        W 5680   9.488  15.747  24.255  0.1039  0.1356 -0.4607
62628W        W 5681   9.560  27.997  18.334  0.0998  0.0665  0.0225
62629W        W 5682  11.266  31.378  19.271  0.0972 -0.0242  0.0521
62630W        W 5683  34.002  31.231   9.281  0.2541  0.0608 -0.1268
62631W        W 5684  30.136  25.995   2.617  0.2821 -0.4065 -0.2662
62632W        W 5685  30.965  24.572   5.662 -0.1627 -0.2323 -0.1973
62633W        W 5686  28.019  18.664   5.038 -0.1684  0.1830 -0.0229
62634W        W 5687   2.678  34.150   6.068  0.2537  0.2445  0.3752
62635W        W 5688   0.539  14.749  25.257  0.0306 -0.0291 -0.0569
62636W        W 5689  26.236  23.079   8.238  0.0396 -0.0536  0.2254
62637W        W 5690  26.253  17.845  24.771  0.0266  0.2232  0.1970
62638W        W 5691  18.724  14.442   0.940  0.0364  0.2350  0.0700
62639W        W 5692  28.538  26.761   7.804 -0.0571 -0.0038 -0.2930
62640W        W 5693  22.485  18.127   4.437  0.0619  0.0610 -0.0760
62641W        W 5694  32.137  20.389  22.574  0.1067 -0.1890 -0.0897
62642W        W 5695  32.164  15.475   9.358  0.0643  0.2289 -0.1094
62643W        W 5696   7.208  24.735  17.458  0.0679 -0.2774  0.1828
62644W        W 5697  32.885  11.482   8.940  0.0512  0.1668 -0.1669
62645W        W 5698  14.382  34.206   8.052  0.1495 -0.2131 -0.1483
62646W        W 5699   7.174   0.513   1.211 -0.0181 -0.4726  0.1808
62647W        W 5700  13.099  28.199  22.244  0.0713 -0.0273 -0.0656
62648W        W 5701  32.557  11.543   3.218 -0.2185  0.2140  0.2113
62649W        W 5702  13.440  22.987  28.970 -0.1640  0.0414 -0.2667
62650W        W 5703  11.558   5.285  25.394 -0.1106 -0.2526 -0.1998
62651W        W 5704  30.536  32.826   3.245 -0.2502 -0.0671 -0.0926
62652W        W 5705  33.503  13.749   7.765 -0.0965 -0.2137 -0.0024
62653W        W 5706   2.792  17.776   3.017 -0.0036  0.1145  0.2423
62654W        W 5707   6.991  33.207   6.288  0.0837  0.0974  0.0217
62655W        W 5708  33.097  14.569   0.622  0.5890 -0.1389  0.1927
62656W        W 5709  26.216   1.383  18.381  0.0840  0.0623  0.1984
62657W        W 5710   6.317  22.860   2.636 -0.0343 -0.1783 -0.0786
62658W        W 5711  13.884  14.417  26.495  0.3289  0.1384  0.0153
62659W        W 5712  30.684  28.567   7.861 -0.0889 -0.1164 -0.2915
62660W        W 5713   4.146  15.444   1.013  0.1133  0.0776  0.1710
62661W        W 5714  15.661  22.512   7.668 -0.0296 -0.4693  0.1027
62662W        W 5715   5.197  16.500   8.288 -0.1597  0.3163  0.1414
62663W        W 5716  32.551  21.547   6.800 -0.3512  0.1645 -0.0300
62664W        W 5717  16.543  16.983   1.556 -0.0063  0.1254  0.0501
62665W        W 5718  29.403  23.314   0.287  0.3033 -0.0934  0.4038
62666W        W 5719   5.405  29.237  28.317  0.2075  0.3579 -0.2592
62667W        W 5720   1.130   8.633  26.024 -0.1183  0.1574  0.0553
62668W        W 5721  14.276  21.889   2.625 -0.1895 -0.0389 -0.4139
62669W        W 5722   5.361  17.211   5.060 -0.1934  0.0526 -0.0623
62670W        W 5723  33.000   1.338  24.885  0.2245 -0.0122  0.0549
62671W        W 5724  29.627  28.885   5.220 -0.0496 -0.2294 -0.0753
62672W        W 5725  13.521  25.767  26.323 -0.2879 -0.0876  0.1735
62673W        W 5726  11.607  23.601  14.206 -0.0383 -0.0947 -0.0573
62674W        W 5727  13.408  23.354   9.443 -0.2087  0.3336  0.0908
62675W        W 5728   3.521  15.810  26.779 -0.1653 -0.3022  0.0208
62676W        W 5729   8.467   0.564  18.593 -0.4677  0.2832  0.0070
62677W        W 5730  34.299   2.095  25.328 -0.2147  0.2575 -0.0005
62678W        W 5731  31.123  24.962   6.431  0.0631 -0.1137 -0.1117
62679W        W 5732  31.860  27.993   8.529  0.0339 -0.0192  0.2939
62680W        W 5733  28.129  25.836  26.569 -0.0856 -0.1926 -0.0541
62681W        W 5734   3.033  26.639   5.951 -0.1000 -0.1638  0.1092
62682W        W 5735  21.475  16.299   5.373  0.5255 -0.2921 -0.0707
62683W        W 5736  23.348  14.562   4.813 -0.0427 -0.1863  0.0830
62684W        W 5737  32.091  25.458   1.328 -0.2116  0.0608  0.1132
62685W        W 5738  13.176  20.322   1.384 -0.1380 -0.3787  0.2665
62686W        W 5739  10.411  23.995   2.207  0.0144  0.0265 -0.2169
62687W        W 5740  15.655  13.063  28.016  0.1940 -0.1517 -0.0721
62688W        W 5741   1.812  27.415   0.186 -0.1265 -0.0613  0.2027
62689W        W 5742  29.163   4.850   8.583 -0.0405 -0.0139  0.4048
62690W        W 5743  23.191  24.067   5.797  0.0567 -0.1508  0.0192
62691W        W 5744  11.736  22.173   4.514  0.1590 -0.1837  0.2235
62692W        W 5745  30.903  30.814   2.936  0.1632 -0.1037 -0.0416
62693W        W 5746  32.893  24.676   7.604  0.1043  0.1157 -0.0661
62694W        W 5747   5.068  19.158  27.896 -0.0100  0.2117 -0.0492
62695W        W 5748   4.307   5.405   7.720  0.2504  0.0620 -0.1162
62696W        W 5749  23.410  27.594   9.634  0.1955 -0.0074  0.0393
62697W        W 5750  14.818  19.513  23.290 -0.2072 -0.0204 -0.0327
62698W        W 5751  10.974  24.520   7.938  0.0469  0.3088 -0.3053
62699W        W 5752   2.965  12.278   2.279  0.0270 -0.1420  0.1349
62700W        W 5753  27.831   9.758   2.590  0.2077 -0.2155  0.1567
62701W        W 5754  33.526  19.901  29.078 -0.0552  0.2034  0.2311
62702W        W 5755  11.085  10.981   4.271 -0.1034 -0.1016  0.1173
62703W        W 5756  27.619  19.826   2.273  0.1791 -0.2285 -0.1297
62704W        W 5757   2.253   4.152   5.072 -0.0927 -0.1146 -0.3482
62705W        W 5758   4.530   1.299  23.785  0.3415  0.0376 -0.1938
62706W        W 5759  26.453  23.830   9.879  0.2045  0.1563  0.0745
62707W        W 5760   0.690   0.335  27.915 -0.2302  0.0306  0.0708
62708W        W 5761   9.185   4.055   7.309 -0.3645  0.3422  0.0580
62709W        W 5762   1.252  16.517   7.273  0.0821  0.0270 -0.0147
62710W        W 5763  29.191  23.785   7.893 -0.0158 -0.0801 -0.3177
62711W        W 5764   4.964  25.583   8.461  0.0411  0.0126  0.3734
62712W        W 5765   9.851  25.401   4.610 -0.1737  0.1548  0.0483
62713W        W 5766   1.315  12.369  21.499  0.0853 -0.1690 -0.0587
62714W        W 5767  29.841  22.049   9.196 -0.0426  0.1176 -0.0533
62715W        W 5768  14.921   0.379   0.155 -0.2652 -0.0789 -0.0102
62716W        W 5769  27.014   9.133  10.607 -0.1667  0.1612  0.1417
62717W        W 5770  27.238  19.351  26.648 -0.1722  0.1113 -0.1066
62718W        W 5771   8.287  14.553   9.882  0.0053 -0.1531  0.0161
62719W        W 5772  17.802  26.703   5.961 -0.1444  0.1076 -0.2245
62720W        W 5773  13.789   4.112   2.574  0.1768  0.2991 -0.1074
62721W        W 5774   9.842  23.936   3.630  0.3332 -0.1720  0.0476
62722W        W 5775   0.048  11.610   4.248 -0.2104  0.2832  0.1189
62723W        W 5776  13.967   4.090  28.180 -0.2255  0.2718 -0.0778
62724W        W 5777  24.381   7.334   9.653 -0.0472  0.0661  0.2048
62725W        W 5778   4.139  30.687   1.479 -0.6385 -0.1224 -0.0070
62726W        W 5779  29.860  23.814  18.813 -0.1913  0.0983 -0.2142
62727W        W 5780  27.495  12.040   1.585  0.1058  0.2766 -0.1647
62728W        W 5781  27.513  13.055   4.603  0.1514 -0.4165 -0.0838
62729W        W 5782  34.024  20.565   3.733 -0.3042  0.1962  0.0490
62730W        W 5783  31.532  30.530  28.166 -0.2947 -0.1960  0.0638
62731W        W 5784   6.116  18.264  28.531 -0.3210 -0.4398 -0.0425
62732W        W 5785  34.459  19.660   8.502  0.1400  0.2234  0.2295
62733W        W 5786   7.138   7.092   7.236  0.1929  0.0480 -0.3020
62734W        W 5787  25.424   5.211  27.849 -0.2803  0.0376 -0.3765
62735W        W 5788  21.414  24.078  28.690 -0.0724 -0.0162  0.0652
62736W        W 5789  13.175  20.166  19.885  0.0990 -0.1728  0.2543
62737W        W 5790  28.177   0.981   8.131  0.1181 -0.4357  0.0145
62738W        W 5791  30.341  33.160  25.008 -0.1876 -0.1370 -0.0601
62739W        W 5792  27.361  11.774   9.549 -0.3722 -0.1738  0.0824
62740W        W 5793   0.561  22.463  27.088 -0.1047  0.0572 -0.2108
62741W        W 5794  10.738  26.718  28.332  0.2120  0.1147  0.0855
62742W        W 5795  33.983  30.594   2.253  0.1215  0.0273  0.1955
62743W        W 5796  28.239  17.149   6.011  0.0121  0.0298 -0.1823
62744W        W 5797  10.876  17.004  21.161 -0.0169  0.1896 -0.0898
62745W        W 5798   8.266  18.088  28.164 -0.2715 -0.0313 -0.2462
62746W        W 5799   8.101  12.272   0.332  0.2415  0.1139 -0.0196
62747W        W 5800  11.229  29.548   7.424  0.0205  0.2975 -0.0668
62748W        W 5801   1.059   1.071   8.287  0.0130 -0.2420 -0.0950
62749W        W 5802  26.106  23.520  29.013 -0.1036  0.1546  0.0752
62750W        W 5803  32.475   9.277  19.459  0.0421 -0.2428 -0.3449
62751W        W 5804  25.665  29.891  26.184  0.1358 -0.1941 -0.1738
62752W        W 5805  32.487  31.433   6.745  0.3132 -0.0929  0.2356
62753W        W 5806  23.968  11.124   0.823  0.1314  0.0397 -0.1352
62754W        W 5807   5.806  20.139   2.096  0.0110 -0.0955  0.3504
62755W        W 5808  34.263   2.848   9.291 -0.0755 -0.0649  0.0872
62756W        W 5809   4.444  17.451   2.352 -0.0544  0.4040  0.1520
62757W        W 5810  29.772  16.365   1.326  0.4542  0.0638 -0.1077
62758W        W 5811  17.607  27.928  26.573  0.0631 -0.0817 -0.0132
62759W        W 5812  15.223  18.162  25.826  0.2619  0.0031 -0.2939
62760W        W 5813  33.458  31.177   4.392 -0.0821 -0.0260  0.1439
62761W        W 5814  12.723  29.306  27.788  0.1158  0.4647 -0.3923
62762W        W 5815  31.810  18.869   1.150  0.0907 -0.0059  0.0674
62763W        W 5816  32.402  22.720   8.751 -0.1650 -0.0532 -0.0207
62764W        W 5817  27.681   0.763   7.198 -0.0406  0.2713  0.3232
62765W        W 5818   4.191  17.028   2.170  0.1530  0.1166 -0.2915
62766W        W 5819  29.311  23.148   2.214  0.1120 -0.0046  0.0717
62767W        W 5820  15.368   1.589   0.055 -0.0313  0.0474  0.1370
62768W        W 5821  30.843   4.867   8.129 -0.1536 -0.1300 -0.3247
62769W        W 5822   6.173   1.782   5.423 -0.1920 -0.1528  0.0275
62770W        W 5823  29.099  20.156  22.123  0.1390  0.1096 -0.2917
62771W        W 5824   2.325  17.051   9.925 -0.0190  0.1074 -0.0198
62772W        W 5825  24.940  32.124   5.728 -0.1255  0.1107 -0.2070
62773W        W 5826  31.752   2.384  19.911  0.0009 -0.0967  0.0740
62774W        W 5827   2.804  24.138  23.137 -0.0414 -0.1900  0.0547
62775W        W 5828  27.214  26.802  25.671  0.1022  0.0970 -0.1746
62776W        W 5829  23.595  18.010   1.166 -0.0149 -0.0211 -0.1113
62777W        W 5830  34.317  13.833  25.204 -0.2031  0.1275 -0.0230
62778W        W 5831   5.600  20.074   5.894  0.1402 -0.1102 -0.0982
62779W        W 5832  13.154  33.430   2.337  0.2891  0.2387 -0.0795
62780W        W 5833  34.515  19.198   0.433  0.0287 -0.0409 -0.1366
62781W        W 5834  34.374  25.908   6.485  0.1282  0.2148  0.0654
62782W        W 5835   2.257  10.036   5.140 -0.0335 -0.0223  0.2692
62783W        W 5836  30.370  10.378  19.554 -0.2640 -0.2872  0.2286
62784W        W 5837  11.510  15.020  22.154  0.0601 -0.1150  0.0322
62785W        W 5838  11.856  12.587   4.578 -0.1384 -0.4503 -0.1299
62786W        W 5839  31.514   6.164   1.248  0.0969  0.0695  0.3543
62787W        W 5840  31.989  19.729   7.673 -0.3255  0.4088  0.2588
62788W        W 5841   5.588  30.143   7.766  0.0212 -0.2893 -0.1338
62789W        W 5842   7.792  18.111  29.126  0.2867 -0.1736 -0.0394
62790W        W 5843  34.065   2.797   8.578 -0.2058  0.1013 -0.2631
62791W        W 5844  15.568  14.588  27.101  0.1819 -0.0471 -0.0294
62792W        W 5845  29.631  23.599  26.682 -0.3164  0.0071  0.0767
62793W        W 5846   9.320  18.824   1.669 -0.3134  0.0476  0.0073
62794W        W 5847   4.039  24.946   4.808  0.0572 -0.0361 -0.0396
62795W        W 5848   4.239  12.374   3.112  0.1825 -0.4083 -0.4979
62796W        W 5849  31.778  21.720   7.069 -0.2675  0.0766  0.0515
62797W        W 5850  22.331  24.392  28.277 -0.3784 -0.2480  0.1635
62798W        W 5851  26.295  10.701  23.226 -0.0121  0.1398  0.0593
62799W        W 5852  26.696  22.210   9.828 -0.3428 -0.4894 -0.0485
62800W        W 5853  26.015  22.719   8.022 -0.1096  0.0273  0.1855
62801W        W 5854   3.284  21.553   3.458 -0.3532 -0.3025  0.3260
62802W        W 5855  29.130   9.177   1.038  0.1306 -0.0905 -0.0243
62803W        W 5856   3.751  16.026  23.470  0.0682  0.0008 -0.2996
62804W        W 5857   7.115   6.021  22.229 -0.2797  0.1011 -0.0481
62805W        W 5858  18.814   7.996   6.494 -0.3542  0.0039 -0.0277
62806W        W 5859  26.240  16.980   9.912 -0.0340  0.2140 -0.2083
62807W        W 5860  19.486  10.360  10.053 -0.0358  0.0513  0.1139
62808W        W 5861   1.969   3.363   8.768  0.1514 -0.0085 -0.0084
62809W        W 5862   0.540  15.164   5.102 -0.0223  0.1629 -0.1709
62810W        W 5863  23.004  19.973   3.186 -0.2516 -0.0168  0.0723
62811W        W 5864  29.104  20.722   8.954  0.2670  0.2505 -0.1275
62812W        W 5865   7.984  17.941   3.907  0.2853  0.2468 -0.1932
62813W        W 5866  12.142  25.712   1.944 -0.2433 -0.2163  0.2993
62814W        W 5867  15.934  34.669  22.214 -0.0730  0.0969 -0.3253
62815W        W 5868   1.674   3.646   5.794 -0.3752 -0.0028 -0.1150
62816W        W 5869  19.158  16.863  28.401 -0.0670  0.0045 -0.1106
62817W        W 5870  12.633  30.098  19.611  0.1011 -0.1632  0.0621
62818W        W 5871   7.582   2.297  27.157 -0.0691  0.2754 -0.1322
62819W        W 5872  15.211  22.254  24.083  0.4790 -0.2563  0.2117
62820W        W 5873   5.279   6.728  21.742 -0.2217 -0.3673 -0.1694
62821W        W 5874   1.277  13.158  26.769  0.0141  0.0194 -0.3597
62822W        W 5875   5.886  15.869   6.338 -0.2551  0.2479  0.3403
62823W        W 5876  27.457  14.720   7.507  0.0328  0.1072  0.0400
62824W        W 5877  33.939  24.926  28.854 -0.2476 -0.1175  0.0598
62825W        W 5878   6.923  11.164  10.693  0.0749  0.3214 -0.5095
62826W        W 5879  15.037  26.403  23.006 -0.1788  0.5239 -0.0789
62827W        W 5880   6.933   0.668   5.850  0.0918 -0.2061 -0.0277
62828W        W 5881   1.475  27.863   8.931 -0.2221  0.1482 -0.0327
62829W        W 5882   6.774  14.519   8.647  0.2622  0.0310 -0.2088
62830W        W 5883  28.974  20.165   2.088 -0.0428  0.0827  0.0630
62831W        W 5884   0.213  21.707   2.007  0.1903 -0.3527  0.1603
62832W        W 5885   4.375  27.877  24.893  0.0282 -0.1556 -0.3365
62833W        W 5886   7.450  18.548   8.629 -0.0657  0.0755  0.2967
62834W        W 5887  29.834  34.025  23.028 -0.1543  0.1263  0.0148
62835W        W 5888  34.536  16.747  27.923 -0.0149  0.1301 -0.0049
62836W        W 5889  27.516   6.252  14.469 -0.0490  0.0958  0.2418
62837W        W 5890   1.894  27.882  20.876 -0.0374 -0.3268  0.2939
62838W        W 5891   4.905   7.299   6.112 -0.1041 -0.0683  0.3597
62839W        W 5892   0.696  31.620   3.086 -0.0828 -0.0399 -0.0991
62840W        W 5893  17.197  31.095  10.508  0.0234 -0.0750  0.1604
62841W        W 5894   3.452  18.856   5.731  0.2391  0.5330 -0.1141
62842W        W 5895  19.124  17.858  28.216  0.0819  0.1856  0.2179
62843W        W 5896  10.101   7.861  23.898 -0.0654  0.1803 -0.0545
62844W        W 5897   1.769  28.779  15.769  0.0343  0.1216  0.2019
62845W        W 5898  19.368  26.064  22.324  0.0669  0.0904  0.0057
62846W        W 5899  28.222  21.524   4.982 -0.0195 -0.0479 -0.0679
62847W        W 5900  15.847  12.179  17.555  0.2976  0.1620 -0.2428
62848W        W 5901  21.838   2.732   2.818  0.1940 -0.1601 -0.1287
62849W        W 5902   6.142   8.916   8.498 -0.5064 -0.0864 -0.1550
62850W        W 5903  27.730  22.816  21.822 -0.1746 -0.2015  0.0418
62851W        W 5904  32.086   5.746  16.487 -0.0185  0.2609 -0.1005
62852W        W 5905  32.510  13.952   0.274 -0.1895 -0.0037 -0.0403
62853W        W 5906  15.522  23.603   1.962  0.2934 -0.0769 -0.1330
62854W        W 5907   9.158  15.641   8.463  0.0427  0.1977  0.2388
62855W        W 5908  26.330  30.130   4.139  0.0878 -0.1643 -0.2805
62856W        W 5909  27.424  27.500   9.409 -0.0148 -0.2586  0.0696
62857W        W 5910  30.254  20.466  26.214  0.1942  0.0435  0.2404
62858W        W 5911  28.313  13.217   9.262 -0.1178  0.1408 -0.0405
62859W        W 5912   3.435  21.746   8.716  0.0497  0.1856 -0.1562
62860W        W 5913  23.442  14.944   0.762  0.5076 -0.0319  0.3340
62861W        W 5914   7.661  10.724  10.086  0.2531  0.1255 -0.1588
62862W        W 5915  18.814  11.604   7.430  0.1253  0.0629 -0.1048
62863W        W 5916  12.436  15.068   5.506 -0.3543 -0.0903 -0.1329
62864W        W 5917  23.638  19.706  19.435 -0.1053 -0.1022 -0.1548
62865W        W 5918   7.166  33.369  10.843 -0.0880  0.2906  0.2018
62866W        W 5919  31.332   3.832   8.381 -0.0570 -0.1139  0.3701
62867W        W 5920  32.838  15.990   6.048  0.1478 -0.0646 -0.1778
62868W        W 5921  22.500  22.569   9.060  0.2799 -0.0612 -0.1705
62869W        W 5922   2.137  29.131   1.361  0.0005  0.1119  0.1051
62870W        W 5923  32.110   5.589   9.296  0.0954 -0.2198  0.1454
62871W        W 5924   5.547  20.205   4.379 -0.1244  0.1453  0.2163
62872W        W 5925  31.480  17.449   6.181 -0.2745  0.3447  0.0585
62873W        W 5926  27.027  23.486  24.250 -0.1502  0.0190  0.0166
62874W        W 5927  11.903  29.034   1.622  0.0659 -0.3208  0.2523
62875W        W 5928   8.709   2.961  28.509  0.0991 -0.2781 -0.1139
62876W        W 5929   8.433  21.648   4.343 -0.0520 -0.1504  0.2578
62877W        W 5930  16.512  15.104   9.385 -0.1463 -0.0880  0.3961
62878W        W 5931  29.521  13.749   6.282  0.2780  0.5198  0.1330
62879W        W 5932  30.073  21.012  20.403 -0.3259  0.0182  0.3547
62880W        W 5933   3.450  12.267   2.445 -0.0561 -0.2401  0.1007
62881W        W 5934   0.956   7.637   3.290 -0.1874  0.0353 -0.1240
62882W        W 5935   5.287  16.509   6.370 -0.1121 -0.2725 -0.0837
62883W        W 5936   2.174  16.070  21.983 -0.0137 -0.2397  0.2176
62884W        W 5937   0.239  15.859  27.548  0.0035  0.1775 -0.0696
62885W        W 5938   2.482  30.509   6.695 -0.0567  0.1455  0.2675
62886W        W 5939  32.268  10.814   8.877 -0.2543  0.3858  0.1924
62887W        W 5940  10.482   2.895  24.260  0.0053  0.1697  0.1108
62888W        W 5941   2.820  29.211   2.166 -0.3521 -0.3329 -0.0327
62889W        W 5942  20.917  34.506   6.951 -0.2254  0.3181  0.0477
62890W        W 5943   1.317  33.314   9.425 -0.1638 -0.1420 -0.0118
62891W        W 5944  27.592  21.830  26.191  0.2381  0.0798  0.2138
62892W        W 5945  34.361  18.314  13.900  0.0133  0.0881 -0.3377
62893W        W 5946  11.218   0.067   8.049 -0.0787  0.1802 -0.1449
62894W        W 5947  17.799  23.855   7.033 -0.1351  0.0280 -0.0100
62895W        W 5948  26.020  16.638   0.168  0.0142  0.2599  0.0193
62896W        W 5949  22.913  18.209   5.030  0.0858 -0.0800  0.3671
62897W        W 5950   3.783  30.252  19.188 -0.2842 -0.2861  0.1425
62898W        W 5951  27.837  33.920  26.403 -0.1124 -0.1114  0.1788
62899W        W 5952  32.553  33.660   8.070  0.0590  0.1833 -0.0752
62900W        W 5953  27.031  14.404   1.695 -0.0650 -0.0325  0.1575
62901W        W 5954   3.166  22.919   7.988  0.0905  0.1960 -0.1577
62902W        W 5955  18.047  21.646  19.441  0.1602 -0.0728  0.0100
62903W        W 5956   7.978  24.047   8.520  0.3092 -0.0386  0.1100
62904W        W 5957  26.991  19.750  26.441 -0.0435 -0.0074  0.1149
62905W        W 5958  10.376   6.097   1.881  0.0038 -0.1611  0.1816
62906W        W 5959   3.474  23.369   9.324  0.2071  0.0024  0.0469
62907W        W 5960   9.408  25.239   4.605 -0.0658 -0.0017  0.1780
62908W        W 5961  15.110  23.621   8.491 -0.2284  0.0226 -0.0330
62909W        W 5962  10.764  25.846   9.151 -0.0237  0.3788 -0.1669
62910W        W 5963   6.269  32.904  21.368  0.2392  0.2104 -0.2284
62911W        W 5964  29.462  26.357   4.303 -0.0087 -0.1111 -0.0717
62912W        W 5965  25.931  20.978  23.171 -0.2305 -0.0902 -0.0450
62913W        W 5966   6.664   5.961  28.803 -0.3616  0.1005 -0.1426
62914W        W 5967  30.936  22.145   6.777 -0.1131 -0.2669  0.2619
62915W        W 5968  31.938  33.895   3.611 -0.1876  0.0642  0.2367
62916W        W 5969   1.669  14.826   6.265 -0.3160 -0.1176  0.2420
62917W        W 5970  28.055  17.821   7.140 -0.1433 -0.0810  0.0062
62918W        W 5971  29.955  19.434  28.637  0.1303 -0.4273 -0.0518
62919W        W 5972  33.568  30.159  25.817 -0.4742  0.0550  0.0503
62920W        W 5973  27.309  26.791  28.547 -0.1199 -0.0197 -0.0105
62921W        W 5974  21.515  28.178  26.257  0.0438  0.1412  0.0954
62922W        W 5975  16.791  13.394   6.791 -0.2326  0.1485  0.0084
62923W        W 5976  31.607  27.533   7.440  0.0253 -0.2201 -0.1648
62924W        W 5977   3.923  13.740   5.787 -0.0344 -0.0467 -0.2745
62925W        W 5978   2.318  26.507   6.565 -0.1555  0.0869 -0.1927
62926W        W 5979   2.079  12.655  27.684 -0.4565 -0.1431  0.1386
62927W        W 5980   9.959  18.157   0.251 -0.3345  0.3439 -0.2473
62928W        W 5981   3.606  12.713  15.642 -0.0086 -0.1020  0.1043
62929W        W 5982  23.340   1.805   9.779  0.0198  0.0404 -0.0170
62930W        W 5983   3.436   2.093   2.077  0.5538 -0.1568  0.1140
62931W        W 5984   9.145  17.377   6.745 -0.1066  0.0859  0.1788
62932W        W 5985  19.550  29.144  28.014 -0.2272  0.0235 -0.1545
62933W        W 5986   7.169  31.980  29.080  0.2810 -0.1892 -0.1785
62934W        W 5987  23.137  32.441   7.594 -0.1198  0.2418 -0.0538
62935W        W 5988   5.951   5.105  26.969 -0.1494 -0.3440  0.0360
62936W        W 5989   1.164  19.269   3.258  0.1110 -0.0070 -0.1775
62937W        W 5990   9.337  27.507   3.975 -0.0143  0.1074  0.0427
62938W        W 5991  28.220  24.896   5.375 -0.0462 -0.0094 -0.0050
62939W        W 5992  30.435  18.980   1.411  0.0588 -0.0089  0.2079
62940W        W 5993   0.579   5.639   2.684 -0.5967 -0.0860  0.1092
62941W        W 5994   6.403  31.723  17.361 -0.1800  0.0070 -0.1939
62942W        W 5995  12.829   7.099  25.386  0.0798 -0.3421 -0.1209
62943W        W 5996   5.380   3.818   3.636 -0.1764 -0.3574 -0.1779
62944W        W 5997  30.855  16.757  25.758 -0.2931  0.0707 -0.1601
62945W        W 5998  28.236  27.124   4.430  0.2305 -0.0684 -0.3520
62946W        W 5999  11.664   6.439  27.940 -0.0151  0.2018 -0.0106
62947W        W 6000   0.385  27.138   6.810  0.1225 -0.2464  0.2664
62948W        W 6001  26.954  14.188  22.927  0.3840  0.0602 -0.1445
62949W        W 6002   4.866   6.058   2.825 -0.2593 -0.0920  0.1705
62950W        W 6003  10.374  32.375   5.307 -0.0039  0.0229 -0.2238
62951W        W 6004   4.423  31.376   7.786 -0.1086  0.0641  0.3014
62952W        W 6005  22.487  28.373   2.336 -0.0504 -0.2256  0.2056
62953W        W 6006  29.561  17.637   8.371 -0.1295 -0.1846 -0.2173
62954W        W 6007  13.591  20.114   7.918 -0.3597  0.0457 -0.3063
62955W        W 6008   9.868  12.666   7.778 -0.2694  0.0584  0.3982
62956W        W 6009  34.556  17.044  20.239 -0.0983  0.1643 -0.0405
62957W        W 6010   2.716  27.123  28.890 -0.0988 -0.0739 -0.2914
62958W        W 6011   0.852  16.599  23.563  0.1257 -0.0595  0.1223
62959W        W 6012   2.561  23.109  26.708 -0.3757 -0.1001 -0.1088
62960W        W 6013  29.201  14.288   6.902  0.2330 -0.2486  0.1907
62961W        W 6014   0.584  14.757   0.119 -0.1800 -0.0403 -0.3671
62962W        W 6015   9.857  20.027   9.512 -0.2391  0.0821 -0.0515
62963W        W 6016   7.933  17.278   6.076  0.0146  0.3022  0.0042
62964W        W 6017   1.077  23.710   7.947  0.0153  0.0473  0.0511
62965W        W 6018   8.318  33.154  24.938  0.2886  0.0209 -0.0549
62966W        W 6019   8.426  21.470   2.640 -0.0865  0.3287 -0.1340
62967W        W 6020   3.398  15.033  20.317  0.0563 -0.2640 -0.1740
62968W        W 6021  34.342  31.082   8.865  0.1979 -0.0578 -0.0337
62969W        W 6022  21.693  34.039   7.290 -0.1496 -0.0638  0.0049
62970W        W 6023   3.594  34.356  25.846 -0.1090 -0.2513 -0.4855
62971W        W 6024   0.191   9.798  21.089 -0.2025 -0.1837  0.0397
62972W        W 6025  33.318   6.016   4.281 -0.0762 -0.1727 -0.0526
62973W        W 6026   3.759  18.567   8.982  0.0371 -0.2693  0.0024
62974W        W 6027  28.676  11.428  28.558 -0.2662 -0.1968 -0.1742
62975W        W 6028  13.827  31.307  25.451  0.1026  0.0333 -0.2121
62976W        W 6029   7.997  32.280  28.319 -0.0074 -0.0025  0.2284
62977W        W 6030  31.799  31.557  26.606  0.1086 -0.2032  0.0372
62978W        W 6031  18.072  16.022   9.084 -0.0536  0.0615  0.2417
62979W        W 6032  32.789  11.048  10.937 -0.1865 -0.3335  0.0212
62980W        W 6033  29.129   3.335   8.928 -0.0472  0.1124 -0.1107
62981W        W 6034  33.468  28.987   2.002 -0.2152  0.0851  0.0737
62982W        W 6035  33.342  24.659   4.151 -0.0620  0.0237  0.1848
62983W        W 6036  28.096  19.439   6.611  0.0809  0.1683 -0.0659
62984W        W 6037  33.425  17.464  26.525  0.0323 -0.0323  0.0681
62985W        W 6038   7.401  21.709   9.766  0.1354  0.2052 -0.4322
62986W        W 6039  33.266  33.643   3.169 -0.0880 -0.0374  0.0508
62987W        W 6040   2.753  34.572   1.154  0.1431 -0.0639 -0.0564
62988W        W 6041  26.810  24.876  28.282  0.0667  0.1634 -0.1537
62989W        W 6042  32.133  24.912   8.173 -0.1057  0.1105 -0.2641
62990W        W 6043  19.688  15.753  27.995  0.0571  0.2846 -0.1435
62991W        W 6044   5.577  10.555  28.083 -0.0963 -0.1089  0.0690
62992W        W 6045   7.096  18.796   3.596 -0.2670  0.0498  0.2537
62993W        W 6046  16.716  12.251  28.288 -0.0272  0.3259 -0.1064
62994W        W 6047   6.988   1.807   3.319 -0.0663  0.0810 -0.1163
62995W        W 6048   7.753  20.268  28.529  0.0142 -0.1940 -0.0646
62996W        W 6049   8.054  29.435  29.162  0.2649  0.1315 -0.2613
62997W        W 6050  25.538   7.794   3.484  0.0533  0.0251  0.3310
62998W        W 6051  29.831  30.724   5.525 -0.1226 -0.0366  0.1219
62999W        W 6052  33.261  30.234   8.907  0.0202 -0.0800 -0.0527
63000W        W 6053  34.358  26.612  28.810  0.0255 -0.0080  0.1141
63001W        W 6054   5.388  23.216   1.615  0.1530  0.1060  0.2479
63002W        W 6055  26.126  10.905  17.041 -0.1970  0.3280  0.2096
63003W        W 6056   0.519  21.706   5.744  0.0893  0.2448  0.0988
63004W        W 6057   5.994  29.576  27.292  0.1311  0.3214  0.5279
63005W        W 6058   6.603   8.252   1.706  0.0118  0.2456 -0.0477
63006W        W 6059  30.626  16.982  24.603 -0.1182 -0.1035  0.2543
63007W        W 6060  21.501   4.719   8.693  0.0749  0.0722 -0.2125
63008W        W 6061  30.039  20.390   7.632  0.2404 -0.1163  0.3817
63009W        W 6062  17.774  14.699   6.976 -0.1889 -0.0278 -0.0799
63010W        W 6063   8.981  10.815   6.231 -0.0802  0.1319 -0.1252
63011W        W 6064   6.782  28.885  26.049 -0.0607 -0.1029 -0.3478
63012W        W 6065   2.048  12.734  28.567  0.1446 -0.1132 -0.2643
63013W        W 6066  34.645  17.766   5.873 -0.1130 -0.4377  0.0984
63014W        W 6067  15.181  12.687  24.887  0.2524  0.2125  0.0177
63015W        W 6068   3.319  21.674   4.675 -0.0674  0.1347 -0.2165
63016W        W 6069   8.569  17.115  16.713 -0.0136  0.0613 -0.0175
63017W        W 6070  15.643   4.786   6.688  0.1391 -0.3305  0.2109
63018W        W 6071  31.102  11.594   5.615 -0.0239 -0.2025 -0.0663
63019W        W 6072  12.869  29.343   1.732  0.0420  0.0874  0.0603
63020W        W 6073   9.018  30.709  23.946 -0.0595  0.1743 -0.0549
63021W        W 6074  33.437  23.414   7.020  0.2397 -0.0702  0.3898
63022W        W 6075  32.908   1.165   4.998 -0.1361 -0.4550 -0.1937
63023W        W 6076   8.683  11.812  25.828  0.2887  0.1300 -0.4275
63024W        W 6077  25.239  20.912   8.074  0.0269 -0.2344  0.2687
63025W        W 6078  31.020  21.115   6.573  0.1251  0.3438 -0.0557
63026W        W 6079  29.563  30.897   0.771  0.0952  0.0514  0.1733
63027W        W 6080  15.225   5.687   3.585  0.1024 -0.0360 -0.0374
63028W        W 6081   5.388  22.337   6.758 -0.2939 -0.0862  0.2097
63029W        W 6082  23.860  15.591   2.726 -0.0907 -0.0018  0.0464
63030W        W 6083  33.935  21.220   2.143  0.0128 -0.1107 -0.0349
63031W        W 6084   9.407  30.090   4.993  0.0171 -0.0260  0.0210
63032W        W 6085  21.402  27.537   4.172 -0.1538 -0.0888  0.1970
63033W        W 6086  14.143  21.569  29.176 -0.0731  0.1009 -0.2841
63034W        W 6087   1.052   8.140  22.391  0.0285  0.2539 -0.2222
63035W        W 6088   5.632  21.506   8.483  0.1002 -0.5280  0.0687
63036W        W 6089  34.559  16.611   2.983  0.2201 -0.0701  0.0981
63037W        W 6090  25.930  27.310  24.255  0.0464 -0.0351  0.2496
63038W        W 6091  29.852  12.505  20.698  0.1441  0.0043  0.0839
63039W        W 6092   2.316  33.684   2.390  0.0151 -0.0630  0.5307
63040W        W 6093   1.116  28.501   5.156  0.1610 -0.1564 -0.0298
63041W        W 6094  11.741  28.364  27.385 -0.1016 -0.1062 -0.0005
63042W        W 6095  29.668  20.893   9.570 -0.1206 -0.0772 -0.4117
63043W        W 6096  13.698  13.984   1.859  0.4061  0.1503 -0.1711
63044W        W 6097   8.722  30.853   6.812  0.1875 -0.1569  0.1054
63045W        W 6098  19.182  18.558   5.018  0.0259  0.2798  0.0159
63046W        W 6099  17.107  20.787  22.701 -0.0059  0.4239  0.0639
63047W        W 6100   9.530  10.714   5.066 -0.3553 -0.2375  0.4850
63048W        W 6101  15.929  18.237   8.262  0.0704 -0.2028 -0.1280
63049W        W 6102  12.839  14.165   4.759  0.1759 -0.2758 -0.0570
63050W        W 6103  29.408  27.307   4.221 -0.1717 -0.2682  0.0892
63051W        W 6104  26.198  21.646  22.491 -0.1067  0.0950 -0.1127
63052W        W 6105  32.516  11.742  23.582 -0.3548  0.1127  0.0948
63053W        W 6106   6.117  10.098  28.672 -0.1654  0.3193 -0.1074
63054W        W 6107   6.976  24.377   4.364 -0.1090 -0.6215  0.2255
63055W        W 6108  27.058  18.815   8.941  0.2026 -0.1210  0.1756
63056W        W 6109  32.266   2.889  25.386 -0.2001  0.2908  0.3044
63057W        W 6110   4.308   9.818   6.386  0.2904  0.1987 -0.2558
63058W        W 6111   3.927  26.768   5.104 -0.1865  0.0579 -0.0161
63059W        W 6112  25.226  20.006   9.782  0.0933  0.2006 -0.0752
63060W        W 6113   5.743  31.463   8.096  0.0022 -0.1722  0.0963
63061W        W 6114   0.604  23.756   4.599  0.1585  0.0311  0.0842
63062W        W 6115   6.208  30.561  27.143 -0.0269  0.2856  0.5282
63063W        W 6116  33.370  25.224  27.558 -0.2853 -0.2087 -0.0680
63064W        W 6117   2.026  26.955   3.885 -0.4033 -0.2106 -0.0505
63065W        W 6118  12.637  20.367  23.033  0.2417  0.0415 -0.2017
63066W        W 6119   5.136  27.662   7.319  0.1877  0.2913 -0.0527
63067W        W 6120  21.795  29.251  25.475  0.0191 -0.0451  0.0789
63068W        W 6121  31.604  20.220   6.398  0.0163  0.1975 -0.0616
63069W        W 6122  19.083  34.634   1.975  0.1580 -0.1371 -0.0315
63070W        W 6123  28.139  21.448  28.976  0.0003  0.2138  0.2880
63071W        W 6124  29.745   0.541  21.759  0.1489  0.1335 -0.1692
63072W        W 6125  25.575  11.184   2.801 -0.2198 -0.0206 -0.5422
63073W        W 6126  19.467  30.923   5.733  0.2751  0.3033 -0.0439
63074W        W 6127  31.608  26.962  24.424  0.1740  0.2731 -0.0046
63075W        W 6128  33.299   7.951   7.158 -0.1061  0.2568 -0.0609
63076W        W 6129  22.746  21.988  29.072 -0.0481  0.0101 -0.0673
63077W        W 6130   2.609  34.081  27.451  0.3537  0.1717 -0.2129
63078W        W 6131  24.749  22.113  19.282  0.3374  0.4067 -0.0878
63079W        W 6132  32.819  24.006  23.092  0.1087 -0.0513 -0.1355
63080W        W 6133  23.207  14.044  22.461 -0.2130 -0.1082  0.1332
63081W        W 6134   9.279  25.573  25.989 -0.1084  0.1602 -0.0136
63082W        W 6135   6.399  25.228   4.927 -0.2710 -0.0833 -0.0125
63083W        W 6136  15.728  30.927   8.969  0.0541 -0.2100  0.0068
63084W        W 6137   2.711  34.318  20.910 -0.2211  0.1333  0.1866
63085W        W 6138   8.129  31.703   1.952 -0.1337  0.1123 -0.0158
63086W        W 6139   3.934  27.779  17.929  0.2809 -0.0014 -0.1145
63087W        W 6140  14.060  27.492   4.860  0.4364 -0.0952  0.0478
63088W        W 6141  28.328  17.489   3.691  0.0427 -0.1617 -0.0948
63089W        W 6142  18.704   8.735   7.175 -0.1691  0.0247  0.1237
63090W        W 6143  11.579   5.330   2.584  0.1605 -0.0874 -0.3577
63091W        W 6144   1.857  27.553  28.939  0.0516  0.0768  0.1137
63092W        W 6145  28.516  10.799   8.540  0.0367  0.1457  0.0483
63093W        W 6146  29.990  31.868   8.124 -0.1007 -0.0386  0.1926
63094W        W 6147  30.868  18.017   6.940  0.1931 -0.1563  0.0727
63095W        W 6148  29.212  19.352   9.043  0.2115 -0.1415 -0.1469
63096W        W 6149  34.345  23.833  26.214 -0.0900  0.0027 -0.4155
63097W        W 6150  12.129  34.581   8.627 -0.2078 -0.1152  0.0202
63098W        W 6151   5.801  15.056  28.630  0.2557 -0.0289  0.0831
63099W        W 6152  10.661  13.914   2.460  0.0186  0.0509 -0.2895
63100W        W 6153   6.555  20.215   3.508  0.0491 -0.0782 -0.3173
63101W        W 6154  13.902  23.182   1.119 -0.1717 -0.3662 -0.1642
63102W        W 6155  10.648  24.076   6.691  0.0712  0.0023 -0.0615
63103W        W 6156  23.942  11.236   5.614  0.0627  0.2615  0.1735
63104W        W 6157   0.055  21.957   3.478 -0.1884 -0.3972  0.2017
63105W        W 6158  26.740  20.683  23.475 -0.1896 -0.0272  0.2307
63106W        W 6159  30.304  23.543   7.310  0.1482  0.0183 -0.0769
63107W        W 6160   5.017  15.191  23.510 -0.0851  0.0242  0.3712
63108W        W 6161   2.042   4.787   0.006 -0.2800  0.4812  0.1908
63109W        W 6162  10.105  13.812   5.478 -0.0597  0.1399 -0.1319
63110W        W 6163   1.481   2.550   1.968 -0.0722 -0.0366  0.2621
63111W        W 6164  24.327  19.796   8.655 -0.2046  0.4485  0.0828
63112W        W 6165  25.342   0.847   9.323  0.0831  0.1905 -0.2258
63113W        W 6166  28.247  27.315  22.698 -0.0633 -0.1265 -0.0946
63114W        W 6167   6.708  32.853   6.119 -0.0819 -0.2079 -0.0828
63115W        W 6168  26.200  27.846   5.907  0.0847  0.1790  0.2006
63116W        W 6169   1.427  31.383  19.640  0.1303 -0.0765  0.0282
63117W        W 6170  25.499  20.493  23.091 -0.0893 -0.2458  0.1889
63118W        W 6171  32.937  23.520   6.859  0.1776  0.0806  0.0289
63119W        W 6172  19.391  24.961   5.926 -0.2128  0.0809 -0.0653
63120W        W 6173  18.489  12.716   8.175  0.0762  0.0872  0.0797
63121W        W 6174  30.218  30.041  25.889  0.0456  0.0442  0.1268
63122W        W 6175   9.986  30.324   2.426 -0.0650 -0.6131  0.1547
63123W        W 6176   9.765  26.500  20.606 -0.0070 -0.1981 -0.0615
63124W        W 6177  32.043  17.173  18.054  0.1159  0.1517  0.0680
63125W        W 6178  24.541  22.276  10.463 -0.2778 -0.4116 -0.1536
63126W        W 6179  30.064  33.695   6.516 -0.1129 -0.1260  0.0681
63127W        W 6180   0.988  16.490   0.903 -0.0005  0.0883 -0.0085
63128W        W 6181   3.030  23.650   6.647  0.2075 -0.0490  0.1950
63129W        W 6182  29.398  30.573   5.344  0.2555 -0.2632 -0.1032
63130W        W 6183   1.151  28.467   8.515 -0.0914  0.1863 -0.2587
63131W        W 6184   1.304  26.201   4.629  0.0757 -0.0962 -0.5458
63132W        W 6185   2.170   8.114   4.505 -0.2729  0.1013 -0.3944
63133W        W 6186  23.621  13.806   5.783 -0.1052  0.2118  0.1064
63134W        W 6187  29.245  21.208   1.698  0.4607 -0.0771  0.2612
63135W        W 6188   1.640  17.144   9.184 -0.0940 -0.0191 -0.1594
63136W        W 6189   2.552  25.381   5.789  0.4364 -0.1003  0.1976
63137W        W 6190  14.854  32.074   5.685 -0.1887 -0.2241 -0.0900
63138W        W 6191   3.559  31.577  27.097  0.0904  0.1335 -0.1185
63139W        W 6192   1.313  21.198  28.445  0.1610  0.3229  0.1178
63140W        W 6193   8.004   0.814  10.623 -0.0593  0.1069 -0.1743
63141W        W 6194  10.793  29.843   2.861  0.1282  0.4286 -0.4197
63142W        W 6195  31.353  11.134   7.913  0.2015 -0.0835  0.2170
63143W        W 6196   2.807  24.841   8.887 -0.4610 -0.0709  0.3092
63144W        W 6197  12.368  15.045   7.436 -0.2691  0.0427 -0.1810
63145W        W 6198   6.835  13.346   9.047  0.0941 -0.0672 -0.1978
63146W        W 6199   1.197  10.724  24.666 -0.2211 -0.0418 -0.4227
63147W        W 6200  10.901   0.438   4.127 -0.3321 -0.0682 -0.0074
63148W        W 6201  20.738  18.514   2.239 -0.1710 -0.0399  0.3681
63149W        W 6202  12.396  20.393  28.433  0.1974 -0.1054 -0.0379
63150W        W 6203   5.801  23.501   5.586  0.0394 -0.1863  0.0958
63151W        W 6204  17.501  22.485  28.084  0.1117  0.2036  0.0944
63152W        W 6205  15.406   9.799  20.123  0.1892  0.0652  0.1513
63153W        W 6206  32.922  27.855   8.943  0.2216 -0.1855 -0.0112
63154W        W 6207  31.544  12.593   9.100  0.0736 -0.1418  0.0438
63155W        W 6208  32.980   5.474  19.411 -0.2187  0.0361 -0.1119
63156W        W 6209  33.668  13.798  24.667  0.0224  0.0358 -0.3310
63157W        W 6210   7.644  13.450  10.538  0.2177 -0.0489 -0.1447
63158W        W 6211   8.455  25.113  27.859  0.0905  0.1996 -0.0130
63159W        W 6212  10.650  16.862   7.728 -0.0581 -0.0757  0.1061
63160W        W 6213   4.319  26.815   7.484  0.1968  0.1862 -0.2134
63161W        W 6214  28.445  21.816   9.238 -0.1708  0.1029 -0.2134
63162W        W 6215  15.584   7.719  10.889  0.1765 -0.1340 -0.0021
63163W        W 6216  25.257  10.051  25.111 -0.4214 -0.1333  0.0231
63164W        W 6217  27.269  31.305   7.388 -0.3922  0.1768 -0.0694
63165W        W 6218  10.351  30.509   8.042  0.1312  0.1188 -0.2560
63166W        W 6219  25.960   7.287   5.504  0.4255 -0.0317  0.1353
63167W        W 6220   9.255  19.716   3.995  0.1729  0.1063  0.1646
63168W        W 6221   9.096   9.813   2.165 -0.2684  0.0511 -0.2823
63169W        W 6222   9.318  27.046  24.620  0.0286  0.1367 -0.1914
63170W        W 6223   9.185  31.462   2.840  0.0819  0.2447 -0.0227
63171W        W 6224   2.774  20.822   4.665  0.5103 -0.0715  0.1752
63172W        W 6225  31.905   7.624  21.552 -0.0141 -0.0428  0.3220
63173W        W 6226   6.254  16.168   8.952 -0.1443 -0.2515 -0.2431
63174W        W 6227  27.416  13.575   7.453 -0.0006  0.0613 -0.1928
63175W        W 6228   8.334  12.192   6.869 -0.1107  0.1450  0.1014
63176W        W 6229  32.228  32.197   3.737 -0.1696 -0.0328 -0.1130
63177W        W 6230  23.479  32.536  24.944 -0.0035 -0.0843 -0.2106
63178W        W 6231  29.656  14.800  28.414 -0.1820 -0.3327 -0.1713
63179W        W 6232  20.288  13.854   0.256 -0.0575 -0.2552  0.0736
63180W        W 6233  24.221  31.311   3.578 -0.1006 -0.1397 -0.1154
63181W        W 6234   2.888   1.336   7.064 -0.1063  0.0411  0.3454
63182W        W 6235  24.001  24.979  10.057  0.2144  0.2528 -0.0624
63183W        W 6236   7.748  21.573   6.211  0.1123  0.3909 -0.2134
63184W        W 6237  11.943  30.654   2.898 -0.0624 -0.0864  0.0936
63185W        W 6238  25.914  31.773  22.735 -0.0546  0.1047  0.1795
63186W        W 6239  18.789  21.987   3.677 -0.1974 -0.3032 -0.1083
63187W        W 6240  15.404  17.363   0.313 -0.0613 -0.0699  0.0582
63188W        W 6241  30.343   2.049   6.331  0.1495 -0.2577  0.1524
63189W        W 6242  32.753  13.011  22.703 -0.0578 -0.0300  0.1509
63190W        W 6243  31.569  32.832   3.924 -0.3546 -0.2087 -0.0659
63191W        W 6244  10.878  10.690  24.257 -0.1573 -0.0278  0.0495
63192W        W 6245   7.265  33.357   1.961 -0.1678 -0.0435  0.3667
63193W        W 6246  32.432  10.865  28.048 -0.2168  0.2902 -0.2283
63194W        W 6247  32.127  14.106  23.398 -0.1331 -0.2349 -0.0372
63195W        W 6248   6.621  26.995   6.326  0.4925  0.0792 -0.0331
63196W        W 6249  29.132  26.432  19.339 -0.0874  0.2159 -0.2860
63197W        W 6250   8.849  19.944   6.427  0.0301 -0.4021  0.0683
63198W        W 6251  32.228  23.674   7.156  0.0411 -0.0794  0.1388
63199W        W 6252  28.144   5.069   2.665 -0.4890 -0.0574 -0.0395
63200W        W 6253   3.248  12.171  27.464 -0.0382 -0.0059  0.2765
63201W        W 6254   6.871   0.642  24.830 -0.0177  0.4549 -0.3629
63202W        W 6255   6.888  23.011   3.839  0.1125  0.2314 -0.0343
63203W        W 6256  25.806  23.887   0.261 -0.0256 -0.3039  0.0933
63204W        W 6257   2.710  24.748   0.600 -0.0858 -0.2118  0.0192
63205W        W 6258  31.334   4.274  17.285 -0.1829 -0.3105  0.0675
63206W        W 6259   4.890  31.679   4.453 -0.0753 -0.2991 -0.3638
63207W        W 6260   7.212  17.676   0.615 -0.1684 -0.0316  0.1579
63208W        W 6261  17.964  24.783  29.060 -0.2388 -0.0620 -0.0365
63209W        W 6262  29.396  14.393  19.406 -0.0847  0.0101  0.0738
63210W        W 6263  26.456  23.187   5.731 -0.3319  0.0497 -0.1197
63211W        W 6264   8.549  27.869   2.479 -0.0905 -0.0283 -0.0691
63212W        W 6265  24.150  29.664   6.692  0.0027 -0.0479 -0.0237
63213W        W 6266  12.985  31.393  10.243  0.0774 -0.0889  0.2458
63214W        W 6267  18.171  23.529   3.222  0.3255  0.0518  0.1688
63215W        W 6268  29.732  28.419  27.308  0.2763 -0.1806 -0.0177
63216W        W 6269  32.606  24.385   1.940  0.3008 -0.0001 -0.0338
63217W        W 6270   5.254   6.892   8.333  0.0866 -0.3272  0.0188
63218W        W 6271  34.282  34.292  27.421 -0.0507 -0.3449  0.0036
63219W        W 6272  10.794   4.614   6.551  0.0575  0.2053  0.0787
63220W        W 6273   6.578  18.211   6.228  0.1030 -0.0221  0.2516
63221W        W 6274  33.183  29.051   7.951 -0.0494 -0.2965  0.1885
63222W        W 6275  30.683  17.991  24.367 -0.1134  0.0609  0.1230
63223W        W 6276  18.021   5.987  29.080 -0.2003  0.1643 -0.0208
63224W        W 6277  24.432  20.000  27.063 -0.0127 -0.0439  0.1914
63225W        W 6278  34.166  31.450  19.079 -0.2340  0.0667 -0.0246
63226W        W 6279  34.069   5.368   3.961  0.1549 -0.1171 -0.0123
63227W        W 6280  31.882   9.480   6.715 -0.1162 -0.1867 -0.2158
63228W        W 6281  32.581  26.496  24.877  0.0471  0.4683 -0.2175
63229W        W 6282   5.594  11.672  25.213  0.4055 -0.1093 -0.1793
63230W        W 6283   8.803  22.838   0.639  0.0385  0.0966  0.1819
63231W        W 6284   0.508  30.868   9.816  0.2456 -0.1108  0.1078
63232W        W 6285   5.109  23.337  27.866  0.2901 -0.0203 -0.2221
63233W        W 6286   5.103  17.279  26.238 -0.2631 -0.1023 -0.1163
63234W        W 6287  32.374  31.920  22.334 -0.0159 -0.1594  0.0910
63235W        W 6288   7.393   5.050  10.040 -0.3232 -0.3548  0.1511
63236W        W 6289  29.764  29.489   0.537  0.0439  0.0163  0.0294
63237W        W 6290  22.227  25.348  20.433 -0.2627  0.1438 -0.0697
63238W        W 6291  27.657  28.382   1.145  0.1574  0.0435 -0.3231
63239W        W 6292  17.307  29.800   2.572  0.1146 -0.0973  0.3811
63240W        W 6293  27.300  21.057  16.323 -0.0616 -0.2080 -0.1057
63241W        W 6294  21.436   9.266  24.046 -0.1089  0.3766 -0.2995
63242W        W 6295  29.635  34.276  25.815 -0.0654  0.0292 -0.1859
63243W        W 6296   8.017  21.248   2.581  0.0440 -0.4334  0.0902
63244W        W 6297  15.151  24.746  26.099  0.0670  0.0497 -0.0169
63245W        W 6298  11.482  32.093  23.004 -0.2556 -0.3227  0.1357
63246W        W 6299  24.894  33.834   7.447  0.1327 -0.1947 -0.1789
63247W        W 6300  10.947  31.350  22.318 -0.0491  0.2536 -0.0593
63248W        W 6301   3.368  33.780  28.867 -0.1616 -0.1796  0.3227
63249W        W 6302  34.442   9.830   6.488 -0.3773  0.2087  0.1411
63250W        W 6303  23.334  24.609   7.416 -0.0218 -0.3166 -0.0854
63251W        W 6304  17.369  27.997  28.573  0.0469  0.1232 -0.1640
63252W        W 6305   1.352  17.242   8.809 -0.1245 -0.1644  0.0350
63253W        W 6306   6.267  31.495   2.884  0.0662 -0.0248  0.2207
63254W        W 6307   6.250   8.540   9.625  0.1936 -0.0373 -0.1141
63255W        W 6308   2.755  21.401  27.576 -0.0656 -0.1285  0.0490
63256W        W 6309  15.039  31.240  27.982  0.0654  0.0539 -0.0978
63257W        W 6310  26.426  10.109   4.241  0.1174 -0.2859 -0.0563
63258W        W 6311   0.068   7.297  28.603  0.2472 -0.0892 -0.2324
63259W        W 6312   4.678  30.223   8.445  0.1401  0.0114  0.0296
63260W        W 6313  32.789  24.864  21.812  0.0936  0.1229 -0.1619
63261W        W 6314   8.104   3.460   1.909  0.2174 -0.0168 -0.2786
63262W        W 6315   2.214  23.053   9.050 -0.0704 -0.3263 -0.1975
63263W        W 6316  33.169  30.928   4.699  0.1681  0.1355  0.0606
63264W        W 6317  34.639  19.332   4.591 -0.0718 -0.0327 -0.2129
63265W        W 6318  32.645  28.927   4.368  0.2230  0.3410  0.0197
63266W        W 6319   1.480  24.288   4.117 -0.0563 -0.0502  0.0093
63267W        W 6320  16.107  32.190  22.670 -0.0513 -0.2232 -0.2348
63268W        W 6321  19.311  14.154   9.944 -0.0943 -0.0700  0.4383
63269W        W 6322   7.947  29.961   7.345 -0.0645 -0.1016  0.2613
63270W        W 6323  32.381  31.304  18.543 -0.0989  0.4309 -0.2160
63271W        W 6324  22.783   1.841   9.221 -0.0665  0.3446  0.1586
63272W        W 6325  20.188  27.296   7.637 -0.0421 -0.1480  0.1648
63273W        W 6326  27.129   3.805  14.921 -0.1843 -0.2296 -0.1460
63274W        W 6327  24.278   0.343   7.436  0.0112  0.2946 -0.0541
63275W        W 6328   4.933  18.491  19.857  0.2694 -0.0345  0.3158
63276W        W 6329  31.828  31.820  25.833 -0.0817 -0.0284 -0.0318
63277W        W 6330  19.460  27.180   4.552  0.0061 -0.1563  0.0323
63278W        W 6331  33.555   8.934   8.625 -0.2887 -0.0289 -0.1196
63279W        W 6332  27.990   2.200  28.941  0.0069  0.0093  0.1653
63280W        W 6333   7.843  27.068   3.063 -0.1207  0.0458  0.3707
63281W        W 6334  23.226  33.688   0.896 -0.0959 -0.1287  0.2870
63282W        W 6335  15.939  13.278   6.604  0.1529  0.1669 -0.0583
63283W        W 6336  14.563  24.849  23.459  0.0209  0.2049 -0.1823
63284W        W 6337  10.987  18.123   0.944 -0.1191 -0.0437  0.1052
63285W        W 6338  28.701   0.085  26.729 -0.1106 -0.0092  0.0026
63286W        W 6339   4.373  22.267  25.133 -0.0910  0.0710  0.0822
63287W        W 6340  17.981  17.290   9.129 -0.1171 -0.0521  0.0841
63288W        W 6341   4.341  14.164  23.626 -0.0805  0.1739 -0.0554
63289W        W 6342  28.264  16.667  25.107 -0.0298 -0.1126 -0.0577
63290W        W 6343   3.950  11.882  19.539 -0.0248  0.2495 -0.2875
63291W        W 6344   1.149  14.238  23.584 -0.1130  0.1183 -0.2807
63292W        W 6345  26.627   0.587  17.735  0.2202 -0.0093 -0.0397
63293W        W 6346  30.141  24.325   2.364  0.0904  0.2024 -0.5067
63294W        W 6347   9.330  32.917   3.749 -0.0331  0.1021 -0.0621
63295W        W 6348  34.156   5.912   6.218  0.0764  0.2894  0.2101
63296W        W 6349   6.429  26.815   8.213  0.0482  0.1950 -0.0417
63297W        W 6350   7.005  19.435   7.677 -0.0909  0.3033  0.3539
63298W        W 6351  22.189  16.857   2.407  0.0425 -0.2489  0.0504
63299W        W 6352   9.550  33.757   3.574  0.2794 -0.0582  0.3030
63300W        W 6353  33.088   8.082   1.259 -0.1745 -0.0612 -0.0961
63301W        W 6354  24.015   6.855  25.072  0.3269 -0.1320  0.0498
63302W        W 6355  14.980  28.241  18.341  0.1085 -0.3214 -0.0390
63303W        W 6356  29.058  12.177  24.521  0.0123 -0.3517  0.0384
63304W        W 6357  31.270  34.567   2.565 -0.0823 -0.1341 -0.2160
63305W        W 6358  34.448  28.863  21.113 -0.1296 -0.1233 -0.0446
63306W        W 6359  28.192  12.604  19.792 -0.0317  0.2344 -0.0868
63307W        W 6360  22.884  33.902  10.697 -0.2417  0.0771 -0.0615
63308W        W 6361  27.205  24.145  25.247 -0.0678  0.2762 -0.1693
63309W        W 6362  26.748  30.992  28.840 -0.3627  0.1508 -0.1526
63310W        W 6363   5.649  12.957   8.788  0.1143 -0.1662 -0.1879
63311W        W 6364  31.320  20.391  27.431  0.1406 -0.1362 -0.0492
63312W        W 6365  22.859  34.468  29.047  0.2595  0.1073 -0.2247
63313W        W 6366  26.846  24.626  23.636  0.0444 -0.3901  0.2069
63314W        W 6367   4.006  24.741   2.755  0.0082  0.0662  0.2359
63315W        W 6368  31.521   7.208  26.529  0.1240 -0.2075 -0.1688
63316W        W 6369  12.156   5.515  28.082 -0.0794  0.0722 -0.0368
63317W        W 6370  32.588  26.375   4.207 -0.2772  0.1263 -0.0027
63318W        W 6371  17.510  18.110  27.241  0.1351  0.2072 -0.0242
63319W        W 6372  34.138  27.409  19.053 -0.0879 -0.3286  0.1461
63320W        W 6373  23.024  27.882   9.892 -0.1090  0.1468  0.0395
63321W        W 6374  11.180   2.674  19.863 -0.0300  0.1973  0.2557
63322W        W 6375  31.752  15.425   6.393  0.1282  0.2068  0.1677
63323W        W 6376  11.069  21.579  28.907  0.2904 -0.0246 -0.1016
63324W        W 6377   8.066  25.575   2.167 -0.2059  0.2469  0.2536
63325W        W 6378  11.769   1.579   2.772 -0.0782 -0.1033 -0.0103
63326W        W 6379  22.663   4.943  28.452  0.0604  0.4876 -0.3540
63327W        W 6380  31.310  15.012  28.382  0.0383  0.0046 -0.2759
63328W        W 6381   4.422  25.199   5.673  0.4113 -0.0729  0.0438
63329W        W 6382  24.364  22.999  26.015  0.1548  0.3150 -0.0944
63330W        W 6383   1.191  22.530  24.781  0.2154  0.0041  0.2260
63331W        W 6384  30.329  11.237   6.559  0.0784  0.1384  0.1659
63332W        W 6385  34.542  18.968  21.933 -0.0870  0.0954 -0.3353
63333W        W 6386   7.186   4.236   7.234 -0.1155  0.0291 -0.1286
63334W        W 6387   2.467  22.911   5.743 -0.0748  0.2127  0.3103
63335W        W 6388  23.931   5.438  26.985  0.0996  0.1720 -0.1326
63336W        W 6389  28.740  27.947  28.953 -0.2686  0.2010 -0.0188
63337W        W 6390  24.906  15.460   8.527  0.0861  0.0715  0.0989
63338W        W 6391  31.569  30.026  26.286 -0.0555 -0.0304 -0.6119
63339W        W 6392  32.310  19.138  27.265 -0.1683 -0.1048  0.2558
63340W        W 6393  28.302  28.912   1.042  0.0270 -0.0032 -0.0208
63341W        W 6394  21.243  10.282  24.007  0.2098 -0.2496 -0.1925
63342W        W 6395  30.963  32.518   9.816 -0.0929  0.1884 -0.2810
63343W        W 6396   1.491   7.486  26.270  0.0541 -0.0282  0.0125
63344W        W 6397  33.755  31.608   6.046  0.0873  0.1375  0.3451
63345W        W 6398  31.212  27.079   2.171  0.3140 -0.1378 -0.0546
63346W        W 6399   6.931  27.067  19.974  0.0476 -0.3488 -0.0162
63347W        W 6400  31.999  33.116   3.570  0.1270 -0.1696  0.1506
63348W        W 6401  12.238  26.532  18.380  0.0139  0.1348  0.2171
63349W        W 6402  31.394  30.134  13.861 -0.0122 -0.0186  0.1222
63350W        W 6403  14.894   0.444  16.450 -0.0916  0.1096 -0.1927
63351W        W 6404  31.838  31.013  21.128  0.0504 -0.0841 -0.0361
63352W        W 6405   4.738  30.558   6.277  0.2856  0.3120  0.1266
63353W        W 6406  28.594  13.926  26.835  0.0744 -0.1278  0.0690
63354W        W 6407  30.006  33.709  23.351  0.1130 -0.1749  0.0249
63355W        W 6408  34.605   9.994   1.060 -0.3755  0.1875 -0.1500
63356W        W 6409  23.553   2.470   1.677  0.0145  0.2779  0.3873
63357W        W 6410   4.507   4.387   6.711 -0.0763  0.1475 -0.1154
63358W        W 6411  34.347  21.143   2.501  0.0554  0.0655 -0.1705
63359W        W 6412   1.897  32.584   8.860  0.0415  0.2383  0.0174
63360W        W 6413  21.845  28.611   9.906  0.2661 -0.1161  0.3734
63361W        W 6414   5.854  10.654  20.737  0.1578  0.4450 -0.0606
63362W        W 6415  14.898  26.467   5.844  0.2387 -0.0897  0.3359
63363W        W 6416   1.732  15.609   1.622  0.2930  0.1260 -0.0373
63364W        W 6417   9.955  24.472  24.299  0.1445  0.0202  0.1242
63365W        W 6418  18.604  18.668  14.028 -0.0399 -0.1544 -0.2934
63366W        W 6419   5.940  26.376   8.982  0.1227  0.1765 -0.0946
63367W        W 6420  22.347  30.718  17.612 -0.0452  0.2485 -0.0060
63368W        W 6421   0.331  20.972  26.989  0.0854 -0.0142 -0.1017
63369W        W 6422  12.739  32.371   0.901 -0.0400 -0.0466 -0.3096
63370W        W 6423   9.016  26.019  24.045 -0.3609  0.1177 -0.0091
63371W        W 6424  30.520  26.269   5.776 -0.2771  0.4058  0.0603
63372W        W 6425  12.878  30.369   4.753  0.0166  0.0394  0.0898
63373W        W 6426  29.403  26.965  24.981 -0.2095  0.3342 -0.1345
63374W        W 6427  17.374   3.362  21.918 -0.0341 -0.0036 -0.1246
63375W        W 6428  16.357  33.101   8.116 -0.1065 -0.1581 -0.0430
63376W        W 6429   3.362   6.808  21.921 -0.3160 -0.0680 -0.1664
63377W        W 6430  17.895  32.875   3.834 -0.1902  0.2092  0.5713
63378W        W 6431  33.929  29.256   2.091  0.1132 -0.0758 -0.0001
63379W        W 6432  22.482  20.215  24.826 -0.1817  0.2360 -0.1509
63380W        W 6433  33.747  23.022  27.192  0.0578  0.1612 -0.2481
63381W        W 6434  14.565   8.962   3.009  0.0574  0.1772  0.0564
63382W        W 6435   0.804  27.549   4.100  0.0447 -0.0067 -0.0906
63383W        W 6436  31.831  24.912   5.117  0.2883 -0.1913 -0.1961
63384W        W 6437   2.658  21.019   0.912 -0.1034 -0.2489  0.0595
63385W        W 6438  18.864   2.396  22.441 -0.5343 -0.1556 -0.1073
63386W        W 6439  21.745  33.729   3.825  0.1501  0.1590 -0.0451
63387W        W 6440  23.181  31.577  24.842  0.0530 -0.1869  0.2073
63388W        W 6441  33.062  31.437  21.368  0.0950 -0.0590 -0.0878
63389W        W 6442   1.324  18.000   3.348  0.2210 -0.5327 -0.2413
63390W        W 6443  11.700   8.294  25.872 -0.0658 -0.0976  0.0696
63391W        W 6444  10.174  21.262  25.348  0.1965 -0.2311  0.0307
63392W        W 6445  10.440   3.218  26.128 -0.1502  0.1287  0.4199
63393W        W 6446  11.784  30.908   6.574  0.0772  0.0142 -0.0609
63394W        W 6447  25.320  22.406  26.249  0.1697  0.2863  0.1312
63395W        W 6448   7.643  24.064   1.976 -0.1449  0.3300  0.0081
63396W        W 6449  20.773  23.817  26.996 -0.1120 -0.1015 -0.2822
63397W        W 6450  27.335   3.698  17.619  0.0294 -0.0122  0.0603
63398W        W 6451  33.238  22.173  21.633 -0.1181 -0.0948 -0.0989
63399W        W 6452   5.644  29.264  25.994 -0.2739 -0.0047  0.0464
63400W        W 6453  34.313  25.568   4.466 -0.0456  0.1507  0.3288
63401W        W 6454  29.138  19.930   4.988 -0.1762 -0.1254 -0.3913
63402W        W 6455  21.620  25.110  28.496  0.0637 -0.1093  0.0854
63403W        W 6456   9.637  26.912  27.429 -0.1233  0.2579 -0.0444
63404W        W 6457  10.089  33.737   3.110  0.2780  0.1658 -0.0785
63405W        W 6458  12.270  21.962   5.291  0.1779  0.0663 -0.0638
63406W        W 6459  33.416  29.821   5.773  0.1542 -0.0880 -0.0819
63407W        W 6460  34.343   1.406  28.867 -0.0888  0.1328  0.2352
63408W        W 6461  14.803  29.857   3.988  0.1358  0.1571  0.2194
63409W        W 6462  10.379  19.332  27.982  0.3161 -0.1813  0.1871
63410W        W 6463   2.594   1.178   0.268 -0.5873  0.0003 -0.1996
63411W        W 6464  32.407  27.276  21.411 -0.1484 -0.1152 -0.1496
63412W        W 6465  28.445  27.050   1.646  0.0334  0.2174 -0.1210
63413W        W 6466   0.052  13.533   6.270 -0.1668  0.0510 -0.0203
63414W        W 6467   4.499  10.727   2.296 -0.0743 -0.1075 -0.0012
63415W        W 6468  33.662   2.073   7.244 -0.1141  0.0520 -0.0341
63416W        W 6469   8.387   2.891  26.163  0.2604  0.0180 -0.3526
63417W        W 6470  26.507  23.402  24.419  0.0782  0.0272 -0.1286
63418W        W 6471   9.023   5.993   5.525 -0.1057  0.2185 -0.4189
63419W        W 6472   8.714  34.400   1.647  0.1428  0.4700  0.0658
63420W        W 6473   3.335  28.765  24.985  0.2651  0.1035 -0.0434
63421W        W 6474   7.822  18.589  24.571  0.1963  0.0547 -0.0512
63422W        W 6475   5.451  29.192  22.232  0.2418  0.0425 -0.1528
63423W        W 6476   0.491  27.472   4.583 -0.1254 -0.0936  0.1102
63424W        W 6477  28.498   4.633  19.098  0.0799 -0.2727  0.0905
63425W        W 6478  28.682  16.541  15.261 -0.1270  0.2261 -0.0561
63426W        W 6479  29.700  28.845   3.872  0.2679  0.1945 -0.3234
63427W        W 6480   5.796  22.131  29.112 -0.1388  0.1905 -0.0053
63428W        W 6481  30.271  32.491   4.316  0.1071 -0.1301 -0.2029
63429W        W 6482   5.582  16.266  22.588 -0.2483 -0.0399  0.2101
63430W        W 6483   1.125  12.171   1.778 -0.1035 -0.2141  0.1677
63431W        W 6484  29.157  11.983   9.810  0.0032  0.1157  0.1636
63432W        W 6485   9.408  24.233   1.618 -0.0722 -0.1937 -0.3579
63433W        W 6486   5.770  27.242  28.268 -0.2466 -0.0074  0.1647
63434W        W 6487  33.194  20.236  27.978  0.0248  0.0449 -0.0230
63435W        W 6488  33.208  23.888   3.030 -0.1980 -0.1865  0.1945
63436W        W 6489   3.200  28.819  13.876 -0.1144  0.1477  0.1733
63437W        W 6490   4.346  32.873   7.087  0.4442 -0.1712 -0.2130
63438W        W 6491   3.663  32.244   4.175 -0.2004  0.1975 -0.0675
63439W        W 6492  10.752  25.376   4.356 -0.0763 -0.1006 -0.5021
63440W        W 6493  27.765  25.929  20.848 -0.1426  0.1224  0.0389
63441W        W 6494   7.353  12.136   0.404  0.0663  0.0759 -0.0416
63442W        W 6495   0.270  21.509   0.004  0.2249  0.1704 -0.0757
63443W        W 6496   8.213  24.822  19.687 -0.3530 -0.1614  0.2271
63444W        W 6497  33.067   6.783  20.346  0.1576  0.1432  0.1755
63445W        W 6498  30.463  33.699  27.252 -0.0418  0.0248  0.0297
63446W        W 6499  13.799  32.734  23.866  0.1999  0.1702 -0.0104
63447W        W 6500   8.014   0.991  24.565  0.0251 -0.2072  0.1613
63448W        W 6501   7.570  23.478   1.161  0.1003 -0.1518 -0.2906
63449W        W 6502  34.306  21.928   4.764  0.3580  0.3154  0.2340
63450W        W 6503  31.042  13.520   7.731  0.2494 -0.0620 -0.0716
63451W        W 6504  26.763  34.100   0.414 -0.0627  0.4151 -0.2359
63452W        W 6505   4.100  25.300   8.589  0.0578 -0.4307 -0.0915
63453W        W 6506  27.040  24.368  17.131  0.1047  0.4707  0.0051
63454W        W 6507  22.235  29.169  25.708 -0.3848 -0.0820  0.0880
63455W        W 6508  14.718  28.828  28.549  0.2967 -0.0594  0.1635
63456W        W 6509  26.146  30.253  28.758  0.1036  0.0273 -0.2203
63457W        W 6510  12.996  20.875   5.612 -0.1277  0.1086  0.2123
63458W        W 6511  31.151  23.421  27.492 -0.0513  0.2279  0.0419
63459W        W 6512  34.031  22.391   0.570 -0.0215  0.1064  0.0238
63460W        W 6513   3.728  28.632  21.828  0.0221  0.3546  0.0419
63461W        W 6514  29.100  13.334   6.339 -0.0768 -0.1716  0.0623
63462W        W 6515  10.835  33.675  25.041  0.0334  0.2786  0.0551
63463W        W 6516   8.160   3.856   3.407 -0.3689  0.2043 -0.3209
63464W        W 6517  20.382  23.219   6.179  0.3335  0.2562 -0.1573
63465W        W 6518   3.579  16.923  25.880  0.3187 -0.2537  0.1644
63466W        W 6519  23.941   4.083   4.999 -0.2577  0.1638  0.0252
63467W        W 6520   5.131  32.951   0.093 -0.1389  0.0404 -0.2337
63468W        W 6521  26.535  14.947  22.921  0.0494 -0.1365 -0.1137
63469W        W 6522   6.241  28.851  20.928 -0.0116 -0.1109 -0.0014
63470W        W 6523  30.092  22.811  21.673  0.3475  0.0109 -0.2216
63471W        W 6524   3.704  28.924   0.142 -0.0881 -0.1075 -0.4360
63472W        W 6525  26.383  27.398  24.012 -0.1490 -0.2318 -0.1462
63473W        W 6526  11.732  27.764  28.617 -0.1999  0.0060  0.0018
63474W        W 6527  33.031  14.646   7.544 -0.1501 -0.3385  0.0833
63475W        W 6528  33.430  20.446   1.585  0.1187  0.1336 -0.0790
63476W        W 6529  32.155  18.158   6.285  0.0957 -0.3686 -0.2546
63477W        W 6530  31.269  28.674  28.292  0.4193  0.1699  0.3195
63478W        W 6531   5.699  13.986   6.662 -0.1613 -0.0277 -0.1138
63479W        W 6532  19.851  28.305   5.251 -0.4329 -0.1745 -0.3533
63480W        W 6533  10.321   9.014   3.315 -0.1137  0.4811 -0.2339
63481W        W 6534  11.175  29.839   0.765 -0.2088  0.1702  0.3693
63482W        W 6535   2.338  33.246   5.384  0.1687  0.2600  0.0456
63483W        W 6536  30.714  32.033  13.630  0.0418 -0.2704  0.0241
63484W        W 6537   7.423  11.806   9.667  0.3964  0.0839  0.2567
63485W        W 6538  10.135  26.064   7.247  0.3395  0.1051 -0.0212
63486W        W 6539   9.222   2.806   1.556  0.1741 -0.0704 -0.0764
63487W        W 6540  15.776  22.039  26.600  0.2683  0.0350 -0.1283
63488W        W 6541  29.614  30.281   4.322  0.1044 -0.0912  0.0003
63489W        W 6542  13.834  31.354   7.206  0.0584  0.0092 -0.1344
63490W        W 6543  21.894  13.645  27.871  0.0751 -0.4014 -0.1558
63491W        W 6544  24.202  20.530  25.186  0.1642 -0.0457 -0.1152
63492W        W 6545  28.117  20.453  22.447 -0.2693  0.1988 -0.0239
63493W        W 6546  11.625  12.874   1.259  0.1160 -0.2398 -0.2235
63494W        W 6547  28.788   6.283  25.208  0.0589  0.0567  0.2365
63495W        W 6548  14.991  26.043  16.482  0.1325 -0.0691  0.2042
63496W        W 6549  34.005   4.479   5.160 -0.0517  0.1122  0.0961
63497W        W 6550  34.571  26.846   6.938  0.0365  0.0668  0.0421
63498W        W 6551   4.934  20.019   0.289  0.3043 -0.1731  0.2336
63499W        W 6552  29.076   0.171   1.031 -0.2452 -0.2175 -0.1240
63500W        W 6553   2.811  11.326   6.369  0.2587 -0.0563  0.3112
63501W        W 6554  33.308  15.360   9.717  0.0378  0.3587  0.2309
63502W        W 6555  32.148  30.009  22.077  0.1897  0.0880 -0.1252
63503W        W 6556  19.683   2.125  26.949  0.3000  0.0953  0.0586
63504W        W 6557  29.288   3.516  29.054 -0.0749  0.2346 -0.2634
63505W        W 6558   2.406  24.537   9.321  0.3728 -0.0780  0.1873
63506W        W 6559  31.113  22.256   1.432  0.0169 -0.0828 -0.0220
63507W        W 6560  12.143  10.052  18.406  0.3799  0.3706 -0.1612
63508W        W 6561   1.534   4.048   8.245  0.0528  0.3370 -0.2901
63509W        W 6562   3.968  31.712   5.378  0.2004 -0.1376 -0.0684
63510W        W 6563  31.555  18.814   3.365  0.2430  0.0560 -0.1026
63511W        W 6564  24.198  31.470  25.032 -0.1725  0.0776 -0.1781
63512W        W 6565  34.598   0.381   7.762 -0.0089 -0.0307  0.1045
63513W        W 6566   7.095  34.639   9.364 -0.1609 -0.0217  0.1674
63514W        W 6567   8.342  31.285   1.130 -0.2722  0.0283 -0.0307
63515W        W 6568  32.855   0.253   4.770 -0.1743 -0.1507 -0.1794
63516W        W 6569   2.521  33.587  23.788  0.2592  0.1001 -0.0828
63517W        W 6570   1.484  24.788  23.741  0.3631  0.0516  0.3521
63518W        W 6571  28.555  20.443   8.721 -0.1664 -0.0296  0.0095
63519W        W 6572   2.350  30.861  20.307 -0.0859 -0.2363  0.4265
63520W        W 6573   9.878  25.166  23.611 -0.3444  0.0482  0.2731
63521W        W 6574  28.179   1.617   2.828  0.1736  0.0276  0.1366
63522W        W 6575   6.067  13.209   4.483  0.0496  0.3512 -0.1096
63523W        W 6576  13.400  20.828  20.164 -0.1574 -0.0702 -0.1799
63524W        W 6577   4.764   3.253   1.718  0.0865  0.1814  0.1707
63525W        W 6578   0.366  19.022  27.683 -0.1562 -0.2620  0.0378
63526W        W 6579  20.705  17.837   0.737  0.0815  0.2360 -0.2400
63527W        W 6580  23.422  25.185   7.810 -0.1051  0.1786  0.0412
63528W        W 6581  12.265  30.557  26.742 -0.0079 -0.1031 -0.1762
63529W        W 6582  25.372  18.063  25.772  0.0586  0.4811  0.0121
63530W        W 6583   9.534   6.204  23.402  0.2094  0.1357  0.2655
63531W        W 6584   4.584  29.223  13.297 -0.1395 -0.0775  0.0946
63532W        W 6585  28.221  33.757  24.961  0.0158  0.0640  0.0003
63533W        W 6586   8.031  27.329  27.344  0.1618  0.1054 -0.0227
63534W        W 6587   5.996  20.012   5.599  0.1108 -0.0833 -0.1984
63535W        W 6588  19.348  10.818  10.209  0.1194  0.0914 -0.0602
63536W        W 6589  29.334   2.626   3.820 -0.3114 -0.0767  0.1926
63537W        W 6590   5.131  24.513   2.741  0.2474 -0.0324  0.1622
63538W        W 6591  24.056  19.468  17.571  0.1730 -0.0340 -0.1340
63539W        W 6592  33.603  22.194  21.172  0.1628  0.1672  0.0622
63540W        W 6593   5.939   0.201  15.382  0.2754 -0.0330 -0.0276
63541W        W 6594  27.325  22.793  20.818 -0.1450  0.2662  0.0473
63542W        W 6595   6.159  31.648   3.481  0.0942  0.2109 -0.0026
63543W        W 6596  30.789  13.298   2.531  0.1616  0.0122  0.2048
63544W        W 6597  16.272  20.526   4.425 -0.1398 -0.1713 -0.0437
63545W        W 6598  22.726  21.235  26.438  0.0493  0.2058 -0.2430
63546W        W 6599   4.563  24.332   1.783 -0.0562  0.0302  0.1367
63547W        W 6600  30.458  16.140  20.216 -0.2752 -0.0233 -0.0608
63548W        W 6601   3.539  25.620   2.702  0.0791  0.2866  0.1373
63549W        W 6602  22.028  12.661   2.003  0.2922  0.3395 -0.1869
63550W        W 6603  21.183  24.380   9.267  0.1644  0.1143 -0.2263
63551W        W 6604  11.846  33.744  25.577 -0.0798 -0.1165  0.0404
63552W        W 6605  30.085   9.855  18.468  0.1248 -0.2550 -0.0623
63553W        W 6606  31.328  26.715   0.850  0.0120  0.0795  0.2366
63554W        W 6607   4.996  25.903  17.304  0.0022 -0.0570  0.1628
63555W        W 6608   8.100   3.718  25.893  0.3518  0.0150 -0.0406
63556W        W 6609  14.286  24.859   3.086 -0.2168  0.1123  0.1148
63557W        W 6610   5.255  31.373  21.047 -0.3161 -0.2658 -0.2871
63558W        W 6611  10.847   0.696   3.347  0.3103  0.0316  0.1291
63559W        W 6612  12.763  10.490  20.478 -0.3471 -0.2875 -0.1246
63560W        W 6613  13.126   5.785  25.967  0.1177  0.1063 -0.0557
63561W        W 6614  31.250  12.389   9.518 -0.2896 -0.0061 -0.1167
63562W        W 6615   8.098  13.672   2.096 -0.1623 -0.0242  0.0696
63563W        W 6616  28.411  12.554   3.731 -0.0186  0.2490 -0.2101
63564W        W 6617   3.569  22.034   6.139 -0.0979 -0.0213  0.0941
63565W        W 6618  17.873  30.429  24.199 -0.0870 -0.2806  0.2416
63566W        W 6619   7.334   3.206   1.714  0.0788 -0.0340 -0.0773
63567W        W 6620  33.394   2.217  25.886  0.0925  0.0400 -0.1302
63568W        W 6621  31.665  18.760  24.827 -0.2863 -0.4178 -0.2793
63569W        W 6622  29.369  20.080   8.574 -0.4442 -0.0197  0.0030
63570W        W 6623  33.452  33.407  28.596  0.3258  0.1962  0.1798
63571W        W 6624   6.158  20.219   8.997 -0.1988 -0.0735 -0.3305
63572W        W 6625   2.052  14.537  22.065  0.0691  0.1813  0.2005
63573W        W 6626   0.613  31.567  22.363  0.4004  0.4411  0.2263
63574W        W 6627   9.587   4.580  24.205  0.2384 -0.2159 -0.0876
63575W        W 6628  32.948  31.952  20.518 -0.0922  0.1730 -0.3375
63576W        W 6629  33.402  34.175  25.197  0.0036 -0.2115  0.0002
63577W        W 6630  13.349  17.897   2.846 -0.2370  0.1491 -0.0112
63578W        W 6631  15.191   5.875  15.685  0.0301  0.2037  0.2919
63579W        W 6632  18.235  25.529  25.113  0.3999  0.2346  0.1390
63580W        W 6633  21.285   2.391   8.957  0.3117  0.2309 -0.0870
63581W        W 6634   1.518  25.924  14.762  0.1278  0.1896  0.3031
63582W        W 6635  25.106  30.232  23.709  0.1593 -0.0850 -0.2372
63583W        W 6636   7.976   0.652   8.062 -0.2285  0.1212 -0.0260
63584W        W 6637  15.665   2.811  23.970 -0.0359  0.1043 -0.2729
63585W        W 6638   5.018   2.197   3.113 -0.0458 -0.0495  0.1531
63586W        W 6639  29.984  23.575  22.144 -0.2049 -0.3030  0.1648
63587W        W 6640   1.737   2.199   1.649 -0.3791 -0.1885  0.5779
63588W        W 6641  28.564   1.602  19.162 -0.0579  0.1678  0.0443
63589W        W 6642   8.390  32.215  24.651 -0.1736 -0.4637 -0.0803
63590W        W 6643  25.320  24.220  14.092 -0.0218  0.1892 -0.0650
63591W        W 6644  27.086  26.598   9.342 -0.0260  0.0645  0.3337
63592W        W 6645   3.187  31.521  14.447  0.1656  0.0249  0.1177
63593W        W 6646  30.492  22.820   8.478  0.1926  0.1306  0.0551
63594W        W 6647  15.884  28.602   0.626 -0.0928  0.1092  0.0049
63595W        W 6648  18.232  24.195  16.431 -0.0096 -0.0243 -0.1733
63596W        W 6649   6.486  30.202   8.039  0.1525  0.0057 -0.0812
63597W        W 6650   0.492  27.121  27.644 -0.0146 -0.1309 -0.0100
63598W        W 6651  29.668  32.695   8.291 -0.1799 -0.2518  0.0503
63599W        W 6652  25.645  15.347   1.486  0.1556  0.2423 -0.0165
63600W        W 6653   2.902  22.622  24.880 -0.1140  0.3718  0.0012
63601W        W 6654  17.651   0.839  21.713  0.1945 -0.2235 -0.0483
63602W        W 6655  22.579  16.043   2.117 -0.1081  0.0346 -0.0093
63603W        W 6656   3.963  20.990  18.614 -0.1165  0.0102  0.1476
63604W        W 6657   8.636  31.227   9.665  0.1811 -0.0175  0.1722
63605W        W 6658  29.770  29.328   3.949 -0.0196  0.0318  0.2178
63606W        W 6659   2.420  28.745   1.181 -0.3061  0.0193 -0.2065
63607W        W 6660  12.135  14.749   6.771 -0.0901  0.1967  0.2921
63608W        W 6661  13.794  29.447   1.910 -0.2387 -0.2287  0.0604
63609W        W 6662  11.908  14.261  25.167 -0.0547  0.0780 -0.0854
63610W        W 6663  14.093   1.291  14.572 -0.5869  0.1769 -0.0987
63611W        W 6664  24.426  33.808   3.893 -0.2121 -0.1718  0.2632
63612W        W 6665  26.548  32.710  25.589  0.2451 -0.0880  0.4625
63613W        W 6666  34.208  24.621  15.152 -0.0939 -0.0193  0.1251
63614W        W 6667   0.855  28.764   1.793 -0.0917  0.2747  0.1290
63615W        W 6668   5.097   0.955   4.013 -0.0505 -0.0430 -0.0541
63616W        W 6669  31.691  24.987  15.583 -0.0556 -0.2361  0.1569
63617W        W 6670  12.129  25.231   1.602  0.4503 -0.0921 -0.1467
63618W        W 6671   7.766   2.905  27.239  0.0734 -0.0802  0.0203
63619W        W 6672  29.766  18.379  20.391 -0.2414 -0.2153 -0.0366
63620W        W 6673   5.033   9.613   2.387  0.1800  0.2606 -0.2085
63621W        W 6674  20.468  33.683   0.235 -0.2771  0.2366  0.2472
63622W        W 6675   1.789   8.683   0.458 -0.0793 -0.1296 -0.3328
63623W        W 6676   8.879  19.966   5.685  0.2492  0.2924  0.3793
63624W        W 6677  25.543  31.067   6.249 -0.1193  0.2679 -0.4306
63625W        W 6678  28.029  11.105   9.899 -0.0307 -0.1709  0.1963
63626W        W 6679   8.052  17.346  14.740 -0.1709 -0.0074  0.3045
63627W        W 6680  17.313   7.943   7.867 -0.1637 -0.2214 -0.0099
63628W        W 6681  26.963  33.311  22.250 -0.0396 -0.2483  0.1049
63629W        W 6682   7.440  26.776  28.548  0.0710  0.2142 -0.2918
63630W        W 6683  15.510   7.219   5.065  0.5933 -0.0983  0.1215
63631W        W 6684  30.983  20.498  24.609  0.1029  0.0131  0.0387
63632W        W 6685   2.758  10.848  27.910  0.0236 -0.1385  0.3002
63633W        W 6686   2.465  28.221   7.115 -0.2679  0.2127 -0.0667
63634W        W 6687   8.183  34.602   6.280 -0.0479  0.1977  0.1628
63635W        W 6688  13.387  10.094   1.046  0.1546  0.1696  0.0761
63636W        W 6689  23.056   3.376  25.596  0.2864 -0.0707  0.0808
63637W        W 6690   2.949  22.998  15.495 -0.1436 -0.0890  0.1058
63638W        W 6691  28.934  34.652   6.366 -0.0515 -0.4434 -0.0102
63639W        W 6692   5.602  16.181   4.821 -0.1649 -0.2025  0.2437
63640W        W 6693  11.921  10.094  25.416  0.1965  0.2433 -0.2954
63641W        W 6694   1.670  31.299  23.154 -0.0345 -0.2415  0.1618
63642W        W 6695  25.613  31.989   2.498 -0.0391 -0.0469 -0.2033
63643W        W 6696   3.426  18.512   8.129 -0.0536 -0.0364  0.0717
63644W        W 6697  34.156   8.183  21.260 -0.0962 -0.1814 -0.1564
63645W        W 6698  34.050   7.836   5.573  0.0300  0.2417 -0.0809
63646W        W 6699  11.235   5.815   4.030  0.1618  0.0895 -0.1453
63647W        W 6700  25.594   9.993   3.330 -0.1375  0.3445  0.1883
63648W        W 6701  31.242   2.683  22.998 -0.1000  0.0767 -0.1713
63649W        W 6702  10.353   0.997   4.760  0.3348  0.0353  0.0094
63650W        W 6703  20.305  18.638   6.898  0.0350 -0.5295  0.1715
63651W        W 6704  19.399  23.762  25.411  0.0241  0.2261  0.0361
63652W        W 6705   3.059  12.279  19.751 -0.2942 -0.0947  0.1213
63653W        W 6706  28.194   5.202   3.286 -0.2444 -0.1162 -0.2924
63654W        W 6707  14.422   9.114  18.050  0.0311  0.0902 -0.1820
63655W        W 6708   6.291  27.109   8.567 -0.3724 -0.1030 -0.0980
63656W        W 6709   8.932  30.169   8.532 -0.0049 -0.2384 -0.3537
63657W        W 6710  10.671  32.479  27.984 -0.0338 -0.0589 -0.0050
63658W        W 6711  26.986  24.494   5.109 -0.1635 -0.0281  0.0267
63659W        W 6712  29.389  10.867  20.392 -0.1541 -0.2985  0.0873
63660W        W 6713  31.754  26.400  25.254  0.0906  0.1346 -0.0000
63661W        W 6714   7.397  12.479   5.067  0.1895  0.2395 -0.1697
63662W        W 6715   6.379  19.028   2.071  0.2658 -0.0843 -0.3608
63663W        W 6716  19.712   2.202   7.695  0.1935  0.0272  0.0488
63664W        W 6717   3.471  22.314   8.603  0.0272  0.1338 -0.0694
63665W        W 6718  27.775  21.681  24.421  0.0305 -0.0501  0.1827
63666W        W 6719   6.529   6.892   2.047 -0.1324  0.0469 -0.1242
63667W        W 6720   0.710  20.603   4.669  0.0020  0.0400 -0.0420
63668W        W 6721  17.109   2.561  18.931  0.1830  0.3875 -0.0562
63669W        W 6722  31.816   4.892  22.946 -0.3475  0.1063 -0.2345
63670W        W 6723  17.742   7.387   9.748  0.5070  0.1505  0.0358
63671W        W 6724  15.449   2.291  25.468  0.0733  0.2820 -0.2816
63672W        W 6725   2.677   3.209   7.717  0.2634 -0.3701  0.3086
63673W        W 6726   7.296   8.886   4.001  0.1432 -0.2806 -0.2932
63674W        W 6727   3.563  19.957  25.381  0.3174 -0.1410 -0.0968
63675W        W 6728   8.629  31.308  18.083 -0.2301  0.0909  0.3112
63676W        W 6729  22.261  22.390   8.635  0.2796  0.1298  0.0951
63677W        W 6730  26.772  24.279   5.723 -0.0560 -0.3881  0.0597
63678W        W 6731  28.725  25.619   9.439  0.1774 -0.2430 -0.0881
63679W        W 6732  24.045  19.680   0.601  0.0554  0.0115  0.0192
63680W        W 6733   8.123  32.349   8.380 -0.2052 -0.1500 -0.0923
63681W        W 6734   8.406  31.828   7.585  0.2194  0.0954  0.1105
63682W        W 6735  34.618  15.629   6.430  0.1133  0.0873  0.0521
63683W        W 6736   2.327  21.677  27.873  0.2190 -0.0711 -0.0171
63684W        W 6737   4.751  29.545   8.197 -0.0955 -0.2435  0.0954
63685W        W 6738  29.132  11.574   0.144 -0.0682  0.2894 -0.2698
63686W        W 6739  14.854   9.382  17.750  0.4089 -0.0835  0.1431
63687W        W 6740   6.469  25.681  29.077 -0.0873  0.0092 -0.4338
63688W        W 6741   4.369  14.578  28.123  0.1930 -0.0113  0.1063
63689W        W 6742  20.326  18.602  19.326 -0.1890  0.0022 -0.0617
63690W        W 6743  34.037  13.237  26.186  0.2093 -0.2712  0.0239
63691W        W 6744   4.224  17.438  28.058 -0.0927 -0.1981  0.1787
63692W        W 6745  20.783  14.820   5.720  0.0719 -0.0259  0.4952
63693W        W 6746  10.268  21.590  28.704 -0.1221 -0.0822 -0.2755
63694W        W 6747   0.339  31.688   8.458  0.1792  0.0916 -0.3625
63695W        W 6748  29.948  14.514   0.438  0.4469 -0.0876  0.1354
63696W        W 6749   9.334  18.243   1.594  0.1250  0.0806  0.0226
63697W        W 6750  25.042  31.169   5.462  0.0177  0.1602 -0.0406
63698W        W 6751  24.977   9.976  18.609 -0.3958  0.1956 -0.0571
63699W        W 6752   3.763  27.928   1.067  0.0581 -0.1474 -0.0309
63700W        W 6753  28.340  28.660   4.287  0.0273  0.0325  0.2759
63701W        W 6754   6.752   0.941   7.776 -0.0852 -0.1072  0.3294
63702W        W 6755  34.541  17.543  26.417 -0.0377  0.0249 -0.1534
63703W        W 6756   6.985   1.693   8.348  0.0519 -0.0992 -0.0295
63704W        W 6757   9.870   8.749   0.010 -0.0830  0.3131  0.1197
63705W        W 6758  31.630  28.392  29.052 -0.1171  0.1158  0.0446
63706W        W 6759  33.381  30.966   1.996 -0.0810  0.1614 -0.1606
63707W        W 6760  13.148   8.241   1.990 -0.1233 -0.0298 -0.2284
63708W        W 6761   2.311  10.867   9.323 -0.1616  0.0674  0.2467
63709W        W 6762  33.070  18.157   8.470 -0.0051  0.0245 -0.0234
63710W        W 6763  10.815  22.411  21.521 -0.0792 -0.0475  0.3675
63711W        W 6764  17.250  33.848   9.704 -0.3799 -0.1913  0.0065
63712W        W 6765   5.045  25.444   1.128 -0.3818  0.0547 -0.3484
63713W        W 6766   4.496  20.917   4.313 -0.0093 -0.1986  0.1237
63714W        W 6767  21.365  18.540  21.654  0.0543  0.2688  0.0452
63715W        W 6768  30.244   6.239   0.482  0.0527  0.0561 -0.2039
63716W        W 6769  30.035  29.699   7.053  0.0383 -0.0147 -0.6043
63717W        W 6770  29.226   3.845  22.556  0.0760  0.1545 -0.0426
63718W        W 6771   1.445  16.150   7.627 -0.1820 -0.1993 -0.0549
63719W        W 6772  14.139  29.312   2.364  0.0240 -0.3412  0.1643
63720W        W 6773  32.365   2.981   6.541  0.2205 -0.1087 -0.1952
63721W        W 6774  18.302  26.005  28.522  0.0392  0.1875 -0.0741
63722W        W 6775   5.118  24.942   6.498  0.1521 -0.2349  0.2175
63723W        W 6776  30.319   5.113  26.832  0.2524 -0.1119 -0.0097
63724W        W 6777  17.034  28.270   3.641 -0.1661  0.0798 -0.0668
63725W        W 6778   5.325  22.204   0.945 -0.1148  0.0316  0.2073
63726W        W 6779  34.280   9.103   5.758 -0.1202  0.2829 -0.1655
63727W        W 6780  17.913   1.180   4.866 -0.0296 -0.1044  0.0544
63728W        W 6781  18.904  27.137   9.097 -0.1400  0.0905  0.0360
63729W        W 6782   0.566  19.577   1.523  0.0461  0.1645  0.0450
63730W        W 6783  31.190  32.714   1.562  0.2792 -0.1585 -0.0632
63731W        W 6784  25.882  32.956   8.399 -0.1261 -0.3250 -0.0911
63732W        W 6785  29.788  33.256   8.958  0.0755 -0.1581 -0.3059
63733W        W 6786  27.272  22.030   8.082 -0.0088  0.1732  0.1779
63734W        W 6787   7.098   5.662  28.875  0.1282  0.3834 -0.0682
63735W        W 6788  10.259  29.258   5.536  0.4555 -0.2282 -0.0220
63736W        W 6789   0.540  26.965   4.378 -0.0343 -0.2695  0.0723
63737W        W 6790   7.279  12.128   7.831 -0.0172 -0.2307 -0.0649
63738W        W 6791   5.707  22.196  27.409  0.0597  0.0816 -0.1518
63739W        W 6792   0.871  20.542   5.217  0.2836  0.1876 -0.0766
63740W        W 6793  10.700   0.956  21.611 -0.2010  0.2026  0.0458
63741W        W 6794  11.318  30.240   6.918  0.0849 -0.0577 -0.1169
63742W        W 6795  33.423  12.554   7.218 -0.1159 -0.2078 -0.1001
63743W        W 6796   3.187  21.441   3.996 -0.2414 -0.1237  0.0901
63744W        W 6797  34.463  34.004   5.720 -0.0760  0.3340  0.1323
63745W        W 6798   3.381  25.469  28.667 -0.3143  0.0063  0.0426
63746W        W 6799  31.071  22.442  20.201  0.2696 -0.0436  0.3326
63747W        W 6800  34.028  19.486  24.766 -0.0577 -0.0802 -0.0375
63748W        W 6801  28.440  17.019   8.209 -0.0701  0.3515 -0.0822
63749W        W 6802   7.981  32.434   2.723 -0.2131 -0.1214  0.0347
63750W        W 6803  30.319  25.575   5.706  0.1908 -0.1285 -0.3697
63751W        W 6804   1.007  27.485   6.332  0.0784  0.0785  0.0989
63752W        W 6805  13.316  22.248   6.555  0.0530  0.1020  0.0452
63753W        W 6806  25.243  30.630  10.524  0.1369  0.0363  0.3581
63754W        W 6807   6.824  33.100   1.729 -0.1645  0.2347 -0.0921
63755W        W 6808   7.835  19.674   7.487 -0.1120  0.0872  0.3408
63756W        W 6809   1.601  12.289   6.712 -0.0331 -0.0969 -0.1946
63757W        W 6810  19.892   0.399  26.568 -0.0121  0.0443  0.0417
63758W        W 6811  32.804  25.374   3.293 -0.2013 -0.1911 -0.3055
63759W        W 6812   3.448  30.107   1.477  0.0803 -0.1592 -0.0932
63760W        W 6813   9.994  25.160   2.606  0.2812 -0.2016 -0.0705
63761W        W 6814  10.433  27.365  29.054 -0.0657 -0.0814  0.0406
63762W        W 6815   4.388  31.474  27.203 -0.1530  0.2087  0.3092
63763W        W 6816   0.133  30.112   9.128 -0.1332 -0.0062  0.2481
63764W        W 6817  30.277  26.974   1.916 -0.2454  0.0273  0.1884
63765W        W 6818  31.929   6.308  28.194 -0.0231 -0.0572  0.2860
63766W        W 6819  17.525  23.726   5.682  0.0050  0.0361  0.2418
63767W        W 6820   6.055  10.596   5.699  0.1299  0.1263  0.3219
63768W        W 6821   1.346  10.955   7.678  0.1977 -0.3471  0.3316
63769W        W 6822   6.251  26.751  16.905  0.1243  0.2981  0.1110
63770W        W 6823   3.964  19.279  27.264  0.0364  0.0119  0.1020
63771W        W 6824  13.828  23.646   5.247  0.0683  0.2951  0.1467
63772W        W 6825   4.836   9.711   3.076  0.0084  0.1971  0.3243
63773W        W 6826   6.588  16.206   4.506  0.1466  0.4258  0.1555
63774W        W 6827   8.565  34.487  24.685  0.3406  0.0093  0.1726
63775W        W 6828  29.439  16.718  23.824  0.0493 -0.2764  0.0145
63776W        W 6829   9.282   4.707   2.535 -0.2687 -0.1955 -0.0997
63777W        W 6830  18.024   7.932   6.125 -0.1425  0.1403  0.1927
63778W        W 6831  28.132  20.597   0.067 -0.2008  0.0804 -0.2352
63779W        W 6832  32.078  25.465   9.350 -0.0201  0.2854 -0.0716
63780W        W 6833   0.803   4.444   7.332  0.1603 -0.1399  0.0809
63781W        W 6834  13.102  23.070   4.776 -0.1122  0.2414  0.2397
63782W        W 6835   8.176  33.709   8.209  0.0402  0.0487 -0.2054
63783W        W 6836  12.886  26.464   9.275 -0.0439  0.2138 -0.0172
63784W        W 6837  17.034  20.791   6.972 -0.0771 -0.2433 -0.0076
63785W        W 6838  28.134  33.431   2.652 -0.2186 -0.2663  0.0078
63786W        W 6839   4.516  20.166   8.775  0.1198  0.0669  0.3703
63787W        W 6840  14.191  26.938   5.702  0.0004 -0.1641  0.0582
63788W        W 6841  30.124  24.330   6.035  0.2653 -0.0587 -0.0967
63789W        W 6842   7.473  28.115   3.968 -0.0512 -0.2036  0.1093
63790W        W 6843   7.617  15.567  25.040 -0.0571 -0.0625 -0.0126
63791W        W 6844  12.694  16.084  24.002  0.2599 -0.0918 -0.1057
63792W        W 6845  28.615  29.755  29.153 -0.0674 -0.4237  0.0431
63793W        W 6846  13.035   8.988   3.721 -0.0117  0.0576  0.2067
63794W        W 6847  31.933  32.497  28.722 -0.0573  0.0200  0.1660
63795W        W 6848   2.742  21.670  21.979  0.0281 -0.0716  0.0508
63796W        W 6849  27.821  32.870  24.546 -0.1661 -0.0495  0.1442
63797W        W 6850  22.171  23.834   7.295 -0.1142  0.1016  0.0464
63798W        W 6851  18.947  32.205   4.871  0.1221 -0.2451  0.0581
63799W        W 6852  21.691  29.560   9.381  0.1017 -0.0123  0.0063
63800W        W 6853   3.223  24.982  23.046  0.0149 -0.1648  0.1393
63801W        W 6854  26.829  32.030   8.017  0.1820 -0.0251  0.2673
63802W        W 6855   0.358  17.343   1.107  0.1587  0.2349 -0.1215
63803W        W 6856  19.331  32.964   4.026  0.0879  0.3314 -0.0755
63804W        W 6857  27.279  27.467   3.642 -0.1023  0.2999  0.4008
63805W        W 6858   0.695  13.627  18.056  0.4286 -0.1016 -0.0515
63806W        W 6859   2.829  13.314  24.299 -0.1217 -0.1612 -0.0748
63807W        W 6860  34.308   0.210   1.650 -0.0348  0.0437 -0.2143
63808W        W 6861  14.424  14.426   2.121 -0.2011 -0.1129  0.0641
63809W        W 6862  15.893  30.841  26.870  0.0744  0.1771 -0.2181
63810W        W 6863  20.684  16.229  28.993 -0.0877 -0.1603 -0.1567
63811W        W 6864   2.858  23.450  26.968  0.2631  0.4424  0.2696
63812W        W 6865   0.996  24.089  25.598  0.1749 -0.2620 -0.0378
63813W        W 6866   4.221  33.344  18.816  0.2695 -0.1329  0.0541
63814W        W 6867  24.825  29.324   2.566 -0.2633 -0.2216 -0.0177
63815W        W 6868   7.674  19.838   4.952  0.3657 -0.0253  0.1252
63816W        W 6869   0.316  23.897   9.472 -0.0385  0.0608 -0.2298
63817W        W 6870  18.928  18.616   7.349 -0.0774  0.1338 -0.2593
63818W        W 6871  10.969  31.345   5.398 -0.3213 -0.1575 -0.1435
63819W        W 6872   3.195  28.726   1.857 -0.5116 -0.2348  0.0153
63820W        W 6873  15.612  20.303  24.715  0.1461  0.0811 -0.1505
63821W        W 6874   5.251  23.443   9.131  0.2668  0.0155  0.1533
63822W        W 6875   2.045  24.303   4.975 -0.1624 -0.0742 -0.1549
63823W        W 6876   3.267  21.980   7.532  0.2946  0.2503  0.0277
63824W        W 6877   5.765  17.478   3.746  0.2309 -0.1944  0.0845
63825W        W 6878   1.583   6.960   6.650 -0.0604 -0.0328 -0.0289
63826W        W 6879   9.938  20.902   1.761 -0.0490  0.1795 -0.1196
63827W        W 6880  30.646  25.495   1.053  0.0192 -0.0956  0.3801
63828W        W 6881  25.446   1.637   8.708 -0.4159  0.0749 -0.0321
63829W        W 6882  25.197  23.616  19.288 -0.0767 -0.0307 -0.2828
63830W        W 6883  20.573  30.289   1.717 -0.1191  0.0243  0.0219
63831W        W 6884   4.224  22.693   0.120 -0.0485  0.3621  0.0746
63832W        W 6885  29.038  27.265  29.156  0.0555 -0.1896 -0.0544
63833W        W 6886  16.254  32.597  25.357 -0.0856 -0.0963  0.0804
63834W        W 6887  10.275  23.749  23.574 -0.2907  0.2196  0.0811
63835W        W 6888  24.748   0.261  29.133 -0.0138 -0.1871 -0.3276
63836W        W 6889   2.350  20.551  24.390  0.2294 -0.2880  0.0339
63837W        W 6890   7.474  20.191  26.780  0.2776  0.2071  0.0590
63838W        W 6891  14.722  18.551  21.306 -0.0632 -0.0168 -0.1106
63839W        W 6892  26.536   7.366   4.377 -0.0358  0.1253  0.3011
63840W        W 6893   4.840  29.503   5.692  0.0942  0.1341 -0.1865
63841W        W 6894  26.624  26.232   5.194 -0.0023  0.1493 -0.3431
63842W        W 6895   9.922  27.650   2.239 -0.0210 -0.1441  0.0749
63843W        W 6896  31.655  32.011  26.762 -0.2267 -0.3638  0.0677
63844W        W 6897  32.787   9.365  28.192 -0.0794  0.0306  0.0846
63845W        W 6898  29.162  31.926   7.712  0.1430 -0.1760 -0.3975
63846W        W 6899  22.841  31.410   7.403 -0.0608  0.2281  0.3574
63847W        W 6900  29.261   2.459  21.951  0.1128 -0.0895  0.1328
63848W        W 6901  22.235  28.989   1.614 -0.1216 -0.0521 -0.2392
63849W        W 6902   0.734  20.982   2.339  0.0049 -0.0431  0.0861
63850W        W 6903  28.611  22.220   2.357 -0.0335  0.1252  0.1050
63851W        W 6904  16.122  14.816  27.849 -0.1755 -0.1250  0.1814
63852W        W 6905  10.870   0.984   2.506 -0.0222  0.0444 -0.0613
63853W        W 6906  25.884  20.744  22.700  0.7636 -0.0922 -0.0443
63854W        W 6907   2.046  23.232  22.354  0.0090  0.0603  0.1548
63855W        W 6908   4.882  18.630   8.909  0.1900 -0.1541 -0.0474
63856W        W 6909  12.009  24.375   4.208  0.3263  0.0827  0.1872
63857W        W 6910   2.797  29.294  26.924  0.0325 -0.1548 -0.1183
63858W        W 6911  20.368  25.858  28.685 -0.3467 -0.1251  0.2808
63859W        W 6912  27.206  24.639   5.693  0.3041  0.0293  0.2878
63860W        W 6913   8.883  32.326  21.540 -0.1906 -0.0294  0.0443
63861W        W 6914  22.022  16.236  22.525  0.5076 -0.0146 -0.0524
63862W        W 6915  28.276   0.239  26.498 -0.1371 -0.1348  0.2977
63863W        W 6916  22.852  18.025   7.865 -0.2061  0.0437 -0.1284
63864W        W 6917  10.083  27.824   5.874  0.0215  0.0114 -0.1275
63865W        W 6918  31.701  29.661   1.317 -0.0691  0.2812  0.2573
63866W        W 6919   6.913  19.973   6.164 -0.2513  0.3518 -0.1473
63867W        W 6920  27.383  26.649  16.718  0.0189  0.1883  0.1446
63868W        W 6921  21.063  33.072   4.234  0.0562  0.0651 -0.4545
63869W        W 6922  26.464  32.782   3.134  0.2735  0.1834 -0.2202
63870W        W 6923  15.276  26.766  21.699 -0.2116  0.1659 -0.3667
63871W        W 6924  34.408  16.693  25.089  0.4171 -0.0572 -0.2089
63872W        W 6925  28.157  29.886   7.637  0.3208 -0.0063 -0.0856
63873W        W 6926  16.975  33.516   1.188  0.2596 -0.0271  0.0662
63874W        W 6927  32.572  34.600  25.539 -0.1192 -0.0468  0.1640
63875W        W 6928  31.769  23.964   9.167 -0.0462  0.0232 -0.0863
63876W        W 6929   0.978   3.409   1.731 -0.0689  0.0160  0.1919
63877W        W 6930   7.714  15.988   5.215 -0.2825  0.0491  0.1104
63878W        W 6931  28.573   0.262   0.878 -0.0380 -0.0035  0.0744
63879W        W 6932  22.781  16.599   1.684  0.2882  0.2660 -0.1030
63880W        W 6933   6.896  18.238   9.080  0.1432  0.1050 -0.1327
63881W        W 6934  16.640   3.957   2.917  0.0623 -0.0999  0.1154
63882W        W 6935  31.695   3.243   4.357  0.0782 -0.1145 -0.0297
63883W        W 6936  32.994  24.241   9.553  0.1944 -0.4681 -0.1089
63884W        W 6937  31.109  25.612  24.273  0.0121  0.2146 -0.2266
63885W        W 6938   4.806   4.081  10.427 -0.0992 -0.2952 -0.0408
63886W        W 6939  22.163  33.091   8.160 -0.0712  0.0155  0.0840
63887W        W 6940   2.646  22.510   8.645 -0.0043 -0.1035 -0.2863
63888W        W 6941  26.521  29.920  26.494  0.1052  0.2075  0.1343
63889W        W 6942  24.627  13.373  27.500  0.2508  0.0527 -0.0268
63890W        W 6943   9.868  28.921   2.206  0.0803 -0.0315  0.1818
63891W        W 6944   1.180   8.168   6.820  0.0450  0.0240  0.3780
63892W        W 6945   3.607   0.291  10.209 -0.0830 -0.2481 -0.0002
63893W        W 6946   9.178  18.591   3.908  0.0303 -0.2002 -0.1340
63894W        W 6947  14.506  24.377   0.124 -0.2383 -0.0267  0.0516
63895W        W 6948   3.293  22.870  28.154 -0.0230 -0.1522 -0.2069
63896W        W 6949  31.841  23.070   8.754  0.0408  0.1738  0.1523
63897W        W 6950   9.081  10.597   5.298 -0.2117 -0.1398 -0.4420
63898W        W 6951  14.380  12.956   0.661  0.0078 -0.0029 -0.1680
63899W        W 6952   0.825  29.686   6.007  0.0325 -0.0838  0.0017
63900W        W 6953  34.016  23.057   5.750 -0.2097 -0.0127 -0.1443
63901W        W 6954  24.477  28.927   0.774  0.1943  0.2155  0.2054
63902W        W 6955  22.163   4.878   3.921  0.4650  0.0075 -0.1928
63903W        W 6956   6.869  20.185   5.713  0.2050 -0.1655  0.0551
63904W        W 6957  31.699  22.648   2.838 -0.1200 -0.2236  0.1017
63905W        W 6958  14.174  25.261  26.572  0.1094 -0.0363  0.0205
63906W        W 6959  14.295  13.319  15.495 -0.0714  0.1238 -0.2840
63907W        W 6960  21.040  21.145   7.992 -0.0975  0.0044 -0.3070
63908W        W 6961   4.580  24.204   5.248  0.1443  0.1847 -0.0995
63909W        W 6962   5.597  34.421   2.025 -0.0810  0.0866  0.3749
63910W        W 6963  30.038  29.684  28.035 -0.0748  0.2902 -0.0250
63911W        W 6964  23.199  27.680   8.172  0.1855  0.1814  0.0927
63912W        W 6965   0.269  12.479   1.538  0.0393  0.1777 -0.0304
63913W        W 6966  10.548  15.392  22.615 -0.1722 -0.0291  0.0051
63914W        W 6967   6.968  23.634  27.436 -0.1987  0.2089 -0.1401
63915W        W 6968  15.471  15.996  23.175  0.2170 -0.0085 -0.5947
63916W        W 6969  33.780  31.610   2.654 -0.0932 -0.0225  0.1531
63917W        W 6970  15.321  15.053  21.856 -0.2187  0.1594  0.1504
63918W        W 6971  34.044  31.271  26.437 -0.0853  0.1271 -0.1408
63919W        W 6972  16.230  30.332   9.521  0.0065  0.2449  0.2121
63920W        W 6973   9.175  17.066  23.893  0.0565  0.3057  0.3056
63921W        W 6974   0.056  19.998  20.270  0.4290  0.0846  0.5077
63922W        W 6975   8.565   1.413   5.193 -0.0890  0.1104  0.0855
63923W        W 6976   0.216  13.356   0.791  0.2399 -0.0635 -0.1083
63924W        W 6977  32.181   5.693  17.816 -0.3173 -0.1856 -0.0661
63925W        W 6978   8.757   3.982  17.970 -0.0023 -0.2681 -0.0130
63926W        W 6979  28.369  32.530   1.776 -0.1553  0.2132 -0.2628
63927W        W 6980  13.504  21.864  27.701 -0.2847 -0.2232 -0.0209
63928W        W 6981  33.405  15.850   2.901 -0.2823  0.1179  0.1189
63929W        W 6982  34.418   2.886  25.614  0.3152 -0.0220  0.1438
63930W        W 6983  33.362  21.911   4.016 -0.0115 -0.1063 -0.2218
63931W        W 6984  14.141  34.464  21.168  0.0788  0.0123  0.1236
63932W        W 6985   6.729  28.128  27.493  0.1869 -0.2371  0.3606
63933W        W 6986   5.322  32.976  21.937  0.0021  0.4623  0.1538
63934W        W 6987   5.703  33.922   8.251  0.2578 -0.1937  0.0934
63935W        W 6988  30.419  24.312  28.924  0.2616  0.0069 -0.0187
63936W        W 6989  24.781  26.256   9.875 -0.0037  0.2413 -0.0437
63937W        W 6990  33.084  30.140  27.976 -0.1738  0.2034  0.0807
63938W        W 6991   0.982  17.817   7.281 -0.3072 -0.1605  0.0417
63939W        W 6992   5.925  16.977  20.217 -0.0413  0.1710 -0.0697
63940W        W 6993  29.946   1.445   1.696 -0.1992 -0.0215  0.0301
63941W        W 6994  12.552   2.251  21.567 -0.0512 -0.1036  0.0780
63942W        W 6995  10.756  26.642   2.007  0.0547  0.1573 -0.2502
63943W        W 6996   4.585  28.259   3.498 -0.1804 -0.2644 -0.2521
63944W        W 6997   5.999  28.781   8.236 -0.0900  0.1016 -0.0988
63945W        W 6998   0.591  25.561  15.453 -0.1704  0.1875  0.1725
63946W        W 6999   5.402   2.729  27.181 -0.0358 -0.1788 -0.1838
63947W        W 7000  12.640   0.443   4.725 -0.1071  0.0215 -0.0107
63948W        W 7001  17.292  14.931   6.585  0.1737  0.1183 -0.4102
63949W        W 7002   9.462  25.134   6.492 -0.2252 -0.2528 -0.1903
63950W        W 7003  24.127  34.209   2.352 -0.0954 -0.0838 -0.0041
63951W        W 7004  34.081   7.605  22.165  0.2047  0.2687  0.2169
63952W        W 7005  34.125   3.958  21.582 -0.0884  0.2602  0.1563
63953W        W 7006   5.242  26.228   1.215  0.3363  0.1897  0.1555
63954W        W 7007  10.183   2.450   5.367 -0.0892  0.1530  0.0799
63955W        W 7008   8.394  31.510   8.806 -0.1144  0.1721  0.2125
63956W        W 7009  26.578  13.881  26.333 -0.2245  0.1892 -0.0784
63957W        W 7010   2.492   0.115   8.202 -0.2338  0.2104 -0.0176
63958W        W 7011  15.390   3.897   6.235  0.1639  0.2302  0.0355
63959W        W 7012   6.193   0.796   8.948  0.0960  0.1564  0.1232
63960W        W 7013   2.366  29.178   9.656  0.2034  0.2664  0.2420
63961W        W 7014   9.362  21.100  15.852  0.0429 -0.0371 -0.0576
63962W        W 7015   5.096  33.006   8.379  0.2853 -0.0748 -0.1066
63963W        W 7016   3.924  14.577   1.568 -0.0568 -0.2460  0.1444
63964W        W 7017  30.152  25.741  29.065 -0.1776 -0.1220 -0.2464
63965W        W 7018  13.634  31.503   5.653  0.0408 -0.2137 -0.1668
63966W        W 7019   4.943   8.601   0.773  0.1487  0.1081  0.1500
63967W        W 7020  15.691  10.739   0.412  0.0327  0.0585 -0.1043
63968W        W 7021   5.549  22.679   1.125  0.1202  0.0255  0.0948
63969W        W 7022  30.758  33.032  27.861 -0.0635  0.2192  0.1342
63970W        W 7023   3.174   7.141  28.582 -0.2445 -0.2244  0.1214
63971W        W 7024   4.911   4.443   6.168  0.0932  0.0267  0.1347
63972W        W 7025   0.684  18.043  29.053  0.0764 -0.0989  0.1403
63973W        W 7026  18.797  33.493   8.091  0.2818 -0.1799 -0.0387
63974W        W 7027  10.238  23.919  27.034 -0.3450 -0.0608  0.1311
63975W        W 7028  25.311  25.923   0.301 -0.0577  0.2909  0.0008
63976W        W 7029  27.136  20.110   8.975  0.3772 -0.0500  0.0191
63977W        W 7030  11.827  10.773   8.597 -0.1829  0.0666  0.0004
63978W        W 7031   6.900  25.619  23.331 -0.0580  0.2201  0.1180
63979W        W 7032   3.414  32.911  24.907  0.0844  0.1592 -0.1836
63980W        W 7033  10.688   0.857   9.678 -0.1871  0.2003 -0.1030
63981W        W 7034  21.678  32.848   9.131 -0.0616  0.1605  0.0357
63982W        W 7035   1.166   2.024  24.474 -0.0616  0.0395  0.1994
63983W        W 7036   6.469  28.342   3.909  0.2938 -0.1062 -0.0487
63984W        W 7037   3.176  18.580   7.274 -0.2492 -0.0436  0.2730
63985W        W 7038   8.165   4.904  16.601 -0.3414  0.1717  0.1391
63986W        W 7039  24.527  16.945  28.648  0.4772  0.0731 -0.4154
63987W        W 7040   1.083  31.996  24.411 -0.0997 -0.1825  0.0245
63988W        W 7041  32.308  28.911   8.761 -0.0022  0.0347 -0.0836
63989W        W 7042   2.105  27.081  28.881 -0.0548 -0.0442 -0.3103
63990W        W 7043   1.488  17.111   0.111  0.0785  0.1534 -0.2191
63991W        W 7044   0.949  27.436   7.409  0.0757 -0.4000  0.0409
63992W        W 7045  32.728  32.165   0.666  0.0542 -0.1056 -0.0151
63993W        W 7046  26.180  30.134   3.651  0.3682 -0.1767 -0.0337
63994W        W 7047   2.584   1.151   5.960  0.1261  0.0262  0.3071
63995W        W 7048   1.403  20.278   3.603 -0.0690 -0.0311  0.1561
63996W        W 7049  31.174  30.051  23.940  0.0089  0.4106 -0.0537
63997W        W 7050   6.380  27.624  22.850  0.0580 -0.1105  0.0510
63998W        W 7051   6.742   7.500   4.944  0.0083  0.0554 -0.0315
63999W        W 7052  28.561  24.277   9.910  0.0438 -0.3241 -0.2436
64000W        W 7053   4.318  32.854   9.348  0.1323 -0.3257 -0.0934
64001W        W 7054   9.726  26.123   5.278  0.2033 -0.0484 -0.1690
64002W        W 7055  18.987  32.667  21.336 -0.0928 -0.0966  0.1372
64003W        W 7056   9.869  13.487   6.278  0.1363  0.1046  0.0939
64004W        W 7057  12.195  24.055   2.452 -0.2016  0.1640  0.1967
64005W        W 7058  10.366  21.904   0.510  0.0311  0.0860 -0.3865
64006W        W 7059   5.409  21.515   6.335 -0.1467  0.0762  0.2803
64007W        W 7060  25.363  19.423   9.894 -0.0555  0.3883  0.3523
64008W        W 7061   8.590  22.139   7.878  0.2949  0.1253 -0.2315
64009W        W 7062   3.618  12.555  18.576 -0.0594 -0.0988 -0.0938
64010W        W 7063  30.133  22.974   3.327  0.0344  0.1455  0.1581
64011W        W 7064  28.593  11.667  28.103 -0.0157  0.0572  0.1646
64012W        W 7065  29.453  29.688   2.811  0.0797 -0.1898 -0.2149
64013W        W 7066  12.231   3.148   9.877 -0.1961  0.1098 -0.0567
64014W        W 7067   6.074  19.858   0.046  0.0957  0.1055 -0.3528
64015W        W 7068  31.075   3.541   7.959  0.1617  0.1606 -0.0238
64016W        W 7069  25.230  21.528   4.134 -0.4100 -0.2002  0.4700
64017W        W 7070  16.767  22.707   2.047  0.2190 -0.1194 -0.3158
64018W        W 7071  30.874   0.509   5.871  0.1568 -0.0293 -0.0330
64019W        W 7072   1.315  31.413   6.047 -0.0217 -0.0457 -0.2339
64020W        W 7073  20.506  19.068  19.592 -0.1015  0.0665  0.1891
64021W        W 7074  15.155  12.020   6.836 -0.0748  0.0202 -0.0723
64022W        W 7075  33.541   0.704   1.675 -0.0467  0.0439 -0.2861
64023W        W 7076   9.521  21.931   6.966  0.2329 -0.0354 -0.0537
64024W        W 7077   0.195  30.481   6.093  0.0071  0.1324 -0.2821
64025W        W 7078  32.396   0.730   0.844 -0.0757  0.4883  0.3046
64026W        W 7079  24.944  18.956   6.161 -0.2797  0.0899  0.3592
64027W        W 7080  14.258   7.404   5.302  0.1396 -0.0622 -0.2094
64028W        W 7081  14.272   6.611   3.995  0.0942 -0.0037  0.2301
64029W        W 7082   6.362  28.352   4.661 -0.3241  0.1948 -0.3139
64030W        W 7083   7.198  12.569   8.609 -0.0820  0.2307 -0.0710
64031W        W 7084  13.311  23.034   7.718 -0.0027  0.0366 -0.2000
64032W        W 7085   2.084  22.562  21.411 -0.0685 -0.1986  0.1196
64033W        W 7086  30.082  18.605   1.116  0.2272 -0.1387 -0.3347
64034W        W 7087  26.584  21.361   2.467 -0.1276 -0.1436  0.1188
64035W        W 7088  33.937  12.387  25.707  0.0237 -0.0009  0.1675
64036W        W 7089   0.392   6.872  27.274  0.0002 -0.0315 -0.3194
64037W        W 7090   7.297  12.220   3.302 -0.0569  0.1699  0.1155
64038W        W 7091  33.310   6.122  21.914 -0.0296  0.2709  0.2505
64039W        W 7092   0.969  33.401   0.161  0.0878 -0.0513 -0.3701
64040W        W 7093   7.050  32.944  26.103  0.0247 -0.2168  0.2748
64041W        W 7094   0.818  28.711   3.668  0.2884  0.0812 -0.1474
64042W        W 7095  29.799  19.779  24.253 -0.2033  0.1647  0.0828
64043W        W 7096  28.537  22.671   8.287 -0.0607 -0.0992 -0.1781
64044W        W 7097  31.067   5.999  10.010  0.2955 -0.1266  0.2403
64045W        W 7098   1.101   9.636   5.996  0.2593 -0.0292  0.0529
64046W        W 7099  30.986   2.443   7.825  0.0103 -0.2504  0.2207
64047W        W 7100   0.053   1.696  26.083  0.2081  0.0051  0.1058
64048W        W 7101  10.238  25.585   3.565  0.2366 -0.2743  0.0322
64049W        W 7102  32.473  12.877  24.153  0.2802 -0.3155 -0.0964
64050W        W 7103   0.316  30.093  23.730 -0.2606 -0.1674 -0.1237
64051W        W 7104   3.840  24.278  26.355  0.1257 -0.2053 -0.1574
64052W        W 7105  31.305  24.542   6.679  0.1478  0.1049  0.2686
64053W        W 7106  31.225  11.176  25.769 -0.3222  0.0000  0.0657
64054W        W 7107  26.445  19.966   7.578  0.2683 -0.4603 -0.3360
64055W        W 7108  25.295  26.039   5.369  0.0556  0.2371  0.3016
64056W        W 7109   1.203  32.948   2.423 -0.1906 -0.2407  0.0174
64057W        W 7110   6.791  18.540  22.263 -0.2539  0.1166  0.3474
64058W        W 7111  26.558  21.722   9.616 -0.0525 -0.0664  0.1060
64059W        W 7112   0.644  24.981  28.171  0.0207 -0.0046  0.3286
64060W        W 7113  33.866  21.321   6.716 -0.2433  0.1643  0.2928
64061W        W 7114  31.145  16.394   4.707 -0.0752  0.3858  0.0728
64062W        W 7115  13.603  34.212  17.370  0.0491 -0.0835  0.1609
64063W        W 7116   1.421  33.082  19.315 -0.1422 -0.1113  0.0284
64064W        W 7117  23.597  34.372   6.205 -0.0726  0.3522 -0.1404
64065W        W 7118   1.764   0.968   3.868 -0.1134 -0.0158  0.0416
64066W        W 7119  31.928  20.538  28.422 -0.3378 -0.0437  0.1052
64067W        W 7120  29.591   1.356   4.894 -0.0078  0.0304  0.1230
64068W        W 7121  28.072  11.785  10.832  0.0202 -0.1550 -0.2247
64069W        W 7122   4.584  34.243   8.884 -0.4211 -0.0876 -0.0824
64070W        W 7123  13.375  24.126   1.772  0.1360 -0.1171  0.1994
64071W        W 7124  33.398  17.057  25.847  0.0698  0.1482 -0.0262
64072W        W 7125   4.889  33.589   1.533 -0.2159  0.1749 -0.1945
64073W        W 7126  33.526   2.714  27.675  0.1384 -0.3041 -0.2985
64074W        W 7127  30.334  32.480  28.756 -0.1167  0.0150 -0.1232
64075W        W 7128   4.429  21.921   7.558 -0.0551 -0.3102 -0.0481
64076W        W 7129   3.848  24.914   8.426  0.2524 -0.0790  0.0484
64077W        W 7130  17.834  15.463   9.230  0.3453  0.0575  0.1210
64078W        W 7131  33.467  28.316  28.762  0.2182  0.4385  0.1170
64079W        W 7132  31.895  11.859   7.786  0.0865  0.0268 -0.3494
64080W        W 7133  29.483  13.241   0.745  0.4574  0.0597 -0.0659
64081W        W 7134  21.611  12.261  10.667 -0.0472 -0.1644  0.0526
64082W        W 7135  32.736   2.770  22.719  0.5500 -0.2429  0.0284
64083W        W 7136  12.022  12.891   8.186 -0.0057  0.0876  0.0056
64084W        W 7137  31.858  19.980  23.488 -0.1350 -0.0919 -0.1917
64085W        W 7138   9.354   7.780   2.870  0.3266  0.2564 -0.2417
64086W        W 7139   2.890  33.655  10.116  0.0173 -0.0436 -0.0587
64087W        W 7140  32.644  26.956  27.923 -0.0059 -0.1732  0.2573
64088W        W 7141  29.294  33.092   6.719  0.2463 -0.0236  0.1926
64089W        W 7142  13.939  30.015   9.124  0.2064 -0.1091  0.3641
64090W        W 7143   3.196  27.828  24.921  0.0533  0.0607  0.2368
64091W        W 7144  32.486  17.317   5.124  0.0557 -0.2468 -0.1452
64092W        W 7145  31.182  31.552   5.463  0.0335 -0.0012  0.0246
64093W        W 7146   8.934  32.384   4.191 -0.0437  0.1081 -0.0768
64094W        W 7147  31.536  25.920   0.401 -0.1571 -0.1637  0.2566
64095W        W 7148  28.634  26.390   0.329  0.1232 -0.4394 -0.1600
64096W        W 7149  18.003  30.191  27.630  0.0464 -0.1007 -0.2277
64097W        W 7150   2.476  31.690   8.750 -0.1266 -0.0796 -0.1351
64098W        W 7151  19.269  27.847   6.564  0.0132 -0.2518 -0.0032
64099W        W 7152   1.753  17.428  19.594  0.0042 -0.0535 -0.0079
64100W        W 7153   8.621   3.395  10.228  0.0296 -0.1677  0.3507
64101W        W 7154  21.986  18.742   6.610 -0.1090 -0.2287  0.0575
64102W        W 7155   8.073  21.895   2.723 -0.0992  0.0699  0.3192
64103W        W 7156   1.361   1.613  29.188  0.0296 -0.0078  0.3399
64104W        W 7157  13.372  34.542  27.143 -0.0037 -0.1415  0.1042
64105W        W 7158   2.318  23.898   3.792 -0.2631 -0.1086 -0.1211
64106W        W 7159  17.828  13.811   5.299  0.3074  0.1781  0.3207
64107W        W 7160   0.562  22.185   5.407  0.0786  0.0504 -0.0955
64108W        W 7161  15.333  29.796   7.065  0.1485  0.0898  0.3946
64109W        W 7162  27.918  14.373  10.303 -0.0566 -0.3874  0.0944
64110W        W 7163   0.085  22.612  25.708  0.0779  0.0766  0.0609
64111W        W 7164  29.291  27.631  22.802 -0.2551  0.2713  0.3038
64112W        W 7165   5.167   7.348   5.302 -0.0821 -0.3764 -0.1196
64113W        W 7166  15.033  25.773   8.917 -0.1200 -0.0714 -0.1064
64114W        W 7167  29.787  24.720   8.887  0.0137  0.0325  0.0334
64115W        W 7168   6.152   7.759   1.417  0.1777 -0.1411  0.0731
64116W        W 7169  12.910  13.205   1.285  0.4496 -0.0476 -0.0973
64117W        W 7170   2.450  24.549   1.890  0.1401  0.2067 -0.0609
64118W        W 7171   4.587  25.248   3.430 -0.0849  0.3468 -0.1558
64119W        W 7172   3.883  27.626   7.768  0.0842 -0.2653  0.3466
64120W        W 7173  24.245  33.433   9.103 -0.2810  0.0121  0.1051
64121W        W 7174  32.664  10.705   2.807  0.2347  0.0983 -0.2701
64122W        W 7175  10.587   5.963  19.448  0.2123 -0.0883 -0.1945
64123W        W 7176  23.506  29.477  17.488 -0.1763  0.0205  0.1253
64124W        W 7177   6.918  22.141   8.404 -0.1166  0.0310  0.2691
64125W        W 7178  24.581  22.790   9.636 -0.1711  0.0392 -0.1093
64126W        W 7179  25.576  11.822  24.060  0.2229 -0.1044 -0.0345
64127W        W 7180  31.433  28.900   6.118  0.2692  0.0704 -0.1839
64128W        W 7181  10.879  19.929   6.522 -0.1578 -0.1541  0.2813
64129W        W 7182  32.779  24.911   6.737  0.2318  0.0736  0.2428
64130W        W 7183  29.378  17.642  24.327 -0.1485  0.0889  0.1477
64131W        W 7184   4.788  20.085   1.325  0.1239 -0.0370 -0.0650
64132W        W 7185  10.705  28.325   0.585 -0.0009 -0.1837  0.1099
64133W        W 7186  14.572  20.626   1.499  0.1567 -0.2611 -0.1232
64134W        W 7187  22.921  19.275   8.289 -0.0547 -0.2544 -0.3392
64135W        W 7188   2.601  20.672   5.178  0.0238  0.0465  0.2107
64136W        W 7189  30.717  25.732   4.978  0.1353  0.0404  0.0776
64137W        W 7190   9.425  32.132  28.172  0.2042  0.1537  0.1007
64138W        W 7191  28.448   7.727   3.547  0.0975  0.1060  0.0955
64139W        W 7192   7.279  12.111   4.022 -0.2039 -0.2092  0.2663
64140W        W 7193  31.368  27.512   2.293  0.0018  0.2190 -0.0530
64141W        W 7194  29.545  25.432   3.164  0.0441 -0.1987  0.1515
64142W        W 7195   5.458  24.172   6.920  0.0086  0.2487 -0.1096
64143W        W 7196   0.359  28.192   4.572  0.0856 -0.1720 -0.1802
64144W        W 7197  30.762   3.315   9.147  0.1031  0.1606 -0.1878
64145W        W 7198  13.438   1.170   2.910 -0.1723 -0.3408  0.1999
64146W        W 7199   0.394  26.080   5.173  0.1193 -0.3353  0.0281
64147W        W 7200  31.408  12.544  13.939  0.0115  0.1758 -0.1542
64148W        W 7201  33.790  26.683   3.224 -0.1464  0.2712 -0.0356
64149W        W 7202  21.059  22.877   4.087  0.1492  0.1727  0.2468
64150W        W 7203  33.627  29.441  22.910 -0.1471  0.0075 -0.2229
64151W        W 7204   3.748  34.433   3.809  0.2614 -0.0671 -0.3173
64152W        W 7205  10.875  20.278  25.948 -0.4488 -0.1262 -0.2426
64153W        W 7206  14.514  16.125   4.026 -0.2529 -0.2747  0.0908
64154W        W 7207  11.972  22.624   8.085 -0.0133 -0.1459 -0.1956
64155W        W 7208  30.733  33.761   6.935  0.0634 -0.1292  0.0269
64156W        W 7209  21.478  25.593   6.737 -0.0524 -0.2907 -0.1817
64157W        W 7210   9.712   7.559   3.048 -0.0432 -0.0941  0.0223
64158W        W 7211  34.161   2.315  18.551  0.3047 -0.2899 -0.0238
64159W        W 7212  32.385  13.518   5.730 -0.1632  0.3502  0.0314
64160W        W 7213  27.335  18.688   9.475 -0.1405 -0.2344  0.1254
64161W        W 7214  32.231  19.683   9.354 -0.1545  0.2993 -0.2588
64162W        W 7215  31.542  26.267   2.594  0.0793 -0.2553 -0.2305
64163W        W 7216  33.319  22.282   6.095  0.0365 -0.2532  0.2001
64164W        W 7217  25.864  24.022   3.374 -0.0433  0.1475 -0.3749
64165W        W 7218  17.376  11.585  23.769 -0.1984  0.0470 -0.3651
64166W        W 7219   5.588  16.074   7.565 -0.0220 -0.0047 -0.0868
64167W        W 7220   0.361  19.927   4.249 -0.0673  0.2199  0.1286
64168W        W 7221  13.790  30.278  23.293  0.3113  0.0647  0.0135
64169W        W 7222  13.209  12.289   3.881  0.1834  0.1063  0.1558
64170W        W 7223  33.315  19.359   3.656  0.2349  0.3510 -0.1362
64171W        W 7224  27.760  27.059  23.613 -0.2727  0.0358  0.1665
64172W        W 7225  18.022  27.073   6.289 -0.0421  0.2703 -0.2209
64173W        W 7226   0.399  10.675  14.765 -0.1413 -0.2278 -0.1260
64174W        W 7227  17.864  23.981   5.941 -0.0458 -0.0760 -0.0553
64175W        W 7228   0.477  25.375  26.995 -0.0046  0.0654  0.0234
64176W        W 7229   6.088  22.476   1.753  0.0813  0.0856 -0.2125
64177W        W 7230   2.731  28.812   1.727 -0.0960  0.2376 -0.1164
64178W        W 7231   7.529  23.136  15.833 -0.0984  0.1095 -0.2074
64179W        W 7232  28.224  22.906   9.874  0.3048 -0.0612 -0.0443
64180W        W 7233  31.702  33.733   0.849  0.1217  0.1795 -0.1412
64181W        W 7234  10.643  11.959  19.501 -0.1931 -0.1815  0.1068
64182W        W 7235  33.678  10.790  26.525  0.0920  0.0471 -0.1211
64183W        W 7236   9.146  25.841   7.259 -0.1184  0.5341 -0.1017
64184W        W 7237  30.256  33.376   6.154 -0.4044  0.0043  0.0496
64185W        W 7238  11.219  27.362  24.421  0.0441 -0.1260 -0.0952
64186W        W 7239  29.568  16.046   3.911 -0.1273 -0.1486  0.0565
64187W        W 7240  27.916  26.277   4.313 -0.1192 -0.1739 -0.0724
64188W        W 7241  31.280   5.639  29.196  0.2043 -0.2952  0.1304
64189W        W 7242  32.033  21.551  10.032 -0.0721  0.0629  0.1924
64190W        W 7243  33.874  16.656   0.282  0.2609 -0.0669 -0.2964
64191W        W 7244  27.153  26.166   1.754 -0.0673  0.1320  0.1152
64192W        W 7245  32.565   6.276   9.784  0.2533 -0.1831  0.0794
64193W        W 7246  33.221   3.050   8.088 -0.2423  0.2722  0.1927
64194W        W 7247  29.521   1.260   9.035 -0.0358 -0.0366  0.0448
64195W        W 7248  31.545   1.072   8.824  0.0820 -0.0909  0.0171
64196W        W 7249   3.583  31.242   9.927 -0.2119  0.0733 -0.2019
64197W        W 7250  12.275  26.175   7.823 -0.1046  0.0695  0.2889
64198W        W 7251  23.713  22.435   9.813 -0.0871  0.1184  0.1615
64199W        W 7252  10.789  34.591  22.866 -0.0156  0.3210 -0.2791
64200W        W 7253  24.435  31.069   7.101 -0.1627  0.0656  0.1088
64201W        W 7254   5.746  33.218  19.877 -0.1330 -0.1303 -0.0703
64202W        W 7255  34.516  10.436  28.851  0.1338 -0.0021  0.0883
64203W        W 7256   2.692  12.775   0.527 -0.0793 -0.0614  0.0983
64204W        W 7257  23.530  22.719   1.144 -0.2242 -0.0101 -0.1136
64205W        W 7258  23.480  11.945  10.625 -0.2527 -0.2796 -0.3387
64206W        W 7259  31.867  20.699   7.269  0.0971  0.0190 -0.0871
64207W        W 7260  11.674   0.965   5.666  0.1437 -0.2037 -0.0266
64208W        W 7261  34.151  26.472   7.600  0.2359 -0.1618 -0.0019
64209W        W 7262  25.469  14.201  26.064  0.3679  0.2380  0.0558
64210W        W 7263  31.689   9.050   7.477 -0.0284 -0.1867  0.1055
64211W        W 7264   4.885  31.467   8.978 -0.0672 -0.0596  0.0742
64212W        W 7265   0.914   0.878   1.708 -0.1723 -0.1130 -0.0799
64213W        W 7266   1.400  27.330   6.126  0.1886 -0.1770 -0.1035
64214W        W 7267   1.114  32.021  28.899 -0.2773 -0.1299  0.1683
64215W        W 7268   2.227  32.717   6.338 -0.0009 -0.0170  0.0539
64216W        W 7269  20.208  16.666   9.386  0.0613  0.0212 -0.0840
64217W        W 7270   4.041  20.018  25.582  0.3388  0.3133  0.3154
64218W        W 7271  32.649  16.555   9.938 -0.3131  0.2757  0.0540
64219W        W 7272  32.077  30.982   8.721 -0.0346  0.2444 -0.0992
64220W        W 7273   0.902  23.589  25.630  0.2192  0.3700 -0.2509
64221W        W 7274  34.607  25.358   1.681  0.3053  0.1046 -0.1034
64222W        W 7275  15.764  16.621   6.271 -0.1151  0.0446 -0.2975
64223W        W 7276  13.610  19.102  24.225  0.0995  0.2159 -0.1961
64224W        W 7277  12.867  20.513   2.523 -0.1478 -0.0540  0.0481
64225W        W 7278  25.362  30.563   6.305 -0.1951 -0.0272  0.3549
64226W        W 7279   9.742  27.990   7.419 -0.3403 -0.0104 -0.2312
64227W        W 7280  24.630  20.710   2.164  0.0430 -0.0255 -0.0280
64228W        W 7281  26.507  34.150  21.668 -0.0571 -0.0281 -0.1654
64229W        W 7282  22.736  27.350  10.299  0.1374  0.3831 -0.0636
64230W        W 7283  13.504  30.385   5.613 -0.3040 -0.0274  0.3903
64231W        W 7284  23.841  10.295   8.015 -0.1559  0.0205  0.2776
64232W        W 7285  32.696  26.307   3.644  0.1171 -0.3176  0.0579
64233W        W 7286  32.219   9.229  23.656  0.0242 -0.0009 -0.2845
64234W        W 7287  11.704  32.768  24.549 -0.1005 -0.3176 -0.1379
64235W        W 7288   6.582  33.255   9.734 -0.0437 -0.0571  0.2328
64236W        W 7289  22.585  34.465   3.499  0.3426 -0.0395 -0.1376
64237W        W 7290  32.062  31.435   0.467  0.0369 -0.2793 -0.0240
64238W        W 7291  22.866  13.203  24.611 -0.1418  0.1122 -0.0688
64239W        W 7292  18.657  14.181   6.812  0.0514 -0.4064 -0.0779
64240W        W 7293   4.651  32.681   8.280  0.0330  0.2534 -0.0365
64241W        W 7294  13.245  29.310   8.352 -0.2345 -0.0778  0.1964
64242W        W 7295  29.441  22.826   9.345  0.0212  0.0518  0.0331
64243W        W 7296  23.050  28.291   6.220 -0.1799 -0.0152  0.1522
64244W        W 7297  25.246  23.225   4.510 -0.3663 -0.2037 -0.1377
64245W        W 7298   2.727  28.707  28.960  0.3766 -0.0444  0.2682
64246W        W 7299  23.758   8.490  23.088 -0.0055 -0.0101 -0.0283
64247W        W 7300   3.934  28.573   4.157 -0.0055  0.0906 -0.1259
64248W        W 7301  34.622  19.977   2.127 -0.1058 -0.0310 -0.0433
64249W        W 7302   1.879  32.437  25.799  0.0104  0.0624 -0.0058
64250W        W 7303  30.798   9.977  10.623 -0.2816  0.3687 -0.3887
64251W        W 7304   9.259  19.905  29.184 -0.0517 -0.1692 -0.1542
64252W        W 7305  11.715   1.384   9.994  0.1078  0.3050  0.1286
64253W        W 7306  31.050   4.201  27.773  0.1805 -0.0882 -0.1128
64254W        W 7307   4.134  24.560  23.478  0.1661  0.0272 -0.2481
64255W        W 7308  27.020   7.521  18.636  0.2671  0.1775  0.0324
64256W        W 7309   1.880  15.033   8.982 -0.1869 -0.0779 -0.0878
64257W        W 7310  33.307  19.110   4.096 -0.1331  0.3360 -0.0820
64258W        W 7311  28.144  33.209   8.349 -0.0593  0.1494  0.0937
64259W        W 7312   1.854  20.556  25.120  0.1965  0.0333 -0.0663
64260W        W 7313  18.520  17.492   8.035 -0.3439 -0.1530  0.0089
64261W        W 7314   7.814   4.679   0.727 -0.1268  0.2774 -0.0031
64262W        W 7315  31.020  17.762   9.778 -0.0704 -0.1086 -0.1504
64263W        W 7316   2.562  28.414   2.001 -0.0379 -0.2879  0.1706
64264W        W 7317  23.316   8.498   3.557  0.3752  0.0684 -0.0968
64265W        W 7318  14.740  12.157   0.201  0.1669  0.0558 -0.0161
64266W        W 7319  33.503  25.790   4.027  0.0729  0.2204 -0.2087
64267W        W 7320  17.624   2.173   9.051 -0.2089  0.1736  0.0881
64268W        W 7321   3.568  26.319  18.845  0.0289  0.1197 -0.0726
64269W        W 7322   3.554   7.594   6.044 -0.2329  0.3413  0.3409
64270W        W 7323  21.681  20.075   5.717 -0.1883  0.0599 -0.1098
64271W        W 7324   5.389   6.300  28.214  0.0726  0.2256  0.4875
64272W        W 7325   3.486  30.766   8.358  0.1137  0.1540  0.2906
64273W        W 7326  33.815   1.716  28.910 -0.0626 -0.1560 -0.0430
64274W        W 7327  20.040  24.040   0.351  0.3568  0.0507  0.1259
64275W        W 7328  11.209  20.144   5.009 -0.1204  0.0994  0.2447
64276W        W 7329  24.679   4.010   4.168  0.0286 -0.0535  0.0346
64277W        W 7330  27.200  16.817  22.435  0.2365  0.3291  0.1899
64278W        W 7331   4.455   9.458  22.735 -0.2996 -0.3147  0.4804
64279W        W 7332  11.283  34.649   5.874 -0.2139  0.1494  0.0984
64280W        W 7333   3.666  14.658   0.627 -0.2104  0.1351  0.0827
64281W        W 7334   1.592   6.251   6.666  0.0797 -0.0793  0.1365
64282W        W 7335   5.768  31.870   8.984  0.2826  0.1428 -0.3591
64283W        W 7336  19.030   4.791   5.320 -0.0714 -0.1567 -0.0379
64284W        W 7337  31.017  20.480   2.889  0.1388  0.1169 -0.0828
64285W        W 7338  33.270  28.873   3.347  0.3042 -0.2250  0.0867
64286W        W 7339   0.973  16.397   8.436 -0.1323  0.1246 -0.0138
64287W        W 7340  32.310  23.765  27.437  0.0925 -0.1183 -0.0583
64288W        W 7341  28.506  26.885   6.823 -0.0362 -0.0277 -0.1038
64289W        W 7342  25.850   7.655   3.150  0.1016  0.3577 -0.1812
64290W        W 7343  19.293  14.704   3.186  0.0158 -0.0060  0.1923
64291W        W 7344  10.084  22.994   0.729 -0.0225 -0.1449 -0.0947
64292W        W 7345  19.618  32.607   1.339 -0.0070  0.3240 -0.1770
64293W        W 7346  13.889   5.647  10.277  0.1442  0.2014 -0.1107
64294W        W 7347   1.118  31.760   3.673  0.0346 -0.1072  0.0528
64295W        W 7348   4.288  17.900  29.086  0.0132  0.2906  0.1988
64296W        W 7349  28.679  19.928  26.505  0.0580 -0.0192  0.1764
64297W        W 7350  34.274  25.126  28.523  0.0330 -0.0986  0.0673
64298W        W 7351  26.062  22.305  22.990 -0.2832  0.0194 -0.2573
64299W        W 7352   9.531   2.888   4.691  0.1290 -0.2413  0.0912
64300W        W 7353  20.942  27.759   5.422 -0.0490 -0.0844 -0.0602
64301W        W 7354   4.695  31.990   2.550 -0.1034  0.1083  0.1555
64302W        W 7355  31.410   9.739  28.039 -0.0364  0.0492 -0.2003
64303W        W 7356   0.822  18.244   1.446 -0.3078  0.2908 -0.0716
64304W        W 7357  18.987  31.785  28.774 -0.1105 -0.2452  0.0038
64305W        W 7358   7.112  24.658   4.814 -0.0073 -0.0617 -0.1431
64306W        W 7359  12.777  22.743   6.510 -0.1625 -0.2186  0.0660
64307W        W 7360   8.602   7.929  20.154  0.1152  0.0735  0.3384
64308W        W 7361  30.110   3.691  19.685  0.1698 -0.0092  0.2380
64309W        W 7362  31.696  23.987   0.443 -0.0476  0.0195 -0.1441
64310W        W 7363   4.407  28.823   5.273  0.4138  0.1328  0.2372
64311W        W 7364  28.985  27.127   9.551 -0.2346 -0.3393 -0.0307
64312W        W 7365  13.487  12.810   3.841 -0.0298  0.0412 -0.1213
64313W        W 7366  19.834  29.654  27.200 -0.0408  0.1031  0.1205
64314W        W 7367   8.188   4.354   1.847 -0.1828 -0.0253  0.2389
64315W        W 7368  24.007  30.237   6.028  0.1008 -0.1958 -0.4025
64316W        W 7369  18.961  25.687   1.776 -0.0351 -0.1020 -0.2505
64317W        W 7370  24.282   0.016  10.079 -0.0100  0.0255 -0.0028
64318W        W 7371   4.448   6.846  26.504  0.0664  0.2249 -0.1746
64319W        W 7372  20.264  30.325   1.343  0.0210  0.0845  0.2088
64320W        W 7373  12.193  27.238   0.132 -0.1964 -0.1889 -0.0698
64321W        W 7374   9.403  31.708   6.508  0.1270 -0.2324  0.0058
64322W        W 7375  11.090  27.681  26.865 -0.0692  0.0649  0.1595
64323W        W 7376   0.241   3.560  24.499  0.2329 -0.1745 -0.1028
64324W        W 7377  32.837  22.674   7.533 -0.1298  0.0436  0.3382
64325W        W 7378  29.552  30.287   8.270 -0.0166 -0.2866 -0.2914
64326W        W 7379  14.947  29.190   1.542  0.2422  0.0635 -0.0205
64327W        W 7380  25.198  22.151  19.076 -0.0715  0.3625  0.1804
64328W        W 7381  12.351  34.602  24.404  0.0371  0.1683 -0.2026
64329W        W 7382  16.657   0.588  23.838  0.2839  0.0342  0.1580
64330W        W 7383   0.041  31.818  25.030 -0.0858  0.1229 -0.0948
64331W        W 7384  16.973  28.144  27.870 -0.1239 -0.0051  0.0200
64332W        W 7385   6.639  33.691  28.386  0.0710  0.1224  0.0570
64333W        W 7386   4.084  17.685   3.937 -0.2538  0.2282 -0.2877
64334W        W 7387   5.220  25.308   6.211  0.1718 -0.0677  0.1032
64335W        W 7388  33.515  21.999  29.015 -0.1699 -0.0086  0.0472
64336W        W 7389  28.091   3.039  10.562  0.0126 -0.1038 -0.1484
64337W        W 7390  28.016  24.401   8.930  0.1931  0.2344 -0.0571
64338W        W 7391   2.447  28.997   7.779  0.0129  0.1322 -0.0987
64339W        W 7392   2.614  32.065  27.277 -0.1951 -0.0617 -0.1418
64340W        W 7393  18.825  27.340  17.008  0.3095  0.2656 -0.1860
64341W        W 7394   4.778   2.807   8.824 -0.2248 -0.0728 -0.2941
64342W        W 7395  24.590   6.542  23.474  0.0556 -0.1882  0.0710
64343W        W 7396  30.531  33.509   4.492 -0.1437  0.0258  0.2320
64344W        W 7397  34.507  32.005   8.797 -0.3702 -0.0309 -0.1942
64345W        W 7398  10.498   9.255   9.169 -0.2523 -0.2301 -0.1776
64346W        W 7399  30.504   7.213  19.352  0.1200  0.0843 -0.1684
64347W        W 7400   3.792  12.116   0.365  0.0153 -0.0657  0.0238
64348W        W 7401   4.695  26.507   5.273  0.1949 -0.2227 -0.2144
64349W        W 7402  28.631  24.095  17.553 -0.3761  0.3253  0.3375
64350W        W 7403  34.142  33.166   8.390 -0.2986 -0.0972  0.1616
64351W        W 7404   1.381  30.997  27.772  0.0696 -0.1540 -0.1500
64352W        W 7405  22.540  24.597   7.755  0.0999 -0.2382 -0.1748
64353W        W 7406   8.735  27.489  22.937  0.1885 -0.0522 -0.2287
64354W        W 7407  13.429  25.093   2.876 -0.2184 -0.1386 -0.0169
64355W        W 7408  18.793  33.627  24.481  0.3042  0.1131  0.0889
64356W        W 7409   0.859   6.733  13.640  0.2839 -0.1138 -0.1063
64357W        W 7410  19.028  28.339   9.736  0.1176 -0.2043 -0.1707
64358W        W 7411   2.209  25.509   0.340 -0.0187 -0.0243  0.1244
64359W        W 7412   1.501   5.788   2.618  0.1761 -0.2182 -0.1676
64360W        W 7413   5.546  30.899   4.010  0.0041 -0.2874  0.2144
64361W        W 7414   7.427   0.155   8.500 -0.2901  0.0222 -0.1998
64362W        W 7415  23.128  34.125  21.108  0.0427  0.0829  0.0030
64363W        W 7416   9.304  28.226   7.283 -0.3018  0.0727 -0.2228
64364W        W 7417  29.774   4.386  26.719  0.1199 -0.2545  0.0696
64365W        W 7418  34.446  34.486  17.713 -0.1034  0.0074 -0.1807
64366W        W 7419  14.094   6.519   3.293 -0.2774 -0.0994 -0.0373
64367W        W 7420   9.656   5.376  23.891  0.3692  0.1606  0.0091
64368W        W 7421  32.002   1.573  23.832  0.0996 -0.1059 -0.0164
64369W        W 7422  15.582  34.371   7.507 -0.4164  0.0582  0.0913
64370W        W 7423  34.068   7.904  28.413  0.2014  0.0325 -0.4137
64371W        W 7424  30.471   0.407   2.885  0.2566  0.0815  0.2336
64372W        W 7425  34.027   7.120  25.144 -0.0339 -0.1488  0.2031
64373W        W 7426  32.140   4.303  16.156 -0.0480  0.3133  0.1665
64374W        W 7427  20.239  22.480  25.856 -0.0215 -0.0202  0.1260
64375W        W 7428   1.862  30.010  22.926 -0.2221  0.1623  0.1584
64376W        W 7429  20.383   5.247  27.960 -0.0804  0.0234 -0.1269
64377W        W 7430   8.832   9.793  10.730 -0.2003  0.0222  0.3459
64378W        W 7431  10.426  33.390   8.556  0.2920  0.1113 -0.0470
64379W        W 7432  33.183   4.155   4.716  0.1113  0.1507  0.1359
64380W        W 7433  25.504   2.439  28.604  0.1151 -0.1710 -0.0117
64381W        W 7434  24.171  17.688  24.309 -0.0382 -0.0046 -0.3869
64382W        W 7435  25.548  18.287   4.775 -0.4215 -0.0740  0.1206
64383W        W 7436  32.984  26.899   5.184 -0.0367  0.0614  0.1276
64384W        W 7437  33.520  29.285   3.356  0.0670 -0.2193  0.3140
64385W        W 7438  31.320   1.563   6.617 -0.1124 -0.4879 -0.2376
64386W        W 7439  10.024  26.360  27.988 -0.0741 -0.0216  0.2386
64387W        W 7440   6.246  27.673   0.225  0.0058 -0.1845  0.1373
64388W        W 7441  34.225  17.829   6.292 -0.0828 -0.0411 -0.1021
64389W        W 7442  25.237  20.721  15.310  0.1090  0.0227 -0.0502
64390W        W 7443  14.211  28.833  24.026  0.1573  0.1721 -0.4071
64391W        W 7444   2.701  25.279   7.555  0.1047 -0.0312 -0.0844
64392W        W 7445  14.415   0.564   8.617  0.1643  0.0267  0.0422
64393W        W 7446  20.260  22.055  28.265  0.0448  0.1943 -0.0657
64394W        W 7447  34.343  16.819  25.897  0.0340 -0.0778 -0.1513
64395W        W 7448   4.483   9.153  26.502  0.0099 -0.1219 -0.0192
64396W        W 7449  12.540  26.962  25.943 -0.3069  0.2875  0.1594
64397W        W 7450   5.696  21.140  28.214  0.0586  0.0148  0.0143
64398W        W 7451  17.419  29.715   1.859 -0.1497  0.1207  0.1627
64399W        W 7452   7.860   1.917   7.735 -0.0867 -0.1128 -0.0945
64400W        W 7453  33.251  32.704   7.591 -0.2442 -0.5784 -0.1318
64401W        W 7454  14.810   0.732  28.467  0.0269  0.0527  0.1936
64402W        W 7455  25.074  16.324  27.169 -0.1568  0.1917  0.0247
64403W        W 7456  25.955  15.720   2.877  0.1166 -0.3126  0.0534
64404W        W 7457   6.458  15.868  19.662 -0.0530  0.2133  0.0107
64405W        W 7458  31.386   5.784   0.889 -0.1388 -0.0872  0.0755
64406W        W 7459  27.388  14.235   0.776  0.2176  0.0440 -0.0774
64407W        W 7460  34.178  28.099   8.707 -0.1010 -0.0015  0.1309
64408W        W 7461  30.256  27.454   2.321 -0.1074 -0.2195  0.0798
64409W        W 7462   1.432  32.983  27.981 -0.1005 -0.0102 -0.1148
64410W        W 7463   7.202  27.552  25.911 -0.0396 -0.3096 -0.0275
64411W        W 7464  25.934  17.997   1.580  0.0918  0.0380  0.0962
64412W        W 7465   5.458  34.302  25.712  0.5887  0.1560 -0.4099
64413W        W 7466   2.580  26.969   5.236  0.0430  0.0162  0.1517
64414W        W 7467   5.258  21.929  26.733 -0.4920 -0.0321 -0.2596
64415W        W 7468  10.185  17.160   2.070 -0.1259 -0.1110  0.2248
64416W        W 7469   1.272   8.590   1.600 -0.1342  0.2244 -0.0231
64417W        W 7470  24.537  17.060   3.837 -0.0054 -0.1624 -0.0521
64418W        W 7471  32.784  26.216  25.300 -0.0944  0.0281 -0.1941
64419W        W 7472  17.297   3.661   4.385  0.1463  0.1901  0.2821
64420W        W 7473   4.004  26.809  20.686 -0.0068  0.1041  0.1358
64421W        W 7474  28.558   7.910  15.021 -0.1363  0.1049  0.2557
64422W        W 7475   4.889  24.780  22.446  0.0517 -0.1605 -0.0628
64423W        W 7476   6.720  19.990   7.549  0.0694  0.2685  0.2395
64424W        W 7477  18.413  34.043  15.983  0.0641  0.5603 -0.1382
64425W        W 7478  28.954  20.240   5.345 -0.1977 -0.0145  0.1180
64426W        W 7479  24.548  16.801  26.562 -0.0360 -0.0680 -0.2197
64427W        W 7480   3.378  20.251   5.165 -0.1112  0.2545 -0.1910
64428W        W 7481   4.260  13.481   4.149 -0.1378 -0.0657  0.0875
64429W        W 7482  26.493  32.241   4.650  0.0231  0.1993  0.2488
64430W        W 7483  13.611   8.306  22.018 -0.2197  0.0861 -0.1292
64431W        W 7484  34.135   1.142   4.348 -0.2170 -0.0504 -0.1246
64432W        W 7485   1.033   1.138   7.691 -0.0355 -0.2047  0.0268
64433W        W 7486   4.276  24.131   4.147  0.1831 -0.0178  0.0792
64434W        W 7487   2.054  23.195  28.825 -0.1659 -0.2453  0.0428
64435W        W 7488  27.074   8.662   1.257  0.1127  0.1217 -0.0813
64436W        W 7489  17.402  12.809  26.152 -0.0484  0.2413 -0.1884
64437W        W 7490  27.132  27.475  28.759 -0.0972 -0.1225  0.1173
64438W        W 7491  21.021  27.081  19.602 -0.3051 -0.1812 -0.3268
64439W        W 7492  24.384  25.617  18.398  0.0431  0.0568 -0.0736
64440W        W 7493  19.593  14.232  12.821  0.0319 -0.0721 -0.0360
64441W        W 7494  32.700  31.708  29.039 -0.1267  0.0423 -0.4503
64442W        W 7495  20.359  21.755  18.899 -0.0497 -0.4646  0.0041
64443W        W 7496   6.404  28.615   6.405  0.2579 -0.0557 -0.0747
64444W        W 7497  30.812   6.584   7.833 -0.0282  0.0383 -0.3775
64445W        W 7498   7.725   1.489   2.659 -0.2667 -0.0741 -0.1375
64446W        W 7499   3.122   3.561  27.275  0.1425  0.0325 -0.2900
64447W        W 7500   6.066   0.165  22.538 -0.5306  0.0567 -0.0740
64448W        W 7501  10.951  10.550  10.979 -0.0703 -0.0838  0.0891
64449W        W 7502  31.980   5.098  24.262  0.0714 -0.0202  0.2856
64450W        W 7503  25.383   2.342   9.584 -0.3038  0.0409 -0.0353
64451W        W 7504   2.562  11.816   2.733  0.1849  0.0262  0.0334
64452W        W 7505   4.463  29.823  28.206 -0.0121  0.2298 -0.1071
64453W        W 7506  14.840  18.862  25.624  0.3320  0.0325 -0.0197
64454W        W 7507   4.214  33.957   2.707  0.1116 -0.0098 -0.2504
64455W        W 7508   2.664  32.775  14.272 -0.0712  0.1769 -0.0360
64456W        W 7509   0.846   3.011  28.550 -0.2554 -0.2279 -0.0991
64457W        W 7510  34.055  22.522  19.849  0.0949  0.2752  0.0939
64458W        W 7511  12.201  31.220   7.277 -0.1359 -0.1192 -0.0336
64459W        W 7512  27.425   6.504  18.043  0.3294  0.2296 -0.0633
64460W        W 7513  17.256   2.688   3.488  0.1254  0.3707  0.0135
64461W        W 7514  24.425   1.135  18.819 -0.0925  0.0910 -0.0254
64462W        W 7515  34.123  24.932  26.157 -0.2285 -0.0052 -0.4519
64463W        W 7516  11.096  29.973   5.281  0.1466 -0.3275  0.1973
64464W        W 7517  17.555  32.881   5.873 -0.2458  0.0429  0.1240
64465W        W 7518   7.962  24.563   2.287  0.0196 -0.0613  0.1520
64466W        W 7519  28.562  22.573   9.981 -0.0500  0.0682 -0.0496
64467W        W 7520   1.883  30.551  23.915  0.1011  0.1789  0.0909
64468W        W 7521  30.897  34.536  22.994 -0.1149  0.0070  0.0338
64469W        W 7522  31.456  26.498  26.907  0.3677  0.3934 -0.0541
64470W        W 7523   4.113  30.608  28.426 -0.0386 -0.2570  0.0677
64471W        W 7524   3.251  21.182   9.462  0.0024  0.0406  0.3666
64472W        W 7525  13.097   8.255  16.592  0.1057 -0.1893 -0.0201
64473W        W 7526   1.091  10.176   5.942 -0.1072 -0.0921 -0.0993
64474W        W 7527   0.956  28.008  23.874  0.2534  0.0887  0.1985
64475W        W 7528  23.664  29.570   3.403  0.0066  0.0349  0.0183
64476W        W 7529   4.011  21.504  27.903  0.3704  0.1903 -0.0354
64477W        W 7530  19.602  27.539  24.629 -0.0011  0.1036  0.2382
64478W        W 7531  25.008   4.769  20.776 -0.0751  0.4074 -0.0945
64479W        W 7532   0.881  22.907  28.027  0.0071 -0.0760  0.0317
64480W        W 7533   9.721   0.362   5.749 -0.0406  0.1639  0.0480
64481W        W 7534  10.765   3.537   3.058 -0.2517  0.4642 -0.1649
64482W        W 7535   4.186   3.683  21.925 -0.2246 -0.1813 -0.1709
64483W        W 7536   9.758   6.046  26.054 -0.0318  0.1376  0.1010
64484W        W 7537   1.552  23.553  16.623  0.0791 -0.0202  0.1042
64485W        W 7538  13.999  26.748  18.835  0.1100  0.1094 -0.0979
64486W        W 7539   7.889   5.183  27.677 -0.2569 -0.1382  0.3315
64487W        W 7540   1.630  32.326   7.632 -0.1247  0.1095  0.0948
64488W        W 7541   0.941   2.693  20.938 -0.1663 -0.1049  0.0830
64489W        W 7542  31.466   3.554   9.260 -0.0404  0.2487  0.0435
64490W        W 7543   3.398   5.579   8.999 -0.1614  0.0805 -0.1548
64491W        W 7544   8.635  28.963  27.657 -0.3356 -0.1659  0.3763
64492W        W 7545  29.610  31.734   7.831  0.0065 -0.1022 -0.0221
64493W        W 7546  29.927  23.875   4.780  0.1543  0.0365 -0.0494
64494W        W 7547  22.393   6.654  23.756 -0.2391  0.0049  0.0610
64495W        W 7548  18.510  32.962   7.283  0.2015 -0.2194  0.0720
64496W        W 7549   8.456   0.887   3.134 -0.3316 -0.1864  0.0214
64497W        W 7550   3.826  29.705  25.200  0.0528 -0.2841  0.0838
64498W        W 7551  28.493  30.429  15.316  0.0896  0.1147 -0.0705
64499W        W 7552   1.971  22.265  18.602  0.0253 -0.0976  0.2679
64500W        W 7553   4.534  32.369  22.076  0.0427  0.3773 -0.1955
64501W        W 7554   5.656  29.936  27.615 -0.2498 -0.2082  0.0064
64502W        W 7555  15.660  27.443   9.408 -0.0871  0.0454  0.0916
64503W        W 7556  28.464  31.760   4.581  0.0781 -0.2281 -0.1876
64504W        W 7557  31.277  11.618   4.263 -0.1992  0.0173  0.2983
64505W        W 7558   7.139  23.538   2.515  0.2997  0.0180  0.0017
64506W        W 7559   5.056  31.070  18.713  0.0713  0.1380  0.2126
64507W        W 7560   4.678   4.212   7.124  0.0113  0.0905 -0.1966
64508W        W 7561  30.281   3.735   4.150  0.0214 -0.1200  0.0815
64509W        W 7562   1.147   9.239   2.566 -0.1884  0.0875 -0.1980
64510W        W 7563  25.899  25.034  16.419 -0.0361 -0.1532  0.1092
64511W        W 7564  28.161  25.922   2.423 -0.1572  0.0767  0.0325
64512W        W 7565  31.908  22.452   7.526  0.0981  0.1043 -0.2012
64513W        W 7566   4.482   2.285   7.594  0.0910 -0.0151  0.1335
64514W        W 7567   2.014  19.856   8.260 -0.0816 -0.0535 -0.1971
64515W        W 7568   0.518   7.438  27.687 -0.0920 -0.1643 -0.0748
64516W        W 7569   4.628  33.349   7.102  0.2083  0.3023 -0.0869
64517W        W 7570  11.726  20.964   0.094 -0.0053 -0.1292 -0.0765
64518W        W 7571   5.589   1.841  25.198  0.0967  0.0338  0.0267
64519W        W 7572  27.702  32.029   0.726  0.1949 -0.1339 -0.4129
64520W        W 7573  12.037  26.550   3.015  0.1225 -0.2145 -0.1614
64521W        W 7574  23.915   4.376   6.468  0.1592 -0.0312  0.1312
64522W        W 7575  10.163  26.492   3.031  0.0924  0.1525 -0.1911
64523W        W 7576  28.170   9.614  26.123 -0.4770  0.2264  0.0236
64524W        W 7577   8.108  27.352  28.240  0.3503  0.0131  0.2741
64525W        W 7578   3.131   9.501  10.135  0.1333  0.0233 -0.0977
64526W        W 7579  20.651  10.570  21.298 -0.1194 -0.1197 -0.0253
64527W        W 7580  28.956   6.612  16.766 -0.1637 -0.0121  0.0808
64528W        W 7581  25.425  34.048   4.257  0.2089 -0.3411 -0.0287
64529W        W 7582   5.448  10.627  28.915 -0.1590  0.2730 -0.0144
64530W        W 7583  34.064  13.508  10.252  0.2358 -0.1551  0.2649
64531W        W 7584   0.895  26.210   0.374 -0.1749 -0.1565  0.0896
64532W        W 7585   2.618  31.636   7.832  0.0273 -0.1145 -0.2216
64533W        W 7586   8.214  11.621  26.085  0.1820  0.1045 -0.1295
64534W        W 7587  20.578   2.012  16.827  0.2727  0.1345  0.3217
64535W        W 7588   1.187   7.192  22.206  0.0301 -0.1313  0.0082
64536W        W 7589  30.209  31.725  29.108 -0.1420 -0.0315 -0.1454
64537W        W 7590  16.677  28.144   8.520 -0.1913  0.1307  0.5639
64538W        W 7591  32.758  26.796  28.887  0.1190  0.0673  0.2809
64539W        W 7592   2.889  21.976   9.456  0.0463 -0.2903  0.1137
64540W        W 7593   1.681  29.901  20.464 -0.0770 -0.0775 -0.2022
64541W        W 7594   1.996  26.641  29.148 -0.0597 -0.1264  0.0829
64542W        W 7595  14.979  25.536  14.422  0.5134  0.1668  0.0231
64543W        W 7596  16.933  24.478   6.941 -0.1089 -0.2377 -0.3416
64544W        W 7597  23.262   4.685  25.733  0.0829  0.1330  0.2970
64545W        W 7598   6.904  29.570  24.296  0.2354  0.2360  0.1072
64546W        W 7599   5.102  22.743  26.791  0.0873 -0.1149  0.1351
64547W        W 7600  30.517   4.549   9.280  0.0248 -0.0058  0.0038
64548W        W 7601  29.054  20.391   0.972 -0.0705  0.0206 -0.1861
64549W        W 7602  11.655  26.026  23.962  0.0943  0.0322  0.2200
64550W        W 7603  34.606  18.256  24.834  0.0721 -0.2511  0.1978
64551W        W 7604   4.637  18.252  27.423 -0.0233  0.2886 -0.2446
64552W        W 7605  31.302  21.340   4.452 -0.1558 -0.0253 -0.1290
64553W        W 7606  31.523  19.357  27.197 -0.0619 -0.0475  0.3248
64554W        W 7607  10.823  34.047   6.306 -0.1593  0.0760 -0.2348
64555W        W 7608  27.840  20.055   9.232 -0.1057 -0.0901  0.0492
64556W        W 7609   3.823  10.929   9.445  0.0127 -0.0900  0.1265
64557W        W 7610   9.230   1.159  23.460 -0.0643 -0.2514 -0.3470
64558W        W 7611  34.142  31.944  25.832  0.0476 -0.2752 -0.0569
64559W        W 7612  11.316  16.365   2.815  0.3056 -0.1873  0.0369
64560W        W 7613   6.018  22.330   6.161 -0.1570  0.1073  0.1948
64561W        W 7614  25.437   5.258  15.059  0.0096 -0.0597  0.0965
64562W        W 7615  33.319   7.183  10.174  0.1961 -0.2097  0.1037
64563W        W 7616   6.919   5.369   0.287  0.0447  0.0496  0.0392
64564W        W 7617  26.915  12.849  24.974  0.0413  0.3548 -0.1250
64565W        W 7618  28.215  21.108   4.616  0.3974 -0.1420  0.1766
64566W        W 7619  10.099  28.739  22.844  0.3620  0.1252 -0.1615
64567W        W 7620  32.810   4.650  10.134 -0.1701 -0.1339 -0.1811
64568W        W 7621  18.067  30.481  16.855  0.0967  0.2580 -0.1386
64569W        W 7622  34.223  16.332   3.737  0.2527 -0.1333  0.2016
64570W        W 7623   6.457  23.601   8.210 -0.0810  0.0644  0.2609
64571W        W 7624   8.269  29.244  27.825  0.4041 -0.1826 -0.2412
64572W        W 7625  28.984  25.365   6.353  0.0313 -0.2689 -0.2110
64573W        W 7626  22.717  14.301   0.474  0.1717  0.2688 -0.0509
64574W        W 7627  28.447  20.491  18.299 -0.0156  0.3736  0.0155
64575W        W 7628  33.144  27.861  14.189  0.3026  0.0402 -0.0982
64576W        W 7629   3.968   6.710   1.829 -0.0019 -0.1891  0.3657
64577W        W 7630  10.515   0.779  24.597  0.0090 -0.0817 -0.1757
64578W        W 7631  14.746  24.615   0.558  0.0217 -0.1169  0.1221
64579W        W 7632  27.519   7.802  28.087  0.0269  0.3535 -0.0817
64580W        W 7633  30.602  17.333  26.939  0.1331  0.0046  0.0205
64581W        W 7634   5.830   5.661   5.184  0.0672  0.0082 -0.2042
64582W        W 7635  31.153  11.433   1.616  0.1943 -0.1165  0.1291
64583W        W 7636   1.205  31.588  22.846 -0.0329  0.0617 -0.3600
64584W        W 7637   7.760  18.915   4.241  0.1136  0.2259 -0.0776
64585W        W 7638   2.001   2.667  28.648 -0.1545 -0.1024 -0.2339
64586W        W 7639  17.057  29.320   3.909  0.0201  0.0288  0.1634
64587W        W 7640  14.599  32.125  19.369 -0.2021 -0.4612 -0.3048
64588W        W 7641   6.187  15.250  28.278 -0.2767 -0.3225 -0.0682
64589W        W 7642   5.369  11.398   3.774  0.2036  0.0633  0.0208
64590W        W 7643  28.455  24.599   8.685  0.0636  0.2236  0.0049
64591W        W 7644  28.334  26.802   6.242  0.0734 -0.1127 -0.0029
64592W        W 7645  22.567  23.949   3.514 -0.0619 -0.1487 -0.1013
64593W        W 7646  28.361  22.372  17.963  0.0824  0.1321  0.0253
64594W        W 7647  13.362   6.686   1.420 -0.0252  0.0652  0.0046
64595W        W 7648   8.963  15.386  24.852 -0.2325 -0.0630  0.0511
64596W        W 7649  33.430   1.627  24.668  0.0200 -0.1451  0.4139
64597W        W 7650  30.416  11.268   3.967  0.0638 -0.0847  0.0219
64598W        W 7651  32.607  16.730  20.564 -0.1284 -0.1792 -0.1181
64599W        W 7652  19.461  28.727   4.503  0.1299  0.1050  0.1392
64600W        W 7653  23.933  22.033  14.751 -0.3520  0.1030 -0.2017
64601W        W 7654  25.186  26.530   2.110 -0.0077  0.0839 -0.2025
64602W        W 7655   6.075  32.008  20.840 -0.0310 -0.0048  0.1823
64603W        W 7656   0.840  30.714  14.349 -0.0799  0.2071 -0.0675
64604W        W 7657  23.433   5.698   1.838  0.0031 -0.0875 -0.2315
64605W        W 7658  29.769  26.118   6.784 -0.1465  0.2125  0.1745
64606W        W 7659  28.457   3.100  20.211  0.2574 -0.0095 -0.5425
64607W        W 7660  12.219  11.287  21.920 -0.2365  0.1457  0.2207
64608W        W 7661   5.825   6.469   5.511  0.1404 -0.0118 -0.0868
64609W        W 7662  15.627  10.940  14.683  0.2000  0.0332  0.2049
64610W        W 7663   7.833  15.242   6.825 -0.0037 -0.0003 -0.1990
64611W        W 7664   3.691   1.470   8.513  0.1811  0.0401 -0.0685
64612W        W 7665   0.768   3.370   3.275  0.0095 -0.0030  0.1187
64613W        W 7666   5.114  17.350  21.466  0.3376 -0.2838  0.0490
64614W        W 7667  32.104   3.804   1.715 -0.0974  0.2412 -0.0145
64615W        W 7668   9.896   2.853  23.393  0.1423 -0.4534  0.0943
64616W        W 7669  27.181  25.188   1.641 -0.1002 -0.0681 -0.0451
64617W        W 7670  16.130  32.102   5.531 -0.1897  0.0065 -0.3268
64618W        W 7671  10.751  29.890   0.293  0.4061 -0.0538 -0.2406
64619W        W 7672   7.678  29.996  23.763 -0.0400 -0.3482 -0.0231
64620W        W 7673   5.995  25.689  20.104  0.0335 -0.0688 -0.0778
64621W        W 7674  18.277  19.286   1.499  0.2595 -0.3616 -0.0922
64622W        W 7675  11.585  32.715  15.307  0.1207  0.2473  0.0192
64623W        W 7676  33.707  11.910  25.988  0.1468 -0.2803 -0.0613
64624W        W 7677   9.657   7.698   4.068 -0.2083  0.0778  0.0821
64625W        W 7678  12.482  30.506  14.699 -0.1297  0.0800  0.0943
64626W        W 7679  32.212  11.871  23.144  0.1773  0.2830 -0.0353
64627W        W 7680   8.350   6.445   5.601  0.1354 -0.1507  0.3136
64628W        W 7681  21.994   7.326   4.270 -0.1478 -0.0166 -0.1228
64629W        W 7682  31.716  33.873   5.494  0.0228  0.4599  0.0172
64630W        W 7683  10.028  28.458   7.550 -0.0125 -0.1237  0.1419
64631W        W 7684  12.001  14.738  24.145  0.2070 -0.2013  0.0274
64632W        W 7685  10.467  17.573   2.092  0.0309 -0.1399  0.0157
64633W        W 7686  34.399   6.241   4.616 -0.0840 -0.0382  0.2867
64634W        W 7687   5.841  24.687   0.673  0.1000 -0.0320  0.2435
64635W        W 7688   4.504   7.722  22.509  0.0793  0.2711  0.1497
64636W        W 7689  28.746  33.378   4.868 -0.0015  0.3641 -0.1489
64637W        W 7690   2.476   0.419  19.050  0.0489 -0.0138  0.0962
64638W        W 7691   0.552   2.397  19.065  0.0918  0.2911 -0.1407
64639W        W 7692  25.225   1.686  18.113 -0.2954 -0.1637 -0.3662
64640W        W 7693   4.938  13.912  27.807 -0.1494  0.0079 -0.0908
64641W        W 7694  10.221  23.441  24.646  0.1213 -0.2079  0.1050
64642W        W 7695  17.011  19.832   8.864  0.0351  0.0294  0.1419
64643W        W 7696  28.657  18.412   1.270 -0.3978  0.3734 -0.0212
64644W        W 7697   0.306  30.627   1.524 -0.1688 -0.0628 -0.2395
64645W        W 7698  31.196   1.919   8.857 -0.1920  0.2505  0.1503
64646W        W 7699   5.857  24.464   1.566  0.1603  0.1249 -0.1396
64647W        W 7700  13.937  26.787  16.218  0.0995 -0.5730  0.1539
64648W        W 7701  32.563   5.357   2.261 -0.2786 -0.0756  0.0834
64649W        W 7702   3.350  31.638   4.232 -0.0901  0.0314 -0.1498
64650W        W 7703   6.077  13.855  10.819  0.0442 -0.1320  0.1229
64651W        W 7704   2.981  32.969   6.989 -0.0784 -0.1262 -0.0162
64652W        W 7705   5.253  32.479  22.917  0.2834 -0.2298 -0.0563
64653W        W 7706  24.313   3.997  28.192  0.0178  0.0140  0.1808
64654W        W 7707  23.631  17.555   5.382 -0.1470  0.0369  0.2133
64655W        W 7708   7.351  20.722  22.964 -0.0501 -0.2816 -0.4182
64656W        W 7709  29.636  20.844  26.186  0.0574 -0.3132 -0.0816
64657W        W 7710  12.472  31.082  25.063  0.1832 -0.0737  0.1684
64658W        W 7711   1.688  31.653   0.224 -0.1727  0.0543  0.0721
64659W        W 7712   7.079  11.990   7.047  0.4290  0.0208  0.2020
64660W        W 7713   9.539   8.867   4.893  0.0017  0.0512  0.1404
64661W        W 7714  34.537  29.930  23.800  0.0246 -0.0560  0.3789
64662W        W 7715  30.405  29.761   6.589  0.2677 -0.1106 -0.3231
64663W        W 7716  11.946  11.696  28.067 -0.1266 -0.0794  0.0630
64664W        W 7717  30.655  27.323  25.354  0.0773 -0.3321 -0.1970
64665W        W 7718  16.115   2.080   2.845 -0.0653  0.4228 -0.0719
64666W        W 7719   2.977   0.432  16.661  0.0998 -0.0484 -0.0230
64667W        W 7720  10.404  18.249  15.658  0.3307 -0.0414  0.3673
64668W        W 7721  10.820  33.596   3.744  0.1850  0.2126 -0.2129
64669W        W 7722  26.122   0.017  22.470  0.2020 -0.0787  0.0378
64670W        W 7723  15.746  27.027   3.386 -0.4260 -0.1338  0.0625
64671W        W 7724  24.056   1.692  28.087 -0.0613 -0.1454 -0.0571
64672W        W 7725  12.128  30.709  27.462  0.1209  0.2931  0.3320
64673W        W 7726  29.599  30.031   4.815 -0.0470 -0.1616 -0.2602
64674W        W 7727   9.721  20.188   0.886  0.0357 -0.1857  0.4638
64675W        W 7728   1.210  18.809   6.971  0.4086  0.2675 -0.1094
64676W        W 7729   3.337  18.085  25.925 -0.0202 -0.1621 -0.0191
64677W        W 7730  14.045  26.417   9.661 -0.1155 -0.2923 -0.1136
64678W        W 7731  29.530  19.469  26.871  0.0918 -0.1610 -0.0753
64679W        W 7732  31.383  34.363   6.544  0.2164 -0.2612 -0.1545
64680W        W 7733  18.755  31.367   7.059 -0.0543 -0.2671  0.1913
64681W        W 7734   2.607  29.161  27.420  0.2389 -0.1345  0.2224
64682W        W 7735  14.897  21.073  22.374  0.1241 -0.0471 -0.0048
64683W        W 7736   1.341   0.460   2.117  0.1393 -0.1268 -0.4133
64684W        W 7737  14.539   3.072   9.571  0.2327  0.6499 -0.2282
64685W        W 7738  11.843   3.190  28.838 -0.1079  0.0877 -0.3841
64686W        W 7739   2.647  33.483   4.072 -0.0771  0.0674 -0.0188
64687W        W 7740  19.035  26.090  28.799  0.0329  0.0063  0.1499
64688W        W 7741   4.420  25.621   5.380 -0.2323 -0.0138 -0.0508
64689W        W 7742   7.295  23.305   3.021  0.2753 -0.0868 -0.0609
64690W        W 7743   8.450  28.692  14.016 -0.0061 -0.1862  0.0387
64691W        W 7744  18.909  32.307   7.149  0.0953 -0.0550  0.0895
64692W        W 7745   1.380  16.354   3.298  0.3000 -0.1617  0.2603
64693W        W 7746   8.862  20.447  27.688  0.0638 -0.0088  0.1869
64694W        W 7747   6.602  29.342  25.123 -0.1565 -0.3474  0.1952
64695W        W 7748   5.142  30.318   8.645 -0.1506  0.2608  0.1056
64696W        W 7749  21.757  11.098  21.133 -0.0872  0.2296 -0.0714
64697W        W 7750  14.614  16.086  28.956  0.0617  0.1400  0.0372
64698W        W 7751   7.689  23.955   5.808  0.2364  0.1736  0.2743
64699W        W 7752   7.440  16.148  28.182  0.2830 -0.1205  0.1458
64700W        W 7753  20.292   2.812  26.271 -0.1068  0.1857 -0.0393
64701W        W 7754   0.175   7.425  28.095  0.2282 -0.0222  0.1940
64702W        W 7755   1.355  28.369  23.789 -0.0217  0.0032 -0.0331
64703W        W 7756  30.912  16.932   6.386  0.0369 -0.0491 -0.0999
64704W        W 7757  29.122   2.696   8.048  0.0005  0.1028 -0.2408
64705W        W 7758  19.850   7.829  25.374  0.2141 -0.1243  0.2990
64706W        W 7759   7.232  20.127  22.978 -0.0692  0.1392  0.2292
64707W        W 7760   3.169  19.478   2.308 -0.0143  0.2920 -0.2168
64708W        W 7761  10.198  17.167   2.728  0.1681 -0.2782 -0.0020
64709W        W 7762   2.843   1.981  27.985 -0.0236  0.1444  0.1307
64710W        W 7763  15.532  23.116  19.865  0.3301  0.4421  0.0532
64711W        W 7764  12.580   6.201  10.244 -0.1225 -0.1253 -0.0141
64712W        W 7765  21.576   5.570  23.141  0.1055  0.1778 -0.0050
64713W        W 7766   2.552  24.974   4.943  0.0857 -0.0488 -0.1692
64714W        W 7767  33.000   1.370   8.200 -0.1849 -0.0811 -0.1450
64715W        W 7768  28.240  30.824   8.049 -0.2083  0.0902  0.0984
64716W        W 7769   1.763   9.133  15.049  0.0873  0.0153  0.1878
64717W        W 7770   6.590  18.531   3.198 -0.0426 -0.2958  0.0671
64718W        W 7771   5.036   1.550   1.650 -0.0222  0.1385 -0.0972
64719W        W 7772  12.127   3.943  19.573 -0.1553 -0.3357 -0.0146
64720W        W 7773  29.521  26.402   5.982 -0.1079  0.1754  0.3070
64721W        W 7774  28.530   0.170  22.602  0.0764 -0.1119  0.1781
64722W        W 7775  22.334  12.103  24.551  0.2415 -0.0225  0.3725
64723W        W 7776  33.385  16.061  27.749  0.1712 -0.1040 -0.1466
64724W        W 7777  12.939   6.364   9.945  0.0761 -0.2794 -0.0849
64725W        W 7778  33.934  27.586  28.252  0.1166  0.0621 -0.0396
64726W        W 7779   4.870  30.475   8.008 -0.3497 -0.0447 -0.1275
64727W        W 7780   6.767  10.438  27.558  0.1493 -0.0459 -0.1435
64728W        W 7781  33.231   4.221   7.406 -0.0165 -0.1905  0.3364
64729W        W 7782   3.279  28.170   5.321 -0.2401  0.0297  0.0597
64730W        W 7783  11.744  31.067   8.022  0.4902 -0.0193  0.2074
64731W        W 7784  14.329   5.441  10.375  0.5153  0.0046  0.0378
64732W        W 7785   4.662   1.121  27.593 -0.2766 -0.2851  0.1370
64733W        W 7786   9.764  32.684  25.667 -0.0550  0.0999  0.0265
64734W        W 7787  10.254  15.058  27.463 -0.0312 -0.0069 -0.0149
64735W        W 7788  32.561   0.536  28.593 -0.2692 -0.5194 -0.0118
64736W        W 7789  12.172  26.179   2.674 -0.0153  0.1143  0.1814
64737W        W 7790   7.215  20.080   9.279 -0.1268  0.1641 -0.0403
64738W        W 7791  28.364  29.104   3.215  0.2505 -0.1213 -0.0394
64739W        W 7792  29.971   6.207  21.521 -0.1252 -0.2092 -0.3616
64740W        W 7793  25.892   7.932   6.137  0.1445  0.1613 -0.2518
64741W        W 7794  31.995   1.286   4.862  0.0095  0.4134 -0.1946
64742W        W 7795  26.947   8.488  14.455 -0.4041 -0.1800  0.1759
64743W        W 7796  34.028  14.256  23.766  0.3281 -0.1163 -0.0767
64744W        W 7797   5.902  18.596  25.763 -0.2591  0.2173 -0.1791
64745W        W 7798  33.474   4.011   5.770  0.0132  0.3958 -0.1681
64746W        W 7799  11.378  15.599   9.374 -0.1433  0.0120 -0.0194
64747W        W 7800   8.623  10.966   8.397  0.1746 -0.2839  0.1207
64748W        W 7801  34.029  30.247   6.104 -0.0946 -0.2438 -0.0539
64749W        W 7802   5.925  33.794   0.601 -0.2041 -0.0182 -0.2905
64750W        W 7803  33.224  24.521   6.032  0.0104  0.0272  0.2367
64751W        W 7804  15.188  33.204   0.112  0.0008 -0.0193 -0.0283
64752W        W 7805   5.374  27.623  25.176  0.1691  0.0033  0.0123
64753W        W 7806  17.772  23.852   1.362 -0.1220 -0.2579 -0.3073
64754W        W 7807   2.403  22.086   8.632  0.1426  0.1137  0.0071
64755W        W 7808  32.090  28.390  13.753 -0.1340  0.0696 -0.0689
64756W        W 7809  24.180  31.257   7.703  0.1695  0.2062  0.0876
64757W        W 7810  29.630   7.537   6.868 -0.0235 -0.1395  0.2576
64758W        W 7811  17.366  32.354   1.484 -0.2701 -0.0295  0.1539
64759W        W 7812   7.328  32.477   7.146  0.2413  0.0522 -0.1037
64760W        W 7813  19.660  32.750   7.660 -0.0725 -0.0087 -0.2920
64761W        W 7814  10.347  31.942   7.231  0.0909 -0.1835 -0.1451
64762W        W 7815  17.937  28.121   4.461 -0.1690 -0.1489  0.1059
64763W        W 7816   3.738  15.140   5.003 -0.4308 -0.1194 -0.1036
64764W        W 7817   1.727  15.958  26.935  0.2130 -0.0646  0.2089
64765W        W 7818  26.331  31.630   2.029 -0.1188 -0.5700  0.0030
64766W        W 7819  13.362  18.456  21.784  0.0272 -0.1579  0.0118
64767W        W 7820   6.457   2.589   5.778  0.0263  0.0930  0.2669
64768W        W 7821  25.890   3.566   2.784  0.3258 -0.3377  0.0077
64769W        W 7822  15.512  34.616  26.499  0.0736 -0.3000 -0.0372
64770W        W 7823   2.671  10.401   3.417 -0.0597  0.1050  0.1758
64771W        W 7824   1.237  33.878   8.792 -0.0736  0.0519  0.2570
64772W        W 7825  10.144   7.929   9.797 -0.1511  0.0373 -0.1570
64773W        W 7826   4.854  29.040   5.398 -0.0255  0.0527  0.0880
64774W        W 7827   6.611  24.795  27.919  0.1000 -0.3159  0.0099
64775W        W 7828  15.699   1.192   1.425  0.0982  0.2675  0.0413
64776W        W 7829  24.423  21.118   5.388 -0.1510 -0.1299  0.2345
64777W        W 7830  14.451  16.629   4.426  0.1338 -0.0013  0.0914
64778W        W 7831   9.806  25.508   0.002  0.1617 -0.0714  0.1106
64779W        W 7832  26.302  18.331   2.026 -0.0578 -0.0713 -0.2219
64780W        W 7833   1.939  27.975   6.421  0.0173 -0.2115  0.0789
64781W        W 7834   9.595  15.193   9.691  0.1293  0.0693 -0.0551
64782W        W 7835  32.753   1.997   3.189  0.0181 -0.0469  0.2116
64783W        W 7836  19.366   0.375   4.595 -0.2336  0.1040  0.2631
64784W        W 7837  14.803   3.156   9.144  0.3545  0.1651  0.0066
64785W        W 7838  22.675  24.641  28.457 -0.1205 -0.1289  0.0564
64786W        W 7839  22.806  16.715   7.540  0.0428  0.0851  0.1182
64787W        W 7840   2.995  30.821  28.373  0.0590 -0.1604 -0.0094
64788W        W 7841  12.227  29.588   7.713 -0.0506 -0.0659 -0.1296
64789W        W 7842  11.871   9.881   2.366  0.0682 -0.0970 -0.1765
64790W        W 7843  29.774  19.015  21.584 -0.1520 -0.3848 -0.0195
64791W        W 7844   4.301  20.206   2.460  0.1307 -0.2222  0.0567
64792W        W 7845  34.571   4.386   8.331 -0.0928 -0.3202 -0.1158
64793W        W 7846  23.208  26.638  24.319 -0.1417 -0.0632  0.1540
64794W        W 7847  22.870   5.267   7.024  0.2348  0.1530 -0.2509
64795W        W 7848  15.157   8.859   8.118 -0.0986 -0.0594 -0.0150
64796W        W 7849  31.846  14.833  17.018  0.1251 -0.0697  0.0166
64797W        W 7850  19.967  23.461   2.641  0.1028 -0.2784  0.2500
64798W        W 7851   5.252  28.086   5.493  0.2481  0.1308  0.2574
64799W        W 7852  13.381   8.137   3.802 -0.0262  0.0226  0.0876
64800W        W 7853   1.690  28.725  23.609  0.0868 -0.0788 -0.2765
64801W        W 7854  14.870  31.076   3.134 -0.2735  0.4389 -0.0203
64802W        W 7855  18.463  30.050  26.765  0.0588 -0.0216  0.1637
64803W        W 7856  17.266  20.624   7.376 -0.0005 -0.0070 -0.0839
64804W        W 7857  31.081  32.200  24.120 -0.0900  0.2113 -0.0496
64805W        W 7858  21.258  19.804   1.609 -0.0514  0.1952  0.0914
64806W        W 7859   5.500  21.156   3.056 -0.0942  0.0603 -0.1365
64807W        W 7860   3.192   3.348  28.698 -0.0311 -0.0681  0.1551
64808W        W 7861  31.402  28.022   0.120 -0.1644 -0.2346  0.2751
64809W        W 7862  23.150  24.813   4.390  0.3572 -0.2991 -0.0756
64810W        W 7863  27.153  20.540   5.301 -0.0266 -0.0451  0.0487
64811W        W 7864   6.385  26.690   0.111 -0.2334 -0.1164  0.3742
64812W        W 7865  23.912  28.430  27.595 -0.2902 -0.0227 -0.0959
64813W        W 7866   4.572  32.503   2.263 -0.2180  0.1436  0.0612
64814W        W 7867   9.112  17.874  25.830  0.0114  0.0262 -0.0833
64815W        W 7868   0.270  22.030  27.811 -0.0800  0.2171 -0.0087
64816W        W 7869  13.816  21.566  15.508  0.0231 -0.3442 -0.4616
64817W        W 7870   5.173  22.439   1.447 -0.1623 -0.2027 -0.1450
64818W        W 7871  33.902  30.270   9.363 -0.0427  0.1585 -0.2174
64819W        W 7872  22.414  28.044   8.719  0.0300 -0.0895  0.0770
64820W        W 7873   2.634   8.980   8.770  0.1230  0.1501  0.5020
64821W        W 7874  33.674  28.231   8.711  0.0947  0.1664  0.0977
64822W        W 7875  14.226  10.493  26.852  0.3628 -0.0501  0.1534
64823W        W 7876  32.725  24.077   7.614  0.1162  0.1580 -0.1075
64824W        W 7877  32.265  25.427   1.950  0.0387 -0.1438 -0.1840
64825W        W 7878  34.248  32.292   5.523 -0.2658  0.1163  0.1050
64826W        W 7879  18.189  24.530   2.184 -0.0386  0.0041 -0.0934
64827W        W 7880   1.419  24.857   3.310 -0.2261  0.2672 -0.1356
64828W        W 7881  30.118  34.286   6.785  0.1628 -0.1838 -0.2118
64829W        W 7882  28.956  17.857   6.301  0.2033 -0.2952 -0.1147
64830W        W 7883  31.329  24.908   7.404 -0.1732 -0.1090  0.0186
64831W        W 7884  33.607  26.306   4.433  0.0184 -0.0156  0.0752
64832W        W 7885   3.732  22.409   0.768  0.2044 -0.1603  0.1371
64833W        W 7886   5.400   2.425  27.625 -0.0077 -0.0336  0.0824
64834W        W 7887  26.030   0.381   6.935  0.5913  0.0312  0.2991
64835W        W 7888  10.440  13.714  28.790 -0.0263  0.1858 -0.0780
64836W        W 7889  25.459  23.298  26.155 -0.3430  0.0104 -0.3218
64837W        W 7890  33.451  32.674  27.733  0.2051  0.1390 -0.0767
64838W        W 7891  26.965   2.169  19.252  0.3082  0.1886  0.5094
64839W        W 7892  33.530  16.309   5.418  0.1024 -0.2865 -0.0743
64840W        W 7893  16.306  11.779  15.292  0.0814  0.2557  0.1138
64841W        W 7894   9.680  18.976   5.036  0.1632  0.1881 -0.0764
64842W        W 7895  23.884  24.945  26.205 -0.3170  0.2225 -0.2753
64843W        W 7896   5.230  28.028  18.743 -0.2675 -0.1392 -0.2300
64844W        W 7897  26.881   0.658  17.357  0.1704  0.1997  0.0386
64845W        W 7898  11.868  26.642   3.695  0.1769  0.0298 -0.2777
64846W        W 7899  27.000  31.490  28.870  0.0985  0.2777 -0.3037
64847W        W 7900   3.241   4.726  17.142 -0.1387 -0.2094 -0.2991
64848W        W 7901  34.544  27.527   9.465 -0.0150 -0.1240 -0.1964
64849W        W 7902  25.914  25.011  27.574 -0.0333  0.1028  0.1660
64850W        W 7903   0.237   8.201   7.989 -0.3099 -0.1170  0.1425
64851W        W 7904  27.911  25.461   7.804  0.2640  0.1132 -0.2238
64852W        W 7905  24.078  22.530  25.738  0.1998  0.2949  0.0321
64853W        W 7906   6.805  25.017  19.531 -0.0289  0.3846  0.2566
64854W        W 7907  12.223  26.157   8.390 -0.1539 -0.1710  0.2686
64855W        W 7908   4.179  33.439  24.485 -0.2583 -0.1481 -0.1133
64856W        W 7909  27.488  20.851  21.214  0.1847 -0.0911  0.3299
64857W        W 7910  10.918  25.564   5.354  0.1325  0.0992 -0.1464
64858W        W 7911  14.042   3.632   5.758  0.0622 -0.1452 -0.1929
64859W        W 7912   7.506   3.115   6.642 -0.0621  0.0396 -0.3064
64860W        W 7913   6.867   1.154   6.948 -0.1404 -0.1276 -0.0639
64861W        W 7914  24.172   0.711  18.771  0.2005  0.1686  0.3026
64862W        W 7915   4.057  12.411  18.844  0.1528 -0.2595  0.1555
64863W        W 7916  14.231   3.932  27.835 -0.0702 -0.0244  0.2517
64864W        W 7917   3.628   2.666  15.058  0.0750 -0.0668  0.2256
64865W        W 7918  28.891  30.355   1.738 -0.0650 -0.0791  0.0636
64866W        W 7919  28.377  32.210   3.639 -0.1366  0.1876 -0.0808
64867W        W 7920  20.512   9.209  18.155  0.0360 -0.2014  0.0661
64868W        W 7921   4.884   0.833   8.252 -0.2216  0.0663  0.2139
64869W        W 7922  31.190   3.948  25.838  0.2421  0.2005 -0.2452
64870W        W 7923  13.833  13.123   8.416  0.2953  0.0477  0.0724
64871W        W 7924  12.988   8.275   4.530  0.2430  0.0394 -0.1900
64872W        W 7925  32.069   6.473   6.216  0.0889  0.0970  0.1697
64873W        W 7926  18.715  26.737   4.270 -0.2566  0.0492  0.1633
64874W        W 7927  15.613  24.609  21.933 -0.0238  0.3559 -0.0257
64875W        W 7928   3.957  26.621  27.309  0.0228  0.0051 -0.3176
64876W        W 7929  33.996   3.893   9.994 -0.0649 -0.0411 -0.1789
64877W        W 7930   7.949  12.078   8.582  0.2745  0.1031  0.3896
64878W        W 7931  28.349   4.525  13.927  0.0871 -0.0352 -0.0382
64879W        W 7932  20.268   5.513  24.895  0.1912  0.1419 -0.1314
64880W        W 7933   7.394  26.496   4.523 -0.0517 -0.1525  0.0692
64881W        W 7934  14.129  30.042  24.926 -0.0102 -0.0162 -0.2070
64882W        W 7935  30.228   4.071  24.579  0.0969  0.0280  0.1265
64883W        W 7936   3.406  33.988  22.546  0.2769 -0.0933  0.0332
64884W        W 7937  27.124  32.699   4.007  0.1595 -0.1102 -0.2752
64885W        W 7938   7.161  26.061  26.087 -0.0725  0.0129 -0.0682
64886W        W 7939   5.140  33.712   7.655  0.1471 -0.0370  0.1824
64887W        W 7940  30.162   9.094   9.056 -0.4218 -0.1704  0.0283
64888W        W 7941   1.321   7.403  13.434 -0.0261 -0.0697 -0.1752
64889W        W 7942  33.807   2.206   8.881 -0.0473  0.1588 -0.0398
64890W        W 7943  10.763  16.704  15.171  0.1523  0.0778  0.1299
64891W        W 7944  33.874  26.957  23.778 -0.1851 -0.1855 -0.0150
64892W        W 7945  28.253  29.747   6.801  0.1473  0.1145  0.3317
64893W        W 7946  13.431  18.063  25.973  0.1264 -0.2730 -0.1433
64894W        W 7947   7.688   4.509  10.057 -0.0467 -0.2614 -0.1772
64895W        W 7948   7.454  31.912  24.190 -0.3306  0.1483  0.0182
64896W        W 7949   7.925  18.445  28.043  0.1517 -0.0344  0.2232
64897W        W 7950  13.484  27.409   1.112  0.0407 -0.0736 -0.0566
64898W        W 7951   9.237  31.368   4.251 -0.0445 -0.1603  0.1980
64899W        W 7952  30.109  31.162   5.389  0.2536 -0.0414  0.0545
64900W        W 7953  30.344  26.629   6.402  0.4942  0.1242  0.0137
64901W        W 7954   5.488  15.179   0.853  0.3116  0.1036  0.3016
64902W        W 7955   7.589   9.013   6.751  0.1962  0.0856  0.1291
64903W        W 7956  29.434  14.560   1.546 -0.0870 -0.0084  0.1869
64904W        W 7957  19.543  33.118  24.043  0.0029 -0.1995 -0.2008
64905W        W 7958  14.987  32.504  25.839  0.2038  0.3413 -0.0658
64906W        W 7959  26.242  12.409   9.064  0.1463 -0.2179 -0.0040
64907W        W 7960  10.327  20.548   8.891 -0.2879 -0.0334 -0.0546
64908W        W 7961   3.924  25.408  26.662 -0.0542  0.0775  0.0470
64909W        W 7962   6.723  28.344  26.257  0.0836  0.0288 -0.2709
64910W        W 7963   6.144  32.487  28.605 -0.1587  0.0106  0.2756
64911W        W 7964  34.172  26.411   6.808 -0.0466  0.2900  0.1191
64912W        W 7965   0.784  32.735  16.187  0.1012  0.1667 -0.1932
64913W        W 7966  18.281   8.505   4.572  0.2378  0.3106 -0.2087
64914W        W 7967  32.160   4.578  26.377  0.0726 -0.0138 -0.1449
64915W        W 7968  28.738   0.690  20.936 -0.0570 -0.1095 -0.0942
64916W        W 7969   1.250  21.158  22.183  0.0058 -0.0001  0.2329
64917W        W 7970  12.481  26.033  28.806  0.1305  0.1740 -0.1022
64918W        W 7971  26.005  28.933   6.050 -0.3194 -0.1282 -0.0136
64919W        W 7972   5.141   0.061   4.287  0.2007  0.0199 -0.0473
64920W        W 7973  24.187   4.875  25.546 -0.3104  0.1767 -0.2725
64921W        W 7974  34.245  32.920  28.782 -0.0278 -0.0396 -0.1088
64922W        W 7975  21.191   3.511   4.395  0.1490  0.3851  0.1754
64923W        W 7976   7.036  31.136  27.621 -0.0263  0.2422 -0.1213
64924W        W 7977   3.810  33.634   1.419  0.3554 -0.1207 -0.2555
64925W        W 7978  30.344  25.239   2.226  0.5547 -0.2986 -0.2752
64926W        W 7979  34.673  18.848   2.889 -0.3027  0.3088  0.0218
64927W        W 7980  24.920  27.643   3.742  0.1410 -0.6788  0.0004
64928W        W 7981   0.219   1.360   3.739  0.1358 -0.1069  0.0236
64929W        W 7982  12.844  21.529  28.997 -0.0702  0.2704  0.0263
64930W        W 7983  10.571   2.809   5.897 -0.2310 -0.0389  0.3321
64931W        W 7984  11.285  22.577  25.518 -0.2668 -0.1772 -0.1177
64932W        W 7985  13.859  23.312  29.092  0.0592 -0.2430 -0.3736
64933W        W 7986  14.811  32.543  21.226 -0.0589  0.1131  0.0624
64934W        W 7987   2.740  28.955   6.000  0.2396 -0.0403 -0.2522
64935W        W 7988  30.993  24.317   7.002 -0.1676  0.0421  0.1403
64936W        W 7989   2.003  29.672  26.522  0.3071  0.0125  0.2550
64937W        W 7990   2.994  29.595  28.626 -0.0176  0.0413 -0.0897
64938W        W 7991  21.912   8.921  17.293 -0.1893 -0.3547  0.0979
64939W        W 7992  15.833   7.265   8.845  0.1936 -0.1397 -0.3033
64940W        W 7993  30.224  29.216  28.876 -0.0305 -0.1964  0.2697
64941W        W 7994  12.471  29.155   7.478  0.1596 -0.1892 -0.1745
64942W        W 7995  17.130  16.924  27.969  0.1828  0.0442  0.0560
64943W        W 7996  18.416   0.005   9.698  0.2798 -0.5260  0.1465
64944W        W 7997  10.156   1.187  14.553  0.2015  0.3069 -0.3211
64945W        W 7998  34.636  29.093  23.741  0.2097  0.0037  0.4062
64946W        W 7999  21.097  13.575   5.183  0.0044 -0.0214 -0.1959
64947W        W 8000  15.826  30.746   0.773 -0.2289 -0.2058  0.3364
64948W        W 8001  29.426   4.141  26.917 -0.1405  0.1756 -0.1337
64949W        W 8002   8.290   1.412   1.462 -0.1638  0.0143  0.1020
64950W        W 8003   9.609  13.874   1.810  0.1182 -0.2306  0.2309
64951W        W 8004   9.904  24.631  26.576  0.1429  0.0947 -0.1196
64952W        W 8005  30.008   0.730   5.461 -0.2951 -0.1776 -0.3646
64953W        W 8006  31.674  32.960   6.471 -0.3837 -0.1800  0.3410
64954W        W 8007  29.603  17.679  19.488  0.5026 -0.0119 -0.1788
64955W        W 8008  32.632  32.713   6.145 -0.1061  0.1604  0.1476
64956W        W 8009  21.936  25.268   0.074  0.0128 -0.0290 -0.1445
64957W        W 8010  14.639  30.301   3.768 -0.2652 -0.0529  0.1937
64958W        W 8011  17.226  31.970   7.732  0.1900 -0.3117 -0.0458
64959W        W 8012  29.784  28.509   1.311 -0.2742 -0.0415  0.0960
64960W        W 8013  12.720  13.515   6.797 -0.1727  0.0555 -0.4192
64961W        W 8014   4.249  19.024   0.476  0.2706 -0.2010  0.1839
64962W        W 8015   0.279  27.447  27.361 -0.3313  0.0112  0.2147
64963W        W 8016  11.532   1.672   8.316  0.3292 -0.2720 -0.1530
64964W        W 8017  20.070  27.888   2.198  0.0691  0.1904 -0.0611
64965W        W 8018  30.982  21.032   3.034 -0.1261 -0.1843  0.1844
64966W        W 8019  30.611  28.930   5.128  0.1450 -0.0944 -0.2229
64967W        W 8020  31.877  32.603   5.065 -0.0819 -0.0374  0.0610
64968W        W 8021  24.864  34.221   8.984  0.0247 -0.0930  0.0760
64969W        W 8022   7.634  31.939  27.595 -0.3715 -0.0837  0.0707
64970W        W 8023  22.369  22.513  25.458 -0.3341 -0.1842  0.0111
64971W        W 8024  13.450   0.766   2.586  0.1870 -0.1980 -0.1075
64972W        W 8025  23.815   9.639  28.164 -0.0862  0.0586  0.1382
64973W        W 8026  32.088   1.815   8.673 -0.0126  0.1723 -0.2165
64974W        W 8027  28.613  17.076   4.020 -0.0659  0.1862  0.1884
64975W        W 8028   6.896  30.072  15.386 -0.0118  0.2461  0.1125
64976W        W 8029  13.684  34.413   5.640  0.2056  0.0219 -0.3503
64977W        W 8030   5.973  29.396   4.664  0.4044  0.2117 -0.1588
64978W        W 8031  21.114  19.393   2.686  0.2459  0.3297  0.2325
64979W        W 8032  28.399   4.055  26.132  0.2905 -0.4294  0.2158
64980W        W 8033   0.577  16.509  22.105  0.0195 -0.2268  0.2099
64981W        W 8034  11.694  32.245   0.343  0.0865  0.1018  0.0576
64982W        W 8035  10.575  27.333   3.051 -0.2843  0.2520 -0.2516
64983W        W 8036   2.924  12.993  23.426  0.0015 -0.2547 -0.2231
64984W        W 8037  32.800   3.386  10.124  0.0316 -0.3204 -0.0068
64985W        W 8038  25.271  25.484   3.392  0.0069  0.0434 -0.3229
64986W        W 8039  26.017  32.568  20.524  0.1813  0.6478 -0.0637
64987W        W 8040  28.491  28.258   5.813  0.2704  0.1104  0.1052
64988W        W 8041  32.458  33.082   1.322  0.0161  0.1009  0.2883
64989W        W 8042  24.048  18.855   0.475 -0.0351  0.0205 -0.1820
64990W        W 8043  27.856   0.563   1.523 -0.0954  0.0542 -0.2535
64991W        W 8044  30.621  23.653  27.566 -0.2295  0.4855  0.1177
64992W        W 8045  10.665  26.874   6.347 -0.0735  0.0005  0.0801
64993W        W 8046  11.237  19.193   5.108  0.1737  0.1740  0.0804
64994W        W 8047   6.183  25.225  29.173 -0.2204 -0.0881 -0.3453
64995W        W 8048   5.947   1.186  26.616  0.2713  0.3740 -0.3305
64996W        W 8049  34.253  13.066   9.013  0.2634  0.2030 -0.1889
64997W        W 8050  31.317   1.119   7.412 -0.3681  0.0750 -0.0340
64998W        W 8051   1.007  32.355   4.214  0.1109  0.3305  0.0765
64999W        W 8052  17.498  30.097   1.610 -0.1006 -0.1862 -0.1133
65000W        W 8053   4.083  22.022  28.669 -0.1684 -0.1015 -0.0563
65001W        W 8054  13.112  16.581  20.587 -0.2368 -0.0848 -0.1420
65002W        W 8055  15.703  33.608   1.676 -0.1222 -0.0009 -0.1268
65003W        W 8056  30.551  31.961   3.429 -0.1585 -0.0226 -0.0376
65004W        W 8057  31.118  11.511   3.410  0.2858  0.0174  0.1627
65005W        W 8058  15.272   7.713   3.313 -0.1758 -0.0164  0.1899
65006W        W 8059   4.401  22.314   5.772  0.0943 -0.0070  0.0218
65007W        W 8060  11.206   6.368   6.150  0.0426  0.2210  0.1102
65008W        W 8061  10.671  23.274   4.432  0.0745  0.0372  0.1407
65009W        W 8062   1.762   3.863   1.607  0.2006  0.0149  0.2026
65010W        W 8063  26.744  29.427   1.891  0.0919  0.0821 -0.2708
65011W        W 8064   3.450  12.582  27.171 -0.2535 -0.0204 -0.0123
65012W        W 8065   5.927  24.147  24.973 -0.0140 -0.2492  0.1549
65013W        W 8066   4.321  31.187   7.058 -0.0252  0.2963 -0.2713
65014W        W 8067  32.920  10.355   9.708  0.3998  0.2390  0.0527
65015W        W 8068  34.454   6.328  26.495  0.5168  0.0631  0.1228
65016W        W 8069  23.346   1.504  27.335  0.0685 -0.1609 -0.0520
65017W        W 8070   1.523  25.705   4.947  0.2793 -0.0027 -0.0272
65018W        W 8071  33.404   7.106   6.423 -0.1026  0.0859  0.0485
65019W        W 8072   2.560   8.133   3.987 -0.0427 -0.1105 -0.1073
65020W        W 8073   6.604   7.085   4.047  0.2909 -0.4144  0.1756
65021W        W 8074  10.054  33.989  26.165 -0.1372  0.0554 -0.0885
65022W        W 8075   1.539  17.893   6.898 -0.0713 -0.0658  0.2546
65023W        W 8076   2.527  22.419  14.966  0.0433  0.2942 -0.1426
65024W        W 8077   8.129   0.901   5.382 -0.1453  0.0520 -0.1195
65025W        W 8078  11.594  24.185   0.931  0.2119  0.2341 -0.2519
65026W        W 8079  32.912   9.627   5.734 -0.0847  0.3538  0.2271
65027W        W 8080   8.519   0.053  25.102  0.2200 -0.1278 -0.1953
65028W        W 8081  26.755  16.448   3.867  0.0649 -0.2782  0.1441
65029W        W 8082  34.660   1.528  24.410 -0.0020 -0.0722  0.1804
65030W        W 8083  33.885  30.503   0.536  0.2878 -0.0579 -0.0197
65031W        W 8084  15.766  21.015  25.699  0.0865  0.0650  0.3504
65032W        W 8085  13.687   4.995   0.927  0.1527 -0.0118 -0.2098
65033W        W 8086  22.325  33.157   2.815 -0.1674 -0.1602  0.2984
65034W        W 8087   4.145   1.358   7.767  0.0722  0.0610 -0.3843
65035W        W 8088  27.514   4.510   5.840 -0.1523 -0.0048  0.0008
65036W        W 8089   7.111  32.115   8.421 -0.0775  0.1146 -0.2337
65037W        W 8090   2.377   1.515   7.016  0.0265  0.3557 -0.0942
65038W        W 8091   4.221  20.047   1.002  0.1296 -0.0295 -0.4374
65039W        W 8092  10.465  34.118   3.267  0.0339  0.0069 -0.0710
65040W        W 8093   3.942  26.279  28.796 -0.1243  0.1480 -0.0405
65041W        W 8094  25.562  26.196   2.939 -0.2599  0.0710  0.2394
65042W        W 8095  14.540   6.873  10.007  0.2955 -0.2245 -0.3799
65043W        W 8096  30.765  23.661  27.087  0.1478 -0.2001  0.2683
65044W        W 8097  18.359  26.673   6.617  0.1190  0.0169 -0.0355
65045W        W 8098   4.954   4.884  17.126 -0.1260  0.3272 -0.2546
65046W        W 8099  19.923  12.555   7.185 -0.2283  0.0162 -0.2497
65047W        W 8100   4.444  27.148   7.813  0.0072 -0.0281 -0.2159
65048W        W 8101   7.867   8.968  20.957 -0.2428 -0.1340 -0.2579
65049W        W 8102  13.261  25.841  25.085  0.2441 -0.0353 -0.1646
65050W        W 8103  32.940  25.878   1.491  0.2626  0.0393  0.0713
65051W        W 8104   0.413  24.532  26.874  0.0360  0.1230 -0.1436
65052W        W 8105   7.689   2.703   9.239 -0.2482  0.3439  0.2496
65053W        W 8106   9.703  22.235  26.164 -0.3130  0.2400  0.1107
65054W        W 8107   6.672  20.740   0.731  0.0181  0.0357 -0.0166
65055W        W 8108   4.678  20.633   2.283 -0.1328 -0.1339 -0.2467
65056W        W 8109  29.426   7.572   8.948 -0.2604 -0.0432  0.0724
65057W        W 8110  21.086  25.729  26.831  0.1517 -0.1044 -0.0786
65058W        W 8111   4.433  31.944   6.030 -0.0351 -0.1449 -0.0647
65059W        W 8112   8.260  33.257   0.137  0.2098 -0.0814  0.1813
65060W        W 8113  34.633   4.897   4.470 -0.2647  0.0495  0.0259
65061W        W 8114  11.150   4.279   2.744  0.0307 -0.1075  0.1090
65062W        W 8115  26.386  32.804  18.935  0.1136 -0.1396 -0.4796
65063W        W 8116  14.040   0.033  10.843  0.0223  0.0943 -0.0569
65064W        W 8117   9.959  22.949  26.729  0.3636 -0.0021 -0.4553
65065W        W 8118   0.644  10.765   2.628  0.0955  0.2004 -0.0063
65066W        W 8119  34.126   7.285   3.020  0.3605 -0.2828 -0.2814
65067W        W 8120   4.081  24.731  25.443  0.0755  0.2619 -0.0376
65068W        W 8121   9.821   3.326  23.137 -0.1157 -0.0612  0.2838
65069W        W 8122  28.400  27.065   9.359 -0.0570  0.0101 -0.0396
65070W        W 8123   6.975  30.690   7.388  0.2362 -0.1689  0.0252
65071W        W 8124  32.283  21.121   7.998 -0.0983  0.2057 -0.1415
65072W        W 8125  13.436  21.969   6.117 -0.2542  0.1458 -0.2591
65073W        W 8126   1.032   2.817   5.011  0.3730 -0.1143  0.1979
65074W        W 8127  10.645  28.831  23.455 -0.2493 -0.0261  0.0688
65075W        W 8128  11.063  29.989  25.808 -0.0370  0.4034 -0.2204
65076W        W 8129   8.115  22.850  26.145  0.0596 -0.2354 -0.1160
65077W        W 8130   5.024   1.749  28.713 -0.0758  0.1018  0.1430
65078W        W 8131  27.388  20.887  16.811 -0.1500 -0.0286  0.0120
65079W        W 8132  33.778  22.895  28.381  0.2830  0.1247 -0.0892
65080W        W 8133  33.801  33.258   2.217  0.0949  0.0825  0.1084
65081W        W 8134  10.613  32.223   0.090 -0.0220 -0.0671  0.2596
65082W        W 8135   4.141  31.085   8.804 -0.1014 -0.1754  0.0033
65083W        W 8136  28.011  34.668   3.282 -0.2982  0.1411 -0.1793
65084W        W 8137   4.255  22.074  24.273  0.1226 -0.3033  0.0239
65085W        W 8138   3.793  21.043   2.398 -0.3139  0.0499  0.4350
65086W        W 8139   4.283  33.955   4.136  0.2370 -0.4042 -0.0463
65087W        W 8140   7.976  27.772  26.608  0.2445 -0.1078  0.1147
65088W        W 8141  26.236  22.345   2.338  0.3307 -0.0777 -0.1119
65089W        W 8142  16.169  27.372  15.079  0.0582 -0.0007 -0.3554
65090W        W 8143  16.693  20.082  14.048  0.2268 -0.0716  0.0299
65091W        W 8144  22.114   2.893   1.045 -0.0320 -0.2969  0.0870
65092W        W 8145  30.645  25.495  23.253  0.3794 -0.1364 -0.2562
65093W        W 8146  15.829  28.149   0.887  0.0202  0.0010  0.0254
65094W        W 8147  20.787   3.223   8.411 -0.0098  0.2485 -0.2073
65095W        W 8148   7.042  19.005   4.677  0.1288  0.3288  0.0955
65096W        W 8149  29.352  10.202  23.412 -0.1295 -0.0046  0.1720
65097W        W 8150   0.788  16.159   1.198  0.1786  0.2446  0.1798
65098W        W 8151  13.427  32.884  27.944  0.0929  0.2097  0.0465
65099W        W 8152  17.157  34.017   0.886 -0.0195  0.0154 -0.0937
65100W        W 8153   3.239   1.760   9.354 -0.1760 -0.1794  0.1462
65101W        W 8154  34.534   9.793   8.869 -0.0401 -0.0223 -0.0004
65102W        W 8155  31.199  29.196   4.279 -0.1437  0.0206 -0.1678
65103W        W 8156  22.906  13.475  22.688 -0.0665  0.0266 -0.1383
65104W        W 8157  27.928   7.944  16.120 -0.3684 -0.1131 -0.3652
65105W        W 8158   2.292  18.371  28.576  0.1514 -0.0007  0.0364
65106W        W 8159  16.043   0.547  26.012  0.2953 -0.2531 -0.2752
65107W        W 8160  30.749  12.966   8.623  0.1224 -0.1169  0.1482
65108W        W 8161   4.724  26.680   5.874  0.0438 -0.2327 -0.0853
65109W        W 8162  22.142  29.662  10.716  0.1419  0.0931 -0.2451
65110W        W 8163  26.373  30.416   1.266 -0.1579  0.1641 -0.2097
65111W        W 8164   2.422  23.916   5.729  0.0493  0.2021  0.3551
65112W        W 8165   5.770   1.718   9.940  0.0427 -0.1404  0.0189
65113W        W 8166   6.365   3.290  14.513 -0.1483  0.2455  0.0585
65114W        W 8167  21.733  24.154   9.189 -0.2554 -0.0691  0.0085
65115W        W 8168   7.602  16.637  27.371 -0.1055 -0.0564  0.0865
65116W        W 8169  29.128  24.526   3.487 -0.0835 -0.1262 -0.4656
65117W        W 8170   4.905  15.078   9.080 -0.0840 -0.2739  0.2008
65118W        W 8171   2.282  32.506  21.247 -0.0684 -0.2400 -0.2683
65119W        W 8172  11.697   3.296   0.161 -0.0179  0.2362  0.2090
65120W        W 8173   4.042  21.000   2.882 -0.1198  0.2226  0.1316
65121W        W 8174  31.930  19.822   0.866  0.1554 -0.2575  0.0576
65122W        W 8175   1.919  28.691  17.936  0.3328 -0.1137  0.0792
65123W        W 8176  10.148  19.997   1.158 -0.0284  0.0325  0.4151
65124W        W 8177   7.010  30.013   4.104  0.0510  0.3142 -0.1680
65125W        W 8178  15.680  22.728  28.975  0.1156 -0.2522 -0.1655
65126W        W 8179   2.703  27.958   3.991 -0.2470 -0.0947 -0.1625
65127W        W 8180  12.322  16.558   3.134  0.0348 -0.1205  0.0779
65128W        W 8181   3.061   7.180   6.843 -0.0798  0.2097 -0.4533
65129W        W 8182  34.277  25.672  28.490 -0.1203 -0.0878  0.1268
65130W        W 8183   7.888  34.403   7.760  0.2567 -0.0216  0.1481
65131W        W 8184   0.692   2.786  20.408 -0.3213 -0.0462  0.2656
65132W        W 8185  22.500   0.689   9.994 -0.1751 -0.1211 -0.1195
65133W        W 8186  20.992   6.512   6.670 -0.1844  0.3429 -0.0904
65134W        W 8187   4.498  20.852   1.830 -0.1210 -0.1782  0.3183
65135W        W 8188  30.192  25.159   7.590 -0.1902 -0.1621 -0.3245
65136W        W 8189  20.211  30.335  20.320 -0.1237 -0.2793 -0.0470
65137W        W 8190  17.099  32.085   8.201  0.2654  0.0462  0.0014
65138W        W 8191  17.001   1.412   5.962  0.1118 -0.0050 -0.2476
65139W        W 8192  28.619  34.610   5.353 -0.0074 -0.1320 -0.1232
65140W        W 8193  33.206   7.607   1.753  0.2871 -0.0244  0.0492
65141W        W 8194  33.589  32.587   5.900  0.0948  0.0339  0.3654
65142W        W 8195   8.223  26.923   7.094  0.3172 -0.0889  0.0322
65143W        W 8196  29.576  30.771   7.450  0.0587 -0.1804 -0.1277
65144W        W 8197  23.097   6.346   8.901 -0.3818 -0.0663 -0.2847
65145W        W 8198   1.014  30.573  24.245  0.0547 -0.0123 -0.1548
65146W        W 8199  24.339  21.575   5.669 -0.1522 -0.1994  0.1424
65147W        W 8200   8.757  33.254   4.513  0.1411  0.2270 -0.2088
65148W        W 8201   1.674   1.426   6.885  0.0617 -0.1118  0.1904
65149W        W 8202   3.586   4.602   4.736 -0.1325 -0.0482  0.1283
65150W        W 8203   7.534  34.312   8.309 -0.1383  0.1730 -0.0898
65151W        W 8204   8.877   2.117  21.896 -0.0274 -0.0140  0.1569
65152W        W 8205  13.142  17.083  25.418  0.0887  0.0261  0.3480
65153W        W 8206  30.322  30.657  10.183 -0.0245 -0.1690  0.2542
65154W        W 8207  15.833  29.473   4.878  0.0066 -0.1452 -0.0494
65155W        W 8208  29.254  32.593   5.171  0.0554 -0.1710  0.1436
65156W        W 8209   2.469  33.976  21.170 -0.2123 -0.0637 -0.0277
65157W        W 8210  16.447  33.109   7.626  0.0556 -0.3448  0.1730
65158W        W 8211  26.577  29.649  23.688  0.2187 -0.1515 -0.2508
65159W        W 8212   6.638  34.307  27.104 -0.0440 -0.0345  0.0805
65160W        W 8213   2.766   9.367   6.197 -0.2230 -0.0776  0.2040
65161W        W 8214   1.075  29.334  21.704 -0.0618  0.1232 -0.0227
65162W        W 8215  30.400  31.260   2.646 -0.1016 -0.0500  0.4345
65163W        W 8216  23.504  24.780  18.532 -0.0454  0.1194  0.2710
65164W        W 8217   5.066   6.889  28.046  0.1609  0.0740  0.2996
65165W        W 8218   5.585  22.705   5.212 -0.0406 -0.0150  0.0136
65166W        W 8219  10.456   6.141  10.363  0.1679  0.0896  0.0782
65167W        W 8220   8.608  26.560   8.108 -0.0742 -0.1189  0.0148
65168W        W 8221  14.524   7.032   4.953  0.0779 -0.0057 -0.2342
65169W        W 8222   5.685  18.842  25.254 -0.1542  0.1326 -0.2339
65170W        W 8223  20.779  20.565   5.119  0.2220 -0.2585  0.2511
65171W        W 8224  13.294   4.282   4.811  0.1721 -0.2878  0.1513
65172W        W 8225  11.092  18.908  25.428 -0.3243  0.0812  0.0333
65173W        W 8226  14.565   6.144   4.191 -0.1789 -0.1733 -0.0150
65174W        W 8227  21.400  31.905  29.010  0.2505 -0.3972  0.1345
65175W        W 8228  19.242  21.415  25.802 -0.3898  0.1357 -0.0096
65176W        W 8229   5.560  29.162   8.229 -0.0246 -0.0532  0.2858
65177W        W 8230  17.152  21.465  10.389  0.0433 -0.4867 -0.0996
65178W        W 8231  13.007  15.763   7.712 -0.0421  0.0194  0.0375
65179W        W 8232  24.123  32.633   5.394 -0.0301  0.1623  0.0045
65180W        W 8233  31.703  18.446   7.224  0.2960  0.0515 -0.2959
65181W        W 8234   3.025  17.677   7.593  0.0046  0.2217  0.2005
65182W        W 8235   3.020  21.491   9.699 -0.1677  0.1053 -0.1658
65183W        W 8236  23.910  13.464   2.829  0.0914 -0.1157 -0.1806
65184W        W 8237  29.937   7.587   0.045 -0.0918  0.1665 -0.1401
65185W        W 8238  29.305  30.076   2.388 -0.1435 -0.3714  0.2166
65186W        W 8239   0.016  15.263  28.207 -0.0420 -0.2384 -0.4185
65187W        W 8240  26.323  21.077   9.509 -0.1968  0.0783 -0.1844
65188W        W 8241   0.695  24.791   4.743 -0.1201  0.1105  0.0457
65189W        W 8242  16.581   5.125   3.950 -0.1010 -0.0093 -0.1598
65190W        W 8243   1.447   3.778   6.792  0.1488  0.0386  0.4938
65191W        W 8244  32.532  29.498  26.539 -0.0662  0.0232 -0.1071
65192W        W 8245  31.690  31.055  28.180 -0.0980 -0.1904 -0.1761
65193W        W 8246   6.319  30.329  22.460 -0.0618  0.2490 -0.4574
65194W        W 8247   1.249   3.558   0.025  0.2454  0.0425  0.0383
65195W        W 8248  22.591  23.609   7.421 -0.2493 -0.1116 -0.3942
65196W        W 8249   3.359  22.371  18.416 -0.0026 -0.2510  0.0404
65197W        W 8250  28.532  26.444  23.775  0.3046 -0.1650 -0.1981
65198W        W 8251   2.787   7.279   4.072 -0.5835 -0.2048  0.1072
65199W        W 8252  20.396   7.370  18.001 -0.0488 -0.1094 -0.0879
65200W        W 8253  28.907   3.234  24.033 -0.1396  0.3521  0.0622
65201W        W 8254  19.736  21.423  27.723 -0.1449  0.2607 -0.1224
65202W        W 8255  28.328  19.324  27.527 -0.0526  0.0068 -0.1395
65203W        W 8256   6.062   5.452   6.862 -0.3735 -0.2487 -0.2716
65204W        W 8257  34.075  33.727  25.817 -0.2204 -0.3132  0.2201
65205W        W 8258  17.523  31.153   8.130  0.3208 -0.0887 -0.0520
65206W        W 8259  17.603  26.139  10.184 -0.3031  0.0862 -0.2134
65207W        W 8260  25.156   8.011   8.907 -0.2990  0.1089  0.2395
65208W        W 8261  16.431   0.532   2.569 -0.1633 -0.1594  0.2921
65209W        W 8262  19.665  11.890  27.633  0.1545  0.1061 -0.3584
65210W        W 8263  32.352   8.640  25.351  0.1361  0.0824 -0.0509
65211W        W 8264  31.927  22.577  22.336  0.0397  0.0452  0.2254
65212W        W 8265   1.454  19.309   3.759  0.1359  0.1326  0.3583
65213W        W 8266   2.643   7.042  28.056  0.0426  0.4167  0.1897
65214W        W 8267   2.794  30.218   9.921  0.0692 -0.2676 -0.0508
65215W        W 8268   8.770  29.808  20.616  0.0612  0.2141  0.0029
65216W        W 8269  23.644   5.256  27.435 -0.1996  0.0150  0.3553
65217W        W 8270  25.133  12.698   5.760 -0.2316  0.0586  0.0849
65218W        W 8271  20.215  33.590  26.768 -0.3784 -0.2316  0.1005
65219W        W 8272  30.183  33.872   1.343 -0.1471  0.1240 -0.0940
65220W        W 8273   1.339  28.405   7.423 -0.1887  0.0377  0.0739
65221W        W 8274  30.506  34.267   3.794  0.2981  0.0943  0.0129
65222W        W 8275   8.065  20.038   0.330  0.2856  0.0507  0.2492
65223W        W 8276  20.105  14.285   1.724 -0.1421 -0.0593  0.0115
65224W        W 8277  18.148  23.101  27.521 -0.0437  0.1680 -0.1483
65225W        W 8278   7.673  32.225   4.365 -0.2247  0.0475 -0.0503
65226W        W 8279  27.133  34.389   4.932 -0.1132  0.0176 -0.0427
65227W        W 8280  23.441  19.055   5.900  0.0700  0.0378 -0.0282
65228W        W 8281   6.601  12.672   6.599 -0.0016  0.0111 -0.4246
65229W        W 8282   9.323  29.629   5.310 -0.1040  0.2871  0.0261
65230W        W 8283   1.180   0.055   4.166  0.0456  0.3293  0.3301
65231W        W 8284  28.796  30.478   5.304 -0.0649 -0.1153 -0.0993
65232W        W 8285  11.094  24.286  23.433 -0.0286 -0.1609 -0.2296
65233W        W 8286  22.148  26.083   7.186 -0.0390  0.3302 -0.0262
65234W        W 8287  29.722  18.529   8.679  0.0655  0.0458  0.2711
65235W        W 8288  11.514  18.154  27.181 -0.1198 -0.2651 -0.0799
65236W        W 8289  27.583  27.702   3.972  0.0095 -0.2214 -0.0427
65237W        W 8290   3.241  30.458   1.728 -0.2755  0.1288 -0.0562
65238W        W 8291   2.820  29.172   9.932  0.0144  0.0084  0.3083
65239W        W 8292  32.882  18.590   5.442 -0.2084  0.2552 -0.1292
65240W        W 8293   1.351  18.224   0.269 -0.3369  0.1449 -0.2630
65241W        W 8294  31.240  25.901   4.568 -0.1271 -0.2318  0.0462
65242W        W 8295   7.396  29.997  28.849 -0.2931  0.2506 -0.3194
65243W        W 8296   9.782   6.764   6.362 -0.0241 -0.1830 -0.1277
65244W        W 8297  26.741  25.260   5.909  0.2028  0.0620 -0.0562
65245W        W 8298   6.724  33.135  22.460 -0.1812 -0.0838  0.1481
65246W        W 8299  29.018   7.900   9.106  0.1359  0.0172 -0.0079
65247W        W 8300   6.565  29.394   9.522 -0.2012  0.0275 -0.1896
65248W        W 8301   0.354  28.519  26.041  0.0463 -0.1471  0.0305
65249W        W 8302   2.952  34.660   8.427  0.0100 -0.0797  0.0399
65250W        W 8303   4.851   1.211  10.333  0.0622 -0.2905  0.1547
65251W        W 8304   4.194  31.305   9.278  0.2373  0.1380 -0.1617
65252W        W 8305   8.120  17.146   8.741 -0.1642  0.1643 -0.1447
65253W        W 8306   3.565   5.339  24.242 -0.4387 -0.2414  0.3833
65254W        W 8307  25.987  32.718   5.519 -0.1128 -0.2430 -0.0584
65255W        W 8308   2.796  17.434  20.660  0.0342 -0.0607  0.0690
65256W        W 8309  29.110  11.936   7.588  0.0891  0.1917  0.4784
65257W        W 8310   0.038  27.456  20.630 -0.0920 -0.1773  0.2202
65258W        W 8311   5.061  32.442   2.156  0.0899  0.0856 -0.0540
65259W        W 8312  28.018  31.391  25.708 -0.0937  0.1036 -0.4207
65260W        W 8313  33.498  21.435   5.109 -0.1751  0.1063  0.2513
65261W        W 8314   2.851  26.148   8.664 -0.2160 -0.2434  0.0301
65262W        W 8315   9.642  23.243  27.710 -0.2095 -0.2098  0.2251
65263W        W 8316  26.409  24.820  20.754  0.0280  0.3199  0.0893
65264W        W 8317   3.701  28.761   9.355  0.0378  0.1244  0.0933
65265W        W 8318  27.269  12.806  27.877 -0.0809  0.0688 -0.2564
65266W        W 8319   2.673  33.134   3.544 -0.2354 -0.0985 -0.1866
65267W        W 8320  24.414  32.284  26.754 -0.0751  0.1740  0.0599
65268W        W 8321  19.011  19.764   6.239  0.2017  0.0926  0.2058
65269W        W 8322   0.037  17.606   6.339  0.1117  0.0914  0.0164
65270W        W 8323   3.083   1.731  26.465  0.1314 -0.1710  0.3813
65271W        W 8324  15.912  25.817   1.764 -0.1345 -0.0580 -0.0792
65272W        W 8325  12.887  29.756  23.414  0.2077  0.4392  0.1735
65273W        W 8326   3.302  26.897   2.758 -0.1738  0.0832 -0.2177
65274W        W 8327   2.156  10.244   5.622 -0.0197  0.0822 -0.0551
65275W        W 8328  14.346  21.330  19.811 -0.1951 -0.2421  0.0097
65276W        W 8329  25.951  27.703  17.983 -0.0641 -0.0850 -0.1492
65277W        W 8330  11.576  28.990   4.362 -0.0394 -0.1422 -0.0443
65278W        W 8331  26.728  27.809   0.645 -0.2103 -0.0077 -0.0763
65279W        W 8332  16.473  25.364   1.889 -0.0182  0.0562  0.0496
65280W        W 8333   0.811  17.439  28.776 -0.1401 -0.0801 -0.0986
65281W        W 8334   0.479   8.458   4.753 -0.3570  0.2492  0.3528
65282W        W 8335   0.809   1.700   0.558 -0.2129 -0.1091 -0.1788
65283W        W 8336  25.145  31.640  22.949  0.0106  0.2042  0.0596
65284W        W 8337  27.755  15.825  25.959 -0.1979  0.0184  0.1377
65285W        W 8338   8.072  19.702   1.464 -0.0205  0.1316 -0.0098
65286W        W 8339  26.309   4.206  28.794 -0.3807  0.2097  0.0239
65287W        W 8340  28.117  19.134   9.063 -0.3162 -0.2209 -0.1871
65288W        W 8341  21.596  29.682  10.387 -0.2809 -0.0051 -0.2040
65289W        W 8342  15.342  22.500   9.617 -0.0406  0.0147 -0.0462
65290W        W 8343  34.072  24.171   9.567  0.2800  0.1081 -0.0261
65291W        W 8344   4.223   0.076   4.789  0.2103 -0.2696 -0.1078
65292W        W 8345  28.856  30.179   2.827  0.2451  0.3591 -0.0710
65293W        W 8346  30.907  31.995  20.420  0.1637 -0.2381 -0.0122
65294W        W 8347  29.077  20.514   7.913 -0.2120  0.0906  0.4074
65295W        W 8348  33.406  16.013  20.231 -0.0738 -0.3828  0.0572
65296W        W 8349  20.267  19.425  21.167  0.0952  0.2096  0.2007
65297W        W 8350   6.317  18.923  28.241 -0.1563  0.2043  0.2318
65298W        W 8351  18.412  30.935  19.722 -0.3081 -0.0515  0.2466
65299W        W 8352   6.988  14.284  15.147 -0.3753 -0.0627  0.2976
65300W        W 8353   7.366  28.542   4.413 -0.0270 -0.0421 -0.1849
65301W        W 8354   4.767  32.529   1.774 -0.0589  0.3454 -0.1210
65302W        W 8355   0.628   6.005   8.031 -0.3156  0.4455  0.0570
65303W        W 8356   0.723  31.516  27.776  0.3174 -0.1320 -0.1475
65304W        W 8357  10.273  12.234   5.717 -0.0659  0.1418 -0.0708
65305W        W 8358  30.168  23.117   4.079 -0.0905 -0.1119 -0.0560
65306W        W 8359   9.081  26.765  25.437 -0.1209  0.1384 -0.2838
65307W        W 8360   3.309   3.820   7.441 -0.0421 -0.0605  0.2564
65308W        W 8361   9.043  28.664   5.935  0.0807 -0.0799 -0.0078
65309W        W 8362  23.307  33.305  21.601  0.1856 -0.3212 -0.2302
65310W        W 8363  29.890  26.397  10.061 -0.1685  0.0619 -0.1593
65311W        W 8364   6.354  17.703  28.549 -0.1117  0.0656 -0.2520
65312W        W 8365   3.306   8.787   5.552  0.0655  0.1805 -0.1520
65313W        W 8366   2.369  31.776   7.385  0.1647  0.2889  0.0083
65314W        W 8367  28.370  28.316   9.514 -0.1176 -0.0322 -0.1455
65315W        W 8368   6.026   4.234  28.784  0.0379  0.2763 -0.1218
65316W        W 8369  34.333  31.475  21.715 -0.1536  0.4047  0.3657
65317W        W 8370   5.170   2.563   5.015 -0.1224  0.1311  0.0828
65318W        W 8371   7.220  30.523   0.938 -0.2582 -0.2781 -0.2030
65319W        W 8372  27.993   8.223  10.363  0.0735  0.1060 -0.0256
65320W        W 8373  32.023   2.738   5.125 -0.1127  0.1964 -0.0247
65321W        W 8374   7.783  27.734   9.648 -0.0532  0.0246 -0.1515
65322W        W 8375   0.916   7.701  28.394  0.1957 -0.0128  0.1216
65323W        W 8376  28.916   5.930   4.156 -0.0722  0.0982 -0.0235
65324W        W 8377   6.986  23.804  22.025  0.0703 -0.1586  0.1539
65325W        W 8378  26.417  34.528  21.919  0.0526 -0.1400 -0.2100
65326W        W 8379  16.416  18.740   9.526 -0.1939  0.0161  0.1805
65327W        W 8380  29.102  25.551   4.673  0.0358  0.1074  0.0974
65328W        W 8381  23.069  19.111   6.933 -0.0455 -0.2422 -0.3100
65329W        W 8382   8.057  28.151   4.819 -0.2012 -0.2100 -0.2289
65330W        W 8383  32.218  32.801   5.917  0.1513  0.0317  0.0725
65331W        W 8384   3.565  17.308   8.465  0.0420  0.4169 -0.1650
65332W        W 8385   2.159  30.898   2.657 -0.3083 -0.3564  0.2800
65333W        W 8386  21.573  17.292  24.792 -0.0078 -0.3079  0.5409
65334W        W 8387   0.669  28.391   2.775 -0.2700  0.1039 -0.5705
65335W        W 8388  24.629   1.725   0.638  0.0366  0.4040  0.1326
65336W        W 8389   3.725  33.051  25.360 -0.0511  0.1593 -0.1110
65337W        W 8390   0.108   1.018  26.783  0.2633  0.1744  0.1293
65338W        W 8391  33.990   1.120   6.249 -0.0546  0.1264 -0.1257
65339W        W 8392   6.253  28.556   5.472 -0.0210 -0.2313 -0.1856
65340W        W 8393   5.749   0.379  19.408 -0.1455 -0.1314 -0.0027
65341W        W 8394  10.309  32.179   9.507 -0.0417  0.2759  0.0629
65342W        W 8395  26.741  29.305   4.748 -0.0411  0.0606 -0.0509
65343W        W 8396  19.029  25.180   2.932 -0.0581 -0.0277  0.0954
65344W        W 8397  17.126  17.659  28.545  0.1897  0.3352 -0.2384
65345W        W 8398  13.078  27.179   3.753  0.0943 -0.2273 -0.1108
65346W        W 8399   0.160  10.956   2.847  0.2466 -0.0545 -0.1823
65347W        W 8400  22.605  31.647   5.053 -0.0851  0.0066  0.0823
65348W        W 8401  26.815  23.015   8.219  0.0848 -0.1290  0.0143
65349W        W 8402   2.689   2.777  23.536 -0.0023  0.0603 -0.2572
65350W        W 8403   7.665   1.247   7.421 -0.0208  0.2882 -0.0578
65351W        W 8404   5.701  17.470  20.261 -0.0538 -0.0601 -0.0293
65352W        W 8405  31.212   0.857   4.932 -0.1713 -0.1943  0.1583
65353W        W 8406  21.290  31.646   6.394 -0.3394  0.0183  0.2833
65354W        W 8407  29.312  33.111   6.217 -0.2392  0.0683  0.0266
65355W        W 8408  31.539   5.227   9.582  0.0228 -0.0493 -0.0039
65356W        W 8409  28.552  17.160  26.104 -0.2249 -0.3131  0.2592
65357W        W 8410  32.422  14.067   7.643 -0.0075 -0.0789  0.1290
65358W        W 8411  27.977   1.864   7.750  0.0630  0.1374  0.1502
65359W        W 8412   6.553  23.976   3.578 -0.1042 -0.0057 -0.3301
65360W        W 8413   0.575  11.754   9.082 -0.1003 -0.1992 -0.1056
65361W        W 8414  32.043  31.189   6.827 -0.2097  0.1055 -0.0298
65362W        W 8415  12.515  23.525   1.127  0.1421 -0.2120 -0.2831
65363W        W 8416  25.209  23.661   0.056 -0.1616 -0.0838 -0.0704
65364W        W 8417  20.867  29.399  25.299 -0.2458  0.0688 -0.3266
65365W        W 8418  12.575  20.867  20.452  0.0390 -0.0438 -0.2223
65366W        W 8419  33.758  31.478   7.101  0.0875 -0.2551  0.1679
65367W        W 8420  29.318  14.308   6.304 -0.1537  0.4782 -0.4710
65368W        W 8421   3.750  31.244   3.389  0.0140 -0.1477 -0.2104
65369W        W 8422  14.144   1.982   5.503  0.0018  0.0076 -0.0908
65370W        W 8423   3.086   2.744   7.189 -0.4252 -0.0691 -0.0886
65371W        W 8424  15.345  15.092   9.918  0.1681  0.1816 -0.2608
65372W        W 8425   9.400  25.275   5.392  0.0838 -0.4137  0.0919
65373W        W 8426  18.133  15.832   6.204 -0.1148 -0.3925 -0.1550
65374W        W 8427  15.238  28.455  25.909  0.0065  0.2148  0.1352
65375W        W 8428   8.405  25.956  25.803 -0.1546  0.2133  0.0428
65376W        W 8429  31.692  16.896   6.910 -0.0141  0.3414  0.0594
65377W        W 8430  31.480  15.213  17.045  0.1890  0.0753 -0.1966
65378W        W 8431  13.077  34.534   4.256 -0.3043 -0.0371 -0.0278
65379W        W 8432  12.237  32.813   9.442 -0.1661  0.1077 -0.1054
65380W        W 8433  28.610  29.557   0.501 -0.1115  0.2029 -0.0578
65381W        W 8434   5.113  30.462   2.969 -0.4623  0.4623 -0.2853
65382W        W 8435   4.646  31.294   0.523 -0.2048  0.1355  0.0571
65383W        W 8436  20.163  16.333   5.399  0.0398  0.1631 -0.1294
65384W        W 8437   3.813   0.957   5.573  0.1954  0.0815 -0.2411
65385W        W 8438  31.304   0.328   5.978  0.2837 -0.0089  0.0913
65386W        W 8439  16.241  17.696   1.883  0.0466 -0.0355 -0.1898
65387W        W 8440  21.999  26.237   6.101 -0.0631  0.3847 -0.1376
65388W        W 8441   9.558  21.773  21.057  0.0151  0.0830  0.1313
65389W        W 8442   2.282  10.657  27.900  0.2407  0.1468 -0.0775
65390W        W 8443   6.513   2.956   2.786 -0.0227 -0.0224 -0.2596
65391W        W 8444  14.151  25.295  28.701 -0.1897  0.0543 -0.1256
65392W        W 8445   3.134   2.355   5.265  0.0366 -0.0985  0.0441
65393W        W 8446  33.338  29.010   1.529  0.0117 -0.4410 -0.1609
65394W        W 8447  28.418  29.697   5.145  0.1604 -0.0016  0.0992
65395W        W 8448  33.624  28.828   2.441 -0.3595 -0.0921  0.0515
65396W        W 8449   5.045  27.920  25.680  0.1568  0.3808  0.0313
65397W        W 8450   5.559  31.545  16.254 -0.0382 -0.0103  0.0425
65398W        W 8451   3.216  18.484   1.819  0.1037  0.1771  0.0129
65399W        W 8452  20.914  30.370  22.403 -0.3262 -0.2050  0.3671
65400W        W 8453  12.315  30.857   6.426 -0.1181  0.0639  0.0483
65401W        W 8454  31.464   5.902   3.215 -0.0381 -0.1557 -0.1138
65402W        W 8455   4.128  12.705   4.895 -0.2859 -0.0463  0.0939
65403W        W 8456  25.422   9.033   3.206  0.1650  0.0122 -0.2482
65404W        W 8457   3.806  22.825   4.646  0.0591  0.1676 -0.1658
65405W        W 8458  30.672  17.296  10.018 -0.0184 -0.0974  0.0018
65406W        W 8459  19.706  12.421  20.420 -0.1661  0.3217  0.0901
65407W        W 8460  27.804  32.275  20.510  0.0553 -0.1747  0.0492
65408W        W 8461  33.019  33.814   2.167  0.3447  0.1324 -0.2000
65409W        W 8462   4.023   3.778  23.665 -0.0372 -0.1515  0.2188
65410W        W 8463   9.467  31.960   7.080  0.2699  0.2807 -0.2040
65411W        W 8464   6.370  21.901   4.511 -0.0921  0.3507 -0.2312
65412W        W 8465  15.849  12.184   9.400 -0.1196 -0.0491 -0.0784
65413W        W 8466  21.896  26.859  22.360 -0.1282 -0.2055 -0.0377
65414W        W 8467   9.704   5.151   1.417  0.0397  0.2015 -0.0657
65415W        W 8468  10.112   5.212   1.704 -0.1289 -0.2984 -0.1076
65416W        W 8469   7.964  33.763  28.650 -0.3061 -0.3029 -0.0965
65417W        W 8470  30.104  12.385   3.136 -0.2652  0.0518  0.2263
65418W        W 8471  32.527  11.023   7.430 -0.4284 -0.2493 -0.0281
65419W        W 8472   3.627  22.912   0.742  0.0487 -0.5348 -0.1357
65420W        W 8473  32.436  26.148   8.743 -0.0671  0.0633  0.0929
65421W        W 8474  31.409  23.442   5.137 -0.1159 -0.2097  0.0396
65422W        W 8475   3.108  29.452  17.351 -0.0088  0.0937 -0.0521
65423W        W 8476  19.953  19.232   3.595 -0.1865 -0.2536  0.0123
65424W        W 8477   4.435   8.037   1.361 -0.0934 -0.1604  0.0194
65425W        W 8478  22.242   3.445   8.292  0.0533  0.0944 -0.0421
65426W        W 8479  10.345  29.772  13.526  0.0915 -0.2701 -0.1394
65427W        W 8480  24.507  16.514   6.292 -0.0814 -0.1480 -0.2260
65428W        W 8481   6.692  29.770  23.930 -0.3054  0.1750 -0.0761
65429W        W 8482   4.981   2.350  28.179  0.0493  0.0140 -0.1534
65430W        W 8483  33.951  26.729  19.999 -0.1392 -0.3567  0.1013
65431W        W 8484  30.048   5.378  22.962 -0.1548  0.0215  0.2680
65432W        W 8485   6.830   7.923   4.532  0.0212 -0.0268 -0.0350
65433W        W 8486   0.477  29.644   5.607 -0.0583  0.2335 -0.1429
65434W        W 8487  15.499   4.384   8.495 -0.0041  0.3313  0.2670
65435W        W 8488   7.629   0.331  16.011  0.0499 -0.1769 -0.1119
65436W        W 8489  17.354  31.304  28.840 -0.0486  0.0433 -0.1361
65437W        W 8490   3.388  30.503   6.702  0.0682  0.2501 -0.0242
65438W        W 8491   6.611   2.742  16.526  0.0738 -0.0212  0.0169
65439W        W 8492  26.620  10.556   3.058 -0.1517  0.1548  0.0141
65440W        W 8493   0.136   5.573   6.854 -0.3966 -0.0520 -0.1981
65441W        W 8494   2.458  16.753  27.250  0.1701  0.1234  0.1047
65442W        W 8495   3.753  33.462   6.246  0.0154 -0.0019  0.0725
65443W        W 8496  28.028  26.225   5.639  0.1157  0.1091 -0.1070
65444W        W 8497   9.291  33.909   4.091  0.1601  0.0384 -0.4513
65445W        W 8498  10.398  17.185   5.375 -0.2464  0.4064  0.3777
65446W        W 8499  33.315   7.569   6.710  0.2408  0.3378 -0.1200
65447W        W 8500  26.753   2.844  27.044  0.0589 -0.0212  0.1401
65448W        W 8501  20.641   4.589   4.136  0.2099 -0.0520  0.1486
65449W        W 8502  22.893  28.860  25.787 -0.0904 -0.2060 -0.1469
65450W        W 8503   5.802   2.418  21.643  0.0465 -0.0694 -0.0228
65451W        W 8504  23.090  32.653   3.817  0.0169 -0.1549 -0.0623
65452W        W 8505   1.342  21.766   3.177  0.1442 -0.1486 -0.2649
65453W        W 8506  27.179   6.220   1.662 -0.1556 -0.0164 -0.4016
65454W        W 8507  30.760  32.671  27.351  0.3233 -0.0835 -0.4257
65455W        W 8508  29.784  33.188   4.735 -0.0114 -0.1615 -0.2554
65456W        W 8509  33.172   3.139   9.750  0.0621 -0.4048  0.1391
65457W        W 8510  10.623   1.053  27.551 -0.1432  0.1947  0.2053
65458W        W 8511   5.817  30.907   4.905 -0.0650 -0.1908 -0.0489
65459W        W 8512   1.865   4.601  28.779 -0.1240  0.0768  0.3319
65460W        W 8513   4.547  15.070   0.889 -0.0807 -0.0874  0.1367
65461W        W 8514   9.581   5.434   6.302  0.2589  0.0030 -0.1934
65462W        W 8515  21.787  14.557  25.432  0.4239  0.0831 -0.1738
65463W        W 8516  29.188  19.381   3.353 -0.0994  0.1479  0.0108
65464W        W 8517  18.528  10.855   3.640 -0.2659 -0.0357  0.0800
65465W        W 8518   8.575   0.233  24.458 -0.1712  0.1149 -0.1217
65466W        W 8519   4.930  33.335  16.054 -0.2251 -0.0858  0.4118
65467W        W 8520   1.661   9.957   0.725  0.1823 -0.6613  0.0597
65468W        W 8521  33.925   5.998   6.667  0.1049 -0.0905  0.1821
65469W        W 8522  33.276  29.458  26.959  0.0012  0.0522  0.0529
65470W        W 8523  19.207  25.492  29.128  0.1561 -0.0059  0.1129
65471W        W 8524   2.521  27.809   0.102 -0.2100  0.2297 -0.1590
65472W        W 8525  14.436   8.333   8.824 -0.0465  0.0652  0.1641
65473W        W 8526   6.782  28.212   6.398 -0.2353 -0.4160  0.1926
65474W        W 8527  14.559  17.273  26.638 -0.0778 -0.0065 -0.2911
65475W        W 8528  31.226  13.330   3.909  0.1020  0.3011 -0.1848
65476W        W 8529  12.286  26.289  26.525 -0.1697  0.2684  0.1101
65477W        W 8530   2.165   3.287   7.937 -0.2697  0.0059 -0.0670
65478W        W 8531  19.727  20.843  26.751  0.1418  0.1660 -0.1415
65479W        W 8532   0.425   2.302   9.485  0.0502  0.2095 -0.1690
65480W        W 8533   6.105  19.833   1.798  0.0089  0.1485 -0.1575
65481W        W 8534   2.005  29.052  17.222 -0.0995 -0.1288  0.3099
65482W        W 8535  10.328  29.467   0.949 -0.2290  0.0839  0.0450
65483W        W 8536   2.583  32.149   0.603  0.2736 -0.2260  0.3439
65484W        W 8537   6.123   2.230  17.371 -0.2231  0.2091  0.3231
65485W        W 8538  22.341   9.883  26.793  0.1307  0.2201  0.1206
65486W        W 8539  20.297  31.681  10.733 -0.1347  0.1102 -0.0648
65487W        W 8540   5.444  25.555   0.606  0.1772 -0.0530  0.0784
65488W        W 8541  11.403  29.600   9.341  0.1153 -0.1645 -0.1981
65489W        W 8542  17.771   6.526  23.161  0.1741 -0.1140  0.0970
65490W        W 8543  13.793   0.281   7.210  0.2909 -0.0524 -0.1394
65491W        W 8544  34.434  10.719   9.614  0.1179  0.1037 -0.0024
65492W        W 8545  31.746  30.045   6.421  0.0799  0.2668  0.0354
65493W        W 8546  18.253  34.529   2.657  0.2372  0.0719  0.0189
65494W        W 8547  11.626  32.403   1.761  0.2425  0.1993 -0.2300
65495W        W 8548  12.392  32.879   3.425  0.0446 -0.2867  0.3037
65496W        W 8549   8.033  29.909  28.517 -0.3729  0.3936 -0.1005
65497W        W 8550  31.160   4.872   0.452  0.2280 -0.1404  0.0040
65498W        W 8551  22.400  16.121  18.149  0.0321  0.0832  0.3424
65499W        W 8552  24.817  24.040   8.879 -0.4611  0.2768  0.2067
65500W        W 8553   1.344  28.312  27.653  0.1906  0.3047 -0.0565
65501W        W 8554  31.215   2.449   8.757  0.0772 -0.1072  0.1105
65502W        W 8555   9.346   0.705   2.488 -0.0609  0.2161 -0.3383
65503W        W 8556  11.310  19.145  27.940  0.0601 -0.0999 -0.2097
65504W        W 8557   3.263  22.958  20.308  0.1488 -0.2979 -0.2771
65505W        W 8558  26.565  10.043  28.153 -0.0949 -0.1984 -0.1349
65506W        W 8559  34.508  18.683  25.070  0.1610  0.2500  0.1986
65507W        W 8560  24.426  25.102   9.245 -0.2063  0.0712 -0.3382
65508W        W 8561   2.423   1.411  25.259 -0.1850 -0.0983 -0.2335
65509W        W 8562   2.050  29.907  22.141  0.1271  0.1580 -0.2274
65510W        W 8563   0.092  10.787  23.893 -0.0010  0.2783 -0.1204
65511W        W 8564  31.033  27.437  20.361  0.0952 -0.1561 -0.1352
65512W        W 8565  16.494  30.913  18.432 -0.1780  0.1440  0.0031
65513W        W 8566  28.083   2.155  22.286 -0.0977 -0.1007  0.0026
65514W        W 8567  16.981  11.828  28.357  0.2030 -0.0868  0.1421
65515W        W 8568   1.614   9.910   1.696 -0.0903  0.1001  0.3834
65516W        W 8569   1.127   3.694   7.886 -0.3314  0.2844  0.0570
65517W        W 8570   5.310  12.045  25.566  0.0569 -0.1150  0.2447
65518W        W 8571  17.477   7.048   7.383 -0.1986  0.0638 -0.2142
65519W        W 8572   7.121  23.575  25.243  0.1176  0.1180 -0.0666
65520W        W 8573   2.200  31.203  15.154 -0.0762  0.1099 -0.0775
65521W        W 8574   2.735  12.199  27.693 -0.2207  0.0183 -0.1309
65522W        W 8575  32.570  18.670  26.929  0.3478 -0.2037 -0.2268
65523W        W 8576   9.211   1.192   1.655 -0.1281  0.0824 -0.0261
65524W        W 8577   0.488   3.740  20.162 -0.0123  0.3457 -0.1125
65525W        W 8578   4.711  32.078  27.848 -0.1918  0.0018 -0.2315
65526W        W 8579  26.081  24.630  27.138  0.2338 -0.2305  0.0353
65527W        W 8580   8.198  23.428  26.943  0.3083 -0.3414 -0.3483
65528W        W 8581   1.164  27.986  22.794  0.1738  0.0759  0.1226
65529W        W 8582  27.948   7.389   9.084 -0.1107  0.0675  0.2327
65530W        W 8583   4.777  31.731  14.224 -0.2245 -0.0592  0.0980
65531W        W 8584  20.343   7.246   6.696 -0.0009  0.3097 -0.0491
65532W        W 8585   5.276  26.398   4.677 -0.0934 -0.3336 -0.0338
65533W        W 8586  26.352  34.239   8.092  0.0604  0.0928 -0.2652
65534W        W 8587   2.167  25.421   5.001  0.0464 -0.0053  0.0377
65535W        W 8588   9.368  14.735   2.586  0.3329  0.2576 -0.2710
65536W        W 8589   3.623   1.384   5.240 -0.0256  0.0288  0.0385
65537W        W 8590  31.858   9.563  25.872 -0.0784  0.2772  0.2786
65538W        W 8591   0.758   3.207   7.989 -0.3116 -0.1153  0.3044
65539W        W 8592  32.843   3.044   0.167  0.1430 -0.2054 -0.1517
65540W        W 8593  26.445  26.458  28.646 -0.1461  0.0275 -0.0903
65541W        W 8594  32.926   7.476   3.152  0.0534 -0.0333  0.0582
65542W        W 8595   9.170  33.101   4.773  0.1399 -0.0735 -0.1378
65543W        W 8596  27.087   0.789   1.584 -0.2329  0.1329 -0.0756
65544W        W 8597  12.841   9.581   4.399  0.1193  0.2388  0.1155
65545W        W 8598   1.457   4.703  21.024 -0.1846 -0.2883  0.1351
65546W        W 8599  21.808  27.627   2.745 -0.0663 -0.0650  0.2074
65547W        W 8600   7.812  29.026   7.207 -0.0435 -0.2077  0.2332
65548W        W 8601  17.381  20.597   2.786  0.1082 -0.2054  0.1741
65549W        W 8602   1.967  11.942  18.569  0.2336 -0.2460 -0.1675
65550W        W 8603   4.524  33.752   3.619 -0.1667  0.3251 -0.0203
65551W        W 8604  21.012   5.203   1.573  0.2051 -0.0620  0.0398
65552W        W 8605   1.678   6.626   9.298 -0.3773 -0.1099 -0.3609
65553W        W 8606  30.135  27.655   3.075  0.0844 -0.1062 -0.0954
65554W        W 8607   8.739  34.001  22.529 -0.2734 -0.2178  0.1150
65555W        W 8608  25.807  26.568   0.035 -0.0519 -0.3662 -0.2073
65556W        W 8609  33.903  15.317  22.674  0.0587 -0.2304 -0.3067
65557W        W 8610   1.785  24.041  24.438  0.1642 -0.1255 -0.0190
65558W        W 8611  34.061   5.360   0.390 -0.1703  0.0687  0.0206
65559W        W 8612  23.868  30.950   6.932  0.2095 -0.1710 -0.0511
65560W        W 8613  16.505  22.841  19.773 -0.2801 -0.0520 -0.1042
65561W        W 8614   3.593  26.020   1.660  0.2625  0.0566  0.2736
65562W        W 8615  21.544   3.350   3.916 -0.1358 -0.4473  0.0044
65563W        W 8616   7.015   7.147  20.708 -0.0596 -0.0986  0.2152
65564W        W 8617   4.326   3.781   7.381  0.1999  0.0091  0.3096
65565W        W 8618  12.497  24.757   2.279  0.0015 -0.1238  0.3409
65566W        W 8619  16.286   2.560   4.989  0.1332  0.0471  0.0706
65567W        W 8620   4.648  34.490   0.974 -0.0859  0.0791 -0.0886
65568W        W 8621  29.812  26.099  24.811 -0.2895 -0.2512 -0.4399
65569W        W 8622  30.614  24.231   6.237  0.0784 -0.3023  0.3055
65570W        W 8623  22.139  27.840   6.217 -0.0698 -0.0521  0.0050
65571W        W 8624  13.959  30.928  24.539 -0.0318 -0.1935 -0.1475
65572W        W 8625  27.926   9.850   6.135  0.1406 -0.3516  0.1699
65573W        W 8626   9.175  32.973   7.929 -0.2438 -0.2863  0.0132
65574W        W 8627   5.760   1.179   6.325 -0.2707 -0.0238  0.1190
65575W        W 8628  15.920   6.127  25.983  0.2162 -0.1833 -0.0560
65576W        W 8629  28.397   5.945   2.773 -0.3653  0.0047  0.1927
65577W        W 8630   6.095   1.938   2.028 -0.1064  0.0758  0.1037
65578W        W 8631   0.958   6.294   9.436 -0.0563  0.0318 -0.4475
65579W        W 8632  31.491   3.220  16.050  0.0004 -0.2553  0.0591
65580W        W 8633  28.389  32.306   9.003 -0.0922 -0.3207 -0.1309
65581W        W 8634  23.433   6.406   3.923  0.1902  0.4037 -0.2177
65582W        W 8635  34.257   1.986  29.145  0.1907 -0.0322  0.0457
65583W        W 8636  25.119  12.359   3.401 -0.1780 -0.0001  0.2468
65584W        W 8637  30.150  19.463  20.579 -0.2220 -0.3627 -0.0103
65585W        W 8638   4.979  33.641  27.553 -0.2776  0.0476  0.1329
65586W        W 8639   9.530   1.842  20.858  0.0198 -0.0081  0.3076
65587W        W 8640  32.893  16.275  24.608  0.0332 -0.0089 -0.2533
65588W        W 8641   8.082  26.233  13.935 -0.1736 -0.0506  0.3262
65589W        W 8642  29.317  23.386   5.319  0.2679 -0.0775 -0.4321
65590W        W 8643   9.322   6.726  10.135  0.3591  0.2051 -0.2758
65591W        W 8644  27.748  19.417  26.721  0.1851  0.0051 -0.2867
65592W        W 8645  27.789   8.974   0.879  0.2649 -0.2420  0.0385
65593W        W 8646  12.133   2.491  18.940 -0.1775  0.1694 -0.0849
65594W        W 8647  10.075   5.550   1.318  0.0629  0.3695  0.0032
65595W        W 8648  29.068  28.380   3.365  0.0496 -0.0865 -0.1650
65596W        W 8649  34.180  25.526   9.598  0.0208  0.1570 -0.1538
65597W        W 8650  27.560  30.141  22.114 -0.0671  0.2215  0.3378
65598W        W 8651  14.580   3.019  22.906 -0.2613 -0.0306  0.0735
65599W        W 8652   3.140  24.614  28.499  0.1333 -0.2366  0.0945
65600W        W 8653  32.947  23.609  29.079 -0.0938  0.0360 -0.0257
65601W        W 8654   3.372   6.267  23.454 -0.0382 -0.0438  0.0544
65602W        W 8655   2.969  28.794  24.615 -0.1096 -0.1908 -0.0709
65603W        W 8656  24.340  26.017   0.984  0.5002  0.0081  0.4676
65604W        W 8657  33.901   8.042  26.871 -0.1003  0.2549  0.1695
65605W        W 8658   3.079   9.127  22.275  0.1021  0.1925  0.1546
65606W        W 8659   0.954  32.413  26.358  0.0463  0.2603 -0.2954
65607W        W 8660  22.450  16.327  26.847  0.2438  0.1016 -0.0937
65608W        W 8661  26.385  19.275   8.658  0.0740  0.1905  0.2843
65609W        W 8662   8.210  22.514   2.290 -0.2220  0.0789 -0.1518
65610W        W 8663  12.795  28.696   6.845  0.0456 -0.0765 -0.1067
65611W        W 8664   0.111   5.438  22.257 -0.3495  0.2551 -0.1453
65612W        W 8665  28.034   1.504   1.125 -0.4179  0.0237  0.1348
65613W        W 8666   5.137  32.606   5.505  0.2976  0.1031  0.2130
65614W        W 8667  11.992   1.418  21.448 -0.0585  0.0253 -0.0074
65615W        W 8668  27.424  27.150   9.817  0.0775  0.1838  0.1912
65616W        W 8669  32.293   3.303   6.963  0.1017  0.0944 -0.2127
65617W        W 8670   4.444   4.841   7.685  0.2307  0.2988  0.0366
65618W        W 8671   8.091  15.968  29.136 -0.0228  0.0849  0.0452
65619W        W 8672   8.440  26.988  25.311  0.1403  0.1949 -0.0106
65620W        W 8673  24.130  10.604   6.036 -0.0222 -0.2941  0.1028
65621W        W 8674  33.177  14.179   3.672 -0.1805 -0.0737  0.0171
65622W        W 8675  26.033  29.503   6.723 -0.0741 -0.1291 -0.0634
65623W        W 8676  10.634  10.199   8.149 -0.2831  0.0044 -0.0502
65624W        W 8677  24.750   3.782   9.606 -0.2439  0.1053 -0.0775
65625W        W 8678  12.176   2.053  28.624  0.0948 -0.2193  0.0987
65626W        W 8679   8.573  24.731   3.490  0.2479 -0.0051 -0.1124
65627W        W 8680  29.772   4.651   8.755  0.0464  0.5816  0.3624
65628W        W 8681  19.640  26.524   7.507  0.1755 -0.0426 -0.0538
65629W        W 8682  14.395  31.726   5.919  0.2089  0.0663 -0.1694
65630W        W 8683   8.301  29.433   3.859 -0.1961  0.2184 -0.1396
65631W        W 8684  19.291  23.946   5.687  0.1838  0.0410  0.1216
65632W        W 8685  15.133  34.211  14.291  0.0624  0.1203 -0.2334
65633W        W 8686   9.581  23.602   3.184  0.2672 -0.0574  0.0755
65634W        W 8687   3.753   8.361  27.084  0.1183 -0.1239 -0.2509
65635W        W 8688   3.934   3.123   3.326 -0.3231  0.1105 -0.0555
65636W        W 8689  33.250  13.969  23.180 -0.0618  0.0816  0.0097
65637W        W 8690  30.981  31.205   4.279 -0.1377 -0.1888 -0.4479
65638W        W 8691  19.614   7.192   8.176 -0.1800  0.0718  0.0572
65639W        W 8692  13.938  16.229   4.418  0.0287 -0.1889  0.1173
65640W        W 8693   0.204  13.606  17.946  0.1442  0.0034  0.0716
65641W        W 8694  11.581  32.253  20.034 -0.0865 -0.1400 -0.1046
65642W        W 8695  31.591  21.168  27.137 -0.0394 -0.0224  0.1273
65643W        W 8696  13.124  21.534  19.244  0.2829  0.0113 -0.1356
65644W        W 8697   8.127  31.087   0.630  0.0094 -0.2197 -0.1286
65645W        W 8698   5.336  27.897  26.342 -0.2607  0.1438  0.0628
65646W        W 8699   2.166  22.877   0.582  0.1856  0.0793 -0.0425
65647W        W 8700  31.178  12.235   2.342  0.1437  0.0611  0.2292
65648W        W 8701  28.993  13.796  24.814 -0.1162  0.3514 -0.2422
65649W        W 8702   5.122  13.186   0.464  0.1527 -0.0654 -0.2641
65650W        W 8703   1.252  28.428   6.478 -0.0559  0.0574 -0.0678
65651W        W 8704  11.844  27.403   8.844  0.4876 -0.0226  0.1402
65652W        W 8705  33.567   0.021   6.879  0.1037  0.2826 -0.0998
65653W        W 8706  12.496   5.461  26.512 -0.2640 -0.1527  0.2306
65654W        W 8707  15.523   6.064   7.204 -0.0916 -0.0320 -0.0301
65655W        W 8708   4.003  31.203  17.571 -0.3348  0.2227  0.0764
65656W        W 8709  20.730   1.979   2.563 -0.2105  0.2755  0.1520
65657W        W 8710  15.369  21.184  28.616  0.0974 -0.2130  0.2550
65658W        W 8711   2.599  10.974   7.932  0.2283 -0.0845  0.4304
65659W        W 8712  12.312  12.189  10.349 -0.4692 -0.3267 -0.1664
65660W        W 8713  34.679  12.354   4.913  0.4210 -0.0093 -0.0087
65661W        W 8714  22.817  26.849  21.092 -0.1340  0.1443 -0.1075
65662W        W 8715   3.426  32.462   9.392 -0.1274 -0.3716  0.4488
65663W        W 8716   9.025  32.236  22.007  0.0504  0.3122  0.3937
65664W        W 8717   8.084  27.041   5.950  0.0636 -0.1341 -0.0905
65665W        W 8718  15.797  34.666   3.290 -0.0783 -0.1667  0.0904
65666W        W 8719   3.233  31.017  25.579 -0.3111 -0.0701  0.0778
65667W        W 8720  28.844   1.472   7.508  0.1697 -0.0422  0.0332
65668W        W 8721   0.142  23.909  25.282 -0.3941  0.0344 -0.0545
65669W        W 8722  33.643   4.815   5.518  0.0723  0.0474  0.0527
65670W        W 8723   1.572   9.015   3.527 -0.1548 -0.1257  0.1286
65671W        W 8724   2.498  24.992  28.813 -0.0987  0.0219 -0.0830
65672W        W 8725   3.564  23.551   0.153  0.2009  0.0327  0.0950
65673W        W 8726  30.616  29.647   8.576 -0.2648 -0.1173  0.2227
65674W        W 8727   9.911  21.336   6.411  0.0633  0.1526 -0.1111
65675W        W 8728   5.938  16.658  10.251  0.1211  0.1287 -0.2393
65676W        W 8729  34.589  29.292  26.738  0.0998 -0.2340  0.0962
65677W        W 8730  10.613  22.187   8.771 -0.0213  0.1715 -0.0193
65678W        W 8731  22.622  33.483   2.455 -0.2696  0.0846  0.0426
65679W        W 8732  31.171   6.563   4.213  0.0541  0.0939 -0.0269
65680W        W 8733  26.342  27.056   1.520 -0.0525  0.0727 -0.1099
65681W        W 8734  17.966   9.126  10.660 -0.1033  0.0602  0.0982
65682W        W 8735   3.887  15.403  26.684  0.0699  0.1523  0.1015
65683W        W 8736   4.528   5.275   5.767  0.0189 -0.1594  0.1273
65684W        W 8737  25.512  29.647  19.611 -0.1282 -0.1581  0.1076
65685W        W 8738  18.749   9.765   9.278 -0.0397 -0.1912  0.2178
65686W        W 8739  26.198  29.388  21.054 -0.1764 -0.0703  0.0643
65687W        W 8740  19.507   0.697  21.816  0.1889 -0.0085  0.1715
65688W        W 8741  25.847  23.834   3.997 -0.0972  0.3388 -0.0615
65689W        W 8742   9.377  31.056   2.464 -0.1383 -0.5404 -0.4260
65690W        W 8743  20.397   1.650   8.291  0.1686 -0.0443 -0.2208
65691W        W 8744  31.941  25.424   7.974  0.3703  0.1310  0.1624
65692W        W 8745  18.322   1.074  24.826 -0.2996 -0.0520 -0.1930
65693W        W 8746  28.113  27.150   6.595  0.3741  0.0335 -0.0543
65694W        W 8747  34.029  11.058  10.038 -0.1190 -0.2806 -0.6941
65695W        W 8748  13.902   5.508  23.790  0.0387  0.0273  0.3419
65696W        W 8749   8.597  31.314  28.154 -0.2503 -0.0181 -0.2010
65697W        W 8750  16.026  12.795   9.905 -0.3036  0.1325 -0.0806
65698W        W 8751  32.340   1.485   5.229  0.0148  0.3491  0.0568
65699W        W 8752  27.094   3.343   5.185  0.0099 -0.0606 -0.3232
65700W        W 8753   5.487  31.029   2.370 -0.0764  0.0930  0.1844
65701W        W 8754   4.023  33.232   3.073  0.3126 -0.0250  0.1117
65702W        W 8755  29.274  15.775  25.816 -0.0025 -0.1466  0.0703
65703W        W 8756  26.763  17.481   9.247  0.2515 -0.1001  0.1261
65704W        W 8757  10.088  23.487   5.383 -0.2569  0.0340  0.3121
65705W        W 8758   4.845  30.193  24.322  0.1045 -0.1930 -0.0202
65706W        W 8759   6.491  20.051   5.429  0.0242 -0.1604 -0.4035
65707W        W 8760   7.929  31.105   0.119  0.2211 -0.3602 -0.1829
65708W        W 8761   2.621  10.744   8.891 -0.3336 -0.4128  0.0704
65709W        W 8762   1.253  27.157  27.540 -0.1301  0.3160 -0.1250
65710W        W 8763  14.149  33.701   6.622 -0.2214 -0.0440 -0.1274
65711W        W 8764   1.456  18.942  19.995 -0.4333  0.1468 -0.2682
65712W        W 8765   6.422  24.118  26.830  0.2023 -0.4214  0.0298
65713W        W 8766   6.956   4.355  10.215 -0.0105  0.1001  0.2353
65714W        W 8767   2.045  32.081  24.336  0.0409 -0.1115 -0.0597
65715W        W 8768  14.968   4.103  10.528  0.1727  0.2871 -0.2046
65716W        W 8769   4.538  29.243   6.040 -0.2012 -0.0267  0.1852
65717W        W 8770  34.276  29.479   8.538  0.1228 -0.1174 -0.2612
65718W        W 8771   2.474  23.072  23.508  0.0278 -0.0665  0.0355
65719W        W 8772   0.235  29.993  28.167  0.0823  0.1820 -0.0632
65720W        W 8773   1.714  27.976   4.736 -0.0369 -0.0220 -0.0967
65721W        W 8774   2.892   1.973   2.011  0.0520  0.0807 -0.0659
65722W        W 8775   1.466  28.498   9.210  0.0027 -0.2359 -0.0880
65723W        W 8776   1.558  11.802  25.266 -0.0211  0.0724 -0.1942
65724W        W 8777  12.712   5.584   3.583  0.1420  0.2132  0.2590
65725W        W 8778  33.168  33.457   6.384  0.0248 -0.2703 -0.2349
65726W        W 8779  11.686  28.918   8.167  0.2060  0.2000  0.0735
65727W        W 8780  14.133  29.692  24.430 -0.1111 -0.3394 -0.1037
65728W        W 8781  24.533  11.172   0.136 -0.0175 -0.2348  0.4415
65729W        W 8782  15.517  27.266  21.886 -0.1731 -0.1650 -0.1651
65730W        W 8783  17.569  10.736   1.154  0.1043  0.0458  0.0588
65731W        W 8784   7.267  26.219   7.381  0.2985  0.1930  0.0949
65732W        W 8785  29.257   6.669   9.636 -0.2482 -0.0916  0.2932
65733W        W 8786   9.732  31.434   0.543  0.2451 -0.0040 -0.0537
65734W        W 8787  33.814  28.580  28.038 -0.1002 -0.0170 -0.2575
65735W        W 8788  24.218   2.869  26.698 -0.0275  0.1782 -0.1349
65736W        W 8789   4.440  25.210   4.935 -0.1077 -0.1159 -0.1045
65737W        W 8790   0.885  34.171  26.039  0.0130  0.2976  0.0363
65738W        W 8791   0.644  20.484   2.657 -0.1840 -0.0298  0.0998
65739W        W 8792  33.550  13.236   2.274 -0.0511  0.0786  0.1711
65740W        W 8793   0.327  33.578   8.482 -0.0197 -0.1842 -0.0605
65741W        W 8794   8.932   8.040   4.748  0.1373 -0.0467 -0.2922
65742W        W 8795  15.540  26.664   6.449  0.0318  0.2173  0.3871
65743W        W 8796  26.644  32.162   9.218 -0.0958  0.0590  0.0029
65744W        W 8797   0.877   6.400   6.764  0.1083 -0.0120  0.1891
65745W        W 8798  19.876   1.935  16.722  0.1942  0.2740  0.1584
65746W        W 8799   4.918  26.012  26.624  0.0635  0.2450 -0.0638
65747W        W 8800  27.949  32.336  26.182  0.0118  0.2197 -0.1865
65748W        W 8801  28.167  10.921  28.434 -0.2153  0.0847 -0.3776
65749W        W 8802  15.564  31.061   7.220 -0.1135 -0.0098  0.2438
65750W        W 8803   2.018   0.803   2.867 -0.1346  0.1298 -0.3057
65751W        W 8804   4.372  26.389   8.401 -0.0892 -0.1392 -0.0244
65752W        W 8805  23.133  24.138   3.196 -0.0622  0.2807  0.3514
65753W        W 8806  15.252  11.650  10.630 -0.1758 -0.2155 -0.1803
65754W        W 8807   1.553   5.007   6.209  0.2291  0.1236 -0.2724
65755W        W 8808   5.323  28.393  29.017  0.0303 -0.2150 -0.0432
65756W        W 8809   4.714   2.724   4.844 -0.1092 -0.1031  0.0276
65757W        W 8810  16.278  29.020  28.961 -0.1485  0.1035 -0.1421
65758W        W 8811   0.188   2.312   0.467 -0.2489 -0.2721 -0.3904
65759W        W 8812  25.507   2.914   1.027  0.1838 -0.3336 -0.1642
65760W        W 8813   8.504   8.705   5.243 -0.2711 -0.2495  0.3100
65761W        W 8814  21.791  25.686   7.373  0.0014 -0.2069  0.0034
65762W        W 8815  18.192  30.021   4.491  0.2069 -0.2060  0.0475
65763W        W 8816   8.613  34.501   4.645 -0.0019  0.2137  0.2154
65764W        W 8817  15.143   5.554  20.639 -0.0401 -0.2827 -0.2693
65765W        W 8818  20.978  25.678   6.634  0.0748  0.0816 -0.0954
65766W        W 8819  18.916  30.304  21.882  0.1441 -0.2951 -0.0114
65767W        W 8820   3.882  11.901   1.715 -0.1386  0.0153 -0.0204
65768W        W 8821  10.180  32.955   8.855 -0.2007  0.0230  0.3707
65769W        W 8822  19.679  26.451   2.295  0.2678  0.3277  0.2421
65770W        W 8823   2.995  31.486   4.590  0.0119 -0.2524 -0.1678
65771W        W 8824  24.680  33.338   4.733 -0.2174 -0.3574  0.0232
65772W        W 8825  29.003  17.416  28.356  0.0114  0.2426 -0.0451
65773W        W 8826  10.792  34.496   3.602  0.1244  0.2915  0.1677
65774W        W 8827  29.574  33.076   5.597  0.0552  0.2841  0.1737
65775W        W 8828   6.201   1.995  10.026 -0.0402  0.2081 -0.0240
65776W        W 8829  16.972  27.179  25.422  0.2198 -0.2781  0.2197
65777W        W 8830  31.000   0.503  25.622 -0.1743 -0.0011 -0.0857
65778W        W 8831   7.180  32.176   5.585 -0.1580 -0.3427  0.1380
65779W        W 8832  34.116  30.693  25.370  0.1357  0.0063 -0.0532
65780W        W 8833   6.056   4.446  27.011 -0.4016  0.0983  0.1691
65781W        W 8834  18.475  30.293  25.973 -0.0953 -0.3243 -0.2680
65782W        W 8835  11.648  31.524   4.376  0.1402 -0.2013  0.2507
65783W        W 8836  32.299  11.198   2.397 -0.1016  0.1358 -0.1192
65784W        W 8837   0.034   5.072   6.753  0.2964 -0.2219  0.1274
65785W        W 8838  25.343  32.634   8.283 -0.1875  0.2297  0.0557
65786W        W 8839  24.542  15.639   0.508  0.1875 -0.1861 -0.1496
65787W        W 8840  24.645  12.708   7.990  0.0718  0.0198  0.4092
65788W        W 8841   9.857  13.132   7.043  0.0568  0.1068 -0.0352
65789W        W 8842  18.300  17.779   1.609  0.1433 -0.3724 -0.0085
65790W        W 8843  33.261   4.756   8.177 -0.3331 -0.3581  0.0272
65791W        W 8844   4.737  26.057   8.541 -0.1511  0.0104  0.2079
65792W        W 8845  10.028  15.250   8.584  0.1372 -0.0140  0.1804
65793W        W 8846  11.761   1.821  27.303 -0.0467  0.0379  0.3437
65794W        W 8847  33.245   5.879   2.809  0.4386 -0.0321  0.0089
65795W        W 8848  29.652  26.455  26.254  0.1627  0.2855 -0.0381
65796W        W 8849   1.385  34.123   2.094  0.0237  0.0029  0.4065
65797W        W 8850  31.895  23.057  26.296 -0.1687  0.4925  0.3300
65798W        W 8851  24.168   7.175  18.444 -0.1618  0.1712  0.0192
65799W        W 8852   9.732   9.824  26.671 -0.4010 -0.2425  0.0477
65800W        W 8853  21.960  31.721  20.567  0.0033 -0.2778 -0.0744
65801W        W 8854   4.566  26.107  21.238  0.0616  0.1260  0.1737
65802W        W 8855   3.231  30.000   7.341  0.1654 -0.3393  0.0324
65803W        W 8856  26.863   3.851  27.442  0.3195  0.1715  0.0245
65804W        W 8857  11.738   0.890   4.645 -0.0350  0.1515 -0.1695
65805W        W 8858   6.239   7.184  15.272 -0.2760  0.4015 -0.0393
65806W        W 8859   5.498   7.000  27.085 -0.0215 -0.1256 -0.0201
65807W        W 8860  32.801   5.003   3.588 -0.0996 -0.0160  0.3119
65808W        W 8861   6.253  31.425   4.622  0.1895 -0.0491  0.2211
65809W        W 8862  15.251   7.933  28.993  0.2992 -0.1479 -0.1512
65810W        W 8863  24.391  32.917  27.229 -0.1951  0.3517  0.0867
65811W        W 8864  10.671  28.264   2.092 -0.1717  0.1419  0.2219
65812W        W 8865   1.292   2.389  26.630 -0.1898 -0.0948 -0.0174
65813W        W 8866  34.143  31.480   5.719 -0.1618  0.0200  0.1053
65814W        W 8867   5.510  27.790  22.458  0.0344  0.2281  0.2212
65815W        W 8868  21.926  17.859   3.375 -0.0233  0.2486  0.2697
65816W        W 8869   7.445   2.324   1.386  0.0260 -0.3520 -0.1275
65817W        W 8870   2.656  25.586   3.586 -0.1816 -0.2048  0.1418
65818W        W 8871   6.640  19.019  19.911 -0.3569  0.3240  0.1033
65819W        W 8872  18.135   9.191   9.621 -0.2212  0.0983 -0.3342
65820W        W 8873   0.931  11.808  24.851  0.2773 -0.2979  0.2744
65821W        W 8874  33.601  30.104   7.112 -0.1108  0.0684  0.1970
65822W        W 8875  12.755  30.740   3.790 -0.0676  0.0008  0.2946
65823W        W 8876  30.377   2.256   5.378  0.0608  0.1735 -0.2514
65824W        W 8877  17.337   6.305   4.116  0.4690 -0.1203  0.3891
65825W        W 8878  23.337  32.088   4.446 -0.1738  0.1828 -0.2174
65826W        W 8879  34.345   0.268   8.206  0.3021  0.2768 -0.1020
65827W        W 8880  21.474   4.407   2.360 -0.0794  0.0413 -0.2868
65828W        W 8881  26.384  26.637  29.149  0.3683  0.0592 -0.0132
65829W        W 8882  24.570   3.517   9.193  0.3555 -0.1236  0.3164
65830W        W 8883   5.614  25.169   1.055 -0.2945  0.0558 -0.1684
65831W        W 8884   7.881  28.989   7.753 -0.1785  0.0228 -0.1033
65832W        W 8885   6.401  27.317   4.660  0.1899 -0.2469  0.1829
65833W        W 8886  18.601  32.486   4.550 -0.0114 -0.0691 -0.0282
65834W        W 8887  34.383  27.642   7.213 -0.0255  0.0709 -0.3855
65835W        W 8888  31.488  24.782  27.673  0.2128  0.0607 -0.1539
65836W        W 8889  12.925  22.027  26.090 -0.1376 -0.1298  0.1814
65837W        W 8890  23.761  13.387  24.930  0.0082  0.4164 -0.0265
65838W        W 8891   1.595  29.312  19.279 -0.1193 -0.1908 -0.0743
65839W        W 8892   7.417  24.921   7.644 -0.1099 -0.1116 -0.4101
65840W        W 8893  30.515  27.504   3.394  0.0444 -0.0234 -0.2001
65841W        W 8894  25.634  33.216   2.936  0.0036 -0.1337 -0.0496
65842W        W 8895   4.684  27.145  25.533  0.0916  0.0100  0.0361
65843W        W 8896  27.433   7.170   5.790 -0.0021  0.2430  0.0934
65844W        W 8897  32.329  11.618   2.665  0.0764  0.1091  0.0857
65845W        W 8898  29.508   9.248   0.144 -0.1318  0.0817 -0.1059
65846W        W 8899   7.582  23.765   1.593  0.1945 -0.4173 -0.0179
65847W        W 8900  28.139  17.426   6.837  0.1534  0.0502  0.1137
65848W        W 8901   2.941  31.011  21.048  0.2559 -0.1369  0.0508
65849W        W 8902  22.680  26.721   9.531  0.2271 -0.1945 -0.1037
65850W        W 8903  27.770  25.457  24.199  0.1030  0.0323  0.0221
65851W        W 8904   5.815  30.935   8.922  0.1300  0.1303  0.2024
65852W        W 8905  28.556   6.495  15.203  0.0003  0.2794  0.5459
65853W        W 8906  25.775  29.860  18.312 -0.2730 -0.2536  0.2900
65854W        W 8907   8.298  30.568  28.432  0.3003 -0.0197 -0.1264
65855W        W 8908   7.093  23.905  23.769  0.0609  0.3048 -0.1876
65856W        W 8909  33.937  29.922   3.996  0.0874 -0.1533 -0.1379
65857W        W 8910  23.619   1.025   3.878 -0.0989  0.2742 -0.0316
65858W        W 8911  16.888   4.736  10.934 -0.1059 -0.1537 -0.0716
65859W        W 8912  26.722  23.216  18.127  0.0705  0.0181  0.1590
65860W        W 8913  12.462   7.000   3.914 -0.0137  0.0262  0.0097
65861W        W 8914   8.552  16.589   6.529  0.3587  0.1839  0.1300
65862W        W 8915   2.210   1.131   6.666 -0.0833 -0.2395  0.0976
65863W        W 8916  13.718  34.430   0.886 -0.3014  0.3221 -0.1290
65864W        W 8917  22.789  14.403  28.645 -0.1919  0.0433  0.1738
65865W        W 8918  31.651  30.335   7.283 -0.1902 -0.0815 -0.0824
65866W        W 8919   8.613  30.069   3.108  0.0437  0.1078  0.2636
65867W        W 8920  12.451   6.578  27.982  0.1997 -0.2987  0.3227
65868W        W 8921  24.699   6.093  26.251  0.2673  0.0981 -0.2539
65869W        W 8922   9.715  33.689   4.332  0.0860  0.0455  0.3611
65870W        W 8923   5.444   2.270  26.927  0.0784 -0.2981  0.0245
65871W        W 8924  10.812  23.968  25.239 -0.5413  0.3024 -0.1931
65872W        W 8925  28.368  24.391   2.717  0.0254  0.0599  0.4869
65873W        W 8926  27.375  26.167   8.647 -0.1500 -0.0841  0.4504
65874W        W 8927   9.832  15.807   0.702  0.0765  0.0192 -0.0537
65875W        W 8928  26.592   0.160   2.751 -0.1360  0.2113  0.2614
65876W        W 8929  11.879  17.226   1.748 -0.1663  0.1038  0.0022
65877W        W 8930  26.170   2.835  10.366  0.0627 -0.0829 -0.0373
65878W        W 8931  26.003   5.038  10.578 -0.0147  0.0794 -0.2443
65879W        W 8932  27.079   3.119   6.230 -0.0805 -0.1516 -0.1722
65880W        W 8933   5.572   7.001  20.820  0.0456 -0.1360 -0.1094
65881W        W 8934  28.930  31.592  22.488  0.1515  0.1139  0.0694
65882W        W 8935  10.489  18.239   4.739  0.0533 -0.0557 -0.0361
65883W        W 8936  32.522  22.743   6.267  0.0036 -0.0822 -0.1219
65884W        W 8937   5.176   4.305   1.628  0.4199 -0.0147 -0.0395
65885W        W 8938   7.198  28.648   4.933 -0.0176 -0.0096 -0.0601
65886W        W 8939   9.413  28.343  27.141  0.0674  0.2258  0.0440
65887W        W 8940   4.493  10.613  27.643  0.2500  0.1080 -0.0722
65888W        W 8941   1.083  32.588  27.518 -0.3187 -0.0029 -0.3851
65889W        W 8942   9.919   9.025  10.109  0.3232  0.1608 -0.3773
65890W        W 8943   7.862  25.759   8.083 -0.2780  0.2453  0.2545
65891W        W 8944  22.519  32.033   2.162 -0.0806  0.2389 -0.0384
65892W        W 8945   4.586   6.752   6.707 -0.1483  0.2255  0.0205
65893W        W 8946  31.158  22.155   4.972  0.1552 -0.1146  0.0251
65894W        W 8947  33.732  21.304   7.886  0.1997 -0.0628 -0.0559
65895W        W 8948  26.540  26.615  23.249  0.0723 -0.2376 -0.2153
65896W        W 8949  10.066   1.890   9.156 -0.1764 -0.1679 -0.2314
65897W        W 8950   4.581   1.113   7.915  0.3144  0.0929 -0.1805
65898W        W 8951  30.623   2.215   2.606  0.3004 -0.2118  0.1111
65899W        W 8952  28.951  32.310   0.708  0.1668 -0.1574  0.2152
65900W        W 8953  14.163  25.867  18.925  0.1417 -0.0991 -0.2504
65901W        W 8954  13.604  31.878   4.269 -0.0279 -0.2075  0.0617
65902W        W 8955   2.822  20.121  21.326  0.3546  0.0203 -0.0436
65903W        W 8956   2.608  16.994   9.061  0.1394  0.0090 -0.1145
65904W        W 8957   2.075  31.042  21.106 -0.0713  0.0638  0.0471
65905W        W 8958   7.167   0.863   8.211 -0.0580 -0.3150  0.0547
65906W        W 8959   1.067  28.734   5.585  0.2020  0.0870 -0.0929
65907W        W 8960  33.642   0.540   5.043  0.0422 -0.2228  0.1332
65908W        W 8961   6.801  29.032   1.607 -0.1078  0.3186  0.0693
65909W        W 8962  28.836   2.651  10.198  0.0526 -0.1002  0.2698
65910W        W 8963  10.404  15.980   9.432  0.0418  0.0547 -0.0210
65911W        W 8964  32.595   5.950  26.866 -0.1516 -0.0658 -0.0022
65912W        W 8965   6.659  15.369  19.406  0.2558 -0.0165 -0.0995
65913W        W 8966  24.101  29.972  27.086  0.0624 -0.1451  0.2245
65914W        W 8967  14.923  26.971   7.494  0.3744  0.0199  0.3511
65915W        W 8968  30.169  27.542   3.974 -0.1048  0.1846 -0.1085
65916W        W 8969  33.339  23.426   9.198 -0.0861 -0.2592 -0.1275
65917W        W 8970   7.805   4.819   9.217  0.3389 -0.0065 -0.2143
65918W        W 8971   6.329   7.740   5.113 -0.3264  0.0210 -0.0343
65919W        W 8972  30.842  27.960   7.613  0.1611  0.3156 -0.0439
65920W        W 8973  16.786   1.108   4.415 -0.1756  0.0845 -0.1017
65921W        W 8974  34.586  25.970   1.301  0.1663  0.1925  0.0588
65922W        W 8975   7.639  21.888  28.069 -0.1329  0.0036  0.1689
65923W        W 8976  23.464  28.767   8.608  0.0429 -0.0809  0.0282
65924W        W 8977   1.877  25.529  25.425 -0.1135 -0.0088 -0.1495
65925W        W 8978  14.264   2.395   2.252  0.0934  0.1293 -0.1166
65926W        W 8979  32.497   3.680  24.814  0.1369 -0.5826  0.1264
65927W        W 8980  23.595  29.173   8.947 -0.1823 -0.0186  0.1727
65928W        W 8981   9.936  14.948  11.398 -0.2193  0.0184 -0.3750
65929W        W 8982  28.841  32.541   1.521 -0.0587  0.0528 -0.3076
65930W        W 8983   8.174   3.785   6.939 -0.0336  0.0626 -0.2187
65931W        W 8984  17.041  33.053   3.379  0.0524  0.0803 -0.2707
65932W        W 8985  33.258  33.960   3.626  0.1418 -0.0948  0.2907
65933W        W 8986  19.580   9.567   4.064  0.0131 -0.0098  0.1561
65934W        W 8987  32.801   0.372  26.288 -0.0912 -0.2410 -0.0499
65935W        W 8988  11.275  30.774   7.884  0.1136 -0.2369 -0.0377
65936W        W 8989   2.856  30.732   6.063 -0.2648 -0.4243 -0.1512
65937W        W 8990  16.535   1.986  21.698 -0.2082 -0.1411  0.0053
65938W        W 8991   0.591  30.687   6.767  0.0500  0.0350 -0.3355
65939W        W 8992   6.257   7.022   0.914  0.1902  0.1225  0.1197
65940W        W 8993   1.815  19.180   5.308 -0.1224  0.0562 -0.1315
65941W        W 8994   1.715  10.371  22.216 -0.3324 -0.0151  0.5977
65942W        W 8995  16.742  33.216  23.170  0.1976 -0.2335 -0.0645
65943W        W 8996   3.091  29.836   1.191 -0.2123 -0.1035  0.1275
65944W        W 8997   7.523   7.852  26.372 -0.3047  0.3782  0.0998
65945W        W 8998  16.061  21.505  24.923 -0.1992  0.1382  0.2316
65946W        W 8999  13.165  17.584   4.890 -0.0597 -0.0060  0.0026
65947W        W 9000  27.007  22.568   9.961  0.2683  0.0690  0.0728
65948W        W 9001  21.853  32.106  28.964  0.0922 -0.1031 -0.0809
65949W        W 9002   2.199  28.646  25.234 -0.1071  0.2085  0.1101
65950W        W 9003  20.985  12.047   6.077  0.1198  0.3080 -0.0542
65951W        W 9004  27.739   3.114   1.185 -0.1989  0.0061 -0.1186
65952W        W 9005  22.837  25.359   1.988  0.0059 -0.1646 -0.1825
65953W        W 9006  10.224   4.989   2.715 -0.1467  0.5000 -0.0107
65954W        W 9007   3.200  30.742   3.751 -0.2292 -0.0002  0.0276
65955W        W 9008   2.014  34.673   6.604 -0.0846  0.1928 -0.1170
65956W        W 9009  28.298   1.881   9.397 -0.0486  0.1505 -0.0781
65957W        W 9010   9.824   6.748   6.884  0.0560  0.0350 -0.1531
65958W        W 9011  17.870  22.696  14.676 -0.0270  0.2375  0.2193
65959W        W 9012  20.162  14.261   8.933 -0.0688  0.2614  0.1546
65960W        W 9013  32.333   7.966   1.214  0.2677 -0.3600  0.1479
65961W        W 9014  11.172  30.851  27.221  0.1346  0.0603 -0.0060
65962W        W 9015  34.071  29.101   3.959  0.0067 -0.1269  0.1678
65963W        W 9016   0.951   1.139  24.477 -0.0225 -0.4550  0.1134
65964W        W 9017  34.252  31.030  16.248 -0.0332  0.2399  0.1077
65965W        W 9018  13.244  34.532  23.698  0.0161  0.3587 -0.0042
65966W        W 9019   1.037  20.665  27.165 -0.0143  0.4160  0.1006
65967W        W 9020   7.521  22.551   6.920 -0.1149 -0.1326 -0.1740
65968W        W 9021  26.684   4.466  24.691 -0.0251 -0.4164  0.1669
65969W        W 9022  34.147   8.870   5.361 -0.0266  0.1309 -0.0146
65970W        W 9023  33.424   1.144  16.475  0.2321 -0.0510 -0.2765
65971W        W 9024   1.215   6.251   3.847  0.1299 -0.3974 -0.1725
65972W        W 9025  32.827  30.993   6.511 -0.0354 -0.0825 -0.1737
65973W        W 9026   1.991   7.051   4.851  0.0818 -0.2936 -0.1188
65974W        W 9027   5.953  11.247   7.903 -0.2635  0.0491  0.2349
65975W        W 9028   1.542   1.210   0.931  0.2397 -0.0368  0.1051
65976W        W 9029  15.342  30.178  22.589  0.0772 -0.0087 -0.2989
65977W        W 9030  13.184  25.852  20.927 -0.0141  0.0613 -0.1968
65978W        W 9031   2.567  30.075   2.284 -0.2974 -0.2583 -0.0305
65979W        W 9032   7.169  31.960   7.107  0.4584 -0.0257 -0.1585
65980W        W 9033  27.491  13.236   3.337  0.0775  0.0494  0.1284
65981W        W 9034  33.856  21.819   2.708 -0.1344 -0.0902  0.0734
65982W        W 9035  22.016  24.259  24.622  0.3527  0.0041 -0.1434
65983W        W 9036  31.850   0.734   1.393 -0.1755 -0.1253  0.1325
65984W        W 9037  27.671   7.060   1.757  0.0579  0.2632 -0.0691
65985W        W 9038   3.988  23.667  20.671 -0.0061 -0.1636 -0.0512
65986W        W 9039  11.355  32.978   9.429 -0.2003 -0.1417 -0.2831
65987W        W 9040  22.409   3.761  24.449 -0.1128 -0.2742  0.0867
65988W        W 9041  32.480  28.484  20.117 -0.2644  0.0686 -0.2157
65989W        W 9042  28.397  29.931   6.371  0.0880  0.2295 -0.0424
65990W        W 9043   6.994   1.070   6.155  0.0062 -0.0156  0.1210
65991W        W 9044  33.709   4.521   2.617 -0.1904  0.2041  0.1424
65992W        W 9045  23.855  34.401  25.188  0.0193  0.0018 -0.0844
65993W        W 9046  33.169   2.792   3.021  0.0488 -0.0288  0.0128
65994W        W 9047  29.501   4.996  27.113  0.1360 -0.0856  0.0976
65995W        W 9048  34.211  12.796   8.590  0.1913  0.2487  0.1140
65996W        W 9049  12.128  26.043   3.943  0.0015 -0.2412  0.1864
65997W        W 9050  30.422  16.935  22.200  0.0402 -0.2994 -0.1680
65998W        W 9051   9.529  28.633   4.630  0.3380 -0.2157  0.1678
65999W        W 9052  14.776  25.429  27.525 -0.3806 -0.0540 -0.0079
66000W        W 9053  27.384   5.681  18.348  0.2332  0.1360 -0.0124
66001W        W 9054  34.353  11.333   6.731  0.0159 -0.0163  0.0508
66002W        W 9055   2.953  31.332   8.826 -0.2349  0.1803 -0.0941
66003W        W 9056  31.022  10.553   2.001 -0.2020  0.0652  0.2322
66004W        W 9057  25.552   4.162   4.012 -0.5043  0.0661 -0.0247
66005W        W 9058  13.687  31.511  27.120  0.2646 -0.0197 -0.2264
66006W        W 9059   2.143   5.379  24.528  0.2009 -0.3286  0.0570
66007W        W 9060  33.787  23.523  28.721 -0.0125  0.1673 -0.0115
66008W        W 9061  17.482  27.182  15.245 -0.0538 -0.2239  0.5291
66009W        W 9062   9.106  18.992   8.830  0.0150 -0.2139  0.2169
66010W        W 9063   0.026  11.643  28.897 -0.0262  0.0012  0.0707
66011W        W 9064  32.091   1.540   8.208 -0.1449 -0.2609  0.0960
66012W        W 9065   6.691   9.013   3.299  0.1666  0.0922  0.2179
66013W        W 9066  32.672   1.986  25.047 -0.1579  0.2796  0.0911
66014W        W 9067   2.151  20.647   2.044  0.2324  0.0409  0.0546
66015W        W 9068  30.126  23.258   9.863 -0.3615  0.1837 -0.0735
66016W        W 9069   5.786   6.690   9.732  0.0314 -0.0537  0.0337
66017W        W 9070  12.792   9.075   4.293  0.2030  0.0026 -0.2422
66018W        W 9071  22.930  25.326  23.061 -0.0011  0.0899  0.2788
66019W        W 9072  21.691  26.444   0.621 -0.3370  0.2134  0.2333
66020W        W 9073  30.346  29.742   9.742  0.0389  0.1192  0.0452
66021W        W 9074  26.342  31.889  21.776 -0.1031  0.0970 -0.0816
66022W        W 9075  30.217  25.995   1.706 -0.0153  0.0281  0.3189
66023W        W 9076   0.669  30.261   6.068  0.0886  0.2127  0.1692
66024W        W 9077  11.098   4.677   3.709  0.0777  0.3414  0.2602
66025W        W 9078   9.386   2.566  10.082  0.0116 -0.3369 -0.2675
66026W        W 9079  29.051  29.167  23.777  0.2075 -0.0852 -0.0268
66027W        W 9080  30.427   0.725   0.528 -0.1480  0.2464  0.0758
66028W        W 9081  12.912  20.426   9.349 -0.4082 -0.2551  0.0170
66029W        W 9082   7.681   3.255   2.052  0.4665  0.0055 -0.5522
66030W        W 9083  13.033  16.990  24.000 -0.0152  0.2612 -0.3221
66031W        W 9084   3.202  25.692   7.253  0.0279 -0.2288 -0.0240
66032W        W 9085   0.553   3.438  18.901 -0.1238  0.2493 -0.0115
66033W        W 9086  26.597  31.934   2.437 -0.3298 -0.2017  0.0101
66034W        W 9087  32.596  32.756  15.514 -0.1214  0.2243 -0.2543
66035W        W 9088  23.016   6.135   1.697 -0.2799 -0.2820 -0.0331
66036W        W 9089  20.176  11.179   9.824 -0.1831 -0.0919  0.0919
66037W        W 9090   6.056  28.176   4.299 -0.1827 -0.5871  0.0161
66038W        W 9091  21.211  17.348   2.448 -0.0128 -0.1054  0.3337
66039W        W 9092  21.807  26.560   2.158 -0.1418 -0.1623  0.0359
66040W        W 9093  20.655   7.545  14.930 -0.1181 -0.0460  0.2239
66041W        W 9094   9.649  12.431   0.346 -0.1601  0.1747 -0.2858
66042W        W 9095  27.388   4.715  24.267 -0.0650  0.0960 -0.2647
66043W        W 9096  16.207  29.959  22.897  0.2462  0.1148  0.2706
66044W        W 9097  23.476  24.381  22.895 -0.0800 -0.0141  0.0220
66045W        W 9098   7.123   3.504   6.813 -0.2157  0.2266 -0.1271
66046W        W 9099   7.114  30.573   5.959 -0.1542 -0.0634  0.3579
66047W        W 9100  28.375   2.225   3.365 -0.0288  0.0503  0.0710
66048W        W 9101  17.092   9.385   7.995  0.1297 -0.1179  0.0831
66049W        W 9102   3.032  21.950  17.715  0.1002 -0.1877 -0.1103
66050W        W 9103  30.591  12.732  22.233 -0.0346 -0.1442 -0.0735
66051W        W 9104  33.421  26.629  28.183  0.1899 -0.0644 -0.0332
66052W        W 9105  17.432  32.044  22.696 -0.1979  0.0910 -0.2739
66053W        W 9106  12.886   4.614  27.628 -0.1829 -0.0524 -0.3637
66054W        W 9107  33.220  23.938  23.973 -0.0100  0.2144 -0.1405
66055W        W 9108  12.392   8.589   3.374  0.0223 -0.2222 -0.1784
66056W        W 9109  24.933  19.403   6.605 -0.0554  0.0297  0.4123
66057W        W 9110   9.971  21.601   2.828  0.1634 -0.0278 -0.0827
66058W        W 9111   7.357   1.521   7.643  0.3512  0.0261  0.0362
66059W        W 9112  10.522  29.152  22.274  0.1621 -0.4725 -0.0978
66060W        W 9113  14.429  29.474   7.619 -0.0343  0.0755 -0.1576
66061W        W 9114  34.094  15.041   5.165 -0.0095  0.1132 -0.2136
66062W        W 9115  29.866  17.098  23.896 -0.0612 -0.0165  0.1577
66063W        W 9116  27.390  22.853   2.695 -0.1241  0.2007 -0.1514
66064W        W 9117  21.120   8.521   0.971  0.0026  0.2091 -0.0234
66065W        W 9118  34.210   7.497  26.285 -0.1378 -0.1467  0.0564
66066W        W 9119  33.073  10.383   5.887  0.1701  0.1963  0.0303
66067W        W 9120   7.896   6.784  26.927  0.0236  0.1906 -0.0905
66068W        W 9121  33.001  28.768  23.810 -0.1305  0.3728 -0.3993
66069W        W 9122  11.854   3.855   8.271 -0.3196 -0.3846  0.1575
66070W        W 9123  29.861  19.860   0.581  0.4844  0.4182 -0.5133
66071W        W 9124  32.283   8.953   5.505  0.0947 -0.0559 -0.1097
66072W        W 9125  34.226   4.967  20.829 -0.2242 -0.1679 -0.0501
66073W        W 9126  12.281  25.416   6.066  0.3159 -0.2430  0.1534
66074W        W 9127   1.201   7.465   0.523 -0.2063  0.2601 -0.0458
66075W        W 9128  29.633  30.955   2.020 -0.0182 -0.3918  0.1165
66076W        W 9129   1.433  33.772  28.706 -0.0464  0.0662  0.1030
66077W        W 9130  20.735   2.001   6.583  0.0883 -0.0082 -0.0327
66078W        W 9131   9.384  30.198   2.376  0.1493 -0.0512 -0.0796
66079W        W 9132  17.975  26.207   5.131 -0.2320 -0.1906 -0.1255
66080W        W 9133  21.410   4.074  21.820  0.1058 -0.1883 -0.1974
66081W        W 9134   8.723  28.247  24.448  0.1256 -0.2372  0.0660
66082W        W 9135  14.770  33.925   8.555  0.0406  0.0329  0.2511
66083W        W 9136  10.934  16.356   9.647  0.1255  0.1007  0.1118
66084W        W 9137   7.267   6.406   8.434  0.1952  0.0029 -0.3405
66085W        W 9138  15.674  24.578   7.812 -0.0240 -0.0922 -0.3051
66086W        W 9139   0.905   1.708   8.894 -0.0024 -0.0491 -0.0116
66087W        W 9140  33.843  33.001  20.561  0.1612  0.0940  0.0451
66088W        W 9141  21.888  28.185   5.368  0.1903 -0.0768 -0.3095
66089W        W 9142  21.339  31.187  25.137  0.5703  0.3209 -0.1757
66090W        W 9143  34.025  22.382  28.162 -0.2478 -0.0733 -0.2571
66091W        W 9144   2.155   4.861   4.793  0.0829  0.2427 -0.1902
66092W        W 9145   3.131   1.494   8.196  0.1105 -0.0699 -0.2187
66093W        W 9146   8.240  34.062  18.779  0.3565  0.3204 -0.0219
66094W        W 9147   3.178  18.092  27.584  0.1431  0.2235  0.2716
66095W        W 9148   3.071   4.773   8.386  0.0335  0.0219  0.1370
66096W        W 9149  24.999   5.768   5.076 -0.1032  0.1009  0.0928
66097W        W 9150  10.145   5.241   7.383 -0.1320 -0.1178  0.0350
66098W        W 9151  27.395   1.510   8.002  0.3589  0.0930 -0.0602
66099W        W 9152  16.848  17.720   0.905 -0.1692  0.1118  0.0449
66100W        W 9153   6.219   4.945   1.395  0.0615  0.1670  0.2332
66101W        W 9154  25.198  27.078  20.803  0.0702 -0.0646  0.1212
66102W        W 9155  15.029   5.268   8.917  0.0886  0.0826 -0.0455
66103W        W 9156  16.990   0.434   8.605 -0.2830 -0.0601  0.0118
66104W        W 9157   8.930   4.851   9.992 -0.0466  0.3026 -0.0485
66105W        W 9158  13.124  33.291  28.132 -0.2015  0.0704 -0.0117
66106W        W 9159  32.053   2.234  21.613 -0.0129 -0.0236  0.2555
66107W        W 9160  13.384  22.056  24.759  0.2216  0.0380 -0.0428
66108W        W 9161   8.058  24.974   8.557 -0.1213 -0.0664 -0.0555
66109W        W 9162   1.423  19.761   3.484  0.0980  0.0029 -0.0008
66110W        W 9163  31.841  16.192  27.526 -0.1023  0.0259 -0.0064
66111W        W 9164   1.004  23.971   8.338  0.0063  0.0902 -0.1022
66112W        W 9165  28.882  34.148   2.219 -0.2484 -0.1033  0.5832
66113W        W 9166   5.025  27.507  21.071  0.3503 -0.3227 -0.1160
66114W        W 9167  12.210  20.221   7.647 -0.0095 -0.0863 -0.1212
66115W        W 9168  32.710  27.992   3.864 -0.3905  0.0852 -0.0027
66116W        W 9169   0.358  34.072  16.213 -0.0758 -0.0115  0.1554
66117W        W 9170   7.319  30.294   1.990 -0.0646  0.2607 -0.1055
66118W        W 9171  17.226   4.252  23.423  0.1974 -0.1641  0.0630
66119W        W 9172  16.998  22.068  27.538 -0.0520  0.1717  0.2640
66120W        W 9173   7.089   3.132  28.028  0.0688  0.0196  0.1572
66121W        W 9174  33.865   9.544  28.904  0.3360 -0.0522 -0.0370
66122W        W 9175  32.259   0.983   2.812 -0.2655 -0.1506  0.0925
66123W        W 9176   2.810  26.487   7.507 -0.2666  0.1248 -0.0811
66124W        W 9177  10.858  25.117   8.421  0.1019 -0.0761  0.0615
66125W        W 9178  13.540   0.321  21.566  0.2857 -0.1681 -0.0714
66126W        W 9179  11.707   6.665   6.066 -0.0339  0.2875  0.2294
66127W        W 9180   9.772  10.285   7.875  0.0589  0.1405  0.1822
66128W        W 9181  24.325  17.046   3.192 -0.1154  0.1097 -0.1455
66129W        W 9182   3.403  32.577   0.510 -0.1501 -0.1498 -0.2041
66130W        W 9183  10.454  15.453   0.104  0.2838 -0.0924  0.1557
66131W        W 9184  27.676   3.373   0.734 -0.2347  0.3130  0.2354
66132W        W 9185  19.513   4.387  14.988 -0.1374 -0.0956  0.3238
66133W        W 9186  25.944  28.658   7.945 -0.1609 -0.3124 -0.0831
66134W        W 9187   4.567   6.198  21.511  0.1489  0.2919 -0.3150
66135W        W 9188  25.674  29.109  26.808 -0.1693 -0.1577 -0.1741
66136W        W 9189  13.835   0.178   9.603  0.0194  0.2614  0.0410
66137W        W 9190  33.761   1.336  25.696 -0.0779  0.0815  0.1099
66138W        W 9191  34.324  23.894   8.638 -0.0749  0.1278  0.0908
66139W        W 9192   8.061  20.478  22.284  0.1814 -0.2441  0.1220
66140W        W 9193  11.797  25.013  20.770  0.3159  0.1656 -0.2918
66141W        W 9194   8.034   0.807   3.853  0.3079 -0.0443 -0.1391
66142W        W 9195   4.961   4.312   9.231 -0.1014 -0.0328  0.1736
66143W        W 9196   8.543  30.891  27.106 -0.2989 -0.0025 -0.0282
66144W        W 9197  27.130  26.559  21.185  0.1379 -0.2504 -0.3112
66145W        W 9198   0.068  27.152  21.804  0.2316  0.0913 -0.2147
66146W        W 9199  19.604  10.114   0.467 -0.1515  0.0371 -0.1148
66147W        W 9200  29.431   3.140  26.075 -0.1272 -0.0435 -0.1226
66148W        W 9201   1.431  17.632   8.474  0.1728 -0.0202 -0.2506
66149W        W 9202  19.847   0.010  28.266  0.2823  0.0011 -0.0606
66150W        W 9203  22.748   2.851  27.972 -0.2811  0.3956 -0.1359
66151W        W 9204   4.602   3.331   2.789  0.0096 -0.3531 -0.3851
66152W        W 9205  31.822  15.603   9.864 -0.0337 -0.2557 -0.0070
66153W        W 9206  12.358   5.829  26.876  0.0141  0.3624  0.2336
66154W        W 9207   8.279   8.297   9.658 -0.1861 -0.3636 -0.1712
66155W        W 9208  18.077   0.679   6.970 -0.0240 -0.0523 -0.1607
66156W        W 9209  30.342  13.613  24.169  0.2156 -0.1665  0.1023
66157W        W 9210  14.019  34.125  16.492  0.1980 -0.0294  0.4413
66158W        W 9211   9.008   5.992   5.028  0.1714 -0.3829  0.2170
66159W        W 9212  29.638  34.314   7.898 -0.1486  0.1707 -0.0027
66160W        W 9213  29.841   8.560  22.269  0.0757  0.1341 -0.0971
66161W        W 9214   6.276  33.485   9.376  0.1323  0.2660 -0.0595
66162W        W 9215  32.438   4.277  28.016 -0.0715  0.0782 -0.0613
66163W        W 9216  16.373  18.382   9.125 -0.0310 -0.0570  0.2159
66164W        W 9217   0.238  29.972   6.012 -0.0987 -0.0714  0.2781
66165W        W 9218   3.786   6.620   7.160  0.0269  0.0061 -0.0649
66166W        W 9219  27.506   5.174  10.627  0.1317 -0.1505 -0.1804
66167W        W 9220   1.384  34.156   6.183 -0.2054 -0.0974 -0.1243
66168W        W 9221   6.815  28.131   0.858  0.1122 -0.1956 -0.1573
66169W        W 9222  31.156  29.318  15.913 -0.0115 -0.0854 -0.1546
66170W        W 9223  31.907  20.355  13.512 -0.1370  0.0679 -0.0260
66171W        W 9224  28.209   6.216  10.150  0.2561  0.1257 -0.2879
66172W        W 9225  30.881  17.140   9.355 -0.1241  0.0220  0.0996
66173W        W 9226   1.168  29.363   8.506  0.0457  0.1711 -0.4169
66174W        W 9227   3.991  33.954   6.435 -0.3058  0.0205 -0.1845
66175W        W 9228  14.965  24.715   9.338  0.2938 -0.1559  0.1805
66176W        W 9229   4.140   1.791  29.029  0.0034 -0.0888 -0.1847
66177W        W 9230  32.928  21.631  28.045 -0.3717  0.0874  0.1124
66178W        W 9231  30.304  11.252  26.043 -0.0564  0.3386 -0.3614
66179W        W 9232  13.277  30.239   4.456 -0.0923  0.2088  0.1103
66180W        W 9233   9.182  29.309   7.677 -0.2238 -0.1525 -0.1519
66181W        W 9234  17.611   5.574   3.061 -0.2173 -0.2993 -0.0690
66182W        W 9235   7.435   5.507  28.305  0.2369  0.1564 -0.3606
66183W        W 9236   1.628  33.572   8.626 -0.3904  0.0893 -0.2619
66184W        W 9237  11.598  27.121   2.128 -0.3709  0.0725 -0.1560
66185W        W 9238   8.846  17.797   8.223  0.1394  0.2228 -0.1616
66186W        W 9239   5.594  30.895   8.073  0.2874 -0.2112  0.1087
66187W        W 9240  23.562   9.168  23.578  0.5047 -0.0962  0.1546
66188W        W 9241   3.693   6.589   6.155  0.0519 -0.0827 -0.1051
66189W        W 9242  31.059  13.989  19.585 -0.0356  0.1343  0.0081
66190W        W 9243   4.309   8.510   6.009  0.1870 -0.0502 -0.1334
66191W        W 9244  21.469  25.929  23.971 -0.0671 -0.1130 -0.1445
66192W        W 9245   9.725  14.413  10.122 -0.1143 -0.0926  0.1023
66193W        W 9246   6.590   0.017   6.433 -0.1335  0.0822  0.2854
66194W        W 9247   0.607  28.431   8.717 -0.0080  0.4241  0.0243
66195W        W 9248  11.517   9.748   4.357 -0.1954 -0.0181 -0.3455
66196W        W 9249   6.564  32.843   5.626  0.0098 -0.0388  0.0857
66197W        W 9250   8.758  21.442   0.120 -0.1993  0.0520 -0.1282
66198W        W 9251  28.358  33.663  27.122 -0.1004 -0.0686 -0.1696
66199W        W 9252   5.131  31.993   7.394  0.0435 -0.2491  0.2145
66200W        W 9253   9.253   2.750  24.925  0.0006  0.4223 -0.3220
66201W        W 9254  22.973  28.874   0.239 -0.1515  0.1071 -0.2902
66202W        W 9255  14.991   1.096  14.687  0.1389 -0.3535 -0.0467
66203W        W 9256  16.867  16.701   3.360  0.1753  0.1091 -0.2731
66204W        W 9257   1.098  32.997   2.898 -0.1639  0.3874  0.5141
66205W        W 9258  32.149  32.108   3.284  0.2627  0.0987 -0.2799
66206W        W 9259  17.844  33.712   1.613 -0.1537 -0.0880  0.0440
66207W        W 9260   6.401  17.942  27.283 -0.1227 -0.0751 -0.0049
66208W        W 9261   0.760  31.315  28.261  0.3220  0.0271  0.1530
66209W        W 9262  25.708   4.962  25.170  0.3215  0.1236 -0.0137
66210W        W 9263  32.624  29.851   5.857  0.0950  0.0167  0.0489
66211W        W 9264  11.568  29.241  27.734  0.1190 -0.0785 -0.0641
66212W        W 9265  28.432  11.360   0.792  0.2507 -0.2051 -0.0957
66213W        W 9266   6.691  31.046   2.136  0.0403  0.1001  0.1225
66214W        W 9267  33.639   9.305   6.364 -0.0100  0.3211  0.1057
66215W        W 9268   8.999   9.408  16.184  0.1667  0.0575 -0.0771
66216W        W 9269  29.674   5.519  25.428  0.1540 -0.5456  0.3018
66217W        W 9270  17.673   1.769   5.030  0.3084 -0.2979 -0.2230
66218W        W 9271  20.863  13.283   1.948  0.0089  0.0848  0.1785
66219W        W 9272  10.417  22.241   1.137 -0.0956 -0.1681 -0.2693
66220W        W 9273   4.439  29.865  14.920 -0.0532 -0.0371 -0.0831
66221W        W 9274  30.212  27.511   5.077 -0.1388  0.0421 -0.1444
66222W        W 9275   3.192  31.001  20.597 -0.4277  0.3048  0.1770
66223W        W 9276   4.783  18.769  24.385  0.1915 -0.0659 -0.0406
66224W        W 9277  10.841  32.523   6.639  0.0758 -0.4217  0.2042
66225W        W 9278  24.296  18.476   3.865 -0.1050 -0.1123 -0.0207
66226W        W 9279   2.693   0.495  24.958 -0.0222 -0.1485  0.0045
66227W        W 9280  29.890  23.838  27.011  0.0550 -0.2329  0.0912
66228W        W 9281   5.817  23.957   0.045  0.2256  0.0340  0.0730
66229W        W 9282   9.513  31.028   9.908 -0.2345  0.0484  0.1774
66230W        W 9283   7.508  24.288   9.008 -0.1235  0.0139  0.0177
66231W        W 9284  31.948  34.408  10.041 -0.0617  0.0084  0.1630
66232W        W 9285   6.524  31.578   7.640 -0.1200  0.1828 -0.0027
66233W        W 9286   4.207   7.107  22.333 -0.2794 -0.0095 -0.0028
66234W        W 9287   9.644   2.982   6.156 -0.0965  0.1278 -0.1858
66235W        W 9288  34.625  11.019   6.361  0.2283 -0.0081 -0.1474
66236W        W 9289  17.830   5.280  25.643  0.2164  0.1072 -0.3141
66237W        W 9290   1.950  26.526   4.371  0.0608  0.0346  0.4468
66238W        W 9291  15.068   2.236   7.633  0.1306  0.1605 -0.0055
66239W        W 9292   9.219  33.382   6.562 -0.0764  0.4748 -0.3472
66240W        W 9293  34.504  16.543   5.375  0.0883 -0.0723 -0.2066
66241W        W 9294  21.637  12.027  23.702 -0.0265  0.2587  0.2463
66242W        W 9295   0.425  33.835   3.907  0.1757 -0.1688  0.0492
66243W        W 9296  19.092  17.562   5.846  0.0936 -0.2362 -0.1754
66244W        W 9297  17.542   2.174  24.694  0.0390 -0.2044 -0.0027
66245W        W 9298  33.369  15.571  24.258 -0.1859  0.0865  0.0106
66246W        W 9299  33.935   0.266   2.887 -0.0370  0.1572  0.4213
66247W        W 9300  12.331  16.113   7.167  0.0477 -0.0201 -0.4625
66248W        W 9301  32.866  25.593   8.817  0.2294  0.0046 -0.0446
66249W        W 9302  11.738  32.646   9.491  0.0725  0.2295  0.0511
66250W        W 9303  26.832  34.365   7.025  0.1100  0.2804 -0.0398
66251W        W 9304  18.682  20.749  25.385  0.0913 -0.0698 -0.5764
66252W        W 9305   6.305  28.283  28.337 -0.2437 -0.1445 -0.1078
66253W        W 9306  26.007  13.828  16.960  0.0384  0.1010  0.3261
66254W        W 9307  10.223   9.032   0.851  0.0213  0.3427  0.0347
66255W        W 9308   0.336   1.419   7.644 -0.2292 -0.1422  0.0277
66256W        W 9309   2.305   7.481   1.627 -0.0861 -0.3002  0.1635
66257W        W 9310   3.978   2.707   8.170 -0.2072  0.1548 -0.1706
66258W        W 9311   4.691   6.846   4.339 -0.1759 -0.1812  0.2200
66259W        W 9312   1.490   8.798  29.042 -0.2368 -0.0807 -0.0164
66260W        W 9313   5.284   7.247  26.196 -0.2862  0.2398 -0.1373
66261W        W 9314   7.438  32.639   5.590  0.0129  0.3299 -0.1050
66262W        W 9315  29.372  16.108   7.666  0.0674 -0.0590  0.2257
66263W        W 9316  22.546  21.631   3.334  0.0098 -0.1154  0.0862
66264W        W 9317  21.300  20.824   9.345 -0.0076  0.0345 -0.0441
66265W        W 9318   8.261  10.799  29.092  0.0615  0.0756  0.3400
66266W        W 9319   2.532  23.091  27.791 -0.0486  0.1111  0.0175
66267W        W 9320  20.483  13.554  13.588  0.2327  0.0411  0.1137
66268W        W 9321   2.450  14.491   1.954 -0.2107  0.2788 -0.0963
66269W        W 9322   9.934  22.655  28.981  0.2915  0.1908  0.0785
66270W        W 9323  13.080   2.635   7.681  0.0455  0.0941 -0.2848
66271W        W 9324  11.392   6.308  22.011 -0.3412  0.3535  0.1206
66272W        W 9325  26.199  14.758  26.073  0.0120  0.1041 -0.0018
66273W        W 9326  20.187   7.682  14.999 -0.2517  0.1682  0.4121
66274W        W 9327   7.738   7.658   5.149  0.0118 -0.0912 -0.0633
66275W        W 9328  29.615   5.897   3.071  0.0956 -0.0578 -0.1240
66276W        W 9329  10.544  27.090   5.708 -0.2810 -0.0627  0.0619
66277W        W 9330  22.932  13.969   1.655 -0.3522 -0.1311 -0.1010
66278W        W 9331  28.850   5.270   6.374  0.0264 -0.2618  0.4470
66279W        W 9332   2.646  10.354   6.861 -0.0640  0.2651 -0.0766
66280W        W 9333   6.667  23.090  17.597 -0.2796 -0.0241  0.0717
66281W        W 9334   7.409  16.649  24.172  0.1459  0.0666  0.1950
66282W        W 9335  33.630   8.101   0.587  0.0725  0.3350  0.2560
66283W        W 9336   2.575  33.267   7.264 -0.0831  0.0817 -0.0189
66284W        W 9337  18.152   3.296  26.488 -0.1559  0.2269 -0.3447
66285W        W 9338  34.284  11.603  17.445 -0.0092  0.1519  0.0780
66286W        W 9339   1.316   1.637   0.646  0.0153 -0.0334  0.3617
66287W        W 9340   5.918   5.947  25.774 -0.0227 -0.2142 -0.1012
66288W        W 9341   4.772  17.533   5.144  0.2897 -0.2152 -0.0377
66289W        W 9342   8.910   0.142   9.633  0.4033  0.0747  0.1829
66290W        W 9343   4.724  17.090  14.432  0.0350  0.3496  0.0742
66291W        W 9344   6.992  31.524  18.049  0.0030 -0.1808 -0.2123
66292W        W 9345   8.524  12.719   8.575  0.1376 -0.2087 -0.1209
66293W        W 9346  31.696  26.008  27.021  0.5526 -0.2352  0.0722
66294W        W 9347  17.356  30.728   0.579  0.3309  0.0480  0.1141
66295W        W 9348  33.028   1.517  20.924 -0.2161 -0.0449  0.2232
66296W        W 9349  16.609  29.792  27.687  0.0777 -0.0783 -0.3225
66297W        W 9350   7.451  34.319  21.866 -0.2301  0.0039  0.1846
66298W        W 9351  16.945   2.319  15.253  0.0277 -0.0188  0.1518
66299W        W 9352  12.032  23.318   0.169 -0.1529  0.1309 -0.1294
66300W        W 9353  14.490  30.267   9.098  0.0533  0.0119  0.0266
66301W        W 9354   4.974  24.217  27.373 -0.0684  0.4124 -0.2697
66302W        W 9355   8.160   3.998   9.465  0.0369  0.1417 -0.0171
66303W        W 9356  12.668  13.589  10.995 -0.0769 -0.2944  0.0994
66304W        W 9357  32.279  25.813  26.490 -0.0360 -0.2158  0.0120
66305W        W 9358  14.802  24.799   7.224  0.2360 -0.0132 -0.1880
66306W        W 9359  19.864  33.407  15.671 -0.1236 -0.0278  0.4248
66307W        W 9360  30.527  23.155  24.324  0.1572 -0.0499  0.0302
66308W        W 9361  10.523  15.784   6.321  0.0768  0.0579 -0.2879
66309W        W 9362  28.955  19.213   5.746  0.0956  0.1080 -0.0279
66310W        W 9363   2.303  31.905   9.200  0.0960 -0.4141  0.0493
66311W        W 9364   9.246  13.885  15.809  0.1867 -0.2348  0.1556
66312W        W 9365   5.732  15.408  23.889  0.1428  0.0771  0.1604
66313W        W 9366  30.167  29.060   3.983 -0.2427  0.0762 -0.0512
66314W        W 9367  13.236  10.355   6.368 -0.1400 -0.1006 -0.2021
66315W        W 9368   7.319  15.208   3.725  0.0528  0.0690  0.0905
66316W        W 9369  27.133  12.588   6.923  0.1104  0.2040 -0.5098
66317W        W 9370  29.008   6.282   0.857  0.1606  0.2366 -0.0698
66318W        W 9371  11.392   1.735  29.183  0.2309  0.0139 -0.0014
66319W        W 9372  16.604  31.634   8.893  0.0492  0.4066 -0.1276
66320W        W 9373  13.684  12.360  27.447  0.3215  0.0215 -0.2147
66321W        W 9374   8.078  31.488   7.784 -0.2175 -0.1667  0.0383
66322W        W 9375   4.330  25.693  19.907 -0.0247 -0.0548 -0.3353
66323W        W 9376   3.524  13.663   3.753 -0.1985 -0.0061 -0.1320
66324W        W 9377  21.415   1.547   3.960  0.6867  0.2125  0.0123
66325W        W 9378  20.527  14.597  21.490  0.3935  0.0694  0.2521
66326W        W 9379  32.773  30.542   6.892  0.0069 -0.0500  0.0735
66327W        W 9380  13.179  23.160  14.205  0.0386  0.2756  0.1031
66328W        W 9381  13.550  33.246  16.406 -0.0394  0.0659  0.4630
66329W        W 9382  29.219  33.897   8.580 -0.0966  0.1578  0.0900
66330W        W 9383   7.006  31.146  23.109  0.0668  0.2383 -0.0109
66331W        W 9384  21.634  26.994   0.499  0.0747 -0.2554 -0.3026
66332W        W 9385   0.713   0.671  24.717 -0.3071 -0.2166  0.1900
66333W        W 9386  15.341  10.531  19.802  0.1446  0.2005 -0.2349
66334W        W 9387   0.023  34.632  26.083  0.3347  0.2116  0.1351
66335W        W 9388  23.255   4.054   5.432  0.2747  0.4905  0.1393
66336W        W 9389  23.329   9.425  26.283 -0.3395 -0.3236 -0.0683
66337W        W 9390  14.488  32.163   1.857  0.1812  0.5868  0.2273
66338W        W 9391  28.115   2.676   0.100  0.1836  0.2458 -0.1482
66339W        W 9392   5.924  30.753  16.457 -0.1363  0.3365 -0.1587
66340W        W 9393   7.231   2.661   2.827 -0.1383 -0.2106  0.1576
66341W        W 9394  16.731   2.309   6.736 -0.0589 -0.0272 -0.0087
66342W        W 9395  31.219   0.624  14.518  0.2566  0.1104 -0.0212
66343W        W 9396  10.458  31.501   1.704  0.0133  0.2509 -0.1383
66344W        W 9397  16.609  10.858   1.831  0.0469  0.1374  0.1341
66345W        W 9398   5.727  26.385  19.014 -0.2430  0.1545  0.2197
66346W        W 9399  17.700  30.832   0.228  0.1409  0.0178  0.2076
66347W        W 9400   0.206   0.218   3.998 -0.0590  0.0224 -0.2538
66348W        W 9401   3.821  12.367  27.415 -0.2204 -0.0138  0.0297
66349W        W 9402  23.312  13.927  28.290  0.0101 -0.2418 -0.2416
66350W        W 9403   8.049   1.093  28.780 -0.1395 -0.3331  0.2623
66351W        W 9404  13.282  32.303   5.919 -0.0420 -0.0195 -0.3353
66352W        W 9405   3.861  11.128  19.092 -0.1118 -0.0103 -0.1514
66353W        W 9406  29.975   8.657  10.815  0.2312 -0.3169  0.0943
66354W        W 9407   6.584   0.378   8.759  0.4142 -0.0940 -0.2195
66355W        W 9408  14.394  16.134  24.615 -0.1849  0.1530  0.0061
66356W        W 9409   6.225  15.015  25.214  0.3152 -0.0235  0.0271
66357W        W 9410   2.563  12.646  15.794 -0.1635 -0.2742 -0.1835
66358W        W 9411  17.189   4.070  28.976  0.0753  0.0497  0.1467
66359W        W 9412  12.691   0.746  28.030 -0.0133  0.1101  0.0802
66360W        W 9413  17.105  27.615   4.588  0.2119  0.2277  0.1515
66361W        W 9414  22.330  32.142  24.488 -0.0568  0.0910 -0.2970
66362W        W 9415  23.180   0.610   8.163 -0.0697 -0.0638 -0.2656
66363W        W 9416   1.418  29.717  16.904 -0.2213  0.0281  0.0724
66364W        W 9417   2.748  30.764  24.515 -0.1148  0.0466  0.1115
66365W        W 9418  28.291  20.957   9.498  0.1965  0.0970  0.0661
66366W        W 9419   4.278  33.491   3.971 -0.0073  0.0302  0.0818
66367W        W 9420  24.804   2.434   8.275  0.0487  0.0753 -0.2250
66368W        W 9421   8.495  25.762   5.491 -0.0475 -0.0813 -0.2245
66369W        W 9422  33.227   1.071   9.569 -0.3013  0.1863 -0.2648
66370W        W 9423   3.096   9.609  22.155 -0.1966  0.0056  0.1292
66371W        W 9424   4.721   3.872   5.105  0.0527 -0.1189 -0.0104
66372W        W 9425   5.089  21.557  21.413  0.1044  0.0042  0.1667
66373W        W 9426  33.715  25.278   5.110 -0.0013  0.2914 -0.2541
66374W        W 9427  21.863   9.172   8.716  0.2156  0.2725 -0.0678
66375W        W 9428  26.678  27.090  27.728  0.2080 -0.0006  0.0872
66376W        W 9429  17.400   8.791   2.925 -0.2034  0.3420  0.3691
66377W        W 9430  31.757   0.552   4.293 -0.0290 -0.0287  0.2237
66378W        W 9431  31.410   0.823   8.059 -0.0926 -0.0293  0.2564
66379W        W 9432  33.088   6.745  23.223  0.1962  0.0882 -0.3457
66380W        W 9433  22.504  13.596  25.893  0.1264 -0.3230 -0.2243
66381W        W 9434  12.709  25.465  28.866 -0.3313  0.0798 -0.0700
66382W        W 9435   7.797  29.085   5.498 -0.0539  0.2487  0.0442
66383W        W 9436   7.097  21.656  14.260 -0.2014 -0.0136 -0.1690
66384W        W 9437   2.667  32.971   3.060 -0.1951  0.2819 -0.0398
66385W        W 9438   0.506  19.729  20.263 -0.2106  0.0356  0.0972
66386W        W 9439  20.472  13.300  28.172  0.4375 -0.0071 -0.0384
66387W        W 9440   1.790  34.072   7.152 -0.0679  0.0258  0.4289
66388W        W 9441   9.388  22.104  22.275  0.2629  0.1834  0.1577
66389W        W 9442  29.381   4.931   3.115  0.1000 -0.0226 -0.0062
66390W        W 9443   3.832   8.846   3.225  0.2513  0.0763  0.1621
66391W        W 9444  17.786   0.723   2.926 -0.2232  0.3389 -0.1463
66392W        W 9445  13.225  24.719   2.403  0.5625 -0.1076 -0.2270
66393W        W 9446  21.837  18.970  27.710 -0.1442 -0.1492  0.0752
66394W        W 9447   3.179   6.856   4.406  0.0307  0.0446  0.1176
66395W        W 9448  13.662   2.120   4.284 -0.0469 -0.0514 -0.0216
66396W        W 9449  13.581   5.331  17.434 -0.0344 -0.0705  0.0283
66397W        W 9450   8.197   5.959  20.877  0.3677 -0.2268  0.0158
66398W        W 9451   0.909  16.092  22.140  0.1672 -0.1538 -0.1118
66399W        W 9452  21.767  32.833   3.354  0.1373  0.1537  0.1927
66400W        W 9453   5.187   8.244   9.651  0.1814 -0.2046  0.0968
66401W        W 9454  31.783  32.657  19.136 -0.2583 -0.1192  0.1831
66402W        W 9455  11.746  22.998   8.986 -0.0457  0.1641  0.1251
66403W        W 9456  18.244  25.722   1.069 -0.0402  0.0165 -0.1043
66404W        W 9457   5.349   6.431  10.024 -0.0226  0.2021 -0.1391
66405W        W 9458  32.309  29.077  18.299  0.0398  0.0224  0.4075
66406W        W 9459  10.859  27.713  28.323  0.2072  0.1611 -0.0489
66407W        W 9460  20.292   3.477   3.994  0.0796  0.0740 -0.4879
66408W        W 9461   5.248  24.600  28.823 -0.1168 -0.4245  0.0945
66409W        W 9462  14.146   3.816   7.926  0.1094 -0.0960  0.0886
66410W        W 9463   1.192   8.760   6.846  0.1093 -0.1499  0.4203
66411W        W 9464  32.494   6.219   7.829 -0.1029  0.1008  0.0058
66412W        W 9465  28.899   5.761  22.966 -0.0868 -0.2619  0.0823
66413W        W 9466  22.324  14.120   5.377  0.0264  0.1343  0.2005
66414W        W 9467  19.370  30.510   8.901 -0.1695  0.1863  0.1212
66415W        W 9468  28.588  21.337   9.735 -0.1904 -0.1581 -0.0017
66416W        W 9469   1.650  25.052  28.443  0.0062 -0.1491 -0.2938
66417W        W 9470  13.160   9.005  27.236  0.0239 -0.1779  0.1804
66418W        W 9471   8.796  11.022   3.282 -0.1158  0.0954  0.1004
66419W        W 9472  10.367  22.222  22.611 -0.0008 -0.0925  0.1156
66420W        W 9473   5.093  27.321  14.078  0.0148 -0.2138  0.2178
66421W        W 9474  33.663   2.911   1.105  0.0885  0.4178  0.0571
66422W        W 9475  13.662   9.399  22.166  0.0289 -0.1335  0.0808
66423W        W 9476   9.556   1.527  18.569 -0.0702  0.1618  0.3139
66424W        W 9477  31.367  23.855  25.608  0.0280  0.1136  0.0532
66425W        W 9478  22.479  32.839   1.850 -0.0347 -0.0011 -0.1164
66426W        W 9479  11.853   5.753   2.543  0.1649  0.1210 -0.1587
66427W        W 9480  28.807  10.499  28.462  0.1638  0.2132  0.0223
66428W        W 9481  24.562   7.691  25.494 -0.0229 -0.2907  0.1299
66429W        W 9482  32.180   9.205  21.753  0.2078 -0.1051 -0.0219
66430W        W 9483  24.121  30.743   4.817  0.0646 -0.0827  0.0788
66431W        W 9484   7.477  34.073   8.837 -0.0382 -0.0878 -0.3565
66432W        W 9485  21.882  34.306   4.071  0.1195  0.4286 -0.0502
66433W        W 9486  12.861  14.887   7.464  0.1314 -0.0426  0.0507
66434W        W 9487   2.621   0.587  18.380 -0.0441 -0.1397 -0.0791
66435W        W 9488  30.830  17.075   6.885  0.1381 -0.0341 -0.3077
66436W        W 9489  18.053  33.196   7.690 -0.1179  0.0970  0.0749
66437W        W 9490   7.199  11.118  24.148 -0.1205  0.2428 -0.3024
66438W        W 9491  11.422  23.450   6.544  0.3126 -0.0094  0.0713
66439W        W 9492   7.078  33.929   9.902  0.2322 -0.0440  0.1079
66440W        W 9493  34.396   6.814   6.329  0.1226  0.0978 -0.0841
66441W        W 9494  14.623   9.720   9.849  0.1222  0.1919 -0.1517
66442W        W 9495   4.659   7.008   3.592  0.2459  0.1013 -0.0815
66443W        W 9496   7.249  28.607   8.524  0.0059 -0.2684 -0.0250
66444W        W 9497   3.470  24.959   0.029  0.0849  0.0671 -0.0180
66445W        W 9498   8.580  18.801   8.531 -0.0060 -0.0517 -0.0686
66446W        W 9499  15.123  19.845  15.554 -0.1717 -0.0407  0.2914
66447W        W 9500  13.609  10.586   1.205  0.0079  0.1617 -0.0894
66448W        W 9501   4.230  28.307  23.744 -0.2623  0.1123  0.0578
66449W        W 9502  19.684  15.300  16.330  0.5147 -0.0136  0.0279
66450W        W 9503  14.278  21.338   4.893 -0.1841  0.1151 -0.0769
66451W        W 9504  22.293  14.921   7.155  0.4053  0.0745  0.0255
66452W        W 9505   0.349  24.831  23.161 -0.0687 -0.2174 -0.3429
66453W        W 9506  28.332  28.345  15.576  0.0855  0.0054  0.2271
66454W        W 9507   8.397  27.752   7.030  0.0560  0.2110  0.3102
66455W        W 9508  20.518   0.328   7.505  0.1197 -0.1892 -0.2523
66456W        W 9509   3.413  10.593   1.594  0.2394  0.1980  0.1422
66457W        W 9510  32.916   2.629  21.228 -0.1863 -0.2136  0.1257
66458W        W 9511  32.087   1.636   7.247  0.0246 -0.2558  0.2589
66459W        W 9512  17.744   9.609   1.183 -0.0512 -0.2615 -0.2442
66460W        W 9513  30.514  32.915   4.413  0.1616 -0.1756 -0.2810
66461W        W 9514  34.076   0.851   6.767  0.2191 -0.1386 -0.0876
66462W        W 9515  21.307   1.939  14.218 -0.2043  0.0051 -0.0133
66463W        W 9516  12.889   4.464   8.611 -0.0570 -0.1957  0.0580
66464W        W 9517   6.910  29.961   9.413 -0.0015  0.3737 -0.1679
66465W        W 9518  33.797  11.365   6.727 -0.1187 -0.1935 -0.1617
66466W        W 9519  10.239  17.367  27.910 -0.2114  0.3086 -0.0858
66467W        W 9520   1.584   7.202   5.412 -0.3669  0.1484  0.3580
66468W        W 9521   3.069  23.972   1.682  0.2163  0.0592  0.4356
66469W        W 9522  34.380  32.002   2.103  0.0320 -0.1537  0.1669
66470W        W 9523  23.438  31.676  20.710  0.1554  0.2750 -0.0819
66471W        W 9524  10.345  11.232   3.572 -0.0882  0.0297 -0.1304
66472W        W 9525   3.922  31.670   9.616  0.1454  0.0004 -0.1311
66473W        W 9526  28.439   2.376   9.795 -0.1832 -0.1592  0.3056
66474W        W 9527  27.136  11.234   7.537 -0.2512 -0.1728  0.0919
66475W        W 9528  23.513  16.617   8.047  0.1197 -0.1145 -0.1543
66476W        W 9529  15.645  13.700   5.799  0.0706  0.0011  0.0403
66477W        W 9530  28.170   3.839   8.052 -0.4945  0.1225  0.2172
66478W        W 9531  32.321  25.503  28.319  0.0121  0.0743  0.0065
66479W        W 9532   5.094   2.335  15.271 -0.3244  0.2266 -0.1772
66480W        W 9533  33.387   8.942  24.038  0.0182 -0.3260 -0.0353
66481W        W 9534  24.671  24.195   0.634 -0.4288 -0.0469 -0.4017
66482W        W 9535   9.474  34.173   9.382 -0.1387 -0.0853 -0.2336
66483W        W 9536   6.790   7.894   7.984  0.2205 -0.4256  0.1056
66484W        W 9537  12.504  13.035   9.988  0.1532  0.0307 -0.0983
66485W        W 9538  11.913   3.778   8.759  0.1076 -0.0341  0.1965
66486W        W 9539   2.492   0.505   4.072 -0.0223  0.1979 -0.3558
66487W        W 9540  27.262  17.701   1.960 -0.0257 -0.2606 -0.1237
66488W        W 9541   5.585  19.436  15.346 -0.1181 -0.1376 -0.2450
66489W        W 9542  32.933  26.476   2.206 -0.2813 -0.1372 -0.2064
66490W        W 9543   1.406   3.682   7.401 -0.1140 -0.0054 -0.0322
66491W        W 9544  16.711   3.432   1.505 -0.1037 -0.0192  0.0835
66492W        W 9545  16.002  34.439   4.763 -0.1143 -0.0187  0.0900
66493W        W 9546  13.498  22.417   4.461 -0.1526 -0.4253  0.1272
66494W        W 9547   0.351   3.036   0.107 -0.2245  0.0727  0.3706
66495W        W 9548  15.651  20.200   8.969 -0.1389 -0.1612 -0.3634
66496W        W 9549  14.822   7.668   6.727  0.1026 -0.0810 -0.0232
66497W        W 9550  27.927   1.596   6.204 -0.0661 -0.0543 -0.0339
66498W        W 9551   4.259  20.081  29.087  0.2111  0.0549  0.3004
66499W        W 9552   6.034   3.035   8.618  0.0118  0.1477 -0.4288
66500W        W 9553  31.776  13.029   2.198 -0.2443  0.0094  0.1951
66501W        W 9554   2.555  32.978   9.061 -0.0820 -0.1721  0.3107
66502W        W 9555  25.436  28.107  15.501 -0.4463  0.1645 -0.2074
66503W        W 9556  12.337   4.847  22.281  0.1658  0.1456 -0.0868
66504W        W 9557  13.573  30.185   6.618 -0.0742 -0.0892  0.0363
66505W        W 9558   4.492   0.627   9.747  0.0851  0.0201  0.0960
66506W        W 9559  14.892  34.312   5.773 -0.0915  0.0395  0.1674
66507W        W 9560   7.120  14.432  26.141 -0.1851  0.1024  0.0220
66508W        W 9561  12.140   9.942   5.182  0.1498 -0.0970 -0.0606
66509W        W 9562   0.756   1.217  20.112  0.0544  0.1131 -0.2640
66510W        W 9563   6.963  15.018   4.129  0.1115 -0.1977 -0.1489
66511W        W 9564   0.673  34.659  21.315 -0.2713  0.0565  0.1976
66512W        W 9565   6.362   8.505   5.580  0.1810 -0.0853 -0.1209
66513W        W 9566  23.626  12.538   0.708  0.0837 -0.3068 -0.0035
66514W        W 9567  19.916  14.729   5.816  0.2621 -0.0498  0.1884
66515W        W 9568   1.757   2.233   1.155  0.0406  0.3040 -0.1888
66516W        W 9569  28.723  13.091  29.060 -0.2389  0.3840 -0.0624
66517W        W 9570  24.828  26.851   5.866 -0.0897  0.1376  0.0525
66518W        W 9571   5.331  21.995   5.631  0.0266  0.2054  0.1974
66519W        W 9572  21.436  16.348   1.250 -0.0719  0.1547 -0.0304
66520W        W 9573  29.586  30.106   9.943 -0.1188 -0.3466  0.0971
66521W        W 9574  20.544  13.102   0.916  0.0395 -0.1671 -0.1752
66522W        W 9575   4.284  27.246   6.916 -0.0075  0.0399 -0.1338
66523W        W 9576  13.612   6.525   4.116  0.2096 -0.4975  0.2603
66524W        W 9577  14.965   2.221   9.232  0.0807 -0.1884 -0.1076
66525W        W 9578  13.228   4.337   3.981 -0.0117 -0.1423 -0.1639
66526W        W 9579  13.520   5.292  21.052  0.4447  0.1489  0.1808
66527W        W 9580   6.338   6.043   7.053 -0.1976  0.0138 -0.2006
66528W        W 9581   3.460  33.058   4.416 -0.0150 -0.1305 -0.0553
66529W        W 9582  15.134   4.823   1.326 -0.1364 -0.3441  0.2098
66530W        W 9583  32.086   6.437   7.196  0.5714 -0.2927 -0.4197
66531W        W 9584  31.595   4.040   6.480 -0.2794  0.0235  0.0726
66532W        W 9585   1.830  27.322  13.778 -0.0774 -0.3014 -0.1482
66533W        W 9586  34.397  12.184   4.505  0.4352 -0.1167 -0.2374
66534W        W 9587  30.673   0.315  23.143 -0.0210 -0.0485  0.0371
66535W        W 9588  25.985   6.046   0.970 -0.0975  0.0898 -0.1431
66536W        W 9589   7.513   9.731  29.185 -0.4333  0.2815 -0.1225
66537W        W 9590  27.194   9.462  22.867 -0.3047 -0.1364  0.1027
66538W        W 9591  14.490   1.462   0.123  0.1693  0.1081  0.1891
66539W        W 9592  16.840  34.531  26.726  0.1215 -0.4968  0.0302
66540W        W 9593  17.252  19.355   4.326 -0.0235 -0.0950  0.2146
66541W        W 9594   4.144  25.396   0.006 -0.0571 -0.2070  0.0034
66542W        W 9595  12.116  32.801   3.894  0.1003  0.1739 -0.0484
66543W        W 9596   9.917  21.917   7.291  0.0133 -0.2350 -0.1520
66544W        W 9597   0.682  22.649  26.088  0.3918 -0.1058  0.0026
66545W        W 9598   1.788   1.247   0.095 -0.0583  0.1065 -0.0938
66546W        W 9599  32.421   4.885   9.292  0.2319  0.1378 -0.2107
66547W        W 9600  13.470  26.353  28.704  0.2841  0.2669 -0.1034
66548W        W 9601   9.350  14.750  26.785 -0.1230 -0.1725 -0.1098
66549W        W 9602  26.469  17.302  26.487 -0.1845  0.0136 -0.1096
66550W        W 9603  14.806   6.862  27.512 -0.1177  0.1505 -0.0360
66551W        W 9604   1.933   2.679   6.594 -0.0947 -0.1457 -0.3097
66552W        W 9605   6.545   5.585  17.982  0.1743 -0.0381  0.2845
66553W        W 9606  16.622  15.234  22.871  0.1738  0.3279 -0.1510
66554W        W 9607  22.691  19.492   4.493 -0.1914 -0.1072  0.1095
66555W        W 9608  23.012   5.589  20.690  0.0883  0.1051 -0.0988
66556W        W 9609  33.927   2.529  10.031 -0.1211 -0.3476  0.1818
66557W        W 9610   3.063  10.836  25.380  0.3430 -0.0701 -0.3165
66558W        W 9611   9.364  33.544  18.315  0.2937  0.1041  0.0229
66559W        W 9612  11.933  27.513   2.028  0.0852 -0.0915  0.2653
66560W        W 9613  11.872  21.081  28.830  0.0394 -0.1911  0.0694
66561W        W 9614  10.985  23.904   3.539  0.0907 -0.0216  0.0492
66562W        W 9615  10.675   6.487   6.814 -0.0106  0.1998  0.1329
66563W        W 9616  26.891  20.272   4.969  0.3272 -0.1813  0.0554
66564W        W 9617  16.171  10.237   5.160  0.1284  0.2507 -0.1458
66565W        W 9618   3.330  31.036   6.642 -0.1579 -0.2875 -0.2223
66566W        W 9619  22.004   2.482   7.657  0.1347  0.2457  0.0720
66567W        W 9620  34.050   6.325  27.788 -0.0624 -0.3134  0.1015
66568W        W 9621   3.352  30.885  23.500  0.1403  0.1674 -0.3213
66569W        W 9622  17.016   0.916  24.994 -0.0269  0.1895  0.1793
66570W        W 9623  19.251  33.732  28.419 -0.4077  0.0722  0.1823
66571W        W 9624  31.579  11.987   9.399 -0.2145  0.0906  0.0003
66572W        W 9625  13.441  31.157  26.761  0.2150 -0.1298  0.0347
66573W        W 9626   2.513  32.200  25.976  0.1310  0.3399  0.1580
66574W        W 9627   4.647   7.212   8.968 -0.0252 -0.1163  0.4194
66575W        W 9628  21.029   4.282   6.802  0.2456  0.0308 -0.0552
66576W        W 9629   3.639   3.012  28.584 -0.3003  0.1354  0.0718
66577W        W 9630  13.558  25.448  26.740 -0.2540  0.1477  0.1839
66578W        W 9631  12.519  28.206   7.542  0.0680 -0.1117  0.1975
66579W        W 9632  19.146  10.686   4.921  0.0110  0.1263 -0.3670
66580W        W 9633   2.191  19.955  23.603  0.0807 -0.1888  0.1706
66581W        W 9634   9.812  31.826   0.200  0.1114  0.3548  0.1255
66582W        W 9635  27.275  28.294   1.670 -0.2068 -0.0615  0.1231
66583W        W 9636  20.598   1.756   5.500  0.1070  0.2101  0.0064
66584W        W 9637  18.757  30.621  10.743 -0.0274 -0.0830 -0.0520
66585W        W 9638  16.919   4.264  10.800  0.2863 -0.0630 -0.0489
66586W        W 9639   8.548   8.516  27.987 -0.1379 -0.2790  0.0312
66587W        W 9640   9.988   8.000  18.752  0.1257  0.3680  0.1874
66588W        W 9641  13.575   1.665  29.124  0.0086 -0.0641 -0.2247
66589W        W 9642  10.092  27.088   0.863 -0.0232  0.3678  0.1233
66590W        W 9643  30.411  28.770  26.051 -0.0774 -0.2514 -0.0813
66591W        W 9644  12.723  34.365   6.457 -0.2018 -0.1090  0.2851
66592W        W 9645  33.206  10.478   1.255  0.0765 -0.0830  0.3037
66593W        W 9646  27.826   1.329   1.570 -0.0602  0.1964  0.1244
66594W        W 9647  14.078  11.057   8.127  0.2067  0.0610 -0.4188
66595W        W 9648   7.430   0.160   6.538  0.2577  0.1074  0.1502
66596W        W 9649  33.348  29.771  25.522  0.4535  0.3667  0.1286
66597W        W 9650  15.453  10.163   5.496 -0.3130 -0.0434 -0.0471
66598W        W 9651  16.184  28.096  20.154 -0.1882 -0.0287  0.0640
66599W        W 9652   3.263  25.602  17.932 -0.2815  0.1899  0.1234
66600W        W 9653  16.313   3.384  23.578  0.2668  0.2294  0.3005
66601W        W 9654  32.222  11.931  21.980  0.0063 -0.0958 -0.0053
66602W        W 9655  11.654  22.961   8.365 -0.0977  0.2423  0.0678
66603W        W 9656  18.808  33.519   1.353 -0.1299 -0.0869 -0.0940
66604W        W 9657   0.063  11.341  20.817 -0.2088  0.0784  0.0327
66605W        W 9658  10.353  23.536   1.873  0.2918  0.0322 -0.1111
66606W        W 9659  15.664  13.005   6.952  0.0433 -0.0915 -0.2873
66607W        W 9660   0.506  28.889   9.139  0.3402 -0.2551  0.2176
66608W        W 9661  11.925  24.845  27.923 -0.1953  0.0851 -0.0600
66609W        W 9662   5.221  27.662  27.783 -0.0790  0.1947  0.0095
66610W        W 9663  30.497   9.492  26.181  0.2836  0.0848  0.0160
66611W        W 9664  27.936  11.617  21.557 -0.1805  0.0053 -0.0907
66612W        W 9665  28.287  19.456  24.320  0.1612  0.0827 -0.2000
66613W        W 9666  30.900  27.288   3.034  0.4145 -0.1826  0.0211
66614W        W 9667  17.424   3.847  15.189 -0.2817  0.0720 -0.1257
66615W        W 9668  31.462  33.287   4.241 -0.0194 -0.0786  0.1014
66616W        W 9669   2.065   9.206   0.446  0.0350 -0.0245 -0.1265
66617W        W 9670  32.876  23.149   2.890 -0.1812  0.0885 -0.0026
66618W        W 9671  19.178   7.934   5.537  0.1489 -0.1538  0.5104
66619W        W 9672   7.499   0.172   4.823  0.0444  0.0144 -0.2354
66620W        W 9673  11.393   2.464   4.626  0.0282 -0.0598 -0.1634
66621W        W 9674  31.407   5.387  22.818  0.0171  0.2675 -0.0618
66622W        W 9675  23.723  29.870   5.707  0.1709  0.1513 -0.5564
66623W        W 9676   4.793  15.188   6.655 -0.1304 -0.0361 -0.1945
66624W        W 9677  10.615  29.172   8.245  0.2018 -0.1513  0.0959
66625W        W 9678   9.190  10.523  11.060  0.3107 -0.5151 -0.3089
66626W        W 9679   4.593  10.455  25.719 -0.0385 -0.0614 -0.0036
66627W        W 9680  19.100  19.312  24.610  0.0758 -0.0460 -0.1172
66628W        W 9681  17.891   4.177   6.157 -0.2415  0.0971 -0.1527
66629W        W 9682  29.412  32.101   4.154 -0.3477  0.0456  0.3325
66630W        W 9683  32.907   4.004  26.340 -0.0857  0.0974 -0.0765
66631W        W 9684   1.059  32.416   2.442  0.1888  0.0180 -0.1460
66632W        W 9685  33.524  34.477   0.203 -0.1120  0.0474 -0.2552
66633W        W 9686   5.560   1.802   1.033  0.0963 -0.0642  0.1947
66634W        W 9687  26.006  24.456  26.311 -0.1500  0.4290  0.2265
66635W        W 9688  11.568   0.454   1.024 -0.0685 -0.2293 -0.1741
66636W        W 9689  17.404   5.258   3.498  0.0397 -0.3051  0.4279
66637W        W 9690  16.544  23.736  28.165 -0.1804  0.1835  0.1136
66638W        W 9691   9.848  25.258   8.889  0.4554  0.0704  0.0758
66639W        W 9692  34.218  24.202  25.384  0.1492  0.2349  0.0831
66640W        W 9693  13.767  30.374   4.624  0.2351  0.1233 -0.1806
66641W        W 9694  10.963   6.302   3.576 -0.0865  0.0269 -0.1604
66642W        W 9695   9.602   2.863   1.872 -0.0892 -0.5202 -0.0457
66643W        W 9696   7.333  22.028   7.837 -0.0771 -0.1201  0.0003
66644W        W 9697  20.138   5.953   4.847  0.1015  0.1760  0.1614
66645W        W 9698   7.476  31.687   2.281 -0.0873 -0.0827 -0.1755
66646W        W 9699  22.962   9.862   8.490 -0.0755  0.0423  0.1138
66647W        W 9700  10.693   2.068   5.222 -0.2044  0.3497  0.2010
66648W        W 9701   9.133  32.893   2.708  0.1820  0.1728 -0.2863
66649W        W 9702   7.206   4.690   1.349  0.1803 -0.1017  0.1307
66650W        W 9703  10.432  34.259   6.732  0.1698  0.1056  0.2341
66651W        W 9704  25.806   6.357  22.215  0.1136 -0.1558 -0.0921
66652W        W 9705  31.229  21.918   3.285 -0.0689  0.0526  0.3782
66653W        W 9706  10.121  18.755   6.053  0.0659  0.3146  0.0515
66654W        W 9707  15.500  19.550  27.550 -0.0587 -0.0948 -0.3459
66655W        W 9708  21.013  33.236   7.622 -0.1359  0.1415  0.2545
66656W        W 9709  14.763   9.327  26.683  0.0197 -0.0634 -0.3391
66657W        W 9710  16.592  26.300   7.346 -0.0891  0.1045  0.0271
66658W        W 9711  32.497   7.997   7.965 -0.1661 -0.2203 -0.3908
66659W        W 9712   7.340  14.204   1.557  0.2420 -0.0830 -0.2452
66660W        W 9713   3.814   8.927  24.246  0.2392  0.0247  0.2185
66661W        W 9714  32.055  20.334  27.938  0.1936  0.0750 -0.1430
66662W        W 9715  28.205  10.693   0.193  0.1506  0.1372  0.2004
66663W        W 9716  15.985  26.575   1.842  0.0316  0.0133  0.0210
66664W        W 9717  18.370  27.099   0.374  0.2462  0.1492 -0.1537
66665W        W 9718  23.543  31.607   8.571 -0.1083  0.1813  0.1258
66666W        W 9719  10.050  28.500   8.358 -0.1786 -0.2113 -0.2449
66667W        W 9720  19.024   1.025   7.530 -0.2266 -0.1788  0.0679
66668W        W 9721  15.786  15.159   5.785 -0.2398  0.1931  0.1059
66669W        W 9722  14.606  24.861  27.761 -0.1391 -0.1135 -0.2300
66670W        W 9723  16.086   5.755  23.463  0.2478 -0.0672  0.2078
66671W        W 9724   5.351  26.201   0.744  0.0425  0.0538  0.1145
66672W        W 9725  23.983   2.354   0.395 -0.0538  0.2044 -0.1318
66673W        W 9726  26.702   7.341  10.715  0.2238  0.1149  0.0814
66674W        W 9727  32.062  31.513   9.289 -0.2225  0.2104 -0.4552
66675W        W 9728  10.628  22.161   1.557 -0.2170  0.1758  0.2864
66676W        W 9729   4.138   0.010  17.247 -0.0631 -0.1468 -0.1286
66677W        W 9730   0.884  17.347  26.202  0.2435 -0.1136  0.0102
66678W        W 9731  16.668   0.458   4.866 -0.2738 -0.1474  0.0744
66679W        W 9732   8.150  26.548  17.217  0.0688  0.1413  0.1285
66680W        W 9733  32.676   3.499  24.363 -0.0501 -0.0659  0.1177
66681W        W 9734   6.074  32.824   7.888  0.2884 -0.0179 -0.2221
66682W        W 9735  10.876  14.231   6.406  0.1965  0.1049  0.2684
66683W        W 9736  31.842  15.778  23.897  0.1408  0.0100  0.0701
66684W        W 9737   4.181  14.298   5.020  0.0116 -0.3862  0.1421
66685W        W 9738  17.571  27.132   3.806 -0.0769  0.0070 -0.3077
66686W        W 9739  29.500   0.271   3.346 -0.1843 -0.0761  0.0197
66687W        W 9740  15.459   7.451   3.941  0.0388 -0.0420  0.2021
66688W        W 9741  12.109  27.007   4.703  0.1795 -0.0250 -0.0774
66689W        W 9742   1.853   3.487   4.578  0.1119 -0.0244 -0.0245
66690W        W 9743  21.336  18.489   3.815  0.0732 -0.0063 -0.2602
66691W        W 9744  33.478  10.104   9.199 -0.0795 -0.0221  0.0204
66692W        W 9745   2.322   2.629   2.483  0.2139  0.1379 -0.2002
66693W        W 9746  30.685  30.156   8.390 -0.3564  0.3297 -0.2587
66694W        W 9747   5.678   2.204   2.923  0.0423 -0.1065  0.2161
66695W        W 9748  27.615  12.338   4.343 -0.0859  0.1287  0.0357
66696W        W 9749   4.292  28.736   7.790  0.0737  0.2535  0.1130
66697W        W 9750   9.850  34.453  27.618 -0.3350 -0.2071 -0.5220
66698W        W 9751   5.705  11.166   6.175 -0.2769 -0.0536 -0.0682
66699W        W 9752  15.247   6.374   6.802  0.2074 -0.0236 -0.1820
66700W        W 9753  21.026  33.106   5.680 -0.0651  0.1663  0.0483
66701W        W 9754   9.959  27.352   1.278  0.2451 -0.1063 -0.1614
66702W        W 9755   7.711  10.708   4.351  0.1002  0.0200 -0.0867
66703W        W 9756   4.488   1.922  18.838 -0.0221  0.0336 -0.1372
66704W        W 9757   4.106  29.547   1.112  0.1073 -0.1448  0.1875
66705W        W 9758   0.768   4.563  17.374 -0.0066 -0.0098  0.4285
66706W        W 9759   2.624  29.708   1.496  0.0834 -0.1156 -0.0701
66707W        W 9760  32.719   7.127  23.389  0.0429 -0.0322  0.2098
66708W        W 9761  17.912   9.429  26.183 -0.0101  0.0670  0.2881
66709W        W 9762  18.692  34.638   3.920  0.3649  0.0958 -0.0510
66710W        W 9763  15.906  26.447   6.775  0.0844  0.1250  0.2166
66711W        W 9764  15.154   3.057   9.752  0.1091  0.1789  0.0111
66712W        W 9765  19.281  27.949   2.505  0.1351  0.1186 -0.2050
66713W        W 9766  30.018   5.663  26.857 -0.3927  0.3251  0.0467
66714W        W 9767   1.897  21.983  28.186  0.2213 -0.0752  0.0036
66715W        W 9768  22.005   8.607   3.530  0.1076 -0.0884 -0.2317
66716W        W 9769  13.737   6.432   2.476 -0.1223 -0.1287  0.0450
66717W        W 9770  33.750  10.960   0.226  0.0888  0.0794 -0.0024
66718W        W 9771  31.546  34.485   4.196 -0.2976 -0.3152 -0.1431
66719W        W 9772  23.584   7.830   3.674  0.0635  0.1821  0.0603
66720W        W 9773  21.934  32.726  27.939 -0.1391 -0.3373 -0.1146
66721W        W 9774   4.085  15.273   8.423  0.0882  0.0572 -0.0662
66722W        W 9775  11.443   2.478   7.544  0.0873  0.0747  0.2144
66723W        W 9776  16.432  32.773  15.226  0.0942  0.0910  0.2050
66724W        W 9777   7.438  23.793   8.790  0.3101 -0.3341 -0.1429
66725W        W 9778  25.841  33.702   3.315  0.0254  0.0098  0.5227
66726W        W 9779   6.353   3.371   4.361  0.3142  0.0001 -0.0684
66727W        W 9780   9.980   6.128   7.007 -0.1293 -0.0006 -0.2244
66728W        W 9781  31.366   3.353  28.836 -0.2567  0.1277 -0.0132
66729W        W 9782   2.970   9.017   3.874  0.1023 -0.1006  0.2585
66730W        W 9783  12.373  22.050  24.110 -0.0179 -0.1741 -0.1357
66731W        W 9784   8.352   0.796   6.833 -0.3776 -0.3290 -0.1429
66732W        W 9785  25.741   0.932   1.299  0.1929 -0.1035 -0.1560
66733W        W 9786  17.616  26.996   5.107 -0.0447 -0.0657 -0.1784
66734W        W 9787  27.923  25.279   9.452 -0.0175 -0.4534  0.2659
66735W        W 9788   9.545  17.182   8.502 -0.0791 -0.0452 -0.1711
66736W        W 9789  30.675   3.815   1.465 -0.0683 -0.0062 -0.0898
66737W        W 9790   0.143  28.661   3.815 -0.0744  0.0380  0.3137
66738W        W 9791  21.047   4.437  28.758  0.1805 -0.1037  0.2813
66739W        W 9792   3.502   0.167   8.305  0.0218 -0.1797 -0.0121
66740W        W 9793  23.370  31.738  28.219  0.2948  0.0174  0.0371
66741W        W 9794   9.095   2.015   2.784 -0.3553 -0.0644 -0.2306
66742W        W 9795  27.372  29.976   9.693 -0.3530  0.4968  0.0934
66743W        W 9796  14.110  14.870  16.560 -0.0404 -0.0925 -0.1224
66744W        W 9797  28.028  24.943   3.784 -0.1613 -0.1305  0.1931
66745W        W 9798   1.774   9.837   1.213  0.2544  0.1205 -0.1692
66746W        W 9799   6.481  30.487   5.362  0.2217 -0.0655  0.0965
66747W        W 9800   1.902  14.118   3.570  0.0608  0.0539 -0.0052
66748W        W 9801  16.376   3.404  25.286 -0.3978  0.2796 -0.0499
66749W        W 9802   5.586   4.830   5.660  0.4377  0.1530  0.4918
66750W        W 9803   9.720  30.848   6.868 -0.4034  0.0803  0.1566
66751W        W 9804  27.764  24.358   5.802 -0.1599 -0.2672  0.0399
66752W        W 9805  32.052  26.676   8.581 -0.3502  0.1446 -0.1895
66753W        W 9806   9.535   4.511   9.071 -0.0885  0.0382  0.1300
66754W        W 9807   3.391  34.606   4.147  0.1164 -0.1118  0.1930
66755W        W 9808  14.103   4.288   2.072  0.0826  0.0791 -0.0305
66756W        W 9809   5.862   6.385  22.616  0.2403  0.1383  0.4511
66757W        W 9810   8.467  33.390  27.947  0.1982 -0.1651  0.2404
66758W        W 9811  12.567  33.404  17.899 -0.4042 -0.1253  0.2371
66759W        W 9812   6.648   8.065   2.255 -0.1416  0.3310 -0.0103
66760W        W 9813  34.396  33.291   8.894 -0.2062 -0.3116 -0.3574
66761W        W 9814   6.938  33.245   0.284  0.2745  0.0742 -0.4236
66762W        W 9815  14.963   4.393   9.921 -0.2086 -0.1899  0.0676
66763W        W 9816  23.610   9.361   2.595 -0.0200  0.1103  0.0358
66764W        W 9817   0.325  24.374  18.913  0.0402  0.2307 -0.0091
66765W        W 9818  24.028  31.491   3.052  0.0354 -0.3758  0.2285
66766W        W 9819  33.177  28.446   5.277  0.0437  0.1483 -0.0787
66767W        W 9820   0.623   9.864   0.287 -0.0159 -0.1218  0.0789
66768W        W 9821   4.571   9.054   0.788 -0.0242  0.2305 -0.2225
66769W        W 9822  18.192  32.711  19.951 -0.1365  0.0755  0.2128
66770W        W 9823   6.263   6.798  10.130 -0.3825 -0.0498  0.2817
66771W        W 9824   6.139  31.939   7.176 -0.1549 -0.0548  0.1478
66772W        W 9825   2.671  18.362  15.592 -0.0987 -0.0187 -0.2624
66773W        W 9826   0.651   2.797   3.950  0.1040  0.3074 -0.2620
66774W        W 9827   8.321  30.578   6.740  0.1661 -0.1270 -0.0577
66775W        W 9828   4.224  12.196   4.423  0.3799  0.0435 -0.0062
66776W        W 9829  12.103  34.461   3.352  0.2216 -0.1604 -0.1888
66777W        W 9830   3.789  31.879   7.299  0.0817 -0.1758 -0.2183
66778W        W 9831   0.755  19.644  17.485 -0.0104  0.0398  0.3078
66779W        W 9832   7.929   6.790  11.184 -0.1881 -0.2878  0.0959
66780W        W 9833   4.757  34.277  18.283 -0.2350  0.0109 -0.1415
66781W        W 9834  33.390  30.712   8.789  0.3031  0.3350  0.0040
66782W        W 9835   3.836   4.857   1.395 -0.2567 -0.2124 -0.2564
66783W        W 9836  17.722   7.730  10.146 -0.2585 -0.1391 -0.0268
66784W        W 9837  14.421   0.473   0.212  0.1035 -0.3079  0.0450
66785W        W 9838  29.828  14.555   3.737 -0.1669 -0.1427 -0.3297
66786W        W 9839   7.264  29.008   4.092 -0.0517  0.2318  0.0912
66787W        W 9840  17.612  16.992   3.932 -0.0049  0.3193 -0.2960
66788W        W 9841  31.391  25.110   8.059  0.2955 -0.0973  0.0438
66789W        W 9842  33.507  29.707   6.660  0.2505  0.0105 -0.2031
66790W        W 9843   6.348   9.913  27.139  0.1604  0.4771 -0.0545
66791W        W 9844  15.545  33.624   8.962  0.0855 -0.1504  0.0905
66792W        W 9845  34.529   1.651   2.222  0.0350 -0.2727 -0.2662
66793W        W 9846  18.641   4.151   3.765  0.3710 -0.1413 -0.0021
66794W        W 9847  32.524  28.913  17.855 -0.1923 -0.0900  0.1030
66795W        W 9848   2.677  19.415   3.570  0.1840  0.2016 -0.0473
66796W        W 9849   7.479   0.783   3.994 -0.0247 -0.0483 -0.2721
66797W        W 9850   6.409  10.715   7.980 -0.0903  0.0699  0.0476
66798W        W 9851  27.655   0.200   8.763 -0.1586 -0.3304  0.0226
66799W        W 9852  24.302  31.991  10.146 -0.1797  0.1022  0.1849
66800W        W 9853  12.169  25.786  26.716  0.1321  0.1962  0.1379
66801W        W 9854   1.986  25.180   0.047  0.1589 -0.2542 -0.1097
66802W        W 9855  15.173  26.757   5.597 -0.1325 -0.2636  0.5480
66803W        W 9856  32.829   0.078   3.293  0.1073 -0.1272 -0.2379
66804W        W 9857  30.449  29.558  29.141 -0.0047 -0.3726  0.1125
66805W        W 9858  25.711  28.962  16.191 -0.0735 -0.4522 -0.0155
66806W        W 9859   4.473  12.368   6.919  0.0119  0.1825  0.2039
66807W        W 9860  12.953  16.050  23.425 -0.0306 -0.2206 -0.0099
66808W        W 9861  13.460   3.091  28.475  0.3011  0.1463  0.3449
66809W        W 9862  21.618   2.117   9.421  0.0266  0.0720 -0.0097
66810W        W 9863   6.199   0.868   2.345  0.0319 -0.1888  0.2828
66811W        W 9864   0.323  32.938  24.863 -0.0233 -0.1619 -0.1824
66812W        W 9865  10.847  33.567  28.880 -0.0328  0.0128 -0.0140
66813W        W 9866   6.196  28.728  21.453  0.0278 -0.0614 -0.1078
66814W        W 9867   5.495  27.536   1.015 -0.1644 -0.0011  0.2450
66815W        W 9868   0.631  33.867  21.637 -0.0546 -0.3202  0.1598
66816W        W 9869  12.134  10.168  10.825 -0.0423  0.1858 -0.2134
66817W        W 9870   5.103   1.510  22.868  0.0315 -0.0829  0.2045
66818W        W 9871  29.041   4.304   2.020 -0.0671  0.0710  0.1253
66819W        W 9872  10.208   0.862  17.069  0.2525  0.3600  0.0039
66820W        W 9873   5.554  18.431  27.258 -0.0983  0.1196  0.1563
66821W        W 9874   1.097  31.240   7.484  0.1593  0.0223  0.3241
66822W        W 9875  10.550  16.672  28.813 -0.4319  0.2176 -0.1296
66823W        W 9876  12.873  19.824   6.167 -0.2187  0.3285  0.1379
66824W        W 9877   7.585   3.961   5.584  0.2047  0.1700  0.0547
66825W        W 9878  14.295  13.499  26.330  0.4310  0.1044 -0.0837
66826W        W 9879   1.511   6.008   8.928 -0.1088 -0.2904 -0.1268
66827W        W 9880   4.207  29.936  14.094  0.1274 -0.0906  0.1468
66828W        W 9881  13.408  31.767   6.014 -0.2827  0.1244 -0.1054
66829W        W 9882   3.590  23.867   9.340 -0.0012 -0.0653  0.1589
66830W        W 9883  32.193   2.472   2.805 -0.1383 -0.1504  0.0335
66831W        W 9884   2.211   4.996  28.783 -0.0220  0.3020 -0.2779
66832W        W 9885  32.993   0.462   3.052  0.0678 -0.2217  0.2224
66833W        W 9886   0.914   1.849   8.287  0.1077 -0.0072  0.0607
66834W        W 9887  11.331   3.922   6.223  0.0532  0.0722  0.1087
66835W        W 9888  14.712  11.632   4.165 -0.3542 -0.0403 -0.0261
66836W        W 9889   2.546   8.476  23.745 -0.1585  0.1295  0.1324
66837W        W 9890  14.719  29.231   9.284  0.2648 -0.2829  0.1980
66838W        W 9891   6.170   2.259   3.853  0.0083 -0.3936 -0.0656
66839W        W 9892   5.097  24.002  23.570  0.0878 -0.2444  0.0278
66840W        W 9893  20.551   5.611   9.897 -0.2163  0.1252  0.1351
66841W        W 9894  11.607  31.263   0.476  0.1338 -0.2332  0.0865
66842W        W 9895   9.715  28.496  24.914  0.1463 -0.0776 -0.0241
66843W        W 9896  13.735   7.151  21.132 -0.1433 -0.0812  0.1024
66844W        W 9897   7.557   4.663  28.558 -0.3324  0.0750 -0.1664
66845W        W 9898   6.090  20.452  22.468 -0.1901 -0.1155  0.3875
66846W        W 9899   1.848   3.614   7.604  0.1718 -0.3039 -0.2793
66847W        W 9900  22.912  33.299  27.100  0.1468  0.0208  0.1305
66848W        W 9901  26.347   3.846   1.906 -0.1329 -0.0580  0.1154
66849W        W 9902  27.261  34.649   7.198  0.0564 -0.2515  0.0824
66850W        W 9903  13.141  10.481   5.272 -0.0868  0.1500  0.1931
66851W        W 9904  10.878  10.686  11.507 -0.1413  0.1389  0.2819
66852W        W 9905  19.178  25.815  26.007 -0.1298 -0.0242 -0.3029
66853W        W 9906  16.590   4.980   7.456  0.0408 -0.1254  0.0868
66854W        W 9907  10.498   9.905   6.014  0.0304 -0.0291 -0.0089
66855W        W 9908  21.317  23.990   1.519  0.1094  0.0227  0.4119
66856W        W 9909   8.532   1.300  28.222 -0.1313 -0.1822  0.1571
66857W        W 9910  11.603  22.126   8.491  0.1402  0.3462  0.0125
66858W        W 9911   1.908   8.831   9.536 -0.3848 -0.0918 -0.1448
66859W        W 9912  12.947  21.702   2.737  0.1016  0.0188  0.0491
66860W        W 9913   7.021   8.699   3.641 -0.2835 -0.1955  0.0743
66861W        W 9914  21.578  31.996  20.473  0.2448  0.3427 -0.1000
66862W        W 9915   3.419  13.641   9.973  0.0909 -0.2828 -0.2174
66863W        W 9916  11.227  12.582   4.645  0.0996  0.1284  0.1177
66864W        W 9917  31.409   5.038   4.905 -0.1554 -0.0385 -0.0754
66865W        W 9918  27.079  25.919  10.141 -0.0350 -0.1704 -0.2516
66866W        W 9919  14.466  26.218   5.879 -0.1627 -0.1834 -0.0024
66867W        W 9920   9.538  32.514   6.856  0.2500  0.0201 -0.1035
66868W        W 9921   2.368   0.507   8.844 -0.2117 -0.0912  0.3919
66869W        W 9922  13.972   0.706  22.318 -0.2647 -0.1077  0.0041
66870W        W 9923  22.054   7.346  23.078  0.0515 -0.1468  0.0720
66871W        W 9924  28.883   9.149  25.670 -0.1050 -0.0063 -0.1173
66872W        W 9925   8.814   3.129   0.231  0.3513 -0.0470 -0.5316
66873W        W 9926   3.897  29.076   7.175  0.0944 -0.2582 -0.1940
66874W        W 9927   4.926  26.541   1.498 -0.0521  0.3297 -0.2673
66875W        W 9928   7.999  18.705   3.282  0.0152  0.1284 -0.4582
66876W        W 9929   0.077  20.001   6.951 -0.0351 -0.1586  0.0887
66877W        W 9930   6.555   1.421   7.953 -0.2692  0.1996  0.0964
66878W        W 9931   8.646  32.941   6.291 -0.2451 -0.1582  0.2469
66879W        W 9932   9.259  19.841  28.680 -0.1861  0.0567  0.0752
66880W        W 9933   5.380  24.093  28.896  0.2369 -0.0381 -0.0583
66881W        W 9934  33.398   3.164   4.606 -0.3587 -0.0348  0.0523
66882W        W 9935  10.956  29.348   3.764  0.1879 -0.0271 -0.1977
66883W        W 9936   9.527  33.331   1.433  0.0783  0.0092  0.0876
66884W        W 9937   8.950  28.375  22.580  0.0392 -0.1000 -0.1365
66885W        W 9938   5.893  34.410   7.827  0.1805  0.1328  0.3363
66886W        W 9939   6.385  23.941  21.249  0.1987  0.0838 -0.2300
66887W        W 9940  17.584  30.691  26.301  0.1857  0.1871 -0.2298
66888W        W 9941  27.755   3.611  25.432  0.4235  0.1844 -0.0554
66889W        W 9942   5.654  33.346   3.731 -0.3384  0.1599 -0.1227
66890W        W 9943   7.098  15.334  26.354 -0.1556 -0.0312  0.1757
66891W        W 9944   8.500  14.383   4.127  0.0069 -0.3207 -0.0032
66892W        W 9945  11.844   2.699   7.277 -0.1596 -0.0651  0.2881
66893W        W 9946  15.198  25.258   2.203  0.0675  0.0330 -0.0110
66894W        W 9947   7.988   1.463  22.652  0.1153 -0.0369  0.0857
66895W        W 9948   3.070  32.951   6.324  0.1534 -0.1401  0.1741
66896W        W 9949   8.112  24.807   7.088  0.1528 -0.1550 -0.0511
66897W        W 9950   7.875   0.755   7.591 -0.1863 -0.1570  0.1777
66898W        W 9951  11.136   5.097   1.190 -0.1040  0.1606  0.1617
66899W        W 9952   9.180  27.992  25.952  0.0224  0.2256  0.3967
66900W        W 9953   1.289   6.754   5.352  0.0184 -0.0187 -0.1038
66901W        W 9954   6.134   9.448   9.726  0.2296 -0.2006 -0.3796
66902W        W 9955  16.600   7.235   1.793 -0.0802  0.1188  0.4395
66903W        W 9956   1.947  29.036   5.154  0.0954  0.3970  0.0052
66904W        W 9957  31.250   1.997   9.708 -0.0503  0.1015  0.4423
66905W        W 9958  10.895   8.395   7.674  0.0248  0.0582  0.4799
66906W        W 9959  22.053   7.194  25.805  0.0287 -0.0300 -0.0732
66907W        W 9960  28.851  29.616  15.516 -0.2551  0.1817 -0.1975
66908W        W 9961  15.483  12.982   0.224  0.0547 -0.0807  0.2262
66909W        W 9962  20.221  16.913   4.685  0.1709 -0.0529  0.1045
66910W        W 9963   3.448   9.026   9.847 -0.1961  0.2613 -0.0360
66911W        W 9964   6.243   7.729   2.897  0.1056  0.0641 -0.1992
66912W        W 9965  34.002  32.969   3.095 -0.0556  0.0475  0.0272
66913W        W 9966  31.506  30.280   2.041  0.0214  0.1215  0.0804
66914W        W 9967  10.441  31.191   6.506 -0.0725  0.0044 -0.3156
66915W        W 9968  27.518   3.310   6.217 -0.0053  0.1775  0.0436
66916W        W 9969   6.485   6.728  21.057 -0.1479  0.0269  0.0452
66917W        W 9970   9.955  26.665  23.807  0.1540 -0.0924 -0.0166
66918W        W 9971  30.957   2.917   3.987 -0.2345  0.1087 -0.0572
66919W        W 9972   9.886   6.364   0.723  0.2390  0.2856 -0.0438
66920W        W 9973  13.154   2.858   5.860 -0.0299 -0.1274  0.4563
66921W        W 9974  16.377  26.866   9.254  0.0596 -0.0575 -0.0367
66922W        W 9975  30.972  25.003   9.104  0.3252  0.0371  0.3517
66923W        W 9976   2.028  18.067   9.393 -0.1312 -0.2860  0.1077
66924W        W 9977  29.368   3.525   7.311  0.1258  0.0642  0.0520
66925W        W 9978  26.983   6.645  16.390 -0.1243 -0.0317 -0.0610
66926W        W 9979  18.043  31.197   5.671  0.1255 -0.0176 -0.2557
66927W        W 9980  15.912  30.217   1.636  0.3260 -0.1615  0.1822
66928W        W 9981  11.922  29.975   5.758  0.0988  0.0124 -0.0757
66929W        W 9982   8.440   9.243   2.846  0.0161 -0.1440 -0.1078
66930W        W 9983   3.104   2.679   4.918  0.1668  0.2127  0.2751
66931W        W 9984   1.207  10.428  25.467  0.1854 -0.2551  0.0906
66932W        W 9985  23.836  17.576   2.255  0.2983  0.3883  0.2284
66933W        W 9986  18.551   0.303  26.966 -0.0684 -0.2712 -0.1136
66934W        W 9987   2.854  21.053   6.151  0.2779 -0.2327  0.0118
66935W        W 9988  12.889  12.059   6.113  0.3893  0.2004  0.1768
66936W        W 9989  28.729  21.644  21.710  0.2037 -0.3750 -0.2536
66937W        W 9990  33.607  34.677   7.760  0.0769 -0.1236 -0.3297
66938W        W 9991   5.614   6.172   6.307 -0.1201 -0.0292 -0.2255
66939W        W 9992  25.817  20.633  23.652  0.1352  0.1976 -0.1929
66940W        W 9993  33.141  13.453   6.190 -0.0915  0.2019  0.0171
66941W        W 9994   4.049  11.885  10.216  0.3604 -0.3514  0.1408
66942W        W 9995  29.187  29.269   9.896  0.1343  0.2151  0.1157
66943W        W 9996   2.460   5.611  29.178 -0.0860 -0.0182  0.1817
66944W        W 9997  13.469  27.422   5.572 -0.1881  0.1785  0.3943
66945W        W 9998   3.175   9.063  18.445  0.2160  0.0106  0.1714
66946W        W 9999  18.743   2.979   6.373  0.4265 -0.2158 -0.4231
66947W        W10000  19.159  11.472   6.122  0.3183 -0.2567 -0.2570
66948W        W10001  25.113   7.054   3.058  0.1241  0.0334 -0.1756
66949W        W10002  13.219  15.593   3.148  0.2273 -0.1345  0.1234
66950W        W10003  33.714  22.064   6.346  0.2415 -0.2383  0.2407
66951W        W10004  12.007   6.701   9.429 -0.1565 -0.0874  0.0812
66952W        W10005  28.149  21.366  18.469  0.1891  0.0239 -0.2014
66953W        W10006   8.513  30.002   0.629  0.2006 -0.1198 -0.2091
66954W        W10007  14.094  27.831  25.887  0.0144 -0.0989  0.0314
66955W        W10008  11.892   2.662   5.464  0.1819 -0.3292 -0.0364
66956W        W10009   4.879  27.433  28.703 -0.2323 -0.2805 -0.0148
66957W        W10010  25.775   5.577   9.263 -0.0096  0.0135  0.2081
66958W        W10011  13.381  33.326   4.887 -0.2278 -0.0422  0.0063
66959W        W10012   7.016  11.643  26.179  0.0348 -0.0803 -0.0149
66960W        W10013   1.585  17.650  24.644 -0.2544 -0.1991 -0.1562
66961W        W10014   3.444  16.889   4.747  0.2261 -0.1576  0.1693
66962W        W10015  32.145  26.373  26.201 -0.4050 -0.2761  0.2284
66963W        W10016  14.830  12.706   6.142 -0.1544  0.0833  0.1746
66964W        W10017  30.042  11.695   5.280  0.4030  0.0781  0.0918
66965W        W10018  19.406  26.563   8.775 -0.1182  0.0835  0.0079
66966W        W10019  13.923  23.209   2.584 -0.0485  0.0102 -0.0458
66967W        W10020  16.230  22.687   8.860 -0.3608  0.0953 -0.3051
66968W        W10021   9.031  16.153   4.220  0.1851  0.1213 -0.1927
66969W        W10022   9.337  20.697   8.669 -0.0109  0.1626 -0.2406
66970W        W10023   8.499  11.282  27.704 -0.0740 -0.2777  0.0065
66971W        W10024  10.494  34.330   4.475 -0.2117 -0.0280 -0.0795
66972W        W10025   8.627  32.772  21.476 -0.0429 -0.2899  0.1701
66973W        W10026   7.274  31.427   4.528  0.1669 -0.1469  0.3387
66974W        W10027   7.639  16.091  25.955  0.0954  0.0482 -0.2868
66975W        W10028  13.711   7.850   3.568 -0.2911  0.0478 -0.0388
66976W        W10029  24.030  25.691  25.213  0.0743  0.1081 -0.2983
66977W        W10030  10.469   7.517   5.594  0.1015 -0.2709  0.1079
66978W        W10031   6.711  28.827   7.286  0.0561 -0.0243 -0.4350
66979W        W10032  17.332  34.008  29.032  0.0706  0.1174 -0.3483
66980W        W10033  23.204   3.287   9.498 -0.0663 -0.2935 -0.0432
66981W        W10034  12.755   0.356  26.652  0.0242 -0.0421  0.1086
66982W        W10035  13.663  27.790   1.415  0.0223  0.0137  0.3007
66983W        W10036  13.323  29.974  15.646 -0.0139  0.1528  0.1387
66984W        W10037   3.363   6.141   4.916  0.0068  0.2990 -0.0746
66985W        W10038   8.947   3.798   8.809 -0.2156 -0.1662 -0.3899
66986W        W10039   5.357  23.934   9.855  0.0136  0.0222  0.0594
66987W        W10040   7.268   7.869   1.525 -0.2405  0.0009  0.0211
66988W        W10041   1.294  27.757   4.323 -0.0941  0.4013 -0.0811
66989W        W10042  33.584  22.932  25.402 -0.0727 -0.0066 -0.0291
66990W        W10043   8.308  21.511  20.472 -0.2002 -0.1341  0.0318
66991W        W10044  15.433   9.174  10.242 -0.0748 -0.0915 -0.1772
66992W        W10045   2.358  20.171   8.338  0.3955 -0.1860  0.1421
66993W        W10046  11.479  23.617   4.001  0.4942  0.0406 -0.2860
66994W        W10047  32.735  31.849   6.555  0.0058  0.4251 -0.2437
66995W        W10048  28.207   9.440  28.467  0.1876 -0.1438 -0.1844
66996W        W10049  20.703  24.074   3.210  0.1893 -0.0224 -0.1976
66997W        W10050   6.087   7.060  23.114 -0.1063 -0.1365  0.0877
66998W        W10051  33.888  33.248   8.938 -0.4084  0.3437  0.0484
66999W        W10052  14.999   7.286  10.238 -0.3196  0.0521 -0.0366
67000W        W10053   0.153  27.369   5.942 -0.3246 -0.0868  0.2817
67001W        W10054  19.947  31.103   2.059 -0.3009  0.0609 -0.2005
67002W        W10055   7.583   3.473   3.650 -0.2489 -0.2766  0.0462
67003W        W10056  11.496  30.094   6.119 -0.0414 -0.1096  0.3655
67004W        W10057   2.351   1.236   4.948 -0.0116 -0.0360  0.1910
67005W        W10058  31.754  21.488   9.143 -0.3757  0.1585 -0.0069
67006W        W10059  14.611  11.181   3.842  0.1372  0.0694 -0.0973
67007W        W10060  29.266  13.721   3.854  0.1346  0.0634 -0.0475
67008W        W10061   7.334   6.137  27.604 -0.0293  0.1121  0.3040
67009W        W10062  31.545   4.877   8.751 -0.1744 -0.1472 -0.0101
67010W        W10063  11.097  31.256  21.512  0.4057 -0.1840 -0.0371
67011W        W10064  18.098  27.503   3.749 -0.0652 -0.4454 -0.1328
67012W        W10065  18.854  33.699  21.802 -0.3851 -0.2093  0.2997
67013W        W10066  33.848  23.361  28.238  0.1141  0.0043 -0.2665
67014W        W10067  11.698  16.148  10.232 -0.1327 -0.1198 -0.0985
67015W        W10068   4.458   2.147   9.451  0.1513  0.0673 -0.2427
67016W        W10069  17.826  30.368   0.624  0.3043  0.4198 -0.0214
67017W        W10070  10.374   2.331   7.767 -0.1697  0.0639 -0.1879
67018W        W10071  32.198   1.244   6.951 -0.1640 -0.0090  0.1499
67019W        W10072   0.367  27.340  25.152  0.0193  0.1181 -0.1477
67020W        W10073  17.466   9.495   5.273  0.2005 -0.0318  0.0671
67021W        W10074   4.758   8.793  10.622  0.0357 -0.1017  0.4352
67022W        W10075  14.923  32.023  25.566 -0.1197  0.1152 -0.0341
67023W        W10076   2.138  21.215  14.296 -0.0287  0.2507  0.2186
67024W        W10077   0.546  28.002   8.004 -0.0251  0.2878  0.0040
67025W        W10078  10.615  31.812  15.622  0.0358 -0.1461 -0.3204
67026W        W10079  22.205  29.336  29.132  0.2493 -0.0596  0.0169
67027W        W10080  31.261  29.685  17.523  0.2410 -0.0829  0.0526
67028W        W10081  15.447  24.638  25.138 -0.0725  0.1694  0.1776
67029W        W10082   6.483   8.205   8.187  0.0930 -0.2774  0.2146
67030W        W10083  34.298  25.378   7.525  0.3339  0.0694  0.0939
67031W        W10084   7.967  28.470   7.963 -0.1278 -0.0120 -0.1351
67032W        W10085   2.427  34.413   9.644 -0.0626  0.0616  0.2247
67033W        W10086  26.801  32.232  22.883  0.0927 -0.0612  0.0865
67034W        W10087  11.411  29.107  24.107  0.0865  0.3883 -0.2428
67035W        W10088   7.671   1.266   5.948  0.1331  0.0645  0.3392
67036W        W10089  29.869  21.161   2.318  0.1330 -0.2247 -0.0534
67037W        W10090  10.131  19.505  22.058  0.0856 -0.1276 -0.2665
67038W        W10091  18.725  28.575  16.754  0.2724  0.1267 -0.2734
67039W        W10092  11.069  26.226   6.920  0.1645 -0.3199  0.2331
67040W        W10093  16.675   2.824   3.719 -0.0643  0.2396  0.4078
67041W        W10094   6.737  33.511   6.592  0.1005 -0.1019  0.1593
67042W        W10095   2.434  28.484  22.474  0.1014  0.2491  0.1877
67043W        W10096  30.188   4.978   9.017 -0.0530  0.1453 -0.1664
67044W        W10097   5.331  16.873  24.838 -0.3226  0.0470 -0.2772
67045W        W10098   6.187   7.182   2.270 -0.0926  0.1401  0.2924
67046W        W10099   4.643   0.349   3.515  0.3096  0.3639  0.1774
67047W        W10100  26.301   3.017  26.962 -0.5531  0.2018 -0.2067
67048W        W10101  25.747  32.935   9.294  0.0270  0.0711  0.0281
67049W        W10102  10.644  21.192  28.110 -0.2819  0.0192 -0.1962
67050W        W10103  12.301  17.767  27.959  0.1378 -0.0635  0.0954
67051W        W10104  16.483   6.484   2.243 -0.0598 -0.0317  0.1644
67052W        W10105   5.077  22.162  18.167 -0.2597 -0.0083 -0.2304
67053W        W10106  13.390   0.041   8.762 -0.1685 -0.0183 -0.0490
67054W        W10107  11.635   3.033   9.332  0.0427 -0.1082 -0.0407
67055W        W10108  12.280   3.802  15.623 -0.2657  0.2270 -0.1517
67056W        W10109  14.094  25.659   0.363 -0.2348  0.1646 -0.1007
67057W        W10110  28.401  14.162  16.988  0.0469  0.0986 -0.2232
67058W        W10111   3.815   3.715   5.477  0.2303 -0.0234  0.3802
67059W        W10112  13.898   9.397  26.078  0.2520 -0.1582  0.0974
67060W        W10113  18.996   9.135   9.850 -0.2444 -0.0279  0.0248
67061W        W10114   7.953  28.662   0.017  0.1637  0.1499 -0.0640
67062W        W10115  15.423   2.750   2.550 -0.4685  0.3751 -0.0140
67063W        W10116  30.957  25.070  27.642 -0.2714 -0.0069  0.4039
67064W        W10117  30.497  24.765   2.321 -0.0193 -0.0031 -0.0890
67065W        W10118  11.249   4.356   9.428  0.0900  0.4619 -0.2506
67066W        W10119   5.380  28.586   4.628 -0.2931 -0.1299  0.0088
67067W        W10120  29.562  29.512   6.842  0.2635  0.0199 -0.0062
67068W        W10121  11.241   6.652  27.795  0.1912 -0.1636 -0.0393
67069W        W10122   8.743  12.376   6.620 -0.1480 -0.1119 -0.0995
67070W        W10123  19.735   0.661   3.805 -0.3417 -0.1532  0.0825
67071W        W10124   1.110  29.617   7.541  0.3325 -0.0874  0.0931
67072W        W10125  34.549  25.098   7.228  0.2066 -0.0281 -0.0807
67073W        W10126  16.392   0.809   3.041 -0.4755 -0.0666 -0.1130
67074W        W10127  28.599  32.756   9.736 -0.0723 -0.1490 -0.1742
67075W        W10128   0.503  11.984   4.082 -0.0428  0.1936  0.3395
67076W        W10129   7.099   7.638   7.412  0.0453 -0.1098 -0.1049
67077W        W10130   8.320  33.190   9.496  0.3008  0.1817 -0.1929
67078W        W10131   8.715  13.977  27.232 -0.3068 -0.0100 -0.4701
67079W        W10132  20.299  22.608   0.331 -0.0748 -0.0596 -0.2176
67080W        W10133   5.500  33.148   7.220  0.1732  0.3712 -0.2452
67081W        W10134  32.400   4.492   6.185 -0.0828 -0.2698  0.3394
67082W        W10135  13.259  28.780   1.302  0.1246 -0.2014 -0.1384
67083W        W10136  27.605  31.964   6.178  0.2113 -0.0428 -0.0629
67084W        W10137   2.751  26.499  21.349 -0.0406 -0.0650 -0.1431
67085W        W10138  34.451  12.225   9.311  0.1820 -0.1164  0.1743
67086W        W10139  14.174  34.335   0.060 -0.1266  0.1800 -0.2047
67087W        W10140   0.106   9.093  20.222  0.4244 -0.2083 -0.0220
67088W        W10141   3.873  34.354   4.260  0.1360  0.3672  0.1210
67089W        W10142   2.778  32.834   7.414  0.0655  0.1029 -0.0262
67090W        W10143  17.914   9.795  26.572 -0.0338 -0.1201 -0.1712
67091W        W10144   8.797   5.114   6.022  0.0882 -0.2052  0.0900
67092W        W10145   4.990  24.157   0.581 -0.0767  0.0929 -0.0277
67093W        W10146  29.590  29.061   5.945 -0.0149  0.1240 -0.1860
67094W        W10147   5.733  21.520  23.267  0.0480 -0.1245 -0.1462
67095W        W10148  21.789  33.026   4.224  0.1922 -0.1040  0.2169
67096W        W10149  30.427   5.256   0.905 -0.0348 -0.2328  0.1014
67097W        W10150  16.422  29.844   5.099  0.0411  0.0684 -0.1295
67098W        W10151  30.949   1.839  27.394 -0.3568  0.1322 -0.2403
67099W        W10152  13.527  29.307   3.026  0.2150 -0.2267 -0.0291
67100W        W10153   4.532   6.226   1.403 -0.0965 -0.0989  0.0004
67101W        W10154  25.487  22.883   8.809  0.1324 -0.3847  0.2154
67102W        W10155  14.484   9.603   9.313  0.4154  0.1586 -0.1327
67103W        W10156  33.707   0.006  14.533  0.1055  0.0401  0.0706
67104W        W10157  33.045  18.970   8.337  0.1980  0.1794 -0.0465
67105W        W10158  27.648   1.899   6.917 -0.0179  0.3027 -0.0285
67106W        W10159  34.291  11.952  23.619  0.0971 -0.0758  0.0510
67107W        W10160   7.985  26.044   4.281 -0.0852  0.0835 -0.0511
67108W        W10161  14.240  11.062   4.694  0.0455 -0.2974  0.0104
67109W        W10162  25.520  27.038  24.250 -0.0322 -0.2613  0.0348
67110W        W10163  22.429  29.395   1.813  0.2372  0.0826 -0.1773
67111W        W10164   2.467  22.843   7.225 -0.0225  0.3457  0.2313
67112W        W10165   2.690   1.797   9.174 -0.0996  0.1254  0.1012
67113W        W10166  16.115  32.116   8.102  0.4372 -0.0335 -0.4775
67114W        W10167  21.432  32.631   0.533 -0.1028 -0.1038  0.2173
67115W        W10168  14.866  10.264   8.786 -0.0059  0.1343 -0.2141
67116W        W10169  11.324  32.353   0.746  0.0911 -0.1218 -0.1514
67117W        W10170  23.908   8.072   6.529  0.1321 -0.2487  0.3402
67118W        W10171  25.772  32.560  25.921 -0.0566 -0.0373  0.1274
67119W        W10172  11.973  13.124   0.339 -0.2112 -0.0394  0.2676
67120W        W10173  31.369  22.878   6.244  0.1388 -0.1907 -0.3343
67121W        W10174   7.265   8.651  10.168  0.0857  0.4905 -0.0923
67122W        W10175  15.387   4.123   9.887 -0.2317 -0.0524  0.1517
67123W        W10176   6.027   3.485   0.266 -0.1643 -0.0766 -0.1541
67124W        W10177  11.002  33.617   2.032  0.1271  0.1000 -0.4680
67125W        W10178  10.995  28.604   7.356  0.3423 -0.0424  0.0112
67126W        W10179  26.332  32.467   3.663 -0.1145  0.0166  0.2909
67127W        W10180  17.989  29.851  22.074 -0.0594  0.0964 -0.0872
67128W        W10181  34.157  24.048   7.241  0.1115 -0.0697  0.0124
67129W        W10182   9.181   5.762  11.062 -0.0908 -0.1640  0.1701
67130W        W10183  23.873   9.711   6.055  0.4192  0.2332  0.2182
67131W        W10184   5.841   7.382   3.051 -0.1946 -0.0130 -0.1709
67132W        W10185   2.809   5.310   5.445 -0.0076 -0.0158  0.1509
67133W        W10186   0.301  27.588   7.186 -0.0733  0.2965  0.2446
67134W        W10187   2.056  10.589   5.254 -0.1307  0.0396  0.1266
67135W        W10188   8.863  17.912   6.767  0.0390  0.2144 -0.1731
67136W        W10189  30.619   8.998  28.884 -0.0449 -0.1471  0.0840
67137W        W10190  24.817   6.807   5.476 -0.3594  0.1644 -0.1083
67138W        W10191   4.962  23.727   2.339  0.3318  0.2421  0.2855
67139W        W10192   1.865  30.595   1.368  0.1243  0.0510 -0.1299
67140W        W10193  33.890   2.752   2.971 -0.1646 -0.0872  0.0410
67141W        W10194  13.905   2.636   3.719 -0.2694  0.0799 -0.1009
67142W        W10195  20.054  29.026   6.572  0.1763  0.1371 -0.1299
67143W        W10196  10.619   1.271   9.068  0.1521 -0.1342  0.1643
67144W        W10197  10.054  29.878   3.149  0.1543 -0.0424 -0.2118
67145W        W10198  25.095  29.211   7.842  0.0047 -0.2652 -0.0505
67146W        W10199   7.292  23.588  26.017 -0.3140 -0.1901  0.2581
67147W        W10200  14.539  15.902   4.641  0.1623  0.0061  0.0123
67148W        W10201   0.648   1.729  20.219  0.1367 -0.0222  0.3512
67149W        W10202   0.009  19.571   4.119 -0.1563  0.0818 -0.3416
67150W        W10203  13.705  22.607  29.179  0.1116  0.0182  0.0781
67151W        W10204   8.731   8.850   7.408 -0.0164 -0.1301  0.1116
67152W        W10205  30.829   2.340   5.493  0.0973  0.2567 -0.0492
67153W        W10206  20.818  26.448  28.876 -0.1373  0.1026  0.1432
67154W        W10207  31.774  29.327   4.325 -0.0961 -0.0578  0.0414
67155W        W10208   9.084   4.705   2.005  0.3036  0.3242  0.0879
67156W        W10209  15.322   0.969  25.546  0.2882  0.2788  0.0225
67157W        W10210   5.922   6.157  25.254 -0.1598  0.1076 -0.1881
67158W        W10211   7.295   0.326  26.759 -0.0088  0.2621  0.0108
67159W        W10212   2.525   9.127  24.277 -0.1299 -0.0273  0.0594
67160W        W10213   3.604  12.553   4.882 -0.2415  0.2997 -0.0153
67161W        W10214   1.423   7.023   4.927  0.0039 -0.1510  0.1844
67162W        W10215  34.504  27.274   8.268  0.0280 -0.2217  0.2691
67163W        W10216   6.568  31.115   3.049  0.2081  0.0840 -0.2893
67164W        W10217  32.681  17.616   9.323  0.1716 -0.1885 -0.0583
67165W        W10218   0.689  34.285   6.751 -0.2870  0.3354 -0.0141
67166W        W10219  30.382  24.043   3.778  0.2104 -0.2932 -0.2690
67167W        W10220  24.500  21.334  28.000 -0.2063 -0.0549 -0.1230
67168W        W10221  29.124   2.132  24.370 -0.2728  0.1323  0.0284
67169W        W10222  12.212  25.330  24.834  0.2189  0.0057  0.0013
67170W        W10223   9.040  15.321   4.952 -0.3843 -0.0049 -0.1120
67171W        W10224   6.811   4.467  26.647  0.3881 -0.0001 -0.1440
67172W        W10225   8.250   6.315  10.044  0.3775 -0.0715 -0.0516
67173W        W10226   5.503   4.495   1.951 -0.0360 -0.1558 -0.2565
67174W        W10227  13.311   9.908   6.975 -0.1769  0.3616 -0.2000
67175W        W10228   6.007   6.817   1.277  0.3303  0.0444  0.1453
67176W        W10229   1.130  15.310  19.631 -0.1687 -0.3119 -0.3718
67177W        W10230  16.938   4.337   0.732  0.2155 -0.1044  0.5014
67178W        W10231  33.604  11.356   1.830  0.1250 -0.0428 -0.0912
67179W        W10232  28.751  25.907  19.371 -0.0276  0.0657  0.3104
67180W        W10233  18.357  32.668   3.651  0.0345 -0.1226  0.1637
67181W        W10234  32.228  32.443  27.649  0.1431  0.1223 -0.0299
67182W        W10235  28.929   6.656   8.401  0.0655  0.0118 -0.0770
67183W        W10236   4.328  30.663  23.475  0.0001 -0.2376  0.1374
67184W        W10237   3.488  13.768   5.094  0.1312 -0.1340 -0.2804
67185W        W10238  12.191  32.800   4.368 -0.2799  0.3197  0.1881
67186W        W10239   7.771  31.634  18.999  0.0029 -0.1455  0.1338
67187W        W10240  16.575   7.671  24.390  0.0216 -0.0969  0.0935
67188W        W10241   2.873   0.314   0.210 -0.2463  0.3320 -0.0979
67189W        W10242  10.790  32.901   1.332  0.0793  0.0813  0.0264
67190W        W10243   0.314  16.610   5.096  0.1968 -0.1077 -0.0108
67191W        W10244  25.695  12.995   1.051  0.0781  0.0066  0.3079
67192W        W10245  26.379   6.028   4.630 -0.0898  0.1407 -0.0640
67193W        W10246   4.572   4.095   9.494  0.1478  0.0298  0.0380
67194W        W10247  32.441  18.755  29.189 -0.0338 -0.1335  0.2510
67195W        W10248   5.624  29.927   8.743  0.2680  0.0071 -0.1842
67196W        W10249   6.726  34.176  18.015 -0.1401 -0.4420 -0.0458
67197W        W10250   6.213  19.332  27.436  0.3977 -0.3835  0.1299
67198W        W10251   0.839  16.155   0.567 -0.3692 -0.0431  0.3480
67199W        W10252   8.671  20.442   0.332  0.0468  0.3469 -0.0219
67200W        W10253  26.382  32.577   6.184 -0.1899  0.1024  0.2424
67201W        W10254  17.656   5.024   4.480 -0.1943  0.1332  0.0056
67202W        W10255  32.421  32.696   8.075 -0.0835 -0.0721  0.1131
67203W        W10256   9.130   0.534   2.880 -0.1412 -0.0808 -0.1664
67204W        W10257   2.718  10.960  10.305  0.1287 -0.0502 -0.0933
67205W        W10258  19.991  32.990   1.168  0.0184  0.1724  0.0962
67206W        W10259  20.426  29.476   2.016 -0.2995  0.1084  0.4229
67207W        W10260   7.377  12.287  23.946 -0.0487 -0.0529  0.1426
67208W        W10261  10.105  10.777  10.561 -0.0875 -0.0554 -0.1695
67209W        W10262   8.360  23.829  14.833 -0.2736 -0.0088  0.4326
67210W        W10263  33.186  19.620   0.203 -0.0952  0.0252  0.0012
67211W        W10264   5.539  14.148   0.970 -0.1073  0.1499  0.0713
67212W        W10265  21.338   8.943  16.521  0.1390  0.0287 -0.0142
67213W        W10266   4.698   7.695  20.024  0.1061 -0.0753  0.0385
67214W        W10267  12.773   7.041   0.437 -0.0232  0.1940  0.0567
67215W        W10268  13.018  33.826   7.766  0.1739 -0.0930  0.1261
67216W        W10269   7.961  13.262  27.768  0.1224 -0.3136  0.2915
67217W        W10270   5.430   6.791  24.618 -0.0679 -0.2808  0.3169
67218W        W10271   1.621  25.273   3.559 -0.0299 -0.1716 -0.1193
67219W        W10272  15.252  20.638   3.182  0.0219 -0.0215  0.1079
67220W        W10273   5.838   8.392  23.249 -0.0681  0.2570 -0.1166
67221W        W10274  28.889  29.078   5.869 -0.0449 -0.0689 -0.1468
67222W        W10275  24.513  26.002   9.079  0.2037  0.3178 -0.2350
67223W        W10276   4.975  15.103  22.567  0.0288 -0.0627  0.0514
67224W        W10277   7.200   8.010   2.393 -0.0640 -0.1207  0.1969
67225W        W10278  31.151  13.023  26.605 -0.2366  0.2400 -0.2300
67226W        W10279   3.246   9.257  21.509  0.0526 -0.1963 -0.1055
67227W        W10280  27.790  11.920  27.775  0.0471  0.0096  0.3238
67228W        W10281   7.115  30.060   0.710  0.0347  0.0013  0.0996
67229W        W10282   6.565   5.184   5.996  0.0771  0.1868  0.2364
67230W        W10283  10.075   4.785   7.333  0.1574 -0.0744  0.0109
67231W        W10284  24.549   1.516   1.977 -0.3219 -0.0418 -0.0112
67232W        W10285  10.355  31.008  27.447  0.1129  0.0513  0.1861
67233W        W10286  18.221   0.737   3.268  0.0277  0.1388  0.1258
67234W        W10287   8.788   6.250   6.357  0.0005 -0.0329  0.5086
67235W        W10288  13.099   3.674   0.488  0.2140  0.1366  0.3299
67236W        W10289   5.472  30.545   5.795  0.3803  0.0827  0.1588
67237W        W10290  15.849  32.079   1.251  0.2384 -0.0214 -0.2531
67238W        W10291  22.754  28.378  25.637  0.3064 -0.0236 -0.3697
67239W        W10292  29.644  10.538  20.073 -0.1465  0.1618 -0.2889
67240W        W10293  10.499   1.493  14.158  0.0648 -0.0525  0.0942
67241W        W10294  10.063  11.320  10.578  0.1577 -0.0433 -0.4556
67242W        W10295  27.415   0.416   4.235  0.1325 -0.0136  0.0689
67243W        W10296   6.641  21.554  17.953 -0.0145  0.0281 -0.0781
67244W        W10297   0.956   8.079   8.052  0.0407  0.0962  0.0425
67245W        W10298   0.838   7.749   8.957  0.2950 -0.0971  0.0505
67246W        W10299  12.869  24.243   3.769  0.1296  0.0922 -0.1346
67247W        W10300  32.699   4.533  16.843  0.0082 -0.2908 -0.0278
67248W        W10301   2.127  13.661  24.893 -0.3652  0.2178 -0.3330
67249W        W10302  16.458   7.979   8.740 -0.0932 -0.0046 -0.1141
67250W        W10303  25.142   1.424   7.694  0.1697 -0.0964  0.1705
67251W        W10304  14.140   0.054   1.050 -0.2600 -0.1866  0.0911
67252W        W10305  27.759  29.436  27.321 -0.0796  0.0609  0.2098
67253W        W10306  17.334  30.987   2.993 -0.2944 -0.3126  0.1432
67254W        W10307   4.275  27.765   4.591 -0.2789 -0.2269  0.0066
67255W        W10308  28.707   3.872   6.196 -0.1965 -0.1010  0.0529
67256W        W10309   4.941  26.952   7.613 -0.1401 -0.0809 -0.1908
67257W        W10310   8.720  23.355   6.694 -0.2920  0.1498  0.2280
67258W        W10311  10.807  14.812   8.082 -0.0368 -0.0380  0.0679
67259W        W10312  32.937   8.370  28.280 -0.0066 -0.0044 -0.2713
67260W        W10313  32.696   0.007   5.590 -0.2298 -0.2311 -0.0888
67261W        W10314  15.531  31.836   5.943 -0.1359 -0.0003 -0.0582
67262W        W10315  30.347   9.292   2.166 -0.0234  0.0161  0.0023
67263W        W10316  16.378  23.582   0.534  0.1792 -0.2017  0.0631
67264W        W10317  23.122   5.114   8.464 -0.3372  0.3303  0.1949
67265W        W10318   8.192  27.757  22.946  0.2788  0.1652 -0.1307
67266W        W10319   4.415   8.896  22.968  0.0689 -0.0606  0.0140
67267W        W10320  14.363   5.644   8.309 -0.0692 -0.1581  0.0773
67268W        W10321  30.796   8.880  24.899 -0.2710  0.4277 -0.0286
67269W        W10322   3.931  31.996   8.218 -0.0846  0.3248 -0.1103
67270W        W10323   0.649   7.339   7.732  0.1375  0.1734  0.0354
67271W        W10324  21.724   2.605  28.739 -0.0363  0.1470 -0.0977
67272W        W10325   5.459  10.526   4.155  0.1169  0.0053 -0.2699
67273W        W10326  15.191  11.516   7.061  0.1864 -0.0867  0.0060
67274W        W10327  14.490   5.429  17.189  0.1143 -0.1708 -0.0109
67275W        W10328  21.825   2.101  23.154 -0.0620  0.0254 -0.0404
67276W        W10329   3.166   3.433   7.885  0.2591 -0.1667  0.1500
67277W        W10330  21.888  11.340  25.548 -0.0771  0.0174  0.2880
67278W        W10331  13.358   2.018   4.717 -0.1059 -0.0915 -0.0953
67279W        W10332  10.191  11.479   9.797 -0.0801  0.1513 -0.0555
67280W        W10333  29.610  22.737   2.217 -0.1653  0.0102 -0.1602
67281W        W10334  15.593  21.060   3.245 -0.1490  0.1596  0.2478
67282W        W10335  34.567   9.644   3.182 -0.1649  0.0150 -0.0127
67283W        W10336  32.760   3.579   2.540  0.2474  0.0370 -0.1823
67284W        W10337   3.457  12.961   9.474  0.0540  0.0132  0.0679
67285W        W10338  31.677   0.120  10.080 -0.2573  0.1318 -0.1982
67286W        W10339   6.003  16.507   3.328 -0.0574 -0.2063 -0.2031
67287W        W10340  28.532   8.188   6.524 -0.0708 -0.1933 -0.2106
67288W        W10341  10.326   5.803  22.310  0.2311  0.3668  0.0384
67289W        W10342   9.084   9.509  20.283  0.1132  0.0643  0.2741
67290W        W10343  26.979  13.280  15.776  0.1097  0.0126  0.0264
67291W        W10344  15.560   9.426   3.925 -0.0770  0.1055 -0.1732
67292W        W10345  33.805   5.507   9.754  0.0562 -0.2182  0.2508
67293W        W10346  25.115   6.583   4.604 -0.2167  0.1420  0.0339
67294W        W10347   2.418  15.217  17.788 -0.0390  0.2834  0.0045
67295W        W10348  29.678  15.091   5.166  0.0767  0.0691 -0.0090
67296W        W10349  13.780  12.341   6.139 -0.0019  0.1484  0.2607
67297W        W10350  11.254   2.710   1.086 -0.1414  0.0846 -0.1676
67298W        W10351  23.532   0.470   7.896  0.0798  0.0792 -0.0140
67299W        W10352   1.820  32.524  27.665  0.0521  0.0971 -0.1830
67300W        W10353  22.418   0.007  25.483  0.2498 -0.1401 -0.0868
67301W        W10354  21.402   9.053  27.756 -0.0089  0.1406  0.4019
67302W        W10355   5.489  33.613   9.504  0.1689  0.2854 -0.4749
67303W        W10356  34.292  31.505   0.369  0.2121  0.2276  0.2389
67304W        W10357  33.998   2.248   5.738  0.1574 -0.0779 -0.2188
67305W        W10358   8.237  10.767   3.252  0.0449 -0.2133  0.1354
67306W        W10359   6.228   8.608  27.546 -0.1222 -0.1733  0.3560
67307W        W10360   5.409  30.483  24.982 -0.2582 -0.1588  0.1374
67308W        W10361   3.629   8.928  28.183 -0.0714  0.2287  0.2452
67309W        W10362   5.867  22.840   2.955  0.1833  0.1521 -0.3294
67310W        W10363  18.891   2.573   3.215  0.1344 -0.0600  0.1572
67311W        W10364  27.901   0.010   6.370  0.1927  0.1730  0.1322
67312W        W10365  25.657   7.476  23.282  0.2943  0.0206  0.1977
67313W        W10366  24.202   2.927  23.426 -0.1846  0.3724 -0.0513
67314W        W10367  32.826  12.960   8.948  0.0086  0.1172 -0.1606
67315W        W10368  14.945   2.538   4.111 -0.0663  0.0087  0.0520
67316W        W10369  19.133  11.505   6.642 -0.0221  0.0065  0.3306
67317W        W10370  12.339  33.421   8.627  0.2900 -0.1630 -0.0447
67318W        W10371   6.852   3.017  27.605  0.1959 -0.1396 -0.3025
67319W        W10372  13.056   8.901   0.114  0.0249 -0.0910 -0.1395
67320W        W10373   3.732   0.576   4.883  0.1172  0.2737  0.1003
67321W        W10374   1.537   1.228   8.313 -0.0727 -0.1441 -0.0870
67322W        W10375  31.163  11.805  26.055 -0.0313  0.2428  0.2054
67323W        W10376  30.414   9.556   5.534  0.2022  0.3293  0.0462
67324W        W10377  11.671  10.978   5.784  0.0613 -0.1008  0.2373
67325W        W10378   9.071  14.421  19.482 -0.0004 -0.0212 -0.0613
67326W        W10379   4.679   8.165   6.104 -0.2536 -0.3760  0.0933
67327W        W10380  10.973   3.437   7.704  0.2390 -0.2098 -0.0686
67328W        W10381   8.748   5.326  17.607  0.1170 -0.2282 -0.1718
67329W        W10382  10.447  14.649  26.314 -0.4710  0.0792  0.0127
67330W        W10383  10.552   5.725   1.277  0.0490  0.1178 -0.2903
67331W        W10384  28.606  15.074   5.470  0.1984  0.1076 -0.0128
67332W        W10385   7.509  27.603  25.427 -0.0785  0.1845  0.0552
67333W        W10386  25.041  21.302   8.959  0.1384 -0.0590  0.0381
67334W        W10387  21.364  10.994  21.467 -0.0745  0.2412 -0.1771
67335W        W10388  10.614  30.743   3.309  0.1556  0.1117 -0.0758
67336W        W10389  20.668   8.370   3.664  0.1629  0.1482 -0.0954
67337W        W10390  29.533  30.365   7.137  0.1087 -0.4106  0.1461
67338W        W10391  29.275  20.871   3.994 -0.1108  0.1286  0.1034
67339W        W10392  10.896   4.010   4.020  0.1081  0.0928 -0.1938
67340W        W10393  30.072  14.622  22.752 -0.0138  0.1912  0.1313
67341W        W10394  29.806   1.904   4.107  0.1668  0.0857  0.0673
67342W        W10395   7.113  33.676  28.945 -0.2298 -0.1300  0.3248
67343W        W10396   5.056   7.205   9.309  0.3511  0.2006 -0.3258
67344W        W10397   1.706  32.049  25.201  0.0290 -0.2492 -0.3390
67345W        W10398  31.807  27.159   9.359  0.5009  0.1284 -0.1193
67346W        W10399  31.038  29.727  18.669  0.2014  0.0541 -0.0252
67347W        W10400  26.746  16.283  25.439 -0.0060 -0.1778  0.0192
67348W        W10401  12.427  21.368  15.836 -0.1534  0.3944 -0.1650
67349W        W10402  13.092   6.503   6.690  0.0746  0.0846 -0.0455
67350W        W10403   9.795  33.152  29.113  0.1543 -0.0528  0.0928
67351W        W10404   0.624  14.020   5.793  0.0051  0.0636  0.1445
67352W        W10405  15.004  27.201   8.847  0.0078 -0.0870 -0.0655
67353W        W10406  12.512   3.282   2.579  0.0371  0.0490 -0.2644
67354W        W10407   8.374  34.010   9.167 -0.1498 -0.0664  0.0246
67355W        W10408  33.032   7.632  25.155  0.1130  0.1282  0.0134
67356W        W10409  10.034  12.498   9.034  0.2414  0.1587 -0.0278
67357W        W10410   1.684  30.591  26.324 -0.0596 -0.1724  0.2528
67358W        W10411   2.229   4.528  27.752  0.3809  0.0899 -0.0469
67359W        W10412  17.604   3.599   4.837  0.0993  0.1084 -0.2543
67360W        W10413   8.686   8.650  15.191  0.0986 -0.1202 -0.3521
67361W        W10414   5.080   8.001   4.413 -0.1062  0.0126 -0.0462
67362W        W10415  30.347  18.707  28.162 -0.0032 -0.2484 -0.0789
67363W        W10416  16.797  13.256   8.900  0.0031  0.4385 -0.0116
67364W        W10417  10.213   2.347   2.277  0.2602  0.2150  0.1521
67365W        W10418  31.531   9.771   6.967  0.1871  0.1051  0.2008
67366W        W10419  32.879  25.324  26.309  0.1816 -0.1906  0.0944
67367W        W10420   9.375  11.236  20.089 -0.0521 -0.0722 -0.4183
67368W        W10421   3.100  17.879  19.618 -0.0349  0.2047  0.3131
67369W        W10422  15.546   9.542   6.167  0.0720  0.0085 -0.2951
67370W        W10423   0.876  23.300   4.087  0.0981  0.1586  0.2867
67371W        W10424  24.069   5.939  19.240 -0.1910  0.0141 -0.1288
67372W        W10425  16.287  33.022   0.796 -0.3981 -0.0648 -0.0750
67373W        W10426   3.164   8.697   9.065  0.0133 -0.3704 -0.0923
67374W        W10427  20.399   2.798   2.380  0.2922  0.2002  0.0472
67375W        W10428  27.816  10.533  25.905 -0.1375  0.3311 -0.1100
67376W        W10429   1.125  19.684   9.783  0.0164 -0.0516 -0.1630
67377W        W10430   4.766  32.912   6.720  0.1663  0.0902 -0.0128
67378W        W10431  33.323   7.888   3.892  0.3173  0.0350  0.2287
67379W        W10432  26.834  10.684  10.605 -0.1293  0.3863 -0.1487
67380W        W10433  26.137  30.726   3.083  0.0272 -0.2396  0.0746
67381W        W10434   3.202   6.026   4.436 -0.2948  0.0174  0.0665
67382W        W10435  31.290  28.273  26.378  0.1572 -0.1513  0.1162
67383W        W10436  32.400  23.790  23.065  0.0406  0.0087 -0.0086
67384W        W10437  33.317   6.710   5.180  0.1531  0.2906  0.0339
67385W        W10438  16.348   9.161   4.167  0.3916  0.0203  0.0034
67386W        W10439   1.595  26.617   5.416  0.1926 -0.2156  0.1628
67387W        W10440   3.637   8.956   7.159  0.1691 -0.1532 -0.0917
67388W        W10441  30.030  21.967  27.233 -0.4080  0.1045  0.2184
67389W        W10442   2.827  24.155   4.610  0.1256 -0.2239  0.2691
67390W        W10443   8.676  26.771  17.309 -0.0297 -0.0414  0.2619
67391W        W10444  33.091  11.837   4.060  0.0027  0.0001 -0.0728
67392W        W10445   5.824   6.811   3.894 -0.1099 -0.0542 -0.0514
67393W        W10446  30.397   1.667  10.257 -0.4105  0.0997  0.2213
67394W        W10447  33.025  14.084   0.499  0.1462  0.1320  0.0213
67395W        W10448  17.817  25.928  28.707  0.0058  0.2355  0.1227
67396W        W10449  29.507   1.167   1.746  0.0427 -0.0185 -0.1420
67397W        W10450   0.232  14.042  27.211  0.0209  0.1143  0.2291
67398W        W10451   4.766   8.650   9.687 -0.3220  0.0195 -0.1173
67399W        W10452  13.732  22.003  15.225 -0.2408 -0.1638 -0.3071
67400W        W10453  13.353  14.293  10.421  0.3897  0.3501 -0.0778
67401W        W10454   4.524  19.902  17.880  0.2459 -0.1289  0.1227
67402W        W10455  28.447  21.774   5.458 -0.1761 -0.1204  0.0849
67403W        W10456  28.622  16.996   9.116  0.0033 -0.2517  0.0687
67404W        W10457  29.128   5.277   9.796 -0.1392 -0.0359 -0.1715
67405W        W10458  21.336   3.947   2.603  0.1586 -0.1524 -0.3050
67406W        W10459   4.091   6.477   0.674  0.4638 -0.3100 -0.2019
67407W        W10460   9.917  32.179   0.518  0.0403  0.2223 -0.0812
67408W        W10461  15.059   2.096  19.264 -0.1885  0.0844  0.1144
67409W        W10462  10.504  23.770   9.179 -0.1957 -0.0767 -0.0413
67410W        W10463   9.235  26.440   3.215 -0.0198  0.1791 -0.2295
67411W        W10464   8.336  31.074   2.879 -0.2871  0.1536 -0.1936
67412W        W10465   3.172   2.130   4.720  0.0947 -0.0894  0.1028
67413W        W10466  28.790  31.195  26.415 -0.0724 -0.3425 -0.0196
67414W        W10467   3.166  34.353  20.682  0.4367  0.3228  0.0806
67415W        W10468   8.294  34.235   7.589 -0.0314  0.0025 -0.1748
67416W        W10469  33.215   1.213   8.675  0.0142 -0.2141  0.0126
67417W        W10470  20.788   2.903   9.513  0.0340 -0.1274 -0.0039
67418W        W10471  12.318  32.626   0.266 -0.2182 -0.2703 -0.0639
67419W        W10472  10.726  31.081   7.023 -0.1056  0.1088  0.0435
67420W        W10473  29.100  34.488   9.064 -0.2912  0.0141 -0.0587
67421W        W10474   1.257   7.203  10.636 -0.1418  0.1469 -0.3593
67422W        W10475  19.878  15.606   2.039  0.0008  0.1546 -0.0967
67423W        W10476  26.848   3.556   7.102  0.1320  0.3241  0.1728
67424W        W10477  29.806  14.609  24.210  0.1437 -0.1177 -0.0759
67425W        W10478   9.663   7.698   0.057  0.1158  0.1950  0.0288
67426W        W10479   1.663  26.853  27.273  0.3641  0.0473 -0.3591
67427W        W10480  21.433  12.009   6.370 -0.0010  0.1693 -0.2133
67428W        W10481   3.762  16.692  16.617 -0.1540  0.1702  0.0674
67429W        W10482  12.207   5.698  15.647  0.0006  0.1552 -0.3038
67430W        W10483   2.072  33.229  24.762 -0.1401  0.1250 -0.0549
67431W        W10484   0.796  17.370   4.631  0.0730 -0.2108 -0.0066
67432W        W10485  12.985  13.911  28.628 -0.3515  0.0124  0.0521
67433W        W10486   1.488  31.804  20.751  0.0967  0.1328 -0.0522
67434W        W10487   0.651   3.405  27.151  0.1270 -0.0146 -0.1285
67435W        W10488  14.991   7.714   3.765 -0.0773 -0.1237  0.0243
67436W        W10489  31.625   3.890   1.757  0.3565 -0.0397 -0.1359
67437W        W10490  33.341  29.010  14.983  0.1929  0.2387 -0.3281
67438W        W10491  23.396  24.600   8.388 -0.3197  0.2142 -0.1486
67439W        W10492   9.791  23.161   4.553  0.0574  0.1722  0.0116
67440W        W10493   7.160   1.576   5.451 -0.2017 -0.0168  0.2450
67441W        W10494   5.575  31.209   1.920 -0.0245  0.1472  0.0603
67442W        W10495  12.013   6.960   5.355  0.2442 -0.0298  0.2036
67443W        W10496  18.098   6.072   3.615 -0.1400 -0.1838  0.3758
67444W        W10497   1.949  24.843   3.608  0.3124  0.1235 -0.2190
67445W        W10498  23.803   7.149  22.999 -0.0140  0.1946  0.1253
67446W        W10499  13.438  21.566  16.805 -0.0830 -0.1626 -0.3444
67447W        W10500  15.657   4.964  10.652  0.0066  0.0424 -0.0807
67448W        W10501   9.180   8.197   2.794  0.0013  0.1228 -0.0647
67449W        W10502   1.142   8.137   5.487  0.1317 -0.0731 -0.1832
67450W        W10503  24.076   6.392  27.319 -0.2007  0.0275 -0.1994
67451W        W10504   2.764  32.769  21.276 -0.1985  0.0903 -0.0475
67452W        W10505  21.011  31.939  23.030 -0.1812  0.0788  0.1166
67453W        W10506  15.215  18.201  29.170  0.2144 -0.0320 -0.1136
67454W        W10507   0.340  12.468   9.833  0.0963 -0.2360 -0.1228
67455W        W10508  30.440  15.549  24.644  0.0186 -0.0443 -0.1560
67456W        W10509   1.112   5.374   1.258  0.0953  0.1264 -0.0622
67457W        W10510   5.285   8.407   5.351 -0.0117 -0.0995 -0.0034
67458W        W10511   0.844   2.315  22.024  0.1283 -0.1952  0.1695
67459W        W10512  32.882  29.913  14.401  0.0287 -0.1710 -0.0457
67460W        W10513  34.664  13.329   6.951  0.2067  0.1027  0.1373
67461W        W10514   0.225   3.775  18.679  0.2712  0.0363 -0.1454
67462W        W10515  32.257  13.154   9.760  0.2580  0.3979 -0.2372
67463W        W10516   6.416  28.107   8.809  0.2386  0.0461  0.2416
67464W        W10517   4.580  30.702  22.974  0.0801 -0.2811 -0.5333
67465W        W10518   1.971  32.192   8.062 -0.1712 -0.1225 -0.0838
67466W        W10519  19.701   4.558   7.993  0.3149 -0.2668 -0.0692
67467W        W10520  10.188  26.640   6.523 -0.0294  0.1595  0.4700
67468W        W10521  10.330   1.963  20.582 -0.1805  0.3019 -0.2681
67469W        W10522   8.769  26.765  25.860 -0.1018 -0.1082  0.1840
67470W        W10523  28.391  20.208   6.160  0.1977 -0.0458 -0.0484
67471W        W10524  23.982   8.100   7.391 -0.1754  0.0667  0.0358
67472W        W10525  32.536  12.970  10.675 -0.0469 -0.0308 -0.0963
67473W        W10526   0.697  12.285  15.335  0.0551 -0.0968  0.1035
67474W        W10527   7.391  19.867   0.286  0.4506  0.0174  0.1350
67475W        W10528   9.769   7.658   2.364  0.0420 -0.1630 -0.3235
67476W        W10529  18.201  33.423   5.426  0.2310 -0.1722  0.1162
67477W        W10530  22.944  11.522   0.339  0.0689 -0.3421 -0.0568
67478W        W10531  16.081  10.322   3.604  0.0844  0.1550 -0.0878
67479W        W10532  11.205  30.967   7.292 -0.0379 -0.2451  0.2102
67480W        W10533  11.493   7.614  26.485 -0.0213  0.1859  0.0821
67481W        W10534  31.871   6.911  26.776  0.1154 -0.0209  0.1756
67482W        W10535   6.863   4.891   9.045  0.3378  0.0413 -0.0684
67483W        W10536  19.749   8.572  23.796  0.0039  0.1071  0.1551
67484W        W10537  13.181  14.186   7.851 -0.0506  0.1076  0.0251
67485W        W10538  29.452  11.013   8.165  0.3249  0.6037  0.0418
67486W        W10539  17.038   3.387   5.772  0.1927 -0.0399 -0.2572
67487W        W10540   5.280  28.570  20.040  0.0578  0.2047  0.0293
67488W        W10541  11.268  32.338  10.681 -0.3013  0.1125  0.0667
67489W        W10542  31.122   5.195  29.067 -0.0702  0.0410  0.2103
67490W        W10543  13.630   3.074   3.486 -0.1883 -0.1388  0.1342
67491W        W10544   6.489  16.937  15.594 -0.1753 -0.1212 -0.0661
67492W        W10545   6.788  12.959  24.194 -0.0014  0.1029 -0.1256
67493W        W10546  10.736  10.446   9.352  0.0148 -0.2056  0.0595
67494W        W10547  20.396  32.550  22.233 -0.0691  0.1031  0.3813
67495W        W10548   5.364  34.068   0.843  0.1163 -0.2422 -0.3944
67496W        W10549  15.880  32.934  27.308 -0.2811  0.0391 -0.0233
67497W        W10550  12.533   1.776  22.263  0.2377  0.0253  0.4833
67498W        W10551  18.160  27.543  24.055  0.2450  0.0656 -0.2936
67499W        W10552  11.460   3.045   5.473  0.0796 -0.0851 -0.1740
67500W        W10553  32.007   7.878  17.090 -0.0378 -0.1754  0.0480
67501W        W10554   5.810  10.049  27.379  0.0083  0.1736  0.1820
67502W        W10555  34.310  20.309   5.909 -0.0676 -0.0191  0.1599
67503W        W10556  14.381   6.766   1.283 -0.3009 -0.0319  0.0558
67504W        W10557   4.773   8.434   4.666 -0.0831  0.0432 -0.1029
67505W        W10558  26.004   3.138   9.375  0.1973  0.0376  0.3119
67506W        W10559   1.713  14.565  19.865 -0.1083 -0.2027 -0.1445
67507W        W10560   4.270   3.696  23.193  0.3931  0.0585 -0.1629
67508W        W10561   9.614  29.058   0.610  0.0474 -0.3116 -0.1464
67509W        W10562   8.686  10.376  16.311 -0.0883 -0.0270  0.0251
67510W        W10563  13.346   5.569  26.790  0.1471 -0.1654 -0.3609
67511W        W10564   4.260  26.239  19.599 -0.0271  0.1586  0.0101
67512W        W10565  15.272   7.122  27.448 -0.0456  0.1885  0.0417
67513W        W10566   6.677  33.502  19.073  0.1848  0.0685 -0.3358
67514W        W10567  10.209   1.587   3.730 -0.4864 -0.0125  0.2602
67515W        W10568  12.975  12.624   7.267 -0.0208  0.1575  0.0317
67516W        W10569   4.472  19.963  23.868  0.2436  0.1156  0.3040
67517W        W10570  13.819   1.454   9.957  0.0829  0.1424  0.1091
67518W        W10571  32.199  26.225   4.490  0.1925 -0.2131  0.3283
67519W        W10572  27.210  25.451  25.607 -0.1564  0.2289 -0.0871
67520W        W10573   3.936  10.981  10.571  0.1051  0.1408 -0.0234
67521W        W10574  32.035   1.254   7.799 -0.0916  0.1722 -0.0615
67522W        W10575   7.915   4.905  27.178 -0.1525  0.1523 -0.1864
67523W        W10576   1.566   5.654  26.267 -0.0943 -0.4081  0.3915
67524W        W10577  34.408   4.730  17.895  0.0608 -0.0291 -0.0972
67525W        W10578  25.501  23.698  23.617 -0.1348  0.1895 -0.0474
67526W        W10579  32.513   4.943   7.595  0.0505 -0.0164  0.0050
67527W        W10580  34.146   5.294   2.831  0.0950  0.0920 -0.0231
67528W        W10581  11.216   7.726  27.829 -0.1125  0.1688 -0.3032
67529W        W10582   5.334  26.617   2.114 -0.0081  0.1401  0.0702
67530W        W10583  10.429  27.361   8.700  0.0039 -0.1034 -0.1136
67531W        W10584  10.988  29.305   4.408 -0.0756 -0.0149 -0.0609
67532W        W10585  17.461  27.956   9.703 -0.0005  0.0829  0.1475
67533W        W10586   1.552  32.483   5.141 -0.0527  0.0450 -0.1130
67534W        W10587   5.045  22.410   0.601  0.0212  0.2844  0.2387
67535W        W10588  23.772  32.128  25.071  0.0959  0.0418  0.0455
67536W        W10589   1.787  11.162  17.862  0.1040 -0.3175 -0.1485
67537W        W10590   5.169  25.036  28.481 -0.2646  0.2751 -0.1446
67538W        W10591   7.490   5.991  10.901 -0.1443  0.2257  0.0998
67539W        W10592  30.624  18.292   1.971  0.0861 -0.1727 -0.0661
67540W        W10593  11.666   1.190   0.561 -0.0348 -0.1126  0.0585
67541W        W10594  33.290   6.105  15.269 -0.1499  0.0688  0.0545
67542W        W10595  34.210   4.933   5.407  0.0221  0.4659 -0.1799
67543W        W10596   4.084  19.392   9.116  0.3716  0.2013 -0.1384
67544W        W10597   0.029  20.838  10.403  0.2754 -0.3078  0.0639
67545W        W10598   5.389  18.085   5.802 -0.0605 -0.3876  0.0318
67546W        W10599  23.177  28.802   7.514 -0.0171  0.3885  0.2432
67547W        W10600  31.398   0.268  22.077  0.0042 -0.0887  0.0599
67548W        W10601  14.440  13.501  23.390  0.4763 -0.1335 -0.0791
67549W        W10602  21.430   7.813   1.786 -0.1485 -0.3328 -0.0956
67550W        W10603  25.633  26.552   0.968  0.0004  0.0092 -0.1575
67551W        W10604  33.117   8.525   5.492 -0.1875  0.0374  0.4566
67552W        W10605   4.452   8.156  25.573  0.3953  0.0444  0.0293
67553W        W10606   8.341  14.054   9.010  0.1238 -0.0291  0.1583
67554W        W10607  27.785   3.417   1.588  0.4790  0.1221  0.1357
67555W        W10608   3.893  14.679  25.346 -0.0240 -0.0342 -0.0728
67556W        W10609   9.166  33.501  17.897  0.1032  0.0522 -0.0903
67557W        W10610   4.705  21.877  25.434  0.1907 -0.1109 -0.2130
67558W        W10611  20.950   4.586  26.815  0.1951  0.2894 -0.0286
67559W        W10612  14.751   9.077   6.241 -0.2960  0.1075 -0.0062
67560W        W10613  18.287  20.211   7.382  0.1714  0.2234 -0.0389
67561W        W10614   7.524   3.571   4.759  0.4299 -0.3166  0.1513
67562W        W10615  34.024  29.943   3.048  0.2093  0.1421 -0.0090
67563W        W10616  10.231   8.657  10.217 -0.3235  0.0307  0.1444
67564W        W10617  22.917  14.532   6.665  0.1152  0.0886 -0.2754
67565W        W10618   6.233  19.000  25.852  0.1959 -0.1496  0.0009
67566W        W10619  16.453   9.475  25.232 -0.2671 -0.1374 -0.1343
67567W        W10620  19.013   0.808   9.438 -0.2294  0.2734  0.0225
67568W        W10621   5.316  27.307   4.405 -0.0168 -0.2181  0.0677
67569W        W10622  31.477  28.999  26.945  0.0233 -0.1404  0.0896
67570W        W10623   0.887   2.089   7.350  0.0929  0.1450  0.4157
67571W        W10624   9.099   5.981   7.122 -0.0413  0.2262  0.1261
67572W        W10625   6.783  15.352   1.411 -0.0860  0.1774  0.1123
67573W        W10626   0.342  31.990   3.866 -0.1233 -0.1487  0.1311
67574W        W10627  29.907   0.451   2.124 -0.1430 -0.1144  0.2285
67575W        W10628  32.221   8.927   4.179  0.1909 -0.2479  0.3126
67576W        W10629   4.310  11.928   2.027  0.0612 -0.0453 -0.2096
67577W        W10630  18.596  34.397   7.890 -0.1842  0.2394 -0.1966
67578W        W10631  10.887  26.798  27.521  0.1174 -0.2786  0.1357
67579W        W10632   1.277   7.264  24.130 -0.2737  0.1456  0.0444
67580W        W10633   7.882   0.110   8.138  0.1293 -0.1389  0.0237
67581W        W10634   2.795   2.717   7.709  0.0214  0.1253  0.0203
67582W        W10635  30.408   9.155   0.221  0.1975 -0.1264  0.1287
67583W        W10636   9.907   2.410   9.377 -0.2082  0.0238 -0.3647
67584W        W10637   3.239   2.438   7.601  0.1391  0.1725  0.1303
67585W        W10638  17.829   5.360   5.784  0.1776  0.0518  0.1434
67586W        W10639  27.239  32.032  22.679 -0.0666 -0.1810  0.2456
67587W        W10640   5.770  33.156   4.540 -0.2966 -0.0152 -0.1354
67588W        W10641   7.577  23.297   5.046  0.0104  0.0840 -0.0821
67589W        W10642  24.151  24.943  28.164 -0.0360 -0.0506  0.1579
67590W        W10643   6.882   3.379   5.352 -0.0804  0.3087  0.1226
67591W        W10644  24.516  20.906  23.062 -0.1529 -0.2475  0.2916
67592W        W10645   2.079  31.740  26.627 -0.2303 -0.2623  0.0635
67593W        W10646  14.902   0.804   6.432 -0.0081 -0.1300  0.0836
67594W        W10647  17.474   9.193  18.060  0.0416  0.2070 -0.1971
67595W        W10648   4.776  21.329   0.461  0.0995  0.4157 -0.1661
67596W        W10649   8.307   3.005   8.590  0.0479  0.5031  0.1625
67597W        W10650  12.261  12.159  28.278  0.0620  0.0869  0.1457
67598W        W10651  11.923   5.600   6.079  0.0847  0.0362 -0.0249
67599W        W10652   7.148   4.436  23.499 -0.2179 -0.2139  0.1221
67600W        W10653  28.800   9.492  26.214 -0.1369  0.0977  0.2647
67601W        W10654  27.666  10.470   3.592  0.0521 -0.3911  0.0490
67602W        W10655   3.423   7.411   7.668  0.1633  0.0195 -0.1170
67603W        W10656   2.642   5.912   2.582 -0.0533  0.1009  0.0697
67604W        W10657  14.612   9.853   6.457  0.0632  0.0994  0.1284
67605W        W10658  12.126  10.865  28.411 -0.0309 -0.3748  0.2054
67606W        W10659  32.058  21.342  29.165  0.2328 -0.0414 -0.3929
67607W        W10660  31.148   2.899   6.003  0.0814  0.1293  0.1960
67608W        W10661   8.507  33.643   5.968  0.0439 -0.0091 -0.1567
67609W        W10662  16.505   3.158   7.102 -0.0292  0.1315  0.0806
67610W        W10663   1.264   1.800   3.881  0.0964  0.0029 -0.3857
67611W        W10664  27.120  28.873  24.659 -0.3228 -0.1194  0.1177
67612W        W10665   9.169  13.843  10.447  0.2584 -0.0456 -0.1682
67613W        W10666  12.767  10.217   1.323  0.3549  0.0605 -0.2576
67614W        W10667  10.883  21.730  24.883 -0.0255 -0.1373 -0.0006
67615W        W10668  11.307  18.200   0.379  0.0458  0.3647 -0.4121
67616W        W10669  33.341  26.122   2.621  0.0550  0.1078 -0.2786
67617W        W10670  22.080   1.556   5.960 -0.2537 -0.2976  0.1490
67618W        W10671   0.343   7.620   9.194 -0.0737  0.0058  0.1055
67619W        W10672  32.464  31.212  25.534 -0.1148 -0.0761 -0.1269
67620W        W10673   7.700   8.074   2.476 -0.2127 -0.1178 -0.0172
67621W        W10674  14.419  22.621   0.339 -0.2409  0.2999 -0.0987
67622W        W10675  26.237  12.317   7.133  0.3311 -0.4693 -0.1979
67623W        W10676  12.583   3.538  24.582 -0.2243 -0.0697 -0.1363
67624W        W10677  13.917  34.136  10.310 -0.0699 -0.0150  0.1443
67625W        W10678   8.223  25.827   5.095  0.3137 -0.3869 -0.4701
67626W        W10679   9.394  25.759  26.559  0.4242 -0.0509  0.0317
67627W        W10680   1.253  29.308  28.985 -0.0175  0.1545  0.3956
67628W        W10681  29.503  10.885   7.607 -0.3039 -0.3950  0.1878
67629W        W10682  10.516   3.041   4.973  0.2729 -0.0337 -0.2805
67630W        W10683  29.773   9.703  10.089  0.1172 -0.3269  0.3876
67631W        W10684   5.681  13.931   1.594 -0.0741  0.2278 -0.0169
67632W        W10685  29.556  24.409   1.169  0.1648 -0.0641  0.1169
67633W        W10686  34.244  10.768   0.319 -0.0746 -0.1161 -0.1048
67634W        W10687   7.117  32.629   9.413 -0.0454 -0.0416 -0.1621
67635W        W10688  34.645   8.022   3.148  0.1116  0.0895  0.0899
67636W        W10689  30.069  22.122  27.702 -0.3395 -0.0312  0.1415
67637W        W10690  12.404  23.342   2.139 -0.3159 -0.1878 -0.0960
67638W        W10691   9.117  25.081   1.192 -0.0455 -0.0213  0.2282
67639W        W10692  34.064   3.018  28.397  0.2163 -0.4260 -0.2090
67640W        W10693  34.435   9.067  14.231  0.1390 -0.3126 -0.2964
67641W        W10694  34.275   8.467   6.448 -0.0146  0.3249  0.0483
67642W        W10695  17.177   1.712  24.766 -0.0994 -0.1804 -0.0703
67643W        W10696   4.548  13.524  22.447 -0.1401 -0.0232  0.0993
67644W        W10697  18.276  31.785   2.407 -0.0456  0.2398 -0.2379
67645W        W10698   6.695   7.255   5.350  0.3890 -0.0287 -0.0885
67646W        W10699  20.349  10.664   6.458  0.0723 -0.2425  0.3749
67647W        W10700   4.025  21.988   5.781  0.3861  0.2101 -0.3124
67648W        W10701  15.580  33.345   7.643 -0.0131  0.0158  0.2472
67649W        W10702  26.795  28.463   1.831  0.0445 -0.2378  0.1693
67650W        W10703   9.029  17.071  23.290  0.2486 -0.2387 -0.3784
67651W        W10704  16.525  17.733   1.480  0.2568  0.1725  0.1541
67652W        W10705   4.017   5.141   8.293  0.3788  0.0240  0.1501
67653W        W10706  33.856  11.844   0.238  0.0773  0.2755 -0.1375
67654W        W10707   4.172  16.132  20.304 -0.0302 -0.1623 -0.2652
67655W        W10708  30.987  23.919   7.342 -0.2550 -0.0338  0.0161
67656W        W10709   2.458   1.894   6.363 -0.0863 -0.0981 -0.0058
67657W        W10710   4.225   2.464   2.724 -0.0227  0.1696  0.3458
67658W        W10711  14.755   5.429   8.556  0.4689  0.1442 -0.0749
67659W        W10712  13.254  30.392  29.042  0.0831  0.0414 -0.0046
67660W        W10713  13.017   0.831   1.446  0.2747 -0.0397 -0.2356
67661W        W10714  13.661   7.344  10.642 -0.0629  0.2562 -0.0860
67662W        W10715   0.988  11.547   8.096 -0.1628 -0.0555 -0.3645
67663W        W10716  13.202  32.576  25.930 -0.0559  0.0664 -0.1345
67664W        W10717  33.822  29.831   7.643  0.2597 -0.0529  0.1284
67665W        W10718   4.014   0.069   2.811 -0.0596  0.0627 -0.1938
67666W        W10719  27.460  26.599   6.285 -0.1496 -0.1167 -0.3222
67667W        W10720  11.575  19.674   8.342 -0.1416  0.0320 -0.2688
67668W        W10721  26.397  21.902   0.719 -0.0789  0.3657  0.0605
67669W        W10722   9.065   0.996   2.852  0.3311  0.3073 -0.1295
67670W        W10723   4.716   8.854   9.244  0.1196 -0.2554 -0.2798
67671W        W10724  10.146   6.850   0.168  0.2246  0.0037  0.1137
67672W        W10725   9.383   0.542   6.573  0.3099  0.0528 -0.2342
67673W        W10726  10.353   3.109   2.124  0.1240  0.1853 -0.2660
67674W        W10727  29.606   8.009   1.526  0.0521  0.1025  0.3163
67675W        W10728  17.343  31.778  17.558  0.2119 -0.2468 -0.0659
67676W        W10729  31.915  18.826   1.656  0.0391  0.4655 -0.2096
67677W        W10730  17.222  25.868  27.095 -0.0082  0.0356  0.1446
67678W        W10731  32.121  33.702  24.827 -0.0586 -0.2432  0.2533
67679W        W10732   1.400   9.823  10.400  0.1356 -0.0533  0.4296
67680W        W10733  29.319  15.935   7.216 -0.1147 -0.3455 -0.0134
67681W        W10734  24.408   7.178  25.274 -0.3689 -0.0305  0.0010
67682W        W10735   1.862   7.416   3.115  0.1613  0.1019  0.1751
67683W        W10736   7.732   5.521   1.594  0.1270  0.0669 -0.1121
67684W        W10737  32.172   2.901  27.484  0.3835  0.2249  0.0057
67685W        W10738  22.706   1.007   5.902  0.1476  0.0946  0.0959
67686W        W10739  33.671   1.570   3.278  0.0213 -0.0145  0.1786
67687W        W10740   3.063   7.527   1.288  0.0185 -0.3306  0.1758
67688W        W10741  26.969  11.928  20.160 -0.1696  0.0894 -0.0435
67689W        W10742   1.633  33.218  22.991  0.1945  0.0162  0.1801
67690W        W10743   3.671  34.252   6.661 -0.3246  0.1031 -0.3695
67691W        W10744   9.621  11.640  24.289 -0.2445  0.0842 -0.1625
67692W        W10745  30.277   0.669   8.555 -0.0743 -0.2097  0.1781
67693W        W10746  29.587   1.638   9.871 -0.0444  0.0909 -0.0397
67694W        W10747   0.300  11.295   6.082  0.2265  0.1781 -0.0550
67695W        W10748  31.875   3.419   5.661  0.1341 -0.2252 -0.0565
67696W        W10749  11.380   9.169   3.277  0.4124  0.4810  0.0697
67697W        W10750  15.827   1.907   5.575 -0.0322  0.2372 -0.3251
67698W        W10751   1.622   0.739  23.792 -0.1521  0.0568  0.1614
67699W        W10752   0.502   2.303  25.552  0.4683  0.0373  0.0980
67700W        W10753   6.905  32.895   9.917 -0.1942  0.1649 -0.1081
67701W        W10754  10.095  25.050   6.567  0.1032 -0.2360 -0.0406
67702W        W10755  15.429  28.531   9.000  0.0341  0.1076 -0.1209
67703W        W10756   1.638   4.602   7.097 -0.0025  0.0246 -0.1858
67704W        W10757   0.604  33.658   1.396  0.0565  0.0543 -0.2913
67705W        W10758   8.153  12.929   9.721 -0.0681 -0.3181  0.1966
67706W        W10759   4.306   4.914  16.942  0.4733  0.2529  0.2278
67707W        W10760   7.214  16.921   2.228 -0.3060 -0.0900  0.2009
67708W        W10761  19.388   4.843   6.316  0.0838 -0.0469  0.0562
67709W        W10762  30.571  31.383   3.538  0.2668  0.1764  0.1746
67710W        W10763  22.211  17.323   6.207  0.3321  0.0234 -0.0726
67711W        W10764   8.760   6.805   5.671  0.1458  0.2043  0.1936
67712W        W10765  14.982  11.108   1.697  0.2038 -0.1483 -0.0736
67713W        W10766  15.635   4.028   8.926  0.0749  0.1780 -0.1598
67714W        W10767  20.509   1.313   4.034  0.0081  0.1585 -0.0889
67715W        W10768  31.564  21.927   7.522  0.0619  0.0492  0.0268
67716W        W10769   9.585   0.397   1.173  0.2238 -0.5476 -0.1731
67717W        W10770  32.282   4.372  25.955 -0.0049 -0.1323 -0.2461
67718W        W10771  30.169  18.130   1.639 -0.0327  0.4636  0.0317
67719W        W10772  32.204   9.129   0.192  0.1124 -0.0042  0.0338
67720W        W10773   4.547   9.775  23.115 -0.3646 -0.2800  0.2691
67721W        W10774  11.696   2.164   5.460  0.2310  0.1253 -0.0930
67722W        W10775  29.739  13.123   8.855  0.0282  0.3134  0.1177
67723W        W10776   4.284   0.279   4.218 -0.0948  0.2441 -0.0462
67724W        W10777  25.907   9.366  25.657  0.2967  0.0390 -0.1126
67725W        W10778  33.759  11.891  28.044 -0.1461 -0.4954  0.0687
67726W        W10779  26.070  10.788  24.260  0.1558  0.1992 -0.1504
67727W        W10780   3.898  10.171   7.368  0.1366 -0.0723  0.1588
67728W        W10781   3.281  30.801   7.089 -0.0346  0.0667 -0.1833
67729W        W10782  33.018  26.615  28.486 -0.4452 -0.0018 -0.1054
67730W        W10783   8.659   8.169   5.634  0.4204 -0.0040  0.3183
67731W        W10784  33.100  22.031   9.831 -0.1110  0.1428 -0.0764
67732W        W10785  33.668   2.307  24.436 -0.1983  0.2705  0.1800
67733W        W10786   4.859   0.969   1.991  0.2588  0.1371  0.1107
67734W        W10787  15.217  23.411   6.045 -0.3979  0.2937  0.2026
67735W        W10788  16.059  10.663   1.036  0.1033  0.1251 -0.1042
67736W        W10789   5.011   3.204   4.162  0.2116  0.4766 -0.1855
67737W        W10790   0.359   3.844   1.102 -0.0364  0.0267  0.0337
67738W        W10791  14.668   7.504  10.647 -0.1793  0.0560  0.1170
67739W        W10792  13.216   0.130   5.549  0.1994  0.0239  0.0675
67740W        W10793  26.543   6.423   4.895  0.1431  0.0365 -0.0978
67741W        W10794   5.933  28.587  24.308 -0.1333  0.1338 -0.0448
67742W        W10795   8.047   2.403  18.864 -0.0113 -0.0820  0.1709
67743W        W10796  34.336   2.774   3.190  0.1795  0.2715  0.1131
67744W        W10797  34.270  16.785   0.944 -0.0275  0.3019 -0.1138
67745W        W10798  10.663  13.346  20.565  0.0239  0.3786  0.0300
67746W        W10799  24.395  30.983  25.137  0.0643  0.1207 -0.0441
67747W        W10800   7.125  19.805   8.097 -0.0327 -0.0174 -0.0878
67748W        W10801   1.087   4.263   8.382  0.0340 -0.0454  0.0031
67749W        W10802   2.635   6.850  20.879 -0.1366  0.0095  0.2134
67750W        W10803  22.753   9.757   1.151 -0.1372  0.1978  0.1592
67751W        W10804   6.946  28.909  27.441  0.0942  0.0113  0.1194
67752W        W10805  16.059   8.137   9.235 -0.2002 -0.2187 -0.0251
67753W        W10806   9.963   3.231   1.770  0.0869 -0.4895  0.0241
67754W        W10807   5.950  26.598   4.015 -0.2027 -0.2513  0.4345
67755W        W10808  33.127  25.792  17.943  0.1311  0.2630  0.0864
67756W        W10809  32.040   5.159   7.440 -0.1957 -0.1700 -0.0361
67757W        W10810  14.505  27.470   0.931 -0.0651  0.3596  0.1403
67758W        W10811   4.658   2.093   5.936 -0.3282  0.1112  0.1112
67759W        W10812  19.376   4.161   4.888  0.4859 -0.3891 -0.1951
67760W        W10813  23.113   6.480   5.834  0.1568 -0.0146 -0.1263
67761W        W10814  21.729  26.598  22.839 -0.1920 -0.1184 -0.2660
67762W        W10815  24.751   9.333  26.875 -0.1932  0.0219 -0.1021
67763W        W10816   7.224  21.246  23.898  0.3819  0.0945 -0.1696
67764W        W10817  28.840   0.650   0.670 -0.1165  0.1708  0.2032
67765W        W10818  28.735   1.058   5.095  0.0843  0.4399 -0.0573
67766W        W10819   9.794  17.761   0.744  0.2669  0.1756  0.0065
67767W        W10820  10.816   4.700   9.023  0.0496  0.1213  0.1148
67768W        W10821  29.327   5.608   4.994  0.0823  0.2068 -0.4186
67769W        W10822  34.419   7.712  27.193  0.0139 -0.3155  0.1861
67770W        W10823  32.699  30.146  26.511 -0.0216 -0.0620 -0.3009
67771W        W10824  10.500  24.777   1.471 -0.1688 -0.1621 -0.1246
67772W        W10825  16.376  24.517  24.233  0.2195  0.1735  0.0902
67773W        W10826  28.355  31.741   5.617 -0.1068  0.2740 -0.1103
67774W        W10827  12.093   7.579   0.207  0.2583 -0.0238  0.0785
67775W        W10828   8.977  13.300  10.528  0.0319  0.0450  0.0714
67776W        W10829   0.759   6.846   8.699 -0.1278 -0.0537 -0.1414
67777W        W10830   1.438  34.382   5.209  0.0337 -0.1363 -0.2682
67778W        W10831   6.476  23.384  28.294  0.2377 -0.2035 -0.0070
67779W        W10832   9.578   4.042   7.002 -0.0352 -0.1469 -0.1003
67780W        W10833  11.142  31.775  16.334 -0.2118 -0.0620 -0.0963
67781W        W10834  10.989  32.638   0.438  0.1776  0.1504  0.0665
67782W        W10835  33.125  33.761   1.691 -0.0119  0.2815  0.0528
67783W        W10836   9.392  31.721   1.859  0.0906 -0.0029 -0.0817
67784W        W10837   2.501   7.618  28.056 -0.0019 -0.3339  0.0391
67785W        W10838   9.854  21.513   6.891  0.1939 -0.1761 -0.0181
67786W        W10839   6.272   5.300   5.418  0.1512 -0.0247  0.2615
67787W        W10840  34.009  28.107  20.924 -0.2484  0.1896  0.1638
67788W        W10841   1.397  27.026   6.572 -0.1052  0.2217 -0.0516
67789W        W10842  20.380  32.250  25.837 -0.3063 -0.1598  0.0424
67790W        W10843   7.200  28.027   0.591 -0.0685  0.2165  0.2067
67791W        W10844  29.401   2.822   1.319  0.0219  0.1634 -0.2140
67792W        W10845  30.110  30.330   5.747 -0.1110 -0.4061  0.1957
67793W        W10846   7.785  13.412   6.555  0.1711  0.2159 -0.0018
67794W        W10847   1.089   3.435  26.872 -0.0683 -0.0062 -0.0321
67795W        W10848  19.820   1.990   5.570  0.0470 -0.2179  0.1254
67796W        W10849  31.195  14.599  18.969 -0.1335  0.1287 -0.1237
67797W        W10850  23.581  31.226   0.932  0.1339  0.0782  0.0246
67798W        W10851   4.332  13.781   5.002  0.2322 -0.0266 -0.2495
67799W        W10852  13.196  12.529  22.001 -0.1322 -0.3777  0.2096
67800W        W10853   0.856  12.898  25.071 -0.3053  0.3478 -0.1525
67801W        W10854  33.919   4.606  18.335  0.0581 -0.2131  0.4526
67802W        W10855  28.280   2.551  10.578 -0.0470  0.2030  0.0532
67803W        W10856  19.612   2.319  27.622  0.0020  0.0079  0.3675
67804W        W10857   0.533   7.731   8.048  0.4436 -0.1653 -0.1123
67805W        W10858  28.141   7.195  22.184  0.1543  0.1617  0.0555
67806W        W10859  12.428  31.454  16.807 -0.1695  0.0824  0.1980
67807W        W10860   1.425  23.189   4.173  0.3283  0.2044 -0.1280
67808W        W10861  31.846  21.979  27.732 -0.0002 -0.1532 -0.1412
67809W        W10862   7.207  12.667  27.350  0.3295  0.2569 -0.0066
67810W        W10863   8.566  30.086   6.676 -0.0272  0.2326 -0.0342
67811W        W10864  29.766  28.657   7.615  0.0216  0.1287  0.0844
67812W        W10865  26.954  22.436   4.033  0.1078 -0.2148 -0.2084
67813W        W10866  12.224  24.364  27.180  0.1589  0.0002  0.2256
67814W        W10867  26.851  33.026   8.159 -0.0199  0.2838 -0.1911
67815W        W10868   9.278   5.136   2.910 -0.3082 -0.2413  0.3023
67816W        W10869   3.864   9.553   8.269  0.1466  0.3009 -0.1576
67817W        W10870  15.139  22.491  27.270  0.0499  0.0544  0.0108
67818W        W10871  24.526   4.340   4.493  0.0844 -0.1018 -0.0159
67819W        W10872  33.150  17.919   0.207 -0.2648 -0.1001  0.1725
67820W        W10873  15.185  23.047  28.899 -0.2472 -0.4024 -0.0072
67821W        W10874  10.791   8.487   0.864 -0.1701  0.6347 -0.1435
67822W        W10875   0.491  27.929  22.220  0.2354  0.2529 -0.2786
67823W        W10876   0.941   8.683  18.189 -0.1299 -0.0475 -0.0028
67824W        W10877  21.774   9.281   0.173 -0.2775  0.3074  0.0447
67825W        W10878   5.792   2.613   8.880 -0.0507 -0.3378  0.1836
67826W        W10879  13.279   5.694   5.048  0.0877 -0.3002  0.3042
67827W        W10880  17.619  31.944  25.664 -0.3294  0.1079  0.0721
67828W        W10881   5.925   5.919  26.260 -0.0918  0.0556  0.3316
67829W        W10882   3.407  30.848  13.390 -0.0941  0.1368  0.0841
67830W        W10883   6.246   3.716   7.437  0.2519  0.0368  0.0618
67831W        W10884  23.831  33.007   2.037  0.1409 -0.2551 -0.0631
67832W        W10885  19.096   3.861   9.802 -0.1357 -0.3466 -0.0008
67833W        W10886  32.831  14.881  24.203 -0.4104 -0.0600 -0.1251
67834W        W10887  33.673  15.098  25.889  0.1222 -0.0924  0.2226
67835W        W10888   2.544   2.576  10.004  0.3103 -0.3843  0.0211
67836W        W10889  22.040   4.187   5.820 -0.1108 -0.0339  0.1560
67837W        W10890  20.988   2.499  27.318  0.3046  0.3502 -0.2542
67838W        W10891  18.737  23.419   4.344 -0.0837 -0.1501  0.1995
67839W        W10892  25.525  20.228  25.635  0.2515 -0.1176 -0.0240
67840W        W10893   4.109   6.537   5.881 -0.0433 -0.2807 -0.2974
67841W        W10894  12.825   7.674  27.077 -0.1325  0.3058 -0.0809
67842W        W10895  10.246   1.558  19.739 -0.3589 -0.0854 -0.1505
67843W        W10896   7.486   1.128   6.889 -0.4608  0.2661  0.0243
67844W        W10897  29.183   5.571   1.752  0.0414  0.2350 -0.1959
67845W        W10898   6.761  15.118  28.898 -0.0332  0.3483 -0.1803
67846W        W10899  19.136   7.365  27.215 -0.2249  0.0614  0.0584
67847W        W10900  29.817   8.277  21.382 -0.0156 -0.0067 -0.2255
67848W        W10901   5.577   2.066   0.176 -0.0641  0.1635 -0.3448
67849W        W10902   9.956  10.283   6.855  0.1039  0.2579  0.1877
67850W        W10903   3.481  12.650  10.226 -0.3567 -0.0194  0.1929
67851W        W10904  30.021   3.713  25.359 -0.2000  0.0582 -0.2669
67852W        W10905   1.893   9.966  20.950  0.1554  0.1746 -0.0341
67853W        W10906  33.784  15.017   4.116 -0.0041  0.1389  0.0944
67854W        W10907   2.324   4.108   4.149  0.4650  0.1414 -0.1917
67855W        W10908   6.728  14.151   5.030 -0.0007 -0.0655 -0.1164
67856W        W10909  10.638  11.129   9.832 -0.1533  0.1447  0.3766
67857W        W10910   4.434   4.112   4.760  0.0182 -0.0381  0.6206
67858W        W10911  25.097  30.757  26.388  0.3087 -0.1526  0.2271
67859W        W10912  32.939  34.577   7.859 -0.0496 -0.2265 -0.0316
67860W        W10913   2.165   4.776  20.436 -0.0267  0.0613 -0.1819
67861W        W10914   3.122  31.236   2.307  0.0301  0.2188 -0.2522
67862W        W10915   0.124   4.737   9.371  0.0857 -0.1153  0.1047
67863W        W10916   0.777   7.708   3.827 -0.0017  0.0762 -0.2800
67864W        W10917   6.186  22.761   7.017  0.1090  0.2156 -0.1221
67865W        W10918   7.305   1.035  20.284  0.0884  0.0239 -0.1516
67866W        W10919  34.204  19.659   2.781  0.1847  0.0852  0.0618
67867W        W10920   2.659  10.583   2.646  0.1337  0.0848 -0.2798
67868W        W10921  14.719   7.081  28.663 -0.1317  0.1026 -0.0828
67869W        W10922  21.973  31.395  26.994  0.1343 -0.0653  0.0374
67870W        W10923  32.409  13.521   4.555 -0.1304 -0.2125  0.4397
67871W        W10924  21.592  22.168   5.805 -0.0119  0.0356  0.0690
67872W        W10925   4.938  33.576   3.545 -0.3545 -0.2546  0.1142
67873W        W10926  27.081  28.108   8.652 -0.0595  0.1759  0.0981
67874W        W10927  25.119   1.675   6.365 -0.0054 -0.0712  0.2523
67875W        W10928  17.625  34.091   8.656  0.1612 -0.1019 -0.0450
67876W        W10929   5.985  34.122   7.348  0.1942  0.1436  0.0884
67877W        W10930  29.797  28.945  23.329 -0.0696  0.1048  0.1282
67878W        W10931  17.282   7.835  28.844 -0.2185  0.3024 -0.0881
67879W        W10932  31.678  29.899  22.224 -0.1262  0.1116 -0.3235
67880W        W10933  20.775  15.483   8.982 -0.0100  0.0623 -0.2942
67881W        W10934  11.620  30.433  29.090  0.0151  0.2342 -0.1837
67882W        W10935   5.422  30.744   3.258 -0.0825  0.0755  0.1833
67883W        W10936  33.948  28.889   5.688  0.2713 -0.0551 -0.1030
67884W        W10937   9.422   5.733   8.068 -0.0157 -0.2118 -0.1084
67885W        W10938  26.595  21.125   6.252  0.1259  0.3183  0.2114
67886W        W10939   1.289  31.541  14.587 -0.1044 -0.0207  0.0035
67887W        W10940  11.851  17.866  17.450 -0.2401 -0.0048  0.2256
67888W        W10941   3.213  15.881   5.601  0.2049  0.0069  0.0800
67889W        W10942  10.582   2.248   4.736 -0.0668 -0.0046  0.0791
67890W        W10943   5.093  22.784   1.062 -0.1743  0.3121 -0.0067
67891W        W10944  24.116  21.408   8.489 -0.2123  0.2631  0.0959
67892W        W10945  17.306  33.229   8.034 -0.3143  0.0014  0.2857
67893W        W10946  34.174   3.653   1.575 -0.0209  0.0160 -0.1557
67894W        W10947   1.737  34.077   9.883 -0.0288  0.1438  0.0993
67895W        W10948   5.551   1.310   3.962  0.0366  0.1202  0.2237
67896W        W10949   2.919   1.424   9.481  0.1921 -0.0203  0.0499
67897W        W10950   1.378  23.814   7.235 -0.0161 -0.0269 -0.1060
67898W        W10951  31.083  34.359  27.849 -0.2059  0.4458 -0.2410
67899W        W10952  22.026   9.198   4.596 -0.2089  0.0433 -0.3046
67900W        W10953   5.816  17.578   6.947 -0.2775 -0.0056  0.0541
67901W        W10954   0.953  30.394  26.036 -0.1776  0.0097 -0.2226
67902W        W10955   9.897   0.977  15.629 -0.2071  0.1758 -0.2357
67903W        W10956  10.677  27.299   2.442 -0.3461  0.1817  0.0221
67904W        W10957   7.295  11.572  28.195 -0.2645 -0.0929  0.0342
67905W        W10958  31.246   8.344   4.135  0.1309  0.0981  0.0682
67906W        W10959   9.837  33.583  24.479 -0.1401 -0.2032 -0.1559
67907W        W10960   4.261   3.717  27.406 -0.1350 -0.1272  0.1357
67908W        W10961   6.673  33.814   8.153 -0.0925 -0.0332  0.1691
67909W        W10962   8.393  11.207   7.638 -0.1105 -0.1102  0.0904
67910W        W10963   1.078   7.135   1.035 -0.4907 -0.2286 -0.2865
67911W        W10964  28.349  25.511   2.163 -0.0094 -0.3080 -0.0286
67912W        W10965  17.381   2.504   8.678  0.1361 -0.0408  0.1045
67913W        W10966  13.785  30.204   0.368 -0.0172  0.0736 -0.0067
67914W        W10967  29.123   3.606   8.333  0.2333  0.0958  0.1647
67915W        W10968  31.047  21.301  25.315 -0.0711 -0.2137 -0.1060
67916W        W10969  26.059  24.674   2.475  0.0598 -0.1669 -0.0997
67917W        W10970   1.921  34.027   1.420 -0.2213  0.0196  0.0115
67918W        W10971   8.861  32.535   6.158 -0.3834 -0.1023 -0.0725
67919W        W10972  20.531   0.949   9.800  0.0925 -0.0163  0.1902
67920W        W10973   4.931  12.869  10.922 -0.0167  0.1320 -0.0371
67921W        W10974  28.361  26.788   4.083  0.0576 -0.1251  0.2644
67922W        W10975   7.994   5.158   3.288 -0.0559 -0.1282 -0.0322
67923W        W10976   3.520   1.604  25.876  0.1370 -0.2974  0.1384
67924W        W10977  13.163  22.831  20.801  0.0432  0.3290 -0.0039
67925W        W10978  32.283   7.896   2.089  0.0632  0.1376 -0.0509
67926W        W10979  11.674  28.311   3.332  0.0589 -0.1069  0.2170
67927W        W10980  30.091  34.237   2.574  0.2092 -0.0766 -0.2763
67928W        W10981  19.156  27.788   9.658  0.1887 -0.0776 -0.0434
67929W        W10982   5.239   0.309   4.778  0.1603 -0.2424 -0.1651
67930W        W10983   3.474   3.795  15.681 -0.0458 -0.2506  0.2652
67931W        W10984   7.785   1.581  23.653 -0.1294 -0.2189  0.2520
67932W        W10985   5.479   0.155  22.778 -0.3571 -0.1001  0.4551
67933W        W10986  34.450  26.210  27.199 -0.0274  0.0141 -0.0695
67934W        W10987  27.752  11.254   4.823 -0.2512 -0.1951  0.2515
67935W        W10988  12.290   7.115  27.842 -0.0289 -0.1051  0.0390
67936W        W10989  18.880  34.273  28.518 -0.1419  0.3308  0.0401
67937W        W10990  14.188  30.015   0.076  0.0720 -0.1332  0.1308
67938W        W10991   6.792  21.612   4.427 -0.3439 -0.0189  0.0717
67939W        W10992  17.505  16.730   7.405 -0.1486 -0.0915 -0.0950
67940W        W10993  20.064  21.728  27.404 -0.0273  0.0640  0.1452
67941W        W10994  13.892  11.039  10.789 -0.0890  0.1411 -0.3152
67942W        W10995  20.802  25.339   2.604  0.1694 -0.0047  0.0528
67943W        W10996  34.026  14.509  23.309 -0.0201 -0.0424  0.1316
67944W        W10997   1.321  10.737  22.257  0.1368 -0.0612  0.0356
67945W        W10998  15.802  10.788   8.294 -0.1348 -0.0465 -0.0791
67946W        W10999  31.592  16.454   2.321  0.1255  0.1212 -0.0511
67947W        W11000  19.116  23.750   3.007 -0.1119 -0.1833  0.0859
67948W        W11001   5.871  34.439   1.419  0.2797  0.3165 -0.0285
67949W        W11002  34.623   7.801   1.881  0.1751 -0.1821  0.0711
67950W        W11003   9.233  11.206  25.390  0.1998 -0.1019 -0.0164
67951W        W11004   7.277  33.210  24.999 -0.2945  0.1290  0.3330
67952W        W11005   0.577  33.105   1.323  0.0677  0.0254 -0.0524
67953W        W11006  19.254   2.314   8.056  0.0271 -0.2896  0.0243
67954W        W11007  10.071  17.409   6.160 -0.1254  0.1989  0.1629
67955W        W11008   5.123  15.413  27.639 -0.1186  0.2579  0.0296
67956W        W11009  26.514  25.337   8.141  0.0754 -0.0242  0.0300
67957W        W11010  13.791  20.557   4.459 -0.2974 -0.0891 -0.0439
67958W        W11011   1.061  15.569   0.692 -0.0874 -0.2266 -0.1308
67959W        W11012   7.622  33.282   8.389  0.1479 -0.2130  0.1507
67960W        W11013  29.135  28.214   4.293  0.0484 -0.1102 -0.0520
67961W        W11014  33.673   0.435   7.619 -0.0734 -0.0889  0.1104
67962W        W11015  28.219  30.412   6.313 -0.0872  0.0146  0.3200
67963W        W11016   8.323  16.594   4.103  0.1141 -0.3914  0.1584
67964W        W11017   8.978   5.877   8.152 -0.3930 -0.0723 -0.4112
67965W        W11018   5.945   2.063   7.435 -0.2081 -0.3723 -0.0501
67966W        W11019   9.774   1.600   8.921  0.2525 -0.0979 -0.0049
67967W        W11020  17.379  14.648   4.631 -0.0581  0.0172  0.0823
67968W        W11021   2.451   6.192   0.466  0.1907  0.2095 -0.0178
67969W        W11022   2.635  32.487   2.162 -0.0879 -0.1998  0.2401
67970W        W11023   2.914  29.174  21.581  0.0404 -0.1350 -0.0073
67971W        W11024   5.791  25.818   9.747  0.1143 -0.3467 -0.2668
67972W        W11025  11.167   9.701   9.859  0.0691 -0.0638 -0.0112
67973W        W11026  15.661   3.514  28.488 -0.3099  0.1109 -0.0855
67974W        W11027  33.845  21.322   2.682 -0.0040  0.0313  0.2298
67975W        W11028  15.929  20.734   0.497 -0.3514 -0.0158 -0.3114
67976W        W11029  24.847   7.977   7.880 -0.0400 -0.1370  0.1786
67977W        W11030   9.687  11.603  28.512 -0.0576 -0.3344 -0.0007
67978W        W11031  26.398  34.515  27.820 -0.0338  0.1864 -0.2816
67979W        W11032   8.429  29.892   8.403 -0.2132 -0.3001  0.2719
67980W        W11033   2.817  10.330   0.360  0.1912  0.2643  0.0475
67981W        W11034  15.245  30.233   6.811  0.0946  0.2440 -0.0241
67982W        W11035  19.064  31.285   1.719 -0.0823 -0.3285 -0.1032
67983W        W11036   9.518   2.464   6.119  0.1377 -0.1062 -0.1413
67984W        W11037  17.411  15.152   4.596 -0.1201 -0.0951 -0.2974
67985W        W11038  33.529  14.850   7.092  0.0565 -0.2892 -0.4762
67986W        W11039  32.623   8.111   1.558 -0.0408 -0.1848 -0.1344
67987W        W11040   4.522   2.280  10.125  0.2037  0.0700  0.0493
67988W        W11041  10.767  12.095   9.674 -0.2852 -0.0906  0.1976
67989W        W11042   8.949  21.355   4.840  0.1855  0.1375 -0.1125
67990W        W11043  16.836   6.228   1.780  0.2006  0.2100 -0.2816
67991W        W11044  15.703   4.490  10.800 -0.2463  0.1270  0.1886
67992W        W11045   8.194  12.463   8.330 -0.0512  0.0775  0.1653
67993W        W11046  11.042   7.307  10.031 -0.0390  0.1327 -0.2718
67994W        W11047   3.748  34.180   1.911 -0.0842  0.0523  0.1546
67995W        W11048  14.191  14.513   3.532 -0.0461 -0.2205  0.0635
67996W        W11049  12.869  17.837   7.825  0.3500 -0.2337 -0.0144
67997W        W11050  31.234  32.226   1.773 -0.0176 -0.3019  0.1300
67998W        W11051  13.076  16.478  17.899 -0.3118  0.3550  0.1730
67999W        W11052  10.436   4.005   3.797 -0.0879  0.1065 -0.0239
68000W        W11053  32.442  25.500  24.079  0.0905  0.0145  0.0983
68001W        W11054   6.537  13.964   9.877  0.1425  0.0421  0.2989
68002W        W11055  20.749   9.620   9.235 -0.0343  0.3482  0.0543
68003W        W11056   0.324  25.480   6.268  0.1924 -0.2442  0.0620
68004W        W11057   9.869  10.666   0.924 -0.2094  0.2262  0.1241
68005W        W11058   6.554  33.173  20.522 -0.0630  0.0754  0.0860
68006W        W11059  11.513  29.874   4.125 -0.3657  0.2847 -0.3414
68007W        W11060  13.488   3.944  26.554  0.0802 -0.2896  0.1987
68008W        W11061   2.322  31.519   9.617 -0.0439  0.2450  0.0291
68009W        W11062   2.709   1.557   2.959 -0.3446 -0.1494 -0.2464
68010W        W11063  12.201   1.895   0.425  0.2985  0.1643  0.2081
68011W        W11064  30.026  17.116   7.043  0.0306  0.0823  0.1433
68012W        W11065   3.132  32.011  27.747  0.0351  0.0411  0.0178
68013W        W11066  10.039   1.101  25.888 -0.1766 -0.4669 -0.1534
68014W        W11067  10.902  24.031   9.362 -0.0576 -0.1177 -0.4083
68015W        W11068  14.018  11.766   9.926 -0.1009 -0.2219  0.2865
68016W        W11069   8.207  32.659   9.529 -0.1299 -0.2246  0.5224
68017W        W11070   3.614  13.003   7.002  0.0507  0.1518  0.1156
68018W        W11071   8.991   1.739   9.007  0.2172 -0.0298  0.2029
68019W        W11072  19.152   8.785  25.119 -0.1589 -0.1358 -0.2714
68020W        W11073  21.808  14.327   2.987  0.0342 -0.0638 -0.1255
68021W        W11074   2.641  32.031   7.029  0.2202  0.0860  0.0116
68022W        W11075  10.255  13.160  23.676  0.0954  0.0389 -0.0626
68023W        W11076   9.037  11.903   4.478 -0.1999 -0.1323 -0.0585
68024W        W11077  25.964   0.297   9.656  0.0184  0.1264 -0.0609
68025W        W11078  11.575   7.151   9.987 -0.2691 -0.0003  0.1341
68026W        W11079  10.208  16.451   6.288  0.2052  0.3350  0.0763
68027W        W11080  18.816   3.670   8.181  0.0249  0.2165  0.3333
68028W        W11081   4.869  31.478  25.021  0.0760 -0.0801 -0.1803
68029W        W11082   7.024  22.618   7.001  0.0351  0.1812 -0.0770
68030W        W11083  19.361  22.300  28.983  0.1754  0.1068  0.1648
68031W        W11084  32.287   0.773   6.886 -0.0567 -0.2103 -0.2223
68032W        W11085  10.515   5.690  25.925  0.0147 -0.1800 -0.2672
68033W        W11086  20.648  28.802  16.823  0.0646  0.1524 -0.1555
68034W        W11087   8.992  32.974  28.932 -0.0953 -0.0287  0.1168
68035W        W11088  16.078  10.565   4.232 -0.0154 -0.5245  0.1255
68036W        W11089  19.529  16.601  22.669  0.3227 -0.1450 -0.2200
68037W        W11090  11.130  10.735   7.446  0.1727  0.2092  0.0357
68038W        W11091  11.738   1.138  28.529  0.3629 -0.1765 -0.0079
68039W        W11092  30.314   1.126   5.971 -0.1108  0.1476  0.1046
68040W        W11093   8.785  33.910  25.369 -0.2141  0.3592 -0.0438
68041W        W11094  23.833  33.446   5.996  0.0549  0.0739 -0.1447
68042W        W11095  24.251   0.537  24.125  0.0714 -0.0410 -0.1774
68043W        W11096   3.085   3.253   6.358 -0.2250 -0.1016 -0.1785
68044W        W11097  15.479  17.101   7.206  0.0105  0.1564  0.1876
68045W        W11098  11.329   5.425   0.725  0.1174 -0.0654 -0.0571
68046W        W11099   6.553  32.410   0.437 -0.4194 -0.0996 -0.2329
68047W        W11100  29.131  10.378  18.149 -0.1861 -0.0943  0.0706
68048W        W11101   3.798   9.165   1.113 -0.2142  0.0577  0.3561
68049W        W11102  17.292  17.107   1.232 -0.0371 -0.2686 -0.0997
68050W        W11103   7.849  28.198   7.551 -0.2108  0.3954 -0.3953
68051W        W11104  27.603  10.928  26.168  0.1396  0.0979 -0.1279
68052W        W11105   9.499  15.502   9.295 -0.0655 -0.5486  0.0704
68053W        W11106  10.160  17.871   6.344  0.3172  0.5222 -0.1570
68054W        W11107   3.245   1.361   4.824 -0.0921 -0.1205 -0.2267
68055W        W11108  29.715   3.779   2.413 -0.0389  0.1737  0.0346
68056W        W11109  19.178  14.724  25.245  0.2303  0.0782 -0.1103
68057W        W11110  19.137  23.521   8.498 -0.2627  0.0049  0.1967
68058W        W11111  24.065  31.385   5.472 -0.0777  0.1667 -0.0780
68059W        W11112   7.843  33.456   4.360 -0.0677  0.1544  0.1097
68060W        W11113  25.651   9.358  10.624  0.3014  0.0237 -0.0755
68061W        W11114  22.675  17.583   6.266 -0.0416 -0.0985  0.0247
68062W        W11115  12.066  31.216   9.111  0.0047  0.2814 -0.0990
68063W        W11116  14.459  27.969   4.066  0.3546 -0.2064  0.0715
68064W        W11117  16.444  14.025   1.753 -0.1847 -0.0336  0.1704
68065W        W11118   1.972   1.896  29.141 -0.2131  0.0335 -0.1541
68066W        W11119   1.601   2.173   2.495  0.1473  0.0553 -0.1661
68067W        W11120  34.646  31.837   7.918  0.2403 -0.1555  0.0080
68068W        W11121   7.572  32.058   1.095 -0.0756 -0.2726 -0.0306
68069W        W11122  24.876  13.662   8.759 -0.2921 -0.2039  0.3107
68070W        W11123   7.104  14.150   8.811 -0.2752 -0.1410 -0.4396
68071W        W11124   4.356  28.280   8.082 -0.0673  0.1382  0.2282
68072W        W11125  13.183  31.304   4.472 -0.4279  0.3719 -0.1701
68073W        W11126  18.605   1.872   4.899 -0.2235 -0.0649  0.0040
68074W        W11127  18.516   1.981  24.327 -0.0190 -0.2295  0.1176
68075W        W11128  25.369  12.261  26.762  0.1418 -0.1968  0.2746
68076W        W11129  28.938  16.050   9.162 -0.1393  0.3241  0.0003
68077W        W11130   3.638  32.989   8.137  0.0317 -0.0811  0.0445
68078W        W11131  24.533   4.068  10.020 -0.1650 -0.2189  0.1014
68079W        W11132  24.569   7.229  23.140  0.1327 -0.1907  0.1948
68080W        W11133  17.941   0.297   8.352 -0.0005 -0.0680 -0.3348
68081W        W11134  29.758   6.495   6.249 -0.2390  0.3226  0.0036
68082W        W11135  23.622   0.266   5.041 -0.3177 -0.0873 -0.0709
68083W        W11136  22.981  10.075   0.057 -0.1433 -0.0543 -0.0241
68084W        W11137  16.273  31.215   0.786  0.0546 -0.0552  0.0442
68085W        W11138  11.575   1.817  18.442  0.1265  0.1702  0.2529
68086W        W11139  20.503   5.407   3.696  0.0890  0.0084  0.0450
68087W        W11140   4.953  34.570  10.099  0.1275 -0.0220  0.1507
68088W        W11141  27.411  20.885   4.056 -0.1485 -0.0520  0.1365
68089W        W11142  27.405  32.419  19.918  0.2685 -0.3414 -0.2420
68090W        W11143   9.064  24.865  21.251  0.2163 -0.0717  0.1404
68091W        W11144  32.267  21.758  23.769  0.3099  0.0265  0.0549
68092W        W11145   7.214   8.075  11.243 -0.1557  0.1595 -0.0807
68093W        W11146  11.825   8.151   6.035 -0.3044  0.2658 -0.1652
68094W        W11147   0.470  17.054   7.678 -0.1879 -0.0327  0.0621
68095W        W11148  29.720   2.939  28.346  0.3450 -0.0919 -0.0466
68096W        W11149   3.970  10.489   7.007  0.1449  0.0211  0.0551
68097W        W11150  11.095   1.243   2.106  0.1774 -0.1613 -0.0401
68098W        W11151  13.342  20.864   3.156  0.3110 -0.0784 -0.3111
68099W        W11152   5.711  11.365  28.364  0.1295  0.0984 -0.0045
68100W        W11153   1.159  26.844   8.076 -0.2493 -0.0353  0.1529
68101W        W11154  11.847   4.147  13.820 -0.0618  0.1689  0.1964
68102W        W11155  24.138  21.513   7.334  0.0901  0.1511  0.3733
68103W        W11156   0.388   0.461   0.175 -0.0214 -0.3842  0.0245
68104W        W11157   4.763  32.934   0.893 -0.1232  0.1374 -0.1799
68105W        W11158  14.388  33.340   7.749  0.0509  0.1227 -0.0993
68106W        W11159  10.243  34.175   0.758  0.1092  0.0423 -0.0440
68107W        W11160   9.384  31.571  17.313  0.4384 -0.1794 -0.2110
68108W        W11161  33.842  25.225   8.205  0.0846  0.1607  0.1361
68109W        W11162  10.073  24.415   1.472  0.1799  0.0585  0.3103
68110W        W11163  12.004  13.477  10.844  0.0119  0.0961 -0.1336
68111W        W11164   6.430   4.984   8.270 -0.0356 -0.0275 -0.2589
68112W        W11165  31.060  32.473   1.128 -0.3363  0.0512  0.1391
68113W        W11166  19.636   1.745   6.072 -0.1744 -0.1525  0.0100
68114W        W11167   6.633  13.780   8.886  0.1935  0.2103 -0.4783
68115W        W11168   4.008  10.562   2.088 -0.2241 -0.2220 -0.2072
68116W        W11169   6.514  28.242  21.567  0.3730 -0.0047 -0.1749
68117W        W11170  33.826   3.135  25.040  0.0778  0.0593 -0.1934
68118W        W11171   7.349  32.685   6.676 -0.0386 -0.1240 -0.0841
68119W        W11172   0.738  32.816   3.910  0.2577 -0.1121 -0.3058
68120W        W11173  31.714   0.951   4.551 -0.3931 -0.1180 -0.1245
68121W        W11174  20.556   3.564   5.819 -0.0015 -0.0705 -0.5771
68122W        W11175  14.330   7.177   7.956 -0.2736  0.2786  0.0851
68123W        W11176  28.905   5.733   2.892  0.1985  0.0875  0.1714
68124W        W11177   1.336  32.302   1.532  0.1216  0.1469  0.1563
68125W        W11178  11.471   1.009  23.214 -0.1262 -0.0799  0.1229
68126W        W11179  19.738  32.663   6.500 -0.0932  0.0575  0.0127
68127W        W11180  17.611   9.981  25.431  0.2284 -0.1375 -0.1358
68128W        W11181  19.658   1.532   3.357 -0.3019  0.0162 -0.0346
68129W        W11182   5.277   4.730   1.359  0.1194 -0.2901 -0.1176
68130W        W11183   8.068   5.833   5.238  0.0170 -0.0904 -0.0950
68131W        W11184  14.826  15.364   3.415 -0.2373 -0.0863 -0.1332
68132W        W11185  16.783   6.991  29.086 -0.1831 -0.0526  0.1595
68133W        W11186   3.183  20.805  27.068  0.0508  0.0100 -0.1102
68134W        W11187   0.185  22.768  28.044  0.0442 -0.0326  0.0059
68135W        W11188  32.699  26.972  23.191 -0.2259 -0.2195  0.2065
68136W        W11189   8.104   9.764   4.548  0.2756 -0.0041 -0.0446
68137W        W11190   1.831  30.904   7.912  0.3573  0.0458 -0.3614
68138W        W11191  34.645  12.822  27.752  0.0962 -0.0016 -0.0694
68139W        W11192  15.019  23.040   3.507 -0.0920  0.2746  0.1506
68140W        W11193   9.127  20.186  25.805  0.1215 -0.0324  0.2894
68141W        W11194  15.870   1.084  28.871 -0.0894  0.1264  0.0612
68142W        W11195  30.950   1.565  19.528 -0.1390 -0.0244 -0.1318
68143W        W11196  26.159   0.407   7.964 -0.0861 -0.3220 -0.1314
68144W        W11197  33.128  17.132   7.617 -0.1552 -0.0721  0.3982
68145W        W11198   4.359   6.449   7.066 -0.2398 -0.0111  0.1975
68146W        W11199   9.333   1.095   6.434 -0.1451 -0.1938  0.1558
68147W        W11200  24.881   6.066   4.644 -0.3457 -0.0574  0.0436
68148W        W11201  11.165   2.610   5.268  0.1537  0.0820  0.2954
68149W        W11202  10.142   1.892   4.471  0.2796  0.2349 -0.0452
68150W        W11203  27.264  18.952   7.857  0.1441 -0.1781 -0.1401
68151W        W11204  33.823   4.553   6.884 -0.0328  0.2163  0.1505
68152W        W11205  26.696  13.398   6.038 -0.2014 -0.2606  0.0040
68153W        W11206   0.522   3.151  14.742 -0.2846  0.3556  0.0810
68154W        W11207   3.803  28.155  22.669  0.1077 -0.1246  0.1104
68155W        W11208  15.702   5.615   5.503  0.3487 -0.1004 -0.1373
68156W        W11209  28.854   0.743   4.759 -0.0617 -0.1468  0.0358
68157W        W11210  23.406  13.228   7.482  0.3654 -0.0888  0.4817
68158W        W11211   8.105  32.945   5.510  0.0721 -0.3613  0.0509
68159W        W11212  20.519   1.477  10.334  0.0508  0.3084 -0.2825
68160W        W11213   8.696  10.833   7.324  0.1742 -0.1578 -0.0666
68161W        W11214   0.583  27.596  19.066  0.1012  0.1785 -0.1095
68162W        W11215   5.095  33.217   0.585 -0.1078  0.2545  0.2864
68163W        W11216   7.229  26.606  26.686 -0.3010  0.2890  0.0215
68164W        W11217  15.191  34.457   8.439  0.1235 -0.0591  0.4342
68165W        W11218  18.016   4.959   5.447 -0.1586  0.2136  0.0449
68166W        W11219  15.168   0.991   6.044 -0.0840 -0.1507  0.1598
68167W        W11220  31.139   5.653   0.450 -0.1075  0.2075 -0.1008
68168W        W11221  20.016   8.590   6.422 -0.0490 -0.1056  0.1081
68169W        W11222  11.152  15.253   0.880 -0.0155 -0.1454  0.1888
68170W        W11223   4.725   2.058   0.632  0.3639 -0.1500 -0.0626
68171W        W11224  20.709   5.309  21.271  0.2129 -0.5174  0.2561
68172W        W11225   4.556   1.445   0.638  0.1197 -0.1495 -0.0329
68173W        W11226   0.413  14.244   4.508  0.3364 -0.0574  0.0470
68174W        W11227  14.737   1.884   2.940 -0.3300  0.2186  0.0333
68175W        W11228  24.259  17.823  26.670  0.1539 -0.1732  0.2450
68176W        W11229  33.654  13.420   8.779 -0.2915  0.0832 -0.0191
68177W        W11230  23.084  15.207   0.504  0.1481  0.2332 -0.1235
68178W        W11231   5.973  33.884   9.378 -0.1193  0.1459  0.0466
68179W        W11232  33.701  30.459   3.762 -0.0842 -0.2820  0.1319
68180W        W11233   2.664  28.010   4.462  0.0888 -0.0461 -0.1810
68181W        W11234  26.054  33.613   5.645  0.4294 -0.0204 -0.0213
68182W        W11235  34.549  32.374   2.698 -0.1537 -0.0518 -0.1274
68183W        W11236   0.903   3.701  27.900  0.2023 -0.1947 -0.5089
68184W        W11237  16.869  13.261   2.137  0.0726  0.0623  0.0764
68185W        W11238  17.243  19.872  27.035  0.0726 -0.0839 -0.1016
68186W        W11239   2.510  14.147   7.234 -0.0109  0.3176 -0.0243
68187W        W11240  26.220   6.785  18.161  0.0401 -0.1917 -0.1701
68188W        W11241   8.248  31.615   6.332  0.0673 -0.2535 -0.4958
68189W        W11242   2.882  34.350   4.469  0.1564 -0.2308  0.0081
68190W        W11243  33.119   0.520   5.167 -0.0503  0.0243 -0.3355
68191W        W11244   5.791  10.687   8.550  0.2657  0.1715  0.0465
68192W        W11245   0.597  18.894   2.791 -0.0458  0.3055 -0.0233
68193W        W11246  29.380  11.991   2.909 -0.1580  0.1512 -0.3527
68194W        W11247  13.612  22.706   5.386  0.1827 -0.4848 -0.4940
68195W        W11248   8.017   5.118   6.657  0.0518 -0.2373  0.0331
68196W        W11249  31.832   5.838  25.994  0.6217 -0.0158  0.1494
68197W        W11250  14.263  22.297  18.883  0.0940  0.1504 -0.4487
68198W        W11251   4.455  10.645   2.874 -0.1087  0.0794  0.0735
68199W        W11252  27.553   4.354  29.096  0.1937  0.2781 -0.0055
68200W        W11253  22.969  13.089  28.423  0.2679  0.1031  0.2513
68201W        W11254  12.911  15.292   7.109 -0.2190  0.1963 -0.2515
68202W        W11255  15.368   1.984   0.859  0.3696  0.0376  0.1282
68203W        W11256  13.614   1.583   6.357  0.0750  0.2323 -0.0344
68204W        W11257  29.143  13.313   1.571 -0.1872  0.0525  0.1495
68205W        W11258   6.659  32.491  26.125 -0.0516  0.2249  0.0576
68206W        W11259   4.782  17.602   9.465 -0.1810  0.2527 -0.2386
68207W        W11260  32.879  13.093  24.493  0.1263 -0.1938  0.4216
68208W        W11261   4.716  20.761   7.996  0.1170  0.1908  0.0335
68209W        W11262  13.181  25.858   7.609 -0.1456 -0.0108 -0.1453
68210W        W11263   6.597   8.105   7.226 -0.0737  0.0115  0.3283
68211W        W11264  15.985   3.166   3.601  0.1989  0.1111  0.0975
68212W        W11265  28.174  30.685  19.675  0.1018 -0.0357 -0.1311
68213W        W11266   3.116   9.514   2.256  0.3738 -0.0461 -0.4734
68214W        W11267  15.195  32.317   5.435  0.0735  0.1441 -0.1937
68215W        W11268  12.731  14.353  28.806  0.2101 -0.1582  0.3443
68216W        W11269   8.972  33.607  28.142  0.3179  0.0238 -0.2602
68217W        W11270  12.337  16.354   9.550  0.1134  0.3175 -0.3391
68218W        W11271   7.833  11.872   1.756 -0.1682  0.2323  0.0247
68219W        W11272  30.805   0.202   2.474 -0.2895 -0.0279  0.0656
68220W        W11273  17.335  25.867   4.358 -0.0701 -0.2592 -0.1648
68221W        W11274   7.154   1.042   7.344 -0.1804  0.0048 -0.0556
68222W        W11275  13.531  13.865  25.713 -0.0236  0.1497 -0.1369
68223W        W11276   0.277   1.185   1.117  0.1953 -0.0486  0.2536
68224W        W11277   6.678   1.293  10.653  0.0105 -0.0414  0.1583
68225W        W11278   2.335   3.603   4.069  0.2016  0.1493  0.1028
68226W        W11279  20.094  13.274  26.192  0.2098  0.0913  0.0568
68227W        W11280   4.697  10.317   2.042  0.0663  0.1512  0.1009
68228W        W11281  17.842  12.126   5.674  0.1506  0.0321  0.1995
68229W        W11282  15.241   6.524   7.345 -0.3783 -0.1942 -0.1503
68230W        W11283   4.716  13.799   4.551 -0.2351  0.1907 -0.1630
68231W        W11284  26.405  34.400   4.411  0.0778  0.1395 -0.0018
68232W        W11285  14.706   9.722   8.786  0.0134  0.2402 -0.0065
68233W        W11286  13.510   6.942   4.447 -0.1810  0.0732  0.0950
68234W        W11287  13.769   2.085  26.156  0.3021 -0.4465  0.3210
68235W        W11288   4.106  12.207  24.811  0.0511 -0.3744  0.2760
68236W        W11289   8.245   1.233   8.878  0.2128 -0.1227 -0.1912
68237W        W11290  11.195  19.124  10.230 -0.0186 -0.0633 -0.0750
68238W        W11291   9.381  11.548  18.882 -0.0809  0.2104  0.2687
68239W        W11292  26.336  19.427   1.982 -0.1837 -0.3004 -0.0291
68240W        W11293  10.507   7.137  24.288  0.1186  0.5117 -0.0337
68241W        W11294  13.197   6.631   5.124  0.0629 -0.1038  0.1045
68242W        W11295   8.467  33.937  27.701  0.0912  0.1708 -0.0380
68243W        W11296  12.463  10.874   0.191 -0.0451  0.0512  0.2504
68244W        W11297  25.831  32.224  25.016 -0.1655  0.2470 -0.2039
68245W        W11298  16.442   3.895  19.536 -0.0064  0.0994  0.2201
68246W        W11299   3.775  33.708   1.942 -0.3573 -0.1855  0.0934
68247W        W11300  10.592  13.217   7.931  0.1890  0.2961  0.2740
68248W        W11301  33.365   8.685  27.830 -0.0336  0.0327  0.0963
68249W        W11302   5.132  20.533   7.838 -0.1346  0.1646  0.0168
68250W        W11303  10.628   5.671   3.113  0.3990  0.1294  0.0314
68251W        W11304   5.522  27.591   9.608  0.2316 -0.2428 -0.2788
68252W        W11305   9.242   6.464   4.067  0.0888  0.1695  0.2118
68253W        W11306  30.228   2.340   8.669 -0.0493 -0.1408  0.0361
68254W        W11307  16.426  15.528   6.772 -0.1883  0.2010 -0.2551
68255W        W11308   2.187  30.400   0.146  0.1000 -0.1226 -0.1746
68256W        W11309  14.708  31.674   1.898  0.1462 -0.0309 -0.0929
68257W        W11310  31.025   7.762   8.413  0.0996  0.3597 -0.1885
68258W        W11311  18.360  11.190   3.286  0.0820 -0.0163 -0.0894
68259W        W11312  23.198   4.574   3.617 -0.1497  0.1287  0.0587
68260W        W11313   6.089  23.019  22.985  0.1692 -0.3984  0.0488
68261W        W11314   0.980   3.515   5.012  0.0892 -0.0322 -0.0705
68262W        W11315  29.024   5.290   8.340 -0.0794  0.2363 -0.2514
68263W        W11316  33.661  20.985  20.830  0.2357 -0.2027 -0.2262
68264W        W11317   9.055  22.535  25.819 -0.0704  0.3371  0.0312
68265W        W11318  18.378  16.535   4.899  0.3397  0.2635  0.1063
68266W        W11319  34.510   4.978   2.616  0.0074  0.0138  0.1902
68267W        W11320   0.330  12.762  26.300  0.0664 -0.5621 -0.0880
68268W        W11321  32.365  14.672   2.812 -0.0532  0.1064 -0.0534
68269W        W11322  15.525   4.000  20.239  0.3308 -0.0509  0.2209
68270W        W11323  14.544  13.691   0.007 -0.2964 -0.0203  0.0162
68271W        W11324  19.457  16.792  24.379  0.0345  0.2373 -0.1280
68272W        W11325  34.228  12.006   7.923 -0.1482  0.0216 -0.0490
68273W        W11326  10.837   0.557   6.755 -0.1670  0.2259 -0.0341
68274W        W11327  27.410  22.921  20.259  0.0162  0.0645  0.1330
68275W        W11328  10.211   5.981   3.054 -0.1055  0.1179  0.4317
68276W        W11329  28.903  28.939  25.894 -0.2157 -0.0484 -0.0285
68277W        W11330  31.676  11.136   1.857  0.0262  0.0574 -0.2128
68278W        W11331   7.432  30.365   4.154 -0.3176 -0.1956  0.1675
68279W        W11332  19.443  34.464   8.778  0.1479 -0.0529 -0.0542
68280W        W11333   3.839  25.421   4.200 -0.1450  0.1982 -0.1532
68281W        W11334   3.477  13.423   7.305 -0.0417 -0.0110  0.0365
68282W        W11335  12.132  29.962   3.424  0.0293 -0.2132  0.0540
68283W        W11336  33.765  22.635  20.876 -0.0844 -0.1784  0.0712
68284W        W11337  17.902  23.176   1.884  0.4000  0.2108 -0.0943
68285W        W11338  32.951  14.420   2.532  0.0540  0.0615  0.2711
68286W        W11339   2.839  11.724  24.605 -0.1082 -0.3454  0.0787
68287W        W11340   7.625  27.814   0.100 -0.0028  0.1445  0.3076
68288W        W11341  17.321   2.998   5.694  0.3237  0.3481 -0.1083
68289W        W11342   4.159   6.688   9.342  0.0168  0.2731 -0.4082
68290W        W11343   4.893  14.725   1.132  0.0371  0.3278  0.3124
68291W        W11344  14.529  15.625  14.036 -0.0908  0.1376 -0.1037
68292W        W11345  15.565   3.722   1.743  0.1768  0.0924 -0.3692
68293W        W11346  30.510  17.312  18.652  0.0466 -0.0504  0.2679
68294W        W11347  16.030  29.818   4.588 -0.0288  0.1638 -0.1837
68295W        W11348  18.008   6.389  26.263  0.0467 -0.3098 -0.3248
68296W        W11349   6.399  21.983  23.690 -0.0030  0.0039  0.0135
68297W        W11350   7.175  25.444   7.016 -0.0011  0.3022  0.0648
68298W        W11351  14.649  14.593  27.719  0.0858  0.2689  0.0378
68299W        W11352   1.190  24.446   6.033 -0.0253 -0.4124  0.0186
68300W        W11353  27.641  21.465   4.901  0.0604  0.1525  0.1741
68301W        W11354  30.965  33.765  27.121  0.0550  0.0739 -0.2172
68302W        W11355   5.409   6.235   6.834  0.0105  0.0629  0.1051
68303W        W11356   9.165   8.608  10.253  0.1792 -0.2243  0.2397
68304W        W11357  32.330  32.975   2.061 -0.1068  0.0271  0.0521
68305W        W11358  28.224  10.406  17.610 -0.0704  0.1734  0.0834
68306W        W11359   6.041  23.581  28.983 -0.2533 -0.2612 -0.1694
68307W        W11360  29.773  13.993  24.983 -0.2357 -0.0975 -0.1475
68308W        W11361   1.429  13.691   1.591  0.2829 -0.2276 -0.0625
68309W        W11362   7.023  30.630  25.761  0.0491  0.0141 -0.3927
68310W        W11363  18.084  12.401   3.941  0.0182  0.1137 -0.1883
68311W        W11364  29.108  12.927  28.345  0.0140  0.3083  0.0860
68312W        W11365  12.060  14.774   6.317 -0.3499  0.2780 -0.0994
68313W        W11366   6.878   7.846   9.439  0.1584  0.0063  0.2813
68314W        W11367  10.192  21.715  18.470  0.4083  0.2383  0.1612
68315W        W11368   4.949  11.519  17.514  0.0273 -0.0312 -0.0696
68316W        W11369   0.619   8.910   6.598 -0.0634 -0.0978 -0.0685
68317W        W11370   8.901  33.457   5.571 -0.0779 -0.2270 -0.1705
68318W        W11371  17.123   2.187   8.913  0.0700 -0.1615 -0.1002
68319W        W11372  26.712  10.464  21.216 -0.3381  0.2128 -0.2589
68320W        W11373  22.325  23.379  28.928  0.0573  0.2295  0.2448
68321W        W11374   5.915   9.613  25.929 -0.4813  0.0994  0.0327
68322W        W11375  18.760  33.511  22.706 -0.2165  0.0286 -0.0668
68323W        W11376  32.240  26.627  25.680 -0.0039 -0.0050  0.2083
68324W        W11377  29.099  32.959   1.531 -0.3569  0.1630 -0.0956
68325W        W11378  27.062  11.780   1.768 -0.0917 -0.2535  0.0108
68326W        W11379  29.989  22.617  16.695 -0.0722 -0.2554  0.1491
68327W        W11380  24.501   6.808   1.561 -0.0689 -0.2864  0.1166
68328W        W11381   7.847  11.005  25.147 -0.0718 -0.3795  0.1254
68329W        W11382  27.933   3.020   9.164 -0.2162 -0.0233  0.3540
68330W        W11383   8.199  15.149   7.153  0.0092  0.0916  0.1282
68331W        W11384   8.021   5.669   0.896  0.2045 -0.0885  0.0641
68332W        W11385   5.616   5.309   7.605  0.1645  0.0647  0.0858
68333W        W11386   6.814  28.762  22.169  0.0715  0.2619  0.0102
68334W        W11387  26.852  21.869   5.928  0.0324  0.0626  0.3875
68335W        W11388   2.450  28.507  20.510 -0.0612  0.2116 -0.0357
68336W        W11389  17.200   2.357  18.445 -0.1027  0.0189  0.0433
68337W        W11390  28.076   6.012   0.358  0.0153 -0.2394  0.1622
68338W        W11391   7.352   1.890   1.598 -0.0059  0.3873  0.1301
68339W        W11392  11.230   1.299   1.409  0.1036  0.2264 -0.3882
68340W        W11393   8.833  12.412   4.449 -0.2163  0.1182  0.1279
68341W        W11394   0.917   9.594  19.680 -0.2381 -0.1501  0.1950
68342W        W11395  11.166  33.358   1.030 -0.2120 -0.2461 -0.3878
68343W        W11396  23.134   5.989   2.257 -0.3154 -0.2359  0.2437
68344W        W11397  21.907  18.223  28.912  0.0381  0.0665  0.3509
68345W        W11398   8.540  23.228  27.283  0.1003 -0.4486 -0.1132
68346W        W11399  33.809  13.706  28.056  0.1352 -0.2887  0.2152
68347W        W11400  12.918  27.399   1.849  0.1561  0.3945  0.0811
68348W        W11401  24.561   2.867  17.591 -0.1557  0.0619  0.0061
68349W        W11402   0.929  14.086   2.685 -0.0152 -0.1518  0.1800
68350W        W11403  13.485   0.473  17.291 -0.0747 -0.0515  0.0665
68351W        W11404   0.528   7.578   7.281 -0.0114  0.2649 -0.0275
68352W        W11405   9.127  12.794  22.631  0.1732 -0.0073  0.0166
68353W        W11406   5.986   2.472   3.266 -0.4147 -0.1001 -0.4103
68354W        W11407  26.630  18.508  21.323 -0.1284 -0.0796 -0.1330
68355W        W11408   2.818   8.445   3.019  0.0626 -0.0237 -0.0103
68356W        W11409   9.558  26.511  24.597  0.1485  0.0250  0.2448
68357W        W11410  26.416   7.299   1.078  0.0212 -0.0637  0.4442
68358W        W11411   9.061  32.192   6.595 -0.1206  0.0039  0.2766
68359W        W11412  15.099  14.699   5.313 -0.1270 -0.0687  0.4961
68360W        W11413   3.693  13.319   0.434 -0.0389  0.3368  0.0314
68361W        W11414  11.060  34.668   1.265  0.1397 -0.1348 -0.0802
68362W        W11415  13.668   7.276  20.182 -0.1617  0.1248 -0.2527
68363W        W11416  20.559  33.423   7.722  0.2450  0.3065 -0.3761
68364W        W11417  14.791  21.189   1.540  0.0660  0.1256  0.1926
68365W        W11418  12.758   8.480  24.343 -0.0817  0.0064 -0.1056
68366W        W11419  32.732  15.547   3.991 -0.1507  0.4284 -0.1576
68367W        W11420   3.256  19.003  27.776 -0.0842  0.0842  0.0740
68368W        W11421   2.485  32.872   4.435  0.0163  0.1351 -0.3019
68369W        W11422   1.512  12.768  23.844  0.0546 -0.1117  0.3301
68370W        W11423  13.276  24.021  22.182 -0.2851 -0.1321 -0.0712
68371W        W11424   4.475  12.919   7.037  0.0700  0.1136  0.4512
68372W        W11425  33.574   9.550  27.257  0.0137 -0.3055  0.2904
68373W        W11426   0.913  20.819   2.936 -0.1062  0.0237 -0.1196
68374W        W11427  28.772   2.442  26.342  0.4431  0.0859  0.4027
68375W        W11428   4.768  12.678   3.937  0.0685 -0.0802  0.3284
68376W        W11429  23.329  21.067   1.564 -0.1909  0.3734  0.5055
68377W        W11430  33.896   6.627  23.259 -0.0167 -0.4973  0.2305
68378W        W11431   2.885  24.529   5.131  0.1026  0.0700 -0.0395
68379W        W11432   1.261  18.168   1.857  0.2272  0.1295  0.0323
68380W        W11433  20.009   5.145  10.203 -0.3016  0.0692 -0.1149
68381W        W11434  12.261   2.947  27.345  0.0316  0.2705 -0.1924
68382W        W11435   3.725  12.034  18.565 -0.0354 -0.3052  0.1184
68383W        W11436  11.250  15.098   4.996 -0.0392  0.0033 -0.1868
68384W        W11437  28.519   5.610   6.693 -0.2873  0.0424 -0.0475
68385W        W11438  10.610   2.747   4.509 -0.2347 -0.3780 -0.2655
68386W        W11439   0.777  10.979   6.066  0.2147 -0.0670 -0.0578
68387W        W11440  18.760   7.888  10.341  0.0028  0.3766 -0.2557
68388W        W11441   6.139   6.991  10.560 -0.0500  0.1449 -0.1593
68389W        W11442   2.747  12.525  21.893 -0.0082  0.2421 -0.1516
68390W        W11443  24.591   9.520  14.632 -0.0884  0.0752  0.0430
68391W        W11444  33.800   9.209  26.449 -0.0783 -0.1524 -0.0453
68392W        W11445   6.687   5.759   6.120 -0.2028  0.0780  0.0625
68393W        W11446   4.133  22.733  25.206  0.0407  0.1604 -0.2278
68394W        W11447  32.575  25.026  23.967 -0.3608  0.4051  0.2136
68395W        W11448  14.701  19.939  23.749  0.2426 -0.1133 -0.0044
68396W        W11449  12.661  14.665  21.239  0.2117  0.1232 -0.0051
68397W        W11450   3.681   8.632  26.685 -0.2294  0.0847 -0.2986
68398W        W11451  32.751   7.187   9.464  0.0433  0.2341 -0.0577
68399W        W11452   3.895  26.249  23.724 -0.1293 -0.2536 -0.0317
68400W        W11453   8.111   9.711   0.519  0.1605  0.1882 -0.0082
68401W        W11454  29.177  11.459  28.802 -0.0682  0.1028  0.1910
68402W        W11455  21.259  25.183  15.481  0.3406 -0.1309  0.3760
68403W        W11456   4.245  12.220  29.146  0.1078  0.1995  0.0116
68404W        W11457   3.732   7.047  14.664 -0.2459 -0.3216  0.0127
68405W        W11458  28.523   3.474   2.196 -0.0116 -0.0455  0.0767
68406W        W11459   8.899  25.525  23.493  0.0662 -0.1407 -0.2693
68407W        W11460   9.464  10.322   7.043 -0.1498 -0.2021 -0.2369
68408W        W11461  34.652   2.162   4.368  0.2352  0.0262 -0.1550
68409W        W11462  33.822  14.451   1.981  0.0090  0.2609  0.0202
68410W        W11463   1.752  26.669  22.353  0.0562  0.2394 -0.0286
68411W        W11464  26.580   5.654   9.516 -0.0366 -0.1883  0.0655
68412W        W11465  30.550   8.339   9.143 -0.1267 -0.0554  0.1002
68413W        W11466  25.446   3.993   1.178 -0.1747  0.2826  0.0431
68414W        W11467  33.826  25.271  15.181  0.1131 -0.2425  0.0458
68415W        W11468   6.075   6.042  22.950  0.0554  0.0588  0.1017
68416W        W11469  26.878   5.647  18.276  0.1107 -0.0379  0.1134
68417W        W11470  31.487  13.949   2.039 -0.0208  0.2778  0.0830
68418W        W11471   5.395  16.802  28.216 -0.0771  0.1933  0.1432
68419W        W11472  25.725   5.106   9.139 -0.0989  0.1351  0.0167
68420W        W11473   8.326  13.113  28.294  0.3088  0.1658  0.4781
68421W        W11474   3.616  11.561  25.287  0.1828 -0.1443  0.1465
68422W        W11475   1.876  16.291   2.857 -0.2105  0.0020 -0.1471
68423W        W11476  18.768   9.651   7.759 -0.0266 -0.1897 -0.0293
68424W        W11477  19.068  12.262   0.062 -0.2943 -0.3210  0.1908
68425W        W11478  15.998   3.951   9.351  0.0734  0.0039 -0.0247
68426W        W11479  31.302  34.147  25.657 -0.2101  0.1064 -0.1059
68427W        W11480  16.177   8.300  24.859 -0.0286  0.1460  0.2222
68428W        W11481  11.941  32.767  19.025  0.1193 -0.0807 -0.1752
68429W        W11482   3.591   2.180  15.161 -0.2128 -0.0076  0.3620
68430W        W11483  21.082  15.238   4.185 -0.1296  0.4421 -0.3101
68431W        W11484   9.029   1.921  16.657  0.0568  0.0896 -0.3152
68432W        W11485   0.865  12.385   5.423  0.1264 -0.1013  0.1193
68433W        W11486  14.388  14.971   7.160  0.1191  0.2778  0.2083
68434W        W11487  23.942  21.002   3.580  0.1334  0.0379 -0.0896
68435W        W11488  34.587  12.658   8.955 -0.0854  0.0245  0.1539
68436W        W11489  13.905  26.018  26.656 -0.0394 -0.1730 -0.2543
68437W        W11490  15.542  33.408  26.773  0.2238  0.2639  0.2419
68438W        W11491  16.889   2.927   1.210  0.0537 -0.0810 -0.1060
68439W        W11492   9.995   8.801   8.682  0.1486 -0.0367  0.1082
68440W        W11493   6.263  17.463  13.951 -0.1078  0.1765 -0.0980
68441W        W11494   2.208  18.936   7.520  0.0783 -0.1752 -0.0265
68442W        W11495  32.262   0.613  14.900  0.0333 -0.0143  0.3352
68443W        W11496  30.551  23.715  25.134  0.0565 -0.0161 -0.2082
68444W        W11497  19.682  27.294  20.012 -0.3728 -0.0728  0.2183
68445W        W11498  18.558  33.721   7.721 -0.0770  0.1063  0.0168
68446W        W11499  31.322  30.047  28.346  0.2487  0.1136 -0.1748
68447W        W11500   1.502   7.574  26.853  0.1220 -0.0095  0.0108
68448W        W11501  12.051  13.911   0.668 -0.2294  0.1659  0.1926
68449W        W11502   7.016   1.684  26.235  0.0926 -0.1800 -0.0617
68450W        W11503   6.691  18.478   5.012  0.0703  0.1805 -0.0516
68451W        W11504  16.748  31.299   5.017 -0.0294 -0.0049 -0.0357
68452W        W11505   6.895  27.178   0.519  0.2311  0.2274 -0.0918
68453W        W11506  13.233  27.214  26.485  0.0640  0.0207 -0.1622
68454W        W11507  33.845  13.001   6.414  0.0287 -0.1168 -0.1075
68455W        W11508  20.965   2.518   1.223 -0.0047 -0.1604  0.1962
68456W        W11509   2.975   4.288  22.730 -0.4014 -0.0733 -0.0773
68457W        W11510   4.284  23.544   3.505  0.0169  0.2788 -0.2186
68458W        W11511  30.029  31.488  21.482 -0.0370 -0.0416  0.1072
68459W        W11512  13.104  29.068  27.596 -0.1518  0.0005  0.1802
68460W        W11513  32.214  26.812  26.403 -0.0125 -0.2282  0.1086
68461W        W11514   7.203  16.279   3.918 -0.1963 -0.1197  0.0668
68462W        W11515  23.107  18.929  22.006  0.0856 -0.0489 -0.0357
68463W        W11516  31.324  29.616   1.599  0.1347 -0.0993 -0.0583
68464W        W11517   2.412   0.242  29.195 -0.1086  0.0803 -0.1432
68465W        W11518  26.427   6.346  28.940  0.0801  0.1849  0.0830
68466W        W11519  11.497   2.942   4.725 -0.3317 -0.1816  0.0815
68467W        W11520  22.441   5.028   7.851  0.2025 -0.1677  0.2037
68468W        W11521  25.162  20.407  26.252 -0.2960  0.0376  0.0096
68469W        W11522  34.427   0.826   5.090 -0.0328  0.0765 -0.0688
68470W        W11523   4.213  12.658   8.989  0.1453  0.0610 -0.0205
68471W        W11524  31.613  28.869   4.188 -0.0168 -0.2663  0.4555
68472W        W11525  28.429  27.417   2.570  0.2533  0.1194 -0.0048
68473W        W11526  34.573  20.216   4.819  0.2666 -0.1985 -0.1794
68474W        W11527   4.763   4.039   6.538 -0.0922  0.0048 -0.2145
68475W        W11528   2.682   6.887  26.712 -0.2057  0.0604 -0.1702
68476W        W11529   3.930  13.523   8.068 -0.1966 -0.1599  0.0395
68477W        W11530  21.266  16.813  21.207 -0.0889  0.0669 -0.3366
68478W        W11531   0.905  29.848   7.895  0.1122  0.0312 -0.2147
68479W        W11532  20.524  16.506   3.879  0.0559  0.1345 -0.2347
68480W        W11533   4.343  30.058  29.109 -0.5735  0.0097  0.0602
68481W        W11534  11.519   1.610   4.020  0.0910  0.0215  0.1129
68482W        W11535  19.404  17.083  21.951 -0.0210 -0.1158  0.0068
68483W        W11536  29.599  17.918  24.691 -0.2951 -0.2936  0.1322
68484W        W11537  31.985  30.751  27.359  0.4408  0.0391 -0.2699
68485W        W11538  28.509  10.624   0.948 -0.0987  0.4658  0.1615
68486W        W11539   6.060  33.201   4.136 -0.1513  0.0869  0.1270
68487W        W11540   8.363   1.840  28.869 -0.0280 -0.0887  0.0915
68488W        W11541  12.934   7.676  28.634 -0.0035 -0.1553  0.1853
68489W        W11542   5.182  12.936  19.765  0.2829  0.0426 -0.0153
68490W        W11543  10.500  23.139   9.444  0.2544 -0.0814  0.1570
68491W        W11544  18.464  29.855  24.392 -0.1387  0.0300 -0.3553
68492W        W11545   5.791  23.929  25.343  0.0978  0.1994 -0.1774
68493W        W11546  30.203   5.351  15.958 -0.1210  0.0922 -0.0733
68494W        W11547   1.308  13.550  19.565  0.3260  0.0772 -0.2669
68495W        W11548  15.132  13.990  13.890 -0.0904  0.3540 -0.2561
68496W        W11549  15.532  32.459   1.426  0.0815 -0.1001 -0.1015
68497W        W11550   7.574  13.500  16.134 -0.0828 -0.0623 -0.0242
68498W        W11551  32.719  31.164  16.065  0.1104 -0.0668 -0.0516
68499W        W11552  21.461  17.438  23.090  0.2972  0.0690  0.0189
68500W        W11553   1.927  18.862   3.259 -0.1855  0.0772 -0.0555
68501W        W11554   3.360  26.622   4.663 -0.2496  0.0220  0.0691
68502W        W11555  10.706  20.715  26.932  0.1541 -0.0990  0.1819
68503W        W11556  28.821   4.405  28.825  0.0221  0.2287 -0.0863
68504W        W11557  33.736  32.757  22.471 -0.0664  0.1304  0.1354
68505W        W11558  11.105  33.798   7.151  0.1464  0.2220  0.1740
68506W        W11559  27.073  13.195   3.611 -0.0535  0.0358 -0.3267
68507W        W11560  20.617  15.721  21.520  0.0513 -0.1159  0.0485
68508W        W11561  19.986   6.711  25.817 -0.0380  0.4325  0.0451
68509W        W11562  30.926   0.800   8.281  0.2593 -0.0764 -0.0463
68510W        W11563   4.828  11.406  21.678 -0.0362 -0.0833  0.1752
68511W        W11564  26.605  11.533  17.239 -0.2220 -0.0918 -0.3921
68512W        W11565  27.289   6.128  18.881 -0.1486 -0.1054  0.3237
68513W        W11566  23.389  28.705  27.612  0.1222  0.1513  0.0832
68514W        W11567  31.862  12.497   6.118  0.3189 -0.0774  0.1644
68515W        W11568  29.367   0.353   7.694  0.2611  0.1278  0.0661
68516W        W11569  15.901   3.971  28.708  0.0528  0.1934 -0.0085
68517W        W11570  31.000   3.743   0.458 -0.1536  0.0841  0.2507
68518W        W11571  25.100  13.023  24.799 -0.1512  0.1661  0.1711
68519W        W11572   2.763  20.461  29.030 -0.0941  0.0941  0.0476
68520W        W11573   5.470  16.056  27.128  0.0702 -0.1910  0.0403
68521W        W11574  12.749   8.447   3.644 -0.0602  0.1643  0.2054
68522W        W11575   0.379   5.155   8.244  0.1594  0.1209  0.2157
68523W        W11576   8.340   2.252  21.665 -0.0961 -0.3617 -0.3543
68524W        W11577  10.618  12.211   2.547 -0.4000 -0.1257  0.0516
68525W        W11578   7.742  22.319   7.741 -0.0698  0.2054  0.2178
68526W        W11579  10.932  31.041   3.724 -0.0484  0.1371 -0.0737
68527W        W11580   4.112  33.996  28.726 -0.0571 -0.0597 -0.4023
68528W        W11581  33.214   8.130   2.323 -0.0474  0.2089 -0.0584
68529W        W11582   0.101  20.536   7.529 -0.3127 -0.3928 -0.1364
68530W        W11583   9.748   1.720   0.557 -0.2460  0.0104 -0.0366
68531W        W11584  14.215  33.603  25.173 -0.0409  0.0295  0.2510
68532W        W11585  16.604   3.626  23.123  0.1275  0.2889  0.1973
68533W        W11586  33.672  12.632   5.263  0.2007  0.2467 -0.2655
68534W        W11587  12.960  11.062   2.720  0.2518  0.0745 -0.1589
68535W        W11588  30.532  12.574  16.010  0.1139  0.0792  0.0389
68536W        W11589  31.742   7.577   2.314 -0.3397 -0.2543  0.0429
68537W        W11590  12.574  30.715   4.559 -0.1764  0.0016 -0.0283
68538W        W11591  14.094  12.594  27.358 -0.1502 -0.4663 -0.0716
68539W        W11592  28.102  28.365  18.970  0.0016  0.1724 -0.2791
68540W        W11593   5.520   8.964  15.584  0.1569 -0.1415  0.4265
68541W        W11594  26.358  17.324   0.559 -0.0821  0.2717  0.0482
68542W        W11595  28.146  28.490  26.620  0.0758  0.2284  0.1325
68543W        W11596   6.313  31.278   1.275  0.1178 -0.0413  0.1523
68544W        W11597   9.888   9.559  27.983  0.2376  0.0195  0.1892
68545W        W11598   3.398   4.515   6.010  0.0511  0.1582 -0.0054
68546W        W11599  22.922   8.332  21.396 -0.0591  0.1024  0.0838
68547W        W11600  15.517  22.916  10.007  0.1443 -0.2969  0.2077
68548W        W11601  11.569   1.013  22.727 -0.0074  0.0747  0.2185
68549W        W11602   6.573  15.363   9.202  0.3905 -0.0018 -0.0703
68550W        W11603  10.432  18.073  19.808  0.1246  0.1039 -0.3783
68551W        W11604  10.864   8.674  29.023  0.1878 -0.2728  0.0043
68552W        W11605   0.426  23.709  14.653  0.0921 -0.2394 -0.2581
68553W        W11606  16.559  17.534  24.100  0.6331 -0.0025 -0.0847
68554W        W11607   0.006  11.477   7.210 -0.1679 -0.0340  0.1297
68555W        W11608  22.935  11.717  18.167 -0.0179  0.4369 -0.1123
68556W        W11609  29.674  12.555  19.682 -0.3240  0.1015  0.2646
68557W        W11610   7.229   3.033   5.515 -0.1445  0.2982 -0.0007
68558W        W11611  21.792   3.743  25.762 -0.0948 -0.1978 -0.1504
68559W        W11612  19.107  11.249   1.082 -0.0219  0.0620 -0.0927
68560W        W11613  21.676   4.761  24.728 -0.1144  0.1377  0.1038
68561W        W11614  19.106  11.471   2.393  0.4311  0.1541  0.0929
68562W        W11615  27.233  16.240   7.620 -0.1662 -0.0794  0.1985
68563W        W11616  33.791  15.702  28.368 -0.0152  0.1317 -0.3127
68564W        W11617  11.378  11.788   6.432 -0.1439  0.2004 -0.0153
68565W        W11618  16.619  27.916   4.318 -0.2214  0.0430  0.0323
68566W        W11619   6.076   6.842  20.785 -0.0669 -0.0874 -0.2990
68567W        W11620   8.292  30.423  25.347 -0.0054 -0.1094  0.0664
68568W        W11621   8.475   6.665  19.672  0.1656 -0.1259  0.0479
68569W        W11622  34.597   1.873  22.586 -0.2610 -0.0479  0.2225
68570W        W11623  26.788  21.631   6.381 -0.3263  0.1209 -0.0629
68571W        W11624  17.659  19.353   2.969  0.1247 -0.1744 -0.1238
68572W        W11625  30.007  32.544   1.114  0.3356  0.1315  0.2169
68573W        W11626   3.649   2.587   0.098 -0.2608  0.2545  0.0631
68574W        W11627  12.841  10.067   1.837  0.1388 -0.0294 -0.0364
68575W        W11628  16.151  31.383  25.417 -0.0750  0.3036  0.0423
68576W        W11629   3.262  10.002   2.112 -0.3466  0.0219 -0.0734
68577W        W11630  32.630  12.307   8.354 -0.3232 -0.0650 -0.2606
68578W        W11631  10.410  27.965   1.745 -0.0116 -0.1886 -0.2473
68579W        W11632   6.849  13.166  27.264 -0.0025  0.2185  0.1722
68580W        W11633   8.873  27.797   6.788 -0.0694  0.1516  0.1372
68581W        W11634  34.322  15.827   5.514  0.3908  0.0386 -0.2892
68582W        W11635  31.534  10.634   0.585 -0.0941  0.0232 -0.0471
68583W        W11636  34.634  26.425   4.037  0.1592 -0.4224 -0.0713
68584W        W11637   1.256  13.541   5.914 -0.1988  0.0253 -0.1102
68585W        W11638   8.028  14.603   4.099  0.0402 -0.1596 -0.0727
68586W        W11639   3.465  11.396   8.572  0.1800 -0.1541  0.0321
68587W        W11640   2.529  19.350   7.644  0.0449  0.2537  0.1383
68588W        W11641   1.585  12.455   3.978 -0.1638  0.0269 -0.0578
68589W        W11642  20.762  16.194  26.187  0.3050 -0.0453  0.3227
68590W        W11643  16.311  26.238   3.379  0.2271 -0.1445 -0.0914
68591W        W11644  14.892  10.359   6.676  0.1235 -0.2003  0.1514
68592W        W11645   6.288   6.775   2.577  0.0195 -0.1492 -0.0460
68593W        W11646  32.878   2.597   0.407  0.3203 -0.2778 -0.2228
68594W        W11647   4.400   6.232   0.307  0.0904  0.2954 -0.1356
68595W        W11648   2.406   9.870  27.205 -0.0240 -0.0499  0.0927
68596W        W11649   1.837  26.200   7.263  0.0705  0.0901  0.2107
68597W        W11650   9.795  33.692  25.888 -0.0534 -0.3015  0.0654
68598W        W11651   6.650  13.761   7.166  0.0722 -0.2577  0.0578
68599W        W11652   6.507  12.672  18.738  0.1382 -0.1622  0.1186
68600W        W11653  11.597  15.077   0.636 -0.1046  0.2377  0.1718
68601W        W11654  24.527  30.389   5.661 -0.1518  0.1000  0.1973
68602W        W11655  12.430   5.882  20.378  0.0658 -0.1328 -0.3672
68603W        W11656   5.434  13.274   2.312  0.2794  0.1726 -0.1794
68604W        W11657  23.678   7.437   0.439  0.0705  0.0968  0.0644
68605W        W11658  34.651  12.624  15.695  0.3375 -0.0391 -0.0097
68606W        W11659   5.417   3.341  16.738 -0.3215  0.1486  0.0413
68607W        W11660  24.282  19.879   2.536  0.4131 -0.1566 -0.3245
68608W        W11661   2.765   4.974   2.566  0.1035  0.1349  0.0192
68609W        W11662  29.873   9.693   8.431 -0.0548 -0.2111  0.1536
68610W        W11663  34.073  16.668   2.764  0.1771 -0.0500 -0.2204
68611W        W11664   0.381   5.853   4.518 -0.1300 -0.0529 -0.2397
68612W        W11665  13.201   7.781   6.288 -0.0447 -0.2640  0.0341
68613W        W11666   9.369   9.663   0.267 -0.0716  0.1930 -0.6012
68614W        W11667   1.396  32.274   6.530 -0.2319  0.2707 -0.0394
68615W        W11668  28.976  19.242  25.171  0.2394  0.0075  0.1916
68616W        W11669  18.534  10.323   3.434  0.0096  0.1617  0.1270
68617W        W11670  16.813  13.591  14.425 -0.0988  0.0040 -0.0976
68618W        W11671   9.385  16.114  26.822 -0.1341  0.0994 -0.0713
68619W        W11672  33.011   5.723   3.216  0.1298 -0.1866  0.0001
68620W        W11673   1.869   6.921  24.199 -0.1900 -0.1388 -0.1420
68621W        W11674  21.292  32.019  25.316 -0.1449  0.1389  0.1182
68622W        W11675   1.863   5.298  24.923  0.1920 -0.1419  0.0858
68623W        W11676  31.371   9.464   6.623 -0.4671 -0.0357  0.1865
68624W        W11677  30.921   2.167   9.320 -0.0396  0.2265  0.2317
68625W        W11678  33.906   6.503   1.299 -0.3425  0.0579 -0.1965
68626W        W11679  33.467  12.705   3.943 -0.0045  0.0943  0.1653
68627W        W11680   2.479  26.515   8.766  0.0853 -0.1894  0.1267
68628W        W11681   2.698   0.401   4.908 -0.0409 -0.1097 -0.2326
68629W        W11682   1.825  32.288  24.797  0.2268  0.0387 -0.0590
68630W        W11683  17.762   9.185   3.150 -0.2085 -0.0031 -0.1772
68631W        W11684  20.455   5.855   1.269 -0.0629  0.2611  0.1465
68632W        W11685  20.306  29.355   3.412  0.0003 -0.1215 -0.1638
68633W        W11686  28.329   7.058  16.467 -0.0999  0.0392 -0.1736
68634W        W11687  19.670   5.074  18.036 -0.2956 -0.3038 -0.1720
68635W        W11688  13.127  32.700  17.591 -0.1090 -0.1293  0.0611
68636W        W11689   5.116  28.310   8.730 -0.0092  0.1768  0.1686
68637W        W11690   0.559   5.921   5.008  0.0989  0.1411 -0.1128
68638W        W11691  18.861  22.800  22.427  0.3089  0.1410  0.1774
68639W        W11692  18.282  28.355   7.358 -0.3042  0.0535  0.0212
68640W        W11693  10.540  32.473   5.917  0.1386 -0.3154  0.4561
68641W        W11694   5.414  34.508  28.919  0.1442  0.0372  0.1744
68642W        W11695  22.360   4.158   2.650 -0.3606  0.2568  0.1247
68643W        W11696  30.823  11.551  26.867  0.3142 -0.0664 -0.3421
68644W        W11697   2.392  12.204   8.224  0.3562 -0.1096 -0.0159
68645W        W11698   1.048   1.300   9.082 -0.0994  0.0312 -0.1001
68646W        W11699   9.287   6.194  27.880 -0.1019 -0.0063  0.2196
68647W        W11700  10.398  32.462   8.776  0.0363 -0.0652  0.2677
68648W        W11701  20.659   8.007   2.323  0.0404 -0.1391 -0.3310
68649W        W11702  32.868  32.425   8.350  0.1259 -0.0312 -0.0613
68650W        W11703   2.996   8.977  21.014 -0.1025 -0.1269 -0.2051
68651W        W11704   1.906  14.058  28.403  0.2148  0.0579 -0.3177
68652W        W11705   2.867   1.604  28.367  0.0097 -0.4380 -0.3438
68653W        W11706   6.100  20.235  27.819  0.2923  0.1310  0.1271
68654W        W11707  19.442  12.310   4.427  0.0928  0.3449  0.3222
68655W        W11708   0.821  14.882   5.456 -0.1330  0.1270 -0.0420
68656W        W11709   0.657  24.447   5.169 -0.1392  0.0250  0.0196
68657W        W11710  33.812  33.526   1.604 -0.0579 -0.1382  0.4731
68658W        W11711  14.362   4.498  15.683  0.0791 -0.0037  0.0357
68659W        W11712   9.351  12.837   6.028 -0.2103 -0.2088 -0.0057
68660W        W11713  13.127   1.783   7.325 -0.2143 -0.0193  0.1397
68661W        W11714   3.774   7.083  23.473 -0.0279 -0.1422  0.1286
68662W        W11715  27.491   4.287  27.148 -0.1324 -0.0665  0.2032
68663W        W11716   7.313   6.075   5.333 -0.3093  0.1154 -0.0031
68664W        W11717  19.680  17.346   2.720  0.0790 -0.0462  0.3483
68665W        W11718  26.275  32.470   9.761  0.1419  0.0264 -0.1003
68666W        W11719  17.302  33.338   4.256  0.3462 -0.0226  0.0569
68667W        W11720   4.001   5.656   5.139 -0.0958 -0.0399  0.0445
68668W        W11721   2.795   6.254   9.762 -0.2553  0.2210 -0.0238
68669W        W11722  30.569  29.266  20.305 -0.3046 -0.2656  0.2202
68670W        W11723  28.819   6.418  26.581 -0.0567 -0.0434  0.0826
68671W        W11724  18.640  34.539   1.410 -0.0887  0.3356 -0.1763
68672W        W11725  33.583   3.262   6.826  0.1403 -0.0761  0.0674
68673W        W11726   4.478  10.027   0.469 -0.1211  0.2437  0.1295
68674W        W11727  15.731   1.815  26.102 -0.2008  0.0121  0.0330
68675W        W11728   4.503  31.886   8.468 -0.0025  0.0119  0.3649
68676W        W11729  10.248  30.196   0.165  0.1501 -0.2609 -0.0021
68677W        W11730   2.330  12.296  25.166  0.1186 -0.0988  0.0539
68678W        W11731  34.658  10.371   8.187 -0.5014  0.1420  0.0228
68679W        W11732   7.790  29.009   6.048 -0.0104  0.0512  0.3208
68680W        W11733  33.006   7.108   5.138 -0.0228 -0.2198  0.5358
68681W        W11734   3.639  23.444  28.562  0.0189 -0.3498 -0.0969
68682W        W11735   2.386  14.763   8.878 -0.1546 -0.3347  0.0130
68683W        W11736   6.103  25.014   0.996  0.3842  0.1738 -0.0440
68684W        W11737  22.944   0.816   3.413 -0.2227 -0.3284 -0.3821
68685W        W11738  13.629   9.947   9.576  0.0577 -0.0664 -0.0491
68686W        W11739  14.665  32.044  26.034 -0.2136 -0.2443  0.0125
68687W        W11740  19.729   6.646   6.076 -0.2091  0.2051 -0.0924
68688W        W11741  18.022   3.782  25.797  0.4417  0.0526 -0.2441
68689W        W11742   3.490   7.301   3.767  0.0638  0.4374  0.2502
68690W        W11743   8.877   5.147   6.563  0.1979  0.0006 -0.5398
68691W        W11744  33.388  10.173   7.105 -0.0361  0.1713 -0.1655
68692W        W11745   6.639   0.676   5.422 -0.0690 -0.0398  0.0516
68693W        W11746  20.536   7.798   7.972  0.0083 -0.0535 -0.2584
68694W        W11747  15.902  12.991   1.461 -0.0986  0.0092  0.1958
68695W        W11748  32.066  22.182   5.831 -0.2703 -0.1997  0.0513
68696W        W11749  24.630  15.771   2.305 -0.1787  0.2119 -0.4328
68697W        W11750  15.972   9.568   4.809  0.2890 -0.2716 -0.0404
68698W        W11751   9.775  23.788   6.715  0.2350  0.2290 -0.0261
68699W        W11752  13.522   4.580  23.373 -0.0937 -0.1347 -0.0211
68700W        W11753   1.844  11.446  26.603 -0.1194  0.0910  0.1327
68701W        W11754   8.594  10.085  10.411 -0.0084 -0.0271  0.1896
68702W        W11755  13.281  28.397  13.563  0.0563  0.1363  0.1755
68703W        W11756   0.145  14.224  23.437  0.0559  0.0817  0.3398
68704W        W11757  10.729   7.889   6.856  0.2687 -0.2622  0.0211
68705W        W11758   5.408  20.055   7.805  0.2040  0.1472 -0.0372
68706W        W11759   8.151   0.008   1.747 -0.2413  0.0304 -0.1364
68707W        W11760   6.766  16.307  26.890  0.0347 -0.1824  0.0017
68708W        W11761  19.908   9.371  22.696 -0.1554  0.2633 -0.4060
68709W        W11762   9.060  20.478   5.745 -0.2294 -0.0049  0.1756
68710W        W11763   2.670  19.046   5.944  0.1613  0.1428 -0.0271
68711W        W11764  11.738  31.430   3.373 -0.2821 -0.3030 -0.0528
68712W        W11765   5.275   2.856   7.028 -0.0341  0.3569  0.2655
68713W        W11766  32.137   2.974   7.305 -0.1503 -0.2655 -0.2031
68714W        W11767  22.702   5.387   6.586  0.0565  0.3632  0.0736
68715W        W11768  28.954  18.839  20.488 -0.1318 -0.2894 -0.1525
68716W        W11769  19.825  11.504   5.372 -0.3200 -0.2974 -0.0168
68717W        W11770  32.171  32.960   4.748  0.3770 -0.1443 -0.0981
68718W        W11771  28.758   6.657   9.743 -0.2126 -0.2468 -0.1706
68719W        W11772  16.914  13.824   2.084  0.1761 -0.0045  0.1201
68720W        W11773  13.294  19.418   5.333 -0.0141  0.2722 -0.1968
68721W        W11774  24.592  32.051   3.323  0.0140 -0.4607 -0.4293
68722W        W11775   3.313   3.455   4.749  0.3368  0.1437  0.0871
68723W        W11776  27.348   9.732   2.316 -0.0592  0.3434 -0.1722
68724W        W11777  27.917   0.692   0.717  0.2986 -0.0380  0.2048
68725W        W11778  33.120  31.213   9.492  0.1640  0.0692 -0.1610
68726W        W11779  12.439   3.473   3.092 -0.2559  0.0144  0.1999
68727W        W11780  24.038   2.848   4.305 -0.2204 -0.1234  0.0448
68728W        W11781  10.341   7.074  28.946 -0.0733 -0.2247 -0.0761
68729W        W11782  27.123   3.994  22.926 -0.2107  0.0753 -0.0200
68730W        W11783   7.159   9.780  14.645  0.3231 -0.1175 -0.0492
68731W        W11784  10.427   2.230  16.259 -0.4309 -0.2397 -0.3687
68732W        W11785  30.375   7.696   5.223 -0.1468 -0.0941 -0.0456
68733W        W11786  12.706  28.450  23.718  0.0513  0.1168  0.1920
68734W        W11787  19.655  19.158   1.538  0.0122  0.2830  0.2341
68735W        W11788   1.468  16.449  19.247 -0.2830 -0.0885 -0.1604
68736W        W11789   8.840  11.376   4.467  0.0310  0.1517  0.2224
68737W        W11790  20.603  33.712   2.394 -0.1565  0.2805  0.4795
68738W        W11791  33.824   7.380   5.862 -0.2801 -0.2201  0.0030
68739W        W11792   5.164   0.634   9.184 -0.0190 -0.1775  0.0684
68740W        W11793  12.520   4.821   4.344 -0.3506  0.0626 -0.1476
68741W        W11794   3.308   9.949  20.665  0.1871  0.1726  0.2205
68742W        W11795  27.676  31.946  16.918  0.0794  0.0767  0.1148
68743W        W11796  27.266  16.852  27.054  0.1046 -0.0789  0.1397
68744W        W11797   3.786  21.241   0.532  0.0503 -0.0775  0.0677
68745W        W11798  32.808  30.521  20.288 -0.3988  0.3754  0.2600
68746W        W11799  30.109  34.545  25.928 -0.2091  0.0089  0.3948
68747W        W11800  18.852  26.010  10.803  0.0353 -0.0481 -0.3164
68748W        W11801  34.546   5.135  23.620 -0.3103  0.1105 -0.3327
68749W        W11802   4.285   4.696   3.502 -0.1687 -0.2185 -0.0540
68750W        W11803  31.796   4.309   3.738 -0.0965  0.2656  0.0832
68751W        W11804   7.409  29.150   5.102  0.2087  0.2721  0.0781
68752W        W11805  14.555  32.281   9.651 -0.2785  0.1696  0.2195
68753W        W11806  20.691  28.444   1.103 -0.3094  0.2266  0.0640
68754W        W11807  16.768   5.155   2.106 -0.0963  0.0491  0.0797
68755W        W11808   7.366  15.652   7.510  0.1543  0.2755  0.1012
68756W        W11809   8.525   7.330  26.956  0.1152 -0.0090 -0.1235
68757W        W11810  18.566  17.851   4.453 -0.4697  0.3921  0.0789
68758W        W11811  29.069   8.624   0.405  0.1786  0.0907  0.2097
68759W        W11812  30.614  29.982   6.170  0.2246 -0.0527 -0.1910
68760W        W11813  27.483  19.913  17.820 -0.0527 -0.3154 -0.0951
68761W        W11814  30.174   4.722   9.761 -0.2533  0.1434 -0.3496
68762W        W11815   1.766  12.722   2.078  0.3372 -0.1427  0.1419
68763W        W11816  21.474   8.985  10.451  0.2608 -0.1072 -0.0264
68764W        W11817   6.099   7.148   9.746 -0.5090  0.1764  0.0679
68765W        W11818  11.043  12.258  24.715 -0.1368 -0.3100  0.1157
68766W        W11819   9.829  25.034   5.676  0.3352  0.1205 -0.1293
68767W        W11820  10.331  32.822   5.618 -0.0530 -0.1949 -0.0086
68768W        W11821   9.875   3.733   1.355 -0.0011 -0.1387  0.1994
68769W        W11822   2.919   7.805  20.336  0.0057  0.0691 -0.2017
68770W        W11823  32.490  15.655  28.197  0.0466  0.0640 -0.1389
68771W        W11824  28.874   8.126   2.896  0.0262 -0.0182 -0.1564
68772W        W11825   6.068  32.486  25.426  0.0535  0.2665 -0.0803
68773W        W11826  33.228  32.263  20.748  0.0357 -0.2582  0.1436
68774W        W11827   3.910  29.141  24.199 -0.0697 -0.0215  0.0037
68775W        W11828   9.659   6.612  18.889  0.1963 -0.0829  0.0119
68776W        W11829  16.131   5.665  15.659 -0.1820  0.1579 -0.0184
68777W        W11830  27.376  23.282  25.960  0.0020 -0.1428 -0.1425
68778W        W11831  33.147   2.377   3.300  0.0964 -0.1932 -0.2071
68779W        W11832   7.559   7.539   2.163 -0.1374  0.4597  0.5390
68780W        W11833   8.674  15.371   9.612 -0.0775 -0.0322 -0.1064
68781W        W11834  26.405   8.318  24.097  0.1775  0.0063 -0.1075
68782W        W11835  13.722  33.067   8.782 -0.1517 -0.4944 -0.0870
68783W        W11836  20.683  21.847   3.489 -0.1591 -0.3029  0.0342
68784W        W11837   5.717  14.372  20.633  0.3466 -0.0613  0.1808
68785W        W11838  23.375  20.052  27.870 -0.0991 -0.2190 -0.4605
68786W        W11839   9.787  29.658  26.184  0.2134 -0.1419  0.3103
68787W        W11840  12.064   7.897  26.006  0.2422 -0.2606 -0.3297
68788W        W11841   6.552   3.380   8.848  0.1255 -0.2399 -0.1241
68789W        W11842   9.114  15.711  27.882 -0.2419 -0.1582  0.0492
68790W        W11843  28.776  34.326  24.086 -0.0790 -0.0989 -0.3530
68791W        W11844   3.066   3.533  22.966  0.2009  0.1089  0.1926
68792W        W11845   8.300  22.455  22.829  0.2822 -0.0460 -0.0364
68793W        W11846  33.777   5.582   8.114  0.0589 -0.0931  0.1422
68794W        W11847  17.683   1.716  26.174  0.2059 -0.0452  0.1959
68795W        W11848   0.031  29.241  17.132  0.1282  0.1317  0.0154
68796W        W11849  10.324   9.834  27.981 -0.1751 -0.1455  0.5723
68797W        W11850  27.028  29.293  18.700  0.3297 -0.0638 -0.1659
68798W        W11851  31.589   0.418   6.797  0.2084  0.1741  0.2011
68799W        W11852   8.519  11.324  10.181  0.1457 -0.1126 -0.2608
68800W        W11853  22.462   2.047   5.125  0.0505  0.1043 -0.1663
68801W        W11854   8.306  10.342  27.947 -0.0073 -0.2336 -0.2663
68802W        W11855   5.307   7.255  18.276  0.1088  0.3402 -0.0726
68803W        W11856   7.441   0.557   1.691 -0.0146  0.0961 -0.6173
68804W        W11857  15.756  17.250   4.861  0.1149  0.1266  0.0148
68805W        W11858  26.030   1.220   8.573 -0.2516  0.2658 -0.2959
68806W        W11859  25.885  31.641   2.265 -0.0288 -0.0852  0.0840
68807W        W11860  21.914  20.395  15.756  0.1132  0.1427 -0.2111
68808W        W11861   7.635  12.931   9.056  0.2922 -0.0623  0.0299
68809W        W11862  20.619  13.138  23.903  0.0652 -0.0722  0.1373
68810W        W11863   6.280  14.708  23.691  0.2089 -0.0056 -0.2177
68811W        W11864  15.663  19.388   3.919 -0.1432  0.1305  0.1168
68812W        W11865   3.168  27.836   3.830  0.2623 -0.0945  0.0731
68813W        W11866  26.350  15.401   4.264  0.0823 -0.0460  0.0204
68814W        W11867  19.235   6.216   1.030 -0.1988 -0.0659  0.1510
68815W        W11868  11.489   4.620   3.999  0.3502  0.0061  0.0426
68816W        W11869   1.010   5.577   5.292 -0.0330 -0.1520  0.1111
68817W        W11870  32.826  24.339   2.395 -0.2607 -0.0941 -0.1730
68818W        W11871   5.154   9.600   9.564  0.2995  0.0396 -0.0624
68819W        W11872  12.801  27.663   3.188 -0.0714  0.3428  0.0746
68820W        W11873  32.740   8.996   1.388  0.1890 -0.1930 -0.3753
68821W        W11874  10.693   4.580   7.895  0.0911 -0.0935 -0.0396
68822W        W11875  33.487   6.545  26.164 -0.0976  0.2380  0.0792
68823W        W11876   7.044  18.623  21.249 -0.0131  0.1527  0.2117
68824W        W11877  22.226   9.026   0.240  0.0096  0.2147  0.0093
68825W        W11878  34.551   7.608   9.784  0.1997 -0.0941 -0.2874
68826W        W11879   3.591  11.079   3.015  0.3287 -0.3345 -0.0303
68827W        W11880  28.518  28.181   0.617 -0.1946  0.0025 -0.0360
68828W        W11881  29.787  32.245   8.421  0.1165 -0.0125  0.0528
68829W        W11882  15.565   4.925  21.643 -0.0382 -0.1831 -0.0933
68830W        W11883   0.987   9.871   3.050  0.1021  0.2185  0.1789
68831W        W11884  30.084   4.653  29.169 -0.4727  0.0356 -0.0464
68832W        W11885   6.129  32.610  24.436  0.3820 -0.2739  0.0070
68833W        W11886   3.978  23.678   4.208 -0.0158 -0.0858 -0.3455
68834W        W11887  30.949  22.424   6.310  0.0031  0.0957 -0.2082
68835W        W11888  33.679   1.229   6.976 -0.2730  0.0517  0.0487
68836W        W11889  12.958  23.296  26.774  0.1012  0.1294 -0.0657
68837W        W11890   7.768  12.771   4.858 -0.1854 -0.2419  0.2137
68838W        W11891  30.008  27.948  26.818  0.1071  0.2756 -0.1235
68839W        W11892  23.246  29.830   5.323  0.5383  0.0985 -0.0220
68840W        W11893  31.933  14.404   8.509  0.1848 -0.0297  0.0360
68841W        W11894   8.607   9.890   0.569 -0.0361 -0.0080 -0.1730
68842W        W11895  10.860   8.440  27.120 -0.2046  0.1235 -0.0456
68843W        W11896   1.265  32.797   5.894 -0.1246  0.0396  0.1781
68844W        W11897  32.444  32.745  26.678  0.4423  0.1136  0.1529
68845W        W11898   6.353  13.718  20.736  0.1829 -0.0547  0.1511
68846W        W11899  24.730  13.500  29.056  0.1364  0.0150  0.1775
68847W        W11900  32.140  18.169   9.049 -0.1513 -0.1383 -0.0854
68848W        W11901   5.790   8.140  28.929 -0.2481 -0.0286  0.0245
68849W        W11902   5.176  11.966   6.422  0.2520 -0.1986  0.0495
68850W        W11903  27.674  28.439   2.140  0.0062  0.0185  0.3852
68851W        W11904  18.152   9.573   3.622  0.0201  0.1233 -0.1474
68852W        W11905   4.641  21.173   6.400 -0.0738 -0.0861  0.1916
68853W        W11906   4.883  34.090   1.174  0.0870 -0.1800 -0.0857
68854W        W11907  26.056  23.347  23.336 -0.0743 -0.0337 -0.1545
68855W        W11908  15.568  28.750  19.741  0.2542 -0.0878  0.0984
68856W        W11909   5.806   4.646   7.499  0.0082 -0.0112 -0.2011
68857W        W11910  14.329  14.018  20.174  0.2682 -0.2207  0.3512
68858W        W11911  13.090  33.659  21.567  0.0939 -0.1791  0.0726
68859W        W11912   4.406  14.705   6.882  0.0359  0.1352 -0.1383
68860W        W11913  14.208   9.938  24.893 -0.0535 -0.0102 -0.0211
68861W        W11914   0.700   2.902   0.561 -0.0051  0.1347  0.0516
68862W        W11915  33.244   0.035   8.353  0.0239  0.2245  0.3065
68863W        W11916   7.544  11.289   1.354  0.0704 -0.1139 -0.4153
68864W        W11917  13.629  24.750   7.079  0.1036  0.0141 -0.2702
68865W        W11918   7.696  31.954  22.292  0.2097  0.1256 -0.2797
68866W        W11919  33.562   4.890   9.591  0.0684  0.0733 -0.0188
68867W        W11920   5.216  13.156   7.979 -0.1241 -0.1298 -0.0508
68868W        W11921  23.306  18.177  20.969 -0.0788 -0.0736  0.0412
68869W        W11922   2.428  23.228   3.256  0.0173  0.0368  0.1153
68870W        W11923   6.931   5.700   4.627  0.0017 -0.0765  0.1205
68871W        W11924   3.161  20.529   8.061  0.2050 -0.0373  0.1686
68872W        W11925  28.284   1.430   9.797 -0.1533  0.0279 -0.2041
68873W        W11926   0.129  31.320   0.382 -0.0157 -0.0060 -0.0080
68874W        W11927  12.908  12.246   6.978 -0.0018  0.0655 -0.1042
68875W        W11928   3.416  33.187   7.006  0.1629 -0.2444  0.3383
68876W        W11929  12.524   8.866   9.424 -0.2064  0.0564 -0.1440
68877W        W11930  31.775  12.402   9.575 -0.2396 -0.1723  0.2546
68878W        W11931  31.805   4.703  22.455  0.0477  0.0215  0.4323
68879W        W11932   6.934   5.198  11.159 -0.1232 -0.0895  0.3091
68880W        W11933  32.909  15.276   6.462  0.1738 -0.0225  0.2068
68881W        W11934   4.901   5.504   7.027 -0.0038  0.0808  0.0833
68882W        W11935   9.804   5.424   4.871 -0.0194  0.0692 -0.1070
68883W        W11936   8.399  27.673   6.474  0.3522 -0.0414  0.4950
68884W        W11937   7.494   1.167   0.109 -0.0121  0.0925 -0.0089
68885W        W11938  30.440  29.122  28.330  0.2051 -0.1703 -0.2807
68886W        W11939  28.530  18.418  27.514  0.2201 -0.1262  0.0048
68887W        W11940  14.360   1.976   3.224 -0.1984 -0.0827 -0.0917
68888W        W11941   9.387   9.504   9.130 -0.0211  0.2986 -0.1805
68889W        W11942  14.549  18.634  25.347 -0.3736 -0.0918  0.0680
68890W        W11943   8.974   0.600   4.651 -0.2280  0.0876  0.4553
68891W        W11944  12.888   8.286   6.959  0.0157  0.0688 -0.1440
68892W        W11945  15.265  15.721  26.814  0.1030  0.0683 -0.0177
68893W        W11946  26.091   6.694  10.083  0.1045 -0.0828  0.2263
68894W        W11947  27.792  34.391  17.617  0.1585 -0.1357  0.0903
68895W        W11948   8.513   1.676   2.993  0.0007  0.0751  0.1270
68896W        W11949  11.582  10.132   3.106 -0.0583 -0.0921 -0.0045
68897W        W11950   3.139  27.115   0.049  0.1402  0.0644  0.2147
68898W        W11951   4.140  13.118   1.496 -0.0706 -0.0709  0.2873
68899W        W11952  25.699   2.356   5.642 -0.1331 -0.1783 -0.1614
68900W        W11953  18.848   8.620  29.141 -0.2452 -0.1630 -0.0816
68901W        W11954   4.573   1.418  28.971 -0.0226  0.3761  0.0273
68902W        W11955  15.214  33.842   5.604 -0.1811 -0.2462  0.2430
68903W        W11956   5.536  16.439  24.382  0.1179  0.0841 -0.0991
68904W        W11957   6.425  31.641  29.167  0.0237 -0.1160 -0.2050
68905W        W11958  24.631  17.510  26.086 -0.1011 -0.0849 -0.0614
68906W        W11959   8.551   8.121   7.994 -0.2421 -0.1580  0.1056
68907W        W11960   6.592   9.126   8.738 -0.0101  0.1293  0.2394
68908W        W11961   7.372  27.007   4.430 -0.1719 -0.0315 -0.1233
68909W        W11962  12.327   9.715  21.169 -0.2661 -0.0536 -0.0523
68910W        W11963  28.108   4.636   9.369 -0.4540 -0.3027  0.0304
68911W        W11964  19.774  10.838   2.717  0.1836  0.2232 -0.1285
68912W        W11965  28.100  16.291   4.601 -0.0848  0.2058  0.0960
68913W        W11966   6.837   8.687   8.872  0.1434 -0.1701  0.1404
68914W        W11967   9.427   5.617  22.964  0.3067  0.1355 -0.1625
68915W        W11968  12.002  11.963   7.081 -0.0098  0.1890 -0.0548
68916W        W11969  13.965   8.010   8.069 -0.1859  0.0638 -0.3660
68917W        W11970  17.842  17.576  28.032  0.1902 -0.0259 -0.4858
68918W        W11971  32.733  33.600   1.058 -0.0129 -0.2201  0.3046
68919W        W11972   0.099  19.261  28.607  0.3234  0.1856 -0.2040
68920W        W11973  13.521  33.481   7.905  0.2358  0.1086  0.3223
68921W        W11974  29.886   8.468  10.067 -0.0293 -0.0700  0.0915
68922W        W11975  32.023   7.534   6.208  0.0940  0.2073 -0.2603
68923W        W11976  29.185   0.227  26.539 -0.0794 -0.1360 -0.0646
68924W        W11977   8.192   8.484  23.428 -0.0134  0.2284 -0.1756
68925W        W11978  18.386  23.755   0.167 -0.3149  0.1167  0.2118
68926W        W11979  10.972  32.264   3.834  0.1620 -0.2026 -0.0974
68927W        W11980  10.573   3.529   3.948  0.4325  0.0377 -0.2091
68928W        W11981   1.793  34.645  18.714  0.1158 -0.2361  0.0662
68929W        W11982  27.723  25.510   8.793 -0.2231 -0.2094  0.1281
68930W        W11983  12.850  21.521  28.408 -0.0389 -0.0959  0.1864
68931W        W11984  24.175   8.135   6.907 -0.1013 -0.1641 -0.1313
68932W        W11985  12.642   4.467   9.054 -0.2380 -0.0163  0.1505
68933W        W11986   6.436   8.618  19.199 -0.0382  0.0426  0.1359
68934W        W11987  10.305  10.587  24.170 -0.3381 -0.0739 -0.0651
68935W        W11988  17.699  19.943   3.322  0.0432 -0.1652  0.0656
68936W        W11989   2.240  26.487   9.280  0.4053  0.1108 -0.0313
68937W        W11990  18.420   3.499   9.517  0.0207  0.2908 -0.1536
68938W        W11991   8.661  30.462   7.145 -0.1729  0.0642  0.0410
68939W        W11992   8.102  18.701   2.682 -0.2893  0.2728 -0.0470
68940W        W11993  29.952  16.581   6.214  0.3269 -0.1894  0.2792
68941W        W11994  14.520  12.715   3.198  0.2620 -0.2744  0.2256
68942W        W11995  22.690  31.502   6.457 -0.2402 -0.2491  0.0621
68943W        W11996   6.394   8.234  27.869 -0.4828  0.1403  0.3185
68944W        W11997  17.501   6.708  14.944 -0.0087  0.1890 -0.3015
68945W        W11998  10.159   6.469   2.133  0.0893 -0.0110  0.0540
68946W        W11999  16.024  14.299   8.439  0.2540 -0.0690 -0.2927
68947W        W12000  14.916  14.598   0.976 -0.1096  0.0468 -0.0275
68948W        W12001   4.033  23.077   3.397  0.1193  0.0051  0.0424
68949W        W12002  34.093  24.654   3.882  0.1305  0.0090 -0.1582
68950W        W12003   9.177  33.474   4.406  0.1315  0.2087 -0.0027
68951W        W12004   3.176  28.924  21.026  0.2198 -0.2434 -0.0047
68952W        W12005  13.661  28.786  22.957 -0.1329 -0.2148  0.0248
68953W        W12006  11.044  30.314   0.533 -0.0725 -0.1036  0.0262
68954W        W12007  20.345   2.357   2.751 -0.2577  0.1510 -0.0307
68955W        W12008   4.489  11.553   7.274 -0.5138  0.1938  0.0365
68956W        W12009   8.899  25.921   5.782  0.0176 -0.2032  0.3296
68957W        W12010  30.103   3.315   9.809 -0.0747 -0.2896  0.2405
68958W        W12011  33.556  14.142   4.015  0.0096  0.5213 -0.1724
68959W        W12012  30.684  15.419   9.656 -0.1350 -0.1340  0.0382
68960W        W12013  29.712  11.859   6.769  0.0659 -0.1002  0.0006
68961W        W12014  13.505   1.748   9.265  0.4418 -0.2028  0.3196
68962W        W12015   5.155  24.509   4.038  0.3507  0.1223  0.0431
68963W        W12016  15.088   8.125   6.572 -0.0899  0.1738 -0.0315
68964W        W12017  27.165   1.102   8.064 -0.2203  0.0998  0.1444
68965W        W12018  13.852   8.270   5.121 -0.1066 -0.1788 -0.1128
68966W        W12019  14.634   6.980   1.751 -0.1412 -0.3914  0.0865
68967W        W12020  30.943  32.954   4.107  0.0535  0.0680 -0.4413
68968W        W12021   3.988   8.165   6.997 -0.3413  0.3624 -0.2627
68969W        W12022  14.562  27.859   2.221 -0.2165 -0.1298 -0.0707
68970W        W12023   4.209  29.071   2.064  0.0222  0.0514  0.0692
68971W        W12024   4.937   7.931   8.122 -0.2113  0.0482 -0.1694
68972W        W12025   3.754   1.308   2.521 -0.1660 -0.0129 -0.0339
68973W        W12026  16.244   3.581   2.984  0.0381  0.1117  0.1226
68974W        W12027  25.302  21.974   4.437 -0.1096 -0.1556 -0.0956
68975W        W12028  17.891  13.402   0.068 -0.2360 -0.0961  0.0176
68976W        W12029   8.931  14.504  18.299  0.2757  0.2899  0.1658
68977W        W12030  11.840  11.438   9.176  0.1163  0.3606  0.1986
68978W        W12031  23.999  34.444   4.820  0.2651  0.1193  0.0720
68979W        W12032   5.024   4.905   6.478 -0.2156  0.0115  0.0234
68980W        W12033  13.670  32.033   7.660 -0.2879 -0.1003 -0.1329
68981W        W12034   0.471  11.718   1.798  0.1375  0.0346  0.1064
68982W        W12035   4.407  33.606   8.202  0.1258 -0.4026  0.0483
68983W        W12036   8.226  16.664  20.343  0.0236  0.2696  0.0696
68984W        W12037   0.382  26.663  26.764  0.0464 -0.0754  0.2369
68985W        W12038  11.656   2.401   1.999  0.1582  0.0709 -0.3205
68986W        W12039  25.020  15.993   4.380  0.1288  0.2827 -0.2130
68987W        W12040  32.190   2.665   3.289 -0.2170 -0.0148  0.0755
68988W        W12041  14.670  14.092   4.710 -0.0876 -0.1526  0.0834
68989W        W12042  12.923  18.009   2.016 -0.1304 -0.0670  0.1040
68990W        W12043   1.930  22.580   8.662 -0.0733 -0.1197  0.0108
68991W        W12044  33.987   6.233   7.238  0.1027 -0.0949 -0.0268
68992W        W12045   9.388  20.546   6.208  0.0151  0.1101 -0.1674
68993W        W12046   7.976  24.630  17.906 -0.0799  0.1647  0.1491
68994W        W12047  21.408  11.907   2.154 -0.4348 -0.4949  0.1342
68995W        W12048  19.660  28.539   9.850  0.1421 -0.0697  0.4168
68996W        W12049  34.023  10.348  18.459  0.2982  0.1699 -0.1225
68997W        W12050  31.502   7.166   6.974 -0.1363 -0.2720  0.0618
68998W        W12051  25.645  18.712  23.721  0.1055 -0.0262  0.0883
68999W        W12052  14.742   8.179  19.140  0.0497 -0.1155  0.2413
69000W        W12053  13.098   8.587   7.258 -0.1078 -0.0364 -0.2236
69001W        W12054  27.942   5.687   3.451 -0.2606 -0.0253 -0.1472
69002W        W12055   3.874  29.391  28.944  0.0039 -0.1583 -0.4213
69003W        W12056   2.671  11.366   8.755 -0.0759  0.1702  0.1959
69004W        W12057   4.937   0.221   7.723  0.0691  0.4210 -0.1919
69005W        W12058  13.452  15.565   1.309  0.2437  0.0624  0.1503
69006W        W12059  34.297  11.679   5.799  0.1254  0.0431  0.2551
69007W        W12060  32.800   8.883   9.493 -0.0437  0.2508  0.2736
69008W        W12061  23.485  13.171  25.849 -0.1545  0.0537 -0.1140
69009W        W12062   8.889  25.264  28.936 -0.0461  0.3101  0.4490
69010W        W12063   2.615  13.789   7.595 -0.2141  0.2066  0.1833
69011W        W12064  19.910  11.016   5.261 -0.1265 -0.0478 -0.1294
69012W        W12065   0.927  17.804   4.915  0.0184  0.1039 -0.0686
69013W        W12066  11.099  12.373   2.663  0.0949  0.2309  0.1960
69014W        W12067   1.786   2.417  15.471  0.0426 -0.1648  0.0732
69015W        W12068   6.267  33.783   3.465  0.5156 -0.0870  0.0121
69016W        W12069   4.082  27.985   6.704  0.0924  0.0725 -0.0825
69017W        W12070   0.483  10.508  24.207  0.2246  0.0029 -0.3053
69018W        W12071   5.815   9.933   7.102 -0.2013  0.0889  0.1820
69019W        W12072  16.343   7.293   0.029  0.0390 -0.1508  0.1037
69020W        W12073   5.721  32.903  26.589  0.0985 -0.2398 -0.1124
69021W        W12074  26.703  17.862   4.691  0.1713  0.3061  0.0080
69022W        W12075  13.866   5.828   7.016 -0.2734  0.1325 -0.0268
69023W        W12076   2.069   0.061   3.707 -0.3148 -0.1487 -0.0142
69024W        W12077  27.680   0.213   2.927  0.0323  0.2688  0.0441
69025W        W12078   5.149  31.819   5.323  0.1781  0.0958 -0.0403
69026W        W12079   0.713   3.488   1.301 -0.0040 -0.1789 -0.1676
69027W        W12080  29.239  23.906   7.106  0.1903 -0.0584  0.2008
69028W        W12081   7.255   0.407   9.002 -0.2188 -0.0047 -0.0098
69029W        W12082  11.306  17.160   6.089  0.1785  0.2642 -0.0433
69030W        W12083  17.735   5.717   9.670 -0.0619 -0.2684 -0.1003
69031W        W12084   4.197   6.705   7.463  0.0439  0.0019 -0.0345
69032W        W12085  29.270   6.571  26.917 -0.5740 -0.0114  0.4049
69033W        W12086   9.608  20.750   7.151  0.4818 -0.0278 -0.0931
69034W        W12087  15.933   3.956   0.047  0.0073  0.0707  0.1966
69035W        W12088  14.398   1.101  26.029  0.0524  0.1648 -0.1074
69036W        W12089   4.895   6.893  21.060 -0.1924 -0.0432  0.2534
69037W        W12090   7.972  18.366   4.221  0.2926 -0.1729 -0.2467
69038W        W12091  17.301  21.267   3.554  0.1437 -0.1788 -0.2027
69039W        W12092  30.073  26.490   1.704 -0.0970  0.0541  0.1826
69040W        W12093   2.376   1.715   8.078 -0.1631 -0.4584  0.1358
69041W        W12094   7.550  22.243   5.789 -0.1586  0.0102  0.0768
69042W        W12095   4.507  12.950   9.257  0.0341  0.7142  0.2978
69043W        W12096  15.748   2.552  15.997 -0.0022 -0.2106 -0.0646
69044W        W12097  26.454  21.655   4.561  0.1933  0.0593  0.0566
69045W        W12098   9.578  17.738  27.917  0.2994 -0.0029 -0.1735
69046W        W12099  28.495  15.084  29.180 -0.3195 -0.4676 -0.1318
69047W        W12100  24.627  34.665   8.643  0.1134 -0.0527  0.0580
69048W        W12101   9.045  18.430  28.131  0.2130 -0.2617 -0.0711
69049W        W12102   9.544   0.210   9.610 -0.4887  0.0555  0.0870
69050W        W12103   5.440  14.672   2.566  0.3484 -0.4283  0.1890
69051W        W12104  25.078   2.095  28.162  0.2931  0.2454  0.2043
69052W        W12105  32.642  11.689   9.287  0.0220  0.0082  0.0815
69053W        W12106   5.936  33.363   4.996  0.1648  0.2645  0.0093
69054W        W12107  11.060   3.827   1.938  0.0726  0.0478 -0.2002
69055W        W12108  21.188  13.842   9.111 -0.2543 -0.0992  0.0664
69056W        W12109  11.340  26.181   3.556 -0.1149  0.2010  0.2329
69057W        W12110   5.997  27.068  26.655  0.0505  0.0589  0.2755
69058W        W12111  12.730   4.602   9.669  0.1304 -0.0261  0.0685
69059W        W12112   7.560  14.509  26.944  0.0069 -0.1689  0.0915
69060W        W12113  21.378  21.089   6.663  0.0863  0.0041  0.1231
69061W        W12114  15.460   6.726   4.937  0.4148 -0.0336  0.0106
69062W        W12115   0.346   5.265   5.848 -0.1335  0.1677 -0.0877
69063W        W12116  20.398  18.480  25.450  0.3568  0.0500 -0.0973
69064W        W12117   4.739  28.844   2.093 -0.2048  0.0533  0.0918
69065W        W12118  32.912  32.973  10.062  0.3978  0.2349 -0.3391
69066W        W12119  13.842   8.947  26.266  0.0723  0.0842 -0.2809
69067W        W12120  24.079  20.804   7.199 -0.1211 -0.1183 -0.1663
69068W        W12121  34.323  12.209   3.632 -0.0893  0.0640 -0.1873
69069W        W12122   4.078  20.092   5.707  0.1735 -0.0611 -0.0181
69070W        W12123  11.623  26.869   8.789  0.0380  0.0075  0.1318
69071W        W12124   4.660   3.806   2.959  0.0496  0.0552  0.0421
69072W        W12125  30.549  10.341  26.183  0.1162  0.0123  0.1161
69073W        W12126  10.578   9.901   9.399  0.0587  0.0498  0.1605
69074W        W12127   7.381  32.491   8.198  0.0772  0.2091  0.2232
69075W        W12128  11.517   6.933   0.383 -0.1404  0.0478 -0.2218
69076W        W12129  17.401  15.412   4.008  0.1961  0.3733  0.0060
69077W        W12130  13.300   9.982   8.453 -0.0439 -0.2599 -0.0647
69078W        W12131   1.064  25.779   5.769  0.1606  0.2257 -0.2058
69079W        W12132   5.044   7.709   7.237 -0.1454 -0.1254 -0.1279
69080W        W12133   6.140  16.036   9.429 -0.0486 -0.3395  0.0350
69081W        W12134  10.867   2.005   9.209 -0.0161 -0.2064 -0.2012
69082W        W12135  13.501   8.694  10.699  0.3923 -0.1542 -0.1433
69083W        W12136   1.896   6.564  23.054 -0.2924 -0.0798 -0.0066
69084W        W12137   0.854  10.532   6.269  0.1833 -0.2032  0.0749
69085W        W12138   4.457  22.832   3.277 -0.3789 -0.2335 -0.0157
69086W        W12139  29.460  10.883   8.683 -0.0431  0.0300  0.0072
69087W        W12140  16.776   7.721  26.203 -0.1127 -0.1139  0.1032
69088W        W12141   6.657  32.339   3.428 -0.3609 -0.1887 -0.1140
69089W        W12142  13.088   9.459  26.727 -0.4384 -0.1530 -0.5165
69090W        W12143  32.133  16.690   1.040  0.0283 -0.1293 -0.1068
69091W        W12144  25.701  33.632   2.534 -0.2578 -0.2106  0.0664
69092W        W12145   3.333  24.580  23.849 -0.1233 -0.2327  0.2270
69093W        W12146  11.807   1.748  28.426 -0.1390  0.0084  0.1351
69094W        W12147  27.084   4.386  24.467 -0.3046 -0.1008  0.1333
69095W        W12148  12.466  17.490   0.720 -0.0794  0.1618 -0.1719
69096W        W12149  13.901   6.350  27.837 -0.2346 -0.3493 -0.1644
69097W        W12150  17.722  21.700  15.496 -0.1129  0.1803 -0.2006
69098W        W12151  30.955  30.459   8.729  0.0462 -0.2647  0.0635
69099W        W12152   7.265   1.484   4.055 -0.0374 -0.0907 -0.1615
69100W        W12153   5.417  17.236   9.908 -0.0886  0.0700 -0.2412
69101W        W12154  29.227  28.917  21.843 -0.1595  0.1782  0.5010
69102W        W12155  28.470  12.180  28.153 -0.1700 -0.0784 -0.1674
69103W        W12156  17.485   8.501   9.554  0.3803  0.1100  0.1101
69104W        W12157  27.916  31.033   0.981  0.1767 -0.0439  0.2857
69105W        W12158  10.506   4.790   7.505 -0.0380 -0.0184  0.1032
69106W        W12159  30.294  13.988  27.362 -0.0151  0.1857  0.2302
69107W        W12160   3.117  10.272   7.215  0.1239  0.1114 -0.1020
69108W        W12161   5.543  11.993   7.298 -0.1975  0.1757  0.2639
69109W        W12162  10.344   2.953   3.361  0.0212 -0.0030 -0.1395
69110W        W12163  30.713  12.245   8.531  0.1191 -0.0302 -0.0036
69111W        W12164  26.844   0.891  24.325  0.2995  0.5053  0.0602
69112W        W12165   1.111   1.774   5.857 -0.4250  0.1255  0.2785
69113W        W12166   1.060   6.795   4.014 -0.1421  0.1158 -0.0405
69114W        W12167   7.709  12.322  29.146  0.4708 -0.1578  0.0153
69115W        W12168   9.416   3.831   1.331 -0.4304 -0.1011  0.2144
69116W        W12169   5.705  11.622   6.488  0.1302  0.2447 -0.0534
69117W        W12170   8.230  28.281   8.461  0.1245 -0.2378 -0.1573
69118W        W12171  34.612  33.852  24.052 -0.1149  0.0971  0.4446
69119W        W12172   0.928  31.354   7.031 -0.1166  0.2739 -0.0344
69120W        W12173   5.705   0.244  28.641 -0.0314 -0.2591  0.0908
69121W        W12174   9.574  20.540   7.675  0.0252  0.0491 -0.0997
69122W        W12175  29.141   1.835   9.753  0.2236 -0.4350  0.1145
69123W        W12176   6.729   8.474   9.453 -0.2424  0.1073  0.0611
69124W        W12177   1.515   8.824   6.463  0.2329  0.2477 -0.0146
69125W        W12178  14.566  26.746  25.329  0.1134 -0.0568  0.0921
69126W        W12179   8.935  12.615   2.240  0.2153  0.3023 -0.2120
69127W        W12180  33.109   8.148  23.011  0.1037  0.0743 -0.2553
69128W        W12181  33.797  18.534   6.548  0.0201  0.0752 -0.1061
69129W        W12182  12.891   8.675   3.189  0.2701  0.0580 -0.3695
69130W        W12183  31.344  16.448   7.925  0.1029  0.0058 -0.1992
69131W        W12184   0.885  11.563   9.857  0.1359  0.1305 -0.1986
69132W        W12185  16.348   9.131   4.698 -0.0731  0.1403 -0.2087
69133W        W12186  19.409   7.553   7.031  0.2668  0.1839  0.0518
69134W        W12187  27.682   9.003   3.486 -0.4561 -0.0492  0.1801
69135W        W12188   5.681   8.461   4.867  0.2006 -0.4011 -0.1527
69136W        W12189   3.486  13.172   4.341  0.1829  0.3447 -0.0231
69137W        W12190  11.280   8.110   3.423  0.1851  0.1977 -0.1661
69138W        W12191   8.992  27.419   5.975  0.0042  0.2021  0.0084
69139W        W12192  19.564   6.305  27.554 -0.0042 -0.2814  0.1041
69140W        W12193  14.141  16.832   2.720 -0.1071 -0.0329  0.2030
69141W        W12194  32.831  14.331  24.030  0.2225  0.0333 -0.1640
69142W        W12195  11.258  15.543   8.225 -0.0300 -0.0555 -0.0325
69143W        W12196   3.856  12.635  24.607 -0.1432  0.2409 -0.1428
69144W        W12197  33.498  34.601  24.307 -0.1968 -0.0368  0.1663
69145W        W12198  13.918   9.044  24.468  0.0353  0.2477 -0.1132
69146W        W12199  26.296  12.072   0.956 -0.1391 -0.0562 -0.0418
69147W        W12200  12.719   2.872   0.744  0.1662  0.2112 -0.2398
69148W        W12201   3.652  14.605   8.816 -0.3465 -0.1531  0.1120
69149W        W12202   9.931  26.859   2.623  0.1314 -0.4277 -0.1009
69150W        W12203  14.293   4.083   8.319 -0.1684  0.2578 -0.2593
69151W        W12204   6.909  14.784  28.060 -0.0596 -0.2616  0.0829
69152W        W12205   3.560   9.512  28.534 -0.0658  0.0323  0.0174
69153W        W12206  11.238  19.045   4.154 -0.2962  0.0525  0.1291
69154W        W12207   6.355  25.499   8.841 -0.0102  0.1835  0.0775
69155W        W12208   0.095  16.934   5.536  0.0048  0.5757 -0.0390
69156W        W12209  25.212  27.775  26.124 -0.0066  0.2846 -0.0676
69157W        W12210   5.644   6.244   7.819  0.1366 -0.0164  0.1052
69158W        W12211  11.884  31.156   2.808 -0.0907 -0.2034 -0.5337
69159W        W12212   4.227   6.988  23.007 -0.0399 -0.0968  0.0377
69160W        W12213  18.876  29.272  28.165  0.0642 -0.2000  0.3148
69161W        W12214  14.771   5.738   0.348 -0.1125 -0.0370 -0.1043
69162W        W12215   4.552  20.130   9.279  0.0956 -0.0283  0.0204
69163W        W12216   0.953  33.290   5.815  0.0262  0.2487 -0.2251
69164W        W12217  33.149   6.576   3.709 -0.0385 -0.1102  0.0352
69165W        W12218  32.067   8.161   6.121 -0.2469  0.1311  0.0811
69166W        W12219  10.402  10.303   4.898  0.2259 -0.0310 -0.0608
69167W        W12220  16.617   4.901   2.495  0.0621 -0.0426 -0.2691
69168W        W12221   7.106  34.377  17.383 -0.1844 -0.0736 -0.2218
69169W        W12222  14.507  23.649  27.331 -0.2150 -0.0079  0.1719
69170W        W12223  21.832  11.296   4.973 -0.2994  0.0698  0.0878
69171W        W12224  20.729  13.072   9.643  0.3104  0.1310 -0.2225
69172W        W12225  14.478  26.146   5.391 -0.1378  0.2252 -0.0344
69173W        W12226   2.905  19.429   6.733  0.1569 -0.1368  0.0469
69174W        W12227  19.322  14.868   7.165 -0.1101 -0.0004 -0.1145
69175W        W12228  33.481  23.955   1.221 -0.0061  0.0359 -0.3362
69176W        W12229   3.896  21.368   1.049 -0.2083  0.0253  0.2779
69177W        W12230  28.286  17.688  10.448 -0.1811  0.1346 -0.1122
69178W        W12231   2.112   8.249   8.377  0.1068  0.1488 -0.0535
69179W        W12232   2.082   8.326   3.993 -0.0104 -0.0866 -0.1079
69180W        W12233   9.324   5.524   4.036 -0.2126  0.2681 -0.0561
69181W        W12234  11.524  19.077   0.677  0.0985 -0.2234 -0.2698
69182W        W12235  24.222   1.373   3.843 -0.0480 -0.0733 -0.2637
69183W        W12236  28.706   6.201   8.791 -0.2461 -0.1279  0.1883
69184W        W12237   6.135  33.673  22.941 -0.1136 -0.2285  0.0326
69185W        W12238   2.054   5.883   3.898 -0.0615  0.2918  0.0430
69186W        W12239  13.959   2.567  26.152  0.2393  0.2780  0.0634
69187W        W12240   8.313  19.767   5.649 -0.3592 -0.1655  0.1750
69188W        W12241  20.569  34.687   5.654  0.1420 -0.0380 -0.3135
69189W        W12242  33.243   2.250  10.246  0.0866  0.0941 -0.0486
69190W        W12243  12.186  11.661   0.381  0.0332  0.1274  0.2065
69191W        W12244   2.571  34.620   2.192  0.0941  0.2154 -0.0934
69192W        W12245  16.314   9.814   3.085  0.0239  0.0756  0.2608
69193W        W12246   9.065   5.929   8.649 -0.0032 -0.0465 -0.0934
69194W        W12247   2.035  34.627   7.431 -0.1372 -0.1717  0.0694
69195W        W12248  32.895  15.625   5.240 -0.1766  0.0248 -0.2345
69196W        W12249   8.921  20.964   9.047  0.1250  0.3657  0.5541
69197W        W12250  17.223  14.265   7.849 -0.4022  0.1193  0.0882
69198W        W12251  27.789  24.023   0.087 -0.1670  0.1424  0.3099
69199W        W12252  22.624   6.650   1.656  0.0889 -0.1626 -0.1096
69200W        W12253   4.183   3.546   0.715 -0.0534  0.4173 -0.1106
69201W        W12254   7.658  14.081  20.993 -0.3552 -0.1158  0.0558
69202W        W12255   1.297   6.993  10.160  0.0240  0.3813 -0.3197
69203W        W12256  10.695  10.722   4.634 -0.1440 -0.3969  0.0042
69204W        W12257   6.182   5.903   9.727  0.1008 -0.2446  0.0512
69205W        W12258   7.489  13.548   1.612  0.3215  0.1022 -0.2069
69206W        W12259   8.821  16.222   9.057  0.2036 -0.1214 -0.3193
69207W        W12260   7.720  13.427   8.883 -0.0560  0.1572  0.3614
69208W        W12261  15.889  13.106   5.050  0.1432  0.0457  0.0590
69209W        W12262   3.812  31.873   0.861 -0.0158 -0.3872 -0.0057
69210W        W12263  10.075  13.514   7.329 -0.2026 -0.0049 -0.1253
69211W        W12264  11.468  30.462   7.476  0.0194  0.1090  0.1051
69212W        W12265  17.820  10.937   8.990 -0.2755  0.0439 -0.1490
69213W        W12266   8.513  12.641  10.604  0.2820 -0.0042  0.1444
69214W        W12267  10.453  18.784   4.770 -0.1568 -0.2252  0.0403
69215W        W12268   7.663  29.287  26.734 -0.1157  0.1612  0.2128
69216W        W12269   4.658  10.738   7.488 -0.0518  0.1620 -0.0807
69217W        W12270  31.774   0.422  23.763  0.0537  0.0798 -0.0785
69218W        W12271   9.944  31.600   5.067  0.1986  0.0817  0.5841
69219W        W12272   6.974  13.653  25.473  0.0281 -0.1136  0.1196
69220W        W12273  15.063   5.710  28.020 -0.1776 -0.0692 -0.1494
69221W        W12274  23.044   6.936  26.795  0.1179  0.1929  0.0941
69222W        W12275  21.534   0.547   1.862 -0.0936 -0.0798  0.1006
69223W        W12276   6.692  22.909  28.188  0.3207  0.0876 -0.1419
69224W        W12277   1.263  18.691  27.775  0.2127 -0.0981 -0.0486
69225W        W12278   8.461  10.873   8.947  0.2278  0.1042  0.0948
69226W        W12279   5.137  28.150   7.604 -0.1917  0.3806  0.1284
69227W        W12280  26.589  19.220   7.268 -0.0061 -0.0943  0.1860
69228W        W12281  20.756  25.733   8.404  0.0872  0.2005 -0.1704
69229W        W12282   5.342   2.838   3.732  0.0306 -0.1632 -0.1023
69230W        W12283  34.147   1.492   5.945  0.0630  0.0469  0.1255
69231W        W12284   5.283  15.226   6.734  0.3351  0.0617  0.1979
69232W        W12285  10.802  23.016  24.064 -0.1562 -0.0214 -0.0229
69233W        W12286  30.365   8.814   4.767  0.2034 -0.0713  0.1133
69234W        W12287  34.126   6.427   6.757  0.0307  0.0349  0.1047
69235W        W12288   7.629  15.616   6.549  0.1456  0.5712 -0.1144
69236W        W12289   7.697  19.053  29.170 -0.0957  0.1608 -0.2773
69237W        W12290  15.263   0.862   8.142  0.1110 -0.0473 -0.0118
69238W        W12291   6.588   6.041   4.847 -0.3395 -0.2033 -0.1127
69239W        W12292   8.578   0.519   4.994  0.4047 -0.2260 -0.0824
69240W        W12293   2.733   0.981   9.360 -0.0767  0.0281  0.0465
69241W        W12294   5.671   9.705   7.610  0.0646 -0.0764  0.0665
69242W        W12295   1.374  28.335  25.774 -0.0393  0.3930  0.0703
69243W        W12296  18.293   9.591   9.213  0.1084 -0.0676 -0.3133
69244W        W12297  12.532   3.743  23.651  0.1649 -0.1312  0.0914
69245W        W12298  10.432   1.111  10.015  0.3474 -0.0930  0.1441
69246W        W12299  18.548  15.562  15.666  0.1153  0.3157  0.1971
69247W        W12300   9.721  15.374  11.214  0.3244 -0.0030 -0.1610
69248W        W12301  30.798  13.747  28.899  0.2227 -0.1256  0.0737
69249W        W12302   5.822  34.109   3.319  0.1073 -0.0016 -0.1147
69250W        W12303  11.900  22.449   3.479 -0.0592  0.0050 -0.1657
69251W        W12304  13.148   8.980   8.185  0.1303 -0.3872  0.0697
69252W        W12305  14.671   6.172   7.833 -0.0219 -0.1501  0.2400
69253W        W12306  20.840  16.669   2.945 -0.0980 -0.0884  0.0221
69254W        W12307  32.436  27.322   3.388  0.0042 -0.1171 -0.0625
69255W        W12308   8.447   1.771   6.897 -0.1779  0.2044  0.4337
69256W        W12309  14.220  13.710  19.726  0.0152 -0.1232 -0.1431
69257W        W12310   1.454  32.069   2.543  0.0259 -0.2110 -0.2373
69258W        W12311  18.051  32.454   2.803  0.0824 -0.0186  0.0695
69259W        W12312   2.541  16.974   0.643 -0.1038  0.0346 -0.2927
69260W        W12313  15.746   0.375   1.390  0.4762 -0.1551  0.0647
69261W        W12314   5.928  20.484   5.940  0.2599  0.0037 -0.3298
69262W        W12315  27.476  14.233   6.260  0.0768  0.1043  0.1373
69263W        W12316   2.544  27.229   8.148 -0.0893  0.0768 -0.0047
69264W        W12317   7.559   5.290  10.411 -0.1110  0.1942 -0.2700
69265W        W12318  12.438  18.421   2.381 -0.2471  0.0777  0.1477
69266W        W12319  14.400   9.394   2.222  0.0966 -0.1028  0.1273
69267W        W12320   4.952  10.045   7.604  0.2568 -0.0061  0.1654
69268W        W12321   6.500  16.933  27.878 -0.2259  0.2012  0.1192
69269W        W12322  17.039   4.696   6.056 -0.0565  0.1557  0.0640
69270W        W12323   1.175  22.812  25.641  0.2118  0.0339 -0.0974
69271W        W12324  17.553   7.693   5.022 -0.0280  0.1825 -0.1596
69272W        W12325  33.621  10.465   5.711 -0.0674 -0.0617  0.0542
69273W        W12326  34.561  11.154   3.315  0.1385  0.0790  0.0261
69274W        W12327  32.237   2.745   8.235 -0.2113 -0.4460 -0.2943
69275W        W12328   1.211  27.797   2.873  0.0901 -0.1980 -0.1614
69276W        W12329  31.491  12.207   6.323 -0.0289 -0.2130  0.2579
69277W        W12330  10.042   0.927   7.633  0.1413 -0.4974 -0.0861
69278W        W12331   9.245  15.395   6.605  0.3239  0.0558  0.2627
69279W        W12332  12.644  25.571   1.261 -0.0747 -0.3151 -0.1981
69280W        W12333  34.125   3.268   8.790  0.2848 -0.2006  0.1561
69281W        W12334   5.091  29.381   2.536 -0.0973  0.0825 -0.0169
69282W        W12335  30.845   3.074   2.238  0.1109 -0.1809  0.0188
69283W        W12336   2.311  10.635  28.508  0.0354 -0.1037 -0.0792
69284W        W12337   2.165   9.104   8.854 -0.0281 -0.3206  0.0160
69285W        W12338  29.397  12.198   6.192 -0.0050 -0.1899 -0.2320
69286W        W12339  12.921  10.587   9.677 -0.1980 -0.0467 -0.3042
69287W        W12340  17.581   6.198  11.035 -0.1193 -0.3030 -0.1826
69288W        W12341   3.790  34.385  28.794  0.0288 -0.0052 -0.0653
69289W        W12342  19.272  33.701   6.245 -0.1296  0.0269  0.0351
69290W        W12343  13.694   1.615   3.864 -0.1598 -0.1756 -0.1361
69291W        W12344  34.194  14.212   8.522 -0.3792 -0.0993 -0.1651
69292W        W12345  15.802  13.916   1.681 -0.0645 -0.1741 -0.0077
69293W        W12346  12.229  13.542   6.567  0.1261  0.1136  0.0767
69294W        W12347  10.602   4.755  28.535 -0.0227  0.1898  0.1208
69295W        W12348   0.317  34.640   0.111 -0.1890 -0.1617  0.2545
69296W        W12349   4.397  17.830  27.762 -0.4013 -0.3891 -0.3871
69297W        W12350  28.951  29.957   0.669  0.0075 -0.2519  0.2625
69298W        W12351  15.507   8.427   9.841  0.0005  0.1833 -0.2582
69299W        W12352  12.945  25.868   6.690 -0.0398 -0.1810  0.1226
69300W        W12353  25.897   3.054   3.037 -0.0246 -0.2504 -0.1404
69301W        W12354   2.839  27.455   3.088 -0.2925  0.1333  0.1955
69302W        W12355  32.593  25.984   4.691 -0.1730  0.2835 -0.1076
69303W        W12356  31.361   2.696   3.100  0.0134 -0.1102 -0.2987
69304W        W12357   6.610   5.120   9.385 -0.1228  0.1594  0.0280
69305W        W12358  28.938   7.940  27.794  0.0717  0.2475 -0.0351
69306W        W12359   4.666   8.362   8.375  0.2053  0.3199 -0.1871
69307W        W12360  13.690   4.953   8.856  0.0288 -0.3473  0.1093
69308W        W12361  17.306   7.919  28.358  0.0377  0.0450  0.0528
69309W        W12362  32.856   0.922   4.003 -0.3328  0.4296 -0.1437
69310W        W12363  12.913  17.270   6.709  0.3895  0.2561 -0.0985
69311W        W12364  34.346  27.749   1.846 -0.1065 -0.1970 -0.2187
69312W        W12365  13.724  29.513   7.488 -0.2027  0.4986 -0.3420
69313W        W12366  15.329  23.726   2.474  0.2853 -0.1208 -0.1985
69314W        W12367  12.206  23.201   6.856  0.1129 -0.4253  0.2619
69315W        W12368   7.506  26.628   5.092  0.0956 -0.0427 -0.0945
69316W        W12369   8.072  15.745   6.366  0.1129 -0.0201 -0.1023
69317W        W12370   5.876  17.120  25.615  0.1068 -0.3444  0.0775
69318W        W12371   5.342  10.956  10.774  0.1676  0.0211 -0.0902
69319W        W12372  27.789  16.840  27.024  0.0146  0.1998  0.1109
69320W        W12373  24.545  31.278   5.550  0.1259  0.3693  0.2015
69321W        W12374   5.256   9.017   3.674  0.2022 -0.4123 -0.1483
69322W        W12375   7.774   5.698   6.128  0.0516 -0.0005 -0.2238
69323W        W12376  10.739  25.797  27.425 -0.0858  0.2176  0.1329
69324W        W12377   9.642   9.954  10.306  0.0821  0.1892  0.3373
69325W        W12378  14.666   4.650   6.813  0.0730  0.0216  0.1092
69326W        W12379  25.683   6.721  27.042  0.2369 -0.0718 -0.1244
69327W        W12380  34.262  15.987   3.363  0.0916  0.3269 -0.2480
69328W        W12381   0.815  19.716   4.304 -0.0610 -0.1446 -0.0826
69329W        W12382   9.260   7.191  26.483 -0.1746 -0.1557  0.0230
69330W        W12383  24.045  32.603   7.203  0.5735  0.0410 -0.1777
69331W        W12384   0.164   6.129   3.915 -0.0254  0.1805 -0.0573
69332W        W12385  32.614  13.656   9.686  0.1567 -0.0752  0.2137
69333W        W12386   8.957  16.645   7.489 -0.0675  0.2253 -0.0141
69334W        W12387   2.181   6.897   1.631 -0.1133  0.1624 -0.2752
69335W        W12388  21.968   2.302   8.145  0.1129  0.3285 -0.0482
69336W        W12389   9.894  16.840  18.415 -0.0358 -0.2922  0.1473
69337W        W12390   7.576  12.860   9.618  0.0646 -0.0477 -0.2850
69338W        W12391  14.079  26.558   4.848  0.2653  0.0158  0.1108
69339W        W12392  27.477  23.383   3.052 -0.0510 -0.2927  0.0796
69340W        W12393  11.296  17.103   3.593  0.0491  0.0487 -0.2103
69341W        W12394  17.821  10.204   5.557  0.0854  0.0218 -0.0529
69342W        W12395   3.952  26.721   3.507 -0.1160 -0.2483  0.1037
69343W        W12396  33.069  14.017  21.261  0.0768  0.1420  0.1204
69344W        W12397  16.946  21.601  27.664  0.3070  0.1853 -0.0014
69345W        W12398  27.977  11.484   2.032  0.0933 -0.0786 -0.1080
69346W        W12399  30.256  23.487  27.201  0.0730 -0.1011  0.1166
69347W        W12400   3.617  23.566   1.763 -0.0281  0.1365  0.1125
69348W        W12401  30.046   1.842   2.807  0.2448  0.1765  0.2160
69349W        W12402  22.623   3.966  25.207 -0.0211  0.0516  0.1524
69350W        W12403   1.801  14.583   2.683  0.1731 -0.1303 -0.0841
69351W        W12404  19.470   8.814   1.179  0.1851  0.0137 -0.0948
69352W        W12405  17.522   0.745  26.178 -0.1641  0.0629  0.0168
69353W        W12406  28.300  27.503  20.734  0.0643  0.1642 -0.0668
69354W        W12407  33.963   9.941   9.162 -0.1937  0.1073 -0.1615
69355W        W12408  30.820   7.900   5.046 -0.0355  0.1044  0.3237
69356W        W12409  32.917   4.492  28.024 -0.3358  0.2942  0.3473
69357W        W12410   9.486  24.992   9.047 -0.1701 -0.1083  0.1359
69358W        W12411  33.562  12.582   9.427  0.3001 -0.0315  0.2116
69359W        W12412   4.604   5.131   9.615  0.0974 -0.0816 -0.1410
69360W        W12413  10.115  10.620  24.982 -0.0577  0.1801  0.0309
69361W        W12414  18.213   3.130   7.585  0.0188 -0.0234  0.0511
69362W        W12415  34.467  11.195   9.669 -0.0897 -0.4833  0.0715
69363W        W12416   0.982  11.470   8.929 -0.0833  0.2671 -0.2995
69364W        W12417   0.797  32.727   3.401 -0.1175 -0.0847 -0.2044
69365W        W12418  32.659  11.796   7.974 -0.1098  0.1711 -0.3573
69366W        W12419  18.320   4.314   8.842 -0.1444 -0.0789 -0.2928
69367W        W12420  11.222  32.421   9.369 -0.1845 -0.0456 -0.1411
69368W        W12421  21.150   5.228   7.830  0.0166 -0.0016  0.0633
69369W        W12422   7.211   5.073   8.828 -0.3575  0.0321  0.2268
69370W        W12423  13.116   3.822   9.612  0.1225  0.0693 -0.1210
69371W        W12424   5.356   6.845   2.547  0.3057  0.2365 -0.3626
69372W        W12425  27.696   3.168  25.560  0.1422 -0.4743  0.2267
69373W        W12426   0.358  19.018  18.053 -0.4626  0.2044  0.1925
69374W        W12427  19.375   5.935   4.111  0.0942 -0.0196 -0.0595
69375W        W12428  33.064   3.457  24.640  0.0440 -0.0268 -0.0149
69376W        W12429   6.431   4.972  22.047  0.2468  0.2568  0.0745
69377W        W12430  33.959   8.271   1.852 -0.1626  0.0899 -0.0098
69378W        W12431  30.246   0.361  25.021  0.0487 -0.2483  0.0131
69379W        W12432  24.666  31.698  25.741  0.2980  0.3203  0.0066
69380W        W12433  34.048   9.927  20.647  0.0420 -0.2180  0.2086
69381W        W12434  30.164   9.902   5.816  0.1096  0.2783 -0.0119
69382W        W12435  21.100  11.243  26.109  0.1971 -0.2034 -0.1241
69383W        W12436  11.950  28.239   8.548 -0.1068 -0.0804  0.0975
69384W        W12437   3.294   0.099   7.354  0.1755  0.0622 -0.0705
69385W        W12438   8.721  13.776   9.182  0.0462 -0.0374 -0.0308
69386W        W12439   8.122  19.447   7.861  0.0762  0.1080  0.4632
69387W        W12440   7.465   4.474   5.860  0.1328 -0.0382  0.2436
69388W        W12441  28.366  12.660   7.289  0.1180  0.0432  0.1880
69389W        W12442  12.020  13.282   8.966  0.0604  0.2820  0.0105
69390W        W12443   1.038  18.377   3.610 -0.0551 -0.0285 -0.0823
69391W        W12444   0.019  22.479  27.025 -0.2302 -0.0487  0.1387
69392W        W12445  22.992  19.130  14.949 -0.2381  0.1104 -0.3079
69393W        W12446  30.684   4.689   5.388  0.0743  0.1983 -0.1738
69394W        W12447  27.942   8.301   8.360  0.0313  0.0389 -0.3953
69395W        W12448  15.260   3.662   9.725 -0.5163 -0.1915 -0.1955
69396W        W12449  31.277   4.179   7.041  0.0869  0.1828 -0.0141
69397W        W12450  25.915  18.544  24.125 -0.0439 -0.1879  0.0209
69398W        W12451   7.736  32.762  18.072 -0.6120  0.2517 -0.1313
69399W        W12452   5.008  31.302   6.704  0.3450 -0.1550  0.2397
69400W        W12453  30.508  19.286   0.602  0.4087  0.2506 -0.0641
69401W        W12454   8.973   0.484   2.215  0.0754 -0.1848  0.0913
69402W        W12455   3.138  16.987   3.970  0.0296 -0.2903 -0.0475
69403W        W12456  24.133  27.486  17.719  0.0876 -0.0041  0.0096
69404W        W12457  34.604   4.933  25.935  0.1697  0.1345  0.0045
69405W        W12458  11.448  17.029  26.698 -0.3045 -0.1243  0.1146
69406W        W12459  14.971  15.802   1.371  0.0859 -0.1116  0.1212
69407W        W12460  33.352  14.107  24.383  0.2211  0.2512  0.2219
69408W        W12461  31.381   3.233  14.831 -0.1549  0.2212 -0.3089
69409W        W12462  24.534   0.771   7.335  0.1126  0.0329 -0.0306
69410W        W12463  33.636  12.351   4.805 -0.3227  0.0332 -0.1920
69411W        W12464   1.519  34.610  20.106 -0.0590  0.0822  0.0138
69412W        W12465   0.241  10.824   2.307 -0.3967  0.2369  0.3474
69413W        W12466   2.081  23.974   9.987 -0.2000  0.0049  0.0473
69414W        W12467  17.010  12.290   5.790  0.0487  0.3007 -0.0057
69415W        W12468  25.651  21.126   8.316  0.1676 -0.1591  0.1663
69416W        W12469  15.079  10.655   7.212  0.3394 -0.1396 -0.0976
69417W        W12470   2.461  19.484  26.414  0.0005  0.0993  0.2791
69418W        W12471  32.811  22.957   4.791  0.0540  0.0273  0.0620
69419W        W12472  23.760   6.520   1.587  0.1141  0.2617  0.1440
69420W        W12473  10.459  15.537  23.446  0.1420  0.0540 -0.0432
69421W        W12474   5.656  29.010   1.969  0.0613 -0.0244  0.0931
69422W        W12475  26.484  10.368   4.715 -0.0852  0.0327  0.2171
69423W        W12476  27.132  15.954  22.285 -0.1800  0.1624 -0.1482
69424W        W12477  31.286  34.670   6.933  0.2562  0.1397 -0.1656
69425W        W12478   6.984   5.351   9.250  0.3056 -0.0771  0.1457
69426W        W12479   4.567  33.751  26.961 -0.3364  0.4506 -0.1557
69427W        W12480   0.837  16.839   8.107  0.1593  0.0044  0.1443
69428W        W12481   8.250   9.995  19.756 -0.1608  0.2042 -0.0421
69429W        W12482   9.228   0.459  21.475 -0.2935  0.0520  0.1661
69430W        W12483   1.702   7.022   4.126  0.0189  0.0547 -0.1236
69431W        W12484  32.584  14.310   6.444  0.2807  0.0027 -0.0119
69432W        W12485   7.881  31.177  24.540 -0.0427 -0.1360 -0.0708
69433W        W12486  29.851  11.219   8.870 -0.0614 -0.1341  0.2093
69434W        W12487  16.323  11.939   9.568 -0.1086 -0.0349 -0.0581
69435W        W12488   2.281  20.618   4.757  0.1489  0.2324 -0.0725
69436W        W12489  18.730   3.641   1.429 -0.0458  0.1773 -0.0277
69437W        W12490  28.504  13.627   4.547  0.0262 -0.3816 -0.0164
69438W        W12491  33.897  11.577  28.469  0.1942  0.4716  0.0470
69439W        W12492  31.987  20.241   6.054  0.0726 -0.1711 -0.3118
69440W        W12493  14.156  17.277  23.240  0.2708 -0.0374  0.1299
69441W        W12494   7.054   3.854   4.783 -0.3340  0.3416  0.1033
69442W        W12495  17.168  27.685   7.504 -0.2707 -0.0831 -0.0575
69443W        W12496   0.548  19.502  28.276 -0.1171  0.0303  0.0559
69444W        W12497  15.138  29.734   0.505  0.3509 -0.0060  0.1502
69445W        W12498   6.111  29.268   1.979  0.0715 -0.0425  0.3486
69446W        W12499   6.044  21.155  20.046  0.1023  0.0783 -0.2112
69447W        W12500   2.092  19.705  14.356 -0.0605 -0.1471 -0.1812
69448W        W12501  15.010  12.537   1.894  0.1385 -0.0077 -0.1556
69449W        W12502   0.259  12.847   8.616  0.1589 -0.2143  0.1647
69450W        W12503  31.746  14.001   2.975 -0.1020  0.4295 -0.1407
69451W        W12504   0.792  12.260  28.350  0.0263 -0.0153  0.2869
69452W        W12505  32.702   3.757   6.071 -0.1156  0.1001  0.0083
69453W        W12506   1.721   9.234  26.223  0.1188  0.1651 -0.0742
69454W        W12507  16.094  15.388  28.933  0.1388  0.2462  0.1637
69455W        W12508  11.613  14.680   1.647  0.0185  0.0688 -0.2969
69456W        W12509  13.152   7.090   8.507 -0.0091  0.2519 -0.3850
69457W        W12510   1.102   7.759   5.895  0.1024  0.1721  0.3719
69458W        W12511  15.172   6.512  10.251 -0.0538  0.2478  0.0561
69459W        W12512   4.944  10.307  24.064 -0.4638  0.1341 -0.1058
69460W        W12513   4.291  18.559   8.533 -0.0221 -0.0817 -0.2016
69461W        W12514  16.213   9.022   5.504  0.0146  0.0034  0.1226
69462W        W12515  30.626   5.429  21.766 -0.0461 -0.0127 -0.1536
69463W        W12516  10.205  10.861  27.746 -0.0598  0.2292 -0.0926
69464W        W12517   9.471  20.724   9.213 -0.1451  0.1708  0.1945
69465W        W12518   7.706   9.534   4.780 -0.1194  0.2748  0.0688
69466W        W12519   1.516   9.738  28.529 -0.0937 -0.3235 -0.1967
69467W        W12520   5.798   4.613   0.571  0.1818 -0.0971  0.1500
69468W        W12521  32.860  11.334  24.843  0.1701 -0.0294  0.1880
69469W        W12522  23.450   5.858   4.562 -0.0554  0.2583 -0.1433
69470W        W12523   5.515  17.159  19.850  0.2862 -0.1346  0.5261
69471W        W12524  18.049  10.122  25.776  0.3012  0.1463 -0.2995
69472W        W12525  13.816   6.935   9.182  0.1602  0.2558  0.0925
69473W        W12526  32.283   7.319  10.297 -0.0011  0.1195 -0.0589
69474W        W12527   8.438  10.018   4.867  0.0663  0.0914  0.5713
69475W        W12528  17.718  16.382   8.944 -0.3446  0.3178  0.2302
69476W        W12529  20.829  16.708  25.741  0.1209  0.0987  0.0211
69477W        W12530   1.893  16.472   5.092 -0.0927  0.0615  0.3097
69478W        W12531   8.681  19.810   8.401 -0.0300 -0.0844 -0.2431
69479W        W12532  10.558   6.178  20.686  0.2010 -0.4242 -0.1497
69480W        W12533  19.048  20.546  22.527 -0.1665 -0.1697  0.1728
69481W        W12534   4.505  10.740   5.183  0.0277 -0.0005  0.2131
69482W        W12535   8.583   9.569  17.326 -0.1601  0.3446  0.2792
69483W        W12536   8.516  22.593   8.316 -0.2349  0.2047  0.0992
69484W        W12537  27.376  13.340   6.448 -0.0302  0.1271  0.1740
69485W        W12538  14.994   5.702   1.376  0.1162 -0.1396 -0.3038
69486W        W12539  24.788  15.399  17.838  0.0106 -0.1821  0.0677
69487W        W12540   2.519  16.514   1.479 -0.2451 -0.0908 -0.1383
69488W        W12541   0.869  18.745  28.639  0.0515  0.1645  0.2513
69489W        W12542  16.982   3.286   6.399  0.2359 -0.1229  0.0976
69490W        W12543   4.219   8.554   5.503  0.0866  0.2004 -0.0032
69491W        W12544  10.467  31.981   3.177  0.2643  0.3207  0.1371
69492W        W12545  11.538  14.979   2.014 -0.0173  0.1971  0.1347
69493W        W12546  25.926  18.493  20.360  0.0529 -0.0002  0.0730
69494W        W12547   4.166  26.231   3.728 -0.0316 -0.2421  0.0731
69495W        W12548  13.832  19.647   1.461 -0.2195  0.0763 -0.2177
69496W        W12549   6.477  16.106  28.241 -0.0340  0.0616  0.0706
69497W        W12550  34.037   7.532  26.732  0.2249  0.3499 -0.0093
69498W        W12551   7.422  19.337   4.466  0.0049  0.3627 -0.2666
69499W        W12552  17.462  12.027   1.406  0.0805  0.0672  0.1521
69500W        W12553   6.319   8.999  22.857  0.1061 -0.1491 -0.0047
69501W        W12554   4.326  20.462  19.392 -0.0337 -0.0373  0.0901
69502W        W12555  32.075  13.100   8.537 -0.1484 -0.1280  0.0049
69503W        W12556  21.334  13.556   4.628 -0.1171  0.1062  0.2433
69504W        W12557  15.828   9.759  26.326 -0.2718  0.1988  0.1497
69505W        W12558  15.616   7.394   2.540 -0.1198  0.1433  0.1214
69506W        W12559   0.474   2.734  14.253  0.1707  0.1274  0.0335
69507W        W12560  13.790   4.102  28.713  0.1352 -0.0945  0.1512
69508W        W12561  17.329  10.213   3.997 -0.3520  0.1741 -0.2934
69509W        W12562  17.365  13.510   0.881  0.0225  0.1463 -0.4891
69510W        W12563   4.838  30.479   1.657  0.0724 -0.0776 -0.1808
69511W        W12564  13.521   4.447  26.397  0.1894  0.0116  0.1869
69512W        W12565   0.437  18.913   4.465  0.0453  0.0059  0.1505
69513W        W12566  12.461   9.170   7.400  0.0599 -0.3753 -0.2180
69514W        W12567   9.106  24.600   2.640  0.2428  0.1973  0.2533
69515W        W12568   0.361  17.689  14.859  0.0239  0.0585 -0.1589
69516W        W12569  11.660   3.274  26.625  0.2321 -0.0345  0.1685
69517W        W12570  14.799   3.454   7.109 -0.2544 -0.2318 -0.1488
69518W        W12571  33.605   9.925  25.717 -0.3630 -0.0990  0.1831
69519W        W12572  34.086   9.224  25.773  0.0296  0.2441  0.0177
69520W        W12573   0.015   2.290   7.620 -0.0051  0.1326 -0.0466
69521W        W12574  32.788   3.555   3.272  0.0369 -0.0142 -0.2047
69522W        W12575   6.711  18.392   8.658 -0.1236  0.1889  0.0545
69523W        W12576   6.381  11.912  22.897 -0.1165  0.1105 -0.2186
69524W        W12577  18.424  15.123  25.482  0.0143  0.0266 -0.2026
69525W        W12578   4.402  10.872  25.307 -0.1692  0.0688 -0.0183
69526W        W12579  10.175  14.137   5.927 -0.2407 -0.1571  0.2047
69527W        W12580   7.292   8.158   4.410  0.1322 -0.1173 -0.1309
69528W        W12581  14.470   2.001  28.295 -0.1973  0.1982  0.1215
69529W        W12582   1.588   2.168  16.231  0.1431  0.2074  0.3927
69530W        W12583  26.703  17.004   0.858  0.3142  0.2665  0.1357
69531W        W12584  30.177  27.210   7.542  0.1293 -0.0685 -0.1643
69532W        W12585  34.324  10.154   3.310 -0.0726 -0.3530  0.0180
69533W        W12586   2.848  17.269   7.482  0.4607  0.0586 -0.0810
69534W        W12587  20.042  33.394  25.303 -0.1000  0.0446  0.1100
69535W        W12588   4.594   1.415   4.796 -0.1290  0.0423  0.2630
69536W        W12589   9.246  20.023   7.705 -0.0877  0.0158 -0.0480
69537W        W12590  15.959   7.452   8.340  0.1325  0.2343 -0.0437
69538W        W12591   2.318  32.329   6.806 -0.0602 -0.0151 -0.2355
69539W        W12592  16.380   6.699   3.232  0.1324 -0.2597 -0.1665
69540W        W12593   0.764  34.011   9.468  0.1779 -0.3631 -0.0718
69541W        W12594   7.781   5.015  28.195 -0.1432  0.0073  0.4608
69542W        W12595  28.607  30.562   2.535  0.1946  0.3776 -0.2910
69543W        W12596   7.062  33.097  18.012  0.2555  0.1471  0.2719
69544W        W12597  31.483  13.504  20.577 -0.2168 -0.0046  0.1040
69545W        W12598  24.243   4.858  17.156 -0.2565  0.1706 -0.1002
69546W        W12599   3.163   0.011  24.244 -0.1705 -0.2926  0.0814
69547W        W12600  11.401   8.658   6.855 -0.1840  0.0170 -0.1660
69548W        W12601  27.503   2.363  19.768 -0.0549  0.2508 -0.0572
69549W        W12602  32.761   0.967  25.247  0.2708 -0.2595  0.2273
69550W        W12603   2.825   7.155  25.886  0.0708  0.2824 -0.1241
69551W        W12604   6.422  31.814   2.144 -0.1673  0.1790 -0.1699
69552W        W12605  10.037  11.407   5.479 -0.3391  0.1778  0.0672
69553W        W12606  26.848   7.927  17.962 -0.1308  0.2820 -0.1788
69554W        W12607  14.778  10.089   0.443 -0.1597 -0.1340  0.2708
69555W        W12608   3.304  18.343   6.482  0.1048 -0.0338 -0.3422
69556W        W12609  29.893  20.396   8.895  0.0562  0.1322  0.1344
69557W        W12610  32.812   4.413  18.225  0.0320  0.1148  0.1716
69558W        W12611  12.587  16.009  29.154 -0.0446 -0.0539 -0.1964
69559W        W12612  27.488  21.404   3.071  0.1840  0.1682  0.3505
69560W        W12613  20.026  23.982  23.464 -0.0838 -0.5729 -0.2731
69561W        W12614  10.411   1.007   2.140 -0.2296  0.2905 -0.5901
69562W        W12615  13.164  18.044   6.532  0.1185 -0.1758 -0.1365
69563W        W12616  28.199   9.756  29.002 -0.1302 -0.2180 -0.1251
69564W        W12617  34.643  26.321   2.937 -0.1356  0.2483  0.1132
69565W        W12618   5.938   7.314  14.713  0.0440  0.1392  0.0066
69566W        W12619   6.214  11.171   2.714 -0.0931  0.0368 -0.1698
69567W        W12620  13.911  26.695   7.928 -0.1005  0.2985  0.0651
69568W        W12621  19.255  16.087  22.788 -0.0194 -0.1117  0.4238
69569W        W12622   6.823  17.455  20.305 -0.1550 -0.0613 -0.3016
69570W        W12623   6.249  11.481   1.635 -0.1261  0.0557  0.0868
69571W        W12624  25.575  15.179  21.781 -0.5015  0.1392  0.0182
69572W        W12625   0.133  27.625  20.026 -0.0952 -0.1631 -0.2178
69573W        W12626   1.081  13.802   3.932  0.0516  0.3063  0.1375
69574W        W12627  34.649  18.967   9.190 -0.1030 -0.2083 -0.0525
69575W        W12628  29.324  12.003   8.074  0.1712 -0.0921  0.4426
69576W        W12629   8.245   6.602   9.111  0.1609 -0.1390 -0.0824
69577W        W12630  10.791  10.613   2.337 -0.3801 -0.1778  0.0630
69578W        W12631  29.755  20.026   6.524  0.1236  0.1027  0.0066
69579W        W12632   5.974  28.177   8.040  0.2103 -0.0450  0.2080
69580W        W12633   3.355  16.622   3.523 -0.1449 -0.1478 -0.0477
69581W        W12634   0.370   4.452  24.884 -0.1562 -0.0608 -0.1543
69582W        W12635  18.903   0.510   2.489 -0.0005 -0.2157  0.0980
69583W        W12636   4.976  15.520   1.626 -0.0908 -0.0635  0.2681
69584W        W12637  18.875   7.977  23.560  0.0213 -0.2587  0.1334
69585W        W12638   7.026   2.744  17.737  0.2374 -0.1215  0.0185
69586W        W12639  34.180  12.422   4.080 -0.0174  0.1513 -0.0456
69587W        W12640  33.925   0.700   9.560 -0.6682 -0.1008 -0.0888
69588W        W12641  30.121  29.280   6.878  0.2788 -0.1341  0.0691
69589W        W12642   1.450  15.910   4.549  0.2438  0.2923 -0.1575
69590W        W12643  13.721   3.885   9.752 -0.0191 -0.0363 -0.3180
69591W        W12644  14.168  12.178   5.882  0.3528  0.0050  0.3390
69592W        W12645   0.079  19.019   7.836 -0.0291  0.0505 -0.1163
69593W        W12646   3.070  15.149   7.867 -0.2006  0.2290  0.1376
69594W        W12647   7.063   4.839   3.467 -0.1252 -0.2276 -0.2877
69595W        W12648   0.832   8.110   3.502  0.2521 -0.2556  0.0842
69596W        W12649   4.307   6.555   2.955 -0.4347 -0.0199  0.1983
69597W        W12650  10.578  30.166  24.120  0.0626 -0.0031 -0.0205
69598W        W12651   2.228  30.102   5.932  0.1380 -0.1005  0.2858
69599W        W12652   4.625  22.041   6.172  0.1920  0.0577  0.2563
69600W        W12653  25.366   3.733   3.586  0.1372  0.1696  0.0055
69601W        W12654   4.290   7.377  22.747  0.1333  0.0188 -0.1034
69602W        W12655  16.219  14.867  26.017  0.1320 -0.1200 -0.0027
69603W        W12656  32.425   8.620  28.426 -0.0032  0.2122 -0.3420
69604W        W12657   2.138   8.483   9.994  0.0431  0.1639  0.0231
69605W        W12658   9.890  25.751   1.439  0.0529  0.1745  0.1211
69606W        W12659  16.714  13.723  28.562  0.3291  0.4305  0.1891
69607W        W12660   1.844  16.325   7.879  0.1434  0.0875 -0.0259
69608W        W12661   0.562   2.925   6.664 -0.2821  0.1750  0.2749
69609W        W12662  30.371  11.884   1.031  0.1184 -0.0328  0.1608
69610W        W12663   6.469   6.864   3.054  0.0799  0.1618 -0.1795
69611W        W12664   8.857  14.810   4.343 -0.2587  0.1067 -0.1671
69612W        W12665  14.519   4.955  21.911 -0.1320 -0.0837 -0.2064
69613W        W12666  28.130  12.243  20.730 -0.1832 -0.2270  0.0705
69614W        W12667   3.084   2.839   5.441 -0.3035 -0.5197  0.2979
69615W        W12668  33.789   8.097  10.583 -0.1436 -0.1723 -0.1337
69616W        W12669   6.004  20.535  28.522 -0.0985 -0.0667  0.1964
69617W        W12670   5.404  11.006   5.084  0.3082 -0.0666 -0.1209
69618W        W12671  23.456  11.106   1.586 -0.1354  0.1253 -0.0633
69619W        W12672   0.331   1.379  25.041 -0.2033  0.0884  0.1165
69620W        W12673  34.336  14.780  26.344 -0.0045 -0.3559 -0.5285
69621W        W12674   2.757  11.393  18.116  0.1528 -0.0441 -0.1079
69622W        W12675   2.136  16.993   3.384 -0.1420 -0.0093 -0.0473
69623W        W12676  30.864  16.294   7.575 -0.2840  0.0530 -0.4896
69624W        W12677  15.318  25.802  25.833 -0.4139  0.1071  0.1887
69625W        W12678  26.633  22.330   5.902  0.2912 -0.0495  0.1221
69626W        W12679  28.512   8.179  28.647  0.2841 -0.1583  0.4270
69627W        W12680   3.754  26.275   8.573 -0.3302  0.1347 -0.1592
69628W        W12681  34.425  14.916   6.819 -0.1211 -0.1204 -0.1174
69629W        W12682  22.367  14.359   2.702  0.0091 -0.1741  0.1377
69630W        W12683   1.821  22.680   1.057 -0.0630  0.1162  0.0690
69631W        W12684   8.684  14.869   3.891 -0.0274 -0.0471 -0.1726
69632W        W12685  12.221  32.055  20.751  0.1013 -0.1478 -0.0190
69633W        W12686  21.877   2.190   4.499  0.0939 -0.0399 -0.3829
69634W        W12687  19.826  14.312  27.180  0.4896  0.2376  0.4558
69635W        W12688  10.114  14.784   1.957  0.2239 -0.1752  0.1353
69636W        W12689  33.154   4.401  29.140  0.1296  0.0739 -0.1200
69637W        W12690  28.932  23.032  20.984  0.4825  0.1724 -0.0846
69638W        W12691   7.592   2.532   6.664 -0.0302 -0.1813 -0.0656
69639W        W12692  22.013  22.330  19.238 -0.3260  0.1894  0.0817
69640W        W12693  34.106  15.156  25.487  0.3208 -0.1148  0.2091
69641W        W12694   8.241   9.221  21.651 -0.3634 -0.1832  0.1883
69642W        W12695   7.641   8.977   6.174 -0.5791  0.1562 -0.2615
69643W        W12696   1.030  11.172   7.153 -0.1184  0.5605 -0.3151
69644W        W12697  33.420   9.128   7.103  0.0826  0.1865  0.0021
69645W        W12698   1.164  34.163   3.342 -0.2777  0.0078 -0.0880
69646W        W12699   8.701  32.862   2.382  0.0744 -0.1091  0.0933
69647W        W12700  10.835  34.272   9.764 -0.0796 -0.1067  0.0911
69648W        W12701  13.226  14.486  28.585  0.0655 -0.1573  0.0206
69649W        W12702  19.164   8.741   4.395 -0.3643  0.0342  0.0473
69650W        W12703   4.213  20.567  21.524 -0.0566  0.2286 -0.0145
69651W        W12704   0.546  15.643  21.520  0.1376  0.0563  0.0626
69652W        W12705  21.196  22.043   7.836 -0.4484 -0.2467 -0.1610
69653W        W12706   0.384   5.712   3.974  0.1030  0.0524 -0.3331
69654W        W12707  22.593  16.705  20.877 -0.1438 -0.2295  0.2141
69655W        W12708   4.462   1.497   6.225 -0.1447 -0.3388  0.2319
69656W        W12709   6.217  20.652  27.531 -0.0914 -0.2884 -0.0125
69657W        W12710  11.925  20.084  17.238 -0.1487 -0.2078 -0.0445
69658W        W12711  15.921  27.588   3.810  0.0098 -0.2050  0.2996
69659W        W12712   5.510  34.210  26.630 -0.2892  0.0287 -0.1435
69660W        W12713  17.428  34.678  27.880  0.2589  0.3213  0.1854
69661W        W12714  13.321  20.975  17.521 -0.0139  0.1620 -0.2595
69662W        W12715  21.346  13.903  29.030 -0.2325 -0.1973 -0.1619
69663W        W12716   5.004   3.147  16.397  0.2478 -0.0041 -0.2130
69664W        W12717  27.742  22.265   9.564  0.1265  0.1620 -0.0574
69665W        W12718   0.613   2.221  10.222  0.1703 -0.1461 -0.0477
69666W        W12719   1.042  16.236   3.708 -0.1014  0.0873  0.0398
69667W        W12720   6.359  14.362  28.686  0.0124 -0.0548  0.2940
69668W        W12721   5.309  15.688   2.478  0.0120  0.0458 -0.2437
69669W        W12722   4.978   9.229   0.599 -0.1694 -0.0781  0.3417
69670W        W12723   4.516  18.414   7.394  0.2522 -0.1623 -0.1472
69671W        W12724   0.268  14.754   5.032  0.0736  0.1483  0.2246
69672W        W12725  16.779  19.192  27.759 -0.1781 -0.0261  0.0198
69673W        W12726  12.983  11.084   6.298 -0.2696  0.2351  0.0095
69674W        W12727   9.744  11.249   9.822 -0.1062 -0.4050 -0.1044
69675W        W12728  13.925   3.457  27.377  0.2230 -0.1157  0.0900
69676W        W12729  10.413  13.259  20.056  0.0823  0.2509 -0.1669
69677W        W12730   5.730  33.550   6.090  0.1222  0.0168  0.0749
69678W        W12731   3.310   1.849   7.803 -0.2921  0.5227 -0.0323
69679W        W12732   8.998   1.831   1.052 -0.3079 -0.0706 -0.1504
69680W        W12733   6.300  24.853  14.136 -0.2387 -0.1924 -0.0215
69681W        W12734  26.097  16.964   0.916 -0.1235 -0.0355  0.0626
69682W        W12735   3.980  18.322   8.090 -0.3849  0.3697  0.2935
69683W        W12736  10.127  13.601   1.018  0.1227  0.1574  0.2455
69684W        W12737  19.153  20.040   8.365  0.0760 -0.0959  0.0720
69685W        W12738   4.901  11.524   5.912 -0.0357  0.0359 -0.2922
69686W        W12739   6.057   8.073  23.983  0.0126 -0.0809 -0.0339
69687W        W12740  31.025  19.852  13.733  0.1391  0.1633  0.3743
69688W        W12741   5.868  14.130   0.582  0.1980  0.1508  0.1270
69689W        W12742   5.675   7.193   8.657  0.1041 -0.1476 -0.0359
69690W        W12743  29.898  11.745  18.348  0.1064 -0.0198 -0.0044
69691W        W12744  21.163   4.820   8.212 -0.0069 -0.0936 -0.4952
69692W        W12745   0.749   7.511   5.642  0.0886 -0.3576  0.0846
69693W        W12746  32.233  17.193  16.279 -0.4213  0.1360 -0.0760
69694W        W12747   2.517  23.706   3.237 -0.0647  0.0449 -0.0530
69695W        W12748   9.563  12.754  25.561  0.2107 -0.2904 -0.0315
69696W        W12749   6.453  13.215  22.642 -0.1423 -0.0871 -0.3413
69697W        W12750  28.049   1.541   8.173  0.0509 -0.1424  0.2187
69698W        W12751  24.692   4.393  25.771  0.1280 -0.2150  0.0072
69699W        W12752  11.864  30.834  27.048 -0.0112  0.1203  0.1535
69700W        W12753   6.535   2.620   2.191  0.0625 -0.1739 -0.0440
69701W        W12754   0.445   9.352   6.709  0.3066  0.1270 -0.2503
69702W        W12755  11.827   1.200   7.017 -0.1473 -0.0311 -0.2690
69703W        W12756   3.547  16.914  28.282  0.0610 -0.0701  0.1267
69704W        W12757   8.180   7.810   9.594  0.0427  0.0651 -0.1111
69705W        W12758  34.437  12.622  27.288 -0.2621 -0.2370  0.0085
69706W        W12759  28.373  15.901  27.601  0.0321 -0.2278 -0.0176
69707W        W12760   6.662  19.615  24.519  0.0199 -0.1194  0.2386
69708W        W12761  27.560   3.574  23.009  0.1049  0.2404 -0.0000
69709W        W12762  31.990  17.404   4.909  0.0828  0.0926 -0.1809
69710W        W12763  14.217   1.311   7.228 -0.5989  0.1283 -0.1970
69711W        W12764  33.738  21.207   0.935 -0.0974 -0.0356  0.2278
69712W        W12765   8.543   7.547   8.138 -0.1967 -0.0131 -0.2571
69713W        W12766  16.503  16.322  27.643  0.0599  0.3489 -0.1357
69714W        W12767  28.091   6.796  23.139 -0.6543  0.2293  0.1459
69715W        W12768   3.499  11.410   5.830 -0.0412  0.0275  0.1991
69716W        W12769  22.695  34.076   6.292  0.1713  0.1962  0.0376
69717W        W12770   0.253   9.326  14.135 -0.1061  0.2074  0.0294
69718W        W12771   7.117  29.672  27.111  0.1042  0.0488  0.0424
69719W        W12772   6.510   3.209   3.706 -0.1629  0.0020  0.1393
69720W        W12773   4.979  14.767   1.624 -0.0143  0.2161  0.0000
69721W        W12774   8.687   0.117   9.113  0.0951 -0.1371  0.0254
69722W        W12775  32.186  34.004   1.021  0.3211  0.0628 -0.1872
69723W        W12776  15.225  18.060  16.087 -0.1281  0.1103  0.1004
69724W        W12777  15.203  31.655   2.753  0.2148  0.0957  0.0430
69725W        W12778  18.150  10.798   7.314  0.2471  0.2021  0.0882
69726W        W12779  17.902   4.114  27.271  0.2253  0.3363  0.0525
69727W        W12780  32.634  16.649   6.409 -0.0087 -0.2740  0.1458
69728W        W12781   8.418   9.838  22.554  0.0459  0.0737 -0.0208
69729W        W12782  12.421  12.482   9.589 -0.0585 -0.1268 -0.0199
69730W        W12783   3.831   2.752  28.222  0.0490  0.0993  0.2034
69731W        W12784   4.409  20.556  28.969  0.1945  0.1481  0.5537
69732W        W12785   7.690   8.821  28.947 -0.0198 -0.1879  0.1734
69733W        W12786   2.606   7.704   0.852  0.1313 -0.2389 -0.0939
69734W        W12787   7.609   1.169  19.396 -0.1832 -0.0780  0.4338
69735W        W12788  30.543   3.170  28.132 -0.2222  0.1573 -0.1304
69736W        W12789  33.613   1.023   5.348  0.0900 -0.0458 -0.3365
69737W        W12790  12.146  19.535   4.975  0.2133  0.0002  0.1004
69738W        W12791  27.935  26.656   6.547  0.4682 -0.0651 -0.1841
69739W        W12792   5.632   8.878   7.584  0.1031 -0.0050 -0.1149
69740W        W12793  17.448   9.973  24.384  0.1105  0.1979 -0.1634
69741W        W12794  17.498  19.087   1.851 -0.2152  0.1156 -0.0437
69742W        W12795  11.362  16.499  25.189  0.3871 -0.0648  0.0248
69743W        W12796   5.855  28.529  17.358 -0.0492 -0.0156  0.1274
69744W        W12797  14.861   7.307   2.113 -0.0113  0.0213  0.0461
69745W        W12798  13.620  14.975   9.894 -0.0523  0.0912 -0.1237
69746W        W12799   0.970   9.841  18.866 -0.0383 -0.1388  0.1990
69747W        W12800   3.785  17.800   2.810 -0.3604  0.1980 -0.1622
69748W        W12801  29.575  11.622  24.434  0.1868  0.3385  0.2797
69749W        W12802  27.285  19.401   7.718 -0.2530  0.0070  0.3932
69750W        W12803  10.653   9.722   3.178 -0.1598 -0.1258  0.2559
69751W        W12804   6.862  26.029  27.459 -0.1383  0.0777 -0.0803
69752W        W12805  26.344   0.273   0.701  0.0684 -0.1851  0.0523
69753W        W12806  33.818  16.658   3.648 -0.0942  0.0608 -0.3747
69754W        W12807  14.031  19.364  24.314  0.2926 -0.1387  0.2135
69755W        W12808  29.439   6.209  21.590  0.3076 -0.0285 -0.0676
69756W        W12809  33.011  26.336   6.721  0.2812  0.0255 -0.1577
69757W        W12810   6.119  25.445   9.498  0.2328 -0.1247  0.3498
69758W        W12811  32.908  16.294  26.255 -0.3780 -0.0739  0.2949
69759W        W12812  34.417   8.981   6.662  0.4361  0.0669  0.1179
69760W        W12813  18.369  23.711   5.850  0.1645  0.0763 -0.2043
69761W        W12814   1.175   2.693  28.737 -0.1711  0.2565 -0.0774
69762W        W12815  28.160   9.456  10.965  0.2877  0.2318 -0.1725
69763W        W12816  14.804  25.881  23.718 -0.0479  0.1164  0.0555
69764W        W12817   4.609  12.559   1.811 -0.1360 -0.0801  0.0713
69765W        W12818   7.672  12.991   3.692  0.0611 -0.3623  0.0472
69766W        W12819   6.162   8.506  24.301  0.2435  0.0740  0.3516
69767W        W12820  25.467  32.139   3.901 -0.0596  0.1001  0.0215
69768W        W12821  17.660  16.238  25.413 -0.1174 -0.1149  0.1093
69769W        W12822   7.399  33.154   4.944 -0.3512 -0.0499 -0.0617
69770W        W12823  19.761   8.139   8.275  0.0333 -0.0055 -0.1540
69771W        W12824  15.657  13.936   4.282 -0.0621 -0.0957  0.0525
69772W        W12825   3.355   8.550   3.343  0.3572  0.1877 -0.0160
69773W        W12826   3.872  22.486  15.842  0.0424 -0.0345 -0.2424
69774W        W12827  21.901  25.476  28.785  0.4980 -0.0563  0.0900
69775W        W12828   2.348   5.485   5.536 -0.2352 -0.1187 -0.0126
69776W        W12829  33.626   8.680  24.673  0.3106 -0.1709  0.0857
69777W        W12830  12.083   4.913   0.346 -0.1343 -0.1961  0.0699
69778W        W12831  10.549   9.756   7.895  0.1624 -0.2839 -0.0567
69779W        W12832  11.515  26.997   6.559 -0.0684 -0.1320  0.0118
69780W        W12833  17.818  14.106  21.602 -0.1587  0.0745 -0.0282
69781W        W12834  10.636  11.036  26.060  0.0194 -0.0291  0.0893
69782W        W12835  33.767   7.738  25.448  0.3102  0.3077 -0.0727
69783W        W12836  12.241   5.486   7.343 -0.1318 -0.1134 -0.2692
69784W        W12837  24.654  17.297   8.489 -0.1080  0.3317 -0.1829
69785W        W12838  13.115  31.973   4.136  0.0276  0.2454 -0.1391
69786W        W12839  33.175  24.188   8.424 -0.2527  0.1779 -0.0355
69787W        W12840  33.725   6.806   7.996 -0.1796  0.1060 -0.1697
69788W        W12841  20.683  22.519   5.793 -0.3137  0.1598 -0.1523
69789W        W12842   6.056   9.981   7.910  0.0538  0.2035  0.1683
69790W        W12843  24.314  32.260   5.125  0.0580  0.2000 -0.3673
69791W        W12844   3.850  20.768   6.456 -0.1144 -0.2126 -0.1395
69792W        W12845   2.554   1.856  26.574 -0.0246  0.1968 -0.1305
69793W        W12846  27.633  34.319   9.655 -0.0324 -0.4504 -0.1151
69794W        W12847  21.149  11.139   9.931  0.0357  0.2148  0.0008
69795W        W12848  26.435  15.021   2.765 -0.1756 -0.1530  0.1971
69796W        W12849  24.293  20.351   8.694 -0.0810 -0.0971  0.2104
69797W        W12850  12.378  14.875   0.946  0.2230 -0.0500  0.0653
69798W        W12851  16.715   2.722  28.599 -0.1505 -0.1546  0.3791
69799W        W12852  18.248   9.940  26.262  0.2524  0.0632  0.2192
69800W        W12853  26.211  20.758  23.981 -0.0694  0.2165 -0.3378
69801W        W12854   6.792  12.466  10.106  0.0970 -0.1071 -0.0401
69802W        W12855  28.317  24.562  24.115  0.0865  0.0759  0.0393
69803W        W12856  33.789   2.548   3.374  0.0953  0.3151 -0.2026
69804W        W12857  34.023  14.234   8.074  0.1094  0.1668 -0.1358
69805W        W12858   5.502  15.581   9.608  0.1875  0.4555 -0.1236
69806W        W12859  10.309  16.220  17.984 -0.1591  0.0365 -0.2302
69807W        W12860  11.891   6.188   5.213 -0.0712 -0.1256  0.1405
69808W        W12861  30.191  11.159   9.461 -0.1465 -0.0050  0.0789
69809W        W12862   3.428  27.765   1.824 -0.1129 -0.1358 -0.1023
69810W        W12863  33.740   7.324   8.192  0.1715 -0.2396  0.0097
69811W        W12864   1.992  32.685  26.659 -0.3185 -0.2363  0.3258
69812W        W12865  34.402   3.011   6.761  0.1101 -0.0478  0.2947
69813W        W12866  33.595   8.435   3.293  0.0410  0.0458  0.1018
69814W        W12867  27.022  17.713  16.914 -0.0172 -0.1525  0.0396
69815W        W12868  14.750  13.076  10.975 -0.2958  0.2567 -0.1007
69816W        W12869  23.897  10.577   1.882  0.0448  0.4137 -0.0143
69817W        W12870   4.908  12.191   9.557  0.1214  0.1257  0.0932
69818W        W12871   3.317   2.032  27.802 -0.1354 -0.0274  0.1075
69819W        W12872   7.650   3.101   9.559 -0.1600 -0.2990  0.0185
69820W        W12873   2.638   8.453  27.453  0.1533  0.0138 -0.0636
69821W        W12874  29.415  18.199   7.006 -0.0667  0.0463 -0.1986
69822W        W12875  11.964   4.549   3.768  0.2891 -0.0125 -0.0333
69823W        W12876   1.241   6.534   1.920  0.0230  0.1361  0.1846
69824W        W12877  11.460  15.053   9.683  0.5294 -0.0983 -0.0386
69825W        W12878  28.225   4.352   7.315  0.0176 -0.0404  0.2677
69826W        W12879   0.214  19.674  20.707 -0.0522 -0.2658 -0.0382
69827W        W12880  24.993  14.660   0.937  0.0278 -0.0036  0.5138
69828W        W12881   4.449   9.474  27.434 -0.0399  0.0208 -0.0855
69829W        W12882  33.006  34.512   5.133 -0.1429 -0.3835 -0.1179
69830W        W12883  25.546  17.559  25.819 -0.2676 -0.0149 -0.1823
69831W        W12884  21.870  14.613   7.149 -0.0940 -0.0545  0.3827
69832W        W12885   3.644   6.804   8.116  0.2536 -0.1244 -0.2741
69833W        W12886  29.032  16.219   4.845  0.0892  0.1509 -0.3128
69834W        W12887   5.065  34.639  22.022 -0.0444 -0.1325 -0.1521
69835W        W12888   2.561  13.630   1.016 -0.1277  0.0412 -0.0324
69836W        W12889   9.961  17.954   1.878 -0.0243 -0.1287 -0.0111
69837W        W12890   1.084   9.346  25.081 -0.2096  0.0149  0.0799
69838W        W12891  26.944   5.587  24.678  0.2927  0.0529  0.0872
69839W        W12892  10.720  12.211  11.375 -0.0386 -0.1970 -0.0675
69840W        W12893  31.145  12.473   8.123 -0.3527 -0.0243 -0.1782
69841W        W12894  21.829   9.230   2.232 -0.1248 -0.1737  0.1499
69842W        W12895   7.337  20.787   3.760  0.0163  0.1181 -0.2726
69843W        W12896  31.204  22.350   3.488 -0.2341  0.0569 -0.3771
69844W        W12897  15.336  22.906   0.200 -0.5039 -0.3173  0.1493
69845W        W12898  22.442  10.985   0.744 -0.1399 -0.0036  0.2438
69846W        W12899  33.150  11.087   8.707 -0.0421 -0.0215 -0.3048
69847W        W12900  33.054  17.575   5.170  0.1832  0.0268  0.2185
69848W        W12901  10.751  10.134  10.706 -0.0332  0.1603 -0.1577
69849W        W12902  33.230  17.009   8.119 -0.1654 -0.1862 -0.1488
69850W        W12903   8.728   5.322  23.872  0.0693 -0.0160  0.2847
69851W        W12904  34.221  20.127   3.552  0.1869  0.2642  0.2945
69852W        W12905  17.159  19.589   5.338 -0.1762  0.1146 -0.2714
69853W        W12906  33.886   9.368   9.847 -0.0901 -0.1720 -0.1816
69854W        W12907  30.335  14.633   3.832 -0.1540  0.4407 -0.0892
69855W        W12908   2.883  11.935   1.625  0.1978 -0.1763 -0.0390
69856W        W12909  18.257  13.101   4.880  0.0641  0.0597  0.1657
69857W        W12910   1.118   2.217  28.576 -0.1654  0.1036 -0.0757
69858W        W12911  27.766  16.907  10.245 -0.0087  0.0810 -0.1723
69859W        W12912   1.234   7.864   8.739  0.2384  0.1398  0.1574
69860W        W12913  14.026  23.006  14.388 -0.2503 -0.1064  0.0392
69861W        W12914   8.866  21.787   2.722  0.1246  0.0406 -0.1238
69862W        W12915  23.665   9.545   0.785  0.1422  0.0664  0.1068
69863W        W12916  29.140  11.067  28.397  0.0608 -0.1324 -0.0714
69864W        W12917  10.969  19.460   7.177  0.0588 -0.1270  0.1277
69865W        W12918   4.630  16.202  25.291 -0.0650  0.4940 -0.0683
69866W        W12919   9.557  26.868  28.943  0.0012  0.1019  0.1944
69867W        W12920  28.281   5.467   1.013  0.1405  0.0525 -0.3080
69868W        W12921   6.951  10.535   9.472  0.0785 -0.2945  0.0627
69869W        W12922  20.185   4.033   0.616  0.3365 -0.2204 -0.2722
69870W        W12923  29.540  29.983   0.006  0.1614 -0.0758 -0.1433
69871W        W12924  11.348  20.598   5.120  0.2065 -0.2112 -0.1067
69872W        W12925  10.316   4.190  15.489  0.0217  0.0569  0.1232
69873W        W12926  15.616   5.022  29.132  0.2414 -0.1174  0.0709
69874W        W12927   9.709  15.796   8.273  0.0811  0.0571 -0.0701
69875W        W12928   8.563   0.894   2.145  0.1272  0.3546  0.2818
69876W        W12929  33.774  23.936   5.977 -0.0953 -0.0141 -0.1152
69877W        W12930   6.463  29.220  27.880  0.1729  0.0063  0.3451
69878W        W12931   1.478  19.201  16.333  0.0153 -0.0607 -0.0540
69879W        W12932  19.907  15.877   8.248 -0.1648 -0.0707  0.0992
69880W        W12933  23.269  11.434   9.093 -0.2432  0.0972 -0.0195
69881W        W12934   8.427  13.406   8.581  0.2995 -0.1412  0.0228
69882W        W12935  10.118  11.481  29.027 -0.1367 -0.2366  0.1781
69883W        W12936  18.805   6.921   4.386  0.0529 -0.3803  0.0747
69884W        W12937   3.390   3.847   3.267  0.1842  0.1767  0.1832
69885W        W12938  27.186  28.484  28.958  0.1490 -0.1311  0.0809
69886W        W12939   2.434  11.298   9.590 -0.5208  0.4834 -0.1719
69887W        W12940   6.416   7.923   8.655  0.3223  0.1462 -0.0515
69888W        W12941  15.546   4.867   8.353  0.0602 -0.1866 -0.0071
69889W        W12942  25.417  22.501   9.801  0.2133  0.0687  0.0088
69890W        W12943  19.273  14.770  28.073  0.1250 -0.1388  0.2574
69891W        W12944  15.355   4.170   4.469  0.2311  0.2914  0.2204
69892W        W12945   4.245  18.249  22.142 -0.1083  0.1860  0.0910
69893W        W12946  10.340  19.985  28.039 -0.2275 -0.1698  0.1631
69894W        W12947  12.888   9.545  16.367  0.1191  0.0868  0.0480
69895W        W12948  17.291  20.464  25.029 -0.3887 -0.0039 -0.1367
69896W        W12949  10.555  18.774   1.346 -0.1519  0.1247 -0.2492
69897W        W12950   9.440   9.316  27.175  0.0714 -0.1004 -0.2127
69898W        W12951  10.754  19.023   4.351  0.1032  0.4006  0.1962
69899W        W12952   7.826   3.464   6.849 -0.1571  0.0031  0.0670
69900W        W12953  31.473  10.581  25.468  0.2602  0.0157 -0.1494
69901W        W12954  14.084  26.101   1.315  0.2105 -0.0710  0.0683
69902W        W12955  32.398  24.205   4.935  0.1498 -0.3388  0.1049
69903W        W12956   6.740  11.063   6.055  0.2918  0.0613 -0.0277
69904W        W12957   0.785  18.289   6.533  0.0886  0.0053 -0.0268
69905W        W12958   1.616  21.883  17.366  0.2255  0.1348 -0.2324
69906W        W12959  33.952  13.253   5.234 -0.0091 -0.1228 -0.1268
69907W        W12960  27.155  14.708   4.518 -0.4376  0.3511  0.0091
69908W        W12961  20.750  16.970   1.192  0.2254  0.0524 -0.5010
69909W        W12962  15.515  18.804   9.965  0.0539  0.3839 -0.1233
69910W        W12963  20.064  18.145   5.796  0.3855  0.0463 -0.0961
69911W        W12964   8.551   3.177   1.692 -0.0234 -0.0989 -0.0092
69912W        W12965   1.475   9.031  22.187 -0.0915 -0.2683 -0.0794
69913W        W12966   9.658  17.882   9.368 -0.1585  0.0127  0.1824
69914W        W12967  34.360   1.594   9.647  0.2867  0.1330  0.0031
69915W        W12968   8.635   2.519  22.135  0.0365  0.0661 -0.1750
69916W        W12969  31.435  29.282   4.807  0.0897  0.1906  0.1731
69917W        W12970   2.533  23.137  10.339  0.1356 -0.2877 -0.1837
69918W        W12971   3.902  12.187  21.207 -0.0245 -0.3232 -0.4829
69919W        W12972   6.909   6.428  17.715 -0.0096 -0.3219 -0.0877
69920W        W12973  19.482  25.920  10.060  0.1104  0.2215  0.1054
69921W        W12974   6.351  32.821   1.792  0.1380 -0.1672  0.1491
69922W        W12975  10.714  34.437   7.352  0.0108  0.0605 -0.1440
69923W        W12976  30.071  10.293  20.557 -0.2063  0.0012  0.0058
69924W        W12977  30.087   5.390   7.697  0.1511  0.0049  0.0117
69925W        W12978   5.710  10.469  26.486  0.1390 -0.0143  0.1218
69926W        W12979   1.095   9.407   3.094  0.3392  0.3201  0.1676
69927W        W12980   1.575  20.942   4.303  0.1070 -0.3192 -0.4620
69928W        W12981   4.760  10.252   9.958  0.1880  0.0380 -0.0131
69929W        W12982   5.659   8.514   6.261  0.1350 -0.0805  0.0583
69930W        W12983   6.391   8.751   8.107 -0.1433 -0.1096  0.3306
69931W        W12984  12.765   9.491  21.726  0.1238  0.0312 -0.0374
69932W        W12985   3.108   6.679  27.216 -0.2584  0.0991 -0.0240
69933W        W12986  15.292  14.587   7.943 -0.0146  0.0615  0.0547
69934W        W12987   5.999  12.606  26.160 -0.2580  0.0386 -0.1967
69935W        W12988   4.294  14.462  23.227 -0.1692  0.0117 -0.2962
69936W        W12989   2.721  12.750  21.086 -0.2817 -0.3909 -0.1907
69937W        W12990  29.880  20.420  24.191  0.1244  0.1231 -0.0730
69938W        W12991   0.409  12.703  15.478  0.2253 -0.1513  0.1132
69939W        W12992  32.000   7.562  14.753 -0.3224  0.0782  0.2532
69940W        W12993   2.317  21.692  29.070 -0.1506 -0.2758  0.3543
69941W        W12994  11.328  10.712   8.759  0.3610 -0.2023  0.1885
69942W        W12995  21.679  34.390  22.739  0.0334  0.0640  0.0277
69943W        W12996  15.707  32.627  26.798 -0.0768  0.0541 -0.0743
69944W        W12997  30.681   4.243  26.509 -0.1479 -0.0446 -0.1455
69945W        W12998   6.403  13.106   7.612  0.1413 -0.2273 -0.0630
69946W        W12999   9.168  18.380   6.767  0.0738  0.1299 -0.2040
69947W        W13000   6.404  31.765  23.485 -0.3284  0.2147  0.2170
69948W        W13001   0.439   0.493   5.693  0.1834 -0.0795 -0.0361
69949W        W13002  10.139  16.855  27.527  0.0849 -0.0224  0.0975
69950W        W13003   1.873  18.106   0.327  0.0581  0.0889 -0.2177
69951W        W13004  28.802  15.406   0.253  0.3514  0.0421 -0.1607
69952W        W13005   2.802  12.212  16.340  0.2149 -0.1927  0.0457
69953W        W13006   1.254  10.369   0.903  0.0246 -0.1687  0.0267
69954W        W13007  14.541  12.439  23.965  0.1392 -0.0448 -0.0918
69955W        W13008   2.706  15.034   0.746 -0.4291  0.0628  0.1898
69956W        W13009  17.163  10.908   0.165 -0.0060 -0.1346 -0.0281
69957W        W13010   4.411  11.331   6.778  0.0399 -0.0353 -0.1911
69958W        W13011  14.184  20.391   5.906  0.2281 -0.0491  0.1469
69959W        W13012   7.084  19.754  14.115  0.3143  0.1315  0.0428
69960W        W13013  12.121  16.117   9.884  0.0473 -0.0016 -0.0002
69961W        W13014   3.067  19.527   8.462  0.0729 -0.2445 -0.2608
69962W        W13015   7.084  19.174   1.335  0.1793 -0.1588 -0.3861
69963W        W13016   7.737  32.702   6.974 -0.4169  0.0818 -0.1951
69964W        W13017   1.568  33.817   5.763  0.1562  0.1080 -0.3679
69965W        W13018  33.516   1.464   9.477  0.0539  0.3321 -0.0242
69966W        W13019  28.881  10.155   2.084  0.3526 -0.1315  0.0698
69967W        W13020  28.839  20.639  23.565  0.1257  0.3540  0.1001
69968W        W13021  31.835  21.475  28.128 -0.1278 -0.0227  0.0998
69969W        W13022  34.624  23.157  27.873  0.0434  0.2368  0.1866
69970W        W13023  14.725  14.440   3.377 -0.0193 -0.0920 -0.0514
69971W        W13024  29.020  30.537  21.138  0.0316 -0.1064 -0.0670
69972W        W13025   1.606  21.191   0.334 -0.1990  0.1636 -0.0748
69973W        W13026  14.408   5.369  24.686 -0.0401 -0.0558  0.3160
69974W        W13027   9.444  25.633   3.842 -0.4524 -0.1722  0.0859
69975W        W13028   0.246  11.836   6.328  0.0786  0.2079  0.1046
69976W        W13029  10.198   4.853   2.183 -0.1257 -0.0720 -0.0270
69977W        W13030   9.605  21.555   0.587 -0.1166  0.0444 -0.0964
69978W        W13031   0.632   7.981  22.270  0.1007 -0.1067 -0.2254
69979W        W13032   4.119  31.893  20.138  0.0110 -0.2504  0.0616
69980W        W13033   8.777  21.770   5.319  0.1606 -0.0921 -0.2309
69981W        W13034   7.806   1.000  28.318 -0.1753  0.0555  0.2635
69982W        W13035  16.753  24.741   3.445 -0.3663 -0.2133  0.1229
69983W        W13036  15.567  14.528  22.903 -0.2826  0.1841 -0.0339
69984W        W13037  34.658  11.123  21.602  0.2811  0.3026 -0.1060
69985W        W13038   3.373  18.739   2.984 -0.0684  0.0877 -0.1249
69986W        W13039   4.731   6.047   4.735  0.1224 -0.1006  0.0398
69987W        W13040  12.760  10.083   4.356 -0.0040  0.2143 -0.0615
69988W        W13041  28.336  24.134   2.293  0.1818 -0.0913  0.1518
69989W        W13042   9.927  14.537  25.489  0.0139 -0.1337 -0.2398
69990W        W13043  28.324  12.812   2.265  0.1690  0.0057 -0.2553
69991W        W13044   4.479  14.809   9.077  0.2683  0.1294 -0.1017
69992W        W13045  32.988  32.681  27.901 -0.0566 -0.0630 -0.1875
69993W        W13046   2.875   7.502  22.104 -0.2535  0.2992  0.1808
69994W        W13047   7.566  10.649   8.642 -0.0858  0.0090  0.1627
69995W        W13048  11.746  11.272   4.040 -0.1756  0.1653  0.0184
69996W        W13049  31.947  16.792   2.348 -0.0728  0.1591 -0.1283
69997W        W13050  11.042   8.002   0.978  0.0558  0.2131  0.0881
69998W        W13051   6.599  18.498   0.403  0.0436 -0.0959  0.4391
69999W        W13052  10.556   7.003   8.033  0.1230  0.1810 -0.1626
70000W        W13053  11.735  22.786  25.483  0.1249 -0.3182 -0.0356
70001W        W13054   7.372   9.058  21.260 -0.1379 -0.2080  0.1371
70002W        W13055  14.255  15.009  20.527  0.0075  0.1551  0.2532
70003W        W13056  29.218   9.923   0.120  0.2497  0.0926  0.0462
70004W        W13057   4.631  14.631  19.171  0.1092 -0.2506  0.2686
70005W        W13058  31.603   7.488   3.194  0.0198 -0.3193 -0.0474
70006W        W13059  17.701  11.415   9.326 -0.0138 -0.1945 -0.0290
70007W        W13060  31.459   5.851   8.799  0.1436  0.0137 -0.2107
70008W        W13061   6.332  26.743   5.852 -0.2305 -0.2667  0.0361
70009W        W13062  16.141  24.115   9.934  0.3569 -0.1733  0.1120
70010W        W13063   8.038  21.164   0.778  0.0699  0.0443 -0.1048
70011W        W13064  11.108  27.674  25.948  0.1076 -0.1933  0.2255
70012W        W13065  23.734   9.641  20.071  0.0201 -0.1254  0.0011
70013W        W13066   1.814   4.974   6.660 -0.0902 -0.0988  0.3940
70014W        W13067   1.603  21.318  21.759 -0.1359  0.2368 -0.0745
70015W        W13068  15.524  19.448  24.589 -0.1512 -0.0089  0.2846
70016W        W13069  28.638  15.249   1.953 -0.1007 -0.1173 -0.0428
70017W        W13070   6.391  13.219  27.471  0.0546 -0.2386  0.3384
70018W        W13071  18.220  18.232   6.415 -0.1037  0.0631 -0.1207
70019W        W13072  25.868  15.431   8.904 -0.1335  0.1617 -0.1114
70020W        W13073  32.485  15.788  28.655  0.3710 -0.0928 -0.1426
70021W        W13074  31.300   6.078   9.560 -0.1860  0.2247  0.2313
70022W        W13075   8.597  15.269   5.204 -0.0833  0.0903 -0.0955
70023W        W13076  10.498  22.596   2.248  0.2085 -0.1197 -0.0226
70024W        W13077  14.703  16.419  15.394  0.0555  0.0222  0.1169
70025W        W13078  24.938  15.666   6.673  0.0633 -0.1408 -0.0031
70026W        W13079  24.903  12.237   9.235  0.1826  0.0834  0.2014
70027W        W13080   6.165   8.995  10.936  0.2279 -0.0292 -0.2760
70028W        W13081  14.418  20.409  16.198 -0.1272 -0.0011  0.2705
70029W        W13082  33.217   9.735  19.159  0.0751 -0.3018  0.0289
70030W        W13083   9.143  12.059   7.054 -0.2276 -0.3242  0.1643
70031W        W13084  29.588  19.991   2.830  0.1103 -0.0901  0.1500
70032W        W13085  25.050   3.170   4.338  0.1962 -0.4003  0.1292
70033W        W13086  29.152   8.083  20.106 -0.1823 -0.1839  0.1885
70034W        W13087  27.754   7.013  17.566 -0.0674  0.2429 -0.2805
70035W        W13088   5.200   2.471   9.683  0.1028  0.2412  0.1038
70036W        W13089   1.554   9.469   3.810 -0.0298 -0.0548 -0.1669
70037W        W13090   4.668  15.821   5.825 -0.0533  0.0092  0.1613
70038W        W13091   2.205   3.559  22.484 -0.3644 -0.1160 -0.1180
70039W        W13092   3.648  24.682  24.255 -0.3883 -0.2812  0.1244
70040W        W13093   3.896  15.701  24.153 -0.0083 -0.1067  0.1752
70041W        W13094  10.853   7.098  29.029  0.5268  0.1984 -0.3350
70042W        W13095  13.199   6.817  18.002  0.0869 -0.0724  0.0000
70043W        W13096  32.884  12.354   3.338  0.1279 -0.1176 -0.1484
70044W        W13097   1.531  17.346   5.308 -0.0026  0.1379 -0.1950
70045W        W13098  29.856  18.085   7.140  0.1292 -0.0022  0.1583
70046W        W13099  21.494  13.788  17.686  0.1672 -0.2899 -0.2226
70047W        W13100  32.330  14.774   0.389  0.0158  0.3548  0.1275
70048W        W13101   0.771  13.516   2.680 -0.2404 -0.2470  0.2201
70049W        W13102  24.219  18.554  14.060 -0.1832  0.0445 -0.2063
70050W        W13103   3.076  21.961   0.105  0.1505 -0.4678 -0.0493
70051W        W13104   4.322  21.756   4.810 -0.4179 -0.1953 -0.2552
70052W        W13105  27.966  32.543   3.822 -0.2962 -0.0908  0.1571
70053W        W13106   4.743  10.610   9.565  0.1212 -0.0315 -0.1323
70054W        W13107  16.958  10.010  22.198  0.2431 -0.2314  0.2486
70055W        W13108   5.736  15.775   8.140  0.1912 -0.1032 -0.1871
70056W        W13109   0.909  12.467   9.049 -0.0305  0.3253 -0.2410
70057W        W13110  13.647  13.051   0.438  0.0478  0.0156  0.0820
70058W        W13111  34.627  11.538  27.378 -0.2562 -0.2511  0.1833
70059W        W13112  33.113   9.698  28.287 -0.0750 -0.1777 -0.0655
70060W        W13113  17.068   2.065  26.819 -0.2068  0.2337  0.2458
70061W        W13114  19.664  15.153   9.360 -0.0081 -0.1733 -0.1181
70062W        W13115  29.019  17.351  23.943  0.0844 -0.2113  0.2586
70063W        W13116  28.310  16.295   7.648  0.1519 -0.2367  0.0909
70064W        W13117   9.339  10.664  25.427 -0.0232 -0.1677  0.1179
70065W        W13118  28.534   2.038  27.611 -0.1471  0.0199  0.0013
70066W        W13119  14.983   5.352  23.541  0.0183 -0.2411 -0.2284
70067W        W13120   2.469  13.042   1.784 -0.0550 -0.0167  0.0300
70068W        W13121   3.896  29.882   3.613  0.1140 -0.0530  0.0255
70069W        W13122  30.038  20.758   2.097  0.1431 -0.0492  0.0989
70070W        W13123   7.214  14.990   6.054  0.1015  0.1090 -0.0474
70071W        W13124  15.278   8.131   5.168  0.1572  0.0910  0.4801
70072W        W13125  27.850  15.036  23.307 -0.0797  0.0284  0.0156
70073W        W13126   4.481   5.688   9.591  0.1500  0.1158  0.0150
70074W        W13127   9.940  18.653   5.546 -0.1817  0.0133  0.2020
70075W        W13128  17.342  17.643  23.144 -0.0980 -0.1973 -0.2478
70076W        W13129   6.540  25.588  19.826  0.3063  0.1616  0.0313
70077W        W13130  12.037   9.585   8.137  0.1209  0.3111 -0.2153
70078W        W13131  27.690   4.916   9.220 -0.1174 -0.3185 -0.0698
70079W        W13132  32.359  21.519   3.858 -0.2569 -0.4791 -0.1731
70080W        W13133  24.941   8.178   3.783  0.0558 -0.0042  0.0696
70081W        W13134   2.648  33.589  25.183  0.1447 -0.3361 -0.0449
70082W        W13135   5.244   4.096   4.396 -0.2229  0.3330  0.0311
70083W        W13136  12.896  29.452  20.815 -0.2548  0.1108  0.2070
70084W        W13137   2.290  24.731   2.358  0.2816 -0.1532 -0.1303
70085W        W13138  26.790  14.996   9.549 -0.0423 -0.0697  0.1099
70086W        W13139  10.521  11.040  10.655  0.2705  0.3769 -0.0898
70087W        W13140   8.059  33.081   4.594  0.2504  0.2941  0.2713
70088W        W13141   1.811  14.155   9.344 -0.1060  0.1558 -0.0577
70089W        W13142  17.073  22.099   1.946 -0.2654  0.3648 -0.1081
70090W        W13143   1.742  26.652   1.194  0.0890  0.1027 -0.1010
70091W        W13144  10.367  15.618   5.078 -0.1850  0.2813 -0.2673
70092W        W13145  19.153   0.131   3.805  0.2501  0.1171  0.1352
70093W        W13146   8.495   9.494   0.298 -0.4154 -0.0464 -0.0069
70094W        W13147  14.077  21.470  23.861  0.3853  0.2831 -0.1462
70095W        W13148  23.643  17.846  28.919 -0.1561 -0.1899  0.2602
70096W        W13149  25.403  22.586  13.816  0.2121  0.2118  0.0067
70097W        W13150   3.050  12.607  27.449  0.2648 -0.0982  0.1270
70098W        W13151  31.453  19.795  10.255 -0.1793  0.1992 -0.3599
70099W        W13152   1.394  27.492  26.582 -0.2351  0.1044  0.2142
70100W        W13153  19.569  20.104   3.163 -0.0585  0.2311 -0.2425
70101W        W13154  10.732  18.927  10.382 -0.2245  0.0502 -0.3091
70102W        W13155   3.415   0.559   4.027  0.3099 -0.5374  0.0201
70103W        W13156  10.229   5.033   6.923 -0.1561 -0.0201  0.0359
70104W        W13157   7.585  10.711   2.172  0.0071 -0.1254 -0.0939
70105W        W13158   6.124  18.735   2.677 -0.2306  0.0116  0.0762
70106W        W13159  31.373   9.634   5.520 -0.2200 -0.5547 -0.0866
70107W        W13160  29.880  16.870   6.638 -0.0262  0.3555 -0.3016
70108W        W13161  19.474  29.045   9.976 -0.0616 -0.3138 -0.0845
70109W        W13162  29.607  26.217  19.035 -0.2643 -0.0801 -0.2074
70110W        W13163  26.353   0.641   6.363  0.1312 -0.0630  0.0885
70111W        W13164   0.022  32.889   8.881 -0.1642 -0.1533  0.2184
70112W        W13165  29.331  16.237   5.682 -0.4681 -0.1738  0.2563
70113W        W13166  16.090  23.251   6.778 -0.1468 -0.1810 -0.1591
70114W        W13167   4.872  13.036   6.265 -0.2032  0.0171 -0.6968
70115W        W13168   0.238   8.861  14.323  0.0439 -0.1184 -0.2090
70116W        W13169  26.024  18.968   8.939  0.1467  0.0310 -0.0051
70117W        W13170  31.350  23.282  18.632 -0.2601 -0.0624  0.2867
70118W        W13171  28.243  15.646   3.294  0.1136  0.2801 -0.1085
70119W        W13172  11.311  13.909   7.424 -0.0607  0.1986  0.1677
70120W        W13173  13.248   8.974   3.149 -0.1199  0.0048 -0.1179
70121W        W13174  12.929   5.979   9.461 -0.0239  0.0727  0.5381
70122W        W13175   5.764  24.752   3.472  0.1206 -0.2175  0.0105
70123W        W13176   2.075   2.094  24.152  0.2111 -0.1438 -0.1417
70124W        W13177   3.364   6.664  28.801  0.1103  0.4283  0.4017
70125W        W13178   6.491   4.472  22.072 -0.2797  0.1105 -0.0433
70126W        W13179   2.764  21.294   8.573  0.1536 -0.1249  0.1899
70127W        W13180   0.467   7.686   2.203 -0.1179  0.4351 -0.0919
70128W        W13181  28.041  19.004  24.365  0.0518 -0.0471 -0.1648
70129W        W13182  20.735  19.114  10.257 -0.0498 -0.3248 -0.3618
70130W        W13183  14.102   2.593  27.279  0.0347  0.0529  0.3241
70131W        W13184  20.241   2.315   3.801  0.1045 -0.1111  0.0179
70132W        W13185   0.733  18.837   6.269 -0.4935 -0.1328  0.0077
70133W        W13186  26.739  14.936   5.989 -0.1883 -0.5167 -0.0346
70134W        W13187  33.908  12.692   7.251 -0.0538  0.3554 -0.4149
70135W        W13188  26.224  20.294   6.951  0.2237  0.1800 -0.1770
70136W        W13189   2.581  12.088  23.151 -0.1734 -0.4927 -0.0582
70137W        W13190  28.801   5.788  28.084  0.3834 -0.0962 -0.1294
70138W        W13191  28.769  24.722  19.284 -0.1668  0.4421 -0.1345
70139W        W13192   5.020  33.648   7.191  0.0190  0.1321  0.1146
70140W        W13193  17.487   6.583   5.611 -0.2125 -0.0807  0.2374
70141W        W13194   7.245  28.486  27.347 -0.0143 -0.2412 -0.3070
70142W        W13195   4.543  22.267  21.169 -0.0755 -0.1738 -0.0964
70143W        W13196  30.411  14.252  26.718  0.2462 -0.1985  0.1554
70144W        W13197   1.403  32.816   8.352  0.1136 -0.0828  0.0415
70145W        W13198  19.443  31.660   1.597  0.2488  0.0525  0.0718
70146W        W13199   9.448  15.477   4.753 -0.0402  0.1779 -0.0708
70147W        W13200   4.676   3.618   6.817 -0.1252  0.1749  0.0685
70148W        W13201   4.910  14.152   5.643 -0.0042 -0.2582  0.1475
70149W        W13202  12.881   5.170   9.540  0.1256 -0.3166 -0.0575
70150W        W13203   3.257  15.710  27.225  0.0308  0.2209  0.0117
70151W        W13204  19.195  13.709  26.784  0.1229  0.0888  0.0040
70152W        W13205  10.691  10.715   6.634 -0.0727  0.0173 -0.0944
70153W        W13206  17.131  13.217  23.523  0.1070 -0.0665 -0.0833
70154W        W13207   5.676  11.169  10.023 -0.1695 -0.1953 -0.3822
70155W        W13208   4.485  34.186   6.599  0.1493 -0.2853 -0.0191
70156W        W13209  14.203   5.163   7.239  0.1683 -0.0196 -0.0466
70157W        W13210  32.489  12.133  26.537 -0.1359  0.0709  0.3444
70158W        W13211   8.627  22.763   8.799 -0.1667 -0.1173 -0.4591
70159W        W13212   9.417   2.323  28.453 -0.1326 -0.0221  0.4025
70160W        W13213   4.839  13.753  25.273  0.1701  0.0444 -0.0021
70161W        W13214  34.622   5.544   8.233 -0.1841 -0.2545  0.0702
70162W        W13215  11.766   6.323   6.538  0.0524 -0.0469  0.0192
70163W        W13216   6.042   9.307  23.824  0.1075 -0.0739 -0.1030
70164W        W13217   6.080  17.393   6.485 -0.0335  0.1255  0.1603
70165W        W13218  13.120   3.688   6.271  0.1092 -0.1410  0.0065
70166W        W13219   0.362   9.201   5.404 -0.1171 -0.0718  0.1773
70167W        W13220  28.114   9.809   7.082  0.1698 -0.0352  0.0153
70168W        W13221   0.546   6.701  26.637 -0.1193  0.1196  0.1281
70169W        W13222  10.090  18.916  10.390  0.0100  0.3000 -0.0235
70170W        W13223  11.386  20.574  27.562  0.1461  0.1867 -0.1768
70171W        W13224  31.763  13.755   1.645  0.2526  0.3500  0.0402
70172W        W13225   9.255  24.163   0.463 -0.0674 -0.1946 -0.1304
70173W        W13226  31.349  17.459   2.197  0.1609 -0.0237 -0.1587
70174W        W13227  25.522  34.596  28.898  0.1728  0.1410 -0.4012
70175W        W13228   3.040  30.294   5.545 -0.1391  0.1522  0.4061
70176W        W13229  17.676  22.543   0.190  0.0255 -0.1752 -0.0614
70177W        W13230   4.843  19.061  19.724  0.0100  0.0579  0.1410
70178W        W13231  17.009   5.534  24.095 -0.2014  0.0625 -0.1583
70179W        W13232  33.355  19.113   8.745  0.2119  0.2165 -0.1365
70180W        W13233  22.302  33.718   4.610  0.1893  0.0940 -0.0269
70181W        W13234  12.355  22.162  27.758 -0.0618  0.2513  0.0020
70182W        W13235   3.033   6.911   4.917 -0.0611 -0.2918 -0.2383
70183W        W13236   2.475   3.137   5.341 -0.0048 -0.4826  0.0483
70184W        W13237  26.165  13.068  26.752  0.3960  0.1250  0.3436
70185W        W13238  29.269  12.778   3.684  0.3301  0.1245  0.2467
70186W        W13239  28.361  21.034  24.968  0.0692  0.2240  0.1113
70187W        W13240  27.187  20.959  25.128 -0.2329 -0.0334 -0.1071
70188W        W13241   1.758   4.646   7.615  0.0278 -0.2222 -0.0265
70189W        W13242  13.081   5.901   1.831 -0.0123  0.3825  0.0271
70190W        W13243   8.236  17.461   7.315 -0.2891 -0.0495 -0.1548
70191W        W13244  34.565   7.061   9.123  0.1145  0.1705  0.0472
70192W        W13245  10.583  32.054   8.273 -0.2795 -0.0194 -0.0729
70193W        W13246   4.113  32.883   2.682 -0.0516 -0.3921  0.0307
70194W        W13247  29.315  18.504   8.967  0.1963  0.3058 -0.1038
70195W        W13248  14.189  24.446   8.279 -0.0804  0.0495  0.2457
70196W        W13249   7.001  18.082   8.457 -0.3121  0.0864  0.0813
70197W        W13250   9.753  16.161   4.804 -0.3207 -0.2358  0.2910
70198W        W13251   2.185  27.759   7.944 -0.0553 -0.1748 -0.1791
70199W        W13252   0.897  16.218   7.484  0.2070  0.2579 -0.0732
70200W        W13253   0.898  30.533   6.392 -0.3091  0.0922 -0.0854
70201W        W13254  13.736  17.505   7.234 -0.1267  0.0990 -0.0764
70202W        W13255   9.756   6.885   3.828  0.2553  0.0661 -0.0116
70203W        W13256   2.884  16.035  27.903  0.1039 -0.4764 -0.3522
70204W        W13257  25.645  13.188  20.219 -0.0705  0.0119  0.4964
70205W        W13258  20.859   9.413   5.357 -0.1890 -0.0353  0.1012
70206W        W13259  13.819  11.233  21.029 -0.0265 -0.0092  0.1336
70207W        W13260  29.732   1.721   3.562 -0.0591 -0.2162  0.1719
70208W        W13261  32.433  20.431   1.429  0.0868  0.2465 -0.0823
70209W        W13262  33.364   9.534  21.593  0.2557 -0.1438  0.1660
70210W        W13263   5.973  25.730   3.390  0.2936 -0.0285  0.0077
70211W        W13264   1.108  11.941   5.283  0.2079  0.0556  0.1654
70212W        W13265   7.788  33.962   5.249 -0.3798  0.0069  0.5346
70213W        W13266  30.800  32.153  28.503 -0.0177  0.1097  0.0874
70214W        W13267   4.384   6.778  27.898  0.0931 -0.0912  0.1057
70215W        W13268   4.075  25.464   0.923 -0.4793 -0.2603 -0.3093
70216W        W13269   8.945   4.023  27.077  0.1094 -0.0218  0.1177
70217W        W13270  31.933  23.876   8.074 -0.0090  0.0745  0.1923
70218W        W13271  30.054  10.162   8.887 -0.2166  0.0798  0.3578
70219W        W13272  31.266  12.084   7.841 -0.3150  0.1223 -0.0615
70220W        W13273  17.373  12.616   6.971 -0.0230  0.0760 -0.0730
70221W        W13274   7.154   7.120   3.898  0.0974 -0.0935  0.1349
70222W        W13275  11.115  20.822  10.063 -0.2235 -0.5991  0.1590
70223W        W13276  32.874   1.780   2.626  0.2535 -0.3243 -0.2598
70224W        W13277   6.404  12.645   0.223  0.1977  0.5186  0.3029
70225W        W13278   2.504  15.038  22.120 -0.3289  0.1775 -0.0403
70226W        W13279  21.358  21.988   4.132  0.0237  0.0854  0.1365
70227W        W13280  22.074  12.137   6.450  0.0566  0.0996 -0.0100
70228W        W13281   4.654  30.119   8.922  0.1360 -0.0710  0.0980
70229W        W13282   0.051  28.036  24.722  0.2035  0.2519  0.1777
70230W        W13283  32.043  10.968   6.432  0.3285 -0.2121 -0.3963
70231W        W13284   6.716  13.312   8.106  0.0984 -0.0410 -0.1564
70232W        W13285  13.426  16.161   7.896 -0.3704  0.0323 -0.3115
70233W        W13286  19.756  25.817   4.580 -0.1593  0.0603 -0.0033
70234W        W13287  22.000  24.625   0.019  0.0512 -0.2157 -0.2294
70235W        W13288  14.324  21.638   4.501 -0.1405  0.2471 -0.3241
70236W        W13289  11.362   6.377   9.882  0.0328  0.0848  0.1770
70237W        W13290   4.945   6.271   1.043  0.0237  0.1831  0.0230
70238W        W13291  27.567  19.531   4.269 -0.1122  0.2027  0.1098
70239W        W13292  16.823   7.995  28.062  0.3386  0.0193 -0.1245
70240W        W13293  23.578  24.351  10.104 -0.1453 -0.0710 -0.0499
70241W        W13294  18.330   0.727  28.103  0.0843 -0.2655 -0.0295
70242W        W13295   0.599  21.393   2.086  0.0350 -0.0216  0.0220
70243W        W13296  32.279  12.797   4.159 -0.2383  0.0388 -0.3178
70244W        W13297  32.501  33.144   7.800 -0.0078  0.0449  0.2869
70245W        W13298  10.050  12.604   6.890 -0.1603  0.1459  0.0403
70246W        W13299   5.954   1.027   7.699  0.1181  0.2068 -0.1336
70247W        W13300  29.823   7.212   9.730  0.0061 -0.1355 -0.1262
70248W        W13301  19.977   3.923  10.189 -0.0633  0.1156 -0.1345
70249W        W13302   7.966   9.953  26.311  0.0807 -0.0509  0.0088
70250W        W13303  28.654  13.989   2.628  0.0811  0.2585  0.0718
70251W        W13304  33.654  14.550  29.076  0.0318  0.5096 -0.1306
70252W        W13305  13.209   3.100   8.423 -0.2280 -0.1227  0.0175
70253W        W13306  11.635   2.987   2.685 -0.0422 -0.1203 -0.0857
70254W        W13307  32.522   1.280   8.029  0.0796  0.0762  0.4115
70255W        W13308   3.730  20.921   5.712 -0.3199  0.1424 -0.0020
70256W        W13309  15.010  12.823  25.810  0.3355  0.1547  0.0716
70257W        W13310  26.423  26.416   8.000 -0.2269 -0.0446  0.0806
70258W        W13311   2.042   8.683  19.604  0.3225 -0.0341 -0.1870
70259W        W13312   6.316  27.734   2.120 -0.0675 -0.1416 -0.2791
70260W        W13313   6.667  22.893   7.250 -0.2848 -0.1419 -0.2466
70261W        W13314  24.662   2.807   7.549  0.1065 -0.2641  0.2287
70262W        W13315   2.066  17.210   0.774 -0.2482  0.2238  0.0899
70263W        W13316  30.835   4.668   8.864  0.0937  0.0480  0.0353
70264W        W13317   2.888  13.148  27.593 -0.2021  0.0856  0.0698
70265W        W13318   3.374  10.359  18.873  0.0177  0.1640  0.3558
70266W        W13319  15.901  32.250   4.707 -0.0602 -0.5029  0.0670
70267W        W13320  20.138  13.729   2.419 -0.0762 -0.0530 -0.0090
70268W        W13321  12.505  13.053  25.767  0.0231 -0.0500  0.0708
70269W        W13322  31.713  22.040   9.814  0.1308  0.1651 -0.0670
70270W        W13323  22.647  11.651  26.530  0.0380 -0.1200  0.1163
70271W        W13324  11.402  17.648   4.384  0.0104  0.0516 -0.0764
70272W        W13325   6.996  11.219   8.088 -0.2724  0.1168  0.0569
70273W        W13326  32.440  24.064   0.961  0.0888  0.0645  0.0796
70274W        W13327  17.859   0.821  24.681 -0.2935  0.1049 -0.0728
70275W        W13328  20.613  33.340   6.692  0.0637  0.0991 -0.0516
70276W        W13329  33.527   9.031   0.259 -0.0922  0.1555 -0.0633
70277W        W13330  33.558  28.652   8.934  0.0157  0.0952 -0.2737
70278W        W13331  16.492  10.932   6.859  0.1011 -0.2521  0.2385
70279W        W13332  32.101  14.959   4.701  0.1511 -0.1792 -0.0834
70280W        W13333   4.476  19.219   0.041  0.0774  0.0854  0.3488
70281W        W13334   9.973  23.608   7.792  0.4229 -0.0481 -0.1442
70282W        W13335  15.737  20.262   6.231  0.3557  0.1581  0.2281
70283W        W13336  11.379  18.655  23.573  0.2079  0.0379 -0.1980
70284W        W13337   9.168  15.341  26.906 -0.0067  0.0005  0.2096
70285W        W13338   5.077  12.020  17.489 -0.1754  0.1646 -0.2315
70286W        W13339  17.740  12.222  27.733 -0.1216  0.2320 -0.4099
70287W        W13340  33.739  30.939  27.886  0.0181  0.1982 -0.2729
70288W        W13341  11.931   8.727   1.593 -0.0930 -0.0084  0.0989
70289W        W13342   4.805  16.163   9.452  0.2614  0.0744  0.4101
70290W        W13343   6.252   0.318   8.187  0.1750 -0.1023 -0.5623
70291W        W13344  10.283  16.721  26.148 -0.0984  0.2887  0.0316
70292W        W13345   6.887  24.472   6.734  0.0704 -0.4392 -0.0288
70293W        W13346  28.351  21.524   7.466 -0.0692 -0.1100 -0.2594
70294W        W13347   7.703   7.635   9.536  0.0425  0.1653 -0.2679
70295W        W13348   8.556  21.130   0.938  0.1677  0.1553  0.1026
70296W        W13349   5.944  18.054   8.712  0.1464 -0.0807  0.2511
70297W        W13350   2.090   3.330   0.281 -0.0364 -0.2951 -0.2154
70298W        W13351   6.614   8.809   7.212 -0.0773  0.0728 -0.0357
70299W        W13352   1.092  28.779   6.085  0.0376 -0.0400 -0.0163
70300W        W13353   4.404  16.804   8.621 -0.1755  0.2231 -0.1420
70301W        W13354  14.292  15.473   3.366 -0.0363  0.3289 -0.0815
70302W        W13355   0.404  16.034   1.923  0.0832  0.2297  0.0925
70303W        W13356   3.055  13.392  23.102 -0.0669 -0.1393  0.0696
70304W        W13357   7.869  18.634   1.859  0.3771  0.1097 -0.1446
70305W        W13358   0.063  21.141   5.349  0.4294 -0.2928 -0.0481
70306W        W13359  22.729  10.137   8.096  0.0649 -0.2764  0.0623
70307W        W13360   7.901   9.953  10.356 -0.1194  0.0324  0.2731
70308W        W13361   6.632  10.234  27.994 -0.2180  0.0433  0.0746
70309W        W13362  16.906  25.805  10.392 -0.1250  0.3739 -0.2057
70310W        W13363   8.937   7.595   3.519 -0.0032 -0.0739 -0.4393
70311W        W13364  12.498  12.001  29.003  0.0436  0.3251 -0.2822
70312W        W13365  19.190  15.082   1.513 -0.2390  0.1437 -0.0323
70313W        W13366  14.919   4.624  27.944 -0.1620  0.4547  0.3642
70314W        W13367   0.163  11.429   6.591 -0.1866  0.1159 -0.1102
70315W        W13368   6.010   7.012   3.283 -0.2083  0.2309 -0.2407
70316W        W13369  29.162   0.282   9.057  0.0778 -0.2915 -0.0541
70317W        W13370   1.632  16.191  27.769 -0.1343  0.2002 -0.1321
70318W        W13371   8.611  32.787   7.047  0.1338  0.2424 -0.1145
70319W        W13372  14.939  34.635   3.392 -0.1560 -0.0000 -0.1106
70320W        W13373   1.545  12.705   9.676  0.0054  0.2144  0.1613
70321W        W13374  13.275   9.945   4.402 -0.4680  0.0146  0.0459
70322W        W13375  16.270   9.782  24.837  0.3464  0.1809  0.3054
70323W        W13376  27.786   7.256  27.292  0.0186  0.0747 -0.3236
70324W        W13377  29.254  23.579   8.899  0.0414 -0.0499  0.0369
70325W        W13378  16.604  11.698   0.347  0.2754  0.1623 -0.0100
70326W        W13379   6.547  14.733   9.800  0.0803 -0.3540  0.2485
70327W        W13380   8.850  27.399   2.188 -0.1746  0.1451  0.2191
70328W        W13381   8.198  15.463   0.198 -0.1378 -0.0832 -0.3210
70329W        W13382  25.181  10.819   9.234 -0.1511  0.0053  0.3135
70330W        W13383  32.879   5.509   4.980  0.2792 -0.3211  0.0437
70331W        W13384   7.784  17.624   4.243 -0.0253 -0.2017  0.1831
70332W        W13385  33.073   8.811   6.842 -0.0181  0.1119  0.2180
70333W        W13386   8.162  33.983   0.611  0.0250 -0.0687 -0.0015
70334W        W13387  27.776   7.505  27.754  0.0246  0.1400  0.0022
70335W        W13388  10.434   9.193   7.763 -0.1709  0.1716  0.2324
70336W        W13389  16.101  13.277   9.453  0.1420  0.0612 -0.1033
70337W        W13390  15.153   9.568  10.350  0.5793  0.1889  0.2181
70338W        W13391  17.903  23.675   1.843  0.0579  0.0324 -0.2387
70339W        W13392  32.999  15.556   7.967  0.1126 -0.2931  0.0970
70340W        W13393   9.142   3.075  20.244 -0.1962 -0.2132 -0.0323
70341W        W13394  29.444  13.047  10.246  0.0455  0.0571  0.1020
70342W        W13395  27.046  15.660   6.617  0.2342  0.0977  0.2306
70343W        W13396  11.171  18.065   8.647 -0.4587  0.1878  0.0061
70344W        W13397   7.983   7.558   8.116  0.0390  0.0147 -0.2721
70345W        W13398  26.067  23.462   0.312 -0.3335  0.0556  0.0863
70346W        W13399   2.683  14.845   7.848  0.2578  0.2494 -0.1560
70347W        W13400   4.130  23.320   8.106  0.0893  0.0389  0.0632
70348W        W13401  15.835  26.498  24.666 -0.1868  0.1863 -0.3668
70349W        W13402  18.113  10.432   0.021  0.2015 -0.0568 -0.1185
70350W        W13403  34.234  32.147   6.603  0.1183 -0.1733  0.2678
70351W        W13404   8.955  12.825   6.382 -0.0056 -0.3791  0.3592
70352W        W13405  21.683  26.238   3.837 -0.0776  0.0701 -0.0092
70353W        W13406  14.888  15.969   7.661  0.4826 -0.0994 -0.1539
70354W        W13407  14.785  12.596  29.068  0.1411 -0.1342 -0.7078
70355W        W13408   8.829  16.299   5.809  0.0734  0.0544  0.1140
70356W        W13409   3.863  12.196   3.445  0.1646  0.1035  0.2923
70357W        W13410   6.284   7.353   7.810 -0.1574 -0.0859  0.0026
70358W        W13411   5.739   5.952   2.647 -0.0529 -0.2346  0.2516
70359W        W13412   9.806  16.998   3.342  0.1875  0.1224 -0.0855
70360W        W13413  31.308  13.104  19.507 -0.4412  0.0006 -0.0858
70361W        W13414   5.446   2.283  25.425 -0.1167 -0.2985 -0.2028
70362W        W13415   1.450  14.216  18.364 -0.0084  0.0421 -0.1983
70363W        W13416   0.860   6.073  24.275 -0.0698 -0.1278 -0.0971
70364W        W13417  17.485   6.060   3.440 -0.1663 -0.0481  0.1305
70365W        W13418   9.885  14.076   0.814 -0.1926  0.1225 -0.0337
70366W        W13419   1.655  22.298  29.013 -0.3283 -0.2934 -0.2930
70367W        W13420  13.070   9.737  27.813  0.1605 -0.4255  0.2400
70368W        W13421  23.120  14.413  18.361 -0.2606  0.0033  0.0060
70369W        W13422  12.719   5.068   9.006 -0.3031  0.0678  0.0200
70370W        W13423   7.007   7.305   8.235  0.0491  0.1488  0.0080
70371W        W13424  34.299   4.458   2.663  0.4930 -0.2157 -0.1942
70372W        W13425   8.431  21.498  25.535 -0.3002 -0.1297 -0.0157
70373W        W13426  29.464   4.404   2.527  0.0350 -0.0010 -0.0219
70374W        W13427  30.811  19.640  14.834  0.1177  0.0104  0.1218
70375W        W13428  20.659  26.154  22.171  0.1629 -0.0075  0.0572
70376W        W13429   0.974  10.891   7.983  0.1230 -0.0714 -0.0530
70377W        W13430  11.157  10.892  10.680 -0.3783 -0.1674 -0.0638
70378W        W13431  10.469   8.070   1.094  0.0262 -0.1844  0.2319
70379W        W13432  26.241  16.744   8.551  0.2670 -0.3483 -0.0847
70380W        W13433  23.931  11.873   7.342 -0.1082 -0.0429  0.1885
70381W        W13434  24.384  12.672  23.479  0.1011 -0.0334 -0.1770
70382W        W13435   7.105  11.400   5.901 -0.1099  0.0791 -0.1053
70383W        W13436  12.080  24.833   6.769 -0.0316 -0.0679 -0.1324
70384W        W13437  11.086  12.047  19.224 -0.0757 -0.1819 -0.3158
70385W        W13438  28.080  20.591   5.132 -0.4166 -0.0033 -0.2393
70386W        W13439   3.291  11.160   7.506 -0.0730  0.0545 -0.0252
70387W        W13440  12.011  11.400  28.451  0.0993  0.2292  0.0257
70388W        W13441  15.495  28.902   0.495 -0.0104  0.2255 -0.2350
70389W        W13442   0.349  16.784   6.422  0.0227 -0.0115  0.2075
70390W        W13443   8.766  14.920   3.401  0.1099  0.1214  0.1369
70391W        W13444  30.327  10.296   0.907  0.1280 -0.0405  0.1873
70392W        W13445   9.175   2.758   9.695  0.0412 -0.0729  0.0029
70393W        W13446  12.798   7.250   9.435 -0.0365 -0.0045 -0.0900
70394W        W13447   4.390  11.529   8.859 -0.1799 -0.2082 -0.2107
70395W        W13448   5.049  22.571   3.957 -0.0019  0.0563 -0.2648
70396W        W13449  32.507  12.854  27.000 -0.0426  0.0256 -0.0045
70397W        W13450   9.446  30.104   1.749 -0.1131 -0.4729 -0.0523
70398W        W13451   4.259   8.266  23.373 -0.2621 -0.3062  0.1681
70399W        W13452   6.502  21.815   3.627  0.1270 -0.3031 -0.1037
70400W        W13453   2.215   9.001   7.353  0.1102  0.0184 -0.0865
70401W        W13454   2.107  34.067   3.272  0.0153  0.2800 -0.0610
70402W        W13455   3.810  14.475  23.861  0.1726 -0.0218  0.0979
70403W        W13456  24.947  21.611   6.186  0.0341 -0.0476  0.0008
70404W        W13457  12.226   6.381   8.574 -0.0627 -0.0622  0.1406
70405W        W13458  17.443  16.341   4.688  0.0148  0.0265 -0.1087
70406W        W13459  33.851  16.495   1.790 -0.0293 -0.2588  0.1057
70407W        W13460  26.335   5.448  19.938 -0.3258  0.2976  0.1551
70408W        W13461   5.557   7.801   2.962 -0.0516  0.1575  0.0340
70409W        W13462  33.576  14.009  10.394  0.1304 -0.2644  0.1445
70410W        W13463  10.968   7.480  21.190  0.0537 -0.0198 -0.0272
70411W        W13464  12.124   1.440  19.644 -0.1301  0.0588 -0.1123
70412W        W13465   3.537   4.263   7.608  0.1538  0.0949 -0.0233
70413W        W13466  18.159  10.927   5.849 -0.0303  0.1203  0.0018
70414W        W13467  30.875  12.071   5.048  0.0861  0.0171  0.0130
70415W        W13468  16.290  10.688  27.714 -0.0656  0.3000 -0.2902
70416W        W13469  17.445   5.004   6.244  0.0110 -0.1005  0.1561
70417W        W13470   3.618  18.866   7.470  0.1118  0.0842  0.1492
70418W        W13471  27.242   2.221   8.993  0.0754  0.0281  0.0527
70419W        W13472  25.723  21.105   2.805 -0.0977 -0.2111 -0.1752
70420W        W13473  27.528  28.382   3.623  0.0268 -0.0356  0.1853
70421W        W13474   0.869  17.881   3.583 -0.0330  0.2766  0.0452
70422W        W13475  14.535  11.586   8.069  0.2476 -0.2310  0.0435
70423W        W13476   6.694  10.533   5.228 -0.1591  0.4383 -0.0888
70424W        W13477  17.972  10.063   7.869  0.1970 -0.1862  0.0768
70425W        W13478  10.637   5.845  21.005  0.0430 -0.0580  0.3308
70426W        W13479  33.410   1.541   8.961  0.0387 -0.1083 -0.0414
70427W        W13480  10.293  10.443   2.176 -0.0902  0.1401  0.0160
70428W        W13481   9.162  29.770  26.137  0.0972  0.1253 -0.1208
70429W        W13482  34.496  15.066   1.500  0.3867 -0.2801  0.4105
70430W        W13483  30.668  24.719   6.093 -0.1759 -0.2158 -0.5417
70431W        W13484   3.207   4.314   4.961  0.1514 -0.2453 -0.4281
70432W        W13485  15.654  16.989   2.565  0.1961  0.3628  0.2242
70433W        W13486  12.435   8.560  10.382 -0.0756 -0.0357  0.3248
70434W        W13487  28.565   2.193   6.383  0.0018  0.0718 -0.0036
70435W        W13488   7.119  11.639   2.649  0.1463  0.1235 -0.0936
70436W        W13489  28.462   4.675   7.587  0.1514  0.0393 -0.0185
70437W        W13490  28.666   7.196   5.021 -0.1675 -0.0569 -0.1293
70438W        W13491  26.900  18.902   2.283  0.1578  0.0268 -0.2364
70439W        W13492   1.686   0.434   7.217  0.1010  0.0113 -0.1517
70440W        W13493   6.234  12.728  17.251 -0.2096  0.2985 -0.1992
70441W        W13494  34.577   8.401   1.736 -0.1521 -0.0394 -0.3314
70442W        W13495  29.292  28.827  26.957  0.0036  0.0033  0.0990
70443W        W13496  21.256  16.323   3.176 -0.1694  0.0160  0.0017
70444W        W13497   9.357  16.381   3.431  0.1300  0.3003  0.0382
70445W        W13498   1.781   4.589   0.437  0.3124  0.0710 -0.3106
70446W        W13499   1.614  34.619   0.894  0.0924  0.0172 -0.0423
70447W        W13500   2.089  24.704   5.712 -0.0375 -0.0920 -0.2066
70448W        W13501  26.122   1.843   2.462  0.0110  0.2349  0.3030
70449W        W13502   8.270   5.995  10.350 -0.1639 -0.0947 -0.1916
70450W        W13503  33.244  13.391   5.521 -0.0161  0.3555 -0.0099
70451W        W13504   7.412  22.308  20.513 -0.0659 -0.0955 -0.1583
70452W        W13505  13.613  18.982  20.746 -0.1026  0.0676  0.2331
70453W        W13506   6.925   8.469   0.829  0.1864 -0.1884  0.1245
70454W        W13507   3.153   4.999   8.937  0.3308 -0.2060  0.1208
70455W        W13508   2.666  18.533  24.649  0.0804 -0.0601  0.1455
70456W        W13509  10.956   9.267  10.070 -0.1525  0.1979 -0.2130
70457W        W13510  24.980   3.594  28.672 -0.1113 -0.0731 -0.0794
70458W        W13511  20.834  32.725   8.858  0.3263  0.1503 -0.1001
70459W        W13512  33.519  18.896   3.668  0.2418 -0.0677  0.3814
70460W        W13513  19.539  11.002   4.785 -0.2310 -0.2533  0.2476
70461W        W13514   2.801   3.011  10.102  0.2553 -0.4543  0.1905
70462W        W13515   2.069  21.489  17.981  0.3053  0.0466 -0.0355
70463W        W13516   4.908  33.510   8.214 -0.0405 -0.1391  0.0482
70464W        W13517   6.010  12.389  10.664  0.2865  0.2434 -0.4408
70465W        W13518  30.569   2.165   7.173  0.1091  0.3377  0.1652
70466W        W13519   1.451  17.108   7.376  0.2031  0.0274 -0.3337
70467W        W13520  12.352   1.097  16.754 -0.0672 -0.1123  0.0343
70468W        W13521  12.281  10.778   9.011  0.1847  0.1591  0.1661
70469W        W13522  32.067  15.545   3.006 -0.1669  0.2254  0.2092
70470W        W13523  17.676  13.264   3.697  0.2043 -0.2712  0.3318
70471W        W13524  32.372   8.461   4.968 -0.1888 -0.0692  0.1345
70472W        W13525  10.339   7.258  27.203  0.1109  0.1055 -0.3807
70473W        W13526  30.561  12.530  22.695 -0.2768  0.1213  0.0724
70474W        W13527   9.120  20.795   1.428  0.3398  0.0261  0.0396
70475W        W13528   5.462   8.837   3.281  0.1499 -0.1704  0.2153
70476W        W13529  28.923  15.533   9.389  0.0213  0.1407 -0.0822
70477W        W13530   6.592   8.651   6.042  0.1667 -0.1658 -0.1230
70478W        W13531  10.600   8.104   9.498  0.1829  0.1730 -0.0364
70479W        W13532  31.025   4.009   8.017  0.0902 -0.1600  0.0622
70480W        W13533   5.352   8.600   5.798 -0.1174 -0.3730 -0.1338
70481W        W13534  29.221  27.195   2.971  0.2626 -0.4492 -0.6327
70482W        W13535   9.173  18.240   5.326  0.1934  0.0310 -0.0097
70483W        W13536  32.053  32.672   6.828  0.1018 -0.2681 -0.0755
70484W        W13537  23.927  15.459  27.618 -0.1369 -0.2440  0.2822
70485W        W13538  11.331  18.935  19.092  0.1750 -0.0943 -0.1280
70486W        W13539  34.164  10.078   1.519 -0.0653 -0.2634 -0.2000
70487W        W13540  22.344  18.622   1.326 -0.1791 -0.2472  0.1788
70488W        W13541   0.220  28.259   6.550  0.4240  0.0978  0.0828
70489W        W13542   1.075   8.720   5.531  0.1754  0.0295  0.0134
70490W        W13543  33.038  10.019   0.447  0.0887 -0.2885 -0.1362
70491W        W13544   9.630  15.744  15.454 -0.1981 -0.2289  0.0395
70492W        W13545   2.179  20.358   1.083 -0.0470  0.0815 -0.1386
70493W        W13546   8.804  16.270  28.646  0.3400 -0.1361 -0.1834
70494W        W13547  23.059  29.335   6.070 -0.0131  0.0563 -0.4956
70495W        W13548   7.274   6.976   8.513 -0.2217  0.1214  0.0598
70496W        W13549  15.586   4.013  20.835 -0.2832  0.0124  0.2689
70497W        W13550  13.461  29.982   0.635 -0.1921 -0.1355 -0.0257
70498W        W13551  31.269   8.373  21.881 -0.0437 -0.0942  0.2455
70499W        W13552  16.868  15.768   6.629  0.2790 -0.0812 -0.1759
70500W        W13553  17.224  15.379   6.273 -0.0459 -0.0233  0.2194
70501W        W13554   8.997  10.234   4.467  0.0319 -0.0794 -0.2494
70502W        W13555  23.979  13.184  24.474  0.0255  0.1767 -0.1738
70503W        W13556  19.418  12.897   1.153 -0.3178  0.0819 -0.0326
70504W        W13557   3.666   6.576  26.876  0.0939  0.3009 -0.2431
70505W        W13558   9.981   4.739  27.825  0.0764  0.0334  0.0195
70506W        W13559  32.584  16.398   5.535 -0.0883  0.0149  0.0118
70507W        W13560  29.442   4.113  24.235  0.1254 -0.0580  0.1184
70508W        W13561  10.468  14.487  23.111 -0.0553  0.2353  0.2506
70509W        W13562   4.998  13.635   9.085  0.2017  0.0106  0.1141
70510W        W13563  17.471  13.810  27.727 -0.3740 -0.1421  0.0142
70511W        W13564  14.158  27.846  28.433  0.0714  0.3565  0.2500
70512W        W13565  25.099  19.559  17.184  0.1120 -0.0363  0.0531
70513W        W13566   3.526  20.738   6.876  0.0729  0.0549 -0.1667
70514W        W13567  33.986  33.205   9.599  0.2872  0.2589  0.2493
70515W        W13568  16.796  34.033  21.215  0.1868  0.3197 -0.2335
70516W        W13569   7.701  19.151   6.391  0.0362  0.0758  0.3359
70517W        W13570   2.790  25.380  17.000 -0.0354 -0.0400  0.2722
70518W        W13571   1.161  11.279  27.402 -0.3071  0.2009 -0.0604
70519W        W13572  31.215  17.846   7.751 -0.0043 -0.2843  0.1842
70520W        W13573   5.868   6.916  14.347 -0.2516 -0.0438 -0.0122
70521W        W13574   6.021   3.238   8.016 -0.0753 -0.0039  0.2351
70522W        W13575  14.791  21.932   3.634 -0.0238  0.3766 -0.1887
70523W        W13576  26.831  24.845  10.245  0.2050  0.3199 -0.1642
70524W        W13577  32.725  16.307   8.875  0.0191  0.5307 -0.2754
70525W        W13578  13.956  15.073   1.238  0.3183  0.0337 -0.1513
70526W        W13579  24.108  15.749   3.614 -0.2259 -0.0246  0.0586
70527W        W13580  11.860   7.148   3.414 -0.1106  0.0263  0.0879
70528W        W13581   4.028  19.819   9.497 -0.3120 -0.1744 -0.1242
70529W        W13582   6.865  24.273   1.477 -0.1428 -0.1042 -0.2185
70530W        W13583  33.237  15.151  27.844 -0.3430  0.0661  0.2457
70531W        W13584   5.265  13.535  15.469 -0.1254  0.0405 -0.0411
70532W        W13585   7.938  29.940  16.346 -0.2161  0.1181  0.1257
70533W        W13586   2.204   4.370  25.227  0.0231  0.0392 -0.0835
70534W        W13587  30.049   7.691   7.105 -0.4757 -0.2705  0.4913
70535W        W13588  14.100   9.190  28.684 -0.2700 -0.0959 -0.1213
70536W        W13589   2.821  29.168  24.353 -0.0497 -0.3411 -0.0323
70537W        W13590  17.410  17.656  25.563  0.1585 -0.3965  0.0747
70538W        W13591   2.534  11.811   8.540 -0.0694 -0.0716  0.2372
70539W        W13592  10.513   4.579  26.745 -0.1589 -0.0461  0.0594
70540W        W13593   0.617  13.940  16.553  0.0503  0.1062  0.0881
70541W        W13594  31.570  25.596  19.670  0.0192  0.0430 -0.0128
70542W        W13595  14.886   0.217   2.121  0.0123 -0.0415  0.1241
70543W        W13596  13.332   9.946  17.674 -0.0811 -0.2803 -0.1760
70544W        W13597  19.802  10.699   7.738 -0.0796  0.1508 -0.0605
70545W        W13598   7.668  24.710  28.883  0.0674  0.3218  0.4801
70546W        W13599  32.671  11.193  27.768 -0.2023  0.0428 -0.1443
70547W        W13600  14.098  20.112   9.878 -0.2205 -0.3063  0.3294
70548W        W13601   4.019  12.897   6.662 -0.0751 -0.0180 -0.4028
70549W        W13602  33.675  23.772  23.794  0.3129  0.0229  0.3670
70550W        W13603  20.825  15.805  25.830 -0.0225 -0.3529  0.1740
70551W        W13604  25.628   5.311   8.044 -0.3080  0.0901  0.0215
70552W        W13605  10.612  14.259  24.817  0.0810 -0.0764 -0.1052
70553W        W13606   2.020  11.227   9.262 -0.1508  0.0634 -0.2770
70554W        W13607  20.046  17.250   2.423  0.1618 -0.1641 -0.0373
70555W        W13608  34.426  23.248   3.374 -0.1777  0.0627  0.1900
70556W        W13609  28.909  24.449   9.040  0.1934  0.1378 -0.0032
70557W        W13610  12.039   2.825   5.009  0.3029  0.1956 -0.1701
70558W        W13611  14.256   8.910  29.104  0.1742  0.0991 -0.1219
70559W        W13612   1.069   4.388   5.544 -0.4014  0.1302  0.0838
70560W        W13613  32.917  24.230   0.715 -0.1721 -0.0238 -0.2251
70561W        W13614  17.828  16.280   7.605  0.0742  0.2460  0.1867
70562W        W13615   4.335  21.120   0.635  0.2022  0.1260  0.0688
70563W        W13616  17.105  23.436  17.488  0.1210  0.1997 -0.0668
70564W        W13617  27.298   2.968  17.043 -0.1762  0.0036 -0.1366
70565W        W13618  34.190   1.678  24.225  0.1882  0.0041 -0.0671
70566W        W13619   4.682  10.384   0.129  0.0244  0.0339  0.0862
70567W        W13620   8.725  28.304   2.677 -0.1275 -0.0828  0.0616
70568W        W13621  24.945  13.610   8.188  0.0313 -0.2021 -0.0477
70569W        W13622  34.077  21.358   8.769  0.0983  0.0502  0.2062
70570W        W13623  22.803  25.661   3.676 -0.0798  0.0270 -0.1584
70571W        W13624   6.618  17.404   6.181  0.0498  0.0247 -0.0094
70572W        W13625   8.723   9.023   3.167  0.3477  0.0680 -0.1089
70573W        W13626   5.792  20.708  14.562  0.0332  0.0032  0.1294
70574W        W13627   6.181  16.524   8.643 -0.0365 -0.2080  0.1152
70575W        W13628   3.411  18.346   5.939  0.0582 -0.1678  0.2255
70576W        W13629   0.028   5.880   7.871  0.0270  0.0552  0.1127
70577W        W13630   1.464  20.557   6.575 -0.1100 -0.3003  0.4158
70578W        W13631  15.569   1.269   9.353 -0.0621  0.1647  0.3282
70579W        W13632  29.225  15.980   0.852  0.0413 -0.0059  0.0075
70580W        W13633  23.226  27.236  27.167 -0.0188 -0.3350 -0.2332
70581W        W13634  12.338  15.565   5.426 -0.0561  0.1090  0.0713
70582W        W13635   6.719  12.622   0.828 -0.1412  0.1369 -0.0354
70583W        W13636  31.158  27.185   8.730  0.2703  0.2278  0.0411
70584W        W13637  15.871  16.579  12.843  0.0619  0.1372  0.2480
70585W        W13638   6.101   9.327  17.969 -0.1342  0.0331 -0.0871
70586W        W13639   7.456  15.888   5.684  0.2680 -0.0420  0.0896
70587W        W13640  30.118  14.987   3.568  0.1902  0.0288 -0.2133
70588W        W13641   5.795  16.700  17.441 -0.0876 -0.0843 -0.2683
70589W        W13642   9.217  34.065  22.290  0.1074 -0.2091 -0.2259
70590W        W13643  22.826  22.152  28.536  0.1389 -0.2398 -0.1205
70591W        W13644  29.193  21.808  16.083 -0.0226 -0.1428  0.0569
70592W        W13645  12.123   7.124   2.036  0.0933 -0.1005  0.2600
70593W        W13646   2.575   9.194  22.769  0.2363  0.1099 -0.2060
70594W        W13647   4.007  14.134  29.156 -0.2026  0.0616 -0.0476
70595W        W13648  33.083   8.156  25.775 -0.0944 -0.0589 -0.1668
70596W        W13649   2.469  25.933   1.152  0.1721  0.1791  0.2038
70597W        W13650   2.096  16.871  20.682 -0.4571  0.0291  0.0976
70598W        W13651  33.598   8.294   7.979 -0.2660 -0.1848  0.0428
70599W        W13652  33.359   2.406  28.358  0.1174  0.2854  0.0754
70600W        W13653   9.387   2.824  18.847 -0.0832 -0.2927 -0.1045
70601W        W13654  14.955  21.570  20.393 -0.0854  0.2292 -0.1326
70602W        W13655   8.067  24.752   9.482  0.0115 -0.2813 -0.1206
70603W        W13656  33.952  13.677   3.570  0.0429  0.1114 -0.0675
70604W        W13657  13.362   5.186  28.856  0.0303  0.0776  0.1576
70605W        W13658   6.517  26.441  27.197  0.1822  0.1816 -0.0066
70606W        W13659  12.760  31.731  26.376  0.2751  0.1422 -0.3080
70607W        W13660   2.190  12.699   4.708  0.2699 -0.3243  0.1907
70608W        W13661  33.388   2.828  16.952  0.2770 -0.0757  0.1190
70609W        W13662  15.281  16.155   0.420  0.2422  0.2778  0.0551
70610W        W13663  10.476   5.455   6.775 -0.2707 -0.1835  0.0625
70611W        W13664  15.908  22.021  24.940  0.0506 -0.1416 -0.2417
70612W        W13665  28.625   3.426   5.293  0.2313  0.0228  0.2535
70613W        W13666   8.486  15.820  24.233 -0.1369 -0.1076 -0.1896
70614W        W13667  31.523  17.436   1.690 -0.1772 -0.1834 -0.1521
70615W        W13668  30.495  16.844   9.663 -0.1658 -0.0162 -0.0196
70616W        W13669   8.184  32.618  18.300  0.1308  0.4292 -0.0499
70617W        W13670  12.346  10.615   2.223  0.0435 -0.1150  0.0129
70618W        W13671  15.648  32.935  26.400  0.3294  0.2140 -0.0042
70619W        W13672  20.489   0.522  28.523 -0.0827 -0.0692  0.0654
70620W        W13673  11.660  25.769  16.054  0.0763  0.1200 -0.1074
70621W        W13674   6.868  23.934   6.633  0.1789 -0.0281 -0.1591
70622W        W13675   9.891   5.160   8.515  0.0137  0.1833 -0.2780
70623W        W13676   9.770  10.842   3.596 -0.1868  0.0401  0.0811
70624W        W13677  24.753  21.423   0.933  0.0526  0.1025  0.0166
70625W        W13678   0.349  18.845  27.191 -0.1835  0.0326 -0.4564
70626W        W13679  11.924  17.453   7.103  0.3527 -0.2944  0.0786
70627W        W13680   9.533   1.119  28.277  0.1154  0.0714  0.1468
70628W        W13681  25.635  11.265   0.147 -0.2010 -0.0975 -0.0237
70629W        W13682   0.785  21.845  22.962 -0.5046  0.0076  0.0759
70630W        W13683   4.758   4.222  28.763 -0.0189 -0.1412  0.1712
70631W        W13684  31.057  10.854  22.494 -0.1217  0.0755  0.4896
70632W        W13685  23.891  11.237  27.583  0.1554  0.0481  0.2863
70633W        W13686   6.457  23.194  19.523 -0.1480  0.0133 -0.1498
70634W        W13687   5.704  15.948  20.928 -0.0348  0.3060 -0.2813
70635W        W13688   7.823   0.477   6.145 -0.0237 -0.2262 -0.0287
70636W        W13689  26.988  24.803   3.679 -0.1976 -0.0857 -0.0448
70637W        W13690   8.033   1.354  19.688  0.2709  0.1540  0.0750
70638W        W13691   6.554  30.975   8.530 -0.0363 -0.0466  0.0070
70639W        W13692  29.691   4.793   2.182 -0.0782 -0.0596 -0.0951
70640W        W13693  18.141   1.339   4.443 -0.3841 -0.1412 -0.2994
70641W        W13694   5.677  17.053  18.867 -0.2541  0.0719 -0.1551
70642W        W13695  33.113  17.615   8.445  0.0412  0.2058 -0.1065
70643W        W13696  11.774  20.000   6.707  0.0811 -0.1252  0.1802
70644W        W13697  33.069  31.988   8.427  0.1735  0.2882  0.1373
70645W        W13698  17.797   7.942  18.571  0.0577 -0.1372  0.1196
70646W        W13699   8.359  30.211   4.443  0.4386  0.0568 -0.2090
70647W        W13700  20.522   7.949  10.249  0.0029  0.0347 -0.1644
70648W        W13701  30.106  11.897  22.450 -0.0882  0.2157 -0.0719
70649W        W13702  31.884  11.586  19.525  0.1978  0.1792  0.0065
70650W        W13703  32.807  24.961  13.642  0.3145  0.0127 -0.0089
70651W        W13704   6.514  16.200   7.008  0.3042 -0.2198 -0.0855
70652W        W13705  10.172  25.687  20.102 -0.2811 -0.0860 -0.2058
70653W        W13706  26.646  10.341  14.385 -0.4086 -0.0363 -0.1940
70654W        W13707  16.716  20.024   1.951  0.0843 -0.0349  0.0190
70655W        W13708   8.136  27.133  18.289 -0.2855  0.0065  0.2036
70656W        W13709  25.584  12.823  25.419 -0.3185  0.1484  0.0703
70657W        W13710  15.638   3.042  24.465 -0.0525 -0.0520  0.0473
70658W        W13711  24.730  15.863   9.125 -0.1681  0.1195 -0.1549
70659W        W13712   7.641   5.725  25.719 -0.0111 -0.1219 -0.1558
70660W        W13713   9.896  18.798  16.235  0.1340 -0.1299  0.2346
70661W        W13714  30.156   8.835   6.991 -0.0927  0.0564 -0.0321
70662W        W13715   0.372  31.740   6.339 -0.2705  0.1503 -0.3443
70663W        W13716  33.691   6.841   6.873 -0.0838 -0.1767 -0.1894
70664W        W13717  28.524   5.615  15.490 -0.0083 -0.1044  0.1998
70665W        W13718  20.082  14.054  26.800  0.3092 -0.0449 -0.1645
70666W        W13719  10.040  15.302  28.247  0.2201  0.1196 -0.0554
70667W        W13720   6.992   2.492   2.033  0.1235 -0.0161 -0.1415
70668W        W13721   3.566  28.564   7.405 -0.0682 -0.1035 -0.0322
70669W        W13722   0.105  11.825   5.730  0.0451  0.0106 -0.0824
70670W        W13723   3.896  11.036   5.949  0.0471  0.3783  0.0134
70671W        W13724   8.187   5.378   1.865 -0.2096  0.0325 -0.2278
70672W        W13725   5.247  15.589   8.188  0.0995  0.3043 -0.1422
70673W        W13726  14.564  12.224  23.062 -0.1923  0.3430  0.1035
70674W        W13727  29.798  20.398  25.055  0.0444  0.1319 -0.2157
70675W        W13728   3.840   4.599  15.598 -0.2827  0.0955  0.0787
70676W        W13729  18.929   3.527   2.477 -0.2286  0.2697  0.2506
70677W        W13730   2.888  14.207   3.125  0.1043  0.0767  0.0026
70678W        W13731   5.851  23.418  23.999 -0.0375 -0.0801  0.3292
70679W        W13732  28.579  31.384  28.297  0.0979 -0.0100 -0.2796
70680W        W13733   4.422   4.307   5.221 -0.1302 -0.0402  0.2176
70681W        W13734  28.917   8.644  22.427 -0.1049 -0.1978  0.1062
70682W        W13735   0.602   9.316   3.199  0.0717  0.0684  0.0526
70683W        W13736  18.464   8.958  18.981 -0.0227  0.2179  0.0946
70684W        W13737  15.905  15.520  26.035  0.1116 -0.4491 -0.1917
70685W        W13738  25.380  14.462   5.429  0.2968 -0.2953  0.4369
70686W        W13739  32.377  13.751  22.283 -0.0743  0.0378 -0.2632
70687W        W13740  32.659  12.504  25.402  0.0669  0.3428 -0.1735
70688W        W13741  23.286  21.403   9.176 -0.0184 -0.0890 -0.2875
70689W        W13742  12.344   8.274   5.509  0.1122 -0.1989 -0.1809
70690W        W13743  25.993  27.811  28.468  0.1322  0.2036 -0.0963
70691W        W13744  26.208  20.764   3.531 -0.2763  0.0968 -0.3240
70692W        W13745  31.454  12.628   2.040  0.2465  0.0100 -0.1342
70693W        W13746  29.147   7.830   1.146 -0.0076 -0.3894  0.3475
70694W        W13747   0.364  32.953   3.550  0.1325 -0.1204 -0.0514
70695W        W13748   8.563  16.490   1.051 -0.0451 -0.1146 -0.1148
70696W        W13749   4.474   7.757   7.177  0.0476  0.3048 -0.0697
70697W        W13750  15.534   3.917  16.545  0.2551 -0.4079  0.0475
70698W        W13751   8.636   8.039   6.122 -0.0737 -0.0813 -0.1689
70699W        W13752   8.366  24.338   7.880  0.4922 -0.4379 -0.3117
70700W        W13753   8.706   1.357   3.291  0.1894 -0.1944  0.0336
70701W        W13754   6.999  14.533   4.046 -0.2350  0.0944  0.0565
70702W        W13755  34.140  27.150  16.786 -0.2408  0.0815  0.2555
70703W        W13756   9.364  10.569  23.219  0.0090 -0.1916 -0.1706
70704W        W13757   1.747  27.725   3.578  0.1943  0.0482 -0.1011
70705W        W13758  17.420   0.760  24.535  0.1071  0.0514 -0.0569
70706W        W13759   7.315   2.726   0.369  0.1110 -0.2417  0.0707
70707W        W13760   9.820  19.065  19.233  0.0141 -0.1323  0.1737
70708W        W13761  32.502  31.823   5.570  0.3144  0.1543  0.1981
70709W        W13762  15.422  24.188  24.819 -0.0574 -0.0196 -0.2946
70710W        W13763   3.134  29.342   3.383 -0.0639 -0.1211 -0.1817
70711W        W13764   7.042  10.861   5.704 -0.0535 -0.1096  0.0118
70712W        W13765   1.614   8.542  25.956 -0.1297 -0.2139 -0.2590
70713W        W13766  26.770  21.749  26.758 -0.1884  0.2289  0.0800
70714W        W13767   1.168   4.477  28.049  0.2002  0.0535 -0.0697
70715W        W13768   3.265  17.931  28.466 -0.1913 -0.2002 -0.1255
70716W        W13769  21.128  34.631  27.178 -0.3997  0.2654  0.0836
70717W        W13770   7.580  24.089  26.648  0.0267  0.3040 -0.0207
70718W        W13771  18.326  14.919   8.306 -0.0822  0.1560  0.2352
70719W        W13772  26.109   4.152   8.056  0.0722 -0.4211  0.3390
70720W        W13773   3.856  17.177   5.108  0.0649  0.1466  0.1215
70721W        W13774   0.312  18.595   7.281  0.0303 -0.2784 -0.1805
70722W        W13775  29.731  14.049   8.500  0.4094  0.0399 -0.1570
70723W        W13776   1.731  23.983  25.316 -0.0520 -0.1250  0.0542
70724W        W13777  34.161  19.716  28.092 -0.1029  0.4666  0.1730
70725W        W13778  19.836  13.754   9.209 -0.2587  0.2404 -0.0516
70726W        W13779  28.059  23.105   0.510  0.2452 -0.0004  0.0629
70727W        W13780   7.976  18.445  24.132 -0.0549  0.0718 -0.0298
70728W        W13781   5.174  18.536   2.931  0.1145 -0.1302 -0.4132
70729W        W13782   5.219  12.783   9.060 -0.1484 -0.2844  0.3727
70730W        W13783  11.496  24.833   4.664  0.2150  0.0069  0.1422
70731W        W13784  23.407  11.078  19.159  0.0696  0.0415 -0.4201
70732W        W13785   5.826   3.504   4.222 -0.0096  0.1050  0.1386
70733W        W13786  11.724  24.436   4.681  0.3236 -0.2319 -0.4586
70734W        W13787   4.668  34.132   9.917  0.0739 -0.1231 -0.0824
70735W        W13788   9.868   3.799  28.076 -0.1691  0.0597  0.0107
70736W        W13789  31.334  12.041   4.886 -0.1078  0.2557  0.0456
70737W        W13790   7.851   5.942   8.570  0.0020  0.0227 -0.0766
70738W        W13791  13.970  27.408   5.729  0.1053 -0.2564  0.1218
70739W        W13792   6.566   9.721  20.569 -0.3296 -0.1223  0.0399
70740W        W13793  32.677  18.190   4.613  0.4002 -0.2177 -0.1408
70741W        W13794  20.365  29.003   9.547  0.0190  0.1046  0.0564
70742W        W13795   6.765  14.031   5.666  0.0905 -0.0532 -0.1977
70743W        W13796   5.034   3.894  25.796  0.2178 -0.0837 -0.0690
70744W        W13797   6.717   9.588   0.904  0.1294  0.0458  0.2214
70745W        W13798   2.141  22.060   2.775 -0.2273 -0.3861  0.0054
70746W        W13799  11.389  14.020   6.955  0.1744  0.0208  0.1558
70747W        W13800  19.893  19.895  22.267 -0.2025  0.1040  0.1799
70748W        W13801  26.769  13.244  26.703  0.0604 -0.3269  0.0671
70749W        W13802   5.254  16.418  21.758  0.2177  0.0746 -0.3273
70750W        W13803  25.048  16.600  23.157  0.4700  0.2783 -0.0154
70751W        W13804  32.251   1.490  27.662  0.3019 -0.2068  0.2685
70752W        W13805  34.586  14.584   2.460 -0.2574 -0.0720  0.4026
70753W        W13806   9.574  13.250   9.341 -0.4125 -0.0255  0.1156
70754W        W13807  20.701   2.028   4.967  0.0859  0.0222  0.0025
70755W        W13808  15.753   8.139  28.022 -0.1886 -0.1268  0.1215
70756W        W13809  30.862   9.980   7.522 -0.0318 -0.1707  0.0691
70757W        W13810  11.007  12.673   6.594 -0.2788 -0.0361 -0.1078
70758W        W13811   6.813  15.372   3.806  0.1447  0.3942 -0.0235
70759W        W13812   3.516   5.269  20.711 -0.0467  0.3304 -0.4370
70760W        W13813   4.957  13.644   8.088  0.1836 -0.0085  0.0822
70761W        W13814  10.734  25.678  19.638  0.1972  0.2559 -0.2220
70762W        W13815   4.257  24.733  20.152 -0.0625  0.1905 -0.1276
70763W        W13816   6.971  26.870  26.404  0.0983 -0.0382 -0.0011
70764W        W13817  18.915   4.520   4.524  0.0113 -0.1068 -0.1208
70765W        W13818  13.937  11.589   4.897 -0.2870 -0.0655 -0.0214
70766W        W13819  24.264  20.549  15.843 -0.1222 -0.3603  0.3227
70767W        W13820  34.192  25.661   3.528  0.3415  0.1127 -0.1238
70768W        W13821  29.859  24.838   1.112  0.1298 -0.1893  0.4395
70769W        W13822   2.842  16.102   2.944 -0.3342  0.0043  0.1455
70770W        W13823   8.237  31.294   5.975  0.0048  0.1217 -0.0313
70771W        W13824   6.540  16.025   5.075 -0.0275  0.0547 -0.0981
70772W        W13825  29.140  11.328   2.409  0.1238  0.1030  0.2845
70773W        W13826   1.922  11.875  21.771  0.1875 -0.0997 -0.2928
70774W        W13827  15.465  18.017   2.228  0.4223 -0.0580  0.0798
70775W        W13828  20.424  32.288   3.260  0.0676 -0.0779  0.3356
70776W        W13829  12.815   5.028   0.593 -0.1001  0.1525  0.3469
70777W        W13830   1.635  21.557  19.236  0.1541 -0.3386  0.0695
70778W        W13831  10.957   0.649   0.755 -0.3010  0.1439  0.1468
70779W        W13832  28.915  14.445   3.336 -0.3146 -0.1761 -0.1698
70780W        W13833  27.886   8.303   1.431 -0.3676  0.1244  0.1059
70781W        W13834  20.972  12.007  20.866  0.0719 -0.0362  0.2170
70782W        W13835  25.201  14.396   7.019 -0.2073  0.0484 -0.1441
70783W        W13836   6.913   1.202  27.505 -0.3587  0.0905 -0.0631
70784W        W13837   0.628  31.117  16.004 -0.2356  0.1158 -0.0913
70785W        W13838   7.542  12.064   7.289 -0.1866 -0.0325 -0.1218
70786W        W13839   6.752  28.377   8.543  0.4278  0.1708  0.0824
70787W        W13840  10.871  20.328  20.405 -0.0786 -0.0209  0.1372
70788W        W13841   8.102  17.822   2.023 -0.0490 -0.1388 -0.0583
70789W        W13842  23.471   9.062  24.496 -0.1933 -0.1932  0.2890
70790W        W13843  28.297   8.900  24.982  0.0309  0.0612  0.0235
70791W        W13844  18.383  18.739  15.393  0.2255  0.3680  0.1761
70792W        W13845  13.786  21.975  27.231 -0.1421 -0.0360 -0.0285
70793W        W13846  13.013  12.173   8.840 -0.0953 -0.0153 -0.0595
70794W        W13847   2.667  11.852  25.953  0.0148 -0.1305 -0.0180
70795W        W13848  33.697  19.008   6.922 -0.0803 -0.1123  0.0143
70796W        W13849  18.340  22.147   3.768 -0.0759  0.0831  0.4826
70797W        W13850   0.751  11.130  19.643 -0.0125 -0.0930 -0.0901
70798W        W13851  30.054  22.091  23.575  0.0283  0.0510 -0.1364
70799W        W13852   8.557   2.884   7.738 -0.1888 -0.1959 -0.0276
70800W        W13853  24.664  29.966   3.782  0.0370  0.1271  0.0452
70801W        W13854  18.020  10.839   3.257  0.1548 -0.0708  0.1829
70802W        W13855   7.390   9.245  28.986  0.4131 -0.0936 -0.0579
70803W        W13856  22.785  12.311  24.703  0.0007  0.4848  0.1663
70804W        W13857  32.410  32.669   0.920  0.2632  0.0334 -0.1322
70805W        W13858  29.502  26.274   0.051  0.2218 -0.1613  0.1102
70806W        W13859  14.897  29.871  15.510 -0.3335  0.0135  0.1234
70807W        W13860   3.044  21.004  27.606 -0.2819  0.2741 -0.0785
70808W        W13861   1.203  17.482  27.747  0.1732  0.0303 -0.4254
70809W        W13862  33.113   3.160  20.084 -0.0660  0.0970 -0.0776
70810W        W13863   1.150  24.358   8.025  0.0104  0.1564 -0.0493
70811W        W13864   1.788  30.420   5.952  0.1962  0.2403  0.1894
70812W        W13865   4.313  16.427  26.503 -0.0333 -0.2301  0.2704
70813W        W13866   6.402   6.830   8.648 -0.0244 -0.2630  0.1674
70814W        W13867   0.876  20.351  22.880  0.0822 -0.0497  0.3544
70815W        W13868  30.344  32.139   8.468 -0.0843  0.1213 -0.2145
70816W        W13869   2.869   8.069   3.489 -0.0228  0.2032 -0.1861
70817W        W13870  31.847  24.609  24.451 -0.3193  0.0071 -0.3554
70818W        W13871  28.150  18.132   2.124  0.0356  0.0367  0.0754
70819W        W13872  10.225  22.844  17.777 -0.1734  0.0341  0.1306
70820W        W13873   4.232   7.862   5.477  0.1900 -0.2160 -0.2614
70821W        W13874  32.711  26.079   7.737  0.4349  0.0462  0.1580
70822W        W13875   3.533  18.628  21.008  0.0398 -0.1038  0.4576
70823W        W13876   9.480  26.761  20.189  0.1211 -0.1479 -0.1291
70824W        W13877  34.105  11.434   6.288 -0.0099  0.2546  0.0418
70825W        W13878   1.290  18.791  17.974 -0.0276  0.2747  0.0131
70826W        W13879  10.085  13.777   1.920 -0.3439 -0.1593  0.2045
70827W        W13880  12.566  11.172  28.376 -0.2485 -0.1286 -0.0487
70828W        W13881   5.226  29.383  26.139  0.3030  0.3646 -0.0010
70829W        W13882  16.582  24.028   0.636 -0.0008  0.1505  0.0192
70830W        W13883   0.737  31.377  25.175 -0.0358  0.1272  0.0594
70831W        W13884  32.481  16.903   5.391  0.0252 -0.5775 -0.2558
70832W        W13885   6.417  23.606   6.449  0.2514 -0.4199  0.4550
70833W        W13886   1.800  14.633  28.840  0.0698 -0.0203 -0.0916
70834W        W13887   5.269   0.480  26.896 -0.2135 -0.0885 -0.0553
70835W        W13888   6.003  13.024   0.015 -0.2703  0.0871  0.0681
70836W        W13889  24.486   9.393  19.782  0.1344 -0.3901  0.1098
70837W        W13890  13.358   3.951   5.174  0.2534 -0.0638  0.4949
70838W        W13891   1.700  13.013  27.824 -0.0793 -0.0674 -0.1917
70839W        W13892  13.423  29.196   7.262  0.2649  0.1422 -0.4077
70840W        W13893  28.922  26.520  28.696 -0.1936 -0.1019 -0.0478
70841W        W13894  34.505  16.462   4.345  0.1886 -0.1211 -0.1907
70842W        W13895  13.384  14.034  27.671  0.2590  0.4165 -0.0666
70843W        W13896  28.381   6.254   5.589  0.0385 -0.0824  0.1155
70844W        W13897  34.682  12.151   9.769 -0.0000 -0.3532 -0.2694
70845W        W13898  20.918  21.415  28.422  0.1620 -0.2483  0.0249
70846W        W13899  30.256  13.125  22.110  0.0146 -0.0601 -0.0460
70847W        W13900   2.479   1.188  22.449  0.0565 -0.0729  0.2392
70848W        W13901  12.796  13.624   5.323 -0.1568 -0.1104 -0.0122
70849W        W13902  13.771   9.100   1.236 -0.1522  0.3091 -0.0569
70850W        W13903  33.543  17.105   3.761 -0.2183 -0.5749 -0.1273
70851W        W13904  11.693  12.045  26.081 -0.1199  0.1134 -0.2311
70852W        W13905  34.108   2.877   7.970 -0.5335  0.0505  0.0889
70853W        W13906  28.237  14.485  18.989  0.2293  0.0718  0.3346
70854W        W13907   6.713  15.473   8.271  0.1758 -0.0475  0.1158
70855W        W13908   4.521  32.915  18.733  0.1207 -0.3185 -0.2580
70856W        W13909   6.704   8.402  15.062 -0.2604  0.0480  0.3967
70857W        W13910  27.032  23.477   0.498  0.1593  0.1332  0.1037
70858W        W13911  29.168  22.238   0.135  0.2440  0.1574  0.0608
70859W        W13912  27.233   4.291   6.592  0.0336 -0.0087  0.3033
70860W        W13913  33.021  11.715   1.252  0.2491 -0.3587 -0.0434
70861W        W13914   2.388  16.956   6.620  0.0518 -0.1847 -0.0742
70862W        W13915  12.324  10.118   2.082  0.1678 -0.1362 -0.1897
70863W        W13916  22.866   4.013  14.585  0.0477  0.2749  0.0440
70864W        W13917  30.018  25.490  18.786 -0.0757 -0.1515 -0.0350
70865W        W13918   2.138  32.039  22.225 -0.0963  0.1979 -0.0329
70866W        W13919  18.598   1.639   5.914  0.0340  0.0739 -0.0918
70867W        W13920   1.033  15.315   6.948  0.1060 -0.0991  0.0825
70868W        W13921  33.093  17.054   4.476 -0.2227 -0.2275 -0.1739
70869W        W13922   9.320  28.044  24.967  0.0390  0.2083 -0.0121
70870W        W13923  13.826   1.716  27.117  0.1620  0.0430  0.2070
70871W        W13924  17.715  30.208  28.095  0.0973  0.1550  0.2769
70872W        W13925   8.214  13.471   0.776  0.5343 -0.3966 -0.3518
70873W        W13926  25.715  15.481   6.351 -0.1839  0.1622 -0.3894
70874W        W13927  24.638   8.893  21.542 -0.2321 -0.3438  0.0819
70875W        W13928  12.115   7.529   5.751 -0.0512  0.5315  0.2996
70876W        W13929   8.843  18.597   5.685  0.1955 -0.0363 -0.3535
70877W        W13930  21.927   9.970  16.600  0.0775 -0.1454 -0.0612
70878W        W13931   5.048   2.004   6.297  0.0157 -0.0530 -0.2537
70879W        W13932   6.967  23.176  15.259 -0.0170 -0.0800  0.3275
70880W        W13933  11.033   2.265  27.165 -0.1123 -0.1847 -0.0560
70881W        W13934   2.860   6.948   6.109 -0.0874  0.0420 -0.0015
70882W        W13935  13.472  24.100   5.551 -0.0981  0.1489 -0.1177
70883W        W13936   8.422   7.827  19.056 -0.0659 -0.1738 -0.2547
70884W        W13937  24.211  33.470   9.666 -0.1892 -0.2167 -0.2595
70885W        W13938  34.474   8.442   5.432 -0.1746 -0.1466  0.3057
70886W        W13939  14.377  19.022  22.570  0.1112  0.1624 -0.1099
70887W        W13940  11.320  15.659  27.587 -0.1905 -0.0323  0.1370
70888W        W13941  12.747   5.108   7.089  0.0661  0.1056  0.1508
70889W        W13942  16.238  15.005   3.322 -0.1022  0.1136  0.0875
70890W        W13943  16.745  24.161  21.959  0.0193  0.1250  0.2007
70891W        W13944  16.529   4.526   7.293 -0.0241 -0.1208  0.0121
70892W        W13945   0.404  31.732   9.414 -0.1408  0.0423  0.0858
70893W        W13946   8.175  30.063  19.150 -0.0303 -0.3822  0.2532
70894W        W13947  27.357  29.614   6.548 -0.0339  0.0922  0.0320
70895W        W13948  13.511  18.241  10.453 -0.0011  0.2126 -0.2080
70896W        W13949   4.805  32.313   7.991  0.2008  0.0044  0.1228
70897W        W13950  28.018  19.538  28.482  0.4430  0.2140 -0.2680
70898W        W13951  28.074  10.964   8.308  0.0776 -0.1757  0.0862
70899W        W13952  17.920  23.729  25.408 -0.1866  0.2113 -0.0462
70900W        W13953  14.754  11.701  26.389  0.0979  0.0913  0.1896
70901W        W13954  18.268  13.578   3.085  0.2747 -0.2501 -0.2158
70902W        W13955   1.671  19.617   4.693 -0.1382  0.2288 -0.2976
70903W        W13956   5.244   1.320  23.358  0.1044 -0.0297  0.0566
70904W        W13957  29.905  22.548  28.926  0.1477 -0.1863 -0.0731
70905W        W13958   0.430  31.972   0.939 -0.1226 -0.3490 -0.0133
70906W        W13959   9.550  32.703   8.853  0.0777  0.1585 -0.1813
70907W        W13960  14.205  12.636  24.396 -0.1360  0.1559 -0.3515
70908W        W13961  31.239  12.206   5.869 -0.0173 -0.0907 -0.3022
70909W        W13962   5.733  22.758  26.602  0.0538  0.0972  0.0863
70910W        W13963  24.409  15.127  15.396  0.1508 -0.0727 -0.0962
70911W        W13964   7.353  21.763  22.033  0.0913 -0.1189 -0.1489
70912W        W13965   8.169   1.175  14.395 -0.4343  0.3012  0.1380
70913W        W13966   0.938  15.428  28.337  0.0810 -0.1293 -0.2669
70914W        W13967   4.684  28.516  22.929  0.3069 -0.0774  0.0621
70915W        W13968   1.458  30.778   3.701  0.3281  0.0527  0.1696
70916W        W13969  11.602   2.116   4.161 -0.0196 -0.3007 -0.2046
70917W        W13970  27.786   4.146   1.164  0.1164  0.0106 -0.0038
70918W        W13971  14.013  19.968   6.206 -0.0271 -0.2433  0.1232
70919W        W13972  25.200   2.838   8.521  0.2090 -0.1093 -0.0158
70920W        W13973  28.677  21.579  19.096  0.1589 -0.3321  0.1466
70921W        W13974   3.521   5.329   5.849 -0.1017 -0.0781  0.1129
70922W        W13975  13.505  15.189   0.896 -0.1817 -0.3544  0.0396
70923W        W13976  34.262   0.222   5.563 -0.0297  0.0435 -0.0809
70924W        W13977  14.713  29.842   9.227  0.0255 -0.2100  0.0084
70925W        W13978  34.318  17.506   5.641 -0.1592  0.1289  0.0069
70926W        W13979   0.519  20.985  28.435 -0.2294  0.0294 -0.2851
70927W        W13980   7.065  21.230   0.086 -0.2850 -0.0204  0.0448
70928W        W13981   6.888  24.411  16.128  0.2478 -0.1251 -0.1244
70929W        W13982  19.991   4.349  19.875  0.2615  0.0250 -0.1579
70930W        W13983  12.557  32.519  27.208 -0.0669 -0.0094 -0.0467
70931W        W13984   2.613  31.595   5.794 -0.1057  0.0246 -0.1879
70932W        W13985   0.862  13.925   7.731 -0.0005 -0.0092  0.0754
70933W        W13986   4.531  25.386   1.176  0.0714  0.1921  0.1485
70934W        W13987   3.232  27.417  21.265 -0.1330  0.1384 -0.1283
70935W        W13988  25.811  21.575   2.081 -0.2550  0.1500 -0.2481
70936W        W13989  34.665  16.303   9.286 -0.1646 -0.2125  0.0305
70937W        W13990  27.530  17.424   5.176  0.0359  0.0665 -0.2562
70938W        W13991  34.614   9.968  25.217 -0.0383 -0.1701 -0.0598
70939W        W13992   9.059  23.354  20.466  0.3450 -0.1392  0.1445
70940W        W13993   2.764  26.679   9.426  0.1478  0.1752 -0.1047
70941W        W13994   6.280   6.475   5.032  0.1640  0.0951 -0.0339
70942W        W13995  18.656  16.742  22.779 -0.2370  0.2017  0.0924
70943W        W13996  21.963  17.664   0.309  0.1787 -0.1102 -0.0565
70944W        W13997  11.009  13.580   7.168 -0.0371  0.0365 -0.1658
70945W        W13998   1.929  10.922   4.033 -0.2757 -0.0275  0.0672
70946W        W13999  30.591  33.851   0.512  0.0559 -0.0525  0.0633
70947W        W14000   6.009  20.374   6.942 -0.2614 -0.0080  0.0777
70948W        W14001  14.627  14.489  21.767  0.0331 -0.0941 -0.1171
70949W        W14002   6.060   3.044   4.974  0.0761 -0.0483 -0.0239
70950W        W14003  29.337   3.922   9.529  0.2788 -0.0899 -0.0634
70951W        W14004  31.961   3.358   2.829 -0.0155  0.2037 -0.2327
70952W        W14005   5.490  28.544   6.869  0.0384  0.0222 -0.0654
70953W        W14006  12.998  17.294   9.189  0.2232  0.0565  0.0179
70954W        W14007   7.107  13.522   3.270  0.0159 -0.0577 -0.1474
70955W        W14008  10.225  24.012   8.568 -0.2785  0.1459 -0.0595
70956W        W14009  31.651  10.628   3.262  0.0846 -0.1754 -0.0215
70957W        W14010  22.413  20.603   1.802  0.1334  0.0463 -0.1887
70958W        W14011   7.690  10.907   1.727 -0.2255  0.0460 -0.0066
70959W        W14012   6.159  21.303   0.058 -0.0077 -0.0702  0.0655
70960W        W14013  31.650  19.336   0.134 -0.0342  0.1240 -0.1460
70961W        W14014  13.648  25.406  18.844  0.1226  0.2385  0.2851
70962W        W14015  22.369  19.869   6.932 -0.0034  0.2142  0.0185
70963W        W14016   0.714   9.365   6.251 -0.2242 -0.5342 -0.2629
70964W        W14017  30.205  26.419   8.863 -0.0605 -0.2731 -0.1830
70965W        W14018   7.421  21.028   7.228  0.0504 -0.4326 -0.0986
70966W        W14019  22.207  19.267   1.905 -0.1105  0.1811 -0.1762
70967W        W14020  34.038  13.267  17.042  0.0345 -0.1063 -0.0850
70968W        W14021  32.080  31.664   3.574  0.0519 -0.0643  0.1891
70969W        W14022   3.528  16.908   1.483 -0.1849  0.1882  0.0893
70970W        W14023  33.425  18.869  27.484  0.0464 -0.1049  0.1036
70971W        W14024  15.887  19.556   1.005  0.1896 -0.0707  0.0723
70972W        W14025   3.075  27.045  27.707  0.0223  0.1887 -0.0810
70973W        W14026  27.624  30.420  23.509 -0.1490 -0.0714  0.1238
70974W        W14027  33.753  20.486   8.965 -0.0642  0.1955  0.2290
70975W        W14028  19.267  18.481   0.757  0.0396  0.0649 -0.1028
70976W        W14029  13.637   5.660  27.217  0.3040  0.0914 -0.4242
70977W        W14030   2.425   5.452   9.940 -0.0223  0.0559 -0.3305
70978W        W14031  24.950  22.033   2.183 -0.1775 -0.0552  0.2501
70979W        W14032   3.413  11.217  20.537 -0.1542  0.1579  0.2223
70980W        W14033   7.522  12.871   3.198 -0.2248 -0.0756 -0.1119
70981W        W14034  22.033  19.855   1.919  0.2048  0.0856  0.0638
70982W        W14035   3.049  14.870   5.862 -0.0689 -0.3239 -0.0599
70983W        W14036  17.803   1.271  19.263  0.1215  0.0209 -0.0948
70984W        W14037  26.087   8.557   5.219  0.1070 -0.0075  0.0150
70985W        W14038  23.501  24.069   8.558  0.0102 -0.0212  0.0779
70986W        W14039   1.914  21.511   3.818  0.1123 -0.0988 -0.0783
70987W        W14040  29.499  21.593   9.132  0.0557  0.1864 -0.3563
70988W        W14041   0.400   0.461   3.580 -0.0116 -0.0000 -0.2458
70989W        W14042   9.037   6.144  28.800  0.1303 -0.1279 -0.1235
70990W        W14043   9.346  14.747  26.188 -0.3305  0.1741  0.0780
70991W        W14044   0.095  16.019   9.775  0.2525  0.0651  0.0860
70992W        W14045   2.450  10.912   7.179 -0.0095 -0.3480 -0.1973
70993W        W14046  19.348  14.360   0.490 -0.3145  0.0299 -0.1996
70994W        W14047  10.418  12.099  23.952 -0.0038  0.0807 -0.3300
70995W        W14048  14.176  12.128   4.681 -0.2866 -0.0427  0.3747
70996W        W14049  29.450  14.474   8.116  0.1986 -0.0569 -0.0874
70997W        W14050   7.967   5.064   2.354  0.4526  0.0630  0.2024
70998W        W14051  14.128  10.536  16.209  0.3177  0.1150 -0.3146
70999W        W14052  13.732  26.827  24.079 -0.1836  0.3001  0.1601
71000W        W14053  34.294   5.999   7.689  0.0330  0.0189 -0.0066
71001W        W14054   1.419   4.696  10.453 -0.0272 -0.1685  0.1248
71002W        W14055   1.546  25.572   8.027  0.1515 -0.0138  0.0275
71003W        W14056  29.600  25.171  26.882  0.3164 -0.1878 -0.2346
71004W        W14057   5.950  14.013  27.298 -0.1655  0.2014 -0.1818
71005W        W14058   0.492  11.493   3.890 -0.1805 -0.1315 -0.2618
71006W        W14059   5.909  21.352   6.712 -0.0112 -0.0467  0.2818
71007W        W14060  33.224  30.652   6.497  0.3606 -0.3832 -0.3479
71008W        W14061  10.291  16.594   8.763 -0.1190 -0.0220  0.0638
71009W        W14062   6.874   3.330   7.789  0.1293  0.1909 -0.0751
71010W        W14063   8.736   7.118   3.826 -0.0805  0.2459  0.3212
71011W        W14064   4.104  32.475   3.978 -0.0330  0.0065 -0.3336
71012W        W14065   4.170  10.207   1.790  0.0277  0.0971 -0.2328
71013W        W14066  12.050  16.074   5.532  0.1864 -0.0679 -0.0027
71014W        W14067  12.534  21.021  25.306 -0.3930 -0.2380  0.0035
71015W        W14068  33.590  19.376  29.177  0.1223  0.1788 -0.1804
71016W        W14069  21.207   7.868  25.657  0.1420  0.2171  0.1998
71017W        W14070  23.540  17.253  18.294 -0.0825  0.0779  0.2351
71018W        W14071  16.340  12.007  27.174  0.0331 -0.0742 -0.1283
71019W        W14072   0.364  15.447   6.132  0.0942  0.0945  0.1493
71020W        W14073  32.774  11.563   6.718 -0.2089 -0.5083  0.0904
71021W        W14074  24.350  14.220  25.568  0.1751  0.3001  0.0845
71022W        W14075  23.209  15.276   5.136  0.0538 -0.1810  0.4122
71023W        W14076   7.930  26.085  24.879 -0.0495 -0.0586 -0.1198
71024W        W14077  16.848  21.408  21.681 -0.1292  0.0417 -0.4123
71025W        W14078  17.022  20.796  25.545 -0.2331  0.0275 -0.1450
71026W        W14079   2.907  25.034  23.471 -0.0665  0.1096 -0.0765
71027W        W14080   3.543  17.317   0.070 -0.1725  0.2208  0.0456
71028W        W14081   8.617   1.523   3.776 -0.2111  0.1030 -0.2378
71029W        W14082  21.354  11.619  23.518 -0.0019 -0.3528  0.0793
71030W        W14083   6.152   8.228   9.271  0.4527 -0.1098  0.1626
71031W        W14084  12.619  12.668   3.083 -0.1038 -0.0111  0.0754
71032W        W14085   4.228  18.674   1.786  0.0949  0.0081 -0.0235
71033W        W14086  31.474  24.471   3.107  0.2542  0.0560  0.0281
71034W        W14087   3.757  15.104   0.280 -0.0444  0.2032 -0.2458
71035W        W14088   9.989  18.578   2.319  0.1428  0.0034  0.0830
71036W        W14089   7.379  19.273   0.271  0.2338 -0.1609 -0.2341
71037W        W14090   7.957  22.628   8.776 -0.0336 -0.0690  0.0908
71038W        W14091  21.367   8.713   5.990 -0.0558  0.3512  0.1348
71039W        W14092   4.842  20.749   3.537  0.1435  0.0838 -0.0228
71040W        W14093  32.078  29.666   6.162  0.1599 -0.2344  0.0379
71041W        W14094  20.347   1.613   9.689 -0.3513 -0.0805 -0.1077
71042W        W14095   0.751  28.622   7.151  0.2693 -0.0271  0.0709
71043W        W14096   5.337  15.237   0.280 -0.1106  0.0273 -0.0916
71044W        W14097   6.210   6.050   6.052  0.0033 -0.3612 -0.1887
71045W        W14098  29.359  16.679  23.291  0.1631  0.0708  0.2440
71046W        W14099   3.005   9.546  20.510  0.0790  0.1465 -0.1212
71047W        W14100   1.689  17.219   1.659  0.1485  0.0948 -0.2508
71048W        W14101  12.008   5.452   0.170 -0.1092 -0.1655 -0.0306
71049W        W14102  23.384   1.909  26.292  0.1858 -0.0093  0.1403
71050W        W14103  12.542  17.720   9.889  0.1355  0.2500  0.1965
71051W        W14104  23.822   0.040   7.629  0.1584  0.1715  0.0988
71052W        W14105   0.484  30.791   7.896  0.1463 -0.0867 -0.2123
71053W        W14106   1.882  14.785   7.680 -0.0473  0.0655  0.1044
71054W        W14107   0.588  25.133   4.413  0.1967 -0.2885  0.1723
71055W        W14108  34.130  25.117   3.474 -0.1682 -0.0153 -0.2650
71056W        W14109   2.821  22.495   6.898  0.2286  0.1005 -0.0141
71057W        W14110   8.296   4.993   5.190  0.3942  0.2289 -0.2859
71058W        W14111  11.440   5.530   6.132 -0.0693  0.3976 -0.1234
71059W        W14112  34.443  29.155  28.712 -0.0615  0.0101 -0.3088
71060W        W14113  24.452   3.794   8.276  0.1270  0.0519  0.1071
71061W        W14114  30.703  19.752   0.861  0.3529 -0.0386 -0.0553
71062W        W14115  10.373   9.286  20.634  0.1260  0.0141 -0.0825
71063W        W14116  20.460  21.970  26.078 -0.2006 -0.1843 -0.1912
71064W        W14117   4.738  29.932   4.214  0.3020 -0.0353  0.2367
71065W        W14118  21.631  30.448  24.656  0.2477  0.0020  0.2204
71066W        W14119  10.459   6.606   7.655 -0.1685 -0.1134 -0.1529
71067W        W14120  31.468  26.183   6.983  0.0644 -0.0074 -0.0178
71068W        W14121   1.732  19.954  25.959  0.2909  0.0162 -0.0918
71069W        W14122  30.898  12.624  25.652  0.0263  0.3302 -0.2222
71070W        W14123   7.414  31.739   6.014  0.0062  0.0321  0.1508
71071W        W14124  25.867  13.533  26.962  0.1550  0.0510 -0.1863
71072W        W14125   2.993  18.158   7.460 -0.1010 -0.0018 -0.1520
71073W        W14126   1.449   6.611  26.389 -0.2245  0.2416 -0.0210
71074W        W14127   0.127  13.002   9.792 -0.0445 -0.2652 -0.0549
71075W        W14128   8.763   6.436   9.917  0.0411 -0.2335  0.3446
71076W        W14129  15.167  32.769   3.775 -0.0257 -0.0311 -0.2403
71077W        W14130  15.305  15.991   3.015 -0.1946 -0.0612 -0.0885
71078W        W14131  28.037  20.223   8.242  0.0401  0.0949 -0.2145
71079W        W14132   4.380  19.951   8.354  0.2607  0.3699 -0.1421
71080W        W14133  14.135  32.313   6.768  0.2500  0.1285  0.2733
71081W        W14134  32.663  24.178   3.588  0.0444  0.1176  0.0083
71082W        W14135   7.641  27.362   1.416  0.0780  0.1403  0.0515
71083W        W14136  28.154  29.311   5.286  0.3577  0.0250 -0.1947
71084W        W14137   6.671  31.446   9.495 -0.0170  0.1387 -0.1663
71085W        W14138  12.767  26.655  22.359  0.3222  0.0338  0.1254
71086W        W14139  14.829   3.506   4.116 -0.2482  0.0930  0.1950
71087W        W14140   5.636  33.260   2.115 -0.0276  0.2970 -0.0253
71088W        W14141  14.971  11.846  17.937  0.1063 -0.0460 -0.2286
71089W        W14142  27.424  28.667  25.796 -0.1416  0.0770  0.2788
71090W        W14143  15.881  19.038   9.119  0.3064  0.1281  0.2366
71091W        W14144  15.565   9.826   6.584 -0.1655 -0.1085 -0.1332
71092W        W14145  28.899  23.133   4.199 -0.5690  0.1475  0.0381
71093W        W14146   5.158  26.169   7.032  0.0203 -0.0492 -0.2007
71094W        W14147   5.753  26.014  21.870  0.0764 -0.1658  0.0354
71095W        W14148  16.194   5.291  27.627  0.2393  0.0581 -0.3699
71096W        W14149  12.693  14.144   5.283  0.0497 -0.3802  0.0097
71097W        W14150  26.508  22.107   8.290  0.4456 -0.0656  0.0783
71098W        W14151  12.639  24.900   5.085  0.0524 -0.1641 -0.0384
71099W        W14152   7.936  27.380   7.210 -0.3277 -0.0899 -0.0064
71100W        W14153  18.107  22.693   1.995 -0.1984  0.1800 -0.1066
71101W        W14154   5.703   6.262   3.093 -0.0055  0.2526 -0.0933
71102W        W14155   9.878   0.432   6.602 -0.0871 -0.1717 -0.1163
71103W        W14156   9.453  16.988  23.475 -0.0823  0.1553 -0.0772
71104W        W14157  31.329  29.317   5.748 -0.1706 -0.2828  0.0372
71105W        W14158   3.933  29.965   2.319  0.1925 -0.1885 -0.3387
71106W        W14159  31.726  24.381   1.659  0.2374  0.0882 -0.1477
71107W        W14160  28.729  13.349   4.234  0.2730 -0.1548  0.0687
71108W        W14161   3.110   4.227  27.990  0.0448  0.0112 -0.0720
71109W        W14162  28.351  27.555  25.627 -0.1105 -0.1203  0.1035
71110W        W14163   4.340  20.558   2.862 -0.0131  0.0247  0.2287
71111W        W14164   1.131  13.455   1.277 -0.1350 -0.1008  0.2370
71112W        W14165  28.142  20.460   4.285  0.2431 -0.1388  0.3279
71113W        W14166   7.217  24.672  23.561 -0.0676  0.1228 -0.1735
71114W        W14167  30.204  31.970   5.128 -0.0544 -0.1691  0.0455
71115W        W14168  11.742  11.912   7.480  0.3434 -0.2396 -0.0660
71116W        W14169   3.288  30.699  27.347  0.0421  0.1247  0.0719
71117W        W14170  24.207   8.730  18.459 -0.0916 -0.0330  0.2619
71118W        W14171  33.934  20.370   6.635 -0.1609  0.1480  0.0608
71119W        W14172  10.982  21.324  26.703 -0.0340 -0.1322  0.0585
71120W        W14173  10.168  11.780  28.584 -0.1997  0.1485 -0.2581
71121W        W14174  32.416   2.617   7.496  0.0266  0.0664 -0.1943
71122W        W14175   2.697  15.001   2.840  0.2007 -0.0873  0.3119
71123W        W14176  14.032  13.218   0.848  0.1406  0.0269 -0.2424
71124W        W14177   2.954  30.621   3.184  0.2535  0.3032 -0.3620
71125W        W14178  12.165   8.458  29.130  0.0674 -0.0442  0.0477
71126W        W14179  20.719   5.088   3.396  0.0223  0.0696  0.0499
71127W        W14180   6.314   0.308   7.307 -0.0101 -0.1830  0.1150
71128W        W14181  29.201  26.374   8.649 -0.0465  0.1425 -0.1257
71129W        W14182   7.333   7.687   4.269  0.1109  0.3322  0.0649
71130W        W14183   4.223  11.985   6.233  0.1907 -0.3620 -0.1223
71131W        W14184  14.262  11.720   1.039 -0.0433 -0.2140  0.0884
71132W        W14185   0.539  34.587   5.572 -0.1697  0.1262  0.2776
71133W        W14186  12.799   5.070  28.119 -0.1062  0.0770  0.1777
71134W        W14187  20.491   0.496   0.594  0.2049  0.0742  0.0380
71135W        W14188   8.579   5.455   8.353  0.0302  0.1776  0.1253
71136W        W14189  27.601   7.206  22.371 -0.2960 -0.2372 -0.0149
71137W        W14190   0.967   7.288   8.810 -0.0454  0.1998  0.0264
71138W        W14191  18.316  31.954  10.014 -0.1574  0.0479  0.0788
71139W        W14192  31.380  31.024   4.555 -0.0758 -0.1107  0.0424
71140W        W14193  20.223   4.072   9.740 -0.3980 -0.1349 -0.0790
71141W        W14194  17.240  18.671   9.461  0.1108 -0.2332 -0.3067
71142W        W14195  19.111  19.852  24.528 -0.0108 -0.0116 -0.4277
71143W        W14196   7.261  18.096   5.157  0.0920  0.2049 -0.0519
71144W        W14197  15.497   0.111  10.017 -0.2149 -0.1396  0.2616
71145W        W14198   5.886   6.092   3.601 -0.2053  0.0137  0.0089
71146W        W14199  27.443  20.243  10.132  0.1433  0.0355 -0.0210
71147W        W14200   9.073  19.232  26.216 -0.1899  0.0433  0.1737
71148W        W14201   1.960   3.702   4.999 -0.2017  0.2397 -0.0970
71149W        W14202   4.991  33.272  21.036  0.0028  0.0931 -0.2002
71150W        W14203   3.638   9.973   0.282 -0.1906 -0.2423  0.0387
71151W        W14204  15.900  31.587   6.252 -0.1039 -0.1019  0.0822
71152W        W14205   6.343  13.598   8.499  0.1500  0.0164  0.3273
71153W        W14206  14.361  23.392   5.082  0.2020  0.0277  0.2553
71154W        W14207  33.432  27.172   7.766  0.1139 -0.0418 -0.1394
71155W        W14208  16.252  15.832   8.389 -0.1824 -0.1698 -0.2210
71156W        W14209  14.149  27.199   9.270 -0.1517 -0.0523  0.0540
71157W        W14210  27.488  12.758   8.719 -0.1319 -0.1549 -0.0357
71158W        W14211  14.487  13.453   6.880 -0.0515  0.2694 -0.2285
71159W        W14212  21.678   9.804  10.737  0.0709 -0.0169  0.1115
71160W        W14213  23.585  13.262   1.133 -0.0173  0.3675  0.1087
71161W        W14214  31.378  23.050   1.508 -0.1637  0.0713  0.0399
71162W        W14215  14.235   9.741   2.553 -0.1452 -0.0002 -0.1221
71163W        W14216   7.320  12.049   8.675  0.0819  0.1895 -0.1519
71164W        W14217   4.163   9.826   0.856  0.1160 -0.2709  0.1681
71165W        W14218  21.254  18.990  23.150 -0.0915 -0.2307  0.3382
71166W        W14219   2.370  10.062   9.922 -0.1292  0.0574  0.0243
71167W        W14220   0.574   7.932   6.033  0.0066  0.2689 -0.0137
71168W        W14221   6.876  14.458   5.946  0.0396  0.0523  0.2949
71169W        W14222   9.647   9.674  28.493  0.0512  0.0218 -0.1547
71170W        W14223  12.887   1.584   7.779  0.4637  0.2181  0.0402
71171W        W14224  19.865  34.048  26.217 -0.1552  0.0809 -0.0189
71172W        W14225   2.281  16.833   3.884  0.1519 -0.2612 -0.1873
71173W        W14226  33.272   7.082  27.443  0.0527  0.1290  0.2445
71174W        W14227   0.430  12.890  27.862 -0.1480 -0.0244  0.1157
71175W        W14228   5.301  30.859  16.702 -0.0021  0.0424 -0.1978
71176W        W14229  20.804  23.873  27.600  0.1695 -0.0171  0.1388
71177W        W14230   2.622  18.571  22.146  0.1569  0.0225  0.1357
71178W        W14231  11.302  21.775   7.529 -0.1226  0.1051 -0.1739
71179W        W14232  25.536  26.493  26.133  0.0933 -0.1356  0.1279
71180W        W14233  19.970  30.108  27.085 -0.0135  0.2725 -0.3357
71181W        W14234   4.937  18.111  25.000 -0.1048  0.0233  0.3570
71182W        W14235  10.600  15.835   8.344  0.4718  0.0666 -0.1552
71183W        W14236  19.193  11.774   0.830 -0.2045  0.0087  0.0188
71184W        W14237  31.131  16.670   0.470 -0.0075 -0.0187 -0.0928
71185W        W14238  12.004   9.534   9.814  0.2632  0.0231 -0.1800
71186W        W14239   6.624  11.313   9.932  0.1058  0.1265  0.2742
71187W        W14240   0.091  14.520   3.493 -0.0220 -0.0190  0.0624
71188W        W14241   8.416  17.124   8.271  0.1906  0.2555 -0.0221
71189W        W14242  24.156  23.412   8.708  0.3478 -0.1432  0.1711
71190W        W14243  15.399  21.728  10.012 -0.0637 -0.0612 -0.3410
71191W        W14244  23.531  18.815  27.184 -0.1026 -0.0808  0.0641
71192W        W14245   2.434  10.966   8.465 -0.0282 -0.1951  0.0513
71193W        W14246   6.696   2.390   7.344 -0.1981 -0.0239  0.0665
71194W        W14247   7.881  20.344   6.659  0.0718 -0.1478  0.0175
71195W        W14248  12.024   1.333   7.458 -0.1258 -0.2546  0.2375
71196W        W14249   8.345   7.461   7.686 -0.0663 -0.2614  0.1082
71197W        W14250  33.397  30.735   0.956 -0.0635 -0.0391 -0.1020
71198W        W14251  23.840  11.048   7.555 -0.1461 -0.0057  0.2575
71199W        W14252  12.639  10.700   5.216 -0.1947 -0.0069 -0.1554
71200W        W14253  10.160   6.679   5.554 -0.2289 -0.2700  0.2650
71201W        W14254  31.113  24.314   4.618  0.1180  0.0911 -0.0949
71202W        W14255   5.364  16.746   9.133 -0.1683 -0.0668 -0.0726
71203W        W14256  24.331  23.047   2.776 -0.3413  0.1968  0.1552
71204W        W14257   4.857  11.015   8.942 -0.2076  0.0583 -0.2022
71205W        W14258  11.164  32.870   6.458 -0.2757  0.2712 -0.2005
71206W        W14259  32.450  17.441  19.175 -0.1359  0.2324  0.2177
71207W        W14260  28.555  23.089  24.926 -0.1226 -0.0935  0.3136
71208W        W14261  31.813  34.061   6.776 -0.0316  0.3467  0.0549
71209W        W14262   1.235  25.856  28.803 -0.3145  0.1081 -0.0942
71210W        W14263  11.335  31.204   9.425 -0.0137 -0.1605 -0.2080
71211W        W14264  11.162  18.097   9.890 -0.1611 -0.0258 -0.2709
71212W        W14265   6.988  13.058   4.436  0.2003 -0.0681  0.0256
71213W        W14266   9.567  10.012   9.201 -0.2874 -0.0744  0.0544
71214W        W14267  12.543  22.239   9.780 -0.0005  0.2036 -0.0860
71215W        W14268  34.595  27.198   8.763 -0.1997  0.1950  0.1805
71216W        W14269   1.672  19.303   3.344  0.2068 -0.0970  0.0225
71217W        W14270   7.177  26.447  28.209  0.2347  0.1659  0.1206
71218W        W14271  10.715  19.230   5.075 -0.2307 -0.2092  0.2964
71219W        W14272   8.451   4.347   6.024  0.1663  0.1575 -0.0027
71220W        W14273   8.615  12.240   6.059 -0.2867  0.1808  0.0084
71221W        W14274  30.573  13.513  18.497  0.1796 -0.1821 -0.1138
71222W        W14275  10.853  29.950  26.754  0.1026  0.0963 -0.0115
71223W        W14276   2.601  15.597   8.639 -0.1292  0.0867 -0.2683
71224W        W14277  30.796   5.957   7.125 -0.0619  0.1535  0.1881
71225W        W14278  29.422  28.700   3.477 -0.1500  0.3607  0.1388
71226W        W14279  33.418  26.032   6.902 -0.1936 -0.1537 -0.1292
71227W        W14280  20.211  27.399  22.972  0.2568 -0.1738  0.0573
71228W        W14281  21.905  17.891   4.426  0.0885  0.2617  0.2019
71229W        W14282  33.810  31.265  17.570 -0.6674  0.2899 -0.3113
71230W        W14283  21.337  14.851  22.904 -0.0947  0.1934  0.1538
71231W        W14284  17.902  17.404  27.144  0.1749  0.1220  0.0686
71232W        W14285  31.586  15.857   1.527  0.0388 -0.2506  0.3142
71233W        W14286  20.927   3.895   5.994  0.1093 -0.0820  0.0136
71234W        W14287  17.854  13.466  22.111 -0.1342 -0.0041 -0.1414
71235W        W14288   5.107  26.033   4.238  0.0829 -0.1135 -0.1620
71236W        W14289  27.747   8.999   9.292 -0.1125 -0.0908  0.1597
71237W        W14290   3.895  17.295   7.938 -0.0911  0.1359 -0.0801
71238W        W14291   5.009  33.099  25.759 -0.1803 -0.1766  0.0946
71239W        W14292   2.597   8.304   4.879 -0.1713 -0.2744 -0.1536
71240W        W14293   1.020  10.302   7.871 -0.0160 -0.0333 -0.0604
71241W        W14294  28.715  15.925  18.634 -0.0366 -0.1557  0.1830
71242W        W14295   5.563  17.311  28.265 -0.0660  0.5579  0.0243
71243W        W14296  10.723  18.543   2.852  0.0875 -0.0264  0.0329
71244W        W14297   9.050   2.341  22.316 -0.2119 -0.3414 -0.0851
71245W        W14298  12.522  10.192   3.791 -0.5479  0.0671 -0.0724
71246W        W14299  30.617  13.114   2.981  0.1917 -0.0994  0.0649
71247W        W14300   4.531  31.114  25.279  0.2082 -0.1194 -0.0519
71248W        W14301  23.047   1.899   4.480 -0.0501  0.2014  0.2404
71249W        W14302  12.149  18.908   2.252  0.1620  0.2724  0.1223
71250W        W14303  32.635  14.300  16.082  0.0844 -0.0806 -0.2846
71251W        W14304  31.587  25.160   5.601  0.0654 -0.1908  0.1970
71252W        W14305  11.333   7.197   0.789  0.1304 -0.2558  0.1711
71253W        W14306   9.693  21.544   3.225  0.0361 -0.0793  0.1323
71254W        W14307  25.026  17.421  26.905  0.0918  0.0998 -0.0351
71255W        W14308   7.651  17.316   8.471  0.0933 -0.1569 -0.0110
71256W        W14309  17.815  13.119   6.727  0.1124 -0.2399  0.2705
71257W        W14310  19.407  17.323   0.818  0.1891 -0.0212  0.1815
71258W        W14311  15.348   5.600   5.021 -0.2507 -0.1458  0.1212
71259W        W14312   6.444  16.759   0.574 -0.2066 -0.1827  0.0675
71260W        W14313   7.125  16.747   5.534  0.2062 -0.0779  0.1267
71261W        W14314   2.064   4.853   8.431  0.0902 -0.2416  0.1995
71262W        W14315  32.652  10.174   7.530 -0.1763 -0.1830 -0.1517
71263W        W14316   1.116  19.603   5.379 -0.2237 -0.3109 -0.1140
71264W        W14317  30.517   6.783   7.350 -0.1137  0.0745 -0.2927
71265W        W14318  29.056   0.356  21.105  0.1067 -0.0958  0.3263
71266W        W14319  18.875  28.974  17.529  0.2660 -0.2318 -0.1297
71267W        W14320  26.438  25.192   5.188 -0.2969  0.1565  0.0839
71268W        W14321   9.874   1.517  24.624 -0.0975  0.0271  0.0175
71269W        W14322   7.415  15.919   7.993 -0.1683 -0.1492 -0.1143
71270W        W14323  15.022   8.781   0.383 -0.2443  0.0259 -0.0172
71271W        W14324   6.002  25.260   9.915  0.1580 -0.0944  0.0353
71272W        W14325  28.531  27.025  26.621  0.1840 -0.2675  0.1287
71273W        W14326  13.266   5.073   7.915 -0.3128 -0.1138  0.0862
71274W        W14327   0.832  11.620   2.137 -0.1158  0.2221  0.1428
71275W        W14328   5.880   8.147   2.890 -0.1662  0.1485 -0.1675
71276W        W14329   3.674  24.615   9.209 -0.1799 -0.1060 -0.0364
71277W        W14330  30.949  13.389   3.327  0.0206  0.0015  0.2525
71278W        W14331  23.233  34.051  26.409  0.1212  0.2067  0.0952
71279W        W14332   0.482  16.979   3.810 -0.2136 -0.5628  0.0791
71280W        W14333   5.363  17.788  28.456  0.1256 -0.2139  0.0829
71281W        W14334  25.585  15.626  25.142 -0.1875  0.0604  0.0317
71282W        W14335   0.662  13.946   9.398  0.0693  0.2040  0.1331
71283W        W14336   6.728   9.418  27.641 -0.0632  0.0412 -0.1173
71284W        W14337  19.414  17.665   1.691 -0.2418 -0.2893 -0.1121
71285W        W14338  22.009   1.738  27.618  0.1116  0.1699 -0.1276
71286W        W14339  28.734  27.652   7.875 -0.1889 -0.3159 -0.0289
71287W        W14340  29.669  20.424   5.702 -0.2081 -0.2075  0.3590
71288W        W14341   0.136  10.687   7.884 -0.0201  0.1223  0.3067
71289W        W14342   9.795  21.767  28.738  0.0006  0.0533 -0.3547
71290W        W14343   5.415   4.453   8.916  0.0630  0.2993  0.0557
71291W        W14344  21.473  19.590   9.245  0.1071  0.1188  0.2672
71292W        W14345  25.078  19.554   4.547 -0.3467  0.1687  0.1994
71293W        W14346  18.857   2.951   1.833  0.0086 -0.2107  0.3950
71294W        W14347  22.451   0.493   4.234 -0.1944  0.1411  0.2945
71295W        W14348   3.434  10.203   4.166  0.4822  0.1736  0.0629
71296W        W14349  12.433  18.274   0.955 -0.0929  0.1692 -0.1501
71297W        W14350   6.202   8.611   6.319 -0.0630  0.0211  0.0050
71298W        W14351  18.791   3.527   6.077  0.1738  0.3352  0.2498
71299W        W14352   2.289  25.948  22.093  0.0174 -0.0291  0.3105
71300W        W14353   9.366   7.373   2.569 -0.1280 -0.2330 -0.2979
71301W        W14354   1.937  17.464   3.514  0.2611  0.0815 -0.2573
71302W        W14355   5.060  14.348   6.118 -0.1094  0.1146  0.0895
71303W        W14356  22.648   2.233   9.550 -0.0600 -0.2853  0.0546
71304W        W14357   8.153  22.347   1.401 -0.1205 -0.0339  0.1363
71305W        W14358  10.057  24.361  18.699 -0.0451 -0.0568 -0.0010
71306W        W14359  31.993  24.361   8.048  0.0757 -0.1452  0.0799
71307W        W14360   2.630   0.165  28.390  0.0292 -0.1627 -0.1220
71308W        W14361   6.859  10.213   1.897 -0.0658  0.0755  0.1492
71309W        W14362   9.584  22.157   0.369 -0.3852  0.0639 -0.1544
71310W        W14363  33.719   8.052  10.086  0.1444  0.0019 -0.0936
71311W        W14364   0.798   8.430   9.316  0.0466 -0.1115  0.3418
71312W        W14365   1.111  16.599  25.762 -0.2768  0.2568  0.3254
71313W        W14366  14.300  33.784  28.650 -0.0346  0.2999 -0.3241
71314W        W14367   0.472  31.459  28.630  0.1741  0.1994 -0.0852
71315W        W14368   8.296  21.863   8.251  0.1385 -0.2484  0.0093
71316W        W14369  23.898  34.288  28.976 -0.2481 -0.0086 -0.2943
71317W        W14370  31.339  23.592   0.498 -0.2889  0.1212  0.2326
71318W        W14371  33.967   9.322   3.344 -0.1003  0.0416  0.2697
71319W        W14372  31.925  20.438   5.547  0.1037 -0.0675  0.1706
71320W        W14373   0.231   4.504  25.836  0.2880 -0.1253  0.1692
71321W        W14374  12.370  30.496   5.110 -0.2870 -0.0293 -0.1462
71322W        W14375   9.449  14.839   8.118 -0.1370  0.1480 -0.0466
71323W        W14376  12.789  34.571   7.992  0.2146  0.0523 -0.2489
71324W        W14377  12.618  21.614   7.344  0.1337 -0.1963  0.3404
71325W        W14378  27.783  21.252  24.184 -0.0513  0.1823 -0.1200
71326W        W14379  33.948  23.373   6.781 -0.2665 -0.2367 -0.0240
71327W        W14380   7.767  13.622  23.580 -0.1363 -0.0552  0.0589
71328W        W14381   2.270  24.880   6.149 -0.0699  0.0773 -0.2263
71329W        W14382  32.504  13.985   4.377 -0.2809 -0.2205 -0.1493
71330W        W14383   3.676  19.907   3.696  0.1027 -0.2781  0.4536
71331W        W14384  16.442  12.713   4.253  0.2165 -0.0911  0.2633
71332W        W14385  25.379  19.894  24.432 -0.0729 -0.0961 -0.1498
71333W        W14386   8.802   3.923   8.202  0.0939  0.0340 -0.0208
71334W        W14387  30.069  30.719   5.115 -0.1264 -0.2993  0.2495
71335W        W14388   6.592   6.915  23.633  0.1079  0.1558  0.0621
71336W        W14389  15.872  22.320   6.500  0.1172  0.0869 -0.0601
71337W        W14390  23.169   4.173  19.980 -0.2050 -0.0944  0.1349
71338W        W14391  16.441   8.919   7.525 -0.4240  0.2540 -0.1544
71339W        W14392  28.963  12.338   0.777 -0.1223  0.2052 -0.1994
71340W        W14393  11.525   6.511   7.894  0.2711  0.4149  0.1532
71341W        W14394   4.556  14.923  23.312 -0.0074  0.0019  0.0793
71342W        W14395  15.748  23.985   6.004 -0.0544 -0.0232 -0.1013
71343W        W14396   3.824  13.301   8.599 -0.1253  0.0381  0.2178
71344W        W14397  30.787  19.381   6.982  0.1331 -0.3613 -0.5851
71345W        W14398  11.248   8.485   8.814 -0.3687 -0.1375  0.1208
71346W        W14399   9.112  24.338   4.829 -0.3013 -0.1275 -0.0067
71347W        W14400  31.368   1.164   5.516  0.1792  0.2826 -0.3222
71348W        W14401   7.441  22.661   7.491 -0.0368  0.2010 -0.3344
71349W        W14402  13.628  18.674   3.809 -0.0902 -0.1593 -0.2129
71350W        W14403  20.133  25.328   1.401  0.0496 -0.0091 -0.1288
71351W        W14404  10.882  16.145   7.166 -0.1340 -0.0810  0.0150
71352W        W14405   8.686   8.073  24.504 -0.0104  0.0804 -0.0642
71353W        W14406   1.775   4.476   8.409  0.1807  0.0480  0.0184
71354W        W14407  10.040   2.398  20.342  0.1354 -0.1089  0.0906
71355W        W14408   8.740  11.892   6.877 -0.1658 -0.3451  0.1577
71356W        W14409  21.538  23.971   0.037 -0.1226 -0.0979 -0.2382
71357W        W14410  34.546  11.160   0.475  0.1143  0.1975  0.2842
71358W        W14411  29.959   1.373   9.660  0.0734 -0.0113 -0.0564
71359W        W14412  19.979   9.525   3.647 -0.0454 -0.0878 -0.0593
71360W        W14413   3.226  17.247  24.247  0.0307 -0.0277 -0.1974
71361W        W14414  19.590  27.610   3.830 -0.0849  0.1559 -0.0942
71362W        W14415   1.152   9.041   4.716 -0.0618  0.0444 -0.0360
71363W        W14416   4.494  15.075   7.221 -0.0144  0.3232 -0.3149
71364W        W14417   9.543  17.517   1.096  0.1289 -0.2626 -0.2629
71365W        W14418  32.042   4.499   5.889 -0.2182 -0.0435 -0.3676
71366W        W14419   8.664  18.974  22.315 -0.1290 -0.1768  0.2315
71367W        W14420   9.411  21.273   2.317  0.2633 -0.3727 -0.0116
71368W        W14421  10.476  23.273   3.014 -0.2270  0.2003 -0.0397
71369W        W14422   3.919  13.832   0.500  0.3604 -0.2197  0.0237
71370W        W14423   5.577  19.155   8.338  0.1105  0.0241  0.1097
71371W        W14424  21.016  14.715   2.806 -0.0749  0.0851 -0.0897
71372W        W14425  14.237  30.890   4.427 -0.2273  0.4197 -0.2000
71373W        W14426   6.094  21.121   4.061 -0.1555  0.1224 -0.1494
71374W        W14427  31.410  22.331   6.458  0.0365  0.3588 -0.0508
71375W        W14428  30.602  13.071   9.517  0.0174  0.2905  0.0732
71376W        W14429   6.532  11.735  29.098 -0.0323  0.0780  0.6726
71377W        W14430   5.177  11.005   4.519  0.0439 -0.1508  0.0145
71378W        W14431  34.026   4.265  27.120 -0.0209  0.3807 -0.1916
71379W        W14432  28.207   6.157   8.658 -0.1214 -0.0694  0.2976
71380W        W14433  10.779  17.255   5.056 -0.0788  0.2686  0.0319
71381W        W14434  30.827  28.759  29.188  0.2726 -0.3138  0.0302
71382W        W14435  33.653  11.119   3.548  0.0585 -0.0949 -0.1679
71383W        W14436   1.168  22.505   3.631 -0.0228 -0.1330 -0.1699
71384W        W14437   5.038   5.472   3.378 -0.0165 -0.1276  0.1526
71385W        W14438  11.837  18.304   0.156 -0.1912  0.2025 -0.1664
71386W        W14439   4.997  14.078  20.289  0.0358 -0.0294  0.0730
71387W        W14440   0.012  15.181   4.993  0.0703 -0.0210  0.0763
71388W        W14441  18.414  26.986  28.557 -0.0325 -0.1878  0.2276
71389W        W14442   5.146  21.741  17.564 -0.0763  0.1183  0.4291
71390W        W14443  17.310   8.072  10.241  0.1133 -0.1344 -0.0107
71391W        W14444  34.338   6.308   4.105  0.3003 -0.0193 -0.1131
71392W        W14445  29.450  19.659   1.258  0.2656  0.1093  0.1517
71393W        W14446   9.842   8.200   6.938 -0.0115 -0.0916  0.0412
71394W        W14447  14.905  34.010  10.233  0.1536  0.2038  0.0008
71395W        W14448  16.270   5.907  25.733 -0.5000 -0.0962  0.0943
71396W        W14449   5.607   8.303   0.132  0.0542 -0.1997 -0.1273
71397W        W14450  16.958  13.449  27.891 -0.0064 -0.0601  0.4622
71398W        W14451   6.398  13.488  10.010  0.4431  0.0488 -0.3258
71399W        W14452  29.708  25.705   6.505  0.0823 -0.0637 -0.0142
71400W        W14453  13.229  16.004   3.396 -0.3779 -0.0159  0.0830
71401W        W14454  27.473  20.002   3.610 -0.1489  0.1528  0.0514
71402W        W14455  15.877  20.779  28.741  0.4258 -0.1278  0.2045
71403W        W14456  12.248  15.244   5.018 -0.1516  0.1743  0.0988
71404W        W14457  34.629  29.195  25.725 -0.0380  0.1159 -0.1966
71405W        W14458  31.413  10.121   2.955 -0.2283 -0.2114  0.3347
71406W        W14459   2.996  18.578   6.061 -0.0371 -0.0876  0.0862
71407W        W14460  12.225   4.299   0.864  0.0180 -0.0795  0.1138
71408W        W14461  11.095  26.490   6.120 -0.2735 -0.1832 -0.0930
71409W        W14462   9.138  16.873   4.397  0.0647  0.0294  0.1628
71410W        W14463  33.243  11.168   9.976  0.0572  0.2134 -0.2002
71411W        W14464  16.705  18.497   6.212 -0.1016 -0.2672  0.0070
71412W        W14465  17.691   9.798  25.896  0.1102  0.1574  0.2731
71413W        W14466   7.527  34.466  26.402  0.0362  0.0987 -0.2217
71414W        W14467  13.445   5.762   7.319  0.1340 -0.2655  0.0865
71415W        W14468  23.467  12.404   9.267 -0.1938  0.0900  0.2218
71416W        W14469   4.589   0.780  10.235  0.1051 -0.0605 -0.4053
71417W        W14470  17.048  19.375  22.625 -0.1460 -0.0997 -0.2566
71418W        W14471  23.740  32.956   5.274  0.1015 -0.1018 -0.2551
71419W        W14472   1.312  13.900   8.097  0.3420 -0.2085  0.0053
71420W        W14473  25.282  18.855   5.840  0.0930  0.2845  0.0422
71421W        W14474   9.962  22.519   2.063 -0.2904  0.3484 -0.0971
71422W        W14475  32.627  19.763   2.603  0.1614 -0.1252 -0.1072
71423W        W14476  12.944  19.255   8.391 -0.1916 -0.2125  0.6050
71424W        W14477  15.375  14.999  28.842  0.0259  0.1781 -0.4471
71425W        W14478   7.440   4.802   8.195  0.0466  0.5433 -0.0341
71426W        W14479   7.494   9.045   9.096 -0.2163  0.3237 -0.0214
71427W        W14480   3.716  16.451   8.360  0.0493  0.0317  0.2494
71428W        W14481  28.222  19.492   9.838  0.1968 -0.1413  0.2882
71429W        W14482  11.313   6.630   8.610 -0.1648  0.1742 -0.1011
71430W        W14483   4.598  26.777  27.807 -0.1282  0.2305  0.0292
71431W        W14484  31.692  25.655  21.883 -0.0131  0.0588  0.2218
71432W        W14485  29.069   6.773   2.648 -0.0798  0.1006  0.0420
71433W        W14486   2.969  24.714   4.608 -0.3527  0.1280  0.1294
71434W        W14487  18.475  21.518   2.325  0.1528  0.0193  0.1574
71435W        W14488  30.601  19.887  22.569 -0.1849  0.1381 -0.0423
71436W        W14489   2.377  14.258  22.426  0.1360  0.2453  0.1069
71437W        W14490  33.485   8.333   5.061 -0.1801 -0.0084  0.0829
71438W        W14491   0.663  10.126  10.745  0.1398 -0.1080 -0.2052
71439W        W14492   0.963  22.810   1.430  0.1350 -0.0349  0.0305
71440W        W14493   6.557  15.810   6.061  0.3488 -0.0847  0.0703
71441W        W14494   2.665  31.257   2.560  0.0741 -0.3055  0.1273
71442W        W14495   5.407  29.789   6.286 -0.0797  0.0723  0.2765
71443W        W14496  30.805   3.186   2.736 -0.0675  0.1941  0.2347
71444W        W14497  12.048  10.126   3.685  0.7283 -0.1665  0.2084
71445W        W14498  10.858  19.452   0.716 -0.0349 -0.4450 -0.2656
71446W        W14499  33.714  14.368   8.545 -0.0541  0.0985 -0.2817
71447W        W14500   1.939  20.295   2.441 -0.0301 -0.1327 -0.1849
71448W        W14501  10.668  26.243   2.313  0.3146 -0.0638  0.1361
71449W        W14502   9.316  17.559  28.377 -0.2472  0.3213  0.1315
71450W        W14503  20.574  18.148   3.086  0.1280 -0.0779 -0.0698
71451W        W14504  33.491  11.010  28.042  0.0566 -0.1794  0.0236
71452W        W14505  22.467  21.805  28.230  0.2162  0.0517 -0.2287
71453W        W14506  14.706  18.104  27.741  0.0272 -0.0322  0.0589
71454W        W14507  33.982  29.756   7.098 -0.1264 -0.1554 -0.2944
71455W        W14508  16.908  14.798   8.423 -0.3282 -0.4365  0.0210
71456W        W14509  27.127  16.776  25.574 -0.1170 -0.5495 -0.1501
71457W        W14510   7.194  21.044  24.995  0.2496 -0.1445  0.1310
71458W        W14511  12.962   7.433  19.348  0.0885  0.0178 -0.0732
71459W        W14512  27.030   6.110   6.561  0.2606  0.3514  0.1793
71460W        W14513  13.184  14.332  29.038 -0.0783  0.1081 -0.0815
71461W        W14514   1.836  13.979   4.605 -0.1812  0.0765 -0.1293
71462W        W14515  10.489   6.150  10.868  0.1267 -0.0537 -0.1552
71463W        W14516  17.815  13.626   4.085 -0.0509  0.0747 -0.1631
71464W        W14517  14.006  12.417   7.760 -0.0815 -0.0350  0.0726
71465W        W14518  34.364  14.244   2.043 -0.1784  0.0020 -0.3453
71466W        W14519  10.791  12.794   1.556  0.0356 -0.0102 -0.1392
71467W        W14520  30.760  10.655  27.099 -0.1350 -0.0091 -0.1626
71468W        W14521  12.386   1.445   4.045 -0.1295  0.1133  0.0150
71469W        W14522   6.409  11.679  24.335  0.2215  0.1640 -0.0132
71470W        W14523  29.115  11.355   6.252  0.2872  0.5930  0.0312
71471W        W14524   3.433  10.784   8.381  0.1188 -0.2548  0.1280
71472W        W14525   5.021  27.207   2.900 -0.0054 -0.0948  0.0938
71473W        W14526  22.809  15.918   3.303 -0.1310 -0.2284 -0.2020
71474W        W14527   4.125  23.647   4.708  0.1841 -0.0555  0.0011
71475W        W14528   0.033   4.690   8.831 -0.0619 -0.1670  0.1270
71476W        W14529  27.043  13.837   7.054 -0.2635  0.1735 -0.1181
71477W        W14530  29.753  19.137   4.715 -0.2017  0.1191  0.0298
71478W        W14531  33.398   6.385   8.168 -0.6023  0.2397  0.1207
71479W        W14532  10.382  27.903  21.658 -0.0949  0.1186  0.1794
71480W        W14533  10.602  22.680   9.266 -0.2200 -0.0476 -0.0522
71481W        W14534  24.026  15.226   9.915  0.0258  0.0174 -0.1332
71482W        W14535   5.801  23.396   0.139  0.0778  0.2142 -0.1324
71483W        W14536   5.288  31.562   7.192 -0.1066  0.1554  0.0602
71484W        W14537  12.704  10.807  10.056  0.1056 -0.1544  0.0533
71485W        W14538   0.268  16.042   0.484 -0.1482  0.1333 -0.2932
71486W        W14539   7.832   8.423  17.421 -0.0014 -0.0327  0.1079
71487W        W14540   6.276   7.376   7.304 -0.0752 -0.0818  0.0893
71488W        W14541  31.102   7.093  26.815  0.4840  0.0949 -0.1810
71489W        W14542   0.496  12.801   6.843  0.3079 -0.1979 -0.0591
71490W        W14543  30.451  22.170  28.036  0.1159 -0.0237  0.0680
71491W        W14544  13.170  15.279  24.620 -0.3166 -0.0325 -0.0420
71492W        W14545  33.492  23.161   2.289  0.1030 -0.0259  0.1504
71493W        W14546   4.003  17.415   2.465  0.2302 -0.0973  0.0673
71494W        W14547  28.113  24.724   7.697 -0.3082  0.2044  0.0351
71495W        W14548  28.863  14.017   5.537  0.3080 -0.1070 -0.1268
71496W        W14549   1.856  22.792  26.908 -0.3584  0.0311 -0.3199
71497W        W14550  34.382  24.395   7.844 -0.1771 -0.1976  0.0780
71498W        W14551   7.959  31.793   8.606 -0.2373  0.1022  0.0734
71499W        W14552  14.248  24.219   2.210  0.1948  0.1492 -0.1324
71500W        W14553   8.902  33.993   3.754 -0.0228 -0.3287  0.1482
71501W        W14554   8.639  28.750   5.603 -0.2533  0.0413  0.0924
71502W        W14555   1.209  21.024   8.406  0.1677  0.0927 -0.0833
71503W        W14556  12.385   6.492   6.505  0.2601 -0.1463 -0.0427
71504W        W14557   9.029   4.909   7.995  0.1385  0.1136  0.1474
71505W        W14558  33.265  31.547   8.963 -0.0115 -0.0187 -0.4903
71506W        W14559  34.128   6.970   3.714  0.1100 -0.0206  0.2389
71507W        W14560   4.518  12.110  24.444 -0.0227 -0.2130  0.1685
71508W        W14561  14.804  31.452   9.875 -0.3887 -0.0604 -0.3278
71509W        W14562   3.821   5.743  28.765  0.0503 -0.0875  0.0640
71510W        W14563  11.611  24.398   7.552 -0.0279 -0.0685 -0.1511
71511W        W14564   9.225  26.751   2.446 -0.0817  0.0629  0.0526
71512W        W14565   6.453  25.254   2.061  0.2282  0.1481 -0.5389
71513W        W14566  17.641  15.642   3.544 -0.0607  0.1037 -0.2829
71514W        W14567  34.526   8.622  23.116 -0.1845 -0.0386 -0.0310
71515W        W14568   7.412  12.747   2.632  0.0618  0.0303 -0.1872
71516W        W14569   7.378  29.156   3.604 -0.0788 -0.1049 -0.1596
71517W        W14570   1.385  19.806  25.656  0.0628 -0.1327  0.0896
71518W        W14571   5.682  20.227   8.978  0.2595 -0.0258 -0.0847
71519W        W14572  33.689  24.207  24.093 -0.2297  0.0147  0.0687
71520W        W14573  33.503  14.137  27.549 -0.1212  0.2919 -0.3470
71521W        W14574   7.262  11.981   4.925 -0.0530 -0.2746  0.1012
71522W        W14575  12.082  16.528   0.411  0.2157 -0.0989 -0.2116
71523W        W14576  10.712  18.124   3.312  0.0436  0.0404 -0.4592
71524W        W14577  34.652  15.032  28.689  0.2079 -0.0365  0.2613
71525W        W14578  28.454  29.942   0.863  0.1768  0.0037  0.3508
71526W        W14579   0.831  25.417   7.375  0.1092  0.2614  0.0098
71527W        W14580  32.568  10.543   7.169 -0.0651 -0.0892 -0.0489
71528W        W14581  24.241  28.600   1.902 -0.2600  0.0127 -0.4581
71529W        W14582  29.589  17.781   7.422  0.1825  0.0874  0.2509
71530W        W14583  26.232  12.976   1.402  0.1241 -0.2773 -0.4551
71531W        W14584   7.699  16.166  23.760 -0.1551 -0.0337  0.1247
71532W        W14585  26.293  13.377  28.294 -0.0150  0.4902  0.1149
71533W        W14586   5.861  15.659   8.627  0.3404  0.0649 -0.2678
71534W        W14587  26.471  32.677  20.102  0.3549  0.3227 -0.3358
71535W        W14588  24.709  29.894   9.375  0.0699 -0.1567  0.3139
71536W        W14589   9.170  22.106   7.899 -0.1573  0.1433  0.0534
71537W        W14590   2.395  28.766   2.959 -0.3269 -0.0215  0.0342
71538W        W14591  15.507  12.879   8.895  0.1121 -0.1022 -0.0288
71539W        W14592  30.203  11.319   9.969 -0.0714 -0.0504  0.0116
71540W        W14593  18.861  11.429  28.788 -0.1316  0.1656 -0.1619
71541W        W14594  32.145  14.965   5.610 -0.0881  0.2238 -0.2334
71542W        W14595   7.816   7.909   6.139  0.0881 -0.1284  0.1203
71543W        W14596   4.367  25.540   4.332 -0.0111  0.5545 -0.0780
71544W        W14597   3.010  19.081   8.790  0.1759  0.1385  0.0261
71545W        W14598  12.755  29.968   6.207 -0.0850 -0.1006  0.1274
71546W        W14599  31.249  14.791  10.235 -0.1048  0.1718 -0.1413
71547W        W14600  17.082   9.895  25.250 -0.1249  0.1469 -0.0134
71548W        W14601  20.704  18.706   4.777  0.2080  0.1404 -0.0746
71549W        W14602   6.896  10.814  26.096 -0.0113 -0.0352 -0.0324
71550W        W14603  21.720  12.475  26.525  0.0682  0.0736  0.1059
71551W        W14604   2.098  11.720  21.333 -0.1218 -0.2396  0.1537
71552W        W14605   8.956   8.152  27.442 -0.0716 -0.0533 -0.0477
71553W        W14606  30.956  26.396   7.209 -0.2806  0.0336  0.2706
71554W        W14607  17.318  16.626   3.632 -0.3266  0.3799 -0.0223
71555W        W14608  28.192   8.659   5.969  0.2495  0.2473 -0.1203
71556W        W14609  10.610  12.840  10.758 -0.5425 -0.2602 -0.0366
71557W        W14610  22.907  13.804   4.630 -0.0752  0.1486 -0.0102
71558W        W14611  16.103  13.577   7.426 -0.2519  0.1406  0.1928
71559W        W14612  32.585  12.392   7.075 -0.0814  0.0077  0.1428
71560W        W14613  27.503  14.084   5.285  0.3712  0.0671  0.2794
71561W        W14614  13.806  18.546   7.088 -0.0617  0.0173 -0.0044
71562W        W14615   2.852   7.119  21.773 -0.1400 -0.0031 -0.0328
71563W        W14616  11.044  26.047   8.751 -0.0761 -0.1514 -0.1129
71564W        W14617   7.383  12.023   5.842  0.0169  0.1557  0.1175
71565W        W14618  11.855   0.998   2.840 -0.2031  0.0384  0.2028
71566W        W14619  32.234  29.961   4.415 -0.0430 -0.2165 -0.3786
71567W        W14620  11.930  23.939  27.552 -0.0456  0.0408  0.3632
71568W        W14621  14.563  17.884   8.440 -0.0598 -0.2187 -0.0195
71569W        W14622  12.444   7.012   6.788  0.0617  0.0390 -0.1481
71570W        W14623  20.357  15.328  26.928 -0.2714  0.0195  0.3676
71571W        W14624  27.212  17.649   4.633  0.2513 -0.0043  0.2059
71572W        W14625   6.680  13.242   8.577 -0.0295  0.1153  0.1773
71573W        W14626   5.283  19.285  19.937 -0.1088 -0.0105 -0.4068
71574W        W14627   8.349   0.146   4.117 -0.1619 -0.0954 -0.0686
71575W        W14628  12.514   7.198   3.421  0.2437 -0.0876 -0.0824
71576W        W14629   0.073  22.457   8.929 -0.2757  0.1106 -0.2175
71577W        W14630  11.024   8.519   9.621 -0.0240 -0.0649 -0.1419
71578W        W14631  32.513   9.083  22.733  0.2155  0.0872  0.0375
71579W        W14632   6.544  13.191   4.578 -0.0523 -0.1726 -0.1609
71580W        W14633  21.493  20.695   3.576 -0.1682  0.0902  0.0287
71581W        W14634  31.441   6.469  24.964  0.0775  0.0437 -0.1888
71582W        W14635   2.812  23.655  28.795 -0.0308  0.0036  0.1861
71583W        W14636   3.392  23.625  10.227  0.1634 -0.0192 -0.2501
71584W        W14637   2.960  24.155   6.828  0.1141 -0.0341 -0.0776
71585W        W14638   6.927  17.085  26.758  0.0246  0.0523 -0.2160
71586W        W14639  16.802  15.968   5.584 -0.2348  0.0138  0.2646
71587W        W14640   0.434  15.940   0.049 -0.2984 -0.2765 -0.1112
71588W        W14641   1.922  10.703  10.580  0.0040  0.0615  0.0568
71589W        W14642  13.177   9.047   9.397 -0.1700 -0.0954  0.1742
71590W        W14643  31.194  28.771  24.055 -0.0398 -0.2767 -0.1713
71591W        W14644  34.621  14.651  29.148 -0.1662 -0.0176  0.0687
71592W        W14645   5.556   6.004   0.328 -0.2060 -0.3758 -0.0346
71593W        W14646  30.622  14.413  27.265 -0.0353  0.1786  0.2225
71594W        W14647   7.205  20.733  18.435  0.0048  0.3127 -0.0044
71595W        W14648  30.952  22.037   3.778 -0.3230  0.3673 -0.4476
71596W        W14649   6.157  17.224  19.246 -0.0406 -0.1853 -0.0252
71597W        W14650  34.338  22.284  27.367  0.1255 -0.0103  0.0288
71598W        W14651   2.335   2.598   1.344 -0.1725  0.1690 -0.1377
71599W        W14652  33.591  20.927  18.433 -0.1927  0.0407  0.1268
71600W        W14653   5.389  14.860   8.912  0.1411  0.0554 -0.0169
71601W        W14654   8.627  23.327   5.856 -0.0447 -0.0886  0.2350
71602W        W14655  16.477  20.779   0.493 -0.2392 -0.2415  0.1394
71603W        W14656  27.580  14.601   3.387 -0.1653  0.2505  0.0272
71604W        W14657  16.892  24.438   4.479 -0.1008  0.3038 -0.2321
71605W        W14658   9.951   6.232  18.596  0.0683  0.2103 -0.0857
71606W        W14659  30.569  25.788  17.967  0.0512  0.3158 -0.0241
71607W        W14660  14.995  18.880   4.958  0.1110 -0.1377  0.1636
71608W        W14661  33.916  22.141  26.020  0.1356  0.0891  0.2655
71609W        W14662   9.265  22.578  14.098 -0.2118  0.1079  0.1507
71610W        W14663   0.243  10.612   6.491  0.0029 -0.0247 -0.0659
71611W        W14664  29.983  26.083   1.255 -0.2702  0.1680  0.2170
71612W        W14665  13.664  22.598  15.325 -0.1116 -0.2859  0.1000
71613W        W14666   7.465  19.314   7.303 -0.1725  0.2219  0.0778
71614W        W14667  34.496  32.013   3.791 -0.0555  0.0186 -0.0535
71615W        W14668  34.282   8.971  20.151  0.2334 -0.0593 -0.0056
71616W        W14669  28.279  26.759   3.165  0.0278  0.3270 -0.3972
71617W        W14670  20.908   3.064   4.301 -0.1070 -0.0760 -0.0668
71618W        W14671   7.542  15.159   5.681  0.2197 -0.2296  0.1110
71619W        W14672  21.782  21.814   0.875  0.0621  0.1668  0.0584
71620W        W14673   7.400  33.187   7.784 -0.2110  0.1131 -0.0965
71621W        W14674  33.839   4.638  22.498 -0.1594 -0.2885  0.2082
71622W        W14675  30.113  19.970   5.832 -0.2992  0.1061 -0.2701
71623W        W14676  11.623  13.325  18.480  0.0607 -0.0112  0.0926
71624W        W14677   9.654  14.715  27.351  0.1217 -0.1224  0.3630
71625W        W14678   1.157  17.467  29.094  0.1585  0.0103  0.0152
71626W        W14679  12.973   3.710  25.372  0.1371 -0.2808 -0.4283
71627W        W14680   1.712  25.164   7.807  0.1542  0.0778 -0.1327
71628W        W14681  23.375  21.866   2.403  0.1382  0.0945  0.1356
71629W        W14682  27.157   1.843   7.142 -0.0870 -0.1127 -0.2617
71630W        W14683  33.385  33.112  27.902  0.1326  0.0998 -0.1512
71631W        W14684  22.827  20.264   9.706  0.1649  0.1867  0.3876
71632W        W14685   2.291  21.782   7.198  0.1844 -0.0047 -0.1084
71633W        W14686  30.801  22.549   5.769 -0.0322 -0.0047  0.0609
71634W        W14687   3.045  31.961   2.876 -0.0920 -0.0876  0.0597
71635W        W14688  15.722  10.432   5.183  0.2423 -0.0731 -0.0107
71636W        W14689  22.406  19.523  28.156  0.6360  0.0987 -0.1681
71637W        W14690   0.688  19.313  21.811  0.0025 -0.2365 -0.2211
71638W        W14691  25.995  21.679   4.824 -0.2595 -0.0192  0.0442
71639W        W14692  14.790  16.087  22.607 -0.1416 -0.0171 -0.1879
71640W        W14693  13.896  27.223   4.305  0.0152 -0.1319  0.1805
71641W        W14694   4.890   2.458   9.219 -0.1335 -0.2924 -0.3047
71642W        W14695   2.826  15.731  17.142 -0.1383  0.0568  0.2046
71643W        W14696  28.781  13.521   3.758 -0.1513  0.2122  0.1981
71644W        W14697  20.579  14.513   5.380  0.3167  0.1329  0.0803
71645W        W14698  16.881  17.292  27.561 -0.1508 -0.2346  0.1685
71646W        W14699  28.213  24.827   0.704  0.0585  0.0689 -0.1506
71647W        W14700  17.789  16.589   5.059 -0.2624 -0.1560  0.1091
71648W        W14701  30.944  27.910  26.480 -0.1361 -0.0683 -0.0248
71649W        W14702   8.749  18.114   2.777  0.2353  0.0201 -0.3056
71650W        W14703  33.314  29.855  19.691 -0.1427 -0.1523  0.1127
71651W        W14704   5.421  18.562   8.540 -0.0220 -0.2134 -0.5047
71652W        W14705  32.992   2.872   5.532 -0.0576 -0.0447  0.0686
71653W        W14706  23.132  25.478   4.534  0.4671  0.0711  0.1357
71654W        W14707  11.081  26.719   8.275  0.0312  0.0647  0.2993
71655W        W14708  11.927  27.394   1.496  0.2716  0.3739 -0.4259
71656W        W14709  10.017  33.896   3.584 -0.2374 -0.1332 -0.0146
71657W        W14710  11.926  17.070  26.465 -0.0178 -0.0967  0.1051
71658W        W14711   7.562  24.565   5.065 -0.0138 -0.0003  0.0668
71659W        W14712  25.507  10.728   0.971 -0.0239 -0.0652  0.1141
71660W        W14713   0.297  18.972   3.773 -0.2013 -0.0376 -0.1590
71661W        W14714  17.929   4.865   5.900 -0.0127  0.1060 -0.1085
71662W        W14715  33.523   0.799  21.011 -0.0454  0.3036 -0.1675
71663W        W14716  32.615  23.405  27.103  0.0210  0.2974  0.1873
71664W        W14717  20.817  19.082  28.253 -0.2315 -0.2666 -0.2078
71665W        W14718   1.967  28.566   4.866  0.0922  0.2967 -0.2110
71666W        W14719  28.090  16.103  26.882  0.3677 -0.0661  0.2198
71667W        W14720   1.118   0.186  21.862  0.1419  0.0682 -0.0480
71668W        W14721  33.432  22.631   2.258  0.1525 -0.0339  0.0391
71669W        W14722  12.393  19.904  15.928 -0.0885 -0.1746 -0.0254
71670W        W14723  13.425  20.262   5.075  0.1829  0.1146 -0.2109
71671W        W14724   4.742  29.408   7.451 -0.2036 -0.0854  0.1163
71672W        W14725  10.109  20.390   1.444  0.0130 -0.1133  0.1099
71673W        W14726   1.129  30.651  23.491  0.1935 -0.1022  0.0938
71674W        W14727   7.888  12.264  26.032 -0.1014 -0.2754 -0.0291
71675W        W14728   8.993  18.427  17.773 -0.5436 -0.2191 -0.0605
71676W        W14729   8.927  17.151   9.382 -0.1274 -0.1363 -0.3924
71677W        W14730   1.937  23.737   8.041 -0.0859  0.0595 -0.0278
71678W        W14731  15.774  10.474   8.775 -0.1094 -0.2428  0.1282
71679W        W14732  14.284  32.748  27.016  0.0845  0.0384 -0.0395
71680W        W14733  18.434  11.950  20.689 -0.0521 -0.0172 -0.0175
71681W        W14734   6.424  21.730   8.335 -0.0415 -0.2324 -0.3394
71682W        W14735   2.303  27.817   5.468  0.0263 -0.0894  0.0612
71683W        W14736   5.723  33.666  17.181  0.1653 -0.1324 -0.1466
71684W        W14737  11.824  32.854  23.181 -0.0041  0.0408  0.0046
71685W        W14738  17.458  13.841   5.813 -0.0711 -0.3583  0.2107
71686W        W14739  31.666  20.755  19.650 -0.0523  0.0602  0.1929
71687W        W14740  13.978   9.230   4.348  0.0785 -0.2437 -0.3866
71688W        W14741   6.033  14.761  27.117  0.3047  0.1289  0.1076
71689W        W14742  12.098  14.500  22.032  0.1987 -0.0295 -0.1492
71690W        W14743  24.174  22.302  28.025  0.1128  0.1406 -0.0305
71691W        W14744  22.316  11.589   7.667  0.0460 -0.1883  0.0011
71692W        W14745  34.419   8.733   8.349 -0.2905 -0.1053 -0.0085
71693W        W14746  16.283  32.554  16.599 -0.2350 -0.3006 -0.2004
71694W        W14747   4.081   8.630   7.242  0.1648 -0.1270  0.1988
71695W        W14748  32.968   6.681   9.416 -0.1080  0.1773 -0.2773
71696W        W14749   2.377  28.303   6.652  0.2541 -0.3049  0.1361
71697W        W14750  33.992  21.528  13.879 -0.0012 -0.1074 -0.1484
71698W        W14751  34.446  20.414   6.740 -0.2937  0.1923 -0.1692
71699W        W14752   7.241  20.088   0.740 -0.3270  0.1144 -0.4188
71700W        W14753  12.147   3.956  26.353 -0.0319  0.1942 -0.1817
71701W        W14754  33.196  12.296  16.927 -0.0090 -0.2028  0.2797
71702W        W14755  31.268  27.564  15.915 -0.2083 -0.0326 -0.0600
71703W        W14756  25.995  28.203   9.484  0.0538 -0.0776  0.0386
71704W        W14757  14.363  13.693  25.596 -0.0314  0.0694  0.3163
71705W        W14758   3.702  15.636   7.115  0.3717 -0.3195  0.3939
71706W        W14759  17.100   7.370   5.109  0.0998 -0.1247 -0.0971
71707W        W14760  31.041  18.435  21.486  0.0451  0.0241  0.1378
71708W        W14761  24.034  31.911   5.420 -0.0195  0.3086 -0.2098
71709W        W14762  10.285  28.634  26.419 -0.1887  0.0259 -0.2123
71710W        W14763  24.836  15.642  18.937 -0.2370  0.2176  0.0668
71711W        W14764  25.247  11.431  28.263 -0.0488 -0.0986  0.0488
71712W        W14765  33.332   3.480   3.350 -0.1265 -0.0080  0.0138
71713W        W14766  16.071   9.341   2.915 -0.0944  0.3092  0.0614
71714W        W14767   7.659  32.151  24.635 -0.0722  0.0345 -0.2036
71715W        W14768   6.712  22.402   3.618  0.3144  0.1959 -0.2311
71716W        W14769   9.042  23.314  22.454 -0.2815  0.0104 -0.2156
71717W        W14770  31.823   6.226  23.374  0.1528  0.0825 -0.1513
71718W        W14771  29.040  15.766  27.089 -0.2902  0.1063 -0.0073
71719W        W14772  13.067  16.930   1.069 -0.0341  0.0073 -0.1645
71720W        W14773   2.652  15.269   4.451  0.4029  0.1312 -0.3283
71721W        W14774  27.041  18.206   6.470  0.1636 -0.2030 -0.0435
71722W        W14775   4.033  23.853   3.212  0.1209  0.0333 -0.0363
71723W        W14776  10.824  24.969  15.776 -0.1811 -0.3047  0.0198
71724W        W14777   6.141  31.577  20.504  0.1257  0.1933 -0.3252
71725W        W14778  11.232  31.032  20.320 -0.1020  0.0311 -0.1333
71726W        W14779  12.632  19.235  24.305 -0.0699  0.0612 -0.0571
71727W        W14780  11.483  27.888  29.135 -0.0282 -0.1435 -0.5050
71728W        W14781  16.411  30.549   6.340  0.1654  0.4978  0.2242
71729W        W14782  15.661  32.221   8.355  0.3326 -0.1969 -0.0389
71730W        W14783  33.889  31.329   6.628 -0.3113  0.1590  0.0810
71731W        W14784   5.680  13.195   0.799 -0.1395  0.3395  0.2306
71732W        W14785   7.445  26.688  18.069  0.0992  0.0371  0.1485
71733W        W14786   9.721   5.531  28.961 -0.1476 -0.2113  0.2310
71734W        W14787  13.918   0.465   6.663 -0.1212 -0.1244 -0.2019
71735W        W14788  13.144  21.077  18.504 -0.2533 -0.0202  0.0511
71736W        W14789  30.425  13.407   8.421 -0.0215  0.1081  0.1529
71737W        W14790   7.429  30.220  16.784 -0.1892  0.1901 -0.1844
71738W        W14791  28.229  20.577  20.016  0.4096 -0.0856  0.1980
71739W        W14792  23.768  22.748  27.927  0.0774  0.3079  0.0686
71740W        W14793  21.574  23.357  11.120 -0.1767 -0.1404  0.0788
71741W        W14794  28.941  31.765  28.379 -0.1823  0.3175  0.1555
71742W        W14795  15.192  11.364  15.092 -0.2130 -0.1713  0.0298
71743W        W14796  32.634   7.940  22.969  0.2994  0.0203 -0.1234
71744W        W14797  28.334  16.741   4.540 -0.0172 -0.0848 -0.3256
71745W        W14798   7.705  14.148   1.242  0.3667 -0.2918 -0.1571
71746W        W14799  33.816  32.434   5.392  0.0638 -0.0286  0.0183
71747W        W14800   5.563  20.589   7.067  0.1361  0.0897  0.0218
71748W        W14801  32.451   8.251  15.768 -0.1186  0.2887 -0.1752
71749W        W14802  15.269  11.654  24.951 -0.0771  0.1287 -0.2904
71750W        W14803  12.219  26.558  14.763 -0.0229  0.0323  0.0071
71751W        W14804  32.684  11.141  22.966 -0.0923  0.1863 -0.2725
71752W        W14805   7.939  29.783   4.811  0.0531 -0.2066  0.0593
71753W        W14806  34.374  13.184   9.559 -0.0182  0.0419  0.1299
71754W        W14807   1.287  20.213   7.335  0.1300 -0.2068 -0.0876
71755W        W14808   6.792   1.464  22.294  0.2145  0.2259 -0.2088
71756W        W14809  23.325  19.166  26.807  0.1926 -0.3098 -0.0013
71757W        W14810   0.349  14.748   8.939 -0.0775  0.0270  0.1385
71758W        W14811   4.520  19.314   7.626 -0.2789  0.2980  0.1119
71759W        W14812  28.496   8.676  19.215 -0.0109 -0.1178 -0.1817
71760W        W14813  33.528  27.370   8.633  0.1323  0.3034  0.2104
71761W        W14814  29.357   7.148  28.119  0.2099 -0.1064 -0.1239
71762W        W14815   1.937  20.733   6.168 -0.0474 -0.1848  0.0986
71763W        W14816  23.634  14.814  25.852  0.4158  0.1399  0.1783
71764W        W14817   6.407   3.556  24.032  0.2049 -0.0287  0.1159
71765W        W14818  33.881  20.601   6.148 -0.3017  0.2174 -0.0042
71766W        W14819  27.030   6.504   4.814  0.0881 -0.1198 -0.0036
71767W        W14820  34.380  18.032  28.711  0.0639  0.0149  0.0078
71768W        W14821  23.552   7.207   0.848  0.1129 -0.0075  0.0537
71769W        W14822   5.547  19.272   0.660 -0.4309  0.0512  0.2149
71770W        W14823  28.702   4.262   3.212 -0.2898 -0.0543  0.2099
71771W        W14824  31.234  24.454   1.836 -0.1602  0.2389  0.0921
71772W        W14825  12.142  16.726   0.880  0.1083 -0.0246  0.2519
71773W        W14826  11.697  32.920   7.150 -0.4179  0.0366 -0.0108
71774W        W14827   4.617   7.186   6.504  0.0804  0.0401 -0.1020
71775W        W14828   2.205  28.717   6.441 -0.1058 -0.0079 -0.0303
71776W        W14829  28.493   2.361   2.284 -0.1298  0.0895 -0.3165
71777W        W14830   0.216  23.174   2.484  0.0528  0.2383  0.2089
71778W        W14831  27.382   8.696  19.009  0.0910  0.0942 -0.2486
71779W        W14832  16.987  22.304  22.350 -0.0672  0.1006 -0.3384
71780W        W14833  28.129  15.070   5.893  0.1040 -0.0931 -0.0716
71781W        W14834  34.569  25.954  23.958  0.2687  0.0460 -0.1867
71782W        W14835  33.837  22.113   5.411  0.0447 -0.1171  0.1971
71783W        W14836   7.304  24.059   6.065 -0.0727 -0.0143 -0.0162
71784W        W14837   6.849   1.805   6.517  0.0096  0.2995  0.1194
71785W        W14838  31.039  22.952  27.710  0.3937  0.4120 -0.0038
71786W        W14839  27.802  12.917   1.449  0.2140 -0.0324  0.0955
71787W        W14840  24.898  14.155  22.819 -0.3598 -0.0269 -0.0284
71788W        W14841  33.374  18.939   2.781 -0.0048  0.0659 -0.1005
71789W        W14842   3.421  27.550  28.384  0.0306 -0.0208 -0.2505
71790W        W14843  16.547  16.579  24.216 -0.1428  0.0294  0.1746
71791W        W14844   5.537  22.649  14.816 -0.2467  0.1056 -0.0342
71792W        W14845   5.372  28.912  29.190 -0.0253 -0.4315  0.0437
71793W        W14846  13.596  18.447  20.554 -0.0578 -0.2039  0.1113
71794W        W14847  34.687   8.350   4.049  0.2261  0.3589  0.1028
71795W        W14848  33.323   4.859  25.063  0.2787 -0.1033  0.0974
71796W        W14849  28.334  25.868  16.179  0.1608 -0.0925  0.2965
71797W        W14850   0.531   4.161  21.465 -0.0557  0.2530  0.0259
71798W        W14851  31.140  12.649  22.799 -0.1669  0.0761 -0.1673
71799W        W14852  15.609  14.566  27.623  0.2349  0.2364  0.0360
71800W        W14853   6.240  12.707   1.007 -0.0073  0.2242 -0.0366
71801W        W14854  32.667  15.575  10.182 -0.3455 -0.2063  0.0076
71802W        W14855   6.573  11.778   9.506  0.1131  0.1555 -0.1619
71803W        W14856  15.052  25.817  19.737 -0.0749 -0.2657  0.1430
71804W        W14857   4.088  21.699  23.167  0.2001  0.2624  0.1723
71805W        W14858  12.575  16.627   0.079  0.0276 -0.0422  0.0732
71806W        W14859   1.591  25.771  20.846 -0.3139  0.0530  0.1070
71807W        W14860  14.973  17.001  14.799  0.0782  0.0124  0.0984
71808W        W14861  16.490  13.344   5.927  0.1770  0.0015  0.0140
71809W        W14862  33.674  14.945   2.128 -0.1933  0.2467  0.0040
71810W        W14863  21.225  14.406  13.204  0.2152  0.0708  0.5480
71811W        W14864   2.868  21.831  27.079 -0.0359 -0.2359 -0.1516
71812W        W14865  21.174   3.563   5.699  0.0209 -0.2148 -0.1099
71813W        W14866  32.811  19.249  24.343  0.2039 -0.0710  0.0822
71814W        W14867   9.960  19.989  26.218 -0.1401  0.1286  0.0285
71815W        W14868  31.128  25.257  23.291 -0.2013 -0.3891  0.1874
71816W        W14869  28.741   2.506  21.824 -0.1521  0.2716 -0.2479
71817W        W14870  13.705  16.239  22.765 -0.1114 -0.0228 -0.1444
71818W        W14871   1.362  32.205  21.358  0.1766  0.4509 -0.0037
71819W        W14872   1.813  34.031   4.112 -0.1146 -0.0505  0.0023
71820W        W14873   2.820  29.972  15.268  0.1615 -0.3039 -0.0170
71821W        W14874  31.338  23.262   8.031  0.1509  0.2747 -0.1992
71822W        W14875   8.138   3.644   5.439 -0.1414  0.1064  0.1843
71823W        W14876  15.244  23.486   4.401  0.1204  0.4724 -0.0882
71824W        W14877  32.433  32.973   8.846 -0.1102  0.0056  0.0247
71825W        W14878  32.738   9.470   6.164 -0.1942 -0.0184 -0.4412
71826W        W14879  16.078  18.412   7.789 -0.2546  0.1537  0.1393
71827W        W14880  21.203  17.076  23.543 -0.3411 -0.2014 -0.0022
71828W        W14881   7.277  16.672   4.792  0.1271  0.5842  0.2228
71829W        W14882  27.054  29.869  27.278  0.2863 -0.0872  0.1946
71830W        W14883   9.701  28.982  22.111 -0.1041 -0.0467  0.2690
71831W        W14884   0.284  28.548  22.298 -0.2666 -0.4527 -0.1431
71832W        W14885   6.385  18.329   5.712 -0.4004 -0.0359  0.1965
71833W        W14886   4.301  22.886  14.138  0.2125 -0.0165  0.0827
71834W        W14887  33.509  30.953  20.267  0.5614 -0.0118 -0.0488
71835W        W14888  18.963  10.200  20.457 -0.1229 -0.1101 -0.0409
71836W        W14889  27.853  20.968   0.308  0.0656 -0.2816 -0.0102
71837W        W14890  22.919  30.650  27.748 -0.2298 -0.1751  0.2169
71838W        W14891   5.838  28.786   7.207 -0.2095 -0.0851 -0.1856
71839W        W14892  23.206  22.043   3.299  0.2712 -0.0178 -0.0564
71840W        W14893  12.714   5.336  24.706  0.0695 -0.0656  0.2414
71841W        W14894   9.753  14.103   3.534 -0.0216  0.0281 -0.0738
71842W        W14895   5.320   1.109   6.523  0.0192  0.3982  0.2920
71843W        W14896   7.981  13.677   1.207 -0.2610  0.1435  0.2421
71844W        W14897   1.380  14.475   5.931 -0.0731 -0.0675 -0.0205
71845W        W14898  27.273  10.061  20.171  0.0385 -0.0494  0.0181
71846W        W14899  16.623   1.177  28.499  0.0889  0.1835  0.0269
71847W        W14900  27.538  20.411   4.299  0.3492 -0.0536  0.1335
71848W        W14901   3.310  17.513  27.530 -0.1925  0.2450  0.1261
71849W        W14902   3.345  25.423   4.349  0.1862  0.2060 -0.0316
71850W        W14903   0.009  22.298   9.363 -0.1410  0.2089  0.3218
71851W        W14904   4.092  13.806  28.795  0.0108  0.3587 -0.0882
71852W        W14905  31.742  15.221  21.767  0.1955 -0.1063  0.1034
71853W        W14906  29.368   3.673  26.049  0.1309  0.1794 -0.0387
71854W        W14907  22.432  17.530  25.195 -0.0635 -0.3949  0.1856
71855W        W14908   4.817  16.868   1.782 -0.0289 -0.1119 -0.0565
71856W        W14909  13.498  21.225   9.490 -0.0415 -0.0608  0.0638
71857W        W14910   4.246   5.851  19.776 -0.3020  0.0524  0.0884
71858W        W14911  34.019  29.033   8.663 -0.2371  0.1465  0.1342
71859W        W14912   0.175  34.474  15.529 -0.4124 -0.5011  0.0912
71860W        W14913   2.538  17.276  22.596  0.2876  0.1524 -0.1840
71861W        W14914   4.842  23.333  20.555  0.2176  0.1120  0.1930
71862W        W14915   6.398  31.097  21.481  0.0704  0.0722 -0.2598
71863W        W14916   1.350   8.736  14.029  0.1848 -0.3052 -0.0356
71864W        W14917   2.938  29.325   9.514 -0.2357  0.1577 -0.0104
71865W        W14918   1.756  11.085  10.175  0.1621 -0.3883  0.0581
71866W        W14919  12.370  12.710   2.588 -0.0827 -0.1768  0.1620
71867W        W14920  19.182  15.775  12.795 -0.4167  0.0082  0.1262
71868W        W14921  31.658  27.736   3.471  0.0525  0.1815 -0.0251
71869W        W14922   4.555  27.410   9.125 -0.0228  0.3770 -0.2024
71870W        W14923  21.001  29.566  25.791  0.0730 -0.2117 -0.1388
71871W        W14924  25.250  33.579   2.849  0.0984  0.3407 -0.1109
71872W        W14925   3.211  32.065  17.932  0.0386  0.2904  0.0146
71873W        W14926  25.450  31.616   4.703 -0.0231 -0.0452  0.0217
71874W        W14927   3.971  17.949  18.055 -0.0364 -0.0200  0.0351
71875W        W14928   5.689   2.391  10.180  0.2586  0.2195  0.0829
71876W        W14929  24.327  27.331   2.472  0.4636 -0.1270  0.0876
71877W        W14930   5.014  11.724  26.764  0.0523 -0.1491  0.1723
71878W        W14931  28.850   5.473  18.773 -0.0393 -0.0841 -0.0551
71879W        W14932   9.643   8.529  10.896  0.0559 -0.1985 -0.1182
71880W        W14933   4.190  26.082   8.800  0.2476 -0.1654 -0.0345
71881W        W14934  13.969  26.500   0.569 -0.3068  0.1888 -0.2745
71882W        W14935  30.125  19.285   7.582 -0.3558  0.0340 -0.1327
71883W        W14936   8.192  24.367  28.993  0.0365 -0.3013  0.1148
71884W        W14937   7.379  30.709  27.778  0.0891  0.5161  0.5106
71885W        W14938   4.567   2.982  17.702  0.1889 -0.1521  0.0004
71886W        W14939   9.410  12.430  24.761  0.0594 -0.1789 -0.0386
71887W        W14940   1.665  13.413   8.032  0.0888  0.1441 -0.1940
71888W        W14941   4.436  17.754   8.729  0.0879  0.1902 -0.1410
71889W        W14942  16.141  33.524  26.611  0.3133 -0.2248  0.0428
71890W        W14943   2.721  12.022  22.206 -0.4547  0.0223  0.1541
71891W        W14944  12.384  21.351   1.291 -0.1119 -0.1649  0.0031
71892W        W14945  21.417  25.896  18.094 -0.2443  0.3540 -0.0545
71893W        W14946  32.769  27.813   6.781 -0.0247  0.0990  0.0355
71894W        W14947  12.394  23.393   3.554  0.2353  0.1938 -0.2482
71895W        W14948  10.241  31.503   0.331 -0.1086  0.0990  0.0997
71896W        W14949   5.149   3.295   7.462  0.1339 -0.1277 -0.2053
71897W        W14950   1.797  29.641   7.665 -0.0078  0.1230 -0.0302
71898W        W14951  32.407  20.218  13.705  0.2523  0.1029  0.1130
71899W        W14952   9.474  23.309   7.016 -0.2222  0.0136  0.2790
71900W        W14953   4.334  21.959   8.545  0.4562 -0.1122 -0.3006
71901W        W14954  12.211  27.190  13.835 -0.1473 -0.1070 -0.2018
71902W        W14955   3.746   6.386   4.171 -0.1134 -0.2002 -0.2126
71903W        W14956  10.282  28.484  20.807 -0.2534 -0.3842  0.0948
71904W        W14957  15.099  31.262   1.830 -0.1736  0.1532  0.2816
71905W        W14958  32.643  32.813  23.419 -0.0573 -0.0738 -0.1646
71906W        W14959   8.484  33.926  10.440 -0.0585 -0.2419  0.1217
71907W        W14960  30.245   0.715   3.842  0.1322 -0.1233  0.0074
71908W        W14961   5.490  18.199   8.966 -0.0495  0.0928  0.0542
71909W        W14962  10.994   6.116  10.707 -0.0470 -0.0208  0.0822
71910W        W14963  32.526  29.187   2.031  0.1650  0.1151  0.1058
71911W        W14964  10.671  17.340   1.061 -0.3518  0.0286  0.0500
71912W        W14965   6.049  32.973  25.229 -0.0160 -0.1529  0.1938
71913W        W14966   2.568  17.315   1.071  0.0209  0.1227  0.1940
71914W        W14967   4.171   3.594  28.056 -0.1595  0.1786  0.2937
71915W        W14968  16.190  12.545   6.241 -0.0938 -0.2019  0.5026
71916W        W14969   0.293  10.224   0.038  0.0051  0.0315  0.2306
71917W        W14970   4.528  20.245  27.721 -0.0722 -0.0140  0.1897
71918W        W14971  31.897  31.253  28.614 -0.1854 -0.2177  0.2553
71919W        W14972   5.703  11.728  19.765  0.0518 -0.0067  0.1804
71920W        W14973   5.545  25.036   2.637 -0.4179 -0.0348 -0.0087
71921W        W14974  20.236   7.055  17.189  0.1699  0.0108  0.2240
71922W        W14975  24.966  25.583   7.851 -0.0071  0.0557  0.3175
71923W        W14976   4.155  30.077   5.151 -0.2046 -0.1087  0.2439
71924W        W14977  31.375   1.584  27.163 -0.1663 -0.0857 -0.2051
71925W        W14978  20.297   8.656   9.956 -0.1421 -0.1617  0.1153
71926W        W14979   1.408  28.777   8.799  0.1124 -0.0645 -0.0987
71927W        W14980  23.514  22.340   3.029  0.2137 -0.2873 -0.4339
71928W        W14981  20.399  25.229  21.498  0.2365 -0.0479  0.1885
71929W        W14982  19.465  12.510  28.407  0.1754 -0.1425 -0.0146
71930W        W14983   8.012   0.496   9.424  0.1791  0.0681  0.0547
71931W        W14984  28.817  12.847   3.464  0.2790 -0.1605  0.1045
71932W        W14985  31.750   1.628   3.464 -0.0744 -0.2294  0.0249
71933W        W14986  34.602  22.801  27.475 -0.0344 -0.0520 -0.0051
71934W        W14987   2.768  25.009   9.476  0.1864 -0.1429 -0.2726
71935W        W14988  17.088  28.550  20.671  0.0869  0.1698  0.1033
71936W        W14989  14.351   3.520  17.921  0.4007 -0.0541  0.1300
71937W        W14990   9.302  22.502   8.442  0.3187 -0.0188 -0.1045
71938W        W14991   1.863  13.818   6.627 -0.1685 -0.0164 -0.1185
71939W        W14992   0.729  31.263  26.886  0.1844  0.1229 -0.4849
71940W        W14993  24.150  24.361  29.011  0.2505  0.0576  0.1383
71941W        W14994  28.320  16.626  28.881  0.2480  0.1111  0.1687
71942W        W14995  22.892  14.268   4.722 -0.0445 -0.5134  0.1577
71943W        W14996  30.420  15.603   0.269 -0.3231  0.0611 -0.2859
71944W        W14997   4.933   4.839   7.881  0.0185  0.1338  0.0877
71945W        W14998  33.800  19.490  26.785  0.3257  0.1790 -0.1945
71946W        W14999  29.791  28.487  29.189  0.1379 -0.0118 -0.0256
71947W        W15000   2.406  21.629   3.753  0.0671  0.1984  0.0850
71948W        W15001  11.778  23.841  16.390  0.0444 -0.0453 -0.5199
71949W        W15002  33.272  26.139  25.433  0.2145 -0.1355  0.2624
71950W        W15003   7.701  23.676  15.841 -0.1513  0.1726  0.0263
71951W        W15004  14.178  17.180  27.089  0.1998  0.1260  0.1175
71952W        W15005  34.558  14.143  28.332 -0.0618 -0.0757  0.1758
71953W        W15006   7.114  23.437   4.225 -0.1542 -0.0087 -0.2519
71954W        W15007  30.756  17.236  24.059  0.0556 -0.0531 -0.1058
71955W        W15008   4.014   5.897  28.089 -0.1132 -0.1256 -0.0605
71956W        W15009   8.237  10.887  14.062  0.3491 -0.1755  0.1240
71957W        W15010   6.313   8.378  23.674  0.2104  0.0124  0.0446
71958W        W15011  27.470   9.238   5.459  0.0047  0.0114  0.1342
71959W        W15012  24.953  29.592  28.977 -0.1950  0.0208  0.0003
71960W        W15013  11.215  20.682  20.559  0.1192 -0.3212  0.2506
71961W        W15014  21.392  25.199  27.491  0.0252  0.3570 -0.2748
71962W        W15015  30.793  19.392   9.295  0.0246 -0.0440 -0.1429
71963W        W15016  19.033  21.419   5.549  0.1813  0.1134 -0.1028
71964W        W15017   2.191   8.416  23.255 -0.1755  0.0899 -0.3365
71965W        W15018   4.695  26.990  24.160  0.1086  0.0332 -0.0686
71966W        W15019  18.936   9.485   2.888 -0.2255  0.1978  0.0348
71967W        W15020   6.447  20.999   3.784 -0.1064  0.1617  0.2260
71968W        W15021  34.051  19.176   5.411 -0.1540  0.2655  0.0915
71969W        W15022   0.064  28.564  19.726 -0.0360 -0.2251  0.1332
71970W        W15023   2.869  25.206  27.915  0.1361  0.0273  0.3768
71971W        W15024   0.533  27.434   8.906 -0.3134 -0.3373  0.2474
71972W        W15025  28.951   9.677  23.863 -0.0431 -0.0727 -0.0223
71973W        W15026  12.004  16.336   4.703 -0.2371 -0.1642  0.0468
71974W        W15027   4.921  23.511  18.030 -0.2220  0.1132 -0.1676
71975W        W15028   4.881  14.630   7.670 -0.0196 -0.0345 -0.1302
71976W        W15029   1.581   0.527  25.917  0.3827 -0.2848 -0.2133
71977W        W15030  19.677  25.125  20.346 -0.1012 -0.2506 -0.0333
71978W        W15031  21.865  26.507  19.594 -0.0115  0.1332  0.1289
71979W        W15032   9.133   2.079   4.779  0.0843 -0.0251  0.0745
71980W        W15033   3.399  20.754   9.188  0.1669  0.0159 -0.0365
71981W        W15034  16.392  17.100   0.189 -0.1813  0.1212 -0.0452
71982W        W15035  31.477  25.750   8.682  0.1713 -0.2888  0.0215
71983W        W15036  32.851   2.429   4.432 -0.0958 -0.2568 -0.3555
71984W        W15037  29.739  30.376  15.155 -0.0289  0.1315 -0.2824
71985W        W15038   6.150  16.917  24.689 -0.0560  0.1396 -0.2278
71986W        W15039   2.299   9.515   6.164  0.0277  0.1142  0.0749
71987W        W15040   0.543   6.951  17.788  0.1287 -0.0837 -0.1610
71988W        W15041  23.832  31.855   5.891 -0.3222  0.1667 -0.1518
71989W        W15042  27.174  21.040  23.452 -0.2311  0.4086  0.3180
71990W        W15043  30.363  28.591   1.327  0.0124 -0.1204 -0.0795
71991W        W15044   9.290   9.653  26.357 -0.3248  0.0393 -0.1041
71992W        W15045   3.544  30.684  24.217 -0.1338 -0.1107  0.0712
71993W        W15046  17.239  22.554   2.191 -0.0385  0.0005  0.0947
71994W        W15047  12.622  24.048  28.028  0.3529 -0.0072  0.3808
71995W        W15048  19.025  13.439  26.353 -0.2706  0.0740  0.2546
71996W        W15049  18.631  17.937   1.173  0.4161 -0.0081  0.1007
71997W        W15050   3.958  27.609  29.074  0.2451  0.1427 -0.2417
71998W        W15051   3.953  17.306  22.619  0.2305  0.1288  0.0968
71999W        W15052   7.507   0.588  27.847  0.1423 -0.2071  0.1744
72000W        W15053   8.985   5.975   9.154  0.0847 -0.0001 -0.0129
72001W        W15054  18.329  19.142  25.841  0.3260 -0.0050 -0.3363
72002W        W15055  10.671   9.689  10.931 -0.2312  0.0860 -0.3226
72003W        W15056   9.010  28.602   7.208  0.2075 -0.0028  0.0830
72004W        W15057   7.567   1.140  24.259  0.1017  0.0253  0.1429
72005W        W15058  32.327  33.324  28.938 -0.2004 -0.0158 -0.4340
72006W        W15059  13.351  11.600  24.561 -0.1035  0.2026 -0.2127
72007W        W15060  22.974   5.880  22.932  0.0793 -0.0698  0.0164
72008W        W15061  32.158  15.354  26.552 -0.2285 -0.2054 -0.2256
72009W        W15062  33.123  14.224  28.796  0.2147 -0.0173  0.0506
72010W        W15063   0.209  21.303   6.570  0.4170 -0.1592 -0.2117
72011W        W15064  17.438  20.652  28.201  0.0086 -0.1670 -0.1185
72012W        W15065  12.106  24.275   6.815  0.1627 -0.1472 -0.0213
72013W        W15066   8.355  19.139   3.990  0.3126 -0.1440 -0.0213
72014W        W15067  12.358  14.119  21.800  0.1466  0.2120 -0.1346
72015W        W15068  21.818   6.579  23.888  0.2642 -0.2572 -0.1930
72016W        W15069  29.913  10.626   0.122 -0.0284 -0.2146 -0.1287
72017W        W15070  28.264  14.038   8.777 -0.1279 -0.0564  0.1561
72018W        W15071  14.918  17.674   6.509  0.0706  0.1537  0.0273
72019W        W15072  26.208  31.941   2.782 -0.1652 -0.0096 -0.0339
72020W        W15073   9.012  14.403   5.321  0.0959  0.0230  0.1388
72021W        W15074   5.545   4.684   9.983  0.4087  0.0770 -0.2220
72022W        W15075  30.892  19.645   3.394 -0.4442 -0.1509  0.2509
72023W        W15076   1.852  27.209   7.482 -0.0789  0.2107 -0.0583
72024W        W15077   2.233  15.309   8.866  0.0160 -0.1502 -0.1122
72025W        W15078   0.433   7.169   9.047  0.2945 -0.3315  0.3282
72026W        W15079  34.612  24.456  26.871  0.0087  0.0459  0.1364
72027W        W15080  30.913  10.552  28.783 -0.1783 -0.0168  0.2245
72028W        W15081   1.199   7.226  28.258 -0.0689 -0.2167  0.0382
72029W        W15082   0.647  21.103   6.797  0.0584  0.0020  0.3739
72030W        W15083   8.388  15.498   1.682  0.0485  0.0560  0.3385
72031W        W15084  18.033  13.232   4.406 -0.1257  0.2227  0.1631
72032W        W15085   7.405  10.518   6.517  0.1068 -0.1644 -0.0065
72033W        W15086  33.640   0.642  16.813  0.2176  0.1851  0.3507
72034W        W15087   0.963  12.757   8.017 -0.1141  0.1947  0.3054
72035W        W15088  11.911  22.522  28.378 -0.0936  0.0943 -0.2605
72036W        W15089   7.111  19.747   5.722 -0.0509  0.1044  0.3154
72037W        W15090   5.408  23.969  26.340 -0.0314  0.1367  0.0404
72038W        W15091   3.860   7.966   4.736  0.0978 -0.3146  0.4975
72039W        W15092  22.642  24.770  21.760 -0.1749 -0.2502 -0.1574
72040W        W15093   9.849  27.762   8.082  0.1434 -0.0612  0.0923
72041W        W15094   1.799   9.057  26.846 -0.0201 -0.1781  0.2426
72042W        W15095   0.239  24.148   8.638  0.1225 -0.2762  0.1099
72043W        W15096  24.856  17.071   9.591 -0.0480  0.1906 -0.3542
72044W        W15097   6.094  17.109   3.815 -0.0873  0.0880  0.1516
72045W        W15098   8.075  14.570  25.568  0.2084  0.2680  0.0036
72046W        W15099   7.099   3.650   1.459 -0.0348  0.1003  0.0489
72047W        W15100   1.405  15.212   2.704 -0.0152 -0.0550 -0.2071
72048W        W15101   8.191  22.014  17.185  0.1119 -0.0332  0.0426
72049W        W15102  29.457  13.528  10.478 -0.1451 -0.3834  0.0242
72050W        W15103  31.124  34.277  15.100  0.0047 -0.0690 -0.0117
72051W        W15104  28.728  19.848   1.554 -0.1460  0.0254  0.0404
72052W        W15105  10.983   0.113  28.880 -0.0603  0.1125 -0.1241
72053W        W15106  22.725  18.536   1.695  0.0943 -0.2533  0.0509
72054W        W15107  10.834  22.130  28.246 -0.3173  0.1236  0.0030
72055W        W15108  33.881  22.668   9.035  0.1222 -0.3334 -0.0768
72056W        W15109  27.179  18.261  26.024  0.0475 -0.0941  0.0604
72057W        W15110   7.575  12.177   1.447 -0.1129 -0.0542  0.1270
72058W        W15111   7.348  18.274  24.968  0.1676  0.1941  0.0253
72059W        W15112   2.148  31.349   4.755  0.1919  0.4538  0.1858
72060W        W15113  32.063  33.823  24.293 -0.0416  0.2998  0.2045
72061W        W15114  33.046  12.317   9.576 -0.0540  0.2113  0.1776
72062W        W15115  12.446  24.339   1.964 -0.0060 -0.0501 -0.0407
72063W        W15116   9.082   9.350  17.196 -0.3612  0.0715  0.2338
72064W        W15117  32.328  18.417  20.121  0.1338  0.3436  0.0808
72065W        W15118  15.869  15.437   1.462  0.2376 -0.0575  0.0876
72066W        W15119  25.644  18.755  28.029 -0.0527 -0.0255  0.0953
72067W        W15120  26.143  24.192   1.631  0.3740  0.1254 -0.1868
72068W        W15121  15.165  19.439   7.826  0.1753  0.1138 -0.0882
72069W        W15122  13.143  15.562   9.463 -0.0707  0.0843  0.1529
72070W        W15123  34.311  22.195   4.345 -0.0980 -0.1185  0.0001
72071W        W15124   5.017   6.993   3.111  0.3345 -0.1468  0.0225
72072W        W15125  15.901   9.455  20.823 -0.2281  0.0848 -0.4017
72073W        W15126   3.245  16.535   7.890 -0.1562 -0.1497  0.0109
72074W        W15127   9.917  19.698  23.360 -0.0369 -0.0808  0.4422
72075W        W15128  19.686   1.611   3.849 -0.0289  0.2426 -0.1192
72076W        W15129  17.339  14.795  28.843  0.0753  0.1112  0.0353
72077W        W15130  11.160  24.151  28.774  0.1522 -0.1046  0.1040
72078W        W15131  31.588  24.623  14.889  0.0051  0.2494 -0.1611
72079W        W15132   6.173  11.739   7.859  0.0204 -0.2884 -0.2208
72080W        W15133   3.803  10.939  23.797 -0.0749  0.1282  0.2766
72081W        W15134   2.782   8.544  28.103 -0.1870  0.2252 -0.0973
72082W        W15135  10.490   3.560   5.448  0.0686  0.0263 -0.0351
72083W        W15136   0.865  11.582  23.241  0.1247  0.1836 -0.1265
72084W        W15137  30.574   4.958  29.162  0.1610 -0.4042  0.1943
72085W        W15138  11.667   8.491  23.138  0.0662 -0.1406 -0.0328
72086W        W15139  18.381  11.022  27.415  0.2429 -0.0966 -0.1675
72087W        W15140  20.901  28.440  24.125  0.0542 -0.3196 -0.1747
72088W        W15141  16.024  21.278   4.877 -0.2613  0.1314  0.0491
72089W        W15142  11.103  14.749   1.865 -0.5663  0.0508  0.0255
72090W        W15143   9.890  17.853   9.840  0.3538 -0.2089 -0.0459
72091W        W15144  10.524   7.017  16.839 -0.0453 -0.0716 -0.2414
72092W        W15145  27.784  15.953   8.756  0.0427  0.0807  0.0779
72093W        W15146   0.031  23.746   8.106  0.0234 -0.3451 -0.0541
72094W        W15147  25.986   6.321  25.293  0.3786 -0.0040  0.2548
72095W        W15148  23.620  18.060   7.156  0.2316  0.0477 -0.1158
72096W        W15149   4.495  23.036   6.011 -0.0483 -0.2205 -0.0713
72097W        W15150  33.841  14.529  27.705 -0.1219 -0.2334  0.4764
72098W        W15151  12.943   4.773   4.077 -0.2192 -0.4381  0.0618
72099W        W15152   7.851   7.619  22.802  0.0959  0.2498 -0.0597
72100W        W15153  10.957  15.772   0.843 -0.1486  0.0867 -0.0531
72101W        W15154   1.613  18.053   6.102 -0.4047 -0.1065  0.2356
72102W        W15155  33.126  17.623  26.864 -0.2134 -0.1868 -0.0858
72103W        W15156   4.282  27.082  18.956 -0.0898 -0.0805  0.2221
72104W        W15157  20.491  18.754   4.233 -0.0111  0.3257  0.1164
72105W        W15158  19.294   5.394  18.182  0.1695  0.0076  0.2069
72106W        W15159   1.420   4.372   9.616 -0.2205 -0.2781 -0.1676
72107W        W15160   1.241  15.795   6.402  0.2082  0.0970 -0.1941
72108W        W15161  11.671  15.974   2.313  0.1694  0.1334 -0.2620
72109W        W15162  31.406  19.510   8.997 -0.0766  0.2301 -0.0022
72110W        W15163   9.168  28.843  27.791  0.1081  0.0607  0.1432
72111W        W15164   5.017   7.774   2.670 -0.1767  0.2441  0.0685
72112W        W15165  12.484  13.164   4.869 -0.1462 -0.5193 -0.0510
72113W        W15166  32.292  18.972   8.675 -0.2789  0.1208 -0.0198
72114W        W15167  14.191   9.304  14.920  0.3846 -0.2072  0.3163
72115W        W15168   5.104  11.843   4.036 -0.2257  0.0600 -0.3145
72116W        W15169   2.575  32.040  27.844  0.1137  0.0677  0.2428
72117W        W15170  31.096  10.807  24.407  0.1886 -0.1636  0.0468
72118W        W15171  22.158  26.293   5.193  0.1692 -0.0187 -0.0113
72119W        W15172  13.828  25.464   5.422  0.0746 -0.0114  0.0130
72120W        W15173   1.732   7.877   0.718 -0.0770 -0.1526  0.0722
72121W        W15174  16.300  26.483  10.235  0.3319  0.0313 -0.3147
72122W        W15175  21.578  11.266   0.696 -0.2471 -0.1527 -0.1842
72123W        W15176  11.450  10.975   3.789 -0.0566 -0.2925  0.0146
72124W        W15177   4.879  32.564  29.134  0.1147  0.2214 -0.1387
72125W        W15178   1.856  30.704  29.183  0.5301  0.1385  0.3363
72126W        W15179  14.663  19.460  27.764 -0.2760  0.2428  0.0559
72127W        W15180  19.436   4.994   8.818 -0.1142 -0.1920 -0.3243
72128W        W15181   2.976  31.391   3.568 -0.3321 -0.3417  0.0611
72129W        W15182  16.886  25.481   5.724  0.0233 -0.3343 -0.1457
72130W        W15183   7.790   4.851   7.904 -0.2673  0.1059  0.2839
72131W        W15184  28.140  34.083  22.884 -0.0280  0.2425 -0.0086
72132W        W15185  14.852  20.862   1.165 -0.0698 -0.0659 -0.2096
72133W        W15186   4.448   6.000  27.832 -0.1247 -0.0269 -0.0204
72134W        W15187   0.464  23.030  27.773  0.0368  0.1661 -0.1249
72135W        W15188  33.407  11.511  10.317  0.0876 -0.2534 -0.2179
72136W        W15189  12.614  19.017   7.433  0.0151  0.0397  0.2681
72137W        W15190  25.503  16.447  13.465  0.0697 -0.1146 -0.2368
72138W        W15191   5.786  10.060   9.655  0.0601 -0.4245  0.1504
72139W        W15192  30.934  29.656   5.518  0.1076 -0.0714  0.3693
72140W        W15193  13.358  29.951   0.084 -0.1115  0.0761 -0.0043
72141W        W15194   5.045   9.604   8.498  0.2010 -0.0157  0.0493
72142W        W15195  14.359  29.208  28.376 -0.0253  0.1504 -0.1078
72143W        W15196  34.019   6.558   0.326  0.3840 -0.5075  0.0379
72144W        W15197  30.187   0.605  10.012 -0.0524  0.2074 -0.0487
72145W        W15198  22.782  34.091  22.115 -0.1121  0.1423 -0.0800
72146W        W15199   1.108  22.295   8.047  0.0801  0.2088 -0.1891
72147W        W15200   8.476  19.128  20.471 -0.1010  0.1808  0.2439
72148W        W15201   3.336  27.141  28.139  0.2691 -0.3849 -0.1888
72149W        W15202   0.268  25.086   3.509 -0.1190 -0.0296 -0.1353
72150W        W15203  19.075   6.163   8.440 -0.2282 -0.1232  0.1436
72151W        W15204  16.903  16.298   0.857 -0.1870  0.0500  0.1940
72152W        W15205   0.248  26.255   8.092  0.1581 -0.0985 -0.3458
72153W        W15206  13.178  25.043  26.782  0.1708 -0.0724  0.1003
72154W        W15207   8.245  23.685   6.762 -0.1300 -0.3027  0.1977
72155W        W15208   9.951  23.993   1.776 -0.0069 -0.1719 -0.2214
72156W        W15209  13.092  20.523  26.399  0.3085  0.1425 -0.0861
72157W        W15210   0.162   1.050   4.932 -0.0166 -0.1215 -0.1463
72158W        W15211  15.908  14.902  27.355 -0.1627  0.1840 -0.2166
72159W        W15212   7.225  21.538  26.328  0.2801  0.3713 -0.0893
72160W        W15213  10.037  12.727   1.019  0.1453 -0.2633  0.2309
72161W        W15214  27.780   5.050   6.975  0.0186 -0.2263  0.0325
72162W        W15215  14.808  14.223  16.765 -0.4346  0.3295  0.1919
72163W        W15216  30.209   7.482  27.667  0.2443  0.2497  0.1407
72164W        W15217   6.238  13.355   5.633 -0.0947  0.1447 -0.0169
72165W        W15218   3.715  26.052  29.178  0.0452 -0.0372  0.1359
72166W        W15219   6.878   8.434  23.765 -0.2710 -0.1964 -0.3089
72167W        W15220   0.523  22.962   4.090  0.0394 -0.0489  0.1770
72168W        W15221  26.103  13.206   8.984 -0.0361  0.3391 -0.0263
72169W        W15222  31.217  16.795   3.837 -0.1281  0.3937 -0.2190
72170W        W15223  12.424  25.973   6.781 -0.0523 -0.0932 -0.1523
72171W        W15224  13.759  16.099   3.809 -0.1412 -0.0094 -0.1871
72172W        W15225  10.713  25.385   1.198  0.1263 -0.0823 -0.1013
72173W        W15226  20.189  15.673   3.684 -0.4425 -0.2465  0.1841
72174W        W15227   3.977  17.320   1.010 -0.0939  0.0549  0.2878
72175W        W15228  17.588  24.693   3.971  0.1682  0.4066 -0.0588
72176W        W15229  11.198  21.054  29.184  0.2911 -0.1129 -0.2341
72177W        W15230  13.967  15.619  27.275 -0.0680 -0.0867  0.3824
72178W        W15231   3.890  21.576   4.635  0.0254  0.2467 -0.1984
72179W        W15232   1.345  20.443   4.214 -0.1405 -0.0143 -0.1276
72180W        W15233   2.211  14.331   0.314  0.4346 -0.4772 -0.0402
72181W        W15234  15.404  23.677   5.646 -0.0728  0.1140 -0.0633
72182W        W15235  14.226  11.434  16.133 -0.0522  0.1045  0.1037
72183W        W15236   4.018   8.833  21.679 -0.4605 -0.2792 -0.0564
72184W        W15237  10.525  19.344   0.353  0.1623  0.2214 -0.1343
72185W        W15238   8.780  19.444   4.001  0.0291 -0.0394  0.1220
72186W        W15239   6.388  21.400  21.630 -0.0879 -0.0537  0.1640
72187W        W15240  29.482  27.465  13.495  0.0660 -0.0951  0.0658
72188W        W15241  23.158  31.312   3.585  0.1288 -0.0474  0.0224
72189W        W15242  11.923   6.557  23.506  0.2191 -0.0269 -0.1231
72190W        W15243  29.489  14.181   9.525 -0.0138 -0.0515  0.2050
72191W        W15244  19.767  33.980  25.279 -0.2410 -0.0792 -0.2564
72192W        W15245   7.624  10.464  25.553  0.1587  0.0048 -0.1661
72193W        W15246   4.454  26.533   4.106 -0.0845  0.1697  0.0030
72194W        W15247   0.060  23.334  28.989  0.2506  0.0196  0.0937
72195W        W15248   1.960  14.171  26.558 -0.0596 -0.2287 -0.0939
72196W        W15249  12.990  27.590  23.763  0.2090 -0.1389 -0.0804
72197W        W15250  11.492  20.753   5.614 -0.2145 -0.4311 -0.2720
72198W        W15251  32.970  21.914  26.444  0.2236 -0.2574  0.3212
72199W        W15252  30.399  30.703   1.249  0.1997 -0.0407  0.2771
72200W        W15253   7.271  27.997   6.459  0.1115  0.2155  0.0378
72201W        W15254  30.219  18.329   2.610 -0.0159  0.0109  0.0873
72202W        W15255  27.643  30.884  16.071 -0.1313  0.3802  0.0550
72203W        W15256  10.314   0.458   0.385  0.1534  0.3332 -0.2483
72204W        W15257  31.540  18.873   0.005 -0.1146  0.0103  0.0243
72205W        W15258  31.658   5.962   7.741 -0.0485  0.4198 -0.5857
72206W        W15259  10.211  26.729   5.553  0.2392  0.0840 -0.1125
72207W        W15260   4.994  16.524  25.187  0.0314  0.0556 -0.1666
72208W        W15261  25.378  12.884   8.040  0.0453  0.3946 -0.2602
72209W        W15262   3.781  22.050   4.863 -0.2446 -0.3908 -0.0719
72210W        W15263   4.348  12.067   7.467 -0.1229 -0.0307  0.1035
72211W        W15264  16.332  24.149  27.459  0.0612 -0.1917  0.1729
72212W        W15265  23.850  16.510  28.287  0.0734 -0.1186 -0.1227
72213W        W15266   9.995  22.128  27.009  0.1317  0.3758  0.0187
72214W        W15267  26.762  26.700   7.606  0.0715 -0.0533  0.0915
72215W        W15268  14.470  26.193  21.159  0.2525  0.1221 -0.0527
72216W        W15269   2.676  20.373   7.900 -0.1211 -0.2155 -0.2678
72217W        W15270  33.002  11.399   3.254 -0.0538 -0.0578 -0.0744
72218W        W15271   6.849   1.849  23.127  0.1088  0.1301  0.0623
72219W        W15272  10.197   3.473  24.409  0.0199  0.0400 -0.3042
72220W        W15273  13.649  10.739  22.019  0.1990  0.0345 -0.4055
72221W        W15274   8.022  26.928  27.779 -0.1959 -0.2026  0.3449
72222W        W15275  13.346   8.568   9.397 -0.0067  0.3739  0.0728
72223W        W15276  27.400   9.061   3.885 -0.1338  0.1383 -0.0333
72224W        W15277   0.757  29.960   5.170 -0.2894 -0.2682 -0.0923
72225W        W15278   8.029  34.313  10.133  0.0567 -0.0431  0.1365
72226W        W15279   7.545  32.542  23.048  0.0193  0.1335 -0.1652
72227W        W15280  32.451  22.490  28.256  0.3811  0.0529  0.2864
72228W        W15281  34.078  25.683  20.133 -0.1869  0.1979  0.1391
72229W        W15282  12.178  11.802   4.568  0.0907 -0.2144  0.1761
72230W        W15283  29.279   5.032  28.871  0.0285 -0.1238 -0.2760
72231W        W15284   3.032  25.118  28.844 -0.0423 -0.1280  0.1891
72232W        W15285  10.764  34.507   5.961  0.1446  0.0885 -0.3653
72233W        W15286   9.137   8.573   8.244 -0.0652 -0.0370 -0.3681
72234W        W15287   2.610   9.576  26.298  0.2366  0.1076 -0.1905
72235W        W15288   5.373  11.783   1.410 -0.0562  0.1189 -0.2105
72236W        W15289  28.064  11.545  10.306  0.1460 -0.0265  0.0470
72237W        W15290  15.683  23.502   2.868  0.1804 -0.0464 -0.2722
72238W        W15291  24.950  28.742   4.715 -0.1432 -0.0042  0.1234
72239W        W15292   9.142  26.158  24.532  0.0933 -0.0406 -0.4862
72240W        W15293  11.056  25.578   7.833  0.1148  0.0928  0.3474
72241W        W15294  12.755  17.334   8.213 -0.0210  0.1348  0.2660
72242W        W15295  33.532  18.857  17.648  0.0897  0.0951 -0.1276
72243W        W15296   7.208   3.454   9.422 -0.3237  0.1863  0.0505
72244W        W15297  10.799   9.752   3.646  0.2681  0.2486 -0.2065
72245W        W15298  26.132  22.335   5.985  0.1317 -0.3998  0.0351
72246W        W15299  11.469   2.628   8.043 -0.0586  0.0691 -0.2272
72247W        W15300  31.994  13.233   4.146 -0.1748  0.0602 -0.2803
72248W        W15301  34.162  13.354   6.133  0.1009  0.2400 -0.1610
72249W        W15302  32.623  22.615   5.086 -0.1823 -0.3340  0.0533
72250W        W15303   4.612   5.053  27.586 -0.1891 -0.0267 -0.3083
72251W        W15304  22.801  12.933   8.176  0.1657 -0.0949  0.4075
72252W        W15305  10.175  13.277   1.993 -0.0318 -0.0733  0.0446
72253W        W15306  10.210  29.778  23.706  0.2096 -0.0285 -0.1745
72254W        W15307  33.339  14.163   2.427 -0.0558  0.2010 -0.0072
72255W        W15308   5.371   9.090  22.542 -0.0679  0.1332  0.1037
72256W        W15309  16.417   7.267   8.265 -0.0595  0.1335  0.3301
72257W        W15310  28.042  11.877  28.205 -0.0819 -0.0648  0.0885
72258W        W15311  30.971  29.696   6.415 -0.0064  0.2407 -0.0271
72259W        W15312  24.275  26.370   3.435 -0.2116 -0.3070 -0.3555
72260W        W15313  28.638   7.244  25.725 -0.2217  0.4541 -0.1759
72261W        W15314   6.990  22.040  19.508 -0.1775 -0.3877 -0.1965
72262W        W15315   3.167   6.918   9.357 -0.0789 -0.1069  0.1509
72263W        W15316  13.947   2.170  24.615 -0.0268 -0.1943 -0.1541
72264W        W15317  32.524  19.013   3.022 -0.1023  0.3065  0.2700
72265W        W15318   3.469  28.075   8.726 -0.0299  0.2127 -0.1596
72266W        W15319   1.230  29.307   1.139 -0.1883 -0.1507  0.0073
72267W        W15320   1.654  26.950   3.152 -0.0148  0.3416 -0.1211
72268W        W15321   8.953   5.358   3.188 -0.1410  0.2124  0.0754
72269W        W15322  29.693   5.179   8.863  0.1800  0.0011  0.0229
72270W        W15323  31.732  26.145  24.228 -0.1297  0.1666 -0.1940
72271W        W15324  32.797  11.120  23.548 -0.0708  0.2775 -0.1456
72272W        W15325   2.505   9.152   6.520  0.3029  0.0609  0.1126
72273W        W15326  17.292  14.260   3.934  0.1028 -0.1943 -0.1696
72274W        W15327  20.509  12.311  23.028 -0.3181 -0.0012 -0.1579
72275W        W15328  12.231  31.855  17.087 -0.2198  0.0640 -0.0105
72276W        W15329  28.494  18.018   6.124  0.0225  0.0450 -0.0511
72277W        W15330   8.126   9.809  16.015  0.1171  0.0170  0.0433
72278W        W15331  34.097  14.416   4.223  0.1776 -0.1475  0.5090
72279W        W15332  10.481  25.501  26.423 -0.2648  0.1668  0.2818
72280W        W15333   7.556  10.095   7.904 -0.0146  0.1721  0.0330
72281W        W15334   6.940  25.815   7.275 -0.1503 -0.1893 -0.0419
72282W        W15335   9.600  28.391   4.159  0.2154 -0.1421  0.1874
72283W        W15336   4.050   4.890   1.912 -0.0727  0.1040 -0.4988
72284W        W15337  13.333  20.121  22.387  0.1771 -0.0797 -0.2499
72285W        W15338   2.958  20.158   2.463  0.1123  0.1220 -0.0105
72286W        W15339  16.204  15.487   9.234  0.1020  0.0600 -0.1962
72287W        W15340  21.818  20.529  28.395 -0.0008  0.3514  0.0835
72288W        W15341   4.224  16.011  27.553  0.0203 -0.0029 -0.2272
72289W        W15342  26.699  12.063  25.900 -0.1689  0.1570  0.2707
72290W        W15343   4.333  17.795   4.426  0.0186  0.2011 -0.0708
72291W        W15344  13.085  25.249   8.951  0.0029  0.0017 -0.0163
72292W        W15345   8.288  25.673   7.748 -0.0375 -0.1712 -0.3108
72293W        W15346  11.542  16.826   8.128 -0.1366  0.3713  0.2782
72294W        W15347  33.757  27.014   0.427 -0.0179 -0.0482  0.1544
72295W        W15348  19.755  23.384   7.891 -0.3080  0.1521  0.1229
72296W        W15349  15.973  24.584   9.263  0.1821  0.0859  0.2375
72297W        W15350  30.464   1.342   1.614  0.0711  0.3908  0.0572
72298W        W15351   7.098  24.465   7.288  0.1098  0.0090  0.4022
72299W        W15352  32.421   9.133   9.229 -0.0465  0.1337  0.1494
72300W        W15353   1.766  32.442  21.017  0.1928 -0.0972 -0.1068
72301W        W15354  34.542  12.021  23.186  0.2746  0.0368 -0.1540
72302W        W15355  31.496  27.236   1.791 -0.0195  0.0423  0.1308
72303W        W15356  30.867  25.263  28.961  0.1275 -0.2825 -0.2113
72304W        W15357  31.844  15.782  22.043 -0.0300 -0.1229  0.0869
72305W        W15358  18.063  21.859   6.529 -0.0278  0.0847 -0.2155
72306W        W15359   9.338   2.300   6.546  0.1065 -0.0826  0.2174
72307W        W15360   6.362  17.615   9.628 -0.0220  0.3084  0.1794
72308W        W15361   8.511  12.789   1.179  0.0263  0.1042 -0.0984
72309W        W15362   0.804  23.295   8.286 -0.0328  0.0222 -0.1034
72310W        W15363   4.780  28.897   1.483  0.1202  0.2876 -0.3433
72311W        W15364  18.216  13.634  26.695 -0.2107  0.3348 -0.0042
72312W        W15365   5.288  13.143   6.501  0.1337 -0.0694  0.0429
72313W        W15366  10.315  29.125   2.432  0.1459 -0.0736 -0.0849
72314W        W15367  10.360  18.719   4.285  0.0190 -0.1758 -0.1884
72315W        W15368  26.977   9.454   2.078 -0.1591  0.0177  0.1911
72316W        W15369  31.824  20.604  27.480  0.0344 -0.2050 -0.0475
72317W        W15370  12.447  12.198   1.925 -0.1576  0.1501 -0.0223
72318W        W15371  16.866  31.255   4.432  0.0749 -0.1764 -0.0791
72319W        W15372  13.844  16.388  10.163 -0.0153 -0.1823 -0.0982
72320W        W15373  19.934  30.388  22.252  0.1029  0.1635  0.0564
72321W        W15374  33.664  14.353   7.140 -0.3668 -0.2992 -0.1877
72322W        W15375  11.284  28.582   1.308 -0.1055 -0.2460 -0.0664
72323W        W15376   3.927  31.034   1.165 -0.1527 -0.1545  0.0812
72324W        W15377  19.588  24.355   1.436 -0.0296 -0.0819  0.2736
72325W        W15378  12.901  20.309   9.876 -0.4741  0.0848  0.1446
72326W        W15379  33.486  24.178   4.250 -0.4225  0.3762  0.2227
72327W        W15380  21.049  16.697   1.457  0.3048  0.2382 -0.1002
72328W        W15381   4.728  18.926   0.381  0.0501 -0.3269 -0.0087
72329W        W15382   4.819  25.416   0.699  0.1316  0.1723  0.2274
72330W        W15383  15.254   5.104   7.952 -0.1143 -0.3196  0.0807
72331W        W15384  14.671  17.824  22.006  0.1587 -0.2874 -0.0446
72332W        W15385  33.267  20.157   7.994 -0.0183 -0.1401  0.1903
72333W        W15386   7.506   1.030   7.868  0.0429 -0.4602 -0.0491
72334W        W15387  14.344  16.360   5.915  0.2194 -0.2173 -0.0303
72335W        W15388   7.355  28.247  24.315 -0.0987 -0.2206  0.1303
72336W        W15389   2.651  10.485   7.377 -0.3872 -0.0262 -0.1201
72337W        W15390  24.328  30.031   2.047 -0.0222  0.0024 -0.2158
72338W        W15391   2.562  31.325  23.191  0.1248  0.2493  0.3388
72339W        W15392  10.607  21.503   5.297 -0.1658  0.1380 -0.0120
72340W        W15393   5.113  33.552   5.438 -0.2704 -0.2152  0.0101
72341W        W15394  22.209  18.342   2.185 -0.1353  0.1028  0.4474
72342W        W15395   0.531   5.576  27.939  0.0024  0.1358  0.0646
72343W        W15396  30.425  15.591  26.414 -0.2874 -0.1564 -0.0783
72344W        W15397  33.096  30.918   2.469  0.1108  0.1180  0.1051
72345W        W15398   1.187  17.376   0.480  0.0315  0.2175 -0.0630
72346W        W15399   2.129  17.696   6.000 -0.2070  0.1053 -0.3238
72347W        W15400   9.624  34.176   1.480 -0.2527 -0.0596  0.0558
72348W        W15401  20.775  22.413  26.029  0.1089 -0.2632  0.0794
72349W        W15402  21.312  12.480   1.068  0.0542 -0.3080 -0.0842
72350W        W15403   9.863  13.679   1.445 -0.0764  0.0164 -0.1732
72351W        W15404  25.971  16.129   9.283 -0.3334  0.1101  0.1349
72352W        W15405   5.591  16.178   1.935  0.0766  0.5164 -0.1043
72353W        W15406  30.122  21.128  23.105  0.2079  0.3371  0.2459
72354W        W15407   5.902  13.158   9.221  0.0519 -0.1087 -0.1204
72355W        W15408   2.647  21.846   8.257 -0.1882 -0.0586  0.2912
72356W        W15409  32.189  11.682  25.102  0.1706 -0.0232  0.0988
72357W        W15410  30.628  14.724  20.898  0.5315 -0.2122 -0.0007
72358W        W15411  12.347  31.476   6.321 -0.3967 -0.1032  0.0243
72359W        W15412   5.826  18.915   7.339 -0.3073  0.0229 -0.0525
72360W        W15413  30.287  14.461   1.167  0.2278 -0.0446  0.2998
72361W        W15414  13.135  33.104   0.205 -0.0270 -0.4503  0.1069
72362W        W15415   2.158  11.319   8.175 -0.0074  0.2250  0.1419
72363W        W15416  27.704  17.889   7.645  0.0657  0.2183  0.3525
72364W        W15417   2.180  21.298   7.305  0.3319  0.1281 -0.2774
72365W        W15418  31.670   1.384   0.665 -0.1160 -0.4001 -0.2250
72366W        W15419  26.866  22.258   4.934  0.0058  0.2103 -0.2597
72367W        W15420  30.498   0.245  28.279 -0.2600  0.1927 -0.1473
72368W        W15421   1.178  16.247   5.532  0.0623  0.0869  0.2370
72369W        W15422   6.358  12.875  28.914 -0.0806  0.1320 -0.1268
72370W        W15423  18.362   8.568  27.662 -0.0112  0.0606  0.3547
72371W        W15424   5.899  25.251   5.054 -0.0297 -0.1002  0.0500
72372W        W15425   0.146  14.653  25.489 -0.2221 -0.3382 -0.3831
72373W        W15426  27.608  27.250  25.023  0.0260 -0.0586  0.1447
72374W        W15427   9.467  26.300   4.523  0.4597  0.0099  0.3148
72375W        W15428   4.017  28.392   2.028 -0.0610  0.0317 -0.2593
72376W        W15429   0.567  11.421   7.905 -0.2458  0.1497 -0.1856
72377W        W15430   8.379  24.623   6.066  0.0981 -0.2149 -0.2495
72378W        W15431   9.936  13.520  10.014  0.2356  0.1297  0.2594
72379W        W15432   1.531  23.483   0.814  0.0955 -0.1893 -0.1456
72380W        W15433  25.683  21.659   8.245 -0.2233 -0.0483  0.0971
72381W        W15434  23.498  15.961   4.621 -0.0823 -0.1691 -0.1218
72382W        W15435  33.480  10.463   6.191  0.0725 -0.1168  0.2889
72383W        W15436  20.810  13.722   2.457  0.0032  0.0552 -0.1703
72384W        W15437  34.615  21.327  19.540 -0.0610 -0.1087 -0.0688
72385W        W15438   6.420   7.108  24.776  0.1884  0.2024  0.0347
72386W        W15439   0.337  17.371   3.470 -0.0389  0.2011  0.0834
72387W        W15440  17.828  20.294   7.420  0.3800 -0.3495  0.1638
72388W        W15441   1.191  18.928   5.914 -0.1713  0.0789  0.0795
72389W        W15442  34.577  12.041  26.288 -0.0973  0.3530 -0.0361
72390W        W15443   2.713  22.091  20.361  0.0892  0.0482  0.0605
72391W        W15444  10.074  26.830  26.233 -0.3634 -0.1896  0.0574
72392W        W15445  26.303  28.347  26.759  0.1963 -0.1378  0.1474
72393W        W15446  10.946  33.305   9.356 -0.0898 -0.1707 -0.0035
72394W        W15447   7.274  17.237   7.598  0.0223  0.5286  0.1849
72395W        W15448  24.760  13.644  22.770 -0.3493 -0.1603  0.0574
72396W        W15449  20.807  30.563   7.425  0.0118 -0.0495  0.3288
72397W        W15450  34.091   8.781   9.638 -0.2109 -0.0157  0.2795
72398W        W15451  27.217  29.802   5.090  0.1568  0.1540 -0.0459
72399W        W15452   2.511  21.585   5.353 -0.0159  0.0033  0.1730
72400W        W15453  17.733  16.836  25.300  0.1969  0.4367  0.0194
72401W        W15454   0.967  20.860  10.241 -0.0789  0.0890  0.0716
72402W        W15455  24.473  11.276   1.573 -0.2186  0.0543 -0.0141
72403W        W15456  13.056  20.575   3.802 -0.1072  0.1257 -0.1326
72404W        W15457  11.405   6.752   4.094 -0.1113  0.0069 -0.1265
72405W        W15458  31.299  23.473   4.270 -0.1673  0.0921  0.1677
72406W        W15459   0.368   8.834   5.842  0.1019  0.0539  0.1710
72407W        W15460   6.826   1.992   8.693  0.0467  0.0780 -0.1089
72408W        W15461   9.527   6.300  20.198 -0.1608 -0.4436 -0.0635
72409W        W15462   3.730  17.092   7.467  0.1040  0.2348  0.1366
72410W        W15463  34.028  20.119  26.107  0.0176  0.2253 -0.0331
72411W        W15464  11.839  31.464   1.577 -0.2441  0.0033  0.0482
72412W        W15465  34.162  26.853   2.851  0.3788  0.1263  0.1572
72413W        W15466  15.365  15.230   8.613  0.0937  0.0337  0.1327
72414W        W15467  18.178  10.487   2.853 -0.2375 -0.0881 -0.0383
72415W        W15468  30.143   8.865   3.823 -0.3004 -0.2315  0.3783
72416W        W15469  25.096  21.904   0.185 -0.0053 -0.0123  0.2479
72417W        W15470   0.442   6.548  25.777  0.0446 -0.2518 -0.0010
72418W        W15471   7.544  17.437   1.644 -0.1525 -0.1286 -0.1096
72419W        W15472   8.340  15.156   3.655  0.0841 -0.0927  0.0876
72420W        W15473  14.232  11.993  28.581  0.1864  0.0766  0.1952
72421W        W15474  31.754  33.977  19.387  0.0854  0.2028  0.1101
72422W        W15475  19.617  10.775  28.883 -0.0261  0.0753 -0.0194
72423W        W15476  20.778  15.957   7.423  0.2554 -0.0006 -0.0088
72424W        W15477   6.420  24.201   6.512 -0.1844  0.0275  0.0877
72425W        W15478   4.148  14.849   0.496 -0.1946  0.1082 -0.0990
72426W        W15479   2.763  23.768   0.091  0.2956 -0.0860  0.0223
72427W        W15480  27.742  14.687   9.336  0.1932  0.1349  0.3254
72428W        W15481   3.434  32.377   1.534 -0.1899  0.2453  0.0758
72429W        W15482  14.297  20.093   2.495  0.3556 -0.1594  0.3276
72430W        W15483  34.426  14.910   0.656  0.1279  0.1820  0.0783
72431W        W15484   9.817   7.929   1.919 -0.0457 -0.0093  0.0259
72432W        W15485  23.297  29.274   8.496 -0.2306 -0.2651  0.1369
72433W        W15486  33.519  18.189   8.685  0.0937  0.0342  0.1752
72434W        W15487  27.375  25.021  24.080  0.0039  0.0109 -0.4579
72435W        W15488  11.864  19.647   7.111 -0.0251 -0.0951 -0.3354
72436W        W15489   6.650  30.027   5.052  0.1637  0.0667 -0.2137
72437W        W15490  18.523   7.126   9.256 -0.1642  0.0840  0.0348
72438W        W15491  32.646  24.817   2.654 -0.1643 -0.0906 -0.1024
72439W        W15492  12.438  32.331   7.884 -0.2165 -0.2060 -0.1464
72440W        W15493   2.681  26.802   1.635  0.2090 -0.0097 -0.3033
72441W        W15494   4.704  17.365   6.246  0.0019 -0.0116  0.2676
72442W        W15495  34.101  15.308   6.607  0.4276  0.0669  0.1536
72443W        W15496   0.926  32.348   3.668  0.2377  0.1560  0.0556
72444W        W15497  28.598  25.514   0.458  0.0546  0.3442  0.1660
72445W        W15498   4.283  15.147   6.684  0.3869  0.0645  0.0376
72446W        W15499   4.138  13.754  27.573  0.1806  0.0090  0.0824
72447W        W15500  15.340  32.886  21.005 -0.1559 -0.0983  0.2249
72448W        W15501   8.356  16.185  27.751 -0.0501 -0.2779  0.1543
72449W        W15502  19.833  26.214  27.196  0.3493 -0.0842  0.2504
72450W        W15503  14.705   8.187   3.606 -0.3557 -0.2854  0.1333
72451W        W15504  23.955  19.551  28.884 -0.2755 -0.0797  0.2199
72452W        W15505  29.139  15.404  10.145 -0.1296  0.3147 -0.1758
72453W        W15506  31.480  15.010  24.179  0.2110  0.0575  0.3203
72454W        W15507   0.012  23.801  14.082  0.2873 -0.1903  0.2729
72455W        W15508  13.411   0.527   9.739  0.3602  0.0983  0.0502
72456W        W15509  30.766  19.179   2.807  0.2094 -0.2897 -0.2794
72457W        W15510  18.631  22.348   9.472  0.0023  0.7356 -0.2985
72458W        W15511  32.100  10.853   7.356 -0.2144 -0.1025  0.1069
72459W        W15512   8.241  30.600  20.302  0.2477  0.0861  0.1040
72460W        W15513  23.750  21.669   8.220  0.1711  0.0436 -0.2215
72461W        W15514  18.840  19.756   2.617  0.1588  0.0289  0.1255
72462W        W15515   2.515  22.931  13.725  0.2895  0.0496 -0.0865
72463W        W15516   3.430  33.013  26.047 -0.0347  0.0759 -0.0614
72464W        W15517  10.261  27.531   4.020  0.0995  0.0159  0.0832
72465W        W15518  23.869  19.891   0.182  0.1382 -0.0138  0.0224
72466W        W15519   5.923  23.872  27.564 -0.0900 -0.0450 -0.1588
72467W        W15520  15.521  15.335   7.302  0.0626  0.2169 -0.0165
72468W        W15521   3.960   8.792   6.771 -0.1074  0.0029  0.4326
72469W        W15522   9.504   5.475   3.511 -0.1063 -0.0982 -0.0976
72470W        W15523   5.765  21.035   5.150  0.3533  0.1954  0.1154
72471W        W15524  32.536  29.569  25.676  0.1671 -0.0125  0.1726
72472W        W15525   6.466  25.256  27.716  0.3389  0.0427  0.0962
72473W        W15526   5.752   4.930   4.537 -0.0771  0.2935  0.4891
72474W        W15527   4.418  22.504   8.557  0.3198 -0.0586  0.0196
72475W        W15528   6.657  26.064   5.947 -0.0451  0.2019 -0.0481
72476W        W15529  12.180  19.635  25.111 -0.4385  0.0943 -0.3383
72477W        W15530  29.795  22.663   1.508  0.1830 -0.2660 -0.1550
72478W        W15531  15.285   4.764  10.339  0.1188 -0.0264  0.3376
72479W        W15532  10.186  28.380  21.858  0.1205 -0.0949  0.2875
72480W        W15533   7.249  16.861  25.721  0.2528 -0.0574 -0.3422
72481W        W15534  13.769  27.283   2.124  0.1909  0.1872 -0.1735
72482W        W15535   2.798  13.639   2.036  0.1248 -0.1972  0.2396
72483W        W15536  17.894  17.219  23.241  0.1269 -0.1966  0.1952
72484W        W15537  26.316  24.299   9.546  0.1832  0.0880  0.0320
72485W        W15538  34.522   3.061   2.818 -0.1150  0.0791 -0.0527
72486W        W15539   2.792   5.056  23.934  0.0971 -0.1139 -0.2986
72487W        W15540   9.597  11.400   7.280 -0.1120 -0.1930 -0.2135
72488W        W15541   6.650  25.421   7.077  0.2288  0.2592 -0.0331
72489W        W15542   8.597  22.675   3.982  0.0528 -0.1927  0.0213
72490W        W15543  29.600  23.893   6.703 -0.4293 -0.0900  0.5459
72491W        W15544   4.896  24.642   8.669  0.1315  0.2317  0.0666
72492W        W15545  22.200  14.731   3.593 -0.1135 -0.2376 -0.2718
72493W        W15546  29.387   4.001   8.135 -0.1891 -0.1631 -0.2395
72494W        W15547   2.450  14.278  21.396  0.0560 -0.2247 -0.1218
72495W        W15548  24.170  32.998  24.762 -0.1892  0.2230  0.0298
72496W        W15549  10.191  27.675   7.609 -0.0325  0.1951 -0.0635
72497W        W15550  20.982  20.945   2.875 -0.1697 -0.0641 -0.0620
72498W        W15551  10.751  25.620   1.620  0.0559  0.0481 -0.1208
72499W        W15552  32.389  14.653   8.893  0.1183 -0.1293  0.0162
72500W        W15553  17.098  32.288   0.980  0.0682  0.0952  0.1272
72501W        W15554  30.426  10.542   8.855 -0.1044  0.1460  0.1859
72502W        W15555   5.006  33.784   5.943 -0.0443 -0.2866  0.2454
72503W        W15556   8.063  30.784  18.433 -0.1483  0.0123 -0.0068
72504W        W15557  28.040  32.469   7.583 -0.1015  0.1254 -0.1445
72505W        W15558  24.703  20.765   2.837  0.1131 -0.0840  0.0140
72506W        W15559  11.097  33.749   6.090  0.2795 -0.3800  0.2494
72507W        W15560  32.886  20.261  17.688 -0.1095 -0.1989  0.0247
72508W        W15561   2.017  17.282   0.243 -0.3827  0.0065  0.3681
72509W        W15562  12.577  13.553   7.791  0.0914 -0.2966  0.1016
72510W        W15563   0.706  32.677   1.552 -0.2125 -0.0751 -0.0456
72511W        W15564   0.847  16.693   9.485  0.0925 -0.2151  0.2791
72512W        W15565   6.124   8.149  27.354  0.0633 -0.1469  0.3252
72513W        W15566   6.801  24.826  22.782  0.1204 -0.0290 -0.0625
72514W        W15567   0.329  24.186   4.811  0.0389  0.0333 -0.0071
72515W        W15568   8.078  15.927   8.576  0.0636 -0.0615 -0.1266
72516W        W15569  32.723  34.281   7.369  0.1954  0.3803 -0.1334
72517W        W15570  19.903  20.228   6.014  0.1487 -0.0767 -0.2165
72518W        W15571  28.757   7.636   1.786  0.2507  0.0567  0.1144
72519W        W15572  11.427   8.967   0.376 -0.2963 -0.3982  0.2620
72520W        W15573  17.568  29.340  25.864  0.2235  0.0265  0.3572
72521W        W15574  27.332  25.732  19.094 -0.0701 -0.0552 -0.2124
72522W        W15575  28.456  18.492   9.477 -0.0149  0.1822 -0.0239
72523W        W15576   7.795  13.336  20.055  0.0235 -0.0501  0.0759
72524W        W15577  13.818   9.175   5.758  0.1855  0.2085  0.0340
72525W        W15578  15.900  17.139   7.562  0.0798  0.0576  0.0301
72526W        W15579  17.435  27.221  19.139  0.1464  0.0852 -0.1637
72527W        W15580  30.149  29.688   3.947  0.4002 -0.1184  0.3082
72528W        W15581  30.225   4.532   8.836 -0.4762  0.2862 -0.1975
72529W        W15582  34.105  33.838  24.254  0.0266 -0.2143 -0.3083
72530W        W15583   8.631  32.094   6.264  0.0111 -0.2953 -0.2950
72531W        W15584  10.184   9.545  10.626  0.0700 -0.1431  0.2811
72532W        W15585   3.946  23.852   9.077  0.0722  0.1001  0.1126
72533W        W15586  16.773   1.194   2.698 -0.3634 -0.1006 -0.1363
72534W        W15587   3.848  14.124   7.010 -0.0942  0.3836 -0.2380
72535W        W15588   1.082  13.119   3.725  0.0497  0.2168 -0.1663
72536W        W15589   5.995  17.082   6.842 -0.3285  0.1797 -0.3363
72537W        W15590  33.284  11.023   4.051 -0.0392  0.0196 -0.0401
72538W        W15591   3.959  24.882   3.915  0.0220 -0.1103  0.2647
72539W        W15592  14.658  32.554  10.447 -0.0871 -0.0849 -0.2696
72540W        W15593   9.487  10.930   8.612  0.0347  0.1490 -0.5695
72541W        W15594   7.701  12.691  10.098  0.1031 -0.0852  0.0621
72542W        W15595   1.511  24.272   0.356  0.2794  0.0474 -0.3467
72543W        W15596   4.706  12.584   3.085 -0.3162 -0.1863 -0.1827
72544W        W15597   8.977  16.998   7.062  0.0878  0.0268  0.1958
72545W        W15598  19.288  21.378  10.451 -0.1135  0.2203  0.1573
72546W        W15599  25.476  18.745   6.274  0.2068 -0.1574 -0.2549
72547W        W15600   1.785  11.379  24.104 -0.0699 -0.2169  0.2299
72548W        W15601  28.747  22.330  24.299 -0.1242 -0.0719 -0.0998
72549W        W15602  10.423  17.770   5.907 -0.0675  0.0007 -0.3213
72550W        W15603  15.332  34.258   2.147  0.0015  0.3684 -0.2915
72551W        W15604  24.220  15.805   3.050  0.1471  0.0303 -0.1298
72552W        W15605   4.661   3.741   8.597 -0.0161  0.1578 -0.0465
72553W        W15606  18.050  14.614  23.814  0.0714 -0.0419  0.1517
72554W        W15607   1.042  17.314   6.601  0.1504  0.2216 -0.0480
72555W        W15608  10.042  10.072   4.121 -0.0084  0.0940  0.0998
72556W        W15609   7.485  24.827   0.860 -0.0691  0.1208  0.2363
72557W        W15610  12.078  23.810   3.301  0.0999 -0.1618  0.2433
72558W        W15611   6.593  32.813   2.960  0.2020 -0.0260  0.0134
72559W        W15612  11.047  31.438   2.750 -0.1912 -0.4378  0.2539
72560W        W15613  10.011  25.591   4.017  0.0167 -0.2142 -0.1323
72561W        W15614  32.086  33.708   2.679 -0.1465 -0.2149  0.2338
72562W        W15615  20.975   5.473   3.819  0.2751 -0.1220  0.2343
72563W        W15616   4.707  11.939   2.284 -0.1880  0.1544 -0.0251
72564W        W15617  14.216  32.643   7.113  0.0579 -0.1640  0.0278
72565W        W15618  16.895   9.775   9.578  0.1357  0.5230  0.1814
72566W        W15619  28.298  18.005  25.841 -0.1266 -0.0507  0.0248
72567W        W15620  28.483  27.682   0.478 -0.0052  0.0437  0.2101
72568W        W15621   4.775   2.777   6.725  0.2708 -0.2209 -0.0750
72569W        W15622   3.913  18.851   2.870 -0.0048  0.4676 -0.3346
72570W        W15623   4.120  16.403   8.648  0.2517  0.2725 -0.1391
72571W        W15624   2.911  16.162   6.766 -0.0646  0.1945  0.1904
72572W        W15625  17.014  21.210   7.241 -0.0828 -0.2846 -0.0349
72573W        W15626   9.418  22.313   5.931 -0.0652  0.2533  0.1107
72574W        W15627  31.636  32.502   1.438  0.1568  0.0768 -0.1944
72575W        W15628   8.203  21.836  26.198  0.0123  0.1129  0.1001
72576W        W15629  16.093  15.731   6.371  0.0120  0.0049 -0.1186
72577W        W15630  29.426   3.614   9.891  0.0060 -0.0445  0.4406
72578W        W15631  32.689   9.193   0.434 -0.4046 -0.0854 -0.1460
72579W        W15632  21.480  33.393   5.608 -0.1767  0.0077 -0.2151
72580W        W15633   4.473   1.129  24.717 -0.0211 -0.0950  0.2604
72581W        W15634   5.425   0.902  28.914  0.0540  0.0445  0.1706
72582W        W15635   1.271  15.685  24.465  0.0303 -0.2481 -0.2774
72583W        W15636  33.470  18.793   7.344 -0.1563 -0.1500 -0.1788
72584W        W15637   2.331  19.816   3.346 -0.0125 -0.0023 -0.1729
72585W        W15638  14.040  13.060  28.048  0.0451 -0.0689 -0.2222
72586W        W15639   6.483  17.099   6.607  0.1911 -0.0540 -0.0044
72587W        W15640  14.161  11.915   6.430  0.2900 -0.3280 -0.2523
72588W        W15641  29.462  18.506  27.716  0.0145  0.4142  0.1579
72589W        W15642   0.641  18.402  24.426  0.2827  0.1883 -0.2281
72590W        W15643   7.342  18.883   7.493  0.0864  0.0004  0.0922
72591W        W15644  13.899  21.300   4.574  0.1013 -0.0857 -0.3898
72592W        W15645   9.400  15.631  26.543 -0.0764 -0.0596  0.0910
72593W        W15646  32.880  26.841   8.082 -0.0705  0.0428  0.0495
72594W        W15647  11.855   9.124  10.657 -0.1006 -0.0271 -0.0335
72595W        W15648   5.408   9.827   5.428 -0.0006  0.2649  0.0661
72596W        W15649   8.658   9.777   8.288  0.3694 -0.0383  0.1012
72597W        W15650  26.007  20.728   8.018 -0.0050 -0.0502  0.1074
72598W        W15651  34.398  14.975   8.055  0.1091  0.1097 -0.0613
72599W        W15652   1.242  18.595  27.280 -0.0850 -0.1185 -0.2002
72600W        W15653   9.250   7.997   9.065  0.1910 -0.1271  0.1352
72601W        W15654   3.522  28.724   0.858  0.1120 -0.1505  0.0032
72602W        W15655   7.291  24.580   5.693  0.1993 -0.2483  0.2332
72603W        W15656   7.891  13.675   2.594 -0.3532  0.2574  0.0453
72604W        W15657  27.534  28.649   5.453  0.0953 -0.2103  0.2797
72605W        W15658  10.660  30.367   3.605  0.0849 -0.0924 -0.0638
72606W        W15659   8.797  18.697  10.042  0.0978  0.0440  0.3039
72607W        W15660   2.053  32.369   9.336 -0.1220  0.0209 -0.1378
72608W        W15661  30.320  31.244   9.300 -0.1497 -0.2269 -0.0995
72609W        W15662  10.234  17.653  29.009 -0.0175 -0.2186 -0.2556
72610W        W15663  16.179  20.000   4.376 -0.1377  0.0609 -0.5019
72611W        W15664  33.165  14.788  28.906 -0.0104 -0.2036 -0.1301
72612W        W15665  18.015  22.105   5.420  0.2427  0.1938  0.0498
72613W        W15666  32.541   8.597   2.872 -0.0927  0.3838  0.4267
72614W        W15667  26.206  11.626   7.296 -0.1991  0.3905 -0.0558
72615W        W15668   1.684  28.304   8.788  0.1038  0.1108 -0.2020
72616W        W15669  16.363  17.583   4.325 -0.0864  0.0442  0.0621
72617W        W15670  32.833  12.081  27.590 -0.0033  0.0316 -0.0452
72618W        W15671   5.907  32.880   9.118  0.1960  0.3278  0.0572
72619W        W15672   6.106  32.412   2.043  0.1063 -0.3700  0.0315
72620W        W15673  31.252  10.710  28.493  0.0857 -0.3086 -0.1318
72621W        W15674   3.006  25.765   5.856  0.0829 -0.2725 -0.1118
72622W        W15675   6.865  11.466  10.350  0.3046  0.1453 -0.4760
72623W        W15676  15.547  21.722   5.566  0.0802 -0.2074  0.1032
72624W        W15677  33.060  25.746   7.841  0.2434  0.0100 -0.1291
72625W        W15678  10.614  25.894   7.722  0.1078 -0.2258 -0.4201
72626W        W15679   5.041  32.942  28.121 -0.0591  0.1327 -0.0417
72627W        W15680  12.838  12.773  11.329  0.1128 -0.3742 -0.2773
72628W        W15681  13.333  13.973   2.950 -0.0907 -0.1117  0.2364
72629W        W15682  26.825  31.258  23.955 -0.2795 -0.2507  0.2377
72630W        W15683  32.828   7.989   2.903 -0.3122  0.4546 -0.0706
72631W        W15684  27.676  21.460  20.607  0.1262 -0.2473 -0.1260
72632W        W15685  14.173  14.344   6.496  0.1673 -0.1179 -0.1423
72633W        W15686   7.796   2.273   9.943 -0.0516  0.3543 -0.0037
72634W        W15687  32.471  26.746   5.322  0.3803  0.1148  0.1529
72635W        W15688   7.064  18.314   6.344  0.0764 -0.0098 -0.1848
72636W        W15689  18.896  15.693   8.138 -0.1750 -0.1858  0.1351
72637W        W15690   5.211  21.249  29.101  0.0578 -0.1224 -0.0314
72638W        W15691  34.377  14.284  25.035 -0.1382 -0.1022 -0.1149
72639W        W15692   9.908  13.114  17.196  0.2732  0.2551 -0.0646
72640W        W15693  25.404   9.185   8.027 -0.0561  0.0280 -0.1776
72641W        W15694  34.280  31.601  24.147  0.0530 -0.4571 -0.1975
72642W        W15695  16.788  21.013   9.645 -0.1718  0.1406 -0.0296
72643W        W15696   4.469  27.636  26.197  0.0580  0.3601 -0.2285
72644W        W15697  27.208  20.002   1.633  0.1985 -0.1901  0.0232
72645W        W15698  14.500  30.924   2.725  0.2454  0.0696  0.0968
72646W        W15699   6.752  33.152   8.444 -0.0298  0.2378  0.0748
72647W        W15700  14.994  26.408   6.727  0.2219 -0.0526  0.0101
72648W        W15701   5.181  14.392   1.402 -0.1692  0.0633 -0.3578
72649W        W15702   1.140  30.144   6.141 -0.0239  0.1454  0.0935
72650W        W15703   5.696   3.832   4.604 -0.0072  0.2458 -0.1975
72651W        W15704  11.338   4.923   0.770 -0.4714 -0.3825 -0.2604
72652W        W15705  18.812  22.519  28.029  0.2803 -0.2084  0.0139
72653W        W15706   6.495  11.196   9.479 -0.1681  0.0164  0.2862
72654W        W15707  26.770  10.845   7.559 -0.0874  0.0680  0.0073
72655W        W15708  17.426   4.488   5.847  0.1431  0.1984  0.1760
72656W        W15709   4.628  28.922  28.795 -0.1910  0.2506  0.0304
72657W        W15710  12.006   1.045  25.158  0.0016 -0.1515  0.1226
72658W        W15711  11.940  27.642   8.399  0.4230 -0.3384 -0.1715
72659W        W15712  27.998  23.338  18.568  0.1073  0.0981 -0.0127
72660W        W15713  28.335  19.106  20.896  0.0844 -0.1270  0.3358
72661W        W15714  27.659  33.845   3.454  0.1661 -0.2121 -0.0824
72662W        W15715   7.592  26.434   7.673  0.0137 -0.0504  0.2113
72663W        W15716   6.189  22.234  28.727 -0.0859  0.0669  0.1443
72664W        W15717  10.492   3.730   7.707  0.0161 -0.0746  0.0107
72665W        W15718  15.695  22.451   3.670 -0.1920  0.0659 -0.0494
72666W        W15719  14.180  21.235   7.837 -0.1002  0.0256  0.2245
72667W        W15720  25.367  12.984   0.610  0.0140  0.0360 -0.2182
72668W        W15721  26.498  24.920   8.445 -0.2015  0.1678  0.1167
72669W        W15722  11.577  16.748   8.596 -0.0501  0.1758 -0.1341
72670W        W15723  30.635  26.882  25.812 -0.1306  0.0242 -0.0103
72671W        W15724   6.281  17.781   6.167  0.3645  0.3566 -0.2796
72672W        W15725  21.568  20.397   8.473 -0.0917  0.1299  0.0610
72673W        W15726  14.838  19.329   8.255  0.2725  0.1279  0.1653
72674W        W15727   3.344  32.687   8.934 -0.1976 -0.0505 -0.0277
72675W        W15728   6.512  14.558   3.503 -0.0581  0.2536 -0.1338
72676W        W15729   6.115  27.259  27.063  0.1304  0.1267  0.0661
72677W        W15730  25.497  10.766  29.130  0.1953  0.0914 -0.1337
72678W        W15731   1.752  21.421   4.414 -0.2886  0.1258 -0.1111
72679W        W15732  29.685  31.944   2.271  0.2075 -0.1014  0.2397
72680W        W15733  16.970  17.837   0.389 -0.3833 -0.3860  0.1449
72681W        W15734  23.534  10.402   3.942  0.0913  0.2017 -0.0936
72682W        W15735  24.762  34.508   0.257  0.0775  0.0485  0.2892
72683W        W15736   2.698  30.533   3.797 -0.1659 -0.2887  0.1378
72684W        W15737   5.976  13.371   3.809  0.0539 -0.3023 -0.0905
72685W        W15738  24.101   9.973   7.577 -0.1129 -0.0007  0.0744
72686W        W15739  27.995  14.832  22.411 -0.0079  0.1483  0.1994
72687W        W15740   4.258  32.001   9.761  0.1577  0.2660  0.1272
72688W        W15741   4.558   5.953  28.936 -0.0349 -0.1439 -0.5306
72689W        W15742   9.036  26.670   5.406  0.3222 -0.2540 -0.1118
72690W        W15743  15.054  10.818  10.438 -0.1607  0.0217  0.1014
72691W        W15744   5.772  31.928   0.117 -0.0727  0.2720 -0.2648
72692W        W15745   1.947  11.768   8.913  0.2627 -0.2516  0.1522
72693W        W15746   7.251  16.325  27.637 -0.1641  0.1332  0.4202
72694W        W15747   4.285   5.683   6.168  0.3764 -0.2440  0.2588
72695W        W15748   9.258  23.474   9.089  0.1530 -0.2103 -0.0574
72696W        W15749  11.080  24.842  25.282 -0.1624 -0.1021  0.1459
72697W        W15750  13.114  28.369   7.748 -0.1629 -0.0640 -0.0949
72698W        W15751  11.598  33.537  28.086 -0.2025  0.1048 -0.0144
72699W        W15752  23.293  20.950   4.030  0.3419 -0.0938 -0.0506
72700W        W15753   2.494   0.211   5.961 -0.2843  0.0027  0.3953
72701W        W15754  12.904  19.299  27.674 -0.3963 -0.1401  0.0348
72702W        W15755  17.170  33.428   2.859 -0.1664  0.1611 -0.0447
72703W        W15756   0.191   8.195  26.540  0.1268  0.0095  0.1190
72704W        W15757  10.656  21.773   3.905 -0.2059 -0.0840  0.2069
72705W        W15758   7.552  30.975   1.873 -0.0282  0.4412  0.1043
72706W        W15759  33.921   1.743   8.699 -0.0511 -0.0523  0.2366
72707W        W15760  15.031  29.911  22.390  0.3334  0.2450 -0.0865
72708W        W15761  29.221  25.511   8.966  0.2043  0.2473  0.1576
72709W        W15762   9.326  13.215   3.517  0.1783  0.1788 -0.2792
72710W        W15763   1.278   5.324  18.148  0.1253  0.0222 -0.0049
72711W        W15764  25.669   4.475  25.780  0.0175 -0.0122  0.0297
72712W        W15765   6.539  34.550  26.435 -0.0423 -0.2359  0.1045
72713W        W15766  26.492  22.763  17.974  0.2940 -0.0157  0.0251
72714W        W15767  19.048   1.350  10.595  0.1875  0.0964  0.3808
72715W        W15768   8.161  29.262   3.010  0.0615  0.1726 -0.1846
72716W        W15769   3.232  21.588   9.149 -0.0721 -0.0760 -0.2177
72717W        W15770  13.484  17.754   5.276 -0.0901  0.1771 -0.2502
72718W        W15771  19.964   4.633  10.273 -0.0056  0.1653  0.0600
72719W        W15772  19.012   8.966   6.794 -0.2142 -0.0489 -0.1275
72720W        W15773   2.919   7.843   4.999  0.0290 -0.0821  0.1348
72721W        W15774  12.686  24.579  22.607  0.0531 -0.1615 -0.4668
72722W        W15775  10.799  26.634   5.752 -0.1027  0.1203  0.0180
72723W        W15776  33.186  13.273  26.377  0.2656  0.1833  0.0048
72724W        W15777  30.279  33.307  18.062 -0.0397 -0.0058 -0.0234
72725W        W15778  31.675  31.486  24.207  0.2702  0.0592 -0.1232
72726W        W15779   0.374  19.506  17.910  0.1469 -0.2036 -0.1132
72727W        W15780  26.532  28.142   9.417 -0.2662  0.0976 -0.3062
72728W        W15781   6.191   1.867  17.861  0.1317  0.0735  0.0233
72729W        W15782   5.386   0.186   6.547  0.3120  0.0927 -0.1148
72730W        W15783  31.706  21.561   6.399 -0.0002  0.1629 -0.0312
72731W        W15784   8.992  26.664  26.351 -0.3593 -0.0696  0.0584
72732W        W15785  23.557   9.152  26.722 -0.0361  0.4018 -0.1827
72733W        W15786   6.330  33.887  20.984  0.0544  0.2763 -0.2029
72734W        W15787  33.137  29.612   0.912  0.1853 -0.3318 -0.1193
72735W        W15788  16.187   1.381  23.492  0.3121 -0.0444 -0.0564
72736W        W15789  26.979  18.528  26.828  0.0583  0.1404 -0.1137
72737W        W15790  19.765  27.610  26.519  0.1893  0.1126  0.0017
72738W        W15791  12.713   1.975  26.609  0.1218 -0.0432 -0.3860
72739W        W15792   6.676  15.504   0.030  0.0233 -0.0402  0.0208
72740W        W15793  14.561  22.014  17.099  0.1733  0.1799 -0.0795
72741W        W15794   2.419  25.114  23.086 -0.1716  0.1732  0.0533
72742W        W15795   5.743  26.367   2.434 -0.2375  0.1190  0.2289
72743W        W15796   5.093  29.356  21.976  0.3119  0.1599 -0.0986
72744W        W15797   1.924  12.394   6.072 -0.0845  0.0081  0.1534
72745W        W15798  17.526  26.054  24.524  0.0646 -0.1417  0.1245
72746W        W15799  19.192  10.454   0.537  0.2734 -0.0868 -0.1515
72747W        W15800   6.314  24.995   7.155  0.0962  0.0176 -0.2656
72748W        W15801  27.434   8.732   5.528 -0.0444 -0.2742 -0.1573
72749W        W15802  20.758  25.794  18.506  0.1994  0.0199  0.0725
72750W        W15803  32.901   6.744  27.552  0.3239 -0.0323 -0.1960
72751W        W15804  34.002  30.957  22.047  0.0504  0.0391 -0.3290
72752W        W15805  17.263  19.098  27.486  0.0954 -0.2042  0.1607
72753W        W15806   4.778  23.825  14.264 -0.0739  0.3625 -0.0234
72754W        W15807   5.202  24.100   3.535  0.1650 -0.1891 -0.0813
72755W        W15808   9.917  19.316  27.243  0.2396  0.4128 -0.3956
72756W        W15809   2.983   0.615   6.528  0.1782  0.0406  0.2106
72757W        W15810  12.643  21.856  20.608 -0.2019  0.1227  0.0016
72758W        W15811  15.700  24.992   6.002  0.3499  0.1993 -0.2934
72759W        W15812  17.149  31.641  27.820 -0.2089  0.0448  0.0422
72760W        W15813  17.853  22.146  27.195 -0.2855  0.0941 -0.0320
72761W        W15814  14.119   8.740   9.050 -0.0664  0.1014 -0.0928
72762W        W15815   2.217  14.809   5.718 -0.0866  0.0305 -0.0735
72763W        W15816   5.201  16.929  24.325 -0.1250 -0.0588  0.1495
72764W        W15817  22.854  19.438  16.997  0.2899 -0.2745  0.0583
72765W        W15818   9.945  17.778  28.224  0.2195 -0.3561 -0.1352
72766W        W15819  14.380   2.117  15.632  0.1544 -0.1271  0.2056
72767W        W15820  31.909  17.794   9.988 -0.0550  0.1787 -0.0843
72768W        W15821   1.615  22.721   3.305  0.1125  0.0531 -0.0897
72769W        W15822  31.544  30.579   4.625 -0.2949  0.2071 -0.2521
72770W        W15823  26.576  27.423   8.212 -0.1935  0.0637  0.1385
72771W        W15824  14.307   0.636  23.597  0.0290 -0.3025  0.0022
72772W        W15825   4.441   3.148  26.418  0.0883 -0.0942 -0.0767
72773W        W15826  22.155   6.295  26.058  0.1251  0.1870  0.1611
72774W        W15827  28.575  27.113  15.349 -0.1023 -0.0265 -0.3643
72775W        W15828   5.226  20.092  20.096 -0.0608 -0.0914  0.0380
72776W        W15829  31.414   6.550   8.694 -0.0016  0.1406 -0.0929
72777W        W15830   6.138  30.679  14.414 -0.1041  0.1109 -0.1400
72778W        W15831  28.179  21.353   5.478 -0.2635  0.1465  0.0284
72779W        W15832  31.051  22.569  21.180 -0.4503 -0.2663 -0.2413
72780W        W15833   2.827  29.914   8.152  0.0071  0.0538 -0.1346
72781W        W15834  31.272  23.543   1.679 -0.0917 -0.1251  0.0523
72782W        W15835  17.585   0.656  23.757  0.0055 -0.1218 -0.1001
72783W        W15836  24.667  29.316   8.155  0.0895 -0.1606 -0.0832
72784W        W15837   7.001  28.356   4.083  0.1091 -0.1169  0.3506
72785W        W15838   8.983  26.162   7.589  0.1962 -0.1905 -0.0095
72786W        W15839  31.329  32.477   7.813  0.2742 -0.1303  0.2216
72787W        W15840  10.852  24.742   3.057 -0.1624  0.3842  0.0100
72788W        W15841   8.383   7.493  21.923 -0.2319 -0.1269 -0.2373
72789W        W15842  25.881  17.946  25.679  0.2370 -0.0266 -0.0295
72790W        W15843  32.367   2.371  15.702 -0.2151 -0.0354 -0.1179
72791W        W15844   5.848  32.476   0.021 -0.0610  0.3668  0.1665
72792W        W15845  16.337  20.545  21.285 -0.2794  0.2914 -0.0755
72793W        W15846   1.158  34.313   1.720  0.0099 -0.1039 -0.4582
72794W        W15847  13.162  25.127   8.426 -0.1159 -0.1739  0.0897
72795W        W15848  34.474  21.039   7.692  0.2353 -0.2495  0.1351
72796W        W15849  11.249  18.104  28.287 -0.0111  0.2709 -0.0952
72797W        W15850   6.975  34.200   8.915  0.2761 -0.2723  0.2464
72798W        W15851  17.223  31.503   3.098  0.2472 -0.0060  0.2335
72799W        W15852  31.248  26.092  22.967 -0.0052 -0.0694  0.4028
72800W        W15853   5.791  23.479   7.616 -0.0185  0.1646  0.1692
72801W        W15854   3.496  18.190  16.115  0.0352 -0.3445 -0.2201
72802W        W15855   4.712  18.899  17.649  0.0382 -0.2866 -0.2935
72803W        W15856   5.735  16.825   4.128  0.3056  0.1414 -0.0724
72804W        W15857   9.861   6.457  20.688 -0.0171  0.0910  0.2000
72805W        W15858  15.160  28.962  15.951  0.2068 -0.1604  0.1081
72806W        W15859  30.443  30.715   0.686 -0.0065 -0.0979 -0.1819
72807W        W15860   4.547   7.242  16.005 -0.0863 -0.1934 -0.0612
72808W        W15861   7.261   7.853   5.879  0.2413 -0.1787  0.0791
72809W        W15862   9.903  16.456   5.814 -0.0600 -0.0414 -0.0143
72810W        W15863  30.365  12.037   2.933 -0.2340  0.2038  0.0430
72811W        W15864  32.442  21.936  26.383 -0.1524  0.2473  0.0933
72812W        W15865  14.423  13.238   4.620 -0.1794 -0.1631 -0.0991
72813W        W15866   1.268  14.073  19.637 -0.1048  0.0242 -0.2501
72814W        W15867   1.447   8.492   5.329 -0.0332 -0.1226 -0.1635
72815W        W15868  17.913  30.692  23.433 -0.1371  0.2305 -0.2345
72816W        W15869   6.324  17.923  21.573 -0.0514  0.0832  0.0553
72817W        W15870   1.361  27.974  15.390  0.0632  0.0813 -0.0195
72818W        W15871   6.452  16.950   7.092  0.1029 -0.5106 -0.2680
72819W        W15872   0.552  15.108  28.626  0.0306  0.1708 -0.2073
72820W        W15873   2.083  19.865  19.205 -0.2131 -0.0206 -0.0124
72821W        W15874   3.194   0.103  19.780 -0.0230 -0.0729  0.0068
72822W        W15875  24.565   3.734   7.307 -0.3426  0.2368 -0.0420
72823W        W15876  25.845  33.171   8.825  0.1745 -0.0191  0.2048
72824W        W15877  17.722   0.979  15.541 -0.0499 -0.0728 -0.1307
72825W        W15878  11.565  21.823  18.089 -0.2171  0.0612  0.0393
72826W        W15879  13.467  29.777   2.625 -0.2261  0.1747  0.2264
72827W        W15880  20.196  26.430  20.194 -0.1775 -0.1128 -0.2944
72828W        W15881  14.207   6.594  23.391 -0.0778 -0.0344  0.1772
72829W        W15882   0.391  13.636   3.416  0.3483  0.0600 -0.0572
72830W        W15883  10.501   5.453  19.496 -0.0021 -0.2413  0.0492
72831W        W15884   8.372  29.892  28.975 -0.0457  0.0147  0.1912
72832W        W15885   0.109  26.931   7.899 -0.1111  0.1350 -0.1745
72833W        W15886   9.334  17.274  27.932  0.0432  0.0228  0.0612
72834W        W15887  28.125  26.928  28.190 -0.2183  0.0612 -0.0717
72835W        W15888   2.696  22.853   2.966 -0.1839  0.0628 -0.1710
72836W        W15889  16.333  28.267   1.932  0.0746 -0.0264  0.0586
72837W        W15890   0.505  29.211   8.628  0.0446  0.1545  0.0678
72838W        W15891  34.653   7.636  24.700  0.1730  0.2698 -0.0578
72839W        W15892   7.197   3.416  28.838 -0.2557  0.0074  0.1275
72840W        W15893  32.560  26.333   9.496 -0.1400  0.0469  0.1486
72841W        W15894  26.892   8.259   4.186  0.1344  0.0203  0.2461
72842W        W15895   7.306  21.833  27.648  0.0607  0.2221  0.1697
72843W        W15896  32.389  31.659   9.674 -0.3461  0.3611 -0.0278
72844W        W15897  32.755  28.738  18.853 -0.0789 -0.0094  0.0671
72845W        W15898   1.030  26.633   9.015 -0.2441  0.0302 -0.0046
72846W        W15899  26.521  21.230   0.591 -0.2556  0.0761  0.3775
72847W        W15900   5.491  32.458  27.343  0.0882  0.2368 -0.0088
72848W        W15901   8.484  21.328  20.902 -0.1097 -0.1434  0.2488
72849W        W15902   2.646  21.987   2.931 -0.0355 -0.1783  0.0687
72850W        W15903  18.599   9.747   7.274  0.1652  0.2466  0.0027
72851W        W15904  31.221   8.335  28.317  0.3471  0.0242  0.2572
72852W        W15905  30.670  28.146   0.734  0.0509 -0.0147  0.1242
72853W        W15906  13.113   8.048  23.311 -0.0891  0.0293  0.3531
72854W        W15907  32.720  22.160  25.997 -0.0639  0.1447  0.2183
72855W        W15908   0.599  29.185   4.433  0.2951 -0.5110 -0.0767
72856W        W15909  14.015  26.845  26.943  0.2094  0.0831 -0.1525
72857W        W15910   9.991  14.954   5.390  0.0815  0.1506  0.0175
72858W        W15911  28.888  16.377   6.322  0.0085 -0.0067  0.0153
72859W        W15912   5.418  21.155   0.467  0.3458  0.1530  0.0622
72860W        W15913   6.065  26.363  23.183 -0.0450  0.0703  0.3823
72861W        W15914   9.321  27.969   0.409  0.0142 -0.2869  0.2155
72862W        W15915   1.117   8.536  28.837 -0.0755  0.3712  0.0913
72863W        W15916   6.908  16.355   4.910 -0.1612  0.0838 -0.1715
72864W        W15917   2.882   0.291  17.205  0.3930  0.0469 -0.0223
72865W        W15918  29.459  27.630  26.547 -0.1129  0.2953  0.0788
72866W        W15919  17.906  10.499   5.160 -0.0091 -0.1397 -0.0206
72867W        W15920  28.734  28.114  10.485  0.0015 -0.3604 -0.0033
72868W        W15921  10.896  20.533   3.251  0.1131 -0.0766 -0.0678
72869W        W15922  15.444   0.741  27.743 -0.2284 -0.0398 -0.0682
72870W        W15923   0.512  22.655   8.893 -0.1906 -0.1980  0.3629
72871W        W15924  11.225  30.191   1.136 -0.1447  0.2014  0.1483
72872W        W15925  10.791  29.857  21.239 -0.0543  0.2165 -0.0188
72873W        W15926   3.352   0.016  28.626  0.0649 -0.0674 -0.0159
72874W        W15927   9.546  16.051  23.531 -0.0463  0.0779  0.1812
72875W        W15928   6.421   8.643   2.958  0.2075  0.3669  0.1609
72876W        W15929  10.886  25.598   5.841 -0.0607  0.1433 -0.0116
72877W        W15930  17.138  14.930   1.761 -0.1152 -0.1147 -0.0930
72878W        W15931  28.559  17.647   4.960  0.0630  0.2143 -0.1713
72879W        W15932  15.932  27.858  15.035 -0.0419 -0.1864 -0.0895
72880W        W15933   4.000  17.452   4.343  0.0731 -0.3964 -0.0965
72881W        W15934  12.214  30.677  23.381  0.0490 -0.0170  0.2305
72882W        W15935  18.686   6.989   6.998 -0.2560 -0.1245  0.3015
72883W        W15936  32.637  21.955  20.836 -0.0216  0.5134  0.1021
72884W        W15937  30.805  17.259   3.735  0.0968  0.1223 -0.1047
72885W        W15938   2.132   9.581  19.886 -0.0009  0.0767 -0.1857
72886W        W15939   2.514  15.905   8.175 -0.0955 -0.4927  0.0988
72887W        W15940   4.382  23.511   9.253 -0.0448  0.1967  0.2302
72888W        W15941   8.462  29.813  27.997  0.2715 -0.0518  0.1059
72889W        W15942  26.284  23.222   9.142  0.0855 -0.3390 -0.0337
72890W        W15943   0.942  30.848   8.189  0.0260 -0.2212  0.3087
72891W        W15944  14.793  13.383  27.582  0.2356 -0.1368 -0.0273
72892W        W15945   8.870  18.817   0.211 -0.0166 -0.0568 -0.3070
72893W        W15946   0.565  32.800  15.764 -0.0743 -0.1932 -0.1973
72894W        W15947  24.680  11.839   1.659 -0.1862  0.3529  0.0144
72895W        W15948  15.835  17.476   3.551 -0.0740  0.0518  0.6294
72896W        W15949  34.180  12.272  19.697 -0.1592  0.0757  0.1088
72897W        W15950  24.667  20.205   2.915 -0.0549  0.2702 -0.2604
72898W        W15951   0.378  18.439   4.820  0.1918  0.0381 -0.3272
72899W        W15952  32.641   5.199  21.346 -0.0452 -0.3157 -0.2772
72900W        W15953  32.150  17.923   4.215 -0.0205  0.0672  0.2645
72901W        W15954   9.444  17.281  21.314  0.0300  0.1102 -0.1485
72902W        W15955  17.654   6.612   3.846 -0.0381  0.3276 -0.1356
72903W        W15956   7.327  21.709   6.617  0.0277 -0.0364  0.2581
72904W        W15957  29.110  20.984   3.469  0.2369  0.0704 -0.2720
72905W        W15958   4.424  34.282   7.785 -0.0730 -0.1602 -0.2134
72906W        W15959   1.174   2.777   4.171  0.0445  0.2519  0.1779
72907W        W15960   9.895  14.645  21.617  0.2543  0.0142 -0.0283
72908W        W15961  10.964  28.589  28.122 -0.4178  0.2234  0.5905
72909W        W15962   2.208  27.281  25.931 -0.0818 -0.3916  0.2377
72910W        W15963   5.538  21.044  23.069 -0.1392 -0.2475  0.0863
72911W        W15964   7.135  28.860   1.925  0.3022  0.1105 -0.1438
72912W        W15965   1.209  22.575   2.891  0.0600 -0.1961  0.5226
72913W        W15966   6.344  14.980   6.263 -0.2035 -0.1021  0.3579
72914W        W15967  34.023  28.913   6.649  0.3437  0.0011 -0.1075
72915W        W15968  11.247  26.755   4.683 -0.0988  0.1022  0.0525
72916W        W15969   6.242  21.617  14.263  0.2621  0.4160  0.0313
72917W        W15970   8.206  23.817  20.895  0.0451  0.0951 -0.3004
72918W        W15971   7.771  20.796  26.159 -0.0396  0.1726  0.1461
72919W        W15972   2.221  21.116   7.766 -0.0601 -0.1200  0.2347
72920W        W15973   6.172  31.398  26.835  0.1396  0.0418 -0.3759
72921W        W15974  12.664  14.648   5.600  0.3231 -0.0468  0.0069
72922W        W15975  15.525  27.435  21.084  0.2392  0.1053 -0.2588
72923W        W15976  15.876  30.183  21.579  0.1929 -0.1215  0.1259
72924W        W15977  24.118  28.675  24.787  0.1054 -0.4301  0.4185
72925W        W15978  10.951  23.882   1.422  0.0579 -0.1801 -0.1225
72926W        W15979  28.772  30.605  25.974 -0.1492 -0.2830 -0.0209
72927W        W15980  31.912   8.574  25.859 -0.1916 -0.0607  0.0615
72928W        W15981  27.633   7.277   3.398  0.4368  0.1547  0.1054
72929W        W15982  34.642  17.022  26.303  0.0807  0.1807 -0.0456
72930W        W15983  18.977   9.050  27.931 -0.0956  0.2373  0.0179
72931W        W15984  12.867  16.959  28.546  0.0462  0.1002  0.1633
72932W        W15985  34.221   8.047  10.289 -0.1992 -0.2284  0.0130
72933W        W15986   9.957  29.253  27.765  0.2344  0.0554 -0.2503
72934W        W15987   1.419   1.620   1.574  0.0378  0.1606  0.1377
72935W        W15988   6.605  20.474   7.227 -0.2506  0.0833 -0.1849
72936W        W15989  26.693   7.041   3.927 -0.0037 -0.2736  0.0486
72937W        W15990   0.218  20.594   5.925 -0.1190  0.2726 -0.0636
72938W        W15991  24.133  11.813  28.909  0.1448 -0.1495 -0.1127
72939W        W15992  29.367  26.367   2.804  0.2438  0.1559 -0.2553
72940W        W15993  11.735  14.851   8.010  0.0669  0.3695 -0.1645
72941W        W15994  33.725  21.275  26.842 -0.1500  0.0809  0.0821
72942W        W15995  21.584  24.608   6.544  0.2238  0.0387 -0.0806
72943W        W15996  28.985   4.784  14.471 -0.1190  0.3477 -0.0283
72944W        W15997   3.870   5.527   0.820  0.0325 -0.1755 -0.3169
72945W        W15998   7.121  19.663   9.082 -0.2209  0.3533 -0.4477
72946W        W15999  14.486  14.206  29.152 -0.0092  0.1825  0.0591
72947W        W16000   9.989  23.207   8.121 -0.0108  0.0307 -0.0833
72948W        W16001   8.485  13.687  26.359  0.2019  0.0409 -0.0271
72949W        W16002  31.032  21.755  22.585 -0.2655 -0.0272 -0.2451
72950W        W16003  25.539  11.481  16.371  0.0109  0.2343  0.2185
72951W        W16004  29.594  30.407   3.464  0.0156 -0.0474  0.2642
72952W        W16005  20.946   2.839  23.845 -0.0101 -0.1327 -0.1934
72953W        W16006   5.066  20.079  23.822 -0.0064 -0.1004  0.4699
72954W        W16007  25.083  19.216   4.921  0.1868 -0.1324  0.2062
72955W        W16008  29.188  12.671   9.450 -0.3799 -0.3355 -0.1049
72956W        W16009   6.570  26.319   3.434 -0.0106  0.1563  0.0047
72957W        W16010   5.361  26.193   2.833 -0.1529  0.0904 -0.3522
72958W        W16011  31.637   1.230   3.693  0.2186  0.0086 -0.0979
72959W        W16012   8.599  32.935  22.534 -0.1683  0.5653  0.0497
72960W        W16013  19.726   5.707   4.642 -0.0692 -0.1245 -0.1958
72961W        W16014  25.950   8.837  25.761 -0.2263  0.0976  0.0693
72962W        W16015  21.948  10.886   0.893 -0.0334  0.2031 -0.2414
72963W        W16016  25.232  12.140   1.186  0.0948 -0.0216  0.0162
72964W        W16017  15.360   1.461  18.529  0.0226 -0.0413 -0.2816
72965W        W16018   6.576   6.290  10.969  0.1936 -0.2081 -0.0216
72966W        W16019  26.349  26.059  23.671 -0.1395 -0.1657 -0.1894
72967W        W16020  15.310  17.848   5.516 -0.2498  0.1136 -0.1772
72968W        W16021   7.704  22.007  23.464  0.1604  0.0508 -0.3059
72969W        W16022  34.471  33.682  22.198 -0.0250  0.0819  0.2086
72970W        W16023   0.471  26.767   6.328 -0.0926  0.1596 -0.0383
72971W        W16024  17.038  16.475  23.958 -0.0923  0.0565  0.1635
72972W        W16025   2.665  27.263   0.291  0.0899 -0.1781 -0.1573
72973W        W16026   9.385  29.560  21.173  0.0640  0.0084  0.0284
72974W        W16027   5.783  23.399  22.968 -0.1156  0.1312  0.4528
72975W        W16028  11.047  20.390  14.365  0.1618 -0.0039  0.1030
72976W        W16029  28.679  24.227  27.447  0.3144  0.0346  0.0137
72977W        W16030   5.284  24.641   8.302 -0.1616 -0.4361  0.0038
72978W        W16031  25.526  25.140   6.881 -0.0411  0.3351  0.2796
72979W        W16032   7.677  20.072   9.417  0.5700 -0.3219  0.1047
72980W        W16033   9.012  14.499   7.930  0.0285  0.1337  0.0883
72981W        W16034  11.340  29.506   6.885 -0.0198 -0.0179  0.0436
72982W        W16035  15.275  28.546  27.596 -0.0967  0.2958 -0.1555
72983W        W16036  22.263  25.799   6.064 -0.0421  0.0471  0.0775
72984W        W16037  12.594  14.809  25.487  0.1519 -0.3574 -0.1101
72985W        W16038  31.066  14.717   2.564 -0.1847 -0.0375 -0.0906
72986W        W16039  24.187  29.567   3.418 -0.2115 -0.1006  0.3982
72987W        W16040  28.631  21.149   7.332  0.0020  0.0161 -0.1448
72988W        W16041   8.342  13.735   1.589 -0.0739 -0.0892  0.0734
72989W        W16042  27.872  21.446  23.320 -0.0050  0.4487 -0.1520
72990W        W16043  15.005  23.825  27.241  0.1670 -0.0909  0.0414
72991W        W16044   5.913  29.147  21.204  0.1633 -0.2814 -0.0009
72992W        W16045   2.292  14.179   4.429 -0.1473 -0.0775  0.0469
72993W        W16046  21.215  32.003  21.347 -0.1208  0.1711 -0.0313
72994W        W16047  32.061   0.343  17.433  0.0811  0.0514  0.1166
72995W        W16048  29.463  28.589   0.473 -0.2240  0.0829  0.1264
72996W        W16049  26.022  22.137  23.884 -0.0032  0.1084  0.0492
72997W        W16050  32.531   7.423   3.602  0.1969  0.0285  0.1257
72998W        W16051  32.821  32.896  26.285  0.2348  0.2489 -0.0499
72999W        W16052   7.479  17.580  24.372  0.1553  0.4584  0.4098
73000W        W16053   2.739  15.651   3.844  0.4138 -0.3070  0.1058
73001W        W16054   0.521  13.010   6.196 -0.0511  0.1240 -0.0181
73002W        W16055   2.350  26.095  25.956  0.0195 -0.0031 -0.2410
73003W        W16056  32.492  15.245   0.520  0.1710  0.1961  0.0434
73004W        W16057   5.690  15.305  25.221  0.0132 -0.4584  0.1760
73005W        W16058  31.483  15.411  20.568  0.0043  0.1970  0.1410
73006W        W16059   7.105   9.911   6.021  0.0723  0.2077 -0.0959
73007W        W16060  21.776  26.104  27.012  0.0431  0.1294  0.0625
73008W        W16061   9.948  30.276   1.375  0.1321 -0.2353  0.0285
73009W        W16062   8.965  18.721   6.505  0.3992  0.1525 -0.1042
73010W        W16063   5.901  17.821   3.013  0.0931  0.2238  0.6108
73011W        W16064  17.514   0.127  27.322  0.0955  0.1891  0.0915
73012W        W16065  24.067  27.410   7.574 -0.0853  0.1197  0.0902
73013W        W16066  18.981  22.631  27.562  0.0523 -0.0821 -0.3154
73014W        W16067  30.412  13.760  22.825  0.3440  0.5257  0.1261
73015W        W16068   2.004  31.491  24.592  0.0163 -0.1780 -0.0024
73016W        W16069  17.726  29.783   9.265  0.1968 -0.1844 -0.0010
73017W        W16070  19.874   0.291   4.661 -0.0440 -0.1630 -0.0824
73018W        W16071   6.219  24.722   1.341  0.0031  0.0755  0.2033
73019W        W16072   5.303  26.447   6.225 -0.1712  0.1589 -0.0475
73020W        W16073  11.885  24.576   7.134  0.2068 -0.2042 -0.0055
73021W        W16074   5.864   8.118  26.416 -0.0133 -0.2086 -0.3195
73022W        W16075  10.418  20.859   1.527 -0.3753 -0.1610 -0.1462
73023W        W16076  33.192  22.637   2.766 -0.3144  0.0000  0.0296
73024W        W16077  34.600  21.099  24.215 -0.0797 -0.1810  0.0726
73025W        W16078  21.071  31.426  28.940  0.1619 -0.1706  0.0759
73026W        W16079   6.877   4.168  10.668  0.1355  0.0548  0.2254
73027W        W16080  26.510  19.019   2.750  0.1664  0.0255  0.0010
73028W        W16081  13.567  20.281  17.697 -0.0873  0.0182  0.2352
73029W        W16082  17.492  16.180  28.647 -0.0482  0.1189 -0.1976
73030W        W16083   8.411   4.386   8.401 -0.0674 -0.0273 -0.2121
73031W        W16084  33.864  16.438  22.790 -0.0248  0.2262  0.0588
73032W        W16085   2.582  17.928  20.650  0.0635  0.2307  0.1266
73033W        W16086  12.417  27.401  18.869 -0.0526  0.2737  0.0744
73034W        W16087   4.633  11.928  24.985  0.1568 -0.0766  0.0449
73035W        W16088  18.204   5.229   2.239 -0.0811 -0.2833  0.4037
73036W        W16089  16.502  29.149   3.942 -0.0346 -0.1724  0.0843
73037W        W16090  28.832  11.776   4.357  0.2884  0.0738 -0.0241
73038W        W16091   6.169  13.927   5.582  0.0488  0.0917 -0.3184
73039W        W16092  19.196  11.861  18.586 -0.3633 -0.0008  0.2920
73040W        W16093  10.194  21.475  10.117 -0.1407 -0.1800 -0.1969
73041W        W16094   9.873  18.180   3.142  0.1934  0.1116 -0.1558
73042W        W16095  34.634   9.410   6.646 -0.0863  0.1322 -0.1499
73043W        W16096  32.128  15.437   1.587  0.1322  0.0780  0.0039
73044W        W16097  28.343  17.716  23.629 -0.3957 -0.0246 -0.1052
73045W        W16098  12.570  17.725  19.856  0.1994  0.0937  0.2142
73046W        W16099  24.874  26.811  13.883  0.0181 -0.0204  0.1814
73047W        W16100  14.307   6.871  21.771 -0.0601 -0.0099 -0.1575
73048W        W16101  12.921  29.540   5.085 -0.1390  0.1505 -0.2105
73049W        W16102  27.081  18.264  28.991 -0.0257  0.0351 -0.1933
73050W        W16103  11.114  18.199  25.715  0.2509  0.0738  0.0630
73051W        W16104  30.463  22.164  24.024  0.1911  0.0058 -0.0251
73052W        W16105  11.978  17.099   8.753 -0.0464  0.0341  0.0444
73053W        W16106   1.490  18.390  23.328 -0.2123 -0.0211  0.1319
73054W        W16107   7.594  27.147  28.134  0.2933 -0.2616  0.1619
73055W        W16108  27.368  21.815   7.206  0.1404  0.1089 -0.1090
73056W        W16109  12.365  22.867   5.730 -0.0378  0.0569 -0.0864
73057W        W16110  22.609  30.470   3.747  0.2116 -0.0618 -0.2197
73058W        W16111  34.296  31.209  26.865  0.1335 -0.2159  0.1742
73059W        W16112  16.750  24.909   6.440 -0.0757 -0.1228 -0.2347
73060W        W16113  29.457  25.426  27.339 -0.1731 -0.1753  0.0685
73061W        W16114   4.690  28.444  26.457 -0.0222 -0.1502 -0.1389
73062W        W16115  14.430  30.962   5.168  0.0753 -0.1134  0.1232
73063W        W16116  31.724  33.200  25.686 -0.3562 -0.0166 -0.1279
73064W        W16117   6.470  23.303  22.010 -0.0615  0.5138  0.1635
73065W        W16118  13.407  16.029   2.574 -0.0602 -0.3016  0.0077
73066W        W16119   3.222  29.630  21.538 -0.0228  0.0964  0.1175
73067W        W16120  26.905  28.008  27.378 -0.1472  0.0145 -0.0086
73068W        W16121   6.193   2.772   3.611 -0.1894  0.1093 -0.0749
73069W        W16122   7.292  29.799   2.065  0.0207  0.0368 -0.4395
73070W        W16123  10.889   2.032   2.710 -0.1147  0.1490  0.1201
73071W        W16124   7.534  32.871   4.416  0.0348  0.1795 -0.1223
73072W        W16125  33.418  26.937   8.908 -0.2843 -0.0473 -0.0350
73073W        W16126  31.831  24.529  27.302 -0.1008 -0.0516  0.0053
73074W        W16127  21.901   2.957   1.963 -0.1347  0.0835 -0.1877
73075W        W16128  33.050  11.117   5.349  0.0456  0.0846  0.3290
73076W        W16129  18.147   1.846  19.592 -0.1106 -0.0506 -0.0251
73077W        W16130   4.185  27.416   0.262 -0.0930 -0.0864 -0.0542
73078W        W16131  29.466  20.149   6.119  0.2260  0.0294  0.1643
73079W        W16132   8.198  11.633  14.746  0.1722 -0.1144  0.0628
73080W        W16133  31.381  13.424   8.691  0.1061  0.1210 -0.0982
73081W        W16134  33.057  13.721   9.905  0.1230 -0.1619  0.1549
73082W        W16135  33.996  28.792   4.988  0.2474  0.3680 -0.0516
73083W        W16136  34.023  17.588  27.271 -0.0487 -0.0039 -0.1483
73084W        W16137   0.610  34.674   3.571  0.3835 -0.3659  0.2147
73085W        W16138  32.385  11.942   6.960  0.4018  0.0681  0.3619
73086W        W16139  33.811  16.311   1.196 -0.0291 -0.1120  0.2259
73087W        W16140   5.285  30.495  23.333 -0.2660  0.0028 -0.1303
73088W        W16141   2.658  15.094   5.704  0.3214 -0.0714 -0.1464
73089W        W16142   0.799  15.294   4.627  0.0222 -0.1496 -0.3135
73090W        W16143  27.858  18.603  23.375 -0.1261 -0.0095 -0.0470
73091W        W16144  29.938  10.045  24.582 -0.0246 -0.1686 -0.2638
73092W        W16145  33.169  20.635  23.312 -0.1259 -0.2303 -0.0942
73093W        W16146   3.767  26.817  21.138 -0.3338 -0.1285  0.1365
73094W        W16147  33.747  23.413  21.359 -0.3641 -0.2412 -0.1600
73095W        W16148  29.327  24.683   2.522  0.1251 -0.1747  0.3010
73096W        W16149  32.775  17.093  27.767 -0.0380 -0.4208  0.1865
73097W        W16150   2.184  23.255  24.655 -0.2145  0.0934 -0.0204
73098W        W16151   7.075   4.026   9.080 -0.1574  0.0785 -0.0881
73099W        W16152   4.798  34.518  21.287 -0.2098 -0.1466  0.0122
73100W        W16153  30.571  18.927  29.084 -0.1978 -0.2114  0.0640
73101W        W16154   7.363  29.057   7.712  0.2688  0.2346  0.0763
73102W        W16155   3.394  27.490   1.024 -0.1551  0.0883  0.1345
73103W        W16156   8.343  20.513   1.538  0.0326  0.0049  0.1188
73104W        W16157  22.715  11.899  23.540 -0.1866 -0.2997  0.1732
73105W        W16158   7.257  30.077   6.171 -0.3971 -0.4211  0.2994
73106W        W16159  33.967  14.167   3.571 -0.2173  0.0566 -0.1323
73107W        W16160   4.593  29.352  22.973 -0.0686 -0.1202 -0.2607
73108W        W16161  13.479   0.836   5.749  0.1001 -0.3057  0.4058
73109W        W16162  16.737  15.040   8.014 -0.2638 -0.0822 -0.1477
73110W        W16163   0.145   8.020  21.996 -0.2986 -0.0403  0.0842
73111W        W16164   1.165  31.593   5.361 -0.1709  0.1479 -0.0047
73112W        W16165  26.026   7.843  23.372 -0.1761  0.1145  0.0533
73113W        W16166   1.987  21.965   4.013  0.4001  0.0574 -0.0159
73114W        W16167   1.155  20.907   9.429 -0.0736 -0.3430 -0.0584
73115W        W16168   2.252  16.793  21.188 -0.1891 -0.1751  0.0560
73116W        W16169   4.268  26.298   5.054 -0.1976  0.0102  0.0949
73117W        W16170  25.584  30.827   3.721  0.0766  0.2984  0.1853
73118W        W16171   4.802  22.390   7.737  0.0391 -0.1875  0.2042
73119W        W16172  29.385  11.403   8.807 -0.2829 -0.1961  0.0333
73120W        W16173  12.342  18.197   9.619  0.2476  0.2210  0.0525
73121W        W16174   0.835  23.373   6.999  0.1114 -0.2167 -0.1836
73122W        W16175  33.689   5.555  23.359 -0.2690  0.4311  0.1567
73123W        W16176   5.909  27.357   2.642  0.0605 -0.0065 -0.5699
73124W        W16177   4.157   0.663  20.006  0.0897  0.1334  0.0909
73125W        W16178  18.846  31.012   5.268  0.0778 -0.1267 -0.0999
73126W        W16179  24.378   7.494   2.293 -0.3084 -0.2450  0.1297
73127W        W16180  31.728  30.544  24.438  0.2527 -0.0808  0.2596
73128W        W16181  22.068   4.514  26.392 -0.0398  0.1973 -0.1830
73129W        W16182   4.533   4.677  27.934  0.1394  0.1030 -0.0540
73130W        W16183  33.991  21.514   1.648 -0.0939  0.0254 -0.2474
73131W        W16184   2.348  22.571   9.004  0.1593  0.0366 -0.0881
73132W        W16185  11.372  23.348  24.840 -0.1807 -0.0326  0.1436
73133W        W16186  11.512   9.332   9.690  0.0488 -0.2659 -0.0400
73134W        W16187  22.807   2.148   0.333 -0.0986 -0.2971  0.2271
73135W        W16188   7.347  30.630   0.080 -0.1956 -0.1315  0.3815
73136W        W16189  21.035   8.053   7.911 -0.2699 -0.1588 -0.0818
73137W        W16190  31.496  16.726   3.222  0.0340  0.0923 -0.1359
73138W        W16191   7.603  19.595   9.183 -0.1478 -0.2570  0.0238
73139W        W16192   9.102  33.039   7.019 -0.1813  0.1717  0.1895
73140W        W16193   4.992  25.215  22.195  0.1427 -0.0752  0.1896
73141W        W16194   8.431  24.603   2.250  0.0609 -0.0681  0.0185
73142W        W16195  32.012   6.647   0.414 -0.2193 -0.0345 -0.0394
73143W        W16196   5.933  14.381  21.368  0.3413 -0.0363  0.2237
73144W        W16197  17.282  18.566  27.374 -0.0704 -0.1834 -0.0056
73145W        W16198  18.227  17.208   9.601  0.2003  0.2483 -0.1059
73146W        W16199  20.429  11.446  23.949 -0.1229 -0.0362 -0.1471
73147W        W16200  32.135   9.511  27.491 -0.2244  0.1598 -0.1041
73148W        W16201   7.677  22.126   8.985  0.1136  0.0707 -0.4412
73149W        W16202  15.202  11.517   4.352 -0.1581  0.1669 -0.1938
73150W        W16203  14.533  28.343  21.054  0.1772 -0.1323  0.1685
73151W        W16204  29.585  16.724   7.067  0.1679 -0.2869  0.0806
73152W        W16205  30.888  31.702   8.074 -0.2546  0.3597  0.1285
73153W        W16206  15.050   5.477   6.371  0.3639  0.1459  0.1446
73154W        W16207  34.329  12.820   1.156 -0.0046 -0.4467  0.1560
73155W        W16208   4.953   6.491   9.659  0.2618  0.0403 -0.0338
73156W        W16209   7.851  32.538   6.500 -0.1154 -0.1668  0.0408
73157W        W16210  10.203  13.612   2.427 -0.2753 -0.1973 -0.0692
73158W        W16211  11.241  17.955   3.181 -0.0163  0.0468  0.3582
73159W        W16212   8.065  19.379   6.655 -0.4037  0.1065  0.0090
73160W        W16213   9.627   8.592  24.272  0.2488  0.0585 -0.0186
73161W        W16214   3.863  21.467  26.986 -0.4170  0.0443 -0.1355
73162W        W16215   3.568  29.639  23.129 -0.1046  0.1092 -0.2894
73163W        W16216  22.404  22.569   7.339  0.1627 -0.0067  0.2310
73164W        W16217  16.276  26.821   4.173  0.2704 -0.3765  0.3095
73165W        W16218   7.776  17.346  20.978 -0.0166  0.1325 -0.1188
73166W        W16219  30.001  21.297   3.112  0.0349  0.0815  0.3245
73167W        W16220   3.095   0.160   6.587  0.0680 -0.1901  0.2177
73168W        W16221  34.289  25.150   7.999 -0.3161 -0.0840 -0.0040
73169W        W16222   0.308  18.279   1.351  0.0968  0.0464  0.3063
73170W        W16223  15.658   3.642   6.610  0.0572  0.0704 -0.0195
73171W        W16224  15.161   8.504   3.454  0.0140  0.2009 -0.0177
73172W        W16225  32.230  15.358  10.061  0.0591  0.2306  0.1132
73173W        W16226   5.782   9.743  17.994 -0.1339  0.0345 -0.1078
73174W        W16227  10.063  34.227  26.732  0.0610  0.0065 -0.2878
73175W        W16228   5.579   2.918   1.806  0.0363 -0.0350  0.1584
73176W        W16229  10.544  25.208   5.653 -0.2241 -0.0030 -0.3987
73177W        W16230   3.581  27.847   5.645 -0.3433 -0.1808  0.0581
73178W        W16231  34.409  24.641  24.419 -0.0041  0.0722 -0.1735
73179W        W16232   5.685  30.618   6.849  0.0681  0.0234  0.1111
73180W        W16233   0.546  24.908  27.220  0.2500 -0.1130  0.0112
73181W        W16234   8.684  12.984  23.948  0.4390  0.0181  0.0650
73182W        W16235  19.055  20.267   6.129  0.3038  0.0186 -0.0989
73183W        W16236   3.245  15.155   2.715  0.0861 -0.1980 -0.0536
73184W        W16237  25.625  12.449   2.343 -0.1635  0.0251 -0.0378
73185W        W16238   9.018  32.002  10.085 -0.1757 -0.3099  0.1739
73186W        W16239  25.295  28.823   0.025  0.3652 -0.1642 -0.0772
73187W        W16240  13.227  18.974  27.744  0.1546 -0.1150  0.3630
73188W        W16241  28.076  21.818   8.593 -0.0921 -0.0182 -0.0148
73189W        W16242   0.751  19.477  22.281  0.3739  0.3752  0.2484
73190W        W16243  34.651  33.835   2.234 -0.1566  0.4959 -0.4281
73191W        W16244  23.603  26.033   8.066  0.2365 -0.0372 -0.0682
73192W        W16245   7.724  24.156  28.963  0.1181 -0.1393  0.1695
73193W        W16246   8.801  22.015  15.263 -0.1555 -0.1441  0.0269
73194W        W16247  20.890  16.484   4.597 -0.3349  0.0144  0.0655
73195W        W16248  30.259  19.019  28.693  0.1137 -0.2058 -0.1373
73196W        W16249  12.018   3.980   9.738  0.0827  0.1492  0.1502
73197W        W16250  10.614   2.635   8.824 -0.1658  0.0877  0.2025
73198W        W16251  24.955   8.602  21.920  0.2647  0.2381 -0.0979
73199W        W16252   8.431  19.606  22.120 -0.1438 -0.1501 -0.0447
73200W        W16253  16.740  17.900   5.787  0.1431 -0.2293  0.2390
73201W        W16254   5.044   8.654   2.872  0.4621  0.0690 -0.0443
73202W        W16255   1.484  15.174   5.061 -0.0556  0.2509  0.0154
73203W        W16256   2.905  30.581  21.438  0.2070  0.3462  0.0359
73204W        W16257  25.076  33.006   7.553 -0.3657 -0.1301 -0.0694
73205W        W16258  30.095  21.175  25.573  0.3239 -0.3842  0.1235
73206W        W16259  28.562  20.849  21.512 -0.2166 -0.1070  0.0791
73207W        W16260  28.538  27.766  24.261 -0.2072  0.0624  0.2521
73208W        W16261   7.152  18.425  16.272  0.1988 -0.0941 -0.4125
73209W        W16262  19.665  26.385  21.435  0.0957 -0.0538 -0.2669
73210W        W16263  30.006  11.494   6.900 -0.2314  0.3881  0.0037
73211W        W16264   2.928  10.774  14.543  0.0124 -0.0370 -0.1369
73212W        W16265  12.622  20.058  28.742  0.2261 -0.0104 -0.1659
73213W        W16266  28.448  23.468   5.186 -0.4249  0.0573 -0.3137
73214W        W16267  13.201  18.893   8.714 -0.0308 -0.5437 -0.2105
73215W        W16268  15.209  22.262  22.381 -0.1248  0.4748 -0.3041
73216W        W16269  33.181   7.790   5.135  0.4005  0.0848  0.4531
73217W        W16270  26.086  15.353   2.584 -0.1214 -0.0095 -0.0472
73218W        W16271  27.161  29.146   1.436  0.0972  0.1647  0.1997
73219W        W16272  25.984  25.326  28.415 -0.1678 -0.1038  0.1999
73220W        W16273  14.027  27.086  26.269 -0.2715  0.2666  0.0896
73221W        W16274   4.663  24.959  23.992 -0.1505  0.1820 -0.2647
73222W        W16275   7.288  30.103   1.195  0.2018 -0.1356 -0.0958
73223W        W16276  13.563   8.098  20.398  0.0610  0.1583 -0.3666
73224W        W16277  30.661  16.579  27.659  0.2920 -0.2285 -0.0960
73225W        W16278   8.596  26.963  22.880 -0.0299 -0.1288 -0.0004
73226W        W16279  26.301  20.001  23.620 -0.0667  0.0247 -0.0790
73227W        W16280  11.868  15.276   6.540 -0.2669  0.1612  0.0251
73228W        W16281  32.561  10.427  28.864  0.0857  0.1707 -0.0741
73229W        W16282   3.963  20.793   9.189 -0.0504  0.1789 -0.0014
73230W        W16283  11.439  30.475   2.746  0.1220  0.2115 -0.1282
73231W        W16284   5.214  17.521  20.143  0.0088 -0.4118 -0.1854
73232W        W16285   1.271  32.410   0.660 -0.1327  0.1924  0.0063
73233W        W16286   9.025  11.719  20.944  0.0941 -0.5219 -0.2164
73234W        W16287   1.124  21.289   6.846 -0.0409  0.3177 -0.0341
73235W        W16288   0.788  21.479  25.248  0.2382 -0.2798 -0.1327
73236W        W16289   2.348  27.224   1.470  0.0856  0.1373  0.0665
73237W        W16290  26.287  26.728   2.811 -0.0155 -0.2134  0.1209
73238W        W16291   6.220  28.711   5.976 -0.3094 -0.4661  0.4084
73239W        W16292  29.915  20.227  27.864  0.1420  0.0374  0.0974
73240W        W16293  30.974   0.714   1.352 -0.0972 -0.1958  0.1027
73241W        W16294   5.428   7.395  20.499  0.1380  0.0106 -0.0889
73242W        W16295  18.852  28.002  21.831  0.1487  0.1743  0.1146
73243W        W16296   4.679  27.617   2.892 -0.2331  0.1353  0.0714
73244W        W16297   0.970  17.957   6.196 -0.1510 -0.0383  0.1183
73245W        W16298   4.125   3.512   4.218  0.0705  0.1914 -0.0418
73246W        W16299  33.420  27.297  26.273  0.1709  0.0760  0.0060
73247W        W16300   5.734  13.202   8.293 -0.0186  0.0498 -0.0446
73248W        W16301  23.160  18.920   2.287 -0.2357 -0.1219  0.0235
73249W        W16302  12.794  16.871   8.398  0.1293  0.0279 -0.2082
73250W        W16303   7.285  29.940   8.239 -0.1135 -0.2003 -0.0025
73251W        W16304   4.200  15.139   2.254 -0.2126  0.2740 -0.2286
73252W        W16305  10.949  27.956  23.677 -0.0931  0.0490  0.0169
73253W        W16306   7.213  18.168   0.965 -0.0807 -0.0344 -0.2430
73254W        W16307   3.965  23.009  16.403 -0.0722  0.1507 -0.2860
73255W        W16308   6.075  28.833  27.670 -0.1499  0.2570 -0.0591
73256W        W16309  13.335  24.412   3.951  0.1054 -0.0756 -0.1446
73257W        W16310   1.930  23.940  21.951  0.1797  0.0045 -0.1917
73258W        W16311  33.293  21.862   2.398  0.0024  0.0794  0.4493
73259W        W16312   4.941  34.034   3.544  0.2427  0.2778 -0.0471
73260W        W16313  27.245  17.900   3.920  0.0633 -0.1745  0.1684
73261W        W16314  28.613  11.421   2.987 -0.1252  0.4307  0.0274
73262W        W16315   5.435   6.089  27.334  0.1846  0.1709  0.2108
73263W        W16316  22.459  20.243   6.137 -0.2089  0.0353  0.3926
73264W        W16317  14.900   6.186   1.909  0.0895 -0.0033 -0.4789
73265W        W16318  11.663  20.734  27.951 -0.0475 -0.0062  0.0242
73266W        W16319   3.161  34.594   0.336 -0.0400 -0.0147 -0.0602
73267W        W16320  12.472  13.808  10.141  0.0264 -0.0786  0.1806
73268W        W16321  10.040  18.893   1.033  0.1607 -0.1663 -0.0565
73269W        W16322  24.277   0.191  21.819 -0.0914  0.0555  0.2016
73270W        W16323   3.159  19.018   1.402 -0.2466 -0.0464 -0.0603
73271W        W16324   2.763  26.790  25.584  0.0387 -0.3089  0.0988
73272W        W16325  30.901  16.999  29.192 -0.0052  0.1877 -0.1515
73273W        W16326  32.290  30.087   1.140 -0.2654 -0.2434 -0.2083
73274W        W16327   6.406  20.072  27.380  0.1132 -0.0970 -0.2758
73275W        W16328   2.692  16.935  24.867  0.2254 -0.2228  0.2339
73276W        W16329  13.167   2.792  16.109 -0.0255 -0.0068  0.3195
73277W        W16330  10.396   6.007   6.746  0.1595 -0.0671  0.0275
73278W        W16331   4.318  33.038   4.434 -0.2688 -0.0906  0.7073
73279W        W16332  11.362   1.065  10.039 -0.2223 -0.0369 -0.3673
73280W        W16333  34.584   9.171   7.661  0.0846 -0.1568 -0.3867
73281W        W16334  32.386  22.031   2.692  0.0780  0.0122  0.3954
73282W        W16335   7.117  24.336  26.460  0.1878  0.1781  0.1522
73283W        W16336   7.663  24.722   4.119  0.3972  0.0353 -0.3902
73284W        W16337   1.445  26.603  21.142 -0.0636  0.0639 -0.1909
73285W        W16338   0.234  23.427   3.449 -0.0514  0.3105 -0.2491
73286W        W16339  12.737  27.772   2.146  0.0792  0.2944 -0.0873
73287W        W16340  12.212   7.854   4.166 -0.1825  0.0233  0.0880
73288W        W16341  16.324  21.738  22.039 -0.0559 -0.0114 -0.1065
73289W        W16342  28.219  33.760   1.210 -0.3278 -0.1293  0.3178
73290W        W16343  19.671  33.483   2.353  0.3048  0.1782 -0.0973
73291W        W16344   1.358  23.919   4.682  0.2241  0.4286  0.2906
73292W        W16345   7.881  23.918   9.118  0.1190 -0.1028  0.2447
73293W        W16346   7.654  14.013   2.210  0.0713  0.2776  0.2180
73294W        W16347  11.969   9.617  17.200  0.2177 -0.2221 -0.2149
73295W        W16348  29.971  11.126   3.661 -0.1395 -0.1095 -0.0487
73296W        W16349   4.302  24.161   9.639  0.1609  0.3146 -0.0175
73297W        W16350  24.974  10.585  23.311 -0.0595  0.2557 -0.0603
73298W        W16351   0.042  17.923  20.250  0.0629 -0.1763 -0.1831
73299W        W16352   7.461  21.032  23.404 -0.0372 -0.0361 -0.0174
73300W        W16353   1.419  10.535  19.409  0.3549 -0.0055  0.2104
73301W        W16354  10.011   7.583   6.018 -0.0474  0.1019 -0.0683
73302W        W16355   9.754  23.235  19.769  0.1515  0.1040  0.0449
73303W        W16356   8.394  24.342   8.800  0.2595 -0.0361 -0.0921
73304W        W16357   9.174  21.958   8.916  0.1692 -0.1216  0.1479
73305W        W16358  30.901   1.918   5.195  0.0528 -0.0718  0.0832
73306W        W16359   4.412  22.194   8.978 -0.1779  0.2256  0.2348
73307W        W16360   8.236  20.101  28.420  0.0259 -0.1656 -0.2507
73308W        W16361  15.854  14.961   7.440  0.2019 -0.1558 -0.2680
73309W        W16362   7.606  28.073  27.213 -0.1486  0.1158  0.1412
73310W        W16363  30.212  34.503   0.792  0.1554  0.1181  0.1710
73311W        W16364   8.025   1.510   9.370 -0.2483 -0.1368  0.2780
73312W        W16365  10.009   0.048   9.592 -0.1961 -0.0808 -0.0398
73313W        W16366  33.629  23.745   0.325  0.4439 -0.2087 -0.0756
73314W        W16367  14.101  32.673   2.122 -0.0786 -0.3308 -0.3952
73315W        W16368  26.660  24.450   6.412  0.1049  0.1104 -0.1754
73316W        W16369  33.306  14.046   7.352  0.0473 -0.1648  0.2603
73317W        W16370  28.233  21.723  17.015 -0.0743 -0.1382 -0.1246
73318W        W16371  23.743  25.727  27.490 -0.0011 -0.0481  0.1460
73319W        W16372   0.334  28.003   3.246  0.2941 -0.1654  0.4983
73320W        W16373   0.105  28.729  23.150 -0.0382  0.1263 -0.1367
73321W        W16374   9.162  21.647   6.640  0.0936  0.1442 -0.0137
73322W        W16375  15.360  12.607   7.119  0.1847  0.2776  0.0793
73323W        W16376  17.792   4.347  17.603  0.4087 -0.2637  0.3160
73324W        W16377  13.018  26.489   2.920 -0.1745  0.1040  0.0593
73325W        W16378   4.371  10.670  10.896 -0.1234 -0.1365  0.2698
73326W        W16379  17.814   9.446   1.710 -0.0802 -0.1990  0.4245
73327W        W16380  12.599  15.437   4.712 -0.3950 -0.0009  0.1654
73328W        W16381   7.982  30.727   8.139 -0.2597 -0.1519 -0.1092
73329W        W16382  28.946   4.718   6.639 -0.2299 -0.0429  0.4475
73330W        W16383   2.142  13.126   4.340  0.2590  0.2046 -0.0761
73331W        W16384   7.280  27.098  26.729 -0.0734  0.3508  0.0059
73332W        W16385  31.206   0.203  23.166 -0.0697  0.4303 -0.0437
73333W        W16386  17.747  23.117   6.339  0.1696  0.1451  0.0099
73334W        W16387  19.744  10.908  26.146 -0.0330  0.2643 -0.1970
73335W        W16388  34.383  10.206   9.813  0.0309  0.1779 -0.0185
73336W        W16389   6.512  19.407   4.573  0.1228  0.1206 -0.3026
73337W        W16390   8.858  25.947   8.099  0.2871  0.1140  0.0673
73338W        W16391   6.682  31.456   4.399 -0.0216 -0.2383  0.0226
73339W        W16392   4.089  28.890   0.999  0.1693 -0.0075 -0.0054
73340W        W16393  18.135  13.467  23.728  0.1005 -0.3268 -0.2225
73341W        W16394   3.242  26.344  20.020 -0.1036 -0.1525  0.3591
73342W        W16395   0.887  26.818  22.063  0.1568  0.3011  0.4648
73343W        W16396   6.279  11.110   4.456 -0.1266 -0.0642 -0.0927
73344W        W16397  16.405  20.584   8.674  0.1656  0.0892  0.0264
73345W        W16398  32.776  11.032  10.148  0.4690 -0.0700  0.1590
73346W        W16399  31.846  13.805  20.905 -0.1535 -0.0955 -0.0044
73347W        W16400  21.867  21.290   7.300  0.0102  0.1771 -0.0351
73348W        W16401  28.936  31.113   4.801  0.1851  0.0559  0.1144
73349W        W16402  34.553  21.359  23.638  0.1090  0.0989  0.2319
73350W        W16403  31.188  26.243  14.251 -0.1066  0.1161  0.0615
73351W        W16404  14.613  28.204   7.324  0.0773 -0.0295 -0.0631
73352W        W16405   9.613  15.418   7.320  0.1860 -0.0073  0.0183
73353W        W16406  22.683  32.116  26.135 -0.4355  0.1411  0.1242
73354W        W16407  30.934  10.174   9.689 -0.1445 -0.2055  0.3148
73355W        W16408  11.038   3.315   8.270  0.3162 -0.0227  0.1199
73356W        W16409   9.623  24.811   2.617  0.3476 -0.1159 -0.2243
73357W        W16410   6.033  18.751   6.227 -0.0648 -0.3156  0.2982
73358W        W16411  28.875  25.846  26.228  0.1838 -0.1436  0.1650
73359W        W16412  11.753  23.267  28.015 -0.0143 -0.2023  0.2267
73360W        W16413  33.930  18.051   1.898  0.0885  0.2774  0.0749
73361W        W16414   1.419  23.223   7.219  0.2837  0.0524  0.0097
73362W        W16415   4.437  24.981   1.933 -0.0508  0.2075 -0.2042
73363W        W16416   2.213  34.325   4.208 -0.1332 -0.0616 -0.1156
73364W        W16417  28.239  34.493  27.445 -0.2509  0.1661 -0.0973
73365W        W16418  16.014  22.977   4.432 -0.0452  0.0833 -0.2090
73366W        W16419   7.539  26.237  25.170  0.2297  0.2068 -0.0103
73367W        W16420  26.948  19.973   3.037  0.2856  0.1429  0.0109
73368W        W16421  23.650  25.984   3.952 -0.0682 -0.2255  0.0917
73369W        W16422  25.240  27.267   5.773  0.0612 -0.0975  0.1007
73370W        W16423  28.481   0.362   7.063 -0.1135 -0.0367  0.0600
73371W        W16424  30.161   0.325  27.547  0.1369  0.1046 -0.2015
73372W        W16425   2.722  33.900   5.172 -0.0809 -0.2518 -0.1833
73373W        W16426  30.529   6.301   4.486  0.2608  0.3847  0.1865
73374W        W16427  10.155  14.594  27.365  0.0740 -0.1210  0.1119
73375W        W16428  11.075  18.447   5.454  0.1608 -0.2528  0.3998
73376W        W16429  15.413  23.204   6.503  0.0757 -0.0953 -0.2326
73377W        W16430   8.680  21.360   6.446 -0.1563 -0.1947  0.3379
73378W        W16431  29.190  14.788   4.592 -0.0742  0.1179 -0.0108
73379W        W16432   9.216  10.108  26.790  0.2789  0.3429 -0.0197
73380W        W16433   1.866  21.304  20.917 -0.2357 -0.2153 -0.1068
73381W        W16434   3.264  28.706  28.398 -0.0116 -0.2024 -0.1921
73382W        W16435   2.958   8.975  16.587 -0.0788 -0.0224  0.1009
73383W        W16436   2.482  23.388  29.055  0.1752 -0.0812 -0.1719
73384W        W16437  15.411  29.790   8.003  0.1196 -0.0353  0.0319
73385W        W16438   7.646  29.481  23.222  0.0456  0.1353 -0.0749
73386W        W16439   0.345  33.499   0.406 -0.0060 -0.1561 -0.0735
73387W        W16440   0.214  29.894  29.086 -0.0065  0.0071  0.1902
73388W        W16441  13.015  21.120   3.462 -0.0298  0.1637 -0.0900
73389W        W16442   4.124  30.964  27.473  0.0162  0.1331 -0.3201
73390W        W16443   6.608  22.696  10.103 -0.0479 -0.0193 -0.2213
73391W        W16444  13.117  30.920   1.066  0.2836 -0.1574  0.3285
73392W        W16445  33.163  19.193   9.596  0.0104  0.1051  0.1862
73393W        W16446  13.788  14.502   0.955  0.2446  0.2018 -0.1475
73394W        W16447  11.522  11.165   7.273  0.2739 -0.2423  0.2064
73395W        W16448  12.862  11.532  23.636 -0.0464  0.1570 -0.1134
73396W        W16449   7.410  33.539   2.745  0.1259  0.0382  0.2989
73397W        W16450  33.848  15.927   3.124  0.1274 -0.1082 -0.1311
73398W        W16451   5.170  31.525   4.854 -0.0405  0.1557 -0.1039
73399W        W16452   7.870   4.336   3.726 -0.3456 -0.1645 -0.3742
73400W        W16453   9.957  12.426  19.930  0.0714  0.2350 -0.0830
73401W        W16454  19.753  26.107   9.572 -0.1211  0.2773  0.0492
73402W        W16455  28.670  13.048  24.045  0.2248 -0.1502 -0.3308
73403W        W16456   7.081  15.989   0.195  0.1196 -0.2613 -0.1599
73404W        W16457  13.222  18.211   2.498  0.2746 -0.0524 -0.4587
73405W        W16458  18.429  21.190  23.434 -0.1997 -0.0212  0.1328
73406W        W16459   4.648   6.078  16.906  0.0048 -0.1882  0.1117
73407W        W16460   0.659  20.662  26.721  0.3460 -0.1591  0.1905
73408W        W16461  29.264   2.901   4.345 -0.0054  0.0224 -0.0382
73409W        W16462   6.690  33.416   3.502  0.2087  0.1819 -0.1903
73410W        W16463   0.679  30.072   9.215 -0.3249  0.0629  0.0941
73411W        W16464  29.812  12.549   1.714  0.0767  0.2131  0.1566
73412W        W16465   1.013  22.616   9.081  0.0732  0.1360  0.1564
73413W        W16466  26.784  20.947  25.461  0.2377 -0.1012 -0.1151
73414W        W16467  24.750  23.095  21.217 -0.0234 -0.1128 -0.1292
73415W        W16468  24.765  30.343   8.569 -0.0174  0.3056 -0.0195
73416W        W16469   4.299  32.265  28.206  0.1782 -0.2674  0.1961
73417W        W16470  20.405  19.505   4.477 -0.0747 -0.2172  0.2482
73418W        W16471   1.633   8.721   4.047 -0.0625 -0.0364  0.0058
73419W        W16472   3.274  19.554   8.918  0.0046  0.0888  0.1306
73420W        W16473  31.226  28.388  27.179  0.2841  0.1144  0.0261
73421W        W16474  13.323  16.348  23.042 -0.0530 -0.3295  0.1057
73422W        W16475   4.584   0.679  19.724 -0.2664 -0.0571  0.0090
73423W        W16476   9.467  19.556  14.701 -0.0862  0.2991 -0.0346
73424W        W16477  22.219  16.896  28.251  0.2402  0.1879 -0.0271
73425W        W16478  24.683  14.972   8.980 -0.0247 -0.1319  0.0026
73426W        W16479   4.265  20.768   3.253 -0.0979 -0.2471 -0.0001
73427W        W16480   4.253   7.922  16.996 -0.1976 -0.2277  0.1958
73428W        W16481  24.246  22.581   4.111  0.0902  0.0369  0.1023
73429W        W16482  15.540  15.653   4.035  0.0708 -0.2500 -0.0828
73430W        W16483   4.942   1.153   8.631 -0.0563 -0.0057 -0.0529
73431W        W16484  16.698  20.215   4.285 -0.3923 -0.0199  0.1311
73432W        W16485  11.812  13.879   4.688 -0.2342  0.0707 -0.0776
73433W        W16486   5.064  25.752   0.347 -0.4149 -0.0622 -0.2155
73434W        W16487  10.057  15.804  23.210  0.3434  0.3306 -0.0224
73435W        W16488  21.085   8.390   2.990  0.0047 -0.0674  0.2184
73436W        W16489   2.261  19.964   2.413 -0.1318 -0.3193  0.3560
73437W        W16490  25.216  32.677   3.710  0.1595  0.1702 -0.3012
73438W        W16491  10.298  24.937   0.871  0.2434  0.2114  0.0958
73439W        W16492  19.912  13.780  24.351 -0.1912  0.1947  0.2008
73440W        W16493  33.415  13.816   0.106  0.1471  0.1877 -0.0510
73441W        W16494  15.732  15.735  22.787 -0.2289 -0.0503  0.1935
73442W        W16495   1.787  25.110  27.919 -0.0834  0.4296 -0.1535
73443W        W16496  33.744  33.581   9.309 -0.3793 -0.0555  0.1083
73444W        W16497   3.873  20.293  22.822 -0.1634  0.2718 -0.2307
73445W        W16498  27.980  20.261   5.610 -0.0827  0.1191 -0.0719
73446W        W16499  24.418  22.682  21.056  0.0962  0.0771 -0.1204
73447W        W16500  22.476   1.673   6.282 -0.1318 -0.1569  0.1478
73448W        W16501   0.663  31.099   3.088  0.2491  0.1486  0.0993
73449W        W16502  14.284   3.567   9.079 -0.1301 -0.1186 -0.0911
73450W        W16503  11.944   0.426   7.344 -0.0331 -0.0316 -0.1449
73451W        W16504  27.953  30.604   8.412  0.1131  0.3356  0.2090
73452W        W16505  19.914  15.370  22.094 -0.0356  0.0680  0.2452
73453W        W16506  17.914  21.456   6.208 -0.0632 -0.0722 -0.2610
73454W        W16507  19.585  15.136   5.839 -0.1489  0.0521  0.0064
73455W        W16508   7.139   8.253  17.370 -0.0805 -0.5279 -0.2685
73456W        W16509  12.599  30.967   9.137  0.2378  0.0648 -0.0555
73457W        W16510   5.352  23.401   9.596 -0.1417 -0.0146  0.1151
73458W        W16511   4.953  20.338  26.150  0.3803 -0.2940  0.1216
73459W        W16512   8.082  27.532  22.176  0.2177 -0.0322  0.0954
73460W        W16513  20.927  10.593   5.739  0.2162  0.0959 -0.0498
73461W        W16514  31.687  31.951  24.367  0.4348 -0.0245 -0.1756
73462W        W16515  17.372  12.364  24.900  0.0710 -0.2258  0.0905
73463W        W16516   4.944   1.961   7.786 -0.2387 -0.1344 -0.0923
73464W        W16517  12.381  19.125  27.641  0.2245  0.4316  0.0963
73465W        W16518   2.362  14.076   1.706  0.0732 -0.2022  0.0193
73466W        W16519   2.321  27.130   1.935 -0.0375 -0.0577 -0.2777
73467W        W16520  11.790  31.824  20.238 -0.0822 -0.1759 -0.1684
73468W        W16521  17.892  16.637   3.603 -0.2343  0.1461  0.2568
73469W        W16522  14.037  18.475  13.599 -0.1831  0.1676  0.2704
73470W        W16523  22.060   2.195   2.439 -0.0967 -0.0655  0.2266
73471W        W16524  14.400  27.121  21.559  0.1136 -0.0004  0.2991
73472W        W16525   2.696  17.132   8.508  0.1808 -0.1994  0.0457
73473W        W16526   4.837  33.635  21.790  0.5651  0.2381 -0.1245
73474W        W16527   1.052   7.853  24.337 -0.2717 -0.1832 -0.3971
73475W        W16528   8.943  13.599   2.852 -0.2709  0.1879  0.1225
73476W        W16529   3.686  32.357   8.939  0.1404  0.0706  0.1212
73477W        W16530   6.261  30.150   5.728  0.1732  0.0532  0.2545
73478W        W16531  32.476   0.040   3.668  0.0644 -0.3136  0.1530
73479W        W16532  27.373  17.935   9.598 -0.2002 -0.0351  0.1603
73480W        W16533   4.366  31.800  24.311 -0.2004  0.1168 -0.1582
73481W        W16534  17.713  26.500  18.120 -0.1804 -0.0101  0.2405
73482W        W16535  15.882  33.444  28.227  0.0581  0.2120  0.3707
73483W        W16536  12.176  24.983   5.316  0.0214  0.1391 -0.0662
73484W        W16537  33.549  23.943  26.131  0.0076 -0.0327  0.2066
73485W        W16538  22.400  25.616   6.678  0.0347 -0.1429  0.2270
73486W        W16539   0.902  11.043  23.192 -0.4298  0.2627 -0.0286
73487W        W16540  11.695  11.204  21.469  0.0161 -0.0911 -0.0876
73488W        W16541  33.707  24.996   9.366  0.0878 -0.1215  0.0733
73489W        W16542  23.257  10.307   6.465  0.1924  0.2532 -0.1929
73490W        W16543  14.661  34.420   7.677 -0.2418 -0.0969  0.0934
73491W        W16544  11.197  21.267   7.444  0.0714 -0.2424  0.2593
73492W        W16545   3.456  20.937   2.050  0.2240  0.0990 -0.1333
73493W        W16546  17.473   3.608   1.696 -0.3422  0.1158 -0.1749
73494W        W16547  31.854  23.904   8.589  0.1929  0.1580  0.0609
73495W        W16548   5.136  23.884   5.111 -0.2843 -0.1612  0.1173
73496W        W16549   9.542  25.515   2.897 -0.0998  0.2248 -0.0823
73497W        W16550   2.806   7.181   8.371  0.2623  0.1506 -0.0332
73498W        W16551  10.606  23.303  24.897  0.2327 -0.2371  0.0531
73499W        W16552  17.318  28.209  27.496 -0.0090 -0.1580  0.0789
73500W        W16553   1.477  29.609   9.682 -0.1718 -0.0315 -0.2074
73501W        W16554  13.347  11.313  10.545 -0.0437 -0.1715 -0.2748
73502W        W16555  31.110  10.232   3.376 -0.1893 -0.1562 -0.1515
73503W        W16556   7.440  21.637   0.925 -0.4264 -0.1772 -0.1634
73504W        W16557  13.882  16.930   8.792 -0.4410 -0.0358 -0.0840
73505W        W16558   1.079  17.829   0.215  0.1232 -0.0217  0.2097
73506W        W16559   1.564  30.411  20.795  0.1229  0.1167 -0.0932
73507W        W16560  10.802  18.981   6.460  0.0954 -0.2318  0.2642
73508W        W16561   7.027  29.209  23.063  0.3779  0.0412 -0.1280
73509W        W16562   5.986  17.091   2.420  0.2681 -0.2863  0.0586
73510W        W16563  32.583  25.193  29.052  0.1629 -0.1658  0.1229
73511W        W16564   8.085   8.306   5.458  0.1077  0.0148 -0.0017
73512W        W16565   1.781  21.699   7.134 -0.2192 -0.1256 -0.2121
73513W        W16566  31.832  23.382   7.299 -0.0084  0.2319  0.2507
73514W        W16567   9.953  34.647  29.049 -0.0149  0.0715  0.4457
73515W        W16568  33.259   9.252   7.606  0.1607 -0.1314  0.1859
73516W        W16569   7.511  23.058   5.557  0.0570 -0.0919 -0.1053
73517W        W16570  30.077  23.839  28.294  0.0769  0.1959  0.0599
73518W        W16571  33.197  24.548   6.571  0.0886  0.2116  0.3165
73519W        W16572  10.529   0.520   5.623 -0.0286  0.0974  0.1477
73520W        W16573  26.271   5.078   3.060 -0.0782  0.2002 -0.0184
73521W        W16574   7.734  28.135   9.331 -0.1555 -0.0234  0.0744
73522W        W16575   0.723  18.666  25.752  0.1560 -0.4695  0.0397
73523W        W16576  28.632  18.321   4.636  0.1542  0.1806 -0.2176
73524W        W16577   3.345  21.504  17.539  0.1831  0.1309  0.1195
73525W        W16578   6.853   0.715   9.056 -0.1915  0.1757 -0.0056
73526W        W16579  13.990   2.233   4.962  0.3833 -0.2059 -0.2475
73527W        W16580  26.655  33.986   3.641  0.1854  0.0599  0.0999
73528W        W16581  12.660  23.099  21.863  0.1708  0.1132 -0.2836
73529W        W16582  12.863  16.736   1.912 -0.1274 -0.1458 -0.3427
73530W        W16583  33.210  26.502  26.865 -0.0452  0.1251 -0.1299
73531W        W16584  11.809  27.039   5.625  0.2806 -0.2058 -0.1451
73532W        W16585  12.067  32.636   6.928  0.1852 -0.0167  0.0650
73533W        W16586   5.533  21.518  28.584 -0.0842 -0.0889 -0.1971
73534W        W16587  31.082  31.196   3.150 -0.2129  0.0491  0.1618
73535W        W16588  32.720  28.529  25.906 -0.3461 -0.1613 -0.0709
73536W        W16589  10.583  18.950  18.680 -0.1371 -0.2301 -0.1670
73537W        W16590  11.418  15.640   4.036  0.1877  0.0627  0.0054
73538W        W16591  31.587  26.442   6.078  0.1681  0.1117  0.0891
73539W        W16592  16.445  26.185  26.030  0.0041  0.1307 -0.1382
73540W        W16593  11.860  26.002   7.587  0.1832 -0.0604 -0.1308
73541W        W16594  33.604  16.824  27.278  0.0818 -0.0438 -0.1354
73542W        W16595   3.324  26.175   8.900  0.1948  0.2770 -0.1497
73543W        W16596  24.845  26.737  23.038 -0.1893 -0.0021  0.0268
73544W        W16597  12.814  26.826   2.519  0.0109  0.0170 -0.1802
73545W        W16598   0.545  28.881   5.025  0.0262 -0.3039  0.0928
73546W        W16599  25.990   5.262  16.763  0.0861  0.3668  0.0129
73547W        W16600   4.191  21.016   7.715 -0.2362  0.3964 -0.0198
73548W        W16601  30.467  19.973   2.673  0.2621 -0.1280 -0.1023
73549W        W16602  32.881  26.594   3.224  0.0373 -0.1007 -0.1107
73550W        W16603   3.428   0.462   6.308  0.2259 -0.0682  0.3637
73551W        W16604  31.812  22.164   4.424  0.1878 -0.1499 -0.0055
73552W        W16605   9.147  13.432  28.761 -0.2750 -0.0794  0.0279
73553W        W16606  29.627  20.583  28.062 -0.2491 -0.2281 -0.3141
73554W        W16607  32.581   9.253   4.978  0.2260 -0.1399 -0.0119
73555W        W16608  25.911  25.250   9.589  0.2274 -0.1980  0.1013
73556W        W16609  16.709  31.368  28.819 -0.4079  0.2978  0.0461
73557W        W16610  10.020  11.488   9.301  0.0677  0.1001 -0.2185
73558W        W16611   7.939   4.163   4.246 -0.0868 -0.3673 -0.3006
73559W        W16612   3.258  32.174   9.023 -0.2889 -0.0271 -0.3524
73560W        W16613   0.107  10.538   7.125  0.0269 -0.1136 -0.1752
73561W        W16614  31.441  33.632   3.357  0.0185  0.4634 -0.2142
73562W        W16615   2.450  19.731  24.033 -0.0043 -0.1399 -0.1921
73563W        W16616  31.509  13.155  14.915 -0.1291  0.1081 -0.1565
73564W        W16617   1.661  11.737  23.698 -0.0435  0.1853  0.0457
73565W        W16618  16.797  18.755   5.707 -0.4027 -0.1538 -0.4486
73566W        W16619  14.490  20.190   8.862  0.0238  0.2360 -0.0920
73567W        W16620  14.345  19.515  22.827  0.4675 -0.0724  0.3310
73568W        W16621  33.611  13.348   4.856 -0.1381  0.0142 -0.3178
73569W        W16622   4.689  22.248   6.625 -0.0938 -0.1599  0.0150
73570W        W16623   7.434   9.557   9.643 -0.1756 -0.1142  0.0154
73571W        W16624  23.850  33.322  19.900 -0.0372  0.1866  0.0181
73572W        W16625  11.152  28.709   2.442  0.1486 -0.1783 -0.4195
73573W        W16626   7.371  26.199   6.856 -0.4116 -0.2448 -0.0677
73574W        W16627  29.346  31.732  19.401  0.3113 -0.0610  0.0139
73575W        W16628   5.993  20.366   2.511 -0.2076  0.4534 -0.3175
73576W        W16629   9.874  19.818  28.046  0.1585  0.1722 -0.1747
73577W        W16630  19.328  21.589  26.285 -0.1375  0.0222 -0.0913
73578W        W16631  20.773  13.551  23.702  0.0222  0.4740  0.0766
73579W        W16632   3.787  27.050   3.894 -0.1536 -0.2456  0.0342
73580W        W16633  11.231  17.763   0.060 -0.1407  0.0480  0.1521
73581W        W16634   0.088  22.785   2.105  0.0669  0.0923 -0.2802
73582W        W16635  18.201  13.695   0.395  0.0254 -0.0479  0.0138
73583W        W16636  29.344  23.156   7.769  0.0985 -0.3328  0.2728
73584W        W16637  13.583   7.679   4.004  0.1196 -0.0834  0.3739
73585W        W16638   1.368  14.685  27.333  0.0072 -0.2282 -0.3326
73586W        W16639  19.420  15.772   6.749 -0.0880 -0.0015 -0.0704
73587W        W16640   3.345  17.465  22.573 -0.0425  0.1885 -0.1763
73588W        W16641   4.825  29.638  27.562 -0.0124 -0.0960 -0.0953
73589W        W16642   3.282  20.493   7.217 -0.0244 -0.3069  0.0276
73590W        W16643  25.059  29.204   5.687  0.1946  0.0686 -0.0901
73591W        W16644   8.095   5.405   7.883  0.0990  0.1467  0.1451
73592W        W16645  10.292  14.073   7.455 -0.1343  0.1093 -0.0500
73593W        W16646  34.638  30.564   9.088  0.1379  0.1544 -0.2288
73594W        W16647  14.202  17.219   6.833  0.1896 -0.0057  0.2029
73595W        W16648  26.155  17.888   2.374 -0.2809  0.0455  0.0309
73596W        W16649  15.135  10.675   3.232 -0.0511  0.2355 -0.1297
73597W        W16650  21.352  25.953   1.194  0.3711  0.1769 -0.0273
73598W        W16651  23.723  26.828   5.663  0.0020 -0.0136 -0.0803
73599W        W16652  18.766  30.162   0.557  0.1977 -0.0321 -0.1171
73600W        W16653   6.354  28.444   7.242 -0.0200 -0.1278  0.0545
73601W        W16654  31.586  21.240   5.000  0.1452  0.1792  0.2808
73602W        W16655  11.082  13.866   9.662 -0.3017  0.1777 -0.0529
73603W        W16656  26.077  21.362  10.378  0.1332  0.0453  0.0934
73604W        W16657  22.968   8.581  23.134 -0.0938  0.1042  0.0269
73605W        W16658  29.424  34.301   9.481 -0.0088 -0.1297  0.3665
73606W        W16659  24.732  21.141   4.855 -0.0807 -0.0183 -0.2582
73607W        W16660   9.364  27.544   7.758 -0.1629  0.1307 -0.0222
73608W        W16661  23.354  17.698   5.792  0.0173  0.4584  0.0232
73609W        W16662   6.775  18.984   3.297  0.0230  0.3927 -0.0498
73610W        W16663   4.974  26.238   6.565 -0.0613  0.1221  0.1128
73611W        W16664  12.597  12.330   7.433  0.2137  0.3567  0.0410
73612W        W16665   8.780   5.068  19.985  0.1336 -0.1122  0.1254
73613W        W16666  29.319  31.792   3.603 -0.1196  0.1319 -0.0425
73614W        W16667  32.828  23.673   7.408  0.2161  0.2827 -0.1988
73615W        W16668   9.811   8.983   8.265  0.0859  0.3736  0.1574
73616W        W16669  32.828  10.393  25.748 -0.1322 -0.2670 -0.0067
73617W        W16670   9.273  23.608   5.001  0.1763  0.1688 -0.0460
73618W        W16671   3.350  16.597   6.097 -0.3862 -0.0669  0.2530
73619W        W16672  11.726  11.450   5.557  0.1084 -0.0569 -0.2887
73620W        W16673  33.466   8.076   5.451  0.0902 -0.1249  0.0251
73621W        W16674  11.906  15.493   3.169 -0.0543 -0.1024 -0.2230
73622W        W16675  24.794  23.621   7.111 -0.0087 -0.0290 -0.2100
73623W        W16676  33.973  28.413   4.666 -0.0711 -0.0499 -0.2807
73624W        W16677  27.612   6.211   1.909 -0.0330 -0.2391  0.3917
73625W        W16678  32.685  15.005   9.150 -0.0826 -0.2296 -0.1190
73626W        W16679   3.372  26.356  24.818  0.0477 -0.0772  0.2448
73627W        W16680   0.171  30.547   2.016 -0.1711  0.3385 -0.1761
73628W        W16681  28.380  22.431  24.032  0.0203  0.3312  0.5742
73629W        W16682  16.645  14.975   1.505  0.1290  0.1259 -0.0304
73630W        W16683  20.323  23.032  17.893  0.0762  0.0287 -0.2524
73631W        W16684  15.620   5.713  20.566 -0.1336  0.0307 -0.0973
73632W        W16685  21.916  22.294   1.623  0.0175  0.0598 -0.2585
73633W        W16686  10.635  29.979  23.465  0.2721 -0.1450 -0.1294
73634W        W16687  10.474  33.220   5.936  0.5745 -0.1248  0.0180
73635W        W16688  32.548  31.279   5.571  0.0186 -0.0922 -0.1287
73636W        W16689   5.939  22.335  15.061 -0.2488  0.2559  0.0178
73637W        W16690  25.617  23.853   7.732  0.0651  0.0478  0.0066
73638W        W16691   7.765  29.569   3.020 -0.1829 -0.3957  0.1150
73639W        W16692  11.651   9.212  21.150  0.3272 -0.3939 -0.1241
73640W        W16693  25.376   3.623   5.860 -0.3663  0.0427 -0.1535
73641W        W16694  11.515  17.147   7.031 -0.0996 -0.0090  0.0763
73642W        W16695   7.822  22.359   2.857  0.0495 -0.0915  0.2297
73643W        W16696   1.824  10.158   4.401  0.1227  0.0372  0.3692
73644W        W16697   6.413  15.771   0.619 -0.0660 -0.1719  0.0740
73645W        W16698   8.416  30.678  27.971  0.1650  0.2413  0.1699
73646W        W16699  23.190  10.796   9.641  0.0146  0.0810  0.0657
73647W        W16700   1.950  31.478   9.076 -0.0181 -0.2217 -0.0583
73648W        W16701  23.960  13.734  28.984 -0.1149  0.3453  0.2472
73649W        W16702  12.157  23.053   8.475  0.0341  0.1115  0.0134
73650W        W16703  21.583  21.276   5.159  0.0739 -0.0546 -0.0501
73651W        W16704  31.679   1.157   8.344 -0.3318 -0.0556 -0.1316
73652W        W16705  11.811   2.113   0.151 -0.2129 -0.3423 -0.1675
73653W        W16706   3.677   3.673   0.804  0.1423  0.0635  0.1550
73654W        W16707   6.383  16.598   2.350  0.0107 -0.0385  0.3929
73655W        W16708  28.160  30.604   3.230 -0.4782 -0.2121  0.1021
73656W        W16709   2.220  22.375   0.965  0.1349 -0.0181 -0.0239
73657W        W16710   0.815  22.297   8.707  0.0447  0.1685 -0.0758
73658W        W16711   3.008   5.725  20.445  0.0445 -0.0404  0.1403
73659W        W16712   0.063  29.270   8.836  0.1067  0.0008 -0.0737
73660W        W16713  12.071  20.131  20.568 -0.2874 -0.0151 -0.0464
73661W        W16714  14.971  27.695   9.244 -0.1337 -0.1554 -0.0509
73662W        W16715  27.599  22.177  22.558 -0.3367  0.0020 -0.1618
73663W        W16716   7.926   1.201  23.286  0.0946 -0.0649 -0.2068
73664W        W16717  33.890  29.320   7.593 -0.6737 -0.0461  0.0598
73665W        W16718   6.436  22.153   8.652 -0.0817 -0.0893  0.2529
73666W        W16719  11.412  24.233   9.173  0.1148 -0.2858 -0.3311
73667W        W16720   6.000  21.914   5.816 -0.0360 -0.0268 -0.1340
73668W        W16721   0.859  22.015   0.841 -0.1132 -0.0115 -0.0426
73669W        W16722   5.880  25.619  26.718  0.0009 -0.2313  0.1142
73670W        W16723   3.467  20.176  28.066 -0.2344 -0.0735 -0.3636
73671W        W16724   3.477  17.718   7.715 -0.2341 -0.2071 -0.0188
73672W        W16725   3.696  22.917  25.267 -0.1137 -0.5171  0.0551
73673W        W16726   9.687   2.208  23.611 -0.2681 -0.0847 -0.1774
73674W        W16727  25.120  34.302   7.525 -0.0901  0.2627  0.0627
73675W        W16728  10.099   3.525   2.408  0.2472  0.0119  0.1644
73676W        W16729   3.601  20.996  23.682 -0.2285  0.1101 -0.0108
73677W        W16730   1.193  30.949   4.443 -0.1367  0.1006  0.2691
73678W        W16731   2.304   8.156  29.057  0.1428 -0.0690 -0.0647
73679W        W16732  29.878  27.405   6.215 -0.1420  0.2461  0.2154
73680W        W16733   9.322  22.905  19.117 -0.0471  0.0817  0.0082
73681W        W16734  11.179  12.116  11.100 -0.1555  0.1457 -0.0729
73682W        W16735  32.999  16.455  28.966 -0.4482  0.2834  0.0853
73683W        W16736  30.712  23.526   4.558  0.3359 -0.1086 -0.2509
73684W        W16737  27.888   5.926   9.178  0.2064 -0.0439  0.1541
73685W        W16738  33.590  20.289   7.652  0.0392  0.2026 -0.2580
73686W        W16739  16.745  25.441   3.125  0.0126 -0.2228  0.1312
73687W        W16740  18.439   9.926  20.779  0.1728  0.0729  0.1742
73688W        W16741  15.375  17.867   8.311  0.0828 -0.2835  0.1715
73689W        W16742   7.364  11.952  28.492  0.1459  0.0517 -0.1709
73690W        W16743   8.484  13.499   5.790 -0.0559 -0.0561  0.2795
73691W        W16744  33.692  27.282   6.691  0.1797  0.1114 -0.0854
73692W        W16745   6.580  22.451   1.459 -0.1086  0.0235 -0.0456
73693W        W16746  32.515  22.221   9.341 -0.0610  0.2586 -0.1242
73694W        W16747  30.794  25.454   0.502  0.0988  0.0998 -0.3680
73695W        W16748  12.889   7.945   9.858 -0.2870  0.5212  0.0934
73696W        W16749  17.033  23.470   5.073  0.1013 -0.1922 -0.0254
73697W        W16750  18.591  17.703  27.438  0.3722 -0.2409  0.1924
73698W        W16751  33.289  28.100  23.862 -0.0790 -0.0191  0.0653
73699W        W16752  32.449  20.720  27.260  0.1895  0.1747 -0.0662
73700W        W16753   2.191  32.503   4.293 -0.3094  0.0704  0.0464
73701W        W16754  14.280  21.359  25.633 -0.2873  0.0440  0.1610
73702W        W16755   7.454  22.061   7.238 -0.0668 -0.3345  0.0298
73703W        W16756   8.882  24.948   4.637  0.1615  0.3592  0.1444
73704W        W16757   4.975   0.296  26.366 -0.0780 -0.0965 -0.2989
73705W        W16758  31.825  24.101   7.118  0.1644 -0.0578 -0.2491
73706W        W16759  26.031  34.369  21.655 -0.1469  0.3913 -0.1104
73707W        W16760  27.728  17.383   8.926  0.0752  0.0498 -0.2612
73708W        W16761   3.313  23.717  23.994 -0.1233 -0.1470  0.0196
73709W        W16762   6.302  20.710   2.940 -0.1335 -0.0142  0.0158
73710W        W16763  14.150  32.573   1.604  0.2768 -0.0551 -0.1538
73711W        W16764  19.235  19.242   6.532  0.1008 -0.1396 -0.0144
73712W        W16765  18.286  19.220  27.506 -0.3340  0.3910 -0.0299
73713W        W16766  10.198  24.603  25.291  0.2578  0.1809  0.4094
73714W        W16767   4.517  32.183   3.062  0.1381 -0.1752  0.0676
73715W        W16768   7.847  26.308  18.419 -0.0035  0.0041  0.1292
73716W        W16769   6.713  11.766   1.707  0.0863 -0.0562 -0.2959
73717W        W16770   5.472  20.258  28.889 -0.1114  0.1692 -0.1158
73718W        W16771  21.341  20.741   4.719 -0.0057 -0.0211  0.1366
73719W        W16772  26.299   5.371   9.824 -0.5450  0.2259 -0.0752
73720W        W16773   0.391  33.497   6.805  0.0091  0.1718  0.0171
73721W        W16774  32.274  30.559   4.471  0.1793  0.1260 -0.0014
73722W        W16775  10.001  17.919  16.473 -0.0868 -0.1575 -0.2628
73723W        W16776  13.699  32.088  26.994 -0.0580 -0.0533  0.1371
73724W        W16777  17.365  20.299   6.024 -0.0663 -0.2248  0.0671
73725W        W16778   2.571  24.872   7.938  0.0067  0.2437 -0.0824
73726W        W16779  33.369  15.057  24.140  0.1025  0.0629  0.4601
73727W        W16780  28.823  32.040   9.026 -0.1594  0.2010 -0.3218
73728W        W16781  17.061  19.082   8.326 -0.0241  0.2802  0.1491
73729W        W16782  21.143  25.730   8.101  0.1230  0.0586  0.2578
73730W        W16783  34.675  25.664   7.355 -0.0626 -0.0952  0.1876
73731W        W16784   9.286  20.618   4.153  0.4299 -0.0166 -0.1232
73732W        W16785  27.593  30.333  15.723  0.1802  0.0976 -0.1749
73733W        W16786   7.469  25.292   6.220 -0.0199  0.0802 -0.4046
73734W        W16787   6.799  29.199   2.933 -0.1203 -0.0255 -0.0762
73735W        W16788  31.109  17.284  28.284 -0.2762 -0.1066 -0.2215
73736W        W16789  19.537  22.753   9.623  0.0222 -0.0196  0.0536
73737W        W16790  13.349  17.068  27.392  0.0186  0.3007  0.1689
73738W        W16791  13.424  30.123  23.999 -0.1395  0.0080  0.0818
73739W        W16792   0.470   6.060  28.681 -0.1509  0.5346 -0.0153
73740W        W16793   5.701   3.286  23.142  0.3175  0.3043 -0.0969
73741W        W16794  34.244  23.858  16.365  0.0414 -0.1710  0.0658
73742W        W16795   6.775  12.905  29.182 -0.3369  0.2841  0.0423
73743W        W16796   7.410  33.321   9.462  0.0537  0.1719 -0.0592
73744W        W16797   6.541  23.336   2.472  0.0011 -0.4050  0.0350
73745W        W16798  17.448  22.858   7.238 -0.0934 -0.1483  0.1096
73746W        W16799  11.027  28.143   5.572 -0.0607  0.0242  0.2754
73747W        W16800  10.231  15.138   1.450  0.1217  0.1660  0.1518
73748W        W16801  12.862  29.117   5.399  0.0243  0.0126  0.0190
73749W        W16802  20.427  27.920   9.862 -0.0457 -0.0656  0.3887
73750W        W16803   5.902  29.479   3.832  0.4715 -0.0838 -0.0915
73751W        W16804  30.925   1.218  23.019  0.1874 -0.0902  0.0026
73752W        W16805   0.126  22.278   2.315 -0.0304  0.0474  0.2021
73753W        W16806  30.762  20.937   7.332 -0.0218  0.2346  0.2514
73754W        W16807  33.385  22.719   7.377  0.0085  0.2142 -0.2386
73755W        W16808  32.286  28.650  20.625 -0.0780 -0.1446 -0.1618
73756W        W16809  17.753  24.519   8.808 -0.0028 -0.2058  0.0099
73757W        W16810   1.000  15.123  27.117  0.1281  0.1216 -0.0222
73758W        W16811  13.149  34.298   7.848 -0.0394 -0.0898  0.1643
73759W        W16812  26.353  11.880   2.571 -0.1164  0.1083  0.2033
73760W        W16813  24.086  14.754   5.180 -0.1992  0.0627  0.0060
73761W        W16814  30.595  26.406   5.203 -0.4636 -0.2690  0.2237
73762W        W16815   5.208  18.112   4.312 -0.1030  0.0352 -0.2456
73763W        W16816   4.127  19.055   1.464 -0.0447  0.1002  0.4031
73764W        W16817   4.087  15.471   5.147 -0.4599 -0.2938  0.1476
73765W        W16818  33.537   8.472  10.443  0.1444 -0.1029  0.0143
73766W        W16819   1.907   3.126   5.023 -0.0386  0.0917 -0.2190
73767W        W16820   4.754  24.598   2.262 -0.2022  0.0872  0.4612
73768W        W16821  21.438  25.392   0.513 -0.3437 -0.2318 -0.1823
73769W        W16822  15.256  16.203   2.589  0.2550  0.0651  0.2792
73770W        W16823   7.453  17.942   0.272  0.1229  0.0270 -0.0079
73771W        W16824  19.730  23.057   7.430  0.1327 -0.0253 -0.1718
73772W        W16825  23.555  15.254   0.132 -0.0127  0.1507  0.0135
73773W        W16826   6.818  23.206   4.962  0.1224  0.0467  0.1097
73774W        W16827   8.770  34.214   8.927  0.0492 -0.2317 -0.2301
73775W        W16828   1.831  18.638  28.720 -0.0915 -0.1662  0.0639
73776W        W16829  20.309  17.808   3.363 -0.0989  0.2058 -0.0940
73777W        W16830  34.182  23.830   8.083  0.0317 -0.2384 -0.2079
73778W        W16831   2.895  27.699   2.300 -0.1472  0.1448 -0.1349
73779W        W16832   1.331   1.341  20.407  0.0587  0.3446  0.0127
73780W        W16833   6.426  20.134   5.944  0.1841  0.1964  0.0374
73781W        W16834   5.910  27.388   4.655  0.0043  0.1583  0.1236
73782W        W16835   3.949   3.629   3.640 -0.1211  0.0348 -0.0332
73783W        W16836   6.160  29.298   3.439 -0.0507 -0.2076  0.0941
73784W        W16837  19.518   5.134   4.269  0.1942  0.3279  0.1911
73785W        W16838   1.383   9.789  28.995 -0.1284 -0.1880 -0.1122
73786W        W16839  21.475  30.447   9.709 -0.0172 -0.1026  0.0649
73787W        W16840   0.622  23.091   0.557  0.0692  0.0584  0.1139
73788W        W16841  11.090  17.607  10.587 -0.1682  0.0061  0.1732
73789W        W16842  27.478  25.190   9.073 -0.0972 -0.0108  0.0973
73790W        W16843   1.516  14.799   3.646 -0.1239 -0.0454 -0.1292
73791W        W16844   8.000   5.372   4.953  0.0539  0.0711 -0.3068
73792W        W16845  21.533  33.331   8.977 -0.2098 -0.0100 -0.0320
73793W        W16846  10.029  19.353   8.859 -0.1518  0.0549  0.1936
73794W        W16847   4.140  18.003   3.544  0.4055  0.0425  0.0887
73795W        W16848   4.794  26.007  23.879  0.2900 -0.1014 -0.1384
73796W        W16849  32.602  25.125   1.508 -0.1199 -0.3335 -0.2210
73797W        W16850  12.287  12.645  10.974  0.2393  0.0159  0.1028
73798W        W16851  12.473  19.261  26.301  0.3320  0.2021  0.0859
73799W        W16852   1.454  20.672  28.425 -0.0013 -0.1576 -0.0257
73800W        W16853   1.423   5.960   0.783 -0.0387  0.2387 -0.0060
73801W        W16854   9.069  13.716  23.938  0.4366 -0.1260  0.0484
73802W        W16855  14.435   7.927   6.064  0.1388 -0.5184 -0.0370
73803W        W16856  34.074  18.317   5.158  0.2304 -0.2465  0.2124
73804W        W16857  29.771  21.889   2.797 -0.1065  0.0651  0.1034
73805W        W16858  15.466   0.301  28.934  0.3559  0.1496 -0.0002
73806W        W16859   2.626  15.521  22.144 -0.2391  0.0510  0.0890
73807W        W16860   8.232   7.145  28.403  0.0475 -0.0469  0.1708
73808W        W16861   4.674  16.692  26.660  0.1656 -0.0394 -0.2258
73809W        W16862  34.171   7.675   4.467 -0.2063 -0.0236 -0.0561
73810W        W16863  34.408  31.537   7.579 -0.1184 -0.1415 -0.0508
73811W        W16864   5.568  33.466   2.531 -0.2084 -0.1095  0.0610
73812W        W16865  30.859  28.353  26.702 -0.0750 -0.0829 -0.0775
73813W        W16866  10.571   3.881   5.848  0.0445  0.1589 -0.1370
73814W        W16867  19.265  15.396  14.878 -0.4307 -0.0189 -0.0926
73815W        W16868   0.201  31.274  26.875  0.0353 -0.0868  0.1046
73816W        W16869   6.186  12.790  20.777 -0.1321  0.2117  0.1773
73817W        W16870  32.033  34.269   3.249 -0.3320 -0.0986 -0.0385
73818W        W16871  27.656  29.142   9.478 -0.2082  0.1585  0.2519
73819W        W16872   8.256  27.017  19.797  0.2172  0.0400 -0.0754
73820W        W16873   1.056   4.885   5.358  0.5026  0.1002 -0.0349
73821W        W16874   0.332  29.400  28.672  0.2469 -0.0043 -0.2448
73822W        W16875   2.991  23.282  29.065 -0.0178 -0.2724 -0.1385
73823W        W16876   5.279  28.658   2.165  0.0821  0.0654 -0.0590
73824W        W16877  10.345  32.923  24.984 -0.0267  0.3480  0.2890
73825W        W16878  27.718  28.282  22.022 -0.1541 -0.0745 -0.0226
73826W        W16879   1.976  21.880  20.794  0.3109  0.2074 -0.1290
73827W        W16880   8.635  18.384  28.665  0.2248 -0.1425 -0.0318
73828W        W16881  14.707  32.581   7.024  0.2341 -0.0472  0.0496
73829W        W16882  33.897  13.727  23.841 -0.3130  0.1800 -0.2672
73830W        W16883  32.926  17.958   3.353 -0.1766  0.2770  0.1293
73831W        W16884   3.750  22.057  23.893  0.0986 -0.0612  0.4084
73832W        W16885   3.168  26.197  27.982 -0.1339 -0.1957 -0.1556
73833W        W16886   0.345  10.781  18.141 -0.0005 -0.0302  0.2017
73834W        W16887  29.580  25.814  23.690 -0.2554  0.3384  0.0843
73835W        W16888  11.696  22.837   0.201  0.2773 -0.0005 -0.0046
73836W        W16889  18.998  29.763  16.628 -0.1460 -0.0949  0.1525
73837W        W16890  22.014  24.661   7.342  0.3935  0.0534 -0.1532
73838W        W16891  12.443  23.029   0.895  0.1203 -0.1209  0.0785
73839W        W16892   0.568  23.076  28.323 -0.0796 -0.1261  0.0853
73840W        W16893  34.410  21.941   0.204  0.2262  0.1682  0.1189
73841W        W16894  13.994  32.941   3.929 -0.2115  0.0526 -0.0978
73842W        W16895   7.601  28.822   8.143  0.1804 -0.1083  0.0033
73843W        W16896   5.418  24.922  19.331 -0.0505  0.1905  0.1473
73844W        W16897   3.603  28.430  28.097 -0.5416  0.2053  0.0658
73845W        W16898   4.822  19.951   3.404 -0.0577  0.2260 -0.0783
73846W        W16899  32.870  18.380  27.265  0.0116 -0.2660 -0.1182
73847W        W16900  31.027  32.597   2.100 -0.2730 -0.1477  0.0985
73848W        W16901  31.511  28.812  22.353 -0.0179 -0.1739  0.1492
73849W        W16902  25.196  29.089   6.392  0.0381  0.0308  0.0032
73850W        W16903  14.406  33.956   1.452  0.0790 -0.0836  0.1466
73851W        W16904   8.215  31.302  25.053 -0.3213  0.2618 -0.1428
73852W        W16905   0.374  27.512   3.106  0.1374 -0.3920 -0.0763
73853W        W16906   5.564  23.397  10.086  0.3520 -0.1280 -0.2271
73854W        W16907   0.224  20.905   6.268  0.0271 -0.1774 -0.2616
73855W        W16908   4.623  31.055  23.612  0.1272 -0.0037  0.3023
73856W        W16909   1.850  21.320   6.047  0.0973 -0.0432 -0.1180
73857W        W16910   8.167  21.378  29.081 -0.1825 -0.1916 -0.0049
73858W        W16911  14.911  27.807  21.067  0.0386 -0.0466  0.1887
73859W        W16912   7.727  29.889   1.235  0.2704 -0.2562  0.1683
73860W        W16913   3.776  32.800   0.761 -0.1131  0.0873  0.0779
73861W        W16914  22.287  12.103  20.365 -0.3260  0.1329  0.2914
73862W        W16915  24.610  23.998   6.172 -0.0031 -0.1560  0.0802
73863W        W16916   0.610  28.474   5.366  0.0734 -0.0199  0.1254
73864W        W16917  32.934  12.750  25.771  0.0516  0.3668  0.3590
73865W        W16918  32.262  32.054  19.808  0.1418 -0.0902 -0.2206
73866W        W16919   4.263  28.805  25.576  0.3237  0.1753  0.1732
73867W        W16920   8.318   5.109  27.427 -0.2345 -0.0705  0.3149
73868W        W16921  12.066  21.676   1.547 -0.2146  0.1070 -0.0936
73869W        W16922  27.408  32.944   1.010 -0.2084 -0.1530 -0.0016
73870W        W16923  27.432  29.832  22.550 -0.0132  0.0714 -0.0433
73871W        W16924  10.096   1.379   4.525 -0.1180  0.0150  0.0100
73872W        W16925  21.565   3.936   8.557 -0.0038 -0.2554  0.1931
73873W        W16926  19.153   8.489   6.967  0.1000  0.0797  0.1471
73874W        W16927  23.456  11.179  16.514 -0.0577  0.3440 -0.2249
73875W        W16928   5.362  22.592   7.687  0.4493  0.3685  0.0460
73876W        W16929   5.080  27.845  28.915  0.0638 -0.2105  0.0470
73877W        W16930  14.064  17.648  23.627 -0.0774  0.3471  0.1659
73878W        W16931   4.788   9.188  23.202  0.0160  0.1224 -0.2662
73879W        W16932  31.788  25.391  17.198 -0.3530  0.0225 -0.0184
73880W        W16933  21.525  28.710  28.462 -0.1114 -0.1067  0.1472
73881W        W16934  15.102  28.552  19.729 -0.1152 -0.1118  0.0406
73882W        W16935  11.368  23.400   8.454  0.2342  0.3082 -0.0894
73883W        W16936  29.417  27.099  26.919  0.2073  0.2819 -0.1906
73884W        W16937   3.736  29.901  15.756 -0.0325 -0.1053  0.3039
73885W        W16938   5.150  16.011   1.605 -0.0343  0.1384 -0.4961
73886W        W16939  33.153   0.147   0.857 -0.3331 -0.0352  0.2452
73887W        W16940   2.608   3.776  26.937  0.0708 -0.0169 -0.1166
73888W        W16941  30.057  22.563   4.976  0.0853  0.1525  0.0321
73889W        W16942   2.532   5.333  21.141  0.0859  0.1296  0.1693
73890W        W16943   8.555  17.523   4.786 -0.1928  0.2757  0.1694
73891W        W16944  26.612  23.159  26.900 -0.1892 -0.1006 -0.0571
73892W        W16945  25.251   2.552  22.572  0.1507  0.1900 -0.2733
73893W        W16946   7.459  24.768  24.063  0.2078 -0.1461  0.0297
73894W        W16947  30.074  34.232   9.783 -0.0188 -0.1832  0.2319
73895W        W16948  12.952  21.510   6.652  0.4944  0.0053 -0.1695
73896W        W16949  34.547  25.859   8.757  0.0976 -0.1912 -0.0782
73897W        W16950  33.756  30.249  28.580 -0.1832  0.0104  0.3777
73898W        W16951  23.886   2.556  25.705 -0.0355 -0.1112 -0.0936
73899W        W16952   4.897  11.970  25.898 -0.0693 -0.1912  0.0399
73900W        W16953  16.203  23.862  22.520 -0.1948 -0.1740 -0.1610
73901W        W16954  30.802  20.469   4.623  0.0255  0.0985 -0.0387
73902W        W16955  16.436  20.203   9.913  0.1772  0.1165 -0.0497
73903W        W16956  11.913  21.306  14.073 -0.2414  0.1105 -0.0694
73904W        W16957  31.535  32.638   1.996  0.0861  0.0298 -0.2488
73905W        W16958  15.984   6.756   9.022 -0.2480 -0.0423 -0.0069
73906W        W16959   4.672  12.303  28.879  0.3726  0.0865  0.2416
73907W        W16960  24.659  21.527   1.662  0.0001 -0.1846  0.0053
73908W        W16961  28.690   0.497   1.335  0.0201  0.1062 -0.0411
73909W        W16962   9.163  29.650  24.859  0.0965  0.1663  0.2187
73910W        W16963  30.753  26.010  27.450  0.2282  0.0200 -0.5918
73911W        W16964   1.898  29.099   5.674 -0.2415 -0.2920 -0.0666
73912W        W16965  29.277   3.251  21.055 -0.1480  0.2280  0.0700
73913W        W16966  26.486  32.399   2.771  0.1483  0.1411  0.2178
73914W        W16967   4.011  30.039   7.826  0.1054  0.5660 -0.1083
73915W        W16968   2.837  19.425  14.889  0.0254 -0.0429 -0.2336
73916W        W16969   7.200   4.207  15.642  0.0849 -0.1932  0.1386
73917W        W16970  17.591  17.271  23.674  0.2413 -0.0986  0.0373
73918W        W16971   7.332  22.094  27.233  0.1523 -0.0937 -0.0262
73919W        W16972  14.190  17.773   6.799  0.3690  0.0399 -0.0290
73920W        W16973   3.749  29.516   7.049  0.0647  0.0622  0.1296
73921W        W16974  33.821   7.150   2.111  0.0212 -0.2306 -0.0197
73922W        W16975   5.380  16.844   5.467  0.3119 -0.0047  0.5349
73923W        W16976   9.952  33.547  10.446 -0.5631 -0.0723  0.2771
73924W        W16977  15.386  10.823  23.751 -0.0155  0.2444  0.2644
73925W        W16978   0.772  27.914   7.125 -0.0725  0.1777  0.0034
73926W        W16979  22.633   4.996   9.840 -0.0188  0.0335  0.0135
73927W        W16980  34.259  13.813   4.577  0.0049 -0.1681  0.1550
73928W        W16981  32.789  34.528  26.394  0.0561 -0.0105 -0.0427
73929W        W16982  32.187  14.129  18.740 -0.0069 -0.1369 -0.1651
73930W        W16983  10.512   1.326   6.347 -0.0179 -0.1516 -0.3535
73931W        W16984   8.804  20.226   3.329 -0.0696  0.0307  0.0631
73932W        W16985  21.770  18.000  22.007  0.0589 -0.1240  0.1001
73933W        W16986   1.040  26.899  17.801  0.2036 -0.0023  0.3045
73934W        W16987   8.944   5.522  15.521  0.0223  0.0233  0.1383
73935W        W16988   7.023  11.288  29.143 -0.1127  0.3181  0.1059
73936W        W16989   3.664  31.331   2.446  0.2740  0.0081 -0.3448
73937W        W16990   5.240  26.763  15.743  0.1739 -0.2224  0.1129
73938W        W16991   5.150  24.786  23.033  0.0114  0.5698 -0.1428
73939W        W16992   7.338  30.565  14.610 -0.0932 -0.0830 -0.0417
73940W        W16993  26.771  24.145  26.867 -0.0117 -0.0128  0.1160
73941W        W16994   1.716   2.804  18.184  0.2167 -0.1166  0.0814
73942W        W16995   5.082   6.402   6.395 -0.3043 -0.0207 -0.0100
73943W        W16996  19.446  14.862  23.237 -0.2392  0.5756  0.0696
73944W        W16997  19.888  25.622   6.166  0.1538  0.0541  0.3080
73945W        W16998  28.036  27.876  22.760 -0.0064 -0.4076  0.1516
73946W        W16999  16.793  16.093   0.379 -0.0224  0.0974  0.1848
73947W        W17000  21.029  30.943   2.758 -0.3102  0.1645  0.1271
73948W        W17001   8.980  30.842  24.437  0.0523 -0.0192 -0.4132
73949W        W17002   2.756   4.955   2.042  0.2268 -0.2375  0.0463
73950W        W17003  10.126  27.381  18.694  0.1258 -0.0519 -0.0353
73951W        W17004  29.416  17.384   5.012  0.2114 -0.1899 -0.0509
73952W        W17005   3.223  25.407   2.281  0.2127  0.1584 -0.3451
73953W        W17006  14.838  33.586  21.363  0.2803 -0.0085  0.0744
73954W        W17007  28.823   3.548  21.083 -0.1111 -0.4442  0.1174
73955W        W17008  30.747  30.799  19.158  0.1646  0.1369  0.2237
73956W        W17009  14.655  19.505  16.185  0.2297 -0.2691 -0.0432
73957W        W17010  15.174  14.975   1.220  0.0829  0.2483 -0.0045
73958W        W17011   3.576   0.481   0.092 -0.0434 -0.1902 -0.1297
73959W        W17012  23.956  20.339   4.211  0.0970  0.0055  0.1190
73960W        W17013  27.035  21.365   0.545  0.0838  0.0301 -0.3273
73961W        W17014  14.313  31.779   4.882  0.0546 -0.1164  0.0822
73962W        W17015  28.443   2.945   9.137  0.1780 -0.1714  0.3014
73963W        W17016   5.351  23.285   5.898  0.0504 -0.2353 -0.1297
73964W        W17017  18.760  27.478  20.008 -0.0264 -0.0773 -0.1463
73965W        W17018   1.180  24.143  27.401  0.0864 -0.0034 -0.0833
73966W        W17019  32.105  21.982  26.827 -0.2312  0.0186 -0.1762
73967W        W17020  22.908  17.894   0.875  0.0689 -0.2264 -0.1424
73968W        W17021   0.342   2.816  15.708 -0.0989  0.3776  0.2728
73969W        W17022  27.174   0.754  20.140  0.3657 -0.0130 -0.0910
73970W        W17023   2.225  29.397   5.301 -0.1542 -0.0707  0.1136
73971W        W17024  21.869  25.949  20.533 -0.2138  0.2129  0.2383
73972W        W17025  34.487  27.549  19.622 -0.2124 -0.2230 -0.3456
73973W        W17026   8.498  31.924   9.048 -0.0401 -0.2112  0.1223
73974W        W17027   2.243  16.209  26.376  0.1208 -0.1923  0.1893
73975W        W17028  10.899  15.511  27.777  0.0736  0.1538 -0.1320
73976W        W17029   5.101  20.921   1.863  0.1201  0.0283  0.1728
73977W        W17030   1.746   0.842   4.884 -0.0395 -0.3832  0.5606
73978W        W17031  17.514  22.662  21.291  0.1371 -0.1821 -0.2356
73979W        W17032   6.438  15.277   0.386 -0.0794 -0.0213 -0.0957
73980W        W17033  32.054  27.455  28.582  0.2167  0.0911 -0.2183
73981W        W17034  34.010  20.565   5.508 -0.0407 -0.0787  0.2316
73982W        W17035  25.316  30.311  26.199 -0.0881  0.0871 -0.1786
73983W        W17036  32.612  33.568   4.128  0.0312  0.3092 -0.0107
73984W        W17037   7.341   5.055  10.822  0.4346  0.1123  0.2093
73985W        W17038  16.807  20.827  15.111  0.3273 -0.2278 -0.0601
73986W        W17039  32.922   8.541   1.568 -0.1410  0.1476 -0.0416
73987W        W17040  10.958   2.675  25.799 -0.1937 -0.0697  0.0200
73988W        W17041   1.794  30.416  18.295 -0.3763  0.0113  0.3291
73989W        W17042   5.217   6.848  25.838  0.0452  0.0426 -0.0442
73990W        W17043   4.887   5.149  24.806  0.1187  0.0728 -0.0005
73991W        W17044  10.959  28.809   0.582  0.0403 -0.0491 -0.1573
73992W        W17045  11.297  25.687  27.329 -0.0403  0.1641 -0.1651
73993W        W17046  13.103  33.171  27.634 -0.1605 -0.1344 -0.0699
73994W        W17047  19.951  21.969   9.900 -0.0241  0.0131  0.0709
73995W        W17048   1.733  25.765   8.982  0.1114 -0.3787  0.0402
73996W        W17049  16.696  10.435   0.673 -0.1414 -0.1083 -0.0530
73997W        W17050   2.168  29.650  28.037  0.0654  0.1962 -0.0290
73998W        W17051  32.920  30.550  24.744 -0.3421  0.2003 -0.1064
73999W        W17052  26.539  23.664   6.472 -0.0387 -0.1420  0.1638
74000W        W17053  33.815  25.433   3.779  0.1095 -0.0203  0.4842
74001W        W17054  18.617  27.938  28.332 -0.1421 -0.1867 -0.0711
74002W        W17055  14.635  25.584   5.988  0.2948  0.0257 -0.2316
74003W        W17056  20.250   3.004   9.854 -0.0066 -0.2181 -0.1799
74004W        W17057   6.558  20.912   2.537 -0.0563  0.1959  0.0515
74005W        W17058  28.705   1.612   9.500  0.0418  0.0022  0.3375
74006W        W17059  33.443  10.948  16.495  0.0422 -0.2348  0.0366
74007W        W17060   9.109  26.526  28.785  0.2003 -0.1075  0.0888
74008W        W17061  13.233  31.508   6.427 -0.1332  0.1077  0.1758
74009W        W17062  34.498  29.276   2.319 -0.0307  0.0596  0.0660
74010W        W17063  18.283  22.947  22.456 -0.0552  0.0025 -0.2040
74011W        W17064  33.717   3.389   2.298 -0.0238  0.0880  0.1742
74012W        W17065   3.966  17.888  22.059  0.4279 -0.2173  0.0007
74013W        W17066   4.740  10.075  24.439 -0.1011 -0.1108  0.1012
74014W        W17067  21.301   5.074  16.265  0.4568 -0.0763 -0.0009
74015W        W17068  16.902  27.357   3.089 -0.2258 -0.0683  0.0899
74016W        W17069   1.179  15.327  27.950 -0.0603 -0.1576  0.1192
74017W        W17070   2.663  26.700   3.389  0.1323  0.2610 -0.5022
74018W        W17071  23.803  33.773   9.584  0.3196  0.2390  0.1531
74019W        W17072   8.190  11.030   9.327  0.0880 -0.2532 -0.1396
74020W        W17073  29.942  29.443   9.230 -0.2991  0.0340  0.0956
74021W        W17074  31.541   5.122   6.771 -0.2310 -0.1215  0.4249
74022W        W17075   8.906   3.968   1.227 -0.2461 -0.1503  0.2127
74023W        W17076  33.661  15.436  25.467  0.1104  0.2446 -0.1906
74024W        W17077  29.258  27.948  21.513 -0.0005  0.0744  0.1989
74025W        W17078   4.076  27.790   5.209 -0.1294  0.3609  0.2091
74026W        W17079  26.275  30.699   7.752 -0.0591 -0.2828 -0.1232
74027W        W17080   9.840   5.295   3.836  0.0027  0.1181  0.1608
74028W        W17081  13.488  18.528   1.560  0.0993 -0.2588  0.0015
74029W        W17082  16.335  27.307   4.023 -0.1296 -0.0023  0.0439
74030W        W17083  34.018  19.364   6.747 -0.2998  0.0176 -0.0875
74031W        W17084  32.905  27.150  26.604  0.2823  0.4456 -0.0170
74032W        W17085   4.248  22.563  28.815  0.2164 -0.1291  0.1715
74033W        W17086  11.291  26.206   8.262  0.0897  0.0553  0.0769
74034W        W17087  18.348  10.845  27.999  0.0213 -0.2954  0.0930
74035W        W17088  10.293  32.294   0.941 -0.1670 -0.0690  0.1915
74036W        W17089   2.393  26.148   5.547  0.2675 -0.1299 -0.2057
74037W        W17090  22.991  34.383  20.679  0.2089  0.0972 -0.0281
74038W        W17091   7.963  15.153  10.635 -0.0009 -0.1123 -0.0991
74039W        W17092  32.073  20.194   7.800  0.1240  0.0468  0.3858
74040W        W17093  20.759  19.838   8.592  0.0250  0.0179  0.4054
74041W        W17094  31.380   6.077  15.761 -0.2299 -0.3735 -0.0787
74042W        W17095  31.302   6.420  19.416  0.5212  0.1302 -0.2258
74043W        W17096  31.179  19.704   6.225  0.1742 -0.0854 -0.0113
74044W        W17097  19.738  32.905   6.908 -0.0695  0.0131  0.2548
74045W        W17098   4.084  25.590  17.376  0.0763 -0.0045  0.1080
74046W        W17099   3.887   9.917  21.748  0.1887 -0.0711  0.1187
74047W        W17100  10.932  12.607  22.086 -0.3771 -0.0791  0.1153
74048W        W17101  32.449  31.975  23.549  0.1506  0.0503  0.0199
74049W        W17102  23.274  15.641   8.501  0.3219  0.0340  0.1900
74050W        W17103   2.337  25.801  28.021  0.2123 -0.0582 -0.0048
74051W        W17104   1.751  10.689   5.835 -0.0952  0.0965 -0.0701
74052W        W17105  17.588  26.787  26.117  0.0173 -0.0632 -0.0867
74053W        W17106   4.647   3.832   7.811 -0.1394 -0.1451  0.2841
74054W        W17107   9.720  15.494   1.412  0.1722 -0.2452 -0.0743
74055W        W17108   3.017  11.724   8.567  0.0880 -0.3221 -0.1572
74056W        W17109   6.244  27.558  23.409 -0.2072  0.3043 -0.1827
74057W        W17110  30.452  24.416   4.884  0.0667 -0.3037 -0.2359
74058W        W17111  10.534  31.881   8.738  0.2293 -0.1695  0.1746
74059W        W17112  22.862  29.631  28.377  0.2280 -0.2515  0.3094
74060W        W17113  29.478  27.401  21.396  0.2168 -0.0273  0.1860
74061W        W17114   3.905   0.063  22.108 -0.0700 -0.1543 -0.0689
74062W        W17115  19.030   2.646   7.161  0.1889  0.0405  0.1652
74063W        W17116  31.400  30.510  19.364 -0.0789 -0.2954  0.0100
74064W        W17117  30.090  28.595  13.173 -0.1232 -0.1151 -0.0842
74065W        W17118  15.195  23.178   8.250  0.4110  0.0696 -0.1472
74066W        W17119  22.615  19.095   6.395  0.0595  0.1788  0.2383
74067W        W17120   6.159  28.736  26.512 -0.2036 -0.2991  0.3621
74068W        W17121   9.590   3.647   3.594  0.0138  0.0585  0.0678
74069W        W17122   5.684  13.211  25.590  0.0062  0.1246  0.0830
74070W        W17123  20.673  31.664  25.561  0.2538 -0.1658  0.2715
74071W        W17124   1.232  27.070   7.514  0.1356 -0.0503 -0.0575
74072W        W17125   1.111  22.763   0.624  0.0401  0.0600 -0.3169
74073W        W17126   8.321   4.800   3.092  0.3075 -0.0758 -0.1054
74074W        W17127  14.305   8.087   5.342  0.0980 -0.0336 -0.0503
74075W        W17128  25.307  12.509   6.657 -0.1066  0.1728 -0.1909
74076W        W17129   0.994  20.046   8.840  0.0513  0.0449 -0.0363
74077W        W17130   1.069  33.147   8.250  0.0585  0.0676 -0.0377
74078W        W17131  26.318  16.205  26.084 -0.4364  0.0070  0.1784
74079W        W17132  30.005  23.448  25.137 -0.0328 -0.0510 -0.0436
74080W        W17133  18.326   6.541  22.386  0.2208  0.2307 -0.1029
74081W        W17134   9.260   6.676  23.773 -0.0186  0.3487 -0.2328
74082W        W17135  33.545  29.627  20.173 -0.0208 -0.0837  0.2520
74083W        W17136   6.700   3.281   2.401 -0.1668 -0.0170  0.2161
74084W        W17137   6.573  25.212  23.374 -0.0582 -0.0771 -0.2515
74085W        W17138   9.816  15.777   9.588 -0.1133 -0.1513 -0.2947
74086W        W17139   7.277  29.580   7.925 -0.0739 -0.0153 -0.1290
74087W        W17140   4.807   6.632   5.435 -0.0754  0.0963  0.1358
74088W        W17141   1.557  20.760   1.660  0.0870  0.3575 -0.3190
74089W        W17142  12.464   5.172   0.178 -0.1413 -0.2883  0.1191
74090W        W17143  29.126  19.892   9.190  0.2267  0.2924 -0.2682
74091W        W17144   8.544  21.970   0.044 -0.1787 -0.0327  0.0461
74092W        W17145  17.488  21.434  28.772 -0.4649 -0.1744 -0.2502
74093W        W17146  22.089   4.274   2.225 -0.2298 -0.1074  0.0614
74094W        W17147  25.953   7.009  25.730 -0.1340  0.0077 -0.2322
74095W        W17148   9.793  25.365   3.552 -0.1644 -0.3204 -0.4852
74096W        W17149   9.861  15.716   4.392 -0.0925  0.2462  0.3457
74097W        W17150   3.797  17.352  27.293 -0.1043  0.0712  0.1319
74098W        W17151   7.581   1.149  26.767 -0.1133  0.1079 -0.2936
74099W        W17152  14.344  25.580  27.746  0.3286 -0.1105 -0.1375
74100W        W17153  32.286  31.076   5.149 -0.1520  0.0705  0.1627
74101W        W17154  25.753  27.460  26.848  0.2959  0.2608  0.0189
74102W        W17155  13.036  25.211  19.613  0.3036 -0.1363  0.0508
74103W        W17156  15.222   8.242  19.174  0.1247  0.2124 -0.2054
74104W        W17157  16.522  23.837  28.693  0.2449 -0.2458  0.0337
74105W        W17158  22.560  24.628   1.694  0.1317 -0.1859 -0.2094
74106W        W17159  34.291  21.861   9.311 -0.2418 -0.1009  0.1686
74107W        W17160  11.120  11.741  26.698  0.4176  0.2886  0.2551
74108W        W17161   4.257  25.457  10.061  0.0470 -0.2669 -0.1147
74109W        W17162  17.160   4.968  26.278  0.0478 -0.1212 -0.3972
74110W        W17163  13.285  30.315  23.200 -0.1619 -0.1747 -0.0718
74111W        W17164  11.783  19.704  18.708 -0.2853  0.3254  0.1527
74112W        W17165   4.277  22.068   8.047 -0.1664 -0.2085 -0.1060
74113W        W17166  14.550  31.739  20.599 -0.0741 -0.1492  0.0752
74114W        W17167  15.863  18.835   6.069 -0.2982  0.2961 -0.1073
74115W        W17168   7.664  19.257  25.702  0.1138  0.1132  0.1728
74116W        W17169  12.159  26.380   6.250  0.1871  0.0003  0.0053
74117W        W17170  27.630  34.487   9.112  0.1472 -0.2046 -0.2959
74118W        W17171   5.366  33.093  26.197  0.0699  0.0207 -0.6008
74119W        W17172   2.716  29.762   9.478  0.1843  0.2190 -0.0862
74120W        W17173  10.171  32.220   2.773 -0.1494 -0.1270 -0.2359
74121W        W17174  24.852   9.011  19.796 -0.0437 -0.0581  0.1273
74122W        W17175   1.840  16.344   7.349 -0.0061 -0.0862 -0.1364
74123W        W17176   4.037   7.811   8.688 -0.2162  0.0177  0.3473
74124W        W17177  10.152  19.938  20.501 -0.0949 -0.3874 -0.1120
74125W        W17178  34.363   3.987   4.499 -0.0480  0.1947  0.2318
74126W        W17179   0.919  30.775   3.465  0.0246 -0.1919  0.0844
74127W        W17180  15.594  32.083   2.829  0.2497  0.1919  0.1632
74128W        W17181  11.175  32.929  22.420  0.0260 -0.3340 -0.2001
74129W        W17182   9.621  25.509   5.984  0.0184  0.0969 -0.0180
74130W        W17183  32.263   1.746   4.133 -0.0806 -0.1359 -0.0479
74131W        W17184   6.191  23.319  22.447 -0.0056 -0.0167  0.0168
74132W        W17185  10.628   5.731  20.415 -0.2340  0.0413  0.0800
74133W        W17186  30.211  27.695   6.532 -0.0570  0.0055  0.1291
74134W        W17187  31.756  10.204  28.950  0.3216  0.0911 -0.0594
74135W        W17188  31.514  14.020   4.279 -0.1840 -0.1147 -0.0575
74136W        W17189  13.964  29.003  20.736 -0.1921  0.1555 -0.0529
74137W        W17190  11.815  29.836  21.122 -0.1263  0.2786  0.2602
74138W        W17191  13.552  23.365  22.366 -0.0227 -0.1504  0.1406
74139W        W17192  16.065  22.168   9.611  0.1593  0.1431 -0.0625
74140W        W17193  30.371  25.278  23.569  0.0656 -0.3260  0.0837
74141W        W17194  24.043  33.584  14.668  0.2167 -0.2877  0.0100
74142W        W17195   8.874  21.180   8.582 -0.1013 -0.1649  0.3255
74143W        W17196  22.953   2.039   9.991  0.1579  0.3571 -0.1305
74144W        W17197  15.498  33.603   0.323 -0.0360  0.1617  0.1375
74145W        W17198   8.378   3.856  10.276  0.1319  0.1120 -0.0530
74146W        W17199  29.322  10.280   0.741  0.2132 -0.0204  0.0230
74147W        W17200   8.659  21.978   3.639  0.2934 -0.2340  0.2556
74148W        W17201  18.725  20.502  15.017  0.1486 -0.0310 -0.1514
74149W        W17202  29.584   4.487  27.208  0.0618 -0.0743 -0.0642
74150W        W17203  31.067  23.688  24.650 -0.1548 -0.0749  0.0253
74151W        W17204  12.241  24.363   7.430  0.0143 -0.2045 -0.3651
74152W        W17205   3.079  18.478  21.983  0.1576  0.0914  0.0800
74153W        W17206  34.642  21.475  17.465  0.1042  0.0462  0.3732
74154W        W17207   6.530  31.919  24.178 -0.1038  0.1878  0.3454
74155W        W17208  24.512  28.351  14.441  0.0939 -0.1151 -0.0968
74156W        W17209  34.364  10.761   3.067  0.2002 -0.2076 -0.1676
74157W        W17210  23.230   6.456  20.828  0.0932 -0.0531  0.1689
74158W        W17211  31.253  30.697   6.011  0.3153  0.0199  0.0841
74159W        W17212   2.690  23.035   9.716  0.0537  0.0700 -0.0073
74160W        W17213  33.792   6.220   0.918  0.2197  0.4580  0.3053
74161W        W17214   9.376  23.134  14.211 -0.0691 -0.2422 -0.1626
74162W        W17215   4.549  11.989  26.998  0.2505 -0.3267 -0.3062
74163W        W17216   2.325  19.154   0.077  0.3290  0.0877 -0.1085
74164W        W17217   7.405  23.187   1.583  0.0166  0.1749  0.3837
74165W        W17218  15.976  33.555   7.828  0.0340  0.3579 -0.2494
74166W        W17219   9.270   5.785   2.195  0.4088  0.2049 -0.1154
74167W        W17220  26.301  25.792  29.184 -0.1445  0.0209  0.2254
74168W        W17221   4.753  19.764  24.780 -0.1881  0.1271 -0.0966
74169W        W17222  31.206  31.650   9.115  0.1578  0.2209 -0.2271
74170W        W17223   9.797  30.481  22.495  0.1567 -0.0774 -0.0115
74171W        W17224  13.089  29.817  24.225 -0.0684  0.1714 -0.1183
74172W        W17225  29.648  31.970  23.899 -0.0487 -0.0171  0.0583
74173W        W17226  18.611  32.129  28.710  0.2279  0.1151 -0.0285
74174W        W17227  13.367   7.393   6.694 -0.2046  0.2846  0.1665
74175W        W17228  17.326  32.773   6.816  0.2777  0.1594  0.0801
74176W        W17229   1.609  34.469   6.755  0.1642 -0.4021  0.0407
74177W        W17230   9.206  12.485  22.995 -0.2059 -0.0953  0.2456
74178W        W17231  25.591  26.758   9.240 -0.0208  0.1971 -0.0658
74179W        W17232   2.664  20.874   7.876 -0.1348  0.0004  0.0569
74180W        W17233  34.253  20.929   5.237 -0.3557  0.0409  0.0531
74181W        W17234   3.410  15.449   5.383  0.2149  0.0045 -0.1137
74182W        W17235   4.579  30.363  28.223 -0.1460 -0.2574 -0.1238
74183W        W17236  29.003   4.070   8.468  0.2001 -0.0083  0.0835
74184W        W17237  34.215  31.551  19.953  0.0426  0.2130 -0.2695
74185W        W17238  20.027  20.858   4.709  0.0507 -0.2364 -0.0831
74186W        W17239   9.840  13.387   4.181  0.0122  0.0289 -0.2058
74187W        W17240   4.247  26.568  18.641 -0.5438  0.0963 -0.3205
74188W        W17241  10.850   0.071   1.774  0.0274 -0.0341  0.0020
74189W        W17242  11.050  15.474  17.044 -0.5317 -0.1633 -0.2582
74190W        W17243  10.150  34.228  14.684  0.4261  0.0483  0.0522
74191W        W17244  28.492  34.016   5.433 -0.2068  0.0634  0.1590
74192W        W17245  12.919  23.610  19.804  0.4978  0.2008 -0.0292
74193W        W17246  16.036  32.232   2.007  0.0605  0.1875 -0.1558
74194W        W17247  10.396  23.529   8.681 -0.1212 -0.1677 -0.0542
74195W        W17248   4.960  28.174   3.902 -0.0357  0.1487  0.2727
74196W        W17249   7.742   1.039  19.973 -0.0126  0.0051 -0.0580
74197W        W17250   2.761  12.388  19.143 -0.0055  0.1603  0.0603
74198W        W17251  34.193  30.786   5.058  0.1088  0.1035  0.1946
74199W        W17252  33.109   0.990   6.255  0.1065 -0.0012 -0.0893
74200W        W17253   1.636   1.633  21.984  0.1642 -0.0587  0.2853
74201W        W17254  22.744   9.346   9.316 -0.0175  0.2054 -0.2031
74202W        W17255   6.606  18.312   7.210  0.1315 -0.0559  0.2262
74203W        W17256  19.355  19.632  15.388  0.1628 -0.0102  0.2154
74204W        W17257   5.349  22.701  24.046 -0.1023  0.0245  0.0831
74205W        W17258   3.848  18.775   6.596 -0.0994  0.1271 -0.2721
74206W        W17259  24.067  26.385  24.338 -0.0741 -0.2330  0.1703
74207W        W17260   7.550  24.975   6.742  0.2833 -0.0428 -0.0479
74208W        W17261  22.585  22.009   2.166 -0.0553 -0.0722 -0.1594
74209W        W17262   6.003  20.057   6.257 -0.0370 -0.2618  0.3612
74210W        W17263   7.482   8.907   7.716 -0.1191  0.1474 -0.2139
74211W        W17264  30.646  31.388  23.283 -0.2658 -0.2393  0.2440
74212W        W17265   0.042  33.114   5.583 -0.2421  0.0326  0.0861
74213W        W17266  33.414  15.280  28.795  0.1784 -0.0633  0.0010
74214W        W17267  21.162  21.120   5.663  0.0988  0.1629 -0.0447
74215W        W17268   9.938  30.862   4.089  0.1861  0.0481 -0.1117
74216W        W17269   6.996  28.805  26.983  0.2229 -0.1169  0.0950
74217W        W17270   9.713  31.064   3.450  0.1840 -0.0785  0.2490
74218W        W17271  13.833  21.702  23.476  0.0439 -0.0930 -0.1125
74219W        W17272  10.583  19.139   7.003 -0.0823  0.0153 -0.0734
74220W        W17273  21.080  17.741  21.095  0.0845  0.0083 -0.0547
74221W        W17274  26.603  34.408   5.673  0.1885  0.1404 -0.0690
74222W        W17275  32.605  29.976  22.668  0.1127  0.0611 -0.0951
74223W        W17276   0.751  10.680  28.011 -0.2630  0.1685  0.1686
74224W        W17277  12.295  31.656   7.420  0.0826 -0.1177 -0.0771
74225W        W17278   7.915  29.145   9.455  0.3906 -0.0462 -0.0674
74226W        W17279   5.348   0.587   4.355 -0.2602  0.0792 -0.0455
74227W        W17280  27.695  26.435  18.559  0.0506  0.2255  0.1693
74228W        W17281   0.854   0.206   7.999 -0.0583 -0.0021 -0.0281
74229W        W17282   7.092  27.162   3.147 -0.1854  0.2314 -0.0478
74230W        W17283  11.105   1.768  17.582  0.2210  0.1832  0.1164
74231W        W17284   7.658   6.956   6.986  0.2741 -0.2426  0.0170
74232W        W17285   1.923  28.089  20.067 -0.1930  0.0398 -0.0904
74233W        W17286  11.140  33.052   5.310  0.0592 -0.0939  0.0401
74234W        W17287  33.550  23.941   9.191 -0.0040  0.0915  0.3779
74235W        W17288   0.379  31.766   5.199  0.0455 -0.0484  0.0389
74236W        W17289  29.184  24.122  15.686 -0.1140 -0.2802 -0.3545
74237W        W17290  29.260  21.076  27.940 -0.1111 -0.1810 -0.1390
74238W        W17291  19.507  29.354  28.453  0.2167  0.1174  0.1540
74239W        W17292  16.170  25.788   5.361  0.3219 -0.2317  0.1755
74240W        W17293  34.551  20.714  20.905 -0.3910  0.4084 -0.0753
74241W        W17294  28.112  28.312   6.813  0.1528  0.0030  0.1554
74242W        W17295   1.188   1.133  22.819 -0.1412 -0.0193 -0.1498
74243W        W17296  11.394   1.502  15.738  0.2629 -0.0946 -0.4053
74244W        W17297   7.379  31.665   6.757 -0.1258 -0.2628 -0.2267
74245W        W17298  22.964  31.062  21.419 -0.1296  0.4380  0.1592
74246W        W17299   0.474  33.363  18.988  0.2934 -0.0813  0.3676
74247W        W17300  28.267  30.940  22.123  0.2575  0.0764  0.0117
74248W        W17301   8.504  17.085   6.846 -0.4120 -0.1180 -0.1364
74249W        W17302  23.239  31.573  27.161 -0.1233  0.0007 -0.0347
74250W        W17303  23.703  25.595   6.843  0.0334  0.0152 -0.2038
74251W        W17304  19.614  23.071  17.188 -0.0331 -0.0897  0.1347
74252W        W17305   4.372  18.978  28.589 -0.0151 -0.1510  0.2148
74253W        W17306   2.225  18.534  27.428  0.3094 -0.0825 -0.0672
74254W        W17307  10.967  18.014  25.255 -0.2672 -0.5045 -0.1406
74255W        W17308  20.002  28.676  19.404  0.0006 -0.0631 -0.0120
74256W        W17309  28.541   1.101  27.137  0.2938 -0.1079  0.0709
74257W        W17310  21.678   2.389   5.962  0.0605 -0.0840  0.2019
74258W        W17311   7.330  30.981   9.614  0.2403 -0.0509 -0.1404
74259W        W17312   9.701  30.263  26.146 -0.1003 -0.2260  0.1224
74260W        W17313   8.599  26.812   1.548 -0.2309  0.1301  0.1253
74261W        W17314   6.751  34.024   1.720 -0.2367 -0.0784  0.2514
74262W        W17315  27.010  27.186   3.202 -0.3424  0.0399 -0.1566
74263W        W17316  28.623   0.692  26.722  0.1344 -0.1393 -0.0814
74264W        W17317   9.881  32.991   1.501  0.0095 -0.2368  0.0788
74265W        W17318   8.801  18.732  20.325  0.1654 -0.3792  0.0354
74266W        W17319   1.760  22.093   8.592 -0.1276  0.2749  0.3685
74267W        W17320  27.532  18.137   0.630 -0.0429  0.2966  0.3648
74268W        W17321   3.954  19.242   5.581 -0.1089 -0.1920  0.1832
74269W        W17322  10.739  12.763   0.961  0.1562  0.2585 -0.0314
74270W        W17323  24.624  27.577   6.739  0.1292 -0.0081  0.1460
74271W        W17324  26.666  11.650   2.813  0.1335 -0.1259  0.2066
74272W        W17325   3.917  29.378  14.050 -0.1860 -0.1761 -0.0980
74273W        W17326   9.139  15.010   8.488 -0.2809  0.0605  0.2005
74274W        W17327   9.497  27.528  24.736 -0.4040  0.0729  0.0678
74275W        W17328  34.318  22.126   6.262 -0.0565 -0.2658 -0.1487
74276W        W17329  19.955  24.578   5.298 -0.2189 -0.1609  0.1503
74277W        W17330  34.016  22.304   2.561  0.1861  0.0434  0.3347
74278W        W17331  11.318  30.889   4.116  0.0753  0.0709 -0.1472
74279W        W17332  11.596  29.980   6.615  0.1231  0.2481 -0.1182
74280W        W17333  21.241  27.830  10.139 -0.0126 -0.2563  0.0701
74281W        W17334   0.737  31.500   6.083 -0.2968 -0.1805  0.3163
74282W        W17335   0.251  29.112   7.165 -0.1201 -0.3008 -0.1006
74283W        W17336  29.736  25.207   2.351  0.0308  0.0728 -0.0153
74284W        W17337  27.833  21.056   3.713  0.2397  0.0229 -0.1298
74285W        W17338  10.466  30.874  25.663 -0.0576 -0.3795  0.2176
74286W        W17339  15.691  31.172   5.287 -0.1943  0.1236 -0.1012
74287W        W17340   6.636   1.300   9.409  0.2634  0.2124 -0.0715
74288W        W17341   9.649  19.363   4.001 -0.0613  0.1244  0.4443
74289W        W17342   6.143  27.474   3.152  0.0452  0.0413  0.2225
74290W        W17343   4.782  33.712  23.826 -0.0242 -0.0091 -0.0599
74291W        W17344  30.590   9.193   8.486  0.0763 -0.1630 -0.1888
74292W        W17345  27.609  34.040  14.691  0.1902  0.1187  0.0701
74293W        W17346   9.605  34.452  15.869  0.3329 -0.1938  0.4144
74294W        W17347  34.418  23.529   4.397  0.1520 -0.1440 -0.2197
74295W        W17348   9.911  33.240   6.815 -0.0546  0.1135  0.3786
74296W        W17349   2.506  26.297  27.128 -0.0088  0.2078 -0.3624
74297W        W17350  21.007   8.082   0.077  0.1322 -0.4968 -0.0155
74298W        W17351  24.673  33.573  17.230 -0.0614 -0.2647 -0.0605
74299W        W17352   0.472   9.239   0.461  0.0120 -0.0337  0.2490
74300W        W17353  18.940  30.253   8.662 -0.3019  0.0264  0.1811
74301W        W17354  20.256   4.738   8.049  0.2017 -0.0214  0.1504
74302W        W17355   7.931  18.445  26.063  0.2157  0.4224  0.2016
74303W        W17356  33.955   0.021  28.441  0.0542  0.0208 -0.1442
74304W        W17357   5.436  22.987   9.245  0.0932  0.1847 -0.2303
74305W        W17358  25.502  22.182  17.317  0.0391  0.0788 -0.0198
74306W        W17359  29.863   3.761   9.295  0.2505 -0.1482  0.1221
74307W        W17360   9.036  21.343  27.056 -0.0217  0.3728 -0.0096
74308W        W17361  10.986  18.166  15.164 -0.0116 -0.0728 -0.0855
74309W        W17362  27.258  29.520  26.492 -0.0657  0.1168 -0.3125
74310W        W17363   0.294  32.344  29.150 -0.2143  0.0392 -0.1005
74311W        W17364  33.737  11.872   2.941  0.4874 -0.1994  0.3615
74312W        W17365   3.195  13.318   6.893 -0.0111  0.0013 -0.1472
74313W        W17366  32.463   2.775   6.983 -0.3191 -0.0342  0.1397
74314W        W17367   1.130  24.536   1.972  0.2285 -0.0354 -0.0672
74315W        W17368   3.936  24.991   0.138 -0.0612 -0.2756  0.0715
74316W        W17369   2.623  11.117  24.572  0.3911 -0.2948 -0.0900
74317W        W17370  12.505  12.708   8.325 -0.0030  0.2731 -0.0584
74318W        W17371   9.089   0.728  10.219 -0.2107 -0.0979 -0.0559
74319W        W17372  29.723   2.677  27.207 -0.2770  0.1429  0.0017
74320W        W17373  11.102  29.823   1.735 -0.2340 -0.1919  0.2178
74321W        W17374   1.767  24.456  26.992 -0.4169 -0.1750  0.0462
74322W        W17375  18.253  25.311   8.739 -0.3241  0.0019 -0.1592
74323W        W17376  20.245  14.993  27.736 -0.2564  0.1265 -0.0646
74324W        W17377  23.569  10.090  29.155  0.1106 -0.1030 -0.1063
74325W        W17378  31.018   9.813   0.930 -0.2138  0.2073  0.0505
74326W        W17379   3.128  19.738  28.573  0.1417 -0.0507  0.0124
74327W        W17380   8.280  13.927   4.911 -0.7823 -0.0448  0.2636
74328W        W17381  27.825  32.179   6.577  0.1465 -0.0268  0.0611
74329W        W17382   6.645  34.066  24.023  0.1670 -0.0350  0.4154
74330W        W17383  16.053  21.433  20.385  0.0692 -0.2320  0.3229
74331W        W17384   1.879  15.681   2.613 -0.1755  0.0448  0.1520
74332W        W17385   5.455  22.510   0.036  0.0631  0.3895  0.0236
74333W        W17386  12.555  23.647   2.476  0.1465  0.1658  0.0002
74334W        W17387  34.427  27.790   4.375  0.0038 -0.4870  0.3665
74335W        W17388   9.433  18.018   8.952 -0.0705 -0.1459  0.4447
74336W        W17389   6.483  26.304  19.221 -0.0930  0.0867  0.1062
74337W        W17390  32.829  31.925  28.067  0.2764 -0.0419 -0.0737
74338W        W17391  30.826   4.817  22.544  0.1358 -0.0332  0.1599
74339W        W17392  10.071  18.432  22.968 -0.0371  0.0110  0.1643
74340W        W17393   9.074  29.808  27.163 -0.3094 -0.3080  0.0651
74341W        W17394  14.421  34.160   6.728 -0.0238  0.0658  0.0051
74342W        W17395  15.296  22.839   9.166  0.1248  0.2525  0.0515
74343W        W17396  30.747   2.040  29.064 -0.0647 -0.0264 -0.0753
74344W        W17397   1.355  16.548  27.419  0.0440  0.0794 -0.2074
74345W        W17398  27.494  27.217  19.944  0.4809 -0.0527 -0.0370
74346W        W17399  15.075  15.447   6.536  0.2590 -0.1104 -0.0225
74347W        W17400  28.007   0.481   2.523 -0.1603 -0.0278 -0.1804
74348W        W17401  32.554   8.329   8.702  0.0338 -0.0074 -0.3314
74349W        W17402   7.199  13.317   1.968 -0.0656  0.1751 -0.1067
74350W        W17403  25.284   2.730  17.737 -0.1540 -0.2405 -0.1165
74351W        W17404   0.437  13.434  16.677  0.0705  0.1084  0.0909
74352W        W17405  14.367  13.181   1.641 -0.5488 -0.0453 -0.3274
74353W        W17406  30.548  13.836   0.157  0.3359  0.1321 -0.0426
74354W        W17407  12.583   3.126   7.135 -0.0779  0.1229 -0.0877
74355W        W17408   5.966  28.778   3.825  0.5338 -0.0732 -0.1634
74356W        W17409  29.899  16.371   3.760 -0.1460 -0.0012 -0.1945
74357W        W17410   8.357  21.258   9.982 -0.2016 -0.0526  0.2267
74358W        W17411  27.945   7.659  24.149 -0.0664  0.2709 -0.0140
74359W        W17412   9.172  25.066  23.180 -0.0332  0.3233  0.0663
74360W        W17413   5.521  24.834  20.171  0.0782 -0.2110  0.0453
74361W        W17414   1.008  30.508   4.794  0.0004  0.0834  0.1373
74362W        W17415   3.481  25.847   2.114 -0.0907 -0.0955  0.0218
74363W        W17416   0.395   2.261  26.574  0.0708 -0.0696 -0.0555
74364W        W17417  13.461  33.971   8.249 -0.1829 -0.3401 -0.1759
74365W        W17418  23.658   7.570  21.742 -0.0526  0.1182  0.3492
74366W        W17419  25.979  21.523   6.409  0.0039 -0.0635  0.1920
74367W        W17420   9.669   2.272  29.121  0.1780 -0.0767 -0.0402
74368W        W17421   7.420  15.566   4.541 -0.1055 -0.4689  0.1062
74369W        W17422  30.969   9.860  20.743 -0.1582 -0.2116 -0.1569
74370W        W17423  31.258  29.133   3.821 -0.0615  0.2557  0.1140
74371W        W17424   8.838   4.615   2.446 -0.1900  0.2215 -0.2412
74372W        W17425   7.985   0.221   5.099  0.0646  0.0853 -0.1246
74373W        W17426   9.864  27.806   4.657  0.3585  0.3060 -0.1524
74374W        W17427   3.081  27.853   0.230  0.0978 -0.0164  0.2069
74375W        W17428   8.511  16.624   9.332  0.0011  0.0010  0.2220
74376W        W17429  21.880   7.030   8.039 -0.0347  0.0862  0.3141
74377W        W17430   6.669  31.029  20.578 -0.0518  0.1415  0.0249
74378W        W17431  15.992   2.323   8.697 -0.0400 -0.0973  0.1786
74379W        W17432  29.262  29.175   9.040 -0.1695  0.1602  0.3352
74380W        W17433   6.099  22.181  23.322 -0.0715 -0.2547  0.0837
74381W        W17434   2.636  33.676  22.747  0.4941 -0.2220  0.3881
74382W        W17435  20.148  34.098  24.019  0.1693 -0.0671 -0.1456
74383W        W17436  23.601  16.779  18.297 -0.1745  0.0149  0.2923
74384W        W17437  33.146  14.046  28.329  0.2981 -0.1840 -0.0892
74385W        W17438   9.010   4.393  25.744 -0.3605 -0.2164  0.0737
74386W        W17439  19.273  27.051   7.412 -0.0994  0.3092 -0.0795
74387W        W17440  12.149  19.509  24.264 -0.0944  0.1556  0.2387
74388W        W17441  25.278  14.397  26.583 -0.1954  0.0081  0.1401
74389W        W17442   4.856  15.581  26.558  0.0612 -0.1306 -0.0637
74390W        W17443  15.105  32.112  26.234  0.0238 -0.0457 -0.0172
74391W        W17444  21.899  34.363   0.145  0.2154  0.1414  0.0697
74392W        W17445   2.021  16.964  22.676  0.1536  0.2679  0.2709
74393W        W17446  10.730  16.295   5.067  0.0465  0.0256 -0.0916
74394W        W17447  29.116   9.389  27.953  0.1994 -0.1391  0.2232
74395W        W17448   8.964  26.908   1.252  0.0443 -0.0500  0.0697
74396W        W17449   8.283  25.448   0.414  0.1416 -0.0329  0.2027
74397W        W17450  13.167   7.313   1.617 -0.0253  0.2635  0.1975
74398W        W17451  10.721  13.216   8.936  0.0248  0.0442  0.1401
74399W        W17452   1.944  30.045  24.897 -0.0757  0.0325 -0.2232
74400W        W17453  26.526  16.876   5.439 -0.0223 -0.2074  0.2066
74401W        W17454  29.652  14.791  17.282  0.0152 -0.0579 -0.0735
74402W        W17455  25.823   4.550   3.837  0.1262 -0.2484  0.0580
74403W        W17456  29.111  18.004   2.553 -0.5096  0.0650  0.3792
74404W        W17457   5.182  28.503  19.503 -0.1245  0.2728 -0.2005
74405W        W17458   8.235   4.197   6.442  0.0155  0.1444  0.1315
74406W        W17459  12.656  25.711   7.680 -0.2359  0.4297  0.1201
74407W        W17460  14.446  25.725   2.976  0.2136  0.2593  0.4211
74408W        W17461   6.712  17.556   1.940 -0.2952  0.4197 -0.0537
74409W        W17462  23.289  32.454   5.710 -0.2039 -0.1374 -0.1210
74410W        W17463   2.856  28.640  15.846 -0.1511 -0.1448 -0.3826
74411W        W17464  12.169  22.809   3.284  0.2934  0.0740  0.0386
74412W        W17465  11.245  21.140  26.217 -0.3071  0.1748  0.0015
74413W        W17466   7.315   6.544   9.313  0.2597 -0.1353  0.0825
74414W        W17467  15.954  28.699   7.429 -0.0067 -0.0035 -0.0512
74415W        W17468  32.464  21.389   8.393 -0.2253  0.5301 -0.1653
74416W        W17469  12.329  28.345   6.516  0.0219 -0.3251  0.1559
74417W        W17470   7.928  33.086   3.495 -0.1105 -0.1771  0.2311
74418W        W17471  33.486  33.558   9.752  0.0861 -0.1678  0.0187
74419W        W17472  14.325   9.422   6.407 -0.0173  0.4532 -0.1181
74420W        W17473   0.198  31.997   1.753  0.0134 -0.3668  0.0101
74421W        W17474   1.771  19.482   8.094  0.0117  0.0296 -0.1884
74422W        W17475  27.196  19.941   8.472 -0.1559  0.0327 -0.2506
74423W        W17476  21.779  27.274   3.981  0.0489  0.0180  0.2593
74424W        W17477  29.901   0.096   7.933  0.0278  0.3715 -0.1038
74425W        W17478   9.941  24.181   7.058 -0.1031 -0.1111 -0.3846
74426W        W17479   0.993   1.293   5.574  0.1279 -0.1140 -0.2433
74427W        W17480   1.968  32.817   4.656 -0.0224 -0.3554 -0.0400
74428W        W17481  20.697  17.122  25.424  0.1781  0.0087  0.0186
74429W        W17482  31.115  14.973  14.479  0.2105 -0.0661  0.1039
74430W        W17483  19.000  26.698  28.828 -0.3069 -0.0987  0.1962
74431W        W17484  33.458   7.924   8.769 -0.3727  0.2863  0.0659
74432W        W17485  27.768   3.002   8.556  0.1230 -0.2594 -0.2582
74433W        W17486  13.705  29.790   8.308  0.1924 -0.3702 -0.3718
74434W        W17487  31.954  27.393   1.699  0.2834  0.2443  0.0033
74435W        W17488   9.252  30.573  27.717  0.1397  0.0284 -0.0010
74436W        W17489   0.152   8.407  10.031 -0.4348  0.1200 -0.0455
74437W        W17490   8.343  17.990  28.693 -0.0317 -0.3969 -0.0157
74438W        W17491  15.508  30.790  10.568 -0.3196 -0.0530  0.0446
74439W        W17492  32.295  26.359  26.657 -0.1393  0.0336 -0.2427
74440W        W17493   7.931  17.930   7.361  0.0951 -0.2201  0.0557
74441W        W17494   3.363  34.131   2.704  0.2580  0.2952 -0.4001
74442W        W17495   8.596  28.093   3.420 -0.0182 -0.0041  0.1137
74443W        W17496  33.305  15.350   8.624  0.1824  0.1186 -0.0812
74444W        W17497  23.077  25.915   8.477  0.0870 -0.0041  0.2541
74445W        W17498   7.951  34.040  25.025 -0.0828  0.1884  0.0260
74446W        W17499   8.719  26.116   3.042 -0.0808 -0.1927  0.0922
74447W        W17500   1.297  26.784   3.956 -0.2963 -0.1332 -0.1027
74448W        W17501   1.109  19.551   1.470  0.2583  0.1856  0.3204
74449W        W17502  17.832  13.886   1.288 -0.2479  0.2392  0.0957
74450W        W17503  30.877  21.571   6.737 -0.0896 -0.1130 -0.2175
74451W        W17504  27.876  15.766   0.395 -0.0163 -0.0167 -0.2053
74452W        W17505   2.474   9.644  24.393  0.0297 -0.1954  0.1984
74453W        W17506  23.197  21.411   4.127 -0.2084  0.2916 -0.1176
74454W        W17507   0.563  31.608   0.369 -0.0993  0.0030 -0.0715
74455W        W17508  32.639  13.702   5.296 -0.0899 -0.0336 -0.2626
74456W        W17509  25.525  14.349   1.074  0.1646  0.2392 -0.1156
74457W        W17510  29.713  32.363   2.074 -0.3066  0.1059  0.1989
74458W        W17511  16.847  24.330  27.433  0.1033 -0.2367  0.1207
74459W        W17512   4.156  20.453  20.920 -0.0193  0.1024 -0.0990
74460W        W17513   8.001  28.191   5.571 -0.0954 -0.4471 -0.1190
74461W        W17514  12.552   7.387  24.553 -0.1475  0.2670  0.1214
74462W        W17515  12.830  15.047   5.192  0.0880 -0.3926  0.1545
74463W        W17516   6.342   7.796   4.644 -0.0126 -0.2198 -0.0923
74464W        W17517  17.911  10.855  23.831 -0.0291 -0.1649 -0.1782
74465W        W17518  33.004  28.262   9.645 -0.4361  0.0381  0.1859
74466W        W17519  32.545  22.192   0.427  0.0519  0.2624  0.0496
74467W        W17520  34.013  26.030   3.192 -0.1112 -0.1096 -0.1348
74468W        W17521  32.432   0.012  22.329  0.4600  0.0224 -0.1917
74469W        W17522  25.135   5.817   5.560  0.0717  0.0746  0.0961
74470W        W17523   9.268  20.290  27.340  0.0039 -0.3018  0.0203
74471W        W17524   9.803  29.978   7.791 -0.0489 -0.1084  0.1780
74472W        W17525  31.508  12.633   9.956 -0.1375  0.1089  0.0828
74473W        W17526  12.579  17.508  26.065 -0.1039 -0.0654  0.4386
74474W        W17527  22.803  34.027   4.017 -0.0467 -0.1659  0.1582
74475W        W17528  33.608  34.190  22.376 -0.1299  0.1625  0.0280
74476W        W17529  11.662  29.293  22.039  0.0151 -0.2067  0.2287
74477W        W17530  16.038  30.065  22.052  0.2592  0.2581 -0.1373
74478W        W17531   4.987   9.666  16.972 -0.0207  0.1223 -0.1631
74479W        W17532  29.566   4.266   1.955  0.0914  0.1329  0.0238
74480W        W17533  28.642  29.454   6.148  0.0422 -0.1314  0.0624
74481W        W17534   9.179  26.854  27.226  0.2138 -0.2210  0.0736
74482W        W17535   3.650  12.801   4.055 -0.4796  0.2777 -0.2910
74483W        W17536  18.995  15.365   0.447  0.0538 -0.0103 -0.0388
74484W        W17537  10.496  32.470  20.198 -0.1052  0.0510 -0.0238
74485W        W17538  28.968  31.770   8.186  0.0051  0.1725 -0.0190
74486W        W17539   3.121  27.631   8.896 -0.1537 -0.0289 -0.1067
74487W        W17540   2.235  19.714   7.838  0.0912  0.2143  0.1694
74488W        W17541  25.845  27.542   3.442  0.4105 -0.1354  0.1886
74489W        W17542   5.971  24.079  21.721  0.0088  0.1394  0.0603
74490W        W17543   8.102  15.923  21.759 -0.0375  0.2042 -0.0472
74491W        W17544  11.593  29.200  19.622  0.1604 -0.1129 -0.0061
74492W        W17545   2.327  16.289  22.567 -0.1716  0.0772 -0.1415
74493W        W17546  11.108  21.006   3.662  0.0620 -0.2000 -0.1271
74494W        W17547  31.756  22.846   0.084 -0.2024 -0.2859  0.2771
74495W        W17548   6.790  31.845   5.377 -0.1251 -0.4113 -0.5412
74496W        W17549  31.704  22.700   9.050 -0.0005  0.1529  0.3130
74497W        W17550  24.487  25.234  21.040 -0.1056 -0.1450 -0.3173
74498W        W17551   0.344   4.190   2.030 -0.3211  0.2646 -0.1053
74499W        W17552   4.755  17.428  27.881  0.3908  0.1578 -0.2119
74500W        W17553   2.907  23.498  22.543  0.2265  0.3890 -0.1456
74501W        W17554   4.342  10.300  25.291  0.2460 -0.5402 -0.1607
74502W        W17555  11.892  19.879   1.838  0.1321  0.0915 -0.2131
74503W        W17556  11.927   5.243  18.339 -0.2125 -0.2244 -0.0927
74504W        W17557   6.877  25.804   1.592  0.1924 -0.1918 -0.0957
74505W        W17558  33.722  10.090  14.932 -0.1933 -0.0060 -0.0298
74506W        W17559   1.998  11.190   6.099 -0.0984 -0.1126 -0.0008
74507W        W17560  14.451  25.547  22.114 -0.2457  0.0436 -0.1533
74508W        W17561  26.472  24.371   9.051 -0.0951  0.1092 -0.0818
74509W        W17562  14.768  28.949   9.690 -0.1657 -0.2109 -0.2553
74510W        W17563  31.345  30.023   1.282 -0.0336  0.0962  0.1023
74511W        W17564   3.370  17.412   2.917 -0.0995  0.0100  0.3315
74512W        W17565  24.208  32.467   0.121 -0.1446 -0.0102 -0.4541
74513W        W17566  14.123  30.407  25.268  0.1758  0.3026 -0.2391
74514W        W17567  28.589  33.412  26.177 -0.1735  0.0518 -0.0962
74515W        W17568  31.625  34.676   0.646 -0.1024  0.0069 -0.1067
74516W        W17569  31.981  28.052   4.663 -0.2554  0.2161  0.1014
74517W        W17570  19.611  13.942  27.927  0.0106 -0.0169 -0.0312
74518W        W17571  29.021  32.140  28.034 -0.0005 -0.0944  0.3090
74519W        W17572  14.506  21.062  26.007  0.1838  0.0192  0.2432
74520W        W17573   2.089  21.716  15.358  0.0728  0.1102  0.1161
74521W        W17574  16.603   6.005   2.183  0.0111  0.1243  0.0530
74522W        W17575   8.781  28.131   7.144 -0.0968 -0.3322 -0.2974
74523W        W17576   3.482  25.850   8.341  0.1919  0.1446  0.0493
74524W        W17577  18.530   5.071   5.319 -0.0786  0.5580  0.1794
74525W        W17578   1.246  17.168  25.891  0.1106 -0.1641 -0.0392
74526W        W17579  20.030  32.416  25.524 -0.1616 -0.0026 -0.3790
74527W        W17580   6.810  14.525   0.333  0.0581 -0.0202 -0.3690
74528W        W17581   3.953   8.720  16.072 -0.1578  0.1727  0.0571
74529W        W17582  12.703   2.542  28.474 -0.0658  0.0330  0.3636
74530W        W17583  28.137   8.737   3.368 -0.0795 -0.2697  0.1261
74531W        W17584   4.177   1.360  16.396 -0.3313  0.5224 -0.1192
74532W        W17585  11.401   8.887  29.056  0.0438 -0.1459 -0.0122
74533W        W17586  32.453  22.976  22.084 -0.2224 -0.2187  0.1645
74534W        W17587  19.783   0.767   5.380  0.1666 -0.0001 -0.1859
74535W        W17588  31.877   6.005  14.067  0.3123 -0.0527 -0.0019
74536W        W17589  11.834  21.380   9.627 -0.2051  0.0152 -0.2329
74537W        W17590   7.472  18.961   0.628  0.0343 -0.0772 -0.0179
74538W        W17591  34.503  19.500   1.356 -0.1417 -0.1422 -0.1336
74539W        W17592   7.789   0.660   4.325 -0.0973 -0.0678 -0.1591
74540W        W17593  19.686  27.212   5.162 -0.2041  0.0203  0.0040
74541W        W17594   0.264  23.899   7.641 -0.0395  0.0306 -0.0579
74542W        W17595   5.690  26.163  27.390  0.1246  0.1798  0.3964
74543W        W17596   5.384  34.358   4.421  0.2035 -0.1632 -0.0209
74544W        W17597   6.726   0.029   2.853  0.0608 -0.2484 -0.0335
74545W        W17598   2.947  23.463  27.735  0.0283 -0.1064 -0.0103
74546W        W17599  31.081  26.831  28.429 -0.1976  0.3725 -0.1289
74547W        W17600   0.682  13.479   3.841  0.1446 -0.3036  0.0853
74548W        W17601  27.797   3.269  21.375  0.1766 -0.1731 -0.0431
74549W        W17602   1.093  24.108  26.029  0.1109 -0.2451  0.0431
74550W        W17603  23.642   2.689   0.226 -0.3112  0.1747 -0.1571
74551W        W17604  16.420  23.904   6.976  0.1627  0.1338  0.4664
74552W        W17605  33.992  22.566  14.313 -0.1100  0.1924 -0.2575
74553W        W17606   9.838  23.365   6.352  0.0525  0.1638 -0.0092
74554W        W17607   8.632  23.591  18.887  0.1231 -0.0128 -0.0332
74555W        W17608  10.145  27.959  25.639  0.2916  0.1531 -0.0366
74556W        W17609  23.577  24.797   9.792 -0.4322  0.0612 -0.1200
74557W        W17610  34.141  28.722  22.501 -0.0732  0.2865 -0.1562
74558W        W17611   5.133  23.620  23.868 -0.2866  0.2648  0.2994
74559W        W17612  17.560   1.051  26.946 -0.3759  0.0011 -0.1511
74560W        W17613   9.482  24.061  28.291  0.2224 -0.0122  0.2372
74561W        W17614  32.858  20.233   1.451  0.0746 -0.1093 -0.1512
74562W        W17615   2.347  22.474  24.710 -0.1648 -0.0898 -0.2978
74563W        W17616  30.550  23.563  26.002 -0.0585 -0.0662  0.2233
74564W        W17617   6.932  16.724   8.239  0.2329  0.1129  0.2758
74565W        W17618   9.601  28.606   8.418  0.0760 -0.2249 -0.0413
74566W        W17619  31.379   2.509   9.665  0.1074 -0.0132 -0.2730
74567W        W17620   8.726  32.831   4.911 -0.3636  0.2175  0.1517
74568W        W17621  19.350  32.304  25.185 -0.0221  0.3713  0.0463
74569W        W17622  25.640  25.756   5.622  0.0091  0.0737  0.0162
74570W        W17623  34.469  28.495   8.598  0.0147 -0.3097 -0.0032
74571W        W17624  10.816  27.376   0.171 -0.0679 -0.1702  0.1232
74572W        W17625  26.416  30.455   0.704 -0.0915  0.1352  0.2956
74573W        W17626  25.070  21.209  28.146  0.1574 -0.1310  0.1022
74574W        W17627   2.701  33.219   0.750 -0.1213  0.0071  0.1129
74575W        W17628  20.940  27.092  20.069 -0.1814 -0.0596  0.0225
74576W        W17629  12.682  32.974   9.393  0.3730  0.2558 -0.1150
74577W        W17630  31.674  23.464   6.061 -0.2496 -0.0658 -0.0035
74578W        W17631  16.096  33.174  29.011 -0.1105  0.0797 -0.1725
74579W        W17632   7.152  33.807   8.524  0.4045  0.0050 -0.3270
74580W        W17633   4.421   0.494   3.036  0.0446  0.1261  0.2505
74581W        W17634  34.187   7.750   2.901  0.0384 -0.0419  0.2101
74582W        W17635  34.299  32.716   5.790  0.0066  0.0605  0.1587
74583W        W17636  23.714  31.131   5.793 -0.0238  0.2883  0.1025
74584W        W17637  16.581  14.239  28.677 -0.0700  0.1242  0.2197
74585W        W17638   4.735  21.839   3.853  0.1624 -0.1536  0.2054
74586W        W17639  34.369  25.165   0.614  0.0878 -0.1657 -0.0767
74587W        W17640  10.496  32.742   0.232 -0.0388  0.0509 -0.1754
74588W        W17641  18.746  27.050   5.652 -0.2796  0.0487  0.1796
74589W        W17642  34.670  17.814  22.620 -0.2077  0.1852 -0.0004
74590W        W17643   5.252  15.013   4.758 -0.1878 -0.0290 -0.4642
74591W        W17644   3.181  11.228  10.321  0.0736  0.1069 -0.4453
74592W        W17645  11.179  19.142  28.905 -0.0402  0.0602 -0.0992
74593W        W17646   5.576  20.377  21.162  0.2288 -0.2020  0.0985
74594W        W17647  12.760  26.608   0.076  0.1904  0.0541 -0.1675
74595W        W17648  15.850   7.094   6.031  0.2199 -0.2154 -0.0297
74596W        W17649   6.140  17.864  23.811  0.2020  0.0718  0.0118
74597W        W17650   8.644  16.561   2.653 -0.1097  0.3492 -0.2408
74598W        W17651  15.724   2.997  21.202 -0.0045  0.3355  0.2206
74599W        W17652  13.026  14.064  22.859 -0.2738  0.4629 -0.0130
74600W        W17653  29.747  29.790  28.621 -0.2886 -0.0034 -0.0361
74601W        W17654   4.177   5.369   9.764 -0.0573 -0.1174  0.0083
74602W        W17655  29.923  14.168   7.747  0.0777  0.1176 -0.1457
74603W        W17656   8.034  18.280  22.085  0.4288 -0.3314  0.1214
74604W        W17657   2.174  24.257  23.815  0.0849  0.1339 -0.0520
74605W        W17658   4.638  27.058  29.190 -0.2319  0.0208 -0.0202
74606W        W17659   6.126  19.506  24.426 -0.2497  0.4097 -0.1344
74607W        W17660  20.854  27.391  21.023 -0.2586  0.2346 -0.1166
74608W        W17661  31.170  29.350   9.453 -0.3835  0.1693 -0.4091
74609W        W17662  19.187  15.094   2.904  0.3067  0.0639  0.2246
74610W        W17663  12.836  31.646   9.841 -0.2210 -0.2387  0.0079
74611W        W17664  14.797  15.989  27.501 -0.0867 -0.0721 -0.1386
74612W        W17665   2.556  22.594   7.744 -0.0214  0.2303 -0.1258
74613W        W17666   0.136  29.309   7.662 -0.1784 -0.2332 -0.0325
74614W        W17667   3.014  12.759   6.856 -0.0290  0.0300 -0.0834
74615W        W17668   8.669   4.304   9.416  0.0701 -0.0398  0.0568
74616W        W17669  21.199  29.500  28.140 -0.0230 -0.0885  0.1271
74617W        W17670   0.071  15.175   7.769  0.1947 -0.1031 -0.4076
74618W        W17671  12.440  32.958  27.974  0.3972  0.3150  0.2377
74619W        W17672   7.199  21.043   4.670  0.0557 -0.1412  0.1937
74620W        W17673  28.983  17.749  20.380  0.0046 -0.3744 -0.1663
74621W        W17674  30.518  33.747   4.924 -0.0789 -0.0931 -0.4076
74622W        W17675   6.445  11.481  24.896 -0.2257  0.1942 -0.0185
74623W        W17676   3.158  29.586   2.964 -0.0429 -0.2010 -0.0374
74624W        W17677   4.660  21.182  28.351  0.0606 -0.0679 -0.2467
74625W        W17678  18.083  20.302  14.132 -0.3051  0.3796  0.2515
74626W        W17679   6.663  31.527   3.822 -0.1188 -0.2215  0.5059
74627W        W17680   4.473   2.924   9.211 -0.0009 -0.3718  0.5843
74628W        W17681  30.071  22.705  21.027  0.0078 -0.0111 -0.1282
74629W        W17682   5.327  20.855   0.890 -0.0009 -0.2878 -0.3580
74630W        W17683  33.666   0.370  27.530  0.3185 -0.1318  0.1769
74631W        W17684  19.772  24.058   8.140 -0.0131 -0.0049  0.4016
74632W        W17685  10.181  33.591   6.280 -0.1533 -0.0778 -0.2244
74633W        W17686  12.216  31.798   0.852  0.1907  0.0456  0.0228
74634W        W17687  21.439  21.105  27.327 -0.0170 -0.0679  0.1538
74635W        W17688  32.855  23.316   4.042  0.1030 -0.1415 -0.3704
74636W        W17689   9.176  23.318   3.395  0.0712  0.3365  0.1309
74637W        W17690   7.534  34.326   9.381 -0.0058  0.0083  0.0245
74638W        W17691  12.804   5.658  27.326 -0.2567 -0.0647 -0.0699
74639W        W17692   6.573  22.143   0.249  0.0300  0.0382 -0.0509
74640W        W17693   8.221  26.911  25.798 -0.2000  0.1389  0.0438
74641W        W17694   5.445   5.718   3.650  0.1625  0.1612  0.0469
74642W        W17695  15.604  24.210   0.465  0.1771 -0.0415  0.0972
74643W        W17696  15.659  18.992   3.005  0.0360 -0.2586  0.2813
74644W        W17697   6.063  10.620  10.203 -0.1121  0.1011 -0.4040
74645W        W17698   2.135  22.781   3.095 -0.1306  0.3323  0.0915
74646W        W17699   3.060  28.583   5.184 -0.1777 -0.0342 -0.0759
74647W        W17700   5.805  20.541  26.759  0.2966  0.2252  0.1509
74648W        W17701  12.476  27.910   6.676  0.0145 -0.2524 -0.1642
74649W        W17702   3.014  10.033   3.555 -0.0523  0.4267 -0.1791
74650W        W17703  17.205   9.857   4.993 -0.1760  0.0818 -0.1006
74651W        W17704  12.746  24.210   5.784  0.2929  0.0266  0.0360
74652W        W17705   0.729  24.960   2.164  0.0845 -0.0140 -0.1180
74653W        W17706   3.388  31.664   9.024  0.2542  0.3633  0.3510
74654W        W17707  22.952  24.492  25.185 -0.1421  0.0015 -0.0042
74655W        W17708  16.210  20.932   8.226  0.4081  0.0967 -0.0644
74656W        W17709  27.544   0.324   6.482 -0.2554 -0.0363  0.2091
74657W        W17710   2.552  26.099   4.079  0.0923 -0.2229 -0.0788
74658W        W17711  13.901  11.144   2.885 -0.1656  0.0829 -0.2140
74659W        W17712   5.934  31.409   8.685 -0.3587  0.0486  0.0525
74660W        W17713  31.471  33.671   4.626 -0.2588  0.3184 -0.3024
74661W        W17714  15.532  18.578   6.684 -0.1138 -0.1349  0.1344
74662W        W17715   7.537  26.211   0.230  0.0871 -0.2378 -0.0321
74663W        W17716   3.514  30.596   7.852  0.1276 -0.1774 -0.0237
74664W        W17717   8.255   2.141   9.517  0.0076 -0.0330 -0.1763
74665W        W17718   3.414  22.499   5.422 -0.4148 -0.1709 -0.2593
74666W        W17719   6.766  32.161  13.995  0.1349 -0.1054  0.1070
74667W        W17720  30.642   5.306  10.141  0.0844 -0.1463 -0.0962
74668W        W17721  11.961  32.024  29.156  0.3066 -0.2215  0.0571
74669W        W17722  12.453  14.555   7.167  0.1587 -0.1061 -0.0737
74670W        W17723  11.141  19.152   6.854 -0.0046  0.2058 -0.2855
74671W        W17724   8.965  21.516   2.261 -0.2397 -0.0793 -0.1899
74672W        W17725   5.270  21.589   3.106  0.1596  0.0053  0.1025
74673W        W17726  29.757  24.581   6.447 -0.2268  0.0670 -0.0237
74674W        W17727  28.085  12.049   8.811 -0.3553 -0.2055  0.0992
74675W        W17728  29.494  32.309   4.580  0.0577 -0.0249  0.0399
74676W        W17729  13.668  19.431   0.528 -0.0723 -0.1966 -0.1628
74677W        W17730   8.710   9.450   7.758 -0.0270  0.6569  0.0508
74678W        W17731   9.402  11.804   5.237  0.1780  0.0347  0.1859
74679W        W17732   8.310  20.061   7.513 -0.0165 -0.0524  0.2731
74680W        W17733  15.480  32.092  27.145  0.2858 -0.1377 -0.1722
74681W        W17734   0.852  21.100   4.813  0.1236  0.1754 -0.1081
74682W        W17735  18.107  29.610   4.105  0.1852  0.1749  0.2808
74683W        W17736   7.996  17.584   7.760 -0.0885  0.0575 -0.0004
74684W        W17737  33.979  29.158  23.672 -0.1829  0.0099  0.0280
74685W        W17738  20.529  25.612   0.494  0.0553  0.1057  0.0031
74686W        W17739  18.951  28.229   8.644 -0.1172  0.1562 -0.1473
74687W        W17740  22.950  20.275   2.569  0.1136 -0.0847 -0.0614
74688W        W17741   8.927  26.013   2.397  0.0300 -0.0530 -0.2957
74689W        W17742  34.249  33.679   2.827  0.2549  0.1582  0.0652
74690W        W17743  28.681  22.841  10.370 -0.1229  0.0353 -0.1138
74691W        W17744  23.455  27.245  23.393 -0.1881  0.0130  0.2511
74692W        W17745  28.694  13.193   6.764  0.0142 -0.0770 -0.1793
74693W        W17746  15.053  24.500   9.752  0.2234 -0.0446  0.0789
74694W        W17747  30.910  32.046   5.595  0.2374  0.1701 -0.2919
74695W        W17748  30.348  17.247   8.574 -0.0572  0.0335  0.1431
74696W        W17749   3.880  23.565   1.167  0.0149  0.1658  0.1119
74697W        W17750  34.255  14.668  21.498  0.3241 -0.2824 -0.2634
74698W        W17751   7.416  13.461   5.318  0.2370 -0.0385  0.2720
74699W        W17752   9.154  18.377  25.125 -0.2777  0.1336  0.0380
74700W        W17753  14.606  22.437  28.611  0.1020  0.1416 -0.0746
74701W        W17754  34.375  15.409   4.707  0.2844 -0.0164  0.1543
74702W        W17755  12.011  12.160   0.607 -0.0063 -0.0798  0.1319
74703W        W17756  30.384  27.003   9.266  0.0585  0.2589 -0.1666
74704W        W17757  24.811  19.484   8.349 -0.0248 -0.0954  0.0095
74705W        W17758  17.539  31.057   6.582 -0.1145 -0.0434  0.2248
74706W        W17759   8.276  18.672   5.737  0.0256 -0.2018  0.1425
74707W        W17760  32.997   7.628   8.678  0.1508 -0.0823 -0.0205
74708W        W17761   6.832  23.442   2.095 -0.1084  0.1301  0.3724
74709W        W17762  18.489  23.824   0.868  0.3733  0.3546  0.0718
74710W        W17763  26.611  23.383   2.912  0.2478  0.0734 -0.0665
74711W        W17764   3.474  28.863   6.512 -0.3023 -0.0998 -0.0906
74712W        W17765  33.149  30.449   4.999  0.0670  0.0453  0.2035
74713W        W17766  16.689  34.521   3.388  0.0800 -0.2746  0.0558
74714W        W17767  32.979   2.661   6.847 -0.3154  0.1708 -0.2307
74715W        W17768   4.230  32.394   6.024 -0.1450  0.0997  0.4013
74716W        W17769   7.548  21.238  10.027 -0.0512 -0.0624  0.1155
74717W        W17770  14.149  32.301  27.291  0.0776  0.1362 -0.2188
74718W        W17771   2.428  20.595  22.019 -0.1619  0.0289 -0.2098
74719W        W17772   3.466  33.716  26.543  0.0308  0.2592  0.3381
74720W        W17773  16.881  19.599   3.360  0.2109  0.0399 -0.1573
74721W        W17774  34.060  29.469   6.696 -0.1130  0.0008 -0.1174
74722W        W17775  17.990  13.631  20.265  0.0083 -0.2439  0.0359
74723W        W17776   3.022   5.392   4.546  0.0738 -0.0368 -0.1804
74724W        W17777  34.298  12.885  28.107 -0.4924 -0.3319 -0.0975
74725W        W17778  13.401  20.598   7.029 -0.3225  0.3310 -0.2111
74726W        W17779   7.522   1.051  28.809  0.1270 -0.1971 -0.1382
74727W        W17780   7.744  30.316   6.824 -0.0491 -0.1948  0.3073
74728W        W17781  13.863  22.690   4.943 -0.2104 -0.1773 -0.1473
74729W        W17782   3.625  14.283   5.166  0.0848  0.0259  0.1001
74730W        W17783  19.314  29.854   5.322 -0.0615  0.0999  0.0292
74731W        W17784  34.125  13.321   8.640  0.1453  0.0782  0.0831
74732W        W17785  12.968  18.659  25.308 -0.1020  0.0386  0.0725
74733W        W17786   5.800  21.564  24.293  0.0083 -0.0590 -0.2255
74734W        W17787  27.046  18.951  26.076 -0.1265 -0.1089 -0.0698
74735W        W17788   9.013  27.801  23.356  0.1004  0.2602 -0.0753
74736W        W17789  11.972  33.501   6.536  0.1346  0.0242  0.1068
74737W        W17790  33.954   8.056   6.438 -0.0335  0.0620 -0.0611
74738W        W17791  15.512  19.130  26.572 -0.5856  0.2453 -0.3254
74739W        W17792  14.752  20.900   2.961  0.2107 -0.0784  0.0158
74740W        W17793  31.056  20.610   9.499 -0.3455  0.0042 -0.0776
74741W        W17794  13.755  16.830   9.741 -0.0171  0.0518 -0.0643
74742W        W17795   8.507  26.762  24.786  0.0561 -0.1014 -0.1497
74743W        W17796  34.015  10.696   8.436 -0.0775  0.1426 -0.0255
74744W        W17797   6.729  28.172   7.922  0.1169 -0.0081  0.3623
74745W        W17798   7.781   0.859   9.708  0.1728 -0.2602 -0.2096
74746W        W17799   5.963  19.507  20.964  0.1783 -0.0870  0.0333
74747W        W17800   9.727  20.254  27.710  0.0171 -0.1230  0.1262
74748W        W17801   5.765  19.328   4.188 -0.0279  0.3647  0.0522
74749W        W17802  20.501  29.050   1.227  0.1929 -0.0364 -0.0355
74750W        W17803   4.074  10.176  26.917  0.2641  0.1164  0.1581
74751W        W17804  14.527  30.580  26.213 -0.1412  0.1906  0.2873
74752W        W17805  26.781  34.421   2.862  0.2944  0.0100 -0.1384
74753W        W17806  31.196  20.093   0.783  0.3391 -0.3597 -0.0956
74754W        W17807  10.607  20.256   3.825  0.1494  0.2837 -0.1201
74755W        W17808  27.395  26.841   0.382 -0.1550  0.0494 -0.0157
74756W        W17809   2.285   2.125   3.613 -0.0254  0.0407  0.1358
74757W        W17810  32.520   1.187   3.240  0.0066  0.0024 -0.1543
74758W        W17811   4.470   4.906   9.115  0.0510  0.0349 -0.0466
74759W        W17812  10.664  23.939   7.847 -0.2207 -0.1478 -0.0387
74760W        W17813  15.994  33.394  14.801 -0.0290 -0.2651 -0.0708
74761W        W17814  10.818   5.824   6.933 -0.0062  0.1299 -0.2039
74762W        W17815  34.217  23.846   4.768  0.2820 -0.0645  0.2270
74763W        W17816  33.781  32.569   8.807 -0.2256  0.1225  0.0031
74764W        W17817  31.182   3.789  22.664 -0.2464 -0.0653 -0.0665
74765W        W17818  29.998  27.843  25.162 -0.0528 -0.2405 -0.2557
74766W        W17819   3.023  28.228  27.283 -0.0575 -0.0472 -0.0633
74767W        W17820  14.013  10.887  29.087 -0.2604 -0.0962  0.2390
74768W        W17821  25.763  13.055  25.884  0.1064  0.1990 -0.3082
74769W        W17822  34.481  18.582   7.645 -0.0163 -0.1465  0.0415
74770W        W17823  14.484  11.905   9.732 -0.3470 -0.1686  0.0068
74771W        W17824  34.322  20.240   0.163 -0.3593  0.2644 -0.1561
74772W        W17825   0.086  14.918  27.844  0.0287  0.1945  0.0061
74773W        W17826   1.312   6.311  26.783  0.0451 -0.3825 -0.3402
74774W        W17827   8.163  31.426   2.461 -0.1243  0.0845 -0.0242
74775W        W17828  18.294  17.915  28.807  0.1951 -0.4204 -0.1118
74776W        W17829  10.336   8.185   8.476  0.1063 -0.1012  0.3166
74777W        W17830   8.605  22.602   4.432 -0.1502 -0.1108 -0.4502
74778W        W17831  29.441  18.598   4.886  0.3635  0.4405 -0.1544
74779W        W17832   1.645  18.172   0.929  0.0403 -0.0065  0.1222
74780W        W17833   7.218  30.384   7.678 -0.1772  0.1523  0.3542
74781W        W17834  28.243  31.189  28.753  0.2701 -0.1565 -0.0746
74782W        W17835  15.298  24.808   5.813  0.0813  0.1263  0.1965
74783W        W17836   0.560  13.886  23.159  0.1836 -0.2214  0.2375
74784W        W17837   3.623  23.948   2.474  0.1274 -0.2080  0.0748
74785W        W17838  10.880   8.731  27.570 -0.2162  0.1144 -0.1684
74786W        W17839   0.722   8.734  22.495 -0.1353  0.2545 -0.1793
74787W        W17840  31.657  25.730   9.184 -0.0080 -0.2043 -0.0073
74788W        W17841  32.656   2.806   1.579  0.1000  0.0710  0.1609
74789W        W17842  23.699   1.625   0.504  0.3199 -0.1853 -0.2165
74790W        W17843  20.972  26.154   9.900 -0.2034 -0.3619  0.1734
74791W        W17844   9.636   5.013   7.232  0.2746  0.1027  0.6270
74792W        W17845  13.947  13.313  11.325 -0.0386 -0.3333 -0.0406
74793W        W17846  31.855  27.653  26.779 -0.0758 -0.1801 -0.2627
74794W        W17847   7.668  27.438   5.674 -0.2676 -0.0001  0.0582
74795W        W17848   7.618  16.805  10.108  0.2542 -0.0307 -0.3230
74796W        W17849   6.600  30.324  27.499  0.1933 -0.0687  0.0618
74797W        W17850  18.386  21.929   2.746 -0.0245 -0.1301  0.1006
74798W        W17851  22.148  23.461   8.329  0.0500  0.3214 -0.0001
74799W        W17852  16.084  31.024  16.125  0.2138  0.2121  0.0981
74800W        W17853   1.570  31.151   0.026  0.1617  0.1975  0.0391
74801W        W17854  19.525  25.428  10.150 -0.1815  0.0505 -0.1799
74802W        W17855   6.015  25.676   8.417  0.1149 -0.4567 -0.1585
74803W        W17856   2.415  16.193  25.082  0.0908 -0.2302 -0.2965
74804W        W17857   3.249  19.726   5.883  0.2306  0.0013  0.0134
74805W        W17858  28.433  27.008  21.482 -0.0566 -0.0957 -0.1540
74806W        W17859   8.456  24.915  18.099 -0.2292 -0.2379  0.3600
74807W        W17860  33.387  33.379   8.999  0.1445  0.0929 -0.0604
74808W        W17861   8.451  29.665  22.753 -0.0804  0.0614  0.1064
74809W        W17862  27.330  18.144   4.506  0.1005  0.0426 -0.2010
74810W        W17863  32.728  33.273  21.584  0.1903 -0.0262 -0.0750
74811W        W17864   7.090  15.614  16.225 -0.1456 -0.3962 -0.1029
74812W        W17865  10.555  22.580  25.319 -0.3777  0.0937  0.2865
74813W        W17866  32.454  12.225   1.536 -0.2192  0.2496 -0.0056
74814W        W17867  18.199  28.006   2.279  0.1231  0.0334  0.0900
74815W        W17868  34.090  17.120   3.652 -0.1560 -0.1274 -0.1885
74816W        W17869   3.587  29.143  27.528  0.2903  0.0202  0.3633
74817W        W17870  20.343  28.886  27.462  0.0187 -0.4128  0.2410
74818W        W17871   0.124  21.861  25.346 -0.0881 -0.1125  0.0622
74819W        W17872  27.504  27.387   3.167  0.0637  0.1995 -0.1883
74820W        W17873  10.413  34.161   5.043  0.0872 -0.0365 -0.1700
74821W        W17874  31.166  26.754  26.543  0.1586 -0.3438 -0.0992
74822W        W17875  24.930  21.569   9.342 -0.2022  0.3208  0.1801
74823W        W17876   9.505  26.176   8.859 -0.1281  0.0883 -0.2620
74824W        W17877   6.076  20.127   3.707 -0.2036 -0.2729 -0.4515
74825W        W17878   5.329  32.236   5.164  0.1517 -0.0278  0.3771
74826W        W17879   9.356   1.885   3.286 -0.0914 -0.0622 -0.2908
74827W        W17880   5.531  18.115   8.435  0.1259 -0.2951 -0.0645
74828W        W17881  32.082  12.622   8.332 -0.5961 -0.0160 -0.1664
74829W        W17882  26.661  33.406   8.485  0.0315 -0.0934 -0.2614
74830W        W17883  33.859  16.022   5.106 -0.0427 -0.1277  0.0493
74831W        W17884   9.852   1.628   5.857 -0.2107 -0.3297  0.0832
74832W        W17885   3.819  23.826  27.233  0.3163 -0.2037 -0.1838
74833W        W17886  32.569  34.393  27.599 -0.1463  0.1793  0.1622
74834W        W17887   0.208   2.947   5.214 -0.1905 -0.1668 -0.0307
74835W        W17888  10.830  20.043  28.591 -0.1570 -0.0404  0.0152
74836W        W17889   0.609  19.701  26.268  0.0440  0.2017  0.1317
74837W        W17890   8.057  22.421  15.424  0.4054 -0.0725 -0.0809
74838W        W17891   5.022  12.811   4.650 -0.1870 -0.0543 -0.2210
74839W        W17892   2.394  31.322   9.072  0.1076 -0.0198 -0.2838
74840W        W17893  27.069  25.308   7.613  0.0234  0.1154  0.0546
74841W        W17894   4.786  28.072  24.613  0.0506 -0.1618 -0.0031
74842W        W17895  13.301  32.805  10.012 -0.4023  0.0553 -0.0524
74843W        W17896   0.671  33.571   5.012  0.1637 -0.1065  0.1399
74844W        W17897   7.654  15.516   5.340  0.2178  0.0997 -0.0795
74845W        W17898  34.493   5.062  24.182 -0.2010  0.0620  0.1025
74846W        W17899   0.167  19.794   4.690 -0.1135 -0.1787 -0.0770
74847W        W17900  10.873  13.883   8.645 -0.0541 -0.0016 -0.0432
74848W        W17901   9.057  30.101   5.329  0.1498  0.2280  0.0308
74849W        W17902   8.978  27.150   7.511  0.2476  0.0320 -0.1195
74850W        W17903  25.894   7.516   9.312 -0.1655  0.0668  0.1630
74851W        W17904  18.444  14.648   3.117  0.0511  0.0291 -0.0222
74852W        W17905   8.932   4.440   8.260 -0.1570 -0.0363 -0.2292
74853W        W17906   6.826  28.051   6.902 -0.1668 -0.0824  0.2059
74854W        W17907   7.407   3.891   2.803 -0.1126 -0.1090  0.1925
74855W        W17908  32.633  33.576   4.661 -0.0507  0.0234  0.2831
74856W        W17909  33.557  24.362   7.824 -0.2099  0.1274  0.0079
74857W        W17910   8.673   9.338   9.393 -0.2307 -0.0796 -0.1199
74858W        W17911   2.830   3.916   2.523 -0.1268 -0.1720  0.0149
74859W        W17912  34.383  30.330   6.726 -0.0369 -0.0474  0.1836
74860W        W17913   2.104   0.146   4.213 -0.0890  0.0201  0.2410
74861W        W17914   0.343  15.372   1.364  0.3078  0.2974 -0.1285
74862W        W17915  32.370  22.986   3.498  0.2494  0.2335  0.0796
74863W        W17916   0.830  30.760  27.389 -0.3121  0.0074 -0.3875
74864W        W17917  31.192   4.754   5.409 -0.3766 -0.1074 -0.2020
74865W        W17918  12.019  18.455   2.031 -0.1845  0.1299  0.2068
74866W        W17919   4.752  23.845  27.716  0.1181 -0.2199  0.0828
74867W        W17920  10.905  24.145  14.692 -0.0169  0.2005  0.0519
74868W        W17921  18.229  26.143   3.761 -0.3200  0.0116 -0.0763
74869W        W17922  29.279  17.304   3.088 -0.1344  0.1607 -0.0193
74870W        W17923   2.110   0.125  26.200 -0.1485 -0.1239  0.2079
74871W        W17924   9.024   1.258   5.083  0.1649 -0.1243 -0.0175
74872W        W17925  31.204  16.186  23.473 -0.2273 -0.0454  0.0109
74873W        W17926  34.397  32.272   7.189  0.1685 -0.0793  0.0629
74874W        W17927  13.772  20.686  23.723  0.2502  0.1091 -0.0712
74875W        W17928  11.659  32.407   1.198 -0.1547 -0.0034 -0.0637
74876W        W17929  34.164  33.607  21.525 -0.1323 -0.1398  0.0955
74877W        W17930  18.629  24.518  25.209  0.2326  0.3440 -0.0104
74878W        W17931  12.427  24.152  28.913  0.0848 -0.1548  0.1817
74879W        W17932   6.702  23.784  26.651 -0.0254  0.3002 -0.0073
74880W        W17933   2.725  25.416  26.248  0.1958  0.3206 -0.0196
74881W        W17934   4.358   4.125  26.609 -0.3911 -0.0379  0.6444
74882W        W17935   3.621  28.972   8.901  0.0345  0.0250 -0.2366
74883W        W17936  22.374  22.477   9.908  0.0100  0.0777  0.2098
74884W        W17937   4.883   6.928  27.108 -0.2651 -0.3301 -0.0665
74885W        W17938  25.258  24.429   6.855  0.2542 -0.0698  0.5370
74886W        W17939  18.268  15.380  24.572 -0.0784 -0.1510  0.2544
74887W        W17940   5.684  22.821  17.338  0.1288 -0.0724  0.0179
74888W        W17941   2.115   6.253  22.147  0.1826 -0.0022 -0.0421
74889W        W17942   7.091  28.338  28.988  0.2847 -0.1932  0.0538
74890W        W17943  30.834  25.211   4.981 -0.0009 -0.2555 -0.2966
74891W        W17944  33.216  27.512   5.817 -0.1855 -0.3586  0.1663
74892W        W17945  30.074  26.524   9.350 -0.1640  0.1810  0.1107
74893W        W17946   7.065  31.289   9.258  0.0610  0.1440 -0.0819
74894W        W17947  28.954  33.320   7.200  0.1862 -0.0865 -0.3199
74895W        W17948  20.516  34.047   1.308 -0.0563 -0.0032 -0.0900
74896W        W17949  22.568  27.734   2.395  0.0404  0.2337 -0.1900
74897W        W17950  22.230  21.860  29.135 -0.0577  0.0275  0.1712
74898W        W17951   6.216  32.442   3.691  0.1423 -0.1964 -0.2246
74899W        W17952  18.323  20.619  21.922 -0.1714 -0.0640  0.0886
74900W        W17953  31.802  20.122  10.146 -0.0298  0.3261 -0.1334
74901W        W17954   2.697  18.534  26.867 -0.1163  0.1354  0.2393
74902W        W17955   5.406  23.063   4.945  0.3333  0.0103  0.1070
74903W        W17956  11.042   6.877   1.097 -0.0350  0.1168 -0.0808
74904W        W17957  15.394  31.013  28.419 -0.0222 -0.2784 -0.0743
74905W        W17958   6.263  34.183  24.923  0.0108 -0.1812  0.1575
74906W        W17959  33.861  16.939   4.104 -0.1091  0.4540 -0.3644
74907W        W17960  28.728  26.377   8.803 -0.0703 -0.2647  0.1812
74908W        W17961  15.824  23.171   8.061 -0.1073 -0.0691 -0.0193
74909W        W17962   5.260  10.385   3.700  0.3027  0.1070  0.0883
74910W        W17963  17.808  28.198   6.857 -0.0574 -0.1425 -0.0119
74911W        W17964  17.457  27.893  10.397  0.3046  0.1495 -0.2213
74912W        W17965   4.537   7.656  25.647  0.2629 -0.2087 -0.3077
74913W        W17966  27.365  29.965   4.110  0.0699 -0.0870 -0.0473
74914W        W17967  15.631  24.137   5.479  0.1826  0.0364 -0.1262
74915W        W17968  29.262  11.620  27.430  0.2325 -0.2097 -0.0776
74916W        W17969  34.341  27.731   2.684  0.0733 -0.0216 -0.4516
74917W        W17970   3.526  30.661   4.132  0.2299 -0.0089  0.2303
74918W        W17971  11.261  19.419  19.711  0.1369  0.0535  0.1330
74919W        W17972  24.364  26.888   2.681 -0.0049  0.3663 -0.0474
74920W        W17973  34.614  31.851  27.971  0.0835  0.0242 -0.3406
74921W        W17974   0.217   1.553   7.147  0.0644 -0.0934  0.0335
74922W        W17975  26.400  16.442   5.873  0.1962  0.0184  0.1161
74923W        W17976  14.262  25.933  26.003  0.3403  0.0378  0.3481
74924W        W17977  33.611  32.637   1.548  0.1559  0.0675 -0.2512
74925W        W17978  11.699  16.108   7.131  0.0822 -0.0343 -0.2811
74926W        W17979   7.403  22.861  27.388 -0.1801 -0.2373  0.1388
74927W        W17980   6.655  33.362   1.081 -0.0502 -0.0886  0.1217
74928W        W17981  16.569   9.438  18.243  0.2810 -0.2279  0.2048
74929W        W17982  28.202  29.615   3.229  0.1592  0.3720 -0.0651
74930W        W17983  19.210  31.158   4.460  0.0434  0.0586  0.0610
74931W        W17984  16.530  33.316   5.445  0.4031  0.1402 -0.1512
74932W        W17985   2.338  31.569  18.203 -0.3630 -0.3648 -0.1049
74933W        W17986  27.248  27.706   8.050 -0.3554  0.0667 -0.0726
74934W        W17987  11.867  23.338   9.767  0.0734  0.0346  0.0167
74935W        W17988   4.376  19.841   2.031  0.1394  0.0683  0.2819
74936W        W17989   4.599  30.681   2.505  0.3123 -0.0606 -0.1486
74937W        W17990   5.852  28.117  27.269 -0.1366  0.0788  0.1260
74938W        W17991   2.356  23.281   0.815 -0.0544  0.0764 -0.0080
74939W        W17992  33.262   5.849   5.075 -0.1995  0.3529 -0.0990
74940W        W17993  28.103  33.779  27.998  0.3596 -0.3200  0.1002
74941W        W17994   6.330  31.775   1.265  0.0286  0.1728  0.1763
74942W        W17995   8.636  20.214   0.900  0.2133  0.1191  0.0890
74943W        W17996  10.882  10.115   1.448  0.0560 -0.4927  0.1129
74944W        W17997   9.174  18.916  16.343  0.0931 -0.2109  0.1240
74945W        W17998  31.809  33.371  27.049  0.0452  0.0487 -0.0551
74946W        W17999   4.210  20.619   5.650 -0.0505  0.1716 -0.1664
74947W        W18000  12.422  31.118  28.392 -0.2694 -0.4590 -0.0046
74948W        W18001  16.830  24.367   9.206 -0.0306  0.1906  0.1818
74949W        W18002   1.404  10.275  29.083 -0.2384 -0.0137  0.0137
74950W        W18003  32.211  27.992  28.511  0.0734 -0.0166  0.2154
74951W        W18004  16.132  28.642  24.527  0.0398 -0.3311 -0.1042
74952W        W18005   0.759  29.057   6.372 -0.0750  0.1962  0.3202
74953W        W18006   9.765  26.807  26.673 -0.1975  0.0948 -0.1382
74954W        W18007  20.438  31.837   3.580 -0.2845 -0.0637  0.0283
74955W        W18008   1.462  11.994   3.829 -0.1407 -0.1810 -0.4941
74956W        W18009  10.845  24.352   9.686  0.0451 -0.1191  0.0410
74957W        W18010  28.412  29.252  22.763 -0.0299 -0.4477  0.2455
74958W        W18011   4.654  26.446  24.872  0.2085 -0.0700 -0.1943
74959W        W18012  12.340  29.078   8.845 -0.1968  0.0036  0.1933
74960W        W18013  28.919  31.305  17.032 -0.1259 -0.0465  0.0379
74961W        W18014   0.084  18.468   5.197 -0.0919  0.0191 -0.0455
74962W        W18015   9.896  20.858   6.274  0.1346 -0.4244 -0.0646
74963W        W18016  13.250   5.642  18.949  0.1421  0.2031  0.3634
74964W        W18017  10.940   8.859   1.222 -0.0041  0.0838  0.1102
74965W        W18018  13.994  31.457  25.882 -0.0617  0.1606  0.1222
74966W        W18019  28.068  24.955   8.963 -0.0228  0.1318 -0.1746
74967W        W18020  16.350  31.018   8.745 -0.3359 -0.1974  0.1683
74968W        W18021  23.805   3.586  10.261  0.0306 -0.3847 -0.0696
74969W        W18022   5.602   6.228  20.260  0.0872  0.1693  0.1163
74970W        W18023  16.253  32.004  26.112  0.2038 -0.4184 -0.2705
74971W        W18024  20.810  14.741   4.199 -0.2776 -0.2293 -0.1376
74972W        W18025   0.350  26.495   6.807  0.0326  0.0177  0.0338
74973W        W18026  14.864  10.253   4.724 -0.1802 -0.3328  0.1383
74974W        W18027  10.718  29.933   0.850 -0.0722 -0.2205  0.3716
74975W        W18028  12.619  34.555  14.598 -0.0539 -0.0076 -0.0440
74976W        W18029   0.535  11.771  21.892  0.0154  0.1999 -0.0746
74977W        W18030  11.773  20.971   7.178 -0.1020 -0.1924  0.0777
74978W        W18031   8.909  20.765   1.857  0.1252  0.1605 -0.0445
74979W        W18032   8.385   4.752  10.375 -0.0271 -0.0875  0.1126
74980W        W18033  14.377  26.118  23.532  0.0246 -0.0268  0.0622
74981W        W18034   4.326   5.339   5.301  0.1001  0.1098  0.0333
74982W        W18035  22.745   3.050  28.419 -0.0901 -0.0648  0.1714
74983W        W18036   1.528  29.968   0.534 -0.1261 -0.3638  0.1596
74984W        W18037  29.384  33.077   7.227 -0.3552 -0.0457  0.0526
74985W        W18038   2.101   0.402  24.343  0.1314  0.0321 -0.1748
74986W        W18039   2.545   8.033   2.355 -0.0892 -0.2882  0.0469
74987W        W18040   7.843  29.427  20.126 -0.0186  0.3492  0.2367
74988W        W18041  29.884  33.957  27.091 -0.1024  0.2898 -0.1861
74989W        W18042  12.965  19.173  26.897  0.2371 -0.1411 -0.0228
74990W        W18043   6.847   4.347   6.746 -0.3481 -0.2292  0.1400
74991W        W18044   9.317  27.620   2.763 -0.0201  0.0206  0.2295
74992W        W18045  34.370   9.547   5.802 -0.1019 -0.3071  0.0875
74993W        W18046  13.180   7.450  18.366 -0.0580 -0.0754 -0.0027
74994W        W18047   3.382  32.448   4.822 -0.2505 -0.0708  0.2396
74995W        W18048   0.838  26.570  19.805 -0.0962 -0.0335  0.1330
74996W        W18049  33.692   2.809  21.725  0.1718  0.1510  0.2592
74997W        W18050   8.976  22.620   8.078 -0.2567  0.3611  0.0652
74998W        W18051   9.440  27.134  13.158  0.1013 -0.3676 -0.1115
74999W        W18052  22.864   1.946  27.498 -0.2143  0.1707 -0.3150
75000W        W18053  24.209  17.491  20.045 -0.0657 -0.1734 -0.2624
75001W        W18054   6.564  30.795  19.632  0.0094 -0.1152  0.2786
75002W        W18055  33.072  21.534  18.024  0.0803  0.2902  0.4838
75003W        W18056  29.631  28.081  18.247  0.3514  0.0827  0.2523
75004W        W18057   4.512  17.607  23.378  0.1558  0.1654 -0.2423
75005W        W18058  32.602  32.882  20.536  0.0367  0.2011  0.0322
75006W        W18059  17.100   1.296  26.748 -0.1004 -0.1305 -0.0343
75007W        W18060   5.655  26.321  14.432 -0.0144 -0.3891 -0.1773
75008W        W18061   5.247   0.595  17.722 -0.0902 -0.3359  0.0534
75009W        W18062  12.775   3.162  13.953  0.3172 -0.2824  0.1090
75010W        W18063   5.971  28.518   1.955  0.1825  0.2361 -0.2753
75011W        W18064   7.904  20.172  18.479  0.0270 -0.1190  0.1569
75012W        W18065  25.620  23.720  16.301  0.1543  0.2763 -0.0563
75013W        W18066  15.706  11.423  20.134  0.0901  0.1000  0.1499
75014W        W18067   6.817  11.710   7.834  0.1841 -0.2360 -0.5533
75015W        W18068  27.079   7.492   3.922  0.0268  0.3572  0.0033
75016W        W18069  24.280   2.525  25.368 -0.0315  0.0817 -0.1061
75017W        W18070  23.178  32.101  17.555  0.0583 -0.0277  0.1237
75018W        W18071  18.317   6.485   7.031 -0.1389 -0.1567  0.1291
75019W        W18072   6.855  20.722   5.613  0.1215  0.2129 -0.1342
75020W        W18073   3.466   6.143   2.024  0.0890  0.0084 -0.0682
75021W        W18074  25.860  25.939   1.711 -0.2064  0.0745  0.1660
75022W        W18075  23.251   4.573  22.364  0.0564 -0.0849 -0.1940
75023W        W18076   1.453   6.308   5.634 -0.4303  0.4124 -0.1641
75024W        W18077  31.873  21.339   5.518  0.0135 -0.0862 -0.1553
75025W        W18078   0.804  12.656  15.773 -0.2057 -0.0292 -0.0125
75026W        W18079   2.770  26.565  27.561 -0.2685  0.2362  0.2841
75027W        W18080   0.061   1.207  25.985  0.0037 -0.0643  0.3655
75028W        W18081   1.461   4.263   4.211 -0.1303 -0.1077  0.1089
75029W        W18082  15.075  28.769   7.623 -0.4223 -0.0172 -0.2360
75030W        W18083   9.164  12.840   4.619  0.0752 -0.1141  0.2238
75031W        W18084   1.455   0.721   6.188 -0.1464  0.1926  0.1607
75032W        W18085  28.197  30.637   4.551 -0.0548 -0.1235  0.0706
75033W        W18086   6.679  24.700  25.752  0.1502 -0.0193 -0.0377
75034W        W18087   1.883  15.569   3.161 -0.1668 -0.0331  0.2160
75035W        W18088   7.485  21.928   2.056 -0.0693 -0.0897 -0.1467
75036W        W18089   7.669   0.665   6.714 -0.0223 -0.2949  0.3658
75037W        W18090   8.427  32.313   4.108  0.1930 -0.0289 -0.1562
75038W        W18091  16.907  31.727  24.560  0.2123  0.0751 -0.0738
75039W        W18092  13.074  32.537  26.886 -0.0160  0.1242  0.0936
75040W        W18093   1.188   8.025   2.076 -0.2060 -0.2007 -0.0452
75041W        W18094   9.687   0.735  21.549  0.1238  0.0290 -0.0664
75042W        W18095   9.641  25.427  13.512  0.1637  0.0770 -0.3399
75043W        W18096  11.587   6.768   9.690  0.1667  0.1175 -0.1431
75044W        W18097  26.888  28.431   3.993 -0.0374  0.1744 -0.1973
75045W        W18098  21.173  25.958  22.966  0.2799 -0.0885 -0.0044
75046W        W18099  26.610  32.730   6.619 -0.1240 -0.1023 -0.2228
75047W        W18100   9.256  22.965   9.444 -0.0954  0.0008 -0.0091
75048W        W18101  17.424  29.937   5.720  0.0795 -0.1634 -0.1837
75049W        W18102  16.458  29.606   0.634 -0.1403  0.0872 -0.2282
75050W        W18103   0.890  33.325   4.646  0.2129 -0.1957 -0.2126
75051W        W18104   7.506  32.260   0.199 -0.1216 -0.0700  0.1695
75052W        W18105  10.809  26.323  16.494  0.0398 -0.0592 -0.1781
75053W        W18106   6.025  31.053   2.121  0.0260 -0.3128 -0.3152
75054W        W18107   0.524  30.132   4.692 -0.2572 -0.3076  0.0750
75055W        W18108  32.136   5.093  23.346  0.3209  0.0640  0.4627
75056W        W18109   8.659  32.653   0.965  0.1471  0.1633 -0.1951
75057W        W18110  16.474   8.161  20.545  0.1083 -0.1847 -0.0580
75058W        W18111   3.908   5.777  19.337 -0.3192  0.0581  0.3129
75059W        W18112   6.518   1.058   9.851  0.0591 -0.0007 -0.1982
75060W        W18113   3.444  31.471  25.501  0.1486  0.3055 -0.0240
75061W        W18114  10.257   1.504   1.997  0.2092 -0.0199 -0.0619
75062W        W18115  24.772  28.939   9.208 -0.0121 -0.1629  0.1549
75063W        W18116   1.773  34.529  26.397  0.0341 -0.2242  0.1278
75064W        W18117   6.317  26.569  18.829 -0.3025  0.2051  0.1102
75065W        W18118  29.313   3.220   6.906 -0.4987  0.0351 -0.1330
75066W        W18119  19.229  26.924   4.164  0.1141 -0.1566 -0.1414
75067W        W18120  13.113  21.401   2.393 -0.1720 -0.0873 -0.3386
75068W        W18121  22.577  30.948  21.772 -0.1470 -0.0116 -0.2250
75069W        W18122  26.194   7.357  22.007  0.0566  0.3126  0.2539
75070W        W18123  18.045   1.791  27.490  0.2114 -0.0047 -0.1017
75071W        W18124  14.811  27.663   0.402 -0.1757 -0.1560 -0.3224
75072W        W18125   8.888  11.291  22.703 -0.1471 -0.0061 -0.0573
75073W        W18126  21.985  12.561  16.187  0.0926  0.1066  0.0025
75074W        W18127  24.324  26.043   6.310  0.0789  0.0348 -0.0319
75075W        W18128   2.410  33.511  21.424 -0.2902  0.0357 -0.0748
75076W        W18129  16.347  32.068  27.436 -0.2694 -0.0824 -0.0872
75077W        W18130   6.814   4.217   9.674  0.0351 -0.0019 -0.3103
75078W        W18131   2.821  29.764  24.180 -0.1117  0.0316  0.0286
75079W        W18132  33.657  26.704  24.832  0.2363  0.1771  0.1523
75080W        W18133   6.692  26.614   6.617 -0.2241  0.0345 -0.1679
75081W        W18134   6.175  31.442   5.576 -0.0547 -0.1796  0.1828
75082W        W18135  32.342   9.026   1.100 -0.2167 -0.0948 -0.2649
75083W        W18136  24.280  22.212  19.099  0.1680  0.1837 -0.1137
75084W        W18137  32.666  32.847  22.409 -0.2963 -0.1938 -0.2149
75085W        W18138  12.922  10.275   7.005 -0.1943 -0.3216  0.0340
75086W        W18139  11.500  33.735   0.280 -0.1919  0.1862  0.2352
75087W        W18140   2.163  17.462  25.946 -0.0345 -0.1889 -0.2324
75088W        W18141  21.848   5.478   6.312  0.1895 -0.0308  0.0641
75089W        W18142  24.397  22.795  28.142  0.0532  0.0479  0.2213
75090W        W18143  33.375  21.149  14.448  0.2279 -0.2158 -0.2780
75091W        W18144   6.952   1.907   7.253 -0.1893  0.0887 -0.3398
75092W        W18145   6.473  31.923   4.520 -0.1507  0.1850  0.0359
75093W        W18146  17.855  32.338  19.857 -0.0421  0.0277  0.1314
75094W        W18147  23.636  24.435   1.266 -0.0332 -0.2476 -0.1396
75095W        W18148  25.381  19.249  26.233 -0.0011  0.0411 -0.1355
75096W        W18149   3.164   4.011   2.191 -0.3854  0.0397 -0.0474
75097W        W18150   5.219  21.562  25.922  0.0939  0.0448  0.0367
75098W        W18151  28.800   4.429  10.668  0.1120  0.3810  0.3384
75099W        W18152   3.483  29.015  19.848 -0.0852 -0.1238  0.2239
75100W        W18153   3.424  21.942   0.973  0.2464  0.3066 -0.0601
75101W        W18154  31.716   6.480   0.836  0.1081 -0.0926  0.0516
75102W        W18155  31.958  16.262  26.171 -0.0354  0.3836 -0.3038
75103W        W18156  11.509  26.485  17.639 -0.0922  0.1311  0.1944
75104W        W18157  10.197   2.462  20.827  0.0901 -0.2397  0.2652
75105W        W18158  18.173  15.382  26.680  0.2342  0.0187  0.0069
75106W        W18159  32.169   1.446   1.267 -0.0448  0.0192 -0.0195
75107W        W18160   7.696  34.002   6.747 -0.0514  0.0707 -0.2733
75108W        W18161  34.060  34.302   0.200  0.1452 -0.2923 -0.0203
75109W        W18162  18.835  28.399  23.677 -0.1588  0.2047 -0.0106
75110W        W18163  28.989   1.131  26.759  0.1315  0.1599 -0.0609
75111W        W18164  20.523   3.355  27.949  0.0991 -0.0040 -0.0967
75112W        W18165   7.947  27.370   9.378 -0.1565  0.1528 -0.0810
75113W        W18166   0.759  23.453  24.857 -0.3367  0.1229 -0.2441
75114W        W18167   7.158  26.194   9.190 -0.0887  0.0732  0.1889
75115W        W18168  12.784  30.120   4.290 -0.2065  0.3660  0.1581
75116W        W18169  14.839  27.901   4.971 -0.0915 -0.1164 -0.0584
75117W        W18170  23.659   1.966   8.093  0.0433 -0.3446 -0.0277
75118W        W18171   3.208  29.918  23.326  0.0652 -0.2464 -0.3929
75119W        W18172  19.528  29.349  21.366  0.2305 -0.3518 -0.4673
75120W        W18173  33.180  31.160   3.150  0.2102 -0.0718 -0.1192
75121W        W18174  16.484  30.856   0.466 -0.3886  0.4171 -0.1950
75122W        W18175  23.780  21.892   7.277 -0.0811  0.0355 -0.1223
75123W        W18176   9.662   1.085  24.312  0.2159 -0.1981  0.0134
75124W        W18177   2.405  30.039   6.876 -0.2603  0.1521 -0.3533
75125W        W18178   4.418  16.107   5.442  0.3022  0.0065 -0.1347
75126W        W18179   8.126  26.896   1.753 -0.0600 -0.3011  0.0668
75127W        W18180  30.219  24.306   0.661  0.0434  0.1032  0.0337
75128W        W18181  27.886  22.412  14.965 -0.0926 -0.3040  0.1167
75129W        W18182  34.003  10.840  27.174  0.2468  0.0639  0.0038
75130W        W18183   0.379  24.726  22.393 -0.0223 -0.2847  0.0159
75131W        W18184   4.489   2.115  19.779  0.0340  0.1261  0.0957
75132W        W18185   5.225  25.610  23.725  0.0232  0.1681 -0.3808
75133W        W18186   0.105  11.427  24.364  0.2794 -0.2159  0.2722
75134W        W18187  12.693  28.046   7.979  0.1269  0.0058  0.1147
75135W        W18188  16.069  28.822  24.993 -0.2486 -0.3058 -0.0915
75136W        W18189   6.916  17.579  17.354  0.1827 -0.0504  0.3038
75137W        W18190   8.251  21.802  20.879  0.1051  0.1467 -0.2053
75138W        W18191  34.531  24.013   5.458  0.2042  0.0334  0.1163
75139W        W18192   3.139  28.262   5.789  0.0560 -0.1098 -0.0665
75140W        W18193  17.503  31.459   9.126 -0.2051  0.1298 -0.1612
75141W        W18194   3.105  34.462   3.004 -0.1854  0.0711 -0.0356
75142W        W18195  26.436  26.972  28.725 -0.1919  0.3257 -0.5389
75143W        W18196  33.419   6.240  29.179 -0.0186  0.2591 -0.0661
75144W        W18197  28.264   6.549   2.890  0.0628 -0.0548  0.3011
75145W        W18198   2.437   1.638  26.047 -0.0773 -0.2074  0.1669
75146W        W18199  30.147  30.910   9.555 -0.2089 -0.2054 -0.0713
75147W        W18200   2.827  21.843   6.774  0.2106  0.2708  0.2210
75148W        W18201   0.695  15.139  13.995 -0.3411  0.1243  0.1588
75149W        W18202   5.717  29.993  25.867 -0.1847 -0.0011 -0.1877
75150W        W18203  31.022  27.996   4.160 -0.0668 -0.0931  0.0690
75151W        W18204   7.445  14.543   5.859  0.1165 -0.1614  0.2299
75152W        W18205   6.704  22.171  28.282 -0.2677 -0.0736 -0.1548
75153W        W18206  31.484   1.181   1.220  0.0032  0.1155  0.3541
75154W        W18207   0.820  34.412   2.870 -0.1023  0.1872  0.1533
75155W        W18208  26.706   6.540  17.460  0.2656  0.0270 -0.0496
75156W        W18209  22.290  28.047   1.141 -0.1164 -0.4957  0.2107
75157W        W18210  17.126   7.566   4.663  0.0969 -0.1928 -0.1989
75158W        W18211  15.981   3.123   8.717 -0.0056  0.0154  0.0012
75159W        W18212  31.028  12.739  20.686  0.0732 -0.0440  0.2092
75160W        W18213  21.570  28.460  27.564 -0.0715  0.3676 -0.0459
75161W        W18214   7.089  24.449  22.555  0.0447 -0.2022 -0.0386
75162W        W18215   8.011  14.243   1.962 -0.2435  0.1596 -0.0298
75163W        W18216  10.190   6.626  27.445  0.0602 -0.1846 -0.1387
75164W        W18217  14.331   7.961  28.271 -0.2721  0.0652 -0.2824
75165W        W18218   8.422  14.459  27.034 -0.2677  0.1926  0.0128
75166W        W18219  20.205  19.883   5.355 -0.1430 -0.0131  0.0618
75167W        W18220  13.957   7.497   7.997  0.0909  0.0933 -0.1064
75168W        W18221  13.590   9.974  24.614 -0.3050  0.1066 -0.1104
75169W        W18222   1.676   7.795  14.615 -0.0248 -0.0746 -0.1506
75170W        W18223   0.641  16.188  28.372  0.0695 -0.1015  0.0847
75171W        W18224  15.718  13.834  22.795 -0.1887 -0.0664  0.1916
75172W        W18225   1.921  16.068   4.365 -0.0636  0.2226 -0.2969
75173W        W18226   7.669  25.871  28.613  0.0934 -0.0389  0.0523
75174W        W18227   4.940  30.498  27.103  0.1599 -0.0588 -0.0367
75175W        W18228  29.036   0.130  29.177 -0.0888 -0.0736 -0.1872
75176W        W18229  31.812  25.009  27.328 -0.0862  0.3102 -0.0013
75177W        W18230   8.468   0.106   5.569  0.1625  0.1270 -0.0095
75178W        W18231   3.214  15.035   3.699  0.1260  0.0357  0.0331
75179W        W18232  26.013   2.337   0.015 -0.2842 -0.1343 -0.3583
75180W        W18233  12.516  29.544  26.864  0.0197 -0.0494  0.2788
75181W        W18234   0.822   7.180  28.649 -0.0984  0.0669  0.1729
75182W        W18235  12.892   1.101   8.066  0.0052 -0.4300  0.1693
75183W        W18236  10.684   1.348   8.443 -0.2912 -0.0300  0.1403
75184W        W18237   5.490   1.699  16.947  0.2418  0.0570  0.2005
75185W        W18238  16.636   1.755   4.131  0.1666 -0.0312  0.0051
75186W        W18239   7.371  32.774  29.201 -0.0329  0.1028 -0.3569
75187W        W18240   6.883   2.142   3.691 -0.1198  0.2123 -0.1856
75188W        W18241  31.275  13.131  22.848  0.2202 -0.0058 -0.1641
75189W        W18242  15.364   1.883  27.733 -0.0369 -0.1467 -0.0493
75190W        W18243  10.180  23.861  19.844  0.1189  0.1796  0.0574
75191W        W18244  16.505  33.672  22.977 -0.0132  0.3257 -0.1376
75192W        W18245   3.774  25.904   4.967  0.2476 -0.0159  0.0592
75193W        W18246   0.896  30.429  19.844  0.1736  0.0512  0.0657
75194W        W18247   5.389   4.508   5.312 -0.0214 -0.0946  0.2026
75195W        W18248  10.645  30.738  25.225 -0.0790 -0.0753  0.1029
75196W        W18249   8.253  29.207  22.593 -0.3384  0.2078 -0.2412
75197W        W18250  11.066  27.544   2.601 -0.1499 -0.0770  0.1151
75198W        W18251  19.254  27.009   0.961 -0.1253 -0.0871  0.0984
75199W        W18252  10.431  30.450   1.358  0.4255 -0.0087  0.0797
75200W        W18253  31.685   6.887   5.272 -0.0453 -0.0486 -0.1398
75201W        W18254  33.561  29.880  26.768  0.0309  0.3829  0.0461
75202W        W18255  17.245  19.911   3.575  0.1559 -0.0187 -0.0680
75203W        W18256  13.820  26.394   3.192 -0.3094  0.0161 -0.3710
75204W        W18257  18.777  29.623   6.361 -0.0526  0.0589  0.0245
75205W        W18258   7.276  15.443  18.177  0.1454 -0.0567  0.1103
75206W        W18259   4.188  29.135  26.891  0.1341  0.2829  0.0628
75207W        W18260  33.191  28.452  27.395 -0.1740  0.1241  0.0414
75208W        W18261  31.290  30.241   0.817  0.0263 -0.1643 -0.3749
75209W        W18262  12.057  28.407  16.181 -0.0990  0.1552  0.1426
75210W        W18263  32.118  24.880   2.675  0.1658 -0.0679  0.1166
75211W        W18264   0.531  27.358  26.252  0.2022 -0.1330 -0.1377
75212W        W18265  14.847  32.849   6.603  0.1974  0.1114 -0.0495
75213W        W18266   7.068  19.081  23.358 -0.1638 -0.0099  0.4108
75214W        W18267   6.243  30.332  18.298  0.0298  0.1740  0.0066
75215W        W18268  28.571   0.231  20.880  0.0613 -0.1553 -0.1811
75216W        W18269  33.769  20.830  26.010  0.1267 -0.1504 -0.6249
75217W        W18270  30.856  11.229   7.064 -0.0197  0.2450  0.1081
75218W        W18271   5.286  22.454  26.441 -0.1386  0.2254  0.0262
75219W        W18272   8.249  24.820  22.840 -0.3207  0.1833 -0.1262
75220W        W18273  29.639  32.479  21.588  0.0118  0.2314 -0.2526
75221W        W18274   5.314  18.069  27.952  0.0128  0.1049 -0.0371
75222W        W18275  31.308  16.242  27.980  0.0496  0.0171 -0.1043
75223W        W18276  20.364   8.561   5.825 -0.2337  0.0538  0.2443
75224W        W18277   6.790   1.176   0.628  0.0183 -0.1272  0.0285
75225W        W18278   1.962  25.107   3.206  0.1141 -0.1009  0.4275
75226W        W18279   4.073  32.594  20.694  0.4240  0.2306  0.3431
75227W        W18280   7.579  26.528  22.725  0.0419  0.0938  0.0946
75228W        W18281  26.028   3.278  27.297  0.0224 -0.1886 -0.1522
75229W        W18282  34.368  31.328  22.189 -0.0269 -0.3949  0.1331
75230W        W18283   5.538  26.828   5.350 -0.0889  0.0164 -0.2609
75231W        W18284   6.051   4.751   7.934 -0.0460  0.1729  0.1604
75232W        W18285  11.285  24.867   5.137 -0.1263 -0.0756  0.2046
75233W        W18286   9.112  12.530  15.592 -0.2480  0.3197 -0.2726
75234W        W18287   6.701  19.360   1.087  0.3447 -0.1643  0.2750
75235W        W18288   1.421  27.377   1.676 -0.0707 -0.2315  0.1224
75236W        W18289   6.728  11.288   5.490 -0.2910  0.0450 -0.0207
75237W        W18290  31.233  33.180  24.582 -0.0257 -0.0066  0.1139
75238W        W18291  11.839   9.977   1.149  0.0857  0.1212  0.2299
75239W        W18292  26.352   8.343   8.173  0.2094  0.0619 -0.0852
75240W        W18293  10.109  34.263   9.629 -0.0246  0.0002  0.0228
75241W        W18294  18.444  31.990  21.850  0.2036 -0.3210  0.0151
75242W        W18295   6.133  26.144   2.143 -0.1944 -0.0015  0.0244
75243W        W18296  11.088  16.576   1.756  0.2850 -0.0322 -0.0805
75244W        W18297  24.407  29.067   5.758  0.1118  0.0515 -0.1778
75245W        W18298   5.000  15.306   9.561  0.0431  0.2659  0.1010
75246W        W18299  18.495   5.076  20.141  0.0814 -0.1036  0.3189
75247W        W18300   8.186   3.152   4.354  0.0073  0.0880 -0.0280
75248W        W18301  13.089  28.633   5.232 -0.0305  0.3847  0.1610
75249W        W18302  31.549  28.324   6.867  0.4173  0.0138 -0.1118
75250W        W18303  17.288   6.145   2.025  0.0792 -0.2011  0.1478
75251W        W18304   3.942  27.921   1.910 -0.0475 -0.1011 -0.0401
75252W        W18305  28.110   8.480   0.409 -0.0263  0.2234  0.0220
75253W        W18306  18.720  27.964   9.022 -0.2515 -0.2142  0.1083
75254W        W18307  19.535  27.029   9.901 -0.2230 -0.1554 -0.2902
75255W        W18308  31.796  22.953  10.123 -0.3834  0.1127  0.0444
75256W        W18309   7.790  21.854   1.215  0.0013  0.1423 -0.2609
75257W        W18310  12.772   3.029   5.134 -0.0470  0.1354  0.0049
75258W        W18311  13.010  16.051  20.022 -0.3559 -0.0679 -0.2421
75259W        W18312  14.461  33.636  28.150 -0.0649 -0.2056 -0.1219
75260W        W18313  11.051  34.499   6.436  0.0853 -0.2067 -0.0786
75261W        W18314  15.736   0.415  17.013  0.2972 -0.0588  0.0051
75262W        W18315  10.268  26.754   1.760 -0.0408 -0.3157 -0.1990
75263W        W18316  24.958   1.237   6.087  0.1456 -0.3989  0.1246
75264W        W18317   4.752  29.120  15.517 -0.3113  0.0891 -0.1414
75265W        W18318  28.006  31.590  28.611  0.2192  0.1588  0.2110
75266W        W18319   7.202  15.344  21.273  0.1337 -0.3755 -0.1227
75267W        W18320   3.120  13.928   4.775  0.1854  0.0669  0.0951
75268W        W18321  15.796  20.971  20.634 -0.0008 -0.2396  0.3420
75269W        W18322  16.636  32.740  26.829 -0.0316 -0.0980 -0.1055
75270W        W18323  21.061  32.665   3.983  0.0808 -0.0904  0.2229
75271W        W18324   2.703  32.304  19.934 -0.2041 -0.1366  0.0720
75272W        W18325   7.514  30.065  26.236  0.5412 -0.2315  0.2253
75273W        W18326  16.595  18.000  23.170 -0.2144 -0.0272  0.1799
75274W        W18327   2.623  27.643  28.594  0.1246  0.3782  0.0511
75275W        W18328  15.339  23.686   3.182  0.4172  0.4432 -0.0549
75276W        W18329   7.864   2.157   6.426  0.0685 -0.0837  0.0837
75277W        W18330  30.260   2.633   0.920  0.0955  0.1076  0.3965
75278W        W18331   5.440  20.113   0.159  0.0968  0.1280  0.2961
75279W        W18332  21.546  25.020  25.292 -0.2898 -0.1162 -0.1571
75280W        W18333  23.583  28.656   6.338 -0.0835 -0.0707  0.0079
75281W        W18334  18.292  32.454  28.940 -0.0432  0.0460  0.0046
75282W        W18335  33.263   1.802   7.479 -0.1750 -0.2365 -0.1721
75283W        W18336  16.508  23.047  10.033  0.1002 -0.3488  0.1168
75284W        W18337  13.427  20.229   0.039  0.0671 -0.3376  0.1260
75285W        W18338  10.723  31.300   2.402 -0.1403 -0.1122 -0.0727
75286W        W18339  28.316  14.359   2.896  0.0550  0.1797 -0.4078
75287W        W18340  10.129  34.317   1.731  0.0254  0.0123  0.1500
75288W        W18341  32.234  30.143  28.076  0.0348 -0.0112 -0.1231
75289W        W18342  33.177   0.300  27.531  0.0426  0.0621 -0.0349
75290W        W18343  23.784  32.749  28.483  0.1931  0.0887  0.1664
75291W        W18344  20.752  24.000  24.150  0.1943  0.0611  0.0665
75292W        W18345   5.276   3.836   0.967 -0.1043  0.1964  0.1962
75293W        W18346  23.769  27.331   6.322 -0.0737  0.1491 -0.1979
75294W        W18347   1.861  31.313   1.259 -0.1929  0.0481  0.0455
75295W        W18348  34.223  19.699   1.867 -0.1759 -0.1093  0.0036
75296W        W18349   5.052  28.823  23.127 -0.0380  0.0189 -0.2448
75297W        W18350  12.247   7.420   8.617  0.1933 -0.2658 -0.1499
75298W        W18351   9.746  17.242   9.287  0.1271 -0.1415  0.2340
75299W        W18352  19.367   5.010   1.040  0.1814 -0.0776 -0.0405
75300W        W18353  28.938  24.301   0.437 -0.0381  0.2711  0.0887
75301W        W18354   3.609  33.678  15.050  0.2547  0.2255 -0.2595
75302W        W18355   8.175  27.176   7.861  0.0048 -0.0226  0.0216
75303W        W18356   7.689   0.495  25.853 -0.2983  0.1077 -0.1413
75304W        W18357  30.170  22.669   7.304 -0.0098 -0.0545  0.2501
75305W        W18358   5.865  18.131  25.963 -0.3054  0.0347  0.1065
75306W        W18359   2.870   1.364  25.019 -0.1089 -0.0199  0.3991
75307W        W18360  22.154   5.361   0.008 -0.4394 -0.3043 -0.2642
75308W        W18361  30.406  29.663   5.261  0.0098  0.3032  0.1692
75309W        W18362  31.326  15.510  13.787  0.0144 -0.0855  0.1541
75310W        W18363  16.861  30.085  26.931 -0.1175 -0.1728 -0.0454
75311W        W18364   2.436  28.987   8.341  0.1980 -0.0482  0.1499
75312W        W18365   5.333  26.475   4.159 -0.1500 -0.1519 -0.1888
75313W        W18366   0.756   0.226   6.000  0.0776  0.1991 -0.2263
75314W        W18367  23.047  24.819  21.374 -0.1366 -0.3454  0.0337
75315W        W18368  28.802  22.849   2.142 -0.0265 -0.0485  0.1477
75316W        W18369  32.796   1.099  21.261  0.1827  0.1415 -0.3559
75317W        W18370   4.387  24.383  17.784  0.0479 -0.0794  0.0712
75318W        W18371  11.944   0.207   5.376 -0.3241 -0.2014  0.0151
75319W        W18372  15.340   7.653  23.625  0.1525 -0.0287  0.0484
75320W        W18373   1.522  30.630  28.633 -0.0135 -0.1427  0.1762
75321W        W18374  13.491  27.549  10.019  0.0679  0.1561  0.0232
75322W        W18375   9.864   4.861  25.307  0.0220 -0.2367 -0.1011
75323W        W18376   5.618  22.231   1.530  0.1442 -0.0482 -0.0048
75324W        W18377   1.193  33.164   7.490 -0.1275 -0.0374  0.1156
75325W        W18378  28.707  26.410  27.477 -0.1300 -0.0659  0.0932
75326W        W18379   2.351   4.816   2.341  0.1798 -0.2833 -0.0504
75327W        W18380  11.246  28.246  27.668 -0.1985  0.1457 -0.3080
75328W        W18381   6.939   3.283   6.416  0.1246 -0.0019  0.2109
75329W        W18382  34.056   0.666   4.286  0.0142 -0.0372  0.0391
75330W        W18383  10.519   8.240   9.980  0.0111 -0.1471  0.1503
75331W        W18384  20.853   2.435  18.846 -0.3089  0.1124  0.1186
75332W        W18385  33.786  34.170  22.900  0.0306  0.2693  0.0872
75333W        W18386   4.426  11.726  27.421  0.2657  0.1521  0.1399
75334W        W18387   1.330   2.186  18.611 -0.0909  0.0082  0.0900
75335W        W18388  19.519   5.868   9.262 -0.2198 -0.0748 -0.0368
75336W        W18389  13.006  13.168   9.245  0.4892 -0.1690  0.2004
75337W        W18390  31.061  22.794   6.647 -0.0104  0.1186 -0.0931
75338W        W18391  33.227  30.305  20.553  0.0243  0.0827 -0.0306
75339W        W18392   4.600   1.586  16.556 -0.0954 -0.0417 -0.0089
75340W        W18393   2.331   0.631  22.638 -0.3306  0.0427 -0.0597
75341W        W18394  14.834   2.977   5.721  0.2580 -0.0268 -0.1355
75342W        W18395  23.884  28.533  28.762  0.0611 -0.1894 -0.0363
75343W        W18396  20.930  20.550   7.927  0.1815  0.0571 -0.2377
75344W        W18397  20.125  10.261   9.336  0.0983 -0.0570 -0.2048
75345W        W18398   9.471   0.528   7.037  0.1545  0.2625  0.0173
75346W        W18399   6.029   6.845  19.081  0.3332 -0.2169 -0.0538
75347W        W18400  19.961   1.887  10.383 -0.1817 -0.1622 -0.1297
75348W        W18401  14.053   4.590  16.127  0.0962  0.1346 -0.2102
75349W        W18402  20.003   8.896  22.350  0.3200 -0.1099  0.0973
75350W        W18403  12.983  17.832  14.985  0.1477 -0.0937  0.1508
75351W        W18404   6.185   2.524   1.632 -0.3773 -0.0379  0.2609
75352W        W18405  13.448  26.382  25.111  0.4034 -0.3579 -0.0855
75353W        W18406   2.441  23.388   5.471 -0.0045  0.0218  0.2800
75354W        W18407   9.532  28.120   8.414 -0.0159  0.1251 -0.1555
75355W        W18408  23.017  11.473   5.654 -0.1465  0.3119 -0.0912
75356W        W18409   3.228  24.859   9.184 -0.1460 -0.0277  0.1177
75357W        W18410  20.945  20.985   6.451 -0.0955 -0.0059 -0.1889
75358W        W18411  17.229  34.557  29.065 -0.0462  0.2201  0.2519
75359W        W18412  29.585   0.231  28.962 -0.0135  0.1555  0.1529
75360W        W18413  30.733  24.379   2.585 -0.0868  0.1437 -0.2554
75361W        W18414   1.725  23.402  23.866  0.0736 -0.0833  0.2417
75362W        W18415  15.345  20.061   4.859  0.0350 -0.1500  0.0172
75363W        W18416   2.656  33.092  27.736  0.0614 -0.1032 -0.2208
75364W        W18417  27.465  34.519   8.519  0.0810 -0.0830 -0.1126
75365W        W18418  11.633   4.379  17.761 -0.0824  0.0376  0.1547
75366W        W18419  24.390   9.125   1.067  0.0354 -0.2802  0.0361
75367W        W18420  33.218  13.580   2.381 -0.0165  0.1213  0.0859
75368W        W18421   9.657  22.638  19.495  0.1810  0.1849 -0.0306
75369W        W18422  27.428  22.134  14.497 -0.2822 -0.4345  0.2097
75370W        W18423   4.597   9.876   8.534  0.2895  0.4419 -0.0322
75371W        W18424  29.288  11.462   3.098  0.3044 -0.0108  0.1522
75372W        W18425  30.930   9.423  22.458 -0.3134 -0.2010 -0.0964
75373W        W18426  11.646   6.702   3.559 -0.1194  0.2368  0.3297
75374W        W18427  31.953  30.741   4.909 -0.2095 -0.0170  0.2023
75375W        W18428  13.034  29.465   5.709 -0.1336  0.2999 -0.0171
75376W        W18429  17.056   0.101   6.934  0.1050  0.1948 -0.3116
75377W        W18430   8.767   3.112   0.717  0.1000  0.0291 -0.2507
75378W        W18431  19.009  32.923  27.904  0.0277  0.0888  0.2785
75379W        W18432  33.140  29.872   8.433  0.1171  0.2561 -0.1409
75380W        W18433  16.015  32.656   6.221 -0.2723  0.1131 -0.2636
75381W        W18434  17.534   7.339   3.785  0.1374  0.0218 -0.3312
75382W        W18435  15.966   0.516  10.130 -0.1415  0.0527  0.0285
75383W        W18436  24.371  24.113   7.209 -0.0043 -0.3368 -0.0256
75384W        W18437   3.882  31.932  28.325  0.0437 -0.1506  0.1233
75385W        W18438  10.123  27.735   3.585  0.1089 -0.0129  0.2820
75386W        W18439  22.572   6.233  22.766  0.0500  0.0867  0.2097
75387W        W18440  12.828  26.200  10.346  0.1180  0.2784 -0.0821
75388W        W18441   8.580  23.780   2.297 -0.2217  0.0449  0.0886
75389W        W18442  23.116  18.340   0.862  0.2633 -0.1233  0.0220
75390W        W18443   0.701  24.247   1.067  0.1251 -0.1557 -0.0045
75391W        W18444   1.570   2.331   7.861  0.2288 -0.0381 -0.2013
75392W        W18445  15.475  19.916  27.190  0.0083  0.2019 -0.2703
75393W        W18446  26.663  14.110   9.317  0.0836  0.0485  0.0616
75394W        W18447   1.643  15.908   8.501  0.0542  0.0232  0.0859
75395W        W18448   2.429  28.578  13.488 -0.2482 -0.0694  0.0098
75396W        W18449   9.567  27.541  20.518 -0.3355  0.0085  0.0929
75397W        W18450   5.160  26.836   4.468 -0.0820  0.0351  0.1311
75398W        W18451   8.966   2.529  26.706  0.1178  0.0786 -0.3599
75399W        W18452  31.165  12.192  25.478  0.3190 -0.3618  0.1025
75400W        W18453  32.112  30.895  25.346 -0.4977 -0.1520 -0.0268
75401W        W18454  12.888  32.192  26.004 -0.0988 -0.2203 -0.0109
75402W        W18455   3.317  29.760  22.676  0.2025  0.0498  0.1605
75403W        W18456  10.738   1.401  22.815 -0.2022  0.0336 -0.2155
75404W        W18457   7.719   2.451   3.788 -0.1386  0.0460 -0.0746
75405W        W18458  14.565  19.533  10.393  0.2574  0.0819  0.2336
75406W        W18459   5.923  23.442   4.808  0.0722  0.0812  0.1033
75407W        W18460   9.534   9.223  21.423  0.1378 -0.0645 -0.2280
75408W        W18461  16.438  23.420  25.767 -0.1821  0.0111  0.1543
75409W        W18462  18.352  23.902   3.540  0.2681 -0.2870 -0.0333
75410W        W18463  18.707  19.898  21.261  0.0950 -0.0466  0.4000
75411W        W18464  22.251  31.517   7.568  0.1011 -0.0466  0.0448
75412W        W18465   7.981  16.856   9.639 -0.0450  0.1748 -0.0613
75413W        W18466   5.426  31.665   7.734  0.2660 -0.0188 -0.0283
75414W        W18467   5.186  20.046   4.027  0.0567  0.0477  0.2866
75415W        W18468   4.799  24.361   8.265  0.0232 -0.1829 -0.0343
75416W        W18469  26.498   9.678   1.817  0.0110  0.1204 -0.0075
75417W        W18470   7.996  24.179   7.588  0.1293 -0.0532 -0.1516
75418W        W18471  12.685  20.205   2.076 -0.2550 -0.2083  0.0794
75419W        W18472   5.843  26.104   8.027 -0.1182  0.3511  0.1834
75420W        W18473  18.188  13.116   2.932  0.1740 -0.2375 -0.0867
75421W        W18474  12.623   1.231   4.722  0.3115  0.1213  0.1095
75422W        W18475   7.487  24.243   8.420 -0.1267  0.1343 -0.0842
75423W        W18476  10.629  29.708   1.874 -0.3139 -0.1560  0.0987
75424W        W18477  33.989   2.586   2.161  0.0486 -0.1274 -0.0357
75425W        W18478  29.883  26.762   4.027 -0.1159  0.3282 -0.0840
75426W        W18479  33.678   3.609   8.969 -0.1540 -0.1085  0.0859
75427W        W18480   6.922   1.744   9.450  0.0161  0.2822 -0.1695
75428W        W18481  16.672  19.607  28.244 -0.1787  0.1863  0.1690
75429W        W18482  22.294  21.665   7.207 -0.0094 -0.2654 -0.2934
75430W        W18483   2.745   6.925   6.565  0.3334 -0.1746  0.0598
75431W        W18484   1.042  18.282   4.129  0.4288  0.0763 -0.1685
75432W        W18485   6.603  17.482  16.084  0.0023  0.3192  0.1386
75433W        W18486   0.397  21.946   0.289  0.0175 -0.0497  0.1135
75434W        W18487   0.277  33.528  26.399  0.0038  0.1366 -0.0440
75435W        W18488   3.875  27.530   4.845 -0.1992 -0.1002 -0.0310
75436W        W18489  10.121  30.152   9.152 -0.0950 -0.0188 -0.0170
75437W        W18490  14.473  21.872  10.434  0.1313  0.0687 -0.1115
75438W        W18491   8.699  26.948  18.962 -0.1318 -0.1734 -0.0799
75439W        W18492  16.763   3.270   5.273  0.0596 -0.1230 -0.2093
75440W        W18493  25.919   7.615  26.896 -0.0307  0.0407  0.2096
75441W        W18494  14.928   5.340  28.833 -0.0854  0.1296 -0.2800
75442W        W18495  23.873   5.151   9.735 -0.1876  0.0946  0.1961
75443W        W18496   3.319  27.873   6.117 -0.3083 -0.1765  0.2263
75444W        W18497   1.922   1.210   4.563 -0.1225  0.0492  0.1813
75445W        W18498  33.465  21.711   6.509  0.1486  0.0473  0.2311
75446W        W18499  30.183  25.071   8.949 -0.0934 -0.2151 -0.1212
75447W        W18500  31.486   1.594   8.557 -0.1001 -0.0264  0.0086
75448W        W18501  18.070  28.494  25.513  0.0311 -0.0342 -0.1960
75449W        W18502   7.956  27.828  22.533 -0.1133 -0.1037  0.3756
75450W        W18503   8.066  32.805   2.333  0.1810 -0.1118  0.3508
75451W        W18504   5.216   2.762   8.069  0.0293  0.3700 -0.0972
75452W        W18505   9.439   0.245  23.213  0.0718  0.2887  0.4598
75453W        W18506   3.873  20.325  24.321  0.1920 -0.0070  0.2703
75454W        W18507  12.430  21.555  27.053  0.1273  0.0327  0.0932
75455W        W18508   4.991   4.294   0.077 -0.0765 -0.0117 -0.1260
75456W        W18509  13.903  33.261  26.110 -0.0141 -0.1820  0.0460
75457W        W18510  20.084  27.346  28.856 -0.2855  0.2239 -0.1264
75458W        W18511  29.591  26.981   6.779 -0.0825  0.0558 -0.2449
75459W        W18512  11.190   3.068  24.321 -0.0836 -0.0511  0.1448
75460W        W18513   4.421   0.716  24.430 -0.3896  0.2000  0.1462
75461W        W18514   3.308  27.874   0.712 -0.1239  0.2049  0.0296
75462W        W18515   4.681  33.362   7.806 -0.2308  0.2040  0.1558
75463W        W18516  18.903  25.788   9.235 -0.1909  0.0166 -0.3852
75464W        W18517  25.942  33.840   5.179  0.0714 -0.3017  0.0718
75465W        W18518  15.969  24.941  26.817 -0.0501 -0.0073  0.2260
75466W        W18519  10.955  11.601   5.245 -0.1654  0.0063 -0.0582
75467W        W18520  14.680  23.741   5.081  0.0733 -0.0021 -0.1007
75468W        W18521  12.388   2.425   1.761 -0.0822 -0.0233  0.0497
75469W        W18522  19.521  31.823   3.296 -0.1209 -0.2957  0.0961
75470W        W18523   9.437  29.149   2.567  0.1451  0.0149  0.1521
75471W        W18524   6.181  26.768   6.374 -0.1881 -0.1594  0.1498
75472W        W18525  18.370  27.615   0.460 -0.0280  0.4964  0.1120
75473W        W18526   3.343  13.087  25.949  0.1242 -0.2065 -0.3548
75474W        W18527   7.159  29.988  28.018 -0.1115  0.2839 -0.4270
75475W        W18528   2.305  25.897  20.173 -0.4125 -0.2114 -0.1388
75476W        W18529   6.379  28.214   1.893  0.2148  0.2101  0.0747
75477W        W18530  20.507  28.606  21.349 -0.0741 -0.1093 -0.3054
75478W        W18531  27.180  13.113  20.315  0.0852 -0.3654  0.1516
75479W        W18532   9.262  29.651   1.641 -0.1245 -0.1096  0.0062
75480W        W18533  18.597  16.346   7.016 -0.0823  0.0243 -0.1445
75481W        W18534   5.659  22.769  25.712 -0.0351  0.5312 -0.1067
75482W        W18535  10.861  26.875   0.437  0.2004  0.1171 -0.0501
75483W        W18536   4.861  32.843   2.454  0.1658 -0.0581 -0.3358
75484W        W18537  23.610  33.593   8.612  0.1192  0.1835  0.0371
75485W        W18538   1.076  34.139  28.034 -0.1966 -0.0930  0.0498
75486W        W18539   1.592   6.142   7.573  0.1181 -0.0595  0.1025
75487W        W18540  30.882  19.987   2.974  0.1439  0.2069 -0.1615
75488W        W18541  24.822  32.454   2.251  0.0970  0.0936  0.0308
75489W        W18542   0.811  34.647   0.852  0.3364 -0.1424  0.0935
75490W        W18543   4.741  31.185   4.573  0.1988 -0.0634  0.0090
75491W        W18544  33.006  30.446  19.232  0.0244 -0.0007 -0.1389
75492W        W18545  20.320  32.695   9.409 -0.1202 -0.2247  0.3309
75493W        W18546  14.869   6.710   5.737 -0.2002  0.1125  0.0373
75494W        W18547   8.668   2.200   3.029 -0.2154  0.2961 -0.2030
75495W        W18548   8.175  30.338   7.130 -0.0244  0.2119  0.0686
75496W        W18549  25.625   1.040  23.273  0.0694  0.2338  0.1556
75497W        W18550  25.056   7.571   8.092  0.1510  0.2843  0.0943
75498W        W18551  24.373  22.481   2.707 -0.0601 -0.2611 -0.2711
75499W        W18552   5.200  29.343   4.804 -0.0888  0.1742  0.1534
75500W        W18553  21.031  29.942   1.676 -0.1002  0.0600 -0.0847
75501W        W18554  20.311   3.228  17.368  0.1542 -0.0788 -0.4838
75502W        W18555  27.058  28.187   8.180 -0.1228  0.3099  0.1364
75503W        W18556   3.652  27.409   8.212 -0.1321  0.0005 -0.1234
75504W        W18557  33.916   1.854   4.040 -0.1226 -0.1786  0.4255
75505W        W18558   3.676  14.799   9.665  0.2660 -0.2942 -0.0191
75506W        W18559  17.469   8.046   5.793  0.1854  0.0415  0.1946
75507W        W18560  15.092  26.179  27.551  0.0471 -0.1375 -0.1606
75508W        W18561   1.039  20.163   2.732 -0.0179 -0.3464  0.2625
75509W        W18562   9.373  10.320  27.627  0.2337 -0.0171 -0.4284
75510W        W18563   1.668  17.889  25.231  0.2051  0.1065 -0.3269
75511W        W18564   8.447  26.726   6.700 -0.0311 -0.1586  0.1396
75512W        W18565  10.386   9.514   0.018  0.3333  0.2318  0.0709
75513W        W18566  33.272   0.649  28.219 -0.3479  0.5111  0.2286
75514W        W18567   7.570  28.276  28.388  0.0361 -0.2804 -0.0902
75515W        W18568  12.025  15.156   1.907  0.0655 -0.0799 -0.1573
75516W        W18569   6.887  27.786   1.659 -0.0010  0.1210 -0.2650
75517W        W18570   8.493  15.943   1.833  0.0035  0.0427 -0.0899
75518W        W18571   0.127   3.337  26.741 -0.1196  0.4271  0.0499
75519W        W18572   6.509  28.793  27.114 -0.0210 -0.0936  0.1512
75520W        W18573  30.495  33.753  23.275 -0.3125 -0.3310 -0.0210
75521W        W18574  21.924  30.304  24.292 -0.5430  0.3069 -0.0882
75522W        W18575   4.505  18.924   7.348  0.0681 -0.2054 -0.1786
75523W        W18576   1.753  32.887  10.087  0.0683 -0.1085  0.1009
75524W        W18577  32.353   0.465   8.547 -0.0520 -0.0880  0.0979
75525W        W18578  13.002  21.948  22.905 -0.1236 -0.2005  0.1556
75526W        W18579  18.884  29.511   9.098  0.0826  0.0935  0.0290
75527W        W18580  11.039  33.115  19.147  0.1492  0.0665  0.3715
75528W        W18581  12.401  12.324   0.940 -0.0567  0.0526 -0.0530
75529W        W18582   3.064  16.038   7.604 -0.1470  0.0833  0.0745
75530W        W18583   8.617  11.738  28.904  0.0635 -0.2177 -0.2118
75531W        W18584  11.235   4.964   3.346  0.1363 -0.2415 -0.1031
75532W        W18585  10.045  34.055   5.300 -0.1826 -0.0226 -0.3352
75533W        W18586   7.174   4.846  21.225  0.0386  0.0145  0.1459
75534W        W18587  12.193   8.330   2.727 -0.1820 -0.2029 -0.1266
75535W        W18588  21.791  29.349   3.911  0.1207  0.2085 -0.0599
75536W        W18589  25.531   2.858  15.225 -0.0744 -0.0700 -0.0363
75537W        W18590   0.210   4.983  16.338  0.4006  0.0107  0.0516
75538W        W18591   7.697  11.754   7.662  0.2041 -0.2352 -0.3280
75539W        W18592  19.750  29.981   5.574 -0.1616  0.4546 -0.1917
75540W        W18593   7.049   5.737  22.987 -0.4396  0.4620  0.1338
75541W        W18594  11.130   5.674  10.585 -0.1336 -0.3697  0.4734
75542W        W18595  17.033   4.786  24.149  0.1760  0.0099 -0.1872
75543W        W18596  17.710  26.431   7.918  0.0603 -0.1318 -0.3999
75544W        W18597  16.059   2.981   7.377 -0.2176 -0.3809 -0.1026
75545W        W18598   4.936  34.316  25.737  0.1246  0.0646 -0.0940
75546W        W18599  16.447  10.368   9.311 -0.1636 -0.2273 -0.0995
75547W        W18600   6.725  28.805  20.750 -0.2206  0.2611 -0.0841
75548W        W18601   3.918  30.607   8.486 -0.1492  0.4869  0.0345
75549W        W18602  32.091   8.102   7.155 -0.0995  0.2247 -0.0717
75550W        W18603   7.251  18.530   2.453 -0.0084  0.2729 -0.2604
75551W        W18604   7.953  32.594   3.231  0.1095 -0.0281 -0.0745
75552W        W18605  21.071   2.919  26.285 -0.2072  0.0263 -0.3334
75553W        W18606  13.381   8.196  16.021 -0.2371  0.3090 -0.0055
75554W        W18607  28.306   7.745  20.336 -0.2066 -0.3138  0.2244
75555W        W18608  13.674  33.283   4.152  0.1967 -0.0340  0.2403
75556W        W18609  26.449  18.382   5.111 -0.2083  0.0165 -0.1495
75557W        W18610  28.016  33.463  21.035  0.2773  0.1099  0.0416
75558W        W18611  21.709  32.507   1.927 -0.1182  0.0469  0.1124
75559W        W18612   7.929  30.361   1.895  0.0963 -0.0726  0.1448
75560W        W18613   5.802   6.402   0.482 -0.1386  0.1927  0.2244
75561W        W18614   8.906  30.491  19.726 -0.3456 -0.2222 -0.0204
75562W        W18615  14.548  26.899  28.516 -0.3100 -0.0085 -0.1369
75563W        W18616  27.608  26.015   5.990 -0.2247  0.2047  0.0409
75564W        W18617   0.027  20.580  18.280 -0.1746  0.1978  0.1701
75565W        W18618  14.479  33.803  22.345  0.0518 -0.1587  0.0655
75566W        W18619  11.321   1.158   6.994  0.0632 -0.0229  0.1437
75567W        W18620   0.491  17.527  21.398  0.1381 -0.0612  0.0538
75568W        W18621   6.074  24.971   6.124 -0.1934  0.1185 -0.0974
75569W        W18622   1.395  28.765   9.604 -0.2824  0.3753 -0.1830
75570W        W18623  12.631  24.438  15.600  0.1690 -0.0557 -0.0943
75571W        W18624  13.940  25.822   1.767  0.1172 -0.0541 -0.0920
75572W        W18625   8.650  25.617   3.441  0.0750 -0.1270 -0.1935
75573W        W18626   9.458  17.569   2.937 -0.1824 -0.3233 -0.0217
75574W        W18627  15.353  24.256   4.964  0.1455 -0.0410 -0.0793
75575W        W18628   7.706  27.016   6.969  0.1093  0.0432  0.0318
75576W        W18629   0.416  20.720  28.863 -0.0388  0.0142  0.0039
75577W        W18630  30.612  27.996  13.319  0.2439  0.0305 -0.0666
75578W        W18631  10.881  18.003   0.294 -0.1165 -0.1439 -0.1814
75579W        W18632  17.365  33.174  19.331  0.2952  0.0778  0.1426
75580W        W18633   4.941   6.235   8.645 -0.0921  0.0384 -0.1353
75581W        W18634   0.251   8.853   7.517 -0.2015  0.1055  0.2200
75582W        W18635   6.480  30.492   7.148 -0.1407 -0.1693 -0.2601
75583W        W18636  30.290  28.343  23.983 -0.0207  0.0330  0.0384
75584W        W18637   6.509   0.791   8.530  0.0687  0.1011  0.0800
75585W        W18638  32.653  22.679   0.227  0.4124 -0.4530 -0.1637
75586W        W18639  25.605  17.080  22.453  0.2846  0.1833  0.0277
75587W        W18640  29.591   4.747  10.419  0.0588 -0.3494  0.1931
75588W        W18641  10.525  16.937   6.292 -0.2670 -0.3330 -0.0421
75589W        W18642  12.649  34.448  10.215  0.1117  0.0801 -0.1582
75590W        W18643  25.442  32.088   7.552  0.0432 -0.1300  0.1946
75591W        W18644   5.053   5.704  27.437 -0.3255 -0.1158  0.1361
75592W        W18645   3.767  10.060   2.928 -0.4590  0.2403 -0.2416
75593W        W18646  31.280  32.095   8.140 -0.0357 -0.0154 -0.2889
75594W        W18647   2.954  26.400   8.024 -0.2881 -0.0391 -0.0630
75595W        W18648  17.869  32.489  23.447 -0.2189  0.0048 -0.1883
75596W        W18649  10.379   3.894  23.631 -0.2884  0.0952 -0.1436
75597W        W18650  15.446  33.215  27.452  0.1187 -0.0754 -0.1445
75598W        W18651   6.368   0.900  23.484 -0.4498  0.2541  0.3905
75599W        W18652   8.872  27.841   9.215  0.0176 -0.1539 -0.2214
75600W        W18653  14.039  30.434   9.311  0.1833 -0.1551  0.2143
75601W        W18654  18.510  26.028  23.891  0.0664 -0.3717 -0.0395
75602W        W18655  12.702  21.364  20.632 -0.0872  0.1540  0.0476
75603W        W18656  25.287  32.783   9.159  0.0079  0.3617 -0.0698
75604W        W18657   5.049   5.335  15.989  0.0607 -0.1552 -0.2573
75605W        W18658   3.828  33.541  26.837  0.1408  0.0595 -0.0950
75606W        W18659  15.782  26.295   4.785  0.2689 -0.1700  0.1543
75607W        W18660  12.329  34.377   9.339 -0.0273  0.0531 -0.0162
75608W        W18661  31.852  31.893   0.690  0.2736 -0.3160  0.1001
75609W        W18662   2.357  15.176   1.123  0.4242  0.2094  0.3885
75610W        W18663  31.318   1.028   0.504  0.3250  0.2505  0.1609
75611W        W18664  14.458  25.630  16.926  0.0445  0.1271 -0.0338
75612W        W18665  22.240  17.346   1.595  0.0005 -0.0044  0.2510
75613W        W18666  23.495  10.447  21.491  0.2351 -0.2123 -0.0556
75614W        W18667   1.631  21.618   0.593 -0.1917 -0.0757  0.2491
75615W        W18668  21.797   9.417  10.441 -0.1158 -0.2801 -0.0142
75616W        W18669  33.921  23.052   2.006  0.1328  0.1948  0.1085
75617W        W18670  18.755   3.764  10.550  0.2761 -0.0415 -0.1657
75618W        W18671   5.437  21.806  24.462 -0.0845  0.0236 -0.1456
75619W        W18672  10.218  24.498   7.905  0.0106 -0.2576 -0.0790
75620W        W18673   2.952  34.294  16.099  0.1316 -0.3736 -0.0788
75621W        W18674  11.095   8.900   5.067 -0.2086  0.1286  0.1463
75622W        W18675   0.213   3.218   6.134  0.3341 -0.0656  0.1064
75623W        W18676   6.046   2.431  22.712 -0.2658 -0.0954 -0.0740
75624W        W18677  14.107   7.045   1.639 -0.1707  0.2001 -0.1648
75625W        W18678   9.154  23.944   8.999 -0.0812  0.1977  0.0702
75626W        W18679   2.202  21.558   4.210 -0.1538 -0.0485 -0.1653
75627W        W18680   7.920  31.299   7.259 -0.3310  0.2385 -0.0050
75628W        W18681   7.963  26.932   6.542  0.2315  0.0118  0.1812
75629W        W18682   8.736   6.555  18.164 -0.2250 -0.1878 -0.0971
75630W        W18683   7.659   7.729  26.833 -0.0993 -0.1923 -0.2041
75631W        W18684  33.604  20.961  28.575 -0.0311  0.2918 -0.3120
75632W        W18685  26.655  33.300  15.837 -0.0054 -0.4872 -0.0287
75633W        W18686   7.798   6.254  23.671 -0.3251  0.1636  0.1144
75634W        W18687  27.544  31.901   4.152 -0.2869 -0.2364  0.0302
75635W        W18688   8.351  19.366   1.731 -0.1318 -0.0522 -0.2693
75636W        W18689  32.350  14.301   6.034  0.0232 -0.0878 -0.2264
75637W        W18690  11.989   2.622   6.115 -0.0994  0.1638 -0.1585
75638W        W18691   5.516  25.762   3.114 -0.0170 -0.0482  0.1186
75639W        W18692  25.363  21.213   2.109  0.0479  0.1231 -0.0652
75640W        W18693  19.214  24.133   0.048  0.1996  0.2034  0.4756
75641W        W18694  15.803  33.615  23.510 -0.0493 -0.3840  0.0465
75642W        W18695   6.012   2.582   2.111  0.2697  0.3219  0.1424
75643W        W18696  17.247   9.485   2.325 -0.0495 -0.1712  0.2829
75644W        W18697   2.399  32.127   7.804 -0.4808  0.0563 -0.1089
75645W        W18698  34.163   6.522   7.743 -0.0751 -0.2519 -0.0704
75646W        W18699   5.366  18.785   6.459  0.1105  0.2194  0.2449
75647W        W18700   0.783   4.020   1.279  0.0419 -0.1976 -0.2232
75648W        W18701  21.158  31.204  15.483  0.1383  0.2868 -0.2443
75649W        W18702   2.112   3.365   6.259  0.0555 -0.0281 -0.2668
75650W        W18703  34.451  18.008  26.416  0.1180 -0.3969  0.0243
75651W        W18704  27.289  22.980   4.818  0.1731  0.1757  0.2002
75652W        W18705  34.058  12.037   4.872  0.0224  0.1751  0.2282
75653W        W18706   0.895  11.118  26.635 -0.1106  0.3940  0.0098
75654W        W18707   6.698  26.878  22.885  0.1580  0.0216 -0.1460
75655W        W18708  21.783   3.383  25.367 -0.0517  0.1311  0.1764
75656W        W18709   6.871   1.303  10.156  0.1340  0.0849 -0.0116
75657W        W18710   1.259  25.252  20.064 -0.1136  0.0942  0.2326
75658W        W18711  18.056  30.211  10.218  0.1691  0.0670  0.1521
75659W        W18712  11.403  27.281   9.036  0.2078  0.0400 -0.0569
75660W        W18713   9.582  34.055   5.066 -0.4837 -0.0037  0.2234
75661W        W18714   8.823  26.720   2.816 -0.1722 -0.2119 -0.0570
75662W        W18715   4.287   0.861  28.351  0.1073 -0.0428 -0.2744
75663W        W18716  19.206  18.280   4.324 -0.2485  0.1412 -0.3395
75664W        W18717   6.851   7.391   1.091  0.0138  0.3987  0.1087
75665W        W18718  25.712  24.443   6.733  0.3580 -0.3301 -0.0470
75666W        W18719   5.090  29.386   4.317 -0.1545  0.1127 -0.2158
75667W        W18720   0.117  11.708  25.321  0.2161  0.2482 -0.1455
75668W        W18721   8.867  32.888   8.742 -0.2011 -0.1265 -0.0258
75669W        W18722   1.070  29.353   8.056  0.1702  0.1738  0.0209
75670W        W18723   3.964   3.389   7.416  0.1096  0.0445 -0.0568
75671W        W18724  30.002  12.557   2.167 -0.1703  0.0493  0.0575
75672W        W18725  25.681  23.974   0.978 -0.1986 -0.0667 -0.0321
75673W        W18726  24.229  29.673  19.324  0.5393 -0.0075 -0.0763
75674W        W18727   7.615  29.838   5.918  0.1958  0.0070  0.1022
75675W        W18728  23.884  29.115   6.306  0.3507 -0.0858  0.0267
75676W        W18729  29.985  30.361  17.871 -0.1983  0.0667  0.0887
75677W        W18730  13.567  23.667   9.899  0.1634  0.2669  0.0901
75678W        W18731  26.243   9.075   4.983  0.1004 -0.1063 -0.0716
75679W        W18732   7.659  27.185   9.015  0.3708  0.1424 -0.0408
75680W        W18733   9.095  32.496   7.049  0.1036 -0.0548  0.1630
75681W        W18734   4.372  24.767  22.031 -0.0177  0.0691 -0.3289
75682W        W18735   8.940   1.072   5.545 -0.0131 -0.0673  0.1252
75683W        W18736  30.366  27.225   2.919  0.1615  0.0456  0.0185
75684W        W18737   1.562  34.669   6.260  0.2334  0.0172  0.3211
75685W        W18738  11.440   7.580   9.199 -0.0189  0.1954  0.1765
75686W        W18739  31.438  20.414  25.739  0.0249 -0.0838 -0.1670
75687W        W18740  18.831  11.797  26.192 -0.1189  0.0532  0.3975
75688W        W18741  16.487   9.474   6.187  0.2584 -0.3888  0.3925
75689W        W18742   5.035  30.129  20.593 -0.2626 -0.1450 -0.1598
75690W        W18743  15.096  19.134  23.040 -0.1152  0.3617 -0.0231
75691W        W18744  13.923  30.998   0.944  0.1344 -0.0015  0.2505
75692W        W18745  11.720  26.388   7.210  0.0938  0.1355  0.2525
75693W        W18746   9.738  29.179   4.957 -0.1856 -0.1489  0.0126
75694W        W18747  32.732  20.383   7.204  0.0633  0.3234 -0.4503
75695W        W18748  13.193  27.495   8.688 -0.5143  0.1596 -0.1116
75696W        W18749   6.331  33.160  22.915  0.0203  0.0802  0.0479
75697W        W18750  13.728  28.071   3.308  0.2115  0.0060 -0.2525
75698W        W18751  28.527  23.410   6.001  0.2309  0.0669 -0.4846
75699W        W18752  20.985   4.945   4.635 -0.4487 -0.1794 -0.0322
75700W        W18753   9.102   1.301   7.300 -0.3161  0.2320 -0.0428
75701W        W18754  21.961  32.399   2.591  0.0866  0.0926 -0.1716
75702W        W18755  16.710  32.000  20.383 -0.2640  0.1057 -0.0446
75703W        W18756  28.727   1.900   5.948 -0.1422 -0.0307  0.1115
75704W        W18757  29.684  24.745   1.577  0.2233 -0.0508 -0.1101
75705W        W18758   7.499  11.247   3.633  0.2663 -0.0736 -0.4057
75706W        W18759  21.777  34.590   7.093  0.1650  0.4457  0.0801
75707W        W18760   9.640   6.619   8.176  0.1650  0.2787  0.1405
75708W        W18761  13.565  25.110  18.401 -0.2272 -0.1701 -0.1230
75709W        W18762  30.267  19.523  22.335  0.1397 -0.2134  0.0790
75710W        W18763   0.346   2.480   4.372 -0.1259 -0.1586  0.0111
75711W        W18764   2.011  20.639   9.696  0.1302  0.1082 -0.0835
75712W        W18765   9.584  31.723   9.190 -0.0047 -0.2026 -0.1597
75713W        W18766   8.291  13.276   7.279 -0.0555  0.2107  0.1521
75714W        W18767  30.835  19.062  16.098 -0.5709  0.0219  0.2967
75715W        W18768   1.108  32.065   3.302  0.3062  0.0084  0.1300
75716W        W18769  29.449   2.006  19.889  0.0049  0.7262  0.0954
75717W        W18770  32.127  23.560   8.863  0.0856 -0.1633 -0.3321
75718W        W18771   8.296  15.020   1.874  0.0737 -0.0097  0.3055
75719W        W18772  34.532  29.211   6.579 -0.0944  0.0401 -0.1325
75720W        W18773  13.693  34.337  28.295  0.2357 -0.1322 -0.4914
75721W        W18774  10.365   7.967  24.775  0.2591  0.1407 -0.1976
75722W        W18775  26.479  22.302  16.299 -0.1098  0.2630  0.1518
75723W        W18776  30.006  26.225  20.072  0.1456  0.1219 -0.1543
75724W        W18777  24.207  17.887   7.019  0.1237  0.1907 -0.0774
75725W        W18778   4.326  26.806  26.915 -0.2412  0.1445  0.0940
75726W        W18779  33.524  18.554   3.151  0.0468  0.0815 -0.1651
75727W        W18780  14.329  32.257  24.256  0.0605  0.0655  0.3036
75728W        W18781   5.377  29.238   5.790  0.1270  0.0450 -0.0067
75729W        W18782   0.402  31.301   4.978  0.1909  0.1698  0.1825
75730W        W18783  32.284  27.895   7.126  0.1960  0.1460 -0.0085
75731W        W18784  12.123  18.705  17.694  0.2235 -0.3080  0.1179
75732W        W18785   0.179  16.112  19.483  0.0601  0.1755 -0.1443
75733W        W18786   3.061   5.580  24.654 -0.1586 -0.0879  0.1727
75734W        W18787   3.488  17.936   7.208 -0.2905 -0.0279  0.2017
75735W        W18788   9.945  19.300  28.182  0.0014  0.1756  0.0905
75736W        W18789   1.988  31.687   3.162 -0.2310 -0.1597 -0.1567
75737W        W18790  23.470   4.117  22.159 -0.1915  0.1892 -0.1676
75738W        W18791  31.902  23.011   0.633  0.0145  0.2665 -0.4594
75739W        W18792  11.692  20.415   7.512 -0.0673  0.1525 -0.0727
75740W        W18793  25.772   9.096   6.758  0.4641 -0.3538  0.0477
75741W        W18794   1.287  31.465   4.570  0.1079 -0.3352 -0.3135
75742W        W18795  33.643  14.788  16.486 -0.3350 -0.2548  0.0927
75743W        W18796  22.604  32.923   8.076 -0.0430 -0.0231 -0.2136
75744W        W18797   8.768  28.629  19.342 -0.0922 -0.4404  0.1122
75745W        W18798   3.818  22.014  27.111  0.1452 -0.1070 -0.0357
75746W        W18799  18.239  30.303   3.003 -0.2318 -0.4223  0.2247
75747W        W18800   6.535  30.260   4.436  0.2855  0.2201 -0.0960
75748W        W18801   0.942  33.906   3.006  0.1367  0.2481  0.1554
75749W        W18802  19.466  27.264   6.610 -0.0455 -0.0424  0.0044
75750W        W18803   1.720  33.448  25.000 -0.1882 -0.3042 -0.0598
75751W        W18804  28.708  34.376   8.003  0.0771  0.2115 -0.0343
75752W        W18805   8.719  12.783  28.978  0.0519 -0.1720  0.1424
75753W        W18806  28.501  26.076  27.062 -0.0956 -0.3416  0.1010
75754W        W18807   8.542  23.288   2.517 -0.2082  0.1252  0.1390
75755W        W18808   6.034  27.303  17.449 -0.0737 -0.3657  0.3419
75756W        W18809  11.542  22.595   6.285  0.2423 -0.0293  0.1004
75757W        W18810  16.567  34.031   1.773  0.0123 -0.0246 -0.2173
75758W        W18811  16.565   3.526   6.590 -0.2634 -0.2955 -0.1448
75759W        W18812  28.311  24.723  26.156  0.3277 -0.0102  0.1392
75760W        W18813  19.788   3.845   7.028  0.1212  0.0656 -0.1940
75761W        W18814  28.793  11.858  20.904  0.1415 -0.1026 -0.2168
75762W        W18815   5.625  26.434   9.829 -0.1699  0.0025  0.1700
75763W        W18816  29.647  27.372   9.410 -0.3291 -0.1636  0.3168
75764W        W18817   1.306  33.479   5.498 -0.2794  0.1952 -0.2885
75765W        W18818   2.230  22.815  27.483 -0.1524 -0.0061 -0.3155
75766W        W18819  32.184   6.279   5.679  0.0776  0.0476 -0.2166
75767W        W18820   8.351  26.078  26.391  0.1019 -0.1605 -0.0454
75768W        W18821   0.046  18.579   4.428 -0.1383 -0.0976  0.2468
75769W        W18822   7.693   1.696   4.252 -0.4005  0.4439 -0.0219
75770W        W18823   7.085  33.216   4.095 -0.0822 -0.0498  0.1247
75771W        W18824  11.795  25.828  25.404  0.2456 -0.1061  0.0662
75772W        W18825  27.034  22.446  25.956 -0.1201 -0.1189 -0.0609
75773W        W18826  27.976   2.868   3.858  0.2327 -0.1312  0.2126
75774W        W18827   5.028  33.684   0.769 -0.1217 -0.3796 -0.1378
75775W        W18828   4.058  30.065   0.829  0.1437 -0.2342 -0.1599
75776W        W18829   9.776  33.288   6.334  0.3887  0.0397 -0.0661
75777W        W18830  32.422  26.846   3.020 -0.1997  0.3658  0.3200
75778W        W18831   3.490  32.434   1.002  0.0154 -0.2019 -0.1479
75779W        W18832  26.108  32.080   2.177 -0.2802 -0.0894  0.0482
75780W        W18833  14.722  31.544   3.287 -0.2349  0.2537 -0.0722
75781W        W18834  29.642  12.835   7.941  0.0904 -0.1118 -0.1053
75782W        W18835  16.335   1.293   8.719 -0.0652  0.0963  0.0852
75783W        W18836   2.447   6.147   3.734  0.0486 -0.1574 -0.0861
75784W        W18837   1.731   1.867   3.594 -0.0469  0.1335 -0.0974
75785W        W18838  11.637  29.301  25.393  0.0370 -0.0206 -0.0211
75786W        W18839  29.018  25.197   9.424 -0.1103 -0.2464 -0.1334
75787W        W18840  30.664  22.075   2.375  0.4273 -0.4021  0.3213
75788W        W18841  24.484  19.730   5.969 -0.1012 -0.0223 -0.1174
75789W        W18842   2.973  31.272  17.263 -0.1227 -0.1507  0.3475
75790W        W18843  10.900  25.901   7.304  0.2687 -0.2381 -0.2945
75791W        W18844   4.320   7.624   1.055  0.3838  0.0494 -0.2637
75792W        W18845   5.031  15.002   5.247 -0.0758  0.1792 -0.2697
75793W        W18846   2.452  32.857  28.131 -0.2187 -0.1306 -0.3029
75794W        W18847   7.493  29.612   4.872 -0.2230  0.3392  0.0090
75795W        W18848   2.983  13.535  17.919  0.2538 -0.1090 -0.1158
75796W        W18849  34.538   5.728   9.840  0.3846  0.3003  0.2231
75797W        W18850  28.067  20.074  19.935 -0.0594  0.2074  0.1117
75798W        W18851  30.113   5.109  24.219  0.1793 -0.1065 -0.2117
75799W        W18852  34.054  24.964   7.232 -0.1804  0.0323  0.2607
75800W        W18853   7.497  24.823   0.151 -0.0262  0.2757  0.1152
75801W        W18854   2.313  17.285  24.124 -0.1191  0.1637  0.1952
75802W        W18855   6.022   3.233   3.872 -0.2856 -0.0229  0.2779
75803W        W18856   2.018  30.445   2.402 -0.3068  0.4360 -0.2231
75804W        W18857  11.683   0.197   8.288 -0.1932  0.0548  0.0534
75805W        W18858   2.759  31.077   6.926  0.0044 -0.0769  0.2016
75806W        W18859   7.442  11.720   0.615 -0.3061 -0.1775  0.0913
75807W        W18860   5.704  31.486   5.847  0.0745 -0.1605 -0.2113
75808W        W18861   8.388  25.674  27.925  0.0368  0.1343  0.0350
75809W        W18862   6.517  27.577   6.875  0.1091 -0.0946  0.2297
75810W        W18863   1.259  33.720   0.473  0.0147 -0.2336 -0.0307
75811W        W18864   8.073  29.053   5.081  0.1072  0.4750 -0.2407
75812W        W18865  14.441  30.095   2.883 -0.1101 -0.3804 -0.3516
75813W        W18866  11.859  20.457   4.494  0.1930  0.0692 -0.1891
75814W        W18867  22.812  23.736  28.025  0.2256  0.0393  0.1770
75815W        W18868  16.672   0.201   0.277  0.2073 -0.1066  0.0146
75816W        W18869  13.953  24.218   7.426  0.3402 -0.2836 -0.2207
75817W        W18870  32.421  24.911   4.038 -0.1546 -0.1012 -0.0375
75818W        W18871  31.883  25.822   3.276 -0.0308 -0.1961 -0.0675
75819W        W18872   4.626  20.211   1.861 -0.0422  0.0836 -0.0836
75820W        W18873  34.522   9.546   0.921  0.0162 -0.6200  0.1843
75821W        W18874  27.795  29.105  25.124 -0.1214 -0.1185 -0.0931
75822W        W18875   9.491  29.513   9.412 -0.0726 -0.2219  0.0769
75823W        W18876   5.373  25.977  23.170  0.1669  0.2635  0.0261
75824W        W18877   2.082  18.086   5.317 -0.1510 -0.0395 -0.0252
75825W        W18878   6.464  25.671   6.629 -0.0915 -0.2581  0.2325
75826W        W18879   8.641  29.565   8.797  0.1537  0.2609  0.1214
75827W        W18880   0.272  24.210  23.436  0.0524 -0.0944 -0.1543
75828W        W18881   4.327  23.222  29.159 -0.0875  0.0321 -0.0680
75829W        W18882   7.705  31.145   7.920 -0.1047 -0.1402 -0.0194
75830W        W18883  30.379  28.605   2.463 -0.2410  0.0035  0.2728
75831W        W18884  10.077  30.781   6.389 -0.1256  0.0591  0.2900
75832W        W18885  26.341  32.332   5.538  0.2599  0.0544  0.0970
75833W        W18886   9.869  33.804   0.741  0.2393 -0.1313 -0.0985
75834W        W18887   8.905  23.060   9.097 -0.0869 -0.0636  0.5837
75835W        W18888   4.806  34.238   5.998  0.2075  0.0165 -0.0995
75836W        W18889  13.446  24.941  28.344  0.2183 -0.3744  0.0504
75837W        W18890  13.565  32.210  26.081  0.1570  0.0910  0.2434
75838W        W18891   4.644   4.453   7.887  0.1613 -0.0607 -0.0214
75839W        W18892   1.628  15.362  28.791  0.1096  0.0059 -0.1847
75840W        W18893  27.275  22.512  22.852  0.5883 -0.2612 -0.2500
75841W        W18894  33.659   4.289   2.110  0.1049  0.1519 -0.1476
75842W        W18895  33.163   3.098   5.059  0.1113  0.1224  0.1223
75843W        W18896  30.802  26.613   4.058  0.0264 -0.0874 -0.0564
75844W        W18897   2.430  27.838   6.436 -0.1799  0.0325  0.2634
75845W        W18898  10.589  18.603   7.266 -0.0984  0.2948  0.1099
75846W        W18899   5.080  31.185  28.404 -0.0149 -0.1832  0.1032
75847W        W18900  17.703  33.565  19.608  0.0821 -0.0168 -0.0452
75848W        W18901   4.808  13.557   1.749  0.2298  0.1082  0.0533
75849W        W18902  33.597   6.132  27.716 -0.1106  0.1818 -0.1263
75850W        W18903  34.468   7.268   4.393 -0.0076 -0.4144  0.2420
75851W        W18904   8.511  22.731   5.783  0.0272  0.0049  0.0621
75852W        W18905  16.159  31.188   1.604 -0.2026 -0.0323  0.2299
75853W        W18906  15.133  34.075  19.021  0.2839  0.1712 -0.0631
75854W        W18907   2.833  24.431   1.621  0.1185  0.0805  0.1158
75855W        W18908   6.232   1.394  23.426 -0.1792 -0.0587  0.2682
75856W        W18909  10.345   3.819  28.757 -0.2004  0.0929  0.2193
75857W        W18910   5.776  22.374   9.257 -0.0418  0.1094 -0.0867
75858W        W18911  32.501  12.075   1.979 -0.0351 -0.0100  0.2025
75859W        W18912   3.009  29.425   7.309  0.1459 -0.1179 -0.1877
75860W        W18913   8.033   0.106   5.860  0.0165 -0.1233  0.0081
75861W        W18914  24.583  28.976   8.461 -0.3447 -0.2167  0.1555
75862W        W18915  18.968   7.389   4.650 -0.0438 -0.1271 -0.2124
75863W        W18916  13.518   5.465   4.157  0.3395 -0.0707 -0.5117
75864W        W18917   5.348  30.258   5.341  0.1477 -0.0088  0.1901
75865W        W18918  30.473   1.454   2.786  0.0476 -0.1337 -0.0091
75866W        W18919   9.283  16.415   5.145  0.0023  0.1269 -0.2410
75867W        W18920  13.903  30.936   2.364  0.1353 -0.0359  0.2182
75868W        W18921  30.430  17.647   0.902  0.1818  0.0022 -0.1961
75869W        W18922  15.087  22.053   5.358  0.1583  0.1753  0.0824
75870W        W18923  12.060  31.265   8.551  0.1487  0.0538  0.2178
75871W        W18924  32.395  25.474   8.918 -0.0335 -0.1481 -0.1837
75872W        W18925  32.251   8.385   2.368 -0.2044  0.2754 -0.1218
75873W        W18926  20.075  26.343   2.612  0.1394  0.1530 -0.2219
75874W        W18927   7.687  31.908   9.400 -0.0884  0.1890 -0.0291
75875W        W18928  14.096  24.928   9.536  0.1625 -0.3777  0.0355
75876W        W18929  29.714  23.114   4.412 -0.0523  0.2878  0.0795
75877W        W18930  27.256  31.768   0.483  0.4992 -0.0331 -0.2216
75878W        W18931  10.971  28.463   0.205  0.0057  0.2718  0.0149
75879W        W18932   4.330   1.018   6.216 -0.0390  0.0842 -0.1993
75880W        W18933  32.700  23.219   7.656 -0.0230 -0.0070  0.0055
75881W        W18934   2.168  17.810  28.486 -0.0836 -0.1518 -0.0876
75882W        W18935   6.164  31.879  23.894 -0.3100 -0.2314 -0.1733
75883W        W18936   6.048  30.919   6.539 -0.0008  0.2036  0.0334
75884W        W18937  15.477  32.794   7.761 -0.2389 -0.1933  0.0001
75885W        W18938  19.108  24.543   8.240  0.1362 -0.2195 -0.1591
75886W        W18939   5.860  27.525  27.876  0.1020 -0.2501 -0.0466
75887W        W18940  10.379  29.007  18.668  0.3374 -0.1527 -0.2290
75888W        W18941   6.953  33.798   4.557  0.1868 -0.1622  0.0583
75889W        W18942   3.787  28.610   3.237 -0.2378  0.3980  0.0745
75890W        W18943  29.119  33.874   3.612  0.1357 -0.0787  0.3532
75891W        W18944  27.592  34.662   4.962 -0.1404 -0.3316 -0.1302
75892W        W18945  34.329  18.059   2.829 -0.2916  0.2694  0.0212
75893W        W18946   8.118  17.913   4.436  0.0314  0.1635  0.0749
75894W        W18947   5.062  34.596   3.359  0.0077 -0.0437 -0.1622
75895W        W18948  21.311  23.869   9.231 -0.2856  0.1331  0.1920
75896W        W18949  32.236  32.536  27.105 -0.1087 -0.5134  0.2174
75897W        W18950   4.645  28.361  25.024  0.0540  0.0939  0.1624
75898W        W18951  19.721   3.202  10.636 -0.0990 -0.2253  0.2334
75899W        W18952   5.116  23.341   6.771 -0.0520 -0.1961  0.1780
75900W        W18953  11.599  32.718  25.837 -0.0815  0.2004  0.2151
75901W        W18954  32.095   0.725  27.013  0.3516  0.1136 -0.2360
75902W        W18955  28.755  17.205   8.723  0.2557  0.0815  0.2219
75903W        W18956  23.112  31.022   4.202 -0.3184  0.0924  0.2179
75904W        W18957  33.819  28.561   8.395  0.1329  0.0140 -0.1523
75905W        W18958  11.714  31.263   5.080 -0.0823  0.0892  0.1421
75906W        W18959  30.078  18.734   9.727 -0.1679 -0.0434 -0.1186
75907W        W18960  13.075   6.404  27.281 -0.0505  0.1579  0.1963
75908W        W18961   0.036  27.651   9.001  0.0786  0.2412  0.3378
75909W        W18962  34.595  31.254   6.915  0.0933  0.1409  0.0715
75910W        W18963  21.770  26.990   5.810 -0.1909 -0.0874  0.1346
75911W        W18964   8.302  25.022   4.331  0.1041 -0.0872 -0.2807
75912W        W18965   4.079  22.133   3.969 -0.0226  0.0816 -0.0878
75913W        W18966  32.716  19.968   6.583 -0.0264  0.2962 -0.3181
75914W        W18967  12.008  33.659  22.690 -0.3394 -0.0550 -0.2014
75915W        W18968  13.168   4.415   9.747  0.1336  0.0215  0.1668
75916W        W18969   9.028  23.651   7.003  0.1868  0.1255 -0.2208
75917W        W18970  20.620  13.316  27.094 -0.0232 -0.1213 -0.4169
75918W        W18971   1.947  23.299   0.526 -0.1291 -0.0279 -0.2056
75919W        W18972   2.324  24.862   8.416 -0.0761 -0.2493 -0.0363
75920W        W18973  20.535  28.814   3.531  0.0259  0.2036 -0.1494
75921W        W18974  17.282   5.366   4.385 -0.1558 -0.1172 -0.1897
75922W        W18975  15.174  28.218  21.264  0.1520 -0.0684 -0.0623
75923W        W18976  12.716   3.167  28.212  0.1477 -0.2786 -0.6120
75924W        W18977   1.901  19.541   0.039  0.0488  0.1030  0.2129
75925W        W18978  24.402   3.311   8.540 -0.1310  0.3502 -0.0352
75926W        W18979  33.035  24.977   4.528 -0.3395 -0.0491  0.0729
75927W        W18980   1.563   5.494   0.533 -0.0386 -0.0155  0.0862
75928W        W18981   8.260   7.946   6.474  0.0833  0.3079 -0.2022
75929W        W18982   2.356  34.336  28.348 -0.0174  0.1665 -0.1089
75930W        W18983  15.940   7.795   4.574  0.1460  0.0197  0.0130
75931W        W18984   4.277   0.374  24.129 -0.0662 -0.2659  0.0106
75932W        W18985   9.352  31.784  25.712 -0.2708 -0.1723  0.3548
75933W        W18986  31.169  26.274   1.631  0.2926  0.1908  0.0269
75934W        W18987  15.366  25.134  21.191  0.0379 -0.3306  0.0117
75935W        W18988   2.575  34.538  25.686 -0.1119 -0.0265  0.0750
75936W        W18989  18.183  24.090   2.443 -0.0859 -0.1672 -0.1645
75937W        W18990   6.709  17.565   0.503  0.0483  0.0129  0.2255
75938W        W18991  11.989  21.502  21.259  0.1892 -0.1369 -0.3263
75939W        W18992   4.757   0.341   8.357 -0.1903  0.2207 -0.0818
75940W        W18993   2.045   1.500  24.462 -0.2268 -0.1877 -0.0389
75941W        W18994  26.001  25.811   5.282  0.2531 -0.1737  0.1220
75942W        W18995   9.971  16.521   6.736  0.2916 -0.2051  0.0437
75943W        W18996   6.921  31.589   0.113 -0.1280  0.0502  0.1974
75944W        W18997  28.913  28.968   7.750  0.1745 -0.0285  0.2605
75945W        W18998   9.083  34.201   0.179  0.1588  0.1149  0.0904
75946W        W18999   1.617  16.620   1.612 -0.2070  0.2174  0.1785
75947W        W19000   6.031  34.647   0.963 -0.1665  0.0755 -0.1294
75948W        W19001   1.351  14.086   0.808  0.0862 -0.1896 -0.2093
75949W        W19002  34.616  31.238  24.165 -0.1398  0.0186 -0.3992
75950W        W19003  21.606  17.244   1.948  0.1487 -0.1152  0.1214
75951W        W19004  16.077  24.180   6.781  0.1328 -0.0589 -0.3087
75952W        W19005   3.422   4.395   7.166 -0.1310  0.4336  0.3162
75953W        W19006   7.919  30.607  20.752 -0.4538 -0.1001  0.0415
75954W        W19007   5.708  28.947   4.761 -0.0776  0.1054 -0.1113
75955W        W19008  13.034   2.292  16.210  0.0529  0.0484 -0.1678
75956W        W19009  32.651  20.149  22.718  0.0954  0.1350 -0.0348
75957W        W19010  13.064  18.798  23.699 -0.2033  0.0305 -0.3401
75958W        W19011  13.355  26.544   7.757 -0.1004 -0.2039 -0.1348
75959W        W19012  28.155  20.475  26.653 -0.2500 -0.2237  0.1797
75960W        W19013  18.461  25.049  29.037 -0.2747  0.6042 -0.1476
75961W        W19014  13.309  20.668   8.074  0.1802 -0.3260 -0.6531
75962W        W19015   8.912  31.129   0.924  0.3188 -0.1207  0.0303
75963W        W19016  21.100  18.608  18.751 -0.3381  0.1014 -0.0167
75964W        W19017   4.169  16.011   3.546  0.0208 -0.0279 -0.0332
75965W        W19018  11.464  30.599   2.050  0.1269 -0.4571 -0.0792
75966W        W19019  18.282  24.035  18.443 -0.1158 -0.1310 -0.3619
75967W        W19020   0.439  29.214   9.687 -0.0570 -0.0206  0.3201
75968W        W19021   4.560  29.835   3.743 -0.0299 -0.0848 -0.1196
75969W        W19022   4.785  31.061   8.662  0.0098 -0.0862 -0.1013
75970W        W19023   1.441  12.831   3.557  0.2909 -0.1554 -0.0657
75971W        W19024  12.014  13.111  21.133  0.0270 -0.2949  0.0336
75972W        W19025  29.754  20.536  19.772  0.1285  0.0692 -0.3363
75973W        W19026  29.871   0.333   4.644 -0.1235  0.6313  0.3529
75974W        W19027  25.601  26.685   5.247 -0.0665  0.1259  0.1581
75975W        W19028  15.440  31.661   4.574 -0.3147 -0.1011 -0.1296
75976W        W19029   5.393  16.510   3.717  0.3246 -0.2510  0.0387
75977W        W19030   3.508   2.225  22.755 -0.1022 -0.0672 -0.0681
75978W        W19031   8.103  20.227   4.136 -0.1834 -0.1805  0.1664
75979W        W19032  30.985  34.669   9.508  0.3346 -0.1652 -0.0180
75980W        W19033   8.173   6.034   4.208  0.0955 -0.1512 -0.0143
75981W        W19034   5.393   5.652  27.034  0.0787  0.0123 -0.0742
75982W        W19035  28.213  11.680   1.064  0.0120 -0.0685 -0.0149
75983W        W19036   0.102  29.641  25.304 -0.0129 -0.1879  0.0405
75984W        W19037   2.582  12.307   1.362 -0.1827 -0.0987  0.1795
75985W        W19038   1.754   8.630  22.348  0.0005  0.1370  0.1177
75986W        W19039  34.118   6.943   5.856 -0.1391  0.1662  0.0432
75987W        W19040  19.611  20.957  28.089 -0.2245 -0.3366  0.2705
75988W        W19041   0.153  32.574  25.862 -0.1394 -0.0264  0.2485
75989W        W19042   5.342  23.200  17.946  0.2502 -0.0746  0.2501
75990W        W19043  33.796  25.393  25.985  0.0157  0.2158 -0.1278
75991W        W19044   1.935  32.855  18.481  0.2774  0.1287 -0.0843
75992W        W19045   5.390  25.191  15.515  0.1662 -0.2445 -0.2428
75993W        W19046  27.870  33.956   5.650 -0.1427 -0.1182 -0.0456
75994W        W19047  12.244   7.171   8.191 -0.0439  0.0715  0.0959
75995W        W19048  20.331  22.564   6.330 -0.1438 -0.1571 -0.0882
75996W        W19049  29.081  30.572  23.487  0.1164 -0.1000  0.0861
75997W        W19050  28.527  34.522  28.878  0.0647  0.1486  0.3338
75998W        W19051  11.245   0.246   2.886  0.1388 -0.1661 -0.2297
75999W        W19052   5.104   0.094   9.139  0.0510 -0.0172 -0.0298
76000W        W19053   8.510   1.471   9.387  0.0687  0.1078 -0.3398
76001W        W19054   7.527  15.690  22.380 -0.2766  0.1260  0.0323
76002W        W19055   2.039  29.254  22.985 -0.0865 -0.2201  0.2975
76003W        W19056   1.549  34.243   9.396 -0.1031 -0.2097 -0.3267
76004W        W19057  12.051  22.371   0.068  0.1575 -0.2440 -0.0073
76005W        W19058   7.236   3.187   6.009 -0.0851 -0.1585  0.1772
76006W        W19059  19.465  22.182   5.855 -0.0942  0.0452  0.0276
76007W        W19060  11.942  28.647   4.347  0.0331  0.0255 -0.0496
76008W        W19061  32.180  23.220   5.777  0.2512 -0.2386  0.0150
76009W        W19062  25.138  33.081   6.996 -0.1358  0.3651  0.0680
76010W        W19063  11.596  25.322   2.522  0.0044 -0.2862  0.0716
76011W        W19064  11.740  17.261   3.037  0.0522  0.3127  0.0725
76012W        W19065  10.499   8.807  10.686 -0.0061 -0.0604 -0.0518
76013W        W19066  10.527  13.772   6.570 -0.0402 -0.0216 -0.0828
76014W        W19067   9.387  31.408   1.438 -0.0311 -0.1113  0.0357
76015W        W19068  13.705  28.870  28.857 -0.2127  0.1161 -0.0877
76016W        W19069  12.280  30.475   8.156 -0.3394  0.1234 -0.4754
76017W        W19070  21.697  19.546   4.268  0.1299 -0.0960  0.0957
76018W        W19071  12.581  22.764   8.435  0.1808 -0.2337 -0.0898
76019W        W19072  32.636  29.693   4.613  0.0547 -0.0613 -0.0109
76020W        W19073   7.092  22.210  24.874  0.0306 -0.0947  0.0065
76021W        W19074  27.105  26.370   4.241  0.2056  0.1247 -0.0590
76022W        W19075   3.620  19.433   0.807 -0.1728  0.2745  0.3638
76023W        W19076  22.939  24.967  26.735 -0.2223  0.1538 -0.1859
76024W        W19077  33.668   6.933  18.599  0.2585 -0.3481 -0.0405
76025W        W19078  34.259  11.828   9.566 -0.1398  0.1279 -0.0834
76026W        W19079  17.400   1.233   5.740  0.1854  0.2173 -0.0939
76027W        W19080  31.555  33.401   5.660  0.1427  0.0281 -0.1751
76028W        W19081  32.423   8.598   6.679 -0.0311  0.1980  0.2048
76029W        W19082  15.467  18.164   4.715  0.1801  0.0990  0.0012
76030W        W19083   8.099  33.668  23.680  0.2084  0.1723  0.3122
76031W        W19084   1.094  24.308   4.379 -0.2323  0.2610  0.0517
76032W        W19085  13.839  15.468   5.367  0.0659  0.0350  0.3237
76033W        W19086  10.179  33.935   8.863 -0.2671  0.3310 -0.0491
76034W        W19087  17.639  15.120  25.563  0.2978  0.0273 -0.2159
76035W        W19088   9.653  12.119  26.270  0.0060 -0.0621 -0.1135
76036W        W19089  20.295   5.781   5.379 -0.0780 -0.2389 -0.0050
76037W        W19090   0.699  27.756   0.843  0.0208  0.0555 -0.0825
76038W        W19091   7.840  30.176  26.710  0.2176 -0.0463  0.0040
76039W        W19092  12.593   6.094   6.281 -0.0771  0.0279 -0.1174
76040W        W19093   6.328   5.240   2.892  0.0839  0.1602  0.0970
76041W        W19094  30.478  23.738   3.376  0.0559 -0.0952  0.2645
76042W        W19095   0.978  29.078   5.164 -0.0089 -0.1050 -0.0738
76043W        W19096   7.282   6.484   4.618  0.2364  0.0501  0.1441
76044W        W19097   2.708  13.880   4.026 -0.1602  0.1017 -0.3219
76045W        W19098  12.815  28.920   4.565  0.0366 -0.1005  0.0996
76046W        W19099  17.618  34.358  28.818  0.0398  0.0205  0.1527
76047W        W19100  32.304   7.513   4.804 -0.4190  0.0827  0.0687
76048W        W19101  10.655  19.954   8.836  0.1901  0.1950 -0.1935
76049W        W19102  28.604  29.190  26.204  0.0088  0.0565  0.2182
76050W        W19103  34.085  23.418  19.132 -0.0276 -0.2546  0.0541
76051W        W19104   1.890  13.241  16.784 -0.0722  0.2730  0.0524
76052W        W19105  15.473  14.861   7.084 -0.0540 -0.0642  0.1500
76053W        W19106   0.665  33.580  26.030 -0.0550  0.0973 -0.5542
76054W        W19107   7.468  24.648  26.330 -0.2410  0.2263 -0.0485
76055W        W19108  11.204   8.347  27.753 -0.0253  0.0234  0.0482
76056W        W19109  10.317  30.446  28.866  0.1477  0.0142 -0.3011
76057W        W19110  31.666   6.615  15.074  0.0377  0.0678  0.2120
76058W        W19111  12.508   6.041   9.774 -0.0718  0.1425 -0.1607
76059W        W19112   8.820   3.237   6.403  0.0114 -0.0573  0.2282
76060W        W19113  21.519   0.544   0.570 -0.1304 -0.1809  0.1715
76061W        W19114  27.672   5.394  23.619 -0.2107 -0.0212 -0.1465
76062W        W19115  28.436   6.799  21.866  0.2316 -0.0557  0.0534
76063W        W19116   6.517  33.144  10.225  0.1014 -0.2181 -0.3406
76064W        W19117  16.394  33.978   4.530 -0.2626  0.0363  0.2012
76065W        W19118  13.162   7.809  25.923  0.0823 -0.3817 -0.2884
76066W        W19119  12.885   1.409   8.571  0.1797 -0.2285  0.1861
76067W        W19120  31.883  31.947   6.456 -0.3847  0.1004  0.0018
76068W        W19121  30.072   5.741   9.497  0.2527  0.0284  0.1123
76069W        W19122  22.853  31.368  18.633 -0.2716 -0.0732 -0.1804
76070W        W19123   5.046  25.603   5.470 -0.0547 -0.1525  0.0894
76071W        W19124  30.442   5.865   1.619 -0.0682  0.0263 -0.1842
76072W        W19125  12.619  28.668   8.510  0.0412  0.0967 -0.1519
76073W        W19126  10.502  21.685   1.780 -0.0107  0.3061  0.0744
76074W        W19127   1.364   0.270   6.858 -0.0512 -0.1860 -0.3737
76075W        W19128  13.188   0.306   6.971 -0.1804  0.3156  0.1925
76076W        W19129  31.989   8.965  15.878  0.0232  0.2383 -0.0031
76077W        W19130   3.121  33.784  27.534  0.3400  0.0914 -0.1509
76078W        W19131  15.589   3.248   2.316  0.1551 -0.0436 -0.0342
76079W        W19132  17.578  30.822  17.813  0.3004  0.0153  0.0473
76080W        W19133  13.747  18.533   1.137 -0.1942  0.0149  0.1276
76081W        W19134  22.913   6.740   7.541 -0.0675 -0.3152 -0.0117
76082W        W19135   5.764   7.881  10.300  0.0413  0.1094  0.0594
76083W        W19136   0.419  29.893  27.711 -0.2559  0.1858 -0.1686
76084W        W19137  33.864   8.806   4.107 -0.0236 -0.1045  0.0921
76085W        W19138  18.706  27.460   0.144  0.0432 -0.1792 -0.3609
76086W        W19139   2.653  26.239   9.131  0.1887  0.3050 -0.1902
76087W        W19140  33.295  32.103   6.698 -0.0075  0.0269  0.0571
76088W        W19141  16.528  32.672   6.188 -0.2264  0.1341  0.1821
76089W        W19142   0.808  11.812   7.701  0.0457 -0.1245 -0.1901
76090W        W19143  16.212  27.087   4.699 -0.1819  0.0655  0.1677
76091W        W19144  22.890  25.540  14.990  0.0740 -0.1059 -0.1708
76092W        W19145  13.419  34.386   3.838  0.0121  0.1253  0.1209
76093W        W19146  12.715  34.487   7.521  0.2525  0.0177  0.0901
76094W        W19147  16.360  14.765  24.503 -0.2906  0.3338  0.4625
76095W        W19148  26.175   5.307   9.329 -0.1482  0.2625  0.1753
76096W        W19149  14.150  34.056  22.030 -0.0044 -0.1235  0.2061
76097W        W19150  21.283   9.584   4.834 -0.0642 -0.1184 -0.2055
76098W        W19151  12.054   1.974   6.465  0.0329  0.0448  0.3384
76099W        W19152  18.610  16.991   8.226 -0.0846  0.1113  0.1850
76100W        W19153  33.137  23.482   2.148 -0.0775 -0.2872  0.2461
76101W        W19154   7.809  22.987  20.795 -0.2771 -0.2329 -0.0099
76102W        W19155  17.434  19.625  24.673  0.1148  0.3041 -0.0329
76103W        W19156  31.486  24.624   4.820  0.1881  0.1392  0.0170
76104W        W19157  21.919  24.053  27.979  0.0750 -0.2538  0.0658
76105W        W19158  13.141  27.124  25.424  0.0618  0.4199 -0.1410
76106W        W19159  14.244  32.841  14.651 -0.2364 -0.1939  0.1890
76107W        W19160   8.246   8.494  20.969 -0.3633 -0.0041 -0.4917
76108W        W19161  16.265  28.998  22.221  0.1441  0.0047 -0.1755
76109W        W19162  30.342  30.855   5.697 -0.1161  0.1784 -0.0265
76110W        W19163   2.177  28.932   0.692  0.0960 -0.1384 -0.0067
76111W        W19164  28.396  23.383   7.416 -0.3188 -0.0950  0.0625
76112W        W19165   2.804   8.259  28.865  0.2661  0.2925 -0.0356
76113W        W19166   9.650  21.264  17.210 -0.1450 -0.2057  0.0805
76114W        W19167  21.687   4.956   3.570 -0.0662  0.1906 -0.0548
76115W        W19168   7.618  31.731   7.213  0.0890 -0.3987 -0.0272
76116W        W19169   6.615   9.041  21.196  0.0059 -0.0929 -0.0794
76117W        W19170  13.876  29.116  25.153  0.0559 -0.1828 -0.3016
76118W        W19171  28.731  26.321   2.432 -0.3009  0.1280  0.1619
76119W        W19172  18.343  23.403   5.260  0.2446 -0.3265 -0.0324
76120W        W19173  17.349  33.664   7.880  0.1483  0.0422  0.1468
76121W        W19174  30.134   4.508   7.059 -0.1032  0.0245 -0.0419
76122W        W19175   3.166  25.342   8.163 -0.0354 -0.1542  0.1189
76123W        W19176   1.091  34.363  17.858  0.1627  0.1766  0.0734
76124W        W19177  32.442  24.277  17.322  0.3065 -0.0612  0.1138
76125W        W19178   4.667   6.576  15.895 -0.2988 -0.0496 -0.2109
76126W        W19179  32.420   5.957  21.941 -0.2843 -0.0534  0.1042
76127W        W19180  17.466  24.480  21.852 -0.1528  0.0276 -0.0432
76128W        W19181   1.832  31.680   7.136 -0.0571 -0.0675 -0.0892
76129W        W19182  13.446  26.526  25.975  0.2085  0.2022 -0.0682
76130W        W19183  30.511  25.345   4.624 -0.0520 -0.0364  0.3571
76131W        W19184  15.372  20.609  21.252 -0.1526 -0.2749  0.3170
76132W        W19185  26.624  20.314  18.553  0.1209 -0.0567 -0.4035
76133W        W19186  29.683   6.669   2.169 -0.0436 -0.2051 -0.1530
76134W        W19187  33.264   5.320  26.223 -0.0799 -0.0415  0.2308
76135W        W19188  13.318   8.776  10.240 -0.3919 -0.2092 -0.0153
76136W        W19189   3.607  32.606   2.679 -0.0925 -0.0953 -0.3334
76137W        W19190  12.071  24.608  29.108 -0.0653  0.0974  0.2419
76138W        W19191  28.326   0.911   8.597 -0.2022  0.0373  0.2436
76139W        W19192  10.981  11.032   4.943 -0.0213 -0.2326  0.0534
76140W        W19193  15.379  31.435  26.920  0.0471  0.1289 -0.3977
76141W        W19194   4.212  22.524   4.411 -0.0954 -0.2100 -0.0259
76142W        W19195   0.677  20.148  26.458 -0.0231  0.1996  0.2042
76143W        W19196  15.870   6.344  28.872 -0.0047 -0.0977  0.0396
76144W        W19197  32.123   2.474   4.660 -0.0411 -0.2962 -0.4253
76145W        W19198  17.146   2.373   5.745  0.1377 -0.1594  0.1056
76146W        W19199  14.544   7.791  27.041  0.0293  0.1176  0.1927
76147W        W19200  23.241  20.282   9.397 -0.0965 -0.2170 -0.0545
76148W        W19201   4.056  34.304  28.237 -0.1036 -0.1061 -0.1813
76149W        W19202  12.247   3.827  16.608  0.1486  0.0948 -0.0745
76150W        W19203   3.003  24.651   5.764  0.3929  0.1183 -0.1984
76151W        W19204  11.967  26.657  16.034  0.0921  0.3662  0.0464
76152W        W19205  21.000  26.471  27.931  0.1461  0.0054 -0.0944
76153W        W19206   2.407  30.787   8.207  0.2908 -0.1512  0.0849
76154W        W19207  31.337   5.648   9.843  0.0410  0.1715 -0.0626
76155W        W19208   4.567  16.057   2.262 -0.0113  0.1539  0.2418
76156W        W19209  19.616  21.524   6.945  0.2353 -0.1333 -0.0247
76157W        W19210  10.016  34.641   6.730 -0.0457 -0.0724  0.0330
76158W        W19211  34.177   0.805   3.431 -0.2220 -0.3166  0.2137
76159W        W19212  13.984   4.380   7.526  0.0190  0.1435 -0.0491
76160W        W19213  23.880  26.387   6.494  0.0203 -0.0198 -0.0535
76161W        W19214   2.021   8.309  26.158  0.0267 -0.1175 -0.0493
76162W        W19215  25.391  32.645  27.826 -0.1038 -0.5124  0.2256
76163W        W19216   0.485  14.007   6.381 -0.1308  0.2917  0.3516
76164W        W19217   1.863  33.492   5.479 -0.0178 -0.1381 -0.0222
76165W        W19218   4.116   2.240   3.655 -0.0320  0.0683  0.0199
76166W        W19219  22.611  20.656   1.336 -0.3791 -0.0919  0.1379
76167W        W19220   9.330  13.091  28.249 -0.1386  0.3507 -0.0359
76168W        W19221   0.851  28.534   0.810 -0.2525  0.1725 -0.4943
76169W        W19222   8.170   7.002  27.876  0.0988 -0.1478  0.0260
76170W        W19223  26.994  30.293  22.034 -0.1730 -0.2221  0.2033
76171W        W19224  32.918   7.303   6.556 -0.1556  0.0912 -0.2433
76172W        W19225  11.788  23.145   7.464 -0.4319  0.1800  0.1354
76173W        W19226  28.637  22.271   0.228 -0.2271  0.1296  0.2389
76174W        W19227  16.840  32.198  27.536 -0.0692 -0.0509 -0.0166
76175W        W19228  26.304  31.361  21.960 -0.3516 -0.1095 -0.0776
76176W        W19229   3.561   0.551   0.940 -0.1159 -0.0180 -0.1059
76177W        W19230   1.483  19.029   0.607  0.1527  0.1659  0.2288
76178W        W19231  12.464  33.242  28.720 -0.0385 -0.0269  0.0768
76179W        W19232  13.068   1.838   5.135  0.1954 -0.2970 -0.1740
76180W        W19233   9.920  32.486   9.705  0.1193 -0.0000  0.3568
76181W        W19234  29.647  34.511  19.018  0.1270  0.1979  0.2685
76182W        W19235  16.845  29.462   7.518  0.0327  0.0119  0.0141
76183W        W19236  29.852   6.886  15.926  0.1285 -0.5256 -0.0707
76184W        W19237   7.262  24.149  28.393 -0.0909 -0.0734  0.0091
76185W        W19238   7.333   3.749   5.203  0.1142 -0.1298 -0.0626
76186W        W19239   4.492  18.815   6.850  0.0637  0.0062  0.2717
76187W        W19240   5.001  33.333  13.648  0.0749 -0.2388  0.0015
76188W        W19241  17.318  30.527   4.769  0.1482  0.2780  0.0868
76189W        W19242  28.092  11.047   8.871  0.1991 -0.3350 -0.0227
76190W        W19243  25.112  17.988   5.024 -0.1567  0.0015 -0.0358
76191W        W19244  34.206  20.650   4.724  0.0879  0.2276 -0.2047
76192W        W19245  19.121  17.063   7.984  0.1898  0.1248  0.0315
76193W        W19246   4.093  30.563   0.997 -0.0335  0.0404 -0.0120
76194W        W19247   7.081  31.913  20.352  0.0947 -0.0661  0.1709
76195W        W19248  27.007  32.528  17.955 -0.0213 -0.0459 -0.1223
76196W        W19249   5.771  29.648  25.464 -0.0737 -0.1623 -0.3387
76197W        W19250  33.629  32.879   0.258  0.0356 -0.1639 -0.0566
76198W        W19251  11.538  32.537  27.623 -0.0489 -0.1177  0.1256
76199W        W19252  19.125  10.010   1.512  0.2342 -0.0213 -0.1258
76200W        W19253  12.783  32.605   7.516  0.0899  0.1743  0.1848
76201W        W19254  24.945  27.568   8.153 -0.1856 -0.0579 -0.1179
76202W        W19255   5.012   9.161   8.963  0.0276 -0.0375  0.0140
76203W        W19256  26.888  20.184   7.448 -0.0341 -0.0889 -0.2536
76204W        W19257   1.616   2.021   5.985 -0.2482 -0.0423  0.0155
76205W        W19258   1.505  31.591   2.484  0.2398 -0.1128 -0.2090
76206W        W19259  14.080  30.690   8.126 -0.1934 -0.3115  0.0439
76207W        W19260   1.252  33.888   2.543 -0.0345 -0.0457 -0.2346
76208W        W19261  29.722   0.687  27.573 -0.1861  0.0766 -0.2110
76209W        W19262  14.520   9.082  22.134  0.0313  0.4550  0.1244
76210W        W19263  12.650  24.027  19.435  0.0410 -0.0122  0.2475
76211W        W19264   8.668   4.369  24.361 -0.3692  0.2695  0.0943
76212W        W19265   0.298   2.183  14.845  0.0794 -0.1372  0.0821
76213W        W19266  23.272   2.010   7.470  0.0665 -0.0378 -0.0465
76214W        W19267   7.647  14.273   0.685  0.0230 -0.0794 -0.2255
76215W        W19268   0.029  28.778   3.201 -0.0374 -0.2015 -0.3759
76216W        W19269  29.194  10.880  21.181 -0.1135 -0.0792  0.0745
76217W        W19270   2.190  32.153  23.132  0.0830  0.1574 -0.1098
76218W        W19271   2.424  31.418   5.270  0.0371 -0.2201 -0.0013
76219W        W19272  22.418  33.679  23.222 -0.0416 -0.4714 -0.1109
76220W        W19273   3.897  21.040   4.595 -0.2282 -0.0142  0.0145
76221W        W19274  10.312  17.567   1.643  0.0052 -0.1671  0.2614
76222W        W19275  14.106  14.121  24.606 -0.2895  0.0460  0.2158
76223W        W19276   7.682  17.168  25.812 -0.2457  0.0352  0.1525
76224W        W19277  34.642   3.379  24.845 -0.2761 -0.1303 -0.0065
76225W        W19278  25.032  26.286  24.025 -0.0492  0.1984 -0.2467
76226W        W19279   8.065  30.679   2.661  0.2785  0.0053  0.0650
76227W        W19280   3.075   5.930  26.544 -0.0040  0.1280  0.1636
76228W        W19281   8.960  33.928   1.576 -0.3174 -0.1271  0.3706
76229W        W19282   9.579   1.814   0.072 -0.0238  0.2622 -0.2762
76230W        W19283  34.647   1.006   2.162  0.1439 -0.0686 -0.1551
76231W        W19284   9.597  30.350   6.721 -0.4640  0.1330  0.2682
76232W        W19285  16.454  11.741   5.486 -0.0395  0.1199 -0.3184
76233W        W19286   8.894  31.981   2.912  0.0788 -0.1578  0.1323
76234W        W19287   0.274   0.068  23.695 -0.1512  0.0367 -0.1468
76235W        W19288  29.631   6.209  27.791 -0.2013  0.3045 -0.0469
76236W        W19289  17.594  29.592   6.003  0.3571 -0.0396  0.2522
76237W        W19290  28.688  28.811   2.081 -0.0369 -0.0465  0.0923
76238W        W19291   4.512  27.144   1.186  0.0041  0.1269 -0.1218
76239W        W19292   1.596   5.500  27.044  0.0953  0.1655 -0.0583
76240W        W19293   4.776   5.427   0.457 -0.3101  0.1125  0.2951
76241W        W19294  20.561  15.005  19.086  0.0265  0.0111  0.1715
76242W        W19295  29.444  27.395   2.526  0.4882 -0.0164 -0.2280
76243W        W19296  32.098   6.583  17.679 -0.0008 -0.1738  0.0005
76244W        W19297  15.055  34.079  23.088 -0.1694  0.0988  0.1160
76245W        W19298   9.423   1.429  22.017  0.0855 -0.2508  0.2131
76246W        W19299  31.946   5.334   6.926 -0.0053  0.0096  0.1113
76247W        W19300  30.217  32.290   5.574 -0.0342 -0.2433  0.2057
76248W        W19301  24.707   5.320   7.743 -0.2813  0.1102 -0.0935
76249W        W19302  31.152  30.636  25.135 -0.2254 -0.2571 -0.2507
76250W        W19303   1.933   7.091   7.498  0.2517 -0.1878 -0.1536
76251W        W19304   0.912  21.325  15.013 -0.1789  0.0066  0.4745
76252W        W19305  22.267  23.168   5.590 -0.0868  0.4716  0.2614
76253W        W19306  24.552  24.590  17.533 -0.0371 -0.2103 -0.2711
76254W        W19307   8.755  16.135   0.771 -0.4856 -0.0021 -0.1726
76255W        W19308   8.063  34.199   8.246  0.2684 -0.1719  0.1062
76256W        W19309  21.478  22.868   5.917 -0.1111 -0.2137 -0.2485
76257W        W19310  14.536   5.261   2.487 -0.1940 -0.0794 -0.1634
76258W        W19311  34.497   9.869   8.348  0.2485  0.1057  0.0199
76259W        W19312  33.433  32.086   5.263 -0.3945  0.0020 -0.0277
76260W        W19313  30.745  30.878   3.455 -0.3108  0.1779 -0.1150
76261W        W19314  32.256  11.323  26.357  0.1360  0.1503  0.0400
76262W        W19315  31.735  25.879   8.236 -0.3279  0.0205 -0.2851
76263W        W19316   1.630  33.095   5.604 -0.1810  0.1008 -0.0983
76264W        W19317  31.977  22.763  23.253 -0.0814  0.0687 -0.0554
76265W        W19318  26.357  10.535   1.301 -0.0478  0.1223  0.2303
76266W        W19319  16.470  26.724  28.577 -0.0681  0.0221  0.0151
76267W        W19320   2.012  24.492   9.713 -0.0381 -0.3108 -0.3170
76268W        W19321  13.357  22.017  25.898  0.0163  0.0401  0.2117
76269W        W19322  28.924   0.709  27.697  0.1277  0.0470  0.1558
76270W        W19323   7.914  24.552   6.661 -0.0248 -0.3628 -0.1554
76271W        W19324  31.202  32.221   6.525  0.0595  0.0856 -0.1354
76272W        W19325  21.648  29.152  28.243  0.3205  0.0429 -0.0825
76273W        W19326   2.606  21.081   7.412 -0.0720 -0.1497 -0.1328
76274W        W19327   8.155  27.249   5.488 -0.0341  0.0681  0.1395
76275W        W19328  11.139   6.965   3.717 -0.3879 -0.0132  0.0102
76276W        W19329  28.733  23.116  19.319  0.0230  0.2996  0.0639
76277W        W19330  18.830  24.383   9.589  0.0833 -0.0329 -0.1069
76278W        W19331   3.767   0.140  28.442  0.0957 -0.0744 -0.0415
76279W        W19332   6.258   1.826   8.099  0.0516 -0.1042 -0.1345
76280W        W19333  10.268  31.249  14.709 -0.2825 -0.0231 -0.2256
76281W        W19334   5.431  27.492   0.513 -0.2254 -0.1453  0.0847
76282W        W19335   2.414  30.006  24.936  0.0679  0.1776  0.0674
76283W        W19336  31.744  31.682   8.185  0.0023  0.1085 -0.1553
76284W        W19337  12.358  28.298   7.044  0.2379  0.0463  0.0551
76285W        W19338   7.692   1.393   3.168 -0.1050  0.1420 -0.0727
76286W        W19339  19.489  34.430   1.759 -0.0605 -0.2525 -0.3838
76287W        W19340  17.179  30.737  23.905  0.4474 -0.0942 -0.1026
76288W        W19341  11.843  30.275   8.438 -0.1220  0.3558  0.0390
76289W        W19342  24.790  14.969  28.747 -0.0365 -0.3472  0.0607
76290W        W19343   2.533  18.937  22.586  0.1365 -0.3766 -0.0547
76291W        W19344  26.125  19.857   7.918 -0.1075  0.2598 -0.2666
76292W        W19345   2.732  21.170  25.771 -0.0524 -0.0522  0.0839
76293W        W19346   7.986   8.772   5.154  0.2146 -0.3659 -0.3152
76294W        W19347  28.648   1.123   8.914  0.0890  0.0989 -0.0078
76295W        W19348   1.225  22.078  23.184 -0.1511 -0.0205 -0.0397
76296W        W19349   9.722  30.133   3.483  0.1217 -0.0570 -0.0491
76297W        W19350  33.805  26.774   4.220  0.0384 -0.0070  0.2759
76298W        W19351  10.934  28.631  23.837  0.1621 -0.0539  0.3433
76299W        W19352  25.075  30.127  20.002  0.5219  0.1889 -0.1130
76300W        W19353   6.147  32.033  26.670  0.0953 -0.0073  0.0863
76301W        W19354  28.956   7.229  28.453  0.1260 -0.2434 -0.0682
76302W        W19355  12.101  10.219  14.918 -0.0094  0.2183 -0.0853
76303W        W19356   8.563  32.775  27.035  0.2087  0.1187 -0.3441
76304W        W19357   2.534  27.012   8.582  0.1577  0.1619 -0.4041
76305W        W19358   8.949  20.041  26.761 -0.0045  0.0423 -0.0376
76306W        W19359  15.318  27.547   0.454 -0.1794 -0.1019 -0.2976
76307W        W19360  12.159  30.753   7.591  0.0174 -0.0324  0.4457
76308W        W19361  27.814  27.453   6.976  0.0807  0.0320 -0.1861
76309W        W19362   0.490   1.752  26.467 -0.1020 -0.2244 -0.0802
76310W        W19363  33.275   6.644   7.120 -0.0040 -0.2652 -0.1144
76311W        W19364   7.831  13.695   9.980  0.2960  0.3578 -0.0194
76312W        W19365   3.002  16.819   7.572 -0.2637  0.1618  0.2603
76313W        W19366   5.672  33.797   8.713  0.0723  0.3334 -0.0777
76314W        W19367   5.608  23.376   7.130  0.2717  0.1773  0.0102
76315W        W19368  15.470  28.188  25.145 -0.0826  0.2308 -0.3071
76316W        W19369   6.728  27.674  17.467  0.3864 -0.0646  0.1564
76317W        W19370   8.205  24.635   1.360 -0.0666  0.0654 -0.4321
76318W        W19371  29.788   1.981  25.539  0.1489  0.0633  0.1128
76319W        W19372  31.862  32.778   4.360 -0.3013  0.2236  0.2152
76320W        W19373  30.228  25.737   8.249 -0.1222 -0.2117  0.0322
76321W        W19374   0.498  29.905   1.438 -0.2505  0.0983 -0.0844
76322W        W19375  11.037  34.427   6.994  0.3703  0.2872  0.1776
76323W        W19376   9.414  10.823   3.297 -0.2731  0.3467 -0.0367
76324W        W19377   1.758   1.478   2.395  0.0351  0.2107 -0.0470
76325W        W19378  17.297  30.680   7.271  0.2495  0.4385 -0.1018
76326W        W19379   5.760  26.923  26.228  0.1294  0.1726 -0.1100
76327W        W19380  27.118  28.122  16.601  0.0354 -0.1686  0.3098
76328W        W19381   1.392  27.929   3.876 -0.2260 -0.1019 -0.0959
76329W        W19382   5.913   7.368  26.442  0.0433 -0.1750  0.1978
76330W        W19383  24.825  25.252  27.375 -0.3092 -0.2359  0.1299
76331W        W19384   1.910  11.697   5.098 -0.0406 -0.1302  0.2777
76332W        W19385  34.212  26.974  15.387  0.3376  0.1056  0.0306
76333W        W19386  27.947  27.975  28.285  0.1883 -0.0386  0.1670
76334W        W19387  14.247  33.188  26.688  0.0104  0.2160 -0.3616
76335W        W19388  12.429  33.207   6.116  0.3907  0.1182  0.2179
76336W        W19389   6.490  31.502   5.134 -0.1927  0.0974  0.0794
76337W        W19390  14.059  34.049  27.482  0.0467  0.0570  0.1243
76338W        W19391  32.481   3.108   4.234 -0.0695 -0.0547 -0.0667
76339W        W19392  12.448  10.017   4.714  0.0939 -0.0638  0.0581
76340W        W19393  12.137  21.936   2.714  0.0585 -0.1704 -0.1228
76341W        W19394   1.461  33.157   7.066  0.2622  0.2559 -0.2412
76342W        W19395  13.638   7.470  28.325 -0.0645 -0.1779  0.0986
76343W        W19396  27.590  29.356   2.694 -0.3858  0.2361 -0.0432
76344W        W19397  33.568  20.581  28.874 -0.2197  0.1096 -0.0994
76345W        W19398  12.695  11.709  22.660  0.0057 -0.2608  0.0142
76346W        W19399   2.321  25.325   8.346 -0.1479 -0.0210  0.0050
76347W        W19400  13.229   6.382   2.850  0.1719  0.1200  0.0441
76348W        W19401  19.339   4.112   4.342  0.2232  0.3545  0.0825
76349W        W19402  10.073  16.510  28.626 -0.0330 -0.0018 -0.2486
76350W        W19403   6.894  27.038   2.671 -0.0956 -0.0291 -0.1080
76351W        W19404   3.920  34.344   4.793 -0.0616  0.0547  0.1242
76352W        W19405  29.166   9.947  18.359  0.1908 -0.1515 -0.0218
76353W        W19406  22.786   2.081  28.124 -0.0516 -0.1551 -0.0933
76354W        W19407  13.952  23.018   3.076  0.1525  0.1335  0.3682
76355W        W19408   5.920  31.819  23.210  0.0078 -0.1843  0.1023
76356W        W19409  31.457  33.407   5.144 -0.1122  0.0270  0.1099
76357W        W19410   5.565   1.851   1.563 -0.0504  0.1861 -0.2370
76358W        W19411  23.706  23.338  18.001  0.1255  0.4025 -0.0144
76359W        W19412  15.003   8.298   5.955  0.0899 -0.2720  0.0598
76360W        W19413  10.539  32.307  28.833 -0.1460 -0.0855  0.0424
76361W        W19414   6.623  11.369   4.646  0.4228 -0.1903  0.0141
76362W        W19415   7.444  13.964   7.859  0.0361 -0.0181 -0.0555
76363W        W19416  32.832  33.234   5.991 -0.0758  0.0773 -0.0339
76364W        W19417   2.236  17.148   8.332 -0.6033 -0.3036  0.3509
76365W        W19418  34.417   5.195  17.626 -0.2089 -0.1858  0.0123
76366W        W19419  15.924   1.107  24.209  0.0138  0.3392  0.1718
76367W        W19420  16.941  24.913  19.664  0.1234  0.1927  0.0672
76368W        W19421   3.329  10.259  24.031 -0.0852  0.1597 -0.1384
76369W        W19422   8.838  30.121   3.754  0.0404 -0.0153  0.0373
76370W        W19423  33.375   7.446   2.209 -0.1450  0.0348  0.2122
76371W        W19424   0.258  31.653   4.652 -0.2602 -0.3033 -0.0071
76372W        W19425   5.676   2.165   3.798 -0.0491  0.1080 -0.1248
76373W        W19426  10.770  21.153   7.792  0.0620 -0.0670 -0.0250
76374W        W19427  24.916   0.875   8.548 -0.0670 -0.1997  0.3671
76375W        W19428  16.200  28.970  23.598 -0.0721 -0.1729 -0.0354
76376W        W19429   5.663  30.007  27.090  0.0506  0.0036  0.2110
76377W        W19430  23.971  20.643   2.649 -0.2878 -0.2190  0.1651
76378W        W19431  30.305  27.172  22.948 -0.0676  0.2234 -0.0481
76379W        W19432  30.387  22.655   0.755  0.0800  0.0126 -0.1288
76380W        W19433   0.401  27.720   2.190  0.0704 -0.1893  0.0896
76381W        W19434  12.358  16.465   6.773 -0.1256 -0.0576 -0.0950
76382W        W19435  11.481  31.543   2.833 -0.0098 -0.0369 -0.3640
76383W        W19436  22.620   8.132  24.019 -0.1082 -0.2235 -0.1626
76384W        W19437  24.138  31.525   7.177 -0.2249 -0.1628 -0.3116
76385W        W19438  10.995  27.976   3.633  0.0588 -0.0422  0.1590
76386W        W19439  22.999   0.303  21.940 -0.0930 -0.0411 -0.0933
76387W        W19440   3.905   0.825   3.909  0.0021 -0.0911 -0.3090
76388W        W19441  14.455   0.454  25.237  0.0170 -0.1651 -0.3095
76389W        W19442  14.372   5.621   5.054  0.1635  0.2111  0.1156
76390W        W19443  17.092   3.633   6.948  0.0466 -0.2041 -0.3192
76391W        W19444  15.929   1.084  19.933  0.1416  0.1431  0.0369
76392W        W19445   4.614  23.516  25.180 -0.1569 -0.0324  0.0811
76393W        W19446  23.619  29.764  10.450 -0.0402  0.1889 -0.1560
76394W        W19447  28.744  29.677  27.642  0.2665  0.1631  0.1490
76395W        W19448  26.223   3.960  15.047  0.1105  0.1741  0.0398
76396W        W19449  13.204   5.524   2.205 -0.2485  0.0237 -0.1511
76397W        W19450   9.197   7.571   8.816  0.1794  0.0326 -0.2917
76398W        W19451  23.381  28.627   4.765  0.2259 -0.1666  0.3779
76399W        W19452  11.040  29.235   1.057  0.2103 -0.1461 -0.0665
76400W        W19453   6.782  32.101  15.743  0.2533  0.1536 -0.0848
76401W        W19454  11.579  21.771  25.886 -0.0444  0.2873  0.1348
76402W        W19455  22.810   4.836  16.721 -0.0844 -0.5160  0.0719
76403W        W19456  14.230  30.258   4.529 -0.4759  0.2101  0.1103
76404W        W19457  34.577  29.873   8.747  0.3019 -0.1104 -0.1814
76405W        W19458  31.451  31.998   5.642 -0.0751  0.2462  0.2018
76406W        W19459   0.705  21.296   6.339 -0.1819 -0.0001 -0.0057
76407W        W19460  10.520  24.631   3.986 -0.0935  0.0592 -0.1633
76408W        W19461  33.348  30.795   4.091  0.0785  0.1246 -0.2783
76409W        W19462  24.293  24.399   6.372  0.0663  0.1521  0.0325
76410W        W19463  30.087  22.227   1.419  0.0683 -0.3134 -0.1086
76411W        W19464   8.604  19.242   7.169  0.4702 -0.1038  0.2559
76412W        W19465  22.829  22.285   2.950 -0.1926 -0.0486  0.1400
76413W        W19466  30.524  33.555   8.703 -0.0126  0.0793  0.2651
76414W        W19467   0.972   4.725   0.728  0.2912 -0.1026 -0.1368
76415W        W19468   4.344  22.796   5.518  0.2330  0.0488  0.0576
76416W        W19469  17.610  19.128   5.274  0.1728 -0.0447 -0.0435
76417W        W19470   8.115  14.470  26.124  0.3559 -0.0414 -0.2317
76418W        W19471   5.076  27.012   1.877  0.2974 -0.0514 -0.2168
76419W        W19472  19.530  13.672  13.541  0.0098 -0.0464 -0.2937
76420W        W19473  33.140   0.150  28.658  0.0456 -0.2124 -0.2445
76421W        W19474  31.222  30.391  16.694 -0.3072 -0.0432  0.0951
76422W        W19475  23.877  31.008   8.671 -0.0035 -0.1308  0.2050
76423W        W19476  11.377  28.010   1.755  0.2949  0.2956  0.0843
76424W        W19477   9.040  24.906   0.283 -0.0937 -0.2695  0.3185
76425W        W19478  10.534  30.026   3.252  0.2392 -0.1910 -0.2005
76426W        W19479   5.135  26.852  21.977  0.2135 -0.0900 -0.0486
76427W        W19480  24.559  25.178  28.572  0.3123 -0.0138 -0.3424
76428W        W19481   9.579   1.242  21.514  0.0624 -0.3065 -0.0431
76429W        W19482   7.419   7.544  23.006 -0.0832  0.3036 -0.1808
76430W        W19483  34.019   5.990   3.900  0.1178  0.0154  0.0356
76431W        W19484  17.709  23.389  25.079 -0.1209  0.0213  0.2550
76432W        W19485  15.477   7.432  11.267  0.0410  0.0809 -0.1506
76433W        W19486  12.825  29.183  26.781  0.3356  0.0592  0.2403
76434W        W19487   3.186  28.711   3.997  0.0782  0.0586 -0.0226
76435W        W19488  19.918  21.749  22.846 -0.1160  0.0942 -0.1720
76436W        W19489   8.543  34.675   7.474 -0.1669 -0.0373  0.0456
76437W        W19490   0.250   3.525   0.166  0.2257 -0.2259  0.2235
76438W        W19491  22.441  33.339   5.925 -0.2001 -0.1594  0.0394
76439W        W19492  27.281  20.884   2.020 -0.0043 -0.1794  0.2674
76440W        W19493   6.956  31.241   7.577 -0.1893  0.1029 -0.0772
76441W        W19494  21.063  30.042   3.177  0.3465 -0.0686 -0.0801
76442W        W19495  18.565  31.137  26.503  0.0049  0.2594  0.6027
76443W        W19496  17.807   6.502   9.002  0.1118 -0.2199 -0.1964
76444W        W19497  13.462   7.995  24.984 -0.0243 -0.0701  0.2854
76445W        W19498   4.580  23.061   8.019  0.1017 -0.0052  0.1112
76446W        W19499   1.971   5.734   8.911 -0.1912  0.2723  0.1488
76447W        W19500   9.895  24.517   2.153  0.1559  0.1571  0.0624
76448W        W19501   2.619  28.976   4.046  0.1761 -0.1296 -0.0643
76449W        W19502   2.443  30.107   1.828 -0.0154  0.0147  0.5398
76450W        W19503   3.255  33.368   8.435 -0.0558 -0.0707 -0.0922
76451W        W19504  30.371  30.327   6.957 -0.3141 -0.2707  0.0144
76452W        W19505  30.219  18.466   7.352 -0.3246  0.1236  0.1299
76453W        W19506   9.973  13.929   6.570  0.0209  0.0406 -0.1503
76454W        W19507   0.213  28.886   6.706  0.3218 -0.1419 -0.2379
76455W        W19508  19.635  27.654  25.621 -0.1939  0.1271  0.2372
76456W        W19509  18.268  32.098   4.358 -0.0948 -0.2584 -0.0305
76457W        W19510   3.676  25.323   3.527 -0.1591  0.1539  0.2772
76458W        W19511  33.971   6.776  27.606  0.3254 -0.1387 -0.1814
76459W        W19512  34.506   0.537   4.208  0.2153 -0.4091  0.0582
76460W        W19513   1.547  28.261   1.357 -0.0426 -0.0114  0.2072
76461W        W19514   4.196  12.630  28.278  0.2227  0.0142  0.0592
76462W        W19515  24.775  31.375  27.958 -0.0452  0.0253  0.0937
76463W        W19516   8.888   0.093  20.277 -0.1116 -0.0611 -0.1208
76464W        W19517   9.867   1.686   7.052  0.2399 -0.0662 -0.3026
76465W        W19518   2.271  28.080  25.250  0.0227  0.2707  0.1240
76466W        W19519  34.406  28.918  16.293  0.0425  0.1014  0.1333
76467W        W19520   0.877  20.560   5.707 -0.3190  0.1987  0.0368
76468W        W19521  15.515  18.842  23.265 -0.4250  0.0524  0.0274
76469W        W19522  31.248   1.061  29.188 -0.1416 -0.1869  0.0187
76470W        W19523   9.228   6.678   9.650 -0.0602  0.0320  0.1730
76471W        W19524   1.168  11.583   0.505 -0.1693 -0.0325  0.1745
76472W        W19525   7.965  28.191   0.431  0.1350 -0.0036  0.3509
76473W        W19526   8.887  26.240  18.659 -0.3169  0.1556 -0.0382
76474W        W19527   9.337   1.805   8.571  0.1045  0.0270  0.3398
76475W        W19528  33.378  19.348   8.228 -0.2405 -0.0421  0.1964
76476W        W19529   5.469   4.709   9.429  0.0116  0.2004 -0.2597
76477W        W19530  17.459   8.138   5.285 -0.0307  0.3151  0.2284
76478W        W19531   6.413  23.788  24.728  0.3264 -0.3319  0.1677
76479W        W19532   9.861  20.149  25.739  0.0057 -0.0933 -0.0420
76480W        W19533  21.226  24.938   1.377 -0.2253 -0.2633  0.0099
76481W        W19534  18.883  33.509  25.063  0.2381  0.0674 -0.1341
76482W        W19535  30.874  34.456   0.156 -0.0266 -0.1838 -0.1524
76483W        W19536   9.940  28.246   1.086 -0.2602  0.1644 -0.1194
76484W        W19537   5.943   3.852  22.572 -0.1273 -0.1035 -0.2292
76485W        W19538  21.891   2.153   1.484 -0.4154  0.0508  0.0448
76486W        W19539  10.231   2.149   6.788  0.3406  0.2907  0.0532
76487W        W19540  29.693   3.443  27.757  0.2786 -0.0047 -0.1315
76488W        W19541  13.137   4.332  24.336  0.0203 -0.0033 -0.0147
76489W        W19542  15.200  26.505   2.734 -0.0291  0.2062 -0.1637
76490W        W19543  11.048  14.009   4.745  0.0558 -0.2944  0.1023
76491W        W19544  23.315  28.395   6.950 -0.0621 -0.2382 -0.1577
76492W        W19545  12.011  30.471   3.395  0.2074  0.0867  0.3502
76493W        W19546  28.394  18.956   3.569  0.0965  0.2232  0.2059
76494W        W19547  14.467  18.672   2.722 -0.1453 -0.0697 -0.1503
76495W        W19548  26.363  28.661  25.285  0.2902  0.0314  0.0108
76496W        W19549   1.647   7.530  28.945 -0.0204 -0.0992  0.0679
76497W        W19550  34.121  27.991   4.899  0.1365  0.0709  0.1139
76498W        W19551   1.496   0.050   5.549 -0.0338 -0.3734 -0.0841
76499W        W19552   8.686  30.235  25.751  0.0962  0.2260 -0.2132
76500W        W19553   0.056  30.816  27.009  0.0656 -0.0030 -0.2542
76501W        W19554   2.651   7.869  10.216 -0.1645  0.0124 -0.0209
76502W        W19555   5.822   4.322  10.446 -0.0270 -0.2053 -0.0393
76503W        W19556   0.854   1.213   9.546 -0.0320 -0.2305 -0.1008
76504W        W19557   9.240   1.817  26.340  0.0549 -0.3252  0.1157
76505W        W19558  14.651  33.550   9.184 -0.3826  0.2355  0.4891
76506W        W19559   4.155   1.536  24.703 -0.1955 -0.1075 -0.0460
76507W        W19560  31.827  29.893   1.866 -0.1017  0.0375 -0.0795
76508W        W19561  14.146   2.986   8.555 -0.0336 -0.0627 -0.1256
76509W        W19562   7.554  23.587  14.833 -0.1126 -0.0005 -0.1032
76510W        W19563   9.316  29.018  21.808  0.0564  0.2840  0.6053
76511W        W19564  15.473  19.277   9.349  0.0661  0.2619 -0.0288
76512W        W19565  28.953  23.791   6.563  0.0574 -0.0859  0.0638
76513W        W19566   3.992   4.748  27.811 -0.0852  0.0325 -0.1235
76514W        W19567  31.994  30.971   5.573  0.1103  0.1949 -0.2167
76515W        W19568   1.102  30.937   3.975  0.1914 -0.0071  0.1618
76516W        W19569  30.040  31.660   7.602  0.0423  0.2388 -0.2138
76517W        W19570   6.502   9.067  28.575 -0.1411 -0.2826 -0.3198
76518W        W19571   7.514  14.656   1.153 -0.0613 -0.1840  0.0209
76519W        W19572  12.787  17.398  16.873 -0.1192  0.4215  0.0957
76520W        W19573   6.816  20.897   1.193 -0.0794 -0.1859  0.1519
76521W        W19574   3.677   1.972   8.765 -0.0300  0.1353 -0.1357
76522W        W19575  10.752   0.440  27.884 -0.0702  0.2283 -0.0002
76523W        W19576  29.059  23.667  26.325  0.2253 -0.2535 -0.3000
76524W        W19577   5.024  32.334   1.126 -0.1451 -0.0554 -0.2009
76525W        W19578  11.272  20.641   2.800 -0.0088 -0.2573 -0.1152
76526W        W19579   0.730  33.979  24.634  0.0117  0.2361 -0.1610
76527W        W19580   9.310  26.166   2.157  0.2598 -0.2089  0.3377
76528W        W19581  33.061  27.284   7.446 -0.0694 -0.0067  0.0275
76529W        W19582   5.336   1.636   9.667 -0.0311  0.2138 -0.0943
76530W        W19583  17.175   4.364  16.410 -0.2063  0.1960  0.0833
76531W        W19584   4.648  27.137   6.142 -0.0695 -0.0502 -0.0539
76532W        W19585   9.214  24.017   2.479 -0.1904 -0.0862  0.1229
76533W        W19586   2.769   0.077   2.808  0.3637  0.0672 -0.1000
76534W        W19587   1.485  25.193   0.203 -0.1451 -0.1133 -0.1670
76535W        W19588  28.441  10.840  22.938  0.0586 -0.0992  0.0821
76536W        W19589   7.266  31.815   5.199  0.4476  0.0221 -0.2797
76537W        W19590   6.647  29.445   8.638  0.2206  0.0163  0.1757
76538W        W19591   6.496  29.103   6.142 -0.0291 -0.3342  0.2748
76539W        W19592  18.542   2.141   9.107  0.1994  0.1840  0.0909
76540W        W19593  30.448   1.413  15.533  0.1499  0.0465 -0.1667
76541W        W19594   2.216  29.654   6.343  0.0633 -0.0702  0.0294
76542W        W19595   8.388  28.290  23.963  0.1669 -0.1468 -0.1020
76543W        W19596   4.520   1.611   5.244 -0.2802 -0.1064  0.0710
76544W        W19597  14.163  19.187   9.618 -0.0716  0.0302  0.0271
76545W        W19598  10.407  11.731  27.191 -0.3614 -0.4850  0.1684
76546W        W19599  11.910   4.444  29.134 -0.0089 -0.0143 -0.2055
76547W        W19600   9.946   1.033  25.304 -0.1282 -0.0650 -0.2606
76548W        W19601   7.160  22.840  28.931 -0.1153 -0.3788 -0.2260
76549W        W19602  10.748   1.368   9.693  0.1398  0.3770 -0.0643
76550W        W19603   8.255  28.995   4.561 -0.0660 -0.0444  0.0608
76551W        W19604  10.702  16.248   8.642  0.1455 -0.2146 -0.0269
76552W        W19605  26.782  25.860  23.341  0.2543  0.0363 -0.0571
76553W        W19606   5.238  33.758   2.928 -0.0560  0.0213 -0.1329
76554W        W19607  16.978   0.491   3.461  0.1288 -0.1409  0.3158
76555W        W19608   8.614  31.987   6.943 -0.0246 -0.0289 -0.1459
76556W        W19609  15.177  17.077   1.272  0.2292 -0.2075  0.1371
76557W        W19610  28.699  21.369   5.212 -0.1846 -0.2565 -0.0237
76558W        W19611  29.630  19.563   7.362 -0.2138 -0.1305  0.2563
76559W        W19612  27.365   0.153   5.418 -0.0508 -0.0630  0.1215
76560W        W19613  15.774  19.088   5.540  0.0088  0.2459 -0.0623
76561W        W19614   0.114  29.334   3.290 -0.2353  0.0871 -0.0583
76562W        W19615   4.355   3.045  16.904 -0.2951  0.0191 -0.0907
76563W        W19616   5.874  26.614  29.147 -0.1480  0.2338 -0.1623
76564W        W19617  17.241  23.215   3.473  0.0244  0.1514  0.3313
76565W        W19618  32.826  20.306   4.944 -0.0159 -0.1301  0.1909
76566W        W19619  15.543  31.863   0.773  0.2588  0.1713 -0.4522
76567W        W19620   9.245  26.027   4.128 -0.3995  0.0024  0.1684
76568W        W19621   1.928   2.158   7.470  0.1146  0.1549 -0.0581
76569W        W19622  13.310   1.302   1.075 -0.1392  0.0237  0.1470
76570W        W19623   7.335  25.980   2.000 -0.3787 -0.1937  0.3005
76571W        W19624  15.618   6.168   4.333 -0.0207  0.2707 -0.3332
76572W        W19625  27.982  30.264  18.931  0.0617  0.1393  0.0398
76573W        W19626   1.441   6.772   1.067 -0.1190  0.3812 -0.0111
76574W        W19627   9.726   7.906   9.002 -0.2474  0.2986  0.0483
76575W        W19628  13.463  11.146  27.810  0.2026  0.0148 -0.2461
76576W        W19629  12.765  33.251   4.057  0.2149  0.3858  0.0154
76577W        W19630   3.758  26.036   9.051 -0.0481  0.1303  0.1443
76578W        W19631  28.101  30.739  21.193  0.1275  0.0747  0.1758
76579W        W19632  30.934  13.035   6.930  0.2495 -0.3712  0.0416
76580W        W19633   2.478   5.196   0.921  0.0488  0.1167  0.1534
76581W        W19634  28.597  26.013   2.041 -0.2369 -0.0636  0.1404
76582W        W19635  11.336  23.337   9.061  0.3042 -0.1639  0.0853
76583W        W19636  26.583   9.317   2.542  0.4593 -0.2424  0.0437
76584W        W19637  27.355   2.120   3.385 -0.2589 -0.1057 -0.0893
76585W        W19638  21.233   1.591   3.402  0.0271  0.0851  0.2533
76586W        W19639  17.560  32.899  10.099  0.2869 -0.1586  0.0440
76587W        W19640   4.180  31.280  26.601 -0.0633  0.0609 -0.1248
76588W        W19641   9.075  16.718  25.832 -0.2193  0.0659  0.2201
76589W        W19642  11.077  12.755  17.702 -0.1353 -0.0058 -0.1704
76590W        W19643   4.247  32.021   2.146  0.1711  0.0237 -0.0562
76591W        W19644   6.679  23.644   8.669  0.2037  0.0454 -0.1205
76592W        W19645  15.650   9.470  23.336 -0.1344  0.1556  0.0892
76593W        W19646  15.816   8.154  16.929 -0.1247 -0.1072  0.0026
76594W        W19647  18.245  31.893   1.577 -0.0027 -0.1396  0.0135
76595W        W19648  11.088   9.755  26.017 -0.1962 -0.1401  0.5001
76596W        W19649  29.740  13.598   3.139  0.2422 -0.2681 -0.2076
76597W        W19650  10.436  28.254   2.761 -0.0987 -0.1372  0.0353
76598W        W19651  33.624  23.675   6.353  0.0804 -0.0737  0.0630
76599W        W19652  33.732  34.190  19.833  0.2065  0.0964 -0.1067
76600W        W19653   9.410   1.287   3.132 -0.1626 -0.1616  0.1435
76601W        W19654   9.431  30.356   0.421  0.0395  0.0643  0.0051
76602W        W19655   6.213  31.909   5.352  0.1841 -0.0904 -0.3460
76603W        W19656   2.705  20.799   3.544  0.3522  0.0727 -0.1481
76604W        W19657   4.288  30.832   9.513 -0.3696  0.0963  0.0153
76605W        W19658   3.269   7.695   3.640 -0.0983  0.2183 -0.2758
76606W        W19659  34.190  22.213   7.457  0.0698 -0.1664 -0.2029
76607W        W19660  13.275  32.903  26.641  0.0648 -0.1633  0.2426
76608W        W19661  28.012  30.636   7.649  0.2924  0.0294 -0.3034
76609W        W19662  14.392   8.991   3.935  0.1257  0.1509 -0.0917
76610W        W19663  31.199  33.843  28.030 -0.1146  0.0349  0.0695
76611W        W19664  31.413   1.251   9.391 -0.0709 -0.1673  0.1115
76612W        W19665  10.766  28.965   5.616 -0.4245  0.1750  0.0850
76613W        W19666  11.487  32.163  28.506  0.3358  0.1263  0.0240
76614W        W19667  14.873   6.656   6.965 -0.2203  0.1938 -0.0673
76615W        W19668   4.936  21.487   5.525 -0.0918  0.1933  0.1540
76616W        W19669  17.536  31.218  26.023  0.3105 -0.1777 -0.3266
76617W        W19670  30.290  31.672   9.141 -0.0085  0.4717 -0.1092
76618W        W19671  26.849   5.445   5.184  0.1427  0.0448  0.1259
76619W        W19672   2.882  22.125   0.531 -0.0932 -0.0761  0.0180
76620W        W19673  31.898  33.101   5.153  0.2344 -0.1366  0.1051
76621W        W19674   8.619   1.492   5.797  0.0708 -0.0813 -0.0246
76622W        W19675  30.151  34.590   2.058  0.0316  0.1127 -0.1146
76623W        W19676  18.716   6.253   3.600 -0.0034  0.2829  0.1239
76624W        W19677   0.500  12.846   2.876 -0.2207 -0.1561 -0.2206
76625W        W19678   1.270  19.575   5.935 -0.0691  0.0993  0.1268
76626W        W19679  33.526  16.520   0.815 -0.1073 -0.1064 -0.0115
76627W        W19680   9.929  31.851   1.930  0.0830  0.1847  0.1511
76628W        W19681  18.812  19.158   8.670 -0.0684  0.3965 -0.0437
76629W        W19682  34.548   2.958   9.661 -0.1730  0.2799 -0.2325
76630W        W19683  14.586   1.306  25.074 -0.2883  0.0229 -0.0355
76631W        W19684   5.507  31.145  24.557 -0.0740 -0.0052 -0.0753
76632W        W19685  11.746   6.704   3.047  0.0155 -0.1495 -0.1300
76633W        W19686  15.521   5.729  27.026 -0.1570 -0.0996 -0.0774
76634W        W19687   6.284  28.844   4.768  0.0719  0.1031  0.1558
76635W        W19688   6.819  29.803   1.083  0.3008  0.0908 -0.0846
76636W        W19689  24.039  25.966   5.296 -0.3070  0.2596  0.0223
76637W        W19690  13.055  28.200   2.158 -0.3995 -0.1693  0.0763
76638W        W19691   6.566   3.988  23.857 -0.2798 -0.0519  0.1934
76639W        W19692   1.860  33.256   4.473  0.2845 -0.0394 -0.0455
76640W        W19693   3.884  19.748   6.862  0.0361  0.0939  0.0746
76641W        W19694  16.454  26.872   3.652 -0.1900  0.4366  0.1662
76642W        W19695  14.352  12.988  23.449 -0.1045 -0.2092  0.3968
76643W        W19696   8.312  31.374  29.016  0.1623 -0.1113 -0.0527
76644W        W19697  15.101  14.495  27.894 -0.1847  0.0381 -0.1137
76645W        W19698  25.550  31.027   5.373 -0.0157 -0.0912 -0.0815
76646W        W19699  32.811   7.887   1.971  0.1264 -0.0165 -0.1007
76647W        W19700   0.249  32.088  27.353 -0.2166 -0.3584 -0.1128
76648W        W19701  28.263   5.928  16.842 -0.1274  0.2385  0.2103
76649W        W19702   8.261  11.033  25.512 -0.1125  0.2938  0.0340
76650W        W19703  10.265   1.739  10.286  0.2240 -0.1397 -0.0143
76651W        W19704  22.331   4.942  26.336 -0.1928 -0.0134 -0.1593
76652W        W19705  30.082   8.345   7.256  0.0362 -0.1552  0.1224
76653W        W19706  25.976  34.299   6.616  0.2321 -0.2294  0.0830
76654W        W19707   2.984   2.943  25.434 -0.0660  0.1478  0.0453
76655W        W19708  33.473  16.922   5.097 -0.0018 -0.0283  0.1007
76656W        W19709  10.930  28.417  14.435 -0.0109  0.2786 -0.0004
76657W        W19710  31.694  13.228  23.353  0.4798 -0.1785  0.1590
76658W        W19711  15.797  18.411   2.215  0.0576 -0.0452  0.1352
76659W        W19712   0.518  16.765  24.237 -0.1386  0.1938 -0.1040
76660W        W19713  13.376  14.168   3.404 -0.2063 -0.0826  0.0605
76661W        W19714  15.126   9.168  24.518 -0.1538 -0.0580 -0.2354
76662W        W19715   2.366   4.052  23.790  0.0454 -0.1521 -0.2942
76663W        W19716  13.161  30.611   7.965 -0.1336 -0.0563  0.1611
76664W        W19717  11.389  10.313  27.645 -0.0343 -0.5269 -0.1472
76665W        W19718  15.026   1.443   7.575  0.0278 -0.1967  0.0301
76666W        W19719   0.635  27.662   6.028  0.3405  0.1353  0.2011
76667W        W19720   2.670  11.104  23.185  0.0961  0.0445 -0.0813
76668W        W19721  21.193  15.014  19.380 -0.0444 -0.3729  0.4586
76669W        W19722  12.720  32.291  21.305  0.0532 -0.0067 -0.5395
76670W        W19723  10.002   8.341   2.230 -0.0716  0.2057  0.2058
76671W        W19724  15.819   7.581  17.059 -0.0164 -0.0571  0.0531
76672W        W19725  30.835  34.399   1.617 -0.1237 -0.3877 -0.1503
76673W        W19726  20.145  29.652   7.381 -0.1459  0.0960  0.0960
76674W        W19727   2.234  11.333   0.274 -0.1899  0.1809 -0.1415
76675W        W19728  18.435  30.400   9.426 -0.1351 -0.1812 -0.1853
76676W        W19729   7.521  21.371  20.106  0.0676 -0.4585  0.1028
76677W        W19730   6.246  11.883   4.698 -0.1958 -0.0325 -0.3577
76678W        W19731  17.972   8.213  10.119  0.0036 -0.0925 -0.3031
76679W        W19732  12.991  19.889   3.468 -0.0315 -0.2184  0.0815
76680W        W19733   4.750   3.411   9.420  0.0153 -0.1389 -0.1441
76681W        W19734  32.819   4.291  23.562  0.0247 -0.1494  0.1853
76682W        W19735   4.378   8.030   0.809  0.2428 -0.1691  0.3322
76683W        W19736  10.508  16.751   2.815  0.1641 -0.1479 -0.0583
76684W        W19737  19.669   1.193  10.067 -0.0533 -0.1185  0.0337
76685W        W19738  11.614  28.537   1.744  0.1771 -0.0149  0.0743
76686W        W19739   4.381  26.360   6.664 -0.3857 -0.2115 -0.0964
76687W        W19740  10.708   3.468  23.526 -0.0054 -0.2596  0.1906
76688W        W19741  33.668  28.701  28.516 -0.3563  0.0181 -0.1999
76689W        W19742  17.379  27.919   5.853 -0.0113  0.4268  0.0717
76690W        W19743  14.940   4.017   7.628  0.1078 -0.1837 -0.2798
76691W        W19744  34.137  27.691   8.248  0.1275 -0.2315  0.1355
76692W        W19745   8.211  31.748  15.508 -0.0445 -0.0167 -0.0351
76693W        W19746   3.738   8.374  28.306 -0.2969 -0.4638 -0.0544
76694W        W19747   2.770  19.019  29.049 -0.0720 -0.2782 -0.0997
76695W        W19748  26.033   5.110   0.800  0.0650 -0.2314  0.1106
76696W        W19749   6.731  32.265   2.332 -0.3184  0.0832 -0.0560
76697W        W19750   8.891  13.769  24.410 -0.1460  0.1942 -0.0090
76698W        W19751   5.488   0.326  25.115  0.2118 -0.1928 -0.1745
76699W        W19752   7.132  11.702  20.951 -0.0543  0.0691 -0.1873
76700W        W19753  10.910  22.533  29.161 -0.3424  0.0502 -0.1036
76701W        W19754  30.481   3.923  24.048  0.2278  0.1415 -0.4254
76702W        W19755  31.479  27.047   3.780  0.0801  0.3215  0.1169
76703W        W19756   6.134   3.549  24.947 -0.0831 -0.1565 -0.0627
76704W        W19757  19.587  31.569  26.001 -0.0499  0.0004  0.0602
76705W        W19758  10.992   4.787   5.137  0.0840 -0.0436  0.0900
76706W        W19759  28.500  31.941   7.017 -0.0403  0.2634 -0.3640
76707W        W19760   4.759  27.913   4.819 -0.0340  0.1351 -0.0185
76708W        W19761   6.062  26.974   4.960 -0.0196 -0.2058  0.2496
76709W        W19762   1.379  22.179  17.861 -0.2266  0.0081  0.0482
76710W        W19763  11.355  31.389   8.077  0.3615 -0.1476 -0.0525
76711W        W19764   5.078   3.296  23.150  0.3290  0.1272 -0.1335
76712W        W19765   4.471   8.502   6.462  0.1389 -0.0780 -0.3188
76713W        W19766  24.822  19.333  27.455  0.0588  0.3421  0.1682
76714W        W19767  20.465  29.089   7.326  0.1406 -0.0453  0.0737
76715W        W19768  16.309  23.757  27.745 -0.1822  0.1891  0.1766
76716W        W19769  13.645  25.800   0.182 -0.3404 -0.0025  0.1920
76717W        W19770  17.706   1.550   6.052  0.0142 -0.1086 -0.1197
76718W        W19771  30.219  27.502   1.391  0.1002 -0.1194  0.0023
76719W        W19772  33.275  34.403   3.418 -0.0669 -0.1947  0.0879
76720W        W19773  19.137   4.666   9.185  0.1271  0.2936  0.2917
76721W        W19774  19.592  11.688  18.457  0.2947 -0.4918 -0.0717
76722W        W19775   1.435  34.621  26.961  0.1649 -0.0324 -0.2099
76723W        W19776  10.179  30.253   7.551  0.2638 -0.1595 -0.0143
76724W        W19777  13.071  20.625  14.752  0.1379  0.3861 -0.0376
76725W        W19778  22.915  10.698   2.747  0.2655 -0.0714  0.0423
76726W        W19779  11.708   2.921  24.230  0.2194  0.1737  0.0344
76727W        W19780  25.482  27.906  22.663 -0.0984  0.2169  0.0246
76728W        W19781  13.119  27.673   7.963 -0.2915 -0.0662  0.1160
76729W        W19782  21.774  12.606   8.272 -0.1465 -0.0697  0.0388
76730W        W19783  23.317   2.578  23.171 -0.0306 -0.3026 -0.1297
76731W        W19784   0.260   2.024   2.975  0.0418 -0.1859 -0.1175
76732W        W19785  12.072  32.128   5.087 -0.1927 -0.0358 -0.0166
76733W        W19786  25.542   9.117  26.505 -0.1100 -0.2398 -0.0643
76734W        W19787   7.321  24.823  28.540  0.0835 -0.5139 -0.2491
76735W        W19788  20.475   7.014   1.194 -0.1078  0.1729 -0.1933
76736W        W19789   7.690   6.870   3.840 -0.0908 -0.1762 -0.1698
76737W        W19790  27.679  16.254  26.339 -0.0152 -0.1072  0.1325
76738W        W19791  12.644  26.732  28.367 -0.0488  0.0465 -0.1634
76739W        W19792  24.664   7.780   0.354 -0.0797 -0.2406  0.3906
76740W        W19793  10.151   6.440   3.879 -0.3330 -0.2125 -0.0254
76741W        W19794   6.226   6.447  28.865 -0.0834 -0.4313  0.0340
76742W        W19795   5.553   1.372   6.868  0.0080  0.0501 -0.0892
76743W        W19796  11.833  12.525   5.304 -0.2831 -0.0542  0.0284
76744W        W19797   6.899  13.261  28.714 -0.0498 -0.0765 -0.1221
76745W        W19798  26.244   5.897   9.040  0.0538  0.4177 -0.0652
76746W        W19799   5.991  26.810   4.470 -0.0246 -0.2192  0.0340
76747W        W19800  10.744  33.884  15.441 -0.0668 -0.2680 -0.0727
76748W        W19801   5.094  23.813   9.443  0.0038 -0.1642  0.0856
76749W        W19802  17.019   5.014  19.157 -0.0579  0.0051  0.0787
76750W        W19803   1.073  11.830   6.239 -0.2738 -0.1194 -0.1303
76751W        W19804   0.926   2.737  26.851  0.2868  0.2283  0.2308
76752W        W19805   5.667  27.601   3.743  0.2478 -0.1084 -0.0930
76753W        W19806  25.559   6.302   1.254  0.0577 -0.2420  0.1790
76754W        W19807   5.790  28.201   5.364  0.0958  0.0664 -0.4036
76755W        W19808  30.558  31.671   0.255  0.1509 -0.3178 -0.2279
76756W        W19809   0.242   9.081  25.302 -0.0921  0.2477 -0.1018
76757W        W19810   3.732  25.290  24.266 -0.0101  0.2277  0.0066
76758W        W19811   4.099  18.066   1.709  0.1375 -0.0140  0.0670
76759W        W19812  34.595  16.677  26.690  0.0389  0.5840 -0.2075
76760W        W19813   7.154  13.969  24.696 -0.1735 -0.0475  0.3398
76761W        W19814  16.301   3.827  18.392  0.3291  0.1421 -0.1157
76762W        W19815  19.830   0.552   0.329  0.0673 -0.2161  0.1008
76763W        W19816  20.452  32.904   8.642  0.3760 -0.3346 -0.0961
76764W        W19817   5.075   1.915  26.965  0.0896  0.0045  0.0019
76765W        W19818   0.539  26.237   4.166 -0.0702  0.1923  0.3237
76766W        W19819   6.988   3.742  19.740  0.3095  0.1325  0.1425
76767W        W19820   9.128   4.219   6.813  0.0273 -0.0274  0.3513
76768W        W19821  13.099   7.029   6.968 -0.0817 -0.1085 -0.2721
76769W        W19822  27.892   0.687   7.779 -0.1245  0.0968  0.1102
76770W        W19823  18.556  32.232  19.776  0.0281  0.0277  0.0247
76771W        W19824   7.809  20.314  26.338  0.2401  0.1046 -0.0690
76772W        W19825   2.590  17.048  28.270 -0.1086  0.1086  0.4868
76773W        W19826  10.869   5.873  22.072 -0.2606  0.0891 -0.0531
76774W        W19827  27.381  14.839  25.140  0.0140 -0.0861 -0.0671
76775W        W19828   4.548  27.790   8.749 -0.1461  0.0358  0.1711
76776W        W19829  19.001   2.569   6.623  0.0010  0.0382 -0.2775
76777W        W19830   0.553  22.238   3.211 -0.2103  0.4511  0.0106
76778W        W19831  26.413   5.442  27.896  0.4040 -0.3604 -0.1418
76779W        W19832  11.087  30.012   6.475  0.3147  0.2865 -0.0170
76780W        W19833   3.774  11.966   2.206  0.1884  0.1290 -0.2460
76781W        W19834   2.351  21.165  17.708  0.0436 -0.1427 -0.2717
76782W        W19835   0.660  20.513   2.112 -0.0092  0.0478 -0.1154
76783W        W19836   7.905  28.283  25.319 -0.1605 -0.0650  0.0322
76784W        W19837  16.536   5.295   0.038 -0.0129  0.2851  0.4682
76785W        W19838   9.545  34.490   4.664 -0.3597 -0.1085  0.2271
76786W        W19839  12.838  10.579  28.186  0.0281  0.1942  0.1308
76787W        W19840   9.858  21.979   2.442  0.1087 -0.2059 -0.1524
76788W        W19841   7.023  13.200  15.917  0.2101 -0.1957  0.1509
76789W        W19842  17.337   1.893  17.613  0.3424  0.0748  0.0650
76790W        W19843   8.021  25.833   2.645 -0.3692 -0.0861 -0.5112
76791W        W19844  32.893  17.830   2.858  0.0709 -0.2798  0.1258
76792W        W19845   2.728  17.602   1.842 -0.2243 -0.1875 -0.1591
76793W        W19846  12.288  23.106   7.339  0.1178  0.0949  0.1438
76794W        W19847  19.716  32.292   4.140  0.1309  0.0600 -0.0915
76795W        W19848  16.325  34.652  28.762 -0.3004 -0.1714  0.3017
76796W        W19849   4.987  17.899   8.005 -0.0451 -0.0009 -0.0324
76797W        W19850   0.883  20.143  25.182 -0.1813  0.2343  0.0099
76798W        W19851  18.988   0.862  28.664  0.2665  0.1076  0.0778
76799W        W19852  25.218   8.692   8.041  0.1156 -0.0811  0.4858
76800W        W19853   8.078  30.930   5.653  0.0766 -0.0433 -0.1970
76801W        W19854  13.432  18.533  23.411 -0.1674  0.1560 -0.3154
76802W        W19855   3.904  11.342   9.726  0.1583 -0.0932 -0.1889
76803W        W19856  15.719   6.503   6.873  0.0675 -0.0521  0.0938
76804W        W19857  16.921  34.573   4.163  0.0642  0.0870 -0.4610
76805W        W19858   6.004  26.982  25.403  0.2206 -0.0961 -0.1487
76806W        W19859   4.624  22.853   1.259  0.2977 -0.4273 -0.4075
76807W        W19860  10.607  17.853   9.737  0.0361 -0.0990  0.0840
76808W        W19861   8.070  10.711  24.213 -0.0391  0.3556  0.0802
76809W        W19862  15.264  33.886  28.587 -0.0668 -0.1884  0.2008
76810W        W19863   5.593  23.784   9.419  0.1103 -0.0280  0.0749
76811W        W19864   9.576  12.795  27.841 -0.1347 -0.1112 -0.0332
76812W        W19865  22.099   5.820  23.443 -0.3562  0.1212  0.0269
76813W        W19866   7.314  18.137   8.879  0.0555 -0.1154  0.2025
76814W        W19867  20.414   3.986  16.857  0.1465 -0.3492 -0.0327
76815W        W19868  21.217  10.904   8.165 -0.0298 -0.0241  0.0394
76816W        W19869   8.161   4.497   9.450 -0.0299 -0.1400  0.2584
76817W        W19870  13.729  15.870  24.153 -0.1770  0.1500  0.3244
76818W        W19871  31.470  30.375   8.719  0.0469  0.1261  0.2502
76819W        W19872  30.034   1.008   6.321 -0.1140  0.0334  0.0720
76820W        W19873  14.482   2.361  25.468 -0.0456  0.1918  0.0042
76821W        W19874  28.690  18.555  15.750  0.0361 -0.2315 -0.0805
76822W        W19875   7.916   8.373   7.491 -0.0379 -0.3219 -0.1437
76823W        W19876  27.026  34.488  16.134 -0.1230  0.1431 -0.1252
76824W        W19877   9.015  12.898  26.369  0.0437 -0.0534  0.1448
76825W        W19878   9.822  30.348   2.867  0.0094  0.3875 -0.0784
76826W        W19879   8.881   7.968  28.653  0.1120 -0.3098  0.0546
76827W        W19880  13.404   3.492   9.877 -0.0218  0.1261  0.1574
76828W        W19881   5.555  29.223   9.301  0.0422  0.0208  0.0074
76829W        W19882  27.248  34.407   5.761  0.1580 -0.1986  0.1370
76830W        W19883  19.099  16.618  25.920 -0.1596  0.0150  0.0778
76831W        W19884   8.420  33.170   7.270  0.2213  0.3602 -0.1910
76832W        W19885   3.946  28.732   2.582  0.0201 -0.0202  0.0775
76833W        W19886  10.558   8.436   1.921 -0.1234 -0.0256 -0.0832
76834W        W19887  14.329  23.112   2.323 -0.0304  0.0325 -0.0004
76835W        W19888  13.052  23.756  27.970  0.0327  0.2069 -0.3499
76836W        W19889  26.862  20.450   6.908  0.3296  0.0880 -0.4263
76837W        W19890   3.195  14.856  26.964  0.0024  0.4588  0.0066
76838W        W19891   3.939  15.799   7.533 -0.1274 -0.1353  0.0614
76839W        W19892  17.034   9.494  18.523 -0.0641 -0.0566  0.2221
76840W        W19893   1.287  31.983  28.044  0.0673 -0.3525  0.2479
76841W        W19894  12.494  20.311  22.499  0.1399  0.2365 -0.0496
76842W        W19895  24.751   8.629   9.526 -0.2553 -0.1281  0.2895
76843W        W19896  23.039   5.857  25.055 -0.0552  0.3971  0.1191
76844W        W19897  13.396  24.557   9.419 -0.4495  0.0425 -0.1509
76845W        W19898  20.741   5.918  16.635  0.0461 -0.1074  0.0464
76846W        W19899  14.035  11.046  16.377  0.1372 -0.2738 -0.2055
76847W        W19900  30.637   2.260  27.147 -0.0124 -0.1766 -0.0084
76848W        W19901   6.061  11.421   6.739  0.2274  0.0436 -0.1394
76849W        W19902  13.480  12.241  20.133 -0.2322 -0.0024  0.0173
76850W        W19903  15.736  23.921   2.251  0.2953  0.2196  0.2173
76851W        W19904   5.809  33.417   9.193  0.0423 -0.5134 -0.1739
76852W        W19905  10.982  11.235  27.797  0.3351 -0.1560 -0.3215
76853W        W19906   8.811  27.319   3.670  0.0653  0.0638 -0.0428
76854W        W19907   7.225  17.246   5.507 -0.0505 -0.1304  0.1627
76855W        W19908   9.805  27.084   0.335 -0.2161 -0.2288  0.1208
76856W        W19909   4.916  12.314  26.695 -0.5189  0.0197 -0.1864
76857W        W19910   9.794   9.463   2.162  0.0760 -0.0814 -0.1618
76858W        W19911  26.079  16.116  20.970 -0.4114  0.1420  0.0662
76859W        W19912  33.724   9.556   2.865 -0.0753  0.1392  0.2632
76860W        W19913  10.773  14.012  24.380  0.0110 -0.0504  0.2415
76861W        W19914   2.944   7.409  29.106  0.1746 -0.2415  0.0256
76862W        W19915   7.420  16.171   3.254 -0.0366 -0.3239  0.2820
76863W        W19916  13.249  32.310  28.424  0.1353  0.2347 -0.0003
76864W        W19917  11.885  29.154  26.296  0.3632  0.0009 -0.1293
76865W        W19918   7.752  18.193   7.730  0.1966 -0.0562 -0.1125
76866W        W19919  17.227  26.911  23.910  0.2342  0.0706 -0.0222
76867W        W19920   0.800  12.959  27.529 -0.0295 -0.2381  0.2824
76868W        W19921  10.534   7.009  25.137 -0.0982  0.2940 -0.1106
76869W        W19922  28.954  13.154  22.976  0.0247  0.0724 -0.2506
76870W        W19923  33.897   9.758  22.551  0.1697 -0.1169 -0.3698
76871W        W19924  21.906  15.755  14.074  0.3411 -0.0089  0.0645
76872W        W19925   3.599  27.216  20.798 -0.1291 -0.0497 -0.1591
76873W        W19926   3.682  31.159  23.627  0.0474  0.1251  0.1337
76874W        W19927  15.289   9.067   9.722  0.1911  0.1808 -0.0973
76875W        W19928  29.165  24.584   6.151  0.0899  0.1243 -0.4095
76876W        W19929   9.828  17.516   2.167  0.2703 -0.0483  0.1066
76877W        W19930  14.900  23.465   7.943 -0.2151  0.0552  0.0300
76878W        W19931  23.487  23.193   4.692 -0.0672  0.0711 -0.0468
76879W        W19932  25.113   2.081  22.628  0.0829 -0.2538 -0.1840
76880W        W19933  33.216  31.920  16.562 -0.1903 -0.1749 -0.1153
76881W        W19934  22.918   2.574  28.319  0.0682 -0.1699  0.2973
76882W        W19935  15.460   3.396   1.287  0.0588  0.1294  0.0520
76883W        W19936   8.439  23.434   3.805 -0.1048 -0.1073  0.2954
76884W        W19937   8.013  10.242  20.977  0.0829 -0.1333 -0.1459
76885W        W19938  18.764  25.282   4.007  0.2810 -0.1400  0.0959
76886W        W19939  10.780  33.859   4.265  0.1839 -0.0140 -0.1919
76887W        W19940   0.093   3.355   7.591 -0.5575 -0.3536  0.1205
76888W        W19941  18.120   1.267  14.625 -0.1714 -0.0598  0.1880
76889W        W19942  27.623  13.041   6.748  0.3104  0.0442  0.3342
76890W        W19943   0.677  10.332  23.067 -0.0919 -0.2535 -0.2860
76891W        W19944  24.853  27.144   3.809 -0.0752  0.1092  0.1198
76892W        W19945  15.072   8.951   3.228 -0.1560  0.2627  0.1987
76893W        W19946   2.613   6.241   3.249 -0.1598  0.0743 -0.0743
76894W        W19947  31.986   7.352  25.241 -0.1142 -0.0907 -0.1236
76895W        W19948  11.666  29.222   6.326  0.0268  0.2220 -0.1472
76896W        W19949  19.749   4.852   2.745  0.0198  0.0391  0.2091
76897W        W19950   4.992  11.492   9.026  0.0920  0.2283  0.2184
76898W        W19951   9.214   8.205   6.215  0.0513 -0.0954 -0.0036
76899W        W19952   6.575  12.329  14.573  0.0842 -0.3298  0.3135
76900W        W19953  22.393  29.419  24.812  0.1791 -0.0848  0.2569
76901W        W19954  20.670   4.717  14.725  0.0954  0.2849 -0.1223
76902W        W19955   2.359   9.575   9.542  0.0499  0.2213  0.1268
76903W        W19956   4.463  11.950   5.229 -0.1027  0.3454 -0.3040
76904W        W19957  19.473  24.935  25.836  0.2096  0.0291 -0.0268
76905W        W19958  10.105  20.779   5.829 -0.2981 -0.0372 -0.3186
76906W        W19959  11.096  17.668   2.772  0.0654  0.1579 -0.1275
76907W        W19960  26.162  13.507   6.995  0.0555 -0.2088 -0.4259
76908W        W19961  20.922  27.692   1.757  0.0730  0.3373 -0.0265
76909W        W19962  28.834   4.244  17.233  0.0788  0.1505  0.0636
76910W        W19963   3.193  26.070   7.757 -0.0332 -0.2474  0.1360
76911W        W19964  16.315  12.966  21.163  0.1100  0.3555  0.0603
76912W        W19965  13.852  12.504   4.953 -0.1373  0.3274  0.3094
76913W        W19966  10.889  29.455  26.878  0.0692  0.0334 -0.1422
76914W        W19967  19.410   3.459   9.945  0.0211  0.0973  0.1159
76915W        W19968   0.717  26.447   8.459 -0.2264  0.3601 -0.0230
76916W        W19969  28.668   0.047  27.220  0.0655  0.0274  0.0903
76917W        W19970  31.177  33.761  20.114  0.1807  0.1321 -0.3570
76918W        W19971  28.660   6.546   2.576  0.3539  0.1531  0.0365
76919W        W19972  12.583  26.406  19.721 -0.1109 -0.0833  0.1716
76920W        W19973  21.411  11.133   5.065  0.1862 -0.0633  0.1432
76921W        W19974  29.952  27.479  23.003  0.0679 -0.1848 -0.2162
76922W        W19975  20.624  12.687   4.854  0.0514 -0.2016 -0.1309
76923W        W19976  11.581  25.666   1.030 -0.1719 -0.2023 -0.1680
76924W        W19977  29.896  13.838   2.376 -0.0026 -0.1262 -0.2147
76925W        W19978  33.100   0.549  15.972 -0.0038  0.1763  0.1056
76926W        W19979   4.636  16.247  23.764  0.2477  0.0084  0.1143
76927W        W19980  14.788  29.327   5.717  0.0167  0.0240 -0.2126
76928W        W19981   8.620  33.979  25.816 -0.0658  0.0180 -0.2947
76929W        W19982  31.524  27.157   7.770 -0.1511  0.0179  0.0174
76930W        W19983   9.363  26.882   1.545 -0.0872  0.0180  0.4780
76931W        W19984   8.850  12.771   1.803 -0.1748 -0.1224  0.1418
76932W        W19985   8.538  17.021  28.167  0.0764 -0.0492 -0.0647
76933W        W19986   3.773  31.148   9.465 -0.1095 -0.2168  0.1668
76934W        W19987  26.180  25.977  26.194 -0.1831  0.2490  0.1639
76935W        W19988   0.745  33.047  25.834  0.0461  0.1213 -0.1349
76936W        W19989  29.384  19.082  29.185 -0.1910  0.2068  0.0070
76937W        W19990  17.567  32.478   4.490  0.1908 -0.0795  0.0317
76938W        W19991  23.875  30.560   5.594 -0.2697  0.0232  0.1218
76939W        W19992  12.272  15.477  15.687 -0.0733 -0.1371  0.2457
76940W        W19993  19.612  26.488   2.873 -0.2906  0.1766  0.0767
76941W        W19994   4.190   3.446  22.407 -0.2999  0.3857  0.1053
76942W        W19995  20.574  22.667   1.686 -0.3271 -0.0989 -0.1382
76943W        W19996   3.030   5.168  18.743 -0.1531 -0.3477  0.0520
76944W        W19997  31.372  34.555  17.390 -0.1326  0.0133 -0.2201
76945W        W19998  13.185  30.874   2.197 -0.1951  0.3069  0.2221
76946W        W19999  18.065  29.221   9.997 -0.1991 -0.2760  0.0672
76947W        W20000   1.967  22.708  18.891 -0.1299  0.1689 -0.3544
76948W        W20001  18.602  20.628  26.766 -0.2999  0.2570  0.0099
76949W        W20002   3.798  13.996  19.441 -0.0474 -0.0233  0.4099
76950W        W20003  11.189   4.322  25.407 -0.0876  0.3682 -0.5201
76951W        W20004  20.416   2.176  20.043  0.2067 -0.0958  0.1563
76952W        W20005   4.863  27.373  14.578  0.3091  0.0949 -0.0396
76953W        W20006   3.669  27.676  19.865 -0.2932  0.3625 -0.0781
76954W        W20007  28.778   4.681  23.168  0.1027  0.0712 -0.0785
76955W        W20008  16.264  28.960   9.882  0.0604 -0.0304  0.1565
76956W        W20009  15.426  33.354   3.326  0.2153  0.0878  0.1600
76957W        W20010  32.174   0.895  17.354  0.3562 -0.2621 -0.0483
76958W        W20011  19.265  27.531   4.188 -0.1196 -0.0122 -0.1194
76959W        W20012  12.960   5.950   7.515 -0.0063  0.2834 -0.0477
76960W        W20013   2.752  31.788   5.282  0.0421  0.0843 -0.1297
76961W        W20014  17.762  20.475   1.189  0.0903 -0.1580 -0.1899
76962W        W20015   2.450  28.295  16.910  0.0633 -0.3067 -0.4242
76963W        W20016   9.734   5.496   9.041 -0.0543  0.2058  0.0899
76964W        W20017   7.727   5.175   1.915 -0.0819 -0.0273  0.1618
76965W        W20018   3.915  32.443   6.432  0.0422  0.0282 -0.1258
76966W        W20019  10.279  23.743   6.886  0.2067  0.0683 -0.0697
76967W        W20020  14.435  33.326  10.773 -0.3053 -0.1359  0.0100
76968W        W20021  12.505  33.927  16.744 -0.0248 -0.2040 -0.0684
76969W        W20022  25.316   0.375  26.459  0.0112 -0.0468 -0.0017
76970W        W20023  12.470   5.927  17.639  0.0167 -0.2120  0.2096
76971W        W20024  24.784  10.397   4.365 -0.1241  0.0356  0.0479
76972W        W20025   2.599   9.076   9.248 -0.1902 -0.0203 -0.0160
76973W        W20026   0.353  26.882   3.418 -0.1550 -0.0142 -0.2028
76974W        W20027  13.776   3.570  28.684 -0.0855 -0.0128  0.1282
76975W        W20028  16.902  20.341   3.833  0.1029 -0.2115 -0.1075
76976W        W20029  21.538  21.066   0.079 -0.0976  0.1431 -0.0649
76977W        W20030  32.690  12.381  18.724  0.1149  0.4224  0.0220
76978W        W20031   7.877   3.883  14.350  0.2196 -0.0919  0.0454
76979W        W20032   4.880   3.466  18.463  0.0328  0.1303  0.1084
76980W        W20033  31.829   9.485  17.221 -0.1973  0.2085  0.0051
76981W        W20034   9.646  22.989   6.634  0.2250 -0.1417  0.2599
76982W        W20035  26.269   3.131   3.354 -0.0570  0.0160  0.1002
76983W        W20036  18.440   8.653  28.836 -0.0778  0.0509  0.0990
76984W        W20037  34.054  29.794   9.405 -0.0419  0.1071  0.0040
76985W        W20038   9.760  13.436   3.356 -0.3656  0.1015 -0.1862
76986W        W20039  18.500  15.162  25.989 -0.2172 -0.2348 -0.1367
76987W        W20040  22.972   9.336   7.639  0.2048 -0.0574  0.2461
76988W        W20041  20.467  26.467   4.031  0.1926 -0.0668  0.2218
76989W        W20042   5.078   8.907   5.497  0.0681  0.1506  0.0397
76990W        W20043  28.300   6.807   4.323 -0.0459  0.0421 -0.2113
76991W        W20044  22.418   6.914   4.292 -0.1695  0.0254 -0.3856
76992W        W20045   1.979  29.568  19.310  0.0479  0.1452  0.1091
76993W        W20046  16.641   6.341  15.141  0.0231 -0.1437  0.3278
76994W        W20047   8.477  32.907   4.248 -0.1067  0.2034 -0.0293
76995W        W20048   7.419  20.747  25.350  0.3968  0.3512  0.0034
76996W        W20049   9.599   0.210   6.261  0.1436 -0.1279  0.0353
76997W        W20050   7.808   4.135  28.531  0.2149  0.1973  0.0520
76998W        W20051  19.100  34.455  25.771 -0.3219  0.0801  0.0552
76999W        W20052  10.124   1.846   7.627 -0.1326  0.1086 -0.0810
77000W        W20053  26.388  32.247  20.679  0.0889  0.1233 -0.2554
77001W        W20054   6.043  27.168  29.189 -0.2565  0.0315  0.0811
77002W        W20055  12.810   6.970   5.290 -0.1806  0.2737  0.1491
77003W        W20056  32.087  32.570   9.556  0.1816 -0.3798  0.0075
77004W        W20057   2.182  27.737   9.266 -0.0569 -0.0644 -0.0413
77005W        W20058   3.990   2.917  24.667  0.0517 -0.1125 -0.2505
77006W        W20059  11.038  26.905   1.736 -0.0170 -0.0329  0.0512
77007W        W20060  13.379  29.516  22.588  0.2885  0.0175  0.0163
77008W        W20061  11.909   2.646  24.636  0.2269  0.0338  0.2721
77009W        W20062  10.571  15.006   6.770 -0.0619 -0.3195 -0.2347
77010W        W20063  26.391   1.068  16.879 -0.0996 -0.1537 -0.1847
77011W        W20064   9.643  19.648  15.850 -0.3941 -0.1008  0.2503
77012W        W20065  11.123  27.528   8.252  0.0514  0.0420  0.0954
77013W        W20066   2.103   0.484   7.442  0.2743 -0.0033 -0.1376
77014W        W20067   0.846   0.419   3.272 -0.1397  0.0754  0.1683
77015W        W20068   9.212   7.354   7.277 -0.1671 -0.1618 -0.2717
77016W        W20069   1.789   6.493  25.760  0.1928  0.0864 -0.1731
77017W        W20070  10.017  30.973  28.916  0.0321  0.4902 -0.0991
77018W        W20071  20.070   2.532  25.150  0.4262  0.1109  0.0330
77019W        W20072   6.001  29.209  26.381  0.3980  0.1978 -0.0108
77020W        W20073  22.057   1.025  16.928 -0.0061  0.1805  0.0895
77021W        W20074   1.159   5.207   4.952 -0.2114  0.2935 -0.1603
77022W        W20075  23.430  14.964   3.871 -0.2080  0.1044 -0.0279
77023W        W20076   6.591   5.957  25.808 -0.1913  0.4246  0.1203
77024W        W20077  17.954   5.978   0.896  0.2646  0.1156  0.0125
77025W        W20078   5.135  23.845   8.215 -0.1596 -0.1234  0.2566
77026W        W20079  29.868  32.737  17.470  0.0539 -0.3048 -0.1026
77027W        W20080  31.872   2.322  15.803  0.3009 -0.1525  0.1501
77028W        W20081  19.311  29.040   1.043  0.0280 -0.2089  0.2125
77029W        W20082   0.557   6.819   8.199  0.3463  0.4327  0.2080
77030W        W20083  12.151  21.669   2.269 -0.0121 -0.1049 -0.1813
77031W        W20084  14.558  32.491  22.946  0.3309 -0.1105  0.4297
77032W        W20085  21.713  26.243  25.728 -0.1297  0.0928  0.2652
77033W        W20086  24.213   6.447   6.302 -0.3126  0.1136  0.0384
77034W        W20087  12.550  27.896  21.289 -0.1573  0.3630  0.1263
77035W        W20088   0.455  17.183  18.420  0.1250  0.1652  0.0510
77036W        W20089  10.486  31.852  15.026  0.0004 -0.2476 -0.0859
77037W        W20090  18.231  29.889  15.222 -0.2593  0.0312 -0.2766
77038W        W20091  18.772   6.233   8.918 -0.0144  0.0176 -0.2121
77039W        W20092  18.102   0.371  21.063  0.0723 -0.0429 -0.0926
77040W        W20093   0.822  25.384   6.064  0.1585 -0.4626 -0.1504
77041W        W20094  34.623  12.208   6.159  0.1290 -0.1301  0.1968
77042W        W20095  18.912   5.500  27.904  0.2849  0.2812  0.0364
77043W        W20096   3.524  29.104   7.489 -0.2706 -0.2792  0.3487
77044W        W20097  17.031   6.245   5.185 -0.1067  0.1511  0.2142
77045W        W20098   4.013   0.172   6.210 -0.0125 -0.0472 -0.1840
77046W        W20099   6.968   9.377  10.589 -0.0220  0.1451 -0.3991
77047W        W20100  13.585   1.821   5.231 -0.0978  0.1966 -0.0628
77048W        W20101  22.312   2.134  25.921 -0.2572 -0.1413 -0.0935
77049W        W20102  19.587   5.503   7.424 -0.1012  0.0231  0.0407
77050W        W20103  17.840   6.800   8.572 -0.2010  0.0944 -0.0198
77051W        W20104  10.573   7.268  28.086  0.6066 -0.0274  0.0203
77052W        W20105   9.175   1.189  20.350  0.0446  0.0292  0.0479
77053W        W20106   3.122   5.572  22.632  0.3314 -0.2221 -0.2176
77054W        W20107  15.776   3.595   2.639 -0.3611 -0.0592  0.2079
77055W        W20108  15.375  19.499   0.989  0.2332  0.0788 -0.1127
77056W        W20109  15.972  22.525   3.104  0.0219 -0.0755  0.1239
77057W        W20110  17.193  33.755  16.725 -0.2563  0.1604 -0.1222
77058W        W20111  13.856   6.601   7.527 -0.0646  0.1652 -0.2520
77059W        W20112   5.402  34.182   7.096 -0.0740 -0.0237  0.1155
77060W        W20113   7.827  21.198  28.170  0.1123 -0.2054  0.1550
77061W        W20114  10.913  20.521  25.425  0.2981 -0.3501 -0.0787
77062W        W20115   9.219  33.924   8.868  0.0819 -0.1369  0.0399
77063W        W20116  14.547  30.663   8.629  0.1213 -0.0230 -0.0869
77064W        W20117   7.358   1.556  25.879  0.0109 -0.2882 -0.1619
77065W        W20118   6.164   8.546   7.246  0.0816 -0.0621  0.0999
77066W        W20119   1.559  10.406  23.408 -0.1077  0.2304 -0.0949
77067W        W20120  18.720   5.458   5.994 -0.2062  0.1038  0.1077
77068W        W20121  28.925  34.235   9.472  0.1414  0.2388  0.4296
77069W        W20122   9.629  32.954   4.956  0.0575 -0.1133 -0.2418
77070W        W20123  11.098   5.636   9.876  0.0180 -0.1230  0.3533
77071W        W20124  10.114  12.855  10.708  0.3519 -0.0070 -0.4989
77072W        W20125   8.370  18.617  22.112 -0.1579 -0.0538  0.3872
77073W        W20126  15.755  18.637   0.558 -0.2730  0.4363  0.1003
77074W        W20127  16.653  22.517   1.252  0.0027  0.2167  0.0401
77075W        W20128   0.949  11.142  20.655  0.2771 -0.2967  0.0011
77076W        W20129   3.742  32.924   8.627 -0.0086 -0.0432  0.2031
77077W        W20130  21.713  31.916  25.982  0.0726 -0.0495  0.2195
77078W        W20131  33.018  11.309  21.132 -0.0941  0.2362  0.0366
77079W        W20132   6.022  23.261  21.042 -0.0147 -0.1684 -0.2397
77080W        W20133   6.548   5.710   1.371  0.0056  0.1152 -0.3850
77081W        W20134   0.310   0.968  22.111  0.2302  0.4149 -0.1126
77082W        W20135   5.497  23.387   2.312 -0.2323 -0.0338 -0.0401
77083W        W20136   9.051   2.467  15.267  0.0482  0.0617 -0.0130
77084W        W20137  23.436   1.800   1.958 -0.0703 -0.0527  0.3495
77085W        W20138  29.045  17.574   4.052  0.0545 -0.2707 -0.4196
77086W        W20139  27.030   2.459   8.471 -0.0525  0.1025  0.0920
77087W        W20140   0.338  33.363  25.734 -0.0739 -0.0188 -0.1751
77088W        W20141  14.792   5.594   7.053  0.0981 -0.0143 -0.0901
77089W        W20142  15.287   0.064  10.463  0.1246 -0.0358 -0.2404
77090W        W20143  34.570  13.478   2.711 -0.1447 -0.3480  0.0866
77091W        W20144  11.929  31.223  27.646  0.0691 -0.4367 -0.0914
77092W        W20145  29.987  24.904  27.898  0.3196  0.2165  0.1432
77093W        W20146  15.188  21.893  21.868  0.1401  0.2887 -0.0414
77094W        W20147  14.193  31.813   2.669  0.0926 -0.1890 -0.1401
77095W        W20148  14.857  32.748   0.183  0.1277  0.0852  0.0005
77096W        W20149  32.784   6.059   5.767 -0.0655 -0.0308 -0.0447
77097W        W20150  10.668  10.572  26.334 -0.6026 -0.0738 -0.1605
77098W        W20151   4.357  19.932   1.531  0.0612 -0.1154  0.1232
77099W        W20152   2.806   0.691  26.561 -0.1020 -0.0972 -0.0570
77100W        W20153  16.344  27.464  27.666  0.3275  0.1067 -0.0871
77101W        W20154  12.860  25.230   4.784  0.0243 -0.2222 -0.1729
77102W        W20155   9.308  23.250  19.965  0.0497  0.1785  0.0782
77103W        W20156   4.542   3.987  28.122 -0.1289  0.1466  0.6582
77104W        W20157   0.139  31.257   7.841 -0.1552  0.2002 -0.0275
77105W        W20158   6.907   0.059  27.969  0.0066 -0.2752 -0.3163
77106W        W20159   3.995  11.521   6.100 -0.0552 -0.5860  0.0637
77107W        W20160   9.165   6.589  15.705 -0.0622  0.1810  0.0447
77108W        W20161  33.416   0.661  27.176  0.0221  0.4284 -0.1090
77109W        W20162  24.428  30.718   9.287  0.0466  0.4363  0.2732
77110W        W20163   6.563  17.238   1.634  0.1289  0.2483  0.0850
77111W        W20164  34.174   2.314   3.675 -0.0824 -0.4305  0.1043
77112W        W20165   1.851  16.564   3.534 -0.6227  0.2369  0.0616
77113W        W20166  23.560  31.281  29.182  0.0341  0.4276 -0.0369
77114W        W20167   8.932  14.823   6.785  0.1562 -0.0079 -0.3363
77115W        W20168  11.216  27.240   0.513  0.2532  0.0603  0.1421
77116W        W20169   7.665   6.398   7.681  0.3227  0.1235 -0.3758
77117W        W20170  14.648  28.142   6.662  0.2093 -0.0594  0.3130
77118W        W20171  28.831   5.950   6.932  0.3074 -0.0925 -0.0295
77119W        W20172  21.771   1.939  26.392 -0.0022 -0.1536  0.0458
77120W        W20173   6.211  26.772  17.457  0.0640  0.4688 -0.1267
77121W        W20174  32.987  31.214  22.328  0.0835  0.2179  0.3017
77122W        W20175  21.524  31.916  20.964 -0.2420  0.1682  0.1593
77123W        W20176  28.963   3.840   4.589  0.1307 -0.1015 -0.0958
77124W        W20177  33.239  23.982   2.532  0.3993 -0.4132  0.0685
77125W        W20178   6.688  24.165  27.276 -0.0697 -0.1308  0.0531
77126W        W20179   3.995   4.139   3.781 -0.1050  0.0732  0.0253
77127W        W20180  15.399  33.244   5.908 -0.0399  0.2097 -0.0754
77128W        W20181   2.129  24.460  28.262 -0.0187 -0.1165  0.2028
77129W        W20182  21.703   6.904  24.267 -0.1771 -0.0501  0.1097
77130W        W20183   5.231   1.054   4.555 -0.1704 -0.0033 -0.0780
77131W        W20184  34.507   7.678  10.313 -0.2578  0.2398  0.0279
77132W        W20185   4.760   2.422   2.713  0.1194  0.2243 -0.0732
77133W        W20186   8.619  31.708   1.626  0.0653 -0.1870 -0.4006
77134W        W20187  34.409  23.848   7.627  0.6587  0.2918  0.1621
77135W        W20188   5.901  33.006   5.387  0.1959 -0.1154  0.1815
77136W        W20189   7.479   2.000   5.282 -0.1195  0.0092  0.0540
77137W        W20190   6.349  23.067  21.559 -0.1991  0.4084 -0.3038
77138W        W20191  18.443  17.296   8.944 -0.0629 -0.0771 -0.3691
77139W        W20192   1.819  11.707   4.069  0.1231 -0.2503  0.0555
77140W        W20193  13.691   8.266   2.798  0.2604  0.3070  0.2115
77141W        W20194  19.384   5.120   2.943  0.2676  0.1068  0.0242
77142W        W20195  17.692  31.548   7.540 -0.0189  0.2052 -0.0279
77143W        W20196  10.159  14.106   2.581  0.1687  0.1458 -0.0788
77144W        W20197  32.205   5.714   0.962  0.1046  0.0514  0.1955
77145W        W20198   4.662  11.871   4.784  0.1877  0.0208 -0.0402
77146W        W20199   1.662  26.411   3.149  0.1404 -0.3677 -0.1366
77147W        W20200  13.571   7.885   0.288 -0.2175 -0.1496  0.1828
77148W        W20201   3.773  30.847  21.732  0.0363  0.0103  0.0754
77149W        W20202   8.835  32.300  24.804  0.1201  0.0582  0.0477
77150W        W20203   8.896   6.327   2.717  0.1241 -0.0725  0.1985
77151W        W20204   8.975   3.325   8.924 -0.2047 -0.1463  0.0349
77152W        W20205  34.647   3.167  29.082  0.0751  0.0162  0.0947
77153W        W20206  14.162  33.335   4.378  0.0207 -0.2454 -0.2924
77154W        W20207  15.547   5.784  26.249  0.1643  0.0552  0.0572
77155W        W20208   4.546   0.749   2.566 -0.2723 -0.0112 -0.1437
77156W        W20209  24.608  15.298   3.979  0.2190 -0.0490  0.0642
77157W        W20210  33.165   1.905  28.477 -0.1512  0.0807  0.0128
77158W        W20211   0.876  22.577   7.715 -0.1927 -0.0644  0.1256
77159W        W20212   2.129  29.386  25.443  0.0929  0.3671  0.0638
77160W        W20213  15.142  34.545   7.883  0.0957  0.2229  0.2214
77161W        W20214  20.737  30.901   9.174  0.6175 -0.0948  0.1253
77162W        W20215   5.766  32.455   6.551  0.0514 -0.2875 -0.0105
77163W        W20216  13.326  31.775   2.670 -0.0098  0.1565 -0.1739
77164W        W20217  30.495  22.071   8.011  0.2230  0.6012  0.3160
77165W        W20218   7.181  31.114   0.071  0.4507  0.3922 -0.0113
77166W        W20219  17.491  27.996   8.686  0.2866 -0.1455  0.0046
77167W        W20220   5.591  15.271  27.706 -0.1976  0.0758 -0.0475
77168W        W20221  24.052  12.641   2.707 -0.2127  0.2215 -0.0462
77169W        W20222   1.881  22.695   9.185  0.1341  0.1220 -0.2131
77170W        W20223  20.310   6.526   4.767 -0.2969 -0.1390 -0.1339
77171W        W20224  20.033  11.555   9.486 -0.0697  0.0235 -0.1569
77172W        W20225  14.778  13.835   2.256  0.0678 -0.0523 -0.0540
77173W        W20226   5.199  34.669  27.730  0.4540 -0.0235  0.0105
77174W        W20227  32.696  32.209  21.430 -0.0920 -0.3262  0.0324
77175W        W20228  21.264  34.619  23.835 -0.2280 -0.0348 -0.0099
77176W        W20229  33.077  29.763   1.740 -0.0044 -0.0090 -0.2123
77177W        W20230   8.282   6.934   3.874 -0.2093 -0.1362  0.1509
77178W        W20231  15.264  33.037   5.075  0.3008 -0.1436  0.4545
77179W        W20232  15.615  24.671   4.574 -0.0176 -0.4303 -0.0838
77180W        W20233  14.495   8.345   2.317  0.3157 -0.1733 -0.1573
77181W        W20234   7.893   1.462   6.936  0.0211  0.4487  0.1109
77182W        W20235  32.944   5.176   2.480 -0.1240 -0.3737 -0.1712
77183W        W20236  24.408   6.873  26.947  0.1164  0.2413 -0.1126
77184W        W20237   8.296  24.354  23.056  0.0172  0.2553 -0.0695
77185W        W20238   4.970   0.436   2.511  0.0207 -0.1175  0.1012
77186W        W20239   0.212   9.464   1.531  0.2042 -0.1221  0.0500
77187W        W20240   4.968  13.632   4.980  0.2739  0.3246  0.4750
77188W        W20241   9.453  20.967  26.770  0.0454  0.0825  0.0650
77189W        W20242   6.650  34.520  28.366  0.1044  0.0292 -0.2030
77190W        W20243   5.139  32.810   9.669 -0.2372  0.0888  0.0548
77191W        W20244  11.136  24.709   8.357  0.3309 -0.2549 -0.0147
77192W        W20245   0.649   5.998   9.697  0.0949  0.3181 -0.0589
77193W        W20246   3.022  21.521  24.100  0.1380  0.2454  0.0447
77194W        W20247  20.090   5.928  14.914  0.1644  0.1696  0.2584
77195W        W20248  16.495  25.992   8.942  0.0515 -0.1568  0.0198
77196W        W20249  20.424  29.783   9.012 -0.0737  0.4089 -0.0765
77197W        W20250  18.350  11.480   8.120 -0.0216  0.2739 -0.2766
77198W        W20251   9.291  32.851  25.836  0.0977 -0.1071 -0.0185
77199W        W20252  18.740  24.355   6.216  0.0532  0.1927 -0.2573
77200W        W20253  18.147  34.216   9.710  0.0559  0.1838 -0.1065
77201W        W20254   2.357   4.059  21.770 -0.2843  0.0824 -0.1990
77202W        W20255  11.716  30.670  22.545 -0.2282 -0.2416  0.2236
77203W        W20256  14.181  15.509  28.326 -0.0970  0.1169  0.1248
77204W        W20257  26.171   3.584  28.683 -0.1151  0.0819 -0.2170
77205W        W20258   1.196  12.155   7.507 -0.1417 -0.1996 -0.5785
77206W        W20259  18.206   2.215   4.351  0.1585  0.0559 -0.0669
77207W        W20260  34.178  30.960   1.964  0.1700 -0.1922 -0.2320
77208W        W20261  12.264  29.869   0.212 -0.1714  0.1724 -0.0329
77209W        W20262  27.776   9.381   1.312 -0.2641  0.0310 -0.1605
77210W        W20263  24.827  24.854   7.488  0.1367 -0.0530  0.0446
77211W        W20264  13.156  18.798  26.582 -0.3282  0.2357 -0.1204
77212W        W20265   8.556   7.544   6.063 -0.2060  0.0627  0.1550
77213W        W20266   6.464  13.935   4.612 -0.2941  0.1664 -0.0314
77214W        W20267  14.221  25.612  10.045 -0.1812  0.2023  0.0781
77215W        W20268   9.158   7.958   1.979 -0.1559  0.1543 -0.2616
77216W        W20269  27.157   8.643  10.647  0.1448 -0.2045 -0.0422
77217W        W20270   4.084   9.140   0.607  0.1600 -0.2170  0.1895
77218W        W20271   8.497   5.205  25.737 -0.1539  0.2995 -0.0539
77219W        W20272  17.574  33.819   7.408  0.0361 -0.2152  0.3292
77220W        W20273   7.064  33.093   6.771  0.0360 -0.1251  0.3038
77221W        W20274   6.412  20.153   4.910  0.0949  0.2285 -0.1740
77222W        W20275  29.433  27.595   1.810  0.0594  0.2722 -0.1201
77223W        W20276  30.179  24.987   6.048 -0.1363 -0.0470  0.2722
77224W        W20277  18.927   5.833   2.242 -0.1047 -0.2380 -0.2647
77225W        W20278  31.956  32.362  26.706  0.0733  0.2827  0.0732
77226W        W20279  26.311  29.265   0.802 -0.2273 -0.3044  0.1076
77227W        W20280  18.485  28.934   5.840 -0.3554  0.1101  0.0613
77228W        W20281  24.310  31.322   9.947  0.0568  0.0059 -0.0966
77229W        W20282  11.996   1.836   5.061  0.1694 -0.1035 -0.2127
77230W        W20283  15.002  19.368  25.687  0.1085 -0.1097 -0.1436
77231W        W20284  16.860  13.463   3.807 -0.1606 -0.0575  0.2291
77232W        W20285   9.932  34.508   2.844 -0.3684  0.0568  0.4016
77233W        W20286  14.370  25.415  25.920  0.0786  0.0687 -0.0168
77234W        W20287   4.603  20.645  19.804 -0.1417  0.4231  0.1930
77235W        W20288  34.599   8.754   6.025 -0.2530 -0.1667 -0.1032
77236W        W20289   4.391   7.141   1.327 -0.5265  0.0699 -0.2102
77237W        W20290  22.664   3.027   8.260 -0.2365  0.0240  0.0363
77238W        W20291   9.088   2.159  10.441  0.0446  0.0799  0.0992
77239W        W20292   5.770   4.371   5.780  0.2569  0.1673 -0.0592
77240W        W20293  19.522  28.607   5.552 -0.0792 -0.4559  0.1510
77241W        W20294  10.005   7.757   0.384 -0.0531  0.1330 -0.4285
77242W        W20295  32.599  33.131   8.366 -0.2564  0.0512 -0.1436
77243W        W20296  14.886   2.831  22.166  0.0490  0.1422 -0.0704
77244W        W20297  14.815  32.437   8.794  0.0261  0.3161  0.1106
77245W        W20298  11.513   2.190  28.706 -0.2431  0.1670  0.1513
77246W        W20299  23.303   9.805   0.375  0.3053 -0.0116 -0.3334
77247W        W20300  10.492  12.802  28.828  0.1340 -0.1028 -0.0151
77248W        W20301  14.420   7.554   8.250  0.0076  0.2083  0.2039
77249W        W20302  15.047  12.759  21.433 -0.1213 -0.0359  0.2217
77250W        W20303  18.776  34.355   0.909  0.2531 -0.0820  0.0628
77251W        W20304  34.220  26.426  22.930  0.0887 -0.3873 -0.0072
77252W        W20305  11.027  28.878   6.897  0.0511 -0.1498  0.1987
77253W        W20306  23.638  27.869  23.239  0.0530 -0.0618  0.1143
77254W        W20307   3.904   4.487   8.373 -0.1368  0.2865  0.0982
77255W        W20308   3.719   1.744   2.274  0.0595 -0.0819  0.0012
77256W        W20309  24.852   0.298   6.409 -0.0898 -0.0832 -0.1200
77257W        W20310   9.698   3.286   2.757 -0.0243  0.1220 -0.0245
77258W        W20311  15.344   1.198   0.956 -0.0491  0.0089 -0.0858
77259W        W20312  22.410  33.374   6.889 -0.0693 -0.1701  0.2869
77260W        W20313   8.106  31.871   7.195  0.0631 -0.1639  0.0541
77261W        W20314   7.633  27.183   6.157  0.3343 -0.1539  0.2090
77262W        W20315  11.291   5.833  17.562 -0.2273  0.3347  0.1805
77263W        W20316  32.743   1.062   0.007  0.2355  0.0134  0.1178
77264W        W20317  13.433  16.567   7.098  0.1348  0.1911 -0.1088
77265W        W20318  22.411  16.240   4.425  0.2764  0.0087  0.1358
77266W        W20319  23.890  13.143   1.872  0.1061 -0.0029  0.1460
77267W        W20320  34.571  10.347   2.327 -0.3094 -0.2192 -0.2980
77268W        W20321  16.967  18.525  26.583 -0.2025  0.2381  0.0907
77269W        W20322  20.810   1.899  10.195  0.1216  0.3767  0.2282
77270W        W20323  26.004  17.045   6.377  0.1093 -0.2506 -0.0375
77271W        W20324   8.283   4.780   9.854  0.4716 -0.1562 -0.1998
77272W        W20325  14.570  18.465  14.496 -0.2740  0.2384 -0.2087
77273W        W20326  23.874   9.221  27.225  0.1100  0.0450 -0.0695
77274W        W20327  16.880  13.821   4.245 -0.1212  0.2681 -0.2133
77275W        W20328  16.576  30.600   8.067  0.2031  0.1421  0.2024
77276W        W20329   1.259  24.434   5.401 -0.2424 -0.0149 -0.0887
77277W        W20330  26.313   2.607   6.832  0.2843  0.0917  0.3567
77278W        W20331   5.814   1.693  18.244  0.0151  0.1063  0.1721
77279W        W20332  15.452   2.671  28.415 -0.2108 -0.1676 -0.1107
77280W        W20333  10.723   5.828   9.534 -0.1042 -0.3003 -0.3080
77281W        W20334  14.297  13.991   5.057  0.0510 -0.0910 -0.0337
77282W        W20335  21.422   2.814  28.390  0.0287  0.0766 -0.0105
77283W        W20336  14.351  24.343   0.638 -0.0134  0.0090 -0.3522
77284W        W20337   3.509   4.437   2.964  0.0400  0.1869  0.0467
77285W        W20338  31.437  17.174  27.038  0.0840  0.0654 -0.1191
77286W        W20339   8.899  20.762  18.368  0.0926 -0.0141  0.0057
77287W        W20340  12.686   1.339  22.483  0.2623  0.4872  0.0467
77288W        W20341  33.166  19.673  24.631 -0.0283 -0.1236 -0.2212
77289W        W20342  13.429  24.088   9.600 -0.0913  0.0537 -0.1671
77290W        W20343  11.014  10.728   3.540 -0.0554  0.2036 -0.3123
77291W        W20344  19.292  33.979   5.520  0.3199 -0.0589 -0.1205
77292W        W20345   4.635  30.781   3.089  0.0007 -0.0636  0.0892
77293W        W20346  10.452  15.392   2.370 -0.0762  0.1164 -0.1586
77294W        W20347  29.129   2.108   5.665 -0.0877  0.2313  0.0412
77295W        W20348  23.296  29.651   7.225  0.2032  0.1944 -0.0662
77296W        W20349  11.677   7.875   7.601 -0.0522 -0.1343  0.0288
77297W        W20350  13.553  26.286   8.876  0.0211  0.1103  0.1808
77298W        W20351  18.545  14.446   5.018  0.1274  0.1654  0.0755
77299W        W20352  14.044  19.032   0.770  0.0417  0.0143  0.1930
77300W        W20353  14.520   0.768   4.610 -0.2550  0.0383  0.1575
77301W        W20354   5.101  31.803   6.728  0.1649 -0.2373 -0.0915
77302W        W20355   1.178  34.157  23.807 -0.0268  0.1576 -0.1532
77303W        W20356  27.629  28.664   4.322  0.4291 -0.2968 -0.1345
77304W        W20357   2.027   2.880  21.144  0.0655 -0.1169 -0.2527
77305W        W20358  32.831  31.342   7.109 -0.1830 -0.1427  0.1183
77306W        W20359  34.605   1.200  15.378 -0.5291 -0.1475  0.0062
77307W        W20360   3.401   9.498  20.958  0.1655  0.2116 -0.0296
77308W        W20361  14.533   4.432  18.909 -0.0596 -0.2257  0.0873
77309W        W20362  14.114   4.681   3.662  0.3253 -0.0176  0.1167
77310W        W20363   8.705   3.591  26.820  0.0810 -0.1081  0.4733
77311W        W20364  19.547   1.067   3.506  0.2497 -0.0117 -0.0693
77312W        W20365  13.108   0.533  28.153 -0.2755 -0.0305  0.1305
77313W        W20366   8.446   1.696   9.813  0.0364  0.2921 -0.0313
77314W        W20367  16.058   6.397   7.873 -0.1036  0.4686 -0.0699
77315W        W20368  10.360  13.387   9.264 -0.2070 -0.3518  0.1276
77316W        W20369   3.462  32.204  26.175 -0.1789 -0.0586  0.3101
77317W        W20370   1.188  12.409   7.092 -0.1196 -0.2981  0.0221
77318W        W20371  12.861   3.221   9.036 -0.0042  0.2690  0.2279
77319W        W20372   7.542  32.584  26.176 -0.2292 -0.0702 -0.3029
77320W        W20373  16.844   0.005   5.660  0.3528 -0.0625  0.1197
77321W        W20374   9.567  18.686  15.495  0.0417 -0.0676 -0.1591
77322W        W20375  34.320   0.250  26.823  0.0550 -0.3162  0.1515
77323W        W20376  10.989   8.346   6.651  0.1336 -0.2002  0.2876
77324W        W20377  15.080  31.620  10.309  0.2788  0.0084 -0.1155
77325W        W20378  16.500   0.562   3.581 -0.2241  0.2034 -0.0459
77326W        W20379   0.260  34.170   5.645 -0.0306  0.1146 -0.1457
77327W        W20380  29.878  10.835   3.276 -0.1095  0.3578  0.0718
77328W        W20381   3.815  29.563   0.657 -0.2203 -0.0625  0.0050
77329W        W20382  13.138  30.513   4.058 -0.2888 -0.1983  0.3108
77330W        W20383  22.421  22.088   3.145  0.3070  0.0446 -0.4586
77331W        W20384  16.300  25.728   5.910  0.2982 -0.0687 -0.0215
77332W        W20385   8.197  28.125  24.400  0.0092 -0.1087  0.0360
77333W        W20386  27.340  12.173   5.107 -0.2748  0.2084 -0.0378
77334W        W20387  29.086   2.815  20.837  0.0434 -0.0918  0.1624
77335W        W20388   7.571  31.512   3.723  0.0871 -0.1996 -0.2027
77336W        W20389  27.362   5.931  20.797  0.1732 -0.1752  0.0367
77337W        W20390   3.669  14.893   5.717  0.1988  0.3561  0.0657
77338W        W20391  10.525  33.832   9.829 -0.0212 -0.3839  0.2716
77339W        W20392  19.601  23.783   9.147 -0.1331  0.4298 -0.0416
77340W        W20393  31.396  10.109   5.801  0.1618 -0.2414  0.0292
77341W        W20394  23.861   7.256   2.127 -0.1605 -0.0324 -0.2271
77342W        W20395  34.613  33.296  25.963 -0.1621 -0.1404  0.1780
77343W        W20396  33.979   3.693   8.017  0.1734 -0.1811  0.0511
77344W        W20397  29.859   2.242  17.570 -0.1034  0.2167  0.2509
77345W        W20398   5.471  12.840   3.331  0.2616  0.1210  0.1024
77346W        W20399   1.262  29.144  24.623  0.2896 -0.2055  0.2402
77347W        W20400  33.016  30.142   8.069  0.0074  0.1001  0.0341
77348W        W20401  16.724  32.640  22.053  0.1505 -0.2167 -0.1825
77349W        W20402  17.368  26.526  28.497  0.2060  0.1262  0.1039
77350W        W20403   4.697  31.719   3.002 -0.0901  0.0815  0.0497
77351W        W20404  25.016   9.833  25.437 -0.0266  0.0201 -0.0268
77352W        W20405  12.323  34.480   6.061 -0.0206 -0.1089 -0.0496
77353W        W20406   9.396  25.808   5.601  0.1444  0.3458  0.2162
77354W        W20407   9.880  30.259   1.908  0.2269 -0.0402 -0.1080
77355W        W20408   4.777   0.008   0.530  0.3316 -0.0055 -0.0839
77356W        W20409   2.827  26.375  16.427 -0.0448 -0.1828  0.1868
77357W        W20410  17.292  29.428  23.598  0.3082 -0.0403  0.0617
77358W        W20411  16.195   0.912   3.527 -0.1432  0.0746 -0.3551
77359W        W20412  25.015  10.606   0.011 -0.0499 -0.2292 -0.3369
77360W        W20413   2.568   1.735  27.628 -0.1574  0.3938  0.1918
77361W        W20414  26.173  26.600   4.842  0.2135  0.2653 -0.0854
77362W        W20415   6.614  14.074   4.121 -0.0882 -0.1872  0.0991
77363W        W20416  16.213  10.514   8.533  0.1189 -0.0096 -0.0537
77364W        W20417  21.094   9.258  26.639 -0.1302  0.1922  0.2439
77365W        W20418  11.742  19.407  21.629  0.2535  0.1766  0.0197
77366W        W20419  14.386  32.061  25.584  0.1314  0.1841 -0.0842
77367W        W20420  26.657   6.338   9.046 -0.0429 -0.0520  0.1552
77368W        W20421  22.299   4.840   2.284 -0.2526 -0.0567  0.0774
77369W        W20422   6.946   0.735   1.691 -0.0112 -0.0431 -0.0285
77370W        W20423  10.940  14.897  23.344 -0.2351  0.0879 -0.0751
77371W        W20424  10.898  10.946   1.894  0.0087 -0.3429  0.1996
77372W        W20425  12.473  32.822   7.037  0.1212 -0.3516  0.0347
77373W        W20426   0.094  32.126   6.387  0.2401  0.1205 -0.3255
77374W        W20427  27.173  27.790   0.061  0.1192  0.2346 -0.2817
77375W        W20428  22.519   4.421  28.408  0.0413 -0.0754 -0.2694
77376W        W20429  22.409   6.818   2.712 -0.3236  0.1134  0.0189
77377W        W20430   7.262  21.177   7.703 -0.1441 -0.0969  0.1677
77378W        W20431  15.068   0.220   8.654 -0.1803  0.0185  0.0072
77379W        W20432  10.427  26.710  25.892 -0.1649  0.0726  0.1665
77380W        W20433  13.644  24.670   0.095  0.0954  0.1548  0.2341
77381W        W20434  18.046  26.913   9.129  0.3856  0.0122  0.0712
77382W        W20435   1.108  28.814   6.782  0.2718 -0.1002  0.2611
77383W        W20436   1.705  26.879  27.820  0.1067  0.0471 -0.1278
77384W        W20437   5.446   7.847  17.552  0.2578 -0.2795  0.0895
77385W        W20438  13.023   4.328   1.207  0.1723 -0.0658  0.0285
77386W        W20439   9.465  23.587   7.463  0.0677  0.3073 -0.1892
77387W        W20440  32.190  31.856   7.966  0.0774 -0.4710  0.2384
77388W        W20441   7.369  34.392   9.838 -0.0337 -0.0988 -0.0645
77389W        W20442   2.268  27.161   7.727 -0.1413 -0.0514 -0.1314
77390W        W20443   5.222  18.091  27.431 -0.1334  0.0471  0.3098
77391W        W20444   1.688  16.728  27.893  0.4199 -0.0501  0.1479
77392W        W20445  15.023  13.709   8.973 -0.1511 -0.0598  0.0045
77393W        W20446  34.571  20.241  22.938 -0.1977  0.1519  0.1503
77394W        W20447  10.522   7.281   3.996  0.0944  0.4705  0.5137
77395W        W20448   4.949   3.928   2.432 -0.0503  0.2291 -0.0740
77396W        W20449  19.619   7.606  28.146  0.0423  0.1457  0.0462
77397W        W20450  13.336  33.370   6.160  0.2344  0.2825  0.2301
77398W        W20451  11.541  33.775  18.642  0.4323  0.1528  0.1995
77399W        W20452  14.166  19.940  20.964 -0.0423 -0.0460  0.1152
77400W        W20453  11.670  34.240  28.355 -0.0523  0.1133  0.5762
77401W        W20454   8.626   6.986   8.444  0.0115  0.1561  0.1093
77402W        W20455  34.646  18.808  19.876  0.0363  0.1178 -0.0779
77403W        W20456  18.642   2.994   1.351 -0.3754 -0.2811 -0.0840
77404W        W20457  13.965  23.977   3.290 -0.0898 -0.1966  0.0248
77405W        W20458   2.453  31.323  26.143  0.3251 -0.2599 -0.5810
77406W        W20459   9.412  23.510   5.856 -0.1548 -0.1813 -0.0534
77407W        W20460  15.969  25.356   0.624  0.0369  0.1445  0.0309
77408W        W20461   8.578  27.642   1.910 -0.0219 -0.1367 -0.1979
77409W        W20462  15.289  18.834   6.320  0.0625 -0.0119  0.0764
77410W        W20463  14.885   3.139  26.234 -0.0405 -0.0009 -0.3375
77411W        W20464  30.902  14.025   1.735  0.1190 -0.0218 -0.1074
77412W        W20465  21.798   9.670   4.788 -0.1520 -0.2285 -0.3578
77413W        W20466   4.824   2.795  27.354 -0.2298  0.1108 -0.1716
77414W        W20467   9.721  33.013   0.613  0.4108  0.2514 -0.1029
77415W        W20468   4.659  10.899   4.475  0.0909 -0.1456 -0.2035
77416W        W20469  28.709   2.177  19.229 -0.0891  0.3902  0.3559
77417W        W20470  10.325  11.836  10.223 -0.1374  0.0369 -0.2411
77418W        W20471  27.581   1.904   4.374  0.4615 -0.0517 -0.0970
77419W        W20472   9.429   6.931  27.105 -0.1299 -0.3418  0.0998
77420W        W20473  11.167   6.458  10.366 -0.1721 -0.2559 -0.0349
77421W        W20474  29.600  33.870   5.319 -0.2742 -0.1357  0.1136
77422W        W20475  25.334  14.641   9.688 -0.1012 -0.2288 -0.2462
77423W        W20476  15.548  11.443   4.726  0.0805 -0.1366  0.1701
77424W        W20477  17.301  30.496   3.208 -0.0395 -0.2643  0.5091
77425W        W20478  12.540   8.608   4.228  0.2267  0.0914 -0.1656
77426W        W20479   5.740  29.761   1.237 -0.1383 -0.1840 -0.1377
77427W        W20480  12.308  26.033  19.929 -0.0423  0.0595 -0.0720
77428W        W20481  31.611  14.171  21.824 -0.0108  0.2689  0.2419
77429W        W20482  12.936   2.088   7.751 -0.1076 -0.3292  0.1941
77430W        W20483  16.107   9.679   6.917 -0.0130 -0.0742  0.1484
77431W        W20484  27.163  31.869   4.514  0.1042  0.1426  0.0360
77432W        W20485   6.622   8.760  11.340  0.2320  0.0366  0.2204
77433W        W20486  21.302  27.360   1.865 -0.0137  0.0568  0.1568
77434W        W20487  20.481  31.150   1.890 -0.0241 -0.3711 -0.1069
77435W        W20488  32.203  22.439   4.249  0.4951  0.1688  0.0115
77436W        W20489  31.416   8.804  24.043 -0.0012  0.2483  0.4460
77437W        W20490  16.454  30.886   7.340 -0.4057  0.3512  0.5177
77438W        W20491  11.191   0.290  28.235  0.0169 -0.2291 -0.1161
77439W        W20492  11.932   0.873  21.438 -0.3302  0.0185  0.0332
77440W        W20493  14.098  29.012  22.673 -0.1729  0.0966  0.0324
77441W        W20494  16.143  32.836   8.901 -0.0457 -0.0618 -0.0092
77442W        W20495  17.355  31.150  11.283  0.1329  0.1976 -0.0106
77443W        W20496  14.392  33.241   3.455  0.4215 -0.1917  0.2870
77444W        W20497  34.555  15.388  25.971 -0.2978 -0.0446  0.0267
77445W        W20498  12.330  24.979   3.368 -0.0159  0.1571 -0.0929
77446W        W20499   6.442  27.923  25.648  0.0609 -0.0379 -0.0150
77447W        W20500   8.520  26.878  21.862  0.0111 -0.2216 -0.2581
77448W        W20501  26.149  30.814  22.870  0.0274 -0.2140  0.1133
77449W        W20502  26.129  26.975  23.970 -0.3036  0.1205 -0.2167
77450W        W20503  12.497   6.618  23.985  0.2490  0.3099  0.2572
77451W        W20504  24.162   5.582   3.771 -0.0842 -0.2162  0.1655
77452W        W20505  12.041   6.975  22.024 -0.1125  0.1720  0.0561
77453W        W20506   3.163   5.415   1.834 -0.0063  0.1303  0.1243
77454W        W20507  17.305   3.262   5.272  0.0293  0.3405  0.3489
77455W        W20508  15.326  20.891   5.264 -0.2454 -0.0598  0.0429
77456W        W20509   9.854   8.100  10.159  0.2441 -0.1874 -0.1437
77457W        W20510   3.296   3.032   2.664  0.1069 -0.0965 -0.0345
77458W        W20511  10.899   5.369   4.345  0.5401 -0.1237  0.0263
77459W        W20512   7.849  15.742   4.803  0.0379  0.0999 -0.0871
77460W        W20513  14.063  23.765   2.868 -0.0567  0.0297  0.0887
77461W        W20514  19.987  29.686   2.858  0.1573  0.0192  0.1323
77462W        W20515  10.364  27.587   2.028 -0.3036  0.1245  0.2785
77463W        W20516  14.352  29.508  26.190 -0.0465  0.1606  0.2586
77464W        W20517   2.636  18.669   2.656  0.3096 -0.2507  0.0722
77465W        W20518  14.571   2.127   9.500  0.1443  0.0339  0.1451
77466W        W20519   4.253   6.042  18.910 -0.1941 -0.0427  0.1635
77467W        W20520   9.338   4.967  27.882 -0.3453 -0.0887  0.3279
77468W        W20521   8.186   9.596  26.652 -0.2056  0.1572 -0.0038
77469W        W20522  32.094   4.251  24.256 -0.2166  0.1171 -0.0397
77470W        W20523   1.030  33.303   4.173  0.0933 -0.2441 -0.1145
77471W        W20524  34.247  14.998  21.894 -0.1163  0.0036  0.1807
77472W        W20525  19.524   9.312   1.596 -0.0103 -0.2598 -0.1778
77473W        W20526  11.912  28.761  14.640 -0.1501  0.0607  0.5521
77474W        W20527   5.269  17.746   8.742 -0.0614 -0.3724  0.4492
77475W        W20528   0.050  32.103   5.368 -0.0096 -0.0552  0.2036
77476W        W20529  16.076  29.272  27.665  0.4473 -0.1002  0.0511
77477W        W20530  20.737  28.538  14.094 -0.2057 -0.0307  0.0610
77478W        W20531  14.874  23.718   6.347  0.1635 -0.2383 -0.2221
77479W        W20532  16.589  15.841   2.159  0.3317  0.0758 -0.2558
77480W        W20533  16.848  23.091   4.026  0.1047 -0.1742  0.1376
77481W        W20534   3.375  25.095  28.372 -0.0861 -0.2821  0.2208
77482W        W20535  15.346  28.407   0.538  0.1163  0.2749  0.1650
77483W        W20536   9.813  34.034  21.533  0.1740 -0.0608 -0.5034
77484W        W20537  13.109   7.254   5.595  0.1672 -0.1027 -0.0406
77485W        W20538  26.737   1.019   3.147  0.2404 -0.1010 -0.0308
77486W        W20539   6.842  24.513   3.883 -0.0197  0.2879 -0.0233
77487W        W20540  23.503  29.658   9.437  0.0446  0.0674 -0.2096
77488W        W20541  24.311   3.244  27.373 -0.4079 -0.3048 -0.0780
77489W        W20542  30.509  30.928  27.846 -0.0759  0.2134  0.0087
77490W        W20543  26.284  10.748   3.403  0.0471 -0.0065 -0.1476
77491W        W20544  14.776   3.211   6.129  0.2860  0.1542  0.0655
77492W        W20545  15.536   4.949  22.173 -0.0763 -0.0184  0.0493
77493W        W20546  32.040   1.334   9.479  0.1307  0.1508 -0.0991
77494W        W20547  12.266   2.273  24.713  0.1822  0.1639 -0.3253
77495W        W20548  14.947  29.807   7.493 -0.0079  0.0876  0.0451
77496W        W20549  34.452  33.385   8.022 -0.1681  0.0314  0.1268
77497W        W20550  20.471  10.293  28.495 -0.0719 -0.4244 -0.1626
77498W        W20551  17.036  22.301  21.842  0.0748 -0.0770 -0.2413
77499W        W20552  15.086  30.107  21.730  0.0809 -0.0174 -0.1044
77500W        W20553   1.055   9.020  20.144 -0.1950  0.0324  0.2054
77501W        W20554   9.080  23.672   4.157 -0.1038 -0.0986 -0.1564
77502W        W20555   0.788  18.203   0.392 -0.0685  0.0149 -0.0982
77503W        W20556  20.418   7.424   4.570  0.3335 -0.3321  0.2102
77504W        W20557  12.630   6.116  24.196 -0.1523  0.0765 -0.0404
77505W        W20558  27.223  15.570   2.755  0.1619  0.5627  0.0905
77506W        W20559   9.531   2.421   3.484 -0.1723 -0.0498  0.3078
77507W        W20560   3.915   0.652   4.392  0.0817 -0.2872 -0.0564
77508W        W20561  22.567  11.154   8.901  0.0539 -0.0644 -0.1846
77509W        W20562  31.886  27.197  27.545 -0.0662 -0.0342 -0.2469
77510W        W20563   2.704  34.016  28.431 -0.1559  0.2756 -0.1219
77511W        W20564  15.650  31.362   2.513  0.0434  0.0283  0.0162
77512W        W20565  12.042   0.566   9.428 -0.0461 -0.1742  0.1581
77513W        W20566   5.335  25.743   7.653 -0.1905 -0.1109  0.1428
77514W        W20567   0.841  18.581  27.944  0.1694  0.0436  0.1767
77515W        W20568  18.218   1.032   9.874 -0.0496 -0.0007  0.1395
77516W        W20569  31.426   1.133   6.918 -0.2077 -0.1410  0.0195
77517W        W20570  33.294   2.106   5.823 -0.2889 -0.2097  0.3205
77518W        W20571  34.444   1.567   3.616 -0.0570 -0.1994  0.2451
77519W        W20572  25.116  30.938  19.704 -0.0843 -0.0916  0.1506
77520W        W20573  21.018   0.389  15.502  0.1865 -0.1016  0.0753
77521W        W20574  13.763  16.256   9.715  0.0124  0.0260  0.1610
77522W        W20575  30.947   6.341   8.220  0.0429  0.0164  0.2483
77523W        W20576   9.857  16.743   9.180 -0.1344 -0.1859  0.2411
77524W        W20577  13.733  30.311  21.272  0.0947 -0.0378 -0.0722
77525W        W20578   1.610   6.486   7.116  0.0216 -0.1195 -0.4558
77526W        W20579   7.294  16.342   8.496 -0.0978  0.0882 -0.1569
77527W        W20580   8.082  22.576  19.895 -0.0789  0.1573 -0.1488
77528W        W20581  21.069  29.973   4.152  0.1111  0.0558  0.1323
77529W        W20582  19.232   8.661   8.277 -0.4407  0.2530  0.1743
77530W        W20583   1.773  30.047   5.572 -0.1066 -0.0235 -0.0174
77531W        W20584  14.552  15.241   6.386  0.0371 -0.3220  0.4851
77532W        W20585  29.623  31.780  21.945  0.1282 -0.0530 -0.2821
77533W        W20586   6.571  13.557  28.256  0.3793 -0.3555 -0.1585
77534W        W20587   7.281  22.299  22.825 -0.0950 -0.1062  0.2445
77535W        W20588   9.964  15.099   7.680  0.1328  0.1319  0.1166
77536W        W20589  34.356  10.320   2.805  0.0027  0.1711  0.1435
77537W        W20590  16.928  15.496  23.182 -0.0491 -0.3193 -0.1041
77538W        W20591  12.703  20.352   3.457 -0.1106 -0.0879  0.3921
77539W        W20592  26.202  29.175  22.473  0.2289  0.2525 -0.3521
77540W        W20593  14.638  21.634  16.138  0.2154 -0.4383  0.1423
77541W        W20594  22.663  29.720   8.443  0.0526 -0.1154  0.0948
77542W        W20595  26.189   5.187   6.127 -0.0212  0.0591  0.1112
77543W        W20596  12.129  33.914  27.104  0.0942  0.0385 -0.2690
77544W        W20597  21.529   4.605  26.266 -0.0616 -0.2953  0.0487
77545W        W20598  11.467   4.423  27.736  0.1841 -0.0287  0.0428
77546W        W20599  11.006  34.117   3.833 -0.0057  0.3955 -0.1403
77547W        W20600  10.715   9.558  24.245  0.3910 -0.0091  0.2620
77548W        W20601   6.259  13.552   4.805 -0.1369  0.2791 -0.3049
77549W        W20602  13.454  22.233   7.064 -0.0627 -0.1532  0.2869
77550W        W20603  30.924  33.343  27.340  0.1022 -0.0379 -0.0121
77551W        W20604  28.851  26.187   2.904 -0.0805 -0.1614 -0.4496
77552W        W20605   9.214  28.831  24.144  0.0245  0.0617 -0.1528
77553W        W20606  33.229   2.379  26.959  0.0672  0.0804  0.1977
77554W        W20607  27.627   5.501  22.802 -0.2554  0.0831  0.1877
77555W        W20608  12.074  27.829   9.009  0.0693  0.0238 -0.0507
77556W        W20609  16.311  33.646  28.863  0.2705 -0.1788  0.1697
77557W        W20610  19.309  22.281  25.253  0.2483 -0.1335 -0.0168
77558W        W20611   8.521   5.579  10.452 -0.3319  0.0327 -0.0172
77559W        W20612  20.778  31.878  28.798  0.0476 -0.0974 -0.3382
77560W        W20613   1.548   3.260   8.488 -0.1706  0.5312  0.2987
77561W        W20614  22.659  31.142  10.840  0.1049  0.0858  0.1729
77562W        W20615  18.499  29.580  10.941 -0.0819 -0.2628 -0.0337
77563W        W20616  14.675  32.392   4.786  0.0961 -0.1078  0.1133
77564W        W20617  15.203  10.694  25.681 -0.0917  0.4584 -0.2774
77565W        W20618  17.287  33.711   8.428 -0.1750 -0.0013 -0.0265
77566W        W20619  25.084  10.375   9.431  0.0418  0.0776  0.2365
77567W        W20620  12.120  10.968   9.919  0.0640  0.1888 -0.1158
77568W        W20621  10.141   5.470  24.110 -0.2158  0.1850  0.0679
77569W        W20622   4.766  32.377  25.828 -0.0172  0.2215 -0.0840
77570W        W20623  22.439   2.412  25.054  0.0685 -0.2265 -0.0423
77571W        W20624  34.229   2.587  25.268 -0.2676 -0.2953 -0.0076
77572W        W20625  13.422  23.464   8.838 -0.0281  0.2207  0.4830
77573W        W20626   8.590   8.263  27.044  0.2559  0.1976 -0.3997
77574W        W20627   0.813  33.583   8.143 -0.1216  0.0821  0.2446
77575W        W20628  24.595  26.223   3.812  0.1488  0.1132  0.2034
77576W        W20629   9.471  25.691  19.443  0.2037 -0.1056 -0.0511
77577W        W20630  11.994  13.014  11.118 -0.1082 -0.0905  0.0231
77578W        W20631   1.049  23.051   1.866 -0.1304  0.0801 -0.2385
77579W        W20632  22.952  14.344   9.201 -0.1023 -0.1109 -0.1505
77580W        W20633  18.144  34.343   5.688  0.0752 -0.0923  0.0046
77581W        W20634  32.029   3.184   1.077  0.0538 -0.1702 -0.1756
77582W        W20635   6.487  15.785   1.526  0.0144  0.0198  0.0379
77583W        W20636  19.794   8.212  26.686  0.2753  0.2657  0.2532
77584W        W20637  26.108  26.458  26.203 -0.1292 -0.0275 -0.3068
77585W        W20638   4.102   4.904   2.980 -0.2380 -0.3308  0.1202
77586W        W20639   6.647  21.169   4.793 -0.0134  0.0388 -0.2724
77587W        W20640  12.731  30.654   8.326 -0.0024 -0.0009  0.2933
77588W        W20641   7.491  10.562   5.749  0.0828  0.0168 -0.1152
77589W        W20642  21.400  30.929  29.088  0.0097  0.1169  0.0252
77590W        W20643   8.772   5.283   4.091  0.0775 -0.2043  0.4269
77591W        W20644  24.465   8.324   8.927 -0.1114 -0.0365  0.1493
77592W        W20645  16.865   7.548  28.568 -0.3134 -0.0246  0.0302
77593W        W20646  10.970  34.072   7.622  0.1490 -0.1323 -0.1490
77594W        W20647   9.841   0.700   8.538  0.3637 -0.2087  0.1574
77595W        W20648   5.199   3.109   3.364 -0.1978 -0.3008  0.0622
77596W        W20649   9.818  32.913  26.406  0.0085  0.0303 -0.1177
77597W        W20650   6.325  30.823   8.059 -0.0681  0.0596  0.1911
77598W        W20651  12.237  14.513   3.464  0.1240  0.3120  0.0460
77599W        W20652  34.138  34.084   8.603 -0.0293  0.0989  0.0498
77600W        W20653   4.381   3.179   9.675 -0.3294  0.0465  0.0268
77601W        W20654  31.215   1.866   2.115  0.2452  0.1317  0.0889
77602W        W20655   4.705  25.521   3.915  0.2894 -0.1358  0.0693
77603W        W20656  25.203  23.180   8.454 -0.1144 -0.0419 -0.0985
77604W        W20657  26.297  31.621  20.172  0.0479 -0.0913  0.0522
77605W        W20658   7.563  32.385  16.261 -0.0792  0.1986 -0.0192
77606W        W20659  16.085   2.687  26.858  0.1781 -0.0275  0.1922
77607W        W20660  21.979   4.846   8.131  0.1729  0.1376  0.0288
77608W        W20661   8.829   6.725   4.139  0.2157  0.4028  0.0359
77609W        W20662  17.287  10.376   6.876 -0.1964  0.1135 -0.0406
77610W        W20663   3.410  23.340   1.060 -0.0090  0.0260  0.0998
77611W        W20664  11.828  22.652  14.613 -0.3735  0.1573  0.1347
77612W        W20665   6.534   0.286  27.474  0.0014  0.1029 -0.1637
77613W        W20666   1.591  32.206  19.157 -0.0840  0.0285 -0.0098
77614W        W20667   9.256   5.659   1.227  0.0017 -0.0448 -0.2141
77615W        W20668   6.946  23.842   8.029 -0.0260  0.1023 -0.1726
77616W        W20669   7.002   0.229   6.751 -0.3039 -0.0444 -0.0643
77617W        W20670   0.706  24.096   9.305  0.1602 -0.0377 -0.1638
77618W        W20671   3.044  30.083  29.012 -0.1983  0.1301  0.0098
77619W        W20672  33.531  22.211   2.741 -0.1518 -0.0022 -0.0955
77620W        W20673  17.214  10.253   6.328 -0.0986 -0.1995  0.2527
77621W        W20674   9.551   7.593   1.189 -0.0301  0.0630 -0.1053
77622W        W20675   3.890  34.644   5.730 -0.1794 -0.0868  0.2019
77623W        W20676   7.255  27.473   3.598 -0.3097 -0.3012  0.0066
77624W        W20677  19.046  13.994  24.022 -0.0752  0.0009 -0.0204
77625W        W20678  34.255  32.299   0.859  0.1778  0.0637  0.1239
77626W        W20679  17.074   0.887  28.584  0.1727  0.0743  0.4137
77627W        W20680  11.828  10.104  28.251 -0.1681  0.0665 -0.4110
77628W        W20681  10.453  11.316  27.634  0.0085 -0.2359  0.2789
77629W        W20682  30.137  11.151   2.182 -0.0988  0.3094  0.1176
77630W        W20683  10.226   6.743   6.111  0.0460 -0.0722  0.1897
77631W        W20684   0.660  29.413  22.694 -0.2817 -0.1963  0.1602
77632W        W20685   5.253   2.575   6.541  0.1869 -0.3466 -0.0210
77633W        W20686  13.236   1.178  23.002 -0.2050  0.0034 -0.0226
77634W        W20687  11.759  24.776   1.827 -0.2441 -0.0704  0.0967
77635W        W20688  16.725   6.884   6.283 -0.0678 -0.1168  0.0283
77636W        W20689  16.529  16.818   5.783 -0.1032  0.0274  0.0392
77637W        W20690  14.048   4.274   9.668 -0.0893 -0.1449 -0.1773
77638W        W20691  16.775  12.480   7.860  0.0948  0.0002  0.0956
77639W        W20692  14.162  31.849   7.536  0.1079 -0.0956 -0.0988
77640W        W20693   3.755   1.363   6.945  0.1511 -0.0965  0.1458
77641W        W20694   8.065   5.588  21.202 -0.0384 -0.0623  0.0946
77642W        W20695  17.332   0.514   7.687 -0.0320 -0.0061  0.0722
77643W        W20696   4.530   5.107   8.230  0.1705 -0.1051 -0.0191
77644W        W20697   4.055  26.331   9.383  0.2909  0.0573  0.1258
77645W        W20698  19.698  26.255  10.344 -0.1308 -0.0986  0.2756
77646W        W20699   2.024  19.324  28.110  0.0776  0.2714  0.0025
77647W        W20700  12.803   7.843   4.460  0.1420 -0.2289  0.1487
77648W        W20701   7.004  22.717   0.902  0.1339 -0.2769 -0.1640
77649W        W20702  29.155   8.004   8.097  0.2805  0.1503 -0.2553
77650W        W20703   3.763   0.844   2.371 -0.0043  0.0863 -0.4045
77651W        W20704  26.892  21.483  21.053  0.1881 -0.1415 -0.0332
77652W        W20705  33.952  14.639  28.227  0.0986 -0.1398 -0.3005
77653W        W20706  22.636  19.386   9.417  0.0122  0.0625  0.1346
77654W        W20707   8.848   6.749   3.108 -0.1264  0.1904  0.0838
77655W        W20708  16.107  10.660   3.275 -0.0363  0.4547 -0.0771
77656W        W20709  15.466  33.296   8.643 -0.2903 -0.2692  0.5161
77657W        W20710  21.353   6.779   2.914  0.1124 -0.1816 -0.0356
77658W        W20711  15.810  19.503  14.957 -0.1352 -0.1088 -0.0543
77659W        W20712  14.408   7.242  26.237  0.2308  0.1015 -0.2621
77660W        W20713  29.644  31.130   3.184  0.1617  0.0382  0.2672
77661W        W20714  14.024  31.114   9.218  0.0553 -0.3359 -0.2677
77662W        W20715  21.012   8.914   5.458 -0.0206 -0.3384  0.2477
77663W        W20716  14.803   2.189   6.276 -0.2361  0.2930 -0.2591
77664W        W20717   2.871  33.657   8.669  0.0280  0.0310 -0.0944
77665W        W20718  26.804  31.637   9.063 -0.0820  0.0496  0.0943
77666W        W20719  19.491  32.686   0.526  0.0785 -0.1143  0.3091
77667W        W20720  18.927  33.728  26.271  0.0040 -0.1247 -0.4174
77668W        W20721  26.031  18.033   4.884 -0.1007  0.0232 -0.1329
77669W        W20722   6.545   3.204  28.015 -0.4355 -0.1645 -0.1413
77670W        W20723  31.970  30.882  24.762  0.1109 -0.1347  0.3520
77671W        W20724  15.258  24.683  21.287 -0.0431  0.0717 -0.2179
77672W        W20725  24.516  28.637   7.350  0.1217  0.1929  0.0447
77673W        W20726   6.895  32.533   0.916  0.0347 -0.1610  0.0614
77674W        W20727  19.032   5.688   2.765 -0.0360  0.0337  0.0428
77675W        W20728  28.355  11.397  27.048 -0.0548 -0.0030 -0.0087
77676W        W20729  13.499   1.496   7.604  0.0708 -0.0234 -0.2234
77677W        W20730  14.464   8.599   6.793  0.0688  0.2579 -0.1975
77678W        W20731   3.698  24.955   4.359  0.3002  0.0295  0.4221
77679W        W20732  13.373  29.237  26.806  0.1597 -0.1166  0.1574
77680W        W20733  28.643  22.604  25.153 -0.1032  0.1443  0.3922
77681W        W20734  33.003  27.865   7.262  0.0560  0.0187  0.1321
77682W        W20735   4.838  19.961   8.480  0.3690 -0.0008  0.1970
77683W        W20736  26.391  10.119   3.054 -0.1957 -0.1863  0.1366
77684W        W20737  20.323  34.552   3.823  0.1115  0.0054  0.1624
77685W        W20738   3.424  31.307   8.601 -0.4354  0.1316  0.2936
77686W        W20739  11.373   8.208  23.499  0.0543  0.2407  0.0339
77687W        W20740  12.294  31.989  26.591 -0.2273  0.3537 -0.0528
77688W        W20741  13.277  25.297   0.802 -0.0928  0.2306 -0.1173
77689W        W20742  12.125   0.086   7.710  0.0579 -0.0384 -0.2113
77690W        W20743  14.457   9.916   5.424 -0.0000 -0.4008  0.0199
77691W        W20744  17.882  33.586   4.730 -0.0240  0.3043 -0.1388
77692W        W20745  12.944  33.163   8.509 -0.1924  0.2732  0.2763
77693W        W20746  13.455  34.498   9.513 -0.1253  0.2147  0.2542
77694W        W20747  34.383   5.123  14.064  0.0372 -0.0625  0.2471
77695W        W20748   4.650  24.033   9.275 -0.1726  0.0623 -0.0607
77696W        W20749   9.810   6.370   5.357  0.2848  0.3408  0.0866
77697W        W20750   9.023   2.286  19.853 -0.0798 -0.1187  0.0611
77698W        W20751  20.767  11.294   2.176 -0.3405 -0.0113  0.0607
77699W        W20752  11.897   8.446   6.976 -0.0861  0.0174  0.0418
77700W        W20753   6.487   3.722   9.756  0.0254  0.0429 -0.1640
77701W        W20754  11.158   9.679   5.158 -0.1747  0.0305  0.3320
77702W        W20755   9.899  29.399   3.747  0.2296  0.1412 -0.3391
77703W        W20756   3.447   4.938  25.188  0.3244 -0.0177 -0.0670
77704W        W20757   4.300   2.926   4.677 -0.2436 -0.1164  0.0878
77705W        W20758  20.042  28.089   4.816 -0.2557  0.1666 -0.0347
77706W        W20759  20.961  26.972   7.498 -0.1738 -0.2009 -0.0967
77707W        W20760  14.041  26.005   5.614  0.2269 -0.3391 -0.3470
77708W        W20761   8.759   9.994   5.732  0.2086  0.0220 -0.2348
77709W        W20762   7.086  31.085  22.556  0.3007  0.1212 -0.0200
77710W        W20763  34.470   0.058   4.448 -0.0578  0.0906  0.0038
77711W        W20764   8.381  28.689  24.420  0.0111 -0.1218  0.0031
77712W        W20765  28.667  33.125   6.802  0.0047 -0.0378 -0.0717
77713W        W20766  12.958  12.507   4.471  0.1051  0.1057  0.2894
77714W        W20767  28.107  14.249  24.297  0.0182 -0.0065  0.1112
77715W        W20768  22.351   5.895  21.364  0.1916 -0.2876 -0.0197
77716W        W20769   9.951  13.091  16.666 -0.2062  0.3432  0.0908
77717W        W20770  13.139  13.804   8.245 -0.3103 -0.0369  0.2025
77718W        W20771  32.653   1.972   8.790 -0.1366  0.0501  0.0679
77719W        W20772  25.254  31.309   3.545 -0.0535 -0.1697  0.0082
77720W        W20773  19.549   6.851   1.307  0.0348 -0.0506 -0.3046
77721W        W20774   7.998  26.165   7.792 -0.1216  0.3353  0.3905
77722W        W20775  19.042   4.740   1.938  0.0002 -0.1135 -0.0771
77723W        W20776  12.371  22.921  23.444 -0.0914 -0.2471 -0.1836
77724W        W20777  26.516   3.792   9.593 -0.0005 -0.0411 -0.2099
77725W        W20778  29.209   3.128   6.391  0.0104  0.0775  0.0834
77726W        W20779  10.576   0.091   5.283  0.0565 -0.1942  0.0420
77727W        W20780  18.905  20.049   6.731 -0.3149 -0.2188  0.1923
77728W        W20781  23.109  34.632  27.038 -0.0699  0.1682  0.0215
77729W        W20782  17.787  31.311   1.057 -0.1492  0.0896 -0.2055
77730W        W20783  14.459   5.076  20.057 -0.0990  0.3433  0.2873
77731W        W20784  22.940  32.320   9.971 -0.0357 -0.0776 -0.1542
77732W        W20785  15.000  11.823   9.722  0.1820  0.2035  0.0430
77733W        W20786  10.692  30.125   4.039 -0.2027  0.2018  0.0075
77734W        W20787  14.061  29.673   3.756  0.3170 -0.4618 -0.2112
77735W        W20788  12.103  25.404   4.855 -0.0057 -0.4922  0.0919
77736W        W20789   6.458  13.027   9.120 -0.0644 -0.0948  0.0864
77737W        W20790   2.576   7.717   8.962  0.1601  0.2657 -0.0556
77738W        W20791  11.238  22.852   3.288  0.1832  0.0170  0.1904
77739W        W20792  12.044  24.071   1.892 -0.0402 -0.1265  0.1554
77740W        W20793   6.467  29.588   0.786 -0.1261 -0.0296  0.0951
77741W        W20794   9.315  32.380  27.037  0.0229  0.0377 -0.0498
77742W        W20795  12.764  10.359   0.226 -0.1188  0.1957  0.0504
77743W        W20796   8.051  13.810   7.150 -0.0585 -0.0149 -0.2746
77744W        W20797  22.440   3.971   9.553 -0.1316 -0.0664  0.0862
77745W        W20798   7.542  22.465  26.810  0.4708 -0.0330  0.2250
77746W        W20799  16.192  23.413   8.353 -0.0142 -0.0287  0.1063
77747W        W20800  12.191  26.885  21.019  0.0020 -0.0885 -0.0435
77748W        W20801  10.119  23.397  20.067  0.0145  0.2580 -0.0042
77749W        W20802  14.075   8.280  20.955 -0.2330 -0.1441  0.1114
77750W        W20803   7.989  23.683  27.860 -0.2462  0.1239 -0.0725
77751W        W20804  20.260   4.579  16.918 -0.2032  0.0944  0.0352
77752W        W20805  28.308  33.570  29.167 -0.0565 -0.3258  0.2507
77753W        W20806  28.738  32.521  26.259 -0.1066 -0.0815  0.0434
77754W        W20807  26.200   2.348   3.706 -0.0248 -0.0973  0.3019
77755W        W20808   5.479   5.320   4.994 -0.1701  0.0455  0.2010
77756W        W20809  28.529  10.651  28.107  0.2376  0.0336 -0.2213
77757W        W20810  21.308   7.389  14.318 -0.1628  0.3149 -0.0050
77758W        W20811  22.583   7.401   0.754  0.2871  0.0543  0.3897
77759W        W20812   4.685  24.639   4.206  0.0667  0.0420  0.2688
77760W        W20813   5.647  22.973  20.871 -0.4181  0.0491  0.0690
77761W        W20814  21.560  32.930  27.645 -0.0490 -0.0177 -0.0790
77762W        W20815   1.447  14.847   1.413 -0.0551 -0.1229  0.2468
77763W        W20816  20.733  32.533  23.473 -0.0065  0.3959  0.1298
77764W        W20817   9.131  31.185  24.894 -0.1686  0.0846 -0.2263
77765W        W20818  17.067   1.607  27.634 -0.2430  0.1870 -0.2670
77766W        W20819  12.329   1.279  18.192  0.0403 -0.2456  0.4066
77767W        W20820  27.033   3.040  16.532  0.0672  0.3236  0.1816
77768W        W20821   2.526  11.643   7.422 -0.2207  0.0407  0.1987
77769W        W20822  30.410  10.114   6.575  0.2767 -0.3755  0.1428
77770W        W20823   7.755   2.188   9.353 -0.3061 -0.2719  0.1901
77771W        W20824   2.989  33.403   3.003  0.3096 -0.0743  0.2154
77772W        W20825  16.954   7.235   9.568 -0.2168  0.1151 -0.1312
77773W        W20826  21.198   2.142   2.437  0.2090 -0.1758  0.1557
77774W        W20827  24.188   8.079  26.267 -0.0509  0.1052 -0.0467
77775W        W20828   4.907  18.639   3.374  0.0658 -0.2725  0.3269
77776W        W20829   4.132   9.999   8.326  0.2203  0.2903  0.1847
77777W        W20830  11.805  14.058  15.163  0.0543  0.1035  0.1979
77778W        W20831  25.760   1.342   3.043 -0.1394 -0.2579  0.1500
77779W        W20832   7.523   8.764  27.580 -0.2457  0.0961 -0.2319
77780W        W20833  23.238   1.806   0.411  0.0782 -0.1291  0.1457
77781W        W20834   4.493  23.392   8.451 -0.0104 -0.1301  0.3238
77782W        W20835  10.921  11.769  22.851 -0.3182 -0.1122 -0.2519
77783W        W20836  28.512  20.424   2.822  0.2554  0.2181 -0.0047
77784W        W20837  21.092  17.615   0.832 -0.0294 -0.1606  0.1310
77785W        W20838   8.295  22.777   9.949 -0.0383  0.0922  0.1227
77786W        W20839   8.924  11.377   6.246  0.1566 -0.2392  0.2569
77787W        W20840  24.943   7.609   4.356  0.1509 -0.0419 -0.0402
77788W        W20841   0.339  24.838   7.508 -0.0858 -0.3483 -0.0280
77789W        W20842  12.889  17.811   1.168 -0.1559 -0.1846  0.1735
77790W        W20843  20.063  31.673   0.002  0.1596  0.1430  0.1302
77791W        W20844  25.847  32.710  23.137 -0.2890  0.2320 -0.1498
77792W        W20845   9.566  11.279  10.408  0.3182 -0.0608  0.0914
77793W        W20846   9.433  29.939   3.077 -0.1351  0.0650  0.0467
77794W        W20847  15.098   2.053   8.226  0.0976 -0.3261 -0.0958
77795W        W20848  27.593   7.867  21.898  0.1199 -0.0202  0.1284
77796W        W20849   3.135  26.172  13.206 -0.2505  0.0196 -0.1077
77797W        W20850  32.206  11.233  25.359  0.2178  0.2451 -0.0217
77798W        W20851  11.793   8.153   4.085 -0.3404 -0.2790 -0.0021
77799W        W20852  14.790  14.534   7.953  0.2931 -0.1327  0.2087
77800W        W20853  25.212   4.455   1.394 -0.0900  0.0902  0.1793
77801W        W20854  32.784   9.015  15.678  0.1128 -0.2296  0.1688
77802W        W20855  18.368  29.662   3.116 -0.1680 -0.1241  0.1496
77803W        W20856  11.517  28.362  24.801 -0.0121  0.0563 -0.1345
77804W        W20857   8.718   2.878   6.748  0.3730  0.1887  0.1866
77805W        W20858   7.948   3.109  26.735  0.2427  0.0729 -0.1131
77806W        W20859  34.275  16.108  25.348  0.1546  0.4573  0.0587
77807W        W20860  18.886   4.506   7.022 -0.2835 -0.1575  0.1567
77808W        W20861   0.282   5.055   7.717  0.3658 -0.2427 -0.2610
77809W        W20862   9.401  18.458  18.075 -0.0935  0.4387  0.0255
77810W        W20863  14.026   4.691  13.861 -0.4217 -0.1452 -0.0628
77811W        W20864  19.065  32.703   4.398  0.3163  0.1762  0.1799
77812W        W20865  17.698  20.433  26.201 -0.2665  0.0137 -0.1710
77813W        W20866   0.916  33.967   7.569  0.3690  0.0301 -0.0154
77814W        W20867  11.908  18.198   6.737  0.0583 -0.3363  0.0936
77815W        W20868   2.128  27.960  18.012 -0.1425 -0.0539 -0.2909
77816W        W20869   9.157   4.477   4.337 -0.0029 -0.0530 -0.3068
77817W        W20870   3.751  23.632  18.056  0.0266 -0.2789 -0.0215
77818W        W20871  14.556  25.980   8.752  0.3681  0.0673  0.1347
77819W        W20872  30.523  33.127  26.382  0.2675  0.3096 -0.1868
77820W        W20873  14.164  32.591   6.120 -0.0821  0.0030 -0.2502
77821W        W20874  32.134   1.026  22.744 -0.2007  0.0098 -0.2144
77822W        W20875  29.950   8.155   5.237  0.3619 -0.2238 -0.3133
77823W        W20876   7.714   3.485  26.898 -0.0763  0.0753  0.1354
77824W        W20877  22.472   1.254   0.157  0.1297  0.1215 -0.2782
77825W        W20878  17.804   6.930  16.604  0.1195  0.0127 -0.1833
77826W        W20879  20.139  33.730   2.135 -0.0461  0.0706  0.1394
77827W        W20880   8.201   3.283  22.802 -0.0349 -0.0467 -0.0782
77828W        W20881   8.289   1.184  26.024 -0.2297 -0.1006 -0.1462
77829W        W20882  10.500  11.151   8.577  0.0696  0.0029  0.0461
77830W        W20883   9.394  14.539  21.744 -0.0111 -0.1864  0.1580
77831W        W20884  11.525  30.623   3.293 -0.3503 -0.3261 -0.0497
77832W        W20885  26.315   3.325   2.850 -0.0854 -0.1746 -0.1463
77833W        W20886  23.441   9.441   6.121 -0.0361 -0.1200 -0.3290
77834W        W20887   0.352   6.335   9.447  0.2257  0.0885  0.0147
77835W        W20888  24.540  11.061   1.992  0.0508 -0.0465 -0.2484
77836W        W20889  20.373  24.205   6.503 -0.1180  0.2109  0.1031
77837W        W20890   9.971   2.390   4.408 -0.3560 -0.0019 -0.1615
77838W        W20891  15.826   1.308  19.432  0.0441  0.0192 -0.0302
77839W        W20892  11.855   7.467   5.274 -0.0379  0.4453  0.2861
77840W        W20893  13.218   4.109  25.628  0.2786  0.0494  0.3210
77841W        W20894  31.752   2.774  24.375  0.1285  0.1584  0.2805
77842W        W20895  12.456  26.423  16.135 -0.3614 -0.1235  0.0110
77843W        W20896   3.117   1.750   3.275 -0.0910  0.2095 -0.3082
77844W        W20897  10.429  16.737  18.353  0.0485  0.2563 -0.1976
77845W        W20898  14.571   8.914   0.599  0.2436 -0.3267 -0.0084
77846W        W20899   3.608   7.960   7.369  0.0742 -0.0064 -0.0811
77847W        W20900  16.653   9.708  23.041  0.2110 -0.0773 -0.3386
77848W        W20901  12.196  14.590   0.152  0.0847  0.0504 -0.0661
77849W        W20902  22.838  29.680  21.951 -0.0582  0.1773  0.0712
77850W        W20903  12.269   5.597   3.973 -0.1567  0.2143  0.2985
77851W        W20904  14.807  16.335   5.417  0.1558 -0.1577  0.3300
77852W        W20905   2.720  34.505  26.932  0.0889  0.2578  0.3055
77853W        W20906   8.510  30.123  26.273  0.0886 -0.2383  0.4409
77854W        W20907  10.159   4.156   4.258 -0.0050  0.1427  0.1675
77855W        W20908  20.372  24.497   0.750 -0.0386 -0.0800 -0.0367
77856W        W20909  32.660   6.303  19.766  0.1556  0.2868 -0.1207
77857W        W20910   8.548  14.265   1.117 -0.0779  0.1773 -0.0373
77858W        W20911  18.718   2.349   8.052  0.0775 -0.0310 -0.3808
77859W        W20912   9.613   9.162   8.801  0.0787  0.3055  0.0855
77860W        W20913   3.321  13.411  26.466 -0.1397  0.2996  0.1497
77861W        W20914  22.333  18.585   0.802  0.0017  0.1407  0.4504
77862W        W20915   9.798   6.556  26.108 -0.3231  0.0385 -0.0127
77863W        W20916  27.444   4.020  25.737  0.3297  0.0275  0.0625
77864W        W20917  20.594  14.504   8.715 -0.1782  0.3136 -0.1513
77865W        W20918  18.964   0.558   6.916 -0.4004 -0.1389  0.0534
77866W        W20919  30.494  34.454  16.348  0.0009  0.1342 -0.0344
77867W        W20920  21.437   5.974  14.463 -0.1469  0.0429 -0.1637
77868W        W20921  12.177  14.776  20.544  0.1646  0.1012 -0.0296
77869W        W20922  34.088  28.122  27.933 -0.1613 -0.1957  0.0015
77870W        W20923   7.206  20.159   2.481 -0.0210 -0.0551 -0.2158
77871W        W20924  29.046   0.370   2.451  0.2846 -0.0329 -0.1082
77872W        W20925  20.217   6.220   3.531  0.3121  0.0140  0.0826
77873W        W20926   0.298  27.443   1.782  0.0568  0.3091 -0.1546
77874W        W20927   6.061  20.496   7.937 -0.1177  0.2718  0.1214
77875W        W20928   5.705  19.619   8.486 -0.2595 -0.1223 -0.0806
77876W        W20929  31.131  22.362   2.971  0.0213 -0.2013 -0.1751
77877W        W20930  17.644  31.612   6.250 -0.1607  0.0511  0.0468
77878W        W20931  29.983   8.966   7.829 -0.1042 -0.3699 -0.1500
77879W        W20932   8.590   8.892   1.556 -0.1149 -0.0287 -0.2402
77880W        W20933  12.741  10.775   7.881  0.1437 -0.0373  0.2297
77881W        W20934  10.140  29.818   2.171  0.0616  0.1816  0.3422
77882W        W20935   7.287  13.434   7.491  0.0761  0.0409 -0.3533
77883W        W20936   3.508   3.957   5.092 -0.2380 -0.1214 -0.1093
77884W        W20937   5.825   1.506   0.164  0.3786 -0.1999 -0.1292
77885W        W20938  26.571  26.561  25.198  0.2645  0.2047  0.1750
77886W        W20939  16.362  33.569   9.070 -0.0198 -0.0302 -0.0712
77887W        W20940   6.127  19.526   8.097 -0.1847 -0.0001  0.2105
77888W        W20941   2.061   6.649   2.543 -0.0629  0.1349  0.0080
77889W        W20942  21.694  14.724  28.270 -0.1023 -0.1449  0.1354
77890W        W20943  30.201  12.836   5.198 -0.3191 -0.1584  0.2665
77891W        W20944  16.613  13.819   6.044 -0.1357  0.2645 -0.1342
77892W        W20945  16.201  34.115  20.611  0.1870 -0.1128  0.0833
77893W        W20946  33.524   5.451   5.637 -0.4156  0.1322 -0.3176
77894W        W20947   9.806  12.618   7.299 -0.0273 -0.2572  0.1544
77895W        W20948  30.609  11.638  28.612 -0.1267 -0.1629  0.0159
77896W        W20949   4.476  10.562   3.374  0.2190 -0.2213 -0.3447
77897W        W20950   0.009   1.586   3.160  0.2456 -0.0755 -0.0320
77898W        W20951  30.220   0.302   6.859  0.3147  0.0722  0.0403
77899W        W20952   7.427  29.935  20.147  0.0822  0.1074 -0.0585
77900W        W20953   0.244  34.585   4.379  0.0516  0.0082 -0.2199
77901W        W20954  18.186   3.540   4.143  0.1206 -0.0139 -0.0008
77902W        W20955   4.363  29.781  19.021  0.0487 -0.1822  0.1338
77903W        W20956  27.039   9.763  19.158 -0.2221  0.0025 -0.3315
77904W        W20957  33.538   4.967  22.829 -0.3547 -0.1271  0.2916
77905W        W20958  20.538  18.561  15.208 -0.1519  0.2422  0.1377
77906W        W20959  17.716   0.984  10.566  0.0739 -0.2057 -0.0304
77907W        W20960  15.406  34.624  15.433 -0.0762  0.3243 -0.0401
77908W        W20961   3.704  28.606  13.935  0.1619  0.3556 -0.2225
77909W        W20962  16.977   1.639   7.337  0.2023  0.1622  0.3975
77910W        W20963  10.948  29.323   7.819 -0.1272 -0.0139  0.0393
77911W        W20964  10.222  23.856  27.712 -0.0327  0.4213 -0.2242
77912W        W20965   2.138  28.774   4.051 -0.1041  0.1105  0.0610
77913W        W20966   0.820   4.592  27.678  0.2988  0.1039  0.1892
77914W        W20967  14.151  12.758   1.157  0.3329  0.3796 -0.0249
77915W        W20968   4.154   7.468   6.271  0.2379  0.1156 -0.1297
77916W        W20969  17.010  22.501   9.021  0.0670  0.0527 -0.1918
77917W        W20970   1.626  29.775   8.594  0.0420  0.1517  0.4349
77918W        W20971  31.349   1.092  17.598  0.0633 -0.0982 -0.0076
77919W        W20972   7.939  12.890  28.132  0.3588  0.2061  0.2044
77920W        W20973   6.039  10.950  20.292 -0.1678  0.2982  0.2900
77921W        W20974  13.652  26.757   5.613  0.3065 -0.1682 -0.1347
77922W        W20975  12.598  18.006  14.040 -0.2055 -0.0394  0.1244
77923W        W20976  29.476  21.973   6.115  0.1538 -0.1171 -0.1756
77924W        W20977  11.412   6.105   4.972  0.1991 -0.1703 -0.0060
77925W        W20978  10.366  22.968   2.636  0.0225 -0.2292 -0.0618
77926W        W20979  14.047  13.771  25.993  0.3727 -0.0709  0.0235
77927W        W20980  13.238  33.771   0.995  0.0736 -0.1507 -0.1483
77928W        W20981  30.101   3.234  23.676  0.1093  0.0745 -0.0166
77929W        W20982   0.685  21.921   8.368  0.1950  0.1771  0.2751
77930W        W20983   1.779   4.278   5.101 -0.0631 -0.0701  0.0296
77931W        W20984  29.125   2.868  18.149  0.3234 -0.0346  0.1146
77932W        W20985   9.779  11.858  23.784 -0.2063 -0.1583 -0.0150
77933W        W20986   6.966  29.965  26.257 -0.0433 -0.4338  0.2370
77934W        W20987   5.097  24.734   9.528 -0.0057  0.1722 -0.1617
77935W        W20988   5.019  14.154   4.734 -0.0446  0.0946  0.1573
77936W        W20989  17.152  14.761   9.735 -0.0267  0.1219  0.0395
77937W        W20990  14.043  18.449   0.561  0.2218  0.1449  0.0405
77938W        W20991   0.766   2.238   1.583 -0.2954 -0.1970  0.2882
77939W        W20992  29.732   7.700  24.168  0.2263 -0.1065 -0.0631
77940W        W20993   1.853  10.386  14.442 -0.2018  0.2157 -0.2573
77941W        W20994  31.001   6.955  22.044  0.2665  0.0113  0.0009
77942W        W20995  24.070  28.398  21.765 -0.1291  0.0324  0.0395
77943W        W20996   5.212   1.143   7.902  0.1832  0.4683  0.2461
77944W        W20997  10.448   3.748   4.382  0.2646  0.0326  0.0202
77945W        W20998  14.486  18.188   3.407 -0.1119  0.1215 -0.0069
77946W        W20999   7.893  33.611   6.522  0.2829 -0.0791 -0.1340
77947W        W21000  22.636  14.069  13.277 -0.0668 -0.2779 -0.0731
77948W        W21001   0.483   3.059  21.684 -0.1961  0.1308 -0.0385
77949W        W21002  20.057   0.295   5.257  0.2715 -0.0819  0.0372
77950W        W21003   6.013   9.450   1.810  0.1320 -0.0864  0.1443
77951W        W21004  19.176  10.770  17.391  0.0672 -0.0546  0.0500
77952W        W21005  34.007  10.097   6.333 -0.1471  0.2363 -0.0646
77953W        W21006   8.468  11.550  15.642  0.0824  0.2258 -0.0647
77954W        W21007   5.756  13.026  21.007 -0.1161 -0.0140  0.0257
77955W        W21008  23.669  32.958  18.956  0.0084  0.1809  0.1089
77956W        W21009  11.235   0.245   6.749 -0.0455  0.0755 -0.3059
77957W        W21010  13.278  31.515   3.972  0.0975 -0.0874 -0.0810
77958W        W21011   5.997   5.544  10.029  0.1217  0.1532  0.1361
77959W        W21012  14.937  32.951  10.025 -0.1338 -0.2697  0.0130
77960W        W21013  24.014  33.796   2.043 -0.3095  0.4376 -0.4137
77961W        W21014  34.647   1.052   4.358 -0.2220 -0.1400 -0.3395
77962W        W21015   1.462  14.452   1.736 -0.0745 -0.1098 -0.0075
77963W        W21016  28.015  28.798   5.386 -0.0590 -0.1920  0.0874
77964W        W21017   6.607   4.026  17.822 -0.1638  0.1159  0.0489
77965W        W21018  12.162  14.393  28.872 -0.1378  0.4059  0.0324
77966W        W21019   4.230   4.759   4.072 -0.1299 -0.0749 -0.0791
77967W        W21020  21.627   7.251   2.586 -0.0953  0.1911 -0.2132
77968W        W21021   2.654  21.441  21.152  0.0468  0.0153  0.0104
77969W        W21022  16.855  26.349   4.509  0.1437 -0.2228  0.3959
77970W        W21023  10.169   4.514  28.746  0.0292  0.2463 -0.4715
77971W        W21024  18.291   3.711   8.274  0.2432  0.1671  0.1278
77972W        W21025   5.596   4.708  26.835 -0.0811 -0.2556  0.1148
77973W        W21026  12.220  10.144   6.676 -0.2203 -0.0385 -0.2598
77974W        W21027  11.027  22.848   0.769 -0.1523  0.2753 -0.1469
77975W        W21028   1.962  10.089  18.544  0.1084 -0.0221  0.2807
77976W        W21029   7.059  15.978  21.366 -0.0280  0.3412  0.1435
77977W        W21030  16.831  12.413   3.893  0.2195  0.0594  0.2606
77978W        W21031   0.951  31.300  23.118 -0.3574  0.1613  0.3489
77979W        W21032   6.209  10.350  22.783  0.0288 -0.3264  0.2764
77980W        W21033   2.500  10.978   6.180 -0.1518 -0.1945 -0.0045
77981W        W21034   4.115  34.363   3.092  0.0135 -0.0951 -0.3029
77982W        W21035   5.251  30.644  19.886 -0.4348  0.0780 -0.2377
77983W        W21036   6.047   7.083  27.183 -0.0421  0.3476  0.0097
77984W        W21037   9.940  27.521  15.787 -0.0741  0.1445 -0.1384
77985W        W21038  28.346   6.213  24.491 -0.0025  0.0394 -0.0792
77986W        W21039  19.516  20.255  28.603 -0.1587  0.0772  0.1390
77987W        W21040  12.722  34.183   2.898  0.1660  0.1256  0.2929
77988W        W21041   9.326  22.772  21.101  0.0380 -0.1384 -0.0526
77989W        W21042  28.531  21.310   6.206 -0.2124  0.0640 -0.0995
77990W        W21043   2.252  27.793   5.987 -0.0209 -0.0692  0.0012
77991W        W21044   2.549   7.405  26.832 -0.3411  0.2709 -0.1234
77992W        W21045   4.128   5.907  22.124 -0.0820  0.1970  0.2036
77993W        W21046  13.002  11.872  26.074 -0.0690  0.4121  0.1480
77994W        W21047   7.257   9.753   5.531  0.0905 -0.0211  0.0471
77995W        W21048  28.559   5.252   2.920  0.0951  0.3653  0.3707
77996W        W21049   9.282   5.458   6.702 -0.4704 -0.1013 -0.1931
77997W        W21050  24.969  34.107   0.591 -0.2164 -0.0033 -0.2192
77998W        W21051   9.330   2.095  20.456  0.1422  0.0219  0.1225
77999W        W21052  12.331   1.949  17.115  0.1283 -0.2904 -0.0993
78000W        W21053  31.707   7.617  28.798  0.0347  0.0234  0.2083
78001W        W21054  21.620  29.194  21.712 -0.0196 -0.0895 -0.2135
78002W        W21055   4.902   2.261   8.690 -0.1918  0.1414  0.1264
78003W        W21056  23.473  30.585  27.877  0.2032  0.0143  0.0714
78004W        W21057   0.117  11.981   0.576  0.2605  0.2398  0.0800
78005W        W21058  33.710  34.102   7.651  0.0714  0.3013  0.0003
78006W        W21059  12.953  34.657   1.581  0.4906  0.2144  0.0845
78007W        W21060   3.276   3.850  28.939  0.1264  0.0711  0.1476
78008W        W21061   6.265  13.383  10.846 -0.0333  0.1658 -0.2333
78009W        W21062   1.699  13.542  23.368 -0.0061  0.0236  0.3198
78010W        W21063  18.051  18.761  14.824 -0.3136 -0.3463 -0.1754
78011W        W21064  12.765   5.029  26.703  0.0089  0.2011  0.1559
78012W        W21065   5.947  13.264   9.907  0.2142 -0.1978  0.0459
78013W        W21066  15.255  11.532   5.080 -0.0660  0.1191  0.0039
78014W        W21067  13.341   4.940  17.274  0.1350 -0.1264  0.0356
78015W        W21068  11.409  28.938  25.086  0.0845  0.0924  0.0300
78016W        W21069   7.016   5.229   5.829  0.0839 -0.2879  0.2264
78017W        W21070  12.265   5.200  24.059 -0.1423  0.0687 -0.1719
78018W        W21071   9.365  14.754   4.167  0.0733  0.1989 -0.1675
78019W        W21072   0.359   0.700  21.638 -0.3058  0.1196  0.0429
78020W        W21073   6.171  15.808  15.228  0.3024 -0.1068  0.1562
78021W        W21074   2.610  15.526  24.649 -0.0314 -0.2727  0.0456
78022W        W21075   8.227   9.348  27.900  0.3322 -0.1106 -0.1934
78023W        W21076  15.867  10.908  10.684 -0.1785 -0.3264 -0.0108
78024W        W21077  11.138   0.868  20.549 -0.1484  0.0100 -0.0825
78025W        W21078   1.381  16.111  26.051 -0.1306  0.1464 -0.1438
78026W        W21079  15.635  19.533   5.358  0.1468  0.3374  0.0237
78027W        W21080   6.829  22.240   1.105  0.3722 -0.0016  0.3262
78028W        W21081   1.758  15.585   5.697  0.1033  0.1668  0.0084
78029W        W21082   7.283   7.322   1.785  0.0756  0.2112 -0.0044
78030W        W21083  27.863  20.249  25.433  0.1141  0.2146 -0.1931
78031W        W21084  27.768  18.298   3.324  0.4930  0.0662 -0.0697
78032W        W21085  13.068  29.925   2.386 -0.2067  0.2860 -0.2383
78033W        W21086  22.517   7.577  28.541  0.0633  0.1127  0.1009
78034W        W21087  22.690  34.249   7.304  0.0460  0.4762 -0.2524
78035W        W21088   9.033  20.972  21.858  0.1109  0.3355  0.1683
78036W        W21089  30.894  14.612   9.453 -0.1930 -0.0123  0.1419
78037W        W21090   1.074  16.283  19.721 -0.2904  0.2253 -0.0268
78038W        W21091   2.520  12.746   0.961 -0.1065  0.3495 -0.0474
78039W        W21092   6.546   2.135   5.561  0.0138 -0.0373  0.0059
78040W        W21093  10.437   7.645   3.622 -0.1660 -0.0017 -0.1534
78041W        W21094  11.959  29.442  28.958 -0.3137  0.1562 -0.0696
78042W        W21095  19.822  28.970  28.407  0.0461  0.1575  0.0551
78043W        W21096  20.756   7.987   6.114 -0.1655  0.0512  0.0274
78044W        W21097   6.800  34.195  29.169 -0.1167 -0.0106  0.2469
78045W        W21098   2.549   1.529  21.470 -0.1833  0.0597  0.0051
78046W        W21099  23.137   3.717  28.887 -0.1907 -0.1015 -0.1587
78047W        W21100   8.521   1.235   0.607 -0.1967  0.2952  0.1274
78048W        W21101   7.049   3.533   2.073 -0.1934 -0.0014  0.1377
78049W        W21102  12.297  33.796   9.593 -0.0835  0.0762  0.0725
78050W        W21103  32.805   8.467   4.598 -0.2448 -0.0899 -0.0238
78051W        W21104  16.441  11.190  18.485 -0.1156  0.1218 -0.4286
78052W        W21105  29.780  28.125   8.284  0.0784  0.1016  0.0502
78053W        W21106  27.000  11.160  22.359  0.2347  0.0917 -0.0854
78054W        W21107  13.863  29.951  20.817  0.1757 -0.1904  0.0489
78055W        W21108   6.429  32.101  20.476  0.0073 -0.0932 -0.0410
78056W        W21109  18.761  15.332   3.662 -0.1179 -0.0414  0.1076
78057W        W21110  21.278  10.629  22.927  0.0653  0.1974  0.2141
78058W        W21111  30.362   2.535  24.432  0.0413 -0.2882 -0.1357
78059W        W21112   8.049   6.004   5.763  0.2849 -0.2735 -0.0749
78060W        W21113  11.602   8.928   2.327 -0.0490 -0.0790  0.0861
78061W        W21114   7.900  10.457  10.413 -0.1076  0.2271  0.0724
78062W        W21115   8.572  30.742  25.716 -0.0747  0.1583  0.1103
78063W        W21116   2.192   5.100   6.201 -0.0231  0.2346 -0.0482
78064W        W21117  32.649   5.712   1.856 -0.3354 -0.2876 -0.1359
78065W        W21118  25.898  29.608  20.669 -0.2405  0.0238 -0.2736
78066W        W21119  19.493  16.522  29.043 -0.0245 -0.3330 -0.1365
78067W        W21120  13.162  34.459  25.351 -0.1887 -0.2204 -0.0102
78068W        W21121   4.216   9.103  26.044 -0.1576  0.0606  0.1834
78069W        W21122  30.992   6.523  25.950 -0.3044 -0.1371  0.4077
78070W        W21123  15.198  32.518  26.708  0.0093  0.1457 -0.2919
78071W        W21124  30.697  16.667  23.486  0.2650  0.2345  0.3345
78072W        W21125  32.221   9.455  26.483 -0.1252 -0.1773 -0.1165
78073W        W21126  25.321   8.782  20.192  0.0881  0.3373  0.0208
78074W        W21127   9.586   5.257  16.817 -0.1349 -0.0485  0.3448
78075W        W21128   4.903  16.295   7.544  0.0759 -0.0909 -0.2460
78076W        W21129   5.145  32.923  24.150 -0.3479 -0.0823  0.2555
78077W        W21130  19.396  20.963   2.133  0.0698  0.0952 -0.2892
78078W        W21131  17.813   2.453  25.363 -0.1516 -0.1607  0.0495
78079W        W21132  10.823   4.840   8.313 -0.0434 -0.0462  0.1890
78080W        W21133  20.565   1.483   3.339 -0.5819 -0.1697  0.1529
78081W        W21134  28.286  14.757   0.743  0.4529 -0.1852  0.1287
78082W        W21135  20.346  29.386   3.926  0.2893  0.3599  0.0384
78083W        W21136   4.306  22.050   9.676 -0.0435 -0.0600 -0.1100
78084W        W21137  20.820   4.785   9.839  0.2423 -0.0415 -0.1172
78085W        W21138  12.140  34.133  27.694 -0.1913 -0.0354  0.2100
78086W        W21139  32.399  16.451   4.465 -0.1312 -0.0262  0.0926
78087W        W21140   8.004  10.732  24.702  0.0240  0.2269 -0.2200
78088W        W21141  13.058  11.988  28.141  0.1118 -0.1004  0.2683
78089W        W21142  20.198  16.943  25.604  0.1084  0.3034 -0.0636
78090W        W21143   8.154  33.101  15.343  0.0054 -0.2408 -0.1706
78091W        W21144  18.573  15.299   5.043 -0.0372 -0.0912 -0.0373
78092W        W21145  17.234  22.361  29.195 -0.0777  0.3259 -0.1610
78093W        W21146  19.957   1.833   2.019 -0.4242  0.0275 -0.1456
78094W        W21147  33.446  34.060  24.350  0.1329  0.1228  0.0820
78095W        W21148  17.049  27.154   9.278 -0.0069 -0.0051 -0.3532
78096W        W21149  28.502   4.517   6.851  0.1224 -0.1377  0.0485
78097W        W21150  11.844   4.459   9.990 -0.0487 -0.0456 -0.0136
78098W        W21151   9.895   4.424  10.616 -0.1216 -0.0634  0.1440
78099W        W21152   2.318   2.441  23.806 -0.0347 -0.1784  0.0078
78100W        W21153  23.545  28.286  23.839  0.0140  0.0006 -0.2196
78101W        W21154  24.675   0.631   0.252  0.0044  0.0262 -0.0381
78102W        W21155  11.822  17.512  28.615 -0.0880 -0.1008  0.0384
78103W        W21156  10.556  10.550  27.988  0.2269  0.0899 -0.2774
78104W        W21157  22.911  12.550  17.840  0.0947  0.2883 -0.3196
78105W        W21158   5.712  29.795  28.957  0.2891 -0.0354 -0.0601
78106W        W21159  12.934  10.134   8.818  0.0841 -0.0393  0.0098
78107W        W21160  24.090   1.422  16.807 -0.1031  0.1889  0.0896
78108W        W21161  19.887  32.171   8.903  0.1966  0.0950 -0.1453
78109W        W21162   9.891  30.964  25.694  0.1400  0.1691 -0.1304
78110W        W21163  12.172  29.312   2.809 -0.0609 -0.0518  0.1357
78111W        W21164   5.604  31.808   9.698  0.0245 -0.1927 -0.0166
78112W        W21165   4.318   8.549   1.404 -0.0709  0.0220  0.1014
78113W        W21166  12.884  33.043  28.516  0.1484 -0.3078 -0.3203
78114W        W21167  27.038   0.054  17.292  0.0394 -0.2333 -0.1667
78115W        W21168  13.321   7.231  28.689 -0.0012 -0.5997 -0.2154
78116W        W21169  18.552  21.680  19.007 -0.0718  0.0330 -0.2935
78117W        W21170  29.620  10.795   0.424  0.0400 -0.1151 -0.0389
78118W        W21171  13.084   2.383  17.704 -0.0163  0.3697 -0.1467
78119W        W21172   7.023  26.450   3.661 -0.2306  0.1786  0.1034
78120W        W21173  33.092  26.413  20.462 -0.1600  0.1243 -0.0987
78121W        W21174  12.600   7.517  27.666  0.1780  0.1066  0.2069
78122W        W21175  29.928  32.296  29.043 -0.1704  0.2625  0.0188
78123W        W21176  22.234  11.668   6.245  0.0047 -0.0193  0.2550
78124W        W21177   9.117  30.014  22.094 -0.2921 -0.2124 -0.2027
78125W        W21178  32.470  17.584  16.448  0.1864 -0.0927 -0.0519
78126W        W21179  19.307  14.836   5.145  0.2263  0.2718 -0.1132
78127W        W21180  16.261  25.030   8.839  0.1180  0.3091  0.0184
78128W        W21181  16.128  30.436   0.546  0.2343 -0.0901 -0.1145
78129W        W21182   1.553  10.940  27.451  0.1503  0.3201  0.1139
78130W        W21183  15.107   8.435   9.489 -0.0090 -0.1306  0.0488
78131W        W21184   6.305  20.888  28.971 -0.1102  0.0874  0.1069
78132W        W21185  16.941  13.252   0.076  0.0970  0.1997  0.0126
78133W        W21186  11.649   2.948   3.638  0.1262 -0.1523 -0.2966
78134W        W21187   0.893   1.527  28.373  0.2904 -0.0124 -0.2319
78135W        W21188  25.774   8.338  23.683 -0.2410 -0.3262 -0.0654
78136W        W21189  34.280   2.142  22.278  0.0893 -0.0197 -0.2751
78137W        W21190   8.622  11.996  23.274 -0.1444 -0.1394 -0.0409
78138W        W21191  26.638   0.478   7.655 -0.1572 -0.2351 -0.0751
78139W        W21192  28.969   9.418   0.254 -0.1067 -0.2472 -0.4577
78140W        W21193  18.372  18.393   8.235 -0.1409 -0.0572 -0.2593
78141W        W21194   6.476   9.661   8.138  0.0783  0.1791 -0.1006
78142W        W21195   8.011  10.258   7.618  0.2032 -0.0821 -0.1812
78143W        W21196  22.860  16.543  26.222 -0.0955  0.0364  0.0926
78144W        W21197  23.829   7.265  28.276  0.3049 -0.1314 -0.3162
78145W        W21198   7.547   2.346   8.882 -0.4619  0.0760 -0.0401
78146W        W21199  20.717   0.810  26.446 -0.0340 -0.1660  0.1258
78147W        W21200  17.879   0.053   4.840  0.2078  0.0688  0.0979
78148W        W21201   9.878   0.820   4.420 -0.0552  0.1175  0.0687
78149W        W21202   2.080   0.048   7.938 -0.0366  0.0824  0.2107
78150W        W21203  14.113  15.535  25.958  0.0464  0.0814 -0.1060
78151W        W21204  19.627  13.311   9.002  0.1464  0.0298 -0.1381
78152W        W21205  24.442  32.510  22.993  0.0250 -0.0086  0.0039
78153W        W21206   5.037  28.551   3.460  0.6212 -0.1506  0.2250
78154W        W21207  29.689  11.107   5.409  0.3569 -0.1552  0.2712
78155W        W21208  15.307  30.455   9.386 -0.2062  0.0318 -0.2265
78156W        W21209  14.946  17.971   4.559 -0.0727  0.0080 -0.2429
78157W        W21210   8.719   2.896   5.030  0.0887  0.1133  0.0633
78158W        W21211   9.639   2.655  27.837  0.1104 -0.1454 -0.0980
78159W        W21212  17.374   6.823  21.977  0.0833  0.1844 -0.0799
78160W        W21213  10.139  11.865  26.651 -0.1740  0.0877 -0.1736
78161W        W21214  16.064  10.014   8.464 -0.1044 -0.0455 -0.1422
78162W        W21215   5.610   2.490  20.206  0.1821  0.2401  0.0602
78163W        W21216  10.923  20.678   7.628  0.2548 -0.0919  0.0706
78164W        W21217  18.392  24.989  20.916  0.2272 -0.0788 -0.1051
78165W        W21218   8.516  15.464  22.416  0.0883 -0.0505  0.1125
78166W        W21219  13.252   3.692   7.112  0.0959  0.0450  0.1093
78167W        W21220   9.017  16.848  19.097 -0.0106 -0.2004 -0.2893
78168W        W21221  24.764  29.778   4.848 -0.4026 -0.1193 -0.1861
78169W        W21222  13.299  12.947  26.850 -0.0803 -0.1393 -0.1323
78170W        W21223  14.877  16.110  24.405 -0.2816 -0.0193 -0.0133
78171W        W21224  12.087   9.585  23.691  0.1198 -0.1600  0.3563
78172W        W21225  34.183  23.653   3.868  0.1083 -0.1494 -0.1118
78173W        W21226  13.803   5.803   6.008 -0.1941 -0.2373  0.1131
78174W        W21227  32.896   5.683   8.579  0.0245  0.1576  0.2397
78175W        W21228  13.919   8.777  19.203 -0.1036 -0.2791 -0.1955
78176W        W21229  12.222  29.775   2.399 -0.1164  0.1471  0.0459
78177W        W21230  31.863  23.018   2.525  0.0133  0.0159 -0.0815
78178W        W21231  32.832  13.022   6.595 -0.2407  0.0937 -0.0587
78179W        W21232  32.615   8.040  21.899 -0.1552 -0.1422  0.1696
78180W        W21233  33.495   7.667  27.456  0.0780 -0.1822 -0.0924
78181W        W21234   7.558   4.513  27.180 -0.3213  0.2578  0.0344
78182W        W21235   7.285   3.374  21.457  0.0297  0.0679 -0.0129
78183W        W21236  28.383  11.373   9.602 -0.0743  0.4139 -0.0916
78184W        W21237  14.220  27.592   9.449 -0.2346 -0.1922  0.2076
78185W        W21238  10.568   3.245   8.032 -0.3507 -0.1128 -0.0419
78186W        W21239   4.734   5.405   9.192  0.3822 -0.0535 -0.1113
78187W        W21240  21.335  14.366   6.142 -0.4996 -0.1212 -0.1681
78188W        W21241  15.708   7.973  23.769  0.0625  0.5162 -0.0623
78189W        W21242   1.210   9.622  21.458 -0.6143  0.0141  0.0150
78190W        W21243  11.889  33.514   8.374  0.1352  0.0304 -0.0905
78191W        W21244   7.017  28.141   1.288 -0.0331  0.2318  0.0953
78192W        W21245  13.386   1.745   1.903 -0.2135 -0.0708 -0.1211
78193W        W21246  12.027   8.969   2.057  0.1988  0.0533  0.1947
78194W        W21247  22.742  13.848   8.326  0.0367  0.0739 -0.0094
78195W        W21248  14.286  34.263   8.564  0.5677 -0.0447 -0.1275
78196W        W21249   7.144  10.477   8.956 -0.1874 -0.4059  0.1309
78197W        W21250   3.899  32.284   0.060 -0.0425 -0.1622  0.1755
78198W        W21251  10.928   6.387  11.119  0.1354  0.0021 -0.0264
78199W        W21252  13.252  19.155  25.154 -0.0323  0.0170  0.0317
78200W        W21253   0.843   7.321   2.358 -0.1047 -0.1310  0.1079
78201W        W21254  29.717  19.113  19.826 -0.2230  0.2991  0.0183
78202W        W21255  31.380  11.736   6.505  0.0797 -0.0373 -0.1137
78203W        W21256   4.796  32.707   4.561  0.0527  0.1917  0.1395
78204W        W21257  10.767  32.795   5.127  0.2028 -0.3010 -0.3040
78205W        W21258  12.357  13.447  26.534  0.0315  0.1216  0.1349
78206W        W21259   2.173  15.186   4.523 -0.0434 -0.2562 -0.1102
78207W        W21260  14.230   8.090   6.817 -0.1410 -0.3557  0.0377
78208W        W21261   9.125   6.457   7.982 -0.0998  0.3028  0.2275
78209W        W21262  29.561  11.658   5.511  0.2541 -0.0618  0.2687
78210W        W21263  14.079  11.765  24.645  0.0603 -0.0187 -0.2615
78211W        W21264   6.769  29.844   6.205  0.0270 -0.0224 -0.2580
78212W        W21265   0.411  32.548   3.132 -0.2211 -0.0207  0.1867
78213W        W21266   5.508  25.102   8.212  0.3644  0.1540 -0.0562
78214W        W21267   1.582  30.789   1.799 -0.1330  0.0542  0.0549
78215W        W21268  24.543  28.471   5.150 -0.0721 -0.1237 -0.1614
78216W        W21269  11.100   2.196  14.234 -0.3540  0.2115 -0.3050
78217W        W21270  17.496   1.647  10.109  0.0099 -0.2357 -0.0512
78218W        W21271   1.178  23.640  27.566 -0.0542 -0.1336  0.3749
78219W        W21272   8.780   0.842   9.496 -0.0652 -0.0699  0.0404
78220W        W21273   9.055   3.671   6.679 -0.0668 -0.0236  0.0849
78221W        W21274   7.440   0.496   8.121  0.2244  0.3119 -0.1234
78222W        W21275   9.992  32.330  26.461  0.0114  0.3755 -0.2436
78223W        W21276  24.644  18.367   4.742  0.1622 -0.0805 -0.3450
78224W        W21277  11.438  31.736  23.347 -0.2566 -0.2559  0.0385
78225W        W21278  22.908   4.035  15.347 -0.0143 -0.1424 -0.2833
78226W        W21279   9.515   0.571  10.051  0.1240  0.1177  0.2298
78227W        W21280  14.209  27.865   6.460 -0.3056  0.1387 -0.4402
78228W        W21281   9.826   0.204   7.196  0.1948  0.2189  0.1228
78229W        W21282  20.346   7.981   3.631  0.2702  0.1151  0.1798
78230W        W21283  16.476  17.709   2.289 -0.0785 -0.2129  0.0642
78231W        W21284  11.056   5.498  28.047 -0.1240  0.3928  0.0348
78232W        W21285  10.932   3.260  14.216  0.1387  0.0912 -0.4794
78233W        W21286  28.628  22.548   7.700  0.3539 -0.2200 -0.2352
78234W        W21287  22.383  24.735   8.209 -0.0509  0.1873 -0.1114
78235W        W21288  21.525  11.770  25.568  0.0447 -0.1504 -0.0566
78236W        W21289  11.011   3.533  27.930 -0.0296 -0.2469  0.0460
78237W        W21290  11.190  11.058   5.772 -0.2162 -0.0787 -0.5850
78238W        W21291  25.263   2.275   3.604 -0.3211  0.0112  0.2685
78239W        W21292  27.092  23.572   2.233 -0.4138  0.1918 -0.0437
78240W        W21293  15.077   9.912   6.692  0.1990 -0.0194 -0.0603
78241W        W21294  32.840   4.872  21.974 -0.1754 -0.2211 -0.0385
78242W        W21295  10.749  28.159  27.992  0.0815 -0.1660 -0.2405
78243W        W21296  20.966  28.775   0.050 -0.1127  0.0097  0.2224
78244W        W21297  19.816  27.101   8.882 -0.2024 -0.0740  0.0044
78245W        W21298  30.269  27.717  16.181 -0.0924  0.6299 -0.0334
78246W        W21299   5.404  20.623   9.090  0.1990 -0.1192 -0.0824
78247W        W21300  10.321  31.560  18.717  0.2505 -0.1983  0.1572
78248W        W21301   9.666  19.447  24.657 -0.0558  0.0308 -0.2001
78249W        W21302   5.399   4.312   6.231 -0.2691  0.0194 -0.0517
78250W        W21303  32.620  21.841  27.280  0.3565 -0.1126 -0.0712
78251W        W21304   4.028  34.566   9.495  0.0484  0.1030  0.0306
78252W        W21305   0.044   5.470   0.448  0.4139 -0.3018 -0.1915
78253W        W21306  34.185   7.564   6.865 -0.3787  0.0183  0.5062
78254W        W21307  12.022   1.676   3.181  0.0236 -0.0433  0.3906
78255W        W21308  32.355   0.018   7.399  0.2127 -0.1473  0.1381
78256W        W21309  10.673   5.337  19.950  0.2542  0.2112 -0.0861
78257W        W21310  14.992  18.385   6.422 -0.0391  0.0608  0.1106
78258W        W21311   8.956  23.318   7.409 -0.3718  0.2047 -0.2805
78259W        W21312  28.104   6.013   9.586  0.1735 -0.2100  0.0604
78260W        W21313  19.250   4.057  20.617  0.1278 -0.1359 -0.0414
78261W        W21314  19.132  24.660   9.141 -0.2336 -0.1175 -0.0908
78262W        W21315   1.446   5.052   0.269 -0.1714 -0.0623  0.2932
78263W        W21316  13.203  25.501   6.058  0.2614  0.2200  0.1495
78264W        W21317  30.750   5.515   7.862 -0.0041 -0.0967  0.0786
78265W        W21318  11.004  18.460   2.456  0.0233 -0.2288  0.4322
78266W        W21319   9.529  18.050   5.018 -0.1751  0.2415 -0.1795
78267W        W21320  27.293  23.061  25.432  0.3241  0.4245  0.0028
78268W        W21321   3.031  28.130   1.949  0.0705  0.1692 -0.1924
78269W        W21322  19.709  15.286   2.850  0.0881  0.0755  0.3885
78270W        W21323   4.019   4.249   0.149  0.2672  0.0523  0.1708
78271W        W21324  12.395   3.816  26.881  0.2035  0.2697  0.0382
78272W        W21325  13.859   8.354   3.559 -0.1342 -0.0881 -0.0256
78273W        W21326  14.241  31.533  14.134  0.2397  0.1598  0.3657
78274W        W21327  12.717  10.903   1.450  0.4794  0.0135 -0.0738
78275W        W21328  13.011  31.749  24.002  0.3291  0.1694 -0.1056
78276W        W21329  11.012  10.884   7.967 -0.1389  0.0575  0.0041
78277W        W21330   8.106   9.143   0.534  0.0640  0.1771  0.3277
78278W        W21331   4.669   1.592   7.828 -0.0427  0.0920  0.3962
78279W        W21332  16.538   1.206   9.691 -0.0094 -0.0666 -0.1594
78280W        W21333  29.523   5.149   8.395 -0.2074 -0.0881  0.1265
78281W        W21334  16.400   9.352   7.179  0.2093  0.0860  0.0971
78282W        W21335  15.723   6.011  27.930 -0.0223 -0.0554  0.0620
78283W        W21336  20.414  16.042  27.660 -0.2708  0.1251 -0.0575
78284W        W21337   0.465   4.763  28.597 -0.0902 -0.0113 -0.1572
78285W        W21338  13.573  30.694  23.066 -0.1657 -0.0974 -0.0920
78286W        W21339   7.751  12.079   4.088  0.2034 -0.0896  0.5225
78287W        W21340  12.458  19.108  22.558 -0.1291  0.0629  0.1853
78288W        W21341  23.345   4.018   7.363 -0.1855 -0.2195 -0.2350
78289W        W21342  13.827   8.040  18.145  0.0582  0.0609  0.1595
78290W        W21343  20.053  34.019   6.458 -0.2549 -0.1526 -0.1640
78291W        W21344   2.260  30.508   5.065 -0.0311 -0.2722 -0.1476
78292W        W21345  33.796  17.593   6.053  0.0065 -0.0685 -0.2269
78293W        W21346  13.516  17.481   5.800 -0.1819 -0.2449  0.1108
78294W        W21347  19.390  11.513   4.557  0.4127  0.0814 -0.1877
78295W        W21348  10.097   4.314  10.184  0.1837 -0.0067 -0.1925
78296W        W21349   8.646  25.849   4.211 -0.1044  0.0738  0.1956
78297W        W21350  11.396   8.618  28.577  0.0127 -0.4856  0.0669
78298W        W21351  15.512   6.860  10.419 -0.0967  0.1343  0.0985
78299W        W21352   1.885   1.237   2.963  0.3070  0.1471 -0.1070
78300W        W21353  14.435  30.756   5.831  0.1050 -0.2820 -0.1417
78301W        W21354   8.397  30.663   3.051 -0.0913  0.1874  0.0062
78302W        W21355  10.860  28.022  29.188  0.1100  0.3433 -0.2414
78303W        W21356  15.649  31.931   7.820  0.0786 -0.2535 -0.0042
78304W        W21357   6.079  34.459   9.272 -0.0228 -0.0573  0.1985
78305W        W21358  18.303  20.616  23.522  0.1019 -0.2185 -0.0500
78306W        W21359   5.329   3.568   2.490 -0.3243  0.0757 -0.2077
78307W        W21360   3.410  12.686  20.388  0.1502  0.0370 -0.3884
78308W        W21361   0.691   5.100   9.857 -0.0165  0.0427 -0.0556
78309W        W21362   8.974  31.673   8.312  0.0482  0.1421 -0.0682
78310W        W21363  28.996  25.179  26.719 -0.3257 -0.1670  0.2051
78311W        W21364  16.674   9.141  25.733 -0.1711  0.0979 -0.2549
78312W        W21365   9.357   5.015  21.275  0.1858  0.0327 -0.0048
78313W        W21366  22.032  13.727  23.052  0.3010 -0.4231  0.0189
78314W        W21367  32.324  20.046  23.280  0.0209  0.2573 -0.1047
78315W        W21368  19.037  22.567   8.354 -0.1593  0.2904 -0.1026
78316W        W21369  14.839  15.875  23.925  0.2987  0.0074 -0.1939
78317W        W21370  32.810  27.726   0.598 -0.0430 -0.0327  0.2507
78318W        W21371   7.161   2.663   6.904 -0.1107  0.0032 -0.1398
78319W        W21372  28.238  17.922   2.559 -0.1329  0.3313 -0.3524
78320W        W21373  15.365  11.673   7.653 -0.0974  0.1422  0.0295
78321W        W21374  19.318   1.245  28.596 -0.0567 -0.0841 -0.0249
78322W        W21375   4.273  10.712   9.428  0.0604 -0.1328 -0.0135
78323W        W21376  13.829  20.396   2.626 -0.2387 -0.1846 -0.0849
78324W        W21377   4.374  20.801  22.396  0.3159  0.3069 -0.0333
78325W        W21378  26.767  12.916   9.857  0.0683 -0.3071  0.3348
78326W        W21379  18.157   1.127   5.329 -0.1785  0.0823 -0.2812
78327W        W21380   1.455  27.478   5.601 -0.0402  0.0619 -0.2433
78328W        W21381   8.926   2.576   7.853 -0.1168 -0.3078  0.0039
78329W        W21382  13.294  12.825   7.614 -0.0310 -0.1141  0.0639
78330W        W21383  11.332   8.137   2.894 -0.2577  0.3111 -0.3815
78331W        W21384  14.171   9.586   8.223 -0.0169 -0.1051 -0.0302
78332W        W21385  31.900  24.399   8.570  0.0089  0.3496  0.0381
78333W        W21386  22.524  34.614   6.309  0.0563  0.0600 -0.1911
78334W        W21387   0.983   8.807   8.935 -0.4191  0.0829 -0.2364
78335W        W21388  11.125  16.019   8.523 -0.0850  0.0747 -0.2669
78336W        W21389  33.636  34.488  20.253 -0.0140 -0.0426  0.0400
78337W        W21390  11.345   9.058   7.690 -0.3127 -0.0277  0.3493
78338W        W21391  19.355  15.615   2.794  0.2503  0.2141  0.2291
78339W        W21392  12.469  11.797  23.811  0.0275  0.3952 -0.5680
78340W        W21393  22.598   8.861   1.271  0.0691 -0.2545 -0.2672
78341W        W21394   1.537  30.270   8.333 -0.1949  0.0649  0.1427
78342W        W21395   8.554  10.514   4.375 -0.0115  0.2367  0.0073
78343W        W21396   6.927   6.035  23.478  0.0513  0.0838  0.0284
78344W        W21397   9.224   4.442  10.155  0.2400 -0.2422  0.2549
78345W        W21398  24.386  14.923   0.940  0.2770 -0.1225  0.1925
78346W        W21399  34.608  30.841  27.882  0.1826  0.0728  0.1523
78347W        W21400  13.139  24.530   3.456  0.0791 -0.4639 -0.0509
78348W        W21401   3.778  26.690   9.709 -0.0377 -0.2688 -0.0877
78349W        W21402  16.132  10.416   2.679 -0.1233  0.0835  0.0123
78350W        W21403   4.558   4.413   4.384 -0.1080  0.0924  0.3583
78351W        W21404   5.044  16.114   6.103  0.2694  0.0429 -0.0677
78352W        W21405   3.664  10.158  24.518 -0.1819  0.1136 -0.0402
78353W        W21406   8.589   4.739  20.276  0.1075  0.3633 -0.0836
78354W        W21407   4.894  25.799   2.262  0.1315 -0.4396  0.2708
78355W        W21408   5.550   0.886  15.920 -0.2941 -0.1508 -0.0012
78356W        W21409   2.422   7.476   8.255 -0.3059 -0.2902 -0.1249
78357W        W21410  11.471  27.277  26.941  0.1512  0.1801 -0.1594
78358W        W21411   1.112  14.722   2.622 -0.2290  0.0886  0.0392
78359W        W21412   6.894   6.585   2.308  0.1320  0.1631  0.3636
78360W        W21413   7.183  15.036   2.785  0.1481 -0.0114 -0.1924
78361W        W21414  30.342   4.316  28.567 -0.0304 -0.2703  0.0241
78362W        W21415  26.229  10.038   2.593 -0.2078 -0.2021 -0.0949
78363W        W21416  14.065  27.674  10.042  0.1053  0.4668  0.4263
78364W        W21417  15.608   2.514   1.132  0.1754  0.2471  0.0804
78365W        W21418  19.160  32.610  18.540 -0.1667  0.0335 -0.0272
78366W        W21419  11.815  18.670  21.672 -0.0944 -0.2533 -0.1033
78367W        W21420   4.092  33.750   6.032  0.1044  0.2012 -0.0032
78368W        W21421   4.756   7.423  26.983 -0.4769 -0.2188 -0.2867
78369W        W21422   8.812  33.394  28.747 -0.1711  0.2254  0.0203
78370W        W21423   6.005   2.922  26.470  0.1593 -0.1974  0.2254
78371W        W21424  15.058  12.538  26.445  0.0234 -0.4677  0.1125
78372W        W21425   5.231   3.953   9.092  0.2993  0.1813  0.2138
78373W        W21426  18.838  14.921  13.417  0.2389  0.0416  0.0226
78374W        W21427   6.465  28.821   8.458  0.1073 -0.2367 -0.1152
78375W        W21428  21.102  15.605  19.764 -0.0294  0.0478 -0.1019
78376W        W21429  24.105  22.412   7.887  0.2018  0.0614  0.2054
78377W        W21430   5.281  32.170   8.964 -0.0554  0.3146 -0.1356
78378W        W21431  31.578  32.232   5.188 -0.1092 -0.2029  0.1527
78379W        W21432  13.971   7.643  27.943 -0.3622 -0.1872  0.3142
78380W        W21433   2.193   8.275   6.918  0.0654  0.0044  0.1892
78381W        W21434   5.161   2.406  17.256  0.1427  0.0306 -0.0290
78382W        W21435   8.043  12.768   6.003  0.1089 -0.1001  0.0743
78383W        W21436  10.701   4.437  24.112  0.2916  0.1753 -0.0691
78384W        W21437  14.316   9.704  10.430  0.0397  0.1125  0.5439
78385W        W21438  30.303  13.052   7.186 -0.1351  0.0085 -0.2182
78386W        W21439   8.104  21.443   5.679 -0.3750 -0.1740 -0.2425
78387W        W21440  21.473  16.765   8.998 -0.0178 -0.0776  0.0910
78388W        W21441  24.159   0.275  27.749 -0.3142  0.0753  0.3234
78389W        W21442  10.857   4.795   6.066 -0.1066 -0.1678 -0.1771
78390W        W21443  24.210   5.704   6.859 -0.0983  0.2529  0.0475
78391W        W21444   1.951  15.785   3.880  0.2984  0.2041  0.0788
78392W        W21445  25.695   9.728   8.932 -0.0702 -0.1226  0.0109
78393W        W21446   3.831   2.203   2.440 -0.0017 -0.1872 -0.1337
78394W        W21447   2.498  10.366   1.706 -0.3413  0.5231 -0.2556
78395W        W21448   3.438  24.196  28.740  0.0632  0.0701  0.1065
78396W        W21449  24.879   0.588  24.998  0.1779  0.0992  0.1292
78397W        W21450   4.899  12.806   8.176  0.1368 -0.1314 -0.1719
78398W        W21451   3.344   1.472   0.347 -0.1823 -0.3213  0.0277
78399W        W21452   2.468   4.768  14.835  0.1143 -0.0475  0.2896
78400W        W21453  15.502  20.892  17.005  0.1323 -0.4490 -0.0395
78401W        W21454   5.654  24.325  10.222 -0.0533 -0.2092  0.1294
78402W        W21455   6.300   7.710   2.378  0.0074 -0.0541  0.1073
78403W        W21456  11.671  10.084   9.645  0.0656 -0.2451 -0.0284
78404W        W21457  18.805   4.795   8.802  0.2412  0.2179  0.1273
78405W        W21458   7.252  14.962  28.674  0.0236  0.1924 -0.2658
78406W        W21459   5.370   2.291   4.184 -0.0895  0.3487 -0.2004
78407W        W21460  21.324  28.465  28.841 -0.1459 -0.0329  0.2203
78408W        W21461  11.061  15.892   3.781 -0.2050  0.0121 -0.2643
78409W        W21462  30.860   3.180   5.125 -0.0775  0.1582  0.0541
78410W        W21463  21.738  31.765   9.753 -0.4636  0.0104  0.1735
78411W        W21464   8.321   7.286   0.058  0.3222  0.5201  0.1070
78412W        W21465  33.696   3.184   7.901  0.0500  0.1235 -0.1687
78413W        W21466  16.398  29.463   9.861  0.3401  0.1587 -0.2608
78414W        W21467  18.891  10.842   0.512  0.5014 -0.1279 -0.0724
78415W        W21468  30.118  13.065   4.255  0.1413  0.1270  0.2541
78416W        W21469   8.775  14.746   5.011 -0.1998 -0.2099  0.3174
78417W        W21470   1.539  22.331   9.248  0.2059 -0.1659 -0.3000
78418W        W21471  25.416  22.838   3.894  0.3161  0.3366 -0.1810
78419W        W21472  27.276   4.003  20.390  0.0909  0.1343  0.1010
78420W        W21473  11.189  31.460   7.607  0.0720  0.3771 -0.0098
78421W        W21474   5.977  17.919  16.814 -0.2780 -0.0484  0.1920
78422W        W21475   8.759  16.089  21.178 -0.2140  0.1730  0.0016
78423W        W21476  19.061  13.129  24.209 -0.0529 -0.1584  0.0940
78424W        W21477  34.368  28.066  19.611  0.0754  0.0220 -0.1523
78425W        W21478  28.120   5.878  22.052 -0.2901  0.0338  0.2954
78426W        W21479  19.039  34.122   4.667 -0.2304  0.0700  0.0086
78427W        W21480  25.804   0.744   9.805 -0.2348  0.0984 -0.0921
78428W        W21481  33.324   3.247   1.011  0.0132 -0.0233  0.0424
78429W        W21482  12.562   9.915   0.644 -0.2430  0.3403 -0.1200
78430W        W21483  20.068  29.003   8.539 -0.3659  0.0958  0.1516
78431W        W21484  28.583   7.392  26.492  0.1302 -0.0913 -0.2001
78432W        W21485   2.535  20.936  22.382 -0.1719 -0.2764 -0.1213
78433W        W21486   9.468  27.587   4.956  0.0923 -0.1693  0.1837
78434W        W21487  18.922   5.687  22.096  0.1290  0.1977 -0.1065
78435W        W21488  20.120  29.192   0.618 -0.0805  0.2103  0.1452
78436W        W21489   8.816  13.122   8.701  0.0482 -0.1240  0.1496
78437W        W21490  11.264  33.721  17.251  0.1695 -0.1544  0.0488
78438W        W21491  13.861  14.842   1.658  0.1851  0.0841 -0.0149
78439W        W21492  23.610   0.663   9.753 -0.0763 -0.2697  0.2654
78440W        W21493   3.835   7.571   6.645 -0.0801 -0.1763  0.0530
78441W        W21494   8.120  32.636   3.709 -0.0713 -0.1350  0.1397
78442W        W21495   5.900   2.769   5.635  0.1552 -0.4067  0.1271
78443W        W21496   1.593  15.252  16.454 -0.1970 -0.2208 -0.0434
78444W        W21497  12.410  26.635   7.793  0.1104 -0.0509 -0.2429
78445W        W21498   3.965  15.436   4.643  0.0218 -0.0226 -0.1489
78446W        W21499  17.008   1.674  28.926 -0.2399  0.0033  0.1402
78447W        W21500   6.405   5.886  10.685  0.1553 -0.0390 -0.1261
78448W        W21501  20.033   2.516  29.081 -0.2035 -0.0273 -0.5097
78449W        W21502   7.910   8.932  25.363  0.2220  0.1173 -0.1834
78450W        W21503   5.905  31.100   0.927  0.0856  0.2625  0.0137
78451W        W21504   3.491  21.811   3.834 -0.0773 -0.4309 -0.2673
78452W        W21505   9.557  31.975   7.670 -0.1495 -0.0170 -0.2637
78453W        W21506  10.629  21.913   4.789  0.0742 -0.0739  0.0131
78454W        W21507   9.710  16.044   6.246  0.3226  0.0341 -0.4563
78455W        W21508   7.784  18.150   1.695  0.2043 -0.0683 -0.1633
78456W        W21509  34.010  34.029   7.283  0.1343 -0.1851  0.0740
78457W        W21510  17.339  12.550  28.217  0.0540  0.3841 -0.0589
78458W        W21511   5.607  12.498  28.512 -0.0981  0.1745  0.0946
78459W        W21512  30.527   6.475   2.824 -0.1117 -0.0257 -0.0208
78460W        W21513   9.029  29.271  27.457  0.0612 -0.2364  0.0468
78461W        W21514   5.081   2.860   0.432 -0.1045  0.0253  0.0995
78462W        W21515  33.508   3.527  28.181  0.0424 -0.0057  0.0140
78463W        W21516  31.726  24.767   1.302  0.0055 -0.5654  0.1257
78464W        W21517  32.943   1.934  21.812 -0.1256 -0.0477  0.1502
78465W        W21518  20.144  14.068   6.593 -0.1313  0.0252 -0.3310
78466W        W21519   5.649  11.565   9.687 -0.0329  0.2223  0.0605
78467W        W21520  11.479   4.288   5.696 -0.2236 -0.0140 -0.0695
78468W        W21521   0.381  32.154  16.986 -0.2857 -0.3993  0.1429
78469W        W21522   2.825   3.422  27.952 -0.2537 -0.1762 -0.1736
78470W        W21523   9.533  14.731   5.474 -0.1089  0.1721 -0.0161
78471W        W21524   3.895  10.716  27.984  0.0570 -0.1961 -0.5489
78472W        W21525  25.718  32.718   7.124 -0.0589  0.0268  0.1362
78473W        W21526  29.557   4.961   7.449  0.0817  0.3028 -0.3460
78474W        W21527  11.023   4.724  26.716  0.0457  0.1866  0.0586
78475W        W21528  29.524  10.415  20.573 -0.0791 -0.0872  0.1424
78476W        W21529   2.141   6.273  21.317  0.2063  0.2849  0.1059
78477W        W21530  15.403   3.580  16.195  0.1276  0.2556  0.0595
78478W        W21531   5.256   7.642  24.836 -0.0049 -0.2049 -0.0805
78479W        W21532  13.635  29.865   3.653 -0.1172  0.0101  0.1010
78480W        W21533   6.588  19.974   7.057  0.1019  0.1503  0.0727
78481W        W21534  17.451  17.481   3.726 -0.0089  0.0895 -0.1648
78482W        W21535  18.334  33.613   4.934  0.2098  0.1530 -0.0968
78483W        W21536  31.084   7.355   6.780 -0.0725 -0.1884  0.2099
78484W        W21537   2.688  32.341   2.952  0.3776  0.0339 -0.0518
78485W        W21538  12.845  29.660   8.366  0.1264  0.1634 -0.1644
78486W        W21539  18.741   6.013  18.074  0.2242  0.1786 -0.1739
78487W        W21540  34.429   9.411  20.422  0.1120 -0.1950 -0.2949
78488W        W21541  34.185  13.630  23.245 -0.0140 -0.0267 -0.0648
78489W        W21542  31.392   0.609   7.342 -0.1881  0.1323  0.0024
78490W        W21543   0.136   3.462   5.024  0.0530  0.0966  0.1277
78491W        W21544  10.472  22.382   3.123  0.0518  0.0171  0.0466
78492W        W21545  15.209  23.756   5.187 -0.3325 -0.3210 -0.3261
78493W        W21546  11.482  33.332   4.614 -0.0769  0.1802 -0.4704
78494W        W21547  12.902  30.145  19.185 -0.2571 -0.0046  0.0956
78495W        W21548  29.682   8.893   8.993 -0.1550 -0.3496  0.0335
78496W        W21549  30.214   7.413   9.445 -0.0490 -0.2062 -0.2076
78497W        W21550   2.543  32.149  14.862  0.1255  0.0678 -0.0140
78498W        W21551  13.451  10.803   9.374  0.0352 -0.1603 -0.4734
78499W        W21552  18.969  21.206  20.122  0.1056 -0.0836 -0.0439
78500W        W21553   4.604   9.776   9.771  0.1762 -0.1653  0.0230
78501W        W21554   8.673  26.433   9.784 -0.0122 -0.0565  0.2956
78502W        W21555  25.553  14.791   6.904 -0.0964  0.0786 -0.0091
78503W        W21556  10.968   6.941  10.372  0.2458 -0.2479 -0.3093
78504W        W21557   5.945  23.970   1.766  0.3225 -0.0224 -0.1529
78505W        W21558   7.590   1.463   1.511  0.0807 -0.0829  0.1489
78506W        W21559  16.833   5.547   2.393 -0.2491 -0.0352  0.2957
78507W        W21560  15.351  11.461   0.147  0.2918 -0.0701 -0.0686
78508W        W21561  17.414   4.807  28.488  0.0526 -0.0095 -0.4767
78509W        W21562   7.513  13.369  23.285 -0.1375 -0.1598  0.0445
78510W        W21563   8.385  15.217  25.526 -0.0829 -0.0164  0.1032
78511W        W21564  26.974  10.055   5.308 -0.2290  0.0524  0.0128
78512W        W21565   8.385   1.792   0.690  0.0292 -0.0849  0.1472
78513W        W21566  17.344   5.664   3.781  0.1550  0.2773  0.2160
78514W        W21567  12.318   5.496   1.294  0.0705  0.1495 -0.0998
78515W        W21568   2.134   8.739   8.153  0.3430 -0.2261 -0.2451
78516W        W21569  11.256  11.470   4.882 -0.4344  0.2558  0.1238
78517W        W21570  18.914  12.584   7.806 -0.0258  0.1934  0.1276
78518W        W21571  34.365  19.007   1.549  0.0920 -0.0436  0.0992
78519W        W21572  17.278  28.405   8.081  0.1222  0.0039 -0.2580
78520W        W21573  13.238  20.494  21.469  0.3344 -0.0168 -0.2216
78521W        W21574  11.224   9.150   7.132 -0.1435 -0.0231  0.1024
78522W        W21575  18.083   7.003   8.963 -0.1796  0.1630 -0.0538
78523W        W21576   8.315  20.058  21.628 -0.0768  0.0045 -0.0891
78524W        W21577  18.135  31.699   3.262  0.1662  0.2776 -0.0031
78525W        W21578  17.272   9.368   0.909  0.1112 -0.1416 -0.0300
78526W        W21579   6.147  27.450   8.950  0.0013  0.2495 -0.2818
78527W        W21580  25.746   9.936   5.184  0.1427  0.1211 -0.1083
78528W        W21581  17.500   5.194  26.000  0.1458 -0.1384 -0.0419
78529W        W21582  15.377  27.694  24.451  0.3163  0.1231 -0.1015
78530W        W21583  12.418   4.952   7.494 -0.3015  0.0530  0.1074
78531W        W21584  14.803  32.393  25.224  0.1618  0.2596  0.0490
78532W        W21585   2.557  17.060   1.501 -0.0458 -0.2309 -0.1519
78533W        W21586   2.118  24.715  22.921 -0.1188  0.3118 -0.1135
78534W        W21587  12.288   9.919  28.350 -0.1114  0.0704 -0.1942
78535W        W21588  10.503  21.656   8.604  0.0312  0.0078 -0.1121
78536W        W21589  22.623   2.341   1.531  0.0814 -0.4303 -0.0863
78537W        W21590  32.081   0.840  27.906 -0.2350 -0.2706  0.3132
78538W        W21591  30.253  16.585  23.693  0.1543 -0.0372 -0.1930
78539W        W21592  27.281   0.947  27.179 -0.4764 -0.0548 -0.0500
78540W        W21593   1.094  26.868  13.557  0.4028 -0.1621 -0.1743
78541W        W21594  16.885   3.426   7.307 -0.1224 -0.3583 -0.0299
78542W        W21595  14.601  20.670  22.549 -0.2116 -0.0079 -0.0553
78543W        W21596   2.694  25.551   7.139  0.0823  0.0529 -0.0646
78544W        W21597  31.286   0.665  28.226  0.0288  0.2506 -0.1635
78545W        W21598  17.282   8.508   1.619 -0.0079 -0.1166  0.1630
78546W        W21599  10.393  10.612  23.013 -0.2589 -0.1497 -0.1084
78547W        W21600  15.457  10.801   4.870 -0.0974 -0.0761 -0.0607
78548W        W21601  30.723  11.364   8.669  0.1503 -0.2300 -0.2497
78549W        W21602  22.985  30.142   5.624  0.0242 -0.1289 -0.0137
78550W        W21603  10.851  33.205   7.744 -0.2031 -0.0322  0.1400
78551W        W21604  19.280  17.435  28.975 -0.1828  0.2321  0.1697
78552W        W21605  32.901  10.255  22.180  0.2568  0.0396 -0.2379
78553W        W21606  16.341   7.817  10.297  0.0103 -0.4102  0.2940
78554W        W21607  12.070   4.865   9.947 -0.0176  0.2901 -0.0698
78555W        W21608  13.189  23.281   6.994 -0.1010  0.1989 -0.0937
78556W        W21609   9.908  17.893  26.352  0.2831  0.1427  0.0062
78557W        W21610   8.214   8.961  27.604  0.0087  0.0859  0.0045
78558W        W21611   4.720   4.924   5.470 -0.3219  0.3651  0.2940
78559W        W21612  17.341  28.073   2.886 -0.5651  0.2707 -0.0986
78560W        W21613  24.638   4.171  26.370  0.1354 -0.3512 -0.2048
78561W        W21614  10.405   1.668   7.255 -0.0996 -0.2290 -0.4418
78562W        W21615  26.816   9.622  25.279 -0.0890  0.0656  0.1072
78563W        W21616  30.239  16.564   0.174 -0.2505 -0.3258 -0.0377
78564W        W21617  12.718   3.652   7.205 -0.2339  0.2105  0.0807
78565W        W21618  15.861   3.919   8.499  0.0602 -0.0921 -0.1396
78566W        W21619   1.298  29.462  26.037  0.1174 -0.2300  0.1175
78567W        W21620  34.232   8.423  26.613  0.0233  0.1638 -0.0203
78568W        W21621   6.624  28.524  29.143 -0.0069  0.2732 -0.1993
78569W        W21622   5.738  10.536   9.841 -0.0069  0.2084  0.0219
78570W        W21623  23.742  27.106  10.302 -0.2494 -0.0317  0.0990
78571W        W21624  20.972   8.352   9.207 -0.1898 -0.2831  0.1918
78572W        W21625  23.664   2.823   5.444  0.2659 -0.2104  0.3415
78573W        W21626  10.232  12.830   3.578 -0.1651 -0.0210  0.1581
78574W        W21627  21.156   6.700   8.681  0.0422 -0.2214  0.0487
78575W        W21628  34.109  27.210  23.353 -0.0655  0.0008  0.2193
78576W        W21629  11.128   9.916   2.865 -0.2173  0.0718  0.0796
78577W        W21630   9.271  14.003  10.967  0.0566  0.0035 -0.0304
78578W        W21631  31.798  28.934   7.409 -0.0922 -0.0525  0.1933
78579W        W21632  22.398  24.637  19.308  0.3997 -0.6001 -0.1572
78580W        W21633  16.086   3.421   7.093 -0.1127  0.1120  0.0090
78581W        W21634  14.927   7.752   0.288  0.1000  0.0399  0.0447
78582W        W21635   6.292  34.078  26.135 -0.0101 -0.1378  0.0168
78583W        W21636   6.001  21.937   3.581  0.1309 -0.0851  0.0201
78584W        W21637   8.190   1.283   8.346 -0.0491 -0.2432  0.1769
78585W        W21638   4.771  30.100  27.370 -0.2019  0.2534 -0.3155
78586W        W21639  18.079  13.916   2.587 -0.0755  0.3036 -0.2362
78587W        W21640  11.805  15.950   4.336 -0.0085  0.1376  0.1184
78588W        W21641  10.306  14.621   8.145 -0.2175  0.0399  0.0156
78589W        W21642  20.187   8.920   5.481  0.0938  0.3308 -0.0556
78590W        W21643  12.376   1.700   1.568  0.0646 -0.0700  0.2222
78591W        W21644  28.281  12.739   6.301  0.0040 -0.3758 -0.0641
78592W        W21645   7.875   4.665   3.345  0.2572  0.1868 -0.1573
78593W        W21646  16.599   8.299   5.680  0.3408  0.0862 -0.1198
78594W        W21647   7.669   9.376   7.511 -0.0459  0.3178 -0.1395
78595W        W21648   4.452   9.527   3.367 -0.1971 -0.1508 -0.1046
78596W        W21649  26.939  10.536   2.153 -0.0283 -0.1756  0.3021
78597W        W21650   3.963  30.970  23.983  0.1153 -0.2549  0.0658
78598W        W21651  29.516   3.437   5.630  0.1743  0.0491 -0.3326
78599W        W21652  16.972  22.798  26.869 -0.3395  0.0617  0.0403
78600W        W21653  29.875   4.969   1.720 -0.2820  0.0400 -0.2069
78601W        W21654  20.181  25.580   9.113  0.3421 -0.0830 -0.1229
78602W        W21655  34.482   2.083  16.119  0.0555  0.3908  0.1008
78603W        W21656  13.025  11.255  18.804  0.0631  0.1098 -0.0408
78604W        W21657   4.048   3.817   9.213  0.1838  0.0268  0.2746
78605W        W21658  20.032  33.830   0.040  0.0128 -0.0844 -0.0679
78606W        W21659  12.018  15.076  28.147 -0.0440 -0.1040  0.1678
78607W        W21660  33.863  13.642  21.460  0.2489 -0.0138 -0.1761
78608W        W21661   8.442  31.993   0.802 -0.0076 -0.1365 -0.0800
78609W        W21662  10.003  12.129   8.654 -0.3639  0.0072 -0.1774
78610W        W21663  15.904  19.807  28.424  0.1965  0.0562 -0.2538
78611W        W21664  26.402  28.771  28.375  0.0880 -0.0787  0.2879
78612W        W21665  10.836   4.202   9.004 -0.1782  0.5685 -0.1831
78613W        W21666  27.165  18.849  24.716 -0.0637 -0.1177  0.1427
78614W        W21667  21.671   5.717   1.705  0.1449  0.3280 -0.1101
78615W        W21668   6.405  10.286   5.617 -0.0289 -0.0151  0.2305
78616W        W21669  33.546  27.498   9.176  0.0666 -0.0730 -0.0633
78617W        W21670   8.370  15.511  24.650 -0.1718  0.3332  0.0849
78618W        W21671   7.197  16.729  18.302  0.2666 -0.0868  0.2913
78619W        W21672  10.027   6.578   1.313 -0.0853 -0.3448  0.0815
78620W        W21673  21.100  15.252   9.416 -0.4003 -0.2214 -0.1332
78621W        W21674  12.060   2.350   5.142 -0.0383  0.0656  0.1936
78622W        W21675  15.692  30.798  20.159 -0.1444  0.2904  0.1615
78623W        W21676  15.128  28.042  27.599 -0.3811 -0.1869 -0.0679
78624W        W21677   6.929  33.771   2.649 -0.0049  0.1432  0.0211
78625W        W21678  17.888  28.134  28.221  0.0331 -0.1071 -0.0985
78626W        W21679   5.279  11.744   6.847 -0.1358  0.0927  0.2341
78627W        W21680   2.291  10.428   9.043 -0.3123 -0.1214 -0.3251
78628W        W21681  20.589   0.125   8.797 -0.0224 -0.0135  0.0111
78629W        W21682   1.391  33.425   2.684 -0.2409  0.1878 -0.0026
78630W        W21683  31.878  24.915   8.643 -0.1903  0.2823  0.2887
78631W        W21684   8.259  15.711  28.374 -0.1503 -0.1175 -0.0006
78632W        W21685  12.729  23.199   6.831 -0.2823  0.0697  0.1927
78633W        W21686  11.103   0.699  23.455  0.0731  0.0573 -0.1343
78634W        W21687   5.430  15.306   9.137  0.4204  0.0191  0.0415
78635W        W21688   4.752  30.727   9.513  0.2982  0.1672 -0.2144
78636W        W21689  28.934  25.600  27.923  0.0012 -0.4910  0.0152
78637W        W21690  28.391  31.340   8.795 -0.0390 -0.2122  0.0147
78638W        W21691  12.352  31.894   9.862 -0.1667  0.1248  0.0707
78639W        W21692  17.424   4.702   8.681 -0.1201 -0.1222 -0.0203
78640W        W21693  22.410   0.456   7.676  0.0899  0.0429 -0.0246
78641W        W21694   9.339   2.993   8.924 -0.0402 -0.1297  0.1384
78642W        W21695  20.029  19.663  29.079  0.1582 -0.0853  0.2721
78643W        W21696   9.507   5.653   8.554 -0.3392  0.0947 -0.1227
78644W        W21697   3.808   4.761  10.098 -0.0454  0.1918  0.0529
78645W        W21698   3.320  11.926   9.616 -0.0648  0.2401 -0.0254
78646W        W21699  16.389  33.624   8.162  0.0514  0.3069 -0.3098
78647W        W21700  30.523  18.878   8.188 -0.0983 -0.0371 -0.3747
78648W        W21701   7.009  12.219  27.004  0.2016 -0.2195 -0.0851
78649W        W21702  31.926  33.151   9.035 -0.0027  0.3560  0.1465
78650W        W21703   8.883  22.147   7.447 -0.1430  0.0112  0.1305
78651W        W21704  10.250  26.157   4.678  0.0017  0.0473  0.2769
78652W        W21705  14.108   8.115  24.201 -0.0390  0.2127  0.0712
78653W        W21706  17.630   4.009   5.457 -0.0516 -0.1660  0.2307
78654W        W21707   7.333  34.644   0.436 -0.1205  0.0800  0.2148
78655W        W21708  31.759   4.297  24.686 -0.2251 -0.0114  0.0373
78656W        W21709  12.430  33.259   3.040 -0.0355  0.1358 -0.1602
78657W        W21710  19.315  10.145   8.389 -0.0619 -0.2918  0.1461
78658W        W21711  23.506  12.725  23.977  0.0508 -0.1006  0.3089
78659W        W21712  11.099  33.915  28.605  0.0585  0.0178 -0.4567
78660W        W21713   9.180   4.558   9.559 -0.0248 -0.2091  0.1091
78661W        W21714   6.992  31.783   7.563  0.1279  0.0262 -0.1335
78662W        W21715   2.619   0.266  24.455 -0.0681 -0.3847 -0.3156
78663W        W21716  34.002  21.665  29.190  0.0711 -0.0015 -0.2956
78664W        W21717  33.779  22.906   6.634  0.1685 -0.0875  0.0838
78665W        W21718  29.954  12.860  24.811  0.0486  0.1490  0.1322
78666W        W21719  14.805  16.297   2.909 -0.0671 -0.3512  0.1347
78667W        W21720  11.830   3.289  20.258  0.0200  0.0600  0.2249
78668W        W21721   6.964  11.746   9.876  0.3590 -0.2162 -0.4682
78669W        W21722   3.641   4.260  16.930 -0.1618  0.2778 -0.2352
78670W        W21723   8.417   5.253   6.354 -0.2263  0.1719 -0.0086
78671W        W21724  13.885   1.329  26.300 -0.1270 -0.0086 -0.2121
78672W        W21725  12.787  31.931   8.067 -0.0604 -0.0947 -0.2880
78673W        W21726  22.693  25.156   4.523  0.2103  0.1851  0.2283
78674W        W21727   0.860   5.058   3.916 -0.0487 -0.2552 -0.0989
78675W        W21728  32.702   0.102   2.768  0.2258 -0.0565  0.0162
78676W        W21729  22.205   2.575  15.241  0.1407  0.1532 -0.4247
78677W        W21730   9.844   3.120   6.694  0.4015  0.0073  0.0558
78678W        W21731  15.564   1.229  16.063  0.0676  0.2384 -0.3252
78679W        W21732  24.724  34.373   8.106  0.0965 -0.0702  0.4807
78680W        W21733   5.798  12.781   4.654 -0.4203 -0.0222  0.0452
78681W        W21734  12.388  21.381   4.343 -0.1465  0.1815  0.1687
78682W        W21735   3.441  14.814   7.290 -0.1034 -0.0118 -0.0640
78683W        W21736   0.900  10.051   2.576 -0.1324  0.0173 -0.3327
78684W        W21737   3.951  26.649   8.308  0.1244  0.0068  0.2045
78685W        W21738  29.362  11.890   8.633  0.0839 -0.2740 -0.0263
78686W        W21739   0.354  16.178  14.951  0.2040  0.2471 -0.1373
78687W        W21740   9.388   8.424   2.054 -0.1972  0.1713 -0.1623
78688W        W21741  21.459  29.464  25.150 -0.0080 -0.0505 -0.0302
78689W        W21742   2.543   0.677  28.602  0.0720 -0.1428 -0.1862
78690W        W21743  22.292  15.299   5.674  0.0977 -0.1225  0.1157
78691W        W21744  21.620  32.431  27.634 -0.0979  0.3175  0.0506
78692W        W21745   0.037   4.939  20.619  0.1130  0.1324 -0.1875
78693W        W21746  15.505   3.086  28.749 -0.1010  0.0395  0.0548
78694W        W21747  31.053   5.232   4.648 -0.0922 -0.0162 -0.1297
78695W        W21748  18.395   8.135   6.384 -0.0740 -0.0346 -0.2155
78696W        W21749   0.014  33.307  23.224  0.0216  0.0568  0.2078
78697W        W21750  14.493  17.599  22.918  0.1992  0.1349  0.0575
78698W        W21751   0.243   9.773   5.382 -0.2357 -0.2686  0.0023
78699W        W21752  14.013   0.990   9.614  0.0202 -0.1410 -0.0419
78700W        W21753   2.089  22.301   7.836 -0.3531  0.0841 -0.4768
78701W        W21754   5.429  28.576   7.377  0.1038  0.0200  0.0351
78702W        W21755  20.423  25.065   5.407  0.0868  0.1178  0.1943
78703W        W21756   1.702   6.215   3.646 -0.0177  0.3913 -0.0891
78704W        W21757  11.774   7.195   9.545  0.0991  0.3194  0.2544
78705W        W21758  10.295  33.210  24.591  0.3430 -0.1593  0.0783
78706W        W21759  14.383  11.831  28.083  0.3345  0.0567 -0.2090
78707W        W21760  25.883  13.392   7.520 -0.0676  0.1923 -0.2104
78708W        W21761  10.061  32.272   3.347  0.2550  0.1913 -0.1055
78709W        W21762  24.991  20.539  14.080 -0.1662  0.1811 -0.1971
78710W        W21763   3.582   2.960   3.688  0.0972 -0.1754  0.0556
78711W        W21764   0.358  30.500   8.385 -0.1711  0.3255  0.3121
78712W        W21765  15.252  14.795   8.786 -0.1970 -0.3622  0.1478
78713W        W21766  16.964  27.883   8.827  0.1347  0.1540  0.0088
78714W        W21767   8.962  13.191   6.736 -0.0092  0.1319 -0.1659
78715W        W21768  14.882   0.417   4.764 -0.0357 -0.0293 -0.0336
78716W        W21769  18.201   7.101   5.062 -0.0970 -0.0301 -0.2508
78717W        W21770   4.524  26.011   2.081 -0.0096 -0.3639  0.2332
78718W        W21771  32.294   6.411   4.311 -0.1657 -0.0435  0.3381
78719W        W21772  12.288   2.814  17.959 -0.0835  0.0533 -0.3180
78720W        W21773  34.153   4.109   0.902 -0.1389  0.1968 -0.3572
78721W        W21774   9.161  33.861   2.384 -0.5041  0.1585 -0.0048
78722W        W21775   3.107  33.045   2.695 -0.1900 -0.0086 -0.0733
78723W        W21776  28.022  30.240   6.796 -0.0691  0.2037 -0.1751
78724W        W21777   3.687  14.662   2.962  0.3330 -0.0077  0.0757
78725W        W21778  13.384  16.917  18.920 -0.0576 -0.1782  0.1392
78726W        W21779   7.483  29.012  23.178  0.2490 -0.1318 -0.2483
78727W        W21780  27.551  30.810  29.169 -0.0564  0.0086  0.3211
78728W        W21781   6.791  12.380   7.039  0.1726  0.1510 -0.1167
78729W        W21782  16.861  28.358   9.010  0.3581 -0.0574  0.3545
78730W        W21783  23.344  13.547   4.556  0.0630 -0.0006 -0.0843
78731W        W21784  11.487   7.013  10.526 -0.1558  0.0272 -0.0586
78732W        W21785   2.437   0.318  25.821  0.0702 -0.0196 -0.3051
78733W        W21786   2.911   0.472   7.490  0.1520  0.1449 -0.0238
78734W        W21787   2.096  14.181   2.988  0.1058  0.1706 -0.0753
78735W        W21788   6.919  11.310  25.372  0.0798  0.1520 -0.0376
78736W        W21789  17.718  30.619  18.969 -0.2568 -0.2234 -0.1504
78737W        W21790  12.683  32.568   1.420  0.0160 -0.3210  0.0483
78738W        W21791   6.675  15.083   5.450  0.2014 -0.0064 -0.3686
78739W        W21792  34.566   1.045   0.907  0.0705  0.0592  0.1266
78740W        W21793  15.740  34.616   6.771  0.1661 -0.0499  0.1112
78741W        W21794  22.568  16.405   3.037  0.2435  0.2460 -0.3232
78742W        W21795   4.280  23.322   7.263 -0.2361 -0.2172  0.0651
78743W        W21796  10.535  12.125   8.416  0.1535 -0.1552  0.0794
78744W        W21797   0.677   1.416   8.481 -0.2662 -0.0295  0.1027
78745W        W21798  30.552  27.838  25.230 -0.0419 -0.0548  0.0520
78746W        W21799  10.905   7.418   6.740  0.1683  0.3343  0.2624
78747W        W21800  25.860   0.778   7.763  0.5199  0.0528  0.0801
78748W        W21801   5.311  11.281   7.784  0.3823 -0.2158  0.1159
78749W        W21802  12.008  30.327   4.242 -0.0785  0.0359 -0.0508
78750W        W21803   8.168  10.780   4.645 -0.2247 -0.0254  0.1333
78751W        W21804  13.544   0.622  19.089 -0.3380  0.0434  0.0173
78752W        W21805   7.134  18.981   9.792 -0.0084 -0.0828 -0.0964
78753W        W21806  17.637   2.364   6.446  0.3392 -0.2310 -0.2269
78754W        W21807   2.275   5.214   6.744  0.1736  0.3024 -0.0111
78755W        W21808  18.318  11.841   7.046 -0.0444  0.3466 -0.4057
78756W        W21809  11.778   8.702   2.844  0.0914 -0.0443  0.0708
78757W        W21810   9.557   2.001   7.292  0.0818 -0.2025  0.0153
78758W        W21811  17.634   3.960  24.295 -0.0547  0.3081 -0.2524
78759W        W21812  15.028  31.038  17.790  0.2781  0.1314  0.1591
78760W        W21813  18.603   0.781   6.341  0.1079 -0.0441 -0.0406
78761W        W21814   6.991  11.673  28.863  0.1454  0.0798 -0.1923
78762W        W21815  32.707   8.087  28.709  0.1725  0.1247 -0.1403
78763W        W21816  31.683  16.964   1.489 -0.2679  0.1108 -0.0950
78764W        W21817  14.678  16.023   8.445 -0.0989 -0.1391  0.2531
78765W        W21818  17.963  11.104  27.799  0.0327  0.0347  0.0905
78766W        W21819  34.463  11.995  10.203 -0.0648 -0.0479  0.0945
78767W        W21820  17.365  29.346   2.144  0.0030  0.1530  0.3421
78768W        W21821  12.019   5.273   9.619  0.4491  0.1542 -0.0602
78769W        W21822  22.606  30.258   9.127 -0.0847  0.1713 -0.2137
78770W        W21823   5.102   2.008   1.798  0.0894  0.1337 -0.0908
78771W        W21824  19.940  32.873  27.161  0.1151 -0.1912 -0.0863
78772W        W21825   7.720  13.393  28.659  0.2978 -0.2458  0.1602
78773W        W21826  11.219  13.990  24.631  0.1307  0.0057 -0.0510
78774W        W21827  21.224  12.544   6.112  0.1215  0.0971  0.2783
78775W        W21828  29.829  27.263   7.946 -0.1957 -0.2311 -0.0944
78776W        W21829  26.314  14.544   3.067 -0.2459  0.0432  0.0772
78777W        W21830   9.359   9.028   8.370 -0.1663  0.1717  0.0198
78778W        W21831  12.149   5.092   8.429 -0.1549  0.3042  0.0637
78779W        W21832  11.094   0.327   0.228 -0.3112 -0.1235 -0.0417
78780W        W21833  18.024  19.723  29.014 -0.1986 -0.1527 -0.3389
78781W        W21834   3.577  27.348   2.843  0.1102  0.1945 -0.0950
78782W        W21835   6.934  31.569   2.952 -0.2122  0.0268  0.1674
78783W        W21836   9.201   8.871   2.959 -0.4712 -0.1233 -0.0606
78784W        W21837   2.142  10.199   7.726 -0.0760  0.1178 -0.3212
78785W        W21838   2.620   4.243   6.196 -0.1771  0.3675  0.1308
78786W        W21839   2.957  14.849  20.979  0.0268  0.0556 -0.2236
78787W        W21840  27.029  25.372  17.910  0.0482  0.1789 -0.1118
78788W        W21841   9.161  19.457   4.409 -0.1346 -0.0301  0.3266
78789W        W21842   1.652   5.993   4.118 -0.0417 -0.0682 -0.1270
78790W        W21843   2.113  18.929   8.468  0.0036  0.1179  0.0791
78791W        W21844  33.799  28.847  23.274  0.2481  0.0828 -0.3970
78792W        W21845   6.912  30.880  26.322  0.1644 -0.1629  0.2823
78793W        W21846  29.321   2.786  26.794  0.4255 -0.2983 -0.1871
78794W        W21847  21.110   8.517   1.777  0.0214 -0.1541 -0.0367
78795W        W21848   9.104  33.655   3.397  0.0937 -0.1092 -0.0603
78796W        W21849   4.517  30.293   2.965  0.2546  0.3506  0.0307
78797W        W21850  34.306   4.986   2.042  0.3566 -0.1557 -0.1502
78798W        W21851   4.800  10.416   3.732  0.1258 -0.1057 -0.2046
78799W        W21852  20.100   2.083  27.753  0.2542 -0.0992  0.2412
78800W        W21853  23.995  19.024   4.451  0.0211 -0.0468 -0.3799
78801W        W21854   5.382  14.605   9.411  0.0133 -0.1784  0.1085
78802W        W21855   6.967   0.445  27.694  0.0365  0.3054  0.1424
78803W        W21856  32.963  20.449  19.013 -0.1324 -0.1750 -0.0951
78804W        W21857   9.605   2.109   2.939 -0.1519  0.3061 -0.3270
78805W        W21858   4.622  16.638  24.080  0.0921  0.3024 -0.2132
78806W        W21859  21.298  15.112   5.044  0.1574  0.1925 -0.1490
78807W        W21860   2.666   5.300  25.390 -0.0182  0.0691 -0.2458
78808W        W21861  12.323  34.622   5.573 -0.1032  0.1730 -0.1513
78809W        W21862   5.620  21.443   9.346 -0.0218 -0.3367  0.1102
78810W        W21863   1.891  34.321   3.713  0.1204 -0.1265 -0.1539
78811W        W21864  26.317  12.412  24.921  0.2827 -0.1315  0.0602
78812W        W21865   2.219  33.486   8.090 -0.0179 -0.0521  0.1401
78813W        W21866   9.581  19.342   0.519  0.2238  0.0175  0.0696
78814W        W21867  29.959   9.895   6.637 -0.0393  0.0600 -0.0763
78815W        W21868  23.010   4.212   0.839  0.0653  0.1122  0.2071
78816W        W21869   9.759  33.147   4.480 -0.2076  0.1382  0.1317
78817W        W21870   6.358  31.740  28.131  0.1775  0.0053 -0.0795
78818W        W21871  27.886  13.922   9.011 -0.0564  0.0108  0.0365
78819W        W21872   3.612  25.194   2.066  0.3423  0.1648 -0.1463
78820W        W21873   6.404   7.356   1.275 -0.1450  0.0826  0.0637
78821W        W21874   2.620  17.911   7.799 -0.2196 -0.0172  0.0312
78822W        W21875   8.520  17.225   6.158 -0.0543 -0.0537 -0.1600
78823W        W21876  10.053   5.644  26.322 -0.0148 -0.0776 -0.1768
78824W        W21877   6.627  27.864  28.417 -0.0605  0.1931 -0.1090
78825W        W21878   7.385   8.364   1.587 -0.0339  0.2614 -0.2179
78826W        W21879  19.401   7.262   3.807 -0.2815 -0.2460 -0.2467
78827W        W21880  12.689  13.609   4.846 -0.2525 -0.2686  0.3044
78828W        W21881   8.247  17.453   5.260 -0.3152  0.1565  0.1610
78829W        W21882  17.933  17.074   1.867 -0.0153  0.4337 -0.1767
78830W        W21883  29.346   4.229  25.141 -0.1307 -0.1262  0.1773
78831W        W21884  32.725   1.357  23.095  0.3212 -0.1900 -0.2518
78832W        W21885  18.283   9.672   7.828 -0.2133 -0.1680  0.0375
78833W        W21886  18.739   6.091   2.742 -0.2120  0.1274  0.1120
78834W        W21887  30.856   3.295  24.396  0.1090 -0.1025 -0.0021
78835W        W21888  14.274   9.322  28.081  0.0317  0.2500 -0.2367
78836W        W21889   7.496  14.117   2.725 -0.0841  0.4457  0.0675
78837W        W21890  16.835  10.254   6.627  0.0973  0.1027 -0.0972
78838W        W21891  15.092   8.177  20.119 -0.0439 -0.0417  0.0734
78839W        W21892   6.732   2.217  26.500  0.1173 -0.1060 -0.1042
78840W        W21893  27.029  13.031   6.198  0.1659 -0.1351 -0.2491
78841W        W21894  21.726  12.412  22.249 -0.2232 -0.0930  0.0087
78842W        W21895  11.098   4.725   1.532 -0.0275  0.3656 -0.2654
78843W        W21896  27.006  14.999   8.236  0.1016 -0.0723 -0.3817
78844W        W21897  12.236  28.909   1.210 -0.0230 -0.0351 -0.0745
78845W        W21898  11.097   9.282   8.597 -0.1974 -0.2999  0.0754
78846W        W21899   8.636  11.607  10.658 -0.3635  0.0466  0.0883
78847W        W21900  14.653  21.660   8.287  0.1902 -0.2948 -0.1887
78848W        W21901  27.396  34.283   7.539  0.0401  0.1354  0.1738
78849W        W21902  13.626  10.544   8.184  0.1865 -0.2382 -0.1130
78850W        W21903  10.095  12.841  27.808 -0.1479  0.0055 -0.2688
78851W        W21904   6.592  27.847  27.103  0.1511 -0.0081  0.1834
78852W        W21905  29.231  32.930  25.815 -0.1661 -0.0289 -0.0149
78853W        W21906  20.988   0.850  25.073  0.0134  0.0472 -0.0442
78854W        W21907  10.914   1.531   3.948  0.3822 -0.1849 -0.0231
78855W        W21908  10.136  32.996   3.929  0.0296  0.0442  0.0035
78856W        W21909   0.882  27.485   0.252  0.3263 -0.1846 -0.1324
78857W        W21910   0.967   5.370   5.717 -0.1340 -0.0995  0.1931
78858W        W21911   6.656   2.483   8.849 -0.1918  0.5062 -0.0013
78859W        W21912   8.702   0.441   7.773 -0.0465 -0.0246 -0.1915
78860W        W21913  33.917  10.526   6.553 -0.0895 -0.0069 -0.1542
78861W        W21914   4.634   9.023   4.815 -0.1342 -0.1079  0.0156
78862W        W21915  10.369  29.431  24.920  0.0005  0.3585  0.2103
78863W        W21916  26.111   8.561  22.508  0.1887 -0.1419  0.0202
78864W        W21917  26.573   5.003   0.384 -0.1314  0.2313  0.2851
78865W        W21918  27.587   5.414  20.654  0.1988 -0.0660  0.1005
78866W        W21919   7.008  33.226   7.489  0.0560  0.0195 -0.0457
78867W        W21920   0.731  15.664   7.162  0.2227  0.0281  0.2688
78868W        W21921  12.031  28.815   3.405 -0.0691 -0.0023  0.4860
78869W        W21922   1.310  11.716  24.560  0.3693  0.2693  0.0384
78870W        W21923   0.814  23.121   3.542 -0.0168  0.1255 -0.0733
78871W        W21924   3.916  33.093   4.720 -0.2421  0.0627  0.1712
78872W        W21925  15.024   7.993   9.816  0.1152  0.0677  0.0255
78873W        W21926   8.544  30.143   5.352  0.1644  0.0752  0.2038
78874W        W21927   1.569   7.273   9.879 -0.3661 -0.3240  0.0831
78875W        W21928  22.135   1.884  19.770  0.2756  0.0395  0.3258
78876W        W21929  17.880  10.345   4.683 -0.0684  0.1327 -0.0916
78877W        W21930  17.717   9.143   2.659  0.1321 -0.0058  0.1559
78878W        W21931   6.506  24.504   3.540  0.1543  0.1178  0.1236
78879W        W21932   8.916  32.713  20.422 -0.1749  0.1221 -0.1367
78880W        W21933   6.489   8.192   4.293 -0.3302 -0.2466  0.0523
78881W        W21934  18.768  18.246   0.794 -0.2111 -0.2743 -0.3018
78882W        W21935  20.864   4.752  24.825 -0.0188 -0.0029 -0.4077
78883W        W21936   0.101  12.604   7.882 -0.3001 -0.1208  0.1225
78884W        W21937  11.087  10.806   9.544  0.2092 -0.2314  0.1519
78885W        W21938  32.212  11.677   8.148  0.3543  0.0256 -0.0837
78886W        W21939  26.816   4.762   5.058 -0.0549 -0.3195 -0.0071
78887W        W21940  13.484  34.084  28.943 -0.0017  0.0441 -0.0275
78888W        W21941  10.338   5.746   8.238  0.1653 -0.0751  0.1169
78889W        W21942   0.683   0.347   7.568  0.3579 -0.0476 -0.0978
78890W        W21943   3.614   9.958   8.090 -0.1261  0.1344 -0.1254
78891W        W21944  11.027  17.556   8.562 -0.0888  0.0670 -0.0606
78892W        W21945  12.176  13.577  27.442  0.1382 -0.2571  0.0278
78893W        W21946  11.232   4.289   6.624 -0.3367 -0.2340 -0.1020
78894W        W21947   0.493   9.162  23.423  0.0537  0.0337  0.1344
78895W        W21948  10.631   1.556  21.679  0.4293  0.4786  0.0683
78896W        W21949  17.000  33.351   6.828  0.2274  0.4282 -0.4519
78897W        W21950  14.732  16.077   2.308 -0.3399 -0.2683  0.1389
78898W        W21951   5.440   3.907  26.645  0.1243 -0.0770  0.0040
78899W        W21952  16.369  15.689  27.935  0.0487  0.1829 -0.2269
78900W        W21953   0.124  10.981   7.410  0.1410 -0.2034 -0.1344
78901W        W21954  28.162   0.813  18.768 -0.0424 -0.0592  0.2035
78902W        W21955  18.122  15.315  27.229 -0.0881  0.1901 -0.1015
78903W        W21956  29.623   7.957   4.349  0.0879 -0.3118  0.0567
78904W        W21957  31.363   6.194  25.761  0.0801  0.0394  0.0369
78905W        W21958  26.637  13.689   3.224  0.1759  0.0720  0.1947
78906W        W21959  29.008   3.733   5.073  0.2546  0.0518 -0.1655
78907W        W21960  13.500  31.534  27.775 -0.2615 -0.0648  0.0294
78908W        W21961  22.282   7.597  27.185  0.1934  0.0894 -0.1130
78909W        W21962   6.300  34.316   4.224 -0.1555  0.2748  0.0339
78910W        W21963  34.652  11.511  26.155 -0.2891 -0.1716  0.1596
78911W        W21964  19.525  29.156   3.630  0.0607  0.0916 -0.0731
78912W        W21965  22.370  10.442  25.484  0.0685  0.0240 -0.0075
78913W        W21966  17.719   7.843  24.068 -0.0717  0.3431  0.0287
78914W        W21967  12.816   8.191   1.449 -0.1334  0.1600  0.2252
78915W        W21968   1.403  12.975   7.776 -0.3203 -0.1794 -0.1395
78916W        W21969  15.506   8.768   0.255  0.3028 -0.0040  0.1156
78917W        W21970  30.032   6.130   1.321 -0.1163  0.0367 -0.0625
78918W        W21971   8.285  21.774  17.839  0.0863 -0.0243  0.0318
78919W        W21972  16.967   6.127   3.844  0.0466  0.1860 -0.2064
78920W        W21973   6.541  10.138   2.990 -0.0724 -0.1257  0.1382
78921W        W21974   4.909  10.619   8.505  0.1595  0.0235 -0.1070
78922W        W21975  13.370  10.389   3.473  0.1984  0.0175  0.1786
78923W        W21976   8.008   6.325   4.609 -0.1594  0.0279 -0.2515
78924W        W21977  21.792  25.623  19.631  0.1337 -0.1665  0.0717
78925W        W21978  11.401  24.727  26.407 -0.0094  0.2692  0.3512
78926W        W21979  32.571   5.632   5.741 -0.0214 -0.2366  0.0992
78927W        W21980  28.872  31.086   9.526  0.1367  0.2084  0.0962
78928W        W21981   8.803  27.647  16.627 -0.1069  0.0221  0.1676
78929W        W21982  25.083  10.687  21.870 -0.2349 -0.2980  0.3023
78930W        W21983   9.727   3.096  27.565 -0.4428  0.2626  0.1465
78931W        W21984  29.299   9.126   4.938 -0.1281 -0.0502 -0.0072
78932W        W21985  33.405  25.557  24.168 -0.3114  0.0930  0.0591
78933W        W21986  21.268  34.079   3.196 -0.0707  0.4700  0.0191
78934W        W21987  15.826  20.788  27.507  0.1430 -0.2897 -0.0653
78935W        W21988  18.952   5.631   8.221  0.0506  0.1052  0.0893
78936W        W21989   8.276   4.445   7.600 -0.1475 -0.1476 -0.2426
78937W        W21990  24.143  12.560   6.720  0.0962 -0.3286 -0.0250
78938W        W21991  10.966  14.050   0.698 -0.0268  0.2379 -0.1779
78939W        W21992  16.611   9.891  21.160 -0.1537  0.1101  0.1636
78940W        W21993  15.573  27.249  28.318 -0.2788  0.0746 -0.1155
78941W        W21994   4.966  31.702   2.094  0.1286  0.3206  0.1555
78942W        W21995  11.051  17.667   4.993  0.0491 -0.5001 -0.3367
78943W        W21996   5.346  33.698  26.984  0.1012  0.4350 -0.1383
78944W        W21997  32.607   5.600  27.204  0.2433  0.0985 -0.1069
78945W        W21998  11.752  32.831  28.952  0.5408  0.2946 -0.1786
78946W        W21999   3.456   9.390   3.742 -0.1183 -0.1658  0.1145
78947W        W22000   9.011  32.502   5.403  0.2466 -0.3004  0.0054
78948W        W22001  16.761   4.335  29.147 -0.2364  0.2137 -0.1270
78949W        W22002   6.227   9.710  27.678  0.4715 -0.1388 -0.4213
78950W        W22003   6.927   7.014   4.911  0.0102 -0.0338 -0.0684
78951W        W22004   9.872  21.482   2.372 -0.0946 -0.0517  0.1240
78952W        W22005   9.959   9.675   0.598  0.1670  0.2003  0.0822
78953W        W22006  18.888   7.278   1.866  0.2006  0.0411  0.1278
78954W        W22007   8.109  18.538   5.157 -0.0353  0.4786  0.0805
78955W        W22008  12.392  10.340   6.044 -0.3986 -0.1978 -0.1480
78956W        W22009  12.864   2.145   4.713  0.0783  0.2976 -0.2722
78957W        W22010   4.944   1.653  23.552 -0.0556  0.1757  0.0754
78958W        W22011  15.815   6.476   9.496  0.1803 -0.1526  0.0781
78959W        W22012  18.052  27.708   7.418  0.1158  0.1491 -0.2306
78960W        W22013   2.328  29.123  27.971  0.3148  0.1056 -0.0923
78961W        W22014  24.627   7.183   8.269  0.1650 -0.2551 -0.0363
78962W        W22015  26.524   6.405  26.407 -0.3749  0.1756  0.5016
78963W        W22016  12.971  31.692  19.041 -0.1197  0.2866  0.0841
78964W        W22017  20.177  26.352   0.259 -0.1385  0.3237  0.3826
78965W        W22018  21.711  15.680   3.643 -0.1714  0.1603  0.0662
78966W        W22019  13.585   3.157  22.897 -0.0035 -0.3519 -0.3614
78967W        W22020  15.817  14.374  23.426  0.2776 -0.6812 -0.0415
78968W        W22021   5.103  30.422  13.937  0.0987 -0.2017 -0.0277
78969W        W22022  10.299  32.841  27.918  0.0290  0.1024 -0.0483
78970W        W22023   4.266   9.161  15.272  0.0075  0.1924  0.1129
78971W        W22024  24.732   2.115   2.297 -0.0534  0.2330 -0.1967
78972W        W22025  17.086   6.531  18.140  0.2701 -0.0162  0.1212
78973W        W22026   6.603  11.327  19.214 -0.0060  0.1951  0.1094
78974W        W22027  13.853   0.659   7.944  0.0074 -0.0939  0.1641
78975W        W22028  13.392   4.309   2.793  0.2702 -0.2861 -0.0423
78976W        W22029  11.998   1.561  25.816  0.1493 -0.0125 -0.0143
78977W        W22030   2.705  17.639   6.184  0.1119 -0.0330  0.0471
78978W        W22031   7.651   5.291   8.150  0.4152  0.0453 -0.0156
78979W        W22032  23.244  26.467  28.981 -0.0652 -0.0002 -0.1495
78980W        W22033  15.355   7.423   2.011  0.1447 -0.0053  0.0990
78981W        W22034  26.986  26.969   5.661  0.0628 -0.3434 -0.1969
78982W        W22035  27.029  32.923  10.217 -0.0733  0.0150 -0.0021
78983W        W22036   3.664  21.632   5.881 -0.1969 -0.0010 -0.1303
78984W        W22037  16.713   0.308   0.809  0.3073  0.1778  0.5982
78985W        W22038   8.085   5.867   7.126  0.1358 -0.2370 -0.0513
78986W        W22039   5.404  12.020   9.685 -0.0103  0.0213  0.1493
78987W        W22040  10.024   1.719  18.232  0.0707 -0.0417 -0.0409
78988W        W22041  15.725   2.519  15.450  0.0526  0.0632 -0.0504
78989W        W22042  23.330  32.490  24.443 -0.0522  0.3036  0.2147
78990W        W22043  18.247  12.586   0.595  0.3245 -0.0971  0.2945
78991W        W22044   6.116  24.347   3.033 -0.1638 -0.0959 -0.0697
78992W        W22045  11.010  10.486   1.025  0.1391  0.1695  0.2446
78993W        W22046  26.008  22.476   5.479  0.2737 -0.0986  0.1007
78994W        W22047  10.420  10.963   2.155  0.2569  0.1533 -0.4130
78995W        W22048  14.849  23.724  22.454  0.1649 -0.2040  0.1183
78996W        W22049   8.655   7.539   0.820 -0.0055 -0.0819 -0.2398
78997W        W22050  10.992  28.122  22.552  0.0256  0.2752 -0.1035
78998W        W22051   8.471   0.925  28.572  0.1495 -0.2258  0.2472
78999W        W22052   5.340   4.775  26.373 -0.1312 -0.1359 -0.0276
79000W        W22053   7.540   0.663   2.202  0.0215  0.1905 -0.0841
79001W        W22054  31.355  26.924   5.438  0.0107  0.0792 -0.0254
79002W        W22055   5.344   8.723   6.875 -0.0002  0.2112 -0.0180
79003W        W22056   7.825  14.504   3.538  0.0580  0.2152  0.0620
79004W        W22057   0.715   8.572   8.458 -0.2032 -0.3001 -0.1482
79005W        W22058  11.897  21.307  22.016  0.2134 -0.1323 -0.0643
79006W        W22059  14.147  12.646  22.458 -0.0215 -0.5185 -0.1819
79007W        W22060   7.760   5.682  24.652  0.0375  0.0967  0.1669
79008W        W22061   0.007  25.155   8.291  0.1556  0.0722 -0.2099
79009W        W22062  33.093   2.314  28.755  0.2339  0.0694 -0.0843
79010W        W22063   9.237  22.304  24.499  0.1752 -0.1349  0.1033
79011W        W22064   0.246   0.677  28.166 -0.0502  0.3245 -0.3130
79012W        W22065  11.969  19.729  16.470 -0.1137 -0.0379 -0.1750
79013W        W22066  22.025   5.581   5.710 -0.2649 -0.1426  0.2546
79014W        W22067   5.862  18.731  28.213 -0.2517  0.1149  0.1085
79015W        W22068   5.383  26.073   2.353 -0.1151 -0.1435  0.3431
79016W        W22069  14.289   7.046  27.282 -0.4647 -0.0884  0.1904
79017W        W22070  33.148   6.888  17.565 -0.2534  0.0467 -0.0518
79018W        W22071   9.835  11.617   5.090  0.3276 -0.0047 -0.0612
79019W        W22072  17.836   4.512  21.425  0.1383  0.1576 -0.1544
79020W        W22073  11.614  27.250  22.690  0.3544  0.0261  0.1587
79021W        W22074  29.578  31.340   8.179  0.3611 -0.0796 -0.1171
79022W        W22075  17.575  12.470  23.694 -0.1345  0.4309  0.3628
79023W        W22076  18.067   6.334   5.213  0.1655  0.0683 -0.0164
79024W        W22077   5.151  30.875   1.753 -0.1417  0.1724  0.3302
79025W        W22078  21.191   3.995   7.660  0.2773  0.3541 -0.0123
79026W        W22079  34.645  19.313   3.578 -0.0676 -0.4729  0.2364
79027W        W22080   8.333  31.367  23.064 -0.0093 -0.1695  0.4707
79028W        W22081   3.880  17.021   3.497  0.0628 -0.1360  0.1081
79029W        W22082   1.384  10.539   6.660  0.1271 -0.0904 -0.1336
79030W        W22083  20.318   8.207   6.924  0.0734 -0.3929  0.1781
79031W        W22084   5.622   9.174  24.665 -0.2435 -0.1487 -0.2569
79032W        W22085   4.479  23.980  25.126 -0.2275  0.0071  0.0436
79033W        W22086  10.603  11.955  28.566  0.3965 -0.0468 -0.1427
79034W        W22087  19.239  18.256  25.577  0.0058  0.2098  0.0227
79035W        W22088   9.082  22.586   4.741 -0.0108 -0.0744  0.0104
79036W        W22089  24.417  13.142   3.445 -0.1747 -0.0097  0.1431
79037W        W22090   7.861  18.011  25.177 -0.1309  0.1488  0.2108
79038W        W22091   8.057  18.268  17.800  0.0967 -0.1889  0.0303
79039W        W22092  29.794  15.409   2.027  0.2578  0.0051  0.0749
79040W        W22093  11.248   9.660  10.894 -0.2564 -0.4247 -0.0686
79041W        W22094   5.539   8.394   8.066  0.0884  0.1769 -0.0879
79042W        W22095  27.793  19.295  24.909  0.0622  0.1566  0.1021
79043W        W22096   0.134   5.360  24.404 -0.0137 -0.1919  0.0800
79044W        W22097  11.653  12.950   7.081  0.2182  0.1050  0.1008
79045W        W22098  19.223   6.438   3.172 -0.1049  0.0064  0.2146
79046W        W22099  30.941   0.674  10.165 -0.1895 -0.0987  0.5295
79047W        W22100   3.599   2.574  21.434  0.2073  0.4215  0.1611
79048W        W22101  11.466  12.024   4.019  0.0394 -0.1266 -0.0580
79049W        W22102   3.868   4.551   7.332 -0.4170  0.0413 -0.2229
79050W        W22103  20.736  29.901  25.172 -0.0044 -0.4628 -0.1054
79051W        W22104   9.994   4.332   8.908 -0.0400  0.1182  0.0100
79052W        W22105  15.070  19.367   8.773 -0.0446 -0.2557 -0.0948
79053W        W22106  21.281  11.613  17.581 -0.2032 -0.0269  0.1222
79054W        W22107  24.734  22.222   6.256 -0.0388  0.1812  0.1164
79055W        W22108  25.851  10.300   6.494  0.0616 -0.1348  0.0543
79056W        W22109  14.902  16.531  24.027 -0.1584 -0.0562  0.2122
79057W        W22110  11.026   5.984   0.612 -0.0005  0.1720  0.1670
79058W        W22111   9.477   8.195   7.344 -0.2362 -0.4389 -0.0916
79059W        W22112   6.704  34.216   6.354 -0.1337  0.1672 -0.1887
79060W        W22113   3.930   6.837   3.719 -0.2896 -0.0699  0.0475
79061W        W22114   5.274   3.618  26.193  0.1235  0.1267  0.1295
79062W        W22115  21.633  28.806  24.430 -0.5170 -0.0728  0.0026
79063W        W22116   4.797  16.975  16.509  0.2752  0.0722 -0.0984
79064W        W22117   5.041   8.154   5.717 -0.3071  0.0689 -0.0473
79065W        W22118  12.750   0.571  28.489  0.1243 -0.1338  0.0246
79066W        W22119   2.981  26.898   7.309 -0.0768 -0.0101 -0.3088
79067W        W22120  26.342  22.316   6.503 -0.0333  0.0123  0.3683
79068W        W22121   5.461  11.684   0.926  0.0177  0.1454 -0.1118
79069W        W22122  34.531   7.890   4.016  0.1190 -0.1115  0.0495
79070W        W22123  25.400   7.031  10.052 -0.1076 -0.0629 -0.1951
79071W        W22124   5.382  27.688  19.716 -0.1680 -0.2430 -0.0990
79072W        W22125  29.330  29.047   0.584 -0.2593  0.1091 -0.2055
79073W        W22126  29.519  28.244  20.680  0.1454 -0.1533 -0.1768
79074W        W22127   5.538  17.942   4.873  0.1057  0.1365 -0.2057
79075W        W22128  10.808  25.523   0.397 -0.0810 -0.1581  0.0155
79076W        W22129  29.118  31.496  24.711 -0.0245  0.3286 -0.0085
79077W        W22130  21.072   8.710   3.663  0.0025  0.1648 -0.2777
79078W        W22131  13.838  20.677  25.545 -0.2284  0.0152 -0.1105
79079W        W22132   0.573  14.694   0.797 -0.1074  0.0757  0.0703
79080W        W22133   9.298   1.773  18.232  0.1420 -0.0258  0.2464
79081W        W22134  14.042  15.855  22.346 -0.2981 -0.0353 -0.3025
79082W        W22135  18.257   2.950   6.184  0.1749 -0.0441  0.1611
79083W        W22136  15.406  15.424  22.485 -0.1603  0.1520 -0.0110
79084W        W22137  19.176   5.329  28.750 -0.0321 -0.0078 -0.0081
79085W        W22138  16.777   2.769  24.811  0.1631 -0.2572  0.0994
79086W        W22139  33.395  16.792   4.159 -0.4560  0.1557 -0.2676
79087W        W22140  33.588   9.865   0.646 -0.1899  0.2534 -0.0689
79088W        W22141  17.778  33.425  28.368  0.2150 -0.3669  0.2052
79089W        W22142  25.418   9.546   8.601 -0.2061  0.1256 -0.3084
79090W        W22143  32.180  24.951  22.482  0.1576 -0.0211 -0.2101
79091W        W22144  12.612   7.460  28.989  0.1266 -0.0505 -0.1707
79092W        W22145  14.876   9.517   1.870  0.4427 -0.1319 -0.0234
79093W        W22146  11.578  15.794  10.719 -0.0623 -0.1217 -0.1305
79094W        W22147  21.632  11.407  21.467 -0.2324  0.3492  0.0648
79095W        W22148   1.266  17.052   2.172  0.0916  0.0856  0.0231
79096W        W22149   2.916  18.037  22.213  0.0329 -0.0812 -0.1045
79097W        W22150  28.581  13.075  16.419 -0.0431  0.1694  0.0356
79098W        W22151   7.252  12.477   9.588  0.1154 -0.1342 -0.0988
79099W        W22152  12.701  29.784   4.628 -0.3161 -0.1018 -0.1875
79100W        W22153  13.971   6.645  19.363 -0.0300  0.0922  0.1738
79101W        W22154  33.997   6.683   8.902 -0.1003 -0.2776 -0.0311
79102W        W22155  23.858   0.370   3.929  0.2216 -0.0103 -0.1627
79103W        W22156  32.115  19.492  24.958 -0.0350  0.1031  0.1710
79104W        W22157   7.342  29.604   6.331 -0.0796 -0.0813  0.5105
79105W        W22158   8.149  10.790  17.010  0.1615  0.2610  0.1301
79106W        W22159   2.696   6.806   8.003 -0.4208 -0.2974 -0.2356
79107W        W22160  27.034  19.549   8.271  0.1985  0.2098  0.1249
79108W        W22161  14.310   6.363   7.552  0.0341  0.2295 -0.0401
79109W        W22162   5.254  11.129   5.859  0.0782  0.2229 -0.1395
79110W        W22163  11.305  25.196   8.190 -0.0070  0.1735  0.0834
79111W        W22164  24.113   4.568  14.331  0.0396 -0.0453  0.0028
79112W        W22165  20.258  10.103   1.879 -0.3630 -0.0630 -0.3606
79113W        W22166   0.630   6.386   5.750 -0.0009 -0.0271  0.0574
79114W        W22167  23.449   4.910  23.594 -0.0079 -0.2477  0.2425
79115W        W22168   4.092   2.175   4.249 -0.2229  0.3550  0.0404
79116W        W22169  29.311  13.933   3.423  0.1035  0.0146  0.4771
79117W        W22170   3.836   9.275  24.712 -0.1181  0.0056  0.0811
79118W        W22171  28.587  28.485   3.407 -0.1456  0.0135  0.0806
79119W        W22172  14.871  25.040   5.966 -0.0698  0.0651  0.1394
79120W        W22173  28.713   8.359  17.094  0.3742  0.2419  0.1178
79121W        W22174   6.715  21.226  21.192  0.0502 -0.2454 -0.0604
79122W        W22175   7.661  33.134   5.728 -0.3539  0.2478 -0.2173
79123W        W22176  18.437  33.579   6.437 -0.4495  0.0683  0.0981
79124W        W22177   7.175  20.725  20.692 -0.3841  0.3583 -0.1636
79125W        W22178   9.361   6.263  24.114  0.0003  0.1891  0.3025
79126W        W22179  23.767  22.479   3.945 -0.0646 -0.3357 -0.2248
79127W        W22180   4.965   8.261  28.621 -0.0194 -0.0560 -0.0570
79128W        W22181  29.412   1.828   6.649  0.1101  0.2687  0.0695
79129W        W22182  27.342  10.799  23.215  0.1241 -0.0839 -0.2267
79130W        W22183   7.098  24.673   0.552  0.0391  0.0206  0.1312
79131W        W22184  12.054   4.784  16.878 -0.1817  0.0230  0.0224
79132W        W22185  16.855  11.061   9.802  0.2159 -0.1458  0.3588
79133W        W22186  11.185  13.339   5.381  0.0565 -0.1328 -0.2228
79134W        W22187  22.508  13.852   4.309  0.0248 -0.0228  0.2659
79135W        W22188   0.933  13.300   8.779  0.0447  0.0511  0.1635
79136W        W22189  17.327  21.545  15.729 -0.4991 -0.4411  0.2649
79137W        W22190   1.218   1.205   3.796  0.0672  0.1918  0.1322
79138W        W22191   8.399   1.913   4.926 -0.0500  0.1406  0.2845
79139W        W22192   9.010   1.846   3.966 -0.0057  0.0970 -0.1116
79140W        W22193  31.750  17.633   2.372 -0.3151  0.0854 -0.3197
79141W        W22194  10.464   9.531   4.961  0.0920  0.1390 -0.0878
79142W        W22195  10.057   5.711   1.782  0.1316  0.1949  0.2514
79143W        W22196  33.717   0.547  19.621 -0.0751  0.1090 -0.3649
79144W        W22197  22.545  10.887  25.817 -0.1485  0.3001  0.0800
79145W        W22198  15.303   9.894  21.865 -0.0855  0.2336  0.0011
79146W        W22199  31.039  13.506  26.659 -0.1647 -0.1161  0.2738
79147W        W22200   1.227  11.112   4.975 -0.1070 -0.0732  0.0582
79148W        W22201  13.279  28.787  24.387  0.2886  0.0935 -0.0860
79149W        W22202   9.604  17.780  14.184  0.0067 -0.0975  0.0433
79150W        W22203  13.734  14.631  22.709  0.0673 -0.0601 -0.0192
79151W        W22204   4.510  29.769   5.431 -0.1084 -0.1931  0.0272
79152W        W22205  13.127  27.412  26.074 -0.2726  0.3007 -0.0398
79153W        W22206   2.630  16.162  23.659  0.1413 -0.3784  0.1382
79154W        W22207  13.792  19.770  22.519  0.0108  0.0149  0.0366
79155W        W22208  12.539   7.478   4.236 -0.0639 -0.3099 -0.2029
79156W        W22209  10.295   9.062   8.235 -0.0107  0.0065  0.1691
79157W        W22210   2.289   4.861  26.070  0.2176 -0.1810  0.2663
79158W        W22211   6.972   4.674  27.072  0.1964  0.1948 -0.1562
79159W        W22212   5.664  11.411   0.124  0.0959  0.0375  0.0027
79160W        W22213   4.816   6.618   4.787 -0.1334 -0.0712  0.3709
79161W        W22214  34.064  17.364  13.357  0.2246 -0.0786  0.3048
79162W        W22215  31.599   8.541  24.930  0.3577  0.0379  0.0652
79163W        W22216  12.190   4.162   7.722 -0.0471  0.0027 -0.1639
79164W        W22217  26.412   0.506  27.213 -0.2144  0.5166 -0.0009
79165W        W22218  22.108   9.287   0.746  0.2363 -0.0273 -0.2520
79166W        W22219  32.835   3.315   1.211  0.0351  0.1210  0.3305
79167W        W22220  17.174  11.694   8.953  0.1538  0.1069  0.2098
79168W        W22221   9.921   0.541   9.447 -0.2207  0.1897  0.4088
79169W        W22222  10.877  13.552  10.552 -0.0560 -0.0740  0.0384
79170W        W22223  33.769  10.145  27.476 -0.4503  0.1502  0.0766
79171W        W22224  32.309   5.001   6.994  0.2051 -0.2223 -0.2699
79172W        W22225  33.623   9.319   9.016 -0.1139 -0.1505 -0.1411
79173W        W22226  17.575  22.776  13.584  0.2712 -0.1510  0.2996
79174W        W22227  21.086  30.083   6.405 -0.0905  0.2680 -0.0279
79175W        W22228   2.120  18.649   7.972 -0.3487  0.4007 -0.0144
79176W        W22229  17.038  27.713   5.450  0.1103  0.2675  0.1455
79177W        W22230  33.037  10.498   7.385 -0.2183 -0.1428  0.2342
79178W        W22231  14.039   3.826  25.179 -0.1023 -0.0490 -0.0781
79179W        W22232   1.679  31.453   8.005  0.3165 -0.1408  0.1552
79180W        W22233   9.160  26.673   4.454 -0.0118 -0.0550  0.0333
79181W        W22234  14.163  13.370   9.236  0.0977  0.0844  0.0740
79182W        W22235  14.740  18.309   9.875 -0.1510 -0.0120 -0.0196
79183W        W22236  18.692   2.154   4.382  0.0048 -0.0115 -0.1647
79184W        W22237   4.836  15.673   4.878 -0.0417 -0.1762  0.0509
79185W        W22238   8.835  24.991  15.772 -0.0702  0.0419  0.4879
79186W        W22239   0.782   9.254   8.348 -0.3961 -0.0150  0.0705
79187W        W22240  18.899   0.373   9.216 -0.3427  0.1578 -0.1710
79188W        W22241  10.420  10.947   6.299  0.1330  0.0875 -0.0119
79189W        W22242  11.151   8.692  23.411 -0.2150 -0.2720  0.2041
79190W        W22243  24.225   5.219  27.313 -0.3719 -0.1260 -0.1188
79191W        W22244  19.045   9.250   0.800 -0.0903 -0.0679 -0.1701
79192W        W22245  15.453  23.850  14.407  0.1519 -0.1489 -0.1103
79193W        W22246  20.278  32.138  24.839 -0.0436  0.0521 -0.0000
79194W        W22247  25.373  33.098   7.935 -0.4998 -0.0211  0.0454
79195W        W22248  33.869  30.922  24.991  0.2043 -0.1817 -0.0951
79196W        W22249   2.317  14.286   5.809 -0.4154 -0.1812 -0.0757
79197W        W22250  20.195   6.584  21.086 -0.1581 -0.0581  0.1008
79198W        W22251  11.970   6.494   3.892  0.2815 -0.0287 -0.0018
79199W        W22252  14.428  32.774   9.031  0.1557  0.1815  0.0923
79200W        W22253  27.791  18.166  27.468  0.4954 -0.2716 -0.1793
79201W        W22254   6.177   8.021  22.771 -0.1447 -0.0837 -0.2067
79202W        W22255  11.246  13.621   4.924  0.1398  0.1049 -0.0277
79203W        W22256  10.204   9.404   5.390 -0.1050 -0.0058  0.0974
79204W        W22257  15.187   5.492   0.037 -0.0663  0.1592 -0.0417
79205W        W22258  14.630  26.625   4.856  0.1176  0.0978 -0.0877
79206W        W22259   6.174   7.356   5.381 -0.0925 -0.2815  0.0382
79207W        W22260  25.835  14.882   1.508  0.5161  0.2102 -0.0117
79208W        W22261  18.970  29.851  25.062 -0.1248  0.1147 -0.3942
79209W        W22262  15.774  27.766  17.822 -0.0724  0.1077 -0.3325
79210W        W22263  19.200  14.557   8.772  0.1674  0.3828  0.1401
79211W        W22264   4.395   6.429   7.885 -0.0664 -0.2661 -0.2774
79212W        W22265   4.061   1.560  27.625  0.0226  0.0059 -0.1411
79213W        W22266   8.882   0.851  25.159 -0.0297  0.1754 -0.1037
79214W        W22267   7.215   3.856  21.729 -0.0233 -0.0663 -0.2834
79215W        W22268  17.670  12.142   3.229  0.1381  0.1234 -0.0697
79216W        W22269   3.125   1.078  20.590  0.2199 -0.4211 -0.0665
79217W        W22270  11.314  18.903  20.410 -0.1168  0.1108 -0.0619
79218W        W22271   5.500   7.696   5.603  0.1710  0.1248  0.1106
79219W        W22272  10.084  16.373   9.956  0.0231  0.2001  0.0528
79220W        W22273   1.161  23.453  28.492  0.2314  0.1428 -0.3661
79221W        W22274  10.367  29.414  14.002 -0.1388  0.0430  0.3369
79222W        W22275  15.341   5.358  18.586 -0.2356  0.1019  0.1876
79223W        W22276  31.139  34.451   7.443  0.0510  0.2565 -0.0231
79224W        W22277  15.725   4.550  10.208  0.0285 -0.1958  0.0891
79225W        W22278   7.993  28.193  29.066 -0.0338 -0.2119  0.3464
79226W        W22279   2.990  34.516  28.265 -0.2224 -0.0222 -0.1525
79227W        W22280  15.251  14.821  24.598 -0.1517  0.2629  0.4336
79228W        W22281  14.879  15.957   0.747  0.1653 -0.3382  0.0183
79229W        W22282  12.188   0.942   4.969  0.1324 -0.1854 -0.1538
79230W        W22283  25.857  10.527   7.394  0.1042  0.0295  0.0124
79231W        W22284  34.329   6.847   4.110 -0.2379  0.1179 -0.0269
79232W        W22285  20.032   9.190  28.568  0.1491 -0.2303  0.1219
79233W        W22286  12.647   3.579   5.246  0.2131  0.0241 -0.0431
79234W        W22287   8.447  24.050   8.256 -0.1310  0.1733 -0.2913
79235W        W22288  11.787   2.416  16.781  0.2901 -0.1780  0.0679
79236W        W22289   5.243   1.475   1.228 -0.2422  0.0536  0.2820
79237W        W22290  12.522   1.253   6.072  0.2976  0.1580  0.0474
79238W        W22291   6.880  31.530  22.277 -0.3954 -0.0017  0.1490
79239W        W22292  12.705   5.529   7.422 -0.2993  0.2474 -0.1597
79240W        W22293  13.410  16.900  28.932 -0.3318 -0.0325  0.0623
79241W        W22294  33.994  17.579  24.460  0.0365  0.1667  0.1784
79242W        W22295  23.702  31.100  27.808  0.0475  0.1287  0.1631
79243W        W22296  11.685   1.301   7.901  0.1912 -0.2222  0.0350
79244W        W22297  22.415  14.407  17.825  0.0342 -0.1153  0.1573
79245W        W22298  13.219   2.243   8.981  0.3882 -0.2257  0.2193
79246W        W22299   3.228  10.580   3.257 -0.1888 -0.0353 -0.2195
79247W        W22300  34.294  13.426  28.300  0.1809 -0.1779 -0.1040
79248W        W22301  18.849   1.848   7.901 -0.0643 -0.2943 -0.0707
79249W        W22302   6.547  23.207  22.877 -0.0545  0.3849 -0.0214
79250W        W22303   8.208  34.193   5.409 -0.2532  0.0805  0.0021
79251W        W22304   6.074  24.562   2.561 -0.0417  0.0470  0.4899
79252W        W22305  17.310  22.902   6.228 -0.0640 -0.0112  0.1192
79253W        W22306   5.530  32.449   2.029 -0.0581  0.0029 -0.3564
79254W        W22307   7.472  16.078   0.537 -0.1389 -0.1384  0.1920
79255W        W22308  23.720  17.841  22.816 -0.0955 -0.0281 -0.2152
79256W        W22309  18.341  30.432   0.595 -0.0341  0.0985  0.0653
79257W        W22310  11.554  10.099   3.622  0.0071  0.1426  0.1423
79258W        W22311   9.745   0.994   2.566 -0.0036  0.0081  0.0307
79259W        W22312   9.428   9.616  23.688 -0.0587  0.0316  0.1677
79260W        W22313  23.287  10.746   9.145  0.4373 -0.2050  0.1403
79261W        W22314  31.760  30.935   2.452  0.3718 -0.0585 -0.1585
79262W        W22315  32.294  10.701   5.442  0.0657  0.2256  0.2505
79263W        W22316  34.658  30.906   5.905 -0.2085 -0.0522 -0.0836
79264W        W22317  13.371   7.077  21.496  0.3681 -0.0388 -0.0031
79265W        W22318  27.448   6.344  27.730  0.0025  0.0041  0.0088
79266W        W22319   1.270  23.234   7.948 -0.0659 -0.3527  0.2246
79267W        W22320  13.191  33.894   8.807  0.0524 -0.2890  0.0695
79268W        W22321   3.042  12.409  22.383  0.0280  0.0900 -0.0912
79269W        W22322   5.902   9.977   6.486  0.2985  0.1889 -0.2257
79270W        W22323  10.799   2.233  29.120 -0.0460 -0.1010  0.0275
79271W        W22324  15.243   8.478   8.995  0.2526 -0.2274 -0.1027
79272W        W22325   9.309  15.880   7.992 -0.0300  0.2629  0.1162
79273W        W22326  22.062  18.303   5.761 -0.0660 -0.1693  0.1814
79274W        W22327  31.501  18.409   0.319  0.1526  0.1178  0.0239
79275W        W22328   8.407  18.297   4.558  0.2583 -0.2329 -0.2374
79276W        W22329   6.562  27.369  28.537  0.2192 -0.4698  0.2112
79277W        W22330  29.801  20.394  23.414  0.0900 -0.0263  0.3641
79278W        W22331   7.438   7.880   3.410  0.2160  0.3104 -0.0477
79279W        W22332  20.595  14.020   7.970 -0.1236  0.0999  0.2031
79280W        W22333   8.085  17.559  26.584 -0.0742 -0.0218  0.3345
79281W        W22334   1.868  31.185   6.996  0.0809 -0.2838 -0.1255
79282W        W22335  20.682  13.676  28.740  0.1674  0.0975 -0.1430
79283W        W22336  32.933  22.733  28.982 -0.2125 -0.0395  0.3089
79284W        W22337  26.269  11.656  10.899 -0.0412  0.1467  0.1206
79285W        W22338  25.938   6.540   4.111  0.1261 -0.3282  0.2999
79286W        W22339  16.829  27.351  15.516  0.1278 -0.0031 -0.0664
79287W        W22340  28.561  18.094   3.508 -0.0972  0.0199  0.0187
79288W        W22341  32.703  25.243  28.572  0.0730  0.2170 -0.2511
79289W        W22342  12.613   2.046   1.850 -0.0420  0.0309 -0.0345
79290W        W22343  13.625   6.447   9.052 -0.0309 -0.0382  0.3721
79291W        W22344   7.097  11.015   9.416 -0.0897  0.0742  0.1429
79292W        W22345   4.059   8.919   7.704  0.0840 -0.1540 -0.0327
79293W        W22346  15.703  17.517   7.251 -0.0063  0.2207 -0.0466
79294W        W22347  14.248   9.715   1.243  0.2156  0.0539 -0.1383
79295W        W22348  18.415  20.518   2.563 -0.1411  0.2623  0.0069
79296W        W22349   9.240  10.344   3.338 -0.1283  0.2439  0.0578
79297W        W22350  21.937  32.978   1.886  0.0479  0.1288  0.0991
79298W        W22351  13.780   5.360  28.067  0.4580  0.0493 -0.0352
79299W        W22352  20.060   5.435   4.948 -0.1871 -0.4537 -0.1663
79300W        W22353   7.959   2.885   6.776  0.1857 -0.0585 -0.3171
79301W        W22354   4.922  33.551  26.674  0.0911  0.0805 -0.1467
79302W        W22355   5.045  12.541  20.056  0.1013  0.1630  0.3787
79303W        W22356  20.018   0.994   7.654 -0.1009 -0.0473 -0.2272
79304W        W22357   9.080   5.419   7.862  0.0374 -0.1265 -0.1436
79305W        W22358   3.941  32.389   2.350 -0.1665 -0.0080 -0.1673
79306W        W22359  11.746   6.378   8.327 -0.1268  0.1639  0.3650
79307W        W22360  17.577   0.506  22.936  0.0233  0.2198  0.0014
79308W        W22361   7.949  25.545  25.076 -0.0815  0.0584 -0.2550
79309W        W22362  16.602  12.422  24.378  0.1093 -0.1662 -0.0750
79310W        W22363  16.571  32.494   4.293 -0.1170 -0.0438  0.3940
79311W        W22364  17.615   8.163  24.968 -0.2029  0.1786  0.2556
79312W        W22365   1.382  13.746   4.716 -0.1410  0.1091  0.0776
79313W        W22366  13.731  17.031  24.426 -0.0401  0.2310 -0.0180
79314W        W22367   9.012  16.920   9.972  0.1617  0.3497  0.1171
79315W        W22368   8.375  28.558   6.005  0.0285  0.3115  0.1918
79316W        W22369   6.257  26.549  26.445 -0.1179  0.2655  0.1456
79317W        W22370   6.899   6.860   9.540 -0.0917  0.1118 -0.1615
79318W        W22371  14.610  23.382   0.473  0.0353  0.1301  0.0736
79319W        W22372  31.309  19.151  28.412  0.0351  0.1007 -0.0912
79320W        W22373  11.362  13.938  27.448 -0.2465 -0.1147 -0.1851
79321W        W22374  30.506  22.425  22.592  0.0226 -0.0916 -0.1316
79322W        W22375  11.304  11.758   0.546 -0.0805  0.1886 -0.0236
79323W        W22376  14.731  13.955   8.128  0.0987  0.2821  0.2513
79324W        W22377   2.363   2.169  18.458 -0.0546 -0.2202  0.0565
79325W        W22378  14.172  12.513   2.137  0.1675 -0.0602 -0.1275
79326W        W22379  32.183  34.602   0.757  0.2300  0.2163 -0.1182
79327W        W22380  14.795  21.001   4.177 -0.1364  0.1275  0.1287
79328W        W22381  21.999  32.798   2.919  0.2725 -0.0083 -0.0972
79329W        W22382   5.505  20.491  20.278  0.0636 -0.1661  0.0637
79330W        W22383   3.946  11.935   5.760  0.0325  0.0441  0.0496
79331W        W22384   7.316  10.325  23.536 -0.1961 -0.0367 -0.0052
79332W        W22385  20.170  33.706   8.492  0.1301 -0.1813 -0.0855
79333W        W22386   5.903   8.647   3.031  0.3672  0.0335 -0.2257
79334W        W22387  13.611  29.731  26.826 -0.3213 -0.0877 -0.0985
79335W        W22388  33.583  21.507   4.159 -0.0681  0.0457  0.1970
79336W        W22389   0.338  15.233   8.752  0.1001 -0.1742 -0.5228
79337W        W22390  16.582  32.228  25.461  0.0762  0.0087  0.1184
79338W        W22391  13.641  19.067   7.087 -0.1035  0.0777 -0.0354
79339W        W22392  28.607  21.671  24.869 -0.0293  0.1188 -0.2844
79340W        W22393   9.244   3.461  10.196 -0.1194 -0.0712  0.3850
79341W        W22394  20.896   3.289   1.853  0.1249  0.1029 -0.0125
79342W        W22395  12.800  11.382   3.067  0.2469 -0.0616  0.1457
79343W        W22396  11.126   1.648   5.831 -0.1097 -0.2559  0.2343
79344W        W22397  34.261  17.840  19.711  0.2813 -0.1651  0.0617
79345W        W22398   4.315   4.358   9.087 -0.0183  0.1102 -0.2837
79346W        W22399  11.720  32.175   6.367  0.1375  0.3515  0.0029
79347W        W22400  11.093   5.784  27.505 -0.4284  0.1952 -0.0575
79348W        W22401  14.618  19.318   9.399 -0.2202 -0.1899  0.0969
79349W        W22402   3.213   9.351  10.684  0.0186 -0.3275 -0.4236
79350W        W22403   1.752  33.610  28.305 -0.1101 -0.1890  0.1479
79351W        W22404  14.946   1.855   0.282  0.2188  0.0042 -0.1996
79352W        W22405  16.430   3.293  27.484  0.1938 -0.0156  0.1196
79353W        W22406  12.213   8.804   6.727  0.1936  0.3619 -0.1097
79354W        W22407   5.589  21.966  25.019  0.2588 -0.0950  0.0592
79355W        W22408  21.474  10.037   1.757  0.0501 -0.1884 -0.0918
79356W        W22409  12.579  17.670  17.498 -0.1012  0.1977 -0.1293
79357W        W22410   9.967   6.472   8.523  0.0495  0.0958  0.0395
79358W        W22411   6.248   5.296   4.026 -0.0298 -0.0199  0.0520
79359W        W22412   8.810  18.256   8.337  0.1007  0.2700 -0.1929
79360W        W22413   7.054  34.301   7.828 -0.1682 -0.0107  0.2273
79361W        W22414  22.166  11.043   2.059 -0.0744  0.1699  0.0609
79362W        W22415  30.302  20.975   1.387 -0.0940  0.3015 -0.4264
79363W        W22416   2.057  13.226  28.627 -0.1875  0.0826  0.0130
79364W        W22417  27.788   9.731  26.997  0.0937 -0.2203 -0.2308
79365W        W22418  10.878  26.179   5.421  0.1434 -0.0478 -0.0708
79366W        W22419  13.111   3.304  26.917  0.1546  0.0032 -0.1730
79367W        W22420  29.208  23.966   1.746  0.1146 -0.1944  0.2808
79368W        W22421   8.201   2.749   3.477 -0.1763 -0.1057  0.2818
79369W        W22422   5.103  21.212   6.611 -0.0310  0.1215 -0.5606
79370W        W22423   6.463  32.786   0.727 -0.0003  0.0324  0.0936
79371W        W22424   0.235  21.718  26.103  0.1916  0.1516  0.1520
79372W        W22425  18.582  17.144   0.538  0.2072  0.0858  0.3153
79373W        W22426  28.454   6.383   0.471  0.1628  0.0584  0.0163
79374W        W22427  30.805   1.544   1.964 -0.3426 -0.3377  0.0563
79375W        W22428  13.487   9.563  27.047 -0.2182  0.0149 -0.2834
79376W        W22429   9.572   7.018   2.840  0.0920 -0.0026  0.0641
79377W        W22430  10.710   7.108   9.780  0.3159 -0.0644 -0.3512
79378W        W22431   2.409   3.969  25.649  0.1354 -0.0496 -0.4856
79379W        W22432  14.384  32.229   1.349  0.0396 -0.0760  0.2771
79380W        W22433  11.499  29.700   4.950  0.3024  0.1677  0.2762
79381W        W22434   9.108   3.169   4.869 -0.0426  0.1357 -0.0718
79382W        W22435   5.647  15.399  17.820  0.2038 -0.0734 -0.0845
79383W        W22436  15.031  20.079   7.347  0.0049  0.2461  0.1373
79384W        W22437  15.813   7.278   3.612 -0.1179 -0.2507  0.0134
79385W        W22438  17.694  10.228  27.393  0.4034  0.2451  0.1702
79386W        W22439   5.411  34.433  22.397  0.0076 -0.3149  0.0894
79387W        W22440   6.809  16.864   8.771 -0.0319  0.2755 -0.0526
79388W        W22441  12.304  14.389   4.545  0.2254  0.1168  0.3014
79389W        W22442  32.853   3.952  27.948 -0.1071 -0.0143 -0.3474
79390W        W22443  15.139  12.082   4.324  0.0120  0.0894  0.1594
79391W        W22444  13.237  23.744   9.154 -0.0151 -0.1887 -0.0302
79392W        W22445  21.755   3.606   2.544  0.1282  0.1005  0.0597
79393W        W22446  17.717   6.407   4.878  0.1348  0.1933  0.0855
79394W        W22447  25.210   4.321   6.420  0.0213 -0.1121 -0.0137
79395W        W22448   4.598   7.324  14.155  0.1252 -0.3064  0.0425
79396W        W22449  17.936   6.318   6.200 -0.1637  0.2608  0.1048
79397W        W22450  11.774   2.643  26.538 -0.1273  0.0263 -0.3777
79398W        W22451   8.368  32.554   6.270  0.0521  0.2575 -0.1095
79399W        W22452  15.692   9.991   0.051  0.0879  0.0422  0.0457
79400W        W22453  26.015  33.884   6.229  0.0404 -0.1786 -0.0697
79401W        W22454  12.094   6.654   4.904 -0.2748  0.3108 -0.3995
79402W        W22455  11.774  28.413   8.135 -0.0208  0.0816  0.2626
79403W        W22456  10.456  34.358   1.198 -0.2971 -0.0405  0.3064
79404W        W22457   6.267  29.693  28.713  0.0188 -0.3123  0.0792
79405W        W22458   0.525  22.025   3.693 -0.0744 -0.1204 -0.1489
79406W        W22459   7.163  17.897  22.586  0.2319 -0.0818  0.1552
79407W        W22460  15.416   2.006   0.320  0.3819 -0.1618  0.0828
79408W        W22461  16.746  19.270   8.911 -0.2762 -0.0314 -0.1210
79409W        W22462   9.459   8.024   8.040  0.2004 -0.0651 -0.2367
79410W        W22463  12.158  33.225   9.698 -0.0122 -0.0245 -0.3523
79411W        W22464  16.194   6.587  28.573  0.1929 -0.0240 -0.1635
79412W        W22465   0.784   5.342   1.646 -0.2175 -0.1888 -0.0463
79413W        W22466   5.582   7.939   7.335 -0.1224  0.0957 -0.0784
79414W        W22467  17.384  15.347   1.880  0.0210  0.1302  0.2764
79415W        W22468   3.295  12.851   1.658  0.4405 -0.3897  0.0753
79416W        W22469  32.133  32.147   4.411 -0.1402  0.0552 -0.1389
79417W        W22470   8.400  34.431   5.876 -0.0319  0.2402  0.0495
79418W        W22471  12.642  31.611   5.937  0.0021  0.1968 -0.2859
79419W        W22472  14.240   4.425   2.544 -0.4447  0.1690 -0.1253
79420W        W22473  22.943   4.250  25.448  0.3493  0.0471 -0.1172
79421W        W22474  15.738  13.215   2.893 -0.1287 -0.0559 -0.2241
79422W        W22475  11.780   2.074   2.803  0.0932  0.0106 -0.1777
79423W        W22476  29.352  12.861   6.435  0.0107 -0.1026  0.0263
79424W        W22477   3.234   6.380   9.499 -0.4222 -0.3134  0.1562
79425W        W22478  28.314  33.464   4.084  0.1186 -0.3359  0.1050
79426W        W22479  28.576  23.053  27.229  0.1691 -0.0316 -0.2522
79427W        W22480   6.681  33.577  23.808  0.0981 -0.1362  0.2063
79428W        W22481  12.117  13.756   8.722 -0.0131  0.1404  0.0552
79429W        W22482   3.816  11.344   1.550  0.1045  0.2549  0.1975
79430W        W22483  29.160   8.355  21.031 -0.0297 -0.1464  0.1365
79431W        W22484   9.125  18.533   9.246  0.1085 -0.0103 -0.2034
79432W        W22485   6.549   2.178   2.435 -0.0237  0.2344 -0.1342
79433W        W22486   2.666  25.037  22.206  0.0547  0.0138 -0.2052
79434W        W22487  12.898   2.494  22.331 -0.0654 -0.2166 -0.2160
79435W        W22488  26.294  32.216   6.503 -0.0363 -0.1603 -0.2315
79436W        W22489  14.746  12.413  27.890 -0.0012 -0.0999  0.0622
79437W        W22490  31.626  13.589   3.986 -0.2106 -0.0219 -0.1055
79438W        W22491  34.270  31.649  22.734 -0.0314 -0.1641  0.2515
79439W        W22492   3.075  12.023   7.660 -0.0173  0.0685 -0.1973
79440W        W22493   4.663   3.439   8.170 -0.4976 -0.0679 -0.2718
79441W        W22494  11.405  31.082   3.085  0.0212 -0.1440  0.0771
79442W        W22495   9.001  29.061  24.887  0.0364  0.2671  0.1383
79443W        W22496  32.889   2.669  18.242  0.0667 -0.2141  0.0539
79444W        W22497  13.810  25.786   7.057  0.3603  0.3216  0.1715
79445W        W22498   3.646   2.676  22.694  0.0049  0.0177  0.2614
79446W        W22499   1.414  11.808   0.949  0.0366  0.4691 -0.1357
79447W        W22500  10.178  19.089   7.872 -0.0488  0.1173 -0.2193
79448W        W22501  15.841  14.007   0.931 -0.1737 -0.0298  0.0274
79449W        W22502   5.912  27.034   3.152 -0.4805 -0.2325 -0.1508
79450W        W22503  23.614   8.730   9.280  0.0560 -0.2408  0.0572
79451W        W22504   9.734   3.767   5.035 -0.2887  0.1488  0.0300
79452W        W22505   8.806  19.093   9.374 -0.0447  0.0185  0.2484
79453W        W22506   1.952   6.654   6.720 -0.2494  0.1213 -0.0552
79454W        W22507  10.549  19.325   7.592 -0.0606  0.2141 -0.0280
79455W        W22508  33.301   2.896   9.049  0.0331  0.1338  0.1446
79456W        W22509  20.057  10.664   5.753 -0.1981 -0.1009 -0.3081
79457W        W22510  16.747   7.374  10.122 -0.1347 -0.1905 -0.0725
79458W        W22511  20.085  33.165   7.913 -0.1329  0.1048  0.1291
79459W        W22512  15.615   7.507   8.021  0.0661  0.0478  0.1724
79460W        W22513   2.340  12.328   4.312  0.2059  0.1032  0.0195
79461W        W22514   7.600   9.416   5.807 -0.1065  0.1938  0.1371
79462W        W22515  29.763  15.360   7.914 -0.1403 -0.2564 -0.0859
79463W        W22516   9.867   6.016   8.748  0.2760 -0.1429  0.0642
79464W        W22517  26.935   6.890   8.806 -0.1809  0.0901 -0.0138
79465W        W22518  12.943   4.625   2.635  0.2123  0.3885  0.1051
79466W        W22519  11.989   4.320   1.738  0.0382  0.0980  0.0217
79467W        W22520  16.737  30.348   9.412  0.1235 -0.1355  0.1638
79468W        W22521  11.405   1.036  25.117  0.4056  0.0279  0.2196
79469W        W22522  23.291   4.840   2.466  0.0039 -0.0389  0.1240
79470W        W22523  15.989  22.024   3.135  0.3386 -0.0166 -0.3983
79471W        W22524   4.370   3.796   3.868  0.0418 -0.1525  0.1223
79472W        W22525   6.526  12.093   5.249  0.0069  0.1345  0.2087
79473W        W22526  16.168  23.013  28.320  0.0433  0.1552  0.0197
79474W        W22527   4.483  12.883  10.198  0.1643 -0.2743 -0.0331
79475W        W22528  13.275  14.747   5.411  0.0133 -0.1835  0.0202
79476W        W22529  33.987   5.553  26.167  0.1157 -0.1392  0.0295
79477W        W22530  15.520   2.192  28.665 -0.0527  0.2492 -0.0789
79478W        W22531  11.893   6.041   0.237  0.0858 -0.1615  0.5447
79479W        W22532  10.587  24.144   8.290  0.0423 -0.1625  0.1212
79480W        W22533  15.945   5.424   1.929 -0.0414  0.4794  0.0149
79481W        W22534  11.198   9.804   6.315 -0.1242 -0.0506 -0.2698
79482W        W22535  23.010  17.775   6.902 -0.0037  0.0644  0.1033
79483W        W22536   3.679   7.314   3.303 -0.0787 -0.0002 -0.1940
79484W        W22537   7.984  20.193   2.619  0.1122 -0.1470 -0.0809
79485W        W22538  23.666  11.852  20.438  0.3384 -0.1430  0.0013
79486W        W22539  25.777  23.347  27.188 -0.0835  0.2652 -0.0478
79487W        W22540  12.927  13.216  28.086  0.0426 -0.1714 -0.0230
79488W        W22541   4.017   4.605   2.292 -0.2172 -0.0578  0.0021
79489W        W22542   7.732  33.124  28.251  0.1054  0.1830 -0.2084
79490W        W22543  14.016  31.146   7.930 -0.3002  0.0209 -0.1178
79491W        W22544  29.072  25.009  24.789  0.1941  0.2070 -0.2089
79492W        W22545   8.943   3.315   5.546 -0.3367 -0.0387  0.0873
79493W        W22546   8.579  17.009   4.123  0.0964  0.2733 -0.0191
79494W        W22547  18.997   9.611   9.748 -0.0426 -0.0823  0.1267
79495W        W22548  17.630   0.412   1.544  0.4634  0.4217  0.0416
79496W        W22549  12.941   0.908  21.263  0.0633 -0.0562 -0.0432
79497W        W22550  26.493  10.223   8.192 -0.2179 -0.2655 -0.2090
79498W        W22551  28.784   0.037   4.004 -0.2532 -0.0658 -0.1115
79499W        W22552   6.320  20.896  28.466 -0.3139 -0.2718  0.1875
79500W        W22553  25.861  32.416   6.575 -0.0307  0.1285  0.1436
79501W        W22554  33.533  13.996  21.120 -0.1861 -0.0803  0.1416
79502W        W22555  18.518  19.072   3.256 -0.2737 -0.2363 -0.1825
79503W        W22556   4.704  33.819   2.992  0.0486 -0.1001  0.4307
79504W        W22557   8.364  19.296   5.536  0.2312 -0.0277 -0.0982
79505W        W22558  34.544  17.283   7.016 -0.0592 -0.0908  0.1468
79506W        W22559  20.321  20.159   5.794 -0.0014  0.1948  0.0040
79507W        W22560   4.771  17.635   4.575  0.1569  0.0459 -0.2239
79508W        W22561  32.439  27.266   2.109 -0.1470 -0.0857  0.3343
79509W        W22562  18.653  14.593   8.506 -0.0219 -0.0090 -0.1430
79510W        W22563   0.180  23.970  27.586  0.0087  0.0775 -0.1605
79511W        W22564   0.636  23.574  28.485  0.0788  0.0854  0.0692
79512W        W22565  27.027  20.153  15.033  0.1091  0.1652 -0.0717
79513W        W22566  12.742   7.912   2.721  0.2959 -0.4524 -0.4212
79514W        W22567  23.036   8.795  28.764 -0.0065  0.0677 -0.0099
79515W        W22568  12.409  17.095   3.529  0.1963  0.0417 -0.0868
79516W        W22569   1.282  11.207   8.354 -0.2771  0.1195 -0.0101
79517W        W22570  16.770  13.213  26.658  0.0446 -0.0721  0.1821
79518W        W22571  26.017   5.345   7.543  0.2871  0.1463 -0.5791
79519W        W22572  12.018  28.267  28.754  0.3587 -0.3122 -0.1532
79520W        W22573   9.998   8.058   2.653  0.1917  0.1587 -0.1035
79521W        W22574  18.503  10.969  10.664  0.0324 -0.2079  0.0842
79522W        W22575   0.424  20.820   7.867  0.0635 -0.0229  0.0835
79523W        W22576  32.297   7.814   7.542  0.0482  0.0066  0.1994
79524W        W22577  15.058  14.062   1.619  0.2831  0.0452  0.1645
79525W        W22578  11.189  13.615   3.920  0.1049 -0.2322 -0.1457
79526W        W22579  30.121   9.496  23.759 -0.3936 -0.1765 -0.1019
79527W        W22580  30.949  12.093  24.043  0.2764 -0.0741 -0.1591
79528W        W22581   0.855  15.870   9.400 -0.0298  0.0749  0.0582
79529W        W22582   3.275  18.664  26.825 -0.0023  0.1010 -0.0387
79530W        W22583   1.866   9.649  27.664 -0.0375 -0.3326  0.1958
79531W        W22584   6.723  16.542   5.853 -0.1276 -0.1181  0.0380
79532W        W22585  18.721   8.416   8.792 -0.2930 -0.4656 -0.0378
79533W        W22586  19.400  11.988  28.325 -0.0728  0.2299  0.0576
79534W        W22587  30.592  20.704  16.464  0.1315  0.1067 -0.0297
79535W        W22588   1.407  19.997  20.610  0.3275 -0.2094 -0.1388
79536W        W22589  24.052   1.898   3.773  0.1423  0.0067  0.1133
79537W        W22590   7.659  12.365   5.565  0.3252 -0.1288 -0.1732
79538W        W22591  14.269  15.906  27.024  0.4445 -0.1338  0.1469
79539W        W22592  28.762   8.366   4.172  0.1661  0.1224 -0.1124
79540W        W22593  32.419  33.592  23.866  0.0781  0.3229 -0.1730
79541W        W22594  16.119  26.087   3.844 -0.1103 -0.1472 -0.1096
79542W        W22595   4.701  25.414   6.262  0.0150 -0.1889 -0.1281
79543W        W22596  13.167  13.809   6.769 -0.3084 -0.1669 -0.1498
79544W        W22597  17.284  22.785   3.144  0.0917  0.0468  0.0459
79545W        W22598  31.658  17.963  20.011 -0.1366  0.1271  0.2477
79546W        W22599   9.879  23.907   9.592  0.0254  0.1671 -0.1569
79547W        W22600  13.996  10.678   9.159  0.1155 -0.1370  0.1915
79548W        W22601  16.086   1.604   2.762  0.1259 -0.2311  0.1136
79549W        W22602   2.738  20.194  22.197 -0.3176 -0.1028  0.0577
79550W        W22603  21.202  28.118   8.386 -0.0989  0.0293 -0.0965
79551W        W22604  21.173   1.115  23.007 -0.1660 -0.0898 -0.1615
79552W        W22605  27.455   8.145   6.069 -0.0997  0.1032  0.0158
79553W        W22606  11.911  26.143   1.845  0.1393  0.0575 -0.3505
79554W        W22607   6.027  16.013   1.754 -0.2716  0.0199  0.2145
79555W        W22608  13.261  17.762   3.876 -0.0204  0.2311  0.0150
79556W        W22609  21.237   2.568   9.587  0.0767 -0.4244 -0.0103
79557W        W22610  16.565  21.239   9.250 -0.1982 -0.0312 -0.1210
79558W        W22611  15.841   1.322   6.844  0.0043  0.1422 -0.1040
79559W        W22612  23.861  17.330   6.442  0.2377 -0.1786 -0.2058
79560W        W22613   3.494  13.727   3.215  0.2189  0.3054  0.1652
79561W        W22614  18.639  19.804  25.125  0.3843  0.4634  0.0689
79562W        W22615   9.406  16.687   1.494 -0.0169  0.0418  0.2257
79563W        W22616   0.371  19.542  15.318 -0.0368 -0.0511 -0.6048
79564W        W22617  12.309  14.301   5.642  0.0984 -0.0140  0.1345
79565W        W22618  20.529  25.710  24.944  0.0415 -0.0719  0.0563
79566W        W22619   5.925   2.932   2.996  0.0423  0.0121 -0.0760
79567W        W22620  13.486  10.121  25.685 -0.0106  0.2046  0.2144
79568W        W22621  25.701   7.645   2.608  0.0297 -0.1354  0.0757
79569W        W22622   7.799   8.247   3.419 -0.1967  0.1736 -0.2647
79570W        W22623  33.749  13.561   3.172 -0.1107 -0.3020  0.0546
79571W        W22624  34.336  17.703   7.374 -0.0884  0.0475 -0.0415
79572W        W22625  11.153   1.013  26.862 -0.0308  0.1542  0.1758
79573W        W22626  14.448  10.946   2.622 -0.1504 -0.0074 -0.1404
79574W        W22627   6.678   5.635  24.299  0.1181 -0.0879  0.0468
79575W        W22628  14.496  24.669  22.450 -0.2525 -0.2104 -0.0507
79576W        W22629  29.073   7.950   5.656  0.0221  0.4992 -0.1341
79577W        W22630   8.493   8.875   6.453 -0.2801 -0.0327 -0.0646
79578W        W22631   8.953  12.423   1.477 -0.0000 -0.2891 -0.0985
79579W        W22632  10.762  15.839   8.953 -0.0231  0.0192 -0.1556
79580W        W22633   0.064   8.588  20.324  0.0026  0.0227 -0.0529
79581W        W22634   0.428  33.511   3.413 -0.2635 -0.0622  0.2363
79582W        W22635   2.457   9.616  18.876 -0.2138 -0.2235 -0.0433
79583W        W22636   8.910  14.956   8.070 -0.1555 -0.3198  0.0680
79584W        W22637  11.353  25.646   2.249  0.2977 -0.2960 -0.1113
79585W        W22638   6.241  12.839   4.841 -0.0445  0.2629 -0.0241
79586W        W22639  15.511   1.606   3.250 -0.1844  0.3231  0.0423
79587W        W22640   7.688  17.282  19.885 -0.0394  0.1135 -0.1593
79588W        W22641   0.293  29.215   6.364 -0.1171  0.1754 -0.3104
79589W        W22642  27.503  25.260  28.750 -0.1703 -0.2529  0.1211
79590W        W22643  17.396   9.758   6.018  0.0076  0.3184 -0.0675
79591W        W22644   4.061  18.221   7.207  0.0527  0.0654 -0.0501
79592W        W22645  29.280  34.617  25.546 -0.1566 -0.3164 -0.0845
79593W        W22646  16.659  17.203  23.448  0.2079 -0.1657  0.2164
79594W        W22647  14.048  24.638  20.707 -0.1429  0.3313 -0.3126
79595W        W22648  19.555  14.468  28.978  0.2745 -0.1235 -0.1119
79596W        W22649   9.791   9.142   7.092  0.2315 -0.2696  0.2003
79597W        W22650  32.922  30.914   1.122 -0.0386  0.1275 -0.2517
79598W        W22651  10.119  18.253   6.001 -0.1245 -0.1595  0.2948
79599W        W22652  33.628  30.452  24.176 -0.2110 -0.4453 -0.0215
79600W        W22653   7.135  15.498   8.012  0.2289  0.1279 -0.0183
79601W        W22654  13.736  34.145   0.404  0.2913  0.1801  0.0278
79602W        W22655   1.419   7.079   7.494 -0.1075 -0.1247 -0.0417
79603W        W22656  23.936   2.662   3.853 -0.0582 -0.5897 -0.1662
79604W        W22657  31.048   7.617   5.491  0.0282 -0.1350  0.1187
79605W        W22658  22.294  11.238   9.373  0.1255  0.1126 -0.0945
79606W        W22659  22.018  15.252   2.937 -0.0276  0.3233 -0.1308
79607W        W22660  32.294   0.940   8.343  0.0728  0.2498  0.1406
79608W        W22661  13.100   3.817  26.119  0.1839 -0.0100 -0.1620
79609W        W22662  23.529   6.464   1.055 -0.0735  0.2587  0.0044
79610W        W22663  16.199   9.050   6.791  0.1558 -0.0874 -0.1360
79611W        W22664  10.266   0.390  24.755 -0.0204 -0.2875 -0.5306
79612W        W22665  14.906   2.979  29.051 -0.0760 -0.1659  0.0919
79613W        W22666  17.507   6.265  22.863 -0.1919 -0.1157  0.2430
79614W        W22667  20.321  17.854   6.949 -0.1151  0.2553  0.3309
79615W        W22668   2.832   5.284   1.253  0.0303 -0.0013  0.1729
79616W        W22669  20.934  22.633  21.796 -0.0767 -0.2540 -0.4042
79617W        W22670  21.316   7.034  27.226  0.3091 -0.1511  0.0602
79618W        W22671   9.697   4.851   0.468  0.0814 -0.4897 -0.1877
79619W        W22672  27.228   3.090   2.073 -0.2920 -0.1526  0.1140
79620W        W22673  11.279  14.516   4.683 -0.1660 -0.1623 -0.0114
79621W        W22674  14.843   8.573   6.366 -0.0152  0.3795  0.0451
79622W        W22675   1.446   5.204   3.371  0.3284 -0.2471  0.1401
79623W        W22676  14.621   9.064   1.624 -0.2469  0.0425  0.0394
79624W        W22677   9.786   6.845   0.516  0.0631  0.3131  0.1981
79625W        W22678  13.577   8.864  17.629 -0.1188 -0.0843  0.0787
79626W        W22679   1.623  21.173   1.377  0.1336 -0.4586 -0.0020
79627W        W22680   1.055  11.306   4.032  0.3354 -0.1798 -0.1310
79628W        W22681  17.261  11.146   8.174 -0.2752 -0.1263  0.1918
79629W        W22682   3.453   7.914   1.343  0.2171 -0.0286  0.0519
79630W        W22683  10.851   1.066   5.033  0.1504  0.0319  0.1510
79631W        W22684  10.655   6.306  28.284 -0.1362  0.1615 -0.0568
79632W        W22685  17.906   8.706  28.408  0.0143  0.0352 -0.0430
79633W        W22686  21.567  23.263  15.339 -0.1423 -0.1543 -0.0444
79634W        W22687  17.761  25.287  20.341 -0.1199 -0.1482 -0.2906
79635W        W22688  30.351  11.880  27.032  0.1027 -0.1962  0.3335
79636W        W22689  12.336   0.805   4.487 -0.1717  0.0223 -0.5754
79637W        W22690   1.922  13.692  10.107  0.1944 -0.1162  0.0661
79638W        W22691   8.645   0.920  10.530  0.1730 -0.0308 -0.2214
79639W        W22692  29.347  12.327   5.357 -0.0203  0.0318  0.2114
79640W        W22693  26.502   3.170  16.462  0.3161 -0.0132 -0.3150
79641W        W22694  19.431  34.124  25.972 -0.0437  0.2427 -0.1290
79642W        W22695  17.687  27.973  22.956 -0.1254 -0.0912 -0.1495
79643W        W22696   2.058   3.658   9.822 -0.0063 -0.4846 -0.0294
79644W        W22697  29.631  24.326   5.246  0.0089  0.0243 -0.2510
79645W        W22698  29.297  18.180  26.837  0.0202  0.2645  0.4156
79646W        W22699  22.532   6.617   3.897  0.0679 -0.0048  0.1519
79647W        W22700   9.877  13.963   5.037 -0.1073 -0.0338  0.0865
79648W        W22701   8.622  12.565  27.119  0.3286  0.0675 -0.1110
79649W        W22702  13.971  34.147   6.921  0.1989  0.0377 -0.0483
79650W        W22703   8.008  22.919   8.354 -0.1036 -0.1224  0.2246
79651W        W22704   3.348   1.620  25.397 -0.1422 -0.3625 -0.1937
79652W        W22705  25.716  11.395   7.198  0.3188 -0.0952 -0.2515
79653W        W22706  13.942  26.787   7.050  0.2123 -0.0030  0.2047
79654W        W22707  21.997  30.853   1.497 -0.1198 -0.0678  0.1617
79655W        W22708  31.924  15.890   6.743  0.1614 -0.0336 -0.1322
79656W        W22709   1.431  30.785   7.297 -0.0382 -0.0022 -0.0973
79657W        W22710   6.900  16.850  28.871 -0.0448 -0.1159 -0.1706
79658W        W22711  16.977   4.558  20.178  0.1298 -0.2058 -0.1295
79659W        W22712  11.847  18.248  26.669  0.1024 -0.1473  0.1659
79660W        W22713  10.579  20.785   2.918  0.0112 -0.0115  0.0825
79661W        W22714   7.584  33.556   9.014  0.0615 -0.1452 -0.3065
79662W        W22715  15.922  26.745   4.563 -0.3778  0.2602 -0.2770
79663W        W22716   3.614  27.581   8.691 -0.2364  0.1045  0.2206
79664W        W22717   1.990   6.092   2.748  0.0599  0.2159  0.0800
79665W        W22718  26.696   3.021  20.612  0.0716  0.1939  0.8268
79666W        W22719   9.984   5.119   5.194 -0.2361  0.0274  0.0670
79667W        W22720  17.557  17.322   2.241 -0.0055  0.0690  0.2378
79668W        W22721  15.022   6.077   8.705  0.1374  0.0847 -0.0617
79669W        W22722  16.660  33.767  18.681 -0.0537 -0.0918 -0.2714
79670W        W22723   4.850  29.754   9.237 -0.1867 -0.3085  0.0321
79671W        W22724  20.630   1.466   8.773  0.3568  0.1491  0.2019
79672W        W22725  14.073  21.697   5.253 -0.1024 -0.0620 -0.1336
79673W        W22726  19.285   2.935   4.442  0.0246  0.1769 -0.1248
79674W        W22727  22.612  34.239   9.135  0.2028 -0.0111  0.1851
79675W        W22728   4.543  16.198   0.450  0.3474  0.1076 -0.0241
79676W        W22729   8.808  11.894  10.209 -0.0376  0.0441  0.2250
79677W        W22730  27.641  23.381   6.214  0.1421  0.0084  0.1535
79678W        W22731  32.786   9.702   5.242  0.1858  0.2052 -0.4590
79679W        W22732  11.514   1.488   2.337  0.1264  0.2426 -0.1439
79680W        W22733   7.355  14.415   8.038 -0.2278 -0.2355  0.1390
79681W        W22734  17.181  13.383  20.856 -0.1595  0.1314  0.1322
79682W        W22735  10.890  33.226   7.219 -0.0002 -0.1560  0.1411
79683W        W22736  15.042  12.055  19.410 -0.0928  0.0673 -0.0821
79684W        W22737  33.058  31.225   5.643 -0.2058 -0.0040 -0.0935
79685W        W22738   3.412  32.813   3.898  0.1341  0.0518 -0.2013
79686W        W22739   6.045   5.286   4.929  0.0815 -0.1702  0.2398
79687W        W22740  12.012  12.800   9.175  0.0623 -0.2142 -0.2329
79688W        W22741   5.002   0.308  24.968 -0.1462 -0.2463  0.0181
79689W        W22742  15.139  33.438   7.849 -0.1462  0.0153  0.0232
79690W        W22743  31.696   7.522   8.433 -0.2007  0.0220  0.1066
79691W        W22744   7.610  13.801   6.099 -0.3012 -0.1643  0.1109
79692W        W22745  28.794   9.953   5.613  0.1332  0.0101  0.2892
79693W        W22746  12.326   4.781   8.801 -0.2126 -0.0624 -0.0634
79694W        W22747  22.332  14.694  24.496  0.6162 -0.1156  0.1165
79695W        W22748   8.176   8.074   8.300 -0.0885 -0.0286  0.0589
79696W        W22749  17.794   6.906   9.985 -0.0192 -0.0776  0.3209
79697W        W22750  29.400  27.495   5.973 -0.0225 -0.1967  0.1087
79698W        W22751  30.132  18.426  26.176 -0.1444 -0.2527  0.0684
79699W        W22752   6.088   7.055   9.037  0.0339  0.0393  0.3657
79700W        W22753  26.236   3.202   5.808 -0.1340 -0.3968 -0.0291
79701W        W22754  13.502  29.694   8.996 -0.0322  0.5104  0.2134
79702W        W22755  16.015   8.727   2.299  0.2455 -0.1247  0.0918
79703W        W22756  17.222   5.703  25.094 -0.4404 -0.4168  0.0786
79704W        W22757  15.392   1.639   8.417 -0.0954 -0.0395 -0.0310
79705W        W22758   7.708   1.519   1.037 -0.2495  0.1984  0.0791
79706W        W22759   6.908  33.174   2.385 -0.1708 -0.2653 -0.2588
79707W        W22760  13.986   8.015   7.235 -0.2333 -0.1552 -0.0525
79708W        W22761   0.034   5.417   6.260 -0.3006 -0.1343  0.1312
79709W        W22762  33.567  32.956   6.364 -0.0629  0.1172  0.0191
79710W        W22763  13.000  15.276   8.037 -0.0650  0.1764 -0.2840
79711W        W22764  24.379   6.139   0.283  0.0117  0.2660 -0.2070
79712W        W22765  18.710   1.423   8.870 -0.0550  0.0176 -0.0356
79713W        W22766  19.941  13.304   7.875  0.4065 -0.3061  0.1794
79714W        W22767  34.245  31.997   9.266  0.1852  0.2131  0.2829
79715W        W22768   8.329  30.279   5.810  0.0620 -0.0115  0.0344
79716W        W22769   4.535  32.404   3.634  0.0342  0.2221 -0.1532
79717W        W22770  19.274  12.112   5.007 -0.0178 -0.1696  0.1301
79718W        W22771  28.995  33.955   0.033  0.1105 -0.0050  0.1957
79719W        W22772  13.092   1.645  28.714  0.1065 -0.1616  0.0637
79720W        W22773  20.376  15.807  27.044  0.2475 -0.0898  0.1787
79721W        W22774  23.520  16.590   6.411  0.1235 -0.1903 -0.0500
79722W        W22775   8.165   5.498   4.266 -0.0896  0.0648 -0.0434
79723W        W22776  29.772   8.286  28.777  0.0480 -0.1232  0.0353
79724W        W22777  20.205  16.898   7.454 -0.0438  0.0152  0.4378
79725W        W22778   9.622  10.689  28.944  0.0099 -0.2323  0.1094
79726W        W22779  13.491  15.244   8.193  0.1640  0.0099  0.3247
79727W        W22780   2.399   5.546   6.253  0.0561  0.1738  0.2527
79728W        W22781  11.599   7.199   4.343 -0.1966 -0.1467 -0.0517
79729W        W22782  22.820  34.206   2.963 -0.0555  0.2946  0.1493
79730W        W22783  34.626   5.130  22.603  0.0213  0.2867 -0.0204
79731W        W22784  23.980  28.284   5.055  0.1223  0.1896  0.0120
79732W        W22785   2.711  12.329   9.205 -0.1481 -0.5680  0.2140
79733W        W22786   2.944  19.621  15.336 -0.0930  0.1141  0.1309
79734W        W22787  30.812  17.938   7.475  0.2606 -0.1791  0.1036
79735W        W22788  11.964  25.253   1.056 -0.1404 -0.1051  0.2314
79736W        W22789  28.953   9.957   7.665  0.2610 -0.2386 -0.2663
79737W        W22790   0.210  33.097  21.580 -0.0619 -0.0523  0.3198
79738W        W22791   5.526   6.346   3.928 -0.0954 -0.0653  0.2715
79739W        W22792   2.119  13.287   9.515 -0.1213  0.0066  0.1507
79740W        W22793   2.430   6.554   5.340 -0.2289  0.1154  0.0423
79741W        W22794  27.337   9.742  28.576  0.1919  0.0602 -0.2677
79742W        W22795   7.515   6.624   6.118  0.1744  0.1254  0.0942
79743W        W22796  15.763  11.448  10.577  0.0584  0.2788 -0.0310
79744W        W22797  17.950  23.307  20.642  0.1054  0.0771  0.0462
79745W        W22798  14.420  28.872  22.288  0.4569 -0.1252 -0.0853
79746W        W22799  15.216  24.476   0.653  0.3117  0.0849 -0.1972
79747W        W22800  14.590   2.456   4.529 -0.1011  0.3048  0.0589
79748W        W22801  13.675   7.777   6.493 -0.3001 -0.0504  0.1326
79749W        W22802   4.674  32.595   9.609 -0.2003  0.0346  0.0643
79750W        W22803   1.646  32.937   9.164  0.0093  0.0557  0.0973
79751W        W22804  14.384   7.558  25.337  0.0444 -0.0300  0.2254
79752W        W22805   9.471  28.121   4.596  0.0721 -0.2351 -0.1069
79753W        W22806   0.851   8.411   7.241 -0.1715 -0.0140 -0.1046
79754W        W22807   9.751  11.755   9.601  0.0844  0.1750  0.1141
79755W        W22808  29.687  12.488   3.741  0.0732 -0.1168 -0.2015
79756W        W22809   1.640  21.602   0.011 -0.1041 -0.3273  0.1951
79757W        W22810  20.040  22.747  14.268 -0.3370  0.0133  0.0170
79758W        W22811   0.486  17.074   4.275 -0.1318  0.2275 -0.2223
79759W        W22812  29.409   1.684  26.365 -0.2639 -0.2064  0.2722
79760W        W22813  22.967  10.750  27.443 -0.0479  0.2204  0.2420
79761W        W22814  11.283   6.386   6.700  0.0047 -0.1520  0.1497
79762W        W22815  10.716  23.063   6.429 -0.3431 -0.1261 -0.0885
79763W        W22816   0.475  22.038   8.986  0.0577  0.2396  0.0941
79764W        W22817   2.066  12.356   6.952 -0.4117 -0.1179 -0.1142
79765W        W22818   6.587  10.653  10.242  0.0616 -0.1811  0.3419
79766W        W22819  13.374   9.369   6.240 -0.0415  0.1202  0.3567
79767W        W22820  18.320  32.046   8.216  0.2772 -0.0685 -0.0521
79768W        W22821  28.878   9.902   3.074 -0.3855  0.4121  0.4354
79769W        W22822  17.460  24.150   6.479 -0.4369  0.1183 -0.4768
79770W        W22823  29.390  10.730   3.160 -0.0454 -0.0030 -0.1827
79771W        W22824  20.340  29.821  10.045  0.1582 -0.1391 -0.2861
79772W        W22825   7.142  11.290   3.256 -0.0827  0.1261  0.0033
79773W        W22826   6.359  13.122  24.481 -0.2080 -0.0558  0.3520
79774W        W22827   9.372  25.985   0.064  0.2949 -0.3442 -0.5601
79775W        W22828  13.796   5.427   9.570 -0.0617  0.0313 -0.0186
79776W        W22829   9.354   7.711   6.802 -0.0522  0.1330  0.0521
79777W        W22830   5.666   6.060  28.568  0.1484  0.0985  0.1216
79778W        W22831   5.828   6.604   9.210  0.1818  0.0107  0.1006
79779W        W22832   9.184  14.143   8.980 -0.2635  0.1063  0.1004
79780W        W22833  11.503  19.017   1.592 -0.2314  0.1779 -0.0453
79781W        W22834  13.517  21.965   1.108 -0.2407 -0.3718  0.1180
79782W        W22835   7.816   4.207  16.331 -0.1843 -0.1346 -0.1962
79783W        W22836   7.893  10.057  26.867  0.2070  0.1930 -0.0298
79784W        W22837   5.651  15.127   4.002 -0.3514 -0.0794 -0.0340
79785W        W22838  23.741   6.941   7.545  0.2116 -0.4007 -0.1165
79786W        W22839   9.407  16.875   8.935 -0.1109 -0.1188  0.1846
79787W        W22840  30.320  31.957   1.042  0.1724  0.1539  0.1075
79788W        W22841   7.986  12.563   8.817 -0.2216 -0.1931 -0.0553
79789W        W22842   7.689  28.272   5.184  0.1741  0.0328 -0.1369
79790W        W22843  17.363  13.873   8.244  0.2307 -0.2328  0.0479
79791W        W22844  19.194  16.408  28.590 -0.4155  0.3249  0.0181
79792W        W22845   1.870   8.497  29.120 -0.1362  0.0789 -0.2172
79793W        W22846   6.337  18.275  22.391  0.0777 -0.1189 -0.2240
79794W        W22847   6.955   6.499   1.180 -0.2555  0.1831  0.1294
79795W        W22848  13.785  33.422   3.685 -0.2816  0.2510 -0.0150
79796W        W22849   2.042   8.493   7.334 -0.3425 -0.1787  0.0181
79797W        W22850   8.739   5.044   7.609  0.2948 -0.1640  0.0424
79798W        W22851   9.174  34.397   4.018  0.0482 -0.1304 -0.1161
79799W        W22852  16.086   8.350  10.502  0.2188  0.3751  0.1839
79800W        W22853  11.822  11.164   3.396 -0.0836 -0.1701  0.0583
79801W        W22854  21.709  19.401  26.782 -0.2091  0.1032 -0.0559
79802W        W22855  18.252  34.487   4.524  0.0162  0.2455  0.1609
79803W        W22856  30.756  27.679  15.912 -0.1052 -0.2947  0.2045
79804W        W22857  16.576  34.349   6.413  0.0449  0.0620 -0.1330
79805W        W22858  14.421  17.083   7.592  0.0210 -0.0394  0.0724
79806W        W22859  26.891  16.366  10.376  0.0553 -0.0385 -0.1721
79807W        W22860   4.345  30.796  26.507 -0.2235  0.1981  0.1228
79808W        W22861  34.588   7.118   1.032 -0.2211 -0.3278  0.0372
79809W        W22862   3.396   0.134   7.837 -0.2522 -0.2240 -0.2523
79810W        W22863   9.749  13.811   2.410  0.1698  0.2120 -0.0831
79811W        W22864  32.233   9.629  29.198 -0.1627 -0.2900  0.0902
79812W        W22865   2.769  15.581  17.692  0.1841 -0.1919  0.3759
79813W        W22866  31.606   1.580  21.368 -0.1337 -0.4176  0.1571
79814W        W22867   3.733   9.429  10.768  0.1298 -0.2130  0.0471
79815W        W22868  34.194  31.670   6.777 -0.1384 -0.0282 -0.2815
79816W        W22869   2.891   9.688   0.912 -0.1323  0.0748 -0.1845
79817W        W22870  21.084  33.048   6.721  0.2253  0.0712 -0.0661
79818W        W22871  19.970   1.868  18.540  0.1732 -0.0525 -0.0549
79819W        W22872   8.328  11.702  21.598  0.2110  0.0273 -0.4035
79820W        W22873  10.597  13.894   9.594  0.0313  0.1241 -0.0175
79821W        W22874  18.106  10.509   6.259 -0.1786 -0.0095  0.0901
79822W        W22875  34.275  19.328   7.539  0.1611  0.2810  0.1467
79823W        W22876  25.671  15.174  25.412 -0.1923  0.2195  0.3465
79824W        W22877  24.231  15.821   9.355 -0.0205  0.2480 -0.0365
79825W        W22878  31.739  13.117   4.838 -0.0821 -0.1612  0.3189
79826W        W22879  26.550   8.840   2.384  0.1346 -0.0456  0.2296
79827W        W22880   6.529   2.058   9.101 -0.2352  0.2238 -0.0473
79828W        W22881  14.445  12.459  28.622 -0.2372  0.1070 -0.1194
79829W        W22882   5.047  31.518   2.641 -0.1067  0.2778  0.0674
79830W        W22883  16.104  21.377   4.089  0.2348 -0.2009  0.0781
79831W        W22884  17.349  13.478   6.836 -0.3383 -0.1582  0.0268
79832W        W22885  10.047  30.687   7.256  0.2386 -0.0380 -0.1138
79833W        W22886   5.744  26.383   4.432 -0.1888  0.4024  0.3851
79834W        W22887   1.913  14.624  22.494  0.0009  0.1031  0.2926
79835W        W22888  19.035  23.229   3.032 -0.2017 -0.5309 -0.0110
79836W        W22889   2.857  22.366   3.718 -0.1669  0.3292 -0.0261
79837W        W22890  31.069   9.044   8.945  0.2627  0.2983 -0.1743
79838W        W22891  34.401  21.003   3.459  0.1572 -0.0687 -0.0649
79839W        W22892   5.776  20.563  25.206 -0.0365 -0.4922 -0.0031
79840W        W22893  14.712  10.883  10.752  0.2445 -0.0372  0.2468
79841W        W22894  17.880  32.663  26.562 -0.1403 -0.4242 -0.1388
79842W        W22895   9.755   1.305   8.480 -0.0602 -0.0203  0.0349
79843W        W22896  18.973  18.428  18.269  0.4883  0.2458 -0.0539
79844W        W22897  18.541  30.899   1.499 -0.1053 -0.0747 -0.0289
79845W        W22898   0.000  28.548  26.399 -0.0285  0.4611 -0.0993
79846W        W22899  34.158   6.393  21.261 -0.1359 -0.1502  0.2124
79847W        W22900  19.244  14.277  27.914  0.0925  0.1786  0.2852
79848W        W22901  24.558  13.188   8.816 -0.1858 -0.1864  0.0992
79849W        W22902  18.969  10.500   6.354 -0.0884 -0.3246 -0.1715
79850W        W22903  10.449  34.332   9.221  0.0886 -0.0141  0.0428
79851W        W22904  12.905  15.320   6.233  0.2394  0.2155  0.2985
79852W        W22905  20.103   6.889   8.890 -0.0874  0.1375 -0.2914
79853W        W22906  14.670  10.505   9.324  0.0145 -0.2357 -0.1217
79854W        W22907  28.832  30.345  17.194 -0.1726 -0.1401 -0.1168
79855W        W22908  19.298   3.102  24.703 -0.2281 -0.2473 -0.1754
79856W        W22909   4.966   8.750  27.583 -0.0579 -0.0883  0.1819
79857W        W22910  10.948   8.783   8.572 -0.3101 -0.1748  0.0501
79858W        W22911   0.541   1.506   5.519  0.3718 -0.2729  0.0359
79859W        W22912  29.187  13.205  26.763  0.1969 -0.1182 -0.0388
79860W        W22913   3.927   8.729  28.906  0.1779  0.1732 -0.2011
79861W        W22914   8.354  19.363  28.913 -0.0786 -0.0366  0.0771
79862W        W22915  11.454  32.218  19.533  0.0673 -0.1380 -0.0281
79863W        W22916   1.648  15.715   0.615  0.1864 -0.1221 -0.1993
79864W        W22917  13.042   7.644   3.184 -0.1205  0.1016 -0.1162
79865W        W22918   6.095   1.010   0.963 -0.3893 -0.0157 -0.1317
79866W        W22919   2.322   9.069   3.574  0.0192  0.0635 -0.1337
79867W        W22920  29.434   6.791   0.422  0.0812 -0.3038 -0.5582
79868W        W22921  31.144  20.353  22.373 -0.3016  0.1370  0.0891
79869W        W22922  17.374  17.412   1.810  0.0941  0.0633  0.2005
79870W        W22923  12.782  24.096  22.352  0.2170  0.0712 -0.3759
79871W        W22924  32.871  18.393   0.339  0.0167 -0.0682 -0.1326
79872W        W22925  14.332  13.330   5.288 -0.1499  0.3270  0.0464
79873W        W22926  20.385   7.312   5.453 -0.3319  0.0155 -0.0840
79874W        W22927   5.880  12.258   3.536  0.2555 -0.0496  0.0676
79875W        W22928   3.489  22.482   8.090 -0.3366 -0.1461  0.1291
79876W        W22929   1.363  17.773  26.784  0.0704 -0.2173 -0.3240
79877W        W22930  28.066  10.982   6.356 -0.0632 -0.2597 -0.2418
79878W        W22931   1.216  19.232   2.244  0.1179  0.0131  0.1881
79879W        W22932  19.320  23.310  28.904  0.1944 -0.0902 -0.1207
79880W        W22933  32.385  14.379   2.428  0.0744  0.2625  0.1168
79881W        W22934   6.566   0.701   3.534 -0.1841 -0.2340 -0.0401
79882W        W22935   0.164  33.424   1.555  0.2594  0.3693 -0.1007
79883W        W22936  13.381  20.357   2.905  0.2616 -0.0848  0.0287
79884W        W22937   8.134   0.844   8.538 -0.0452 -0.1285 -0.2537
79885W        W22938   4.547  13.815   8.940  0.1939 -0.0027  0.0874
79886W        W22939   2.951  33.798   1.042 -0.0214 -0.0095 -0.1567
79887W        W22940  21.328  33.439   1.186  0.0493 -0.2397  0.0752
79888W        W22941   5.886   3.298   9.515 -0.0540 -0.0676 -0.2609
79889W        W22942   9.476   6.017   3.835  0.0573 -0.0738 -0.1917
79890W        W22943  11.136  31.451  28.374 -0.2347  0.0117 -0.1106
79891W        W22944   2.947  24.604  16.319 -0.0500 -0.1026  0.0261
79892W        W22945  16.656  16.382   5.343  0.2834  0.1295 -0.0395
79893W        W22946   5.715  31.760  28.716  0.0483  0.0230  0.1317
79894W        W22947  13.995   5.594  27.649  0.0057  0.2734 -0.5342
79895W        W22948   8.894  26.471   5.853 -0.0746  0.4335  0.3103
79896W        W22949  31.079  33.175  18.884  0.1930  0.0388  0.1609
79897W        W22950   2.711   5.684   5.807 -0.2172 -0.2847 -0.4759
79898W        W22951  19.808  11.141   9.468 -0.3988 -0.1494 -0.2698
79899W        W22952  10.723   3.978   1.186  0.0068 -0.1292  0.0347
79900W        W22953  11.357   7.573   7.782 -0.0881  0.3218 -0.1928
79901W        W22954  17.739  28.299  14.970  0.0623  0.0918  0.0244
79902W        W22955   6.264  10.819  25.973 -0.0611 -0.2176  0.0541
79903W        W22956   1.914  16.140  20.083  0.1341  0.0653 -0.1557
79904W        W22957   7.569  16.986   5.800 -0.1717  0.1548 -0.1539
79905W        W22958   6.181  29.277   1.024  0.0218  0.1728  0.0831
79906W        W22959  13.451  17.038   9.035  0.2303  0.0172 -0.1637
79907W        W22960  29.108   7.435   1.519 -0.1670  0.1967  0.0330
79908W        W22961   6.337  21.560   6.030 -0.0533 -0.2486 -0.0704
79909W        W22962   6.174  12.336  10.181  0.1115  0.0773  0.4696
79910W        W22963  33.113   0.189  13.941  0.0311  0.1513 -0.3768
79911W        W22964  16.429   5.475   6.037  0.2652  0.0338 -0.0666
79912W        W22965  18.210  14.045   6.270  0.1909 -0.0220  0.0241
79913W        W22966  13.940  13.562   1.735  0.1577  0.3631 -0.2109
79914W        W22967  22.158  13.090   8.234  0.0491 -0.0440 -0.2878
79915W        W22968  31.167   9.761  26.479 -0.0955  0.1418 -0.0141
79916W        W22969   1.132   9.618  10.106 -0.0462 -0.0231  0.1045
79917W        W22970   0.540  14.873   9.632  0.2041 -0.1635  0.0097
79918W        W22971  16.241   8.780  27.372 -0.1347  0.0668 -0.0092
79919W        W22972  10.715  14.500   6.775  0.2004 -0.1343 -0.0760
79920W        W22973  10.753  18.762  21.096 -0.4064 -0.0362 -0.0683
79921W        W22974  16.471   4.158  27.529  0.1839  0.0051 -0.1097
79922W        W22975  27.896   8.586   1.844 -0.1515 -0.1510 -0.1594
79923W        W22976  19.333   5.655  26.174 -0.0662 -0.0154  0.0086
79924W        W22977   5.104  31.190   2.124  0.0517  0.0020  0.0872
79925W        W22978   6.309   8.165   2.605  0.0590 -0.0473 -0.1444
79926W        W22979  12.113   3.906  27.359  0.1058 -0.2207 -0.0658
79927W        W22980   6.294  24.412   6.025 -0.2357 -0.3341  0.2561
79928W        W22981  14.237  33.355  14.789 -0.0509 -0.3302  0.2158
79929W        W22982  10.082   7.130   7.731 -0.1538 -0.0995 -0.3404
79930W        W22983  12.662  16.101   3.876 -0.2210 -0.0585  0.1623
79931W        W22984  10.778  30.273   6.875  0.3427 -0.3400 -0.1423
79932W        W22985  20.807  11.895   8.826  0.0569 -0.0037  0.0234
79933W        W22986  21.262  15.393  27.937 -0.0240  0.1221 -0.1614
79934W        W22987  25.463  14.837   6.360  0.0735 -0.4389  0.0254
79935W        W22988  14.161  14.572  25.747 -0.2736 -0.0105 -0.1684
79936W        W22989  18.753   6.260  10.666  0.1677 -0.0698  0.0445
79937W        W22990  23.397   7.645  10.060 -0.3753  0.0636  0.1225
79938W        W22991  23.301  11.778   4.670  0.1018 -0.1082 -0.1287
79939W        W22992   0.209   3.809   5.577  0.0959 -0.0437 -0.2749
79940W        W22993  23.618  23.387  10.158  0.2714 -0.1037 -0.0960
79941W        W22994   7.445  15.451   6.067 -0.1006  0.1376 -0.0946
79942W        W22995  34.472  10.376  22.087  0.1204  0.1998  0.2275
79943W        W22996   7.464  27.395  17.620  0.2222  0.2684 -0.3317
79944W        W22997   9.076  14.288   1.267 -0.1531  0.2286 -0.1742
79945W        W22998  27.189  29.066   4.405  0.2403  0.1108  0.2018
79946W        W22999  13.113  18.996  23.232  0.3805 -0.0482  0.3405
79947W        W23000  11.841   7.708   9.590 -0.0045  0.2500  0.2680
79948W        W23001  29.191   7.044   8.712 -0.1423 -0.0642 -0.1479
79949W        W23002  33.847  29.276   5.289  0.2129 -0.0726  0.3937
79950W        W23003  34.491  17.505   8.972 -0.0788 -0.0016 -0.0735
79951W        W23004  23.232   7.163   5.486  0.0763  0.1397  0.0889
79952W        W23005   6.023  19.182  27.884 -0.1574  0.1315 -0.0431
79953W        W23006   7.544  13.668  24.618  0.0849 -0.0403 -0.0577
79954W        W23007  18.217   9.435   5.167  0.3356 -0.0729 -0.0191
79955W        W23008  32.634   2.662  27.620  0.0442 -0.2453 -0.0963
79956W        W23009  20.071  13.693  27.997 -0.2821  0.3899 -0.0491
79957W        W23010  11.926  26.655  25.691  0.0293  0.3319  0.0636
79958W        W23011  32.190  30.953   2.198 -0.3021  0.1068  0.0780
79959W        W23012   4.213   9.656   8.831  0.1310  0.0998  0.0162
79960W        W23013  29.385  32.550   1.608  0.3124  0.1218 -0.0876
79961W        W23014  13.835   0.172   2.294  0.1744 -0.2116  0.0903
79962W        W23015  32.904  13.080   5.687  0.0862 -0.3334  0.3891
79963W        W23016  27.288   5.663  20.130  0.0819 -0.1247  0.1237
79964W        W23017  17.570  17.991   3.861  0.4169 -0.1616 -0.0471
79965W        W23018  20.090  23.102   9.739  0.2769 -0.0774  0.1035
79966W        W23019  15.788  32.214  25.223  0.1875  0.0205 -0.2086
79967W        W23020   3.755   9.518   9.110  0.0941 -0.0870 -0.0788
79968W        W23021   4.472  12.142  19.737  0.2942  0.3232  0.0048
79969W        W23022  23.305  11.006   4.792 -0.0961 -0.1994 -0.1298
79970W        W23023  26.653  18.951  17.736  0.0368  0.1615  0.1534
79971W        W23024  12.247  16.075  22.452 -0.0835 -0.0558 -0.0812
79972W        W23025  14.753  31.740   8.060  0.1240 -0.0447 -0.4866
79973W        W23026   9.072   7.470   9.681 -0.1383 -0.1446 -0.3724
79974W        W23027   3.264   8.031   3.269 -0.1891  0.1213 -0.1506
79975W        W23028   8.433  18.884  22.796 -0.3027 -0.0266 -0.2352
79976W        W23029  11.265   2.182   8.955 -0.3534 -0.1608  0.0876
79977W        W23030  25.122  16.627   5.605 -0.1429  0.2290 -0.0390
79978W        W23031  14.565   6.968   7.204  0.0574  0.0339 -0.2135
79979W        W23032  12.280   5.679  10.704  0.4012 -0.0325  0.5706
79980W        W23033  17.058  32.683  29.117 -0.1868 -0.2424  0.1087
79981W        W23034   7.323  12.271   6.671 -0.1880  0.0325 -0.0092
79982W        W23035  23.452   1.541  19.441  0.1588 -0.2579  0.2511
79983W        W23036  13.866  10.391   0.829 -0.0678 -0.1311  0.0141
79984W        W23037  14.196  20.626  25.970 -0.0121  0.0950 -0.0273
79985W        W23038  21.842  31.716   1.017  0.1566 -0.2114  0.0517
79986W        W23039   9.376  29.383  25.824  0.1630 -0.1217  0.3297
79987W        W23040  23.568  13.489   5.125  0.0991  0.2585  0.1318
79988W        W23041   6.574   1.604  16.973  0.0330  0.2052 -0.2678
79989W        W23042  29.444  11.259   0.523 -0.2224 -0.0923 -0.0229
79990W        W23043  13.105   3.060   2.740 -0.1659 -0.1335  0.2147
79991W        W23044  20.681  17.512   0.255 -0.0929  0.0139 -0.0400
79992W        W23045   4.494  22.280  27.207  0.1161  0.1713 -0.0647
79993W        W23046  11.591  10.909  24.663  0.0961  0.2623  0.1083
79994W        W23047   4.403   8.569   7.711  0.1144 -0.0815  0.2507
79995W        W23048  19.708   7.175  17.277  0.0835 -0.3390  0.0817
79996W        W23049   6.643   8.384   7.740 -0.0051  0.1142  0.0689
79997W        W23050   5.532   4.782   3.183  0.2071 -0.3193  0.2212
79998W        W23051  17.617  29.945   5.221  0.1372 -0.0557 -0.1018
79999W        W23052  13.695  34.640  28.671 -0.1079 -0.2441 -0.2328
80000W        W23053   6.279  12.647   7.229  0.0629 -0.1990  0.0820
80001W        W23054   1.590  34.565   4.673  0.2432 -0.1132 -0.1723
80002W        W23055   4.092  28.823  29.005 -0.0173  0.1799  0.2467
80003W        W23056   3.053   7.392   6.101  0.0404  0.1425  0.0374
80004W        W23057  34.355  18.256  20.092 -0.2146  0.2459  0.0026
80005W        W23058   9.430  19.303   1.348 -0.1168  0.0936  0.0489
80006W        W23059  16.757   7.289  26.826 -0.2307  0.2944 -0.0131
80007W        W23060  31.639   3.414   0.874 -0.1618 -0.2261 -0.0292
80008W        W23061  26.683  20.403  27.782 -0.0803  0.0734 -0.0027
80009W        W23062   6.704  16.799  23.360 -0.0643 -0.1398 -0.3298
80010W        W23063   3.605   3.966   9.573  0.1282 -0.3081  0.0116
80011W        W23064   3.508   7.790  17.708 -0.0177 -0.0883  0.0386
80012W        W23065   3.546  21.082  24.613  0.0411 -0.0530  0.3213
80013W        W23066  17.149  29.263   3.108 -0.0461  0.0458 -0.1094
80014W        W23067  19.984   3.036   3.849  0.2558 -0.0144 -0.1831
80015W        W23068  29.182  32.081   2.265 -0.1998  0.1067 -0.1656
80016W        W23069   7.938  21.505   5.209 -0.1943  0.3084  0.0847
80017W        W23070   0.659  13.829   3.024  0.1220 -0.1195 -0.0885
80018W        W23071  34.009  26.768   5.987 -0.1770  0.3669 -0.1425
80019W        W23072   5.644  26.743  22.130  0.1849  0.2594 -0.0766
80020W        W23073   8.077   2.274  26.904  0.0437  0.1887 -0.1426
80021W        W23074  27.022  29.135   6.497  0.2239 -0.2716 -0.0726
80022W        W23075  15.340   4.428   4.028 -0.2833 -0.4106 -0.1365
80023W        W23076   0.127  11.633   7.712 -0.0212 -0.1004 -0.0699
80024W        W23077   6.078  11.424  10.721  0.2583 -0.1072 -0.3779
80025W        W23078  16.739  14.921   5.685  0.0379 -0.0651 -0.0458
80026W        W23079  26.803   3.229   7.543  0.2778 -0.2242 -0.0074
80027W        W23080  13.405   6.393   6.153  0.2606  0.0182  0.4086
80028W        W23081  12.735  17.260   8.733  0.3003 -0.0285  0.1460
80029W        W23082   7.544   7.068   4.799  0.1489 -0.1844  0.0449
80030W        W23083  32.886   2.163   7.595  0.0166  0.0946 -0.3115
80031W        W23084   7.899  21.069  19.832 -0.0563 -0.1961  0.1901
80032W        W23085  23.775  29.486  10.072  0.0546  0.2518 -0.2353
80033W        W23086  27.775  24.799  10.413 -0.3756  0.1391 -0.0437
80034W        W23087   2.202   9.991   4.157 -0.3266 -0.0325 -0.0996
80035W        W23088   7.994  24.715   7.623 -0.0382 -0.2707  0.0726
80036W        W23089  12.531   2.159   1.156  0.2682 -0.2216 -0.0823
80037W        W23090  12.318   5.083  27.899 -0.0247  0.3810 -0.3092
80038W        W23091  33.984  16.835  15.108 -0.1508 -0.0838  0.3813
80039W        W23092  34.297  21.051  22.959  0.0250  0.0114  0.3718
80040W        W23093   6.906  22.678   7.627  0.2950 -0.1335 -0.1613
80041W        W23094  29.843   4.073  25.031 -0.0400  0.2315  0.0960
80042W        W23095   9.975  17.663   0.255  0.1041  0.2995 -0.4093
80043W        W23096  34.385  14.537  27.553  0.2439  0.3293  0.3913
80044W        W23097  30.893  34.668   3.888 -0.0856  0.0306  0.1118
80045W        W23098  26.464   7.253   5.266 -0.1708 -0.1205 -0.0097
80046W        W23099  16.331   6.412  25.650  0.2816  0.1698 -0.2159
80047W        W23100  29.561   9.816  24.888 -0.2417 -0.0969 -0.1013
80048W        W23101   5.702   3.238  26.811 -0.1732 -0.1850 -0.0827
80049W        W23102   4.087  23.132  20.279 -0.0742  0.0474 -0.2963
80050W        W23103  32.586   7.024   4.826  0.1845 -0.0938  0.1625
80051W        W23104   1.700  17.209  28.886 -0.0397 -0.1017  0.3703
80052W        W23105   7.415  13.311   6.976  0.2908  0.1742 -0.0044
80053W        W23106  16.066   9.422  28.022 -0.2663 -0.2427 -0.1781
80054W        W23107  15.609  13.773   2.467 -0.2237  0.3844  0.2359
80055W        W23108  14.469   5.903  26.275 -0.2739 -0.1061 -0.1632
80056W        W23109  21.955  11.907  24.269  0.3693  0.2332 -0.1005
80057W        W23110   0.034  33.192   8.472 -0.0344  0.1285  0.0386
80058W        W23111  13.307  18.221   9.981  0.0113 -0.1670  0.3898
80059W        W23112   8.299  11.427   0.656 -0.2248 -0.1025 -0.1000
80060W        W23113   0.283  24.944  26.644 -0.2049  0.1920 -0.3931
80061W        W23114  15.487  18.747   1.639  0.0014  0.2038  0.1904
80062W        W23115   8.174  14.232   4.500 -0.0965  0.2524  0.0860
80063W        W23116   0.521   6.198  25.165  0.0193 -0.0736  0.1189
80064W        W23117  10.226   5.713   7.199 -0.0191 -0.1334  0.1933
80065W        W23118   2.689  21.175  19.395  0.0585  0.1227  0.3562
80066W        W23119   2.474  13.431  23.901  0.1455  0.3527 -0.1304
80067W        W23120   9.611  19.709   4.399  0.0407 -0.2018  0.0766
80068W        W23121   8.301   6.250   0.156  0.0229 -0.3606 -0.0237
80069W        W23122   6.604   0.960   4.925  0.1126 -0.0549 -0.2483
80070W        W23123  12.984  33.665  23.611  0.0141 -0.2624 -0.1175
80071W        W23124  12.404  13.308   6.175  0.0692  0.0525  0.2967
80072W        W23125  17.699  24.041   0.289  0.3486 -0.2837 -0.1429
80073W        W23126   7.478   8.631   8.163  0.4534  0.2587  0.0430
80074W        W23127  33.291   9.206  28.138 -0.2037  0.3246 -0.0671
80075W        W23128  13.569  23.883   6.372  0.0748  0.3120  0.0747
80076W        W23129  14.606   2.119   2.029 -0.0040 -0.4711 -0.1999
80077W        W23130  26.911  10.795   1.637  0.0017  0.0602 -0.2392
80078W        W23131  32.018  13.455  22.136  0.2914 -0.0415  0.3571
80079W        W23132  16.517  26.987  18.333 -0.0637  0.0153 -0.2228
80080W        W23133  11.959  18.129   1.669  0.1568  0.4130 -0.1095
80081W        W23134  12.473   8.892  24.270 -0.3017  0.2884 -0.2777
80082W        W23135   1.244   0.603  25.197  0.1092 -0.1066 -0.1731
80083W        W23136   9.493   8.324   4.304  0.1586 -0.2585  0.0279
80084W        W23137   6.619  15.779   2.674 -0.1359  0.0591  0.0786
80085W        W23138  28.377  19.680  20.203  0.0165  0.1283  0.0196
80086W        W23139  20.185   8.155   7.926 -0.1357  0.0366  0.1665
80087W        W23140  15.364  12.914   3.638  0.2992 -0.1702 -0.1518
80088W        W23141   3.291  16.062  17.210  0.1308  0.1257 -0.1322
80089W        W23142  34.416   5.395  25.851  0.1117 -0.1143  0.1876
80090W        W23143  12.269   8.156  25.185  0.1220 -0.1103 -0.2038
80091W        W23144   9.722  23.354  16.695 -0.1803 -0.0844  0.2854
80092W        W23145  28.438  10.219  23.480 -0.1871 -0.2950  0.0689
80093W        W23146  11.750  30.193   3.811  0.0856 -0.0101 -0.1119
80094W        W23147  21.069  10.474  14.896  0.1338 -0.2385  0.0822
80095W        W23148  14.417   0.340  22.505 -0.3081 -0.1474 -0.2851
80096W        W23149   8.809   3.776  22.073 -0.1744  0.2214 -0.0865
80097W        W23150  29.297  25.407   9.882 -0.4557 -0.1809 -0.0245
80098W        W23151  11.544  17.565  20.854  0.2021 -0.0359 -0.1113
80099W        W23152   8.724  21.883   3.174  0.0317 -0.2551 -0.0048
80100W        W23153  22.745  10.311   6.193 -0.1479  0.2390  0.2992
80101W        W23154  10.876  32.055  20.420  0.3213 -0.1508  0.2062
80102W        W23155  13.152  30.020   9.003 -0.0695 -0.2133  0.3292
80103W        W23156  12.568   0.847   9.819  0.3674  0.1245 -0.3729
80104W        W23157  23.464   1.344  28.472 -0.1005  0.0043 -0.0097
80105W        W23158  12.541  22.794   7.934  0.2516 -0.2094  0.0263
80106W        W23159  16.407  21.733  14.605 -0.0887  0.5222  0.1419
80107W        W23160   3.672  33.159  28.170  0.2692 -0.2211 -0.0299
80108W        W23161  22.652  32.215   4.990  0.1231  0.2217  0.2702
80109W        W23162  21.484  15.117  14.367 -0.2001 -0.0420  0.5800
80110W        W23163  30.897  25.133  24.162 -0.0905  0.0961 -0.3043
80111W        W23164   8.190   4.580   8.910 -0.5997 -0.0740  0.0942
80112W        W23165  10.328  24.255  26.488  0.1852 -0.1940  0.3503
80113W        W23166  13.030   7.072   3.318  0.0127 -0.2828 -0.1829
80114W        W23167  25.696  12.292  26.184  0.2684 -0.0426 -0.2644
80115W        W23168   8.721   7.023  19.923  0.3769 -0.1433 -0.1162
80116W        W23169  13.635  14.091  24.779  0.1461 -0.0444  0.1027
80117W        W23170  11.877  11.651  26.913 -0.2927  0.3102 -0.1935
80118W        W23171  25.987   2.475   9.944 -0.2438 -0.3135 -0.2328
80119W        W23172  16.006   5.611   4.534  0.0351 -0.0984  0.1113
80120W        W23173  33.847  25.034   0.987  0.0687  0.0614 -0.1780
80121W        W23174  12.705   3.195   6.085  0.6621 -0.1373 -0.0163
80122W        W23175   1.816  10.457   3.903 -0.3281  0.0655 -0.0491
80123W        W23176   9.736   5.050  21.605 -0.2550 -0.1291  0.0246
80124W        W23177  11.831   4.758  23.025  0.1230 -0.1832  0.1677
80125W        W23178   6.605  17.399  27.176 -0.0677 -0.1282  0.2244
80126W        W23179   6.404  25.642   1.227 -0.1865  0.1917 -0.1002
80127W        W23180  33.919  10.348   9.447  0.2775 -0.0652  0.1916
80128W        W23181  13.580   4.774   1.370 -0.0946 -0.1287 -0.0626
80129W        W23182   0.326  33.030  27.767  0.2741  0.0885 -0.3408
80130W        W23183  10.250  18.514  23.781  0.0358  0.1388  0.0203
80131W        W23184   3.600  14.169   0.388 -0.3361 -0.0983  0.1999
80132W        W23185   9.076   9.905   0.548  0.1560 -0.3344  0.2785
80133W        W23186   3.254  23.244   8.376 -0.3261 -0.0912  0.3401
80134W        W23187  34.480  28.253   4.630  0.0968  0.1688  0.0387
80135W        W23188  11.501   2.040   7.271  0.1234 -0.0617 -0.2559
80136W        W23189  25.473  20.729  13.938 -0.2806 -0.1929  0.1511
80137W        W23190   4.454   9.222   7.857  0.1223 -0.1491 -0.1687
80138W        W23191  11.405  13.801   9.261 -0.1395 -0.1425  0.1845
80139W        W23192  15.225  10.070   0.880  0.3084 -0.3905 -0.1437
80140W        W23193  21.563   6.534  17.506 -0.3602 -0.0958 -0.4340
80141W        W23194  28.362  10.028  25.007  0.1306 -0.0636 -0.0213
80142W        W23195   0.495   5.319   6.363  0.0465 -0.1905  0.1549
80143W        W23196   3.721   6.507  28.055 -0.2186 -0.0003  0.3535
80144W        W23197   4.950  13.145   9.313 -0.0275 -0.2636  0.0234
80145W        W23198  15.515  25.561   6.706 -0.2198 -0.4352 -0.1243
80146W        W23199   3.877   0.233   7.959  0.0118  0.0830 -0.0892
80147W        W23200   0.112  14.538   0.833  0.1500  0.0507 -0.1828
80148W        W23201   5.065   1.324  24.787 -0.2687  0.0212  0.2868
80149W        W23202   7.851  15.001  26.961  0.0039  0.2934 -0.0040
80150W        W23203  33.126  17.442  14.996 -0.2352  0.2773 -0.3440
80151W        W23204  19.169   7.625   6.280 -0.1852  0.1821 -0.2290
80152W        W23205   1.377  20.693   7.395  0.0218 -0.1907  0.0115
80153W        W23206  20.457   6.291  15.236  0.3428 -0.2146 -0.0134
80154W        W23207   9.669  20.023  21.151 -0.0200 -0.1747  0.2576
80155W        W23208   7.143  24.175   4.837 -0.2290 -0.0497 -0.0181
80156W        W23209   2.535   5.842   0.855  0.0492 -0.2603  0.2252
80157W        W23210  16.804  15.219  26.579  0.1513 -0.1276  0.0754
80158W        W23211  13.017  22.583   4.453  0.1451  0.1803 -0.0315
80159W        W23212  21.118  22.307  28.415 -0.1705 -0.1088  0.0009
80160W        W23213  11.384  14.760  19.921 -0.5488  0.2044  0.0825
80161W        W23214   9.530   6.929  28.923  0.0257 -0.0441 -0.1422
80162W        W23215  14.406  24.321  26.260 -0.1987 -0.0571 -0.0949
80163W        W23216  18.677   4.004  17.293 -0.2305  0.0169 -0.2504
80164W        W23217   3.137  10.951  24.831 -0.0378  0.0530  0.1487
80165W        W23218  11.389   4.892  29.103 -0.3013  0.1864 -0.2049
80166W        W23219  22.247   9.372  23.463  0.1431 -0.0674  0.1190
80167W        W23220  21.755   5.987  21.827  0.1096  0.4551  0.0779
80168W        W23221   7.923  32.901  25.025  0.0084 -0.0045 -0.0539
80169W        W23222   8.466  22.405  24.792  0.0237 -0.3257  0.0121
80170W        W23223  32.310  11.452  27.284  0.0802  0.0662  0.2739
80171W        W23224  13.837   1.165   0.847  0.3486 -0.2199  0.0086
80172W        W23225   0.578   3.597  25.753 -0.2538 -0.1194  0.2535
80173W        W23226  30.473  22.212   6.617  0.0775 -0.1750 -0.1197
80174W        W23227  12.751   8.382   0.136  0.3037 -0.0962 -0.3588
80175W        W23228  12.465   7.604   4.813  0.1610 -0.0949 -0.0406
80176W        W23229  11.749   2.491   3.802 -0.2631  0.5083 -0.0609
80177W        W23230  11.776  16.530   1.169  0.1811  0.0146 -0.2731
80178W        W23231   6.919  29.590   4.983 -0.1791 -0.0142 -0.1946
80179W        W23232  18.178   3.995   7.808  0.2576 -0.2385 -0.0311
80180W        W23233  18.984  16.629   6.062  0.2260  0.3164 -0.1591
80181W        W23234  19.808   6.797   7.936 -0.0586 -0.2550 -0.1181
80182W        W23235  16.930  13.878  22.078 -0.2069  0.0482  0.0583
80183W        W23236  34.092  10.850  29.078 -0.1994 -0.2779 -0.0471
80184W        W23237   8.742   3.855   2.032 -0.1954  0.1042 -0.0612
80185W        W23238  13.873   9.009  20.464 -0.4252  0.1131 -0.1557
80186W        W23239   0.683   9.887  27.656 -0.0809 -0.1108  0.0313
80187W        W23240   6.082   8.228   1.385  0.0407 -0.0161 -0.0984
80188W        W23241  24.000   7.042   3.581  0.4867  0.3990  0.0841
80189W        W23242   8.549  10.835  23.732  0.3666 -0.2226 -0.0514
80190W        W23243  32.801  15.837   8.942 -0.2296 -0.1531  0.0780
80191W        W23244  16.862  20.374  13.489  0.3144 -0.0288  0.0677
80192W        W23245   9.977  12.362   4.365  0.2003  0.0116 -0.2271
80193W        W23246   6.415  14.874  27.930 -0.1060  0.0471 -0.3248
80194W        W23247  11.425  15.067   3.681 -0.1516  0.1950 -0.0447
80195W        W23248  28.733  24.460  28.827  0.0619  0.0998 -0.0513
80196W        W23249  27.799  30.921  16.537 -0.2387  0.2684  0.1161
80197W        W23250  28.119   8.030  21.771  0.1362 -0.2330 -0.0069
80198W        W23251  29.412  11.310  20.943  0.2828 -0.1231  0.4420
80199W        W23252  22.639  17.073   7.186 -0.3237  0.2072  0.0411
80200W        W23253  10.568   5.188   5.276 -0.1320 -0.1537  0.1611
80201W        W23254  29.633  11.571   2.717 -0.0396  0.0147 -0.0543
80202W        W23255  26.411  27.690  10.076  0.1486 -0.0660 -0.0263
80203W        W23256  21.523  15.908   8.828 -0.1737 -0.2637 -0.1261
80204W        W23257  22.480  21.659  18.008 -0.0516  0.3783 -0.2426
80205W        W23258  34.050  20.004   8.569  0.1387 -0.0673 -0.3062
80206W        W23259  14.711   7.779   4.479  0.2338 -0.1551  0.1376
80207W        W23260  31.373  20.812   8.010  0.1628 -0.0494 -0.3161
80208W        W23261  15.524  29.519   9.469 -0.0657 -0.1490 -0.1033
80209W        W23262  12.074  12.975  28.198 -0.1822 -0.3535  0.0035
80210W        W23263  27.068  22.187   1.243 -0.2241 -0.0955  0.0139
80211W        W23264   1.077   3.486   9.314  0.1289  0.0446 -0.0325
80212W        W23265  17.361  18.141  25.653 -0.0027 -0.2676  0.0154
80213W        W23266  33.614  14.089  26.274  0.3332 -0.3644  0.1483
80214W        W23267  30.009  11.792   5.776 -0.3156  0.0317 -0.1348
80215W        W23268   1.535  31.718   7.624 -0.1147 -0.0059 -0.1457
80216W        W23269  27.422  32.660   9.265  0.1925 -0.4514 -0.0827
80217W        W23270  21.580   7.198   3.089 -0.0905  0.1531  0.0791
80218W        W23271  29.822  26.994  23.203  0.0468 -0.0515 -0.0478
80219W        W23272  30.086  23.053   1.735 -0.1166  0.0808  0.0338
80220W        W23273  11.646  20.870   8.076 -0.1254  0.2964  0.4313
80221W        W23274   4.547  33.752   7.401  0.0656 -0.2744 -0.3706
80222W        W23275  10.490  15.192   5.504  0.0879 -0.0616 -0.0530
80223W        W23276  11.697  17.815  23.157 -0.1522 -0.1270 -0.2401
80224W        W23277  12.942   7.924   5.093 -0.0050  0.1333 -0.4211
80225W        W23278   1.158  12.227   4.155  0.1100 -0.0961  0.0794
80226W        W23279   0.149  18.109   4.068 -0.1041  0.0979  0.0005
80227W        W23280  27.651  15.433   5.071 -0.1402 -0.0238 -0.1174
80228W        W23281  16.327  20.916   2.853 -0.1343  0.0824 -0.1250
80229W        W23282  10.334  13.107   0.846  0.3650 -0.1753 -0.1541
80230W        W23283  31.746  11.903  18.260  0.1409 -0.2396 -0.2858
80231W        W23284   7.582   9.869  15.923 -0.1154 -0.2808 -0.0030
80232W        W23285  13.381  29.877   5.022 -0.0818  0.0030  0.2397
80233W        W23286  12.436   1.033   5.547  0.4230  0.0789  0.1839
80234W        W23287   6.446  22.753  21.131 -0.0620 -0.3597 -0.0761
80235W        W23288  13.836   9.638   2.923  0.2709  0.0233  0.2446
80236W        W23289   5.959   7.397   9.401 -0.0779 -0.0159 -0.0212
80237W        W23290   7.934  21.440  20.918  0.4010  0.0072 -0.1345
80238W        W23291  15.708  15.105   2.433 -0.1683  0.4985 -0.1397
80239W        W23292  19.262   7.676   3.643 -0.1192 -0.2433 -0.1932
80240W        W23293  31.826  16.333   8.140  0.0272 -0.0666  0.2372
80241W        W23294  25.125  21.376  17.221 -0.1302 -0.0305 -0.2152
80242W        W23295  31.614  20.614   5.901 -0.0158  0.0768 -0.2811
80243W        W23296  23.304  14.807   0.217  0.0993  0.0431  0.2403
80244W        W23297   1.941  29.510   7.191  0.0338 -0.2102 -0.0647
80245W        W23298   7.028  18.625  19.833  0.2445  0.1587  0.0377
80246W        W23299  29.421   9.675   1.624 -0.2659 -0.1777 -0.3385
80247W        W23300  14.814  11.625  16.649  0.2099  0.1322  0.0482
80248W        W23301   2.235  17.683  26.827 -0.0651  0.3007  0.1924
80249W        W23302  26.097  32.003   7.441 -0.1061  0.0422 -0.1308
80250W        W23303   1.810  26.210  18.311  0.2392  0.0086 -0.3944
80251W        W23304  14.190  34.610  16.148 -0.0795 -0.1446  0.0958
80252W        W23305  13.385  22.496   2.775  0.4537  0.0079 -0.3894
80253W        W23306   5.752   6.548   4.360 -0.1054 -0.2961 -0.0971
80254W        W23307  16.899  10.718  26.391  0.0297  0.2803 -0.0800
80255W        W23308   2.499  27.858   9.781 -0.1310 -0.0480  0.0103
80256W        W23309   9.465  10.165   4.249 -0.2134 -0.2261 -0.4027
80257W        W23310  15.425  10.850   1.832 -0.0517  0.0370  0.0136
80258W        W23311   5.566  12.436  21.723 -0.2162 -0.0075  0.0463
80259W        W23312  31.356   3.993   3.678 -0.2207  0.1224 -0.1206
80260W        W23313   8.561   0.530  27.530  0.0062  0.0970  0.1373
80261W        W23314  29.187  13.828   8.359 -0.0521 -0.0512  0.0592
80262W        W23315  31.991  21.166   2.733  0.0766  0.3073 -0.3184
80263W        W23316  19.695  15.010   4.026  0.1706  0.2707  0.1717
80264W        W23317  23.190  21.141  26.688 -0.1912 -0.4648 -0.0980
80265W        W23318  33.991   1.456  27.090 -0.0363  0.1613 -0.2161
80266W        W23319   5.097  28.079   2.314  0.0719 -0.0909  0.2229
80267W        W23320   6.019  20.412   8.468 -0.0075  0.0636  0.2024
80268W        W23321  27.923  11.410  19.957  0.0636  0.1999  0.2636
80269W        W23322   4.072  28.730   9.846  0.0938  0.4311 -0.0339
80270W        W23323  23.256  17.174  25.723 -0.2962  0.1195  0.0600
80271W        W23324   6.725  29.661  18.823 -0.0063 -0.2030 -0.2692
80272W        W23325  18.609  15.635   6.327 -0.1127  0.1072 -0.0711
80273W        W23326  19.733   9.608  10.134  0.2916  0.3697 -0.4411
80274W        W23327  11.637  11.577   1.947 -0.3014 -0.3519  0.2210
80275W        W23328  14.221  25.998   6.686  0.2545 -0.2436 -0.0465
80276W        W23329   2.982  11.564  23.873 -0.1422 -0.1135 -0.0860
80277W        W23330   3.987  24.601   8.070 -0.1560  0.0165  0.2057
80278W        W23331  11.696  32.620   4.196  0.0131 -0.3997  0.1506
80279W        W23332  16.051  16.401  25.401 -0.0027  0.0335 -0.2510
80280W        W23333   1.836  32.354  18.366 -0.0244  0.1616  0.0121
80281W        W23334  31.374  22.723   8.694 -0.2243  0.0955  0.5329
80282W        W23335   6.894  12.190   8.098  0.0674 -0.3401 -0.3570
80283W        W23336   0.131  25.677  25.420 -0.1367 -0.0882 -0.3500
80284W        W23337   9.189  22.519  23.517  0.1340  0.0861 -0.1284
80285W        W23338  26.819  21.727  21.542 -0.2685 -0.1790 -0.0185
80286W        W23339  13.240  11.515   1.995  0.2271 -0.1710  0.0412
80287W        W23340   7.546  33.666   5.665  0.0327  0.1563  0.4411
80288W        W23341  22.807  15.586   7.435 -0.3485  0.0737  0.0511
80289W        W23342   5.498  16.575   7.710 -0.1948  0.1635  0.0199
80290W        W23343  11.880  28.692   5.803 -0.1020  0.1254 -0.2738
80291W        W23344  12.039   6.591  21.271 -0.0035 -0.1844  0.3187
80292W        W23345   9.965  15.997  26.810  0.0198 -0.0538  0.0589
80293W        W23346   3.249  10.890  15.162 -0.0118  0.2531  0.3338
80294W        W23347   3.021  22.607   5.102 -0.5312  0.1691 -0.0711
80295W        W23348  31.764  12.538  23.662 -0.3441  0.4364  0.0663
80296W        W23349  18.132  12.402   8.147  0.0808 -0.1280  0.3259
80297W        W23350  24.046  15.004   6.359 -0.3512  0.0564 -0.2606
80298W        W23351   9.950  21.178  28.522 -0.0254 -0.1481 -0.1676
80299W        W23352   9.432  10.153  25.491  0.1288 -0.0069  0.3265
80300W        W23353  11.493  33.917  23.986  0.5368 -0.0763  0.1318
80301W        W23354  29.111  13.778   2.527  0.0356 -0.3858  0.1958
80302W        W23355   1.873  10.966  27.851  0.0512 -0.0022 -0.0097
80303W        W23356   5.849  16.098  24.185 -0.3219 -0.1792  0.1857
80304W        W23357  14.711  11.099   0.354  0.1267 -0.1986 -0.0639
80305W        W23358  15.285  22.622   2.086  0.2323  0.2948 -0.1303
80306W        W23359  25.915  14.658   6.203 -0.1967 -0.2633 -0.0375
80307W        W23360  33.825  11.402  18.445 -0.0869 -0.3338  0.2335
80308W        W23361  16.919   9.145   2.076 -0.0326 -0.1114  0.0740
80309W        W23362   5.286   9.145   6.475 -0.0811  0.2345  0.1232
80310W        W23363   8.463   9.339   1.326 -0.3444 -0.0622  0.1631
80311W        W23364   4.430  30.256   1.415 -0.5538 -0.0773  0.1313
80312W        W23365  18.553  12.692   5.178  0.1434  0.0691  0.1947
80313W        W23366  27.453  18.607   7.560 -0.0739  0.1619 -0.1941
80314W        W23367  12.938  25.677   9.967 -0.0827 -0.1881 -0.0372
80315W        W23368  34.311  26.071  26.743  0.0661 -0.1272  0.0070
80316W        W23369   8.046  32.642   4.306 -0.0597 -0.1059  0.1193
80317W        W23370  18.812  10.480  21.541 -0.0927 -0.1776 -0.0553
80318W        W23371   7.971   4.021  21.955  0.2021  0.1530 -0.2494
80319W        W23372  10.633  26.868   0.956 -0.0132 -0.4095  0.0052
80320W        W23373  34.162  13.883   5.426 -0.0891 -0.4082 -0.0637
80321W        W23374  10.680  15.873   2.414  0.0608  0.0391 -0.1641
80322W        W23375   9.247  14.209   5.758 -0.3596  0.2331  0.2081
80323W        W23376  22.200  25.847  22.366 -0.1554  0.1021 -0.2223
80324W        W23377  10.266  13.597   5.915  0.2709 -0.0190 -0.3418
80325W        W23378   9.238  31.127   6.049 -0.1234 -0.1370 -0.0659
80326W        W23379  19.494  18.579   4.638  0.1674  0.2817 -0.0596
80327W        W23380   0.853  11.912   8.447 -0.0580  0.0989  0.0623
80328W        W23381  19.439  26.382   4.872  0.3439 -0.3400 -0.1762
80329W        W23382  20.302   0.184  23.522  0.4057  0.1591 -0.2703
80330W        W23383   1.049  15.934   8.537 -0.1715 -0.3074  0.2676
80331W        W23384  21.527   9.428   8.280 -0.0001 -0.2809  0.0763
80332W        W23385  27.730   8.372  17.572  0.1393 -0.3498 -0.2873
80333W        W23386  21.003   7.014  17.259 -0.0573  0.1391  0.1343
80334W        W23387   8.367  22.328   7.452 -0.1943 -0.3242 -0.1503
80335W        W23388  23.551  10.762   0.865  0.2966  0.0448 -0.1904
80336W        W23389  16.902  31.121  24.966  0.0915 -0.1566  0.0397
80337W        W23390  11.333  27.963   2.710 -0.1269  0.1020 -0.1252
80338W        W23391  10.520  21.158  23.897  0.0256 -0.2432  0.0916
80339W        W23392   4.895   1.218   3.584 -0.1749 -0.1447  0.0346
80340W        W23393   9.104  20.148   1.892 -0.0567 -0.0855 -0.0653
80341W        W23394  18.643   8.504  24.958 -0.2336  0.0676 -0.0701
80342W        W23395   8.983  15.109   0.665 -0.1060 -0.2568  0.0198
80343W        W23396   7.596  25.493   6.743  0.0827 -0.0765 -0.1094
80344W        W23397   2.282  15.159   3.158  0.2275 -0.1335 -0.0231
80345W        W23398  26.147  15.208  25.573  0.1445  0.0339 -0.0540
80346W        W23399  15.282   1.001  18.728  0.2712  0.0880 -0.6423
80347W        W23400   5.643  27.071   5.812 -0.1097 -0.0162 -0.0606
80348W        W23401  10.678   6.317  26.736  0.3219  0.1153 -0.1325
80349W        W23402  33.179   8.915  23.596 -0.1380  0.0745 -0.1900
80350W        W23403  12.396   7.267  15.059 -0.2138 -0.2793  0.0827
80351W        W23404   7.232  21.354   6.304 -0.1383 -0.1860  0.0160
80352W        W23405  16.171   6.456  18.639  0.1995 -0.3463 -0.1255
80353W        W23406   5.309  10.089  28.808  0.0578 -0.0936  0.1264
80354W        W23407  30.190   1.260   1.175  0.2501  0.2161 -0.1265
80355W        W23408  15.797   6.139   8.217  0.1704 -0.1354  0.2919
80356W        W23409   5.666  32.111   7.488  0.3042  0.2052  0.1311
80357W        W23410  19.157  32.295  23.255 -0.1445  0.0639 -0.0501
80358W        W23411  33.437   6.314  14.382 -0.0102  0.1248 -0.3309
80359W        W23412   6.861   2.946   4.111  0.0775  0.0097 -0.0586
80360W        W23413  13.011  31.530   8.407 -0.1211  0.1712 -0.0086
80361W        W23414  25.223  12.858  28.909 -0.0264 -0.1610 -0.1177
80362W        W23415  25.047  30.707   5.244 -0.0420  0.0157  0.1986
80363W        W23416   9.084  14.967   5.335  0.3982  0.1968  0.2139
80364W        W23417  16.214  14.554  10.166 -0.1445  0.4389  0.1661
80365W        W23418   5.637  12.374   5.720  0.0262  0.3213  0.1205
80366W        W23419  33.644   2.712   7.722  0.1609 -0.2367  0.2413
80367W        W23420   6.889  13.210   9.481  0.1758  0.2686  0.1119
80368W        W23421  22.009   9.129  22.989 -0.3809 -0.0233 -0.2953
80369W        W23422  34.583  14.088   2.463  0.0656  0.0326 -0.2474
80370W        W23423  20.957  15.811   3.418 -0.0284  0.1386 -0.1187
80371W        W23424   3.183   6.290  26.895 -0.0328 -0.2047  0.1576
80372W        W23425   4.510  11.855  10.274 -0.1260  0.1022 -0.0738
80373W        W23426  26.205  16.149   5.156  0.1568  0.2279  0.0637
80374W        W23427  13.282  13.036  27.744 -0.2852  0.0426  0.1305
80375W        W23428   5.256  19.477   4.037 -0.1342  0.1580  0.2473
80376W        W23429   0.698  11.605   4.340 -0.2449  0.0312  0.0577
80377W        W23430  16.868  21.051   4.541 -0.0762  0.1247 -0.0068
80378W        W23431  12.236   8.314   3.802  0.0850  0.2282 -0.2542
80379W        W23432   5.307   5.161   6.936  0.0127  0.0900 -0.0300
80380W        W23433   8.269  17.121  25.853  0.4071  0.1037  0.2405
80381W        W23434  27.101  14.523   5.025  0.2114  0.0845 -0.1810
80382W        W23435  30.791  24.074   5.794 -0.0551 -0.0776  0.1012
80383W        W23436   5.270  16.036   7.969 -0.0711 -0.0974  0.0142
80384W        W23437   8.013  28.032  18.757  0.0286 -0.0950 -0.1047
80385W        W23438  10.406  12.576   8.565 -0.1951 -0.0246  0.1491
80386W        W23439  10.969  25.417  28.809  0.1925  0.0772  0.2892
80387W        W23440  11.959  16.382  19.521 -0.2347  0.1020  0.2607
80388W        W23441   5.077  29.921   1.448  0.0611  0.2629 -0.0065
80389W        W23442   4.409  34.102  26.559  0.0447  0.0339  0.4153
80390W        W23443  33.127  31.098  26.208  0.0413  0.1031 -0.1635
80391W        W23444  17.815  16.030   4.431 -0.1376 -0.1674  0.1812
80392W        W23445  16.064   7.759   2.489 -0.0888 -0.2092 -0.4235
80393W        W23446   7.569  29.434   4.342  0.0796  0.1248 -0.0619
80394W        W23447  19.572  28.534  28.455  0.1803 -0.0146  0.0893
80395W        W23448  16.279  18.825   8.884 -0.3353  0.1038 -0.0115
80396W        W23449  12.615  12.008   8.981 -0.2133  0.1472  0.4131
80397W        W23450  18.962  13.656  10.084  0.0100 -0.0723 -0.1526
80398W        W23451   4.166   4.694   5.427  0.1054  0.1191  0.0010
80399W        W23452   2.736   3.584   2.209  0.0204 -0.0427  0.2538
80400W        W23453   3.810   7.311  10.564  0.3524  0.2272  0.1430
80401W        W23454   9.590  31.859   3.751 -0.1370 -0.2642  0.1814
80402W        W23455   4.407  10.717   1.758 -0.1851 -0.1263  0.1468
80403W        W23456   2.978   8.341   9.390 -0.3181 -0.1722  0.1441
80404W        W23457  11.335  33.813  27.137  0.2562  0.0823  0.2555
80405W        W23458  12.517  12.079   4.788  0.0123  0.0653  0.1994
80406W        W23459   0.664   3.936  26.195  0.0002  0.0089 -0.1242
80407W        W23460   4.230  10.058   7.031  0.1068 -0.0304  0.0497
80408W        W23461  14.283  18.457   7.249  0.1974  0.2621 -0.0440
80409W        W23462   0.051   7.773  23.329 -0.2973 -0.0979  0.3422
80410W        W23463   5.816   9.233   4.928 -0.0948 -0.2617 -0.2479
80411W        W23464   1.042  10.448   1.415 -0.2795  0.3978 -0.0411
80412W        W23465   1.820  20.923   8.261 -0.1226 -0.0680 -0.0255
80413W        W23466  20.540  17.544  22.376 -0.0867  0.0412  0.0177
80414W        W23467  22.192  21.019   1.355 -0.1211  0.1540 -0.0887
80415W        W23468   7.095   7.390  23.886 -0.2363 -0.2704  0.1247
80416W        W23469   6.550   7.726  23.165 -0.0470  0.1885 -0.1041
80417W        W23470   5.277  28.640  22.741 -0.1827 -0.0574  0.1048
80418W        W23471  22.942  23.629   7.071 -0.2420 -0.0277 -0.3643
80419W        W23472   6.760  19.023   9.509  0.1510  0.1646 -0.2178
80420W        W23473   9.821  24.038   1.238  0.0311 -0.2627 -0.2175
80421W        W23474  17.453  15.907   4.939  0.3012 -0.0171  0.0238
80422W        W23475  30.951  32.586  25.975 -0.1387  0.1399  0.2759
80423W        W23476  10.949  18.418  28.995 -0.0639 -0.3227 -0.0430
80424W        W23477  12.315  19.450   8.968  0.1083  0.1158  0.1445
80425W        W23478   1.719  32.100   9.754  0.1908  0.1224 -0.0661
80426W        W23479  12.856   7.961  29.152  0.2266  0.0024  0.3833
80427W        W23480   3.852   9.348   3.972 -0.1761 -0.1180 -0.0968
80428W        W23481  12.955   7.160   0.013  0.0829  0.1180  0.2563
80429W        W23482  29.462  14.992   8.221  0.2768 -0.0088  0.3303
80430W        W23483   0.563  30.820  28.326  0.0443  0.2123  0.0710
80431W        W23484  13.619  14.451  17.058  0.0597  0.1181 -0.0230
80432W        W23485  25.172   2.979  15.893 -0.0296 -0.3975  0.2922
80433W        W23486   5.031   1.109   5.992  0.1986  0.0626 -0.4708
80434W        W23487   7.153   2.683  27.877  0.1340 -0.2664  0.1363
80435W        W23488  17.765  31.801   0.274 -0.0606 -0.0555  0.2387
80436W        W23489  12.289  20.474   9.428  0.6185  0.0352  0.1224
80437W        W23490  20.144  16.137  23.707 -0.3669  0.0993  0.0538
80438W        W23491   9.552   1.159   1.266 -0.0865  0.0449 -0.2809
80439W        W23492   2.274  18.185   0.898  0.0950 -0.0888  0.3409
80440W        W23493   0.672   5.132   2.552  0.3030  0.1166 -0.0283
80441W        W23494  17.769  12.135   8.978  0.0886 -0.1057 -0.4599
80442W        W23495  18.282   4.745   7.590 -0.2357  0.0111 -0.1199
80443W        W23496   2.902  16.471   2.613  0.0346  0.3213 -0.3849
80444W        W23497   3.975  11.689   6.576  0.5028  0.0648  0.2783
80445W        W23498  34.578   1.813   2.720  0.0864  0.0304  0.0076
80446W        W23499  14.015  17.917   3.471 -0.3643  0.1607 -0.1626
80447W        W23500  15.370  23.454  27.481  0.1438  0.0602  0.1577
80448W        W23501   1.390  26.815  26.750  0.0964 -0.0713 -0.0477
80449W        W23502   1.497   0.310   0.528 -0.0403 -0.0325  0.2301
80450W        W23503   9.225   1.662  23.566 -0.1713 -0.4126 -0.0362
80451W        W23504  14.580   6.880   8.442  0.0913  0.0497 -0.0455
80452W        W23505   5.884  19.299  29.029  0.0283 -0.0802  0.3903
80453W        W23506  10.377  22.035   7.564  0.4468  0.1766 -0.2362
80454W        W23507   5.992  17.519   5.170 -0.0615 -0.0533  0.2014
80455W        W23508   9.341   4.032   4.442  0.0621  0.0623  0.1418
80456W        W23509  30.501  12.971  28.433 -0.0374  0.1509  0.1021
80457W        W23510   0.430  15.880  27.044  0.1220  0.1077  0.2131
80458W        W23511   8.717  10.466   3.364  0.0223 -0.2122 -0.4172
80459W        W23512   1.677   9.235   1.275  0.2544 -0.1851 -0.0581
80460W        W23513  16.531  17.146   7.698 -0.0351  0.2381 -0.0626
80461W        W23514   4.915  17.230   4.798  0.1339 -0.3243  0.0714
80462W        W23515  20.919   0.965   8.122 -0.0402  0.0684  0.0168
80463W        W23516   3.747  25.585   7.238  0.0196 -0.0259 -0.1144
80464W        W23517  30.350  15.883   5.174 -0.2947 -0.1026  0.0694
80465W        W23518  22.294   3.267   8.805  0.0692 -0.0717 -0.0104
80466W        W23519   0.455  22.809   0.094 -0.0905  0.0090  0.0899
80467W        W23520  14.839  27.321  26.997  0.2991  0.1890  0.0491
80468W        W23521   5.639  28.384   8.324 -0.0355  0.0828  0.3658
80469W        W23522   8.798   3.144  22.721 -0.0183  0.2400 -0.2091
80470W        W23523  14.652   8.427  28.406 -0.4266 -0.0058 -0.2509
80471W        W23524  10.137  25.500   7.333  0.2280  0.2559 -0.0989
80472W        W23525  34.192   8.877   7.913  0.0704  0.0407  0.0631
80473W        W23526   7.301   2.701  27.344  0.0198  0.1923 -0.1112
80474W        W23527  30.379  18.785   2.841 -0.2820  0.0864 -0.3329
80475W        W23528  10.773  21.757   5.728  0.1228 -0.1433  0.0696
80476W        W23529   5.202  14.252  19.817  0.0111  0.0676 -0.0455
80477W        W23530   4.165  25.849   9.622  0.1252 -0.1177  0.3143
80478W        W23531  16.921   2.826  21.340  0.0836 -0.5476  0.2461
80479W        W23532   6.069   4.365   1.373 -0.0877 -0.2070  0.1271
80480W        W23533   3.026   8.664   7.862 -0.1563  0.2197 -0.0659
80481W        W23534   9.315  11.196   4.376  0.2679 -0.0564  0.0393
80482W        W23535  21.040   2.371   7.933  0.0497  0.0195 -0.0815
80483W        W23536   7.824  18.468   5.566  0.0304  0.2267 -0.1030
80484W        W23537   0.838  15.223   6.183  0.0657  0.0048  0.1884
80485W        W23538  33.376   5.491   2.558  0.0822  0.1548  0.1200
80486W        W23539  17.767  33.467   6.649 -0.0654  0.1754 -0.2469
80487W        W23540   6.146  19.685   4.350 -0.1754  0.1017  0.3027
80488W        W23541  14.655  11.357  22.455 -0.2044 -0.0478  0.2597
80489W        W23542   1.591  13.773  24.116 -0.0006  0.0037 -0.1865
80490W        W23543   3.148  20.196   1.045  0.0492 -0.0481 -0.0194
80491W        W23544   0.837  33.679  27.900  0.0830 -0.0963 -0.0972
80492W        W23545   0.316  24.964   4.060  0.0801  0.2269 -0.1874
80493W        W23546   7.943  14.448   9.022  0.1040 -0.1520  0.0622
80494W        W23547  15.629  13.957   6.254  0.0085  0.1199 -0.4124
80495W        W23548  16.441  28.937   6.480 -0.0300  0.2680 -0.2675
80496W        W23549  13.631   7.894  22.402 -0.1147  0.0381  0.1736
80497W        W23550  18.788  12.262   4.477  0.2002  0.1092  0.0080
80498W        W23551  18.869  11.235   7.757  0.1803  0.2062  0.0249
80499W        W23552  12.178  15.431   0.177 -0.0721  0.0319 -0.0177
80500W        W23553   7.765  15.279   9.746 -0.0981 -0.1386  0.2232
80501W        W23554   9.521  18.143  26.640 -0.2983  0.2006 -0.0430
80502W        W23555   6.777  17.687  24.354 -0.0216 -0.1965  0.0637
80503W        W23556   0.768   9.470   2.724  0.0984 -0.2236  0.1800
80504W        W23557  24.575  18.392   3.378 -0.0573  0.0307 -0.1503
80505W        W23558  20.914  21.231   9.615  0.0790  0.1509  0.1920
80506W        W23559   2.079  34.295   8.970 -0.0595 -0.2149 -0.2154
80507W        W23560   9.917   1.823   9.613 -0.1177  0.1456  0.0154
80508W        W23561  14.243  21.012   1.808  0.0176 -0.0313 -0.4764
80509W        W23562  21.579  16.277   7.699  0.2834 -0.2835 -0.1773
80510W        W23563  34.315  29.022   5.278  0.0637 -0.0758 -0.0747
80511W        W23564   0.018   8.523  29.139 -0.3292  0.0887 -0.0694
80512W        W23565  28.236  12.697   4.985  0.2509  0.0396  0.1256
80513W        W23566  14.830   2.423   3.082  0.0261  0.1258  0.4091
80514W        W23567  19.932  19.308   4.555  0.0520 -0.1526  0.0632
80515W        W23568   5.970  23.822   5.183 -0.1070  0.2688  0.1421
80516W        W23569  13.858  14.709   4.621 -0.2873 -0.1240 -0.0870
80517W        W23570   5.005  12.289   6.852 -0.2040 -0.2503  0.1918
80518W        W23571   8.594  18.660   9.532  0.1464  0.0451 -0.0360
80519W        W23572   3.477  33.950  27.914  0.0316 -0.0866  0.1625
80520W        W23573   8.892   7.515  28.518 -0.1058 -0.2793 -0.0021
80521W        W23574   3.450  24.809  25.836 -0.3418 -0.1308 -0.1755
80522W        W23575   5.780  15.303  29.156  0.3512  0.3291 -0.1033
80523W        W23576  29.861   8.423   8.667 -0.1857 -0.1933  0.1173
80524W        W23577   6.204  32.130   0.222  0.1927 -0.0560  0.2376
80525W        W23578   2.253  22.476   8.291 -0.0012 -0.1997  0.0150
80526W        W23579   6.545  13.568   7.619  0.0274 -0.1065 -0.1348
80527W        W23580  10.875  16.428  10.157  0.0342  0.2406  0.0583
80528W        W23581  14.582  20.176  21.432 -0.0996 -0.0495 -0.0758
80529W        W23582   2.757  34.505  18.990  0.2444  0.3457 -0.1361
80530W        W23583  26.358  11.884   6.794 -0.0717 -0.0467  0.1132
80531W        W23584  18.236  10.570  24.699 -0.0275  0.3361 -0.1311
80532W        W23585  10.037   7.359   3.285 -0.1600  0.0907 -0.2782
80533W        W23586   8.225  11.853  10.399 -0.0690 -0.0468 -0.3230
80534W        W23587   3.331  14.888   4.169 -0.0327 -0.2511  0.1098
80535W        W23588  33.119  21.596   1.502 -0.0147  0.1802  0.2307
80536W        W23589   5.807   0.088   8.150 -0.1833  0.0363  0.0786
80537W        W23590  12.757   9.359  29.102  0.0044 -0.2388 -0.2115
80538W        W23591   7.709   7.534   4.580 -0.2383  0.0032 -0.0016
80539W        W23592   7.927  29.820   8.226  0.2221  0.0450 -0.3234
80540W        W23593  22.014   3.058   4.083 -0.1872  0.0274  0.3099
80541W        W23594  14.647  12.777   6.610  0.1594  0.0529  0.0365
80542W        W23595   5.413   1.830   0.578 -0.3653 -0.0777  0.2500
80543W        W23596   7.816   1.237   6.469  0.2351  0.1425 -0.0446
80544W        W23597   5.308  18.383   4.793  0.0565  0.2063 -0.1676
80545W        W23598  17.966  13.868   4.469 -0.1883  0.1028 -0.1351
80546W        W23599  14.291   2.655   7.295  0.1625  0.3215  0.0475
80547W        W23600  25.434  19.632   1.197  0.0377 -0.0688  0.0327
80548W        W23601   5.461  10.582  23.705 -0.1040  0.3335  0.1077
80549W        W23602   7.654  16.977   4.685  0.3807 -0.3161 -0.1730
80550W        W23603  13.782  12.621   2.484  0.1023 -0.0304  0.0042
80551W        W23604  34.542  17.282   3.591  0.1016  0.0819  0.0254
80552W        W23605  13.921  22.125   8.780  0.0775 -0.0425  0.0175
80553W        W23606  15.648   2.562  14.567  0.2980  0.0708  0.2725
80554W        W23607   0.679  28.930   7.988 -0.4576 -0.1034  0.3245
80555W        W23608   5.373  16.623   4.906 -0.2465 -0.0928  0.1422
80556W        W23609  34.162  18.766   4.951  0.1192 -0.1899 -0.1290
80557W        W23610  34.483  14.849  22.561 -0.1089  0.0203  0.1696
80558W        W23611  29.188   6.322  28.810 -0.3518  0.1925 -0.0509
80559W        W23612  32.760  13.750  27.135 -0.2489  0.0862 -0.1074
80560W        W23613   5.410  12.748   6.079  0.1557 -0.0286 -0.0040
80561W        W23614   4.254  16.198   7.734  0.0810  0.0763  0.3142
80562W        W23615   0.893  10.591   7.480 -0.2168  0.2621  0.1776
80563W        W23616   6.959   4.940   5.391 -0.2879  0.1719 -0.0231
80564W        W23617  16.249   3.614   3.512  0.1286  0.0635  0.2972
80565W        W23618  10.595  11.801   1.596  0.1289 -0.0727 -0.1366
80566W        W23619  17.981  10.108   5.989  0.1048  0.1999  0.0282
80567W        W23620  10.469  14.226   4.230  0.2938  0.1869 -0.2043
80568W        W23621  31.560  17.493  21.396 -0.0898 -0.4924 -0.0755
80569W        W23622   6.648  28.820   2.656  0.0250  0.1230 -0.0124
80570W        W23623  19.961  16.707   0.211 -0.2935 -0.1369  0.2264
80571W        W23624  19.777  14.964  22.385 -0.0628 -0.5444  0.0617
80572W        W23625   3.361  24.310   1.932 -0.0888 -0.1113 -0.3354
80573W        W23626  26.954   0.383   9.173 -0.1744 -0.0378  0.2237
80574W        W23627   7.602  12.162  10.169 -0.1799  0.0647  0.1508
80575W        W23628   3.619  13.317   5.280  0.1459  0.1063  0.1718
80576W        W23629  12.372   4.580  27.870  0.0666 -0.0985  0.2624
80577W        W23630  32.974  25.874   0.440  0.1077  0.0153 -0.0560
80578W        W23631   6.637  14.808  25.194  0.1330 -0.0509  0.0145
80579W        W23632  34.395  22.348  29.052 -0.0184 -0.3867  0.0198
80580W        W23633   6.817  15.751  26.209 -0.0548 -0.0426  0.1992
80581W        W23634  16.541   0.148  16.266  0.0323  0.1304  0.1807
80582W        W23635   3.822   8.867   4.836  0.2277 -0.0547 -0.0744
80583W        W23636  33.590   6.041  23.753 -0.1904 -0.0915 -0.0366
80584W        W23637  26.386  20.545   8.332 -0.1251 -0.2602 -0.0020
80585W        W23638  21.004  15.506   4.824  0.0849 -0.0990  0.1986
80586W        W23639  27.510  15.059   3.626 -0.3673 -0.1378 -0.3199
80587W        W23640  29.237   5.026   4.401 -0.1718  0.2472 -0.3821
80588W        W23641  32.005  13.426   1.376  0.0126  0.1490  0.2325
80589W        W23642   7.473   3.503  25.017 -0.0008  0.2190  0.0332
80590W        W23643  22.448  23.839  26.314 -0.3181 -0.1112 -0.1274
80591W        W23644   9.855  33.080   5.429  0.1168 -0.0367 -0.0473
80592W        W23645   4.312  29.435   9.813 -0.1070  0.0049 -0.0220
80593W        W23646  26.821   9.397   3.194  0.2206 -0.2223  0.1793
80594W        W23647  13.196   5.004   1.071  0.0031 -0.0363 -0.1169
80595W        W23648  13.995  27.975   8.447  0.1223 -0.0113  0.3603
80596W        W23649   2.127   6.684   7.922 -0.2966 -0.1369  0.2459
80597W        W23650  25.740  13.225   8.256  0.1716 -0.2113 -0.2956
80598W        W23651  14.269   3.289   8.131  0.0928  0.1503 -0.1582
80599W        W23652   6.550  17.885  15.250 -0.1631 -0.4833 -0.0314
80600W        W23653  29.208   1.208   7.695  0.0243 -0.0854  0.1634
80601W        W23654   3.493  13.375   7.834  0.4647 -0.1271  0.0570
80602W        W23655  12.492   2.768   2.645  0.0461  0.1581  0.1477
80603W        W23656  20.157  12.454   4.565  0.4278 -0.1775  0.1368
80604W        W23657  12.273  17.480   8.876 -0.1948  0.3880 -0.1538
80605W        W23658  17.332   9.265  24.583  0.0301  0.1872 -0.0942
80606W        W23659  11.599  16.518   6.099 -0.0982  0.1577  0.2161
80607W        W23660  14.688  12.410   2.844  0.2616 -0.2083 -0.1257
80608W        W23661   7.577   2.876   7.650  0.1494 -0.2916  0.1021
80609W        W23662   4.689  29.893   7.493 -0.0044 -0.2723  0.0068
80610W        W23663  33.497  17.132  24.822 -0.3373  0.4471 -0.0641
80611W        W23664   5.083  15.663  29.096 -0.2371  0.0778 -0.0657
80612W        W23665  12.217   5.573   8.234  0.0685 -0.2906  0.4328
80613W        W23666  10.264  30.176  27.579 -0.0374  0.0681  0.0252
80614W        W23667  22.942   4.740   4.431  0.1452 -0.3961 -0.0255
80615W        W23668   6.744  12.783   2.471  0.0271 -0.2229  0.1391
80616W        W23669  26.744  20.127   8.669  0.0003  0.0378  0.1194
80617W        W23670   6.527   3.717   4.964  0.1726 -0.1449  0.1572
80618W        W23671  13.643  12.755   5.855 -0.2018  0.0002 -0.2857
80619W        W23672  23.825   4.382  25.269 -0.1166 -0.1665  0.2235
80620W        W23673  10.669  10.447   7.393  0.0415 -0.4103  0.2206
80621W        W23674  12.350  30.474   2.248 -0.0501  0.0374 -0.1060
80622W        W23675   3.297  15.023   0.416  0.2377  0.2121 -0.6131
80623W        W23676  23.998  11.820   8.854  0.2733 -0.2931  0.0568
80624W        W23677  31.520   7.937  28.054 -0.1665  0.0807 -0.0680
80625W        W23678  15.417   5.153   5.245  0.1923 -0.2950  0.0183
80626W        W23679   3.096  20.435  28.236  0.2072  0.1414  0.2629
80627W        W23680  11.222   8.855  21.255  0.0377 -0.0476  0.4928
80628W        W23681  11.550  14.909  27.963  0.0465  0.0386  0.0699
80629W        W23682   1.283  17.566   2.444 -0.1186  0.6582 -0.4563
80630W        W23683  16.962  22.074  28.918 -0.0180  0.4447 -0.0387
80631W        W23684  22.313  21.641   4.758 -0.0016  0.0023 -0.1305
80632W        W23685  33.816  18.188   6.253 -0.2786 -0.0222 -0.1285
80633W        W23686   1.873  16.022  26.041  0.0616 -0.0416  0.0473
80634W        W23687   4.019  18.149  24.306  0.0461  0.2538  0.0261
80635W        W23688   7.507  19.619   5.339  0.2135 -0.1309 -0.4887
80636W        W23689  16.715  24.944   8.671  0.2160  0.0869 -0.1527
80637W        W23690  29.878  25.423   2.776  0.1397 -0.0834  0.0092
80638W        W23691   9.362  10.629   9.074  0.1335  0.1173 -0.0435
80639W        W23692   7.064  10.787  21.379  0.0783  0.0386  0.1527
80640W        W23693   4.595   7.775   2.981  0.3991  0.1095 -0.3194
80641W        W23694  10.042  27.419   4.996  0.0624  0.0624  0.0148
80642W        W23695   0.676  13.514  24.545 -0.0316 -0.0382  0.0042
80643W        W23696  14.263  13.415  27.704  0.1876 -0.0759 -0.1392
80644W        W23697  31.293   8.739   6.372 -0.0183  0.0569 -0.2050
80645W        W23698  30.974  21.016   6.066  0.2475  0.3012 -0.0895
80646W        W23699  10.523   6.558  29.014 -0.0699  0.1133  0.0238
80647W        W23700   9.775  21.673   9.702 -0.1927 -0.0298  0.2640
80648W        W23701   8.792  14.214  22.574 -0.1415 -0.1635  0.0552
80649W        W23702   4.636  16.781   5.597  0.1339  0.0801 -0.1812
80650W        W23703  10.062  16.896  23.738  0.3259 -0.0626  0.0507
80651W        W23704  18.394  24.641  22.247 -0.1635 -0.3324  0.1522
80652W        W23705   4.960  33.424  26.127  0.0999 -0.2202 -0.1253
80653W        W23706  21.273  13.746   6.084  0.3426  0.4015 -0.0463
80654W        W23707   9.588  16.036  23.016 -0.3169  0.2798 -0.0860
80655W        W23708  32.225  25.618  25.450  0.1626 -0.0000 -0.2083
80656W        W23709  30.503  12.896   7.677  0.1704  0.1190  0.3585
80657W        W23710  29.939  13.282   6.842  0.1185  0.0528  0.1444
80658W        W23711  10.606  15.960   7.514 -0.0167 -0.1474  0.0029
80659W        W23712   9.396   5.647   4.695  0.0362  0.1896 -0.1310
80660W        W23713  19.779  30.593   5.020  0.4245 -0.0276  0.1217
80661W        W23714   4.350  16.372   4.403  0.0305  0.3778 -0.0207
80662W        W23715   8.866   9.644  10.248  0.1166  0.2286  0.0936
80663W        W23716  12.144  11.156   8.734 -0.3258  0.5274 -0.3163
80664W        W23717   8.256  16.685   7.397 -0.0716 -0.4893  0.0196
80665W        W23718  11.990  23.609   6.608  0.1713  0.0237 -0.0790
80666W        W23719   6.336   8.317   6.812 -0.3230 -0.0582  0.0370
80667W        W23720  33.853  20.995   4.805 -0.0908  0.2248  0.0679
80668W        W23721   2.279  15.170   1.974 -0.2825 -0.3140 -0.2630
80669W        W23722  12.147   8.110  10.516  0.0176  0.0444 -0.0699
80670W        W23723   6.655   6.310   6.187 -0.2438 -0.1719 -0.1050
80671W        W23724   6.631  28.279  27.972  0.3549 -0.1817 -0.0166
80672W        W23725  31.424   3.402   1.819  0.1075 -0.1213  0.2734
80673W        W23726   0.977  10.239   4.885 -0.1654 -0.1099 -0.0439
80674W        W23727   1.928  17.948  28.071 -0.0219  0.1434  0.0095
80675W        W23728   4.010  17.515   8.366  0.0385 -0.0381  0.2733
80676W        W23729  17.297  13.521   2.263 -0.1751 -0.2777  0.4778
80677W        W23730  17.669  11.730   6.920 -0.0496 -0.1636 -0.0038
80678W        W23731  11.398  20.643  28.404  0.0209 -0.1320  0.0734
80679W        W23732  34.472  12.297  14.401 -0.0276  0.3286  0.1089
80680W        W23733  12.849   8.387   2.401 -0.1030  0.2582  0.0451
80681W        W23734  22.788  11.118   9.715  0.1306  0.0977  0.1671
80682W        W23735   6.087  21.379   8.311  0.0092  0.2012 -0.0800
80683W        W23736  20.554  12.316   0.456  0.0757 -0.1633  0.1142
80684W        W23737   7.125  13.719   7.070 -0.0386  0.3458  0.0510
80685W        W23738  27.965   1.316   7.702  0.1427  0.1619  0.2031
80686W        W23739  34.510  32.597  16.351 -0.2818 -0.1472  0.0404
80687W        W23740  19.950  10.278   9.853 -0.1538  0.0851  0.1738
80688W        W23741   7.713  18.703   7.889 -0.1474  0.3000  0.1324
80689W        W23742  10.301  11.698   8.834 -0.0188  0.2087  0.4316
80690W        W23743   3.679  18.280   2.827  0.2039 -0.0425  0.3685
80691W        W23744   3.889  27.761   9.349 -0.1289  0.3328 -0.0038
80692W        W23745   7.339   4.944   4.422 -0.0999  0.0866 -0.0165
80693W        W23746  26.290   1.793   9.476  0.0990 -0.0359 -0.2198
80694W        W23747  16.523  15.781   8.831  0.0684 -0.1622  0.1646
80695W        W23748  29.030  12.752  22.669  0.0894 -0.0975  0.0081
80696W        W23749  13.006  29.357   1.267  0.1643 -0.3512 -0.3069
80697W        W23750  14.681  11.302  20.968  0.1340  0.2739 -0.3863
80698W        W23751  18.658   9.585   1.404  0.0043 -0.2161  0.5470
80699W        W23752  33.584   2.827   9.494  0.2663 -0.1287  0.0353
80700W        W23753  14.546  18.905   8.160  0.0475 -0.0844 -0.3345
80701W        W23754  22.044  32.613   8.250 -0.0862 -0.0274 -0.4177
80702W        W23755   2.095  23.217  25.168  0.0731 -0.1640  0.0134
80703W        W23756   2.018   6.433   1.468 -0.1740  0.0197  0.1470
80704W        W23757  18.100  29.647   7.398  0.0630  0.0218 -0.1536
80705W        W23758  33.502   9.196  27.645  0.2127 -0.1153  0.0850
80706W        W23759   3.784  25.102   3.045 -0.0174  0.3072 -0.2434
80707W        W23760  28.930   3.986  10.505 -0.1492 -0.3632 -0.1171
80708W        W23761  16.043  33.151  15.502 -0.3394  0.3940 -0.3297
80709W        W23762   8.717   0.207   1.841 -0.0437 -0.0455 -0.3218
80710W        W23763  10.145   8.390   7.296 -0.2195 -0.2275  0.1574
80711W        W23764   7.375  17.222   9.229  0.1607  0.0253  0.0534
80712W        W23765   3.815  26.955   9.243 -0.0015  0.0961  0.1811
80713W        W23766  10.241   5.079   3.620  0.1607  0.3065 -0.1655
80714W        W23767  11.104   9.743   5.820  0.2549 -0.1187 -0.3036
80715W        W23768  11.893  33.305  26.447 -0.2078  0.3047  0.0731
80716W        W23769   4.032   1.925  10.074  0.2084 -0.0329  0.2429
80717W        W23770   6.857  12.811  10.431  0.1675 -0.0805  0.0760
80718W        W23771   2.700   6.287   2.079 -0.1381  0.3801 -0.1853
80719W        W23772  13.942  28.039   7.397 -0.0026  0.0870 -0.2680
80720W        W23773   1.414  17.141   5.832 -0.0037 -0.0485  0.0908
80721W        W23774   5.289   6.873   9.686  0.3691  0.0568  0.1199
80722W        W23775  32.341  13.146   7.161  0.0332  0.2032  0.1794
80723W        W23776  10.015  22.738   6.990  0.0075 -0.0793 -0.0702
80724W        W23777  15.320  18.709  28.286 -0.2094  0.4153 -0.1399
80725W        W23778  32.158   1.730   7.737 -0.0823  0.2279  0.1231
80726W        W23779  28.883  15.338  17.262  0.1375  0.0142  0.3313
80727W        W23780  30.941  23.384  27.961 -0.1711 -0.1768 -0.1894
80728W        W23781   6.575  28.692  27.608 -0.0262 -0.1314 -0.1046
80729W        W23782  14.147  15.663   9.223 -0.3535 -0.0908  0.1360
80730W        W23783  32.273  17.273   9.365 -0.0934 -0.0712  0.2779
80731W        W23784   0.969  11.294  25.958 -0.0464  0.3194  0.3552
80732W        W23785  29.395   4.588   7.982  0.1734 -0.0419  0.1007
80733W        W23786   8.549  24.288   5.003 -0.2688 -0.0466 -0.0313
80734W        W23787  14.592   2.503  28.454 -0.0946 -0.4618 -0.0621
80735W        W23788   6.123  22.897  20.763 -0.0196  0.3873  0.1787
80736W        W23789   4.630  20.998   6.857 -0.0354  0.2396  0.1588
80737W        W23790  18.022   3.845   0.047  0.1859  0.2013 -0.1098
80738W        W23791  26.248  16.300   7.080 -0.1241  0.1993 -0.2218
80739W        W23792  28.639  20.264   7.968 -0.1037 -0.0868  0.1391
80740W        W23793  14.099   0.377   8.304 -0.0236  0.0630  0.1303
80741W        W23794  18.138   9.867   1.373  0.3088 -0.0454 -0.2302
80742W        W23795  12.338  30.994   8.220 -0.1083  0.0459  0.0295
80743W        W23796  14.817  23.092   9.215  0.0959  0.2758 -0.1202
80744W        W23797  10.557  20.327  29.174  0.1225 -0.0476 -0.3389
80745W        W23798  28.487   5.589   6.201  0.3834 -0.0012 -0.3371
80746W        W23799   1.535  15.702   5.219 -0.2640  0.2872 -0.1170
80747W        W23800   5.032  23.364   4.979  0.0919  0.3305 -0.2784
80748W        W23801  26.985  12.111  28.473  0.3659 -0.1803  0.1156
80749W        W23802   3.860  32.657   9.293  0.0416  0.0154  0.1989
80750W        W23803  28.512  11.915   6.684  0.3081 -0.0738 -0.1239
80751W        W23804  12.611  29.266   5.980 -0.2677  0.1647 -0.0443
80752W        W23805   5.738  13.043   6.286 -0.0766  0.0944  0.0365
80753W        W23806   8.556  13.806   4.036  0.3691  0.4300 -0.1977
80754W        W23807   5.238   3.608   7.041 -0.2801 -0.1610  0.0718
80755W        W23808   8.754   8.548  29.114 -0.0390  0.1471 -0.1881
80756W        W23809  21.685  23.391   1.531  0.0224  0.0477  0.0461
80757W        W23810  33.708  23.626  19.977  0.0467  0.0207 -0.4249
80758W        W23811   3.993  18.720  18.262  0.3284  0.0867  0.1462
80759W        W23812  13.086  20.868  10.336  0.1113  0.0896  0.0747
80760W        W23813  14.951   9.575   0.932  0.1548 -0.2313  0.0631
80761W        W23814  22.129   8.397   6.290 -0.0066 -0.0723 -0.1827
80762W        W23815  26.537   8.240  10.249  0.1433  0.2313  0.0910
80763W        W23816   7.786  11.699   8.814  0.0241 -0.4427  0.0036
80764W        W23817   9.807  13.490   5.700  0.0333 -0.1023  0.0155
80765W        W23818  23.063  23.373   5.078 -0.2683 -0.3326  0.0078
80766W        W23819  32.865  19.554   3.558  0.3528  0.0092  0.1588
80767W        W23820  23.609   1.184   5.057  0.2227  0.0076  0.1132
80768W        W23821  21.841   5.332  24.031  0.2055  0.1196  0.1612
80769W        W23822  22.129   2.564  10.005 -0.1349 -0.0500  0.0778
80770W        W23823  10.304   3.373   9.046  0.0072  0.0196  0.2035
80771W        W23824  20.318  19.623  22.521 -0.1487 -0.1561 -0.1144
80772W        W23825   1.882  24.689   6.488  0.1147  0.1001 -0.0460
80773W        W23826   1.186   8.352  27.055  0.1897 -0.0614  0.0725
80774W        W23827  13.034  13.412   8.779 -0.2062  0.1279 -0.0175
80775W        W23828  30.064   6.602   2.766  0.2106 -0.0345  0.0311
80776W        W23829  17.353  21.582   7.610 -0.1327  0.2187  0.1792
80777W        W23830   9.421   6.225  10.106  0.4230 -0.0095  0.0318
80778W        W23831  31.705   7.908   8.868 -0.0066  0.1287 -0.3729
80779W        W23832  22.311  19.866   0.009 -0.1841 -0.1425 -0.2099
80780W        W23833   0.644   5.379   7.593 -0.1843 -0.3724 -0.0538
80781W        W23834  29.570  29.293   1.456 -0.0514 -0.0984  0.1904
80782W        W23835  33.206  13.090   6.962  0.0333  0.1351 -0.0493
80783W        W23836  33.830  30.076   2.190  0.0329  0.0242  0.0111
80784W        W23837   7.575  12.774   0.791  0.0721 -0.3718  0.0424
80785W        W23838   8.958  21.316   1.241 -0.0432  0.2714 -0.2164
80786W        W23839  22.564  13.709   6.534 -0.1130 -0.2161  0.0740
80787W        W23840  34.482  10.367   0.225  0.0014 -0.1719  0.1489
80788W        W23841   7.633  12.145  22.844 -0.1233 -0.1834  0.1056
80789W        W23842  31.305   8.798   8.546  0.2115 -0.1447 -0.4474
80790W        W23843   3.183   6.887   1.591 -0.1076  0.2834  0.0225
80791W        W23844  14.522  17.478  29.068 -0.0002  0.1302 -0.1534
80792W        W23845  19.834   5.969   3.738 -0.2822  0.1571  0.0415
80793W        W23846   9.362   8.903   5.639  0.1600 -0.1251 -0.1854
80794W        W23847  30.971   7.895   3.305  0.0210 -0.2871 -0.1241
80795W        W23848  17.371   0.437   8.197 -0.3366  0.0445 -0.0489
80796W        W23849   2.955  13.138   9.694 -0.1613  0.2775 -0.1238
80797W        W23850  15.274  13.007  26.284  0.3263  0.2568  0.1484
80798W        W23851   2.948  21.896   7.865  0.1223  0.2606  0.0159
80799W        W23852  14.441   6.280   7.006  0.1997 -0.4299 -0.4027
80800W        W23853   6.658  15.316   0.871 -0.0186  0.1291  0.1368
80801W        W23854  14.939   2.507   1.010  0.3023 -0.0698 -0.2038
80802W        W23855   6.869  26.835   5.844  0.0454 -0.1354  0.1203
80803W        W23856  16.450  15.532   3.429  0.1281  0.2210 -0.0978
80804W        W23857   9.838  10.743   9.795 -0.1577  0.0683  0.1468
80805W        W23858  12.629   8.672   7.209 -0.0301  0.2081  0.1437
80806W        W23859  18.055   6.730   4.780  0.0373  0.4495 -0.2186
80807W        W23860   2.025  31.426   3.629 -0.2481 -0.0532  0.2824
80808W        W23861  29.129  23.791   0.418  0.1334  0.1728  0.2375
80809W        W23862  26.117   9.274   1.960 -0.0452  0.1581 -0.0241
80810W        W23863   0.590  16.789   9.033  0.1219 -0.0460  0.0024
80811W        W23864  14.263  26.961   5.085 -0.0644 -0.0688 -0.0510
80812W        W23865   5.081  27.797   8.164 -0.2524 -0.1717  0.1975
80813W        W23866   3.430  19.995   6.610 -0.0196  0.1505 -0.0654
80814W        W23867  24.625  33.309   5.277 -0.2228 -0.2379 -0.0898
80815W        W23868   1.219  17.071  28.703 -0.2043  0.0162 -0.2312
80816W        W23869  25.875   4.915   7.817  0.4193 -0.3596 -0.0968
80817W        W23870  20.730  18.129  27.559  0.1094  0.0912  0.0041
80818W        W23871   9.096  12.377   7.959 -0.3273 -0.0219  0.2942
80819W        W23872  25.602  24.301  25.900  0.1013 -0.2472 -0.0875
80820W        W23873   8.083  20.911  28.960 -0.1204  0.1430 -0.2276
80821W        W23874   6.332  23.188   6.210 -0.2099  0.0188 -0.0066
80822W        W23875  17.636   2.670   9.090 -0.2576  0.2631 -0.1522
80823W        W23876  21.312   6.627  26.156  0.2940  0.1666 -0.1261
80824W        W23877   9.173  18.209   3.586  0.1104 -0.2361 -0.0436
80825W        W23878  11.811   4.116   4.062  0.4402  0.0317 -0.0995
80826W        W23879  12.072  11.108   0.415  0.3630  0.2755  0.0072
80827W        W23880  29.250   9.530  28.965 -0.0588  0.3596  0.3077
80828W        W23881   8.525   0.424   9.455  0.1178 -0.1035 -0.0580
80829W        W23882   2.790   0.254  28.893  0.1238  0.1405  0.2854
80830W        W23883  15.897  23.367  22.812 -0.0093 -0.1301 -0.3050
80831W        W23884  19.062  19.230  27.036 -0.4337 -0.2649  0.1727
80832W        W23885   9.584   8.642   6.966  0.1008 -0.3526  0.0228
80833W        W23886   5.983  12.370   8.059 -0.0723 -0.1593  0.1984
80834W        W23887   5.132  23.400   3.172 -0.1065  0.0044  0.2185
80835W        W23888   9.032   6.106  15.539 -0.1780 -0.2886 -0.1031
80836W        W23889  23.794  18.819  10.233  0.1437  0.1059 -0.3168
80837W        W23890   5.457  16.352  17.396 -0.0190 -0.1310  0.0777
80838W        W23891   4.631  16.393   8.535 -0.1653  0.1418  0.0642
80839W        W23892   7.867  11.331   9.125  0.2171 -0.4257  0.6299
80840W        W23893  15.914   1.285  18.159 -0.5970 -0.0758  0.1882
80841W        W23894  24.655   5.414   0.732  0.2225 -0.0073 -0.0052
80842W        W23895  22.542  13.125   8.598 -0.0498  0.4300  0.0492
80843W        W23896   3.179   5.595   5.624 -0.0001 -0.0880  0.0974
80844W        W23897  15.159  20.602   9.889  0.0207 -0.2587 -0.0135
80845W        W23898  18.628  10.292  10.427  0.0031  0.1275 -0.1595
80846W        W23899  10.742  16.916   0.056 -0.2866 -0.3419 -0.2759
80847W        W23900   2.296  33.019   8.200 -0.1355  0.0587 -0.1680
80848W        W23901   4.834  15.054   3.147  0.0887 -0.1123 -0.0019
80849W        W23902  21.577   5.865  25.726 -0.0793  0.0533 -0.3894
80850W        W23903  33.230  25.245  13.700  0.0398 -0.0351 -0.0901
80851W        W23904  15.422  13.948   7.870  0.0176 -0.2318 -0.2486
80852W        W23905  11.987   9.864   1.854  0.4462  0.3287 -0.0641
80853W        W23906   6.179  14.087   6.397 -0.2763  0.1218 -0.0182
80854W        W23907   2.228   4.922   7.605 -0.0096 -0.1902 -0.3702
80855W        W23908  11.940  23.010   1.034  0.1738 -0.0603 -0.0073
80856W        W23909  24.348  13.386  25.918  0.3338  0.0428 -0.1352
80857W        W23910  26.362   3.830   6.789 -0.0253  0.3431 -0.2041
80858W        W23911   1.744  32.990   2.615 -0.2500  0.3411 -0.0178
80859W        W23912  13.016  15.817   5.927 -0.2158  0.0078 -0.2215
80860W        W23913   7.651  16.873   6.296  0.2026 -0.1331 -0.0619
80861W        W23914   6.874   9.680   9.580 -0.0586  0.0606  0.0327
80862W        W23915   0.799  27.932  27.847  0.0975  0.0929  0.1420
80863W        W23916   5.504   7.065   6.276  0.1401  0.0715  0.1106
80864W        W23917  18.612  27.691  24.955  0.0405  0.2813  0.1143
80865W        W23918  27.871   6.710  25.802 -0.0959  0.0450  0.4292
80866W        W23919  11.914  18.012   8.074  0.1767 -0.3399 -0.2106
80867W        W23920   9.466  10.766   2.277 -0.4428  0.0207 -0.0323
80868W        W23921  32.824  16.822  21.479  0.1431  0.2907  0.0696
80869W        W23922   9.867   2.022  16.641  0.3132  0.1582 -0.3612
80870W        W23923  20.247  29.060  27.972  0.3197  0.0720 -0.0206
80871W        W23924   5.247  20.171   6.316  0.3430  0.0740 -0.3791
80872W        W23925  18.560  14.271   9.463  0.0834 -0.2775  0.1014
80873W        W23926   7.302  12.963   7.340  0.0166 -0.2507  0.1299
80874W        W23927  10.046  30.785   8.308  0.1529  0.1962  0.1089
80875W        W23928   2.411  12.715  26.319  0.0967 -0.0889 -0.0736
80876W        W23929  28.539  19.954   8.946  0.0055 -0.2828 -0.0386
80877W        W23930   7.996  20.223  22.892  0.1649  0.1029 -0.0864
80878W        W23931  18.191   2.688   5.203 -0.3516  0.1305  0.0985
80879W        W23932   5.405  11.735  28.029  0.0630 -0.1887 -0.1449
80880W        W23933  15.037  11.348   7.980  0.0962  0.1725  0.3177
80881W        W23934  11.493  10.501   7.745  0.0356 -0.0182 -0.1200
80882W        W23935  14.716  19.929  24.535 -0.3027  0.0318  0.1388
80883W        W23936   9.546  21.626   9.070 -0.0786  0.0104  0.0219
80884W        W23937   9.012   2.527   4.606 -0.0058  0.3705  0.1827
80885W        W23938  15.955  31.808   9.591  0.2206 -0.1408  0.1249
80886W        W23939   9.666   4.905  10.716 -0.4207 -0.2977 -0.2397
80887W        W23940  34.198  26.771   5.102  0.0496 -0.1401 -0.0985
80888W        W23941  11.804   7.366  16.363 -0.0426 -0.7029 -0.1936
80889W        W23942   3.833  21.997   8.432  0.4208  0.2371  0.0599
80890W        W23943  31.761  23.725   4.141  0.1244  0.1963  0.0272
80891W        W23944  32.262  13.963   6.556  0.0798 -0.1580  0.1660
80892W        W23945   9.780  16.890   8.122 -0.1726 -0.0900 -0.1205
80893W        W23946   2.037  22.202   9.085 -0.0175 -0.0746 -0.4458
80894W        W23947  24.580   2.770   3.010  0.0380  0.0496 -0.0525
80895W        W23948  20.767  28.267   5.259 -0.2454 -0.2814  0.2576
80896W        W23949  17.352  22.893   9.247 -0.0857  0.2195 -0.1754
80897W        W23950  12.663  12.662   6.777 -0.0751  0.2200 -0.2431
80898W        W23951   9.215  19.563   3.558  0.0930  0.1116 -0.2535
80899W        W23952  23.493  13.380  14.170 -0.1311  0.1817 -0.0700
80900W        W23953   2.631   9.737   8.553  0.1464  0.2295 -0.0816
80901W        W23954  34.436  13.324   1.782 -0.0250  0.1979  0.1209
80902W        W23955   8.709  19.660  20.461 -0.2396 -0.1479 -0.2878
80903W        W23956  32.368   8.514   5.806 -0.1273 -0.1770 -0.3795
80904W        W23957   7.878   8.759   9.956  0.0912  0.1655  0.0823
80905W        W23958  31.889  23.022   6.235 -0.1734  0.1852 -0.4239
80906W        W23959  22.081  18.118   0.607 -0.0269 -0.0725  0.0832
80907W        W23960   8.256  17.532  28.899 -0.2073  0.3317  0.1336
80908W        W23961  29.551   1.998   4.510 -0.0382  0.0539 -0.0684
80909W        W23962   5.318   5.978   3.032  0.2191  0.1720 -0.1021
80910W        W23963   2.194   8.582   4.792 -0.0467  0.0001  0.1575
80911W        W23964  31.770  27.863   9.232  0.2944 -0.2738 -0.3019
80912W        W23965  25.777  12.304   6.726 -0.1561  0.1546  0.2611
80913W        W23966  14.621   7.817   3.356 -0.0496 -0.1953 -0.0864
80914W        W23967   9.886  16.990  17.122  0.5173  0.0197 -0.3869
80915W        W23968  15.038  25.653   3.558 -0.3006  0.0346 -0.5118
80916W        W23969  14.236  15.331   6.817  0.1311 -0.2027  0.0133
80917W        W23970  25.250  29.945   4.620  0.0349 -0.0739 -0.1402
80918W        W23971   2.804  11.523   4.628 -0.0329  0.3437 -0.2154
80919W        W23972  16.837   9.271   4.361  0.0216 -0.0803  0.0182
80920W        W23973  12.360  30.622   1.726  0.4502 -0.0420  0.3701
80921W        W23974  17.932  22.445   8.830  0.0014 -0.2275 -0.2180
80922W        W23975   1.935  21.777   6.372 -0.2258 -0.1488 -0.2503
80923W        W23976  19.901   5.856   8.823  0.2482 -0.1964 -0.2812
80924W        W23977   8.378   9.889   7.826 -0.0412  0.1689  0.1538
80925W        W23978   4.582  14.039  29.139  0.4570  0.2454  0.1319
80926W        W23979  14.968   2.817   2.836 -0.0540  0.1725  0.3072
80927W        W23980  12.973  24.290   8.167  0.0733  0.2076 -0.1068
80928W        W23981   9.664  16.572   6.282  0.2835  0.0877  0.2083
80929W        W23982   4.127   1.578   2.736  0.1016  0.2222  0.2589
80930W        W23983   5.018  13.144   5.030 -0.2153  0.0354 -0.1342
80931W        W23984   9.230  24.077   6.550 -0.1812  0.0921  0.2368
80932W        W23985  15.152   4.654  20.499  0.3077 -0.0491 -0.1829
80933W        W23986  15.532  16.956  27.427  0.2383  0.0666  0.2087
80934W        W23987   8.186   7.730  10.121 -0.0540  0.2293  0.0343
80935W        W23988  10.582   2.562   6.315 -0.0934 -0.0741 -0.0969
80936W        W23989   1.411  20.051   3.092 -0.2313 -0.1284  0.0558
80937W        W23990  13.524  22.956   4.462 -0.1859  0.1140  0.1461
80938W        W23991  29.314  23.789  10.233  0.2268  0.2796 -0.0283
80939W        W23992  17.729  14.886   9.549  0.1749  0.0339  0.3448
80940W        W23993  19.250  19.906  10.441  0.2675 -0.1666 -0.2665
80941W        W23994   3.197  29.289   6.406  0.2620  0.0911  0.1614
80942W        W23995  32.522  19.145   5.353 -0.0725  0.0387  0.4468
80943W        W23996   8.764  33.968   1.130 -0.3109 -0.3567  0.1120
80944W        W23997  26.964   2.736   4.383 -0.1614 -0.0962  0.0174
80945W        W23998  14.447   0.599   2.952 -0.2762  0.1848  0.0627
80946W        W23999  11.854  14.912  27.128  0.1334  0.1958  0.0530
80947W        W24000  34.550  22.804   3.017 -0.0217  0.2681 -0.1736
80948W        W24001  14.724   8.180   6.960 -0.3267  0.1587 -0.1484
80949W        W24002   3.504   8.470  25.828  0.0157 -0.0029 -0.2680
80950W        W24003  10.746  19.448  25.506  0.0112 -0.0897  0.1249
80951W        W24004  14.989  28.246   4.135 -0.0280 -0.1545 -0.0765
80952W        W24005   4.888  19.467   0.378  0.0287 -0.1827 -0.1188
80953W        W24006  15.247  17.705   7.872  0.4570 -0.2386 -0.2210
80954W        W24007  27.307   2.257  17.094 -0.0559 -0.0895 -0.0672
80955W        W24008   8.846  29.990   7.121 -0.0014 -0.1937 -0.5167
80956W        W24009  12.319  13.195  29.198  0.0274  0.6662  0.2049
80957W        W24010  19.135  15.618   6.375  0.1051  0.3077  0.4077
80958W        W24011  22.659  33.968   1.555  0.1970  0.0625  0.0351
80959W        W24012  21.611   3.856   3.039 -0.0191 -0.3765 -0.4855
80960W        W24013  30.302  18.060  27.512 -0.2355  0.0033  0.0686
80961W        W24014   3.603  24.576   1.577 -0.4616 -0.1239  0.1280
80962W        W24015   3.751  19.690  18.575  0.0852  0.1153  0.0891
80963W        W24016   1.523  11.420   4.775 -0.3276  0.2155  0.1194
80964W        W24017   7.863   5.221   0.841 -0.2367  0.0310  0.2199
80965W        W24018  31.771   9.104  21.432  0.2980  0.2580  0.2632
80966W        W24019   6.112   9.109   3.327 -0.0728 -0.0082 -0.1269
80967W        W24020  11.273  31.087   4.649  0.1301 -0.1375 -0.1776
80968W        W24021  30.453  13.175   4.897  0.1358  0.0061 -0.2108
80969W        W24022  34.432  18.858  28.701 -0.1833  0.2159 -0.1437
80970W        W24023  20.154   4.494   5.570 -0.2143 -0.0568 -0.1279
80971W        W24024  34.481  26.862   5.596 -0.0191 -0.0963  0.0738
80972W        W24025  21.891  14.109  26.122  0.2139  0.1802 -0.3445
80973W        W24026  24.534  10.084   1.835 -0.2259  0.3684  0.1708
80974W        W24027  10.995  14.470   4.103  0.0399 -0.0190 -0.1356
80975W        W24028   0.393  13.642   6.994 -0.0767  0.3231 -0.1607
80976W        W24029  13.920  12.312   6.625 -0.1487 -0.0603 -0.2034
80977W        W24030  13.801  25.376   9.721  0.1334 -0.0258  0.2279
80978W        W24031  13.600  13.330  22.447 -0.5291 -0.1600  0.1740
80979W        W24032  16.519   8.323   8.398  0.1161 -0.1174 -0.3313
80980W        W24033   6.331   7.326  10.240  0.1015  0.0234 -0.0403
80981W        W24034   0.966  18.765   5.337  0.0425 -0.0539 -0.1350
80982W        W24035   5.684  31.813   6.968  0.0660  0.2191  0.5097
80983W        W24036   7.574   3.423   1.300  0.0888 -0.3511 -0.2637
80984W        W24037  22.945  29.844   2.885 -0.4871  0.2098 -0.0546
80985W        W24038  28.457  29.086   8.217  0.2331  0.0247  0.1546
80986W        W24039  12.841  32.257   0.402 -0.1836 -0.0591 -0.3586
80987W        W24040   8.943   7.748   6.473 -0.3052 -0.2257  0.0451
80988W        W24041   4.070   7.838  25.564 -0.0007 -0.2067 -0.0154
80989W        W24042  26.236  28.685   5.331 -0.0899  0.1422  0.0720
80990W        W24043  14.391   6.238  10.626 -0.1584 -0.1599 -0.0727
80991W        W24044  23.237   1.425   7.750 -0.3675 -0.2434  0.0778
80992W        W24045  26.225   6.444  26.883 -0.0352 -0.1675 -0.0072
80993W        W24046  31.391  14.346   6.161  0.0306  0.0963  0.0390
80994W        W24047  19.479  19.668   1.589 -0.0665  0.3750  0.2651
80995W        W24048  16.474  30.784  26.773 -0.0369 -0.0362  0.1070
80996W        W24049   9.653  14.339   2.615 -0.1147 -0.0448 -0.0448
80997W        W24050   3.174  32.675   5.261 -0.3556 -0.0692 -0.0394
80998W        W24051   1.759  15.305  28.021 -0.2147  0.4508 -0.1014
80999W        W24052  10.834  22.210   9.233  0.0478  0.1019  0.0398
81000W        W24053  32.492  16.750   0.578 -0.0517 -0.1228  0.1591
81001W        W24054  16.163  19.089   3.574 -0.1761 -0.0073  0.1393
81002W        W24055  13.528  28.695   6.095  0.1056 -0.0630 -0.0485
81003W        W24056  18.164  26.073   8.539 -0.1243 -0.3238  0.2243
81004W        W24057   3.934  27.630   6.981 -0.2645 -0.1668 -0.3544
81005W        W24058  17.436   6.357   2.579  0.0799  0.0430 -0.0255
81006W        W24059  16.696  29.469  25.945  0.1626 -0.0237  0.2699
81007W        W24060   6.511  17.611   5.070 -0.0420  0.0244 -0.2231
81008W        W24061  10.401  18.169   0.049 -0.2089  0.0220 -0.0371
81009W        W24062  14.104  17.983   4.186 -0.1107  0.2156  0.1274
81010W        W24063  25.925   9.857   9.481  0.1866 -0.0863  0.2894
81011W        W24064  18.413  17.696  27.877 -0.0479  0.0314 -0.1148
81012W        W24065  34.323   8.163   4.959  0.4226 -0.1701 -0.0636
81013W        W24066   1.893  14.651   5.373  0.0605 -0.1787  0.2737
81014W        W24067   7.525   0.712  27.020  0.2438  0.1419 -0.2839
81015W        W24068  10.737  11.951  10.859 -0.2556 -0.2212 -0.1071
81016W        W24069  24.134   0.998  21.529  0.1142  0.0707  0.0899
81017W        W24070  20.473  27.249   9.228 -0.0709 -0.2114  0.0815
81018W        W24071  11.676  31.854   8.842 -0.0126  0.0436 -0.0896
81019W        W24072  27.688  23.716   3.477  0.2047 -0.0177 -0.0202
81020W        W24073  34.185  16.940   0.474  0.0280  0.1570 -0.1022
81021W        W24074   6.404  18.821   3.662  0.1573  0.1667  0.1731
81022W        W24075  23.772  16.697   9.409 -0.0352 -0.0096  0.1755
81023W        W24076  16.241  13.651   9.910 -0.1405  0.1852  0.1188
81024W        W24077  22.298  19.691   9.633 -0.0494 -0.0714  0.0637
81025W        W24078  14.911  30.515  21.570  0.0505  0.0584  0.0958
81026W        W24079  11.113   2.922   3.765 -0.0778  0.0835  0.2033
81027W        W24080  25.501   9.504  22.734 -0.0359  0.2378  0.1796
81028W        W24081  10.388   5.838   5.847  0.3452 -0.1945  0.2904
81029W        W24082   6.279   3.544   9.317 -0.1138 -0.1344 -0.0290
81030W        W24083   8.832  10.372  27.670  0.0203 -0.2003  0.4002
81031W        W24084   7.274  32.304  27.020 -0.1212 -0.0027 -0.1267
81032W        W24085   9.329  17.581   8.165 -0.1727 -0.0970  0.0246
81033W        W24086   5.073  19.483   7.709 -0.1618  0.0830  0.1944
81034W        W24087   3.630  13.978   4.632 -0.0489 -0.0176 -0.1703
81035W        W24088   4.526  14.365   8.883 -0.1447 -0.1381  0.0583
81036W        W24089   8.599  29.120  22.936 -0.1262 -0.2290  0.0327
81037W        W24090  12.883  13.006  10.487  0.2748 -0.1478  0.4076
81038W        W24091  10.458   3.282   4.507 -0.5396 -0.1111 -0.0682
81039W        W24092   3.595  16.777   3.974  0.2497 -0.1718  0.1722
81040W        W24093   8.857  32.054   8.700  0.1317  0.0803  0.1288
81041W        W24094  23.885  17.429  27.903 -0.0518 -0.0977  0.0089
81042W        W24095  14.352  11.146   0.681  0.4761 -0.0633  0.1612
81043W        W24096   7.176  18.935   5.300 -0.3477 -0.1407 -0.0768
81044W        W24097   4.981   6.482   1.670  0.1220  0.1611 -0.2770
81045W        W24098  13.773  13.103   9.389 -0.0363  0.0174  0.1602
81046W        W24099  32.315   6.041   4.716 -0.2825  0.0203 -0.1775
81047W        W24100  15.410   2.687   5.026 -0.1730  0.0807  0.1443
81048W        W24101  17.594  12.596   6.028  0.0386  0.1293 -0.2051
81049W        W24102  18.410  25.561  28.810 -0.0093 -0.2095  0.1456
81050W        W24103  19.393  18.375   7.858 -0.2756  0.0040  0.0608
81051W        W24104   1.483  11.418  22.168 -0.2202  0.1880  0.4798
81052W        W24105  34.166  18.991   8.005 -0.2492  0.0093  0.0001
81053W        W24106   2.784   1.390   1.978  0.0556 -0.0884  0.0378
81054W        W24107   4.401  10.212   7.429 -0.2822  0.0056  0.2187
81055W        W24108  30.020  24.842   7.255  0.2727  0.2737  0.1634
81056W        W24109  17.534  19.824   8.947 -0.0349 -0.1828  0.2043
81057W        W24110  29.795   1.574   8.465  0.0844 -0.1801 -0.0024
81058W        W24111   0.229   2.450   8.033  0.0896  0.1619  0.2342
81059W        W24112  23.945  34.199   9.192  0.3221 -0.0317  0.1552
81060W        W24113  26.962  14.013   1.411 -0.2080  0.1798  0.0276
81061W        W24114  12.667  28.218  26.983 -0.2181 -0.1689 -0.1150
81062W        W24115  13.093   7.528   7.173 -0.3257  0.1880  0.1044
81063W        W24116  16.319   2.500   2.848  0.0456  0.3199 -0.0152
81064W        W24117  15.809  27.772   9.085 -0.0601  0.3075  0.1537
81065W        W24118  24.764   9.894  28.587  0.0069 -0.3948  0.1647
81066W        W24119  22.829  13.599  26.273  0.0279  0.2197 -0.3160
81067W        W24120   4.274   6.206   2.492  0.0428 -0.0784 -0.0882
81068W        W24121  34.299  18.236   6.588 -0.1954  0.0499  0.0639
81069W        W24122   9.991  17.628   2.682 -0.0071  0.1506 -0.0424
81070W        W24123  30.930  22.776   3.325  0.0476 -0.3672 -0.2528
81071W        W24124  26.533  10.309  23.640 -0.2345 -0.2440 -0.1859
81072W        W24125   9.040   7.335   6.801 -0.0868  0.0988  0.1423
81073W        W24126   8.643  11.150  28.174 -0.1313 -0.0777 -0.0414
81074W        W24127  12.457  13.098   6.770  0.0332  0.2089  0.2646
81075W        W24128   3.552  18.283   7.559 -0.2518 -0.0228 -0.1914
81076W        W24129   2.564   6.154  23.513  0.3816 -0.0511  0.0616
81077W        W24130   9.589   2.728   8.245  0.2183 -0.1784 -0.0538
81078W        W24131  17.603   3.693   7.055 -0.1233 -0.1122  0.0992
81079W        W24132  21.236   3.775  25.851 -0.0528 -0.0241 -0.1183
81080W        W24133  11.090  19.866   4.422  0.1288 -0.2365  0.1141
81081W        W24134  22.671  20.604   8.236  0.0306  0.1548  0.1105
81082W        W24135   9.919  25.246  18.117 -0.1549  0.1500 -0.1737
81083W        W24136  17.704  23.846  27.338 -0.0190  0.3943  0.2145
81084W        W24137   8.399  20.442   7.822 -0.3801  0.2134 -0.1904
81085W        W24138  10.763   9.001   4.280  0.0315  0.0897  0.3072
81086W        W24139  33.005  23.409   5.029 -0.0691  0.1149 -0.4090
81087W        W24140   3.885  14.378   2.564 -0.4051  0.2452  0.2038
81088W        W24141  11.644  33.839   4.428  0.1250 -0.2382  0.1024
81089W        W24142  17.900  14.817   3.521 -0.1315  0.0615  0.1719
81090W        W24143  16.820   3.783   4.364 -0.1542  0.1987  0.1374
81091W        W24144  19.879  10.163   4.950 -0.0077 -0.4744  0.3621
81092W        W24145   2.506  19.657  14.062  0.1826  0.3673 -0.1635
81093W        W24146  27.435  22.872  26.696 -0.0336 -0.0644 -0.1878
81094W        W24147  13.960   3.108  18.880  0.1266 -0.2543 -0.4429
81095W        W24148  32.755  22.349   4.111 -0.0130 -0.1235 -0.0860
81096W        W24149  21.215  17.130  22.739 -0.1861 -0.2995 -0.0739
81097W        W24150  11.634  28.526  26.812 -0.2815  0.2573 -0.3524
81098W        W24151  28.489  28.720   7.842  0.0672  0.2291  0.1936
81099W        W24152   8.214  18.346  25.556  0.2919 -0.3494  0.1070
81100W        W24153  19.476  15.953   9.071 -0.4529  0.1460  0.0208
81101W        W24154  14.227  16.796   8.464  0.2213  0.1854  0.0077
81102W        W24155  22.715  30.747   4.742 -0.0003 -0.0584  0.1663
81103W        W24156   7.282  19.815  20.566  0.3519  0.1637 -0.1483
81104W        W24157   2.515  21.420  27.085 -0.2684  0.0800  0.2596
81105W        W24158  23.940   7.638  26.872 -0.0565 -0.2444 -0.1093
81106W        W24159   6.889   8.431   7.074 -0.3244  0.0589 -0.3152
81107W        W24160  27.902  14.199   3.554 -0.0129  0.1328 -0.0350
81108W        W24161  25.579   9.792  10.006  0.0878  0.2796 -0.4705
81109W        W24162   0.207  14.501  20.073 -0.1661 -0.1714  0.2228
81110W        W24163   1.917  29.467   4.774  0.0282  0.0362 -0.1170
81111W        W24164  28.648   9.547  27.068 -0.0336 -0.2293 -0.1776
81112W        W24165   6.930  13.094   7.723  0.3143  0.3111  0.0306
81113W        W24166  34.589  26.334  24.720  0.0359  0.0776  0.0501
81114W        W24167  12.396  14.646  22.375  0.1598 -0.1945 -0.0659
81115W        W24168   5.454  11.778  26.504  0.4486 -0.3655  0.2968
81116W        W24169   0.764  27.458   6.896 -0.1401 -0.2795 -0.0262
81117W        W24170  12.726  14.736   0.497  0.1410 -0.3830  0.1944
81118W        W24171   6.736   1.702   2.376  0.2063  0.0823 -0.1164
81119W        W24172  10.505  15.404  15.117  0.0464  0.1060  0.1450
81120W        W24173  14.027  19.821   7.760 -0.0193  0.1262  0.2258
81121W        W24174  17.432  15.547  22.983  0.0850 -0.2175  0.2388
81122W        W24175   9.317  16.593  16.545  0.2382  0.2398 -0.0721
81123W        W24176  18.052  16.203   1.427 -0.1652 -0.0311 -0.3581
81124W        W24177  12.735  23.381   7.403 -0.2324  0.1661  0.0446
81125W        W24178   6.496  29.512   7.682 -0.0330  0.0228 -0.0942
81126W        W24179  34.108  26.064  24.792 -0.0134 -0.2405 -0.0233
81127W        W24180   9.101  24.237   3.010 -0.2426 -0.1344  0.1017
81128W        W24181   7.939  21.654   7.175  0.1157 -0.0923 -0.0222
81129W        W24182  33.109   0.670  28.734  0.0294 -0.1819 -0.2565
81130W        W24183  11.172  21.015   1.486 -0.0056  0.0153  0.0307
81131W        W24184   2.921   6.691  25.094 -0.0036 -0.2759  0.0920
81132W        W24185   6.183   3.912   1.128 -0.3172 -0.4176 -0.0927
81133W        W24186   7.805   3.768   5.110  0.1580 -0.0961  0.0972
81134W        W24187  19.717   7.676   3.419 -0.1094 -0.1084  0.0449
81135W        W24188   2.477  13.670  19.387  0.2409 -0.0500  0.0828
81136W        W24189  26.740   5.519  19.131  0.2033  0.0256  0.0433
81137W        W24190   9.006   8.091  19.926 -0.0242 -0.1553  0.1245
81138W        W24191  19.581  10.674  17.652 -0.0111  0.2343  0.3614
81139W        W24192  24.917  12.736  21.440  0.2348 -0.0471  0.2914
81140W        W24193   2.008  25.315  24.936  0.2983 -0.0928 -0.1459
81141W        W24194  10.362   1.059   4.208  0.0123 -0.0209  0.1345
81142W        W24195   5.047  23.084   7.209 -0.3553 -0.0717  0.1346
81143W        W24196  14.197  18.837  13.272 -0.0074 -0.1586 -0.2684
81144W        W24197  34.479  32.288   4.582 -0.1065  0.0735 -0.0400
81145W        W24198  19.975   5.044   0.167 -0.0360 -0.4816 -0.0606
81146W        W24199  20.708  16.213   7.833  0.0171  0.0264  0.1329
81147W        W24200  15.292  24.001  27.585 -0.0052  0.3872 -0.0561
81148W        W24201   2.332  21.791   9.053  0.0669 -0.0870 -0.0223
81149W        W24202   7.920  28.100   8.793  0.2000  0.1687 -0.0566
81150W        W24203   9.324  17.316   5.566 -0.1763  0.0258 -0.2141
81151W        W24204  13.892   8.594   5.541  0.0456 -0.0248  0.0519
81152W        W24205   5.963  24.368  15.491  0.1900 -0.1021 -0.1572
81153W        W24206  16.079  19.385  28.181  0.0931 -0.3458  0.2108
81154W        W24207   5.685  16.229   8.507 -0.2987  0.1110  0.0301
81155W        W24208   3.351  12.753   2.607  0.1141 -0.0693  0.1365
81156W        W24209  19.167  23.950   2.543 -0.2631  0.1474  0.0454
81157W        W24210  21.825   1.374   1.849  0.1071  0.4546 -0.0094
81158W        W24211  33.856  16.887   8.644 -0.0717 -0.4025  0.1270
81159W        W24212  30.257  10.982   8.061 -0.0479 -0.2917 -0.0869
81160W        W24213   7.929  17.051   0.473 -0.1259  0.1010 -0.0318
81161W        W24214   1.594  18.138   8.536 -0.0750  0.2183  0.2655
81162W        W24215  20.132  28.359  24.538 -0.0194  0.2061 -0.0303
81163W        W24216  31.419  29.230   8.533  0.4171 -0.2217  0.2732
81164W        W24217  11.638  26.891  28.107 -0.1750  0.0099  0.1510
81165W        W24218  14.200  31.383  21.480 -0.2432  0.0346  0.2373
81166W        W24219   3.048   9.257  20.103 -0.0563 -0.0153  0.1275
81167W        W24220   0.963   0.930  17.972 -0.0704  0.2195  0.1240
81168W        W24221  15.312  23.689  16.820 -0.0515  0.3261  0.0861
81169W        W24222   3.989  12.411   2.377  0.1961 -0.3872  0.2196
81170W        W24223  21.449  24.856   9.788  0.0963 -0.1921  0.2232
81171W        W24224  12.012  11.983   2.624 -0.1540 -0.0808  0.0830
81172W        W24225  14.000  29.212   7.820  0.2208  0.0919 -0.2033
81173W        W24226  29.690   4.855   4.361  0.0580 -0.1627  0.0616
81174W        W24227  29.471   6.024  24.119  0.1234 -0.0424  0.1414
81175W        W24228  16.021  16.871   5.085 -0.1291  0.0291  0.0458
81176W        W24229   8.615  14.010   7.739  0.1551 -0.2010 -0.2101
81177W        W24230   5.206  11.352   9.853  0.1184 -0.3355 -0.0909
81178W        W24231   5.356   9.376  19.789  0.1241  0.1516 -0.1442
81179W        W24232  11.816   4.926   1.670 -0.2721 -0.1140 -0.0607
81180W        W24233  11.437  13.456  27.953  0.3431 -0.2106  0.0637
81181W        W24234  18.057   5.064  28.672  0.3156  0.0020  0.1121
81182W        W24235  29.393  17.324   0.076 -0.3551  0.1638 -0.3023
81183W        W24236   7.073  12.107  26.499  0.4803 -0.2443 -0.5691
81184W        W24237  29.286  15.316   9.645  0.0312 -0.3922 -0.1316
81185W        W24238  24.524  17.853   1.340 -0.2444  0.1751 -0.0424
81186W        W24239   6.955  18.069   1.387  0.3228  0.2292 -0.3025
81187W        W24240   9.855  13.354   0.215  0.5057  0.0665  0.0913
81188W        W24241  22.172  20.311  22.710  0.1492  0.0458 -0.2834
81189W        W24242  31.402  12.399   3.781  0.1777 -0.0338  0.1886
81190W        W24243  16.530  22.508  27.166 -0.3784  0.0604  0.2005
81191W        W24244  26.761   1.029  22.063 -0.1829 -0.0815  0.0600
81192W        W24245   5.022  14.765  24.357 -0.1436 -0.2281  0.0740
81193W        W24246  10.079  25.251  15.897  0.0190  0.3539 -0.2086
81194W        W24247  31.561  10.990  16.575 -0.0593  0.0363 -0.2612
81195W        W24248   9.016  23.496   1.619 -0.2517 -0.2788  0.0014
81196W        W24249  11.313  18.837   4.691  0.1873 -0.3205 -0.0162
81197W        W24250   0.870  10.020  15.371  0.1021 -0.0579 -0.0170
81198W        W24251   9.013  16.787   6.555  0.1523 -0.1741 -0.1100
81199W        W24252   5.143  20.817   2.332 -0.0929 -0.0514 -0.2789
81200W        W24253   1.060   0.241   3.708 -0.0147  0.0084  0.3098
81201W        W24254   5.630  11.983   2.768  0.2388  0.0032 -0.2459
81202W        W24255  12.619  15.304  27.520  0.2330 -0.0046  0.1174
81203W        W24256   0.033  24.499   1.716 -0.0006  0.1302  0.1941
81204W        W24257  15.085   8.548  28.144 -0.1266  0.1159 -0.1258
81205W        W24258  17.023  17.098   3.706 -0.0046  0.0352 -0.0954
81206W        W24259  27.466   9.088  28.524 -0.0804  0.2677  0.0388
81207W        W24260  21.384  22.642  28.142  0.0561  0.0396 -0.3006
81208W        W24261   3.442  20.933  22.247  0.2938 -0.2115 -0.2300
81209W        W24262   5.950   4.285   3.000  0.3124 -0.0542  0.0166
81210W        W24263   5.162  11.421  22.540 -0.0612 -0.2219 -0.2345
81211W        W24264  31.049   9.376  21.941  0.1805 -0.0996 -0.0548
81212W        W24265   9.809  17.862   7.905 -0.0382  0.0317 -0.0390
81213W        W24266  12.674  22.252  22.073  0.1641  0.0590  0.1469
81214W        W24267  23.351   6.347   8.210 -0.2910  0.2692 -0.1557
81215W        W24268  29.880  11.596  26.242  0.2743 -0.4116 -0.0853
81216W        W24269  12.425  11.335  26.253  0.0073  0.2416 -0.1063
81217W        W24270   2.995   9.376   7.147 -0.0152  0.2295  0.0074
81218W        W24271  34.347  12.686   2.715  0.0155  0.3617  0.1985
81219W        W24272  12.666  18.513  26.256  0.0693 -0.1413  0.0906
81220W        W24273  17.866  15.861  25.060  0.0180 -0.3852  0.0274
81221W        W24274   0.107  30.087   0.377  0.0179  0.0536  0.0065
81222W        W24275  26.953  25.984   0.604 -0.1187  0.0032  0.0799
81223W        W24276   5.372  19.688   0.414  0.3158 -0.0033 -0.0500
81224W        W24277  28.724  17.754  27.461  0.1506 -0.2055 -0.1798
81225W        W24278  18.508   7.717   4.885 -0.2881  0.0888 -0.1028
81226W        W24279   7.057  23.098  22.621 -0.0262 -0.1663 -0.2079
81227W        W24280  34.274  25.112   1.346 -0.2617 -0.0553 -0.1726
81228W        W24281   2.897  10.807   3.529  0.1002  0.0091  0.2222
81229W        W24282  14.775  25.714   5.512  0.2025 -0.3621  0.0370
81230W        W24283  13.011  22.333  20.819 -0.0530  0.0486  0.2041
81231W        W24284  21.540  28.896   2.486 -0.4177  0.1665  0.3411
81232W        W24285   1.408   8.994  24.749  0.1717 -0.1444 -0.1059
81233W        W24286   5.542  13.058   0.263 -0.1172  0.2460  0.2182
81234W        W24287   2.538   5.481   4.450 -0.1326  0.1167 -0.3037
81235W        W24288  15.939  18.046  26.526 -0.1507  0.1693  0.0494
81236W        W24289  23.803  25.779   9.384 -0.1587 -0.0437 -0.1783
81237W        W24290  12.958   8.591  23.330 -0.0180 -0.0446  0.2545
81238W        W24291  15.683   6.733  28.580 -0.3634 -0.0891 -0.0725
81239W        W24292   9.548  15.328  27.385 -0.2619  0.3335 -0.0348
81240W        W24293  18.175  17.737   5.596  0.0305 -0.0276  0.0793
81241W        W24294  30.280   4.724  20.250 -0.1269  0.1119 -0.1207
81242W        W24295  27.399  18.535   1.004  0.2871  0.1794 -0.1253
81243W        W24296  10.679   5.055  26.870  0.0646  0.0029  0.0249
81244W        W24297   4.144  21.285  19.386  0.1615 -0.0389 -0.2365
81245W        W24298   5.704  10.639  10.821  0.1148 -0.3155 -0.0206
81246W        W24299  15.389   7.831   1.578 -0.0692  0.1406  0.1117
81247W        W24300  14.840   8.111   9.072 -0.1772 -0.0153  0.3738
81248W        W24301   7.280  25.851  21.211  0.0405 -0.0468 -0.0414
81249W        W24302   6.275  21.026   3.281 -0.0200  0.0777 -0.1210
81250W        W24303   4.239  34.358   1.845 -0.1103  0.0870  0.0139
81251W        W24304  34.223  24.278  17.768 -0.1156  0.0106  0.1671
81252W        W24305  18.835  15.172   8.308 -0.0346  0.1037 -0.0945
81253W        W24306  31.272  12.806  19.070 -0.1612 -0.1250  0.0579
81254W        W24307  11.643  12.417   9.838 -0.1286 -0.2113 -0.2727
81255W        W24308  31.881  29.053  22.145  0.1996  0.2176 -0.4342
81256W        W24309   6.455   8.895   5.125  0.3611  0.1299  0.2861
81257W        W24310  18.667  18.007  22.183 -0.0522 -0.2937  0.2117
81258W        W24311  24.271   9.927  24.879  0.0243 -0.1771 -0.3319
81259W        W24312  16.234  24.548  26.552  0.2333  0.2550  0.0407
81260W        W24313  17.110  19.260   2.502 -0.2060 -0.1087  0.0837
81261W        W24314  31.618  16.216   0.160 -0.1170  0.1223  0.2058
81262W        W24315  29.107  13.979  24.221 -0.0119  0.0070  0.0598
81263W        W24316  14.317   5.279   4.526  0.0532  0.0556 -0.1258
81264W        W24317  24.646  26.641   8.605  0.1760 -0.1152  0.4143
81265W        W24318   7.085  25.466   1.917 -0.4161 -0.1268  0.2859
81266W        W24319   9.479  34.218   8.042 -0.0256 -0.0714 -0.1790
81267W        W24320  18.995  21.262  25.361  0.0733 -0.1531  0.0028
81268W        W24321  10.700  19.552  26.369 -0.1384 -0.0803  0.1615
81269W        W24322   4.296  12.156   3.624  0.1734 -0.1512 -0.1494
81270W        W24323  10.109  12.847  21.346 -0.2160 -0.2317 -0.0785
81271W        W24324   4.352   4.816   1.341  0.1664 -0.1940  0.1593
81272W        W24325  30.501  18.763  16.466  0.3001 -0.0123 -0.0962
81273W        W24326  22.264   9.996  18.609 -0.2378  0.3560 -0.1978
81274W        W24327  18.557   0.871   9.541 -0.1125  0.0864 -0.3398
81275W        W24328   9.178   3.114   6.800 -0.0159  0.1720 -0.1306
81276W        W24329  23.164  14.057   5.776 -0.0620 -0.0668 -0.3743
81277W        W24330   4.171  16.582   0.263  0.3693  0.1713 -0.5674
81278W        W24331  15.674  14.774   0.281  0.4632  0.2083  0.2237
81279W        W24332   7.325   7.445   8.637  0.2344 -0.2812  0.0437
81280W        W24333  29.945  20.856   5.313 -0.1626 -0.2225 -0.3030
81281W        W24334   7.763   9.895  21.372  0.0516 -0.2041 -0.2225
81282W        W24335   5.556  28.498   0.875  0.2163 -0.0838 -0.2742
81283W        W24336   7.836  20.552   1.545 -0.0841 -0.0575  0.0109
81284W        W24337   4.876  23.611  18.508  0.1645  0.0651 -0.0110
81285W        W24338  12.847  18.657  22.607  0.1322  0.0069 -0.1916
81286W        W24339   9.046   3.637   6.172 -0.0405  0.0749  0.0047
81287W        W24340  14.974  11.729  27.236 -0.1288 -0.0437 -0.0422
81288W        W24341  19.530  19.728   5.244  0.1441 -0.0556 -0.3089
81289W        W24342  11.419  14.259  10.142  0.0526  0.1382 -0.1105
81290W        W24343  12.098  18.690   5.570  0.0419 -0.1288  0.1169
81291W        W24344  15.859  10.725  25.110 -0.2412  0.0905  0.0032
81292W        W24345   1.180  28.886  26.765 -0.2278  0.2398 -0.1165
81293W        W24346  14.512   9.744  28.167  0.0229  0.1391  0.4331
81294W        W24347  18.853   1.472  15.977 -0.0713 -0.0769  0.0199
81295W        W24348   0.834  12.133  22.967  0.1274  0.2627 -0.3898
81296W        W24349  10.546   7.760  28.840  0.1388  0.0428 -0.2190
81297W        W24350   6.205   9.632   6.205  0.0727 -0.0180 -0.0057
81298W        W24351  24.486  11.548   2.095  0.2347  0.0276 -0.2723
81299W        W24352  26.702  28.009  27.869 -0.0671  0.0048  0.0848
81300W        W24353   3.592  28.542  26.796 -0.0803  0.3943 -0.0173
81301W        W24354  13.218  25.483   6.637  0.0558 -0.1892  0.0887
81302W        W24355  11.372  11.616   1.101  0.1467 -0.2768  0.0156
81303W        W24356  11.058  24.198   0.780 -0.2952 -0.0713  0.0151
81304W        W24357  34.151  28.761   0.621 -0.0905 -0.1853 -0.0657
81305W        W24358  23.146  18.818  26.301  0.1708  0.2368 -0.0921
81306W        W24359   3.887  15.487  29.169  0.0158 -0.1742  0.2984
81307W        W24360  16.372  21.598   7.560  0.1069  0.0756  0.4603
81308W        W24361   7.048  15.131  25.251 -0.1789 -0.0554  0.1001
81309W        W24362  12.004  27.995   0.043  0.2492  0.1147  0.0004
81310W        W24363  18.926  16.714  24.714 -0.2221 -0.0574  0.2005
81311W        W24364  33.160  24.366   1.159 -0.0248  0.1956 -0.1127
81312W        W24365  17.323  20.957   8.202  0.0424 -0.0991  0.0943
81313W        W24366  15.114   6.294  11.213 -0.0510 -0.0925  0.0209
81314W        W24367   1.385  15.834   1.404  0.2557 -0.0675 -0.2313
81315W        W24368  12.499  29.592  20.600 -0.0842 -0.1765  0.1332
81316W        W24369  15.941  19.479  10.102  0.2760 -0.2945 -0.0410
81317W        W24370   1.292  10.594  28.571 -0.0703  0.2986 -0.2075
81318W        W24371  26.133   0.229   7.448  0.0692  0.1159 -0.0060
81319W        W24372   4.113   5.106  23.395 -0.1711 -0.1457  0.0590
81320W        W24373   5.501  14.559  24.409 -0.1438  0.1519  0.3258
81321W        W24374  11.570  27.400   2.532  0.1072  0.2018  0.3919
81322W        W24375  13.406  17.497   9.298  0.1253 -0.1124  0.1602
81323W        W24376  33.435   0.327   0.361 -0.0777  0.0610  0.0475
81324W        W24377  11.036   8.812   1.708 -0.0245 -0.4576 -0.0646
81325W        W24378   4.078  18.552  23.850  0.1168 -0.0300  0.1650
81326W        W24379   3.168  20.001  16.251 -0.1388  0.1805  0.0164
81327W        W24380  31.167  15.937  28.525 -0.1435 -0.1561 -0.5326
81328W        W24381   3.355  26.699   3.957 -0.1229 -0.2732 -0.0564
81329W        W24382  18.435  14.243   5.889 -0.0312  0.3998  0.1907
81330W        W24383   2.628   4.430  24.990  0.1689  0.1036 -0.0914
81331W        W24384  14.573  23.233   3.655  0.2338 -0.2183 -0.2137
81332W        W24385  25.440  20.797   7.293  0.2889 -0.1693  0.0250
81333W        W24386  26.900  17.067  27.354  0.0692 -0.1502  0.0965
81334W        W24387   9.782  29.488  23.336 -0.0635 -0.0582  0.0489
81335W        W24388   6.194  18.012  26.306 -0.0925  0.1429  0.0622
81336W        W24389   3.194   8.194   7.193  0.0730 -0.0057 -0.1718
81337W        W24390   5.407   2.677   0.899  0.2353 -0.2922  0.1325
81338W        W24391  27.166  26.781  21.609  0.3374  0.1390  0.1790
81339W        W24392  22.933  17.305   6.857 -0.0276  0.2795  0.1238
81340W        W24393  14.542  17.955  24.370 -0.0659  0.0602  0.2941
81341W        W24394  10.871  15.159   2.277 -0.0881  0.3233  0.0042
81342W        W24395  12.172  10.072  19.588 -0.0638  0.0400  0.3483
81343W        W24396  15.589   3.722   5.756  0.1799 -0.0289 -0.1089
81344W        W24397   0.825  19.468  24.721 -0.0346 -0.2319  0.0050
81345W        W24398  18.371  27.122   1.509 -0.4022  0.4925  0.0534
81346W        W24399  33.642  12.149   1.762 -0.1765 -0.0773  0.2159
81347W        W24400   5.124   5.767   5.061  0.0413 -0.0093 -0.0215
81348W        W24401  10.769  27.454   6.414  0.0143  0.1379  0.0368
81349W        W24402   2.239   9.507   0.006  0.2100 -0.2674  0.1678
81350W        W24403  16.476  29.956  27.217 -0.0176 -0.1913 -0.2462
81351W        W24404  14.523  13.160  28.090 -0.0559  0.0127  0.2913
81352W        W24405   4.880  11.348  25.884  0.0542  0.1401  0.0558
81353W        W24406  14.565  19.031   4.793  0.0935 -0.0117 -0.1974
81354W        W24407   3.870  11.705   2.931  0.3027 -0.0409 -0.0292
81355W        W24408   1.321  32.910  14.694  0.0124  0.0803 -0.0828
81356W        W24409  29.373  22.813   1.250  0.1120 -0.1928 -0.1176
81357W        W24410   1.014  33.996  22.399 -0.4106  0.0493 -0.2349
81358W        W24411  12.340  10.459   9.982 -0.0629  0.1033 -0.1356
81359W        W24412   8.013  22.517   3.293  0.3153 -0.0558 -0.2614
81360W        W24413   5.044   7.862   5.323  0.3191  0.1042 -0.1356
81361W        W24414  11.411  22.336   3.482 -0.0076  0.0290  0.1171
81362W        W24415   8.567  31.851  17.680  0.0309 -0.3509 -0.1085
81363W        W24416   4.389  23.147  24.981 -0.0799 -0.0071 -0.0309
81364W        W24417   4.183  17.356  20.209  0.0118 -0.2986  0.2682
81365W        W24418   5.317  21.291  25.355  0.0693  0.0999 -0.0433
81366W        W24419  15.909  10.355  16.316 -0.0547  0.1571  0.0963
81367W        W24420  19.866  29.940   9.785  0.2308  0.0082 -0.1156
81368W        W24421  10.143  10.006   8.639  0.0275  0.1575 -0.2427
81369W        W24422  15.223  16.213  24.769 -0.3078  0.0055 -0.2893
81370W        W24423  26.544  25.186  19.876 -0.1390  0.0177 -0.1514
81371W        W24424  25.062  17.543   0.619  0.1265  0.0052  0.1104
81372W        W24425  34.147   9.758   9.688  0.3099  0.0317  0.1511
81373W        W24426   1.108   4.308  28.949  0.3376 -0.1281 -0.3206
81374W        W24427   9.480  16.974   5.921  0.0796 -0.0677  0.2866
81375W        W24428   3.727  21.553  25.332  0.3239  0.1322 -0.0511
81376W        W24429   4.892  21.060   9.644  0.1531  0.0655 -0.1847
81377W        W24430  10.085  18.167   3.548 -0.0669 -0.1605 -0.0878
81378W        W24431   2.767  27.526  27.729 -0.1271 -0.1101 -0.2801
81379W        W24432   8.983  26.077  28.131 -0.0053 -0.1855  0.2379
81380W        W24433   2.606  24.851   4.320 -0.0287 -0.2915  0.1476
81381W        W24434  15.659  16.587   3.720 -0.0313  0.0130  0.2509
81382W        W24435   6.176   0.762   6.871 -0.1484 -0.0750 -0.1541
81383W        W24436   6.942  25.458   1.253  0.0037  0.0014  0.1522
81384W        W24437  29.851  31.520  23.978 -0.0261 -0.2111  0.0357
81385W        W24438  18.642  22.349   0.362 -0.3516 -0.2590  0.2200
81386W        W24439  32.689  11.301   8.161 -0.3667 -0.3473 -0.0778
81387W        W24440   7.713  31.091  13.872 -0.0251 -0.0799 -0.1009
81388W        W24441   0.091  16.336  19.969 -0.3114  0.2610 -0.2324
81389W        W24442   0.195  19.162  28.101 -0.1495  0.0801 -0.0974
81390W        W24443   3.157  33.861   5.392 -0.0957 -0.3964 -0.1537
81391W        W24444  14.319  20.778   7.684  0.0657  0.0370 -0.0111
81392W        W24445   3.332  12.442   7.747 -0.2340 -0.1484  0.1557
81393W        W24446  20.553  16.641   5.376  0.2505  0.0227 -0.4153
81394W        W24447  31.589  21.751  24.836 -0.1021 -0.0455  0.0749
81395W        W24448  32.793   4.448   2.171  0.4219  0.0048 -0.0813
81396W        W24449  14.107  32.062  20.847  0.2099  0.1088  0.0484
81397W        W24450  34.202  27.238   7.470  0.2314  0.0229  0.3433
81398W        W24451   2.322  17.767  21.045 -0.2223 -0.0715 -0.2027
81399W        W24452  21.389  24.068  21.877  0.1756 -0.5686 -0.0105
81400W        W24453  17.423  28.826   1.105  0.0742  0.0032  0.0864
81401W        W24454   6.012  20.568   9.376 -0.1863  0.0100  0.1751
81402W        W24455   9.435   8.957  26.574  0.0445 -0.0668 -0.2454
81403W        W24456  23.120  11.675  20.452  0.1506  0.2134  0.0850
81404W        W24457  15.797   8.783   8.474 -0.2203 -0.2092  0.0294
81405W        W24458   0.178  18.512  25.789 -0.0247 -0.0302  0.1549
81406W        W24459   6.806  22.532   4.111  0.2310  0.1194 -0.0286
81407W        W24460  10.826  19.613   8.514  0.2685  0.2137 -0.1850
81408W        W24461   5.518  10.921  28.457  0.0556 -0.1288 -0.1783
81409W        W24462  22.736  17.441   3.325 -0.2402 -0.2681  0.2497
81410W        W24463  30.356  17.120  28.110 -0.0585  0.0102  0.1401
81411W        W24464   4.859   5.422   1.604  0.0757 -0.2725  0.1468
81412W        W24465  17.588   9.390  26.583  0.1950 -0.1608  0.0537
81413W        W24466   2.356  13.330   2.609 -0.3656 -0.0018 -0.0897
81414W        W24467  14.448  26.374   3.900  0.1185  0.1765 -0.2524
81415W        W24468   7.326  20.719  23.837  0.0429 -0.2581  0.4908
81416W        W24469   5.819   5.811  15.707  0.0329 -0.1303 -0.0762
81417W        W24470  10.479  10.701  29.147  0.0743 -0.4131 -0.0436
81418W        W24471  33.903  23.353   4.762 -0.2279  0.2715  0.4050
81419W        W24472  17.672  16.903  25.802 -0.0962 -0.0484 -0.1236
81420W        W24473   3.205  11.754  22.841  0.0994 -0.0296 -0.0635
81421W        W24474  18.685  12.972   0.406  0.1064  0.0282  0.0695
81422W        W24475  15.079  14.758  15.462 -0.1523 -0.3852 -0.1239
81423W        W24476   6.063  13.307  10.399  0.0452 -0.1039  0.2299
81424W        W24477  29.991  10.075   0.048 -0.4463 -0.0379  0.3844
81425W        W24478   9.760  12.112  26.834 -0.0110 -0.0002 -0.1809
81426W        W24479  11.082   5.589  24.603 -0.0409  0.1035 -0.2172
81427W        W24480  30.843  27.216  28.079 -0.1824 -0.2425 -0.1259
81428W        W24481   6.782  17.688   8.223 -0.1297 -0.1960  0.0162
81429W        W24482  34.441  28.877   6.941 -0.3204  0.2130  0.1724
81430W        W24483  14.060  11.583   1.558  0.0279  0.1836 -0.0001
81431W        W24484  22.755   5.489   3.430 -0.4507 -0.0706 -0.0900
81432W        W24485   0.076  13.676  28.422 -0.2488  0.1639 -0.0974
81433W        W24486   7.203   1.925  19.086  0.2016 -0.3085 -0.1558
81434W        W24487   5.680  24.804  26.908  0.3316 -0.1204  0.0705
81435W        W24488   0.124  14.689  27.402  0.0465 -0.0274 -0.2182
81436W        W24489  15.422   0.623   2.242 -0.1612 -0.0460 -0.1311
81437W        W24490  18.258   8.989   0.435 -0.2900 -0.0353 -0.1705
81438W        W24491  34.223   1.473  24.754  0.2090  0.0211  0.1057
81439W        W24492  27.827   9.743  27.525  0.3216 -0.0552 -0.2223
81440W        W24493  10.951  31.937   0.834  0.2205  0.1257  0.1824
81441W        W24494  31.697  10.103   4.355  0.1067  0.1030 -0.2915
81442W        W24495   0.991  18.563  26.745  0.1834  0.0518 -0.5539
81443W        W24496  34.461  24.143   2.673 -0.1199  0.1227  0.1316
81444W        W24497  32.965  15.813   3.328 -0.0153  0.2417 -0.2307
81445W        W24498  33.811  24.275  28.347  0.0793 -0.1205 -0.2620
81446W        W24499  17.129   5.001  21.983  0.0573 -0.0423  0.0570
81447W        W24500   2.924   9.211  28.471  0.1248 -0.5163 -0.0997
81448W        W24501   6.449  11.848   6.869 -0.3898 -0.1753  0.1203
81449W        W24502  28.276  21.531   3.519 -0.1961 -0.2118  0.0581
81450W        W24503   6.516  21.626   4.919 -0.2555  0.1730  0.0846
81451W        W24504   6.642  14.437   2.240  0.1542 -0.3586  0.1053
81452W        W24505  18.670  14.383  23.241  0.0308 -0.2284  0.0648
81453W        W24506  29.648  33.048   1.668  0.2415 -0.3058 -0.3694
81454W        W24507  14.995  19.618  27.435  0.0598  0.0191 -0.3159
81455W        W24508  33.046  16.212   5.525  0.1600  0.0669  0.2151
81456W        W24509   7.411  11.414   8.380  0.0145 -0.0513 -0.1076
81457W        W24510  32.152  27.382  25.740 -0.4178 -0.4522  0.0109
81458W        W24511  11.914  14.981   9.454 -0.0162  0.0049  0.2877
81459W        W24512  32.668  19.883  19.083 -0.0568  0.0826 -0.0917
81460W        W24513  15.382  22.255  18.580 -0.0522  0.2480 -0.1277
81461W        W24514   7.426  22.839   2.443 -0.0612 -0.1709  0.0318
81462W        W24515   2.939   6.176   7.574  0.0110  0.0012  0.1597
81463W        W24516   5.105  11.068  21.339  0.0295 -0.0096  0.0577
81464W        W24517   4.022   4.445   1.061  0.0235  0.2462 -0.1219
81465W        W24518   0.258  20.168   0.752 -0.0154  0.2618  0.2393
81466W        W24519   0.805  15.740   5.971 -0.0782  0.1163 -0.6552
81467W        W24520  18.336   5.478  22.278 -0.0690  0.1996  0.0080
81468W        W24521   6.757  19.027   1.716  0.1819 -0.0452  0.0335
81469W        W24522  17.654  16.997  28.018 -0.0908 -0.1811 -0.0575
81470W        W24523  11.664   9.609   1.504  0.2117  0.0729  0.3688
81471W        W24524  18.633  14.364  26.570  0.0140  0.2867  0.1039
81472W        W24525   8.267  12.760  23.280 -0.1296 -0.0107 -0.0048
81473W        W24526  31.847   0.497  26.611 -0.0371  0.1522 -0.2610
81474W        W24527  14.698   3.399   6.633  0.3935 -0.0315 -0.2244
81475W        W24528   5.147  17.677   2.593 -0.3639  0.1691  0.2690
81476W        W24529  21.692  27.824  28.428 -0.0543 -0.2644  0.0965
81477W        W24530   8.445  17.922   7.559  0.0955  0.0789 -0.2591
81478W        W24531  32.692  10.425  24.363  0.1062 -0.0525 -0.0895
81479W        W24532  21.689  11.402  16.131 -0.2553  0.1434 -0.3446
81480W        W24533  13.144  18.452  27.208 -0.0609 -0.2201 -0.2907
81481W        W24534   3.026  15.141  27.725  0.1555 -0.1495 -0.2464
81482W        W24535  32.364   7.984   9.734 -0.2086  0.0569  0.0316
81483W        W24536   0.560  20.619   6.587 -0.2506 -0.2228  0.0457
81484W        W24537  25.503  27.297   4.397  0.1084 -0.0038  0.2567
81485W        W24538   0.212  13.952   9.172 -0.1046  0.0597 -0.1782
81486W        W24539  12.332  12.416   9.063  0.0054  0.1877 -0.0934
81487W        W24540  15.527  23.533   8.196  0.0492  0.2353 -0.3955
81488W        W24541   1.637  18.782   1.596 -0.0616  0.1469  0.1212
81489W        W24542   0.184  19.734  28.583  0.0819  0.2263 -0.1374
81490W        W24543  16.198  16.551   5.417 -0.1308  0.2671 -0.0046
81491W        W24544   7.313  17.474   8.076 -0.0360  0.1352 -0.0699
81492W        W24545  24.747  22.973   4.585  0.2886 -0.0917  0.1575
81493W        W24546  25.450  18.058   2.379 -0.2088 -0.3330 -0.1078
81494W        W24547   9.789  24.966   5.199  0.0394 -0.0925  0.0575
81495W        W24548   6.907  29.646   7.453  0.0970  0.1637 -0.0898
81496W        W24549  15.740  28.036  22.956 -0.0415 -0.2937 -0.0524
81497W        W24550  33.859   3.725   9.396  0.1069 -0.0323  0.1477
81498W        W24551  10.797  23.560   0.294 -0.4428 -0.1081 -0.1604
81499W        W24552   3.232  29.716   9.552  0.1462 -0.0541  0.2564
81500W        W24553   9.515  24.610  29.116  0.2683  0.2679  0.0351
81501W        W24554  15.503  26.725   1.527 -0.1042 -0.1083  0.1116
81502W        W24555   6.216   6.875   4.227 -0.0808  0.2148  0.1925
81503W        W24556  23.439   9.465   1.300 -0.1110  0.3439  0.0941
81504W        W24557  18.128  20.406  28.267  0.1661 -0.1623  0.0994
81505W        W24558   6.166  13.226  25.267  0.0552 -0.2021  0.1710
81506W        W24559  11.126  17.633   1.894 -0.1889 -0.3886  0.0725
81507W        W24560  11.798  33.078   7.660 -0.0747 -0.1129 -0.1430
81508W        W24561  14.112  11.356   3.511  0.0226 -0.2591 -0.1055
81509W        W24562  11.483  11.758  24.675  0.0384 -0.0585 -0.0387
81510W        W24563  27.849  12.019  10.378 -0.0874 -0.2810 -0.2773
81511W        W24564   9.826   9.673   0.058  0.1359  0.2079  0.2188
81512W        W24565   8.980   1.362   8.483 -0.2125 -0.0809 -0.1325
81513W        W24566  21.235  13.210   2.239 -0.1198 -0.2397 -0.0220
81514W        W24567  15.697  17.512   0.724 -0.5037 -0.0366 -0.0382
81515W        W24568  18.313  20.235   1.847  0.1062 -0.1626  0.1504
81516W        W24569  28.317  20.024   5.237 -0.2125  0.1247 -0.2791
81517W        W24570   7.224  19.817   4.657  0.3180  0.1390  0.1222
81518W        W24571  13.236   8.580   3.532  0.0502  0.1504  0.1035
81519W        W24572  17.454   3.059  18.049 -0.2110  0.1117 -0.1508
81520W        W24573   5.287   9.452  10.676  0.0335 -0.1230  0.0741
81521W        W24574  10.835   5.760  11.114 -0.0235 -0.0218 -0.1176
81522W        W24575   8.695  25.582   6.157  0.1671  0.2755 -0.0148
81523W        W24576  13.829  20.191   3.563  0.2540 -0.0884 -0.0486
81524W        W24577   5.553  20.483   8.120 -0.2588 -0.0018  0.2038
81525W        W24578  11.707   9.547  10.484  0.2567 -0.0491 -0.4713
81526W        W24579   9.916  29.071  20.591  0.4082  0.1298 -0.2922
81527W        W24580   5.209   7.439   4.348 -0.0622  0.0706  0.1550
81528W        W24581  31.029   1.981   2.886  0.2411  0.0560 -0.0478
81529W        W24582  33.145  12.556   6.818 -0.1195  0.1907 -0.2033
81530W        W24583  10.733  17.191   2.892  0.1192  0.2411 -0.0543
81531W        W24584   5.536  25.900  25.472  0.1335 -0.1676 -0.1551
81532W        W24585  24.813  30.809   5.731 -0.0568 -0.1064  0.0745
81533W        W24586  33.113  28.419   3.040  0.1796  0.0119 -0.2282
81534W        W24587  17.470   8.936  10.482 -0.1493  0.0696 -0.2096
81535W        W24588  12.518  29.540   5.434 -0.0898  0.0798  0.3250
81536W        W24589  24.256  19.730   8.116 -0.0628 -0.1101  0.2274
81537W        W24590  13.187  10.944   6.982 -0.2734  0.3182 -0.4255
81538W        W24591  34.461  15.840  23.328 -0.2353 -0.0622  0.0618
81539W        W24592  20.229  21.645  24.464  0.1922  0.1928 -0.2555
81540W        W24593  13.381   3.962  24.646  0.0235  0.1159 -0.0625
81541W        W24594   9.739  19.546  26.770  0.0286 -0.0950 -0.3950
81542W        W24595   5.934   4.224   9.296 -0.0332 -0.0464 -0.1827
81543W        W24596   7.410  13.245   6.066  0.0213 -0.3728 -0.0242
81544W        W24597  10.886  10.191   5.968 -0.2998  0.1830  0.0875
81545W        W24598   0.752  16.814   0.430  0.0250  0.1091  0.0416
81546W        W24599  21.377  23.875   7.634 -0.0451  0.0246 -0.1205
81547W        W24600   9.273  16.557  22.436 -0.0893  0.0782 -0.2238
81548W        W24601   9.872  12.987  24.110  0.1310 -0.2292 -0.2742
81549W        W24602  13.494   4.038  22.216 -0.2497 -0.1602 -0.3117
81550W        W24603  34.098   7.053   7.745 -0.2335 -0.1967  0.0507
81551W        W24604  14.877  16.790  24.826  0.0792  0.0701 -0.0028
81552W        W24605  13.812   8.221   4.585  0.3847  0.0904 -0.0734
81553W        W24606  12.828  26.151   1.457 -0.1381  0.2115  0.1055
81554W        W24607  17.051  25.421   7.088  0.1264  0.1299  0.1519
81555W        W24608  23.460   1.021   5.588  0.1325 -0.1726  0.1330
81556W        W24609  33.863  13.566  28.510  0.0527  0.2113  0.0434
81557W        W24610   4.218  21.827  26.899 -0.0093  0.2746 -0.0665
81558W        W24611  15.469  19.761  10.318  0.0973  0.3968  0.2222
81559W        W24612  10.572   5.598   1.740 -0.0378 -0.4324 -0.0533
81560W        W24613   3.407  22.235   2.485 -0.1272  0.1645  0.1018
81561W        W24614  33.668  13.700  22.978  0.0441  0.3428 -0.2458
81562W        W24615   7.104  28.028   3.640 -0.3195  0.3418  0.1465
81563W        W24616  21.944  22.741   5.959 -0.0752 -0.1563  0.0391
81564W        W24617  32.343  21.971  28.628 -0.1490  0.3217 -0.0844
81565W        W24618   5.963  22.282   4.544  0.2436  0.2000  0.2679
81566W        W24619  28.356  24.722   9.764 -0.1988 -0.2046 -0.1591
81567W        W24620   3.960   1.187   2.990  0.1169  0.1321  0.1378
81568W        W24621   3.959  31.528  20.513  0.2279 -0.2020  0.1221
81569W        W24622   5.647  27.577   5.812 -0.1959  0.2466  0.1686
81570W        W24623   5.575  14.369   1.925 -0.2164 -0.0861  0.0373
81571W        W24624  19.991  28.202  26.552  0.0830 -0.0149  0.1690
81572W        W24625  22.263  31.817  28.826 -0.1776 -0.3014 -0.1014
81573W        W24626   6.273  25.844  28.245  0.0227 -0.1951  0.1183
81574W        W24627   9.309   1.460   0.428  0.1337 -0.1407 -0.0762
81575W        W24628   7.064  12.622   5.869 -0.2269 -0.1497  0.0147
81576W        W24629   4.994  12.052   0.463 -0.0658 -0.0290  0.0062
81577W        W24630  25.476   9.811  23.689  0.1128 -0.2436  0.0184
81578W        W24631   6.452   6.875   6.552 -0.0756  0.1554  0.2935
81579W        W24632   1.189  13.396   8.211  0.3617 -0.0166 -0.0191
81580W        W24633  13.842  21.336   5.664  0.1561 -0.1057 -0.0579
81581W        W24634   4.478   9.213  26.990  0.0024 -0.0246  0.0542
81582W        W24635   8.385  25.608   8.316  0.2819  0.0651 -0.0079
81583W        W24636   0.994  10.324   3.289  0.0104  0.0263  0.0891
81584W        W24637  19.878  22.317   1.662 -0.2519  0.0078 -0.1925
81585W        W24638  25.161   0.665   1.975  0.0875 -0.2848  0.1212
81586W        W24639   0.784   9.813  26.259  0.2173  0.2848 -0.0413
81587W        W24640   5.595  25.273   7.704 -0.0919 -0.2891 -0.2222
81588W        W24641   4.246   8.662   8.165 -0.2861 -0.1718  0.2601
81589W        W24642  15.784   7.654  23.372 -0.1561 -0.3056  0.2270
81590W        W24643   6.369  12.354  25.920  0.0141  0.2284  0.0842
81591W        W24644  31.484  25.177  26.749  0.0066  0.0419 -0.1308
81592W        W24645  11.873  24.451  20.701  0.2082  0.0297  0.2968
81593W        W24646  34.012  13.666   4.972  0.1168 -0.2146  0.2477
81594W        W24647  28.914  17.720  26.951  0.0656  0.1791 -0.2622
81595W        W24648   0.643   9.539  25.823  0.4256  0.0441  0.0099
81596W        W24649  21.391  27.080  17.252  0.0560  0.0862  0.0337
81597W        W24650   7.681  30.609  24.576 -0.0566 -0.1552 -0.1932
81598W        W24651  26.820  26.075   7.107 -0.4545  0.0054 -0.0087
81599W        W24652   8.644  17.800   5.557  0.1263 -0.2703  0.0386
81600W        W24653  11.800  15.053   0.116 -0.1474  0.0642  0.0306
81601W        W24654  30.037  21.588   7.041  0.2609  0.2445 -0.0831
81602W        W24655  22.526  10.922   5.340 -0.4906 -0.3207  0.2485
81603W        W24656  31.456  18.883   2.450 -0.1687 -0.2144 -0.3771
81604W        W24657  30.538  25.676  28.753  0.0424 -0.3077 -0.2746
81605W        W24658  27.189  11.285   3.292  0.0679  0.0068  0.1328
81606W        W24659  25.145   7.415  26.101 -0.1604 -0.0572  0.1478
81607W        W24660  34.372  17.588  20.396  0.2108 -0.1441  0.0735
81608W        W24661   5.419  28.778   8.555  0.1837  0.4534  0.0852
81609W        W24662  31.891  16.799   4.502  0.0615  0.1973 -0.0226
81610W        W24663  18.673   3.250  18.772  0.0122 -0.0662 -0.0279
81611W        W24664  20.881   3.192   7.718 -0.2263 -0.1642  0.1351
81612W        W24665   0.503   8.735   9.987 -0.2023 -0.1694 -0.1805
81613W        W24666   1.425  17.660   6.382 -0.0043 -0.3951 -0.0577
81614W        W24667  17.089   3.782   3.436  0.0097  0.0886  0.0733
81615W        W24668  31.022  22.850   7.384 -0.4343 -0.3340  0.3152
81616W        W24669  20.116   9.037   3.507  0.1846 -0.0201  0.2099
81617W        W24670  29.753   9.897   3.179 -0.0580  0.1689 -0.1812
81618W        W24671  10.816  20.926  27.447  0.1021  0.3343 -0.0065
81619W        W24672   0.608  15.806   2.549  0.1759  0.2254 -0.1550
81620W        W24673  18.877  14.170  10.169  0.1935 -0.1114  0.2393
81621W        W24674  22.577  16.303  25.719 -0.1631 -0.1045 -0.0822
81622W        W24675  12.798  21.092  22.756 -0.1740 -0.0167 -0.0694
81623W        W24676  30.592  25.436  27.522  0.1925 -0.3533 -0.1006
81624W        W24677  28.640  12.765  27.632 -0.0660 -0.0121  0.1618
81625W        W24678   7.507  23.803   3.827  0.0259  0.1422  0.1439
81626W        W24679  17.149  11.700   4.727  0.1523  0.1991  0.3446
81627W        W24680  20.226  33.544   7.338  0.0771  0.4371 -0.3386
81628W        W24681   3.258  25.405   9.384 -0.3280 -0.0904  0.1181
81629W        W24682  10.120   9.898  10.233 -0.1338  0.2272 -0.0549
81630W        W24683   8.162  11.219   8.673  0.0523 -0.1488 -0.0785
81631W        W24684  11.940  31.016  24.277  0.2654 -0.0135 -0.2663
81632W        W24685   5.796   9.571   1.336 -0.0225  0.1327 -0.1889
81633W        W24686  16.828  32.326   2.210 -0.1880  0.2419  0.0341
81634W        W24687  13.806  29.843   6.924 -0.3254  0.1747 -0.1942
81635W        W24688  10.599  30.385   5.972 -0.2214 -0.2667 -0.1266
81636W        W24689   8.693  23.109   1.527  0.0394  0.2195 -0.0981
81637W        W24690   2.341  19.021   4.242  0.2147 -0.0923 -0.0326
81638W        W24691   0.960  11.108   0.674  0.2797  0.0710  0.0048
81639W        W24692  12.127  34.038  14.885 -0.0559 -0.2230  0.3376
81640W        W24693  12.637  23.529   6.489  0.0272  0.1123  0.0219
81641W        W24694  33.873  26.517  29.008  0.0385  0.2000 -0.1928
81642W        W24695  17.608  22.090  25.055 -0.2169  0.3410 -0.1325
81643W        W24696  10.106   0.968   8.157  0.2436  0.0160  0.1066
81644W        W24697   1.850  15.443   4.849 -0.2282 -0.1350 -0.0653
81645W        W24698   7.508  11.154   4.118  0.4499  0.0380 -0.0256
81646W        W24699   9.329  28.368   8.777 -0.0583  0.2009 -0.0444
81647W        W24700  14.955  18.579   3.580  0.3134  0.0654  0.0160
81648W        W24701   0.688  14.986   4.182  0.2840  0.2569 -0.0383
81649W        W24702  32.530   3.966   2.795 -0.1067  0.2340  0.0595
81650W        W24703  12.046  11.619   8.480  0.4232  0.0288 -0.2565
81651W        W24704  15.398  15.031   7.752  0.3747 -0.0791 -0.1082
81652W        W24705  11.114   4.452   4.230  0.1188 -0.3456  0.0956
81653W        W24706  29.145  12.401   8.844  0.3648 -0.2377  0.0998
81654W        W24707   7.351  20.817   4.274 -0.0154 -0.2799  0.1174
81655W        W24708  18.485  32.808   9.797  0.4139 -0.1492  0.0176
81656W        W24709   1.170   6.679  21.387  0.0112  0.1417 -0.2335
81657W        W24710  19.029   5.041  23.012 -0.2416 -0.2953 -0.3049
81658W        W24711  23.887  13.581  28.479  0.0255 -0.1397 -0.0715
81659W        W24712   6.410  14.024  24.578  0.4483  0.0839  0.2676
81660W        W24713  33.946  13.011   2.880 -0.2080  0.1090 -0.1783
81661W        W24714   1.903  18.246   6.612  0.0045 -0.0331 -0.0120
81662W        W24715  29.994  25.217  24.369  0.5711 -0.2110 -0.0405
81663W        W24716  31.097  25.478   4.715  0.0911  0.3350 -0.1400
81664W        W24717   8.648   7.158  23.291  0.0077  0.0221  0.0989
81665W        W24718   6.483   0.846   4.291 -0.2690 -0.0597 -0.1213
81666W        W24719  29.236  10.110   9.150 -0.1304  0.2037  0.0224
81667W        W24720  12.271   5.368   9.186 -0.3590 -0.1624 -0.0691
81668W        W24721  22.352  21.200  27.425 -0.1937 -0.1190 -0.0579
81669W        W24722  12.372  23.520   4.652  0.1865  0.2489 -0.2999
81670W        W24723  10.453  19.590   7.134  0.0975 -0.0616 -0.0337
81671W        W24724   6.212  20.347   1.581  0.0760  0.0511  0.1273
81672W        W24725   5.455  12.894  27.668  0.1023  0.1192 -0.0786
81673W        W24726  10.744  34.649  27.977  0.1650 -0.1642  0.3411
81674W        W24727  17.096  29.560   5.910 -0.3464  0.2366  0.1864
81675W        W24728  19.391  20.170   7.933  0.0589 -0.1930 -0.3358
81676W        W24729   8.961   8.344   5.200  0.2062 -0.0543 -0.2098
81677W        W24730   6.926  32.388   7.887 -0.0072 -0.1110 -0.2528
81678W        W24731  24.607  24.320   0.131 -0.1301 -0.2259  0.0126
81679W        W24732  19.008   3.740  20.269 -0.1587  0.0860 -0.0086
81680W        W24733  33.540  16.937   2.062 -0.0697  0.5257 -0.4094
81681W        W24734  23.123  17.109  21.672  0.2809  0.0152 -0.2673
81682W        W24735  28.582  12.664  28.168  0.0137 -0.2649  0.1002
81683W        W24736  28.311   7.793   8.989 -0.5748 -0.2663  0.0356
81684W        W24737  10.161   2.250  23.850  0.2388  0.0432  0.0423
81685W        W24738   3.257  25.462   6.273 -0.0382  0.2216  0.2841
81686W        W24739   5.704  26.545  15.616 -0.1735  0.0452 -0.2060
81687W        W24740   5.795  28.602  29.015  0.2166  0.1168 -0.0561
81688W        W24741  12.095  13.297  26.130 -0.1441  0.0568 -0.1415
81689W        W24742   3.264   7.340  21.236  0.2318 -0.1772  0.3088
81690W        W24743   5.553  25.067   0.572  0.1591 -0.2999  0.1114
81691W        W24744  32.519  31.050  24.638 -0.1365 -0.2106  0.1333
81692W        W24745  32.702   4.439  27.559  0.3086  0.0441 -0.0034
81693W        W24746  22.469  33.963   2.592  0.0374  0.0078 -0.1345
81694W        W24747  32.447   6.818   0.824  0.2985  0.0641 -0.3434
81695W        W24748  30.641  24.162   4.494 -0.0599 -0.0289  0.2752
81696W        W24749  26.475  27.629   9.518 -0.0876 -0.0537 -0.2372
81697W        W24750  17.858  23.495  28.718  0.1794  0.1715  0.2150
81698W        W24751   1.418  19.160   6.675 -0.0593  0.1412 -0.3551
81699W        W24752  14.576  16.650   3.365 -0.0917 -0.0219 -0.1504
81700W        W24753   9.057  22.516   3.813 -0.2298 -0.4000 -0.5118
81701W        W24754   9.794  18.218   8.641  0.1300 -0.3003  0.0760
81702W        W24755  29.691  10.958   1.870 -0.1723 -0.1235  0.5653
81703W        W24756   8.154  13.366  26.152 -0.0140  0.4732  0.0361
81704W        W24757  13.396   8.016   2.468  0.1157  0.2659 -0.0918
81705W        W24758  32.969  32.640   7.174 -0.1125  0.0298  0.0566
81706W        W24759  15.328  18.057   7.358 -0.1684 -0.1365 -0.1673
81707W        W24760   9.718   5.315   4.358 -0.0122 -0.0238  0.0231
81708W        W24761  10.215   3.158  27.390 -0.0665 -0.0242  0.4339
81709W        W24762   1.694   8.053   5.365  0.1233  0.0575  0.0091
81710W        W24763   5.617   8.339   9.250  0.0059  0.0474 -0.2696
81711W        W24764  14.381  22.454   4.732 -0.0420  0.2453 -0.0372
81712W        W24765  18.079   5.598  21.044 -0.0134  0.0852 -0.0161
81713W        W24766   4.179  17.468   3.022 -0.2405  0.1004 -0.0401
81714W        W24767  12.964  19.359  28.147  0.3818  0.0020 -0.1074
81715W        W24768  19.440   1.223   5.436  0.0687 -0.2606 -0.1028
81716W        W24769  29.981   5.787  26.260 -0.0753  0.0653 -0.1536
81717W        W24770  28.519  27.936   1.439  0.0535  0.0948  0.2112
81718W        W24771   9.585   9.757  20.208 -0.2200  0.1186  0.3318
81719W        W24772  12.243  18.677   7.332 -0.0537 -0.0419 -0.0605
81720W        W24773  22.259  14.017  22.144  0.2625 -0.1463 -0.0239
81721W        W24774  18.713  16.134  15.641  0.0089 -0.1468  0.1654
81722W        W24775  34.063  17.530  26.693  0.3065  0.1592  0.1450
81723W        W24776  13.013  14.724   7.021 -0.2771  0.4602 -0.0795
81724W        W24777   7.719  25.668   5.107  0.0769  0.3372  0.0894
81725W        W24778  23.833   9.923   2.849  0.0482  0.0212 -0.1670
81726W        W24779  14.322  10.225   1.223 -0.0613  0.0924  0.1413
81727W        W24780   4.016   0.273   6.766 -0.3438  0.0274 -0.0455
81728W        W24781  32.334  14.747   2.065 -0.1788  0.0179 -0.0915
81729W        W24782  15.559   7.749   0.310 -0.0408 -0.1567 -0.1372
81730W        W24783   4.724  13.679  10.461 -0.1798  0.1565  0.1680
81731W        W24784  12.241  13.525   9.734 -0.2375  0.2289  0.0311
81732W        W24785   7.488  32.260   3.183  0.1240 -0.1167 -0.2395
81733W        W24786   8.267  21.091   4.397  0.1551 -0.0929  0.0763
81734W        W24787  14.980   9.793   9.199 -0.0496 -0.3496  0.3046
81735W        W24788   3.615  23.438   0.646  0.1665 -0.1432  0.1493
81736W        W24789  15.655   0.404  27.456  0.0306 -0.1930 -0.1920
81737W        W24790   7.795   3.311  16.279 -0.2159  0.2877  0.2621
81738W        W24791   0.902   9.899   6.771  0.2993 -0.1227 -0.1123
81739W        W24792  10.121  30.659  26.813 -0.0104 -0.0789 -0.1449
81740W        W24793  17.426  20.945  23.511 -0.1200 -0.4235 -0.0131
81741W        W24794   5.920  10.296   4.853  0.1811  0.3062 -0.1724
81742W        W24795   5.269  25.524   4.490  0.0138  0.0051 -0.1806
81743W        W24796  17.164  22.456   4.387  0.1139 -0.1228  0.0923
81744W        W24797   5.162   2.465   1.754  0.0862  0.0263  0.2329
81745W        W24798  20.238  10.499   2.481 -0.2734  0.1517 -0.0112
81746W        W24799   1.029   9.323   7.891 -0.2275 -0.3268 -0.1727
81747W        W24800   2.315  13.984   4.913  0.1699  0.2199  0.2902
81748W        W24801  34.644  18.866  24.603  0.1156 -0.1412 -0.0424
81749W        W24802  27.861  25.591  29.018  0.0719  0.1352  0.1478
81750W        W24803  33.057  28.390  22.658 -0.2564 -0.2001  0.2705
81751W        W24804  32.024  17.536  23.954  0.0070 -0.0667 -0.1802
81752W        W24805  26.118  21.073   6.057  0.3708 -0.0496  0.1264
81753W        W24806  29.242  33.660  24.564 -0.0198  0.1528  0.2254
81754W        W24807  11.089  21.617   3.950 -0.1608  0.0317 -0.2012
81755W        W24808  14.631  26.419  27.763 -0.0083 -0.2528  0.0621
81756W        W24809  17.177  16.234   5.263  0.0993 -0.1327 -0.0563
81757W        W24810  19.717  17.042   9.105  0.2412  0.3834 -0.0530
81758W        W24811  34.222  16.836  29.133  0.2191 -0.0087 -0.0688
81759W        W24812  19.761  30.404   6.061 -0.2028  0.3352 -0.2908
81760W        W24813   1.776  31.568   0.865 -0.0905  0.2810  0.2084
81761W        W24814   8.975  18.136   7.533  0.1665  0.0818 -0.2240
81762W        W24815   8.004  33.178  16.610 -0.0070  0.0931  0.1443
81763W        W24816  27.697  19.212  27.512 -0.1811 -0.1556 -0.3758
81764W        W24817   1.713   6.333   2.416 -0.0525  0.0156 -0.4498
81765W        W24818   8.321  20.723  27.034  0.1079  0.1402 -0.0867
81766W        W24819  32.454   4.094   6.506 -0.3547 -0.0045  0.2746
81767W        W24820   2.320   0.676   3.340  0.2753  0.0319  0.2040
81768W        W24821   4.413  11.068   7.741  0.3706  0.1470  0.0711
81769W        W24822  22.514  27.480  28.111 -0.1876  0.4331  0.1596
81770W        W24823   5.360  23.339  28.324  0.2575  0.1391 -0.0941
81771W        W24824   8.548  14.117   1.988  0.3165  0.0839 -0.0011
81772W        W24825  25.213  23.225   2.538 -0.1887 -0.0753  0.1871
81773W        W24826  30.149  10.473   3.015 -0.0893  0.3387  0.1433
81774W        W24827  29.446  27.772  24.284  0.2230 -0.1166  0.0440
81775W        W24828   9.260  26.231  21.496  0.0985 -0.3254 -0.0104
81776W        W24829  13.389  14.615   7.391  0.1101  0.0620  0.0001
81777W        W24830  26.026  12.901  27.793  0.4414 -0.0272 -0.0634
81778W        W24831  19.623  29.843  28.473 -0.2623 -0.2151 -0.1378
81779W        W24832   9.398  27.911  28.756 -0.2630 -0.0217 -0.3193
81780W        W24833  11.710  26.751   2.483 -0.0409 -0.2325  0.0307
81781W        W24834  13.223  16.915  24.477 -0.2799 -0.1935  0.0944
81782W        W24835  11.589  22.403   0.381  0.0795  0.0619  0.1044
81783W        W24836   2.318   6.729  24.569  0.0267 -0.2494  0.1990
81784W        W24837   2.075   3.061   4.377  0.2432 -0.0029  0.1787
81785W        W24838  12.961  10.607  29.033 -0.2228 -0.1492  0.0290
81786W        W24839  25.110  17.271   6.898  0.4008 -0.0955  0.1067
81787W        W24840  32.098  29.439   5.315  0.0951 -0.1869  0.0418
81788W        W24841   1.465  29.100   3.308 -0.1141  0.2863 -0.2896
81789W        W24842  15.555  18.297   9.201 -0.3726 -0.0503  0.2270
81790W        W24843  27.205   6.656  23.441  0.0423  0.2737  0.0918
81791W        W24844  15.213  11.598   6.570  0.1491 -0.1811 -0.2094
81792W        W24845  20.124  14.967   4.853 -0.5358  0.0172 -0.0568
81793W        W24846   9.703   7.725   7.159  0.3953  0.0732 -0.2731
81794W        W24847  11.131  16.458   8.232  0.0478 -0.0295 -0.1004
81795W        W24848  11.327   7.300  27.077 -0.2699 -0.2801 -0.2503
81796W        W24849   0.850  15.472   2.243  0.1297 -0.2210 -0.2217
81797W        W24850  12.105  29.235   0.804  0.1794 -0.0510 -0.0765
81798W        W24851  32.407   2.586   0.111  0.2096 -0.0643  0.0591
81799W        W24852   6.465   3.138   0.281 -0.1514  0.0818  0.0404
81800W        W24853  14.640  14.458  21.227  0.0193 -0.2551 -0.0691
81801W        W24854   4.218   7.321   8.588 -0.0444  0.1411 -0.0197
81802W        W24855  11.353  24.542   7.014  0.1825  0.0736 -0.0363
81803W        W24856  33.784  12.230  25.068 -0.2318 -0.0930  0.0584
81804W        W24857  17.704  14.320   4.322 -0.3008  0.4843  0.1443
81805W        W24858  26.616  19.842   2.383 -0.0031 -0.3431  0.0652
81806W        W24859   5.637  20.808   4.557  0.1276  0.2254 -0.0848
81807W        W24860  14.971   4.583   8.651 -0.1934  0.0132 -0.0842
81808W        W24861   8.506   9.835   2.187 -0.2346  0.0476  0.2265
81809W        W24862  14.270  19.568   9.952  0.1537 -0.1018  0.0232
81810W        W24863   8.085  30.694   6.132  0.1534 -0.1205 -0.2903
81811W        W24864   5.800  11.964   0.548  0.2123  0.3307 -0.1562
81812W        W24865  25.600  14.851   2.910 -0.0323  0.0936 -0.0433
81813W        W24866   8.203   2.728  24.933 -0.1725 -0.0382  0.2760
81814W        W24867  33.191   4.400  26.727  0.0125  0.2975  0.1832
81815W        W24868  11.298   1.685   8.913  0.1308  0.0992  0.0867
81816W        W24869   5.813  10.890  21.957 -0.0368 -0.1074 -0.1844
81817W        W24870  24.439  14.543  27.945  0.3131 -0.3150  0.1588
81818W        W24871  28.974  24.757  21.404 -0.3662  0.1240 -0.3217
81819W        W24872  34.172  13.166  23.067  0.1615 -0.1131  0.2975
81820W        W24873  31.397  14.448  27.335 -0.2093  0.2283 -0.0407
81821W        W24874  10.456  28.168   1.104 -0.2720  0.4193  0.0135
81822W        W24875  25.794   2.525   0.794 -0.3614 -0.3875  0.1297
81823W        W24876  16.164  26.584  25.904  0.3149  0.1560 -0.0729
81824W        W24877  15.032  11.010  26.694  0.1671 -0.0867 -0.2536
81825W        W24878  26.956  18.541   7.649 -0.3362  0.2334 -0.0029
81826W        W24879  10.369  21.098   0.294 -0.0311  0.1003  0.0347
81827W        W24880  34.089  21.180  18.443 -0.2412  0.0587 -0.0358
81828W        W24881   8.011  20.031   7.899 -0.3318  0.0670  0.2155
81829W        W24882   7.654  30.761   3.887  0.1383 -0.0699 -0.0477
81830W        W24883   4.795  21.408  25.479 -0.3702 -0.1623  0.1462
81831W        W24884  26.826  17.699   1.072 -0.0498 -0.1648 -0.0676
81832W        W24885  16.029  25.832   8.759  0.4092  0.1272 -0.1867
81833W        W24886  14.153  31.686  25.409 -0.2361 -0.1072 -0.2101
81834W        W24887   0.251   4.432   6.783  0.2566 -0.1272 -0.3198
81835W        W24888  30.514  27.350  28.878 -0.0794  0.3423  0.2542
81836W        W24889   4.909  16.127   8.988  0.2034  0.0850 -0.1193
81837W        W24890   7.405   8.724  25.934  0.1435 -0.0665  0.0537
81838W        W24891  14.275  20.654   2.942  0.1057 -0.0099 -0.1555
81839W        W24892  22.570  17.180  17.004  0.0794  0.0419 -0.2064
81840W        W24893  25.452  12.522   0.979  0.0341 -0.3122 -0.1340
81841W        W24894  14.983  16.327  26.197 -0.0884  0.0673  0.4347
81842W        W24895   8.169  18.554   7.818  0.2224 -0.1844  0.0350
81843W        W24896  23.024   6.123  27.170 -0.1386  0.2965  0.2518
81844W        W24897   5.909   9.688  10.195 -0.0279  0.0359  0.0852
81845W        W24898   6.378   9.844   9.771 -0.0089  0.1462 -0.0306
81846W        W24899   1.114  11.928  22.662 -0.0499  0.3419  0.0187
81847W        W24900   6.738  14.957   5.899 -0.3437 -0.0029 -0.1130
81848W        W24901  11.595  23.899   6.726  0.2065 -0.0990  0.2911
81849W        W24902   6.038  30.237  16.625 -0.4352 -0.0480  0.0747
81850W        W24903   2.573   8.055   6.653 -0.2412 -0.0083 -0.0319
81851W        W24904  15.737  17.182   6.412  0.1171 -0.1545  0.3442
81852W        W24905   4.379  15.397  28.312 -0.0744  0.0055 -0.0333
81853W        W24906   4.318  22.722   8.991  0.1242  0.3483 -0.0277
81854W        W24907  16.721  23.222   0.625 -0.2402 -0.2969  0.1345
81855W        W24908  30.616  30.596   6.611  0.2363 -0.0891  0.2830
81856W        W24909   9.183  11.036   4.894  0.0594  0.3471 -0.0349
81857W        W24910  16.127  14.737   2.894 -0.1874 -0.1125  0.1769
81858W        W24911  33.294  10.395   2.460 -0.3558  0.2920  0.0930
81859W        W24912  10.451  13.967   3.663  0.2440 -0.0007 -0.1545
81860W        W24913  33.535  26.638  26.354  0.0240  0.1947  0.0561
81861W        W24914  17.239   7.336   8.662 -0.1478 -0.0783 -0.1387
81862W        W24915  29.347   6.490   0.046  0.1875 -0.0397 -0.3389
81863W        W24916  11.919  31.409   2.082 -0.2384  0.0112 -0.0833
81864W        W24917   7.055  11.466  23.202  0.2339  0.1479 -0.0018
81865W        W24918   7.468   0.933   3.141 -0.1923 -0.2951  0.2853
81866W        W24919   3.897   8.790   1.513  0.0462  0.1319  0.1967
81867W        W24920  27.552   9.402  26.014 -0.2000 -0.0851 -0.1993
81868W        W24921   8.718  29.679   0.076 -0.1637 -0.0472  0.4018
81869W        W24922  16.607  33.075   9.200  0.0205 -0.1779  0.1937
81870W        W24923  11.953   4.898   7.310 -0.0177  0.0998 -0.1048
81871W        W24924   5.069  31.979  19.705  0.0197 -0.0714 -0.2989
81872W        W24925   6.617  19.657   5.712 -0.1471 -0.1899  0.1194
81873W        W24926  34.073  20.783  21.170 -0.0424 -0.2586  0.1251
81874W        W24927  22.793  14.153   2.552  0.0947  0.0779  0.0020
81875W        W24928  18.105  26.725  25.994 -0.0055  0.1530 -0.1957
81876W        W24929  14.638  31.802   7.601 -0.0878 -0.1321  0.2934
81877W        W24930  14.917  17.299  22.886  0.4117 -0.0144  0.1328
81878W        W24931  16.425  18.267   2.522  0.3154  0.1072  0.0609
81879W        W24932  26.555  14.266  21.653  0.0124 -0.2511  0.0489
81880W        W24933  13.446  28.319   5.662  0.0607  0.1552  0.1516
81881W        W24934   0.423  20.577  17.489  0.0747  0.3651 -0.0331
81882W        W24935   5.469   5.563   9.964  0.2214 -0.1483 -0.0610
81883W        W24936  20.594  13.328   4.201 -0.0553 -0.0691  0.3779
81884W        W24937   3.118   0.433   8.126 -0.0913 -0.0079 -0.0644
81885W        W24938   7.146  20.413   6.037 -0.1550  0.0894  0.1074
81886W        W24939   8.268   9.888   3.636 -0.0725  0.1327  0.2507
81887W        W24940  12.001   1.936   9.406  0.0561 -0.2365 -0.2423
81888W        W24941  30.263  20.542  26.895  0.1350 -0.1567 -0.0271
81889W        W24942  13.817  10.390   7.037 -0.0419  0.2362 -0.0522
81890W        W24943  16.103  22.623  27.309 -0.0927  0.2808 -0.0848
81891W        W24944  13.839  10.317  26.551  0.1342  0.0277 -0.0410
81892W        W24945  15.582  17.590  15.183 -0.1907 -0.3978  0.0733
81893W        W24946   5.918  20.798   8.867 -0.0923 -0.2269  0.2157
81894W        W24947   8.573  20.208   8.785 -0.1064  0.1586 -0.0602
81895W        W24948  24.834   9.799  22.813 -0.0474 -0.0759 -0.1573
81896W        W24949  19.477  12.823   4.191 -0.3232 -0.1731  0.3482
81897W        W24950   8.331   5.443   6.862 -0.1027  0.2159 -0.0914
81898W        W24951   5.983  16.367   6.281  0.2155  0.2719  0.1151
81899W        W24952   9.930  23.573   5.874  0.0435 -0.1845 -0.1209
81900W        W24953  27.274  26.943   9.001 -0.0183  0.1424  0.0237
81901W        W24954  22.995  15.180   1.647  0.1833  0.4001  0.4838
81902W        W24955   8.497   1.492  24.429  0.4251 -0.1688 -0.1022
81903W        W24956  16.228  11.291   5.204 -0.1737  0.1070  0.1683
81904W        W24957   9.133  13.801   1.188 -0.1029 -0.0153  0.1776
81905W        W24958   3.116   9.484  19.447  0.0588  0.2685  0.0514
81906W        W24959   2.515  12.343   4.791 -0.0996 -0.3118  0.0240
81907W        W24960  17.759  13.890  14.605  0.0951  0.1109 -0.0624
81908W        W24961  19.063  26.040  11.294 -0.0698 -0.0453  0.3329
81909W        W24962  16.304  30.517   1.438 -0.0408  0.1989  0.3864
81910W        W24963  10.740  19.883   2.376  0.2640  0.3660 -0.0037
81911W        W24964  21.901   4.565   0.135 -0.1967  0.0424 -0.0475
81912W        W24965  10.739  13.882  25.658  0.0161  0.2202 -0.0197
81913W        W24966  11.822  13.994  22.215 -0.3419  0.2033 -0.0362
81914W        W24967  15.696  24.722  22.711 -0.1458  0.0576 -0.3342
81915W        W24968  33.351  17.296  18.579  0.2016 -0.0541 -0.0445
81916W        W24969  32.601  31.378   7.616 -0.1160 -0.0034 -0.3552
81917W        W24970   3.088  12.458   1.208 -0.2750 -0.0603  0.0899
81918W        W24971  16.950   7.069   8.069  0.0139  0.0326  0.0788
81919W        W24972  12.649   3.424  28.657  0.1910 -0.1311 -0.2525
81920W        W24973   2.263  15.671   4.551 -0.2388 -0.4450  0.0958
81921W        W24974  31.463   7.798  27.140  0.3338  0.2318 -0.1219
81922W        W24975  10.630  30.735   2.517  0.2211 -0.2453  0.1271
81923W        W24976  33.643  11.841   5.080 -0.0192 -0.0759  0.1852
81924W        W24977  10.156  12.358  27.754  0.0293 -0.0417  0.2316
81925W        W24978   7.301   7.544   9.122 -0.1745  0.1500 -0.0861
81926W        W24979  16.029  26.859   8.906  0.1995 -0.1435  0.2201
81927W        W24980  14.875  24.047   8.762  0.2073  0.2516 -0.1846
81928W        W24981   4.232  12.548   6.237 -0.1663  0.1096  0.0349
81929W        W24982  20.790   8.750   7.648  0.0350 -0.1782 -0.1518
81930W        W24983   8.308  13.844   9.940 -0.0055 -0.1806 -0.3457
81931W        W24984   1.334   7.312   7.031  0.1302 -0.3788  0.2690
81932W        W24985  16.054  17.195   0.527  0.2920  0.2236 -0.1092
81933W        W24986  15.473   8.438   0.806  0.1971 -0.2282  0.2605
81934W        W24987  21.718  21.950  10.063  0.2263  0.0358  0.1644
81935W        W24988   2.624  14.087   5.455  0.3261 -0.0603  0.0437
81936W        W24989  13.238   4.751   3.709 -0.2979  0.0418 -0.0573
81937W        W24990  16.044  12.839   0.741 -0.0858  0.3273  0.0238
81938W        W24991   5.996  15.363   7.866 -0.1304  0.1141  0.1915
81939W        W24992   4.094  12.523   8.270 -0.0893 -0.1595 -0.2027
81940W        W24993   7.135  13.075   8.788 -0.0273  0.0213 -0.0424
81941W        W24994  18.760  16.481   2.428 -0.2976 -0.1425 -0.2311
81942W        W24995  23.244  10.044  28.766 -0.2373  0.0673 -0.3041
81943W        W24996   3.713  29.764   5.122  0.1718 -0.1109 -0.2425
81944W        W24997  31.768  11.374  27.195 -0.2032  0.1882  0.1933
81945W        W24998  33.500   1.874  20.076  0.0275 -0.1386 -0.2695
81946W        W24999   0.724  10.937  21.299 -0.1575  0.2018 -0.1341
81947W        W25000   7.231  14.704   1.590 -0.2010  0.1296  0.1093
81948W        W25001  15.390  18.648  25.729  0.0422 -0.3045  0.0537
81949W        W25002  11.940  10.193   6.241  0.1419 -0.2530  0.1184
81950W        W25003   5.392  11.651  24.680 -0.1579 -0.3882 -0.3669
81951W        W25004  17.777  15.675  29.134 -0.1047  0.1071  0.1711
81952W        W25005   4.293  19.626   4.126 -0.1092  0.3005 -0.0056
81953W        W25006  18.837   9.015  28.483 -0.0015  0.1614 -0.1769
81954W        W25007  31.270  21.330   3.377 -0.1524 -0.0456 -0.0941
81955W        W25008  17.328  27.216   0.071 -0.5394  0.0539  0.1219
81956W        W25009  32.442   7.590   3.051  0.2496  0.1857  0.1200
81957W        W25010  20.591  19.734   4.048 -0.1381 -0.1257  0.0914
81958W        W25011   4.232  16.975   3.131  0.3770 -0.0843  0.3463
81959W        W25012   9.071  13.249  26.687 -0.7012  0.0913  0.1746
81960W        W25013  25.411   0.489   7.901 -0.1254 -0.0239 -0.0831
81961W        W25014   0.647  23.530   7.844  0.1142  0.1363 -0.2136
81962W        W25015  21.858  29.699  27.525  0.3462 -0.4412 -0.1061
81963W        W25016  18.535   8.112   7.303 -0.2823 -0.3296  0.4145
81964W        W25017  18.510   3.812   7.276  0.0233 -0.2558 -0.0828
81965W        W25018  25.932   0.070  24.551 -0.2735 -0.1191 -0.0571
81966W        W25019  26.999  12.466  25.292  0.2126 -0.0399 -0.1253
81967W        W25020   0.627  27.346   2.499 -0.1251 -0.0544  0.1527
81968W        W25021  16.322   5.217  25.279 -0.3135 -0.2206  0.1849
81969W        W25022  21.751  18.663   4.518 -0.2470 -0.4447 -0.3983
81970W        W25023  16.495  14.288   1.332 -0.2055 -0.1334  0.0448
81971W        W25024  22.138   9.866   8.857  0.0025 -0.0862  0.2554
81972W        W25025   3.454   6.613   5.126 -0.0215  0.1527  0.1335
81973W        W25026  15.556  12.734   0.858 -0.4044  0.2257 -0.3081
81974W        W25027  25.314  18.805  27.596  0.0189  0.0158  0.0356
81975W        W25028   3.481  33.577   4.128 -0.0311 -0.0837  0.0401
81976W        W25029  20.489  11.693   7.632  0.0952  0.2555  0.3833
81977W        W25030   5.959   4.931   5.371  0.3875 -0.0733  0.1243
81978W        W25031   5.336  19.938   2.242  0.3583 -0.0235 -0.2332
81979W        W25032   5.090  20.874   8.401 -0.1533 -0.1815 -0.0797
81980W        W25033   6.320  34.291   1.520 -0.1885 -0.1648  0.1539
81981W        W25034  11.025  19.472   4.114 -0.1316 -0.2417  0.0345
81982W        W25035   7.990  20.973   4.885 -0.0987 -0.0007 -0.0430
81983W        W25036  28.803  28.546  26.262 -0.0979 -0.1606 -0.0124
81984W        W25037  23.672  10.104  26.917 -0.1449 -0.1557  0.0936
81985W        W25038   3.535   6.544   1.693  0.0094 -0.0581  0.1165
81986W        W25039   4.165  11.126   1.931 -0.0662  0.1155 -0.2714
81987W        W25040   0.995  22.025   3.459  0.2387 -0.1204  0.2508
81988W        W25041  29.613  15.846  26.839  0.4939  0.0001 -0.1319
81989W        W25042  34.022  11.374   0.220 -0.0609  0.2681  0.0059
81990W        W25043   4.920  24.417   6.127  0.0142 -0.1825  0.1662
81991W        W25044  34.664  32.427   7.931  0.0320  0.0350 -0.3029
81992W        W25045   8.477   2.832   4.128 -0.2774 -0.0083  0.0984
81993W        W25046  11.039   4.566   3.152  0.2569  0.0068 -0.2472
81994W        W25047  24.791   4.978   2.027 -0.1686  0.0897 -0.1076
81995W        W25048   4.135   8.405  18.997  0.0572 -0.0401  0.2411
81996W        W25049   7.463   4.057   7.566  0.4392 -0.0245  0.4858
81997W        W25050   5.463  24.123  24.999  0.0597  0.3862  0.0120
81998W        W25051  13.628   9.050   8.223  0.0051 -0.1760  0.3047
81999W        W25052  32.016  14.001   5.773 -0.2477 -0.2301 -0.1237
82000W        W25053   4.774  11.094   6.159  0.1604  0.0569  0.0480
82001W        W25054  12.517  31.180   3.522 -0.1659  0.0372  0.1104
82002W        W25055  29.831  30.492   6.170  0.4127 -0.2130 -0.1555
82003W        W25056  12.382  18.139  10.173 -0.0696 -0.0151  0.1405
82004W        W25057   7.345   4.009  26.373  0.2748  0.2403  0.1007
82005W        W25058   1.378  17.053   4.754  0.1868  0.2960 -0.0106
82006W        W25059   4.750  18.347  21.257 -0.0215  0.0369 -0.1210
82007W        W25060  14.742   2.009  27.643 -0.3100  0.0816  0.0090
82008W        W25061   2.237  24.996   9.508 -0.2366 -0.0619  0.0135
82009W        W25062  23.036   1.558   1.217 -0.1208 -0.2278 -0.2247
82010W        W25063   0.521  21.645   6.838 -0.1765 -0.0070  0.0454
82011W        W25064  21.338   4.546   3.543 -0.2471  0.2897  0.0954
82012W        W25065   6.455  30.459  24.683 -0.1330  0.1067 -0.0295
82013W        W25066   2.899  23.596  28.236 -0.1290  0.0194 -0.0904
82014W        W25067   0.716  10.019   0.765  0.1020 -0.0292 -0.0393
82015W        W25068  32.824  27.278  29.039  0.3689 -0.0135  0.1549
82016W        W25069   0.089   0.820  27.711 -0.0116 -0.1061  0.2162
82017W        W25070  18.900  16.681   6.567  0.0792 -0.3645  0.0432
82018W        W25071   9.128  10.797  20.101 -0.0923  0.0719  0.0173
82019W        W25072  34.311  27.567   3.471 -0.0675  0.1174 -0.1074
82020W        W25073  13.936  19.967   9.194 -0.2469 -0.1187 -0.0238
82021W        W25074   6.332  15.030   9.465  0.1433 -0.1004 -0.2322
82022W        W25075  13.201  11.442   5.177  0.0290 -0.0785 -0.0701
82023W        W25076   8.401  18.024   4.955  0.1820 -0.2012  0.0006
82024W        W25077   6.781  14.666  28.603 -0.0065 -0.2245 -0.0691
82025W        W25078  30.581  27.698   1.937  0.1370  0.1350  0.1847
82026W        W25079   3.206   0.561   2.729 -0.1046 -0.0612  0.0898
82027W        W25080  14.686  10.360   5.219 -0.0295 -0.1502  0.2182
82028W        W25081   7.162  17.738   9.248 -0.3152 -0.1360 -0.0183
82029W        W25082  31.296   1.950  22.351  0.1119  0.0838 -0.2601
82030W        W25083  10.953  15.874   9.493 -0.2758 -0.1895  0.3462
82031W        W25084  15.752  33.701  18.834  0.1159 -0.0143 -0.1037
82032W        W25085  19.496  21.175   0.787  0.0097 -0.1594  0.3576
82033W        W25086   6.532  14.947   8.919 -0.0971 -0.0829  0.1782
82034W        W25087  15.123  17.857  28.298  0.0332 -0.0336 -0.2674
82035W        W25088  17.803  30.131  10.753  0.1920 -0.3833 -0.1380
82036W        W25089  27.434   6.823  28.395  0.3437 -0.1232 -0.3723
82037W        W25090  18.530  11.678   9.442  0.0056 -0.0854 -0.1740
82038W        W25091  13.826  15.674   3.430 -0.1385  0.0458  0.1770
82039W        W25092  25.457   2.764   1.538  0.0051  0.1594 -0.4382
82040W        W25093  14.157   9.934   9.505  0.1429  0.0374  0.1242
82041W        W25094   2.675  28.568   8.465  0.1926 -0.1834 -0.0240
82042W        W25095  14.631  11.689  19.451 -0.0013 -0.1275 -0.1258
82043W        W25096  16.140   5.006   6.734  0.0128 -0.0018  0.2411
82044W        W25097  19.806  29.209  17.627 -0.3087  0.2897 -0.0821
82045W        W25098  16.139  27.484   5.544  0.0647 -0.1317  0.1166
82046W        W25099   6.035  12.917   0.533  0.3396 -0.3939 -0.2545
82047W        W25100   9.052  16.069  26.461 -0.1662  0.0710  0.1987
82048W        W25101   4.331   2.106   6.891  0.0685 -0.1957  0.3542
82049W        W25102  16.285  12.853  20.169  0.0377  0.1703  0.0388
82050W        W25103   7.495   8.970   7.238 -0.2097 -0.0086  0.0517
82051W        W25104  17.477   6.638   2.104 -0.0150 -0.0915  0.3142
82052W        W25105  13.502  23.874  28.228 -0.1567 -0.0708 -0.1718
82053W        W25106  27.496  10.218   5.917 -0.0823 -0.3291  0.1756
82054W        W25107   9.653  16.568  23.731 -0.1059 -0.0699  0.1392
82055W        W25108  11.224  26.538   2.708 -0.0049 -0.2545  0.0967
82056W        W25109  18.574  22.939   4.296  0.3734  0.0233 -0.1511
82057W        W25110  22.905  33.913  10.132  0.3013  0.3198 -0.1553
82058W        W25111  17.394   8.544   0.739  0.0701  0.0221 -0.3837
82059W        W25112   6.822  17.059   5.820 -0.3074 -0.0219  0.0063
82060W        W25113   6.271  21.312   2.442  0.1526 -0.1451  0.2352
82061W        W25114   0.699   6.400   9.022  0.0776  0.1110 -0.1123
82062W        W25115   2.632  21.862  20.927 -0.0766 -0.0283  0.2466
82063W        W25116   3.920  16.415  29.003  0.1592 -0.0852  0.4426
82064W        W25117  16.003  12.136  26.689 -0.1184 -0.0701  0.1573
82065W        W25118   9.717  14.847  20.247 -0.0071 -0.0949 -0.1121
82066W        W25119   4.913  13.274  25.853 -0.0541 -0.0082  0.0138
82067W        W25120  20.281  17.630  28.625  0.1796 -0.0519 -0.4166
82068W        W25121   8.599  15.418   1.035 -0.1044 -0.1553 -0.1596
82069W        W25122   6.225  21.401   5.319 -0.1504  0.1153 -0.0045
82070W        W25123  14.669  27.407   7.748 -0.1840 -0.3138 -0.1479
82071W        W25124  33.151  33.728   5.164 -0.0445 -0.3723 -0.0248
82072W        W25125   1.343  18.174   6.482 -0.2510  0.2318  0.0292
82073W        W25126  33.677  23.979   8.632 -0.1784 -0.1930  0.1154
82074W        W25127  16.888  25.011   7.393 -0.0262  0.1542 -0.0578
82075W        W25128  19.506  23.547   9.696  0.3594 -0.0054  0.0481
82076W        W25129  16.273  17.637   8.897  0.0373  0.3146  0.3567
82077W        W25130   4.539  15.678   2.757 -0.2971  0.0166  0.1614
82078W        W25131  20.005  11.704   3.979  0.1071 -0.0131  0.1058
82079W        W25132  16.599  29.701   2.497 -0.0790 -0.0916 -0.2089
82080W        W25133   4.530   2.128   3.963 -0.0015 -0.2354 -0.0284
82081W        W25134  12.995   9.288   9.787 -0.5624 -0.0867 -0.1341
82082W        W25135   9.377  20.233   2.647  0.0879 -0.1050  0.2506
82083W        W25136  15.830  16.244  23.927 -0.1288  0.0523 -0.2210
82084W        W25137  24.555  14.430   8.510 -0.0035  0.1651 -0.0679
82085W        W25138  11.704  15.999  25.790  0.0252 -0.0694 -0.1608
82086W        W25139  13.912  23.324   9.479  0.1586 -0.0582 -0.1279
82087W        W25140   3.051  16.320   7.212 -0.0511  0.1859  0.0497
82088W        W25141  13.516   7.015  28.311 -0.1941  0.1569  0.0828
82089W        W25142   4.066  10.363  27.651 -0.2644 -0.1437 -0.0097
82090W        W25143  15.657  13.037   9.598 -0.3203  0.0847  0.3571
82091W        W25144   5.835  22.943   4.785 -0.0713 -0.3801 -0.0408
82092W        W25145   2.274  14.352  28.944 -0.0676 -0.1379  0.2592
82093W        W25146  12.086  14.269   7.480  0.5011 -0.4266 -0.1470
82094W        W25147   9.569  22.162   4.741 -0.1963 -0.2010 -0.0236
82095W        W25148   0.730   5.545   8.233  0.2090 -0.0232  0.2607
82096W        W25149  16.853   9.607   4.738  0.3899 -0.3371 -0.0750
82097W        W25150   0.239  25.476   4.084  0.1236 -0.1654  0.2024
82098W        W25151  13.533  32.324  25.535  0.0466  0.0495 -0.1759
82099W        W25152  17.502   1.745   3.997  0.0943  0.1225  0.2418
82100W        W25153  11.030  24.612   3.950  0.0936 -0.0781  0.1459
82101W        W25154   9.239  25.106   2.217 -0.0844  0.1039 -0.1465
82102W        W25155   0.040  25.846   1.756 -0.0134 -0.3452  0.1351
82103W        W25156  12.295  30.054  25.292  0.0295  0.3130  0.0549
82104W        W25157  31.934  10.641  28.072  0.2386  0.2604 -0.0675
82105W        W25158  16.285  23.618  14.993 -0.2463  0.4695  0.0700
82106W        W25159  10.966  12.409   8.441 -0.2436 -0.0415 -0.3310
82107W        W25160  12.644  15.193   4.236 -0.4158  0.3396  0.1307
82108W        W25161  10.742  11.184   6.710  0.0286 -0.0025 -0.0214
82109W        W25162   8.479  33.504   6.909 -0.1382 -0.1484 -0.0659
82110W        W25163   8.937  16.598   9.581  0.0481 -0.1234 -0.0790
82111W        W25164  32.337  24.496   4.535 -0.2004  0.1054 -0.3364
82112W        W25165  18.979  24.307   8.680  0.0812  0.0706 -0.1437
82113W        W25166  26.043  10.603   5.620 -0.0342  0.0556 -0.1785
82114W        W25167   9.399  11.739   2.413  0.2261 -0.2140  0.2362
82115W        W25168  10.640   6.080  23.116  0.0345 -0.0441  0.0254
82116W        W25169  12.595  11.189   5.320 -0.1358 -0.0108 -0.3995
82117W        W25170   5.604  20.768  22.623 -0.0800  0.1285  0.0837
82118W        W25171   9.244  25.908   8.584 -0.0811  0.0605 -0.2591
82119W        W25172   5.569  18.948   5.701  0.1855  0.1733  0.0854
82120W        W25173  16.613  29.209   0.323 -0.3675  0.0691 -0.4605
82121W        W25174   2.147   5.385   1.819  0.3453  0.0079 -0.1333
82122W        W25175   6.040  12.518   2.636  0.1677  0.0606 -0.4508
82123W        W25176  33.250  17.289   6.025  0.2109 -0.0529 -0.1469
82124W        W25177   9.164  22.916   8.702 -0.1507 -0.2723 -0.1349
82125W        W25178  26.440   9.646   2.867 -0.2335 -0.0535  0.2206
82126W        W25179  10.294  10.628   9.085  0.1681  0.2565 -0.2052
82127W        W25180  12.405  11.356  29.156 -0.1940  0.0741  0.0051
82128W        W25181   0.781   8.043   3.010  0.0281 -0.0842 -0.1137
82129W        W25182   6.633  11.605   6.072  0.0144  0.3934  0.2030
82130W        W25183  11.755  15.832   8.375  0.0396 -0.2216  0.3254
82131W        W25184  20.504  21.221  22.406  0.0116 -0.0952  0.1126
82132W        W25185  13.398   7.086  11.015  0.1660 -0.0039 -0.4326
82133W        W25186  13.347   5.116   8.444  0.1290 -0.3646 -0.1106
82134W        W25187  30.284  12.165   9.486  0.1115 -0.1045 -0.0301
82135W        W25188  15.005   9.226   0.567  0.1513  0.3395  0.1238
82136W        W25189   5.769  12.053   2.213  0.0090  0.3654 -0.0805
82137W        W25190  33.773  33.192  18.965 -0.5165 -0.0893  0.0669
82138W        W25191   8.037  21.091   6.482  0.2631 -0.0555 -0.0274
82139W        W25192  29.762  22.436   5.355 -0.3040 -0.2362  0.1272
82140W        W25193  26.599  11.106  22.878  0.0589  0.0672  0.0748
82141W        W25194   3.622  27.904   2.751 -0.1026  0.0176  0.1990
82142W        W25195   5.623   4.664   6.681 -0.2132  0.0701 -0.3673
82143W        W25196  17.439  21.493   9.504  0.3143  0.1407 -0.2459
82144W        W25197   7.087  16.318   4.371 -0.2818  0.0957 -0.2347
82145W        W25198  11.945  16.509   7.168 -0.0949  0.1231  0.0478
82146W        W25199  22.935  22.681  24.475 -0.0607  0.4028  0.2298
82147W        W25200  16.962  11.262   6.812 -0.0655 -0.3198  0.0529
82148W        W25201   5.967  17.662   7.839  0.1343 -0.1570  0.2575
82149W        W25202   9.589  31.873  19.193 -0.2941  0.0119  0.1064
82150W        W25203   6.523   9.418  10.076 -0.0653  0.2858 -0.0064
82151W        W25204  13.705  19.570   2.770 -0.2134  0.1726  0.1985
82152W        W25205  13.342  22.733  26.015 -0.1025  0.0970  0.1441
82153W        W25206   0.913  15.904  29.103  0.0521 -0.0332  0.3331
82154W        W25207  15.134  15.022   9.376  0.2338  0.0339 -0.0326
82155W        W25208   4.672  14.631  28.517 -0.1701 -0.0471 -0.0031
82156W        W25209  28.754  16.633   3.731  0.1562 -0.2587  0.2081
82157W        W25210   2.792  17.947  23.002 -0.1445 -0.2559 -0.0735
82158W        W25211  14.839  17.344  24.721 -0.1052 -0.1413  0.2200
82159W        W25212   3.886  22.668   6.744  0.1733  0.1212 -0.1024
82160W        W25213  18.795  14.029   6.096 -0.0202  0.0237  0.2112
82161W        W25214  29.500  11.586   1.398 -0.2384 -0.1501  0.0021
82162W        W25215   1.095  26.062  24.348  0.2420  0.1115  0.2723
82163W        W25216  14.441  15.886  21.863  0.2183  0.0305 -0.0816
82164W        W25217   8.893  10.502   6.647  0.0909 -0.0960  0.0394
82165W        W25218  27.535  13.417  25.526  0.1045 -0.1323 -0.3258
82166W        W25219  12.034  16.945  23.953  0.1619 -0.1729  0.1776
82167W        W25220  10.769   4.093   0.119  0.2304 -0.3182  0.2797
82168W        W25221  15.861  18.066   7.418  0.1226  0.0570 -0.4591
82169W        W25222  10.373  23.079  23.460 -0.0484 -0.2156  0.5430
82170W        W25223   7.924  13.139   6.949 -0.0315 -0.1633 -0.0808
82171W        W25224  30.572   5.456   1.351  0.0101 -0.2255 -0.1368
82172W        W25225  19.206  17.779   5.385  0.3964  0.1627 -0.1049
82173W        W25226   7.041  13.841   9.208 -0.0385 -0.0975  0.1269
82174W        W25227   3.905  18.303   5.135 -0.1295 -0.0129 -0.1626
82175W        W25228  11.007  20.222   6.125  0.1491 -0.0977  0.2695
82176W        W25229  33.110  18.764   0.623 -0.2324  0.1150 -0.2662
82177W        W25230  11.675  18.164   3.601 -0.4553  0.2734 -0.0756
82178W        W25231  11.392   6.853  17.407 -0.1339  0.2682  0.0464
82179W        W25232  20.515   9.957  22.020  0.0922 -0.0565  0.0549
82180W        W25233  14.504  17.907   9.702 -0.1418 -0.2959 -0.0332
82181W        W25234  10.072  23.985  19.304 -0.2066 -0.0753 -0.2066
82182W        W25235   4.913  14.134   7.433 -0.0477  0.2041  0.2024
82183W        W25236  13.807  28.799  16.440  0.1204  0.1265 -0.1524
82184W        W25237  23.020   5.739  27.936 -0.0545  0.1186  0.0082
82185W        W25238   8.330  20.771  10.129 -0.0344  0.0945  0.0647
82186W        W25239   5.301  21.295   4.350 -0.0223 -0.0475  0.2966
82187W        W25240  14.135  21.734  14.473 -0.1250 -0.1190 -0.0410
82188W        W25241   4.654  18.175   8.256  0.2028  0.0070 -0.1073
82189W        W25242   3.774  12.780   5.258  0.4459 -0.0351 -0.4179
82190W        W25243   6.415  15.688   3.705  0.2228 -0.2509 -0.0849
82191W        W25244   5.873  22.760   6.012 -0.0001  0.1025  0.3318
82192W        W25245  12.786  15.341  17.874  0.1804 -0.0595 -0.0474
82193W        W25246   0.477  11.322   6.954  0.4858 -0.1838 -0.0257
82194W        W25247  27.159  11.795  26.175 -0.0620  0.1197 -0.0160
82195W        W25248   6.027  18.534   0.344 -0.0060 -0.2115 -0.0614
82196W        W25249  34.395  19.872   7.607  0.0893  0.1199  0.0140
82197W        W25250   3.861  26.683  21.578 -0.1063 -0.0476  0.1913
82198W        W25251  25.629  11.634  25.426  0.0468 -0.0460 -0.0977
82199W        W25252  31.585  23.978  19.276  0.1251  0.2319  0.2889
82200W        W25253  25.537   3.024  23.792  0.1760 -0.2813  0.2610
82201W        W25254  12.720  21.231  19.486 -0.0834  0.1757 -0.3164
82202W        W25255  24.957  12.501   4.881  0.0390  0.1402  0.1948
82203W        W25256   5.007  14.002   3.566  0.0907  0.2526  0.3721
82204W        W25257   2.385  12.461   5.677 -0.3104  0.0325 -0.0977
82205W        W25258  14.250  23.167   5.894 -0.1276  0.1284 -0.1441
82206W        W25259  19.963  20.346   8.111 -0.1048  0.2243  0.0830
82207W        W25260   3.337  12.000  19.396  0.0313 -0.0790 -0.2733
82208W        W25261   7.870  28.963  16.248  0.0467  0.0043 -0.2114
82209W        W25262   3.447  13.880  28.135  0.1409 -0.1246  0.0532
82210W        W25263  24.143   1.045  27.150  0.4491 -0.3123  0.1244
82211W        W25264  30.903  19.791  25.243 -0.1596 -0.1350 -0.4855
82212W        W25265   6.911   6.558  10.725  0.2510  0.1386  0.1467
82213W        W25266  23.049  16.040   1.782 -0.0613 -0.1573 -0.4215
82214W        W25267   3.772  30.463  20.890 -0.2232  0.0616 -0.0641
82215W        W25268   1.993  20.286   5.900  0.0245 -0.3295  0.3952
82216W        W25269  16.619   0.156   6.623 -0.0484  0.0941 -0.0904
82217W        W25270  14.854  24.993   8.895  0.0335 -0.2664  0.3091
82218W        W25271  18.910  22.046  27.078 -0.1018 -0.0904 -0.1668
82219W        W25272   3.269  22.637   2.187 -0.0949 -0.2342 -0.1136
82220W        W25273  30.365  13.606   3.350 -0.1124 -0.1530  0.1421
82221W        W25274   0.421  18.505   7.756  0.3598  0.0388  0.4828
82222W        W25275   9.422   6.346   2.571 -0.0284 -0.2085  0.1294
82223W        W25276  13.142  25.701  24.615 -0.3475  0.1249 -0.1091
82224W        W25277  12.674  15.004   2.629  0.0290 -0.0956  0.0204
82225W        W25278  12.297  20.755  26.193  0.3679 -0.0302  0.0037
82226W        W25279   8.341  11.298   3.185 -0.1362 -0.1171  0.1450
82227W        W25280  19.193  34.116   9.630  0.4353  0.0064  0.2792
82228W        W25281  14.792  15.697  26.919  0.0776 -0.4086 -0.3373
82229W        W25282   2.587  23.497  26.346 -0.1215  0.2013 -0.0391
82230W        W25283  19.463   5.932   8.272 -0.0887  0.1061 -0.0138
82231W        W25284   4.244  24.320  26.014 -0.0202  0.1031 -0.1054
82232W        W25285   0.717  25.530  26.113 -0.2830  0.0554  0.0165
82233W        W25286  11.990  12.484   2.774  0.1120 -0.0581 -0.2886
82234W        W25287   1.733   2.623   0.782 -0.3119 -0.0072 -0.0504
82235W        W25288   0.199   4.625   4.946  0.1061  0.3135 -0.2557
82236W        W25289  19.904  19.040  28.016  0.1220 -0.1567  0.0788
82237W        W25290   3.661  26.499  10.146  0.0749 -0.1860 -0.1477
82238W        W25291   0.927   4.417  25.516 -0.2070 -0.0707 -0.0013
82239W        W25292  32.859  22.978  14.019  0.0256 -0.3214 -0.1937
82240W        W25293  11.672  11.248   2.448  0.0900 -0.0664  0.0743
82241W        W25294   0.728   7.727   4.616 -0.3061 -0.0164 -0.2385
82242W        W25295   7.981  31.389  22.138 -0.1533 -0.1318 -0.1838
82243W        W25296   5.702  26.231   1.816  0.0454  0.1946  0.0720
82244W        W25297  23.393  16.139  18.183 -0.1696 -0.1594  0.0099
82245W        W25298   7.341   6.032  21.783  0.0897 -0.3217  0.0129
82246W        W25299  34.269  30.567  20.318  0.0186  0.2134  0.2164
82247W        W25300   6.919   3.953  23.471 -0.0501 -0.0578 -0.0568
82248W        W25301   2.857  12.432   7.959  0.4081  0.0416  0.0903
82249W        W25302   3.647  15.531   3.395 -0.1104 -0.0554  0.1146
82250W        W25303   4.497   4.237   3.916  0.1590 -0.1159  0.0133
82251W        W25304   0.710  28.808  26.279  0.0567 -0.1776 -0.1422
82252W        W25305  16.458   0.419  28.703  0.1003  0.0396 -0.0646
82253W        W25306   0.904  28.100   0.538  0.2796 -0.1627  0.2185
82254W        W25307  33.806  20.729   1.838  0.3487 -0.0598 -0.0250
82255W        W25308  26.676  13.855   5.207  0.1784  0.0420 -0.0047
82256W        W25309  32.048   7.738  24.918 -0.0994 -0.2826 -0.0850
82257W        W25310   1.290  13.278  15.984  0.1234  0.1366  0.1610
82258W        W25311  12.170  24.447   1.535  0.1094 -0.0038 -0.0977
82259W        W25312  13.264  26.286   1.284 -0.1677 -0.1191  0.1883
82260W        W25313   5.998  14.538  16.334  0.1026 -0.1384 -0.0374
82261W        W25314   5.091  27.818  13.762  0.1308  0.0444  0.1795
82262W        W25315  14.448  19.583   3.578 -0.2786  0.1407  0.1577
82263W        W25316  14.251  11.264  10.021  0.4232  0.2941  0.1492
82264W        W25317  20.169  16.749   8.490  0.0250 -0.0172 -0.1838
82265W        W25318   8.296  25.782   3.088 -0.0694  0.0910 -0.0492
82266W        W25319   4.323  14.252  18.228  0.0026 -0.0730 -0.1925
82267W        W25320  30.857  30.292   0.337 -0.1958  0.3746 -0.1735
82268W        W25321   1.964   6.871  16.301 -0.2407  0.1612 -0.1886
82269W        W25322  20.801  18.273   6.287  0.2317  0.2326 -0.3223
82270W        W25323  17.797  19.339   4.363  0.1400  0.2227 -0.1389
82271W        W25324  18.409  12.483  23.649 -0.0015  0.0671 -0.1950
82272W        W25325   6.228  28.769  20.466 -0.2139 -0.0755 -0.3641
82273W        W25326  22.906  28.430  27.688  0.0756 -0.0997 -0.1028
82274W        W25327  10.515  14.820   2.196  0.1301 -0.1308  0.2349
82275W        W25328   0.898  13.410  27.833 -0.1774  0.0774 -0.1439
82276W        W25329   6.397  20.776   6.869 -0.2006  0.2227  0.0410
82277W        W25330  10.867  25.788  23.753 -0.1677  0.1332 -0.0241
82278W        W25331   0.906  25.432  13.514 -0.3234  0.0762  0.2021
82279W        W25332   8.858   5.187   7.115  0.1018  0.1299 -0.2127
82280W        W25333  14.972  21.226   9.236 -0.0611  0.0189  0.1165
82281W        W25334   6.696  29.955   8.469  0.2816 -0.2771 -0.1091
82282W        W25335   5.492   1.098  14.649 -0.1338  0.0440  0.2045
82283W        W25336   1.955  34.015  23.502  0.5057 -0.3719  0.2812
82284W        W25337  26.067   7.535  24.098 -0.0755 -0.0211 -0.1501
82285W        W25338  24.274  17.972   2.452  0.0384  0.0649  0.4174
82286W        W25339  18.865  14.796   5.022  0.0047  0.2035  0.0743
82287W        W25340  26.254   1.321   9.509  0.0603 -0.0140  0.0272
82288W        W25341  11.648  14.871  25.909 -0.0550  0.1112 -0.3430
82289W        W25342  13.415  21.087   5.864  0.0317 -0.2083 -0.0308
82290W        W25343  11.142  18.315   1.486  0.0706  0.0929  0.4493
82291W        W25344  12.256  23.581  21.574 -0.4324  0.1022 -0.0697
82292W        W25345   4.205  11.084   1.440 -0.1265 -0.0209 -0.1555
82293W        W25346  12.030   8.191   9.593  0.1102  0.2445  0.1022
82294W        W25347   8.823  22.885  23.525  0.0859 -0.4923  0.2447
82295W        W25348  15.043  31.756   0.191 -0.0282  0.2228 -0.0458
82296W        W25349   6.694  10.838   9.788 -0.1399 -0.0026 -0.1436
82297W        W25350  29.227  26.052  21.028 -0.0034  0.4986  0.0140
82298W        W25351  22.383  14.699   0.520 -0.1333  0.0377  0.4450
82299W        W25352  29.635  29.381  25.266 -0.0566  0.0518 -0.2338
82300W        W25353  11.805  25.679   9.503 -0.2004  0.0500  0.1919
82301W        W25354  30.858  21.647   5.269  0.0864 -0.0231 -0.1835
82302W        W25355   7.243  26.742  28.991  0.0759  0.0373  0.0167
82303W        W25356   4.673  18.827  28.080 -0.1136  0.1925  0.2850
82304W        W25357  32.598  23.495   1.145 -0.2244  0.0753 -0.1313
82305W        W25358  15.686   9.545  10.581 -0.1333 -0.2487  0.2619
82306W        W25359   9.896  13.841  27.944  0.0454  0.0196  0.2589
82307W        W25360  16.632  22.317  23.748  0.4007 -0.1892 -0.2766
82308W        W25361   0.608  22.588   3.660  0.2278  0.2192  0.0316
82309W        W25362   5.610  28.287   9.376  0.3362  0.0565 -0.0662
82310W        W25363  32.736  26.683  26.424  0.0074 -0.0173 -0.4039
82311W        W25364   5.948   1.631  15.991  0.1191 -0.2607 -0.1432
82312W        W25365  29.608  22.197  28.464  0.0065 -0.0166 -0.0555
82313W        W25366   5.798  34.315  27.150  0.3734  0.0934 -0.2483
82314W        W25367   0.267  29.563  26.418  0.0986 -0.0584  0.1799
82315W        W25368   6.376  19.493  26.198  0.1513 -0.1913 -0.1906
82316W        W25369  13.957  28.506   5.060 -0.0371  0.3255 -0.0021
82317W        W25370  33.780  28.774   6.128 -0.3400  0.1634  0.1724
82318W        W25371  21.528  19.133  28.664  0.0450 -0.0992 -0.1281
82319W        W25372  27.698  14.425  18.897  0.1654  0.1534 -0.1974
82320W        W25373  33.276   8.873   5.163 -0.0807 -0.0900 -0.2148
82321W        W25374   9.148   0.000  18.954 -0.2605 -0.0777 -0.2095
82322W        W25375  13.362  14.967  19.509  0.0749 -0.2210  0.1151
82323W        W25376  22.463   3.473   3.524 -0.3110  0.2075  0.2269
82324W        W25377  20.823  21.557   5.333 -0.0888  0.0987  0.1615
82325W        W25378   5.609  11.637  22.535 -0.1893  0.0180  0.2394
82326W        W25379  22.307  12.646   8.620  0.2470 -0.1210 -0.0094
82327W        W25380   8.105   4.691  24.446 -0.0142 -0.0561  0.1299
82328W        W25381   9.976   3.343   3.381 -0.1076  0.2207  0.0326
82329W        W25382   8.494  13.606   0.103  0.0811 -0.0680  0.2444
82330W        W25383  30.506  22.513  16.127  0.1768  0.0642 -0.0310
82331W        W25384   5.867  23.631  15.786  0.2176  0.0578 -0.1647
82332W        W25385   5.140  20.343   3.654  0.2956 -0.0865 -0.0567
82333W        W25386  21.238   3.038   2.719  0.0982  0.1237 -0.0043
82334W        W25387   8.909   5.821  27.913 -0.0819 -0.0603 -0.0852
82335W        W25388   1.934  25.546  14.506  0.0908 -0.0411  0.1385
82336W        W25389   1.043  15.008   4.970 -0.0813  0.0594 -0.0441
82337W        W25390   0.222  29.316  21.850 -0.0790 -0.1112 -0.2672
82338W        W25391   7.765  26.168  28.973 -0.1264  0.2621 -0.0277
82339W        W25392   4.991  20.027   5.885 -0.1227 -0.1574 -0.0187
82340W        W25393   5.866  22.352  28.282  0.0513  0.2503  0.3850
82341W        W25394  31.847  31.314   5.007 -0.2634 -0.0928  0.1704
82342W        W25395  17.636  25.454   8.025 -0.3701  0.0890 -0.0516
82343W        W25396   6.441  30.875   2.549  0.0004 -0.1704 -0.2482
82344W        W25397  31.805  19.426   5.899  0.1150 -0.0519 -0.2605
82345W        W25398  11.359   8.328  19.824 -0.0500 -0.1493  0.1046
82346W        W25399  21.027  18.994   0.811  0.0054  0.2444 -0.0824
82347W        W25400   3.754  26.535  15.828 -0.1762  0.2943  0.1389
82348W        W25401   8.648  16.521  26.608 -0.0940  0.0491  0.0671
82349W        W25402  33.393  12.206  19.410  0.2859 -0.4731  0.0460
82350W        W25403   3.004  19.653  19.246  0.0151  0.0275  0.2284
82351W        W25404  28.058  27.121  22.099  0.1887 -0.0782  0.1526
82352W        W25405  31.071  11.013  27.961 -0.1196 -0.0447 -0.0758
82353W        W25406   1.993  14.615  25.871  0.1232 -0.0156 -0.0170
82354W        W25407  27.103  19.686   0.966 -0.2650  0.1915  0.1873
82355W        W25408  13.190  28.680  22.979 -0.3448 -0.0333 -0.2456
82356W        W25409  34.444  17.976   5.417  0.0372 -0.1295 -0.0813
82357W        W25410   5.191  19.740  16.478  0.0299 -0.0428 -0.2513
82358W        W25411  10.071  33.324  15.438  0.1480  0.1174  0.3423
82359W        W25412  23.184  20.701   6.678 -0.0603  0.0122  0.0946
82360W        W25413   2.756   1.618  14.961  0.0639  0.1353 -0.0632
82361W        W25414  28.366  24.951  28.620  0.1588 -0.3214 -0.3099
82362W        W25415  18.983  14.222  28.390 -0.1303  0.0341 -0.3491
82363W        W25416  27.000   5.425  17.867  0.2338 -0.4070 -0.3088
82364W        W25417  33.823  24.816   1.685 -0.0782 -0.0436 -0.0252
82365W        W25418  33.295  28.077   9.296  0.4121 -0.1911  0.0819
82366W        W25419   6.451  21.687  26.012 -0.0721 -0.2955 -0.0341
82367W        W25420  33.256  15.590   0.048  0.2853  0.0450 -0.3066
82368W        W25421  10.863  15.667  22.252 -0.1423 -0.1629 -0.0091
82369W        W25422   5.753  29.847  17.491  0.2093  0.2157  0.1492
82370W        W25423  21.631  13.071  25.765  0.3578 -0.3361 -0.1918
82371W        W25424  15.691   6.617  20.995 -0.4019 -0.1377 -0.0315
82372W        W25425  18.487   5.626   2.057 -0.0186  0.3493  0.0441
82373W        W25426   0.984  26.146  22.455  0.0681 -0.0054  0.1220
82374W        W25427   1.321  25.416  16.139  0.0796  0.2865  0.3273
82375W        W25428   3.237  22.561  14.648 -0.1619 -0.3724 -0.1125
82376W        W25429   5.512  11.962   3.272 -0.3081 -0.0713  0.2368
82377W        W25430  15.891   8.565  27.067 -0.0991  0.1437 -0.0044
82378W        W25431  24.874  25.305  26.110  0.1789 -0.0029 -0.0756
82379W        W25432   7.491  15.364  26.653  0.0991  0.0852 -0.0302
82380W        W25433  29.803  17.605   4.752 -0.3224  0.3203  0.4555
82381W        W25434   0.450  11.932   9.919 -0.2373 -0.0349  0.3327
82382W        W25435   7.249  19.446  28.447  0.2132  0.3167 -0.0907
82383W        W25436   7.709  28.386   8.404  0.0110 -0.0026 -0.3276
82384W        W25437  32.240  23.454   7.626 -0.0692 -0.2451 -0.0462
82385W        W25438   8.941  17.731  18.476 -0.0860 -0.2017 -0.1500
82386W        W25439  33.614  30.503   7.913  0.3784 -0.1430 -0.1807
82387W        W25440   3.321  33.524  26.066 -0.0694 -0.0265 -0.3332
82388W        W25441   7.475   7.757  19.582 -0.0357 -0.0245 -0.1314
82389W        W25442   2.578   7.788  28.623  0.0822 -0.1108 -0.1897
82390W        W25443  13.440  33.874   1.841 -0.3532 -0.1784 -0.2136
82391W        W25444   8.775  19.995  21.964  0.3231 -0.3083  0.0856
82392W        W25445   9.018  24.549   1.375 -0.0152  0.1905  0.1920
82393W        W25446  28.768  14.831  14.245 -0.1840  0.0966 -0.1298
82394W        W25447   4.496  11.618   0.969  0.3573 -0.2541  0.3281
82395W        W25448  24.355  12.482  22.088  0.0547 -0.0582 -0.1135
82396W        W25449  12.675  31.097   1.630 -0.3682 -0.2480  0.0625
82397W        W25450   0.646  20.016   2.103 -0.1332  0.0948  0.1901
82398W        W25451   5.258   7.470   8.070 -0.0992 -0.1831  0.1077
82399W        W25452  12.823  13.223   0.273 -0.0481 -0.0600  0.3400
82400W        W25453  33.480  17.285  23.879 -0.2128 -0.2194  0.1157
82401W        W25454   7.138  10.659   0.125  0.1524 -0.0359  0.0998
82402W        W25455  33.784  22.746   8.014  0.4213 -0.0687 -0.0759
82403W        W25456   5.738  19.769   4.625 -0.0026  0.1368 -0.2431
82404W        W25457   6.849  32.103   6.699 -0.1592 -0.1327 -0.0627
82405W        W25458   6.938  17.023   7.275  0.0066  0.1445  0.2612
82406W        W25459   6.732  10.138  28.486 -0.0186  0.1849 -0.1555
82407W        W25460   6.339  20.515  25.983  0.2159  0.1205 -0.4945
82408W        W25461  12.639   7.130   8.648 -0.0522 -0.1321 -0.1630
82409W        W25462  20.044  14.491   5.413 -0.0831 -0.1006 -0.2388
82410W        W25463  12.670  19.251  18.883 -0.0398  0.0057 -0.3987
82411W        W25464  12.403  25.134  25.638 -0.3658  0.2154 -0.1726
82412W        W25465  24.463  28.110   0.074 -0.4184  0.0947 -0.1384
82413W        W25466  31.590  16.316   4.526 -0.1602 -0.0379  0.0640
82414W        W25467  13.596   8.961   3.698  0.0029 -0.2185  0.1623
82415W        W25468   4.694  20.679  24.991  0.1534 -0.0823 -0.1074
82416W        W25469   9.037  15.438   4.467 -0.0029 -0.1586 -0.0466
82417W        W25470   7.597  20.935   6.674  0.0670 -0.1860  0.0197
82418W        W25471   6.133  12.696   6.387  0.1480  0.1212 -0.2644
82419W        W25472  22.705  13.970   2.120  0.5451  0.1207  0.0041
82420W        W25473  19.155   7.919   4.443 -0.0585 -0.3424 -0.5360
82421W        W25474   8.596   1.191   9.815 -0.3939 -0.1614 -0.2674
82422W        W25475   1.763  26.343  27.143 -0.0193 -0.0251 -0.0787
82423W        W25476   2.342  21.070   3.797  0.1536  0.1807  0.0640
82424W        W25477  20.948  17.871  28.596 -0.0598 -0.0037  0.1747
82425W        W25478   7.741  21.951  19.798 -0.1218 -0.0366 -0.5496
82426W        W25479  22.251  20.614   2.283  0.1981 -0.1815 -0.1848
82427W        W25480   6.935   5.351   6.450 -0.2715  0.0870  0.0247
82428W        W25481   3.732  19.924   9.049  0.0163 -0.1135 -0.2310
82429W        W25482  10.321  33.291  18.772  0.2373  0.3771 -0.2229
82430W        W25483  18.495  23.534  28.084 -0.0162 -0.0167 -0.2623
82431W        W25484  32.800  16.080  21.959 -0.2906  0.1731  0.0247
82432W        W25485  12.366  18.786   1.084  0.0298  0.3366  0.2472
82433W        W25486   1.761  11.502   0.219  0.2319 -0.0861 -0.0628
82434W        W25487  33.340  27.249   1.302  0.0787  0.1213  0.0239
82435W        W25488  18.508  18.948   4.920 -0.0879  0.0574  0.1327
82436W        W25489  24.991  30.548  25.925  0.0319  0.4030  0.0975
82437W        W25490   2.792  21.671  19.397 -0.1556 -0.3360 -0.0049
82438W        W25491  20.302  24.499  14.714  0.1885 -0.0501 -0.0012
82439W        W25492  23.784  33.279  15.486 -0.2353  0.0808 -0.0552
82440W        W25493  15.909  24.224   3.829  0.1652  0.0094 -0.0716
82441W        W25494  29.378  11.194   1.033 -0.2189  0.0102  0.0332
82442W        W25495  12.882  33.801   2.605 -0.1748 -0.0640 -0.0960
82443W        W25496  27.189  28.480   3.327 -0.1060  0.0506 -0.2809
82444W        W25497  14.240  12.522  26.803  0.0403  0.1096 -0.2274
82445W        W25498  17.708  15.296  13.727  0.0002 -0.0339  0.0905
82446W        W25499   4.948  20.869   4.486  0.0642  0.1247 -0.0687
82447W        W25500   0.457   4.660  16.778  0.0603 -0.0425 -0.0302
82448W        W25501  10.615  11.003   0.382 -0.0077  0.1883  0.0265
82449W        W25502   1.021  10.116  20.672  0.1074  0.4106  0.1811
82450W        W25503  13.784  14.432   9.823 -0.1545  0.0233  0.0638
82451W        W25504  11.704   2.214   6.145  0.1054 -0.3879 -0.4956
82452W        W25505  18.771  30.810  27.792 -0.2131 -0.1716 -0.0854
82453W        W25506  10.539   5.178   1.436  0.1902  0.1116 -0.1075
82454W        W25507  32.073  33.245  24.023  0.3638 -0.1699 -0.2468
82455W        W25508  21.819  28.571   0.367  0.3465 -0.1122  0.0321
82456W        W25509   8.673  10.986  22.172  0.2319  0.0822  0.0047
82457W        W25510  13.033   0.205   9.574 -0.3864  0.0307  0.3451
82458W        W25511  20.575  21.698  28.076  0.2428  0.0484 -0.1279
82459W        W25512   9.406  23.545  21.824  0.2322 -0.1583 -0.1092
82460W        W25513  26.341  14.917   6.283  0.1298 -0.0397 -0.2680
82461W        W25514  13.249  18.855  19.902 -0.0669 -0.1762  0.1217
82462W        W25515  30.387  21.342  27.030 -0.2224  0.2545  0.0842
82463W        W25516  12.721  22.265   2.822  0.3718  0.1187 -0.0118
82464W        W25517   7.172  19.435   6.903  0.0517  0.2633  0.0937
82465W        W25518  18.761   4.994   0.302 -0.2387  0.5435 -0.1457
82466W        W25519  23.013  28.601  21.010  0.5208  0.2581 -0.0459
82467W        W25520  14.544  10.158  18.454 -0.4750  0.2117 -0.1162
82468W        W25521  12.686  16.821   6.931 -0.0671 -0.0189 -0.0885
82469W        W25522  21.449  24.658   0.957 -0.2556 -0.2704 -0.1119
82470W        W25523  26.549  20.345   3.033 -0.1061  0.0334  0.2657
82471W        W25524  33.317  10.733   0.216  0.1004  0.0638 -0.0608
82472W        W25525   5.312  29.009  27.079  0.0206  0.3042  0.0814
82473W        W25526  14.936  18.183  23.486  0.1743  0.1890  0.2331
82474W        W25527  24.424   6.108   4.435 -0.0554  0.1092 -0.3657
82475W        W25528  13.483   0.081  20.264 -0.0586  0.0704  0.0600
82476W        W25529  32.467  22.152  24.187 -0.1823  0.0144 -0.2744
82477W        W25530   6.526   9.975   8.643  0.0664  0.1057  0.1177
82478W        W25531  12.989  15.950   0.513 -0.0692 -0.0391 -0.1402
82479W        W25532  30.884  19.698   4.765 -0.1696 -0.2457 -0.0706
82480W        W25533  10.856   9.782   1.813 -0.1126  0.0646  0.2284
82481W        W25534   7.849  19.481  19.535 -0.1428  0.1103 -0.1009
82482W        W25535  33.378   1.040   4.937 -0.2070  0.2175 -0.0176
82483W        W25536  12.134  28.293   4.882 -0.1125  0.0771 -0.2943
82484W        W25537  11.984  20.771   7.669  0.0371  0.0009  0.3522
82485W        W25538   3.027  28.343   1.446  0.1622  0.1516 -0.1548
82486W        W25539  11.119  20.373   9.985  0.1255  0.0565  0.0047
82487W        W25540   7.376  29.006   8.921  0.1784  0.1726  0.2749
82488W        W25541  25.774  11.256  20.719 -0.0736  0.3332 -0.1977
82489W        W25542  10.909  28.804   6.114 -0.0868 -0.1977  0.0956
82490W        W25543  21.831  19.401  28.058 -0.1272 -0.1145  0.2943
82491W        W25544   5.090  22.759  24.881  0.1540  0.0610  0.2485
82492W        W25545  33.230  14.884  26.718 -0.0623 -0.2992  0.0491
82493W        W25546  14.322  32.264   2.856 -0.0966 -0.3260  0.0584
82494W        W25547  25.087  13.339   5.906 -0.2082  0.0968  0.1076
82495W        W25548  13.962  24.666   5.807 -0.0591  0.1411  0.0195
82496W        W25549   6.791  23.556   0.825  0.1124 -0.0668 -0.1584
82497W        W25550   6.121  27.897   3.388  0.0260 -0.0436  0.1431
82498W        W25551  25.796  33.996  19.815  0.0180  0.1278 -0.0899
82499W        W25552  19.797  17.002   1.619  0.2574  0.1651 -0.1425
82500W        W25553   8.689  26.941  20.378 -0.2847 -0.2067  0.1234
82501W        W25554  21.309  17.351   6.676 -0.0451  0.2595 -0.0717
82502W        W25555  13.361  30.148   7.136 -0.1930 -0.0094  0.4578
82503W        W25556  21.364  16.470   4.895 -0.1314  0.1714 -0.1623
82504W        W25557   3.560  16.758  29.164  0.1290  0.2411 -0.1125
82505W        W25558  10.993   5.307  10.273 -0.2002 -0.3214  0.2005
82506W        W25559   1.407  19.399   5.057  0.1222  0.0834 -0.0117
82507W        W25560  21.597   7.397   4.622 -0.0756  0.1071  0.1072
82508W        W25561  14.313  20.522  28.233  0.1835  0.1072 -0.3988
82509W        W25562   5.396  24.122   0.918 -0.1235 -0.0059 -0.1248
82510W        W25563   5.391  33.346   8.508  0.2392 -0.1536 -0.1168
82511W        W25564  28.530  12.358  24.498 -0.0880 -0.1150 -0.1741
82512W        W25565   8.320   0.666  23.794 -0.4362  0.0515  0.3728
82513W        W25566  21.930  30.901  28.424  0.1937  0.2210  0.3190
82514W        W25567   7.775  33.022  13.914  0.4199  0.3092 -0.3227
82515W        W25568  20.416  32.954   6.359  0.1269 -0.1666  0.1382
82516W        W25569   7.750  10.382   3.936 -0.1156  0.0945  0.0093
82517W        W25570   5.065   8.378  24.270  0.1058 -0.2019  0.1350
82518W        W25571   5.107  24.192  27.857 -0.1334  0.0570 -0.0387
82519W        W25572  15.687  31.424   9.359 -0.0743 -0.0293 -0.2738
82520W        W25573  25.822   5.950  15.699 -0.1682 -0.0230  0.2973
82521W        W25574   4.199  11.333   2.974 -0.0584  0.0781 -0.0013
82522W        W25575  13.169  19.982  26.622 -0.1640  0.2426 -0.2064
82523W        W25576   4.753  31.989  28.452 -0.0597  0.1156 -0.2718
82524W        W25577  14.491  32.947   4.178 -0.3276  0.0020 -0.0203
82525W        W25578   3.046  34.435  22.826  0.0030  0.1049 -0.0058
82526W        W25579  10.244  20.339   9.724 -0.1316 -0.2639 -0.1103
82527W        W25580  18.504  20.617  15.602  0.0950 -0.1433 -0.0408
82528W        W25581  14.222  30.877  17.212  0.0887 -0.1375 -0.2978
82529W        W25582   5.089  13.108  27.304  0.4739  0.0755  0.0054
82530W        W25583   4.359  13.733  10.153 -0.1258 -0.0246  0.2207
82531W        W25584   1.195  25.429   5.242  0.1621  0.1140 -0.1737
82532W        W25585  19.394  13.168   5.868  0.2749  0.0421  0.0574
82533W        W25586  13.003  22.670   1.666  0.2290  0.0605 -0.0937
82534W        W25587   0.653  17.301   1.498  0.1452  0.0332 -0.0666
82535W        W25588  33.536   6.554  19.624  0.3807  0.2132 -0.0779
82536W        W25589   9.894  13.802   3.922  0.0294  0.0979  0.2802
82537W        W25590   3.087  24.355   0.848  0.1191  0.2144  0.0215
82538W        W25591   8.704  26.594   4.208  0.2870 -0.1572 -0.1889
82539W        W25592  31.473  25.326   3.030 -0.2307  0.2125  0.1968
82540W        W25593  31.409  19.630   8.542 -0.0600 -0.2654  0.0261
82541W        W25594  17.964  19.120  24.155 -0.0457 -0.2029  0.2458
82542W        W25595   1.566  19.478  26.836  0.3111  0.0998 -0.1860
82543W        W25596   2.989   7.758  17.113  0.1665 -0.5352 -0.2414
82544W        W25597   6.931   3.904  20.717  0.1018 -0.1761  0.0390
82545W        W25598  15.654  21.614  25.223 -0.0280 -0.0782 -0.0325
82546W        W25599  16.236  31.194  17.360 -0.0169 -0.0947 -0.1301
82547W        W25600  32.489  14.731  22.045  0.0391  0.0513 -0.2903
82548W        W25601   9.913  23.334  23.623  0.5199 -0.3004  0.2447
82549W        W25602  26.230  18.280  15.601 -0.2496  0.1121 -0.0999
82550W        W25603  29.168  19.656   2.814  0.2851  0.1885 -0.2347
82551W        W25604   7.693  27.576  24.617  0.0175 -0.1365  0.1324
82552W        W25605  34.340  16.462   0.228 -0.0860  0.2974  0.1525
82553W        W25606   6.298  26.062  26.610  0.2863 -0.2071 -0.4988
82554W        W25607   8.342   3.303   6.702 -0.2057  0.2616  0.1204
82555W        W25608  23.398  21.558   5.730 -0.0102  0.0109  0.2514
82556W        W25609  19.722  14.120  26.426  0.0509 -0.0548  0.2450
82557W        W25610  22.322  32.394  28.140  0.2634 -0.3448 -0.0062
82558W        W25611  17.657  14.391  27.555 -0.1886  0.0269  0.1080
82559W        W25612   1.609  19.189   8.846 -0.1691 -0.0090  0.1401
82560W        W25613   1.046   0.788   3.013 -0.3769 -0.3838 -0.0142
82561W        W25614  23.336  21.192   0.991  0.2176 -0.1144 -0.1569
82562W        W25615   6.479  20.349  28.425  0.1413 -0.0800  0.0952
82563W        W25616   1.077  32.879  26.254  0.1705  0.0911 -0.0241
82564W        W25617  16.456  28.876  23.060  0.0975  0.0268 -0.2369
82565W        W25618   3.097  34.475  18.125 -0.2387 -0.2222  0.1289
82566W        W25619  12.565  22.750   1.394 -0.4371  0.0716  0.2483
82567W        W25620  34.129  20.852  27.914  0.3133 -0.0915 -0.1794
82568W        W25621   6.044  16.142  28.490 -0.0420 -0.4154  0.0217
82569W        W25622  16.184  25.445   8.120  0.0950  0.1982 -0.3542
82570W        W25623  11.579   7.535   0.141 -0.3410 -0.0955 -0.0451
82571W        W25624  30.408  22.754  28.820 -0.2872  0.2231 -0.0871
82572W        W25625   9.484  22.740   4.541 -0.1136  0.0587 -0.3081
82573W        W25626   0.741  19.123   3.487  0.1698  0.1322 -0.2751
82574W        W25627  10.549  22.240   0.143 -0.0510 -0.1400 -0.1946
82575W        W25628  12.116  17.569  18.026  0.1944  0.1621  0.2744
82576W        W25629  10.837  14.733   8.659 -0.2708 -0.0051  0.1813
82577W        W25630  33.740  15.969   2.356  0.3707 -0.1657 -0.0281
82578W        W25631   5.088  14.861  21.647  0.0074  0.0311  0.0924
82579W        W25632   7.751  11.867   0.199  0.1793  0.1678 -0.0381
82580W        W25633   7.315  20.193   3.784  0.1550  0.1281  0.1808
82581W        W25634  10.899  16.335   2.547 -0.0008  0.0689 -0.2868
82582W        W25635  32.859  29.413   8.608  0.2358 -0.0276 -0.1781
82583W        W25636  14.375  25.752  27.264  0.0435 -0.1509  0.0100
82584W        W25637   8.158  21.734   8.785  0.1480 -0.1192  0.0981
82585W        W25638   7.325  13.114  17.561  0.3802  0.0339 -0.0250
82586W        W25639  23.386  19.306   6.534  0.3381  0.0337 -0.0853
82587W        W25640   1.015  24.963   5.235 -0.1298  0.1732 -0.1050
82588W        W25641  31.553  20.681  27.052  0.3211  0.0981 -0.1056
82589W        W25642  31.978  11.518   6.975 -0.1362  0.3314  0.2306
82590W        W25643  10.175  31.201   7.257  0.1496  0.0018  0.1456
82591W        W25644   7.494  26.275  21.398  0.2348  0.2182  0.0368
82592W        W25645   8.832  19.139  23.370  0.2394  0.1745  0.2122
82593W        W25646   5.602  17.362  28.765  0.0624  0.0897  0.1324
82594W        W25647  11.484  24.820   1.219  0.2129 -0.3115 -0.2083
82595W        W25648   7.168  24.940  18.484  0.0892  0.0066 -0.2413
82596W        W25649  11.964  11.435  25.416  0.0541  0.2281 -0.0155
82597W        W25650   6.027  18.796   5.738  0.2080 -0.0199 -0.1846
82598W        W25651   5.271  15.870  21.856 -0.0714 -0.1854  0.2321
82599W        W25652   8.467  19.701   8.852  0.1600 -0.0476 -0.0703
82600W        W25653  13.209  22.589   9.820  0.0357 -0.0258  0.1349
82601W        W25654   9.116  32.745  21.442  0.0021  0.0890  0.0529
82602W        W25655  32.393  10.686  20.325 -0.2887  0.0256  0.2229
82603W        W25656   2.896   4.403   7.946 -0.3326 -0.0236 -0.1227
82604W        W25657   5.523  23.815  20.270 -0.0897 -0.1269 -0.2748
82605W        W25658   8.321  24.127   6.966 -0.2464  0.0140  0.1067
82606W        W25659   7.897  21.160  26.958 -0.3295  0.1458  0.3861
82607W        W25660  10.857   7.949  26.977  0.1761 -0.3412  0.1766
82608W        W25661   1.002  20.873  18.862 -0.5201 -0.0494 -0.3181
82609W        W25662  20.813  15.977   8.800 -0.0405  0.3646  0.0543
82610W        W25663  32.346  16.298   9.559  0.3010 -0.0494  0.2169
82611W        W25664   2.663  14.898   2.144  0.2271  0.1081  0.1244
82612W        W25665  12.278  24.551   9.939 -0.1015 -0.0955 -0.0960
82613W        W25666   1.617  27.783   5.960 -0.1110 -0.4121  0.1262
82614W        W25667  27.701  18.562   5.455 -0.2616 -0.3732 -0.0699
82615W        W25668  11.077  14.414   7.777  0.0479  0.1544 -0.1236
82616W        W25669  19.762   2.338   6.700  0.2554  0.1489 -0.0133
82617W        W25670  34.330  16.604   7.566  0.0427 -0.2758  0.0893
82618W        W25671  14.104  19.885   7.129 -0.1449 -0.1436  0.1269
82619W        W25672  30.599  10.683   3.038 -0.4524  0.1560 -0.1465
82620W        W25673  14.781   3.652   9.188 -0.2986 -0.1168  0.1869
82621W        W25674   7.667  13.203  10.969 -0.1778  0.0246 -0.3554
82622W        W25675   0.426  17.977   7.610 -0.0806 -0.2357  0.0862
82623W        W25676   3.525   3.337   7.584  0.0019  0.0972 -0.2764
82624W        W25677   2.293  28.287   5.129  0.4444 -0.1764  0.3269
82625W        W25678  30.421  31.673   8.289  0.1693  0.4637  0.0724
82626W        W25679  17.380  23.218   7.620 -0.0193 -0.2980 -0.0697
82627W        W25680  11.285  27.462   6.342  0.1026  0.1097 -0.0231
82628W        W25681   6.945  11.581   4.249  0.1460 -0.0020 -0.0984
82629W        W25682   7.705  24.696   1.839  0.1973 -0.1584 -0.0409
82630W        W25683   5.341   7.567  28.298  0.1782  0.2009 -0.1509
82631W        W25684  31.505   9.535   4.232 -0.2172 -0.1836  0.4057
82632W        W25685  11.556  16.574   7.688 -0.0820 -0.1238 -0.1650
82633W        W25686  17.007  23.859   0.913  0.0061 -0.1018 -0.0300
82634W        W25687   3.654  16.429   6.481  0.0371 -0.1412  0.3396
82635W        W25688   7.301  14.560  10.214 -0.2349 -0.2896  0.2825
82636W        W25689  15.005  29.317  26.546 -0.1908  0.2260  0.1996
82637W        W25690   7.823  18.826   5.956  0.2177 -0.0794 -0.1500
82638W        W25691   8.652  30.027   6.216  0.1359 -0.0557 -0.0688
82639W        W25692  14.298  18.467   4.288 -0.0439 -0.0145 -0.0610
82640W        W25693   8.432  22.845  27.763 -0.0588  0.1893  0.2930
82641W        W25694   0.135  32.079  23.457  0.0188  0.1494  0.0937
82642W        W25695   7.847  24.462  22.131  0.1038 -0.0609  0.1997
82643W        W25696  26.250  14.780  16.771 -0.2128 -0.1069  0.3217
82644W        W25697  28.481  18.649   7.723 -0.0391  0.1095  0.0300
82645W        W25698   5.060  11.422   6.379 -0.1319 -0.1046  0.1778
82646W        W25699  13.094  25.078  14.834 -0.0329 -0.1101  0.4236
82647W        W25700  13.954  30.191   1.318 -0.0466 -0.1338  0.2426
82648W        W25701  16.532  18.034   3.507 -0.1296  0.3427  0.0734
82649W        W25702  13.636  18.063   8.750 -0.1175  0.0439  0.0383
82650W        W25703  28.704   3.068   4.406 -0.2212 -0.1887  0.3183
82651W        W25704   5.480  22.887   3.765  0.0178  0.0604  0.0230
82652W        W25705   9.898   5.168  10.231 -0.0053 -0.1144  0.4070
82653W        W25706   6.545  21.886   9.467 -0.1697  0.0421  0.2241
82654W        W25707  22.021  18.086  24.358  0.1501 -0.0724 -0.3284
82655W        W25708  14.983  22.363   8.047 -0.0515 -0.2141  0.0747
82656W        W25709   1.401  18.856   3.403 -0.1382  0.0999  0.2693
82657W        W25710   1.985  17.323  18.366 -0.2504  0.0631 -0.1445
82658W        W25711   8.635  21.331   5.518  0.4829  0.4077 -0.0395
82659W        W25712   8.308  28.105   6.695 -0.1095  0.0799 -0.0473
82660W        W25713  13.455  20.806   9.149  0.0296 -0.0005  0.0424
82661W        W25714  27.374   9.387   9.344  0.1920 -0.1741  0.0712
82662W        W25715   2.075  16.905   7.920 -0.0163  0.0008  0.4232
82663W        W25716  30.421  30.675  27.029 -0.1984 -0.4514 -0.4412
82664W        W25717   5.065  13.509   7.627  0.0616 -0.1687 -0.2417
82665W        W25718  10.642   2.722   1.368  0.1006 -0.1868  0.2691
82666W        W25719  19.231  25.772   5.732 -0.2434 -0.0116  0.2648
82667W        W25720  20.489  15.539   2.104 -0.0149 -0.0853  0.0425
82668W        W25721   4.163  33.437  16.685  0.0583 -0.0194 -0.0813
82669W        W25722   3.712  11.474  10.167 -0.0510 -0.0560 -0.0474
82670W        W25723  13.077  20.997  24.326 -0.3195  0.1764  0.2583
82671W        W25724   1.234  24.097   3.744 -0.0139 -0.0073  0.1703
82672W        W25725  12.014   7.802   4.852  0.0938  0.3231  0.2121
82673W        W25726  31.387  30.249   9.701  0.1829  0.0539  0.0026
82674W        W25727  30.950  15.008   7.006 -0.1571  0.0209  0.2375
82675W        W25728  26.881  17.226   2.525 -0.4052 -0.0054 -0.0141
82676W        W25729  10.911  13.789  28.625  0.3031 -0.1370  0.0110
82677W        W25730   3.472  12.071   5.665 -0.2101  0.2245 -0.4512
82678W        W25731  34.588   1.608  28.390 -0.1467  0.0255 -0.0555
82679W        W25732  20.653  11.639   7.038 -0.2306 -0.5188  0.0187
82680W        W25733  19.892  17.502  23.954  0.2555 -0.3574 -0.0284
82681W        W25734   6.810  28.314   5.414  0.2923 -0.1490 -0.0153
82682W        W25735  13.562  19.742   8.879  0.0361 -0.1668 -0.2019
82683W        W25736   5.155  20.795  24.610 -0.0845 -0.1071 -0.0724
82684W        W25737  29.533  26.513  23.761 -0.1707  0.2092 -0.1283
82685W        W25738  16.230  16.464   6.934 -0.1203 -0.0135  0.2555
82686W        W25739  32.154  21.307   8.828  0.0361  0.2896 -0.0437
82687W        W25740   0.309  13.354  10.266  0.0813 -0.4415  0.0626
82688W        W25741  11.003  16.941   1.399 -0.1230 -0.0612  0.0830
82689W        W25742   1.917  12.441   8.249  0.1172 -0.1501  0.2656
82690W        W25743  20.974  16.702   9.233  0.1718 -0.0547  0.1757
82691W        W25744  34.385  29.455  21.087 -0.1231  0.2994  0.3685
82692W        W25745   7.033   8.126   7.534 -0.2982 -0.2681  0.0030
82693W        W25746   7.944  16.872  24.602 -0.3953  0.0070 -0.1486
82694W        W25747   6.219   4.253   9.668 -0.2806 -0.1084 -0.2709
82695W        W25748  27.946   6.506   5.778 -0.1155 -0.0357 -0.1161
82696W        W25749   4.850  30.072   0.077 -0.0997  0.4498  0.2635
82697W        W25750  21.383  15.902   0.971  0.2481 -0.2863  0.1248
82698W        W25751  17.457  25.604  28.501  0.2839 -0.2663 -0.2279
82699W        W25752   8.271  28.676   8.761 -0.3174  0.2015  0.0949
82700W        W25753   2.025   1.526   8.355  0.0317 -0.3441 -0.0366
82701W        W25754  32.144  17.409   8.590  0.0530  0.3348  0.0257
82702W        W25755   5.354  27.080   7.880  0.0337 -0.1653  0.0576
82703W        W25756  12.059  22.336   8.441  0.1038  0.1553 -0.2492
82704W        W25757  27.480  27.025   1.785 -0.0904  0.0141  0.2110
82705W        W25758   5.882  14.966   2.528 -0.4695 -0.1507  0.1263
82706W        W25759  34.290   4.248  28.500  0.1325  0.0029  0.4189
82707W        W25760  32.877  11.667   2.736  0.0535  0.1182 -0.2436
82708W        W25761  12.284  15.861   3.574  0.1677 -0.0558 -0.2735
82709W        W25762  15.010  19.924   8.950  0.1490  0.0712  0.0215
82710W        W25763  15.266  19.434   6.088  0.0561  0.1421  0.2403
82711W        W25764  15.543  14.699   3.074  0.2780 -0.2049  0.2737
82712W        W25765  23.696  34.449   9.558  0.1195 -0.1791 -0.0569
82713W        W25766   7.538  16.564  22.324 -0.0190  0.0447 -0.0193
82714W        W25767   6.142  16.105   0.851  0.0204  0.2338 -0.0212
82715W        W25768   9.160  12.313   6.190  0.2373  0.1226  0.0817
82716W        W25769  12.187  21.793  25.408 -0.0696 -0.0314 -0.0067
82717W        W25770  17.204  23.285   8.973 -0.1597 -0.1789  0.0995
82718W        W25771  20.520  25.160   2.184 -0.2196 -0.2302 -0.3610
82719W        W25772   0.813  32.891   0.945  0.3735  0.4016  0.2896
82720W        W25773  24.988   8.546  16.422  0.3681 -0.2640  0.0691
82721W        W25774  20.951  32.624   5.431 -0.1640 -0.2878 -0.0487
82722W        W25775   4.964  14.124   4.228 -0.0860  0.1315  0.1930
82723W        W25776   3.172  12.489   0.742 -0.0687 -0.1347  0.3349
82724W        W25777  24.704  18.536  18.529  0.0255  0.0261  0.2719
82725W        W25778   2.290  15.389   1.543  0.0796  0.2690 -0.1411
82726W        W25779  15.813  10.933   7.326  0.1865  0.0880 -0.1269
82727W        W25780  15.158  14.931   6.694  0.3393 -0.1716  0.0794
82728W        W25781   4.947  16.131  27.969  0.0271  0.0291 -0.0919
82729W        W25782  33.865  25.327   2.284  0.2634 -0.1441 -0.0296
82730W        W25783   8.170  31.469   9.917 -0.1587  0.0328 -0.1732
82731W        W25784   6.528  32.068   7.607  0.0281  0.4541  0.0579
82732W        W25785   9.402  21.340  28.511  0.0516  0.1411 -0.1033
82733W        W25786  31.581  15.309  18.534 -0.1099 -0.3707  0.1250
82734W        W25787  16.790  17.145   1.012 -0.0512  0.0376  0.1314
82735W        W25788   4.550  20.139  25.886  0.0813 -0.1844 -0.1692
82736W        W25789  18.558  17.401   4.756 -0.1911  0.4965  0.0250
82737W        W25790  23.523  20.062   0.608 -0.1028  0.4476 -0.0635
82738W        W25791   0.179  14.806   0.418 -0.0102  0.1130 -0.1446
82739W        W25792  15.079  28.940   9.129 -0.0792 -0.2860 -0.2963
82740W        W25793   8.414  12.832  27.897  0.0287  0.2493  0.0679
82741W        W25794   6.286  10.498  24.752  0.0926 -0.2130  0.1676
82742W        W25795   5.372   7.116  19.970 -0.0606  0.0300 -0.0727
82743W        W25796  18.877   7.539   0.172 -0.0680 -0.0559 -0.0556
82744W        W25797  13.833  29.312   9.132  0.0761  0.0531  0.4585
82745W        W25798  20.494  25.451  20.939  0.1925 -0.1397 -0.1043
82746W        W25799  15.223  13.299   6.858 -0.2447 -0.1934  0.0805
82747W        W25800  22.267   2.456  20.487  0.2166 -0.0604 -0.2262
82748W        W25801   8.669   7.668   5.634 -0.0021  0.0681 -0.0548
82749W        W25802  12.214  26.553   7.317 -0.1911  0.0290  0.0450
82750W        W25803  18.792  32.732   1.692  0.0822 -0.2185  0.1803
82751W        W25804   1.216  25.499   2.969 -0.2368 -0.0133  0.0973
82752W        W25805   5.849  13.254  22.889 -0.2271  0.0494 -0.2013
82753W        W25806   5.919  27.349   9.865 -0.0279  0.1338 -0.0293
82754W        W25807   1.651  21.956  25.428 -0.1718  0.2877  0.1446
82755W        W25808   9.484  15.745   2.915 -0.0278 -0.0466  0.2139
82756W        W25809   5.544   8.039   4.609 -0.1496  0.1981  0.2029
82757W        W25810  13.876  19.861  20.398 -0.2856  0.3249  0.0484
82758W        W25811  29.062  10.938  28.900  0.0880 -0.2791 -0.1214
82759W        W25812  13.350   1.231   7.123  0.0882  0.3172 -0.1437
82760W        W25813  20.111  16.880  13.012  0.2912 -0.0558  0.0513
82761W        W25814   4.280  32.397   1.862  0.1354 -0.0181 -0.0154
82762W        W25815   5.608   9.669  23.282  0.2558 -0.0096 -0.0739
82763W        W25816  11.971  24.618   5.616 -0.0953  0.0654 -0.1003
82764W        W25817   6.560  10.767   5.636  0.3228  0.1251  0.1474
82765W        W25818  10.720  15.855  26.273  0.0798 -0.0428  0.1587
82766W        W25819   9.986  13.153   9.563 -0.0954  0.0985 -0.1848
82767W        W25820   2.286  29.260   4.353  0.2026  0.0573  0.1782
82768W        W25821  33.149  18.069  26.050 -0.0885 -0.2919 -0.0784
82769W        W25822  11.364  12.651  22.932 -0.0795 -0.1441  0.1744
82770W        W25823   4.298  23.759  27.269  0.3322  0.1933  0.0621
82771W        W25824   5.877  18.433  24.966 -0.1240 -0.3526  0.3073
82772W        W25825   4.787  23.863   3.410 -0.0255 -0.0433 -0.0890
82773W        W25826  11.234  27.990  24.264 -0.4078 -0.2636  0.0714
82774W        W25827  32.730  19.364   6.977 -0.1553 -0.0684 -0.1148
82775W        W25828  30.086  31.338   7.956 -0.1554 -0.0403  0.0813
82776W        W25829  14.622  21.267   0.514 -0.0229  0.0083 -0.0762
82777W        W25830  19.411  19.695   6.592  0.2138 -0.2773  0.2441
82778W        W25831  15.311  31.379   9.929  0.2731 -0.0786 -0.0528
82779W        W25832   1.591  22.101   6.585  0.0118 -0.3388  0.1223
82780W        W25833  24.275  20.407   7.361 -0.0269  0.2050 -0.1043
82781W        W25834   8.072  25.933  23.735  0.0963 -0.3331 -0.4656
82782W        W25835  26.454  15.008   3.915 -0.1145  0.1974 -0.0780
82783W        W25836  13.743  18.877   3.291 -0.1089  0.2756  0.1981
82784W        W25837  30.260  21.726   3.063  0.2598  0.3661  0.0972
82785W        W25838  30.868   7.307  10.068  0.1401  0.0412 -0.2595
82786W        W25839  15.891  12.998  23.035 -0.0010  0.0373  0.0029
82787W        W25840  27.861   8.639   7.497  0.0910  0.1023 -0.3128
82788W        W25841  20.111  14.768   7.364  0.2195  0.0941 -0.0226
82789W        W25842  30.919  29.024  28.563  0.0188 -0.4419 -0.2025
82790W        W25843   9.946  14.773  26.435  0.0517  0.0632 -0.3688
82791W        W25844  29.969   7.888   9.817  0.1446 -0.0239 -0.1005
82792W        W25845   9.031  31.564  18.423  0.1672 -0.2590 -0.0430
82793W        W25846  34.163  29.421   2.921  0.3855 -0.2424 -0.2758
82794W        W25847   4.608  18.693   5.913  0.0220 -0.1359 -0.0507
82795W        W25848  23.499  16.527   3.177  0.2473 -0.0177  0.2040
82796W        W25849  15.955  33.461   8.356 -0.1221 -0.1708  0.2890
82797W        W25850   4.997  16.591   8.812  0.1780 -0.0337 -0.1551
82798W        W25851  17.865  16.235  27.139  0.1683  0.0229 -0.1119
82799W        W25852   5.165   4.444   6.639  0.1185 -0.3187 -0.1992
82800W        W25853   5.221   7.558   1.342 -0.0580 -0.1107  0.0400
82801W        W25854  30.644  29.821  14.314 -0.1890  0.0186 -0.3852
82802W        W25855   8.691   1.371  10.276 -0.1727  0.2859  0.1917
82803W        W25856   3.116  33.287   7.504  0.5464  0.2409 -0.1298
82804W        W25857   1.901  20.068  29.123  0.1084 -0.1945  0.0508
82805W        W25858   8.834  28.231   5.660  0.2471 -0.0490  0.1619
82806W        W25859  14.593  16.717   5.661  0.0880 -0.1797 -0.0229
82807W        W25860   4.016   8.293  25.709  0.1554 -0.1421 -0.0386
82808W        W25861  33.043  18.679   9.767 -0.3224  0.0784 -0.0825
82809W        W25862   3.933   0.414   3.172 -0.0690  0.0192  0.3453
82810W        W25863   5.047  34.497   3.879 -0.1385  0.3368  0.0600
82811W        W25864  15.076  19.754   6.971  0.0454  0.0234  0.1665
82812W        W25865  14.482  28.302  25.398 -0.1370  0.0542  0.2984
82813W        W25866  17.669  17.608   5.384 -0.2352 -0.0619 -0.2705
82814W        W25867  14.620  11.971   2.552  0.3021  0.2096 -0.1022
82815W        W25868   9.189  19.679  20.536  0.1824  0.1419  0.1985
82816W        W25869   6.288  18.727  26.684  0.7708 -0.2047 -0.1392
82817W        W25870  16.604  10.318  27.654  0.1618 -0.3625  0.0706
82818W        W25871  19.532  21.806  25.565  0.2106  0.5375  0.0808
82819W        W25872   8.721  15.445   8.248 -0.1304 -0.2328 -0.1188
82820W        W25873   2.965  17.102  19.269 -0.1758 -0.2588 -0.0357
82821W        W25874   7.665  16.538  27.864  0.0971 -0.1199 -0.0402
82822W        W25875  30.109  27.145   6.619 -0.0795 -0.3410 -0.4287
82823W        W25876  14.934  28.629   5.911 -0.1612 -0.2580 -0.2817
82824W        W25877   9.369  14.428  29.156  0.1492  0.1051  0.1058
82825W        W25878  27.499  24.453   2.506 -0.0086  0.0209  0.0918
82826W        W25879  22.509   4.838   5.249 -0.2134  0.0487 -0.0607
82827W        W25880   8.432  12.341  23.612  0.0373  0.0423  0.1426
82828W        W25881  32.331  25.220   5.710 -0.1810  0.1628 -0.1001
82829W        W25882  20.771  14.962  27.789  0.0354 -0.5164 -0.0872
82830W        W25883  14.824  15.216   2.621 -0.1054  0.1541  0.2735
82831W        W25884   1.788  17.430   7.218 -0.0177 -0.1842  0.0981
82832W        W25885  15.723  13.071   8.079 -0.3558 -0.2421 -0.0539
82833W        W25886  16.490  17.945  22.581  0.1221 -0.1379  0.0602
82834W        W25887  30.642  28.500   9.200 -0.2344 -0.1417  0.1481
82835W        W25888  15.028  15.276  24.676 -0.4445  0.0063 -0.0938
82836W        W25889  14.119   8.500   7.158  0.3176 -0.0455  0.3257
82837W        W25890   5.412  20.756   3.477  0.0945  0.1256 -0.1072
82838W        W25891  33.368  14.811   3.071  0.1429 -0.2801 -0.1218
82839W        W25892   1.082  24.907   4.444  0.2532 -0.3021  0.2580
82840W        W25893  21.349  23.135  22.616 -0.0545  0.1918  0.1600
82841W        W25894  11.678  33.182   2.608 -0.0353 -0.1744  0.1133
82842W        W25895   3.258  22.686   7.566  0.2603  0.1161  0.4858
82843W        W25896  25.945  15.828  24.290 -0.0446  0.1222  0.2957
82844W        W25897  18.452  21.984   6.930 -0.2131  0.0125 -0.2429
82845W        W25898  18.513  13.736   8.708 -0.0508 -0.0884  0.2966
82846W        W25899   6.578  18.837   8.253  0.2771 -0.0042 -0.1480
82847W        W25900  17.094  16.304  23.329  0.3369 -0.0236  0.1696
82848W        W25901   5.297  11.708  14.839 -0.0344 -0.0328 -0.3317
82849W        W25902  12.875  18.714   2.799 -0.3931 -0.1270 -0.1560
82850W        W25903  23.121  19.450   4.696 -0.1081  0.4997  0.0194
82851W        W25904  14.815  11.419  29.134 -0.0395  0.0722  0.0098
82852W        W25905   8.724  22.380  23.251 -0.0308 -0.0304 -0.1801
82853W        W25906   0.260  16.420  10.166 -0.1680  0.3794  0.3024
82854W        W25907   2.737  25.317   4.389 -0.1873 -0.0464 -0.0169
82855W        W25908  22.378  13.251  18.828  0.0870 -0.2140  0.2298
82856W        W25909   3.570  27.006  24.643  0.1897 -0.1604  0.1543
82857W        W25910  16.461  21.661   5.264 -0.1380 -0.2642 -0.0285
82858W        W25911  11.552  17.568   1.101 -0.1877 -0.2653  0.1898
82859W        W25912  33.192  16.396   7.894  0.0334  0.0799 -0.0567
82860W        W25913  32.940  12.102   6.884  0.0307 -0.2022  0.0850
82861W        W25914  12.360  24.695  25.944 -0.1712  0.0264  0.1507
82862W        W25915   7.590   6.444  10.509  0.3833 -0.0913  0.0043
82863W        W25916   7.591  22.359  24.684  0.2655  0.0471 -0.2057
82864W        W25917  11.725  14.225  11.250 -0.2289 -0.0792  0.2069
82865W        W25918   0.327   6.530   3.575 -0.0519 -0.1506 -0.1952
82866W        W25919  16.094  16.065  22.975  0.2143 -0.0761 -0.4371
82867W        W25920   7.971  21.616   0.699 -0.3237  0.2857  0.2832
82868W        W25921  10.280  20.427   0.352  0.2122 -0.0215  0.0821
82869W        W25922   1.894   2.917   9.247  0.4906  0.0252 -0.2366
82870W        W25923  16.404  26.468  23.679 -0.1662 -0.2558  0.2337
82871W        W25924  22.824  13.208   0.090  0.2173 -0.1249  0.1785
82872W        W25925   1.903  14.070  22.441  0.0046 -0.0671  0.1628
82873W        W25926  20.922  25.687  25.510 -0.3698  0.3144 -0.2229
82874W        W25927  10.453  20.824  25.361  0.0296  0.0290 -0.0380
82875W        W25928   6.308  33.369   8.385 -0.1353  0.2390  0.0526
82876W        W25929   5.957  29.288   7.938  0.2782  0.0668 -0.2330
82877W        W25930  33.572  26.284   3.903 -0.0152  0.0129 -0.2005
82878W        W25931  21.199  14.052   0.260  0.4118 -0.0254 -0.0631
82879W        W25932  10.789  14.416   9.695  0.0513  0.1160  0.1609
82880W        W25933  22.027  14.595   7.601 -0.0084 -0.1097 -0.1752
82881W        W25934   7.583  13.834   7.358  0.2620 -0.0705  0.0521
82882W        W25935  31.783  13.470  10.224 -0.1047 -0.1358 -0.2124
82883W        W25936  32.757  10.739  26.090  0.1307  0.0810 -0.2257
82884W        W25937   0.338   7.899  25.010  0.3326 -0.1708 -0.0621
82885W        W25938   5.811  10.339   3.831 -0.2247 -0.3257 -0.0118
82886W        W25939  34.677  20.953   3.049 -0.0073  0.2689 -0.1475
82887W        W25940  17.837   5.451   7.231  0.2138  0.0645  0.1546
82888W        W25941   9.003  22.102   1.852  0.0411  0.1954 -0.0252
82889W        W25942  31.203  22.214  27.580  0.2721 -0.0756 -0.1514
82890W        W25943   0.974  27.833  24.920 -0.0768  0.1066 -0.1668
82891W        W25944   2.915  17.635   2.569  0.0553  0.1054  0.3434
82892W        W25945  29.413  27.201   6.344  0.0874  0.0286 -0.0159
82893W        W25946  22.077   1.117  18.204  0.1587  0.0471 -0.2376
82894W        W25947   1.224   6.412   4.848 -0.0132 -0.1656  0.0838
82895W        W25948  21.752  29.122   5.434 -0.1226 -0.0598  0.1494
82896W        W25949  29.168  28.528   1.202 -0.0576 -0.2119  0.1414
82897W        W25950   4.643  32.937   1.996  0.1919 -0.2897 -0.0954
82898W        W25951  11.923  34.310   6.883 -0.0126 -0.0512  0.0872
82899W        W25952   5.168   5.608  20.917 -0.3249  0.0107 -0.2379
82900W        W25953  14.061  14.451  18.001  0.1032 -0.0785  0.1006
82901W        W25954  14.198   8.406   7.614  0.2243  0.3827  0.2291
82902W        W25955  27.869  24.240  28.808 -0.0564 -0.1090 -0.1142
82903W        W25956  11.378   0.806   0.590 -0.0420 -0.0606 -0.3498
82904W        W25957   9.570  21.141   1.395  0.1609 -0.3866 -0.0842
82905W        W25958  10.309  10.693  25.839 -0.2520  0.0415  0.4198
82906W        W25959  27.112  15.714  26.409  0.0148  0.0258  0.0570
82907W        W25960  14.804  12.615   4.209 -0.0386  0.0772 -0.1672
82908W        W25961  11.059  13.972   2.891  0.0361  0.1853 -0.2065
82909W        W25962  13.092  24.029   5.180  0.3051 -0.2079  0.1205
82910W        W25963   2.738   0.905   8.763 -0.0318  0.1576  0.0637
82911W        W25964   6.262   2.049  22.367 -0.0302 -0.0284 -0.0721
82912W        W25965   2.911  24.066   0.441 -0.2817  0.3313  0.4111
82913W        W25966   9.089   0.122   3.177 -0.3612  0.2805  0.1076
82914W        W25967   9.811  25.501   6.428 -0.0246 -0.0157 -0.0880
82915W        W25968   6.471   4.517   5.246 -0.2881 -0.2234  0.0784
82916W        W25969   0.548  34.003   8.398 -0.0113  0.1480  0.4986
82917W        W25970  11.608  23.412   1.919 -0.3819  0.2094  0.2325
82918W        W25971   5.374  11.707  20.366 -0.2890  0.2172  0.0330
82919W        W25972   8.118   9.403   3.777  0.0886 -0.3003  0.1276
82920W        W25973  13.280   5.873  25.414 -0.0928 -0.1823 -0.1053
82921W        W25974  25.589  22.388  23.900 -0.1883 -0.3260  0.1444
82922W        W25975  13.161  20.342   1.891  0.0845 -0.3607 -0.0830
82923W        W25976  23.285  28.477   0.032  0.0103 -0.1686  0.1096
82924W        W25977  11.576  25.331  19.825 -0.3488  0.3347  0.5039
82925W        W25978  33.766  20.504   4.549 -0.1086 -0.0059 -0.0049
82926W        W25979   9.277  19.170   6.623 -0.2358 -0.1893 -0.0030
82927W        W25980  30.096   7.635   6.071 -0.0529 -0.5529  0.0344
82928W        W25981  24.630  12.622   0.619 -0.3277  0.2633  0.0226
82929W        W25982   2.464  13.225   8.567 -0.0114  0.1022  0.2112
82930W        W25983   9.391  24.025   5.299  0.1390 -0.2358  0.0493
82931W        W25984  29.595  19.316  21.992  0.0161 -0.1883  0.1192
82932W        W25985  31.123  23.130   8.948  0.0738 -0.2901  0.0637
82933W        W25986   9.181   9.306   9.544 -0.0560  0.0532 -0.0904
82934W        W25987   8.432  28.332   7.822  0.0185 -0.1928 -0.0424
82935W        W25988  16.667  12.355   2.418  0.0770 -0.0899 -0.2012
82936W        W25989  13.308   5.743  16.453 -0.4423 -0.3124 -0.0770
82937W        W25990  12.433  25.654   8.428  0.1975  0.0096  0.0249
82938W        W25991   9.395  16.837  21.483 -0.0925  0.1544 -0.1939
82939W        W25992  11.819  17.489  10.082  0.1276  0.2118  0.0520
82940W        W25993  17.553  27.083  17.521  0.1577  0.0152 -0.1180
82941W        W25994  22.423  12.744  28.943 -0.1186 -0.0893  0.2126
82942W        W25995   0.850  13.139  28.765  0.0737  0.0304 -0.1515
82943W        W25996  33.900  16.872   6.731 -0.0627 -0.0612 -0.2328
82944W        W25997  10.688  30.154   9.189  0.1392 -0.2471  0.1367
82945W        W25998  16.504  10.931  25.031  0.1607 -0.0390 -0.1966
82946W        W25999  11.514  23.339  27.219  0.1397 -0.2117  0.1742
82947W        W26000  32.920  17.146  23.319 -0.1088 -0.4199  0.0026
82948W        W26001  29.590   0.063   1.705 -0.2322  0.0180 -0.2733
82949W        W26002  18.533  29.181   2.064 -0.3078  0.3427 -0.0205
82950W        W26003  31.831  11.389  23.108  0.2196 -0.1728  0.1259
82951W        W26004  24.024  32.077   1.017 -0.0403 -0.1690 -0.1907
82952W        W26005  28.690  12.599  19.440 -0.2392  0.1169 -0.1836
82953W        W26006  21.619  27.722   1.932  0.0789 -0.3802 -0.0185
82954W        W26007  14.049  13.757  17.359  0.3220  0.0139  0.1495
82955W        W26008   8.709  24.164   6.194  0.0191 -0.2665 -0.5219
82956W        W26009  33.998   1.274   3.541 -0.1068  0.3435 -0.0713
82957W        W26010  21.049   5.465  24.085  0.1001  0.2203  0.3196
82958W        W26011   8.042  26.675  27.324 -0.1032 -0.0096  0.0443
82959W        W26012  14.103  24.221  24.838 -0.1366  0.0611 -0.0442
82960W        W26013  13.762  31.780   2.927  0.1774  0.1685  0.0308
82961W        W26014   8.178  17.673   5.816  0.0396 -0.1987  0.0582
82962W        W26015   8.708  15.743   7.410 -0.3357 -0.3702  0.0777
82963W        W26016   1.525  19.659  25.161  0.1614 -0.3656  0.3071
82964W        W26017   6.807   6.047   7.111  0.0272  0.0270 -0.3095
82965W        W26018  28.574  23.777   3.709  0.0573  0.0756 -0.0937
82966W        W26019  33.562  26.798   6.295 -0.1088  0.3961  0.5047
82967W        W26020  12.975  14.618   4.960  0.1782 -0.3673  0.0781
82968W        W26021  12.044  15.751   4.801 -0.1768 -0.0262 -0.3134
82969W        W26022  29.018  19.390  28.388 -0.0305  0.1317  0.2369
82970W        W26023  20.193  21.074  29.188  0.2063  0.1246 -0.1389
82971W        W26024  30.056   3.880   0.617  0.2226  0.1654 -0.1797
82972W        W26025   3.805  10.880   1.738  0.2595 -0.0721  0.0472
82973W        W26026  28.176  19.989  25.131 -0.1746  0.1187 -0.0711
82974W        W26027   0.315  29.442   6.786  0.2109  0.3115  0.0406
82975W        W26028  33.633  10.042  29.147  0.0383  0.0122 -0.0332
82976W        W26029  11.372  32.077   9.759  0.4119  0.0796  0.1889
82977W        W26030   5.304  34.098  22.809 -0.0462  0.1120 -0.0097
82978W        W26031   5.167  11.328   1.664 -0.2693 -0.0419 -0.1781
82979W        W26032   3.562  32.797  17.511 -0.0795 -0.1970  0.2229
82980W        W26033  10.744  24.135   5.761 -0.0222  0.2285  0.0415
82981W        W26034  30.264  18.182  28.008 -0.1556 -0.1623  0.4199
82982W        W26035  10.565  19.325   3.965 -0.2805  0.0179 -0.0626
82983W        W26036  20.909  19.489   7.941 -0.1981 -0.2180 -0.0933
82984W        W26037   2.703   7.444   9.910 -0.6188  0.1204  0.1661
82985W        W26038   7.352   0.649   9.893  0.1392 -0.2180 -0.2666
82986W        W26039   9.481  18.461   9.615  0.2033 -0.3493  0.1479
82987W        W26040   0.741   6.442   1.535  0.0543 -0.0748 -0.0757
82988W        W26041  13.760  19.624  25.317 -0.0099  0.1467 -0.2358
82989W        W26042   6.533  14.736   3.991 -0.2564  0.2190 -0.1496
82990W        W26043  20.941  11.935   3.695 -0.1837 -0.0860  0.2134
82991W        W26044  12.602   8.377  21.367  0.1347  0.1336 -0.0375
82992W        W26045  17.850  22.467  25.310  0.2301  0.2238  0.1704
82993W        W26046  21.426  21.852  25.213  0.1197 -0.1343 -0.1107
82994W        W26047   7.283  15.817  27.759 -0.4853 -0.2838  0.2556
82995W        W26048  22.107  11.602  26.232 -0.2529 -0.1237 -0.2035
82996W        W26049  30.253  22.789  10.216 -0.1731 -0.1450  0.1105
82997W        W26050  33.670  16.866   4.632  0.0257  0.2299  0.2814
82998W        W26051   5.027  21.911   2.151  0.1486  0.1339  0.1263
82999W        W26052   3.057   8.582   4.658 -0.2627 -0.0200  0.0294
83000W        W26053  32.712  28.205   5.855 -0.0113 -0.3974  0.1731
83001W        W26054   4.493   4.515   2.116  0.1667  0.1047  0.2373
83002W        W26055  33.986  34.016  28.995 -0.3632 -0.0826  0.2449
83003W        W26056  33.488  22.406   0.184  0.1386  0.0234  0.0429
83004W        W26057  13.503  13.423   0.920 -0.1428  0.0974 -0.0155
83005W        W26058  24.704  25.206   0.977 -0.3310 -0.3088  0.0704
83006W        W26059  31.388  13.250   2.432 -0.1022  0.0278  0.3834
83007W        W26060  10.981  16.406  14.782 -0.4793  0.0891  0.0437
83008W        W26061  15.696   6.482  10.026 -0.0967  0.0642 -0.1192
83009W        W26062   4.270   8.868   1.871  0.2476  0.1079 -0.0906
83010W        W26063   2.065  28.639  16.306 -0.0016  0.1178 -0.2018
83011W        W26064  31.269  26.194  26.229  0.1324  0.0456 -0.0082
83012W        W26065   7.207   7.207  19.842  0.1321  0.0977  0.0562
83013W        W26066  12.054  10.024  10.331  0.2179 -0.1460 -0.0605
83014W        W26067  18.565  13.449  27.063 -0.0579 -0.2031 -0.0066
83015W        W26068   4.597  22.048  27.821 -0.1955 -0.0273 -0.0268
83016W        W26069  14.404  15.797   1.116 -0.0323 -0.1098  0.0707
83017W        W26070  21.553  15.105   9.146  0.0296 -0.2586 -0.1304
83018W        W26071   8.107  31.504   3.179 -0.1549  0.2221  0.2030
83019W        W26072  29.721  10.160  25.871 -0.4049  0.0541 -0.0471
83020W        W26073   9.260  26.954  16.926  0.0724 -0.1527 -0.2111
83021W        W26074  11.579  30.123   7.865  0.3050  0.0119  0.1281
83022W        W26075  13.665  18.567  26.505 -0.0413  0.0683 -0.2516
83023W        W26076  12.971   6.972   9.095  0.0497 -0.0687  0.0369
83024W        W26077   4.489   6.522   8.506  0.2594  0.2349  0.0768
83025W        W26078   0.680  28.713   2.274  0.0569  0.1387  0.0349
83026W        W26079  28.795  23.993  24.840  0.0828  0.0358 -0.1020
83027W        W26080  33.780   9.945  24.787  0.5457 -0.0624 -0.0208
83028W        W26081   2.713  26.291   6.331  0.3054  0.3755 -0.1127
83029W        W26082  33.998   4.784   1.624  0.0931 -0.0360 -0.1056
83030W        W26083  14.404  23.314   6.330 -0.1337  0.1535 -0.0367
83031W        W26084   9.084  10.975  28.335 -0.3226 -0.0852  0.0920
83032W        W26085   4.263   7.872   6.006  0.1989 -0.0916  0.2734
83033W        W26086   4.401  23.849  25.952 -0.1249  0.3016  0.1175
83034W        W26087   9.116  18.391  16.417  0.0695 -0.1029 -0.2541
83035W        W26088  31.351  32.130  20.590 -0.0683 -0.2446 -0.0089
83036W        W26089  13.415  15.983  14.565 -0.0956 -0.2228 -0.0587
83037W        W26090  16.714  20.272   8.486 -0.2015 -0.3850 -0.1474
83038W        W26091  11.861   5.951   4.768 -0.1338 -0.1209 -0.1141
83039W        W26092   9.743  18.185   5.553  0.2638 -0.1196  0.1160
83040W        W26093  15.246  18.211   3.815  0.2331 -0.1198 -0.0873
83041W        W26094  10.250  26.056   3.272 -0.1116  0.1247 -0.0220
83042W        W26095   7.934  11.492   1.047  0.1059  0.3165  0.1827
83043W        W26096  18.252   5.590   9.811 -0.3466 -0.2456  0.3319
83044W        W26097  15.352  29.641   6.573  0.2081 -0.2661  0.2841
83045W        W26098  15.796  16.532  26.192  0.0877 -0.0771 -0.1018
83046W        W26099  10.326  18.412  21.993  0.1973 -0.2211 -0.1910
83047W        W26100  31.161  29.094   2.820 -0.2584  0.3903 -0.1473
83048W        W26101  17.139  33.749  27.843 -0.1639 -0.1067  0.0796
83049W        W26102  33.679   2.906   8.256 -0.1347  0.0250  0.2102
83050W        W26103  17.088  13.373   5.279 -0.0853  0.0015 -0.0844
83051W        W26104   8.053  14.458   7.885 -0.0444  0.4144 -0.1855
83052W        W26105   8.662  20.934  23.163 -0.0015  0.0507 -0.0390
83053W        W26106  30.694  12.035   9.957  0.0114 -0.3243  0.4577
83054W        W26107  22.056  19.197   6.928  0.0373  0.1486 -0.1484
83055W        W26108   6.635  23.376   1.607 -0.1419 -0.3436  0.3066
83056W        W26109  19.750  31.573   8.740 -0.2422  0.1717  0.1848
83057W        W26110   0.379  22.835  26.678 -0.0257 -0.0011 -0.0005
83058W        W26111  31.389   8.851   3.998 -0.4057 -0.0940 -0.3266
83059W        W26112  12.984  19.987   5.246 -0.2059  0.1960 -0.0548
83060W        W26113   2.994  18.310  24.138  0.0829 -0.1207  0.0394
83061W        W26114  15.291  25.599   1.860  0.1478 -0.0961  0.0264
83062W        W26115   1.959  17.923   8.315  0.3024 -0.1298 -0.1881
83063W        W26116  31.412   9.782   4.766 -0.0045 -0.2173  0.2380
83064W        W26117  19.852  18.876   9.050 -0.1097  0.0298 -0.0488
83065W        W26118  11.044   6.881  10.859  0.2599 -0.1261  0.2411
83066W        W26119   1.578  18.171  25.660 -0.1147  0.1251 -0.0230
83067W        W26120  30.981   9.865   1.957  0.1017 -0.2488  0.2675
83068W        W26121  31.297  31.411  26.752  0.0961  0.0355  0.2351
83069W        W26122  31.944  18.306  19.778 -0.0800 -0.0826  0.1949
83070W        W26123  25.552  18.616   6.809  0.0947 -0.0833 -0.0777
83071W        W26124  11.664  16.773   2.734  0.1124  0.0636  0.1152
83072W        W26125  23.918  15.187  15.311 -0.0163  0.2162 -0.0781
83073W        W26126  33.032  21.414   6.560 -0.1620 -0.2318 -0.0560
83074W        W26127  17.127  20.874  26.971  0.0948  0.1858  0.1451
83075W        W26128   4.240  32.157   7.443  0.0309  0.4060 -0.4600
83076W        W26129  15.151   3.361   0.896 -0.1117  0.1373  0.3349
83077W        W26130   8.319  11.117  14.977 -0.4058  0.0731 -0.1771
83078W        W26131  10.570  25.973   6.931  0.1854  0.0366  0.0667
83079W        W26132  10.645  26.996  26.305 -0.1931 -0.1039  0.0476
83080W        W26133  12.888  14.317  20.285 -0.2349  0.0245  0.1815
83081W        W26134   6.295  31.157  20.214 -0.1732 -0.2813  0.2358
83082W        W26135   4.587  21.654  24.395  0.1134  0.0726  0.4379
83083W        W26136  11.886  27.877   1.632  0.0397  0.0215  0.1447
83084W        W26137   4.689  14.493  22.886  0.0786  0.0058 -0.1475
83085W        W26138  10.000  34.245  15.502  0.0522 -0.1396 -0.2125
83086W        W26139  12.558  20.368  24.255 -0.0374 -0.3030 -0.1215
83087W        W26140  32.405  19.995   7.463  0.3209 -0.1216  0.1496
83088W        W26141  20.949  32.141   4.759 -0.2377  0.0070 -0.2558
83089W        W26142  29.911  26.156  23.776 -0.1488 -0.1310 -0.0943
83090W        W26143   7.560  24.241   3.089  0.1080  0.1861 -0.0092
83091W        W26144   2.701  32.464  25.587 -0.0249 -0.0716  0.0785
83092W        W26145  20.767  31.871   0.521  0.2483  0.0750  0.2315
83093W        W26146  19.683  11.657   3.062  0.5107 -0.0300 -0.1521
83094W        W26147   6.491  15.106   3.617  0.1295  0.0358 -0.1457
83095W        W26148  12.858  23.121  16.971 -0.1141  0.2360  0.1023
83096W        W26149  14.463   8.873  10.029  0.0601  0.1743  0.3036
83097W        W26150   8.990   0.100  21.726  0.0855  0.1021  0.2127
83098W        W26151  12.176   8.545   8.139  0.2469 -0.2772  0.0789
83099W        W26152   9.294   7.351   3.146 -0.0631  0.2853 -0.1987
83100W        W26153  19.595  26.086   2.621 -0.0240 -0.0708  0.0167
83101W        W26154   4.947  17.378   6.677  0.0979  0.2053 -0.0931
83102W        W26155  16.332   8.968   2.660 -0.0643 -0.0239 -0.0761
83103W        W26156   2.881  16.230   4.337  0.1473 -0.1333  0.4324
83104W        W26157  13.293  16.095   9.129 -0.2956  0.2086 -0.0367
83105W        W26158  15.402   0.411  25.270 -0.2069 -0.1810 -0.1927
83106W        W26159   3.781  29.349  26.026 -0.1482 -0.0560 -0.1703
83107W        W26160   7.627  14.656  26.092 -0.3365 -0.1448 -0.3622
83108W        W26161  24.796  15.634   8.078  0.0430  0.0885 -0.0588
83109W        W26162  33.592   7.051   4.814  0.2329 -0.0328 -0.2656
83110W        W26163  34.601  23.607  20.312 -0.1579  0.0697  0.1946
83111W        W26164  10.477  10.456   5.984  0.3430 -0.3839 -0.1266
83112W        W26165  31.185  27.009   2.759 -0.2927  0.1871  0.0695
83113W        W26166  11.427  25.815   6.586 -0.0944 -0.1570  0.2874
83114W        W26167  16.988   5.621   7.235 -0.0416  0.0381  0.2787
83115W        W26168   3.627  33.012   6.483  0.0289 -0.1866  0.2581
83116W        W26169  16.622  26.592   3.229  0.0677 -0.1711  0.0621
83117W        W26170   2.140  26.152  26.783  0.1480 -0.1240 -0.0322
83118W        W26171   5.109  18.150  26.027 -0.1166 -0.0996 -0.1161
83119W        W26172  21.580  20.033   8.905 -0.0156 -0.3056 -0.0993
83120W        W26173   5.842  18.695  27.672 -0.2023  0.1162 -0.2505
83121W        W26174  10.340  12.738  25.773 -0.0444  0.0718  0.1017
83122W        W26175   4.348  20.103   5.004  0.2531  0.1806  0.0364
83123W        W26176  20.856  22.021   7.375  0.1583  0.1474 -0.1562
83124W        W26177   8.402  20.948   9.589  0.0543 -0.2354 -0.0452
83125W        W26178   9.559  25.831  25.721 -0.1314  0.0565  0.1688
83126W        W26179  15.681  15.663   3.152 -0.0989  0.4253  0.1318
83127W        W26180  32.685  14.873   3.338  0.2004  0.3462  0.1826
83128W        W26181  14.538  12.827  27.133  0.3359  0.2298 -0.0338
83129W        W26182  10.094  23.986  24.599 -0.0089 -0.1177 -0.1047
83130W        W26183   9.916  30.923   3.000  0.3302 -0.2275 -0.2152
83131W        W26184   0.254  10.073   9.686 -0.0253 -0.2605 -0.1030
83132W        W26185   2.082  24.127   8.391 -0.0534  0.0440  0.1680
83133W        W26186  19.725  25.612   8.850  0.1186 -0.2825  0.2341
83134W        W26187  34.040  15.509  27.434  0.0841  0.1139  0.1157
83135W        W26188  30.739  14.245  29.104 -0.0041 -0.1361 -0.1421
83136W        W26189  13.803  16.049   7.491 -0.2802 -0.1502  0.0574
83137W        W26190  31.785   0.841  28.364  0.0923  0.2760  0.2267
83138W        W26191  27.054  29.791   9.265  0.2371 -0.0607 -0.0852
83139W        W26192   0.253  23.822   2.651  0.0956  0.0953 -0.0263
83140W        W26193  30.544  23.825  28.146 -0.0525  0.0804  0.0334
83141W        W26194  19.314  12.286   1.960  0.3752 -0.1036 -0.3554
83142W        W26195  10.084  23.709   3.216 -0.1376  0.0831  0.0594
83143W        W26196  16.289  16.402   6.319  0.0773  0.0333  0.2747
83144W        W26197  15.199  33.787   5.069 -0.0769  0.1191  0.0726
83145W        W26198   4.750  24.825  20.489  0.4232  0.2375  0.1564
83146W        W26199   0.673  13.427   0.538 -0.0671 -0.1798  0.0865
83147W        W26200  28.075  13.701   0.439  0.0018 -0.1616 -0.1780
83148W        W26201  31.481  22.297  23.901 -0.0413 -0.0501 -0.3062
83149W        W26202  14.543   0.779   7.758 -0.0252  0.1088 -0.0158
83150W        W26203   5.138  18.983   8.580  0.0630  0.1271 -0.1199
83151W        W26204  10.748   0.365   9.818  0.1515 -0.0228 -0.1526
83152W        W26205   4.611  25.688  26.280 -0.1407  0.1514 -0.3165
83153W        W26206  16.831  12.740  10.885  0.1647 -0.1157  0.1635
83154W        W26207  13.188  14.814  24.358  0.0180  0.1106 -0.0894
83155W        W26208  21.589  25.632  23.053 -0.1953 -0.0057 -0.1133
83156W        W26209  30.152   4.327   4.738 -0.0479 -0.2554 -0.3428
83157W        W26210  18.700  13.473   9.668  0.1791 -0.0415  0.1125
83158W        W26211  11.790  23.985   8.915 -0.3333 -0.1196 -0.2122
83159W        W26212  11.315   8.014  11.280  0.0767  0.3164  0.0024
83160W        W26213   7.298  25.601  18.002  0.0349  0.0504 -0.1795
83161W        W26214   9.800  16.459   7.185 -0.0743  0.3002 -0.2414
83162W        W26215   3.188   7.847   7.572 -0.0046 -0.2151 -0.2857
83163W        W26216  27.396  13.820   0.386  0.0831  0.3900 -0.1097
83164W        W26217  16.991  12.674   2.208  0.0329 -0.2159 -0.1195
83165W        W26218   6.192   6.507   6.887  0.1813  0.1724  0.1600
83166W        W26219  17.203   9.969   2.290  0.0259  0.0449  0.0471
83167W        W26220  21.450  14.384  28.991  0.0629 -0.0037 -0.0267
83168W        W26221   6.415  19.228  25.373  0.1040 -0.1777  0.2823
83169W        W26222   4.593  24.203   5.783 -0.0103 -0.0205 -0.0340
83170W        W26223   9.450  25.885   2.529 -0.0130 -0.3591 -0.0281
83171W        W26224  10.483  12.239   6.471  0.2637  0.2183  0.1064
83172W        W26225   2.805  20.442   6.382  0.0554 -0.1242 -0.0318
83173W        W26226   4.875  18.659   8.278  0.2640  0.1377 -0.2817
83174W        W26227  19.617  17.050   3.397  0.1109  0.1493  0.2894
83175W        W26228  11.048  21.529  25.320  0.1013  0.2084  0.3579
83176W        W26229   8.027  18.922   9.790 -0.0276 -0.2278 -0.0128
83177W        W26230  29.124   7.534  26.460  0.1303  0.1337  0.4190
83178W        W26231  22.348  15.493   7.664 -0.4901 -0.0097  0.0740
83179W        W26232   5.614  14.277   8.970  0.0600 -0.3000  0.1567
83180W        W26233   2.310  21.036   6.936  0.0942  0.1469  0.1895
83181W        W26234  15.102  10.862   6.334  0.2547 -0.3331 -0.2369
83182W        W26235   2.221  15.976   3.101 -0.1210  0.1717  0.2980
83183W        W26236   4.844   6.005  26.996 -0.3438  0.1314 -0.0136
83184W        W26237  27.344  14.895   9.588 -0.0715 -0.1526 -0.0143
83185W        W26238   1.538   1.866   2.056  0.0372 -0.3198 -0.1962
83186W        W26239  13.087  24.508   6.893  0.3393  0.0721  0.4091
83187W        W26240  10.157   4.903   5.706  0.4578 -0.2529  0.1087
83188W        W26241   8.445  33.361   5.489  0.0230  0.1748 -0.1544
83189W        W26242   5.882  21.537   6.241  0.2689  0.1470  0.2356
83190W        W26243  25.803  28.475   3.834 -0.1309 -0.4248  0.1121
83191W        W26244  27.296   5.789   7.452  0.0904  0.1614  0.0109
83192W        W26245   3.802  15.181   6.552  0.0071  0.1039 -0.4092
83193W        W26246  18.032   4.994   0.894  0.0583 -0.0928  0.0961
83194W        W26247  26.514  12.742  23.966  0.0754  0.1830  0.3571
83195W        W26248   7.387  17.455   6.787 -0.0858  0.1597  0.2305
83196W        W26249  23.696   6.286  26.506 -0.0423 -0.1411 -0.1716
83197W        W26250  20.080  13.037   5.604 -0.1486  0.0757  0.1634
83198W        W26251  24.528  15.735  27.349 -0.0659  0.1458 -0.1800
83199W        W26252   0.569  22.033  27.354  0.0487 -0.2152  0.0094
83200W        W26253   8.460  30.334   3.936 -0.2200 -0.3608  0.0244
83201W        W26254  12.444  17.945   1.385  0.1139  0.2595  0.0925
83202W        W26255  25.339  32.698  23.587  0.1091 -0.4485  0.0816
83203W        W26256  18.527  21.988   6.325  0.0896 -0.2104  0.2121
83204W        W26257   2.413  15.065   9.230 -0.2009  0.0351 -0.1012
83205W        W26258  10.859  21.351   9.378  0.0627 -0.1909 -0.0508
83206W        W26259  14.463  22.072   8.038  0.1204  0.0207 -0.1111
83207W        W26260  14.173  21.290  24.428  0.2342 -0.1627  0.0466
83208W        W26261   6.631   7.061   9.938  0.3482 -0.0568  0.2126
83209W        W26262  10.039  16.601   4.171 -0.0220  0.1516 -0.0872
83210W        W26263   9.907  11.199   7.748 -0.0426  0.0676  0.0656
83211W        W26264  25.055  14.484  23.746 -0.3236 -0.4731  0.1356
83212W        W26265  24.975  28.297  24.777  0.0043 -0.1520  0.2830
83213W        W26266  33.009  11.048  28.176  0.3579  0.0496 -0.0525
83214W        W26267  34.638  20.903   6.697  0.2384  0.3408 -0.0268
83215W        W26268   2.589  21.985  17.265  0.1477 -0.0146  0.2975
83216W        W26269   0.299   6.927  26.257  0.0613  0.1470  0.0375
83217W        W26270   4.871  19.099   2.352 -0.1576 -0.0030  0.1014
83218W        W26271   9.983  17.828  27.541  0.1928 -0.3561 -0.3033
83219W        W26272  19.216   8.508   8.779  0.0126 -0.0157 -0.1368
83220W        W26273   5.275  14.471  21.894 -0.2125 -0.0217  0.0371
83221W        W26274  18.578  11.408   4.077 -0.0157 -0.0687 -0.0064
83222W        W26275  11.467  14.246  20.612 -0.3140  0.1050  0.2375
83223W        W26276  26.037  15.201   5.470 -0.3075 -0.2253  0.0084
83224W        W26277  33.020  18.816   3.758  0.0064 -0.2546 -0.2651
83225W        W26278   5.634   2.801   9.983  0.0058 -0.3144 -0.0080
83226W        W26279   8.778  10.964  25.445  0.0823  0.3162 -0.0544
83227W        W26280  10.202  16.854  28.235  0.0104  0.2428  0.0073
83228W        W26281   9.270  13.301   8.334 -0.2914  0.0370 -0.2866
83229W        W26282  13.452  25.973   8.556  0.1892 -0.0148  0.4052
83230W        W26283   8.458  22.153   2.514  0.0347  0.0779 -0.0545
83231W        W26284   4.740  14.188   5.117  0.3867 -0.2722  0.1073
83232W        W26285  13.330   8.564   2.385  0.0124  0.2182 -0.0044
83233W        W26286  31.646  28.495   7.409 -0.0774  0.5426  0.2585
83234W        W26287  26.615  19.671   8.472 -0.2992 -0.0303  0.2064
83235W        W26288  24.993  14.117   5.160  0.0737 -0.1829 -0.0675
83236W        W26289   8.175   9.044   3.400  0.2772  0.1305 -0.1930
83237W        W26290  10.027  20.596  25.457  0.0231  0.0809 -0.0693
83238W        W26291   7.977  16.043   0.877 -0.0733  0.1218  0.1806
83239W        W26292  10.268  19.098  29.040  0.4949  0.0160 -0.1893
83240W        W26293  29.957  18.946   8.775 -0.3262  0.3715 -0.3054
83241W        W26294  10.890   5.808  24.025 -0.0754  0.3288 -0.0315
83242W        W26295  28.104  17.666   5.237 -0.3732 -0.1550 -0.0432
83243W        W26296  10.475   5.195   0.260 -0.0930 -0.2036 -0.1196
83244W        W26297   2.101  15.933   0.717  0.0163 -0.2307 -0.3538
83245W        W26298   9.489  23.287   8.670 -0.0459 -0.1062  0.0240
83246W        W26299   6.394  15.380   8.666 -0.2419  0.0362  0.2119
83247W        W26300   1.277   2.027   2.966 -0.4004 -0.0601 -0.3557
83248W        W26301  24.025  28.358   9.190  0.0708 -0.2530 -0.4390
83249W        W26302   6.920  24.705   5.983 -0.2002  0.0484 -0.0857
83250W        W26303  31.275   7.518  10.367 -0.0781 -0.2237 -0.2634
83251W        W26304  16.656  19.832  24.345  0.1118 -0.1575  0.0898
83252W        W26305  19.569  20.223   4.680 -0.2567 -0.3891  0.2442
83253W        W26306   3.609   6.440   3.626  0.1543  0.1285 -0.0055
83254W        W26307  10.270   0.001   5.771  0.2908  0.0374  0.1598
83255W        W26308   8.956  18.933  27.831  0.0747 -0.2780 -0.0980
83256W        W26309  31.612  21.554  27.489  0.2219  0.1581 -0.0367
83257W        W26310   4.771  20.824   6.038 -0.2107 -0.1979 -0.0917
83258W        W26311   4.236  20.423   8.215 -0.0771 -0.2238  0.0173
83259W        W26312  11.464  18.749   6.883 -0.0352  0.0351 -0.0813
83260W        W26313   1.027  12.664   3.057  0.2480  0.0393 -0.1524
83261W        W26314  17.199  25.528   5.280  0.1811  0.1164 -0.1111
83262W        W26315  26.921   8.837  21.957 -0.2423 -0.4247 -0.1159
83263W        W26316  28.920  27.249   0.866 -0.1393 -0.2596 -0.0786
83264W        W26317  11.608   6.392  19.321  0.0227 -0.1432  0.1533
83265W        W26318   0.517  34.586  28.728 -0.1164  0.1049  0.0159
83266W        W26319  10.368  17.025   9.451  0.1910  0.2196 -0.0198
83267W        W26320  17.003  28.581  22.956 -0.4169 -0.0153  0.0442
83268W        W26321  10.393  22.509   7.858  0.2070 -0.0455 -0.0810
83269W        W26322  20.937  13.250   0.662  0.2198  0.0763  0.1569
83270W        W26323  27.950  13.926  26.249 -0.0641  0.2198 -0.0440
83271W        W26324  13.057  27.916  28.193 -0.2364  0.2395 -0.1387
83272W        W26325  32.184  20.692   6.019 -0.0039 -0.1372 -0.0882
83273W        W26326  32.630   6.347   2.241  0.0577 -0.0921 -0.0652
83274W        W26327   3.225  25.552   0.898 -0.4458 -0.0998 -0.1619
83275W        W26328  19.329  11.745  10.479 -0.1882  0.0466 -0.3125
83276W        W26329  32.045  11.867   0.784  0.1066 -0.1046  0.0769
83277W        W26330  21.668  31.830  24.472 -0.1453  0.0027 -0.1318
83278W        W26331  29.945  29.761  29.118 -0.2225 -0.0561 -0.2043
83279W        W26332   1.437  21.128  27.941  0.1092 -0.0989  0.4027
83280W        W26333  11.417  34.079  29.001  0.0986 -0.3206  0.3549
83281W        W26334  15.241  27.117   8.296 -0.2938 -0.1284  0.1485
83282W        W26335  15.782  19.390   5.911 -0.2151 -0.1423 -0.2503
83283W        W26336   4.408  26.906   5.110  0.1487  0.1403  0.2436
83284W        W26337  19.128  24.700  25.578  0.1655  0.3060 -0.0867
83285W        W26338  11.406  27.093  18.660  0.1116  0.0827 -0.3543
83286W        W26339  19.719  29.465   5.255 -0.0419 -0.0151  0.3174
83287W        W26340   8.672  33.668   8.817 -0.2880 -0.0238  0.0273
83288W        W26341  17.901  26.799  24.217 -0.1821 -0.0373 -0.5281
83289W        W26342  16.884  19.606   2.881 -0.1776 -0.3967 -0.1583
83290W        W26343   1.235  11.666   8.554  0.1333  0.2123  0.1546
83291W        W26344   5.582  13.725   0.669  0.4126 -0.2555  0.0029
83292W        W26345   1.509  32.536   6.940  0.1756  0.0500  0.0813
83293W        W26346  23.449   9.480   4.835 -0.0728  0.1881  0.0492
83294W        W26347  32.750  13.859  24.956 -0.1060 -0.0845  0.0689
83295W        W26348  16.081  13.494   1.470  0.1945 -0.0475 -0.2298
83296W        W26349  17.305  26.392   5.855  0.0503  0.2163  0.1381
83297W        W26350  28.842  27.275   8.963 -0.3084 -0.1929 -0.0789
83298W        W26351   8.301  17.566  20.505 -0.1310 -0.1407  0.0414
83299W        W26352  11.592  29.973   5.375 -0.2453  0.0670  0.1781
83300W        W26353  16.778  13.065   7.934 -0.1392 -0.0571 -0.0396
83301W        W26354  19.502   9.490   9.741 -0.5037 -0.0674 -0.0338
83302W        W26355  15.233  14.990  24.138  0.1519  0.0052  0.1747
83303W        W26356  31.883  19.172   6.873  0.2499  0.2730  0.0500
83304W        W26357  20.225   1.430   9.107  0.0810  0.0581  0.2236
83305W        W26358   6.151  28.170  19.676 -0.2806  0.4386  0.0014
83306W        W26359  30.453  23.297   8.300  0.1917  0.0961  0.0938
83307W        W26360  24.789  26.311  26.605  0.2480 -0.0188 -0.2505
83308W        W26361  29.793  29.405  15.468  0.0623  0.1445  0.0783
83309W        W26362  11.752  14.139  26.088  0.2602 -0.0714  0.0619
83310W        W26363  17.995  30.523  25.945  0.1544 -0.1040  0.4690
83311W        W26364   4.266  15.634   8.652 -0.0805 -0.0258  0.0423
83312W        W26365  13.085  23.459  16.512 -0.1143  0.4656  0.3684
83313W        W26366  25.357  19.353  25.210  0.1022  0.0889 -0.0138
83314W        W26367   9.093  19.833   2.650  0.2715 -0.2867  0.2799
83315W        W26368  32.165  13.972   3.282 -0.2390  0.3317  0.0734
83316W        W26369   3.263  29.392   5.897  0.2061 -0.0983  0.0059
83317W        W26370   8.263  16.811   1.338  0.1616  0.0254  0.0502
83318W        W26371  12.935   9.266   2.400 -0.3051 -0.1546 -0.0042
83319W        W26372  20.106  26.174  25.634  0.0707  0.2442  0.0579
83320W        W26373  11.098  16.814  19.572 -0.1258  0.1907 -0.2404
83321W        W26374  34.050  11.301  19.728 -0.0069 -0.1375 -0.0790
83322W        W26375   4.146   5.199   1.043  0.1874  0.0720  0.0565
83323W        W26376  20.926  14.637   2.023 -0.0766  0.0130 -0.1946
83324W        W26377   5.076   3.230   5.668  0.0832 -0.4419  0.1353
83325W        W26378  13.985  15.617  22.832  0.1040 -0.0475  0.1226
83326W        W26379  32.424  22.200  24.716  0.0553 -0.0602  0.1281
83327W        W26380  27.175  12.728   2.665 -0.4561 -0.2024  0.1149
83328W        W26381  15.015  23.535   0.671 -0.1148 -0.1808  0.0230
83329W        W26382   6.988  19.987  29.087 -0.2978  0.1070 -0.0507
83330W        W26383   8.532  19.562   9.370 -0.2775  0.1738  0.1487
83331W        W26384   1.081  10.002  27.408  0.0216 -0.2634 -0.1818
83332W        W26385  26.837  32.047  22.403  0.3177 -0.1911 -0.0887
83333W        W26386  12.270  12.459  25.134  0.0952 -0.0739  0.0987
83334W        W26387   7.853  30.041  21.501  0.2073 -0.0300  0.0446
83335W        W26388   1.238  22.484   5.892 -0.5692 -0.3607 -0.0886
83336W        W26389   2.158  12.217  28.509 -0.0739  0.1128 -0.0631
83337W        W26390  26.884  33.562  14.986  0.2454  0.2130 -0.0626
83338W        W26391   1.733  31.705   1.551  0.3796  0.0361  0.2232
83339W        W26392  17.617   8.011   6.324 -0.2546  0.3904 -0.0355
83340W        W26393   1.896  27.413  24.829 -0.1370 -0.1333  0.2480
83341W        W26394   3.859   6.894  27.778  0.0106 -0.0677 -0.1092
83342W        W26395  28.586  33.016   1.578 -0.0943 -0.0488  0.4578
83343W        W26396   3.150  26.965   4.393 -0.2685 -0.0234 -0.0249
83344W        W26397   0.339  26.114  23.531 -0.3961  0.0252  0.0879
83345W        W26398   6.108  30.382   6.688 -0.3592 -0.0641  0.0758
83346W        W26399  17.906   4.469   6.857  0.0613  0.1075  0.0635
83347W        W26400  18.593  19.534   2.961 -0.1132 -0.2485  0.1907
83348W        W26401  19.479  31.369  21.049 -0.0837 -0.2335 -0.2364
83349W        W26402  30.202   6.816  26.297  0.1443 -0.0242  0.0349
83350W        W26403  11.483  13.533   7.806 -0.0362 -0.0831  0.2306
83351W        W26404  16.434  27.108  24.634 -0.1317  0.1277  0.0741
83352W        W26405  27.073  28.133   0.383  0.2121 -0.0720  0.0680
83353W        W26406  27.487  28.093  16.059  0.3746 -0.2831 -0.1125
83354W        W26407   7.968  26.395   8.319 -0.1333  0.0557  0.2066
83355W        W26408   5.538   0.983   5.911  0.0316  0.1246  0.0097
83356W        W26409   2.847   0.879   7.227 -0.0208  0.1387  0.1062
83357W        W26410  31.241  22.187   5.934  0.1287  0.0724  0.2662
83358W        W26411  34.397  15.450  28.957  0.2142  0.0091 -0.1902
83359W        W26412  10.919   1.388  18.265  0.0188  0.1237  0.3560
83360W        W26413  20.222  24.864  10.553  0.0952  0.0023 -0.2700
83361W        W26414  15.222  25.375   8.030 -0.0906 -0.0502 -0.0752
83362W        W26415   0.670  14.800  26.326 -0.0584  0.0713  0.0640
83363W        W26416  17.300   9.052   3.340  0.0716  0.1122  0.4538
83364W        W26417   2.770  14.842  13.637 -0.0930 -0.2765  0.0299
83365W        W26418  32.642   9.508  27.708  0.1355 -0.1420  0.2782
83366W        W26419  13.463  31.470  16.956 -0.3361  0.2153 -0.0509
83367W        W26420   2.025   7.855  27.263 -0.1011  0.0192 -0.1304
83368W        W26421  14.308   5.022  25.018 -0.3587  0.3084 -0.0271
83369W        W26422  29.628  24.544  25.092 -0.1092  0.0447 -0.0896
83370W        W26423  27.419  20.623   1.560 -0.1010  0.2318  0.0666
83371W        W26424  26.280  18.895   4.664 -0.1735 -0.1293 -0.1766
83372W        W26425  15.355  24.548   5.402 -0.1387  0.0059  0.1007
83373W        W26426   4.703  20.782   0.588 -0.3212  0.1383 -0.0233
83374W        W26427  16.681  20.824   3.177 -0.0648  0.0502  0.2019
83375W        W26428  23.318  14.542  22.484  0.2144  0.2369  0.1706
83376W        W26429  16.412   1.973  26.177 -0.0486 -0.0230  0.1983
83377W        W26430  21.158   4.623   4.306 -0.0173  0.3037 -0.2345
83378W        W26431  34.214   4.223  22.655 -0.0582 -0.0239  0.1437
83379W        W26432  24.868   2.967  23.456 -0.0615 -0.2627 -0.3186
83380W        W26433  10.826  16.813  24.460  0.1127  0.1951  0.3185
83381W        W26434   8.345  14.996   9.558 -0.1002  0.2869  0.0735
83382W        W26435   8.464  16.066   9.387  0.2607 -0.0413  0.2988
83383W        W26436  33.344   1.427   7.846 -0.0222 -0.1337 -0.0354
83384W        W26437  15.057  18.403  23.978 -0.0280 -0.2066 -0.0186
83385W        W26438  32.525  19.894   3.436 -0.1467  0.1640  0.0810
83386W        W26439  17.730  25.770   7.130 -0.0198 -0.2071  0.1020
83387W        W26440   5.466  20.807   0.039 -0.2402  0.0105  0.0661
83388W        W26441  11.127  24.434   7.436  0.0889 -0.3008 -0.3454
83389W        W26442  19.599   5.086   9.291  0.2158  0.0424 -0.1754
83390W        W26443  26.206  33.616   7.048 -0.1275  0.3443 -0.2342
83391W        W26444   7.677  24.133  24.583  0.2783  0.0215 -0.1377
83392W        W26445   5.948  32.619  16.527  0.0605  0.1270 -0.2831
83393W        W26446  13.928   2.887   7.977  0.0564 -0.1541 -0.1629
83394W        W26447  25.368   2.467  27.497  0.0901  0.0308  0.2582
83395W        W26448  25.248  24.262  27.733 -0.3647  0.1826  0.4364
83396W        W26449  13.905   6.464   6.341 -0.1156 -0.1046 -0.2268
83397W        W26450   7.645  14.454   6.781 -0.0316 -0.2648  0.0528
83398W        W26451   9.725  10.132   5.044  0.0647  0.0088 -0.0142
83399W        W26452   3.852  16.004   8.515 -0.0759 -0.0699 -0.1978
83400W        W26453   7.898  22.084   8.513  0.1933 -0.1140 -0.2190
83401W        W26454   0.058   1.659  20.079  0.0288  0.1748 -0.0318
83402W        W26455   6.839  21.932  26.346  0.1015  0.0776  0.1750
83403W        W26456  12.293  26.885   3.294 -0.2515 -0.2891  0.0239
83404W        W26457  29.262  24.177   2.503 -0.1725 -0.0580  0.0124
83405W        W26458   1.399  30.352  26.686 -0.2866  0.0433 -0.0994
83406W        W26459  27.436  16.020   6.823  0.1568 -0.1576 -0.2098
83407W        W26460   4.058  24.689  19.071  0.2422  0.1912  0.0959
83408W        W26461  25.510  11.804  26.426  0.1380  0.3161  0.2663
83409W        W26462   5.680  27.889   7.464  0.0962  0.0261  0.0548
83410W        W26463   5.712  26.925   9.640  0.2090  0.2270 -0.0898
83411W        W26464  11.050  18.374  21.186  0.1798 -0.2446  0.4333
83412W        W26465  32.693  17.234   9.715  0.1053 -0.3414 -0.0236
83413W        W26466  31.932  19.283   3.845 -0.1834  0.1018 -0.1603
83414W        W26467  34.607  31.794   2.943 -0.1797 -0.2520 -0.3086
83415W        W26468  22.323  30.255   3.353 -0.0532  0.2645  0.0173
83416W        W26469   2.460  27.166   4.827 -0.2004 -0.2030 -0.0559
83417W        W26470  20.771  17.914  14.859  0.1368  0.3449  0.1667
83418W        W26471  30.408  10.417  21.993 -0.3095  0.1541  0.1197
83419W        W26472   0.841  19.844  23.190  0.0574 -0.0605  0.3476
83420W        W26473  33.409  12.905   4.667 -0.3209  0.0477  0.1429
83421W        W26474  12.665  19.043   8.016 -0.0501 -0.2304 -0.1081
83422W        W26475  32.563  23.712  26.604 -0.1132  0.0807  0.0530
83423W        W26476  31.620  31.932   4.313  0.2808  0.0585  0.2729
83424W        W26477  16.642  10.658   3.487 -0.0428  0.0926  0.3211
83425W        W26478  11.250   6.613   7.479 -0.2615 -0.2806  0.0279
83426W        W26479  19.959  22.935   2.655  0.1553  0.2101 -0.1326
83427W        W26480   6.685  15.580  28.234 -0.2332  0.1007  0.2337
83428W        W26481  16.716  16.930  25.528 -0.1703  0.2001 -0.0986
83429W        W26482  12.536  29.397  22.186 -0.0767  0.1118  0.0559
83430W        W26483  27.811  23.448   8.093 -0.1824 -0.0149 -0.3620
83431W        W26484  26.598  24.885   3.199  0.2808  0.2181  0.0533
83432W        W26485  21.789  27.433   1.095 -0.0417 -0.0315 -0.3669
83433W        W26486  18.459  23.961   6.334  0.4244 -0.0873  0.3159
83434W        W26487  15.364  18.148  24.376  0.0511  0.0029  0.1939
83435W        W26488   9.389  18.410  27.709  0.1390 -0.1373 -0.0742
83436W        W26489   2.967  19.499   7.348 -0.1904  0.2470  0.0860
83437W        W26490  26.153  33.253   9.267  0.1943 -0.1009 -0.3286
83438W        W26491  17.045   2.519  24.421 -0.1335  0.3455  0.1236
83439W        W26492   0.120  26.939   1.732 -0.0047  0.0034  0.1168
83440W        W26493  19.768  31.428  25.071  0.5388 -0.0475 -0.3735
83441W        W26494   7.565   0.631  20.961 -0.0789 -0.2804 -0.2620
83442W        W26495  18.465  26.549  18.868 -0.0206  0.0245  0.6492
83443W        W26496  13.336  29.100  25.605 -0.1372 -0.1927  0.2515
83444W        W26497   4.853   7.444   4.779 -0.1526  0.4189  0.0381
83445W        W26498  11.793  10.368   0.782  0.3070 -0.1091  0.0496
83446W        W26499  33.563  17.338   7.908 -0.0084 -0.2441  0.0236
83447W        W26500   3.508  33.995  16.113  0.0864  0.1826 -0.1588
83448W        W26501   3.104  26.755  16.098 -0.0350  0.2984  0.2980
83449W        W26502  16.061  30.025  25.113  0.4102 -0.1638  0.0790
83450W        W26503  29.716  20.996   4.804 -0.1983  0.0688 -0.2774
83451W        W26504   6.559  23.980   5.059 -0.3630 -0.2980  0.0302
83452W        W26505   4.048  24.448   1.562  0.0601 -0.3411  0.1998
83453W        W26506  26.125  16.151  28.387  0.2187  0.3574  0.3468
83454W        W26507  34.191  10.409  21.209  0.0337  0.4222  0.0886
83455W        W26508  14.647  11.801  27.555  0.1933 -0.2039 -0.0279
83456W        W26509   1.414  19.558  16.998 -0.0473  0.0030  0.1576
83457W        W26510   7.455  20.562   7.482  0.2151 -0.0675 -0.0150
83458W        W26511  11.820   1.756   4.464  0.0685 -0.0946 -0.1282
83459W        W26512  10.696  23.582   7.108  0.1520 -0.0691  0.0482
83460W        W26513   6.455  18.548  25.844  0.2328  0.3114 -0.0748
83461W        W26514  32.422  27.561  16.569 -0.0430 -0.3343 -0.0017
83462W        W26515  25.483  34.604  19.665  0.1345  0.2059  0.0541
83463W        W26516  12.421  32.997   1.297  0.3050 -0.2235  0.3363
83464W        W26517   0.956  25.327  21.398  0.1813 -0.2925 -0.1725
83465W        W26518  28.740  24.335   4.276 -0.1635 -0.2681  0.1746
83466W        W26519  13.855  22.696   2.759  0.0346 -0.1349  0.0949
83467W        W26520   2.992  26.905   8.294 -0.0452  0.1074  0.1045
83468W        W26521  19.475  15.296  27.132  0.2435  0.1787  0.3211
83469W        W26522   6.588  14.242  10.782  0.0538 -0.2361 -0.3235
83470W        W26523   8.696  12.579  18.478 -0.1830  0.1572  0.1652
83471W        W26524  33.006  29.635   7.936 -0.0355 -0.2829  0.2000
83472W        W26525   7.482  18.777  25.938 -0.1728  0.1490 -0.4381
83473W        W26526  17.031   2.820  18.143  0.1262  0.1277 -0.0534
83474W        W26527  34.253  30.800   2.984  0.0740  0.1619  0.1208
83475W        W26528  10.512  15.455   3.778  0.1864  0.0715 -0.0910
83476W        W26529  32.961  25.172  21.082 -0.1733 -0.3568  0.0858
83477W        W26530   1.370  18.475  14.519  0.0223 -0.2264  0.0086
83478W        W26531  34.100   6.024  27.041  0.0947 -0.5006  0.0615
83479W        W26532  21.593  28.359  26.691  0.1050  0.1767 -0.2848
83480W        W26533  27.227  27.976  21.014  0.2626  0.2021  0.0414
83481W        W26534  26.307  25.751   7.834 -0.2449  0.3806  0.4229
83482W        W26535  11.596  20.926  20.719  0.1981  0.0660  0.2051
83483W        W26536  21.369  15.194   5.617 -0.2309  0.2301 -0.1232
83484W        W26537  10.386   8.373  16.071  0.0459  0.1435 -0.3828
83485W        W26538  15.515  18.344  22.495 -0.1646 -0.2392  0.3126
83486W        W26539   8.742   0.098  19.805 -0.3283 -0.2779  0.1018
83487W        W26540   0.163  13.709  25.921 -0.0672 -0.1309  0.3087
83488W        W26541  33.813  18.482  17.894 -0.1095  0.0518 -0.2681
83489W        W26542  17.165  30.520   2.695 -0.2610  0.0507 -0.1796
83490W        W26543  19.240   2.121  10.818 -0.3066 -0.0192  0.2303
83491W        W26544   2.796  30.131   3.192  0.1730  0.1300  0.0877
83492W        W26545   3.137  19.777   5.359  0.1196 -0.0627  0.2808
83493W        W26546  11.781  26.854   5.131  0.1615  0.0716  0.1214
83494W        W26547   4.172   2.746  28.589  0.1316 -0.1123 -0.0888
83495W        W26548  26.015  33.024   7.885 -0.2172  0.0663  0.2199
83496W        W26549   6.513  10.541  21.951  0.2567 -0.0342  0.2021
83497W        W26550  11.124  26.691  15.793  0.0685 -0.1483 -0.1978
83498W        W26551  12.205   3.614  21.894 -0.1225 -0.0360  0.1325
83499W        W26552  11.749  21.908  15.877 -0.1229  0.0659 -0.0534
83500W        W26553   7.665  24.992   5.394 -0.1655  0.0397  0.0778
83501W        W26554   7.583  31.632  13.108 -0.4632  0.1815 -0.1837
83502W        W26555  34.537   7.668   5.276 -0.1203 -0.0332  0.1242
83503W        W26556  18.891   1.256   3.601  0.0734 -0.0073 -0.1099
83504W        W26557  23.349  16.792   5.049 -0.1514  0.3925  0.0221
83505W        W26558   2.391   3.167   8.591 -0.0395 -0.3225 -0.0414
83506W        W26559   9.066  28.276   3.582 -0.0666 -0.1318  0.0624
83507W        W26560   4.754  19.996  16.415 -0.3334 -0.0676 -0.3516
83508W        W26561   9.124  31.929   9.195 -0.3149 -0.3010 -0.1196
83509W        W26562   8.523  30.621   0.176  0.0715  0.1398  0.0575
83510W        W26563  16.600  17.753  23.631  0.2488  0.0618  0.0273
83511W        W26564   1.393  16.156  21.502  0.0385 -0.1823 -0.0171
83512W        W26565  14.432  31.788   9.767  0.2022 -0.0954  0.2410
83513W        W26566   8.967  17.576   5.877 -0.1063 -0.0952  0.0227
83514W        W26567  12.717  18.885  15.055  0.1444  0.1648  0.1595
83515W        W26568  25.531  21.155  27.792  0.2173  0.1894 -0.1122
83516W        W26569  14.699  21.804  21.784 -0.2772 -0.4003 -0.2098
83517W        W26570   6.374  25.634   5.315  0.0548 -0.1350  0.0576
83518W        W26571   5.587  28.356   8.891 -0.2272 -0.1275 -0.2786
83519W        W26572   8.364   4.378   4.916  0.0668  0.3006  0.0987
83520W        W26573   2.002  31.793   7.709 -0.1446  0.3547 -0.0899
83521W        W26574   8.243  30.190   2.862  0.0404 -0.1643  0.0739
83522W        W26575  33.566  10.909   4.476  0.2215 -0.0804  0.0398
83523W        W26576  34.139  28.974   1.134  0.0535 -0.1015  0.0134
83524W        W26577  30.442  22.706  15.682  0.2234 -0.0094 -0.0858
83525W        W26578   6.539  12.130  24.129  0.1301  0.0278  0.1344
83526W        W26579  29.541  30.572   4.849 -0.5404  0.1446  0.1028
83527W        W26580   4.870  26.337   3.008 -0.2847 -0.4110  0.2621
83528W        W26581  20.093  28.342  20.456  0.4157  0.0773  0.1838
83529W        W26582  15.084  16.925  28.768  0.0109 -0.0090  0.0823
83530W        W26583   7.367   2.660   3.281  0.2336 -0.2874  0.4440
83531W        W26584  15.018  16.073  23.493  0.1148 -0.0145  0.2071
83532W        W26585   4.782  23.284   8.918  0.0139 -0.0497  0.1335
83533W        W26586   5.547  30.732   5.284 -0.1120  0.2103  0.0948
83534W        W26587  16.341  28.713  17.021 -0.4247 -0.3648  0.0210
83535W        W26588   0.950   8.137  28.023 -0.0011 -0.1840  0.2423
83536W        W26589  16.051  14.372   1.908  0.2046 -0.1796 -0.1527
83537W        W26590  28.884  31.679  24.334  0.1010 -0.2384 -0.0881
83538W        W26591   8.185  19.754  23.725 -0.1810 -0.3161  0.0129
83539W        W26592   4.781  20.359   6.300  0.0801  0.1477  0.1296
83540W        W26593  12.054  13.410   0.796 -0.2824 -0.0019  0.4206
83541W        W26594  32.123  18.696   7.041  0.2322  0.0654 -0.2183
83542W        W26595  20.815  32.742   5.939 -0.2642  0.0277 -0.1851
83543W        W26596   4.820  14.460   3.729  0.0218  0.0027  0.0265
83544W        W26597   7.516   3.432  26.475  0.0092 -0.4331  0.0336
83545W        W26598  31.422  22.756   3.258 -0.2881  0.0385  0.2208
83546W        W26599   7.925  14.946   3.457 -0.2743 -0.0031  0.1432
83547W        W26600   6.858   5.174   4.661  0.0803  0.0835  0.0880
83548W        W26601  24.809  11.097  23.907 -0.4308 -0.1675  0.0799
83549W        W26602  27.936  30.221   7.373 -0.0898 -0.2332  0.1323
83550W        W26603   1.440  25.710   4.409 -0.2949 -0.0321 -0.2013
83551W        W26604   1.440  30.893   5.940  0.1419  0.0601 -0.0805
83552W        W26605   5.382  13.825   8.771 -0.2021 -0.1775  0.3117
83553W        W26606  16.634  22.765  16.010 -0.3133 -0.0425 -0.0732
83554W        W26607  27.149  28.515   4.458  0.3293  0.0545  0.2596
83555W        W26608  22.497  26.442  15.949 -0.2401  0.0919 -0.3623
83556W        W26609   0.418  13.719   7.923 -0.1656  0.3167  0.1824
83557W        W26610  31.967   1.432  26.236  0.2352 -0.0450 -0.0934
83558W        W26611  29.973  28.339  22.094  0.1395 -0.0766 -0.1049
83559W        W26612  13.827   2.532   1.537  0.0566  0.4082 -0.1083
83560W        W26613  23.827   4.962  28.481 -0.1999 -0.2268  0.0307
83561W        W26614   5.540  15.709   1.641  0.2395 -0.0571 -0.1302
83562W        W26615  18.092  22.685  25.706 -0.2188 -0.0365 -0.3202
83563W        W26616  27.245  27.232  18.443  0.2912 -0.4530  0.2709
83564W        W26617  10.745  21.801  25.601 -0.1842 -0.0122 -0.1218
83565W        W26618   3.761  31.108  28.415 -0.3414  0.1087 -0.1964
83566W        W26619   2.519  25.019  26.018  0.1466 -0.0991  0.3009
83567W        W26620   5.461  16.307   5.295 -0.1110 -0.1955  0.0088
83568W        W26621   1.555  33.161  26.460 -0.3050 -0.0729 -0.0061
83569W        W26622  15.328  28.884  18.873  0.0728 -0.0902  0.0157
83570W        W26623   8.985  15.914  24.195  0.0521 -0.0137  0.3699
83571W        W26624  30.518  27.696   2.723  0.0558  0.0203 -0.0561
83572W        W26625  29.851  27.787   2.285 -0.1645 -0.0870  0.1755
83573W        W26626   7.716  22.751  26.422  0.1667  0.1127  0.0479
83574W        W26627  17.064  26.051  26.583 -0.0948 -0.0042  0.0113
83575W        W26628  32.744   8.773   5.139  0.2254  0.0793  0.0749
83576W        W26629   3.421  29.926   0.525  0.0440  0.3736  0.2444
83577W        W26630  16.073  17.990  27.568  0.0546  0.0444 -0.3991
83578W        W26631   1.960   8.504   5.324  0.0815 -0.1162 -0.2220
83579W        W26632   6.022  27.508  14.745 -0.1943 -0.0088 -0.0855
83580W        W26633  33.391  25.815   3.070 -0.1349  0.3075 -0.4206
83581W        W26634   3.004   1.890  28.792 -0.0639 -0.1366 -0.1009
83582W        W26635  18.969  20.193  13.095 -0.1792  0.4432  0.3537
83583W        W26636  15.144  29.628  16.406 -0.2706 -0.4421  0.1914
83584W        W26637   2.693  24.893   1.531  0.1085 -0.3408 -0.0960
83585W        W26638  18.629  28.014  17.464 -0.2553 -0.5274  0.0270
83586W        W26639   4.693  24.610  16.214 -0.0145 -0.1165  0.0329
83587W        W26640  24.247   7.316  19.524  0.0095 -0.0436  0.1331
83588W        W26641  15.697  16.187  27.891 -0.1978  0.4475 -0.0037
83589W        W26642  11.430  15.387   7.264 -0.1184 -0.0429 -0.0411
83590W        W26643  15.808  24.725  15.170  0.0256 -0.0398  0.1167
83591W        W26644  31.089  30.800   9.101 -0.0156  0.1343 -0.1826
83592W        W26645   5.019  25.075  20.916 -0.0891 -0.1383 -0.1127
83593W        W26646  25.290  18.345  23.652 -0.1106  0.0696 -0.1027
83594W        W26647   7.359  29.557  26.448  0.2160  0.1299  0.1540
83595W        W26648   4.513  23.811  28.577 -0.2213 -0.2639 -0.4779
83596W        W26649  10.963  18.817   9.003 -0.1077  0.2406  0.1962
83597W        W26650  26.421  22.598   8.270  0.1016 -0.3418 -0.0454
83598W        W26651  24.462  25.348   3.303  0.0326 -0.0529  0.0120
83599W        W26652  19.298  13.915   5.926 -0.0628  0.0748 -0.0045
83600W        W26653   6.728  33.748  25.498 -0.1551  0.2314  0.3711
83601W        W26654   4.325  14.673   4.535 -0.2836 -0.0919  0.0806
83602W        W26655  18.767  21.725   5.925  0.0469 -0.0665  0.3099
83603W        W26656  33.495  13.765  26.646 -0.2294  0.0675 -0.3019
83604W        W26657  12.107  18.445   7.783  0.1387 -0.0043 -0.1312
83605W        W26658   0.962  24.027   7.533 -0.0610  0.1562 -0.0939
83606W        W26659  21.725  14.066   9.316  0.2275 -0.2084  0.1201
83607W        W26660  22.221   9.866   1.397  0.0067 -0.0628  0.4157
83608W        W26661   0.632  20.110   0.404  0.1750 -0.1085  0.3010
83609W        W26662  21.523  10.178  23.076  0.0991 -0.0944 -0.0895
83610W        W26663   5.260  21.250  19.412 -0.1149  0.1814 -0.1807
83611W        W26664  31.488   0.789  22.083 -0.1606  0.0057  0.0822
83612W        W26665  11.700  33.788   6.107 -0.2139  0.0655  0.1809
83613W        W26666   7.971  31.696   5.924 -0.1415  0.1339  0.0817
83614W        W26667   8.538  18.190   5.803  0.0390 -0.0322  0.0344
83615W        W26668  11.450  12.895  20.240  0.1704  0.1015 -0.1002
83616W        W26669  15.615  17.476   1.241  0.1910 -0.2681  0.1365
83617W        W26670  17.698  31.622   2.909  0.0740  0.2082  0.1187
83618W        W26671   6.441  27.426  17.823 -0.1131  0.0078 -0.3414
83619W        W26672  18.625   0.673  17.756  0.1786  0.1046  0.0451
83620W        W26673  30.587  23.649  24.663  0.4179  0.2264 -0.0307
83621W        W26674   5.109   6.388  20.437 -0.0937 -0.2239  0.0945
83622W        W26675   3.922  16.345   5.525 -0.1195 -0.3083 -0.2079
83623W        W26676  15.443  10.955  19.580  0.2321 -0.0109  0.0089
83624W        W26677  31.440  29.990   9.117 -0.0359  0.1935  0.2151
83625W        W26678  23.914  20.952   5.370  0.1322  0.1921  0.1447
83626W        W26679   9.549  13.956  24.855  0.1654  0.1132 -0.3721
83627W        W26680   5.543  24.828  28.273  0.3507  0.3790  0.0879
83628W        W26681  20.243   0.208   6.023  0.3665  0.5239  0.2229
83629W        W26682  12.292  33.439   0.001  0.0360  0.0024  0.0523
83630W        W26683  12.569  27.136  17.556 -0.0365 -0.0070 -0.1987
83631W        W26684  10.082  14.829  24.246  0.2569  0.2927  0.1795
83632W        W26685  30.225  14.559   7.599 -0.0396  0.3122  0.0655
83633W        W26686   7.795  31.447  28.986 -0.1186 -0.0663 -0.0749
83634W        W26687  15.166  33.309   3.765  0.1886 -0.0571 -0.1918
83635W        W26688  28.890  14.045  27.718 -0.0012  0.0601 -0.0985
83636W        W26689  16.659  24.234   9.789  0.0494 -0.0660  0.1450
83637W        W26690  22.246  33.238  25.556  0.0848  0.1966  0.0005
83638W        W26691  17.292   9.003   0.602 -0.0207 -0.0985 -0.1747
83639W        W26692  18.856  33.294  28.243 -0.1544 -0.2387 -0.3357
83640W        W26693   5.747  18.801   6.831  0.1141 -0.1656  0.1029
83641W        W26694  27.960  27.314  14.034 -0.5254 -0.0104 -0.1512
83642W        W26695  29.926   0.710   3.420  0.2805  0.2010 -0.0205
83643W        W26696  33.543   1.818  27.081  0.1069  0.2175  0.1316
83644W        W26697  26.435  30.571   4.462 -0.2855 -0.1853 -0.0427
83645W        W26698  30.705  32.386   9.339 -0.0482  0.0465 -0.2058
83646W        W26699  22.320   4.943  14.252  0.5892 -0.0903 -0.0643
83647W        W26700  24.669   1.792  28.126  0.1287  0.1090 -0.0251
83648W        W26701   2.050  20.819  24.004  0.2188  0.2559  0.1087
83649W        W26702  34.386  19.162  28.249 -0.0362  0.1068 -0.1442
83650W        W26703   0.881  21.130   3.937  0.3887 -0.4031 -0.0917
83651W        W26704  13.994  18.809  14.546  0.0131 -0.1637  0.5737
83652W        W26705  33.364  18.983   9.980 -0.1160  0.2405 -0.0043
83653W        W26706   7.061  23.411   9.449 -0.2903  0.3203 -0.0741
83654W        W26707   2.892  19.756   3.327 -0.0569  0.1315  0.0792
83655W        W26708  29.376  16.134  24.913 -0.1841 -0.0284 -0.3002
83656W        W26709  21.770  24.161  10.025 -0.0677  0.0404 -0.0476
83657W        W26710   7.634  26.178   2.822 -0.0105  0.2653 -0.1201
83658W        W26711   4.119  22.225  17.180  0.1536 -0.0461  0.1590
83659W        W26712   3.421  29.873   4.578 -0.0582 -0.2956  0.1456
83660W        W26713  15.174  19.579  25.259  0.3577 -0.1743  0.2492
83661W        W26714  32.739  23.303  25.749  0.0491  0.0458  0.1360
83662W        W26715   0.184  33.298  23.700 -0.0878 -0.3285 -0.2850
83663W        W26716   4.959  25.992  24.844  0.1161 -0.0149  0.1483
83664W        W26717   9.048  17.124   7.592 -0.0762 -0.0107 -0.0300
83665W        W26718   9.313  22.976  27.340  0.0004  0.0416  0.0145
83666W        W26719  33.906  19.845   4.145 -0.0789 -0.1768 -0.0920
83667W        W26720  10.952   8.507   4.193 -0.1795 -0.0930  0.0694
83668W        W26721   8.965  21.195  14.993  0.0046 -0.1518  0.1350
83669W        W26722   8.746  18.418   3.571 -0.0697 -0.3522  0.2281
83670W        W26723  13.744  28.747  24.824 -0.2605  0.0056 -0.1262
83671W        W26724  19.112  21.904   4.124  0.1118 -0.1681  0.0414
83672W        W26725   6.006   4.775  21.328  0.2086 -0.1089  0.2475
83673W        W26726   1.295  12.878   4.775  0.0178 -0.1277 -0.2433
83674W        W26727   8.009   5.939   9.819 -0.1418 -0.0120  0.2525
83675W        W26728  12.155  12.551   8.599 -0.0248 -0.1202  0.2590
83676W        W26729   7.713  10.703   7.022 -0.0823 -0.2776 -0.2597
83677W        W26730   2.446  29.953  27.772  0.2035 -0.1940  0.1741
83678W        W26731  29.721  26.029   2.938  0.1639 -0.2184  0.1586
83679W        W26732   2.017  19.383   9.665 -0.0819  0.3960 -0.0749
83680W        W26733  33.725  23.336   3.918  0.1573 -0.1412  0.1093
83681W        W26734   4.866  29.318   0.738 -0.1560  0.1878  0.2786
83682W        W26735  30.649  16.711   3.371 -0.1223  0.0197  0.0208
83683W        W26736   9.212  20.038   6.080 -0.1070 -0.1011 -0.2341
83684W        W26737  14.273  34.025  18.941  0.0958  0.0198  0.0863
83685W        W26738  16.134  32.404  21.651 -0.1028  0.1187 -0.0763
83686W        W26739  14.400  23.075   7.932 -0.0831  0.2477  0.1416
83687W        W26740  27.722  30.243   2.290 -0.0859 -0.3385 -0.0155
83688W        W26741   2.155  22.714  25.243 -0.1465 -0.0193  0.1779
83689W        W26742  26.777  22.257   0.869 -0.0714  0.1709  0.3098
83690W        W26743  15.486  14.341  24.285  0.3546 -0.0514 -0.0426
83691W        W26744   7.640   5.227  26.472  0.0303  0.2545 -0.1107
83692W        W26745  32.765  17.017  21.936 -0.0032  0.2958  0.0206
83693W        W26746   5.977  26.466  14.045 -0.1471 -0.0566 -0.0277
83694W        W26747  12.272  17.002  23.549  0.1222 -0.0714 -0.1921
83695W        W26748  10.969  17.710  25.665  0.0457 -0.2710 -0.0502
83696W        W26749  12.424   6.715  10.307  0.0709 -0.0265 -0.0813
83697W        W26750   6.555  15.904   8.632  0.0926  0.0341  0.0535
83698W        W26751   9.936  27.968   6.965 -0.0441 -0.1316 -0.2485
83699W        W26752   4.284  16.871   0.919  0.0696 -0.1536 -0.0091
83700W        W26753   9.044  24.486  18.633  0.1226  0.0025 -0.2301
83701W        W26754  18.139  23.200   9.845  0.2210  0.2951 -0.0830
83702W        W26755  27.580  23.699  28.794  0.0731 -0.1851  0.1373
83703W        W26756  24.446  16.424  27.798  0.0417  0.1843 -0.1840
83704W        W26757  13.217  14.398   3.981 -0.0472  0.2470 -0.1475
83705W        W26758   0.117  10.531  24.593  0.0461 -0.1448 -0.3217
83706W        W26759  22.141  23.943  26.755  0.0546  0.0785 -0.0856
83707W        W26760   8.417  28.655  28.177 -0.1226  0.2737  0.2279
83708W        W26761  17.278  30.330   8.636  0.1855 -0.2624 -0.2251
83709W        W26762  29.716  15.780   6.969 -0.0082 -0.3002 -0.2812
83710W        W26763  24.394  21.635  18.310  0.1230 -0.4253  0.2374
83711W        W26764  34.049  21.344   9.342 -0.1318 -0.2705  0.1711
83712W        W26765  12.826  25.284   3.049 -0.1413  0.2847 -0.3920
83713W        W26766  18.771   8.530   8.245  0.0475 -0.0894  0.3556
83714W        W26767  32.998  19.844  25.180  0.2096  0.0245  0.2434
83715W        W26768   6.087   6.287   4.045  0.0971  0.1496  0.0259
83716W        W26769  10.571  26.248  25.775 -0.1193 -0.2169  0.0112
83717W        W26770   4.021  14.327   8.768 -0.5123  0.2378  0.0571
83718W        W26771  15.392  21.481   8.330 -0.2043  0.1956  0.0443
83719W        W26772  21.032   3.676   7.043 -0.0936  0.0098 -0.2322
83720W        W26773   5.373  16.014   6.462 -0.2740 -0.2751  0.1191
83721W        W26774   6.860  29.686  29.061 -0.0299  0.0472  0.3418
83722W        W26775   5.661  28.324  24.977 -0.0108  0.1895  0.0963
83723W        W26776   5.611  23.754   6.037  0.1071  0.0523  0.1799
83724W        W26777  13.557  30.831   3.195  0.2842 -0.0476 -0.0365
83725W        W26778   4.914  25.353  28.167  0.2167  0.0228 -0.1464
83726W        W26779  32.126  14.894   9.220  0.2146 -0.2707 -0.0479
83727W        W26780  12.371  10.563   7.571 -0.2215 -0.1386  0.2514
83728W        W26781   0.441  24.544   1.419  0.1650  0.0012  0.1441
83729W        W26782  16.220  13.735   9.453  0.0007 -0.1125  0.2737
83730W        W26783   7.611  28.509  28.829 -0.2186 -0.1298  0.2334
83731W        W26784   4.545  33.624   1.197 -0.1115  0.1048  0.2083
83732W        W26785  16.897  18.286  28.882  0.1278  0.0622  0.0773
83733W        W26786  10.479  22.048  19.344  0.2234 -0.3180  0.1392
83734W        W26787  25.145  14.773  27.512 -0.1432  0.1281  0.0556
83735W        W26788  34.296  24.004   9.968 -0.0688  0.0762  0.0073
83736W        W26789   4.717  28.643  28.258 -0.0120 -0.1059  0.1979
83737W        W26790  15.266  15.910  27.659  0.0955  0.3244 -0.1388
83738W        W26791   4.972  32.467   6.779 -0.0408  0.0889  0.0778
83739W        W26792  11.921  29.469   6.672 -0.0909 -0.3795 -0.0498
83740W        W26793   5.157  29.938  27.141 -0.0512  0.0310 -0.0966
83741W        W26794   7.287  23.702  28.181 -0.0045 -0.0614  0.1262
83742W        W26795  25.587  28.312   1.257 -0.2569  0.0242 -0.0560
83743W        W26796  11.292  22.203  20.660  0.1115  0.2797 -0.0079
83744W        W26797   7.010  22.047   3.471  0.1020 -0.0986 -0.0951
83745W        W26798  15.905  33.543   3.316 -0.0286  0.2066 -0.1429
83746W        W26799  28.267  14.894   4.543 -0.0629 -0.0247  0.3181
83747W        W26800  30.486   4.413   3.375  0.1793 -0.0702  0.2129
83748W        W26801  15.192  32.002   3.154  0.2014  0.2092 -0.0454
83749W        W26802  32.880  27.454   3.041  0.0203  0.1435  0.4663
83750W        W26803   7.947  29.899  20.074  0.0814 -0.0906  0.1374
83751W        W26804  31.876  25.659  26.728  0.2188  0.5194  0.3796
83752W        W26805   4.131  22.795   7.246  0.2042 -0.0864  0.0001
83753W        W26806  23.615  25.678   1.898  0.0287 -0.3295 -0.4084
83754W        W26807   7.760  17.874   8.082  0.1530 -0.0819 -0.0669
83755W        W26808  12.554  16.804   6.448  0.2690 -0.1153 -0.2828
83756W        W26809  14.993  22.791  10.899 -0.0949  0.3508 -0.0125
83757W        W26810  10.463  16.887   1.281 -0.2372 -0.0626  0.1999
83758W        W26811   9.926  23.730   7.262  0.3819  0.1709  0.1312
83759W        W26812  25.339  16.367   6.203  0.1390  0.0965 -0.4050
83760W        W26813   3.318  24.459   5.469 -0.1430  0.1466  0.3083
83761W        W26814  26.005   4.007  18.738 -0.0993 -0.2704  0.1780
83762W        W26815  10.713   0.846  28.158 -0.0801 -0.1221 -0.1739
83763W        W26816  33.686   8.745   9.949 -0.2414  0.1192  0.1037
83764W        W26817  25.557  30.008   2.532  0.0005 -0.0734  0.3398
83765W        W26818   5.374  24.317   9.423 -0.1364 -0.1942 -0.1941
83766W        W26819   9.179  31.805  26.376 -0.1215 -0.3422  0.0521
83767W        W26820  12.592  27.984  17.481 -0.2238 -0.0148 -0.0350
83768W        W26821   8.800  16.641   0.644 -0.2224 -0.0039  0.2076
83769W        W26822   7.950   9.385  23.669 -0.0846  0.1570  0.1703
83770W        W26823   6.347   4.624   6.187  0.1475 -0.0234  0.3911
83771W        W26824  20.224  14.818   4.203 -0.0281 -0.0340 -0.1793
83772W        W26825  33.229  11.391  24.396 -0.0297  0.0629  0.0607
83773W        W26826  32.880  22.743  27.871 -0.2249 -0.2116  0.5410
83774W        W26827   6.840  18.705  17.120  0.0593 -0.0048 -0.2145
83775W        W26828  24.205  18.396   7.615 -0.2961  0.3060  0.2126
83776W        W26829   2.731  28.778  28.335 -0.0537 -0.0749  0.1127
83777W        W26830   6.737  31.204  26.654 -0.0800 -0.3701 -0.1417
83778W        W26831  18.347  29.350  20.777 -0.1474  0.0155  0.0015
83779W        W26832   9.288   0.909  21.799  0.1316  0.0667 -0.1339
83780W        W26833  31.848   9.188   1.166 -0.2061 -0.1855 -0.0877
83781W        W26834   2.499  19.596  25.406  0.0311  0.2463  0.0504
83782W        W26835   9.675  24.318   6.591  0.1521 -0.2356  0.3407
83783W        W26836  33.083  22.478   6.911 -0.1533 -0.1638 -0.0172
83784W        W26837  13.228  17.638   1.880 -0.1399 -0.2037 -0.1449
83785W        W26838   5.142  30.357   6.758 -0.1097  0.2688 -0.2842
83786W        W26839   0.909  19.799   7.959 -0.0705  0.1644  0.3595
83787W        W26840   5.851  24.879   0.220  0.3648  0.2818  0.2134
83788W        W26841  15.276  13.555   4.947  0.1487  0.1990  0.2136
83789W        W26842  18.231  16.801   3.164  0.3348 -0.0609  0.1767
83790W        W26843   5.910   8.674   1.686 -0.0714 -0.1436  0.0229
83791W        W26844   9.401  22.277  22.935  0.1341 -0.1320  0.1904
83792W        W26845  11.807  26.838   7.010  0.0791 -0.0190 -0.0721
83793W        W26846   7.101  15.398   5.641 -0.0335 -0.1261 -0.0123
83794W        W26847   7.498  25.646   4.352 -0.3688 -0.1547 -0.3319
83795W        W26848   1.725  11.541   8.386  0.3387 -0.0787  0.1739
83796W        W26849  10.590   6.682  10.219  0.2446  0.0715  0.0643
83797W        W26850  17.882  12.856  18.311 -0.1481 -0.1063 -0.0441
83798W        W26851  19.182   6.393   9.116  0.1177 -0.0902  0.0602
83799W        W26852  17.871  14.716  23.341  0.2693  0.0249 -0.0597
83800W        W26853  32.790  12.187   1.117  0.1767 -0.0090  0.0289
83801W        W26854  28.305  22.633   2.401 -0.3706 -0.1017 -0.0016
83802W        W26855  15.272  32.274   5.907  0.1903  0.3825 -0.1624
83803W        W26856  31.566  25.487  14.344 -0.3339  0.1895  0.0126
83804W        W26857  33.213  20.099   7.374  0.3162 -0.0272 -0.2343
83805W        W26858   6.271   1.754   2.591 -0.1303 -0.3571  0.0472
83806W        W26859  28.496  16.145  28.674  0.3005  0.2693  0.1519
83807W        W26860  32.250  24.054  27.885 -0.3545  0.3110 -0.4977
83808W        W26861  17.958  27.254  28.100 -0.0097  0.1668  0.1848
83809W        W26862  12.100  15.170   1.387 -0.0167 -0.2166 -0.0803
83810W        W26863   1.077  23.557   4.477 -0.2364  0.1549 -0.0974
83811W        W26864   4.653  21.331  16.707  0.3435  0.0881  0.2172
83812W        W26865   6.415  24.789  16.874  0.0552  0.3852 -0.3453
83813W        W26866   2.263  18.926   4.790  0.0027  0.1088 -0.0806
83814W        W26867  18.975  34.604   9.667  0.1219  0.3057  0.1407
83815W        W26868  12.510  34.130   3.486 -0.1270  0.2110 -0.0682
83816W        W26869  21.706  22.313   3.806 -0.0002 -0.0756  0.0867
83817W        W26870  15.447  30.504   8.909  0.0345 -0.0985 -0.2299
83818W        W26871  19.596  27.591   4.725 -0.1236 -0.1075 -0.2690
83819W        W26872   6.310   7.592  14.348  0.1193 -0.1608  0.0028
83820W        W26873   1.493  19.514   2.889 -0.0574  0.2445  0.1348
83821W        W26874  19.612  23.941  10.788 -0.0638  0.1154 -0.2180
83822W        W26875  27.757  17.636  25.976 -0.1008  0.0367 -0.0998
83823W        W26876  28.108  26.586   5.257  0.0013  0.2408 -0.1247
83824W        W26877  14.905  17.240   7.723  0.0360 -0.0347  0.1037
83825W        W26878  11.057  24.847   6.807 -0.1393 -0.1577 -0.1214
83826W        W26879  33.609  29.828  21.113 -0.2711  0.3019 -0.0284
83827W        W26880  31.439  17.167   3.577 -0.2528  0.0583  0.1010
83828W        W26881  34.443  15.276  27.757  0.0750  0.1150 -0.0998
83829W        W26882  12.569  25.377   5.202  0.1361  0.0694  0.0151
83830W        W26883   2.760  20.121   2.946 -0.0410 -0.2178 -0.1058
83831W        W26884   6.193  11.251  28.591 -0.1944  0.0239 -0.1710
83832W        W26885   6.810  23.048  18.474 -0.3974  0.2123  0.4826
83833W        W26886  10.581  12.007   4.967  0.1766  0.2413  0.1218
83834W        W26887  14.623  21.734  13.765  0.0329  0.2669  0.0053
83835W        W26888   9.514  23.813  26.348 -0.1131 -0.0222  0.0069
83836W        W26889   4.986  34.237  28.844  0.1864  0.0121  0.1598
83837W        W26890  27.142  15.940   7.202  0.1008 -0.5091  0.0082
83838W        W26891  17.507  19.335  10.143 -0.1394  0.3191 -0.0636
83839W        W26892  21.677   2.561   0.112  0.1720  0.0315 -0.0085
83840W        W26893   1.257  21.939   5.740  0.1742  0.0645  0.2424
83841W        W26894  24.482   2.027   8.120 -0.4480  0.0368 -0.2580
83842W        W26895  31.891   0.422   2.975  0.1229  0.1962  0.0503
83843W        W26896   3.984  16.736   1.328 -0.2873  0.1532 -0.2601
83844W        W26897  18.196  20.550   8.681  0.0402  0.1083 -0.2005
83845W        W26898   5.043  21.238   6.108 -0.0386 -0.0122 -0.3178
83846W        W26899  29.369  15.188  16.380 -0.0723  0.0565 -0.0330
83847W        W26900  29.913  29.851   5.575 -0.1663  0.1591 -0.1166
83848W        W26901   0.863  17.776   0.696  0.4496  0.3063 -0.4389
83849W        W26902  10.865  10.105  10.220 -0.0634  0.0104 -0.1128
83850W        W26903  10.347  30.260  17.972 -0.0826 -0.2002  0.5264
83851W        W26904  11.614  31.459   8.536  0.1576  0.2481  0.0096
83852W        W26905  30.693  25.043   7.518 -0.0594 -0.0629  0.3293
83853W        W26906  10.448   2.362   4.229 -0.0907  0.0098 -0.3647
83854W        W26907  20.820  20.059   2.966 -0.2042 -0.2915  0.3434
83855W        W26908  20.508  29.765   6.060 -0.1470  0.2224 -0.2687
83856W        W26909   3.693   0.442   2.677  0.0235 -0.2889  0.1577
83857W        W26910  33.875  26.141   2.256  0.0222  0.0555 -0.2412
83858W        W26911   4.296  26.953   6.435  0.2236 -0.2942  0.3862
83859W        W26912   7.754  20.861  28.545 -0.2290  0.1120 -0.0263
83860W        W26913   4.447  21.734   5.636  0.0825  0.0132  0.0004
83861W        W26914   4.781  31.469   3.534  0.2581 -0.2444  0.0060
83862W        W26915  13.974   3.663  26.595  0.2085 -0.0648 -0.1345
83863W        W26916   9.601  18.940   0.860 -0.0804  0.0850 -0.1947
83864W        W26917  12.139  17.233  20.797  0.0929  0.0516 -0.1867
83865W        W26918   4.612  15.193  25.022 -0.0412  0.1988  0.0839
83866W        W26919  22.677  28.810   1.264  0.1702 -0.1372 -0.0052
83867W        W26920  10.315   2.336   1.699 -0.1665 -0.1001  0.1362
83868W        W26921  11.940   5.886  27.785  0.0577  0.3551 -0.1130
83869W        W26922  16.391   0.990   4.789  0.2716 -0.2042  0.2571
83870W        W26923   1.881  12.809   7.626 -0.2224 -0.0577 -0.0346
83871W        W26924  15.489  16.248  25.969 -0.0628  0.0862  0.0874
83872W        W26925  33.699  10.026   9.770  0.3074  0.3751  0.3296
83873W        W26926   5.051  15.184   4.056 -0.0357  0.0339  0.4204
83874W        W26927  32.437  15.531  22.710 -0.2218 -0.1049  0.2234
83875W        W26928   5.599  24.154  23.524  0.1497  0.1274  0.1030
83876W        W26929  14.075  27.621  18.607  0.2070  0.3058  0.0947
83877W        W26930  17.729   0.886   3.403  0.2321 -0.0412  0.0884
83878W        W26931   4.145  21.189   3.532 -0.1711  0.1037  0.1317
83879W        W26932   2.223  21.310   5.657 -0.2425 -0.0254  0.2144
83880W        W26933   6.811  10.978   0.448  0.0701 -0.3998 -0.2673
83881W        W26934  11.533  13.018  24.605  0.0834 -0.0823 -0.1749
83882W        W26935  11.792  24.002   7.865 -0.0673  0.1319 -0.4569
83883W        W26936  15.517  21.884   8.644 -0.1980  0.1819 -0.0695
83884W        W26937  21.815  28.300  28.516  0.0038  0.0475 -0.0813
83885W        W26938   6.522  20.849   4.292  0.2217 -0.0888 -0.1526
83886W        W26939  20.265  15.834   4.526 -0.1811 -0.3100 -0.1100
83887W        W26940   7.443  28.040  25.218  0.0592 -0.1414  0.2093
83888W        W26941   4.922   2.917   9.726  0.0179 -0.1150  0.2878
83889W        W26942   8.716   7.882   9.901  0.0967 -0.1292  0.3571
83890W        W26943   7.545  17.554  22.593 -0.1408 -0.4285  0.1114
83891W        W26944   3.870  16.483   4.416 -0.1732 -0.0904 -0.1389
83892W        W26945  10.303  28.788   5.607 -0.3597 -0.2663 -0.4825
83893W        W26946   8.547  27.946  16.329  0.2471 -0.0709  0.2078
83894W        W26947   6.951  26.092   8.309  0.1417  0.0186  0.0097
83895W        W26948  11.490  28.894   6.706  0.0593  0.1988 -0.0084
83896W        W26949  25.115  29.311   1.242 -0.1844  0.3062 -0.0952
83897W        W26950   3.097  32.125  16.431  0.0368 -0.0935  0.0325
83898W        W26951  10.497   4.945   9.978  0.2029 -0.0868 -0.0192
83899W        W26952  14.297  22.527   1.540 -0.3742 -0.2063  0.4412
83900W        W26953   8.549  30.737   0.672 -0.0698 -0.0206 -0.3029
83901W        W26954  14.471  28.450   3.293  0.0799  0.3583 -0.0791
83902W        W26955  27.676  13.935  18.914  0.0023 -0.0907 -0.0493
83903W        W26956  11.325   7.661   0.604 -0.1794  0.0968 -0.1124
83904W        W26957  34.052  30.527   5.489  0.1599 -0.1114 -0.1597
83905W        W26958  18.359  28.453  23.671  0.1538 -0.0135  0.2199
83906W        W26959  33.667  14.356  24.728  0.3776  0.1956 -0.0111
83907W        W26960  33.137  13.073   2.538 -0.3425 -0.2242 -0.0881
83908W        W26961  32.762  28.762   2.915  0.0039 -0.2230  0.2705
83909W        W26962   9.840  32.724  27.750  0.1476 -0.0364 -0.1321
83910W        W26963   0.615  21.156  26.582 -0.0569  0.1158  0.1771
83911W        W26964  10.808  18.080   2.824 -0.0713  0.2100 -0.1822
83912W        W26965  25.497  21.889  23.638 -0.3543 -0.0804 -0.3879
83913W        W26966   4.323  32.548   4.409  0.1549 -0.1820 -0.2371
83914W        W26967   1.865  20.068   5.387 -0.0360  0.1584  0.3330
83915W        W26968   1.679   3.147   5.648  0.0032 -0.0000 -0.0438
83916W        W26969  15.984   9.662  10.075  0.4196 -0.3589  0.1106
83917W        W26970  33.149  23.230   7.466 -0.2298 -0.1901  0.1279
83918W        W26971   0.830  26.884   7.709  0.0729  0.0690  0.4504
83919W        W26972  10.134  14.478   8.669 -0.0586 -0.1338  0.1952
83920W        W26973   8.263  11.872   6.034 -0.0785 -0.1322 -0.4933
83921W        W26974   7.213  27.527   0.485 -0.1500  0.1650 -0.0521
83922W        W26975  21.723  29.475   7.372 -0.2564  0.0941  0.0271
83923W        W26976   8.005  20.444   9.283  0.0457  0.0500  0.1120
83924W        W26977  28.902   9.308  26.738  0.1394 -0.0189 -0.0571
83925W        W26978  20.831  24.289   0.786 -0.2090  0.0859 -0.1461
83926W        W26979   5.632  16.911   3.584 -0.0750  0.0256 -0.2313
83927W        W26980   2.383  21.213   9.065 -0.0558 -0.0871 -0.1092
83928W        W26981  25.134  32.106   2.975  0.1308  0.1868  0.1727
83929W        W26982   3.584  25.899   5.662  0.2199 -0.1514 -0.0113
83930W        W26983   5.607   8.993   2.309  0.2501 -0.0441 -0.2066
83931W        W26984   1.300  29.763   1.350  0.1525 -0.2440  0.1300
83932W        W26985   9.056   4.091   5.991 -0.0286  0.2974 -0.0244
83933W        W26986  27.779   8.195   7.334  0.0222  0.1291  0.1547
83934W        W26987  34.599   4.705   0.693 -0.0706 -0.0578  0.0885
83935W        W26988  14.879  27.166  16.139 -0.1398  0.0701  0.0766
83936W        W26989   0.330  25.312  15.795  0.0633  0.1018 -0.0239
83937W        W26990   6.215  10.272   2.342 -0.1484 -0.0041 -0.3169
83938W        W26991   3.568  19.514   9.322 -0.0027  0.0212 -0.2210
83939W        W26992  19.765  26.030   4.004 -0.4252  0.1495 -0.1133
83940W        W26993   6.831  28.330   1.775  0.2507 -0.2480 -0.1776
83941W        W26994   1.443  22.821   5.551  0.1398  0.0560 -0.1695
83942W        W26995  16.970  23.566  18.084 -0.0808 -0.2731 -0.0182
83943W        W26996  27.580  23.081   1.314 -0.0630  0.1555 -0.2666
83944W        W26997   8.903  20.341   1.505 -0.0733 -0.3899  0.0624
83945W        W26998   8.521  12.388   8.964  0.0773 -0.1186 -0.3308
83946W        W26999  13.757  23.932   2.142  0.1292 -0.2136  0.1343
83947W        W27000   3.491  31.172   4.246 -0.2970  0.0252 -0.1560
83948W        W27001  24.062  24.933  25.264 -0.0480  0.1532 -0.0375
83949W        W27002   3.132  27.155   6.340 -0.0948  0.2449 -0.0314
83950W        W27003  18.548  14.104   0.161  0.0493 -0.0252  0.1644
83951W        W27004  16.934   0.863   9.381  0.0197 -0.1819 -0.1049
83952W        W27005   6.279  17.288   7.756 -0.2492  0.0452 -0.1978
83953W        W27006   0.972  25.587  26.999  0.0398  0.1400  0.2135
83954W        W27007  34.576  26.341   0.463  0.1113  0.0368  0.0496
83955W        W27008   6.518  10.296   4.781  0.0556 -0.1616 -0.1371
83956W        W27009  27.979   2.045   8.226 -0.0570 -0.0882  0.0128
83957W        W27010   6.006  32.435   8.222  0.0425  0.0133  0.3604
83958W        W27011  33.387  25.906   8.769  0.2436 -0.3187  0.2055
83959W        W27012   0.833  21.987   7.728  0.2042  0.1336 -0.0403
83960W        W27013  28.765  32.087  27.369  0.4887  0.0920 -0.0234
83961W        W27014  33.422  14.713   8.692 -0.1012 -0.2576  0.0698
83962W        W27015  16.114  22.833  10.223  0.0500  0.1335  0.1878
83963W        W27016  18.777  15.363   7.793 -0.3856 -0.0845 -0.0988
83964W        W27017   5.771  29.623   6.629  0.0721 -0.1358 -0.0002
83965W        W27018   2.985  10.107   6.259  0.0999  0.3251  0.5324
83966W        W27019  23.245  26.620  25.460 -0.0502 -0.0193 -0.2065
83967W        W27020   0.640  34.289   3.335  0.1741  0.3098 -0.0919
83968W        W27021   8.100  15.235  21.046  0.0752  0.2425  0.1127
83969W        W27022  11.502  29.917  27.690  0.1028 -0.2060 -0.2483
83970W        W27023  11.761   1.017   9.678  0.1292  0.0736  0.0238
83971W        W27024   0.067  19.025   4.197 -0.0735  0.0671  0.1195
83972W        W27025   7.674  15.665   2.255  0.0966  0.0117  0.1206
83973W        W27026  14.336   4.701   9.433  0.3275  0.0235  0.2040
83974W        W27027  14.546  27.702  23.052  0.0779  0.0227  0.1393
83975W        W27028   2.450  19.975   4.470 -0.0240  0.2483 -0.0024
83976W        W27029  10.283  21.337   8.297  0.1371 -0.0560  0.1957
83977W        W27030  22.808  28.103  20.187  0.2744  0.2965 -0.2089
83978W        W27031   3.128  24.114   6.324 -0.0148  0.2851  0.1664
83979W        W27032   6.285   9.567   7.608 -0.0578  0.0554  0.1726
83980W        W27033  34.251  27.367  20.488 -0.1822  0.0488  0.0607
83981W        W27034  10.314  32.071   4.423 -0.0467  0.0673  0.0317
83982W        W27035   6.024  14.762  21.658 -0.0920  0.1592  0.0016
83983W        W27036  17.879  10.137   3.636 -0.1989 -0.1954  0.1477
83984W        W27037   9.605  25.239   7.993 -0.0305 -0.1492 -0.0476
83985W        W27038   5.564  17.963   6.790 -0.3217 -0.0201  0.1885
83986W        W27039  23.524  28.410   2.559 -0.0021  0.0030  0.3869
83987W        W27040  31.870  22.479  21.764  0.2382  0.0669 -0.0088
83988W        W27041  29.490  32.035  10.273 -0.2225  0.1872 -0.1127
83989W        W27042  16.276  26.778  27.842 -0.0700  0.0536 -0.1487
83990W        W27043   3.738  18.290  28.425  0.2968  0.0201 -0.1865
83991W        W27044  31.128  28.438   6.092  0.3009  0.1815 -0.1053
83992W        W27045   6.693  22.419   5.492 -0.1369 -0.2724  0.1649
83993W        W27046  13.326  11.613  19.371  0.3499  0.1306 -0.0268
83994W        W27047  25.787  26.576   3.666 -0.0746  0.2044  0.1907
83995W        W27048  18.049  13.686  21.615 -0.2323  0.1558 -0.0375
83996W        W27049  16.593  12.333  26.750 -0.0955 -0.1184  0.0766
83997W        W27050  17.064  26.113   5.436 -0.0640  0.0372  0.0653
83998W        W27051   0.106  20.096   5.962 -0.0406  0.2336  0.0036
83999W        W27052   4.019  21.759   0.258 -0.0493 -0.3038 -0.1591
84000W        W27053   5.374  24.010   2.535  0.1433  0.0114  0.1748
84001W        W27054   1.366  15.555  26.925  0.1357 -0.2574 -0.0434
84002W        W27055   8.892  31.576   8.793 -0.0836  0.1167  0.5089
84003W        W27056  31.795  15.696  20.072 -0.3436  0.0274  0.2005
84004W        W27057  14.461   6.488  27.311  0.0743  0.1475  0.3503
84005W        W27058  14.433  15.094   8.032 -0.0148 -0.0250 -0.1416
84006W        W27059  12.802  34.422   1.996  0.2663  0.0966  0.0094
84007W        W27060  31.783  20.352   4.010  0.0742 -0.0753 -0.4574
84008W        W27061  27.214  21.285  19.034  0.1532 -0.2066 -0.1462
84009W        W27062  30.246  11.865   1.504  0.0678 -0.4415  0.1278
84010W        W27063   8.641  26.748   3.694  0.1673 -0.5405  0.1647
84011W        W27064  11.201   0.620   4.836 -0.1533 -0.0022  0.0450
84012W        W27065  10.863  30.242   4.952 -0.1956 -0.0565  0.0644
84013W        W27066  11.019  21.392   5.572  0.2131  0.4021 -0.0384
84014W        W27067  15.832  18.734  28.348  0.0163  0.2104 -0.2408
84015W        W27068   0.614  26.849   2.485 -0.1140 -0.0070 -0.0216
84016W        W27069   3.918  23.842   0.731  0.3064 -0.3947  0.3793
84017W        W27070  13.924  19.469   8.532  0.1975  0.0605  0.2731
84018W        W27071  16.702   8.083  29.170  0.1298 -0.0568 -0.0612
84019W        W27072   8.357  21.885   9.413 -0.1054 -0.1454 -0.0673
84020W        W27073  25.687  10.128   0.509 -0.0435 -0.4076  0.0189
84021W        W27074  26.245   2.166   9.020  0.1826 -0.2353  0.0054
84022W        W27075  34.200  22.708   6.004 -0.1261 -0.1814  0.0708
84023W        W27076  14.766   9.818   4.323  0.3555 -0.0720  0.0071
84024W        W27077  18.523  20.084   6.270 -0.4435  0.2789  0.0806
84025W        W27078  31.488  25.678  28.106  0.0608 -0.0442  0.0258
84026W        W27079  30.057  28.051   8.704  0.0749 -0.1444 -0.0554
84027W        W27080  14.400  28.550   5.705 -0.1448  0.3054  0.1521
84028W        W27081   8.820   6.553   0.324 -0.0659  0.0928  0.0729
84029W        W27082  11.593  29.957  25.746 -0.3365  0.3568 -0.0453
84030W        W27083  27.164  26.436   0.074  0.1351 -0.1903 -0.2077
84031W        W27084  10.862   2.444   7.655 -0.3151 -0.1563  0.2028
84032W        W27085  27.142   5.787  25.052  0.0966 -0.0606  0.0949
84033W        W27086  34.479  30.740  23.747 -0.0585 -0.1738 -0.3740
84034W        W27087   6.172  26.308   6.783  0.0030 -0.1504  0.2169
84035W        W27088  13.007  18.742   0.226  0.0953 -0.1935  0.0509
84036W        W27089   4.007  10.086   4.130  0.3879  0.2495  0.0135
84037W        W27090   5.262  24.860  26.582 -0.2689  0.2052  0.1458
84038W        W27091   8.612  24.439  18.942  0.0789 -0.0088 -0.2807
84039W        W27092   2.510  10.905  27.464 -0.0859  0.2416  0.2270
84040W        W27093  25.022  19.765   5.012 -0.0328  0.0765 -0.0060
84041W        W27094  10.739   8.339   5.638  0.1260 -0.1927 -0.1569
84042W        W27095  33.484  16.989  28.320 -0.0509 -0.2220 -0.3709
84043W        W27096  32.745  12.874   7.089 -0.0449  0.2086 -0.3940
84044W        W27097  18.395   7.932   1.427 -0.2994  0.1667 -0.2537
84045W        W27098  13.141  14.375   8.359 -0.1699  0.0641  0.0370
84046W        W27099   5.037   9.389   3.444 -0.2660 -0.0517 -0.2060
84047W        W27100   5.248  29.531  14.481 -0.2313 -0.0426  0.1036
84048W        W27101   5.773  29.007   3.022  0.0316 -0.2039 -0.0599
84049W        W27102  22.737  14.312  26.950  0.1401  0.0954 -0.0021
84050W        W27103  19.777  23.527   0.461  0.0991 -0.0432  0.2728
84051W        W27104  15.758  23.600  16.504  0.2901  0.1421  0.0553
84052W        W27105  13.318  14.901   6.405 -0.0118 -0.0674 -0.1091
84053W        W27106  28.284   9.033   9.418  0.1449 -0.1875  0.1090
84054W        W27107  13.445   4.447   5.295 -0.0975  0.0203 -0.0538
84055W        W27108   6.077  18.911   1.672 -0.1061 -0.1328  0.0462
84056W        W27109  11.820  31.851  28.709 -0.2096 -0.0909 -0.0124
84057W        W27110   4.982  34.138   7.460  0.0494 -0.1286 -0.1012
84058W        W27111   3.590   6.500   8.601 -0.6623  0.1828  0.1295
84059W        W27112  15.660   2.754   8.881 -0.1724  0.0204 -0.2912
84060W        W27113   5.389  14.007   7.046  0.0046 -0.0471  0.2399
84061W        W27114  31.619  32.171   6.100  0.2727  0.0017  0.1966
84062W        W27115  20.836  11.113  24.982  0.0585 -0.0085  0.3374
84063W        W27116   7.557  18.056  28.164 -0.0098 -0.0251 -0.1912
84064W        W27117  21.672  16.061   9.288 -0.1565 -0.3890  0.0327
84065W        W27118  10.749  16.924   4.547  0.0843  0.1731  0.1221
84066W        W27119  33.429   2.250   2.048 -0.1280  0.1097  0.2682
84067W        W27120  13.066  15.473   1.736 -0.1999 -0.0410  0.3736
84068W        W27121  10.450  25.799   5.636  0.0853  0.1862 -0.2416
84069W        W27122   7.871  24.892   2.785  0.0632 -0.0959 -0.0499
84070W        W27123  15.948  20.081   3.652  0.0922 -0.1614 -0.1542
84071W        W27124  29.308  26.435  24.842 -0.1884  0.1494 -0.0570
84072W        W27125   1.455  27.354   1.154  0.0691  0.1119  0.0657
84073W        W27126   8.976  19.813   1.312  0.2064 -0.0234  0.1202
84074W        W27127  34.657  24.520  14.395  0.2080  0.3203  0.0381
84075W        W27128  26.705  24.718   5.992 -0.0109  0.1064 -0.1443
84076W        W27129   3.952  27.172   7.438 -0.0053 -0.1318 -0.1697
84077W        W27130  10.344  23.798   2.756  0.0769  0.0455 -0.0207
84078W        W27131   6.237  21.946  29.135 -0.0898  0.0726  0.2032
84079W        W27132  21.214   6.593   5.951 -0.1985  0.0541 -0.2325
84080W        W27133  13.656  15.479  27.982 -0.0375 -0.0585  0.1947
84081W        W27134  12.657  26.439   7.061 -0.5137 -0.0460 -0.0866
84082W        W27135  16.527  21.783   6.621 -0.1611  0.0876 -0.1868
84083W        W27136  27.366  23.135  23.571  0.2222 -0.0073  0.4071
84084W        W27137   0.731  28.742  23.262  0.2343 -0.0558  0.1243
84085W        W27138  16.882  22.106   8.670 -0.1374 -0.2888 -0.0939
84086W        W27139   7.861  33.045   1.261 -0.0637 -0.0106 -0.0700
84087W        W27140   1.836  31.823   6.338 -0.0349 -0.3936  0.2402
84088W        W27141   5.750  32.284   4.937  0.0168 -0.1125 -0.0668
84089W        W27142  16.095  15.855   3.284 -0.0592 -0.1930  0.1025
84090W        W27143  17.170  16.204   1.290  0.1283 -0.1472 -0.0037
84091W        W27144  11.677  28.344  27.961  0.0597 -0.1096 -0.4302
84092W        W27145  16.825  26.462   6.927 -0.0083 -0.1233  0.3562
84093W        W27146  18.176  20.210   0.074 -0.1231  0.0814  0.1025
84094W        W27147  32.223  23.544   0.615  0.0676 -0.0136  0.2868
84095W        W27148  22.166  19.681   1.471 -0.0084  0.1399 -0.0278
84096W        W27149   9.549  20.750   2.647 -0.0347 -0.1507  0.0124
84097W        W27150   8.170  28.802  23.161  0.0477 -0.2412  0.0942
84098W        W27151   9.436  30.029  28.680 -0.0761 -0.1659 -0.1944
84099W        W27152  14.486  24.489  28.368 -0.2380 -0.2203  0.0953
84100W        W27153   4.460  15.085   2.758 -0.2629  0.0209  0.3022
84101W        W27154   2.773  26.976   2.863 -0.3213 -0.1166 -0.2750
84102W        W27155  16.753  28.037   0.331  0.2159  0.0410  0.1488
84103W        W27156   6.764  11.864  23.324  0.0282  0.3767 -0.1413
84104W        W27157   0.490  23.870  18.649  0.1724  0.1562 -0.1136
84105W        W27158   7.412  33.100   7.134  0.0228  0.3289  0.0555
84106W        W27159  32.598  15.504   6.106 -0.2254 -0.2318  0.0564
84107W        W27160  29.900  26.726  18.864 -0.0469  0.1459  0.0842
84108W        W27161   6.013  18.242   6.145 -0.1031  0.1790  0.5175
84109W        W27162  12.738  26.927   9.205 -0.2778 -0.2941  0.0795
84110W        W27163   2.006  25.466  28.193  0.1863  0.0784  0.1051
84111W        W27164   3.856  29.118   6.698  0.0179  0.2542 -0.1772
84112W        W27165   2.271  15.007   6.331  0.1960  0.0548  0.0135
84113W        W27166  21.354  19.862   9.646 -0.0450  0.1276  0.1624
84114W        W27167  32.376  24.577   2.334  0.1763 -0.3142 -0.0639
84115W        W27168  14.500  30.879   7.786  0.2247  0.1059  0.3224
84116W        W27169  11.208   3.730  23.362 -0.3071  0.1163 -0.2109
84117W        W27170  34.408  33.336  27.008  0.1440  0.0779  0.0491
84118W        W27171  18.831  20.003   9.734  0.1844 -0.0522 -0.1069
84119W        W27172  12.137  31.698   4.702 -0.1954 -0.0926 -0.1857
84120W        W27173   8.056  15.496   2.576 -0.0697  0.0479 -0.2298
84121W        W27174  13.542  20.065   6.057  0.1529  0.1028  0.1020
84122W        W27175   9.419  16.122  27.807 -0.1232  0.0668  0.1393
84123W        W27176   7.377  21.536   5.247 -0.2118 -0.3089 -0.1371
84124W        W27177  25.903  29.078  28.032  0.0045  0.0864 -0.5187
84125W        W27178   4.752  28.887  26.707  0.3921 -0.1622  0.1365
84126W        W27179   4.725  11.749   6.645  0.0851 -0.2632 -0.1611
84127W        W27180  13.876  32.729   9.166  0.0015 -0.1367 -0.0471
84128W        W27181  32.342  25.908   3.731 -0.0918  0.0059  0.2913
84129W        W27182  17.542   3.747  28.167 -0.0740  0.1339 -0.1749
84130W        W27183  32.459  20.496   8.282 -0.1913  0.2837 -0.0017
84131W        W27184   1.512  31.960  28.566 -0.0260 -0.3117  0.2749
84132W        W27185  15.077  27.418  23.628 -0.4819 -0.1017 -0.0120
84133W        W27186   3.406   6.932   8.839  0.0789 -0.1175 -0.1643
84134W        W27187  29.264  11.970   1.950  0.2089 -0.3030  0.0367
84135W        W27188  19.263  32.429   3.945 -0.2207  0.1027 -0.0300
84136W        W27189   3.246  20.383  24.653 -0.0237 -0.3216  0.0116
84137W        W27190   3.096   7.732  28.655  0.0603  0.2146 -0.0336
84138W        W27191  17.375  21.775   3.419  0.2478  0.3082  0.2125
84139W        W27192  21.538  18.769   6.433  0.1362  0.3685  0.0720
84140W        W27193   0.715  18.743   0.762  0.0083  0.0481  0.0117
84141W        W27194  14.203  24.157  23.975 -0.1589  0.3725 -0.0416
84142W        W27195  15.522   5.680   4.509 -0.0457 -0.1047 -0.2367
84143W        W27196  17.277  30.312   5.357 -0.3167 -0.2599 -0.2404
84144W        W27197  16.976  31.785   0.771  0.1730  0.2479  0.1845
84145W        W27198  34.658  25.352  28.681 -0.1046  0.0174  0.1952
84146W        W27199   0.623  28.966  28.323 -0.2166  0.0156 -0.3042
84147W        W27200  15.916  34.363   7.971  0.2712 -0.0599  0.1207
84148W        W27201   4.664  28.122   6.647  0.0416 -0.0044  0.0827
84149W        W27202   0.204  13.634  26.483 -0.4360  0.0372 -0.0820
84150W        W27203   9.950  22.460   4.463  0.0169  0.1689  0.3327
84151W        W27204  14.797  23.124  20.475  0.1826  0.0569  0.3065
84152W        W27205  22.831  26.666   2.012  0.0617 -0.0928 -0.0507
84153W        W27206   7.100  22.232   2.303  0.3366  0.1501  0.0942
84154W        W27207  22.314  20.567   7.883 -0.0435  0.2091  0.0996
84155W        W27208  14.322   6.620   9.606  0.2881  0.0204 -0.1634
84156W        W27209  10.382  27.856  29.018  0.2338  0.1687  0.0228
84157W        W27210   9.478   0.728  23.334 -0.1632  0.0539 -0.0125
84158W        W27211  15.708  34.521   4.364 -0.1700  0.4580  0.0024
84159W        W27212  18.437  13.875   1.237  0.1983 -0.2680 -0.0651
84160W        W27213  23.603   8.432   0.721  0.0466  0.0799 -0.1174
84161W        W27214   8.470  15.249  26.598 -0.3300 -0.1895  0.0564
84162W        W27215  21.887  24.686  26.321  0.2140 -0.1122  0.5019
84163W        W27216  12.356  27.926   8.539 -0.0392 -0.0302 -0.2390
84164W        W27217  32.899  15.744  28.930  0.1883  0.0763 -0.0913
84165W        W27218  15.132  34.592   0.431  0.0305 -0.0754  0.0764
84166W        W27219   4.601  22.402  15.853  0.1491 -0.1243 -0.1530
84167W        W27220   1.386  32.704   8.808 -0.2297 -0.2522 -0.2872
84168W        W27221  33.083  15.027   6.961  0.4003  0.0151  0.2506
84169W        W27222  12.807  34.088   5.330 -0.1905 -0.0541 -0.0064
84170W        W27223  14.075  33.547   3.060  0.0689 -0.3324  0.1059
84171W        W27224  25.819  17.106  26.016 -0.3197  0.1633  0.3083
84172W        W27225  11.274  32.121   4.931  0.0309 -0.0987 -0.1821
84173W        W27226  19.405  22.798   9.096 -0.1073  0.0261  0.0720
84174W        W27227  14.969  16.482   0.090  0.0257 -0.3103  0.2398
84175W        W27228  29.317  17.752   5.470  0.1475  0.0622 -0.3416
84176W        W27229  24.619  27.279   1.574 -0.2431 -0.0753  0.3897
84177W        W27230  30.874  28.466  28.683 -0.0414 -0.5312 -0.1372
84178W        W27231   7.637   0.637  21.429  0.2211 -0.0412 -0.3663
84179W        W27232  32.833  16.958   3.254 -0.2657 -0.0567 -0.2205
84180W        W27233  23.299  33.911  27.782  0.1921  0.1333 -0.0418
84181W        W27234   2.266  16.963   4.367 -0.2894  0.0488 -0.2926
84182W        W27235   4.525  17.353   3.997 -0.4977 -0.1119  0.2862
84183W        W27236  10.865  16.159   6.474 -0.0869  0.2418  0.0035
84184W        W27237   9.044  20.390   4.549 -0.0810  0.0338 -0.1150
84185W        W27238  23.089   3.453  28.029 -0.0321  0.2477 -0.0625
84186W        W27239  22.185  24.379   8.530 -0.1051  0.1531 -0.0537
84187W        W27240  31.506  28.812   5.642  0.1408  0.1138  0.0913
84188W        W27241  30.431  21.773   0.575 -0.4760  0.0461 -0.4160
84189W        W27242   8.060  22.002   1.761 -0.1613 -0.0451  0.0491
84190W        W27243   7.626  11.908   8.224  0.2961 -0.3427 -0.1734
84191W        W27244  33.133  11.352  22.710 -0.1510  0.1903 -0.2771
84192W        W27245   7.236   6.752   2.679  0.0474 -0.0608  0.1303
84193W        W27246  20.373   3.799   8.339  0.1317  0.0431  0.0401
84194W        W27247  16.546  26.579   2.756 -0.3549 -0.0901  0.2398
84195W        W27248   1.824  21.556  26.011  0.1812  0.1276 -0.0136
84196W        W27249  32.068  28.937   1.730 -0.1756 -0.1315 -0.0435
84197W        W27250  15.174  20.882   4.503 -0.0924  0.0376 -0.2519
84198W        W27251   2.061   8.243  26.796 -0.0790  0.1207 -0.3227
84199W        W27252  17.101  12.188   2.211  0.0263  0.0122 -0.0811
84200W        W27253  31.073  26.238  21.761 -0.3872 -0.0588 -0.1977
84201W        W27254  13.518  25.858   1.573 -0.2810 -0.0116  0.0049
84202W        W27255   6.182  27.423  21.521  0.3827 -0.0228  0.0147
84203W        W27256   3.922  14.711   6.948 -0.0100 -0.2246  0.3301
84204W        W27257  12.710   7.600   6.206  0.0054  0.0342 -0.1600
84205W        W27258  13.554  21.226   3.535  0.1591 -0.0842  0.0046
84206W        W27259  18.490  30.802   2.430 -0.0908  0.1442  0.1187
84207W        W27260   7.636  12.196   9.001  0.0535 -0.2379 -0.3801
84208W        W27261  18.524  19.115  21.933 -0.3855 -0.2684 -0.1721
84209W        W27262  16.333  18.056   1.093 -0.3309 -0.0626 -0.0703
84210W        W27263   8.543  24.042   9.852  0.2208  0.3205  0.1775
84211W        W27264  21.991  25.174   1.974 -0.0131 -0.0281 -0.1039
84212W        W27265  28.294   4.918   0.922 -0.2173 -0.0894 -0.0504
84213W        W27266  28.926  20.120   4.535  0.0562 -0.0453  0.1438
84214W        W27267  23.806  33.469   5.148 -0.1795  0.3335  0.0325
84215W        W27268   5.694  11.161   2.484 -0.1332  0.4584  0.0427
84216W        W27269  14.990   1.122  22.354 -0.0730  0.0105 -0.0514
84217W        W27270  15.433  23.403   4.829  0.3109  0.3148  0.0769
84218W        W27271   5.703  22.338  22.459  0.0532  0.1170 -0.3499
84219W        W27272   1.293  17.612   9.171 -0.0910 -0.2717 -0.2467
84220W        W27273  21.796  30.058   2.023  0.2214 -0.0121  0.1134
84221W        W27274   5.190  19.721  19.565 -0.0668 -0.1076  0.1159
84222W        W27275  13.864  30.371  19.030 -0.0736  0.1226 -0.0245
84223W        W27276  30.141  28.925   9.694  0.1338  0.0195  0.0866
84224W        W27277   8.251  19.495  22.650  0.1969  0.0787 -0.3520
84225W        W27278  14.839  29.838   6.866  0.3174 -0.0338  0.0435
84226W        W27279   5.993  21.380   4.880 -0.2794 -0.4023  0.0422
84227W        W27280   5.291   1.261   2.060  0.0315  0.2696  0.0202
84228W        W27281   4.933  15.857  10.198  0.1282  0.1852  0.0080
84229W        W27282  32.098   3.166  21.465 -0.0118  0.0099 -0.0796
84230W        W27283  34.180  12.125  24.059 -0.2215  0.0840 -0.1010
84231W        W27284  10.316  21.637   6.339 -0.2115  0.1045  0.1132
84232W        W27285   1.021  16.817   7.624 -0.0857  0.1830  0.0211
84233W        W27286  27.718  24.047   7.859  0.1702  0.0982 -0.0801
84234W        W27287  11.422  16.013   7.978 -0.5130  0.2528 -0.1861
84235W        W27288  23.937   2.870  22.721 -0.2439  0.0636  0.2178
84236W        W27289  12.750   3.771   8.597 -0.0745 -0.0783 -0.0279
84237W        W27290   0.421  22.546   5.039  0.0916 -0.3245 -0.2690
84238W        W27291   5.476  30.544   9.024  0.1977  0.1117 -0.1102
84239W        W27292  14.728  17.211   5.708  0.0083  0.2032 -0.1291
84240W        W27293   2.261  27.011   2.472 -0.2004  0.2828 -0.2939
84241W        W27294   2.480  22.952  26.137 -0.0495 -0.0635  0.2622
84242W        W27295  12.764  21.299  27.348 -0.2677 -0.1417  0.0944
84243W        W27296  33.442   3.297   9.304  0.1747 -0.1812  0.0504
84244W        W27297   8.934  16.775   8.043 -0.0626 -0.0285 -0.0322
84245W        W27298  19.715   1.203  25.676  0.0291 -0.0044 -0.1356
84246W        W27299   8.644  32.122  27.890  0.0766 -0.0101 -0.0518
84247W        W27300   5.565  29.582   7.871 -0.0862  0.1906  0.1663
84248W        W27301   6.453  14.950   1.125  0.0676  0.2314  0.3007
84249W        W27302   7.475  13.754  28.946  0.0674 -0.1456  0.2071
84250W        W27303  12.397  29.356   4.574  0.2014 -0.0137  0.1330
84251W        W27304  16.257  28.040   0.626 -0.4352 -0.3319  0.0488
84252W        W27305  13.579  19.752   0.058  0.2121  0.1952 -0.3484
84253W        W27306  17.463  30.735  23.103  0.1568  0.0367 -0.1526
84254W        W27307   0.959  26.880   8.496 -0.1013  0.0929 -0.0759
84255W        W27308  20.700   2.266   3.911 -0.3233 -0.0533 -0.0526
84256W        W27309  33.186  18.612   8.782  0.0501 -0.0474 -0.1405
84257W        W27310  15.838  28.627   1.153 -0.0106 -0.3620 -0.0683
84258W        W27311  12.356  15.989   5.126  0.1598 -0.0440  0.0004
84259W        W27312  13.335  31.802   4.678  0.1646  0.0583  0.2321
84260W        W27313   7.009  14.655   5.130 -0.2585 -0.3376  0.1568
84261W        W27314  10.812   5.017  29.012 -0.0364 -0.2417 -0.2380
84262W        W27315  14.224  27.054   8.718 -0.1436  0.0651  0.1170
84263W        W27316  33.652  21.231  27.802 -0.1890  0.1675 -0.3959
84264W        W27317   0.384   8.668   8.011 -0.2196  0.0397  0.0974
84265W        W27318  15.655  18.434  23.508 -0.2189  0.0697  0.1053
84266W        W27319   9.770  19.479   5.086 -0.2328 -0.0007  0.1007
84267W        W27320  14.037  14.749   6.836  0.0357  0.2779 -0.2443
84268W        W27321   9.549  24.872  18.841  0.1560 -0.0278  0.0692
84269W        W27322   8.160  30.155   2.372 -0.2035 -0.0886 -0.0626
84270W        W27323   1.892  31.475   9.885  0.1151 -0.2134  0.1241
84271W        W27324   5.428  14.528   9.877 -0.0847  0.2408  0.1914
84272W        W27325   8.674   4.358  22.112  0.0474  0.0670  0.0621
84273W        W27326  23.561  16.658   5.856  0.1687  0.2590  0.1026
84274W        W27327   9.958  20.218   3.125  0.4370  0.1978  0.5171
84275W        W27328  13.953  28.852   6.812  0.3101 -0.0860  0.0213
84276W        W27329  16.001  24.448   4.239 -0.0098 -0.2935 -0.0509
84277W        W27330  19.334  16.876  25.460  0.1593 -0.0071 -0.1501
84278W        W27331  15.150  11.094   6.791 -0.0414  0.2614  0.2119
84279W        W27332  10.840   0.542   9.317  0.2559 -0.1101  0.4769
84280W        W27333  16.267  19.429   1.332  0.0481 -0.0612  0.1843
84281W        W27334  10.320  21.310   6.831 -0.2536 -0.0220 -0.2707
84282W        W27335   3.291   0.388  27.067  0.0996  0.0427 -0.2826
84283W        W27336  33.455  18.825  29.113  0.1718  0.0848 -0.1188
84284W        W27337   5.404  25.445  25.970 -0.0044 -0.0338 -0.2478
84285W        W27338   9.447  13.684  24.294 -0.0393 -0.3217 -0.0046
84286W        W27339  12.483  23.269   7.786 -0.0410 -0.0399  0.0024
84287W        W27340  13.622  14.177   7.480 -0.1368  0.2494  0.1419
84288W        W27341   3.209  26.068  21.564  0.0909  0.2129  0.1965
84289W        W27342  17.962  15.137   8.678  0.0213 -0.4825  0.1653
84290W        W27343  10.132  20.441   6.219 -0.0911 -0.0398  0.0074
84291W        W27344  11.329  18.168   2.695 -0.0796 -0.1731  0.2708
84292W        W27345   9.300  17.094   8.069  0.0442  0.0318 -0.1792
84293W        W27346  21.116  24.529  23.082  0.0328 -0.1530 -0.1169
84294W        W27347   5.139  16.077  17.735 -0.2013 -0.1746  0.0206
84295W        W27348  15.097  18.883   8.006 -0.0225 -0.0876  0.0091
84296W        W27349  15.016  21.903   4.094  0.1509  0.1486  0.2912
84297W        W27350   0.988  30.292   0.159 -0.2279  0.3906  0.1868
84298W        W27351  31.312  27.334  28.115  0.0088  0.1530 -0.0337
84299W        W27352  34.516  10.399   0.735  0.0784 -0.3877  0.0140
84300W        W27353   6.952  23.079  20.203 -0.1049  0.1841 -0.1990
84301W        W27354  27.346  14.044   5.784  0.0825  0.0820 -0.0480
84302W        W27355  18.849   7.410   3.080 -0.0154  0.3916 -0.3126
84303W        W27356  33.552  27.541   2.062  0.1999  0.0702  0.3975
84304W        W27357  29.074  21.927   2.185  0.0620  0.1836 -0.1115
84305W        W27358  22.461   0.381  25.164 -0.0334 -0.1066  0.0848
84306W        W27359  31.272  23.018  28.891  0.1391  0.0089  0.1738
84307W        W27360  32.830  21.813   4.019 -0.2712  0.1849 -0.0137
84308W        W27361   8.644  28.429   4.972  0.1636 -0.4436  0.2056
84309W        W27362   6.340  21.160  19.575 -0.1166 -0.1083 -0.1357
84310W        W27363  26.365  18.854  22.737 -0.2576 -0.0721 -0.0305
84311W        W27364   2.224  31.970  21.340 -0.4769  0.1574  0.0148
84312W        W27365  15.527  30.955  10.099  0.0638 -0.0178  0.1151
84313W        W27366  23.724  34.216   1.988 -0.3907 -0.0197  0.2523
84314W        W27367  34.408  11.535   8.079  0.1438  0.3056 -0.0967
84315W        W27368   3.434  32.207   0.109  0.0134 -0.1485 -0.0837
84316W        W27369   6.549  18.809   7.359 -0.3990 -0.0482  0.0183
84317W        W27370   7.515  25.459   2.178  0.0277  0.0679 -0.2299
84318W        W27371   8.549  18.922  14.758 -0.0457  0.1459 -0.0005
84319W        W27372   4.169  23.277   2.535  0.1221 -0.0828 -0.0782
84320W        W27373  32.615  31.233   0.493  0.0243 -0.0010  0.0851
84321W        W27374   9.279  15.918   6.487  0.0299 -0.0626  0.0200
84322W        W27375  15.836  25.047   9.583 -0.1173  0.2388 -0.2060
84323W        W27376   7.056  29.829  25.092  0.0561 -0.0943 -0.1112
84324W        W27377  26.351  15.858   7.253  0.0128 -0.1805 -0.1360
84325W        W27378   9.010  17.229   6.286 -0.0748  0.2828 -0.0380
84326W        W27379  21.684  15.962   1.413  0.3807 -0.1677  0.1845
84327W        W27380  28.121  28.393   0.886  0.1209 -0.2551 -0.1804
84328W        W27381  33.855  11.523   7.669 -0.1808 -0.0765 -0.1688
84329W        W27382   5.732  22.057   6.508  0.1796  0.0324  0.1310
84330W        W27383  34.240   8.218   7.380  0.1391  0.0146 -0.0986
84331W        W27384  34.231  11.823  25.933  0.1571 -0.0948 -0.3074
84332W        W27385  26.883  27.078   7.276 -0.2037 -0.0484 -0.0197
84333W        W27386   1.886  26.927  25.757 -0.0298 -0.0521 -0.1856
84334W        W27387  25.255  13.418  10.041 -0.1850 -0.1998  0.0278
84335W        W27388  19.523  20.398  22.817 -0.0578 -0.1171 -0.1535
84336W        W27389  16.097   1.102   9.520  0.1842 -0.0442 -0.2448
84337W        W27390   8.075  19.778  28.774  0.0572  0.3277 -0.1555
84338W        W27391  27.737  17.513  24.558  0.1745 -0.1376 -0.2342
84339W        W27392  22.599   1.096   1.118 -0.2869 -0.1283 -0.0206
84340W        W27393   7.668  15.481  27.069  0.1756  0.1289  0.0132
84341W        W27394   5.147  22.542   7.207 -0.1911  0.3823  0.1192
84342W        W27395   9.206  25.077   2.736 -0.0280 -0.2952 -0.1137
84343W        W27396  21.558  17.437   3.434  0.2100 -0.0472  0.1344
84344W        W27397  15.952  27.271   2.989  0.1965 -0.3246 -0.1093
84345W        W27398   7.673  24.106  22.438  0.3141  0.2169 -0.0589
84346W        W27399  29.591  24.644   8.009 -0.3985 -0.0881 -0.0857
84347W        W27400  24.405  24.928   4.314 -0.2002 -0.1855  0.1419
84348W        W27401   2.457  26.324   1.768  0.4906 -0.2180 -0.0338
84349W        W27402  11.460  21.469   6.837 -0.1675  0.1047 -0.1175
84350W        W27403  18.728  22.451   0.826  0.1847 -0.1478  0.1480
84351W        W27404   0.029  32.442   4.040 -0.2870  0.2498  0.0837
84352W        W27405   6.213  28.813   2.310  0.1794  0.0431 -0.0933
84353W        W27406  19.798  31.956   1.417 -0.0854 -0.0284 -0.1714
84354W        W27407  16.076  29.876   3.530  0.2408 -0.0758 -0.1707
84355W        W27408  11.151  19.664   9.461 -0.0090  0.4440  0.1279
84356W        W27409  12.381   4.616   1.733 -0.1941  0.0392  0.1086
84357W        W27410  13.013  19.705   3.991  0.1932  0.0892  0.1400
84358W        W27411  13.880  12.582  15.803  0.0988  0.2302 -0.0872
84359W        W27412  13.605  24.900   0.546 -0.4824  0.0237  0.0067
84360W        W27413  15.396  27.611  27.962 -0.0870 -0.0400  0.2618
84361W        W27414   6.669  10.522   0.206 -0.1588 -0.0272 -0.0589
84362W        W27415  11.740  33.639  26.191 -0.2145 -0.0552  0.2349
84363W        W27416  22.045  24.979  28.818 -0.1655  0.1696 -0.0477
84364W        W27417  20.690  18.825   0.208  0.2066 -0.0732 -0.0441
84365W        W27418  10.495  27.894  17.088 -0.3298 -0.3308 -0.3200
84366W        W27419   4.605  27.329   5.324 -0.0492  0.1253  0.0277
84367W        W27420  19.729  20.147   2.413  0.3694  0.0651 -0.2473
84368W        W27421   1.199  25.643  23.334 -0.4175  0.0478  0.0111
84369W        W27422   1.175  22.037   5.255  0.1607  0.0056  0.0650
84370W        W27423   9.715   8.772   6.072  0.1332  0.1917  0.1883
84371W        W27424   0.134  19.447  25.224  0.0740  0.0920 -0.2668
84372W        W27425   7.379  18.548  27.257  0.1189  0.0096 -0.1154
84373W        W27426  10.445   7.500   8.250  0.0363  0.0782 -0.4026
84374W        W27427  19.701   2.227  28.233  0.1384  0.2047 -0.1621
84375W        W27428  15.559  34.670   9.360  0.0520 -0.0674 -0.1945
84376W        W27429   1.914  25.589  22.438 -0.0516 -0.2493  0.0372
84377W        W27430  16.180   5.485   7.019 -0.2187  0.1073  0.0401
84378W        W27431  23.185  17.562   9.281 -0.1023  0.1126 -0.0050
84379W        W27432   6.192  22.832   4.468 -0.0511  0.1111  0.1597
84380W        W27433   1.864  26.824  20.972  0.0158 -0.0037  0.0601
84381W        W27434   7.677  13.883   8.712 -0.0771  0.2061 -0.0938
84382W        W27435   0.466  20.600   8.793  0.1311 -0.1299  0.1188
84383W        W27436  15.717  25.056   4.900 -0.1420 -0.0369 -0.0495
84384W        W27437   1.530  22.304   5.534 -0.0523 -0.0662 -0.0975
84385W        W27438  24.827  13.590  15.546 -0.1896 -0.1748  0.1228
84386W        W27439  22.622  16.669  18.102  0.0917 -0.0354  0.0837
84387W        W27440  14.315   6.479   1.684  0.0315  0.3891 -0.1687
84388W        W27441   7.015  20.329   6.578 -0.1332  0.0031 -0.1978
84389W        W27442  30.617   1.048  26.772 -0.0939  0.5006  0.0558
84390W        W27443   5.436  22.427   4.262  0.0734 -0.0301 -0.0311
84391W        W27444   7.727  21.600   2.906  0.0978  0.3992  0.2335
84392W        W27445  34.354  31.023   7.380 -0.2389  0.1658  0.0593
84393W        W27446  34.260  14.268   5.821 -0.1118 -0.0144  0.2010
84394W        W27447  19.871  14.732   9.090 -0.1206 -0.0508 -0.1426
84395W        W27448  19.556  26.644  25.827 -0.0977  0.1826 -0.2267
84396W        W27449  16.830   9.632   1.044 -0.0047 -0.2666 -0.1559
84397W        W27450  32.821  22.352   1.160  0.2163  0.0299  0.0021
84398W        W27451  21.361  17.545   9.277 -0.0593 -0.1027 -0.0946
84399W        W27452   3.664  14.181   5.670 -0.1949  0.0521 -0.1745
84400W        W27453  12.427  18.202   7.489  0.0090 -0.1468  0.3231
84401W        W27454   7.131  22.557   9.403  0.0607  0.0911 -0.0642
84402W        W27455  31.351  21.324   5.457  0.0000 -0.1135  0.2003
84403W        W27456  14.394  22.052   0.989  0.1110 -0.2626 -0.1599
84404W        W27457  14.066  24.193  27.110 -0.2613  0.1124 -0.3197
84405W        W27458  18.238  24.340   5.230  0.0629  0.0745 -0.0835
84406W        W27459   0.790  23.567  23.018  0.0104  0.0053  0.0302
84407W        W27460  17.442  24.582  25.903  0.1014  0.1814 -0.1781
84408W        W27461   2.915  32.113   7.943 -0.1618 -0.1348  0.1911
84409W        W27462  13.736  17.970  22.023 -0.2587  0.3512  0.2312
84410W        W27463  15.735  21.493  15.391 -0.2421  0.0490  0.3328
84411W        W27464  17.265   4.439   9.515  0.0322 -0.3159 -0.0627
84412W        W27465   1.975  15.018   8.501 -0.0419 -0.1406 -0.0839
84413W        W27466  19.032   6.455   1.780 -0.2726  0.0949  0.1848
84414W        W27467  11.079  19.221   5.996 -0.1956 -0.0297  0.1179
84415W        W27468   9.887  24.644   0.790  0.0622  0.0254 -0.1229
84416W        W27469  19.092   3.776   2.980  0.2907  0.1676  0.1884
84417W        W27470  12.548  16.614  20.647  0.1968  0.1968 -0.1983
84418W        W27471  10.281  28.644   7.962 -0.1065  0.1411 -0.1968
84419W        W27472   6.321  34.400  17.042 -0.2444 -0.3091 -0.0251
84420W        W27473  19.663  18.103   2.180  0.0414  0.0980 -0.2175
84421W        W27474  28.169  13.376  24.233 -0.0669 -0.0829 -0.1030
84422W        W27475   5.687  32.782  28.708  0.2066  0.2634 -0.0724
84423W        W27476   2.222  14.453  19.537  0.0932 -0.2724 -0.1368
84424W        W27477   6.337  24.587  18.701  0.2306 -0.1558 -0.4487
84425W        W27478  31.025  29.540   8.306 -0.0577  0.2097  0.2502
84426W        W27479   9.521  24.748  16.260  0.0731  0.0573  0.1160
84427W        W27480  29.675  26.374  28.320 -0.2530  0.0569 -0.2280
84428W        W27481  14.258  31.773   1.571  0.0796  0.1195 -0.0210
84429W        W27482   9.509   2.417   4.670 -0.3248  0.2858 -0.2710
84430W        W27483  32.913  31.904  15.009 -0.0219 -0.0358 -0.1074
84431W        W27484  22.583  12.074   1.496  0.2330  0.0513 -0.1230
84432W        W27485  19.142  18.955  28.098 -0.0974  0.1904  0.1328
84433W        W27486   1.736  19.380  22.392 -0.1256  0.0583 -0.1741
84434W        W27487   1.390   4.021  16.677  0.0302 -0.0482 -0.0252
84435W        W27488  30.793   7.749   1.280 -0.1259 -0.1506 -0.1190
84436W        W27489  10.291  22.807   3.919  0.1643 -0.0030 -0.0150
84437W        W27490  11.377  33.259   0.253 -0.0301 -0.1517 -0.3342
84438W        W27491  26.810  17.961   3.661 -0.1078  0.1172 -0.1065
84439W        W27492   6.813  19.569   7.219 -0.1277 -0.0959 -0.0733
84440W        W27493   4.457  26.445   2.382  0.2646 -0.0418  0.1512
84441W        W27494  22.632  33.468   4.237 -0.4176  0.2307 -0.2897
84442W        W27495   8.744  27.444   4.870  0.1210  0.2683 -0.0861
84443W        W27496  30.566  22.927   2.851 -0.1341  0.0744 -0.1870
84444W        W27497   2.177  21.110   3.291 -0.0934  0.2032 -0.0091
84445W        W27498   5.119  16.185  25.527 -0.0540  0.2010 -0.0952
84446W        W27499  33.050  31.856  23.569 -0.0744  0.0043 -0.0837
84447W        W27500  26.909   2.695  25.903 -0.0296 -0.1257  0.1241
84448W        W27501  24.090  15.267   4.072  0.0979 -0.0406 -0.3268
84449W        W27502  18.581   4.505  22.356 -0.0314 -0.0897 -0.1120
84450W        W27503   6.285  21.911  22.190 -0.1073 -0.0938  0.2637
84451W        W27504   5.743  10.289   1.919  0.0794 -0.2012 -0.3236
84452W        W27505  13.115  27.416  15.974 -0.1660  0.3896 -0.0321
84453W        W27506   3.242   7.998  23.280  0.2431  0.0667 -0.0320
84454W        W27507  32.909  24.970   1.117 -0.1181 -0.3529  0.0266
84455W        W27508  10.496   9.597   7.381  0.0282  0.0848 -0.1559
84456W        W27509  15.085  25.151   9.635 -0.1612  0.0457 -0.0537
84457W        W27510  14.083   1.203  28.149  0.0076 -0.3877 -0.0768
84458W        W27511  20.760  18.242   9.093  0.0165  0.2571  0.3750
84459W        W27512  21.427  32.135  28.414 -0.0422  0.0892 -0.0975
84460W        W27513  17.740  24.258   4.198 -0.3165 -0.1879 -0.0904
84461W        W27514   5.567   0.011  20.888 -0.0700  0.1763 -0.1237
84462W        W27515  10.993   3.214   4.692  0.0921  0.0931 -0.0810
84463W        W27516  18.451  30.408   8.557  0.0248 -0.0249  0.0478
84464W        W27517   5.034  31.375   1.661  0.1944 -0.2186  0.1421
84465W        W27518  16.003   3.346  16.274  0.1384  0.0960 -0.1551
84466W        W27519  27.964  28.834   1.952  0.0224  0.1241  0.0300
84467W        W27520  14.793  11.085  28.217 -0.2231  0.2882  0.2846
84468W        W27521   6.364  30.380  26.560  0.3082  0.0311  0.2506
84469W        W27522  20.226   8.924   2.988  0.2049 -0.0343  0.0076
84470W        W27523   6.638  21.200  28.957 -0.2043  0.0776  0.2204
84471W        W27524   8.794  27.487   2.689 -0.0560  0.1432  0.1738
84472W        W27525  29.216  32.377   6.387  0.1624  0.0387 -0.0497
84473W        W27526   8.187  16.310   2.002  0.1549  0.6022 -0.2320
84474W        W27527  10.492   2.076   8.884  0.1841  0.1100 -0.0358
84475W        W27528  33.692  29.208  28.866 -0.1510 -0.0564 -0.1082
84476W        W27529  10.953  26.080  27.106 -0.0720 -0.0997  0.0500
84477W        W27530  12.184  18.567   5.071  0.2410 -0.1471 -0.2364
84478W        W27531   9.945  21.049  17.916  0.1094 -0.0406  0.2187
84479W        W27532   0.087  28.818   5.271 -0.2065  0.0343  0.2106
84480W        W27533   2.770  19.256  23.501 -0.0561 -0.0300 -0.2384
84481W        W27534   7.049   1.068   9.673  0.0747 -0.0093  0.1604
84482W        W27535  10.579  17.584   6.339  0.0458  0.1721  0.1760
84483W        W27536   4.690   0.124  14.504  0.0764 -0.3330 -0.1459
84484W        W27537   6.457  28.869  24.062  0.0743  0.1545 -0.0762
84485W        W27538  11.934   3.499   6.930 -0.0476 -0.0354 -0.1869
84486W        W27539  21.131   2.419  22.723 -0.2687 -0.0459 -0.1820
84487W        W27540  30.764  28.795   3.589  0.3111  0.0453  0.0159
84488W        W27541   1.625   9.732  15.898  0.0276  0.3016  0.2676
84489W        W27542  10.139  23.452  22.191  0.1024 -0.2827 -0.1153
84490W        W27543  13.210  30.918   8.493  0.1626 -0.1485  0.0795
84491W        W27544   9.466   3.545  27.760 -0.0946 -0.0125  0.0590
84492W        W27545  19.273  27.852  26.199  0.1348 -0.1558 -0.3120
84493W        W27546  10.743  33.463  21.800  0.0926  0.1132  0.0553
84494W        W27547  13.416  27.167   4.934 -0.2303  0.1595  0.1110
84495W        W27548  19.194  31.653   3.653  0.0193  0.1466  0.1091
84496W        W27549   5.349  16.965   8.107  0.2591 -0.0226  0.3635
84497W        W27550   2.143  26.357   1.343 -0.1811  0.1791 -0.0366
84498W        W27551  34.130  32.402   2.351 -0.3093  0.0541 -0.1172
84499W        W27552  12.960  26.348   6.250  0.1032  0.1664  0.0085
84500W        W27553  14.746   0.579   7.355  0.3485  0.0287  0.0251
84501W        W27554   0.603  21.614   9.356  0.3111 -0.0668 -0.2605
84502W        W27555  25.930   7.545   8.451 -0.0286 -0.0855 -0.1029
84503W        W27556   9.675  21.860   5.859  0.3306  0.0476 -0.0882
84504W        W27557   5.990  23.200   8.113  0.0403  0.1513 -0.0700
84505W        W27558   6.649  23.060   5.482 -0.0402 -0.0909 -0.0608
84506W        W27559  23.198  25.760   4.137 -0.0694  0.0127 -0.2789
84507W        W27560   4.785   1.065  14.612 -0.0702 -0.2011 -0.0808
84508W        W27561   6.369  21.183  28.074  0.3691 -0.2944 -0.0214
84509W        W27562  17.558  28.035   4.150  0.0588 -0.1233 -0.0718
84510W        W27563  16.631  27.035   8.736 -0.0556  0.0464 -0.1185
84511W        W27564   9.866   9.047  27.891 -0.0151 -0.2394 -0.0514
84512W        W27565   8.740  32.640  15.930 -0.3412  0.0437  0.2002
84513W        W27566   9.296  29.942   3.900  0.0322  0.0656  0.0749
84514W        W27567   1.598  30.817   0.424  0.0120 -0.0326  0.2929
84515W        W27568   5.485  18.630   5.171  0.1532 -0.0011 -0.0974
84516W        W27569  28.954  13.616  22.788  0.0234 -0.1995  0.0552
84517W        W27570   3.394  23.581   8.866  0.1124 -0.2197 -0.2205
84518W        W27571  15.993  32.099  10.447  0.1438  0.2839 -0.1373
84519W        W27572   9.388  30.474   3.933 -0.2244  0.1781  0.2693
84520W        W27573  13.812  22.877  26.857 -0.2279  0.3524 -0.2695
84521W        W27574  14.257   1.564  21.131 -0.0409 -0.0140  0.0172
84522W        W27575   4.095  23.095  28.710  0.1190  0.1946  0.2607
84523W        W27576  14.605  18.341   9.350 -0.3803 -0.1589 -0.0809
84524W        W27577  19.762  26.452  19.986  0.0142  0.0525 -0.0308
84525W        W27578  17.842  26.758   6.992  0.3435  0.0733 -0.3437
84526W        W27579  16.771  17.610   7.163  0.1606  0.2656  0.1365
84527W        W27580  20.368  20.551  26.137  0.3095  0.2137 -0.0651
84528W        W27581   5.690  10.504   0.200  0.1085 -0.2161 -0.1139
84529W        W27582   8.532  27.266  24.055  0.2032 -0.4441  0.1108
84530W        W27583  31.675   0.833   5.166 -0.0169 -0.0754  0.0815
84531W        W27584   5.883  22.874   9.431 -0.3316 -0.1043 -0.1220
84532W        W27585  13.158  33.256  23.305  0.1307  0.0130 -0.0566
84533W        W27586  13.665   5.877  22.355  0.0592 -0.1097  0.0635
84534W        W27587  32.924  32.667   1.449 -0.0288  0.1701 -0.3279
84535W        W27588  27.009  23.896  19.772 -0.0819  0.2804 -0.2480
84536W        W27589   7.602  27.610   1.866  0.1687  0.2202  0.1639
84537W        W27590  32.183   8.945   1.548  0.1495  0.0210  0.0444
84538W        W27591   0.638   1.958   2.712 -0.0415  0.0134 -0.1449
84539W        W27592   9.190  28.392  19.519  0.3185 -0.2190 -0.1562
84540W        W27593  12.569  23.321   5.609 -0.2877  0.0284 -0.0297
84541W        W27594   7.961  17.717  28.060  0.0601 -0.0260 -0.1222
84542W        W27595   1.399  15.060  25.023  0.1388  0.0160  0.2559
84543W        W27596  32.401   2.452  25.751 -0.2557 -0.0563 -0.0141
84544W        W27597  25.559  25.606   5.169  0.0590 -0.1328 -0.1342
84545W        W27598   8.962  12.307  28.555  0.1944  0.1507 -0.1573
84546W        W27599  15.903  23.628  21.215  0.3571 -0.2895 -0.1753
84547W        W27600   7.103   6.087  20.448  0.0773  0.0031 -0.0955
84548W        W27601  15.904   1.582   8.344  0.0146 -0.0527 -0.0437
84549W        W27602  22.579  29.112   3.312 -0.1664 -0.0836  0.0629
84550W        W27603  32.864   2.311  28.201 -0.1460  0.0125  0.1475
84551W        W27604   8.931  33.908  26.345 -0.3178  0.1293  0.2675
84552W        W27605  28.529   1.882   7.455  0.2339 -0.2057  0.1788
84553W        W27606   5.277  15.185  27.130 -0.2995  0.1334  0.0910
84554W        W27607  17.034   7.368   4.049  0.0786  0.0151  0.5435
84555W        W27608  29.555  10.687  25.940  0.1033  0.3330  0.1560
84556W        W27609   2.846   2.698   4.254  0.1961  0.2000 -0.1177
84557W        W27610   1.006  33.347  25.436  0.3249  0.0688  0.0486
84558W        W27611  25.405  27.295   3.083 -0.0220  0.0705  0.1561
84559W        W27612   8.407  28.844   7.817 -0.1335  0.1014 -0.0716
84560W        W27613  18.939   2.161  24.385 -0.0014  0.0221  0.0644
84561W        W27614   5.514   8.801   5.188  0.1598 -0.1958 -0.3961
84562W        W27615  31.666  15.908  24.443 -0.0144 -0.2011  0.2348
84563W        W27616   1.199  24.474   0.027  0.0500 -0.2469 -0.1054
84564W        W27617  31.357   8.302  27.284  0.2148  0.0012  0.0022
84565W        W27618   2.188  29.109   9.197  0.0080  0.1834  0.1219
84566W        W27619  19.929  23.901  24.218  0.1407 -0.1526 -0.0785
84567W        W27620  16.331  31.955   8.509 -0.0097 -0.2230 -0.0836
84568W        W27621   1.714   5.790  15.184 -0.0922  0.0200  0.0420
84569W        W27622  21.998  29.839  23.447 -0.0839 -0.1125  0.2402
84570W        W27623  12.398  11.075   0.826  0.3977  0.0426 -0.0528
84571W        W27624  18.560   5.310   7.948  0.1570 -0.3151 -0.1008
84572W        W27625  13.191  10.794  27.512  0.1316  0.1991  0.3365
84573W        W27626   8.005  30.920   7.563 -0.1434  0.1052 -0.0337
84574W        W27627   0.334   6.592  27.986  0.0755 -0.0883 -0.0303
84575W        W27628   8.201  19.146  25.633  0.1832 -0.0045  0.1018
84576W        W27629   4.656  28.939   9.170  0.0316  0.1949 -0.0354
84577W        W27630   1.289   8.524  19.068 -0.0336 -0.2754  0.2505
84578W        W27631  34.237  28.732  24.009  0.1874 -0.4576 -0.4518
84579W        W27632  20.347  16.112   8.113  0.3829  0.1779  0.0713
84580W        W27633   6.018  14.237  18.879  0.2197 -0.1610  0.1551
84581W        W27634  28.774  26.183  24.929 -0.4087 -0.1376 -0.1725
84582W        W27635  15.186  23.138  25.750 -0.2386  0.4593 -0.2757
84583W        W27636   0.346   9.454  23.877 -0.3416 -0.3855  0.0401
84584W        W27637   8.167   6.402   7.576  0.0042  0.0555  0.0204
84585W        W27638   8.282  19.914  17.721  0.1080  0.2247  0.2671
84586W        W27639   8.991  10.425   7.198 -0.3274  0.0199  0.1633
84587W        W27640   7.549  31.267   8.514 -0.1680 -0.0597  0.1452
84588W        W27641   9.823   5.891  21.557 -0.0136  0.3529  0.0485
84589W        W27642  11.571  25.721   8.029  0.0281 -0.2588  0.2549
84590W        W27643  16.343  30.139   8.077  0.1151 -0.1914  0.2275
84591W        W27644   0.426  30.168   5.587 -0.3595  0.1616 -0.2249
84592W        W27645  15.599  27.677   4.436  0.0247 -0.0626 -0.3437
84593W        W27646  17.723  18.042   8.559  0.1891  0.0125 -0.0764
84594W        W27647   5.710  12.180  26.506  0.2754 -0.0640 -0.0513
84595W        W27648  16.066  26.305   7.653  0.0595  0.0380 -0.0120
84596W        W27649   5.819  33.458   8.195  0.0072 -0.0737  0.0147
84597W        W27650  16.011  22.634   7.348 -0.0379 -0.0633  0.3213
84598W        W27651  10.931  25.424  26.065  0.2647  0.2700 -0.3132
84599W        W27652  32.017  10.425  10.003  0.0548  0.0169 -0.0907
84600W        W27653  26.935  27.328  26.246  0.0643 -0.1755  0.3729
84601W        W27654  10.068   2.428   8.839 -0.0957 -0.1902 -0.2166
84602W        W27655  19.001   6.870   2.148 -0.2044  0.0712  0.0807
84603W        W27656   7.360  29.017   6.389 -0.0614  0.0445 -0.2800
84604W        W27657   1.376  23.150  13.699  0.2773  0.3708  0.0500
84605W        W27658  20.028  18.342  28.360 -0.0627 -0.0854  0.0572
84606W        W27659  12.002  21.775  24.395  0.1762 -0.3605 -0.0434
84607W        W27660   7.009  32.636   5.319 -0.1243 -0.0023 -0.0846
84608W        W27661   5.157   0.978   2.972  0.2220 -0.3390 -0.2906
84609W        W27662  19.963  18.525   9.872  0.3495 -0.0112  0.0878
84610W        W27663  18.535  21.716   9.048 -0.2104  0.1612  0.3395
84611W        W27664  32.183  19.243  18.719 -0.0330  0.0862  0.3013
84612W        W27665  21.244  21.826  21.930  0.1032  0.1923  0.0569
84613W        W27666  21.174  34.666  22.789  0.1570  0.0444  0.0971
84614W        W27667  12.317  27.760   5.821 -0.0873 -0.1822 -0.1902
84615W        W27668  10.737  29.785   4.484 -0.1335 -0.0429 -0.1410
84616W        W27669   8.683  20.047  19.119 -0.0046  0.0010 -0.0327
84617W        W27670   0.734  20.967   8.647 -0.2354  0.1006 -0.1361
84618W        W27671  26.326  11.315   3.290 -0.4056 -0.0468 -0.3532
84619W        W27672  13.915   1.013   9.040  0.0591 -0.3026 -0.0186
84620W        W27673  34.025  17.347  19.507 -0.0705  0.1806 -0.2153
84621W        W27674   6.773   0.122   7.172  0.1500 -0.1679 -0.0807
84622W        W27675  31.866  10.959   2.325  0.1919 -0.2572  0.1261
84623W        W27676   1.702  14.445  26.267 -0.0430 -0.1003 -0.3708
84624W        W27677   3.000  24.275  24.092  0.2294  0.1469 -0.2441
84625W        W27678  15.275  27.500  20.129  0.2001 -0.0052  0.2267
84626W        W27679   8.438  17.366   7.795  0.0761 -0.2903 -0.0300
84627W        W27680  19.966  10.981   7.303  0.2322 -0.0690  0.1746
84628W        W27681  20.072   9.655  23.939 -0.0041  0.1498  0.1463
84629W        W27682   6.450   7.372  25.153 -0.0493  0.4118  0.2465
84630W        W27683   0.920  27.770  28.686 -0.1919 -0.2255  0.3234
84631W        W27684  10.865  22.057   6.910 -0.0039  0.0718  0.1627
84632W        W27685  10.680  29.751  22.984  0.0372  0.2736 -0.0118
84633W        W27686  23.429  21.311   9.619 -0.0391 -0.3812  0.0008
84634W        W27687  21.257  24.747   8.906  0.1224 -0.0606  0.0721
84635W        W27688  12.667  31.886   8.558 -0.4178  0.2145 -0.2561
84636W        W27689  24.077  14.733  20.211 -0.1083  0.0461 -0.2162
84637W        W27690  17.718   5.965  27.609 -0.0757 -0.0408 -0.2301
84638W        W27691   5.133   2.674  26.109  0.0852 -0.0835 -0.1470
84639W        W27692  32.696  10.754   5.693 -0.2752 -0.0459 -0.3085
84640W        W27693   7.071   5.311   3.359  0.2990 -0.0865 -0.0775
84641W        W27694   3.344  18.733   0.814  0.1031 -0.2245  0.2082
84642W        W27695  33.514   3.226   2.915  0.1781  0.2226 -0.4239
84643W        W27696  10.793  30.214   9.773 -0.2135 -0.0893  0.2345
84644W        W27697   5.189  32.362  22.012 -0.0867 -0.2647  0.1305
84645W        W27698  29.025  20.041   8.209  0.1220  0.0974  0.2757
84646W        W27699   8.547   3.436   5.897  0.2834  0.0780 -0.2589
84647W        W27700  10.985  30.671  17.896 -0.0748  0.1764  0.1162
84648W        W27701  19.775  25.866   7.062 -0.0522  0.0381  0.0883
84649W        W27702   5.224  28.152   4.354 -0.2512 -0.1900 -0.1679
84650W        W27703  28.652  12.591  25.685 -0.0079  0.1751 -0.0466
84651W        W27704  23.613   2.099  10.872  0.1928  0.0161  0.2392
84652W        W27705  17.416  26.408  19.980 -0.2186 -0.3723 -0.0959
84653W        W27706   7.242  34.108  28.367 -0.0995  0.2682 -0.0458
84654W        W27707  17.779  24.315  27.394  0.5145 -0.0989  0.1516
84655W        W27708  33.324   4.758   2.890  0.1051  0.1375  0.1800
84656W        W27709   9.341  28.856   7.983 -0.1467 -0.0958 -0.0753
84657W        W27710  20.447  23.937   0.635 -0.0163 -0.2003  0.1775
84658W        W27711   5.683   7.489   6.103 -0.1040 -0.2407  0.0624
84659W        W27712   9.655  13.548  19.810  0.2698  0.2912  0.1704
84660W        W27713   9.871   0.703  23.934 -0.0599  0.1561 -0.1100
84661W        W27714  14.591  24.476  18.906  0.1566  0.0960 -0.0822
84662W        W27715  14.652  25.445  26.439  0.0299  0.0824 -0.0686
84663W        W27716  30.466   2.862  16.938 -0.0629  0.0762 -0.2039
84664W        W27717  24.816  26.248   6.446 -0.4309 -0.2200  0.1894
84665W        W27718   1.932  24.954   1.019 -0.0914 -0.0332  0.1575
84666W        W27719   6.703  13.548   0.200 -0.0240 -0.1619 -0.0290
84667W        W27720  11.350  33.978   2.791 -0.2088  0.3308  0.0001
84668W        W27721   6.000  28.374  26.215  0.1953 -0.1482 -0.3154
84669W        W27722   8.039   3.227   5.636  0.0187  0.2389 -0.1043
84670W        W27723  14.269  12.338   4.079  0.3042  0.0267 -0.5980
84671W        W27724  17.352   4.328  28.118  0.1095  0.0999  0.1585
84672W        W27725   9.303  30.156   8.177  0.1861 -0.3253 -0.0290
84673W        W27726  11.091  23.824   6.678 -0.3375  0.1794  0.1221
84674W        W27727  10.198   9.877   9.698  0.1089  0.0140  0.2470
84675W        W27728  24.949   0.773  28.847 -0.1133  0.1272  0.2903
84676W        W27729  26.030  25.977   6.911  0.0113 -0.2493  0.3520
84677W        W27730  26.308   3.696   0.244  0.2073  0.0379 -0.1157
84678W        W27731  20.462  26.765   3.630  0.2415  0.0460  0.0689
84679W        W27732   6.413   5.172   0.691  0.0023  0.2080 -0.0066
84680W        W27733   5.474  32.076   3.178  0.1733 -0.0226  0.0555
84681W        W27734  13.552  32.319   3.991  0.1605 -0.0519 -0.0256
84682W        W27735  30.396  19.871  18.294  0.2606  0.3993  0.1599
84683W        W27736  23.262  19.929  20.834  0.1471  0.0669  0.0234
84684W        W27737   0.111   4.924   6.221  0.1215  0.1006  0.2425
84685W        W27738  29.679  16.555  27.447  0.1908 -0.0146  0.0622
84686W        W27739   5.336  24.704  16.452 -0.1155 -0.0975  0.0109
84687W        W27740  23.131  15.362   7.741  0.0407  0.0871  0.3378
84688W        W27741  32.488  33.193  14.494  0.1401  0.1585  0.0815
84689W        W27742  16.023   0.125   7.861 -0.1688  0.1984  0.0287
84690W        W27743  11.651  32.611  20.384 -0.0383  0.1008 -0.0546
84691W        W27744  29.944  33.310   3.796 -0.1268  0.1232 -0.1945
84692W        W27745  14.506   9.224   8.764  0.1333  0.2341 -0.0565
84693W        W27746  27.750   5.398  25.940  0.0070  0.3205 -0.0103
84694W        W27747  17.779  20.920  25.896  0.0567 -0.3310 -0.0758
84695W        W27748  29.011  34.241   3.889 -0.3046 -0.0130  0.2173
84696W        W27749  26.914  20.243   2.637 -0.3300  0.3484  0.1817
84697W        W27750   5.360  26.038   9.885 -0.0614  0.2952  0.1864
84698W        W27751   7.522   3.566   7.679  0.1308  0.1117 -0.1325
84699W        W27752   2.690  15.971  19.036 -0.0553 -0.3206  0.0794
84700W        W27753  13.330  13.284  26.401  0.3646  0.0867  0.3805
84701W        W27754   4.486  17.943   3.869  0.2595 -0.0221 -0.3585
84702W        W27755  15.076  11.831   5.913 -0.0055  0.0747 -0.1705
84703W        W27756  30.109   7.008   2.466  0.1110  0.1404 -0.0107
84704W        W27757  16.922  32.441   6.885 -0.0072  0.3169 -0.0838
84705W        W27758   9.346   1.591  27.111 -0.3176  0.2904  0.0027
84706W        W27759  33.423  33.350  21.949  0.1629 -0.1408  0.1695
84707W        W27760  17.463  24.679   7.470  0.0707  0.0218  0.2216
84708W        W27761  11.998   0.570  20.980  0.0347  0.0827  0.0630
84709W        W27762  15.432  16.311  13.034  0.0599  0.2822 -0.1855
84710W        W27763  19.144   4.094   6.676  0.2556 -0.0121 -0.0999
84711W        W27764  33.735  33.230  22.344 -0.1764  0.0877  0.1702
84712W        W27765   9.440  16.814   7.416  0.0248 -0.1844 -0.1146
84713W        W27766   2.941  23.791   9.014 -0.1256 -0.1451  0.0043
84714W        W27767  14.187  32.267   3.407 -0.0300 -0.3334 -0.1894
84715W        W27768  19.339  25.187   1.045  0.2228 -0.2345 -0.0523
84716W        W27769  15.746   4.076   7.557 -0.0378 -0.2992  0.3076
84717W        W27770  25.447  13.629  24.109 -0.1021  0.1433  0.2510
84718W        W27771   5.378  30.072   1.050 -0.1966 -0.4585  0.2811
84719W        W27772   2.281  16.035  26.941  0.1310  0.3438  0.1203
84720W        W27773  33.457  16.926  21.284 -0.1873  0.0962 -0.2314
84721W        W27774  34.573   0.898  20.767 -0.3965 -0.1208  0.1377
84722W        W27775  16.607  31.236  24.067 -0.1101  0.1332  0.0935
84723W        W27776   9.360  32.629  24.004  0.0431 -0.0983  0.0785
84724W        W27777  13.095  30.775   0.145  0.2769  0.0233 -0.0272
84725W        W27778  14.435   1.260  27.669 -0.3172  0.0002  0.1115
84726W        W27779  18.423  19.692   1.911 -0.0318 -0.1373  0.1914
84727W        W27780  10.517   4.323  21.697  0.0690 -0.1855 -0.0503
84728W        W27781   6.716  29.708   5.485  0.1103  0.0427 -0.3328
84729W        W27782  14.680   6.727  16.651  0.1340  0.3551 -0.0482
84730W        W27783   9.616   4.253  18.172  0.0124 -0.0489  0.1198
84731W        W27784  16.528  17.139   8.247  0.0716  0.0674  0.1557
84732W        W27785  12.151  21.025   0.439 -0.0207  0.0446  0.0416
84733W        W27786  18.533   0.008   7.027 -0.0685  0.1553 -0.2256
84734W        W27787   6.568  22.828   6.551  0.0167 -0.0416 -0.0489
84735W        W27788   7.975   0.480   9.978 -0.0244 -0.1488  0.0653
84736W        W27789  31.547  21.090  23.967  0.0984  0.1508  0.1369
84737W        W27790   5.138  27.816  23.727  0.1627  0.0548 -0.4684
84738W        W27791   0.747   4.085  10.266 -0.0460  0.3970  0.0976
84739W        W27792  16.126  10.984  28.427  0.0744  0.0166  0.0927
84740W        W27793  26.010  32.840   6.398  0.1509 -0.1105 -0.1571
84741W        W27794   8.106  17.675  19.955  0.1503 -0.0249  0.0646
84742W        W27795  34.280  21.186  29.010 -0.0348  0.0162 -0.0224
84743W        W27796  26.169  30.389   5.911  0.1205  0.1816  0.0767
84744W        W27797   5.073  29.975   7.198 -0.2128  0.3103 -0.2099
84745W        W27798  15.581   2.832   7.347 -0.2695  0.0378  0.0052
84746W        W27799  13.485  33.489   1.601  0.0380 -0.1472  0.3394
84747W        W27800  31.235   1.096   6.464 -0.0054 -0.0315 -0.0375
84748W        W27801   6.288  28.254   7.701 -0.1205  0.0690  0.0282
84749W        W27802   5.943  34.118  28.794 -0.0670  0.1086 -0.0381
84750W        W27803  23.670  16.706   2.685 -0.0440  0.0686  0.2579
84751W        W27804  20.919  20.167  24.573  0.1734 -0.0838 -0.0932
84752W        W27805  14.896  27.632  26.218 -0.1485 -0.0775  0.0763
84753W        W27806  10.630  29.180  28.843 -0.0432 -0.2909  0.3206
84754W        W27807   0.242  17.357   0.120 -0.1587 -0.2449 -0.4258
84755W        W27808   7.194  19.058   2.537 -0.3542  0.3344 -0.0598
84756W        W27809   8.844  30.387  20.244  0.0375 -0.1132  0.1000
84757W        W27810  14.350   7.539  23.101  0.1163 -0.1316  0.1940
84758W        W27811  11.480  26.059  20.633 -0.3371 -0.1129  0.2491
84759W        W27812  22.151  22.008   6.811  0.0467 -0.1033 -0.0494
84760W        W27813  29.616   2.810  22.019  0.3997 -0.1292 -0.1286
84761W        W27814   4.507   3.585   4.572 -0.3587  0.1216  0.1319
84762W        W27815   6.984  32.976   3.546 -0.0975 -0.2846 -0.0454
84763W        W27816   7.020  20.318  27.137 -0.1361  0.1128 -0.4955
84764W        W27817  28.598  31.895  25.613 -0.1665  0.1448  0.2462
84765W        W27818   2.895   4.804  27.248  0.0493 -0.1337 -0.0433
84766W        W27819  14.141  28.177  17.154 -0.1217 -0.0488 -0.0260
84767W        W27820   3.694  32.672  27.348 -0.0528 -0.2759 -0.1444
84768W        W27821  14.744  20.419   9.559 -0.2873  0.0156 -0.0455
84769W        W27822  13.275  30.122  26.982 -0.2885  0.2270  0.0617
84770W        W27823   8.100   4.598   0.269  0.4474 -0.0835 -0.0746
84771W        W27824   9.051   3.389  14.245 -0.1122  0.2383  0.1517
84772W        W27825   9.961  28.676   4.021  0.0454  0.1289  0.0399
84773W        W27826   3.919  24.841   6.206 -0.0435 -0.1201  0.1820
84774W        W27827   0.632  14.553   7.176 -0.2297  0.1431  0.1043
84775W        W27828  15.762  26.583  10.324  0.0833 -0.0689  0.6133
84776W        W27829   2.778  22.294   2.362 -0.0733  0.0668 -0.1631
84777W        W27830   1.653   8.301   5.813 -0.1425  0.0414  0.0183
84778W        W27831   2.372  28.184  23.708 -0.0783 -0.1891  0.1273
84779W        W27832  13.771   1.555   1.182  0.0956 -0.4827 -0.1213
84780W        W27833  29.212  14.979  28.500  0.2822  0.0956  0.0842
84781W        W27834   8.659  32.429   1.684 -0.0253 -0.2548 -0.0593
84782W        W27835  18.769  21.463  27.804  0.0036  0.1179  0.1423
84783W        W27836   9.670  29.525   7.544  0.3344 -0.5104 -0.2803
84784W        W27837  29.418  24.606   8.564  0.1042  0.2399  0.0173
84785W        W27838   6.680  25.621   4.057 -0.1241 -0.0830  0.0614
84786W        W27839   9.701   6.322   4.096  0.2070 -0.3889 -0.1221
84787W        W27840  16.044  26.156  27.403  0.1720 -0.0788  0.0593
84788W        W27841  27.434  32.173  15.862 -0.5020  0.1152  0.0173
84789W        W27842   5.602  33.056   0.877  0.1422 -0.1919 -0.1506
84790W        W27843   8.573  22.358   5.393 -0.0583  0.1672  0.0110
84791W        W27844  22.154  15.710  25.407  0.3728  0.0421  0.0177
84792W        W27845   7.610  16.689   9.273 -0.3062 -0.0918 -0.2752
84793W        W27846   2.606   5.074   4.983  0.1141  0.0306  0.0016
84794W        W27847   8.706  17.543   3.236 -0.2850  0.1111 -0.0495
84795W        W27848   1.610   5.130   7.543  0.1556 -0.2536 -0.1534
84796W        W27849  11.695  29.748  24.224  0.0736 -0.1013  0.1726
84797W        W27850  11.917  24.472   8.847 -0.1696 -0.1162 -0.1477
84798W        W27851  30.414   7.711   2.981 -0.2106  0.1197 -0.2412
84799W        W27852   3.111  33.391  22.030  0.0232  0.0143 -0.0625
84800W        W27853  11.391  22.541   8.248  0.1026 -0.1060 -0.0906
84801W        W27854  16.943  15.934  14.021  0.3175  0.1296 -0.0978
84802W        W27855  17.154  30.661   2.224 -0.0437  0.0872 -0.3632
84803W        W27856  25.292  23.791   9.101 -0.2858 -0.3437 -0.0092
84804W        W27857   8.364  14.591   2.281 -0.0179 -0.1398  0.1222
84805W        W27858   6.247  16.624   6.673 -0.0881 -0.2258  0.0129
84806W        W27859  26.026   2.972  14.417 -0.5543 -0.0314  0.1753
84807W        W27860  31.810   0.764  17.743  0.2101 -0.0210 -0.3818
84808W        W27861  26.552   9.255   6.984  0.0832 -0.0839  0.2122
84809W        W27862  10.120  28.654  29.047 -0.0005  0.0031  0.2742
84810W        W27863   2.916  22.514  22.547  0.1380  0.0936  0.0063
84811W        W27864  12.038  16.582  21.917  0.0570 -0.0856 -0.0996
84812W        W27865  21.323  33.977   0.821  0.0237  0.2074 -0.0381
84813W        W27866   6.716  22.369  21.401 -0.3783 -0.1664  0.2118
84814W        W27867   4.882   4.771   6.903 -0.1368 -0.0771  0.0867
84815W        W27868  14.729   4.095  15.764  0.2265 -0.0713  0.0565
84816W        W27869   2.472  10.394   1.213  0.0317  0.0831 -0.2359
84817W        W27870  27.384  33.689   6.267  0.1046  0.2163 -0.3220
84818W        W27871   2.900  33.329   4.541 -0.0753 -0.0162 -0.1607
84819W        W27872   4.078  15.126   5.512  0.0049  0.0904  0.0552
84820W        W27873   2.142  27.169   4.387  0.3262 -0.0310  0.2351
84821W        W27874   1.563  34.091  18.444 -0.3431 -0.1916 -0.1746
84822W        W27875   9.448   4.563   6.726  0.2715  0.2226 -0.0545
84823W        W27876   9.297   2.562  22.824  0.1727  0.0307 -0.2532
84824W        W27877   3.104  28.954   5.526  0.0610 -0.2125  0.1569
84825W        W27878  29.224  10.835   4.077 -0.1021 -0.1677  0.3059
84826W        W27879  11.414  28.074  20.835  0.1725 -0.3868 -0.1128
84827W        W27880   2.325  28.696   4.514  0.0575  0.0804 -0.2492
84828W        W27881  19.925   0.830  27.614 -0.1923 -0.1341 -0.0852
84829W        W27882   3.485  11.649   3.976 -0.0122 -0.1040 -0.1817
84830W        W27883   5.899  33.219   2.829  0.2007  0.3468 -0.1247
84831W        W27884   6.884  24.636  18.769 -0.2791 -0.0189 -0.1966
84832W        W27885  10.718  29.476   7.392 -0.4126 -0.0917  0.1476
84833W        W27886  25.292   5.320  28.316  0.1021  0.2570 -0.0353
84834W        W27887  22.912  34.668  10.215 -0.1559 -0.0897 -0.1464
84835W        W27888  25.745  21.567  15.117 -0.0021  0.1506 -0.2725
84836W        W27889  20.715  23.835   2.654  0.0845  0.0799  0.0723
84837W        W27890  14.922  28.512   8.921  0.1874 -0.0683  0.2042
84838W        W27891   4.451   2.566   5.683  0.1630 -0.1858 -0.0095
84839W        W27892  12.838  13.548  26.564  0.0105  0.0654  0.2637
84840W        W27893  29.687   4.578   9.964  0.1421  0.0126 -0.0322
84841W        W27894   8.592  31.721   9.875 -0.0938 -0.1997 -0.0072
84842W        W27895   4.864  11.510   2.613  0.1797 -0.1242  0.2714
84843W        W27896   5.960  13.907   8.694  0.0380  0.3489 -0.1225
84844W        W27897  27.307   5.759   2.823  0.1072  0.0267  0.1179
84845W        W27898  31.896   3.060   2.233  0.0150  0.1265  0.1117
84846W        W27899  22.569  24.783   6.887  0.2406  0.0272 -0.0390
84847W        W27900  23.546  10.598  22.413  0.1875  0.2304 -0.0581
84848W        W27901   6.653  29.108   0.640 -0.0170 -0.3771  0.3383
84849W        W27902  11.045  11.125   7.101 -0.0131  0.2257  0.0812
84850W        W27903   2.439  30.515  24.870  0.2924 -0.2050  0.1927
84851W        W27904   1.691   0.333   1.159 -0.2003  0.4111 -0.0625
84852W        W27905  31.719   5.998  27.422 -0.0875  0.1702 -0.1876
84853W        W27906  11.543   2.047   5.001 -0.1386 -0.3614 -0.1678
84854W        W27907  29.803   2.532  10.061  0.0349  0.2380 -0.1618
84855W        W27908  33.807  27.752   8.638 -0.0974  0.0949 -0.0780
84856W        W27909   1.362  14.037  24.549 -0.2472 -0.1934 -0.1812
84857W        W27910  12.781  30.575  26.975 -0.2007  0.0070 -0.0386
84858W        W27911   3.587  32.546  19.160  0.1747 -0.0740  0.1769
84859W        W27912  21.703   2.767   9.753 -0.0615  0.1190  0.2726
84860W        W27913   3.988  26.167   5.849  0.3350 -0.0471 -0.3392
84861W        W27914   7.826  15.607   7.172  0.0611 -0.2236  0.1582
84862W        W27915   8.943  27.764  22.241 -0.1283 -0.1013  0.2794
84863W        W27916  10.307   2.678   9.241 -0.1744 -0.1432  0.1191
84864W        W27917   8.478   9.333  10.398 -0.0116 -0.3067  0.0505
84865W        W27918  15.212  18.760   3.959 -0.2377 -0.1400  0.1391
84866W        W27919   1.393   7.754  23.979  0.0994 -0.0737 -0.1427
84867W        W27920  15.129   0.603   7.720  0.2378  0.1156  0.2087
84868W        W27921  13.780  22.173  19.168 -0.0855 -0.2167  0.2201
84869W        W27922  16.360  22.534   7.736 -0.1590  0.0825 -0.1974
84870W        W27923  17.514  34.305  28.224  0.1421  0.2984  0.1020
84871W        W27924   6.661  26.015  23.938 -0.2910  0.1789  0.0604
84872W        W27925  14.226  27.489   0.471 -0.1049 -0.0128 -0.0786
84873W        W27926  22.029  30.963  10.225  0.0138 -0.1496 -0.0491
84874W        W27927  13.331   3.674   4.202  0.1781  0.1611  0.2338
84875W        W27928  33.525  34.372  21.380  0.2522  0.1183  0.1878
84876W        W27929  11.465  32.179  23.599  0.2528  0.0339  0.0374
84877W        W27930  14.062  14.388   1.754 -0.2300 -0.0292  0.0212
84878W        W27931  31.827  30.096   0.985  0.2183  0.0682  0.0710
84879W        W27932  20.913  21.849  27.634  0.2272 -0.0325  0.1616
84880W        W27933   1.821  20.314  27.665  0.2342  0.1526  0.1145
84881W        W27934  15.946  19.751   8.867 -0.1853  0.4683 -0.2570
84882W        W27935  11.043  29.773  27.849 -0.0070 -0.1200  0.1844
84883W        W27936  17.742   6.463  25.831 -0.1156  0.1268  0.0311
84884W        W27937   6.681  34.054   3.678 -0.0072  0.0033 -0.0385
84885W        W27938  17.114  24.098  24.927 -0.2584  0.3350 -0.1212
84886W        W27939  14.105  27.649   8.898 -0.0907  0.3715 -0.2474
84887W        W27940   5.350  17.820  25.010 -0.1875 -0.1540  0.3280
84888W        W27941   3.241  30.125   3.010 -0.0319 -0.1372 -0.0802
84889W        W27942   7.011  15.978  27.287 -0.0745  0.2552  0.0850
84890W        W27943  30.941  24.539   4.048  0.1566 -0.1156 -0.1546
84891W        W27944  13.424  19.600  10.423  0.1033 -0.0031  0.1699
84892W        W27945  12.612  30.219  24.310  0.3317  0.3185  0.3174
84893W        W27946  14.334  29.856   6.386  0.1381  0.1034  0.1395
84894W        W27947   8.898  29.069   2.832  0.0616  0.1902  0.1108
84895W        W27948   3.422  32.473  25.763  0.6988 -0.0442 -0.0412
84896W        W27949   7.017   6.015  10.146  0.1815  0.2841 -0.2008
84897W        W27950  10.826   4.429  21.218 -0.3353  0.2497  0.0012
84898W        W27951  15.169  25.722   5.188 -0.1167 -0.4018  0.0991
84899W        W27952   2.147  21.855  24.258  0.0117 -0.0128 -0.3046
84900W        W27953  24.740  17.507   6.216 -0.2713 -0.0635  0.1573
84901W        W27954  14.255  24.102   4.342 -0.1278 -0.2572 -0.4941
84902W        W27955   9.110  24.906  20.529 -0.2404 -0.1827  0.0777
84903W        W27956   7.518  23.920  20.747  0.0042 -0.4565  0.4524
84904W        W27957  21.411  19.863   7.160 -0.0274  0.0008  0.1889
84905W        W27958   5.408  21.903  23.353  0.0091  0.0060 -0.1962
84906W        W27959  15.650   0.438  21.608 -0.0489 -0.2215  0.1285
84907W        W27960  10.984  16.990  22.032  0.0846 -0.1059 -0.2665
84908W        W27961   0.941  12.092   3.251  0.1223  0.0959 -0.1215
84909W        W27962   0.120  26.250   9.114 -0.0495  0.2079  0.0560
84910W        W27963  14.747   1.820   1.558 -0.0670  0.2674  0.2151
84911W        W27964  12.627  32.816  25.975  0.0097 -0.3136 -0.0335
84912W        W27965  13.399   1.445  27.221  0.2329 -0.1062 -0.0139
84913W        W27966  12.733  30.800  15.327 -0.2167  0.0868 -0.0013
84914W        W27967  33.191  31.593   3.476 -0.1370 -0.1013 -0.0550
84915W        W27968   3.835  12.747  20.182 -0.2114 -0.0037 -0.1943
84916W        W27969  33.665  29.812   6.187  0.0660 -0.0057 -0.1799
84917W        W27970  26.945   2.489   4.985 -0.1266 -0.1369  0.2246
84918W        W27971  14.251  20.154   3.090 -0.1912  0.0635  0.1652
84919W        W27972  17.199  33.873   8.873 -0.0449 -0.0906  0.1083
84920W        W27973   7.732  26.400  20.174  0.2910  0.0736  0.2142
84921W        W27974  23.215  17.415  27.001  0.1354 -0.0576 -0.0900
84922W        W27975  13.749  30.781   7.059 -0.1269 -0.0337  0.0699
84923W        W27976  13.672  26.750   1.838 -0.0345 -0.1226  0.2484
84924W        W27977  10.489  22.939  18.216 -0.0304  0.0574  0.1147
84925W        W27978  21.183  32.087   3.332  0.1411 -0.0466  0.0903
84926W        W27979  13.701  23.190  24.641 -0.0963  0.2289 -0.4865
84927W        W27980   6.292   9.813   2.654 -0.0524 -0.0426  0.1073
84928W        W27981   5.039  26.135   7.622  0.0555  0.3713  0.1098
84929W        W27982   7.508   8.521   9.002  0.3588 -0.3410  0.2475
84930W        W27983  29.621  12.334   0.748  0.1368 -0.3198  0.0156
84931W        W27984  14.324  30.088   9.519  0.1147 -0.0267  0.0701
84932W        W27985  12.510  23.846  25.150  0.1047 -0.2885  0.0552
84933W        W27986  27.757  28.929  27.119 -0.0242 -0.0276  0.4362
84934W        W27987  15.562   7.702   8.479 -0.3874 -0.0269 -0.1238
84935W        W27988  12.660  13.611   1.417  0.1241  0.2278 -0.0699
84936W        W27989   4.151  19.872   3.626  0.0778 -0.0841  0.1512
84937W        W27990  12.578  15.730   2.985 -0.3510 -0.0372 -0.0464
84938W        W27991  26.721  31.066   9.603 -0.1058  0.1836  0.0785
84939W        W27992  13.036  24.045  25.691  0.0376  0.0035 -0.1181
84940W        W27993   4.670   5.441  20.948 -0.1326  0.0924  0.0492
84941W        W27994  18.015   4.988   7.064  0.1001 -0.0208 -0.1061
84942W        W27995   6.238  29.742  19.019  0.1117 -0.2110  0.0468
84943W        W27996   2.467  30.154   9.084  0.3024 -0.1348 -0.3381
84944W        W27997   6.577  17.509   8.683 -0.1724 -0.2844  0.1369
84945W        W27998  10.112  20.028  29.186  0.1278  0.2215 -0.0497
84946W        W27999  30.440  29.298   3.494  0.0222 -0.0708 -0.0840
84947W        W28000   0.418  23.895  25.742  0.0709 -0.0200  0.1334
84948W        W28001  32.368   7.984  27.142  0.0833 -0.4443  0.0677
84949W        W28002   4.594  29.153   8.653  0.2172  0.1273 -0.3222
84950W        W28003  19.761  33.616   7.187  0.1239 -0.1544  0.4582
84951W        W28004   9.926  17.956   3.950 -0.1376  0.2008  0.0365
84952W        W28005  15.062  34.322   0.842  0.0697 -0.2351 -0.1022
84953W        W28006   1.998  17.925  22.432 -0.1066 -0.1900 -0.0697
84954W        W28007   8.081  19.745   9.351 -0.2550 -0.1043  0.0299
84955W        W28008  11.366   0.932  18.828  0.0626  0.3032  0.0267
84956W        W28009  10.402   0.093   7.096 -0.3617 -0.0535 -0.1268
84957W        W28010  29.703  33.081   4.129 -0.2198  0.2346  0.3098
84958W        W28011  24.605   2.410   5.907  0.2009 -0.0110 -0.1135
84959W        W28012   0.500  16.386  27.141  0.1798  0.0870  0.0773
84960W        W28013  13.560  30.535  25.319 -0.1633  0.0086  0.1919
84961W        W28014   4.195  19.459  18.459  0.3048 -0.1412 -0.1581
84962W        W28015  31.831   4.914   5.819  0.2061  0.0940 -0.1639
84963W        W28016   3.934  16.181   1.905 -0.4283 -0.0968 -0.3231
84964W        W28017  33.953   8.578   2.246  0.1888 -0.3609 -0.0997
84965W        W28018  11.010  12.731  26.267  0.2237  0.0039  0.3249
84966W        W28019   0.311   1.952   4.077  0.2684  0.0096  0.0502
84967W        W28020  19.532  23.672  24.112  0.0119 -0.1276  0.0295
84968W        W28021  14.752  31.917   1.342 -0.2424  0.7216 -0.1332
84969W        W28022   9.750  18.388   6.813 -0.0429  0.0917 -0.2087
84970W        W28023  14.356  31.112   8.801 -0.1443 -0.1841  0.1255
84971W        W28024  12.558   1.101  24.403  0.1795 -0.0836  0.2384
84972W        W28025  18.561  21.982  28.023  0.1915  0.2216  0.0963
84973W        W28026   3.910  26.606   6.410 -0.0359 -0.1023  0.1338
84974W        W28027  13.147  13.025  25.128 -0.0989  0.1536 -0.1625
84975W        W28028  17.038   2.546   1.716  0.0835 -0.2052  0.0777
84976W        W28029  13.453  21.864   7.419 -0.2321 -0.2983  0.0997
84977W        W28030   9.524  17.606   4.086  0.2111 -0.1319  0.1814
84978W        W28031   8.588   3.704   6.529  0.1021  0.6634 -0.1748
84979W        W28032   6.371  32.346   8.615 -0.0344  0.0942  0.3863
84980W        W28033   8.593  29.515  13.708 -0.0380 -0.1568 -0.0180
84981W        W28034   4.613  27.092   4.474 -0.1943  0.3081  0.1288
84982W        W28035   6.676  31.680   1.693  0.1520  0.1975 -0.0862
84983W        W28036   8.661  16.701   3.791  0.3455 -0.0695  0.0855
84984W        W28037  14.280  29.611   9.217 -0.2029  0.1796 -0.0544
84985W        W28038   6.960  33.736   7.586  0.0914 -0.1940 -0.1891
84986W        W28039   8.621  32.474   6.682 -0.0365 -0.0577 -0.1457
84987W        W28040  22.965   2.043   3.513  0.0786  0.3937 -0.2084
84988W        W28041  24.233  29.134   6.639  0.0631  0.2103  0.1509
84989W        W28042   6.587  31.741   7.183  0.1189 -0.1526  0.2326
84990W        W28043   5.595   5.099   9.743 -0.2648  0.0422  0.1154
84991W        W28044   4.272  28.076  26.268  0.1760  0.0866  0.2275
84992W        W28045  30.433  24.286  17.438 -0.1250  0.7160  0.0091
84993W        W28046  33.931  19.200  14.385  0.1384 -0.1445 -0.1118
84994W        W28047  32.928  21.068  20.250 -0.3468 -0.1271  0.1312
84995W        W28048  19.543  29.034   2.761 -0.0754  0.1103  0.1962
84996W        W28049   6.827  26.453  28.987 -0.3297 -0.0345  0.0348
84997W        W28050   4.249   1.319  24.190  0.0407  0.1282 -0.0528
84998W        W28051  30.788  14.860  29.070 -0.1407  0.2566 -0.0372
84999W        W28052  28.808  17.011  10.005  0.1007 -0.3449  0.0820
85000W        W28053  21.361  27.213   0.027  0.2655  0.2254  0.0649
85001W        W28054  28.049   3.018   6.862 -0.0254  0.2923  0.3290
85002W        W28055  30.563  19.512  27.847  0.0346 -0.0539 -0.1484
85003W        W28056  12.281  26.347   5.743 -0.1725 -0.1322 -0.4550
85004W        W28057  17.140  28.913   6.710 -0.1999 -0.1820 -0.0957
85005W        W28058  17.785  32.013  10.335 -0.1005 -0.0191  0.0225
85006W        W28059  11.141  12.785   7.434  0.0768 -0.1686 -0.0639
85007W        W28060  21.140  29.097   1.570 -0.2522 -0.0948 -0.2683
85008W        W28061   6.762  30.630   7.828  0.3326  0.0527 -0.2065
85009W        W28062  12.042  17.357   4.743  0.0766  0.0349 -0.1026
85010W        W28063  20.052  31.304  27.455 -0.1223 -0.0064  0.0731
85011W        W28064  20.056  31.764   3.128  0.0070  0.1917 -0.1599
85012W        W28065   6.259  29.567   5.670 -0.2747  0.0192  0.0555
85013W        W28066  12.498  24.576   6.945 -0.0751  0.4361 -0.1192
85014W        W28067  27.641  29.474  23.356  0.0827 -0.0839  0.0293
85015W        W28068  11.810   4.079  24.864  0.0920  0.0687 -0.1255
85016W        W28069  11.099  31.443   8.509  0.1390  0.0375  0.0567
85017W        W28070  16.112  27.846   7.749  0.3849  0.2286 -0.0373
85018W        W28071   3.497  29.946  17.045 -0.3259 -0.2380  0.0909
85019W        W28072   4.980  23.802  29.200  0.2614 -0.0350 -0.1653
85020W        W28073  19.642  19.163  25.547 -0.4124 -0.3068  0.1882
85021W        W28074  11.754   7.023  27.070  0.4558 -0.3225 -0.3831
85022W        W28075  23.320   0.022  24.446 -0.2246 -0.1686 -0.0242
85023W        W28076   3.480  18.781   6.245  0.3664  0.1925 -0.2007
85024W        W28077   1.910  29.930  16.886 -0.1332  0.2746  0.0157
85025W        W28078  10.370  15.687  19.788  0.2039 -0.3492  0.0743
85026W        W28079   4.697  31.084  28.852  0.1930  0.1689 -0.0507
85027W        W28080  14.870  29.232  28.316 -0.0334  0.0187 -0.0745
85028W        W28081   5.669  22.235  24.244 -0.1509 -0.2878  0.3234
85029W        W28082   3.118  18.941  23.388  0.2093 -0.0747  0.2805
85030W        W28083  11.785  18.867   4.228 -0.1982 -0.1028 -0.3203
85031W        W28084  12.455  24.297   4.015 -0.1585  0.0958  0.2042
85032W        W28085   7.179  22.552   3.642 -0.1779  0.0816  0.1838
85033W        W28086  17.414  25.620   3.731  0.2179  0.1460  0.1183
85034W        W28087  20.821  28.408   6.746  0.0120 -0.4934 -0.0182
85035W        W28088  28.407  25.076   0.322  0.0086 -0.1166  0.1058
85036W        W28089  19.472  34.389  28.485  0.1554 -0.3101 -0.2046
85037W        W28090  16.804  16.072   7.912 -0.1220  0.0156 -0.1354
85038W        W28091   9.876  19.355   8.250 -0.1723  0.2027 -0.3507
85039W        W28092   9.240  20.145   3.617  0.2407 -0.0821  0.5165
85040W        W28093  27.086   3.578   3.755 -0.0257  0.2076 -0.1490
85041W        W28094  21.669   1.244  24.392 -0.0977 -0.0885 -0.3423
85042W        W28095  13.261  15.521  28.894  0.2975  0.0190  0.2285
85043W        W28096  11.249   0.860   6.532 -0.0333 -0.1152  0.0424
85044W        W28097  13.182  24.882   9.910  0.1258  0.4173  0.0568
85045W        W28098  19.313  20.014   3.681 -0.2123 -0.1496 -0.0082
85046W        W28099  21.480  30.817  28.217 -0.2051 -0.0258 -0.0789
85047W        W28100   3.741   0.820  27.755 -0.3267  0.0187  0.0962
85048W        W28101  21.838  32.386   0.237  0.0689 -0.0397  0.0688
85049W        W28102   0.014  11.821  28.424  0.2624 -0.3294  0.0333
85050W        W28103  27.660   1.887   2.447  0.2110  0.2899 -0.0374
85051W        W28104  34.226   1.827   1.821  0.0409 -0.2553  0.0584
85052W        W28105   3.752  24.744  28.170 -0.3350  0.2694  0.0154
85053W        W28106  12.511  24.180   0.229 -0.4450  0.2371  0.4486
85054W        W28107  20.848  22.294  27.417 -0.1359  0.1232  0.2734
85055W        W28108  10.500  31.805  25.906  0.0912 -0.2575 -0.0930
85056W        W28109   0.397  25.586   0.480  0.2470  0.0861 -0.1380
85057W        W28110  14.095  15.794  17.329  0.0126  0.2350  0.1253
85058W        W28111  29.445   6.554  25.508 -0.1847  0.1530  0.1832
85059W        W28112  18.213   0.567   9.696 -0.2138  0.0354  0.2062
85060W        W28113   7.638  27.087  27.541 -0.1585  0.2911  0.2280
85061W        W28114  24.058  19.827   7.508 -0.0223 -0.0265  0.0626
85062W        W28115  27.761  11.819   6.546 -0.0988 -0.2669 -0.0077
85063W        W28116   3.913  25.357   0.467 -0.0658 -0.0364 -0.1030
85064W        W28117  13.204  20.289   8.404 -0.1613 -0.0279 -0.2958
85065W        W28118   1.410   6.745  24.284  0.0102 -0.0925  0.1545
85066W        W28119   9.202  27.695   6.379 -0.0946 -0.1841 -0.4454
85067W        W28120   0.363  20.858  20.806  0.1862  0.0788  0.0790
85068W        W28121  11.923  32.458  28.496 -0.1434 -0.0458 -0.1112
85069W        W28122   4.127  21.866  27.556 -0.0168 -0.1311 -0.0349
85070W        W28123  17.576  19.800  27.840  0.4120 -0.2458 -0.0188
85071W        W28124  29.440   8.092  28.012 -0.0011  0.1175 -0.2161
85072W        W28125  29.650  25.492   5.620 -0.4692 -0.0447  0.1695
85073W        W28126   3.567   4.735   1.014 -0.0537 -0.2387  0.1375
85074W        W28127  24.514  24.861  10.102  0.0185 -0.0024  0.0749
85075W        W28128   7.513  28.052   7.902 -0.0573  0.1068  0.0847
85076W        W28129  30.893  10.055   3.890 -0.2428  0.0668  0.1664
85077W        W28130  14.985  26.355   4.577 -0.2854 -0.3588  0.1318
85078W        W28131   7.338   8.785  16.338  0.1592 -0.2005  0.1610
85079W        W28132  15.368   6.753  25.895 -0.4365 -0.2470  0.1553
85080W        W28133  12.846  20.822  27.101  0.0852  0.2150  0.0303
85081W        W28134   6.657  23.449   3.717  0.0864 -0.3724  0.2698
85082W        W28135   2.578  32.337   7.424 -0.1021  0.0073 -0.0107
85083W        W28136   5.160  28.390   5.967  0.4925 -0.4794 -0.1509
85084W        W28137  30.048  31.262   1.583  0.1477 -0.0949 -0.0312
85085W        W28138  31.068  24.738  18.030 -0.0740  0.0462  0.1242
85086W        W28139  13.541   8.835  24.693  0.3254  0.1442  0.0440
85087W        W28140  11.934   5.743   9.307 -0.0667 -0.1489  0.0766
85088W        W28141  12.468  21.273   3.469 -0.0682  0.1556  0.0605
85089W        W28142   7.154  27.452   2.723 -0.2085 -0.0109  0.0426
85090W        W28143  19.692  30.653   1.928  0.3374  0.1801  0.1706
85091W        W28144   9.793   1.766   8.210 -0.0944  0.0394  0.2684
85092W        W28145  14.436  34.421  27.478  0.1562 -0.0927  0.0723
85093W        W28146  31.036  27.565   8.458 -0.0419 -0.2412 -0.1084
85094W        W28147  27.635  24.064   9.206 -0.4309 -0.0683  0.1748
85095W        W28148   6.292  23.816   2.746  0.1750 -0.0480 -0.3539
85096W        W28149  32.242  26.632  28.828  0.2605 -0.0567  0.1109
85097W        W28150   5.817  13.432   8.772 -0.0551  0.1994 -0.1298
85098W        W28151  15.549  20.778   5.743  0.2818  0.0641  0.1517
85099W        W28152  22.262  27.076  25.827 -0.2169 -0.0895  0.0609
85100W        W28153  12.326  26.846   3.898  0.0146 -0.3831 -0.0451
85101W        W28154   4.730  15.767  25.541 -0.1596  0.2061  0.3525
85102W        W28155  21.035  33.453  26.427  0.0295 -0.1746  0.3299
85103W        W28156  20.143  14.434  24.936  0.0599 -0.3584  0.0699
85104W        W28157   5.667   0.771  18.674 -0.0664  0.1023  0.0002
85105W        W28158  29.598  30.959  25.816 -0.0659  0.0606  0.2324
85106W        W28159   0.402  11.216  14.843 -0.0781  0.0867  0.0116
85107W        W28160   9.062  27.774   1.952  0.0884 -0.0173  0.1192
85108W        W28161  33.786  28.022  23.830  0.0385 -0.0436  0.5193
85109W        W28162  26.666  21.723  26.247  0.2510 -0.5653  0.1434
85110W        W28163  33.587  25.268   6.315  0.4900  0.1855 -0.0574
85111W        W28164  34.116  23.807   5.606  0.1461  0.1860  0.0277
85112W        W28165  12.172  22.532   1.020 -0.0955 -0.0351  0.1530
85113W        W28166  15.458  20.844  28.926 -0.0376  0.1571  0.2466
85114W        W28167  21.893  28.243  25.792  0.2366 -0.4262 -0.2271
85115W        W28168  13.475  16.575   1.800 -0.0594 -0.2982 -0.1218
85116W        W28169  19.335  20.863   4.231  0.0671 -0.2292  0.1101
85117W        W28170  15.405  12.536   9.538 -0.1965 -0.0404 -0.1109
85118W        W28171   1.534  17.966   1.402  0.3160 -0.0460  0.2401
85119W        W28172  18.894  24.857   6.030 -0.0878  0.2034 -0.0603
85120W        W28173  34.428  11.809   1.651 -0.3660 -0.0566  0.2622
85121W        W28174   6.406   1.227  23.922 -0.1664 -0.2107 -0.2063
85122W        W28175   3.815   6.766  19.895  0.0378 -0.0708 -0.2180
85123W        W28176   1.774  29.761  15.330  0.1816 -0.2103 -0.2613
85124W        W28177   2.258  32.899   8.701  0.1283  0.0249 -0.2917
85125W        W28178  14.182   3.589   8.520 -0.2553  0.1188 -0.0015
85126W        W28179  26.278  32.461  27.239 -0.1091 -0.2322 -0.0446
85127W        W28180  34.654  13.609  27.460  0.2228 -0.0485 -0.3659
85128W        W28181  21.897  25.719   9.105  0.4042  0.2704  0.0907
85129W        W28182  19.886  31.332  23.165  0.0229  0.0189  0.3901
85130W        W28183   4.988  34.560   8.682 -0.0855 -0.0092  0.3221
85131W        W28184  24.423  33.719  10.879  0.1121 -0.0487 -0.1264
85132W        W28185   5.980  28.340   0.624  0.0758 -0.3727  0.1691
85133W        W28186  24.439   7.101   0.383 -0.4282  0.1359 -0.1755
85134W        W28187  28.069   4.138  17.597  0.0311  0.2893 -0.0854
85135W        W28188   7.014  22.135  14.069  0.0033  0.0497 -0.3031
85136W        W28189  11.848  23.484   7.099  0.0582 -0.0002 -0.0994
85137W        W28190   0.509  26.063   9.319 -0.0253 -0.0116 -0.1261
85138W        W28191  13.113  33.524   5.317  0.0994  0.0963 -0.1047
85139W        W28192  26.757   1.023  26.659  0.0522  0.0748 -0.1701
85140W        W28193   8.057  28.627   7.458 -0.1485 -0.0556  0.1373
85141W        W28194  10.656  25.495   7.132  0.5311 -0.0733  0.0596
85142W        W28195  22.000  32.889   5.981 -0.2876  0.1285 -0.1290
85143W        W28196  10.721  22.231   0.708 -0.0524  0.0597 -0.3939
85144W        W28197  10.303  24.604   4.480 -0.0099  0.0720 -0.0689
85145W        W28198  29.644  21.322   2.727 -0.2616 -0.0899 -0.0472
85146W        W28199  17.404  13.056   8.246  0.2260 -0.2871 -0.2313
85147W        W28200  30.932   6.739   4.717  0.1001 -0.1645 -0.4028
85148W        W28201   1.968  21.116  26.253  0.1613 -0.3990  0.2252
85149W        W28202  30.665  12.379  20.790 -0.1290  0.1214  0.0550
85150W        W28203   2.628  27.480  16.581 -0.1116  0.1060  0.0268
85151W        W28204  17.180  10.886   3.301  0.3776  0.0885 -0.2909
85152W        W28205  17.260  14.097   0.118  0.0077 -0.2537  0.0955
85153W        W28206  23.159  23.392  28.254  0.2194  0.3832 -0.0531
85154W        W28207  19.296   5.556   5.051 -0.2710  0.1635  0.1418
85155W        W28208  11.738  13.732   8.243 -0.3098  0.2253  0.2319
85156W        W28209   1.838   6.072   8.515  0.0880  0.2033  0.2685
85157W        W28210   8.544  26.764   0.298 -0.1661  0.1596 -0.0675
85158W        W28211  12.091  26.759  26.810 -0.0468  0.4639  0.3322
85159W        W28212  23.676  33.904   8.194 -0.1322  0.1442  0.2558
85160W        W28213  11.658  18.363   5.441  0.0319 -0.0393 -0.2118
85161W        W28214  11.069   3.580  16.871  0.3520 -0.4641 -0.1857
85162W        W28215   3.550  19.229   6.561 -0.2116 -0.0604 -0.1107
85163W        W28216  10.839   4.276   6.191 -0.1632  0.2154  0.4153
85164W        W28217   9.211  28.000   7.814  0.3124  0.0612 -0.2623
85165W        W28218   8.320  29.031   5.822  0.0300 -0.0317  0.0886
85166W        W28219  13.113  21.651   3.500 -0.0075  0.0036  0.0182
85167W        W28220  12.528  21.099   7.488 -0.0237 -0.0733  0.1638
85168W        W28221  11.373  26.091   4.615  0.0429 -0.1558 -0.0129
85169W        W28222  24.008   4.686  26.885 -0.1818 -0.2677 -0.3571
85170W        W28223   4.644  20.981  27.315 -0.1172  0.1476  0.3300
85171W        W28224   9.217   3.327   0.566 -0.1886 -0.0025  0.1205
85172W        W28225   1.451  21.213  15.543 -0.0531 -0.1244 -0.2061
85173W        W28226  23.228   0.618   3.776 -0.0955 -0.0261  0.1598
85174W        W28227  16.217  17.402  28.856  0.0517 -0.0436 -0.0126
85175W        W28228   9.465   6.139   8.353 -0.1115 -0.3403 -0.0623
85176W        W28229  10.549  27.018   6.901  0.1860 -0.0777 -0.1963
85177W        W28230   8.395   2.473  22.589  0.0038  0.0274 -0.3979
85178W        W28231  17.431  18.524   6.303 -0.0219 -0.3710 -0.1150
85179W        W28232  16.030  28.112   3.576 -0.0050 -0.1480 -0.0377
85180W        W28233  12.706  33.441  25.830 -0.1506 -0.2760  0.2036
85181W        W28234  16.109  10.809  22.183  0.1388  0.0428 -0.0300
85182W        W28235   6.311  33.706  13.986 -0.2866 -0.1302  0.0246
85183W        W28236  20.258  22.434   5.304  0.0464 -0.0574  0.3445
85184W        W28237  21.662   0.589  28.347 -0.0892  0.1624  0.1585
85185W        W28238  13.960   3.448   7.442 -0.1610  0.0731 -0.2210
85186W        W28239  20.799  25.164   6.292  0.0466  0.0717 -0.3272
85187W        W28240  14.214  13.254   2.637  0.1866 -0.0328 -0.1784
85188W        W28241  24.582  15.222   1.571  0.1994 -0.0783  0.0971
85189W        W28242   7.296  14.186   7.056  0.2819  0.0008 -0.4371
85190W        W28243  21.773  17.440   5.111  0.2240  0.1515  0.1815
85191W        W28244  30.711  18.558  24.271 -0.1761 -0.3566  0.0291
85192W        W28245  15.409   1.990  18.832  0.3492  0.0293  0.1044
85193W        W28246  32.790   0.829   9.737  0.2211  0.2434 -0.2629
85194W        W28247  10.665  11.675  23.935 -0.1116  0.1101  0.0030
85195W        W28248  11.666   2.536  19.080  0.0066  0.1939 -0.2809
85196W        W28249   9.668   3.313  26.082  0.2501 -0.2152 -0.1881
85197W        W28250  29.323  21.987  28.945 -0.0066 -0.0603 -0.0765
85198W        W28251  11.933  22.817  26.703  0.0873 -0.3910 -0.0549
85199W        W28252  11.150   4.680   7.018  0.0408 -0.0398  0.1183
85200W        W28253   6.834  23.280   8.996  0.2273 -0.1473  0.2285
85201W        W28254  23.018   3.510  15.548  0.0028 -0.1677  0.2667
85202W        W28255  21.417  21.691   9.244  0.0595 -0.1326 -0.2101
85203W        W28256  19.331  11.653   3.773  0.0625  0.0081  0.2973
85204W        W28257   5.094  20.120  26.606  0.3775  0.1485 -0.2458
85205W        W28258  24.426   2.786   7.084 -0.1627 -0.6022 -0.0107
85206W        W28259  12.781   7.849   2.196 -0.1285 -0.0730 -0.1170
85207W        W28260  15.015   1.409   7.046  0.2314  0.0567  0.2310
85208W        W28261  17.536  33.658   0.244  0.0179  0.1327 -0.1039
85209W        W28262  13.906  19.669  27.202  0.2768 -0.2068  0.2322
85210W        W28263  11.615  22.100  28.391 -0.3234 -0.2190  0.0244
85211W        W28264  13.722   3.011   7.550 -0.0465 -0.2116 -0.3838
85212W        W28265  26.995   2.002  18.002  0.1920  0.0197 -0.1856
85213W        W28266  11.702  29.850  22.034  0.0942  0.0644  0.1223
85214W        W28267   5.130  28.422  24.728 -0.1217 -0.0325  0.0475
85215W        W28268   7.013  12.068   9.506  0.4386  0.2663  0.3084
85216W        W28269   6.189  20.928   4.768  0.3956 -0.2153  0.2333
85217W        W28270  14.444  27.393   2.852  0.2462  0.0383  0.2348
85218W        W28271  17.928   4.098   3.517  0.3198  0.0443  0.1635
85219W        W28272  14.085   7.313   2.720 -0.2263  0.0033  0.2523
85220W        W28273  28.239  23.101  22.016 -0.2342  0.0661  0.1386
85221W        W28274  21.687  22.861   9.301  0.2143 -0.1594 -0.2014
85222W        W28275  16.379  27.596  10.604 -0.0767  0.2868 -0.0688
85223W        W28276  32.793  21.294   1.264 -0.0349  0.0306  0.3781
85224W        W28277  13.773  22.523   6.567 -0.1008 -0.2838 -0.0218
85225W        W28278   5.593  26.108  13.914 -0.2155  0.1537 -0.1289
85226W        W28279  30.958  16.706   8.397  0.0331  0.2875 -0.0411
85227W        W28280   1.342  27.336  28.028 -0.1405 -0.0271 -0.1454
85228W        W28281   1.004  17.262   5.113  0.2176  0.0150 -0.1713
85229W        W28282   2.896  28.431   6.705 -0.0805 -0.1718 -0.1471
85230W        W28283   8.635  31.114  21.568  0.0394 -0.1022 -0.1540
85231W        W28284   6.046   0.911  14.619 -0.1522  0.0637 -0.1437
85232W        W28285   0.769  16.244   5.840  0.0976  0.0848  0.0001
85233W        W28286   5.780  22.171   1.033 -0.0295  0.2271 -0.2438
85234W        W28287  12.527  16.256   1.713 -0.1268  0.0740  0.1621
85235W        W28288  24.070  27.738   6.120 -0.1791  0.0845 -0.1363
85236W        W28289   9.619  27.565  21.636  0.2007  0.0444 -0.2480
85237W        W28290  26.419  32.883  21.629 -0.0904 -0.4315 -0.2272
85238W        W28291  26.927  29.035  22.789 -0.1409  0.1863 -0.2693
85239W        W28292  29.692  28.897   8.965 -0.1116  0.1008  0.0694
85240W        W28293  16.145   1.024   1.541  0.0577  0.4324 -0.0274
85241W        W28294   4.907  27.357   8.611 -0.0934  0.1089 -0.0626
85242W        W28295  33.079  25.492   1.174 -0.0952  0.0510 -0.0597
85243W        W28296   0.178  34.357   6.560  0.1715 -0.1121  0.1287
85244W        W28297  32.623  26.332   1.833  0.2147  0.1444  0.2637
85245W        W28298  17.496  27.465   0.603  0.1269  0.1126 -0.1958
85246W        W28299   6.313  25.014   5.442 -0.0668 -0.0291 -0.3273
85247W        W28300   7.079  16.286   9.297 -0.3170  0.1240 -0.0420
85248W        W28301   1.162  25.759   8.926 -0.3105 -0.2125 -0.2604
85249W        W28302  27.885  24.192   4.218 -0.1950  0.0174  0.1531
85250W        W28303   2.202  32.729  20.799 -0.2690  0.0818 -0.2710
85251W        W28304   7.388  11.976  28.980 -0.3842  0.2309  0.4633
85252W        W28305  13.799   4.295   4.932  0.1882  0.1123 -0.3608
85253W        W28306   4.795  13.407   5.882 -0.1188 -0.0126 -0.0399
85254W        W28307  34.558  26.417   5.270  0.0603 -0.1868  0.1833
85255W        W28308  13.980  30.565  24.063  0.1794  0.1729 -0.2686
85256W        W28309  20.482   8.566  29.052  0.5914 -0.1058  0.0138
85257W        W28310  12.885  22.048   4.508 -0.0839  0.1753 -0.0161
85258W        W28311  18.693  18.223  26.500 -0.3646 -0.0341  0.1053
85259W        W28312  18.124  22.197   7.929 -0.3178  0.1159  0.1165
85260W        W28313  18.830  17.851   4.879 -0.1341  0.0351 -0.1842
85261W        W28314  15.335  22.209   7.807  0.2439  0.2005 -0.1792
85262W        W28315  11.912  24.978   8.884 -0.1962 -0.0883  0.2004
85263W        W28316  20.456  14.993   2.287 -0.2108 -0.2206  0.1593
85264W        W28317  17.948  29.795   1.789  0.0835  0.0564  0.0447
85265W        W28318  13.948  26.062   8.642  0.1007  0.1222  0.0535
85266W        W28319  33.922   0.001   3.605  0.1450 -0.5354 -0.0816
85267W        W28320  19.015  26.437   7.375  0.1643 -0.1820  0.3365
85268W        W28321  11.585   6.719   0.834  0.1641 -0.1169 -0.0122
85269W        W28322  15.710  21.072   1.111 -0.0302  0.0372 -0.0399
85270W        W28323  31.438  13.306  24.950  0.3556  0.0034  0.1282
85271W        W28324   8.008  21.268  15.290 -0.1123 -0.1545  0.1043
85272W        W28325  19.385  26.049   8.546 -0.3336  0.5158  0.1483
85273W        W28326  15.141  26.810   6.107 -0.0290 -0.1996 -0.2744
85274W        W28327  30.908  32.937   6.065 -0.1334  0.0396  0.1270
85275W        W28328  19.660   6.463   7.603  0.2153 -0.0121  0.1360
85276W        W28329   8.782  25.716  28.826  0.0678 -0.0513  0.0916
85277W        W28330  18.439  32.892  19.108 -0.0213  0.0836 -0.1908
85278W        W28331  21.470  23.424   5.955  0.0370 -0.0901 -0.0330
85279W        W28332   2.782  28.965  27.871 -0.1253  0.0806 -0.0823
85280W        W28333  34.681  32.094   8.310 -0.1641 -0.1853 -0.0982
85281W        W28334  22.272  32.170   8.094  0.1437  0.0449  0.0147
85282W        W28335  24.429   9.529  24.704 -0.4803 -0.0967  0.0272
85283W        W28336  16.330  18.964  22.896  0.2856  0.2148 -0.0438
85284W        W28337   8.882  26.100  21.256  0.0782  0.0215  0.1836
85285W        W28338  12.207  32.630   1.579  0.0368 -0.1292 -0.6014
85286W        W28339  11.406  22.758   3.761 -0.0013 -0.0108 -0.1945
85287W        W28340  14.356   2.462   5.421 -0.1921  0.2604 -0.1697
85288W        W28341  14.618   7.275   9.191  0.3915 -0.0013 -0.1960
85289W        W28342   8.624  30.612   4.420 -0.0829 -0.1925  0.2649
85290W        W28343  32.176  28.135   4.199 -0.0635 -0.3403  0.1299
85291W        W28344   6.632  27.389   8.934 -0.1195  0.0125 -0.1995
85292W        W28345  11.629  29.676  22.838  0.1468 -0.2215 -0.0484
85293W        W28346  34.044  34.324   7.959  0.0109 -0.3016  0.3303
85294W        W28347  16.256   0.064   3.584  0.0201 -0.1150  0.0113
85295W        W28348  23.618  28.078   3.464  0.0213  0.1559 -0.1281
85296W        W28349   0.133  29.426  10.118  0.1955 -0.1070  0.3202
85297W        W28350  13.700  33.589   1.162 -0.1359  0.0215  0.0709
85298W        W28351  22.041  27.456  28.372 -0.0653 -0.2092  0.1036
85299W        W28352   3.479  34.676  18.370 -0.5132 -0.0964 -0.2467
85300W        W28353  13.788  22.784   4.048  0.0454 -0.0681  0.0624
85301W        W28354   3.649  25.617  15.898  0.1898  0.2144 -0.1018
85302W        W28355  12.242  21.480   0.810 -0.1432  0.1565  0.0438
85303W        W28356  25.056   0.837   5.467  0.2418  0.0134  0.2157
85304W        W28357  15.447  30.356   7.999 -0.1169 -0.1753 -0.2508
85305W        W28358   1.221  10.106  28.684 -0.3433  0.1240 -0.0250
85306W        W28359   6.813  12.633   8.947  0.4467 -0.1045 -0.0207
85307W        W28360  11.047  31.965   7.507 -0.1703  0.0920 -0.2006
85308W        W28361  18.281  27.704   8.744  0.1304  0.1047  0.0101
85309W        W28362   7.952   5.009   8.784 -0.1823 -0.0212  0.0885
85310W        W28363   8.124  24.978   1.727  0.0831 -0.2231  0.0572
85311W        W28364   1.744  29.220   2.069  0.3111  0.3323 -0.0413
85312W        W28365  15.880  27.173   4.310  0.2069 -0.1346 -0.2222
85313W        W28366  34.224  28.677  27.763 -0.0013  0.0467 -0.1848
85314W        W28367   9.044  25.301  25.614 -0.0607  0.1843 -0.1104
85315W        W28368  16.366  23.239  24.371 -0.0549 -0.0504  0.1017
85316W        W28369   6.029   7.481   4.128 -0.2093 -0.1591  0.1709
85317W        W28370  17.685  20.739  16.104  0.1413 -0.0444 -0.1625
85318W        W28371  32.009  24.762   0.731 -0.2093 -0.1658  0.0168
85319W        W28372  13.466  30.315   3.363  0.3379 -0.0049 -0.0698
85320W        W28373   2.791  34.124  24.774 -0.1506  0.1101 -0.0149
85321W        W28374  32.110  26.859   2.655  0.3849  0.0567 -0.1832
85322W        W28375   9.325  27.688   0.870 -0.2990 -0.1427 -0.0839
85323W        W28376  17.556  25.434   4.888 -0.4803  0.1432 -0.1868
85324W        W28377   9.598  27.224  19.489 -0.1086 -0.3025 -0.2203
85325W        W28378   5.442  19.700   7.466  0.1438 -0.2064 -0.0874
85326W        W28379  21.008   2.321   9.955 -0.0309  0.0997  0.2976
85327W        W28380  28.877  26.260  25.913  0.0224 -0.0726  0.2910
85328W        W28381  12.391  33.718   3.239 -0.0443 -0.1192 -0.1275
85329W        W28382  18.162  30.491  28.040 -0.1288 -0.0443 -0.3692
85330W        W28383  16.641  33.002  23.597  0.4636 -0.0998 -0.0306
85331W        W28384   1.795  17.807   1.769 -0.3294  0.1362  0.0177
85332W        W28385  13.625  13.560  15.570 -0.3000 -0.3790 -0.1217
85333W        W28386   4.738  25.290  17.987  0.1018  0.0847 -0.4909
85334W        W28387  24.103  18.196  24.302  0.1373  0.2250  0.1235
85335W        W28388  12.736  18.461   3.442  0.0749  0.2061  0.0937
85336W        W28389   4.378  23.582   6.516  0.1973 -0.2329  0.4312
85337W        W28390  30.087  28.245   6.387 -0.0431 -0.2197 -0.0785
85338W        W28391   2.101  33.107  23.224 -0.0421 -0.0447 -0.1792
85339W        W28392  10.645  20.617   6.335  0.0709  0.0086  0.1448
85340W        W28393  11.231  32.299   6.408 -0.0202  0.0953 -0.0642
85341W        W28394  16.015  24.082  21.657  0.1428 -0.1986 -0.0159
85342W        W28395  24.011  31.621   0.395  0.1548  0.1018  0.2425
85343W        W28396   7.874   7.219   4.140  0.2176  0.0457 -0.0942
85344W        W28397  28.835   4.971   8.025 -0.0021  0.0078  0.0858
85345W        W28398   2.710  14.315   4.687 -0.1661  0.1572 -0.1120
85346W        W28399  17.129  19.433   1.917  0.1058 -0.0435  0.0233
85347W        W28400   4.397   8.568  18.485  0.0982 -0.0220  0.0871
85348W        W28401  20.616  20.556   3.050 -0.1690 -0.0371 -0.0955
85349W        W28402  21.580  24.730   7.078 -0.2439 -0.4036  0.3342
85350W        W28403   1.223  33.729   8.321  0.0361  0.1198  0.1418
85351W        W28404  12.756  18.090   6.853 -0.1344  0.2287 -0.1855
85352W        W28405  30.591  28.325   3.481  0.1674  0.3347 -0.0787
85353W        W28406  29.576  31.064   8.609 -0.0781 -0.3426 -0.1971
85354W        W28407  16.464  30.427   3.142 -0.1216 -0.0028  0.2621
85355W        W28408   6.341  23.058   9.784  0.0339  0.3700  0.0366
85356W        W28409   5.413  33.903   0.415  0.0675  0.0958 -0.1030
85357W        W28410   4.840  19.004  10.008  0.0210 -0.2708  0.2039
85358W        W28411  26.328   6.460   0.253  0.1414 -0.0093  0.2511
85359W        W28412   9.861  30.593   0.085  0.1583 -0.0232 -0.0713
85360W        W28413   5.945  32.739   7.363  0.0849 -0.0930  0.2720
85361W        W28414   6.881  29.855   7.912  0.1601 -0.2160  0.0425
85362W        W28415  16.421  26.305   9.300  0.2990  0.1267  0.4609
85363W        W28416   0.076   2.595   9.172 -0.4300 -0.1966  0.0027
85364W        W28417  20.195  11.704   4.883  0.1171  0.0856  0.1536
85365W        W28418  17.857  30.285   3.368 -0.0019  0.0156  0.0530
85366W        W28419  26.998  13.100   4.600  0.0355 -0.3453  0.0893
85367W        W28420   8.550  26.596   1.026  0.1020 -0.3974  0.1627
85368W        W28421  27.653  28.174   8.245 -0.0987  0.1713  0.0796
85369W        W28422   5.299   5.209   1.182  0.0829  0.1920  0.0432
85370W        W28423   1.130  30.669  26.362 -0.1094 -0.2497 -0.0512
85371W        W28424   3.362  29.090   3.037  0.0629  0.0810  0.0617
85372W        W28425  22.787  26.688   2.530 -0.1391  0.2062 -0.1649
85373W        W28426   8.482  26.272   3.858 -0.0697  0.1199 -0.0152
85374W        W28427   3.551  28.792   4.381  0.1462 -0.0360 -0.3971
85375W        W28428  15.825  29.327   9.834  0.2614  0.0656  0.0217
85376W        W28429   7.521  18.929   4.686  0.0616 -0.0751  0.0184
85377W        W28430   7.836  28.391   3.567 -0.1163  0.0174 -0.2499
85378W        W28431  15.498   1.230  28.614 -0.0283 -0.0498  0.1742
85379W        W28432  19.186  10.409   7.912  0.2313  0.0460  0.1718
85380W        W28433  29.563  10.074   6.834  0.0666 -0.0224  0.0199
85381W        W28434  12.302  19.330   0.402  0.1519  0.0103 -0.2754
85382W        W28435  33.501  25.972   9.260 -0.2358  0.1943  0.1087
85383W        W28436  17.815  26.586  20.153  0.1265  0.1641  0.0465
85384W        W28437   7.349   2.799  23.306 -0.2280  0.0253  0.0817
85385W        W28438  16.133  26.009   4.878  0.0329 -0.1714  0.2291
85386W        W28439  22.981  23.468   4.615  0.0074 -0.0529 -0.0361
85387W        W28440  17.752  29.870   7.806 -0.2554 -0.0556  0.1415
85388W        W28441   8.468  16.617   8.346 -0.2737 -0.1315  0.1373
85389W        W28442   1.366  22.605  22.011  0.2966 -0.1986  0.0098
85390W        W28443  11.609  24.735  24.790  0.0044  0.2169  0.2999
85391W        W28444  15.879  31.004  28.803 -0.0480 -0.0669 -0.0850
85392W        W28445  29.697   3.098   7.555 -0.1514  0.3804 -0.0688
85393W        W28446   4.647  18.223  28.121  0.1247 -0.1367 -0.3803
85394W        W28447   5.013  23.014   6.137  0.0952 -0.1925  0.1336
85395W        W28448  17.344   5.405   5.920 -0.0111  0.1304 -0.1065
85396W        W28449  13.328  11.796   8.447 -0.3133  0.0311 -0.1596
85397W        W28450  14.304  18.842   0.386  0.4534  0.0417  0.2248
85398W        W28451  16.407  21.987   7.851  0.2404  0.3819  0.0378
85399W        W28452  34.489  27.288   1.806 -0.1815 -0.1900  0.2610
85400W        W28453  11.200  21.313   4.359  0.3040  0.1275  0.2334
85401W        W28454  12.597  20.551  10.562  0.0312 -0.1793  0.1933
85402W        W28455  12.723  17.683  22.331  0.0627  0.1716  0.0759
85403W        W28456  29.342  16.827   1.985  0.0918 -0.2911 -0.0770
85404W        W28457  33.103  28.620   9.202 -0.0549  0.0423  0.0410
85405W        W28458   9.407   6.821  20.385  0.0838 -0.1225 -0.0268
85406W        W28459  17.574  31.306  19.270  0.2193 -0.1005  0.0563
85407W        W28460   9.404   8.445   5.084 -0.2612 -0.2167  0.0279
85408W        W28461   1.854  20.923   9.138  0.0895  0.1219 -0.3789
85409W        W28462  13.430   2.500  26.010 -0.0108  0.3645  0.1073
85410W        W28463  17.170   7.867  22.961  0.1268  0.0200 -0.0089
85411W        W28464  21.665  10.240   2.125 -0.0370 -0.2127 -0.0678
85412W        W28465  32.563  22.671   3.133  0.2526 -0.2364 -0.2036
85413W        W28466  34.516  22.833   5.670  0.0645 -0.0165  0.2537
85414W        W28467  21.515  18.414   6.823 -0.0817  0.3487 -0.2960
85415W        W28468  20.289   5.982  26.007 -0.3667  0.1013  0.2297
85416W        W28469  33.727   1.568  17.314  0.0002 -0.0073  0.0814
85417W        W28470  11.706  24.452  16.544  0.1486  0.2723  0.2653
85418W        W28471  19.484  30.658   8.329 -0.1164  0.1553 -0.2792
85419W        W28472   3.362  13.471   4.686 -0.0069  0.0733 -0.1709
85420W        W28473  16.568  24.301   3.650 -0.0834  0.1904  0.2678
85421W        W28474   6.645  31.221  28.971  0.1228 -0.0710  0.0298
85422W        W28475  20.850  26.120   5.519  0.1488  0.0193  0.1830
85423W        W28476  15.909  25.575  24.604 -0.1785 -0.3305  0.2165
85424W        W28477  11.540  24.062  23.549  0.1145 -0.2555 -0.0708
85425W        W28478  11.782   3.977  25.821  0.3408  0.1202 -0.2257
85426W        W28479  12.208  25.820   1.064  0.3913 -0.2581 -0.0547
85427W        W28480  28.649  23.944  28.839 -0.0200  0.1397  0.4885
85428W        W28481  30.178  13.379   8.934 -0.0240 -0.2544  0.0676
85429W        W28482  16.097  24.758   4.625 -0.2127  0.2616  0.2819
85430W        W28483  14.307  31.410   3.548  0.0451  0.0127 -0.4251
85431W        W28484  28.885   1.463   4.005  0.1552 -0.1926 -0.0269
85432W        W28485  14.648  21.201  17.945  0.2097  0.0099 -0.0484
85433W        W28486  16.584  16.699   4.952 -0.2744 -0.4376  0.0016
85434W        W28487  14.599  29.542   7.154 -0.0447 -0.0735 -0.0246
85435W        W28488  15.572  23.221  29.100 -0.6115  0.0830 -0.0869
85436W        W28489   9.491  18.044   0.424 -0.2295  0.3414  0.0157
85437W        W28490   3.766  20.401   9.346  0.0744 -0.0942 -0.1877
85438W        W28491   1.977  29.838   6.737  0.1180  0.3836  0.2143
85439W        W28492  10.826  27.699   4.666 -0.2231  0.4422  0.0947
85440W        W28493  27.793   3.190   5.814  0.1005 -0.1555 -0.0613
85441W        W28494   7.962  14.604  27.261 -0.1247 -0.1501  0.3427
85442W        W28495   8.074  30.108   8.652  0.2531 -0.3097 -0.1441
85443W        W28496   8.298   0.366   8.416  0.2089  0.5085 -0.0941
85444W        W28497   7.537   5.994   6.909  0.1476 -0.2043 -0.0213
85445W        W28498  13.705  30.045   4.172  0.1866  0.3022  0.0168
85446W        W28499  28.984  23.480   4.863  0.2331  0.2515 -0.0586
85447W        W28500   4.182   7.514   9.063 -0.0589 -0.1176 -0.0431
85448W        W28501   5.012   1.349  23.956 -0.1084 -0.3658  0.2799
85449W        W28502   3.415  23.432  28.057 -0.0580 -0.3124  0.2400
85450W        W28503  24.281  33.023  28.581 -0.0920  0.0348 -0.2289
85451W        W28504  33.039  24.219   4.134  0.1017  0.3090  0.0969
85452W        W28505  16.580  27.959   9.196 -0.1707 -0.0880  0.0485
85453W        W28506   8.949  21.096   3.877  0.2776 -0.1528 -0.4349
85454W        W28507   7.009  22.265  26.799  0.0902 -0.1025  0.3047
85455W        W28508  34.389  31.243   0.835  0.1520  0.0527 -0.0453
85456W        W28509  29.359  27.228   7.197 -0.1110  0.2280  0.1092
85457W        W28510  17.606  23.676   6.338 -0.1661 -0.4571  0.1323
85458W        W28511  16.369  24.469   8.951 -0.1217  0.0603  0.1577
85459W        W28512   8.113  15.551   5.187  0.0231 -0.1103 -0.2846
85460W        W28513   8.788  14.099   0.050 -0.1033 -0.0446  0.0207
85461W        W28514   8.975  28.642   5.279 -0.1082  0.0108  0.2726
85462W        W28515  11.903  21.293   3.455  0.1401  0.2004 -0.2146
85463W        W28516   6.193  22.449   0.032  0.1298 -0.2486 -0.0671
85464W        W28517   5.893  17.923   9.533  0.0812  0.0921 -0.0526
85465W        W28518   7.508  29.884  27.413  0.0177 -0.2192  0.0244
85466W        W28519  12.266  22.015   1.976  0.1893  0.2263  0.1427
85467W        W28520   9.699  34.243   0.787  0.3836 -0.0947  0.0666
85468W        W28521  11.245  24.119   7.765 -0.1406 -0.1842 -0.0000
85469W        W28522  14.003  16.882   9.331 -0.1091 -0.0332  0.2154
85470W        W28523   7.366  15.327   7.000  0.2330  0.0622  0.0854
85471W        W28524  17.795  19.635   8.562  0.2350  0.0293 -0.2369
85472W        W28525  14.234  28.509  26.696  0.0755  0.0234 -0.1560
85473W        W28526  21.230  26.208  26.585 -0.2298  0.1813  0.0403
85474W        W28527   9.395   9.672  28.968 -0.2295 -0.1679 -0.0224
85475W        W28528  23.513  20.843   8.518 -0.1282  0.1005  0.2861
85476W        W28529   4.732  32.424  26.328  0.0383 -0.0568 -0.0267
85477W        W28530   0.646  23.895   5.160 -0.1069  0.1289 -0.0695
85478W        W28531  12.934   9.613   6.784 -0.0213 -0.1698 -0.0532
85479W        W28532  31.274   9.736  27.056 -0.0127  0.0487  0.0582
85480W        W28533   2.077  27.093   8.707 -0.0673  0.0267 -0.2934
85481W        W28534  12.335  19.706  27.771 -0.5504  0.0554 -0.1708
85482W        W28535  17.123  17.230   9.648 -0.2670 -0.2440 -0.3894
85483W        W28536   7.491  22.606   6.388 -0.1514  0.1315  0.3980
85484W        W28537  23.940  30.009   8.337  0.0370 -0.0078 -0.0318
85485W        W28538  13.446  33.558  27.378  0.0254 -0.0032  0.0671
85486W        W28539  34.589  28.042  22.906 -0.2234 -0.2577 -0.1692
85487W        W28540  29.250  28.601   5.011 -0.0946  0.1974 -0.0003
85488W        W28541  18.299  28.108   3.171 -0.1976 -0.2598 -0.0754
85489W        W28542  19.305  12.731   9.579 -0.2672 -0.1203  0.0735
85490W        W28543  33.377  31.375  15.252  0.2171 -0.0203  0.0398
85491W        W28544  17.714  27.456  10.410  0.2707  0.2031 -0.0579
85492W        W28545  25.322  25.993  24.593 -0.2278  0.0039  0.0578
85493W        W28546  34.514  29.618   7.958  0.3729  0.3248  0.0057
85494W        W28547   3.050   4.987   4.201  0.0805 -0.0033 -0.0028
85495W        W28548  11.748  13.056   5.408  0.1319  0.1563  0.2212
85496W        W28549   9.079  16.283   1.147  0.1101 -0.4527 -0.0048
85497W        W28550  14.531  31.370  25.198  0.0058  0.0215  0.0878
85498W        W28551   2.828  22.855   6.593 -0.2828 -0.0841 -0.3037
85499W        W28552   8.849  13.073   2.405 -0.2219  0.2663 -0.2999
85500W        W28553  24.056  11.130   8.538 -0.2330  0.0260 -0.2535
85501W        W28554   2.105  19.671  22.009  0.0104  0.0985 -0.0255
85502W        W28555  34.624   8.349   9.118 -0.3673  0.1960 -0.3613
85503W        W28556  25.468  20.632   6.468 -0.1627 -0.0032 -0.0602
85504W        W28557  29.394  15.424   7.133 -0.0116  0.1717  0.2706
85505W        W28558  12.958  20.743   7.144  0.0018  0.3239 -0.0938
85506W        W28559  30.460  21.750   3.906 -0.0119  0.1600  0.0928
85507W        W28560  10.696  26.321  27.558  0.2519  0.2143  0.0557
85508W        W28561   9.436   1.916   5.737  0.0786  0.2555  0.0143
85509W        W28562  16.311   4.669  16.386 -0.2811  0.1651 -0.0119
85510W        W28563   3.798   9.877  17.555 -0.2465 -0.1516 -0.0295
85511W        W28564   0.789  27.012  23.252 -0.0110 -0.0345 -0.1867
85512W        W28565  11.282  15.115  10.848 -0.1031  0.1851  0.1054
85513W        W28566  10.880   7.410   0.710  0.0449  0.0474  0.0261
85514W        W28567  32.232  29.252   4.835  0.1343  0.1720 -0.1527
85515W        W28568  11.540  34.560   5.410  0.0124 -0.0761  0.4753
85516W        W28569  15.630  28.427  22.560  0.0661 -0.1199  0.4508
85517W        W28570   6.513  20.600   9.233 -0.0073  0.3097 -0.2739
85518W        W28571  14.574  17.376  10.091 -0.0889 -0.0926 -0.2907
85519W        W28572   8.435  20.009   6.144 -0.3110  0.0808 -0.0312
85520W        W28573   6.599  31.211   6.521 -0.2177 -0.0350  0.1019
85521W        W28574  18.400  23.883   5.136 -0.2539 -0.4882 -0.1062
85522W        W28575   9.059  22.531   2.110 -0.0269 -0.0844 -0.3407
85523W        W28576   8.137  16.375   3.673 -0.1258 -0.1690 -0.0579
85524W        W28577   4.542  29.096  20.902 -0.1513 -0.1101  0.0888
85525W        W28578  19.104  28.375   4.594  0.1098 -0.0590  0.2227
85526W        W28579  10.493  31.409   1.012  0.2447  0.0044 -0.3140
85527W        W28580   9.736  10.098  17.542  0.4107  0.0741  0.0058
85528W        W28581  15.611  25.552   8.809  0.1244 -0.1530 -0.1184
85529W        W28582   5.484   0.939  17.361 -0.1525 -0.1266 -0.4810
85530W        W28583   6.421  29.558  27.018 -0.2458 -0.2233  0.2387
85531W        W28584  29.071  11.329   4.535  0.0732  0.0073  0.1094
85532W        W28585   6.272  18.478  20.561  0.2200  0.1086 -0.1235
85533W        W28586  15.539  20.871  21.685 -0.2220 -0.0314  0.1081
85534W        W28587  12.027  31.194   1.099  0.2227  0.1933 -0.2130
85535W        W28588  21.952  23.782  16.067  0.0870 -0.1991  0.1644
85536W        W28589   1.741  17.366   2.145  0.1020  0.1201 -0.0409
85537W        W28590   3.069  31.995   5.718  0.2066 -0.3013 -0.3297
85538W        W28591   1.993  28.874  26.171  0.4885  0.0530  0.0230
85539W        W28592   3.735  33.650   9.100  0.1087  0.0460  0.2709
85540W        W28593  17.126   0.513   2.176  0.1293 -0.0882 -0.1703
85541W        W28594  33.932   0.276  26.479  0.5597 -0.1505  0.1320
85542W        W28595   0.894  15.766   7.701  0.0469 -0.1517 -0.1844
85543W        W28596  12.866  31.211  27.037  0.1921  0.0199 -0.2936
85544W        W28597  13.360  29.310   1.627  0.2978 -0.2866  0.2493
85545W        W28598  12.560   0.287   1.950 -0.2312 -0.0468 -0.0740
85546W        W28599  30.927  25.155  26.756 -0.1027 -0.0628 -0.1415
85547W        W28600  12.384  28.907   5.690  0.0436 -0.0664 -0.2118
85548W        W28601  32.463  25.804   0.428  0.1317 -0.1192 -0.0397
85549W        W28602  10.060   4.409   1.993 -0.2642  0.0016  0.1036
85550W        W28603   9.033  13.066   2.928 -0.1004 -0.2948 -0.0335
85551W        W28604  12.539  23.784   8.553  0.1235 -0.1431 -0.2421
85552W        W28605  11.764  25.498  17.968 -0.3819  0.4111 -0.3874
85553W        W28606   2.058  17.509  28.922  0.0076 -0.0442  0.0382
85554W        W28607  11.333  30.057  26.686  0.0489 -0.3746  0.1686
85555W        W28608  16.044   9.970  21.312 -0.1118  0.2551  0.2096
85556W        W28609   4.327  11.667  28.930 -0.0991  0.1106  0.2981
85557W        W28610   8.033   7.375  27.177 -0.0240 -0.1759  0.0019
85558W        W28611  29.578  16.107  20.815  0.0794  0.1450 -0.4081
85559W        W28612  24.233  33.875  28.191  0.0442 -0.0684 -0.2372
85560W        W28613  20.000   6.932   6.366 -0.3342 -0.1497  0.0643
85561W        W28614   0.739  32.317  15.617  0.0674  0.0351  0.0732
85562W        W28615  28.701  31.231  24.639  0.2838  0.0221  0.1312
85563W        W28616  12.023   5.234  22.238  0.1859  0.0749  0.2152
85564W        W28617  19.268  18.841   8.750  0.2649  0.0870 -0.1047
85565W        W28618  20.691  30.811  24.240 -0.6348 -0.3033 -0.4081
85566W        W28619   4.246   3.953   1.673  0.0611 -0.1114  0.0585
85567W        W28620  14.279  33.016   8.575  0.0580  0.0135 -0.1428
85568W        W28621  29.841  33.476  27.316  0.1534 -0.1786 -0.0711
85569W        W28622  14.337   8.004  28.889  0.2502 -0.2292  0.3864
85570W        W28623  14.639  23.432  17.436 -0.0470 -0.2733 -0.2072
85571W        W28624  12.451   8.090   0.361  0.3357 -0.3961 -0.0997
85572W        W28625   9.286   3.279   0.106 -0.0380 -0.1011 -0.1238
85573W        W28626   0.082   5.301   9.868 -0.1327  0.1848 -0.0662
85574W        W28627  13.774  27.034   9.024 -0.3941  0.1310  0.3028
85575W        W28628  10.342  16.076   3.360 -0.0959 -0.3197 -0.2267
85576W        W28629   1.647  34.342  17.603  0.1609  0.1352 -0.3367
85577W        W28630  33.318  28.369   2.611  0.1695 -0.0006 -0.1732
85578W        W28631   9.613   4.376   0.667 -0.3894  0.2692  0.0414
85579W        W28632   6.342   2.338   9.507  0.1593 -0.1183 -0.0439
85580W        W28633   9.098  34.295  20.328 -0.1622  0.3580 -0.1489
85581W        W28634   1.951  13.931  21.451 -0.2723 -0.3271 -0.0512
85582W        W28635  24.002  16.586   3.543  0.2160 -0.0260  0.2294
85583W        W28636  18.210  10.298  10.165  0.0149 -0.1518  0.0047
85584W        W28637   3.063  33.297  27.482  0.0244  0.0597 -0.0658
85585W        W28638  23.131  27.499  10.598  0.2733 -0.0439 -0.1232
85586W        W28639   2.324  30.495   1.139  0.2387 -0.1431 -0.0615
85587W        W28640  34.383  23.422   7.877 -0.1830 -0.3599 -0.0842
85588W        W28641  12.867  17.554  28.898  0.2527 -0.2356 -0.0950
85589W        W28642  23.177  31.954   5.770  0.0680  0.0509  0.3642
85590W        W28643  12.622  31.351  15.106 -0.1162  0.0097  0.2996
85591W        W28644   9.714  12.799   9.478  0.0003 -0.0422  0.0866
85592W        W28645   7.203   6.158  25.176 -0.0105  0.0527 -0.1634
85593W        W28646  27.347  32.656  22.205  0.0801  0.1287 -0.0987
85594W        W28647  11.304  34.173   8.224  0.0305  0.2514 -0.2258
85595W        W28648  33.443   2.016   2.554 -0.0991  0.0513 -0.1356
85596W        W28649  23.409  26.861  22.334 -0.1593  0.0533  0.3057
85597W        W28650   9.295  19.076   6.048 -0.0296  0.2520  0.0418
85598W        W28651  15.319  25.254   6.008 -0.2253 -0.0652  0.4064
85599W        W28652  16.303   8.017  17.090  0.1603  0.2182  0.6007
85600W        W28653  14.975  22.574  29.010  0.1859 -0.0561  0.3700
85601W        W28654  14.843  19.364   5.010  0.0406 -0.2504  0.0117
85602W        W28655  29.347  25.263  14.601 -0.0624  0.3696  0.2433
85603W        W28656  10.699  20.942   6.724 -0.2094 -0.1138  0.1958
85604W        W28657   6.119  14.551   9.226  0.2681 -0.1012 -0.2747
85605W        W28658  27.870  26.580   5.986 -0.1932 -0.5115 -0.0940
85606W        W28659   1.809  26.035   5.592  0.0370  0.2220  0.1226
85607W        W28660  33.274  12.700  28.303  0.0625 -0.2635  0.0827
85608W        W28661  20.364  15.788  20.946  0.3012  0.1293  0.0882
85609W        W28662   5.664  24.698  23.210  0.3609  0.1443  0.1036
85610W        W28663   8.311  16.290   8.866 -0.0073  0.3402 -0.0369
85611W        W28664   1.875  31.169  25.448  0.0682 -0.2782 -0.1603
85612W        W28665  28.850   1.778   2.750 -0.3973  0.2732  0.2278
85613W        W28666   9.074  27.871  24.383 -0.0406  0.3176 -0.0249
85614W        W28667  33.994  16.726   2.264  0.1605 -0.2536 -0.1912
85615W        W28668  13.626   7.405   0.592  0.2316  0.0913 -0.0245
85616W        W28669   9.730  22.849   4.148  0.2475  0.2786  0.1275
85617W        W28670  13.020  33.946   2.166  0.0002 -0.1345  0.1885
85618W        W28671   3.434  21.575  28.373 -0.1656 -0.1064  0.2516
85619W        W28672  10.591  15.249  22.111  0.0960 -0.2809  0.0138
85620W        W28673  28.945   7.363   9.087 -0.1173  0.0823 -0.0394
85621W        W28674   3.687  33.581   8.540  0.1171 -0.0551 -0.0049
85622W        W28675   8.905  16.307   3.709  0.2385 -0.1515 -0.1018
85623W        W28676  17.250  28.216  23.206 -0.0173 -0.0235  0.3690
85624W        W28677  14.975  19.348   7.233  0.2197 -0.1423  0.0708
85625W        W28678  16.060  31.106  21.212 -0.1122 -0.2628 -0.2529
85626W        W28679   6.486  21.024  13.136 -0.2061  0.1060 -0.0210
85627W        W28680   9.516   5.879   6.243 -0.0017 -0.1285  0.0657
85628W        W28681   0.887   8.752   9.657  0.0004  0.1760 -0.1718
85629W        W28682  11.218   5.811  26.523  0.1101 -0.0609  0.0354
85630W        W28683   3.409  10.604  14.724  0.0994 -0.1749 -0.0104
85631W        W28684  21.156  22.247  26.897  0.1207  0.1162  0.0810
85632W        W28685  13.416  12.103   1.963 -0.1947 -0.0056  0.0849
85633W        W28686  32.872  33.213  16.230  0.4214 -0.0591  0.3163
85634W        W28687   4.828   1.990  26.546 -0.0974 -0.0883 -0.1374
85635W        W28688  26.236  21.866   6.722 -0.0938  0.0087  0.1447
85636W        W28689  19.490  28.929   8.247 -0.1595  0.1548 -0.0964
85637W        W28690  16.514  17.696   5.343  0.0744  0.0957  0.1581
85638W        W28691  30.799   9.590  19.806 -0.5884  0.0307  0.0682
85639W        W28692  16.530  27.652   0.108 -0.2212  0.1267  0.2490
85640W        W28693  25.733   8.559  24.968 -0.1410 -0.0755  0.0999
85641W        W28694  13.408   2.839   7.174  0.1576  0.0607 -0.1007
85642W        W28695   1.915  33.412  25.541 -0.1533 -0.0545  0.4851
85643W        W28696  30.458  32.284  23.565  0.2911  0.2600 -0.0264
85644W        W28697  20.047  16.191  21.045 -0.1771 -0.0141 -0.2394
85645W        W28698   7.301   9.274   1.385 -0.1689 -0.3589  0.2845
85646W        W28699   5.789  22.295   2.705 -0.0648 -0.0807 -0.2794
85647W        W28700  32.967  23.457   4.543 -0.2180  0.0458 -0.1318
85648W        W28701  10.361  28.920  26.957  0.2550 -0.0049 -0.2843
85649W        W28702   5.422  29.809   0.534 -0.0348 -0.2295 -0.1201
85650W        W28703   7.653   8.347   5.765  0.2396 -0.2470  0.3085
85651W        W28704  18.500  25.088  10.587 -0.2468  0.1155  0.2974
85652W        W28705  26.197  18.542  26.366 -0.0819 -0.1265  0.2651
85653W        W28706   0.460  24.247  25.442 -0.1198 -0.1364 -0.2028
85654W        W28707  13.127  17.294   3.386  0.0486  0.0373  0.1455
85655W        W28708   6.774   9.241   8.279  0.0262 -0.1934  0.1237
85656W        W28709  15.380   8.633  18.581  0.2117  0.2072 -0.0469
85657W        W28710   7.266   1.510   0.431 -0.1573 -0.0025 -0.0830
85658W        W28711  19.186  25.627  22.164 -0.0492 -0.1502  0.0187
85659W        W28712  11.622  12.600   8.315 -0.0067 -0.3046  0.2856
85660W        W28713  13.114   5.770   4.094  0.1437 -0.5683 -0.2591
85661W        W28714  30.097  18.135   8.070 -0.3427 -0.2780 -0.2551
85662W        W28715  18.227  34.489   6.211 -0.1877  0.0570 -0.0732
85663W        W28716  12.567  26.419   5.306  0.2603  0.0094 -0.1607
85664W        W28717  22.993   3.836   0.468 -0.0884 -0.0360 -0.4826
85665W        W28718   2.524  21.451  24.353 -0.2571  0.0017 -0.2174
85666W        W28719   3.975  29.591  27.769 -0.1951 -0.0406 -0.0387
85667W        W28720  26.873   2.471  22.655  0.3149  0.2095  0.0922
85668W        W28721  23.816   7.861   5.912 -0.0553  0.0931 -0.1083
85669W        W28722  15.052   8.899  26.971  0.0743 -0.0253  0.2478
85670W        W28723   8.724   8.063   0.122 -0.0517  0.2222 -0.0335
85671W        W28724   8.984   8.405   3.683 -0.0700  0.0832 -0.0560
85672W        W28725  34.459  30.949   9.346  0.0028  0.1334  0.0756
85673W        W28726  21.172  23.666  25.470  0.0219 -0.0428  0.2972
85674W        W28727  12.439  17.557  24.311  0.0936 -0.1438  0.1055
85675W        W28728  19.042   7.121  14.385  0.2968 -0.2099  0.0599
85676W        W28729   4.170   5.255  16.582 -0.0851 -0.1612  0.3038
85677W        W28730  31.564  20.567   8.844  0.1442  0.1350 -0.1769
85678W        W28731   9.925  13.491  28.696 -0.0013 -0.0418 -0.0603
85679W        W28732  23.505  33.083  26.235 -0.1976  0.0641 -0.0539
85680W        W28733  19.017   2.007   8.356  0.1221 -0.4620  0.0247
85681W        W28734  29.048  31.874  17.111 -0.0817  0.0304  0.3008
85682W        W28735  15.358  19.137  24.971 -0.1261  0.0379  0.1342
85683W        W28736  13.861   7.828   9.499  0.0472  0.0512 -0.2541
85684W        W28737  31.806   8.075  26.102  0.1172  0.2478  0.0007
85685W        W28738  17.991  24.688  20.994 -0.4428  0.4554  0.3946
85686W        W28739   8.871  29.678   1.068  0.1870  0.0006 -0.1137
85687W        W28740  15.726  24.230  26.673  0.2997  0.1319 -0.1390
85688W        W28741  12.161  29.580  26.034 -0.1813 -0.0901 -0.3486
85689W        W28742  24.108  31.731   9.745 -0.1788 -0.0584 -0.0037
85690W        W28743   8.033  32.338  25.008  0.2185 -0.0313 -0.1369
85691W        W28744  23.138  23.203  29.173 -0.3585  0.1361  0.0276
85692W        W28745  14.189  33.669  14.436  0.1086 -0.2208 -0.4166
85693W        W28746  15.255  27.336  26.113  0.0977  0.1101 -0.3118
85694W        W28747   2.996  31.199  23.297 -0.0738 -0.1544 -0.1249
85695W        W28748  15.712  28.842   9.981  0.0140  0.0394 -0.1988
85696W        W28749  22.953  14.435  21.910  0.0516 -0.3200 -0.0555
85697W        W28750  25.594  29.147   6.763 -0.1124  0.2967  0.3549
85698W        W28751  11.736  26.885  23.819 -0.1201  0.2304  0.1956
85699W        W28752   5.753  22.577  15.498 -0.0331 -0.0914  0.1383
85700W        W28753  13.298  21.468   7.126 -0.2479 -0.1162  0.1524
85701W        W28754   1.974  28.394  27.696 -0.0855  0.2210  0.0638
85702W        W28755  21.640   1.581  28.879  0.2839  0.0731  0.2145
85703W        W28756  28.556  32.148  14.421 -0.2458  0.2725  0.2440
85704W        W28757   0.083   3.499  27.276 -0.2306 -0.0372 -0.1919
85705W        W28758  12.657   2.209  26.189  0.0729 -0.0069  0.2023
85706W        W28759  29.948   1.863  28.419 -0.2359 -0.0281 -0.3232
85707W        W28760   5.732  32.124  23.601 -0.0943 -0.0512  0.1724
85708W        W28761  20.037   4.117   5.958  0.1620  0.3791  0.1382
85709W        W28762  13.572  17.854   4.732  0.2459 -0.0519  0.1427
85710W        W28763  13.887  20.857  22.597  0.0469  0.0806 -0.0866
85711W        W28764   9.617  22.769  28.545  0.0723  0.1109  0.0912
85712W        W28765  32.540   0.269   2.120  0.1609 -0.2063 -0.2383
85713W        W28766  30.885   8.216   9.837 -0.0266 -0.0913  0.1349
85714W        W28767   1.872   4.852   1.416  0.2535  0.1458 -0.0196
85715W        W28768  32.740  16.294   4.022 -0.1212 -0.3000  0.3751
85716W        W28769  10.087  18.483   1.280  0.0800  0.1233  0.1302
85717W        W28770  11.812   0.546   5.006 -0.2562 -0.2542 -0.2777
85718W        W28771  18.672  22.993  20.579 -0.1252 -0.1044  0.2403
85719W        W28772   3.533  32.648  20.042  0.0736  0.0098 -0.0428
85720W        W28773  21.654  29.554   8.497 -0.1207 -0.6185 -0.1227
85721W        W28774   0.664  32.420  28.412  0.2188  0.0744 -0.3168
85722W        W28775  12.693   9.023  25.407 -0.2974 -0.0116 -0.0400
85723W        W28776  10.180  17.173  19.263 -0.2428 -0.2766 -0.0399
85724W        W28777  15.873  12.032  28.096 -0.5671 -0.0118 -0.0486
85725W        W28778   1.968  28.369  28.399  0.4442  0.0076 -0.1999
85726W        W28779   8.714  17.228  24.751 -0.0283 -0.1507 -0.3728
85727W        W28780   3.429   1.214   5.709 -0.4299  0.0649  0.1564
85728W        W28781  26.250  10.171   7.285  0.0454 -0.1299  0.1353
85729W        W28782  11.933  16.744  23.218  0.1400  0.0215 -0.3704
85730W        W28783   9.532   6.544   1.590 -0.1001  0.2571 -0.4234
85731W        W28784   9.804  20.948   5.418  0.0325 -0.2087  0.1418
85732W        W28785  11.615  27.780   6.070  0.0507 -0.1215  0.0397
85733W        W28786  30.080  30.187   4.127 -0.4438 -0.4876  0.2333
85734W        W28787  24.563  29.644   0.181  0.1819 -0.0949 -0.1323
85735W        W28788   4.803   8.583  24.582  0.1152  0.1565  0.3626
85736W        W28789  24.444  18.726   2.230  0.0199 -0.0779 -0.0350
85737W        W28790  33.499   4.592  15.246  0.0750 -0.1809 -0.1673
85738W        W28791   7.396  14.658   6.352 -0.0913 -0.3233 -0.0815
85739W        W28792  34.415  27.207  27.252  0.2070  0.3083 -0.0900
85740W        W28793   9.372  34.207   6.070 -0.1903  0.3061 -0.3890
85741W        W28794  11.359   6.806  20.107  0.0533  0.5011 -0.1974
85742W        W28795  10.795  23.095   7.287  0.1492 -0.1231 -0.1310
85743W        W28796   4.013   1.187   4.266 -0.1886  0.3210 -0.2572
85744W        W28797  18.462  32.686  15.477 -0.0103 -0.1936  0.0763
85745W        W28798  13.635  30.516   9.032  0.0265  0.0949 -0.0536
85746W        W28799  10.703  33.882   9.362  0.3949 -0.0362  0.1675
85747W        W28800  34.643  26.087  20.839 -0.2564 -0.1165 -0.2070
85748W        W28801  12.751  19.247  19.824 -0.0124  0.0993  0.1132
85749W        W28802  14.641  18.859  24.791  0.0642 -0.0104  0.4141
85750W        W28803   5.734  24.735   5.033  0.1161  0.0673  0.1288
85751W        W28804   4.056  28.193  15.284 -0.0610  0.2026 -0.0733
85752W        W28805  15.344  31.077   7.666 -0.4750 -0.1115 -0.1655
85753W        W28806  10.548  14.470   7.262  0.1051 -0.0968  0.0564
85754W        W28807  17.750  23.596   2.958 -0.1301 -0.0576  0.2353
85755W        W28808   8.398  27.867  19.151 -0.0817  0.1587  0.0115
85756W        W28809  15.297  12.073   1.962  0.1207  0.0512 -0.1592
85757W        W28810  17.522  33.445  15.238 -0.0602 -0.1538 -0.1052
85758W        W28811  15.565  20.802  26.956 -0.0863  0.0030  0.0619
85759W        W28812   4.534  11.561   3.304  0.1048 -0.0536 -0.0899
85760W        W28813  26.172  24.098   6.322  0.0290 -0.1242  0.3561
85761W        W28814   5.857   3.044   4.446  0.0202  0.2300  0.1416
85762W        W28815  18.880  33.993   2.968  0.0012 -0.0068  0.0513
85763W        W28816  11.503  29.353   0.925  0.1571 -0.2679 -0.0319
85764W        W28817  23.663  18.383  14.068 -0.1422 -0.0923 -0.3344
85765W        W28818  21.114  18.326   8.686  0.0104 -0.0661  0.2475
85766W        W28819  15.831  33.001   7.432 -0.3090 -0.2701  0.0702
85767W        W28820   0.571  31.238  21.261 -0.2234  0.0579 -0.0554
85768W        W28821  12.394  32.401  28.061  0.0571  0.1127  0.0516
85769W        W28822  17.802  27.180  25.781  0.0816  0.0244 -0.0900
85770W        W28823  34.622   4.215   0.521  0.1813  0.0582  0.1492
85771W        W28824   9.570  25.392  17.682  0.1851 -0.1500 -0.1281
85772W        W28825   9.259  34.007  22.933 -0.1684 -0.1730  0.1552
85773W        W28826   2.303   3.764  19.657  0.1187  0.1900  0.2254
85774W        W28827  15.317  25.569   7.445 -0.4372  0.1494  0.0702
85775W        W28828  27.501  12.164  19.734 -0.2014  0.1298 -0.1308
85776W        W28829   7.764  25.975   6.723 -0.2597 -0.1120  0.0860
85777W        W28830   7.866  12.057  27.552  0.0211 -0.2153 -0.3037
85778W        W28831   4.070  12.462   7.769 -0.2316 -0.0197  0.1929
85779W        W28832  28.514  30.508  20.998  0.0675  0.0902 -0.0055
85780W        W28833  24.668  24.036  10.420  0.0590 -0.0773 -0.2734
85781W        W28834  15.443  29.002   9.560  0.2239  0.2885  0.3554
85782W        W28835  20.431  29.406  19.291 -0.1112  0.1172 -0.0447
85783W        W28836  28.978   0.399  27.011 -0.0515  0.1013 -0.0346
85784W        W28837  14.837  21.925   5.796  0.0273  0.0686  0.2686
85785W        W28838  12.435  26.565   1.561 -0.0050 -0.6736 -0.1019
85786W        W28839   5.637   4.329   8.449 -0.0682 -0.0368  0.0842
85787W        W28840   9.288  29.336   8.197 -0.3255  0.1799  0.2421
85788W        W28841  25.486  23.491  28.412 -0.0479 -0.2406  0.1670
85789W        W28842   0.391   6.636   4.755  0.0008 -0.0471  0.0038
85790W        W28843   4.066  17.483   1.966  0.1845 -0.1599  0.1230
85791W        W28844   5.759  21.555   3.299  0.0472 -0.1505 -0.0193
85792W        W28845  10.024   1.317  26.438  0.0559  0.1023  0.2423
85793W        W28846   0.080  21.853   8.791  0.3819  0.2477  0.2862
85794W        W28847  13.511  18.449   7.999 -0.1114 -0.0273 -0.1179
85795W        W28848  11.584  20.357  21.927 -0.0810  0.0396  0.1893
85796W        W28849  18.906  33.666   3.828 -0.0408 -0.3022  0.1006
85797W        W28850  13.045   8.639   5.585 -0.0494 -0.2237 -0.0238
85798W        W28851  20.573  30.654  27.759  0.0582 -0.0115  0.1744
85799W        W28852  16.200  22.206  10.103 -0.0497 -0.1142 -0.3770
85800W        W28853  10.693  32.955  22.742  0.2325 -0.3833  0.0648
85801W        W28854   3.879   6.640  20.828  0.2945  0.1235 -0.1073
85802W        W28855  31.070  26.276   5.945 -0.1620 -0.0475  0.0566
85803W        W28856  31.589  31.601  14.234  0.0675 -0.2744  0.0993
85804W        W28857  18.403   1.366   7.767  0.1576 -0.0121  0.1550
85805W        W28858  17.054  32.431   7.889 -0.0640  0.0114  0.1463
85806W        W28859  12.402  33.591   5.760 -0.1192  0.0750  0.0120
85807W        W28860  22.005   1.919  21.439  0.1102  0.0579  0.1310
85808W        W28861   1.642  13.949   3.132 -0.0026 -0.0278  0.1491
85809W        W28862  22.051  13.523  22.591  0.2998 -0.3097  0.3242
85810W        W28863   9.998  31.031   0.294  0.0978 -0.0503  0.2748
85811W        W28864  18.797   0.519   4.528  0.2928  0.0421 -0.0036
85812W        W28865  31.844  32.588  17.553 -0.0643  0.1869 -0.1465
85813W        W28866   7.598  32.438  27.605  0.1641  0.1671 -0.0007
85814W        W28867  29.197  29.322  27.149  0.3554  0.0212  0.3642
85815W        W28868  20.641   2.235   0.821 -0.0531 -0.1596  0.0415
85816W        W28869  11.136   0.000  18.168  0.0834  0.2760  0.2120
85817W        W28870  31.027  25.816   7.508  0.1655  0.1875 -0.2112
85818W        W28871  11.293   3.186   2.085  0.1294  0.0405  0.0766
85819W        W28872  15.548  21.215   5.585 -0.0756 -0.1694  0.1704
85820W        W28873  28.291  16.117   4.157 -0.1164 -0.1448 -0.1905
85821W        W28874  18.836  24.898  20.531 -0.1119  0.1745  0.0463
85822W        W28875   0.652   8.555  16.273  0.0681 -0.0801 -0.2306
85823W        W28876   4.500   8.655   6.986 -0.2795  0.1052 -0.0558
85824W        W28877  13.634   5.246  27.558  0.2122 -0.0046  0.1556
85825W        W28878  13.794  26.582   9.175  0.3591  0.1020 -0.1116
85826W        W28879   1.514  32.742   3.008 -0.3605  0.1213 -0.0080
85827W        W28880  32.048   3.934  28.279  0.2905  0.0686  0.1801
85828W        W28881   6.501   3.702  28.094 -0.1589 -0.1501 -0.0344
85829W        W28882  28.013  14.706  21.947 -0.2233  0.3430 -0.2401
85830W        W28883  18.130  15.053  22.574  0.1042  0.1536  0.0958
85831W        W28884   9.446   9.662  16.926 -0.0251 -0.1668 -0.0609
85832W        W28885   8.961  21.670  28.391  0.1710 -0.0686  0.0462
85833W        W28886  13.577  16.959   4.603 -0.1610  0.0031  0.2342
85834W        W28887   5.706  27.881   6.511  0.0938  0.0451  0.0541
85835W        W28888  12.024  16.858   9.659 -0.1210 -0.2499  0.0271
85836W        W28889   5.421  25.400   1.538 -0.1019 -0.1041  0.0152
85837W        W28890   7.471   4.222   4.046 -0.0203 -0.2696  0.0821
85838W        W28891  19.700   3.312  24.347  0.2422 -0.0071  0.1821
85839W        W28892   1.903  12.633   0.810  0.2813 -0.0037 -0.0934
85840W        W28893  16.741  30.242   8.914  0.0056  0.1461 -0.1074
85841W        W28894  18.993  22.771   8.912  0.0986  0.1751 -0.0449
85842W        W28895  14.340  11.267  16.644  0.4965  0.2891 -0.0071
85843W        W28896   1.881   0.703  28.064 -0.1912 -0.1994  0.0582
85844W        W28897   9.833  29.787  21.255 -0.2857 -0.1398 -0.1688
85845W        W28898  22.808  21.941  25.839 -0.1018 -0.0619 -0.4160
85846W        W28899  16.502  29.034   2.575  0.0300 -0.0169 -0.0672
85847W        W28900   5.848   9.029  23.491  0.1032  0.0579 -0.1184
85848W        W28901   9.485  28.734   5.135  0.1150 -0.0476 -0.0519
85849W        W28902   9.790  26.016  25.172 -0.3157  0.1690 -0.2421
85850W        W28903  33.243  31.540   8.219 -0.1564 -0.0001 -0.1463
85851W        W28904  31.408  25.143  29.038  0.1029 -0.0423 -0.1281
85852W        W28905  20.763  24.099   6.178  0.1741  0.0806 -0.0546
85853W        W28906   7.497  29.142  26.070 -0.0376 -0.1170  0.1367
85854W        W28907  33.269  27.991   3.368  0.2520  0.0220  0.0130
85855W        W28908  18.281  12.521  19.610 -0.0501 -0.0666 -0.2600
85856W        W28909   5.768  25.866   2.118  0.0293 -0.0848 -0.2292
85857W        W28910   9.296  27.443  26.618  0.0598  0.2383 -0.0002
85858W        W28911  11.837  33.011   4.749 -0.0124 -0.0112  0.1801
85859W        W28912   5.576  10.201   6.799 -0.0386 -0.0891 -0.1933
85860W        W28913   7.379  24.301   4.061  0.1864  0.0926  0.1337
85861W        W28914  12.355   3.350   0.331  0.1242 -0.0436 -0.0008
85862W        W28915   6.993   7.720  24.262 -0.0067  0.0032  0.1444
85863W        W28916   6.894  19.539  19.855  0.1165  0.2413 -0.1447
85864W        W28917   4.677   3.263   4.943  0.0443  0.1063 -0.1400
85865W        W28918   1.895   2.042  20.972  0.2741  0.1206 -0.1155
85866W        W28919  10.299  31.282  20.720  0.0547  0.0025  0.1898
85867W        W28920  25.242   7.927  27.949 -0.2284  0.0221  0.0705
85868W        W28921  18.961  18.333   6.935 -0.1519 -0.0046 -0.2731
85869W        W28922  27.882   4.861  28.253  0.0598 -0.1722  0.2472
85870W        W28923   3.316  33.274  14.203 -0.2443  0.0821  0.0618
85871W        W28924  12.956  29.090  20.459 -0.2479 -0.1458 -0.5285
85872W        W28925   1.459   2.090   5.487  0.0949 -0.1892  0.1021
85873W        W28926   5.678  28.932  26.763  0.0123 -0.2838 -0.0443
85874W        W28927   7.468  16.005  24.286  0.1163  0.1394 -0.1321
85875W        W28928  12.717  15.824   1.913 -0.1429  0.1475  0.0740
85876W        W28929   5.059   5.058   8.348 -0.1616 -0.3559  0.3244
85877W        W28930   2.104   6.172   7.585 -0.2377 -0.5421 -0.0901
85878W        W28931  14.198  26.341  16.292  0.0108 -0.0875  0.0401
85879W        W28932  10.610  29.078   7.095 -0.2125 -0.0606  0.0998
85880W        W28933  10.263  27.244  18.180 -0.0311 -0.2423  0.0325
85881W        W28934  27.638   5.927  20.371  0.0231  0.3109  0.3141
85882W        W28935   5.060  22.343   5.983 -0.0343  0.1348  0.0058
85883W        W28936  11.334  18.413   4.422  0.1243  0.0969  0.0925
85884W        W28937  14.172  19.462   0.487  0.0794 -0.1692  0.2888
85885W        W28938  23.210  22.896  22.460 -0.2319 -0.1492 -0.0547
85886W        W28939   4.632  32.785   4.073  0.0553  0.1365  0.3206
85887W        W28940  21.289  28.239   5.243 -0.0941 -0.1935  0.1718
85888W        W28941   5.421  31.586  24.366 -0.4150 -0.0432 -0.3542
85889W        W28942   6.477  23.588  23.815  0.3204 -0.0099  0.1336
85890W        W28943  30.894   3.579  25.464  0.1494 -0.0450  0.1919
85891W        W28944   1.722  20.815  21.954 -0.0927  0.1086  0.0743
85892W        W28945  31.321   1.970   4.820  0.0448  0.3286 -0.0846
85893W        W28946  12.439   5.362   7.797 -0.0630 -0.3809 -0.0310
85894W        W28947   6.478  25.954   7.053  0.2246 -0.4094  0.1031
85895W        W28948  20.956   0.909  21.579 -0.0071 -0.1435 -0.2400
85896W        W28949   1.359  14.576   6.500 -0.5049 -0.0281 -0.0008
85897W        W28950  26.124  31.120  15.766 -0.2476 -0.2447  0.1066
85898W        W28951   6.460  24.506   7.744 -0.3299  0.2314  0.1237
85899W        W28952  17.219  11.256  27.050 -0.2276  0.2756 -0.1859
85900W        W28953  13.930  31.104  26.898  0.2569  0.1215 -0.0202
85901W        W28954  24.980  30.472  22.772  0.2171  0.1632  0.1411
85902W        W28955  12.681   2.590  24.944 -0.0265  0.3455  0.2349
85903W        W28956  31.360  15.881  24.048  0.2978 -0.0644 -0.1283
85904W        W28957  32.122  11.872  20.522 -0.1532  0.0398  0.0620
85905W        W28958  28.134  33.720  18.174 -0.0949 -0.2165 -0.1415
85906W        W28959  13.467  25.617  23.558 -0.0875  0.0567 -0.1620
85907W        W28960  26.858   9.954   2.057  0.1318 -0.3137  0.1151
85908W        W28961  10.847   2.109  14.646 -0.1674  0.0930 -0.0509
85909W        W28962  25.422  34.669  28.338  0.0252 -0.1543  0.0113
85910W        W28963  15.251  34.606  24.653 -0.2808  0.3227 -0.0662
85911W        W28964  14.882  13.045  16.941  0.0978 -0.0755  0.3482
85912W        W28965  11.910   3.325  27.451  0.1846  0.1241  0.1292
85913W        W28966  21.657  10.326  28.115  0.0499 -0.1446  0.0543
85914W        W28967   6.215  16.872  25.270  0.0856 -0.0143  0.1657
85915W        W28968   1.337  12.513   5.196 -0.0052 -0.0712  0.1121
85916W        W28969  13.778  15.196  27.069 -0.1409 -0.1638  0.4440
85917W        W28970   7.470   2.077   4.757 -0.3752  0.0952 -0.0924
85918W        W28971   0.293  33.004  26.713 -0.3649  0.0618  0.1601
85919W        W28972  17.622  32.958  23.237 -0.0110  0.1517  0.1439
85920W        W28973  27.632  17.158  17.643  0.1387 -0.3312  0.2206
85921W        W28974  32.821  24.326  20.873  0.0547 -0.0046  0.0080
85922W        W28975  13.961   4.961   7.679 -0.2320 -0.0223  0.2767
85923W        W28976   6.472   3.586   5.530 -0.1946  0.2412 -0.3740
85924W        W28977  30.039  14.290  26.379 -0.0713  0.1455 -0.1646
85925W        W28978  14.311  16.253   3.586  0.1552  0.1935 -0.1494
85926W        W28979   8.279   2.116   7.353  0.3464 -0.0507  0.0004
85927W        W28980  20.629   7.316  17.207 -0.1892 -0.0873  0.0040
85928W        W28981  21.205   3.652  16.501 -0.1578  0.0212  0.6342
85929W        W28982   3.165   3.868   8.781 -0.1732  0.1541 -0.1470
85930W        W28983  15.155  25.856   4.694  0.2447  0.0403  0.0956
85931W        W28984  16.602   8.776   4.479 -0.1463 -0.1446  0.1688
85932W        W28985   2.976  20.919   8.365  0.0600  0.1670  0.0260
85933W        W28986   0.189  28.570   5.797 -0.1061 -0.2356  0.5068
85934W        W28987   9.025  31.599  22.698  0.0431  0.2270 -0.1750
85935W        W28988  17.807  28.696  29.091 -0.0787  0.3407 -0.0130
85936W        W28989   6.834   0.394   3.142  0.0705  0.1554 -0.6251
85937W        W28990  20.867  10.412   4.369  0.0327  0.0268 -0.2651
85938W        W28991  29.871  27.950   4.688 -0.1647 -0.2021 -0.0007
85939W        W28992   5.932  34.624  28.947  0.1131 -0.2748 -0.0155
85940W        W28993   8.835   9.822   7.418 -0.0117 -0.0109 -0.0837
85941W        W28994  10.627  27.845   8.484  0.0738 -0.0552 -0.1126
85942W        W28995   8.933  21.939  23.081 -0.3287 -0.2063  0.3338
85943W        W28996   9.286  34.452  22.656  0.2997  0.2248  0.2457
85944W        W28997  10.256  22.017   4.331 -0.0494  0.2115 -0.3264
85945W        W28998   4.740  23.261   0.764  0.2654 -0.1161 -0.1106
85946W        W28999  11.924   2.869  19.375 -0.0904  0.1756  0.2209
85947W        W29000  20.859  17.644   5.203 -0.2770  0.2683 -0.0720
85948W        W29001  26.195   3.127  18.641 -0.2238 -0.0760  0.1039
85949W        W29002  21.384  11.135   0.097 -0.1693 -0.0096  0.1485
85950W        W29003   2.047  29.120  21.125 -0.0064 -0.1361 -0.2072
85951W        W29004  18.587  17.986   9.403 -0.0304 -0.1454 -0.1697
85952W        W29005   4.902   7.472   1.852 -0.0706  0.2458 -0.0733
85953W        W29006  14.558  17.492  25.485  0.3090 -0.1513 -0.1000
85954W        W29007   6.918  27.792   8.226  0.0271  0.1268  0.0847
85955W        W29008  31.271  15.569   5.401 -0.2197 -0.3083 -0.1303
85956W        W29009  16.642  18.942   0.843  0.0689 -0.1197 -0.0253
85957W        W29010   9.797  24.766  27.562 -0.1876 -0.0355 -0.0800
85958W        W29011  19.550  25.826   1.382 -0.0739  0.1448  0.2727
85959W        W29012  15.571  33.618   8.082 -0.1597  0.0233 -0.1762
85960W        W29013  33.882  32.705   8.227  0.1678  0.0924  0.0038
85961W        W29014  20.075   9.973   3.342 -0.0078  0.0531 -0.1447
85962W        W29015   7.878  32.677   0.942 -0.2695 -0.2430  0.0961
85963W        W29016   6.598  23.977  20.133 -0.0712  0.0685 -0.0077
85964W        W29017   7.084   8.655  26.833 -0.0783  0.1270 -0.0147
85965W        W29018  18.299  31.160   8.006  0.4695 -0.1509 -0.2157
85966W        W29019   6.267  16.358   5.306 -0.1309  0.1056 -0.4721
85967W        W29020   3.418  17.428  27.003  0.4324  0.0985  0.1328
85968W        W29021   0.270  14.212  29.178  0.0704  0.3008  0.0938
85969W        W29022   8.145  30.457  24.514  0.4042  0.0464 -0.2212
85970W        W29023  25.887  26.421   1.345 -0.0155 -0.3108 -0.0975
85971W        W29024  27.407   5.154   6.379  0.1127 -0.0929  0.1600
85972W        W29025  12.142   2.236   3.142 -0.2456 -0.1588 -0.1335
85973W        W29026  23.787   0.723   5.305 -0.1726  0.0559 -0.0155
85974W        W29027  18.296   2.572  25.150 -0.0179  0.2267 -0.1340
85975W        W29028   5.662   8.405   8.737  0.5918 -0.1760  0.0370
85976W        W29029  10.387   2.052  26.522 -0.1362 -0.0973  0.1756
85977W        W29030  18.060   3.602   6.874 -0.3934 -0.0066  0.1088
85978W        W29031  10.451  32.421   7.398 -0.0015  0.1985 -0.1202
85979W        W29032  15.205  27.421   2.223  0.2770 -0.1253 -0.3536
85980W        W29033  14.797   8.369  19.675 -0.2856  0.0001  0.1596
85981W        W29034  25.423   7.558   4.415  0.4846 -0.1300  0.2489
85982W        W29035   8.111  10.295   4.543 -0.0734 -0.3880  0.0765
85983W        W29036  16.444   5.027  17.849  0.1061  0.3393  0.1091
85984W        W29037  33.776  22.730  26.751  0.1179 -0.0754 -0.1228
85985W        W29038  10.367  10.513   5.385  0.0109 -0.2118  0.0469
85986W        W29039   4.678  31.022   1.590 -0.1098  0.2832 -0.0479
85987W        W29040  33.104  17.940  21.269  0.0268  0.2143 -0.2427
85988W        W29041   6.197  30.131  15.666 -0.2680  0.0760 -0.1231
85989W        W29042   9.589  32.322   4.783 -0.4721  0.1015 -0.1567
85990W        W29043  20.450  16.484   3.281  0.0304 -0.1380  0.1613
85991W        W29044   1.547   9.408   0.613 -0.1716  0.2658 -0.0106
85992W        W29045  21.366  23.415   3.018 -0.1623 -0.1919  0.2979
85993W        W29046  10.293  28.837  19.248  0.0561 -0.2320 -0.2658
85994W        W29047   5.896   9.836   2.162 -0.1616  0.0115  0.0305
85995W        W29048  33.112  15.651  27.653  0.1243 -0.2478  0.3943
85996W        W29049   6.394   3.023  22.071  0.2238 -0.0192 -0.1670
85997W        W29050  11.853  12.551  28.304 -0.0126  0.3865 -0.0697
85998W        W29051   6.417   1.105   3.900 -0.1797 -0.1097  0.3973
85999W        W29052  10.400  26.045   3.797  0.0957 -0.2291 -0.0637
86000W        W29053   2.598  14.388  25.125 -0.0581  0.2993  0.1407
86001W        W29054   9.495  33.948   0.204 -0.0980 -0.2744  0.1111
86002W        W29055  24.340   6.531   2.991  0.2016 -0.4653  0.0164
86003W        W29056  13.484   3.473   6.532 -0.0217 -0.0507  0.1360
86004W        W29057   0.765  29.316  20.560  0.2182  0.0248 -0.1395
86005W        W29058  21.909   0.893  18.994  0.0390  0.2062  0.2529
86006W        W29059  20.025  28.652   2.243  0.1786  0.2410 -0.2006
86007W        W29060  30.860  32.214   7.913  0.2498 -0.0836 -0.2505
86008W        W29061  14.450   6.859  19.691  0.4310 -0.3301  0.0552
86009W        W29062  17.186  29.513  27.446 -0.0187  0.0265 -0.2045
86010W        W29063   7.371  19.138  22.765 -0.3507 -0.2139  0.0223
86011W        W29064   4.463  19.225  25.479  0.2541 -0.3234  0.0752
86012W        W29065  15.990  31.592   5.404  0.0728 -0.2077  0.0346
86013W        W29066   2.020  18.132   1.359 -0.0477  0.2738  0.0031
86014W        W29067   1.300  28.294  24.805  0.1227 -0.1541 -0.2483
86015W        W29068  16.730  19.352   4.134 -0.2431 -0.0880  0.5130
86016W        W29069   8.701   4.841   8.443 -0.0883  0.2076 -0.1636
86017W        W29070  13.535  13.854   4.659 -0.2292 -0.1865  0.1495
86018W        W29071  34.311  26.978   7.865 -0.0774  0.2726 -0.1502
86019W        W29072  12.328   3.169   5.339 -0.1107 -0.1672  0.0772
86020W        W29073   5.978   4.265   8.033 -0.0005  0.2148  0.0122
86021W        W29074  12.606  34.109   7.854 -0.0867 -0.3677  0.0177
86022W        W29075   7.620  31.954  28.072 -0.3382  0.1657  0.0914
86023W        W29076  23.365  29.865  20.918 -0.0356  0.0137  0.2424
86024W        W29077  21.383  27.125  25.706 -0.1139 -0.1271 -0.2569
86025W        W29078  34.582  21.956   1.032 -0.1470 -0.0887 -0.1334
86026W        W29079   8.286  18.703  20.438  0.0069  0.0698 -0.1207
86027W        W29080  31.242   8.028  22.273  0.0330  0.1810  0.3179
86028W        W29081   6.090  23.788   9.371 -0.0126  0.2012 -0.0306
86029W        W29082  23.133  24.522   1.202 -0.0766 -0.0608 -0.0684
86030W        W29083  14.830   8.289  22.785  0.0829 -0.3688 -0.4056
86031W        W29084   0.821   9.565   9.069 -0.0982  0.1243  0.0258
86032W        W29085  31.264  10.253  28.765 -0.0517 -0.0468  0.0875
86033W        W29086  11.932  13.803   9.200  0.0687  0.2452 -0.0281
86034W        W29087  28.402  23.495   2.948 -0.2466 -0.1760 -0.0431
86035W        W29088  28.750  16.723   9.673  0.2522  0.0909  0.1672
86036W        W29089   9.888   9.692   6.558 -0.1219 -0.0387  0.2335
86037W        W29090  15.232  31.229   5.755  0.1571 -0.1065 -0.0018
86038W        W29091  13.566  18.697  18.877  0.0845  0.1138  0.3110
86039W        W29092  15.844  20.091  10.283  0.2014 -0.0555 -0.0224
86040W        W29093   2.760  29.154   0.004  0.5031 -0.0026  0.0407
86041W        W29094   6.541  27.824   4.784 -0.1011  0.0147  0.1508
86042W        W29095   8.387  31.952   8.539 -0.1252 -0.0314  0.1169
86043W        W29096  15.582  32.270   9.458  0.0464  0.0871  0.2898
86044W        W29097  14.853  27.008   7.968 -0.0632  0.0842 -0.4402
86045W        W29098  13.428   3.096   6.202  0.3908  0.1760  0.0284
86046W        W29099   7.288  26.871   9.018 -0.1723  0.2317 -0.0174
86047W        W29100   6.134  29.646   9.658  0.0823 -0.0287  0.3413
86048W        W29101  16.252  21.102   2.060 -0.1655  0.2144 -0.1953
86049W        W29102   0.513   1.910  27.920  0.3226  0.0596  0.1507
86050W        W29103   5.477  23.147   7.785  0.2944  0.1918  0.0864
86051W        W29104  29.395  33.608   2.398 -0.0291 -0.2011 -0.0699
86052W        W29105  22.716   8.419   8.710  0.1594 -0.1438 -0.1621
86053W        W29106  18.464   4.258   3.260  0.1354 -0.0447 -0.1423
86054W        W29107  12.236  30.452   5.734  0.1053  0.0391 -0.2942
86055W        W29108  18.227  19.214   9.337 -0.1327  0.5734  0.1170
86056W        W29109   8.227  32.238   1.118 -0.1339 -0.3770 -0.0960
86057W        W29110   7.460  14.432   2.031 -0.3142  0.0147 -0.2855
86058W        W29111  15.534  12.403   9.028 -0.0217 -0.1791  0.2264
86059W        W29112   7.923   1.868   1.507  0.0326 -0.1012  0.2450
86060W        W29113  33.018  30.181   0.342  0.2560 -0.0822 -0.3838
86061W        W29114  12.949   3.442   7.674  0.0618  0.1338  0.0717
86062W        W29115   7.486   2.790   8.574  0.4293  0.1322 -0.3496
86063W        W29116  22.127  26.264   3.201  0.1251  0.2820  0.1037
86064W        W29117  26.015  11.593   4.098  0.0916  0.1717  0.0025
86065W        W29118   4.123  18.693   4.272  0.1711 -0.0681 -0.1274
86066W        W29119  21.339   1.289   6.512 -0.2410 -0.0464  0.0313
86067W        W29120   1.300   4.008  27.159  0.0546  0.0668 -0.3008
86068W        W29121  12.269  24.425  19.494  0.1317 -0.2027 -0.0779
86069W        W29122  13.653  28.714   4.117 -0.0043  0.1437 -0.0403
86070W        W29123  19.554  29.994   3.065  0.0048  0.1433  0.2102
86071W        W29124   6.708  19.569  25.492  0.3090  0.5197 -0.1156
86072W        W29125  14.537  27.891   5.598  0.2492 -0.0659  0.1698
86073W        W29126   8.126   8.945   9.409 -0.0692 -0.2951  0.0464
86074W        W29127   3.322  24.773  20.058 -0.0656 -0.1074  0.2429
86075W        W29128   1.146  31.632   7.915 -0.1064  0.0804 -0.0101
86076W        W29129  20.453  26.828  26.759 -0.0760  0.2292 -0.3054
86077W        W29130  32.297  34.059  22.996  0.1329  0.1178  0.0198
86078W        W29131  13.992  12.026  23.644  0.0739 -0.2627 -0.2033
86079W        W29132  21.969  32.918  26.333  0.0424 -0.0435  0.0610
86080W        W29133  15.821  23.568  21.740  0.1703 -0.3227  0.0259
86081W        W29134   9.910   2.990   9.462 -0.1249  0.2359  0.2783
86082W        W29135  29.858   0.532  19.637  0.2948  0.1035  0.0168
86083W        W29136  21.725   3.015   8.109  0.0745  0.3388  0.3596
86084W        W29137  15.233   0.476  23.346 -0.1734  0.0355 -0.1450
86085W        W29138  13.399  11.888   5.161 -0.1925  0.1507  0.3782
86086W        W29139  14.436  19.682   4.629  0.0046 -0.0192  0.0059
86087W        W29140  15.048   3.134  26.908 -0.2956 -0.0372  0.0085
86088W        W29141  11.601   1.940   2.188  0.3794 -0.2469  0.0292
86089W        W29142   7.982  28.135  23.688 -0.2982 -0.2752  0.0542
86090W        W29143   4.104  30.702  22.020  0.1239 -0.1473  0.1690
86091W        W29144   4.576   3.903   5.729 -0.1218  0.0149 -0.2415
86092W        W29145   0.295   1.427  27.636  0.1065  0.2524  0.0800
86093W        W29146  14.131  28.089  27.273 -0.0254 -0.0122 -0.3725
86094W        W29147  29.368   2.651   6.313  0.0560 -0.0132 -0.0895
86095W        W29148   7.919  23.104  19.746  0.0985 -0.3619 -0.2829
86096W        W29149   7.875   3.153   6.273  0.1405  0.0995 -0.0472
86097W        W29150  34.100  33.484  24.996 -0.2293 -0.0538  0.2734
86098W        W29151   3.042  27.883  19.272 -0.0798 -0.2156 -0.4090
86099W        W29152   2.195  30.658   5.537  0.0669  0.1716  0.1036
86100W        W29153   7.597  22.833   0.402  0.1910 -0.0433 -0.2462
86101W        W29154  19.851  27.217   6.241  0.1082  0.3403  0.1196
86102W        W29155   3.112  22.314  19.638 -0.1128  0.2654 -0.3984
86103W        W29156   2.435   1.878   4.649  0.1294 -0.0173 -0.1065
86104W        W29157  21.362  14.896  29.081  0.1663  0.1023  0.2210
86105W        W29158   5.929   6.988  21.854 -0.0368  0.1477  0.1839
86106W        W29159  20.163  18.260   6.494  0.2116 -0.1351  0.0144
86107W        W29160   8.330  22.771   1.704  0.2039 -0.3404 -0.0009
86108W        W29161  11.259  27.454  29.164 -0.1329  0.1775 -0.1843
86109W        W29162  30.736   6.990  16.757  0.2775 -0.2991 -0.3192
86110W        W29163  33.343  32.206   7.609 -0.0403  0.2115 -0.1152
86111W        W29164  14.775  23.646  17.930  0.1337 -0.0860 -0.2809
86112W        W29165   0.201  33.254   2.581  0.0791  0.1966  0.1142
86113W        W29166  12.577  27.501   1.483  0.1503  0.2285  0.0743
86114W        W29167  25.521   1.918  21.574  0.1023 -0.1140  0.0225
86115W        W29168   4.271  10.004   4.505 -0.0523 -0.2315 -0.0575
86116W        W29169  15.764  11.920   4.580 -0.0991 -0.2028  0.2011
86117W        W29170  14.702   3.185  19.704  0.1199 -0.2702 -0.0961
86118W        W29171  27.702   5.848  26.116  0.3211  0.0735 -0.2105
86119W        W29172  24.157   5.220   0.557 -0.0992  0.0034  0.2746
86120W        W29173  28.028  33.087   5.616 -0.0378 -0.2351  0.0528
86121W        W29174  23.239  31.174  22.297  0.0290 -0.0105  0.0878
86122W        W29175   8.771  13.213  20.140  0.3458  0.3543 -0.3571
86123W        W29176  17.961  24.317  26.080  0.1952 -0.1806 -0.3822
86124W        W29177  29.313   0.027   7.269  0.0407  0.1056 -0.1681
86125W        W29178  20.213  25.896   4.800 -0.3361  0.1096 -0.0120
86126W        W29179  20.129  26.041  25.010  0.1357  0.1758  0.4165
86127W        W29180  34.628  24.499   5.562 -0.1555 -0.1260  0.1331
86128W        W29181   9.275  24.424  26.061  0.1733 -0.0237  0.0664
86129W        W29182   7.150  25.987   8.772  0.0394  0.0722 -0.2020
86130W        W29183  13.509   4.188   7.899  0.2459 -0.2998  0.1221
86131W        W29184  15.933  20.714   7.799  0.1199 -0.0347 -0.2273
86132W        W29185  14.027  27.633  27.405  0.3686  0.3587 -0.0142
86133W        W29186  19.571   4.998   6.788  0.0586 -0.2084 -0.0112
86134W        W29187   4.170  11.215  27.858 -0.2031 -0.0230 -0.0715
86135W        W29188  17.283  29.857  10.031  0.0515 -0.0375 -0.1561
86136W        W29189  17.415  15.052  24.595 -0.2218  0.4213 -0.1043
86137W        W29190   0.742  21.439   0.126 -0.1333  0.1213  0.4979
86138W        W29191   5.672   1.122   2.375 -0.2303  0.2659  0.1358
86139W        W29192   0.673   7.481  18.556 -0.4229 -0.0718 -0.0520
86140W        W29193  18.287  32.068   8.719  0.1445  0.0050  0.1319
86141W        W29194  13.113   0.417   6.047  0.1166 -0.1072  0.2843
86142W        W29195   3.340   4.283  23.961 -0.3721  0.2827  0.0319
86143W        W29196  20.143  28.476   3.703  0.0819 -0.0859  0.1249
86144W        W29197   1.065  12.207  27.780  0.1438  0.1323  0.2193
86145W        W29198   5.162  13.809  15.818  0.0391  0.1274  0.1834
86146W        W29199   5.806  29.950   5.606 -0.2956  0.4192 -0.0497
86147W        W29200  19.260  32.101   5.404 -0.2898 -0.1346 -0.0383
86148W        W29201  16.080  27.338  29.130 -0.1334 -0.0148  0.0154
86149W        W29202   5.278  29.902  19.714  0.0014  0.2867  0.1077
86150W        W29203   5.718  30.020   4.625 -0.3225 -0.3841  0.2210
86151W        W29204  13.573  32.056   5.568  0.2664 -0.4094 -0.4696
86152W        W29205   7.541  25.197  14.053 -0.1590 -0.0496  0.0963
86153W        W29206   6.971  28.329   0.264 -0.1296  0.0666  0.0508
86154W        W29207   6.392  27.552  28.992 -0.1644 -0.0087 -0.0482
86155W        W29208  19.354  30.561   7.024  0.2500  0.1496 -0.2175
86156W        W29209   4.635   8.328   3.482  0.1032 -0.0159  0.1014
86157W        W29210  17.293  14.237   1.416 -0.0166  0.1383 -0.1227
86158W        W29211   5.066  28.133   1.010  0.0368 -0.0198  0.1182
86159W        W29212  31.419   2.826  25.303 -0.3271  0.1802 -0.2011
86160W        W29213   9.658   3.262   5.066  0.2680 -0.2016 -0.1203
86161W        W29214  21.867  32.485  21.912 -0.2583  0.0083 -0.0854
86162W        W29215  12.308   0.674   9.015  0.1612 -0.0302  0.1406
86163W        W29216   1.156  25.783   8.209  0.1332 -0.0460 -0.0390
86164W        W29217  32.922  21.151   3.180  0.0259  0.0130  0.1925
86165W        W29218  27.068   6.326  14.112  0.1885  0.0098  0.0139
86166W        W29219   4.191  29.088   4.872 -0.0094  0.1844 -0.0045
86167W        W29220  15.292   2.365   8.621 -0.1929 -0.0099  0.3704
86168W        W29221  19.643  31.518  27.358 -0.2106 -0.1190  0.0195
86169W        W29222  18.670  25.962  16.339 -0.0598 -0.1958 -0.1679
86170W        W29223  12.820  30.123   8.557  0.2557 -0.2688 -0.0945
86171W        W29224  21.935  28.597  27.174  0.2489  0.2397 -0.0261
86172W        W29225  32.968  25.702  14.137  0.3665 -0.2466 -0.1811
86173W        W29226   0.882   5.792   2.112 -0.1527  0.1136 -0.0376
86174W        W29227   8.586  22.619   3.351  0.2743  0.0622  0.1239
86175W        W29228  29.785   8.446   5.588  0.2020 -0.2152 -0.1092
86176W        W29229   1.866  32.186  21.591  0.0212  0.1071  0.0072
86177W        W29230   7.104  26.688   0.639  0.3034 -0.0833 -0.0131
86178W        W29231  21.345   7.458   6.991 -0.1085  0.2299  0.2597
86179W        W29232   8.713  25.278  21.287  0.0859 -0.4283 -0.2891
86180W        W29233   5.232  13.297   1.749  0.2430 -0.0780 -0.1538
86181W        W29234   9.269   4.099   4.954  0.0785 -0.3142  0.3557
86182W        W29235   7.288  31.089   3.723 -0.1268 -0.2152 -0.0986
86183W        W29236  20.914  26.780   1.749 -0.1900 -0.0382  0.2059
86184W        W29237  16.124  26.719  21.457  0.1447 -0.2789 -0.2218
86185W        W29238  10.419  26.988  22.746  0.1622 -0.0618 -0.1399
86186W        W29239   5.448   5.422   4.482  0.3808 -0.0499 -0.0849
86187W        W29240  30.130   2.783   9.713  0.2782 -0.0153 -0.0259
86188W        W29241  14.676  25.395   3.359 -0.0465  0.0543 -0.2084
86189W        W29242  13.674  11.609   8.101 -0.1851 -0.1816 -0.0458
86190W        W29243   4.522  24.750   3.425 -0.1053  0.1255 -0.2135
86191W        W29244  18.352  17.330   0.055 -0.0431  0.0387  0.1496
86192W        W29245  14.677  25.665   9.795 -0.1321  0.2715  0.5509
86193W        W29246  16.414  20.278   3.890 -0.1916 -0.3668  0.5376
86194W        W29247   6.961  27.615   6.647  0.1791 -0.1061 -0.0038
86195W        W29248   3.698  24.068   1.463 -0.2527  0.6276 -0.2985
86196W        W29249  28.564  34.142   7.421 -0.1245  0.0750 -0.1210
86197W        W29250  13.832   9.313   5.180  0.3150 -0.3818  0.0781
86198W        W29251  19.987  33.272  10.578  0.0860 -0.2581 -0.1701
86199W        W29252   9.509  23.459   2.552  0.2235  0.1032 -0.0983
86200W        W29253  13.868  15.016   0.664  0.1038 -0.1487  0.1279
86201W        W29254  29.182  31.683   1.400 -0.0179  0.1833  0.0235
86202W        W29255   5.926  24.296  26.162 -0.0400  0.1668  0.2207
86203W        W29256  11.645  10.044   7.491  0.1902  0.1787 -0.2735
86204W        W29257  10.143  26.206  22.157  0.0240 -0.2732 -0.3254
86205W        W29258  21.657  23.322  18.037  0.1033 -0.0467 -0.0279
86206W        W29259  14.935  26.279  22.538  0.0134 -0.2376  0.0033
86207W        W29260   2.955  13.144   6.443  0.4960  0.4307  0.1582
86208W        W29261  29.858  29.478   5.978  0.4470  0.3029 -0.2494
86209W        W29262   2.793  16.614  19.143 -0.0405  0.0070 -0.1246
86210W        W29263  17.023  20.444  28.483  0.0768 -0.1802  0.0971
86211W        W29264   7.564  24.972  26.703  0.2596 -0.3790 -0.2082
86212W        W29265  18.718  24.804   6.511 -0.0676  0.1486  0.0940
86213W        W29266  10.679  29.050   4.052  0.1782  0.3107 -0.0206
86214W        W29267   5.969   0.607  26.354 -0.1218  0.3093  0.1057
86215W        W29268   4.237   7.501   2.138  0.0299 -0.0320 -0.1188
86216W        W29269  32.314  25.189  23.040 -0.2601 -0.1729  0.1246
86217W        W29270  12.760  12.323   2.339 -0.0976  0.1559  0.0139
86218W        W29271  21.993  32.670   5.403  0.2035 -0.1220 -0.2382
86219W        W29272  33.186   8.514   9.233  0.0933  0.1746 -0.1454
86220W        W29273   1.704   4.757  22.815 -0.0920  0.0538 -0.0719
86221W        W29274  15.969  32.182  24.684  0.0776  0.1467  0.1112
86222W        W29275   8.957  10.200   8.544  0.0740 -0.0090 -0.0817
86223W        W29276  10.545  19.908   1.916 -0.0637 -0.1403  0.0762
86224W        W29277  29.962  15.506   6.536 -0.2254  0.0536 -0.2149
86225W        W29278  31.390  22.846   7.717 -0.2664 -0.0759  0.0023
86226W        W29279   8.373  29.042  20.358 -0.1962  0.0598 -0.0155
86227W        W29280  18.989  12.111  22.113 -0.0266 -0.0237  0.0013
86228W        W29281  16.258   3.750  27.717  0.1195  0.1135 -0.0335
86229W        W29282  25.761   0.791  25.830  0.0715  0.1774  0.1060
86230W        W29283  28.814  27.080   8.111  0.2043 -0.3613 -0.1642
86231W        W29284   2.331   0.283  27.299 -0.1790  0.0668 -0.0860
86232W        W29285  14.342  31.655  24.782  0.0477 -0.0108  0.1831
86233W        W29286  13.531  24.778  27.003  0.1823  0.0203 -0.3168
86234W        W29287  15.037  24.019  24.590 -0.2355 -0.0214 -0.1197
86235W        W29288  15.596  29.338   2.605  0.1239  0.2415  0.1214
86236W        W29289  33.773   4.587   8.071 -0.2200 -0.2462  0.1746
86237W        W29290   0.340   7.424  29.024 -0.1174 -0.0013 -0.3398
86238W        W29291   8.428  24.901  27.139  0.0879  0.0782 -0.1108
86239W        W29292  17.405  27.259   8.131  0.3720  0.0401 -0.1823
86240W        W29293  13.211  14.520  19.472  0.1504 -0.1258  0.1985
86241W        W29294  33.133  27.921   2.806  0.0075  0.1176  0.1100
86242W        W29295  16.237  31.286   6.079  0.0628  0.0771 -0.0680
86243W        W29296  10.196  11.130  19.422  0.0872  0.0965  0.1478
86244W        W29297  34.658  21.926   8.278  0.2423  0.2498 -0.0585
86245W        W29298  11.768   3.353   8.471  0.1067 -0.1976  0.1380
86246W        W29299  23.715   9.824   8.098  0.2242 -0.2649 -0.0458
86247W        W29300  31.244  22.120   4.422 -0.2515 -0.0314  0.2204
86248W        W29301  23.958  32.269   6.185  0.0762 -0.2773  0.3255
86249W        W29302  27.631  10.884   6.037 -0.1832  0.3140 -0.1242
86250W        W29303   0.042  26.196   4.793 -0.2708 -0.1766  0.0701
86251W        W29304  12.806   5.865   5.854  0.1814 -0.3046  0.3447
86252W        W29305   9.504   3.020  20.647  0.2098 -0.1487  0.3497
86253W        W29306   2.931  29.132  23.870  0.4417 -0.0312 -0.2634
86254W        W29307   5.930  29.610   7.482 -0.3585  0.1806  0.2664
86255W        W29308  32.502  32.287   2.925 -0.0380 -0.0345  0.3316
86256W        W29309  11.980   5.201  27.238 -0.0549 -0.0330 -0.1574
86257W        W29310  19.149  34.635  25.317 -0.0371  0.2551  0.1623
86258W        W29311  14.680  14.780  23.922 -0.0479  0.1978 -0.2256
86259W        W29312  14.699  15.039   7.570  0.2457 -0.2739  0.3298
86260W        W29313   5.812   0.591  28.020 -0.2417 -0.1805 -0.1342
86261W        W29314   9.641   2.122  10.439 -0.1118 -0.0405  0.0936
86262W        W29315   8.865  29.763   7.582 -0.4864 -0.1926  0.0168
86263W        W29316  28.621  20.981   0.829 -0.1206 -0.0431 -0.2238
86264W        W29317   9.341  28.737   1.470 -0.1754  0.0216 -0.0890
86265W        W29318  25.800  22.588  10.563  0.0053  0.1146 -0.1245
86266W        W29319  10.368  25.016  28.217  0.3224 -0.1644  0.1161
86267W        W29320  31.429  13.361  24.451 -0.4333  0.1066 -0.1193
86268W        W29321  21.013   2.771   8.579  0.3663 -0.0120 -0.3867
86269W        W29322   7.129  21.222   0.979 -0.0378 -0.0372 -0.0566
86270W        W29323   9.726   7.307  10.778  0.3069 -0.2348  0.1885
86271W        W29324  21.302  27.486   5.219 -0.0237 -0.1493 -0.0001
86272W        W29325   8.694   5.620   8.904 -0.1143  0.4310 -0.2166
86273W        W29326   6.292   6.303  10.019  0.1455  0.1530  0.2197
86274W        W29327   3.270   7.463   2.681 -0.3568  0.0665 -0.0452
86275W        W29328  12.722   8.311   7.968 -0.0109  0.0377  0.1733
86276W        W29329   3.976   8.893  25.277  0.2127  0.2661  0.1623
86277W        W29330   6.815  20.116   9.814  0.2301 -0.1772 -0.0210
86278W        W29331  14.842  15.442  16.868  0.0559 -0.0515  0.0063
86279W        W29332  26.194  18.629   6.272 -0.4486 -0.0635 -0.1283
86280W        W29333  18.128  15.442   3.386 -0.3805  0.4052  0.2839
86281W        W29334  20.711   2.360   3.418 -0.1918 -0.0398  0.2000
86282W        W29335  11.536   1.576  25.984  0.0455  0.1038  0.0436
86283W        W29336  19.045  29.623  28.573 -0.2618  0.1949  0.2299
86284W        W29337  30.165   2.239  28.231  0.0448 -0.1104  0.0193
86285W        W29338  18.139  28.955  19.800 -0.3795  0.0114  0.2558
86286W        W29339   4.794   0.479   0.239  0.3658 -0.2308  0.0765
86287W        W29340   8.975  21.657   9.383 -0.0265 -0.2467 -0.0459
86288W        W29341  12.977  29.862  27.421  0.2473  0.0478 -0.1466
86289W        W29342  21.339  23.782   3.689 -0.1215  0.0600  0.4204
86290W        W29343   9.784  21.451   7.417 -0.2751 -0.1572  0.4145
86291W        W29344  25.703   2.979   4.599 -0.0403  0.1119 -0.3123
86292W        W29345   9.811  14.770   4.948 -0.0770  0.2010 -0.0999
86293W        W29346  33.086   6.765   5.637  0.1615 -0.0108  0.0604
86294W        W29347   9.103  27.890   2.437 -0.2274  0.0631 -0.0223
86295W        W29348  23.665  27.460  22.872 -0.0918 -0.1084  0.0168
86296W        W29349   0.857  30.441   5.358  0.1245 -0.1490  0.1878
86297W        W29350  18.487  11.937   8.897 -0.2528 -0.2382 -0.0527
86298W        W29351   3.826  16.409   5.982 -0.0258 -0.2484  0.1894
86299W        W29352  13.133  30.930   8.984  0.1144 -0.0184  0.0962
86300W        W29353   5.478  32.761   6.876  0.0335  0.1465 -0.2223
86301W        W29354   7.986   7.242  26.676  0.2661 -0.2140  0.4040
86302W        W29355  13.524  28.719   1.721  0.2648  0.1940 -0.0075
86303W        W29356  34.087  31.750  28.082  0.1844 -0.0980  0.0931
86304W        W29357  16.851  12.042   8.712 -0.3081 -0.0764  0.2070
86305W        W29358  22.458  34.176   0.054  0.1950 -0.0318 -0.2145
86306W        W29359  14.341  29.456   1.495  0.3376  0.1434  0.0404
86307W        W29360  13.706  17.386   8.664 -0.1090  0.2892  0.1296
86308W        W29361   0.339  27.629   9.465 -0.1525 -0.1811  0.0188
86309W        W29362  19.611  13.137   5.369 -0.1247 -0.1403 -0.2799
86310W        W29363  18.092  28.813  26.471 -0.2002 -0.0351  0.0283
86311W        W29364  18.277   1.746  22.956  0.1417 -0.0260  0.2311
86312W        W29365  23.979  29.263   1.613 -0.3169  0.0946 -0.2032
86313W        W29366  14.148  34.116   5.441 -0.2659 -0.0658 -0.0446
86314W        W29367  19.336  28.517  26.792 -0.1661 -0.1653  0.0368
86315W        W29368  20.776  29.703   9.808 -0.2783  0.1906  0.2526
86316W        W29369  33.877  16.239  18.743 -0.3199  0.0714  0.4097
86317W        W29370  12.804   0.035  25.568 -0.3562 -0.1005 -0.1770
86318W        W29371   3.755   9.926   3.761 -0.1017 -0.4101 -0.0011
86319W        W29372  11.291  10.536  26.074 -0.0776  0.1350  0.1166
86320W        W29373  13.485  21.095   8.463  0.0897  0.0537  0.0113
86321W        W29374  15.391  29.200  26.215 -0.0442  0.0902  0.1234
86322W        W29375  28.522   1.782   3.157  0.2534  0.0395 -0.3256
86323W        W29376  19.240   3.907   2.113 -0.1947 -0.2010 -0.0145
86324W        W29377  11.260  29.173  26.453 -0.1791 -0.0675 -0.0201
86325W        W29378  26.793  32.894  16.976 -0.0108  0.1299 -0.1531
86326W        W29379   1.300   8.695   9.352 -0.1576  0.1084 -0.1295
86327W        W29380  10.083   3.682   4.039 -0.0246 -0.2230 -0.0978
86328W        W29381  12.490  30.651  28.279 -0.0337  0.1545 -0.1462
86329W        W29382  17.325  30.320  27.829  0.1981  0.1778 -0.1526
86330W        W29383  16.193  28.345  22.231  0.1073  0.0035  0.0931
86331W        W29384   4.999  11.253   3.046  0.1041  0.1231  0.2932
86332W        W29385  17.705  18.555   9.551 -0.0470 -0.1558  0.2063
86333W        W29386   8.210  33.746   0.146 -0.2546 -0.0216 -0.2429
86334W        W29387  31.208  27.544   2.769  0.0416  0.3601 -0.0129
86335W        W29388  22.870   3.395  24.358 -0.1659  0.1112  0.2253
86336W        W29389  21.228   4.985   3.889  0.2387 -0.3033 -0.0616
86337W        W29390  13.516  30.965   9.324  0.0319  0.1492 -0.1775
86338W        W29391  18.339  15.088   7.123 -0.2539 -0.1657  0.1559
86339W        W29392  20.077   6.541  28.502 -0.0475 -0.3591 -0.2962
86340W        W29393   7.783  18.673   0.251 -0.1233 -0.2070  0.0143
86341W        W29394   6.898  15.970   7.264  0.2552  0.0734 -0.2875
86342W        W29395   5.630  27.926   3.346 -0.0825 -0.1073  0.0069
86343W        W29396  10.137   7.934   7.530 -0.0384 -0.3763  0.2925
86344W        W29397  24.776   4.920   5.995  0.0915 -0.0149 -0.2449
86345W        W29398  27.268  28.638  18.636 -0.0602 -0.2552  0.4684
86346W        W29399   7.144  34.174  27.172  0.0549 -0.0805 -0.2281
86347W        W29400   2.313  25.706  16.896  0.1455 -0.0511  0.1238
86348W        W29401  14.710   2.801   8.751 -0.0299  0.1203  0.1027
86349W        W29402  32.326  33.801  21.775  0.1950 -0.0318  0.1304
86350W        W29403   6.238  21.382  24.445 -0.0711 -0.0503  0.0284
86351W        W29404   3.513  16.571  22.384 -0.0969 -0.0698  0.0775
86352W        W29405  22.606  32.038   3.348  0.2730  0.0905  0.3179
86353W        W29406  34.415   3.763  24.496  0.1079 -0.2290 -0.1707
86354W        W29407  17.228   2.838   0.376  0.2442  0.0952  0.1383
86355W        W29408  13.176  24.745   8.052 -0.0985  0.1935 -0.2513
86356W        W29409  10.136  23.416  25.473 -0.0484 -0.2348  0.0863
86357W        W29410  17.448   4.646   6.709 -0.2941  0.3469 -0.3408
86358W        W29411  31.592   9.012   2.855 -0.0070  0.1784  0.0789
86359W        W29412   1.991   4.009   8.411  0.1752  0.2736  0.0067
86360W        W29413  27.360  33.986  24.099  0.0293  0.4596 -0.2233
86361W        W29414   7.975  24.042   0.171 -0.1921  0.0974 -0.1215
86362W        W29415  14.719  34.075   0.445 -0.0545 -0.0074 -0.0012
86363W        W29416   3.585  14.641   3.667  0.1908  0.0862  0.2746
86364W        W29417  13.014   0.381  17.021  0.3119  0.1662 -0.1299
86365W        W29418  28.771  26.011  23.903  0.0483  0.1671 -0.0830
86366W        W29419  13.545  21.751   9.654 -0.0318 -0.0296 -0.2392
86367W        W29420   9.349  23.614  28.296 -0.1177 -0.0956  0.0772
86368W        W29421   3.243  16.885   2.073 -0.0720 -0.1225 -0.4305
86369W        W29422  11.824  30.757   4.374 -0.2093  0.3413  0.3674
86370W        W29423  27.290  20.649   8.637  0.3744 -0.1236 -0.2831
86371W        W29424  17.202  24.911  23.741 -0.0302  0.2174  0.1210
86372W        W29425  10.446   8.570  28.549  0.1830  0.1786 -0.1213
86373W        W29426  14.805  16.342   8.030  0.0729 -0.0515  0.2502
86374W        W29427   6.712  24.410   9.087 -0.0325  0.0665 -0.3697
86375W        W29428   9.019  29.683   6.275  0.0653  0.0857  0.0316
86376W        W29429   6.032  28.695   9.230 -0.3737  0.0220 -0.2829
86377W        W29430  17.742   1.051   2.563 -0.0860 -0.4287  0.1461
86378W        W29431   1.882  30.683   9.293  0.0589 -0.5347 -0.1280
86379W        W29432   2.347  15.437   2.750 -0.2175  0.1965  0.0598
86380W        W29433   0.593  34.598  26.539 -0.0937 -0.0922  0.2178
86381W        W29434   0.474  13.074  22.963 -0.2645  0.3745 -0.0461
86382W        W29435   5.594  32.987   0.412 -0.2761 -0.1429  0.1199
86383W        W29436  13.007   4.025  15.948 -0.2431  0.0262  0.2431
86384W        W29437   3.150   2.569   6.688  0.3501 -0.3266  0.2525
86385W        W29438  12.889   3.034   4.646  0.1464 -0.1538  0.0642
86386W        W29439  22.984  24.633   0.188  0.2621 -0.0357  0.2790
86387W        W29440  20.798   5.040   5.119  0.3756 -0.1707 -0.1976
86388W        W29441  20.858  27.147  29.166  0.3751  0.1189  0.1678
86389W        W29442   4.273  15.082  25.434 -0.0569 -0.1528 -0.1649
86390W        W29443   4.100   6.162   9.305  0.1051  0.2812  0.0265
86391W        W29444   6.058  10.594  27.242 -0.0860  0.0410 -0.2482
86392W        W29445  14.712   3.042   7.411  0.0080  0.2828  0.0386
86393W        W29446  20.698  29.609  10.362  0.0489 -0.5191  0.1808
86394W        W29447  30.264   1.607   9.288  0.0974  0.0268 -0.1033
86395W        W29448  23.546  21.003   5.791 -0.0425 -0.4461  0.1554
86396W        W29449   0.132  30.683  19.216 -0.1148  0.3635 -0.0558
86397W        W29450  13.052  11.725   0.566 -0.0376  0.0615  0.0626
86398W        W29451   9.747  21.154   0.199  0.1126 -0.0485 -0.0830
86399W        W29452  16.002  14.938   1.509 -0.2860 -0.1485 -0.1275
86400W        W29453  24.403  30.486   8.311  0.0591 -0.1976  0.0813
86401W        W29454  12.707  15.295  26.461  0.0977  0.1104 -0.2456
86402W        W29455   5.085  32.213  28.741  0.2162  0.2111 -0.1717
86403W        W29456   3.110  13.530   5.267 -0.1664 -0.0427  0.3156
86404W        W29457  19.324   7.652  10.555 -0.0048 -0.0610  0.0070
86405W        W29458   6.157  29.130   9.438 -0.0207  0.2699  0.0052
86406W        W29459   6.353  22.561   0.526  0.1472 -0.2903  0.1830
86407W        W29460   1.933  28.618   1.248  0.0345  0.1095 -0.1519
86408W        W29461   6.538  12.179   1.052  0.0757 -0.2307 -0.1317
86409W        W29462   9.692   4.324   4.687  0.1207 -0.0989 -0.1752
86410W        W29463  10.729   4.599  19.188  0.0486 -0.1188  0.0139
86411W        W29464   4.644  22.205   4.590 -0.1165  0.0730  0.2962
86412W        W29465  12.578  20.555  28.902 -0.1886 -0.1624  0.3745
86413W        W29466  22.356   6.608  28.978  0.0095 -0.3633  0.2705
86414W        W29467   6.318  22.026  27.598  0.0857 -0.0613  0.1179
86415W        W29468  23.316  24.172   5.310  0.0619 -0.0989 -0.0164
86416W        W29469  23.164  24.484   2.676 -0.1648 -0.0328  0.0186
86417W        W29470  16.939  20.419  27.090 -0.1134 -0.0466  0.1354
86418W        W29471   9.864  33.422  28.451  0.2175  0.0659  0.2727
86419W        W29472  13.932   3.771   6.334 -0.0263  0.1539  0.1745
86420W        W29473  22.304  30.312   4.546 -0.1742 -0.1170 -0.1206
86421W        W29474   9.875  20.389   2.633 -0.1422 -0.1167  0.0631
86422W        W29475  22.036  18.455   7.072 -0.0448  0.4395 -0.0286
86423W        W29476   9.251   9.821  19.807  0.0337  0.0653 -0.2062
86424W        W29477  23.069   2.109  20.145 -0.0829 -0.0024  0.1944
86425W        W29478   4.391  20.256   6.580  0.0881  0.1999 -0.1769
86426W        W29479  10.407  31.932  21.299 -0.3531 -0.1246 -0.0122
86427W        W29480   7.208  30.514  28.229 -0.1980 -0.0479  0.0266
86428W        W29481   5.010  28.605  24.304  0.4789  0.1759 -0.2439
86429W        W29482  13.097  26.127   4.752 -0.0262  0.0948 -0.2957
86430W        W29483   8.875  25.641  27.856 -0.2210 -0.0145 -0.1113
86431W        W29484  21.485  30.531   1.411 -0.0492  0.1855 -0.1080
86432W        W29485   7.526   2.000  15.179 -0.0387 -0.0258 -0.1122
86433W        W29486  10.036  29.548   7.977 -0.1379  0.0983  0.1294
86434W        W29487  16.793  17.892  26.551 -0.2088 -0.1104 -0.4094
86435W        W29488   6.328  29.863   4.659  0.0093  0.0337 -0.4786
86436W        W29489  14.202  13.337   0.327 -0.2866 -0.0139 -0.0442
86437W        W29490  32.376   9.936   5.462 -0.2451  0.0226  0.4405
86438W        W29491  23.792  25.873  17.488  0.0660 -0.1221  0.1404
86439W        W29492   9.407  29.919  23.096 -0.0633 -0.2234  0.1523
86440W        W29493   4.662  26.950   1.684 -0.0661 -0.0095 -0.1498
86441W        W29494   8.339   4.777   2.110 -0.1187 -0.4813  0.0981
86442W        W29495  22.872   4.249   2.557 -0.1929 -0.0072  0.2769
86443W        W29496   1.637  16.651   2.518  0.5979 -0.3067  0.2591
86444W        W29497  18.988  33.818  21.319 -0.1421 -0.0820 -0.0467
86445W        W29498  16.615   4.583   7.811  0.1381 -0.0824 -0.1111
86446W        W29499  30.349  27.409  28.361 -0.1526  0.1344 -0.0227
86447W        W29500  27.419  18.629   0.509  0.3816  0.1101 -0.0003
86448W        W29501   4.620   1.515  26.660  0.0266  0.3156 -0.0261
86449W        W29502  17.119  27.686  10.088  0.2318 -0.2052  0.1970
86450W        W29503  31.056  30.359   3.956 -0.2611  0.2472  0.0239
86451W        W29504  13.064  33.255   8.038  0.0891 -0.1719  0.2289
86452W        W29505  16.479   4.529  20.848  0.1845  0.1386  0.0835
86453W        W29506   4.261  31.982   1.133  0.1985 -0.2049  0.1973
86454W        W29507  17.411  19.907   7.821  0.0428 -0.2911 -0.3306
86455W        W29508  11.349  25.828   7.118  0.1800 -0.3299  0.0351
86456W        W29509  21.578  27.976   4.488  0.3340  0.1189  0.0932
86457W        W29510  14.173  26.795   6.509 -0.1297  0.0995 -0.1126
86458W        W29511  16.073  22.251   5.093 -0.1334  0.2326 -0.0394
86459W        W29512   6.079  33.159   7.175  0.1015  0.3176  0.2497
86460W        W29513   5.225   2.317   3.682  0.0674  0.0698 -0.1922
86461W        W29514  15.071  28.721  27.213  0.0646 -0.0331  0.0828
86462W        W29515  32.286  11.162   7.831  0.0590  0.1904  0.0566
86463W        W29516   5.986  23.197   5.235 -0.0727 -0.3988  0.0676
86464W        W29517   0.782  31.584   8.315  0.0634  0.0041 -0.0988
86465W        W29518  12.095  23.622   5.352  0.1460 -0.1923  0.2019
86466W        W29519   5.169  24.132  21.217 -0.0340  0.3566  0.1997
86467W        W29520  17.608  17.823   7.782  0.2014  0.3264 -0.1753
86468W        W29521  17.312  30.113  25.700  0.1875  0.0785  0.1568
86469W        W29522   5.619  21.892   2.902 -0.0818  0.2132 -0.0881
86470W        W29523   9.518   2.767   6.904  0.0725  0.3263  0.0044
86471W        W29524   9.128  22.610   2.702  0.0826 -0.1806 -0.2587
86472W        W29525  11.207  19.613  27.825  0.0516  0.1809  0.1545
86473W        W29526   7.791   1.823   8.275 -0.1138 -0.0397  0.0682
86474W        W29527  26.906  21.881   5.409 -0.0255  0.0005  0.0212
86475W        W29528   7.679  30.636   4.876  0.1303  0.3340 -0.0109
86476W        W29529  19.759  17.714   3.050 -0.0487  0.1291  0.0997
86477W        W29530  18.662  14.284   2.798  0.0913 -0.0674  0.1199
86478W        W29531  20.163  33.409   0.738  0.0074  0.0434  0.0989
86479W        W29532   4.851   2.345   2.222  0.0281  0.0468  0.0596
86480W        W29533   6.820  14.942   9.410 -0.1230 -0.1250 -0.0214
86481W        W29534   9.405  26.054   9.353  0.2369 -0.0804 -0.0159
86482W        W29535  10.741   8.666   4.635  0.1187  0.1646  0.3239
86483W        W29536   5.806  30.191   6.068 -0.0579  0.0395  0.2103
86484W        W29537  13.572   2.146   6.127  0.0117  0.1606  0.0080
86485W        W29538   3.041  20.161   5.694 -0.0622 -0.1640 -0.1519
86486W        W29539  10.268  23.748   4.912  0.0293  0.0561 -0.1224
86487W        W29540  11.324  11.662   7.371 -0.2384 -0.0130  0.1936
86488W        W29541  34.462  29.428   7.026  0.2705  0.0223 -0.2682
86489W        W29542  23.024  28.350  26.483  0.0221 -0.0027 -0.1310
86490W        W29543  11.734  33.328  19.054  0.2250 -0.1208 -0.1648
86491W        W29544  29.581  31.374   3.618  0.0500  0.1554 -0.1690
86492W        W29545  33.059  30.903   7.049  0.3140  0.2220 -0.0331
86493W        W29546   4.526  13.114   1.854  0.0370 -0.1147 -0.1664
86494W        W29547   4.067  21.310   5.557 -0.1116  0.2063  0.2906
86495W        W29548  20.990  21.723   9.711  0.0591 -0.2391 -0.0109
86496W        W29549  12.237   8.960   2.948 -0.2797 -0.0975  0.0927
86497W        W29550  26.636   0.722  28.817 -0.0366 -0.0246  0.3202
86498W        W29551   1.991  28.124   3.687 -0.1733 -0.0422 -0.2969
86499W        W29552   9.661  27.705  25.186 -0.3904 -0.1049 -0.0647
86500W        W29553   7.276  20.006  23.531  0.1320  0.0730 -0.1281
86501W        W29554   4.430  25.887   0.988  0.2179  0.2284 -0.2115
86502W        W29555   5.280  26.652   5.803 -0.1326  0.0764 -0.0316
86503W        W29556  11.664  25.716   4.285  0.3463  0.2978 -0.0109
86504W        W29557  17.283   9.008  28.407 -0.0231  0.0426  0.0141
86505W        W29558   9.657  32.125   6.501  0.1468  0.0499 -0.0624
86506W        W29559  18.552  18.847   4.310  0.0598  0.1330 -0.2680
86507W        W29560  10.636   9.634   1.340  0.2155 -0.2010 -0.2147
86508W        W29561   7.356   2.793   2.142  0.2782 -0.3854 -0.2010
86509W        W29562  10.724   5.253   7.331  0.2610  0.2625  0.1818
86510W        W29563   8.416  32.727   1.969 -0.0771  0.1084  0.3229
86511W        W29564  20.612  19.480   7.200 -0.2128 -0.1645  0.2073
86512W        W29565   4.155  29.464   3.036 -0.1275 -0.0137 -0.0588
86513W        W29566  31.144  26.057  27.752 -0.0968  0.0345  0.0241
86514W        W29567  14.015  32.878  27.416 -0.0111  0.4096  0.4204
86515W        W29568   7.684  34.529  29.129 -0.1818 -0.0258 -0.1207
86516W        W29569  32.705   2.733  23.197 -0.1990 -0.0166  0.0603
86517W        W29570  21.350  10.869   6.372  0.0983 -0.0461  0.4436
86518W        W29571   3.141  22.213   1.991  0.0304 -0.1483  0.1062
86519W        W29572  15.860  34.411   8.945  0.2432  0.0947 -0.1366
86520W        W29573   6.336   4.050   5.371  0.1195  0.2133 -0.0561
86521W        W29574   3.987  22.567   3.174 -0.1769  0.3002  0.0039
86522W        W29575  19.184  10.105   9.711 -0.0468  0.1766 -0.2222
86523W        W29576  18.872  32.559   8.943 -0.0816 -0.0213  0.1156
86524W        W29577   8.352  18.212  25.112 -0.3030  0.1979  0.3047
86525W        W29578  16.088   1.750   7.025  0.1481 -0.0388 -0.0817
86526W        W29579   6.019   6.294   9.534 -0.0899 -0.0151 -0.1257
86527W        W29580   8.400  21.231   6.970  0.2136  0.2425 -0.0959
86528W        W29581  14.194   5.263   0.988  0.1278 -0.0510 -0.5392
86529W        W29582  12.322   9.767  27.388  0.1243 -0.3518  0.1023
86530W        W29583   6.599  20.495   7.719  0.1999 -0.1169 -0.1333
86531W        W29584  21.616   6.226   6.566 -0.0422 -0.0910  0.2766
86532W        W29585   2.250   4.029   1.662 -0.1267  0.1000  0.2659
86533W        W29586  21.911  31.374   5.874  0.3089  0.0587 -0.0958
86534W        W29587  30.647  34.253   7.033 -0.2100  0.0469 -0.0451
86535W        W29588  12.016   1.913   7.494  0.3846  0.2449 -0.1482
86536W        W29589   5.017   1.698   4.547  0.3399 -0.1475  0.2847
86537W        W29590   7.647   4.341  29.019 -0.1002 -0.2887 -0.0288
86538W        W29591   1.431  30.697   4.976 -0.0798  0.1502 -0.0558
86539W        W29592  27.192   7.624   4.475  0.1849 -0.1790 -0.1649
86540W        W29593  15.654   5.204   2.560 -0.1369  0.1051 -0.0373
86541W        W29594   4.400  32.455   0.061  0.3625 -0.0270  0.0372
86542W        W29595  10.374  24.487   1.867  0.1513  0.2158  0.0979
86543W        W29596  14.777  19.823   4.274  0.4012 -0.0142 -0.1730
86544W        W29597  27.465  33.270   4.025 -0.1388 -0.1323 -0.3037
86545W        W29598  19.399  25.839   6.301  0.1530  0.0337 -0.1952
86546W        W29599  28.073  18.486  28.960  0.2021 -0.1558 -0.4014
86547W        W29600  13.651  24.418   0.612 -0.2756 -0.0519  0.0471
86548W        W29601  10.082  28.462   3.105 -0.0922  0.0594  0.2896
86549W        W29602   4.227  19.227   0.998 -0.2269  0.1902 -0.2178
86550W        W29603   5.139  24.983  18.807 -0.0395 -0.0414  0.2379
86551W        W29604  32.654   0.132   8.872 -0.0906 -0.0818  0.0619
86552W        W29605  32.037  24.054  21.500  0.2047  0.0918 -0.3708
86553W        W29606  10.128  31.406  27.665  0.4765  0.2082 -0.1091
86554W        W29607  21.511  16.298   8.392 -0.0195  0.3780 -0.0176
86555W        W29608  16.750   0.154   2.666  0.3294 -0.1929  0.0142
86556W        W29609  34.419  30.686   2.519 -0.0900  0.0614  0.0439
86557W        W29610  10.417  32.642  23.334  0.0153 -0.2819  0.2195
86558W        W29611  30.078  25.600   4.567 -0.1490  0.4185  0.1417
86559W        W29612   3.935  27.784   4.278  0.1797  0.0025  0.0570
86560W        W29613  17.270  31.087   0.930  0.0991 -0.0114  0.4741
86561W        W29614  22.820  28.688   8.866 -0.1349 -0.0759 -0.1350
86562W        W29615  32.933   3.602   9.279 -0.0509  0.1945  0.2142
86563W        W29616   2.241  23.598   2.852  0.0699  0.1656  0.2330
86564W        W29617  17.570  19.620  14.515 -0.0836  0.0504  0.4220
86565W        W29618   8.550   9.223   4.495  0.0341 -0.2402  0.0925
86566W        W29619  19.499   5.992  10.391 -0.0007 -0.0758  0.3248
86567W        W29620   1.622  29.304  26.428  0.0957  0.3223 -0.0265
86568W        W29621  14.046   6.020   2.479 -0.3704 -0.3241  0.1044
86569W        W29622   0.881  30.073   6.583  0.0431 -0.1862 -0.4357
86570W        W29623   9.891  30.590   5.254  0.0387  0.0632  0.0124
86571W        W29624  21.054  15.679  23.748 -0.0212 -0.2052 -0.2191
86572W        W29625   2.965  30.145   7.745 -0.1169  0.1763  0.0138
86573W        W29626  15.164  33.397   1.195  0.1994 -0.0502 -0.4027
86574W        W29627  21.782   5.617   1.057 -0.1743  0.1092  0.0591
86575W        W29628   7.184   8.905   0.610  0.2928 -0.0370 -0.1344
86576W        W29629  11.964   0.912   7.757 -0.1924 -0.2463 -0.0509
86577W        W29630  13.274   1.807   3.625  0.1908 -0.0813 -0.0000
86578W        W29631  19.173   3.303  22.319 -0.0241 -0.1395 -0.1650
86579W        W29632   2.652   8.934   8.247 -0.0587 -0.0673  0.0316
86580W        W29633   0.036  20.909   8.929  0.2526 -0.3352  0.1576
86581W        W29634   2.572  26.210  28.962 -0.3042 -0.0497  0.1797
86582W        W29635   0.376   2.891   8.866  0.4915 -0.1726 -0.0758
86583W        W29636  30.829  29.041   7.444  0.3412  0.0210  0.1184
86584W        W29637   1.941   5.989   9.325 -0.2148 -0.0711  0.1862
86585W        W29638   4.375  30.868   8.420  0.0161  0.0679 -0.2148
86586W        W29639   4.340  14.499   0.112  0.1027  0.0388  0.4274
86587W        W29640  19.500  32.018   7.741  0.2232  0.0619 -0.3440
86588W        W29641   7.793  17.463   1.124 -0.0188 -0.0191  0.1359
86589W        W29642  18.084  29.133   9.069 -0.0898 -0.3072 -0.1844
86590W        W29643  10.521  21.443   9.786  0.1243 -0.1307 -0.1790
86591W        W29644  29.561  26.759   0.600 -0.1144 -0.1251  0.1438
86592W        W29645   5.334   4.728  19.402  0.0197 -0.3315  0.3038
86593W        W29646   5.265  32.661   6.422  0.2564  0.1913  0.0841
86594W        W29647   7.246   3.168   9.901  0.0024  0.1516 -0.1601
86595W        W29648  29.174  29.967   7.656 -0.0250  0.0469 -0.0079
86596W        W29649   3.520  31.937  26.699  0.0044  0.0246  0.0787
86597W        W29650  33.986  22.633   1.043  0.1544 -0.0378  0.0843
86598W        W29651  17.604  21.521   0.662 -0.0625  0.0166  0.2175
86599W        W29652  15.679   3.850   7.097  0.1900 -0.2096  0.0856
86600W        W29653  11.268  33.589  10.636  0.0146  0.0406  0.0753
86601W        W29654   1.991  19.281   2.901  0.2183 -0.0828 -0.2641
86602W        W29655   3.866   0.072   9.082  0.0719 -0.0186  0.0331
86603W        W29656  20.895  22.121   8.805  0.0900  0.0367  0.1705
86604W        W29657  14.128   1.212   1.230 -0.0329 -0.0513 -0.1449
86605W        W29658   0.819  20.278  27.921 -0.2906 -0.0676  0.2676
86606W        W29659   2.155  26.075   0.083  0.2671 -0.2100 -0.0361
86607W        W29660  19.638   7.729   9.207  0.0228  0.0363 -0.2356
86608W        W29661  12.262  32.422  21.136  0.3216 -0.0098 -0.1121
86609W        W29662   9.182   7.561  21.233 -0.0030  0.1690 -0.1818
86610W        W29663  17.284   1.414   4.921 -0.4546  0.0954  0.0898
86611W        W29664   8.735   5.011  23.449 -0.3153  0.2134 -0.0801
86612W        W29665   7.427  28.462   1.550 -0.2722 -0.0153  0.2376
86613W        W29666   9.290  30.379  28.980 -0.1143  0.1550  0.2440
86614W        W29667  32.563  23.134   8.995 -0.1785 -0.1108 -0.0342
86615W        W29668  12.086  24.924   4.717 -0.3595 -0.1227  0.0159
86616W        W29669  14.429  31.836   8.806  0.1005  0.1523 -0.0546
86617W        W29670   2.697  20.676  28.482  0.0066 -0.0922 -0.1041
86618W        W29671  12.097  17.566   0.265 -0.0284  0.1016 -0.1010
86619W        W29672  13.177  15.551   2.570  0.3582 -0.2350 -0.3317
86620W        W29673  16.716  26.469   5.684  0.0293 -0.1432  0.0050
86621W        W29674  11.787  15.636  10.202 -0.0101 -0.0404  0.2563
86622W        W29675   3.042   2.189   1.189 -0.0544  0.3601  0.0724
86623W        W29676  32.373  22.227   7.806 -0.1740  0.2212 -0.3450
86624W        W29677   6.907   7.283  15.317 -0.2198  0.0962  0.3660
86625W        W29678  14.510  27.380   1.960  0.0432 -0.0349 -0.2957
86626W        W29679   0.739   9.056  27.025  0.2422 -0.0861 -0.3840
86627W        W29680   9.552  15.013  19.739  0.0851  0.4114 -0.0830
86628W        W29681  20.165  22.159   9.439  0.0393  0.1505 -0.0106
86629W        W29682  28.023   1.158  22.823 -0.2282  0.3163  0.1118
86630W        W29683   8.638  18.364   5.302 -0.0773  0.3404 -0.3730
86631W        W29684  23.228  26.792   5.719 -0.0438  0.1072  0.2506
86632W        W29685  24.740  22.727   4.061  0.0345 -0.3397  0.1326
86633W        W29686   3.911  32.440  28.519  0.1493 -0.0343 -0.0442
86634W        W29687  34.391  25.947   5.328  0.0693  0.1115 -0.0411
86635W        W29688  15.174  33.410   5.417  0.1859 -0.0335  0.1354
86636W        W29689   4.438  31.754  28.150 -0.3041  0.0514  0.1775
86637W        W29690   2.312  22.909  19.198 -0.1074 -0.0541 -0.0124
86638W        W29691  27.705   5.755  16.706 -0.2681  0.1751 -0.3644
86639W        W29692  33.482  21.139  23.471  0.1994 -0.1856  0.0589
86640W        W29693  16.112  29.560  21.464  0.2152 -0.0416  0.0088
86641W        W29694  16.130  28.445  27.749  0.3074 -0.1068 -0.3388
86642W        W29695  12.110  28.331  20.028  0.1745  0.1746  0.1262
86643W        W29696  13.103  27.520  16.476 -0.0528  0.0256  0.0543
86644W        W29697  12.103   1.417  28.721 -0.1002 -0.0574 -0.1538
86645W        W29698   4.956  21.750   5.045 -0.1251 -0.0007  0.1038
86646W        W29699   3.979  32.562   7.338  0.0483  0.1153  0.1835
86647W        W29700  15.211  26.658   2.038 -0.0634  0.1110 -0.0130
86648W        W29701  14.403   2.794  26.361  0.0428 -0.1380  0.0736
86649W        W29702  28.335   0.251  19.648 -0.2235  0.1296 -0.4121
86650W        W29703   9.897  32.723   1.012 -0.0551 -0.1896  0.2009
86651W        W29704   7.218  23.911   4.433 -0.2578  0.1051  0.0300
86652W        W29705   1.422  17.900   4.360 -0.2304 -0.1644 -0.0234
86653W        W29706  34.516   9.243  15.131  0.2240  0.0430  0.3111
86654W        W29707  13.641  32.509  28.145 -0.3257 -0.0468 -0.1655
86655W        W29708  27.323   1.424  22.793 -0.0545  0.1044 -0.0151
86656W        W29709  11.188  33.257  25.022  0.0357  0.0174 -0.1712
86657W        W29710  22.492   6.380  23.251  0.0287  0.1888 -0.0848
86658W        W29711  19.246   3.016   6.343 -0.1150  0.0258  0.0985
86659W        W29712   7.802  33.468   7.921  0.2564  0.0247  0.1687
86660W        W29713   2.089  16.130   2.439  0.0640  0.2823 -0.2336
86661W        W29714  18.024  31.193  14.394  0.2514 -0.0425 -0.3258
86662W        W29715  33.127   6.823   4.703 -0.1968  0.0326  0.1079
86663W        W29716   5.120   0.427  16.889  0.0519  0.2033  0.2850
86664W        W29717   2.689  31.855   9.592  0.2928  0.0948  0.0183
86665W        W29718  18.584  31.520  25.775  0.0919  0.0962 -0.1013
86666W        W29719  16.398  13.989  26.393  0.2719  0.0271  0.0326
86667W        W29720  24.675   3.941  24.372 -0.0165  0.1143 -0.1628
86668W        W29721   8.629   0.327   4.519 -0.0414 -0.1895  0.0515
86669W        W29722  15.238  19.808   5.288 -0.2430 -0.0742  0.3340
86670W        W29723   5.530  33.034   4.131  0.2191 -0.1699 -0.1960
86671W        W29724  13.297  15.294  22.358 -0.0716  0.2467  0.0211
86672W        W29725  18.907   7.278   3.571  0.1729  0.1409  0.0421
86673W        W29726  13.683  32.670   6.937 -0.2551 -0.1697 -0.1079
86674W        W29727  21.313  10.282   9.595  0.1323  0.2349  0.1297
86675W        W29728   1.064  20.294  28.677  0.1536 -0.1179 -0.3105
86676W        W29729   4.044  18.591   3.744 -0.1649 -0.3250  0.1561
86677W        W29730  25.052  21.885   5.571  0.1819 -0.1522  0.0666
86678W        W29731  20.047  34.490   6.901  0.2545  0.2678  0.2583
86679W        W29732  12.444   6.606   5.470 -0.3315  0.2194  0.0844
86680W        W29733  13.241   8.030   7.222  0.0009 -0.0594  0.0093
86681W        W29734   0.817  28.005   6.667  0.1763 -0.3344  0.1258
86682W        W29735   3.928   4.254  19.231 -0.0259 -0.0947 -0.1116
86683W        W29736  28.057  27.541  17.937 -0.1755  0.1578 -0.1499
86684W        W29737   2.013  31.821   4.998 -0.0442 -0.0317 -0.3108
86685W        W29738   6.715  10.590  18.457  0.0588  0.1025  0.0211
86686W        W29739  33.042  25.919  24.954  0.1834 -0.1697 -0.2708
86687W        W29740  13.900  33.869   7.992  0.0824 -0.1363  0.3484
86688W        W29741  13.922  24.237   5.289  0.0209  0.3594  0.2318
86689W        W29742   3.192   8.121   8.728  0.3366  0.0383 -0.0069
86690W        W29743  21.464   0.437  16.388  0.1067  0.0945 -0.3500
86691W        W29744   0.116  17.270   8.014 -0.1621 -0.4987  0.4453
86692W        W29745   6.037  24.757   7.638 -0.0974 -0.0559 -0.0602
86693W        W29746  18.377  30.057   9.901  0.1539  0.2848 -0.1204
86694W        W29747  31.867   5.576  26.423  0.0864 -0.0075  0.0398
86695W        W29748   6.591  26.779  14.590 -0.2230 -0.0615  0.0929
86696W        W29749   0.941  30.181   1.327  0.2427 -0.0471  0.1730
86697W        W29750  31.117  31.114  17.273 -0.1477 -0.2626 -0.0252
86698W        W29751  14.690  16.638   6.975  0.1986 -0.0772 -0.4282
86699W        W29752  17.933   1.276  24.488 -0.3405  0.0492  0.0248
86700W        W29753   8.067   1.992   0.085 -0.1437  0.0922 -0.0937
86701W        W29754  16.638   5.975  20.306  0.0618 -0.1100  0.2746
86702W        W29755  33.244  16.239   2.528  0.0890  0.3282  0.1940
86703W        W29756   2.714  25.343   0.664 -0.0071 -0.1055 -0.2528
86704W        W29757  12.064  28.281  26.938  0.0210  0.1843  0.0671
86705W        W29758  13.355  31.903  28.907 -0.0699 -0.1433  0.0337
86706W        W29759  12.284   0.815  24.764 -0.0639  0.1503 -0.1808
86707W        W29760   5.065  18.774   6.008  0.0650 -0.1397 -0.0904
86708W        W29761   8.510  27.928   4.886  0.2394 -0.0376  0.0587
86709W        W29762  30.334  26.949   3.934  0.1819 -0.0076 -0.2172
86710W        W29763  33.287  28.659   8.515  0.1173 -0.1017  0.1171
86711W        W29764  10.511   4.997   4.429 -0.1125  0.0248 -0.0996
86712W        W29765   8.624  29.461   3.091  0.4262 -0.2212 -0.1329
86713W        W29766   5.833   8.931   3.660 -0.1246  0.2098  0.0925
86714W        W29767  12.395  10.391   7.066 -0.0514  0.0995 -0.2336
86715W        W29768   3.899  32.438  21.300  0.3109  0.0748 -0.0129
86716W        W29769  20.599   1.914   3.034 -0.0879  0.3033 -0.2545
86717W        W29770  11.719   3.387   7.689  0.3914 -0.0819 -0.0745
86718W        W29771  19.929   5.648  15.860 -0.0865  0.1096 -0.1792
86719W        W29772   1.540  32.941   1.503  0.2843 -0.0103  0.0882
86720W        W29773  16.011  11.656  19.680  0.0968  0.2143 -0.1911
86721W        W29774   7.514  16.650   4.240  0.2812 -0.2469  0.1517
86722W        W29775  12.249  26.994  28.622 -0.2905  0.0571 -0.1539
86723W        W29776  28.713  15.743  21.862 -0.5317  0.1641  0.0080
86724W        W29777   8.913   6.311   4.529 -0.1001  0.0852 -0.1461
86725W        W29778  12.541   9.477  15.548  0.0453  0.0262  0.0488
86726W        W29779  11.033  19.929  26.412  0.1593 -0.0585  0.0400
86727W        W29780  17.639   9.021  26.309  0.2399 -0.0283  0.1690
86728W        W29781  34.354  25.903   9.205  0.1993  0.0858 -0.4261
86729W        W29782  11.302  23.609   4.927 -0.0601  0.2838 -0.1587
86730W        W29783   6.343   4.981   7.031  0.0716 -0.0291  0.1482
86731W        W29784  31.754   1.032   6.525 -0.1102  0.1432 -0.0503
86732W        W29785  29.987  15.446   1.438  0.2967  0.1609 -0.0587
86733W        W29786  31.044   7.155  23.397  0.1513 -0.0343 -0.0255
86734W        W29787   5.855  29.685   6.057 -0.0525 -0.1229 -0.2705
86735W        W29788  24.707   7.200   6.733  0.3758  0.0152  0.1735
86736W        W29789  12.073   1.467  10.350 -0.5359 -0.3170  0.0762
86737W        W29790   8.376  18.796  21.475 -0.5038  0.2365  0.1714
86738W        W29791  21.779  25.283  26.468 -0.0003  0.1573  0.0189
86739W        W29792  10.167  26.076   6.508 -0.0959 -0.1146  0.0803
86740W        W29793   9.748  30.133   0.005 -0.1038 -0.1036 -0.1524
86741W        W29794   8.303   0.059   2.666 -0.0246  0.2268 -0.2568
86742W        W29795  33.917  21.843  20.139 -0.0987  0.1058  0.1723
86743W        W29796   3.329  18.212  20.209  0.1221  0.0631 -0.0467
86744W        W29797   7.499  29.748  17.489  0.2858  0.4862  0.2003
86745W        W29798   8.561  26.871   9.455 -0.0241  0.0306  0.1584
86746W        W29799   8.592  26.274   5.500 -0.0298 -0.0799  0.0699
86747W        W29800  18.162  33.172   3.336 -0.0616 -0.2746 -0.0914
86748W        W29801  11.304   0.770  25.613  0.2441 -0.0707  0.0420
86749W        W29802  23.581  32.780   2.880 -0.2578 -0.1986  0.1043
86750W        W29803  16.588   0.963  23.473 -0.0490  0.3538  0.1122
86751W        W29804  17.476  23.013   0.935 -0.3109 -0.3756 -0.0558
86752W        W29805  24.429   7.576   5.980 -0.1000  0.3036  0.1066
86753W        W29806  12.786  29.733   0.188 -0.3301 -0.0301  0.5860
86754W        W29807   6.957  29.061   9.704  0.1400  0.2589 -0.0383
86755W        W29808  32.334  32.228  15.579  0.1509 -0.0278  0.1319
86756W        W29809   8.166  30.255   6.392 -0.3880 -0.0844 -0.2112
86757W        W29810  34.129  31.033   2.483  0.1935 -0.3362  0.0402
86758W        W29811   7.653   9.820   7.259  0.0408  0.1141 -0.0182
86759W        W29812  20.926  32.079  25.864  0.0140 -0.2944 -0.1573
86760W        W29813   6.784  33.606   9.477 -0.3631 -0.1791  0.1011
86761W        W29814  10.645   1.550  17.744 -0.1428  0.2095 -0.1688
86762W        W29815   1.197  24.173   0.909  0.0991 -0.1049  0.0363
86763W        W29816  28.838  18.731   5.401 -0.1892  0.0430  0.0486
86764W        W29817  31.422   6.539  18.010  0.1233  0.5509 -0.0313
86765W        W29818   0.914   6.669  20.921  0.0812 -0.1076 -0.1337
86766W        W29819   8.808   5.592   7.432  0.0375 -0.1446  0.2686
86767W        W29820  22.240  21.929   4.300  0.0561 -0.1473  0.0575
86768W        W29821   1.800  26.259   6.347  0.1846 -0.1016 -0.2252
86769W        W29822   9.174  34.013  24.219  0.4668 -0.0834 -0.1438
86770W        W29823  16.146   0.500  18.885  0.1831 -0.3975 -0.2241
86771W        W29824  20.971   6.625  10.476  0.2017  0.0590 -0.0640
86772W        W29825   6.226  24.601   8.324 -0.0652 -0.0090  0.0611
86773W        W29826  21.630   6.466  26.532 -0.0209  0.1948  0.0548
86774W        W29827  16.209  31.816  16.659  0.3867  0.2875  0.0404
86775W        W29828  32.779  11.536  27.345 -0.2464 -0.0714 -0.2395
86776W        W29829   8.426  24.849  28.802 -0.0044 -0.1373  0.1241
86777W        W29830  10.916  29.834   7.710 -0.2138 -0.3257  0.0989
86778W        W29831  10.900  30.870  26.678  0.1980  0.1430 -0.0395
86779W        W29832  28.192  32.215   5.385  0.0067 -0.1079 -0.2903
86780W        W29833   9.875   8.972   3.034 -0.4539  0.0148 -0.0199
86781W        W29834  17.656  30.812  23.920 -0.0433  0.0942 -0.1221
86782W        W29835   1.225   9.007  22.638  0.0641  0.1613  0.0949
86783W        W29836  15.582  25.134  23.069  0.2834  0.3963  0.2101
86784W        W29837  10.108  32.672  26.061  0.2703 -0.1647  0.0165
86785W        W29838  13.150  31.793   6.911 -0.0255  0.2125  0.3118
86786W        W29839  13.474  28.768  26.761  0.1293 -0.0445  0.2140
86787W        W29840   8.296  34.434  18.447  0.1567  0.0386  0.1667
86788W        W29841   0.299  12.485   9.324  0.0175  0.0610 -0.1890
86789W        W29842  15.901   3.146  20.704  0.2190  0.4157  0.2504
86790W        W29843   2.506   8.559  24.320  0.0891  0.0874 -0.0613
86791W        W29844  15.633   3.556   3.631 -0.2170 -0.1835  0.3488
86792W        W29845   6.535  34.451  27.791 -0.0909 -0.3333  0.0909
86793W        W29846   7.277   0.750   0.059 -0.0211 -0.0211 -0.0320
86794W        W29847  15.661  17.830  27.233 -0.0231 -0.1401 -0.0440
86795W        W29848  10.842  27.568  27.864  0.2542  0.1036 -0.0573
86796W        W29849  22.727  15.283  21.547 -0.0079  0.1566 -0.3607
86797W        W29850   7.264  27.764  12.557 -0.1813  0.0524 -0.1300
86798W        W29851  13.376   8.448   5.271 -0.2009 -0.1160  0.0923
86799W        W29852  12.573  17.095  17.543  0.0713 -0.1603 -0.0667
86800W        W29853   8.656  31.411   2.644  0.0288  0.1401  0.0320
86801W        W29854   4.174  29.443   4.024 -0.0493 -0.0173 -0.0647
86802W        W29855   0.962  29.594   5.437 -0.0443 -0.1109  0.1149
86803W        W29856  10.576  24.874   0.390  0.0448  0.0502 -0.2041
86804W        W29857  14.239  16.102  23.265  0.1233  0.1406 -0.0764
86805W        W29858  30.371   1.749  27.448  0.0781  0.1466 -0.1585
86806W        W29859  17.345  26.056  28.731 -0.0262 -0.0071  0.2510
86807W        W29860  31.981   0.193  22.528  0.1185 -0.0666  0.1300
86808W        W29861   7.463  10.068   3.053  0.2338  0.0708  0.3501
86809W        W29862  14.119  30.335   6.341 -0.3757 -0.3440 -0.2632
86810W        W29863  19.037  31.972  27.000 -0.0082 -0.2938  0.0179
86811W        W29864   9.897  26.636   2.110  0.0626  0.0466  0.2290
86812W        W29865   2.071  26.742  28.174 -0.3038  0.1038  0.3946
86813W        W29866   5.991  32.080   0.639 -0.0393  0.0231 -0.1354
86814W        W29867  14.988  32.220   9.509  0.1714 -0.1989 -0.1108
86815W        W29868  14.164  24.281   9.205 -0.1988  0.4580  0.1727
86816W        W29869  25.004  32.972   2.233 -0.3251  0.0240  0.0247
86817W        W29870  14.833  27.407   2.539  0.0634  0.0591 -0.0388
86818W        W29871  26.330   0.880   5.333 -0.0630  0.0462 -0.1006
86819W        W29872  12.396   3.081   8.051 -0.2074  0.2836 -0.1331
86820W        W29873  12.530  21.902   6.312  0.3132  0.0117 -0.0178
86821W        W29874  34.473   7.249   3.354 -0.0726 -0.0435 -0.0856
86822W        W29875   0.770  26.648   0.169  0.2844  0.2360 -0.0061
86823W        W29876  21.842   1.352   6.391 -0.0494 -0.0599 -0.0155
86824W        W29877   3.161   2.353  24.592 -0.0942  0.1349  0.0761
86825W        W29878   5.211  21.946  13.592 -0.3084 -0.0222 -0.2179
86826W        W29879   6.317  31.112  24.688 -0.1400 -0.2165  0.2334
86827W        W29880  10.050   3.252  26.400 -0.1701  0.2982  0.0364
86828W        W29881   8.946  33.695  24.905  0.2619  0.1233  0.1069
86829W        W29882   4.894  24.090  21.634  0.0682 -0.3234  0.0375
86830W        W29883   9.963   0.770   5.771  0.0081 -0.0484 -0.0599
86831W        W29884  19.880  26.423   5.685 -0.0412 -0.1736 -0.1693
86832W        W29885   0.063   7.205   1.571  0.1312  0.0530 -0.1808
86833W        W29886  16.054   9.327  18.227  0.0055  0.1333 -0.0955
86834W        W29887   3.105  14.121   6.335 -0.0099 -0.2001  0.0920
86835W        W29888  24.408   0.781  26.764  0.1806 -0.1195  0.0037
86836W        W29889   6.163  27.857   3.925  0.3536 -0.0987 -0.0342
86837W        W29890  14.798   2.900  15.468  0.2027 -0.0335 -0.1421
86838W        W29891   0.231  27.613  21.533  0.0749  0.0510 -0.3106
86839W        W29892   8.185  29.505  25.896  0.1062 -0.0177  0.2965
86840W        W29893  23.220   5.630   3.630 -0.1006  0.2332  0.0432
86841W        W29894  15.549  29.946   5.551 -0.1522 -0.0298 -0.0494
86842W        W29895   1.799  15.052   5.888 -0.2369 -0.0247 -0.2302
86843W        W29896   9.324   4.783  16.049  0.0471  0.0117  0.0716
86844W        W29897   6.203  13.872  26.219 -0.0059  0.1681 -0.0109
86845W        W29898  11.182   8.419   1.260  0.1859 -0.2232 -0.3466
86846W        W29899  21.102  29.888   8.584  0.0149 -0.1795 -0.0561
86847W        W29900  19.226   5.566   4.576 -0.0623  0.2101  0.0929
86848W        W29901   0.561  27.088   0.080 -0.0186 -0.0725 -0.3726
86849W        W29902  22.685  26.811   5.849  0.0847  0.2034  0.2131
86850W        W29903  19.169  20.233   0.890 -0.2282  0.3203  0.0862
86851W        W29904  26.845   6.979   2.295 -0.0664 -0.2174 -0.2659
86852W        W29905  23.197  32.174  23.399 -0.1886  0.0848  0.0680
86853W        W29906   1.874  26.806  17.650 -0.0866 -0.0201 -0.0310
86854W        W29907  10.962   2.825   6.568 -0.0740  0.1900  0.2715
86855W        W29908   3.839  24.934  23.834 -0.1188 -0.2777 -0.0932
86856W        W29909   9.876  10.744   2.022  0.0840  0.2224 -0.1946
86857W        W29910  17.248  27.622  27.512  0.2238 -0.2631  0.0727
86858W        W29911   3.997   4.450   5.956  0.5730  0.0573  0.0850
86859W        W29912   6.989  31.877  27.002 -0.1187  0.1547 -0.0144
86860W        W29913  11.925  17.600   8.513  0.1371  0.1705 -0.3286
86861W        W29914  31.985  11.915   4.869 -0.2704 -0.0260 -0.3768
86862W        W29915  12.395  23.530   9.133 -0.2633  0.1517 -0.0757
86863W        W29916   4.781  21.859  26.895  0.0066  0.1159  0.0424
86864W        W29917   3.738   2.562   6.161 -0.2198  0.2221 -0.4521
86865W        W29918   1.552  13.185   2.287  0.3178 -0.3249 -0.1214
86866W        W29919   6.847  27.101  27.570  0.0067  0.2277 -0.0856
86867W        W29920  11.954  18.764  28.594 -0.3569  0.3222  0.1188
86868W        W29921  25.116  34.652   8.825 -0.1949  0.1259 -0.0314
86869W        W29922   4.400  11.098   9.660  0.0576 -0.1917  0.0997
86870W        W29923   9.808  14.953   2.737  0.0214  0.3972 -0.0375
86871W        W29924  21.959   1.372   8.865  0.4410  0.0524 -0.0799
86872W        W29925  30.852  23.015  28.651 -0.5755  0.0584 -0.0530
86873W        W29926   1.607   0.917  27.328 -0.1814  0.1895  0.1185
86874W        W29927   7.642  18.442   9.704 -0.0418  0.0082 -0.0178
86875W        W29928  12.379  12.987   8.713  0.0493  0.0505  0.0657
86876W        W29929   5.567  18.944   1.185  0.0442  0.0241  0.1821
86877W        W29930   1.696  12.469  21.745  0.1025 -0.3374 -0.2742
86878W        W29931   2.421  11.120  27.034  0.0235  0.5595 -0.0111
86879W        W29932   0.413   7.213  21.517  0.1782  0.0214  0.1183
86880W        W29933  28.473  29.633   4.555 -0.1064  0.1470 -0.4322
86881W        W29934   7.861  24.301   7.094 -0.0263 -0.3826 -0.0951
86882W        W29935  25.540  25.251  16.007 -0.0732 -0.1587 -0.1320
86883W        W29936   0.004  28.374  24.313 -0.1609  0.0001  0.0138
86884W        W29937   2.612  32.844   5.414  0.1577 -0.1975  0.0629
86885W        W29938  16.046  32.092  19.908  0.3364  0.1123  0.0745
86886W        W29939  15.519  11.586   3.599 -0.3213  0.0699  0.1517
86887W        W29940   8.565  23.468  15.604 -0.0614 -0.1070 -0.1289
86888W        W29941  24.249   3.725   9.825  0.1839 -0.1216 -0.0052
86889W        W29942   1.986  27.359   3.435  0.2001 -0.0744 -0.1044
86890W        W29943   1.102   3.542  27.399 -0.0477 -0.0537 -0.0647
86891W        W29944   4.480   0.070   7.953 -0.0549  0.0049 -0.2116
86892W        W29945  15.434  28.197   3.260 -0.3001  0.0432 -0.0508
86893W        W29946  20.637  33.252   0.540 -0.0032 -0.1065 -0.1405
86894W        W29947  15.655   7.396   5.570 -0.3093  0.1398 -0.0177
86895W        W29948   8.712  27.019   2.452  0.0576 -0.1045 -0.0835
86896W        W29949   5.412   3.854  10.012 -0.1199  0.1439 -0.0524
86897W        W29950   6.469  24.961  26.479 -0.1639  0.0675 -0.1829
86898W        W29951  20.513  24.236   5.761 -0.3206 -0.1709 -0.0412
86899W        W29952  24.093  27.488  27.050  0.0469  0.0374 -0.2547
86900W        W29953  18.625  27.007  27.437  0.4391  0.3719  0.1522
86901W        W29954  29.164  32.543   2.120 -0.0190 -0.2029 -0.1251
86902W        W29955   7.162  33.255  27.321  0.0140 -0.3394 -0.3769
86903W        W29956  12.511  14.776  28.972 -0.2672 -0.1528 -0.1434
86904W        W29957  12.992  11.383   4.728 -0.0133  0.0871 -0.1007
86905W        W29958  11.036  16.080   5.532  0.4039  0.0348 -0.1062
86906W        W29959   9.681   5.634  24.963 -0.2621  0.2182  0.1798
86907W        W29960  11.903  27.384  24.182 -0.0449 -0.1143 -0.0886
86908W        W29961  13.215   0.726   3.631 -0.0728  0.2680  0.1036
86909W        W29962  33.848  30.325   4.293  0.2069 -0.1077 -0.1637
86910W        W29963   1.666  24.459   7.580  0.0852  0.1687  0.0576
86911W        W29964  17.851  29.898   9.835 -0.5055  0.1496  0.3469
86912W        W29965  30.736  18.437  28.449  0.0762 -0.2733 -0.0647
86913W        W29966  32.503  28.444   8.158 -0.0212 -0.0563  0.2147
86914W        W29967  15.171  24.428   2.459  0.0063  0.2956  0.0312
86915W        W29968   8.043  24.353  28.097  0.1752  0.1785 -0.2495
86916W        W29969   2.817  19.246  27.274 -0.0474  0.0689 -0.3099
86917W        W29970  10.587  18.622   5.269  0.4330  0.3305 -0.4467
86918W        W29971  11.182   1.496   4.394 -0.2723 -0.0072  0.0423
86919W        W29972  16.577  12.800   0.708  0.2706  0.0015  0.0813
86920W        W29973  10.761   4.110   4.499  0.1414 -0.1511  0.3485
86921W        W29974  15.058   3.749   4.514 -0.1966 -0.3471  0.2648
86922W        W29975   1.685  19.930   0.353 -0.3530  0.2301  0.0729
86923W        W29976  30.582   7.400  23.800 -0.0061 -0.1611 -0.2143
86924W        W29977   1.230   3.494   2.922 -0.0150  0.2882 -0.0182
86925W        W29978   6.939  27.073  23.341 -0.0013  0.1505 -0.2276
86926W        W29979   1.555  34.529   7.299 -0.1852 -0.3398 -0.2363
86927W        W29980   5.143  26.749  27.176  0.0245  0.1209  0.0079
86928W        W29981  21.067   1.625   7.587 -0.1325  0.2204  0.2827
86929W        W29982  18.233  26.491   6.175  0.1147 -0.2543  0.0424
86930W        W29983  32.640   6.642  26.943  0.1012 -0.4689  0.1029
86931W        W29984  30.601  14.942   3.412 -0.0070 -0.0962  0.3483
86932W        W29985  25.422   3.130  20.779 -0.3068  0.1899 -0.0775
86933W        W29986  28.802  10.499  26.759  0.1250  0.1674 -0.1115
86934W        W29987  13.434  27.455   7.649  0.3935 -0.2378 -0.0962
86935W        W29988   4.134  27.721  28.086 -0.3680 -0.2941  0.0512
86936W        W29989   4.170   5.742   4.601 -0.1004 -0.2840  0.3869
86937W        W29990  15.041  19.573   0.436  0.4031  0.0335  0.2551
86938W        W29991  11.717  30.923   8.857 -0.0604 -0.1302  0.0674
86939W        W29992  34.087  28.321  28.443 -0.1483 -0.0321  0.0622
86940W        W29993  17.919   9.595   6.114 -0.0363  0.1606  0.2571
86941W        W29994  16.853  19.816  22.462 -0.1155  0.1462 -0.1382
86942W        W29995  17.215   6.508   3.606  0.1777 -0.3682  0.0068
86943W        W29996  15.657   3.143   5.050  0.2000  0.3202  0.1938
86944W        W29997  32.130   3.795   7.676 -0.2157  0.0207 -0.0529
86945W        W29998  29.005   9.164  11.139 -0.4096 -0.0162 -0.1664
86946W        W29999  17.099   0.406   6.044  0.2182  0.3064 -0.2340
86947W        W30000  28.764  34.638   1.397 -0.0539  0.3051 -0.3176
86948W        W30001  14.896   1.360   5.733  0.1587  0.2098 -0.0805
86949W        W30002   0.945  25.863   2.777 -0.4922 -0.1557 -0.1823
86950W        W30003  29.874   9.515   0.777  0.0013  0.0574 -0.2509
86951W        W30004  15.821  34.383   5.231 -0.1129  0.1821 -0.1878
86952W        W30005  20.578   8.243   4.524 -0.0517  0.0009 -0.0579
86953W        W30006  19.820   5.742  28.270 -0.2094  0.0784 -0.1592
86954W        W30007  32.479  26.305   3.057 -0.0915  0.2614 -0.0836
86955W        W30008  12.932   0.041  14.905 -0.2658 -0.1389 -0.0917
86956W        W30009  12.512  21.680  26.062  0.1683  0.0793 -0.0674
86957W        W30010  17.638   6.637  11.226  0.0976  0.0715 -0.0955
86958W        W30011   8.981  25.577   2.877  0.0954 -0.2232 -0.2134
86959W        W30012  32.542  26.193  27.349  0.2262  0.2111  0.0129
86960W        W30013   5.279  28.123   7.141 -0.3824  0.0765  0.1286
86961W        W30014   7.000  15.769   3.541 -0.0029 -0.1023  0.0181
86962W        W30015   7.088  21.260  28.757 -0.1082 -0.0133  0.2781
86963W        W30016   7.487   1.393   8.234 -0.1277  0.2451 -0.2710
86964W        W30017  13.931   3.309   8.898  0.2628 -0.1363  0.1072
86965W        W30018  23.603   1.100   8.560 -0.1862  0.3672  0.0537
86966W        W30019   7.049   8.529   5.217 -0.1814  0.3252  0.0661
86967W        W30020   5.532  19.486   5.643 -0.0644  0.0625 -0.0076
86968W        W30021   5.869  22.876   3.502  0.1271  0.1078  0.0408
86969W        W30022   9.700   2.615  24.634  0.0919  0.1776 -0.1162
86970W        W30023   0.249   4.341  23.763  0.1145  0.1329 -0.0168
86971W        W30024  21.388  19.634   6.626 -0.1040  0.0128  0.3330
86972W        W30025  16.774   2.788   8.157  0.0565 -0.0911  0.0056
86973W        W30026  13.028   0.400   2.678  0.0782  0.1497 -0.0619
86974W        W30027   8.212  21.331   7.430  0.0589 -0.1515  0.3131
86975W        W30028  17.276   0.196  19.265  0.0142  0.3419 -0.0920
86976W        W30029  15.791   8.150   5.295  0.1032 -0.0973 -0.2183
86977W        W30030  11.633   9.022   3.644  0.3769 -0.0477 -0.2605
86978W        W30031  20.897  29.203  16.903 -0.0467 -0.1865  0.1034
86979W        W30032  19.838  11.096  26.561 -0.4328 -0.0129 -0.0851
86980W        W30033  10.432  15.694   4.267  0.0317 -0.0384  0.3474
86981W        W30034  15.432   0.199   7.702 -0.2777 -0.1243 -0.0585
86982W        W30035   4.658   7.236  25.261  0.1993 -0.0765  0.2254
86983W        W30036  26.641   7.141  26.907  0.1100 -0.0847 -0.0303
86984W        W30037  11.370   3.348   4.394  0.0743 -0.4785 -0.5680
86985W        W30038  14.815   5.400   5.947 -0.0750 -0.1547  0.0607
86986W        W30039   4.690  26.277   1.132  0.0984 -0.1111 -0.1071
86987W        W30040   4.842  10.292   5.816  0.0525 -0.0579 -0.1848
86988W        W30041  13.318  33.547   4.468 -0.1450 -0.2560  0.0776
86989W        W30042   9.664   9.352  26.272  0.1539 -0.1431  0.2653
86990W        W30043  11.904  32.052   4.404  0.0479 -0.1776 -0.0481
86991W        W30044  14.613   0.038   9.630  0.2287 -0.2418 -0.4171
86992W        W30045  16.627  30.320   1.095 -0.2360  0.0705 -0.3118
86993W        W30046  31.730  33.930   1.740 -0.2713 -0.1766  0.0159
86994W        W30047   9.249   5.791   7.602  0.2784 -0.0330  0.1760
86995W        W30048  12.764  21.047  28.681  0.1381 -0.0722 -0.3621
86996W        W30049  23.101  25.036   3.621  0.1093 -0.1203  0.2409
86997W        W30050   1.828  10.962  19.105  0.0921  0.0751 -0.2696
86998W        W30051  14.561  34.470   5.465  0.3205  0.1804 -0.0239
86999W        W30052  15.235   4.199  27.799 -0.0367  0.1632  0.1646
87000W        W30053  13.450  31.369  25.146  0.0856 -0.2987  0.2127
87001W        W30054  17.528   6.828   4.582 -0.1106  0.0134  0.1312
87002W        W30055  28.096  30.034   3.537  0.0148  0.4140 -0.3354
87003W        W30056   2.028  33.848  29.159 -0.0080 -0.2585 -0.2354
87004W        W30057  33.079  33.531   4.378 -0.1837 -0.0839 -0.0148
87005W        W30058  24.181  31.505   8.946 -0.0834 -0.2818  0.2392
87006W        W30059  30.042  25.522   1.805  0.0672 -0.1909 -0.0744
87007W        W30060  21.159  33.866  24.824 -0.1776  0.0439 -0.1714
87008W        W30061   8.630  34.122   6.242 -0.1207 -0.3660  0.0042
87009W        W30062   1.198  24.156   3.227  0.3206  0.0513  0.0003
87010W        W30063   6.880  17.110  22.128 -0.0965  0.3475 -0.1156
87011W        W30064  26.000   3.538  26.834  0.1703 -0.1183  0.2647
87012W        W30065  34.502  30.032   7.092  0.1415 -0.1025 -0.4106
87013W        W30066   9.262  13.815  22.022 -0.5124 -0.1079 -0.1173
87014W        W30067  11.359   6.915  24.025  0.1543  0.5036  0.0334
87015W        W30068  10.913  32.105   5.780 -0.1467 -0.0259  0.2730
87016W        W30069   6.917   7.064  28.194  0.2671 -0.0496  0.1529
87017W        W30070   6.985  21.355  21.768  0.1213  0.2564 -0.1838
87018W        W30071  16.677  20.409  26.073  0.0496  0.1103 -0.2220
87019W        W30072   4.804  31.654  28.851  0.2481 -0.1962 -0.0348
87020W        W30073   0.188   6.289  28.327  0.0082  0.1312  0.4186
87021W        W30074  12.916  29.199   0.330  0.1757 -0.1320  0.1631
87022W        W30075   3.031   0.299   6.055  0.0418 -0.0294  0.0809
87023W        W30076  16.441  11.342  28.270  0.2628  0.0219  0.1711
87024W        W30077   3.602  18.625  26.184  0.2266 -0.0698 -0.1570
87025W        W30078  15.354  33.005  27.017  0.2264 -0.0497  0.0542
87026W        W30079  16.167  20.910   3.372 -0.0639  0.3111 -0.3459
87027W        W30080   8.378  20.414   3.647 -0.2656 -0.1363  0.0192
87028W        W30081  14.041  18.820  26.724 -0.3082  0.0285 -0.1324
87029W        W30082  21.116  12.213   4.065 -0.1393 -0.2628  0.2045
87030W        W30083  12.699   4.422  28.420 -0.3345  0.1068  0.0886
87031W        W30084  11.872  21.289  24.645 -0.0348  0.1912  0.2016
87032W        W30085  11.166  32.740   8.028  0.0184 -0.1118  0.1756
87033W        W30086   3.694   8.162  10.031 -0.1208  0.0296 -0.0317
87034W        W30087  31.674   8.180   7.887 -0.0395 -0.0064  0.0095
87035W        W30088   2.311   7.283   8.664  0.2000  0.0920  0.0746
87036W        W30089   1.993  25.571  26.666  0.2799  0.0822  0.2479
87037W        W30090   0.020   6.097  27.886 -0.0308  0.1470  0.0426
87038W        W30091  22.826  21.555   5.884 -0.1295 -0.3474 -0.1881
87039W        W30092   3.636  19.373  26.236  0.0480 -0.6117  0.5724
87040W        W30093   6.075   5.494  22.844 -0.0021 -0.0462 -0.0839
87041W        W30094   4.723  22.407  25.592  0.1556 -0.2553 -0.0913
87042W        W30095  33.476  21.539   7.119  0.0991 -0.2787  0.0629
87043W        W30096  12.773  28.920   1.283 -0.1195  0.0765  0.2179
87044W        W30097  11.117  34.368   1.973 -0.0179  0.2676  0.0006
87045W        W30098   4.311   7.216  10.076  0.1258 -0.1748 -0.1506
87046W        W30099  15.433  25.296   9.916  0.3904  0.3404 -0.2012
87047W        W30100  34.193  29.417   3.401  0.1184  0.1151 -0.4270
87048W        W30101   4.099  25.521   3.234  0.2140  0.0933 -0.1922
87049W        W30102  17.865  23.261   5.433  0.1043  0.2978 -0.0121
87050W        W30103  17.675  16.827   2.222 -0.0910  0.0618 -0.1714
87051W        W30104  23.542  29.177   4.112 -0.1077 -0.0921  0.0127
87052W        W30105   9.708  20.354  23.893  0.1668  0.0275 -0.1078
87053W        W30106   7.666   4.248   2.575 -0.2434 -0.0255  0.1974
87054W        W30107  29.571  30.531   2.352 -0.1722  0.4834  0.0654
87055W        W30108   1.768  16.499  16.564  0.0014 -0.0504 -0.0415
87056W        W30109  33.883  25.738  26.731 -0.0431 -0.1932 -0.0302
87057W        W30110   9.978  23.510   9.319 -0.1263 -0.1135 -0.2292
87058W        W30111  24.158   9.829   1.628  0.0336  0.1635 -0.2712
87059W        W30112  10.378   7.813   4.629  0.1123  0.0601  0.3138
87060W        W30113  33.648   0.993  19.429 -0.0393 -0.2197 -0.0555
87061W        W30114  22.033  26.268   8.117 -0.1345 -0.1986 -0.2650
87062W        W30115   6.778   0.551   7.409 -0.0201 -0.0444  0.4249
87063W        W30116  16.541  18.596  29.067  0.3055  0.0638 -0.1412
87064W        W30117  26.381  29.534  26.234 -0.0375 -0.1183  0.1480
87065W        W30118  23.174  27.353  19.736 -0.0180 -0.2265  0.0841
87066W        W30119   9.002   4.843  28.781 -0.1452  0.1361 -0.1619
87067W        W30120  20.857  34.371   8.396 -0.3238 -0.0768  0.2835
87068W        W30121   9.949  30.414  25.183  0.0274  0.0738  0.0711
87069W        W30122  18.448  26.544   1.244 -0.1927 -0.1160 -0.2799
87070W        W30123  20.722  21.355  26.141 -0.2647 -0.2485  0.1095
87071W        W30124  13.147   3.336  21.761  0.4982  0.1456 -0.0628
87072W        W30125   0.826  23.783   0.851 -0.0578  0.2748  0.0111
87073W        W30126   0.743  21.065  24.007 -0.0233 -0.0310 -0.0452
87074W        W30127  27.072   5.707   2.283  0.0477 -0.0164 -0.2554
87075W        W30128   2.855  27.595   0.674 -0.2106 -0.0245 -0.0425
87076W        W30129  18.586  31.650   2.901 -0.1970  0.0041 -0.1593
87077W        W30130  12.645   1.867   8.244  0.2309  0.1380 -0.2152
87078W        W30131   3.915  24.099   7.918  0.1132 -0.1915  0.3643
87079W        W30132   5.830  11.036  14.826 -0.1443  0.0130 -0.1465
87080W        W30133  19.831  31.888   4.547  0.0177  0.1080  0.0708
87081W        W30134   4.208  19.983  26.706  0.3262  0.0880 -0.1055
87082W        W30135  10.268   7.561  16.469 -0.2401 -0.0351  0.2331
87083W        W30136  13.315  29.271   9.259  0.0955 -0.2472  0.0800
87084W        W30137  27.686  29.411  28.160 -0.0832  0.1381  0.2894
87085W        W30138   9.569   5.624  25.927 -0.0741  0.0335 -0.0437
87086W        W30139  11.924   1.456  17.399 -0.2654  0.0089  0.2546
87087W        W30140   8.758   0.498   9.891  0.3821 -0.2095  0.2422
87088W        W30141  24.878  20.805  26.272 -0.1701 -0.1420  0.1094
87089W        W30142   8.947   9.732   4.226  0.2995 -0.0428 -0.1532
87090W        W30143   2.431  21.780  28.575 -0.0263 -0.0365  0.1080
87091W        W30144  25.615   5.830   7.009 -0.5424 -0.0963  0.0825
87092W        W30145   7.237   4.034   9.571 -0.3095 -0.1052 -0.0576
87093W        W30146  12.552  18.386  27.965 -0.0892 -0.1066 -0.1547
87094W        W30147  16.596  10.073   8.298 -0.0871 -0.2677  0.3845
87095W        W30148   3.811  25.324   6.332 -0.1898  0.0090 -0.0672
87096W        W30149  13.922  14.441  25.200  0.1635 -0.3376  0.1059
87097W        W30150   7.612  27.345  24.109 -0.0586 -0.2284 -0.0962
87098W        W30151  12.461   2.189   6.808  0.3234  0.1371 -0.1893
87099W        W30152  15.077  21.711  26.844  0.0775 -0.0373  0.0588
87100W        W30153  11.192  31.937   9.254  0.1564  0.0358 -0.2436
87101W        W30154   8.370  33.547  23.156 -0.0235  0.2196  0.3019
87102W        W30155  14.192  27.330  23.263  0.0024  0.0418  0.1616
87103W        W30156  10.830  17.758  19.691  0.1060 -0.1306  0.0101
87104W        W30157   4.960  34.181   6.925 -0.1347 -0.3188  0.1693
87105W        W30158  28.925  25.944   8.362  0.1967  0.1760 -0.0266
87106W        W30159   0.459  11.445   5.612 -0.2937  0.0556  0.3675
87107W        W30160  10.921  33.611  19.431 -0.1576 -0.0207  0.1562
87108W        W30161   0.839  20.759  27.710 -0.2913  0.0364  0.1817
87109W        W30162   5.066  32.020   2.922 -0.0936 -0.0415  0.0989
87110W        W30163   9.025  27.479  24.094  0.0246 -0.1821 -0.0831
87111W        W30164   8.704  19.267   7.700 -0.2849  0.0244 -0.0707
87112W        W30165   5.573   0.012   8.660  0.0191 -0.0843  0.3299
87113W        W30166   9.414  16.646   7.855 -0.0221 -0.1365 -0.0494
87114W        W30167   7.665  31.464   1.875 -0.1273 -0.3193  0.0486
87115W        W30168  22.765  14.007   2.998  0.2120  0.1561  0.0925
87116W        W30169   8.523  30.961   3.990  0.2414  0.3635 -0.0465
87117W        W30170  24.590  29.687  25.060 -0.0320  0.0858  0.0783
87118W        W30171  18.528   1.774  24.772 -0.1002  0.0257  0.0295
87119W        W30172   0.461  31.768  29.123  0.1593 -0.1687  0.1922
87120W        W30173   5.495  18.918  27.087 -0.1818  0.3017 -0.0366
87121W        W30174   2.416  23.302   4.991  0.1181  0.0880  0.3409
87122W        W30175  31.113   6.867   2.157 -0.3001 -0.3360  0.0081
87123W        W30176  25.788  28.441   2.601 -0.0353 -0.0049 -0.1297
87124W        W30177  29.863  31.812   7.036 -0.2343  0.1083 -0.2124
87125W        W30178  28.799  15.160   7.559 -0.1338  0.0388 -0.2584
87126W        W30179   4.447  11.262   8.202  0.2579 -0.0252  0.1099
87127W        W30180  24.317  12.582  21.576 -0.2147  0.2441  0.0799
87128W        W30181   7.449  11.459   0.117  0.1609  0.1632 -0.2086
87129W        W30182  28.950  10.547   9.502 -0.0738 -0.0396  0.2576
87130W        W30183  17.789  34.260   6.019  0.1083  0.3914 -0.0757
87131W        W30184  25.826   2.486   3.400 -0.1188  0.1671 -0.3515
87132W        W30185  19.427  30.840   3.553 -0.0757  0.0731  0.1322
87133W        W30186  16.625   0.857   7.823  0.1541 -0.0872 -0.1582
87134W        W30187  16.391  27.349   7.779 -0.0997 -0.0334 -0.0278
87135W        W30188  34.576   5.954  28.630 -0.1662 -0.3431 -0.0210
87136W        W30189   9.508  29.911   6.263  0.1056  0.4485  0.1027
87137W        W30190   6.072   3.646   6.161  0.2552 -0.1801  0.3821
87138W        W30191  12.666   0.782   1.814 -0.0756 -0.0110 -0.1960
87139W        W30192  33.227  27.138   3.718  0.0798 -0.1883  0.2178
87140W        W30193   5.018  24.732   7.028 -0.1225 -0.0839 -0.0644
87141W        W30194   2.777   7.137   1.416 -0.1123 -0.2459  0.1961
87142W        W30195  17.958  10.824  26.677  0.1723  0.0859 -0.0606
87143W        W30196  14.296   5.607   0.557 -0.2593  0.2470 -0.3123
87144W        W30197  23.694  30.738  23.569 -0.0639 -0.2323 -0.1379
87145W        W30198   6.133  11.441   6.202  0.2137  0.1602  0.3745
87146W        W30199   1.765  25.742   6.399  0.0002  0.2084  0.0149
87147W        W30200  13.445   4.785  10.071  0.1621 -0.2647  0.1897
87148W        W30201  17.167  28.527   9.523 -0.0768  0.1482  0.0789
87149W        W30202  15.651   7.821   2.196  0.1917 -0.1419  0.1899
87150W        W30203  28.862   8.750  26.780  0.4959 -0.0174 -0.4355
87151W        W30204  11.889  33.630   8.874  0.0845  0.0070  0.1519
87152W        W30205   9.268   3.998   0.873 -0.0542 -0.1132 -0.2143
87153W        W30206   7.140   0.193   5.680  0.1121  0.0859 -0.0508
87154W        W30207  17.824  29.275   1.772  0.0121 -0.1075 -0.0634
87155W        W30208  16.308  19.936   1.678 -0.0923  0.4131 -0.4617
87156W        W30209   4.339  18.694   4.984  0.1033  0.2772 -0.2232
87157W        W30210  30.538  33.639   3.085  0.2420 -0.0960  0.0925
87158W        W30211  10.613   3.944  16.957  0.0215  0.0138  0.1419
87159W        W30212  12.430  22.620  26.458  0.0517 -0.1546 -0.4156
87160W        W30213   4.149   1.218  25.694  0.0401  0.2596  0.1084
87161W        W30214  30.937  20.059  26.496 -0.0542  0.0239 -0.0406
87162W        W30215   8.458  33.248  26.691 -0.2151  0.0082 -0.3189
87163W        W30216  22.461   6.981   5.055 -0.0639  0.2444  0.0121
87164W        W30217  11.840  27.163   8.380  0.3118 -0.2723 -0.0139
87165W        W30218  20.926  19.772   0.584 -0.3489 -0.1259 -0.2582
87166W        W30219  11.253   2.552   3.509 -0.4002 -0.1328 -0.1674
87167W        W30220   2.613   1.822   9.647  0.3044  0.0878  0.1296
87168W        W30221  27.550  22.271   3.573  0.0395  0.4143  0.2881
87169W        W30222   4.991  27.673  10.033  0.1771 -0.0099 -0.2545
87170W        W30223  16.697   4.648   6.812 -0.0756 -0.0597 -0.1739
87171W        W30224   5.460  29.518  27.914  0.1500 -0.0124  0.1042
87172W        W30225  20.031   1.065   2.489  0.1713  0.1238 -0.1702
87173W        W30226  17.106   1.518   2.482  0.4028  0.1009 -0.3386
87174W        W30227  23.924  34.000   0.252 -0.1970  0.1612  0.0289
87175W        W30228   0.003   6.270   8.538  0.1548 -0.1459 -0.0157
87176W        W30229  25.277  27.389   1.006  0.1221 -0.0773 -0.0830
87177W        W30230  14.939  31.600  28.310  0.1020 -0.0401  0.2139
87178W        W30231   1.032   8.274  27.521 -0.1128 -0.0200 -0.0889
87179W        W30232  13.684  20.516  18.182  0.0038 -0.1902  0.1894
87180W        W30233  30.734   1.463   3.830  0.0929  0.0008 -0.2415
87181W        W30234  31.408  23.374  24.893  0.1522  0.0438 -0.0322
87182W        W30235   9.256  10.959  10.654 -0.0687  0.0074 -0.1531
87183W        W30236   2.435  33.401  24.264 -0.1643  0.0887 -0.3122
87184W        W30237  16.954  24.563  10.066 -0.2106 -0.2807  0.1335
87185W        W30238  10.616  10.763   8.277  0.0556 -0.1618 -0.1408
87186W        W30239  13.675  23.656   0.854  0.1039  0.1518  0.4452
87187W        W30240  24.608  28.763  28.545  0.3117 -0.0763  0.1524
87188W        W30241  32.749   5.817   7.624  0.0015 -0.2340 -0.0128
87189W        W30242   6.981   7.718   5.508  0.1346 -0.0173 -0.0383
87190W        W30243   8.758  31.509  26.328 -0.2479 -0.0391  0.0410
87191W        W30244   7.680  33.322   1.663 -0.2498  0.0313 -0.1460
87192W        W30245  31.801  18.415   4.331 -0.2187 -0.1827  0.2128
87193W        W30246  19.852   2.577   5.652  0.3757 -0.1886 -0.0120
87194W        W30247   6.958  34.551   2.406 -0.0642 -0.1694 -0.1172
87195W        W30248   4.090  30.503   7.626 -0.1822  0.1570 -0.1845
87196W        W30249  12.062  21.815  24.952 -0.4497 -0.1638  0.0487
87197W        W30250  15.298   8.618   8.509  0.4333 -0.1044 -0.1707
87198W        W30251  11.481  11.398  27.988 -0.0550 -0.0279  0.3462
87199W        W30252  16.332   1.261   0.738 -0.1587  0.0753  0.2914
87200W        W30253   2.252   3.996  24.850 -0.0501 -0.1918 -0.2151
87201W        W30254  23.339  21.204   8.234  0.0384 -0.3037 -0.3091
87202W        W30255  14.182   5.477   5.750  0.0221  0.2848  0.0798
87203W        W30256  17.337  25.853  10.650  0.3329 -0.0711  0.0798
87204W        W30257  15.054  19.055   9.221  0.3442 -0.0885 -0.1607
87205W        W30258   8.626  30.530  28.850  0.1009 -0.2757  0.0928
87206W        W30259  18.418   2.519  27.891 -0.0492  0.2732  0.0274
87207W        W30260   8.209   8.764   5.677 -0.1976 -0.1110 -0.1111
87208W        W30261  16.416  22.173   8.799 -0.0932 -0.1664 -0.4996
87209W        W30262   3.719  23.857  26.702 -0.1941 -0.1118  0.1722
87210W        W30263  16.630  24.939   6.928  0.2567 -0.1506 -0.0696
87211W        W30264  21.155  23.728   4.232  0.3488  0.0403 -0.0375
87212W        W30265  11.344   8.764  10.336 -0.1828 -0.0318  0.0536
87213W        W30266   9.186   6.934   8.182  0.2012 -0.1502 -0.0633
87214W        W30267   5.221  10.362   9.903 -0.2395 -0.3840 -0.0151
87215W        W30268  34.223   5.450   2.263 -0.2354 -0.1390 -0.3491
87216W        W30269  15.458  31.676   3.997  0.1522 -0.2337  0.1832
87217W        W30270  28.654  33.487  21.008 -0.3300 -0.2436 -0.3197
87218W        W30271   1.492  34.257  26.042  0.0819 -0.1334  0.0981
87219W        W30272  16.425   0.828  24.253 -0.0797  0.1201 -0.1035
87220W        W30273   4.084  15.127  24.915  0.4946  0.2758  0.3267
87221W        W30274  19.382  32.476   9.629  0.0060 -0.5085 -0.0012
87222W        W30275  30.257  30.758   6.174 -0.0911 -0.4933 -0.0449
87223W        W30276   5.021   1.943   4.006  0.0235 -0.0571 -0.0641
87224W        W30277   7.052   8.502   4.172  0.2075  0.0675 -0.1134
87225W        W30278   7.371   6.341   7.274 -0.3096 -0.2727  0.3513
87226W        W30279  21.872  24.994   8.907 -0.0140 -0.1506 -0.1345
87227W        W30280  29.721   2.343  28.441  0.3178 -0.0133 -0.1573
87228W        W30281  16.566   3.893  17.378 -0.1133  0.0084 -0.2555
87229W        W30282   6.858  33.959   5.832 -0.1136 -0.1900 -0.2801
87230W        W30283  10.595   9.745  10.421  0.0482 -0.0200 -0.2231
87231W        W30284   6.646   9.767  10.540  0.0122  0.0395 -0.1417
87232W        W30285   6.753   4.827   1.173 -0.2548 -0.2204  0.0306
87233W        W30286  23.790   1.754   7.562 -0.2006 -0.0051  0.0159
87234W        W30287   3.798   2.146  29.011 -0.0384 -0.0078  0.1903
87235W        W30288   3.368  26.684   8.681  0.2212 -0.1647 -0.2855
87236W        W30289  18.382  14.846   4.765  0.0671 -0.1734 -0.0720
87237W        W30290  32.523  32.290  21.954  0.0523  0.1635  0.0536
87238W        W30291  21.079   7.373  25.767  0.0408  0.0428 -0.2592
87239W        W30292   7.045  10.316  14.047  0.1132 -0.1034 -0.0193
87240W        W30293  16.949   2.565  25.808  0.0923  0.1010  0.0862
87241W        W30294  10.527  25.081   9.100 -0.3238 -0.2771 -0.1130
87242W        W30295  19.655  33.046  26.220 -0.0587 -0.3339 -0.1302
87243W        W30296  18.834  29.571  23.038 -0.1682  0.1159  0.0723
87244W        W30297  25.616   8.061   2.942  0.2012 -0.1885  0.2466
87245W        W30298  27.065   5.297   1.718  0.4072 -0.4251 -0.1711
87246W        W30299  12.303  31.189   5.404  0.0530 -0.0092 -0.1363
87247W        W30300   5.650  17.295   0.378  0.1278 -0.1995 -0.2867
87248W        W30301   0.888   8.928   3.957 -0.3445 -0.0033  0.1170
87249W        W30302  15.276  12.804   7.589 -0.2110 -0.0818 -0.1224
87250W        W30303  25.558   8.538   8.314 -0.0060  0.3004 -0.1130
87251W        W30304  23.142   0.644   1.258  0.0411 -0.0386 -0.0577
87252W        W30305  11.121  20.530  26.645 -0.0295 -0.1812 -0.0226
87253W        W30306   2.091   3.367   0.768 -0.2319  0.0730  0.0250
87254W        W30307  23.399   3.783   8.724 -0.1719 -0.1440  0.1476
87255W        W30308   3.243  10.398  27.200 -0.0610  0.0228 -0.0163
87256W        W30309   4.505   7.968   3.883 -0.1933 -0.0042 -0.0688
87257W        W30310  22.621  34.636  27.235  0.1942 -0.1394  0.2440
87258W        W30311  21.215   8.064  27.086 -0.0605 -0.1736 -0.1421
87259W        W30312  20.747  32.386  16.915  0.1066  0.0974  0.3074
87260W        W30313  22.607   7.960   8.397  0.2728 -0.1231  0.1166
87261W        W30314  26.116   9.980  21.039 -0.2332  0.1101 -0.1676
87262W        W30315  10.640   5.649  10.132  0.1160 -0.1413  0.0941
87263W        W30316  29.384  31.545   2.473  0.1128 -0.2230 -0.1785
87264W        W30317  17.274  26.314   2.252 -0.0133  0.0359 -0.1027
87265W        W30318  14.580   3.782  28.214  0.1549  0.1814 -0.0628
87266W        W30319  13.626  33.461   5.773 -0.0172 -0.1064  0.1877
87267W        W30320  15.469   4.641   3.372 -0.1437  0.0200 -0.4173
87268W        W30321  34.327   7.447   0.572  0.1334 -0.0694  0.3597
87269W        W30322  10.782  31.388  23.738  0.1692  0.1683 -0.2009
87270W        W30323  16.998  12.742   1.060  0.3488  0.0522 -0.1262
87271W        W30324  30.278  11.161   1.682 -0.2207  0.0631  0.0312
87272W        W30325  10.258  11.420  11.095 -0.1936  0.0797 -0.0204
87273W        W30326  12.362   7.457  18.531 -0.1287 -0.1091  0.2060
87274W        W30327   9.794   6.355   3.529  0.0691  0.0105  0.0133
87275W        W30328   8.594   2.226  28.147 -0.0285 -0.0586 -0.1902
87276W        W30329   6.093  26.563  24.046 -0.0918 -0.2031 -0.1908
87277W        W30330  25.562  19.269   5.144 -0.3536  0.1875 -0.0299
87278W        W30331   3.521  13.709   2.698  0.1771 -0.1402  0.1076
87279W        W30332  16.322   3.966  16.942  0.1549 -0.2944 -0.0817
87280W        W30333   3.505  28.469  25.840  0.0659  0.0599  0.0117
87281W        W30334  24.967  32.796  16.996 -0.4152 -0.0016  0.0279
87282W        W30335  15.437  27.577  25.450  0.1827 -0.0937 -0.1005
87283W        W30336  20.644   6.095  17.931  0.0551  0.0488  0.0381
87284W        W30337  29.536  23.867   5.896 -0.0209 -0.0032  0.0054
87285W        W30338  32.736  25.869   0.929 -0.1325 -0.0634 -0.0014
87286W        W30339  13.639   8.912  22.235 -0.3478  0.4185  0.0064
87287W        W30340  19.442  31.729   2.097  0.1468 -0.0767  0.1836
87288W        W30341  10.677  33.358   4.205 -0.0804 -0.0861 -0.1400
87289W        W30342  21.599  28.244   8.003 -0.1984  0.0832  0.2600
87290W        W30343  16.222  34.458   3.163 -0.1556 -0.0713  0.1468
87291W        W30344   3.345  20.661   3.236 -0.3001 -0.1722 -0.0123
87292W        W30345   6.807  27.430   2.407  0.2994 -0.2711  0.1589
87293W        W30346  15.725   7.242  25.995 -0.1651  0.1448  0.2090
87294W        W30347   3.532  28.294   1.899 -0.5292 -0.0161  0.0327
87295W        W30348  16.103  25.777  15.352 -0.1746 -0.2657  0.1812
87296W        W30349  21.569  30.955   7.290  0.1092  0.3005  0.3733
87297W        W30350  25.483   0.377   9.601 -0.1356  0.0681  0.2945
87298W        W30351  32.926  16.480  19.350 -0.1062  0.2538 -0.2001
87299W        W30352  17.349   1.344   8.218  0.3154 -0.0677  0.0190
87300W        W30353   6.950  32.669  28.306  0.1951 -0.1577 -0.0471
87301W        W30354  19.637   8.619   8.565  0.1169  0.2940  0.2251
87302W        W30355  19.864  31.309  24.373 -0.1601  0.5064 -0.0276
87303W        W30356   6.021  13.942  17.735  0.0139  0.3076 -0.1622
87304W        W30357  12.378  34.355  27.308  0.2685  0.3889  0.2114
87305W        W30358  13.983   9.946   7.796  0.2041  0.0065  0.1273
87306W        W30359   9.859   8.273   7.742 -0.0719 -0.2677  0.0395
87307W        W30360  18.399  11.320   5.135 -0.3263  0.1826  0.0050
87308W        W30361  11.533  27.895   3.835  0.3539 -0.0143 -0.2047
87309W        W30362  14.786  33.601   3.618 -0.0369 -0.1976 -0.0130
87310W        W30363  33.865   1.393   0.958 -0.0296 -0.2019  0.0387
87311W        W30364   1.920  18.123  20.176 -0.0568  0.1200  0.2643
87312W        W30365   8.680  29.091  25.291 -0.1294  0.0839  0.0307
87313W        W30366  11.967   1.554   0.822 -0.0221  0.0535  0.1370
87314W        W30367  15.307   4.883   4.330  0.1314 -0.1784  0.0216
87315W        W30368  27.386   9.719  29.155 -0.1922 -0.1683  0.2533
87316W        W30369  11.116   9.804   4.685 -0.0557  0.0930  0.0191
87317W        W30370  13.213  10.000   7.572 -0.1338 -0.0365 -0.0029
87318W        W30371  16.442  10.203  22.880 -0.0227 -0.3252 -0.3244
87319W        W30372  15.626  28.175  29.141 -0.0361  0.0122 -0.2477
87320W        W30373   6.334   4.060   7.041 -0.2794  0.0459 -0.0361
87321W        W30374  13.465  11.509  19.882  0.1172  0.0179  0.1093
87322W        W30375   5.462  10.684   4.706 -0.0171 -0.1288  0.0407
87323W        W30376  31.322  10.110   7.838 -0.1924  0.1715  0.1546
87324W        W30377  22.301   8.536   8.958  0.0358  0.1699 -0.3268
87325W        W30378   9.441   3.686  29.011 -0.1895 -0.0524 -0.1009
87326W        W30379  20.141  31.740  18.452  0.3079  0.2690 -0.1112
87327W        W30380   8.311  19.010   7.607  0.2316  0.1450  0.1505
87328W        W30381  16.032  33.936   7.541 -0.0647 -0.1002 -0.2441
87329W        W30382  30.771  29.084  24.172 -0.2127 -0.3337  0.0055
87330W        W30383  18.023   3.940  26.781  0.1330  0.0112 -0.0042
87331W        W30384  12.405  27.762  25.725 -0.0564 -0.1229 -0.0176
87332W        W30385   8.576   3.558   3.422  0.2441 -0.0911 -0.2605
87333W        W30386  17.708  32.001   4.330  0.0228  0.0164  0.2374
87334W        W30387  32.473   6.514  28.746  0.1944 -0.2964 -0.0639
87335W        W30388   7.327  27.548   5.297  0.2214  0.1160  0.2498
87336W        W30389   8.954  10.641   1.740  0.2457 -0.0128  0.0443
87337W        W30390  20.932   7.561  10.286 -0.0332 -0.1721 -0.3653
87338W        W30391  32.478   2.595  20.321 -0.0813 -0.1813  0.0472
87339W        W30392  22.722  19.327   5.056  0.3203 -0.1296  0.1264
87340W        W30393   8.132  28.652  20.012 -0.1443 -0.2067  0.1120
87341W        W30394   2.336  11.823   4.838 -0.3374  0.3520  0.1424
87342W        W30395   0.642   8.049  17.432 -0.0903 -0.1971 -0.3170
87343W        W30396  32.826  14.652  25.309  0.0972  0.0435  0.3366
87344W        W30397  17.814   6.564   3.360 -0.0604 -0.1725 -0.0823
87345W        W30398  17.930   5.165   3.748  0.3687 -0.1339  0.1582
87346W        W30399  12.627  22.118  15.666  0.0499  0.1414 -0.2011
87347W        W30400   1.731  27.859  17.281 -0.2395  0.0829  0.0917
87348W        W30401  23.446  33.754   2.819  0.2398 -0.0398  0.0386
87349W        W30402  15.316   2.313   2.794  0.3505 -0.2592 -0.2516
87350W        W30403  21.838  28.312   4.114 -0.0702 -0.1709  0.3377
87351W        W30404  12.921   2.199   1.515 -0.0776  0.2470  0.1452
87352W        W30405  23.714   0.626  24.208 -0.2588  0.0732 -0.0790
87353W        W30406  11.639   8.127  27.776 -0.0169 -0.2720 -0.1197
87354W        W30407  18.485  17.078  25.197  0.1201 -0.0530  0.1701
87355W        W30408  14.790   8.031   2.579  0.1146  0.4184 -0.0735
87356W        W30409  20.362  28.288   8.727  0.0845 -0.1570  0.3190
87357W        W30410  16.457  12.281   8.553 -0.1549 -0.0581  0.1654
87358W        W30411  19.825   1.659   7.555  0.1378  0.2334 -0.1944
87359W        W30412  22.287  30.982  28.095 -0.3097  0.0210  0.4070
87360W        W30413   1.646  10.878   8.957 -0.2136  0.2775 -0.0971
87361W        W30414  10.656  27.330  23.768 -0.1763  0.2536  0.1770
87362W        W30415  24.856   7.265   3.955 -0.2107 -0.2616 -0.1366
87363W        W30416  28.602   9.728  14.618 -0.1476  0.0831  0.0277
87364W        W30417  10.581  17.645  14.259 -0.1502 -0.3100 -0.0331
87365W        W30418  17.185  11.670   1.205 -0.2142 -0.1568  0.0789
87366W        W30419  14.598   3.518  28.633 -0.1018 -0.3346 -0.0087
87367W        W30420  14.894   3.128   5.174 -0.1125  0.0294  0.0686
87368W        W30421  29.365  28.403   8.398 -0.1619 -0.0855 -0.2829
87369W        W30422   7.316  33.220  28.970 -0.4344  0.0414 -0.0201
87370W        W30423   5.186   7.349  26.781  0.0477 -0.0471  0.2831
87371W        W30424  27.186  33.955  14.978  0.0007 -0.1172 -0.0469
87372W        W30425   8.155  31.293  20.807 -0.0630 -0.1164  0.0182
87373W        W30426  10.980  33.158  21.524 -0.0894 -0.5173  0.0496
87374W        W30427  13.477   8.687   6.902 -0.1530  0.0576 -0.2273
87375W        W30428   4.791  17.482   1.516 -0.1574 -0.0230  0.0518
87376W        W30429  14.797   6.931  19.120  0.2071  0.3967  0.1911
87377W        W30430  14.899  16.867   2.061 -0.3471  0.0468 -0.1331
87378W        W30431   7.589  31.082  16.854  0.1719  0.2068 -0.1051
87379W        W30432  20.811  34.293  15.901  0.1841  0.2217  0.2633
87380W        W30433   8.369  14.991   4.259 -0.2258 -0.1750  0.1066
87381W        W30434  17.652   0.999  18.108  0.3639  0.0725 -0.2381
87382W        W30435  25.883  11.560   2.344  0.2173 -0.0949 -0.0112
87383W        W30436  21.851  14.558  28.714 -0.0230 -0.0595 -0.2187
87384W        W30437  18.329   9.795  14.732  0.1595  0.1946  0.2489
87385W        W30438   9.249   6.306   7.496  0.2344 -0.1645  0.1427
87386W        W30439   8.681  20.133  26.224  0.0156 -0.1856 -0.1835
87387W        W30440   9.831  17.455  27.175  0.3484 -0.2029  0.3378
87388W        W30441   1.073  32.949  23.840 -0.7696 -0.0850 -0.1240
87389W        W30442  12.469  33.905  29.009  0.1631  0.0566 -0.1257
87390W        W30443  12.615   8.897   0.690 -0.1277  0.1195  0.2243
87391W        W30444  27.950   8.227   5.200  0.1418  0.0100  0.3469
87392W        W30445  29.728   0.861   3.861 -0.0541  0.3552 -0.0146
87393W        W30446   1.439  30.183   8.788  0.1769 -0.3298 -0.0994
87394W        W30447  29.600  29.830   1.240  0.1141 -0.4609  0.3619
87395W        W30448  17.960  34.224   4.860 -0.0967  0.1912 -0.1113
87396W        W30449  29.701  25.112   3.601  0.3840 -0.1739  0.1818
87397W        W30450   9.664  31.886   5.514 -0.2618 -0.2349  0.0560
87398W        W30451   2.362   7.919   6.133  0.3785 -0.2586  0.0438
87399W        W30452   3.935   1.995  27.790 -0.0897  0.2062 -0.0280
87400W        W30453  29.975   5.885  28.063  0.0283 -0.1477  0.1344
87401W        W30454  19.020   6.650   3.554  0.1445 -0.3765 -0.0069
87402W        W30455  10.739   6.465  18.164  0.0884  0.2356  0.1102
87403W        W30456   9.563  25.830  23.862  0.2777  0.0798 -0.0860
87404W        W30457   6.466  29.704  19.909 -0.2202 -0.2550  0.1557
87405W        W30458   5.668   4.062   1.043  0.0822 -0.2599 -0.1091
87406W        W30459   9.140  32.118   7.417 -0.3033 -0.1801  0.0188
87407W        W30460  32.175  14.885  29.061  0.1497  0.2641  0.3446
87408W        W30461  24.887  30.084  24.983  0.0868  0.4038  0.1678
87409W        W30462   3.619   0.469   3.581 -0.2644 -0.2155 -0.0397
87410W        W30463  10.234  33.182   0.235  0.1789  0.3318  0.0427
87411W        W30464   9.506  18.412   7.609  0.2343 -0.0381  0.1869
87412W        W30465  23.617   9.529  28.613 -0.0156  0.0775 -0.1089
87413W        W30466  22.760  32.929   2.342  0.2624 -0.3029 -0.0594
87414W        W30467  34.410   4.435   4.072 -0.0003 -0.1395  0.2489
87415W        W30468  11.538   3.736  20.816  0.1675  0.1174 -0.2898
87416W        W30469   2.645  30.526   4.311  0.0417  0.1047  0.0715
87417W        W30470  16.955   8.049   8.367 -0.0086 -0.3428  0.0170
87418W        W30471   7.388  10.901  28.987 -0.2038 -0.0257 -0.1021
87419W        W30472  13.002  30.918  21.100  0.0031 -0.0745 -0.2561
87420W        W30473  16.058   3.836   0.598 -0.2024 -0.1864 -0.2223
87421W        W30474   1.351  21.847  26.884 -0.1002  0.0881  0.0051
87422W        W30475  29.183   6.596  25.922 -0.0944 -0.1493 -0.1805
87423W        W30476   5.854   1.909  21.528  0.1581 -0.2731 -0.2748
87424W        W30477  13.775  20.030  18.413  0.2581 -0.3463  0.1841
87425W        W30478  10.176   4.920   1.161 -0.0597  0.1747 -0.1858
87426W        W30479   1.462  33.631   0.030 -0.0336 -0.3490 -0.0905
87427W        W30480  19.779   0.001   7.828 -0.2498 -0.0304  0.2890
87428W        W30481  34.285   6.008   2.071  0.5014 -0.1959  0.0236
87429W        W30482  30.250  29.059  22.981  0.2916  0.0341 -0.0552
87430W        W30483  25.878  19.927   2.682 -0.0808 -0.1454 -0.0042
87431W        W30484  23.156  23.054  10.170  0.0489  0.1311  0.1132
87432W        W30485  12.458   8.485  23.439 -0.2467 -0.1113 -0.1258
87433W        W30486  17.875  10.477   9.187  0.2646 -0.0664 -0.0285
87434W        W30487  13.648  18.884  28.105  0.0704  0.2923  0.0671
87435W        W30488  23.899  29.704   0.047  0.1185 -0.1017 -0.0338
87436W        W30489   6.332   3.101   5.630  0.1903 -0.2215  0.1009
87437W        W30490   4.199  30.163   7.234 -0.2185  0.2729 -0.1077
87438W        W30491  20.365   0.811  17.632  0.0264  0.0312  0.1679
87439W        W30492  26.404   5.052  28.206 -0.1406  0.2227  0.1900
87440W        W30493  14.002  24.191   0.302  0.0552  0.0665  0.1337
87441W        W30494  23.233  11.017  25.236  0.0533  0.1654 -0.4332
87442W        W30495   0.207  23.288  26.692  0.1748 -0.1580  0.0876
87443W        W30496  18.488  30.610  26.730  0.3811  0.0783 -0.0242
87444W        W30497  11.777   0.960  27.727  0.0269  0.0270  0.2944
87445W        W30498  12.706  21.527   9.243  0.3279  0.0571 -0.0100
87446W        W30499   1.240  22.798  21.595 -0.0443 -0.0483 -0.1938
87447W        W30500  12.080   6.155  20.590 -0.0264 -0.2374 -0.0806
87448W        W30501   9.408   0.485  27.006 -0.1368  0.0177  0.2975
87449W        W30502  11.844  16.941  24.733 -0.0159  0.0932  0.4119
87450W        W30503   0.128  10.863   3.544 -0.1880  0.1161  0.0681
87451W        W30504  22.210  10.416  26.905  0.0760  0.1358 -0.1933
87452W        W30505  14.440  17.595   8.875 -0.3288 -0.2322 -0.0032
87453W        W30506  20.319   0.893   8.834 -0.0413  0.0550  0.0153
87454W        W30507  22.093   6.891   1.666  0.0389  0.1281  0.0739
87455W        W30508  10.109   6.830   4.185 -0.0393 -0.2625  0.1899
87456W        W30509  11.893  22.134   1.327  0.0554 -0.5437 -0.2672
87457W        W30510  13.037  29.313  25.102 -0.3766  0.5230  0.0658
87458W        W30511  10.006  14.042  25.436 -0.1390 -0.1392 -0.0076
87459W        W30512  26.260  12.827  20.592  0.1974  0.1893  0.1647
87460W        W30513  30.623  28.801   9.577 -0.0923  0.2490  0.1002
87461W        W30514   4.906  21.130  26.834 -0.0730 -0.4669 -0.0546
87462W        W30515  11.281  33.251   7.966  0.0710  0.1654 -0.0285
87463W        W30516  13.502  15.139   3.350 -0.2028  0.0192  0.1823
87464W        W30517  15.506  24.030  25.445 -0.1194 -0.2803 -0.1188
87465W        W30518  10.737   6.530  10.650  0.0663 -0.1801  0.0818
87466W        W30519   7.124   4.988  24.821 -0.0025  0.1020  0.0921
87467W        W30520  11.695   6.737  28.369  0.1904 -0.1522  0.1125
87468W        W30521  16.582  32.843   2.197 -0.0090  0.0049 -0.3658
87469W        W30522  14.873   4.802   9.706  0.4261  0.0828  0.0037
87470W        W30523  14.184  31.186   3.962  0.1476  0.0990  0.0542
87471W        W30524  17.395  29.519   5.444  0.0056 -0.2032 -0.2576
87472W        W30525  22.577  27.764  26.960 -0.2348  0.1173  0.0768
87473W        W30526  10.207  34.663   0.738 -0.0052  0.1695  0.0090
87474W        W30527  11.759  18.906   8.021 -0.2130  0.1998  0.1228
87475W        W30528  20.176   2.681   0.831 -0.0973  0.0887  0.0313
87476W        W30529  23.545  32.058  24.224 -0.0276  0.2854  0.1009
87477W        W30530  14.218   6.208   1.261 -0.0494 -0.1007  0.0903
87478W        W30531  24.053   7.779  25.760  0.0127 -0.0088  0.4627
87479W        W30532  22.850  12.605   1.432 -0.1055  0.1217 -0.0279
87480W        W30533  24.419  22.861  18.030  0.1777 -0.2317  0.2010
87481W        W30534  18.388  28.939  15.903  0.0334  0.1737 -0.0600
87482W        W30535  17.993  31.686   5.880 -0.1891  0.0621 -0.0864
87483W        W30536   8.141   8.117  15.445 -0.3127  0.0229  0.0457
87484W        W30537  18.679  31.399   7.688  0.0148  0.3111 -0.2609
87485W        W30538  21.347   9.118   6.332  0.1106 -0.1002 -0.1117
87486W        W30539  11.675  29.131  28.637 -0.0391 -0.0752  0.2978
87487W        W30540   5.400   1.609  28.386  0.1055  0.1085  0.1829
87488W        W30541  16.734  30.254   6.612 -0.0128  0.1357 -0.2947
87489W        W30542  16.646  25.341   9.031 -0.0324  0.4282  0.1698
87490W        W30543  21.559  33.763  28.260 -0.2258 -0.1068 -0.4967
87491W        W30544  22.821  34.538   0.818  0.0043  0.4152 -0.1233
87492W        W30545  32.249   9.751   6.493  0.1218  0.0635 -0.3629
87493W        W30546  30.068  22.713  17.214  0.4464  0.2122  0.2798
87494W        W30547  17.704   0.708   7.327 -0.2630 -0.0258  0.0050
87495W        W30548  27.119  29.611   4.561 -0.1216 -0.1753  0.1388
87496W        W30549  30.768  30.233   7.315  0.1155  0.1471  0.0983
87497W        W30550   9.913  11.970   8.208  0.0365  0.3693  0.2246
87498W        W30551  12.806  30.395   7.228 -0.1381 -0.0930  0.0320
87499W        W30552   0.725   1.285   7.276 -0.0851 -0.1031 -0.1744
87500W        W30553  10.361  24.952   2.287  0.0703 -0.0123  0.0965
87501W        W30554  17.665   4.764   3.589  0.1189 -0.0013  0.0936
87502W        W30555  24.674  31.837   9.826 -0.2327  0.1736 -0.0419
87503W        W30556  19.093   2.235  15.212 -0.0784  0.0184  0.0321
87504W        W30557   7.463   7.493  26.077 -0.1408 -0.0008 -0.0878
87505W        W30558  29.310   9.797  28.157 -0.1708  0.0436 -0.2306
87506W        W30559  11.593  31.589  10.119  0.0501 -0.3224  0.0049
87507W        W30560  19.923   4.964   2.210 -0.2570 -0.0150  0.0746
87508W        W30561   5.320   4.143  24.530 -0.2408  0.0542 -0.0028
87509W        W30562  21.599  13.192  19.108 -0.0508  0.0853 -0.0659
87510W        W30563  23.110   3.667   1.906  0.1869  0.0301  0.3910
87511W        W30564  13.521   6.077   3.883 -0.1258 -0.2891  0.0211
87512W        W30565   6.507  19.466   6.848 -0.0357 -0.0350  0.3874
87513W        W30566  31.118  30.492  28.465 -0.2881 -0.0268  0.2094
87514W        W30567   6.495  31.217  26.244  0.0803 -0.1386  0.5584
87515W        W30568  14.808  17.261   0.986  0.0186 -0.0762 -0.2556
87516W        W30569  10.758   0.881   6.406 -0.1028  0.0516 -0.2848
87517W        W30570  14.161  34.483   9.566 -0.5438  0.4236  0.1577
87518W        W30571  34.235  26.390   6.241  0.1546 -0.0080  0.0018
87519W        W30572  14.098  31.726  21.880 -0.2256 -0.0108 -0.0441
87520W        W30573   2.088  15.490  24.140 -0.3559  0.0796 -0.3648
87521W        W30574  15.135   2.987   7.043 -0.1608  0.4790 -0.3191
87522W        W30575   5.899  25.952   5.290 -0.0271 -0.0157  0.2098
87523W        W30576   7.094   7.821  26.185  0.3054  0.1090  0.0869
87524W        W30577  21.801  30.799   1.064  0.1640  0.2735 -0.0200
87525W        W30578   7.789   2.860   8.173  0.0697  0.1031  0.3855
87526W        W30579  22.730  33.011  14.566 -0.2617 -0.2198 -0.1692
87527W        W30580  29.193  23.055  16.590  0.0292  0.0465  0.2925
87528W        W30581  12.049  33.951   3.639  0.0808  0.2474  0.2086
87529W        W30582  15.432  28.507   4.125  0.1870  0.0230 -0.0943
87530W        W30583   2.806  10.539  26.548 -0.0375  0.0300 -0.0459
87531W        W30584  11.155  21.596   6.106  0.1544  0.0117  0.1221
87532W        W30585  15.340  13.055  20.457  0.0892 -0.1358 -0.1774
87533W        W30586  11.468   7.052   1.274 -0.1734 -0.4123 -0.2618
87534W        W30587  24.703   9.148   7.409  0.1668 -0.1139 -0.0878
87535W        W30588  22.685  25.148  10.202 -0.1622  0.2114 -0.0457
87536W        W30589  29.133  19.947  21.466 -0.1322 -0.2838  0.0316
87537W        W30590  12.190  21.506   3.086 -0.3116  0.1959  0.1276
87538W        W30591  15.031  23.576   2.047  0.0583  0.1089 -0.0090
87539W        W30592  30.639   3.018  26.870 -0.1666  0.1338 -0.1920
87540W        W30593   6.902  14.560  25.704  0.0524  0.2295 -0.1107
87541W        W30594   5.294  25.889  22.108  0.3820 -0.2205  0.2924
87542W        W30595  12.301  18.633   9.921 -0.2724  0.0663  0.0752
87543W        W30596  13.606  24.436   1.136 -0.1214  0.5290 -0.1034
87544W        W30597  21.581  23.134   7.373  0.2779  0.0184  0.2154
87545W        W30598  14.222  28.781   6.173  0.0253  0.5203 -0.2859
87546W        W30599  16.625  16.347  27.066  0.3229  0.1058 -0.0982
87547W        W30600  11.217   7.930   2.431  0.1000  0.0786  0.2729
87548W        W30601  11.273   3.535  25.752 -0.0543  0.1308  0.4532
87549W        W30602  20.748  33.327  21.130 -0.2472  0.0643  0.1208
87550W        W30603   9.309   4.881  10.383 -0.0948  0.4138 -0.0860
87551W        W30604  15.015   1.957  27.175 -0.2000 -0.0505  0.0843
87552W        W30605  22.715  29.608   6.447  0.0183  0.0136  0.2532
87553W        W30606   7.951  18.713   9.354 -0.1590  0.1129  0.2907
87554W        W30607  23.398  26.655   5.260 -0.1217 -0.2018 -0.1413
87555W        W30608   5.029  18.084  20.311  0.0037 -0.3832 -0.1690
87556W        W30609   8.840  30.088   4.349  0.3682 -0.1249 -0.1365
87557W        W30610  12.317  31.046  26.937 -0.1953 -0.0803 -0.0008
87558W        W30611  18.303   3.375   9.982 -0.0762  0.2300 -0.2491
87559W        W30612  29.941  33.676  16.256  0.0725 -0.0947  0.3451
87560W        W30613  16.060  10.736   7.867 -0.1249  0.0740 -0.2288
87561W        W30614  27.315  25.205  23.513  0.0579  0.0476 -0.2330
87562W        W30615   2.873  19.118   4.718 -0.1031  0.1993 -0.3424
87563W        W30616  17.158   3.833  24.292  0.1508 -0.3963 -0.1819
87564W        W30617  31.582  10.722  25.931 -0.0449  0.2030  0.2893
87565W        W30618   8.504  34.063   4.812  0.3191 -0.2002 -0.0964
87566W        W30619   8.452  30.357  24.923 -0.0478 -0.0651  0.0446
87567W        W30620   2.703  18.094  24.993 -0.2196 -0.0022 -0.2339
87568W        W30621   5.688  31.499  20.330  0.3744 -0.2575  0.0961
87569W        W30622  11.795  31.591   8.026 -0.3012 -0.1318 -0.0695
87570W        W30623   8.075   1.710   5.947 -0.0595  0.0554  0.5343
87571W        W30624  30.029   4.202   5.825 -0.1838 -0.1943  0.3214
87572W        W30625  15.973   3.227  24.007  0.1133 -0.0713  0.1926
87573W        W30626  22.398  22.230  21.468 -0.1666  0.0027  0.2996
87574W        W30627  16.994  15.920   7.515  0.1018 -0.1514  0.2223
87575W        W30628  13.328   4.789  26.056 -0.0778  0.0814  0.1287
87576W        W30629  18.476  13.972   9.830  0.6383 -0.0149  0.2112
87577W        W30630  17.621  24.281   9.701  0.0601 -0.0406  0.0580
87578W        W30631  12.711  15.316  25.370 -0.0151  0.2125 -0.3405
87579W        W30632  16.745   0.820   8.328 -0.1576 -0.3666  0.0859
87580W        W30633   8.343   8.467  17.691  0.0817 -0.1683 -0.0066
87581W        W30634   1.787   6.248   8.025  0.0678  0.0396 -0.0054
87582W        W30635  27.096   3.822   1.320  0.1007  0.1059  0.1260
87583W        W30636  18.149  12.103   4.808  0.1489  0.0376 -0.2527
87584W        W30637   1.484  31.693   8.942  0.0378  0.2081 -0.4853
87585W        W30638   8.340   0.598  22.066  0.0180  0.1552  0.1480
87586W        W30639  27.050   1.894  22.659 -0.1645 -0.1303  0.0148
87587W        W30640   0.506  31.125   7.519 -0.1323 -0.1350 -0.1850
87588W        W30641  13.733  22.674  18.137 -0.0327 -0.0009  0.0551
87589W        W30642  24.979  27.553  27.138  0.2212 -0.0000 -0.0153
87590W        W30643  21.135  12.535   0.397 -0.2447  0.1371 -0.0216
87591W        W30644  14.761  32.418   7.954  0.0001 -0.1141  0.1636
87592W        W30645  15.428   3.733   4.807 -0.3777 -0.2294  0.0311
87593W        W30646  13.222   6.688  24.785  0.0729  0.2486 -0.3231
87594W        W30647  18.841   2.495  19.986  0.4408  0.0701 -0.0041
87595W        W30648  10.374  30.985  15.169 -0.1574 -0.2724  0.0143
87596W        W30649  23.994  13.792  21.275 -0.0656 -0.2869  0.2661
87597W        W30650  19.638  10.827   1.880 -0.0397 -0.3159 -0.3279
87598W        W30651  23.324  31.220  18.852  0.3391 -0.0070 -0.1304
87599W        W30652   3.845   3.897  26.546  0.0476 -0.4670 -0.0035
87600W        W30653  24.589  31.485   7.622  0.1815 -0.1223 -0.0964
87601W        W30654  25.475   3.493   0.447 -0.0856 -0.2439  0.0519
87602W        W30655   5.689   3.396   2.839  0.2952  0.0387 -0.2576
87603W        W30656  26.351   1.464   7.715  0.0160  0.2899  0.2369
87604W        W30657  26.547  23.332   1.242  0.0952 -0.1289  0.0365
87605W        W30658  12.284  11.958  27.797 -0.1047  0.0663  0.1461
87606W        W30659  10.363  19.229   4.587  0.2073  0.2081 -0.1301
87607W        W30660  19.632   1.208  22.839 -0.3601  0.2476  0.1126
87608W        W30661  20.882   0.711   7.477  0.1619  0.1655  0.0472
87609W        W30662  21.612   5.561  14.191 -0.1927  0.0849  0.3039
87610W        W30663   7.245  14.636   0.720 -0.3303 -0.2532 -0.2046
87611W        W30664  13.530   9.323   1.823 -0.0621 -0.0827 -0.0039
87612W        W30665  19.394  10.696   1.422  0.1746 -0.3019 -0.0103
87613W        W30666  18.407   3.587  24.983 -0.2760 -0.0641 -0.1217
87614W        W30667  21.026  11.822   7.330  0.3348 -0.0668  0.2650
87615W        W30668   6.152   3.150  27.667 -0.0995  0.3610 -0.1950
87616W        W30669   3.356  26.743  26.770  0.1230 -0.2491  0.0251
87617W        W30670  16.626   2.281  24.771  0.0578 -0.0693 -0.3604
87618W        W30671   2.950   6.992   2.073 -0.0073  0.1725 -0.2490
87619W        W30672   3.476  24.203  24.201 -0.1255 -0.1331 -0.1297
87620W        W30673  26.569   5.273  24.749 -0.3826 -0.3061  0.2752
87621W        W30674  15.939  17.656   6.782  0.2206 -0.1441 -0.1751
87622W        W30675  19.306  12.360  25.064  0.2080  0.0130 -0.2533
87623W        W30676  26.290   0.746   7.259  0.1052 -0.0964 -0.0679
87624W        W30677   7.729  28.032  23.001  0.1388  0.0235  0.2335
87625W        W30678   8.830  30.657  26.248  0.0163  0.1538  0.1105
87626W        W30679  12.492   1.703  27.536  0.3853  0.1809 -0.2459
87627W        W30680   5.670   7.008   0.921  0.0412 -0.2047 -0.0103
87628W        W30681  18.519   7.938   6.851 -0.0259  0.2650 -0.0468
87629W        W30682  10.023  27.138  23.081 -0.0819  0.0070 -0.1055
87630W        W30683  14.123  24.161  10.316  0.0278  0.2052 -0.4082
87631W        W30684  12.548   8.024  27.685  0.5804 -0.0252  0.0155
87632W        W30685   1.949  25.715   2.322 -0.2159  0.1981  0.0679
87633W        W30686  27.444   6.401   6.417 -0.0287  0.1557 -0.0277
87634W        W30687   9.054   3.895  24.846 -0.0388 -0.0422 -0.0396
87635W        W30688   2.441  30.775  25.826 -0.0388  0.0776  0.2499
87636W        W30689  10.823  20.798   8.757  0.2297 -0.0944 -0.0099
87637W        W30690  20.151  31.746  25.672  0.0872  0.2776  0.2447
87638W        W30691  16.399  15.426  28.462 -0.0589 -0.3519 -0.2560
87639W        W30692  15.118  32.457   6.596  0.3941  0.1517 -0.0950
87640W        W30693  31.084  21.358   4.925  0.3861  0.1803 -0.2990
87641W        W30694  10.894  11.489  19.143  0.3330 -0.4360 -0.1358
87642W        W30695  15.928  28.796   6.449 -0.0659  0.1602  0.3000
87643W        W30696  14.803  31.506   8.936  0.3668  0.2836 -0.0579
87644W        W30697   1.146  29.930   2.305 -0.0705 -0.1023 -0.0492
87645W        W30698  31.553   7.300  27.034 -0.2708 -0.0916 -0.2457
87646W        W30699  11.735  32.389   7.219  0.1624  0.0634 -0.0833
87647W        W30700  32.704  33.651   0.052  0.0360  0.2271 -0.2988
87648W        W30701  19.147   2.813  22.394  0.0367  0.1264 -0.3962
87649W        W30702  24.021  30.787  17.130  0.0394  0.1677  0.2460
87650W        W30703   4.158   8.219  28.398  0.0285  0.2979  0.0731
87651W        W30704  11.581   6.883   9.174 -0.2770  0.3699 -0.3833
87652W        W30705  15.638  11.213   5.187 -0.1176  0.3033 -0.1635
87653W        W30706   2.574  30.161   4.660  0.1652  0.2743  0.0883
87654W        W30707  13.823   7.161   5.272 -0.0525 -0.1764  0.2366
87655W        W30708   4.487   6.192   6.614 -0.0410 -0.1989 -0.1137
87656W        W30709  22.844   6.909  19.986  0.3426  0.1614 -0.4413
87657W        W30710  13.487   0.317  25.588  0.1775 -0.2331 -0.1030
87658W        W30711  33.544  26.145  28.137 -0.2945 -0.2519 -0.3475
87659W        W30712  15.639   6.039   6.581  0.0623 -0.0059 -0.0284
87660W        W30713  15.952  32.219   3.654 -0.0290  0.1871  0.4147
87661W        W30714   4.075  30.100   2.775  0.2502 -0.0498  0.0363
87662W        W30715   6.922  30.730   1.292  0.0383 -0.2358 -0.1303
87663W        W30716  19.696  29.742   8.320  0.1577  0.1875  0.0963
87664W        W30717  26.534  21.393  21.730  0.0743  0.0888 -0.0191
87665W        W30718   3.334  28.216  26.528  0.4236 -0.1348  0.0794
87666W        W30719  26.441  34.396  28.305 -0.2098 -0.1021  0.1469
87667W        W30720  15.126  30.641   3.946  0.0971 -0.0315  0.0845
87668W        W30721  24.325  27.992   0.994 -0.1480 -0.0078 -0.0443
87669W        W30722  13.750  32.002  27.485  0.0285 -0.0773  0.1158
87670W        W30723  13.616   1.453  16.541 -0.2196 -0.0900  0.3315
87671W        W30724  22.826  31.038   1.546 -0.0677 -0.1508  0.2524
87672W        W30725  14.854  29.143   8.347  0.1186  0.0164  0.1910
87673W        W30726  22.547   1.561   5.216 -0.0069 -0.0566 -0.1415
87674W        W30727  17.532  30.703   8.356  0.3409  0.1023 -0.4371
87675W        W30728  11.737  18.596   6.389 -0.0129  0.0540  0.1373
87676W        W30729  19.190   4.938  26.129 -0.2770 -0.1775 -0.0263
87677W        W30730   3.518  25.595   7.876 -0.1795  0.1549  0.1796
87678W        W30731  21.879   2.351  26.704  0.3190 -0.2186  0.1695
87679W        W30732  32.754   1.196   0.873  0.1720  0.3918  0.0999
87680W        W30733  15.682   3.319   4.519  0.3284  0.2117  0.0493
87681W        W30734  33.941   2.139  26.802  0.0719 -0.2732 -0.2025
87682W        W30735   9.338   0.600  17.123  0.0450  0.3949  0.2796
87683W        W30736  20.992   4.761   2.524 -0.2750 -0.3246  0.1375
87684W        W30737  26.699  33.505  10.453 -0.2385  0.1454 -0.0556
87685W        W30738  16.927  19.576  25.716 -0.1491  0.0118  0.0561
87686W        W30739   6.955  17.311  28.560 -0.2793  0.0849  0.4828
87687W        W30740  16.677  23.099  26.105 -0.2154 -0.2093  0.0661
87688W        W30741  19.727  29.329   7.238  0.3213  0.0395  0.2186
87689W        W30742  24.743  33.701  28.314  0.1150  0.2109  0.0851
87690W        W30743  13.350   8.820   1.391 -0.1488 -0.1999 -0.4234
87691W        W30744   3.607  16.195   4.757 -0.0533  0.0943 -0.0887
87692W        W30745   8.285  27.569  26.341 -0.1893 -0.2734  0.2029
87693W        W30746  24.083  34.124   3.595  0.1687 -0.0231  0.0197
87694W        W30747  17.560   2.041  28.153 -0.1148 -0.0519 -0.0351
87695W        W30748   8.719  11.231   4.952 -0.1126  0.0161 -0.0640
87696W        W30749   6.800  29.391   0.251  0.0225 -0.2177  0.1472
87697W        W30750  16.777  10.555   9.023  0.2024 -0.1758 -0.0643
87698W        W30751  15.964  18.624   3.638 -0.1444  0.2735  0.4258
87699W        W30752  17.610   2.739   7.259  0.1819  0.2274  0.1759
87700W        W30753  13.800   5.810   4.338  0.2523  0.1110  0.1741
87701W        W30754  30.743  20.636   2.287 -0.3493  0.0529 -0.1039
87702W        W30755  30.766   2.040   2.152  0.0403 -0.2144  0.3906
87703W        W30756   4.740  15.979   1.377 -0.2546  0.2160  0.0389
87704W        W30757  22.862  13.696   0.783  0.1577  0.0264 -0.0612
87705W        W30758  14.848   8.689   2.441  0.1190  0.0720 -0.1049
87706W        W30759  27.587  10.891   7.575 -0.1957  0.1316  0.0849
87707W        W30760  18.231  23.747   9.726  0.0751 -0.1809 -0.1594
87708W        W30761   3.619  26.545  25.254 -0.1415  0.1535  0.2746
87709W        W30762  18.829  14.501   7.177  0.0976  0.2717 -0.4228
87710W        W30763  22.947  15.002   4.264  0.2114  0.1318 -0.1749
87711W        W30764  32.589  27.073   2.590  0.2199  0.0980 -0.1767
87712W        W30765  25.016  28.034   7.969 -0.1392  0.0531 -0.2019
87713W        W30766   8.965   7.260   5.814  0.0926  0.1667  0.0019
87714W        W30767  12.743  27.751   5.381 -0.1596  0.0530  0.1022
87715W        W30768  19.964   0.857   6.677  0.1112 -0.0003  0.0808
87716W        W30769   7.402   2.332   2.398 -0.0907 -0.1709 -0.2769
87717W        W30770  11.677  33.327   1.246 -0.1880 -0.0162 -0.0675
87718W        W30771  19.063  28.549   3.789  0.2161  0.5199 -0.3468
87719W        W30772  21.704   2.970   3.658 -0.1380  0.0039  0.0871
87720W        W30773  25.546  18.671   0.941 -0.0788  0.0981 -0.2931
87721W        W30774   9.147  32.228   3.558 -0.2731 -0.1610 -0.1059
87722W        W30775  17.150  25.690   6.099 -0.1284 -0.1845 -0.1027
87723W        W30776  14.054  29.317   2.972 -0.0168 -0.0878  0.3807
87724W        W30777  14.782   5.430  26.153 -0.2922 -0.0920  0.0883
87725W        W30778  21.933  30.119   3.132 -0.0171  0.1395 -0.1561
87726W        W30779  14.267  14.148   2.551 -0.1558 -0.1469  0.0078
87727W        W30780  15.622  31.703   1.512  0.1124 -0.0048  0.0046
87728W        W30781   8.945   8.209  28.032 -0.0988  0.3055 -0.0695
87729W        W30782   6.937  30.094   4.600 -0.2892  0.0968  0.0081
87730W        W30783  10.480  30.182   4.684 -0.2094  0.2802 -0.3137
87731W        W30784  13.668   9.699   8.226 -0.3051 -0.0809 -0.0915
87732W        W30785   6.364  26.574   7.667  0.0299  0.0536 -0.0254
87733W        W30786  11.140   0.690   3.793 -0.0539  0.4318 -0.1610
87734W        W30787  17.154  23.404   6.070 -0.1641 -0.0104  0.0503
87735W        W30788  18.252   2.629   9.008  0.2159 -0.0005 -0.0409
87736W        W30789  10.009  24.634  29.158  0.2390 -0.2820  0.1504
87737W        W30790  21.785  25.981  28.914  0.0001 -0.0309  0.0638
87738W        W30791  14.208  29.235  27.581  0.0186 -0.1702 -0.1215
87739W        W30792  11.176  31.531  24.167 -0.1888 -0.1830  0.3934
87740W        W30793   3.754  33.902  29.194  0.2780 -0.2706  0.0008
87741W        W30794   7.029  19.052   8.539 -0.0948  0.1195  0.0588
87742W        W30795   8.372  19.014   3.454  0.0118 -0.2454 -0.2473
87743W        W30796   8.511  32.844  26.453 -0.3332  0.0736 -0.1607
87744W        W30797  18.621  27.711  28.909  0.0322  0.0084 -0.0949
87745W        W30798  19.697   0.008   3.799 -0.2761  0.2075 -0.0099
87746W        W30799  21.086  22.080   9.347  0.2682 -0.3616  0.0740
87747W        W30800   6.886   9.200   9.156  0.5241 -0.2287  0.0094
87748W        W30801  20.789  34.228  27.470 -0.3026  0.0908 -0.2303
87749W        W30802  20.681   0.172   8.307  0.2065  0.0490  0.2012
87750W        W30803  20.916  18.443   1.262 -0.1734  0.2992  0.1134
87751W        W30804   3.374  33.209  24.243  0.0469  0.0864 -0.1893
87752W        W30805  21.936   1.928   7.533 -0.0334  0.3072  0.0313
87753W        W30806  14.932  14.017   3.195  0.2693 -0.0910  0.0313
87754W        W30807   5.259   5.423   9.527  0.0211 -0.0086  0.2586
87755W        W30808   6.733  18.346  20.711 -0.3550  0.0836  0.2355
87756W        W30809  24.208   2.810   8.622 -0.4583 -0.0536  0.1852
87757W        W30810   3.818   1.545  20.921 -0.0875 -0.2520  0.0394
87758W        W30811  32.468  10.008   6.922 -0.0334 -0.1389 -0.1545
87759W        W30812  23.933   4.817  24.970 -0.1333  0.0316 -0.0260
87760W        W30813  14.627  30.533  26.763 -0.0591 -0.2820  0.0760
87761W        W30814  25.435   7.020   2.237  0.2035  0.1293 -0.0880
87762W        W30815  17.043   0.597   1.670 -0.0641 -0.0056 -0.1014
87763W        W30816  33.717  11.264  26.388  0.1117 -0.0947  0.0610
87764W        W30817   2.745  30.054   8.629 -0.1124 -0.0870  0.0679
87765W        W30818  11.578  32.991  24.947 -0.1555 -0.0012 -0.3307
87766W        W30819   3.635  14.926   1.227  0.1053  0.0171  0.0017
87767W        W30820  16.227  30.344  24.709 -0.0322  0.2274 -0.0945
87768W        W30821  13.589  18.704   4.863 -0.3022 -0.1230  0.1455
87769W        W30822   1.283  26.067   6.536  0.0719 -0.1111 -0.1878
87770W        W30823  16.033  14.903  25.146  0.1848  0.2614  0.0180
87771W        W30824  33.522  17.812   5.231  0.1244 -0.4046 -0.0870
87772W        W30825   7.965   8.973   7.585 -0.1695 -0.1676  0.1819
87773W        W30826  24.843  15.081  24.976 -0.1185  0.2682  0.0484
87774W        W30827   9.193  28.760   3.395 -0.2629 -0.0788  0.2248
87775W        W30828   3.591  18.971  22.326 -0.0516 -0.0847 -0.0065
87776W        W30829  16.139  15.930  25.032  0.1608 -0.5964  0.1803
87777W        W30830  33.774   3.419  20.904 -0.0648  0.0932 -0.0300
87778W        W30831  18.496   6.107  27.123  0.3948  0.0223  0.0100
87779W        W30832  20.648  23.672   6.425  0.1159 -0.2282  0.0570
87780W        W30833   6.447  14.422   8.219 -0.1112 -0.0891  0.0464
87781W        W30834  10.918  31.555   9.492  0.1712  0.0175 -0.0105
87782W        W30835  19.828   4.352  26.504 -0.0392 -0.3432  0.0842
87783W        W30836  11.650   1.864   7.819 -0.0294 -0.1964  0.4483
87784W        W30837  25.645  10.506   3.210  0.0297  0.0927 -0.1147
87785W        W30838  13.003  28.841   8.165 -0.0106  0.0006  0.1639
87786W        W30839  23.877  34.186  17.065  0.3323  0.3315  0.1591
87787W        W30840   6.938   8.253   1.406  0.2345  0.0675  0.3176
87788W        W30841   0.234  25.789   7.932  0.0992  0.0296 -0.0282
87789W        W30842  19.034  10.481  26.741  0.0103  0.0046 -0.1537
87790W        W30843  18.496   5.167  17.704 -0.0618 -0.2187  0.0779
87791W        W30844  12.112   1.262   4.381  0.0344 -0.0379 -0.1245
87792W        W30845  15.258  17.544  27.972  0.1453 -0.1154 -0.2668
87793W        W30846  22.850   6.121   4.113  0.3752  0.0689 -0.1415
87794W        W30847   8.987  13.111   5.763  0.2157 -0.2231  0.1471
87795W        W30848  24.894   2.309  19.310 -0.0906  0.3612  0.0292
87796W        W30849  23.785   4.711   6.830 -0.1474  0.1463 -0.1510
87797W        W30850   6.223   3.326  16.366 -0.2684  0.1071 -0.1646
87798W        W30851  20.544  10.541  10.579 -0.0987 -0.3809  0.0646
87799W        W30852   5.338  30.059  27.975 -0.3689  0.0711 -0.3922
87800W        W30853  28.606  25.510  26.887 -0.1168  0.2423  0.1574
87801W        W30854  22.365  13.715   2.531 -0.1170  0.0045  0.0868
87802W        W30855  12.824  33.281   4.565  0.5009  0.0214  0.4953
87803W        W30856  14.462  18.190  27.200 -0.0254  0.3973  0.4282
87804W        W30857  21.988   2.335  25.620  0.0775  0.1013  0.0318
87805W        W30858   9.182  19.052   2.861  0.1953 -0.0233 -0.0397
87806W        W30859   3.549   9.042   6.661  0.3796  0.0542  0.1865
87807W        W30860  26.886  10.311   4.389 -0.0874 -0.1061  0.2024
87808W        W30861  10.642  16.472   1.595  0.0405  0.2765 -0.1555
87809W        W30862  15.801   3.446  24.661 -0.2074 -0.0183 -0.1709
87810W        W30863  16.123   2.841   6.284  0.2424  0.3950  0.0162
87811W        W30864  19.598   7.034   5.794  0.0741 -0.2699 -0.3352
87812W        W30865  21.652  13.901  27.523  0.0367 -0.0670  0.0978
87813W        W30866  18.315  27.080   7.980  0.0552  0.2434  0.2849
87814W        W30867  17.306  12.535   4.027  0.0633 -0.0344 -0.0576
87815W        W30868  15.307  32.258   8.767 -0.1450 -0.0921 -0.1268
87816W        W30869   8.424  20.813  18.917 -0.3226 -0.0621 -0.3037
87817W        W30870  12.082  28.085   4.332 -0.2414 -0.3044  0.1413
87818W        W30871  18.916  31.942   8.858 -0.0156 -0.0771  0.0344
87819W        W30872  15.434   5.324   1.594  0.0462 -0.2846  0.0937
87820W        W30873  28.808  15.371   6.574  0.1737  0.2954 -0.3645
87821W        W30874  29.218   4.118   6.394  0.0368  0.1443 -0.1143
87822W        W30875  20.692  28.326  17.426 -0.0829 -0.1544 -0.2445
87823W        W30876  22.008  28.993   1.156  0.0501 -0.3839  0.2853
87824W        W30877  23.572  25.026  17.837 -0.1730 -0.1103 -0.6757
87825W        W30878   5.876  33.922   0.121  0.1250 -0.1798 -0.1602
87826W        W30879   8.525   3.979   9.800 -0.3742 -0.0207 -0.0021
87827W        W30880  13.385  14.180   9.961  0.1540  0.0479 -0.0430
87828W        W30881  20.660  19.808   7.605 -0.1585 -0.2693 -0.0753
87829W        W30882  15.077   3.945  27.314  0.0870  0.1203  0.1887
87830W        W30883  23.801  30.861  27.073 -0.2025  0.0532  0.0794
87831W        W30884  23.257  26.272  26.790 -0.1834  0.1769  0.0202
87832W        W30885  22.442   7.462  28.091  0.2238 -0.0827  0.0790
87833W        W30886   5.939  27.405   6.351 -0.0972  0.0309  0.1187
87834W        W30887  16.010   4.673   8.077 -0.0474  0.0787 -0.1387
87835W        W30888  13.752  14.194   6.003 -0.2538  0.1091  0.0767
87836W        W30889  28.092   3.316   7.303 -0.1276 -0.2312  0.0896
87837W        W30890  18.436   3.858   9.057  0.2294 -0.0177  0.0948
87838W        W30891  20.683  31.902   7.121 -0.2034  0.1181 -0.1606
87839W        W30892  25.955  32.234   7.059 -0.1869 -0.1751  0.1313
87840W        W30893  24.848   7.783   7.324  0.1151  0.1199 -0.1846
87841W        W30894  25.128  29.967   2.777  0.4647  0.1113  0.3351
87842W        W30895  13.799   5.311  25.016 -0.0785 -0.1323 -0.1336
87843W        W30896  18.449  10.884   2.732 -0.0058 -0.0072 -0.0197
87844W        W30897  12.912  17.707  24.287 -0.0167  0.0991  0.0330
87845W        W30898   5.851  29.018   0.172  0.2519  0.2261 -0.1610
87846W        W30899   0.496   4.125  25.670  0.0562  0.0401 -0.6034
87847W        W30900  12.570  32.158   6.175 -0.2807  0.1704 -0.2781
87848W        W30901  15.937  10.447   6.495  0.1611 -0.0096 -0.0048
87849W        W30902  29.197  16.180  23.088 -0.0543  0.0139 -0.0379
87850W        W30903  21.341  22.182   6.486 -0.1120 -0.2080 -0.2090
87851W        W30904  11.505  10.868   6.221  0.1098  0.4006  0.2039
87852W        W30905   8.579  30.409   2.167 -0.0221  0.2677 -0.2340
87853W        W30906  15.024  29.951   0.951 -0.0664 -0.5189  0.1850
87854W        W30907  12.397   9.386   6.635  0.1128  0.2830  0.0363
87855W        W30908  17.761  12.749  29.071 -0.2322 -0.0317 -0.0690
87856W        W30909  11.511  15.584   0.838  0.1336  0.0003  0.1217
87857W        W30910   8.397  33.142   5.955  0.2338 -0.2750  0.1676
87858W        W30911  21.693   1.892   2.189 -0.2768  0.1301  0.3161
87859W        W30912  12.865   1.364   6.928 -0.1950 -0.1177  0.1496
87860W        W30913  13.495  19.643   1.106  0.1049  0.1279  0.2260
87861W        W30914  29.650   1.870  23.070  0.0762 -0.2320 -0.0870
87862W        W30915  14.491  28.075  16.804  0.1306 -0.0952  0.1775
87863W        W30916  13.353  12.406   6.954 -0.4145 -0.0435  0.4073
87864W        W30917   7.849  28.483   0.843  0.1226 -0.0593 -0.1013
87865W        W30918  19.430   1.328   0.741  0.0503 -0.1737 -0.0317
87866W        W30919  20.800   9.425   4.840 -0.2882  0.0963 -0.0145
87867W        W30920  26.319   9.488  19.230 -0.0032 -0.2382  0.1352
87868W        W30921  16.877  22.218  28.042  0.2315  0.1708  0.0954
87869W        W30922  22.015  31.622  21.073 -0.1155 -0.2470 -0.0290
87870W        W30923   1.568  33.022   4.172  0.1231 -0.0761 -0.0736
87871W        W30924  14.130  31.769  27.285  0.1702  0.0718  0.3659
87872W        W30925  12.069   0.390  23.911  0.1495  0.2432  0.1215
87873W        W30926  20.332  15.675   9.106 -0.0399 -0.1820  0.2618
87874W        W30927  32.606  15.963  16.785  0.0447  0.1312  0.1998
87875W        W30928   7.575  22.577   9.177 -0.1812 -0.0438 -0.0313
87876W        W30929  24.023  13.518  19.259 -0.1863 -0.2165  0.1002
87877W        W30930   2.679  30.149   7.343 -0.0088  0.1368  0.2416
87878W        W30931  24.776  18.030   9.676 -0.0495 -0.2602  0.0618
87879W        W30932   9.526  32.479   7.415  0.0880  0.2761 -0.0386
87880W        W30933  11.860  27.313   0.672 -0.1097 -0.0981  0.0821
87881W        W30934  11.956  19.124   3.557  0.1732 -0.3032 -0.0213
87882W        W30935   1.587  11.512   6.938 -0.3718  0.0528  0.1177
87883W        W30936  17.857   4.309   4.033  0.0116  0.3496 -0.1303
87884W        W30937  14.560   5.370   5.458 -0.1098 -0.1334  0.0118
87885W        W30938  20.489  32.103  27.304 -0.1501  0.1188  0.0051
87886W        W30939  16.551  31.599   1.038 -0.3547  0.0124  0.0349
87887W        W30940  15.061  23.031   4.493  0.0103 -0.0991  0.4605
87888W        W30941  21.222  23.998   4.744  0.0403  0.1074 -0.2326
87889W        W30942   0.729   7.877   7.625  0.1185  0.0617  0.1923
87890W        W30943  21.754   5.224  24.999  0.1024 -0.3927  0.1034
87891W        W30944  29.461   6.556   7.906 -0.1797 -0.0809  0.0727
87892W        W30945  18.076  20.208  28.746  0.4754  0.0622  0.1893
87893W        W30946  29.079  12.296  21.748  0.0762  0.0428 -0.0306
87894W        W30947  14.838  26.603  28.793 -0.1898 -0.2012 -0.0494
87895W        W30948  17.897   0.551   6.501  0.0504  0.1867  0.1918
87896W        W30949  18.214  10.150  10.641  0.0574 -0.2584 -0.1837
87897W        W30950  14.436  14.373  28.631  0.1904 -0.3053  0.0259
87898W        W30951  26.516  26.242   4.061 -0.1873 -0.0462  0.2148
87899W        W30952  16.805   6.459   7.247  0.2196 -0.3496 -0.0392
87900W        W30953   0.192  14.512   8.043 -0.0584 -0.1741  0.0684
87901W        W30954   4.467  32.009  27.086 -0.1190  0.2727  0.0865
87902W        W30955  28.670  30.880  27.350 -0.0153  0.0601 -0.1695
87903W        W30956  32.317  12.154   9.434  0.0616 -0.1967 -0.1434
87904W        W30957   3.948   8.144  10.432 -0.2123  0.3249 -0.0597
87905W        W30958   1.802  10.347   6.960  0.3336  0.0406 -0.1949
87906W        W30959  17.033   8.234   9.746 -0.1162 -0.4287 -0.3688
87907W        W30960  18.653   9.242  25.129  0.0534 -0.0283 -0.1668
87908W        W30961  26.825  10.307  25.301  0.0374 -0.1884  0.4500
87909W        W30962   8.659  25.045   7.604  0.0988  0.0918 -0.2542
87910W        W30963  17.068  32.722   2.312 -0.1670  0.0095 -0.0125
87911W        W30964  20.014   5.658   5.800 -0.2587 -0.0825 -0.2334
87912W        W30965  20.921  30.167  28.790 -0.0722  0.1532  0.1699
87913W        W30966   4.920  11.734  27.228 -0.0963  0.1397  0.4355
87914W        W30967  11.522  20.470   6.237 -0.0823  0.0024 -0.1524
87915W        W30968   5.164   6.697   3.643  0.0613  0.1503 -0.2307
87916W        W30969  18.841  12.738   6.737  0.0027 -0.1551 -0.2558
87917W        W30970  16.957   1.724  26.461 -0.1978 -0.0165 -0.0971
87918W        W30971   7.978  30.914  25.431  0.0286 -0.1802  0.0825
87919W        W30972  14.364  11.333  28.342 -0.0534 -0.0096  0.3442
87920W        W30973   1.936  29.892   0.272 -0.0224 -0.0430 -0.1626
87921W        W30974  21.298   2.560   2.629 -0.0769 -0.4044  0.2867
87922W        W30975  10.020   0.202   2.376 -0.2311  0.0933 -0.0986
87923W        W30976  18.469   0.017   5.710  0.1169 -0.1161  0.2906
87924W        W30977   1.920  33.155  24.283  0.0807 -0.2760 -0.0153
87925W        W30978   7.229  24.068   2.415  0.1246  0.0090 -0.0899
87926W        W30979   8.961  13.913  24.924  0.2242  0.2233 -0.0243
87927W        W30980  10.162  31.866  25.506  0.0734  0.4966  0.1009
87928W        W30981  28.658   1.221   1.933 -0.1182  0.0994 -0.2020
87929W        W30982  10.509  12.777  19.896  0.2983  0.4074 -0.1084
87930W        W30983  11.762  19.108   1.174  0.2716  0.3147  0.1149
87931W        W30984  21.425  26.971   5.459 -0.1008  0.0325  0.0861
87932W        W30985  19.836  31.907  22.524  0.1031  0.0050 -0.1764
87933W        W30986  14.143   1.236   5.338  0.0289 -0.1074 -0.0237
87934W        W30987  13.974  33.480   1.779 -0.0300 -0.1097 -0.1363
87935W        W30988  14.504   3.296  15.397  0.2289 -0.2492 -0.2604
87936W        W30989  16.611  10.499   8.069 -0.0169  0.0250  0.0644
87937W        W30990   6.588   4.690   4.696  0.0737  0.0711  0.0552
87938W        W30991  12.437  10.450  29.013  0.1709  0.0252  0.0628
87939W        W30992   2.100  29.030  10.166  0.0755 -0.0855 -0.0504
87940W        W30993  20.956  24.679  27.717  0.1590  0.2527 -0.0257
87941W        W30994  16.802  30.708   1.421 -0.1253  0.2518 -0.2579
87942W        W30995  16.455  27.275  22.965  0.1653  0.2050 -0.3269
87943W        W30996  11.307  27.544  28.538  0.3202  0.1949  0.1667
87944W        W30997   8.881   3.833  10.108 -0.1140  0.4982 -0.3954
87945W        W30998   3.685  30.459   2.854 -0.1033 -0.0075 -0.1785
87946W        W30999   9.751   1.326   7.905  0.0815 -0.1044 -0.1341
87947W        W31000  21.231  19.871   2.643 -0.3335  0.1978 -0.1649
87948W        W31001  27.975   4.095  20.494 -0.4094 -0.1270  0.0751
87949W        W31002  26.325  10.527   1.785 -0.0607 -0.3683  0.1629
87950W        W31003  24.502   6.308  28.968  0.0088  0.0769  0.0847
87951W        W31004  12.665  25.689   9.067 -0.0290 -0.3330  0.0034
87952W        W31005  13.120  13.975  26.729  0.1408 -0.1905  0.4567
87953W        W31006  22.723  11.865   5.012 -0.0255 -0.1786  0.1649
87954W        W31007   9.276  19.085   3.412 -0.0152 -0.3493  0.1194
87955W        W31008  17.784  31.912   6.815 -0.1296 -0.1766  0.0031
87956W        W31009  21.275   3.019  22.566  0.0391  0.0170  0.2756
87957W        W31010  22.137  29.207  27.776  0.1124 -0.1597 -0.3342
87958W        W31011   5.638  24.258   3.340 -0.1480  0.1535 -0.0321
87959W        W31012   7.309  13.696   5.688 -0.2709 -0.1574 -0.1067
87960W        W31013  11.526   4.704   6.490  0.0501  0.2363 -0.4787
87961W        W31014  14.214  24.513  27.844 -0.1369  0.1830  0.0700
87962W        W31015  10.016  26.805  19.356 -0.3399 -0.2629  0.4940
87963W        W31016  14.570  16.580  28.000 -0.0365 -0.1251 -0.0637
87964W        W31017  12.878  28.291   7.188  0.0857 -0.2386 -0.1260
87965W        W31018  24.109  33.589   8.241 -0.0743  0.1031 -0.1432
87966W        W31019   0.570  32.109   4.447 -0.0358 -0.1120  0.3643
87967W        W31020  20.405  25.934   2.500 -0.3143  0.0771  0.0115
87968W        W31021  26.554  31.254   6.289 -0.0235  0.0879  0.1787
87969W        W31022   4.283  16.642   4.830  0.1937  0.1921  0.2881
87970W        W31023  12.778  13.315  28.531  0.0012  0.1831 -0.1083
87971W        W31024  10.034  20.895   8.114  0.0855  0.0878  0.2688
87972W        W31025   6.846  16.001  27.844 -0.2606  0.0094 -0.0210
87973W        W31026  28.424  25.332   8.954  0.0287 -0.1029  0.4059
87974W        W31027  33.785  27.978   7.514 -0.0657  0.1419  0.1811
87975W        W31028  33.806  20.375  25.187 -0.3235  0.1100 -0.2701
87976W        W31029  20.866  32.652   1.696  0.1546  0.1301 -0.0351
87977W        W31030  21.407  30.876   4.505 -0.1950  0.1358 -0.1792
87978W        W31031  27.706  32.096   7.625  0.2594 -0.0774 -0.3318
87979W        W31032   6.708  27.107   1.466  0.1276 -0.2081 -0.0076
87980W        W31033  20.181  11.837  16.547  0.0519  0.1099  0.2252
87981W        W31034  13.226  30.479   6.819 -0.2563 -0.0089  0.3877
87982W        W31035  16.384  25.634  27.187  0.1240  0.2030  0.1480
87983W        W31036  32.990   4.069   9.524  0.2540  0.0295  0.0835
87984W        W31037   4.379  29.952  27.746  0.3175 -0.0449 -0.1716
87985W        W31038  20.221  33.240  20.912  0.2559  0.1387 -0.2325
87986W        W31039  20.054  34.267  17.251 -0.3942  0.2158 -0.3371
87987W        W31040  23.315  15.486   9.019 -0.0682  0.1450  0.0165
87988W        W31041   4.185   5.998   1.050  0.2399 -0.2848 -0.1648
87989W        W31042  17.386  29.132  29.070  0.1808  0.1397  0.1909
87990W        W31043  32.694  28.605   5.206 -0.1301  0.0333  0.1662
87991W        W31044  19.616  21.165  21.929  0.0176 -0.3136  0.2393
87992W        W31045  23.913  27.679  28.837  0.1139 -0.1358 -0.1099
87993W        W31046  22.344   9.511   0.148 -0.0229  0.2987  0.0260
87994W        W31047   7.747  26.595  24.884  0.0602 -0.1228 -0.1012
87995W        W31048  12.134  32.683   5.055  0.0180  0.0407  0.0118
87996W        W31049  13.986  10.524   4.179  0.2896  0.1220  0.1585
87997W        W31050  11.829  22.034   5.546 -0.2006 -0.1062 -0.1550
87998W        W31051  10.106  11.085  10.117  0.1701 -0.0181 -0.3656
87999W        W31052  18.545   8.037  25.242  0.3072  0.1879  0.0685
88000W        W31053  12.925  11.913   3.633  0.0811  0.2545  0.4897
88001W        W31054  15.775  19.192   1.324 -0.3055 -0.0468 -0.1824
88002W        W31055  24.094  30.778   7.513  0.3057 -0.0295  0.1983
88003W        W31056  19.820   2.987   5.314 -0.3115 -0.1399 -0.1942
88004W        W31057  18.036  25.147   8.158 -0.2985  0.2168 -0.1374
88005W        W31058  24.002  34.004   1.560 -0.3265 -0.1778 -0.1942
88006W        W31059  11.180  24.758   2.252 -0.0640  0.1180 -0.0018
88007W        W31060   7.752  29.805  27.889  0.0658 -0.1453  0.2084
88008W        W31061  34.103  34.094   4.975 -0.1474 -0.0941  0.4912
88009W        W31062  11.570  34.261  26.826  0.2755 -0.3710  0.2550
88010W        W31063   3.616   2.422   1.534 -0.3456  0.0081 -0.0547
88011W        W31064   2.105   8.799  23.856 -0.2472 -0.3042 -0.1285
88012W        W31065  18.533  22.076   1.810  0.0350 -0.2460 -0.3927
88013W        W31066  13.254  18.548   5.246  0.3158  0.0242 -0.3617
88014W        W31067  30.697  34.556   7.504 -0.0646  0.1564  0.0563
88015W        W31068  18.222  30.470   1.594  0.1447 -0.0374 -0.1939
88016W        W31069   1.184   5.393  26.137 -0.0810 -0.0598 -0.0886
88017W        W31070  18.064  22.766   5.550  0.1006 -0.1091 -0.0583
88018W        W31071   2.180   3.502   3.004  0.0711 -0.0109 -0.4048
88019W        W31072  10.883   5.421  27.155  0.0123  0.2035 -0.3228
88020W        W31073  10.226   1.330   5.918  0.2647 -0.1142  0.0341
88021W        W31074   6.661   1.313   3.198 -0.0797  0.1685 -0.3859
88022W        W31075  19.025  32.974  22.624 -0.2065 -0.2325 -0.0659
88023W        W31076   9.919   4.634   1.542 -0.4640  0.0356  0.2232
88024W        W31077  27.262  34.153   8.946  0.0242 -0.0199 -0.2767
88025W        W31078  23.501   7.980  17.574  0.3396 -0.0522  0.2108
88026W        W31079  22.420   4.577  25.999 -0.2085  0.3216 -0.0215
88027W        W31080  16.398  14.100  21.977  0.0903 -0.1967 -0.1328
88028W        W31081  15.842  31.783   2.200  0.3826 -0.0579 -0.1333
88029W        W31082  27.418   8.679  29.023  0.2522 -0.3819 -0.0983
88030W        W31083  12.121  14.188   8.405  0.1161  0.0387 -0.2034
88031W        W31084  14.630  32.164   9.168  0.0125  0.2813 -0.2780
88032W        W31085  29.963   8.384   4.529 -0.3822 -0.1435  0.1636
88033W        W31086   7.483   2.239  21.330  0.1375 -0.0142 -0.2418
88034W        W31087  14.341  31.489   7.871  0.1425  0.2641  0.0843
88035W        W31088  15.413   9.439   4.574 -0.0129  0.0868 -0.0899
88036W        W31089  18.611  20.148  28.862 -0.1579  0.1220  0.2662
88037W        W31090  13.805   9.098   6.282 -0.3104  0.2485  0.3046
88038W        W31091  16.493  31.086   1.226 -0.0688  0.0219  0.0403
88039W        W31092  18.762   4.637  10.045  0.2256 -0.3708 -0.1212
88040W        W31093  27.931  18.439   9.829  0.2610  0.0178  0.3113
88041W        W31094  27.124  12.280   0.021  0.0712 -0.2085 -0.5042
88042W        W31095   6.989   1.776   0.029 -0.2857 -0.1636  0.2964
88043W        W31096  12.761   0.898   7.062  0.0540 -0.2262 -0.0965
88044W        W31097   6.924  20.832  25.428  0.0496  0.2599  0.0157
88045W        W31098   8.736  24.366  25.972 -0.1412 -0.1096  0.3059
88046W        W31099  12.916  17.735   8.422 -0.0068  0.1905  0.0104
88047W        W31100  14.827  26.126   8.099  0.0028  0.2461  0.0649
88048W        W31101  25.337   9.794  10.559  0.0512  0.0207 -0.1185
88049W        W31102  21.361   3.119   1.961  0.0248 -0.2353 -0.0319
88050W        W31103  17.856  14.735  28.333 -0.2840 -0.1139  0.1929
88051W        W31104  33.294  31.178  28.166 -0.0755 -0.0970  0.1314
88052W        W31105  20.031   2.907   7.368  0.2418  0.0755  0.1763
88053W        W31106   9.666  29.872   2.135  0.1522 -0.1153  0.1294
88054W        W31107  17.816  22.595   4.104  0.0276  0.2500 -0.2567
88055W        W31108  14.290  11.313  27.350 -0.0245  0.0561 -0.2337
88056W        W31109   9.632   2.310   0.529 -0.2181  0.1007  0.0990
88057W        W31110  13.519   0.707   6.876  0.1169  0.1015 -0.1070
88058W        W31111  11.772  13.908   7.258 -0.1741  0.1165 -0.0593
88059W        W31112  11.059   0.415   5.670  0.1138 -0.2317 -0.1598
88060W        W31113  18.427   3.870  27.173  0.2545  0.3329 -0.0690
88061W        W31114   7.795   1.453   7.892 -0.1500  0.1894  0.0272
88062W        W31115   1.975  30.063   9.397  0.0842 -0.1103  0.1649
88063W        W31116  30.833  23.445   7.420 -0.1593  0.3062  0.3648
88064W        W31117  25.197  25.234   5.077 -0.0413 -0.2333 -0.0431
88065W        W31118  10.262   0.549   4.505 -0.1042 -0.1907  0.0535
88066W        W31119   3.056  24.561   9.960  0.1590  0.2653  0.1246
88067W        W31120  19.577  31.395   4.723 -0.1068  0.0711 -0.0749
88068W        W31121   5.214  10.065   9.444  0.1439  0.0391 -0.1265
88069W        W31122   4.723  29.789  28.846 -0.0242  0.0789 -0.2079
88070W        W31123  22.800   5.005   8.953  0.3761 -0.0179 -0.6090
88071W        W31124  13.214  33.114   4.271 -0.0656 -0.1009 -0.0540
88072W        W31125  20.879  19.069   8.166 -0.1060  0.2297  0.1474
88073W        W31126   8.598   9.938   0.000  0.2783 -0.0677 -0.1171
88074W        W31127  26.159  18.853  25.855 -0.0783  0.1633  0.0696
88075W        W31128  28.421  33.053  23.899  0.2415  0.0407  0.2718
88076W        W31129  15.363   6.840   6.113 -0.3046 -0.1914 -0.0118
88077W        W31130  20.051   0.254   3.560  0.3255  0.2485  0.0437
88078W        W31131  10.700  24.630   8.584 -0.0649  0.1061  0.0286
88079W        W31132  17.826   7.279  27.787 -0.1356 -0.1088 -0.1083
88080W        W31133  13.602  32.776   4.211  0.1740 -0.1189 -0.1652
88081W        W31134   1.862   3.279  25.960 -0.0066  0.1339 -0.1783
88082W        W31135  16.284  20.731   6.544 -0.3317  0.0127 -0.1372
88083W        W31136  15.229  29.887  25.230  0.1020 -0.0734 -0.0432
88084W        W31137  27.621   3.026   2.580  0.3527  0.0585 -0.2022
88085W        W31138  18.560  27.274   7.481 -0.1493 -0.3004  0.0020
88086W        W31139  18.222   8.354   8.933 -0.0217  0.0311  0.1713
88087W        W31140  19.082   4.095   8.382 -0.1566  0.0850 -0.1379
88088W        W31141   6.900  33.043   0.747  0.1219  0.2058  0.0256
88089W        W31142  22.149   0.944   8.709  0.1317  0.1012 -0.4535
88090W        W31143   5.492   2.866  24.631  0.0413  0.1518  0.0608
88091W        W31144  18.998   6.272   4.012 -0.3191  0.0842  0.1897
88092W        W31145  17.254  17.134  28.807 -0.3555  0.0564  0.0592
88093W        W31146  17.265   6.866  27.097 -0.1419  0.2648 -0.1048
88094W        W31147  21.156   1.355   5.520  0.4159  0.1829  0.1928
88095W        W31148  19.293  16.984   9.421  0.0679  0.2690  0.1509
88096W        W31149  23.086   2.058  17.512 -0.0879  0.1237  0.2091
88097W        W31150  13.447  33.702   6.522  0.1252  0.1334  0.0192
88098W        W31151   2.825  13.650   6.328 -0.0919  0.2239  0.0494
88099W        W31152  21.277  30.468   5.421  0.2422  0.3159 -0.1214
88100W        W31153   5.796  30.458  23.103  0.1201 -0.1348  0.0176
88101W        W31154   6.906  28.803   8.220  0.0428  0.0756  0.0734
88102W        W31155  22.136   5.866   7.715  0.0342 -0.0645  0.0236
88103W        W31156  13.356   1.934  21.206 -0.2093  0.0475  0.2448
88104W        W31157  12.504  32.201   1.634  0.3928 -0.1195 -0.0531
88105W        W31158   7.717   0.003  25.838  0.1352 -0.2341 -0.0820
88106W        W31159  16.787  30.594   1.943  0.3183  0.0678  0.3299
88107W        W31160  11.612  14.927  14.974 -0.0356  0.2991 -0.0061
88108W        W31161  28.126  28.179  27.635 -0.2815 -0.0352  0.2326
88109W        W31162  14.919  14.981   8.421  0.3384 -0.0227  0.2403
88110W        W31163  14.564  27.617  17.795  0.5818 -0.1322  0.0080
88111W        W31164  17.029  31.159   8.081 -0.1231  0.1386 -0.1688
88112W        W31165   4.999  25.888   0.864  0.1056 -0.0652  0.0436
88113W        W31166  17.327   4.629   4.718 -0.2705  0.4293 -0.0552
88114W        W31167  11.311   2.494   4.054  0.1081  0.1570  0.0777
88115W        W31168  21.856   0.422  24.412 -0.0748  0.0443  0.0247
88116W        W31169  30.310  26.937   5.225  0.1634 -0.1637 -0.2655
88117W        W31170  19.357  11.568  25.467  0.0952 -0.1821 -0.1019
88118W        W31171  19.348   7.353  26.780 -0.1106  0.1946  0.0897
88119W        W31172  16.115   5.996   8.650  0.0926  0.0707  0.0264
88120W        W31173  12.824   2.680   1.936 -0.0134  0.1259  0.0658
88121W        W31174  26.202  15.449  22.488 -0.0464  0.1460 -0.1865
88122W        W31175  29.071  15.713  25.033 -0.1086  0.2115  0.0584
88123W        W31176  20.323  27.769  19.159 -0.2768  0.0008  0.2078
88124W        W31177   9.287  33.611  28.587  0.0499 -0.0463 -0.1946
88125W        W31178  10.847  34.631   9.148 -0.2290  0.2720  0.0346
88126W        W31179   7.650  27.791   0.613 -0.1877 -0.2220  0.1401
88127W        W31180   5.551   5.542   7.101 -0.0736 -0.0396 -0.1241
88128W        W31181  19.787   1.266  28.802 -0.1093  0.2624 -0.0664
88129W        W31182  14.037   7.504   9.842  0.4164  0.2105  0.1979
88130W        W31183  30.138  30.099   7.393 -0.2691  0.0158  0.2488
88131W        W31184   6.467  13.246  25.633  0.3823  0.0806 -0.1245
88132W        W31185  13.199   1.230   4.556  0.0503 -0.2041 -0.0642
88133W        W31186  17.538   0.335   5.290  0.1596  0.2366  0.1565
88134W        W31187  12.907  30.810  28.844 -0.0575 -0.1914 -0.0385
88135W        W31188  12.881   4.132  10.417  0.1803  0.2820  0.2960
88136W        W31189   7.502   6.683   0.260  0.1313  0.1248  0.2641
88137W        W31190   4.808  30.982  21.526  0.0404 -0.1995  0.5302
88138W        W31191  12.518   9.896  10.331  0.1300  0.0037  0.2486
88139W        W31192  19.682  28.346  17.217  0.0070  0.2498  0.0499
88140W        W31193   4.852  13.830   2.611 -0.0203 -0.1242  0.2523
88141W        W31194  18.966   0.774   4.912  0.2144 -0.2536 -0.2526
88142W        W31195   8.569   4.645   8.002 -0.1700 -0.0900 -0.2675
88143W        W31196  30.902  31.250  28.130  0.0990  0.0302 -0.0597
88144W        W31197   6.022  15.933   5.238  0.0711  0.0624  0.0881
88145W        W31198  10.725  10.874  27.622  0.0207 -0.1271 -0.1391
88146W        W31199   6.724   3.262   9.617 -0.2026 -0.0729 -0.1307
88147W        W31200  13.345  22.362   1.525 -0.1626 -0.0198  0.0228
88148W        W31201  12.054   5.732   9.825  0.0934  0.0792  0.2998
88149W        W31202   7.190  29.861   5.317  0.1246 -0.2345 -0.1699
88150W        W31203  18.343  18.754  28.431 -0.3836 -0.0637 -0.3650
88151W        W31204  13.751   8.095   7.648 -0.1300  0.1935 -0.3730
88152W        W31205  15.551  14.867   9.551  0.0873  0.1538 -0.0302
88153W        W31206  11.396  33.438  10.093 -0.1612 -0.0844  0.0993
88154W        W31207  17.442   6.334  27.078  0.2191 -0.3911 -0.0268
88155W        W31208  16.990  19.575  23.766  0.0620 -0.0763 -0.0237
88156W        W31209  15.394  27.603   6.188  0.0357  0.3001 -0.2130
88157W        W31210   8.199  13.606   9.526  0.0587  0.1347  0.0715
88158W        W31211  12.179  19.661  28.675 -0.1456 -0.0223  0.1689
88159W        W31212  18.373  33.415  28.552  0.0901  0.1999 -0.1302
88160W        W31213  14.054  27.650   1.018 -0.0460 -0.0618  0.4102
88161W        W31214   6.935   9.694   8.409  0.1591 -0.0400  0.0741
88162W        W31215  20.804   8.081   9.825 -0.1392 -0.0883  0.2529
88163W        W31216   5.804  18.109  14.766 -0.0656 -0.0804 -0.1895
88164W        W31217  20.012  28.342  22.123 -0.1649 -0.4532 -0.0661
88165W        W31218  23.445  28.771   3.068 -0.1852  0.0625 -0.0568
88166W        W31219   6.682   1.810  27.993 -0.0413 -0.1588  0.0160
88167W        W31220  23.111  16.385   1.365  0.0070  0.2400 -0.2156
88168W        W31221   0.324   4.567  22.420  0.0812 -0.1521  0.0408
88169W        W31222  26.846   0.259  26.352 -0.0937  0.0936 -0.1188
88170W        W31223  13.934   0.038   3.324 -0.1502  0.1570  0.2758
88171W        W31224  28.834   7.242   9.581 -0.1559 -0.3547 -0.0999
88172W        W31225   5.026   1.628   5.025 -0.0043 -0.1903  0.2022
88173W        W31226  15.709  29.544   2.165  0.2185 -0.1409 -0.0012
88174W        W31227  19.189  31.240   9.879  0.0488 -0.3513 -0.1788
88175W        W31228  34.235  24.700   0.947 -0.1695 -0.3525 -0.0132
88176W        W31229   9.852   7.976   8.418  0.2556  0.2216  0.0064
88177W        W31230  13.116   2.250  13.392  0.0808 -0.0722  0.0994
88178W        W31231   9.009   9.128   6.464  0.2996  0.3394 -0.2236
88179W        W31232   6.113  13.599   2.112  0.1983  0.2648 -0.2492
88180W        W31233  11.428   2.564   2.822 -0.0207  0.1158  0.1038
88181W        W31234   4.821   1.739   8.706  0.2078  0.0417  0.1253
88182W        W31235   6.341  31.205   3.492  0.2251 -0.2377  0.1322
88183W        W31236  10.538  11.229   4.689 -0.4688 -0.1637 -0.2796
88184W        W31237  15.106   2.895   8.506  0.1477  0.1530  0.0763
88185W        W31238  15.760   6.184  23.356  0.0737  0.0553 -0.0127
88186W        W31239  13.862  32.656   2.618 -0.1354  0.0506 -0.0668
88187W        W31240  20.388  32.962   2.608 -0.2986  0.1582  0.1601
88188W        W31241   6.091   1.491  27.990 -0.0283  0.0797 -0.0718
88189W        W31242   0.284  30.720   2.956  0.2167 -0.2863  0.1260
88190W        W31243   7.986  33.947   4.706 -0.0784 -0.0312 -0.1824
88191W        W31244   8.948  12.630   8.915  0.3301  0.2485 -0.0737
88192W        W31245  23.383  32.252   2.734 -0.1864  0.1183  0.1968
88193W        W31246  15.996   7.143   7.940  0.1527  0.1196 -0.1606
88194W        W31247  11.179   0.071   4.532  0.0962 -0.2797  0.2416
88195W        W31248  11.284  34.092  10.736  0.0335 -0.1327  0.4672
88196W        W31249   7.876  11.971   5.722  0.1326 -0.1643  0.0036
88197W        W31250  19.562  30.311   0.376  0.0697  0.0007 -0.1663
88198W        W31251   6.102   3.839   8.943  0.1343  0.1268 -0.0492
88199W        W31252  15.580   6.541   8.655  0.0559 -0.2115  0.2731
88200W        W31253  19.105  11.820  19.675  0.1724 -0.1244 -0.2173
88201W        W31254  17.484   3.962  26.427  0.0416 -0.0116 -0.0841
88202W        W31255  21.390   5.676   0.631  0.1150  0.3024  0.0936
88203W        W31256  16.139   4.820  27.437 -0.2041 -0.0440  0.2700
88204W        W31257  13.925   5.383  15.624  0.2291 -0.2906 -0.2336
88205W        W31258  23.826  14.844   7.316  0.1692 -0.0812 -0.1338
88206W        W31259  16.129   2.921   8.301  0.0448  0.1616  0.1184
88207W        W31260   6.654   3.966  10.135 -0.4403 -0.2188  0.0551
88208W        W31261  26.724   0.645   1.011  0.1670  0.1472  0.0273
88209W        W31262   8.257  12.429   4.048 -0.2027  0.2141  0.0154
88210W        W31263  14.389   1.946   6.571  0.1164  0.1578 -0.3607
88211W        W31264  13.060   2.176  10.033  0.0458 -0.4039 -0.1282
88212W        W31265  14.373  11.010  25.391 -0.0128  0.0200 -0.1879
88213W        W31266  10.578  12.630   6.041  0.0496 -0.3360  0.0322
88214W        W31267  16.673  27.790   4.854  0.3824  0.0175  0.0863
88215W        W31268   6.369  23.246   4.106  0.1679 -0.1795 -0.0549
88216W        W31269  21.783  19.258   4.674  0.2698  0.4005  0.2243
88217W        W31270  17.691  29.639  29.183  0.1798 -0.0363  0.3883
88218W        W31271   9.180  16.646  28.676 -0.1119  0.4423 -0.0987
88219W        W31272   9.749  14.328  19.993  0.1647  0.4052 -0.0801
88220W        W31273   9.163  10.573   4.081 -0.2334  0.2352 -0.1249
88221W        W31274  10.578  17.738   6.889 -0.3374  0.1534  0.0419
88222W        W31275  11.318  31.452   1.741  0.2680 -0.0894 -0.0516
88223W        W31276  19.795  14.972   5.368 -0.0141  0.2291  0.0520
88224W        W31277  15.503  27.466   5.317  0.3925  0.3568  0.0091
88225W        W31278  15.431   3.610   4.121 -0.4509  0.4153  0.1860
88226W        W31279  16.594   1.979   8.904 -0.0655 -0.1756 -0.1516
88227W        W31280  10.109   9.334   3.707 -0.4121 -0.0141  0.1129
88228W        W31281  15.562  14.721   1.505 -0.0080  0.0788 -0.3014
88229W        W31282  14.335  28.239   7.740 -0.2097 -0.0309 -0.2464
88230W        W31283   5.377   1.009   5.491  0.0274  0.4711  0.0686
88231W        W31284  16.125  19.262   6.744 -0.1890 -0.3205 -0.3614
88232W        W31285   7.088  10.022   3.935  0.1174  0.2264  0.0352
88233W        W31286  10.680   3.041   8.493 -0.0794 -0.0635  0.1593
88234W        W31287  19.009  10.966   3.274 -0.0991  0.1874 -0.0230
88235W        W31288  13.182   4.074  17.358  0.0359  0.1053  0.0231
88236W        W31289  34.552  28.708  28.753 -0.2559  0.0545 -0.0655
88237W        W31290  18.122   5.449  26.606  0.0531 -0.0307 -0.2122
88238W        W31291  12.860   1.886   6.794 -0.2919 -0.1059 -0.2288
88239W        W31292  16.665  27.240   5.823  0.2498  0.0642  0.1166
88240W        W31293  22.818  31.206   0.976 -0.0082 -0.0829  0.1092
88241W        W31294  14.202   4.652  22.599  0.0181  0.0377  0.1799
88242W        W31295   7.219   7.527   6.952  0.2030 -0.0681  0.3786
88243W        W31296  11.887  28.053  18.583  0.0757  0.3407 -0.3843
88244W        W31297   4.676  29.269   1.739 -0.3060 -0.1101 -0.1213
88245W        W31298   5.799   6.474   2.644  0.1414  0.0679  0.0676
88246W        W31299  27.217  16.991   0.677 -0.1851  0.0698  0.0066
88247W        W31300  19.061  25.666  10.031 -0.2201  0.0147 -0.1866
88248W        W31301   7.408   2.823   6.290 -0.0649 -0.0798  0.0260
88249W        W31302  34.511  16.358  21.487  0.0564 -0.2782 -0.1599
88250W        W31303   0.077  11.192   7.879 -0.2920  0.0576 -0.0879
88251W        W31304  11.412  15.412  24.538  0.2208 -0.2314 -0.0225
88252W        W31305  34.237  26.098   1.579 -0.0006 -0.0505  0.1335
88253W        W31306  15.798   6.038   9.773 -0.0178 -0.0767 -0.3336
88254W        W31307  20.438  10.829   5.458 -0.1917  0.0784  0.0019
88255W        W31308  16.210  30.728  29.084  0.3969  0.1189 -0.0148
88256W        W31309  24.831  14.091   3.913  0.1548 -0.0003 -0.1766
88257W        W31310   9.288  16.542  28.141 -0.0793 -0.0144 -0.1387
88258W        W31311  10.847   0.372  26.591 -0.4101 -0.1678 -0.0564
88259W        W31312  10.002   5.367   8.078 -0.1977  0.0129 -0.2641
88260W        W31313   3.911  20.257   9.778  0.2096 -0.4084 -0.2452
88261W        W31314  29.350   2.236   7.958 -0.2626  0.0137 -0.2322
88262W        W31315  18.641   5.399   4.266 -0.3885  0.2694  0.1055
88263W        W31316   1.322  25.965  21.947  0.2212  0.2118  0.2953
88264W        W31317  18.488   0.724   1.120 -0.1655 -0.0149  0.2532
88265W        W31318  32.265   9.781  26.869 -0.3279 -0.0443  0.2173
88266W        W31319  24.063  22.853  10.018 -0.1635 -0.2221 -0.2314
88267W        W31320  12.137   1.041   9.394 -0.0709  0.2041 -0.1492
88268W        W31321   2.287  13.071   7.636  0.0340  0.0605 -0.2692
88269W        W31322  12.891  12.369  28.974  0.0493 -0.0332 -0.0512
88270W        W31323  28.499  31.286  22.517  0.0095 -0.2829  0.0412
88271W        W31324  29.844  22.807   8.473  0.2465  0.3313 -0.0701
88272W        W31325   5.658   5.220   6.615  0.0629 -0.1068 -0.2523
88273W        W31326  14.390   6.401   5.566 -0.0094  0.1018 -0.1196
88274W        W31327   1.464  32.504   3.468  0.0253  0.1011 -0.1108
88275W        W31328  10.723   2.195   8.083  0.1231  0.1603  0.0681
88276W        W31329  12.200  10.100   1.453 -0.0722  0.0514 -0.0114
88277W        W31330  14.878  34.219   9.624 -0.0245  0.0171 -0.1983
88278W        W31331  18.368   7.073   5.704  0.1217 -0.3230  0.0101
88279W        W31332  26.821   9.867   4.005 -0.1887  0.2156 -0.0387
88280W        W31333   6.875   8.443   2.448 -0.2557 -0.0446  0.0713
88281W        W31334   8.974  15.510   6.184  0.1824  0.0552 -0.1267
88282W        W31335  23.039   8.706   0.059 -0.3073 -0.2412  0.0325
88283W        W31336  14.326   7.683   2.977  0.1370 -0.0113 -0.2247
88284W        W31337  22.550  13.661  24.544 -0.2606 -0.2337 -0.2715
88285W        W31338  10.779  31.919  27.997  0.2968  0.0639  0.1577
88286W        W31339  29.848  10.803   2.339 -0.1241 -0.1388  0.1185
88287W        W31340  10.664  11.597   8.407 -0.0521  0.0333  0.0107
88288W        W31341  19.330  28.249   3.311 -0.2832 -0.1187  0.1994
88289W        W31342  15.360  32.853   0.608 -0.0096 -0.0142 -0.0935
88290W        W31343  34.453  24.121  28.593 -0.2721 -0.1193  0.0034
88291W        W31344  28.047  29.004   2.411 -0.4278  0.0561 -0.1118
88292W        W31345  26.071   8.656   5.760 -0.1555  0.4216 -0.0764
88293W        W31346   7.033  28.778  25.277 -0.0806 -0.1979 -0.1853
88294W        W31347  13.049  27.838   7.027 -0.1944 -0.2118  0.0983
88295W        W31348  14.753  14.666  25.622  0.1734  0.3366  0.1540
88296W        W31349   2.052   6.545   0.745 -0.3072  0.2504 -0.0171
88297W        W31350  10.841   0.125   2.263  0.1234 -0.0719  0.1710
88298W        W31351  19.397  29.591   0.914  0.0918  0.4010 -0.0957
88299W        W31352   8.563  15.065  10.431 -0.0154 -0.3561 -0.2169
88300W        W31353  11.151  30.057   8.488  0.6466  0.0524 -0.3723
88301W        W31354   7.181  32.391  27.919 -0.0547  0.0604  0.0492
88302W        W31355   5.006  11.409   0.773  0.0837  0.1482 -0.2387
88303W        W31356  29.184   8.439  29.145  0.0644 -0.1480 -0.0849
88304W        W31357  26.479   2.704  21.149  0.2947 -0.2043 -0.2300
88305W        W31358  12.300  26.946   5.163 -0.1310 -0.0274 -0.4825
88306W        W31359  21.269  29.590   8.147  0.1809 -0.0068 -0.1388
88307W        W31360   9.515   1.855   6.737 -0.2209 -0.1822  0.3164
88308W        W31361   1.733   4.046   7.253 -0.1193  0.2843  0.1751
88309W        W31362  17.185  10.293   9.634 -0.3753 -0.0409 -0.0870
88310W        W31363  30.751  21.276   8.165  0.1727  0.2276 -0.2801
88311W        W31364   7.438  29.499   1.576 -0.0507 -0.0929 -0.1049
88312W        W31365   8.682  21.727   8.737  0.0758  0.0508 -0.0641
88313W        W31366   5.755  20.071   8.198 -0.0074  0.5257 -0.0464
88314W        W31367   1.658  31.172   4.682  0.0645 -0.0699 -0.0676
88315W        W31368  15.407  16.687   8.388  0.0207 -0.2447  0.0153
88316W        W31369  12.456  11.262  10.803  0.0637  0.0935 -0.2111
88317W        W31370  13.175   9.561   4.008  0.0572 -0.1401  0.1921
88318W        W31371   8.755  26.505  25.153 -0.4071  0.0659  0.1236
88319W        W31372  20.920   5.776  21.339 -0.1070 -0.0054 -0.1106
88320W        W31373  17.116   3.779  25.598  0.2549  0.2111  0.3382
88321W        W31374  22.369  22.098   2.598  0.1457  0.3090 -0.1429
88322W        W31375  23.010  30.676   6.442  0.0444 -0.6139  0.2436
88323W        W31376  18.645  33.044   3.426  0.0008  0.0004 -0.0018
88324W        W31377   6.691  31.532  10.152  0.3473  0.0815 -0.2377
88325W        W31378  27.276  20.773   8.093 -0.0250 -0.2208  0.0623
88326W        W31379  28.983  12.011  27.318 -0.1164  0.1023  0.2269
88327W        W31380  26.990  16.415   5.826 -0.1011  0.3365 -0.0524
88328W        W31381   5.572   9.329  10.257 -0.0387  0.3337 -0.0434
88329W        W31382   7.033   3.721   9.869 -0.5128 -0.1739  0.3124
88330W        W31383   8.807  19.446   5.344 -0.2301 -0.0184  0.0264
88331W        W31384  14.862  32.999   1.861 -0.0744 -0.2425 -0.1842
88332W        W31385   6.322  22.076   1.929  0.1894 -0.1473 -0.1606
88333W        W31386   0.268  10.164   4.517 -0.2316 -0.0289 -0.0016
88334W        W31387   9.671   3.910   4.133 -0.2084  0.0807 -0.3947
88335W        W31388  15.428  31.244   4.861  0.0589 -0.2608  0.0301
88336W        W31389  30.881   7.179   6.389  0.0257 -0.0981 -0.2569
88337W        W31390   1.585   3.526   5.275  0.0061  0.0797  0.2041
88338W        W31391   8.512  26.512  25.547  0.0341  0.0899 -0.0432
88339W        W31392   5.150  31.199   0.481  0.0745  0.0352  0.3321
88340W        W31393  14.429   6.137   9.678 -0.0113  0.0513  0.1270
88341W        W31394  16.567  14.158  28.159  0.0066  0.2100 -0.1519
88342W        W31395  11.250  31.866  28.052  0.2301  0.0074  0.1741
88343W        W31396  22.776   2.391   4.446 -0.1462 -0.0748  0.2261
88344W        W31397   8.777  25.314   2.387 -0.4164  0.0431 -0.0650
88345W        W31398  33.049  30.717   5.579 -0.0462 -0.2247 -0.1744
88346W        W31399  12.822   8.098   6.053 -0.0617  0.1028  0.3780
88347W        W31400  28.811  26.644  16.585  0.0292 -0.1814  0.1460
88348W        W31401   9.892   3.681   8.961  0.1412 -0.0488  0.0285
88349W        W31402  25.993  19.549   2.335 -0.0424 -0.0584 -0.1653
88350W        W31403   2.733   5.829   7.187  0.1388  0.2146 -0.2280
88351W        W31404  19.069   0.920   2.263  0.1560  0.0565  0.1421
88352W        W31405  10.387   9.952  22.258 -0.2033  0.1950  0.0028
88353W        W31406  12.978  31.528   3.561  0.0534 -0.1689  0.1157
88354W        W31407   9.663  16.347   1.186  0.0092 -0.0531 -0.1891
88355W        W31408  12.412  19.282  17.005 -0.1657 -0.0280  0.1565
88356W        W31409  30.172  18.147  26.567  0.0254  0.0004 -0.1371
88357W        W31410  11.239   0.318   1.945 -0.1513  0.5063 -0.1546
88358W        W31411  14.746   2.027   7.082 -0.3318 -0.0180 -0.0383
88359W        W31412  14.444  16.783  26.168 -0.0038  0.2682  0.0495
88360W        W31413   7.916   6.599  29.112  0.1216  0.1700 -0.0673
88361W        W31414  12.637  32.800   3.860 -0.0357  0.2677  0.2506
88362W        W31415   9.985  10.725   7.762  0.0944 -0.0046  0.1277
88363W        W31416  11.866   9.958   7.036  0.1163  0.0767 -0.1160
88364W        W31417  20.036  32.256  15.285 -0.2935  0.0592 -0.1585
88365W        W31418  26.378  17.394  24.576  0.1683  0.0149 -0.0471
88366W        W31419   5.138   8.364   6.198  0.1751 -0.1249 -0.0273
88367W        W31420  12.687   0.074   3.697 -0.0499 -0.0227 -0.1203
88368W        W31421  16.113  14.385  26.662  0.0557  0.3066 -0.0557
88369W        W31422   5.043   9.487  22.036 -0.2076  0.0539 -0.1943
88370W        W31423   3.011   7.867   0.582  0.2653 -0.5491  0.0268
88371W        W31424  12.382  32.765  28.457 -0.1043 -0.1740  0.1267
88372W        W31425   7.486  15.594  14.446  0.0415  0.0833  0.1194
88373W        W31426  11.589  21.350  14.503 -0.3771  0.2807 -0.2896
88374W        W31427  11.849  24.502  26.525  0.4346  0.3042  0.1000
88375W        W31428  18.921  34.197   3.756 -0.1618 -0.3361 -0.0255
88376W        W31429   6.468  26.915  28.316 -0.2346  0.0796 -0.4403
88377W        W31430   3.632  14.751   7.815  0.3240 -0.0498  0.2573
88378W        W31431   7.825   2.358   4.330 -0.0921  0.0249 -0.3486
88379W        W31432  19.285  11.763   9.996  0.4156  0.5169  0.0779
88380W        W31433  17.023   0.613   4.398  0.7177 -0.1761 -0.2719
88381W        W31434  21.238   6.272  26.654  0.1059 -0.0782  0.1408
88382W        W31435   1.260   1.299  28.756 -0.1066  0.1112  0.3601
88383W        W31436  12.016   4.567   4.961 -0.3152 -0.0565  0.1912
88384W        W31437  28.303   8.403   3.003  0.0782  0.0865  0.2514
88385W        W31438   9.194   2.573  21.911  0.1959  0.0363  0.1116
88386W        W31439  11.099   8.226  25.236 -0.0269 -0.0637  0.1343
88387W        W31440   2.956  29.351   1.708  0.2325  0.0353  0.2256
88388W        W31441  12.512   8.523  27.803  0.2301  0.2752  0.1479
88389W        W31442  10.345   1.613   9.809 -0.0116  0.2461 -0.0125
88390W        W31443  10.843   8.291  20.756  0.0941  0.0509 -0.0266
88391W        W31444   4.937  10.325   7.190 -0.1409  0.1478  0.0693
88392W        W31445  15.325  27.956   0.837  0.0502 -0.0477 -0.0382
88393W        W31446  10.804  32.813   3.384  0.0055  0.0842  0.1454
88394W        W31447  28.687  33.000  18.082 -0.0867 -0.3208 -0.1946
88395W        W31448  11.385  28.675  23.619 -0.0067 -0.1934 -0.2233
88396W        W31449   3.544  30.940   0.857  0.0887  0.0378  0.1660
88397W        W31450  11.796   6.121   7.850  0.2711  0.0797 -0.3942
88398W        W31451   9.805  16.368   5.326 -0.0512  0.0605  0.3603
88399W        W31452  31.896  12.420   7.649  0.4236 -0.1323 -0.1687
88400W        W31453  11.088  14.883  28.829  0.0607 -0.2020  0.1498
88401W        W31454  10.227  16.985   3.745  0.3323 -0.0841 -0.2353
88402W        W31455   8.034  11.045   9.900  0.0119 -0.1187 -0.0076
88403W        W31456  14.691  11.314   6.903  0.3972  0.0432 -0.0551
88404W        W31457   3.258  12.882   6.055 -0.1382 -0.0047 -0.2351
88405W        W31458  12.310  15.670   1.670  0.2555  0.0981  0.0601
88406W        W31459  21.886  10.703   8.788 -0.2393 -0.2677  0.0921
88407W        W31460   9.658  27.546  27.435 -0.1220  0.1162 -0.1217
88408W        W31461  13.616   7.909   6.045 -0.1080 -0.1272 -0.0597
88409W        W31462  14.291  17.595  24.563 -0.4996  0.0785 -0.1341
88410W        W31463   2.957  22.696   5.568 -0.2076  0.0737  0.1432
88411W        W31464   8.471  31.281   7.536  0.3103 -0.2647 -0.1186
88412W        W31465  13.444  12.430   4.279 -0.0353 -0.0040  0.2297
88413W        W31466  15.027   6.597   6.337  0.0506  0.3054  0.0987
88414W        W31467  15.490  27.367   4.048 -0.1810  0.1989 -0.0400
88415W        W31468  21.394  22.908   3.172  0.1430 -0.3794 -0.1119
88416W        W31469   4.345  25.971  13.595  0.1908  0.1129  0.1566
88417W        W31470   6.784  32.930   7.978 -0.0568 -0.0966 -0.0240
88418W        W31471  17.876   8.280   8.121  0.2282 -0.0266 -0.0987
88419W        W31472   1.929  15.874  16.667  0.0739 -0.2081 -0.1557
88420W        W31473  18.299  20.392  14.637 -0.2977  0.0351 -0.2556
88421W        W31474  21.358   3.338   6.203 -0.0638 -0.0594  0.0301
88422W        W31475   8.714   7.081   7.331 -0.0100  0.2434 -0.1268
88423W        W31476   7.576  15.988   0.016  0.0379  0.0822 -0.1028
88424W        W31477  15.367  12.197  22.866  0.1847 -0.3539 -0.3861
88425W        W31478   4.012  14.582   9.200 -0.1964  0.1921  0.0735
88426W        W31479   5.994  13.799   7.868 -0.1392  0.2215 -0.2778
88427W        W31480  11.934  10.769  11.415 -0.0302 -0.1186  0.2058
88428W        W31481  11.658  23.548  20.224 -0.3098 -0.3602  0.2253
88429W        W31482  21.709  33.654   0.870 -0.2849  0.0674 -0.0149
88430W        W31483   4.317   9.312  21.648  0.1154 -0.0122  0.0549
88431W        W31484  15.257  13.274   9.912  0.0266  0.0758  0.1149
88432W        W31485  12.120   7.549  28.073  0.0765  0.0822  0.0811
88433W        W31486  10.720  14.439   4.676 -0.0618 -0.0232 -0.2849
88434W        W31487   1.784  12.473  17.156 -0.1274  0.1213  0.0702
88435W        W31488   6.575  30.251  16.836 -0.1566  0.0727  0.3277
88436W        W31489  18.532  29.115   9.331 -0.0948 -0.1736 -0.0660
88437W        W31490   8.088  12.340   9.949  0.0006 -0.1109 -0.0383
88438W        W31491  34.527  26.368   8.710  0.3900 -0.0690 -0.0320
88439W        W31492  12.913   4.528   5.118 -0.2196  0.2001  0.3228
88440W        W31493  29.600  17.612  27.620  0.2982  0.1896 -0.2328
88441W        W31494   7.113   6.615   5.179  0.1051  0.0355 -0.1305
88442W        W31495  20.207   6.230   2.983  0.1992 -0.1779  0.2298
88443W        W31496   4.700   3.511  22.861  0.0216  0.1264  0.2274
88444W        W31497   1.304  22.048  27.865  0.2562 -0.1247  0.0414
88445W        W31498   3.781  33.721   8.108 -0.1670 -0.0596  0.1643
88446W        W31499  28.971  13.464  23.953 -0.0176  0.2156 -0.0446
88447W        W31500  15.402   9.756   7.620 -0.1149  0.3673  0.0843
88448W        W31501   2.603  29.940  20.822  0.2258 -0.4437  0.0653
88449W        W31502  13.744  13.829  23.697  0.1999 -0.1545  0.1607
88450W        W31503  19.181  34.666   5.992 -0.1480 -0.0385 -0.1503
88451W        W31504   7.751  11.046  22.381 -0.1950  0.1312 -0.4352
88452W        W31505  23.614   1.904  17.871  0.0887  0.0215  0.1053
88453W        W31506  31.738   2.988   4.785 -0.1466  0.2572  0.2843
88454W        W31507  20.350   0.152   2.561  0.2002 -0.0539  0.3744
88455W        W31508  10.935  34.617  10.081  0.0210  0.0333 -0.0509
88456W        W31509   7.340  14.552  20.682 -0.2903 -0.1371  0.0200
88457W        W31510  17.328  24.117   2.553  0.2230 -0.0116 -0.2481
88458W        W31511  33.062  29.857   9.247 -0.2636 -0.0461 -0.0916
88459W        W31512   4.716   5.879   6.274 -0.2681  0.0464 -0.1830
88460W        W31513  16.918  29.104  27.570 -0.2111 -0.0686 -0.1147
88461W        W31514  20.278   0.854   5.257  0.1247 -0.1474 -0.2098
88462W        W31515  32.222   9.165  17.842 -0.1331 -0.1680 -0.3516
88463W        W31516  33.481  20.780  24.298  0.1383  0.0313 -0.1922
88464W        W31517  17.155  28.483  21.339 -0.2312 -0.0329  0.3282
88465W        W31518   9.944  20.469  21.322 -0.4308  0.1125 -0.1720
88466W        W31519  13.689  21.962   1.760  0.2245  0.0231 -0.0625
88467W        W31520  17.016  18.567   7.547  0.0763 -0.0038  0.0480
88468W        W31521   4.149   5.884   7.903 -0.2889 -0.6054  0.0461
88469W        W31522  17.489  23.518   1.613  0.2776  0.1400 -0.0235
88470W        W31523  10.471  23.448  18.624 -0.0554  0.0933  0.0661
88471W        W31524  23.984  21.933   5.629 -0.0600 -0.2467 -0.2540
88472W        W31525   7.097  13.933   2.998  0.2553 -0.0739 -0.1261
88473W        W31526   7.556  13.442   8.396  0.1545 -0.1465 -0.0946
88474W        W31527   5.195   2.332   6.959  0.0790 -0.1034  0.2712
88475W        W31528   8.701   1.394  17.397  0.0912 -0.2401 -0.2919
88476W        W31529  21.056   2.771  18.554  0.3591  0.3015  0.0646
88477W        W31530  34.351  16.333  28.943  0.2398 -0.0907  0.3718
88478W        W31531  24.763   4.495   6.781  0.2192  0.2107  0.4456
88479W        W31532  11.905   4.016  22.040  0.2169  0.2578  0.0869
88480W        W31533  29.868   6.336  24.966 -0.0492  0.1446 -0.0110
88481W        W31534  23.220   1.945   1.511 -0.1868  0.0223 -0.0811
88482W        W31535   6.478  26.105  28.799 -0.0849 -0.1386  0.0787
88483W        W31536  20.982  15.252  20.062 -0.2345  0.0294 -0.2730
88484W        W31537   8.017  32.181   6.051 -0.0916 -0.0236 -0.2160
88485W        W31538  32.216  12.403  17.592 -0.0923 -0.1452  0.5386
88486W        W31539   7.338  28.896  28.204  0.2132  0.0380  0.0624
88487W        W31540  12.709   8.900  18.822  0.0596 -0.2077 -0.2435
88488W        W31541  15.952   6.751  19.981 -0.0101 -0.0975  0.3369
88489W        W31542   0.121   0.258   1.422  0.3504 -0.0124 -0.6050
88490W        W31543  22.404  11.489  15.336  0.1982  0.2955  0.0400
88491W        W31544  16.203  25.334   5.088 -0.2563 -0.0797  0.5819
88492W        W31545  12.250  17.379  25.702  0.0684  0.1656 -0.0222
88493W        W31546  10.342  24.796  27.216  0.2141 -0.1415 -0.1560
88494W        W31547   0.300   7.592   5.040 -0.1402 -0.2392 -0.1905
88495W        W31548  13.293   2.208  20.412 -0.0064  0.0701  0.0784
88496W        W31549  27.047  18.229   2.079 -0.2060 -0.0641 -0.0995
88497W        W31550  10.264  26.505   8.495  0.0254  0.2812  0.0722
88498W        W31551  10.258  31.105  28.163  0.0561 -0.1050  0.1420
88499W        W31552  28.651   0.226  25.012  0.0534  0.1184  0.0637
88500W        W31553   9.823   3.067  19.268  0.0774 -0.0857  0.0119
88501W        W31554  26.060   0.473  16.697 -0.2222 -0.2929  0.1694
88502W        W31555  20.186  32.059   6.972 -0.3078  0.0977  0.0619
88503W        W31556  21.721   3.463   2.001 -0.0775 -0.1256  0.1694
88504W        W31557   2.515   8.603   1.637 -0.2556  0.0924 -0.0133
88505W        W31558  19.379   4.314   9.463 -0.1506 -0.1020  0.3247
88506W        W31559  11.391   8.107   5.548 -0.0876 -0.0697 -0.0277
88507W        W31560   2.852   1.149  23.387  0.4168  0.0578  0.1054
88508W        W31561  32.028  31.997  22.708 -0.0983 -0.3168  0.1300
88509W        W31562  30.982   8.624   9.400  0.0212 -0.4000  0.1328
88510W        W31563   7.272  14.203   4.957 -0.2196  0.1294 -0.0965
88511W        W31564  18.156   1.965   5.803 -0.0327 -0.0439 -0.0840
88512W        W31565  17.159  24.785  27.679  0.1282  0.0938 -0.2013
88513W        W31566  17.049   8.487   0.355 -0.0687 -0.0834  0.2289
88514W        W31567  22.559   6.881   0.484  0.0441  0.0124 -0.3961
88515W        W31568  11.381   7.206  18.633 -0.0400 -0.1725  0.0449
88516W        W31569  15.829   9.643  16.894 -0.1487 -0.1204  0.3928
88517W        W31570   2.052  26.179   4.000 -0.0136 -0.1798 -0.1295
88518W        W31571   4.118   4.437  13.980 -0.2606  0.0446 -0.1113
88519W        W31572   2.150  22.985  22.910 -0.0320 -0.2098 -0.0443
88520W        W31573  19.633  10.316  24.288 -0.2036 -0.0436  0.0677
88521W        W31574  28.032   7.757  26.414  0.1832  0.0380 -0.1713
88522W        W31575   3.353  11.533  27.936 -0.1522 -0.0831 -0.0544
88523W        W31576   5.456   7.053   7.925 -0.3755  0.0851  0.1819
88524W        W31577  34.298   3.926   8.344 -0.0699  0.0972 -0.0798
88525W        W31578  11.773   0.600   3.219  0.1927  0.0326  0.0034
88526W        W31579  27.253  24.437  14.301 -0.0788  0.1134  0.1728
88527W        W31580  22.401   9.352   1.133  0.1081  0.2109  0.1420
88528W        W31581   9.324   6.633   6.636  0.2650  0.2356  0.0628
88529W        W31582  16.522  29.277   9.333 -0.0850  0.1347 -0.1464
88530W        W31583  19.273  33.676   1.490 -0.0010  0.2554  0.1903
88531W        W31584   8.585  16.393  15.529 -0.0395  0.0977  0.1750
88532W        W31585  16.817  20.586   4.682  0.2837  0.1054  0.0050
88533W        W31586  33.351  11.507  28.121  0.0949  0.5174  0.2067
88534W        W31587  13.440  27.712  23.671 -0.1423 -0.0680  0.0015
88535W        W31588   9.546   4.541  27.642 -0.1688  0.1473  0.4182
88536W        W31589  14.928  26.471   3.147 -0.0739  0.0063  0.1048
88537W        W31590   4.151  13.862   8.664  0.0116  0.2408 -0.0734
88538W        W31591  15.693  13.547  21.413 -0.2223  0.2580 -0.2499
88539W        W31592   7.748  29.095   0.223  0.0366  0.3361 -0.1432
88540W        W31593  21.865  27.617  17.601 -0.1833 -0.2636  0.0402
88541W        W31594  33.269  31.626  14.206  0.2805 -0.0603  0.1193
88542W        W31595  18.017  28.951   6.700 -0.0310  0.1116 -0.4551
88543W        W31596   6.874  24.107   5.653  0.0345  0.0205  0.0153
88544W        W31597  16.626  12.365  15.983  0.4025 -0.1336  0.2852
88545W        W31598   1.066  27.832   9.844  0.0737 -0.1152 -0.2996
88546W        W31599   4.745  30.078  26.799 -0.0443 -0.0275  0.0018
88547W        W31600   8.105   0.292   7.649  0.1829 -0.2319 -0.1975
88548W        W31601  32.506  21.280   0.276 -0.1449 -0.2774  0.1128
88549W        W31602  25.039   4.031   5.767  0.0537  0.0583 -0.1641
88550W        W31603  20.975  32.978   1.260  0.2059  0.0761  0.0125
88551W        W31604  16.921  27.035   5.385  0.0732  0.1793  0.4394
88552W        W31605   8.683   8.385   7.192 -0.0148  0.0559 -0.0470
88553W        W31606  14.715   5.368   8.032  0.3376  0.0812 -0.1079
88554W        W31607  27.898  14.989   2.300  0.0447 -0.0348 -0.0313
88555W        W31608  11.483   1.824  23.164 -0.0206 -0.1256 -0.0313
88556W        W31609  14.897  30.017   5.874 -0.0569  0.2209  0.1824
88557W        W31610  12.124  15.104  28.962  0.1435  0.0024  0.1916
88558W        W31611  20.254  23.399  27.627  0.1033  0.1916 -0.0272
88559W        W31612  17.130  33.706  20.169 -0.0613  0.0090  0.1836
88560W        W31613  10.044   8.171  17.710 -0.2056  0.0034 -0.3145
88561W        W31614  10.795  30.971  29.160 -0.0385 -0.3034  0.1951
88562W        W31615  14.466  26.751   9.575 -0.1510 -0.2078 -0.0020
88563W        W31616   5.931   1.495   5.032 -0.1706  0.0710  0.1329
88564W        W31617   9.762  26.641   7.942 -0.0886 -0.1387  0.0023
88565W        W31618  11.511   7.558   7.254  0.3019 -0.0304 -0.0104
88566W        W31619   3.634  29.437   3.779  0.1059  0.1464  0.0002
88567W        W31620  15.466  18.599  24.241  0.1448 -0.1466  0.1573
88568W        W31621  20.910   7.116  18.887  0.1121  0.1338 -0.0419
88569W        W31622   6.463  32.290   8.139  0.2786 -0.0011 -0.1737
88570W        W31623  27.663  31.181   0.233 -0.0031  0.1307 -0.0687
88571W        W31624  22.741  14.367  23.319  0.1730  0.3899 -0.2018
88572W        W31625  30.565  11.099   6.053  0.0394  0.1759  0.1189
88573W        W31626  23.671  24.024   6.555  0.0570 -0.2574  0.1303
88574W        W31627  20.900  34.230   3.528 -0.2711 -0.1276  0.1953
88575W        W31628  14.234  33.731   0.873 -0.0035  0.1459  0.2283
88576W        W31629   5.127  16.395   9.788  0.1356 -0.0426 -0.0342
88577W        W31630  18.576   6.346  24.601 -0.2388 -0.2151  0.1770
88578W        W31631   6.987  23.714  18.326 -0.1066  0.2579 -0.1294
88579W        W31632   7.731   7.492   6.655  0.2003 -0.0359 -0.1687
88580W        W31633  19.286   6.388   5.416 -0.1776 -0.1733  0.3333
88581W        W31634  23.972   7.868   0.011  0.1350 -0.3488  0.0999
88582W        W31635  20.606  34.652  26.239  0.0405  0.3231  0.1575
88583W        W31636  25.046  11.251   2.863 -0.1435  0.3829 -0.5822
88584W        W31637  24.561  12.656  13.284 -0.1677 -0.0772  0.2695
88585W        W31638  32.150   5.121   8.962 -0.4731 -0.0399 -0.1266
88586W        W31639  17.409  12.566   0.258 -0.0913 -0.0809  0.0121
88587W        W31640  31.861  11.013  17.895 -0.1063 -0.0769 -0.5830
88588W        W31641  26.290  30.544   8.297 -0.0296  0.0981 -0.1884
88589W        W31642  11.422  24.781  22.422 -0.2134 -0.2640  0.0737
88590W        W31643  10.985   4.570   7.481  0.0250  0.3462  0.0945
88591W        W31644  22.329  30.716   7.847  0.2084  0.3454 -0.3302
88592W        W31645  15.380  19.059   8.467 -0.0915  0.0484 -0.2357
88593W        W31646  23.101  14.422  25.591 -0.0999 -0.0033 -0.0275
88594W        W31647  19.982   1.136  26.910  0.0086  0.0297 -0.1494
88595W        W31648  17.291  30.634   1.145 -0.0471 -0.2497 -0.0070
88596W        W31649  17.777  13.579   2.176 -0.1040 -0.0642 -0.1151
88597W        W31650   9.847  31.205  20.919  0.4412  0.2324 -0.1348
88598W        W31651   7.906  26.552   2.966 -0.1680  0.2734  0.1251
88599W        W31652  28.477   8.016  24.554  0.0483  0.0980 -0.0507
88600W        W31653  12.069   7.594   3.272 -0.4112  0.1703  0.0194
88601W        W31654  10.238  14.041   8.892 -0.3178 -0.1204  0.0680
88602W        W31655  12.181   6.317   9.050 -0.0323  0.3503  0.1778
88603W        W31656   7.367  33.953   2.967 -0.0660 -0.3112  0.3668
88604W        W31657  28.383  31.425   7.116  0.1117 -0.0310 -0.1207
88605W        W31658  17.796  16.837   0.682 -0.3028  0.0083  0.3946
88606W        W31659  17.297  13.000   2.436 -0.1240  0.3137  0.0050
88607W        W31660  32.997   4.999   7.310 -0.2398  0.1187  0.1072
88608W        W31661   9.956  25.656   7.762 -0.1428  0.0479 -0.1433
88609W        W31662  15.747  19.396  25.078  0.0384  0.1011 -0.0714
88610W        W31663  27.892  13.483  27.118  0.1522  0.0656 -0.0236
88611W        W31664  13.689   3.267   5.080  0.0404  0.2638 -0.1106
88612W        W31665   8.741   0.167   8.215 -0.0259 -0.0139 -0.0127
88613W        W31666  23.268  14.663   3.386 -0.2237 -0.1536 -0.0680
88614W        W31667   5.181  26.495   5.157 -0.0091  0.0982  0.0236
88615W        W31668   6.148   2.999   2.474 -0.5386 -0.0615 -0.1051
88616W        W31669   8.836  15.165  25.726  0.1658  0.2920 -0.0454
88617W        W31670  15.592  32.248   2.317 -0.0054 -0.1994  0.0941
88618W        W31671   9.986   9.789  16.183  0.0345  0.1528  0.3053
88619W        W31672  19.276   1.471  28.166 -0.2210 -0.3130  0.2845
88620W        W31673  22.574  12.361  16.740 -0.1793 -0.2365 -0.2318
88621W        W31674  14.285  18.219  28.073  0.0119  0.0171  0.3482
88622W        W31675  29.034  12.298   4.131 -0.1425  0.1726 -0.1352
88623W        W31676   4.688   2.668  24.145  0.0304 -0.0038 -0.0295
88624W        W31677   1.313  16.135   1.772  0.0953  0.3205  0.0717
88625W        W31678  24.321  31.540  28.142  0.0611  0.3660  0.1772
88626W        W31679   8.563  12.518  20.539 -0.1140 -0.0733  0.0100
88627W        W31680  25.738  10.050  25.402 -0.0784  0.0423  0.0347
88628W        W31681  16.436  33.465   0.115  0.1542 -0.2202 -0.3225
88629W        W31682  20.196   5.958  23.999  0.0397 -0.0120  0.0424
88630W        W31683   8.340  25.803   3.813  0.0517 -0.1501 -0.2437
88631W        W31684  17.992  30.034  29.102  0.1088  0.0006  0.0604
88632W        W31685  26.813  12.686   0.015 -0.0479  0.3312 -0.0804
88633W        W31686  33.517   9.347  16.809  0.1830  0.7330 -0.0425
88634W        W31687  34.337  32.012  24.380  0.0654 -0.0548 -0.0866
88635W        W31688  24.638  20.794   3.907 -0.0356 -0.1735 -0.0064
88636W        W31689  20.794   6.647   8.166 -0.2756  0.2852 -0.0715
88637W        W31690  29.272   9.300  21.097 -0.1942  0.2120 -0.0993
88638W        W31691  21.749  28.683  28.916  0.1161 -0.2153 -0.0498
88639W        W31692   9.584  14.634   9.673 -0.3598  0.1616 -0.1268
88640W        W31693   8.820  10.458   4.867  0.2431  0.1443 -0.1495
88641W        W31694   2.147  11.335   8.721 -0.1387 -0.1620 -0.0540
88642W        W31695   7.755  25.741   6.176 -0.1085 -0.3554 -0.0867
88643W        W31696   9.067  11.089   5.392  0.1129  0.0689 -0.0989
88644W        W31697   5.726  27.533   7.930  0.0947 -0.1969 -0.4134
88645W        W31698  16.856   9.649   9.023 -0.1397 -0.0588 -0.0651
88646W        W31699  17.747   8.275   0.161  0.3961  0.3704  0.1700
88647W        W31700  29.225   5.585   5.494  0.0992  0.1390  0.1757
88648W        W31701  31.918   3.702   0.476  0.0248 -0.1869  0.1406
88649W        W31702  26.169  12.016   4.360 -0.2229  0.2120  0.2270
88650W        W31703  12.518  29.016  29.132 -0.2650 -0.2056 -0.3031
88651W        W31704  19.877   6.839  27.148  0.0030  0.1207 -0.1940
88652W        W31705  34.581  12.769  24.793  0.0374  0.0552  0.1389
88653W        W31706  21.567   5.948  29.009 -0.0526  0.0428  0.2957
88654W        W31707  34.492   3.062   4.238  0.1789 -0.2065  0.0005
88655W        W31708  30.476   1.532  24.682  0.2414 -0.1884  0.5344
88656W        W31709  32.383   6.818   5.871  0.1917  0.0517 -0.4069
88657W        W31710  34.070   4.835   2.456  0.2454 -0.1712 -0.2114
88658W        W31711  13.787  13.429   0.184  0.3114 -0.1586  0.0425
88659W        W31712  24.827   6.092  19.456 -0.0644 -0.2356  0.0911
88660W        W31713  27.364   6.749  26.836  0.2979  0.0140 -0.3120
88661W        W31714  18.995  17.647  23.813 -0.1338  0.3106  0.3299
88662W        W31715  10.022  15.108  29.166 -0.0045 -0.0689 -0.0029
88663W        W31716   6.537  30.700   6.445  0.1033 -0.2154  0.1427
88664W        W31717  23.838  11.345  25.903  0.4516 -0.0917  0.1320
88665W        W31718   4.236  25.325  28.713  0.0063  0.0651  0.3457
88666W        W31719   2.673  18.841   7.368 -0.1239  0.2853  0.1087
88667W        W31720  15.898  33.571   6.147 -0.2246 -0.2256  0.0815
88668W        W31721  14.764  22.608   1.956  0.0315 -0.4120  0.1592
88669W        W31722   2.842  32.646  18.544  0.0637 -0.2575 -0.0024
88670W        W31723  20.507   6.127  24.970  0.3590 -0.0625 -0.0493
88671W        W31724  13.570   2.685   5.128 -0.1549 -0.0916  0.2274
88672W        W31725  33.135  12.338   1.956 -0.0100  0.0094 -0.0663
88673W        W31726  15.134   7.266  23.280  0.2242  0.1241 -0.2043
88674W        W31727  29.111  11.262  27.820  0.2090 -0.0658  0.1908
88675W        W31728  17.546   4.716   9.999 -0.1326 -0.2144 -0.0119
88676W        W31729  17.860   9.675   4.916  0.0821 -0.2118  0.0579
88677W        W31730  25.988   7.530  17.691  0.2500 -0.0081 -0.0036
88678W        W31731  11.348   4.302   2.024  0.0244 -0.0034 -0.1845
88679W        W31732   8.189  29.959  25.081  0.0005  0.0478  0.0592
88680W        W31733  17.482  28.013   0.644  0.0629  0.0639 -0.1863
88681W        W31734  33.018  12.024   8.954  0.2302 -0.0591 -0.1743
88682W        W31735  27.079  30.827   9.916 -0.1727  0.0390  0.2450
88683W        W31736  16.357  11.683   2.955  0.0656  0.2169  0.0746
88684W        W31737  18.058   0.199  10.439 -0.1756  0.0561  0.0409
88685W        W31738   4.065  16.145   2.961 -0.2065 -0.1332  0.1231
88686W        W31739   4.616  14.142  17.800 -0.3272 -0.1605 -0.3003
88687W        W31740   3.986   7.380  25.810 -0.0262  0.1185  0.1045
88688W        W31741  17.388   7.764   4.108  0.1482 -0.1195  0.1516
88689W        W31742  25.145  13.514   0.576  0.2815 -0.0482 -0.1557
88690W        W31743  32.059  30.875   0.961  0.2133 -0.2499  0.0433
88691W        W31744  15.417  10.360  17.118  0.4412  0.0882  0.0155
88692W        W31745  28.851  10.856  19.792  0.2390 -0.0443 -0.0030
88693W        W31746  10.648  24.130  15.697 -0.0215 -0.0607 -0.1733
88694W        W31747   1.146  26.689  15.949 -0.1687  0.0322 -0.1304
88695W        W31748  23.198   5.037   1.139 -0.0179  0.1848 -0.1585
88696W        W31749  18.633  28.435  24.136 -0.2587 -0.1095  0.1340
88697W        W31750  25.755  34.550   7.099  0.1630 -0.2719 -0.0240
88698W        W31751  16.115  34.090   5.508  0.2782 -0.1164  0.1610
88699W        W31752  20.373  10.496   7.071  0.1227  0.1122 -0.0499
88700W        W31753  32.594   0.941  10.178 -0.0747 -0.0450 -0.0148
88701W        W31754  11.172  26.120  27.586  0.2786 -0.1155 -0.2275
88702W        W31755   3.781   7.050   5.294 -0.0493  0.3676  0.2186
88703W        W31756  16.531  32.596  24.246  0.0118  0.2796  0.2110
88704W        W31757  14.758  12.766   7.379 -0.0294 -0.2818  0.3974
88705W        W31758  16.743  28.462   8.110  0.1671 -0.1992 -0.0784
88706W        W31759  26.768  15.631   7.152  0.1078  0.0110  0.1267
88707W        W31760  17.162   9.450  28.483 -0.0843 -0.4748  0.2859
88708W        W31761  17.933  27.837   0.447  0.3134  0.0307 -0.0709
88709W        W31762   9.445   6.998  18.645  0.4062  0.1355  0.1869
88710W        W31763  29.708   7.522   6.353  0.2480 -0.0843 -0.0438
88711W        W31764   7.342  13.425   9.186  0.1102 -0.0336 -0.1893
88712W        W31765  24.509  33.622   1.827 -0.4198  0.1034 -0.1482
88713W        W31766  27.684  16.764  21.254  0.2100  0.0559  0.6381
88714W        W31767  28.412   6.683  27.765 -0.3572 -0.0289 -0.1211
88715W        W31768  16.399  28.224  26.108 -0.2493  0.0802  0.1530
88716W        W31769  27.062  16.098   1.924 -0.1238  0.0798 -0.4688
88717W        W31770   1.760  32.474   1.679  0.1748 -0.0763 -0.1329
88718W        W31771  15.930  34.000   3.155  0.0171  0.3110 -0.2303
88719W        W31772   8.926  12.828  20.392  0.0102 -0.0263 -0.1358
88720W        W31773  34.470   5.350   5.295  0.2147 -0.0534 -0.0198
88721W        W31774  25.340  13.966  22.818 -0.2238  0.0565  0.1715
88722W        W31775   1.191  15.498   8.518 -0.0775 -0.1828 -0.0102
88723W        W31776  18.503   3.832  23.856  0.0409  0.0296  0.0789
88724W        W31777  12.627   9.706   9.831 -0.1653  0.2370 -0.1975
88725W        W31778   7.667  24.049  28.089  0.0870  0.0661 -0.0555
88726W        W31779  27.966  16.500  21.857 -0.2781  0.0036 -0.0373
88727W        W31780  12.428   5.810  23.870 -0.1718  0.0118  0.0366
88728W        W31781  10.239  16.133  11.138 -0.1379  0.2881 -0.2691
88729W        W31782  29.169  14.021  26.800 -0.1037  0.1486 -0.1741
88730W        W31783  21.022  11.014   5.296 -0.0947  0.1630  0.1746
88731W        W31784  16.568   8.308   7.515  0.2270 -0.3466  0.1734
88732W        W31785  19.080  16.523   6.972 -0.1760  0.2026 -0.0986
88733W        W31786  11.970   6.996  20.993 -0.0045  0.1734  0.1492
88734W        W31787  25.827   9.466  17.024 -0.3053  0.5376  0.4474
88735W        W31788   1.673   9.393   5.388  0.1199 -0.2611  0.2157
88736W        W31789  21.911  33.500   1.910  0.0843 -0.0000 -0.0028
88737W        W31790  10.043   3.911  10.515 -0.0968  0.0715  0.2391
88738W        W31791  12.349  11.768   1.084 -0.0389  0.3074  0.3133
88739W        W31792   4.799   7.041   9.752  0.0063  0.1442 -0.0335
88740W        W31793  11.240  13.085  10.297 -0.2507  0.1209 -0.0399
88741W        W31794  13.348  17.523  22.320  0.2224  0.0450  0.0623
88742W        W31795   6.398   6.828  29.153  0.0350  0.2756 -0.0884
88743W        W31796   7.580  18.398  18.519 -0.0698  0.0149 -0.0079
88744W        W31797  33.690  18.021  17.993 -0.1203  0.1238  0.0842
88745W        W31798  12.332  10.328  19.993 -0.0057  0.0996 -0.0690
88746W        W31799   9.659   7.050   8.456  0.0375 -0.1024  0.0884
88747W        W31800  18.860  13.062   3.072 -0.0578 -0.3729 -0.1178
88748W        W31801   6.158  10.225   6.049  0.1181 -0.0988  0.0270
88749W        W31802  20.790  13.102   2.444 -0.1282 -0.2560  0.0950
88750W        W31803   6.315  26.589   5.285 -0.2292 -0.3268 -0.1270
88751W        W31804  24.150  34.422  27.832 -0.3143  0.0496  0.1878
88752W        W31805  19.222   3.439   5.018  0.0389  0.0270 -0.2954
88753W        W31806   2.507  13.521   7.992 -0.1678  0.1905  0.0786
88754W        W31807  29.786  14.997   2.272  0.0948 -0.1404 -0.0297
88755W        W31808   8.857  22.103   8.294 -0.1456  0.1530 -0.1171
88756W        W31809  16.886  27.146   1.812  0.0753 -0.2184  0.0589
88757W        W31810   3.907   8.171   0.625 -0.3685  0.3072  0.4634
88758W        W31811   7.592  24.267  20.154 -0.0202 -0.3732  0.0886
88759W        W31812  14.002   3.338   3.270  0.0701  0.0517 -0.4007
88760W        W31813   6.156  11.532   9.748  0.0964  0.0771 -0.0171
88761W        W31814  20.267  15.877   5.142 -0.0361 -0.0554 -0.1771
88762W        W31815  11.323  10.303   9.972  0.5142 -0.1629  0.0745
88763W        W31816  18.225   7.008   1.734  0.1529  0.3787 -0.3194
88764W        W31817   8.713   9.673   1.735  0.2627 -0.0955  0.1707
88765W        W31818  11.061  32.421   2.485 -0.2817  0.0229 -0.0096
88766W        W31819  11.452  20.503  24.117  0.0483 -0.2790  0.1850
88767W        W31820   8.646  32.480  26.178  0.2510 -0.1562 -0.1698
88768W        W31821   8.660   1.166   6.346 -0.4691 -0.0370  0.1163
88769W        W31822   5.903  33.877  28.243 -0.2289 -0.2658 -0.0911
88770W        W31823  12.803  26.218   7.633  0.1179  0.0801 -0.2197
88771W        W31824  13.490  31.061  24.701  0.1147  0.1907  0.0928
88772W        W31825  20.745  32.534   2.285 -0.2974 -0.2309  0.2254
88773W        W31826  15.038  32.129   7.644  0.0388  0.1465 -0.2587
88774W        W31827  23.904  29.327   9.349 -0.0258 -0.3130 -0.1304
88775W        W31828   2.856  20.074   8.623  0.0776  0.0410  0.0483
88776W        W31829  13.815   4.965   8.243  0.1141  0.0533  0.3545
88777W        W31830   1.019  13.699   9.104  0.0738 -0.1749  0.2866
88778W        W31831  30.442   4.760   5.818 -0.2446  0.0311  0.1247
88779W        W31832  34.241  13.700  17.271  0.1406 -0.3428 -0.2223
88780W        W31833  19.600  12.150  16.687  0.1033 -0.0896 -0.1508
88781W        W31834   7.742   1.523   5.487  0.1428  0.0958  0.0726
88782W        W31835   5.721  13.498  10.889  0.0339  0.1239  0.2647
88783W        W31836   6.983   8.279  10.350 -0.0910  0.2136  0.0849
88784W        W31837   9.127  15.206   5.784  0.4614  0.0569  0.0689
88785W        W31838  13.505  19.835   9.414 -0.0019  0.0403 -0.2993
88786W        W31839   8.077   6.359   1.325 -0.1591  0.1845  0.0422
88787W        W31840  11.716  19.005  17.678 -0.1956  0.1223 -0.0975
88788W        W31841   7.682   1.736   9.129  0.1876  0.4169 -0.0801
88789W        W31842  12.679  24.551  29.083 -0.0554 -0.4451  0.1103
88790W        W31843  32.237  34.492   1.283 -0.2039 -0.1397 -0.1174
88791W        W31844  25.701   1.970   3.591  0.2296  0.1990  0.2423
88792W        W31845   1.090   6.385  25.214 -0.1093  0.1256  0.1672
88793W        W31846  31.273  10.920  26.352 -0.0459 -0.1788  0.3454
88794W        W31847   1.488   1.124   4.371  0.0054  0.1410  0.0925
88795W        W31848  20.931   1.677  10.639 -0.0694  0.2083  0.0955
88796W        W31849  16.866  33.394  28.141 -0.2331 -0.1207  0.0689
88797W        W31850   5.098  13.835   0.767  0.0072  0.2337 -0.2439
88798W        W31851  11.364   4.652  28.210 -0.2729  0.1570  0.2703
88799W        W31852   6.479  25.730   3.270 -0.0624 -0.1406  0.0344
88800W        W31853  29.616   4.019   7.545  0.2814  0.4777 -0.0177
88801W        W31854  15.765   4.558  27.698  0.3430  0.0716 -0.2923
88802W        W31855  15.324  13.451  26.402  0.3543  0.2834  0.0954
88803W        W31856  33.697  29.353   5.903  0.0496  0.2153 -0.2450
88804W        W31857  15.459  23.154   5.700 -0.0574  0.3916  0.2062
88805W        W31858  10.908   9.343   1.072  0.0043 -0.3267 -0.1799
88806W        W31859  31.607  10.640   2.041 -0.0945  0.0960  0.2574
88807W        W31860   9.633  33.162  15.584  0.4942  0.2260 -0.0968
88808W        W31861  11.110  27.319   7.808 -0.1184  0.1394 -0.1360
88809W        W31862  14.881   3.598   4.977 -0.0426  0.1162  0.2656
88810W        W31863   5.741  17.968   5.295  0.1659  0.0427  0.1357
88811W        W31864   3.432   1.075   6.495  0.1312 -0.0039 -0.1798
88812W        W31865   4.822   4.665  14.913  0.0291  0.1886 -0.3134
88813W        W31866  10.105  12.966   8.581  0.0093 -0.0955 -0.1642
88814W        W31867  15.886  30.551   9.188 -0.4183 -0.2219 -0.0511
88815W        W31868  26.630  14.344   5.028 -0.0887 -0.1839  0.0031
88816W        W31869  19.348  24.749  28.174  0.2541 -0.0791  0.0829
88817W        W31870  30.774  30.033   5.238  0.0638  0.0865  0.1640
88818W        W31871   0.192  18.258  23.903 -0.3488 -0.2134 -0.0666
88819W        W31872   4.686  21.678  26.017  0.1741 -0.0373  0.3681
88820W        W31873  18.341   2.063   2.652  0.3050  0.3937 -0.0886
88821W        W31874   8.425  12.785   5.531 -0.1870 -0.3015 -0.0772
88822W        W31875   9.496  23.256   1.616  0.2771 -0.0054  0.0239
88823W        W31876  23.408  21.329  28.461 -0.0175  0.2692 -0.2156
88824W        W31877   8.568  29.536   7.237 -0.0182  0.0638  0.1049
88825W        W31878  23.842   5.585   8.040  0.1378  0.0589 -0.2476
88826W        W31879  23.857  26.089   3.493  0.1293 -0.1626  0.1752
88827W        W31880   1.320   6.720   7.984 -0.2034 -0.0305  0.5555
88828W        W31881  31.536   1.200  26.565  0.1501 -0.2068  0.0714
88829W        W31882  10.949  10.598   0.084  0.2049 -0.0055  0.1609
88830W        W31883  17.001  30.059  27.478 -0.0532 -0.2486  0.0484
88831W        W31884   7.984   9.784   9.852  0.1053 -0.1066 -0.0932
88832W        W31885  14.318   1.391   9.761 -0.1300 -0.2480 -0.1744
88833W        W31886   0.484  32.684   9.653  0.0482 -0.2610  0.4222
88834W        W31887  22.018   3.095   6.991  0.0920 -0.1027 -0.0470
88835W        W31888   3.489  16.657   7.465 -0.2588  0.0211 -0.0072
88836W        W31889   7.872  11.185  21.817 -0.1919  0.1542 -0.3077
88837W        W31890  23.176  17.824   1.312  0.0033  0.0587 -0.0712
88838W        W31891   5.666  25.627   8.033 -0.2285 -0.2655 -0.1185
88839W        W31892   1.250  11.603   7.341 -0.2664  0.2608  0.1516
88840W        W31893  15.399   4.892   8.790  0.2459  0.1562  0.0418
88841W        W31894   7.476   1.855   9.567 -0.0151  0.2347 -0.0475
88842W        W31895   8.732  31.018  23.117  0.2999 -0.2307  0.0052
88843W        W31896  26.391  31.134  27.319 -0.2828 -0.0754 -0.2354
88844W        W31897  11.398   2.147  19.878  0.1235 -0.3407  0.1452
88845W        W31898   4.054  34.084   6.920 -0.2086  0.1392  0.2877
88846W        W31899  21.499   2.923   4.868  0.1841  0.0455 -0.0914
88847W        W31900   5.444   2.219  24.892 -0.0352 -0.0245 -0.1248
88848W        W31901  10.432  15.017   8.376 -0.0992  0.0542  0.0546
88849W        W31902  12.505   7.875  18.149 -0.2427  0.4073  0.1867
88850W        W31903   8.839   4.056   4.245  0.3216  0.0495 -0.3102
88851W        W31904  12.639  32.922  27.543  0.1074  0.2667  0.0815
88852W        W31905   0.943  10.827  10.523  0.1207  0.0025  0.1961
88853W        W31906  28.224   4.716   2.295  0.1251  0.0830  0.0346
88854W        W31907   3.248  30.532  25.328 -0.1455  0.0982 -0.1680
88855W        W31908  19.456  12.570  25.673  0.0288 -0.0817 -0.1480
88856W        W31909   4.706  20.178   8.047 -0.0093 -0.1161 -0.3203
88857W        W31910  17.226   0.925   8.624  0.1475  0.0875 -0.0288
88858W        W31911   9.037  18.133   5.819 -0.0080  0.1470 -0.1138
88859W        W31912  14.351  31.241  25.627  0.0171  0.3847 -0.0762
88860W        W31913  21.977  23.546  28.002 -0.3429 -0.0634 -0.1168
88861W        W31914  19.509  12.536  29.040  0.0918 -0.0412 -0.0583
88862W        W31915  12.256  11.654   6.623  0.0561  0.0325  0.1935
88863W        W31916   6.723  11.821   2.838 -0.0470 -0.1192 -0.2691
88864W        W31917   5.056   1.171   5.039 -0.0880 -0.1187  0.1796
88865W        W31918   9.054  24.385   8.721 -0.1085 -0.1619  0.2573
88866W        W31919  20.123  33.585   4.956 -0.2038  0.0116 -0.0046
88867W        W31920   4.450  26.159  29.153 -0.0120 -0.0704 -0.2903
88868W        W31921   8.500  15.958  22.087 -0.0376 -0.0303 -0.1706
88869W        W31922  12.724   5.526   0.524 -0.1792 -0.0138  0.0552
88870W        W31923  13.732  25.806   9.931  0.1946  0.1824  0.1443
88871W        W31924  22.550  24.445  15.651 -0.0900 -0.2691 -0.1074
88872W        W31925  26.449   5.144   1.347  0.1137 -0.0155 -0.4954
88873W        W31926  15.895  11.566   3.222 -0.0473  0.1184  0.1089
88874W        W31927  13.125  12.186   7.432 -0.1240 -0.3005 -0.1126
88875W        W31928  14.332  20.571  27.018 -0.0685  0.0160 -0.0010
88876W        W31929  30.523  33.630  28.661 -0.0646  0.0215 -0.4467
88877W        W31930  13.646   8.396   7.313  0.2199 -0.1331  0.2434
88878W        W31931   9.330  33.226   0.794  0.2278  0.0493  0.1317
88879W        W31932  17.561  23.930  23.250  0.0739  0.3726  0.2496
88880W        W31933  26.673  34.621  23.860  0.0824  0.1219 -0.0084
88881W        W31934  17.023  32.451   9.951  0.1252 -0.1181 -0.0390
88882W        W31935  12.323  26.867   6.868  0.0306 -0.3203 -0.0263
88883W        W31936  19.739   0.492  28.267  0.2060  0.1590  0.2068
88884W        W31937  22.093   3.456  29.133  0.4568 -0.1585 -0.0414
88885W        W31938  31.378   8.392   1.218 -0.0401  0.0113  0.1285
88886W        W31939   5.795  10.154   5.465 -0.3338 -0.0285 -0.0832
88887W        W31940  13.716  15.904  28.317  0.2305  0.2439 -0.1220
88888W        W31941  19.001  22.608  25.398  0.2560  0.1192  0.0453
88889W        W31942  31.705  21.747   3.201  0.2630  0.0729 -0.0398
88890W        W31943   8.240  29.919   1.971  0.1395  0.1841 -0.3112
88891W        W31944  31.571   8.304  19.082  0.1106 -0.1291 -0.1182
88892W        W31945  26.266   2.638  20.224 -0.2215 -0.3224  0.0111
88893W        W31946  18.294  32.802   1.701  0.0564 -0.0836 -0.0967
88894W        W31947  29.600  32.896   2.959 -0.2109  0.0444 -0.3442
88895W        W31948   0.399   1.832   8.164 -0.1144 -0.0143 -0.2086
88896W        W31949  32.571  14.596   8.407  0.1082 -0.0407  0.0125
88897W        W31950  27.825  34.588  25.846 -0.2727 -0.1924 -0.2501
88898W        W31951  22.975  33.859  17.673 -0.1017  0.1795  0.3164
88899W        W31952  17.766  11.308   2.368 -0.0152 -0.0363  0.4198
88900W        W31953   3.863   2.181  20.864 -0.1443  0.1497  0.1910
88901W        W31954  33.121  11.112   2.037 -0.0556 -0.0623 -0.1883
88902W        W31955  33.925  27.309  13.496  0.1938 -0.2203 -0.2628
88903W        W31956   9.392  23.290  19.407  0.2835 -0.4967 -0.3842
88904W        W31957  31.940  12.950   1.262  0.1024  0.1850  0.0370
88905W        W31958   0.920  32.214  25.225 -0.1073 -0.2407  0.0633
88906W        W31959  12.791  10.700   9.145  0.0047 -0.1039  0.0662
88907W        W31960  18.982   8.646   2.441 -0.3378 -0.2164  0.2039
88908W        W31961  26.395  31.265   3.091  0.1207 -0.3489 -0.0832
88909W        W31962  23.841  16.539   8.427  0.0215 -0.0389  0.2788
88910W        W31963   9.481   3.209   9.801  0.0045  0.0391  0.2331
88911W        W31964  34.552  33.019   6.166  0.2251  0.2096 -0.2142
88912W        W31965   9.779   9.862   4.540  0.0732  0.0116 -0.2092
88913W        W31966   1.387  25.291   8.902 -0.1731 -0.0053  0.1367
88914W        W31967  31.065  12.193  14.199  0.1401 -0.1295 -0.0577
88915W        W31968  20.696  14.106  23.612  0.1213 -0.1169 -0.1822
88916W        W31969  12.974  21.638   8.766  0.1426  0.1631  0.3225
88917W        W31970  12.603  12.544  10.075  0.0856  0.1603  0.0575
88918W        W31971  23.843  16.605   2.025 -0.2374 -0.0853 -0.1372
88919W        W31972  18.781   5.734  28.430  0.1802 -0.1935 -0.1183
88920W        W31973   9.431   3.120  24.078 -0.0345  0.0641 -0.0295
88921W        W31974  14.292   1.213  10.671 -0.2635 -0.0628  0.1812
88922W        W31975  23.516  13.031   6.409 -0.2138  0.4270 -0.0392
88923W        W31976   3.770  10.132  25.060 -0.3998 -0.0072  0.1558
88924W        W31977   8.339   3.016   6.248 -0.1154  0.0892  0.1085
88925W        W31978  17.765   2.828   5.337 -0.1381 -0.0698  0.1249
88926W        W31979  18.433   6.187   3.097  0.0397  0.3900 -0.1356
88927W        W31980  31.239   8.183  22.790  0.0769 -0.3193 -0.1515
88928W        W31981  13.976  34.006  24.993  0.3762  0.0831  0.2974
88929W        W31982  22.751   5.840   4.483 -0.0990 -0.2582 -0.1990
88930W        W31983  12.652  30.701   1.322  0.2569 -0.1452  0.1095
88931W        W31984   8.308  26.242  29.191  0.2647  0.1291  0.0010
88932W        W31985  13.804   9.011  10.500 -0.1991  0.2086  0.1224
88933W        W31986   2.196   2.150   9.889  0.0309  0.2650 -0.2920
88934W        W31987  23.837   9.893  27.692 -0.2566  0.1722  0.0005
88935W        W31988   9.508  34.533   8.452 -0.0094 -0.1348  0.1416
88936W        W31989  15.440  29.322   1.683  0.0277  0.0399 -0.1085
88937W        W31990   9.319  10.199   2.890 -0.0405  0.0207 -0.2850
88938W        W31991  15.161  16.198   6.343 -0.0427  0.2209 -0.0105
88939W        W31992   5.355  28.858   6.140  0.1951 -0.3561  0.2637
88940W        W31993  15.665   7.692   5.168  0.0176  0.0917 -0.0939
88941W        W31994  12.045  16.663   6.324 -0.0917 -0.0816 -0.0744
88942W        W31995  14.192  12.552   8.551  0.0298 -0.2513 -0.0367
88943W        W31996  12.291  11.251  25.733  0.2254 -0.2286 -0.1130
88944W        W31997  13.948  14.155   4.677 -0.0174 -0.1574  0.0943
88945W        W31998  27.963  13.404   5.405 -0.1680  0.2809 -0.1352
88946W        W31999  11.357  29.001   1.823 -0.0470 -0.1428  0.0207
88947W        W32000   2.789   5.354  27.249  0.0661  0.1776 -0.2609
88948W        W32001  24.714  31.016   1.291 -0.2408  0.0669 -0.1280
88949W        W32002  26.173   0.934  26.375  0.0177  0.1989  0.2435
88950W        W32003   5.395  30.042   5.847 -0.1498  0.0825  0.2776
88951W        W32004   5.229   0.506   5.637  0.1121  0.0797 -0.0967
88952W        W32005  13.641  10.216   5.108 -0.0315  0.0041 -0.0281
88953W        W32006  11.668   6.107   6.077  0.1328 -0.2919  0.0729
88954W        W32007  11.418  27.515  25.575 -0.3475 -0.0097 -0.2254
88955W        W32008  15.076  27.618   8.002 -0.2920  0.0490  0.0866
88956W        W32009  16.969  23.142  15.934  0.2542  0.0666  0.0124
88957W        W32010  24.433  16.034   6.021 -0.1413  0.0365  0.2739
88958W        W32011  29.841  16.523   0.649  0.0542  0.0188  0.2268
88959W        W32012  10.224  29.769  23.205 -0.1824  0.1220  0.5709
88960W        W32013   4.629  29.321   4.245 -0.0836  0.2790 -0.1476
88961W        W32014  15.404  33.170   8.164  0.2059  0.3296 -0.1621
88962W        W32015  26.614  32.066   1.952  0.2610 -0.0343  0.0493
88963W        W32016  31.515  29.674   6.223 -0.0454 -0.1593  0.0301
88964W        W32017   9.726   8.605  28.081  0.2843 -0.1236  0.0515
88965W        W32018   0.764  29.416  26.156  0.0875 -0.0916  0.1113
88966W        W32019  27.837  24.495   3.695 -0.1019  0.1753 -0.1761
88967W        W32020  10.233  33.604   3.934 -0.1329 -0.2527 -0.2862
88968W        W32021   5.921   9.344  10.662  0.0990  0.0308 -0.2702
88969W        W32022  23.192   7.476   0.285 -0.0222 -0.0345 -0.1721
88970W        W32023   8.543  13.141  10.524 -0.0963  0.3263  0.3224
88971W        W32024  18.073  34.555   3.131  0.0132  0.0735  0.1623
88972W        W32025  26.089   4.103  20.195 -0.0412  0.3573 -0.3301
88973W        W32026  19.175  34.063   2.094 -0.4489 -0.0902 -0.1968
88974W        W32027  22.630   5.007   0.695  0.2148  0.1250  0.2608
88975W        W32028  25.749  18.035  14.936  0.2453  0.1059  0.2733
88976W        W32029  16.098   8.449  28.092  0.1652 -0.2030 -0.2189
88977W        W32030   1.579   0.916  26.804  0.0604 -0.1278 -0.2499
88978W        W32031  19.678  23.448  28.483 -0.0409  0.1813 -0.0254
88979W        W32032  13.589  33.940   2.326  0.1189 -0.1589  0.2179
88980W        W32033  24.414  25.960  24.922 -0.1292  0.1948  0.0599
88981W        W32034   8.889   4.566   6.017 -0.0295 -0.1864  0.0459
88982W        W32035  15.013  13.515  26.934  0.0347 -0.1454 -0.0877
88983W        W32036   2.578  33.976   0.234 -0.0145 -0.2337 -0.0961
88984W        W32037  24.303  18.073   5.525 -0.1446 -0.1649  0.1166
88985W        W32038  18.086  13.723  24.126 -0.1418 -0.3227 -0.0230
88986W        W32039   9.123  22.468  10.315 -0.3186 -0.2550  0.0289
88987W        W32040  15.162  26.282   4.056 -0.0218  0.1710 -0.1750
88988W        W32041  12.072  29.248  16.574  0.0360 -0.0179 -0.2045
88989W        W32042  16.480  18.918   6.563  0.1762  0.3598  0.0513
88990W        W32043   5.756  31.432  27.389  0.1167 -0.1781 -0.2840
88991W        W32044  30.385   2.959   8.845  0.1192 -0.1218 -0.2160
88992W        W32045  15.339   0.421   6.149  0.3718 -0.0500 -0.4124
88993W        W32046  14.483   3.612   6.076 -0.1931  0.1257  0.1213
88994W        W32047   4.574  11.069   3.231 -0.5413  0.0675  0.0002
88995W        W32048  18.227   8.300  20.949  0.1889  0.1477 -0.3172
88996W        W32049  13.397   2.332  19.874  0.1616  0.1779  0.2184
88997W        W32050  16.677   3.744  25.222 -0.1657 -0.1208  0.0646
88998W        W32051   2.322   2.292  26.331  0.0774  0.2305 -0.1516
88999W        W32052   6.294   2.748  19.623  0.3689 -0.0929  0.1610
89000W        W32053   3.094   0.752   9.098 -0.0157 -0.3075 -0.0364
89001W        W32054  12.523  31.165   6.736  0.0478  0.0398 -0.0612
89002W        W32055  33.091  30.602   7.789 -0.4563  0.1626 -0.0303
89003W        W32056  26.775   8.176   2.803  0.1473 -0.0145  0.1418
89004W        W32057  17.566  32.570   0.797  0.0197  0.1472 -0.2265
89005W        W32058  20.186  34.505  21.266  0.1282  0.0652  0.3622
89006W        W32059   9.291  29.229  18.279 -0.1204 -0.0208  0.2192
89007W        W32060  24.417  34.675   6.419  0.0969  0.0580 -0.0221
89008W        W32061   7.078   2.634   1.170 -0.1613  0.1387 -0.2734
89009W        W32062  26.440  12.379  24.339 -0.0248  0.0924 -0.2278
89010W        W32063  14.450   5.808   2.704  0.2816 -0.0007 -0.2269
89011W        W32064  11.128  29.184   5.889  0.0680 -0.0494  0.1189
89012W        W32065  16.747  17.254  28.906  0.0287  0.1054 -0.0613
89013W        W32066   2.739   6.805  28.488  0.2858  0.0669 -0.0102
89014W        W32067  16.918   3.971   0.242  0.1708 -0.0751  0.1181
89015W        W32068   4.769  14.177  28.241 -0.0785  0.0011 -0.2661
89016W        W32069  17.192  32.252   8.989 -0.0464  0.0461 -0.1461
89017W        W32070  22.741   3.328   5.778 -0.1566  0.1205  0.0262
89018W        W32071  20.407  22.034  27.506  0.2023  0.2357 -0.4576
89019W        W32072  32.836  20.539  21.860 -0.0197 -0.1854 -0.1517
89020W        W32073  13.567  11.300   2.370  0.2643  0.0646 -0.0570
89021W        W32074   4.548  24.288   8.736  0.0108  0.2436 -0.2885
89022W        W32075  34.608  26.264  28.525 -0.0323  0.1114 -0.0453
89023W        W32076  14.627  29.654   6.062  0.0071 -0.0064 -0.1587
89024W        W32077  11.594  13.819  18.590  0.0349 -0.2767 -0.2229
89025W        W32078  25.145  25.404   3.904  0.0184 -0.2129  0.2371
89026W        W32079  16.949  18.081   7.457 -0.1978 -0.0250 -0.0620
89027W        W32080  21.465  12.841  17.735  0.1230  0.0572  0.0178
89028W        W32081  11.746   5.224  17.851  0.5182  0.2792  0.1116
89029W        W32082  30.598   6.335   1.924 -0.0158  0.3174 -0.1994
89030W        W32083   6.055   0.808   5.866  0.3134 -0.0452 -0.0953
89031W        W32084   6.159  16.291  20.562 -0.1683  0.0423 -0.1602
89032W        W32085   7.860  21.044   8.612 -0.2269  0.0957 -0.0964
89033W        W32086  11.541   7.983  25.162 -0.1905 -0.0454 -0.0547
89034W        W32087   9.028  32.216  26.677 -0.0155  0.0420 -0.1554
89035W        W32088   1.952  19.495   1.113  0.4630  0.1880 -0.3965
89036W        W32089   6.742  32.462  22.451 -0.0243  0.1158  0.0811
89037W        W32090  25.330   4.990   7.087 -0.2120  0.0960 -0.2619
89038W        W32091  13.550   6.180   1.571  0.1058  0.0623  0.3214
89039W        W32092  12.372  27.179   9.055  0.2545  0.2130 -0.0685
89040W        W32093  20.485  24.109  28.389 -0.2843 -0.1259 -0.1049
89041W        W32094  19.476  34.417  18.238  0.0718 -0.1549  0.0660
89042W        W32095  18.647  32.436   8.551  0.0969 -0.0064  0.2024
89043W        W32096  11.667  32.880  26.326  0.0221  0.1011 -0.0087
89044W        W32097   4.962  19.865   9.548 -0.0037 -0.0131 -0.0593
89045W        W32098  18.790  27.813  17.975  0.1817  0.2852 -0.4395
89046W        W32099  21.305  22.527  27.244 -0.0016 -0.3556 -0.0234
89047W        W32100  25.180  25.931   6.425 -0.0465 -0.1586  0.3422
89048W        W32101  23.559  11.420  27.863 -0.1032  0.0832  0.1476
89049W        W32102  14.821   1.750  28.016  0.0698 -0.0172 -0.3007
89050W        W32103  28.397   3.186  10.142 -0.0136 -0.0803  0.0110
89051W        W32104  33.888  10.804   7.508 -0.2785 -0.0168 -0.0327
89052W        W32105  19.169  23.963  25.787  0.2326  0.0874 -0.0589
89053W        W32106  20.660   2.654  27.785 -0.0409  0.3465 -0.3088
89054W        W32107  12.755  32.253   8.992 -0.2781  0.2992 -0.1527
89055W        W32108  10.868  32.904   9.578  0.1034  0.1861  0.0298
89056W        W32109   5.269  24.912   5.122  0.4948 -0.0810 -0.2662
89057W        W32110  24.530  14.232   1.454 -0.2137  0.0546  0.1681
89058W        W32111  26.257   2.780   9.580 -0.0609  0.1579  0.2027
89059W        W32112   8.968   6.368   8.873  0.0499 -0.1899  0.0337
89060W        W32113  30.018   8.472  25.754  0.1960 -0.5345  0.0088
89061W        W32114  15.537   7.091   0.395 -0.0531 -0.0843  0.1338
89062W        W32115  18.872  10.941  10.177  0.3426  0.1089  0.1017
89063W        W32116  21.287  33.391   6.050 -0.1482  0.0145 -0.0468
89064W        W32117  15.397  12.968   5.060  0.0712 -0.1709 -0.1614
89065W        W32118  26.376   7.818  20.445  0.1974 -0.1524 -0.1906
89066W        W32119  13.111  34.573   0.104  0.4392  0.1847 -0.2909
89067W        W32120   4.980  18.350  17.247 -0.0531  0.1221 -0.0105
89068W        W32121  16.858  14.002   3.810 -0.1756 -0.0325 -0.2215
89069W        W32122   8.276  12.624  16.788  0.2250 -0.1973  0.1410
89070W        W32123  32.382  13.682   7.333  0.0531  0.1441 -0.1793
89071W        W32124  22.909   0.606  10.170  0.2618  0.1230  0.2917
89072W        W32125  26.390  18.820  23.357 -0.0778  0.0001 -0.1699
89073W        W32126  20.890   2.921  28.394  0.0836  0.2112 -0.0211
89074W        W32127  18.807  27.255   8.352  0.1580 -0.2332  0.1673
89075W        W32128  25.865   1.228   4.989  0.0396  0.0887  0.1122
89076W        W32129  29.124   2.028   4.754  0.2470  0.2741 -0.4891
89077W        W32130   9.128   6.807   9.147  0.3233  0.2265  0.2977
89078W        W32131   2.535  26.470   7.064 -0.1604  0.0585 -0.0269
89079W        W32132  27.445  14.274   9.573  0.2595  0.2935 -0.2415
89080W        W32133  18.988   1.421   5.707 -0.1149 -0.1117  0.0199
89081W        W32134  16.643   0.556  24.981 -0.0857 -0.0512 -0.0424
89082W        W32135  22.367  11.596   1.289  0.2449 -0.0269 -0.0398
89083W        W32136  20.642  15.395  22.540  0.1331 -0.1554 -0.2712
89084W        W32137   3.262  34.024   2.142 -0.1195  0.4416  0.0227
89085W        W32138   6.607  10.383   7.432  0.0275  0.0818  0.2620
89086W        W32139  26.811  28.965   7.018  0.0875 -0.0916  0.1062
89087W        W32140  20.784   3.780   7.451  0.0062  0.3600 -0.2188
89088W        W32141   9.639  28.868  27.500 -0.0012  0.0922 -0.1030
89089W        W32142   6.012  26.768   6.904 -0.5705 -0.1808 -0.3441
89090W        W32143  23.550   7.394  26.712  0.3177 -0.1446 -0.0713
89091W        W32144  20.573  21.378   3.431  0.2984  0.0418 -0.2139
89092W        W32145  26.829  32.303  21.174  0.0787  0.1333  0.1940
89093W        W32146   8.360   8.567   6.800  0.0369  0.1752 -0.2921
89094W        W32147  19.277   4.338   1.760 -0.2819  0.3812  0.0742
89095W        W32148  17.378  16.838   8.863  0.1314  0.1759 -0.2423
89096W        W32149  10.555  31.680  23.377  0.4499  0.1513  0.0953
89097W        W32150   5.442  31.279   8.490 -0.1020  0.3250  0.0613
89098W        W32151  31.471  10.520  10.855  0.0520 -0.0028  0.2352
89099W        W32152  32.204   3.494   8.071 -0.0489  0.1035 -0.0689
89100W        W32153  27.996   8.275   3.372  0.0384  0.2018  0.0666
89101W        W32154  30.069  12.345   4.895  0.1199  0.0454  0.1431
89102W        W32155  13.782  27.675   5.246 -0.0165  0.2536  0.2814
89103W        W32156  23.851   2.647   4.927 -0.1197 -0.0749  0.2773
89104W        W32157  17.539  21.152   6.376 -0.1622 -0.1349  0.0158
89105W        W32158  20.548  24.858   7.315  0.2065  0.5125 -0.0610
89106W        W32159   7.172  11.415   8.938  0.2674  0.2317  0.1327
89107W        W32160  17.787  32.379   8.818 -0.2696 -0.0431  0.1967
89108W        W32161   3.443   0.378   6.871  0.1240  0.4559 -0.0449
89109W        W32162  14.824  12.551   5.174  0.1385  0.1488  0.2947
89110W        W32163   6.833  17.323   6.817 -0.3824  0.1899 -0.0512
89111W        W32164  30.304  10.312   0.355  0.4643 -0.2260 -0.0045
89112W        W32165  19.052  31.972  28.057 -0.0119  0.0549  0.2209
89113W        W32166  11.709  29.727   3.295 -0.0554 -0.0379  0.1605
89114W        W32167  11.710   8.185   8.124 -0.2805 -0.1909 -0.2275
89115W        W32168  12.479   1.447   0.378  0.0634  0.0735  0.0847
89116W        W32169  20.571  13.307   6.792 -0.1874  0.1340 -0.1720
89117W        W32170  26.649   3.379   8.043 -0.0652  0.1795 -0.0270
89118W        W32171  31.883  26.660   0.022 -0.1339  0.1796  0.2147
89119W        W32172   2.561   8.256   1.317 -0.2544 -0.0180  0.4454
89120W        W32173  15.265   2.245   7.062 -0.3710 -0.1657  0.0728
89121W        W32174   9.065  34.601  18.362 -0.0519  0.0583 -0.1104
89122W        W32175  31.406   7.990  23.519  0.2272 -0.1297 -0.1641
89123W        W32176   9.918  14.747   9.044 -0.2909  0.0294 -0.2974
89124W        W32177   7.776  15.998   6.079  0.0757  0.1838  0.2591
89125W        W32178  23.490  32.071  22.984  0.4002 -0.0817  0.1933
89126W        W32179   7.998  27.486   6.758  0.2763  0.3162  0.0498
89127W        W32180  10.259   1.423   6.843  0.0981  0.0210  0.2505
89128W        W32181  13.464  31.645  22.756  0.1995 -0.2884  0.0431
89129W        W32182   3.381   9.109  29.124  0.1493  0.0348  0.0736
89130W        W32183   9.251   7.284   4.368  0.1589  0.0943 -0.2770
89131W        W32184  33.551   3.477  29.131  0.0693 -0.0923  0.2297
89132W        W32185   7.757  12.060   6.800 -0.1541 -0.0668  0.0562
89133W        W32186  10.509  28.117  26.559 -0.2380 -0.0386  0.0930
89134W        W32187  18.209  32.944   8.165 -0.0737  0.0728 -0.2327
89135W        W32188   7.790  18.213   6.513  0.1690 -0.1295  0.0273
89136W        W32189  11.431  26.801   5.858 -0.0540  0.0367 -0.0093
89137W        W32190   5.235  34.189   3.151 -0.0351 -0.1459 -0.1337
89138W        W32191   9.835  19.841   9.061 -0.1310  0.1288  0.0307
89139W        W32192  24.375  28.571   0.350  0.2677 -0.4521  0.0109
89140W        W32193   5.447  13.958  27.525  0.1306 -0.1916 -0.2746
89141W        W32194  25.179   8.376  28.329  0.1263 -0.0765 -0.1298
89142W        W32195   2.992  25.149   6.562 -0.1441  0.1392  0.1888
89143W        W32196   6.819   8.584   9.933  0.0715 -0.1890  0.0290
89144W        W32197  16.862  13.763   0.063 -0.3079  0.0382 -0.2786
89145W        W32198   7.829   8.852  10.722 -0.0075 -0.1498 -0.0062
89146W        W32199   9.370  18.096   2.915  0.2984  0.2507  0.1776
89147W        W32200  25.508   7.602   0.625 -0.2002 -0.0699  0.3260
89148W        W32201  20.461   1.109   0.778 -0.1916  0.0335  0.1772
89149W        W32202  12.123   3.707   9.214  0.1759  0.1427  0.1374
89150W        W32203  27.136   3.008   4.773 -0.1219  0.0311  0.2923
89151W        W32204  16.088  25.854   0.954 -0.1850 -0.0948  0.0791
89152W        W32205  21.990   9.770   0.360 -0.1578  0.1906  0.0402
89153W        W32206  27.160  13.087  10.181 -0.0020 -0.1666  0.0477
89154W        W32207  25.488  15.390   3.791 -0.1440  0.0526 -0.2601
89155W        W32208  24.569  26.591   2.139  0.0440 -0.0988  0.0982
89156W        W32209  17.076   6.945   2.277 -0.3619 -0.2440  0.2674
89157W        W32210   8.641  18.347  21.694 -0.0230  0.0479  0.1592
89158W        W32211   8.409   2.867  27.508 -0.1204 -0.2367 -0.3964
89159W        W32212   4.788  31.486   7.156  0.0873 -0.1745 -0.1095
89160W        W32213   3.198  34.641   9.674 -0.0571  0.2727 -0.0976
89161W        W32214  15.326  30.864  27.032 -0.2226 -0.0260 -0.3629
89162W        W32215  15.911  30.584  25.071  0.3545 -0.1390 -0.0457
89163W        W32216  14.735  13.259   6.487 -0.3635 -0.1285  0.2554
89164W        W32217  17.366   0.620   0.276 -0.3083  0.0815 -0.0474
89165W        W32218  16.684  34.074   8.973  0.0870 -0.0559 -0.1295
89166W        W32219  22.693  20.688   8.752  0.1181 -0.1278  0.2350
89167W        W32220  13.573  33.774  21.473 -0.1347 -0.1525  0.1165
89168W        W32221   8.842  29.285   4.753 -0.2412  0.0961 -0.1570
89169W        W32222  15.895  21.729   0.815  0.0954  0.1474 -0.0969
89170W        W32223  30.661  26.759   1.640  0.0425  0.0155 -0.0414
89171W        W32224  18.636   2.820   7.435  0.0124 -0.0330 -0.1500
89172W        W32225   5.061  21.971   6.876  0.3188  0.0095 -0.0560
89173W        W32226  13.523   9.144   4.164  0.0319  0.1844  0.0293
89174W        W32227  14.030  33.814   2.186 -0.4648 -0.0316 -0.1036
89175W        W32228  10.485   2.580   6.800 -0.1373 -0.0596 -0.0696
89176W        W32229  11.151  11.616   8.634 -0.1952 -0.1874  0.1489
89177W        W32230  25.966   0.217   2.441  0.4005 -0.0750 -0.3712
89178W        W32231  27.331   2.337   5.997 -0.1641  0.0187  0.0094
89179W        W32232  26.542  15.575   8.088  0.0937  0.4493 -0.2324
89180W        W32233  14.776   6.471   9.779  0.1414  0.2251  0.4409
89181W        W32234   5.607  22.204   7.202 -0.1170  0.0696 -0.2338
89182W        W32235  21.309  25.754  28.874  0.2426  0.2817 -0.0520
89183W        W32236   0.108   2.798   1.325 -0.2477  0.0205  0.2234
89184W        W32237  10.995  11.713  24.741  0.0922 -0.1895  0.0491
89185W        W32238   8.778  25.721   8.591  0.2073  0.0609  0.1615
89186W        W32239   3.381  12.611  26.176  0.0674  0.1056 -0.0379
89187W        W32240   9.206  30.444   2.860 -0.1459  0.0482  0.0168
89188W        W32241  15.910   8.807  10.578 -0.0196  0.1071  0.2060
89189W        W32242   8.333  20.311   6.964  0.0014  0.1765 -0.2164
89190W        W32243  12.353  20.108   0.873  0.0151  0.3989  0.0356
89191W        W32244  25.343   5.283   9.404 -0.0558  0.0538  0.0845
89192W        W32245   9.773   4.594  23.072 -0.0437  0.0316 -0.2234
89193W        W32246  10.618   3.591   8.404 -0.1259  0.1038 -0.0485
89194W        W32247  22.202   3.299   3.152 -0.0351 -0.0498  0.3819
89195W        W32248  10.952   7.759  17.364  0.0931 -0.1305  0.3283
89196W        W32249   9.325   9.472   1.882 -0.0131  0.0817  0.2338
89197W        W32250  16.695   1.055  27.060  0.2517 -0.0607  0.3912
89198W        W32251  26.337  14.688   8.053 -0.2489  0.3091 -0.3139
89199W        W32252  18.000   4.488   7.907 -0.0480 -0.1458  0.1931
89200W        W32253  15.490   1.007   7.663  0.0274 -0.1723  0.2350
89201W        W32254  21.168   1.207   2.016  0.0341  0.0600 -0.0746
89202W        W32255  21.064  33.906   2.276 -0.2663  0.1715  0.1690
89203W        W32256  16.518   3.751   7.143 -0.1189 -0.2862 -0.0181
89204W        W32257  21.530  12.828  16.177  0.0219  0.1805  0.0184
89205W        W32258  29.005  10.666   1.732  0.3879  0.0673  0.0501
89206W        W32259  13.867  33.446   9.964 -0.0362 -0.1092 -0.0651
89207W        W32260  18.436   1.081   7.311 -0.1810 -0.0715 -0.0495
89208W        W32261  14.752   7.118   6.749  0.0938 -0.0838  0.0460
89209W        W32262  32.615  34.540   9.405  0.2738 -0.0765  0.1558
89210W        W32263  29.534   0.171  19.454 -0.0461 -0.0516 -0.2177
89211W        W32264  10.372  32.696   1.199 -0.2089 -0.0096 -0.2786
89212W        W32265  10.207   7.065   9.966 -0.5660  0.0024  0.1643
89213W        W32266   1.365   0.706   7.469 -0.1512 -0.1740  0.0351
89214W        W32267  26.191  33.269   6.648 -0.1494  0.0342 -0.0596
89215W        W32268   0.025  17.085   3.128  0.0576  0.1216  0.4461
89216W        W32269  20.031   1.012  25.285  0.3292 -0.1134 -0.2606
89217W        W32270   4.186  25.781  27.332  0.2527 -0.0422 -0.0812
89218W        W32271  12.901   9.522   6.068  0.0198 -0.1213 -0.2598
89219W        W32272   6.903  13.581   2.716 -0.1928 -0.3359  0.2325
89220W        W32273  22.535  25.780  21.703 -0.1350 -0.2068  0.0177
89221W        W32274   7.078  29.548   2.701  0.1746 -0.0918 -0.2381
89222W        W32275   3.065  32.459   7.613  0.1782 -0.0012 -0.2937
89223W        W32276  18.374  27.252   5.070 -0.2082 -0.0937 -0.0741
89224W        W32277  25.072   5.058   3.787 -0.0638  0.1606 -0.0796
89225W        W32278   0.289   3.800   2.803 -0.0424  0.2634 -0.0425
89226W        W32279  17.221  15.697  24.595 -0.1885 -0.4356  0.3005
89227W        W32280  10.129   9.676  11.671 -0.0420 -0.0089 -0.0121
89228W        W32281  21.404   1.805  10.578 -0.2714  0.1838  0.0437
89229W        W32282  13.815  17.629   2.910  0.1184  0.2947 -0.3417
89230W        W32283   0.130   0.124  27.131 -0.2756 -0.0388 -0.0205
89231W        W32284  13.464  21.359  27.022  0.3328  0.1822 -0.3913
89232W        W32285  17.160  31.726  28.680  0.1161  0.4520  0.1391
89233W        W32286  15.144   0.009   9.620  0.1559 -0.2864  0.1103
89234W        W32287  26.068  12.749  10.439 -0.0486  0.2714  0.0040
89235W        W32288   9.889  32.219   8.009  0.5396 -0.3569 -0.1079
89236W        W32289  22.648  26.440   3.049 -0.1512  0.0221 -0.1505
89237W        W32290   6.029  34.103   9.867 -0.1810 -0.0728 -0.1544
89238W        W32291   9.142   2.494   8.342  0.5111  0.1749  0.0358
89239W        W32292   3.130  13.721   7.742  0.1036 -0.4892 -0.1743
89240W        W32293   3.922  34.218   5.281 -0.0429 -0.0242  0.1310
89241W        W32294  24.191  34.089   4.516  0.1756  0.0577 -0.0467
89242W        W32295  23.309  20.466   7.185  0.0443  0.1551 -0.2441
89243W        W32296  25.884  21.104   7.273 -0.1872  0.0311  0.1630
89244W        W32297  14.004  21.908  26.356 -0.0413  0.0764 -0.0095
89245W        W32298  24.927   4.101   8.305  0.1798 -0.0661 -0.2591
89246W        W32299  26.162  30.091  24.967  0.2590 -0.0659 -0.2788
89247W        W32300  15.452   8.668   2.984 -0.0120  0.2999 -0.0656
89248W        W32301  19.063   1.530   8.519 -0.2020 -0.3387  0.4891
89249W        W32302  30.169   0.489   8.069 -0.0554  0.4028  0.2876
89250W        W32303  14.117  12.794   2.806 -0.0692 -0.1523 -0.0912
89251W        W32304  10.616   1.047   0.756 -0.2530 -0.2066  0.2026
89252W        W32305   8.844  26.756  18.555 -0.1380 -0.3459  0.2749
89253W        W32306  15.143   8.718   1.955 -0.0040 -0.1229 -0.3125
89254W        W32307  32.000   6.961   7.135 -0.0235  0.1409 -0.0484
89255W        W32308  27.702   4.658  26.912  0.1474  0.4138  0.2363
89256W        W32309  20.417  32.366   9.003  0.1534  0.0825  0.2888
89257W        W32310  33.231  25.459   8.552  0.2486  0.0394 -0.0080
89258W        W32311  15.240   2.756   0.294  0.1017 -0.0589  0.2988
89259W        W32312   9.486  27.782   7.051 -0.0052  0.1450 -0.1259
89260W        W32313  20.401   9.900   7.365  0.0928  0.0268  0.2995
89261W        W32314   9.058  11.471   7.288  0.3304  0.0274 -0.0841
89262W        W32315  19.334  30.342   5.276 -0.0522  0.1488 -0.0652
89263W        W32316  21.540  22.088  25.839 -0.1961  0.4812  0.2252
89264W        W32317  10.628  14.076  27.948  0.0961  0.2349  0.0730
89265W        W32318  12.070  26.760   5.963 -0.0290  0.3244  0.0034
89266W        W32319   9.663  17.709   5.359 -0.0440  0.0277 -0.3161
89267W        W32320  17.586  25.886   7.573  0.2333 -0.1966 -0.0429
89268W        W32321   9.245  28.680  23.281 -0.0467  0.0745  0.1168
89269W        W32322  14.421  28.434  14.321 -0.1913 -0.1326  0.0932
89270W        W32323   6.993  10.060   5.179 -0.0826 -0.0492  0.2872
89271W        W32324  14.246   6.194   8.106 -0.0353 -0.0536 -0.0731
89272W        W32325  27.484   7.286   5.253 -0.2026 -0.0892  0.1154
89273W        W32326  12.409  25.078  28.062  0.4020 -0.0086  0.1475
89274W        W32327  12.227  29.920   5.381  0.3757  0.1671  0.1781
89275W        W32328   5.880  30.797   7.283  0.0774  0.0671 -0.2637
89276W        W32329  15.215  15.752   8.579 -0.2240  0.3460 -0.1525
89277W        W32330  16.095  11.751  20.207 -0.1843 -0.1810  0.0355
89278W        W32331   8.972  12.569   5.050  0.0562  0.0283  0.1257
89279W        W32332  26.951  12.516  28.781  0.2800  0.0166 -0.1540
89280W        W32333   7.782  23.051   9.088 -0.0854  0.0850  0.1156
89281W        W32334  20.242   5.879   6.274 -0.1403  0.2532  0.1557
89282W        W32335   4.728  32.259  21.345  0.1205 -0.0362 -0.2289
89283W        W32336  16.832  25.673   9.838 -0.3144 -0.1679  0.0013
89284W        W32337   6.365  23.317   4.590 -0.2023 -0.1865  0.3702
89285W        W32338   1.879  15.374  18.512 -0.0079  0.3482 -0.0202
89286W        W32339   6.343   7.688   9.177 -0.0626 -0.3918 -0.1096
89287W        W32340   2.927  26.748   2.441 -0.0166  0.3222 -0.0855
89288W        W32341  14.838  34.426   2.282  0.1094 -0.1198 -0.0343
89289W        W32342  18.919  12.757   1.260 -0.0964 -0.1821 -0.0236
89290W        W32343   8.528  23.569   7.201 -0.0924  0.3116  0.1587
89291W        W32344  13.984   0.284  23.737  0.1895 -0.0015 -0.2769
89292W        W32345  13.515  32.845   9.499 -0.2233 -0.0243 -0.3138
89293W        W32346  14.714  12.769  28.275 -0.0582 -0.1405  0.2838
89294W        W32347   2.637  33.819   6.750 -0.1785 -0.0499  0.1578
89295W        W32348  16.168  13.704   4.958  0.2725 -0.1884 -0.1070
89296W        W32349  19.478  32.768  25.539  0.1079  0.3031  0.1547
89297W        W32350  18.761   4.119  27.462 -0.1305 -0.3138 -0.0835
89298W        W32351  21.511  16.807   5.211 -0.2237  0.0801 -0.2011
89299W        W32352  26.310  33.405  26.825  0.0324  0.2311 -0.2422
89300W        W32353   6.411   8.082   3.799  0.1288  0.2799  0.3990
89301W        W32354  17.001   9.681  26.466  0.2143  0.1323 -0.2596
89302W        W32355  10.541  22.899  26.907  0.1938  0.2050  0.1052
89303W        W32356   4.071   4.382  24.580  0.0135 -0.2183 -0.0518
89304W        W32357  19.518  10.731   7.356 -0.1848 -0.6440  0.0271
89305W        W32358   9.086  32.945   9.220  0.0250  0.2191 -0.0100
89306W        W32359  11.631  23.686   0.207  0.0284  0.1527  0.0989
89307W        W32360  32.109   5.244  23.827  0.0848 -0.0039  0.3842
89308W        W32361  26.469  27.948  27.151 -0.1302 -0.0636 -0.1309
89309W        W32362  13.723   7.227   8.507 -0.0612  0.2837 -0.1823
89310W        W32363  34.046   8.045  19.719 -0.0116  0.0233  0.4142
89311W        W32364  24.983  11.310   7.955 -0.3507  0.0483 -0.0699
89312W        W32365  16.115   7.069   5.518 -0.0084  0.1627 -0.0379
89313W        W32366  18.432  13.986   2.045 -0.2601  0.2219  0.0534
89314W        W32367  21.090   7.920  28.544  0.1159 -0.2167  0.1787
89315W        W32368  11.627  31.691   6.084 -0.1280 -0.1349  0.0544
89316W        W32369  30.869   7.460   3.053 -0.0245  0.1128 -0.1472
89317W        W32370  17.480  11.932  28.649 -0.0868  0.0900  0.0419
89318W        W32371  25.668   8.722   9.509  0.4007 -0.0014  0.0388
89319W        W32372  13.446   7.729   7.645 -0.1109 -0.1860  0.0786
89320W        W32373  19.319   1.265   3.091 -0.1320 -0.1040  0.1440
89321W        W32374  11.963  13.139  26.602  0.3391  0.0336 -0.1456
89322W        W32375   1.208  22.336  18.699  0.1421 -0.0947 -0.1695
89323W        W32376  16.597  27.582   0.632  0.1256 -0.0553 -0.3920
89324W        W32377  12.091  30.302   2.617  0.0328 -0.2368 -0.2165
89325W        W32378   7.355   5.924   3.849  0.0078 -0.0962 -0.1563
89326W        W32379  25.596   6.078  24.450  0.0270  0.3329  0.0838
89327W        W32380  13.826   3.411   7.910  0.1489  0.1288  0.2895
89328W        W32381  20.903  28.250   1.952  0.1287  0.2282 -0.1643
89329W        W32382   8.168   3.864  28.710  0.0442  0.0397 -0.0317
89330W        W32383  28.715  28.425   8.352 -0.1266 -0.0118 -0.1117
89331W        W32384  12.019   8.246   5.058 -0.1710  0.2560  0.2060
89332W        W32385   3.369   5.702   4.720  0.0489  0.1930 -0.0589
89333W        W32386  27.451  11.839  29.185  0.2309 -0.1650  0.1243
89334W        W32387  16.805  10.611   9.528 -0.1523  0.2230 -0.3890
89335W        W32388  24.028  25.905  29.199 -0.1898  0.0038 -0.2033
89336W        W32389  16.964   9.465   0.519 -0.1493  0.3877  0.2011
89337W        W32390   1.518  28.012   6.782  0.0025  0.0486 -0.3899
89338W        W32391   6.637  34.188   2.722 -0.2884 -0.0283  0.1048
89339W        W32392  22.042  27.048  21.836  0.4321  0.0621 -0.1242
89340W        W32393  12.690   2.980   7.604  0.1311  0.2267  0.0582
89341W        W32394  13.855  10.967   6.348  0.1078 -0.0972  0.1262
89342W        W32395  22.303  21.598  17.145 -0.0387 -0.3338  0.1506
89343W        W32396  25.999  27.951  10.193 -0.0253 -0.2068 -0.2031
89344W        W32397  29.387  27.765   7.033  0.2638  0.2787 -0.2352
89345W        W32398   5.758   1.877  28.719  0.1598  0.0930  0.2457
89346W        W32399  14.579  31.903   0.508  0.0019  0.1059 -0.1257
89347W        W32400  17.422  23.724  24.712 -0.2348 -0.2506  0.2324
89348W        W32401   9.911  18.885  26.288 -0.2075  0.0124  0.2100
89349W        W32402  20.769  12.418   4.439 -0.0028  0.1892  0.0555
89350W        W32403  12.334  10.080   7.458  0.0348  0.0453  0.2500
89351W        W32404  25.809   6.897   6.085 -0.0896  0.2745  0.0972
89352W        W32405   3.162  18.460   9.672  0.6590  0.1053 -0.0954
89353W        W32406  34.534   7.676   4.789  0.0005 -0.3386  0.0312
89354W        W32407  12.612   5.643   1.766  0.1281  0.1070 -0.3001
89355W        W32408  14.061  21.668   8.837 -0.1426  0.0326 -0.0861
89356W        W32409  24.403   6.994   4.631 -0.4065  0.0006 -0.2631
89357W        W32410   9.861   7.091   5.158 -0.0831  0.0422  0.3905
89358W        W32411   9.630  18.408   3.650 -0.0159 -0.0647 -0.0423
89359W        W32412   5.464  19.862  27.374  0.0080  0.0194 -0.4687
89360W        W32413  14.482  20.392  10.077 -0.3248 -0.1999  0.1673
89361W        W32414   6.644  34.455   5.920 -0.0177 -0.1831  0.0796
89362W        W32415  23.915  12.045   2.775  0.2786  0.3102 -0.2205
89363W        W32416  14.610  33.450   4.546 -0.2584  0.3122  0.1128
89364W        W32417  15.913  32.421   9.139  0.0603 -0.0154  0.0191
89365W        W32418  21.515   9.548  22.119  0.0206  0.1798 -0.1246
89366W        W32419  23.228  11.729  25.298 -0.0349  0.1127  0.0440
89367W        W32420   4.552  14.572   5.363 -0.1062  0.0658  0.1802
89368W        W32421   5.111   4.631  28.935 -0.2953 -0.3110 -0.1019
89369W        W32422   8.144  33.482   9.137 -0.2614 -0.0180 -0.1138
89370W        W32423  14.955   5.623  16.260 -0.0767  0.0826 -0.1686
89371W        W32424   6.294  18.482  28.022 -0.1326  0.1041 -0.1085
89372W        W32425   8.508  14.171  25.606 -0.1716 -0.0717 -0.0015
89373W        W32426  22.261   7.155   0.133  0.1821  0.2039  0.3926
89374W        W32427   8.268   2.553   6.591  0.3178 -0.2137 -0.0556
89375W        W32428  21.161  31.125   6.431 -0.0365  0.1467 -0.4072
89376W        W32429  32.514  23.212  28.578 -0.1140 -0.1520  0.0068
89377W        W32430  17.707  16.432  27.934 -0.0091 -0.2023  0.3142
89378W        W32431  14.745  17.717   4.108  0.2575  0.2539  0.1123
89379W        W32432  17.521  10.837   1.700  0.1293  0.2313  0.0986
89380W        W32433   9.269  28.521  26.658 -0.4122  0.0265  0.3832
89381W        W32434  18.253   5.796  24.447 -0.4572 -0.3583  0.2217
89382W        W32435  12.346   3.980   5.947 -0.0880  0.1018 -0.1825
89383W        W32436  10.386  14.581   1.017 -0.1540  0.0062  0.2230
89384W        W32437  23.630  17.173   7.721  0.2823 -0.1861  0.2613
89385W        W32438   1.336  12.218   9.558  0.0943  0.2354 -0.2195
89386W        W32439  10.344  12.548   2.816 -0.0294 -0.0097  0.0581
89387W        W32440  18.657  21.187   8.343  0.1001  0.1938 -0.4859
89388W        W32441  18.867  11.956   8.587 -0.2268  0.1320  0.0228
89389W        W32442  23.435  16.836  18.783 -0.2624  0.0429  0.1269
89390W        W32443  31.329  13.454   8.190 -0.2108 -0.0362 -0.1131
89391W        W32444   7.749  15.012  28.662 -0.0072  0.1717 -0.1729
89392W        W32445  19.318   3.006  27.039 -0.0413 -0.0819  0.0680
89393W        W32446   6.805  26.690   1.116  0.4726 -0.3143  0.1436
89394W        W32447   6.061   0.539   1.929  0.1601 -0.0645  0.0070
89395W        W32448  16.807   7.177   9.019 -0.0587 -0.0546 -0.1344
89396W        W32449  12.957   6.722   9.556 -0.2135 -0.3207  0.2777
89397W        W32450  32.384   2.128   4.406  0.0214  0.1155 -0.3688
89398W        W32451   4.402  12.716   4.456  0.1266  0.2793  0.1752
89399W        W32452   8.467  17.814   8.960 -0.1091 -0.1942 -0.2194
89400W        W32453   6.559  24.646  27.400  0.1446 -0.2153  0.2707
89401W        W32454  33.972  12.664  25.279 -0.0970  0.0720 -0.0723
89402W        W32455   4.170  24.079  26.878  0.1662  0.0152 -0.0157
89403W        W32456  23.720  12.399   3.004 -0.0198 -0.2054 -0.0432
89404W        W32457  16.599   6.345   8.040  0.0009 -0.1710  0.0497
89405W        W32458  11.358  11.438  15.033  0.0397 -0.1249 -0.4611
89406W        W32459  19.189   4.242  20.131  0.0880 -0.2664 -0.1867
89407W        W32460  15.839   9.877   3.577  0.2529  0.1201  0.0461
89408W        W32461  16.224   3.004   0.056  0.1436 -0.0751 -0.2515
89409W        W32462  10.255  29.349   7.389  0.0189  0.1844 -0.0657
89410W        W32463   9.560  13.694   8.149 -0.0775 -0.2599 -0.2494
89411W        W32464  20.965   5.166   8.812 -0.1342 -0.0653 -0.1628
89412W        W32465   9.721   4.989   6.664  0.0183 -0.1297 -0.0268
89413W        W32466  17.634  11.922   4.766 -0.2020  0.0136 -0.5457
89414W        W32467  20.246   2.709   1.851  0.1984 -0.1260  0.0913
89415W        W32468   2.272  11.853   4.279  0.0300 -0.1687 -0.2312
89416W        W32469  11.601   5.636  28.036  0.0079  0.0986  0.1102
89417W        W32470   8.498  16.598  21.304 -0.1743 -0.0594  0.0910
89418W        W32471  33.698   6.233   6.319 -0.2571  0.0538  0.2360
89419W        W32472  15.169  29.909   9.552  0.1016  0.0735 -0.1181
89420W        W32473  32.591   9.078  28.580 -0.1251 -0.2114  0.0374
89421W        W32474  29.872   5.454  28.356  0.0126 -0.0619 -0.3553
89422W        W32475  26.944   3.870  28.258 -0.1832  0.1223  0.1316
89423W        W32476  20.789   2.034   8.958 -0.0797 -0.0577  0.3103
89424W        W32477  22.178  27.510   7.260 -0.2500  0.0001  0.0325
89425W        W32478  34.066   5.577  22.993 -0.0849 -0.5873  0.3014
89426W        W32479  13.552  11.197  17.095 -0.0160  0.0715  0.4730
89427W        W32480   6.429   8.864  10.041  0.0361 -0.3222  0.0657
89428W        W32481  22.562  11.658  28.126  0.1511  0.2793  0.4248
89429W        W32482  10.338  10.317   7.750  0.0224 -0.0707 -0.2586
89430W        W32483   8.328   7.599   9.125  0.3924 -0.2036 -0.3435
89431W        W32484   8.285  26.017   7.349 -0.3180  0.0926  0.2117
89432W        W32485  12.153  26.090   0.637  0.1527  0.1571 -0.0137
89433W        W32486  19.543  31.807  10.807 -0.1245 -0.0978 -0.2471
89434W        W32487  13.991  15.556   1.464  0.0505  0.1277 -0.2413
89435W        W32488  22.877  21.845   7.748 -0.3738 -0.0226  0.0245
89436W        W32489  26.309   3.026   1.806  0.3346 -0.2681 -0.1106
89437W        W32490   6.163  24.689   3.899  0.0415 -0.1714  0.0884
89438W        W32491   1.692  22.449  25.135 -0.2123 -0.0129  0.0607
89439W        W32492  17.044  11.144  13.981 -0.2394  0.1688 -0.1041
89440W        W32493  21.717  13.698   8.042 -0.2612 -0.1617  0.1625
89441W        W32494  24.281  27.252  28.926  0.0276  0.2051  0.2089
89442W        W32495  16.191   2.046   8.251  0.0930  0.0510 -0.2239
89443W        W32496  22.588  11.939   2.572 -0.2059 -0.1653  0.2061
89444W        W32497  18.588   6.918   3.541 -0.0818  0.1343  0.0791
89445W        W32498  20.619  21.029   7.025  0.0189 -0.0469 -0.2446
89446W        W32499  13.483   5.221   4.758 -0.1441 -0.0345 -0.0081
89447W        W32500  12.593  14.792   9.883 -0.2546  0.4396 -0.1669
89448W        W32501  13.980  15.997   5.684 -0.0142  0.1718  0.2865
89449W        W32502  19.097  14.938   7.646 -0.1643  0.2980  0.1508
89450W        W32503  23.151  17.766  29.154  0.0383  0.0427  0.1876
89451W        W32504  13.191  28.156  23.847  0.2118 -0.1011  0.0954
89452W        W32505  10.737  32.114   9.210 -0.1473  0.1506  0.0019
89453W        W32506   8.197   5.777   4.681 -0.0466 -0.0121 -0.2433
89454W        W32507  18.137   3.585   7.413  0.2240  0.0598 -0.0869
89455W        W32508  10.765   0.894  10.642  0.3384  0.0743 -0.2057
89456W        W32509  23.302  13.538  24.894  0.3580 -0.0699  0.0233
89457W        W32510  29.823   4.339   8.286  0.0084  0.1033  0.1756
89458W        W32511  23.272   4.728   5.908 -0.0178 -0.0732  0.1274
89459W        W32512  25.509   8.273  20.196  0.0845 -0.3867 -0.2508
89460W        W32513  24.000  11.914  22.952  0.0243  0.0458 -0.0305
89461W        W32514   2.060  25.256  25.881  0.1506  0.1398  0.0138
89462W        W32515  16.237  11.992  20.743 -0.0798  0.3409 -0.1791
89463W        W32516  14.113   9.571   3.408  0.0130 -0.0806  0.3251
89464W        W32517  15.792  11.415  25.766  0.2404 -0.0478  0.0364
89465W        W32518  19.085   0.322   5.001 -0.2266 -0.0126  0.1341
89466W        W32519   6.981  14.864  22.460  0.2375 -0.0748  0.2616
89467W        W32520   6.633   1.150   8.941 -0.0834  0.2808 -0.0348
89468W        W32521  12.545  18.704  14.036 -0.2456 -0.1079 -0.1314
89469W        W32522  14.425   8.556   2.811  0.0667 -0.0874 -0.2810
89470W        W32523  34.639  12.066  21.129  0.0227  0.0375  0.1271
89471W        W32524  17.108   4.892  17.837 -0.2676  0.0057 -0.1104
89472W        W32525   8.895   9.269   4.120 -0.0811 -0.1609 -0.0214
89473W        W32526   7.131   5.873  26.443 -0.1848  0.1744  0.2742
89474W        W32527   3.962   8.416  24.324 -0.0554  0.1522  0.2918
89475W        W32528  25.927  16.949  20.995 -0.1013 -0.5327 -0.1126
89476W        W32529  24.916  18.574  20.975 -0.2827  0.2538 -0.3297
89477W        W32530  33.507   5.658  25.472  0.0627  0.0125 -0.0568
89478W        W32531  10.111  24.160   9.160 -0.0518  0.0931  0.2995
89479W        W32532  12.701  16.788   4.542  0.1409 -0.0876 -0.1265
89480W        W32533  18.094   9.369  23.597  0.4004  0.1587  0.0620
89481W        W32534  20.329  11.512  14.491  0.0795  0.3766 -0.0900
89482W        W32535  11.819   2.039  21.626 -0.0051  0.0245 -0.1445
89483W        W32536  16.195  11.255   7.720 -0.4173  0.2023 -0.0048
89484W        W32537  16.472  16.027  26.210 -0.1357 -0.2779 -0.0474
89485W        W32538  19.665   2.391  14.376  0.0039 -0.1103 -0.2809
89486W        W32539  13.242   3.046   7.640 -0.1575  0.2664  0.1072
89487W        W32540   5.391  13.357   9.015  0.1022 -0.0956 -0.0753
89488W        W32541  11.885  18.046   3.126  0.1579  0.3394 -0.0857
89489W        W32542  11.177  13.606   0.790  0.0972  0.2705  0.3051
89490W        W32543  28.745   9.765   9.592 -0.2560 -0.0228 -0.0753
89491W        W32544  19.923  26.917  20.264  0.3273  0.1737 -0.1448
89492W        W32545  15.760  25.114   9.009  0.0102  0.1909  0.1060
89493W        W32546  11.802  17.182  15.992 -0.0298  0.2092 -0.2304
89494W        W32547   3.975  10.451   4.591 -0.1775  0.0429  0.2774
89495W        W32548  16.957  13.731   6.380  0.1359  0.2741  0.0663
89496W        W32549  11.601  31.063  25.220  0.1543  0.0891 -0.1270
89497W        W32550  21.893  11.941  20.034 -0.0078  0.2433  0.0906
89498W        W32551  28.795   0.361   1.806  0.4626  0.0852  0.0747
89499W        W32552  31.111  20.548  26.212  0.1507 -0.1218  0.3650
89500W        W32553  10.828  17.320   8.151  0.1111 -0.0567 -0.0534
89501W        W32554  24.174  26.310  25.285 -0.1048 -0.0784  0.2849
89502W        W32555  21.834   2.854  21.281  0.0150 -0.1374 -0.0089
89503W        W32556  12.488  18.527  28.524  0.3378  0.1183  0.0929
89504W        W32557  12.869  10.550   6.065 -0.0563 -0.1802 -0.0492
89505W        W32558  18.835  20.518  15.960 -0.0630 -0.2825  0.0510
89506W        W32559   9.071  26.873  16.262 -0.1671 -0.2565  0.1411
89507W        W32560   3.865   3.306  25.563 -0.0274 -0.0077 -0.1279
89508W        W32561   6.209   9.142   4.636  0.0025 -0.2097 -0.0483
89509W        W32562  29.784  10.162  23.046  0.1594  0.2809 -0.0074
89510W        W32563   0.916  19.548   2.027  0.1193  0.2939 -0.4792
89511W        W32564  21.997  15.569  16.296 -0.3040  0.2065  0.1508
89512W        W32565  16.277   4.906   8.952  0.1793  0.0749 -0.1675
89513W        W32566   9.038  32.249  20.712 -0.0209  0.3195  0.3363
89514W        W32567  13.058  16.867   3.682 -0.1464  0.1327  0.1568
89515W        W32568   3.385  13.842   2.182 -0.1771  0.0666  0.2052
89516W        W32569   7.772  31.753   9.878  0.2347 -0.0861  0.0471
89517W        W32570  12.925  11.010   1.007  0.2613  0.1036  0.0568
89518W        W32571   3.031  14.974  24.085 -0.1411  0.0929 -0.2992
89519W        W32572  18.328  24.297   7.912 -0.0911 -0.2274  0.2072
89520W        W32573  10.174  14.147  27.007  0.3498 -0.0718 -0.2624
89521W        W32574  33.875  27.103  24.649  0.2792 -0.1225 -0.0638
89522W        W32575  21.342  14.071  10.011 -0.1300 -0.0790  0.1899
89523W        W32576   3.207   5.936   9.899  0.3388  0.1038  0.0406
89524W        W32577  16.817   7.358  18.662  0.0325 -0.2783  0.0124
89525W        W32578   6.615  17.377   7.353  0.2531 -0.1508  0.0032
89526W        W32579  12.140  16.173   8.433 -0.1192  0.1247  0.0796
89527W        W32580  32.053  17.655  27.401  0.0228  0.0648  0.0024
89528W        W32581  17.076   4.914   4.281 -0.1332  0.1752 -0.5231
89529W        W32582   6.288   1.678   7.564 -0.1275 -0.0039 -0.2283
89530W        W32583  17.794  12.032  18.639  0.0373 -0.0371 -0.0175
89531W        W32584   0.457   8.680   8.951 -0.2034  0.2783 -0.0895
89532W        W32585  10.306  30.829   6.874  0.2528 -0.0470 -0.2415
89533W        W32586  11.160  18.860  26.412 -0.0571  0.1157  0.0116
89534W        W32587   3.876  33.788   4.990 -0.1303  0.3166 -0.0590
89535W        W32588   8.863  24.999   0.773 -0.1561 -0.1499 -0.1139
89536W        W32589  14.514   4.322   3.647  0.0528  0.0113 -0.2365
89537W        W32590  13.591  20.750   3.591  0.1903  0.0888  0.0801
89538W        W32591  21.879  10.633   6.438 -0.0732 -0.3182 -0.2443
89539W        W32592  15.718  12.952  28.875 -0.0983  0.0795 -0.0990
89540W        W32593  18.410  11.791   1.393  0.3830  0.4009 -0.0534
89541W        W32594  29.144   8.679  10.460 -0.0178  0.3369 -0.0562
89542W        W32595   7.382  13.346   4.199  0.2185  0.1890 -0.1139
89543W        W32596  15.688  10.421   7.408  0.1747 -0.3503 -0.1063
89544W        W32597  26.423  21.020  21.046 -0.1666  0.3485 -0.0489
89545W        W32598  16.368   3.994   8.474 -0.5189  0.0061  0.0860
89546W        W32599   4.728  23.236   3.318  0.2534  0.4010  0.2036
89547W        W32600  22.907  15.388  18.567  0.0423  0.0636 -0.0557
89548W        W32601  20.560  11.471  18.547  0.0855 -0.0112 -0.0619
89549W        W32602   5.567   6.028  23.683 -0.1140  0.1865  0.0840
89550W        W32603   5.608   9.634   6.783  0.0657  0.3053 -0.2212
89551W        W32604  32.286   8.391  26.220 -0.1860 -0.0389 -0.2763
89552W        W32605  19.586  15.374   3.643 -0.2174 -0.2991 -0.2974
89553W        W32606  13.122  29.625  26.922 -0.0739  0.1924  0.1776
89554W        W32607   0.089  20.670  24.499  0.1791  0.2947 -0.1174
89555W        W32608   7.698   2.989   3.584 -0.1197  0.2689 -0.0378
89556W        W32609  20.366  21.272  18.742  0.1305 -0.0920  0.1345
89557W        W32610   3.570   6.773   9.676 -0.2104 -0.1020  0.3043
89558W        W32611  18.990  29.084   1.956  0.3679  0.2246  0.1511
89559W        W32612   0.166   0.923   7.815  0.3064  0.0003 -0.0435
89560W        W32613  27.281  13.565  10.317 -0.4149 -0.1929 -0.0932
89561W        W32614   8.135   4.678  10.835  0.1942 -0.0664  0.0672
89562W        W32615  14.709  33.555   1.181 -0.0589  0.3340  0.1145
89563W        W32616  33.181  17.018  27.461  0.3922 -0.1176 -0.3353
89564W        W32617   9.701   4.076  22.539  0.0921  0.0764 -0.1894
89565W        W32618  11.873   3.714   3.724  0.0885 -0.2582 -0.1969
89566W        W32619   8.154   9.880   7.286 -0.0433  0.1598 -0.0910
89567W        W32620  16.524  27.556   6.523 -0.1486 -0.0113 -0.0138
89568W        W32621  26.774  30.544   8.491 -0.0247  0.1846 -0.0284
89569W        W32622  23.264   5.469   5.377  0.4771  0.0833  0.1008
89570W        W32623  16.586   7.493   4.256  0.0264  0.2563  0.0354
89571W        W32624  13.831  13.790   4.248  0.1720  0.1197  0.0975
89572W        W32625  19.140  25.082  16.653 -0.4541 -0.1829 -0.0644
89573W        W32626   5.286  21.858  19.977 -0.0877 -0.2871 -0.1087
89574W        W32627   6.007   9.009   9.567 -0.6311 -0.1674 -0.2828
89575W        W32628  22.108   7.871   8.868 -0.0517  0.3109 -0.2829
89576W        W32629   7.896  19.686  13.979 -0.1751  0.1108  0.4132
89577W        W32630   6.955  30.051   2.355  0.0522  0.2355  0.0244
89578W        W32631  12.016  10.907  20.510  0.0388  0.1826  0.1834
89579W        W32632  17.524  29.388   8.978 -0.2810 -0.0841  0.1951
89580W        W32633   3.436  14.434  27.104  0.2230 -0.0645  0.1525
89581W        W32634   7.764   2.517  22.302  0.0063  0.1761  0.0921
89582W        W32635   8.748  14.131   9.962  0.0373  0.1331  0.0557
89583W        W32636  15.266  27.304   0.025 -0.2365  0.2620  0.0149
89584W        W32637  16.760   1.872  25.197  0.1160 -0.1104  0.0307
89585W        W32638  15.801  16.777  23.519 -0.0055  0.1598 -0.0978
89586W        W32639   2.567  16.197  17.125  0.0447 -0.0139  0.1365
89587W        W32640  18.948   8.745  16.447  0.2327  0.0640  0.0094
89588W        W32641  14.632  33.118  26.418  0.1822  0.0614  0.6402
89589W        W32642  28.250   6.577   9.080 -0.0650  0.0391 -0.0004
89590W        W32643   9.244   2.987  27.867 -0.0568  0.4419  0.0487
89591W        W32644   6.630  20.450  18.489 -0.1229 -0.2446 -0.1786
89592W        W32645  18.130  17.386  24.955 -0.0492 -0.1838  0.0319
89593W        W32646   1.371  31.838  24.038 -0.3077 -0.4096  0.0876
89594W        W32647  13.571  17.350   1.610  0.0190  0.3202  0.0421
89595W        W32648  15.943  34.203   7.167 -0.2663 -0.0469 -0.1125
89596W        W32649  19.906  13.443  19.251 -0.2025 -0.3864 -0.0548
89597W        W32650  29.082  14.441  26.040  0.2701  0.0168  0.0340
89598W        W32651  10.125  13.838  18.061  0.2343  0.1402  0.0587
89599W        W32652  11.893  29.385   1.252  0.2244 -0.0047  0.2748
89600W        W32653  28.874  29.812   4.204  0.1657  0.1701  0.3392
89601W        W32654  13.135   2.782   9.662  0.0041 -0.3888 -0.1544
89602W        W32655   3.759  12.331  28.972  0.0544  0.2738 -0.2780
89603W        W32656  12.665   9.454  10.794 -0.0556 -0.1278 -0.0223
89604W        W32657  14.557  11.069   8.853 -0.2083 -0.1764 -0.0011
89605W        W32658  21.229  11.013  18.094 -0.1144  0.3471  0.3487
89606W        W32659  25.638  16.317   3.947  0.1569 -0.0182 -0.1216
89607W        W32660  21.143  14.211   1.717  0.3373 -0.2227 -0.1635
89608W        W32661   8.230   5.775  21.713 -0.0773  0.0803 -0.0103
89609W        W32662  14.907  16.703   8.351  0.1468  0.1886  0.2663
89610W        W32663   9.194  21.688   3.106 -0.0803  0.2235 -0.2907
89611W        W32664  29.210  15.159  25.063  0.0262 -0.0272 -0.5601
89612W        W32665  29.343   4.307  17.446  0.2240  0.2020  0.2103
89613W        W32666  11.620   2.319  28.228 -0.0255  0.1076 -0.0562
89614W        W32667  13.382   6.950   6.453  0.0435 -0.2623  0.1660
89615W        W32668  27.511   7.428   6.724 -0.3140  0.0384  0.0319
89616W        W32669  16.282  11.748   7.338  0.1810 -0.0606  0.2716
89617W        W32670   8.287  21.924   5.395 -0.2171  0.2347  0.0544
89618W        W32671  12.099   8.071   6.683  0.1303  0.0325 -0.0293
89619W        W32672  18.143  17.366  27.620  0.0446 -0.1307 -0.0443
89620W        W32673  33.136   2.516  22.617 -0.2640 -0.1176  0.0433
89621W        W32674  15.795   8.977  22.224 -0.0745  0.1771 -0.2845
89622W        W32675  33.075   2.869   1.234 -0.1340  0.4812 -0.1361
89623W        W32676  30.172  33.492  20.116  0.4881 -0.2137  0.4149
89624W        W32677  28.531   5.497  23.999 -0.1049  0.0854  0.1292
89625W        W32678   2.677   9.006   1.970 -0.1063 -0.1176 -0.1071
89626W        W32679   6.676   8.686   1.946 -0.0594  0.2358 -0.0821
89627W        W32680  21.280   0.897  16.180 -0.1337 -0.0691 -0.0405
89628W        W32681   2.219  10.146  21.365  0.0187 -0.0192 -0.0082
89629W        W32682  16.133   0.546   7.242 -0.1644 -0.3058 -0.0329
89630W        W32683   6.319  19.131   5.023 -0.0710 -0.1061  0.0035
89631W        W32684  17.166   4.262   8.552 -0.2198 -0.0271  0.0570
89632W        W32685  21.022   4.119  15.076  0.1665  0.0169  0.2558
89633W        W32686  34.448  27.284  21.107  0.3301  0.2829  0.2730
89634W        W32687   6.001   4.076  20.489 -0.1857  0.0801 -0.0228
89635W        W32688  13.890  17.569  27.979 -0.0524  0.2103 -0.1937
89636W        W32689  22.522   5.895   3.734  0.1607  0.0644  0.2939
89637W        W32690   4.141  33.609  29.059  0.1016 -0.3045 -0.2531
89638W        W32691  13.829  11.791   6.039 -0.2207  0.1206 -0.0991
89639W        W32692   1.736  33.416   9.144  0.0807 -0.0483  0.0121
89640W        W32693  16.719  10.712  10.316 -0.1864 -0.0343  0.0109
89641W        W32694   7.308   9.655   3.321 -0.1356  0.3149  0.1022
89642W        W32695  28.412  12.791   5.805  0.2387 -0.0539 -0.0037
89643W        W32696  19.655   9.001  28.954 -0.0213 -0.1620 -0.1496
89644W        W32697  15.283  33.660  23.477  0.0334 -0.1083  0.0081
89645W        W32698  18.789  21.638   1.907  0.2539 -0.2368 -0.3329
89646W        W32699  16.135  13.032   6.194 -0.1769  0.0537  0.1035
89647W        W32700  14.857  31.834   4.677 -0.0090  0.1707 -0.0145
89648W        W32701  12.161   1.294   2.394 -0.2302 -0.1085 -0.1280
89649W        W32702  31.929  28.487   1.612 -0.0852 -0.0190 -0.0157
89650W        W32703  33.495   5.006   1.677 -0.0603  0.1472 -0.1696
89651W        W32704  23.872  16.025  29.053 -0.0801  0.1790 -0.2110
89652W        W32705  13.976   8.154   6.394  0.0430  0.1831 -0.2685
89653W        W32706  10.495   9.580  28.571  0.1883  0.1290 -0.0151
89654W        W32707   2.631  23.364   5.951  0.1147 -0.2781 -0.1564
89655W        W32708   8.908   4.755   5.574 -0.0995  0.1473 -0.1260
89656W        W32709  14.767  13.348  15.169  0.0017 -0.1787 -0.0854
89657W        W32710  18.990  14.509   5.988 -0.1614  0.1158 -0.2332
89658W        W32711  31.343  10.159   2.042 -0.1107 -0.1628 -0.1379
89659W        W32712  31.084   7.533   9.231  0.1871  0.2191 -0.0099
89660W        W32713  11.661   7.767   4.361 -0.1868 -0.1646  0.0303
89661W        W32714   8.352   9.356  24.038 -0.2172  0.0842 -0.0250
89662W        W32715   6.566  22.994  23.370  0.0861  0.3770 -0.2504
89663W        W32716  23.863  21.649   2.958 -0.2028 -0.0316 -0.1400
89664W        W32717  16.962  10.564   5.982  0.3678  0.0407 -0.4136
89665W        W32718  17.281   6.570  23.191 -0.2825 -0.1662  0.3373
89666W        W32719  27.556   1.085  17.737  0.0837 -0.1938 -0.0869
89667W        W32720  27.534  34.007   5.947 -0.0441  0.1320 -0.0339
89668W        W32721   6.474  32.897   1.215 -0.3665 -0.3638  0.1053
89669W        W32722  19.116  30.777   9.976  0.1346 -0.0381 -0.1920
89670W        W32723  18.278   2.657   2.621  0.0717  0.1304  0.2245
89671W        W32724  14.319  22.960  27.899 -0.2501  0.0262 -0.0490
89672W        W32725  29.792   9.339  20.584 -0.1402 -0.1298  0.1043
89673W        W32726  30.080  27.610   9.524 -0.1796  0.0158  0.1021
89674W        W32727  16.782  11.078   5.441 -0.3977  0.2200 -0.2275
89675W        W32728   7.013  27.267  20.479 -0.1147  0.0486 -0.0537
89676W        W32729  21.045   5.142   7.154  0.3130  0.2715 -0.1369
89677W        W32730  21.309   3.138  27.644 -0.1360  0.0707 -0.3759
89678W        W32731  17.546  19.092   7.707  0.1360  0.2912  0.2246
89679W        W32732   5.761   6.547   7.058  0.0201 -0.1100 -0.0945
89680W        W32733   4.437   0.171  24.532  0.1404 -0.2132  0.0642
89681W        W32734   0.085  14.741   9.448  0.2608 -0.1666 -0.0390
89682W        W32735  11.608  12.690  15.666  0.2841  0.0364  0.0630
89683W        W32736  17.758  31.120  16.367  0.2272  0.1042  0.1695
89684W        W32737  22.553   6.302  22.307  0.1249 -0.0192 -0.4218
89685W        W32738  30.565  13.797   5.990 -0.1593  0.1872  0.2222
89686W        W32739   0.717  21.582  16.773  0.2184  0.0132 -0.0711
89687W        W32740  34.296  11.584  21.142  0.2354 -0.3455 -0.0011
89688W        W32741  13.099   9.811  25.796 -0.4359  0.4328  0.2134
89689W        W32742   8.619  26.026  13.980 -0.0410 -0.1444 -0.4237
89690W        W32743  18.110  13.492   3.738 -0.1113 -0.0119 -0.0593
89691W        W32744  20.820  11.910   5.640 -0.1081 -0.0214  0.1829
89692W        W32745  13.721   7.911   9.987  0.3912  0.0514 -0.0841
89693W        W32746  11.564   4.849   7.668 -0.0200 -0.0353 -0.0196
89694W        W32747  26.520  32.944  25.019 -0.0494  0.1298  0.2380
89695W        W32748   1.687   8.234   1.320  0.0814 -0.0080 -0.0259
89696W        W32749  11.318  11.588   9.807 -0.2183  0.1040 -0.1318
89697W        W32750  14.183  33.932  16.090  0.3588  0.0493 -0.1080
89698W        W32751  12.214  17.537  28.979 -0.1784  0.0598  0.1339
89699W        W32752  28.576  27.492   4.287 -0.1796 -0.1597 -0.0668
89700W        W32753  20.030   8.013   6.491 -0.0952  0.2035 -0.0357
89701W        W32754  30.452   5.916  22.903 -0.1685  0.1461  0.3408
89702W        W32755  33.205   9.101  22.738  0.2052 -0.1808  0.0323
89703W        W32756   6.136  11.466  23.905 -0.0562  0.0938  0.2343
89704W        W32757  10.203  10.939  28.809  0.0724 -0.2176  0.5533
89705W        W32758  11.355  19.417   4.452 -0.1207 -0.2819 -0.2298
89706W        W32759   2.651   3.491  27.480 -0.0146  0.3718  0.1189
89707W        W32760  33.911  20.033   6.096  0.3289  0.0818 -0.0497
89708W        W32761  15.571  29.335  10.290  0.2933  0.1502 -0.2394
89709W        W32762   8.016  29.286   2.559  0.4366 -0.1488  0.2636
89710W        W32763  24.290  10.082   6.697  0.2820  0.0204 -0.0330
89711W        W32764  20.123   7.425  17.555  0.3453 -0.0170 -0.1866
89712W        W32765  21.303  19.343   9.685  0.0232  0.1066  0.2242
89713W        W32766   7.792  17.307   5.092  0.2476 -0.1088  0.2626
89714W        W32767   6.072  17.480   3.364  0.1079  0.3075  0.1283
89715W        W32768   2.322  13.944   3.380  0.2072  0.0741 -0.3316
89716W        W32769  30.065  34.417  27.803  0.3793  0.2067 -0.1242
89717W        W32770  23.644  12.382   2.474 -0.0635 -0.0196 -0.0298
89718W        W32771   3.171   1.684  24.800  0.1991  0.2073 -0.3429
89719W        W32772   8.858   2.559   9.973  0.0463 -0.1419 -0.0329
89720W        W32773   2.399  33.432  29.053  0.1381 -0.2739  0.0980
89721W        W32774   1.764  15.310  20.845  0.0351 -0.1437  0.1996
89722W        W32775  11.982  10.703   6.221 -0.3653  0.0748  0.1428
89723W        W32776  15.557  13.545  23.692  0.2133 -0.1569  0.0153
89724W        W32777  19.280  16.285  27.174  0.0569 -0.1159 -0.0521
89725W        W32778   5.758  13.740   1.128 -0.5823 -0.0026 -0.0427
89726W        W32779   1.566  11.285   3.793 -0.2297 -0.1533 -0.2843
89727W        W32780   3.373  10.989   5.994 -0.1249  0.0082 -0.0956
89728W        W32781  13.021   6.038   3.601  0.3472 -0.2180 -0.0104
89729W        W32782   4.527  16.862  27.879 -0.2250 -0.1606 -0.0198
89730W        W32783   9.865  22.822  26.212 -0.3879 -0.0863  0.3965
89731W        W32784  10.702  31.557  17.639  0.0743  0.0447 -0.1908
89732W        W32785   4.124  32.973  27.191 -0.1789  0.1430  0.0751
89733W        W32786   8.080  26.008  28.275 -0.0956 -0.1336 -0.0014
89734W        W32787  10.922  12.170   6.754  0.0523  0.0282  0.4200
89735W        W32788  10.454   5.762   5.130 -0.2330  0.1749  0.2739
89736W        W32789   9.663   5.676  28.172 -0.0251 -0.0922  0.1870
89737W        W32790   9.576  14.728  24.542 -0.0346  0.0551 -0.1115
89738W        W32791  24.856   4.834   3.069 -0.2145  0.1677 -0.0971
89739W        W32792   4.017   7.078  18.972 -0.0250 -0.1912 -0.2799
89740W        W32793   7.988  15.992   5.627  0.1375 -0.0487 -0.1944
89741W        W32794  25.398  10.574  21.498 -0.2041 -0.1072  0.1320
89742W        W32795  17.697   6.693  23.609 -0.1674  0.0119 -0.1056
89743W        W32796   3.292   0.090   0.791  0.1656  0.3745  0.2197
89744W        W32797   8.599  12.318  29.136  0.1156  0.0766 -0.1554
89745W        W32798   7.606   6.148  20.620  0.1315 -0.2350  0.0623
89746W        W32799  10.701   9.285   3.435 -0.2686  0.0069  0.0666
89747W        W32800  25.181  32.480   1.841 -0.0601 -0.0575 -0.0555
89748W        W32801   8.206  26.862   2.319  0.2918 -0.2034  0.2409
89749W        W32802   4.810  15.458   7.195  0.0906 -0.1870  0.0705
89750W        W32803  11.359  15.435  17.433 -0.0050  0.0514  0.0141
89751W        W32804  29.129   5.534  10.285  0.1379 -0.2582 -0.1179
89752W        W32805  22.352   8.941   3.780  0.1068 -0.2603 -0.1062
89753W        W32806   6.423  14.419  23.197 -0.0437  0.1406 -0.5096
89754W        W32807   1.665  20.743   2.504  0.1885  0.0962  0.1915
89755W        W32808  31.751  10.176  22.337  0.1232  0.0952 -0.0814
89756W        W32809   4.071  32.205  19.589 -0.5705  0.2344 -0.1068
89757W        W32810  13.438   8.011   4.933  0.0237 -0.3647 -0.0237
89758W        W32811  19.887   4.748  24.524  0.0402 -0.1659 -0.0938
89759W        W32812  31.006  32.955  14.146  0.0396 -0.0468  0.0111
89760W        W32813  16.380  18.517   3.407 -0.0451 -0.0690 -0.2132
89761W        W32814   6.829   9.477  24.355 -0.0673 -0.1991 -0.0208
89762W        W32815  29.496   7.582  25.387  0.3017 -0.0695  0.1219
89763W        W32816   4.437  13.970  27.111  0.0834  0.0593 -0.2562
89764W        W32817  15.293  16.492  26.575  0.1635  0.2608 -0.1902
89765W        W32818   9.420  18.672   6.430 -0.3824 -0.0875 -0.1239
89766W        W32819   5.436  17.493   1.414 -0.0149  0.0050 -0.1304
89767W        W32820  13.038  16.127   8.268  0.1249 -0.2199 -0.0617
89768W        W32821   3.534   2.492  24.270  0.1203 -0.1956 -0.1105
89769W        W32822  17.192   2.020  22.510  0.2277 -0.1704  0.2636
89770W        W32823  17.055   4.328   4.408 -0.1142  0.3535 -0.0979
89771W        W32824   2.739   3.310  22.684 -0.1297 -0.0878  0.2469
89772W        W32825  18.283  34.434   7.504  0.0996  0.1749 -0.3474
89773W        W32826  21.714  14.497  19.145 -0.1237 -0.1560  0.2053
89774W        W32827  18.350   7.322  16.100 -0.0604  0.1386  0.2391
89775W        W32828   2.735  31.795  17.149  0.1802 -0.2382  0.1053
89776W        W32829  13.934  24.765   9.046  0.2214  0.1106  0.0769
89777W        W32830  24.694   7.280   7.766  0.4049 -0.2588 -0.1549
89778W        W32831  25.054   5.521  28.720 -0.1512  0.2257  0.3001
89779W        W32832   8.750   2.901   5.988  0.1367  0.0287  0.0501
89780W        W32833  14.441  22.178  24.533  0.1159 -0.0263  0.0592
89781W        W32834  34.131  15.372   3.906 -0.1190 -0.2808 -0.2744
89782W        W32835  27.849   1.085   8.565 -0.0628 -0.0714 -0.0570
89783W        W32836   1.892  14.510   8.635 -0.3996 -0.1640  0.0185
89784W        W32837  16.913  18.466   1.708 -0.4001 -0.3742  0.1350
89785W        W32838   7.372  15.139   5.183 -0.0192 -0.1135 -0.1319
89786W        W32839  30.448  19.959   3.438  0.0349  0.1970 -0.0782
89787W        W32840  29.943   8.341   9.557  0.0963  0.0369  0.0932
89788W        W32841   8.931  29.616  23.099  0.0518 -0.1263  0.1954
89789W        W32842   8.250  19.817   0.854 -0.0331 -0.2139 -0.1396
89790W        W32843  21.993  29.644  28.527  0.0603  0.1715 -0.0816
89791W        W32844  11.213  14.029   1.114 -0.0301  0.0099 -0.0115
89792W        W32845  16.349  31.550   4.985  0.0442  0.0410 -0.0906
89793W        W32846  16.801  18.492   3.756  0.0396 -0.2385 -0.1470
89794W        W32847   6.561  14.280  26.049 -0.1887 -0.2209  0.0918
89795W        W32848  10.554   9.623  11.406 -0.0355 -0.2420  0.2234
89796W        W32849  26.340  20.612   9.212  0.0459  0.0269  0.2819
89797W        W32850   6.505  18.594   1.817  0.1362  0.0256 -0.2682
89798W        W32851   6.830  29.574  22.306  0.0628 -0.0223 -0.3385
89799W        W32852  21.048   1.487  23.781  0.0130  0.0083  0.0744
89800W        W32853  19.356  33.975  26.482 -0.0941 -0.1538  0.0621
89801W        W32854  33.258  27.109   6.565  0.2546  0.0292  0.1069
89802W        W32855  17.100   9.245   3.801  0.0934 -0.1779 -0.1316
89803W        W32856  10.722   7.346  22.224 -0.0638  0.1102 -0.1026
89804W        W32857  24.174  13.683  27.723  0.0512  0.1431 -0.1102
89805W        W32858  10.240  14.903  19.344  0.0504 -0.1054  0.1837
89806W        W32859   3.075  26.544  18.853  0.2151 -0.1824  0.0231
89807W        W32860  21.063   5.589   1.923 -0.0631  0.1490 -0.1519
89808W        W32861   2.726  13.942   9.075  0.2479 -0.0316  0.1720
89809W        W32862  17.084   7.137  10.402  0.1919  0.3211 -0.0413
89810W        W32863  12.847   0.471  21.971 -0.0356  0.0346 -0.2800
89811W        W32864   7.364  26.013   9.578  0.0239 -0.0096 -0.0686
89812W        W32865  17.410  33.328   1.369 -0.1726  0.5059  0.0299
89813W        W32866  22.923   6.524   0.420 -0.0176 -0.4173 -0.0944
89814W        W32867   3.252  13.074   5.595 -0.0386 -0.0281  0.1579
89815W        W32868   1.826   9.972   7.427 -0.1567  0.1491 -0.1530
89816W        W32869  33.172   9.879   9.632 -0.1731  0.1260  0.1509
89817W        W32870   9.032  13.182  11.338  0.0690  0.0089 -0.0215
89818W        W32871  20.819  25.696  16.190 -0.4394  0.0638 -0.3209
89819W        W32872   7.652   1.777   7.271  0.0536  0.0506 -0.3102
89820W        W32873   9.615  12.289  27.861 -0.2287 -0.1639 -0.1163
89821W        W32874   6.528  12.285  27.659 -0.0380 -0.0546  0.1084
89822W        W32875  24.082   6.781   7.926  0.0417  0.0048 -0.0220
89823W        W32876  12.916  27.848   9.596 -0.2353 -0.1336 -0.0621
89824W        W32877  30.165   4.749   0.904 -0.1191  0.2032 -0.1454
89825W        W32878  12.038   0.480  23.315 -0.1568  0.1256  0.0730
89826W        W32879   7.523  11.376   6.256 -0.0553 -0.3674  0.0050
89827W        W32880  10.160   7.859   6.994 -0.1617 -0.1291  0.1048
89828W        W32881   4.632  17.444  27.388  0.0986  0.3378 -0.1625
89829W        W32882  19.696   6.634  20.957 -0.1616  0.1052  0.3148
89830W        W32883  11.307  21.158  21.098 -0.0017  0.2042  0.0315
89831W        W32884   5.591   0.016   1.122 -0.0052  0.1287  0.2465
89832W        W32885   7.569  14.849  16.054  0.1419  0.2210 -0.1539
89833W        W32886   2.199  33.441   0.900 -0.0035  0.2675  0.0385
89834W        W32887  31.941   3.914  26.599 -0.2652  0.1981 -0.0336
89835W        W32888  10.238  17.109  25.811  0.0335 -0.0760  0.0673
89836W        W32889   2.169  29.710   1.713  0.2466 -0.1278 -0.0769
89837W        W32890   4.374  20.148  24.976  0.1504 -0.2347 -0.0380
89838W        W32891  31.019  14.873   5.437  0.2746  0.2917 -0.1631
89839W        W32892   8.863  12.203   9.300  0.4163  0.0229  0.4563
89840W        W32893  29.105  26.896   5.954  0.0392  0.0715 -0.0827
89841W        W32894  22.000  16.571   3.563  0.0716 -0.0372 -0.0753
89842W        W32895  18.647  28.134   1.287  0.1164 -0.1305 -0.1351
89843W        W32896   4.424  20.470  24.191  0.0563  0.0734  0.2598
89844W        W32897  12.543  11.108   9.288 -0.1324  0.2493  0.1226
89845W        W32898  34.644  16.906   0.237 -0.4977  0.2757  0.2555
89846W        W32899  11.431   2.827  25.741 -0.2403  0.1195  0.0541
89847W        W32900  19.674   2.780  14.792  0.1570 -0.0198  0.0720
89848W        W32901   9.986  34.395   4.796  0.0019  0.0467  0.0785
89849W        W32902   8.022  10.590   1.922 -0.1575 -0.2718 -0.0501
89850W        W32903  29.972  26.473  24.200  0.1464  0.3240  0.0729
89851W        W32904   9.275  12.020   9.377  0.0299  0.1000 -0.0002
89852W        W32905  22.158   4.292   4.756  0.1976  0.1641  0.1570
89853W        W32906  14.832  30.809   0.407  0.1823  0.2046  0.1577
89854W        W32907   6.771  30.762   0.824  0.0635  0.0070 -0.4060
89855W        W32908  21.043   4.680   8.846 -0.1523 -0.0410 -0.2436
89856W        W32909   1.591  25.925   1.671 -0.0417 -0.0645  0.0212
89857W        W32910  16.460  20.941  10.443 -0.1537 -0.0143  0.4194
89858W        W32911  19.423  29.927  27.038  0.1750 -0.1900  0.0874
89859W        W32912   0.339   2.351  27.623 -0.2094  0.1397  0.0842
89860W        W32913  18.844   0.386   3.462  0.0713  0.0553 -0.0374
89861W        W32914  12.062  31.681  10.265 -0.0617  0.2996  0.1296
89862W        W32915  15.727  17.713   5.072  0.3156  0.1870 -0.0304
89863W        W32916  15.125   8.611   6.792  0.2668 -0.4425  0.0967
89864W        W32917  21.927  30.331   0.857  0.3996 -0.1990  0.2022
89865W        W32918  13.781  16.449   5.024 -0.2890  0.0119  0.0582
89866W        W32919  18.295   8.422   6.990  0.2940 -0.1139  0.0532
89867W        W32920  15.463  30.924   1.895 -0.0477 -0.2705 -0.0124
89868W        W32921   4.167   9.218   4.735 -0.0426  0.1646  0.2341
89869W        W32922  13.777   5.413   7.582  0.2239 -0.2297 -0.2845
89870W        W32923  21.908   9.197  21.815  0.1410  0.2751 -0.1498
89871W        W32924  25.573  17.538   7.027 -0.2416  0.2701  0.2656
89872W        W32925  17.028  15.624  25.560  0.0863 -0.2620 -0.2588
89873W        W32926  14.595   2.160  24.016 -0.1357 -0.1992 -0.1478
89874W        W32927   6.291   4.228   0.004 -0.2314  0.0338  0.3067
89875W        W32928  15.204   1.965  17.843 -0.5299 -0.1151 -0.1544
89876W        W32929  13.639  10.380   8.693 -0.3364  0.1128 -0.0913
89877W        W32930   8.670  12.265   7.210  0.1513 -0.0374  0.2203
89878W        W32931  18.841  13.328  25.280  0.0391  0.4882  0.5354
89879W        W32932  24.922  12.156   6.697  0.2219 -0.1683 -0.0370
89880W        W32933  16.683  14.215   5.765 -0.1121  0.3196 -0.1192
89881W        W32934  20.112  10.138  24.490  0.0082 -0.5736 -0.0941
89882W        W32935  24.257  24.347  10.351 -0.0402 -0.3266 -0.3390
89883W        W32936   3.832  12.799   8.698 -0.2965 -0.0543  0.1744
89884W        W32937  13.460  33.236   3.317  0.2034  0.0318  0.1432
89885W        W32938   8.591  21.653   6.808 -0.1855  0.1753 -0.0307
89886W        W32939  25.657  23.355   6.567  0.0755 -0.0904 -0.3604
89887W        W32940  10.982  18.139   9.303 -0.0395 -0.1800 -0.0270
89888W        W32941  17.539  34.401   3.508  0.0607 -0.2716 -0.1128
89889W        W32942  15.143   7.510   9.768  0.0309 -0.0332  0.0983
89890W        W32943  17.341   8.782   6.986  0.0760  0.0615 -0.1056
89891W        W32944  22.000   9.405   1.448 -0.0891  0.0734 -0.0063
89892W        W32945  10.416   9.740  18.744  0.2105  0.0493 -0.0835
89893W        W32946  28.763  19.366  10.466 -0.1142 -0.2965 -0.2207
89894W        W32947   4.494   4.639   0.914  0.0034  0.0344 -0.0187
89895W        W32948  18.285  21.708   9.490 -0.0158 -0.1254 -0.0882
89896W        W32949   1.262   6.069   7.050 -0.1160 -0.7076 -0.2019
89897W        W32950  10.812  12.439  28.437  0.1270  0.2153 -0.1105
89898W        W32951  15.533  24.037  29.045 -0.0218  0.0891 -0.3829
89899W        W32952   1.327   3.102  22.242  0.2477  0.2962 -0.1867
89900W        W32953  13.160   8.893  23.716  0.1409 -0.0891 -0.0148
89901W        W32954  27.016   4.964  19.277  0.2395  0.3478 -0.0093
89902W        W32955   9.252  33.701  20.335  0.0893 -0.1602 -0.3591
89903W        W32956  28.478  18.525   8.471 -0.1416  0.0369  0.0788
89904W        W32957  16.764  20.500   1.647  0.0122  0.1564 -0.1638
89905W        W32958  25.958  32.382  14.697 -0.0021 -0.0145 -0.1720
89906W        W32959  11.271  11.238   5.356 -0.0365 -0.0154 -0.1238
89907W        W32960  16.224  12.951   7.184 -0.1412 -0.0159  0.1245
89908W        W32961  15.442  19.762   8.762  0.0710  0.1380  0.2108
89909W        W32962  25.531  16.330   8.376 -0.0892 -0.0065 -0.3280
89910W        W32963   3.054  16.508   4.775  0.2416  0.0196  0.0570
89911W        W32964   3.057   8.988   6.557  0.0842 -0.1247 -0.1381
89912W        W32965  13.467  15.330   2.172 -0.0600 -0.2958  0.3181
89913W        W32966  14.850  12.215  26.869 -0.4531  0.3156 -0.0198
89914W        W32967  18.833  15.131   5.455  0.2189 -0.1578 -0.1043
89915W        W32968  31.219  11.678  28.591  0.0419  0.0265  0.0370
89916W        W32969  13.730  14.031   5.182  0.0421  0.2539 -0.3594
89917W        W32970  16.921   8.541   6.764 -0.0639  0.0921 -0.0430
89918W        W32971  33.330   6.281  10.562 -0.2089 -0.3601  0.1464
89919W        W32972  13.404   0.414  25.097 -0.2435  0.3527 -0.0953
89920W        W32973  15.492  11.064  10.424  0.0619 -0.6894 -0.1825
89921W        W32974  11.234  11.265  11.625 -0.0141 -0.0042  0.1130
89922W        W32975   6.891   0.010  21.266  0.0293 -0.1856 -0.0509
89923W        W32976  28.589   2.232   8.695 -0.1234  0.0892 -0.0929
89924W        W32977  31.734  14.568   6.725 -0.0089 -0.0320 -0.1363
89925W        W32978   9.734  11.423   1.549 -0.2075 -0.0628  0.1829
89926W        W32979  23.206  21.655  27.515 -0.1235 -0.0375  0.1812
89927W        W32980  12.042  17.793   7.597 -0.0560 -0.1128  0.1190
89928W        W32981  18.186  29.894  20.939  0.0287  0.0145  0.1688
89929W        W32982   0.732  32.636   7.336  0.0353  0.2213  0.2256
89930W        W32983  33.459  13.948   8.645 -0.3093  0.0391 -0.1585
89931W        W32984  18.611  16.354  27.777 -0.3361  0.0043  0.1326
89932W        W32985   9.064  31.124   8.636 -0.1490 -0.0365 -0.1057
89933W        W32986  12.636  21.951  28.151  0.0508 -0.0731 -0.0947
89934W        W32987  18.323   3.857  10.833 -0.0240 -0.1836 -0.2919
89935W        W32988  28.516  18.873   1.695  0.0781 -0.0493  0.0898
89936W        W32989   3.353  33.446   0.073 -0.2156 -0.1042  0.1356
89937W        W32990  22.756  11.533   3.195 -0.2993 -0.0832  0.1177
89938W        W32991  10.664   6.850  25.679  0.1184  0.2984  0.1202
89939W        W32992   4.504   2.816   2.409  0.0010 -0.1623 -0.0273
89940W        W32993   1.816  28.865  18.399  0.0294 -0.0677  0.0693
89941W        W32994  17.034   7.882   5.058 -0.1743 -0.3106  0.1181
89942W        W32995  23.247  23.791  18.627  0.1977 -0.0706  0.0563
89943W        W32996   7.279  12.595  10.754  0.1970 -0.2181  0.0479
89944W        W32997  29.673  29.412   3.178 -0.2949  0.0554 -0.2101
89945W        W32998  27.224  30.343  10.031 -0.0611  0.0426 -0.0383
89946W        W32999   9.121   4.662   8.733  0.1771 -0.1699 -0.1253
89947W        W33000  33.471   6.924  21.285 -0.1951 -0.0336  0.2045
89948W        W33001   6.391  12.551   9.798  0.1116 -0.1899  0.1249
89949W        W33002  24.401   9.286   6.096 -0.1650  0.0335 -0.1149
89950W        W33003  12.052  14.568   2.908 -0.0074  0.0715  0.3347
89951W        W33004   6.012  14.570   5.328 -0.0897  0.1395 -0.1913
89952W        W33005   3.013   0.340  21.312  0.1055 -0.3424  0.0827
89953W        W33006  25.570   9.045   4.632 -0.0304  0.2481 -0.1705
89954W        W33007  16.262   7.591   3.418  0.3734  0.2992 -0.2119
89955W        W33008  19.799  21.005   1.091 -0.4406  0.1701  0.2072
89956W        W33009  27.416  15.434   5.982 -0.2818 -0.3962  0.0004
89957W        W33010  20.029  28.485  27.504 -0.0663  0.3649 -0.1467
89958W        W33011  34.517   8.097   4.476  0.0479 -0.3211  0.0596
89959W        W33012  25.849   3.083   2.486  0.4220  0.0481 -0.2076
89960W        W33013  10.084   6.136   6.155 -0.2692 -0.0626 -0.0846
89961W        W33014   1.066  11.886   1.356 -0.0986  0.1865  0.2347
89962W        W33015  29.268  23.029   7.207 -0.0823  0.0289  0.1361
89963W        W33016  17.411   7.524   7.612  0.0833 -0.0964 -0.1221
89964W        W33017  19.425   5.918   3.408 -0.1563  0.3087  0.0765
89965W        W33018  30.039   1.620   8.880 -0.2668 -0.1401  0.3356
89966W        W33019  21.358  21.754  26.649  0.1617 -0.3084  0.0327
89967W        W33020  31.112  14.783   4.434  0.1312  0.1228  0.3342
89968W        W33021  20.575  29.010   3.095 -0.1240 -0.0987 -0.0489
89969W        W33022  16.036  14.290  26.080 -0.3002 -0.0522 -0.2296
89970W        W33023  32.922   7.421   0.388 -0.0016 -0.3545 -0.0011
89971W        W33024  15.579  10.492   2.403  0.2095 -0.0493 -0.3170
89972W        W33025  30.275  26.263   7.874 -0.1164 -0.1625 -0.2444
89973W        W33026   8.395  33.655   2.855 -0.1345  0.1421  0.2409
89974W        W33027  19.880   9.094  23.807 -0.3782  0.0519 -0.1368
89975W        W33028  33.536  22.676   3.105 -0.2578  0.0578 -0.0065
89976W        W33029  17.791  12.156   2.652  0.1517  0.0987  0.1904
89977W        W33030  14.129  12.912  26.371  0.0805 -0.1637  0.0159
89978W        W33031  27.345  10.244  27.759  0.1111 -0.0920  0.0704
89979W        W33032   6.390  17.045  26.219 -0.0826 -0.0192  0.0825
89980W        W33033  33.448  15.664   8.213  0.0524 -0.0613  0.2453
89981W        W33034  16.462  10.547   2.321 -0.1364  0.0039  0.1861
89982W        W33035   6.776  12.751   8.412  0.0621  0.0991  0.1455
89983W        W33036  33.334   9.347  23.749 -0.0992  0.3273 -0.0101
89984W        W33037   5.721   1.155   8.614 -0.0683 -0.0879  0.0272
89985W        W33038  27.204   5.215   9.379  0.2577 -0.0177  0.2749
89986W        W33039  19.724   8.562   7.999 -0.2180  0.2940  0.1490
89987W        W33040  18.918  16.977   9.779  0.1815  0.0522  0.0074
89988W        W33041  33.580  14.248  22.004 -0.0073 -0.1264 -0.0222
89989W        W33042  17.786  13.784   9.356  0.4346 -0.1086  0.0865
89990W        W33043  28.863  22.214  27.088 -0.1541  0.0800  0.0051
89991W        W33044  24.752  11.024  10.101 -0.0885  0.3253 -0.1105
89992W        W33045  14.355  13.385   4.096 -0.0442  0.0847  0.0593
89993W        W33046  11.814  15.318   4.835 -0.0641 -0.2465 -0.0299
89994W        W33047  20.805  16.912   3.720 -0.0334 -0.1258 -0.2313
89995W        W33048  12.015  30.877   2.013  0.1254  0.2163 -0.0787
89996W        W33049   3.055   1.717  20.700  0.1042  0.0520 -0.1485
89997W        W33050   0.448  15.889  28.039  0.2413 -0.0886  0.3134
89998W        W33051   0.181   9.074   9.072 -0.1828 -0.1456 -0.0800
89999W        W33052   3.565  24.555   4.178 -0.1009  0.2767 -0.1532
90000W        W33053   6.297   1.981  26.646 -0.1205 -0.1811  0.1329
90001W        W33054  17.231   7.660   5.953  0.1088 -0.0055 -0.3469
90002W        W33055   7.832  24.849   4.740 -0.2298  0.1778  0.0117
90003W        W33056   8.027  15.404   4.376 -0.2447 -0.1258  0.1521
90004W        W33057   2.565   1.138   5.432 -0.3646  0.3040 -0.0496
90005W        W33058  17.210  16.168  26.411 -0.0850 -0.0258 -0.1148
90006W        W33059  18.887  14.400   3.279  0.3107 -0.1344 -0.0067
90007W        W33060  18.046  16.510   4.538 -0.1488 -0.1327 -0.1307
90008W        W33061   6.233   4.762  24.394 -0.1026  0.0211 -0.1159
90009W        W33062  21.841  12.499  10.144  0.2180  0.2334 -0.4021
90010W        W33063   9.132   0.083   2.549  0.0130 -0.0481  0.0617
90011W        W33064  25.596  13.503  19.192  0.1046  0.0637  0.0335
90012W        W33065  28.579   1.925   0.364  0.4668 -0.1654 -0.2271
90013W        W33066  34.132   6.087   2.571  0.2625  0.0670 -0.1122
90014W        W33067  21.665   1.424   0.921  0.0645  0.2113 -0.2592
90015W        W33068   8.081  10.753   8.536 -0.4276 -0.1706 -0.1087
90016W        W33069  22.623  12.486   3.954  0.0813 -0.1741  0.2129
90017W        W33070   6.462  20.928  26.804  0.0270  0.1588 -0.2112
90018W        W33071  33.811  26.337  24.532 -0.3843 -0.1382  0.0883
90019W        W33072  16.686   7.792   3.361 -0.0099  0.1803  0.0278
90020W        W33073   9.410   1.344   2.614 -0.0068  0.1544  0.1323
90021W        W33074   9.506   6.204  27.433 -0.2050  0.2183  0.1919
90022W        W33075  12.394   2.965   2.138 -0.1279  0.1238  0.1505
90023W        W33076  13.674   4.369  10.023  0.0915 -0.1455 -0.1231
90024W        W33077  22.812  12.396   5.090  0.1593 -0.0916  0.0456
90025W        W33078  25.497  14.000   8.443  0.2587 -0.0729 -0.2895
90026W        W33079  30.091  13.593   0.096 -0.1021 -0.0233  0.3416
90027W        W33080   3.523  11.310  21.215 -0.2353  0.0604  0.2127
90028W        W33081  24.005  31.003   9.159  0.1794 -0.0535 -0.2306
90029W        W33082  14.875  13.999   6.264 -0.0038 -0.0103  0.0961
90030W        W33083   3.434  15.015  29.117 -0.2649  0.2584  0.1556
90031W        W33084  14.845   2.626   5.295  0.1731 -0.0661 -0.4748
90032W        W33085  11.003  15.716   6.246  0.0438  0.0445 -0.0290
90033W        W33086  13.372  10.232   5.661  0.2619 -0.2378 -0.2027
90034W        W33087  19.310   4.264   8.843 -0.0545  0.1265  0.2072
90035W        W33088  12.412  12.079   5.243  0.0203  0.0345 -0.3692
90036W        W33089  27.645  13.193   7.229  0.1131 -0.0234  0.2516
90037W        W33090  14.511  11.401  27.829 -0.1190  0.1052 -0.0899
90038W        W33091   7.859  17.745   6.774  0.1656 -0.0404 -0.3496
90039W        W33092   1.476   2.964   8.945 -0.1639  0.0914  0.0556
90040W        W33093   5.035  17.843   1.216  0.1517  0.4436  0.0500
90041W        W33094  13.397   4.481   0.934 -0.0781 -0.3393 -0.0510
90042W        W33095  17.968  17.796   3.113  0.2892 -0.2198 -0.0754
90043W        W33096  23.991  14.727  18.561 -0.1147  0.1256  0.1505
90044W        W33097  17.533  11.575   2.854 -0.1038  0.2649  0.0559
90045W        W33098   7.942   8.604   8.474 -0.0936  0.3459  0.0176
90046W        W33099  32.608   5.900  27.653  0.2083  0.2489 -0.1281
90047W        W33100  20.899  14.300   0.532 -0.1032 -0.0316 -0.1742
90048W        W33101   2.163  19.388  28.552 -0.0858  0.0411 -0.0859
90049W        W33102  29.427   9.293   9.787 -0.0226  0.4609  0.0893
90050W        W33103  25.425  11.477   3.474  0.2594  0.2351  0.0828
90051W        W33104  14.553   6.614   6.556 -0.2964  0.0497  0.2557
90052W        W33105  14.783  12.174   3.864 -0.2726 -0.1116 -0.1949
90053W        W33106  22.647  25.857  19.862 -0.0901  0.1318  0.0142
90054W        W33107  16.261  10.023   1.881  0.1707 -0.0943  0.1895
90055W        W33108  12.488  27.012   8.168  0.3052 -0.1252 -0.2103
90056W        W33109  13.637   6.118  28.380  0.0472  0.4548 -0.1668
90057W        W33110  24.770   8.412  20.736  0.2896 -0.2030 -0.2408
90058W        W33111  16.840  15.854  13.335 -0.3673 -0.1933 -0.4287
90059W        W33112  16.708   6.607  28.732  0.0766 -0.0825 -0.1441
90060W        W33113  10.810  12.370   7.260 -0.1549  0.0387 -0.1610
90061W        W33114  25.222   4.978   5.692 -0.2501 -0.3659  0.1092
90062W        W33115   4.871   3.950   3.755  0.2253  0.0370 -0.0774
90063W        W33116   8.774  19.747   4.415  0.2791  0.0482  0.2662
90064W        W33117   9.771  13.407   5.190  0.0460 -0.1246  0.1917
90065W        W33118  13.096  17.370  28.298 -0.2033 -0.0702  0.0693
90066W        W33119   8.877  21.345   7.075  0.1671  0.0246 -0.0488
90067W        W33120  10.388  32.493   4.769 -0.1810  0.0972  0.0620
90068W        W33121  11.974   6.928  10.961 -0.1276  0.0003 -0.0432
90069W        W33122  28.021  18.546   7.191  0.1981 -0.0551  0.3208
90070W        W33123   1.818  21.296  14.639  0.0629  0.2406 -0.0880
90071W        W33124  23.330  21.811   8.900 -0.0137 -0.0514 -0.1492
90072W        W33125  14.126  16.456   4.005  0.0713 -0.0990  0.1050
90073W        W33126  19.570  11.524   8.752  0.1996 -0.2160  0.1742
90074W        W33127   0.648  17.179   3.070  0.3241 -0.0407  0.1521
90075W        W33128  16.995  30.828   9.829  0.1678 -0.1478  0.0411
90076W        W33129  13.040  11.165   9.177  0.1478  0.2052  0.1011
90077W        W33130  11.993  19.777   8.029  0.1003  0.1929 -0.0372
90078W        W33131   5.689  26.960   1.246 -0.0538  0.0263  0.0841
90079W        W33132  22.093   9.346   5.510 -0.1613 -0.3296 -0.0131
90080W        W33133   2.211   7.023   5.272 -0.0639 -0.1218  0.0987
90081W        W33134  19.261   9.206   4.129 -0.2166  0.1458 -0.1769
90082W        W33135   6.770   9.314   5.408  0.1049  0.5222  0.3094
90083W        W33136   5.409  17.208   9.047 -0.1476 -0.1987  0.0381
90084W        W33137  16.502  11.736  16.086  0.0186 -0.0225  0.0137
90085W        W33138   9.618   4.728  23.604 -0.0945  0.0159 -0.0458
90086W        W33139  11.401   4.019   8.347  0.1445  0.1284  0.0310
90087W        W33140  14.538   1.593   4.443  0.1640  0.3289 -0.2548
90088W        W33141  21.231  33.932   8.237 -0.1067  0.1444  0.0534
90089W        W33142   1.062  30.525   8.979 -0.0738  0.1143  0.2219
90090W        W33143   0.893   4.940   1.179  0.1467 -0.0184 -0.2661
90091W        W33144   7.866   6.651  18.635 -0.3141 -0.1177 -0.0558
90092W        W33145   6.720   7.656   8.421  0.1486 -0.0200 -0.1211
90093W        W33146   4.356  11.087   7.253 -0.2482 -0.0743  0.4207
90094W        W33147  16.698   2.423   9.326  0.2149  0.1767 -0.1247
90095W        W33148  18.368   9.923  27.886 -0.1993 -0.0329 -0.1587
90096W        W33149   7.611  20.519   2.470 -0.1058  0.0680 -0.0666
90097W        W33150  15.852  25.474   5.726  0.0449  0.0950  0.1071
90098W        W33151  17.995   4.312  26.467 -0.1994  0.0344 -0.0084
90099W        W33152   6.139  12.800  24.760  0.3124 -0.0584  0.1129
90100W        W33153  28.088  13.143  16.586  0.1742  0.5067 -0.3732
90101W        W33154  22.071  20.316   0.113 -0.1793  0.2589  0.1290
90102W        W33155  13.044  17.870   4.530 -0.2309 -0.0041 -0.0315
90103W        W33156  27.366  34.177   7.048  0.3151 -0.1662 -0.1728
90104W        W33157  21.312  21.599   8.108 -0.1476  0.1261 -0.2022
90105W        W33158  21.839   0.540  20.593 -0.2130  0.1281 -0.1555
90106W        W33159  17.407   8.422  10.549  0.1461 -0.2823 -0.0617
90107W        W33160  22.598   6.020   8.053 -0.5202 -0.2709 -0.0612
90108W        W33161  18.182  30.570   4.833 -0.2348  0.1241  0.0101
90109W        W33162   9.025  18.419   2.472 -0.0369  0.0101  0.2379
90110W        W33163  31.304  15.405   0.710  0.0621  0.1478  0.0617
90111W        W33164   7.106  16.280   5.717 -0.0456  0.0953 -0.1706
90112W        W33165  21.069  34.035   9.596 -0.5006 -0.1338 -0.2954
90113W        W33166  34.115   3.487   6.025 -0.0435 -0.1784  0.0976
90114W        W33167  14.757  18.377   2.427 -0.0191  0.0371 -0.1701
90115W        W33168  10.749  31.535   4.527 -0.0997 -0.0539 -0.0486
90116W        W33169  12.611  11.043  23.464 -0.1074 -0.1636  0.3030
90117W        W33170   1.031   8.098  18.052 -0.3993 -0.1426  0.2206
90118W        W33171  13.863  10.943   5.042 -0.1614 -0.0260  0.1507
90119W        W33172   1.605  16.581   4.657  0.1654  0.1880 -0.0589
90120W        W33173  11.688  14.641   8.507 -0.0717 -0.0811  0.1516
90121W        W33174   9.787  13.886  26.452 -0.4037  0.1822  0.1747
90122W        W33175   1.035  31.200  18.017  0.0942  0.3751 -0.0847
90123W        W33176  10.735  34.447   4.071  0.2253 -0.1934  0.0438
90124W        W33177  25.194   6.615   7.188 -0.1992 -0.0474  0.2541
90125W        W33178  15.784   6.344   5.219 -0.0446 -0.2711  0.0415
90126W        W33179  31.051  17.717  27.977  0.2638  0.2141 -0.0462
90127W        W33180  22.135   5.830   1.366 -0.1199  0.0168  0.0019
90128W        W33181  19.630  12.667  23.129 -0.0445  0.1973  0.0612
90129W        W33182   0.687  29.545   8.349 -0.1229  0.3696  0.2659
90130W        W33183  15.948   6.103   0.676  0.1719 -0.0545 -0.0552
90131W        W33184  15.621  20.508  25.607  0.1231 -0.3296  0.1291
90132W        W33185  10.923  33.355   5.705  0.0867  0.2848  0.3118
90133W        W33186  10.781  14.485  11.566 -0.0380  0.0467 -0.0229
90134W        W33187  19.663  16.285   2.701 -0.1940 -0.2102 -0.0112
90135W        W33188  17.195   2.267   8.260 -0.0999  0.1184  0.3229
90136W        W33189   1.457  12.762   1.007  0.1964  0.1593  0.0185
90137W        W33190   7.120   6.219   6.720  0.3319  0.1979  0.5358
90138W        W33191   0.253  34.168   6.979 -0.1506 -0.1622  0.1174
90139W        W33192   8.791   7.149   7.918  0.2178  0.2135 -0.1661
90140W        W33193  13.252  12.328   1.448 -0.3755  0.2480 -0.0547
90141W        W33194   6.443  18.875   1.294 -0.0699 -0.0554 -0.0615
90142W        W33195   9.286  26.646  28.342  0.0535 -0.0125  0.0763
90143W        W33196  13.955  19.453   9.041 -0.2658  0.0473 -0.2048
90144W        W33197  12.038  11.366  10.541 -0.1622 -0.0458  0.0446
90145W        W33198   5.378   9.706  27.350 -0.1006 -0.1816  0.3582
90146W        W33199  18.365   3.514  16.698  0.0070  0.2358 -0.0543
90147W        W33200   4.136  30.485  20.401 -0.0223  0.2149  0.1468
90148W        W33201  20.745  12.437  22.600  0.1700 -0.0818 -0.1253
90149W        W33202  10.384  10.227  28.804 -0.3036  0.0345  0.0609
90150W        W33203  13.339  34.437   2.211 -0.1258  0.1784 -0.2264
90151W        W33204  21.368  15.719   2.816 -0.0527  0.1759 -0.2833
90152W        W33205  17.079   8.029  10.760 -0.2289  0.1953 -0.0711
90153W        W33206  15.548   8.490   8.110 -0.0189  0.1124 -0.2556
90154W        W33207   7.736   1.146   9.138  0.1982  0.1710  0.0791
90155W        W33208  30.539  18.496   1.433  0.3743  0.0137 -0.0781
90156W        W33209  30.400  17.074   0.216  0.0022 -0.0982 -0.2983
90157W        W33210   7.074   6.923   1.960 -0.0593 -0.0990  0.2485
90158W        W33211   6.504  33.057   6.588 -0.0728  0.0815  0.2823
90159W        W33212  16.958  33.012  26.398  0.0231 -0.3955 -0.3002
90160W        W33213  16.777  23.866   9.398 -0.0479  0.0437  0.0285
90161W        W33214  30.576  14.567   2.943  0.1891  0.1430 -0.1234
90162W        W33215  20.000  31.473   1.729 -0.1115 -0.0309 -0.0865
90163W        W33216  18.480   6.134   2.329  0.0504  0.1147  0.0872
90164W        W33217   9.761  11.298  25.518  0.3411 -0.2461 -0.1706
90165W        W33218  15.342   1.332   8.040 -0.0506 -0.0409  0.0935
90166W        W33219  19.931  28.510   6.311  0.1141 -0.0150  0.0792
90167W        W33220   3.037  10.074   7.770 -0.0387 -0.0387 -0.4310
90168W        W33221  17.808  12.883   0.354  0.1908  0.2241 -0.1847
90169W        W33222   0.715   2.541  28.513  0.0662 -0.3544  0.1359
90170W        W33223   7.250  25.728   0.336  0.0423  0.2595 -0.1834
90171W        W33224  33.947   4.456   4.188 -0.0461 -0.2687 -0.1760
90172W        W33225   4.138  15.076   7.910 -0.1315 -0.1293  0.0709
90173W        W33226  11.750   5.167   6.181 -0.0539 -0.1838  0.1343
90174W        W33227  29.721  21.634   2.295  0.0289 -0.1267  0.0743
90175W        W33228  18.543  11.116   1.892  0.1968 -0.2440 -0.0183
90176W        W33229   7.258  16.554   1.810  0.0201 -0.4887 -0.1612
90177W        W33230  14.036   7.767   4.330  0.0025 -0.1077  0.0331
90178W        W33231  13.613   3.263  26.952 -0.1514 -0.2918 -0.0951
90179W        W33232  22.561  29.531  20.275  0.1834 -0.1210  0.2834
90180W        W33233  17.717  11.156   5.736 -0.0068  0.0697  0.0954
90181W        W33234  18.726  32.365   0.059  0.1003  0.4622 -0.0724
90182W        W33235   0.769   8.460   6.759 -0.3245  0.1213 -0.2994
90183W        W33236  14.298  18.358  26.716 -0.3886 -0.1886  0.1737
90184W        W33237  34.200  10.456   1.099 -0.0804 -0.0986 -0.1895
90185W        W33238  13.453  18.343  28.978  0.0623 -0.1792 -0.0661
90186W        W33239  22.783   8.781  16.261 -0.1385 -0.1858 -0.0575
90187W        W33240  13.780   0.115   7.759 -0.1944 -0.3427 -0.3322
90188W        W33241  25.357  15.900   2.729 -0.1145 -0.0341  0.3349
90189W        W33242  15.953   9.048   3.856  0.2737  0.0868  0.2153
90190W        W33243  14.143   1.414  22.080 -0.2201 -0.1725  0.3137
90191W        W33244  14.903  11.628   2.344 -0.2364  0.1661  0.1392
90192W        W33245  18.681   2.404   2.746 -0.0065  0.0403  0.0994
90193W        W33246   4.014  28.054   3.309 -0.0058 -0.1719 -0.2547
90194W        W33247   4.689  33.993   4.440 -0.2181 -0.1762 -0.0990
90195W        W33248  25.708  15.792   8.522  0.3844  0.1790 -0.3518
90196W        W33249  19.034   5.939   5.452  0.0544 -0.0097  0.0486
90197W        W33250   5.178  31.543   5.775 -0.2860 -0.0418 -0.1397
90198W        W33251   5.547   1.453   8.231  0.1053 -0.0919 -0.0043
90199W        W33252   7.397  24.938   4.469 -0.2321 -0.3325 -0.2429
90200W        W33253  17.946  12.138   6.831  0.2882 -0.4044  0.3699
90201W        W33254  17.135   0.170  10.552  0.2475 -0.1483 -0.3705
90202W        W33255  31.698  14.140   0.049 -0.0146 -0.1191 -0.1430
90203W        W33256   8.471  32.822   9.088 -0.0969 -0.1207 -0.4256
90204W        W33257  12.000  25.108   6.345 -0.3943  0.1114  0.2328
90205W        W33258  18.777  14.936  27.300 -0.1716  0.1005 -0.0843
90206W        W33259  18.384  11.986   8.417  0.1179  0.1828 -0.0315
90207W        W33260  16.735  10.450   7.561  0.2483 -0.0129  0.4836
90208W        W33261  12.857  12.751  20.992 -0.1484 -0.1143  0.1495
90209W        W33262  11.495  33.372   9.051  0.0799  0.1127  0.1082
90210W        W33263  32.408  18.035  14.975  0.0507  0.1855  0.0455
90211W        W33264  16.059  14.925   5.006 -0.1014  0.0898  0.1514
90212W        W33265  20.224  15.616   6.058 -0.1505 -0.2076  0.5336
90213W        W33266   5.365  17.905   2.089 -0.1360  0.0664  0.1774
90214W        W33267  19.305   3.528  19.741  0.1874  0.0670  0.0272
90215W        W33268   3.189  22.073   9.028 -0.1109  0.0112  0.1548
90216W        W33269  12.108  21.332   6.057 -0.0830  0.0250  0.1271
90217W        W33270   6.434   7.314   4.455 -0.1414 -0.3192  0.2444
90218W        W33271  17.909   1.407   9.648  0.1143  0.1747  0.0563
90219W        W33272  14.023  21.792  19.011 -0.1124 -0.1626 -0.0754
90220W        W33273   8.487  11.991   5.608  0.0280 -0.1525  0.0473
90221W        W33274  13.289  11.413   9.475  0.2500 -0.1265  0.2795
90222W        W33275  12.245   7.470   3.711  0.1169 -0.0085 -0.0517
90223W        W33276  11.076  11.513  17.792  0.0366 -0.2593 -0.2212
90224W        W33277   5.716  31.954   2.159 -0.3168 -0.0142 -0.2776
90225W        W33278  15.508   8.356   2.200 -0.3091 -0.0273 -0.3567
90226W        W33279   3.910  13.043   9.121 -0.3631 -0.0428 -0.1745
90227W        W33280   7.369   9.535   8.593  0.0275  0.0172 -0.3793
90228W        W33281  16.879  12.520  10.466 -0.1311  0.2068 -0.2191
90229W        W33282   2.158   0.444  18.625  0.0718 -0.1330 -0.2111
90230W        W33283   4.582  21.394  27.102  0.0093 -0.1892  0.2050
90231W        W33284  19.162  10.268   5.596 -0.1111  0.0351  0.0046
90232W        W33285  22.570   2.030  20.212  0.0142 -0.0949 -0.2903
90233W        W33286   8.989  11.779   8.520 -0.2087 -0.2297 -0.2548
90234W        W33287  22.028   8.069   7.957  0.0577  0.2046 -0.0139
90235W        W33288  17.745  33.145  16.655 -0.1360 -0.1686 -0.0846
90236W        W33289  15.021  14.173   9.868  0.1924 -0.1767  0.0415
90237W        W33290  11.739  34.216   1.130 -0.0435 -0.2897 -0.1985
90238W        W33291   4.989  23.575   4.208  0.0387 -0.1395 -0.0428
90239W        W33292  10.244  32.923   9.774  0.2578 -0.0460  0.1384
90240W        W33293   0.464  34.665  27.504  0.1145  0.0534  0.3028
90241W        W33294   3.551  16.866   8.064  0.0090  0.2240  0.2595
90242W        W33295  14.265  24.977  28.074 -0.1002  0.3684 -0.0508
90243W        W33296   4.127  31.694   6.890 -0.0999 -0.1123  0.0604
90244W        W33297   8.517  13.342  27.822 -0.0073 -0.1226 -0.0784
90245W        W33298  28.486  31.700   0.475  0.2847  0.3312 -0.1440
90246W        W33299  10.891   8.420   6.091  0.0875  0.1099  0.0236
90247W        W33300  12.085  33.334  28.164 -0.0027  0.1771 -0.1859
90248W        W33301  33.598  28.621   3.122 -0.0597  0.1848  0.0662
90249W        W33302  19.829   2.813  10.291  0.0370 -0.0603 -0.0206
90250W        W33303  14.893   0.292   6.379  0.0373 -0.0215  0.0107
90251W        W33304   4.571  12.278   0.317 -0.0450 -0.1941 -0.1951
90252W        W33305  27.648   5.561   6.711 -0.0363 -0.1921  0.0452
90253W        W33306  12.487  26.438  25.757  0.1944  0.0997  0.1374
90254W        W33307   4.035  25.155   1.710  0.0404  0.3611  0.1452
90255W        W33308  19.812  34.242   7.389  0.1284 -0.2318 -0.2871
90256W        W33309  26.299   6.206  28.508 -0.2715 -0.1479  0.0039
90257W        W33310  20.739  21.696   8.852  0.1214 -0.1170  0.2278
90258W        W33311   3.464   8.284   0.918 -0.1678 -0.1528  0.1772
90259W        W33312  34.136  15.605  20.343  0.1531  0.0357 -0.1314
90260W        W33313   5.532  29.409   0.045 -0.0379  0.0172  0.0684
90261W        W33314  21.487  18.713   8.795  0.0992 -0.2798  0.1998
90262W        W33315  32.186  28.688  16.128 -0.2591  0.3147  0.0385
90263W        W33316   7.981   6.746   5.454  0.0505  0.0555 -0.1580
90264W        W33317  24.874  13.114   5.005  0.0035 -0.2356  0.1849
90265W        W33318   9.660  34.348  24.736 -0.1910  0.0866  0.0114
90266W        W33319   2.661  15.351   8.089  0.1219  0.0298 -0.0211
90267W        W33320   9.781  15.062   1.222 -0.3203 -0.1497 -0.0255
90268W        W33321   3.470  13.472   9.447  0.0108  0.1520 -0.0521
90269W        W33322   7.332   2.058   7.531  0.0762  0.0170  0.0578
90270W        W33323  29.059   7.817   2.251 -0.0792 -0.3720  0.1291
90271W        W33324  10.912   1.551   4.915 -0.1871  0.1644  0.0476
90272W        W33325   0.756  29.241   1.899 -0.1876  0.1480  0.1771
90273W        W33326  24.692   1.783  28.806 -0.0716 -0.1433 -0.2665
90274W        W33327   5.551  27.403  29.184 -0.0957 -0.3464  0.2371
90275W        W33328  18.101   6.240  24.626  0.0659 -0.0455  0.0073
90276W        W33329  15.968  16.812  26.529  0.0715 -0.0560 -0.1166
90277W        W33330  32.188  12.260   4.186 -0.1674  0.0301 -0.2236
90278W        W33331   9.614  26.293   3.968 -0.0738 -0.1330 -0.1603
90279W        W33332  15.384  12.609   2.254  0.3789 -0.2262 -0.5285
90280W        W33333  14.387   8.971   2.548  0.0091 -0.1740  0.0641
90281W        W33334  13.814  17.566   8.191  0.0760 -0.1600  0.1131
90282W        W33335   2.512  12.295   2.495  0.2659 -0.1095  0.0093
90283W        W33336  16.073   6.008   5.386  0.3571 -0.1931 -0.1627
90284W        W33337  26.587   3.749   0.652 -0.1528  0.0605 -0.0371
90285W        W33338   4.398   3.309   7.237  0.1292 -0.1459  0.3008
90286W        W33339  21.559   0.930   7.952  0.2371  0.0395 -0.0174
90287W        W33340  22.522  10.276   0.252 -0.0898  0.1767 -0.0566
90288W        W33341   9.696  16.102  27.301 -0.3861  0.0958 -0.3498
90289W        W33342   9.533   3.408   6.345 -0.0770  0.2454  0.1225
90290W        W33343  18.474  16.342  22.876 -0.2774  0.2001  0.0260
90291W        W33344   0.822  19.480   7.157 -0.0910  0.0975 -0.1716
90292W        W33345   9.739   5.948   7.405 -0.0063  0.0516  0.1896
90293W        W33346  18.359  11.489   4.673  0.0961 -0.1209 -0.0271
90294W        W33347   1.937  16.696  28.658  0.0435  0.0088 -0.0530
90295W        W33348  25.852   3.849   6.249 -0.0282  0.2401  0.0409
90296W        W33349   6.490   9.535   9.125 -0.0980  0.0183 -0.0662
90297W        W33350  26.387  10.829   6.860 -0.3079 -0.3028 -0.1311
90298W        W33351  17.498  19.814   6.106 -0.0473  0.3416  0.1776
90299W        W33352  21.295  18.793   6.001  0.1757 -0.3154  0.1890
90300W        W33353   9.129   1.965   6.280  0.1870  0.2147 -0.1073
90301W        W33354   3.071  11.638   3.559 -0.0119  0.1167 -0.1427
90302W        W33355  13.220  20.937  28.596 -0.0951 -0.0774 -0.1157
90303W        W33356  16.555  28.706   9.188 -0.3915 -0.0782 -0.4382
90304W        W33357  17.782   1.677  23.305 -0.0776 -0.3856 -0.0221
90305W        W33358  19.987  29.084  26.588  0.0479  0.0091 -0.0649
90306W        W33359  19.762  33.369   8.223  0.1553 -0.0619 -0.0089
90307W        W33360  25.505  23.400   8.865 -0.1444  0.0807  0.0496
90308W        W33361  12.773  24.231  22.923  0.1933  0.0382 -0.3364
90309W        W33362  16.701   1.977   1.059  0.0019  0.0493  0.0799
90310W        W33363   8.176  28.656   5.466  0.1622 -0.1060  0.0341
90311W        W33364   2.616   4.581   8.652 -0.0369  0.0053  0.1618
90312W        W33365   8.511  33.102  24.443 -0.0851  0.1671 -0.1549
90313W        W33366  20.711  30.773   9.651  0.1477  0.0508  0.1742
90314W        W33367  22.065  15.709  21.064  0.0638 -0.1553  0.3106
90315W        W33368  13.257  12.203   6.407 -0.1303  0.1210 -0.0158
90316W        W33369   8.563   2.422  27.564  0.1318 -0.3240  0.3241
90317W        W33370  15.223  10.622  26.470  0.0046 -0.5431  0.2064
90318W        W33371   2.768   6.177  22.156 -0.2687 -0.0891 -0.1663
90319W        W33372  16.871  13.871   1.582  0.5623  0.0188  0.1144
90320W        W33373  19.470   0.655   6.723  0.4287  0.0199 -0.1593
90321W        W33374   4.598  26.825   7.029 -0.1657 -0.1453  0.0588
90322W        W33375  29.685  25.274   8.941  0.0506  0.1609  0.2110
90323W        W33376  10.281  29.822   0.575  0.0089 -0.3659 -0.0701
90324W        W33377  31.613   6.430   7.377  0.1623  0.0683 -0.0472
90325W        W33378   9.298  11.731  27.713 -0.0986  0.1109 -0.2588
90326W        W33379  31.944  10.329   1.519  0.2034  0.0114 -0.1145
90327W        W33380   7.505  10.279   7.413  0.1110  0.3015 -0.0437
90328W        W33381  22.800   1.150   9.970  0.1765  0.2973  0.0780
90329W        W33382  13.829  24.365   4.124  0.1752  0.0346 -0.4040
90330W        W33383  26.002  32.059   9.373  0.0475 -0.0461  0.1518
90331W        W33384  18.857  33.752   1.777 -0.2927 -0.2481 -0.0859
90332W        W33385  10.297  13.574   5.013  0.2433 -0.3001 -0.0282
90333W        W33386   8.779  17.979   4.540 -0.1118  0.2178  0.1174
90334W        W33387  10.679   9.770   9.892  0.1529  0.1136 -0.3090
90335W        W33388  13.543   8.569   8.568  0.0161 -0.1074 -0.1920
90336W        W33389   0.135   7.681   6.902  0.2584  0.2847 -0.0445
90337W        W33390  14.125  14.254   5.421 -0.2289 -0.0511 -0.1354
90338W        W33391   1.107  18.710   1.631 -0.0462  0.0482 -0.1820
90339W        W33392   5.639  14.922   2.037  0.2903  0.1911 -0.0682
90340W        W33393  21.043  31.840  18.049  0.1623 -0.1943  0.1140
90341W        W33394  16.870  13.713   4.904  0.3779 -0.1384 -0.1391
90342W        W33395  22.838  15.779  28.940  0.4635 -0.0706  0.1170
90343W        W33396  19.757  12.547   6.704  0.2174  0.0908 -0.1098
90344W        W33397  26.359   1.353   6.933  0.0180 -0.3366 -0.1834
90345W        W33398  13.278  10.458   7.323 -0.1542  0.0678  0.0249
90346W        W33399  24.215   7.840   8.787  0.1115  0.1520 -0.1250
90347W        W33400  29.037  16.717   7.638  0.0982 -0.0488  0.0802
90348W        W33401  17.600  11.268  17.910  0.0485  0.2799 -0.1437
90349W        W33402  17.423   9.262   7.639  0.1046 -0.1220  0.0964
90350W        W33403   8.273   3.087   2.652  0.1690  0.0393  0.0963
90351W        W33404  12.040   7.216   2.509  0.1958  0.1396 -0.1949
90352W        W33405  25.710  32.668   7.975  0.0214 -0.3188  0.1928
90353W        W33406  16.625  11.511   9.631  0.2512 -0.3904 -0.3248
90354W        W33407   2.623   4.297   3.816  0.2202 -0.1505  0.1470
90355W        W33408  16.102  11.564  27.923  0.4035 -0.1259 -0.0708
90356W        W33409  10.639  12.817  27.661  0.3203  0.1824  0.0971
90357W        W33410  17.646   6.455   9.780  0.2026 -0.1066 -0.0706
90358W        W33411  18.761  34.598   9.194  0.2998  0.0197  0.2372
90359W        W33412  20.116  15.209   3.941 -0.1638 -0.1073  0.1746
90360W        W33413  12.755  11.155   4.199  0.1416  0.3142 -0.0253
90361W        W33414   2.044   2.230   0.283 -0.0047  0.1519 -0.0516
90362W        W33415   6.049  21.081   6.124  0.3810  0.2091 -0.0747
90363W        W33416   8.774   4.438   9.871  0.0941  0.3458  0.0631
90364W        W33417   6.548   0.087   0.083  0.3758  0.0025  0.0712
90365W        W33418  16.259   4.957   1.946  0.2427  0.1450 -0.1296
90366W        W33419  20.270  12.096   5.564 -0.2758 -0.3261  0.0538
90367W        W33420   2.415   7.390   4.999 -0.0413  0.1627 -0.0876
90368W        W33421   7.924  14.134   6.432 -0.1608 -0.0581  0.1266
90369W        W33422  20.911  11.234   1.689 -0.0915 -0.2231  0.0303
90370W        W33423  22.080  22.940   6.367  0.1582 -0.3643 -0.4426
90371W        W33424  21.775   3.849  27.147 -0.1709  0.1890  0.1563
90372W        W33425  18.874   8.553   2.964 -0.0103 -0.1566  0.0689
90373W        W33426  17.892  13.057  28.505  0.0109 -0.0529 -0.2557
90374W        W33427  25.368   4.800  24.853 -0.5069  0.1421  0.1860
90375W        W33428  15.070  33.909   7.678  0.0658  0.1165 -0.1831
90376W        W33429  21.414  15.585   3.279  0.1341 -0.1090  0.4351
90377W        W33430  19.821   6.328   4.660  0.0344  0.2473 -0.2734
90378W        W33431  15.669  32.032  18.183 -0.1116 -0.0327  0.1115
90379W        W33432  26.108   7.061   1.421 -0.0190 -0.2748  0.0400
90380W        W33433  18.095  21.666   7.708  0.0838  0.0167 -0.3849
90381W        W33434  15.758  31.320   5.806 -0.2188  0.0066 -0.1440
90382W        W33435   1.331  33.427   6.114 -0.1052  0.0450  0.2404
90383W        W33436  31.404  25.720   1.846 -0.0498  0.2384 -0.1328
90384W        W33437  34.380  13.971   9.374 -0.3454 -0.0455  0.0505
90385W        W33438  23.020   5.907   3.164 -0.2348 -0.1149 -0.1120
90386W        W33439  16.686  11.196  10.254  0.1786  0.3851 -0.0704
90387W        W33440  29.536  13.111   1.211 -0.2835 -0.1714  0.0415
90388W        W33441   3.607   7.993   6.381  0.0193 -0.0291  0.0344
90389W        W33442  21.639  19.019   5.454 -0.1444 -0.0545 -0.3069
90390W        W33443  13.506  28.284   1.470  0.4282  0.3965  0.1143
90391W        W33444   5.574  26.527   8.691  0.0020 -0.1412 -0.1288
90392W        W33445  20.469   4.535   5.920  0.1149  0.2057 -0.2056
90393W        W33446   4.548  19.320  27.847  0.0635  0.0066  0.2828
90394W        W33447   0.902   9.588   2.270  0.1173 -0.1211 -0.1649
90395W        W33448  13.015  18.240   6.008 -0.0097  0.1474  0.3614
90396W        W33449  31.466   7.246  25.976  0.3565 -0.1058 -0.0925
90397W        W33450  14.261  21.232  28.294  0.0542 -0.1935 -0.1177
90398W        W33451  19.917  31.318   9.616 -0.0590  0.2592  0.0884
90399W        W33452  31.046   6.307   3.746 -0.2382 -0.0318 -0.0428
90400W        W33453  24.729  10.713  24.208  0.2617  0.5677 -0.1508
90401W        W33454  33.995  31.974   8.775 -0.1092 -0.1773  0.2680
90402W        W33455   3.905  17.595   6.491  0.0092  0.1312 -0.0199
90403W        W33456  10.905  34.020   5.076  0.2904  0.2553 -0.2110
90404W        W33457   0.927  14.791  21.736 -0.3644  0.2771 -0.1932
90405W        W33458   5.322  25.999   8.069  0.2779  0.1704  0.0627
90406W        W33459  22.243  31.232   6.501  0.0568 -0.4654 -0.0585
90407W        W33460   9.219  10.728  27.913  0.0798 -0.1406  0.1178
90408W        W33461  11.684   0.185   1.466 -0.0522  0.0337  0.3016
90409W        W33462  18.562   0.410   6.676  0.0121  0.1193 -0.0638
90410W        W33463  29.644  13.015   3.817  0.0702  0.0338  0.3657
90411W        W33464  33.567   1.557  18.853  0.3023 -0.0625  0.3246
90412W        W33465  30.249  32.419   7.994 -0.1346  0.0427  0.1132
90413W        W33466  18.845   4.890   9.618  0.0517 -0.1040  0.0515
90414W        W33467   9.939  31.134   9.663  0.1479  0.0850  0.0220
90415W        W33468  30.201  11.458   6.115 -0.0344 -0.3383 -0.0376
90416W        W33469  10.220   6.903  17.778  0.0157 -0.1318  0.0937
90417W        W33470   2.735  19.578  26.926 -0.1057 -0.1733  0.1751
90418W        W33471  32.554   1.399  23.836  0.2531 -0.2197  0.0371
90419W        W33472  16.316  16.226   2.022  0.1568 -0.0292 -0.0078
90420W        W33473  18.765  12.225  24.936 -0.3228  0.0361 -0.1036
90421W        W33474  28.787  16.328   7.906  0.0579  0.1540  0.0847
90422W        W33475  33.353  33.462   5.907 -0.0546  0.2683  0.2086
90423W        W33476  17.143  22.410   6.141 -0.3157 -0.2364 -0.1395
90424W        W33477  27.775   8.551  10.724  0.0519  0.0617  0.1903
90425W        W33478  25.454  19.055  28.617 -0.2853 -0.1461  0.0056
90426W        W33479  26.608   7.219   5.727  0.1146 -0.0351 -0.0812
90427W        W33480  15.094   6.086   7.551 -0.1590  0.0828  0.0724
90428W        W33481  26.836  23.086   9.733 -0.1947  0.0478 -0.0441
90429W        W33482   7.563   9.810   2.172 -0.0066 -0.0306  0.2248
90430W        W33483  20.076   3.566  10.584 -0.0953  0.1839  0.0920
90431W        W33484  17.981   8.131   3.788  0.1565 -0.0157  0.0094
90432W        W33485  33.599   0.586   8.064 -0.1772  0.0719 -0.0489
90433W        W33486  18.885  22.570   2.407  0.2702 -0.0875 -0.2867
90434W        W33487  14.773  25.934   0.585  0.2483  0.0313 -0.2857
90435W        W33488  10.755   9.465   6.087 -0.0879 -0.1779  0.2275
90436W        W33489  14.725  23.354  21.548  0.2817  0.1064  0.0095
90437W        W33490  31.478  14.596   8.759  0.2722 -0.0635  0.2190
90438W        W33491  11.950   5.682  27.083  0.7588 -0.3114  0.0776
90439W        W33492   1.396   7.054   9.393  0.2829 -0.4063 -0.1151
90440W        W33493  14.702  22.461   7.671 -0.2087 -0.1513 -0.1539
90441W        W33494  27.322   0.181   6.040 -0.0611 -0.1997  0.2525
90442W        W33495  15.989  11.541   4.368 -0.1875 -0.1161 -0.1791
90443W        W33496  16.633  15.207   8.565 -0.0422 -0.1997  0.1504
90444W        W33497  13.818  28.667   1.258 -0.1035 -0.1110  0.1670
90445W        W33498  15.817  15.200   3.981 -0.1435  0.0230  0.0759
90446W        W33499  21.065  24.993   3.980  0.2280 -0.0450  0.3094
90447W        W33500   2.036  10.697   7.247  0.0937  0.0083  0.1380
90448W        W33501   4.069  10.978   8.148  0.1386  0.0821 -0.0450
90449W        W33502  13.077  23.059   9.666  0.1383 -0.3269  0.0682
90450W        W33503  13.581  33.310  28.366 -0.0040  0.1206 -0.0887
90451W        W33504  17.042  15.792   2.729  0.4252 -0.1629  0.1405
90452W        W33505  27.795   4.852   6.221 -0.1593  0.0360  0.2527
90453W        W33506   6.129  32.020   6.613 -0.1485 -0.1164 -0.4212
90454W        W33507   8.504  26.939  28.085 -0.0147 -0.2921 -0.1729
90455W        W33508   3.641  20.233   7.550 -0.1257  0.1162 -0.1525
90456W        W33509  23.350  26.582   1.583  0.1447 -0.0405  0.3687
90457W        W33510  13.480   4.454   7.407  0.0583  0.3514  0.1706
90458W        W33511  19.960   5.240   4.507 -0.0543 -0.0267  0.0481
90459W        W33512  13.470  11.411   6.094 -0.4529  0.1118 -0.2221
90460W        W33513   7.175   8.865   1.948  0.2475  0.2241 -0.2569
90461W        W33514  17.840  14.327  22.965 -0.0297  0.0074 -0.0736
90462W        W33515  22.312   8.024   7.494 -0.1086  0.1496 -0.0546
90463W        W33516  33.992  14.390  22.378 -0.0827 -0.0400 -0.1578
90464W        W33517  12.276  16.200   6.231 -0.1184 -0.0219 -0.2395
90465W        W33518  26.493  31.406  29.011  0.0000  0.0120  0.0565
90466W        W33519  15.995  16.913   9.139 -0.0548 -0.2304  0.0703
90467W        W33520  11.815  33.827  22.263 -0.3496  0.1808  0.1307
90468W        W33521   9.858  10.427   5.419 -0.2540 -0.1294  0.3232
90469W        W33522  13.361   8.026   4.326 -0.0300 -0.3478 -0.0426
90470W        W33523  10.967  18.681  10.002 -0.0459  0.0132 -0.0944
90471W        W33524  16.918  29.630   4.851  0.0152 -0.1605 -0.2452
90472W        W33525  14.104   1.060   2.060  0.0141  0.3655 -0.1166
90473W        W33526  12.843  23.737   5.486 -0.1616 -0.0865 -0.3047
90474W        W33527  16.743  14.484   7.916 -0.0941  0.1354  0.0020
90475W        W33528  12.173  13.795  25.203  0.0290  0.2202  0.1449
90476W        W33529  14.917  13.219   5.984  0.4889 -0.0199 -0.0325
90477W        W33530  27.184   6.134   3.298 -0.4920 -0.3015 -0.2892
90478W        W33531   6.089  31.851   4.882  0.1578 -0.1554  0.1957
90479W        W33532  22.534  10.178   3.244  0.1315  0.2206  0.0471
90480W        W33533   6.078  14.435  26.669 -0.0377 -0.0409  0.1306
90481W        W33534  11.753  27.473   6.571 -0.0661 -0.0101  0.3042
90482W        W33535  17.759  27.576   5.977  0.0434 -0.0753 -0.0883
90483W        W33536  20.231   5.368   2.209  0.1645  0.2498 -0.3200
90484W        W33537   5.879  13.445   0.319 -0.3053 -0.1381 -0.0214
90485W        W33538  11.299  16.218   6.869 -0.1065  0.1336 -0.0477
90486W        W33539   8.798   6.519   9.394 -0.1085  0.0107 -0.0830
90487W        W33540  16.396  26.531   8.818  0.2582 -0.1535  0.0403
90488W        W33541   0.740   4.831  22.584 -0.0264  0.0041 -0.1495
90489W        W33542   8.323   5.186  10.103 -0.3223  0.1081 -0.4232
90490W        W33543   7.690  30.061   7.830 -0.0659  0.1074  0.0163
90491W        W33544  18.483  11.568  26.516  0.2530  0.0216  0.0729
90492W        W33545  26.342  10.868   5.294  0.0081  0.2538 -0.2035
90493W        W33546  12.412  28.516  27.273 -0.0304 -0.2281  0.0310
90494W        W33547  26.162   1.820   7.255  0.1949 -0.0044 -0.1771
90495W        W33548  10.967   4.326   8.209 -0.0883  0.1967  0.2400
90496W        W33549  11.576  25.046  25.187  0.0026 -0.0302 -0.1210
90497W        W33550  19.928  24.124   4.051 -0.1450  0.0966  0.2660
90498W        W33551  17.382  17.588   2.722  0.5755  0.1231  0.0041
90499W        W33552  10.910   2.532   2.876  0.2892 -0.1255 -0.0813
90500W        W33553  17.887  17.880   1.912 -0.0398  0.0810  0.1586
90501W        W33554  17.949   6.371   6.704 -0.2374  0.0898  0.2165
90502W        W33555   3.015  13.522   1.247 -0.0244 -0.1017  0.1999
90503W        W33556  18.701  10.541   5.805  0.4206 -0.3884  0.1490
90504W        W33557  21.727   4.278   4.374  0.3234  0.0224 -0.0802
90505W        W33558  15.434   0.628   4.634  0.0393  0.0963 -0.0690
90506W        W33559  19.831   0.782   7.239 -0.0978 -0.1647 -0.3358
90507W        W33560  31.996  10.911   4.550 -0.0021 -0.0059 -0.1103
90508W        W33561  23.921  17.157   4.348  0.0089 -0.1796 -0.0942
90509W        W33562   8.420  10.572  10.383 -0.0234  0.0744  0.2754
90510W        W33563  13.147  10.887   0.206 -0.0342  0.0635 -0.2130
90511W        W33564   4.406   6.819   5.618  0.1270 -0.1305  0.1695
90512W        W33565   1.911  18.204   7.860 -0.1590  0.0196 -0.0206
90513W        W33566  32.643   6.060  18.794  0.0056 -0.1986 -0.3220
90514W        W33567   5.174   9.763   7.952  0.0136 -0.0731  0.1698
90515W        W33568   9.378  18.344  26.117  0.1925 -0.0487 -0.1585
90516W        W33569   2.393  25.674   7.535  0.0528 -0.2704 -0.0361
90517W        W33570  13.256  20.539  23.301  0.1262 -0.0411  0.1385
90518W        W33571  30.824  12.779   4.843  0.0253  0.2209  0.0316
90519W        W33572  12.877  30.752  21.890 -0.2726  0.0223  0.2381
90520W        W33573  16.046  13.392  22.692  0.2817  0.0271 -0.3388
90521W        W33574  33.186  21.902   8.017 -0.0053  0.0165  0.1501
90522W        W33575   6.068   5.692   7.351 -0.2803  0.0122  0.3155
90523W        W33576  25.116  30.038   8.313 -0.0944 -0.1100  0.0292
90524W        W33577   3.463  30.692  28.655 -0.2360  0.1942  0.1886
90525W        W33578  14.410  18.929   6.073 -0.2657  0.0417 -0.0257
90526W        W33579  15.080   4.212   5.969 -0.3545 -0.0187 -0.1360
90527W        W33580   2.558  31.966   1.121 -0.0292  0.3168 -0.1832
90528W        W33581  10.901   5.111   8.762  0.2575  0.0544 -0.0846
90529W        W33582   4.725   6.105   2.397  0.0717  0.0082  0.1577
90530W        W33583  19.785  11.651  15.887  0.0518  0.4637  0.0730
90531W        W33584  14.570  15.223   3.815 -0.0707 -0.0056 -0.0247
90532W        W33585  13.197   5.702   8.275  0.1667 -0.1309 -0.2013
90533W        W33586   5.882   1.329   1.245 -0.0890 -0.2776  0.1354
90534W        W33587  20.171  27.806   7.005  0.2791  0.0673 -0.1678
90535W        W33588  23.911  20.283  19.316 -0.0400 -0.1572  0.1036
90536W        W33589  21.496  15.049  10.310  0.2953 -0.2888 -0.1620
90537W        W33590  24.522  27.861   8.819  0.0985 -0.1937 -0.4042
90538W        W33591  32.944   2.541   7.320 -0.2024 -0.1666 -0.2516
90539W        W33592  25.361  34.294   5.351  0.1568  0.0698 -0.2687
90540W        W33593   4.810  15.621   8.834 -0.3879 -0.1138  0.2112
90541W        W33594  17.741  16.545   2.762 -0.0715 -0.1014 -0.3751
90542W        W33595  16.334   9.655  27.537  0.2227  0.0148 -0.1325
90543W        W33596  15.023  11.704   3.300  0.3794  0.2671 -0.1414
90544W        W33597  18.001   1.631   7.827  0.3898 -0.0325  0.4296
90545W        W33598  33.262  11.491   0.903 -0.1213  0.2237 -0.2041
90546W        W33599  19.655  14.591   2.308 -0.1467  0.3803 -0.1242
90547W        W33600  18.697  10.400   8.039 -0.1830 -0.1620  0.0586
90548W        W33601  12.291  12.659   0.366 -0.2422 -0.1703 -0.3484
90549W        W33602  21.277  30.768   8.466  0.1902 -0.4243 -0.1010
90550W        W33603   7.915  12.627   9.336 -0.0186 -0.1177  0.2683
90551W        W33604  12.851   2.693   3.450  0.0074 -0.2667  0.0650
90552W        W33605  17.154  11.728   6.820 -0.2325  0.1836  0.0829
90553W        W33606  26.784  11.521  26.604  0.0179  0.2324 -0.1256
90554W        W33607  18.571   2.473  20.972 -0.0995 -0.1287  0.1253
90555W        W33608   1.019  18.381   2.208 -0.1422 -0.1985  0.0513
90556W        W33609  12.572  19.367  25.802  0.1132 -0.2838  0.3460
90557W        W33610  24.024  20.887  18.792 -0.3947 -0.1932 -0.0484
90558W        W33611  16.329  14.131   7.246 -0.2751  0.0158 -0.1701
90559W        W33612  14.289  11.088   1.660  0.0431  0.1597 -0.3502
90560W        W33613  17.563   0.630   4.234  0.0520  0.0806  0.3159
90561W        W33614  19.295   2.960   9.367  0.0726 -0.2601  0.0233
90562W        W33615  22.504  13.617   8.703  0.0536 -0.1127  0.2672
90563W        W33616  10.059   7.885   5.555 -0.1407 -0.0650  0.0278
90564W        W33617  14.066   2.650   0.577  0.2689  0.4877 -0.1561
90565W        W33618  25.786  22.510   8.973 -0.2140  0.0905  0.4477
90566W        W33619  26.324  32.705  28.874 -0.0566 -0.1943  0.0785
90567W        W33620   7.149  26.166   5.893  0.2749 -0.2489  0.1299
90568W        W33621  11.483  22.714   7.275 -0.0593 -0.0191 -0.0933
90569W        W33622   7.099   6.756  16.186 -0.0504  0.2417  0.2580
90570W        W33623  26.868  13.546  19.600  0.0058  0.1869  0.1734
90571W        W33624  11.769  21.035  16.951 -0.0367 -0.1868  0.1629
90572W        W33625  17.777  18.314   4.893 -0.1985  0.0355 -0.0700
90573W        W33626   1.352  10.461   9.057 -0.1407 -0.0022  0.0391
90574W        W33627  29.105   1.408   1.573 -0.3591 -0.2055 -0.4493
90575W        W33628  11.113  21.509   2.980 -0.2383 -0.1329  0.2447
90576W        W33629   8.214   9.627  20.259  0.0110 -0.2777 -0.3860
90577W        W33630  10.907  12.488   0.191 -0.0629 -0.0104  0.3067
90578W        W33631  20.322  22.061   0.168 -0.1133  0.0207  0.1588
90579W        W33632  13.013   5.383   8.726  0.0544 -0.2264  0.2554
90580W        W33633  18.117  12.509  20.131 -0.5949 -0.1292  0.1864
90581W        W33634  24.448  19.404   4.347  0.1508  0.0392  0.3205
90582W        W33635   8.944  10.753   8.792  0.4013  0.0733  0.3256
90583W        W33636  11.665  19.271   6.795 -0.0198 -0.0467 -0.0460
90584W        W33637  24.906   9.940  16.784  0.1369 -0.0708 -0.0266
90585W        W33638  27.244  27.634  14.682  0.1171 -0.0929  0.1764
90586W        W33639   4.280   7.467  19.213 -0.1357 -0.0712  0.2500
90587W        W33640  16.459   7.436  18.305  0.2583 -0.0039  0.0292
90588W        W33641   7.874   7.861  26.075 -0.0722 -0.1270 -0.0849
90589W        W33642   9.878   4.594   6.890  0.0684 -0.1130  0.0862
90590W        W33643   4.131  16.371  23.767  0.0403  0.1773 -0.0649
90591W        W33644  19.041  32.203  22.187 -0.0722  0.3796  0.0499
90592W        W33645  21.403  15.316   6.146 -0.4045  0.1227  0.2060
90593W        W33646  25.226  14.933  28.109 -0.0022  0.0754 -0.2750
90594W        W33647  23.435  25.581   6.398 -0.0134  0.1107  0.0806
90595W        W33648   5.141  23.437   8.562 -0.0565  0.1456  0.1473
90596W        W33649   7.391  19.836   8.649 -0.2224  0.1459  0.1226
90597W        W33650  24.419  27.219   3.621  0.2013  0.0805 -0.1894
90598W        W33651  11.394  15.131  16.703 -0.1184  0.0780  0.1465
90599W        W33652  12.605  15.879   9.125  0.3001 -0.0564 -0.0280
90600W        W33653  17.305  10.610  22.883  0.1687  0.1371  0.2249
90601W        W33654  21.654   6.055   0.768 -0.1564  0.2006  0.0591
90602W        W33655  26.650  16.464  16.017 -0.0445 -0.1995  0.0729
90603W        W33656  26.031   7.525   4.151  0.0555  0.0721 -0.2465
90604W        W33657  29.024  20.867  17.010  0.1516  0.1539  0.0094
90605W        W33658  13.893  30.313   3.112  0.1360 -0.0163 -0.2329
90606W        W33659  19.016  13.489   6.850 -0.1802  0.1320  0.1862
90607W        W33660  25.895  27.456   3.986 -0.0158 -0.1177 -0.0542
90608W        W33661   3.986  10.461   8.677  0.0340  0.1103 -0.1345
90609W        W33662   3.605   9.664  24.815  0.1487 -0.0297 -0.1820
90610W        W33663  25.009   4.276   0.835 -0.2426  0.0935  0.1351
90611W        W33664  22.945  31.078  16.880  0.0058 -0.0673 -0.0262
90612W        W33665  14.760   3.442  25.349 -0.1306  0.3436 -0.0161
90613W        W33666  17.267   9.444  10.614  0.3963 -0.0800 -0.1835
90614W        W33667  17.044  11.955  22.292 -0.0487  0.0397  0.0232
90615W        W33668  20.904   6.724  25.509  0.2467 -0.2101 -0.0770
90616W        W33669  16.962  22.134  17.719 -0.0357 -0.1950  0.0854
90617W        W33670   4.719  14.798   4.868 -0.0607  0.4014  0.1055
90618W        W33671  13.389  13.498   9.208  0.1744 -0.0098  0.1727
90619W        W33672  11.481  29.739  18.911 -0.2251 -0.0101 -0.0651
90620W        W33673  11.002   0.328   5.162 -0.1164  0.0618  0.0915
90621W        W33674  21.986  14.123  25.656  0.0623 -0.1385  0.1385
90622W        W33675  16.510  20.550  25.583 -0.2337 -0.1723 -0.1740
90623W        W33676   9.196  13.019  20.916  0.1918 -0.1633  0.1454
90624W        W33677   4.684   6.510  28.113  0.0095 -0.1959 -0.1018
90625W        W33678   6.873  11.886   9.010  0.2772 -0.2757  0.3546
90626W        W33679  13.059   9.648   2.687 -0.1204  0.1730 -0.0500
90627W        W33680  24.522  23.469   1.255 -0.1784  0.2472  0.0388
90628W        W33681  22.940  32.253   8.462 -0.0006  0.2692  0.0600
90629W        W33682   6.513  17.314  22.369  0.1431 -0.0927  0.2575
90630W        W33683  13.706   7.133   1.359 -0.1832  0.0265  0.0003
90631W        W33684  10.560  13.737  28.298 -0.1937 -0.2109 -0.0607
90632W        W33685  15.130   8.126   4.729 -0.1108 -0.0257 -0.2153
90633W        W33686  17.818  21.669   5.753 -0.0629 -0.3214  0.5008
90634W        W33687  21.570  10.259  29.052  0.1122 -0.0537 -0.0030
90635W        W33688  10.882   8.980   9.021  0.1934 -0.0568 -0.0021
90636W        W33689  25.166  33.717   4.605 -0.1015 -0.1125  0.2359
90637W        W33690  26.190  20.353  17.155  0.2478  0.0591 -0.0421
90638W        W33691  10.269   9.634   4.081 -0.1736  0.2371  0.1736
90639W        W33692   9.887  23.626  19.490  0.2079 -0.0326 -0.0463
90640W        W33693  13.414  16.870  19.913 -0.1525 -0.0775  0.2547
90641W        W33694   2.097  13.249   3.032  0.2410  0.1663 -0.0415
90642W        W33695  11.777   1.075   3.854  0.0913  0.0235 -0.0604
90643W        W33696   5.244   9.395  15.903 -0.1529  0.3001 -0.3286
90644W        W33697  17.164  25.142   4.033 -0.0341  0.0109 -0.1398
90645W        W33698   6.773  26.095  17.657 -0.0924  0.1840  0.1823
90646W        W33699  25.565  13.409   6.250 -0.2947  0.2209 -0.0568
90647W        W33700  11.434  18.696   1.223  0.0557  0.2121 -0.2999
90648W        W33701   5.535   8.642  24.722  0.0993 -0.1941 -0.3300
90649W        W33702  19.178  33.665   4.731  0.0174 -0.0465 -0.0661
90650W        W33703  30.712  15.223  21.930 -0.1114  0.2166  0.0468
90651W        W33704  10.463   0.569   4.080  0.0906  0.0181  0.0106
90652W        W33705  16.660   9.235   8.794 -0.0988  0.2007 -0.0264
90653W        W33706  33.134   2.882   7.607 -0.1320  0.1209 -0.2345
90654W        W33707  15.469  12.722  25.748  0.0137  0.0045 -0.0985
90655W        W33708   8.865   0.349   7.329 -0.0866  0.3662 -0.1418
90656W        W33709  12.430  22.229  15.161  0.0967  0.3515  0.0924
90657W        W33710   5.115  13.973  23.196 -0.4768 -0.1356  0.3222
90658W        W33711   4.854  25.327  20.485  0.1777  0.1130 -0.0996
90659W        W33712   0.716  22.614   2.936  0.0550  0.4929 -0.0978
90660W        W33713  11.105   8.376  10.074  0.0729 -0.0792 -0.1183
90661W        W33714  32.666  26.347  28.729  0.0328  0.0173  0.1482
90662W        W33715  22.423  17.986  20.653 -0.0440 -0.2331 -0.0317
90663W        W33716   9.375   5.341  10.286  0.0941 -0.2070  0.0989
90664W        W33717  15.353  16.333  23.760 -0.3042 -0.2048  0.0339
90665W        W33718  15.202  17.032   5.546  0.1354  0.2015 -0.0009
90666W        W33719   8.669  12.126   3.294  0.2464  0.1545 -0.1663
90667W        W33720   4.359  24.039  18.958  0.0785  0.2634 -0.0488
90668W        W33721   6.289  14.020   0.975 -0.2011  0.1436  0.0734
90669W        W33722  10.033  16.108  27.752 -0.4122  0.1719  0.1731
90670W        W33723   1.654  31.335   2.954 -0.1704  0.1325 -0.0503
90671W        W33724  11.690  12.453   0.976 -0.1595  0.0557 -0.1479
90672W        W33725   2.334  11.765   9.924 -0.1696  0.2006  0.0325
90673W        W33726   3.338  16.031   8.588 -0.1451 -0.1514  0.0983
90674W        W33727  17.063   4.985  15.366  0.0771  0.1280  0.1878
90675W        W33728  12.750  16.829  19.765  0.2932 -0.0807  0.1386
90676W        W33729  21.899  30.007   3.707 -0.1343  0.0663  0.0691
90677W        W33730   2.049  12.136  23.706  0.2894 -0.0627  0.0346
90678W        W33731  14.772  18.346  22.003  0.1464 -0.1710  0.2828
90679W        W33732  15.487   3.334  27.204  0.0693 -0.0446  0.3439
90680W        W33733  17.321   3.528  20.840 -0.0296  0.1058 -0.1673
90681W        W33734  24.699  18.923   8.270  0.1447  0.0009  0.2351
90682W        W33735  12.884  23.067  20.069  0.0925 -0.0378  0.4113
90683W        W33736  13.405   1.134  15.672  0.4056 -0.0109  0.0330
90684W        W33737  33.155  18.349  29.116 -0.0568 -0.1348 -0.1807
90685W        W33738  19.877  19.409   5.054  0.2357  0.0070 -0.1793
90686W        W33739  22.493   5.856   2.350  0.1546 -0.0014 -0.2578
90687W        W33740   6.477  12.264  23.550  0.0368  0.0076  0.0035
90688W        W33741  14.234   1.092   2.734 -0.1748  0.0779  0.0821
90689W        W33742  29.773  14.147  25.586 -0.1183 -0.3814  0.0268
90690W        W33743  14.008  15.702   4.510 -0.2060 -0.0859 -0.1791
90691W        W33744   9.140   3.275   2.359 -0.1958 -0.1366 -0.0981
90692W        W33745   7.171  12.847   9.280 -0.1888  0.0253 -0.0547
90693W        W33746   6.503  15.383   1.829  0.0518  0.2637 -0.1862
90694W        W33747  31.870  15.933   0.676  0.1075  0.2387  0.0618
90695W        W33748  16.902  34.304   7.975 -0.2382  0.2091 -0.0080
90696W        W33749  13.361   9.013  15.072  0.0423  0.0433 -0.2359
90697W        W33750   2.518  12.509  22.808  0.0830  0.1938  0.1192
90698W        W33751  18.924  29.372  16.354  0.2461 -0.1294  0.0013
90699W        W33752   5.935  10.229   8.905  0.0473 -0.0751 -0.0164
90700W        W33753  10.381  20.785  28.328 -0.2304  0.3214  0.0520
90701W        W33754   8.736  16.406   7.843  0.3302 -0.2995 -0.0749
90702W        W33755  19.178  18.663  26.600 -0.0729 -0.0629  0.3893
90703W        W33756  24.928   9.008  17.254 -0.1737 -0.0578 -0.1116
90704W        W33757  29.183  28.186   0.614  0.0667  0.1070 -0.1052
90705W        W33758  21.775   5.964   6.930  0.0748 -0.0671 -0.1701
90706W        W33759  12.368  19.350   3.550 -0.0647  0.5064 -0.1168
90707W        W33760   3.860  16.796   0.638  0.4334  0.0207  0.0489
90708W        W33761  18.083  18.257   5.906 -0.3405 -0.0772 -0.4096
90709W        W33762  23.792  20.523  28.991 -0.0666  0.0647 -0.2955
90710W        W33763   7.217  14.143  20.255 -0.0206 -0.0175  0.2451
90711W        W33764  14.601   6.098   3.160 -0.0257 -0.0208 -0.2128
90712W        W33765  27.175  12.161   4.593  0.0093 -0.0204  0.1102
90713W        W33766  13.486   1.139  23.833  0.1704 -0.1383 -0.0390
90714W        W33767  25.497  13.563   9.589 -0.1890  0.0340 -0.0404
90715W        W33768   3.691   9.935   9.477 -0.1352 -0.0843 -0.3197
90716W        W33769   7.286  29.030   1.458  0.1537 -0.2494 -0.1522
90717W        W33770  33.372  21.589   8.365 -0.0327 -0.0009 -0.0149
90718W        W33771   3.073  13.552  25.614 -0.0063 -0.1979 -0.0013
90719W        W33772   3.217   3.244  14.174  0.0974 -0.3677 -0.4058
90720W        W33773  16.530  16.366  29.161  0.1339  0.1323 -0.3141
90721W        W33774   3.143  19.376  28.958  0.3638  0.3017 -0.1337
90722W        W33775   4.480  10.184  23.904  0.3010 -0.0483  0.0712
90723W        W33776  26.213  22.955   4.290 -0.0200  0.2170 -0.0309
90724W        W33777   6.111  12.149  26.803  0.3397  0.0170 -0.0113
90725W        W33778  22.062  27.818   2.141  0.1599  0.1113  0.0439
90726W        W33779  30.965  15.846  22.628  0.2422  0.1426  0.1321
90727W        W33780  21.553  17.597  19.674 -0.0074  0.0032 -0.1120
90728W        W33781  19.317  17.826   2.835  0.0869 -0.4170 -0.4003
90729W        W33782  33.255  29.395   8.316 -0.2822 -0.2770  0.0642
90730W        W33783  12.011   6.849  16.500  0.2404  0.0840 -0.0001
90731W        W33784  13.160   5.377   7.255 -0.1783 -0.0452  0.0465
90732W        W33785  13.846  11.954  10.706 -0.2986 -0.3433 -0.3501
90733W        W33786  15.486  11.590  22.257  0.3430  0.1392  0.0175
90734W        W33787  19.726  27.825   4.316 -0.0883 -0.1697  0.2681
90735W        W33788  27.047  22.123  20.049  0.2916 -0.0914 -0.1366
90736W        W33789  12.819   7.519  21.205  0.0827 -0.2958 -0.1776
90737W        W33790  16.406  10.666  23.247 -0.3874  0.1558  0.1667
90738W        W33791   7.568  21.470   5.732  0.0773 -0.2456 -0.2446
90739W        W33792   6.336  33.446   6.838 -0.0100 -0.0705 -0.1030
90740W        W33793  23.016   2.835   6.211 -0.3553 -0.3249 -0.3001
90741W        W33794   1.664   6.553   8.778  0.2619  0.1902  0.3108
90742W        W33795  11.638   3.552   2.083  0.2075 -0.1164 -0.3173
90743W        W33796   1.256   9.682   2.711 -0.0150 -0.1298  0.1375
90744W        W33797   1.030   3.426   8.757  0.2310 -0.0914  0.4377
90745W        W33798   1.934   3.281   1.634 -0.1282  0.3524 -0.3394
90746W        W33799   3.484  28.581  22.667  0.2026 -0.1665  0.0581
90747W        W33800  27.487   9.116   8.180 -0.0279 -0.0637 -0.0037
90748W        W33801  23.265  19.777   6.289 -0.1072  0.1011 -0.2640
90749W        W33802  18.771   8.923   6.351 -0.4599 -0.0173  0.0074
90750W        W33803  15.592   5.885   1.739  0.1366 -0.2466 -0.2905
90751W        W33804   6.446  32.829   7.095 -0.0370 -0.0289 -0.1507
90752W        W33805  33.413  21.207   6.335 -0.2208 -0.0009 -0.1546
90753W        W33806  30.313   1.066   3.499  0.3775  0.0459  0.1300
90754W        W33807   4.672   5.143   5.024 -0.1017 -0.2388 -0.2122
90755W        W33808  15.450   8.474  20.977  0.1725  0.0743 -0.3446
90756W        W33809  25.418  10.679   8.752 -0.1154 -0.0665  0.2028
90757W        W33810   1.812  30.368   0.506 -0.0448 -0.0943  0.1175
90758W        W33811  31.802  18.381   3.524  0.0787 -0.0971  0.1997
90759W        W33812  11.797  14.267   8.835  0.1081  0.2586 -0.2952
90760W        W33813   6.143   8.418  25.633 -0.1596 -0.2529  0.2112
90761W        W33814   7.689   5.198   4.227  0.1732 -0.0785  0.1207
90762W        W33815   8.310  23.718   2.858 -0.0161  0.1626 -0.0158
90763W        W33816   7.093  33.366  17.171  0.3037  0.0106 -0.1755
90764W        W33817  21.755  16.970  25.178  0.2148  0.0487 -0.3151
90765W        W33818  23.501   3.697  28.437  0.1011  0.1777  0.0839
90766W        W33819   9.341   3.001   7.283  0.3492 -0.4925  0.0478
90767W        W33820  20.221   3.813   9.335  0.3323 -0.2975 -0.1081
90768W        W33821  31.861  13.487   5.775  0.0230 -0.0158  0.0965
90769W        W33822   7.584   6.647   5.022  0.0244 -0.0434 -0.1632
90770W        W33823  19.663   7.844  14.781 -0.0684 -0.1858  0.0039
90771W        W33824   4.415  33.661  19.739 -0.1406 -0.3513 -0.1041
90772W        W33825  23.558   5.407   8.584  0.1159  0.0237  0.1188
90773W        W33826  29.222  22.771   6.625  0.2325 -0.0314 -0.0537
90774W        W33827   7.835  14.603   1.535 -0.0057 -0.0126 -0.0186
90775W        W33828  30.760  17.326   1.063  0.0044 -0.1829 -0.1680
90776W        W33829  11.922   8.501  22.686 -0.0902  0.0479 -0.1141
90777W        W33830  33.187   0.775   2.627 -0.1244 -0.2756  0.1262
90778W        W33831   0.191   3.310   6.816  0.2428  0.1671 -0.2576
90779W        W33832  11.693   9.799   8.514  0.0398 -0.1590 -0.0281
90780W        W33833   4.516  15.168   8.747  0.1271  0.0117 -0.0292
90781W        W33834  27.079   4.064  19.323 -0.0975 -0.3690 -0.0361
90782W        W33835  14.153   8.425  29.056  0.0574  0.0956  0.5253
90783W        W33836  25.129  16.697  25.765  0.0795 -0.1842  0.2753
90784W        W33837  29.737  19.157   2.465  0.3880  0.0933  0.0078
90785W        W33838   5.205   9.558  17.841 -0.3440  0.1309 -0.1999
90786W        W33839   9.148  13.890   2.346  0.2075 -0.0315 -0.1316
90787W        W33840   5.505   7.882   9.755  0.0892 -0.2410 -0.3223
90788W        W33841   7.468  13.178   7.836  0.1120  0.0737 -0.0499
90789W        W33842  27.255   5.910   4.736 -0.1095  0.1958 -0.0752
90790W        W33843   5.988  13.608   5.250 -0.1802  0.1102 -0.1359
90791W        W33844  12.055  14.113  21.301 -0.0906 -0.1984  0.1624
90792W        W33845  11.158   5.117   4.675  0.0429 -0.0437 -0.1037
90793W        W33846  18.722  20.242   0.117 -0.5424  0.0756  0.1444
90794W        W33847   1.387   5.058   7.073 -0.0493  0.1412  0.1682
90795W        W33848  19.213  19.668  25.688 -0.1935  0.1408 -0.1350
90796W        W33849   1.374   0.367   4.531  0.1272  0.1029  0.0015
90797W        W33850   2.932  11.819  27.978 -0.2527 -0.0553 -0.3579
90798W        W33851   5.215  17.639  27.427 -0.1833 -0.1889 -0.0106
90799W        W33852  18.630  31.856  28.261  0.5592  0.1235 -0.0187
90800W        W33853   1.060  14.079  28.524  0.1160 -0.0642 -0.1421
90801W        W33854  23.296  14.570   8.061  0.0454  0.1854 -0.1217
90802W        W33855   7.806  14.443   2.455  0.0124  0.1167  0.2677
90803W        W33856   1.859   3.078   7.426  0.3453 -0.0194  0.1245
90804W        W33857   9.635   6.784   9.308 -0.0155 -0.0020 -0.2643
90805W        W33858  30.052  34.137  25.574  0.0245 -0.0217 -0.1062
90806W        W33859  19.203  15.637  27.667 -0.0990  0.4442 -0.3808
90807W        W33860   8.097  13.589  28.267  0.0275  0.3402  0.0012
90808W        W33861   6.319  32.422  22.195 -0.1267 -0.1050  0.0609
90809W        W33862   5.674   9.880  26.810 -0.1371  0.3445  0.2449
90810W        W33863  11.322  29.133   4.778 -0.2552  0.0812  0.2616
90811W        W33864   8.056  11.575   7.419  0.0001  0.2447 -0.2262
90812W        W33865  11.751   5.483   3.740 -0.0682  0.1518 -0.1129
90813W        W33866  10.659  24.623   7.103  0.0942 -0.0534  0.0810
90814W        W33867   3.612  12.487   8.151 -0.1340  0.1358  0.0446
90815W        W33868   0.943   3.338   0.846  0.0756  0.1221 -0.0642
90816W        W33869  24.359  15.073   4.623 -0.3979  0.2294 -0.1015
90817W        W33870  21.957  31.952  26.797 -0.0610 -0.1039 -0.0420
90818W        W33871  10.729  18.187   7.542  0.2945  0.0812  0.0300
90819W        W33872  21.093  18.405  24.196 -0.2718 -0.1971 -0.2361
90820W        W33873   7.521  24.852  16.564  0.0007  0.3477  0.0720
90821W        W33874  28.038   6.819  26.437  0.0816 -0.1585 -0.2297
90822W        W33875  22.874  17.723   2.274  0.2079 -0.2486 -0.3561
90823W        W33876  34.175   1.636  20.282 -0.1464 -0.3365 -0.2689
90824W        W33877  18.431   8.935   6.025  0.2357  0.0228 -0.2561
90825W        W33878  24.414  16.219  22.266  0.3150  0.1966  0.0463
90826W        W33879  10.449  17.302   5.848  0.2078 -0.0335  0.0654
90827W        W33880  11.641  26.381   4.928  0.1433  0.0109 -0.3384
90828W        W33881   7.739   2.000  14.655 -0.2485 -0.1143  0.1476
90829W        W33882  22.711   9.574  26.593 -0.2081 -0.0249  0.1903
90830W        W33883  15.377  28.417   6.613  0.0275  0.0709  0.0381
90831W        W33884   7.326  11.178   5.447 -0.3213  0.0043 -0.1478
90832W        W33885  11.444  21.095  25.040  0.0720  0.1089 -0.0414
90833W        W33886  26.270   5.428  22.291  0.0159 -0.0233  0.0944
90834W        W33887   0.707  13.112   2.115 -0.0403 -0.3199 -0.0038
90835W        W33888   3.800  15.604   9.371  0.1257  0.1174 -0.1009
90836W        W33889   4.262  19.639  27.618  0.0979 -0.0938  0.1606
90837W        W33890  16.031  26.014  19.501 -0.1747 -0.1490  0.2526
90838W        W33891  15.199   7.307  25.926  0.2139 -0.1886  0.1771
90839W        W33892   6.541  15.654   3.235  0.0316  0.1316 -0.0384
90840W        W33893   1.232  13.955   7.202  0.1841  0.1933  0.1985
90841W        W33894  28.352   7.792   7.902  0.1214 -0.2328  0.1862
90842W        W33895  30.524   5.048  14.414  0.2198 -0.1247 -0.0018
90843W        W33896  32.940  13.198   7.414 -0.2563  0.0157  0.2270
90844W        W33897   7.113   8.794   9.277 -0.1879  0.0055 -0.1169
90845W        W33898  30.091  11.961  28.774 -0.0896  0.2175 -0.1080
90846W        W33899  12.314   9.865  27.866  0.0737 -0.0287  0.1225
90847W        W33900  31.627   8.035   8.382 -0.1220  0.3701 -0.0661
90848W        W33901   3.645   2.554   9.024 -0.0082 -0.2210 -0.1977
90849W        W33902  21.071   2.003   9.355 -0.2842 -0.0617  0.2142
90850W        W33903   7.747  18.657  27.607  0.0223  0.0483  0.1347
90851W        W33904  18.278  29.564   9.700 -0.3824 -0.2100  0.0135
90852W        W33905   2.035   7.014  20.241  0.1984  0.0817 -0.1995
90853W        W33906  29.472  27.476  27.926  0.0051  0.0920 -0.3748
90854W        W33907  23.119   5.356  23.538  0.0374  0.1276  0.3263
90855W        W33908  13.335  14.303   4.690 -0.0963 -0.0002  0.0991
90856W        W33909  33.267  29.071  29.173  0.4174  0.1495 -0.0141
90857W        W33910   4.688  23.694   1.912 -0.1125 -0.0229 -0.2119
90858W        W33911  14.570   7.379   9.896 -0.4304 -0.0462 -0.3779
90859W        W33912   7.858   7.437   8.971 -0.0142 -0.0138 -0.0746
90860W        W33913  12.181  17.331   9.722 -0.2241  0.2378 -0.3286
90861W        W33914  19.229  13.622   9.637  0.2150  0.2281 -0.1195
90862W        W33915   6.062  28.184   1.250 -0.3460 -0.0898  0.1222
90863W        W33916   8.949   8.657  28.276  0.0101 -0.2576 -0.1589
90864W        W33917  17.201   6.094  26.660  0.2180  0.0729  0.2727
90865W        W33918   9.118  16.195   7.638 -0.0617 -0.0391  0.0218
90866W        W33919   8.434   5.665  17.830  0.3328  0.1624 -0.3438
90867W        W33920  13.547   9.692   4.831 -0.3029  0.2972  0.2261
90868W        W33921  19.060  14.519   9.411 -0.3069  0.1887  0.3373
90869W        W33922   5.132  34.497   5.619 -0.3880 -0.2453 -0.0930
90870W        W33923  28.472  15.210  27.062  0.0892  0.0636 -0.0343
90871W        W33924   1.443   3.983   9.186  0.0825 -0.0046 -0.1310
90872W        W33925   1.935   8.992   5.151  0.1236 -0.0430  0.0834
90873W        W33926  16.662  10.966   7.886 -0.2355  0.0178  0.0544
90874W        W33927  29.348  20.633   4.787 -0.0008 -0.0600  0.1837
90875W        W33928   3.551  12.435   6.990 -0.1009 -0.2023  0.0959
90876W        W33929  24.256  12.804   1.649  0.0758 -0.0730  0.1099
90877W        W33930  10.959  15.999   7.858 -0.2432  0.0160  0.2698
90878W        W33931  28.161  11.995  23.360  0.0386  0.1688  0.2856
90879W        W33932  13.435   2.008   0.897 -0.2071 -0.2115 -0.1716
90880W        W33933  10.889  22.106   4.327  0.0663 -0.2030 -0.1907
90881W        W33934  14.896  10.642   1.856 -0.0480 -0.0277 -0.1461
90882W        W33935  16.303  30.550   4.608  0.0034  0.2660 -0.2406
90883W        W33936   5.300  16.501   4.409  0.3523  0.1165 -0.0761
90884W        W33937  14.081  13.068  17.296  0.0763 -0.1005  0.2101
90885W        W33938  14.207  12.334   2.606 -0.1057  0.2115 -0.0832
90886W        W33939  15.218  34.218  28.206 -0.0725 -0.1962 -0.1645
90887W        W33940  10.440  28.719   4.323 -0.0212 -0.0137 -0.0633
90888W        W33941   8.806  14.512   9.646 -0.1336  0.0849 -0.0788
90889W        W33942   1.097   9.670   4.081 -0.0458 -0.0044  0.0030
90890W        W33943  11.497   2.496   6.935  0.3150 -0.1084 -0.0286
90891W        W33944  17.487  12.213   9.828  0.0248 -0.0949 -0.2117
90892W        W33945  21.507   4.273  25.717 -0.2582  0.1165  0.0910
90893W        W33946   4.575  11.484   2.218  0.1053 -0.0419 -0.1059
90894W        W33947   4.302  14.499  21.675 -0.1127  0.2158 -0.0245
90895W        W33948  17.186  22.956   4.591 -0.2064 -0.2346 -0.2404
90896W        W33949   8.313   8.555   3.292  0.1000  0.1165 -0.2294
90897W        W33950  13.932   7.980  21.857  0.1409  0.0243 -0.4228
90898W        W33951  12.437  26.960  18.500 -0.0666  0.0574  0.1316
90899W        W33952  21.209  24.531   0.446  0.0476  0.1576 -0.1384
90900W        W33953  20.356  19.397   7.688  0.1603 -0.2674 -0.2999
90901W        W33954  25.728  13.135   9.751  0.2496 -0.1796  0.2944
90902W        W33955   2.475  14.652  19.893 -0.3327  0.2599 -0.2444
90903W        W33956  11.115  19.588   1.144  0.2713 -0.0088 -0.1227
90904W        W33957  16.600   0.792  20.573 -0.1534  0.2748 -0.0503
90905W        W33958  12.020   7.009   1.043 -0.3070 -0.2140 -0.1814
90906W        W33959  12.820  17.677   1.608 -0.3008 -0.1033 -0.0370
90907W        W33960   9.427  14.097   6.825 -0.1369  0.7950 -0.0937
90908W        W33961  16.465  16.336   5.868  0.1360  0.0570 -0.1068
90909W        W33962  13.842  27.022   4.757 -0.2791 -0.0752 -0.0248
90910W        W33963   1.027  15.357   8.034 -0.1424  0.1223  0.2555
90911W        W33964  29.504  10.683   7.042 -0.4366  0.1456 -0.2758
90912W        W33965  15.302   9.859   3.777 -0.1474  0.0896 -0.2344
90913W        W33966   8.689  26.433   2.427 -0.0649  0.1462 -0.0293
90914W        W33967  16.410  14.144   3.593 -0.3658  0.0946 -0.0424
90915W        W33968   9.276  12.489   9.523 -0.1533 -0.3162 -0.1092
90916W        W33969   1.692  26.952   1.572  0.1105  0.1410  0.0877
90917W        W33970   2.199  25.036  24.581 -0.0382 -0.2321 -0.3897
90918W        W33971   5.620  14.183   2.893 -0.1601  0.0768  0.0102
90919W        W33972  24.332   6.555   8.353 -0.1840 -0.2889  0.2933
90920W        W33973  16.519  15.289   2.182 -0.0456  0.0095  0.0175
90921W        W33974  33.548  14.247   6.670  0.2837  0.0580  0.2349
90922W        W33975  22.437  13.959   0.673 -0.0425  0.1763 -0.1175
90923W        W33976  32.066  15.544   4.832 -0.0182  0.0924 -0.3449
90924W        W33977  19.336   3.387   8.927  0.1181 -0.0251 -0.1404
90925W        W33978  33.900  13.628   0.441 -0.1520 -0.0784 -0.1208
90926W        W33979  16.969  24.972  10.785 -0.3805 -0.0841  0.0249
90927W        W33980   6.159   4.585   2.570 -0.1582 -0.2435 -0.0744
90928W        W33981  24.326   9.495   3.819  0.1613 -0.0457 -0.1902
90929W        W33982  25.651  28.390   4.326 -0.0857 -0.0196  0.0085
90930W        W33983  22.425  20.735   9.618  0.2019  0.3759 -0.0440
90931W        W33984   2.378  30.011  26.882 -0.0123 -0.1936  0.0576
90932W        W33985   6.618   6.140   1.578 -0.1624 -0.0733 -0.2350
90933W        W33986  22.998  13.725   8.793  0.0461  0.0438 -0.1196
90934W        W33987   3.236   6.517   3.254 -0.1098  0.1288  0.2171
90935W        W33988  18.427   5.068   8.377 -0.0458  0.2758  0.2393
90936W        W33989  11.745   1.545   3.562  0.2757 -0.2872  0.0212
90937W        W33990  11.240  32.895  23.555 -0.0117  0.0626  0.0923
90938W        W33991  24.935  17.762  28.455 -0.1071 -0.0322 -0.1092
90939W        W33992  17.446   4.471  26.442  0.0712 -0.4208  0.1656
90940W        W33993  15.191  14.011  26.525 -0.1590  0.1986 -0.1233
90941W        W33994  12.376   5.752   4.449 -0.2499 -0.0609  0.4678
90942W        W33995  24.103  34.054   6.870 -0.0520 -0.2545  0.1442
90943W        W33996   5.650  10.726   9.051 -0.2012  0.0662  0.3342
90944W        W33997  21.765  25.471   8.702  0.0053 -0.0156 -0.3107
90945W        W33998  12.039  20.922   8.984  0.1041 -0.0180 -0.2760
90946W        W33999  11.532  24.915   5.607  0.0600  0.0408  0.1670
90947W        W34000  13.905   8.814   4.062 -0.1525 -0.1925  0.0391
90948W        W34001  16.100  17.917  24.394  0.2938 -0.0244 -0.0358
90949W        W34002  22.795  14.702   9.805  0.2481 -0.0232  0.0832
90950W        W34003  11.303  18.282  26.476 -0.1896 -0.1841 -0.0272
90951W        W34004  25.797  19.801   0.109  0.4934  0.1846 -0.2074
90952W        W34005  22.901   4.000  23.074 -0.0289  0.0262 -0.0350
90953W        W34006  17.881  18.933  28.483 -0.2604 -0.0570 -0.2293
90954W        W34007   0.674  15.237  26.640 -0.0072  0.0420  0.2806
90955W        W34008  16.946  19.316   0.836 -0.2194 -0.1822 -0.0822
90956W        W34009   2.415  23.065   6.299  0.1091 -0.3760 -0.1175
90957W        W34010  19.147  17.055  21.139 -0.3940 -0.2274  0.4406
90958W        W34011  23.924   2.100   5.579 -0.0172  0.2512  0.2354
90959W        W34012  10.799  32.479  10.365  0.0306 -0.0790  0.1520
90960W        W34013  21.995  12.738  21.561 -0.1311 -0.3392  0.1723
90961W        W34014  17.096  15.132  15.531  0.1587 -0.0895 -0.1272
90962W        W34015  26.569  17.382  25.510  0.0869 -0.4398 -0.2869
90963W        W34016  22.201  11.728  28.452 -0.1153  0.2276 -0.2879
90964W        W34017  25.307  26.362  26.772  0.2096 -0.1647  0.1446
90965W        W34018  31.414   1.519  27.972  0.0908 -0.0435  0.0484
90966W        W34019  21.381  10.390  14.541  0.0048  0.0338 -0.1367
90967W        W34020   7.378  15.950   1.888  0.1203 -0.3635 -0.1448
90968W        W34021  19.183  15.363   5.933  0.1078 -0.1724  0.0955
90969W        W34022  27.724   2.171   0.431 -0.1393 -0.0763  0.3130
90970W        W34023  22.914  18.036  15.540  0.1604  0.2697  0.0928
90971W        W34024  20.567  16.351   8.481 -0.1981 -0.0220 -0.0958
90972W        W34025  18.689  12.189   5.111 -0.1261 -0.0980  0.0492
90973W        W34026  13.973  18.273  10.585  0.1030  0.0241 -0.1379
90974W        W34027  33.231   0.420  19.714 -0.1946  0.2270 -0.0999
90975W        W34028  13.058  18.133  28.095 -0.1855 -0.1104 -0.2011
90976W        W34029   0.119  13.993   3.614  0.0079  0.1347 -0.2760
90977W        W34030  17.494  12.126  20.675  0.0804  0.3207 -0.2796
90978W        W34031  19.143  17.325  28.147  0.1796  0.0082 -0.0155
90979W        W34032  30.037  13.112   7.646  0.0750  0.1302 -0.0854
90980W        W34033  15.719   3.803   9.756 -0.3375  0.1800 -0.0938
90981W        W34034  19.819  24.218   2.394 -0.2945  0.2899  0.0651
90982W        W34035  24.446   7.843   2.820  0.2794 -0.1349 -0.2879
90983W        W34036  21.903   3.814   4.822  0.0398  0.2294 -0.4118
90984W        W34037  28.295  12.279   6.886 -0.0005 -0.0146 -0.3420
90985W        W34038   7.930   8.290   6.642 -0.0395 -0.0410  0.1203
90986W        W34039  15.742  18.961  28.786 -0.0823 -0.0827  0.4629
90987W        W34040  20.267  33.056   5.129  0.1383  0.1188 -0.0259
90988W        W34041  25.341   7.585   3.050 -0.2499  0.1368 -0.0835
90989W        W34042   3.312   0.812   3.398  0.0313  0.3447 -0.0942
90990W        W34043  20.052  10.808   0.050  0.0970  0.2525  0.2339
90991W        W34044  20.826   5.550  28.120  0.1093  0.3615  0.1548
90992W        W34045  20.506  15.648   7.892  0.0827 -0.1720 -0.0531
90993W        W34046  16.125  15.420  25.088 -0.2188 -0.1916 -0.1742
90994W        W34047   9.970  15.865   3.057  0.0803 -0.0175 -0.1168
90995W        W34048   2.235  25.570   0.879 -0.1240 -0.2704 -0.3060
90996W        W34049  10.797   0.819  10.140  0.0359  0.1303 -0.3098
90997W        W34050   0.157  14.092   7.155 -0.3235  0.0286  0.1160
90998W        W34051  29.189  34.579  16.944 -0.0093 -0.1228 -0.0654
90999W        W34052  18.534  14.492   4.085 -0.0432 -0.2559 -0.0475
91000W        W34053   2.668  22.343   4.478 -0.3036  0.2766 -0.0180
91001W        W34054  11.768  11.509   7.048  0.2706  0.1783 -0.1017
91002W        W34055  20.122  11.514  22.537  0.1189 -0.3125  0.1122
91003W        W34056  16.977   8.023   5.561 -0.1799  0.1156  0.1010
91004W        W34057  10.871  14.179   5.151 -0.1264 -0.2247 -0.2484
91005W        W34058  13.368  20.018  28.816  0.0242  0.1607 -0.1008
91006W        W34059   7.486   5.912  10.119  0.0002  0.0855  0.1739
91007W        W34060  29.739   6.376   2.547  0.1272  0.1073 -0.0917
91008W        W34061   5.010  16.598  25.770 -0.0718  0.2023 -0.2143
91009W        W34062   6.701  21.150  10.021 -0.2157 -0.0277  0.1677
91010W        W34063  14.702   9.765   3.496  0.1695  0.0546 -0.0469
91011W        W34064   1.937  20.938   4.610  0.0051 -0.1708  0.0589
91012W        W34065   8.919  13.052   1.330 -0.0469  0.0741  0.1008
91013W        W34066  24.124  16.796  27.924 -0.0931  0.2687 -0.4351
91014W        W34067  12.800  32.649  10.162 -0.0522 -0.0018 -0.2803
91015W        W34068   1.302  22.688  28.896 -0.0870 -0.1222 -0.0354
91016W        W34069  23.286  21.807   1.771  0.0262 -0.1056  0.2168
91017W        W34070  10.029  21.668   0.967 -0.3690  0.3548  0.2010
91018W        W34071  27.189  11.396   1.333  0.0493  0.2565 -0.0778
91019W        W34072   3.646  11.693   4.858  0.2267 -0.0359  0.0219
91020W        W34073  18.762  13.569   0.391  0.0406  0.2113 -0.0240
91021W        W34074   7.516  19.992   3.308 -0.0029 -0.2673  0.1069
91022W        W34075  16.843  23.154   7.601 -0.1201  0.1592  0.0673
91023W        W34076  24.697   6.401   6.201 -0.1159 -0.3462 -0.2524
91024W        W34077   4.749  22.189   8.253 -0.1005 -0.2710 -0.0851
91025W        W34078   7.431  15.581   0.349  0.0198  0.0116  0.2950
91026W        W34079  14.852  12.266   3.367 -0.1627 -0.0589  0.1663
91027W        W34080   1.856  17.863  15.392 -0.0039 -0.1753 -0.1262
91028W        W34081   7.353  11.325  20.018  0.0684  0.1386 -0.3089
91029W        W34082   6.586  11.381   0.242  0.1432 -0.1695  0.4262
91030W        W34083   9.221   5.843  20.784  0.1327 -0.0857 -0.1738
91031W        W34084  22.078   3.735   2.938  0.0005 -0.0476  0.4677
91032W        W34085  18.565  22.165   4.715  0.1706 -0.0881  0.0306
91033W        W34086  31.632   8.404   8.762 -0.2223 -0.2870  0.0688
91034W        W34087   2.382   0.386  27.771 -0.0045  0.1162 -0.0354
91035W        W34088  18.641  11.043   0.092 -0.3104 -0.0425 -0.0576
91036W        W34089  13.770  10.673  21.111  0.0080 -0.2120  0.4628
91037W        W34090   6.784   5.514   3.000  0.0887 -0.0444 -0.1744
91038W        W34091  27.089  20.840   3.680 -0.3211  0.0934 -0.0492
91039W        W34092  15.284   6.432   9.582 -0.2098 -0.2588  0.0817
91040W        W34093   8.553  34.275  10.042 -0.0602 -0.3029  0.0524
91041W        W34094  17.464   4.162   8.122 -0.4146  0.4122 -0.1841
91042W        W34095   3.914   1.051  26.967 -0.3196 -0.0164 -0.0518
91043W        W34096  30.949  31.422  14.894  0.4219  0.0826 -0.2574
91044W        W34097   1.971   8.375   1.749  0.0084 -0.1447  0.0346
91045W        W34098  10.560   3.768   6.902 -0.2052 -0.1556  0.0686
91046W        W34099  11.139  12.561   1.231 -0.0881 -0.2655 -0.3699
91047W        W34100   3.181  13.354   2.220 -0.1126  0.2777  0.1597
91048W        W34101  34.410  11.634   0.532 -0.0726  0.0190  0.0814
91049W        W34102  19.649   9.159  16.578  0.1413 -0.2339  0.1075
91050W        W34103  16.290   2.046   1.300 -0.2687 -0.1387 -0.0208
91051W        W34104  21.245  16.319   1.676  0.0027  0.2797 -0.1296
91052W        W34105  18.516  22.904   0.172 -0.1261 -0.2309 -0.2535
91053W        W34106  23.583  11.534  14.209 -0.0241 -0.0655  0.2067
91054W        W34107   2.041  34.568  29.164  0.3290  0.0624 -0.1083
91055W        W34108  10.095  22.980   9.074  0.0973  0.0520 -0.1031
91056W        W34109  26.985  15.271  26.165  0.0663  0.1151  0.1719
91057W        W34110  11.797  16.457  24.879 -0.2778 -0.0760  0.1957
91058W        W34111  18.468   6.061  22.315 -0.0088 -0.2449  0.3416
91059W        W34112  22.587  33.854   7.562 -0.2738 -0.2211 -0.2246
91060W        W34113  25.554  19.203   2.984 -0.2446 -0.1623  0.0217
91061W        W34114   9.023  24.589   4.308  0.3072 -0.0340 -0.2651
91062W        W34115  15.830   6.483   7.366  0.1358 -0.3209  0.2112
91063W        W34116  22.364  14.252   1.410 -0.2147 -0.1694 -0.3916
91064W        W34117   4.888  27.968  20.408  0.1176 -0.1198  0.1317
91065W        W34118  12.720  22.180  14.346 -0.0461 -0.0467  0.0391
91066W        W34119   7.335  23.606   7.814 -0.1363  0.2795  0.1438
91067W        W34120  17.104   9.987   0.587  0.3494 -0.0787  0.0903
91068W        W34121  12.705  29.915   6.972 -0.0455 -0.1792  0.0529
91069W        W34122  14.862  13.395   7.191  0.2481  0.1432 -0.0377
91070W        W34123   8.016  14.551   4.972 -0.0343  0.1235  0.1906
91071W        W34124  16.557  11.824   8.365 -0.1891  0.0730  0.1658
91072W        W34125  28.842  13.545   5.393 -0.0243  0.0746  0.0215
91073W        W34126  19.756   1.688  23.045  0.1351 -0.1595  0.0276
91074W        W34127  11.337  27.950   6.470  0.0376 -0.1120  0.2653
91075W        W34128  12.573  20.698   2.105 -0.2433 -0.0303  0.1501
91076W        W34129  10.248  27.881   8.859 -0.1226 -0.1496  0.1929
91077W        W34130  21.336  21.926   0.065  0.3358 -0.2188 -0.0824
91078W        W34131   1.790  10.482   2.895  0.0995 -0.2488 -0.0616
91079W        W34132   5.759  17.947   7.464  0.1171  0.0011 -0.3083
91080W        W34133  18.837  12.468   3.091 -0.0993  0.1245 -0.0501
91081W        W34134  13.479   5.581   6.341 -0.2692 -0.0139 -0.2923
91082W        W34135  33.189   5.722  27.747 -0.1449  0.0835 -0.1858
91083W        W34136  16.245  29.595  20.449 -0.0907  0.0019  0.0181
91084W        W34137  13.248  17.670   7.020  0.1410 -0.1966 -0.2801
91085W        W34138  20.225   8.174  19.002 -0.1774  0.0076 -0.0067
91086W        W34139  32.463   2.901   1.072  0.0335 -0.0610  0.0698
91087W        W34140  12.207   4.875   5.595  0.2013 -0.3560 -0.1638
91088W        W34141   4.267  16.989  26.640  0.0176 -0.0485 -0.0328
91089W        W34142   8.122  25.296  27.418 -0.2708  0.1754 -0.0553
91090W        W34143   3.602   2.597  24.785 -0.0527  0.2891  0.2139
91091W        W34144   4.513  17.730   5.986  0.0551  0.1417  0.1792
91092W        W34145   5.978  10.159   0.417  0.0233 -0.2323  0.0709
91093W        W34146  22.030   6.861  17.435 -0.0227 -0.2440 -0.0889
91094W        W34147   2.509   8.004   0.370  0.0063  0.2355  0.1260
91095W        W34148  18.559  11.512   8.612  0.1665  0.2508  0.0773
91096W        W34149  14.667  11.726   8.538  0.1783 -0.0163  0.1724
91097W        W34150   4.110   2.494   9.254  0.2506  0.0309 -0.3676
91098W        W34151  32.984  31.360   2.760  0.0983  0.1547  0.3120
91099W        W34152  34.228  23.946   0.168  0.0131  0.3478  0.1502
91100W        W34153  22.256  13.125   3.993  0.0404  0.0511  0.0726
91101W        W34154  19.793  31.230  29.172  0.1928  0.4182 -0.1830
91102W        W34155  30.925   3.809  26.745  0.0784 -0.0293 -0.0768
91103W        W34156  17.214  32.796   6.233  0.2273  0.0221  0.1893
91104W        W34157  23.682  10.652   9.532  0.1979 -0.1343  0.3958
91105W        W34158   4.553  34.642   1.506 -0.0126  0.2694 -0.2177
91106W        W34159  10.577  22.677  24.765 -0.2901  0.0596  0.1285
91107W        W34160  24.986  19.924   8.602 -0.0183 -0.1860  0.4323
91108W        W34161  13.775   8.566   1.486 -0.1125 -0.3020  0.1332
91109W        W34162  16.363  12.189   7.552  0.2243  0.3551 -0.0028
91110W        W34163   9.815  13.255   2.344 -0.1287 -0.0078  0.0906
91111W        W34164   9.996   8.511   3.130 -0.2425 -0.1152 -0.1408
91112W        W34165  19.922   6.777   9.953  0.1849 -0.0309  0.2114
91113W        W34166  11.907  29.489   4.686 -0.1283  0.3052 -0.0586
91114W        W34167  15.769   6.280  22.880  0.1384  0.2969 -0.1446
91115W        W34168  10.007  19.910   8.242 -0.0214 -0.2508  0.0293
91116W        W34169  34.292   6.995  28.680 -0.0280  0.1915 -0.1548
91117W        W34170  23.841  17.155  25.532  0.2679  0.0695 -0.0623
91118W        W34171   4.735  14.101   1.592  0.1448  0.1084 -0.1901
91119W        W34172   9.371  17.961   0.914  0.0173 -0.0905  0.2006
91120W        W34173   7.309   2.501   5.182 -0.2122 -0.1928  0.4042
91121W        W34174  34.470   9.367   9.147  0.0133  0.3867 -0.0693
91122W        W34175  17.957  25.167   3.615  0.1816 -0.1429 -0.0562
91123W        W34176  30.693  13.538   9.681 -0.2150  0.1543  0.1465
91124W        W34177  20.707   9.494   8.748 -0.1469 -0.0419  0.1032
91125W        W34178   9.093  19.519   7.981  0.0009  0.0389 -0.0340
91126W        W34179   7.930  30.562   3.103  0.1624 -0.2915  0.0812
91127W        W34180  25.185   4.523   4.670  0.0764 -0.0653  0.2173
91128W        W34181  33.375  34.122  27.891 -0.0092  0.0281 -0.3190
91129W        W34182  24.351  17.532  10.141  0.2388  0.3646  0.1036
91130W        W34183   6.060  10.903   6.925  0.2658 -0.3749 -0.1432
91131W        W34184  22.979  14.705   0.585  0.1171 -0.1933 -0.0496
91132W        W34185   9.655   8.919   6.533  0.1705  0.2766 -0.2192
91133W        W34186   8.969  14.213   6.602  0.1989 -0.1769  0.0429
91134W        W34187  15.181   7.704   8.080 -0.0491  0.1688 -0.0297
91135W        W34188  15.626   1.093  20.335 -0.1816 -0.0218  0.1970
91136W        W34189  18.811  27.146   1.202  0.0285 -0.1013  0.4471
91137W        W34190   6.319  20.494   5.522 -0.2256  0.1984 -0.5018
91138W        W34191  23.706   1.487  26.452 -0.0720 -0.2194 -0.0638
91139W        W34192  13.037   8.045  10.475  0.1810  0.0265  0.2539
91140W        W34193  11.660  11.827   0.218  0.2614  0.0670 -0.1733
91141W        W34194  11.347  15.885   7.431  0.2336 -0.0795 -0.1682
91142W        W34195  16.018   6.898   6.487  0.0174 -0.2052  0.1885
91143W        W34196  15.159   2.456   9.668 -0.3797  0.0832  0.0463
91144W        W34197  24.328  12.574   4.217 -0.1805  0.1117 -0.0335
91145W        W34198   8.810  20.138   7.975  0.3756 -0.0971  0.0129
91146W        W34199  28.182  10.601   9.765  0.0534 -0.0245  0.2173
91147W        W34200  23.136   4.511   7.627  0.0214  0.2881 -0.1184
91148W        W34201  17.790   4.892  10.962 -0.1000  0.1002  0.1819
91149W        W34202  21.512  27.242  23.343 -0.2449  0.1714  0.1655
91150W        W34203  22.734  20.049  28.400  0.2822 -0.0206 -0.1118
91151W        W34204   6.688  20.682  17.583 -0.3069  0.1816  0.0453
91152W        W34205  11.864  20.401   5.849 -0.1430 -0.2058 -0.1820
91153W        W34206  11.158  17.945   5.663 -0.1211 -0.0893 -0.0776
91154W        W34207  21.002  11.345  20.024 -0.0770 -0.0660  0.1940
91155W        W34208  31.673  15.924  28.714  0.2798  0.0954  0.0220
91156W        W34209  33.431   0.576  26.244  0.2993  0.1294 -0.0481
91157W        W34210   4.179  26.029  25.919  0.4841 -0.1584 -0.2231
91158W        W34211  10.966  19.907  28.145 -0.0887 -0.2086 -0.1288
91159W        W34212   3.572  13.078  28.539  0.0196 -0.0926 -0.0384
91160W        W34213   9.990  30.251   4.767  0.0508  0.1378  0.2607
91161W        W34214  15.548  29.894   3.448  0.0080 -0.2277 -0.0414
91162W        W34215  25.639  13.131   9.279  0.0627  0.0947 -0.0679
91163W        W34216   8.068   5.331   9.610 -0.0395  0.1321 -0.0267
91164W        W34217  25.333  19.140   1.166 -0.0139 -0.3304 -0.1396
91165W        W34218   8.224  26.380   5.173  0.1129 -0.0031  0.0914
91166W        W34219  14.589  10.674   7.642  0.2157 -0.0382  0.4258
91167W        W34220  14.074  11.198   8.736  0.0517  0.1196  0.1317
91168W        W34221  17.216  13.530  23.967 -0.0946 -0.1118  0.2479
91169W        W34222  11.326  15.180   2.458  0.0616  0.2456  0.1383
91170W        W34223   8.551   4.650   1.596 -0.3200  0.1000  0.2813
91171W        W34224  21.371  13.456  25.165 -0.5204 -0.1070  0.0555
91172W        W34225   9.701   5.898   9.842 -0.2912 -0.1919  0.1149
91173W        W34226  17.057  18.000   3.828  0.0080 -0.0055  0.4905
91174W        W34227   1.969   2.460   7.061 -0.0470  0.1188  0.0250
91175W        W34228  25.290   2.386   8.188 -0.2005  0.0565 -0.1880
91176W        W34229  12.579   4.115  17.925 -0.0486  0.2245 -0.0708
91177W        W34230  11.310  17.030  18.407  0.1018 -0.0852  0.1289
91178W        W34231  19.906  19.828   4.315  0.1837 -0.1539  0.2683
91179W        W34232   8.475  26.565   3.244 -0.4323 -0.0290 -0.3325
91180W        W34233  17.748   3.325   7.501 -0.1298  0.2110  0.0090
91181W        W34234  12.303  11.860   4.102  0.1248 -0.0013  0.1188
91182W        W34235  18.317   4.366   2.754  0.0772  0.0564  0.1055
91183W        W34236  19.185  32.776  26.402 -0.2268  0.1806  0.1771
91184W        W34237  11.110   6.529   5.677 -0.1771  0.1364 -0.0167
91185W        W34238  16.804  17.297   4.411  0.0740 -0.0990 -0.1847
91186W        W34239  15.885  13.232   5.832 -0.2216 -0.1199  0.1720
91187W        W34240   7.491   6.858  28.938  0.2530  0.2555 -0.2565
91188W        W34241   6.140   8.185   0.123 -0.0684  0.1493 -0.0688
91189W        W34242   4.955   4.315   1.130  0.0972  0.1365 -0.1240
91190W        W34243   5.078  21.671   4.586  0.3677 -0.0964 -0.1810
91191W        W34244  33.925  29.076  27.945  0.1570  0.1222  0.1517
91192W        W34245   1.578  16.967  22.190  0.1870 -0.2134 -0.0016
91193W        W34246   1.728   7.506   6.716  0.4560  0.1408  0.1928
91194W        W34247  21.155  15.724  28.505  0.0821 -0.0597  0.2174
91195W        W34248  20.345   7.153   3.333 -0.2016 -0.1986 -0.0568
91196W        W34249   5.113   3.455  24.040 -0.0568  0.0686 -0.0100
91197W        W34250  13.404  32.612   8.042  0.0655 -0.3570  0.0928
91198W        W34251   9.988  11.827   4.294  0.3329  0.0451  0.0036
91199W        W34252  30.319   7.198   2.844  0.0607 -0.0380  0.0613
91200W        W34253  11.823  12.852   1.717 -0.0532  0.3128  0.1972
91201W        W34254  18.916   7.780  27.437  0.0107 -0.0196 -0.0897
91202W        W34255  25.750  14.049   5.477  0.0373  0.1980 -0.0423
91203W        W34256  15.870  16.445   5.797 -0.0580  0.1147  0.0520
91204W        W34257  16.478  11.516   3.995  0.2372  0.0262 -0.3590
91205W        W34258  25.352  28.578   3.352  0.1967 -0.0845  0.0994
91206W        W34259   2.830  22.658   1.902 -0.1399  0.1772 -0.3151
91207W        W34260   2.526  32.079   5.974  0.1883 -0.1090  0.2654
91208W        W34261  19.212  12.765   1.705 -0.1617  0.0363 -0.1611
91209W        W34262  11.225   4.377  24.077 -0.1401  0.1256 -0.1742
91210W        W34263  22.778   7.102   1.909 -0.3764 -0.3986 -0.0273
91211W        W34264  17.826  24.937  26.845  0.1474 -0.1307  0.2279
91212W        W34265  34.015  14.369  21.132 -0.0195  0.1748  0.1167
91213W        W34266  10.097  30.743   4.752  0.0511 -0.4983 -0.0921
91214W        W34267  24.734  14.814   4.863  0.1923  0.1238 -0.0494
91215W        W34268  13.893  27.802  23.351  0.0337  0.2924 -0.2864
91216W        W34269  10.745  22.391   5.115 -0.0686 -0.0467  0.1998
91217W        W34270  13.833   2.003   6.621  0.1371  0.0698  0.3001
91218W        W34271   7.825  10.896   3.828 -0.1140  0.0897 -0.0874
91219W        W34272  24.773   9.177  24.256  0.0202 -0.0436 -0.2248
91220W        W34273  21.694  24.474   1.388  0.0095 -0.2433  0.1387
91221W        W34274  11.995  31.430  19.925 -0.0342  0.0966  0.2239
91222W        W34275  31.141  16.941   0.907  0.0591  0.0130 -0.2126
91223W        W34276  15.167   8.802  25.983 -0.2151 -0.1427 -0.3492
91224W        W34277   6.819   4.988  26.715  0.1615  0.0866 -0.2120
91225W        W34278   6.570   6.531  17.286  0.3264  0.2025  0.1587
91226W        W34279   1.953  29.208   6.653  0.0201  0.1712  0.2403
91227W        W34280  22.219   7.794   3.082 -0.0346  0.0770  0.1116
91228W        W34281   4.075  24.148   8.554 -0.0736 -0.1166 -0.0007
91229W        W34282  16.336  16.878   8.789  0.4801 -0.0734  0.0911
91230W        W34283   6.541   8.689   4.525 -0.4405  0.1591 -0.1112
91231W        W34284  29.344   7.679  10.430  0.2881 -0.0838 -0.0052
91232W        W34285  24.597  13.477   7.889  0.2635 -0.1858  0.0705
91233W        W34286  30.340   7.226   2.013  0.4325  0.1057 -0.1957
91234W        W34287  12.766  23.662   3.573 -0.2818 -0.0551  0.1365
91235W        W34288  11.737  22.962   6.544  0.0282  0.0472  0.0700
91236W        W34289  11.567   4.805   2.499  0.1235 -0.2702  0.0799
91237W        W34290  30.250   1.383  24.244 -0.2510 -0.0491 -0.0004
91238W        W34291   8.424  27.613  28.578 -0.3682  0.3354 -0.0113
91239W        W34292  24.128  16.076   8.460 -0.1848 -0.2368  0.2470
91240W        W34293  24.285   6.016  25.681 -0.2072  0.0239  0.2365
91241W        W34294  16.881  30.439  24.220  0.1682 -0.2569  0.0971
91242W        W34295  13.813  20.456  27.024  0.2604  0.3084  0.1438
91243W        W34296   3.207   6.785  26.679  0.0742  0.0421  0.2005
91244W        W34297   3.548  17.577   6.890 -0.0980  0.1169 -0.0329
91245W        W34298  10.266  15.355  10.668 -0.0826 -0.0877 -0.1239
91246W        W34299  11.546  15.965  19.414 -0.0818 -0.2579  0.1483
91247W        W34300   7.641  27.086   8.121  0.2355 -0.0962  0.2090
91248W        W34301  17.742  10.697   7.999 -0.4044 -0.0180 -0.1471
91249W        W34302   8.182  11.065   5.622  0.0745  0.0026 -0.2536
91250W        W34303  12.664  11.598   2.521 -0.1528  0.1645  0.0903
91251W        W34304  22.400  15.845   2.602  0.2052 -0.1967 -0.5898
91252W        W34305   2.358  17.559   8.079 -0.2025 -0.3215  0.0675
91253W        W34306  17.534  18.350   2.602 -0.0022 -0.0492 -0.0849
91254W        W34307   2.984  18.195  25.344  0.0440  0.0020 -0.1366
91255W        W34308   2.272  13.790   9.321  0.0451 -0.0599 -0.0304
91256W        W34309  28.563  16.278  27.373 -0.3145  0.3111 -0.1991
91257W        W34310  30.782   1.026   0.765 -0.2770 -0.4010 -0.1892
91258W        W34311  19.146  16.851  28.880  0.0921 -0.0631  0.0141
91259W        W34312   5.720  34.613   9.611  0.0091 -0.1925 -0.0892
91260W        W34313  25.590  23.543   3.226  0.1445 -0.0250  0.1731
91261W        W34314  17.472  25.856   2.140  0.0291 -0.0395 -0.0242
91262W        W34315  10.495   9.408   1.731  0.0725  0.0089  0.0923
91263W        W34316  10.996  26.197  22.794 -0.1565 -0.1008  0.2467
91264W        W34317  15.431  14.225   3.194  0.1974 -0.0017 -0.0934
91265W        W34318  19.182   2.075   4.684  0.3415  0.4843 -0.1886
91266W        W34319  16.593  14.385   3.983  0.2393  0.4762  0.0804
91267W        W34320  20.072   3.585   0.496  0.1446  0.2511  0.1249
91268W        W34321  17.264  20.864   9.705  0.1857 -0.1188  0.1259
91269W        W34322  15.052  11.631   1.806 -0.1631  0.3337  0.1381
91270W        W34323   7.847  21.342   8.997 -0.2218 -0.0222 -0.2033
91271W        W34324   5.795  11.610  26.131  0.0836  0.0245  0.0091
91272W        W34325  22.739  23.590   9.832 -0.2154  0.0271 -0.2816
91273W        W34326   1.703   7.497   7.292  0.0317  0.3426 -0.0662
91274W        W34327  12.714  11.176  16.294  0.1353  0.0987  0.2305
91275W        W34328  29.496  22.674  25.680  0.1814 -0.1297  0.1684
91276W        W34329   9.339  17.344   7.195  0.1951  0.1237  0.0067
91277W        W34330  18.856   4.500   7.598 -0.0045  0.1251  0.1982
91278W        W34331  11.994   4.937   6.683 -0.4602 -0.0446  0.0455
91279W        W34332   2.380  16.106  17.559  0.0158  0.2133  0.1626
91280W        W34333   6.666  15.762   6.877  0.1328  0.1940  0.0711
91281W        W34334  13.417   6.272  20.877 -0.3341  0.2262 -0.3748
91282W        W34335  10.091   9.443   4.563  0.2536  0.0551 -0.1160
91283W        W34336   9.807  13.358  24.426 -0.0014  0.2465 -0.0586
91284W        W34337  11.232   1.616  25.323  0.2126 -0.1789  0.0076
91285W        W34338  29.597   7.899  26.027 -0.0462 -0.1529  0.0758
91286W        W34339  26.883  34.352   8.685  0.2941 -0.5179  0.3715
91287W        W34340   5.153  33.788  20.874 -0.1777 -0.1636 -0.2505
91288W        W34341  15.248  20.589   8.096  0.0760  0.1198  0.0711
91289W        W34342   6.957  19.232   0.613 -0.0097 -0.1185  0.2885
91290W        W34343  10.286  18.487   7.659  0.1759 -0.3925 -0.3554
91291W        W34344  27.875  24.925  28.957  0.2351  0.2726 -0.1389
91292W        W34345  22.160  11.169  14.750 -0.0180 -0.3680 -0.6435
91293W        W34346   6.806   9.070   6.219  0.0142 -0.2131 -0.0405
91294W        W34347  17.377  17.797   2.220 -0.2029  0.0603 -0.0465
91295W        W34348  20.523  17.173   4.105  0.1413  0.2586  0.1498
91296W        W34349  17.256  27.961  25.564 -0.1397 -0.1772  0.0272
91297W        W34350  12.314  15.121   8.905  0.2184  0.0115 -0.0933
91298W        W34351   6.832  15.175   7.726  0.1286  0.0003 -0.0845
91299W        W34352  14.291  14.690   7.788 -0.1265  0.1541  0.0819
91300W        W34353  30.205  25.074  28.298  0.3665 -0.0932 -0.0408
91301W        W34354  21.568  18.106   4.805  0.0623 -0.2209 -0.0928
91302W        W34355  16.934   0.887   4.850  0.1076  0.1422  0.1970
91303W        W34356   3.988   5.957  18.386 -0.1886 -0.0581  0.1909
91304W        W34357  31.029  24.306   2.946  0.0563 -0.0643 -0.2618
91305W        W34358   9.072  16.002  21.872 -0.0401 -0.0364 -0.1871
91306W        W34359  13.263  26.023  23.770  0.0588  0.1208 -0.2121
91307W        W34360   4.054  10.853   3.037  0.0696 -0.0985 -0.3045
91308W        W34361  20.105   9.407   8.170 -0.0673 -0.0912  0.1866
91309W        W34362  33.115  19.713   9.411  0.0917 -0.0945 -0.0506
91310W        W34363  30.862  12.812  29.122 -0.2604  0.0987 -0.1411
91311W        W34364  22.343  11.424   4.875  0.0540 -0.0297 -0.0644
91312W        W34365  20.904  16.362   3.593  0.2186  0.2858 -0.1636
91313W        W34366   8.239  19.027   8.077  0.1418 -0.0988  0.0364
91314W        W34367   8.008  16.997   1.997  0.1280  0.0491 -0.0468
91315W        W34368  32.909   8.820   3.755 -0.2546 -0.0191 -0.1423
91316W        W34369   5.471   8.057   3.569  0.0742 -0.3318  0.1338
91317W        W34370  16.731  11.174  25.609  0.3125  0.2963 -0.1706
91318W        W34371  10.385  31.738  28.700  0.3316 -0.3710 -0.0231
91319W        W34372   6.651  31.795   9.173  0.1058 -0.1699 -0.0073
91320W        W34373  15.864  11.949   7.532 -0.2003 -0.1201  0.4134
91321W        W34374   5.556  33.745  10.075  0.0645 -0.0804 -0.2172
91322W        W34375  25.254  13.790   2.099  0.1402 -0.0799 -0.1055
91323W        W34376   2.027  29.394   8.288 -0.0640  0.0088  0.1552
91324W        W34377  27.861  17.632  28.389  0.1193  0.0963  0.0158
91325W        W34378  23.546  17.990  19.411 -0.2834  0.1486 -0.3015
91326W        W34379  11.757  21.857   9.879  0.0333  0.0116 -0.3199
91327W        W34380  17.366  20.033  21.985 -0.1400 -0.0450 -0.1018
91328W        W34381  23.267  14.057   7.802 -0.1820 -0.0726 -0.0150
91329W        W34382   5.866   8.014   6.842  0.0467 -0.2677 -0.0371
91330W        W34383  11.499  15.639   3.438 -0.0698 -0.3082  0.0202
91331W        W34384   9.863  14.574  25.942  0.2664 -0.3288 -0.0673
91332W        W34385   3.527  34.625   2.044  0.0439 -0.5556 -0.1516
91333W        W34386  11.375  11.868   5.401  0.3664 -0.1947 -0.2381
91334W        W34387  33.693  31.273   3.382  0.3393 -0.1151 -0.0710
91335W        W34388  23.586  22.701  10.260  0.0221 -0.1084 -0.1376
91336W        W34389  18.739   4.335   0.464  0.0399  0.1533  0.0617
91337W        W34390  21.842  11.896  22.043  0.0316  0.5024  0.1065
91338W        W34391  34.188   9.476   8.145  0.1273  0.2622  0.1623
91339W        W34392   7.719  14.997   6.127  0.2116  0.2226  0.0675
91340W        W34393  19.015  19.991   4.614 -0.1353  0.0535 -0.1661
91341W        W34394   6.536  20.429   8.753 -0.1643  0.1093 -0.2231
91342W        W34395  29.562   8.883   8.503  0.3409  0.0539  0.0155
91343W        W34396  15.557   2.123   9.946 -0.1878  0.2489  0.1359
91344W        W34397  24.177   4.605  28.544 -0.0295  0.1051  0.0809
91345W        W34398  28.147   0.572  21.252  0.3438  0.0922  0.2373
91346W        W34399   8.232  16.185  23.586  0.0422  0.2856  0.4636
91347W        W34400   9.210  34.414   9.932  0.0083 -0.2401  0.1506
91348W        W34401  10.326  22.343   8.398 -0.1118 -0.0239 -0.1431
91349W        W34402  26.007   9.031  28.157  0.0329  0.2663 -0.0543
91350W        W34403  29.003  12.160  10.278  0.0929  0.2228  0.2601
91351W        W34404  18.881  14.892   1.193 -0.3593 -0.0899  0.0353
91352W        W34405   9.695  28.924   6.660  0.1378  0.2416 -0.1744
91353W        W34406   6.260  14.460   8.753  0.1626 -0.0844 -0.1793
91354W        W34407   3.331  10.537  26.736  0.1319 -0.1633 -0.2583
91355W        W34408  12.566  27.246   2.361  0.1206  0.1705  0.1731
91356W        W34409  13.385  19.742   4.984 -0.3336  0.1514  0.2815
91357W        W34410  11.926   9.928   4.562 -0.2621  0.1464  0.3525
91358W        W34411   6.777   5.224  26.142  0.0323  0.1637 -0.0392
91359W        W34412   4.948   5.950   1.624  0.0179  0.4093  0.0167
91360W        W34413   7.494   7.492   3.809  0.1806  0.1903 -0.2071
91361W        W34414  25.703   2.464   3.945 -0.1899 -0.0926  0.0169
91362W        W34415   1.636  30.766  17.056  0.2420  0.2362 -0.1556
91363W        W34416   3.515  21.163   7.179  0.1279 -0.2074  0.0901
91364W        W34417  30.813  11.546   9.975  0.0049  0.3204 -0.0217
91365W        W34418   7.214  13.595   8.742 -0.1857 -0.0816  0.0718
91366W        W34419  17.012  12.189  27.287 -0.1139 -0.3514  0.5339
91367W        W34420  10.689  20.080   8.372 -0.0291  0.0267  0.1958
91368W        W34421  29.628  17.741   6.834 -0.3135  0.0469 -0.2067
91369W        W34422   1.339  11.880   8.091  0.2535  0.1650 -0.1380
91370W        W34423   8.859  11.928   8.072  0.1407 -0.0707 -0.2397
91371W        W34424   4.741  27.904   1.489  0.0000  0.1703  0.1104
91372W        W34425  24.507  19.196  22.728 -0.3069 -0.2108 -0.2358
91373W        W34426   9.510  17.585  24.515  0.3255 -0.1129 -0.1957
91374W        W34427  25.655  25.206   3.667 -0.2310 -0.1993  0.1425
91375W        W34428   8.104  19.885  20.725 -0.2130  0.2872 -0.1325
91376W        W34429  26.392  26.372  14.417  0.1218  0.3258 -0.0037
91377W        W34430  21.087   7.830   5.743  0.2745  0.0914 -0.4570
91378W        W34431   8.873  10.096  25.480 -0.2647  0.0548 -0.0658
91379W        W34432  15.111   3.667   6.598  0.3070  0.0771 -0.2796
91380W        W34433   3.367   5.890  22.965 -0.1148 -0.1007  0.3258
91381W        W34434  13.544  17.208   9.971  0.1250 -0.1664 -0.1726
91382W        W34435  17.593  13.796   3.060 -0.0554  0.0661 -0.0745
91383W        W34436  11.325  13.129  23.938  0.1017 -0.3359  0.0358
91384W        W34437   7.046  30.770   1.834  0.0305  0.0459  0.0444
91385W        W34438   7.739  19.449  28.867  0.1632 -0.0050 -0.2958
91386W        W34439  25.143  21.941  27.270 -0.3601 -0.1104 -0.2605
91387W        W34440  17.717  12.204   4.223  0.2107  0.1590  0.1415
91388W        W34441  22.638  22.125   9.643 -0.3011  0.2660 -0.4323
91389W        W34442  11.359   3.222  10.173  0.3426 -0.2675  0.0018
91390W        W34443   3.909  26.030   8.081 -0.2221 -0.2665 -0.0909
91391W        W34444   6.997  23.857   9.714 -0.0056 -0.3374 -0.2276
91392W        W34445  19.034   1.265   4.123 -0.1735 -0.2297 -0.0208
91393W        W34446   9.619   7.322   3.568 -0.0269  0.1534 -0.3988
91394W        W34447  11.668  20.801  18.318 -0.1517 -0.4057  0.0775
91395W        W34448  12.920  14.121  27.875  0.4352 -0.3890  0.3515
91396W        W34449   8.567  21.824   2.055  0.1565  0.2751 -0.1730
91397W        W34450  24.151   9.918  24.383 -0.1065  0.3607 -0.2567
91398W        W34451   5.610  22.481  25.177 -0.1410  0.1086  0.0368
91399W        W34452  12.464  15.017   9.376 -0.3311  0.1371  0.2520
91400W        W34453  18.870  13.458  23.324 -0.2537  0.2110  0.0117
91401W        W34454  22.012  19.164   4.195  0.1334 -0.0027  0.2812
91402W        W34455  18.224  16.546  24.575  0.0611 -0.0779  0.2705
91403W        W34456   8.530  10.537  27.221 -0.0376  0.2708  0.2383
91404W        W34457  18.433  19.374  28.744  0.0649 -0.1238  0.1894
91405W        W34458  11.335   6.618  25.391 -0.1247 -0.0062  0.3795
91406W        W34459   2.061  13.027   1.141 -0.1475 -0.0128  0.0088
91407W        W34460   1.238   4.731   8.336  0.0626  0.1749  0.3559
91408W        W34461  24.359  22.677   4.560  0.0118 -0.0404 -0.3052
91409W        W34462  20.724  28.942   4.084  0.3879 -0.2404  0.1461
91410W        W34463  15.299  13.203   7.353 -0.0727  0.1894  0.0579
91411W        W34464  26.483   6.353   4.178 -0.1948  0.1970  0.3197
91412W        W34465  31.549   2.326   0.483  0.1209 -0.0045  0.0943
91413W        W34466  15.935   7.955   6.314  0.2315 -0.0629  0.1305
91414W        W34467  16.229  27.577   4.946 -0.5214 -0.1117  0.2020
91415W        W34468   7.693  12.055  28.040 -0.1847  0.2122 -0.1502
91416W        W34469  32.203   7.174   5.533  0.0488  0.0844 -0.3816
91417W        W34470   8.164   1.298   5.664 -0.0250 -0.2075 -0.1398
91418W        W34471  21.533  31.987   3.692 -0.2905  0.3839 -0.0161
91419W        W34472   2.733  31.315   0.835 -0.3995  0.0530 -0.1564
91420W        W34473   2.477  21.949   6.295  0.0277 -0.0135 -0.1318
91421W        W34474  11.321   5.959  10.133  0.0153 -0.0155 -0.1257
91422W        W34475   8.533  12.987   2.822 -0.0905  0.1058  0.0033
91423W        W34476  28.558  31.423   2.772  0.0280 -0.2505 -0.3720
91424W        W34477  12.473  19.209   8.526 -0.1563 -0.1602 -0.3407
91425W        W34478   8.496  15.788  28.784 -0.3879  0.0348  0.0585
91426W        W34479  19.865  13.902   1.388  0.1366 -0.3372 -0.1252
91427W        W34480  10.008  10.293   9.977  0.3974  0.0554  0.0986
91428W        W34481  21.596  12.688   2.847 -0.4667  0.0801  0.3987
91429W        W34482  20.832  12.255   8.044  0.1186  0.0800  0.1349
91430W        W34483  11.504  20.141   9.804 -0.4918 -0.0325 -0.1616
91431W        W34484   4.728  13.760   6.756 -0.1141 -0.1210 -0.0463
91432W        W34485  15.573  15.435  16.509 -0.1126 -0.0666 -0.0973
91433W        W34486   8.717   5.681   0.860  0.0032  0.2468  0.1378
91434W        W34487  20.774  13.346   1.459  0.1022 -0.0120  0.0966
91435W        W34488  21.091   8.198   8.397 -0.1783 -0.0729  0.0224
91436W        W34489   2.073  12.869  17.075  0.0464 -0.2163 -0.2972
91437W        W34490  10.251  13.495   8.223 -0.0060 -0.2632 -0.2986
91438W        W34491  12.542   6.055   7.225 -0.2467  0.0059  0.1665
91439W        W34492  32.532  27.392   8.784  0.1086 -0.0303  0.2926
91440W        W34493   5.086  13.072  26.320 -0.1739 -0.2188 -0.1059
91441W        W34494   3.091  21.051   2.516 -0.1524  0.0723  0.4352
91442W        W34495  16.352  16.510   2.438 -0.0519 -0.4448  0.2510
91443W        W34496  13.259   7.660  10.656  0.2765  0.0627  0.2517
91444W        W34497   8.530  31.494   2.119 -0.1630 -0.0755  0.0721
91445W        W34498  14.886  33.021   9.002 -0.0726 -0.2154  0.1827
91446W        W34499  15.616  11.213   6.019  0.1505 -0.2013 -0.3119
91447W        W34500  10.028  14.576  24.654 -0.0521  0.1523  0.0372
91448W        W34501  12.700  15.679   4.194 -0.0180  0.4130  0.0141
91449W        W34502   6.910  17.365   2.393 -0.0144 -0.0974  0.3316
91450W        W34503   1.852   8.466   6.584 -0.1757  0.0005 -0.0585
91451W        W34504   7.046   9.768   2.146  0.0991  0.2087 -0.2163
91452W        W34505   4.287  10.504   4.152 -0.0766 -0.1128  0.4835
91453W        W34506  33.947  15.190   8.115  0.0940 -0.0003  0.1387
91454W        W34507  22.944   1.053   8.312 -0.1289  0.1932 -0.2143
91455W        W34508   8.889  16.617  20.991  0.0564  0.2660  0.0699
91456W        W34509  18.509  14.690   1.468 -0.0752  0.3868  0.1334
91457W        W34510  12.976  22.876   8.147  0.2575 -0.2362 -0.1996
91458W        W34511  14.483  11.406   9.634 -0.1784  0.2580 -0.1645
91459W        W34512  16.714  16.450   6.664 -0.2814  0.1869 -0.0002
91460W        W34513  31.259   9.346   5.051  0.1956  0.1664  0.1372
91461W        W34514  23.967  16.159   7.434  0.0122 -0.0081  0.3125
91462W        W34515  12.666  25.092  28.477 -0.0079 -0.2505  0.1214
91463W        W34516   4.710  17.610   7.704  0.1706  0.0490 -0.1214
91464W        W34517   3.576  22.756   3.546  0.1392 -0.3185 -0.3820
91465W        W34518  24.106  22.010  26.825 -0.5314  0.1642  0.5561
91466W        W34519   7.057   9.345   5.886  0.0888 -0.1330 -0.0017
91467W        W34520  21.027  19.346   0.339 -0.0491  0.3035 -0.0599
91468W        W34521  19.204  32.559   5.153 -0.2701  0.0174  0.2882
91469W        W34522  15.984  10.973   8.875  0.2739  0.0589 -0.1411
91470W        W34523  25.399  17.509  24.486 -0.0663 -0.1165  0.0950
91471W        W34524  10.021  33.873  10.038 -0.2267 -0.0147 -0.0174
91472W        W34525  20.809   1.271   6.333 -0.0597  0.3152  0.2430
91473W        W34526   1.567  24.698   4.569  0.0880 -0.5593  0.3434
91474W        W34527  12.160  19.570   5.504 -0.1672 -0.2976 -0.0082
91475W        W34528   3.190  32.041  28.612 -0.0543 -0.1130 -0.2129
91476W        W34529  13.149  23.858  23.292  0.3647  0.2539 -0.0475
91477W        W34530  16.876  12.437   4.462  0.0057  0.2075  0.0708
91478W        W34531  28.512  31.747  28.751  0.0593  0.5315 -0.2856
91479W        W34532   6.092   4.075   8.475 -0.1331 -0.0115 -0.0396
91480W        W34533  13.341  16.991   2.033  0.1309 -0.1999 -0.2083
91481W        W34534  24.982  29.519  20.713 -0.1232  0.3397  0.3891
91482W        W34535  34.369   8.882   4.967  0.3616  0.3805  0.1153
91483W        W34536  16.334   6.801  29.072  0.0949 -0.0928 -0.1413
91484W        W34537  22.640   9.963   3.801 -0.1117  0.1073  0.0952
91485W        W34538   5.689  26.740  25.718  0.0635  0.2120 -0.2949
91486W        W34539  10.043  30.251  26.609 -0.0906  0.2966 -0.0297
91487W        W34540   1.964  12.088   5.726 -0.1485 -0.1512  0.2194
91488W        W34541  31.740  12.984   5.945 -0.1185 -0.3233  0.0251
91489W        W34542  28.802  24.258  21.607 -0.1551  0.0741  0.0877
91490W        W34543  18.258  22.078   0.859  0.0580  0.5725  0.0608
91491W        W34544   3.706  20.268   7.038 -0.3143 -0.1069 -0.1640
91492W        W34545  31.431  18.285   1.690 -0.0286 -0.2386 -0.1224
91493W        W34546  20.540  20.128  26.324 -0.1121 -0.0390  0.2175
91494W        W34547  17.432  14.890   6.100 -0.1578 -0.0588 -0.0219
91495W        W34548   8.379  13.998   0.411 -0.1089  0.1146 -0.0552
91496W        W34549  13.722  23.755   0.251  0.1649 -0.0530  0.1094
91497W        W34550   9.197   6.942   0.388  0.0679  0.3529  0.3078
91498W        W34551  22.823  11.953   0.075 -0.3058  0.1617 -0.1340
91499W        W34552  20.242  21.363   1.852 -0.1885  0.1028  0.3990
91500W        W34553  30.799   1.493   6.659 -0.0658  0.0122  0.1663
91501W        W34554  17.236  11.074  28.629  0.1423 -0.1033  0.2492
91502W        W34555  10.275  23.003   5.288 -0.2198 -0.1288 -0.1837
91503W        W34556  18.927   2.889   2.803 -0.0310  0.0705  0.1414
91504W        W34557  32.507   9.476   3.024 -0.2578 -0.0575  0.0123
91505W        W34558  10.227  12.234   0.989  0.0265  0.0107 -0.0027
91506W        W34559   2.694  14.378   7.891  0.0183 -0.1428  0.0703
91507W        W34560  14.066  18.388   1.562 -0.3528  0.0917  0.1528
91508W        W34561   8.871   0.438  26.588  0.0331 -0.0536  0.0671
91509W        W34562  15.761   0.798   6.040  0.1568  0.1220 -0.0075
91510W        W34563   3.318   7.068   6.386 -0.1544 -0.1331  0.0624
91511W        W34564  14.561  15.543   8.354  0.0164  0.1816  0.0257
91512W        W34565  18.139   8.609   5.101 -0.1733 -0.2880 -0.0751
91513W        W34566  34.561  19.969  25.992 -0.0065  0.1239  0.0151
91514W        W34567   7.178   8.999   4.831  0.0989  0.2758 -0.0992
91515W        W34568   1.612   0.889  28.802  0.1157 -0.4805 -0.0314
91516W        W34569   8.725   8.373   9.996  0.2439  0.1181  0.3905
91517W        W34570  12.603   2.475   7.654  0.1550 -0.3373  0.2032
91518W        W34571  15.697  14.411   0.631 -0.2280 -0.0226 -0.0434
91519W        W34572   1.345   4.046  27.834 -0.0802  0.1192  0.0143
91520W        W34573  22.111  30.891   2.508  0.2538  0.1838 -0.1133
91521W        W34574  23.772  23.438   4.385 -0.0820 -0.2271  0.2644
91522W        W34575  19.020  34.461   3.264 -0.2576 -0.0483  0.2280
91523W        W34576  23.947  19.604   3.431  0.0599  0.1782  0.1093
91524W        W34577  10.435  16.455   7.700  0.2128  0.1437  0.0054
91525W        W34578  13.018   7.210   6.177  0.0819  0.3185 -0.0240
91526W        W34579   6.845   7.195   8.669  0.0258 -0.4216 -0.0505
91527W        W34580  10.819  20.204   2.894  0.3998 -0.1243 -0.4314
91528W        W34581   7.062  14.273  28.116  0.2251  0.1671  0.2694
91529W        W34582  34.265  15.652   7.342  0.1737 -0.0094  0.1067
91530W        W34583   5.123  17.359   3.091 -0.0501  0.2122 -0.0079
91531W        W34584  33.162  33.283  25.998 -0.1617  0.1618 -0.3859
91532W        W34585  31.680  30.350   5.272  0.0014 -0.1170 -0.0448
91533W        W34586  26.621  12.490  28.366  0.1055 -0.1195  0.4032
91534W        W34587  29.764  26.934  10.203 -0.0903  0.4024  0.0943
91535W        W34588  14.027   8.114   1.539 -0.1580 -0.2604 -0.0651
91536W        W34589   9.855   4.759   8.180 -0.2430  0.3744 -0.0250
91537W        W34590  18.314  32.427  24.935 -0.0305 -0.3172  0.2578
91538W        W34591  28.453  13.279   7.207 -0.0211 -0.2317  0.1536
91539W        W34592  25.171   0.122   2.000 -0.4057 -0.0014  0.1463
91540W        W34593   2.778   3.982  25.200  0.2394 -0.1203 -0.3854
91541W        W34594  24.039  14.394   7.535 -0.2589  0.0775 -0.0257
91542W        W34595  33.189  14.846   4.588 -0.0494  0.1394 -0.3692
91543W        W34596   7.966  24.050   3.333 -0.0119 -0.1082  0.0374
91544W        W34597  14.275  10.369   2.483 -0.0457  0.2601  0.0322
91545W        W34598  14.648  28.639   6.432  0.5340  0.0178  0.1544
91546W        W34599  34.640  10.121   4.152  0.0907  0.1856 -0.3253
91547W        W34600  11.394  18.896   5.487  0.0814  0.2738  0.0958
91548W        W34601  13.968  22.338   7.955  0.0632  0.1432 -0.0162
91549W        W34602   2.707  31.228  18.959 -0.0053 -0.0653 -0.1187
91550W        W34603  15.940  16.933   3.499  0.0800 -0.0458  0.1738
91551W        W34604  10.751  19.759   5.025  0.0135 -0.1708 -0.0152
91552W        W34605   0.526  17.182   5.306 -0.1540  0.0825 -0.0782
91553W        W34606  18.580   1.602  20.521  0.1864 -0.1604  0.1807
91554W        W34607  10.108   6.925  26.890  0.2008 -0.1716 -0.0539
91555W        W34608  12.327   7.236  28.526 -0.0796  0.2819  0.3465
91556W        W34609  22.486  12.591   5.676 -0.0471  0.1565  0.0417
91557W        W34610  22.622   0.508  25.647  0.1627  0.0570 -0.0025
91558W        W34611  19.369  20.017   4.155  0.2144 -0.0579  0.0817
91559W        W34612  11.815  11.732   4.185 -0.2715 -0.0240  0.3093
91560W        W34613   1.232  21.321   6.321  0.2342  0.1710  0.2110
91561W        W34614   3.051  16.853  25.178  0.2311 -0.3414  0.0507
91562W        W34615  24.265  14.868   0.155 -0.0210 -0.0013 -0.0741
91563W        W34616   1.141  19.970  26.641 -0.0661 -0.1350  0.0172
91564W        W34617  18.307  17.804   2.169 -0.1499  0.3079 -0.0245
91565W        W34618  15.030   4.260  28.840  0.1031 -0.0617  0.2531
91566W        W34619  33.658   2.693   6.454 -0.3506 -0.0710  0.2191
91567W        W34620  13.656  12.738   1.458  0.0335  0.1371  0.3573
91568W        W34621  14.680  28.756  24.104  0.0547 -0.1187  0.0720
91569W        W34622  18.878  28.423   9.222 -0.2501 -0.3299 -0.2580
91570W        W34623  10.287  17.093   8.196  0.1018 -0.0865  0.2255
91571W        W34624   7.589   9.302   1.896  0.0110 -0.0442  0.0426
91572W        W34625  12.094   4.507  25.160 -0.2373  0.0658  0.3353
91573W        W34626   7.028  10.256   5.631  0.3444 -0.0785 -0.1249
91574W        W34627  20.362   1.922   8.760 -0.2539 -0.2212  0.0047
91575W        W34628   6.363   7.240   2.753  0.0065 -0.3331 -0.1522
91576W        W34629   6.158  24.550  25.343  0.2618  0.2510  0.1420
91577W        W34630  14.497  28.609   6.909  0.2733  0.1937  0.3841
91578W        W34631   3.460  32.133   2.585 -0.2117  0.1584  0.1259
91579W        W34632   2.829  11.691   6.006 -0.2217  0.1832 -0.1189
91580W        W34633  16.802  10.724  19.814 -0.1469  0.0499 -0.0759
91581W        W34634  11.916   6.037   2.920  0.0004 -0.0503 -0.2184
91582W        W34635  11.261  12.611   7.014  0.0523  0.0917  0.2234
91583W        W34636   9.527  12.249  25.262  0.1370 -0.1018 -0.2496
91584W        W34637  12.097   6.852   6.389  0.1884 -0.0979 -0.0466
91585W        W34638  26.809  34.524   8.029 -0.2155 -0.2099  0.0505
91586W        W34639   8.829  10.888   4.566 -0.2326 -0.1613 -0.4548
91587W        W34640  27.983  32.764   1.228  0.1195 -0.1672  0.0480
91588W        W34641   7.932  22.403   6.576  0.0010 -0.1143 -0.1654
91589W        W34642  18.867  24.708  21.036 -0.1241 -0.1543  0.2185
91590W        W34643   0.329  18.989  25.493  0.1087  0.3551  0.0589
91591W        W34644  19.702  21.587  17.560  0.1488 -0.0573 -0.1081
91592W        W34645  14.355  19.572   7.456 -0.0392 -0.1978 -0.0445
91593W        W34646  30.322  28.911   9.171  0.0519  0.0413  0.1300
91594W        W34647  29.265  11.038   9.679  0.0361  0.2099 -0.1357
91595W        W34648  13.325  10.435  19.787  0.4036  0.0847  0.2560
91596W        W34649  12.034  12.878   4.999 -0.2644 -0.1428 -0.2322
91597W        W34650  15.397  14.289   4.045  0.0467  0.1626  0.0846
91598W        W34651  20.221  10.042   8.224  0.1608  0.1024  0.0303
91599W        W34652   8.005  15.894   9.630 -0.1880  0.2899 -0.1418
91600W        W34653  11.121   1.350   8.108  0.1156 -0.1289  0.1978
91601W        W34654  23.494  13.579  26.277 -0.1897  0.2907 -0.3134
91602W        W34655  18.395   5.339   6.329 -0.2783  0.4849  0.2085
91603W        W34656  22.812   5.729   5.666  0.1412 -0.0087  0.0734
91604W        W34657  24.307  13.152  27.059 -0.1644 -0.1166 -0.0331
91605W        W34658  15.052  17.281   6.883 -0.2498  0.0935  0.1956
91606W        W34659  33.727   8.478  22.048 -0.1454 -0.0960 -0.1112
91607W        W34660  31.829  14.774   3.305  0.0272  0.0785  0.2833
91608W        W34661   9.010  10.456  22.761 -0.0050 -0.0068 -0.1650
91609W        W34662   2.574   5.984  28.792  0.1489 -0.2867  0.1279
91610W        W34663  11.968  13.324   8.401 -0.1882 -0.1113 -0.0748
91611W        W34664  21.494   8.692   1.202  0.4615  0.3032  0.0494
91612W        W34665  14.604  31.330   7.479  0.0695 -0.3518 -0.2317
91613W        W34666   2.509   6.066  23.038  0.1667  0.3641  0.3576
91614W        W34667  17.239  15.771   7.885 -0.1128 -0.1104  0.0594
91615W        W34668  14.208  26.829   4.086  0.0028 -0.0155 -0.5893
91616W        W34669  14.880   8.279   8.609  0.1841 -0.1533 -0.2463
91617W        W34670  17.366  15.880  27.340 -0.1101 -0.1858  0.1119
91618W        W34671  30.265  17.630   8.864  0.2325  0.2060 -0.1054
91619W        W34672  14.986   0.316  28.788 -0.0252  0.0829 -0.3261
91620W        W34673   4.966  17.265   7.202 -0.2366  0.0498 -0.1949
91621W        W34674   4.805  12.120   5.578  0.1407 -0.1386  0.1047
91622W        W34675  34.668  24.414  25.414 -0.0461  0.0088  0.2341
91623W        W34676  15.859  18.389   1.595 -0.2690 -0.0080 -0.0747
91624W        W34677  12.737  15.313  17.123  0.4435 -0.0707  0.1824
91625W        W34678  16.133  19.165   2.759  0.1595 -0.2299 -0.0654
91626W        W34679  27.971   7.717  10.133 -0.0939 -0.0634 -0.0257
91627W        W34680  19.888   8.708   2.491  0.1611  0.0397  0.0099
91628W        W34681   3.285  11.471   2.913 -0.2380  0.3344  0.2329
91629W        W34682  14.357  20.201   9.369  0.1482  0.2968 -0.0730
91630W        W34683  13.827  10.682   9.747 -0.4684 -0.0102  0.1702
91631W        W34684   5.317  10.762  24.979  0.2877  0.2282 -0.0257
91632W        W34685  33.448   9.236   3.062 -0.0326 -0.0420 -0.1053
91633W        W34686  18.439  15.522   0.562  0.0132 -0.3419  0.2624
91634W        W34687  18.006  19.093   5.632 -0.1932 -0.2056 -0.0515
91635W        W34688   2.609  17.403   2.261  0.0294  0.0317  0.0975
91636W        W34689   8.147   8.417   4.243 -0.1186 -0.1002 -0.1269
91637W        W34690  17.025   4.800   2.833  0.1471 -0.3077 -0.0663
91638W        W34691  14.542  14.532   5.614  0.1895  0.1405  0.1568
91639W        W34692  11.661  25.831   3.812  0.0206  0.0667  0.1300
91640W        W34693   4.509  22.031   3.048 -0.1020  0.0407 -0.0359
91641W        W34694  32.371   5.361   3.624 -0.0889 -0.3975 -0.1171
91642W        W34695   6.191  25.550   7.979 -0.0741 -0.2451  0.0239
91643W        W34696   0.204  13.509   8.903  0.1898 -0.1719 -0.0311
91644W        W34697  34.534  33.945   0.461 -0.0698 -0.1210 -0.2623
91645W        W34698  25.174  17.742   6.462  0.1935  0.0141 -0.0653
91646W        W34699  27.323  22.667   5.250 -0.0778 -0.0041 -0.1153
91647W        W34700  17.735  20.947   7.971 -0.0774  0.0918 -0.1043
91648W        W34701   9.101  19.459   6.240 -0.0320  0.2333 -0.0670
91649W        W34702  33.687  18.665   8.669  0.0317 -0.2524 -0.1625
91650W        W34703   4.144  23.068   6.450 -0.3061  0.2366 -0.3991
91651W        W34704   9.605   8.265   6.523  0.1426 -0.4875 -0.3201
91652W        W34705  19.126  18.811   7.758  0.0972 -0.0092 -0.0441
91653W        W34706  22.366   3.036   9.238  0.1210 -0.2943  0.0250
91654W        W34707  23.363   9.015   9.689  0.1264 -0.0033  0.0473
91655W        W34708  26.688  33.609  21.953  0.1936 -0.2491 -0.1533
91656W        W34709  25.600   3.966  25.018 -0.0966 -0.0263 -0.1220
91657W        W34710  18.649  17.968  24.199 -0.0349  0.0174  0.1729
91658W        W34711   8.588   5.915   3.474  0.2722 -0.0490  0.5294
91659W        W34712  17.525  24.768  27.250  0.1481 -0.0043 -0.0761
91660W        W34713  16.909  22.950   8.866 -0.1726  0.0149  0.0802
91661W        W34714  10.302   5.080  27.556  0.1387  0.0162 -0.1132
91662W        W34715   7.834  15.727   8.210 -0.3742 -0.2770  0.2229
91663W        W34716  17.696   5.349   2.428  0.2548 -0.0169 -0.1445
91664W        W34717  26.419  12.508   8.528  0.0923  0.0709 -0.1188
91665W        W34718  22.873  21.085   7.240  0.1982  0.0563 -0.2877
91666W        W34719  18.425  19.767   7.681 -0.2265 -0.3723  0.2227
91667W        W34720  13.341  13.267   8.417 -0.0777 -0.2018  0.1272
91668W        W34721  14.788   6.517   1.506  0.1490  0.1219 -0.2621
91669W        W34722  13.832  26.276   6.965 -0.1095 -0.0633  0.0204
91670W        W34723  16.860  14.854   1.003 -0.1412  0.2066  0.0479
91671W        W34724   2.238  22.001   5.130  0.2311  0.0749 -0.1714
91672W        W34725   0.203  10.510   2.701  0.2096 -0.0588  0.0407
91673W        W34726   5.721  20.941   8.339 -0.1818 -0.1201  0.0801
91674W        W34727  29.545   8.531   9.335  0.3212 -0.0997  0.4659
91675W        W34728  16.316  32.309   8.853 -0.1757  0.0285  0.0861
91676W        W34729  14.334  12.054   8.461  0.0212 -0.2437  0.1924
91677W        W34730  14.064  20.913   3.416 -0.2788  0.0252  0.1642
91678W        W34731  15.741   1.833  28.273 -0.1493 -0.3336 -0.3832
91679W        W34732   9.196  29.214   1.249 -0.0547  0.0579  0.0716
91680W        W34733  28.921  21.590  10.060 -0.1031  0.0700  0.1924
91681W        W34734  21.180   2.880   6.797 -0.1695  0.0022 -0.0382
91682W        W34735   4.213  18.262  25.571 -0.0013 -0.1208 -0.0135
91683W        W34736  13.882  28.493   2.412 -0.0131 -0.0253  0.1229
91684W        W34737  14.908  30.600   5.903 -0.2788  0.0710  0.1062
91685W        W34738   8.659   2.405   7.490 -0.0564  0.3501 -0.3410
91686W        W34739  15.114   5.113  10.010  0.0666  0.1659  0.0767
91687W        W34740  22.196   9.604   2.113 -0.1069  0.1526  0.1839
91688W        W34741   6.717  10.147  10.225 -0.1716  0.2575  0.0324
91689W        W34742  18.886   9.952   2.594  0.0719 -0.2806  0.4250
91690W        W34743   9.025  21.062  26.039  0.0064  0.1325 -0.0891
91691W        W34744  31.197  13.636   9.801  0.1562 -0.0596 -0.1208
91692W        W34745   6.356  14.952   3.190 -0.1080 -0.0397 -0.0916
91693W        W34746  23.552   3.396  26.699 -0.1671 -0.0145  0.0728
91694W        W34747  28.717  11.893  28.663  0.1203 -0.2682 -0.0070
91695W        W34748   2.511  27.191   3.419 -0.1761 -0.0649  0.0705
91696W        W34749   2.810   5.833  21.757 -0.1652  0.0613 -0.0384
91697W        W34750  21.214  15.996   6.980  0.0263  0.2950  0.0852
91698W        W34751  13.980   7.222   5.764 -0.0336 -0.0693 -0.1348
91699W        W34752  16.200  15.121   2.558  0.1832  0.0036 -0.6203
91700W        W34753  11.601  27.290   1.106 -0.2712  0.2396 -0.4894
91701W        W34754  10.111  19.730   4.866 -0.0515 -0.1370  0.0880
91702W        W34755  13.827  17.405  22.299 -0.0491  0.2246 -0.3025
91703W        W34756  21.655  27.917  20.964  0.2283 -0.2222 -0.1094
91704W        W34757  30.589  23.443   0.941 -0.1755  0.0919  0.0792
91705W        W34758  22.619  17.499  18.330  0.0856 -0.0730  0.1363
91706W        W34759  15.738  20.368   2.957 -0.0236  0.1318 -0.0689
91707W        W34760  23.075  15.781  23.709  0.1029 -0.0181 -0.1938
91708W        W34761  17.503  20.550   7.838 -0.0935 -0.2896  0.0689
91709W        W34762  25.682  20.335   2.409 -0.2706  0.1525 -0.0778
91710W        W34763  13.507   3.020  24.413  0.1504 -0.2596 -0.0617
91711W        W34764   9.274  30.364  22.926 -0.1557  0.3788 -0.0227
91712W        W34765   9.400  24.710  28.646  0.0949 -0.1342 -0.0795
91713W        W34766   8.633   8.653  26.711  0.2783 -0.0375  0.0983
91714W        W34767  22.269  25.927   0.833  0.1406  0.3322  0.0772
91715W        W34768   9.545  22.828   7.142  0.0766  0.2773 -0.1434
91716W        W34769  14.882   9.760   7.481 -0.1355 -0.0272 -0.1288
91717W        W34770  10.992  11.784  16.372  0.2080  0.2685 -0.0833
91718W        W34771   9.615  19.232   9.639  0.2476  0.0448  0.0836
91719W        W34772  16.402  19.117   5.487 -0.2978 -0.0785 -0.2251
91720W        W34773  17.991   8.457   2.045 -0.0505 -0.1129  0.1691
91721W        W34774  11.593  14.677  11.080  0.0559 -0.3140 -0.2243
91722W        W34775  10.144   0.339   5.359  0.2656 -0.0678  0.1754
91723W        W34776  20.413  17.258  26.964  0.2002  0.1196 -0.2077
91724W        W34777   0.927  29.090  18.708  0.0720  0.3345 -0.0881
91725W        W34778   7.324  24.981  19.049  0.0729 -0.1170  0.2084
91726W        W34779  13.621   5.561  21.790 -0.1330  0.0238  0.0485
91727W        W34780   2.368  20.020  29.126 -0.1089 -0.1878  0.4125
91728W        W34781  14.126   0.833   3.705  0.0139 -0.3104 -0.0245
91729W        W34782  25.171   3.572   9.704  0.3314  0.2467  0.1696
91730W        W34783  28.533  32.162   1.436 -0.0146 -0.0663  0.2591
91731W        W34784   1.623  24.016   6.837  0.0115 -0.0712 -0.2592
91732W        W34785   7.528   9.769   4.293 -0.0359 -0.0482  0.2466
91733W        W34786  21.336  12.602  29.098  0.0528 -0.1047  0.2499
91734W        W34787  16.219  23.385  10.558  0.2716 -0.0118  0.2287
91735W        W34788  17.167   0.108   2.461  0.0200 -0.1653 -0.3400
91736W        W34789   9.290  21.970  16.008 -0.2294  0.1509 -0.0734
91737W        W34790  11.755  10.801  18.110  0.3654  0.0937 -0.1079
91738W        W34791  23.647  33.821  15.275 -0.0087 -0.0241  0.2230
91739W        W34792  18.428  14.762  23.441 -0.2281 -0.1249 -0.0761
91740W        W34793   0.909   9.992  22.842  0.1413  0.2511 -0.3748
91741W        W34794   7.854  18.345  27.195  0.3062 -0.0037  0.0889
91742W        W34795  14.552  21.986   4.142 -0.1782 -0.1744  0.1740
91743W        W34796  25.692  14.480  29.162  0.1784 -0.2231 -0.0243
91744W        W34797  14.297  30.962   1.402 -0.2523 -0.0714  0.0247
91745W        W34798  21.667  12.966   5.783  0.4765 -0.0222  0.3586
91746W        W34799  33.395  27.071  26.760  0.1479 -0.0591  0.0406
91747W        W34800  13.854   2.764   9.043 -0.1006 -0.3651 -0.0219
91748W        W34801   8.089  30.020  27.117 -0.0825 -0.1113 -0.0233
91749W        W34802  19.219  13.661   1.799 -0.1482 -0.0239 -0.0147
91750W        W34803  13.459  11.021  26.126  0.1758 -0.4716 -0.0875
91751W        W34804  15.951   9.362   0.868  0.1461 -0.1654 -0.1964
91752W        W34805  29.923  26.907   5.586  0.1739 -0.1305 -0.0351
91753W        W34806  33.286  13.523   3.347  0.1967 -0.1563  0.1456
91754W        W34807  15.959   3.965  24.601  0.1188 -0.0966 -0.1888
91755W        W34808   2.824  18.117   1.800 -0.0588 -0.0225 -0.4185
91756W        W34809  10.829  18.434  17.683 -0.0317  0.1946  0.2796
91757W        W34810  15.116  22.158   7.387  0.0193 -0.3026 -0.0221
91758W        W34811  21.076  11.860  25.186 -0.4717  0.2273  0.0370
91759W        W34812  28.632  27.137   3.015 -0.2045  0.5321  0.1689
91760W        W34813  18.753  23.442  20.515 -0.0251 -0.1394  0.1568
91761W        W34814   3.356  23.376   3.232 -0.2559 -0.0887  0.0111
91762W        W34815   9.145   8.043  10.047  0.1756  0.0704 -0.0960
91763W        W34816  24.420  13.425   6.629 -0.0210 -0.0813  0.0376
91764W        W34817  12.105  12.708   9.897  0.0816 -0.1878  0.0521
91765W        W34818  15.160   9.393  22.930  0.0536  0.0729  0.2019
91766W        W34819   8.469  15.963   3.490  0.0357  0.2885 -0.0727
91767W        W34820   3.167  26.187  25.206 -0.0041  0.3407  0.4055
91768W        W34821  13.832  26.364  15.075 -0.4627 -0.0510 -0.0673
91769W        W34822   9.690   0.807  27.256  0.2329 -0.2447  0.1954
91770W        W34823  22.225  15.649   5.069  0.3507 -0.0927 -0.0690
91771W        W34824  17.238  16.138  26.902  0.1469  0.1523  0.0061
91772W        W34825  20.692   9.491   2.006  0.2155  0.1026 -0.2200
91773W        W34826  20.703  16.826   8.625 -0.0807  0.1106  0.1052
91774W        W34827   5.397  19.286   4.560  0.0027 -0.0931 -0.0991
91775W        W34828  12.502  15.991  28.250 -0.0666 -0.4504 -0.3606
91776W        W34829  18.737  17.377   3.921 -0.2650  0.2171 -0.1565
91777W        W34830  30.669  14.602   4.314  0.1084 -0.2083  0.0535
91778W        W34831  13.626  17.873   6.791 -0.3305 -0.0015  0.0321
91779W        W34832  23.836  20.750  27.277 -0.0039  0.3744  0.0628
91780W        W34833  12.425  19.916  22.881  0.1441  0.1356  0.2993
91781W        W34834   6.890  16.482   2.157  0.1928 -0.1077  0.0445
91782W        W34835  14.605  14.459   0.625  0.0688 -0.4098  0.2115
91783W        W34836   6.504  13.016  18.255  0.1011  0.4300  0.1640
91784W        W34837  17.575  11.890  16.769  0.0551  0.1293 -0.2618
91785W        W34838  21.744  13.486   7.544  0.2610 -0.1431  0.2410
91786W        W34839   8.284  22.428  29.198  0.0478  0.0299  0.3651
91787W        W34840   3.493  14.473   9.319 -0.1744 -0.0059  0.2114
91788W        W34841   1.480  11.609  10.792 -0.0704  0.0081  0.0170
91789W        W34842   7.647  20.042   7.177  0.0337  0.2918  0.2495
91790W        W34843  29.842   4.891  27.547  0.2080  0.0787  0.1428
91791W        W34844   9.831   7.656  28.530  0.1125 -0.0527 -0.0355
91792W        W34845  19.179  23.618  21.951 -0.2407 -0.3188 -0.1877
91793W        W34846  32.622  23.783   6.048 -0.0046  0.1570 -0.0260
91794W        W34847   0.378  11.434   0.739 -0.0560 -0.0693  0.0657
91795W        W34848   6.500  33.665   2.368 -0.0029  0.1999  0.2404
91796W        W34849   6.724  22.660   4.820  0.0009  0.2268  0.1860
91797W        W34850  26.138  15.727  23.846  0.1911 -0.4097  0.0810
91798W        W34851  12.637   1.083   9.319 -0.1789  0.0317 -0.1388
91799W        W34852  17.324  28.901   8.092 -0.3074  0.2856  0.0008
91800W        W34853  22.387  21.191   4.567  0.3167 -0.0154  0.3414
91801W        W34854   8.994  15.746   3.556  0.4661 -0.1015 -0.1706
91802W        W34855  10.726  24.551   6.587  0.1121 -0.0370  0.0192
91803W        W34856  23.767   8.282   5.647 -0.3966  0.0595  0.3093
91804W        W34857  11.619  22.989  26.324  0.0323  0.0631  0.0275
91805W        W34858  22.309   1.242  10.102 -0.2007 -0.1701  0.3367
91806W        W34859  19.710  13.673   5.821  0.1166 -0.1756 -0.1626
91807W        W34860   6.270  11.175  26.494 -0.0213  0.0269 -0.0418
91808W        W34861  12.821  32.775  21.559 -0.1152 -0.1496  0.0787
91809W        W34862   1.134  16.359   4.645  0.0628  0.1227 -0.0096
91810W        W34863   6.586  14.425   6.343  0.1612 -0.3468 -0.0865
91811W        W34864   7.140  17.571   7.264 -0.1714  0.0870 -0.0926
91812W        W34865   8.806  29.419   2.003  0.2675 -0.0545 -0.0012
91813W        W34866   6.146  13.159  19.561  0.0946 -0.0535  0.2788
91814W        W34867   2.102   8.695  26.579  0.2462 -0.1977 -0.0715
91815W        W34868  11.413  17.902   9.223 -0.2258  0.0659 -0.2492
91816W        W34869  22.905  14.386  15.082  0.4069 -0.0178  0.2859
91817W        W34870  16.225  20.192   8.933  0.1101 -0.0008  0.0771
91818W        W34871  16.892   6.912  21.827  0.0879 -0.0508 -0.1933
91819W        W34872  17.346  32.888   1.610  0.1490  0.0553 -0.1554
91820W        W34873  31.144  30.881  27.883 -0.4917 -0.0250  0.1428
91821W        W34874   5.221  20.293   7.346  0.3508  0.1577 -0.1344
91822W        W34875  24.762   0.890  27.774  0.1438 -0.2372  0.1500
91823W        W34876  27.299  11.689   4.506 -0.4241 -0.1829 -0.0968
91824W        W34877  31.169   8.300  27.781 -0.2725 -0.3073  0.2290
91825W        W34878  22.095  25.735  10.594  0.1830 -0.0706 -0.0427
91826W        W34879  27.379  20.480   2.407  0.3723 -0.2045 -0.0813
91827W        W34880  14.728  29.720   8.341 -0.1994 -0.4257 -0.2900
91828W        W34881  12.940  11.756   7.242 -0.2567 -0.2942  0.1085
91829W        W34882  17.555  12.799  23.356 -0.0454 -0.1777  0.2431
91830W        W34883   4.939   7.366  22.219 -0.0932  0.1552 -0.0279
91831W        W34884  15.889  13.668   9.075  0.0663 -0.1541  0.1901
91832W        W34885  24.502  10.766   8.110 -0.0686 -0.1131  0.0655
91833W        W34886   9.869  16.214  24.417  0.2661  0.1245  0.1159
91834W        W34887   5.066   7.142   7.606  0.1317 -0.1250 -0.3128
91835W        W34888  26.617  22.147  25.874  0.1382  0.0435  0.1606
91836W        W34889  20.480   3.732  27.654  0.0476 -0.1434  0.3827
91837W        W34890  19.977  26.218  23.505 -0.1878  0.1653 -0.0473
91838W        W34891  10.608  16.174  17.118 -0.0785  0.2959  0.1762
91839W        W34892  33.741   8.457   6.351  0.0419  0.1270  0.0431
91840W        W34893  16.838  15.068  27.060 -0.0279  0.1930 -0.0856
91841W        W34894   6.263  23.167  24.181  0.2111  0.3932  0.0327
91842W        W34895  13.907  23.828   4.530 -0.1095 -0.1462 -0.1914
91843W        W34896  19.221   1.534   2.643 -0.0119  0.2532 -0.0666
91844W        W34897  33.165  15.839   7.600 -0.0867  0.0827 -0.2670
91845W        W34898  22.973   8.106   5.000 -0.0705 -0.0936 -0.2373
91846W        W34899  11.139  11.535   6.770 -0.2914  0.2650 -0.3705
91847W        W34900  13.180  31.160  23.017  0.0544 -0.0920  0.0397
91848W        W34901   3.171   4.259   2.591  0.0450 -0.5802 -0.2111
91849W        W34902  19.844  32.576   5.851 -0.3976 -0.3767 -0.0724
91850W        W34903  16.812  18.638  25.990 -0.5070 -0.0196  0.2370
91851W        W34904  13.383  32.648   6.324  0.3131  0.0866 -0.1754
91852W        W34905  27.453  25.392   4.223  0.2049 -0.0917  0.3406
91853W        W34906  33.751  28.223   2.852 -0.1417 -0.0909 -0.2319
91854W        W34907   5.912  17.775  28.910  0.2113  0.0886 -0.3137
91855W        W34908  14.729  10.495   1.413  0.1132 -0.2353 -0.0818
91856W        W34909   8.285   6.984   3.252  0.1161 -0.1716  0.0279
91857W        W34910   6.436  24.553  16.349  0.1208  0.0162  0.0217
91858W        W34911  17.149  27.751  24.094  0.2092  0.2154 -0.1610
91859W        W34912  19.601  24.806   6.352 -0.0564  0.0420  0.0041
91860W        W34913  13.622   7.754  17.655  0.1363  0.1034 -0.0181
91861W        W34914   3.880   4.556  27.312  0.1963 -0.1669 -0.3459
91862W        W34915  19.358   6.073   4.588  0.0663 -0.2507 -0.3091
91863W        W34916   9.658   7.898   5.891 -0.0038 -0.2205 -0.0511
91864W        W34917  17.707   3.818  20.662 -0.0856  0.1900 -0.5441
91865W        W34918  13.478  15.606  20.879 -0.3065 -0.0544 -0.1002
91866W        W34919   9.419  24.910   7.635 -0.3936 -0.1570  0.0505
91867W        W34920   4.937   7.011   2.623  0.0168  0.0565  0.0361
91868W        W34921   4.166   6.581   1.311  0.0628  0.0100  0.1392
91869W        W34922  12.576   4.398   6.930 -0.1311  0.1065  0.4350
91870W        W34923  25.493  12.264   7.148 -0.0877  0.3411 -0.1621
91871W        W34924  19.037  21.637  28.819  0.0071  0.0344 -0.0386
91872W        W34925  13.888  14.733  26.108 -0.1439 -0.0607  0.0115
91873W        W34926   9.786  11.034   3.023  0.1194  0.2911  0.0302
91874W        W34927  29.688  22.106  26.247  0.2103  0.2073  0.1151
91875W        W34928  15.311   9.591   8.698 -0.0771  0.0794  0.1561
91876W        W34929  28.812  25.531   8.664 -0.6356  0.1729 -0.0206
91877W        W34930  19.041  21.841   7.524  0.3627  0.3075  0.0844
91878W        W34931  14.865   3.248  20.623 -0.1294  0.1140 -0.0571
91879W        W34932   4.149  25.739  26.339 -0.0156 -0.2206  0.1141
91880W        W34933  11.356  34.301   1.455 -0.4194 -0.1962 -0.0899
91881W        W34934   9.459  18.404  22.501 -0.1595 -0.0570 -0.0341
91882W        W34935   7.013  31.579   5.787 -0.0615 -0.2235 -0.0083
91883W        W34936  10.262  16.287   2.931 -0.2437  0.1403 -0.1680
91884W        W34937  16.853  27.263  16.809  0.0282 -0.1874 -0.2084
91885W        W34938  23.257  33.010   4.398  0.1472 -0.0945  0.1100
91886W        W34939   3.375   7.808   5.134 -0.1455  0.0120  0.0581
91887W        W34940  29.562  20.989   5.751  0.0722  0.0474 -0.1614
91888W        W34941  10.746  10.672   2.994 -0.1105  0.1829 -0.2186
91889W        W34942  19.005   0.008   8.806  0.1116  0.1424 -0.0484
91890W        W34943   3.971  24.322   5.974  0.1489 -0.1825  0.2990
91891W        W34944  13.439  18.946   5.648 -0.0247  0.1128 -0.0048
91892W        W34945  12.852  15.897   7.279  0.2375 -0.3420 -0.0835
91893W        W34946  10.775   6.814   2.569 -0.1601 -0.1770 -0.0039
91894W        W34947  32.934  17.337  25.550  0.3114 -0.1482  0.2992
91895W        W34948  10.390   1.831  17.306 -0.0383 -0.0032  0.6438
91896W        W34949   6.867  32.467   5.885 -0.1860  0.2791 -0.0537
91897W        W34950  14.648  15.814  13.450  0.2050  0.0152 -0.3047
91898W        W34951  33.778   6.029   7.599  0.1431 -0.2939 -0.0245
91899W        W34952   6.492  13.434  28.937 -0.2644 -0.0552  0.3148
91900W        W34953  11.859  33.648   4.016 -0.1048  0.5086 -0.2587
91901W        W34954  13.631  31.732  22.307  0.3185 -0.3851 -0.2105
91902W        W34955   9.841   7.834  21.847 -0.2971 -0.0978  0.1945
91903W        W34956   4.759  12.884  23.170 -0.1941  0.0253 -0.0518
91904W        W34957   2.048  13.391   0.202  0.1815 -0.1860 -0.0440
91905W        W34958  32.456  18.861  24.019  0.1071  0.1873 -0.5281
91906W        W34959  24.295  13.114   3.938 -0.0838  0.0011  0.0905
91907W        W34960   0.893   5.162  18.569 -0.3183 -0.1462  0.1178
91908W        W34961   3.755   9.169   1.832  0.0253  0.1036  0.0550
91909W        W34962   2.776   4.991  10.007  0.2961  0.0399 -0.1242
91910W        W34963   9.155   5.009   4.335  0.0189 -0.2946 -0.1421
91911W        W34964  30.591  30.896   4.441 -0.3386  0.0393 -0.2059
91912W        W34965  23.155  28.048  20.887 -0.0596 -0.1129  0.0521
91913W        W34966  29.734  23.498   2.476 -0.1158 -0.2421  0.2996
91914W        W34967   8.264   6.241  24.921 -0.1530  0.2867  0.1143
91915W        W34968  26.962  22.635  20.165 -0.1286 -0.0467  0.0593
91916W        W34969  25.537  28.776  26.378 -0.1548 -0.0839 -0.1316
91917W        W34970  13.859   4.785   7.003  0.0859  0.0483 -0.3948
91918W        W34971   5.519   7.870  20.415  0.0697 -0.1165  0.4676
91919W        W34972  24.656  22.968   1.856  0.2807 -0.0832 -0.1963
91920W        W34973   6.542  14.985  23.260  0.0289 -0.1203 -0.0995
91921W        W34974  23.312   3.374   9.021  0.3090  0.0671 -0.0290
91922W        W34975   4.932  15.985   8.391  0.1525 -0.2151 -0.0406
91923W        W34976  34.349  28.214   2.820  0.0722 -0.1151 -0.1117
91924W        W34977  31.662  21.676   2.558 -0.1827 -0.3767  0.0702
91925W        W34978  13.398  26.217  26.560 -0.0236 -0.0719 -0.1390
91926W        W34979  31.151  25.630   3.189  0.1011  0.2828  0.1141
91927W        W34980   9.860  11.144   1.164 -0.1425 -0.2477  0.0070
91928W        W34981   3.771  17.314   0.573  0.0475  0.1432  0.3467
91929W        W34982  17.840  29.672  28.209  0.1785  0.0963 -0.0507
91930W        W34983  17.685  15.196  21.847  0.2631 -0.0118  0.0704
91931W        W34984   3.952  12.882   0.740  0.0787  0.0249  0.2262
91932W        W34985  26.262  29.230   4.511  0.1041  0.0812  0.0537
91933W        W34986  14.714  24.495   2.423 -0.3097 -0.1303  0.0210
91934W        W34987  29.171  11.313  24.563 -0.0303  0.1494  0.0744
91935W        W34988   3.640   8.156  26.597 -0.1125 -0.1863  0.0606
91936W        W34989   1.674  23.372   3.806  0.2177 -0.3778  0.1177
91937W        W34990  21.651   3.763   4.378 -0.2547 -0.0496 -0.3912
91938W        W34991  22.156  19.922   1.050  0.0553  0.2180  0.1226
91939W        W34992   7.504  22.468   3.187 -0.4366  0.3173  0.0858
91940W        W34993   7.556  22.223  21.079 -0.0921 -0.4463  0.0428
91941W        W34994  12.994  21.268  21.038 -0.1449  0.0015 -0.1524
91942W        W34995  11.597  27.878   4.315  0.0809 -0.2212 -0.2562
91943W        W34996   8.388  19.190  21.833  0.4032 -0.0875 -0.0581
91944W        W34997  32.714  12.721  21.742 -0.0511  0.1498 -0.3075
91945W        W34998  30.584  23.956  26.332  0.1460  0.2610 -0.3733
91946W        W34999  21.468   7.399  19.947 -0.1293 -0.7345  0.0106
91947W        W35000   9.546   7.846   0.548  0.0405 -0.1987 -0.1999
91948W        W35001   9.394  11.130   6.330 -0.1412  0.1801 -0.0284
91949W        W35002   2.313  30.761   2.194  0.1593  0.2421  0.0028
91950W        W35003   6.120  24.436   0.281 -0.2665 -0.1633 -0.1741
91951W        W35004   9.945  26.473  17.638  0.1307  0.0738 -0.1056
91952W        W35005   6.784  21.891   6.068  0.1848  0.0390  0.3046
91953W        W35006   3.334  30.577   6.215  0.0739 -0.1360 -0.4142
91954W        W35007  15.311  23.268  16.414  0.1149  0.0860 -0.3539
91955W        W35008  34.278   1.105  26.096 -0.1927  0.1584 -0.0206
91956W        W35009  12.896   6.353  23.236 -0.1695  0.5035 -0.2284
91957W        W35010  28.189   3.259   8.823  0.3576 -0.0684 -0.1154
91958W        W35011   5.226  26.954  14.424 -0.3105 -0.0839 -0.1222
91959W        W35012   7.468  12.041  20.760  0.0533  0.1888  0.1696
91960W        W35013   3.585   4.289  29.047 -0.1918 -0.0314  0.1528
91961W        W35014  14.524  26.601   5.516  0.0149  0.0451  0.1736
91962W        W35015   8.619  24.744   8.583 -0.0449  0.0149  0.0576
91963W        W35016  30.061  26.820   8.104  0.1082 -0.1696  0.0669
91964W        W35017   8.983  16.273  27.082 -0.0262 -0.0285  0.0561
91965W        W35018  32.495   9.140   2.661  0.0611  0.1083 -0.3078
91966W        W35019  11.060   6.388   1.857 -0.1598  0.1368  0.3800
91967W        W35020   2.478  10.368  20.271 -0.1924  0.0758 -0.1479
91968W        W35021  13.801  21.497   9.263  0.0540  0.2771  0.2421
91969W        W35022  12.036   6.809  24.953 -0.0231  0.1583 -0.3585
91970W        W35023  26.523   4.871  26.384  0.1689 -0.2007 -0.2299
91971W        W35024   0.806   1.963  26.859 -0.0265 -0.0851  0.2587
91972W        W35025  26.664   5.165  22.853 -0.1933 -0.1887 -0.1599
91973W        W35026  15.438  10.812  26.925 -0.1777 -0.1412 -0.1495
91974W        W35027  19.445  19.738  26.492 -0.0375  0.4250 -0.2599
91975W        W35028   7.803  15.078  26.356  0.2341  0.1397 -0.2148
91976W        W35029  19.770   9.536  25.561  0.1377 -0.0319 -0.0195
91977W        W35030  10.647  19.097   9.941  0.0143  0.0547  0.2259
91978W        W35031   4.867  14.062  23.906  0.1879 -0.0062 -0.1736
91979W        W35032  19.309  14.193   4.247  0.0319 -0.0529  0.1933
91980W        W35033  13.086   5.039  21.313 -0.2693  0.2118  0.2212
91981W        W35034  11.009   1.953   9.674 -0.5705  0.0184 -0.0933
91982W        W35035   6.664  12.777  14.403 -0.2132 -0.1990  0.2062
91983W        W35036   8.560  18.214   2.298  0.0428 -0.1104  0.0048
91984W        W35037  10.492  24.262   5.297 -0.1323 -0.2620 -0.3635
91985W        W35038  18.981   0.545   8.717 -0.1193  0.0303 -0.2450
91986W        W35039   7.401   0.472   3.061  0.0213  0.2714 -0.0573
91987W        W35040  27.440  16.872   0.247  0.2041  0.2189 -0.1402
91988W        W35041   7.168   8.678   6.316  0.4112 -0.2235  0.0421
91989W        W35042  18.283  16.660   8.437 -0.2936 -0.1334 -0.0962
91990W        W35043  10.265  32.881   5.055 -0.0247 -0.0656 -0.4847
91991W        W35044  12.583   7.368   7.712 -0.1657  0.2432 -0.0170
91992W        W35045  21.569   5.436  27.879  0.0230  0.0129  0.3265
91993W        W35046  11.781   9.411  26.327  0.0097 -0.1103 -0.0154
91994W        W35047  17.413  14.831  22.126 -0.0651  0.0830  0.0705
91995W        W35048  13.271  26.197  22.548 -0.0238  0.4498  0.1950
91996W        W35049  34.046  18.040  24.131  0.0157  0.3666  0.1650
91997W        W35050  34.281  18.378   2.039 -0.0343 -0.0206  0.1832
91998W        W35051  23.056  15.899  27.994  0.1819  0.0809 -0.2933
91999W        W35052  29.562  16.704  19.860 -0.0295  0.3181  0.0095
92000W        W35053   4.668  16.921   6.599  0.0833 -0.0869  0.1271
92001W        W35054  33.546  24.023   3.405 -0.0260  0.2428 -0.1607
92002W        W35055   2.744   6.698   9.128  0.1826 -0.3846  0.1305
92003W        W35056   8.969  26.841   6.377  0.0162 -0.0363 -0.1612
92004W        W35057  32.949  27.529  16.498 -0.0904 -0.1078  0.0925
92005W        W35058   3.415  24.971   5.530 -0.2012 -0.0851  0.0300
92006W        W35059  10.010  25.163  27.163 -0.0693 -0.0666  0.0108
92007W        W35060  17.989  25.403  27.969 -0.1574 -0.2016 -0.4287
92008W        W35061  10.948  13.661   7.644 -0.0735  0.3419  0.0205
92009W        W35062   4.560  13.072  14.213 -0.0219  0.0426 -0.2255
92010W        W35063  25.188  24.290  28.643 -0.2696 -0.0740  0.1142
92011W        W35064   9.688   3.962  23.609 -0.1280 -0.0209  0.1258
92012W        W35065  26.357  20.533  28.597  0.1243  0.0439  0.0135
92013W        W35066   6.443  30.712   4.246 -0.0668 -0.1763 -0.0698
92014W        W35067  17.287  11.382   7.206  0.2635  0.0696 -0.1349
92015W        W35068   7.930  27.153   2.597 -0.4866 -0.0648  0.1814
92016W        W35069  20.319  12.600  24.992  0.0385 -0.0130  0.2740
92017W        W35070  32.597   8.695   2.390 -0.1168  0.0110  0.1084
92018W        W35071  16.323  24.716  28.082  0.0223  0.1198 -0.2263
92019W        W35072  13.935  14.324   9.352  0.1953  0.1593 -0.4068
92020W        W35073   8.683  31.967  23.288 -0.0748 -0.1964 -0.0511
92021W        W35074  20.404  17.771   1.758 -0.1501 -0.1059 -0.4363
92022W        W35075  10.966  10.068   6.899 -0.0129  0.4450 -0.0289
92023W        W35076  21.388  17.621  24.133 -0.0161 -0.0026  0.0561
92024W        W35077  10.572   6.001   2.739 -0.3930 -0.1493 -0.0570
92025W        W35078  30.650  25.825   4.468 -0.2744  0.0839  0.1239
92026W        W35079  11.710   0.098  22.749  0.0377 -0.0268 -0.2992
92027W        W35080  10.726  17.890  18.425 -0.1491  0.1011 -0.0851
92028W        W35081  12.819   9.522  20.017 -0.0793 -0.0762  0.2306
92029W        W35082   8.726  17.264   8.945 -0.4655 -0.0785  0.1466
92030W        W35083  34.404  15.654   3.071 -0.2112  0.0291  0.2124
92031W        W35084   2.966  16.136  16.789 -0.1380  0.2083  0.5468
92032W        W35085   0.721  34.521   4.967 -0.2184 -0.1524 -0.2339
92033W        W35086   5.061  18.324   1.907  0.2165 -0.2263  0.0700
92034W        W35087   7.109  11.117   2.782 -0.1516  0.3101 -0.1360
92035W        W35088   4.984  16.486  28.786 -0.1314 -0.1371  0.0854
92036W        W35089  16.509  14.303   2.179 -0.1122 -0.0968 -0.0457
92037W        W35090  15.957  14.121  22.417  0.0896 -0.3206  0.0468
92038W        W35091  10.306  19.593  26.837  0.2858 -0.1596 -0.3936
92039W        W35092   9.680  17.601   1.641 -0.0094 -0.1105  0.1831
92040W        W35093  18.743  24.200  22.212  0.1118 -0.2771  0.0365
92041W        W35094  12.955   8.588   1.676  0.1889  0.0577  0.1135
92042W        W35095   6.245   9.107   6.234 -0.0803  0.1502 -0.4003
92043W        W35096  26.660  12.487  20.924  0.0746  0.0803 -0.0639
92044W        W35097  21.728  19.683  17.054 -0.0313  0.1032  0.0027
92045W        W35098   7.207  14.417  19.246 -0.0463 -0.5566 -0.0217
92046W        W35099  10.124  10.430  22.379 -0.1292 -0.0796  0.1730
92047W        W35100  31.997  11.921   1.366 -0.1980 -0.1801  0.0565
92048W        W35101   2.639  18.517  23.051 -0.0112  0.1735  0.1502
92049W        W35102   7.063  21.141   8.326  0.1130  0.1863 -0.1387
92050W        W35103  18.022  17.490  24.516  0.2302 -0.1155  0.1925
92051W        W35104  20.032  20.582   3.748 -0.3391  0.1554  0.1759
92052W        W35105  16.207  33.034   0.274 -0.0157  0.1038  0.0311
92053W        W35106  20.403  23.541   2.906  0.2437  0.2297  0.1492
92054W        W35107  31.746   8.453   2.662  0.0446  0.0015  0.2275
92055W        W35108   2.981   9.362   8.382 -0.2321 -0.0259 -0.0617
92056W        W35109  33.196  23.071  24.915 -0.1278  0.1589 -0.3128
92057W        W35110   6.219  22.297   2.446  0.3367 -0.0526 -0.0949
92058W        W35111  24.727  16.463  25.517 -0.0505  0.1825 -0.1656
92059W        W35112  15.816  28.963   1.516 -0.0230 -0.2000 -0.1559
92060W        W35113  22.474  10.305   1.567  0.2961  0.1913 -0.2173
92061W        W35114  12.721  34.176   1.430  0.0491 -0.0186  0.1510
92062W        W35115  13.329  14.706   0.775  0.0670  0.2415 -0.0037
92063W        W35116   6.645  10.102  16.014  0.1170 -0.2356  0.0028
92064W        W35117  16.572  21.322   0.623 -0.1001 -0.1012  0.1463
92065W        W35118   6.615  18.866  20.962  0.1405 -0.1409 -0.2653
92066W        W35119  23.598  18.650  21.414  0.3101  0.0200 -0.1778
92067W        W35120  32.534  28.806   6.665  0.1449 -0.1214 -0.1569
92068W        W35121   6.050  13.300  28.665 -0.4395 -0.1360 -0.4511
92069W        W35122  10.037   3.790   5.739  0.1060  0.1169 -0.0333
92070W        W35123   9.597  11.878  24.853 -0.0468 -0.0291  0.2274
92071W        W35124  33.663   8.900   4.808 -0.0037  0.0869 -0.2016
92072W        W35125  17.333  17.473   8.260  0.0667 -0.1168  0.1767
92073W        W35126  14.145  13.819   7.798  0.1785 -0.0570 -0.0076
92074W        W35127   1.726  22.795   2.075 -0.1927 -0.1327  0.0077
92075W        W35128   7.407  19.391   5.952 -0.4754 -0.1045  0.1551
92076W        W35129  26.462   4.889  21.124 -0.0753  0.0434 -0.3526
92077W        W35130  21.351  31.441   9.688 -0.0231 -0.1159 -0.0814
92078W        W35131  14.071  19.074   5.613  0.3116 -0.0242  0.1114
92079W        W35132   3.400  13.637  25.993  0.2097  0.2306  0.0717
92080W        W35133  16.725   7.034  18.209  0.0531  0.1691 -0.2001
92081W        W35134  14.217  12.008   7.084  0.0371 -0.0211 -0.0106
92082W        W35135  22.722  17.358   7.578 -0.1068 -0.0829 -0.0323
92083W        W35136  33.416  10.392   9.579  0.1478 -0.1627 -0.0405
92084W        W35137  22.818  19.001   9.666  0.0348 -0.1597  0.1544
92085W        W35138   9.469   6.652  28.024 -0.3239  0.0146 -0.1225
92086W        W35139  25.452  21.953  21.425  0.2108  0.3614  0.2349
92087W        W35140   1.358  11.245   6.602 -0.0778  0.0755 -0.4148
92088W        W35141  20.418  22.661  16.954  0.1818 -0.2623  0.0305
92089W        W35142   9.924  17.782   5.776 -0.1291 -0.0129  0.0397
92090W        W35143  34.515   5.950   3.178 -0.1487  0.1020 -0.3722
92091W        W35144   5.808  16.562   8.986  0.1513  0.1294 -0.0340
92092W        W35145   5.327  21.400  26.796 -0.0094 -0.2028  0.2292
92093W        W35146  21.995  11.837   4.935 -0.0395  0.4380 -0.2038
92094W        W35147   3.863  25.757   8.642  0.0294 -0.0562  0.0996
92095W        W35148  10.577   8.281  28.922 -0.4620 -0.1709  0.1323
92096W        W35149  23.004  16.051   8.321 -0.0316 -0.1185  0.0011
92097W        W35150   9.900  16.224  14.924 -0.3375 -0.0870 -0.1208
92098W        W35151  10.893  14.483   0.921 -0.0794  0.4169 -0.0241
92099W        W35152  12.948  22.752   2.566 -0.0307 -0.0196 -0.2182
92100W        W35153  20.054  19.595   1.689 -0.2409  0.0042 -0.0223
92101W        W35154  33.550   9.711  26.529  0.0338  0.2177  0.1362
92102W        W35155  28.020  17.609   8.597 -0.3680 -0.2089  0.2332
92103W        W35156   3.928   8.697   8.739  0.0834  0.1045  0.2171
92104W        W35157  19.004  12.625  20.495 -0.0712 -0.0536  0.1463
92105W        W35158  16.901  16.226  28.716  0.0880 -0.2944 -0.1557
92106W        W35159   6.479   6.523  26.541 -0.1252  0.0109  0.1836
92107W        W35160  13.254   1.853  26.266 -0.3402  0.0072 -0.2488
92108W        W35161  22.220  16.794   5.429 -0.4635 -0.4526 -0.0799
92109W        W35162   0.119  10.515   1.755 -0.1105 -0.1921 -0.1349
92110W        W35163   9.880  31.927   9.580 -0.2497 -0.0576 -0.2013
92111W        W35164  32.832  19.551  17.719  0.2318 -0.0170 -0.0629
92112W        W35165  15.588  16.903   5.888 -0.4333  0.2025  0.1341
92113W        W35166  21.787  21.309   6.287  0.1111 -0.3701  0.2696
92114W        W35167   2.833  30.951   9.184  0.1225 -0.2043  0.2246
92115W        W35168  21.703  13.849  25.342  0.0825 -0.0890  0.1274
92116W        W35169   3.211  34.513  26.858  0.1092  0.3496  0.1295
92117W        W35170  13.459  16.608   5.924 -0.0193 -0.0628 -0.2315
92118W        W35171  28.848  29.142  28.227  0.2031 -0.3137 -0.0610
92119W        W35172  17.433  22.899  23.609  0.4596  0.0414 -0.0722
92120W        W35173  31.562  22.477   0.835  0.0426  0.0137 -0.0117
92121W        W35174   8.007  13.624   8.455  0.0529  0.0310  0.0557
92122W        W35175  31.557  32.794   7.530  0.0006  0.0168 -0.0320
92123W        W35176   1.237  18.736   0.961  0.1688 -0.2369  0.1996
92124W        W35177   2.814  13.865   8.138 -0.0426 -0.1404  0.0440
92125W        W35178  33.874  18.983  14.862 -0.3126 -0.1491  0.0269
92126W        W35179   0.064  16.359  28.625 -0.0672 -0.0500 -0.2799
92127W        W35180  25.338  11.864  27.934  0.4673 -0.1420 -0.2674
92128W        W35181   8.227  24.137   2.481 -0.0192 -0.4423 -0.1484
92129W        W35182  14.891   6.385  20.047  0.0556  0.1282  0.0026
92130W        W35183  14.142  18.446   5.555 -0.0368  0.1226  0.0885
92131W        W35184  11.713  17.108  23.550 -0.1369 -0.1185 -0.1900
92132W        W35185  19.012  18.239  26.901 -0.0548  0.3129 -0.0833
92133W        W35186  15.823  26.333   9.825 -0.1095 -0.0439 -0.1190
92134W        W35187   7.814  15.771  10.130  0.1462  0.0545 -0.1171
92135W        W35188  11.893   9.138   7.558  0.1294  0.0257  0.3368
92136W        W35189  31.735  20.520  28.999 -0.2324 -0.0111  0.1075
92137W        W35190   4.488  14.673   3.401 -0.1332  0.1319  0.2149
92138W        W35191  10.180   4.730   3.143 -0.0086  0.4478  0.0212
92139W        W35192   3.440  16.258  14.742 -0.1157 -0.0524 -0.1160
92140W        W35193  10.070   8.664   6.885 -0.0516 -0.0101  0.0728
92141W        W35194  19.323  22.203   8.129 -0.0702 -0.0271 -0.3878
92142W        W35195   2.223  30.703   7.745  0.3468  0.2462  0.2212
92143W        W35196  12.272  15.116  23.230 -0.1670  0.2313  0.1815
92144W        W35197   8.020  14.783  21.338  0.0017 -0.0964 -0.2432
92145W        W35198  11.926  23.464   8.805 -0.2657 -0.1027  0.2099
92146W        W35199   4.472  11.645  25.928  0.1331 -0.1913  0.0795
92147W        W35200   0.526   9.747   4.321 -0.0270 -0.1635  0.0160
92148W        W35201  26.202  22.018  20.545  0.2141  0.0176  0.0191
92149W        W35202  26.285  13.898   8.210 -0.0365 -0.0071 -0.1140
92150W        W35203  12.436  22.717   6.987  0.2181 -0.1972  0.2025
92151W        W35204  10.746  15.230   3.348 -0.1603 -0.5097 -0.0623
92152W        W35205  19.764  16.813   4.454 -0.0206  0.2314 -0.2793
92153W        W35206  18.057  13.349   5.714 -0.2462  0.0143  0.2459
92154W        W35207  29.207  28.883   1.999  0.1636  0.0161 -0.3552
92155W        W35208  11.305  15.759   5.842  0.2470  0.3174 -0.1536
92156W        W35209   4.489  18.586   7.946  0.1443 -0.2247  0.0594
92157W        W35210   2.049  19.890  21.181  0.0184  0.3590  0.0983
92158W        W35211  10.309  32.452   8.103 -0.1192  0.0908  0.1375
92159W        W35212  21.011  23.161  25.333  0.1547 -0.1787 -0.1935
92160W        W35213  14.395  18.452   6.331 -0.4365 -0.1328 -0.1468
92161W        W35214  14.598   8.060   6.506 -0.1374 -0.0634  0.3034
92162W        W35215  30.249  18.777  21.741  0.3118  0.1968  0.2181
92163W        W35216  21.926  31.787   8.028 -0.0479 -0.2281  0.0277
92164W        W35217  11.055   7.095   2.148  0.0921  0.0489 -0.2109
92165W        W35218  12.632  20.858   1.094 -0.0464  0.4076  0.0496
92166W        W35219   0.785   6.942  22.438  0.2192  0.0221  0.0706
92167W        W35220  23.943   3.273   2.491 -0.1606 -0.1655 -0.0826
92168W        W35221  17.055  14.639   7.421  0.0760 -0.0795 -0.0682
92169W        W35222  20.671  13.642  24.569  0.2554 -0.2816  0.1252
92170W        W35223  20.139  19.802   9.449 -0.2215  0.0252 -0.1536
92171W        W35224   1.520  12.508   3.087 -0.1419  0.2130  0.1242
92172W        W35225  26.862  23.643   5.752  0.2228  0.0231  0.1633
92173W        W35226   1.965  24.265  21.528 -0.0871  0.0797  0.1553
92174W        W35227  18.096   5.690   2.367  0.1300 -0.3537  0.0200
92175W        W35228  22.585  17.532   2.876  0.1096  0.2510 -0.2362
92176W        W35229  18.376   9.784  21.657 -0.2041 -0.1367  0.1207
92177W        W35230   2.431  21.307  26.500  0.0917 -0.3612 -0.0009
92178W        W35231  11.776  27.878   2.390  0.0380 -0.1202  0.2017
92179W        W35232  11.226  17.041   9.638 -0.1050 -0.0702  0.0287
92180W        W35233  14.741  14.070   9.212  0.0570 -0.2848  0.1290
92181W        W35234   7.982   3.628   0.262 -0.1485  0.0799 -0.0636
92182W        W35235  14.136  30.441  26.933  0.2879  0.1300  0.0217
92183W        W35236  13.524  14.527  21.881 -0.1904 -0.2428 -0.0418
92184W        W35237   1.781  11.043  10.928 -0.2480  0.0238 -0.2215
92185W        W35238  14.514  14.749  28.257 -0.0640  0.1557 -0.1685
92186W        W35239  30.144   7.132   7.027 -0.2363 -0.2575 -0.1136
92187W        W35240  25.657  26.808   2.244 -0.3608 -0.0710  0.0065
92188W        W35241  10.787  11.799  23.395  0.0856  0.0012  0.1096
92189W        W35242   6.652   4.500  22.690 -0.0804  0.2599 -0.0024
92190W        W35243  13.673  14.703   3.194  0.0776  0.2734 -0.1141
92191W        W35244  19.084   1.818  19.836 -0.0066  0.1919 -0.1293
92192W        W35245  17.777  17.691   7.216 -0.0828 -0.0062  0.1660
92193W        W35246   5.246  25.154   6.984  0.0598  0.0836  0.2449
92194W        W35247  13.796  23.700   7.358 -0.0240 -0.0580  0.1084
92195W        W35248  23.534  33.820  22.429  0.1597  0.0339  0.0723
92196W        W35249  12.755  20.100   3.875 -0.3303  0.1383  0.0098
92197W        W35250   4.941  23.232  26.904 -0.0585  0.1731 -0.1061
92198W        W35251   7.677  23.954   1.092  0.4451  0.0665 -0.2464
92199W        W35252  12.383  30.058  26.693 -0.1735 -0.0832 -0.1207
92200W        W35253   2.720   1.816   7.193 -0.1473  0.4093  0.0141
92201W        W35254  11.211  21.813   6.583  0.1880 -0.1064 -0.1589
92202W        W35255   0.304  29.628  20.767  0.1775  0.1468 -0.2242
92203W        W35256  21.582   7.152  28.161 -0.0452 -0.0216 -0.1706
92204W        W35257  21.385   6.943   8.260  0.0428  0.0913  0.3042
92205W        W35258  31.092  13.666   2.942 -0.0494  0.4617 -0.1221
92206W        W35259  16.881   5.291  22.490 -0.1247 -0.0883 -0.1565
92207W        W35260  17.188  21.964   6.371  0.0884 -0.0659  0.2348
92208W        W35261   8.164  12.401  27.972 -0.1704 -0.3456 -0.0950
92209W        W35262  29.327  17.346   4.524  0.1717  0.0905  0.3144
92210W        W35263   1.695  21.541  28.181 -0.1215  0.2848 -0.0081
92211W        W35264  30.621  25.485  26.569  0.0821 -0.0782 -0.0137
92212W        W35265   6.799   2.873  25.988 -0.1413  0.0235 -0.0104
92213W        W35266   6.718  15.623   2.216 -0.0844  0.1493  0.1090
92214W        W35267  22.640  12.763  25.643 -0.2163  0.0626  0.1499
92215W        W35268  10.043  19.393   1.678 -0.2575  0.1129 -0.0412
92216W        W35269  13.031  10.073  20.526  0.0746 -0.0010  0.2372
92217W        W35270   5.145  21.953   0.556 -0.1903 -0.2788 -0.3656
92218W        W35271   6.902  11.739  22.788 -0.1933 -0.1627  0.3311
92219W        W35272  23.458   2.407  25.556 -0.0492  0.4196  0.1891
92220W        W35273   8.605  22.197  18.663  0.3834 -0.1121 -0.0091
92221W        W35274  34.120   5.947   9.694 -0.3566 -0.0754  0.0035
92222W        W35275  12.481  32.945   9.915 -0.1141  0.2779 -0.1598
92223W        W35276  12.813  26.078  20.096  0.0496 -0.1753 -0.0546
92224W        W35277  20.750  16.086   9.284 -0.2083 -0.0115 -0.0656
92225W        W35278   2.366   4.333   4.628 -0.4917  0.1322 -0.1276
92226W        W35279  11.474  26.346   6.626  0.0933 -0.0231  0.0079
92227W        W35280  16.404  17.937  27.966  0.3884 -0.1523  0.0676
92228W        W35281   6.896  25.664  21.599 -0.2551 -0.1059 -0.1370
92229W        W35282   2.267   8.798   5.669  0.1075 -0.0462  0.1661
92230W        W35283  13.557  18.967   7.778  0.0263  0.2154 -0.0408
92231W        W35284  13.154  11.953   9.477 -0.0170 -0.0935 -0.0639
92232W        W35285   5.410  10.337   5.664  0.1520  0.1916  0.0068
92233W        W35286   7.827  21.528   8.409 -0.1184 -0.2608  0.5467
92234W        W35287   6.922  27.852  16.230 -0.0872  0.1087  0.4291
92235W        W35288   3.313  26.826  28.766 -0.0329  0.2375  0.0354
92236W        W35289   6.367  13.555  20.261 -0.0499  0.2845  0.3984
92237W        W35290   8.517   6.848  10.051 -0.0790  0.5394 -0.2393
92238W        W35291  13.558  29.923   1.638  0.1749  0.0906  0.1057
92239W        W35292  25.734   9.840   6.381 -0.1229 -0.1482  0.0161
92240W        W35293   9.560  23.135  26.452  0.1535 -0.1985 -0.1638
92241W        W35294   6.655  14.335  18.024  0.0067  0.2053 -0.1387
92242W        W35295  19.183  17.403   9.697  0.1960 -0.3668 -0.0616
92243W        W35296   1.228  31.177   4.980 -0.2007  0.0272 -0.4316
92244W        W35297   7.907  17.164   1.538  0.0180 -0.1829  0.1495
92245W        W35298  16.857  11.386   8.581  0.0673 -0.2452  0.0381
92246W        W35299   4.664  16.037   4.555 -0.0785 -0.2058  0.0481
92247W        W35300  15.675  20.352   8.146 -0.0960  0.0305 -0.2339
92248W        W35301  15.089  15.511  28.442 -0.1113  0.0266 -0.2154
92249W        W35302   3.713  15.860   3.780 -0.0541 -0.1380 -0.0144
92250W        W35303   8.894  18.703  15.938  0.0717 -0.0298 -0.1343
92251W        W35304  19.444  24.320   5.301 -0.0473  0.0349  0.0087
92252W        W35305   0.855  15.137   8.594  0.1150 -0.0495  0.0244
92253W        W35306  10.521  33.846   5.920  0.3087 -0.0358  0.1807
92254W        W35307  33.771  25.781   2.755  0.1585 -0.1858 -0.3214
92255W        W35308  24.803  22.201  23.508  0.4418 -0.0311  0.3022
92256W        W35309  15.909  16.537   1.203  0.2031  0.1221  0.1167
92257W        W35310  20.488  13.034  10.151 -0.2353 -0.0868 -0.2618
92258W        W35311  23.841  14.989  29.013  0.0666 -0.0188  0.1502
92259W        W35312  18.153  29.477  25.794  0.1888  0.0198  0.0614
92260W        W35313  17.500   6.856  18.951  0.2195 -0.0680 -0.3134
92261W        W35314   7.855  16.422   3.277 -0.0490 -0.0486  0.2449
92262W        W35315  10.904  18.732   6.912  0.1487 -0.0879  0.0051
92263W        W35316   6.915  20.795  25.939  0.3057 -0.0051  0.0020
92264W        W35317   6.262  14.184  27.668  0.0436  0.0310 -0.1260
92265W        W35318  11.403  19.959   1.036  0.0794 -0.0727  0.1073
92266W        W35319  11.122  18.669   9.479  0.2565  0.1785  0.0529
92267W        W35320  23.395  17.639   2.579 -0.0311  0.2874  0.2441
92268W        W35321   4.893  21.082   7.646 -0.2585 -0.1453  0.2717
92269W        W35322  25.283  26.868  21.233 -0.0739  0.2970  0.2151
92270W        W35323  28.722   9.446   5.385 -0.2698  0.1099 -0.0562
92271W        W35324  28.579   9.607   0.714  0.2827 -0.0973 -0.0779
92272W        W35325  14.389   6.621  19.147  0.0330  0.2092  0.1295
92273W        W35326   8.178  22.271  26.010  0.2087 -0.1280  0.0050
92274W        W35327  18.249  12.366   7.125 -0.1543  0.0771  0.0973
92275W        W35328  21.755  20.211   5.255 -0.1009 -0.0109  0.0604
92276W        W35329  15.933  17.168   6.937 -0.0538  0.1738 -0.1653
92277W        W35330  21.833  22.254   4.277 -0.0937 -0.0315 -0.2009
92278W        W35331   8.739   8.303   8.423  0.1143 -0.2033  0.0831
92279W        W35332  22.467   9.166  17.245 -0.0386  0.0149 -0.5547
92280W        W35333   5.362  22.779   0.658  0.3899  0.0632  0.2392
92281W        W35334   1.787  21.853   9.321 -0.2200 -0.2266  0.1362
92282W        W35335  18.644  18.074   0.377 -0.1332  0.1570 -0.1931
92283W        W35336  10.146  24.194   6.580  0.1130  0.1822  0.0503
92284W        W35337  16.108  16.698   3.931  0.1075  0.1569  0.3092
92285W        W35338  15.642  15.265   0.006 -0.4086  0.0591  0.4354
92286W        W35339  26.513  22.911   1.655 -0.0942 -0.0511  0.2182
92287W        W35340  18.169   8.460  10.805  0.1924  0.0181 -0.0473
92288W        W35341  14.803  12.294  27.420 -0.2178 -0.1024  0.1602
92289W        W35342   4.385   2.921   6.221 -0.1007 -0.2144 -0.0304
92290W        W35343   2.959   4.719   5.289 -0.3062  0.1119  0.3515
92291W        W35344   7.413  10.291   4.290  0.0016  0.4227  0.1861
92292W        W35345   8.679  25.478   9.841  0.0116 -0.2117 -0.0513
92293W        W35346  25.373   9.648   0.291  0.1615  0.0478 -0.0942
92294W        W35347  14.071  13.764   3.556 -0.2638 -0.1153 -0.1269
92295W        W35348  15.764   1.676   0.536  0.1309  0.2153 -0.0489
92296W        W35349   0.903   1.620   2.907 -0.0557  0.0310 -0.0838
92297W        W35350  29.847  16.431   5.708  0.0405  0.1146 -0.0731
92298W        W35351  23.212  32.358   0.203 -0.1128  0.0907  0.0113
92299W        W35352  13.806  22.031   6.561  0.2196 -0.0117 -0.2177
92300W        W35353  23.361  19.983   7.036  0.2382  0.0213 -0.2215
92301W        W35354  13.008  20.487   5.247  0.2478  0.1159  0.1122
92302W        W35355  13.513   5.593   1.884 -0.1057 -0.0841  0.2861
92303W        W35356   2.995   7.865   9.138 -0.3307  0.1980 -0.1033
92304W        W35357  13.599  15.981   0.095  0.1192 -0.6180  0.0943
92305W        W35358   7.910  15.745  28.712 -0.1287 -0.0848  0.0711
92306W        W35359  13.876  31.247   5.210 -0.2116 -0.4043  0.0029
92307W        W35360  23.445   4.533   4.641  0.2967  0.1127  0.1159
92308W        W35361  15.766  22.894  23.193 -0.1733 -0.2543  0.0529
92309W        W35362  18.287  14.642   9.201 -0.0199  0.2589  0.2650
92310W        W35363   7.326  16.637   9.704 -0.1901  0.1229 -0.3580
92311W        W35364  27.824  29.869  27.130  0.1538  0.0105  0.0967
92312W        W35365  14.793   4.633   5.887  0.1565  0.1427  0.1716
92313W        W35366  10.552  16.273   5.554  0.0477  0.1061 -0.0697
92314W        W35367  13.713  20.165  15.524  0.3063  0.0252  0.0186
92315W        W35368  24.745  28.079  22.372 -0.1013  0.2262 -0.2588
92316W        W35369  12.438  11.474   4.811 -0.2774  0.1791  0.0529
92317W        W35370   0.615  10.731  25.273  0.4040 -0.1210  0.1135
92318W        W35371   5.579  17.117  17.287 -0.1117  0.2886  0.1161
92319W        W35372   0.578  19.547   7.613 -0.1299  0.1421  0.2107
92320W        W35373  28.445  18.663  15.010  0.0816  0.0754 -0.3147
92321W        W35374  11.669  25.615   9.970  0.0516  0.2016 -0.1961
92322W        W35375  25.509   2.957   4.084  0.1143  0.1249 -0.1677
92323W        W35376   6.137   3.542  10.086  0.1567  0.1465  0.0084
92324W        W35377   7.965   3.887   1.603 -0.2478 -0.2095  0.0501
92325W        W35378   6.603   9.685  23.769  0.1240  0.1110 -0.2895
92326W        W35379  17.231   0.024  23.198  0.0382  0.0623  0.2565
92327W        W35380  32.972   7.862   8.077  0.2933 -0.0219  0.1072
92328W        W35381  13.309  16.960   2.597 -0.0801  0.0582  0.0671
92329W        W35382  28.741  20.406  22.460  0.1594 -0.1421 -0.4138
92330W        W35383  15.003  30.785  26.117 -0.2344  0.0436  0.1601
92331W        W35384   8.529  16.693  16.395  0.4145  0.0064 -0.1099
92332W        W35385  17.379  11.956   8.510 -0.1904  0.1559  0.1100
92333W        W35386  32.829  23.042   9.433 -0.2236  0.0103  0.0453
92334W        W35387  13.452  25.044   1.477 -0.0817  0.1338  0.1181
92335W        W35388  24.144  24.818   3.947 -0.1048  0.1255  0.3502
92336W        W35389  10.898  19.226  27.320 -0.2143  0.1561 -0.0743
92337W        W35390  17.126  20.582  26.395  0.0486 -0.0904  0.1233
92338W        W35391   8.219  31.581   5.486 -0.2351  0.1343 -0.1758
92339W        W35392  13.202  19.573   6.412 -0.2216  0.1815  0.0608
92340W        W35393  33.676  12.841   0.510 -0.2114 -0.1768  0.1098
92341W        W35394  15.155  11.495   9.360  0.1538 -0.1984 -0.2851
92342W        W35395  29.347  16.404  26.110 -0.2298  0.0229 -0.1682
92343W        W35396  16.300   2.835   2.427 -0.0210  0.1177  0.0109
92344W        W35397   2.277  10.837  23.196  0.3129 -0.4168 -0.0714
92345W        W35398  22.337  23.965   2.957  0.0747  0.2613 -0.2487
92346W        W35399  12.005  34.078  28.683  0.0439  0.1893 -0.4594
92347W        W35400  23.108   3.559   7.605 -0.1067 -0.2190 -0.1846
92348W        W35401  28.332   6.870  20.281 -0.1567  0.0293 -0.0128
92349W        W35402   6.019  15.321   6.309 -0.3133  0.1919 -0.1004
92350W        W35403  18.144  31.314   1.977 -0.0192  0.0140 -0.1454
92351W        W35404  14.842  22.825  27.045  0.2707 -0.2285  0.1205
92352W        W35405   7.350  26.053   3.656 -0.1824 -0.3140  0.0779
92353W        W35406  29.433  22.860   5.374  0.2289 -0.1103  0.1960
92354W        W35407  15.705  18.968  22.223  0.1388  0.1123  0.1578
92355W        W35408   1.626  18.952   2.452 -0.0243  0.2883  0.1955
92356W        W35409   7.733  24.027   4.874  0.1749  0.0344 -0.1106
92357W        W35410   3.528  19.789  19.448 -0.0710  0.1340 -0.0226
92358W        W35411   4.534   8.793   8.731 -0.1073 -0.1313 -0.0620
92359W        W35412  15.771  16.202   7.661  0.0326 -0.1068 -0.2164
92360W        W35413   8.071  27.440   4.112  0.1764  0.0708  0.1083
92361W        W35414   3.564  20.321   4.200 -0.0191  0.0694 -0.1750
92362W        W35415   5.458  23.893  14.285 -0.1031 -0.1253 -0.2134
92363W        W35416  28.477  11.230   9.109 -0.0917  0.0091 -0.1118
92364W        W35417   0.826  11.654   0.873 -0.0488 -0.2197  0.1461
92365W        W35418   1.267  11.224  19.848 -0.0226  0.1000 -0.0873
92366W        W35419  30.084  24.593   0.303  0.0074  0.1049 -0.0668
92367W        W35420  19.207  12.301   9.800 -0.1935  0.0683  0.1843
92368W        W35421   3.429  14.718  23.082 -0.4274  0.1526 -0.0598
92369W        W35422   9.018   0.024  16.654 -0.2306  0.1836  0.1847
92370W        W35423  15.042  17.361  25.702  0.1436  0.0675  0.2070
92371W        W35424  31.039   9.769   1.417  0.0055 -0.1503  0.0363
92372W        W35425  34.300  22.660   4.535  0.2838  0.1410  0.0336
92373W        W35426   1.601  18.545   8.124  0.0126 -0.0548 -0.2019
92374W        W35427   7.585  13.728   3.896  0.0149 -0.4850 -0.1290
92375W        W35428   7.676  21.214  26.494 -0.1798 -0.1925 -0.1224
92376W        W35429   6.931  21.117   3.740 -0.3194  0.1053 -0.0317
92377W        W35430  32.112   4.385  25.160 -0.1108  0.1237  0.0063
92378W        W35431   9.173  20.639   6.785 -0.1934  0.0728  0.0482
92379W        W35432  17.730  22.590   6.317 -0.1062 -0.3169  0.5700
92380W        W35433   0.059  28.875  27.055 -0.2068 -0.1521 -0.0980
92381W        W35434  12.606  17.313   5.616 -0.0312 -0.2470 -0.0148
92382W        W35435  12.910  19.680   5.655  0.0007 -0.1614  0.1065
92383W        W35436   1.487  12.683   1.608  0.0997  0.1976  0.1019
92384W        W35437   2.544  15.878   2.631 -0.2179  0.2451 -0.0805
92385W        W35438  34.051   5.240  27.677  0.0546  0.0976  0.3131
92386W        W35439  18.658  16.220   9.744  0.0120  0.1298 -0.3231
92387W        W35440  10.654  20.210   5.257 -0.2665  0.0425 -0.0246
92388W        W35441  20.199   4.044   6.761 -0.3534  0.2573 -0.1876
92389W        W35442  24.699  18.485   6.251  0.0320 -0.2725  0.3377
92390W        W35443  20.839  24.988   8.950  0.3198 -0.1075 -0.1665
92391W        W35444  15.193   6.967  29.126  0.1170 -0.0885 -0.2678
92392W        W35445   7.070  14.709   2.117  0.2246 -0.3676  0.0120
92393W        W35446   8.848   5.361  28.110  0.3646  0.2391 -0.0990
92394W        W35447  12.237   4.966   4.718  0.3169 -0.0758  0.2107
92395W        W35448  21.240  15.344  22.243 -0.0284  0.0033 -0.0691
92396W        W35449  30.652  30.755  23.970  0.0956  0.1433  0.2383
92397W        W35450  30.028  21.923   7.393 -0.0229 -0.1507 -0.1235
92398W        W35451  18.130  21.909  21.588 -0.0345 -0.0036  0.0878
92399W        W35452  17.695  13.478  26.756 -0.2098 -0.1761  0.5378
92400W        W35453  12.899  10.174  10.012  0.1623  0.3175  0.2486
92401W        W35454  11.087  22.963  28.981 -0.1069  0.0448  0.1684
92402W        W35455   4.887  24.425  23.786 -0.3473  0.1048 -0.1489
92403W        W35456  10.186   7.610  19.078  0.1697 -0.0768 -0.0078
92404W        W35457   2.495  16.919   3.045 -0.0616  0.0602 -0.1932
92405W        W35458   7.729  27.676  23.663  0.2187 -0.2900  0.0555
92406W        W35459   0.561  22.435   4.148 -0.1597  0.0223 -0.2263
92407W        W35460   9.542   1.346   6.900  0.2963 -0.1177  0.1117
92408W        W35461  31.132  11.920  20.882 -0.1354  0.0452 -0.1229
92409W        W35462   1.995  14.214  20.512 -0.0740  0.3345 -0.1914
92410W        W35463   0.300  26.558   7.606 -0.1431 -0.0960  0.1487
92411W        W35464   8.800   5.136  10.396 -0.2007  0.1696  0.0091
92412W        W35465   6.023  18.571  26.236  0.5388  0.0218 -0.0402
92413W        W35466  20.976  24.218   1.905 -0.0629 -0.0643 -0.1578
92414W        W35467   6.304  26.988  20.301  0.2579  0.0866  0.1371
92415W        W35468  15.197  10.203   7.644  0.5941  0.2553 -0.0185
92416W        W35469  34.022  14.438   5.386 -0.2653  0.3913 -0.3983
92417W        W35470  12.763  26.983  14.013 -0.0087  0.0936 -0.0909
92418W        W35471   0.385  15.528  28.397  0.3955 -0.5129 -0.0864
92419W        W35472  26.662  23.193   0.760 -0.1394  0.2993 -0.1256
92420W        W35473  12.710   8.261  21.876  0.1900  0.0311 -0.0299
92421W        W35474  15.706  32.974  19.491  0.0023  0.0715  0.1126
92422W        W35475  32.966  11.846   3.451 -0.1586  0.2037  0.1963
92423W        W35476   9.752  26.538  28.544 -0.0302 -0.2087 -0.1943
92424W        W35477  19.848  11.599   1.290  0.0236 -0.0325 -0.0869
92425W        W35478  10.338  23.226   6.104  0.0501  0.5020  0.5458
92426W        W35479  14.594  27.478  23.608 -0.3582  0.1778 -0.2492
92427W        W35480  14.039   0.526   3.323  0.1794  0.2404 -0.2167
92428W        W35481   6.124  22.927  24.581 -0.0703  0.0306  0.2612
92429W        W35482   5.059  32.663   8.715  0.1219  0.1275 -0.1485
92430W        W35483   5.693  12.280  25.990 -0.1559  0.0900 -0.0566
92431W        W35484  32.557  27.360   1.046 -0.2701  0.1778  0.1069
92432W        W35485  19.196  16.176   0.219 -0.5801  0.0341  0.1585
92433W        W35486  17.895  11.744  27.543  0.2377  0.2707  0.0479
92434W        W35487   8.960   6.809  27.191  0.1212 -0.3556  0.0824
92435W        W35488  11.078  26.723  28.815  0.0739 -0.4390  0.0168
92436W        W35489  30.315  15.809  22.763  0.1282 -0.0440  0.3495
92437W        W35490  23.231  29.737   6.376  0.2395  0.0063  0.2018
92438W        W35491  22.596  27.186   9.874  0.0445  0.0743  0.1407
92439W        W35492   0.697  21.592   0.552 -0.0732 -0.1258 -0.0256
92440W        W35493  23.356  10.451  21.952 -0.0620 -0.2936  0.0947
92441W        W35494   8.939  13.902   5.352 -0.0762 -0.1805 -0.0650
92442W        W35495  33.647  15.992   6.181  0.2320 -0.2805  0.1938
92443W        W35496  21.685  26.444   1.369 -0.0329  0.3080 -0.1195
92444W        W35497  19.316  22.846   5.045  0.0452  0.3179  0.1048
92445W        W35498  10.529  20.324  24.126  0.0162  0.1617 -0.1041
92446W        W35499  23.430   0.927   3.181 -0.2247  0.1689 -0.2279
92447W        W35500  11.282  24.290   1.337  0.2679 -0.0282  0.0049
92448W        W35501  10.963  13.284  22.407  0.2005 -0.2951  0.1663
92449W        W35502   7.349   7.218   2.900  0.3617 -0.1700  0.2424
92450W        W35503  18.367  15.613   2.716  0.1073 -0.1720 -0.0978
92451W        W35504  17.596   8.923  28.781 -0.0915 -0.3190 -0.1536
92452W        W35505   8.935  24.726   5.859  0.1010 -0.2769 -0.0209
92453W        W35506  12.614   7.776   5.757 -0.1017  0.1186 -0.0726
92454W        W35507   2.084  26.853   5.200  0.0397 -0.2401 -0.1875
92455W        W35508   7.279  21.814   6.020 -0.1064  0.2178  0.2477
92456W        W35509   4.318  14.184  28.532  0.0063  0.1699 -0.0030
92457W        W35510   2.352  14.627   7.420  0.0273  0.2573  0.0879
92458W        W35511  18.862  15.100  28.791 -0.1039 -0.2010  0.1129
92459W        W35512  11.439  28.771   0.255 -0.3108 -0.2262 -0.0491
92460W        W35513   9.962  13.940  10.904 -0.0273 -0.2163  0.0456
92461W        W35514  24.588   3.854  27.730 -0.0707  0.4910  0.0346
92462W        W35515  20.376  14.239   7.358 -0.1247 -0.5117 -0.0425
92463W        W35516   8.943  25.942   1.289 -0.0350  0.1599  0.1516
92464W        W35517  29.478   8.650  18.203 -0.0622 -0.0046 -0.0452
92465W        W35518  16.245  33.088  26.311 -0.2357  0.2046 -0.1678
92466W        W35519  14.307  21.736  17.852 -0.2361  0.1156 -0.2009
92467W        W35520  10.041   9.572   7.115 -0.1887  0.1765 -0.1859
92468W        W35521   1.819   2.406   5.308  0.1898  0.1365  0.0108
92469W        W35522  16.083  21.189   6.194 -0.0320  0.0258  0.3809
92470W        W35523  30.360  10.844  10.035 -0.0866 -0.2510  0.2770
92471W        W35524  10.901   9.305   9.491 -0.2548  0.0790  0.0011
92472W        W35525  17.978   7.284  21.542  0.1805  0.1048  0.1742
92473W        W35526  17.236  13.813   7.702  0.3018  0.0892 -0.0810
92474W        W35527  12.441  13.587   3.200  0.4828  0.1451  0.0677
92475W        W35528  25.703  26.404   1.864  0.0206  0.0904  0.1037
92476W        W35529  14.811  34.441   6.892  0.2544  0.0817  0.0170
92477W        W35530  19.296  19.249   8.492  0.4826 -0.1019 -0.2105
92478W        W35531  28.972  12.542   5.050 -0.1082  0.2997 -0.2124
92479W        W35532  24.593  21.239   2.897  0.2729  0.0163 -0.3669
92480W        W35533  22.231  33.229   6.356  0.1612  0.0664 -0.0628
92481W        W35534   7.372  29.930   7.465 -0.2153  0.0419 -0.0779
92482W        W35535  10.136  10.048   5.729  0.0219 -0.1466 -0.2287
92483W        W35536  31.808  14.183   2.418 -0.1843  0.3096  0.0225
92484W        W35537   2.558  15.345  20.265 -0.1057 -0.1565 -0.0366
92485W        W35538  15.121  15.857   5.341 -0.1160  0.0841  0.0645
92486W        W35539  10.979  25.693  26.482 -0.1825 -0.0939 -0.0860
92487W        W35540  33.365  16.861  19.900 -0.0535  0.1155 -0.0192
92488W        W35541  29.778  33.779  29.081 -0.0716  0.1548 -0.1351
92489W        W35542  14.410   6.129   5.137  0.1028 -0.1384  0.2799
92490W        W35543  13.684  33.462   2.576 -0.0713 -0.0645 -0.0871
92491W        W35544  17.128  10.856   8.729  0.0831 -0.0467 -0.0195
92492W        W35545   5.822  17.632   1.006  0.0140 -0.0549 -0.1774
92493W        W35546   0.706  16.454  24.966 -0.1365 -0.0778 -0.0871
92494W        W35547   6.250  15.633   2.153 -0.0473  0.1457 -0.0162
92495W        W35548   8.318  14.089   6.122 -0.3227  0.0256  0.0002
92496W        W35549   6.455  18.574   4.184 -0.3776 -0.1104  0.1169
92497W        W35550  32.807  25.711  28.396 -0.0166 -0.3929  0.0561
92498W        W35551  13.112  20.841   2.091  0.1608 -0.3435  0.1467
92499W        W35552  11.191  23.027   8.698 -0.4254 -0.3303  0.0411
92500W        W35553  17.959  22.766  28.439 -0.1102 -0.0035 -0.3059
92501W        W35554  13.758  17.542  27.198 -0.0356  0.0986 -0.0600
92502W        W35555  19.159  14.562   8.040  0.3258 -0.0746 -0.0185
92503W        W35556  32.368   3.029   7.780  0.2834  0.1650  0.1082
92504W        W35557  14.268  11.643   8.792  0.0819 -0.3361  0.1017
92505W        W35558   7.504  33.169   3.148 -0.0251  0.1299  0.0625
92506W        W35559   1.345  12.422   8.258 -0.0930  0.0873 -0.1516
92507W        W35560   9.148   9.800  28.428 -0.1202 -0.2043 -0.0620
92508W        W35561  20.265  16.113   8.825  0.3174  0.0606 -0.2066
92509W        W35562  20.540  23.276  24.542 -0.1568  0.0682 -0.0040
92510W        W35563   8.699  12.721   6.922 -0.0833 -0.0636  0.1099
92511W        W35564   7.376  25.564   8.622 -0.2656 -0.3367  0.4249
92512W        W35565   8.546  21.783   5.798 -0.1037  0.0989  0.0870
92513W        W35566  18.028  20.745   7.530  0.2301 -0.2522 -0.0448
92514W        W35567   0.245  30.332  21.591  0.1870  0.2165 -0.0509
92515W        W35568  11.660  14.957   6.943 -0.1337  0.2031 -0.2708
92516W        W35569  26.068  21.414   9.830 -0.3087  0.1325  0.0689
92517W        W35570  10.668   4.183   5.467  0.0760  0.0072 -0.4260
92518W        W35571  17.860   0.472   9.351 -0.0663  0.3113  0.0755
92519W        W35572  31.328  14.471  25.667  0.3656  0.2887 -0.2749
92520W        W35573  11.035  18.849   1.496 -0.1424 -0.2181 -0.1253
92521W        W35574  31.170   5.154  24.417  0.0270 -0.4393  0.0491
92522W        W35575  29.040  17.362   5.556  0.0009  0.0154 -0.1120
92523W        W35576  21.462  28.431   9.360  0.1504 -0.1516 -0.0689
92524W        W35577   8.508   6.072   5.890 -0.3203 -0.2346  0.2533
92525W        W35578  17.462  14.887   7.454 -0.1960  0.2526  0.1448
92526W        W35579  12.285   2.465   9.249  0.0875 -0.1087 -0.4259
92527W        W35580  13.397  32.923  22.942  0.1398  0.2439  0.2168
92528W        W35581   3.577   2.647  14.050  0.1297  0.2677 -0.0832
92529W        W35582  26.605  31.062   3.777 -0.1986 -0.0936  0.2368
92530W        W35583  11.228  10.058   8.297 -0.1131  0.2332  0.1221
92531W        W35584   4.914  20.224  18.665 -0.2270 -0.2734  0.1837
92532W        W35585  11.325  24.281   3.605  0.1226  0.1305  0.1448
92533W        W35586  22.967  20.071   7.285  0.2795 -0.1941 -0.2943
92534W        W35587   5.954  31.436   5.023  0.0602  0.3768 -0.1838
92535W        W35588   5.237  16.621   0.419 -0.0501  0.0925 -0.2507
92536W        W35589   7.441  11.184  26.480  0.0699  0.0181 -0.0373
92537W        W35590  24.735  18.397  24.900  0.2161 -0.0320  0.0857
92538W        W35591  10.437  30.450   9.481 -0.0954 -0.4923 -0.0517
92539W        W35592  27.602  18.734  20.924  0.1107  0.1346 -0.0471
92540W        W35593  16.056   8.062   8.321 -0.3304  0.0605  0.0209
92541W        W35594  11.854  19.876  24.025  0.0538 -0.1190  0.0724
92542W        W35595  34.486  15.579   7.862 -0.0422 -0.0707  0.0159
92543W        W35596   6.822  31.066   3.516  0.0291 -0.0682 -0.1254
92544W        W35597  16.509  23.786  20.033 -0.1034  0.1210  0.2606
92545W        W35598  19.704   9.528   7.864 -0.3219 -0.3337  0.1651
92546W        W35599   2.261   8.130   5.250 -0.3497 -0.2534 -0.0909
92547W        W35600  22.702  15.855  27.588 -0.0463 -0.1098 -0.0223
92548W        W35601  27.732  12.385   8.924  0.1927 -0.0476  0.1583
92549W        W35602  15.878  32.024   8.762  0.0988  0.1969  0.3546
92550W        W35603  20.497  19.798   0.822 -0.2295 -0.1351  0.0124
92551W        W35604   5.600  20.528   1.782 -0.0002  0.0805 -0.2670
92552W        W35605  20.682  17.198   4.611 -0.0054  0.0503  0.1490
92553W        W35606   2.047  29.183   7.577 -0.1632 -0.1192  0.1572
92554W        W35607  24.768  34.217   5.734  0.2995 -0.3563  0.0445
92555W        W35608  13.529  28.235   5.140  0.1748  0.1250 -0.0842
92556W        W35609   7.766  14.095   4.912 -0.0446 -0.1771  0.0022
92557W        W35610   4.429  11.125  25.955  0.1891 -0.0509  0.0492
92558W        W35611   9.512  14.362  28.731 -0.0019  0.0857  0.0456
92559W        W35612  21.340  23.491   8.009  0.5748  0.1922 -0.1430
92560W        W35613  28.827  12.925  18.632 -0.1865 -0.0779 -0.1032
92561W        W35614  23.059  24.979   2.665 -0.0544  0.0134 -0.0156
92562W        W35615  19.838  17.659   4.611  0.1561  0.0866  0.2378
92563W        W35616  12.080   7.631   7.890 -0.0454 -0.0418  0.4057
92564W        W35617  17.591  16.071   7.004  0.1653  0.5327  0.1246
92565W        W35618   2.850  13.627   9.947  0.0178  0.0004  0.1823
92566W        W35619   6.659  18.638   6.515 -0.1298  0.0920  0.1939
92567W        W35620   6.269  23.708   3.900 -0.2351 -0.0359 -0.3131
92568W        W35621  19.199  19.669   5.752  0.1090  0.0283 -0.3152
92569W        W35622  16.906  17.773   2.672  0.2446 -0.1310 -0.2995
92570W        W35623  20.762  11.606  24.272  0.0811 -0.0793  0.0492
92571W        W35624  11.481  20.374   8.390  0.1269 -0.0327  0.3116
92572W        W35625  13.259  14.753  26.842  0.3736 -0.0648  0.0115
92573W        W35626  14.685  14.740   6.522  0.0286 -0.1703  0.0816
92574W        W35627  19.316  17.523  25.625  0.0022 -0.1887 -0.0950
92575W        W35628  12.672  13.595   0.881  0.0886 -0.0766  0.1511
92576W        W35629  11.864  19.662   8.746 -0.0337 -0.1345 -0.2942
92577W        W35630  15.136  28.071   1.890  0.0854 -0.0606  0.1428
92578W        W35631  14.456  26.548   8.622  0.1058 -0.1566  0.1652
92579W        W35632  26.675   6.892   9.499  0.2673  0.1672 -0.0469
92580W        W35633   7.973  19.673   2.827  0.1037  0.1307 -0.2140
92581W        W35634  25.456   6.398  20.136  0.2887 -0.2134 -0.1887
92582W        W35635  11.236  17.205   1.011  0.0724 -0.0056 -0.0952
92583W        W35636   8.011  15.447   8.895  0.1093 -0.2176  0.1849
92584W        W35637   9.288   0.714   1.477 -0.1731 -0.0435 -0.0458
92585W        W35638  15.910  11.482   6.698  0.2869  0.0031 -0.4784
92586W        W35639   4.838   0.101   5.930  0.1908  0.1975  0.3921
92587W        W35640  20.827  24.541   8.723 -0.0389 -0.0644  0.0703
92588W        W35641  31.654  10.934   8.229 -0.2147 -0.2307  0.1545
92589W        W35642   0.137  23.257   2.977 -0.0524 -0.2468 -0.2248
92590W        W35643  15.157  20.499   2.128 -0.0811  0.1367 -0.0131
92591W        W35644  15.255  14.025   6.593  0.0060 -0.0018  0.0657
92592W        W35645  13.357  17.317  20.014 -0.4125  0.1650  0.0406
92593W        W35646  20.861   5.533   3.315  0.0981  0.1140 -0.0660
92594W        W35647   6.594  20.988   6.487  0.1241 -0.0999  0.1795
92595W        W35648  29.045   8.559   5.075 -0.1060 -0.2333  0.2017
92596W        W35649  12.165   9.579   7.590  0.1272 -0.0976  0.1851
92597W        W35650   7.193  17.509   2.002 -0.2166 -0.0981  0.2607
92598W        W35651   8.494  10.768   9.774  0.2771 -0.3102 -0.0951
92599W        W35652   6.125  13.173  21.911 -0.3801  0.2397 -0.0773
92600W        W35653   6.650  22.304   6.786 -0.0549 -0.1546 -0.1299
92601W        W35654  30.581  28.732   5.620 -0.0884 -0.0807 -0.1585
92602W        W35655   8.675  18.684   9.063 -0.0618  0.1151  0.1720
92603W        W35656   1.639  34.256   3.253 -0.2835 -0.2637 -0.0442
92604W        W35657  12.042  21.511   4.695  0.1785 -0.0696 -0.0585
92605W        W35658   4.258   8.371  22.864  0.2585 -0.1323 -0.2719
92606W        W35659  11.153  28.814   7.764  0.0198  0.4023 -0.1073
92607W        W35660  15.803  10.142   6.912  0.4160 -0.1874 -0.0308
92608W        W35661  10.821   3.907   2.625  0.3435 -0.0111  0.0546
92609W        W35662   4.875  18.712   6.523 -0.1897  0.0877 -0.0728
92610W        W35663  21.348  17.375   1.166  0.0012  0.2657  0.2746
92611W        W35664   5.556  31.146   7.627 -0.1787 -0.1602  0.1327
92612W        W35665  33.847  13.962   1.429  0.1211  0.1531 -0.2213
92613W        W35666   1.912  32.257  28.440  0.2834  0.0090 -0.1657
92614W        W35667  15.241   6.170  24.616  0.1060 -0.3552  0.2710
92615W        W35668  18.617  28.803   1.790 -0.1520 -0.1058 -0.0955
92616W        W35669  34.361   8.843   2.691 -0.0284 -0.0750  0.1045
92617W        W35670  19.940   0.877   4.851 -0.0395  0.0588  0.1169
92618W        W35671  23.854  23.652  10.551 -0.2055  0.0277  0.0009
92619W        W35672   9.061  29.796   3.403  0.2567  0.1519  0.1873
92620W        W35673   6.475  22.192   5.078 -0.1310  0.4017 -0.3293
92621W        W35674   5.799   7.658   5.110  0.1567 -0.0189 -0.3077
92622W        W35675   7.694  21.402   6.700 -0.2672  0.0788 -0.1558
92623W        W35676  12.289   1.863   5.543  0.0099 -0.0442 -0.1558
92624W        W35677   4.021  11.439   5.564 -0.0240 -0.0628  0.0143
92625W        W35678  20.690  24.507  23.793  0.1231  0.2455 -0.0953
92626W        W35679  12.674  15.967   8.627 -0.0180 -0.0103 -0.0106
92627W        W35680   0.057  15.013   5.954 -0.0620  0.0352 -0.1242
92628W        W35681  33.171  20.454   5.817 -0.2049 -0.3008 -0.1337
92629W        W35682   3.029  10.750   5.477 -0.1436  0.0712 -0.0781
92630W        W35683  19.300  14.076  20.816  0.3040  0.0700 -0.1920
92631W        W35684  26.034   9.606  15.502  0.0005  0.1289  0.0369
92632W        W35685  22.453  11.305   6.746 -0.3314  0.1537 -0.1764
92633W        W35686  19.485  24.190  27.839  0.0488 -0.1385  0.3595
92634W        W35687   8.996   6.644  27.912  0.2115  0.3365 -0.1214
92635W        W35688   1.012  25.179   6.600 -0.1101 -0.2713  0.0100
92636W        W35689   1.046  14.603   8.631 -0.1335  0.1718  0.2195
92637W        W35690   7.331  17.084  26.354  0.3132  0.0064  0.0237
92638W        W35691  21.058   5.533   5.155 -0.1395  0.0119 -0.1852
92639W        W35692   8.152  10.992  17.649 -0.1521 -0.1277 -0.2611
92640W        W35693   6.436   6.981   4.972 -0.0749  0.2380  0.0778
92641W        W35694   9.920  27.649   5.404 -0.0600  0.1220 -0.0185
92642W        W35695  20.831  33.597   5.548  0.0066  0.0032  0.1345
92643W        W35696  32.671   0.643   8.154 -0.0502 -0.0966  0.0361
92644W        W35697  11.877  15.205   3.598 -0.0488  0.1180 -0.0158
92645W        W35698  15.165  14.345  26.922 -0.0633 -0.1511  0.0098
92646W        W35699   5.546   5.210  23.167 -0.0334 -0.2595 -0.3517
92647W        W35700   4.703  28.104  26.013  0.1575  0.0638 -0.0460
92648W        W35701  32.230  11.125   5.113  0.2050 -0.1576  0.1400
92649W        W35702  33.032   3.968   8.994  0.3402  0.3147  0.2310
92650W        W35703   7.698  12.720  26.280  0.3470  0.1036  0.0622
92651W        W35704   8.765   8.260   9.492  0.0078 -0.2204  0.0100
92652W        W35705   7.112  14.465   9.193 -0.1989 -0.0737 -0.0402
92653W        W35706  22.214  21.873   6.313 -0.2123 -0.1552  0.2499
92654W        W35707  13.577   3.534   5.592 -0.1888 -0.0659 -0.0447
92655W        W35708  15.328  24.333   1.215 -0.3037 -0.1171 -0.1764
92656W        W35709  18.411   0.890   2.781 -0.0670 -0.3157 -0.1131
92657W        W35710  11.547   0.485   5.499 -0.1003  0.1303  0.2207
92658W        W35711  10.899   9.595   7.019 -0.1041  0.1566 -0.1223
92659W        W35712   4.681  20.422   5.787 -0.1637 -0.2016  0.0539
92660W        W35713  16.888  20.213   7.958  0.0630 -0.2473 -0.0006
92661W        W35714   2.563  12.037  28.273 -0.0998  0.1399  0.1197
92662W        W35715  22.261   3.226   0.716 -0.1643  0.3044  0.1392
92663W        W35716  11.326  30.694   9.614  0.0205  0.0882 -0.1996
92664W        W35717  11.875   7.496  26.995 -0.2052  0.2622 -0.0076
92665W        W35718  24.646  19.262   3.154 -0.0889 -0.2348 -0.2344
92666W        W35719  15.310  24.050   7.174 -0.0734 -0.3760 -0.1709
92667W        W35720   7.785  27.268   5.060  0.0809 -0.1179 -0.3559
92668W        W35721  18.443   9.224   7.295 -0.1118 -0.2412 -0.0967
92669W        W35722  17.358  21.446   8.076  0.0166 -0.0210 -0.1225
92670W        W35723  23.216  11.237  22.976 -0.0099 -0.2451  0.4145
92671W        W35724  19.946   6.531   8.618  0.1199  0.1423  0.0815
92672W        W35725   7.323  17.435   2.992 -0.1131 -0.0346  0.1351
92673W        W35726   5.441  11.718  10.204  0.1631  0.0009 -0.1005
92674W        W35727   3.791   1.338   2.014 -0.1473 -0.1460 -0.1700
92675W        W35728  14.234   5.735  10.757 -0.0822  0.3019  0.1024
92676W        W35729   1.722  18.245   9.761  0.0835 -0.1596 -0.2484
92677W        W35730  19.342  21.620   4.589  0.2860  0.5164  0.0265
92678W        W35731  33.145  18.509   4.982  0.5496 -0.1183  0.3171
92679W        W35732  19.381  25.485   8.474 -0.0950  0.0059  0.0264
92680W        W35733  28.069  21.707   7.919  0.0707 -0.3996  0.0274
92681W        W35734  31.552   3.441   8.084 -0.0257  0.0700  0.1785
92682W        W35735  26.143  21.439  23.321  0.2732  0.1736 -0.3575
92683W        W35736   2.911   3.951   3.540 -0.0283  0.2103 -0.0080
92684W        W35737  13.789  18.264   9.930 -0.0527  0.3851 -0.1788
92685W        W35738  21.133   9.164   5.849 -0.1153 -0.0542 -0.0661
92686W        W35739   4.626  17.556   0.402  0.1589  0.3614 -0.0585
92687W        W35740  21.149  12.871   2.629  0.2369  0.3570 -0.1348
92688W        W35741  16.579  21.081   6.201  0.0558 -0.1682  0.0544
92689W        W35742   2.722  16.628   8.423 -0.2036 -0.1728  0.2602
92690W        W35743  24.922  34.632  10.614  0.3238  0.1123  0.2638
92691W        W35744  15.549  22.469   2.765 -0.5588  0.0911 -0.0959
92692W        W35745  11.661  22.146   7.493 -0.0715 -0.0908  0.0888
92693W        W35746  17.109  18.636  27.829  0.2721  0.0511 -0.0911
92694W        W35747  21.847  29.209  10.348  0.0630 -0.0276 -0.1765
92695W        W35748   0.360  22.687   8.373  0.1587 -0.1224 -0.1805
92696W        W35749  19.398  26.118  26.348 -0.0475  0.0766  0.0756
92697W        W35750   7.813  20.546   7.929 -0.2451  0.1070  0.1202
92698W        W35751  13.573  14.364   0.557  0.3275 -0.1460 -0.1520
92699W        W35752  11.519  17.936   7.693  0.1613 -0.0353  0.1646
92700W        W35753   9.903  11.280   6.818  0.5154 -0.7345 -0.1660
92701W        W35754   9.079  24.684   3.747 -0.2106 -0.1039  0.3847
92702W        W35755  20.039  16.943  26.857  0.0763  0.0466  0.2208
92703W        W35756   8.024  13.366   1.674 -0.1831  0.3630 -0.0332
92704W        W35757   4.350  24.805   5.252 -0.1785  0.0149  0.2348
92705W        W35758   5.654  10.811   3.726  0.2888  0.3539 -0.1790
92706W        W35759  34.346  30.008   1.650  0.1875 -0.0730 -0.0575
92707W        W35760   4.240  33.112  15.469 -0.0791 -0.0709  0.0865
92708W        W35761   6.463  23.794   6.890 -0.2057  0.3844  0.3399
92709W        W35762  33.772   4.349  24.901  0.1703 -0.1773  0.0004
92710W        W35763  16.734  19.886   3.816 -0.0138  0.0392 -0.1354
92711W        W35764  23.675  17.047   8.183 -0.0664  0.3215 -0.2418
92712W        W35765  14.902  17.380   4.525 -0.0199  0.0795 -0.2622
92713W        W35766  12.089   5.165   5.142  0.1144  0.1175  0.0022
92714W        W35767  20.246  17.229  27.415  0.0681  0.0135 -0.0205
92715W        W35768  16.477   7.423   9.634  0.1089 -0.1795 -0.3466
92716W        W35769  16.532  13.734   3.360  0.1623  0.0275 -0.0571
92717W        W35770  10.281  15.183  26.525  0.1285 -0.2143 -0.0016
92718W        W35771  25.271  25.851  22.286  0.0637  0.2684 -0.0115
92719W        W35772   8.440   5.661   9.955  0.1323 -0.3397  0.0342
92720W        W35773   9.711   0.725  28.571 -0.4435  0.2630  0.1457
92721W        W35774  14.864  23.604   5.527  0.1045  0.4527 -0.2162
92722W        W35775  31.507  21.842   8.121 -0.3245  0.2622  0.3941
92723W        W35776   2.044   9.402  26.555  0.2830 -0.3893  0.0984
92724W        W35777  15.355   6.292  25.638  0.0275  0.1414 -0.2499
92725W        W35778  12.596  17.060   0.963  0.0201 -0.2539  0.2915
92726W        W35779  27.258  25.099   5.742  0.1017 -0.1668 -0.0959
92727W        W35780  16.101   7.563   5.438  0.0539 -0.0855 -0.1239
92728W        W35781   1.560  22.547   9.828  0.0231  0.3126  0.1553
92729W        W35782  23.628  18.508  19.452  0.0577  0.0123  0.0207
92730W        W35783   8.676  17.801   1.970 -0.2139 -0.2598 -0.0291
92731W        W35784  20.419  12.136   9.994  0.3051 -0.0079  0.1163
92732W        W35785  24.360   3.800   4.753  0.1846  0.1093 -0.1828
92733W        W35786  22.617  10.043   9.659  0.0786  0.0897  0.0154
92734W        W35787  25.310   2.773   3.699  0.2895  0.0518  0.0106
92735W        W35788  10.407   4.334  10.559  0.0604  0.1710 -0.2446
92736W        W35789   5.419  14.834  22.658  0.1604 -0.0603 -0.1347
92737W        W35790  29.805   5.750   2.474  0.0200 -0.0933 -0.2075
92738W        W35791   7.677  16.320   3.697 -0.1585 -0.2615 -0.2855
92739W        W35792  15.907  15.739  23.288  0.0782  0.0791 -0.2794
92740W        W35793   5.387  21.344   5.363  0.1193  0.2525 -0.0201
92741W        W35794  16.641  20.344  26.643 -0.1390  0.1226  0.0909
92742W        W35795   5.862   7.538   6.579 -0.0921  0.1614  0.1747
92743W        W35796  34.303  11.765  28.683 -0.2653  0.0642  0.0461
92744W        W35797  14.411   7.890   9.945  0.1173 -0.2641  0.0629
92745W        W35798  16.586  25.926  28.125  0.0370  0.0645 -0.0442
92746W        W35799   7.852  15.302  28.321 -0.0364 -0.0500  0.0489
92747W        W35800  13.651  23.029  27.767 -0.0592 -0.3174 -0.1531
92748W        W35801  10.689  30.066   5.545  0.1430 -0.4823  0.0647
92749W        W35802   0.177   9.008   6.924  0.2214 -0.2575 -0.1803
92750W        W35803  17.166  23.033   1.772 -0.1297  0.1518 -0.2363
92751W        W35804   9.108   6.966   8.663  0.1411  0.2086 -0.1206
92752W        W35805  22.605  15.996   0.332  0.1642 -0.3783 -0.3899
92753W        W35806  12.710  14.105  16.539  0.1717 -0.0140  0.0664
92754W        W35807   1.057  24.531   7.581  0.1103  0.0051 -0.0909
92755W        W35808   1.905  19.845   6.402 -0.0520  0.1316 -0.2716
92756W        W35809  18.590   1.317   0.874 -0.1947 -0.0185 -0.1008
92757W        W35810  12.602  13.661  27.702  0.1935 -0.1476 -0.2338
92758W        W35811  31.694   3.320  24.746 -0.0697  0.1882 -0.3998
92759W        W35812  11.229  31.505   3.347  0.5132 -0.3914  0.0551
92760W        W35813  34.289   0.070  25.267 -0.1415  0.2651  0.0994
92761W        W35814   1.981  17.020   7.438 -0.3026  0.1508  0.0542
92762W        W35815  31.157   8.970  10.867 -0.0321  0.2672  0.2518
92763W        W35816  26.993  24.004  24.828 -0.0141 -0.0158  0.1066
92764W        W35817  12.356  25.897   3.313 -0.2739 -0.1719  0.2494
92765W        W35818  12.518  28.114   4.056 -0.3123 -0.0597 -0.3880
92766W        W35819   5.696  19.129   3.186  0.1189  0.0496  0.2161
92767W        W35820  29.383   9.003  24.876 -0.4874 -0.0434 -0.0867
92768W        W35821  21.074  24.658   5.028  0.0465 -0.0168  0.5331
92769W        W35822  19.118  21.365   8.363  0.2216  0.0191  0.1860
92770W        W35823  29.435  13.861   7.582 -0.2975  0.0543  0.2020
92771W        W35824  23.034  16.632   6.561 -0.2281  0.0294  0.0078
92772W        W35825  24.198  11.034  27.268  0.3978  0.0621  0.2362
92773W        W35826  33.425   5.298   6.127 -0.0073 -0.3353  0.0285
92774W        W35827  27.851   8.946  28.824  0.1114 -0.0288  0.3192
92775W        W35828  15.117  28.192   7.941  0.2208 -0.0746  0.1222
92776W        W35829  22.465  20.610   3.799  0.1584 -0.2154 -0.0219
92777W        W35830   7.312  18.291   6.871 -0.0088 -0.2573  0.0011
92778W        W35831   7.534  17.147   9.674  0.1393  0.1481  0.1665
92779W        W35832   2.836   8.277  24.579  0.4502  0.2509  0.1843
92780W        W35833   7.395  16.807  29.085  0.2294 -0.3048  0.1031
92781W        W35834  32.501  23.405   4.740 -0.3851  0.1458 -0.1248
92782W        W35835  19.054  16.157   7.850 -0.1832  0.3029  0.1296
92783W        W35836  11.146  18.012   7.348 -0.3054  0.2952 -0.1762
92784W        W35837  16.816  14.621  23.652  0.2469  0.1416  0.0155
92785W        W35838  24.349  21.231  25.969 -0.3426  0.1443 -0.1426
92786W        W35839  16.420  10.871   9.249  0.1693 -0.1492 -0.0975
92787W        W35840  10.486  15.744   7.059  0.2365  0.1598  0.1474
92788W        W35841  19.916  27.203   9.372 -0.1375 -0.1339  0.0474
92789W        W35842  13.481  15.016  24.913  0.1163  0.0417 -0.0205
92790W        W35843  17.503   1.653   7.562  0.3556 -0.1103 -0.2513
92791W        W35844  14.242  13.372   9.684  0.2451 -0.0461  0.1821
92792W        W35845  22.686  17.750  28.902  0.2609  0.2258  0.2278
92793W        W35846   4.658  15.158   9.924 -0.1232  0.1373 -0.1150
92794W        W35847  10.691  14.760  17.275 -0.1955 -0.2163 -0.0075
92795W        W35848  17.530   6.002   8.448 -0.2060 -0.2062 -0.3455
92796W        W35849  19.649  26.915   3.740 -0.0826  0.0129  0.2084
92797W        W35850   7.315   7.096   6.310 -0.1496  0.2497  0.1791
92798W        W35851  30.803  18.016   5.601 -0.1355 -0.0951 -0.0428
92799W        W35852  21.585  30.751  25.523 -0.0872 -0.1554 -0.0761
92800W        W35853  10.602  19.779   2.885  0.3455  0.0338  0.0987
92801W        W35854   8.247  21.478   1.690 -0.3280 -0.3672  0.4011
92802W        W35855  19.688  26.145   8.147  0.0489  0.0162 -0.3632
92803W        W35856  22.174  15.529   0.674  0.2441  0.1220 -0.0519
92804W        W35857   1.951  21.080  18.452  0.1213  0.1957  0.2139
92805W        W35858  30.664  20.132  29.153  0.1725  0.1003 -0.1769
92806W        W35859  29.618   0.270   5.690 -0.3411  0.0856 -0.0154
92807W        W35860  26.751  18.069  23.856  0.0195 -0.0139 -0.1154
92808W        W35861   3.491  25.101  27.880 -0.0932  0.0260  0.3670
92809W        W35862  21.898  30.174  21.000 -0.0759  0.3220  0.3928
92810W        W35863  30.943  14.159  28.085  0.1329  0.4527 -0.0835
92811W        W35864   4.685   6.546   2.643  0.1118  0.1028  0.2539
92812W        W35865   4.638  11.073  28.090  0.1307  0.0978  0.2840
92813W        W35866   7.488  29.316  22.776  0.1043 -0.0018 -0.1203
92814W        W35867  19.566  25.323   6.384  0.1029  0.1955 -0.1172
92815W        W35868  20.753   9.802  22.968  0.0481 -0.2540  0.1388
92816W        W35869  11.822   1.788  28.960 -0.0436 -0.1182  0.2164
92817W        W35870  12.604   7.846   9.375 -0.1153 -0.1281 -0.0358
92818W        W35871  14.341  26.177  20.167  0.1635 -0.3012 -0.0829
92819W        W35872   5.110   7.453  20.888 -0.1640  0.2511 -0.1210
92820W        W35873  31.947   8.630  23.397 -0.1074 -0.0707 -0.1821
92821W        W35874  10.671  10.835   7.145 -0.0168 -0.2052 -0.0417
92822W        W35875  13.215  17.937  26.431 -0.1008  0.1752 -0.4100
92823W        W35876  30.554  28.273   6.481 -0.2636 -0.0608 -0.0671
92824W        W35877  16.390  20.343   3.385  0.0338  0.1666 -0.2256
92825W        W35878  31.918  27.382  21.438 -0.0693  0.1423 -0.3216
92826W        W35879  18.004  27.369  22.568 -0.5749  0.3002  0.1229
92827W        W35880   9.940   5.771   6.565 -0.1121  0.0379 -0.3881
92828W        W35881  30.465   5.247   6.537 -0.2286 -0.1222  0.1800
92829W        W35882   5.060  29.814  23.890  0.3475 -0.2980  0.4063
92830W        W35883  21.597  16.786  28.264  0.0973  0.0226  0.3189
92831W        W35884  20.271  27.495  15.709 -0.0351  0.0613 -0.1630
92832W        W35885  15.226   5.743   5.935  0.2125 -0.1403 -0.0127
92833W        W35886  29.256  26.706  28.219 -0.3503 -0.0980  0.1564
92834W        W35887  16.618   2.599  22.130 -0.3864 -0.2172 -0.0740
92835W        W35888  17.335  32.832   4.156  0.1774 -0.3479  0.0480
92836W        W35889  28.485  11.497   7.013  0.2334  0.0610  0.0509
92837W        W35890  19.130  22.739  23.496  0.0878  0.2481 -0.2423
92838W        W35891  13.942  14.410  14.575 -0.1897 -0.0254  0.0153
92839W        W35892  15.208  23.162  23.375 -0.0821 -0.1193 -0.4375
92840W        W35893  15.675   1.537   5.903 -0.2042 -0.3715  0.0196
92841W        W35894  13.435  18.571  24.368 -0.0435  0.0287  0.2284
92842W        W35895  16.195  10.603   1.562  0.1783 -0.0795  0.4175
92843W        W35896  12.951   4.098   7.102 -0.1051 -0.3437  0.1269
92844W        W35897   0.290  17.183  21.730 -0.1888  0.1316 -0.2514
92845W        W35898  14.808  10.181   3.228 -0.1786  0.1820  0.2681
92846W        W35899  24.824  10.786  18.367  0.0996 -0.0934  0.0447
92847W        W35900  25.929  10.065  23.537 -0.0960  0.3552  0.2349
92848W        W35901   3.588  13.298   6.017  0.2681  0.2485 -0.0873
92849W        W35902  32.716  19.527  21.212  0.0896  0.0196  0.0176
92850W        W35903   6.778   3.576   9.275  0.1951  0.1375  0.1897
92851W        W35904  10.743  23.259  10.446 -0.0493  0.1808  0.0202
92852W        W35905  25.782  14.449   3.351  0.0296  0.0675 -0.1201
92853W        W35906   8.575  32.757   7.614  0.1033 -0.1994 -0.4367
92854W        W35907   9.703  27.944  23.879  0.0940  0.1417  0.0066
92855W        W35908  17.390  13.961  25.405 -0.0940  0.0114  0.0286
92856W        W35909  17.786  18.781   8.065  0.0948 -0.0317 -0.0785
92857W        W35910  32.396  27.708   4.183 -0.0627  0.2752 -0.1749
92858W        W35911   6.862  18.833   7.845  0.2229 -0.1888 -0.1897
92859W        W35912  21.041  20.376   4.650  0.0988  0.0409 -0.1087
92860W        W35913  29.341  28.599   6.613  0.3822 -0.1538 -0.2940
92861W        W35914  15.545  16.758   4.863 -0.0424 -0.0771  0.3475
92862W        W35915   6.386  21.458   6.626 -0.1313 -0.0239  0.3219
92863W        W35916   2.997  20.626   2.845  0.1133 -0.0840 -0.0248
92864W        W35917   2.799  17.735   5.725 -0.0515 -0.2743 -0.0592
92865W        W35918  21.642  21.375   5.837 -0.1837 -0.1950 -0.0500
92866W        W35919  13.184  24.068  18.338 -0.1577 -0.6486 -0.0082
92867W        W35920  10.513   6.670  16.111 -0.2480 -0.0508  0.1851
92868W        W35921  14.926  10.717   4.978  0.1682 -0.0671  0.4651
92869W        W35922  15.120   3.119   2.445  0.1711 -0.2883  0.0500
92870W        W35923   6.465  19.711  22.370 -0.1397  0.1234 -0.1236
92871W        W35924  30.901  33.688   5.348  0.1263  0.2929  0.1182
92872W        W35925  16.347  12.481   5.724  0.1069 -0.2692 -0.1280
92873W        W35926  11.102  24.583  25.897 -0.1389 -0.1532  0.1094
92874W        W35927  25.389  21.619  29.099  0.2210  0.1746 -0.0472
92875W        W35928  31.690  27.749  17.479 -0.0549  0.1011  0.2156
92876W        W35929   7.394  19.168   3.717  0.0091 -0.0633  0.2452
92877W        W35930  27.465  12.621  16.072  0.0180  0.1823 -0.4170
92878W        W35931  34.093  25.249  28.037  0.0575 -0.3177 -0.1584
92879W        W35932  20.752  12.477  17.152  0.0643  0.0839 -0.3579
92880W        W35933  11.083   7.766  22.172  0.1419  0.0412 -0.5246
92881W        W35934  27.648  16.500  23.233 -0.0927  0.1599  0.3224
92882W        W35935  10.956  20.388   4.269 -0.0214 -0.1276  0.1937
92883W        W35936   6.676  11.220  25.888 -0.1653  0.2682  0.4157
92884W        W35937  13.043  15.992  24.842  0.0455 -0.2117  0.1953
92885W        W35938   4.471  14.416  26.136 -0.0487 -0.1169  0.1503
92886W        W35939   4.790  31.005   5.759  0.2214  0.3242 -0.3520
92887W        W35940   2.137  13.662   8.876  0.0678  0.0261 -0.0610
92888W        W35941   5.384  12.817   0.778  0.0144  0.1548 -0.2317
92889W        W35942  24.579  10.439   6.928 -0.0846 -0.2358  0.2507
92890W        W35943  22.542  13.296   3.504  0.0450 -0.5271  0.0568
92891W        W35944  28.382  18.895  27.161  0.1719  0.0620  0.2166
92892W        W35945  14.809   5.067   4.572 -0.2668 -0.1473 -0.2931
92893W        W35946  15.350  27.845  20.813 -0.2392 -0.0249  0.1133
92894W        W35947   7.410  24.481   2.163  0.1297  0.1221  0.1465
92895W        W35948   6.165  18.961   6.684  0.4907  0.2415 -0.0915
92896W        W35949   1.303  18.401   1.354 -0.1704  0.4263 -0.1274
92897W        W35950  11.941  14.168  28.289 -0.0300 -0.1101 -0.0092
92898W        W35951   2.070  15.675  25.638 -0.0163 -0.1815 -0.1622
92899W        W35952   3.926  12.924  24.203  0.0581 -0.0512  0.1639
92900W        W35953  12.986  23.935   8.550 -0.0036 -0.0553 -0.2261
92901W        W35954  21.787  16.142   3.332 -0.1609  0.0622 -0.1252
92902W        W35955   9.179  17.165  26.820  0.0403 -0.4528  0.1064
92903W        W35956  14.777  29.506   0.133 -0.2557 -0.0121  0.1253
92904W        W35957   9.884   7.854   3.600  0.0168 -0.1633 -0.0615
92905W        W35958  33.728  28.512  23.943  0.1263 -0.2817  0.1261
92906W        W35959  13.388   7.944   9.072 -0.2997  0.3989 -0.1072
92907W        W35960   2.645   0.770   0.041 -0.1533  0.2394 -0.2068
92908W        W35961   8.293  32.893   6.710  0.0174 -0.2666 -0.0420
92909W        W35962  12.205  34.239   9.907  0.0340 -0.1898  0.1120
92910W        W35963  19.609  22.481   1.221  0.0764  0.0444 -0.0145
92911W        W35964  17.512  26.412  21.003 -0.0331  0.0219  0.0904
92912W        W35965  10.962  33.993  26.837 -0.1092 -0.1196 -0.1496
92913W        W35966  33.733  20.969   7.071 -0.0889 -0.0950 -0.1274
92914W        W35967  21.196   0.259   5.009 -0.1552  0.0498  0.0246
92915W        W35968  25.381  16.327   6.658  0.1155  0.0139  0.1459
92916W        W35969  31.884  15.729  15.915 -0.2976 -0.1321  0.1474
92917W        W35970   6.877  20.907   7.906  0.2399  0.2312  0.0463
92918W        W35971  22.390  31.726  22.280 -0.2043  0.1112  0.0848
92919W        W35972  12.492  19.636   9.474 -0.0477 -0.1263  0.3350
92920W        W35973  11.291  12.298  21.579  0.0530  0.0186  0.2339
92921W        W35974  12.197  21.799  22.790  0.3113  0.3090 -0.2052
92922W        W35975   6.014  10.872  26.800 -0.0808  0.0442 -0.0804
92923W        W35976  30.337  28.768   3.260  0.0816  0.3056 -0.1176
92924W        W35977   9.127  10.543  10.377  0.1968 -0.1322 -0.0980
92925W        W35978  33.866   2.685   9.054  0.0761  0.0777 -0.1986
92926W        W35979   8.390  23.358  24.297 -0.0992  0.0396 -0.3417
92927W        W35980  27.367  10.874   6.517  0.2005 -0.1258 -0.0879
92928W        W35981   8.543  24.083   0.719 -0.2204  0.2857  0.4704
92929W        W35982   7.432  27.956   6.941 -0.0456 -0.1424 -0.1439
92930W        W35983  15.840  21.404  23.238  0.2093 -0.1311 -0.0955
92931W        W35984  21.403  18.264   6.156 -0.0740 -0.0496 -0.0909
92932W        W35985   1.092  14.607  22.248  0.0473  0.1982 -0.0761
92933W        W35986   4.563  15.810  20.059  0.2399  0.0541  0.3159
92934W        W35987   8.822  13.255  24.407  0.2882  0.1589 -0.1860
92935W        W35988  31.313  32.950   3.034  0.0701  0.0802 -0.1419
92936W        W35989  14.867  16.249   4.329  0.2841 -0.0851  0.3784
92937W        W35990  26.520  19.784   5.669  0.0737 -0.0281 -0.0137
92938W        W35991  13.579  25.599   7.570 -0.0799 -0.2046  0.0655
92939W        W35992   5.340  19.292   9.240  0.3489 -0.0361  0.1753
92940W        W35993   5.546  27.923   8.402  0.0068 -0.4970  0.0073
92941W        W35994  25.021   1.103  22.039  0.3375 -0.4014  0.2006
92942W        W35995   8.655   7.898   2.152  0.0301  0.1997  0.0991
92943W        W35996   8.909  25.798  13.572  0.0977 -0.2484 -0.1095
92944W        W35997   0.611  27.626  25.781 -0.5561  0.1102 -0.2875
92945W        W35998  18.056  13.003   3.943 -0.0393  0.0553  0.0286
92946W        W35999   1.691   2.720  28.198  0.0310  0.0725 -0.0694
92947W        W36000   4.340  20.751   6.556  0.1413 -0.2650 -0.1813
92948W        W36001  17.511  29.219  28.197 -0.1873  0.1977 -0.2437
92949W        W36002  12.370   2.282   6.208 -0.0703  0.2809 -0.2228
92950W        W36003   4.725  21.132   2.172  0.1614 -0.2778 -0.2483
92951W        W36004  16.192  18.400  24.801 -0.3230  0.2894 -0.2629
92952W        W36005  13.677  29.683  28.364 -0.1387 -0.2114 -0.1562
92953W        W36006  27.110  25.616   5.949 -0.0788 -0.0214 -0.3320
92954W        W36007  12.158  27.280  14.936  0.1192  0.1249  0.3813
92955W        W36008  30.940  21.801   8.162 -0.0129 -0.0991  0.0926
92956W        W36009  33.267   9.169   4.032 -0.1182 -0.1272  0.4440
92957W        W36010  13.925  11.814  26.722 -0.0773 -0.0190 -0.1536
92958W        W36011  14.411  24.906  18.657 -0.0578 -0.3505  0.2270
92959W        W36012  24.634  20.697   6.745 -0.0624 -0.2857 -0.1032
92960W        W36013   8.604  27.705  24.284 -0.2375 -0.2367 -0.0686
92961W        W36014  10.858  13.413  28.920 -0.0829  0.0414  0.2298
92962W        W36015   8.895  23.518   3.715 -0.3113 -0.0369  0.1753
92963W        W36016   8.220  10.234   2.405  0.2045  0.0376  0.0477
92964W        W36017  11.747  11.563  22.442  0.0270 -0.1817  0.1190
92965W        W36018   3.926  30.256   0.135 -0.0533 -0.0870 -0.1290
92966W        W36019   8.644   3.212  25.206 -0.1611  0.0684  0.0749
92967W        W36020  13.677   8.384   8.985  0.3438  0.0311  0.2095
92968W        W36021  24.648  28.212   3.282  0.1882  0.2862  0.0632
92969W        W36022  26.240  27.392  22.178 -0.3086 -0.3529  0.2154
92970W        W36023   7.150  22.250   6.304  0.1563  0.1391  0.3363
92971W        W36024  17.374  15.894  29.072  0.0302  0.1467  0.3798
92972W        W36025   9.365   5.507  19.869  0.2230  0.3660  0.1547
92973W        W36026   3.473  31.346  24.710  0.1381  0.1918 -0.0435
92974W        W36027  30.536  33.286  20.495  0.2706 -0.0582  0.0102
92975W        W36028   8.258  22.041  26.809 -0.4154  0.2352  0.1755
92976W        W36029   1.547  21.102  16.375 -0.2641  0.2474  0.0633
92977W        W36030  11.390   9.939  28.013  0.0873  0.1049 -0.1021
92978W        W36031  15.230  28.879   1.848  0.2125  0.0864  0.0799
92979W        W36032   4.300  17.521   9.491 -0.0290  0.0810  0.2643
92980W        W36033  16.451  29.504   3.540 -0.0843 -0.3248  0.0575
92981W        W36034  11.443  25.352   6.948  0.2133 -0.4779 -0.0629
92982W        W36035  34.173  27.031   3.320 -0.0665  0.0493  0.0401
92983W        W36036   6.450  13.239  21.054  0.2176 -0.0045 -0.0447
92984W        W36037  10.833  13.428   9.446  0.1265  0.0407 -0.2237
92985W        W36038  12.209  27.353   1.041  0.3248 -0.1095  0.0468
92986W        W36039  26.327  22.709  28.722  0.0097 -0.0404 -0.1591
92987W        W36040   9.673  23.965  24.201  0.0436 -0.3599  0.0345
92988W        W36041  12.265  21.997  17.279  0.0347 -0.0940  0.1104
92989W        W36042  17.546  20.459   6.989  0.1338 -0.2906  0.0837
92990W        W36043   3.461  17.836   5.018  0.2743  0.2256  0.1324
92991W        W36044   5.677  12.169  10.246 -0.1627  0.0280 -0.1513
92992W        W36045   6.744  21.800  21.436 -0.2184 -0.0599 -0.1440
92993W        W36046  10.098  26.636  28.949  0.0674 -0.2265 -0.0183
92994W        W36047  16.639  30.011  24.018 -0.3206 -0.0317 -0.0542
92995W        W36048  15.315   5.131   4.769  0.1011  0.0037  0.2208
92996W        W36049  15.009  25.374   6.366 -0.2186 -0.1096  0.1435
92997W        W36050   7.097   7.068  23.308 -0.3928  0.1903  0.1319
92998W        W36051  15.302  22.072  28.399  0.2305 -0.0230  0.1775
92999W        W36052  14.836  22.381   4.026  0.2398  0.1366  0.0419
93000W        W36053  25.221  13.178  18.846  0.0954 -0.2449 -0.2384
93001W        W36054  18.994  29.162   9.909  0.0095 -0.2669  0.1431
93002W        W36055  13.573  17.315  25.476 -0.0235 -0.1002 -0.1840
93003W        W36056   4.853  25.245   4.318 -0.0894  0.2956 -0.0448
93004W        W36057   5.106  18.194   2.614  0.0281 -0.3934 -0.0830
93005W        W36058  10.137  10.364   3.557 -0.2263 -0.3403  0.1211
93006W        W36059   3.513  26.433   2.918  0.0314  0.0515 -0.1389
93007W        W36060   8.862  15.750  16.163  0.1097  0.0016 -0.0049
93008W        W36061  17.264  18.268  28.436  0.2662 -0.3503  0.1410
93009W        W36062  14.339   1.019  26.551  0.2174 -0.1967 -0.1583
93010W        W36063  10.295  10.014  10.734 -0.2254  0.0563 -0.0249
93011W        W36064  11.515  21.987   8.963 -0.0145 -0.2209 -0.3053
93012W        W36065  18.930  32.085   4.357  0.0192  0.0404  0.2394
93013W        W36066   3.386  30.244  21.217 -0.2208 -0.2195 -0.2483
93014W        W36067  12.092  18.319  15.369  0.1734 -0.0557 -0.0215
93015W        W36068  16.975  16.278  27.418  0.0108 -0.1562 -0.1986
93016W        W36069  26.667  12.960   7.302 -0.2675 -0.2868  0.2328
93017W        W36070  16.520  16.971   0.624  0.1750  0.0819  0.1558
93018W        W36071   2.547  29.206  25.258 -0.1031 -0.0631 -0.0997
93019W        W36072  31.774  26.513  28.459  0.4873  0.2186  0.3719
93020W        W36073   7.561  27.775   2.823 -0.0126  0.2388  0.1694
93021W        W36074  16.849  27.828   3.458 -0.1683  0.0567 -0.2092
93022W        W36075  32.303  24.175   7.320 -0.1341  0.2281 -0.2473
93023W        W36076  15.018  12.630  27.105 -0.3020  0.0296 -0.1447
93024W        W36077  18.424  22.522  10.353  0.2777  0.0722 -0.0510
93025W        W36078   9.595  27.966   5.347  0.1275 -0.0001  0.0794
93026W        W36079   4.434  22.223  28.347  0.1047  0.1026  0.3560
93027W        W36080  20.247  29.200  17.741  0.1395  0.1026 -0.2460
93028W        W36081  20.305   9.831  16.626  0.1648 -0.3224 -0.0645
93029W        W36082   8.014  10.915  10.372  0.0924  0.1210  0.1834
93030W        W36083   7.967  15.288   2.145  0.1755  0.0205 -0.3009
93031W        W36084   9.113   8.338  21.616  0.0886  0.1376  0.1975
93032W        W36085  15.636  29.331   6.945  0.1065  0.1960  0.1241
93033W        W36086  22.701  14.151  24.608 -0.1611 -0.2958  0.0343
93034W        W36087  12.024  31.941   3.464 -0.0106  0.1194 -0.0170
93035W        W36088  13.307  25.062  16.664  0.0330  0.0290 -0.1769
93036W        W36089   6.844  34.422  22.485  0.1316 -0.0391  0.1470
93037W        W36090  15.588  27.560   8.136 -0.4393  0.0198 -0.6237
93038W        W36091  16.811   2.456   8.596  0.0144  0.1219 -0.4733
93039W        W36092  29.568  25.862   7.756  0.0407 -0.0338 -0.1538
93040W        W36093  10.960  18.469   6.506  0.2391  0.2486  0.3952
93041W        W36094   6.385  12.011   0.283 -0.1357  0.1352 -0.0471
93042W        W36095   3.939  24.065   6.981  0.1052 -0.0393 -0.0852
93043W        W36096   4.685  16.737   0.649  0.0444  0.0058 -0.0214
93044W        W36097  12.816   0.800   4.437 -0.1605  0.0411 -0.2991
93045W        W36098  24.286   3.737   2.696 -0.1122 -0.0537  0.0618
93046W        W36099  14.278   5.618   2.276 -0.1135 -0.2142  0.4360
93047W        W36100   8.051  15.023  18.204 -0.1869  0.2562  0.0475
93048W        W36101  20.373  15.550  28.490  0.1179  0.1189  0.0426
93049W        W36102  16.079  14.204   4.196 -0.6627  0.0452  0.2897
93050W        W36103  15.751  27.094  27.259 -0.1655  0.2194  0.1967
93051W        W36104  23.610  14.505   5.251 -0.3404  0.0549 -0.0242
93052W        W36105  18.790   0.124  16.519 -0.1210  0.2099  0.0325
93053W        W36106  14.179  25.711   8.958  0.2972 -0.0994  0.0339
93054W        W36107   0.853  20.853  20.089  0.0144 -0.1405 -0.0026
93055W        W36108   9.256  19.162   8.252 -0.0051 -0.0980  0.0059
93056W        W36109   5.573  34.378   5.403 -0.0099  0.2351 -0.1558
93057W        W36110  24.375   2.712   5.015  0.0062  0.0453 -0.0892
93058W        W36111  11.738  24.552  22.070 -0.1347  0.3328 -0.4798
93059W        W36112  13.664   2.122   3.593  0.3237  0.4145 -0.0607
93060W        W36113  34.211  13.256   0.076  0.0419  0.1359  0.0332
93061W        W36114   5.816  29.383   5.539  0.1416  0.1089 -0.0109
93062W        W36115  25.500  17.121   5.034  0.0817 -0.1292 -0.1305
93063W        W36116  24.903   8.246   7.196  0.0010  0.2845 -0.0899
93064W        W36117  20.743  25.352   8.088 -0.4196  0.1342  0.1615
93065W        W36118  22.204  20.148   5.056  0.1609  0.3876 -0.0430
93066W        W36119  10.452  14.277   2.234 -0.0621  0.1420 -0.0186
93067W        W36120   8.967  18.383   3.118 -0.0970  0.6134 -0.0331
93068W        W36121   5.645  15.934   5.571  0.1608 -0.1872  0.0451
93069W        W36122  11.016   4.572   5.647 -0.1051 -0.3349  0.0023
93070W        W36123   9.453  17.251   4.461  0.3124  0.3081 -0.0314
93071W        W36124  15.942  25.019  15.624  0.0516  0.0675  0.1924
93072W        W36125   1.931  18.524  25.902 -0.2252 -0.0719 -0.2605
93073W        W36126   9.812  13.242  10.407 -0.1243 -0.1775  0.2263
93074W        W36127   5.600  18.703  28.635  0.2246  0.2037 -0.0469
93075W        W36128  27.599  23.244  26.430 -0.0971  0.1536  0.0956
93076W        W36129  32.454   8.851  26.860 -0.0678 -0.0780  0.0133
93077W        W36130   4.358  14.257  18.703  0.0768 -0.0804 -0.1242
93078W        W36131  10.639  21.305   6.125  0.2404  0.0358  0.0010
93079W        W36132  15.322  33.983  21.213  0.1108 -0.0485  0.0817
93080W        W36133  22.660  18.569   6.221 -0.1468 -0.1370  0.2454
93081W        W36134  13.625  16.067   7.008  0.2349 -0.2419  0.0343
93082W        W36135   1.960  24.096  29.195  0.0036 -0.0483 -0.0251
93083W        W36136   6.463   8.079   9.712  0.2035  0.0368 -0.1834
93084W        W36137  14.423  16.578  28.886  0.0766 -0.0519 -0.0078
93085W        W36138  17.570  21.742   8.575 -0.0386 -0.2343  0.1219
93086W        W36139  19.953  29.611   3.730  0.0469 -0.0353  0.1374
93087W        W36140  19.282  27.954   9.162 -0.1888  0.0295  0.2193
93088W        W36141   0.204   9.281  29.181  0.3280 -0.0970 -0.0992
93089W        W36142   9.286  23.365  18.777 -0.0720  0.1439  0.0221
93090W        W36143  12.830  24.565   9.187  0.1234  0.0887 -0.1597
93091W        W36144  13.799  32.288   6.350 -0.3846 -0.2012  0.1618
93092W        W36145  20.010  15.253   9.045 -0.0197 -0.3708 -0.1024
93093W        W36146  13.651  26.256   3.626  0.1888  0.1415 -0.3633
93094W        W36147  22.962   7.822  20.167  0.0460 -0.2044 -0.1228
93095W        W36148  17.401  27.204   4.636 -0.4109  0.1890 -0.0999
93096W        W36149  18.879  32.646   2.696  0.1690  0.1475 -0.1356
93097W        W36150   6.568  18.020   0.558 -0.0783  0.0739 -0.0462
93098W        W36151   7.733  25.762  22.113 -0.2552  0.1335  0.0991
93099W        W36152  12.696  27.215   3.347  0.1212  0.1298 -0.1158
93100W        W36153  12.333  21.562  29.150  0.1486  0.1691  0.0177
93101W        W36154  10.475   9.304   6.905  0.0905 -0.2690 -0.3119
93102W        W36155  19.954   3.188   0.038 -0.3322  0.0580 -0.3039
93103W        W36156   4.576  14.592   8.062  0.1843  0.2951  0.0635
93104W        W36157   7.189  31.190  22.052 -0.2530  0.1546  0.0155
93105W        W36158  13.509  12.800  25.527 -0.1009  0.2453  0.0828
93106W        W36159   1.792   6.835   0.423  0.0747 -0.4476 -0.0644
93107W        W36160  11.617  20.161   8.851 -0.0988 -0.2097 -0.0265
93108W        W36161  10.840  25.439   4.896  0.1881  0.0560  0.1765
93109W        W36162   8.576  26.163   4.914  0.1299  0.0276  0.2574
93110W        W36163  17.650  17.048  27.379 -0.3626  0.1095  0.0927
93111W        W36164  23.559  25.311  26.135  0.0712  0.0779 -0.1279
93112W        W36165  31.058  12.501  16.956 -0.3584 -0.0143  0.3329
93113W        W36166  20.234   2.383   3.299 -0.1004 -0.2154 -0.1666
93114W        W36167   9.058  17.760   6.322 -0.0951 -0.3645 -0.2471
93115W        W36168  30.098  27.200   3.459  0.1226  0.0354  0.0195
93116W        W36169  31.273  16.422   4.154  0.1329 -0.0437 -0.4122
93117W        W36170   3.370  17.027   5.816  0.1654 -0.1206  0.1647
93118W        W36171   8.557  19.521   1.286 -0.0067 -0.0656 -0.0325
93119W        W36172   8.163  19.457  26.381  0.0708  0.0885 -0.1995
93120W        W36173  11.346  12.577   8.752  0.0762 -0.0234  0.1735
93121W        W36174   5.875  16.416   3.824 -0.0991 -0.0221  0.0503
93122W        W36175  17.334  18.283   4.643 -0.1129 -0.1498 -0.0572
93123W        W36176  19.727  14.213  22.565 -0.2007  0.0644 -0.1088
93124W        W36177  14.139  22.141   4.470 -0.3548  0.1392 -0.0277
93125W        W36178  14.366  23.248  25.189  0.2566 -0.3900 -0.0088
93126W        W36179   6.892  19.507  22.250  0.1868 -0.1145 -0.2912
93127W        W36180  16.716  23.273  21.410 -0.1843  0.0094 -0.1392
93128W        W36181   3.453   5.009  28.447 -0.0981  0.3002 -0.0102
93129W        W36182   8.784  11.004   1.341 -0.1006 -0.3931  0.1415
93130W        W36183  16.652  21.133  25.436  0.0251 -0.2452  0.1142
93131W        W36184   5.975  19.202  26.853 -0.1888  0.4247  0.0915
93132W        W36185   4.108  14.066   6.194 -0.3070  0.1282 -0.1405
93133W        W36186  30.756  10.563   4.679  0.0424 -0.0394  0.2764
93134W        W36187   1.507  18.734  26.011 -0.1907  0.0636 -0.3505
93135W        W36188   9.254  20.120  27.823  0.1788 -0.0099 -0.2222
93136W        W36189  17.493  28.283   1.186 -0.0966 -0.4198  0.0243
93137W        W36190  13.490  16.404  24.294 -0.0672 -0.0793  0.2317
93138W        W36191   6.960  18.507  28.409 -0.0939  0.3394 -0.1914
93139W        W36192   2.909   8.612   5.131 -0.0417 -0.0816 -0.0070
93140W        W36193   9.480  16.794   4.902  0.0656  0.1840 -0.1369
93141W        W36194  10.036  21.548  13.301 -0.1637  0.2186 -0.2274
93142W        W36195   8.658   1.481   7.590  0.3367  0.0959  0.1706
93143W        W36196   8.064   3.345   3.482  0.0271  0.0085 -0.0495
93144W        W36197   2.666   7.992  15.007  0.0642 -0.1891 -0.0365
93145W        W36198  10.321   2.609   3.784  0.2619 -0.2637 -0.0955
93146W        W36199  23.441  22.044  26.397 -0.0265  0.1094 -0.0703
93147W        W36200  13.134   7.798   1.341 -0.1998 -0.3145  0.2123
93148W        W36201  27.501  22.841   1.789  0.0347  0.0014  0.2157
93149W        W36202  15.758  14.201   2.263  0.0244 -0.0993  0.0542
93150W        W36203  34.570   2.263   5.707  0.2577 -0.1901 -0.0044
93151W        W36204   8.474  22.761  23.207 -0.1116 -0.0320  0.0033
93152W        W36205  28.218  25.355  24.380 -0.2362 -0.0536 -0.0959
93153W        W36206   6.252  24.342  23.664 -0.0554 -0.1836 -0.1764
93154W        W36207  17.509  24.541  22.347  0.0445  0.0934 -0.0249
93155W        W36208   0.957   8.716  16.686  0.0966 -0.1104  0.2382
93156W        W36209   5.647   0.986   8.081  0.1111 -0.0834 -0.0531
93157W        W36210  20.929  20.502  21.601 -0.3103  0.0963 -0.1126
93158W        W36211  23.169   3.756   2.431 -0.1678 -0.0224 -0.0382
93159W        W36212  27.742  13.068  25.213 -0.2485 -0.1967  0.0718
93160W        W36213  17.441  33.136   3.155 -0.1561  0.1161 -0.5133
93161W        W36214  16.983  14.449  27.833 -0.0059 -0.2506  0.1533
93162W        W36215  11.586  19.499   0.961  0.1183 -0.0810 -0.4508
93163W        W36216  18.025  19.736   0.309  0.0345  0.3355 -0.0552
93164W        W36217  32.655  19.191   0.670 -0.0707  0.2176 -0.2279
93165W        W36218   4.216  19.538   7.990  0.5042 -0.0965 -0.0209
93166W        W36219   6.485  17.438  24.025  0.4094  0.1640  0.1691
93167W        W36220  14.385  27.318   4.211  0.0263 -0.0923 -0.1669
93168W        W36221   9.100  34.432   9.203 -0.2401  0.0033  0.0795
93169W        W36222   4.387  28.983  28.123 -0.0671  0.2354  0.1216
93170W        W36223   2.211  16.018  29.052  0.0641  0.1681 -0.0075
93171W        W36224   7.414  29.085  21.432  0.1736 -0.1455  0.2491
93172W        W36225  18.563   1.469   5.451  0.2326 -0.1675  0.0201
93173W        W36226  11.425  24.992   7.255 -0.3741  0.1076  0.2670
93174W        W36227   8.474   5.329  21.458  0.0853 -0.1858 -0.0563
93175W        W36228  18.055  19.424   3.939  0.1244  0.3125  0.0921
93176W        W36229   2.104  24.586   4.426 -0.2565 -0.2284 -0.1562
93177W        W36230   5.010  27.525   6.426 -0.1540  0.1215  0.1849
93178W        W36231   5.890  15.642  15.707  0.4547 -0.1537 -0.0590
93179W        W36232  22.268  34.337  26.433 -0.2504  0.2937 -0.2707
93180W        W36233  25.022  13.420   2.477  0.1791 -0.1382 -0.0827
93181W        W36234  19.047  12.708  10.006 -0.1302 -0.0406 -0.1833
93182W        W36235   6.469  27.751   5.762 -0.0357 -0.1139 -0.0622
93183W        W36236  23.064  24.424  26.506  0.0637  0.1126  0.0168
93184W        W36237  10.111  21.557   4.531 -0.3936  0.0239 -0.1193
93185W        W36238   5.710  18.093   0.172  0.0625  0.2401  0.1891
93186W        W36239  25.036   0.837  26.158 -0.1345  0.1136 -0.2128
93187W        W36240   1.503   4.724   5.552 -0.2341 -0.2621  0.1595
93188W        W36241  32.401  25.135   6.260 -0.1259  0.0201  0.0719
93189W        W36242   4.081  21.100  23.834 -0.2275 -0.0290 -0.4591
93190W        W36243  12.687   4.002   7.744 -0.3951  0.1828  0.2138
93191W        W36244  28.911  11.371  25.820 -0.2008  0.1183  0.1778
93192W        W36245  17.808  18.274   0.724 -0.2098 -0.0091  0.1476
93193W        W36246  22.546  24.129  23.939 -0.2102  0.0795  0.0580
93194W        W36247  23.953   0.705   9.396 -0.3031  0.1738 -0.0228
93195W        W36248  16.944   3.309   3.593  0.1097  0.3595  0.0244
93196W        W36249   6.914  33.066  27.807  0.1375  0.1277 -0.0043
93197W        W36250  20.490  17.325  24.637  0.1967 -0.0757 -0.1609
93198W        W36251  13.476   7.854  27.953  0.2748 -0.0989 -0.1284
93199W        W36252  15.761  26.998  24.764 -0.1771  0.2337 -0.0319
93200W        W36253   7.071   8.252  26.462 -0.0734  0.4721  0.3466
93201W        W36254   7.553  21.394  14.114 -0.1031  0.0850 -0.1522
93202W        W36255  13.436  21.910   0.576 -0.0214  0.0087 -0.0359
93203W        W36256   1.162  22.382   7.408 -0.1792  0.2008  0.3847
93204W        W36257  14.427   4.299  28.230 -0.0180  0.0586 -0.2182
93205W        W36258  30.194  16.074  21.115 -0.1620 -0.2737  0.2426
93206W        W36259  14.251  17.934   1.536 -0.0486 -0.0696 -0.0620
93207W        W36260  10.550  15.160  24.204  0.1074 -0.1744 -0.3999
93208W        W36261   9.730  33.585  28.918  0.0417 -0.0934  0.1179
93209W        W36262   7.216  28.076   5.153 -0.4034 -0.1259 -0.0059
93210W        W36263  17.747  20.137  22.829 -0.0501  0.0036  0.0289
93211W        W36264  19.935  21.377   4.011  0.4885 -0.1022 -0.0142
93212W        W36265  12.192  17.874   4.939 -0.3890  0.1749 -0.1562
93213W        W36266   7.692  22.581   3.677  0.1990  0.2332 -0.3018
93214W        W36267  10.370  15.545   3.099 -0.0050  0.1589  0.0515
93215W        W36268   8.762  16.182   5.025 -0.0534 -0.2462  0.0258
93216W        W36269  33.311  24.245  25.034  0.0018 -0.0729  0.0920
93217W        W36270   7.291  23.117  25.585 -0.0611  0.1821  0.0415
93218W        W36271  20.312  22.725   7.131  0.0699 -0.0048  0.1746
93219W        W36272  10.874  32.039   4.562  0.0642  0.1125 -0.0536
93220W        W36273  17.605   7.757   8.322 -0.0344 -0.0500 -0.0654
93221W        W36274  31.003  26.568  26.051 -0.2904  0.3769 -0.0139
93222W        W36275   6.969  28.630   1.346 -0.0925  0.4356 -0.3457
93223W        W36276  11.881  27.514   3.995 -0.0753  0.0465  0.1520
93224W        W36277   6.925  10.754   6.460  0.1292 -0.0977 -0.0962
93225W        W36278  23.746  27.273   5.022 -0.0830 -0.0086 -0.3016
93226W        W36279  33.556  27.332   6.113  0.0604  0.3774  0.2158
93227W        W36280  20.634  18.926  24.849 -0.0758 -0.2169 -0.2293
93228W        W36281  34.254  11.204  26.300 -0.1702 -0.2376  0.0602
93229W        W36282   7.520   1.944  24.640  0.3669 -0.4799  0.1538
93230W        W36283  10.948  24.889   1.285 -0.0311  0.2077  0.1647
93231W        W36284   2.579  12.562  26.765 -0.0259  0.0848  0.1450
93232W        W36285  13.532  22.840  10.157 -0.3012 -0.0126 -0.0320
93233W        W36286   1.733  24.685   4.011 -0.0288 -0.0734 -0.0931
93234W        W36287  19.312  23.334   7.616  0.0033  0.0259  0.0464
93235W        W36288  13.785   9.460   0.289  0.0292  0.1757  0.0358
93236W        W36289   3.547  14.546   6.020 -0.0435 -0.1392  0.1983
93237W        W36290  14.648  20.263   2.128 -0.1642 -0.0381  0.0755
93238W        W36291  10.182  24.056   7.563  0.1944  0.2384  0.0522
93239W        W36292  23.090  15.016   5.622  0.1208 -0.0752  0.2872
93240W        W36293  26.500  29.681   2.495 -0.1730 -0.1831  0.1954
93241W        W36294  23.283   4.129   3.837  0.0335 -0.0083  0.3847
93242W        W36295  10.842  17.076   6.977 -0.0387  0.2005 -0.1175
93243W        W36296  33.141  20.213  28.906 -0.2619 -0.3940  0.0395
93244W        W36297  24.352  14.370   7.963  0.2310  0.1442 -0.0744
93245W        W36298  12.346  14.463   6.084  0.0165 -0.0225 -0.0775
93246W        W36299  17.562   9.381   3.638 -0.0487  0.1064  0.0274
93247W        W36300  30.828  31.277  18.927 -0.0474 -0.0935 -0.2710
93248W        W36301   2.612  16.906   2.394 -0.0976 -0.0414 -0.3198
93249W        W36302   8.355  29.020  16.381 -0.1128  0.2047  0.0999
93250W        W36303  17.290  23.672  26.549  0.0523 -0.1918 -0.0410
93251W        W36304   8.416  20.241   8.277 -0.2062  0.1449  0.0435
93252W        W36305   8.329  26.283   2.846  0.1353 -0.0492  0.2141
93253W        W36306   1.316  31.847   6.859  0.0181 -0.0424 -0.0140
93254W        W36307  15.687  27.383   2.184  0.1624  0.3052 -0.0481
93255W        W36308  23.097  18.333   2.340  0.0509  0.0125  0.3018
93256W        W36309  15.330  14.539   3.608 -0.1147  0.2546  0.0897
93257W        W36310   1.622  23.279   5.449 -0.0742  0.0018  0.2175
93258W        W36311  23.251  22.738   7.844 -0.1511  0.0998 -0.0588
93259W        W36312  15.686  13.371  24.394  0.0935  0.2377  0.0946
93260W        W36313  20.163  25.354   0.281  0.2496  0.0662 -0.2701
93261W        W36314   8.709  17.064   1.506 -0.1511 -0.0809 -0.1156
93262W        W36315  26.987   6.700  26.273  0.2175 -0.2394  0.1787
93263W        W36316  11.000  22.550   4.007  0.2127 -0.0185 -0.0882
93264W        W36317   6.089  33.821   1.499  0.0129 -0.1665  0.1565
93265W        W36318  13.790  31.874   2.338  0.0418 -0.0334 -0.3269
93266W        W36319  11.180  16.792   2.353  0.0169 -0.2686 -0.0205
93267W        W36320  26.740  23.489   8.999 -0.2352  0.4081  0.5489
93268W        W36321   0.873   9.914  25.224  0.1491 -0.0464  0.1413
93269W        W36322   2.913  19.072   6.436 -0.3722 -0.1406 -0.1308
93270W        W36323  21.575  15.997   1.902  0.1096 -0.0090 -0.1419
93271W        W36324  29.246  18.994  27.601  0.0266  0.0305  0.0591
93272W        W36325   8.989  30.901  28.217  0.1521 -0.0522 -0.0985
93273W        W36326   8.452   9.127   6.938 -0.2616  0.2220  0.1385
93274W        W36327  11.537  22.764   4.765  0.1130 -0.1950  0.1073
93275W        W36328  17.092  32.692   0.627 -0.2029 -0.1361  0.0690
93276W        W36329  23.440   3.471  23.752 -0.0693 -0.3792  0.1215
93277W        W36330  26.056  26.771  21.567 -0.0081  0.1586 -0.1272
93278W        W36331   9.219  19.642   5.758  0.2517 -0.2838 -0.1015
93279W        W36332   5.058   6.128   3.948 -0.2675  0.2776  0.2748
93280W        W36333   5.321   8.487   7.563  0.0767 -0.0644 -0.0758
93281W        W36334  29.154  19.541  10.284 -0.2049  0.1536 -0.0150
93282W        W36335  13.373  15.182   5.184 -0.2047 -0.2588 -0.2918
93283W        W36336  19.461  18.923   3.676 -0.0879 -0.0008 -0.1178
93284W        W36337  24.569  15.449  27.812 -0.1061 -0.2928 -0.1074
93285W        W36338  34.646  11.649   9.834 -0.1316  0.1981  0.2059
93286W        W36339  14.979   7.426   1.666  0.0620 -0.1422  0.1507
93287W        W36340   0.321  22.912  21.413  0.0967 -0.1468 -0.1586
93288W        W36341  29.668  13.608   5.336 -0.1613 -0.5453 -0.1684
93289W        W36342  20.449  18.554  28.437  0.3391  0.3256 -0.1426
93290W        W36343  12.832  20.459  19.265 -0.1085  0.0799  0.1092
93291W        W36344   0.321   0.115   7.955 -0.1008  0.0727  0.0458
93292W        W36345   2.817  27.656   1.845 -0.0197  0.0574 -0.0313
93293W        W36346   7.180  22.841   8.914  0.0113  0.0509  0.3159
93294W        W36347  17.186  18.401   7.111 -0.3201  0.1594 -0.2058
93295W        W36348  15.845  23.182   3.952 -0.0189 -0.0939  0.0141
93296W        W36349  24.606  14.551   3.823 -0.1877 -0.6462  0.2854
93297W        W36350   3.524   2.676  26.807  0.2739 -0.0898  0.1062
93298W        W36351   9.211   3.661   9.429  0.0250 -0.1305  0.1855
93299W        W36352  17.707  19.120   3.754 -0.2037  0.0788 -0.0766
93300W        W36353   4.564  15.814   7.522 -0.0889 -0.2925 -0.0405
93301W        W36354   6.193  16.381   9.808 -0.0456  0.1033  0.0834
93302W        W36355  29.412  21.587  20.100  0.1660 -0.0204  0.1541
93303W        W36356   9.737  14.910   7.296  0.1216 -0.0404  0.3754
93304W        W36357   6.932  20.047   0.375 -0.0128  0.0858  0.1301
93305W        W36358   5.375  21.440  14.139 -0.0325  0.1413 -0.1209
93306W        W36359  25.825  10.306   1.767  0.3254 -0.1616 -0.3264
93307W        W36360   4.723  25.886   8.092 -0.2563 -0.1665 -0.0788
93308W        W36361  20.545  33.976   2.888 -0.0376 -0.1692  0.2408
93309W        W36362  10.669  32.738   7.054 -0.1099  0.0332 -0.0207
93310W        W36363  17.325  18.157  24.177  0.3197 -0.0837 -0.0398
93311W        W36364  12.493  19.706   7.117  0.3467  0.0433 -0.0595
93312W        W36365  11.670  14.303  10.752 -0.1361 -0.0430  0.2529
93313W        W36366   7.753  21.101  19.165  0.0885  0.1858 -0.0393
93314W        W36367   8.173  28.594   4.948  0.2484 -0.0869 -0.1213
93315W        W36368  19.189   9.240   9.405  0.4905 -0.2270 -0.0593
93316W        W36369  25.786   9.358   9.942  0.1108  0.1902  0.1583
93317W        W36370   2.418  12.573  13.768  0.0174 -0.3093 -0.0729
93318W        W36371  25.555  12.173   7.957 -0.3541  0.1342  0.1035
93319W        W36372  33.517  32.323  17.206 -0.2359 -0.2363  0.0853
93320W        W36373   5.539   9.261  25.587  0.1701  0.1895  0.3653
93321W        W36374   8.881  26.252   4.486 -0.0084  0.1737  0.1765
93322W        W36375  14.624   4.039  28.640  0.0603  0.2540 -0.0233
93323W        W36376   9.674  21.224  25.241 -0.1433 -0.1506  0.1277
93324W        W36377   3.962   1.696   4.385 -0.1182  0.1689  0.1202
93325W        W36378  34.168  12.676   4.500  0.0247  0.0846 -0.1257
93326W        W36379   5.311  14.564  25.543 -0.2677 -0.3077 -0.1536
93327W        W36380   7.059  16.760   4.148  0.1869 -0.3442 -0.3071
93328W        W36381  12.964  23.363   7.870 -0.0419  0.1875 -0.1004
93329W        W36382   9.209  21.768   8.449 -0.0382  0.1159 -0.2224
93330W        W36383  26.918  31.116   1.814 -0.1383  0.1325 -0.3276
93331W        W36384  13.451  21.155   1.195 -0.0467  0.2449  0.1190
93332W        W36385  13.246  31.718   0.129  0.0739 -0.1999  0.0576
93333W        W36386  23.279  23.714   8.126 -0.4047 -0.1924  0.1377
93334W        W36387  20.625   4.638   9.078  0.0597 -0.3121  0.3783
93335W        W36388   1.710  20.731  25.632  0.1012  0.0154  0.2998
93336W        W36389  24.824  23.751   9.329  0.0863  0.1212  0.1660
93337W        W36390   1.399  18.466  15.518 -0.3854 -0.3313  0.4500
93338W        W36391  16.941  28.241   3.117  0.3291  0.2297  0.3896
93339W        W36392   6.966   7.125   6.752 -0.1062  0.1594 -0.1480
93340W        W36393  22.249  18.033   7.852 -0.0454 -0.0810  0.3013
93341W        W36394  17.886  24.398   7.601 -0.0693  0.0473 -0.0686
93342W        W36395  15.724   9.716  25.792 -0.1140 -0.1357  0.3576
93343W        W36396   7.837  16.602   5.549  0.1587 -0.0046  0.1917
93344W        W36397   4.457  24.932   0.293 -0.2511 -0.2037 -0.0543
93345W        W36398  17.799  19.091   6.721 -0.0794 -0.1728 -0.3865
93346W        W36399  18.164  23.012  19.282 -0.2451 -0.0980  0.0196
93347W        W36400  16.333  22.444   8.307  0.1726  0.1160  0.2502
93348W        W36401  22.627  26.892   8.316 -0.1209 -0.1013 -0.0744
93349W        W36402   5.152  29.654   3.408  0.0298  0.0349 -0.0348
93350W        W36403  15.189  20.916  26.362 -0.3072 -0.0682  0.0351
93351W        W36404   7.921  15.561   5.922 -0.0166 -0.1425 -0.1144
93352W        W36405  12.753  18.290   6.367  0.0039  0.2439  0.1146
93353W        W36406  10.050  13.941  22.748 -0.0401 -0.0091 -0.3178
93354W        W36407  14.886  14.982   3.073  0.4306  0.0410 -0.4067
93355W        W36408  14.383  10.845  28.112 -0.2526 -0.1314 -0.2157
93356W        W36409  14.624   4.380   2.099 -0.1801 -0.1052  0.2399
93357W        W36410  11.200   2.703   6.086  0.2762  0.4693  0.1169
93358W        W36411  21.562  33.525   3.407  0.2103  0.2717  0.3145
93359W        W36412  13.619  10.922   8.847 -0.1144  0.3227  0.2103
93360W        W36413  20.764  29.465   1.583  0.0114  0.2744 -0.0225
93361W        W36414  15.323  24.160   8.574 -0.0706  0.0445 -0.0315
93362W        W36415   2.192  10.716  27.089  0.0594  0.2499 -0.4132
93363W        W36416  16.208  18.076   5.391  0.1564 -0.3904  0.1090
93364W        W36417  20.517  12.009   4.622 -0.2677  0.0401  0.0072
93365W        W36418   7.655  26.947   5.450  0.2052 -0.1421  0.3297
93366W        W36419   5.052  19.417   4.874  0.3214 -0.0157 -0.4068
93367W        W36420  14.218  25.439   5.098 -0.0324 -0.2120  0.2556
93368W        W36421  32.423  17.303  27.475  0.2023 -0.0199  0.1672
93369W        W36422   9.270  15.009   4.599 -0.1142 -0.3093  0.0264
93370W        W36423  21.744   4.689  26.931 -0.0455 -0.2588 -0.1493
93371W        W36424   4.386  23.016   6.889  0.1075  0.0229 -0.2140
93372W        W36425   9.110  13.463   9.590  0.3212  0.3256  0.1046
93373W        W36426   5.872  24.607  22.399  0.1055 -0.4585  0.0235
93374W        W36427  21.610  18.001   5.825 -0.1971 -0.2521  0.0222
93375W        W36428  13.235  18.786   1.230  0.1981 -0.1255  0.0835
93376W        W36429   8.237  15.491   9.911 -0.1772 -0.1433  0.2021
93377W        W36430  16.086  23.512  28.309 -0.1304 -0.0547 -0.2760
93378W        W36431  19.612  16.744   8.529  0.0255 -0.0806 -0.2503
93379W        W36432  12.625   2.122   5.775 -0.0862  0.0629  0.2557
93380W        W36433  32.751  15.887   0.908 -0.0915  0.0776  0.0747
93381W        W36434   6.080  33.743  14.407  0.2112  0.0988 -0.3008
93382W        W36435  17.369  12.904   1.880 -0.1568  0.0629 -0.1021
93383W        W36436  18.989  12.324   8.900  0.1830  0.0700  0.1857
93384W        W36437  25.316  18.339   7.801 -0.1628 -0.1917  0.2044
93385W        W36438  10.819   4.800  20.751 -0.2517 -0.2349 -0.2189
93386W        W36439  17.105  12.434  26.693  0.1644  0.0777  0.0823
93387W        W36440  10.774  21.777  26.638 -0.4673  0.0087  0.0460
93388W        W36441  32.879  22.180  28.756  0.1701 -0.2583  0.1361
93389W        W36442  18.171  18.915   1.862 -0.1741  0.2484 -0.0821
93390W        W36443  12.512  14.966   6.066  0.0623  0.0438  0.0381
93391W        W36444  18.856  10.040  26.951 -0.1561 -0.1633  0.0196
93392W        W36445  19.615  27.661  19.619 -0.1423  0.0817  0.2592
93393W        W36446   6.635  24.610   7.338  0.0707  0.0569 -0.1034
93394W        W36447  12.568  18.305  21.030 -0.1361  0.2077 -0.2224
93395W        W36448  16.177  17.706   3.908 -0.3380  0.1076  0.3818
93396W        W36449   7.229  21.766  24.012 -0.1464 -0.2249  0.1143
93397W        W36450   9.990   7.012   4.635  0.0634 -0.2092  0.2765
93398W        W36451   6.092   5.592  28.318 -0.1185 -0.2108  0.1202
93399W        W36452   0.105  33.808   4.876  0.1906  0.0093 -0.1581
93400W        W36453  33.415   4.675   5.018 -0.0713  0.0369  0.0385
93401W        W36454   4.412  10.308   8.038 -0.1837  0.0142 -0.0214
93402W        W36455  11.652  26.103   9.778  0.0201  0.0183  0.0118
93403W        W36456   4.273  24.112   4.886  0.0640  0.1565 -0.0001
93404W        W36457  20.638  19.977   9.381  0.1685  0.2218 -0.1655
93405W        W36458   5.909  32.777   4.866 -0.0794  0.0979  0.0122
93406W        W36459  11.031  20.903   9.284  0.0893 -0.1309 -0.2161
93407W        W36460  10.679  17.401   4.469 -0.1749 -0.2954  0.0146
93408W        W36461  19.021  23.398  22.567 -0.0311  0.5023 -0.1953
93409W        W36462   1.204  20.028   6.350  0.2031  0.0756  0.1529
93410W        W36463   9.436  18.049  24.727 -0.0556  0.2785  0.0806
93411W        W36464  27.545  11.504  26.824  0.2307 -0.0287  0.0133
93412W        W36465  20.191  14.354   3.991  0.0524 -0.3470 -0.1276
93413W        W36466  20.878   6.478   2.022  0.0859 -0.0053 -0.0756
93414W        W36467  20.346  17.189   5.611  0.1072 -0.1580 -0.2480
93415W        W36468  11.186  28.483   6.499 -0.2200 -0.3673  0.1313
93416W        W36469  17.235  11.481   9.433  0.1507  0.0522 -0.2301
93417W        W36470  17.291   6.193   4.752  0.0968  0.2748  0.0110
93418W        W36471   2.535  21.944   4.184  0.1357 -0.0780  0.3832
93419W        W36472   8.270  10.363  19.411  0.1859  0.0649  0.0466
93420W        W36473  11.318  30.535   5.359 -0.1607 -0.2017 -0.2958
93421W        W36474  14.325  29.497  29.194  0.1163  0.0066  0.2184
93422W        W36475  21.866  25.183   7.233  0.0318  0.2054  0.0676
93423W        W36476   3.433   6.378   7.428  0.1519  0.1696  0.3220
93424W        W36477  32.930  27.815  19.301 -0.0266  0.2571 -0.4295
93425W        W36478  29.337  13.846   5.731  0.2088  0.2513 -0.0155
93426W        W36479  13.462  17.136  25.027  0.3150  0.1485 -0.1676
93427W        W36480  17.199  25.382  10.461 -0.0119 -0.1270  0.0949
93428W        W36481  15.656  10.058  16.694 -0.2603  0.1964  0.1242
93429W        W36482  14.200  32.341   4.914 -0.0172 -0.0345 -0.0082
93430W        W36483  24.746  20.975  10.129  0.4365 -0.0145 -0.2340
93431W        W36484  24.244  20.161   0.809  0.0974  0.2581  0.0448
93432W        W36485   0.716  20.558  24.164  0.0230  0.0277  0.0120
93433W        W36486  25.894  25.985  17.503 -0.0126 -0.2483  0.1374
93434W        W36487  20.556  32.215  21.084 -0.1825  0.0511  0.1668
93435W        W36488   5.257  17.632   8.281  0.0781 -0.1448 -0.1368
93436W        W36489   9.757   0.195   5.070 -0.0607 -0.1989 -0.0861
93437W        W36490   7.019  17.695   0.162 -0.1079 -0.1200  0.0706
93438W        W36491  32.005  30.646   9.154  0.1328 -0.0551  0.1026
93439W        W36492   6.909   8.556  21.114 -0.1993  0.2350 -0.0135
93440W        W36493   4.537  11.722   8.307  0.2007  0.3587 -0.2373
93441W        W36494   0.320  30.997   3.530  0.2527 -0.3080 -0.0176
93442W        W36495  32.053   9.263   3.828 -0.2755  0.1559 -0.1406
93443W        W36496   9.855  22.620  27.200 -0.1789 -0.1696 -0.2078
93444W        W36497   7.806  26.862   8.509  0.0149  0.0984  0.0177
93445W        W36498  23.536  25.875  25.196  0.2689 -0.2484  0.0108
93446W        W36499  26.684  25.441  21.561  0.3452 -0.1158 -0.2341
93447W        W36500  19.599  33.680  28.935  0.1100 -0.0779  0.0723
93448W        W36501   7.754   7.910   5.568  0.1337  0.2579 -0.0942
93449W        W36502   5.851  23.352   3.112 -0.3114 -0.0277 -0.1033
93450W        W36503  32.452  15.659   6.581 -0.2783  0.2129  0.0043
93451W        W36504   6.154   9.934  23.959 -0.0923 -0.2227  0.1796
93452W        W36505  10.919  19.953  29.086 -0.2075 -0.0943 -0.0695
93453W        W36506  12.004  23.238   5.678 -0.2274 -0.2414  0.0853
93454W        W36507   2.446  20.325   5.543  0.0862 -0.0935  0.0059
93455W        W36508  32.506  25.607   7.820  0.2247 -0.1934 -0.1773
93456W        W36509   0.611  10.226   8.869  0.2588  0.3951  0.0662
93457W        W36510  18.715  15.556  28.958  0.1143 -0.1134 -0.0634
93458W        W36511  15.440  10.139  22.683  0.0396  0.0541 -0.1251
93459W        W36512   6.957  31.701  13.939  0.0386 -0.0966  0.0186
93460W        W36513   9.959  25.254   9.374  0.3510  0.1402 -0.0500
93461W        W36514  18.976  21.384  26.695  0.0106 -0.0482  0.0130
93462W        W36515  31.695   2.869   7.476 -0.0902 -0.0618  0.0922
93463W        W36516  17.490  13.254   9.274 -0.0470 -0.1910 -0.1118
93464W        W36517  31.185   8.461  24.263 -0.1276  0.0174 -0.1247
93465W        W36518  19.528   6.632  25.994  0.0285 -0.3516  0.0746
93466W        W36519  17.018  20.332  28.000 -0.1507 -0.0636  0.0266
93467W        W36520   8.561  16.826   9.794 -0.4895  0.0647 -0.1451
93468W        W36521   9.193  18.440   0.286 -0.2433  0.4826  0.0937
93469W        W36522  11.378  25.165   8.696 -0.1356 -0.0311 -0.3863
93470W        W36523  21.011  14.362  25.301 -0.1066  0.1632  0.0897
93471W        W36524  13.279  15.736   8.157  0.1739  0.2184 -0.1231
93472W        W36525  11.527  20.139  22.864 -0.0637 -0.2372  0.2291
93473W        W36526  13.077  28.457  28.541  0.1553 -0.0805  0.0696
93474W        W36527  15.251  25.046  24.822  0.2620  0.0230  0.3964
93475W        W36528  11.139  25.090  16.165 -0.0224 -0.0845  0.1079
93476W        W36529  15.147  19.313   3.623 -0.3634  0.4422  0.4195
93477W        W36530  25.793  24.175  27.331  0.2354  0.1671 -0.0221
93478W        W36531   6.114  32.553   9.370  0.1067 -0.1863 -0.0118
93479W        W36532  11.336  27.371   5.882  0.1590  0.0394 -0.0403
93480W        W36533  17.242   3.134   4.768 -0.2174 -0.1759  0.0557
93481W        W36534   4.431  29.723   8.541 -0.0529  0.1184  0.0487
93482W        W36535   4.086  24.020  28.201 -0.0925  0.4154  0.1853
93483W        W36536  28.842  15.592   8.874 -0.3851  0.1487 -0.0349
93484W        W36537  15.312  33.542  16.005 -0.2008  0.3587 -0.3051
93485W        W36538  19.776  15.156  22.932  0.2594 -0.0412 -0.2417
93486W        W36539  34.463  33.751  26.220 -0.2043 -0.0582  0.2443
93487W        W36540   7.615  27.631   3.977  0.0868  0.1610 -0.3079
93488W        W36541  26.843  22.888   4.217 -0.0439  0.0610  0.1254
93489W        W36542  25.707   7.365  25.963  0.2796 -0.1216  0.0061
93490W        W36543  16.501  25.758   9.461  0.2205  0.2549 -0.2536
93491W        W36544  31.290  13.679  28.714 -0.1612  0.0197  0.1075
93492W        W36545   9.575  12.913  24.635  0.0374 -0.0356  0.1469
93493W        W36546  30.302  16.745   5.766  0.1109 -0.1309  0.2521
93494W        W36547  29.793  17.645  25.589 -0.1771 -0.1269 -0.1474
93495W        W36548   3.562  20.606   4.599 -0.1280 -0.0165  0.2939
93496W        W36549  33.192   5.460   6.904  0.1857  0.1754  0.3183
93497W        W36550  15.507  20.829   7.542  0.1995  0.0286 -0.0792
93498W        W36551  13.340  12.318   2.435  0.3955  0.0208 -0.3387
93499W        W36552  28.600  18.456  29.064  0.0445  0.1313  0.0341
93500W        W36553  17.147  15.253   3.448 -0.1695  0.0006  0.0746
93501W        W36554  12.067  33.542  17.805  0.0406  0.0812  0.1389
93502W        W36555   7.956  30.229   4.082 -0.1600  0.3425 -0.1825
93503W        W36556  16.045  26.613   6.283 -0.0859  0.0138 -0.3446
93504W        W36557   8.363  25.496  28.793 -0.4332  0.1871 -0.1541
93505W        W36558  13.119  12.951   8.061  0.1056 -0.0891  0.0179
93506W        W36559  20.652  20.814   1.087  0.3006 -0.1711  0.3874
93507W        W36560  10.839  24.847   9.782  0.0803 -0.2291  0.1268
93508W        W36561   7.582   1.435  28.378 -0.1595  0.1248 -0.0453
93509W        W36562  14.905   7.806   6.084 -0.3502 -0.0016 -0.0311
93510W        W36563  22.667  29.355  26.477  0.0747  0.0569  0.0554
93511W        W36564   0.742   4.745   2.886 -0.2666 -0.0806 -0.2621
93512W        W36565  25.331   6.931   9.490 -0.1102  0.2836  0.2391
93513W        W36566  15.808  30.598   2.134  0.1559  0.0835  0.0238
93514W        W36567  25.703  34.424   3.067  0.0768  0.2769  0.0733
93515W        W36568  14.170  21.690  14.954 -0.0813 -0.1762  0.1835
93516W        W36569  11.650  21.539   7.313 -0.0565 -0.1194 -0.1111
93517W        W36570  26.968  17.072  28.269  0.1389 -0.1012  0.2387
93518W        W36571  27.345  20.085  25.533 -0.0964  0.0928 -0.2551
93519W        W36572  34.142   1.706   0.730  0.3499 -0.2305  0.2286
93520W        W36573  22.577  28.259   4.605  0.0660 -0.3624 -0.0707
93521W        W36574  20.069  18.663  28.751 -0.2312  0.1038 -0.2313
93522W        W36575  26.345  19.279   6.638 -0.0408 -0.0417  0.1164
93523W        W36576  13.121  24.785  22.531 -0.4095 -0.1152  0.2732
93524W        W36577  10.037  32.026  25.089  0.0183 -0.3677 -0.2027
93525W        W36578  23.432  11.833   4.219  0.4284  0.1142 -0.0754
93526W        W36579  17.844  22.039  29.173 -0.1867 -0.0521  0.1473
93527W        W36580  16.549  14.517   7.448 -0.3578  0.3095 -0.0273
93528W        W36581  27.878  18.976  25.938 -0.1152  0.3669 -0.1120
93529W        W36582   2.172   7.953  25.770  0.0666 -0.5447  0.1796
93530W        W36583  20.287  26.727  10.104  0.2329  0.4572 -0.0282
93531W        W36584   1.637   5.352   1.469  0.3246 -0.0065 -0.1894
93532W        W36585  22.045  18.358  19.611 -0.2754 -0.0227 -0.0991
93533W        W36586  13.181  12.094   2.893 -0.0388  0.2727 -0.0309
93534W        W36587  28.983  23.516   3.768  0.2710 -0.0184  0.3761
93535W        W36588   6.594  20.216  22.826  0.0878  0.0373 -0.2076
93536W        W36589   8.807  25.350   0.425 -0.3302 -0.1827 -0.0193
93537W        W36590  28.460  21.937  16.605 -0.2941 -0.0814  0.2387
93538W        W36591  13.629  13.279  24.604  0.1154  0.0843  0.4821
93539W        W36592   5.387  27.445   8.816 -0.2257  0.1786 -0.0045
93540W        W36593  17.357  20.945   8.836  0.2221  0.2156 -0.1221
93541W        W36594  34.514   5.818  25.482 -0.1697 -0.3590  0.2144
93542W        W36595  21.606  32.852   2.652  0.0711  0.0232  0.2721
93543W        W36596  13.418  17.194  20.599 -0.2861 -0.0424  0.2085
93544W        W36597   9.669  29.066   1.070 -0.0444 -0.1175 -0.0140
93545W        W36598  10.209  24.291  27.464  0.1624  0.1140  0.0363
93546W        W36599   8.370  29.872   1.089  0.0593 -0.3247 -0.3311
93547W        W36600  11.928  26.378  28.877  0.3011  0.1696 -0.1150
93548W        W36601  33.469  18.919  21.064  0.1300 -0.3206 -0.0182
93549W        W36602  10.614  28.711   8.922 -0.0670  0.0970 -0.1106
93550W        W36603  10.290  25.286   0.403  0.0929  0.1026  0.1033
93551W        W36604   9.398  19.139  27.493 -0.1357  0.2686  0.0615
93552W        W36605  12.041  14.649   1.998 -0.1544  0.2500 -0.1328
93553W        W36606  12.885  34.185  25.096 -0.0403  0.0418  0.1451
93554W        W36607   9.385  34.470   5.166  0.0967  0.1832  0.0099
93555W        W36608   8.694  24.069  25.224  0.4908 -0.1714 -0.1283
93556W        W36609  25.695  16.870  28.196  0.0541 -0.1626  0.0235
93557W        W36610  11.560  14.441  27.667  0.3885 -0.1688  0.0939
93558W        W36611  10.914  19.010   7.339  0.2249  0.0519  0.4051
93559W        W36612  20.631  23.430   9.059  0.2817 -0.0681  0.2137
93560W        W36613  18.912  16.544  23.457 -0.3675 -0.1128  0.1362
93561W        W36614  22.966  23.187   0.513  0.2563  0.0386 -0.3819
93562W        W36615   7.632  22.324  18.467  0.0614  0.1053  0.0686
93563W        W36616  18.003  12.735   5.117 -0.0106  0.0547 -0.5090
93564W        W36617  14.192  19.601   5.448 -0.1371  0.0719  0.0059
93565W        W36618   4.073  25.371  22.106  0.2604  0.3599 -0.0725
93566W        W36619  14.082  14.214  26.936 -0.4220 -0.3387 -0.0986
93567W        W36620  14.661  24.176  25.005 -0.1870  0.0251 -0.2931
93568W        W36621   9.513  11.098   7.973  0.3138 -0.0887 -0.1028
93569W        W36622   3.447  27.087   5.835  0.1240  0.3361  0.0109
93570W        W36623  16.141  23.645  20.782  0.3388 -0.2100 -0.3246
93571W        W36624  11.412  16.203   3.673  0.2285 -0.1486  0.1445
93572W        W36625  12.979  21.137   8.360  0.2144 -0.0528 -0.1391
93573W        W36626  27.623  24.759   6.538  0.0723 -0.1787 -0.2765
93574W        W36627  15.538  18.749   9.480  0.0174 -0.3521  0.2472
93575W        W36628   0.985  12.647   9.639  0.1812  0.0646  0.1944
93576W        W36629  34.185  31.721   5.116 -0.2415 -0.0032 -0.0508
93577W        W36630  23.436  34.499  23.147 -0.0279  0.2210 -0.1755
93578W        W36631  17.991  13.208   8.239 -0.3737  0.1767 -0.2223
93579W        W36632   3.934  25.591   2.294 -0.1034  0.1051 -0.1196
93580W        W36633   4.725  24.639   6.620  0.0387 -0.1809  0.3864
93581W        W36634  22.415   9.795   9.280 -0.4970 -0.3253  0.1049
93582W        W36635  18.043  21.571   7.166 -0.0314  0.0283 -0.0244
93583W        W36636  15.864  20.512   6.641  0.0885 -0.0311  0.1425
93584W        W36637   6.327  27.097   6.740 -0.1173  0.1960  0.0417
93585W        W36638  17.701  31.167   2.722  0.1300 -0.2303 -0.1323
93586W        W36639  14.676   8.623  28.917 -0.0786  0.0968  0.0350
93587W        W36640  12.320   5.891  27.441 -0.1035  0.2385 -0.2453
93588W        W36641   9.184   8.778   2.480 -0.0704  0.0950 -0.1234
93589W        W36642  15.126  10.065  23.468  0.1406  0.2435  0.0387
93590W        W36643  14.074  15.323   0.223  0.0990  0.0797 -0.3748
93591W        W36644  27.973  26.536   3.900 -0.1132 -0.0771 -0.2560
93592W        W36645  22.483   9.884  19.092 -0.2884 -0.0949  0.0046
93593W        W36646  18.451   1.697   2.324 -0.1826  0.0739  0.3893
93594W        W36647  12.401  27.181   9.692 -0.1785  0.3579 -0.0371
93595W        W36648   3.151  31.019   1.125  0.1166 -0.3767 -0.0237
93596W        W36649  23.302  15.880   6.768 -0.4359  0.1470 -0.0865
93597W        W36650  34.572  23.682   2.982  0.1188  0.0492  0.0432
93598W        W36651  19.544   6.805   3.512  0.1260  0.0085 -0.2047
93599W        W36652  16.457   5.357   9.144 -0.0349 -0.0944 -0.0080
93600W        W36653   5.359  11.623  17.867 -0.1635  0.1015  0.1709
93601W        W36654  31.642  17.770  20.494 -0.2377  0.1433  0.0835
93602W        W36655   9.377  14.995  27.761  0.4227  0.1300 -0.1055
93603W        W36656  22.513  13.545  19.776 -0.1900  0.1484 -0.2589
93604W        W36657  20.543  27.923   5.782 -0.1359 -0.0335 -0.0437
93605W        W36658   3.077   8.975   1.127  0.0198  0.1154 -0.1171
93606W        W36659  16.550  23.466   7.211 -0.2047  0.1026  0.3360
93607W        W36660  12.490  18.482   2.994 -0.0917 -0.1868 -0.0536
93608W        W36661   6.816   6.064   0.587  0.3663 -0.1797 -0.1040
93609W        W36662   3.729  27.078   0.009 -0.0246 -0.1225 -0.1034
93610W        W36663  24.772  26.952   2.354 -0.3164 -0.0656  0.3299
93611W        W36664   1.952  23.389   5.073  0.0900 -0.1764  0.2807
93612W        W36665  15.432  23.893   9.502 -0.2506 -0.3234  0.1407
93613W        W36666  25.806   0.827   7.221 -0.0293 -0.0533  0.1401
93614W        W36667  11.853   9.520   6.674 -0.1850  0.1735  0.1444
93615W        W36668   5.224  13.125  21.175 -0.3084 -0.0302 -0.3762
93616W        W36669  30.088  34.222   6.295 -0.3722 -0.1128 -0.5351
93617W        W36670  25.924  14.253   0.497  0.3058 -0.0786  0.2089
93618W        W36671  16.274  17.416   6.382  0.1119  0.1207  0.0595
93619W        W36672  11.624  18.672  27.351 -0.1205  0.1351  0.2520
93620W        W36673   5.216  22.273   8.003  0.1526 -0.0855 -0.1665
93621W        W36674  22.268  27.345   7.769  0.0621 -0.1788 -0.1390
93622W        W36675   7.643  34.477   3.864  0.0191 -0.0010  0.3911
93623W        W36676  26.683  33.503   4.493  0.0804 -0.3520 -0.2373
93624W        W36677  23.219   0.325   9.605  0.0259 -0.0602 -0.0444
93625W        W36678   8.165  20.558   8.762 -0.3439  0.0960 -0.0947
93626W        W36679  16.121   9.711  29.110  0.2741  0.1446 -0.1351
93627W        W36680   8.131   8.524  27.039 -0.0648 -0.1779  0.3190
93628W        W36681  13.148  27.884   5.655  0.3541 -0.0108 -0.1679
93629W        W36682  33.434  22.040   3.259 -0.2331  0.0197  0.1088
93630W        W36683  22.087  24.239   5.180 -0.3783 -0.0545  0.1826
93631W        W36684   9.264  16.345   4.632 -0.0654 -0.4529 -0.2843
93632W        W36685   3.690  14.969   1.684  0.2558 -0.1114  0.1579
93633W        W36686  34.009  23.629   9.485 -0.0160 -0.0077  0.0809
93634W        W36687  25.286  24.804   7.576  0.0299  0.1265  0.3499
93635W        W36688  21.405  21.501  28.367  0.1530  0.2504 -0.1758
93636W        W36689  29.411  26.560   6.857  0.2011 -0.0090 -0.1861
93637W        W36690  10.663  25.714   9.718  0.3719  0.0935 -0.4129
93638W        W36691  22.045  12.585   3.487  0.0982  0.1243 -0.0173
93639W        W36692  12.726  16.859  10.417 -0.2557 -0.2294  0.2869
93640W        W36693  13.960  24.742   7.947  0.1766  0.1006 -0.1299
93641W        W36694  33.543   0.027   2.089  0.2039  0.1020 -0.0300
93642W        W36695  17.044   9.908   1.448  0.1424 -0.1698  0.4042
93643W        W36696   3.246  15.604   7.341  0.2252  0.0185 -0.0676
93644W        W36697   4.827  30.727  25.634  0.1465 -0.3528 -0.0637
93645W        W36698  14.751  26.332   9.100 -0.1815  0.2041 -0.0739
93646W        W36699  34.275   9.791   4.892  0.2517 -0.0942  0.0979
93647W        W36700  21.320   7.462   8.969 -0.1735  0.1665  0.0312
93648W        W36701  16.117  22.975   7.673  0.0605  0.2909 -0.2012
93649W        W36702   7.824  11.415  23.813  0.1144 -0.1547 -0.1973
93650W        W36703  18.365  33.469   7.344 -0.1584  0.0819  0.0598
93651W        W36704   6.341  17.167   4.798 -0.1018 -0.0512 -0.0814
93652W        W36705  28.691  20.773  25.266 -0.3921 -0.1804  0.3941
93653W        W36706   1.210   9.059   1.560 -0.2136 -0.0781  0.0454
93654W        W36707  26.613  25.847   3.099  0.1700 -0.2894 -0.0826
93655W        W36708  16.237  33.100   9.539  0.1952 -0.1468  0.0304
93656W        W36709  27.594  15.961  24.312  0.0042 -0.4160  0.0319
93657W        W36710  34.282  14.587   1.037 -0.3119 -0.0517  0.0667
93658W        W36711  25.253  28.436   8.350 -0.0846  0.0025  0.4197
93659W        W36712  16.482  26.793   1.683 -0.0574  0.3188 -0.0572
93660W        W36713   6.709  18.350   7.692 -0.1211  0.2822  0.0823
93661W        W36714   9.770  30.627  28.152 -0.1562 -0.1408  0.1634
93662W        W36715  24.782  26.058  28.517 -0.0106  0.0371 -0.1582
93663W        W36716  24.131  20.998  28.882 -0.0311  0.0211  0.3242
93664W        W36717  29.871  24.410   8.444 -0.1932  0.0045  0.1677
93665W        W36718  29.359  26.198   9.548 -0.2893  0.0251 -0.2678
93666W        W36719  21.571  19.414   7.090  0.0136 -0.1727  0.3329
93667W        W36720  25.986  18.534   4.913  0.2868  0.0244 -0.2888
93668W        W36721  15.810  11.391  26.291 -0.3896  0.0596  0.0702
93669W        W36722  15.896  24.816   8.590 -0.0397  0.0575  0.0395
93670W        W36723   8.217  22.138   4.507 -0.1960  0.0875 -0.2534
93671W        W36724  13.411  24.071  28.649  0.1198  0.0804 -0.2596
93672W        W36725  13.394  12.178   0.570 -0.2074  0.0681 -0.2665
93673W        W36726   2.971  15.467   0.443 -0.0703  0.0470 -0.2214
93674W        W36727  19.077  19.716  22.597  0.0067  0.1501  0.0867
93675W        W36728   8.036  24.806  26.319  0.0881  0.2235 -0.2772
93676W        W36729   3.577  15.698   4.297 -0.1423 -0.2082  0.1620
93677W        W36730   3.961   6.275   3.229 -0.3708  0.1592  0.2910
93678W        W36731  21.869   8.905   3.142  0.0340 -0.0172 -0.0228
93679W        W36732   9.455   4.094   1.819 -0.1129  0.1214  0.1983
93680W        W36733  12.485  18.760   3.777  0.0697  0.1827 -0.1998
93681W        W36734  11.603  23.825   8.339 -0.2256 -0.1969  0.1553
93682W        W36735   8.479  30.802   1.316 -0.0711 -0.0439 -0.1546
93683W        W36736  33.333   1.001   4.068  0.2236 -0.1433 -0.0226
93684W        W36737  22.038  11.889   3.948 -0.1893  0.0463 -0.3259
93685W        W36738  27.354   2.343  28.922  0.0576  0.3353  0.0308
93686W        W36739  12.679  21.965   2.352 -0.0573 -0.3703  0.0901
93687W        W36740  21.437  18.716  10.128  0.2113 -0.0487  0.1094
93688W        W36741  24.956  24.973   6.088  0.2175 -0.0009  0.0512
93689W        W36742   9.142   5.964   4.218 -0.0691 -0.2359 -0.0534
93690W        W36743  34.371   4.996   9.011 -0.0427 -0.2465 -0.3065
93691W        W36744  13.701  13.726   1.347  0.2636 -0.0113 -0.3707
93692W        W36745  10.154  19.315   5.906  0.0137  0.1687 -0.2817
93693W        W36746  14.859   8.795   7.656 -0.0502  0.2955 -0.1603
93694W        W36747   2.250  21.933   5.609 -0.1869 -0.0847 -0.0787
93695W        W36748   2.338  10.288  24.619  0.0131  0.3930  0.0164
93696W        W36749  22.637   2.620   6.072 -0.0410  0.0065  0.1143
93697W        W36750   5.640  18.671   2.972  0.1646 -0.1257  0.0270
93698W        W36751  19.362  21.343  29.080 -0.1900  0.4760 -0.0545
93699W        W36752  30.086  20.251   1.872 -0.1869 -0.0300  0.1428
93700W        W36753  16.480  17.943   9.244  0.1629 -0.3342 -0.1422
93701W        W36754  23.805  14.299   5.700 -0.2444 -0.0491 -0.0983
93702W        W36755  12.178  19.841  26.387  0.3172 -0.0039  0.0172
93703W        W36756  15.150   8.394  17.804 -0.0711  0.3432  0.0049
93704W        W36757  28.284  28.654  22.762  0.1946  0.0671 -0.2321
93705W        W36758  24.745  14.980   8.500  0.2411 -0.1695  0.3342
93706W        W36759  14.678  19.951  10.059 -0.0098 -0.1625  0.0133
93707W        W36760   7.989  23.868   6.372 -0.0262 -0.1086 -0.4759
93708W        W36761   1.612  26.540   8.037  0.0535 -0.4061 -0.1075
93709W        W36762  27.419   7.214   9.843  0.2599 -0.0836 -0.0938
93710W        W36763  31.922  16.226  23.704  0.1384 -0.0965  0.2938
93711W        W36764  19.292  12.208  26.645  0.4755  0.0865 -0.0798
93712W        W36765  14.312   8.908   2.064 -0.1846 -0.0247  0.1289
93713W        W36766   9.582   8.182   9.481 -0.0621 -0.0625 -0.0646
93714W        W36767  31.853  13.820  17.960  0.0988 -0.3095  0.0667
93715W        W36768   5.484  18.594   0.230  0.0264  0.2609  0.0987
93716W        W36769  10.357  18.035   9.375 -0.0515  0.0490  0.2087
93717W        W36770  11.869   3.327   5.623  0.0190  0.0715  0.2159
93718W        W36771  21.532  18.097   7.208  0.1030 -0.4366 -0.2275
93719W        W36772  12.569  15.909   9.641  0.0303  0.1476  0.0919
93720W        W36773  30.281  25.175   3.686 -0.0972 -0.1860  0.1210
93721W        W36774  30.381  25.041   0.165 -0.2758  0.0139 -0.3146
93722W        W36775   2.312  19.575  29.018 -0.2026  0.0457  0.1411
93723W        W36776  11.205  22.029  28.641  0.2232 -0.3246 -0.0190
93724W        W36777  24.289  33.856  20.607 -0.4029  0.1560  0.1485
93725W        W36778  11.358  20.522   7.881  0.3931 -0.1403 -0.1580
93726W        W36779  14.848  21.096  28.894  0.0227 -0.2494 -0.0932
93727W        W36780  18.845  24.576  23.201  0.0557  0.2735 -0.0843
93728W        W36781   4.823   7.321  10.260  0.1133 -0.0412 -0.0510
93729W        W36782   3.133  25.546  29.149  0.2386 -0.0795 -0.0267
93730W        W36783  12.102  21.324   8.023  0.0632  0.2395 -0.2137
93731W        W36784  18.477  10.205   6.080  0.0114 -0.0744 -0.3025
93732W        W36785  16.396  14.354  23.478  0.1089 -0.0286 -0.0292
93733W        W36786  14.641  19.064  23.004  0.2756 -0.0921  0.0488
93734W        W36787  17.117  34.157   9.284  0.0182  0.1196  0.0281
93735W        W36788  30.415   6.914   4.728  0.2547 -0.0438 -0.1173
93736W        W36789   6.772  25.846  25.840  0.0508 -0.1187  0.0871
93737W        W36790  15.358   8.990   7.058  0.2687  0.1977  0.2806
93738W        W36791  31.028   0.018  18.809 -0.1573 -0.0108  0.1105
93739W        W36792  28.083  25.503   6.379  0.1418  0.1896  0.0779
93740W        W36793   7.091  21.802   9.345 -0.1362 -0.1364  0.0465
93741W        W36794   9.194   7.933   5.199  0.0825 -0.2390 -0.0846
93742W        W36795  19.335   8.739  23.575 -0.0151 -0.1318  0.0523
93743W        W36796   5.264  14.289   7.761 -0.1495  0.1547 -0.0496
93744W        W36797   1.460  28.008  20.630  0.0378 -0.1740  0.1619
93745W        W36798  24.665  29.537  10.441 -0.0150  0.2371 -0.0766
93746W        W36799  14.206  28.874   4.798  0.1668 -0.2828  0.0461
93747W        W36800   6.477  18.181  16.866  0.0130  0.0036 -0.1522
93748W        W36801   2.876  27.172   9.024  0.0224 -0.0832  0.0863
93749W        W36802  32.656  12.641  26.540  0.0605  0.2361 -0.2186
93750W        W36803  23.722  21.213  16.114 -0.2978  0.1330 -0.0212
93751W        W36804  14.594  12.251   7.391  0.0523 -0.0523  0.0058
93752W        W36805   7.435  19.569  27.997 -0.3117 -0.3323  0.0954
93753W        W36806  19.900  19.516   7.819  0.1799  0.0274  0.0435
93754W        W36807  20.244  17.379   7.822 -0.0211 -0.2818  0.3440
93755W        W36808   0.329  34.315   3.843  0.0654  0.0299  0.2276
93756W        W36809  15.471  15.007   5.430  0.3426  0.0165 -0.0361
93757W        W36810   1.677  29.814  25.747 -0.1608  0.5566  0.0378
93758W        W36811  14.880  28.817  23.274  0.2208 -0.1618 -0.2793
93759W        W36812  30.392  19.281   9.624 -0.3983 -0.0774 -0.1183
93760W        W36813   6.522   9.263  23.961 -0.3053 -0.1047  0.0343
93761W        W36814   8.298  11.853   6.519 -0.3155  0.2445 -0.2017
93762W        W36815  30.655  16.785  28.466  0.3924 -0.0792  0.2394
93763W        W36816  34.647   4.539   7.113  0.2679  0.0416 -0.2826
93764W        W36817  17.969  25.688   4.971 -0.1248  0.1368  0.3114
93765W        W36818  24.807  34.369  27.182  0.1389 -0.1030  0.2169
93766W        W36819   3.225  32.598   4.367  0.0314  0.1697  0.2975
93767W        W36820  27.944  12.880  19.081 -0.0393 -0.0472 -0.0953
93768W        W36821   9.182  10.129   9.605 -0.2113  0.0301  0.1013
93769W        W36822  20.764   8.761  27.963 -0.2001  0.2567  0.0853
93770W        W36823  13.706  12.904   4.554 -0.1433 -0.1440 -0.2248
93771W        W36824  34.340  10.659   6.769 -0.3273 -0.1043 -0.2382
93772W        W36825  13.148  25.586   3.319 -0.1459 -0.3732  0.1237
93773W        W36826  24.854   0.540  26.594  0.4095  0.0998  0.0539
93774W        W36827  19.898   8.351  24.515  0.1804  0.3197 -0.0056
93775W        W36828   0.717   1.192  27.364 -0.0402 -0.0767  0.0669
93776W        W36829  18.825  17.000  14.545  0.1406 -0.0061 -0.0870
93777W        W36830   1.818  27.583   6.990  0.2852 -0.0375  0.0793
93778W        W36831  12.047  21.195   1.763  0.1933 -0.1270  0.0621
93779W        W36832  13.468   8.685   7.770  0.0469 -0.0746 -0.3993
93780W        W36833  34.603  28.624  17.262 -0.1956  0.1436 -0.0094
93781W        W36834  20.422  23.026   2.813 -0.2148 -0.3048 -0.0815
93782W        W36835  21.177  16.029   9.602 -0.0094 -0.0680 -0.1415
93783W        W36836  15.953  16.712  28.480 -0.1315  0.0879  0.1244
93784W        W36837   3.246  24.327   1.356 -0.1645 -0.0625 -0.0706
93785W        W36838  12.177  31.533   5.828 -0.0364 -0.0708 -0.0810
93786W        W36839  15.276  23.534  25.493 -0.1072  0.1013 -0.0096
93787W        W36840   7.795  10.757  21.020  0.2482 -0.1336 -0.4487
93788W        W36841  22.609   2.926   4.228  0.0859  0.0298 -0.0119
93789W        W36842  12.510   9.502  23.945 -0.2263  0.0788 -0.4792
93790W        W36843  20.068  22.189  27.139  0.2949 -0.3523 -0.3762
93791W        W36844  15.122  19.150   1.784 -0.1587 -0.0317  0.0380
93792W        W36845   2.788  30.440  17.703  0.5267  0.2116  0.1415
93793W        W36846   9.719  10.740  20.810 -0.1320  0.3197  0.0344
93794W        W36847  18.897  26.352   8.429 -0.0199 -0.1234  0.1743
93795W        W36848  14.003  23.433   6.957  0.0656  0.0215  0.1862
93796W        W36849  18.142  26.678   9.901 -0.3458  0.0083 -0.1120
93797W        W36850  24.634  23.193   9.941 -0.2495 -0.0592 -0.0049
93798W        W36851   6.951  14.924  10.038 -0.2097  0.0163  0.2131
93799W        W36852  18.656  27.294   9.601 -0.2870  0.1102  0.1137
93800W        W36853  10.562  13.388   6.254  0.0769 -0.1491 -0.1924
93801W        W36854  14.403  29.426   8.112 -0.2199  0.2503 -0.3138
93802W        W36855  20.924  15.674   1.157 -0.4626 -0.1251 -0.2505
93803W        W36856   3.907  16.419   7.309  0.0514  0.1772  0.1478
93804W        W36857  17.492  15.306   9.671 -0.0409 -0.3159 -0.0250
93805W        W36858  13.096  18.017  27.579 -0.0492 -0.2273  0.1039
93806W        W36859  10.825  18.442   4.503 -0.0128 -0.1734 -0.0181
93807W        W36860  14.326  12.455   1.506  0.1908 -0.0664 -0.1539
93808W        W36861  10.250  12.228  23.511 -0.0925  0.0754  0.1104
93809W        W36862  28.476  17.412   4.310 -0.0130  0.0358  0.0581
93810W        W36863  21.882  27.386   8.511  0.0133  0.1744 -0.2986
93811W        W36864  23.007  27.509  26.891  0.0157 -0.1038  0.0489
93812W        W36865   1.920   9.658  28.234  0.2874 -0.2727  0.0117
93813W        W36866  25.078  24.403  27.294 -0.2656  0.0219 -0.1302
93814W        W36867   6.917  24.353   8.078  0.3402  0.0159 -0.0771
93815W        W36868   2.996  28.744  26.424  0.1966 -0.2038 -0.0576
93816W        W36869  27.939   4.165  24.441 -0.0784 -0.0776  0.0349
93817W        W36870   8.531  23.597   5.391 -0.2906 -0.1887  0.0461
93818W        W36871  14.150  25.352   6.750  0.0845  0.0145 -0.2024
93819W        W36872   6.851  23.271   6.308 -0.1104 -0.0850  0.0685
93820W        W36873  30.707   2.963   6.400  0.2186  0.2187  0.1607
93821W        W36874   9.694  28.751  25.358 -0.2589  0.2244  0.1234
93822W        W36875  12.315  21.199   5.515 -0.0571 -0.0975  0.2743
93823W        W36876  30.880  13.260   8.132 -0.1851 -0.2227 -0.0339
93824W        W36877  30.876  12.673   9.784 -0.2432 -0.1306  0.1167
93825W        W36878  20.423  24.187   3.816 -0.2198  0.1170  0.0328
93826W        W36879  28.407  16.987   3.509  0.0807  0.1114  0.2259
93827W        W36880   1.378   9.781   8.971  0.0288  0.0488  0.1438
93828W        W36881  16.015   1.027   7.557 -0.0670 -0.1512 -0.2588
93829W        W36882  15.517  31.410  28.112 -0.0047  0.0057  0.0757
93830W        W36883  24.845  14.372   4.336  0.2822 -0.0137  0.3070
93831W        W36884   0.045  12.012   2.713 -0.1622  0.0886 -0.0448
93832W        W36885  26.200  19.657  24.037 -0.2702 -0.2363  0.0639
93833W        W36886  30.225  13.420   5.795 -0.0551 -0.0247 -0.1420
93834W        W36887  19.332  19.082   9.255 -0.0718 -0.1052 -0.2649
93835W        W36888  17.509  21.682  22.748  0.1607  0.1586 -0.1782
93836W        W36889   6.557  32.378   6.315 -0.2718 -0.0204 -0.0582
93837W        W36890  10.533  15.934  27.882  0.4568  0.2756  0.1181
93838W        W36891  15.517   6.561   8.151 -0.0105 -0.0731  0.0517
93839W        W36892  21.899  19.860  28.328  0.1791 -0.3847  0.1453
93840W        W36893   5.721  11.880  25.670  0.1665 -0.0089 -0.2514
93841W        W36894  18.488  31.032   6.141 -0.0108 -0.3247  0.2361
93842W        W36895   5.646  17.290   3.278  0.0773  0.0099  0.1573
93843W        W36896  27.208  23.971   9.441 -0.0662 -0.1677  0.0260
93844W        W36897  17.498  17.203   7.131  0.0514  0.0556 -0.2872
93845W        W36898  20.840  13.888   8.363 -0.3951  0.2324  0.1173
93846W        W36899  23.964  16.997   2.307  0.1713  0.3809  0.0355
93847W        W36900  16.287  11.435  10.058  0.0905 -0.0406 -0.1746
93848W        W36901   6.489  22.457   7.282 -0.0558 -0.0683 -0.0649
93849W        W36902  16.928  13.799  25.005 -0.1063  0.0395  0.1599
93850W        W36903  15.823   2.991  28.266 -0.0738 -0.0173 -0.1701
93851W        W36904  13.948  12.083   5.193  0.3252 -0.1922 -0.1594
93852W        W36905   6.689  28.399  25.676  0.0448  0.3007 -0.2470
93853W        W36906  16.068  15.800   7.893 -0.0716 -0.0883  0.1832
93854W        W36907  18.664  10.444   7.174  0.1256  0.1195  0.1152
93855W        W36908  34.250  30.636   6.368  0.3465  0.0230 -0.1956
93856W        W36909  10.943  23.302  17.488 -0.0193 -0.1412 -0.0175
93857W        W36910   4.414  16.525   9.533  0.0109 -0.1480 -0.0795
93858W        W36911  22.587  23.229   5.081 -0.1333 -0.3879  0.0391
93859W        W36912  14.632   9.415  22.510  0.0568  0.1358 -0.0025
93860W        W36913  26.916  25.115   8.632  0.0400 -0.0947 -0.1046
93861W        W36914  16.930  18.835   0.053  0.1150  0.1214 -0.1873
93862W        W36915   1.495  15.588   2.286 -0.0630  0.0461 -0.1437
93863W        W36916  14.695  34.570  27.085 -0.2519  0.3096  0.0975
93864W        W36917   7.220  14.238   1.040 -0.0975  0.0337 -0.1676
93865W        W36918  27.161  16.697   7.351  0.0097  0.1548  0.1908
93866W        W36919  21.241  20.210   6.024  0.0854  0.0548 -0.1866
93867W        W36920  17.433  22.886   0.451 -0.0586  0.2173 -0.0481
93868W        W36921   2.698  15.514  18.170  0.0752  0.0448  0.3802
93869W        W36922  17.336   8.289  25.803  0.0552 -0.0771 -0.2309
93870W        W36923   7.604  33.152   6.650 -0.3376  0.0790  0.0450
93871W        W36924  15.301  29.375   8.244 -0.2474  0.1780  0.0443
93872W        W36925  10.501  20.185   7.923  0.2135  0.2785  0.2976
93873W        W36926  33.587  24.802   5.449  0.3714  0.0758 -0.2308
93874W        W36927  16.806  17.820  24.735 -0.0473  0.0456  0.1027
93875W        W36928  19.632   8.422   0.892 -0.0646 -0.1142  0.0615
93876W        W36929  33.777  25.883  28.497  0.0414 -0.0611  0.0467
93877W        W36930  22.027  12.889   1.433  0.0902 -0.1962 -0.0454
93878W        W36931  16.381  27.938   9.755  0.1635 -0.3915 -0.1356
93879W        W36932   6.624  32.814   0.196 -0.5392 -0.1194  0.0489
93880W        W36933   9.039  20.764   9.493  0.1415  0.3447  0.0634
93881W        W36934   4.980  17.180   5.380 -0.2270 -0.1421 -0.0150
93882W        W36935   4.070  27.267   5.261  0.0707 -0.1467  0.2524
93883W        W36936  15.822  27.644   2.608  0.0299 -0.0465 -0.1859
93884W        W36937  21.936  29.668   2.804 -0.0462 -0.0718  0.2729
93885W        W36938  19.426   5.072   5.309 -0.0942 -0.2455 -0.3062
93886W        W36939  19.534   9.424  24.586  0.0897 -0.0068  0.2371
93887W        W36940  11.288  24.572  18.009  0.0278 -0.0292  0.0617
93888W        W36941  13.366  18.967   2.015 -0.0985  0.0240 -0.2545
93889W        W36942  30.913  20.111   7.585  0.1010  0.1815 -0.0406
93890W        W36943   2.596  14.672   6.116 -0.1879 -0.2226 -0.0158
93891W        W36944   3.790  26.976   1.407 -0.0345 -0.1839  0.0929
93892W        W36945  25.763  17.839   2.897 -0.1464 -0.5033 -0.0310
93893W        W36946  10.731  27.435   6.995  0.2085  0.1774  0.0517
93894W        W36947   5.991  12.156  21.486  0.0679  0.0769 -0.1401
93895W        W36948  10.926  22.478  26.849  0.2906 -0.1643 -0.0971
93896W        W36949  14.571  14.655   1.717 -0.0515  0.2361 -0.1505
93897W        W36950  10.712   5.592   2.329 -0.1534 -0.2800  0.2360
93898W        W36951   5.618  22.761  24.730  0.2246  0.3197  0.0559
93899W        W36952   1.844  16.089   3.402  0.2773  0.1007 -0.0053
93900W        W36953  19.533  26.303  21.923 -0.0246 -0.1332 -0.0944
93901W        W36954   8.241  17.433  23.791 -0.2592  0.1837 -0.2095
93902W        W36955  27.647   3.419   6.870  0.1735  0.1292  0.5355
93903W        W36956  18.330  27.432   8.343 -0.0215 -0.0838 -0.1107
93904W        W36957  17.365  23.696   3.356  0.0927  0.0972 -0.0275
93905W        W36958  11.583   9.183  27.623  0.1120  0.1907 -0.1620
93906W        W36959   6.406  30.542  28.026 -0.3320 -0.1213 -0.0350
93907W        W36960  16.960  20.738   0.698 -0.0915  0.0718  0.0879
93908W        W36961  20.610  29.943   7.447  0.2819 -0.2130  0.1783
93909W        W36962  20.830   2.174  28.783  0.2835  0.2302  0.5591
93910W        W36963   8.609  30.966   3.378 -0.1997 -0.1603 -0.1454
93911W        W36964  11.205  16.512  23.131 -0.1997 -0.0510 -0.1412
93912W        W36965  34.543  30.285   5.199 -0.0488 -0.1945  0.0848
93913W        W36966  21.120  20.499   6.457  0.2016 -0.4803 -0.0634
93914W        W36967  25.877  16.645  20.393  0.2016  0.2574  0.4430
93915W        W36968  16.883  21.859  22.001 -0.1697  0.0460 -0.0764
93916W        W36969  13.209   5.698  21.509  0.3017  0.1529 -0.2631
93917W        W36970   9.147  32.494  10.068 -0.0647  0.1270 -0.2056
93918W        W36971  19.476  24.102  28.694  0.0100  0.0073  0.0185
93919W        W36972  12.698   8.922  27.459 -0.0415 -0.3838  0.1764
93920W        W36973  15.283  23.329  22.425  0.0061  0.2064 -0.1701
93921W        W36974   7.749  15.807   1.333 -0.2091  0.1172  0.0407
93922W        W36975  24.354  30.557   7.160  0.3632 -0.1121 -0.1221
93923W        W36976   0.679   0.884   0.275 -0.1086  0.2556  0.2194
93924W        W36977  30.826  30.860   6.247 -0.1039 -0.0925 -0.2240
93925W        W36978  33.605   1.506  23.129 -0.1238 -0.2065  0.0759
93926W        W36979   4.148  13.220   9.515 -0.2004 -0.2348  0.1704
93927W        W36980  21.551  27.439   7.605  0.1585  0.2922 -0.4175
93928W        W36981  16.959  21.388  15.252 -0.2160 -0.0349 -0.0178
93929W        W36982   8.503  23.404  25.947 -0.0097 -0.0797  0.0037
93930W        W36983   8.622  32.214  22.425 -0.1464  0.3085 -0.2777
93931W        W36984  12.991  19.800   8.034 -0.1403  0.1021  0.1800
93932W        W36985  14.948  17.317  27.555 -0.2351  0.4655 -0.1332
93933W        W36986  21.015  23.201   9.867  0.0217 -0.1083 -0.3103
93934W        W36987  17.270  19.483   7.459  0.0379 -0.2921  0.0807
93935W        W36988  31.673  26.123  15.043  0.3263  0.2554  0.2425
93936W        W36989  32.037   1.256  28.483  0.1543 -0.3519  0.1490
93937W        W36990  19.367  29.381  25.248 -0.0053 -0.3530 -0.0868
93938W        W36991  15.566  21.291   6.261  0.1648  0.0229  0.0010
93939W        W36992  15.370  19.972  26.244 -0.2107  0.2210 -0.0882
93940W        W36993   4.705  28.897   8.040  0.1979 -0.0835 -0.0833
93941W        W36994  15.298  10.147   0.380 -0.2040 -0.2620 -0.0664
93942W        W36995  15.963  21.746  19.817  0.1144  0.0292  0.1664
93943W        W36996  28.867  12.310  22.858  0.0189  0.3064  0.0435
93944W        W36997  10.956   2.829   0.654 -0.0004  0.1515 -0.2046
93945W        W36998   9.423  12.031   2.028 -0.1101 -0.0404  0.1691
93946W        W36999  33.519  31.546   1.527  0.2791  0.0560  0.2048
93947W        W37000  16.376  32.480  28.603  0.2334 -0.0238 -0.0604
93948W        W37001  16.216   0.729  26.566  0.3613 -0.0177 -0.0189
93949W        W37002  11.385  23.048  24.158 -0.0789  0.0644  0.1189
93950W        W37003  25.598  20.672  26.129 -0.2196  0.1317 -0.1258
93951W        W37004  24.013  13.364   5.588  0.0530  0.2252  0.0528
93952W        W37005  24.352   5.620  26.026  0.0500  0.2431 -0.2123
93953W        W37006  15.991  14.578   4.600 -0.3116 -0.1564  0.1873
93954W        W37007  18.658  34.341   6.067  0.1322  0.0429  0.4424
93955W        W37008  11.274  32.334   6.934  0.0323  0.1938 -0.3138
93956W        W37009  15.036  30.314  24.992 -0.1470 -0.1428 -0.1163
93957W        W37010   7.005  21.909  22.919 -0.1267 -0.0480 -0.1769
93958W        W37011  16.199  12.843   4.842 -0.1067  0.0882 -0.1497
93959W        W37012  16.223  15.192   1.149 -0.0766 -0.1400  0.2792
93960W        W37013   7.430  30.924  24.202  0.1923 -0.1130 -0.1696
93961W        W37014  19.842  15.055  14.847 -0.0892 -0.0514  0.1643
93962W        W37015  15.265   0.986  27.142 -0.3303 -0.0751 -0.0608
93963W        W37016  18.191  11.602   1.909 -0.0576  0.2128  0.1277
93964W        W37017  20.625  13.482   5.500  0.2268 -0.0819 -0.0031
93965W        W37018  11.617  21.565   3.007  0.0156 -0.2040 -0.1896
93966W        W37019   9.982   8.002   4.987  0.1511 -0.2740 -0.1583
93967W        W37020   5.195   9.440   1.657 -0.0865 -0.2198  0.0300
93968W        W37021  16.244  23.479   3.119 -0.3862 -0.2389 -0.2888
93969W        W37022  14.375  20.809  27.459  0.2791  0.1738  0.0304
93970W        W37023  18.894  23.100   8.504 -0.3109 -0.2400 -0.1253
93971W        W37024   8.556  13.074   0.810  0.1625  0.0617 -0.1683
93972W        W37025  11.624  24.974  26.991  0.1011  0.0717 -0.0168
93973W        W37026  22.444  23.420   0.656 -0.4122 -0.2642 -0.4225
93974W        W37027  10.968  21.709  18.046  0.0555  0.2070  0.3030
93975W        W37028   3.404  23.936  26.281 -0.0329  0.0771 -0.0365
93976W        W37029   3.157  17.995  18.770 -0.2910 -0.0063  0.4311
93977W        W37030  21.817  22.285  10.812 -0.1739 -0.1810 -0.0608
93978W        W37031   1.966  21.633  22.431 -0.2762 -0.1595 -0.0109
93979W        W37032  24.830  10.263  20.421  0.1547 -0.1170  0.0398
93980W        W37033  22.784  32.525   0.483  0.0419 -0.0462 -0.2293
93981W        W37034  12.100  15.746   2.717 -0.0681 -0.0255  0.0305
93982W        W37035  16.191   1.949  28.339 -0.2061 -0.1183  0.0216
93983W        W37036   3.887  18.460   6.155 -0.1657  0.1169  0.4279
93984W        W37037   3.478  17.750   9.669  0.0888  0.0642  0.2192
93985W        W37038  34.442   3.061  26.517  0.0994 -0.0154 -0.2091
93986W        W37039  12.615  27.740  27.354 -0.0951  0.2258  0.0578
93987W        W37040  16.662  19.180   2.765  0.2087 -0.1325 -0.1050
93988W        W37041  18.996   7.780   4.941  0.0553 -0.3187  0.2653
93989W        W37042  19.283   4.483   9.902 -0.5671  0.0661 -0.0267
93990W        W37043  22.777  30.618  26.783  0.2649  0.3193  0.1254
93991W        W37044  27.333   3.364  23.934  0.0014  0.2111  0.0911
93992W        W37045   3.394  19.116   2.112  0.0983 -0.0579  0.3331
93993W        W37046  32.151  28.840  18.947  0.2316 -0.0724  0.1315
93994W        W37047  17.829  28.536  16.361  0.1350 -0.1569  0.0615
93995W        W37048   9.182  17.894  26.967 -0.2029 -0.0843 -0.1242
93996W        W37049   0.876   8.761  23.248 -0.0584  0.3121  0.2442
93997W        W37050  18.415  21.083   2.593  0.0939  0.1729  0.1312
93998W        W37051  14.103   7.977  25.446  0.0205 -0.1125  0.1834
93999W        W37052  17.451  13.934   1.915  0.1932 -0.0108  0.3140
94000W        W37053   4.258  19.021  25.935  0.0682  0.1005  0.1591
94001W        W37054  24.828  20.542  19.843  0.1591  0.0629  0.2453
94002W        W37055   4.375  21.402   0.167 -0.0492 -0.2309 -0.0477
94003W        W37056   0.042   7.402   2.158 -0.0475  0.0576 -0.0366
94004W        W37057   2.372  13.478   3.622 -0.2622 -0.0289  0.1048
94005W        W37058  15.750  31.406   8.826 -0.0821 -0.0481 -0.0291
94006W        W37059  26.559  31.509  23.631  0.0436 -0.1008  0.0198
94007W        W37060  24.846  17.668  27.956  0.0085  0.0269  0.0518
94008W        W37061  19.814  21.502  24.224 -0.0966 -0.1369 -0.0270
94009W        W37062  12.936  14.338   3.045  0.0850 -0.0251 -0.1796
94010W        W37063  14.977  11.400  25.985 -0.2848 -0.2657  0.0778
94011W        W37064  19.893  20.955   2.077  0.0112  0.1864 -0.1764
94012W        W37065  17.721  18.422  28.496  0.1231 -0.1528 -0.1656
94013W        W37066  22.558  26.338   0.571  0.0005  0.0767 -0.1408
94014W        W37067   6.900  16.610   0.194 -0.6298 -0.1073  0.0545
94015W        W37068  18.722   7.831   5.324 -0.2311  0.0064 -0.2608
94016W        W37069  16.503  17.041  22.924  0.0829  0.0687  0.4582
94017W        W37070  23.312  25.565   9.406  0.0385  0.1542  0.0964
94018W        W37071  21.820   9.755  18.805  0.1182  0.0236 -0.1852
94019W        W37072  10.158  19.868   5.997 -0.0970 -0.0822  0.1266
94020W        W37073  10.514  29.614  21.969 -0.2525 -0.0711  0.1037
94021W        W37074  19.721  28.535   1.350 -0.0067  0.0373  0.2766
94022W        W37075   1.756  10.949  22.052  0.0656  0.1966  0.1038
94023W        W37076  22.446  30.308   8.162 -0.1496  0.0732  0.2028
94024W        W37077  18.142  23.404  24.119 -0.0103 -0.0621  0.1947
94025W        W37078   6.035  20.642   7.385  0.3031  0.3789 -0.3134
94026W        W37079   2.901  11.460   7.762 -0.2184 -0.1054  0.0536
94027W        W37080  11.810  34.624  26.464  0.2279  0.0015  0.2392
94028W        W37081  32.826  21.442  19.799 -0.0959  0.2437 -0.1032
94029W        W37082  20.740  22.741   1.197 -0.2116 -0.1457 -0.2338
94030W        W37083  32.411  28.787  23.381  0.3531 -0.3185 -0.1552
94031W        W37084   9.542  26.009  22.361 -0.0474 -0.0912 -0.2152
94032W        W37085  19.947   0.562   2.576 -0.0318  0.1184  0.0957
94033W        W37086  31.850  22.550   8.588 -0.1489  0.0980  0.2038
94034W        W37087   8.295  23.742   8.773  0.0164 -0.0020 -0.0590
94035W        W37088  14.885   9.379  16.403  0.1059  0.1661 -0.0892
94036W        W37089   6.838  25.324   6.616 -0.2379  0.2339  0.2839
94037W        W37090  16.709  32.970  27.823 -0.0433 -0.2071  0.1425
94038W        W37091   5.108  21.524  24.673  0.0827  0.3315 -0.0921
94039W        W37092  14.029  28.170   1.588  0.2881  0.2860  0.3059
94040W        W37093  16.032  25.453   9.714 -0.0542  0.1564 -0.2246
94041W        W37094  20.738  29.886  28.044 -0.3736 -0.2400 -0.0418
94042W        W37095   4.460  21.044   8.348  0.1878 -0.2572 -0.1768
94043W        W37096  19.826   8.141   9.763 -0.0077  0.2961 -0.1336
94044W        W37097  20.285  10.695   7.508  0.1942 -0.0331  0.0283
94045W        W37098   4.312  18.712   6.313 -0.1718  0.0401  0.1952
94046W        W37099  23.336  29.635  28.187  0.0583 -0.0010 -0.0559
94047W        W37100  29.551   1.686  16.407  0.1740 -0.0997 -0.0834
94048W        W37101   2.151  12.324  24.654  0.0328 -0.0005  0.0335
94049W        W37102   3.908  12.788  28.905 -0.1799  0.2677  0.0038
94050W        W37103  20.418  34.133   2.217  0.0297 -0.2941 -0.1805
94051W        W37104  18.399  29.282   5.513  0.2155 -0.1398  0.2486
94052W        W37105  13.982  30.791   9.621  0.0177  0.1617 -0.0291
94053W        W37106  21.260  14.634   3.707  0.0356 -0.1611 -0.0851
94054W        W37107   8.229  15.905   7.989  0.0085  0.0429 -0.6675
94055W        W37108  12.076  20.759   2.054  0.1443  0.1243 -0.3325
94056W        W37109  28.916   0.234   6.821 -0.1421 -0.0698 -0.0187
94057W        W37110   9.184  30.889   1.699 -0.0096 -0.3452 -0.0931
94058W        W37111  20.038   5.106   3.286  0.0174  0.1548 -0.0999
94059W        W37112  21.520   7.680   2.341 -0.2200 -0.0082 -0.0074
94060W        W37113  17.957   3.878  26.259 -0.2682 -0.1530 -0.0200
94061W        W37114  20.530  22.744   3.221 -0.1584 -0.0725 -0.0285
94062W        W37115  28.236  18.864  24.885 -0.2098  0.0513 -0.0981
94063W        W37116  25.128   2.555   6.616  0.0534  0.1901 -0.1988
94064W        W37117  18.982  22.046  14.486  0.3426  0.0155 -0.0143
94065W        W37118  13.076  34.233   4.969  0.2349 -0.0849 -0.0188
94066W        W37119  14.259  21.851  23.268 -0.0842 -0.2904  0.1327
94067W        W37120  16.087  27.336   6.448 -0.1841  0.0727 -0.0552
94068W        W37121  12.537  27.637   7.698  0.0630  0.1613  0.1494
94069W        W37122  14.880  26.506  25.851  0.0124  0.1672  0.0387
94070W        W37123   7.751  20.849   1.155  0.0979 -0.0125  0.1775
94071W        W37124   6.917  16.869  28.278  0.0141  0.1466 -0.0270
94072W        W37125  33.665  30.665  21.342  0.0559 -0.2092  0.2894
94073W        W37126  27.737  32.100   2.240  0.0328 -0.0884  0.1746
94074W        W37127  11.560  15.840  28.676 -0.2915  0.1116  0.1954
94075W        W37128  16.976  24.083   5.632 -0.0421  0.1531 -0.3347
94076W        W37129  23.616  15.652   3.223  0.1972  0.1747 -0.2987
94077W        W37130  16.305   8.567  20.929 -0.1266 -0.1164 -0.1996
94078W        W37131  29.234  28.513   7.520  0.2073 -0.2103  0.0872
94079W        W37132   3.770   7.848  27.127  0.0161  0.1631  0.0794
94080W        W37133  20.705  18.718   9.450  0.2252  0.1230 -0.2834
94081W        W37134  25.016  17.942  27.582 -0.1677 -0.0551  0.0684
94082W        W37135  33.932  20.486  19.636 -0.2174 -0.0134 -0.1094
94083W        W37136  29.440   2.470   5.867 -0.2741  0.0326 -0.1035
94084W        W37137  14.639  21.443   4.015 -0.0145  0.1168  0.1210
94085W        W37138   9.536  23.769   8.584  0.0826 -0.1140 -0.0617
94086W        W37139  33.871  25.001   4.149 -0.0876  0.0226  0.0169
94087W        W37140   4.591  23.982  26.503  0.0419  0.2292 -0.2730
94088W        W37141  23.963  31.758  15.979  0.1010 -0.2436  0.1779
94089W        W37142  31.792  24.623  28.034  0.2566 -0.1461  0.0951
94090W        W37143   0.259  24.802   2.425  0.1960  0.2585  0.2665
94091W        W37144  27.068  14.912  27.532 -0.0284  0.0854 -0.2281
94092W        W37145  31.040  20.708   4.198 -0.0514  0.0901  0.0191
94093W        W37146  33.407  11.017   2.564 -0.2123  0.1015 -0.2453
94094W        W37147   9.821  20.012   2.251 -0.3858 -0.0425 -0.3178
94095W        W37148   1.287  22.550   8.411  0.0058 -0.1549  0.0727
94096W        W37149   5.397  25.056   3.676  0.0167  0.0672 -0.3351
94097W        W37150  24.612   8.578   2.930 -0.0131  0.2387 -0.1110
94098W        W37151   6.356  21.003  26.325 -0.0371 -0.0548  0.0637
94099W        W37152  15.785  28.024  20.527 -0.1041 -0.0369  0.0062
94100W        W37153  20.885  34.256  18.767 -0.1808 -0.3931  0.1139
94101W        W37154  30.536  34.485  28.122 -0.1524 -0.0282 -0.1149
94102W        W37155   8.850   8.735  23.987 -0.1843 -0.1531 -0.0050
94103W        W37156   6.379  16.709  19.324 -0.2532  0.3863 -0.0724
94104W        W37157  21.319  23.335   8.516  0.3654 -0.1722  0.0647
94105W        W37158  19.628  14.952  20.266 -0.3001  0.3347  0.1262
94106W        W37159   9.561  20.366  24.970  0.0038 -0.2023 -0.1966
94107W        W37160  12.057  15.756  26.065 -0.1744 -0.3587 -0.2245
94108W        W37161  24.528  27.983  18.944 -0.2317  0.0942  0.1705
94109W        W37162  17.216   0.326   0.714 -0.2677 -0.2640 -0.0301
94110W        W37163  30.689   9.427  27.171 -0.0777  0.1465 -0.0140
94111W        W37164   2.062  10.866   0.421  0.1172 -0.2110  0.1172
94112W        W37165  15.784  11.204  22.589 -0.2536 -0.1004 -0.2777
94113W        W37166  26.153  27.619   2.261  0.1365  0.0414 -0.0433
94114W        W37167  25.035  29.523  10.098 -0.2404  0.0196  0.4801
94115W        W37168  31.797  20.996   8.928 -0.1343  0.0981  0.0415
94116W        W37169  33.683   5.143   2.782  0.0851 -0.0098 -0.0134
94117W        W37170  18.773  30.345   9.991  0.0264 -0.0100 -0.2073
94118W        W37171  32.750  27.653   6.259 -0.2190  0.3091  0.1641
94119W        W37172  11.043  12.929  15.855 -0.0426  0.0464  0.2631
94120W        W37173  22.782  16.922   9.753  0.1938 -0.1180 -0.0983
94121W        W37174  32.700   5.296   3.230 -0.0957  0.0799  0.1092
94122W        W37175  10.648  25.397   3.439 -0.2099 -0.1535  0.1236
94123W        W37176   1.253  21.997   1.266  0.1509  0.2197  0.1336
94124W        W37177  28.374  24.937   2.827 -0.1929 -0.1193 -0.0503
94125W        W37178  17.736  30.263   4.705  0.1451 -0.0572  0.1498
94126W        W37179  28.167  22.287   4.722 -0.1189 -0.0609 -0.0083
94127W        W37180  21.295  25.252   2.576  0.0553  0.0112 -0.1395
94128W        W37181  13.987  28.816  27.579 -0.1540  0.1188 -0.2738
94129W        W37182   1.545  13.996   0.248  0.4088 -0.0908 -0.1428
94130W        W37183   4.246  22.331   6.953  0.0127  0.1983  0.0060
94131W        W37184   9.472  17.969   5.976 -0.1981  0.1812 -0.0913
94132W        W37185  11.438  15.391   4.484 -0.1290 -0.2950 -0.1193
94133W        W37186  21.616  33.155   2.233  0.2923  0.1315  0.1284
94134W        W37187  27.907  33.377  28.215 -0.4520 -0.1974  0.1173
94135W        W37188   3.706   3.455  24.238 -0.1749  0.2194  0.0221
94136W        W37189  22.169  16.421   3.985 -0.2367 -0.1195 -0.1533
94137W        W37190   5.938  22.691  21.233 -0.1174  0.1980  0.0180
94138W        W37191  33.443  27.874   0.738  0.0231 -0.1432 -0.2005
94139W        W37192  11.787  33.892  17.171  0.2965  0.0232  0.0628
94140W        W37193  12.056  34.671   9.668 -0.0811  0.0301 -0.4362
94141W        W37194  22.103  21.647   0.460 -0.0365 -0.0202  0.1081
94142W        W37195  14.307  26.182   8.273 -0.0649  0.0817 -0.0596
94143W        W37196  32.979  29.209   3.022  0.1286 -0.0477 -0.0483
94144W        W37197   8.451  13.274  27.276 -0.2450  0.1147 -0.1510
94145W        W37198   0.831  19.107   6.737  0.1064  0.0030  0.2702
94146W        W37199   6.991  27.357  19.034 -0.1780 -0.0008  0.1510
94147W        W37200  12.002  28.703  26.562 -0.1561  0.1187 -0.1813
94148W        W37201  23.076   5.533  19.196  0.0504 -0.1852  0.0254
94149W        W37202  24.535  25.502   6.972 -0.1447  0.0242  0.3232
94150W        W37203   8.219  23.877  26.087 -0.0765 -0.0643 -0.0864
94151W        W37204   4.205  29.877  10.327  0.2797 -0.0474 -0.0323
94152W        W37205   4.053  29.997  16.788  0.2406 -0.1381 -0.2180
94153W        W37206   0.825  16.904  13.653  0.0789  0.2403  0.0427
94154W        W37207   9.488  20.480   3.071  0.0462 -0.3170 -0.1409
94155W        W37208   2.787   3.859   0.825 -0.0385 -0.1507 -0.0323
94156W        W37209  23.196  11.349  24.586  0.0268 -0.1694 -0.0836
94157W        W37210  27.357  26.596  27.809  0.2753  0.0769  0.0233
94158W        W37211  17.944  15.228  28.551 -0.1495  0.1145  0.2673
94159W        W37212  22.048  25.273  28.336 -0.2712  0.1961 -0.0361
94160W        W37213  30.047  12.698  25.274  0.2055 -0.0684 -0.3226
94161W        W37214  17.661  12.902  21.433  0.0592  0.3135 -0.0846
94162W        W37215  12.705   3.052   2.975 -0.2642  0.0126 -0.0242
94163W        W37216  21.824  26.771  26.527  0.0540  0.0121 -0.1133
94164W        W37217  25.908  25.881   8.891 -0.0572 -0.1820  0.0212
94165W        W37218  24.609  26.938  21.809  0.1260 -0.1650 -0.1902
94166W        W37219   0.447   3.649   6.028 -0.1530 -0.1523  0.0730
94167W        W37220  11.795  24.918  28.836  0.2667 -0.0327 -0.1151
94168W        W37221  23.512  29.353  23.282  0.0569 -0.0561  0.0444
94169W        W37222  15.313   9.003   7.694 -0.3915  0.2361 -0.1025
94170W        W37223   4.482  14.247   7.650  0.0021 -0.0918 -0.0568
94171W        W37224  33.161   6.712   7.675 -0.0568  0.1619 -0.2180
94172W        W37225  22.384  22.566  28.410  0.3002 -0.2673  0.2640
94173W        W37226   1.030  17.808  19.970 -0.0418 -0.1653 -0.0114
94174W        W37227   4.106  26.788   0.427 -0.0140 -0.0773  0.0801
94175W        W37228  26.605  26.764  25.997 -0.1889  0.2281 -0.0664
94176W        W37229  28.476  22.357   1.275 -0.0776  0.0523  0.2534
94177W        W37230  10.393  26.532  24.010  0.0470  0.0223  0.0569
94178W        W37231  27.156   3.529  14.391  0.1605  0.3563 -0.1336
94179W        W37232   5.179  26.832   9.371 -0.2114  0.1156 -0.0743
94180W        W37233  10.240  20.747   2.557 -0.2275  0.2364 -0.2163
94181W        W37234  28.247  34.200  23.813 -0.0541 -0.2558  0.1428
94182W        W37235  29.902  33.104   8.474  0.1688  0.0468 -0.0552
94183W        W37236  17.467  28.855  21.348 -0.3359  0.1195  0.0687
94184W        W37237  17.057  16.430   8.167  0.0501 -0.1401  0.2290
94185W        W37238  12.529  23.517  26.232  0.2576 -0.3626 -0.1274
94186W        W37239  16.493   4.057   7.632 -0.0141  0.1167  0.1145
94187W        W37240   1.941  16.441   0.761  0.1484 -0.0432  0.0232
94188W        W37241   7.496  18.232  27.658  0.0148  0.1135 -0.0411
94189W        W37242   4.118  27.069  28.602 -0.1255 -0.0111 -0.2039
94190W        W37243  21.485  28.982   8.531  0.1580  0.0461 -0.2151
94191W        W37244  12.433  23.357  26.686  0.1013  0.0324  0.3061
94192W        W37245   9.474  21.013   5.015 -0.2359 -0.1471  0.0620
94193W        W37246  27.540  27.271   6.622  0.0055  0.0687  0.0546
94194W        W37247   3.193  27.764   8.412  0.1049 -0.0443  0.0619
94195W        W37248  16.735  24.216  27.007  0.0126  0.0305  0.0645
94196W        W37249  20.580  27.294  24.401 -0.2587 -0.1041  0.1919
94197W        W37250  31.755  28.327   1.008  0.1868  0.1135  0.0915
94198W        W37251  32.273  26.359   7.756 -0.0374  0.1166 -0.1861
94199W        W37252  16.362  27.570  21.750  0.1904 -0.0439  0.0863
94200W        W37253  15.010  18.041   8.561  0.1711 -0.0199  0.1292
94201W        W37254   6.813  30.534   2.273 -0.0787  0.0032 -0.0598
94202W        W37255  10.787  16.008  10.534  0.0414 -0.1016 -0.2885
94203W        W37256   4.993  29.773   8.664  0.1339  0.0633 -0.0955
94204W        W37257  12.330   2.959   6.354 -0.2006 -0.3327 -0.3760
94205W        W37258  28.808  17.552  25.405 -0.1352 -0.3420  0.2209
94206W        W37259  12.552  14.968   6.960 -0.0855  0.3166 -0.3792
94207W        W37260  13.389  15.108   9.451 -0.3303 -0.2698  0.1216
94208W        W37261   3.154  23.587  17.001 -0.1616  0.0164 -0.1213
94209W        W37262  23.289  17.114   0.245 -0.0461 -0.1083 -0.0790
94210W        W37263  13.450  23.035   2.558  0.0110  0.0750  0.2593
94211W        W37264   1.739   1.531  24.845 -0.0054  0.0972  0.3735
94212W        W37265  15.058  20.007   2.134 -0.2273  0.0803 -0.0172
94213W        W37266  23.158  29.396   1.047  0.0556  0.3147 -0.1135
94214W        W37267   0.648  23.764   1.308 -0.0443  0.1150 -0.0424
94215W        W37268   6.600   0.668   2.782  0.0601 -0.0440 -0.0493
94216W        W37269   9.697  14.873   8.628 -0.0556  0.1342  0.1368
94217W        W37270  13.225  23.606   7.351  0.1808  0.1825  0.1291
94218W        W37271  12.749  21.144   5.871  0.1203 -0.1772 -0.1231
94219W        W37272  33.164  20.739  15.277  0.1491 -0.4617 -0.0882
94220W        W37273   4.646  28.934   1.024 -0.0536 -0.1353  0.0949
94221W        W37274  16.003  24.603   9.932 -0.0102 -0.1174 -0.2240
94222W        W37275  12.904  22.626  27.222  0.1847 -0.0825  0.2476
94223W        W37276   9.420  26.385  27.287 -0.0892 -0.1786 -0.1407
94224W        W37277   4.237  25.523   7.691 -0.0205  0.1025  0.2097
94225W        W37278  19.525  23.926   8.594 -0.0229 -0.1268  0.1644
94226W        W37279  17.849  20.001   4.768  0.0652  0.1498 -0.1721
94227W        W37280   2.426  23.559  18.571 -0.1604 -0.1413  0.1560
94228W        W37281   8.547  25.304   4.715  0.3211  0.0794  0.1677
94229W        W37282  21.854   4.858  23.277  0.3281  0.0791  0.2134
94230W        W37283   5.975  19.275   4.684  0.3579 -0.0384  0.1399
94231W        W37284   5.044  22.508  16.059 -0.0795  0.2806  0.1075
94232W        W37285  15.735   0.455   8.958 -0.1789  0.3517 -0.1034
94233W        W37286  20.544  28.106  22.210 -0.1300 -0.0851 -0.3734
94234W        W37287   4.852   4.840   1.220  0.0255  0.2597  0.1106
94235W        W37288  25.968  30.493  25.330 -0.1291 -0.4015 -0.0754
94236W        W37289  16.555  22.192   5.442  0.0129  0.0364  0.2432
94237W        W37290  16.354  29.226  10.318 -0.0751  0.2456  0.2453
94238W        W37291  12.640   0.152  27.474 -0.2154  0.0489  0.2619
94239W        W37292   4.446  19.352   2.185  0.0531  0.1521  0.0546
94240W        W37293  16.017  25.895  10.909 -0.1170  0.0085 -0.0739
94241W        W37294   5.426  25.555  14.141 -0.0447  0.2159  0.0368
94242W        W37295  14.119  11.791   5.599  0.0966 -0.1423  0.1677
94243W        W37296  25.905  28.644  26.719  0.0113 -0.5393 -0.0427
94244W        W37297  13.224  25.096   6.987 -0.2370  0.0195 -0.1760
94245W        W37298  15.611  12.125  27.687  0.1844  0.3009 -0.1810
94246W        W37299  12.748  23.842   6.147 -0.0217  0.0827  0.0393
94247W        W37300  13.995   9.015  18.469  0.1809  0.0251 -0.3910
94248W        W37301  33.134  18.733  23.149  0.2176 -0.0539  0.1090
94249W        W37302  14.844  30.117  24.004 -0.4838  0.0700 -0.0197
94250W        W37303  22.172  20.065  19.081 -0.2858  0.0303 -0.0276
94251W        W37304  14.319  21.613  22.070 -0.0469 -0.0438  0.2042
94252W        W37305  15.927  33.827  24.835  0.1732  0.3231 -0.1531
94253W        W37306  12.699  23.913   9.101  0.0132  0.0486  0.0634
94254W        W37307  26.846   2.603  27.468 -0.3368 -0.1585  0.0249
94255W        W37308  24.029  30.349  21.612 -0.3949 -0.1938 -0.0996
94256W        W37309  18.429  15.912  27.110  0.0672  0.0781  0.0206
94257W        W37310  28.726  19.311   9.934  0.0103  0.3442 -0.0596
94258W        W37311  26.642  31.810   6.381  0.2249 -0.0322  0.0612
94259W        W37312  18.749  21.159   7.274 -0.1422  0.0333 -0.0907
94260W        W37313  17.591  20.048   2.384  0.0470 -0.0962 -0.1609
94261W        W37314   3.592  20.744  28.629  0.1209  0.0614  0.0563
94262W        W37315   0.610  24.467   6.188 -0.1621  0.0472  0.2047
94263W        W37316   2.462  28.890   3.532 -0.2833 -0.1094 -0.0777
94264W        W37317  34.665  22.616  23.558 -0.0483  0.1330 -0.1521
94265W        W37318  28.669  15.587  16.277 -0.0870 -0.0246 -0.3386
94266W        W37319  13.510  20.752   0.674  0.3049  0.3641  0.2558
94267W        W37320  13.343  32.399  27.746  0.1828 -0.2253  0.1333
94268W        W37321  11.038  33.558  21.164  0.0260 -0.0630 -0.0880
94269W        W37322   9.023  33.822   2.827 -0.0798  0.1476 -0.2353
94270W        W37323  32.009  25.070  16.900 -0.4365  0.1740 -0.0777
94271W        W37324   3.633  27.307  26.039 -0.0677 -0.0553 -0.0004
94272W        W37325  13.023   6.581   8.633  0.1500 -0.3643  0.0427
94273W        W37326  24.534  20.662  21.493  0.0437 -0.0641  0.0884
94274W        W37327  21.645  13.579   2.309 -0.0053 -0.3076  0.3012
94275W        W37328  16.289   1.197   4.346 -0.0313  0.2222  0.1177
94276W        W37329  11.006  19.002   0.514 -0.0317 -0.1147 -0.0325
94277W        W37330  15.233  30.060   4.240 -0.0787 -0.3456  0.2518
94278W        W37331  14.139  21.533   8.264  0.1800  0.1067  0.0989
94279W        W37332   2.020  25.536   6.737  0.0356 -0.1052 -0.1153
94280W        W37333  33.929  32.317   3.461  0.1023 -0.3264 -0.1043
94281W        W37334  20.142  13.315   3.532 -0.0628  0.4692 -0.0924
94282W        W37335   6.164  27.016   3.983  0.0978  0.2362  0.1424
94283W        W37336  21.518  26.893   6.682 -0.0569  0.1526 -0.2214
94284W        W37337  12.507  29.638   9.624 -0.1509 -0.2890 -0.0721
94285W        W37338   7.449  19.003  25.280  0.0533  0.1891 -0.2890
94286W        W37339   0.526  30.608  26.934  0.1794 -0.2063 -0.0771
94287W        W37340  21.218  17.782  29.050  0.0426 -0.0349 -0.2173
94288W        W37341  33.523  27.758   1.368 -0.0458  0.1097 -0.2337
94289W        W37342  11.824   2.824  22.975 -0.1280 -0.2015  0.2705
94290W        W37343  10.855  24.500   6.113 -0.0648  0.3508  0.0423
94291W        W37344  13.314  22.344   9.026 -0.1763 -0.2109  0.2149
94292W        W37345  13.979  11.835  25.217 -0.0816  0.1586  0.0251
94293W        W37346   8.246  15.461  10.390  0.0328  0.0983 -0.2594
94294W        W37347  20.166  22.284   4.299 -0.2117  0.1423  0.3855
94295W        W37348   3.608  19.411  20.041 -0.4512 -0.1481  0.0349
94296W        W37349  15.239  12.515   8.636  0.0451 -0.3249 -0.0980
94297W        W37350  20.199   7.886   2.200 -0.1612 -0.2432  0.0798
94298W        W37351  29.017  27.642   2.700  0.0021  0.0620 -0.0328
94299W        W37352  12.484  29.846  13.376 -0.1062  0.1265  0.5278
94300W        W37353  32.685  19.654   0.491 -0.0096  0.2872 -0.2044
94301W        W37354   3.004  17.014   4.504 -0.1357  0.0748  0.1265
94302W        W37355   9.925  18.697  27.100 -0.1622 -0.1541 -0.1735
94303W        W37356  22.102  29.641  10.182 -0.1310  0.0534 -0.0004
94304W        W37357  13.578  23.934   4.924  0.0464 -0.0579 -0.0181
94305W        W37358  14.359  28.608   8.841  0.3231  0.1154  0.0062
94306W        W37359  12.127  21.467  25.828  0.0408  0.3053 -0.1458
94307W        W37360  30.980  11.027  10.059  0.1430 -0.2401  0.0597
94308W        W37361  22.227  24.266   9.003  0.2599  0.1870  0.0701
94309W        W37362   9.025  27.075   5.067 -0.1093  0.1736 -0.2499
94310W        W37363  34.306  27.657  24.629 -0.0868  0.0961  0.2262
94311W        W37364   2.316   1.449   0.623  0.0720 -0.1809  0.1286
94312W        W37365   3.331  10.542   2.139  0.2229 -0.0891 -0.2814
94313W        W37366  27.736  17.843  26.700 -0.2743  0.0779 -0.0029
94314W        W37367   1.029  31.659   0.280  0.3764  0.3830 -0.1155
94315W        W37368   5.941  18.031  27.180 -0.0027 -0.1898 -0.0149
94316W        W37369  18.795  28.177   3.383 -0.2162 -0.1857  0.4652
94317W        W37370   6.879  19.778   6.679  0.2842 -0.1413 -0.2248
94318W        W37371  32.992  24.097   1.649  0.0701  0.0901  0.2714
94319W        W37372   2.772  19.464   5.134  0.2559  0.1689 -0.1536
94320W        W37373   5.232  29.367   7.429 -0.0370  0.0711 -0.1289
94321W        W37374  23.533  12.739   3.447  0.1128  0.0416  0.0384
94322W        W37375  14.946  28.115   0.533 -0.3569 -0.2990  0.1462
94323W        W37376   7.299  15.464  25.498 -0.0146  0.1613 -0.1914
94324W        W37377  27.503  24.122   9.980  0.2759 -0.1636  0.1500
94325W        W37378  10.616  33.955   8.119 -0.3175 -0.1208  0.3611
94326W        W37379   9.241  24.486   6.886 -0.0152  0.1310  0.2186
94327W        W37380   0.326  34.145   0.166 -0.0402  0.1323  0.1683
94328W        W37381   4.237  22.938   8.450 -0.0309  0.3160 -0.0804
94329W        W37382  17.881  18.490   1.695 -0.0017 -0.0902 -0.4134
94330W        W37383   3.579  26.310   3.743  0.3808  0.0802 -0.0499
94331W        W37384   5.781   0.157   2.619  0.0635  0.3004 -0.4180
94332W        W37385  21.410  16.632   8.022  0.0786 -0.0712 -0.1423
94333W        W37386  32.920  31.522  25.296  0.1395 -0.2620  0.0646
94334W        W37387  32.929   3.132   9.325 -0.1109 -0.3029 -0.1225
94335W        W37388  11.629  14.432   7.658  0.0288 -0.0652  0.0034
94336W        W37389   9.632  19.722   7.877  0.0707 -0.1175 -0.2209
94337W        W37390  26.079  24.379   4.928  0.1274  0.0374 -0.1264
94338W        W37391  15.865  28.847  20.115  0.0662 -0.0427 -0.0356
94339W        W37392   2.577  31.284  24.497  0.0262 -0.2479 -0.1292
94340W        W37393  19.435  22.030   5.068 -0.0801  0.1466 -0.0342
94341W        W37394  21.537  24.028  24.834 -0.1857 -0.3933 -0.1209
94342W        W37395   3.369  14.660  21.499  0.3435 -0.0270  0.0310
94343W        W37396  20.697   2.953   8.885  0.0499 -0.0006 -0.1355
94344W        W37397   8.463  18.980  27.777 -0.1794 -0.1360  0.1700
94345W        W37398   6.737  19.685  10.041  0.0135 -0.0441 -0.1583
94346W        W37399  14.404   8.740   8.542 -0.2752  0.0892  0.0047
94347W        W37400   2.351  33.261   9.491 -0.2494  0.0025  0.0787
94348W        W37401  13.311  26.737   9.246  0.2202  0.2134  0.3652
94349W        W37402   8.034  29.049  25.957 -0.0693 -0.1846  0.3237
94350W        W37403   8.340  28.395   4.470  0.0441  0.0142  0.0323
94351W        W37404  12.091   6.208  10.051  0.2246 -0.0745 -0.0989
94352W        W37405  32.769  15.453   2.296  0.0990  0.2528  0.0593
94353W        W37406  17.093  26.691   0.844  0.1711 -0.0062  0.1092
94354W        W37407  32.142  17.654  16.833  0.0975  0.1428 -0.2792
94355W        W37408  18.658  23.064  27.402 -0.1716  0.0068 -0.0828
94356W        W37409   7.765  17.566  29.084 -0.0241 -0.1770  0.1420
94357W        W37410  13.313  19.159   9.642  0.1731  0.0720  0.1302
94358W        W37411  24.759  23.722  14.517 -0.4232 -0.0061 -0.2103
94359W        W37412  17.975  27.422  20.729  0.3410 -0.0179 -0.0869
94360W        W37413  11.750   6.500   0.420 -0.1659 -0.3518  0.0221
94361W        W37414  13.092  27.203  23.416 -0.0967  0.3482 -0.0397
94362W        W37415  18.057  10.238  25.270  0.0064  0.1939 -0.0497
94363W        W37416  18.636  24.450  27.937  0.2382  0.2296 -0.1849
94364W        W37417  23.991   9.753   5.051  0.0646  0.4055 -0.1379
94365W        W37418   2.024  27.927   9.722  0.0057  0.1027  0.1857
94366W        W37419   9.579  20.238  16.423 -0.2562  0.3251 -0.0049
94367W        W37420  32.760   3.579   8.824 -0.0189 -0.7344  0.0685
94368W        W37421   5.990  21.136   2.895 -0.0120 -0.2056  0.2026
94369W        W37422   8.023   9.557   1.957 -0.0611 -0.1942  0.0527
94370W        W37423   1.054  31.502  25.887 -0.1836  0.1050  0.0624
94371W        W37424  12.616  27.043   6.466  0.0789  0.0622 -0.1808
94372W        W37425  15.430   2.355   8.000  0.0331 -0.1495  0.2119
94373W        W37426  14.265  28.363   4.660 -0.0153  0.2131  0.0617
94374W        W37427  33.858  23.069   3.090 -0.0157  0.2950  0.0643
94375W        W37428  10.991   7.949  28.784  0.1286  0.1731 -0.1866
94376W        W37429  13.399  18.221   2.021 -0.0747  0.1900 -0.0061
94377W        W37430   5.037  32.788   7.185  0.1412  0.2098  0.1033
94378W        W37431  28.451  25.645  28.124  0.1361  0.2124 -0.0809
94379W        W37432  17.239  30.144   6.836 -0.2556 -0.1008  0.1561
94380W        W37433   3.534  32.877   5.663  0.1535  0.2425 -0.0373
94381W        W37434   2.793  29.496   2.562 -0.0209  0.0035 -0.3247
94382W        W37435   0.664  14.062   7.241  0.0044 -0.0888  0.0277
94383W        W37436  30.545  19.484   8.834 -0.0917 -0.2734 -0.2145
94384W        W37437  22.353  24.444   5.553  0.2077  0.2144  0.1650
94385W        W37438   4.790  26.363   8.064  0.1687 -0.5181 -0.0737
94386W        W37439  16.114  26.542  29.143  0.1105  0.0035 -0.0189
94387W        W37440  22.406   7.682   5.614 -0.0046  0.0797 -0.3170
94388W        W37441  10.399  19.402   2.581 -0.3279  0.0232  0.3377
94389W        W37442   9.350  13.192   0.774  0.4407 -0.0335  0.2318
94390W        W37443  17.556  25.674   9.287  0.0513 -0.0704 -0.0976
94391W        W37444   6.572   9.590   1.846 -0.3034  0.0846 -0.0737
94392W        W37445  10.158  26.154   0.565  0.1390  0.0483  0.0504
94393W        W37446  16.939  21.802   5.337 -0.1871 -0.1531 -0.0900
94394W        W37447  10.421  18.612  10.146  0.5200  0.2185 -0.0687
94395W        W37448   8.510  21.569   4.977  0.3303 -0.1502  0.0195
94396W        W37449  28.111  32.800  23.620  0.0362 -0.3048  0.1565
94397W        W37450  21.154  31.628  27.943 -0.4068 -0.0662 -0.0837
94398W        W37451   3.543  32.975   3.004  0.2071 -0.3325  0.1493
94399W        W37452  34.636  28.276   3.276 -0.0665 -0.2369  0.0093
94400W        W37453   4.982  26.939  26.643 -0.1223  0.0544  0.0240
94401W        W37454  20.044   2.634   8.054 -0.1067  0.0191 -0.1729
94402W        W37455  28.465   7.595  23.359 -0.1343 -0.4190 -0.1026
94403W        W37456   9.436  13.449   2.583  0.0248 -0.0112  0.2032
94404W        W37457  19.857   8.731  22.817  0.0255 -0.0953 -0.1089
94405W        W37458  20.173  20.337  28.304  0.5410  0.2348  0.0207
94406W        W37459  10.906  32.656   0.915  0.0223  0.2301 -0.0268
94407W        W37460  31.479  21.141   9.354  0.1161  0.0716  0.0412
94408W        W37461   9.692  13.764  16.056  0.0532  0.4763  0.1137
94409W        W37462  22.880  18.844   5.001  0.2659 -0.0891  0.2116
94410W        W37463  17.806  20.817  15.250 -0.3109  0.1313  0.2382
94411W        W37464  12.388  13.944   3.792 -0.0506  0.0221 -0.0483
94412W        W37465  20.798   7.047  14.904  0.0595 -0.0471  0.0148
94413W        W37466  24.141  23.168   5.206 -0.0516 -0.3100  0.1093
94414W        W37467  29.812  21.454   7.658 -0.1912  0.0338  0.2384
94415W        W37468  21.189  24.116  26.827  0.2255 -0.0236 -0.0784
94416W        W37469   8.980  21.502  25.833  0.1570  0.0812  0.0226
94417W        W37470  10.564   8.952  26.535 -0.4029  0.0337  0.1172
94418W        W37471   9.641  21.581   8.540 -0.0036 -0.0866  0.1108
94419W        W37472  16.466   6.843  10.910 -0.1677  0.0613 -0.0124
94420W        W37473  25.107  11.820   9.618  0.0274 -0.2990 -0.2012
94421W        W37474  21.248  14.543  26.890 -0.2877  0.1425  0.3525
94422W        W37475  33.038  30.000   2.628 -0.1632 -0.0968 -0.1455
94423W        W37476   3.084  32.961  26.398 -0.2341 -0.0010  0.1262
94424W        W37477   9.169  22.153  18.586  0.0975 -0.0456 -0.1241
94425W        W37478  19.076  23.406  24.199  0.1372 -0.3254  0.2026
94426W        W37479   1.600  23.303  14.602 -0.1463  0.2421 -0.2703
94427W        W37480   3.854  18.249   5.675 -0.1369 -0.3720 -0.0578
94428W        W37481   4.471  27.533   6.478 -0.1268  0.2472  0.1006
94429W        W37482  23.718  12.338   0.300  0.0360 -0.0801 -0.3558
94430W        W37483  15.907  15.407  24.195 -0.1353 -0.0748  0.1131
94431W        W37484  26.573  28.565  21.806 -0.0724 -0.2028 -0.3253
94432W        W37485  24.145  17.364   0.322 -0.0611  0.0090  0.1028
94433W        W37486  14.421  19.530   8.524 -0.0293 -0.2176  0.2865
94434W        W37487  12.632  11.989  27.440 -0.2513 -0.1020 -0.1592
94435W        W37488   4.843   5.888  20.679  0.0549 -0.2041  0.2046
94436W        W37489   2.183  32.904   3.529  0.0997 -0.0912  0.0793
94437W        W37490  16.462  25.726   3.542  0.0315  0.1245  0.0019
94438W        W37491  18.462  25.994   2.634 -0.3434 -0.1003 -0.0143
94439W        W37492  25.835  18.270   2.635  0.0133  0.0840  0.0430
94440W        W37493  15.022  25.026  10.104  0.0208 -0.1620 -0.0109
94441W        W37494  25.556  29.189   2.746  0.1594 -0.1373 -0.0983
94442W        W37495   0.568  33.414   4.147 -0.0570 -0.1165  0.0491
94443W        W37496   8.469  16.758   8.822  0.0285  0.2943 -0.0383
94444W        W37497   1.779   7.038   7.074 -0.1693  0.2429  0.2324
94445W        W37498   1.659  23.597   5.924 -0.4549  0.1369  0.2007
94446W        W37499  26.102  32.512   4.565 -0.2121  0.0805  0.3374
94447W        W37500  30.123  22.358  28.489 -0.0724 -0.1470 -0.2816
94448W        W37501  15.686  26.313   7.237 -0.5547 -0.0333  0.3386
94449W        W37502   6.144  22.713  28.588 -0.1189 -0.1722  0.0233
94450W        W37503  30.383  14.016   7.788  0.1292 -0.0641 -0.2881
94451W        W37504   9.752  24.587   9.192  0.0054  0.0187 -0.2530
94452W        W37505  33.981  14.502  27.268 -0.5427 -0.2544  0.0313
94453W        W37506   3.747  17.159  23.275  0.0274 -0.3384  0.1309
94454W        W37507  33.951  19.141   3.595 -0.0165  0.2591  0.2851
94455W        W37508   7.177  18.463   7.762  0.0068 -0.4245 -0.0876
94456W        W37509   2.225  24.625   0.835  0.0273 -0.3032 -0.0528
94457W        W37510  20.158  19.343   0.880  0.0750  0.1139 -0.2244
94458W        W37511  31.108  27.056  25.583 -0.0383 -0.1370 -0.1511
94459W        W37512  33.105  19.194  18.529  0.1600 -0.1026  0.1787
94460W        W37513  19.198  19.751   0.765 -0.1122 -0.0174 -0.4062
94461W        W37514   4.924  17.642   3.556 -0.0790  0.3478 -0.1200
94462W        W37515  17.285   6.863   9.558  0.0263  0.0749 -0.2229
94463W        W37516  11.898  15.314   8.106  0.3896 -0.1225  0.1384
94464W        W37517  24.646  28.907  10.447 -0.2859 -0.1891 -0.0514
94465W        W37518  15.883  29.712   7.192 -0.1559  0.2267  0.0405
94466W        W37519   8.348   2.302   0.484 -0.1340 -0.1657 -0.3663
94467W        W37520   7.614  25.185  24.887 -0.0680  0.1051 -0.4130
94468W        W37521   9.468  21.213  15.310 -0.2148  0.1056  0.4051
94469W        W37522  14.444  24.178   6.457  0.1299  0.1038  0.0286
94470W        W37523   8.527   9.906   6.188 -0.1597 -0.1957 -0.2203
94471W        W37524   6.973  19.578   4.342  0.1919 -0.1788 -0.0970
94472W        W37525  25.043  24.966   8.942  0.2121 -0.0156 -0.3030
94473W        W37526  14.894  17.087  25.263  0.1253  0.1652  0.2682
94474W        W37527   6.856  22.522   8.722  0.0981  0.1682  0.1367
94475W        W37528  32.180  23.119   1.999 -0.4195  0.3261 -0.0369
94476W        W37529  34.236  20.743   0.023 -0.0114 -0.0321 -0.1213
94477W        W37530  24.476   6.980   3.701  0.0683  0.2357  0.3289
94478W        W37531  12.131  14.977   8.388  0.4112 -0.1233 -0.1688
94479W        W37532   4.371  27.929  28.889  0.1866 -0.0118 -0.1873
94480W        W37533  24.930   2.327  18.420 -0.2532 -0.0399  0.1486
94481W        W37534  12.384  31.198  27.452 -0.5194  0.1726  0.1241
94482W        W37535  12.703  21.831   5.448  0.0506 -0.0267  0.2552
94483W        W37536   7.805  32.993   5.150  0.1316 -0.3204 -0.1041
94484W        W37537  13.233  32.038  15.040 -0.0971 -0.1029  0.0045
94485W        W37538  16.845  21.083   0.265  0.1158 -0.3709 -0.2151
94486W        W37539  31.773  19.773   9.202 -0.2945 -0.0509 -0.1234
94487W        W37540   4.385  19.274   3.556  0.0877  0.3725 -0.0669
94488W        W37541  19.193  26.492  20.022 -0.1405 -0.0465  0.0859
94489W        W37542   7.256  18.823   0.212  0.1211 -0.0240  0.0362
94490W        W37543  29.773   2.884   4.161 -0.1747  0.1164 -0.1656
94491W        W37544   6.514  16.801  26.696 -0.0811 -0.2360  0.1305
94492W        W37545  18.074  19.474  13.492 -0.0957 -0.0111  0.2411
94493W        W37546  19.077  30.461   8.089 -0.2069  0.2260 -0.2770
94494W        W37547  31.055  12.541   4.094  0.0726 -0.0517 -0.0480
94495W        W37548  10.314  11.781   3.666  0.0982  0.1524 -0.0411
94496W        W37549  29.560  26.460   4.793  0.1724  0.1139 -0.0536
94497W        W37550   4.584  23.078  28.761 -0.1622  0.0440  0.2386
94498W        W37551   3.995  34.646   2.252  0.2014  0.1026 -0.2243
94499W        W37552   2.840  14.699  25.579  0.1817  0.2375 -0.1834
94500W        W37553  30.237  16.004  28.517 -0.4864 -0.2689 -0.0440
94501W        W37554  20.522  32.928  17.259 -0.1492  0.1520  0.0561
94502W        W37555   7.879  17.699  28.570  0.1199  0.3545 -0.0954
94503W        W37556   8.426   5.155   8.783 -0.0227 -0.0249 -0.0937
94504W        W37557   6.799   1.208  19.636  0.1341  0.0208 -0.1339
94505W        W37558  29.921  18.623  25.697  0.0311 -0.1267  0.0890
94506W        W37559   6.451  24.815   5.864  0.0014 -0.0241  0.0042
94507W        W37560  13.280  26.407   3.308  0.0269 -0.3952 -0.1833
94508W        W37561  11.424   2.126   8.465  0.3366  0.2219  0.1003
94509W        W37562  15.367  19.796   5.775  0.0694  0.1674 -0.2811
94510W        W37563   7.173  23.373   5.286 -0.0145 -0.0550 -0.2413
94511W        W37564   9.566  28.522   3.040 -0.2761 -0.4212  0.1655
94512W        W37565  18.040  23.573   7.673  0.2025 -0.1522  0.1500
94513W        W37566  13.241  10.972   1.600 -0.1437  0.1502 -0.2702
94514W        W37567  19.949  24.998  28.755 -0.3935  0.0434  0.0558
94515W        W37568   0.030  15.599   5.265 -0.1450  0.0768  0.0237
94516W        W37569  20.297  19.397   6.479  0.2680  0.1288 -0.1428
94517W        W37570  14.661   6.572  10.402  0.4097 -0.4301 -0.1210
94518W        W37571  15.368  25.296  28.190  0.0134  0.3180 -0.2415
94519W        W37572  19.357  26.303  24.556 -0.2114 -0.1684 -0.1642
94520W        W37573  30.907  19.545   4.325 -0.0459 -0.2365  0.1973
94521W        W37574   6.763  24.713  25.266  0.0511 -0.0725  0.0226
94522W        W37575  15.636  26.934   1.988 -0.1663  0.1850  0.1063
94523W        W37576  13.168  17.555  27.372  0.1847  0.1653 -0.0372
94524W        W37577   7.906   4.010  17.588  0.0341 -0.0332 -0.2033
94525W        W37578  16.722   1.883  20.935  0.0903 -0.1469  0.0978
94526W        W37579  21.876   9.706   2.996  0.0626 -0.3003 -0.2242
94527W        W37580   7.511  24.003   6.588  0.1382  0.2262 -0.3454
94528W        W37581  19.381  27.754   2.934  0.2159 -0.1335 -0.3441
94529W        W37582   5.483   3.730  28.361  0.0421 -0.0218 -0.2290
94530W        W37583  15.680  32.894   3.573 -0.0149 -0.0344  0.0839
94531W        W37584  14.499  20.452  27.789  0.2439  0.0534  0.0157
94532W        W37585   7.754  23.441   4.214  0.0921 -0.3923 -0.0933
94533W        W37586  18.517  26.444   4.653 -0.1774 -0.0238 -0.0550
94534W        W37587  28.165  23.606   3.876 -0.0662 -0.1972  0.0314
94535W        W37588  22.596  30.446   8.623 -0.4645 -0.1792 -0.2425
94536W        W37589  13.541   4.933  24.775 -0.1404  0.0548  0.3218
94537W        W37590  30.689  18.299  19.745  0.3776  0.2825 -0.1422
94538W        W37591   1.221  18.841   8.876  0.1370  0.0415 -0.2921
94539W        W37592   0.657  20.825   6.082 -0.1725 -0.0286 -0.0796
94540W        W37593   1.569   3.004  28.704  0.1437  0.2769  0.0448
94541W        W37594  11.177  27.157  26.588 -0.1756  0.1055 -0.1661
94542W        W37595  18.566  22.097  16.917  0.0220 -0.0444 -0.2403
94543W        W37596  13.656  16.801   4.074  0.0084  0.1306  0.2040
94544W        W37597   7.956  27.290   2.098 -0.0775 -0.0392  0.1681
94545W        W37598  18.080  24.668   3.782  0.0506  0.1261 -0.0047
94546W        W37599   6.696  26.102   8.938  0.3227 -0.1676  0.1186
94547W        W37600   0.467  33.548  16.243 -0.2468  0.3561 -0.1717
94548W        W37601  12.903  27.678   9.030 -0.3237 -0.2912 -0.0911
94549W        W37602  15.723  31.359   4.336 -0.4556  0.3269  0.1485
94550W        W37603  16.577  16.120   1.220 -0.2266  0.1657  0.2236
94551W        W37604  17.404  20.516  22.081  0.2989 -0.1446  0.0091
94552W        W37605   8.855  24.844  16.837 -0.1183 -0.3314 -0.0343
94553W        W37606   2.819  22.599   9.496  0.0721 -0.0126 -0.3309
94554W        W37607  12.317  30.342   3.032 -0.1935 -0.0611  0.3638
94555W        W37608   8.568  23.966   3.687  0.0147  0.1599 -0.1653
94556W        W37609  13.755  21.729   7.057 -0.0701 -0.3648  0.1910
94557W        W37610  14.504  14.076   3.682 -0.2110 -0.2250  0.1061
94558W        W37611   3.735  26.318  27.907 -0.1508 -0.2026  0.0215
94559W        W37612  16.280  17.025   1.103  0.2148  0.0373  0.0539
94560W        W37613   3.288  23.034   8.831 -0.2668 -0.0920  0.0785
94561W        W37614   6.363  22.721   3.988  0.3486 -0.0357 -0.0608
94562W        W37615  32.743  24.447   7.186  0.1925 -0.1039 -0.1824
94563W        W37616   2.013  14.949   4.940 -0.3692 -0.2617  0.0749
94564W        W37617  11.453  12.258  26.438  0.0773  0.1630  0.0131
94565W        W37618  28.052  20.812  24.668  0.0965 -0.1350  0.2806
94566W        W37619  14.344  25.487   1.727  0.2514 -0.0893 -0.0152
94567W        W37620  13.250  18.321   3.529 -0.0879  0.1080 -0.0448
94568W        W37621  26.647  33.900  28.139  0.0480 -0.1507 -0.1920
94569W        W37622  33.019  12.309  29.182  0.2527  0.1666 -0.0108
94570W        W37623   4.601  24.166  13.362 -0.0413  0.0952 -0.0143
94571W        W37624  32.176  26.607   0.448 -0.3158  0.0003  0.3943
94572W        W37625  16.437  21.310   5.772 -0.2377 -0.3202 -0.1770
94573W        W37626  31.533  23.615   8.834  0.0421  0.2686  0.1320
94574W        W37627   1.859  23.395  25.626  0.0192 -0.0278 -0.0233
94575W        W37628   1.853  34.198  27.480  0.0726 -0.0612  0.1892
94576W        W37629   0.117  17.572   7.599 -0.0266  0.0579 -0.1128
94577W        W37630  22.085  21.951  27.894 -0.1787  0.1037  0.0768
94578W        W37631   9.274  17.221   1.391 -0.3873 -0.1523  0.0523
94579W        W37632  23.157  20.869   3.240 -0.0514 -0.1436 -0.2040
94580W        W37633   0.358  23.051  26.213  0.0856  0.0159 -0.2791
94581W        W37634  21.852  24.946   3.926  0.0313 -0.0181  0.2087
94582W        W37635  18.153  21.713  23.387  0.0439  0.0968  0.2194
94583W        W37636  19.744  15.692  13.676 -0.0765 -0.0157 -0.4080
94584W        W37637  15.625  18.106  26.170 -0.1421 -0.0359  0.1250
94585W        W37638  20.379   1.111  28.994 -0.2009  0.2762  0.0110
94586W        W37639  11.695  19.206   4.719  0.3201  0.0769  0.4120
94587W        W37640  17.409   1.488   9.613 -0.0063 -0.1624 -0.2197
94588W        W37641  12.601  11.305   6.441  0.0396 -0.1532  0.4404
94589W        W37642  22.943  18.483   7.681  0.2242  0.0679 -0.0075
94590W        W37643  14.224  10.861  21.803  0.0405  0.2926  0.0116
94591W        W37644  12.114  19.545  20.423  0.0009  0.0647 -0.2828
94592W        W37645   2.218  17.739   7.585  0.2510 -0.0964 -0.2415
94593W        W37646  13.645   5.344   7.068  0.1616  0.1471  0.0717
94594W        W37647  11.374  27.872   0.790 -0.1922  0.0339 -0.4199
94595W        W37648   2.607  25.540   8.021 -0.2101  0.1538  0.2265
94596W        W37649   9.979  12.877   3.127 -0.0069 -0.2121  0.0377
94597W        W37650   8.950  17.814   8.918 -0.1741 -0.1377 -0.0494
94598W        W37651  33.534  32.375   3.870 -0.1830  0.2241 -0.2074
94599W        W37652  24.095   0.833   3.835  0.2982 -0.0292  0.1094
94600W        W37653  21.735  22.898   7.865 -0.3967 -0.4208  0.3101
94601W        W37654  24.044   3.019   1.124 -0.1904  0.0297 -0.5028
94602W        W37655   7.799  29.347  20.917  0.2087 -0.1874 -0.2712
94603W        W37656   0.680   9.253   1.816 -0.2682  0.1034 -0.0427
94604W        W37657  15.980   7.372   2.924  0.2272  0.4692  0.0450
94605W        W37658   3.655  23.206   4.331 -0.0390  0.1204  0.0653
94606W        W37659   6.513  19.580   1.957 -0.0470  0.2878 -0.0698
94607W        W37660  10.895  17.424   5.977  0.0010 -0.1677  0.0408
94608W        W37661  18.142  13.415   1.398 -0.0457  0.2236  0.1602
94609W        W37662   8.733  15.119   2.929  0.1685  0.1024  0.0624
94610W        W37663   8.776   4.626  25.147  0.1017  0.2251  0.1795
94611W        W37664   2.048  26.267   0.829  0.2801  0.2757 -0.2498
94612W        W37665  20.040   0.349  28.626 -0.1791 -0.0170  0.0866
94613W        W37666  16.066   4.706   5.768 -0.1755 -0.0770  0.0552
94614W        W37667   7.976  33.935   7.835  0.2344 -0.2510  0.0800
94615W        W37668   3.928   9.686  18.339  0.1317  0.3683  0.0388
94616W        W37669  10.815  13.011  26.686 -0.3015 -0.1412  0.0223
94617W        W37670  14.366  34.425  17.753  0.0906 -0.0168 -0.0412
94618W        W37671  15.133  26.703   8.645 -0.0736  0.2333  0.0850
94619W        W37672  15.889   6.055   6.167  0.1193 -0.1308  0.0287
94620W        W37673  21.287   1.308  28.029 -0.0782 -0.0425 -0.2066
94621W        W37674  33.974  15.713   8.091 -0.0313  0.2811  0.0413
94622W        W37675   6.145   5.875   1.130 -0.1105  0.2025  0.1142
94623W        W37676   5.421  29.402   3.865 -0.1714 -0.1789  0.0549
94624W        W37677  20.500  28.204   2.289  0.1000 -0.0057  0.1536
94625W        W37678  27.992  31.559  21.159 -0.2312  0.0704 -0.3746
94626W        W37679  25.835   1.595   8.312 -0.1018  0.1030 -0.3251
94627W        W37680  15.728  27.143   5.596 -0.2351 -0.2049 -0.2061
94628W        W37681  21.600  31.525   1.405  0.0659  0.1520 -0.1252
94629W        W37682   9.667  23.830   6.189  0.0880 -0.2001 -0.1627
94630W        W37683  19.869   5.017   5.103 -0.0685  0.0558  0.1542
94631W        W37684   8.434  16.643   5.577 -0.2018  0.0256 -0.0671
94632W        W37685  12.370  26.083   2.124 -0.1875  0.0947 -0.4176
94633W        W37686  33.334  18.061  27.065  0.0451  0.2466 -0.0138
94634W        W37687   8.721  17.095   3.437 -0.0921 -0.1613  0.2963
94635W        W37688  27.570  27.619   5.350 -0.0998 -0.2508  0.0262
94636W        W37689  15.680  12.063   5.118  0.2437  0.1083 -0.3983
94637W        W37690  33.878  28.211  18.370 -0.1156  0.4227 -0.2542
94638W        W37691  21.561  15.394   9.953  0.0990 -0.0013 -0.0492
94639W        W37692  13.348  27.250  22.833  0.0883 -0.2736  0.0160
94640W        W37693  29.232  25.724   9.466 -0.2140  0.0287  0.2128
94641W        W37694  13.828   8.141  26.411  0.0471 -0.1363  0.2727
94642W        W37695  13.564   8.888   9.050 -0.1746  0.0284  0.1487
94643W        W37696  16.198   1.543  26.340 -0.0307 -0.0070 -0.0171
94644W        W37697  25.585   6.168  26.685  0.0820  0.2243  0.3065
94645W        W37698  20.499  10.946  25.809  0.0794 -0.0967  0.1042
94646W        W37699   8.858  16.812  26.230  0.3355 -0.0352 -0.1911
94647W        W37700   0.061  27.113   6.414 -0.0491 -0.1273 -0.0640
94648W        W37701  19.254  11.087   4.396 -0.1588 -0.2611  0.2852
94649W        W37702   9.834  13.549   4.706  0.1160 -0.0668 -0.0539
94650W        W37703  26.882  30.790  24.096  0.1638  0.0828 -0.1621
94651W        W37704   3.195  12.713   2.113 -0.0720  0.1476  0.1755
94652W        W37705   8.752  25.744   7.549  0.2834 -0.0976  0.1305
94653W        W37706   2.956  16.442   5.293  0.1545 -0.0670  0.5150
94654W        W37707   2.032  21.349   2.874  0.0069 -0.0899  0.2240
94655W        W37708  33.021  23.508   6.368  0.1359  0.1064 -0.1028
94656W        W37709  17.457  14.506  23.902 -0.1808  0.0379 -0.1895
94657W        W37710  20.318   3.871   7.544 -0.1675  0.4574 -0.2120
94658W        W37711  16.109  24.344   8.241  0.0393 -0.0255 -0.1842
94659W        W37712  27.569  32.069   0.200  0.2260  0.2010 -0.1423
94660W        W37713  16.110  15.443   0.686  0.1492 -0.0027 -0.2314
94661W        W37714   9.436   1.035   3.623  0.1270  0.0538 -0.0838
94662W        W37715  10.959  14.175  20.768 -0.1068  0.4688  0.4297
94663W        W37716  22.602  19.113   7.092 -0.1636  0.1655 -0.0299
94664W        W37717  19.701   4.662   9.484 -0.1366  0.1079 -0.1112
94665W        W37718  26.556  13.835   6.941  0.4685 -0.1661 -0.1785
94666W        W37719  23.552   9.250  18.714 -0.0992  0.0835  0.1390
94667W        W37720   6.061  28.505   5.035 -0.0063  0.3239 -0.2917
94668W        W37721  20.347  19.054  28.410  0.0518  0.0266  0.2439
94669W        W37722   7.503   0.809   8.786  0.0780 -0.1001 -0.0840
94670W        W37723  16.566  21.551   4.345 -0.1317  0.2106  0.0230
94671W        W37724  19.800  27.326   0.960 -0.1082  0.0849  0.1770
94672W        W37725  16.624   4.567   5.889 -0.1271  0.0131  0.1237
94673W        W37726  12.770  17.744   8.884 -0.3140 -0.1933  0.0462
94674W        W37727  20.426   3.169   2.032 -0.1865  0.0170  0.1935
94675W        W37728  17.442  17.104  15.215 -0.4391 -0.1449  0.3970
94676W        W37729   7.365  17.557  28.170  0.2406  0.1471  0.1479
94677W        W37730  20.052   2.154  17.827  0.2464 -0.1160  0.4032
94678W        W37731  25.995   5.378   2.699  0.1263 -0.2417 -0.0219
94679W        W37732   0.712   9.830   5.626  0.0496  0.0877 -0.2487
94680W        W37733  30.020  29.283  26.773 -0.2378  0.0685 -0.0187
94681W        W37734   2.642  34.417   9.168  0.1617 -0.3087 -0.1307
94682W        W37735   6.062   5.915  23.756  0.0416  0.1379  0.0710
94683W        W37736  14.791  22.564   4.491 -0.1085 -0.1667  0.5177
94684W        W37737   3.182  22.402  27.815 -0.0322 -0.1708 -0.3213
94685W        W37738   2.895  33.481  25.609  0.1383 -0.1690 -0.0501
94686W        W37739   7.008  26.430  25.162 -0.0222  0.0757 -0.0684
94687W        W37740  17.920   2.900  25.246  0.0713 -0.1294  0.4111
94688W        W37741  11.341  17.653  13.854 -0.1928 -0.3164  0.2195
94689W        W37742   6.270  18.156   5.094  0.2415 -0.2628  0.1194
94690W        W37743  21.024  21.326  27.415 -0.0345  0.2199 -0.0799
94691W        W37744  16.833  25.291   2.228  0.2015 -0.0906 -0.4475
94692W        W37745  32.467  25.279   2.916  0.0408 -0.1689  0.2276
94693W        W37746   3.064  14.624   0.716 -0.0898 -0.1650 -0.0227
94694W        W37747  17.267  21.312   8.569 -0.1627  0.0581 -0.0580
94695W        W37748   9.639  19.762  17.425 -0.0228  0.0851 -0.1575
94696W        W37749   9.286  20.187   6.604  0.1942 -0.1482 -0.0921
94697W        W37750   3.379  33.853   1.719  0.0828  0.2625 -0.0782
94698W        W37751  26.761  20.224   0.448  0.1351  0.2885 -0.1303
94699W        W37752   0.532  27.855  26.238  0.1237 -0.2169 -0.0954
94700W        W37753  34.451  21.539   6.639  0.2683  0.2134  0.0157
94701W        W37754  11.667  25.332   3.960  0.1099 -0.3557 -0.1786
94702W        W37755  12.649  27.557  19.627 -0.0082  0.0946  0.1394
94703W        W37756  33.001  17.537   4.715 -0.1412  0.2175  0.1735
94704W        W37757  29.811  23.020  18.386 -0.0508 -0.1170 -0.2123
94705W        W37758   3.196  18.010   2.925  0.4312  0.2061 -0.2776
94706W        W37759  34.462  18.848   5.929 -0.2130  0.2104  0.1479
94707W        W37760  16.155  16.972  25.706 -0.2268  0.1665  0.3125
94708W        W37761  13.083  10.652   2.949 -0.2192 -0.0068 -0.0285
94709W        W37762  12.341  14.585   8.191  0.0383  0.2462  0.0469
94710W        W37763  13.031  11.970   4.709 -0.2678  0.0185  0.1915
94711W        W37764  34.344  18.553   5.493  0.0868  0.0599  0.1387
94712W        W37765   1.677  24.012   0.799 -0.2777 -0.0657  0.0054
94713W        W37766  30.833  16.471  26.814  0.0413  0.0234  0.0952
94714W        W37767   2.977  31.572  28.610  0.1195  0.1382  0.2036
94715W        W37768  16.326  12.050  19.794 -0.2054 -0.1263 -0.2718
94716W        W37769  32.549  26.406  29.165 -0.0290 -0.0012  0.1031
94717W        W37770  29.167  33.775   4.190  0.0141 -0.0557 -0.3872
94718W        W37771  14.169  14.394  27.883  0.1078 -0.0644 -0.3813
94719W        W37772   8.265  19.258   8.522  0.0348  0.1731 -0.0652
94720W        W37773   2.425  24.789  27.997 -0.1159 -0.0474 -0.3459
94721W        W37774   7.640  22.906  28.740 -0.0193 -0.0307 -0.0704
94722W        W37775  23.354  14.945  28.390 -0.2887  0.4340  0.0810
94723W        W37776   8.562  20.849   3.572  0.3674  0.2694 -0.2088
94724W        W37777  16.434  22.554   2.569 -0.2997 -0.2541  0.0429
94725W        W37778   7.975   9.757   2.417  0.0033  0.0626 -0.2358
94726W        W37779  10.805  30.192  25.416  0.1520  0.2043 -0.0515
94727W        W37780   6.891  30.572  24.463  0.0118 -0.0432  0.2011
94728W        W37781  19.730  25.823   7.694 -0.0216 -0.0113  0.1121
94729W        W37782   1.283  32.221   5.683  0.1501 -0.4121  0.1128
94730W        W37783  24.345  15.820   7.539  0.1157  0.0644 -0.0310
94731W        W37784   7.503  30.321  22.858  0.0157  0.0389 -0.4037
94732W        W37785  12.156  30.270  23.937  0.0564 -0.0581  0.3170
94733W        W37786  13.767  26.637   4.454 -0.1313  0.1324  0.0073
94734W        W37787  32.281  16.558  25.386  0.1400 -0.2765  0.0225
94735W        W37788  33.128  31.173   7.868  0.1743 -0.2946 -0.1840
94736W        W37789  32.364  24.712   7.443  0.0053  0.2329  0.0408
94737W        W37790  14.670  22.207  25.921  0.1690  0.4983 -0.0258
94738W        W37791  18.617   7.226  28.434 -0.1930  0.1983 -0.0142
94739W        W37792  11.059  19.256   7.766 -0.1462  0.4401 -0.0720
94740W        W37793   9.948  16.753   1.294  0.0017 -0.2026  0.1122
94741W        W37794   1.860  31.635   5.482 -0.0558 -0.0117 -0.1400
94742W        W37795  14.154  34.494   7.615 -0.1984 -0.2575  0.0451
94743W        W37796   1.892  17.455   8.477  0.2214 -0.0748 -0.0329
94744W        W37797   3.211  14.792   8.875  0.0748 -0.1732 -0.2072
94745W        W37798  25.872  29.659   5.230  0.1541  0.2197 -0.1194
94746W        W37799   2.314  31.698   6.188  0.0921  0.2776 -0.0697
94747W        W37800  14.168   7.892  27.366 -0.0856  0.2001  0.0004
94748W        W37801  10.094  19.131   3.119 -0.1902  0.1538 -0.1946
94749W        W37802  23.249  26.222   5.027 -0.1377  0.1987  0.0444
94750W        W37803  15.042  30.440   4.382  0.2923 -0.1230 -0.3886
94751W        W37804   7.929  29.096  23.453 -0.1290  0.0106 -0.3726
94752W        W37805   5.127  15.002  20.302  0.0628  0.0016 -0.2954
94753W        W37806   7.808  12.914  26.860 -0.1569  0.0506 -0.0037
94754W        W37807  16.334  16.283   7.973  0.1072  0.1782 -0.1463
94755W        W37808   6.984  17.321   0.935  0.1204 -0.0359 -0.1057
94756W        W37809  22.263  31.240  17.456 -0.0818  0.0314  0.0567
94757W        W37810  15.861  19.320   4.941  0.0286  0.2392  0.1817
94758W        W37811   2.112  16.132  25.511 -0.3733  0.3449  0.0503
94759W        W37812   8.338  28.994  28.715  0.0632 -0.3283  0.0568
94760W        W37813   7.734  26.973  17.408 -0.0162 -0.4036 -0.0210
94761W        W37814  19.084  26.587   4.567 -0.0919  0.0942 -0.1443
94762W        W37815  16.039  20.570  25.986 -0.1431 -0.1263 -0.0782
94763W        W37816   9.947  13.716  10.478 -0.1973  0.0436  0.1686
94764W        W37817   7.676  25.617   5.689 -0.2140  0.4411 -0.0468
94765W        W37818  13.971  24.442  21.132  0.0223  0.1692 -0.0043
94766W        W37819  11.303  22.119   2.206  0.1840 -0.0674  0.1806
94767W        W37820  27.133  31.780   6.553  0.0879 -0.1163  0.0035
94768W        W37821  12.824  11.955   8.413 -0.2126 -0.1129  0.2225
94769W        W37822  10.841   7.173   6.252  0.0398 -0.3954 -0.0468
94770W        W37823  19.790  26.360  25.273 -0.0239 -0.1917  0.1019
94771W        W37824   2.580   9.355   3.269  0.0875 -0.0125  0.1239
94772W        W37825   4.358  26.054  23.329 -0.3056  0.2655  0.1998
94773W        W37826  16.676  26.657   8.303 -0.0318 -0.2918  0.2589
94774W        W37827  18.331  25.057   7.303  0.1576  0.0499 -0.0162
94775W        W37828  23.437  31.606   5.978 -0.3962 -0.0572  0.0034
94776W        W37829   2.483   7.173   9.112 -0.0193 -0.2047  0.0939
94777W        W37830   9.494  24.732   5.525 -0.0039 -0.0124 -0.0936
94778W        W37831   9.083  11.587   6.669 -0.0680  0.0055 -0.2672
94779W        W37832  13.134  17.158   5.799  0.1215 -0.0549 -0.3396
94780W        W37833  20.126  23.183   2.245  0.1133  0.0771  0.0563
94781W        W37834   2.389  20.952   6.018  0.1978 -0.1492 -0.1387
94782W        W37835  11.912  19.764  29.135 -0.1687 -0.2366  0.0890
94783W        W37836   0.431   1.908   9.165 -0.0281  0.0060  0.0651
94784W        W37837  13.176  12.892  10.117  0.0962 -0.2162 -0.1899
94785W        W37838  20.234  21.370   8.369  0.0268 -0.2297  0.1686
94786W        W37839   4.972  21.919   8.721 -0.1020  0.1102  0.0906
94787W        W37840  32.307  24.609   8.830 -0.1920 -0.1619  0.4076
94788W        W37841   9.736  16.796   0.688 -0.1169  0.2468 -0.0743
94789W        W37842   2.265  10.694   7.722  0.0842 -0.1246  0.3079
94790W        W37843   7.616  29.352  23.723  0.2862 -0.0584 -0.1713
94791W        W37844  14.612  14.640   2.870  0.1955  0.1206  0.2163
94792W        W37845  33.592  14.590   5.221  0.1319 -0.0545 -0.0010
94793W        W37846  34.603  21.443   3.383  0.0753 -0.1358  0.0078
94794W        W37847   5.819  14.116  28.263  0.1913  0.3555 -0.1127
94795W        W37848  32.704  22.943   8.098 -0.2635  0.1336  0.1629
94796W        W37849  11.355  18.819   3.409 -0.2227 -0.2376 -0.0373
94797W        W37850  32.743  29.177   8.136  0.0115  0.1196 -0.0125
94798W        W37851  19.085   6.725   0.564  0.0127  0.1180  0.0441
94799W        W37852  15.584  11.168  28.615 -0.2329  0.1810  0.0824
94800W        W37853  14.366  15.168   1.608 -0.0719  0.0546 -0.0820
94801W        W37854  12.496  26.606  28.834 -0.2721 -0.2857 -0.1433
94802W        W37855  20.218  16.696   1.635 -0.0842  0.0448  0.1029
94803W        W37856   4.916  21.006  22.213  0.0360 -0.1185 -0.0788
94804W        W37857  21.354  26.391   1.017  0.0870 -0.1387  0.2765
94805W        W37858  32.071  28.150   7.984  0.2088 -0.0676  0.0391
94806W        W37859  21.681  17.914  18.740  0.1543  0.2367  0.2181
94807W        W37860   5.256  29.609   8.232 -0.1092  0.0871  0.3188
94808W        W37861  18.240  30.218   9.020  0.1359  0.0998  0.0156
94809W        W37862  13.955  17.542   9.017  0.1067 -0.0265  0.1390
94810W        W37863  23.117  11.184   2.852 -0.3546 -0.2216 -0.2800
94811W        W37864  10.956  29.705   8.233 -0.2054  0.0776  0.2899
94812W        W37865  22.664  18.533   8.953 -0.1068 -0.0727  0.3647
94813W        W37866   8.679   6.628   8.031  0.3116 -0.2884 -0.0949
94814W        W37867  17.736   9.203  28.378  0.1440  0.0359 -0.1689
94815W        W37868  31.245  22.503  26.117  0.2804 -0.1484 -0.1644
94816W        W37869   9.537  32.229   9.143 -0.2730 -0.2506 -0.1307
94817W        W37870   6.379  29.653   8.170  0.2610 -0.0013 -0.1062
94818W        W37871  15.065  16.987   0.428  0.2967  0.1626 -0.1350
94819W        W37872  27.743  19.650   1.109 -0.0257  0.1035 -0.3350
94820W        W37873  30.426  33.961  18.863  0.2429 -0.1185  0.0285
94821W        W37874   9.092  21.971  24.141 -0.4855  0.0332 -0.0702
94822W        W37875   2.790   4.852   1.552  0.1837  0.3366 -0.0246
94823W        W37876  11.702  14.322   6.565 -0.1631 -0.0969  0.0234
94824W        W37877   6.202  18.022   3.777  0.1931  0.0159  0.0270
94825W        W37878   8.967  17.576   2.762 -0.1677  0.0407 -0.1350
94826W        W37879  14.512  24.813  29.111 -0.2872 -0.4451 -0.1135
94827W        W37880  23.422  26.820  27.460  0.0702 -0.0783  0.0799
94828W        W37881  10.597  28.905  27.907  0.0866 -0.2390  0.0822
94829W        W37882  33.015  27.910  25.674  0.0824  0.0600 -0.3987
94830W        W37883  10.098  23.013   2.080 -0.3879 -0.1149 -0.0093
94831W        W37884  31.347  27.856  26.127  0.2042  0.0989  0.0803
94832W        W37885   5.483  19.629  20.405 -0.2216  0.3196  0.1013
94833W        W37886  17.423  15.449   6.744  0.0958  0.1219 -0.1184
94834W        W37887  32.183   9.734  23.749 -0.0412  0.2632  0.4125
94835W        W37888  29.900  17.947  18.213  0.0055  0.0554  0.1687
94836W        W37889   5.451  24.612  27.842 -0.3232  0.4844  0.0313
94837W        W37890  29.521  22.226  23.723 -0.2856 -0.0229 -0.0363
94838W        W37891  29.016  15.796  28.086 -0.0664  0.1771  0.0281
94839W        W37892   0.808  21.368  10.085 -0.0691 -0.0545 -0.1510
94840W        W37893   9.932  17.910   6.789 -0.6044  0.0640  0.2150
94841W        W37894  14.642  21.772   5.365 -0.0033 -0.1537  0.0309
94842W        W37895   3.552   1.985   6.081  0.0434 -0.1330  0.1590
94843W        W37896  23.055  22.014   5.684 -0.2066  0.1342  0.0637
94844W        W37897  11.017  28.882   5.138 -0.2867  0.1051 -0.3347
94845W        W37898  15.252   4.186  23.500  0.1412 -0.1107  0.0813
94846W        W37899   8.941  10.897   0.467  0.1144  0.0759 -0.2667
94847W        W37900   6.745   4.190  28.957  0.0705  0.0138  0.4723
94848W        W37901  19.312  25.431   5.282  0.1449 -0.3710 -0.1945
94849W        W37902  13.931  31.976  24.540  0.2841 -0.0053 -0.3193
94850W        W37903  10.194  24.697   5.839 -0.0325  0.0601 -0.3568
94851W        W37904   4.074  17.866   2.349 -0.0138  0.3048 -0.1325
94852W        W37905  10.047  33.744   0.144  0.2090  0.1573 -0.0867
94853W        W37906   9.013  25.291  26.332  0.2739  0.2443  0.1727
94854W        W37907   0.415  11.519   9.601 -0.0977 -0.3152  0.2395
94855W        W37908  16.011  12.423   7.225  0.0914  0.2400  0.1540
94856W        W37909  32.838  14.975   5.921  0.3344 -0.0084  0.0770
94857W        W37910   3.575  24.940   7.253  0.1640  0.0073 -0.2095
94858W        W37911  10.542  28.415   5.963 -0.1779  0.2626 -0.0344
94859W        W37912   0.919  14.142   3.247  0.1324  0.3361 -0.1827
94860W        W37913  27.837  23.504   1.203 -0.0387 -0.1659  0.0054
94861W        W37914  19.219   5.355  23.450 -0.2335 -0.0279  0.1044
94862W        W37915   9.403   6.524   0.477  0.1407  0.0126 -0.1792
94863W        W37916   6.184  17.484  28.035 -0.0499  0.0113 -0.0870
94864W        W37917   9.930  21.225   0.909  0.2801  0.1801 -0.0163
94865W        W37918   3.035   6.014   8.039  0.1284 -0.0330 -0.2013
94866W        W37919  14.028   1.916   6.183 -0.1620  0.0854  0.2030
94867W        W37920  10.347  18.537  22.495 -0.2170 -0.0013 -0.0437
94868W        W37921  11.116  22.848  20.632 -0.0632 -0.1612  0.0003
94869W        W37922  16.896  22.330   9.942 -0.0755  0.0903  0.1398
94870W        W37923  16.805   4.353  28.021  0.0410 -0.2105  0.0736
94871W        W37924  13.739  21.392   8.014  0.1407  0.1262 -0.2809
94872W        W37925  24.706  14.092   8.965  0.1737  0.1418  0.0793
94873W        W37926  11.718  16.988   6.537  0.1834  0.3494  0.1723
94874W        W37927  15.934  13.817   7.855 -0.3866 -0.4150 -0.1527
94875W        W37928  11.517  28.963  27.311  0.0719 -0.1519 -0.1373
94876W        W37929   9.755  30.582   7.663 -0.1880  0.0331  0.1727
94877W        W37930  15.600  14.504  25.915  0.0306 -0.0008 -0.1516
94878W        W37931  18.284  17.110   5.626 -0.1301  0.0958 -0.1205
94879W        W37932  22.517   3.538   5.395  0.3459 -0.0295  0.0438
94880W        W37933  33.680  20.323   5.731 -0.0334  0.2669  0.0526
94881W        W37934  16.474  13.640   4.524 -0.3055  0.0198  0.1531
94882W        W37935  15.369  33.452  17.279 -0.0209  0.3240 -0.1504
94883W        W37936  26.431  21.511   3.345 -0.1605  0.0676  0.2595
94884W        W37937   4.943  12.854  10.400  0.1671 -0.2967  0.3375
94885W        W37938  23.796  16.945   6.727 -0.1284  0.0014  0.2460
94886W        W37939   0.599  27.317  16.216 -0.2597  0.3132  0.1314
94887W        W37940   2.238   7.894   3.347  0.1676 -0.3312 -0.1429
94888W        W37941  29.555  21.375   6.701 -0.0878  0.3413  0.0307
94889W        W37942  31.438  29.823   4.784  0.1118  0.1446  0.3369
94890W        W37943   2.081  24.999   2.740  0.2152  0.2825  0.1960
94891W        W37944  31.961  17.422  15.428 -0.0354  0.0421  0.1816
94892W        W37945  16.484  32.685   9.799  0.1070  0.0607 -0.1318
94893W        W37946  30.922  18.875   5.908 -0.1962  0.0472  0.2480
94894W        W37947   7.324  21.370  19.280 -0.2991 -0.0996  0.2021
94895W        W37948  10.807   6.346   9.151  0.1454  0.1903  0.1607
94896W        W37949  22.717  18.978  20.762  0.0395 -0.0415 -0.0888
94897W        W37950  14.325  20.803  19.830  0.0431 -0.1427 -0.0067
94898W        W37951  17.542  34.595  10.736  0.0187  0.0654  0.1586
94899W        W37952  14.587  33.230   8.200 -0.3596  0.3822  0.0851
94900W        W37953   8.074   5.015  26.553 -0.2426  0.2712  0.0035
94901W        W37954  13.136  16.219   6.932 -0.2278 -0.1109 -0.2298
94902W        W37955   0.203  34.357  17.481  0.3941 -0.3101 -0.1866
94903W        W37956  27.230  17.764   9.173 -0.0576  0.1063 -0.0997
94904W        W37957  16.452  26.213   5.368  0.0547  0.0917 -0.1969
94905W        W37958   3.954  32.590  26.875  0.0193  0.0897  0.2447
94906W        W37959  24.718  20.286   9.909  0.2311  0.2273 -0.0523
94907W        W37960   8.633  19.838  23.866 -0.1542  0.3102 -0.1339
94908W        W37961   5.826   5.291  16.774  0.1769  0.0331 -0.0265
94909W        W37962  11.021  34.429   2.455  0.1122  0.1150 -0.0267
94910W        W37963  10.462   9.093   4.687  0.1811 -0.0636 -0.1420
94911W        W37964  11.465  21.502  27.711 -0.0718  0.0618  0.2429
94912W        W37965  10.575  21.232  28.583 -0.4393  0.3288  0.0447
94913W        W37966   3.838  33.549  28.570  0.0063 -0.1111 -0.1377
94914W        W37967  15.864   2.067   0.946 -0.2341  0.2095  0.0950
94915W        W37968  12.084  18.410   9.159  0.0197  0.3019  0.0454
94916W        W37969   8.770   3.888   7.048 -0.0402 -0.0919  0.2086
94917W        W37970  32.897  14.756  22.338  0.0783  0.0930  0.0151
94918W        W37971  19.636  17.579   4.084 -0.3772  0.0368 -0.0111
94919W        W37972  32.260  26.941   0.833 -0.0109  0.1521  0.0675
94920W        W37973  22.674  24.446   8.665 -0.0336  0.0683  0.2048
94921W        W37974  25.992  20.259   8.266  0.3449 -0.1915  0.6921
94922W        W37975  26.540  23.395   8.469  0.0309  0.2416 -0.3182
94923W        W37976  12.111  28.030  17.715  0.1594  0.2540  0.1580
94924W        W37977  25.810  24.771   9.933  0.0308 -0.1229  0.0911
94925W        W37978  19.828  16.172   5.031 -0.1399 -0.0597  0.1157
94926W        W37979  14.420  22.904   4.583  0.2327 -0.0136  0.0006
94927W        W37980  16.092  24.475   5.774 -0.2080  0.0365  0.3002
94928W        W37981  17.185  19.938   5.712 -0.0980  0.1265  0.0664
94929W        W37982  26.657  19.385   5.970 -0.2221 -0.0522 -0.3778
94930W        W37983  20.790  24.440  26.482  0.0880 -0.1339 -0.3393
94931W        W37984  18.417  22.932   5.253 -0.2987 -0.1713  0.0601
94932W        W37985  32.298   7.638  15.122  0.1456 -0.2344  0.0750
94933W        W37986  12.187  29.812   4.380  0.1490  0.0812  0.1266
94934W        W37987  24.010  33.663   1.188 -0.0337  0.4916 -0.2053
94935W        W37988   9.882  14.878  10.100  0.1299  0.0249 -0.0925
94936W        W37989  26.028  19.500   5.291 -0.0558 -0.1387  0.3185
94937W        W37990  11.439   3.415   7.141  0.1834 -0.3349 -0.3353
94938W        W37991   3.840  21.623  21.482  0.0801 -0.0826 -0.0400
94939W        W37992   9.872  15.123   3.731  0.2378 -0.0211 -0.0549
94940W        W37993   1.244   0.915  29.174 -0.0122  0.2670 -0.1258
94941W        W37994  25.623  22.268   6.222 -0.1904  0.0719 -0.0926
94942W        W37995   7.134  24.866   6.500  0.3244  0.1204  0.3040
94943W        W37996   9.037  23.023   2.342  0.1467  0.1440  0.0777
94944W        W37997  10.059  22.052   4.754  0.0887  0.0086  0.2960
94945W        W37998  15.963   7.008   2.564  0.1087  0.1644 -0.0381
94946W        W37999  32.760  15.600  26.781  0.0591 -0.1239  0.0276
94947W        W38000  29.948  30.467   9.539  0.0757 -0.1700  0.1973
94948W        W38001  16.359  23.502   9.944  0.6124 -0.3498  0.1799
94949W        W38002  25.926   1.407   6.493  0.1271 -0.2381 -0.1043
94950W        W38003  15.923  16.917   0.058 -0.1398 -0.0717 -0.0237
94951W        W38004   8.771   8.442  22.043 -0.0210  0.0183 -0.3870
94952W        W38005  15.376  22.930   4.893  0.1744  0.2135 -0.1449
94953W        W38006  15.287  15.434   9.071  0.2573  0.0768  0.3735
94954W        W38007   4.366  26.325  23.852  0.2278 -0.1931 -0.1282
94955W        W38008  21.452  29.088   1.173 -0.0415 -0.0396  0.0774
94956W        W38009   5.516  16.399  25.842 -0.0576  0.1218  0.1347
94957W        W38010  19.900  28.524   8.680  0.0507  0.0492 -0.0152
94958W        W38011   6.527  21.944   2.364 -0.0238  0.2331  0.2527
94959W        W38012   6.614  12.266   9.153 -0.1027 -0.3912 -0.1609
94960W        W38013  24.522  14.318  23.433 -0.2497 -0.1856  0.2120
94961W        W38014  23.732  31.388   1.414  0.1448 -0.0186 -0.0451
94962W        W38015  19.597  32.283   6.215  0.0749  0.1309  0.1105
94963W        W38016   9.916  12.622   3.919  0.1179 -0.0584 -0.2996
94964W        W38017   4.596  22.747  26.876  0.2340 -0.1052 -0.0733
94965W        W38018  32.356  23.338   8.094 -0.1275 -0.0794 -0.0797
94966W        W38019   8.506  11.311  16.893 -0.0516  0.0817  0.0047
94967W        W38020  24.949   2.033  26.272 -0.1846  0.2068  0.1347
94968W        W38021  17.277  18.899  26.246  0.2786 -0.1620 -0.5163
94969W        W38022  10.941  25.907   8.196  0.1212  0.0677  0.1737
94970W        W38023  23.300  32.054  26.890  0.4818  0.1466 -0.0689
94971W        W38024  16.242  16.397   3.417 -0.0305  0.0028  0.2241
94972W        W38025  21.088   9.597   6.225 -0.2189 -0.0839 -0.1233
94973W        W38026  15.440  24.628   0.188 -0.2024 -0.0263 -0.0973
94974W        W38027   2.967  30.743   6.676  0.2823  0.1426  0.4710
94975W        W38028  13.432  26.128   7.266 -0.0150 -0.0607 -0.1668
94976W        W38029   5.762  16.308  26.861 -0.0426 -0.3167  0.1664
94977W        W38030   8.987  29.975   2.741 -0.1532 -0.0554  0.3149
94978W        W38031   6.603  18.683  22.715 -0.4495 -0.1518  0.3955
94979W        W38032   3.664  22.619   6.250  0.1740 -0.1650 -0.4742
94980W        W38033   8.116  22.544  26.654  0.1935 -0.1145 -0.2456
94981W        W38034  17.595  29.145   6.902 -0.0739  0.1313 -0.0075
94982W        W38035  27.199  22.574   5.905 -0.1565  0.0777  0.1616
94983W        W38036  15.462  14.289   7.505  0.4963  0.0421  0.2232
94984W        W38037  25.910  20.882   9.730  0.0194 -0.0253  0.0150
94985W        W38038   9.449  18.589   8.704  0.4452  0.2389 -0.1965
94986W        W38039  29.824  18.602   7.081  0.0771  0.2206 -0.4608
94987W        W38040  24.533  31.880   7.217  0.3310 -0.2181 -0.3091
94988W        W38041  25.391  22.098   0.919 -0.0837  0.0039  0.3122
94989W        W38042   4.975  26.187   5.661  0.1058  0.0959  0.2125
94990W        W38043  24.963   2.486   0.256 -0.1300 -0.1774 -0.1094
94991W        W38044  18.375  29.212   6.243 -0.1337  0.2699  0.0039
94992W        W38045   9.325  19.426   4.912 -0.0421 -0.2066 -0.0985
94993W        W38046  21.070  29.537   2.028 -0.0489 -0.0522  0.0282
94994W        W38047   7.247  31.326   0.553  0.1263 -0.0876  0.1137
94995W        W38048  13.543  30.881  24.001  0.2291 -0.0275  0.2651
94996W        W38049   3.121   2.495   0.714  0.1164 -0.0202  0.1324
94997W        W38050  22.271   3.769   5.806 -0.1183 -0.0617  0.3314
94998W        W38051  10.787   0.371  28.484 -0.2996  0.0147 -0.3877
94999W        W38052  17.392  16.992   5.677  0.3090 -0.2501  0.1740
95000W        W38053  24.092  28.141  28.978  0.1816  0.0624 -0.0068
95001W        W38054  19.372  22.705   7.420 -0.1103  0.3424 -0.1416
95002W        W38055  19.585   2.889  23.155  0.1780 -0.1298  0.1140
95003W        W38056  14.710   5.533   4.695 -0.0816  0.0854  0.0243
95004W        W38057  18.771  14.570   5.484  0.0998 -0.5050 -0.0651
95005W        W38058  19.186  20.456  24.164  0.0410  0.2610  0.1987
95006W        W38059   0.455  29.243   5.947  0.0016 -0.0395  0.0802
95007W        W38060  15.215  16.022  29.104  0.1190  0.1040  0.1578
95008W        W38061  30.752  28.528  27.213 -0.3953 -0.0677 -0.1393
95009W        W38062  10.835  26.452   4.529  0.1862 -0.0609 -0.1673
95010W        W38063  13.877   9.651   2.042  0.0334 -0.1390 -0.1696
95011W        W38064  23.292  15.627  28.369 -0.0082 -0.1344 -0.2836
95012W        W38065   5.053  18.253   8.599 -0.0164 -0.0751  0.0434
95013W        W38066  11.203  14.425   6.748 -0.5098 -0.3848  0.0718
95014W        W38067   7.183  12.643   8.142  0.1251  0.0152  0.0423
95015W        W38068  13.895  26.288   2.198 -0.0964 -0.0932  0.0073
95016W        W38069   4.246  33.451  27.138 -0.0468  0.0096  0.1596
95017W        W38070   9.897  24.354   3.371  0.2534 -0.0308  0.0333
95018W        W38071  15.422  21.668  26.474  0.1350 -0.0082  0.0135
95019W        W38072  12.854  26.922   1.706  0.0702  0.1902 -0.1200
95020W        W38073   5.561  21.283   7.469  0.1039 -0.1548  0.0308
95021W        W38074   6.773  18.396   0.976 -0.3382  0.0072  0.1494
95022W        W38075  21.312  26.743   2.709  0.1338 -0.1433  0.0872
95023W        W38076  33.489  14.821  18.959  0.3681  0.0379  0.1953
95024W        W38077  17.382   3.223   2.639 -0.1431 -0.0358  0.0831
95025W        W38078  11.491  28.858   5.302 -0.0352 -0.2205 -0.0421
95026W        W38079  19.392  17.267   6.139  0.3438 -0.2554 -0.0591
95027W        W38080  32.173  13.183   2.535  0.1668  0.0250 -0.1283
95028W        W38081  34.612  28.496  13.735 -0.2394  0.0658 -0.1081
95029W        W38082  11.391  26.436   7.805  0.1704  0.0302 -0.0962
95030W        W38083  15.452  33.322  13.796  0.0267 -0.3489 -0.0969
95031W        W38084   7.079  20.927  27.662 -0.4634 -0.1244 -0.3009
95032W        W38085  34.550  13.973  17.106  0.0341 -0.3103 -0.1606
95033W        W38086  21.211  15.311  28.761  0.0940 -0.0487  0.1397
95034W        W38087  18.218  24.929   3.219  0.1833  0.2646  0.1382
95035W        W38088  25.083  31.223  25.056  0.1436  0.2698 -0.0339
95036W        W38089  19.923  30.655   0.590  0.2622  0.0342  0.1661
95037W        W38090   6.442  31.695  26.475  0.2631  0.2965 -0.1228
95038W        W38091  11.528  24.902   3.772  0.0369  0.1419  0.2619
95039W        W38092  18.587   7.172   0.151  0.1167  0.0524  0.0033
95040W        W38093  19.559  23.570   5.780 -0.4326  0.2905 -0.3504
95041W        W38094   4.373  33.024   7.913 -0.1039 -0.2263  0.0436
95042W        W38095  10.413  12.978   4.014  0.0657 -0.3048  0.3791
95043W        W38096  19.038   0.474   7.436 -0.1341  0.1513  0.0882
95044W        W38097  12.275  29.957   9.274  0.0879  0.1016  0.0412
95045W        W38098   7.676  10.606  18.334 -0.2399  0.1907  0.2022
95046W        W38099  19.152  22.869   2.691  0.1955  0.1304 -0.1048
95047W        W38100   6.552  20.549  27.124 -0.0722 -0.2376 -0.4211
95048W        W38101  16.038  31.696   0.798 -0.0821 -0.2061  0.0695
95049W        W38102  16.448   9.367  28.920  0.0053 -0.0339  0.2004
95050W        W38103  12.895  31.252  19.923  0.1423  0.0166  0.1948
95051W        W38104   9.233  32.636   4.961  0.4409  0.0145 -0.4507
95052W        W38105  29.936  33.003  27.121 -0.1029 -0.1322  0.1203
95053W        W38106   4.859   7.487  28.285 -0.2279  0.1975  0.3350
95054W        W38107  11.129  30.430  26.458  0.1113  0.0044  0.1534
95055W        W38108  15.194  30.614   0.866 -0.0909  0.0965 -0.2575
95056W        W38109  22.554   4.073  22.591 -0.2315  0.0102 -0.3957
95057W        W38110  30.578  21.793   7.058 -0.0604 -0.2475 -0.1215
95058W        W38111   7.729  20.346  13.923  0.2209  0.1823 -0.2954
95059W        W38112  22.299  21.174  25.050  0.7999 -0.2248 -0.1384
95060W        W38113   6.665  26.121   1.244  0.3543 -0.3178  0.0665
95061W        W38114  25.260  25.074  18.502 -0.0411  0.0507  0.2154
95062W        W38115  13.811   3.042   4.612  0.1954  0.0324  0.0634
95063W        W38116  14.460  18.133   7.685  0.1770 -0.2495 -0.0717
95064W        W38117   6.488  26.599   1.486  0.1703  0.1101 -0.0183
95065W        W38118  22.428  31.735  17.454 -0.0097 -0.0737  0.0019
95066W        W38119  30.686  13.469   6.876  0.1092 -0.1247 -0.0349
95067W        W38120   4.404   8.262   7.249  0.0347  0.0284  0.2249
95068W        W38121  11.907  27.621  22.569 -0.0696  0.3543  0.1404
95069W        W38122  32.166  18.572   0.926 -0.0025 -0.0937 -0.0280
95070W        W38123  27.789  34.625   7.923  0.1426 -0.1034  0.1232
95071W        W38124  16.608   0.677  21.193  0.1479 -0.0642  0.0125
95072W        W38125   7.922  13.306   4.053 -0.0884 -0.1960 -0.0146
95073W        W38126   9.214  28.834   8.912 -0.1678 -0.0509 -0.1177
95074W        W38127   3.999  31.977  14.850 -0.1106  0.1313  0.0212
95075W        W38128  17.778  29.531  23.802  0.2111  0.1043 -0.0882
95076W        W38129   8.164  32.435  26.418 -0.1082 -0.2010  0.1977
95077W        W38130  15.900  29.617  22.010  0.0350  0.1191 -0.2350
95078W        W38131  19.971   2.340   4.600  0.2255 -0.1140 -0.1985
95079W        W38132  20.460  29.817   1.654  0.0870  0.1561 -0.2343
95080W        W38133  12.371  12.099   8.552 -0.2958  0.3917 -0.1801
95081W        W38134  19.046   2.341   1.169  0.0924 -0.0544 -0.0266
95082W        W38135  24.133  34.596   3.733 -0.1988 -0.2765  0.1219
95083W        W38136  14.001  30.638   7.606  0.2058  0.1241  0.0115
95084W        W38137  14.170   4.065   2.929  0.0861  0.0824  0.0007
95085W        W38138  11.085   9.280  17.517 -0.1434 -0.2885 -0.2087
95086W        W38139  20.773  22.769   0.463  0.0993 -0.2474  0.1157
95087W        W38140  29.203  26.543   0.923 -0.0806  0.0033 -0.2557
95088W        W38141  34.380   2.678  24.260 -0.3908 -0.2839 -0.0909
95089W        W38142  18.594  30.682   1.014 -0.1385  0.0867  0.2549
95090W        W38143  18.051  14.367  27.182 -0.0708 -0.0965 -0.0681
95091W        W38144  15.178  24.791   1.163 -0.1358  0.0733  0.2232
95092W        W38145   7.563  31.045  19.179 -0.1769 -0.1365 -0.0296
95093W        W38146  13.075   0.176  27.777  0.3899 -0.3919  0.0440
95094W        W38147  18.721  24.264   4.961 -0.2477  0.2697  0.1686
95095W        W38148   6.968  19.311  26.544 -0.1947  0.0715  0.0918
95096W        W38149  20.631   6.334   7.749 -0.1345  0.2046 -0.1148
95097W        W38150   5.703  21.960   4.068  0.1474 -0.0155  0.0083
95098W        W38151  13.300  17.631   7.529  0.3261 -0.1004 -0.1126
95099W        W38152  24.692  15.624  26.501 -0.1220  0.1669  0.1796
95100W        W38153  17.973  23.473   4.799 -0.0651  0.0895  0.2035
95101W        W38154  12.669   6.299   4.459  0.1783 -0.1086  0.2344
95102W        W38155  25.541  23.288   0.263 -0.0552 -0.1744 -0.3118
95103W        W38156   0.452  30.533   9.065  0.2018 -0.1884 -0.1387
95104W        W38157  13.648   5.959   2.764  0.0521 -0.1082  0.2651
95105W        W38158  23.973  19.868  10.020 -0.1800 -0.0331  0.0617
95106W        W38159   9.568  32.488   0.734  0.0770  0.3938 -0.1907
95107W        W38160  29.280  24.544   2.996 -0.0707 -0.0679 -0.1800
95108W        W38161  11.401  21.603   8.687 -0.1370  0.1211  0.1872
95109W        W38162  11.985   9.085   4.033  0.1698  0.0936  0.1659
95110W        W38163  13.926  13.364   3.238 -0.1214  0.2171 -0.0045
95111W        W38164  20.181  32.314   8.287  0.0168  0.1560  0.1068
95112W        W38165  33.393  23.233   0.639 -0.1046 -0.2042 -0.0082
95113W        W38166   8.468  24.087   3.175  0.0917 -0.2843 -0.2160
95114W        W38167  17.767  25.708   5.429 -0.1355 -0.3741 -0.0955
95115W        W38168  12.946  24.534  22.131 -0.2061  0.0643 -0.0285
95116W        W38169  34.231  26.770  27.268  0.1037  0.0627 -0.0605
95117W        W38170   6.097  22.274   6.845  0.0982 -0.1417 -0.0415
95118W        W38171   9.246  12.241  15.173 -0.2211 -0.1269  0.0050
95119W        W38172  19.721  21.043  28.584  0.1412 -0.0565 -0.0710
95120W        W38173  12.647  27.634   2.617 -0.2730  0.2351 -0.0685
95121W        W38174   5.108  31.105  25.318  0.0297 -0.1620  0.0942
95122W        W38175   1.050  31.615   8.870  0.2662  0.2265 -0.0789
95123W        W38176  24.525  30.944  20.946  0.3003 -0.1661  0.1173
95124W        W38177  14.599  27.859   2.763 -0.1608  0.4050  0.2820
95125W        W38178  11.751  22.221  20.174 -0.0900  0.1389  0.1880
95126W        W38179  14.666  22.276   7.154  0.1132 -0.0949  0.0847
95127W        W38180  11.782  28.272  14.759  0.2523  0.0918  0.0853
95128W        W38181  20.805   1.399   0.454 -0.1382  0.2730 -0.4024
95129W        W38182  19.322   7.097   6.890  0.1168 -0.3318 -0.0783
95130W        W38183   5.196  19.013   3.143  0.2951 -0.2467 -0.0575
95131W        W38184  23.794  30.208   0.146  0.1331 -0.1259  0.0878
95132W        W38185  15.452  25.377   3.928 -0.1280  0.1439  0.1396
95133W        W38186  24.746  22.537  25.972  0.1837  0.0418 -0.0971
95134W        W38187  28.949  13.384   0.526  0.3079 -0.3336 -0.1374
95135W        W38188  10.185   4.423   8.488 -0.1078  0.2843  0.1757
95136W        W38189  12.350   4.855   9.398  0.0368  0.2826  0.0893
95137W        W38190  16.710   9.653  25.633  0.1077 -0.1839  0.2873
95138W        W38191   3.596   7.670   9.929  0.0927 -0.0045 -0.0147
95139W        W38192  22.988  27.662  28.733 -0.0360 -0.0436  0.2615
95140W        W38193   4.250  27.042   4.145 -0.3303  0.4170 -0.0711
95141W        W38194  13.840  32.570  18.888  0.0458 -0.0661 -0.5152
95142W        W38195  31.178  22.502   7.034  0.0674  0.5006  0.0811
95143W        W38196   2.181  29.921   7.345 -0.0413 -0.1023  0.1187
95144W        W38197  22.857  12.446   9.147 -0.2812 -0.0845  0.0092
95145W        W38198  11.245  22.397   5.102 -0.5336  0.0861  0.4004
95146W        W38199   8.588  26.401   9.100  0.0888  0.2181  0.3430
95147W        W38200  21.084  20.231   1.776 -0.0880 -0.0827 -0.1214
95148W        W38201  11.236  34.452   7.559  0.0166  0.1361  0.0297
95149W        W38202   9.201  25.466   0.058 -0.2245  0.1012  0.0381
95150W        W38203   2.280  26.223   7.429  0.0175 -0.0992 -0.1399
95151W        W38204   5.615  20.819  27.339 -0.1136 -0.2090  0.3519
95152W        W38205  15.344  10.193  20.894  0.0415 -0.0485 -0.0796
95153W        W38206  19.863  30.403   1.080  0.0498  0.4305 -0.1177
95154W        W38207  18.856  15.842   4.509  0.1276  0.3157  0.1425
95155W        W38208   6.752  24.267   2.062 -0.0931 -0.0061 -0.2350
95156W        W38209  13.848  14.205   3.323 -0.0161  0.2371 -0.1475
95157W        W38210  20.339  31.924   6.365  0.2876  0.2464 -0.3536
95158W        W38211  13.294  26.547  24.602  0.2202 -0.1447 -0.0526
95159W        W38212  19.142  12.663   2.779  0.0054 -0.0096  0.1697
95160W        W38213  16.686  19.781  25.287 -0.1254  0.1619  0.0352
95161W        W38214   6.438  27.367   4.167 -0.0465  0.0794 -0.0698
95162W        W38215  33.735   6.031  22.650 -0.1872 -0.0768  0.0160
95163W        W38216   9.071   3.254  24.933 -0.0841 -0.1250 -0.0801
95164W        W38217  12.245  15.934  24.187  0.0153  0.0732 -0.0803
95165W        W38218  12.825  21.658   3.953  0.1467 -0.2400 -0.1751
95166W        W38219  19.218  34.316   4.206 -0.0064 -0.2574 -0.2340
95167W        W38220  16.716   5.097   1.565 -0.0383  0.1043  0.0231
95168W        W38221  26.867   9.661   6.206 -0.1294 -0.0172 -0.2703
95169W        W38222  21.340  25.196   1.796  0.0182  0.0173 -0.0226
95170W        W38223  10.016  25.653  25.405  0.0725 -0.0270  0.3719
95171W        W38224  30.318  16.783  22.745  0.0841  0.0447 -0.0557
95172W        W38225   0.549  23.336   1.046 -0.0213  0.0382  0.0340
95173W        W38226   8.367   0.268  26.588 -0.0483  0.3173  0.1076
95174W        W38227  16.987  20.146  27.544 -0.0360 -0.1910 -0.0952
95175W        W38228   7.437  25.518   8.028 -0.0048 -0.1204 -0.3740
95176W        W38229   4.640   1.404   2.059  0.0433 -0.0949 -0.2246
95177W        W38230   9.294  13.724  26.378  0.0696 -0.1273  0.3412
95178W        W38231   3.281  22.959   6.259 -0.2671 -0.2140  0.1528
95179W        W38232  22.870  22.929   9.153  0.0020  0.0666 -0.3321
95180W        W38233  19.063  28.891  22.854 -0.0821 -0.0534 -0.0676
95181W        W38234  21.560  15.222   2.991  0.0070  0.1133  0.1072
95182W        W38235  17.847  33.088  19.216 -0.1036 -0.1141  0.2378
95183W        W38236  11.596  34.074   7.742 -0.0526  0.3477  0.0022
95184W        W38237  15.223  25.426   1.145 -0.0088  0.0023 -0.2066
95185W        W38238   4.860  20.758  26.513 -0.2213  0.1634  0.0512
95186W        W38239   9.813  11.268   8.909  0.3437  0.0254  0.0770
95187W        W38240  18.209   5.528   0.811 -0.0030  0.2045  0.1797
95188W        W38241   3.390  22.847   4.076 -0.2191  0.2426 -0.1842
95189W        W38242  19.858  22.879   6.970  0.0635  0.2517 -0.2448
95190W        W38243  21.032   7.772   6.774  0.3271  0.0387 -0.2080
95191W        W38244  12.687  19.465  25.231  0.3004  0.0933 -0.2316
95192W        W38245  11.704   6.395   2.209  0.1358 -0.0335 -0.1053
95193W        W38246  18.125   0.814   6.071 -0.0051  0.1153 -0.1424
95194W        W38247   5.877   1.257  14.328  0.0848 -0.0862  0.3402
95195W        W38248   6.698  16.727   1.734 -0.4928  0.0549 -0.1008
95196W        W38249  10.685  31.860   3.602 -0.1720 -0.1755  0.0785
95197W        W38250   9.020  32.928  24.389  0.0803  0.0975 -0.2129
95198W        W38251   5.882  15.536  26.420 -0.1886 -0.0281 -0.0644
95199W        W38252  19.569  19.291  28.311  0.0885  0.2175  0.0186
95200W        W38253  11.766   9.105   9.164  0.1778  0.2210 -0.1807
95201W        W38254  12.049  34.415   0.820  0.0991 -0.3008  0.0350
95202W        W38255  13.077  26.341   8.760  0.3547  0.1423 -0.1254
95203W        W38256  12.076  14.507   1.527 -0.0502  0.2128  0.2729
95204W        W38257  24.021  22.187   6.904  0.1104  0.0326  0.0456
95205W        W38258  11.051   7.418   2.725  0.1992  0.1902  0.1392
95206W        W38259  20.645  16.399   6.543  0.0467 -0.0368  0.3543
95207W        W38260   6.663  26.186  22.453 -0.0843  0.0051  0.0704
95208W        W38261   3.097  24.148   7.609 -0.1810  0.2619 -0.0290
95209W        W38262  20.081  23.720  28.282  0.1156 -0.0121  0.3723
95210W        W38263  28.855   1.289   8.041 -0.2428  0.0596 -0.3367
95211W        W38264  32.414   1.103  21.780  0.0901 -0.0158 -0.5351
95212W        W38265  25.073  15.614   4.046  0.1059  0.0309 -0.0528
95213W        W38266  26.480  26.154  14.862 -0.0738 -0.2030  0.1002
95214W        W38267  31.531  25.889  15.479  0.2129  0.0866 -0.0022
95215W        W38268  22.853  17.100   8.750 -0.2450 -0.0430  0.0518
95216W        W38269  25.527   5.202   7.463  0.0275  0.1818  0.0706
95217W        W38270   6.297  27.885  27.474  0.0388  0.2973 -0.1203
95218W        W38271  14.832  24.146   7.284 -0.1066  0.0831  0.2711
95219W        W38272  14.266  26.880   8.221 -0.1019 -0.3594 -0.0396
95220W        W38273  19.649  12.582   0.767  0.0208 -0.6245  0.1808
95221W        W38274   1.935  25.166  21.221 -0.0760  0.0779  0.0915
95222W        W38275   8.736  20.752   7.748  0.0072 -0.0205 -0.1288
95223W        W38276  13.273  33.168  28.774 -0.0305 -0.0807 -0.3072
95224W        W38277  26.782   9.252  20.014  0.1094  0.0325 -0.0273
95225W        W38278  22.990  25.047   1.545 -0.1297  0.0887  0.0728
95226W        W38279   6.445  26.903  27.308  0.1440 -0.1028 -0.2218
95227W        W38280  12.612  27.201   5.982  0.0729 -0.1004  0.1520
95228W        W38281  19.240  21.098   2.632 -0.2126 -0.0398 -0.0567
95229W        W38282  13.660  16.072  23.273  0.0486 -0.0768  0.2257
95230W        W38283   2.607  27.165  21.910  0.0185 -0.2391 -0.0838
95231W        W38284   1.481  27.525   8.566  0.0906 -0.3154  0.2090
95232W        W38285  23.699  25.944   7.229 -0.2897 -0.4199 -0.0158
95233W        W38286   9.328  21.189   4.215  0.1614 -0.0515  0.0528
95234W        W38287  22.519  28.443   9.604 -0.1331  0.3246  0.1537
95235W        W38288   9.999   9.612  16.722 -0.0842  0.6736  0.0540
95236W        W38289   8.867  21.449   6.005  0.3095 -0.0737 -0.0645
95237W        W38290   0.743  19.978   7.371 -0.2940 -0.1289 -0.2235
95238W        W38291  16.479  33.582   9.580 -0.0776 -0.1637  0.0015
95239W        W38292  16.687   3.613  28.581 -0.2406 -0.2147 -0.1252
95240W        W38293  27.225  27.037   0.887 -0.3906 -0.1308  0.2890
95241W        W38294   9.011  23.010   5.951 -0.1522 -0.1176 -0.2263
95242W        W38295  28.165  32.346  27.943 -0.1488  0.1278  0.1310
95243W        W38296  13.078  24.735   5.355 -0.2096 -0.0250 -0.0704
95244W        W38297  12.589  25.452   4.145 -0.0094  0.3306  0.4655
95245W        W38298  10.346  22.468  27.380 -0.1372  0.0419 -0.0341
95246W        W38299   3.660  29.555   6.596  0.1869 -0.0481  0.3121
95247W        W38300  19.317  23.489  26.843  0.0813  0.1455 -0.1777
95248W        W38301  10.297   9.839  26.460 -0.0667  0.2051  0.2860
95249W        W38302  19.384  16.785   0.854 -0.1510  0.1695  0.1660
95250W        W38303   1.721  27.083  26.533 -0.0209 -0.3042 -0.2287
95251W        W38304   2.749  30.444  26.197 -0.0548  0.4549  0.0247
95252W        W38305  17.424  20.108   5.190  0.0535  0.1972  0.2927
95253W        W38306  13.305  26.712   3.746  0.1554  0.0916 -0.0866
95254W        W38307  19.334  34.044   8.389  0.1475  0.0995 -0.0410
95255W        W38308   8.977  24.717  21.717 -0.1722  0.0436 -0.1064
95256W        W38309   5.058  17.458  23.635  0.0188  0.0094 -0.2218
95257W        W38310  12.153   6.341  24.827 -0.0579  0.2234  0.0712
95258W        W38311  16.645  28.057  29.032 -0.1523  0.1203  0.3213
95259W        W38312  17.044  11.684   8.240 -0.1739  0.1058  0.0439
95260W        W38313   3.584  14.331   6.529  0.0886 -0.1371  0.1455
95261W        W38314  13.002  26.299  16.165 -0.2316 -0.0326 -0.1425
95262W        W38315   7.291  23.771   0.834  0.1279 -0.2378 -0.0734
95263W        W38316  17.975  31.578  10.147  0.1196 -0.2101  0.0697
95264W        W38317  28.067  25.434  28.570  0.0134  0.0584  0.0361
95265W        W38318  14.975   9.467  26.216 -0.0723 -0.0817  0.2600
95266W        W38319  33.965   0.170   4.229 -0.1159 -0.2123 -0.3164
95267W        W38320  11.213  24.083   4.124  0.3357 -0.1175  0.1955
95268W        W38321  13.435  19.234  22.241  0.1301  0.0997  0.4236
95269W        W38322  14.743   5.837   3.574  0.3236 -0.1585 -0.0993
95270W        W38323   6.552  24.245   8.529 -0.0970 -0.0656 -0.0237
95271W        W38324  17.709  29.300  10.833  0.1054  0.1753  0.4221
95272W        W38325  13.532   0.432  28.502 -0.1213  0.0044  0.0314
95273W        W38326  10.670  27.931   5.830  0.1220 -0.3211 -0.3091
95274W        W38327   6.020  15.414   5.042  0.4105 -0.3189  0.0818
95275W        W38328  14.024  28.001  27.803  0.0283  0.2265  0.3938
95276W        W38329  11.666   2.467   1.427 -0.0317 -0.0627  0.2280
95277W        W38330  20.699  31.054  23.812  0.3495 -0.1274 -0.1527
95278W        W38331   8.593  20.505   5.999  0.3484  0.1422  0.1096
95279W        W38332  13.040  17.557  26.851  0.1086  0.0150  0.0666
95280W        W38333  18.491  33.465   8.565  0.0349  0.0660  0.0250
95281W        W38334  14.588  26.240  27.223 -0.1479  0.2826 -0.0305
95282W        W38335  12.012  18.343  28.258 -0.0692  0.0670 -0.0360
95283W        W38336  13.173  26.604  14.025  0.2995  0.1884 -0.0226
95284W        W38337   9.111  23.480   7.885  0.1916 -0.0999  0.0710
95285W        W38338  17.300   7.206   9.961  0.3498 -0.0416 -0.1190
95286W        W38339  14.004  23.925   5.676 -0.1979  0.2723  0.0851
95287W        W38340   2.911  25.135   5.220  0.0349  0.1098  0.1126
95288W        W38341   8.152   7.784   4.259  0.4761 -0.1820 -0.1215
95289W        W38342  13.717   5.184   9.994  0.3045  0.0438  0.3261
95290W        W38343  17.027  27.245   0.520 -0.1674 -0.1740  0.4053
95291W        W38344   1.127   4.838   3.542 -0.0977 -0.0097  0.0270
95292W        W38345  21.491  23.540   4.732 -0.1992  0.0708 -0.0765
95293W        W38346  32.543   8.268  25.792 -0.0044  0.0993 -0.0305
95294W        W38347  17.910  13.956  27.564 -0.2117 -0.1997 -0.1433
95295W        W38348  30.399  11.915   4.994  0.1596  0.1898  0.1192
95296W        W38349  24.501  21.266   4.437 -0.0360  0.1045 -0.1360
95297W        W38350  25.985  27.712   9.731 -0.0408  0.2351  0.1066
95298W        W38351   7.940  29.547   7.129 -0.0868 -0.1892  0.0467
95299W        W38352  13.330   9.537   9.352 -0.3522  0.1409  0.0120
95300W        W38353  11.175  24.305   6.616 -0.0986 -0.2869 -0.4641
95301W        W38354  17.831  11.031  21.509 -0.0169  0.0404  0.2545
95302W        W38355  12.569  32.714   6.020  0.1568 -0.1110  0.3720
95303W        W38356  12.669   4.524   7.569 -0.2679 -0.0950 -0.2181
95304W        W38357  11.989  22.456  27.506  0.3057 -0.1096 -0.0068
95305W        W38358  12.760  23.064  26.298 -0.0104  0.1114 -0.1258
95306W        W38359  19.523  18.263  27.411 -0.0035  0.0916  0.1771
95307W        W38360  33.386  27.017  18.733  0.0726 -0.1747  0.1193
95308W        W38361   4.436   3.663   0.248  0.0789  0.2982 -0.1880
95309W        W38362  19.626  18.917  13.819  0.0711  0.1544 -0.0276
95310W        W38363   8.876  12.192  16.335 -0.0532  0.0345  0.0069
95311W        W38364  18.491  33.610   2.160  0.2162 -0.0054  0.3287
95312W        W38365  12.506  21.049   4.770 -0.0811 -0.1231  0.1232
95313W        W38366  13.083   6.297   4.144 -0.0355 -0.5512  0.1558
95314W        W38367   1.422  23.172   2.248 -0.1042  0.0309 -0.0873
95315W        W38368  23.327  19.472  21.969 -0.0612 -0.1961  0.0419
95316W        W38369  25.049  30.617   7.595  0.2108 -0.3327 -0.1941
95317W        W38370  13.905  29.122   5.340 -0.0224  0.1608 -0.0172
95318W        W38371  15.187  22.577   5.223  0.2547  0.2167 -0.1113
95319W        W38372  10.744  29.763  25.049 -0.1348 -0.0117  0.1839
95320W        W38373  29.262   1.712   1.970 -0.0169  0.1487 -0.0099
95321W        W38374  14.960  13.736  10.151 -0.1059 -0.1509  0.0426
95322W        W38375  14.455  19.908   5.844 -0.1381  0.1747  0.0965
95323W        W38376  24.363  20.838  15.133 -0.0054  0.3950 -0.0974
95324W        W38377   2.106   7.572  28.767 -0.0578  0.0293  0.2308
95325W        W38378  14.459   0.280  26.100 -0.0623 -0.1263 -0.3073
95326W        W38379  10.437   7.064   5.511  0.2996 -0.1083 -0.0652
95327W        W38380  13.432   3.156   8.835  0.0662  0.0454  0.0598
95328W        W38381   7.692  31.616   8.134 -0.0765 -0.3663 -0.3494
95329W        W38382  12.721  29.614  19.292 -0.0627  0.1751 -0.0403
95330W        W38383  12.505   1.860  23.087 -0.2270 -0.1085 -0.0828
95331W        W38384  14.053   9.567   7.449 -0.0178  0.0637 -0.0538
95332W        W38385   6.500  25.402  28.204 -0.0087 -0.2200 -0.0296
95333W        W38386   4.913  10.461   2.528  0.0609  0.1023 -0.2230
95334W        W38387  22.239   0.517  28.999  0.2832 -0.2304 -0.1656
95335W        W38388  20.207  33.708  15.460 -0.0941  0.1941 -0.1654
95336W        W38389   6.588  30.240  25.764 -0.2615 -0.1787 -0.2807
95337W        W38390   8.757  18.696   7.054  0.1030  0.0864  0.1701
95338W        W38391  22.028  29.705   9.660 -0.0190  0.2695 -0.1891
95339W        W38392  14.666  19.104   3.609  0.0471  0.2665  0.1940
95340W        W38393   4.539  28.639  16.303 -0.2520 -0.1028 -0.0130
95341W        W38394  13.721  22.659   7.578  0.0266  0.0144 -0.1575
95342W        W38395  29.721  25.720   3.550 -0.2953 -0.0490  0.1466
95343W        W38396  13.338  21.977   4.780  0.2312 -0.0729 -0.2820
95344W        W38397   4.765  26.423   9.352 -0.4199  0.2749 -0.0428
95345W        W38398  21.993   0.700   3.308  0.0097  0.2597 -0.2161
95346W        W38399  21.019  18.477  26.310 -0.0636  0.0903 -0.2694
95347W        W38400  14.167   5.769   7.727 -0.0700 -0.1593  0.0063
95348W        W38401  14.938  21.603   4.460  0.1808  0.1194  0.3468
95349W        W38402   1.355  26.417  23.953 -0.0576  0.1698 -0.1924
95350W        W38403  30.876   2.700   3.534  0.1112 -0.2893  0.0262
95351W        W38404   1.203  12.873  22.830 -0.1638  0.0763 -0.0794
95352W        W38405  21.409  27.299   8.379  0.2072 -0.1154  0.0189
95353W        W38406  16.316  28.884  26.627  0.2881 -0.0183 -0.3802
95354W        W38407   5.187  25.976   6.102 -0.0294 -0.0033 -0.0003
95355W        W38408  25.981  12.026  24.290 -0.1640 -0.3584 -0.0374
95356W        W38409   0.793   0.275  22.478 -0.4371  0.1283 -0.0342
95357W        W38410  23.370  32.105  10.314 -0.1133 -0.0560  0.0656
95358W        W38411  18.363  28.096  17.878 -0.1304 -0.0589 -0.2252
95359W        W38412  25.254   3.952  27.212 -0.2111 -0.4627  0.4346
95360W        W38413   1.302  21.006   7.829  0.3096  0.4112 -0.0663
95361W        W38414   8.551  25.396   3.966  0.0786 -0.3164 -0.3676
95362W        W38415  22.499   4.431  27.619  0.0578  0.6283  0.1195
95363W        W38416  16.975  21.374   2.684 -0.2941 -0.2115  0.1089
95364W        W38417  13.981  19.962   1.774 -0.0240  0.1214 -0.3722
95365W        W38418   7.066  32.048   3.198 -0.0542  0.2486 -0.0330
95366W        W38419   7.701  20.646   5.212 -0.0780 -0.3497 -0.1043
95367W        W38420   9.023   8.091  22.394 -0.1104  0.0467  0.1131
95368W        W38421  11.833  32.280   8.582  0.1148 -0.0982  0.0011
95369W        W38422  19.644  29.471  25.699  0.0413 -0.0869  0.0466
95370W        W38423  14.421  26.127   4.875  0.3923  0.0643  0.0253
95371W        W38424   5.304  33.756  26.375  0.0322  0.3367  0.0397
95372W        W38425  14.247   3.240  28.413  0.0028 -0.0506 -0.0359
95373W        W38426   7.406  24.592   6.230  0.2907  0.3170 -0.0899
95374W        W38427  11.228  10.228   5.013  0.0257 -0.3111  0.0775
95375W        W38428  26.031  14.254   8.507 -0.2581 -0.0022 -0.3213
95376W        W38429   3.260   6.234   5.569  0.0477  0.0174 -0.0969
95377W        W38430  14.933   3.605  14.524  0.2731 -0.1290  0.0010
95378W        W38431   3.065  20.081   8.159  0.1638  0.0994 -0.1016
95379W        W38432  12.526  11.658  28.228  0.0527 -0.3063  0.1684
95380W        W38433  23.982  28.583   1.399 -0.0613 -0.0727  0.0795
95381W        W38434   6.111  31.000  29.010 -0.1072  0.5062 -0.0022
95382W        W38435  26.113  26.822  28.320  0.3688  0.1296 -0.3156
95383W        W38436   7.302   6.007   4.442 -0.1139 -0.0005 -0.1412
95384W        W38437  23.708   5.083  15.306 -0.1672 -0.2264  0.1880
95385W        W38438  30.242   0.802  24.531 -0.0180  0.3306 -0.0754
95386W        W38439  24.562  28.741  24.892  0.0345  0.2141 -0.2706
95387W        W38440  26.300  25.535   1.977 -0.1531  0.2165  0.0579
95388W        W38441  18.373  23.181  17.675  0.2870  0.0733  0.0046
95389W        W38442  17.977  33.566  26.126 -0.1343 -0.3006 -0.2720
95390W        W38443  17.272  20.421   8.277 -0.1605  0.3641  0.1885
95391W        W38444   8.221  10.210   8.266  0.1167 -0.1513  0.1061
95392W        W38445  31.075  19.803   7.224  0.0658 -0.0062  0.1576
95393W        W38446  12.493  21.564  10.411 -0.1530 -0.4040  0.0497
95394W        W38447  20.464  23.448  22.663  0.0196  0.1461  0.2586
95395W        W38448  17.090  25.250  27.844 -0.1205 -0.2334 -0.0381
95396W        W38449  11.145   9.198   5.910  0.1727 -0.0376 -0.1038
95397W        W38450  30.846  19.348  22.358 -0.0073 -0.1314 -0.1719
95398W        W38451  28.987  26.490  23.970  0.3920 -0.3390 -0.0193
95399W        W38452   9.647  17.436   6.789 -0.2936 -0.2496 -0.1039
95400W        W38453  26.621  28.627   9.227  0.2331 -0.2585  0.2867
95401W        W38454  29.649  28.056  21.249  0.0204 -0.2804  0.2809
95402W        W38455   4.336  33.222  21.695  0.3266 -0.1053  0.1214
95403W        W38456  24.801  13.827   1.055  0.2168 -0.0231 -0.1250
95404W        W38457  22.199  22.947   5.162  0.1396  0.1251  0.1779
95405W        W38458   9.701   9.562   7.469 -0.0060  0.3325 -0.1012
95406W        W38459  13.328  26.132  29.195 -0.2043 -0.2050 -0.2160
95407W        W38460  12.524  32.009   4.798  0.1503  0.0846 -0.0530
95408W        W38461  30.033  19.357   0.456  0.0170  0.1475  0.0374
95409W        W38462   2.751  27.744   8.197  0.2464  0.0449  0.0389
95410W        W38463  27.667   4.281  18.527  0.1690  0.2225  0.2589
95411W        W38464   4.045  20.108   7.883  0.1447 -0.0574 -0.0128
95412W        W38465   0.459   3.935   0.431 -0.1092 -0.1078  0.0144
95413W        W38466  32.709   0.830   1.941  0.0679  0.2166 -0.0789
95414W        W38467  14.098  31.593  27.799 -0.1633 -0.2549  0.0557
95415W        W38468  16.919  11.661  24.342 -0.1841 -0.1584  0.0723
95416W        W38469  10.163  27.136   5.330 -0.2406 -0.0547  0.2357
95417W        W38470  15.327  22.149  26.432 -0.1883 -0.1120  0.1828
95418W        W38471  25.920   2.090  25.197  0.0205 -0.1422 -0.0747
95419W        W38472  24.448  20.296  17.002  0.0439 -0.1517  0.0184
95420W        W38473  15.466  33.992  29.141 -0.0392 -0.2626  0.0261
95421W        W38474   7.480   1.210   4.538 -0.0004  0.1267  0.1148
95422W        W38475  17.115  29.495  16.942 -0.2731  0.2000  0.0952
95423W        W38476   6.934  29.448  18.319 -0.0875 -0.0629 -0.1715
95424W        W38477   9.914  31.845   2.464  0.2707 -0.0635 -0.2512
95425W        W38478  20.609  11.973   5.240 -0.0562 -0.3508  0.1149
95426W        W38479  24.058  22.084  24.871  0.3199  0.2264 -0.2835
95427W        W38480   8.712  28.954   6.123 -0.0217  0.2348  0.1576
95428W        W38481  11.378  23.039   6.132  0.2667 -0.0420 -0.2787
95429W        W38482  34.283  24.725  25.675 -0.0438  0.1741 -0.0832
95430W        W38483   1.623  28.794   6.332 -0.0262 -0.0219  0.1985
95431W        W38484   2.141  25.226  13.904  0.1566 -0.0604  0.2621
95432W        W38485  17.478  12.666   9.715  0.0027  0.1338 -0.4529
95433W        W38486  20.931  18.024   8.333 -0.3988 -0.5600 -0.1202
95434W        W38487  14.062  18.713   8.211 -0.2609 -0.0067  0.1353
95435W        W38488   3.069   4.493   4.047 -0.1727  0.0628  0.0255
95436W        W38489  18.763  19.342  25.790 -0.1898  0.1717 -0.0280
95437W        W38490   4.314  15.989   1.079  0.0659 -0.1847 -0.2230
95438W        W38491  11.502  16.781   1.929  0.2509 -0.5337  0.1754
95439W        W38492   3.486  14.488  18.339 -0.0861 -0.0546  0.0137
95440W        W38493   0.311  15.155   9.264 -0.2152 -0.2391 -0.1336
95441W        W38494  18.678   0.676   7.713  0.1505 -0.1651 -0.0801
95442W        W38495  12.669  11.080   8.796  0.2933  0.0089  0.1568
95443W        W38496  15.063  19.505  21.798  0.0522 -0.1664 -0.1935
95444W        W38497  26.696   4.489  26.098  0.3391  0.1077 -0.2096
95445W        W38498  19.068  16.087   5.392  0.2738 -0.2625 -0.2647
95446W        W38499  20.352   7.019  10.215  0.0336  0.0581  0.2612
95447W        W38500   2.245  21.281   2.401 -0.0114 -0.2289  0.2617
95448W        W38501   2.040  34.113   9.473  0.0985  0.5218  0.0521
95449W        W38502   1.444  13.933  21.620 -0.0465  0.0306 -0.2700
95450W        W38503  10.363   9.370  24.827 -0.0241 -0.0508 -0.0950
95451W        W38504  15.556  27.863   5.704 -0.0720  0.1373  0.0945
95452W        W38505   0.701  17.771   2.705 -0.0042 -0.2636  0.1212
95453W        W38506  23.022   2.859  20.404  0.1663 -0.1629 -0.1890
95454W        W38507   1.758  23.292   0.040 -0.0315 -0.0385  0.0945
95455W        W38508  16.681  23.167   8.357  0.1498  0.1057  0.0392
95456W        W38509  19.331  17.763   4.432 -0.3423 -0.0926  0.1160
95457W        W38510  26.504  28.365   1.442 -0.2802 -0.2471 -0.0150
95458W        W38511  22.616  31.596   2.504  0.1590 -0.1960 -0.0684
95459W        W38512  16.569   8.840   9.214 -0.1115 -0.1174  0.0722
95460W        W38513   9.378  32.862   1.184  0.0855 -0.6187 -0.2022
95461W        W38514   5.822  32.817  27.384  0.1370  0.1118  0.2409
95462W        W38515  17.369   1.472  14.854 -0.1812 -0.0746 -0.2761
95463W        W38516  18.006  24.443   3.260  0.0387 -0.0088  0.0688
95464W        W38517   0.403  27.198   7.599 -0.1521  0.0085  0.2511
95465W        W38518  15.268  34.184   6.056 -0.0107 -0.1124  0.1059
95466W        W38519  15.387  28.974   2.373 -0.0901 -0.0079 -0.1243
95467W        W38520   7.052   4.905   2.914 -0.1410  0.0760 -0.0108
95468W        W38521  20.320  10.039   2.849 -0.1403  0.1083  0.3277
95469W        W38522   8.663  26.308   1.382 -0.0157 -0.1471  0.0285
95470W        W38523   0.966  26.288  26.200 -0.0213  0.3135  0.0506
95471W        W38524  23.672   8.177   4.838 -0.1906  0.0331 -0.1518
95472W        W38525   6.368  21.970  21.640  0.1418  0.1205  0.0180
95473W        W38526  33.783  14.061  27.133  0.0418  0.1218 -0.1709
95474W        W38527   9.363   0.331   5.336 -0.1324 -0.1294 -0.2030
95475W        W38528   2.999   2.006   5.896 -0.0079  0.1123  0.3140
95476W        W38529  10.502  31.251  25.116  0.2408  0.0533 -0.1446
95477W        W38530  13.321   0.485  20.080 -0.2060  0.1538  0.0882
95478W        W38531  13.125  32.670  28.893  0.1734  0.2085  0.0579
95479W        W38532  11.613   4.456   6.967  0.0378  0.0656  0.1629
95480W        W38533  19.084  21.063   0.402  0.0820  0.1412 -0.3290
95481W        W38534  31.954  32.038  23.649  0.0650 -0.1277 -0.3396
95482W        W38535  20.640  20.112  10.199 -0.1415 -0.0095  0.1679
95483W        W38536   3.747  31.368   9.019 -0.1881  0.1316  0.1879
95484W        W38537  12.520  27.251   2.888  0.1250 -0.0469  0.1100
95485W        W38538  22.690  22.431  16.469 -0.0208  0.1447 -0.2269
95486W        W38539  16.718  26.968   4.079  0.1395  0.0956  0.0094
95487W        W38540   8.694  14.212   2.459 -0.2922  0.0129  0.0222
95488W        W38541  12.850  28.006  28.654 -0.1867  0.0154 -0.0778
95489W        W38542  23.063  19.449   1.468 -0.4576 -0.1784 -0.0950
95490W        W38543  14.173  19.092  10.176 -0.0386  0.1205  0.2025
95491W        W38544  14.545  30.319  25.533 -0.0754 -0.0374 -0.1111
95492W        W38545  11.610  25.342   4.604  0.1693 -0.1427  0.1165
95493W        W38546  15.463  17.537   6.125 -0.0324 -0.3191 -0.0573
95494W        W38547   3.260  32.672   6.675 -0.0987  0.1817  0.0784
95495W        W38548   5.191   0.061  28.444  0.1970 -0.1204 -0.0873
95496W        W38549  12.925  27.322   8.250  0.1540  0.0895 -0.2543
95497W        W38550  16.851  15.430   3.884  0.3851  0.1356 -0.0550
95498W        W38551  13.602   9.625  10.388  0.0295 -0.0568  0.3047
95499W        W38552   9.939  31.768  28.918 -0.1220  0.0645 -0.1624
95500W        W38553  13.983  33.541   6.175 -0.1703  0.0247 -0.3077
95501W        W38554  19.531   9.420   6.674 -0.1176 -0.0152  0.1367
95502W        W38555   6.129  17.344   5.921  0.2565 -0.1253  0.4075
95503W        W38556  25.726   7.430  26.452  0.2596  0.3609 -0.2760
95504W        W38557   5.912  23.712   8.051 -0.0509  0.1392  0.2527
95505W        W38558  21.113  24.864  10.217  0.0302  0.3920  0.0563
95506W        W38559  23.047  31.860   2.211 -0.0691  0.2837  0.1323
95507W        W38560  15.344  16.718  26.112 -0.0286  0.2086  0.1316
95508W        W38561  21.793  23.408   7.793  0.2475  0.0358 -0.2510
95509W        W38562  23.318   8.260   1.874  0.3968 -0.0895 -0.0496
95510W        W38563   3.773  15.930  28.073  0.1799  0.4010  0.1342
95511W        W38564  13.720  12.163   7.099 -0.0168  0.2143 -0.2458
95512W        W38565  16.689  14.157   6.464 -0.0017 -0.0684 -0.2142
95513W        W38566  18.153  24.736   7.945  0.1406  0.0992  0.0641
95514W        W38567   7.290  17.320  29.150  0.0693 -0.1570  0.0193
95515W        W38568  22.946   8.985   0.909 -0.3632 -0.0591  0.0200
95516W        W38569  19.549  14.671   3.670  0.4692 -0.2369  0.1368
95517W        W38570  14.673  11.815   7.037  0.2095 -0.6029  0.1014
95518W        W38571  16.570  29.507  24.326 -0.0201  0.0731  0.1049
95519W        W38572  16.263  18.245   2.050  0.1807 -0.0858  0.0280
95520W        W38573  14.712   3.951   5.688  0.0810 -0.2699  0.1859
95521W        W38574   9.874   5.006  24.099 -0.3929  0.2181  0.1117
95522W        W38575  13.796  25.489   4.236 -0.0127 -0.0665  0.1566
95523W        W38576  19.390  30.155   8.376  0.1013  0.1745  0.1462
95524W        W38577  11.341  31.055   5.337  0.0021  0.0312 -0.0263
95525W        W38578  11.698  16.474   6.661 -0.1938 -0.0590  0.0949
95526W        W38579  20.445  31.284  22.316  0.1318  0.0065 -0.3821
95527W        W38580  14.638  24.226   4.710  0.1675 -0.1439 -0.1291
95528W        W38581  21.014  22.580   2.879  0.0104 -0.1848  0.1543
95529W        W38582  14.006  21.286   2.305  0.0002  0.1010  0.0830
95530W        W38583  14.225  24.538   9.990  0.2120  0.0282 -0.1305
95531W        W38584  25.277  27.214   2.254  0.2843  0.1064  0.2131
95532W        W38585  23.930   7.425   7.468 -0.4239 -0.1507 -0.4651
95533W        W38586  18.451  26.741   8.281  0.1067 -0.0537 -0.0031
95534W        W38587  34.600  27.654   1.393  0.1904 -0.1168 -0.1869
95535W        W38588  15.591   5.373  28.779  0.2893 -0.3493  0.1323
95536W        W38589  11.893  25.163   7.111 -0.2128 -0.0320 -0.0566
95537W        W38590  16.692  25.597   2.662  0.4486 -0.1852 -0.1490
95538W        W38591  10.096  32.155  22.806  0.0274 -0.0346  0.0290
95539W        W38592  14.557  20.076  29.046  0.0333 -0.3755 -0.2361
95540W        W38593  20.162  33.900   1.631 -0.2628  0.0372  0.4388
95541W        W38594  19.473  24.641  16.594  0.3399  0.1141 -0.1110
95542W        W38595  10.611  27.786   2.787 -0.0341 -0.0611 -0.1231
95543W        W38596   1.803   8.088  23.160 -0.1450 -0.1441 -0.1002
95544W        W38597   0.888  22.325   4.990 -0.3058  0.0880  0.2811
95545W        W38598   6.711  32.601  27.771  0.2554  0.1045 -0.0593
95546W        W38599   2.790   7.487   2.533 -0.1748 -0.0873 -0.0420
95547W        W38600  25.207  14.030   5.856 -0.0213  0.1386  0.0216
95548W        W38601  10.449  34.633   9.682 -0.2655  0.1732 -0.2027
95549W        W38602  31.906   7.349  17.328  0.1716  0.0287 -0.1714
95550W        W38603  32.442  24.147   5.802 -0.0813 -0.4330  0.0902
95551W        W38604  33.858  25.035   7.664 -0.1230 -0.2722  0.2370
95552W        W38605   4.620  27.263   7.342 -0.2909 -0.0159 -0.0331
95553W        W38606  18.719  32.160   3.039  0.0224  0.0247  0.3106
95554W        W38607   3.393  23.423   5.588  0.4659  0.0112  0.4336
95555W        W38608   1.082  27.518  26.131 -0.0293  0.0097  0.0490
95556W        W38609  10.565  26.486   0.568  0.2315 -0.2650 -0.3003
95557W        W38610  21.135  31.183   3.544 -0.1521  0.2545 -0.2864
95558W        W38611   9.776   4.130  28.913  0.3448  0.4021  0.0284
95559W        W38612  22.757   4.653   1.072  0.0420 -0.0790  0.2715
95560W        W38613  32.695  27.356   9.236 -0.0065  0.2538  0.2462
95561W        W38614  20.697  30.855  28.283 -0.0865 -0.0050  0.0706
95562W        W38615   5.790  24.860   2.255  0.0312  0.1745  0.1807
95563W        W38616  17.488  25.962   6.763 -0.2713 -0.2051  0.0071
95564W        W38617  11.448  20.989  10.351  0.1933  0.0576 -0.1761
95565W        W38618   5.228  25.039   8.758  0.0918  0.2633  0.2657
95566W        W38619  21.983  31.346   9.520  0.0265  0.3835  0.2524
95567W        W38620  13.106  17.555  25.932 -0.0847 -0.3011  0.0843
95568W        W38621   1.245  15.692   5.618 -0.0652  0.2297 -0.1192
95569W        W38622   2.166  11.705   3.760 -0.2360  0.1425 -0.1253
95570W        W38623   7.185  15.528  29.134  0.1655 -0.0435 -0.0700
95571W        W38624  12.877  12.910   9.674  0.3083 -0.0407 -0.1647
95572W        W38625   9.185  17.428  22.813  0.0872 -0.0173  0.3087
95573W        W38626   6.082  31.836   2.553 -0.2674 -0.3041 -0.1843
95574W        W38627  15.455  15.372  23.429  0.0104  0.0578  0.2110
95575W        W38628  20.978   4.834   6.674  0.1701  0.0975  0.2213
95576W        W38629  17.375  27.494   4.179 -0.0283  0.1294  0.1417
95577W        W38630  29.518  16.905  26.076 -0.2429 -0.2880  0.0053
95578W        W38631   8.495   5.940   6.714 -0.0453 -0.2033 -0.2602
95579W        W38632  25.914   2.526  26.837  0.0190  0.1538 -0.0322
95580W        W38633   4.062  26.415  22.123 -0.0329  0.0956 -0.2441
95581W        W38634  16.790  34.119  22.996 -0.0127 -0.2341  0.4383
95582W        W38635  14.132   4.801   6.582  0.2850 -0.0682  0.1675
95583W        W38636  26.332  17.574   5.004 -0.2481  0.1586 -0.1204
95584W        W38637  20.726  11.294   5.581  0.1401  0.0749  0.1730
95585W        W38638  23.009  32.568   8.087 -0.2425 -0.2742  0.1641
95586W        W38639   4.062  23.438  26.922  0.3535  0.3236  0.1912
95587W        W38640  15.977  15.599  28.253  0.1013 -0.3257  0.1116
95588W        W38641  27.145  26.760   4.961 -0.0959 -0.0764 -0.0199
95589W        W38642  32.759  23.223  19.651 -0.1371 -0.1654 -0.1561
95590W        W38643  31.649   0.137   7.292 -0.0612 -0.0290 -0.1906
95591W        W38644   4.763  23.359  21.059  0.2804 -0.3326 -0.1983
95592W        W38645  14.280  17.788  27.728 -0.0037  0.1143 -0.1176
95593W        W38646  25.124  33.606   9.668  0.1143 -0.1063 -0.2484
95594W        W38647   3.835  28.988  16.976  0.1374 -0.2223 -0.0249
95595W        W38648  27.915  28.520  10.445 -0.0174  0.0645 -0.1526
95596W        W38649  22.002  27.038  19.393 -0.0970  0.0189  0.2407
95597W        W38650  17.754  28.865   1.460  0.0096  0.0420  0.1704
95598W        W38651  34.539  33.811   7.214 -0.1069  0.2449  0.1932
95599W        W38652   6.607  25.871   8.004  0.0544  0.0399 -0.0033
95600W        W38653  12.524  23.925   7.524 -0.0956 -0.0666 -0.1051
95601W        W38654  23.655  32.184  23.710 -0.1820 -0.2746  0.0219
95602W        W38655  17.900   7.197   4.662  0.0859 -0.0821 -0.0385
95603W        W38656   7.055  25.215  22.545 -0.2086  0.0060 -0.0009
95604W        W38657  16.692   1.029  19.637 -0.1604  0.1486  0.3145
95605W        W38658  18.408  30.492   7.722 -0.0408 -0.3299  0.1805
95606W        W38659  23.672  21.050   4.912  0.0398  0.1177 -0.3108
95607W        W38660   5.462   4.493   7.190  0.0609 -0.0853 -0.0894
95608W        W38661  11.776  31.422   5.611 -0.1132  0.0700 -0.2083
95609W        W38662  13.342  29.335  28.609 -0.0577 -0.0375 -0.1247
95610W        W38663  18.300  22.985  26.985 -0.4997 -0.2735  0.1355
95611W        W38664  16.721  19.538   5.167 -0.1917  0.6916  0.0694
95612W        W38665  12.755  33.086  17.548 -0.1816 -0.1847 -0.0552
95613W        W38666  34.655   8.171  23.896  0.0789 -0.1589  0.2374
95614W        W38667  17.242   2.070   3.357  0.0532  0.2783  0.0110
95615W        W38668   0.424  15.928   6.288 -0.1174  0.0145  0.2674
95616W        W38669  20.216  27.365  11.280 -0.0418  0.2240 -0.2859
95617W        W38670   5.421  19.753   9.116 -0.0237  0.0057 -0.2734
95618W        W38671  25.928  25.536  20.016 -0.1639 -0.2168  0.2258
95619W        W38672  19.089  34.333  10.073  0.2008  0.1690  0.2410
95620W        W38673  15.833  29.953  28.488  0.1530  0.3959 -0.0386
95621W        W38674  20.675  18.210   4.299 -0.2167 -0.0108  0.1480
95622W        W38675  17.368  10.915   7.112 -0.0702 -0.0476  0.0902
95623W        W38676  17.248  30.615  24.782  0.3599 -0.1912  0.0425
95624W        W38677  13.683  32.516  10.177  0.2478 -0.0319 -0.1059
95625W        W38678  34.397  23.125   4.746 -0.0493 -0.1810 -0.1052
95626W        W38679  25.712  26.280  27.557  0.2013 -0.0503  0.2588
95627W        W38680  27.704   1.161  27.501 -0.2214  0.0723  0.0627
95628W        W38681  23.322  33.321   1.735 -0.2220 -0.3391 -0.0119
95629W        W38682   5.759  18.537   8.223  0.1710  0.2117  0.0134
95630W        W38683  15.549  22.576   6.719  0.0286  0.2945  0.0945
95631W        W38684  12.068  33.172   5.597 -0.3267 -0.2236  0.0818
95632W        W38685  19.950  25.701   1.818 -0.0485  0.0945  0.1376
95633W        W38686  19.155  33.428   4.237  0.0654  0.0381 -0.0374
95634W        W38687  15.671   2.623   3.500 -0.3099  0.1219  0.0047
95635W        W38688  15.104  11.117  17.839  0.0256  0.0968  0.0113
95636W        W38689  23.719  21.740   9.793 -0.2289  0.2415  0.0996
95637W        W38690   8.762  33.154   6.686 -0.3176  0.2164  0.0809
95638W        W38691  13.288  14.716   0.279 -0.3360  0.0134  0.2193
95639W        W38692  10.608  28.588   2.492  0.0135 -0.1044  0.1360
95640W        W38693  19.349   6.314   2.457 -0.0439 -0.3695 -0.2454
95641W        W38694  18.998  21.730  10.195  0.1361 -0.1796 -0.1721
95642W        W38695  11.358  19.411  20.308  0.4294 -0.3223  0.0105
95643W        W38696  20.205  30.889  15.612  0.0642  0.0399  0.0628
95644W        W38697  13.233  29.123  17.182  0.1180  0.2100 -0.2911
95645W        W38698  20.877  32.202   9.026 -0.0928  0.2449 -0.0662
95646W        W38699  13.628  11.655  28.888  0.0992  0.0522 -0.1473
95647W        W38700  33.189  26.565   8.410  0.0726  0.0016 -0.1016
95648W        W38701   2.913  20.379   3.374 -0.1316 -0.2828  0.1292
95649W        W38702  33.769   5.017  24.182 -0.1300  0.1782 -0.2469
95650W        W38703  15.240  20.970  27.789 -0.0143  0.1839  0.0667
95651W        W38704  28.795  29.190   4.456 -0.2043  0.0808 -0.0116
95652W        W38705  19.858  32.078   7.406 -0.2132  0.1889 -0.2888
95653W        W38706  32.581  25.615  22.324  0.2059  0.2806  0.0025
95654W        W38707  12.492   2.849   0.302  0.1698 -0.3161 -0.1385
95655W        W38708  22.311  25.393   0.393  0.1166 -0.0629 -0.4702
95656W        W38709  12.983  11.574   8.800  0.0244  0.0531  0.0118
95657W        W38710  18.083  16.943   2.638 -0.2172  0.3200 -0.1944
95658W        W38711  16.164  27.371   2.401  0.0518  0.3029  0.2574
95659W        W38712  19.966  18.082   1.802 -0.2585  0.2179 -0.0890
95660W        W38713  13.729  14.570   6.434  0.0354 -0.3327  0.3029
95661W        W38714  20.608  17.729  28.130  0.2579 -0.4358  0.0015
95662W        W38715   3.110  22.324  28.866  0.3882  0.1028 -0.1248
95663W        W38716  12.364  20.175   0.111 -0.2763  0.0387 -0.1630
95664W        W38717   4.482  27.472   4.899  0.1582  0.1341 -0.0757
95665W        W38718  15.656  16.029   4.730 -0.0504 -0.0904 -0.0369
95666W        W38719   4.026  31.111   0.036  0.1140 -0.2002  0.0994
95667W        W38720  20.103  16.095   2.530  0.1070 -0.1196  0.2707
95668W        W38721  25.040   5.470  27.852 -0.3642  0.1601  0.0930
95669W        W38722   0.772  31.389  26.397 -0.3562  0.0610  0.1185
95670W        W38723  15.050  18.509   2.820  0.1277 -0.1872 -0.2642
95671W        W38724  13.720  25.288   8.566  0.2107  0.0529  0.0134
95672W        W38725  26.042  10.203   9.113 -0.0220  0.1394 -0.0253
95673W        W38726  22.310  29.989  20.127  0.0321 -0.0405 -0.0580
95674W        W38727  12.177  13.845   6.962  0.2093 -0.0644  0.0525
95675W        W38728   7.340  19.136   3.187  0.3107 -0.2049 -0.2581
95676W        W38729   2.868  20.824  23.491 -0.0496  0.0109  0.1188
95677W        W38730  15.394  30.840   5.509 -0.1164 -0.1049 -0.2290
95678W        W38731   0.142  24.461   0.661 -0.1801 -0.1783 -0.0161
95679W        W38732   1.806  21.458   8.397 -0.0534 -0.0546  0.0803
95680W        W38733   4.483  11.205   3.706 -0.1402 -0.0948  0.1989
95681W        W38734  16.672  20.033   5.848  0.2794  0.1499  0.0845
95682W        W38735  26.471  16.139   0.783  0.3142 -0.2445  0.0843
95683W        W38736  24.435   0.134  20.519 -0.0542 -0.1386 -0.0917
95684W        W38737  24.811  32.916   3.479  0.1102  0.0606  0.0082
95685W        W38738   8.947  13.275   4.741 -0.2250  0.0979 -0.1346
95686W        W38739   3.173   7.913   6.082 -0.0723 -0.0154  0.1605
95687W        W38740  17.200  21.392  26.896 -0.2985  0.0486  0.3000
95688W        W38741  18.204  21.157  24.301  0.1387 -0.0419  0.0640
95689W        W38742   8.490  13.103  17.580 -0.2862  0.1023  0.0910
95690W        W38743  27.017  13.970   7.670 -0.0296 -0.2940  0.0265
95691W        W38744   7.968  10.486  25.196 -0.1476  0.0589  0.5351
95692W        W38745  14.237  23.440   8.592  0.3517 -0.2231  0.1002
95693W        W38746   2.579  23.512   7.378 -0.0700  0.3803 -0.3562
95694W        W38747  33.270  21.114   6.903  0.2266 -0.1241  0.2403
95695W        W38748  19.857  23.962   3.534 -0.1793 -0.0818  0.0759
95696W        W38749  20.612  30.947   7.688  0.1178  0.0219  0.1568
95697W        W38750  34.517   2.703  24.877 -0.1615  0.0619 -0.2189
95698W        W38751  15.253   1.559  24.067 -0.2205 -0.0131 -0.0418
95699W        W38752   8.247   2.344   4.872 -0.0539  0.2739 -0.0633
95700W        W38753   6.351  20.593  23.281  0.0476 -0.1187  0.1902
95701W        W38754  16.617  27.767   7.574 -0.1225 -0.2526  0.5542
95702W        W38755  13.173  12.772   6.191 -0.1803 -0.2705  0.0549
95703W        W38756  11.061  25.648   6.329  0.2095  0.0965 -0.2209
95704W        W38757   0.435   0.093  17.334 -0.1726  0.1394 -0.1991
95705W        W38758  22.300  28.556  25.147 -0.0415 -0.0414  0.0683
95706W        W38759  27.716   2.317   5.639  0.1144 -0.2342 -0.2504
95707W        W38760  27.271  27.173  24.477  0.0074  0.1363 -0.1749
95708W        W38761   7.007  24.989   1.009 -0.2476 -0.0036  0.2725
95709W        W38762  15.315  22.075   5.844 -0.0643 -0.3889 -0.1508
95710W        W38763  12.989  18.391  28.596 -0.0977 -0.0837  0.1630
95711W        W38764   9.865  22.952  14.286 -0.1185  0.0568 -0.0118
95712W        W38765  18.505  28.716   9.072 -0.3023  0.0822  0.0343
95713W        W38766  14.958  29.032   6.425 -0.1241 -0.2316 -0.2273
95714W        W38767  27.862   4.057   8.650 -0.0726  0.1410 -0.3212
95715W        W38768  13.483  32.456   1.142 -0.3534 -0.2598 -0.2586
95716W        W38769  23.242  29.529   9.044  0.4888 -0.1055 -0.0332
95717W        W38770  28.113  25.306  27.994 -0.0177  0.2703 -0.0936
95718W        W38771  10.057  27.435   8.974 -0.3931 -0.1293  0.0447
95719W        W38772  33.593  27.474   5.502  0.0464 -0.2979 -0.0133
95720W        W38773   2.150  20.889  10.118 -0.0743  0.0121  0.1466
95721W        W38774  17.679  25.660  10.335  0.2650  0.0196 -0.0955
95722W        W38775  16.347   3.559  24.727  0.2453 -0.0841  0.3472
95723W        W38776  15.514   1.195   0.277  0.1032 -0.3853  0.2461
95724W        W38777   3.849  21.643   6.369  0.1028 -0.2590  0.1025
95725W        W38778  28.512  20.062   5.720  0.2603 -0.3729  0.0681
95726W        W38779  15.538  20.693   1.797  0.1602  0.1077  0.1155
95727W        W38780   4.844  25.528   5.004 -0.0274 -0.2856  0.2552
95728W        W38781  32.032  13.335   7.597  0.4479  0.0307  0.0841
95729W        W38782  34.221  28.987   3.185 -0.2856 -0.0229 -0.2214
95730W        W38783  23.209  30.535   7.948 -0.0617 -0.0273  0.0549
95731W        W38784  10.904  29.103   2.423  0.1149 -0.0306  0.3176
95732W        W38785  26.357   2.665  22.646  0.1112  0.0703  0.0162
95733W        W38786  25.441   4.965   2.324 -0.0633 -0.1905 -0.0841
95734W        W38787  25.679   4.860   1.143  0.0266  0.2822  0.0249
95735W        W38788   6.523  34.445   9.066  0.1834 -0.2150 -0.0913
95736W        W38789  12.483  14.155  22.323  0.2182 -0.0435 -0.2861
95737W        W38790  10.352  28.743   3.792 -0.0004  0.2372  0.0195
95738W        W38791   6.363  29.174  28.472 -0.0262 -0.0245 -0.0112
95739W        W38792  34.150  11.183   3.618 -0.2133 -0.0997  0.2610
95740W        W38793  14.827   6.327  22.837 -0.1063 -0.0495 -0.2545
95741W        W38794  11.305  23.331  26.422  0.4061 -0.1136 -0.2412
95742W        W38795  22.974  11.521   2.194 -0.0239 -0.0993 -0.0050
95743W        W38796  16.201  17.610   4.982  0.2311 -0.3184 -0.0393
95744W        W38797   4.483  30.626   5.852 -0.2703 -0.0248 -0.1147
95745W        W38798   9.267  17.520   9.090 -0.2490 -0.1139 -0.0539
95746W        W38799  22.085  29.916   5.839  0.2141  0.1776  0.3183
95747W        W38800  13.777  25.709   8.104 -0.2889 -0.0161  0.1424
95748W        W38801  14.772  20.544  15.272  0.0186 -0.3718  0.1153
95749W        W38802  15.039   1.550   9.318  0.1809 -0.0247  0.0549
95750W        W38803   2.956  10.785   7.072 -0.2013 -0.0232 -0.0380
95751W        W38804   4.782  19.175   3.321 -0.1331 -0.0936  0.4944
95752W        W38805  24.169  21.341   3.177  0.0654  0.1005 -0.0094
95753W        W38806  20.224  30.937  27.059  0.3066 -0.2196  0.0310
95754W        W38807  10.240   2.617   4.913 -0.4811  0.1530 -0.0387
95755W        W38808  25.070  23.917  10.068  0.1428 -0.1828  0.1660
95756W        W38809   8.672   0.916   8.505  0.3333 -0.1577  0.3820
95757W        W38810  34.284  22.285   3.273  0.1927  0.1844  0.2106
95758W        W38811   3.352  17.800  27.980 -0.0484 -0.5700 -0.6450
95759W        W38812  32.070  23.108  27.003 -0.1534  0.1564 -0.0485
95760W        W38813  12.235  15.817   5.920 -0.5022  0.0170  0.1922
95761W        W38814  23.705  14.765   8.811  0.4062  0.2054 -0.1278
95762W        W38815  13.138  17.830  20.351 -0.3491 -0.1227  0.2545
95763W        W38816   8.765  11.866   6.340  0.0848  0.0242  0.0293
95764W        W38817   4.427   5.582   8.209 -0.0907 -0.0708  0.3064
95765W        W38818   8.609  27.826   8.455 -0.2164  0.1826  0.0067
95766W        W38819  27.959  26.711   8.506 -0.1462  0.0268 -0.1650
95767W        W38820  31.838  29.583   6.597  0.0568 -0.1875  0.0630
95768W        W38821  25.036  20.393  21.324  0.1274  0.0034  0.2199
95769W        W38822  19.049  11.857  25.154 -0.0404 -0.3029 -0.1944
95770W        W38823  18.562   1.499  15.462 -0.0025  0.2037 -0.1863
95771W        W38824  13.317  21.963  25.383 -0.0568 -0.2497  0.0141
95772W        W38825  11.630  31.617   9.269  0.1211  0.2203 -0.1846
95773W        W38826  14.730  19.796  14.578  0.2884 -0.1273  0.3584
95774W        W38827  21.384  22.872   9.825 -0.0001  0.1230  0.0370
95775W        W38828   3.571  22.154  27.550  0.2557 -0.2430 -0.0525
95776W        W38829  19.361   1.967  23.126 -0.0828  0.1701 -0.1909
95777W        W38830  12.718  20.084  25.123  0.3594  0.1596 -0.1171
95778W        W38831   7.705  24.900   1.398 -0.0329  0.2174  0.0588
95779W        W38832   7.983  19.082  22.853 -0.0717  0.0822  0.1308
95780W        W38833  25.475  29.708  10.076  0.0409 -0.3198 -0.0101
95781W        W38834  31.034  31.727   6.871 -0.0291 -0.0547  0.0117
95782W        W38835   9.991  23.501  27.303 -0.2549  0.1300 -0.2729
95783W        W38836  14.291  29.557   1.007  0.0865  0.2202 -0.3046
95784W        W38837  16.739  16.043  10.081 -0.0890  0.1987 -0.4303
95785W        W38838  20.676  18.568   7.258 -0.0940 -0.1813 -0.3254
95786W        W38839  21.331  23.176  23.851  0.1418  0.0934 -0.1144
95787W        W38840  17.583  21.247   1.888  0.2242  0.0524 -0.0427
95788W        W38841  13.073  19.232   3.106 -0.4104 -0.1278 -0.2937
95789W        W38842  18.913   3.207   4.205 -0.0796 -0.0167  0.1745
95790W        W38843  12.728  22.875   0.216 -0.1321 -0.1769 -0.0382
95791W        W38844  20.321  20.742   5.093  0.1053  0.0824 -0.1909
95792W        W38845   3.291   3.957  21.669 -0.0576 -0.3173  0.0254
95793W        W38846  19.417  30.522  22.185  0.0431  0.0017  0.0415
95794W        W38847  25.265  22.776   0.388 -0.4087  0.0350 -0.4425
95795W        W38848   9.688  23.027  29.168 -0.0968 -0.0587  0.0517
95796W        W38849   7.240  14.858  27.135  0.0931 -0.3748 -0.0887
95797W        W38850  20.757  28.530   9.727  0.1920  0.1879 -0.1039
95798W        W38851   5.196  22.519  22.404 -0.2500  0.1911  0.0661
95799W        W38852  13.880   9.282  10.031  0.0782  0.1209 -0.4659
95800W        W38853   3.287  11.271   0.441  0.1242  0.0531  0.1082
95801W        W38854   8.921  31.876   1.984  0.0426 -0.2170 -0.0043
95802W        W38855  15.659  27.941   6.849  0.1790  0.0098 -0.2265
95803W        W38856  11.947   6.274   3.411 -0.2983 -0.3220 -0.0201
95804W        W38857  18.532  24.733  26.396 -0.3180  0.3049  0.0397
95805W        W38858  11.164   8.824   6.305 -0.0109 -0.0991  0.2012
95806W        W38859  12.612   7.051  24.946  0.2429  0.4012  0.1627
95807W        W38860   3.407  26.620   3.387 -0.2729 -0.3362  0.0665
95808W        W38861  13.904  14.359   0.213  0.1416  0.0532  0.3010
95809W        W38862  16.843  18.469   0.861  0.2371 -0.1044  0.0000
95810W        W38863  19.431   7.173  19.890 -0.0083 -0.1399 -0.3314
95811W        W38864  13.381  19.573   9.906 -0.3978 -0.1922  0.0563
95812W        W38865   9.981  27.059   6.755  0.0784  0.4798 -0.0829
95813W        W38866  18.063  16.169   8.568  0.0899  0.2235  0.0077
95814W        W38867  19.683  33.405  24.442  0.4359  0.1211 -0.2914
95815W        W38868  18.244  23.101   2.306 -0.0282  0.0661  0.0736
95816W        W38869  20.637  17.885   9.956  0.2178 -0.0644 -0.0130
95817W        W38870  12.316  16.597  27.262 -0.4098 -0.2927 -0.2949
95818W        W38871   3.149  22.097  14.927  0.2655  0.0549 -0.0454
95819W        W38872  18.541  12.173   7.924 -0.3538  0.0768  0.2246
95820W        W38873  11.198  30.865  28.948  0.1637 -0.0095  0.0358
95821W        W38874   8.351  16.391   9.746 -0.0951  0.2027  0.3893
95822W        W38875  13.068  19.668   7.223  0.0087  0.0174 -0.0878
95823W        W38876   0.803  26.307   1.045  0.2591 -0.0598  0.0347
95824W        W38877   5.498  22.162   5.180  0.0180 -0.2540  0.0671
95825W        W38878  16.088  24.298   6.266 -0.0182  0.1735  0.0581
95826W        W38879  14.614   2.270  19.250 -0.3473  0.1695  0.0648
95827W        W38880  20.921  19.928  27.718  0.0968 -0.1465 -0.2602
95828W        W38881   3.398  30.812  22.139  0.2837  0.1277  0.0883
95829W        W38882  27.748  28.165   9.302 -0.1461 -0.2224 -0.0964
95830W        W38883  20.058  22.625   3.061  0.2881 -0.2157  0.2255
95831W        W38884  22.522  21.918  24.818 -0.4260 -0.1600  0.1437
95832W        W38885   7.667  33.795   1.444 -0.0714 -0.4737 -0.0170
95833W        W38886  13.143  19.557  25.421  0.0450 -0.2591 -0.0366
95834W        W38887   8.695  33.837   2.397 -0.0433 -0.2373  0.3657
95835W        W38888  15.458  14.334   9.572  0.3801 -0.0705 -0.1277
95836W        W38889   5.989  14.459  20.197  0.0350 -0.1793 -0.0690
95837W        W38890   3.341  29.491   2.423 -0.0391 -0.1476 -0.1683
95838W        W38891   3.719  19.040  27.718 -0.1947  0.0402 -0.1663
95839W        W38892   9.530  30.564   3.273 -0.0257 -0.2112  0.3573
95840W        W38893   5.878  11.403   3.059  0.1828  0.0286 -0.0172
95841W        W38894  15.071  26.704   9.317  0.1229 -0.1944 -0.0065
95842W        W38895  10.052  28.372   4.561 -0.1335 -0.1049 -0.2391
95843W        W38896  29.916  11.352   7.870  0.1118 -0.2505  0.2793
95844W        W38897   8.116  34.246   6.612  0.0042  0.2930  0.1474
95845W        W38898  13.355  25.611   7.130  0.0147  0.2510  0.0647
95846W        W38899   3.992  18.729   9.723  0.0321 -0.0251 -0.1407
95847W        W38900   7.377   8.051   6.521 -0.1959  0.0427  0.3646
95848W        W38901  33.558  12.805   2.682 -0.0695  0.0530 -0.4291
95849W        W38902   6.664  13.506  18.064  0.1329 -0.2800 -0.0382
95850W        W38903   8.528  17.403   3.775  0.1574 -0.0986 -0.2458
95851W        W38904  14.993  18.619  23.239 -0.1284 -0.0209  0.1169
95852W        W38905  27.929  33.061   3.265 -0.0484  0.2622  0.1329
95853W        W38906   2.152  28.002  27.970 -0.1016 -0.1086 -0.0230
95854W        W38907  25.304  20.327   9.136 -0.0062  0.1764  0.2425
95855W        W38908  14.460  17.169  16.692  0.3324 -0.0149 -0.4584
95856W        W38909   0.382  22.579   5.907 -0.0666 -0.1835 -0.1426
95857W        W38910   8.930  33.187  24.851  0.0839 -0.0612  0.3058
95858W        W38911  10.573  17.859   3.750 -0.2072  0.3724 -0.2053
95859W        W38912  29.362  34.409   4.190  0.1651  0.0317 -0.0874
95860W        W38913  14.240  33.122   0.227  0.0483  0.0047 -0.4997
95861W        W38914  13.244  26.970   5.399  0.1464 -0.1604 -0.0059
95862W        W38915   0.315  29.796   7.887 -0.2347  0.1950 -0.2279
95863W        W38916  20.902  19.315  26.102 -0.0632 -0.0522  0.2676
95864W        W38917  19.861   2.750   0.251 -0.1500 -0.0227  0.1386
95865W        W38918  19.165  25.563  27.617  0.1908  0.0704  0.0851
95866W        W38919  13.414  34.604  18.624  0.0551 -0.1038 -0.0219
95867W        W38920   1.915  24.879   8.137  0.1784 -0.5125  0.0036
95868W        W38921  20.375  22.102   8.713 -0.4850 -0.0000  0.0421
95869W        W38922  26.119  23.044   3.364  0.1303  0.1304 -0.1245
95870W        W38923  12.594  23.073   4.685 -0.0523 -0.1692 -0.0737
95871W        W38924   1.279   7.933   7.573  0.0180  0.4760 -0.0430
95872W        W38925   4.195  18.983   8.158  0.1808  0.0716 -0.3558
95873W        W38926   4.902  19.091  27.389 -0.1465  0.0181 -0.0249
95874W        W38927  11.647   6.469   4.718  0.1309  0.2636 -0.0478
95875W        W38928  22.832   4.759   2.708 -0.4107 -0.1628  0.1106
95876W        W38929  14.522  24.625   6.741  0.1130 -0.2392  0.0883
95877W        W38930  34.116  30.144   7.387 -0.2051 -0.2173 -0.1447
95878W        W38931  12.669  17.712   4.849  0.2507  0.0160  0.2033
95879W        W38932   8.806  31.617  29.125  0.1646  0.0006  0.0424
95880W        W38933  13.442   3.025   0.160 -0.0965 -0.1062  0.0019
95881W        W38934   5.037   5.173  27.270  0.4666 -0.3212 -0.0298
95882W        W38935  18.124  21.904   8.718 -0.0666  0.2315  0.1897
95883W        W38936  17.377  22.981  23.147  0.1748 -0.3094  0.0448
95884W        W38937   7.461  26.504   3.217 -0.2043  0.2037  0.2655
95885W        W38938   1.539  17.141   2.619 -0.0576  0.1878  0.0237
95886W        W38939   9.294   6.106   2.975  0.0763  0.1933  0.2372
95887W        W38940  17.651  26.092   3.677  0.0482 -0.2561 -0.2430
95888W        W38941  33.530  17.024   8.999  0.1215 -0.3180 -0.1297
95889W        W38942   7.287  19.802   7.428 -0.2491  0.0837  0.0212
95890W        W38943   1.904   5.801  25.047  0.0683  0.0764  0.2765
95891W        W38944   1.120  12.624   7.538  0.2160  0.1887  0.0295
95892W        W38945  12.019  29.989   8.047  0.0740  0.3195 -0.0979
95893W        W38946   8.462   0.449  28.252  0.2403 -0.0242 -0.0098
95894W        W38947   5.402  15.611  24.931  0.0450 -0.0292  0.2549
95895W        W38948  22.526  21.628   9.570 -0.1617  0.0452  0.1097
95896W        W38949   7.088  15.685   8.550  0.2561  0.3286 -0.0094
95897W        W38950  33.367  12.129   3.226 -0.0506  0.1284  0.3868
95898W        W38951  18.227  22.416  28.184 -0.0783  0.0899  0.2399
95899W        W38952  12.837  23.103  27.337 -0.3756  0.0568 -0.1120
95900W        W38953  18.827  33.847   7.052 -0.1903 -0.0534 -0.0032
95901W        W38954  13.321  11.776  10.742  0.0807  0.0103  0.1060
95902W        W38955  26.275  15.963  27.942  0.1746 -0.0155  0.3286
95903W        W38956   8.965  30.254  28.570  0.1345 -0.0922  0.0258
95904W        W38957  22.145  23.438   2.306 -0.2871 -0.1698 -0.1339
95905W        W38958   2.982  25.862   9.150  0.0539  0.0107  0.5316
95906W        W38959   9.359  11.450  26.801  0.1442  0.3568 -0.0178
95907W        W38960  25.045   6.884   1.928  0.3127 -0.1653  0.1082
95908W        W38961  25.943   6.250  29.105 -0.1360 -0.0009  0.1276
95909W        W38962  25.547  21.156  28.294 -0.0341 -0.1029  0.2344
95910W        W38963   7.400  21.207   8.675  0.4987 -0.4522 -0.1722
95911W        W38964  20.536  23.516   1.372  0.1800  0.0291 -0.3608
95912W        W38965  10.526  18.468   0.941 -0.0297  0.2228 -0.3374
95913W        W38966   8.564  20.619  29.020 -0.1758  0.0194  0.3984
95914W        W38967  34.142  32.448   1.593  0.1314  0.1974 -0.0023
95915W        W38968  18.740  21.685   4.543 -0.4915 -0.0535  0.0944
95916W        W38969  18.062  30.620   8.273 -0.1376 -0.2582  0.1669
95917W        W38970  17.393  12.777  28.675 -0.1280  0.0459  0.1322
95918W        W38971  14.919  28.698   3.266  0.0811 -0.1267  0.0756
95919W        W38972  18.482   3.244   8.173  0.1527 -0.2670 -0.2402
95920W        W38973  20.125  17.235   9.338  0.2352 -0.0466  0.1643
95921W        W38974  21.271   8.521   7.936 -0.0919  0.3590 -0.0239
95922W        W38975  13.102  23.522   6.446  0.3212  0.0823 -0.1488
95923W        W38976   8.444   0.686  29.023 -0.0073 -0.0523 -0.0071
95924W        W38977   4.927   3.689   0.280 -0.0390  0.0188  0.3943
95925W        W38978  15.751  30.499   9.729 -0.0076 -0.2380  0.0218
95926W        W38979  12.154  29.595  26.499  0.1337  0.2066 -0.0547
95927W        W38980  29.197  33.047   2.054  0.2284  0.0756  0.4436
95928W        W38981  25.770  19.583  28.329 -0.0352 -0.2512  0.1249
95929W        W38982  34.634  29.808   6.640 -0.5344  0.0677 -0.1713
95930W        W38983  14.984  25.729   3.061 -0.0003  0.2114  0.3460
95931W        W38984   1.892  22.400   4.751 -0.1940  0.1858 -0.1364
95932W        W38985  27.740  15.093  27.601 -0.0954  0.3292  0.0201
95933W        W38986  31.573  34.109   2.550  0.1487 -0.0064  0.0706
95934W        W38987  18.721  29.743  26.360 -0.1512 -0.2371 -0.1785
95935W        W38988  24.390  19.792   3.829  0.1139  0.0723  0.1565
95936W        W38989  20.549  21.164   9.225 -0.1473 -0.0928 -0.2571
95937W        W38990  16.702  28.169  23.833  0.4399 -0.0411  0.0761
95938W        W38991   5.734  32.439  22.064  0.0650  0.0363 -0.2243
95939W        W38992   7.282  14.069  10.018 -0.1837  0.1126  0.0219
95940W        W38993  24.534  26.780  28.014  0.1993 -0.0908  0.2860
95941W        W38994  33.279  29.742  24.732  0.1062 -0.2803  0.0956
95942W        W38995  16.629   0.079  28.384 -0.1297 -0.3822  0.1971
95943W        W38996   6.524  32.564   9.086  0.0103  0.0811 -0.3085
95944W        W38997  31.672   2.061   2.209  0.1148  0.0830 -0.0698
95945W        W38998  11.954  23.950   7.308 -0.0748 -0.1928 -0.0523
95946W        W38999  25.893   1.924   4.767 -0.1097  0.2491  0.2223
95947W        W39000  10.563  33.163   3.694 -0.0732 -0.0315 -0.0215
95948W        W39001  11.767   3.832  24.121  0.1771  0.0603 -0.2221
95949W        W39002   6.969   1.909   5.122 -0.0879 -0.0007  0.1775
95950W        W39003  12.272  21.799   8.285  0.3362 -0.0337  0.0367
95951W        W39004  17.332  25.488   3.286  0.0793 -0.0336  0.0616
95952W        W39005  13.971   2.325  25.660 -0.1916  0.1081  0.3415
95953W        W39006  15.002  26.933  24.421  0.0621 -0.0232 -0.1518
95954W        W39007   3.426   1.948  14.108 -0.0326  0.0744  0.0478
95955W        W39008  31.936  26.015  22.682  0.1263 -0.0827 -0.2226
95956W        W39009  28.405   6.653   8.666 -0.0515  0.2481 -0.1171
95957W        W39010  21.471   0.583  22.385  0.2288 -0.0579  0.1158
95958W        W39011   9.994  19.816  19.174  0.2405 -0.1414  0.1360
95959W        W39012   2.860  30.658   8.444  0.2222 -0.0483  0.1275
95960W        W39013  25.780  27.202   6.291  0.1293 -0.1523  0.1908
95961W        W39014  29.575  24.198   3.210 -0.2888  0.0041  0.1167
95962W        W39015  19.746  20.450   1.374 -0.0862  0.0298 -0.1333
95963W        W39016  33.449  31.555  25.639 -0.2646 -0.1992 -0.2069
95964W        W39017   1.461   4.531   6.053 -0.2590  0.1798  0.0913
95965W        W39018  25.794  11.903   8.690 -0.2527 -0.0986 -0.3290
95966W        W39019  11.306   1.932   4.587  0.2186 -0.2309  0.1986
95967W        W39020  16.530  26.686  26.202 -0.2281 -0.1760 -0.0003
95968W        W39021   8.740  29.181   0.274 -0.0238 -0.3216  0.0410
95969W        W39022  22.663  31.502   1.976  0.1452  0.0008  0.0712
95970W        W39023  10.935  29.948   6.011 -0.1822 -0.0234 -0.1440
95971W        W39024  11.503  19.569   6.021  0.1535  0.0354  0.0418
95972W        W39025  16.777  28.709   3.751  0.0035 -0.1358 -0.0700
95973W        W39026  34.501  11.022   2.031  0.3801  0.1098  0.4792
95974W        W39027   8.172  30.189   4.989  0.2319 -0.2310  0.3156
95975W        W39028  19.192  23.234   8.931  0.1852 -0.0198  0.1437
95976W        W39029   9.524  31.495   8.679  0.0537  0.1064  0.1984
95977W        W39030  25.642   0.125   8.769 -0.2011  0.0567 -0.0387
95978W        W39031   9.197  25.593   2.263 -0.2759  0.0047 -0.0732
95979W        W39032  26.880  31.814  21.948 -0.1403 -0.0123 -0.0387
95980W        W39033  32.154  31.534   7.332  0.3062 -0.1237  0.0300
95981W        W39034  12.171   6.091  25.770  0.0749 -0.1176  0.2005
95982W        W39035  12.680  33.080   7.620  0.0310  0.0171 -0.1665
95983W        W39036  14.996   0.103   7.448  0.0755  0.1036 -0.0363
95984W        W39037   8.987   4.338   1.574  0.1345  0.2077 -0.1453
95985W        W39038  23.029  25.955   9.473  0.1028 -0.1499 -0.2025
95986W        W39039   1.929  21.905  27.679 -0.2660  0.0268  0.2015
95987W        W39040  18.181  21.500  26.599 -0.1984 -0.5304 -0.2094
95988W        W39041   8.629  23.043   4.629  0.1224 -0.0848  0.1347
95989W        W39042  24.840  24.765  28.635  0.0264  0.2840 -0.0980
95990W        W39043  27.692  23.260   2.646 -0.2056 -0.3110 -0.1668
95991W        W39044   7.329  25.078   5.777 -0.3536 -0.2477 -0.0825
95992W        W39045  20.231  33.259  22.413 -0.1460  0.0060  0.0278
95993W        W39046   3.136  24.347   8.249  0.2769  0.4070  0.0550
95994W        W39047   9.217   8.433   0.075  0.2470 -0.0964 -0.0864
95995W        W39048  16.481  14.211  24.536  0.2998  0.2818 -0.0556
95996W        W39049   9.863  13.940   7.055  0.1061  0.1148  0.0731
95997W        W39050  29.342   0.464   0.178  0.0796  0.0653 -0.0521
95998W        W39051  16.986  19.719  14.219  0.1132  0.3698 -0.0796
95999W        W39052  15.141  17.176  13.223 -0.2719 -0.3334  0.0120
96000W        W39053  10.694  21.061   8.353 -0.3127  0.0413 -0.1359
96001W        W39054  15.396  21.029  25.335  0.0683  0.1508 -0.0074
96002W        W39055  25.980  16.798   2.696 -0.0880  0.1366 -0.1453
96003W        W39056  29.104  30.539   3.599  0.1127  0.4346 -0.1147
96004W        W39057  18.070  28.439   9.114  0.1369 -0.0930 -0.1243
96005W        W39058  16.436  20.522   7.772  0.6585  0.4578 -0.3222
96006W        W39059   3.136  26.253  22.515  0.1106  0.3464 -0.1625
96007W        W39060   7.871  15.690   7.721  0.1237  0.0990 -0.2594
96008W        W39061  13.614   2.421  26.506 -0.0725  0.1980  0.3050
96009W        W39062  19.855  28.964  27.621  0.1038 -0.0674  0.2793
96010W        W39063  23.002  30.101   7.245 -0.1823 -0.0667 -0.0806
96011W        W39064  11.013  29.567   4.867  0.0604  0.0225 -0.0479
96012W        W39065  14.140  28.387   6.478  0.2255 -0.3787 -0.0869
96013W        W39066  33.936   5.582   9.254 -0.0187 -0.0847 -0.1691
96014W        W39067   5.294  22.522   9.420  0.2565  0.3189  0.2174
96015W        W39068  17.968  16.134  28.344  0.0774  0.1287 -0.2147
96016W        W39069  16.229  13.366   3.142  0.1724  0.3232  0.3893
96017W        W39070  10.484  24.096   1.546 -0.0912  0.2999 -0.1850
96018W        W39071  30.688  18.912   7.109  0.1085  0.1487 -0.1061
96019W        W39072  21.031   0.418   8.712 -0.0021 -0.0293 -0.0333
96020W        W39073   6.965  25.114   9.131 -0.2167 -0.0971 -0.1207
96021W        W39074  18.484  19.786   5.386 -0.1041  0.0669  0.2590
96022W        W39075   9.574   4.477  27.102 -0.2416  0.1201 -0.0538
96023W        W39076  30.489  22.778   3.604  0.0077 -0.0782 -0.0956
96024W        W39077  17.306   5.751  16.484  0.1763 -0.0188 -0.1324
96025W        W39078  20.381  29.356  10.061  0.0338  0.0845  0.2012
96026W        W39079  15.328  33.360   0.712 -0.1217 -0.0317 -0.3675
96027W        W39080  20.872  16.841   0.168  0.0697 -0.2450  0.0473
96028W        W39081  29.212  20.241  28.478  0.0254 -0.0627  0.3783
96029W        W39082  10.159  25.196   7.969 -0.3332  0.0580 -0.1900
96030W        W39083  11.041  34.217  21.111 -0.0143  0.1464 -0.0265
96031W        W39084  24.483  31.557   6.734 -0.0549 -0.0774  0.1671
96032W        W39085   0.612  34.673  22.844 -0.1404 -0.1652  0.0547
96033W        W39086   9.953  15.438   2.770 -0.1174 -0.2736 -0.1556
96034W        W39087  28.668  17.856   1.634 -0.0940 -0.0486 -0.1666
96035W        W39088   8.804  34.333  22.959  0.4048  0.5242 -0.0287
96036W        W39089  13.181  10.526   7.858 -0.3510  0.0710  0.0902
96037W        W39090   6.160  17.875   9.103  0.1254 -0.3266 -0.0406
96038W        W39091  12.148  31.320   7.845  0.1872 -0.0557 -0.1958
96039W        W39092  21.608  27.656   7.099  0.3223  0.1388  0.0964
96040W        W39093  20.906  17.775   1.692 -0.1741 -0.0451  0.0505
96041W        W39094   0.628  27.777   1.470  0.1990  0.2418 -0.2182
96042W        W39095   0.232  34.300   8.086 -0.1657 -0.0864  0.0111
96043W        W39096  21.143  29.337   8.563 -0.0500 -0.0507  0.1024
96044W        W39097  19.194   5.463   1.188  0.0988  0.1979 -0.2676
96045W        W39098  15.443  10.653  10.710  0.0258 -0.0274  0.1223
96046W        W39099  14.765  12.346  25.784 -0.0911  0.0047 -0.1001
96047W        W39100  26.540  12.552   3.892  0.0301 -0.0058 -0.0623
96048W        W39101  15.121  18.346   7.758 -0.0458 -0.1368 -0.1580
96049W        W39102  17.455  19.038   6.370  0.0615  0.2893 -0.3256
96050W        W39103   3.904  22.811   1.150  0.1177 -0.2402  0.1807
96051W        W39104  23.000  26.393   9.719 -0.0374 -0.3733  0.0151
96052W        W39105  14.240  24.578  10.676  0.0088 -0.1177 -0.0979
96053W        W39106  10.413  22.597  28.981 -0.1086 -0.1712 -0.1519
96054W        W39107   9.036   1.644   1.930  0.2238  0.2065 -0.0867
96055W        W39108  33.957  11.372   9.503  0.1658  0.0782  0.0313
96056W        W39109  12.137  23.747  25.956 -0.1332 -0.1959 -0.3193
96057W        W39110  28.547  13.103   0.854 -0.1220 -0.4439  0.0936
96058W        W39111  32.590  24.471  19.053  0.1819  0.1442 -0.0634
96059W        W39112  17.776  27.634   1.710  0.1182  0.0572 -0.1396
96060W        W39113  19.961  17.750  25.544  0.1984 -0.0703 -0.0313
96061W        W39114  29.143  12.572   4.546  0.0916 -0.1083  0.1085
96062W        W39115  19.523  19.151   9.846 -0.1134 -0.1126 -0.1443
96063W        W39116  27.106  28.848   8.035  0.4019 -0.2431  0.4612
96064W        W39117  13.059   6.800  28.451 -0.1363  0.1367 -0.2955
96065W        W39118   7.635  30.148   5.132  0.0622  0.0436 -0.3315
96066W        W39119  10.199  27.049   7.850  0.0684 -0.1091  0.2363
96067W        W39120  10.987   1.539   7.178 -0.0148  0.2033 -0.2104
96068W        W39121   9.650  18.554   0.407 -0.0661 -0.0614  0.1580
96069W        W39122  18.590  22.791  28.380 -0.1245 -0.0858 -0.0436
96070W        W39123  17.088  19.841  28.003  0.0364  0.3726 -0.0223
96071W        W39124  17.614  24.371   6.077  0.1322 -0.2379  0.0673
96072W        W39125  19.175   7.363   5.193 -0.3952  0.0149 -0.0385
96073W        W39126  22.271   3.202   1.585 -0.3358 -0.2362 -0.1312
96074W        W39127  13.320  16.038   9.617  0.0450  0.2926  0.1410
96075W        W39128   6.769  29.766   9.007 -0.2654  0.3194 -0.1236
96076W        W39129   9.560   6.807  22.628 -0.0458 -0.1572  0.2664
96077W        W39130  17.064  23.721  21.702 -0.1948  0.1620  0.2684
96078W        W39131  11.336  20.526   1.551 -0.0108  0.4717  0.3084
96079W        W39132  14.804  23.431  27.779 -0.1370 -0.2749 -0.0164
96080W        W39133  19.690  13.412   9.533 -0.1730 -0.1606 -0.0322
96081W        W39134   1.090  26.951  14.974  0.0579 -0.0505 -0.3299
96082W        W39135   6.324  19.734  21.192  0.2531 -0.3069 -0.0442
96083W        W39136   9.302   0.082   3.675 -0.2564  0.1488 -0.1079
96084W        W39137  20.209  30.281   8.938 -0.0176 -0.0267 -0.4371
96085W        W39138  19.283   8.326   9.983  0.1982  0.1074 -0.0218
96086W        W39139   9.807  14.019   7.526  0.1758 -0.1558  0.2549
96087W        W39140   7.887  26.711   7.946 -0.0796  0.0469  0.0188
96088W        W39141   9.990  17.313   8.600 -0.1589  0.1518  0.0951
96089W        W39142   5.476   6.347   9.495 -0.3958 -0.1808 -0.0946
96090W        W39143  10.300   8.111   6.572  0.0852  0.1905  0.1055
96091W        W39144  15.216  18.493  26.276  0.1179 -0.1711 -0.0343
96092W        W39145  11.263  26.430   5.593 -0.0143  0.1113 -0.2268
96093W        W39146   7.158  28.206   5.983  0.2190 -0.1127  0.0875
96094W        W39147  10.788   9.997   5.058 -0.0247  0.0834 -0.0164
96095W        W39148  20.189  23.144  25.712 -0.1386 -0.1782 -0.0285
96096W        W39149  12.350  28.594   6.074 -0.0260 -0.0384  0.3201
96097W        W39150  14.143  27.859   5.919  0.1029  0.2820  0.1709
96098W        W39151  10.152  32.377   0.103  0.1050 -0.0543  0.1851
96099W        W39152  32.700  20.413   8.704  0.1456  0.1379 -0.0555
96100W        W39153  22.637  10.433   3.952 -0.2055  0.0477 -0.1156
96101W        W39154  30.956   9.210   0.865 -0.0861 -0.0910  0.1023
96102W        W39155  24.284  15.548  26.823  0.1501 -0.0123 -0.1813
96103W        W39156   6.722  12.443  26.537 -0.1811  0.0511 -0.1975
96104W        W39157  11.834   4.043   6.120 -0.1082 -0.3004 -0.0012
96105W        W39158  13.562  19.316  21.690 -0.2534 -0.3954 -0.1664
96106W        W39159  13.651   8.190   6.811  0.0682  0.2198  0.1365
96107W        W39160  21.478  25.681   4.474  0.0428  0.0362 -0.4715
96108W        W39161   6.246  11.908  24.748  0.1152 -0.1252  0.0010
96109W        W39162  31.141  22.111   9.351 -0.1329 -0.0103 -0.0803
96110W        W39163   6.042  17.807  19.974 -0.1204 -0.1083  0.1283
96111W        W39164   6.608  25.376   4.491  0.2549 -0.0163 -0.3822
96112W        W39165  11.394  27.496   4.058  0.2574 -0.1023 -0.1551
96113W        W39166  25.529  13.358   4.150 -0.1252  0.0207 -0.2203
96114W        W39167  10.224  19.565   5.375 -0.0702  0.3007 -0.0291
96115W        W39168   9.615  27.276   2.600 -0.0149 -0.1449  0.1758
96116W        W39169  12.214  30.747   0.644  0.0647 -0.3891  0.1132
96117W        W39170   4.564  13.529   9.376 -0.0823 -0.1088  0.1449
96118W        W39171   2.215  27.307   6.629 -0.0895  0.0097 -0.0417
96119W        W39172  11.767  27.364   4.459  0.0669  0.1779  0.2170
96120W        W39173  15.214  27.906   6.614 -0.0321  0.0590  0.1767
96121W        W39174  11.459  11.119   4.565  0.1119 -0.2035  0.3830
96122W        W39175  11.320  12.854   5.545 -0.1373  0.0078  0.2227
96123W        W39176  12.478  31.602   9.007  0.0147 -0.2641  0.0527
96124W        W39177  19.268  24.372  22.937 -0.7670  0.3852 -0.3435
96125W        W39178  15.660  12.390   1.328 -0.0044 -0.2514  0.0335
96126W        W39179  33.802  22.617  24.051  0.0628 -0.1270  0.0270
96127W        W39180  15.030  22.725  23.219  0.1979 -0.0504  0.0730
96128W        W39181   8.932  14.429  26.282  0.0417  0.0070 -0.3487
96129W        W39182  22.851  19.579  27.112  0.1588  0.0951 -0.0786
96130W        W39183  30.145  10.550   3.628  0.1913  0.1081  0.1809
96131W        W39184  14.821   6.097  18.484 -0.0787 -0.0684  0.2402
96132W        W39185  20.895   3.724  10.246  0.2924  0.1187 -0.2883
96133W        W39186  16.528   1.121   5.264  0.2057 -0.1523  0.1189
96134W        W39187   9.172  22.929   7.759  0.0163  0.1205 -0.0593
96135W        W39188  30.877   0.072  20.839  0.0564 -0.0501 -0.3567
96136W        W39189  16.141  22.988  22.548 -0.0798 -0.1291 -0.2184
96137W        W39190  13.049  17.837  28.553 -0.2554  0.1099 -0.2583
96138W        W39191  30.204  32.621   7.522 -0.1516 -0.0786 -0.1264
96139W        W39192  17.206  14.667  22.674 -0.0347 -0.1925  0.2310
96140W        W39193   9.652  18.633  26.673 -0.0193 -0.0499  0.1695
96141W        W39194  12.784  22.593   4.971 -0.2105 -0.0290  0.0735
96142W        W39195  18.956  23.153   1.537 -0.1442 -0.0536  0.1319
96143W        W39196  18.678   6.991   8.692 -0.1687  0.0536  0.0610
96144W        W39197  16.466   4.397   8.727  0.0803 -0.0627 -0.2082
96145W        W39198  22.132   2.133   4.059  0.0484  0.1086  0.2986
96146W        W39199  22.602  29.782   0.890 -0.2068  0.0738 -0.1519
96147W        W39200  11.195   2.167   3.061 -0.2323 -0.1707  0.0981
96148W        W39201  13.022  14.760  25.797  0.3411  0.1138  0.0458
96149W        W39202  33.944  32.793  27.952 -0.0141 -0.2997 -0.0653
96150W        W39203  32.192  28.800  27.669  0.1929 -0.0925  0.3094
96151W        W39204   2.772  32.683  14.784  0.0663 -0.0566  0.1677
96152W        W39205  18.155   8.024   4.669 -0.1323 -0.2739  0.0357
96153W        W39206   0.579   8.492   2.747  0.2565  0.1755  0.1586
96154W        W39207  12.629  30.739   5.513 -0.1224  0.1291  0.1374
96155W        W39208   3.469  34.029   5.000 -0.2142  0.0366  0.1596
96156W        W39209   7.152   6.044  18.787 -0.1903 -0.3107  0.1306
96157W        W39210  20.556  27.242  21.663  0.0378 -0.1227 -0.0776
96158W        W39211  18.000  30.857   7.788 -0.2029 -0.2534  0.0509
96159W        W39212  32.849  15.622   7.304  0.0177 -0.0471  0.0812
96160W        W39213  23.372  17.270  15.603  0.1268  0.0346 -0.1148
96161W        W39214   2.763  28.088   5.318  0.1087  0.1950 -0.2721
96162W        W39215  22.007   9.782   5.787 -0.0961 -0.2428  0.1528
96163W        W39216  21.459  22.891   3.726 -0.0394  0.1582 -0.2734
96164W        W39217  21.003   4.832   9.333  0.2806 -0.1323  0.0871
96165W        W39218   9.492  28.664  29.027 -0.0415  0.3251 -0.0480
96166W        W39219  17.500   2.294   5.331  0.0556  0.1047  0.1467
96167W        W39220  23.687  24.822   3.687 -0.1297 -0.2295  0.1640
96168W        W39221  11.317  20.144  28.435  0.3545 -0.4984 -0.1758
96169W        W39222  20.408   3.126   2.850 -0.3968  0.1624 -0.0058
96170W        W39223   1.362  25.976  27.021  0.0451  0.0731 -0.1379
96171W        W39224   5.940  14.522   4.678 -0.3619 -0.2208  0.0216
96172W        W39225   9.314  25.566   1.377 -0.1176  0.0405 -0.1074
96173W        W39226  11.183   3.321  28.422  0.1487  0.2552  0.0570
96174W        W39227   6.033  13.139  26.546 -0.3551 -0.3888  0.0619
96175W        W39228  16.886  21.657   7.367  0.0466  0.2029 -0.1302
96176W        W39229   9.057  30.871  22.718  0.0153 -0.3946  0.1637
96177W        W39230  21.417  30.687   6.122 -0.2076  0.2964 -0.1299
96178W        W39231  10.489  20.662  14.575  0.1291  0.2632 -0.0568
96179W        W39232  30.285   0.959   9.452  0.1850 -0.1854  0.0428
96180W        W39233  14.557  29.317  19.058  0.1713 -0.6191 -0.1621
96181W        W39234  23.088   6.217  16.584  0.0893 -0.1374 -0.0384
96182W        W39235  23.840  11.754  27.177  0.3380  0.0582  0.2121
96183W        W39236  14.136  17.785   5.051 -0.0816  0.0840 -0.2149
96184W        W39237  15.928  30.741  15.407  0.2573  0.2421 -0.0693
96185W        W39238  20.698  14.497  17.855  0.1536 -0.1127 -0.1114
96186W        W39239   6.868   1.433   7.533  0.0384 -0.1349 -0.0973
96187W        W39240   2.298  20.088  25.492  0.1386 -0.1758 -0.1096
96188W        W39241   2.148  19.679   7.311 -0.0472  0.1839  0.2117
96189W        W39242   9.720  26.196   1.872 -0.0261  0.0604 -0.0280
96190W        W39243   4.606   4.125  26.068  0.0671  0.1728 -0.0464
96191W        W39244   7.331  16.668   3.576  0.0724 -0.0643  0.1292
96192W        W39245  31.269  33.730   5.960 -0.2993  0.1942 -0.1089
96193W        W39246   3.539   3.395   3.478 -0.2894  0.3169 -0.0011
96194W        W39247  23.458   4.913   5.440  0.0749 -0.2535 -0.2134
96195W        W39248  18.367  11.393   7.246 -0.0815  0.2754  0.1086
96196W        W39249  16.477  28.114   3.177  0.3730  0.2644  0.2174
96197W        W39250  22.871  25.917   0.711  0.1983 -0.2138 -0.1530
96198W        W39251   6.172  33.461   1.119  0.1760  0.4712 -0.0290
96199W        W39252   7.939  18.820  17.871 -0.0703  0.2496 -0.4096
96200W        W39253  20.477  25.501  19.140 -0.1652 -0.1405  0.1198
96201W        W39254  25.283  31.797  27.982  0.0611 -0.0837  0.3398
96202W        W39255   9.343   1.835  19.955 -0.0024 -0.1696 -0.0124
96203W        W39256  29.455   4.699   3.577 -0.3414  0.1761 -0.0067
96204W        W39257  19.708  19.380  26.256 -0.2809  0.0371  0.2639
96205W        W39258  22.244   4.273  25.200 -0.0552  0.1135  0.0943
96206W        W39259  23.879  30.451   7.060 -0.0942 -0.0552  0.2000
96207W        W39260  10.309  30.565   2.875 -0.0225  0.1531 -0.0056
96208W        W39261   4.519  30.810   5.406  0.1450 -0.1859 -0.2947
96209W        W39262   6.573  30.956  24.158  0.1592  0.2312 -0.1822
96210W        W39263  26.517  30.124   8.560  0.4480 -0.3238  0.0580
96211W        W39264  24.881  31.775  27.593  0.1272 -0.2781  0.2103
96212W        W39265  15.568  34.165  25.101  0.4448 -0.1604  0.2145
96213W        W39266  11.471   6.270   3.193  0.1882  0.0299  0.5329
96214W        W39267   3.253  24.002   8.668 -0.0121  0.7128 -0.0309
96215W        W39268  29.898   1.328  13.499 -0.4050  0.1135  0.1487
96216W        W39269   8.198  22.060  14.573 -0.2419  0.0475  0.0445
96217W        W39270  19.355  27.637  10.105 -0.1691  0.1097  0.1416
96218W        W39271   5.761  34.120  14.929 -0.0905 -0.1369  0.1184
96219W        W39272  27.057  15.916   6.064  0.0360  0.3025 -0.0111
96220W        W39273   6.829  17.305  25.221 -0.0905 -0.2351  0.0314
96221W        W39274   8.279   3.262  24.792 -0.0736  0.5374  0.2179
96222W        W39275  21.806  27.393  10.654  0.2138  0.2009  0.0351
96223W        W39276  17.598  21.905   9.157  0.2401  0.0887  0.0315
96224W        W39277   8.976  32.653   3.379  0.5824  0.0289  0.2727
96225W        W39278   3.744  31.458  25.085  0.0730  0.1579 -0.1189
96226W        W39279   8.470   0.352   2.344  0.2985  0.2784 -0.1330
96227W        W39280  16.486  31.742   0.576  0.0207  0.2801 -0.1955
96228W        W39281  30.683   5.314   8.875  0.1872 -0.0526  0.1208
96229W        W39282  21.471  25.148   3.612 -0.2833 -0.3369 -0.2031
96230W        W39283  19.944  25.344   7.506 -0.3275 -0.2466  0.0401
96231W        W39284   7.840  10.651  28.086  0.2155 -0.0527  0.0645
96232W        W39285  18.788   9.089  15.933  0.1569  0.1941 -0.1684
96233W        W39286  19.072  26.655   0.487  0.1569  0.1355 -0.1549
96234W        W39287   1.213  25.251  25.125  0.1611 -0.4185  0.0059
96235W        W39288   6.836  29.758   6.969  0.2457  0.0347 -0.4878
96236W        W39289  21.170  11.436   8.211 -0.0182  0.4200  0.0908
96237W        W39290  23.546  30.948   6.476 -0.2228 -0.0513  0.1139
96238W        W39291   9.811  29.806   1.616  0.3130 -0.1398 -0.0444
96239W        W39292  15.130   4.033   5.063 -0.2728 -0.0487 -0.0088
96240W        W39293  10.123  25.150  24.151  0.0335 -0.0203  0.0530
96241W        W39294  12.758   3.898  20.080 -0.0707  0.0431 -0.2573
96242W        W39295  17.027   0.071   6.390  0.3577  0.0855  0.0493
96243W        W39296  16.618   6.018   5.355 -0.0406  0.3075 -0.2077
96244W        W39297   9.964   1.337  26.983 -0.1008 -0.3628 -0.0212
96245W        W39298  26.879  30.407   5.063  0.2540 -0.2632  0.1826
96246W        W39299   4.112  28.725   0.430 -0.2135  0.0229  0.1697
96247W        W39300  27.529  16.216   6.368 -0.5137 -0.0052  0.0422
96248W        W39301  16.305   6.357   9.041  0.1419  0.0300 -0.3984
96249W        W39302  23.282  15.299  26.932 -0.0680 -0.1674  0.2783
96250W        W39303   4.138   4.759  28.267 -0.2136 -0.1181 -0.0830
96251W        W39304  24.016   2.881   2.211  0.1090  0.1046  0.1919
96252W        W39305   9.534  11.439  28.044  0.0767 -0.0863  0.4488
96253W        W39306   3.292  30.265  28.187 -0.1554 -0.1818 -0.0792
96254W        W39307  30.331  33.260   4.849 -0.1242  0.3403 -0.3096
96255W        W39308  16.803  17.668  14.056  0.1677 -0.4039  0.0688
96256W        W39309  28.415  11.795  16.542 -0.0960  0.1465  0.2184
96257W        W39310  19.948  27.092  20.773 -0.1585  0.0021  0.2147
96258W        W39311  11.151  13.500   8.948 -0.1468 -0.1077  0.1112
96259W        W39312  16.944  29.868  11.068 -0.0835 -0.0307 -0.1248
96260W        W39313  16.543  32.281  26.954  0.0581 -0.1921 -0.0661
96261W        W39314  11.625  16.250  28.446  0.0707  0.1138 -0.1687
96262W        W39315  32.388   8.715  17.954  0.0407 -0.0698  0.1058
96263W        W39316  10.234  14.777  20.673 -0.1051  0.0041  0.4696
96264W        W39317   5.326  26.716  26.152 -0.0363 -0.3750 -0.1415
96265W        W39318  33.402  24.630  24.280 -0.0867 -0.3506 -0.0830
96266W        W39319  18.754  32.343   3.534 -0.1775 -0.0836 -0.4850
96267W        W39320  33.447  23.491   7.782  0.2418 -0.1217 -0.2520
96268W        W39321  18.233  30.494   6.923 -0.0685  0.0086 -0.0448
96269W        W39322  15.875   2.916  25.468  0.0057  0.0026 -0.3327
96270W        W39323   5.882  22.685   2.409  0.0081  0.0957 -0.2615
96271W        W39324  18.797  19.881   5.024 -0.0983 -0.0333  0.0655
96272W        W39325  13.958  19.427  24.796 -0.3302  0.4250  0.1312
96273W        W39326  26.188  32.810  28.424 -0.1842  0.0450 -0.0726
96274W        W39327  17.628   1.301   5.308 -0.3449  0.1904  0.0835
96275W        W39328   9.088  31.716   4.739  0.0956  0.0544 -0.0760
96276W        W39329  27.788  14.792   5.329  0.2087  0.2620 -0.2157
96277W        W39330  12.764  27.484  26.982 -0.1429 -0.1687 -0.0076
96278W        W39331  17.719  16.012   6.040  0.1287 -0.2465 -0.0945
96279W        W39332   7.620  32.142  21.068 -0.3579 -0.2891  0.0129
96280W        W39333  32.000   5.633   8.720  0.1682 -0.0138 -0.3065
96281W        W39334   7.359  28.663   5.962 -0.1427 -0.2245 -0.1291
96282W        W39335  22.283  19.190   9.711 -0.2216  0.1689  0.1981
96283W        W39336  12.413  31.128  20.681 -0.2197 -0.0901 -0.0955
96284W        W39337  13.745   5.720  22.857 -0.0128  0.2553  0.0285
96285W        W39338  12.452  14.371   1.810 -0.1879 -0.1848  0.0398
96286W        W39339   5.998  27.604  17.046 -0.0557 -0.2400  0.2764
96287W        W39340   2.740  20.708  27.941 -0.1457  0.0463  0.1027
96288W        W39341  13.546   5.158   2.261  0.0231  0.0562  0.0840
96289W        W39342   6.109  31.436  17.608  0.1845  0.0563 -0.1558
96290W        W39343  12.317   4.607   8.278  0.2042 -0.0222  0.0053
96291W        W39344  24.565   6.609   1.976  0.2659 -0.0665 -0.3447
96292W        W39345  30.345  32.075   3.870 -0.0995 -0.0081 -0.0639
96293W        W39346  29.321  32.779  14.894  0.1972 -0.0086 -0.2876
96294W        W39347  19.699  33.121   8.688  0.2416 -0.0667  0.0970
96295W        W39348  15.562  33.175  22.292 -0.1764 -0.0146  0.1205
96296W        W39349   6.363  10.249   6.552  0.2218 -0.2346 -0.0629
96297W        W39350  14.639  21.535  28.120  0.0116 -0.0739  0.1927
96298W        W39351   3.824  15.778  19.241  0.1718  0.1455 -0.3355
96299W        W39352  19.345  30.728   4.139 -0.0998 -0.2704 -0.0278
96300W        W39353   8.236  25.518   4.296 -0.0600 -0.0229 -0.3068
96301W        W39354  17.083  21.259   5.986  0.0248 -0.2415  0.0212
96302W        W39355  33.794   5.172  29.151  0.0811 -0.1776  0.2437
96303W        W39356   4.177  32.641   0.481 -0.0607 -0.0994  0.0807
96304W        W39357  23.965   8.843   1.665 -0.0629  0.0002  0.5725
96305W        W39358  24.555  33.042   0.457  0.1194  0.1022 -0.0659
96306W        W39359   7.043   1.532   5.992  0.0970 -0.1178  0.1525
96307W        W39360  11.549  32.551   9.991  0.2038 -0.1213 -0.1305
96308W        W39361  29.307  25.031  15.968 -0.0719  0.0840  0.0237
96309W        W39362   7.723  27.394   8.569  0.1058 -0.3091  0.0406
96310W        W39363   8.397  28.920   3.629  0.0949  0.0117  0.0046
96311W        W39364  15.894  31.172   8.382  0.2860  0.0469 -0.0229
96312W        W39365   4.854  22.008   5.552 -0.0881 -0.1373 -0.1649
96313W        W39366  20.710   0.578   9.034  0.1149 -0.1249 -0.0498
96314W        W39367  13.061  29.958   6.563  0.0973 -0.1469  0.1319
96315W        W39368  25.454  25.475   9.619  0.1574 -0.1310 -0.2798
96316W        W39369  16.745  19.320   4.657  0.2666 -0.4232  0.1063
96317W        W39370   1.641  15.920  25.539 -0.3972  0.0742  0.1083
96318W        W39371  15.089  16.017  28.632 -0.0510  0.0015  0.2689
96319W        W39372  15.430   0.749  22.654 -0.2064  0.0986  0.2651
96320W        W39373  14.953  23.549  22.007  0.1455 -0.0458  0.3058
96321W        W39374   2.359  25.494   9.360  0.1717  0.1711  0.2431
96322W        W39375   3.769  18.049   6.779  0.1630 -0.0545  0.1609
96323W        W39376  34.466  17.516   4.613  0.2189  0.0851  0.2173
96324W        W39377  15.300  15.979  24.129  0.1970 -0.2517 -0.2054
96325W        W39378  33.958  25.641   5.293  0.2868 -0.1531 -0.0831
96326W        W39379   9.426   0.934   8.379  0.0738 -0.2076  0.0363
96327W        W39380  10.834  34.139  27.706  0.0393 -0.0619  0.2703
96328W        W39381  10.448  24.863  24.887 -0.0240 -0.1065 -0.1500
96329W        W39382   2.857  29.781  16.982 -0.0287  0.0520  0.0798
96330W        W39383   2.757  34.223   8.706  0.1837 -0.2650  0.1490
96331W        W39384   8.387   7.575  23.024 -0.0595 -0.0756  0.1417
96332W        W39385  30.531   1.615   4.590 -0.0922  0.0347  0.2078
96333W        W39386  19.052   6.913   3.066 -0.0624 -0.0000 -0.1295
96334W        W39387  29.319  21.761   2.664  0.0126 -0.1662 -0.0025
96335W        W39388   8.245  26.641   8.724  0.3408  0.0443 -0.1711
96336W        W39389  26.588  22.951   4.681 -0.0787  0.0442  0.0486
96337W        W39390   3.574  31.556   8.157 -0.1088  0.1490  0.3899
96338W        W39391  18.178  19.545  23.221 -0.3509  0.2304 -0.0925
96339W        W39392   8.596  15.458   3.300 -0.1764  0.0239 -0.0376
96340W        W39393  17.443  11.357   6.701  0.0619 -0.1185  0.3087
96341W        W39394  23.560   8.254  27.018  0.0249 -0.3626 -0.1084
96342W        W39395   4.683   1.036  24.152 -0.3166  0.2924 -0.1548
96343W        W39396  11.120  28.460   1.871 -0.4779  0.2629  0.1456
96344W        W39397  24.218   4.110   3.956 -0.1344  0.0028 -0.2277
96345W        W39398  17.040  31.817   9.020  0.2750  0.1229 -0.0751
96346W        W39399  10.764  17.327   3.628  0.1876  0.0066  0.1018
96347W        W39400  30.748  33.364   9.199 -0.1173  0.4290  0.0477
96348W        W39401  28.923   2.406  26.857 -0.0724 -0.2900 -0.2689
96349W        W39402  30.369  32.864  21.366 -0.1461 -0.0795  0.0719
96350W        W39403  20.252  26.171  27.455 -0.0125  0.1855  0.2509
96351W        W39404  12.892  23.535   2.125  0.4055  0.0491 -0.0690
96352W        W39405  33.515  26.657  19.652  0.1109  0.0058 -0.0284
96353W        W39406  34.633  19.248  26.768 -0.1505 -0.0826 -0.3505
96354W        W39407  20.750  24.920   6.815 -0.1636  0.1895 -0.3572
96355W        W39408  15.742  12.052  25.915 -0.2109 -0.0834  0.0549
96356W        W39409  13.550   5.921   0.815 -0.2508  0.1620  0.0264
96357W        W39410   0.836   0.137  23.890 -0.0507  0.0392  0.3083
96358W        W39411  16.320  22.103  26.748 -0.0108 -0.1491 -0.3821
96359W        W39412  33.916  13.269   9.849 -0.1374 -0.0759  0.3496
96360W        W39413  14.446  29.949   7.442  0.2686 -0.2054 -0.2578
96361W        W39414  33.306  31.801   2.578 -0.1175 -0.0104 -0.0634
96362W        W39415  15.537  10.123   8.396  0.0172  0.1905 -0.1845
96363W        W39416  17.207   3.641  23.396 -0.1187 -0.0244  0.0289
96364W        W39417  24.872  22.133   8.491 -0.0628 -0.0896  0.1578
96365W        W39418  20.904   1.390   5.114  0.1022  0.2680 -0.2298
96366W        W39419  20.659   6.741   5.735 -0.2045 -0.0579  0.0927
96367W        W39420  17.580  27.397  21.075  0.1679 -0.1037 -0.1418
96368W        W39421  15.891  17.749   6.329  0.3908 -0.0751  0.2887
96369W        W39422  12.589  27.984  28.231 -0.0448 -0.0415 -0.0349
96370W        W39423  11.504  23.835  27.279  0.0545 -0.0631  0.0736
96371W        W39424  17.938  27.096   5.719 -0.1346  0.0956  0.1952
96372W        W39425  29.800  27.246   5.267  0.1849 -0.1144 -0.1150
96373W        W39426  31.781  19.348  24.560  0.0583  0.2889  0.0441
96374W        W39427  10.226  20.666   6.635  0.5322  0.2151  0.0324
96375W        W39428  11.325  24.301   6.090  0.2339 -0.0166  0.1494
96376W        W39429  18.325  22.075   3.233 -0.1355 -0.0948 -0.0062
96377W        W39430   4.402  29.269   5.496  0.0558  0.0521 -0.0539
96378W        W39431  11.449  31.849   6.784 -0.2098 -0.1634 -0.2502
96379W        W39432   9.081   3.616   4.287 -0.0782  0.2759 -0.1360
96380W        W39433   6.289   5.011   4.424  0.3869 -0.3980  0.0871
96381W        W39434   0.937  28.463  28.033 -0.0258 -0.1000  0.0919
96382W        W39435  15.893   0.996  10.305  0.0261 -0.1506 -0.1967
96383W        W39436  22.088  30.543   3.802 -0.2007  0.3109 -0.1832
96384W        W39437  14.030   8.205  22.308 -0.0077 -0.1301  0.0890
96385W        W39438   8.923   2.111  24.941 -0.3579 -0.3570  0.0035
96386W        W39439  34.648   4.055   6.922  0.0466 -0.2737  0.0768
96387W        W39440  18.430   5.222  26.922 -0.1925  0.0971  0.0143
96388W        W39441   8.214   1.023   9.385 -0.1303  0.0799 -0.2130
96389W        W39442  12.933  31.161   9.823  0.1554 -0.1384  0.1889
96390W        W39443   8.624  20.566  17.436  0.0228 -0.1266 -0.0423
96391W        W39444  17.578  34.289   9.537 -0.2289 -0.1070  0.0634
96392W        W39445  30.370  23.118   9.461 -0.1609 -0.0065 -0.0500
96393W        W39446  12.189  27.966  25.270 -0.1650  0.1957  0.1348
96394W        W39447  23.546  23.588   3.314  0.1460  0.0610 -0.0196
96395W        W39448  13.166  12.288  28.503 -0.0914  0.0939  0.0440
96396W        W39449  23.605   3.757   7.621 -0.4075 -0.1932 -0.2960
96397W        W39450  32.090   4.630   7.379 -0.2908 -0.0055  0.0040
96398W        W39451  34.567  22.559   6.547 -0.1930 -0.0510  0.2986
96399W        W39452  18.677  28.504  10.041 -0.1832  0.0364  0.2590
96400W        W39453  21.283   2.196   5.765 -0.4743 -0.0254 -0.1049
96401W        W39454  10.817  12.328   7.837 -0.0791 -0.1268  0.2129
96402W        W39455  32.837  15.214  16.208  0.0637 -0.2926 -0.1015
96403W        W39456  14.529  33.896   2.369  0.0877  0.0254  0.1629
96404W        W39457   7.794  26.145  22.428  0.1685  0.0631 -0.1330
96405W        W39458  12.858   7.942   8.949  0.1452  0.2017 -0.2134
96406W        W39459   6.946   8.115   4.961 -0.0786 -0.2733  0.2259
96407W        W39460  18.511  28.402   2.138  0.0953  0.2255  0.2445
96408W        W39461  27.879   0.417  17.067 -0.1188 -0.1981  0.2846
96409W        W39462  20.305   8.719   1.515  0.0134  0.1829  0.0473
96410W        W39463  20.572   3.449   4.430 -0.2489 -0.0594 -0.1251
96411W        W39464  26.342   9.324   0.277 -0.3706 -0.0429 -0.2236
96412W        W39465  11.109  31.394  27.838  0.0591 -0.0506  0.0828
96413W        W39466   6.925  29.865  20.139 -0.3397 -0.0950  0.0341
96414W        W39467   1.006   6.852   2.339  0.3614  0.0909 -0.1582
96415W        W39468   6.210   2.896   6.822  0.1500 -0.0830 -0.1155
96416W        W39469  31.748   0.643  22.520  0.0200 -0.0560 -0.1065
96417W        W39470   7.694   3.728  18.485  0.0877  0.1395 -0.3336
96418W        W39471  14.369  32.787  23.409 -0.3994 -0.0620  0.0613
96419W        W39472  14.158   9.498  24.229  0.2392  0.1565  0.0079
96420W        W39473  11.610  34.670   1.964  0.0667  0.2258  0.0188
96421W        W39474  14.216  32.772   4.531 -0.0754 -0.1520 -0.2159
96422W        W39475   8.122  28.793   2.654  0.2034  0.1348 -0.3526
96423W        W39476  12.071  21.308  22.822  0.0034 -0.0963  0.0201
96424W        W39477   0.475   5.981  18.793 -0.0018 -0.1514 -0.0773
96425W        W39478  31.201  26.720  23.772  0.2379  0.0984 -0.1507
96426W        W39479  20.567   2.646  27.149 -0.3346 -0.0624  0.0312
96427W        W39480  18.041   5.386   8.430  0.3919 -0.1716  0.2002
96428W        W39481  17.590   5.855   7.963 -0.1121  0.1209 -0.0100
96429W        W39482  33.247   1.448  22.729 -0.0748 -0.1970 -0.0554
96430W        W39483  13.888  20.801   7.389 -0.0399 -0.0061 -0.0189
96431W        W39484   2.370   5.993  16.753 -0.0390 -0.0303 -0.1719
96432W        W39485  16.176  20.476  10.276  0.0554  0.2460  0.0904
96433W        W39486  15.711   5.497  16.469  0.2723  0.0029  0.3617
96434W        W39487   6.251  31.783   8.756 -0.0389 -0.1769 -0.0890
96435W        W39488  25.015   3.414  28.117 -0.3037  0.2085  0.2121
96436W        W39489  32.809  29.120   1.000 -0.0445  0.1569  0.0698
96437W        W39490  32.392  33.394  22.014  0.1087 -0.1722 -0.0613
96438W        W39491  10.399  28.024   3.209  0.1127 -0.0023 -0.0084
96439W        W39492   7.212  25.558  15.727 -0.0217  0.3066  0.3433
96440W        W39493  17.200  32.049  24.867 -0.1295  0.1119 -0.1536
96441W        W39494  30.845  28.336  23.638 -0.1602 -0.0736 -0.0313
96442W        W39495   1.578  17.980   5.477 -0.3991 -0.1255 -0.0845
96443W        W39496  10.644  15.469   1.284 -0.1063 -0.0305 -0.1052
96444W        W39497   5.023   9.743  10.064 -0.0500 -0.0722  0.3424
96445W        W39498  22.201  30.113   9.892 -0.0751  0.1296 -0.1110
96446W        W39499  16.885   0.456   9.773  0.0540 -0.1207 -0.0865
96447W        W39500  19.290   7.663   8.504  0.1263 -0.1335 -0.0710
96448W        W39501   6.869  27.039   4.432 -0.0527 -0.3451 -0.0345
96449W        W39502  32.732  19.253   0.188 -0.1084 -0.0437  0.1757
96450W        W39503   3.879  26.956  15.484  0.2006 -0.1113  0.0655
96451W        W39504  13.545  22.326   8.491  0.0149  0.0699 -0.1107
96452W        W39505  23.587  18.746   2.104  0.2302  0.0390 -0.1832
96453W        W39506  18.457  30.774  27.302 -0.0123 -0.0015  0.1115
96454W        W39507   1.066   2.450   3.240 -0.0570 -0.0191  0.0006
96455W        W39508   5.092  19.583  26.449  0.0425 -0.1444 -0.0838
96456W        W39509  16.728  33.687   8.627  0.0115 -0.0546 -0.0958
96457W        W39510   2.537  31.032   1.811  0.0710 -0.0403  0.0832
96458W        W39511   4.035   4.080   0.668  0.1911  0.0117  0.0577
96459W        W39512   3.279  27.485  27.797 -0.0523  0.1752  0.2866
96460W        W39513   4.149  17.974   6.382 -0.1345  0.0517 -0.1276
96461W        W39514  24.239   4.480   6.905  0.0937 -0.2083 -0.0816
96462W        W39515   5.104  12.231   7.479  0.0212  0.3042  0.0962
96463W        W39516   9.266  24.810   5.060  0.2655 -0.1748  0.0802
96464W        W39517  20.770   0.018   0.818  0.1595  0.0993 -0.0235
96465W        W39518   9.066  12.174   4.053 -0.1721  0.1207  0.3768
96466W        W39519   7.686  28.725   5.218  0.1138 -0.2144 -0.0788
96467W        W39520  11.293   3.630  26.461  0.1466  0.0569  0.2037
96468W        W39521  17.401  29.939   3.336 -0.1323 -0.2097 -0.3029
96469W        W39522   7.475  14.668  18.840 -0.1498 -0.0501 -0.2608
96470W        W39523   2.098   0.101  25.578 -0.1164  0.2905  0.0892
96471W        W39524  13.230   7.077  26.375  0.0305  0.1595  0.2732
96472W        W39525   2.005  15.128   8.010 -0.0753 -0.0587  0.0127
96473W        W39526  13.236  26.855   8.771  0.0132 -0.0689  0.0917
96474W        W39527  14.490  28.099  28.042 -0.2932 -0.0616 -0.1592
96475W        W39528  30.250  32.667   9.210  0.0836  0.3423 -0.0180
96476W        W39529   7.453   6.856   7.542  0.0288 -0.2662 -0.1435
96477W        W39530  21.678  24.861   2.173 -0.0737  0.0084 -0.0596
96478W        W39531  13.051  15.947  16.082 -0.0431  0.0573 -0.2093
96479W        W39532   0.191  29.898   5.148  0.2331 -0.0434 -0.0684
96480W        W39533  29.182  27.821  17.215 -0.4148  0.0187 -0.0045
96481W        W39534   9.386  12.405   7.541 -0.4030 -0.0549  0.1643
96482W        W39535  32.644  29.893  27.894  0.3500  0.2043 -0.2104
96483W        W39536  28.728   4.454   8.736 -0.0674 -0.2108  0.0961
96484W        W39537  18.299  27.062   8.729  0.1129  0.0337 -0.0548
96485W        W39538  15.741  13.773  27.747 -0.0074  0.3970 -0.0126
96486W        W39539   1.989  32.687   6.925 -0.2105  0.0875  0.1053
96487W        W39540  16.887  17.188   4.880  0.0664 -0.0718  0.1105
96488W        W39541  28.847  24.971  14.989 -0.0546  0.3275 -0.0245
96489W        W39542  24.234  33.852   9.363 -0.1677 -0.1463  0.2777
96490W        W39543  10.536   6.645   1.157 -0.0955  0.2270  0.0311
96491W        W39544   9.804  32.339   2.367 -0.1349 -0.2540 -0.1630
96492W        W39545  17.677   0.342  24.564  0.2695  0.5012  0.2522
96493W        W39546  18.150  32.418  26.925 -0.2312 -0.0684  0.0198
96494W        W39547  29.464  27.334   0.730 -0.0285 -0.0400 -0.3308
96495W        W39548  18.294  11.915   2.575  0.2846  0.3613  0.2595
96496W        W39549  33.532  24.873   8.013 -0.2310 -0.3726  0.0771
96497W        W39550  10.926  18.128  18.860  0.0355 -0.2154  0.0833
96498W        W39551  18.420  16.075  23.437  0.2701 -0.4243 -0.0801
96499W        W39552   3.423  33.370   7.874 -0.2816 -0.1417 -0.2461
96500W        W39553  23.363   0.520   5.627 -0.1260  0.2076  0.1770
96501W        W39554  24.357  16.181  17.998  0.1982 -0.0411 -0.1974
96502W        W39555  11.196  25.625   4.552  0.1023  0.0984 -0.3507
96503W        W39556   6.121  20.805   0.215  0.1646 -0.1258 -0.2246
96504W        W39557  24.796  14.785   7.619 -0.1630  0.3126  0.0078
96505W        W39558  10.681  32.006  17.323  0.0052  0.0262  0.0593
96506W        W39559   6.635  25.927  27.038  0.1156 -0.2497 -0.1975
96507W        W39560  22.204  21.616  25.200 -0.1128 -0.1403 -0.0357
96508W        W39561  25.484  23.746  18.383 -0.0425 -0.2668  0.0008
96509W        W39562  16.980   5.440  25.913 -0.0142 -0.0666  0.0122
96510W        W39563  22.024  17.332   2.658 -0.0080  0.2392 -0.0909
96511W        W39564   3.912  23.358  10.045  0.1143  0.0786 -0.2324
96512W        W39565  23.674  10.611   6.264 -0.0706 -0.1156  0.3480
96513W        W39566  21.159   0.378   9.755 -0.0160  0.0556  0.2067
96514W        W39567  15.715   1.309   1.896  0.1215 -0.1558  0.1135
96515W        W39568  12.113  21.849   7.335  0.0068  0.2701  0.1673
96516W        W39569  12.438  22.031  26.856 -0.0240  0.0797  0.0916
96517W        W39570  10.227  25.476  21.175 -0.0033 -0.3150  0.2008
96518W        W39571  24.657  31.035   4.175 -0.0144 -0.2443  0.1492
96519W        W39572   5.107   2.974   1.989 -0.3154 -0.1599  0.1325
96520W        W39573  15.762  12.376   8.446  0.1168  0.2705  0.2110
96521W        W39574  13.821  21.495  27.513 -0.0098  0.1613 -0.1025
96522W        W39575  18.632  29.040   4.629  0.1333  0.1932 -0.1131
96523W        W39576  14.258   0.997   3.249  0.0856 -0.0258 -0.3863
96524W        W39577  16.661  16.184   8.486  0.1009  0.2183 -0.1133
96525W        W39578   1.920  27.567   8.811  0.0507 -0.1325  0.1123
96526W        W39579  11.071  20.963   3.105  0.0234  0.5013  0.0687
96527W        W39580   8.727  14.084   3.696 -0.4288  0.4942 -0.1560
96528W        W39581  18.118  20.557   6.980 -0.2461 -0.1299  0.1026
96529W        W39582  21.252   1.174  17.140  0.5306 -0.1353  0.2579
96530W        W39583  26.170  13.449   3.428  0.0240  0.0383 -0.4528
96531W        W39584  21.654   6.865   0.169  0.1248 -0.1289 -0.0561
96532W        W39585  24.448  23.956   3.442  0.0178 -0.1958  0.0749
96533W        W39586  18.105   7.847   9.089 -0.2359 -0.1457  0.0706
96534W        W39587   3.662  22.316  28.805 -0.1359 -0.0770  0.0780
96535W        W39588  17.550   5.576   8.662  0.0290  0.0494 -0.2003
96536W        W39589   9.997   6.854   8.819  0.2345  0.1468  0.2299
96537W        W39590  12.949   0.172  27.064  0.3153 -0.2484 -0.2307
96538W        W39591  15.540  33.200   4.621 -0.2393  0.1204 -0.1130
96539W        W39592  27.688   6.068   3.309  0.0502 -0.0142  0.0185
96540W        W39593   5.468  30.741   2.756  0.3151 -0.3106  0.0660
96541W        W39594   9.348  23.163   4.857  0.1613  0.1436  0.4474
96542W        W39595   9.422   1.450   3.982  0.3119  0.0782  0.2909
96543W        W39596  15.281  10.414   5.974 -0.3799 -0.0889 -0.2007
96544W        W39597  15.283   0.177   4.392 -0.2123  0.0782  0.1149
96545W        W39598  19.190  27.555  20.113 -0.1738 -0.2615 -0.2446
96546W        W39599   8.484   4.500  28.473  0.1065 -0.1898 -0.3255
96547W        W39600  27.403   2.792  22.520 -0.3889 -0.0083 -0.2161
96548W        W39601   6.722  33.564  26.883 -0.1363  0.3560  0.4540
96549W        W39602  14.156  28.791   7.826 -0.2714 -0.3652 -0.2238
96550W        W39603  14.482   0.795  10.408 -0.2573 -0.1231 -0.3341
96551W        W39604   2.674   2.473   2.776  0.1281 -0.1962 -0.1192
96552W        W39605   8.403  27.096   6.377 -0.1500  0.1172  0.1703
96553W        W39606  19.857  14.498  28.619  0.0258 -0.0882 -0.0645
96554W        W39607  13.156   2.295  20.930  0.0357  0.1001 -0.2804
96555W        W39608   1.752  33.618   0.483 -0.2552 -0.0686  0.0694
96556W        W39609  10.500  25.036   4.788  0.1077  0.1183 -0.1949
96557W        W39610  18.527  29.451   7.215 -0.3204  0.1591 -0.1335
96558W        W39611  18.967   5.873  19.942  0.3754 -0.0121  0.0098
96559W        W39612  10.775  30.783   1.936  0.0607 -0.1067  0.2233
96560W        W39613   2.167  33.618  25.133  0.3433 -0.1285  0.0404
96561W        W39614  12.185   0.140  28.204  0.2139  0.1051 -0.0928
96562W        W39615  12.188  10.968   3.848  0.0011 -0.0721 -0.0436
96563W        W39616   7.171  32.752   7.709 -0.2962 -0.2383 -0.0094
96564W        W39617  24.939   2.702  27.497 -0.1627  0.0229  0.1174
96565W        W39618   7.326  20.008  19.145  0.0851 -0.1288  0.1927
96566W        W39619   8.952  12.318   8.486 -0.3332  0.1538  0.1225
96567W        W39620  10.375   1.200  27.961  0.3894  0.2261  0.1662
96568W        W39621   7.078  18.742   6.715 -0.0617  0.0007  0.1692
96569W        W39622  17.468  33.523   1.838 -0.0729 -0.0404 -0.1181
96570W        W39623   6.318  19.717   1.244 -0.0128  0.1346  0.3078
96571W        W39624  18.321  20.382   0.852  0.1381  0.1684 -0.1465
96572W        W39625  17.679  27.669   4.595 -0.1904 -0.1195 -0.0563
96573W        W39626  21.633  29.497  22.176 -0.0307 -0.0158 -0.0387
96574W        W39627   2.262  25.264   1.396 -0.1604 -0.0003  0.0994
96575W        W39628   6.969  13.599   3.744  0.1372  0.0799  0.1368
96576W        W39629  22.090  12.362  19.954 -0.1248 -0.1335 -0.0746
96577W        W39630   9.267   2.994   5.275  0.0341  0.0586 -0.0153
96578W        W39631  10.767  12.067   5.478  0.1091  0.1523  0.2966
96579W        W39632  26.611  27.841   8.543  0.1363  0.2544 -0.1031
96580W        W39633  16.410  28.701  18.946  0.3300 -0.1670  0.0047
96581W        W39634  27.351  30.875   1.694  0.1831 -0.2255  0.1811
96582W        W39635  15.296  23.186   3.129  0.3516  0.3005  0.0159
96583W        W39636   7.717   5.217   7.475  0.0737  0.0607  0.0734
96584W        W39637   3.406   1.426  19.749 -0.1720 -0.3301 -0.1207
96585W        W39638   8.652  25.127   8.947  0.0145 -0.0552  0.3326
96586W        W39639  31.421  34.504   9.268 -0.0235  0.0592  0.1564
96587W        W39640  21.397  14.712   7.198 -0.0855  0.0349 -0.1406
96588W        W39641  14.303   8.563   4.805 -0.0144  0.1094  0.1707
96589W        W39642  21.628   8.381  19.812  0.4052  0.0381  0.0992
96590W        W39643  15.510  26.922   2.988 -0.3679  0.0968  0.2286
96591W        W39644  28.938   1.581  27.697  0.1437 -0.0916 -0.0429
96592W        W39645   0.782  18.622   6.887  0.0013 -0.1972  0.1324
96593W        W39646  12.376  20.502  20.724 -0.4650 -0.3657  0.0621
96594W        W39647  13.909  17.139   3.688 -0.0421 -0.0590  0.1577
96595W        W39648  17.015  24.598   5.394 -0.2621 -0.0607 -0.0592
96596W        W39649  33.580  30.448   1.938 -0.1846 -0.2700  0.3060
96597W        W39650  26.302  15.110   9.608  0.0577  0.1398  0.0388
96598W        W39651   3.275  26.562  25.745 -0.0123 -0.2426 -0.4888
96599W        W39652  25.468   8.291   6.340  0.1748  0.1530  0.0010
96600W        W39653  30.674   2.321  28.153 -0.1470 -0.0377 -0.1791
96601W        W39654  17.284  11.285   5.538  0.1736 -0.0898 -0.1280
96602W        W39655  17.195  21.425   0.933 -0.2185 -0.0167 -0.0318
96603W        W39656  10.274  29.418   5.065 -0.2448 -0.0886 -0.1872
96604W        W39657  16.971  29.921  28.007  0.0753  0.1692  0.4430
96605W        W39658  17.147  27.929   3.947 -0.1270 -0.0533  0.0060
96606W        W39659  20.188  33.606   6.772 -0.1424  0.2921 -0.0241
96607W        W39660  22.342  33.139   3.781  0.2071  0.1716  0.0817
96608W        W39661   1.655  12.479   0.432  0.0663  0.0284 -0.2678
96609W        W39662   7.727  16.704  28.332  0.4343  0.2356  0.1786
96610W        W39663  33.936  27.230  25.600  0.3690 -0.2094  0.1058
96611W        W39664  17.788   4.608  10.549 -0.0237  0.1240  0.1038
96612W        W39665  28.390  32.387   2.604 -0.2284 -0.0518  0.0168
96613W        W39666  18.020   9.079   6.297 -0.0236 -0.3130 -0.1337
96614W        W39667  15.105  15.476   1.862 -0.1314 -0.2002 -0.1038
96615W        W39668  16.422  29.997  17.014 -0.0548  0.0443  0.3161
96616W        W39669  12.704  18.622   8.995 -0.1090  0.0085 -0.1205
96617W        W39670  15.886  29.817   4.111 -0.0193 -0.3208  0.0333
96618W        W39671  21.576   2.900   6.304 -0.0491 -0.0717  0.0605
96619W        W39672  22.506   4.030  21.517 -0.1657 -0.1510 -0.0721
96620W        W39673   2.107   2.448   9.086 -0.2986 -0.0151 -0.1532
96621W        W39674  23.742  10.568  29.153 -0.2649 -0.1747  0.0726
96622W        W39675  13.056  29.491   8.830 -0.0432  0.0525 -0.0549
96623W        W39676   9.079  32.791  21.959  0.0036  0.1519  0.0504
96624W        W39677  24.802   7.983  17.078 -0.4443  0.2410 -0.1700
96625W        W39678  16.149  29.213  10.916  0.0615  0.3521 -0.1634
96626W        W39679  12.367  28.835   6.983  0.0735  0.1228 -0.1265
96627W        W39680  11.755  18.150  21.029  0.1312 -0.3280  0.1954
96628W        W39681   9.045   0.214   1.395 -0.2919  0.1764 -0.0251
96629W        W39682  11.903  17.052  28.825  0.1261  0.1898  0.0140
96630W        W39683  30.044  14.879   1.326  0.1729  0.1378 -0.0449
96631W        W39684  12.785   0.786  16.836  0.1689  0.1564 -0.1692
96632W        W39685  24.702  26.284   5.077 -0.0218  0.2552 -0.2777
96633W        W39686   7.831  26.173   7.224 -0.0381 -0.1146  0.0133
96634W        W39687  15.766  29.464   8.284 -0.1550  0.4376 -0.0487
96635W        W39688  15.440  32.687   2.513  0.2870 -0.3621  0.0943
96636W        W39689  12.325  12.558  28.057  0.0331  0.1538 -0.0120
96637W        W39690  33.533  28.956  25.094 -0.0272  0.0939 -0.1720
96638W        W39691   9.237  27.834   1.469  0.0329  0.1936  0.1704
96639W        W39692  30.563   9.043   5.651 -0.1953 -0.1056 -0.2145
96640W        W39693   7.261  27.136   0.073 -0.1376  0.0579 -0.0197
96641W        W39694  25.590   9.870   4.303  0.1239  0.0134  0.2429
96642W        W39695  15.948  17.034   5.554 -0.3706 -0.0105  0.1840
96643W        W39696   1.263  27.329   8.160 -0.0021 -0.1242 -0.1627
96644W        W39697  16.030   4.913   9.977 -0.2573 -0.0144  0.2964
96645W        W39698  28.731   1.755  14.471  0.2485  0.0749 -0.0342
96646W        W39699   2.625  17.439   5.220  0.2091 -0.0455  0.0771
96647W        W39700  12.529  33.921  10.139 -0.3872 -0.1664  0.0446
96648W        W39701  20.610  25.678  10.356 -0.3363 -0.0876 -0.2923
96649W        W39702   9.417  18.066  14.827  0.0656  0.1965 -0.0959
96650W        W39703  18.465  17.962   6.038 -0.2778 -0.3847 -0.0673
96651W        W39704  30.445  24.463   4.088  0.1389  0.0222 -0.0813
96652W        W39705   8.564  18.883  28.837 -0.1592  0.0854  0.3767
96653W        W39706   7.290  26.728  23.479  0.3113 -0.0078 -0.0336
96654W        W39707   6.233   9.784  25.569  0.1666  0.1011  0.0581
96655W        W39708  27.233  27.592   4.413  0.0534  0.0371  0.1236
96656W        W39709  15.631  29.071   4.621 -0.0010  0.2056  0.1794
96657W        W39710  26.674  27.870   3.040 -0.1803 -0.0949 -0.0653
96658W        W39711  14.213   9.239   0.364 -0.1320 -0.4048  0.1347
96659W        W39712  25.846  28.126   8.918 -0.1116  0.0376  0.2926
96660W        W39713  29.811  23.459  29.168 -0.1447 -0.0922  0.0840
96661W        W39714  22.943  19.131   5.556 -0.2730 -0.1410  0.0193
96662W        W39715  20.513  16.343   2.628  0.0969  0.0335 -0.0791
96663W        W39716   0.180   1.159   3.019 -0.1926  0.0348 -0.3655
96664W        W39717  12.717  32.641   1.979  0.1918  0.0230  0.1121
96665W        W39718   5.638   4.186  24.222  0.2016 -0.0669  0.1041
96666W        W39719   4.956  21.714   5.946  0.0630  0.2399  0.1259
96667W        W39720   0.351  34.553  15.984 -0.1221 -0.1789 -0.0332
96668W        W39721  18.888  19.894   4.166  0.0686  0.0517  0.1439
96669W        W39722  13.283  17.513   8.108  0.1986  0.1446 -0.2667
96670W        W39723  17.677   3.735  22.090  0.4456  0.0368 -0.0985
96671W        W39724   6.099  27.814  26.933  0.1269 -0.1079  0.1038
96672W        W39725  32.281  34.187   2.736 -0.2063  0.0278  0.0257
96673W        W39726  15.676   6.621   0.536 -0.0475  0.1135  0.3594
96674W        W39727   6.111   4.421   1.907  0.2215  0.3240 -0.2197
96675W        W39728   1.361  20.623  28.999  0.1145  0.1045  0.0984
96676W        W39729  13.774  17.255   6.152 -0.2876  0.1205 -0.1165
96677W        W39730  17.477  22.145   1.610 -0.1043  0.2825  0.0635
96678W        W39731  14.500   7.814   7.213  0.1066  0.1288  0.0507
96679W        W39732  20.712  23.301   5.355 -0.0103  0.0145 -0.1060
96680W        W39733   8.813  13.525   1.505  0.1811  0.1127 -0.0598
96681W        W39734  14.314  26.881   1.917  0.3674 -0.3638 -0.0770
96682W        W39735  31.195  32.267  24.591  0.0426  0.0468 -0.0885
96683W        W39736   7.655  31.151   6.793  0.1289 -0.2468 -0.1958
96684W        W39737   0.962  21.513   5.532  0.0155  0.2012 -0.1226
96685W        W39738   0.591   7.090   9.893 -0.1456  0.1390 -0.3239
96686W        W39739  14.935   4.517   6.411 -0.2299  0.0361 -0.1774
96687W        W39740   2.896   0.318  25.503 -0.0360 -0.0992 -0.2113
96688W        W39741  20.833  21.802  19.931  0.1708 -0.1321  0.1401
96689W        W39742  12.688  28.259   8.767 -0.0726  0.2165  0.1953
96690W        W39743  13.908  30.642   0.544 -0.4465  0.1646  0.2132
96691W        W39744  21.342  23.812   7.061  0.0228 -0.0243 -0.1442
96692W        W39745  27.607  24.566   1.961  0.0336  0.0814  0.3052
96693W        W39746   7.960   0.761   3.011 -0.0115  0.0403  0.0196
96694W        W39747   6.606  30.024   3.223 -0.1350  0.0768 -0.0456
96695W        W39748   4.234  12.859  11.041  0.0479 -0.2356 -0.0151
96696W        W39749  21.351  17.731  20.646 -0.0241 -0.0648 -0.4195
96697W        W39750  27.142   5.249  10.153 -0.1599 -0.0013 -0.1091
96698W        W39751  27.421   1.435   6.927 -0.3937  0.2205  0.0468
96699W        W39752  18.053  20.060  26.515  0.0826 -0.4392  0.0672
96700W        W39753  10.481  32.790  28.929 -0.1220 -0.2467  0.0921
96701W        W39754   8.774   1.891   9.472 -0.2974  0.3467  0.1853
96702W        W39755  20.812  16.173   3.085  0.0225 -0.1030  0.1089
96703W        W39756  13.239  28.367   2.659 -0.0784 -0.0487 -0.0893
96704W        W39757   7.399  20.058   6.715 -0.2204 -0.2120 -0.0058
96705W        W39758  12.364  15.318   2.844  0.1343  0.2347  0.1654
96706W        W39759  14.661   7.570   7.756 -0.2944 -0.0456 -0.0666
96707W        W39760  14.472  33.688  26.870 -0.0293  0.1440 -0.1212
96708W        W39761  13.046  20.839  25.138  0.1520 -0.3921  0.3831
96709W        W39762  25.923   6.082   1.547 -0.1366 -0.0668  0.0201
96710W        W39763  10.934  28.435   8.572  0.2495 -0.0278 -0.1244
96711W        W39764  28.267  14.355   1.133 -0.3382 -0.0903  0.1792
96712W        W39765  24.889  32.034  26.127 -0.1436 -0.1632 -0.0240
96713W        W39766   9.724  20.521   6.633  0.0548  0.0671 -0.0744
96714W        W39767  20.041  34.141   1.029 -0.2070 -0.1774  0.1295
96715W        W39768  26.041  23.474   8.769  0.1072  0.1912  0.2123
96716W        W39769  23.671  21.348   1.386 -0.0480  0.0322 -0.1151
96717W        W39770  12.899   0.338   3.253  0.0347 -0.0813  0.0769
96718W        W39771  15.852  30.046   8.181 -0.2647  0.2584 -0.1104
96719W        W39772  10.915  27.137  23.406  0.1473 -0.0529 -0.0909
96720W        W39773  25.883  26.332  20.597 -0.2989  0.0312 -0.0108
96721W        W39774  11.611  12.951  26.986 -0.2032 -0.2706 -0.0082
96722W        W39775  11.692  27.175   6.087  0.1629  0.1213  0.0087
96723W        W39776  21.099   0.567  26.657  0.1089 -0.1597  0.0322
96724W        W39777  12.153   0.356  28.741  0.1427  0.1531 -0.0482
96725W        W39778  21.626   1.641   6.707  0.0081  0.3269 -0.0396
96726W        W39779   9.406  24.468   7.897  0.0802  0.1574 -0.2020
96727W        W39780   7.141  31.014  28.739 -0.0717  0.1786 -0.1353
96728W        W39781  17.742  29.806  20.756  0.0434  0.2807 -0.0512
96729W        W39782  16.444  17.442  25.620 -0.0781  0.0558 -0.0279
96730W        W39783  26.133  16.943   5.752 -0.1429 -0.2933 -0.0613
96731W        W39784  17.130  20.172  26.038  0.2744 -0.0422  0.1457
96732W        W39785  12.753  12.531   5.915 -0.1271 -0.2190  0.0837
96733W        W39786  20.585   1.802  27.907  0.1078 -0.3444 -0.0383
96734W        W39787   6.567   1.372  28.906  0.0537  0.0734  0.1653
96735W        W39788  14.166  14.155   7.382  0.2211  0.1885  0.1381
96736W        W39789  16.135  26.109   2.168  0.1441  0.0181  0.1227
96737W        W39790  10.162   9.817  25.841 -0.0752 -0.1936 -0.2344
96738W        W39791  17.974   2.326   5.497  0.2801 -0.1120 -0.0486
96739W        W39792  24.869   6.331   4.209 -0.0883  0.1660  0.0274
96740W        W39793  18.909  26.321   4.995 -0.1223  0.1700  0.1374
96741W        W39794  17.947   1.756   4.211  0.2038 -0.0822  0.1713
96742W        W39795  15.753  28.756   8.607  0.1006 -0.2230  0.2575
96743W        W39796   8.316  29.730   6.414  0.1292 -0.1956 -0.0792
96744W        W39797  22.786  31.713   0.984  0.0659 -0.1824  0.1473
96745W        W39798  16.806  30.461   7.192  0.1492 -0.1121 -0.0306
96746W        W39799  15.213  24.668  27.987  0.1733  0.0618  0.1730
96747W        W39800   9.347   5.191   4.782 -0.1177 -0.0712 -0.0128
96748W        W39801  10.240  29.354   0.402  0.0966 -0.2506 -0.0543
96749W        W39802  12.147  24.893   0.628 -0.2267  0.0793  0.1450
96750W        W39803   7.477  29.709   3.409 -0.1223 -0.2516 -0.2902
96751W        W39804  28.572   5.402   9.743  0.1547  0.2036 -0.1255
96752W        W39805   8.927  23.853   3.300  0.3541  0.1789  0.1732
96753W        W39806   3.907  14.431  14.682  0.1426  0.0307  0.1326
96754W        W39807   9.261  30.868   1.221  0.0283 -0.0737  0.1810
96755W        W39808  33.718  21.423   5.941 -0.0941 -0.2010 -0.1753
96756W        W39809  11.072  21.279  28.381 -0.4215  0.0949 -0.1879
96757W        W39810  24.399   0.039   7.764 -0.0110  0.4256  0.2172
96758W        W39811  10.771  31.870  29.018  0.1507  0.1538 -0.0598
96759W        W39812  15.603  14.478   6.296  0.2178 -0.0956  0.0524
96760W        W39813   6.171  26.212   4.268 -0.2206  0.0172 -0.0753
96761W        W39814  20.819  16.008  15.883  0.0380  0.2731  0.2015
96762W        W39815  29.380  20.878  18.073 -0.0035 -0.2350 -0.1526
96763W        W39816   8.012  31.726   3.589  0.0595  0.1288 -0.0114
96764W        W39817  21.431   3.970  21.288  0.2507  0.0014  0.0183
96765W        W39818  17.523   1.481   2.729 -0.0536  0.0127  0.2351
96766W        W39819  23.417  30.558   9.603 -0.0926 -0.0801  0.0852
96767W        W39820   6.665   0.750  26.236  0.0349 -0.1381  0.1058
96768W        W39821  17.858  23.319  14.834  0.2690  0.1591  0.2343
96769W        W39822  19.811  34.298   5.370 -0.2725 -0.2055  0.3842
96770W        W39823   9.845   3.619  28.684 -0.3964 -0.1283  0.0636
96771W        W39824  21.168  26.322  28.491  0.1207  0.1802 -0.0075
96772W        W39825  22.214  23.268   7.544 -0.1236  0.3036  0.0928
96773W        W39826  26.102  26.014   2.157 -0.2704 -0.2384  0.3517
96774W        W39827  19.441  24.073   4.862 -0.1230 -0.0958 -0.1176
96775W        W39828  27.437  23.756   5.162  0.2537 -0.0954  0.1966
96776W        W39829  13.547  15.119  22.757  0.2448  0.3482 -0.0035
96777W        W39830  17.526  30.738   9.503  0.0063  0.0547  0.0325
96778W        W39831  22.194  15.194   6.768 -0.0386  0.0930  0.0206
96779W        W39832  10.598   1.711   0.675 -0.1119 -0.0473 -0.0293
96780W        W39833  28.742   0.716   5.510 -0.1500  0.0535  0.1050
96781W        W39834  29.793  16.753   2.782 -0.3090 -0.1108  0.0075
96782W        W39835  23.587   4.393   0.039  0.0597  0.2507 -0.0989
96783W        W39836  11.552  31.070  10.017  0.1050  0.3707  0.0367
96784W        W39837   1.563  16.752   7.847 -0.1814  0.0710  0.1265
96785W        W39838   7.258  34.124   4.169 -0.2986  0.3722 -0.2500
96786W        W39839  33.001   8.321  26.827 -0.0630  0.2053 -0.0659
96787W        W39840  18.290   0.055  26.342 -0.1335  0.1942  0.1011
96788W        W39841  32.298  16.756   9.506  0.0599  0.1430  0.0260
96789W        W39842  29.426  21.886  26.622 -0.4050  0.1579 -0.0145
96790W        W39843  10.692  26.454  26.206  0.0742  0.3057  0.2430
96791W        W39844  17.071  26.757   6.644  0.0666  0.2948  0.1379
96792W        W39845  14.186  17.965   9.126 -0.1242 -0.0854 -0.0857
96793W        W39846  13.011  33.545   1.871  0.2905 -0.0113 -0.0707
96794W        W39847  14.110  29.931   4.895 -0.1665 -0.0065  0.0263
96795W        W39848  11.702  16.996   1.294 -0.0900 -0.0397 -0.0597
96796W        W39849  14.200  33.672   3.595  0.1127  0.0105  0.2333
96797W        W39850  22.749   2.526   3.352  0.2267  0.2585 -0.1327
96798W        W39851  30.813   3.806  24.535  0.1040 -0.4053 -0.0874
96799W        W39852  10.969  27.612   5.481  0.1109  0.1634 -0.2400
96800W        W39853  16.771  33.815  28.634 -0.3276 -0.1584  0.0603
96801W        W39854  11.116  28.477   3.370  0.0241 -0.2968  0.1217
96802W        W39855   2.451   0.973   3.715 -0.0494  0.1363  0.0136
96803W        W39856  28.444  23.127  20.310 -0.0789  0.0150  0.1260
96804W        W39857  12.833  33.547   0.030  0.0978  0.1222  0.0121
96805W        W39858  22.866  18.299   8.487 -0.0709 -0.0894  0.2341
96806W        W39859  12.255  32.069  25.200  0.2054 -0.0613  0.1416
96807W        W39860  23.256   9.552  28.250  0.0585 -0.1036  0.2069
96808W        W39861  33.215  27.669   4.837  0.0039 -0.1355 -0.4022
96809W        W39862  30.650  23.840  25.598 -0.0471  0.0677  0.0174
96810W        W39863  16.685  22.671   3.171 -0.2670 -0.1955 -0.0024
96811W        W39864   9.258  16.779   8.442 -0.0649  0.2271 -0.3169
96812W        W39865  32.975  21.511   2.544  0.2791  0.0802  0.2822
96813W        W39866   0.728  28.641  25.746 -0.0206  0.3660  0.0780
96814W        W39867   6.634  24.964   0.720  0.1631  0.0241 -0.1512
96815W        W39868  20.546  28.283  26.389  0.0112 -0.3230 -0.3442
96816W        W39869  16.131   3.070  27.839 -0.2098 -0.0457  0.0283
96817W        W39870  14.320  15.978   0.638 -0.2569  0.0179 -0.1578
96818W        W39871  27.643  19.494   6.341  0.1572  0.1128 -0.1566
96819W        W39872  10.102  19.614   3.708 -0.0540  0.2413 -0.0830
96820W        W39873   8.004  22.557   9.596 -0.0204  0.2584  0.3105
96821W        W39874  34.004  27.173   1.925 -0.0538  0.0921 -0.0761
96822W        W39875   9.482  33.943  10.066 -0.0377 -0.2127 -0.0318
96823W        W39876  16.438  18.397  25.817 -0.2177  0.2422  0.3062
96824W        W39877   2.729   6.914   5.353 -0.2309  0.0781 -0.0638
96825W        W39878  16.757  34.537   7.550  0.0791 -0.1497  0.2169
96826W        W39879  27.746  17.619   6.150 -0.0203  0.0867 -0.0001
96827W        W39880  14.593  27.457  28.598 -0.1273 -0.1295  0.0031
96828W        W39881  10.254  25.195  20.317 -0.0753  0.1094 -0.1356
96829W        W39882   8.406  31.872   2.995  0.2215 -0.0783 -0.0753
96830W        W39883  21.509   4.371   2.924  0.0348  0.0242  0.1499
96831W        W39884  15.661  19.238   1.904  0.3254 -0.0164  0.2298
96832W        W39885   2.218   4.910  24.713  0.0933  0.2701  0.2545
96833W        W39886   6.633   1.236   1.622  0.1487 -0.0460  0.0154
96834W        W39887   9.886   5.486  23.124  0.1357  0.1118  0.1745
96835W        W39888  22.706  33.824   8.861  0.2160 -0.0168  0.0043
96836W        W39889  29.931  10.215   7.197 -0.1598  0.2938 -0.2344
96837W        W39890   6.990  19.191   9.032 -0.2890 -0.0562  0.0483
96838W        W39891  20.341  31.964   0.837  0.0671  0.3504  0.1100
96839W        W39892   4.734  11.975   7.793 -0.2155  0.3046 -0.3322
96840W        W39893  11.425  19.169   0.154  0.0532  0.0684  0.0832
96841W        W39894  21.749  33.801   0.348  0.0235 -0.0134 -0.1613
96842W        W39895  15.438  31.243  19.118 -0.0419 -0.2474 -0.0448
96843W        W39896  32.505  19.096  22.892  0.1881  0.1198  0.0690
96844W        W39897   7.914   7.077  16.397 -0.2091  0.1197  0.2298
96845W        W39898  20.348   0.015   9.238  0.2794 -0.0736  0.0080
96846W        W39899   4.079  24.573  18.292 -0.2324 -0.0737  0.0304
96847W        W39900  10.941  21.003  24.848  0.0993 -0.0837  0.3510
96848W        W39901  10.140  22.098  28.886  0.3187 -0.2955  0.0992
96849W        W39902  11.055  29.270  15.950 -0.0761  0.1692 -0.0891
96850W        W39903  16.113  32.496  14.690 -0.0455 -0.1710  0.1209
96851W        W39904  20.165  33.326   4.485 -0.0902 -0.1393 -0.0327
96852W        W39905  33.511  12.509   3.493  0.1512 -0.0171  0.1989
96853W        W39906  20.665   0.503   7.974  0.1936 -0.2213 -0.3497
96854W        W39907  11.068  30.247   7.921 -0.0484 -0.0825  0.1822
96855W        W39908  20.641  17.331   8.729 -0.1487  0.3768 -0.0631
96856W        W39909  31.534  22.272   8.904 -0.1295  0.0881  0.1237
96857W        W39910  20.021   3.175  25.976 -0.1777  0.1758 -0.1471
96858W        W39911  17.595  25.200  10.033 -0.0333 -0.0467  0.2653
96859W        W39912  12.886  21.209   7.169  0.1406 -0.0551  0.2531
96860W        W39913  19.210   9.466   8.094  0.3112  0.1884 -0.1345
96861W        W39914   0.351  25.966   2.269  0.1078  0.2273 -0.1359
96862W        W39915  15.166  19.702  23.601  0.1281 -0.0618 -0.1145
96863W        W39916  32.149   9.168   4.658  0.0065 -0.1042 -0.1938
96864W        W39917  14.616   4.481   7.674  0.0168  0.1521  0.1205
96865W        W39918  11.353   0.931   3.379  0.1764 -0.1873  0.1425
96866W        W39919   4.581  10.023   4.962 -0.2972 -0.0435 -0.1138
96867W        W39920  24.412   6.520   5.833  0.1328  0.0486 -0.1941
96868W        W39921   7.802  28.384  15.865  0.0524  0.3766 -0.1545
96869W        W39922  27.321  34.493  23.089  0.0272  0.0311  0.1995
96870W        W39923  22.583  14.606   7.372 -0.4779 -0.2623  0.0615
96871W        W39924  15.047  33.478   8.349 -0.1210  0.1516 -0.1576
96872W        W39925  18.868   4.047   2.373 -0.0724 -0.0085 -0.0023
96873W        W39926  15.094  32.864   6.168  0.2015  0.1441 -0.0438
96874W        W39927  15.583  32.396   6.358  0.2428  0.3575 -0.0808
96875W        W39928  25.244  31.251   8.428  0.1391 -0.2001  0.0753
96876W        W39929  24.387  28.541   6.829  0.2770 -0.1830  0.0376
96877W        W39930  17.023  30.880  24.448 -0.0049  0.1283  0.0364
96878W        W39931   9.831   7.980   4.480 -0.0759  0.1201  0.1432
96879W        W39932   7.316  20.650   7.975  0.0691 -0.2069 -0.0588
96880W        W39933  13.102  25.363   7.445 -0.2110  0.2680  0.2880
96881W        W39934   8.662   6.435   1.144 -0.1965  0.3533  0.1794
96882W        W39935  10.337  30.362  25.499 -0.0625 -0.1670 -0.2874
96883W        W39936  11.127  13.573   1.907  0.2239 -0.1488  0.0816
96884W        W39937   9.062  34.637   0.757  0.1432 -0.3580  0.0407
96885W        W39938   5.069   1.077  26.186  0.3521 -0.0037  0.0349
96886W        W39939   8.663   1.451   1.023  0.0884 -0.2319 -0.0907
96887W        W39940  22.494   2.522   8.022  0.0108  0.0089 -0.2493
96888W        W39941  15.174  29.579   9.139  0.1377  0.1036 -0.4119
96889W        W39942   2.266  10.610   6.795  0.2192 -0.1054  0.0995
96890W        W39943   7.959  11.605   8.348 -0.0307  0.1401  0.4319
96891W        W39944  25.657  31.252   8.936  0.2568  0.0315  0.3281
96892W        W39945   7.006  23.887   5.242  0.1984  0.1736  0.1834
96893W        W39946  17.096  19.054   5.091  0.5182  0.1069  0.0355
96894W        W39947  10.903  18.992   5.539 -0.3822  0.1444  0.3510
96895W        W39948  15.459  34.145   7.066 -0.2178  0.2991  0.1224
96896W        W39949  18.672  17.038   6.059 -0.0183 -0.2816 -0.0328
96897W        W39950  11.552  31.172   1.325  0.2273  0.1930 -0.0330
96898W        W39951  15.170  24.592  24.466 -0.1834 -0.3818 -0.0759
96899W        W39952  27.010  14.802   7.672  0.1750 -0.1102  0.3200
96900W        W39953  12.274  25.382   8.860  0.0165  0.0320  0.3289
96901W        W39954  22.077  24.184   5.995 -0.1177 -0.0422  0.1255
96902W        W39955  14.664   0.651   3.958 -0.0554 -0.1574  0.4316
96903W        W39956  29.393  26.292  25.859  0.2074  0.1650  0.0511
96904W        W39957   8.669  34.310  29.162  0.0668  0.1339 -0.1772
96905W        W39958   9.901  21.644  26.236 -0.2441  0.1632 -0.1936
96906W        W39959  19.003  12.104   1.546 -0.1561  0.1526  0.4937
96907W        W39960  32.666   3.660  28.645 -0.0151 -0.1259  0.2429
96908W        W39961   5.713   4.097  27.002  0.2111  0.0354  0.2424
96909W        W39962   0.998   4.630  18.812  0.4702  0.0812  0.1679
96910W        W39963  21.301   4.356  19.091 -0.1527  0.0334 -0.1818
96911W        W39964   5.171  17.707   7.146 -0.2541  0.0300 -0.0433
96912W        W39965  30.494  33.172   3.600  0.2831 -0.1737 -0.1626
96913W        W39966  16.369  23.218   4.724 -0.0177 -0.4152 -0.2385
96914W        W39967  17.394   2.365  17.951 -0.1023  0.3321  0.0565
96915W        W39968   7.216  24.645  20.383  0.2344  0.1217 -0.0960
96916W        W39969  31.099  33.580   2.252  0.1521  0.2822 -0.0863
96917W        W39970   2.390   6.387   2.839 -0.0078  0.0451  0.0169
96918W        W39971   2.926   0.575   9.570  0.0957  0.0443  0.0177
96919W        W39972  20.161  23.086  27.218  0.0101 -0.1049  0.0048
96920W        W39973   7.953   3.789   3.839 -0.0248 -0.0897  0.0600
96921W        W39974  29.299   0.457  27.468 -0.0602 -0.0061  0.0823
96922W        W39975  19.978  20.051  28.721  0.2605 -0.0422 -0.1181
96923W        W39976  34.375   6.337   6.333  0.1267 -0.0907  0.1204
96924W        W39977   6.452  15.737  27.341  0.0452 -0.0076  0.1105
96925W        W39978  15.954  21.060   1.572 -0.1304  0.0523  0.1415
96926W        W39979   8.958  22.939  26.997 -0.3265 -0.0288 -0.0062
96927W        W39980   0.578  24.725   9.879  0.0017 -0.2698  0.0419
96928W        W39981  12.664  20.989   3.016  0.0380  0.0799  0.0486
96929W        W39982  10.927  21.323   1.800 -0.0399  0.0027  0.1424
96930W        W39983  14.221  29.968   5.877 -0.1490 -0.1231  0.0586
96931W        W39984   9.737   3.635   8.524 -0.1491  0.0513  0.1347
96932W        W39985   9.159  27.150   2.779  0.1305  0.0725 -0.0447
96933W        W39986  11.972   1.090   8.916 -0.3496 -0.1746  0.1265
96934W        W39987  19.152  25.582  10.950 -0.1267 -0.1277 -0.0041
96935W        W39988  19.495   0.039   3.322 -0.0815  0.0606  0.1524
96936W        W39989   3.329  32.049   7.617  0.0115  0.1252 -0.2156
96937W        W39990  17.786   9.676   3.954  0.0404  0.3283 -0.0405
96938W        W39991  17.729   8.428   5.620 -0.1758 -0.2121 -0.1392
96939W        W39992  18.251   5.629   8.849  0.0387 -0.0039  0.2683
96940W        W39993   7.215  31.020   0.977  0.1930  0.2240 -0.0592
96941W        W39994  11.135  26.073   0.519  0.1226  0.0040 -0.1957
96942W        W39995  33.017   3.499  18.313  0.0669 -0.2789  0.1012
96943W        W39996  15.386  24.855  18.947  0.3393  0.0319 -0.0000
96944W        W39997  10.487   8.547   9.579  0.1046 -0.0802 -0.1923
96945W        W39998  16.065  27.897  10.742 -0.2473  0.0291 -0.1162
96946W        W39999  25.111  33.040   5.967 -0.0092  0.1490  0.0686
96947W        W40000  11.270  28.693   5.723  0.2588 -0.1309  0.0391
96948W        W40001  15.912  27.050   9.417 -0.3616  0.0036 -0.1633
96949W        W40002  28.655   6.011  27.587 -0.0010  0.3008  0.2321
96950W        W40003  22.302   1.233   6.309 -0.3225 -0.0038 -0.3075
96951W        W40004   9.947  29.941   5.973  0.0095 -0.0360 -0.1669
96952W        W40005  11.490  25.214  20.298  0.0178 -0.0442 -0.0492
96953W        W40006   8.613  17.922  26.942 -0.0111  0.1508 -0.3542
96954W        W40007  12.371   3.482  27.700 -0.1864  0.0061  0.3366
96955W        W40008  22.516   8.678   6.159 -0.1492  0.0737 -0.0475
96956W        W40009  10.339  12.027   1.906 -0.0560  0.2998  0.2244
96957W        W40010   8.336  34.305   7.133 -0.1510 -0.1035 -0.1533
96958W        W40011  10.603  20.893  24.347  0.0485 -0.0450 -0.3010
96959W        W40012  10.645  22.793   4.293  0.0432  0.1077  0.0620
96960W        W40013  31.234   4.814  21.327  0.1407 -0.0126  0.1726
96961W        W40014  24.638  33.941   4.761  0.0200  0.0196 -0.1740
96962W        W40015  11.051  33.275   8.754 -0.0530  0.0401 -0.1259
96963W        W40016  17.357  16.723   5.208 -0.2062 -0.0868  0.0247
96964W        W40017  25.146  11.156  27.389  0.0293 -0.0813 -0.0329
96965W        W40018  13.476   2.504   2.994  0.2429  0.0968 -0.3923
96966W        W40019  14.616   9.943  24.087  0.4403  0.0502  0.4239
96967W        W40020  21.362  27.643   1.438 -0.1444  0.0579 -0.1039
96968W        W40021  23.571  33.441   2.151 -0.2044 -0.0530 -0.1154
96969W        W40022  19.367   5.602   1.959 -0.0652  0.2329  0.0867
96970W        W40023  24.412  23.730  18.521  0.2665 -0.0364 -0.0149
96971W        W40024   3.613  27.998   7.547 -0.1188  0.0648  0.3475
96972W        W40025   1.168  33.171  24.879  0.0940 -0.2712  0.1001
96973W        W40026   6.846   0.726  26.717 -0.1947  0.2252 -0.0496
96974W        W40027  14.786  19.347   6.306  0.0813  0.1532 -0.1213
96975W        W40028  22.204  24.575   3.024  0.2397  0.0831 -0.1229
96976W        W40029  24.689   2.187   2.836  0.1548 -0.0518  0.0094
96977W        W40030  15.774  28.002   4.103 -0.7735  0.0400 -0.1449
96978W        W40031  19.133  15.860   1.569 -0.1180 -0.0000  0.4141
96979W        W40032  23.778  17.811   8.417  0.1249  0.0521 -0.2962
96980W        W40033  30.251  18.305  27.094 -0.1112 -0.1798 -0.3843
96981W        W40034   6.295   4.732   3.916 -0.2786 -0.0816  0.2047
96982W        W40035   8.828   3.965   0.196  0.2229 -0.1981 -0.0871
96983W        W40036  24.430  26.682   9.985 -0.1849  0.0077  0.0643
96984W        W40037   7.998  33.464   5.970 -0.2381 -0.2452 -0.2083
96985W        W40038   9.836  24.313  28.818 -0.2932 -0.0659  0.0881
96986W        W40039  11.099  33.927  23.652  0.1274 -0.1092  0.2029
96987W        W40040  32.500  27.986   4.683  0.1584 -0.1175 -0.1968
96988W        W40041   4.876  21.058   1.027  0.0143  0.0169 -0.0855
96989W        W40042  10.782  25.257  24.853  0.1049  0.0873  0.0760
96990W        W40043  24.617   5.570  27.571 -0.0636 -0.2549  0.1303
96991W        W40044  10.123  25.676   8.249 -0.1387 -0.0312  0.4522
96992W        W40045  17.080  21.477   4.834  0.2242 -0.0446  0.1056
96993W        W40046   2.590   1.588  24.335 -0.1543 -0.0313  0.1240
96994W        W40047  10.283  18.337   1.982  0.0022  0.0143 -0.1084
96995W        W40048  24.438  14.103   3.561 -0.0133 -0.2665  0.1430
96996W        W40049  33.718  31.042   3.857  0.0779 -0.0003  0.0120
96997W        W40050  19.575  30.902   2.663 -0.1911  0.0304 -0.0128
96998W        W40051  20.202  14.713  26.967  0.0813 -0.2857 -0.1870
96999W        W40052  11.350  27.384   9.585 -0.0602 -0.0252  0.0816
97000W        W40053   0.394  18.128  15.966  0.3950 -0.1899 -0.2112
97001W        W40054   2.179  33.705  26.607 -0.0550 -0.1374  0.1904
97002W        W40055   8.913   1.738  28.793 -0.0676 -0.1419  0.2389
97003W        W40056   0.880   9.396  21.802 -0.0567 -0.0947 -0.1820
97004W        W40057  13.161  18.429   0.588  0.0743  0.2675  0.0288
97005W        W40058   8.780  28.703   0.354  0.0250 -0.1085  0.0426
97006W        W40059   6.520  11.918   8.256  0.0458  0.1414 -0.0336
97007W        W40060  16.375   4.306   3.765  0.1387  0.1939 -0.0424
97008W        W40061  12.760   0.286   5.695 -0.0056  0.2744 -0.1038
97009W        W40062  17.067   2.369   9.840  0.0454  0.0003 -0.0684
97010W        W40063  27.217   4.139   0.377 -0.2721  0.4087  0.4827
97011W        W40064  18.336  25.663  10.550  0.2322  0.3943  0.1354
97012W        W40065  13.061   0.046   6.486  0.0392 -0.3297  0.3810
97013W        W40066  34.675  33.761  22.741  0.2544  0.0966 -0.0323
97014W        W40067  33.233   2.520  24.717 -0.0562  0.2244  0.1088
97015W        W40068  12.167  26.952   8.701  0.1335  0.2208  0.2404
97016W        W40069  13.697  28.922   9.501  0.0152  0.1006 -0.0367
97017W        W40070   7.073  17.946  27.907 -0.1635 -0.0197 -0.1305
97018W        W40071   9.951  31.806   6.712 -0.1975  0.1740  0.0325
97019W        W40072  20.449  29.905  20.315 -0.5170  0.3254 -0.2406
97020W        W40073   3.202   1.123  25.842 -0.1237 -0.1249  0.0751
97021W        W40074  20.769  23.762   0.164  0.3279  0.0730  0.2505
97022W        W40075   7.469  28.850  26.599 -0.2813  0.1304  0.0855
97023W        W40076  26.497   7.805  26.036 -0.2215 -0.0944 -0.2360
97024W        W40077  10.883   0.151   3.230 -0.3289 -0.1869 -0.3232
97025W        W40078  32.236  28.843   5.180  0.3788  0.3363 -0.3602
97026W        W40079  34.030   3.552   6.617  0.1587  0.1334 -0.1577
97027W        W40080   5.734  34.142   4.082  0.0051 -0.1640  0.1233
97028W        W40081  30.324  15.342   7.930 -0.4940 -0.0360 -0.0679
97029W        W40082   3.431  33.452   2.162 -0.0536  0.1696 -0.0629
97030W        W40083  18.917   4.318   3.157 -0.2171 -0.1212 -0.1709
97031W        W40084  32.417  22.301   2.269 -0.1265  0.1433  0.1549
97032W        W40085  12.584  19.208   4.797  0.0016  0.0237 -0.2039
97033W        W40086  33.504  12.813   8.127 -0.0898 -0.1236  0.0188
97034W        W40087  12.119  17.532   3.232 -0.1109 -0.1413  0.0707
97035W        W40088  19.100  23.000   4.195  0.1416  0.2275  0.0088
97036W        W40089  18.501  25.630  23.522  0.3558  0.1669 -0.1552
97037W        W40090   8.410   1.473   4.725  0.4142 -0.0054  0.2121
97038W        W40091  21.392  26.748   1.814  0.1888 -0.3587 -0.0730
97039W        W40092  11.476  24.426   2.665 -0.0765  0.2060  0.3153
97040W        W40093  15.970  29.778   5.877  0.2636 -0.0245 -0.0411
97041W        W40094   7.846   6.361   7.187  0.0614 -0.2070  0.1450
97042W        W40095  13.484  28.086   9.812  0.0574  0.1641  0.2450
97043W        W40096  10.973   4.425   0.602 -0.1379  0.0584  0.0911
97044W        W40097  31.239  23.980   4.274  0.1048  0.1992 -0.1824
97045W        W40098  18.286  23.044   9.008  0.0073  0.4569 -0.1266
97046W        W40099  23.774   9.677   5.499 -0.1888 -0.0392 -0.2267
97047W        W40100  21.724  32.653   8.650 -0.0293  0.1102  0.0574
97048W        W40101   6.432  34.526  25.849 -0.0591  0.1918  0.1280
97049W        W40102  15.823  22.754   5.857  0.0454 -0.1405  0.1502
97050W        W40103   5.472  32.797   2.441 -0.1352 -0.0825 -0.2000
97051W        W40104  16.213  27.674  23.670 -0.1566  0.0569 -0.2779
97052W        W40105  16.877  21.698   9.511 -0.3261 -0.1596 -0.0493
97053W        W40106  12.590  30.939   0.831 -0.0314 -0.1132 -0.1218
97054W        W40107  14.884  20.494  21.680 -0.0314 -0.2010  0.0979
97055W        W40108   0.841  27.857  14.552  0.0025 -0.4479 -0.1493
97056W        W40109  15.188   5.684  28.664 -0.1814 -0.0964  0.2215
97057W        W40110  13.000  12.371   5.207  0.0670 -0.5254 -0.2495
97058W        W40111  10.856   2.358   0.457 -0.0455 -0.3311  0.2717
97059W        W40112  19.693   0.679   6.246 -0.1756  0.0944 -0.0363
97060W        W40113  34.120  16.434   6.656 -0.3747 -0.0278  0.0573
97061W        W40114  12.817  22.675   8.901 -0.5847  0.0904  0.1780
97062W        W40115   6.093  23.350  10.147 -0.1240 -0.5008  0.2102
97063W        W40116  22.746  28.216   9.068 -0.2518 -0.1953 -0.3155
97064W        W40117   7.824  20.865  25.049 -0.1648 -0.1827 -0.0802
97065W        W40118  10.340  17.123   3.233 -0.0645 -0.0211 -0.4198
97066W        W40119  18.994  34.164   8.858  0.0870  0.1175 -0.1640
97067W        W40120  14.544  24.769   8.141 -0.1695  0.2842  0.0904
97068W        W40121  17.788  31.050   8.886  0.1007 -0.2384  0.0278
97069W        W40122  18.972   2.018   8.927  0.3954  0.0348 -0.0909
97070W        W40123   0.043   3.876  27.567 -0.2072  0.1209 -0.2067
97071W        W40124   8.218  27.408   1.680 -0.0906  0.1470 -0.0867
97072W        W40125  10.342  23.897   0.344 -0.0131  0.0018 -0.0132
97073W        W40126  18.400  15.892  15.298 -0.2289 -0.1214 -0.0961
97074W        W40127  22.276   0.256   1.503 -0.2801 -0.0306  0.1436
97075W        W40128  11.753  13.496   5.674 -0.0621 -0.0968  0.2091
97076W        W40129  12.314  24.845   7.417 -0.0188 -0.0849  0.2089
97077W        W40130  15.604  30.962  27.986  0.1268 -0.0502 -0.1407
97078W        W40131  15.909   3.442   6.164  0.5802 -0.3421  0.2133
97079W        W40132  19.709   3.766   4.815 -0.0953 -0.0492 -0.1583
97080W        W40133  30.236  24.791   1.517  0.0356 -0.0044 -0.1297
97081W        W40134  12.795  21.974   9.445  0.1560 -0.1035  0.2051
97082W        W40135   0.554  14.953  10.130  0.0421  0.2500  0.1060
97083W        W40136   8.474   2.255   6.927  0.3031 -0.0726 -0.0846
97084W        W40137  16.335  18.364   9.952 -0.1427 -0.4409  0.0139
97085W        W40138  17.516   0.851   9.132  0.4657 -0.1249  0.0669
97086W        W40139  27.480   6.584  23.950  0.3910  0.2279 -0.1556
97087W        W40140   3.834  26.084  27.469 -0.1727 -0.1405 -0.1777
97088W        W40141  13.759   4.245   7.057 -0.0427  0.1681 -0.2218
97089W        W40142  34.364  13.471   6.570 -0.0873  0.0527 -0.2691
97090W        W40143  15.920  31.684  22.658  0.0163 -0.0794  0.0310
97091W        W40144  15.912  11.071  26.716  0.0958 -0.3300  0.1849
97092W        W40145  24.199  29.972  14.912  0.0015 -0.0667  0.3271
97093W        W40146  10.785  34.307  10.672 -0.1539 -0.2385  0.3355
97094W        W40147  28.059  23.218  26.632 -0.1110  0.0005  0.1615
97095W        W40148  19.326   1.490  22.257 -0.1476 -0.2396 -0.0129
97096W        W40149  19.519  21.157  26.143  0.0724 -0.2608  0.2785
97097W        W40150  13.487  31.504   8.320 -0.3569 -0.3741 -0.3844
97098W        W40151  22.417  29.208  19.401  0.0133 -0.1304  0.0801
97099W        W40152  25.689  20.721   2.106  0.1064  0.4527 -0.0071
97100W        W40153   4.231  21.060   8.851 -0.0496 -0.0033 -0.1779
97101W        W40154  21.969  31.179  24.192 -0.1559 -0.1499 -0.2874
97102W        W40155  27.442   5.796   5.793  0.0899  0.2383 -0.0691
97103W        W40156  30.837  25.719  27.990  0.1823 -0.5021 -0.2268
97104W        W40157  11.258  21.487   5.094 -0.2837  0.0610 -0.2021
97105W        W40158   6.134  26.699  26.898 -0.1396 -0.1492 -0.0434
97106W        W40159  17.542  25.111   9.009  0.0456 -0.1118 -0.1216
97107W        W40160  17.272  28.819   7.215 -0.0768 -0.1140  0.2719
97108W        W40161   9.440  31.408  27.657  0.1379  0.0766  0.1281
97109W        W40162  19.911  17.235   4.910  0.1033  0.1495  0.0651
97110W        W40163   1.491  31.263   5.599 -0.0029 -0.1137 -0.1051
97111W        W40164  13.287  21.402  28.635  0.2090  0.1730 -0.1753
97112W        W40165   4.546  18.834   3.733  0.0579 -0.0759 -0.1733
97113W        W40166  13.337  21.811   6.724 -0.0093  0.4636  0.2139
97114W        W40167   1.329  34.654   2.050  0.3451  0.0729 -0.0686
97115W        W40168  18.455  21.117  22.028  0.0488 -0.3895 -0.0406
97116W        W40169   3.657  15.139   8.113 -0.0028  0.1263 -0.0715
97117W        W40170   8.865  23.872   0.315 -0.1989 -0.0265  0.0386
97118W        W40171   0.726  22.135   6.579 -0.0221  0.2381 -0.0208
97119W        W40172   7.150  27.991   2.642 -0.1605 -0.0912  0.1010
97120W        W40173  28.139  30.377  25.280 -0.1209 -0.1208  0.1590
97121W        W40174  10.311   1.074   8.600 -0.1402  0.0252 -0.2024
97122W        W40175  12.899  33.066  17.007 -0.0951  0.1195  0.3905
97123W        W40176  10.890  19.633   8.030  0.1546  0.3210 -0.1569
97124W        W40177  21.065  31.022   7.429 -0.2472 -0.3038  0.3211
97125W        W40178  33.446  25.020  28.845 -0.0333 -0.0192 -0.0104
97126W        W40179   0.602  32.290   6.200  0.1574 -0.0167  0.0574
97127W        W40180  29.274  23.327   1.264 -0.0717  0.1932  0.0628
97128W        W40181  27.112   4.636  18.869 -0.1610 -0.1717  0.0079
97129W        W40182   8.104  23.254   7.913 -0.0045  0.0504 -0.0013
97130W        W40183  17.884  14.073  28.495  0.1198 -0.0255 -0.0747
97131W        W40184   7.205  27.222  22.585  0.0958  0.2095  0.0005
97132W        W40185  18.943  17.508   0.700 -0.1603 -0.0419  0.1207
97133W        W40186   7.169   5.120   3.989 -0.2054  0.0193  0.1106
97134W        W40187  16.257  19.266   7.649  0.0268  0.0323 -0.1287
97135W        W40188  34.488  24.586  27.675 -0.0582 -0.1728  0.3166
97136W        W40189   5.056  25.027   2.603 -0.0915 -0.1537  0.0895
97137W        W40190  32.377  10.324   8.256  0.0484  0.3181 -0.1213
97138W        W40191  17.241   6.027   8.937 -0.0562  0.1676  0.0507
97139W        W40192  12.084  28.328   9.386 -0.2378  0.1316 -0.3288
97140W        W40193  26.539   8.271   4.543  0.1176 -0.1608 -0.2560
97141W        W40194   5.739  22.399   3.187  0.0129  0.1395 -0.0639
97142W        W40195  17.876  34.113  26.220  0.2690 -0.2150 -0.2687
97143W        W40196  13.160  13.625  10.901  0.3609  0.5147 -0.4425
97144W        W40197  13.213  33.654   9.454 -0.2820  0.1128 -0.0219
97145W        W40198  23.836  34.383   0.655  0.1358  0.1714  0.2858
97146W        W40199  17.567  28.539   2.523 -0.0556 -0.2381  0.0246
97147W        W40200  23.645   4.387  19.762  0.0294  0.3901 -0.3407
97148W        W40201  14.317  25.147  23.833  0.0908 -0.1180  0.0442
97149W        W40202  24.594   7.447  21.442 -0.1333 -0.0415  0.1240
97150W        W40203  31.627  31.929   2.787 -0.1669  0.3958  0.1053
97151W        W40204   3.921  17.622   4.909 -0.0309  0.2392  0.0753
97152W        W40205  18.101   4.762   4.318 -0.1758  0.0550  0.4139
97153W        W40206  10.717  27.896   7.502 -0.2016 -0.0446  0.3460
97154W        W40207  11.351   2.046  22.732  0.2293 -0.1921 -0.0834
97155W        W40208  19.948  20.921   1.591  0.0313 -0.3129  0.1171
97156W        W40209   6.738  30.121   7.463  0.1461  0.0177  0.0515
97157W        W40210  28.110   6.479   8.067  0.0826  0.1510  0.0046
97158W        W40211  17.534   6.067  28.836 -0.0807 -0.2868 -0.0946
97159W        W40212   5.320  10.620  16.334  0.0425  0.1901 -0.0348
97160W        W40213  13.044   7.253  27.733  0.0168 -0.2186 -0.1603
97161W        W40214   5.882  20.326  27.242  0.1448  0.0069  0.0739
97162W        W40215  26.908  16.182  23.577 -0.3655  0.3062 -0.2457
97163W        W40216  19.057  25.826   0.862  0.0085 -0.1522  0.0122
97164W        W40217  24.413   9.182  28.805  0.0699  0.2618  0.0305
97165W        W40218  20.127  21.243  28.007  0.0103 -0.1921 -0.4778
97166W        W40219   4.714   3.379   5.942 -0.2327 -0.2036 -0.0931
97167W        W40220  18.464   5.028   3.911 -0.1522  0.1427 -0.1292
97168W        W40221  16.161  24.239   5.263 -0.2494 -0.0606 -0.2297
97169W        W40222  21.025   0.907   9.986 -0.0382 -0.0547 -0.0353
97170W        W40223  21.434   7.345   7.976  0.0274 -0.0482  0.1505
97171W        W40224  11.110  27.810   5.974 -0.1111  0.0567 -0.2538
97172W        W40225   5.072   1.723   2.244 -0.0848  0.1165 -0.0497
97173W        W40226  24.331  20.566   3.455 -0.0384  0.2078 -0.1020
97174W        W40227   3.939  23.587   9.582 -0.1392  0.2626  0.1469
97175W        W40228  23.880  22.333   1.324 -0.0648 -0.0452  0.0548
97176W        W40229  13.150  28.817   6.396  0.0238  0.0489  0.1438
97177W        W40230  15.166   9.031   4.062 -0.1326 -0.2975  0.1735
97178W        W40231  16.861   8.904   3.353  0.3764 -0.1790  0.1563
97179W        W40232  18.405  11.256  10.019 -0.2790 -0.1099  0.0594
97180W        W40233  13.383  19.500   8.220  0.0731  0.2675  0.1952
97181W        W40234  15.827  31.670   8.363  0.0719  0.0289  0.0459
97182W        W40235  26.494  27.936  28.561 -0.1902  0.2635  0.0989
97183W        W40236  20.036   3.913   4.280 -0.2703  0.1946  0.0672
97184W        W40237  17.230  22.381   1.011 -0.2532  0.1533  0.5083
97185W        W40238  11.803   5.229   0.659 -0.0693  0.0043  0.1101
97186W        W40239   4.935  18.131   3.869 -0.4518 -0.2343 -0.2323
97187W        W40240  17.523  32.497   5.054 -0.2410 -0.0920  0.1062
97188W        W40241   8.883  21.266   1.853  0.1773  0.1106  0.1708
97189W        W40242  16.551   2.364   4.042 -0.0157  0.4009 -0.0135
97190W        W40243   2.817  23.050   8.654  0.0678 -0.2943 -0.0431
97191W        W40244  28.826   3.930   8.010 -0.0150 -0.1902 -0.0892
97192W        W40245   5.415  28.921   4.269  0.1120  0.1849 -0.2806
97193W        W40246   4.933  11.538  10.337 -0.0240 -0.3163 -0.2514
97194W        W40247  12.782  18.534   7.268 -0.1537  0.0610 -0.0919
97195W        W40248   1.168  27.081   3.268 -0.0273  0.0757  0.1305
97196W        W40249  17.322  31.197   9.582 -0.1969  0.0339  0.0551
97197W        W40250   8.602  12.464  27.596  0.0537 -0.0907 -0.0238
97198W        W40251  13.825  27.241   6.912  0.2417  0.1311 -0.2497
97199W        W40252   8.804  20.258   6.811 -0.0944 -0.0712  0.1556
97200W        W40253   6.367  27.019   9.083 -0.0224 -0.1863  0.2461
97201W        W40254   5.267  22.731  28.767  0.0345  0.1218  0.4035
97202W        W40255   5.030  29.611   0.230  0.0753  0.2389  0.3209
97203W        W40256   8.185  30.766   3.683 -0.0643  0.3203  0.1459
97204W        W40257  22.936  10.567   0.110  0.2128 -0.2662 -0.1021
97205W        W40258  16.903   8.871   7.902  0.4396 -0.1520 -0.2034
97206W        W40259   9.125  16.994   0.721  0.2648 -0.0997  0.2359
97207W        W40260  26.997  29.696   3.929  0.1962 -0.1690  0.2764
97208W        W40261  17.982  25.380   6.258  0.2631  0.1636 -0.1194
97209W        W40262  13.006   9.814   4.813  0.1752  0.0535 -0.0504
97210W        W40263  14.177  30.181   8.734 -0.0099  0.0902 -0.0627
97211W        W40264  22.876  24.699   8.228  0.0533 -0.0945  0.0700
97212W        W40265  21.286   0.691   7.096  0.0110  0.1532  0.0597
97213W        W40266  21.733  26.149   9.860  0.1838 -0.3907  0.1693
97214W        W40267   1.725  31.721  22.141  0.3446 -0.0648 -0.2729
97215W        W40268  20.498  24.821   4.923 -0.1339 -0.0134  0.1141
97216W        W40269  25.548  21.766   6.134  0.0330 -0.0087 -0.0112
97217W        W40270  21.347  31.714   8.902  0.0759 -0.0114 -0.0459
97218W        W40271  15.178  30.604   9.904  0.2279  0.2508  0.0253
97219W        W40272  18.066   0.739  21.480 -0.0037 -0.6004  0.1449
97220W        W40273  18.463  10.185   7.612  0.1801  0.0514 -0.3367
97221W        W40274  11.185  13.428  16.938 -0.2548 -0.2076 -0.0238
97222W        W40275  18.672  11.784  19.246 -0.3087  0.1186  0.3063
97223W        W40276  21.961  32.198  22.302 -0.0842  0.2095  0.0245
97224W        W40277  21.319  28.428  24.399 -0.1502 -0.4101 -0.0416
97225W        W40278   9.902   8.974   4.575 -0.1751 -0.2767  0.2134
97226W        W40279   0.084  24.968   6.347 -0.0335 -0.0578  0.0063
97227W        W40280  13.292   7.310   2.139  0.1467  0.0158 -0.0180
97228W        W40281  17.216  16.364   9.149 -0.0694  0.0848 -0.2985
97229W        W40282   2.792   0.239   8.946 -0.0594  0.1023 -0.0528
97230W        W40283  30.875   0.386   3.530 -0.0229  0.2859 -0.0584
97231W        W40284   4.977  16.786   0.049  0.2180 -0.0355 -0.3142
97232W        W40285  19.591  20.321   7.465 -0.0365 -0.1000 -0.1006
97233W        W40286  10.117   3.012   0.577 -0.0704 -0.0465 -0.1999
97234W        W40287  22.802  32.359   2.931 -0.0191  0.0542  0.1495
97235W        W40288  26.589  28.472  28.756  0.0796 -0.1752  0.2339
97236W        W40289  26.243  27.329  25.522  0.2040  0.2876  0.0420
97237W        W40290  19.545  30.808   0.247 -0.0348  0.1295 -0.1632
97238W        W40291   0.823  31.225  24.094  0.0244  0.1379 -0.2164
97239W        W40292   3.304   1.630  21.971  0.1528  0.0491  0.1794
97240W        W40293  11.529  33.665   6.871 -0.2030 -0.0046  0.1358
97241W        W40294  33.559  24.323   0.261 -0.2377  0.2742  0.0664
97242W        W40295  27.342  32.157  17.803  0.1195 -0.0524 -0.0539
97243W        W40296  11.912   0.469  27.882 -0.0402  0.4525 -0.0688
97244W        W40297   0.905  23.372  28.016 -0.0288  0.1241 -0.0354
97245W        W40298  13.806   4.205  27.738 -0.0169 -0.1482 -0.0058
97246W        W40299   3.746  17.779   5.439 -0.1195  0.0522  0.2186
97247W        W40300  16.656  34.489  21.489 -0.4420  0.0268 -0.1860
97248W        W40301  13.618  12.338   3.577 -0.1375 -0.3336  0.1691
97249W        W40302   1.584   6.555   0.063  0.3014 -0.1585 -0.1266
97250W        W40303  30.005  17.347   1.013 -0.2322 -0.0368 -0.2511
97251W        W40304   1.680  30.512  25.171  0.3309 -0.5195  0.2329
97252W        W40305  17.060   4.732   7.536 -0.0316  0.1268 -0.0536
97253W        W40306  13.546  23.955  20.620  0.0569  0.1520 -0.2016
97254W        W40307  23.198  12.596   2.979  0.5620  0.1464 -0.2232
97255W        W40308  12.430   4.282   8.623 -0.0081  0.1197 -0.0993
97256W        W40309  17.682  11.233   4.718 -0.1094  0.1150  0.2055
97257W        W40310  19.464   5.813   2.456  0.2149  0.2817  0.1511
97258W        W40311  19.787  26.803   4.892  0.0494  0.3404 -0.0135
97259W        W40312  30.587  14.031  25.776  0.1075 -0.0642 -0.1932
97260W        W40313  12.077   8.599  24.019 -0.2250 -0.3079  0.0433
97261W        W40314  21.032  11.144   4.692  0.0245 -0.0971  0.2283
97262W        W40315  15.859   3.845   1.168 -0.0588  0.1087  0.1744
97263W        W40316  20.374   9.302   3.817 -0.0355 -0.0772 -0.0886
97264W        W40317  30.149   1.301   7.260  0.1074  0.0788 -0.1353
97265W        W40318  15.127   3.279   7.450 -0.1711  0.2409 -0.0243
97266W        W40319   8.203  30.287   3.376 -0.1783  0.1432 -0.1681
97267W        W40320  19.372   2.675  16.292 -0.1823  0.0958  0.1587
97268W        W40321  26.844  13.485  21.460  0.0953  0.3278 -0.0832
97269W        W40322   8.712  31.008  13.987  0.1294  0.1708 -0.1395
97270W        W40323  15.044  24.528   8.794 -0.3415 -0.1918 -0.1024
97271W        W40324  10.902  27.687  13.253  0.2282  0.2862  0.3231
97272W        W40325   9.330  29.515   6.629  0.1308 -0.0508 -0.3956
97273W        W40326  14.854  28.406  27.792 -0.1998  0.4417 -0.1784
97274W        W40327   6.995   0.978   1.034  0.2845  0.1291 -0.1705
97275W        W40328  21.703  24.242  26.080  0.0330 -0.0333 -0.2502
97276W        W40329  10.429  30.835  14.294 -0.0484 -0.2076  0.3938
97277W        W40330  13.265   0.510   0.776 -0.1161 -0.2955  0.3256
97278W        W40331  19.405   0.284  18.339  0.2050 -0.4041  0.1574
97279W        W40332   6.205  32.175  27.967  0.0376 -0.5496  0.1381
97280W        W40333  18.465   2.564   9.457  0.0435  0.1366  0.1164
97281W        W40334  10.995   5.567   6.560 -0.0276 -0.1339  0.1249
97282W        W40335  12.666   8.200   8.554  0.0147 -0.1160  0.2639
97283W        W40336  11.939  29.883   0.642  0.0310  0.0525  0.0689
97284W        W40337  19.505   1.962   8.497  0.0940  0.2512  0.1099
97285W        W40338  11.712  17.433  29.092  0.1469 -0.2224  0.0837
97286W        W40339  11.625  32.661   8.236  0.1384  0.1079  0.0281
97287W        W40340  20.188   0.702  24.912 -0.0342 -0.2313 -0.0278
97288W        W40341  28.283   0.095   1.686 -0.0006  0.2658  0.1183
97289W        W40342   4.234  34.529   3.907  0.2116  0.1291 -0.0124
97290W        W40343   1.246  31.951   4.381  0.0378  0.2830  0.2550
97291W        W40344  15.281   4.142   7.970 -0.0332 -0.2706 -0.2458
97292W        W40345  12.397   9.244  23.357  0.0892 -0.1285 -0.0007
97293W        W40346  11.003   2.316   1.464 -0.0861 -0.2042  0.0622
97294W        W40347  26.861   6.013   1.304 -0.2651  0.1693  0.1451
97295W        W40348   8.555  34.350  23.762 -0.0373 -0.2165  0.1068
97296W        W40349   2.592  30.041  22.195 -0.0118  0.0390 -0.0429
97297W        W40350   1.566   9.624   9.879 -0.3536  0.1159 -0.2004
97298W        W40351   9.994   3.506  27.717  0.0500 -0.1590  0.0516
97299W        W40352  24.294   8.241   3.160  0.0067  0.1447 -0.2062
97300W        W40353  21.246  33.355  23.947  0.0208  0.0265  0.0390
97301W        W40354  10.607  10.166   5.560 -0.1928 -0.1957  0.1522
97302W        W40355  30.374  32.420   1.971 -0.1566 -0.1879  0.2001
97303W        W40356   8.105   1.957   3.977  0.1354 -0.1717  0.1337
97304W        W40357  15.844   1.458  29.196  0.1728 -0.0136  0.0260
97305W        W40358   5.136  30.168  25.803  0.1718 -0.0570 -0.0157
97306W        W40359  16.741   8.936   3.998  0.2418  0.0957  0.0783
97307W        W40360  21.317  32.429   1.502 -0.1564 -0.1996 -0.0696
97308W        W40361  19.488  25.294  24.381 -0.5073 -0.0940  0.0327
97309W        W40362  14.434  15.457   0.645 -0.0273 -0.0767  0.4770
97310W        W40363  22.903  33.156  22.429 -0.0872 -0.0190 -0.0860
97311W        W40364  11.845  28.739   8.597  0.3425  0.2361 -0.2588
97312W        W40365   9.443  16.526  27.299  0.2646  0.1484  0.3000
97313W        W40366  11.392  31.118   3.645  0.0578 -0.0111  0.1709
97314W        W40367  10.789  25.977   4.619 -0.1411  0.0703  0.3070
97315W        W40368  18.363  10.539  19.028  0.0767 -0.0825 -0.1627
97316W        W40369  10.099  34.498  19.651  0.4139  0.1790  0.4365
97317W        W40370   8.938  22.405  21.221 -0.1919 -0.0866  0.3652
97318W        W40371   4.028  33.039  19.897 -0.0755  0.0097  0.1206
97319W        W40372  27.364  15.905   0.341 -0.3839 -0.0862  0.1118
97320W        W40373  30.917  26.415  25.458 -0.2548 -0.2781  0.3624
97321W        W40374   4.196  16.869   7.276  0.0369  0.1625  0.1358
97322W        W40375  11.162  27.366  24.944  0.1589 -0.1811 -0.3011
97323W        W40376  21.097   5.348   6.697 -0.1498 -0.1935  0.3209
97324W        W40377  28.247  31.582  27.992 -0.3758 -0.0545  0.2140
97325W        W40378  12.264  16.643  22.328  0.0654  0.2269  0.0705
97326W        W40379   9.875  17.437  25.651  0.4402 -0.3588  0.3104
97327W        W40380  33.460  34.216  15.801  0.1436 -0.1309 -0.0685
97328W        W40381   7.317  34.205   5.978  0.0562  0.3683  0.1197
97329W        W40382  17.140  32.310  22.141 -0.0816  0.1262 -0.1334
97330W        W40383  13.723  31.751  15.530 -0.3136  0.2562 -0.1603
97331W        W40384  16.622  27.148   0.236 -0.1439  0.2812  0.4060
97332W        W40385  13.830  27.169   5.241  0.4400  0.0764  0.0549
97333W        W40386  10.337  15.898   0.971 -0.0784  0.2413 -0.1460
97334W        W40387  10.905   7.253  17.681  0.0155 -0.1225 -0.1099
97335W        W40388  10.648  29.027   6.518 -0.4290 -0.1552  0.1719
97336W        W40389  16.788   6.813  14.447  0.2657  0.1560 -0.2815
97337W        W40390   2.643  27.734  18.968 -0.0073 -0.1303 -0.3508
97338W        W40391  15.667  18.813   0.096  0.1065 -0.1061 -0.1125
97339W        W40392  17.570   0.509   6.122 -0.1731 -0.0877  0.0955
97340W        W40393  26.758  33.682   9.838 -0.2175 -0.0393  0.1588
97341W        W40394  23.618  31.025   1.739  0.0573 -0.0182  0.0735
97342W        W40395  12.050   0.840  20.099  0.0548  0.1942 -0.0596
97343W        W40396  11.184  21.778  27.434  0.1255  0.0307  0.1066
97344W        W40397  17.660  21.945   2.482 -0.0877  0.1571  0.0742
97345W        W40398  12.417  11.793   8.156 -0.1556 -0.0697  0.0906
97346W        W40399  20.862  31.250  19.060  0.2003 -0.2032 -0.0367
97347W        W40400   5.016  34.517   6.310  0.1751  0.1122  0.1581
97348W        W40401   5.950   3.275   5.888 -0.0803 -0.1177 -0.0998
97349W        W40402  15.401   2.018   2.413 -0.0217 -0.3368  0.0402
97350W        W40403   8.829  12.281   0.977  0.1737  0.0299  0.0579
97351W        W40404  25.942  14.249   2.419  0.1043  0.1408  0.0273
97352W        W40405  26.948   5.173   0.704 -0.0534 -0.1006 -0.1965
97353W        W40406  11.857  11.425  24.521 -0.3915 -0.0094  0.1353
97354W        W40407   1.720   4.789   8.777 -0.0559  0.3297  0.0608
97355W        W40408   4.314  29.310  23.465 -0.0472  0.0273 -0.4356
97356W        W40409   7.708   2.996   2.463 -0.1464 -0.0484 -0.2889
97357W        W40410   9.325   1.937  27.543 -0.0738  0.2752 -0.0114
97358W        W40411  15.815  25.640  10.154 -0.2774 -0.3610  0.0886
97359W        W40412  27.970  14.364   5.593  0.0292  0.1221  0.2851
97360W        W40413   4.242  22.566  27.925  0.1910  0.1391  0.1787
97361W        W40414  19.556   0.927  19.722  0.2082 -0.0889  0.3122
97362W        W40415   9.010  28.668   6.605  0.1416  0.0706  0.1176
97363W        W40416  11.382  33.552  28.993  0.0601  0.2109 -0.4580
97364W        W40417   2.653   6.465   6.256 -0.3776 -0.1081 -0.2221
97365W        W40418  31.448   1.278  23.249  0.1888 -0.1079  0.0208
97366W        W40419  28.494  20.239  23.519 -0.1739 -0.5120  0.1801
97367W        W40420   7.425  14.055  21.514 -0.3233  0.1162 -0.2326
97368W        W40421  10.168  25.358  22.116 -0.1559 -0.0973 -0.1219
97369W        W40422  24.093   3.855  24.892 -0.1639 -0.1515  0.0287
97370W        W40423  22.496  31.734   4.535 -0.0402  0.1725  0.4551
97371W        W40424  26.340  21.841   0.027 -0.2854 -0.0042 -0.1440
97372W        W40425   7.002  30.519   4.299 -0.0101  0.2395  0.2742
97373W        W40426   1.846  16.457  17.108  0.3119  0.0477  0.1055
97374W        W40427  31.376  32.843   1.123  0.0893 -0.1303 -0.1875
97375W        W40428  20.990  30.344  15.026  0.0610  0.0959 -0.2543
97376W        W40429   5.470  21.147  24.399  0.0506  0.0410 -0.0370
97377W        W40430  32.281   0.617   1.719  0.1112  0.0637 -0.0545
97378W        W40431   4.543   3.027  28.785 -0.0889 -0.2916 -0.0170
97379W        W40432  10.401  23.584   7.524  0.0058  0.0524  0.1838
97380W        W40433  10.275   6.122  26.110 -0.1142 -0.1620  0.1445
97381W        W40434   9.999  25.596   5.593  0.3307  0.1807  0.0596
97382W        W40435  31.188  22.638  28.526 -0.4964  0.1401  0.0580
97383W        W40436  21.135   5.063   2.997 -0.0557  0.1058 -0.1106
97384W        W40437  19.288  19.274  13.633  0.1584  0.2178 -0.2500
97385W        W40438   5.900  31.050   0.282  0.3106  0.0596 -0.0480
97386W        W40439   9.751  27.513  21.019 -0.1890  0.0658  0.2943
97387W        W40440  11.338  15.562   8.752  0.0735 -0.2425  0.1743
97388W        W40441  10.607  13.474  23.305  0.2043 -0.0419  0.0609
97389W        W40442   6.157  23.174   5.684  0.0439 -0.2104 -0.1903
97390W        W40443  27.411  16.900  26.036  0.0032  0.0315 -0.1937
97391W        W40444  26.437  13.402  21.756  0.0085 -0.0571  0.0463
97392W        W40445  12.087  23.894  28.010 -0.1665 -0.1474 -0.3369
97393W        W40446  30.577   3.000   3.176 -0.4553  0.0741 -0.3969
97394W        W40447  13.518   3.431   2.546 -0.3313 -0.0656  0.0866
97395W        W40448   6.171  22.192  22.773 -0.1341 -0.1438 -0.1633
97396W        W40449  21.302   6.797   1.353 -0.2026 -0.2932  0.0116
97397W        W40450  16.537   2.943   6.571  0.0325 -0.0674 -0.1110
97398W        W40451   4.170  25.086   7.322  0.0715 -0.0936 -0.0693
97399W        W40452  20.622   7.602  24.950 -0.0393  0.1753 -0.2390
97400W        W40453  22.945   4.866  15.728 -0.3087  0.2510  0.2441
97401W        W40454  18.349  25.897  25.407 -0.4779  0.0214  0.2742
97402W        W40455  27.652   0.304   0.563 -0.0809  0.0574 -0.0333
97403W        W40456  11.369  31.304   8.947 -0.2630  0.0788  0.3036
97404W        W40457  34.260  21.679  16.813 -0.2366 -0.1608 -0.0435
97405W        W40458  25.844  29.039  28.513 -0.0377  0.0494  0.0238
97406W        W40459   8.581  21.955  25.159  0.0124  0.0930  0.3487
97407W        W40460  22.737  21.395  28.424 -0.1432  0.1001 -0.0662
97408W        W40461  20.648   0.968   4.878  0.2257 -0.0765  0.0367
97409W        W40462  14.702   9.168  19.992 -0.0327 -0.3510  0.2138
97410W        W40463  17.336  30.223  10.406 -0.0394  0.0794 -0.1263
97411W        W40464  10.381   1.889   2.271  0.1364  0.3208  0.0721
97412W        W40465  11.635  32.895  27.262  0.2064 -0.0905  0.4214
97413W        W40466  20.235  10.800   0.620 -0.0976 -0.1586  0.0037
97414W        W40467  16.038  18.582  22.483  0.1353 -0.2330 -0.1034
97415W        W40468  20.531  30.988   5.696  0.3375  0.1813 -0.3335
97416W        W40469  13.894   5.400   5.143 -0.1011  0.3729 -0.0261
97417W        W40470  31.614   9.143   0.609  0.2017  0.1013 -0.1219
97418W        W40471   6.639  29.286  20.923  0.0761  0.3707  0.0290
97419W        W40472  17.793   2.760   6.224 -0.0145 -0.0575  0.0459
97420W        W40473  31.990  32.652   1.750  0.4667 -0.1719  0.3496
97421W        W40474  24.133   7.344   7.938 -0.1283 -0.0036  0.0011
97422W        W40475  10.471  10.517  10.799  0.0050 -0.0998 -0.1101
97423W        W40476   9.130  14.020   1.743 -0.4197 -0.3076 -0.0194
97424W        W40477  30.513  17.854   3.075 -0.0898  0.3411 -0.1022
97425W        W40478   9.479   6.196   5.721  0.0228  0.0089 -0.0315
97426W        W40479  21.818   8.938  28.465  0.0429 -0.1181 -0.1815
97427W        W40480   4.874  14.929  18.809  0.1631 -0.0382  0.0292
97428W        W40481  11.132  21.778  28.023  0.2398 -0.1470  0.0326
97429W        W40482   1.401  15.183  28.355 -0.0046  0.4056  0.2030
97430W        W40483  23.488   7.298   4.945  0.0268  0.1370  0.1279
97431W        W40484   1.309  26.187   9.103  0.0994 -0.2165 -0.0269
97432W        W40485  11.685  22.230   8.012  0.1449 -0.0465 -0.2203
97433W        W40486  19.648   1.232   7.302  0.0933 -0.0052  0.0668
97434W        W40487   7.412  32.942   0.960  0.0035  0.2205  0.1954
97435W        W40488   6.045  27.285   2.188 -0.2393  0.4973  0.2918
97436W        W40489  21.935  19.959   9.305 -0.0030  0.0680  0.1227
97437W        W40490   6.943   9.858  22.973  0.2029 -0.1369  0.4449
97438W        W40491  15.264   2.605  24.398  0.0789  0.1641 -0.1997
97439W        W40492  15.155  26.910   1.208  0.1514 -0.0606 -0.0032
97440W        W40493  12.490   4.110   9.479 -0.0594  0.2268 -0.0540
97441W        W40494  30.966   7.414  22.908 -0.1193 -0.2126 -0.0582
97442W        W40495   7.521  17.093  13.973  0.0587  0.1424 -0.0226
97443W        W40496  10.432  12.881   9.035 -0.1550  0.1617 -0.2230
97444W        W40497  29.658  13.625  25.456 -0.0261 -0.0267 -0.1408
97445W        W40498  21.961  32.637   6.969 -0.0116  0.2684  0.2047
97446W        W40499  25.414  27.192   6.705  0.1894  0.0980  0.0830
97447W        W40500  15.649  27.352  28.854 -0.2196 -0.1203  0.3533
97448W        W40501  22.401  32.726   4.783 -0.2912 -0.1799  0.2653
97449W        W40502   0.615  19.585   4.841 -0.3419  0.2675  0.0253
97450W        W40503  24.143   5.370   1.441 -0.1401  0.0101  0.1346
97451W        W40504  21.552  21.509  18.006  0.0303 -0.1141  0.1017
97452W        W40505  10.722  31.688  27.016  0.2506  0.0225 -0.1364
97453W        W40506  12.225  19.277   7.193 -0.1563  0.0026  0.1922
97454W        W40507  16.333  24.836  15.391 -0.0797  0.2445 -0.1602
97455W        W40508   5.794  26.734  22.601 -0.1726  0.4322 -0.2511
97456W        W40509   7.288  30.916   4.750  0.2419 -0.1461  0.2607
97457W        W40510   2.161  15.013   3.641  0.1249  0.3765 -0.4048
97458W        W40511  23.022  30.526  23.032 -0.3735 -0.0248 -0.3099
97459W        W40512  18.754  17.471   1.506  0.2997  0.0451 -0.1119
97460W        W40513  26.559  25.188  22.001 -0.2152  0.0318 -0.0013
97461W        W40514  15.182  27.840   0.082 -0.2575  0.1403  0.1367
97462W        W40515   3.557  15.255  15.029  0.1303  0.1473  0.1053
97463W        W40516   7.916  31.639   6.793  0.2449  0.1013 -0.2517
97464W        W40517  15.560   1.780  22.742  0.2598 -0.2594 -0.6952
97465W        W40518  24.112   5.962  10.257  0.1340  0.0377  0.1795
97466W        W40519  32.391  20.798   7.088  0.1040 -0.0220  0.2078
97467W        W40520   3.844   2.795  22.194 -0.0225  0.3009 -0.1171
97468W        W40521   1.206   8.134   2.598 -0.1520  0.5440  0.0451
97469W        W40522  10.492  22.687   6.822  0.0844  0.1078  0.0202
97470W        W40523  12.872  26.738   7.696  0.3167 -0.1013  0.5279
97471W        W40524  22.444   4.277   8.518 -0.2736 -0.3084  0.1593
97472W        W40525   7.289  24.696   8.318 -0.0546 -0.0210  0.1326
97473W        W40526   4.347  33.829  17.925 -0.1178  0.1587 -0.0386
97474W        W40527  18.634  12.817  18.847  0.0508  0.0747  0.0142
97475W        W40528   4.365  31.480  20.266 -0.3004 -0.0032 -0.2449
97476W        W40529  21.950   0.523  27.552  0.2898 -0.1118 -0.2154
97477W        W40530  10.281   6.525  26.467  0.1252 -0.2741  0.2077
97478W        W40531  13.617  18.323  27.406 -0.1616  0.2037 -0.3132
97479W        W40532  30.480  32.110   5.996 -0.2256 -0.0595  0.2605
97480W        W40533  12.622  11.647   5.629 -0.1790  0.0363 -0.0140
97481W        W40534  30.827  16.707  22.572 -0.2821  0.1023 -0.1648
97482W        W40535  27.593   7.179   8.066 -0.3445 -0.2260  0.1486
97483W        W40536  23.144  26.341   4.144 -0.0715  0.0934 -0.1164
97484W        W40537  26.973  25.590  17.006 -0.1432 -0.0538  0.1893
97485W        W40538  22.643  30.990   9.320  0.5006 -0.3829 -0.1247
97486W        W40539  19.353   8.607  29.143  0.0022 -0.1163  0.0736
97487W        W40540   9.251  26.700   8.176 -0.0820  0.3483  0.1014
97488W        W40541  10.760  18.958   3.248 -0.0619  0.0883  0.0040
97489W        W40542  13.027   7.281   7.623  0.0557 -0.1086 -0.2449
97490W        W40543  12.455  22.798  27.471  0.0877 -0.1182  0.0399
97491W        W40544  26.824  21.753  25.653 -0.0028  0.0497 -0.1420
97492W        W40545  25.606   5.337   4.976 -0.1237 -0.1017 -0.2480
97493W        W40546  31.422  33.978  21.794 -0.1135 -0.1869 -0.2155
97494W        W40547  17.014  25.650   9.346 -0.1915  0.0436 -0.2752
97495W        W40548   3.576   1.530  27.725 -0.1228  0.1070  0.1572
97496W        W40549   4.118  15.589  25.173 -0.0295 -0.1894 -0.2363
97497W        W40550  19.455  24.257  24.503  0.1468 -0.0952 -0.1355
97498W        W40551   7.498   3.532   6.404  0.3172 -0.1560  0.2891
97499W        W40552  29.183   9.435  27.396 -0.0042 -0.2925 -0.1242
97500W        W40553   6.575  12.328   2.102 -0.0574 -0.4177  0.0211
97501W        W40554  24.277  31.913   7.710 -0.0351 -0.3247 -0.1311
97502W        W40555  17.860  12.802   9.458  0.1997 -0.1713  0.0890
97503W        W40556  26.869   6.750   2.902 -0.1364  0.1561 -0.2798
97504W        W40557  22.351   2.982  21.365  0.3356  0.1886 -0.0148
97505W        W40558  30.950   3.933   0.934 -0.0461 -0.1910 -0.2451
97506W        W40559   0.334  29.708   9.431 -0.0464 -0.1787  0.0742
97507W        W40560  14.022  21.002   8.334 -0.2478 -0.0198 -0.1745
97508W        W40561  23.460   4.023  27.442  0.3004  0.3694 -0.3111
97509W        W40562   3.922  20.984  20.823 -0.2251 -0.3903  0.0323
97510W        W40563  24.980   9.936   8.995 -0.1877 -0.0138 -0.1457
97511W        W40564   8.383  23.924  24.868 -0.0651 -0.0761 -0.3152
97512W        W40565  17.884  12.395  18.365  0.1927  0.0398 -0.1547
97513W        W40566  12.921  26.487   4.441  0.0575  0.1193 -0.1225
97514W        W40567  16.920  28.894   2.324 -0.0980  0.0078 -0.3492
97515W        W40568  14.610   3.812  29.106 -0.1373 -0.1636  0.2916
97516W        W40569  13.488  30.130   2.253  0.1706 -0.0449  0.0650
97517W        W40570  12.232  11.515  17.656 -0.1962  0.1493  0.1704
97518W        W40571  11.242   2.339   6.482  0.3754 -0.2306 -0.0332
97519W        W40572  31.240   0.265  16.136 -0.0765 -0.0734 -0.0609
97520W        W40573  18.056  33.663  20.106 -0.1259 -0.3652  0.1995
97521W        W40574  17.949  33.660   7.750 -0.1013 -0.0382  0.0192
97522W        W40575  17.924  33.183  27.366  0.2324  0.2272  0.0621
97523W        W40576   3.881  13.889  28.369 -0.2782 -0.0424  0.3105
97524W        W40577  11.898  33.422   7.098 -0.4781 -0.1696 -0.2365
97525W        W40578  18.311  29.802   6.393 -0.0993  0.0830  0.1220
97526W        W40579  12.269  27.434   8.641  0.0310  0.1458  0.2060
97527W        W40580  12.445  29.350   6.956  0.1024 -0.0265 -0.1790
97528W        W40581  25.785  33.230   6.990 -0.1464  0.3021 -0.1284
97529W        W40582  23.256  29.434  24.861  0.0730  0.3697 -0.1531
97530W        W40583   9.542  27.140  26.975  0.0316 -0.1480  0.1632
97531W        W40584  15.190  29.539  21.863  0.1606 -0.1790 -0.2158
97532W        W40585  14.626  15.532   5.053  0.0963 -0.0841 -0.0476
97533W        W40586   8.981   4.684   6.583  0.0427 -0.0970  0.0681
97534W        W40587  13.345   4.659   4.316  0.2111 -0.2388  0.3064
97535W        W40588  18.196   4.536   5.146 -0.2176  0.3566  0.1336
97536W        W40589   3.882  18.979   3.380 -0.0315 -0.0234  0.1686
97537W        W40590   2.847  11.918   3.200 -0.2596 -0.0373 -0.2448
97538W        W40591  13.925  14.910   4.170 -0.0155 -0.0318 -0.0336
97539W        W40592  25.207  24.792  26.244  0.1383  0.2789 -0.0933
97540W        W40593  24.476  12.287   6.400 -0.1216 -0.0425  0.1983
97541W        W40594  12.216   2.135  27.426  0.4871 -0.1139  0.1875
97542W        W40595  30.856  27.074  26.213 -0.0633 -0.1828 -0.4238
97543W        W40596  15.679  11.038  16.660  0.1464  0.2794 -0.0996
97544W        W40597   2.086  33.766   6.670  0.0733 -0.3574  0.0100
97545W        W40598  11.888  10.534  10.578  0.1934  0.2646 -0.1148
97546W        W40599  20.438   4.963  24.325  0.0486  0.1764 -0.0937
97547W        W40600  11.959  19.828   3.745 -0.0994 -0.1300  0.3392
97548W        W40601   6.563  26.356   3.933  0.1550  0.0396 -0.1089
97549W        W40602  25.413  25.750  23.288 -0.1671 -0.0279  0.1893
97550W        W40603  26.263  27.269  26.834  0.0734 -0.1429 -0.0841
97551W        W40604  21.839  27.907   0.939  0.0327  0.2562 -0.0076
97552W        W40605  14.555  31.233   9.304  0.1705  0.1807  0.2025
97553W        W40606  31.339  16.929   2.225 -0.1346  0.1153  0.1695
97554W        W40607  16.149  28.718   5.416  0.1827  0.1137 -0.1441
97555W        W40608  11.094  25.167   3.777  0.0924  0.0365 -0.1519
97556W        W40609  25.323  27.647   1.976  0.3544 -0.0094 -0.1004
97557W        W40610  29.980   0.012   6.506 -0.0061 -0.0284 -0.0150
97558W        W40611   6.918  25.040   2.178 -0.1257 -0.2386 -0.0028
97559W        W40612  14.160   9.038  27.694 -0.2793  0.1193 -0.0611
97560W        W40613  11.190  32.166   2.038 -0.1063 -0.1284 -0.0410
97561W        W40614  12.963  10.547   4.822 -0.1081 -0.0019  0.0920
97562W        W40615  14.822  34.502   6.315 -0.2114 -0.2886 -0.2836
97563W        W40616  16.068  16.056   5.979  0.1715 -0.0087  0.0454
97564W        W40617  18.720  31.321   1.328  0.0680 -0.0231 -0.4233
97565W        W40618  30.030   3.417   1.316  0.2063 -0.0458 -0.0287
97566W        W40619  12.425  32.893   6.524 -0.2453  0.1901  0.1161
97567W        W40620  10.548  27.648  25.624 -0.1730 -0.1128 -0.0126
97568W        W40621  19.913   2.381   7.177 -0.0904 -0.2481  0.1405
97569W        W40622  29.350  31.555  26.358 -0.0469  0.0085 -0.4134
97570W        W40623  22.124  33.109   9.112 -0.0477 -0.0333 -0.2161
97571W        W40624  13.460   1.896  10.244  0.1008  0.0108 -0.2554
97572W        W40625   0.679  25.710   8.736  0.0143 -0.0916  0.1488
97573W        W40626  20.818  11.125   9.433 -0.6429  0.1858  0.2165
97574W        W40627  14.285  27.171   7.156  0.2550 -0.3555  0.2132
97575W        W40628  25.408   4.533   5.505  0.0209 -0.0525  0.0422
97576W        W40629  15.741   5.753   8.989  0.0370 -0.0359  0.1086
97577W        W40630  33.642  25.599  27.344 -0.0021  0.2301 -0.2561
97578W        W40631  11.463   5.782  28.517  0.5599 -0.0293 -0.1273
97579W        W40632  15.062   4.075  25.516  0.1572 -0.0325  0.3400
97580W        W40633  15.527  17.006  26.870  0.1477 -0.0310 -0.0917
97581W        W40634  25.442   1.761   3.140 -0.3185  0.1373  0.0782
97582W        W40635  10.092  18.500   9.003 -0.1803  0.0542 -0.0123
97583W        W40636  11.333  10.494   3.869  0.2674 -0.1904  0.2458
97584W        W40637   7.756  16.328  26.934  0.0241 -0.2860 -0.3035
97585W        W40638  12.466  34.449   5.040 -0.1021  0.2462  0.0669
97586W        W40639  11.471  21.950   1.517  0.5642  0.0524  0.0155
97587W        W40640  21.939  12.359   7.788  0.0193 -0.1085 -0.4126
97588W        W40641  18.203   3.135  24.897 -0.3055  0.0825 -0.3193
97589W        W40642  16.907  28.502  28.232  0.1379 -0.1178  0.0131
97590W        W40643  17.032  31.491  29.190  0.1501  0.1935 -0.0979
97591W        W40644  20.974  26.558  10.164 -0.0845 -0.0961  0.1103
97592W        W40645  22.992  26.951   8.709 -0.0161 -0.2410 -0.0449
97593W        W40646  12.908  15.948  26.070  0.1547  0.1873  0.1359
97594W        W40647  23.557  16.503   6.916  0.2229  0.0522 -0.0092
97595W        W40648  11.376  10.777  24.233  0.2180  0.0752  0.0603
97596W        W40649  18.934   3.117   0.017 -0.0231 -0.1343 -0.0453
97597W        W40650  11.266   0.940  28.118  0.1695  0.1285 -0.0444
97598W        W40651  16.887   1.937   9.351 -0.0942 -0.1474  0.1598
97599W        W40652  24.215  11.703   1.652  0.1614  0.2606 -0.1538
97600W        W40653  16.086  27.048   1.977  0.0766 -0.0781  0.1837
97601W        W40654  18.436  25.079   3.671  0.2138  0.0914 -0.0864
97602W        W40655  12.813  18.357   8.151  0.0143  0.4782  0.0306
97603W        W40656  19.922  19.272   0.217  0.0281  0.0655 -0.0438
97604W        W40657   6.828  10.385  21.536 -0.3310 -0.3154  0.1044
97605W        W40658  17.822  18.557   1.184 -0.1179 -0.0156 -0.0080
97606W        W40659  10.605  19.541   6.156  0.0196 -0.4126 -0.0137
97607W        W40660  18.600   7.740  28.430 -0.2965 -0.1043 -0.2467
97608W        W40661   7.103  32.698  19.464 -0.1817 -0.3272  0.1012
97609W        W40662  16.402   0.177  21.252  0.1081 -0.0244  0.1188
97610W        W40663  20.057   7.149   1.471 -0.1746 -0.1309 -0.0562
97611W        W40664  23.251  28.730  25.518  0.1179 -0.0075 -0.1238
97612W        W40665   1.690  13.673   9.130  0.0540  0.1048 -0.2645
97613W        W40666  16.530   4.525  27.135 -0.1305  0.2432 -0.1222
97614W        W40667  11.621   0.359   0.179  0.0127  0.2294 -0.3313
97615W        W40668  19.172  12.660   8.590 -0.1083 -0.3135  0.3248
97616W        W40669  13.531   9.746   0.605  0.3895  0.2149  0.3504
97617W        W40670  13.722  14.159  28.025 -0.1438  0.2120 -0.0130
97618W        W40671  10.611   8.847   0.612  0.0012 -0.0536  0.2178
97619W        W40672  33.215  16.034   4.989  0.1507 -0.2374 -0.0556
97620W        W40673  19.554   0.576  26.883  0.0099  0.1650 -0.3761
97621W        W40674   4.501   4.084  19.608 -0.0220  0.1484 -0.0702
97622W        W40675  16.792   2.126   0.634 -0.0373  0.0762  0.0709
97623W        W40676  16.751  23.362   9.115  0.0468  0.1417 -0.1637
97624W        W40677  12.943  14.026   2.649 -0.0573 -0.0071 -0.0472
97625W        W40678   4.038   1.260   5.915  0.2025  0.1120  0.2271
97626W        W40679   6.647   8.552  25.880  0.3052 -0.0178  0.1034
97627W        W40680  17.879  34.339   8.284  0.0328  0.0786 -0.1586
97628W        W40681  27.002   8.908  27.747 -0.1502 -0.1196 -0.2421
97629W        W40682  10.311  20.838  27.611  0.1001 -0.1851  0.1642
97630W        W40683   3.367  32.485   8.019 -0.0833  0.0242  0.2237
97631W        W40684   8.103   3.984   8.221  0.4226  0.1477 -0.1036
97632W        W40685  25.910  12.403   8.692  0.1204 -0.0182  0.0609
97633W        W40686  20.502  34.014  26.955  0.0594  0.3796 -0.0502
97634W        W40687  20.392  21.694   6.614 -0.2026 -0.3007  0.0498
97635W        W40688   8.565   8.842   0.718 -0.4423  0.0234 -0.1385
97636W        W40689  20.425   7.475   7.545 -0.3170  0.0908  0.3611
97637W        W40690  15.368  33.760   2.053  0.0320 -0.0401 -0.2429
97638W        W40691  23.729   4.840   4.956 -0.1733  0.2402 -0.2917
97639W        W40692  21.521   3.666   9.507  0.2851  0.0727 -0.0466
97640W        W40693   0.994  13.611  29.133 -0.0231 -0.2427 -0.0054
97641W        W40694  14.095  34.231   4.509  0.2818  0.0929  0.1928
97642W        W40695  12.203  33.894   0.800  0.2570 -0.1831 -0.0469
97643W        W40696  19.904  15.353   8.525 -0.0105 -0.2316  0.0898
97644W        W40697  10.702  32.011  10.191 -0.0733  0.0538  0.1230
97645W        W40698  34.323  22.696   9.371  0.1425  0.1011 -0.0560
97646W        W40699  21.297  28.660   7.702  0.3918  0.0380 -0.2094
97647W        W40700  14.788   7.242   4.554 -0.2495 -0.3039 -0.1487
97648W        W40701   0.814  20.501   0.004  0.0486 -0.0763  0.1214
97649W        W40702   6.525   0.786  10.806 -0.0157 -0.0629 -0.0684
97650W        W40703   7.499  16.673   3.064  0.1719  0.0745 -0.1071
97651W        W40704   8.284   6.541   8.312  0.3389  0.0453  0.0281
97652W        W40705  19.741  30.373   4.028  0.1402  0.0119 -0.1385
97653W        W40706  15.726   7.041   4.647 -0.1053 -0.0884 -0.0934
97654W        W40707  15.339  20.919  22.725 -0.1618 -0.0676  0.1250
97655W        W40708   1.209   1.616   6.455  0.0133 -0.1341  0.3070
97656W        W40709  34.140  27.910   3.117  0.0730  0.2091 -0.1183
97657W        W40710   9.164   3.143   4.368 -0.1876 -0.3428 -0.0189
97658W        W40711  34.427   6.848  15.118  0.1275  0.0632  0.2576
97659W        W40712   5.243  13.804   1.944 -0.1443 -0.1567 -0.0043
97660W        W40713   4.548   2.390   3.140 -0.0088 -0.1041 -0.0025
97661W        W40714  11.245   0.691  15.018 -0.1896 -0.2656  0.1695
97662W        W40715  10.373  12.664  10.219 -0.1044  0.5108  0.1146
97663W        W40716  15.140  18.402   8.874 -0.0660 -0.2866  0.3056
97664W        W40717  34.229   2.147   4.730 -0.0330  0.0922  0.1761
97665W        W40718  10.743  21.574   6.673  0.3759 -0.1901  0.0855
97666W        W40719  31.412  10.182  26.812 -0.1115  0.0489 -0.0338
97667W        W40720  15.433  25.143  10.864  0.0990 -0.0583  0.0343
97668W        W40721  25.198  34.387  21.303  0.0309 -0.0071  0.1937
97669W        W40722  23.985  33.944   4.970 -0.0864 -0.1550  0.1345
97670W        W40723  29.254  29.634   7.315  0.3101 -0.0666 -0.2915
97671W        W40724   8.374  34.613   5.123 -0.1623 -0.1954  0.0735
97672W        W40725  19.418  21.232  17.482 -0.0455  0.1833 -0.0503
97673W        W40726   5.850  33.364  28.181 -0.3289  0.0997 -0.0861
97674W        W40727  26.234  33.469   6.085 -0.6907  0.1499  0.0300
97675W        W40728  17.752   0.939   9.577 -0.1773  0.0367  0.0792
97676W        W40729  21.609   0.052   2.678  0.1616  0.1125  0.1925
97677W        W40730   9.231  30.876   6.939  0.0414 -0.1180 -0.0614
97678W        W40731  22.013  27.453   1.690  0.0526  0.2512 -0.0564
97679W        W40732  32.034  12.284   0.514 -0.0417 -0.0128  0.1205
97680W        W40733   0.502   0.724  26.552  0.0917  0.2858 -0.3234
97681W        W40734  20.553  16.996   7.763 -0.2603 -0.1821  0.0564
97682W        W40735  15.604  32.464  24.809  0.1144 -0.2525 -0.2450
97683W        W40736  15.248  30.359  26.249  0.0630 -0.1811 -0.0591
97684W        W40737   9.509   0.963   9.746 -0.1252  0.0461  0.1196
97685W        W40738  19.752  19.907   7.050 -0.0635 -0.1209 -0.2890
97686W        W40739   8.178  16.137  28.626 -0.1299  0.1543  0.0788
97687W        W40740   5.790  22.785   8.944 -0.1358  0.2097  0.0256
97688W        W40741  19.333   0.506   5.884  0.3624  0.2829  0.1046
97689W        W40742  19.272  12.575  26.340  0.0929  0.0870  0.0274
97690W        W40743  34.453  23.551   9.881  0.1334  0.2264  0.0933
97691W        W40744   1.053   5.402   9.083  0.0285  0.0818  0.0825
97692W        W40745   1.218  24.787  25.211 -0.0364 -0.0474  0.0354
97693W        W40746   8.713   2.868   8.246  0.0493 -0.2409 -0.2302
97694W        W40747   5.416   8.108   8.481 -0.1772 -0.0788 -0.1762
97695W        W40748  14.921   2.798   4.739  0.0822 -0.0238  0.0498
97696W        W40749   5.737   4.222   9.906  0.1242  0.0879 -0.2885
97697W        W40750  31.265  28.184  28.699  0.1970 -0.2040  0.0721
97698W        W40751  10.958  31.941   6.792  0.0578  0.0760  0.0527
97699W        W40752  31.368  31.634   2.514 -0.4406  0.1624 -0.1042
97700W        W40753   8.232  13.269  18.809  0.0363 -0.2301  0.1795
97701W        W40754  21.841  10.038   9.271 -0.1239  0.3115  0.1167
97702W        W40755   6.746  26.792   3.237  0.0711  0.1792 -0.1277
97703W        W40756  27.590  32.688   5.771 -0.1982  0.0324  0.3921
97704W        W40757  18.045   9.601   2.791  0.1556  0.0037  0.0267
97705W        W40758   4.302  21.492  25.531  0.1618 -0.2479  0.1893
97706W        W40759  18.434  21.991  23.074  0.0930 -0.0863  0.2982
97707W        W40760  21.121  24.706   6.292  0.3093  0.0299 -0.0995
97708W        W40761  10.366   4.026  15.030  0.0125 -0.2301 -0.4543
97709W        W40762  15.119  28.353   0.097  0.1924 -0.0926  0.0480
97710W        W40763   8.903   0.371   5.640  0.1837  0.0085  0.1023
97711W        W40764   8.628  17.297   9.793 -0.0431 -0.0619  0.0445
97712W        W40765   2.473  28.930  26.073 -0.1595  0.2325  0.0519
97713W        W40766  17.703  26.677   8.836  0.0744 -0.0073 -0.4467
97714W        W40767  25.264  11.883   0.289 -0.0849 -0.2122  0.0089
97715W        W40768   9.761  29.008   7.652 -0.0401 -0.0233  0.0415
97716W        W40769  24.573  15.839   3.420  0.1907  0.3171 -0.0460
97717W        W40770  14.005  15.637  20.907 -0.4361  0.4092 -0.2200
97718W        W40771   2.759  31.522   2.091 -0.1123  0.1605  0.4053
97719W        W40772  18.101  29.055   4.790 -0.3194  0.0150  0.1778
97720W        W40773  21.662  12.533  25.228 -0.1755 -0.3212  0.0316
97721W        W40774  11.580  16.915  27.782  0.4263 -0.0307  0.0781
97722W        W40775  29.815  16.940   5.870  0.2973 -0.1325 -0.3003
97723W        W40776   7.547  27.550   6.613 -0.3934 -0.2066 -0.0001
97724W        W40777  13.762  28.764   0.706  0.0398 -0.2011  0.3582
97725W        W40778  24.138  20.427  25.902 -0.2744  0.1733  0.2246
97726W        W40779   2.106  14.948  26.229 -0.0207  0.1013  0.0503
97727W        W40780  10.031  17.298  14.919  0.0942 -0.0954 -0.0126
97728W        W40781  14.321  14.858   4.530 -0.0825 -0.2611 -0.3154
97729W        W40782  28.073  21.960   7.034 -0.1635  0.0465 -0.1634
97730W        W40783  18.807  10.228   8.524  0.1105  0.0455 -0.0299
97731W        W40784  24.068   8.338  29.082 -0.2333  0.1413  0.1151
97732W        W40785  14.315   2.539   9.144  0.2209 -0.0644  0.0998
97733W        W40786   5.131  24.482   7.845 -0.1833 -0.3257  0.2733
97734W        W40787  19.174  31.333   5.031 -0.1216  0.2111  0.0182
97735W        W40788  13.768   9.009  11.123 -0.2314 -0.0785 -0.0757
97736W        W40789  24.841  24.504   5.535 -0.1342 -0.3139 -0.0657
97737W        W40790  22.239  29.192   4.160  0.2483 -0.0643 -0.1330
97738W        W40791  15.237  28.660   5.438  0.2732  0.0504  0.0641
97739W        W40792  16.214  31.103  20.688  0.0218  0.3120  0.1184
97740W        W40793  19.793  25.136  26.203  0.2474  0.3061  0.0671
97741W        W40794  12.035  31.733  24.260 -0.3238  0.0832 -0.0640
97742W        W40795   6.280  34.616   6.963  0.1530 -0.0023 -0.0101
97743W        W40796  12.492  11.716  10.514  0.3526  0.2187  0.1704
97744W        W40797  31.333  32.087   2.306 -0.3057  0.2664 -0.1450
97745W        W40798  17.560  12.281   8.187 -0.1453 -0.2492  0.0946
97746W        W40799  18.306  20.531  25.749 -0.2575  0.2322  0.0399
97747W        W40800  27.867   3.460   8.324 -0.2229 -0.1061  0.1060
97748W        W40801  15.725  31.235   0.057 -0.0651 -0.0592  0.0289
97749W        W40802  28.417   9.030   6.455  0.1192 -0.4669 -0.1508
97750W        W40803   2.507  30.985   6.511 -0.1487  0.2517  0.2263
97751W        W40804  11.330   7.884  10.395  0.2678 -0.0105 -0.4738
97752W        W40805  17.774  20.736  27.808 -0.1309  0.3291  0.2090
97753W        W40806   7.139  19.559   2.492  0.4687  0.3021 -0.0898
97754W        W40807  23.318  15.877  25.513 -0.0191  0.1747  0.0048
97755W        W40808   6.056  18.063   8.142  0.1068 -0.0862 -0.4405
97756W        W40809  16.401  16.125  24.008 -0.2498 -0.1938  0.1784
97757W        W40810  10.423  29.888   6.001 -0.1460  0.1084 -0.0361
97758W        W40811   4.445  30.539   1.948 -0.2584  0.1465  0.1547
97759W        W40812   4.700   0.859   7.065 -0.0666  0.1784  0.1420
97760W        W40813   5.889  23.206   4.337 -0.0377 -0.2223 -0.2213
97761W        W40814  14.183   7.421   3.915  0.2778  0.1282 -0.0279
97762W        W40815  21.845  25.399   4.058  0.2259 -0.0204  0.1052
97763W        W40816   9.997  14.415   7.277 -0.2218  0.0965 -0.1738
97764W        W40817   6.045  14.940   3.764  0.0497 -0.0819  0.2021
97765W        W40818  22.377   1.229   7.541 -0.0244 -0.0591  0.3700
97766W        W40819  24.698  34.579  18.237 -0.1295 -0.2098  0.0578
97767W        W40820  20.406  30.518   3.971  0.1286 -0.1561 -0.0775
97768W        W40821  25.038  12.213   2.881 -0.2167 -0.0531  0.1846
97769W        W40822  10.236   3.348   2.926  0.0459  0.3160 -0.1694
97770W        W40823  12.802   5.816   2.232  0.1370 -0.1640 -0.2730
97771W        W40824   4.989  24.755  25.276  0.0437 -0.0739  0.2629
97772W        W40825  23.724  26.308   9.906 -0.1230 -0.1086 -0.1005
97773W        W40826  10.888  10.570  19.153  0.0057  0.0653  0.0282
97774W        W40827  14.203  25.173  22.387 -0.4045  0.3684  0.1408
97775W        W40828   4.864  22.181   0.146  0.1237 -0.1544  0.4244
97776W        W40829   9.090  27.762   7.382 -0.5501 -0.2577  0.0124
97777W        W40830  15.540  14.716  28.476 -0.0204 -0.0570 -0.4477
97778W        W40831  15.044   6.952  10.646  0.3320  0.0281  0.0460
97779W        W40832  14.102   1.975   9.230 -0.1334  0.0483 -0.0537
97780W        W40833  27.858   1.677  27.441  0.2962  0.1563 -0.0689
97781W        W40834  12.661   5.576  28.008  0.3415 -0.1307  0.0723
97782W        W40835  28.862  34.530  24.593  0.2875  0.0197  0.2754
97783W        W40836  11.778   8.796  25.003 -0.3308 -0.0216  0.1264
97784W        W40837   2.860  28.620   7.983  0.1613 -0.1957 -0.3297
97785W        W40838  14.434  33.105  18.564 -0.3200  0.2641  0.1017
97786W        W40839  16.451  29.461   4.700  0.1951 -0.0359 -0.2563
97787W        W40840  16.915  11.814   7.316  0.1006  0.2801 -0.1095
97788W        W40841  33.719  19.246   7.870 -0.0442 -0.2759 -0.2094
97789W        W40842  14.586  22.923   1.492 -0.2770 -0.0054  0.1053
97790W        W40843  34.603   7.982   7.228 -0.0184 -0.0143 -0.0566
97791W        W40844  20.981  32.468  10.739 -0.0219 -0.1278 -0.1439
97792W        W40845  15.249   7.289   6.902  0.2433  0.0857  0.2167
97793W        W40846  11.358  14.696   2.350 -0.0191  0.0925 -0.0075
97794W        W40847  21.410  26.439   9.692  0.1186  0.1138  0.0188
97795W        W40848   4.267  28.421   6.496 -0.2720  0.1698 -0.1870
97796W        W40849  24.811  27.795  26.725  0.3804  0.4139  0.1006
97797W        W40850  13.324  31.904   8.039  0.3708 -0.0356 -0.1228
97798W        W40851  25.645  10.387   5.418 -0.1276 -0.2797 -0.1390
97799W        W40852  30.114  12.780   3.748 -0.3147  0.2090  0.1265
97800W        W40853  13.037  20.897   0.439  0.2122  0.0056 -0.2676
97801W        W40854  12.934  10.059   5.958 -0.1428  0.4073  0.2469
97802W        W40855  18.014  25.808   3.409  0.1460 -0.0388  0.0316
97803W        W40856  10.561  33.240   4.888  0.2096  0.3652  0.0568
97804W        W40857  33.902  30.716  15.363 -0.1151 -0.0195 -0.3748
97805W        W40858  18.467  31.215   3.211  0.0135  0.0443 -0.2116
97806W        W40859  15.458  13.728  25.476 -0.4663  0.3986 -0.1915
97807W        W40860  14.243  25.257   0.037 -0.1013 -0.0520  0.2093
97808W        W40861  16.800  18.820  24.404  0.2762 -0.1830  0.2460
97809W        W40862  19.908  20.667   7.693 -0.0506  0.0514 -0.0804
97810W        W40863  18.984   1.749   0.792  0.1212  0.4207 -0.1039
97811W        W40864  19.701   4.718   5.576  0.0056  0.1638  0.1826
97812W        W40865  25.006   4.827   0.954  0.0333 -0.2082 -0.3979
97813W        W40866  16.178   7.312  24.486 -0.3708 -0.1411 -0.3103
97814W        W40867  10.740  21.284  26.146 -0.0147  0.1314 -0.2182
97815W        W40868  18.203  28.916   2.530  0.2563  0.1454  0.0980
97816W        W40869  15.101  28.096  22.230  0.1506 -0.0593  0.0908
97817W        W40870  14.815  27.730   4.345  0.1750 -0.1117 -0.1274
97818W        W40871  16.737  27.581   8.435  0.1680 -0.5176  0.0372
97819W        W40872  15.618   4.805   5.499  0.0760 -0.1218  0.0479
97820W        W40873   3.258   1.311  28.219 -0.1418 -0.1597 -0.3899
97821W        W40874   8.351   0.217   9.900 -0.0981 -0.0857 -0.3452
97822W        W40875  11.699  27.126   3.690  0.1178  0.1415 -0.1733
97823W        W40876  32.488  28.404  29.138 -0.0654  0.3182 -0.1710
97824W        W40877   1.921  30.802   7.373 -0.0638  0.1595 -0.0899
97825W        W40878  25.884  30.676   5.430  0.0596 -0.2184  0.0024
97826W        W40879  25.609  27.091   0.839 -0.2507  0.0165  0.0883
97827W        W40880  10.984  24.281   1.738 -0.1070  0.4185 -0.3101
97828W        W40881  15.161  22.109   9.801 -0.1724 -0.1279 -0.2537
97829W        W40882  11.948  10.940   2.148 -0.0381 -0.0599  0.0617
97830W        W40883  14.108  31.019   5.562 -0.1596 -0.0203  0.2861
97831W        W40884  29.277  18.513   4.034  0.0055 -0.3634  0.0241
97832W        W40885  11.446  34.199   7.173 -0.0593  0.2441 -0.0127
97833W        W40886  16.827   0.675  28.960  0.1596 -0.1995  0.0027
97834W        W40887  18.296  13.797   5.684  0.2436 -0.0716  0.0110
97835W        W40888   6.792  26.876  24.459 -0.2236  0.1412 -0.0750
97836W        W40889  19.183  33.090   1.352  0.1682  0.2372 -0.1026
97837W        W40890  15.194   5.266  27.840  0.0833 -0.1785  0.1465
97838W        W40891  18.380  25.502   8.194 -0.0800  0.1931  0.1713
97839W        W40892  13.964   9.795   5.151 -0.0260  0.0864  0.0353
97840W        W40893  25.771   6.493   6.533 -0.1907  0.0251 -0.1523
97841W        W40894   2.620  30.382   9.493  0.2545  0.1156 -0.3452
97842W        W40895  20.954  25.556  27.921 -0.2395 -0.4262 -0.0925
97843W        W40896  16.037   1.296  28.315 -0.1140 -0.2819 -0.0602
97844W        W40897  16.207   6.462  23.053  0.0470 -0.1094 -0.1063
97845W        W40898  24.755  17.621   6.740 -0.1448 -0.0490  0.0304
97846W        W40899  12.723   7.131  28.171 -0.0934  0.2082  0.0743
97847W        W40900  27.804   3.900  28.531 -0.1033  0.0261 -0.1102
97848W        W40901  19.168  25.189  28.343 -0.3590 -0.0604  0.1956
97849W        W40902  20.696  15.134  14.531 -0.2332  0.1069  0.0010
97850W        W40903  32.010  28.106   3.408  0.3037  0.1707 -0.1445
97851W        W40904  20.281   8.242   1.337 -0.1517 -0.0327 -0.1290
97852W        W40905  14.529  12.316   7.978 -0.1967 -0.0165  0.0051
97853W        W40906  21.835  32.310  22.850  0.1304 -0.1862  0.0396
97854W        W40907  13.844  15.256   2.513 -0.0862 -0.1487 -0.1315
97855W        W40908   3.575   0.833   2.993  0.0736  0.0328  0.2409
97856W        W40909   7.576  27.962   2.300  0.0027 -0.0207 -0.0460
97857W        W40910   8.273   3.381  24.324 -0.0268  0.2163 -0.1329
97858W        W40911  24.073   0.794   0.134  0.0593 -0.1071 -0.0642
97859W        W40912  23.637   6.870  26.386  0.0257 -0.1471  0.2583
97860W        W40913  21.583   5.675  25.012 -0.0691 -0.0110 -0.0711
97861W        W40914   7.637   4.946  21.415 -0.2630 -0.5223 -0.0822
97862W        W40915  29.481  11.580  15.512 -0.0830 -0.1367 -0.0185
97863W        W40916   6.133   4.246   3.493 -0.3139 -0.0455 -0.2916
97864W        W40917   5.637   4.795   5.034  0.2193 -0.0565  0.2809
97865W        W40918  18.780   9.599  20.326 -0.3272 -0.0115  0.1426
97866W        W40919  15.438  12.543  18.025 -0.0669 -0.0983  0.0156
97867W        W40920  17.088   2.934  15.475  0.1078 -0.1295  0.0455
97868W        W40921  25.031  12.019  15.157  0.0455  0.0915  0.6138
97869W        W40922  10.673  19.839   0.334 -0.2727 -0.0883 -0.1103
97870W        W40923  34.650   7.062   5.969 -0.0791  0.1779 -0.1702
97871W        W40924  13.515  33.832  10.153  0.1804  0.0360 -0.0051
97872W        W40925  20.916  22.692  20.870  0.2751 -0.0706  0.0366
97873W        W40926  16.145  24.053  24.770 -0.1880 -0.0519  0.1296
97874W        W40927  22.870  33.117  28.021  0.4181  0.0260  0.0343
97875W        W40928  26.875   5.273   2.219 -0.3323  0.0824  0.1355
97876W        W40929  16.838   3.957   2.438  0.1449 -0.1600  0.1992
97877W        W40930   9.318  25.939   3.095  0.0295  0.3453 -0.1737
97878W        W40931  34.244  11.673   4.525 -0.0560 -0.2990 -0.0450
97879W        W40932   8.676  31.067  29.068  0.2568  0.2648 -0.1960
97880W        W40933   7.434  10.899   8.255 -0.2427 -0.1631 -0.1336
97881W        W40934  14.552  10.111  23.513 -0.1241 -0.0402 -0.1282
97882W        W40935  32.788   5.417   7.184 -0.0366  0.1644 -0.0688
97883W        W40936  16.184   7.654   6.876  0.0956 -0.0312 -0.1438
97884W        W40937  13.240   1.656   6.043 -0.1543  0.1136  0.0828
97885W        W40938   5.590  34.082  26.116  0.1799 -0.0274  0.1134
97886W        W40939  12.141  29.829  16.003  0.0104  0.0836 -0.1172
97887W        W40940  26.940  21.621  27.702  0.1011  0.0082 -0.0620
97888W        W40941   7.326   8.856  20.796 -0.0509  0.2295  0.0419
97889W        W40942  28.775  16.224   6.884  0.1661 -0.0832 -0.2852
97890W        W40943  12.467  27.099  26.842  0.2004  0.2813 -0.2632
97891W        W40944  24.020  33.947   8.530  0.0405 -0.2129  0.0651
97892W        W40945  14.212   4.978  28.504  0.1985  0.1367 -0.3652
97893W        W40946  31.301  21.213   0.400 -0.3458  0.0511  0.2265
97894W        W40947  28.528  30.571   9.233 -0.1962 -0.0614 -0.2950
97895W        W40948  24.438  21.872   9.521 -0.0889  0.0303 -0.0836
97896W        W40949   8.682  30.822   5.868  0.0508 -0.0849  0.0903
97897W        W40950  26.829   0.498   2.361 -0.0003 -0.0339  0.1430
97898W        W40951  24.587  19.455  27.040  0.1083  0.4384  0.2397
97899W        W40952  15.303   4.504  24.013 -0.0828 -0.0033  0.2593
97900W        W40953  33.463  30.978  25.824 -0.0635  0.2409 -0.1249
97901W        W40954  11.006   8.837  26.120  0.2244 -0.1034 -0.0484
97902W        W40955   4.752  32.699  23.978  0.0392  0.1477  0.0981
97903W        W40956   3.928   9.986   5.456 -0.2600  0.0123 -0.0787
97904W        W40957   0.576  30.282  28.389  0.2253 -0.3066  0.0788
97905W        W40958  14.744  28.512   7.908  0.0568 -0.1695  0.0642
97906W        W40959  10.381  16.060  23.500 -0.0815  0.2836 -0.0371
97907W        W40960  18.172  32.500   8.544 -0.0802  0.1409 -0.0269
97908W        W40961  26.091   7.256  19.066  0.3607  0.0898 -0.0156
97909W        W40962  16.774  33.611   5.890 -0.0434  0.0974  0.2065
97910W        W40963  25.191   6.056   6.939 -0.1278 -0.1488 -0.0687
97911W        W40964  19.216   9.418   3.284  0.0899  0.2081 -0.3291
97912W        W40965  15.739  31.599  18.396 -0.0533  0.0370 -0.0348
97913W        W40966   1.286   2.102  25.395 -0.0210 -0.0896  0.0123
97914W        W40967  17.236  10.703   9.207  0.1231 -0.1183 -0.2421
97915W        W40968  14.350   0.682   9.106 -0.1561 -0.1298  0.1731
97916W        W40969  20.177  17.072  21.421  0.0670  0.1322 -0.1145
97917W        W40970   7.976  19.356   2.421 -0.1334  0.2329 -0.2948
97918W        W40971  27.968   8.442   0.972  0.1536  0.1147  0.2074
97919W        W40972  16.163   7.868   5.044 -0.0641  0.0036  0.2527
97920W        W40973  27.207  26.452  16.107 -0.5810  0.0767  0.0356
97921W        W40974  22.471  22.080  26.200  0.0729  0.2902  0.2747
97922W        W40975  31.531  11.231   2.579 -0.0006 -0.1127 -0.1802
97923W        W40976  18.180  27.713   4.714 -0.1486  0.2285  0.2190
97924W        W40977  24.619  33.489  19.670 -0.2517 -0.0512  0.0467
97925W        W40978  19.306  17.075  25.987  0.0214 -0.0211 -0.1399
97926W        W40979   7.169   3.003   3.670  0.1772 -0.1354 -0.1595
97927W        W40980  12.974   1.810   3.193 -0.3237 -0.0632  0.1584
97928W        W40981  12.378   5.520  28.856  0.1599 -0.0925  0.1193
97929W        W40982   5.930  30.055  28.562 -0.1769 -0.2162 -0.4720
97930W        W40983   2.629   3.265   6.167 -0.1372  0.0392 -0.0784
97931W        W40984  18.803  10.272   4.808 -0.0438 -0.2553 -0.3429
97932W        W40985  12.082   5.302   4.344  0.2812 -0.2159  0.1183
97933W        W40986   3.758  33.731  23.730  0.3570 -0.2829  0.2092
97934W        W40987   6.237   2.484  14.678 -0.1467  0.2175  0.0740
97935W        W40988  24.205   4.113  19.685 -0.2665  0.1525  0.0480
97936W        W40989   0.580   0.301   9.062 -0.1251  0.2968  0.0000
97937W        W40990   4.503  20.441  27.245  0.3191 -0.1455 -0.0088
97938W        W40991   6.964  24.513  27.679  0.1597 -0.3171  0.1126
97939W        W40992  17.775   1.897   3.562  0.0644  0.0740 -0.0047
97940W        W40993  12.162  28.150   2.473  0.0116  0.0666 -0.1797
97941W        W40994  23.628  21.785  28.825 -0.1523 -0.1254  0.0296
97942W        W40995  11.982   3.732   0.188 -0.0674  0.2599 -0.2631
97943W        W40996  16.525  25.310  18.248 -0.1779 -0.1777 -0.0882
97944W        W40997  16.613  15.527   4.737  0.1462 -0.0601 -0.1459
97945W        W40998  21.451   3.651  28.514 -0.3022  0.0349  0.1751
97946W        W40999   6.653  11.587  20.787  0.1772 -0.1119  0.0864
97947W        W41000  16.563   8.216   9.359  0.1872 -0.1049  0.1810
97948W        W41001   8.707  16.834  28.745  0.1008  0.2255  0.0005
97949W        W41002  12.665  15.811  25.625  0.1476  0.2261  0.1481
97950W        W41003  20.512  33.425   3.651  0.1469  0.2294 -0.0992
97951W        W41004  31.650  23.107   3.037  0.2751 -0.0360 -0.1787
97952W        W41005  18.173   1.026  10.410 -0.0398 -0.2550 -0.4973
97953W        W41006   1.416  32.943   0.875 -0.2446 -0.1973  0.0372
97954W        W41007  22.902  19.389  21.640 -0.0493  0.0450  0.1937
97955W        W41008  21.296   4.267  26.629  0.1379  0.0932 -0.0442
97956W        W41009   9.849   5.159   0.882 -0.2566 -0.0052 -0.0572
97957W        W41010  25.521   4.313   8.928  0.2050 -0.0553 -0.5444
97958W        W41011   8.659   9.222  15.253  0.1973 -0.0021 -0.0767
97959W        W41012  33.944  10.471   9.914  0.0835  0.0823 -0.2502
97960W        W41013  13.877  33.706  19.063  0.0649 -0.0993  0.0107
97961W        W41014   2.557   4.173   3.186 -0.2200 -0.0763  0.0402
97962W        W41015   3.642  30.215  25.281  0.2547  0.3754 -0.3515
97963W        W41016  12.201   8.357   8.707 -0.3438  0.2024 -0.2749
97964W        W41017   2.464   9.668  13.951  0.1477 -0.1333 -0.0824
97965W        W41018   1.567  10.724  26.520 -0.3816 -0.0550 -0.3582
97966W        W41019  17.101  33.860   5.167  0.4875  0.0499  0.2293
97967W        W41020  25.073  29.014   6.879  0.1724  0.1604  0.0848
97968W        W41021  12.296  27.811   0.796 -0.1423  0.1283 -0.1064
97969W        W41022  32.246  32.486   8.472  0.3454  0.2282 -0.1804
97970W        W41023  14.616   2.411  27.223 -0.0836 -0.1248  0.1223
97971W        W41024  33.629   4.241  25.650  0.1398 -0.0019  0.2842
97972W        W41025   0.993  12.516  20.680 -0.1187  0.3550  0.0946
97973W        W41026  21.168   1.940  26.131 -0.0925 -0.0458  0.1895
97974W        W41027  30.493   0.078   5.828 -0.4625  0.1409  0.1918
97975W        W41028  29.569  25.243  15.106  0.1754 -0.0141 -0.0059
97976W        W41029   8.968  12.733  16.041  0.1825 -0.0612 -0.0102
97977W        W41030  17.397   4.255  24.660 -0.0513  0.1951  0.0539
97978W        W41031  17.685   7.511   8.867  0.2261 -0.0755  0.5380
97979W        W41032  25.313   8.143   0.607 -0.0124 -0.2403 -0.0680
97980W        W41033  20.138   9.831   9.975  0.1818 -0.1515 -0.0901
97981W        W41034  14.321  32.767   5.652 -0.0452  0.1823 -0.0630
97982W        W41035  17.161  26.612   5.404  0.0802  0.1887  0.0434
97983W        W41036  12.791   9.415  28.156  0.0362  0.0401 -0.2757
97984W        W41037  14.746  33.047   5.618  0.0650 -0.2541 -0.1064
97985W        W41038   7.980  25.000  18.456 -0.4553  0.1262  0.0158
97986W        W41039  19.798  28.570  27.943 -0.0264  0.0381 -0.1253
97987W        W41040  22.988   2.545   9.764 -0.0033  0.3154  0.0106
97988W        W41041  29.631  26.228  16.754 -0.0879  0.1793 -0.2685
97989W        W41042  20.037   2.447  28.538 -0.1410 -0.0026 -0.0132
97990W        W41043   8.940   9.697  17.667 -0.0708  0.0589 -0.0080
97991W        W41044   1.399  19.872   5.026  0.1144 -0.2209  0.0918
97992W        W41045   7.458  10.064  26.503  0.2162  0.0480 -0.0354
97993W        W41046   0.691  16.060  19.423 -0.0566  0.0646  0.0003
97994W        W41047   9.059  12.721   0.904  0.0744 -0.0353  0.2883
97995W        W41048   8.782   6.207   1.869  0.2137  0.3480  0.1127
97996W        W41049  19.782   6.189   2.175  0.2748  0.0869  0.1293
97997W        W41050   5.136  28.986   6.619  0.2689  0.0458  0.1354
97998W        W41051   6.182   3.499   1.687 -0.3514 -0.2711  0.2729
97999W        W41052   7.406  18.452   1.528 -0.2039 -0.2575  0.1959
98000W        W41053  20.452  23.084  25.237 -0.1524  0.1225  0.3769
98001W        W41054  22.968   8.375  21.958  0.1635 -0.0842  0.2005
98002W        W41055  30.607  27.659  26.793 -0.0727  0.3241  0.2655
98003W        W41056  18.103  31.898  19.861  0.0610 -0.1774  0.0514
98004W        W41057  21.277   9.351   3.623 -0.0739  0.3653 -0.0056
98005W        W41058  25.134  22.064  27.771 -0.0468 -0.1630  0.0230
98006W        W41059   5.159   5.236   8.873  0.2524  0.1827 -0.1162
98007W        W41060  12.853   9.832  15.924 -0.2398 -0.2385  0.0269
98008W        W41061  13.083  11.274   5.601 -0.1170 -0.3420 -0.2967
98009W        W41062  18.599  29.069   3.838 -0.1566 -0.3806  0.1360
98010W        W41063  13.894  20.832   2.147 -0.1902  0.0323 -0.2280
98011W        W41064  21.345   3.608  25.375  0.1222  0.2229  0.1272
98012W        W41065  29.435  25.958  24.521 -0.3520 -0.0248  0.3189
98013W        W41066  13.748   9.084  27.063 -0.1399 -0.0188 -0.0114
98014W        W41067   0.590  13.437   4.319 -0.0737  0.2607  0.0443
98015W        W41068  25.792   0.926   6.338  0.2698  0.1982  0.1288
98016W        W41069  20.863  26.350  18.194 -0.1123 -0.1293  0.1066
98017W        W41070  18.935   1.039  26.072  0.3340 -0.2974 -0.0461
98018W        W41071  22.640   4.583  25.129  0.0712 -0.1316  0.0480
98019W        W41072  18.505  23.432   1.545 -0.1304  0.0550  0.0551
98020W        W41073  12.235   6.146   4.129 -0.0267  0.2715  0.2066
98021W        W41074  11.370  10.492   5.863  0.0164  0.0456  0.0758
98022W        W41075   6.089   2.823   0.270 -0.1678  0.0943 -0.0404
98023W        W41076  12.718  33.664  24.573  0.0576 -0.0769 -0.1749
98024W        W41077  16.278   6.348   1.118  0.3915 -0.0111 -0.2779
98025W        W41078  30.323  33.236  24.455 -0.0280 -0.0578  0.2749
98026W        W41079  13.719  34.207  26.317  0.1124  0.0640 -0.1736
98027W        W41080  14.451  24.605   6.180  0.2886 -0.0255 -0.1741
98028W        W41081  33.936  10.820   3.865  0.0093 -0.1679  0.2125
98029W        W41082   8.080  14.426  23.043  0.3666 -0.1184  0.0738
98030W        W41083  20.666   8.997   9.860  0.0067 -0.1412  0.0610
98031W        W41084  13.331  29.495   6.529 -0.1843 -0.1085  0.1765
98032W        W41085  13.237   9.370   1.372 -0.2112 -0.5392 -0.1772
98033W        W41086  21.476  30.131   3.435  0.1208  0.2535  0.2000
98034W        W41087  14.386   4.408  27.152  0.0852 -0.0367  0.0611
98035W        W41088  13.096  13.630  27.024  0.1439 -0.0086  0.0879
98036W        W41089  19.758  34.409   8.346 -0.0671 -0.0793  0.2051
98037W        W41090  20.914  15.435  19.300  0.0290 -0.0335  0.2155
98038W        W41091  18.825  34.383  10.597  0.2114 -0.2209  0.1918
98039W        W41092  30.289   1.141   0.706  0.1782  0.1191 -0.2964
98040W        W41093   0.727  31.250   7.976 -0.0104 -0.2009 -0.0910
98041W        W41094  22.731   2.940   8.772  0.1006 -0.1898 -0.3013
98042W        W41095  13.130  20.977   5.081  0.0626 -0.2185 -0.1789
98043W        W41096  14.514   6.077   8.480  0.1853 -0.3526  0.1198
98044W        W41097   4.322  27.346  22.096  0.0605  0.0491  0.0668
98045W        W41098  26.470  13.951  16.737 -0.0855  0.1743  0.0369
98046W        W41099  26.797  10.662   8.990  0.2131 -0.0571 -0.1206
98047W        W41100  17.753  12.068  25.339  0.2689 -0.1112  0.1953
98048W        W41101  24.995  13.706  28.205 -0.2118  0.1588 -0.0181
98049W        W41102   3.612  31.524   4.655 -0.2924 -0.0327  0.3087
98050W        W41103  12.265  30.239  28.361  0.1886  0.3635  0.2338
98051W        W41104  20.263  30.412  27.458 -0.2665 -0.2127  0.0215
98052W        W41105  22.733  24.900  18.364 -0.3203  0.2293 -0.1100
98053W        W41106  18.708  28.353  27.956  0.1255 -0.0202  0.0175
98054W        W41107  27.691  27.800   4.457  0.2486 -0.0904 -0.2505
98055W        W41108   7.064   0.093   4.710 -0.0150 -0.2835 -0.0129
98056W        W41109  21.197  32.572   4.909  0.2342 -0.2674  0.2219
98057W        W41110   5.627   2.101  20.523 -0.0551 -0.3153 -0.1664
98058W        W41111   6.597   6.751   3.563 -0.0749 -0.0598  0.1359
98059W        W41112  33.119  16.154   9.109  0.3212 -0.2323 -0.0952
98060W        W41113   1.565  20.565   9.402 -0.1908 -0.0964  0.3693
98061W        W41114  20.213  12.465   2.023 -0.1761  0.2577 -0.1391
98062W        W41115   9.217  14.352  10.322 -0.2387 -0.0708  0.0989
98063W        W41116   8.077  12.110   4.426 -0.0747  0.1464  0.0379
98064W        W41117   8.804   1.850  23.222 -0.2493 -0.0992 -0.0102
98065W        W41118  25.142   4.512   7.951 -0.0123  0.0392 -0.0268
98066W        W41119  16.009  17.828  23.428  0.0025 -0.0414 -0.2759
98067W        W41120  15.762   2.973  22.105 -0.0897 -0.0331 -0.2302
98068W        W41121  15.112   7.717  10.594 -0.3929 -0.0616  0.0195
98069W        W41122  34.468  18.404  21.813  0.0991 -0.6372 -0.6185
98070W        W41123   6.877  15.308   6.720 -0.0768  0.0452  0.1098
98071W        W41124   3.552   5.466  17.357  0.0574 -0.3105  0.0092
98072W        W41125  20.965   1.907  23.460  0.2306  0.1223  0.0239
98073W        W41126  22.967  33.977   6.731 -0.1188 -0.3216 -0.0054
98074W        W41127  14.336   3.006   6.299 -0.0646 -0.0558 -0.0140
98075W        W41128  17.911   4.389  24.589 -0.0202  0.0018  0.0027
98076W        W41129  30.960   5.874   3.442  0.0028 -0.0818  0.0294
98077W        W41130  26.159  33.754   3.665  0.2259 -0.1961 -0.1315
98078W        W41131  29.026  33.649   2.077  0.1276 -0.1077 -0.0049
98079W        W41132  17.565   8.092   9.783  0.0734  0.2630  0.0210
98080W        W41133  14.740  30.089  18.784 -0.1056  0.0709  0.0702
98081W        W41134  12.569  32.622  28.887 -0.2495 -0.0947  0.1219
98082W        W41135  29.086   7.163   0.557  0.1539 -0.1949 -0.3554
98083W        W41136  23.921   3.592   0.051 -0.0251 -0.2349  0.2337
98084W        W41137   9.491   4.251  25.735  0.0975  0.0171  0.1222
98085W        W41138   3.517  28.151   3.157 -0.0153  0.1183 -0.0385
98086W        W41139  15.904   8.860  28.370 -0.1709  0.0767  0.1877
98087W        W41140  25.261  22.469   8.556 -0.0394 -0.0910 -0.0783
98088W        W41141  27.291  12.298   2.859 -0.2125  0.1039 -0.0862
98089W        W41142  13.011  21.790  18.811 -0.0522 -0.0736  0.0571
98090W        W41143  31.936  26.580  19.694  0.1914 -0.2886 -0.3252
98091W        W41144  20.178   4.103  21.217 -0.0971  0.4505 -0.1665
98092W        W41145   0.903  10.617   8.916 -0.0763 -0.2040  0.3132
98093W        W41146  20.777   6.165   1.027 -0.1173 -0.2490  0.0847
98094W        W41147  33.448  32.539   0.667  0.0081 -0.0267 -0.3854
98095W        W41148  18.565   7.905  29.201  0.0432  0.1473  0.3357
98096W        W41149  33.151   7.398   9.644 -0.1362 -0.0382  0.0510
98097W        W41150  24.420  26.920   6.109  0.1736  0.1241 -0.1729
98098W        W41151  13.206  13.645   1.258  0.4406  0.1052 -0.0996
98099W        W41152  12.169  22.849  17.420  0.0911  0.0716 -0.1512
98100W        W41153   4.364   2.145   8.573  0.1095 -0.0627  0.0236
98101W        W41154  20.632  29.590   4.908  0.1224 -0.0676 -0.1302
98102W        W41155   0.086  11.184  10.619  0.1042  0.0840  0.0512
98103W        W41156  21.218  30.102   8.034 -0.0871 -0.0945 -0.0133
98104W        W41157  14.200   3.781  28.533 -0.2251 -0.2582  0.2930
98105W        W41158  22.718  33.434   3.731  0.1122 -0.2680  0.1533
98106W        W41159   6.208  32.777  26.331  0.1036  0.1265 -0.0465
98107W        W41160  13.199  13.741  29.168  0.2189  0.1399 -0.1118
98108W        W41161   8.618  29.924  27.338 -0.0071 -0.2843 -0.0003
98109W        W41162   2.214   7.351  18.957 -0.1179 -0.3927  0.4573
98110W        W41163  32.844   1.870  24.205 -0.2955 -0.0180 -0.3228
98111W        W41164  17.725  27.175  16.549 -0.1686 -0.0121 -0.1439
98112W        W41165  16.348   6.031  27.815  0.0328 -0.2212  0.1348
98113W        W41166   0.815  11.640  19.759  0.1520 -0.0166  0.0995
98114W        W41167   6.365   4.021   2.584  0.2257 -0.2679 -0.2283
98115W        W41168  28.182  32.157  21.861 -0.0490 -0.0582  0.3134
98116W        W41169   2.902  32.926   4.191  0.1445  0.3534  0.1921
98117W        W41170  17.085   6.391  28.489 -0.1933  0.1109  0.1055
98118W        W41171   7.807  13.177   0.515 -0.2464 -0.0650  0.4400
98119W        W41172  18.517  13.304  20.905  0.0116  0.0876  0.1590
98120W        W41173  21.949   2.763   5.854  0.0894 -0.2264  0.2115
98121W        W41174   7.796  24.095   4.336  0.2094 -0.0529  0.0078
98122W        W41175  17.173  31.938  10.078 -0.0951  0.0289 -0.0038
98123W        W41176   6.175   8.618  26.597  0.3288 -0.1569  0.1547
98124W        W41177  20.525  30.110   4.944  0.2678 -0.1700  0.0476
98125W        W41178   4.088  26.833  25.194  0.0479 -0.2283  0.0310
98126W        W41179  14.218   5.017  18.005 -0.0327  0.1125  0.1258
98127W        W41180  28.568   8.327   1.896 -0.1807 -0.1041  0.2360
98128W        W41181  18.961   9.393   5.066 -0.0432  0.0073 -0.1446
98129W        W41182  22.727   0.701   5.035  0.2285  0.0812  0.0168
98130W        W41183  21.488  25.485  28.049 -0.2436  0.1280 -0.1062
98131W        W41184  17.549   8.296   1.230  0.0443 -0.0780  0.2127
98132W        W41185  27.439  27.519   4.841  0.0203 -0.1153  0.1505
98133W        W41186  10.751  20.842  25.878  0.1860  0.1913  0.0499
98134W        W41187  18.196  27.823  28.643  0.2742  0.0231 -0.2043
98135W        W41188  19.183  14.458  26.340  0.4532  0.1804  0.0628
98136W        W41189  13.935  22.643  19.193 -0.0080 -0.2320 -0.0653
98137W        W41190  32.121  24.493   7.043  0.1655  0.2927 -0.0615
98138W        W41191  13.581  29.777   3.126 -0.0539 -0.1010 -0.1115
98139W        W41192   5.727  16.066  20.455  0.1423  0.0459  0.0257
98140W        W41193  17.600  29.545  17.080 -0.0296  0.1510 -0.0585
98141W        W41194  23.269   1.278   1.580  0.1192  0.0542 -0.1598
98142W        W41195  12.418   8.751   1.771 -0.1164  0.0788 -0.1212
98143W        W41196  19.850   5.824   3.205 -0.1879  0.3068  0.3866
98144W        W41197   3.068  23.558  26.090  0.0056  0.1507 -0.2509
98145W        W41198  30.355   6.419   0.015 -0.1956  0.0926 -0.2575
98146W        W41199  13.661   2.466   6.794  0.1387  0.1542 -0.1487
98147W        W41200  24.898  25.061   2.410  0.1788 -0.0618 -0.3751
98148W        W41201   8.510  27.087   1.987  0.0651 -0.2086  0.5048
98149W        W41202  20.499  11.416  25.968 -0.0498  0.1532 -0.0584
98150W        W41203   2.403  29.474  21.092  0.0867 -0.0211  0.0380
98151W        W41204   8.935  33.693  27.060  0.3628 -0.3010  0.1126
98152W        W41205  23.316   4.626   0.853 -0.0554 -0.0082  0.0130
98153W        W41206  27.973   1.714   7.264  0.0561 -0.2178  0.0697
98154W        W41207  26.436  31.858  21.276  0.1776 -0.0003  0.1192
98155W        W41208  23.633  19.728  17.406  0.0044 -0.4836  0.3704
98156W        W41209  12.203  13.414  10.270 -0.0520 -0.0630 -0.1909
98157W        W41210  17.859  16.813   8.758  0.1408  0.2595 -0.1456
98158W        W41211   8.627   7.977   1.165 -0.2334 -0.1258 -0.1387
98159W        W41212  15.301   9.443   9.403  0.2677  0.1571 -0.2214
98160W        W41213  13.817  10.362  29.125 -0.2558  0.3467  0.1118
98161W        W41214   7.181  34.433   1.814  0.2721 -0.0071 -0.5301
98162W        W41215  17.856  29.072  17.106  0.1111  0.1169 -0.1474
98163W        W41216  22.575  31.858  27.503  0.2910 -0.1670  0.0713
98164W        W41217  18.951  30.697  26.163 -0.0246 -0.2344 -0.0176
98165W        W41218  28.395  29.808  25.922 -0.0879  0.1444  0.1786
98166W        W41219  28.544  23.138  15.273 -0.0260 -0.3154  0.0008
98167W        W41220  27.612  27.186  28.783 -0.2981  0.0552  0.2225
98168W        W41221  20.198   4.529  24.129  0.0114  0.1670  0.1474
98169W        W41222  15.278  32.796   5.500 -0.0051  0.1965  0.1580
98170W        W41223  20.023  19.477  27.792  0.3783 -0.0860  0.0374
98171W        W41224   3.202  23.325   2.332 -0.2593  0.1366  0.2417
98172W        W41225  11.023   0.724  29.050 -0.1171 -0.0674  0.0007
98173W        W41226  30.766   0.697   9.286  0.2352 -0.2533  0.2774
98174W        W41227  23.621  15.538   1.702  0.0010 -0.0586  0.0414
98175W        W41228  15.372  33.867  26.662 -0.2804 -0.0293 -0.0420
98176W        W41229  25.556  28.158   9.802 -0.3273  0.3658 -0.0439
98177W        W41230  15.353   7.922   8.868  0.0730 -0.2779 -0.1287
98178W        W41231  12.256   8.117   7.883 -0.1978 -0.1250  0.3792
98179W        W41232  34.101  33.698   0.149 -0.0145 -0.0339  0.0535
98180W        W41233   5.057   2.056  23.824 -0.0514 -0.1226  0.0469
98181W        W41234  24.912   0.818   0.623 -0.1582  0.0441  0.1899
98182W        W41235  18.096   8.039  25.676  0.2048 -0.1959 -0.1341
98183W        W41236  27.751  29.880   4.463 -0.0808  0.1674  0.1888
98184W        W41237   4.509  32.946  27.442  0.2172  0.0252 -0.3202
98185W        W41238  11.421   0.530  22.989  0.0220  0.1440 -0.2491
98186W        W41239  28.326  13.564  28.232 -0.1998  0.0235 -0.3727
98187W        W41240  27.963   2.712   4.431 -0.0893  0.0018 -0.0923
98188W        W41241   7.584  31.929  16.392  0.0855 -0.0837 -0.4222
98189W        W41242  13.557  24.718  23.405  0.0782 -0.0999 -0.1451
98190W        W41243  22.560  11.080  27.395 -0.0199 -0.0557  0.2397
98191W        W41244  20.941   6.571  28.869 -0.2204  0.3194  0.3273
98192W        W41245  13.575   0.971  10.043 -0.1415 -0.1852 -0.0986
98193W        W41246  29.386   5.622  18.113  0.0595  0.0975  0.0116
98194W        W41247  27.858   3.858   6.413  0.2173  0.0846  0.3541
98195W        W41248  15.402   2.844   9.329 -0.1655  0.2041 -0.1888
98196W        W41249  12.147  25.777   9.175 -0.0921 -0.2275  0.0699
98197W        W41250  28.003  33.619   7.948  0.0514  0.0604 -0.1463
98198W        W41251  15.004   6.606  24.533 -0.2212 -0.0440  0.1809
98199W        W41252  24.738  27.633  14.087  0.1495 -0.1929  0.0077
98200W        W41253  19.699  14.032  25.069 -0.1299 -0.3309 -0.2891
98201W        W41254  19.205  33.157   0.514 -0.1001 -0.1736  0.1191
98202W        W41255   4.400   4.088  19.096  0.0482  0.1579  0.3554
98203W        W41256  15.974   5.916   1.141  0.0523 -0.0255 -0.0829
98204W        W41257  29.107  12.358  28.595  0.1112  0.2710 -0.1488
98205W        W41258  10.902  17.321   0.497 -0.0964 -0.1113  0.1917
98206W        W41259  33.170  16.683   9.038 -0.1797  0.3389  0.0931
98207W        W41260  33.162  34.015  19.283 -0.0325 -0.0610  0.3378
98208W        W41261  22.238  22.426   4.476  0.0401 -0.1350  0.0477
98209W        W41262  19.955  11.525   4.443  0.0027 -0.1975 -0.0369
98210W        W41263  19.984  10.119  28.342 -0.0435  0.1535  0.1785
98211W        W41264  13.752  31.508   4.816  0.0199 -0.1541 -0.3342
98212W        W41265  14.124  11.885  23.187 -0.1660  0.0802  0.2065
98213W        W41266  11.331   4.868   2.007 -0.1481 -0.1273  0.3376
98214W        W41267  23.344  11.772   7.624  0.0399  0.0029  0.2587
98215W        W41268  18.581   3.710   4.527  0.2186  0.3384  0.1932
98216W        W41269  25.528   2.364  19.337 -0.1430 -0.2383  0.2982
98217W        W41270  20.551  33.832  23.991  0.2059  0.1016  0.2068
98218W        W41271  11.415  33.537   6.400  0.1952  0.1817 -0.0593
98219W        W41272  33.597   2.312  27.410 -0.2218 -0.0671 -0.2922
98220W        W41273  33.996   0.062   9.108 -0.0323 -0.2614 -0.1301
98221W        W41274   3.915  13.968   3.388  0.1187 -0.4667 -0.0054
98222W        W41275  20.984  34.310   1.562  0.0128 -0.0097 -0.0712
98223W        W41276  17.932  13.576   7.195  0.0840  0.4853  0.0686
98224W        W41277  29.676  19.378  10.286 -0.0859  0.0261  0.2997
98225W        W41278  18.831   3.217  26.939  0.0328  0.2584  0.0169
98226W        W41279   1.684  19.781  15.632 -0.0511  0.1110  0.0885
98227W        W41280  15.193   6.034  22.385  0.1186  0.1613 -0.1864
98228W        W41281  21.689  10.176  18.588 -0.2314 -0.1748 -0.2246
98229W        W41282  10.813   5.555   9.143 -0.0408  0.3220  0.0301
98230W        W41283  12.665  16.572   3.649 -0.1157  0.0624 -0.1115
98231W        W41284  31.353   9.729  19.888  0.0039  0.1694 -0.0681
98232W        W41285   1.151  25.951  12.826  0.1641 -0.1798 -0.0649
98233W        W41286  29.235  26.527  18.851 -0.0774 -0.1210 -0.5275
98234W        W41287   7.103   2.739  20.193  0.1366 -0.3673  0.1210
98235W        W41288  20.234  29.290   5.312  0.0972 -0.0956 -0.0266
98236W        W41289  16.574  12.513   7.219  0.1226  0.2199  0.2322
98237W        W41290  29.641   8.358  27.172 -0.5797 -0.1222  0.0713
98238W        W41291  24.612  15.470  19.348 -0.0144 -0.2110 -0.1817
98239W        W41292  28.370   9.930   0.358 -0.4598  0.0228  0.2463
98240W        W41293  19.420  27.405   9.670  0.0537 -0.2446 -0.1310
98241W        W41294  11.328   8.874   4.052  0.1877 -0.1136 -0.0398
98242W        W41295  14.103   6.417  11.045 -0.1752 -0.0107 -0.0079
98243W        W41296  15.226  24.315  27.221  0.0654 -0.0665  0.0402
98244W        W41297  25.374  13.812   4.530 -0.4473 -0.1175  0.1367
98245W        W41298  19.445   6.597   0.223  0.0474 -0.1496 -0.1135
98246W        W41299   6.594   9.160   9.655 -0.0130 -0.0142 -0.0037
98247W        W41300  23.988  19.221  24.972 -0.0349 -0.0818  0.0572
98248W        W41301  25.783   1.077   9.429  0.5137 -0.0982 -0.2074
98249W        W41302  11.208  29.653   1.220 -0.0212 -0.1069  0.2895
98250W        W41303   4.412  11.623  27.958 -0.0970 -0.0826 -0.2594
98251W        W41304  11.927  28.512   0.348  0.1123  0.0969 -0.2714
98252W        W41305  12.232   7.123   3.022 -0.1626 -0.0458 -0.0337
98253W        W41306  18.224   8.980   3.293  0.0917 -0.0836  0.1223
98254W        W41307  23.512  20.777  14.236 -0.1149  0.2322 -0.1773
98255W        W41308  16.176  23.159   2.750  0.0354 -0.3054 -0.0260
98256W        W41309  27.935  14.364   5.055 -0.3290  0.2239 -0.1214
98257W        W41310  30.600  29.905   7.643  0.2304  0.0956  0.2629
98258W        W41311  15.949   2.435   7.660  0.0352 -0.2179  0.1514
98259W        W41312   9.640   3.069   0.684 -0.1470  0.0959  0.1979
98260W        W41313  24.750   7.727   9.553  0.1759 -0.2738 -0.1292
98261W        W41314  17.029  18.632   3.190 -0.2180  0.2553  0.0711
98262W        W41315  12.884  28.407  22.667  0.1223  0.0957 -0.4605
98263W        W41316  11.552  28.418   9.512  0.0022  0.1517  0.0869
98264W        W41317  27.491  31.796  23.023  0.0331 -0.2351  0.0150
98265W        W41318  11.631   0.033   9.998 -0.0629 -0.0701  0.1969
98266W        W41319   2.373   2.719   4.115  0.3605 -0.2404  0.2757
98267W        W41320  17.903  31.689   9.460  0.0462  0.0152 -0.0201
98268W        W41321   8.344  31.436  24.454 -0.0744 -0.0099  0.0261
98269W        W41322   4.231   7.499   2.672 -0.0914  0.0041 -0.0585
98270W        W41323  21.181   9.388   1.782 -0.1727 -0.0285 -0.2228
98271W        W41324  30.803  31.909   9.887  0.0673 -0.0649  0.2112
98272W        W41325  21.570  32.232   4.914 -0.1683 -0.0139  0.0546
98273W        W41326  21.874   9.965  26.709  0.0743 -0.2006  0.0863
98274W        W41327  26.947  13.392   7.369 -0.0697 -0.0721 -0.0337
98275W        W41328  27.394  32.008   8.087  0.1827 -0.0131 -0.1500
98276W        W41329   5.453  10.715  10.295 -0.2415 -0.0668 -0.0838
98277W        W41330  12.493  32.036  27.653  0.0038 -0.1037  0.0216
98278W        W41331  22.679  25.955  21.266  0.2002  0.2538  0.0476
98279W        W41332  24.942   1.318   0.697 -0.2175  0.0927  0.0417
98280W        W41333  34.376  10.784  20.034  0.1966 -0.1492 -0.1681
98281W        W41334  21.281  10.076  28.398 -0.1563  0.1716  0.2415
98282W        W41335   7.081   2.515  26.244 -0.0513 -0.1504  0.1015
98283W        W41336  12.006   2.728   1.808  0.2188 -0.1986 -0.1951
98284W        W41337   8.347   3.167   1.143  0.3216 -0.1492 -0.0590
98285W        W41338   1.218   3.716   1.177 -0.1301 -0.0121  0.0090
98286W        W41339  22.749   6.435  28.492  0.0265  0.2489 -0.1003
98287W        W41340   5.628  32.479   7.847  0.0695 -0.2008 -0.1094
98288W        W41341  12.685  10.607  23.765 -0.0698  0.1636 -0.0185
98289W        W41342   6.122  20.216  21.169  0.2131 -0.0552  0.4282
98290W        W41343  19.060  26.905   6.496  0.0361 -0.0388  0.1668
98291W        W41344   8.997   5.238  27.091  0.0982 -0.0966  0.0526
98292W        W41345  21.279  29.854  28.895  0.0852  0.0917 -0.1750
98293W        W41346  16.528  14.473  26.343 -0.0826 -0.3901  0.3493
98294W        W41347   8.084  16.640  28.827  0.3474  0.1001 -0.0176
98295W        W41348  20.236   4.647   8.772 -0.2197 -0.2126 -0.0405
98296W        W41349   8.408  18.881   1.607 -0.1470 -0.0001 -0.0341
98297W        W41350  21.494  27.151  24.342 -0.0306  0.1725 -0.1663
98298W        W41351  15.254  10.283   5.038  0.0898  0.0190  0.0244
98299W        W41352  32.255  13.344  25.919 -0.3280 -0.1710 -0.0363
98300W        W41353  20.265  28.608   3.170 -0.1520  0.0788  0.0321
98301W        W41354   1.919  11.026  28.508  0.0434 -0.2599 -0.0795
98302W        W41355   7.325   1.757   2.394 -0.4163  0.0754  0.1164
98303W        W41356  13.490  11.118   5.412 -0.0437  0.0641  0.0322
98304W        W41357  14.893  31.159   0.770 -0.2191  0.1099 -0.0225
98305W        W41358   9.839  33.396   7.396 -0.2271  0.3098  0.1169
98306W        W41359  34.035  11.551  21.731 -0.1392  0.2398  0.0856
98307W        W41360  20.823  12.656   3.242  0.0264 -0.1758  0.3109
98308W        W41361  19.210   0.283   3.004  0.3049 -0.0915  0.0614
98309W        W41362  26.292  33.903   4.491  0.0856  0.0407 -0.0357
98310W        W41363  12.884  16.480   7.261  0.0296 -0.2018 -0.1093
98311W        W41364   4.388  11.246   5.877  0.2471 -0.1412  0.2401
98312W        W41365  28.491   2.569  25.354 -0.0465 -0.1404 -0.4081
98313W        W41366   9.209  25.333  21.445 -0.1332  0.0931 -0.1662
98314W        W41367  15.924  10.906   4.994 -0.2168 -0.2262  0.1602
98315W        W41368   7.060   4.476   4.520  0.2209 -0.0623  0.0366
98316W        W41369  24.111   6.859   1.890 -0.1614 -0.1152  0.0811
98317W        W41370  29.347   3.120   0.688  0.0010 -0.1238  0.2702
98318W        W41371  18.936   4.158  10.185 -0.2147  0.0189  0.2011
98319W        W41372   6.690  34.530   4.984  0.0587 -0.2099 -0.3335
98320W        W41373  29.730   2.908  25.764  0.0282  0.2183  0.1011
98321W        W41374   3.705  29.023  19.102 -0.1996  0.2387 -0.0898
98322W        W41375  19.961  30.046  23.935 -0.0140  0.0659  0.2176
98323W        W41376  31.647  19.750   6.251  0.1782  0.2838 -0.0321
98324W        W41377  17.057  26.845   4.423  0.0839  0.0120  0.2240
98325W        W41378   4.810   5.492   9.894  0.3630 -0.1628  0.1382
98326W        W41379  23.826   5.779   7.302  0.0736 -0.1201  0.3207
98327W        W41380  29.685  33.605  25.351  0.0833  0.0084 -0.3167
98328W        W41381  28.312  32.227   6.596 -0.2065  0.2159 -0.0558
98329W        W41382  27.965  21.553   0.248  0.1327 -0.1730 -0.3108
98330W        W41383   8.893  27.565   1.156 -0.1042  0.1497 -0.0389
98331W        W41384  18.530   5.611   5.427 -0.0542 -0.1182 -0.2400
98332W        W41385  24.981  30.250   5.607 -0.3184  0.3223 -0.1637
98333W        W41386  21.077  10.511   9.228  0.1664 -0.1653  0.1355
98334W        W41387  12.913  25.047   0.525 -0.2922  0.2216 -0.2487
98335W        W41388  22.771  14.057  26.538 -0.0738  0.1032  0.0918
98336W        W41389  11.265  23.163   7.484 -0.0957 -0.0369  0.3146
98337W        W41390  17.296   2.771  24.966  0.0129  0.4587  0.3293
98338W        W41391  26.200  33.402   4.445 -0.1781  0.6061  0.0726
98339W        W41392  26.203   4.370  25.588  0.0010  0.0575  0.0093
98340W        W41393  24.702   8.573   5.785 -0.2842  0.1482  0.2997
98341W        W41394  20.689   8.582   1.996  0.1609  0.0924  0.3296
98342W        W41395  12.516  10.211   9.025 -0.3293  0.0865 -0.1536
98343W        W41396  23.161   0.783  22.371 -0.1866  0.1562 -0.1752
98344W        W41397  13.917  24.018  25.277  0.0656 -0.4809  0.2347
98345W        W41398  12.688  30.537  27.837  0.1294  0.0088 -0.0176
98346W        W41399   0.689  19.097   1.561  0.0004  0.1381  0.1784
98347W        W41400   9.235  27.788  27.426 -0.1969 -0.2939  0.0703
98348W        W41401  12.596  23.362   0.351 -0.1668  0.0957 -0.1559
98349W        W41402  13.983   7.515   6.138  0.1920 -0.1385 -0.0671
98350W        W41403  10.804   3.675  25.131  0.3410 -0.5689  0.3230
98351W        W41404  29.337   4.097   4.852 -0.2415 -0.2163 -0.0958
98352W        W41405   5.420  25.637   5.808 -0.1638  0.0083 -0.0260
98353W        W41406  13.037   8.406   4.035  0.2325  0.0883 -0.0907
98354W        W41407  14.837   1.306   9.717 -0.0220  0.0755  0.1875
98355W        W41408  24.979   4.891   2.500  0.0950  0.0641 -0.0608
98356W        W41409  22.492  30.225  16.906 -0.0897 -0.2002 -0.0235
98357W        W41410  15.760   0.892   7.106  0.0676  0.0315  0.1711
98358W        W41411  16.537  14.194   9.373 -0.2590 -0.2338  0.1167
98359W        W41412  11.329   6.854   4.595  0.0725 -0.1457  0.0636
98360W        W41413  18.338  27.043  24.455 -0.0505 -0.0206 -0.1568
98361W        W41414  11.257  34.344  23.833  0.3678 -0.0620  0.0537
98362W        W41415  15.755  15.432   9.338  0.1817 -0.1159 -0.1443
98363W        W41416  24.187  21.303  17.467 -0.0053  0.1864  0.1185
98364W        W41417  30.889   1.253  19.141  0.2813 -0.0034  0.1454
98365W        W41418  10.258  33.017   4.526  0.0930  0.2333 -0.2095
98366W        W41419   0.066  29.278   9.359  0.1165  0.2093  0.0539
98367W        W41420  20.420  13.107   4.689 -0.1310 -0.3261 -0.0877
98368W        W41421  15.500   0.727   6.547 -0.0854  0.1696 -0.1086
98369W        W41422   8.710  18.091   1.558  0.0355  0.0691 -0.1731
98370W        W41423  24.339   6.886   2.360  0.3592  0.1084 -0.0380
98371W        W41424  23.127  20.784   1.123  0.2566  0.0264 -0.0558
98372W        W41425  13.865   4.343   1.087  0.5197  0.0672  0.2974
98373W        W41426  19.550  24.207  19.148 -0.2012 -0.3930  0.1355
98374W        W41427  18.469  31.544  15.194  0.1094 -0.1843  0.1559
98375W        W41428  11.045   7.931  20.465  0.0220 -0.0685 -0.1127
98376W        W41429  17.901  17.199  26.341  0.1324  0.0410 -0.1182
98377W        W41430  12.665   3.341  26.622  0.1686  0.0133  0.1048
98378W        W41431  31.731   3.860  25.708 -0.0794  0.1722  0.1905
98379W        W41432   9.725  18.454  18.527  0.1376  0.0356  0.0551
98380W        W41433   9.125  15.442  24.374  0.2228 -0.1646 -0.3015
98381W        W41434  15.095  11.169   9.014  0.0214 -0.0178  0.1612
98382W        W41435  14.624  34.125   4.472  0.0401 -0.2735  0.1100
98383W        W41436  16.161  25.125  27.799 -0.0117  0.2683 -0.2576
98384W        W41437  27.244  25.914   4.502 -0.2457 -0.1313  0.0862
98385W        W41438   6.431   3.024  26.825 -0.2001 -0.3501 -0.1481
98386W        W41439  10.931  18.237  19.776  0.2025 -0.4213  0.0260
98387W        W41440  19.922   3.662   2.783  0.2183  0.1657  0.2347
98388W        W41441   8.791   3.353   7.110 -0.2911 -0.1176 -0.0430
98389W        W41442   6.228  11.814  25.752 -0.2286 -0.1054  0.0142
98390W        W41443  25.105  34.416  23.583 -0.4550  0.2394  0.0302
98391W        W41444  19.726  14.495   4.174  0.3447 -0.0272 -0.1484
98392W        W41445  15.702  16.207   2.137  0.1650  0.0645  0.1237
98393W        W41446  11.326  13.243   7.405 -0.1008 -0.0876  0.1475
98394W        W41447  18.920   2.910   3.759  0.1749  0.1042  0.0414
98395W        W41448  13.219  15.385   7.548  0.0686  0.1641  0.0971
98396W        W41449   9.093  22.139  26.304 -0.1732  0.1416 -0.1399
98397W        W41450  32.162  33.418  27.501  0.0127  0.1004 -0.0446
98398W        W41451  27.585  33.520   2.436  0.1609 -0.0064 -0.0162
98399W        W41452  18.297   1.781  26.061  0.2343  0.0711  0.2558
98400W        W41453  18.502  19.802  29.188  0.2583 -0.1617  0.0525
98401W        W41454  15.552   5.026   2.995  0.0501 -0.2174 -0.3720
98402W        W41455  23.135  32.135   1.295  0.0328 -0.2686 -0.1763
98403W        W41456  14.677  13.560   1.405 -0.0755 -0.0645 -0.1593
98404W        W41457  13.099  16.345  24.567  0.3398  0.1403  0.1282
98405W        W41458   7.698  15.272   4.807  0.0119  0.0528 -0.1955
98406W        W41459  11.306   1.936  16.335  0.0388 -0.4392  0.1306
98407W        W41460  23.107  32.514  22.949 -0.1379  0.0394 -0.1510
98408W        W41461  17.068   8.355  26.309  0.2359  0.1820 -0.4274
98409W        W41462  20.377  15.903  22.497  0.1634  0.1708 -0.0250
98410W        W41463  12.532  34.648   9.748 -0.0831 -0.0848  0.1217
98411W        W41464   2.029   4.630   0.950 -0.1325 -0.4170  0.0351
98412W        W41465  19.784  30.449  27.782 -0.2439  0.1106 -0.4138
98413W        W41466  17.248   3.658   6.159  0.2757 -0.0492  0.1555
98414W        W41467  20.191   7.802   5.576 -0.1031 -0.0127 -0.1339
98415W        W41468   4.830  16.319  21.540 -0.2174  0.1748 -0.0703
98416W        W41469  24.236  10.620   9.437 -0.0168  0.4082  0.1564
98417W        W41470   8.112   8.677  28.169 -0.0001 -0.0495 -0.0328
98418W        W41471  13.348  17.837  17.046 -0.4017  0.2807  0.2546
98419W        W41472  33.371   6.375  20.950 -0.0157 -0.3952 -0.0720
98420W        W41473  31.595  26.271   7.917 -0.1709  0.1406 -0.0373
98421W        W41474  33.620   6.436  28.693  0.2480 -0.0882  0.0709
98422W        W41475   7.038  24.661   2.508 -0.1723 -0.2704  0.1359
98423W        W41476   6.729  26.563  23.333 -0.1775  0.2553  0.0134
98424W        W41477  13.359  17.968   9.172 -0.2501  0.1533  0.0662
98425W        W41478   3.905  13.237   3.357  0.2348  0.0520 -0.0256
98426W        W41479  23.694   5.033   0.831  0.1680 -0.2532 -0.0198
98427W        W41480   9.498  13.823   5.503 -0.1577 -0.1155  0.1136
98428W        W41481  10.385   0.432   6.619 -0.0361 -0.0223  0.0071
98429W        W41482  24.050  26.190  28.547  0.0900 -0.2059 -0.1257
98430W        W41483  14.936   6.367   2.888  0.0568  0.2644  0.0539
98431W        W41484  21.723   5.427  20.360  0.1635 -0.0613 -0.0939
98432W        W41485   8.247   5.810   7.649  0.2146 -0.1036  0.0501
98433W        W41486  16.116   2.568  24.861  0.1398 -0.1481  0.3017
98434W        W41487  16.210  27.925   6.720  0.1965 -0.1436  0.3369
98435W        W41488  25.245  31.601  23.475 -0.0313  0.1150  0.0085
98436W        W41489  15.958   8.156   7.365 -0.3643  0.3912  0.0397
98437W        W41490   1.651   8.602   8.073  0.0087 -0.4416 -0.1556
98438W        W41491  30.151   2.314   4.120  0.2312  0.0105 -0.0953
98439W        W41492  16.000  22.809   3.673 -0.0740  0.0890  0.2295
98440W        W41493  22.177  30.439  19.782  0.4360 -0.2010  0.0838
98441W        W41494  17.295   6.571   7.357  0.0538  0.1215 -0.3080
98442W        W41495   9.501  29.965  24.968  0.0474  0.3330  0.0347
98443W        W41496  28.881  22.579   4.990  0.1996  0.0322  0.1839
98444W        W41497  22.501  13.289  27.215  0.3231 -0.1663 -0.2588
98445W        W41498  25.716   3.409   3.344 -0.1744 -0.1668 -0.2943
98446W        W41499   1.639  25.557  29.010  0.0768  0.0876  0.2459
98447W        W41500   0.486   0.888   2.077 -0.0861  0.1915 -0.0160
98448W        W41501  13.237  15.708   6.963  0.2668  0.0789 -0.1264
98449W        W41502  12.347  33.611   3.858  0.2775  0.0263  0.1978
98450W        W41503  11.587   7.249  21.868  0.0861  0.0581 -0.0117
98451W        W41504   2.756  12.035   4.347 -0.0783 -0.2571  0.2670
98452W        W41505  30.637  26.168  26.045 -0.0704  0.2331 -0.2201
98453W        W41506  10.243  29.926   8.701  0.1908 -0.0237 -0.0411
98454W        W41507  25.840  32.260  26.272  0.2691 -0.0751  0.1882
98455W        W41508  21.291   7.876   7.568  0.2087  0.0170  0.2371
98456W        W41509  15.116  24.134   5.475 -0.5065  0.2646  0.1095
98457W        W41510  30.272  26.857  27.500  0.1474  0.0853 -0.0555
98458W        W41511   9.518  31.103   0.863 -0.1824 -0.0643 -0.0985
98459W        W41512  14.359  21.287   5.434 -0.2160 -0.3269  0.0602
98460W        W41513  28.318   6.680  22.323 -0.1736  0.0143 -0.1864
98461W        W41514  22.363  33.756   3.917 -0.1690  0.2019  0.0570
98462W        W41515   6.401  28.076   8.324  0.0549 -0.1184  0.1899
98463W        W41516  11.955  29.981   4.960  0.2534  0.0534  0.0762
98464W        W41517   8.496   3.489   9.679 -0.1581 -0.1300  0.0489
98465W        W41518   0.783  22.453   0.411  0.0479  0.3580  0.0946
98466W        W41519  23.243  22.661   4.506  0.0592 -0.1600  0.1784
98467W        W41520  12.639   1.024   6.558 -0.2489  0.0043 -0.2525
98468W        W41521  12.246   0.585  28.306  0.0303  0.2850  0.1893
98469W        W41522  33.382  24.489   4.598  0.2200  0.1992 -0.0592
98470W        W41523  21.800  31.132   0.173 -0.0833 -0.0513  0.0877
98471W        W41524  11.648   5.256  23.912  0.0611 -0.0194  0.2406
98472W        W41525  19.362   1.320   0.213 -0.0721 -0.0106  0.0177
98473W        W41526  14.446  20.091   1.643 -0.1140 -0.2180  0.0120
98474W        W41527  28.588   7.298   5.962 -0.1434  0.2679 -0.1842
98475W        W41528  27.837   7.261  26.143  0.0029 -0.0847  0.0267
98476W        W41529  12.946  33.689  27.770 -0.0432  0.0552 -0.2527
98477W        W41530  21.535  16.291   0.110  0.3979 -0.0203 -0.2328
98478W        W41531  32.585  19.731   5.449  0.0610 -0.3545  0.2925
98479W        W41532  24.327  24.370   9.468 -0.0649 -0.1138 -0.0508
98480W        W41533  16.778   8.763   0.731 -0.0300  0.2380 -0.2772
98481W        W41534  27.776   7.894   3.628  0.2066  0.0322  0.0961
98482W        W41535  10.442  32.093   7.758  0.0127  0.2058 -0.0397
98483W        W41536  14.257   1.020   8.163  0.4149 -0.0123 -0.1275
98484W        W41537   6.509   4.900   5.606  0.0422  0.0766  0.1711
98485W        W41538  20.917  22.657   2.056 -0.1313 -0.2915  0.0797
98486W        W41539   5.060  11.467   2.177 -0.1150  0.2105  0.4202
98487W        W41540  19.614  33.223  13.735  0.0726 -0.2029 -0.3636
98488W        W41541  30.529  26.465  22.919  0.0661  0.1886 -0.0029
98489W        W41542   9.685  29.020   3.474 -0.1471 -0.1676  0.4079
98490W        W41543   8.551   8.533   6.010  0.0390  0.0694  0.0313
98491W        W41544  12.882  33.310   5.725 -0.0675  0.2315  0.0954
98492W        W41545   1.166  12.394  18.503 -0.0328  0.3437  0.1073
98493W        W41546  16.656   5.448   8.104  0.2296  0.2061  0.0464
98494W        W41547   1.630  14.577  23.606 -0.0078 -0.2860  0.2043
98495W        W41548  15.047  31.707   5.853 -0.1820 -0.0545  0.1850
98496W        W41549  16.623   4.037  27.089 -0.0145 -0.0170 -0.1628
98497W        W41550  19.587   7.123  25.760 -0.0631 -0.1242  0.2119
98498W        W41551  22.413  20.277   9.461 -0.0685  0.1109  0.3282
98499W        W41552  27.049   1.353   8.931  0.0488  0.0737  0.1693
98500W        W41553   2.128  25.704   8.010  0.1274 -0.0955 -0.1494
98501W        W41554  14.737  14.544  10.056 -0.1537  0.2128  0.2697
98502W        W41555  18.976  29.915   8.240 -0.0637  0.0379  0.2189
98503W        W41556   7.379   1.834  28.040 -0.1338  0.0608  0.1126
98504W        W41557  20.138   4.760  27.934  0.4280  0.0839 -0.1737
98505W        W41558   5.495  29.338  20.099  0.1009  0.0004 -0.4355
98506W        W41559  12.502   1.066   8.808 -0.2757 -0.0136 -0.2032
98507W        W41560  18.121  10.453   9.667 -0.3054  0.2278 -0.1608
98508W        W41561  15.677  17.861   0.290 -0.0083 -0.1787 -0.0373
98509W        W41562   6.305  34.161   3.083  0.0980 -0.0667 -0.2078
98510W        W41563  21.424  13.399   5.790  0.1405 -0.0190  0.1446
98511W        W41564  22.640   3.189  24.758 -0.2287  0.1634 -0.2122
98512W        W41565  18.855  28.369   1.775 -0.0131 -0.0871  0.0611
98513W        W41566  19.861  22.914   8.943  0.1171 -0.2892  0.1639
98514W        W41567  31.755   4.831   4.349  0.0782 -0.1136  0.0251
98515W        W41568   6.642   5.588  16.830  0.0328 -0.1776 -0.2415
98516W        W41569   1.211  25.277   4.764 -0.1635  0.1428 -0.1174
98517W        W41570  11.488  19.772   4.109 -0.0900 -0.0087 -0.0554
98518W        W41571  16.994   5.570   4.682 -0.0890 -0.0898 -0.2361
98519W        W41572  15.901   0.232  21.180 -0.0234 -0.0017  0.0145
98520W        W41573  20.836  30.948  17.514 -0.1256 -0.2405  0.0694
98521W        W41574  26.599  22.252   0.402  0.1754  0.3924  0.2456
98522W        W41575  27.528  26.419   4.615  0.2089 -0.2904 -0.1085
98523W        W41576   6.765  29.983  24.694  0.0171 -0.3838 -0.1783
98524W        W41577  28.400  16.557   2.819 -0.2705  0.0357  0.0719
98525W        W41578  12.044  28.959   6.636 -0.0078 -0.3286 -0.2229
98526W        W41579  10.889  28.842  24.312 -0.1011 -0.0849  0.4104
98527W        W41580  23.533   6.622   7.824  0.2304 -0.0069  0.3053
98528W        W41581  17.115  15.337   8.159  0.2915 -0.1502 -0.3535
98529W        W41582  13.568  20.691   1.260  0.0964 -0.0655  0.0391
98530W        W41583  29.425  28.044   5.956  0.0938  0.1243  0.0123
98531W        W41584  10.083   2.067   5.009 -0.2778  0.2168 -0.3557
98532W        W41585  27.510   9.361   2.689  0.0527  0.0989 -0.0159
98533W        W41586  14.453  25.656   1.269  0.2818 -0.3621  0.0297
98534W        W41587  30.903   0.239   5.136 -0.1481  0.4128  0.1041
98535W        W41588  24.325  18.005  27.941  0.4450 -0.1682 -0.3425
98536W        W41589  14.782  10.146  28.240 -0.1762 -0.3371  0.2185
98537W        W41590   3.340   3.131   1.646  0.0636 -0.0813 -0.0774
98538W        W41591  29.816   4.698   4.858  0.0670  0.0858 -0.0146
98539W        W41592  22.326   2.665   8.904  0.1674 -0.2545  0.4023
98540W        W41593  13.897   7.014   4.024 -0.1501 -0.3216  0.0886
98541W        W41594  15.665  11.721   1.899 -0.1032  0.2949 -0.5144
98542W        W41595  32.311  11.633   6.614 -0.2780 -0.2204  0.0283
98543W        W41596  19.086   8.297  25.825 -0.0274 -0.0441  0.2857
98544W        W41597  21.288  15.608  25.654  0.0088  0.2226  0.0387
98545W        W41598   9.916  22.210   1.093 -0.0576  0.1156 -0.0507
98546W        W41599  21.531   8.621  25.908 -0.1856  0.1313 -0.0834
98547W        W41600  23.761  21.313   9.988  0.3535 -0.1205 -0.3056
98548W        W41601  12.333  12.616   7.761 -0.0035  0.2341 -0.2497
98549W        W41602  16.091  24.793   1.331 -0.0092  0.2551 -0.0317
98550W        W41603  27.855   9.811  10.683 -0.1107  0.1492  0.0415
98551W        W41604  17.016   4.927   7.111 -0.0023 -0.0729 -0.1113
98552W        W41605  10.817   7.265  26.938  0.1787 -0.3458  0.1356
98553W        W41606  17.640  32.633  24.326 -0.1162 -0.0829 -0.1562
98554W        W41607  27.468  25.295   4.949  0.1516  0.0061 -0.0245
98555W        W41608  24.916   8.053   5.703 -0.0956 -0.0838  0.0537
98556W        W41609  12.049  29.128   7.783 -0.0005 -0.3680 -0.1976
98557W        W41610  10.522   7.179   1.989  0.1794  0.2515  0.0891
98558W        W41611  22.557  17.851  19.349  0.1294 -0.0509 -0.3553
98559W        W41612  31.297   2.435   3.704 -0.3131 -0.2300  0.0624
98560W        W41613  24.768  10.380   7.825 -0.0544 -0.0388 -0.4540
98561W        W41614  18.429   6.195   0.040  0.3343 -0.0281  0.0567
98562W        W41615   6.961  32.826   7.164  0.1514  0.3470  0.1490
98563W        W41616  27.535  16.655  23.883 -0.4344 -0.1743 -0.0585
98564W        W41617  18.693   2.006   5.468 -0.0167  0.1024 -0.0230
98565W        W41618  10.716   6.458  19.506 -0.1538  0.0772  0.0096
98566W        W41619   8.812  19.126   1.902 -0.1109  0.0408  0.0843
98567W        W41620  30.060   3.880  27.635  0.3365  0.0504 -0.1003
98568W        W41621   2.293  22.848   1.145 -0.1222  0.2714  0.4598
98569W        W41622  10.260  11.920   9.599  0.1295  0.0550 -0.1440
98570W        W41623  14.490  29.444   9.692  0.0180 -0.3417 -0.3248
98571W        W41624  15.597  28.494   1.639  0.1391  0.0721  0.1184
98572W        W41625  22.708   7.332   0.278 -0.0025  0.0053 -0.3270
98573W        W41626   8.974   1.160  23.949 -0.0991 -0.0883 -0.0130
98574W        W41627  27.417  15.833   4.839  0.0271  0.1856  0.3749
98575W        W41628  12.687  28.200   1.760 -0.3652  0.2503 -0.0277
98576W        W41629  26.755  29.845   7.906 -0.2756 -0.0667  0.0508
98577W        W41630  18.315  19.551   2.409  0.0810 -0.0190  0.0760
98578W        W41631  13.482   2.415   2.420  0.2171 -0.0412  0.0561
98579W        W41632  21.369   2.863  29.008  0.1086 -0.0243  0.1144
98580W        W41633  11.698  33.802   2.182 -0.1112  0.0967  0.4242
98581W        W41634  10.232  10.096   9.122  0.2710  0.3650  0.1008
98582W        W41635  10.825  29.423  25.904  0.1254  0.2631 -0.0143
98583W        W41636  10.418  33.060  26.266 -0.0360 -0.0969  0.0308
98584W        W41637  16.961   5.478  18.977 -0.1942 -0.1291 -0.2943
98585W        W41638  17.973  25.130   0.227  0.0506  0.3333  0.0828
98586W        W41639  20.459  27.356   4.286  0.0218  0.0959  0.1143
98587W        W41640  17.138  16.989   2.182  0.1646  0.4635 -0.3729
98588W        W41641  14.643  22.970   0.091  0.3111 -0.0341  0.3388
98589W        W41642   3.448   1.266   7.757  0.0854  0.1025 -0.1616
98590W        W41643   3.596   5.434   6.994  0.0568  0.0504  0.0501
98591W        W41644  28.730   7.315   2.685  0.2455 -0.4549  0.2577
98592W        W41645  18.653   8.338   0.304 -0.3738 -0.0580  0.0768
98593W        W41646  30.676   2.360  28.688 -0.0448 -0.0052 -0.1093
98594W        W41647   2.636   3.628   1.356 -0.1153 -0.1253  0.0490
98595W        W41648  11.525  13.860   8.775  0.0530 -0.0343 -0.2207
98596W        W41649  17.076   8.453   3.075  0.2120 -0.0597  0.1331
98597W        W41650  22.788  20.018   5.446 -0.0193 -0.0352 -0.0484
98598W        W41651  22.576  34.572   5.767  0.1868 -0.2292  0.0880
98599W        W41652  10.489  25.401   7.695 -0.0181  0.2771 -0.0913
98600W        W41653  20.555  22.318  24.747  0.2318  0.2136 -0.1874
98601W        W41654  31.370   5.562   7.647  0.0587  0.3346  0.1279
98602W        W41655   8.898  30.429  25.361  0.0786  0.0949  0.0152
98603W        W41656  16.076  19.576   3.609  0.1568  0.3904 -0.0727
98604W        W41657  18.934   4.926   4.108  0.0327  0.1941 -0.1811
98605W        W41658   1.006  31.030   6.203  0.4169  0.3130  0.1328
98606W        W41659   7.938   0.125  28.574 -0.2148 -0.0806 -0.0462
98607W        W41660  30.673  25.857   7.888 -0.2031 -0.0287  0.0550
98608W        W41661   6.570  28.899  22.905 -0.1152 -0.0979 -0.0128
98609W        W41662  26.061  33.317   3.954  0.2873  0.1414  0.0442
98610W        W41663  21.819   8.485  26.653  0.1598 -0.2620  0.2357
98611W        W41664  13.955   7.903  16.779  0.1426  0.2296 -0.0938
98612W        W41665  15.922   4.646   1.011  0.0991  0.2337 -0.1008
98613W        W41666  22.006   1.788   1.019  0.1650  0.1063 -0.2516
98614W        W41667  10.947  33.346   9.821  0.1565 -0.0763 -0.1761
98615W        W41668   4.791  31.709   7.935 -0.0084  0.1281 -0.0135
98616W        W41669  13.852  25.212  28.245 -0.0451  0.1969  0.1324
98617W        W41670  16.866   5.479   3.618 -0.1957 -0.1881 -0.3227
98618W        W41671  16.522   3.787   3.934 -0.0261  0.1810  0.1768
98619W        W41672  24.204   1.191   7.209  0.0244 -0.1439  0.2884
98620W        W41673   4.361  20.228  22.553 -0.0528 -0.1991 -0.0453
98621W        W41674  19.351  32.366   1.000  0.1160  0.1462 -0.0762
98622W        W41675  22.505  33.369  19.108  0.0037 -0.3169 -0.1518
98623W        W41676  30.798   4.961  27.665 -0.1092 -0.3545  0.3944
98624W        W41677  30.685  31.467   9.571  0.1912  0.0111 -0.0545
98625W        W41678  20.541   6.840   8.700 -0.0743  0.1760 -0.0194
98626W        W41679  20.477   6.850  27.492 -0.0359  0.1618 -0.0227
98627W        W41680  13.408  30.226   8.236 -0.1605 -0.1740  0.2759
98628W        W41681   8.010  26.256   8.930 -0.0752  0.3822  0.1810
98629W        W41682  21.504   2.510   7.676  0.0253  0.1830 -0.2819
98630W        W41683  19.790  16.784  21.691 -0.0114 -0.0475  0.1660
98631W        W41684  25.234  12.155   4.162  0.1432  0.0603 -0.1015
98632W        W41685  12.510  15.935  20.878  0.2745  0.1509  0.0278
98633W        W41686  22.606  34.638   0.402 -0.1161 -0.1364  0.0929
98634W        W41687  15.040  13.166   1.386  0.3258  0.1573 -0.1508
98635W        W41688  29.782   8.303   2.419  0.1942 -0.0717 -0.0324
98636W        W41689  13.787   5.907   4.920 -0.4209 -0.1300 -0.3835
98637W        W41690  21.307   1.067   3.863 -0.0367  0.0510  0.0172
98638W        W41691  19.549  32.206  24.182 -0.1639  0.2556  0.0225
98639W        W41692  18.847   7.499   5.667  0.0388 -0.2159  0.1505
98640W        W41693  22.148  15.041  29.105  0.1752 -0.3056 -0.2831
98641W        W41694   9.758  16.633   1.850  0.0449 -0.0415 -0.2834
98642W        W41695  19.430  28.367  26.221 -0.1025 -0.0989  0.0916
98643W        W41696  21.272  32.494   6.012  0.2329  0.1220  0.3524
98644W        W41697  30.536  34.023   6.557  0.0931  0.1063 -0.1267
98645W        W41698  23.350   9.541   8.324 -0.0296  0.0359 -0.2381
98646W        W41699  18.432  31.339   5.384  0.2719 -0.0072  0.2191
98647W        W41700   9.008  25.356   6.546  0.0116 -0.0322  0.0421
98648W        W41701   8.917   4.219  23.479 -0.0643  0.1494 -0.1118
98649W        W41702   8.436  28.241   0.683 -0.1802  0.0282  0.0093
98650W        W41703   4.559  27.575  19.148 -0.0977 -0.1143  0.0747
98651W        W41704  17.717   7.591   5.935  0.0664 -0.2076  0.1468
98652W        W41705  10.258  21.555   7.445  0.1263 -0.0573  0.1461
98653W        W41706  21.268   5.493  27.488  0.3885  0.3630  0.0015
98654W        W41707  21.476  33.057   7.596 -0.1215  0.3473  0.0118
98655W        W41708  19.675  26.113   1.789 -0.1179 -0.1608 -0.1938
98656W        W41709  16.948  24.453  24.527  0.1146  0.1741  0.2121
98657W        W41710   6.696   5.132  13.976 -0.0168  0.1498 -0.2211
98658W        W41711  10.137  28.450  25.465 -0.0814 -0.2553 -0.0157
98659W        W41712  19.201   3.581   0.138  0.1458  0.0540  0.1876
98660W        W41713   7.038  32.541   3.126 -0.2821  0.0893  0.2894
98661W        W41714  34.633  21.947  24.812  0.1856  0.0866  0.2204
98662W        W41715  19.591  26.730   5.350 -0.1266  0.1762  0.0849
98663W        W41716   4.613   1.356   8.938 -0.0902  0.0448  0.0112
98664W        W41717  13.457   4.966   7.418  0.1026 -0.2403 -0.0113
98665W        W41718  20.624   8.579   3.195 -0.1048  0.0270  0.2617
98666W        W41719  19.985   6.648   0.565 -0.0437  0.0285  0.2456
98667W        W41720  23.618   1.671  10.125  0.0311 -0.0732 -0.0758
98668W        W41721  26.598  10.046   9.887 -0.1130  0.2668 -0.0246
98669W        W41722   7.291  17.555   9.735 -0.0769 -0.3474 -0.0446
98670W        W41723  17.912   8.220   9.359  0.2153  0.0351 -0.3496
98671W        W41724  13.482  29.334   4.995 -0.2091 -0.1511 -0.1407
98672W        W41725  26.577   2.135   5.039  0.2027 -0.0265 -0.0443
98673W        W41726  19.931   8.655  10.298  0.0972 -0.0944  0.2000
98674W        W41727   1.621  14.037   7.444 -0.1945 -0.0809  0.1041
98675W        W41728  10.728  13.829   1.072 -0.1112  0.4612 -0.0820
98676W        W41729   4.399  19.369   4.566  0.1233  0.1125 -0.2836
98677W        W41730  22.862  33.656   6.003 -0.1534 -0.1226 -0.0005
98678W        W41731  21.839   8.850   6.180 -0.2312  0.0755 -0.2475
98679W        W41732   4.478   7.618  29.149 -0.0398 -0.1159 -0.1068
98680W        W41733   6.822   2.599   8.275 -0.2347 -0.1571  0.2261
98681W        W41734  12.611   6.612   8.254  0.0030  0.0971  0.0420
98682W        W41735  15.917  22.039   8.925  0.0365 -0.0978  0.0938
98683W        W41736  10.134   9.857   7.661  0.0378  0.0395  0.1287
98684W        W41737  18.404  25.389   3.226  0.3205  0.3242 -0.1683
98685W        W41738  15.080  17.284   1.830  0.0270 -0.0181 -0.0717
98686W        W41739  15.721  12.177   3.734  0.1528 -0.2438 -0.1004
98687W        W41740  20.388   1.967  24.952  0.0317  0.0646  0.0210
98688W        W41741  24.201  32.851  10.384  0.0267  0.0842  0.2659
98689W        W41742  19.874   1.304   9.544  0.2197 -0.3192  0.1606
98690W        W41743  16.982  13.814   3.057  0.0003  0.0918 -0.0199
98691W        W41744  18.444  16.154   4.536  0.1835 -0.0325 -0.1712
98692W        W41745  12.308   8.669  28.706 -0.2080 -0.0078 -0.0288
98693W        W41746  31.453   1.370   2.797 -0.0313  0.0782  0.3557
98694W        W41747   1.722  17.626   5.774 -0.1436 -0.0093  0.0689
98695W        W41748  11.896  14.076  27.654  0.2048  0.2014  0.1981
98696W        W41749  16.645   8.750   4.998  0.1213  0.0210 -0.2040
98697W        W41750  23.234  33.688   8.948  0.1934  0.2362  0.0925
98698W        W41751  13.297  32.836  28.436  0.0605  0.0505 -0.2501
98699W        W41752  13.776   8.811   9.479  0.2410  0.0266  0.3493
98700W        W41753  19.015   2.732   7.814  0.3216  0.1631  0.1730
98701W        W41754  16.916  32.527   5.924  0.0351  0.1887  0.0174
98702W        W41755   2.918   7.501   1.803  0.0955 -0.0675 -0.5168
98703W        W41756  25.586  28.814   4.132 -0.3455  0.0326 -0.0364
98704W        W41757   6.024  14.667   9.761 -0.3370  0.0545  0.3972
98705W        W41758  16.864  20.991   5.060  0.0664 -0.0576  0.0015
98706W        W41759  18.664   2.210   5.924  0.3437 -0.5690  0.2006
98707W        W41760  21.905  32.140   7.187  0.2072 -0.2203 -0.1215
98708W        W41761  15.287  15.789   4.438 -0.2853 -0.1842 -0.1047
98709W        W41762  26.180  32.070  18.691  0.1714 -0.2526  0.1742
98710W        W41763  28.523   0.320   3.270 -0.2015  0.4036  0.1219
98711W        W41764  10.487  30.468  24.846  0.1880  0.0848  0.0634
98712W        W41765  25.519  30.321  29.070 -0.2646  0.1642 -0.0505
98713W        W41766   7.747  31.673  22.932 -0.0925  0.2942  0.2018
98714W        W41767  14.160   0.105   9.992  0.2816 -0.0041 -0.0944
98715W        W41768   7.535  14.699   9.268 -0.1762 -0.0404 -0.2657
98716W        W41769  14.053  25.701   0.943  0.1226  0.0836  0.1468
98717W        W41770  29.490  19.184   5.546  0.2574  0.1555  0.2649
98718W        W41771  20.721  32.033  10.992 -0.6725  0.4431  0.1968
98719W        W41772   8.709  30.479   3.378  0.1527  0.0237 -0.2755
98720W        W41773  12.705  10.307   5.608  0.0202  0.1828  0.1093
98721W        W41774   8.732  27.321  22.024 -0.3482  0.1025 -0.1611
98722W        W41775  14.329   4.273  24.990  0.2221 -0.2041  0.0289
98723W        W41776  21.654  27.184   6.243  0.0598 -0.0365  0.0706
98724W        W41777  21.739   6.481  28.680  0.0072  0.0288 -0.0432
98725W        W41778   4.171  27.116  15.055 -0.2333 -0.2338  0.0393
98726W        W41779  30.227   8.070  28.442  0.1257 -0.3403  0.5561
98727W        W41780   9.227   9.368   1.139  0.0163  0.1038  0.0234
98728W        W41781  27.370  16.970  16.641  0.1822 -0.0590  0.2682
98729W        W41782  27.505  20.892   3.229 -0.3592  0.1690  0.1342
98730W        W41783  19.234   3.521  20.698 -0.2435 -0.2205 -0.0747
98731W        W41784  10.953  14.149   9.292 -0.1460 -0.3697  0.3320
98732W        W41785  27.724   7.622   2.700 -0.0219 -0.2853  0.0647
98733W        W41786  23.286  27.491   0.017  0.2795  0.3016 -0.2879
98734W        W41787  18.727  32.652  10.869  0.2468 -0.0382  0.2914
98735W        W41788  10.335   2.140   6.320  0.1658 -0.0691 -0.0911
98736W        W41789  11.772  33.645   5.530  0.1762  0.0424  0.1927
98737W        W41790  24.889  30.821  25.234  0.0033 -0.1118 -0.0724
98738W        W41791   4.045   9.180  28.463 -0.1132 -0.3048 -0.0307
98739W        W41792  18.067  20.520   4.998 -0.0763  0.1427  0.1042
98740W        W41793  18.492   7.117   4.009  0.0249 -0.2059  0.1493
98741W        W41794  21.072  30.048   2.242  0.0322  0.0017 -0.1506
98742W        W41795  20.145   4.405   0.963 -0.1407 -0.0624  0.0629
98743W        W41796  32.878   0.942  28.356  0.1487 -0.1201 -0.1272
98744W        W41797  25.028  25.788  26.004  0.0485 -0.1987 -0.0687
98745W        W41798  27.791  25.819   5.480 -0.0650  0.1029  0.2684
98746W        W41799  17.715  11.685  27.004 -0.1955 -0.0113  0.2363
98747W        W41800  14.065  15.434   6.365  0.1449  0.1829  0.1637
98748W        W41801  12.054  11.968  27.340  0.0892 -0.1996  0.1930
98749W        W41802  11.141   1.337   6.230  0.0543 -0.0779  0.1084
98750W        W41803  14.243   9.553   1.750 -0.0539 -0.1055  0.0398
98751W        W41804   6.010  16.222  25.100  0.2879  0.0591  0.2993
98752W        W41805  29.700   7.322  24.493 -0.0256  0.2775 -0.0230
98753W        W41806   9.555   4.501   2.116  0.1055  0.0162 -0.0760
98754W        W41807  18.275   6.653  27.112  0.0680 -0.2400 -0.0343
98755W        W41808   5.166   1.753   6.778  0.1991 -0.0268 -0.0519
98756W        W41809  33.633  26.327   5.957  0.0125  0.0115 -0.1502
98757W        W41810   8.986  33.878   5.985 -0.2490 -0.2931 -0.1870
98758W        W41811  25.837   7.150  22.543 -0.0887  0.0040 -0.0240
98759W        W41812   7.764  26.093   0.646 -0.1009  0.0073  0.1476
98760W        W41813   9.061   7.704   1.066  0.1005 -0.1749  0.1113
98761W        W41814   1.798  10.564  28.693  0.1550  0.1164 -0.2082
98762W        W41815  19.481  11.617  22.868  0.1012 -0.1880 -0.0846
98763W        W41816  27.905  25.946  24.383 -0.2372  0.0739  0.0602
98764W        W41817   8.856  15.991   1.498 -0.1536  0.0273  0.1503
98765W        W41818  14.603   5.862   5.544  0.1885 -0.0301 -0.1150
98766W        W41819  19.422  26.202   4.326  0.0747 -0.1001 -0.0924
98767W        W41820  12.074  34.143   5.728 -0.1265 -0.0130  0.1179
98768W        W41821   8.499  31.496   5.093 -0.0212  0.1292 -0.0433
98769W        W41822  12.625   6.795   3.149 -0.1883  0.1862 -0.0511
98770W        W41823  32.605  34.072   4.347 -0.2641  0.0294  0.5093
98771W        W41824  15.430  26.712  24.433 -0.0875 -0.3070 -0.0642
98772W        W41825  23.704   8.552   2.036 -0.1672  0.0459  0.0895
98773W        W41826  19.582  27.708   2.160  0.1742  0.1320 -0.0532
98774W        W41827  13.296   2.123   6.597 -0.0556  0.1456 -0.0983
98775W        W41828  21.774  33.198  24.400  0.1149  0.2764  0.1081
98776W        W41829   9.650  29.182   0.082 -0.0259  0.1515 -0.3099
98777W        W41830   3.016   6.455  10.668 -0.1495 -0.0442 -0.3588
98778W        W41831   6.125   3.342  26.247 -0.1922  0.1397 -0.2859
98779W        W41832   0.891  25.261   5.590 -0.1194 -0.1604 -0.3814
98780W        W41833  11.085  25.402   2.571 -0.1330 -0.2638  0.2828
98781W        W41834  18.716  18.749  25.772 -0.2656  0.3007 -0.0798
98782W        W41835  24.291   2.317   0.038 -0.2726  0.2383 -0.1342
98783W        W41836  20.579   4.211   3.131  0.1228  0.2456  0.1128
98784W        W41837   2.950  25.784   0.438  0.3481  0.4029 -0.1617
98785W        W41838  20.716   5.102  18.075  0.0032 -0.2946  0.3290
98786W        W41839  21.052  19.921  19.932 -0.0692  0.0243 -0.1874
98787W        W41840  22.983   1.075   4.783  0.0377 -0.0414 -0.1336
98788W        W41841  15.607  30.951   3.253  0.0665  0.0133  0.0858
98789W        W41842  25.750   2.655   6.722  0.2391  0.0251  0.0721
98790W        W41843  19.710  13.863  25.608 -0.0967 -0.1083 -0.0500
98791W        W41844  20.579  28.912   6.888  0.0674  0.3048  0.0445
98792W        W41845  12.754  14.242   2.189  0.3290  0.0341  0.1143
98793W        W41846  14.737   1.813   5.526  0.1511  0.0067 -0.3021
98794W        W41847  29.381  25.996   4.768 -0.0482 -0.1545 -0.2351
98795W        W41848  10.315  11.474   0.378  0.1029 -0.0232  0.0592
98796W        W41849  30.719   5.978   9.639 -0.2037 -0.1265  0.1942
98797W        W41850  20.644   3.359   0.186  0.2208 -0.1114  0.0779
98798W        W41851  25.624   7.217   2.816  0.3043  0.5599  0.1419
98799W        W41852   4.776  13.116   7.804  0.1118  0.0659 -0.0708
98800W        W41853  18.303  27.822  22.448  0.1433  0.0912  0.0219
98801W        W41854  28.822  32.193  23.306  0.1517  0.1419  0.3248
98802W        W41855   8.942   8.814   9.222 -0.1153 -0.0535 -0.2635
98803W        W41856  15.287  33.289   1.808 -0.1832  0.1823  0.0673
98804W        W41857  23.000   3.708  27.570 -0.0506 -0.1897 -0.0478
98805W        W41858  31.464  27.093  26.417  0.1785  0.0475 -0.3386
98806W        W41859   9.451  25.368   9.358 -0.2694 -0.0575 -0.1686
98807W        W41860  15.208  16.206   8.288  0.2288  0.2210 -0.0368
98808W        W41861  11.896  25.947   6.980 -0.1084 -0.2344  0.1923
98809W        W41862  22.985   6.431   3.106 -0.3558  0.1202  0.0445
98810W        W41863  10.028   8.594   6.400  0.0401  0.2754  0.1265
98811W        W41864  26.300  30.006   8.023  0.1316  0.2096 -0.1458
98812W        W41865  22.754  24.207   6.855 -0.0260 -0.1072  0.1579
98813W        W41866  22.489   2.433  28.475  0.1633  0.0591 -0.0018
98814W        W41867  15.456   7.656  10.174  0.1074 -0.1167 -0.0718
98815W        W41868  27.699   0.017  24.857 -0.1900 -0.0176 -0.0863
98816W        W41869  13.354  18.370  18.369 -0.0358  0.2368 -0.0919
98817W        W41870   6.435  14.475   4.420  0.2683  0.0712 -0.0756
98818W        W41871   8.326   3.810   4.957  0.1117  0.1136  0.3851
98819W        W41872  23.054  29.434  21.612  0.2023 -0.0518  0.3277
98820W        W41873  27.512  20.741  23.864  0.1698  0.1880  0.1437
98821W        W41874   0.543   3.603   5.249  0.2762 -0.0856 -0.0117
98822W        W41875  19.581  31.524  22.742  0.1044  0.1863 -0.1247
98823W        W41876  14.374  19.094   3.053 -0.1179  0.3549 -0.1690
98824W        W41877  10.282  33.923  25.726  0.0662 -0.0095  0.2847
98825W        W41878   2.569  12.825   6.523 -0.0923  0.3128 -0.1287
98826W        W41879  29.092   3.549   7.772  0.2167 -0.0060 -0.1677
98827W        W41880  20.685   8.241   8.733 -0.0200  0.0780  0.0318
98828W        W41881  13.642   2.652   4.157 -0.0862 -0.0263  0.0156
98829W        W41882  17.381  31.653  19.585  0.0169 -0.1493  0.2827
98830W        W41883  21.118  31.558  10.270  0.1413  0.0048 -0.1143
98831W        W41884  14.959   2.547   8.221 -0.1362 -0.1286 -0.0654
98832W        W41885  22.663   7.358  27.059 -0.1582  0.1125  0.2691
98833W        W41886  27.764  29.949   1.816  0.2854  0.1778  0.1097
98834W        W41887  13.426  28.485   9.503  0.2796  0.2553  0.0798
98835W        W41888   6.041  20.629   5.118 -0.2121 -0.0863  0.1041
98836W        W41889  21.900  10.663   3.467 -0.2349 -0.1459  0.1379
98837W        W41890  19.082  12.084   7.468 -0.0979 -0.1347  0.3087
98838W        W41891  17.301  25.944  28.214 -0.1024  0.0079  0.0548
98839W        W41892  25.228  33.191   3.739  0.0024  0.2186 -0.1339
98840W        W41893  18.058  27.011   3.881  0.2146 -0.0647  0.0618
98841W        W41894  27.943  26.016   6.994 -0.2043  0.1242  0.0240
98842W        W41895  16.493   8.886  10.058  0.0373  0.2253  0.0285
98843W        W41896  32.564   8.712  15.141  0.0373 -0.0747 -0.2224
98844W        W41897  20.546  26.392  28.474 -0.2813 -0.1694  0.0437
98845W        W41898  17.945  15.194   7.400  0.1406  0.0608  0.2050
98846W        W41899   8.254  23.204   6.956 -0.0642 -0.0786 -0.0356
98847W        W41900   6.754  29.751  26.675  0.0606 -0.1257 -0.1346
98848W        W41901  17.859   2.245   2.561 -0.0796  0.2505  0.0444
98849W        W41902   2.860  11.228  14.921 -0.2153 -0.1806 -0.1872
98850W        W41903  12.601  34.594   3.268 -0.1008  0.1689  0.2055
98851W        W41904  17.256  18.169   8.819  0.2088 -0.0012  0.1905
98852W        W41905  20.513   7.552   2.367 -0.2168  0.0934  0.1000
98853W        W41906  21.391  25.207   9.017 -0.1524  0.1566  0.0501
98854W        W41907  21.998  10.689   2.386  0.1520 -0.2469 -0.4943
98855W        W41908   5.646   5.812  10.363  0.3054  0.3035  0.0478
98856W        W41909  22.071   6.526   4.391  0.0510  0.2098  0.3864
98857W        W41910  33.862  32.999  24.912  0.1319  0.4574 -0.0217
98858W        W41911  18.017   7.591   4.939 -0.0539  0.2163 -0.1790
98859W        W41912  23.849  32.297   9.005  0.0975  0.0597  0.0357
98860W        W41913  20.210  19.989   1.139  0.2322 -0.1033 -0.0992
98861W        W41914   9.846  12.977  25.977 -0.1569 -0.0401 -0.1064
98862W        W41915  20.787  32.293   4.228 -0.2250  0.2146  0.2462
98863W        W41916   3.930  31.640   3.607  0.0792  0.1835 -0.2688
98864W        W41917  28.329   3.178   4.050  0.1793 -0.3107 -0.0631
98865W        W41918  16.945  17.182   7.973  0.1618 -0.1367  0.0149
98866W        W41919  13.634  12.437  26.071  0.1546 -0.0427 -0.1532
98867W        W41920  14.760   7.017   7.692  0.1286  0.0651  0.2562
98868W        W41921   1.027  33.349   6.767  0.0129 -0.2414  0.2166
98869W        W41922  14.406  27.089   2.425  0.1936  0.2146 -0.0248
98870W        W41923  17.886  27.888   6.412  0.1659  0.3247 -0.0215
98871W        W41924  17.172  13.073   7.199 -0.2318  0.2911 -0.0372
98872W        W41925  28.358  20.007   9.923  0.0258 -0.0239 -0.0705
98873W        W41926   6.381  29.277   3.878  0.2175  0.2372  0.1929
98874W        W41927  25.110  31.375  28.302 -0.1407 -0.1140  0.1080
98875W        W41928  12.186   0.174  22.906 -0.0910  0.0408  0.0004
98876W        W41929  19.517  12.217   3.812  0.0522 -0.0202 -0.3422
98877W        W41930  10.297  31.915  29.191 -0.5217 -0.0507 -0.0789
98878W        W41931  25.184  20.917   2.947  0.3256  0.1090 -0.1261
98879W        W41932  27.378   8.206   3.471  0.2544  0.3076  0.1377
98880W        W41933   6.768  32.572   3.818 -0.1586  0.0049  0.0906
98881W        W41934   1.033  16.193  24.499  0.1860 -0.0842 -0.5478
98882W        W41935  11.717  11.849  25.457  0.0885  0.3277  0.0382
98883W        W41936  31.239  14.412   1.817  0.0983 -0.0381 -0.0109
98884W        W41937  26.093  17.539   6.509 -0.1438  0.1162 -0.0209
98885W        W41938  16.483  31.655   6.351 -0.0957 -0.3568  0.1166
98886W        W41939  15.794  29.356   3.681  0.2742  0.1593  0.1532
98887W        W41940  34.510  19.465   9.091 -0.1220  0.3008 -0.0325
98888W        W41941  25.316  26.402   6.475  0.3506  0.2117  0.2244
98889W        W41942  18.070   9.783  27.528 -0.0104  0.2887  0.0668
98890W        W41943  26.521   2.629  24.582  0.0399 -0.0578  0.0079
98891W        W41944  14.071  29.779   4.444  0.0854 -0.1720 -0.0255
98892W        W41945  13.063  27.863  21.323  0.3620 -0.0527 -0.1443
98893W        W41946  13.379  26.957   7.377  0.3325  0.0225  0.2617
98894W        W41947   3.947   8.912   3.731  0.0514  0.1558  0.1000
98895W        W41948  21.491   0.241   7.376  0.0435 -0.4179 -0.1159
98896W        W41949  12.791   6.358  23.767 -0.0316  0.1061  0.1118
98897W        W41950   8.489  31.021   6.369 -0.1195 -0.1961 -0.3167
98898W        W41951  12.523  32.320   5.215 -0.1306  0.0254  0.0219
98899W        W41952  14.080  12.099  11.104  0.1111 -0.2713  0.0054
98900W        W41953  17.503   2.050   6.792  0.0191  0.0048  0.2133
98901W        W41954  12.289   0.387   9.836  0.4588 -0.0864  0.3809
98902W        W41955  14.259   0.518   9.574  0.0871  0.2032  0.2620
98903W        W41956  18.257  25.340   4.118 -0.0905 -0.4104  0.1400
98904W        W41957  23.593  31.659   5.462  0.2399  0.1388 -0.0035
98905W        W41958  17.280  12.195   5.026  0.1639  0.1272  0.2889
98906W        W41959  29.305  30.973  28.625  0.1232  0.0286 -0.3122
98907W        W41960  27.583   4.583   0.783  0.2566 -0.0164 -0.3484
98908W        W41961  15.883   3.954   6.118 -0.2195 -0.1929 -0.1167
98909W        W41962  17.052  11.070   2.869  0.0505 -0.1713 -0.0017
98910W        W41963  18.766   2.760  10.306 -0.0938 -0.1477  0.1133
98911W        W41964  14.997   1.990  21.144  0.0746  0.0357 -0.0084
98912W        W41965  19.592  22.312  21.728  0.0465  0.1113 -0.3834
98913W        W41966  15.113   9.150  23.893 -0.0752 -0.0888  0.1849
98914W        W41967  16.941  12.257   6.759 -0.0480  0.0852 -0.2070
98915W        W41968  24.133  17.702  28.815 -0.2724  0.0447 -0.0246
98916W        W41969  31.256   0.140   6.465 -0.1135 -0.2540  0.0158
98917W        W41970  24.126  14.468   2.106 -0.1389 -0.0259  0.3460
98918W        W41971  18.681  25.614   5.346 -0.2038 -0.2399  0.0256
98919W        W41972  24.582  16.275   5.429 -0.1197 -0.0345  0.2293
98920W        W41973   4.381   8.421  27.249 -0.2066  0.0037  0.0825
98921W        W41974   2.471  15.538  25.233  0.0681 -0.0922 -0.0434
98922W        W41975  17.740   4.237   8.504  0.1554 -0.2743 -0.0325
98923W        W41976   9.641   7.063   7.978  0.1335 -0.1084 -0.2292
98924W        W41977  18.975  23.680   8.975  0.1476 -0.0072 -0.0796
98925W        W41978  10.071  31.808   3.545 -0.1425  0.0024 -0.1042
98926W        W41979  22.846  33.476   9.237  0.3105  0.3808  0.0175
98927W        W41980  13.031  18.632   5.722 -0.0149  0.0452  0.2743
98928W        W41981  17.449  13.421   7.386 -0.3061 -0.2505 -0.0062
98929W        W41982   1.701  27.545   4.459 -0.2327  0.1787  0.2717
98930W        W41983  33.101   3.562  25.457 -0.0452 -0.0162 -0.1032
98931W        W41984  19.690  15.812   1.510 -0.3121  0.0660 -0.0594
98932W        W41985  10.741  18.915  11.101 -0.1312  0.0514  0.2525
98933W        W41986   4.404  30.735   9.967  0.2088  0.1074 -0.0384
98934W        W41987  12.599  33.518   5.282  0.1238  0.2165  0.1478
98935W        W41988  23.067  31.383  26.271  0.6404  0.0318  0.1881
98936W        W41989  25.987   9.125   2.385  0.1935  0.0344 -0.3182
98937W        W41990  11.179   9.815  18.069  0.0967  0.0654  0.2440
98938W        W41991   9.327  26.948   7.087 -0.0160 -0.1557  0.2230
98939W        W41992  17.525   4.506   7.659  0.3273 -0.1091 -0.0758
98940W        W41993  23.797  22.061   3.333 -0.0724 -0.1832  0.0007
98941W        W41994  17.053  31.696   6.420  0.0152  0.0522  0.1955
98942W        W41995  21.315   9.157  27.191 -0.2996  0.0110  0.1475
98943W        W41996  26.595   0.191  28.650 -0.3970  0.0444 -0.1965
98944W        W41997   6.787  33.132   5.303 -0.0529 -0.0349  0.1606
98945W        W41998  24.529  32.773  28.264 -0.0814  0.1945  0.4128
98946W        W41999  26.801  27.359  15.915 -0.1164  0.0484  0.0309
98947W        W42000   2.745  21.841   1.997 -0.1488  0.0334 -0.1844
98948W        W42001  32.000  26.639  21.962 -0.0259  0.1470  0.0850
98949W        W42002  25.129   8.079   3.318 -0.0078  0.2891  0.1405
98950W        W42003  19.952   5.680  22.034 -0.2670  0.4249 -0.1859
98951W        W42004  20.964  28.413  24.892 -0.2746  0.2179  0.3578
98952W        W42005  23.333   3.820  26.585  0.1066  0.1141  0.0925
98953W        W42006  15.606   3.577   8.748  0.0124 -0.2565 -0.0092
98954W        W42007   6.845  11.960  27.498 -0.0125 -0.0724  0.2893
98955W        W42008  15.521  10.406   9.806 -0.0845  0.0955 -0.2773
98956W        W42009  28.419  32.459  16.156 -0.0873 -0.0884 -0.0510
98957W        W42010  20.105  27.638   4.054  0.1016 -0.0973  0.2681
98958W        W42011  29.527  33.055  25.404  0.1468 -0.0647 -0.4933
98959W        W42012  12.388   8.202   7.072 -0.0752 -0.1437  0.0405
98960W        W42013  33.253   2.267   4.199 -0.0543  0.4394 -0.2175
98961W        W42014  16.132  15.111  26.469  0.3145 -0.1056  0.1463
98962W        W42015   4.846   7.426  19.167 -0.2601  0.0288  0.2425
98963W        W42016  20.024  13.812   8.738  0.0916  0.0174 -0.0019
98964W        W42017  28.445   3.012  29.009 -0.1488 -0.2508  0.2609
98965W        W42018  20.925   3.340  25.187 -0.0598  0.0971  0.0699
98966W        W42019  17.235   7.560  27.986 -0.1083 -0.0205  0.1104
98967W        W42020  13.289   8.019   5.449 -0.2592  0.0355  0.0109
98968W        W42021   7.670   0.512   1.213 -0.2853  0.1372  0.2629
98969W        W42022  30.477   4.939   8.574  0.1704 -0.0927  0.3197
98970W        W42023   9.953  13.330   7.815 -0.1331  0.2539  0.0611
98971W        W42024  30.190  17.473  16.328  0.2351 -0.1677  0.0395
98972W        W42025  15.590  11.803   6.041  0.1872  0.1652  0.1615
98973W        W42026  12.595  33.857  27.285  0.0872  0.1545 -0.0663
98974W        W42027  19.444  12.302  24.412  0.0824 -0.1466 -0.0614
98975W        W42028  13.909  11.992  29.044 -0.0611  0.2933 -0.0300
98976W        W42029   9.389  26.072   3.603 -0.0956 -0.0599  0.2201
98977W        W42030   7.247   8.521   9.671 -0.2212  0.2349 -0.1448
98978W        W42031  25.297   9.476  18.597 -0.1659 -0.3620  0.2098
98979W        W42032  10.832   3.466  10.219 -0.2048 -0.3488 -0.2230
98980W        W42033  17.432   3.243   6.695  0.2966  0.0110 -0.1249
98981W        W42034  11.173  11.279   3.470 -0.2257  0.2208 -0.0811
98982W        W42035  31.120   6.794  25.152 -0.1628 -0.1806  0.2674
98983W        W42036  15.645   7.990   7.947 -0.0395  0.1238 -0.0170
98984W        W42037  30.390  32.692  26.036  0.1238 -0.1333  0.0697
98985W        W42038  14.803   0.849   2.653 -0.0051 -0.2301  0.0538
98986W        W42039   7.998   5.254   3.807 -0.0045  0.3377  0.2078
98987W        W42040  17.525  31.437  25.560  0.0225 -0.1656 -0.0842
98988W        W42041  30.607  18.838  26.118  0.1852  0.0578 -0.0885
98989W        W42042   7.364  22.895  23.439  0.1320 -0.0333 -0.2279
98990W        W42043  19.459   7.654  24.244 -0.1179 -0.2937  0.2700
98991W        W42044   7.293  33.497   3.555 -0.2523  0.3265 -0.2552
98992W        W42045  20.679   1.233  21.859  0.1935  0.1151 -0.0420
98993W        W42046   8.229   4.732   3.700  0.1929  0.1473 -0.3288
98994W        W42047  29.616  18.818   4.274  0.0007 -0.1344  0.1427
98995W        W42048  13.324  24.790  17.400 -0.0815 -0.0465  0.1790
98996W        W42049  19.804  19.395  14.012  0.0646 -0.1130 -0.1951
98997W        W42050  21.762   4.602   6.119  0.2301  0.1166 -0.0203
98998W        W42051   1.765  31.079   3.397  0.1951  0.0311 -0.1615
98999W        W42052  15.364   3.961  14.615 -0.0649  0.0118  0.2050
99000W        W42053  22.985  11.972   6.608 -0.2391  0.1179  0.0753
99001W        W42054  28.423  30.865   1.073 -0.3299 -0.0761 -0.1600
99002W        W42055  33.358   5.871   2.041  0.1040 -0.1117  0.1001
99003W        W42056  34.616  20.333  22.454 -0.1718  0.1954  0.1689
99004W        W42057  12.994  17.750   2.575 -0.0192  0.1918 -0.1198
99005W        W42058  11.421  13.773  15.544  0.0519  0.0914  0.3189
99006W        W42059  31.676  11.983  26.023  0.3844 -0.1274  0.2027
99007W        W42060  30.469  31.324  19.255  0.3089 -0.1787 -0.2539
99008W        W42061  26.939   0.742   4.470 -0.2254  0.2205  0.4140
99009W        W42062  11.823  31.841   9.739 -0.0666  0.0190  0.2583
99010W        W42063   2.111  28.601  16.816 -0.0451 -0.0989  0.2358
99011W        W42064   1.691  30.700  21.736  0.1092  0.1052 -0.1853
99012W        W42065  12.298  23.931   8.028  0.2706 -0.2577  0.2198
99013W        W42066  25.839  22.529  27.602  0.0368 -0.0855 -0.1348
99014W        W42067  22.683   3.133   5.192  0.2050  0.4881  0.1708
99015W        W42068  21.179   9.471   0.386  0.0944  0.0935 -0.3478
99016W        W42069  24.490  12.827  24.308  0.1741 -0.0831 -0.3505
99017W        W42070  15.568  33.446   5.145 -0.0554  0.3076  0.0744
99018W        W42071  22.265   9.365  26.990  0.2265 -0.0606 -0.0746
99019W        W42072  18.927   1.305   9.390  0.0252  0.0821  0.0202
99020W        W42073   9.286   5.158  18.344 -0.0773  0.1197  0.1983
99021W        W42074  20.978  31.578  20.682 -0.2093  0.0738 -0.1533
99022W        W42075  14.181  13.478   6.518  0.0469  0.1984 -0.2969
99023W        W42076  12.809  33.989   9.194  0.2410 -0.1432 -0.0506
99024W        W42077  16.189  12.205  28.419  0.1720 -0.2488  0.4335
99025W        W42078  22.989  32.911   0.214  0.0036 -0.0546 -0.2697
99026W        W42079   5.992   8.147   6.417  0.0317 -0.0358 -0.0265
99027W        W42080  13.617  13.941   7.933  0.4288 -0.1943 -0.0970
99028W        W42081  24.262   4.239  20.211  0.2866 -0.0281 -0.0018
99029W        W42082  13.427  22.612   3.556  0.0666  0.0832 -0.2348
99030W        W42083  19.994   9.970   8.985  0.3279  0.0648 -0.1810
99031W        W42084  33.292   9.181   5.600 -0.2705  0.0504  0.0925
99032W        W42085   7.878  32.411  21.466 -0.0396  0.1681  0.2091
99033W        W42086   2.500  12.782   4.289  0.1707  0.2066  0.0794
99034W        W42087  33.330  16.793   6.210 -0.2030 -0.0211 -0.2845
99035W        W42088  16.620  10.785   1.276 -0.0562  0.0349 -0.0340
99036W        W42089  19.674   7.321  27.241  0.0792  0.2697  0.0199
99037W        W42090  19.382  11.362  17.119 -0.1383  0.2172  0.0412
99038W        W42091  32.448  32.802  18.330 -0.2167  0.3572 -0.0778
99039W        W42092  15.722   4.184   0.836  0.0779  0.0951 -0.0105
99040W        W42093  21.408   1.246  18.621  0.0839 -0.1222 -0.1215
99041W        W42094  31.386   8.518   3.571 -0.1995  0.0848  0.0675
99042W        W42095  12.840  27.785   8.458 -0.0834  0.1815  0.0253
99043W        W42096  20.559   8.005   9.185  0.1552 -0.2664 -0.1320
99044W        W42097   6.779   0.527   8.033 -0.0110  0.0244  0.2464
99045W        W42098   8.110   1.918   4.493  0.0258  0.0721 -0.1511
99046W        W42099  28.764   5.262  25.669 -0.1649  0.3753  0.1927
99047W        W42100  17.391  32.151  23.553 -0.1121  0.1895  0.2299
99048W        W42101  11.911  28.875  29.163  0.0919  0.2256 -0.0931
99049W        W42102  13.894   4.461   5.534 -0.3742  0.1028 -0.3352
99050W        W42103   3.194   3.614   4.240  0.2427  0.2428 -0.3400
99051W        W42104   2.764   3.896  28.167 -0.3359  0.0014 -0.3694
99052W        W42105  17.533  25.310   7.322 -0.3148  0.2025  0.0494
99053W        W42106  10.103  21.966  20.917  0.0148 -0.1564 -0.0253
99054W        W42107  25.516   0.914  24.180 -0.1674  0.2545 -0.0607
99055W        W42108  27.389  11.236   5.214  0.1599  0.2751  0.3655
99056W        W42109   6.092  23.157  20.047  0.0836  0.2566 -0.0145
99057W        W42110   2.624  31.383  16.872  0.1097  0.0985  0.2369
99058W        W42111   8.221  20.929  21.461 -0.1396  0.3469 -0.0356
99059W        W42112  11.653   1.029  26.794  0.1558 -0.0466  0.0373
99060W        W42113  16.988   6.868   5.728 -0.1554 -0.0395  0.2285
99061W        W42114   2.500   9.144  20.087  0.1323 -0.0608  0.2139
99062W        W42115  27.082  15.510  20.319 -0.1959 -0.2623  0.0706
99063W        W42116  16.624   4.709   1.038 -0.1682 -0.0698 -0.1890
99064W        W42117  10.448  25.492   6.042  0.1108  0.1833 -0.0416
99065W        W42118  11.927   2.354  28.937 -0.0770 -0.0777 -0.2284
99066W        W42119  11.361   9.636   1.901 -0.1432 -0.2768  0.3063
99067W        W42120  11.750   8.477   1.062 -0.4240  0.1699  0.1496
99068W        W42121   6.643  34.225  15.992  0.1341  0.1347 -0.1117
99069W        W42122  29.609  11.369   4.963 -0.0806 -0.1253  0.1217
99070W        W42123   7.777   4.243  17.199  0.0229  0.2597  0.0623
99071W        W42124   8.648   5.520   1.706 -0.0371 -0.3771 -0.1029
99072W        W42125   0.930   1.042  17.399  0.1308  0.0182 -0.1347
99073W        W42126   2.179  11.486  24.411  0.1734  0.0598  0.0495
99074W        W42127   1.133  21.987  24.112  0.2890  0.1672  0.0214
99075W        W42128  14.871  26.309   0.948 -0.2680 -0.0509  0.1488
99076W        W42129  19.177   6.320  22.362  0.0254 -0.2607  0.1128
99077W        W42130  32.380  29.350   5.764 -0.0833  0.1991  0.0369
99078W        W42131   3.548   8.724   7.841 -0.1052 -0.1231  0.1044
99079W        W42132  17.394  25.389  19.819  0.4669  0.2552  0.2740
99080W        W42133  10.264   2.888  25.174  0.0983 -0.0072 -0.0304
99081W        W42134  24.705  25.397   8.321  0.3362  0.2488  0.0687
99082W        W42135  27.736  34.242  29.091  0.0610  0.1623  0.1499
99083W        W42136   8.800  17.942  16.152 -0.0202 -0.0468 -0.0562
99084W        W42137  16.917   3.880   1.494 -0.0806 -0.0591 -0.0788
99085W        W42138  19.298  23.616   0.677  0.1363  0.0546 -0.2675
99086W        W42139  26.708  30.630   0.334 -0.0447  0.1763  0.2168
99087W        W42140  25.152  14.786   4.530 -0.0578 -0.0045 -0.3051
99088W        W42141  27.082  11.101   5.669 -0.1517  0.3425  0.0561
99089W        W42142  25.457  28.430  24.564  0.3477 -0.1554 -0.3580
99090W        W42143  18.413   7.905  27.328  0.0052  0.0167  0.0814
99091W        W42144  32.195  19.495  13.758  0.1051  0.1901  0.3225
99092W        W42145   4.206   5.435  20.126 -0.1647 -0.1635 -0.0721
99093W        W42146  13.703   3.253   7.018  0.0012 -0.2558 -0.0634
99094W        W42147  16.224   2.066   7.477  0.5038 -0.2066  0.3730
99095W        W42148  20.123  21.771   3.562  0.0167  0.2846 -0.0853
99096W        W42149  16.525  18.817   4.986 -0.4890  0.2593 -0.1262
99097W        W42150  22.820  15.433   8.906 -0.3737 -0.1320 -0.1893
99098W        W42151   1.661   8.612  21.875 -0.2888 -0.0653 -0.1047
99099W        W42152  27.862  14.088   0.194  0.1210  0.0989 -0.0941
99100W        W42153  17.981  30.141   1.389 -0.1870 -0.1556  0.3286
99101W        W42154  20.410  33.580  26.186  0.4143 -0.1291 -0.1401
99102W        W42155  11.605  28.712   2.197 -0.0741 -0.1251  0.1576
99103W        W42156  26.892  24.951   7.209  0.1189  0.1349  0.4091
99104W        W42157  15.368   1.752   7.790  0.2882  0.3404  0.0922
99105W        W42158  15.338   7.487   7.390 -0.0408 -0.1629  0.2257
99106W        W42159  22.245  18.722  17.778  0.1954 -0.0397 -0.0076
99107W        W42160  21.479  27.471   3.133 -0.0286 -0.0362 -0.1953
99108W        W42161  11.255   8.958   9.355 -0.1009  0.2121 -0.0202
99109W        W42162  30.906  28.320   4.595  0.1694  0.0862  0.1824
99110W        W42163  20.377  26.835   6.959  0.1137  0.1765  0.2118
99111W        W42164  23.967  13.464  14.276 -0.0106  0.1930  0.0357
99112W        W42165  18.257  11.629  21.123  0.0832 -0.3378  0.0307
99113W        W42166  34.567  11.355   1.034  0.1797  0.0405  0.3569
99114W        W42167  24.550   8.736   2.371 -0.2347 -0.1673 -0.0698
99115W        W42168  21.015  30.375  25.161 -0.0577 -0.2045 -0.2408
99116W        W42169  19.138  26.828  10.893  0.1926  0.0398  0.0862
99117W        W42170  10.260  15.017   0.943  0.1619 -0.0830  0.1169
99118W        W42171   5.174  18.964   0.451  0.0897  0.1461 -0.1594
99119W        W42172   5.857  20.672  24.310 -0.0421  0.0229  0.0151
99120W        W42173  14.055   5.664  19.881  0.2043  0.0149  0.1942
99121W        W42174  11.193  26.061  23.311 -0.1646 -0.3137  0.3289
99122W        W42175  15.740  34.119  28.338 -0.2778  0.3293  0.0195
99123W        W42176   5.489  28.718  28.529  0.0115  0.0287 -0.0551
99124W        W42177  17.542  29.296  16.095  0.0525 -0.3284 -0.1516
99125W        W42178  19.379   9.478  20.772 -0.0111 -0.0938 -0.1272
99126W        W42179  20.908  20.295  25.968 -0.1940 -0.2063 -0.0497
99127W        W42180  10.937  28.294   7.715  0.4433 -0.1784  0.0191
99128W        W42181  26.540  17.755  17.710  0.0586  0.0264  0.0562
99129W        W42182  16.583  18.586   1.264 -0.0380  0.1363 -0.2368
99130W        W42183  21.153  29.546   3.337 -0.1147 -0.1851 -0.0741
99131W        W42184  15.466   2.300   9.208  0.2286  0.0085  0.2357
99132W        W42185   8.133  12.182   7.424  0.1673 -0.1233 -0.1311
99133W        W42186   9.912  21.116  26.439  0.1321  0.0200 -0.1022
99134W        W42187  18.120  33.186   5.873  0.1989  0.0985  0.1439
99135W        W42188  32.220  11.688   3.828  0.3552 -0.4570 -0.1296
99136W        W42189  16.560   3.600   2.049 -0.0335  0.1006  0.1960
99137W        W42190  20.629  10.223   9.150  0.1009  0.1177 -0.4289
99138W        W42191  10.957  20.774   5.446  0.1671 -0.0646 -0.1309
99139W        W42192   9.829  12.962  28.218 -0.3028  0.4324  0.1381
99140W        W42193  11.401   5.164  24.853  0.1599 -0.1308  0.4284
99141W        W42194  20.282   8.077  26.740  0.0534 -0.2047  0.0456
99142W        W42195  27.049   3.064  27.644  0.0491  0.1134  0.1501
99143W        W42196  18.868  16.468   3.703  0.4481  0.0744 -0.2457
99144W        W42197  17.779   7.669  28.097  0.0925  0.1964 -0.0676
99145W        W42198  17.248   5.483  28.907 -0.1752  0.0568  0.1345
99146W        W42199  10.416  26.335  16.065  0.4202 -0.1540  0.1168
99147W        W42200   7.412  11.788  19.025  0.2042 -0.0832  0.4553
99148W        W42201  12.992  33.550  20.841  0.1596 -0.1334 -0.1758
99149W        W42202  14.479   3.872  24.216 -0.1300 -0.1660  0.1872
99150W        W42203  23.653   6.717  27.487  0.0313  0.0953 -0.0417
99151W        W42204  19.778  31.781  28.756 -0.0655  0.2209 -0.0539
99152W        W42205  28.143   7.826   3.967  0.2670 -0.3514  0.2322
99153W        W42206  17.161  13.401  16.719 -0.3086 -0.0910 -0.0108
99154W        W42207  33.104  10.814  14.608  0.0988  0.0465  0.1127
99155W        W42208  18.877  22.458  23.065  0.3753 -0.0252 -0.0100
99156W        W42209  32.554   8.505   1.228  0.1703  0.0637 -0.1354
99157W        W42210   9.538  34.665   4.161 -0.2075 -0.1705  0.0347
99158W        W42211  16.137  31.242  21.910 -0.1249  0.0571  0.1285
99159W        W42212  18.081   2.840   8.294 -0.0246  0.4876 -0.1501
99160W        W42213  13.866  30.840   4.795 -0.1008  0.0905 -0.1779
99161W        W42214   7.606  15.146   0.921  0.0279 -0.1772 -0.1352
99162W        W42215  29.783  20.397  22.643  0.1677 -0.0430 -0.0808
99163W        W42216   8.170  11.449  17.424 -0.2910  0.1660 -0.1388
99164W        W42217  20.511   6.210  28.741  0.2511  0.1291 -0.2100
99165W        W42218   1.282  16.612   0.544 -0.1675 -0.2293 -0.4843
99166W        W42219  31.881  27.087   8.265  0.0237 -0.4228  0.2037
99167W        W42220  22.035  11.653  22.877  0.1868 -0.0197 -0.0337
99168W        W42221   7.904   0.575   1.678 -0.0760  0.0715  0.2236
99169W        W42222   3.341  19.454  24.224 -0.2201 -0.1859  0.0704
99170W        W42223  15.890  13.054  23.951 -0.1326  0.4842 -0.0747
99171W        W42224  23.833  13.182  17.834 -0.1988  0.0061 -0.3322
99172W        W42225  25.138   0.931  24.507  0.3163 -0.1035 -0.0108
99173W        W42226  25.264  11.070   8.485 -0.3249  0.0544  0.1217
99174W        W42227  27.952   6.540  18.330 -0.1060 -0.1128  0.1319
99175W        W42228   8.138   7.395   1.372  0.0762  0.2224  0.0376
99176W        W42229  29.984  29.761  27.551  0.1298 -0.0572  0.0633
99177W        W42230  19.185  13.340   0.763 -0.0571 -0.1636  0.0192
99178W        W42231  17.872  16.462  26.688  0.0481  0.1719 -0.2777
99179W        W42232  13.557   0.337  29.041 -0.1966 -0.3500 -0.0082
99180W        W42233   2.749   4.364  27.704 -0.0541 -0.4578 -0.1109
99181W        W42234  26.807   4.189  16.680 -0.0286 -0.0621 -0.1164
99182W        W42235  25.383  14.270   4.178  0.0980 -0.0940  0.4137
99183W        W42236  24.834   8.566   0.637  0.0179  0.1344 -0.0241
99184W        W42237   3.255  20.310   9.390  0.1020 -0.2914  0.0710
99185W        W42238  24.677   7.851  24.305 -0.2993 -0.0691 -0.0432
99186W        W42239  34.157  10.273  27.214  0.0075 -0.0131  0.0674
99187W        W42240  33.868  24.171  16.539  0.0157  0.0756 -0.0254
99188W        W42241  12.995  11.518  19.783 -0.0657  0.0838 -0.3640
99189W        W42242  31.408   2.798   0.286  0.0912  0.0218  0.0444
99190W        W42243  17.082  34.594   3.667  0.1000 -0.0749  0.0820
99191W        W42244  14.752   1.369   8.823 -0.1470 -0.3604 -0.2488
99192W        W42245  11.747   3.062  14.439  0.0410 -0.2376 -0.1959
99193W        W42246  21.113  27.352   6.256 -0.0129  0.1044 -0.3221
99194W        W42247  28.643  10.749  11.299 -0.3715 -0.1746 -0.0332
99195W        W42248   8.629  16.508   3.373  0.1276 -0.1187  0.1138
99196W        W42249   4.269   8.799  24.350  0.0649 -0.4198  0.1605
99197W        W42250  22.382  30.644  10.224  0.0771  0.2177 -0.2064
99198W        W42251  22.809  10.281  25.267  0.2753 -0.0574 -0.3875
99199W        W42252   5.633   1.724   2.118  0.0651  0.0480 -0.0621
99200W        W42253  12.525  33.434   9.990  0.0707  0.1238  0.3953
99201W        W42254  15.205   7.183   9.386  0.1522 -0.2925  0.0790
99202W        W42255  23.080  32.910  26.024 -0.0188 -0.1127 -0.3033
99203W        W42256  18.036  32.898   2.144  0.1223  0.1097 -0.0053
99204W        W42257  15.158  15.167   0.246  0.1839 -0.2584 -0.1669
99205W        W42258  27.610  34.329   3.043  0.2141  0.1892 -0.1922
99206W        W42259   2.015  17.628  27.276 -0.1873  0.0858 -0.1082
99207W        W42260  25.764  17.217  14.502  0.1558  0.0843  0.2423
99208W        W42261   1.024   4.328   8.867 -0.3892  0.0888  0.0001
99209W        W42262   9.599   4.243  26.665  0.3765 -0.0589  0.0758
99210W        W42263   6.079   9.191  10.208  0.1047 -0.0718  0.2395
99211W        W42264   7.339  11.914  20.274 -0.1951 -0.0417  0.0681
99212W        W42265  21.691  30.525   0.046  0.5559  0.1771  0.1289
99213W        W42266   7.284  30.873   5.365  0.1812  0.0927  0.2585
99214W        W42267   3.601  12.276  18.136 -0.3038 -0.1141  0.0341
99215W        W42268  29.482  13.081   4.507  0.0070 -0.1784  0.0854
99216W        W42269  14.101   4.665   8.508  0.2697 -0.2074  0.0145
99217W        W42270  27.567  16.336   2.171 -0.2433  0.2517 -0.2256
99218W        W42271   8.296  30.959  16.393 -0.1694  0.4011 -0.0908
99219W        W42272   9.452  11.011  23.523  0.0008  0.1387 -0.0160
99220W        W42273   7.436  22.793  27.943  0.3250 -0.3549 -0.1777
99221W        W42274  10.899  32.310   7.880 -0.2167  0.1760 -0.1260
99222W        W42275   9.779   9.751   5.458  0.1998 -0.2871 -0.1597
99223W        W42276  17.212   6.365   0.588 -0.0320 -0.1203 -0.4128
99224W        W42277   7.542  23.750  20.227  0.0229 -0.0413 -0.1110
99225W        W42278  16.572   6.604   5.323 -0.5726  0.0959  0.0938
99226W        W42279   3.874  22.688   4.101 -0.0240  0.1738  0.1823
99227W        W42280  15.174   3.400   3.768  0.1072 -0.0956  0.0522
99228W        W42281  20.528   9.679   3.329  0.1761  0.1259 -0.3288
99229W        W42282  22.777   6.314  24.947 -0.1505  0.2260 -0.1107
99230W        W42283  26.727  32.776  27.248  0.0051  0.0507  0.0770
99231W        W42284  14.076  19.995   4.477 -0.1657  0.1559 -0.0405
99232W        W42285  16.382  32.227   6.107  0.2127  0.0244  0.5863
99233W        W42286   3.688  33.235  27.237 -0.1364  0.2246 -0.0003
99234W        W42287  23.374   3.186  20.518 -0.0703  0.0851  0.1158
99235W        W42288  17.989  27.612   7.920  0.6458  0.2070  0.0638
99236W        W42289  15.890  34.554   0.502 -0.0148 -0.2793  0.1167
99237W        W42290  29.351   3.037  27.374  0.2275 -0.2260  0.1775
99238W        W42291   1.387   2.830  29.169 -0.2008  0.1883  0.0256
99239W        W42292  30.817  27.630   8.010 -0.2422 -0.2907  0.2759
99240W        W42293   1.960   9.780   9.578  0.0467  0.0958 -0.1527
99241W        W42294   5.475  31.518   1.211 -0.2443  0.0591  0.0292
99242W        W42295  23.849   7.560   8.311 -0.2705  0.2672 -0.1250
99243W        W42296  22.387   2.104   7.291 -0.0020 -0.0490 -0.0269
99244W        W42297  11.355   3.417  18.108  0.1846 -0.3578 -0.2523
99245W        W42298  15.681  27.053  17.175  0.2064  0.1994  0.0109
99246W        W42299   6.873  11.363  28.323  0.1378 -0.3571  0.0996
99247W        W42300  30.272   9.142   5.255 -0.1436  0.3824  0.2308
99248W        W42301  34.146   4.667  21.222 -0.0206  0.0421  0.2717
99249W        W42302  16.168  29.754  28.076 -0.3609  0.0265 -0.0464
99250W        W42303  30.960   6.541   1.532 -0.1028 -0.0735  0.0334
99251W        W42304  26.503   6.170  25.869  0.1393 -0.2731  0.0248
99252W        W42305  16.243   2.715   1.782 -0.2168 -0.1478  0.0399
99253W        W42306   7.292  32.718  19.923  0.0162  0.1069 -0.0786
99254W        W42307  12.471  14.651  10.334 -0.0683  0.0390 -0.0909
99255W        W42308  21.645  19.343  22.909  0.1595  0.1068  0.3250
99256W        W42309  15.951  12.712   4.383  0.0196 -0.0645 -0.1366
99257W        W42310  10.517   6.305   4.902  0.0576 -0.0002 -0.1601
99258W        W42311   9.119  21.975  17.661 -0.1718 -0.2081  0.0829
99259W        W42312  13.915  22.257   0.316 -0.1582  0.0376 -0.2880
99260W        W42313  33.383  18.638   5.645 -0.1014 -0.0408 -0.1696
99261W        W42314  26.355  24.524   3.506  0.1278 -0.2413 -0.2677
99262W        W42315  16.147   5.848  24.024  0.2403  0.3720 -0.1462
99263W        W42316  17.221  12.963  27.973 -0.0895 -0.0494 -0.2342
99264W        W42317  21.444  15.991  16.110  0.1769  0.1606 -0.0692
99265W        W42318  33.922  34.399   1.663  0.1341 -0.1567  0.0380
99266W        W42319  21.176  29.679  10.066 -0.0377  0.1143 -0.3353
99267W        W42320  14.671   8.776  26.720 -0.2658 -0.1021  0.0147
99268W        W42321  17.268  13.325  26.378 -0.2580  0.2184  0.3215
99269W        W42322  28.754  11.090   1.430  0.4764 -0.2125  0.3509
99270W        W42323  33.257  13.084  22.669  0.0825  0.1008 -0.3209
99271W        W42324   6.780   8.712  28.805  0.1165  0.0395 -0.3157
99272W        W42325  17.331   3.994   0.751  0.4063  0.1215  0.0373
99273W        W42326  14.399  12.431  11.346 -0.0621  0.0343 -0.0360
99274W        W42327  24.466  33.264  20.660 -0.2478 -0.1404  0.1869
99275W        W42328  18.567  13.569  22.843  0.1514 -0.2357 -0.0642
99276W        W42329   7.808  17.721   5.403  0.2492  0.2363  0.1525
99277W        W42330  27.870  31.512   4.064  0.0905 -0.0385  0.1767
99278W        W42331  17.257  28.875   8.787  0.0567  0.1685 -0.0966
99279W        W42332  15.982  12.115   6.163  0.0877  0.1407  0.0011
99280W        W42333  19.544  33.064  23.096 -0.0858  0.1440  0.0298
99281W        W42334  19.474   9.049   8.961  0.3464 -0.2212 -0.2871
99282W        W42335   3.106   1.168   5.224 -0.1023 -0.0946 -0.0640
99283W        W42336  10.165   5.919  28.239 -0.0064  0.0240  0.2029
99284W        W42337   3.161  22.630   0.572  0.0279 -0.1472 -0.2768
99285W        W42338  16.516  21.888  27.715  0.4475 -0.1662  0.1785
99286W        W42339  17.288   7.920  26.189 -0.0168 -0.0732 -0.2414
99287W        W42340   4.073  34.406  26.798  0.3310  0.0392  0.0598
99288W        W42341  11.016  29.651   3.290 -0.0974  0.1725 -0.1150
99289W        W42342  11.898  22.754   3.908 -0.1862 -0.0543  0.1196
99290W        W42343   8.442   8.193  17.212 -0.1670  0.3137 -0.3133
99291W        W42344  34.398   2.315  26.671 -0.2819 -0.0824  0.1516
99292W        W42345  10.976  27.589   3.115  0.1303 -0.1153  0.1833
99293W        W42346  23.522  16.032   2.901  0.0728 -0.1524 -0.1690
99294W        W42347  15.207  12.503   3.982  0.0038 -0.1242  0.1593
99295W        W42348  28.934  32.292   3.963 -0.0457 -0.0490 -0.4552
99296W        W42349  16.757  18.696   8.106  0.0042  0.2487 -0.2627
99297W        W42350  21.631  27.713  20.466  0.1589 -0.1473 -0.0644
99298W        W42351  12.457  19.522   8.003 -0.1623  0.0357 -0.0763
99299W        W42352  19.521  25.177   3.180 -0.2446  0.3595 -0.0514
99300W        W42353  10.843  16.317  14.273  0.0653  0.1411  0.1129
99301W        W42354   8.955   5.200   0.297  0.2093  0.4817  0.1585
99302W        W42355  11.168  23.087  10.622 -0.3621  0.1507 -0.0739
99303W        W42356  30.147  26.394   8.346 -0.0420  0.1760  0.1662
99304W        W42357  25.888  12.719   9.071  0.1635 -0.1896  0.2325
99305W        W42358  22.829   6.435  19.137  0.2976 -0.0350  0.0941
99306W        W42359  12.013  21.712  17.886  0.2844  0.2664 -0.0565
99307W        W42360   9.267   8.244  26.075  0.0286 -0.2067 -0.0352
99308W        W42361  12.674   4.279  17.402 -0.1954  0.0536  0.2388
99309W        W42362  24.261   2.434  28.684 -0.0790  0.1348  0.1021
99310W        W42363  10.333  32.993   1.651 -0.3121  0.0648 -0.1383
99311W        W42364  19.087   8.791  27.515  0.0300  0.0962 -0.1397
99312W        W42365  22.896   9.067  15.342 -0.0195  0.0632  0.0699
99313W        W42366  15.509  14.283   5.358 -0.2465 -0.0106 -0.3153
99314W        W42367  29.373   7.012   3.047 -0.1859 -0.0803  0.0082
99315W        W42368  26.554   7.946  16.369 -0.1236  0.0555 -0.0172
99316W        W42369  13.205  33.938   3.525  0.0214  0.1327  0.4039
99317W        W42370  13.275   5.952   6.016 -0.1796  0.0527  0.1360
99318W        W42371  20.601  21.027  23.874  0.0753 -0.2541 -0.0589
99319W        W42372  12.742   9.344   9.378  0.1085  0.0618  0.2884
99320W        W42373  17.968   6.490   0.190  0.1433  0.2955  0.1129
99321W        W42374  10.643  21.824  27.803  0.1305 -0.2066  0.1810
99322W        W42375  28.269  28.870  28.849 -0.1056 -0.2497  0.3323
99323W        W42376  22.229  10.047  25.933 -0.1414  0.1416 -0.2535
99324W        W42377  24.851   3.066   3.863 -0.1838  0.1014 -0.1949
99325W        W42378   3.385   2.830   6.382 -0.0096  0.0542  0.1241
99326W        W42379  21.283  13.335  23.250  0.0975 -0.0827  0.0851
99327W        W42380  33.131   7.359   7.326 -0.1258 -0.0823 -0.3098
99328W        W42381   4.132  16.782   4.173 -0.1244 -0.1448 -0.0029
99329W        W42382  22.928  33.137   6.295  0.3735  0.2091  0.0610
99330W        W42383  20.786  19.631  26.485  0.1761 -0.3029 -0.3194
99331W        W42384  15.519   6.919   8.983 -0.1251  0.0773 -0.5839
99332W        W42385  15.924   0.025  26.180  0.0270  0.0880 -0.2540
99333W        W42386   9.437  28.652  20.652 -0.2726  0.0809  0.3889
99334W        W42387   8.482   3.342   7.623  0.0250 -0.0563 -0.1397
99335W        W42388   2.109  16.850  25.017  0.0394 -0.1217 -0.0818
99336W        W42389  27.975   8.121  22.300  0.1730 -0.1192  0.1833
99337W        W42390   4.041   1.515   0.678  0.1002 -0.0156 -0.1013
99338W        W42391  31.638  12.950   3.731  0.4051  0.2539 -0.2493
99339W        W42392  12.601   2.766   8.404 -0.1079  0.1819  0.0730
99340W        W42393  15.958  33.917   8.241  0.2024 -0.0578  0.1380
99341W        W42394  14.925  22.391  17.366 -0.1755 -0.3188 -0.1603
99342W        W42395  15.641   7.842   6.956  0.1592  0.2273  0.2012
99343W        W42396  22.501   5.881  24.931  0.1548 -0.0256 -0.2342
99344W        W42397  21.420   4.272   8.884 -0.0632 -0.0597  0.0158
99345W        W42398  22.817   6.873  26.267 -0.2685 -0.1929 -0.0847
99346W        W42399  20.885   5.355   9.311 -0.0811  0.3135 -0.1340
99347W        W42400   6.156   6.626   1.767 -0.1961  0.1612 -0.0824
99348W        W42401   2.696   6.353   8.270 -0.0710  0.1982  0.0825
99349W        W42402  16.916   4.919   9.091 -0.0491 -0.3184 -0.0948
99350W        W42403  15.594  21.716  28.198 -0.1391  0.1821  0.3469
99351W        W42404  16.421  22.141   4.062  0.2279 -0.3953  0.1639
99352W        W42405  16.360  13.237   0.631  0.1443  0.0924 -0.2012
99353W        W42406  14.184   9.836   4.333 -0.1564 -0.4044  0.3382
99354W        W42407   4.906   8.530   6.631  0.1336  0.2754 -0.1643
99355W        W42408  18.789  14.975   4.036  0.2988 -0.2587 -0.2801
99356W        W42409   8.908  17.617   7.620  0.0006 -0.1871 -0.0041
99357W        W42410   8.177   9.093   4.828 -0.3107 -0.1050  0.3919
99358W        W42411  16.400  33.708  24.592  0.5795  0.3430 -0.0796
99359W        W42412  22.781  28.310   5.560  0.2005  0.2171 -0.4678
99360W        W42413   9.175  20.011  22.373  0.3507 -0.0043  0.0566
99361W        W42414  21.790  15.212   6.461  0.2011 -0.0683 -0.0056
99362W        W42415   6.143  12.253  27.345 -0.0867 -0.1400  0.3669
99363W        W42416   2.322  17.976   3.850 -0.0583  0.0934  0.1569
99364W        W42417  20.647   7.086   7.311  0.1364 -0.0347  0.2984
99365W        W42418  20.695   0.189  27.496 -0.2577  0.1011 -0.4791
99366W        W42419  28.027   6.529   4.658 -0.0949  0.0784  0.0326
99367W        W42420  26.094  28.440  14.955 -0.2380  0.1478 -0.1415
99368W        W42421  17.779   5.824   5.995  0.1101  0.0897  0.3370
99369W        W42422   8.997  34.109  27.949 -0.0179 -0.1238 -0.1589
99370W        W42423  26.768  32.448   0.527  0.1154 -0.0396 -0.3111
99371W        W42424   9.207   9.058  22.540 -0.1706  0.0665  0.1917
99372W        W42425  13.631   6.775   0.973  0.2095 -0.0566 -0.0138
99373W        W42426  17.750   5.755   4.999 -0.1603  0.1408 -0.0823
99374W        W42427  16.222   3.002  19.912  0.0134  0.0715 -0.0180
99375W        W42428   2.068   3.462   5.480  0.0307  0.2346  0.0726
99376W        W42429   7.691  12.771   7.671 -0.0663 -0.1361  0.0758
99377W        W42430  26.093  18.696  25.038 -0.0020 -0.0633 -0.1919
99378W        W42431  26.333   9.014  19.101  0.0196  0.1457 -0.1803
99379W        W42432  26.899  22.982   2.958 -0.1042  0.2255 -0.0695
99380W        W42433  17.025   3.267  28.739  0.2623  0.3847  0.2736
99381W        W42434  16.715  15.566   9.266  0.1892 -0.0793  0.2491
99382W        W42435  23.033   7.393   5.002 -0.0042 -0.1941  0.2008
99383W        W42436  11.912   6.538   5.582  0.1757  0.0953 -0.1124
99384W        W42437  12.880  10.474   3.548 -0.2463 -0.2195  0.2858
99385W        W42438   4.315  11.576  21.600 -0.3888  0.2813  0.1132
99386W        W42439  11.550  30.357  28.084 -0.2087 -0.1047  0.0277
99387W        W42440  19.128  19.516   4.816 -0.1017  0.2063 -0.0426
99388W        W42441   7.548  10.013  16.646  0.0519 -0.0064  0.1853
99389W        W42442  27.325   4.916  16.686  0.1966  0.1117  0.2461
99390W        W42443  13.085   3.769  28.713  0.1105  0.1850 -0.0982
99391W        W42444   8.982  32.536  22.383 -0.1628 -0.4192  0.0047
99392W        W42445  16.859   9.531  19.144 -0.0663  0.0398  0.2963
99393W        W42446  16.225  24.219  23.484 -0.5240 -0.1734  0.1625
99394W        W42447  14.110   2.327   9.633  0.1211  0.0125 -0.2688
99395W        W42448  27.368  33.178  27.522  0.2255 -0.2837 -0.5953
99396W        W42449  11.853  21.810  27.606  0.0303  0.3444 -0.0314
99397W        W42450   9.106  31.583   6.906 -0.0614 -0.0469  0.2123
99398W        W42451  15.301   5.966   5.338 -0.0666  0.1531 -0.1224
99399W        W42452  20.740  14.807  20.155 -0.0241  0.0451 -0.1108
99400W        W42453  20.257   2.096   8.044 -0.0163  0.0989  0.1352
99401W        W42454  26.034   7.458   9.795  0.0458  0.0725  0.0844
99402W        W42455   9.979  33.592   1.481 -0.0694  0.1468 -0.0486
99403W        W42456   5.124  33.577   4.388 -0.2839  0.0476 -0.0095
99404W        W42457  15.581  34.049  24.594  0.0122  0.1201  0.3733
99405W        W42458  18.366  31.776   0.514 -0.0859  0.1532  0.1789
99406W        W42459  29.949   3.662  25.845  0.2050 -0.0927 -0.2101
99407W        W42460  16.034   3.763  17.375 -0.0353 -0.1388 -0.3519
99408W        W42461  21.890  27.116  26.892  0.0076 -0.2026  0.0451
99409W        W42462  12.105  18.701  29.177  0.0509 -0.1728 -0.2372
99410W        W42463  20.295  23.142   3.864 -0.0053  0.0021  0.2459
99411W        W42464   2.081   5.027   9.378  0.1586 -0.3112 -0.0313
99412W        W42465  22.655  29.126   6.542 -0.1585 -0.4049 -0.1043
99413W        W42466  26.860   8.915   2.917 -0.0788  0.2126  0.1270
99414W        W42467   4.490  32.663  27.071 -0.1696  0.2326 -0.1310
99415W        W42468   7.434   6.421  19.995 -0.1375 -0.0769 -0.1567
99416W        W42469  19.099  17.811  28.705 -0.0303  0.0076  0.0239
99417W        W42470  17.937   0.018   3.635  0.1243 -0.0497  0.1346
99418W        W42471  16.569  18.718  27.826 -0.0301 -0.0721  0.0899
99419W        W42472  13.435  11.627   4.690 -0.3028  0.1926  0.3872
99420W        W42473  11.726  11.909   5.812  0.0253 -0.1994 -0.1405
99421W        W42474  19.102  20.431   8.732  0.0630  0.0750  0.4078
99422W        W42475  13.399  31.194   0.370 -0.1169  0.0848 -0.0264
99423W        W42476   8.286  19.704   4.135  0.0993  0.0944  0.0595
99424W        W42477  16.198  13.592   0.956 -0.0305 -0.1149 -0.0954
99425W        W42478  16.677   2.368  25.375 -0.0144 -0.0419  0.0509
99426W        W42479   6.289  31.678   4.123  0.1506 -0.0313 -0.1655
99427W        W42480   9.210   2.332   0.904  0.2051 -0.0892  0.0600
99428W        W42481  22.346  31.690  16.600  0.2386 -0.0131  0.0046
99429W        W42482  18.409  15.059   0.535 -0.0593 -0.5106 -0.0792
99430W        W42483  13.018  22.482   5.849 -0.0402 -0.1231 -0.3770
99431W        W42484  13.064  11.679   6.497  0.3408  0.2710 -0.0694
99432W        W42485  16.050  31.139   7.522 -0.0598 -0.2295  0.1165
99433W        W42486  10.921   6.828   8.290 -0.0818  0.0353 -0.0274
99434W        W42487   9.541  24.247   8.848 -0.0236  0.1442  0.0296
99435W        W42488  18.950  12.453  25.426 -0.0858  0.1215  0.3691
99436W        W42489  12.715   9.843   2.983  0.1704  0.0481  0.2576
99437W        W42490  32.419  24.384  25.342 -0.0349 -0.4346 -0.0425
99438W        W42491  34.477   6.177  22.499  0.0873  0.1140 -0.0950
99439W        W42492  22.517   1.961   4.305  0.0239 -0.3735  0.0637
99440W        W42493  10.854   6.092   9.985  0.3614 -0.1092 -0.1018
99441W        W42494  21.280  12.744   7.079 -0.1999  0.0315  0.1226
99442W        W42495  12.677  28.164   0.074  0.0863  0.1591 -0.0275
99443W        W42496  24.697  31.941  18.097 -0.2401 -0.0284 -0.0218
99444W        W42497  19.828   5.015  16.551  0.0712  0.2332 -0.1158
99445W        W42498  22.955   1.736   6.635  0.0225  0.5623  0.0177
99446W        W42499  12.766   4.437   0.439 -0.2177 -0.2866 -0.0261
99447W        W42500  20.999   6.679   9.530  0.3173  0.0144 -0.0186
99448W        W42501  12.733  29.777  28.521  0.0875  0.1429 -0.1749
99449W        W42502  21.091   5.858   5.934  0.2588 -0.1971  0.1439
99450W        W42503  20.590  12.703   6.702 -0.0912  0.1018  0.3659
99451W        W42504   2.869  11.215   9.841 -0.2519  0.0939 -0.1112
99452W        W42505   7.936   3.038   3.029  0.2074 -0.2336 -0.0108
99453W        W42506   9.415   7.098   4.807 -0.5379  0.1834  0.1123
99454W        W42507  22.840  22.898   3.527  0.1298  0.0871  0.1001
99455W        W42508   0.692  11.547   7.302  0.2522 -0.2099 -0.0535
99456W        W42509   0.833  13.761   6.106  0.0485 -0.1467 -0.1158
99457W        W42510   3.500  19.949   9.549 -0.3910  0.0565 -0.0338
99458W        W42511  10.533   9.087  26.005 -0.5037 -0.0797 -0.0877
99459W        W42512   8.066  28.393  22.197  0.0059  0.3904  0.2115
99460W        W42513  12.999  31.885  17.979 -0.1423  0.2813  0.1753
99461W        W42514  24.821   8.990  29.068 -0.0877  0.1094  0.1954
99462W        W42515  19.443   4.004   7.973 -0.1146 -0.0331 -0.2542
99463W        W42516  23.585  25.125   6.049  0.0400  0.2869 -0.1443
99464W        W42517  21.675  26.300  24.726  0.3149 -0.0086  0.0320
99465W        W42518  32.114  27.802  25.388 -0.3686  0.1935  0.1123
99466W        W42519   9.702   6.549   4.847  0.1665  0.1527  0.2319
99467W        W42520   2.565  15.330  15.390 -0.1254 -0.1077  0.1541
99468W        W42521  21.581  21.620  27.172 -0.1413  0.3741  0.0858
99469W        W42522  18.523   3.431  15.356  0.1673  0.2117  0.1824
99470W        W42523  14.425  34.301   4.976 -0.0602  0.1048 -0.0427
99471W        W42524   8.095  28.693  15.456 -0.1212 -0.0285  0.0683
99472W        W42525  15.179  19.469  26.407  0.0580 -0.2926  0.1718
99473W        W42526  24.107  11.339  29.132 -0.0256 -0.1720  0.0474
99474W        W42527  19.559   2.701   7.836 -0.2119 -0.0448 -0.1933
99475W        W42528  10.445  28.780   0.435  0.2292  0.0030 -0.0605
99476W        W42529  21.231  32.609   0.987 -0.0843 -0.2202 -0.1448
99477W        W42530  14.076  34.644   1.737 -0.0363 -0.0627  0.0890
99478W        W42531  13.826   4.549   4.479 -0.0351  0.2387 -0.3056
99479W        W42532  32.104   8.662   8.968 -0.0422  0.0988 -0.1964
99480W        W42533   0.663  12.636  19.341  0.0110 -0.0925  0.1238
99481W        W42534  31.214   2.457   4.778 -0.1567 -0.1621  0.0096
99482W        W42535  28.164  29.922  25.384 -0.3041 -0.2830 -0.0628
99483W        W42536   9.431   8.756  24.859  0.1410  0.0677  0.3878
99484W        W42537  24.701   5.269   0.252  0.2700 -0.0181  0.1969
99485W        W42538  27.187   3.529   7.523 -0.3759  0.1545 -0.1318
99486W        W42539  13.088   9.492   7.298 -0.1149  0.3457 -0.0946
99487W        W42540   5.118  23.534  14.079 -0.1941  0.0594  0.0555
99488W        W42541   6.461   6.977  19.460 -0.2613 -0.0097  0.0751
99489W        W42542   1.524  14.861   6.882 -0.0309  0.2133 -0.0670
99490W        W42543  23.218   1.571   4.961  0.0215 -0.3016 -0.1076
99491W        W42544  14.370   2.483   8.496 -0.1031 -0.3484 -0.2243
99492W        W42545  15.836  19.941  13.404 -0.1724 -0.0468  0.3430
99493W        W42546  10.450   1.184  28.521  0.0590  0.0526  0.1195
99494W        W42547  11.317  22.818   2.701  0.0887 -0.1598  0.0880
99495W        W42548   2.843  14.595   1.685 -0.0080 -0.1487 -0.0418
99496W        W42549   6.834  34.142  28.634  0.1389  0.2042  0.4461
99497W        W42550  20.163   1.599   3.783  0.1296 -0.1212 -0.1994
99498W        W42551  15.187  31.931   9.167  0.0126 -0.0958  0.1802
99499W        W42552  19.755  17.351   7.823  0.3682  0.1406 -0.0898
99500W        W42553  20.796   2.822   5.578  0.1222  0.3636  0.5690
99501W        W42554  28.166  33.208   7.588 -0.1613 -0.1506  0.2774
99502W        W42555  27.506  20.255  28.433 -0.0696  0.4147 -0.3355
99503W        W42556  26.563   0.731   8.898  0.0797  0.0640 -0.1752
99504W        W42557  22.883   8.490  24.853  0.2002 -0.1927 -0.1091
99505W        W42558  16.106  33.824   1.431 -0.1566 -0.2002 -0.0030
99506W        W42559  23.501  32.609  28.865 -0.2326 -0.1330  0.0907
99507W        W42560  25.542   9.770   0.828  0.1022 -0.1907 -0.0107
99508W        W42561  17.925  26.513   4.664 -0.2232  0.0498 -0.2907
99509W        W42562  21.176   7.438   3.004 -0.2217 -0.0224 -0.0617
99510W        W42563  22.189  20.991   0.840 -0.0051 -0.0924 -0.0548
99511W        W42564  24.462   7.037   5.820  0.3197 -0.2016  0.2391
99512W        W42565  14.134   1.285   4.305 -0.0572  0.1946  0.1138
99513W        W42566  31.545   5.269   7.285 -0.2880  0.0229 -0.1264
99514W        W42567  26.591  20.707  28.177 -0.1852 -0.3879  0.0958
99515W        W42568  21.539   5.495  16.594 -0.1549  0.0059 -0.1800
99516W        W42569  13.587   3.778   4.765 -0.0203 -0.0642  0.2176
99517W        W42570  23.486   8.419   8.412  0.1938  0.1602 -0.1679
99518W        W42571  34.001   7.058   9.748 -0.1573 -0.1996 -0.1416
99519W        W42572  18.743   6.846   0.963 -0.2979  0.0185 -0.1636
99520W        W42573  18.238  31.452   4.544  0.0417  0.0505  0.3500
99521W        W42574   7.179   6.150  19.294 -0.0839  0.0935  0.0444
99522W        W42575  23.197   2.674   5.262 -0.1292 -0.2538  0.1395
99523W        W42576  12.824  14.281  10.308 -0.4728  0.0812 -0.0322
99524W        W42577  13.281  14.099   9.382  0.0108 -0.2162  0.2429
99525W        W42578   6.814  13.704   8.430 -0.0914 -0.0739  0.2980
99526W        W42579  19.516  32.147   1.827  0.1586  0.0762  0.0420
99527W        W42580  22.313  23.021   3.191 -0.0788  0.0621 -0.1776
99528W        W42581  13.265  27.948   1.114  0.3348  0.1118  0.1367
99529W        W42582  23.976   4.466  20.842 -0.0788 -0.1890 -0.0477
99530W        W42583  21.101  29.566   5.088  0.5716 -0.2392 -0.3275
99531W        W42584   9.712  25.713  23.348  0.0126  0.5555  0.4666
99532W        W42585  11.772  17.435   6.267 -0.4627 -0.2125  0.2332
99533W        W42586  10.399   7.642  10.708 -0.0411  0.1743  0.0685
99534W        W42587  15.633  13.560  25.970  0.0446 -0.2443  0.2807
99535W        W42588  20.454   2.463   4.772 -0.0952 -0.1189  0.2642
99536W        W42589  14.245  17.768  21.683 -0.0918 -0.0488  0.3017
99537W        W42590  11.368   3.907   2.334  0.0084  0.0044  0.0497
99538W        W42591  18.955  18.454  24.187  0.0704  0.1012 -0.0676
99539W        W42592  30.775  30.926   1.032  0.0477  0.3794 -0.3544
99540W        W42593  10.574  15.295   6.267 -0.0903 -0.0506 -0.2320
99541W        W42594   0.494  34.126   1.098 -0.2059 -0.2282  0.1721
99542W        W42595  10.423  15.111   7.885 -0.0399  0.0301  0.1871
99543W        W42596  28.329  14.019   6.886 -0.1246  0.2065  0.3391
99544W        W42597  19.518   6.784   8.432 -0.1743 -0.1456 -0.2598
99545W        W42598  22.841  24.148   2.404 -0.0295  0.0778  0.0767
99546W        W42599  22.953   4.654  24.736 -0.0984 -0.1797  0.3903
99547W        W42600  17.525   1.474  16.794  0.0146 -0.0116 -0.2533
99548W        W42601   7.654  18.703   5.140  0.1458  0.1812 -0.2620
99549W        W42602  15.638  12.265   2.779  0.0883 -0.3733 -0.0786
99550W        W42603   7.663  10.979   9.613  0.1003  0.0168 -0.0381
99551W        W42604   8.816  33.365   9.725  0.0089  0.0212 -0.2195
99552W        W42605  13.099  10.420   8.345  0.4149 -0.0130  0.1533
99553W        W42606  12.595   2.690   6.767  0.1057  0.0969 -0.1195
99554W        W42607  18.986  32.960   7.453 -0.2313  0.1268  0.2936
99555W        W42608  12.941   4.943   9.945 -0.0531 -0.2603  0.1288
99556W        W42609  23.321  13.879  25.749  0.1593  0.1136 -0.1231
99557W        W42610  18.252   4.163   0.642 -0.1276 -0.0582  0.3998
99558W        W42611  23.518  10.940  17.904  0.3505  0.2546 -0.4576
99559W        W42612  17.171  30.212   7.456 -0.2108 -0.1311  0.1786
99560W        W42613  10.034  17.489   7.592 -0.0527 -0.0631  0.0892
99561W        W42614   8.949   0.889   8.067  0.1599  0.1417 -0.2820
99562W        W42615   9.571  19.409   9.097  0.0535 -0.1366  0.3806
99563W        W42616  18.669  31.146   9.934  0.1727  0.0859  0.0481
99564W        W42617  26.147   2.541   8.540  0.1165 -0.1406  0.0276
99565W        W42618  25.882   3.619   5.812 -0.2218  0.1747 -0.1302
99566W        W42619  17.428   5.558  24.632 -0.1339 -0.0242 -0.2575
99567W        W42620  19.894  25.106   9.918 -0.3452  0.1635  0.0083
99568W        W42621   3.043   6.080  26.017  0.0700  0.0518 -0.0851
99569W        W42622  11.121  23.044   4.221 -0.1391  0.0149  0.0038
99570W        W42623  21.246  16.449   2.208 -0.0788 -0.2213 -0.2392
99571W        W42624  19.171   5.864   7.437  0.5255  0.0808  0.0955
99572W        W42625  29.254   2.452  27.253  0.2242  0.2603 -0.0083
99573W        W42626   7.199  22.464  19.407  0.0616  0.0778  0.1398
99574W        W42627  22.552  15.990  28.025  0.0856 -0.0688 -0.0350
99575W        W42628  16.635  17.497   0.554  0.2071 -0.0401  0.2321
99576W        W42629  21.267   5.165   5.434 -0.1290 -0.2658  0.2348
99577W        W42630  25.148   0.109   8.325 -0.4251  0.1954 -0.4068
99578W        W42631  12.513  29.395   1.125  0.0661  0.0874 -0.2036
99579W        W42632   5.683   4.642  28.464 -0.2156  0.2735  0.3771
99580W        W42633  30.126  11.383  10.965 -0.1907 -0.2914  0.0969
99581W        W42634  23.923  29.607   2.881  0.0237 -0.2240 -0.2436
99582W        W42635  15.699  12.915   6.400  0.4503 -0.2551 -0.0402
99583W        W42636  21.642   2.048  18.292  0.2564  0.1847 -0.0736
99584W        W42637  26.651  31.897   7.529 -0.0866 -0.0514 -0.3578
99585W        W42638  15.049  10.987  29.183  0.1352  0.1013 -0.3004
99586W        W42639  19.010  28.024  26.614  0.0653 -0.4926 -0.1739
99587W        W42640   6.001   8.991   5.360  0.3168  0.0442  0.0822
99588W        W42641   5.078  17.710   5.725 -0.1701 -0.1019  0.0573
99589W        W42642  16.268  33.357  23.757  0.3013 -0.2053  0.1726
99590W        W42643   6.037   7.228   5.858 -0.0867 -0.0209 -0.1227
99591W        W42644  19.264   7.754   3.008  0.0607  0.0478 -0.1085
99592W        W42645   8.090  33.175  27.254 -0.2814  0.1052  0.0330
99593W        W42646   5.499  29.523  27.255  0.0967 -0.0989 -0.1424
99594W        W42647  14.001   5.402   1.857 -0.0517 -0.1792  0.2771
99595W        W42648  11.120  12.869   8.325  0.1413 -0.2432 -0.3462
99596W        W42649  23.590  21.910   0.627 -0.0702 -0.1469  0.0126
99597W        W42650   6.599   6.113   8.018  0.1434  0.1500 -0.0717
99598W        W42651   5.872   5.361   8.078 -0.1388 -0.1921  0.2190
99599W        W42652  19.998  12.230   6.342 -0.0649  0.3283 -0.0783
99600W        W42653  17.532  32.015   7.378  0.0110  0.2357 -0.0660
99601W        W42654  19.249   1.533   6.440  0.3453  0.0583  0.0455
99602W        W42655  19.031  31.779  23.300  0.1120  0.0805  0.2331
99603W        W42656   9.362   9.888  27.323 -0.0162  0.3881  0.1671
99604W        W42657  27.199  34.186   3.368  0.0447 -0.3568  0.1036
99605W        W42658  26.628  15.818   6.370 -0.1403 -0.0042 -0.0932
99606W        W42659  13.383   3.438  26.318 -0.1489  0.0477 -0.3854
99607W        W42660   9.672  28.136   5.943  0.1886 -0.3510 -0.1713
99608W        W42661  13.081   1.325   6.399  0.1046 -0.1024  0.3019
99609W        W42662   9.131   1.199  28.022  0.1456  0.2962 -0.0399
99610W        W42663  19.925  12.872  25.518 -0.1889 -0.0584  0.0931
99611W        W42664  16.152  26.614   7.203 -0.1907  0.4202  0.1950
99612W        W42665  13.452  22.245   9.511 -0.1732 -0.1995  0.0016
99613W        W42666  27.595  19.617   9.806 -0.0194 -0.0392 -0.1181
99614W        W42667  27.257   7.794   1.903  0.0584 -0.3363  0.3011
99615W        W42668  33.018   9.328   9.604  0.4072  0.1260 -0.0896
99616W        W42669  16.122  28.608   3.374 -0.1274  0.1125  0.1487
99617W        W42670  21.035   4.254   2.858  0.2423 -0.1901  0.2678
99618W        W42671   7.760  11.483  24.872  0.2415 -0.2631 -0.1198
99619W        W42672  20.958  20.018   6.461 -0.0613 -0.1140  0.0681
99620W        W42673  27.769   6.611  29.129 -0.0122  0.0018 -0.1789
99621W        W42674   8.360   4.581   5.424 -0.1078 -0.1517  0.1312
99622W        W42675  13.478   3.825  29.039  0.2544 -0.1818 -0.0276
99623W        W42676   8.203   3.469   2.969  0.0306  0.0450  0.0000
99624W        W42677  18.440  15.971  28.760  0.3813  0.0947 -0.0678
99625W        W42678   0.592  32.411  27.487 -0.2974  0.0862 -0.0322
99626W        W42679  18.340   8.338   7.940  0.1897 -0.2197  0.2794
99627W        W42680  22.505   9.378   7.966  0.1784 -0.2366  0.0752
99628W        W42681   4.066  16.150  28.406 -0.0260 -0.1085 -0.1314
99629W        W42682   9.037  32.806  27.267 -0.1434  0.1342  0.1832
99630W        W42683  21.509  29.629  24.252 -0.0937  0.0492  0.0130
99631W        W42684   5.516   4.056  26.168 -0.0816  0.2611 -0.0721
99632W        W42685  18.546   4.814  23.081 -0.3776  0.0626  0.2228
99633W        W42686  26.153  11.651  26.999 -0.2871  0.4424 -0.0711
99634W        W42687   8.724  22.088  26.898  0.0383  0.1409 -0.1913
99635W        W42688  19.992   5.757   2.368 -0.1000 -0.2026 -0.2471
99636W        W42689  20.932  29.340   1.126 -0.2347 -0.1229 -0.0240
99637W        W42690  14.572  10.012  25.463  0.1091 -0.1238 -0.2453
99638W        W42691   1.603  11.302  19.428 -0.1922  0.0237 -0.1540
99639W        W42692  27.031  21.575   1.224  0.0353 -0.1479  0.3589
99640W        W42693   6.793  32.649   8.486 -0.0100 -0.1191  0.2089
99641W        W42694  28.554  10.244   8.570 -0.4586 -0.2036 -0.3930
99642W        W42695  14.389  33.835   6.238 -0.2528 -0.5441  0.0956
99643W        W42696  27.467  28.762   6.393  0.0276 -0.0300 -0.4910
99644W        W42697  29.555  23.164  26.573  0.0574 -0.3606 -0.2575
99645W        W42698  23.215   5.731  20.176  0.0422  0.2140 -0.1026
99646W        W42699   5.353  11.239  26.184 -0.0170  0.2371 -0.0449
99647W        W42700  18.323   9.310   4.639  0.3592 -0.0754  0.0314
99648W        W42701  18.115  33.813  26.600  0.0904  0.2293 -0.0382
99649W        W42702  19.239   8.444   1.444 -0.1591  0.2114  0.0435
99650W        W42703  12.151   4.240   9.037  0.2177  0.1714 -0.0508
99651W        W42704  16.439   4.785  19.074  0.0052 -0.0336 -0.0152
99652W        W42705  32.550  33.666  14.551  0.2062 -0.1289  0.0582
99653W        W42706   4.670  16.882   6.106 -0.1813  0.2230  0.0973
99654W        W42707  23.083   7.447   6.268  0.3565 -0.0501 -0.0399
99655W        W42708   7.753  23.068   6.175  0.0087  0.2459  0.1967
99656W        W42709   6.492   1.875   7.059 -0.0340  0.1230  0.0856
99657W        W42710  16.242   3.964   1.735  0.1211  0.0807 -0.0858
99658W        W42711  25.082  27.377   4.746  0.0180 -0.0870  0.2260
99659W        W42712  19.249  13.939  19.310 -0.1978  0.2652  0.2176
99660W        W42713  15.849   5.149  25.554 -0.2311 -0.2034 -0.1344
99661W        W42714  29.719  29.281   7.283  0.0773 -0.0544  0.0470
99662W        W42715  13.187  16.485  13.700  0.1671 -0.1376 -0.2919
99663W        W42716   1.993   1.602   4.945 -0.2062  0.4433 -0.2603
99664W        W42717  27.512  29.567   0.317  0.1192  0.1252  0.4146
99665W        W42718  26.307  12.052  19.615  0.0102 -0.3750 -0.0226
99666W        W42719  26.199  22.074  26.206  0.1501 -0.1054 -0.0865
99667W        W42720  21.059  33.422   7.131 -0.0769 -0.1446  0.1912
99668W        W42721  32.034  15.595  23.453  0.1978 -0.0199 -0.1870
99669W        W42722   9.676   2.873   7.730 -0.0502 -0.1946 -0.2978
99670W        W42723   8.901   6.201  23.808 -0.0673 -0.2795  0.1187
99671W        W42724  23.844  14.189   8.947 -0.0976  0.2267  0.1213
99672W        W42725   8.095  17.740  18.076  0.2648 -0.4977 -0.0661
99673W        W42726  24.057  12.500  10.125  0.0104 -0.0396 -0.0860
99674W        W42727  28.389  18.535   8.967 -0.1298 -0.3362  0.1388
99675W        W42728  24.407   7.519  24.926 -0.3632 -0.2715 -0.0039
99676W        W42729   6.230   0.991  26.180 -0.0475 -0.1586  0.3584
99677W        W42730  27.762  15.249   4.026  0.2126 -0.0068 -0.3096
99678W        W42731  13.507  10.942   2.637  0.1525  0.2788  0.1987
99679W        W42732  11.846  28.747  25.085  0.0195  0.0698  0.0200
99680W        W42733  32.738   3.946  18.348 -0.2436  0.2304  0.0187
99681W        W42734  18.508   2.130  17.356 -0.2695  0.0696  0.3361
99682W        W42735  31.302  14.400  21.495  0.3073  0.2746 -0.1171
99683W        W42736  16.742  34.655  23.199 -0.0764  0.1217  0.2113
99684W        W42737  12.494  26.360   3.992 -0.1797 -0.1358 -0.0742
99685W        W42738  24.060   7.763   2.024 -0.2327  0.2978  0.1290
99686W        W42739  33.780  21.223   8.377  0.2823  0.2141  0.1952
99687W        W42740   2.291   1.517   5.573  0.1421 -0.0061 -0.1048
99688W        W42741  27.204  12.396  24.313  0.0395 -0.0456  0.3494
99689W        W42742   8.883   5.698   9.610  0.0731  0.0254 -0.0961
99690W        W42743  20.056   8.682  28.830  0.1310  0.0466 -0.1297
99691W        W42744  27.922  11.199   7.096 -0.1832  0.1692 -0.1509
99692W        W42745  26.242  29.337   0.266 -0.0189 -0.0426  0.2076
99693W        W42746   4.132  20.654   8.643  0.1384 -0.0367 -0.1075
99694W        W42747   1.883  30.584  24.718 -0.1881  0.2117 -0.1724
99695W        W42748  17.814  26.411  22.164 -0.0411 -0.1489 -0.2188
99696W        W42749   3.541   7.790   0.446 -0.1223  0.2671  0.1332
99697W        W42750  33.559  22.562   1.306  0.0205 -0.1392  0.2179
99698W        W42751  24.231  14.943   7.640 -0.0676 -0.0154 -0.0102
99699W        W42752   8.880   6.250   3.240  0.0963  0.2168 -0.2280
99700W        W42753  15.965   1.286  14.778 -0.1157  0.1272  0.1977
99701W        W42754  18.702   1.107  15.265 -0.0384  0.0342  0.0158
99702W        W42755   7.465  34.135   7.642 -0.1897 -0.3335 -0.0554
99703W        W42756  15.908   1.666  24.929 -0.0446  0.0716 -0.2002
99704W        W42757  16.856  20.824   9.041 -0.2536 -0.1420  0.3551
99705W        W42758   8.549  21.510   3.458 -0.1358  0.1865 -0.0883
99706W        W42759  19.932  19.848   0.730 -0.1529  0.2058  0.1495
99707W        W42760  17.665   2.780   3.774 -0.0245  0.0368  0.0607
99708W        W42761   6.114  16.442   0.299  0.1114 -0.2591 -0.1732
99709W        W42762   6.147   5.696   2.780  0.0701 -0.0323  0.2326
99710W        W42763  15.244  29.615  27.518 -0.0039 -0.1588 -0.0452
99711W        W42764  19.398  30.491  19.843  0.0326  0.1872  0.2252
99712W        W42765  16.140  34.389   3.951 -0.0317  0.1469 -0.0577
99713W        W42766   8.173  11.980   8.113 -0.0144 -0.1996 -0.2208
99714W        W42767  12.742   5.028   5.610 -0.3260  0.0471 -0.0604
99715W        W42768  17.676  27.088  21.446 -0.1009 -0.1675 -0.0293
99716W        W42769   2.308   0.909   8.434  0.0263 -0.0640 -0.0926
99717W        W42770   9.344   1.687   1.457  0.0928  0.3822  0.1064
99718W        W42771   8.357  32.592   5.765  0.2975  0.0775  0.0570
99719W        W42772   7.821  34.572   8.632 -0.1219  0.2337 -0.3089
99720W        W42773  14.471   9.070   5.445  0.1752  0.0273  0.1365
99721W        W42774  19.680   5.897   1.714 -0.1935 -0.0279  0.0393
99722W        W42775  21.761  21.444  18.462  0.0465 -0.0594  0.0248
99723W        W42776  17.214  20.365   8.773  0.2470  0.1763  0.1166
99724W        W42777  13.972   2.945   0.213  0.1090  0.1105  0.0238
99725W        W42778  16.324   4.251   8.059  0.1234 -0.0914  0.1125
99726W        W42779  17.997  33.560   6.196  0.4793 -0.0582 -0.1543
99727W        W42780  31.459   6.613  25.458 -0.2204 -0.0362  0.3039
99728W        W42781   4.411  31.467   4.408 -0.0975 -0.2498  0.3884
99729W        W42782  14.441   3.255   4.981 -0.0213 -0.0990 -0.0623
99730W        W42783   8.899  23.028  25.136 -0.4633 -0.1343  0.1466
99731W        W42784  17.017  31.115  14.456  0.2420 -0.0941 -0.2730
99732W        W42785  22.151   5.764   0.659 -0.0086 -0.2514 -0.0767
99733W        W42786   7.901  29.595   2.068  0.0904 -0.3226 -0.1554
99734W        W42787  15.318   2.141   6.450  0.0723  0.0143  0.1589
99735W        W42788  13.680  20.560   5.982  0.4112 -0.2627  0.0004
99736W        W42789  13.057  18.498  10.622  0.0261 -0.2488 -0.1352
99737W        W42790  18.233   4.856   3.446 -0.1570  0.0330 -0.0229
99738W        W42791  17.629   8.880   1.689 -0.0024  0.2483  0.0467
99739W        W42792  16.964  18.438  22.774 -0.0756 -0.1563  0.0900
99740W        W42793   3.252   9.447   0.516  0.1212  0.2387 -0.3223
99741W        W42794   9.875   3.596  20.609 -0.0172 -0.1071  0.0259
99742W        W42795  19.145  14.229  28.865  0.0143  0.2734  0.2457
99743W        W42796  12.242  11.008   4.916  0.0129  0.3140  0.2142
99744W        W42797  30.540  19.610  26.544  0.1121 -0.2695  0.1346
99745W        W42798  17.064   3.980  28.302 -0.2905 -0.2203 -0.2618
99746W        W42799  10.021  19.598  25.004 -0.1994  0.0726 -0.0405
99747W        W42800   8.437   5.783   2.074  0.0663  0.1850 -0.3485
99748W        W42801  26.181  20.239   3.521  0.1873  0.2450  0.1031
99749W        W42802  20.796  34.670   4.827 -0.0004 -0.0356 -0.0319
99750W        W42803  24.625  25.011  23.769  0.2943  0.2777  0.0086
99751W        W42804  15.690   0.784   9.477  0.1230 -0.2943  0.1044
99752W        W42805  13.306  20.074   0.867  0.0565  0.3645 -0.1158
99753W        W42806  18.511  28.448  25.853 -0.2916 -0.0761 -0.2141
99754W        W42807  13.832  11.584   3.982 -0.0414 -0.1109  0.2750
99755W        W42808   5.643  11.238   1.092 -0.1023 -0.0293  0.1125
99756W        W42809  21.576  33.958  27.192  0.2560  0.2755 -0.0611
99757W        W42810   3.656  13.719  19.990 -0.1566  0.0455 -0.3757
99758W        W42811   9.668  20.375   3.846 -0.0592 -0.3499 -0.2371
99759W        W42812  22.278  32.388   8.812  0.0413  0.2068 -0.0631
99760W        W42813  17.634  22.697   5.793 -0.1563  0.0639  0.0414
99761W        W42814  16.709   3.098  19.606 -0.3407  0.0890 -0.1622
99762W        W42815  15.588  28.728   7.727 -0.3778  0.0119  0.0663
99763W        W42816   5.365   0.563   1.472 -0.1102 -0.3994 -0.3813
99764W        W42817  12.441  10.669   9.520 -0.2285  0.0489 -0.2227
99765W        W42818   6.324   4.937  10.417  0.1313 -0.0178 -0.1842
99766W        W42819   7.098   2.160   0.419  0.2577 -0.3050 -0.0325
99767W        W42820  29.874  10.933   6.621 -0.1344 -0.1559 -0.0207
99768W        W42821  11.994  20.201   6.337 -0.1490 -0.1861  0.1456
99769W        W42822  12.808  27.665   5.969  0.3016  0.1845  0.1995
99770W        W42823  26.798  19.883  29.193  0.0062 -0.4461 -0.0099
99771W        W42824  15.383   2.559  23.008 -0.1120 -0.0864  0.0547
99772W        W42825   4.060   7.061   4.907 -0.3211 -0.2405 -0.1491
99773W        W42826   8.137  12.217  23.228 -0.1652  0.0080  0.1836
99774W        W42827  17.104  28.625   7.663  0.2851  0.1653  0.3126
99775W        W42828   7.164   4.328  21.017 -0.1758 -0.1911 -0.4024
99776W        W42829  11.430   3.052   6.781  0.4542  0.2003  0.0810
99777W        W42830  26.699  31.267   2.757 -0.0967 -0.1507  0.1188
99778W        W42831  12.676  13.488   3.608  0.2067 -0.1747  0.2602
99779W        W42832  27.669  18.647   2.754 -0.0610 -0.0862  0.0265
99780W        W42833  31.518  12.388   8.584 -0.1751  0.0184  0.1740
99781W        W42834   3.095  28.555  24.093 -0.2374 -0.1194 -0.2101
99782W        W42835  18.745   3.835   9.541  0.2649  0.2092  0.0442
99783W        W42836   1.396   5.980   3.292  0.2072  0.3273  0.1525
99784W        W42837   5.558  20.539   8.588  0.1105  0.0647 -0.2566
99785W        W42838  22.064  19.722   8.849 -0.2990  0.1210  0.4487
99786W        W42839  20.286  24.026   2.802  0.2303  0.2030  0.0540
99787W        W42840  27.046  13.459   3.191 -0.1253  0.1557  0.0300
99788W        W42841  25.746   5.715   7.427 -0.3330  0.1589 -0.0233
99789W        W42842  16.534   8.554   7.968 -0.1750  0.0552  0.3334
99790W        W42843  32.276   2.224   3.255 -0.0859 -0.1122  0.0843
99791W        W42844  12.204  29.460   9.151  0.0279 -0.1938  0.2007
99792W        W42845  33.030  13.008   3.076  0.0586 -0.0001  0.2721
99793W        W42846  11.539  31.895   7.279  0.1510 -0.0757 -0.1648
99794W        W42847   2.435   0.984   2.595  0.3859 -0.0332  0.2996
99795W        W42848  26.060   8.964   9.320 -0.1254 -0.1838  0.2287
99796W        W42849  32.553  31.953   8.564  0.0697  0.0543 -0.0319
99797W        W42850  33.567   2.941   2.034 -0.0749  0.1031  0.1038
99798W        W42851  29.136   6.252   8.663  0.1165  0.2082 -0.0784
99799W        W42852  27.710  33.698   0.977  0.3783  0.0586 -0.1282
99800W        W42853  18.012   5.834   3.184  0.0337  0.2769 -0.1072
99801W        W42854  14.038   6.070   8.861  0.1396 -0.3088 -0.3087
99802W        W42855  15.205  15.974   5.821  0.0251  0.0114 -0.0028
99803W        W42856  20.699  13.764  17.041 -0.3034  0.1642 -0.1361
99804W        W42857  27.956  23.086   7.715  0.0579  0.1125  0.2109
99805W        W42858  24.472  31.430   0.438 -0.1758  0.1474  0.1774
99806W        W42859   3.167   0.378   8.641 -0.5457 -0.0076 -0.0442
99807W        W42860  16.804  18.283  25.494 -0.2131 -0.1023  0.0522
99808W        W42861  21.918  11.193   1.643  0.2565  0.1676  0.3289
99809W        W42862   8.539  13.646  25.819  0.4397 -0.2687  0.1029
99810W        W42863  33.070   1.470   3.996 -0.0832 -0.1787 -0.0018
99811W        W42864  29.283   7.972   3.209 -0.1523 -0.3582 -0.0975
99812W        W42865  15.611  21.885  23.249  0.2139 -0.2157  0.0337
99813W        W42866  20.628  21.985   6.253 -0.0332  0.0250  0.0678
99814W        W42867  19.814  25.700   6.627 -0.0469 -0.0826  0.0363
99815W        W42868  11.850   7.900  29.089  0.0908 -0.4097 -0.2422
99816W        W42869  12.098  34.644   6.492 -0.2922  0.0444  0.2529
99817W        W42870  26.209  29.656   4.809 -0.4077 -0.0161  0.0664
99818W        W42871  25.766   4.904   5.859 -0.0069  0.2615 -0.1886
99819W        W42872  31.891   5.275   4.041 -0.0279  0.1118  0.1300
99820W        W42873  29.585  30.409   6.597  0.2668 -0.0904 -0.4612
99821W        W42874  13.905   2.819   3.196  0.1010  0.3467 -0.2862
99822W        W42875  22.525   7.080   7.360  0.2419 -0.1654 -0.0462
99823W        W42876  23.065   0.053  19.701  0.0844 -0.1952 -0.1984
99824W        W42877  16.115   6.560   5.534 -0.0688 -0.0338  0.2035
99825W        W42878   8.650  33.427  22.587 -0.3142  0.0782  0.0711
99826W        W42879  16.484  16.591   1.112  0.0474 -0.2963 -0.0124
99827W        W42880   9.643  13.062   9.909 -0.3087 -0.0211 -0.0248
99828W        W42881  22.831  33.984   4.947  0.0863 -0.1045 -0.1546
99829W        W42882  13.701   0.758  21.010  0.1156 -0.0684  0.0685
99830W        W42883   0.031   6.718   9.503 -0.2990  0.0943  0.0721
99831W        W42884  21.328  30.301   4.365  0.0992 -0.0655  0.1792
99832W        W42885  14.414   4.075  17.660 -0.2956 -0.0727  0.0890
99833W        W42886  20.326   6.027   9.155  0.0939 -0.3241 -0.2053
99834W        W42887   9.818  12.596   2.505  0.1167  0.3995 -0.4910
99835W        W42888  18.041  11.792   9.270  0.0570 -0.2165 -0.0349
99836W        W42889  19.139  10.137  21.372  0.0168 -0.1408 -0.1384
99837W        W42890  22.829   3.964   5.132 -0.2363 -0.2842 -0.2473
99838W        W42891   3.871  20.289   6.597  0.2025 -0.0930  0.1018
99839W        W42892   6.788  20.146   9.080  0.2377 -0.2490  0.1362
99840W        W42893  33.650  26.247  22.324  0.4228 -0.0048  0.0553
99841W        W42894   4.191   7.351   8.053 -0.2840 -0.0368  0.1680
99842W        W42895   9.960  19.101  26.817 -0.1436  0.1078 -0.0917
99843W        W42896  17.636  13.294  27.403 -0.0189 -0.1049  0.0871
99844W        W42897  18.551  18.056   7.936 -0.2207 -0.0492  0.1482
99845W        W42898  28.721  13.775   8.630 -0.2311  0.0989 -0.2528
99846W        W42899  24.804  26.454   2.554  0.3189  0.0944 -0.0774
99847W        W42900   8.835   7.547   7.523  0.0864  0.1810  0.0140
99848W        W42901  13.325   8.888   6.386 -0.1041 -0.1609  0.1008
99849W        W42902  18.586  19.820   7.074 -0.0278 -0.2018  0.0540
99850W        W42903  25.446  17.651  27.184 -0.0412  0.0285  0.0459
99851W        W42904  21.701   9.131  23.383  0.0870 -0.2030  0.3635
99852W        W42905  11.831   9.069  22.816 -0.0919  0.0986  0.2502
99853W        W42906  26.828   0.421  25.310  0.2655 -0.0032  0.0740
99854W        W42907  25.346   3.337   8.053 -0.0826  0.3569 -0.1457
99855W        W42908  27.792  28.678  28.941  0.3542 -0.0588  0.2855
99856W        W42909  25.522  28.288   0.521 -0.0203  0.3727 -0.3290
99857W        W42910  17.585  21.932   7.838  0.2338  0.3915  0.0979
99858W        W42911  13.102   0.969   6.720  0.0616  0.1453 -0.0768
99859W        W42912  24.312  32.038  22.757  0.0676 -0.1529  0.1744
99860W        W42913  13.918  13.323   4.494  0.2544  0.2729  0.1417
99861W        W42914  13.993   7.906   8.977  0.0006  0.0597  0.1151
99862W        W42915  13.489  17.805   2.296  0.0379 -0.0671  0.1172
99863W        W42916  19.017  33.075   2.933  0.3168  0.2631 -0.1571
99864W        W42917  16.658  14.947   4.118 -0.2475  0.1127 -0.4222
99865W        W42918   3.518   3.446  23.227  0.1821  0.1361  0.3869
99866W        W42919  33.829  19.923   3.100 -0.0137 -0.2627  0.1750
99867W        W42920  17.317   1.412   0.838  0.5658 -0.1594 -0.0738
99868W        W42921  17.341  28.584   2.973 -0.2175  0.0937 -0.3418
99869W        W42922  17.370  14.806  27.010 -0.2290 -0.2519 -0.0275
99870W        W42923  24.526  24.681  20.711 -0.1708  0.0219 -0.0321
99871W        W42924  14.178  15.152   7.611  0.1948  0.2506 -0.0394
99872W        W42925  10.932   0.272   7.185 -0.0346 -0.1160 -0.1702
99873W        W42926  33.383   0.146   4.984 -0.1068  0.0829 -0.4013
99874W        W42927  23.808   9.618   7.286 -0.2647  0.1286  0.0954
99875W        W42928  13.721  11.284  27.229  0.1196  0.3015  0.3726
99876W        W42929   5.407  33.744   3.433  0.2098 -0.0592  0.1016
99877W        W42930  24.485  12.208   8.943 -0.2962 -0.0019 -0.0427
99878W        W42931  18.469  28.059   9.965  0.0365  0.2923 -0.1268
99879W        W42932  13.740   1.090   4.024 -0.1537  0.1716  0.0540
99880W        W42933  26.854  17.208   6.306  0.0017 -0.0709  0.4469
99881W        W42934  10.323   0.902   0.004 -0.1291  0.0927 -0.3635
99882W        W42935  12.141  17.042   5.567  0.2323 -0.0095 -0.2521
99883W        W42936  30.373   3.636  16.444  0.1181  0.2370 -0.3293
99884W        W42937  13.121   5.096   1.985 -0.1594  0.0477 -0.3330
99885W        W42938  29.629   7.406  26.240 -0.0181  0.2214 -0.1939
99886W        W42939   7.187  13.304  16.456 -0.0250 -0.1989 -0.2045
99887W        W42940  29.271  34.054   6.692  0.2436  0.1300  0.2561
99888W        W42941  13.283  34.574  11.359 -0.2619  0.0081 -0.2919
99889W        W42942  12.133  12.134   3.713 -0.0998 -0.0676 -0.1876
99890W        W42943  12.257   7.695  23.198 -0.0539 -0.2348  0.1531
99891W        W42944  27.153   2.559  26.665  0.2773  0.0729 -0.1574
99892W        W42945  24.272  21.548   2.651 -0.0362  0.0137 -0.1914
99893W        W42946  13.998  20.819   6.699 -0.0994 -0.0501  0.0029
99894W        W42947   9.643  28.588   9.050 -0.1028  0.3088  0.0195
99895W        W42948  22.238  23.404   2.813  0.0211 -0.4083  0.0394
99896W        W42949  16.045   6.950   0.885 -0.0331  0.1011 -0.0883
99897W        W42950   2.480  28.117  18.650  0.1060  0.0298 -0.2455
99898W        W42951  17.255  11.987  24.026 -0.2431  0.0315  0.0073
99899W        W42952  17.752  11.110  28.578  0.0445  0.0464  0.0418
99900W        W42953  12.834  11.371  24.929 -0.0844  0.1919 -0.0875
99901W        W42954   7.489   5.373   3.633  0.1259 -0.2142 -0.3403
99902W        W42955   8.468   6.155   9.088  0.1522  0.1285 -0.1581
99903W        W42956   5.660   7.109   6.798  0.0691  0.1262  0.1435
99904W        W42957   2.653  25.276   9.009 -0.0479 -0.0621 -0.0750
99905W        W42958  11.329  31.480   2.266 -0.0865 -0.2707  0.3869
99906W        W42959  18.998  13.880   8.646  0.1895  0.0477 -0.2695
99907W        W42960  18.434   0.566   5.715  0.1403 -0.0631 -0.1391
99908W        W42961   5.369  33.447   0.123 -0.0369 -0.1609  0.2422
99909W        W42962   0.989   6.872   9.690  0.0221 -0.0892 -0.0456
99910W        W42963  18.721   2.693  28.674  0.0895 -0.0369  0.1465
99911W        W42964   8.878   7.495  21.804 -0.0291  0.1382  0.1287
99912W        W42965  28.515  16.763   7.703  0.1211 -0.1834  0.2475
99913W        W42966  28.380   6.990  25.154 -0.1542 -0.1689 -0.1466
99914W        W42967  28.572  27.342   9.728  0.0576  0.0545  0.2086
99915W        W42968   1.579  12.451  20.626 -0.0854 -0.3356 -0.1502
99916W        W42969  14.263   3.168   7.158 -0.0007 -0.3188 -0.0645
99917W        W42970  19.869  17.508  28.873  0.1560 -0.1763 -0.0828
99918W        W42971  23.806  31.251   7.399  0.1802  0.1454  0.0598
99919W        W42972  32.018  20.122   5.195  0.0181 -0.0862  0.1750
99920W        W42973  22.101  21.003   7.747 -0.1404  0.0879 -0.1552
99921W        W42974   5.716  27.855   4.212  0.1929  0.1086 -0.1538
99922W        W42975   7.043   8.101  16.828  0.0877 -0.2387  0.0376
99923W        W42976  22.794  11.450   8.356 -0.0551 -0.0546  0.0183
99924W        W42977   5.696  14.822  25.202  0.0393  0.1667 -0.1459
99925W        W42978  10.875  15.356   5.896 -0.0081 -0.1496  0.1366
99926W        W42979   3.535  29.589   7.509  0.1073  0.0938 -0.1146
99927W        W42980  21.107  25.570  28.415  0.2369 -0.1532 -0.0547
99928W        W42981  22.252   6.679   5.422 -0.2539 -0.1411  0.0924
99929W        W42982  14.539  10.079   9.170  0.1867 -0.2168  0.2822
99930W        W42983  28.560  28.795   3.847 -0.0003 -0.0369 -0.1353
99931W        W42984  15.265   4.407   0.744 -0.0660 -0.5946 -0.1859
99932W        W42985  28.630  10.467  10.496 -0.0275  0.2377  0.3561
99933W        W42986  24.941   6.859   0.289  0.1616  0.1730  0.0518
99934W        W42987  13.506   1.559   8.461 -0.0504 -0.0325  0.1641
99935W        W42988  13.178  12.332  15.330 -0.3103 -0.2416  0.0125
99936W        W42989   0.455  33.230   8.839 -0.2450 -0.0098 -0.2966
99937W        W42990  30.116  13.898  26.753  0.1440 -0.0888 -0.0621
99938W        W42991  19.900  27.988   8.814 -0.3694 -0.0244  0.3673
99939W        W42992  18.397   3.713  17.673 -0.0735  0.2029  0.1465
99940W        W42993  11.997  30.259  27.116  0.1521 -0.0385 -0.0778
99941W        W42994  20.240  24.707  26.377  0.0824  0.0730  0.1731
99942W        W42995  29.353   1.925   8.412 -0.1765  0.0672 -0.0781
99943W        W42996  20.819   7.309   6.891  0.2276  0.0522 -0.1275
99944W        W42997  13.555  22.867  20.434  0.0457  0.2010 -0.2668
99945W        W42998   9.351   9.209   2.300 -0.0001 -0.2184  0.1071
99946W        W42999   9.339   6.521  25.250  0.0390 -0.0677  0.2038
99947W        W43000  22.624   1.088   3.148 -0.1415  0.0041  0.2259
99948W        W43001  16.664  29.321   1.169  0.0005  0.0002  0.2624
99949W        W43002  22.056  27.674  18.156 -0.0220 -0.3911  0.1879
99950W        W43003   2.452   0.508   9.375 -0.0663  0.2023 -0.1743
99951W        W43004  20.900   6.836  25.968  0.4778  0.1195  0.1243
99952W        W43005  15.026  21.587   1.398 -0.0765 -0.3223 -0.0455
99953W        W43006  13.506  15.034  21.374 -0.0862 -0.4096 -0.2903
99954W        W43007   9.919   7.208   9.242  0.0351  0.1702  0.2153
99955W        W43008   8.723   4.776   5.065 -0.0372 -0.0482  0.1350
99956W        W43009  30.557  33.373  25.429 -0.1475 -0.1052  0.0049
99957W        W43010   4.793   6.848  24.657 -0.0312 -0.0474  0.2558
99958W        W43011  22.204   1.903   1.807  0.2321 -0.0633 -0.1202
99959W        W43012  18.684   0.885   9.021  0.2800  0.1096 -0.0037
99960W        W43013   8.860  11.193  20.332  0.5260  0.3741  0.2373
99961W        W43014  15.566  13.374   6.215 -0.1674  0.2460 -0.1652
99962W        W43015  13.900  19.309   7.490 -0.0797 -0.0569  0.3622
99963W        W43016  24.472   6.790   8.981  0.1248 -0.1934  0.4302
99964W        W43017   2.528   0.567   7.150 -0.1716  0.1779 -0.1097
99965W        W43018   8.348   8.297   9.150 -0.1437  0.1038 -0.0467
99966W        W43019  25.097  22.712   2.872 -0.1657  0.0054 -0.0998
99967W        W43020   4.681   8.006   9.591  0.0497 -0.1406 -0.0121
99968W        W43021  21.937   1.036  23.502  0.1141  0.2325  0.2105
99969W        W43022  16.589   1.370  20.020  0.0508 -0.1211 -0.0151
99970W        W43023  23.811  33.829   0.712 -0.1004 -0.3356  0.0460
99971W        W43024  19.566  13.722   0.946 -0.1947  0.2548  0.3588
99972W        W43025   9.373  19.983   9.103 -0.0438  0.2044 -0.0248
99973W        W43026  18.561  20.585  22.386  0.0488  0.0186  0.1844
99974W        W43027  16.072  33.022  26.787 -0.2927 -0.0546 -0.4016
99975W        W43028  32.787  18.500  28.791  0.1387  0.0459 -0.1792
99976W        W43029   7.904  29.875  29.028 -0.2548  0.2165 -0.1560
99977W        W43030  17.215   3.719   5.266 -0.2412  0.1998 -0.1378
99978W        W43031  25.247   5.559   3.799  0.0398  0.0092 -0.1080
99979W        W43032  28.866  26.895  17.134  0.1557 -0.0858  0.1432
99980W        W43033   9.470  13.321  11.192 -0.0642 -0.3033 -0.1288
99981W        W43034  29.505   7.144   1.855 -0.2765  0.0776 -0.0921
99982W        W43035  11.465  28.330  28.487 -0.4709  0.3628 -0.2444
99983W        W43036  18.332  31.826  10.702 -0.0669 -0.0989  0.1085
99984W        W43037   9.189   7.783   4.317 -0.3806 -0.1950  0.1508
99985W        W43038  22.733   0.710   1.497  0.0738  0.3111 -0.0366
99986W        W43039   4.199  32.871   6.568  0.0467  0.2116  0.1942
99987W        W43040  28.080   8.043  23.759  0.0846  0.0820  0.2556
99988W        W43041  26.141  31.517   8.657 -0.0873  0.2507  0.1927
99989W        W43042  14.064   5.376   8.054 -0.0379 -0.1067  0.1339
99990W        W43043  30.243   5.360  25.504 -0.0792 -0.0330  0.0612
99991W        W43044  23.387  31.507  17.142  0.0898 -0.2911  0.4073
99992W        W43045  24.317  33.519   2.946  0.1467  0.2848  0.0133
99993W        W43046  16.885  24.995  20.392  0.0723  0.1395  0.1022
99994W        W43047   7.044   2.324   4.798 -0.2046 -0.2857 -0.0767
99995W        W43048  29.944   7.505   3.054  0.1084 -0.0083 -0.1675
99996W        W43049   4.017   6.629   2.589  0.2059 -0.0790 -0.0275
99997W        W43050  19.250  26.934   6.950  0.3182  0.3253 -0.1886
99998W        W43051  21.535   6.704   9.561 -0.0743  0.2455  0.0612
99999W        W43052  18.871   1.473   0.382  0.0753  0.0320 -0.0741
    0W        W43053   1.016  26.172   6.076  0.0088  0.1358 -0.1293
    1W        W43054  25.104  10.185   1.894 -0.1065 -0.1112  0.0905
    2W        W43055   0.072   5.990   0.414  0.2267 -0.3355  0.0071
    3W        W43056   4.357   9.654  26.243 -0.1338 -0.2468 -0.0873
    4W        W43057  31.546   4.471   5.656  0.1526 -0.2419 -0.1581
    5W        W43058  24.860  12.300   0.939  0.1532  0.2716  0.0177
    6W        W43059  26.866  15.324  27.412  0.1263  0.0482  0.0079
    7W        W43060   6.530  19.457   4.099  0.1159 -0.1433 -0.2418
    8W        W43061  17.372  18.945   7.260  0.1107 -0.0431  0.2550
    9W        W43062  26.082   0.153  16.262  0.1748  0.2168 -0.2514
   10W        W43063  20.931   9.493  27.138 -0.0902  0.1787  0.1962
   11W        W43064   7.199   2.884  28.518  0.1262  0.1516 -0.1045
   12W        W43065  27.908   1.702   8.615  0.2929  0.1159 -0.1414
   13W        W43066  28.209  18.114   4.009  0.2859  0.0484 -0.2971
   14W        W43067  10.629  31.554  16.047  0.0773  0.1266  0.0646
   15W        W43068  26.969   9.123   9.411 -0.0358 -0.0676 -0.1178
   16W        W43069  15.643  18.627  24.753 -0.0481  0.2360 -0.1555
   17W        W43070  30.130  17.235  27.071  0.1553  0.1569 -0.4030
   18W        W43071   5.807  12.749  27.962  0.0594  0.1734 -0.0658
   19W        W43072   9.767  12.619   8.662 -0.0124 -0.0612 -0.1936
   20W        W43073  29.377  22.119   2.981  0.2895 -0.0319  0.0807
   21W        W43074  24.839   1.444   3.958  0.1708  0.3443 -0.0648
   22W        W43075   4.777   5.682   8.726  0.1090 -0.2132  0.0106
   23W        W43076  13.139   8.866   8.703 -0.2433 -0.1331 -0.0251
   24W        W43077  30.563  13.020   9.966 -0.0868 -0.0301  0.0358
   25W        W43078  33.902  22.783   4.886  0.0598 -0.0216  0.0444
   26W        W43079  14.002   0.991  24.408 -0.0247  0.0460  0.0501
   27W        W43080  15.242  15.424  28.015 -0.1873 -0.2884  0.0856
   28W        W43081  24.357   0.657   1.531 -0.3454  0.4212 -0.0390
   29W        W43082  23.681  20.434   9.740  0.1501 -0.3217 -0.0468
   30W        W43083  27.181   1.005   7.063 -0.1190  0.1430 -0.1606
   31W        W43084  13.659   6.151   5.644  0.0724 -0.1825 -0.2300
   32W        W43085  17.012  22.736   3.571  0.1830 -0.0433  0.1398
   33W        W43086  29.747  32.761   8.832 -0.0233  0.2295  0.0174
   34W        W43087  15.403   8.731  19.113 -0.3103 -0.1106 -0.0947
   35W        W43088   8.800  28.958  29.014 -0.1048 -0.3901  0.1117
   36W        W43089  18.703  11.755   6.698 -0.0713  0.0520  0.1524
   37W        W43090  15.159  15.017   1.705 -0.2287  0.0174 -0.0408
   38W        W43091  10.092  14.857   9.546  0.2248  0.2828  0.1853
   39W        W43092  12.787   2.018   8.847  0.3182  0.0042 -0.0789
   40W        W43093  21.254  32.938  27.218  0.0677  0.2228  0.0567
   41W        W43094  19.443   1.108  10.490 -0.1965  0.2658 -0.0588
   42W        W43095  15.282  16.287   3.439 -0.2035  0.0284 -0.1011
   43W        W43096  24.134  13.034   4.390 -0.0993 -0.2692  0.1145
   44W        W43097  31.145   5.479   6.965 -0.0933  0.1924  0.2932
   45W        W43098  15.221   8.013   0.685  0.0550  0.0335 -0.1307
   46W        W43099   1.176  31.007  28.272  0.3059 -0.1403  0.2929
   47W        W43100  13.016   5.770  14.204 -0.0703  0.1432  0.2110
   48W        W43101  26.174   5.920   5.768  0.0313 -0.1739  0.1962
   49W        W43102  16.897   2.991   3.194 -0.0713  0.0678 -0.0218
   50W        W43103  33.484  12.854   7.606 -0.1370 -0.0866 -0.0841
   51W        W43104  18.776   8.635   9.867  0.0797  0.0284  0.1284
   52W        W43105   8.815  11.094   7.909 -0.0063  0.2356  0.0119
   53W        W43106  20.347   2.633   9.341  0.1571 -0.2477  0.1902
   54W        W43107  28.509  34.170  24.851  0.1576 -0.3671 -0.0954
   55W        W43108  22.416   0.507   9.010 -0.3406  0.0436 -0.1727
   56W        W43109   8.023  30.583   5.258  0.0579  0.2382 -0.0605
   57W        W43110  14.913  11.194  22.873  0.1203  0.2374 -0.0011
   58W        W43111  29.176   2.771  26.257 -0.0235  0.1067 -0.1128
   59W        W43112  24.012   7.435  28.710  0.0555 -0.3025  0.0714
   60W        W43113  13.077   9.691  22.722  0.2456  0.1883  0.0634
   61W        W43114  20.750  25.388  28.855 -0.0595 -0.0711 -0.0454
   62W        W43115   6.936   8.821   0.080  0.1685  0.1166 -0.1095
   63W        W43116  12.450   4.550  25.512 -0.3631  0.3079  0.0810
   64W        W43117  12.183   8.851   8.966 -0.0577 -0.0372  0.0663
   65W        W43118  18.005   1.177   5.767 -0.3595  0.0958  0.2052
   66W        W43119  20.954   2.217  27.777 -0.1363  0.2403 -0.1170
   67W        W43120   5.675   5.522  27.430  0.1970  0.0069  0.2237
   68W        W43121  20.044  14.062  28.407  0.0633  0.0015 -0.0090
   69W        W43122  27.011  24.250   1.504 -0.1598  0.0388  0.1832
   70W        W43123  10.229  31.607  26.284 -0.1982  0.0740 -0.1940
   71W        W43124   8.106  10.636   0.339  0.2093 -0.3648  0.0310
   72W        W43125   0.046   3.513  17.165  0.1086 -0.1759  0.3683
   73W        W43126   1.852  18.721   8.890  0.0769  0.2587  0.0615
   74W        W43127  22.245   9.500  18.915  0.1589 -0.2044  0.2536
   75W        W43128   7.746  11.902  23.837 -0.1431  0.1447  0.2271
   76W        W43129   6.130  22.084   7.373 -0.0133  0.0906  0.2691
   77W        W43130  15.858   2.373  19.229  0.2062 -0.0271  0.1819
   78W        W43131  13.836  12.638   7.001 -0.1952 -0.1576  0.0242
   79W        W43132  21.649   6.197  26.130 -0.1480 -0.0037  0.1112
   80W        W43133   5.403   5.199  26.105 -0.1384 -0.0462  0.2436
   81W        W43134  23.226  16.191  17.597  0.2986  0.2277 -0.0732
   82W        W43135  22.924   6.090  14.777  0.1379 -0.0078 -0.3490
   83W        W43136  20.813  26.438  14.818  0.0605  0.0439  0.2028
   84W        W43137  17.059  25.095  24.737  0.1627 -0.0353  0.0770
   85W        W43138  21.538  25.871   8.461  0.0873  0.0613 -0.2685
   86W        W43139  33.391   7.117  28.882  0.1018 -0.2178 -0.0541
   87W        W43140  23.288  13.266   8.834  0.1930  0.1232 -0.0063
   88W        W43141   1.530  29.912  24.626 -0.2872  0.1059 -0.3045
   89W        W43142  20.486  13.312  20.182 -0.0536 -0.0656  0.0636
   90W        W43143  20.029  33.438   1.651  0.0182  0.2484 -0.3801
   91W        W43144  27.162  24.418  26.563 -0.1281 -0.0697  0.0915
   92W        W43145  32.791   5.812  28.510 -0.0908  0.0189 -0.0259
   93W        W43146  29.468  16.448   9.063 -0.0347 -0.1405  0.0564
   94W        W43147  15.066  33.532   8.813 -0.0110 -0.1245 -0.1215
   95W        W43148  33.209   9.414  26.363  0.0029 -0.1020 -0.0687
   96W        W43149  14.483  11.904   1.420  0.1043 -0.1847  0.0728
   97W        W43150   9.317  13.989  23.454 -0.0397  0.0318 -0.0596
   98W        W43151  14.827  25.204   1.225  0.1278  0.1462 -0.1386
   99W        W43152  18.024  27.051   2.149  0.0825 -0.2404  0.2084
  100W        W43153  32.216  14.018   2.729  0.3100  0.0637 -0.1822
  101W        W43154  12.469  15.270   8.188  0.0407 -0.1308  0.1631
  102W        W43155  18.530  11.450   2.270 -0.3613  0.1748  0.2990
  103W        W43156  18.036  32.408  25.527 -0.0394 -0.1057 -0.1190
  104W        W43157  18.637  32.079  27.744  0.2130 -0.1053  0.1580
  105W        W43158   9.584   4.189   7.657 -0.2035 -0.0866  0.0421
  106W        W43159  32.601  12.209  21.867  0.0196 -0.0801  0.4480
  107W        W43160  21.925  13.226  15.651 -0.0433 -0.2091  0.0564
  108W        W43161   0.731   4.486  17.962 -0.2062  0.3774 -0.1517
  109W        W43162  19.107  23.076  15.601 -0.3227 -0.0373 -0.3405
  110W        W43163   8.702  13.995   8.718 -0.0868 -0.0031  0.0168
  111W        W43164   7.555   5.828   0.873  0.3044 -0.0077 -0.0433
  112W        W43165   0.842  26.484   5.188  0.0433 -0.0722 -0.1294
  113W        W43166  12.098   8.619   9.395  0.1155 -0.0262 -0.0379
  114W        W43167  33.737  18.572   4.832  0.0168  0.0494  0.2192
  115W        W43168  20.061  20.890  23.146 -0.2995 -0.0511 -0.0821
  116W        W43169  34.449  17.512  26.994  0.1392 -0.1927 -0.3340
  117W        W43170  24.046  13.964   2.871  0.0042  0.2154 -0.0758
  118W        W43171  28.360  13.341  21.246 -0.1279 -0.2055 -0.0336
  119W        W43172  15.030  16.666   3.180 -0.0649 -0.0832 -0.3615
  120W        W43173   6.803   9.919  26.072 -0.0268  0.2457  0.0701
  121W        W43174  11.532   4.526   1.617  0.1063 -0.1036 -0.0278
  122W        W43175   8.845   4.333   3.820  0.0733  0.1889  0.0666
  123W        W43176  15.536  20.866   6.808 -0.0338  0.0222 -0.1748
  124W        W43177   7.602   6.803  14.210 -0.2317 -0.1319  0.3146
  125W        W43178  27.457   6.634  16.757 -0.2555 -0.1052 -0.0132
  126W        W43179  14.885  11.304  10.485  0.1306 -0.0034  0.0543
  127W        W43180  20.200   4.269  27.899 -0.0182  0.1386  0.2891
  128W        W43181  15.637   4.834  25.006  0.2110  0.3593  0.0471
  129W        W43182  23.225  13.098   2.867  0.0473  0.1471  0.2687
  130W        W43183  20.309  27.891   7.974 -0.0721  0.2330  0.1645
  131W        W43184  13.795  30.038  17.173  0.4125  0.0778  0.1228
  132W        W43185  27.743   5.426   9.309  0.3180 -0.2152 -0.1260
  133W        W43186  17.101  15.946   8.449 -0.2627  0.1411  0.0535
  134W        W43187  17.584  14.232   6.910 -0.1646 -0.1407  0.1034
  135W        W43188   3.958  12.567  27.823 -0.3184 -0.3502 -0.2173
  136W        W43189  22.421  15.921  14.541 -0.2931 -0.0599 -0.0687
  137W        W43190  17.863  20.845   0.677  0.1912 -0.2667 -0.0761
  138W        W43191  13.578  32.562   7.510  0.0398 -0.1072  0.3147
  139W        W43192  13.668  19.283  27.611 -0.3829  0.0473  0.1688
  140W        W43193  13.827   7.120   7.623 -0.0769 -0.0874 -0.1497
  141W        W43194  25.681   2.797  23.327  0.2354 -0.1343  0.1005
  142W        W43195   5.464   9.622  24.603  0.2622 -0.0318 -0.1520
  143W        W43196   1.349  21.537   8.646 -0.0222 -0.0519 -0.0304
  144W        W43197   8.008   5.741  24.189  0.1648  0.2064  0.0529
  145W        W43198   8.709  33.828   8.344 -0.0183 -0.0368 -0.0001
  146W        W43199  34.292  11.880  18.851 -0.0560  0.0336  0.1158
  147W        W43200  20.063  32.201   6.023 -0.0873  0.0226  0.0525
  148W        W43201   1.085  22.753  28.480  0.2889 -0.0050  0.3071
  149W        W43202  16.871  17.562  23.159 -0.2541 -0.0030 -0.0615
  150W        W43203   7.427  12.417  28.710 -0.4138 -0.2883  0.0464
  151W        W43204  32.002  13.251  28.523 -0.2332 -0.0179  0.1142
  152W        W43205  16.584  34.023   7.361  0.2373 -0.2239  0.1718
  153W        W43206  24.137  29.216   9.768 -0.1019 -0.5367 -0.2847
  154W        W43207   7.047  18.011  26.536  0.0454 -0.0254  0.0705
  155W        W43208  15.233  21.938  21.400  0.1328  0.0905  0.1659
  156W        W43209  20.706   9.948   6.933  0.0227  0.0959 -0.0492
  157W        W43210   4.358   8.952   9.758  0.1860 -0.0590 -0.0591
  158W        W43211  12.131   4.098   1.327  0.0326 -0.1097 -0.5549
  159W        W43212  13.963  13.398  25.610  0.2750  0.3109 -0.3805
  160W        W43213  15.408   4.556  29.110  0.1279 -0.0156  0.2173
  161W        W43214  27.604   7.159   2.907  0.0064 -0.2498  0.2819
  162W        W43215  16.777  19.085   9.676  0.0859  0.2373 -0.0102
  163W        W43216  12.671  31.260   7.205  0.1635 -0.0495 -0.0392
  164W        W43217  16.490   9.803   7.386  0.0827  0.1807 -0.0915
  165W        W43218  14.320  34.547   3.641  0.1542 -0.0941  0.2053
  166W        W43219  15.818   7.419   4.249 -0.3036 -0.1249  0.1385
  167W        W43220  13.839  15.587   5.891 -0.1176 -0.0292 -0.0660
  168W        W43221  33.572  14.353   1.543  0.0105  0.2836  0.1978
  169W        W43222  33.192  10.552  26.189 -0.2818  0.3116 -0.0090
  170W        W43223  20.271  18.946   9.508  0.1172  0.0124 -0.1047
  171W        W43224   2.203   5.743   6.687  0.0898 -0.1478  0.1484
  172W        W43225  19.799  12.094  23.531 -0.3112 -0.1153  0.0438
  173W        W43226  20.292  10.930   8.106  0.1275  0.2181  0.2687
  174W        W43227  20.912  31.309   0.648 -0.3197 -0.0242 -0.0869
  175W        W43228  25.887  28.458  24.826 -0.0557  0.0349 -0.2911
  176W        W43229   3.027  17.741  17.724 -0.0207  0.2890  0.0290
  177W        W43230   4.998   3.387  27.472  0.1582  0.0652  0.0393
  178W        W43231  23.541  21.097  25.691  0.1106  0.5371  0.0155
  179W        W43232  16.527  33.228   2.755 -0.2291 -0.3792  0.0036
  180W        W43233  21.239   0.052   6.336 -0.1928  0.0902 -0.2205
  181W        W43234  27.475  33.105  23.608 -0.1746 -0.1529  0.0130
  182W        W43235  16.765   9.627   2.178  0.3528 -0.0024  0.1806
  183W        W43236  13.135  13.698  23.189  0.0220  0.0352 -0.0633
  184W        W43237   4.250  10.190   2.880 -0.0071 -0.0879 -0.2385
  185W        W43238  20.978   5.008  14.478  0.0254 -0.1101 -0.0554
  186W        W43239  27.113  27.925   2.057  0.1117 -0.0291 -0.0428
  187W        W43240  18.630   9.023   9.535 -0.0667  0.1615  0.2445
  188W        W43241  22.140   2.624   7.134 -0.2451 -0.3051  0.0442
  189W        W43242  22.482  16.985   1.837  0.1802 -0.0991 -0.0589
  190W        W43243   8.420   6.570   7.147 -0.1792 -0.1515  0.2099
  191W        W43244  26.254  19.395   7.563 -0.0473  0.0105 -0.1476
  192W        W43245   6.643  11.147   3.003 -0.0205 -0.2392 -0.1865
  193W        W43246   0.459  14.443   6.000  0.3060 -0.2428 -0.1915
  194W        W43247  28.188  17.876  19.539  0.1270  0.0287  0.3787
  195W        W43248  13.077   5.296  26.428  0.0793 -0.0031 -0.0093
  196W        W43249  10.372   6.764  28.426 -0.0940  0.4697 -0.3036
  197W        W43250   6.820  19.261   8.127 -0.0975 -0.4617  0.1749
  198W        W43251  19.681  32.466   8.050 -0.0843 -0.2261  0.2312
  199W        W43252  22.581  16.739  16.648 -0.1462 -0.3559 -0.1483
  200W        W43253   6.413  31.972   3.734  0.0030  0.2096 -0.0171
  201W        W43254   2.140  10.796  28.986  0.2822 -0.2784 -0.1681
  202W        W43255  19.354  29.305   6.220 -0.3644 -0.1938  0.0273
  203W        W43256  17.224  15.096  22.940  0.1560 -0.0204 -0.1209
  204W        W43257  25.634  29.188   0.971 -0.3761  0.0732  0.0402
  205W        W43258  14.062   4.444   9.144 -0.0769  0.2996 -0.1832
  206W        W43259  17.089  11.405   7.761  0.1474 -0.1333  0.2471
  207W        W43260  25.116   6.145  24.610  0.0503 -0.0460 -0.0740
  208W        W43261  23.233  32.955   4.934 -0.0711 -0.1176  0.0664
  209W        W43262  18.268  24.669   4.819  0.0126 -0.1151  0.3299
  210W        W43263   9.717  20.230  14.253 -0.1629 -0.0037 -0.0493
  211W        W43264  16.230  24.764   5.103 -0.1495 -0.0595  0.0089
  212W        W43265  18.256   2.429   7.668 -0.0078 -0.2681 -0.0599
  213W        W43266  19.600   8.386   3.413  0.0743  0.0544 -0.1892
  214W        W43267   8.927  16.111   3.230  0.3106 -0.0789 -0.2093
  215W        W43268  17.267  28.605  14.826 -0.2960  0.1690  0.2515
  216W        W43269  20.050  14.748   2.095  0.2689 -0.2210 -0.2336
  217W        W43270   9.370   4.698  25.497 -0.1649 -0.0520  0.0463
  218W        W43271   3.936   9.783   1.806  0.1450  0.0633 -0.1257
  219W        W43272  24.806   3.837  16.792  0.1467 -0.0638 -0.2838
  220W        W43273  15.570  31.393   1.998  0.3205  0.0253  0.1109
  221W        W43274  29.120  17.498  17.746  0.1528  0.1112  0.1571
  222W        W43275  26.303   2.272   1.910  0.2902 -0.1359 -0.3749
  223W        W43276  17.064  11.790  20.768  0.0925 -0.0640 -0.0549
  224W        W43277   2.160  27.649  23.634  0.0357 -0.1964 -0.0601
  225W        W43278  12.085   7.002   9.018  0.0544  0.2297  0.3302
  226W        W43279  16.043  21.346   3.172 -0.0804  0.0258  0.2560
  227W        W43280   8.252   8.905  14.961  0.0102 -0.1474 -0.0748
  228W        W43281  14.736   5.877  20.542 -0.2734 -0.0117 -0.1899
  229W        W43282  25.726  12.019   5.658  0.0889 -0.2579  0.0924
  230W        W43283   7.050   7.219  10.171 -0.0691 -0.0076  0.0533
  231W        W43284  11.689   5.021  28.710  0.1918  0.0865  0.0821
  232W        W43285  30.833  29.421   2.524 -0.1128 -0.1388  0.0547
  233W        W43286  21.891   5.205  14.405  0.1117 -0.2474 -0.3608
  234W        W43287  15.233   5.631   7.308 -0.3285 -0.1072  0.0224
  235W        W43288   2.051   5.789   0.221 -0.2327 -0.5320  0.0026
  236W        W43289  15.956  10.949   6.504 -0.1995  0.3556  0.0229
  237W        W43290  19.985  16.629   8.953  0.2381 -0.0262 -0.0306
  238W        W43291  10.269  22.471   3.555 -0.0740  0.0922  0.0379
  239W        W43292  21.347  26.021   4.809  0.0414  0.2214  0.0074
  240W        W43293  18.352  33.719   9.827 -0.1765 -0.0689  0.2812
  241W        W43294   8.664  13.191  28.696  0.2647  0.1139  0.0904
  242W        W43295  15.615   3.085   6.490 -0.3101  0.1249  0.0322
  243W        W43296  12.292  32.144   7.114  0.1072  0.0523 -0.1279
  244W        W43297  16.181  13.768  27.388  0.1657  0.3528  0.0011
  245W        W43298  17.101  19.182   3.075  0.2288  0.1011 -0.2736
  246W        W43299  11.551  33.148  27.718  0.1108 -0.2048 -0.3109
  247W        W43300  16.184   4.825  25.760  0.1857  0.0284  0.1846
  248W        W43301   7.313  14.293  22.334 -0.4973 -0.1957 -0.0109
  249W        W43302  25.644  29.701  21.156  0.0860  0.1910  0.1547
  250W        W43303  33.762  10.576   5.211  0.0239  0.0874 -0.2892
  251W        W43304  30.685   3.362   8.638  0.3915  0.1979 -0.0232
  252W        W43305  28.278  28.890   0.200  0.0369  0.1335  0.2134
  253W        W43306  13.893   7.292   6.679  0.1297  0.1197  0.1002
  254W        W43307  27.382   0.252  27.575 -0.1598  0.0942 -0.3651
  255W        W43308  19.760  23.362  25.567 -0.0134 -0.1906  0.0596
  256W        W43309   4.876   0.547  13.722 -0.0969  0.2701 -0.2958
  257W        W43310  20.565   1.799  23.701 -0.1449 -0.2586 -0.0209
  258W        W43311  12.131   5.443  25.662  0.1275  0.1126  0.0097
  259W        W43312   5.245   7.083   0.570  0.1379 -0.1012  0.0281
  260W        W43313   7.045  18.074  13.808 -0.2633 -0.0647 -0.0244
  261W        W43314  25.695  10.661   9.159  0.2908  0.0594  0.1984
  262W        W43315  14.019  14.582   8.373  0.2195 -0.0654 -0.1514
  263W        W43316  17.882  26.611  21.292 -0.0976 -0.2995 -0.1186
  264W        W43317  22.928   5.593   0.790  0.0158  0.1132  0.0414
  265W        W43318   1.506   2.445  14.404  0.3281  0.0761  0.1456
  266W        W43319  10.170  32.791   6.046  0.4807 -0.3053 -0.2953
  267W        W43320  11.309  34.613   0.023  0.0429  0.0824  0.2465
  268W        W43321  23.415   9.105   7.579 -0.2523 -0.0583  0.1283
  269W        W43322  32.355  12.951   4.619  0.1841 -0.2615  0.1187
  270W        W43323  23.993   2.984   8.161  0.2019  0.1404 -0.2733
  271W        W43324  12.703  31.210   8.695  0.2000  0.2552 -0.0498
  272W        W43325  15.186  29.855  29.172  0.0080 -0.0381 -0.2362
  273W        W43326  29.282  11.421  26.857  0.3530  0.0433 -0.3037
  274W        W43327  24.249   1.934  28.495  0.2326  0.0376 -0.1044
  275W        W43328  32.383  31.650  22.845 -0.2083 -0.1404  0.1316
  276W        W43329  13.956   4.306  17.494  0.2980 -0.0699 -0.1086
  277W        W43330  16.134   3.294   6.645 -0.3199 -0.1379  0.3677
  278W        W43331  25.958  17.456   6.035 -0.0372 -0.0895  0.2786
  279W        W43332  22.117   3.453   1.150  0.0489 -0.0410  0.1044
  280W        W43333  10.895   1.204   3.497 -0.2236 -0.0451  0.0053
  281W        W43334  21.115  18.148  23.148 -0.0484 -0.2517 -0.2090
  282W        W43335  15.648  30.650   2.826 -0.0854 -0.2607 -0.2049
  283W        W43336  14.959  17.599   5.297  0.1643  0.2541  0.0546
  284W        W43337   7.072  32.376   6.335  0.0038 -0.1817  0.0131
  285W        W43338  17.444  15.995  26.004  0.0500 -0.0434  0.3990
  286W        W43339   0.175  15.076   0.964  0.2030  0.1976  0.2469
  287W        W43340   0.569   8.382   7.649  0.2898  0.3012  0.0436
  288W        W43341  19.013   1.700  29.132  0.0939  0.2813 -0.0082
  289W        W43342  21.868   6.876  25.436  0.0615 -0.1073 -0.3626
  290W        W43343  16.839  10.306   4.213 -0.0182 -0.1767 -0.2842
  291W        W43344  20.394  23.859   1.724 -0.1651 -0.0483 -0.3128
  292W        W43345  15.243  30.909  28.920  0.0123  0.1217 -0.1076
  293W        W43346   9.858  11.170   8.404 -0.1287 -0.0918 -0.1613
  294W        W43347  13.314  24.993   1.925  0.0807  0.0648 -0.0681
  295W        W43348  12.067   8.586   5.906  0.1671 -0.2710  0.0424
  296W        W43349  18.235  28.020  25.653  0.2807  0.1705  0.1863
  297W        W43350  12.975  30.173  18.172 -0.2017  0.1732 -0.0181
  298W        W43351  27.349   4.274  19.915 -0.1038 -0.0815  0.4188
  299W        W43352  22.376  33.513  19.584  0.2846 -0.0245 -0.3121
  300W        W43353  19.942  30.558   0.066  0.2731  0.2718  0.1206
  301W        W43354  16.874  34.524  25.854  0.1768  0.0437  0.0488
  302W        W43355  23.363   3.761   4.284  0.0591 -0.0483 -0.2067
  303W        W43356  16.131  22.902   2.269  0.0517  0.0252 -0.1938
  304W        W43357  10.980  10.677  16.537  0.1344 -0.0751  0.2812
  305W        W43358  34.496  30.559  28.769  0.0208  0.2402  0.1490
  306W        W43359   1.238  26.588   7.631 -0.1850  0.1119 -0.1020
  307W        W43360  21.620  14.043  28.628  0.2266 -0.4917 -0.0782
  308W        W43361  29.097   1.364  22.596 -0.0170  0.1194 -0.2894
  309W        W43362  27.605  33.609   6.785  0.1665  0.0860  0.0957
  310W        W43363  23.731  17.613   1.782 -0.2532  0.0429 -0.5869
  311W        W43364   9.821   6.249  26.572  0.1259  0.1268 -0.1171
  312W        W43365  26.435  10.709  24.680 -0.2338  0.0765  0.2208
  313W        W43366  30.065   9.037   3.351  0.0381 -0.1315  0.3750
  314W        W43367  23.210  31.095   7.332  0.3397  0.1366 -0.0018
  315W        W43368   4.185  22.726  22.889  0.1045 -0.2523  0.0191
  316W        W43369  17.835   4.886   2.287 -0.3183 -0.2728  0.1245
  317W        W43370  27.448  21.065   0.627 -0.2746 -0.1263 -0.2070
  318W        W43371  22.276  12.098  22.683  0.3347 -0.2853  0.0460
  319W        W43372   9.546   5.815   6.906  0.0286 -0.4441  0.0402
  320W        W43373  21.573   7.842   5.879  0.0949 -0.1632 -0.2991
  321W        W43374  13.460  24.037   7.561  0.0629 -0.1057 -0.1682
  322W        W43375   0.509  14.219  25.288  0.0560 -0.1976 -0.0166
  323W        W43376  11.896   2.352  25.067  0.1285  0.0268  0.3314
  324W        W43377  23.860  17.719   2.723 -0.1938  0.4607  0.0625
  325W        W43378   6.031  24.929   2.907  0.0681 -0.0099 -0.0045
  326W        W43379   7.490   8.698  26.421  0.0240  0.1872 -0.2626
  327W        W43380  18.135  22.543   8.367  0.4959 -0.3633  0.2829
  328W        W43381   4.304   1.903  25.110  0.0197 -0.1707 -0.1054
  329W        W43382  23.422  23.755  28.027 -0.0328 -0.0459 -0.0218
  330W        W43383   4.272  32.863   1.639 -0.3092 -0.0069 -0.0536
  331W        W43384   7.738  15.634  17.406  0.2282 -0.3191  0.0035
  332W        W43385  14.928  24.096   6.721  0.1167 -0.1736  0.1619
  333W        W43386  10.700   4.796   1.200 -0.0038  0.1916 -0.0837
  334W        W43387  22.786  15.911   1.193  0.0811  0.0807 -0.0984
  335W        W43388  17.489   7.750  27.502 -0.0888 -0.1755 -0.2494
  336W        W43389  27.127   9.532   3.720 -0.1478  0.1151 -0.0909
  337W        W43390   9.697  16.261   8.985  0.0360 -0.2503 -0.0261
  338W        W43391   1.216  10.746  15.736  0.0636 -0.1632  0.0256
  339W        W43392  10.102   8.272  28.149 -0.0433  0.1944 -0.0278
  340W        W43393  15.997  16.022  25.943  0.0124  0.3372 -0.1628
  341W        W43394  25.001   6.574  20.220 -0.1295 -0.2394  0.0402
  342W        W43395  16.739   5.809  17.545 -0.2241 -0.2808  0.0171
  343W        W43396  30.834  17.810   3.727  0.1993 -0.0821 -0.0529
  344W        W43397  23.774  10.914   4.674 -0.2661 -0.2680 -0.1363
  345W        W43398  17.594  17.068   2.678  0.0503 -0.0022 -0.0086
  346W        W43399   6.263  26.133   8.242 -0.2727 -0.2289 -0.0445
  347W        W43400  30.617  14.809   0.900 -0.0735  0.3713 -0.0132
  348W        W43401  12.814   5.808   7.957 -0.0256 -0.2141 -0.2128
  349W        W43402   6.160  13.984   9.180 -0.0639 -0.1502 -0.2056
  350W        W43403   1.907   5.349   5.276 -0.2141  0.3138 -0.1469
  351W        W43404  25.366  22.727  28.116  0.0362  0.1716 -0.0202
  352W        W43405   9.560  16.222  22.169  0.1148 -0.2763 -0.0261
  353W        W43406  20.662   9.773  16.987  0.3726  0.1444 -0.0353
  354W        W43407  27.023  15.483   8.058 -0.0373  0.2694 -0.2652
  355W        W43408   0.952   4.142  27.544 -0.0799 -0.1111 -0.0924
  356W        W43409  21.613  21.521   2.293 -0.0850 -0.0717  0.4645
  357W        W43410  23.848  27.260   8.568 -0.2188 -0.1143  0.0796
  358W        W43411  11.610  18.236  27.995  0.4848 -0.0769 -0.2993
  359W        W43412  34.335   6.739   5.465 -0.1338 -0.0780 -0.1735
  360W        W43413  11.196  13.276   0.072  0.0600  0.0183 -0.3090
  361W        W43414   5.088  33.239   7.447  0.0057  0.0101  0.1132
  362W        W43415   7.241  26.108  25.554 -0.0353 -0.2019  0.3307
  363W        W43416  22.304   2.372   3.345 -0.1228  0.1297 -0.2699
  364W        W43417  14.874  28.014  13.887  0.3619 -0.0381 -0.2396
  365W        W43418  11.766  10.517  20.811  0.0490  0.0975  0.1073
  366W        W43419  17.935  10.754  28.865 -0.0921 -0.2314 -0.0894
  367W        W43420  11.394   4.993  19.129  0.1193  0.1479  0.0784
  368W        W43421   7.721  21.467  19.567  0.0212 -0.0773  0.3306
  369W        W43422  14.309  16.762   7.288  0.0703  0.0022 -0.3248
  370W        W43423  23.777   0.127   1.863  0.3961 -0.1015  0.0432
  371W        W43424  15.257  25.412  27.303 -0.0455  0.0744 -0.0887
  372W        W43425  22.169  17.078   0.918  0.1661 -0.1633 -0.0640
  373W        W43426  26.652  29.279  23.323  0.1724 -0.0897 -0.0622
  374W        W43427   2.540  34.304   2.518 -0.0628  0.0630 -0.0383
  375W        W43428  19.846  31.472  16.449 -0.1428  0.5379  0.0373
  376W        W43429  14.660  16.317   9.181  0.3300  0.0733  0.0676
  377W        W43430   7.773  12.113   4.840 -0.0664  0.0968  0.1309
  378W        W43431  16.364  32.275   7.279  0.0834  0.3838  0.1567
  379W        W43432  17.889   8.440   1.567 -0.1642  0.1176  0.0004
  380W        W43433   6.223  14.991  25.718 -0.1695  0.2102 -0.2710
  381W        W43434  22.025   9.307  17.631 -0.1914 -0.2336  0.3717
  382W        W43435  20.368   6.688  26.649 -0.0625  0.3140 -0.2427
  383W        W43436  16.220  11.759   7.875  0.3097  0.1648 -0.1081
  384W        W43437   7.612  11.980  18.448 -0.0711 -0.0982  0.0519
  385W        W43438  29.850  16.809   1.100  0.1601  0.1128  0.0758
  386W        W43439  23.807   4.711   7.829 -0.0776  0.1792 -0.0996
  387W        W43440  10.336  18.648  26.056  0.1415 -0.0237  0.1112
  388W        W43441  18.374  25.645  21.797 -0.1490  0.2586 -0.2949
  389W        W43442  13.489  25.917  19.608  0.2210  0.1363 -0.1410
  390W        W43443  25.450  12.076  28.903 -0.2549  0.0019 -0.0688
  391W        W43444   5.994   9.046  15.046  0.0980 -0.0102 -0.3682
  392W        W43445  29.705  11.299   5.945 -0.2284 -0.0256 -0.0475
  393W        W43446  24.441   8.288  21.145 -0.0173  0.0543 -0.0143
  394W        W43447  13.707  15.718   2.341 -0.0882  0.2052  0.5082
  395W        W43448   0.678   3.720   0.002 -0.2780 -0.2640  0.0075
  396W        W43449  16.096  18.907  27.929 -0.0232  0.3283  0.0132
  397W        W43450  15.370  11.433   5.648 -0.3899 -0.1659 -0.1977
  398W        W43451  27.531  10.714  10.525  0.0786 -0.1442  0.0250
  399W        W43452   2.325  21.703  19.195  0.0817  0.2973 -0.0196
  400W        W43453  13.497  13.640   8.694  0.0812 -0.1596 -0.0059
  401W        W43454  25.531  20.071   4.524  0.3261 -0.2616 -0.1093
  402W        W43455  29.598   1.246  26.110  0.1727 -0.0619 -0.3038
  403W        W43456  28.879  28.531   0.224  0.0595 -0.1030  0.2498
  404W        W43457  18.561   6.730   3.087  0.2283 -0.1369 -0.1843
  405W        W43458  31.284  11.900  14.627 -0.0976 -0.2020 -0.2544
  406W        W43459  11.276   8.091  27.309  0.0484  0.0270 -0.0901
  407W        W43460  23.599   6.230  27.153 -0.4224 -0.1701 -0.0798
  408W        W43461  19.140   9.566   2.289  0.2428 -0.3095  0.4816
  409W        W43462  10.487  11.373  10.249 -0.0361  0.0218  0.0036
  410W        W43463  21.455   4.597   9.280  0.0048 -0.0001 -0.1515
  411W        W43464  26.736   1.948   2.974 -0.1926  0.1401 -0.0417
  412W        W43465   6.594   2.378   4.077 -0.0318 -0.1247  0.4037
  413W        W43466   2.703  16.086   6.297  0.3530 -0.2189  0.0219
  414W        W43467  12.016  33.137   1.631  0.0851  0.0601  0.1498
  415W        W43468  19.920  15.830  28.643 -0.3247  0.0621 -0.0127
  416W        W43469  20.418  29.571   0.889 -0.2090 -0.0638 -0.0531
  417W        W43470  10.847  31.269   1.899 -0.2171 -0.0061 -0.2028
  418W        W43471  12.879  21.890  21.114 -0.4792 -0.0026 -0.0306
  419W        W43472  13.012  14.475  25.383  0.0246 -0.2241  0.4332
  420W        W43473  27.373  16.818   4.318 -0.0365 -0.2150 -0.3196
  421W        W43474  19.134  20.123  22.920 -0.0831  0.0359  0.1994
  422W        W43475  21.650  17.377   0.685  0.0261  0.1637 -0.1940
  423W        W43476   3.953  22.279   8.800 -0.1924  0.0322  0.0004
  424W        W43477   4.503   6.438  28.643 -0.0392  0.1008 -0.0213
  425W        W43478  26.055  10.942   0.226  0.1342  0.1686  0.1080
  426W        W43479  21.743   2.417  22.726 -0.1122  0.1943 -0.2018
  427W        W43480   8.699  13.521   7.109  0.0371  0.1228  0.0702
  428W        W43481   2.168   6.652  10.311 -0.1496 -0.0613  0.1897
  429W        W43482  12.504  10.783  10.794  0.0724  0.1540  0.0714
  430W        W43483   5.377  16.040   2.983 -0.1276  0.0244  0.0648
  431W        W43484  17.569  16.947  29.195  0.0210 -0.2550  0.0258
  432W        W43485  20.240  12.190  27.033  0.1612  0.0743  0.0991
  433W        W43486  24.670   6.869   2.774  0.0771 -0.0859 -0.0417
  434W        W43487  21.698  13.719  23.959  0.2581  0.1247  0.1662
  435W        W43488   7.913  21.943   4.970 -0.0709 -0.0676  0.1008
  436W        W43489  11.725  19.158   6.211  0.1018  0.1238 -0.0962
  437W        W43490  13.427  10.747   4.885  0.0809 -0.0740  0.1557
  438W        W43491  20.537   2.328  20.558 -0.0638  0.1059 -0.4418
  439W        W43492  18.381   8.384   1.680 -0.2059 -0.0606  0.2554
  440W        W43493  14.509  12.721   4.706 -0.1651 -0.5666  0.1149
  441W        W43494   0.619  25.677   4.313 -0.0734  0.0192 -0.1167
  442W        W43495  17.470  11.486  22.302 -0.1813  0.2274 -0.0644
  443W        W43496  18.128   0.070   5.308 -0.0307 -0.2020 -0.4856
  444W        W43497  18.402   3.430   2.644 -0.0329  0.1464 -0.0036
  445W        W43498  10.451  32.664  28.398 -0.1278 -0.0193  0.4794
  446W        W43499  33.606   5.696  26.535 -0.0348  0.3303 -0.1207
  447W        W43500  19.663  28.627   6.742  0.1620  0.1133 -0.0629
  448W        W43501   3.270  24.192   3.055  0.2599 -0.0276  0.0755
  449W        W43502  20.440  16.395  21.679 -0.1049  0.0790 -0.3324
  450W        W43503  28.229  25.628   0.174  0.0838 -0.0218 -0.1336
  451W        W43504  15.672   0.141  23.991  0.0265  0.1476 -0.1309
  452W        W43505  20.516   8.560  28.564  0.1063 -0.1366  0.0346
  453W        W43506  10.115  12.253  15.660  0.2982 -0.0869  0.1227
  454W        W43507  26.095  11.396  21.105 -0.0684 -0.1412  0.0464
  455W        W43508   9.436  17.047   6.448  0.3345 -0.1688 -0.1673
  456W        W43509  10.416  33.248   3.075 -0.0921  0.1007  0.0327
  457W        W43510   6.388   3.134   1.515  0.2446  0.0154  0.0502
  458W        W43511  15.665  25.109   8.280 -0.0183  0.0227 -0.0031
  459W        W43512  33.375   4.158   6.360 -0.0868 -0.0126  0.0842
  460W        W43513  32.312   6.032   9.046 -0.1412  0.2048 -0.0146
  461W        W43514  21.976  20.133   8.588  0.1597 -0.1633 -0.0043
  462W        W43515  29.159  20.678  28.778  0.2242 -0.0644 -0.1520
  463W        W43516  21.663   3.983  25.359  0.3813 -0.0619  0.0325
  464W        W43517   3.112  13.582  21.463 -0.2141 -0.4960  0.3077
  465W        W43518  14.084   9.900   6.382  0.2034 -0.0640 -0.1138
  466W        W43519  18.636   9.504   3.953  0.1989  0.0631  0.2734
  467W        W43520  12.512   8.169   5.047  0.2903  0.1186  0.0757
  468W        W43521  15.425   6.518  26.959  0.0452  0.2383  0.0282
  469W        W43522  13.755  14.835   2.707  0.0339 -0.2080  0.2245
  470W        W43523  34.585  11.012  23.484  0.1123  0.0713  0.0640
  471W        W43524  13.727  27.888  14.297 -0.2375 -0.1094 -0.1382
  472W        W43525  26.341   0.881   5.824  0.0203 -0.2465  0.0848
  473W        W43526   0.425  13.286  22.447  0.1164 -0.2703 -0.1129
  474W        W43527   8.622   8.034   6.774  0.0841  0.4105 -0.0903
  475W        W43528  22.795   7.903   4.056 -0.2755  0.0326 -0.1884
  476W        W43529  20.770  27.999  23.755  0.1291  0.4446  0.1110
  477W        W43530  10.212   3.458   6.764  0.5301 -0.3391  0.1152
  478W        W43531  24.235   7.323  25.737 -0.1584  0.2235  0.2770
  479W        W43532  14.228  25.996  25.513  0.0006  0.1704 -0.1855
  480W        W43533  20.231   9.993  25.642 -0.0669 -0.0928 -0.3297
  481W        W43534   5.542  18.353  23.690  0.2153 -0.1996 -0.0380
  482W        W43535  10.251  23.107  21.362 -0.1171 -0.1295 -0.1323
  483W        W43536   2.569  19.256   7.068 -0.1060 -0.0944 -0.0921
  484W        W43537   9.245   8.653   6.562  0.1330  0.0584  0.0320
  485W        W43538  32.106   7.094   3.695  0.0261  0.1041 -0.0465
  486W        W43539   9.575  19.460  19.021 -0.4464 -0.0386 -0.0356
  487W        W43540  24.822   1.947   1.783 -0.0695  0.2936  0.0996
  488W        W43541   1.893  14.291   8.143 -0.1387 -0.1079  0.0901
  489W        W43542  14.913  33.360  26.049  0.3510 -0.0418 -0.0191
  490W        W43543  18.735  34.421  25.233  0.1227 -0.0160 -0.2382
  491W        W43544  13.107   5.600  19.982  0.1544  0.2408 -0.0683
  492W        W43545  18.891   4.522   6.503 -0.2471  0.4015 -0.2721
  493W        W43546  21.048  16.705   5.414 -0.0706 -0.2120  0.0644
  494W        W43547  16.005   9.473   9.398  0.2103  0.1875  0.1025
  495W        W43548  24.195   6.021   0.780  0.2256 -0.3792 -0.1603
  496W        W43549   9.247  12.615  10.073 -0.4271  0.2245 -0.0435
  497W        W43550  11.843  20.511   1.712  0.1030 -0.1099  0.0714
  498W        W43551  18.352  12.675   9.513 -0.2849  0.1144  0.0001
  499W        W43552  13.493  25.614   9.412 -0.2512 -0.3127 -0.0868
  500W        W43553  10.644   0.639   2.884  0.2676 -0.1177  0.1848
  501W        W43554  10.161   9.406  26.158  0.3205  0.5715  0.1070
  502W        W43555  17.760  25.702   9.781 -0.1024 -0.0464 -0.1245
  503W        W43556  17.174  14.533   6.916  0.2068  0.5546 -0.2172
  504W        W43557  15.366  22.200   6.531 -0.3570 -0.0887  0.1305
  505W        W43558  22.011  26.680   0.349  0.1230 -0.1767  0.0080
  506W        W43559   9.320  21.278   8.387  0.0942  0.2708  0.0640
  507W        W43560  10.572   6.256  17.279  0.2076  0.1394 -0.0912
  508W        W43561  21.472  15.168   2.001  0.3768 -0.0536  0.0843
  509W        W43562  11.313  32.920   7.550  0.3225  0.0641  0.0711
  510W        W43563  22.333  19.617   4.822 -0.0296 -0.3243 -0.1044
  511W        W43564  18.910   5.169   2.826 -0.0222  0.0299 -0.0102
  512W        W43565  26.510  16.500   2.857  0.0656  0.0100 -0.1327
  513W        W43566  18.686  12.327  27.874 -0.1667 -0.0837 -0.0850
  514W        W43567  18.189  17.169   8.440  0.1684  0.0767 -0.2706
  515W        W43568  15.248  14.193   5.966  0.1355 -0.1129 -0.1108
  516W        W43569  17.945   6.713   7.540 -0.0422 -0.1717  0.0619
  517W        W43570  13.292   9.108   0.976 -0.2196 -0.0060  0.1391
  518W        W43571  13.380   6.744   3.243 -0.3850  0.1259 -0.1546
  519W        W43572  12.068  22.369  10.050  0.1399 -0.0858 -0.0488
  520W        W43573  10.240  16.989  29.082  0.1747 -0.0437 -0.1052
  521W        W43574  16.467  14.998   4.580  0.3670 -0.1838 -0.0398
  522W        W43575   5.999   8.570   2.532 -0.2740 -0.2992  0.0097
  523W        W43576  15.914  13.548   4.252  0.2543  0.2730 -0.0804
  524W        W43577   4.049  29.392  28.203  0.3069 -0.3869 -0.0748
  525W        W43578  25.445  18.037   5.956  0.2463 -0.0535 -0.0242
  526W        W43579  28.254   0.981  19.396 -0.0242  0.1911  0.0451
  527W        W43580  30.203  11.481   8.305 -0.0789  0.2432 -0.0703
  528W        W43581  21.345   2.755  21.402 -0.2462  0.0920 -0.3376
  529W        W43582  11.775  16.444   3.064 -0.1090 -0.5094 -0.1755
  530W        W43583  30.086  10.631  10.530 -0.0450 -0.2773  0.0390
  531W        W43584  11.755   5.245   9.067 -0.1895 -0.0586 -0.2465
  532W        W43585  13.368  30.874   9.816  0.1586  0.2088 -0.2660
  533W        W43586  24.914  17.032  25.514  0.2692  0.1016  0.1817
  534W        W43587  17.480   6.249   5.994 -0.0752 -0.0858 -0.0273
  535W        W43588  11.778   6.245   4.289 -0.1934 -0.2231 -0.3115
  536W        W43589   3.106  10.202   5.730  0.0836  0.3662 -0.1111
  537W        W43590  19.081   7.481   8.919 -0.2787  0.1834  0.2256
  538W        W43591  23.109  10.515  21.145 -0.0134  0.1091 -0.1331
  539W        W43592  31.848  30.834   4.308  0.3518 -0.2883 -0.2165
  540W        W43593  11.106   9.613  25.094  0.2272 -0.1864 -0.0623
  541W        W43594  12.580  18.595  10.323  0.1116 -0.1065  0.2654
  542W        W43595  11.451  33.355  27.243 -0.3851  0.2436 -0.0089
  543W        W43596   9.236   7.897  25.259  0.0565  0.2790 -0.0681
  544W        W43597  19.544  15.977  27.518 -0.0885  0.0343  0.1584
  545W        W43598  28.221  10.350   3.697 -0.0372 -0.0609  0.0768
  546W        W43599  11.897  33.611   2.627  0.2452  0.4104 -0.2070
  547W        W43600  31.964  19.665   8.135 -0.0084  0.1237 -0.0158
  548W        W43601  25.329  13.682  28.560 -0.2777 -0.0281 -0.0786
  549W        W43602  14.236  22.888   8.890 -0.0047 -0.1733  0.2730
  550W        W43603  31.705   2.763   1.836 -0.0829  0.0493 -0.0309
  551W        W43604  20.671   8.337   8.109  0.3195 -0.0051  0.1809
  552W        W43605  14.978  17.410   0.026  0.1712 -0.0422  0.0071
  553W        W43606   6.101   8.487   3.986 -0.2790 -0.1559 -0.0529
  554W        W43607  15.213   2.056  14.961 -0.2117  0.0359  0.0168
  555W        W43608   1.601  28.794  26.487  0.1579  0.3478 -0.0015
  556W        W43609   6.738  11.666   5.093  0.1075  0.4088 -0.1887
  557W        W43610   2.605  15.706  20.669 -0.2063 -0.1412 -0.0313
  558W        W43611  30.723   3.837  17.484 -0.2833  0.0609  0.1947
  559W        W43612  14.628  32.213   2.405 -0.1130  0.0011  0.0679
  560W        W43613  10.367  31.986  20.253  0.3988  0.0229  0.3215
  561W        W43614  13.880   9.846  27.308  0.2003 -0.1204  0.2457
  562W        W43615  10.263  22.276   7.098 -0.2534  0.1126  0.1367
  563W        W43616   5.333  11.620   0.458 -0.0863  0.3108 -0.2156
  564W        W43617  14.270   5.062  10.071 -0.0311 -0.1078  0.2096
  565W        W43618  18.205  18.505   6.978  0.1922 -0.3232 -0.0994
  566W        W43619  27.563   4.042   2.054  0.1867  0.1309  0.2076
  567W        W43620   3.610   7.687   4.113  0.2406  0.0802 -0.0726
  568W        W43621  13.277   0.849   4.146  0.1366 -0.2994  0.0353
  569W        W43622  20.206   3.481   7.914  0.4320 -0.0941 -0.0758
  570W        W43623  20.293  30.686   9.229  0.3476 -0.2921  0.1226
  571W        W43624  32.506  15.399   4.654 -0.1019 -0.0686  0.3936
  572W        W43625  14.345   3.065   1.436  0.4310  0.1243  0.1945
  573W        W43626  20.553   6.149   5.047  0.3718  0.0071 -0.3935
  574W        W43627  28.490  19.122  19.259 -0.0331 -0.0997 -0.2134
  575W        W43628  24.450  23.579   2.863  0.1246 -0.4946  0.0844
  576W        W43629   8.450   9.020   7.805  0.0163 -0.0812  0.0256
  577W        W43630  14.237  14.886   2.014  0.1542  0.0674 -0.3230
  578W        W43631  11.776   8.956  27.214  0.1732 -0.0281  0.2547
  579W        W43632  12.153  15.905  25.579 -0.1009 -0.1052  0.0272
  580W        W43633  34.437  15.491   3.510 -0.1987 -0.1687  0.0736
  581W        W43634   1.044   1.169   0.830 -0.0636  0.2289  0.1135
  582W        W43635  18.947  28.287   2.366 -0.0389 -0.0494 -0.0679
  583W        W43636  28.727  20.441  26.612  0.0590 -0.4963 -0.0178
  584W        W43637  22.703   1.711   8.209 -0.0865 -0.3426 -0.1968
  585W        W43638  10.851  27.999  25.674 -0.0534  0.2050 -0.0168
  586W        W43639   6.731   5.439   5.466  0.0953  0.2300 -0.1694
  587W        W43640   5.377  14.016  25.169 -0.1496  0.1918 -0.1728
  588W        W43641  18.017  14.537  26.234 -0.4337 -0.1027  0.0729
  589W        W43642  11.633   7.525   4.826  0.2668  0.0477 -0.0555
  590W        W43643  28.666   9.573   2.703  0.3153 -0.2116  0.1578
  591W        W43644  17.207  20.031   2.008  0.0275  0.0552  0.0996
  592W        W43645  29.769   3.022   0.985 -0.2786  0.2328 -0.2740
  593W        W43646  10.350   3.955   2.360  0.3664  0.1249  0.2431
  594W        W43647  29.193   3.608   0.405 -0.1313 -0.3695 -0.0549
  595W        W43648  25.017   9.392   2.959  0.0102 -0.2498  0.0146
  596W        W43649  15.578   9.419  28.208 -0.0223 -0.1171 -0.2756
  597W        W43650  15.011   3.136  24.172 -0.0255 -0.1468  0.0802
  598W        W43651   8.394  12.398   9.569  0.0358  0.0070 -0.0891
  599W        W43652  17.603  13.895   3.673 -0.3885 -0.2968 -0.0149
  600W        W43653  14.372  26.483   6.828  0.0184 -0.1872  0.3552
  601W        W43654  30.412  17.617  22.193  0.1684  0.0446  0.1102
  602W        W43655  16.631  28.383  27.557 -0.1643 -0.2992  0.1792
  603W        W43656   5.282   8.822   7.974  0.4376 -0.0562  0.0535
  604W        W43657  27.048   0.995  25.778  0.1188 -0.0066  0.0599
  605W        W43658  21.323  13.427   1.629  0.2243 -0.4828 -0.0846
  606W        W43659  21.163   9.782   3.938 -0.2870  0.2874  0.3700
  607W        W43660  11.887   8.736  25.908  0.0036 -0.0820  0.0539
  608W        W43661  20.689   7.127   2.124  0.0858  0.2492 -0.2390
  609W        W43662  29.117   8.683   9.641  0.1416  0.1676 -0.2493
  610W        W43663  12.213  32.035   5.641 -0.1771  0.0079 -0.1383
  611W        W43664  15.284  18.411   9.787  0.0273  0.1772  0.1750
  612W        W43665  27.027  16.624   1.066 -0.0428 -0.0511  0.2370
  613W        W43666  16.616  18.246   2.985 -0.1605  0.1990  0.2401
  614W        W43667  21.274  28.480   9.958 -0.0955  0.1227  0.0355
  615W        W43668  11.249   9.933   7.815  0.1034  0.0754  0.0228
  616W        W43669  16.265  34.441   7.504  0.0901  0.0324 -0.2644
  617W        W43670  13.825   2.985   1.706 -0.0453 -0.0144 -0.1865
  618W        W43671   2.025   7.741  24.539  0.4393 -0.2359 -0.1818
  619W        W43672  18.526   5.165   1.774 -0.1551  0.0989 -0.0126
  620W        W43673  28.048   2.328   1.506 -0.1774  0.1599 -0.2511
  621W        W43674  13.125  15.400   4.038 -0.2204 -0.2281  0.0440
  622W        W43675  18.258  17.867   8.255 -0.1238  0.3183  0.0671
  623W        W43676  27.466  24.983   9.563 -0.0446 -0.0080 -0.2650
  624W        W43677   5.637  12.947  27.108 -0.1641 -0.0187 -0.0353
  625W        W43678  34.325   6.739   9.908  0.1161  0.2118 -0.1059
  626W        W43679  20.962   3.410  28.356  0.0092 -0.1571  0.3002
  627W        W43680  32.422  12.998  28.417 -0.0016 -0.2701 -0.2091
  628W        W43681  19.607  25.026   8.417  0.0531 -0.0130  0.0512
  629W        W43682  19.253  27.568   5.709  0.2180  0.0292 -0.0523
  630W        W43683   8.235  13.506   6.774  0.0337 -0.2879 -0.0761
  631W        W43684   2.662  27.617   1.188 -0.1761 -0.1856  0.0178
  632W        W43685  31.568  29.342  27.527 -0.1319  0.0433 -0.1984
  633W        W43686   8.831  27.372   6.489 -0.0111  0.0620  0.5125
  634W        W43687   9.997   4.282   7.359 -0.2577 -0.2811  0.0647
  635W        W43688  20.105   3.675   8.820 -0.0079  0.3933 -0.2294
  636W        W43689  31.132   1.424   8.970  0.0550  0.1379  0.0447
  637W        W43690   9.304   2.109   4.270 -0.3583 -0.0273  0.0140
  638W        W43691  15.410  22.703   0.660  0.4294 -0.1966 -0.0016
  639W        W43692  25.861  31.931   3.094  0.0871  0.0975 -0.0286
  640W        W43693  13.467  34.514  27.644 -0.2144  0.3376  0.3087
  641W        W43694  17.934  10.753   4.376  0.2201  0.2910 -0.0085
  642W        W43695  26.253  32.671   0.447  0.1594 -0.3639  0.0085
  643W        W43696  10.147  15.476   8.183  0.0565  0.1035 -0.0516
  644W        W43697  28.358  14.144  18.478  0.1137  0.0790  0.3564
  645W        W43698  14.778  33.813   4.085 -0.3964 -0.3269  0.0926
  646W        W43699  12.171  17.123   0.511  0.3486  0.0268 -0.3357
  647W        W43700  14.354  32.733   1.151 -0.1644 -0.2115  0.0420
  648W        W43701  13.104  20.821   4.228  0.1687  0.1397 -0.2799
  649W        W43702  28.093   4.392   4.534 -0.0681  0.1333  0.0504
  650W        W43703  15.590   7.415   9.597  0.2486 -0.1990 -0.2729
  651W        W43704  14.358  32.791  17.112 -0.0621 -0.0463  0.0767
  652W        W43705  26.304  12.040  25.319 -0.1767  0.0632  0.0522
  653W        W43706  18.644   3.072  16.700 -0.1150 -0.2636 -0.0792
  654W        W43707  20.951   5.296   0.653  0.1664 -0.0400  0.3131
  655W        W43708  13.563   1.486   3.368  0.2157  0.1516 -0.1536
  656W        W43709  24.722   7.374   3.334  0.1617 -0.0592 -0.0158
  657W        W43710   9.706  24.462   5.088  0.3867 -0.1861 -0.1423
  658W        W43711  17.738  11.238   0.814  0.0234  0.0173  0.0163
  659W        W43712  22.595  14.050  29.024 -0.1587 -0.3103  0.1226
  660W        W43713  13.829   6.060   3.469  0.0819  0.1813  0.0865
  661W        W43714   7.519  26.051  27.448  0.0197  0.0303 -0.3640
  662W        W43715  33.533  13.980   9.172 -0.4832 -0.0826 -0.0274
  663W        W43716  17.914  12.007  28.389 -0.0841  0.0651 -0.1812
  664W        W43717  20.989   2.536  10.438  0.1562  0.0581  0.1926
  665W        W43718  17.717   5.834   2.030 -0.2287 -0.2130  0.0902
  666W        W43719  20.943   6.202   4.268  0.1518 -0.1578  0.0145
  667W        W43720  17.537   7.712   6.827 -0.1063  0.1396  0.1883
  668W        W43721  16.986   2.505   4.005  0.0927  0.0363  0.2192
  669W        W43722   9.651   9.867   2.401 -0.1355  0.2440  0.0324
  670W        W43723  23.864  10.970  26.212 -0.2691  0.0105 -0.2265
  671W        W43724   4.381  13.175  28.941  0.1959 -0.0267  0.0259
  672W        W43725  25.722  10.290   8.681  0.1439 -0.0058  0.0107
  673W        W43726  31.913  34.395   9.518  0.0306 -0.0001 -0.4945
  674W        W43727  17.618  12.247   7.200  0.0806 -0.1496 -0.0009
  675W        W43728   3.994  13.245   1.996  0.1384 -0.2167  0.0837
  676W        W43729  27.884  11.800   3.279 -0.2514 -0.3284 -0.2228
  677W        W43730   4.560  18.306   1.805  0.1625  0.2347  0.0132
  678W        W43731  20.884   4.988  27.260  0.3338 -0.1493  0.0737
  679W        W43732   8.196  12.647   0.021  0.0428 -0.1917  0.1725
  680W        W43733  14.470   2.914   0.055  0.1633 -0.1504 -0.0630
  681W        W43734   4.412   0.572   1.641 -0.1023 -0.0210 -0.1528
  682W        W43735   0.356  13.008   1.543  0.1804  0.2888  0.0671
  683W        W43736   5.983  14.323  24.562 -0.0298  0.0328 -0.0284
  684W        W43737  11.259  16.171   5.108  0.2498  0.1057  0.2543
  685W        W43738  15.545  20.320   9.525 -0.0504 -0.3193 -0.0632
  686W        W43739   6.552  21.447   4.031  0.1713 -0.2395  0.1520
  687W        W43740   2.114  10.866   8.831  0.1047  0.1060  0.3387
  688W        W43741  11.323   5.882   9.272  0.0246  0.1898 -0.3073
  689W        W43742   1.190  18.161  26.503  0.1631 -0.2721  0.0800
  690W        W43743  15.099  11.180   3.988  0.3712  0.2129  0.0154
  691W        W43744  22.474  13.194  23.840 -0.1922  0.0182  0.2320
  692W        W43745   8.137   6.718  10.357  0.1887  0.1080  0.1688
  693W        W43746   7.124   4.915   6.244  0.1491 -0.2907  0.0810
  694W        W43747  28.654  16.527   3.264 -0.0847  0.0048 -0.0188
  695W        W43748  19.206  23.063   5.637 -0.3166  0.2320  0.2872
  696W        W43749  13.644  10.587   1.673  0.0197 -0.2344 -0.0147
  697W        W43750  24.197  17.937  23.520 -0.0464  0.1491 -0.0038
  698W        W43751  18.186  11.648   0.955  0.3386  0.1958 -0.1107
  699W        W43752   7.886   0.381  14.149  0.1193  0.1397  0.1644
  700W        W43753  22.627  19.030  22.045 -0.0860 -0.1167 -0.0962
  701W        W43754   0.613   4.996  21.584  0.6500  0.1434 -0.1403
  702W        W43755  22.611  33.231   0.930  0.0910  0.3030  0.3092
  703W        W43756  13.925  24.351   4.795 -0.5127  0.0103  0.3138
  704W        W43757  20.911  27.707  27.969  0.0979 -0.0529  0.2260
  705W        W43758  25.677  15.564  13.856  0.2439 -0.1194 -0.0573
  706W        W43759  34.517  34.580  23.475  0.1004 -0.3512 -0.2355
  707W        W43760  30.954   6.387   5.279  0.0023  0.1903 -0.1388
  708W        W43761  22.964  12.794   2.517 -0.0173  0.2839 -0.1389
  709W        W43762  14.696  16.987   4.175  0.0143 -0.0943 -0.0081
  710W        W43763  25.958  22.423  26.565 -0.2075 -0.3617 -0.0473
  711W        W43764   4.009   5.497  22.427  0.1289 -0.1850  0.2794
  712W        W43765  17.593  15.975   8.606  0.2020 -0.0721  0.0951
  713W        W43766   8.033  20.717   5.673 -0.0015 -0.1048 -0.2378
  714W        W43767  15.069  17.463   7.324 -0.0611 -0.0122  0.0950
  715W        W43768  29.278   4.378  24.679  0.1300 -0.1789 -0.0821
  716W        W43769  22.214   2.045  28.128  0.0469  0.1058  0.1412
  717W        W43770  25.761   2.585   7.694  0.1202  0.0221 -0.1948
  718W        W43771  26.513   4.977   8.934 -0.1668 -0.0879 -0.1015
  719W        W43772   4.737  25.177   7.739 -0.0386  0.1491  0.1977
  720W        W43773  20.964  10.829   6.709  0.0787  0.0140  0.4035
  721W        W43774  18.010  11.062   7.782 -0.0252 -0.2716  0.2274
  722W        W43775  20.561   5.011   9.420  0.0609  0.0989 -0.0160
  723W        W43776   9.761   9.818  10.842 -0.1105 -0.2166  0.2161
  724W        W43777  13.854   9.934   0.929  0.1045 -0.0057  0.0850
  725W        W43778   4.085   0.710   5.899 -0.0467 -0.0410 -0.3419
  726W        W43779  34.010   5.776   0.788  0.1947 -0.1348  0.2117
  727W        W43780  19.760   7.795   8.644 -0.2463 -0.3057 -0.0644
  728W        W43781  23.951  11.704   5.781  0.1582 -0.0159  0.1913
  729W        W43782  14.036  11.474   7.787 -0.1318  0.1082 -0.2208
  730W        W43783  11.379  15.879  15.682  0.1872  0.2132 -0.1438
  731W        W43784  13.769  20.132   4.102 -0.3558 -0.2886  0.2184
  732W        W43785  20.635   7.139   2.718  0.1918 -0.2672  0.0370
  733W        W43786  33.131  19.749   8.192  0.0315  0.2820  0.1569
  734W        W43787   4.423  12.297   4.907 -0.1748 -0.0588 -0.0300
  735W        W43788  16.790   5.802   2.928  0.1127 -0.3772 -0.1087
  736W        W43789  19.359  14.243   8.343 -0.1056  0.1182 -0.2021
  737W        W43790  17.559   9.056   2.146 -0.5819 -0.1480  0.0376
  738W        W43791  12.684  17.954  25.101 -0.0197 -0.1565  0.0703
  739W        W43792  15.121  28.979   4.423  0.4817  0.2190  0.0626
  740W        W43793  14.542  15.550  27.374  0.0702 -0.1401 -0.0491
  741W        W43794  33.249  21.464   0.993 -0.0004 -0.1093 -0.1782
  742W        W43795  15.100  19.438   2.715  0.0565  0.0031  0.2253
  743W        W43796   4.769  14.714  23.798 -0.1417 -0.0921  0.1357
  744W        W43797  16.386  17.193   4.750  0.1289 -0.2657  0.0324
  745W        W43798   3.078  12.712   8.837 -0.0897  0.0375 -0.2743
  746W        W43799  19.920  18.951   0.611  0.0582  0.5764 -0.0881
  747W        W43800  12.068   1.351   5.720  0.1318  0.1412  0.1100
  748W        W43801  20.039   9.349   9.732 -0.0293 -0.2790  0.0585
  749W        W43802   9.237   3.551   5.180  0.1036 -0.3770  0.2601
  750W        W43803   5.909   8.600  27.161  0.1356  0.0418  0.1144
  751W        W43804  19.046  11.499  21.253  0.0269 -0.0531  0.1049
  752W        W43805  13.988   4.721  27.005  0.2118  0.2072 -0.3397
  753W        W43806   5.638  12.693   7.581  0.1562 -0.3135 -0.2783
  754W        W43807   7.033   3.791   3.590  0.0501 -0.0370  0.3357
  755W        W43808  18.958  10.304  14.408 -0.1140 -0.1672 -0.1216
  756W        W43809   4.090   7.972   7.491  0.1018  0.2044 -0.0886
  757W        W43810   8.074  31.779   9.061  0.1476 -0.0986  0.1846
  758W        W43811  20.157  21.606   9.469  0.0583  0.1199  0.0921
  759W        W43812  19.444   0.776   7.557  0.0095  0.0494 -0.1098
  760W        W43813  10.156   0.404   3.681 -0.2372 -0.3098 -0.0279
  761W        W43814  25.901  30.192   5.442 -0.0532 -0.1123 -0.3330
  762W        W43815  14.014  10.524   2.072 -0.1586 -0.1169 -0.0625
  763W        W43816  19.821  24.883   0.913 -0.0120 -0.0556 -0.1780
  764W        W43817  11.150   0.806   2.950 -0.2430  0.0315  0.1133
  765W        W43818  22.039  14.745  12.981 -0.2765 -0.2157  0.1953
  766W        W43819  27.703  23.414  10.308 -0.1660  0.0207  0.2905
  767W        W43820  15.980   6.415   4.147 -0.0311 -0.3664 -0.1776
  768W        W43821  33.389  11.577  29.169 -0.2855 -0.0105 -0.1384
  769W        W43822  22.672   3.305  21.213 -0.0569  0.1849 -0.2471
  770W        W43823  18.833  11.075   5.901  0.1114  0.1657 -0.0977
  771W        W43824  13.220  13.869   5.539  0.0864  0.0391 -0.1704
  772W        W43825   8.158   2.400   9.143 -0.0774  0.1237 -0.0107
  773W        W43826  33.183   4.503  14.383  0.0437 -0.1176 -0.4895
  774W        W43827  18.041  14.536   6.124  0.0536 -0.1195 -0.1721
  775W        W43828   1.361  10.319   3.605  0.1096  0.2596 -0.0884
  776W        W43829   8.228  31.901   5.012 -0.2791  0.0706 -0.0542
  777W        W43830  18.236  10.142   7.106 -0.1073  0.3383  0.0801
  778W        W43831  14.431   8.038  23.809  0.1613 -0.1069 -0.0289
  779W        W43832  26.867  19.488   3.142  0.0257 -0.1299 -0.0695
  780W        W43833   3.328   0.697   2.142  0.0626 -0.1148  0.1498
  781W        W43834  24.569  28.929  23.882 -0.1005 -0.0801 -0.3920
  782W        W43835  21.361  11.457  28.950  0.2589 -0.1674  0.2740
  783W        W43836   0.296   6.985   8.616  0.0168  0.0261  0.0129
  784W        W43837   6.187   8.742   0.915 -0.5752  0.1961 -0.0693
  785W        W43838  28.747  18.322   8.122  0.2391  0.1172 -0.1647
  786W        W43839   0.295  25.486   5.251 -0.0763 -0.1149  0.1699
  787W        W43840   0.309  16.250   2.930 -0.0569  0.0197  0.1181
  788W        W43841   5.320   4.168   5.715  0.0319 -0.2443 -0.1066
  789W        W43842   8.182  17.568  21.548  0.1269 -0.2041 -0.0889
  790W        W43843  10.383   8.278   7.749 -0.0218  0.1135 -0.1131
  791W        W43844  22.819  22.594   1.986  0.1122 -0.2021 -0.0902
  792W        W43845  16.400   3.219   3.880  0.1232 -0.2610  0.0864
  793W        W43846  26.282  23.714  26.251 -0.1081 -0.2203 -0.0162
  794W        W43847  17.670  23.658  21.017  0.0038 -0.0656 -0.0327
  795W        W43848  14.435  32.094  25.057 -0.2224  0.1458  0.2889
  796W        W43849  10.750   0.297   4.607  0.2001 -0.1875 -0.0782
  797W        W43850  18.256   4.653   9.719 -0.4408 -0.0608  0.0980
  798W        W43851   8.503   5.166   3.487 -0.0893 -0.3615  0.0343
  799W        W43852  23.916  13.387   6.581  0.0029 -0.0572  0.1891
  800W        W43853  13.013  15.202   3.538  0.2728 -0.0181 -0.3085
  801W        W43854  18.666  13.794   7.192 -0.2358  0.1006 -0.0072
  802W        W43855  12.396   6.548   0.987  0.2867  0.1011  0.0049
  803W        W43856   2.677   1.794   8.558  0.5209  0.0251  0.1936
  804W        W43857  20.333  28.032   3.511 -0.0249  0.1253  0.3669
  805W        W43858   4.977  12.854   1.785 -0.1575 -0.0896 -0.2447
  806W        W43859   6.943   0.704   2.209 -0.1056  0.0032 -0.0664
  807W        W43860   1.543  30.085   9.722 -0.2100 -0.2063 -0.0972
  808W        W43861  28.407  15.675   2.297  0.0885 -0.0866  0.2282
  809W        W43862  11.349  17.407   9.321  0.2772 -0.0323 -0.0489
  810W        W43863   7.333  10.376   8.261 -0.2816 -0.1240 -0.2480
  811W        W43864  13.645   7.929  26.026  0.0394 -0.2047 -0.1373
  812W        W43865  20.363  31.144   9.729  0.1343  0.1706 -0.0521
  813W        W43866  28.524   8.126  23.998  0.0580  0.1212  0.1836
  814W        W43867  13.263  14.514  22.895  0.3772 -0.1200 -0.2068
  815W        W43868   2.731  33.405   2.597 -0.2359 -0.1354  0.1173
  816W        W43869  25.871  16.816   9.270 -0.0256 -0.0065  0.0714
  817W        W43870  10.397  16.226   1.984  0.0023 -0.0319  0.0405
  818W        W43871  29.985   5.633  17.860 -0.0043  0.0560 -0.0301
  819W        W43872  13.822  14.027   2.825  0.0403  0.3198 -0.1707
  820W        W43873  27.546   4.449  28.393 -0.1094 -0.1871 -0.0368
  821W        W43874  11.325  14.697   8.850 -0.1886  0.1266 -0.0867
  822W        W43875  31.973  12.280   9.101 -0.2237  0.3154 -0.1767
  823W        W43876  15.337  33.241   9.117 -0.0201  0.4252 -0.1661
  824W        W43877   1.822  27.025  25.170 -0.1082 -0.0996  0.0237
  825W        W43878   6.246  29.164   7.448 -0.0952 -0.2724  0.1129
  826W        W43879  16.952  32.496  26.241  0.1664  0.1879  0.0544
  827W        W43880  20.721   4.410   8.331  0.4596 -0.0358 -0.0518
  828W        W43881  23.210  18.515   3.899 -0.1385 -0.0118  0.1670
  829W        W43882  14.768   4.714   0.518  0.1294  0.0979  0.1337
  830W        W43883  20.394   5.415  10.333  0.0102  0.1947 -0.2251
  831W        W43884  30.652   6.919   2.287  0.0237  0.1231 -0.1433
  832W        W43885  25.659   4.977   5.384  0.3185 -0.0685  0.2279
  833W        W43886  15.666  10.082   6.161  0.0558 -0.2238  0.0530
  834W        W43887   5.478   6.166   9.009  0.1849  0.1482  0.0290
  835W        W43888  24.034   7.416   4.448  0.0879  0.5230 -0.0605
  836W        W43889  23.294  30.046  28.500 -0.1675  0.1625 -0.1324
  837W        W43890  27.389   9.375   7.318  0.1944  0.0445 -0.2209
  838W        W43891   7.326  33.969  21.475  0.1460 -0.0100 -0.2289
  839W        W43892  11.230  15.344  28.092  0.0936 -0.1363 -0.3611
  840W        W43893  17.712  16.259   9.449 -0.4223  0.0508 -0.2636
  841W        W43894   9.962  31.061   7.697 -0.2244  0.3668  0.0788
  842W        W43895  10.849  14.857   7.566  0.1810 -0.0649 -0.1432
  843W        W43896   6.978   2.368   7.755 -0.3101  0.1208  0.1148
  844W        W43897  16.632  21.901   9.107 -0.0852  0.5036 -0.2882
  845W        W43898  14.237   0.291   3.894 -0.3946  0.0393 -0.0793
  846W        W43899  31.004  19.790   8.985 -0.1820 -0.0234  0.0042
  847W        W43900  26.925  32.079   0.188  0.0790 -0.0860 -0.0481
  848W        W43901  11.918   7.748   8.726 -0.0055 -0.0346  0.2408
  849W        W43902  17.367  16.160  22.355 -0.0497  0.1646  0.3817
  850W        W43903  24.709  21.219   8.643  0.4030  0.0839 -0.0920
  851W        W43904  29.720  30.818  19.147  0.0328  0.0171  0.2286
  852W        W43905  19.548   2.791  24.429 -0.1059  0.2430 -0.0798
  853W        W43906  13.590  10.352  27.580  0.2403  0.2699 -0.1137
  854W        W43907  15.921   8.707  29.128  0.3218  0.0748  0.3062
  855W        W43908  21.103   0.095  23.258 -0.1665  0.1627 -0.0990
  856W        W43909  14.232   5.624   1.393  0.0681  0.0127 -0.1592
  857W        W43910  15.258   7.379  19.660 -0.0231  0.1019 -0.1189
  858W        W43911  28.379  13.032  18.337  0.0514 -0.1547 -0.2123
  859W        W43912  21.770  15.088  27.953 -0.3396  0.0903  0.1534
  860W        W43913  15.903  10.006   9.681 -0.0239  0.4429 -0.0952
  861W        W43914  31.456  18.412  29.051  0.0197  0.2536  0.2101
  862W        W43915  20.025  30.077  22.644  0.1024  0.2743  0.1136
  863W        W43916  18.240   9.125   2.823 -0.3026 -0.1299  0.2693
  864W        W43917  18.762  26.922   6.894  0.0182  0.0376  0.3419
  865W        W43918  23.856  24.020  26.527  0.0929  0.1544 -0.1104
  866W        W43919  26.498  10.783   9.528  0.2864 -0.2697 -0.2341
  867W        W43920  22.440  20.626  21.704  0.0614  0.0149 -0.2829
  868W        W43921  26.738   8.321  25.932  0.1673  0.1833  0.0991
  869W        W43922   4.463   9.059   2.309  0.0172 -0.1193 -0.2564
  870W        W43923  16.648  32.959   5.810  0.1507  0.1808 -0.0057
  871W        W43924  21.188   9.152   1.293  0.0770  0.1185  0.0637
  872W        W43925  17.386   6.733  28.422  0.0465 -0.2091 -0.3397
  873W        W43926  25.235  14.806   7.359 -0.1171 -0.1082  0.0201
  874W        W43927  19.280   6.023  23.848  0.0378  0.2683  0.2262
  875W        W43928  30.738  23.396   9.288  0.0333  0.2095 -0.0873
  876W        W43929  13.768  13.908   9.657  0.1654  0.1772 -0.1357
  877W        W43930   6.450  33.602   7.507  0.3021 -0.0457 -0.0003
  878W        W43931  26.417  13.245   9.634  0.0031 -0.1095 -0.1130
  879W        W43932  14.520   9.407   4.510  0.2178 -0.0478 -0.2290
  880W        W43933  33.460  19.382   5.350  0.1275  0.0865  0.2861
  881W        W43934   1.438  24.029   7.772 -0.0965  0.0533  0.1297
  882W        W43935  27.659  32.356   4.974  0.0415 -0.1899  0.1082
  883W        W43936  13.169   6.116   7.031 -0.1759 -0.1066  0.0553
  884W        W43937   7.551   2.859  11.079  0.3195  0.0053  0.0171
  885W        W43938   7.006  31.884   4.231  0.1768  0.1006 -0.4431
  886W        W43939  18.790   7.532   8.375 -0.0237  0.0680  0.3067
  887W        W43940  15.593  12.945   5.550 -0.0757  0.1688  0.0009
  888W        W43941  25.098  24.063   9.617 -0.1078  0.1744  0.0269
  889W        W43942  12.369  29.673   4.951 -0.0111  0.1703  0.0499
  890W        W43943  23.173  24.970  21.957  0.2300  0.1140  0.2701
  891W        W43944  11.722  13.836   4.048  0.1546  0.0040 -0.1102
  892W        W43945  20.941  27.167   9.317  0.1760 -0.0367  0.2607
  893W        W43946  16.537  15.917   6.134 -0.1691 -0.1793 -0.0031
  894W        W43947  29.524   5.688   9.117 -0.0944  0.4685 -0.0874
  895W        W43948  14.270  16.763   4.962  0.2192 -0.0144  0.0254
  896W        W43949  23.829   2.174  27.981  0.4466  0.1023 -0.0108
  897W        W43950  22.462  30.392   5.060  0.1610 -0.0052 -0.0378
  898W        W43951   2.338  19.850  24.971 -0.0378  0.0568 -0.0937
  899W        W43952  24.661  11.753  25.376 -0.0043  0.0196 -0.0296
  900W        W43953  22.955  14.295  28.151 -0.2204 -0.2512 -0.1515
  901W        W43954  16.155  12.987  25.727 -0.0759  0.3800 -0.2146
  902W        W43955  16.437  32.109   3.369  0.3241  0.1720 -0.2038
  903W        W43956  29.130  32.030   8.636 -0.2403 -0.1144  0.0536
  904W        W43957  24.025  11.336   8.972 -0.0041 -0.3135  0.0059
  905W        W43958   9.897  13.077   6.059 -0.0617  0.0826 -0.0842
  906W        W43959  23.051  33.411  10.447  0.2113 -0.1064 -0.1806
  907W        W43960  19.563   2.360   0.151  0.1738 -0.0634  0.2822
  908W        W43961  15.581  27.601   9.984 -0.1888 -0.1213 -0.1913
  909W        W43962  10.401  21.131  14.253 -0.0603 -0.0334 -0.1940
  910W        W43963  24.352  34.318   6.004 -0.4142  0.0048  0.0005
  911W        W43964  18.441  19.671  21.808 -0.0797 -0.2050  0.1495
  912W        W43965  15.715  10.608   2.909 -0.1798  0.1735 -0.2397
  913W        W43966  21.562  13.726   8.836 -0.0792  0.1055  0.0367
  914W        W43967  19.491  23.612   3.369 -0.2589 -0.0097 -0.0310
  915W        W43968   5.174  18.782   0.896 -0.2728  0.0487  0.0060
  916W        W43969  16.780  11.957   9.321  0.2046  0.1138 -0.0481
  917W        W43970  26.134  13.954   4.344 -0.3392  0.0119  0.1481
  918W        W43971  16.616   2.200   5.096  0.0336 -0.0952 -0.0961
  919W        W43972  19.152  20.777   6.194  0.3017 -0.1637  0.0344
  920W        W43973  11.321  15.841   1.786 -0.0284 -0.1147 -0.0958
  921W        W43974  22.882  14.793   7.734  0.0740  0.0646  0.1125
  922W        W43975  21.408  19.136  28.124 -0.2101  0.3728 -0.1823
  923W        W43976   7.348  17.974   6.400 -0.0354  0.2096  0.1676
  924W        W43977  29.386  14.180  25.264 -0.1608  0.1630 -0.2401
  925W        W43978  10.775   2.471   9.309  0.0607 -0.0828 -0.0864
  926W        W43979  26.087  24.592  23.225 -0.2641 -0.3745  0.0749
  927W        W43980   7.171  27.477   1.387  0.0964  0.5438  0.1578
  928W        W43981  16.783  16.766   4.525 -0.0063 -0.3169  0.2112
  929W        W43982  13.917   9.438   8.604  0.4501  0.1443  0.1692
  930W        W43983   8.485  10.720   1.612  0.1245  0.0601  0.1909
  931W        W43984  10.671  17.872   8.379 -0.0544  0.4646  0.1466
  932W        W43985  18.725  24.075   3.220  0.1395  0.0381  0.0021
  933W        W43986  11.286  10.638   4.685 -0.2548 -0.1266  0.1098
  934W        W43987  25.942   2.971  25.531 -0.1762  0.0151 -0.1015
  935W        W43988  20.632  33.747   7.094 -0.2824  0.0394 -0.0965
  936W        W43989  33.305  12.374   7.760  0.0299 -0.3214  0.1426
  937W        W43990  17.842  33.315   1.172 -0.2139 -0.2695  0.0896
  938W        W43991  23.413  12.264  10.065  0.0290 -0.0282 -0.3222
  939W        W43992  13.718  17.946   5.653  0.2940  0.1003 -0.1203
  940W        W43993  15.790  20.884  28.000 -0.0293 -0.0284  0.1547
  941W        W43994  15.535  16.283   8.650  0.0796  0.1161 -0.0410
  942W        W43995  21.209  21.679   4.473  0.1592 -0.1023 -0.0192
  943W        W43996  22.171   4.044  10.001 -0.1817  0.0822 -0.1275
  944W        W43997  21.555  33.632   2.264 -0.2876 -0.1047 -0.2005
  945W        W43998  19.451  28.937   1.543 -0.3401 -0.2663 -0.1231
  946W        W43999  14.901  10.661   4.006  0.2242  0.2222 -0.2842
  947W        W44000   4.938  21.163   3.218 -0.0723 -0.2558 -0.0257
  948W        W44001  27.432   5.518   9.798 -0.0343 -0.0706  0.3230
  949W        W44002  28.999  33.020  26.288  0.0832 -0.1690  0.3095
  950W        W44003   9.663  12.144   7.823  0.0838  0.0807 -0.0505
  951W        W44004  14.522  11.587   0.330 -0.2477 -0.0679  0.1741
  952W        W44005   8.775  10.917  29.088 -0.5631 -0.1417  0.0459
  953W        W44006   5.697  16.866  28.859  0.1053 -0.0082 -0.2001
  954W        W44007  32.934  21.437   7.123  0.1089  0.3088 -0.0053
  955W        W44008  29.823  20.130   9.817 -0.1861 -0.3929  0.2631
  956W        W44009  28.402  31.888  27.596 -0.2930  0.1940 -0.1259
  957W        W44010  19.322  27.748  26.996 -0.0905  0.3543  0.1174
  958W        W44011   3.585  24.296   8.429  0.1870  0.0601  0.1635
  959W        W44012   2.475  30.290   8.242 -0.2087 -0.1031  0.0412
  960W        W44013  13.087  14.374  16.319  0.1058  0.5016 -0.1891
  961W        W44014  14.861   6.762   0.366 -0.0644 -0.2781  0.1715
  962W        W44015  15.384  17.671  29.127  0.1805 -0.3391  0.0477
  963W        W44016  14.285  17.237   0.804  0.4437  0.0707  0.4064
  964W        W44017  14.279  22.339   6.543  0.1255  0.0615 -0.0533
  965W        W44018  20.910  31.978   6.116  0.1290  0.1187 -0.2364
  966W        W44019  13.787  16.328  25.339  0.2012 -0.0504  0.0585
  967W        W44020   7.802  16.721  22.719 -0.0449 -0.1720  0.0798
  968W        W44021  14.961   1.744   6.092 -0.1174  0.0744  0.0889
  969W        W44022  17.423   6.528   8.613 -0.1030 -0.1670  0.1444
  970W        W44023  31.801  30.870  23.982  0.0236  0.0790  0.4020
  971W        W44024  21.562   3.865  16.895  0.5384  0.1383  0.1046
  972W        W44025   1.506   7.369   0.939  0.0600 -0.0931 -0.1521
  973W        W44026  32.562  12.820   8.330 -0.0866  0.0019 -0.0358
  974W        W44027  15.648   8.704  28.756 -0.2015  0.1583  0.3141
  975W        W44028  20.724   6.600  19.295 -0.1208  0.1319  0.1908
  976W        W44029  33.084   5.402  22.155  0.2181  0.1187  0.3560
  977W        W44030   1.028  32.344   9.273  0.0922 -0.2165  0.2005
  978W        W44031  25.537   7.533   8.948  0.0057  0.1191 -0.1317
  979W        W44032  15.492   7.478   6.063  0.1222  0.1591  0.2812
  980W        W44033   5.626  13.294  29.013  0.0785  0.0323 -0.1313
  981W        W44034   9.795  14.483   8.277 -0.1066  0.0916 -0.1818
  982W        W44035  28.827  11.184   9.845 -0.4896 -0.4957  0.1345
  983W        W44036   5.015   9.809   5.032 -0.3809  0.1081 -0.0031
  984W        W44037  11.934   5.170   7.797 -0.1666 -0.1479 -0.0769
  985W        W44038  12.521  19.114   9.736  0.2327  0.0162  0.0506
  986W        W44039  20.405  11.842  25.687 -0.1452  0.1017  0.3386
  987W        W44040  24.290   5.200   5.976 -0.0251  0.0955  0.2591
  988W        W44041  18.668  15.608  24.991  0.2840  0.1038 -0.0331
  989W        W44042  22.740  14.532   3.009  0.1103  0.4119 -0.1255
  990W        W44043  14.894  14.310   2.557 -0.1502  0.0102 -0.0737
  991W        W44044  22.567  32.683   3.861 -0.0052  0.1173 -0.0502
  992W        W44045  11.510   7.043   7.465  0.0526  0.0511 -0.3508
  993W        W44046   1.556   2.500   9.139 -0.1375  0.3752  0.1363
  994W        W44047  27.033   1.411   6.163 -0.0618  0.0468  0.1412
  995W        W44048  30.065   5.469   0.373 -0.1009  0.2249  0.0556
  996W        W44049  17.486   1.438  21.631  0.0691 -0.0968  0.1571
  997W        W44050  13.743  26.796   2.278 -0.1409  0.2280  0.1014
  998W        W44051  17.848  21.924  26.688  0.1787  0.3762 -0.2050
  999W        W44052   9.566  16.681  25.070 -0.4129  0.1291 -0.1899
 1000W        W44053  13.625  12.773   0.014  0.0039 -0.2548 -0.0438
 1001W        W44054  11.884  18.547  23.645  0.0030 -0.1019  0.1337
 1002W        W44055  26.830  13.382  25.273  0.4393 -0.2955 -0.2317
 1003W        W44056   5.346   1.528  26.972  0.1957  0.1762  0.1199
 1004W        W44057   7.201  14.654   7.252  0.0593 -0.1287  0.0133
 1005W        W44058  22.767  23.070  28.833 -0.1320  0.0176 -0.5678
 1006W        W44059  15.966  15.229   6.985  0.1187  0.1080  0.2943
 1007W        W44060  10.362  18.528   3.239  0.2771  0.3077 -0.0488
 1008W        W44061   8.086  10.029   4.095 -0.0043  0.0947 -0.0124
 1009W        W44062  33.930  18.327   3.018  0.0621  0.0209  0.1626
 1010W        W44063  18.885   7.706   1.322 -0.0453 -0.1399 -0.0414
 1011W        W44064  13.667   6.623   0.076 -0.1480  0.1625 -0.4007
 1012W        W44065  34.305   5.141   6.427  0.5339 -0.0056 -0.1536
 1013W        W44066  24.254   7.373  18.914 -0.1626 -0.5046 -0.0049
 1014W        W44067  11.043  33.812   0.074  0.2015  0.2873 -0.3622
 1015W        W44068  19.580   7.359   8.819 -0.0241  0.0811  0.1569
 1016W        W44069   6.748  16.664   6.871 -0.2438  0.2240  0.0536
 1017W        W44070  16.974  20.895   2.783 -0.0602  0.3446  0.2223
 1018W        W44071  28.768  30.745  29.024 -0.2771 -0.2770  0.1463
 1019W        W44072   3.105   8.605  27.582  0.4206  0.1192  0.2112
 1020W        W44073  21.262  16.694   2.724 -0.0530 -0.2848  0.0252
 1021W        W44074   5.291  11.866   1.944  0.0984  0.0731  0.1340
 1022W        W44075  16.700   5.267   4.403 -0.1643 -0.3825  0.0060
 1023W        W44076  14.423  26.721  27.378  0.0351 -0.1293 -0.1805
 1024W        W44077  12.113  13.771  26.831  0.0827  0.2015  0.2679
 1025W        W44078  14.802  27.219  20.238  0.2248  0.1473 -0.2603
 1026W        W44079  27.194   7.607   5.038 -0.2763  0.0556 -0.2741
 1027W        W44080  25.944  15.702   4.357  0.1187 -0.0466  0.0645
 1028W        W44081   5.699   7.755  21.527  0.0863 -0.0867  0.4034
 1029W        W44082  17.319  22.182  16.707 -0.1237 -0.0048  0.1257
 1030W        W44083  20.992  20.987   1.429 -0.2204 -0.2351  0.0065
 1031W        W44084   2.950  22.137  22.253 -0.0147  0.0811  0.5116
 1032W        W44085   6.813  17.250  27.557 -0.0168  0.1066  0.0185
 1033W        W44086  27.460   9.890  23.021  0.0922 -0.0592 -0.2411
 1034W        W44087   8.612  33.876   5.466 -0.1251  0.3132  0.1793
 1035W        W44088  18.829  15.593   4.091  0.0374 -0.0922  0.4067
 1036W        W44089  11.831  20.385   9.286 -0.2083  0.1657 -0.3770
 1037W        W44090  16.525  22.052   1.217  0.1393 -0.1753 -0.1210
 1038W        W44091  34.454  13.587   3.649  0.4914  0.1169 -0.1217
 1039W        W44092  10.269  18.250   5.511 -0.0439 -0.1090  0.2477
 1040W        W44093  26.275  14.936   8.852 -0.1588  0.1513  0.0258
 1041W        W44094  22.273  20.394   0.932  0.1525 -0.0656 -0.0662
 1042W        W44095  12.662  16.981   1.438 -0.1750 -0.1876 -0.1345
 1043W        W44096  19.586  10.027   5.400  0.1533  0.1754  0.0422
 1044W        W44097  28.546   4.623   3.641 -0.2232  0.0273 -0.1428
 1045W        W44098  24.455  13.539  28.536  0.0522  0.0283  0.0410
 1046W        W44099  25.403  15.786   5.508  0.2501 -0.1221  0.0421
 1047W        W44100  10.813   5.901   8.246  0.1802 -0.3406 -0.3775
 1048W        W44101  12.123  16.417   3.651 -0.0552 -0.1243  0.0041
 1049W        W44102  13.425  21.719  26.362  0.5278 -0.0245 -0.0790
 1050W        W44103   4.571  31.024   2.144  0.3530 -0.0421  0.0021
 1051W        W44104  32.365  32.713   4.249 -0.3661  0.2554 -0.3156
 1052W        W44105  34.450   7.867   7.717 -0.1186  0.1169 -0.3952
 1053W        W44106  27.700  25.070  27.888 -0.3060 -0.1155  0.0867
 1054W        W44107  29.052  23.503   0.800  0.0481  0.3457  0.2254
 1055W        W44108   5.045  15.089   6.140  0.1385  0.1968  0.4067
 1056W        W44109   3.048  30.782   7.982 -0.0741  0.1200  0.0951
 1057W        W44110  12.006   4.515   3.093  0.0548  0.2862 -0.0810
 1058W        W44111  18.674  10.435  28.522  0.0146 -0.0840  0.1867
 1059W        W44112  23.651  12.340   7.450  0.0619 -0.0163 -0.2232
 1060W        W44113  11.141  12.103  10.476 -0.0842  0.2659 -0.1496
 1061W        W44114   5.194  17.256  16.224  0.0666 -0.1973 -0.1742
 1062W        W44115  25.438  17.094  25.619  0.3068 -0.0992  0.1002
 1063W        W44116  17.607   8.154  28.910  0.0637 -0.0296  0.1423
 1064W        W44117  18.229  24.905   6.539  0.1214  0.1790  0.0249
 1065W        W44118  11.988  20.885  19.137  0.0229  0.3972  0.0981
 1066W        W44119  29.334   5.389  17.686 -0.0089 -0.0931  0.0453
 1067W        W44120  31.179  33.587  21.220  0.1805  0.1844  0.5346
 1068W        W44121  13.765   9.928   8.677  0.2848 -0.0397 -0.0390
 1069W        W44122  12.856   8.384  10.046 -0.1585  0.0740  0.0170
 1070W        W44123   6.856  14.440   1.419  0.3410 -0.2106 -0.2325
 1071W        W44124  26.971  24.021   0.526  0.1905  0.2761  0.2618
 1072W        W44125  30.968   7.547   7.914 -0.1944  0.2215  0.1936
 1073W        W44126  31.935  11.899   7.296  0.5144 -0.0307 -0.5226
 1074W        W44127  11.741  29.684   7.623 -0.2609  0.0595  0.2050
 1075W        W44128  20.239  19.880   2.475 -0.0089  0.2180  0.0603
 1076W        W44129  12.162   5.000  29.013  0.0085  0.0000  0.3447
 1077W        W44130   6.697  15.003  23.759  0.0615 -0.2871  0.4426
 1078W        W44131   8.125  34.072   6.123  0.0370 -0.1090  0.0941
 1079W        W44132  21.373  25.563   7.724 -0.0984 -0.2769  0.1563
 1080W        W44133  33.541   3.930   9.835  0.1370  0.3620 -0.3303
 1081W        W44134  21.174  31.654   5.893  0.0376  0.0479 -0.0557
 1082W        W44135  13.826  10.993   1.399 -0.0946  0.2237 -0.0834
 1083W        W44136  16.499   3.247   6.124 -0.1935  0.0429  0.0687
 1084W        W44137   4.488   4.154   0.230 -0.2485  0.0618 -0.0297
 1085W        W44138  21.323   1.360   8.056  0.2201 -0.1876 -0.1288
 1086W        W44139  28.610  18.529   3.165 -0.1231  0.1212  0.2041
 1087W        W44140   9.769  12.119   5.609 -0.2025  0.0473 -0.2066
 1088W        W44141  26.735  26.609   7.096  0.2240 -0.3088 -0.1841
 1089W        W44142  27.715  10.883  10.950 -0.0515  0.0671  0.1484
 1090W        W44143  27.592  19.190  16.758  0.2007  0.1843  0.4370
 1091W        W44144  19.714  32.116   5.589 -0.1288 -0.1666  0.0547
 1092W        W44145   0.981  27.874  29.194  0.2082 -0.0393 -0.0382
 1093W        W44146  28.096  18.185   0.680  0.2311 -0.1425  0.1421
 1094W        W44147  34.130   3.046   4.669 -0.1718 -0.0439  0.3038
 1095W        W44148  16.387   1.858   2.397  0.1351  0.2253 -0.1241
 1096W        W44149  16.598  17.987   4.032 -0.0759 -0.1033  0.0105
 1097W        W44150  24.104  33.025  20.526  0.0953 -0.2300  0.2968
 1098W        W44151  10.563   6.271   4.322 -0.0715 -0.1977  0.4939
 1099W        W44152   9.323  14.471   8.451 -0.0146 -0.0739  0.0740
 1100W        W44153   6.589  23.577  25.188 -0.1397 -0.0386  0.0671
 1101W        W44154  11.325  19.435   6.493  0.0292  0.1307 -0.0088
 1102W        W44155  16.561  20.655   0.982 -0.2334  0.0449 -0.3529
 1103W        W44156  18.432  28.316   2.585 -0.1574  0.1815 -0.1672
 1104W        W44157  22.566  18.481   5.733  0.2205  0.1977  0.0804
 1105W        W44158  11.424   5.170   4.092  0.6803  0.0779 -0.2063
 1106W        W44159  21.160  24.170  27.825 -0.0198 -0.0287  0.0409
 1107W        W44160  23.544  13.319   5.573  0.0229  0.1091  0.1305
 1108W        W44161  17.498  12.351  28.992 -0.1819  0.1798  0.1372
 1109W        W44162   5.281  21.103   9.171 -0.2374  0.1018  0.1753
 1110W        W44163  29.321  15.716   5.808 -0.0226  0.2345 -0.0207
 1111W        W44164   4.686  21.698   8.231 -0.0382 -0.2298 -0.0235
 1112W        W44165  16.628  18.749  22.476 -0.1738  0.0261  0.1132
 1113W        W44166  34.303  10.083  10.326 -0.0172  0.0534  0.4197
 1114W        W44167  13.682  17.780   1.676  0.0228  0.0725 -0.1410
 1115W        W44168  26.399  32.246   1.478  0.1264 -0.2477 -0.0841
 1116W        W44169  11.279   2.188   7.942 -0.4145  0.0245 -0.2222
 1117W        W44170   7.707  18.053   1.198  0.0922  0.1915  0.3497
 1118W        W44171  32.615  29.264  26.111 -0.1110 -0.3511  0.1620
 1119W        W44172  29.541  17.486  26.065 -0.0663  0.3748  0.4845
 1120W        W44173  30.527  22.285   6.074 -0.0024  0.3023  0.1909
 1121W        W44174   8.935  19.560   7.375 -0.0188  0.0699  0.0970
 1122W        W44175   3.792   0.103   4.544 -0.0710 -0.2516 -0.0365
 1123W        W44176  27.092  15.274   7.374  0.0644  0.0861 -0.0386
 1124W        W44177  11.613   4.996   3.713  0.0721 -0.1295  0.2761
 1125W        W44178  24.361  29.371   6.220  0.1152  0.0517  0.2178
 1126W        W44179  17.881  26.942  24.733 -0.4018 -0.2935  0.2045
 1127W        W44180  22.901  17.331  28.004  0.0296  0.1544 -0.0026
 1128W        W44181  15.654   4.890   3.892 -0.2385  0.1143 -0.0007
 1129W        W44182  24.451  26.195  17.813  0.1113 -0.0225 -0.0523
 1130W        W44183  11.387  21.479   7.989 -0.1100 -0.0492 -0.1532
 1131W        W44184   8.977  20.369   2.393  0.0132 -0.1052  0.0532
 1132W        W44185   0.591  27.414  15.699  0.1338  0.2634 -0.1590
 1133W        W44186   8.131  21.465   4.704 -0.0900  0.1089  0.2944
 1134W        W44187   6.196  22.458   3.463 -0.0823  0.0711 -0.0165
 1135W        W44188   9.078  26.305   8.376  0.0349 -0.1239  0.2052
 1136W        W44189  18.854   2.565   9.086  0.0196  0.0969 -0.0608
 1137W        W44190  18.309  25.017   9.405  0.0347  0.2791  0.0238
 1138W        W44191  18.724   8.087   4.613  0.2585  0.0556 -0.0706
 1139W        W44192  16.836  15.641   9.787  0.0972  0.1803 -0.1396
 1140W        W44193  17.085  14.403  26.267  0.1009 -0.0099  0.2263
 1141W        W44194  23.136  12.067   9.007  0.1878  0.1020  0.1022
 1142W        W44195   8.523  33.896  14.758  0.0698 -0.1809 -0.0231
 1143W        W44196  24.804  18.425  21.490  0.2040 -0.4648 -0.2889
 1144W        W44197  20.206  12.988   6.940  0.3231 -0.2177  0.1921
 1145W        W44198  30.703   9.639   4.125 -0.0995  0.0532 -0.1495
 1146W        W44199  19.203  32.319   8.642 -0.0496  0.0333  0.0057
 1147W        W44200   3.899   1.359   6.333 -0.1111  0.0674  0.0891
 1148W        W44201  30.438  13.901  28.001  0.1760 -0.1477  0.0126
 1149W        W44202   0.173  29.729   3.683 -0.1827 -0.2572  0.0496
 1150W        W44203  29.774   5.043   3.453 -0.1485  0.0474 -0.3415
 1151W        W44204   6.931   8.719   8.381 -0.2909 -0.1996 -0.0941
 1152W        W44205   7.239   8.047   7.009  0.0546  0.0429  0.1323
 1153W        W44206  12.861  27.855   1.381  0.0191  0.1237  0.0952
 1154W        W44207  27.921  16.634   6.225 -0.1650  0.1233 -0.1751
 1155W        W44208  10.851   5.682  23.454 -0.4023  0.0490  0.0907
 1156W        W44209   6.695  17.601  28.212  0.1809  0.1349  0.0694
 1157W        W44210  29.251   5.110   5.147 -0.3081  0.0027  0.1213
 1158W        W44211  28.899   7.661   7.188 -0.1977  0.0039  0.0932
 1159W        W44212   8.788   9.923   6.624  0.0577 -0.4301  0.2484
 1160W        W44213  11.986  14.510  10.322  0.3010 -0.1952  0.1897
 1161W        W44214  11.760  16.082   7.591 -0.0377 -0.1492  0.0229
 1162W        W44215  20.573   5.528   1.873  0.2050  0.0991 -0.0836
 1163W        W44216  25.039   3.469   7.192  0.0381  0.0002 -0.0505
 1164W        W44217   8.560  10.422  26.255  0.1040 -0.5106 -0.1489
 1165W        W44218  10.828  16.913   0.890 -0.2138  0.3504  0.0354
 1166W        W44219  23.003  17.485   3.871  0.1066 -0.0938  0.1596
 1167W        W44220   9.465   1.476   4.904  0.0047  0.1056  0.0926
 1168W        W44221  19.050  18.622  25.262 -0.2743 -0.1917 -0.1651
 1169W        W44222  21.200  20.365  28.010  0.0528  0.0236  0.3008
 1170W        W44223  25.776   8.217   6.707 -0.0620  0.0143 -0.0015
 1171W        W44224  27.263  31.518   0.902 -0.0854  0.0799  0.3210
 1172W        W44225  22.892  15.964  26.187  0.0354 -0.1114  0.1037
 1173W        W44226  21.533  26.851   9.409 -0.3001  0.0150 -0.1229
 1174W        W44227  21.193  28.808  14.193 -0.0385  0.3054  0.2493
 1175W        W44228   7.245  16.492   7.014 -0.0216  0.2248  0.0719
 1176W        W44229   6.788   6.890  19.787 -0.2220 -0.0815 -0.1872
 1177W        W44230  19.661  13.017   1.544 -0.0293 -0.1822  0.0298
 1178W        W44231  25.317   2.878   2.413 -0.4232 -0.0176 -0.1831
 1179W        W44232  27.640   3.435   5.351  0.1981  0.0348 -0.1285
 1180W        W44233   8.919  17.892   5.001 -0.1217 -0.2069 -0.0803
 1181W        W44234  20.947  11.022  16.287 -0.0581 -0.1076  0.3483
 1182W        W44235  12.623   4.015  24.331 -0.0035  0.1589 -0.0503
 1183W        W44236   3.400  13.237  29.178  0.0325  0.2524  0.1767
 1184W        W44237  17.889   8.719   6.839 -0.2114  0.3324  0.2012
 1185W        W44238   5.943   7.476   1.990 -0.0205 -0.1297  0.2376
 1186W        W44239  22.424   6.549   9.871  0.0613 -0.1897 -0.0665
 1187W        W44240  10.854   7.738   0.282  0.0490  0.0934 -0.1790
 1188W        W44241  13.121  10.353   4.093  0.1585  0.2461  0.1020
 1189W        W44242  10.497  10.715   3.621  0.2525 -0.3317 -0.0953
 1190W        W44243  16.337  13.119   8.561 -0.1019 -0.1488 -0.0149
 1191W        W44244  22.176   5.357  16.790 -0.1918 -0.0123  0.0926
 1192W        W44245  12.715   9.674  26.066  0.2259 -0.1270  0.0009
 1193W        W44246   1.139   5.354   7.517 -0.0818 -0.4233  0.2378
 1194W        W44247  30.488  11.728  10.840  0.1006  0.1965  0.2120
 1195W        W44248  18.236  30.194  21.387  0.0589 -0.2430 -0.0915
 1196W        W44249  18.510  13.981   3.829  0.0672 -0.1267 -0.0442
 1197W        W44250  27.095  33.964  27.083  0.0344  0.0496  0.3308
 1198W        W44251  32.304   9.810   3.830  0.2785  0.1276  0.0124
 1199W        W44252   2.511  20.696   3.029  0.0249 -0.1604  0.0243
 1200W        W44253   2.871   9.092   5.315  0.4751 -0.1423 -0.0440
 1201W        W44254   5.826  15.708  24.436  0.0076  0.1449 -0.0960
 1202W        W44255   1.102  28.867  28.383  0.1096 -0.2717  0.0537
 1203W        W44256  16.734  22.262  18.427  0.0181 -0.0982 -0.4525
 1204W        W44257  27.373  14.171  23.163 -0.0287  0.1069 -0.0771
 1205W        W44258  14.113  17.015  17.601 -0.1007  0.0137  0.1335
 1206W        W44259   6.184  19.044  20.678  0.1450  0.2485 -0.2528
 1207W        W44260  20.015   6.859   7.456 -0.0282  0.0794 -0.1733
 1208W        W44261  11.407  10.588  23.661 -0.2386  0.5269  0.0341
 1209W        W44262  13.528   7.754  26.638 -0.1713 -0.3899  0.0013
 1210W        W44263   5.313  21.887  27.746  0.1422 -0.0059 -0.1846
 1211W        W44264  33.248  29.013  24.232  0.2551  0.1097 -0.1204
 1212W        W44265  15.411   9.746   8.156  0.2429 -0.0925 -0.1033
 1213W        W44266   1.836  20.590  23.159 -0.2888  0.0036  0.0360
 1214W        W44267   2.288   5.169   4.071 -0.0882 -0.0794  0.0331
 1215W        W44268  33.904  33.605   8.436 -0.1796 -0.0180  0.1473
 1216W        W44269   6.177  10.825   8.841 -0.0618  0.1301  0.1372
 1217W        W44270   7.890   4.940  10.227  0.3454 -0.3037 -0.2450
 1218W        W44271  19.590  27.388  27.331 -0.0183  0.1963 -0.0112
 1219W        W44272  22.364   6.028  14.919 -0.0652 -0.3055  0.2327
 1220W        W44273   5.628   8.674  22.346  0.1415 -0.0227 -0.0521
 1221W        W44274   6.391   5.982   7.590 -0.2248  0.0771 -0.0082
 1222W        W44275   7.459  23.306  19.909 -0.1747  0.0207  0.1289
 1223W        W44276   9.451  19.097  22.642  0.0005  0.2133 -0.2530
 1224W        W44277  21.647  12.138  27.795  0.0525 -0.1426 -0.1470
 1225W        W44278  14.124   4.065   5.458 -0.0325  0.0124  0.1123
 1226W        W44279  22.570   8.043   0.990 -0.1536 -0.0058  0.1131
 1227W        W44280  24.698   4.793  14.394 -0.0542 -0.0048  0.1932
 1228W        W44281   4.755   8.040  29.101  0.1582  0.0179 -0.3684
 1229W        W44282  16.169  31.358  10.229  0.0468 -0.3647  0.1154
 1230W        W44283  18.397  22.498  23.257 -0.4237  0.2590 -0.3141
 1231W        W44284  31.393   5.660   5.131 -0.3897 -0.0127  0.2415
 1232W        W44285  31.557  33.202   0.605  0.0094 -0.2010  0.3920
 1233W        W44286  19.079   5.525   3.217  0.2846  0.1453  0.1525
 1234W        W44287   3.750   0.297  27.941  0.1773 -0.0701  0.0336
 1235W        W44288   5.957  17.173   8.245  0.1155  0.0196 -0.0245
 1236W        W44289  14.611   3.647   8.058 -0.1438 -0.3969  0.0492
 1237W        W44290  33.274   8.636   4.733  0.2519  0.1085 -0.2790
 1238W        W44291   7.936  22.678   7.385  0.1863 -0.2102  0.4324
 1239W        W44292   3.343  22.205  25.684 -0.2300  0.0953  0.0891
 1240W        W44293  19.374  10.952  25.281 -0.0189  0.2320  0.0853
 1241W        W44294  10.745  15.963   5.906 -0.2546  0.3647 -0.0107
 1242W        W44295  23.030  11.806  27.469 -0.0045 -0.2088 -0.3323
 1243W        W44296  19.927  10.746  21.935 -0.1237  0.0634  0.1660
 1244W        W44297  19.928   0.746   9.208 -0.0456 -0.1528 -0.1575
 1245W        W44298  18.001  23.644   0.984 -0.1384  0.1418  0.0708
 1246W        W44299  13.037  14.127  19.806 -0.1160 -0.3440  0.0834
 1247W        W44300   3.808  13.754   1.960  0.0428 -0.1823 -0.1959
 1248W        W44301  20.025   3.656  17.036  0.1118  0.2102 -0.0142
 1249W        W44302  25.623   3.866  26.752 -0.3048 -0.0749 -0.0671
 1250W        W44303  12.481  19.040   0.075 -0.0771 -0.1117  0.0333
 1251W        W44304   9.785   6.456   7.367  0.2078  0.0888 -0.1233
 1252W        W44305  18.258  11.897   5.255 -0.0630 -0.0552  0.0780
 1253W        W44306  10.874  17.425   1.525  0.0409  0.0084  0.1343
 1254W        W44307   4.493  10.277   6.670 -0.3013  0.1107  0.1322
 1255W        W44308  18.122  24.395  28.733  0.1060 -0.1479 -0.0556
 1256W        W44309  23.394  14.729  20.431  0.2443  0.0989 -0.0875
 1257W        W44310  32.696  20.280  14.109  0.3359  0.0334 -0.0255
 1258W        W44311  14.431  12.822   5.316 -0.1047  0.2121 -0.3708
 1259W        W44312  25.107  18.892  15.122  0.1160  0.0281  0.3507
 1260W        W44313  17.941   2.238   3.956  0.1819  0.0721 -0.0495
 1261W        W44314   8.861  19.011   2.529 -0.0396 -0.1308  0.5461
 1262W        W44315  23.352  12.560  17.555 -0.0520  0.3195 -0.1399
 1263W        W44316  17.544   5.251  17.568  0.1024  0.0231  0.0469
 1264W        W44317  21.039   1.033  28.448  0.1597 -0.1088 -0.0576
 1265W        W44318  23.139   9.664   4.005 -0.2660  0.4707  0.0800
 1266W        W44319  18.423  28.469   9.541  0.3490 -0.5062  0.2584
 1267W        W44320   7.903  18.582   1.340  0.0339  0.0564  0.0072
 1268W        W44321  27.461   3.866   3.913  0.0927  0.1381  0.1886
 1269W        W44322   9.714   9.279   9.528 -0.0399 -0.0524  0.0016
 1270W        W44323  24.853   2.654   5.088  0.0766  0.2527 -0.1264
 1271W        W44324  21.193  33.923  25.917 -0.0486  0.1595  0.3088
 1272W        W44325  29.693  16.102   0.941  0.0621  0.0357 -0.3186
 1273W        W44326  22.953   2.368   2.421 -0.0686 -0.1975  0.1716
 1274W        W44327  11.777   4.439   4.553 -0.1346  0.0569 -0.1165
 1275W        W44328  16.671  12.623  23.099  0.1250  0.0059  0.2821
 1276W        W44329   9.315  18.462  10.104  0.2348 -0.3436  0.2636
 1277W        W44330  20.738   7.904  10.710  0.0367  0.0518  0.2870
 1278W        W44331  17.074  13.328  22.642 -0.0161 -0.1401 -0.1416
 1279W        W44332  10.377  17.276  23.763 -0.0278 -0.1086 -0.0777
 1280W        W44333  17.009  10.657   3.946  0.1127  0.0742 -0.1331
 1281W        W44334  20.609   4.377   5.445  0.0022  0.2501 -0.0315
 1282W        W44335  30.152  33.979  28.783 -0.0022 -0.3861  0.1144
 1283W        W44336  17.105  14.794  12.619  0.0424 -0.1540 -0.3969
 1284W        W44337  21.386   5.635   5.600 -0.1547 -0.0407 -0.1707
 1285W        W44338  30.730  13.799   0.727  0.0293 -0.5741  0.0395
 1286W        W44339   8.646  15.256  24.362 -0.2168 -0.2183  0.1122
 1287W        W44340  33.464  23.994   1.977 -0.0470  0.2833 -0.0868
 1288W        W44341  18.050  20.861  27.322 -0.1949  0.0209  0.2705
 1289W        W44342  11.202  18.490   7.208  0.0778  0.3014 -0.2026
 1290W        W44343  26.849   9.639   5.648 -0.0029 -0.3477 -0.1449
 1291W        W44344  17.927  31.110   4.349 -0.1806 -0.1112 -0.1304
 1292W        W44345   3.471  15.728  15.257 -0.0830 -0.2249 -0.1962
 1293W        W44346  11.999  22.280  26.638  0.2058 -0.1032  0.0911
 1294W        W44347  27.527  22.123   1.084 -0.1955  0.0497  0.2438
 1295W        W44348  22.667  15.906   7.879  0.1036  0.0648 -0.0844
 1296W        W44349  20.728   9.124  23.569  0.2052  0.0429 -0.1895
 1297W        W44350  12.532   6.256   5.778  0.0770  0.2322 -0.0398
 1298W        W44351  29.064  14.958   0.277  0.3426  0.2250  0.2335
 1299W        W44352  18.780  20.492   2.874 -0.1975 -0.2247 -0.0789
 1300W        W44353  25.477   6.029   6.502  0.1060  0.0050  0.0517
 1301W        W44354   2.041  19.122   3.699  0.3829  0.1025 -0.4147
 1302W        W44355  14.781  12.337  10.811  0.3895  0.1998 -0.1813
 1303W        W44356  25.875  11.785   6.443  0.1229 -0.0924 -0.1069
 1304W        W44357  10.320  15.556   9.059  0.0652 -0.2365 -0.0814
 1305W        W44358   1.331  31.933  21.819 -0.2017  0.0572  0.3422
 1306W        W44359  29.339  11.648   3.606  0.1888 -0.0582  0.1302
 1307W        W44360  15.717   2.792   4.658 -0.2228 -0.1037  0.2635
 1308W        W44361  20.152   6.834   5.732 -0.2282 -0.1111  0.0878
 1309W        W44362   0.194  16.883   6.888  0.0101  0.1027  0.4052
 1310W        W44363  25.835  14.183  25.330 -0.2984  0.0898  0.0181
 1311W        W44364  24.745  24.608   7.949  0.0803  0.0195 -0.2696
 1312W        W44365   2.936   5.542   9.838 -0.1999  0.2650  0.0438
 1313W        W44366  11.356  16.206  29.032  0.0588  0.1024 -0.0391
 1314W        W44367   4.733   6.697  16.673  0.0792  0.2271 -0.1787
 1315W        W44368  20.803   8.975   4.039 -0.2457 -0.2857 -0.2667
 1316W        W44369   4.531   8.489  28.694 -0.1757 -0.0671  0.1121
 1317W        W44370  20.274   4.527   2.215  0.0858 -0.2541 -0.2392
 1318W        W44371  18.888  24.844   7.350 -0.0286  0.1350 -0.3470
 1319W        W44372   9.540  14.003   4.654 -0.0509  0.2126 -0.0591
 1320W        W44373  20.775  14.068   5.206 -0.1039  0.0094  0.1256
 1321W        W44374   1.558  15.214   7.219 -0.2133 -0.1921 -0.2074
 1322W        W44375  10.965  31.078   8.754  0.1466 -0.1566 -0.2693
 1323W        W44376  15.561   1.490  26.572  0.0604  0.3045 -0.0666
 1324W        W44377  14.158  19.440  22.422  0.1427 -0.2203 -0.6522
 1325W        W44378  17.798  19.806   7.301 -0.0982  0.2962 -0.0506
 1326W        W44379  25.687   4.176  21.796 -0.2941  0.4371 -0.3453
 1327W        W44380  16.286   4.008  28.403 -0.1288  0.0987  0.3867
 1328W        W44381  31.581  13.543   1.160 -0.0146 -0.3269 -0.0120
 1329W        W44382   6.805  19.801   2.317  0.0257 -0.2004 -0.4086
 1330W        W44383  11.387  32.181   5.911 -0.4862 -0.3993 -0.0159
 1331W        W44384   6.651  12.353  17.378  0.2035  0.4358 -0.0093
 1332W        W44385  32.668  19.420   5.827  0.1165  0.2305 -0.0784
 1333W        W44386   6.981  17.296  28.032  0.1072 -0.1188  0.4282
 1334W        W44387  23.205   7.722  16.650 -0.0805 -0.0863 -0.0277
 1335W        W44388  19.958  12.345  22.981 -0.1710  0.3112 -0.1032
 1336W        W44389   2.063  19.533   8.869 -0.3278  0.0151 -0.3884
 1337W        W44390  12.932  22.425  10.201  0.0587  0.1116 -0.2689
 1338W        W44391  14.588   6.422   6.069 -0.0075 -0.3122 -0.1648
 1339W        W44392   6.631  32.976  23.278  0.0644 -0.4022 -0.0567
 1340W        W44393  19.177  16.700  12.989  0.2283 -0.1688  0.2708
 1341W        W44394  17.771   9.906   0.715 -0.1992  0.1902 -0.0194
 1342W        W44395  22.632  29.202  28.128  0.3562 -0.0569 -0.1231
 1343W        W44396  16.090  14.027  21.464 -0.1379  0.2156  0.1785
 1344W        W44397  16.832  26.135   0.731 -0.1210 -0.0342  0.0173
 1345W        W44398  12.376  24.624   8.718  0.1458  0.0059 -0.2696
 1346W        W44399  21.336  11.474  22.636 -0.1404 -0.1907  0.0127
 1347W        W44400  17.602   6.070  19.703 -0.0352 -0.1782 -0.4520
 1348W        W44401  18.666  21.815   0.445  0.0675 -0.1359  0.0053
 1349W        W44402  19.037  27.198  10.000  0.3181 -0.2990  0.2081
 1350W        W44403  29.998  28.481  28.602  0.1415 -0.0646 -0.0329
 1351W        W44404   8.077  18.114   3.156 -0.3034 -0.2116  0.1749
 1352W        W44405  27.260   1.856  24.801 -0.0307 -0.1200 -0.0292
 1353W        W44406  20.286   3.859  26.705 -0.4456 -0.1047 -0.3059
 1354W        W44407  32.025  27.026  24.118 -0.2799  0.2603 -0.0420
 1355W        W44408  14.669  11.171   4.915  0.0650 -0.0225  0.1030
 1356W        W44409   1.227   5.601   4.086 -0.0058  0.1164  0.4444
 1357W        W44410  32.137  18.343   3.937  0.2664 -0.2906 -0.1917
 1358W        W44411  15.006  21.878  18.640  0.0189 -0.0789 -0.2773
 1359W        W44412   6.993  12.446  27.739  0.0558  0.0471  0.2113
 1360W        W44413  22.036  10.810  24.363 -0.1926  0.0016 -0.1593
 1361W        W44414  21.914  24.663  25.844  0.1628  0.0837 -0.1223
 1362W        W44415  32.979   1.305  19.575  0.2085 -0.0734  0.1533
 1363W        W44416   5.487  12.368  22.561  0.0686  0.0308 -0.0146
 1364W        W44417  20.818  14.830   8.088  0.0113  0.2309 -0.3279
 1365W        W44418   8.683   5.906   4.094  0.3143  0.1072 -0.0011
 1366W        W44419  34.308  32.080   7.656  0.0000 -0.0591  0.2443
 1367W        W44420  14.657   8.376   9.842 -0.0271  0.0730  0.0495
 1368W        W44421  13.662  13.332  19.559 -0.0081  0.0281  0.2611
 1369W        W44422  10.869  13.540  10.012 -0.1543  0.1601 -0.0857
 1370W        W44423   0.407  21.843   1.026  0.0784  0.1923  0.0597
 1371W        W44424  23.541  15.244  21.326 -0.3604  0.1026  0.0784
 1372W        W44425  23.533   4.769   9.617 -0.1143 -0.2866  0.3464
 1373W        W44426  14.609  13.597   9.219  0.4199 -0.3081 -0.0622
 1374W        W44427  14.003  21.225  10.344 -0.3759  0.0865  0.0888
 1375W        W44428  11.087   8.384  16.513  0.1312  0.1270 -0.3005
 1376W        W44429   4.570   8.004  27.497  0.0254 -0.3560 -0.1900
 1377W        W44430  15.948  22.212   7.920  0.0104  0.1929  0.2324
 1378W        W44431  14.728  28.660   8.356  0.0757  0.1564  0.0647
 1379W        W44432  15.575  16.909   9.434 -0.3201  0.1071 -0.2583
 1380W        W44433  20.015   7.696   8.194 -0.2714 -0.3384 -0.0203
 1381W        W44434  20.613   6.591  17.925 -0.0582 -0.4168  0.0059
 1382W        W44435  10.024   2.752   2.090 -0.3860  0.0164  0.1461
 1383W        W44436  15.264  23.163   1.974 -0.1824 -0.1575  0.0828
 1384W        W44437  26.983   6.559   6.386 -0.4164  0.2131  0.0434
 1385W        W44438  21.450  14.809  15.230 -0.1701  0.0314 -0.1720
 1386W        W44439  28.162  16.502   3.339  0.2808 -0.0344 -0.0501
 1387W        W44440   1.803   5.924  25.561 -0.0217  0.0805  0.1797
 1388W        W44441  12.613   4.255  22.783 -0.0344 -0.0619  0.1704
 1389W        W44442  15.534  33.717   4.720 -0.1261 -0.0590 -0.1723
 1390W        W44443  25.189  18.107   8.283  0.0952 -0.0131 -0.1706
 1391W        W44444   6.496   4.991   7.799  0.3099  0.4660 -0.0593
 1392W        W44445  11.844  16.034  29.023 -0.2358  0.0108  0.1068
 1393W        W44446  27.066  12.924  18.450  0.1196 -0.2423  0.2449
 1394W        W44447  31.372  15.247   5.951  0.2422 -0.0960  0.1324
 1395W        W44448  13.509  22.235   7.737 -0.0635 -0.2655  0.0849
 1396W        W44449  15.197   5.748  10.284  0.1575 -0.1466  0.0356
 1397W        W44450  22.097   7.977   4.406  0.1895 -0.0260  0.1205
 1398W        W44451  26.915   2.935   1.218 -0.0472 -0.0700  0.1305
 1399W        W44452  22.574   0.835  16.886  0.2364 -0.0778  0.0982
 1400W        W44453  11.672  20.824   2.544 -0.2406  0.0618  0.1412
 1401W        W44454   6.020   1.601   7.118  0.1628 -0.0872 -0.1266
 1402W        W44455  12.782  28.485   6.301  0.3173 -0.0869 -0.0746
 1403W        W44456  17.361   7.650   5.471 -0.1031  0.0997 -0.1343
 1404W        W44457  12.619   7.159  10.402  0.2601  0.1991 -0.4190
 1405W        W44458  27.031  17.067   5.437  0.0295  0.0261 -0.0293
 1406W        W44459  14.367  14.103   3.145  0.1588 -0.3660  0.1003
 1407W        W44460  18.364   2.295  21.702 -0.0838  0.1100 -0.1992
 1408W        W44461  16.922   4.528  28.613  0.0504  0.2909  0.1744
 1409W        W44462  16.072   6.152   2.475  0.0156  0.0279 -0.4408
 1410W        W44463  11.833  34.482   7.327  0.0137 -0.3464 -0.1568
 1411W        W44464  16.047  23.733   1.586 -0.1336 -0.2911 -0.3348
 1412W        W44465  27.505  16.683   3.190 -0.0510 -0.3848 -0.2228
 1413W        W44466  26.248   9.133  18.327 -0.1292  0.0967  0.1180
 1414W        W44467  20.437  23.128   0.619 -0.3590 -0.0931 -0.2677
 1415W        W44468  12.776  33.609  15.424 -0.2005 -0.0658  0.0610
 1416W        W44469   1.045  25.843  16.318  0.2814  0.0672 -0.0408
 1417W        W44470  15.167   5.354   2.998 -0.1045  0.1909 -0.0503
 1418W        W44471  31.419  23.906  16.493  0.1267 -0.0979 -0.1240
 1419W        W44472   3.408  25.770  21.882  0.1520  0.1187 -0.1768
 1420W        W44473  11.487  11.683   7.840 -0.2176  0.1419 -0.1359
 1421W        W44474   7.932  32.109   0.726 -0.2495  0.2302  0.1645
 1422W        W44475  10.153   1.207  17.969 -0.4158  0.1557 -0.0255
 1423W        W44476  16.407   2.073  27.192  0.0164 -0.1416 -0.2115
 1424W        W44477   8.185   5.619  27.674 -0.3062  0.1225 -0.4193
 1425W        W44478   7.067  31.883   2.514  0.1849 -0.0116 -0.2094
 1426W        W44479  26.818   5.199   8.062 -0.0955  0.0350 -0.5178
 1427W        W44480  24.220   3.300  22.987  0.3048 -0.4028  0.1366
 1428W        W44481  15.485   9.586  16.173  0.0012  0.0379  0.0326
 1429W        W44482  14.676  12.107   9.342 -0.2239  0.2406 -0.4530
 1430W        W44483  15.551  10.982  21.722 -0.0492 -0.2082  0.2030
 1431W        W44484  16.953  13.043  23.027  0.1645  0.1351 -0.0887
 1432W        W44485  28.109   8.595   6.465 -0.1899  0.1364 -0.0218
 1433W        W44486  27.144  10.229   0.688  0.0073  0.2227  0.2648
 1434W        W44487  14.296  13.969  26.507 -0.4063  0.1942  0.1041
 1435W        W44488  25.852   0.741   5.851 -0.0148  0.2134 -0.2889
 1436W        W44489   3.702  11.316   2.534  0.0174 -0.0248 -0.2819
 1437W        W44490  13.793  16.625   7.523 -0.1373  0.0628  0.1835
 1438W        W44491   0.835   5.475   9.562 -0.0503 -0.2089  0.0242
 1439W        W44492  11.865  24.204   2.796  0.2617 -0.1504  0.1356
 1440W        W44493   9.308  22.444   8.932 -0.0529  0.3058 -0.2087
 1441W        W44494   9.285  16.188  14.126 -0.0434  0.0903  0.0532
 1442W        W44495   2.169  15.537  22.014  0.2119 -0.1915 -0.0468
 1443W        W44496   3.135  24.564  21.306  0.2055 -0.3143  0.0329
 1444W        W44497   7.808  17.986  26.165  0.1607  0.0923 -0.3742
 1445W        W44498   9.435  30.863   0.229  0.0726  0.0279 -0.2044
 1446W        W44499  17.397  18.146   6.672  0.2183 -0.1689  0.1078
 1447W        W44500  28.087  10.242   7.270  0.0845  0.0013  0.3261
 1448W        W44501   8.948   9.474   0.051  0.1551 -0.0401 -0.1119
 1449W        W44502  19.596  13.012   7.554  0.0446 -0.1131 -0.2936
 1450W        W44503  14.599  21.639  19.125 -0.0153 -0.2785 -0.1252
 1451W        W44504  21.192  12.806   5.686 -0.1431 -0.0062 -0.0977
 1452W        W44505  16.344  10.190   0.264 -0.1162 -0.2012 -0.1412
 1453W        W44506  29.542  19.915  25.354 -0.0555  0.0050 -0.0296
 1454W        W44507  21.451   2.871   8.782 -0.3121  0.2046 -0.1233
 1455W        W44508  12.771   7.119  26.702  0.4673 -0.0513 -0.1300
 1456W        W44509  17.828  32.050   5.151 -0.1271  0.3731 -0.3948
 1457W        W44510  22.608  15.060  10.117 -0.0408  0.2269 -0.0175
 1458W        W44511  22.986   8.668   1.936  0.1809  0.1010 -0.0213
 1459W        W44512  18.260  29.116   4.231 -0.2529  0.1709  0.3786
 1460W        W44513  10.628   7.232  28.584 -0.0295  0.0867  0.0165
 1461W        W44514   7.489   7.025  25.211 -0.1619 -0.3140 -0.2984
 1462W        W44515  33.938  23.989   0.628  0.0682  0.0789 -0.0873
 1463W        W44516  19.612   7.513  15.444  0.1453 -0.0555  0.1989
 1464W        W44517  18.364  12.265  14.806 -0.5185 -0.2534 -0.0115
 1465W        W44518  13.070  12.641   2.206  0.1411  0.0344  0.0462
 1466W        W44519  16.645  12.934   4.627  0.0088  0.0924  0.0553
 1467W        W44520  33.307  30.364   8.411 -0.0412 -0.0837  0.2746
 1468W        W44521  11.334   3.489  27.480  0.2438 -0.2248  0.2493
 1469W        W44522  18.269  11.715  28.146 -0.1717 -0.2447  0.0084
 1470W        W44523  29.376  11.133   3.498 -0.4069 -0.0812  0.1472
 1471W        W44524  20.521   8.341  16.535  0.0766  0.0748  0.1722
 1472W        W44525   4.043   9.354  26.554  0.0245 -0.0896 -0.0362
 1473W        W44526  22.566  14.480  27.398 -0.1260  0.1126  0.1351
 1474W        W44527  22.155   7.582  10.008  0.2429 -0.2367 -0.2012
 1475W        W44528  16.124  11.696   2.121 -0.2333  0.4578  0.0707
 1476W        W44529  18.569  11.207  18.094  0.1793  0.1916 -0.0784
 1477W        W44530  26.597   1.784  28.049  0.1540 -0.0548 -0.3261
 1478W        W44531  31.824  13.215   0.370  0.1855 -0.1751  0.0408
 1479W        W44532  25.351  22.116  21.906 -0.0801  0.0357  0.2126
 1480W        W44533  23.174  23.775  28.638 -0.1501 -0.2075 -0.1376
 1481W        W44534  17.770  23.153   8.125 -0.0117 -0.1769 -0.1920
 1482W        W44535  22.411  10.644  19.780 -0.0238  0.1238 -0.1376
 1483W        W44536  15.422   4.683   9.794 -0.1820 -0.0111  0.4199
 1484W        W44537  19.358  25.169   0.267 -0.1022  0.0301  0.1298
 1485W        W44538  14.746   5.727   8.949 -0.2550 -0.1019 -0.3653
 1486W        W44539  15.051   0.962   3.910 -0.0446 -0.0948 -0.0669
 1487W        W44540  15.301   0.018   7.067 -0.6168  0.1595  0.3186
 1488W        W44541  19.624  19.667  28.671  0.1580  0.1663  0.0782
 1489W        W44542   0.167  22.593  26.216  0.0383  0.1211  0.2221
 1490W        W44543   1.319  11.032  18.080 -0.3231 -0.1871  0.1483
 1491W        W44544  16.321  20.440   1.408  0.1266 -0.3897 -0.0762
 1492W        W44545  25.937   2.143  24.335 -0.1078 -0.1193 -0.1861
 1493W        W44546  21.679   2.263   9.894  0.1327 -0.0051  0.0510
 1494W        W44547  18.753  24.741   4.702 -0.0544  0.1108  0.3601
 1495W        W44548  15.966  13.297  14.864 -0.1809  0.2476  0.0825
 1496W        W44549  20.346   5.089  25.324 -0.1304  0.0621  0.1266
 1497W        W44550   0.054   9.088   8.108  0.1627 -0.0138 -0.1835
 1498W        W44551   5.442   4.333  25.738 -0.0050 -0.1736  0.2069
 1499W        W44552  26.328  17.805  28.514  0.3735  0.2705 -0.0899
 1500W        W44553  11.510  34.143   3.337 -0.0127  0.0347 -0.0040
 1501W        W44554  16.054  15.975   4.389  0.2209  0.1765  0.0358
 1502W        W44555  24.410  20.385   2.516  0.3490  0.2352  0.1059
 1503W        W44556  29.925  23.057  22.595  0.0898  0.0050 -0.1749
 1504W        W44557  16.440  15.091   0.714  0.1449 -0.0251  0.0586
 1505W        W44558  26.445  10.016  27.653 -0.0877 -0.0399 -0.5094
 1506W        W44559  23.320  13.901  13.973  0.1543  0.1280 -0.2864
 1507W        W44560  27.326  14.224  16.842 -0.0620 -0.0598 -0.2201
 1508W        W44561   9.104  24.309   0.061  0.0499 -0.2009 -0.0307
 1509W        W44562  29.060  18.542  25.849 -0.2076  0.1658 -0.1307
 1510W        W44563  19.350  12.271   5.537  0.1622 -0.0330 -0.0742
 1511W        W44564   6.217   6.235   2.685  0.1152 -0.0866  0.2329
 1512W        W44565  11.155  18.438   3.054  0.0659  0.0557 -0.4338
 1513W        W44566  18.727  10.261   0.647  0.4120 -0.3995  0.2968
 1514W        W44567  24.353   1.135  25.797 -0.3007 -0.3173 -0.0517
 1515W        W44568  10.241  18.323   2.796 -0.1885  0.2802 -0.2730
 1516W        W44569  19.952  11.192   0.575  0.1605  0.1125  0.1602
 1517W        W44570  31.784  24.969   7.705 -0.0562 -0.0200  0.1462
 1518W        W44571  17.907  19.535  22.779  0.1764 -0.0627  0.2306
 1519W        W44572  13.446   5.224   5.324  0.1975  0.2674 -0.0682
 1520W        W44573  32.786  16.920   5.881  0.0679  0.2288  0.1408
 1521W        W44574   1.614  22.224   7.056 -0.0533  0.4181 -0.1647
 1522W        W44575  19.600   5.951   6.732  0.0337  0.3100 -0.0858
 1523W        W44576  26.326   2.725   7.380  0.0615  0.1143  0.0329
 1524W        W44577  22.567   8.382   8.127  0.1590 -0.1425  0.0592
 1525W        W44578  14.810   7.439   7.307 -0.0438 -0.2833  0.1411
 1526W        W44579  26.614   6.027  17.061  0.0058 -0.3684 -0.0778
 1527W        W44580  31.807  17.748   4.588 -0.0393 -0.0832  0.3013
 1528W        W44581  10.458   2.550   7.373  0.1275 -0.0167  0.2192
 1529W        W44582  29.297  24.381   4.821 -0.0439 -0.0227 -0.0230
 1530W        W44583  11.050   8.545   2.119 -0.2895 -0.0809  0.0420
 1531W        W44584  26.790  15.574  15.642  0.1438 -0.0752 -0.2900
 1532W        W44585  24.438  34.268   5.061  0.0436 -0.1810 -0.2199
 1533W        W44586  15.247   3.693  28.693  0.1962  0.0135 -0.1160
 1534W        W44587  15.772  14.921   3.568  0.0139  0.1881  0.0102
 1535W        W44588  19.652  14.496   7.933  0.2069  0.0282 -0.0293
 1536W        W44589   6.504   7.354  10.744  0.4135  0.4089  0.0164
 1537W        W44590   0.027  11.059  10.082 -0.0893  0.1209 -0.0080
 1538W        W44591  19.096  27.562   8.782 -0.3663 -0.2304 -0.0864
 1539W        W44592   6.236  12.090   2.502 -0.0972  0.2667  0.1326
 1540W        W44593   6.971  13.763   7.664  0.2587  0.0302  0.1585
 1541W        W44594  10.221  28.119   5.516 -0.1539  0.0484  0.0861
 1542W        W44595  27.601  18.206   2.118  0.1106 -0.0687 -0.0483
 1543W        W44596   8.708  12.566   7.626  0.1417  0.1481 -0.1511
 1544W        W44597  25.431   4.494  20.579 -0.2076 -0.1828  0.2261
 1545W        W44598  22.656   0.627  28.666  0.1855 -0.0321 -0.2546
 1546W        W44599   4.533  14.597   0.804  0.0262  0.0147 -0.2193
 1547W        W44600  28.420   6.660  10.094 -0.1765 -0.0450 -0.0549
 1548W        W44601  16.527  16.490  19.181 -0.0637 -0.1324 -0.0897
 1549W        W44602   7.259  30.562   8.660 -0.1375 -0.0071 -0.6415
 1550W        W44603  14.120  20.374   4.903 -0.1575  0.1715 -0.3018
 1551W        W44604   1.640  26.421  20.096 -0.1186 -0.0757  0.1438
 1552W        W44605  26.435  34.130  20.710 -0.0970 -0.3047  0.0226
 1553W        W44606  33.994  32.993  27.045  0.2589  0.0202 -0.2353
 1554W        W44607   0.305  17.669   4.300  0.2537 -0.0373 -0.0595
 1555W        W44608  22.026   4.244   7.463 -0.0645 -0.0122  0.1693
 1556W        W44609   1.623   8.469   7.547  0.1474 -0.2259  0.2338
 1557W        W44610  29.764   8.908   4.737  0.1659 -0.1108 -0.2065
 1558W        W44611   1.745   8.427   9.259  0.0760 -0.1979 -0.2354
 1559W        W44612   7.884  29.012  28.116 -0.1636  0.0739 -0.2353
 1560W        W44613  14.579  13.106   5.648 -0.1784  0.0395 -0.1489
 1561W        W44614  19.915  20.547   8.793  0.0507  0.1786  0.1844
 1562W        W44615  13.483   5.309  22.743  0.2285  0.1130 -0.0419
 1563W        W44616  10.298   7.255   8.638  0.0391 -0.0538  0.1306
 1564W        W44617   6.792  14.564   4.712 -0.1834 -0.0054 -0.1053
 1565W        W44618  22.860  33.490   4.803 -0.0184 -0.0993 -0.0901
 1566W        W44619  23.262  13.994  16.367  0.0369  0.1873 -0.1493
 1567W        W44620  29.764  27.751   5.176  0.0976 -0.2463 -0.1526
 1568W        W44621   0.467  16.898  25.039 -0.0852 -0.3947 -0.0160
 1569W        W44622  17.573  19.954  25.778 -0.1683 -0.2052 -0.3480
 1570W        W44623  13.735  23.254  10.094  0.1597  0.0229  0.4259
 1571W        W44624  11.515   8.556   7.749  0.3997 -0.1102 -0.1282
 1572W        W44625   6.561  32.885  24.332 -0.1140  0.2491 -0.0639
 1573W        W44626  14.455  13.911   0.450 -0.1397  0.0091 -0.0387
 1574W        W44627  28.850  15.527   5.493  0.0733 -0.4612 -0.2099
 1575W        W44628  25.102   0.385   7.483 -0.1157  0.3932 -0.1034
 1576W        W44629   6.001  12.218  28.451  0.0903 -0.0147  0.1202
 1577W        W44630  12.176  23.447  27.864  0.0036 -0.3412  0.0793
 1578W        W44631  25.795   7.152   0.460 -0.0322 -0.0522 -0.1262
 1579W        W44632  11.455  18.023  25.395 -0.0679 -0.0396  0.0751
 1580W        W44633  12.386   5.914   9.253  0.0667  0.0853 -0.2689
 1581W        W44634   7.900   9.486   9.388  0.2503 -0.2797  0.1128
 1582W        W44635  28.161  18.953   6.819 -0.0605  0.0035 -0.1089
 1583W        W44636  31.943  18.924   2.204  0.1214  0.1446  0.0671
 1584W        W44637  11.190  15.403  26.610 -0.0866  0.2149 -0.0482
 1585W        W44638  13.766   4.272   8.787 -0.3599 -0.0798 -0.1506
 1586W        W44639  22.188  18.515  28.592 -0.2411  0.1194  0.1036
 1587W        W44640   3.702   9.014   5.326  0.0439  0.1164 -0.1189
 1588W        W44641  24.774  12.133   8.214  0.0655 -0.0245 -0.0440
 1589W        W44642  11.496   3.296  27.886 -0.0505  0.2433 -0.2964
 1590W        W44643  20.709  12.255   7.044  0.3681  0.3253 -0.1094
 1591W        W44644   9.172   7.451  25.805  0.0120 -0.3609  0.1724
 1592W        W44645  13.790   0.039   3.764 -0.3527 -0.1015  0.0240
 1593W        W44646   3.787  20.683  24.784 -0.2725 -0.0703 -0.1393
 1594W        W44647   6.105  14.546   6.212  0.2060 -0.3957 -0.1852
 1595W        W44648  15.383  19.074   5.161  0.1169 -0.1605  0.1755
 1596W        W44649  10.901  33.632  27.417  0.2079 -0.1940  0.0863
 1597W        W44650   8.977   9.663   6.227  0.1089 -0.1885 -0.0309
 1598W        W44651  22.580  20.335  18.393 -0.4477 -0.1427  0.0764
 1599W        W44652  14.666   4.754   2.473  0.1329  0.0183 -0.1676
 1600W        W44653  14.502  18.492  28.575  0.0363 -0.0466  0.0659
 1601W        W44654  20.361   6.740   7.843 -0.1696  0.0199 -0.1651
 1602W        W44655   3.074  22.618  26.137  0.0610  0.3782 -0.4306
 1603W        W44656   5.618  28.983  19.287 -0.0969  0.0802 -0.2985
 1604W        W44657  14.168  10.228   5.161  0.0863  0.1324  0.0344
 1605W        W44658  31.297  31.050   0.230  0.1703  0.2611 -0.0185
 1606W        W44659   5.267  34.181   2.633  0.0003 -0.1969 -0.3282
 1607W        W44660   4.278  13.522   1.140  0.1238  0.4154  0.1030
 1608W        W44661  14.113  10.588   7.365 -0.3235  0.0270  0.0707
 1609W        W44662  13.085   3.447  28.342  0.1292 -0.0679  0.1078
 1610W        W44663  11.128   7.911   6.483 -0.1929 -0.0448 -0.2970
 1611W        W44664  15.020  24.531   6.936 -0.0183  0.1465  0.1579
 1612W        W44665   1.802   9.870   3.468 -0.0867 -0.1719 -0.0970
 1613W        W44666  16.097   8.556   8.187  0.1900 -0.0186 -0.0976
 1614W        W44667  15.657  10.456   3.399 -0.1227 -0.2854 -0.3887
 1615W        W44668  16.534  10.484   4.645  0.0517  0.1252 -0.0976
 1616W        W44669  15.708  15.118   1.064 -0.0226  0.2354 -0.5136
 1617W        W44670  14.495  14.446  22.231 -0.2988  0.0761  0.1297
 1618W        W44671  29.493  10.388  10.836  0.2127  0.0999  0.2514
 1619W        W44672  11.369  32.977  25.420  0.0164 -0.0915 -0.1706
 1620W        W44673  15.529  16.824  24.535  0.1597  0.0143 -0.2562
 1621W        W44674  27.683  16.809   4.723  0.2991 -0.1711 -0.2491
 1622W        W44675  13.135  19.087   4.595 -0.1216 -0.3206 -0.1175
 1623W        W44676  17.799   5.965   8.886 -0.0276  0.1890  0.0371
 1624W        W44677  10.861   7.766  17.878 -0.0661  0.0134  0.0630
 1625W        W44678  27.736  33.321   8.691 -0.1288 -0.3147  0.1209
 1626W        W44679  32.348  19.277  21.410 -0.0107  0.3948 -0.0663
 1627W        W44680  12.490   7.481  23.699 -0.0238  0.0161 -0.2457
 1628W        W44681  17.603  11.004   5.259 -0.1381  0.0449 -0.2925
 1629W        W44682   7.084  21.344   9.572  0.0551 -0.1053 -0.2496
 1630W        W44683  13.666  26.753   6.536  0.2033  0.1136  0.2525
 1631W        W44684   1.660   9.070   7.342 -0.2158 -0.1458  0.0958
 1632W        W44685  11.233   8.256   1.702  0.0131  0.1314 -0.0681
 1633W        W44686  12.585  12.829   9.156  0.0329  0.1257  0.0159
 1634W        W44687   5.471  21.883   7.826 -0.3467 -0.0413  0.0496
 1635W        W44688  16.538   1.784   7.852  0.2525 -0.2568 -0.2895
 1636W        W44689  24.387   2.813   6.166  0.1090 -0.0475 -0.1967
 1637W        W44690   9.249   5.762   9.963  0.1160  0.3681  0.0027
 1638W        W44691   6.946  17.501   1.457  0.0084  0.0105  0.3431
 1639W        W44692  14.489  11.114   8.418 -0.3301  0.0006  0.2475
 1640W        W44693  33.989  19.835  21.896  0.1935 -0.3657  0.0741
 1641W        W44694  20.528   4.439   9.573  0.1509  0.2235  0.5646
 1642W        W44695  16.331  16.631  23.314  0.1977 -0.0606  0.0631
 1643W        W44696  16.512  27.531  10.036 -0.2142  0.1197  0.1959
 1644W        W44697   1.052  24.183   2.607  0.1443  0.0134  0.0315
 1645W        W44698  11.466  22.839   9.384  0.1297  0.0970  0.1247
 1646W        W44699  26.405   7.115  23.465 -0.1025  0.2675  0.2353
 1647W        W44700  12.695  13.201  22.735 -0.0027  0.3934 -0.1372
 1648W        W44701  16.824  20.717  28.911  0.0484  0.3994 -0.0012
 1649W        W44702  21.187  12.047  10.366  0.0237  0.4868 -0.2920
 1650W        W44703   4.864  20.121  27.059  0.0553  0.0657 -0.0492
 1651W        W44704  14.456  11.843   7.658  0.0632 -0.1854 -0.1159
 1652W        W44705   7.141  21.784   7.488 -0.1280  0.1192 -0.1435
 1653W        W44706  28.707   6.721  26.956  0.0431 -0.0822 -0.2002
 1654W        W44707  23.039  12.510  15.195 -0.1885  0.0086 -0.2632
 1655W        W44708   5.183   8.627   9.351 -0.0991  0.1362  0.2724
 1656W        W44709  21.732  10.297  27.088  0.2178 -0.0128 -0.3014
 1657W        W44710   8.924  31.007   2.778 -0.1377  0.1121 -0.0737
 1658W        W44711   2.051   5.011   7.139  0.1161 -0.1563 -0.4174
 1659W        W44712  18.045   6.153  18.557  0.1980 -0.3531  0.2499
 1660W        W44713  23.414   8.899   1.866  0.0056 -0.0434  0.2874
 1661W        W44714   9.994  14.597  10.572 -0.3247 -0.1831  0.0261
 1662W        W44715  25.419  23.511   4.973 -0.0836 -0.0724  0.0603
 1663W        W44716  26.485   3.498  26.026  0.1542 -0.0098  0.0487
 1664W        W44717  20.494  16.877   7.054  0.0600  0.1939  0.2073
 1665W        W44718  19.268   6.682   5.806 -0.4280 -0.1234 -0.0142
 1666W        W44719  19.453  12.642   5.244  0.1497 -0.0868 -0.1282
 1667W        W44720   5.633  15.597   6.659  0.2367  0.0446  0.1908
 1668W        W44721  24.334  16.199  29.140 -0.1209  0.1299  0.1158
 1669W        W44722  19.399  11.853  21.965 -0.0882 -0.4541  0.2299
 1670W        W44723   9.316  22.789  25.509 -0.3463  0.0321  0.1671
 1671W        W44724  25.265  17.145   9.927  0.1857 -0.2608 -0.0646
 1672W        W44725  13.676   5.905   7.793 -0.1680 -0.3971  0.4050
 1673W        W44726  19.642  14.930  28.341  0.0609  0.0596 -0.0191
 1674W        W44727  20.276  17.744   0.469 -0.1286 -0.2405  0.1436
 1675W        W44728  14.930  22.837  10.082 -0.1516 -0.1520 -0.1471
 1676W        W44729  10.914  17.705  10.096  0.2646 -0.1600  0.0784
 1677W        W44730  11.512   4.975  10.198 -0.0811  0.0865  0.2103
 1678W        W44731  34.619   6.175  26.980 -0.3962 -0.1266  0.1034
 1679W        W44732   9.884  30.176  28.433 -0.0627 -0.0660  0.1461
 1680W        W44733  19.571  17.128  28.165  0.0568  0.0933 -0.0597
 1681W        W44734   9.815  27.862   4.124  0.0888  0.0081 -0.3554
 1682W        W44735   7.190  12.614   7.655  0.1329 -0.0122  0.4241
 1683W        W44736  21.915  29.598   6.282 -0.4667  0.0571 -0.2263
 1684W        W44737  24.138  19.750   6.344  0.1820 -0.3658  0.0684
 1685W        W44738  23.928  33.545   3.679  0.0168 -0.4217  0.3186
 1686W        W44739  19.681  14.480   9.914 -0.2352  0.1257 -0.0127
 1687W        W44740   7.367  13.594  10.147  0.2228 -0.0464 -0.1571
 1688W        W44741  10.888  11.730   6.242 -0.2428  0.2216 -0.4233
 1689W        W44742  27.636  32.656   6.304  0.2133  0.0190  0.1444
 1690W        W44743  11.209  34.630   8.525  0.2142 -0.3473  0.1544
 1691W        W44744  25.859  11.234  24.114  0.2737  0.0459  0.1748
 1692W        W44745  15.381  10.337   6.470  0.1265 -0.1160 -0.2188
 1693W        W44746  13.119  18.983   0.763 -0.1562 -0.0151 -0.2530
 1694W        W44747  15.125  16.774   5.113 -0.0420 -0.1373  0.1737
 1695W        W44748  11.231  22.323  16.540  0.1417  0.0657 -0.3151
 1696W        W44749  21.220  18.297   5.638  0.0462  0.3993  0.0023
 1697W        W44750  22.396  33.855  21.817  0.3190  0.0726  0.3367
 1698W        W44751  10.242  22.097  14.040  0.3591 -0.0742  0.5347
 1699W        W44752  16.057   8.427  28.611 -0.3771  0.2116 -0.1976
 1700W        W44753   7.929   1.513   4.683  0.1223  0.1359 -0.0322
 1701W        W44754  30.482  12.140   6.621  0.0636 -0.0851  0.2433
 1702W        W44755   7.740  22.011  26.980  0.1821  0.1671 -0.2391
 1703W        W44756   3.693  11.908   6.267  0.1966 -0.0066 -0.0084
 1704W        W44757  19.110   9.578   3.762 -0.1558  0.1038  0.0391
 1705W        W44758  19.195  11.294  20.453 -0.1695  0.0394 -0.1844
 1706W        W44759  18.280  23.839   1.375 -0.4278  0.2045 -0.0868
 1707W        W44760   1.440  25.110   4.182 -0.3296 -0.3117  0.1929
 1708W        W44761  25.469  32.366  10.128  0.0095 -0.0103  0.3637
 1709W        W44762   0.429  14.858   6.383  0.2619 -0.0211 -0.1057
 1710W        W44763  10.361   0.088   4.080 -0.2357  0.0904  0.2500
 1711W        W44764   5.846  15.934   2.235 -0.0075 -0.1141 -0.0144
 1712W        W44765   8.311  11.721   8.737 -0.0436 -0.1042 -0.1950
 1713W        W44766  23.894  25.149   7.337  0.0494 -0.0443  0.1781
 1714W        W44767  22.276  14.122   4.877 -0.1576  0.1657 -0.0448
 1715W        W44768  19.976   9.285   5.250  0.1051  0.2577 -0.1267
 1716W        W44769  10.332  31.654   6.388  0.1009  0.1468  0.1501
 1717W        W44770  24.916  22.086   7.849  0.2965 -0.1725 -0.2480
 1718W        W44771   4.618  33.871  28.991 -0.2537  0.0598  0.1100
 1719W        W44772  16.187  19.721   5.001 -0.2020  0.0717 -0.1049
 1720W        W44773  14.818   9.031   7.189  0.0478  0.2208 -0.0268
 1721W        W44774  26.611   8.084   7.273 -0.0676  0.0321  0.2770
 1722W        W44775  15.194  13.340   0.539 -0.0690 -0.1428 -0.1327
 1723W        W44776  17.513  31.669   5.080 -0.0604  0.0189  0.0269
 1724W        W44777   0.872  25.365  27.904 -0.1268 -0.1687  0.3004
 1725W        W44778  20.927  21.592  25.215 -0.0823  0.2355  0.3357
 1726W        W44779   7.838  23.722   7.858  0.1313 -0.0386  0.1005
 1727W        W44780   7.984  26.497   6.894  0.1667 -0.1180  0.1358
 1728W        W44781  19.019  25.908   0.339 -0.0830  0.0092 -0.0435
 1729W        W44782  33.621  28.572   1.686  0.0762  0.1225  0.4051
 1730W        W44783  10.919  13.426  15.621  0.2055  0.1778 -0.0590
 1731W        W44784   2.768  13.110  17.624  0.2236  0.4385 -0.2787
 1732W        W44785  16.021  12.783   3.119 -0.0164  0.0813  0.5137
 1733W        W44786   8.997  29.633   4.367  0.0543 -0.0311  0.1949
 1734W        W44787  24.963  14.885   6.088  0.3076  0.0959 -0.0348
 1735W        W44788   7.819  15.226   7.499 -0.2328 -0.1743  0.0895
 1736W        W44789  20.017  21.412   2.851 -0.1162  0.0092 -0.0104
 1737W        W44790  25.873   4.874   3.364  0.2067 -0.2426  0.3615
 1738W        W44791  30.485  21.739   9.984  0.2129  0.1743 -0.0480
 1739W        W44792  16.265  18.117  18.313  0.0727 -0.2826 -0.3658
 1740W        W44793  26.061   5.601  26.470 -0.1956  0.1393 -0.0408
 1741W        W44794   9.492  21.071   0.596 -0.1394  0.2432 -0.1344
 1742W        W44795   7.647   8.871   2.670  0.1076 -0.0907  0.1526
 1743W        W44796  12.118   2.981   9.416 -0.0394 -0.1360 -0.0147
 1744W        W44797  11.765  26.559  18.456 -0.0853 -0.1179  0.0733
 1745W        W44798   4.576   5.678   5.116 -0.2756  0.0681 -0.0871
 1746W        W44799   6.152  34.134   1.041 -0.3820 -0.1436 -0.1594
 1747W        W44800  16.978  15.307   4.375  0.0860  0.0586 -0.1358
 1748W        W44801  18.405  12.730   3.651  0.2139 -0.0428  0.0831
 1749W        W44802  15.172   0.751   3.211 -0.0409 -0.1603 -0.0076
 1750W        W44803  15.946   5.185   9.210  0.2942  0.0999  0.1840
 1751W        W44804  21.860  16.625   6.826 -0.3076 -0.0028  0.0590
 1752W        W44805  13.282   3.374   2.057 -0.0281  0.1000 -0.0365
 1753W        W44806  10.643  33.618  27.893  0.0778 -0.0796 -0.2204
 1754W        W44807  16.941   0.373  28.568  0.2619 -0.2328  0.0417
 1755W        W44808  17.535   4.571  25.051 -0.2911  0.0257  0.4249
 1756W        W44809  10.150  26.381   7.700  0.1360 -0.0139  0.2190
 1757W        W44810   9.302   8.495   9.251  0.0545  0.1018  0.0166
 1758W        W44811  21.474  17.750   7.615  0.1925 -0.0599  0.1495
 1759W        W44812   7.615   3.569   0.796  0.2036 -0.0305 -0.2915
 1760W        W44813  24.620   8.403   4.698  0.1508  0.0877  0.0066
 1761W        W44814  22.179  11.166  21.531 -0.0963  0.1401  0.2752
 1762W        W44815   9.335   9.152   6.066 -0.0298  0.1562 -0.1647
 1763W        W44816   6.925  11.163  20.988  0.3417  0.0269 -0.1398
 1764W        W44817  14.879  21.354  26.602  0.1597  0.0958 -0.0673
 1765W        W44818  21.369   8.199   6.844 -0.4745 -0.2292 -0.0076
 1766W        W44819  27.494  12.456  28.867  0.0252  0.2035 -0.3896
 1767W        W44820  16.485   5.686   8.533 -0.0750 -0.0655  0.1313
 1768W        W44821   8.118  22.486   4.145 -0.1978 -0.1898 -0.1197
 1769W        W44822   9.030   5.926   6.031 -0.0374  0.0936  0.2655
 1770W        W44823   9.616  13.039   7.532  0.1062  0.0308 -0.1930
 1771W        W44824  16.650  32.592   4.817 -0.0387  0.1160 -0.0658
 1772W        W44825  11.237  19.666   4.882 -0.0109 -0.2949  0.2147
 1773W        W44826  22.197  17.843   2.890  0.4303  0.2942 -0.4004
 1774W        W44827  28.831  11.109  25.313  0.1309  0.1762 -0.1737
 1775W        W44828  13.512  25.095   7.906  0.1715  0.1418 -0.0115
 1776W        W44829  12.429   3.939   4.583 -0.0805  0.0964 -0.3610
 1777W        W44830  16.845  14.584  27.139 -0.0143 -0.0435  0.2529
 1778W        W44831  14.864  13.333   0.986 -0.0619 -0.0581 -0.1462
 1779W        W44832  13.147   1.277   1.685 -0.0401  0.0172  0.1604
 1780W        W44833  12.542  30.649  25.240 -0.0697 -0.1527 -0.1938
 1781W        W44834   9.938  22.030   5.426 -0.0194  0.0725  0.3176
 1782W        W44835  20.634   8.385  10.916  0.1682  0.0085 -0.1230
 1783W        W44836  16.244  16.337   2.892  0.1748  0.0049 -0.0970
 1784W        W44837  18.708  11.373   9.086  0.2793  0.2646 -0.0837
 1785W        W44838  17.791  13.519  25.493 -0.4698  0.3305 -0.1100
 1786W        W44839  22.156  10.206   4.169  0.1247 -0.0976  0.4205
 1787W        W44840  25.545  34.231   8.488 -0.0270 -0.1704  0.0750
 1788W        W44841  13.463  16.479   9.394 -0.0351  0.1979 -0.1422
 1789W        W44842  30.703  20.846   4.955  0.1750 -0.2061  0.0707
 1790W        W44843   2.048  30.049   3.664  0.2037 -0.2020 -0.0302
 1791W        W44844  26.822  30.629  23.601  0.1584 -0.0049  0.0191
 1792W        W44845   6.906  23.335   7.593 -0.0499  0.1772 -0.1886
 1793W        W44846  12.625  17.213  10.076 -0.1306 -0.0407  0.1597
 1794W        W44847   6.710  10.305  24.555  0.0993 -0.2460 -0.0638
 1795W        W44848  17.248  34.031  22.065  0.0685 -0.1323  0.1630
 1796W        W44849  20.713   7.031   3.671 -0.0219 -0.1215 -0.0737
 1797W        W44850  24.065   2.559   5.393  0.0609  0.6455 -0.1924
 1798W        W44851  17.529   9.857   4.585 -0.2466  0.3413 -0.0165
 1799W        W44852  18.197  12.941   7.891  0.0388 -0.5296 -0.3149
 1800W        W44853  10.688  25.874  26.133  0.1147 -0.0809 -0.1244
 1801W        W44854  25.968  13.706  26.196  0.1651 -0.3773 -0.2338
 1802W        W44855   7.772  18.140   5.046  0.2589 -0.1150 -0.1103
 1803W        W44856  16.572  17.410  27.965 -0.0223  0.1910 -0.2026
 1804W        W44857  25.604   8.986   5.785  0.0696 -0.2598  0.0360
 1805W        W44858  17.747   5.556  21.584 -0.0315  0.0340 -0.2219
 1806W        W44859  15.368  18.858  20.836 -0.0053  0.1348  0.2237
 1807W        W44860  21.353  12.399  28.102  0.0124 -0.1393  0.1599
 1808W        W44861   4.436   0.537   4.655 -0.0832  0.2494  0.3495
 1809W        W44862  12.012   7.749  27.662  0.0633 -0.0376 -0.0083
 1810W        W44863  17.922   6.822   6.554 -0.3670 -0.1332 -0.0135
 1811W        W44864  12.870  17.330  26.437 -0.1967  0.1530 -0.0085
 1812W        W44865   5.837  15.281  25.729  0.0539 -0.3187  0.0031
 1813W        W44866   4.249   7.613   4.868 -0.0680  0.2137  0.3554
 1814W        W44867   1.456  10.909   4.141  0.1452 -0.1171  0.4429
 1815W        W44868   8.607  25.917   8.987 -0.0930  0.2375 -0.0847
 1816W        W44869  23.847  12.343   1.134  0.1284 -0.2183 -0.1105
 1817W        W44870  16.300  34.651  18.474 -0.0369 -0.2291 -0.1105
 1818W        W44871  15.018  20.850   3.584  0.0777  0.0291 -0.0946
 1819W        W44872  27.725  11.447   1.559 -0.0072 -0.0129 -0.0531
 1820W        W44873  22.605  16.634   6.226 -0.1167  0.1024  0.0917
 1821W        W44874  17.437  12.397  25.806 -0.0277  0.1412  0.0212
 1822W        W44875  16.641  14.060  20.610 -0.1550  0.0587  0.1707
 1823W        W44876  13.306   9.567   3.114  0.4121 -0.2265  0.2376
 1824W        W44877  22.631  15.382   6.613 -0.0600 -0.1064 -0.0506
 1825W        W44878  24.103   5.373   6.425 -0.2402 -0.3353  0.0047
 1826W        W44879   7.267  19.872  27.175 -0.0049  0.1536 -0.3630
 1827W        W44880  16.867  30.751   8.832 -0.0491  0.1466 -0.2818
 1828W        W44881  29.846  10.450  28.803  0.0497 -0.0157  0.3570
 1829W        W44882  26.600  19.223  23.052 -0.3963 -0.2067 -0.1573
 1830W        W44883  11.867  12.018   6.555 -0.0454 -0.0165 -0.0506
 1831W        W44884  14.767   7.989  10.823 -0.2316 -0.2054 -0.5192
 1832W        W44885  18.073  22.873   6.027  0.0255  0.1428 -0.2207
 1833W        W44886  17.095  23.699  24.281 -0.0140 -0.2754 -0.0979
 1834W        W44887   5.578  16.070  24.833 -0.0314  0.1821 -0.1640
 1835W        W44888  26.691  12.566   2.649 -0.0365 -0.0848 -0.0646
 1836W        W44889  13.046  18.794  28.908 -0.0462  0.1303 -0.1591
 1837W        W44890  22.953   9.937   3.330  0.0795  0.0884 -0.0589
 1838W        W44891   0.243   6.541   7.207  0.1081 -0.0430 -0.0605
 1839W        W44892  17.233  20.542   9.256  0.0105 -0.1487  0.1602
 1840W        W44893  16.319   2.334   6.454 -0.2352  0.0000 -0.3043
 1841W        W44894  23.063   5.955  26.041 -0.0035  0.2724  0.0155
 1842W        W44895   2.567  11.676  20.253 -0.0555  0.1468  0.1951
 1843W        W44896  19.496   1.078   4.960  0.0526 -0.1938 -0.1462
 1844W        W44897   9.490  10.636  28.381  0.2319 -0.1820  0.0101
 1845W        W44898  18.937  33.188   3.820 -0.1682 -0.3530 -0.2666
 1846W        W44899  13.358  21.665   1.489  0.4480 -0.0609  0.1596
 1847W        W44900  23.423  21.362   2.085 -0.3140 -0.0106  0.3339
 1848W        W44901  21.617  32.578  15.341  0.0923 -0.2320  0.1516
 1849W        W44902  17.727  14.311   1.666 -0.5902 -0.1236 -0.1093
 1850W        W44903   6.471  24.123   8.051 -0.0631  0.2567  0.0493
 1851W        W44904  30.932  19.190   4.707 -0.0729 -0.1391  0.2108
 1852W        W44905  29.502  16.260  27.090 -0.0180 -0.1228 -0.0254
 1853W        W44906   7.910   9.337  10.899 -0.1776 -0.0548 -0.2038
 1854W        W44907   9.608  24.311  27.811 -0.0778  0.1988  0.1458
 1855W        W44908  20.475  23.680   8.141  0.0236 -0.1741  0.0665
 1856W        W44909  28.108  25.766   5.931 -0.0982  0.1831  0.1470
 1857W        W44910  12.531  27.430  18.306 -0.1150 -0.0315  0.0423
 1858W        W44911   5.935  25.883   6.571 -0.1019  0.1575  0.3021
 1859W        W44912  20.048   7.065   4.614  0.1153  0.0178  0.0615
 1860W        W44913   6.722  15.848   9.120 -0.0925  0.0761  0.1860
 1861W        W44914  14.554   4.574   8.347  0.0692 -0.0838  0.1870
 1862W        W44915  11.925  13.477   6.185  0.1318 -0.3212 -0.0572
 1863W        W44916  18.910  11.801   0.308 -0.1003  0.0907 -0.0314
 1864W        W44917  13.057   5.448   5.892 -0.1653 -0.1705 -0.1154
 1865W        W44918  18.265  22.102   9.768  0.0678 -0.2874  0.0584
 1866W        W44919  19.778  15.431  28.929  0.2270 -0.0696  0.2337
 1867W        W44920  16.886  17.671   9.059 -0.1716  0.1240 -0.1918
 1868W        W44921  11.072   4.682   2.477 -0.1880 -0.1647  0.0581
 1869W        W44922  15.992   6.705  20.491 -0.0133 -0.1544 -0.0949
 1870W        W44923  34.230  20.730  24.627 -0.3917 -0.3327 -0.1993
 1871W        W44924  28.974  11.152   8.121 -0.3022  0.2341 -0.0375
 1872W        W44925  10.826  31.616  21.880  0.0534  0.1857  0.1094
 1873W        W44926  10.282   9.369  19.069  0.1578  0.2968 -0.0028
 1874W        W44927  16.730  15.717  28.686 -0.2264  0.2168 -0.0745
 1875W        W44928  11.935  16.262  26.214 -0.3072 -0.0911 -0.2541
 1876W        W44929   3.685  22.480   4.969  0.3956 -0.0810 -0.1194
 1877W        W44930  15.909   5.659   2.536  0.0033  0.0215 -0.0932
 1878W        W44931  10.971  33.591   6.635  0.0423 -0.1234 -0.1645
 1879W        W44932   3.968  19.775  25.194 -0.4995  0.4421 -0.0925
 1880W        W44933   0.817  16.244   2.781 -0.3106 -0.0261 -0.0866
 1881W        W44934  12.680  11.960   6.625  0.0189 -0.0645 -0.0411
 1882W        W44935  23.187  17.490   6.449 -0.1184  0.3938 -0.0013
 1883W        W44936   5.185  27.719   4.082  0.0359 -0.0822  0.1295
 1884W        W44937  25.919  32.179   8.871 -0.1790  0.0108  0.1420
 1885W        W44938  12.753  34.141  22.360  0.2015  0.4248 -0.1719
 1886W        W44939   8.296   9.410   2.433 -0.0009  0.0139 -0.2135
 1887W        W44940   8.014  15.574   3.123  0.2370  0.0952 -0.5262
 1888W        W44941  16.736  11.870   7.806  0.1156  0.1562 -0.0946
 1889W        W44942  19.411   9.812   1.973 -0.0705 -0.3577  0.2154
 1890W        W44943  23.512  28.524   7.790  0.0931  0.2786  0.3012
 1891W        W44944  18.287  14.038  26.455  0.0476 -0.0694  0.2219
 1892W        W44945  15.127   1.890  25.469 -0.1455 -0.4558  0.1262
 1893W        W44946   3.894  24.381  23.904  0.2504 -0.0058  0.0357
 1894W        W44947  30.181  26.192   3.076  0.1956 -0.1184 -0.0734
 1895W        W44948  22.338   5.527   1.039  0.2210 -0.0641 -0.0251
 1896W        W44949  23.443   9.067   0.855 -0.1105 -0.0431 -0.3426
 1897W        W44950  31.065  18.443   4.236 -0.3813 -0.1046  0.3047
 1898W        W44951  12.089  34.623   4.373  0.0317  0.0999  0.3368
 1899W        W44952   8.289   1.593   7.935 -0.0929 -0.0516  0.1943
 1900W        W44953  17.002  28.302  28.688  0.1026  0.1371  0.3317
 1901W        W44954  17.143  18.095  23.395  0.3626  0.1959  0.2253
 1902W        W44955   5.637  19.967  26.522  0.1593 -0.1563  0.0234
 1903W        W44956  16.514  31.589   4.059  0.1866  0.1191  0.1544
 1904W        W44957  18.929   6.242   6.107 -0.0861  0.0103 -0.2844
 1905W        W44958  13.081   9.728   0.866 -0.1007  0.3365  0.0595
 1906W        W44959  23.364  11.944  16.839  0.1760  0.1686 -0.1556
 1907W        W44960  18.265   3.934  19.824 -0.2231 -0.2650  0.1781
 1908W        W44961  13.987  34.383   2.279  0.0484  0.0096 -0.1397
 1909W        W44962  13.699  15.831   9.408  0.2719 -0.2311 -0.0775
 1910W        W44963  13.479  14.769   1.311  0.0138 -0.0826  0.1943
 1911W        W44964   7.898  14.800   9.590  0.0962  0.1534  0.0760
 1912W        W44965  27.883  16.415   6.717  0.1186 -0.3404 -0.0266
 1913W        W44966  23.851   9.251   9.333  0.0377 -0.0505 -0.2374
 1914W        W44967   3.923  29.465  27.176 -0.0261 -0.2236  0.3117
 1915W        W44968   4.240   0.782  26.171  0.2345 -0.1588 -0.0992
 1916W        W44969   4.273  29.672   5.888 -0.2050 -0.0618  0.1689
 1917W        W44970  34.475  24.082   3.856 -0.1763 -0.2567 -0.2089
 1918W        W44971   5.884  15.730  23.243 -0.0648 -0.1754 -0.0456
 1919W        W44972  22.069  34.039  28.956  0.2542  0.2426 -0.3852
 1920W        W44973  15.593  12.424   6.351  0.0628  0.1887  0.4773
 1921W        W44974   8.950   4.903  20.870 -0.1382 -0.1258 -0.0467
 1922W        W44975  12.009   8.343  10.062 -0.1438  0.0724 -0.0288
 1923W        W44976  20.568  16.032   6.160  0.2899  0.0240  0.4118
 1924W        W44977  23.487   5.000   3.663  0.3093  0.0753 -0.1315
 1925W        W44978  20.429  33.028  21.983  0.1173  0.0378 -0.2712
 1926W        W44979  12.576  14.662   6.555  0.1621  0.0638 -0.2974
 1927W        W44980  14.822  13.145  17.860 -0.1069 -0.2702 -0.4385
 1928W        W44981  19.611   7.120   4.958 -0.2170  0.1841  0.1585
 1929W        W44982  18.327   8.048   4.216 -0.0588 -0.2137  0.0234
 1930W        W44983  22.881  13.682   3.708 -0.0892 -0.0103  0.2151
 1931W        W44984   0.480   7.345  10.633 -0.0194  0.0641  0.1244
 1932W        W44985  20.426   9.259  27.978 -0.1003  0.0529  0.2541
 1933W        W44986  23.594  33.739  24.575  0.0024 -0.2246  0.0341
 1934W        W44987  19.311  23.562   6.679  0.0137  0.2828 -0.2558
 1935W        W44988  31.424  30.753   5.089 -0.0013  0.0634  0.0996
 1936W        W44989  15.132  19.345   5.568 -0.0207 -0.1613 -0.1934
 1937W        W44990  14.277   9.448  29.126  0.3266  0.1175  0.3161
 1938W        W44991  13.613  31.786  24.190 -0.2307 -0.2675  0.0788
 1939W        W44992  11.044  23.191   5.710  0.3099  0.0959 -0.4374
 1940W        W44993  27.361  18.163  20.181  0.1271 -0.1941 -0.0187
 1941W        W44994   7.573  30.004   1.725  0.0422 -0.1762  0.1405
 1942W        W44995  14.303   6.724  27.743  0.3341  0.0576  0.1728
 1943W        W44996  14.571  13.054   3.864 -0.3907  0.0145  0.2109
 1944W        W44997  13.048   1.645  26.739 -0.0450 -0.0287 -0.1629
 1945W        W44998  21.400  16.064   3.656 -0.1669 -0.0660  0.2014
 1946W        W44999   7.106   9.126   6.634 -0.0783 -0.1782 -0.3182
 1947W        W45000   2.887  14.953   4.898  0.0995 -0.0302  0.0078
 1948W        W45001  25.153   6.827  19.224  0.0415 -0.2018  0.0871
 1949W        W45002  14.167  13.220   2.139  0.0337 -0.5264  0.1044
 1950W        W45003  29.656  13.405   4.157 -0.0264 -0.0396 -0.1801
 1951W        W45004  20.395   1.286   5.477 -0.1054 -0.1670 -0.1288
 1952W        W45005   0.199  18.223   0.067 -0.0997  0.1306  0.1767
 1953W        W45006  15.629  16.783   6.744 -0.1359 -0.2459  0.0234
 1954W        W45007  34.072  27.727   5.305  0.2835  0.0481 -0.0997
 1955W        W45008  17.759  10.452   2.612 -0.0006  0.3523 -0.0389
 1956W        W45009   9.272   2.820   5.756 -0.1034  0.0016  0.0708
 1957W        W45010  21.352  22.681   8.105  0.2075 -0.1489 -0.1462
 1958W        W45011  29.410   8.463   1.722  0.2048 -0.0022 -0.0669
 1959W        W45012  12.240   6.463   3.038  0.0873  0.0827  0.1468
 1960W        W45013   1.957  11.818   6.895  0.0318 -0.0019 -0.4202
 1961W        W45014   7.798  18.508   4.671  0.0484  0.0252  0.2778
 1962W        W45015  11.094  25.158   5.593  0.0774  0.3563  0.3080
 1963W        W45016  32.050  15.029   2.844  0.1756 -0.1517  0.1191
 1964W        W45017  15.748  23.078  28.029  0.1521 -0.0964  0.1567
 1965W        W45018  13.081   6.439   9.125  0.1382  0.2851  0.1318
 1966W        W45019  15.701   4.503  21.890  0.4760 -0.6756 -0.0796
 1967W        W45020  12.818  14.420  24.886 -0.1468 -0.0474 -0.1619
 1968W        W45021  12.198  22.125  28.254  0.0536 -0.1348 -0.2831
 1969W        W45022  25.505  33.804   6.280 -0.0057  0.2457  0.0826
 1970W        W45023  22.608  19.738   7.402  0.0571 -0.2925 -0.0257
 1971W        W45024  14.312  16.033  28.380  0.1069  0.2068  0.1878
 1972W        W45025  12.428  23.609   4.158 -0.0016 -0.4062  0.0718
 1973W        W45026  29.211   9.550  21.924 -0.3343  0.0984  0.0000
 1974W        W45027  22.359  34.034  27.269 -0.1066  0.3191  0.0663
 1975W        W45028  24.794  10.919   4.466  0.2312 -0.0124 -0.0148
 1976W        W45029  12.149   5.318   3.411  0.0469  0.0092 -0.0967
 1977W        W45030  22.197   3.428   2.049  0.1489  0.1419 -0.2324
 1978W        W45031  21.313  21.465   3.971 -0.0034 -0.2751 -0.4435
 1979W        W45032  15.103   2.908   3.840  0.2471  0.1759 -0.0590
 1980W        W45033  21.672   0.053  19.371 -0.2279  0.1724 -0.0442
 1981W        W45034   4.012  29.929   8.317  0.1054  0.1328  0.4432
 1982W        W45035  28.067   8.441  23.297 -0.1460  0.1502  0.0616
 1983W        W45036  27.019  16.991   7.711 -0.3163 -0.3839 -0.2669
 1984W        W45037  14.814   8.074  28.113  0.2308  0.0021 -0.0272
 1985W        W45038  16.258  13.573  28.631 -0.2950 -0.2789 -0.2133
 1986W        W45039  23.723  11.648   1.654 -0.0740 -0.0951 -0.0358
 1987W        W45040  16.221  10.183  27.948 -0.2121  0.1708 -0.2045
 1988W        W45041   4.448  18.545   1.287  0.0728  0.1081  0.2640
 1989W        W45042  18.919  22.210   8.796  0.2432 -0.0156 -0.2258
 1990W        W45043  16.442   4.194  15.425  0.0046 -0.0624 -0.1388
 1991W        W45044  24.105  12.337   5.029 -0.2248 -0.3215  0.0693
 1992W        W45045  14.692   7.517   5.155  0.0437  0.0540 -0.0832
 1993W        W45046  12.437   3.628  24.118 -0.0090 -0.0430  0.1111
 1994W        W45047  27.010  33.094   4.310 -0.0605 -0.0279 -0.1402
 1995W        W45048   8.366  17.391   1.821  0.3346 -0.1797 -0.0611
 1996W        W45049  10.111  13.715   9.604 -0.1432 -0.1070 -0.1969
 1997W        W45050  31.784  15.907   2.872 -0.0379 -0.1729 -0.2941
 1998W        W45051   6.573  22.780  22.670  0.0641  0.2147 -0.2758
 1999W        W45052  14.152  20.772  10.161  0.0965  0.0990  0.0204
 2000W        W45053  25.553   8.373  22.845 -0.0173 -0.1113 -0.2901
 2001W        W45054   8.247  24.205  27.621 -0.1970  0.0289  0.3080
 2002W        W45055  28.890  18.852  27.162 -0.2835 -0.1644  0.1751
 2003W        W45056  16.439  23.856  26.183  0.0294  0.3692  0.3307
 2004W        W45057  24.781   3.005   0.181 -0.3439  0.0960 -0.0322
 2005W        W45058  11.586   2.544  10.204  0.0094 -0.3261 -0.1218
 2006W        W45059  21.531   2.159   5.269 -0.0431 -0.1755  0.1971
 2007W        W45060  18.202   7.580   7.606 -0.0342  0.2307 -0.1118
 2008W        W45061  22.739  20.863   6.683  0.0549 -0.1637  0.0524
 2009W        W45062  11.931  23.905   1.392  0.1354  0.0809  0.1406
 2010W        W45063   8.817  15.970   8.646  0.0515  0.2363 -0.2877
 2011W        W45064  14.866  13.207   7.663 -0.1804  0.0344 -0.1213
 2012W        W45065  17.223  13.048   4.805  0.5107  0.1048  0.3820
 2013W        W45066   8.242  13.637   7.584 -0.1134 -0.0836 -0.2825
 2014W        W45067   5.630  25.426   4.146  0.2994 -0.4571 -0.2137
 2015W        W45068   1.179  28.542   2.362  0.1325  0.2510  0.1641
 2016W        W45069  12.349  31.269   2.177  0.1014 -0.1153 -0.1074
 2017W        W45070  21.786  15.586  27.860  0.1280  0.5090  0.2225
 2018W        W45071  27.916   0.156   5.305  0.2254 -0.2293 -0.0150
 2019W        W45072   7.256  26.852  14.061  0.1416  0.0982  0.1171
 2020W        W45073  20.700  19.164   2.242  0.1155 -0.0015 -0.0072
 2021W        W45074  16.920   7.060   7.110 -0.0900 -0.0301 -0.0172
 2022W        W45075  14.918  13.728   6.822  0.2134  0.0412  0.3951
 2023W        W45076   6.667  13.228  24.994 -0.2050  0.3075  0.0364
 2024W        W45077  21.269   9.703   9.357 -0.1256  0.1852  0.0489
 2025W        W45078  14.345   7.648  25.952 -0.1324 -0.3649  0.3407
 2026W        W45079  11.996  11.239  27.947  0.1353 -0.0147  0.1858
 2027W        W45080  17.423  32.155   5.388  0.1508  0.2737  0.0299
 2028W        W45081  16.766   5.903   5.831  0.1674 -0.3736  0.2049
 2029W        W45082  16.667  22.234  28.547  0.1269 -0.2591 -0.1721
 2030W        W45083  13.010  17.624   5.520  0.0375  0.0176 -0.0196
 2031W        W45084  16.547   9.679   8.591 -0.0973  0.1608  0.2344
 2032W        W45085  10.488   2.653  26.029  0.0009  0.1829 -0.2181
 2033W        W45086   9.330  16.473   0.658  0.1249  0.0160 -0.3898
 2034W        W45087  15.398  10.957   8.685  0.0020  0.3618 -0.0899
 2035W        W45088   2.227  13.916   2.312  0.2231 -0.1813 -0.3299
 2036W        W45089  14.604  15.673   0.067 -0.3067  0.2016  0.3890
 2037W        W45090   5.929  24.187   0.770 -0.3341  0.3048  0.1874
 2038W        W45091  15.630  24.972  25.878 -0.0005  0.0499 -0.0660
 2039W        W45092   0.333  21.864   7.929  0.1641  0.2406 -0.0327
 2040W        W45093  16.135  11.493  21.380  0.0483 -0.1259 -0.3767
 2041W        W45094  14.694  18.598   0.085 -0.2553  0.0347  0.0045
 2042W        W45095  33.524  34.656   8.853  0.0918  0.0059 -0.0799
 2043W        W45096   2.713  21.498   4.157  0.0481 -0.3040  0.0247
 2044W        W45097  26.009  10.835   0.948  0.1239 -0.3862 -0.0022
 2045W        W45098   9.787  13.109   3.758  0.3307  0.2864  0.1118
 2046W        W45099  20.646  12.234   3.389 -0.2622 -0.0251  0.0581
 2047W        W45100  29.813   7.359   5.805 -0.0514 -0.0835  0.0682
 2048W        W45101  21.692  11.591   8.969 -0.1469  0.0447 -0.0275
 2049W        W45102  18.234  16.200   5.704 -0.0441 -0.3311  0.0734
 2050W        W45103   9.196  13.148  27.719 -0.3169 -0.1610  0.0786
 2051W        W45104  33.116  20.638   6.869  0.1247 -0.1517  0.1769
 2052W        W45105  10.809  21.996   2.948  0.0358 -0.4937  0.0054
 2053W        W45106  12.949  11.469  10.734 -0.0010  0.0981  0.0963
 2054W        W45107  19.544  32.313  22.450 -0.0828 -0.0998 -0.0711
 2055W        W45108  26.570  15.015   8.382 -0.0342 -0.0167  0.0597
 2056W        W45109   4.953  16.741   7.827 -0.1592  0.1282 -0.0086
 2057W        W45110  16.492   6.785  28.129 -0.2821  0.3506  0.1523
 2058W        W45111  21.538  25.020   8.515  0.1656 -0.2297 -0.1198
 2059W        W45112  17.704  14.511   8.765 -0.2370 -0.2068 -0.2827
 2060W        W45113  20.861  22.386   6.403 -0.2447  0.1294  0.1081
 2061W        W45114   3.377  13.889   8.158  0.4821 -0.0054 -0.1419
 2062W        W45115  22.869  33.828   0.465 -0.2979 -0.3022 -0.0858
 2063W        W45116  12.636  10.216   5.119 -0.0741 -0.3527  0.3148
 2064W        W45117  32.569  33.891   3.480 -0.0101  0.2299 -0.1265
 2065W        W45118  16.091  13.446   8.248  0.2031  0.0162  0.1467
 2066W        W45119  15.435  16.649   2.203 -0.0512  0.2568 -0.2271
 2067W        W45120   1.008  16.354   4.160  0.1980  0.1138  0.2249
 2068W        W45121   3.241  11.657   0.222 -0.2946 -0.1654 -0.1012
 2069W        W45122  22.810   8.548   4.639  0.0269 -0.0191  0.1945
 2070W        W45123  11.435  12.252   6.656  0.0726 -0.1188  0.2303
 2071W        W45124  13.878  15.986   7.992 -0.0322  0.1315 -0.1571
 2072W        W45125  14.413   2.175   3.664  0.3311  0.0274 -0.1513
 2073W        W45126  20.283  14.880   6.337  0.0843 -0.0992 -0.0612
 2074W        W45127  13.007   2.570  27.421 -0.0007  0.0464  0.1472
 2075W        W45128  10.665  13.786   9.059 -0.0666 -0.1832  0.2908
 2076W        W45129   9.370   8.687  16.440 -0.4574 -0.2022  0.0609
 2077W        W45130  32.302   8.532   3.931 -0.1170  0.0947 -0.0968
 2078W        W45131  27.012   8.532   3.739  0.0091  0.2694  0.2891
 2079W        W45132   1.268   3.107  20.402  0.0457 -0.3541 -0.0494
 2080W        W45133  24.382   8.753   6.127 -0.1507 -0.0431  0.2069
 2081W        W45134  23.762   5.997   5.898 -0.0405 -0.0106 -0.2762
 2082W        W45135  34.080   8.894   1.868 -0.1130 -0.0516  0.3364
 2083W        W45136   5.136   3.482   6.211 -0.0770  0.0938 -0.0681
 2084W        W45137  27.326  13.346   0.134  0.1350  0.2100 -0.1107
 2085W        W45138  18.720  29.419   5.851 -0.2944 -0.1933  0.2118
 2086W        W45139  28.024   8.780   9.834 -0.0610 -0.0848  0.2622
 2087W        W45140  32.165  27.485   9.280  0.0328 -0.0111 -0.0365
 2088W        W45141  10.038   9.666   1.735  0.1111 -0.0125 -0.1135
 2089W        W45142  25.633  23.824   5.434  0.3577 -0.3113 -0.0828
 2090W        W45143  12.430  14.434   3.971  0.3046  0.0430 -0.0550
 2091W        W45144  14.458   5.640  21.484 -0.1564 -0.0630  0.0057
 2092W        W45145   9.956  18.771   3.505  0.0607  0.0930  0.3257
 2093W        W45146  18.329  15.750   9.932 -0.0642  0.2998  0.1391
 2094W        W45147  11.718  16.359   8.145 -0.1655 -0.0401 -0.0168
 2095W        W45148  15.815  30.197  27.534 -0.1279  0.0822  0.0708
 2096W        W45149  19.393   5.493  10.427 -0.0164  0.0601  0.2570
 2097W        W45150  14.574  10.625   6.397  0.0283  0.1362 -0.0940
 2098W        W45151  33.080   9.771   7.198 -0.2342  0.0577  0.0803
 2099W        W45152   7.499  18.715  21.428 -0.1736 -0.0473 -0.0380
 2100W        W45153  18.895  16.231  25.644  0.1443 -0.0985  0.0817
 2101W        W45154  32.081  15.793   4.003 -0.1732  0.0794 -0.2010
 2102W        W45155   5.935  16.902   9.281  0.2022 -0.0163 -0.1211
 2103W        W45156   4.659   7.603   5.209  0.0827 -0.1346  0.1534
 2104W        W45157   4.555   9.421   5.743  0.3475 -0.0059  0.1679
 2105W        W45158  28.173  16.696   5.051  0.3084 -0.0261  0.2072
 2106W        W45159   3.295   7.719   4.584 -0.0582 -0.1129  0.0406
 2107W        W45160   8.311  15.635   4.747  0.0808  0.3025 -0.3969
 2108W        W45161  26.736  14.684  28.017  0.0628 -0.1591 -0.0532
 2109W        W45162   3.867  10.129   6.084  0.1770 -0.0117 -0.0405
 2110W        W45163  21.618   4.465   5.587 -0.1714  0.0198  0.3014
 2111W        W45164  23.484   9.207  25.021 -0.1762 -0.1135  0.0736
 2112W        W45165  22.927  29.131  20.362 -0.0131  0.2336  0.1081
 2113W        W45166   5.883  10.363   4.339 -0.1075  0.0282  0.2721
 2114W        W45167  24.647   9.315   6.938 -0.0766  0.0478 -0.0264
 2115W        W45168  33.364   4.890   0.901  0.0097  0.3007 -0.1229
 2116W        W45169  14.921  13.526   5.344  0.0654 -0.0711  0.1549
 2117W        W45170  22.213   2.526  24.209 -0.1862 -0.1831  0.2025
 2118W        W45171  17.405  28.238  23.712  0.0238 -0.1865 -0.0328
 2119W        W45172  18.242  13.911   6.900 -0.2100  0.3136  0.0198
 2120W        W45173  34.591  13.182   8.652  0.3370 -0.0783 -0.1892
 2121W        W45174  32.942   5.489   9.022 -0.1172  0.0821  0.3333
 2122W        W45175  19.970   6.401   7.030  0.1891  0.0996  0.0719
 2123W        W45176  26.915  11.305   4.366  0.1870  0.1590 -0.1568
 2124W        W45177   9.610  13.947  10.168  0.0990 -0.0544  0.0610
 2125W        W45178  25.187   9.699   1.854  0.0128  0.2132  0.1272
 2126W        W45179  30.262  23.101   7.085 -0.0294  0.1573  0.2910
 2127W        W45180  17.379  15.152   9.195 -0.0172  0.1274  0.4061
 2128W        W45181  14.029   7.770   1.909 -0.1430 -0.0968  0.0434
 2129W        W45182   0.774  14.237  22.093 -0.0893  0.0355  0.0143
 2130W        W45183   4.560  17.087   9.648 -0.5123 -0.0575  0.1763
 2131W        W45184   8.980  20.938   3.298 -0.1045 -0.0817 -0.0029
 2132W        W45185  10.957   5.864   8.817 -0.0979 -0.1395  0.1603
 2133W        W45186  17.025  10.413   4.900 -0.0013  0.0302 -0.2813
 2134W        W45187  14.280  25.264  10.535  0.1293 -0.0145  0.0647
 2135W        W45188  31.425   5.043   4.013  0.1801 -0.0926 -0.1668
 2136W        W45189  24.049  10.111   6.295 -0.0095 -0.0565 -0.1869
 2137W        W45190  22.012  13.771  28.392 -0.1118 -0.3784 -0.0147
 2138W        W45191   2.532  28.319  27.134  0.4184  0.0971  0.2693
 2139W        W45192  11.297  25.376   5.023  0.1687  0.1858 -0.1358
 2140W        W45193  15.936   5.214   5.609  0.0273 -0.3886 -0.0705
 2141W        W45194  12.901   9.998   8.152  0.0574 -0.1328 -0.1605
 2142W        W45195   5.639  10.863  23.230 -0.1817 -0.0326 -0.0891
 2143W        W45196  17.663  13.280  27.890 -0.0359 -0.0713 -0.1260
 2144W        W45197  31.840   1.220   7.317 -0.5410  0.2526 -0.3904
 2145W        W45198   8.894  26.110   3.497  0.2601  0.0625 -0.0175
 2146W        W45199   8.617   4.287  26.722  0.2522  0.2941  0.4025
 2147W        W45200  17.089   5.757   7.767  0.2132 -0.2619 -0.0472
 2148W        W45201  17.203   8.801   7.539 -0.0616  0.1045 -0.0678
 2149W        W45202  23.494  22.344   7.534  0.0268  0.2731  0.2196
 2150W        W45203  16.874  16.279   4.311  0.1508 -0.4007 -0.2046
 2151W        W45204   7.243  17.210   8.695 -0.1034 -0.3652 -0.1565
 2152W        W45205  23.312  22.842   9.334  0.0883 -0.2495  0.0402
 2153W        W45206  29.847   4.595   9.264  0.1550 -0.0988 -0.0657
 2154W        W45207  20.448  22.915  26.602 -0.2360  0.1637 -0.0451
 2155W        W45208  18.657   7.243   9.864  0.0814 -0.0814 -0.2145
 2156W        W45209  14.422  15.960   7.391  0.2652 -0.2041 -0.4241
 2157W        W45210  14.240  12.694   7.429  0.4415 -0.1065  0.0517
 2158W        W45211   6.613  16.409  28.633 -0.3097  0.1167 -0.2160
 2159W        W45212   7.729  34.158   0.385 -0.2743 -0.1456  0.2025
 2160W        W45213  13.842   9.728   9.201  0.2494  0.0540  0.0605
 2161W        W45214  33.175  18.149   9.560 -0.0539  0.0312  0.1085
 2162W        W45215  16.981  20.681   1.263  0.1446  0.0555 -0.0035
 2163W        W45216   9.260   4.135  26.159 -0.1268 -0.3111 -0.3122
 2164W        W45217  18.315  17.697  26.998  0.1731 -0.1571  0.2370
 2165W        W45218  10.388  25.409   6.531 -0.1903  0.2019 -0.1597
 2166W        W45219   1.879  20.835   7.244  0.3883  0.3030  0.0247
 2167W        W45220  17.877  20.180   5.992  0.0097 -0.1411 -0.2356
 2168W        W45221  12.197  22.500   1.983  0.1758 -0.0969  0.1778
 2169W        W45222  26.191  11.746   9.178  0.1714  0.3712  0.0581
 2170W        W45223  11.117  15.937   2.748 -0.1473 -0.0524 -0.0106
 2171W        W45224  23.763   4.711  25.893  0.1279 -0.2317 -0.5392
 2172W        W45225  21.397   7.699  22.827  0.1745 -0.2204 -0.1113
 2173W        W45226  11.888   4.577  28.443  0.1768  0.0115 -0.1772
 2174W        W45227   7.023  11.451   0.528 -0.0109  0.2081  0.2594
 2175W        W45228  17.120  10.865   5.125  0.3376  0.0867 -0.0032
 2176W        W45229  28.094   7.445   9.717 -0.0145 -0.1074  0.0222
 2177W        W45230  16.835   1.076  25.903  0.1027  0.1038 -0.0910
 2178W        W45231  16.005  19.435   9.381 -0.0164  0.4234 -0.3036
 2179W        W45232  17.759  17.759  28.490  0.1324  0.0309 -0.0291
 2180W        W45233  14.648   1.039   6.048 -0.5296  0.1155 -0.2590
 2181W        W45234   7.765   5.953   7.603  0.2208 -0.0916 -0.0596
 2182W        W45235   4.329  12.727   9.698 -0.1601  0.0843 -0.1923
 2183W        W45236  12.397  13.091   3.057  0.0861 -0.0662 -0.3784
 2184W        W45237  22.876  12.661  21.231 -0.2505 -0.0406  0.0108
 2185W        W45238  25.065  18.744  28.798 -0.3092  0.0350 -0.2652
 2186W        W45239  27.927   2.264   2.022 -0.0214 -0.3879  0.1533
 2187W        W45240  17.986  15.664   8.744  0.0696 -0.0072  0.1632
 2188W        W45241  17.230  21.205   6.721 -0.0481  0.0558 -0.0942
 2189W        W45242  18.867  18.441  24.841 -0.0915  0.1195 -0.0983
 2190W        W45243  22.711   8.952  24.404 -0.1545  0.0446 -0.0308
 2191W        W45244   6.915  33.077   9.378  0.0271  0.0767 -0.3812
 2192W        W45245  23.748   0.874  25.618 -0.1216 -0.2199  0.3793
 2193W        W45246  18.593   6.511   0.509  0.1663  0.0449  0.0177
 2194W        W45247  14.249  23.985  29.156 -0.1687  0.0297  0.1735
 2195W        W45248   7.795  13.977   0.287  0.2267 -0.3000  0.1946
 2196W        W45249   0.056  15.575   0.137  0.0533  0.0815 -0.0878
 2197W        W45250   3.628   1.970   3.937 -0.0273  0.0174 -0.3420
 2198W        W45251  15.967  13.831  25.130 -0.0231 -0.2695  0.1097
 2199W        W45252  15.004   9.153   8.536  0.0881 -0.1377  0.0099
 2200W        W45253  18.911   6.003   3.208  0.2482 -0.1288  0.0436
 2201W        W45254  19.732   7.546   0.425 -0.3016  0.3145 -0.1149
 2202W        W45255  24.640  18.300   5.225 -0.0559  0.2162 -0.0710
 2203W        W45256  18.312   4.577   1.628  0.0711  0.1211  0.1074
 2204W        W45257  13.091  10.332  27.683  0.5605  0.0802 -0.1663
 2205W        W45258  21.880  16.113   6.228  0.0883  0.1089  0.0502
 2206W        W45259  28.223  20.510   2.029  0.1264 -0.0533  0.0941
 2207W        W45260   7.923   3.086   9.053  0.1149  0.1229 -0.2055
 2208W        W45261  14.384   8.884   4.426 -0.3679  0.0193  0.4195
 2209W        W45262  18.579  20.510   5.699  0.0996  0.1395  0.1881
 2210W        W45263  10.449   4.178   6.614 -0.1483  0.1876 -0.1153
 2211W        W45264  16.577  12.628   1.416 -0.1320 -0.2821 -0.0577
 2212W        W45265  13.344  27.492   3.443 -0.1257 -0.3027  0.1664
 2213W        W45266  30.661  22.491  28.385 -0.0342 -0.0590 -0.2256
 2214W        W45267   9.353  33.161   5.793 -0.2037 -0.2070  0.0585
 2215W        W45268  25.597  19.088   3.438 -0.2393  0.0735 -0.1041
 2216W        W45269  18.209   1.519   7.262  0.0108 -0.0459  0.2187
 2217W        W45270  10.370  11.489   1.896  0.1898  0.1476  0.0516
 2218W        W45271  20.035  19.081   6.938  0.1960  0.1499  0.1109
 2219W        W45272  16.869  15.735   1.379  0.2752 -0.2667 -0.1118
 2220W        W45273   7.076   8.279   9.167  0.1665 -0.0443  0.0788
 2221W        W45274  19.373  21.291   6.451 -0.0937  0.0538  0.1088
 2222W        W45275  33.849  21.053   1.461 -0.2033  0.0083  0.2100
 2223W        W45276  19.480  22.241   7.556 -0.2702 -0.0133 -0.3236
 2224W        W45277  25.435  34.067  10.290 -0.0153 -0.0128  0.3832
 2225W        W45278  22.407  19.725   8.466 -0.3344 -0.0583  0.0473
 2226W        W45279  22.896  23.669   3.752 -0.1241 -0.1669  0.3100
 2227W        W45280  28.409  28.962  10.645  0.1072  0.0795 -0.0680
 2228W        W45281  14.484  10.796  24.306 -0.0667 -0.0869 -0.0303
 2229W        W45282  28.817  11.567   1.771 -0.0206  0.4482  0.3115
 2230W        W45283  22.787  12.959   9.947  0.0810  0.1441 -0.1647
 2231W        W45284   2.469  34.463  26.182 -0.0756  0.0773  0.2839
 2232W        W45285  20.089  23.736   7.734 -0.1580 -0.1471  0.0032
 2233W        W45286  19.466   2.659   8.348 -0.2264 -0.1557  0.2558
 2234W        W45287  29.184  24.570   6.611  0.1392  0.2522  0.1208
 2235W        W45288  27.829  26.845  21.077  0.0992 -0.0251 -0.0747
 2236W        W45289  28.226  12.767   0.743  0.3214 -0.3963 -0.0055
 2237W        W45290  20.889  15.687  25.313 -0.1199  0.1808  0.1124
 2238W        W45291  12.684  22.499   0.924  0.0163  0.3157  0.0195
 2239W        W45292  28.283  10.744  28.910 -0.2170  0.2082 -0.0378
 2240W        W45293  27.827  34.110  27.651  0.2224  0.2251 -0.1221
 2241W        W45294  19.386  21.765   5.542  0.1320 -0.0914  0.0042
 2242W        W45295   8.361  20.873   7.330 -0.3904  0.5268  0.0954
 2243W        W45296  28.806   3.931   9.462  0.0279  0.1666  0.2473
 2244W        W45297  17.684  30.361   6.994 -0.1076 -0.0663  0.2558
 2245W        W45298  13.204   2.885   3.833  0.2469  0.1101 -0.1813
 2246W        W45299   9.935  24.416  24.852 -0.0562 -0.0471  0.0488
 2247W        W45300  22.259  12.148   3.471 -0.3323  0.3857  0.2982
 2248W        W45301  22.294   7.509   3.471 -0.1556  0.1781  0.2507
 2249W        W45302  18.735  16.296  24.532  0.0000  0.2862 -0.0423
 2250W        W45303   7.601  30.348   7.373 -0.2280  0.0890 -0.2834
 2251W        W45304   7.443   1.619   3.580 -0.1445 -0.1633 -0.0952
 2252W        W45305  24.413   7.977   5.694 -0.0686  0.0853 -0.2095
 2253W        W45306  27.389  13.943   9.186  0.1773  0.2177 -0.1236
 2254W        W45307  12.852  33.756   3.124  0.1553 -0.0083 -0.2923
 2255W        W45308  18.827   4.232   8.968  0.1066  0.2912  0.2206
 2256W        W45309  17.708  21.305  25.519  0.3795  0.1190 -0.2716
 2257W        W45310  26.127  25.022  25.315  0.0382  0.0681 -0.2759
 2258W        W45311  15.424  31.670  27.379  0.0068 -0.2063  0.0848
 2259W        W45312  12.743  16.946   3.212 -0.1493  0.0527 -0.1870
 2260W        W45313   3.824  10.667   0.657 -0.0661 -0.1606 -0.1397
 2261W        W45314   7.260  18.892  17.760  0.0392 -0.1707  0.2433
 2262W        W45315  21.871  24.468  19.312 -0.0302  0.0989 -0.1922
 2263W        W45316  22.911  12.403   5.889 -0.2144 -0.0916  0.2909
 2264W        W45317  29.231   8.433   3.263  0.1884 -0.2744  0.1309
 2265W        W45318  17.431  21.808  27.263  0.2188  0.1517 -0.0141
 2266W        W45319  31.055   3.033   7.468 -0.1231  0.2086  0.1978
 2267W        W45320  21.224  31.871   2.850  0.0338 -0.0523  0.2565
 2268W        W45321  21.837  17.299   9.478  0.0314 -0.0320  0.1678
 2269W        W45322   6.831  18.398   4.506 -0.3624 -0.1607  0.3063
 2270W        W45323  23.504   1.147   2.679  0.2163 -0.2747  0.0402
 2271W        W45324  13.086  16.082  29.030 -0.0714  0.2914  0.2049
 2272W        W45325  19.738   8.634   0.393 -0.3000  0.1861 -0.2578
 2273W        W45326  16.391   8.188   6.109  0.1205 -0.1547 -0.1954
 2274W        W45327  10.097   8.764   2.628  0.1414  0.2204 -0.0657
 2275W        W45328  26.097  12.633   0.073 -0.1095  0.0548 -0.0724
 2276W        W45329  20.908  11.605  15.601 -0.6542  0.2107  0.4724
 2277W        W45330  17.372  10.308   4.539 -0.0104  0.0294  0.1008
 2278W        W45331  17.885   3.388  10.249 -0.0968 -0.4353  0.0996
 2279W        W45332  13.844  10.598  10.551 -0.1729  0.1193 -0.1205
 2280W        W45333   3.386  12.007  28.244  0.2810  0.0311  0.2745
 2281W        W45334  23.224  16.655  29.122  0.0929  0.1098  0.1200
 2282W        W45335   4.012  11.411   7.155 -0.1621 -0.1091 -0.3654
 2283W        W45336  14.728  17.066   5.229 -0.0597 -0.1670  0.4509
 2284W        W45337   9.470  20.382   2.207  0.4534  0.0007 -0.2505
 2285W        W45338  29.763   3.221  22.378  0.0028  0.1134  0.1436
 2286W        W45339  13.827   6.847   8.069  0.0886  0.1382 -0.1863
 2287W        W45340  21.862  24.392   3.809  0.0027 -0.0395  0.0018
 2288W        W45341  13.397  10.541  28.008 -0.0799 -0.0971 -0.1354
 2289W        W45342  19.455  23.243   4.484  0.0704  0.2704 -0.0292
 2290W        W45343  11.486  17.709  22.514  0.2108 -0.2521  0.2150
 2291W        W45344   0.702  26.539  22.875  0.1037 -0.1253  0.1239
 2292W        W45345  25.739  11.583  28.091  0.0955 -0.3554  0.0317
 2293W        W45346  19.913   6.535   2.741  0.1844  0.1236 -0.0220
 2294W        W45347  22.874  10.625   2.262  0.1553  0.1430  0.3734
 2295W        W45348   7.924  24.349   5.382  0.2012 -0.2161  0.3778
 2296W        W45349   7.432  31.516   7.671  0.0046 -0.1647  0.1404
 2297W        W45350   9.784   8.684   7.445 -0.0807 -0.0542  0.0974
 2298W        W45351   1.900  13.928   1.604  0.2591 -0.0413  0.1912
 2299W        W45352  15.116  20.415  19.805  0.0363 -0.1144  0.1547
 2300W        W45353  18.252  10.430   5.659  0.1930  0.1541 -0.2334
 2301W        W45354  22.024  25.333   3.632  0.0370  0.0836 -0.2964
 2302W        W45355   8.007   2.074   6.968 -0.0426 -0.0934  0.0799
 2303W        W45356  29.635  15.967  29.133  0.1223 -0.4103 -0.0744
 2304W        W45357  31.574  23.987  15.540  0.1015 -0.0283  0.2994
 2305W        W45358   2.388  32.975  26.841  0.1871 -0.2698 -0.2531
 2306W        W45359  12.400  11.172   2.808 -0.6374  0.0377 -0.0469
 2307W        W45360   2.881  18.995  28.103 -0.5524 -0.0843 -0.0397
 2308W        W45361  13.056  22.274  28.140  0.0470  0.1278  0.0367
 2309W        W45362  16.435  10.036   9.755  0.4388  0.1444 -0.1098
 2310W        W45363  18.351  26.737   7.153  0.0574 -0.2567  0.1662
 2311W        W45364  24.334  10.553   1.646 -0.1792  0.0626 -0.2366
 2312W        W45365  24.444   5.081   4.013  0.3331 -0.0127  0.3430
 2313W        W45366  31.148  13.265  24.012  0.2058 -0.1678  0.1118
 2314W        W45367   7.003   9.861  25.060 -0.1603  0.0028 -0.0000
 2315W        W45368  31.032  14.450   3.106 -0.1523  0.0770 -0.0803
 2316W        W45369  14.283  22.427   9.632  0.2393  0.2354  0.1025
 2317W        W45370   2.510  29.628  24.579 -0.1018  0.0169 -0.0666
 2318W        W45371  26.883  23.875   7.559  0.1095 -0.2140  0.0987
 2319W        W45372  17.885  17.654   0.637  0.0768  0.0277 -0.0742
 2320W        W45373  20.428  13.190   5.164  0.2176  0.1391  0.2804
 2321W        W45374  28.039  25.198  22.312 -0.0230 -0.1168 -0.1380
 2322W        W45375   6.842  23.872   2.892 -0.0349  0.0208 -0.2817
 2323W        W45376  14.500  20.065   7.849 -0.0989 -0.1074 -0.0814
 2324W        W45377  14.604  19.361  21.671 -0.0135  0.0855  0.1173
 2325W        W45378  26.380  16.672  20.209 -0.1434 -0.0129  0.2260
 2326W        W45379  16.772  15.972  23.648 -0.1226  0.0805 -0.1983
 2327W        W45380  21.962  34.513   8.594 -0.0568  0.1789 -0.1550
 2328W        W45381  18.090   8.564   3.545  0.0246  0.2024  0.0891
 2329W        W45382  19.102  17.553  13.682 -0.0964  0.0366 -0.1481
 2330W        W45383  25.148  24.741   4.678 -0.0975  0.0608 -0.4057
 2331W        W45384  14.423  13.550   8.325 -0.2530  0.0252 -0.1981
 2332W        W45385  10.898   7.372  23.486 -0.2105  0.2439  0.2415
 2333W        W45386  15.731  10.727  25.611 -0.0128 -0.1482 -0.0022
 2334W        W45387  13.360  19.251  26.197 -0.0346 -0.0149 -0.0530
 2335W        W45388   4.691  13.409   0.127  0.2926 -0.0880 -0.1397
 2336W        W45389  29.013   5.042  17.965 -0.0774  0.1397  0.2823
 2337W        W45390   6.740  15.589  18.906 -0.1738  0.3228  0.1617
 2338W        W45391  12.830  18.361   3.923 -0.0176  0.2187 -0.0732
 2339W        W45392  32.653  23.701   1.694  0.0104 -0.0113 -0.1160
 2340W        W45393  27.171   6.208   0.625  0.0516 -0.0540 -0.0025
 2341W        W45394  29.070  21.409  19.700 -0.1975 -0.1865 -0.1615
 2342W        W45395  20.748  25.976   3.498  0.2339 -0.2496 -0.0547
 2343W        W45396  32.048  31.789   1.130 -0.0536  0.2263 -0.1651
 2344W        W45397  17.193   3.052  19.264 -0.4394 -0.0355 -0.1624
 2345W        W45398  14.816  10.418  24.406 -0.3630 -0.2379 -0.0110
 2346W        W45399   2.114  21.285  16.257  0.0875 -0.3818  0.0711
 2347W        W45400  10.212  11.259  26.882 -0.1306 -0.4027  0.2988
 2348W        W45401  23.678  19.934  28.788  0.3522 -0.4399  0.0939
 2349W        W45402   8.928  33.339   8.360  0.3102  0.1315 -0.0362
 2350W        W45403   8.236   8.560  22.924 -0.2051  0.0564 -0.0829
 2351W        W45404  16.196  22.272  24.636  0.2945  0.1969 -0.2896
 2352W        W45405  24.467  25.522   0.425 -0.2009 -0.1565 -0.0667
 2353W        W45406  17.667  28.399   9.536 -0.3103  0.1681 -0.1704
 2354W        W45407  19.702  11.942  17.298  0.0591  0.1685  0.1365
 2355W        W45408   8.392  23.667  26.516  0.0367 -0.2270  0.1142
 2356W        W45409  16.346  17.223  27.246 -0.0085 -0.1927  0.1279
 2357W        W45410  18.954   7.413  10.258  0.2595  0.1038  0.1685
 2358W        W45411  19.661   0.491   1.551  0.0436 -0.0648  0.0562
 2359W        W45412  13.524  16.717  20.889 -0.1489 -0.0048  0.3459
 2360W        W45413  23.529  11.411  18.694 -0.1473 -0.1805  0.2043
 2361W        W45414  13.436  20.565   7.549 -0.1527 -0.1425 -0.0398
 2362W        W45415  18.156  25.101   4.534  0.1012 -0.0661  0.5380
 2363W        W45416  24.545   9.451  25.185 -0.0754 -0.3411 -0.1066
 2364W        W45417   1.572  24.204   1.321  0.1930  0.3261 -0.2591
 2365W        W45418  23.628  20.873  28.603 -0.1876 -0.2786 -0.3144
 2366W        W45419   5.578   2.399   5.869  0.1536  0.1965  0.1110
 2367W        W45420  10.839   8.420   3.653 -0.2223  0.0888  0.2596
 2368W        W45421  30.738   0.986   5.749 -0.0783  0.1439  0.1158
 2369W        W45422   7.287  10.643  27.685  0.2588 -0.4169 -0.0371
 2370W        W45423  30.645  11.557   1.762  0.1709  0.1503  0.0353
 2371W        W45424  17.999  15.873   4.830  0.0148 -0.1924  0.0580
 2372W        W45425   0.120  21.406  16.037  0.1008 -0.2996 -0.0557
 2373W        W45426  21.404   4.846  22.912 -0.3893 -0.0722 -0.2339
 2374W        W45427  22.083  20.467  15.068  0.0506  0.0756 -0.0090
 2375W        W45428  17.085  12.391   3.474  0.1605 -0.1183  0.2976
 2376W        W45429  34.395  23.507   5.099 -0.1152 -0.1854  0.0716
 2377W        W45430  14.868  28.215   9.295 -0.0990  0.0758 -0.1704
 2378W        W45431  22.572  10.071  28.050 -0.0226 -0.2578 -0.2600
 2379W        W45432  26.349   8.571  20.341  0.3071  0.0180 -0.0352
 2380W        W45433   5.748   5.675  27.929  0.1033 -0.0290  0.2118
 2381W        W45434  27.121   1.691   2.702  0.1214 -0.0748 -0.0213
 2382W        W45435   4.396  30.692  27.022  0.0663  0.1099 -0.1453
 2383W        W45436   8.765   9.848  20.333 -0.0532 -0.1194  0.1422
 2384W        W45437   8.268  34.666   6.798  0.1009  0.1303 -0.2820
 2385W        W45438  12.720  14.297  23.917 -0.0179  0.0984 -0.1023
 2386W        W45439  32.392  11.583   4.704  0.1962  0.1442  0.1357
 2387W        W45440  11.860  10.517  10.108 -0.1471 -0.0630  0.0306
 2388W        W45441  17.740  18.398   4.125 -0.1414 -0.2832 -0.2672
 2389W        W45442  23.434   3.765  20.384 -0.1838  0.0638 -0.1588
 2390W        W45443  14.357   1.949  28.801  0.1618 -0.4094 -0.1072
 2391W        W45444  10.812  34.410  21.549 -0.0520 -0.0307  0.2171
 2392W        W45445   6.986  26.651   7.339 -0.0630  0.0512  0.1013
 2393W        W45446  21.872   3.135   5.195 -0.0476 -0.1553  0.0008
 2394W        W45447  15.237  13.932   4.607  0.0441  0.0688 -0.0772
 2395W        W45448  17.656  15.212   3.240 -0.1149 -0.0834 -0.1076
 2396W        W45449  27.809   9.869   9.356 -0.1096  0.1024 -0.0680
 2397W        W45450   8.274   0.975   2.567  0.0178  0.4136 -0.1257
 2398W        W45451  26.689  25.377   1.551  0.0571  0.0385 -0.0370
 2399W        W45452   9.965  33.830   4.791 -0.0397  0.1176 -0.1581
 2400W        W45453   9.560  20.716  27.351 -0.2154  0.1645 -0.3247
 2401W        W45454  26.510  18.147  16.006  0.1372  0.2842  0.0478
 2402W        W45455  17.514  14.287   7.400  0.0235 -0.0901 -0.0421
 2403W        W45456  13.644  21.018   7.038 -0.1136 -0.0419  0.1840
 2404W        W45457   4.732  29.663   9.752  0.1131 -0.2227  0.0973
 2405W        W45458  29.493  20.150   1.151  0.1656 -0.1127  0.1479
 2406W        W45459   6.577  12.551  16.385  0.2384 -0.0610 -0.0151
 2407W        W45460  12.757  24.123  26.992  0.0979  0.2084 -0.3914
 2408W        W45461  23.391  21.712   1.077  0.2393  0.0774 -0.0483
 2409W        W45462  17.477   3.348  22.992  0.0991 -0.2145 -0.1169
 2410W        W45463  23.207  26.598  25.951 -0.0994  0.0280 -0.1615
 2411W        W45464  13.844  24.443   9.589 -0.1005  0.1597  0.2784
 2412W        W45465  20.224  15.242   1.856 -0.0298  0.0848  0.3633
 2413W        W45466  21.421   1.676  16.680  0.1529 -0.0375 -0.3834
 2414W        W45467  22.495  10.651  26.351 -0.1793  0.1383  0.0081
 2415W        W45468  21.380   4.582  29.198 -0.3441 -0.1446  0.0384
 2416W        W45469   8.128  25.726  14.730  0.2382 -0.3886  0.0239
 2417W        W45470  18.498  19.152   5.405  0.1673  0.5010 -0.1053
 2418W        W45471  10.757  21.038   4.483 -0.1228 -0.1498 -0.1577
 2419W        W45472  22.810   1.724  23.270  0.1591 -0.0543 -0.1359
 2420W        W45473   2.642  14.644   3.187  0.0678 -0.1015 -0.2531
 2421W        W45474  23.707  24.299  25.845  0.0269  0.4437  0.3462
 2422W        W45475  20.722   8.797  23.952 -0.3082 -0.4305  0.1328
 2423W        W45476  13.113   1.977  29.172  0.4471 -0.0623 -0.2072
 2424W        W45477   5.096  12.477   1.222  0.0079  0.0322  0.2093
 2425W        W45478  14.453  31.604   8.385  0.1557  0.0620 -0.1009
 2426W        W45479  15.756   9.307   9.793 -0.2487  0.1222  0.0147
 2427W        W45480  14.702  20.014   1.220 -0.2014  0.0438 -0.2531
 2428W        W45481  29.317  11.136   1.584  0.2296  0.1640  0.1187
 2429W        W45482   2.403   6.716   0.423  0.0256 -0.0169 -0.0920
 2430W        W45483  14.340  17.648  28.235  0.3349  0.2422 -0.1223
 2431W        W45484  26.830   7.563   3.400 -0.2844  0.0422 -0.2062
 2432W        W45485   7.813  17.565   3.299  0.0867 -0.2154  0.0316
 2433W        W45486  17.991  29.618  24.463 -0.1757 -0.3192  0.6412
 2434W        W45487   9.741  16.477  27.688 -0.0245  0.0362  0.1227
 2435W        W45488  22.593  10.688   3.544  0.0453 -0.1348  0.0519
 2436W        W45489  15.564  11.658   0.630  0.0246  0.0741 -0.2446
 2437W        W45490   6.035  17.244  28.468 -0.0640  0.2454  0.2922
 2438W        W45491   6.211  10.423   8.331  0.0425  0.1389 -0.1414
 2439W        W45492  16.663  24.747   4.861 -0.1981 -0.0880  0.0858
 2440W        W45493  25.418  33.142   8.451  0.1043  0.1608  0.4389
 2441W        W45494   3.280  16.959   7.080 -0.2416 -0.1809 -0.0455
 2442W        W45495   8.105   7.395   2.889 -0.1002  0.1904 -0.3356
 2443W        W45496   6.029  30.896  24.310  0.2839 -0.0949 -0.1119
 2444W        W45497  23.648  13.669  20.969  0.2398  0.0519 -0.0369
 2445W        W45498  30.366  32.195  25.034 -0.0494 -0.0553 -0.0945
 2446W        W45499  25.093  21.166  25.579  0.1626 -0.0558 -0.0837
 2447W        W45500  17.113  13.474   8.564 -0.0998  0.1018 -0.3047
 2448W        W45501  14.347  22.633   7.025  0.3062  0.0148  0.0978
 2449W        W45502  19.058   5.207   9.278  0.1072  0.1543 -0.1025
 2450W        W45503  16.913   8.650   8.392  0.0760 -0.1714 -0.0810
 2451W        W45504  25.612   7.528   0.079  0.1791  0.2849  0.4592
 2452W        W45505  15.411   1.587  18.078 -0.0164 -0.0637 -0.4767
 2453W        W45506  30.798  25.610  21.956  0.3076 -0.2812  0.1786
 2454W        W45507   9.733  12.428   9.970 -0.2335 -0.2144  0.3110
 2455W        W45508  18.898   2.578   0.312  0.1295 -0.1426 -0.2989
 2456W        W45509  29.745   7.966   8.691 -0.0567 -0.1445 -0.0957
 2457W        W45510  28.847  12.934   7.155 -0.0141  0.0124  0.2549
 2458W        W45511  23.345   0.345  10.247 -0.1675  0.0724 -0.0305
 2459W        W45512  22.160  20.708  27.187 -0.2931 -0.1098  0.0567
 2460W        W45513  15.660  17.256  27.853  0.1353  0.2664 -0.1978
 2461W        W45514  23.935  12.616   7.185  0.0343  0.0141 -0.3960
 2462W        W45515  21.504   5.701   6.571  0.0998 -0.2147 -0.1313
 2463W        W45516   1.303  18.844  15.852  0.0537 -0.1175 -0.0492
 2464W        W45517  24.541  30.572  19.044 -0.0524 -0.0789 -0.2377
 2465W        W45518  12.811  11.655   9.274  0.4208 -0.0652  0.0052
 2466W        W45519   6.435   0.287   1.702 -0.0789  0.0846  0.0627
 2467W        W45520  21.582  30.169  28.716  0.0708 -0.2560 -0.1503
 2468W        W45521  12.737  19.004  10.539 -0.0050  0.1889 -0.0441
 2469W        W45522   9.254  20.683  25.858  0.1671  0.2347  0.0515
 2470W        W45523   7.700   6.334  27.090  0.0371 -0.0152 -0.0232
 2471W        W45524  23.367  29.890  29.129 -0.1447 -0.0802  0.0634
 2472W        W45525   4.200  23.659   7.751 -0.0150 -0.0931  0.1382
 2473W        W45526  23.583  25.599  23.045  0.3330 -0.2660 -0.0176
 2474W        W45527  18.959   4.431  25.308  0.0192 -0.1378 -0.1754
 2475W        W45528  20.820  13.560   4.696 -0.2658  0.1559  0.1811
 2476W        W45529  23.331  28.461   3.435  0.1293  0.0956  0.1096
 2477W        W45530  24.048  12.322   5.867 -0.1839 -0.1234  0.0233
 2478W        W45531   5.800  23.721   0.636  0.0437  0.0005  0.5550
 2479W        W45532   5.140  10.189   8.229  0.0404 -0.1660  0.4511
 2480W        W45533  23.272  27.898  23.680 -0.0422  0.1821 -0.5673
 2481W        W45534   7.115   3.111   7.324 -0.0812  0.2462 -0.1749
 2482W        W45535  16.973  14.237   8.292  0.0121  0.1431  0.2602
 2483W        W45536  10.361   6.054  18.112 -0.2918  0.2423 -0.0591
 2484W        W45537  13.188  15.822   2.162 -0.1316 -0.4201 -0.1766
 2485W        W45538  10.110  11.951   1.453 -0.3868  0.2346 -0.2109
 2486W        W45539   9.461  20.205   4.367  0.2915 -0.2995  0.2257
 2487W        W45540  20.644   7.928  18.959 -0.1147  0.1837  0.2919
 2488W        W45541  20.481  26.824  28.101  0.1863  0.2126 -0.0246
 2489W        W45542  15.645   8.764   6.699 -0.0494  0.0738 -0.1512
 2490W        W45543  24.768  32.736   7.221 -0.0034 -0.0298 -0.1937
 2491W        W45544  18.727  15.655   5.456  0.3422  0.3276 -0.0384
 2492W        W45545  15.059  14.417   9.200  0.0234  0.0893 -0.0308
 2493W        W45546   5.054  14.944   0.768  0.1561  0.0068  0.0444
 2494W        W45547  12.517  22.551   6.098  0.1744 -0.1180  0.0202
 2495W        W45548  17.430  22.606  10.482 -0.5041  0.0577 -0.0794
 2496W        W45549  20.097   8.616  17.382  0.1950  0.2132 -0.0160
 2497W        W45550  23.738  12.079   0.723  0.0927  0.0546  0.1248
 2498W        W45551   6.174  17.656   7.350 -0.1536  0.3139 -0.2519
 2499W        W45552   9.965   5.329  27.294  0.2834 -0.0814 -0.2007
 2500W        W45553  18.003  19.010   0.964  0.2582 -0.0226 -0.1717
 2501W        W45554  31.266  18.747  25.209 -0.2670  0.1627 -0.0451
 2502W        W45555  31.798  20.587  20.123  0.0170  0.1423  0.1567
 2503W        W45556   1.448  11.969   7.079  0.2247  0.2256 -0.3004
 2504W        W45557  33.677   8.081   4.216  0.3573 -0.2846  0.0636
 2505W        W45558  26.476  29.795   6.630  0.0348  0.1413  0.0108
 2506W        W45559   9.827  16.742   8.635  0.2045  0.0424 -0.3985
 2507W        W45560  21.927  13.487  16.495 -0.1134  0.1079 -0.1678
 2508W        W45561   4.929   6.484   6.931 -0.1455 -0.0668 -0.1150
 2509W        W45562  14.146  20.270   0.656 -0.0758 -0.0297  0.2479
 2510W        W45563  12.284  27.992   1.973  0.3947 -0.3107 -0.0193
 2511W        W45564  17.836  14.262  28.016  0.2889 -0.0387  0.1159
 2512W        W45565  16.647   5.517   5.153  0.1282 -0.5237  0.4617
 2513W        W45566   9.744  18.090  10.426  0.2385  0.2118  0.0931
 2514W        W45567   1.939  15.323  26.979 -0.1839 -0.0685 -0.0023
 2515W        W45568  26.809  26.798  27.248 -0.3327 -0.0767  0.0090
 2516W        W45569  14.762  20.444   5.890 -0.1141 -0.0166 -0.0926
 2517W        W45570   2.891   8.068   4.496  0.2874 -0.0211  0.2317
 2518W        W45571  34.505  18.099   2.360  0.0450  0.4291 -0.1087
 2519W        W45572   3.128  20.692   1.193  0.0452 -0.1081 -0.0164
 2520W        W45573  30.446  24.163   3.044  0.4104  0.1506  0.1666
 2521W        W45574   3.013   7.909   2.845 -0.0465 -0.0174  0.3852
 2522W        W45575   9.156  19.767  21.604  0.1645 -0.2026 -0.2193
 2523W        W45576  13.262  29.848   8.567 -0.3800  0.0739  0.0253
 2524W        W45577  20.776  17.148   5.361  0.1405  0.2797  0.0124
 2525W        W45578  12.019  25.083  19.936  0.0581  0.0560  0.0538
 2526W        W45579  19.561  24.848   1.785 -0.2475 -0.1778 -0.3000
 2527W        W45580   1.982   3.509  27.900 -0.0154  0.1612 -0.2198
 2528W        W45581  20.578  11.032  17.759  0.0359  0.0341 -0.1916
 2529W        W45582   8.431  20.400   6.480  0.0062  0.1401 -0.2316
 2530W        W45583  31.374  22.779   3.799  0.1105 -0.2068  0.1219
 2531W        W45584  31.219  14.204  18.048 -0.0658  0.0699 -0.3357
 2532W        W45585  22.196  17.209   9.116 -0.0509 -0.2421  0.1401
 2533W        W45586  16.907   5.715   1.839  0.0987 -0.2616  0.3905
 2534W        W45587  29.288  11.063  10.201  0.0954 -0.0422  0.1314
 2535W        W45588  14.588   5.648   1.057 -0.4212 -0.1545  0.1424
 2536W        W45589  17.333  33.589   0.713  0.0594 -0.1658  0.2972
 2537W        W45590  29.239  18.587   9.867  0.0221  0.2416  0.5095
 2538W        W45591  15.928   9.789  28.345  0.0506  0.2339 -0.1660
 2539W        W45592  23.112  25.722   1.752 -0.0201 -0.2427  0.3608
 2540W        W45593  19.942  20.258   9.210 -0.1603 -0.4199  0.0497
 2541W        W45594  27.785  12.161   6.987 -0.2907 -0.1640  0.1467
 2542W        W45595  34.582  26.772  22.857 -0.1651  0.0489 -0.0839
 2543W        W45596  21.306   7.912  24.693 -0.1778  0.3938 -0.1502
 2544W        W45597  22.518  22.220  28.002  0.1692  0.0641 -0.2220
 2545W        W45598  11.939  10.411   7.255  0.2171 -0.2746 -0.0314
 2546W        W45599  13.691  28.999  17.331 -0.0196 -0.3007 -0.4122
 2547W        W45600  13.035  17.324   1.406 -0.1650  0.3449 -0.0054
 2548W        W45601   1.533  24.254  22.236 -0.3026  0.0146  0.0775
 2549W        W45602  26.077   5.031   2.323  0.1933  0.0456  0.0479
 2550W        W45603  11.125   6.529   2.303  0.0674  0.1112  0.0880
 2551W        W45604  30.588  24.827  28.918  0.0330 -0.1876  0.1548
 2552W        W45605   2.005  25.680  15.788  0.0877  0.2782  0.2161
 2553W        W45606   0.630  24.625   4.303 -0.0507 -0.1281  0.2219
 2554W        W45607  10.897   8.117   8.681 -0.2526 -0.0996  0.0143
 2555W        W45608  20.510   5.372   8.492 -0.2638  0.0327 -0.0433
 2556W        W45609  19.398  28.125   7.388 -0.1844 -0.1507 -0.0347
 2557W        W45610  15.575   0.211  22.983 -0.1859  0.1770 -0.0668
 2558W        W45611   9.501   9.101  15.697  0.1036 -0.0990  0.1166
 2559W        W45612  21.175  23.492   5.543 -0.2121 -0.0898 -0.2812
 2560W        W45613   8.345  14.034  23.087 -0.0944 -0.1061  0.0286
 2561W        W45614  27.716  28.879  23.375  0.0980 -0.3642  0.0809
 2562W        W45615  20.545  26.304   7.131 -0.1782 -0.0557 -0.1727
 2563W        W45616  25.547  20.563   2.891 -0.1708 -0.0405  0.3055
 2564W        W45617  18.898  20.744   6.995  0.1685 -0.0841 -0.3534
 2565W        W45618  27.637  18.888   9.160 -0.0932 -0.0609 -0.0384
 2566W        W45619   6.411  23.707  22.718  0.0880 -0.0738  0.3866
 2567W        W45620  28.474   4.558  23.533 -0.1312 -0.0538 -0.0460
 2568W        W45621  26.796  10.721   6.433 -0.2512 -0.1431  0.0192
 2569W        W45622  34.085  29.418  24.479  0.2400  0.0953  0.0300
 2570W        W45623  17.271  19.440   8.771  0.1248  0.0050 -0.1637
 2571W        W45624  28.320  31.246   7.793 -0.1522 -0.1664  0.2315
 2572W        W45625   7.465   0.732   9.358  0.1606 -0.1068 -0.3412
 2573W        W45626  24.618   7.137   2.002 -0.2102  0.5002 -0.2430
 2574W        W45627   5.764  15.410  28.323 -0.2907 -0.0685  0.1846
 2575W        W45628  12.174  14.977  26.725 -0.2325  0.0335  0.0305
 2576W        W45629  31.945  22.732  26.615 -0.3725  0.1276 -0.1318
 2577W        W45630  33.773   8.610  20.269  0.1950  0.1124 -0.3365
 2578W        W45631   5.366   4.799  28.056 -0.1919 -0.2694  0.1345
 2579W        W45632  24.280  14.629   0.607  0.0340  0.2929  0.1959
 2580W        W45633  16.897  15.803   0.009 -0.0707  0.2474 -0.0722
 2581W        W45634  12.387  13.718  10.610  0.2043  0.0417  0.0512
 2582W        W45635   9.980   1.302   7.320  0.0397  0.2135 -0.1783
 2583W        W45636   0.504  23.590   7.349  0.1649  0.0163  0.0329
 2584W        W45637  17.386   3.270  27.221 -0.1006  0.0929 -0.0907
 2585W        W45638   5.683   2.333  26.389  0.0465  0.0580 -0.3317
 2586W        W45639   9.746  21.651  23.661 -0.2574  0.1632 -0.1375
 2587W        W45640  12.669   5.375   4.197 -0.2539  0.1029 -0.0588
 2588W        W45641  17.076  27.149   6.244 -0.0954 -0.3964  0.0366
 2589W        W45642  25.218  10.145   4.430 -0.1817  0.3341  0.1217
 2590W        W45643  18.122   3.872   2.584  0.0185  0.1871 -0.0309
 2591W        W45644   0.699  21.098   8.174  0.0705 -0.2487 -0.0848
 2592W        W45645  10.769  16.913   3.306  0.1783  0.5173 -0.2587
 2593W        W45646  21.532  31.372  26.130  0.1240  0.0155 -0.0333
 2594W        W45647  15.904   3.385   4.053 -0.1419 -0.1654  0.2488
 2595W        W45648  22.640   2.966   0.901  0.0727 -0.0860 -0.0406
 2596W        W45649  27.062   8.579   7.581 -0.0079 -0.0675 -0.2882
 2597W        W45650  21.967  24.166   1.767  0.0024  0.2639  0.0565
 2598W        W45651  22.484  26.383   2.255  0.2844  0.1386 -0.2317
 2599W        W45652   2.643  20.700   6.993  0.0880 -0.0061  0.2151
 2600W        W45653  33.100  29.841  22.818 -0.0307 -0.0187  0.0380
 2601W        W45654   7.458  31.025  25.514  0.2584 -0.0116 -0.1198
 2602W        W45655  15.866  10.833  24.172 -0.0119 -0.0874 -0.0159
 2603W        W45656  10.147  13.497   6.831  0.1277 -0.2212 -0.1925
 2604W        W45657   3.588  19.972   5.490  0.0632 -0.2886 -0.1962
 2605W        W45658  14.788   6.474   3.849  0.0899 -0.1540 -0.2329
 2606W        W45659  13.695  19.582   7.060 -0.1550  0.2053 -0.1707
 2607W        W45660  21.345  24.313   2.730  0.0651  0.3132  0.2347
 2608W        W45661  11.557  12.355   1.971 -0.1332  0.0100 -0.2084
 2609W        W45662  13.977   0.746  23.934  0.0030 -0.0275  0.0860
 2610W        W45663  22.554  13.517  17.345  0.1818 -0.2415 -0.0108
 2611W        W45664  30.091  28.253   1.786  0.1879  0.0630 -0.1904
 2612W        W45665  16.985  16.432   4.830  0.0483 -0.1585 -0.2214
 2613W        W45666  19.292   4.783   4.904  0.1464  0.5845 -0.3388
 2614W        W45667   6.835  18.775  26.729 -0.1835  0.3060  0.0210
 2615W        W45668  11.336  16.672  24.723  0.0680 -0.2934  0.2458
 2616W        W45669  12.128   7.166   7.704  0.1530  0.1145  0.0108
 2617W        W45670  10.006  33.284   1.976 -0.1904 -0.1756  0.2200
 2618W        W45671  14.466  17.928   7.218 -0.0090 -0.0017  0.1825
 2619W        W45672   1.158  10.633   5.700 -0.1114 -0.4401 -0.1329
 2620W        W45673  18.953  19.931   3.121  0.1179  0.2278  0.3721
 2621W        W45674  30.035  12.846   9.895 -0.0828 -0.1766  0.2084
 2622W        W45675  10.401   5.858   4.583 -0.0118  0.0179  0.0566
 2623W        W45676   6.848  17.874   0.916  0.1197  0.0370 -0.3916
 2624W        W45677  20.313  21.518   6.051  0.0620 -0.2062  0.0344
 2625W        W45678  13.121  13.233  25.565  0.0930 -0.2138  0.2235
 2626W        W45679  11.174  32.797   1.840  0.1791  0.2017 -0.1060
 2627W        W45680  15.788   3.311  23.147 -0.2388  0.0328  0.3212
 2628W        W45681  25.769   7.920   0.390 -0.2068  0.1426  0.2537
 2629W        W45682  21.719  13.953  18.520  0.3536 -0.0163  0.1289
 2630W        W45683  21.099  27.156  27.871 -0.1814 -0.0879  0.1901
 2631W        W45684  19.409  22.916   8.608  0.3159 -0.2949 -0.1936
 2632W        W45685  32.072  12.607   5.690 -0.1384  0.0794  0.0197
 2633W        W45686  18.320  10.733  20.338 -0.0952  0.0542 -0.2337
 2634W        W45687  20.479   8.081   0.085  0.1845 -0.0936  0.3219
 2635W        W45688  19.473  34.360   6.998  0.0495  0.0230  0.2874
 2636W        W45689   3.241  20.908   3.714 -0.0361 -0.2158  0.1583
 2637W        W45690   6.863  30.644  17.441  0.0202  0.1025 -0.0315
 2638W        W45691  10.832  25.024  14.711  0.1326  0.0910 -0.1769
 2639W        W45692  24.145   5.052   5.007 -0.1118 -0.0609 -0.1263
 2640W        W45693  22.863  33.053   4.023  0.2240  0.2450  0.0727
 2641W        W45694   8.997  11.650   4.894 -0.2749 -0.0701 -0.2283
 2642W        W45695  30.585   7.918   6.092  0.0482  0.2765 -0.1392
 2643W        W45696  24.178  30.205   3.737  0.3480 -0.0837  0.1382
 2644W        W45697   9.824  10.397   8.963  0.1455  0.0682  0.2336
 2645W        W45698  12.760   9.390   0.393 -0.0867 -0.4592 -0.1912
 2646W        W45699   8.241  14.227   7.492  0.1408  0.1440 -0.0962
 2647W        W45700   4.358   9.667  26.844  0.1121 -0.1253  0.0972
 2648W        W45701  18.891  25.094  26.395 -0.2819 -0.0720  0.0358
 2649W        W45702  17.914   9.795  25.072 -0.1827  0.0268 -0.0132
 2650W        W45703  22.735  30.941   7.234  0.1018  0.0446 -0.0171
 2651W        W45704  20.644  16.296  27.283 -0.2347  0.2714  0.1562
 2652W        W45705  23.193  10.783  20.213 -0.3119  0.0173 -0.0110
 2653W        W45706  24.340  23.872   9.496 -0.3300  0.2533  0.6333
 2654W        W45707  26.842   6.329  17.979  0.1595 -0.2109 -0.0185
 2655W        W45708  27.025  30.307   7.712 -0.1744  0.2184 -0.1962
 2656W        W45709  12.278   9.555   4.755 -0.1326 -0.0976  0.2098
 2657W        W45710  19.261  19.250  25.905 -0.2041 -0.3100  0.0767
 2658W        W45711  23.646  25.885  14.882 -0.1974  0.3280 -0.2382
 2659W        W45712  14.494  26.406  24.895  0.0294 -0.1476  0.0910
 2660W        W45713  14.347  10.232  26.432  0.1093 -0.0175 -0.0153
 2661W        W45714  29.403  11.921  27.018  0.0431 -0.1668  0.3461
 2662W        W45715  21.394  14.451  13.696  0.0343 -0.0637  0.1468
 2663W        W45716  10.374  12.421   4.673 -0.1366  0.2372  0.0693
 2664W        W45717   8.288   9.058   4.093  0.5943 -0.1026 -0.0149
 2665W        W45718   9.457   7.649   8.344  0.1453  0.0631  0.0937
 2666W        W45719   8.527  21.183   7.990  0.2854 -0.2594 -0.1053
 2667W        W45720  17.260  23.959   6.066 -0.5621 -0.6111 -0.0323
 2668W        W45721  11.729  13.885  16.482 -0.0463  0.0117  0.4102
 2669W        W45722   3.180  27.337   8.076  0.0122  0.0215 -0.2088
 2670W        W45723  27.095  24.466  28.437 -0.1349 -0.1845  0.1415
 2671W        W45724   2.760  19.657   1.259 -0.0092 -0.2607  0.2229
 2672W        W45725   8.563  21.053   4.805 -0.3833 -0.0339  0.1421
 2673W        W45726  12.513  31.421   0.725 -0.1451  0.1366  0.1389
 2674W        W45727  25.338  24.225  22.707 -0.2325  0.1889 -0.2379
 2675W        W45728   5.767   0.612  17.697 -0.1464  0.0749 -0.0473
 2676W        W45729  24.499  25.542  25.954 -0.0324 -0.0684 -0.0792
 2677W        W45730  15.430   4.846   7.262  0.2248  0.1189 -0.1162
 2678W        W45731  20.160  14.223  27.939  0.1257 -0.2142  0.0112
 2679W        W45732  17.568  14.731  27.945 -0.0160  0.0622  0.0630
 2680W        W45733  14.066  17.650   5.847 -0.2149  0.0540  0.1928
 2681W        W45734  31.859  19.675  27.971 -0.0945  0.0077  0.0342
 2682W        W45735   3.495  21.651  24.331  0.2163 -0.0089  0.1538
 2683W        W45736  11.832  26.413   8.637 -0.0727 -0.3164  0.0778
 2684W        W45737  29.719  12.715   5.174  0.2068  0.2370 -0.1018
 2685W        W45738  16.674  23.252   9.587 -0.1148 -0.1660  0.2066
 2686W        W45739  14.616   4.957   8.709  0.1036 -0.1621 -0.0316
 2687W        W45740  10.500  23.293   5.611 -0.5680 -0.2258 -0.3976
 2688W        W45741   7.711  19.309   4.923  0.0881 -0.1555  0.1700
 2689W        W45742  11.361  20.767  23.507 -0.4782  0.2911 -0.2544
 2690W        W45743  19.584  19.596   3.396 -0.1064 -0.1843  0.1143
 2691W        W45744  13.438  16.717   8.499  0.2355 -0.1615  0.0219
 2692W        W45745  10.022  17.192  22.174 -0.1023 -0.2312 -0.0987
 2693W        W45746  15.456  13.970   7.050  0.2091 -0.1317 -0.0494
 2694W        W45747  31.068   7.490  17.495 -0.0184  0.0645  0.1547
 2695W        W45748  16.286  23.947   3.878  0.0507  0.1315  0.2065
 2696W        W45749  13.847  13.868  26.590 -0.0687  0.2490 -0.0059
 2697W        W45750  11.494   0.525   7.509 -0.0606 -0.2257 -0.0430
 2698W        W45751  32.274  26.819  16.042  0.0662 -0.0441 -0.0721
 2699W        W45752  16.054  18.158   0.541 -0.0477 -0.1065 -0.0059
 2700W        W45753  19.566   6.401  18.595  0.2608 -0.1844 -0.0750
 2701W        W45754  14.215   5.610   6.255 -0.1061 -0.1131  0.1631
 2702W        W45755  30.511   9.618   6.808  0.1573  0.0389  0.2236
 2703W        W45756  18.014  33.392  24.643 -0.0588 -0.1462  0.0577
 2704W        W45757  33.874  32.783   9.287 -0.2026 -0.0060  0.0117
 2705W        W45758  18.571  23.705   7.359 -0.0008 -0.0845  0.0800
 2706W        W45759  32.551  30.041   7.919 -0.3525 -0.1703  0.2103
 2707W        W45760  12.605   0.213   6.267 -0.2167 -0.2124  0.0909
 2708W        W45761   9.685  13.262   1.733 -0.2268 -0.1887  0.1329
 2709W        W45762  15.130  21.315   4.881 -0.1883 -0.1417  0.0489
 2710W        W45763   2.710  22.675  26.523  0.1499 -0.1212  0.1444
 2711W        W45764   3.194  27.699   6.951 -0.1812 -0.0759 -0.0043
 2712W        W45765  15.628   8.488   7.600  0.0143 -0.0484 -0.1943
 2713W        W45766  21.022  14.174   2.253 -0.2098 -0.1027 -0.0582
 2714W        W45767   3.745  19.732  17.452  0.0953  0.1563  0.0418
 2715W        W45768  29.101  18.239   6.063  0.2215  0.0101 -0.1458
 2716W        W45769  28.791  17.460   8.164  0.0681 -0.0847 -0.3749
 2717W        W45770  22.905   6.618   8.532  0.1164 -0.1330 -0.4901
 2718W        W45771  16.344  15.534   4.253 -0.3244  0.1233 -0.1800
 2719W        W45772  26.106  19.120   7.043  0.2485 -0.0277  0.2359
 2720W        W45773  13.862  26.869  23.270  0.1222 -0.2539  0.1995
 2721W        W45774  12.651  20.455   8.872 -0.0296 -0.2105 -0.1672
 2722W        W45775  29.123  17.837   9.615  0.0015 -0.0144 -0.1803
 2723W        W45776   7.807   6.645   4.307 -0.0568  0.3108 -0.3677
 2724W        W45777  29.820   2.582   8.736  0.1070  0.5657  0.1870
 2725W        W45778  10.999  13.047   9.801  0.3114 -0.0979 -0.2892
 2726W        W45779  18.892   7.991   3.977  0.1717 -0.0721 -0.0223
 2727W        W45780  11.693   4.018   9.220  0.0722  0.1093  0.0022
 2728W        W45781   4.200  20.261  18.043 -0.0510 -0.1607 -0.3141
 2729W        W45782   5.579  15.741  21.338 -0.2491  0.1149 -0.0007
 2730W        W45783  16.507  15.117   5.106  0.2285  0.2489  0.1047
 2731W        W45784  23.475   9.847   8.721  0.0810 -0.2734  0.3188
 2732W        W45785  15.086  15.422   4.694  0.1144  0.0857 -0.0679
 2733W        W45786  10.882  28.702   1.033 -0.0424  0.0550 -0.2679
 2734W        W45787   1.937  27.183  19.160  0.2622  0.0685  0.0228
 2735W        W45788  11.454   2.718  21.971  0.1941 -0.2424 -0.1634
 2736W        W45789  13.781   0.737   2.972  0.2306  0.1912 -0.1736
 2737W        W45790   0.621   9.198   4.824  0.0082  0.3564  0.1269
 2738W        W45791   8.221  21.953  25.607 -0.0944 -0.3286  0.2910
 2739W        W45792  24.593  28.021   3.759  0.1571 -0.1393 -0.2680
 2740W        W45793  26.417   4.745   9.965 -0.0691 -0.3334  0.1567
 2741W        W45794  11.697  28.330  25.838  0.3680  0.3137 -0.1894
 2742W        W45795  25.242  21.813  20.956  0.2936 -0.0267 -0.0319
 2743W        W45796   3.202  16.508   8.421 -0.2731  0.0884 -0.0351
 2744W        W45797  13.576  22.256   3.202  0.1987 -0.1044 -0.4225
 2745W        W45798  26.513   1.724   8.577 -0.2882 -0.1296  0.1771
 2746W        W45799   2.408   9.107  26.358  0.1739 -0.0864 -0.1306
 2747W        W45800  20.468   5.845   2.380 -0.3431 -0.1895  0.0948
 2748W        W45801  22.889  27.060   0.673  0.0034 -0.1661  0.1366
 2749W        W45802  15.315  24.736  11.104  0.1412  0.1862  0.2395
 2750W        W45803  14.907  21.979  27.945 -0.0132 -0.2906 -0.0138
 2751W        W45804   2.241  16.669  27.775 -0.0586 -0.4160  0.3173
 2752W        W45805   4.575  20.972   5.538  0.1397  0.6393 -0.0969
 2753W        W45806  19.230  11.656   2.852  0.2724  0.1047 -0.1541
 2754W        W45807  28.584  23.608  20.405  0.0273 -0.1044  0.4258
 2755W        W45808   5.463   3.167  20.640 -0.0649  0.3548 -0.1319
 2756W        W45809  21.520  14.098   2.151 -0.0230 -0.1408 -0.1135
 2757W        W45810  23.471  19.010  20.966  0.0332  0.3053  0.0077
 2758W        W45811  13.457  28.812  27.284 -0.2295  0.1462 -0.0147
 2759W        W45812  15.008  11.232  14.180 -0.4262  0.0875  0.1300
 2760W        W45813  18.019  24.186  19.179  0.0750  0.0759 -0.1467
 2761W        W45814  15.375  26.366   9.072 -0.2676 -0.2778 -0.0572
 2762W        W45815  11.646  24.424   6.520  0.3541 -0.2171 -0.0311
 2763W        W45816  10.501  15.290   4.554  0.2081 -0.1576 -0.1842
 2764W        W45817  13.655  30.111   8.718 -0.1625  0.0068  0.1669
 2765W        W45818   8.224   4.290   0.744 -0.2187 -0.1146  0.1374
 2766W        W45819   3.104  18.473   2.645  0.2868 -0.0585 -0.0026
 2767W        W45820  29.048  26.317   6.113  0.1741  0.0259  0.2442
 2768W        W45821  12.299   2.491   7.168 -0.2208 -0.0893 -0.1262
 2769W        W45822  18.041  18.718  25.292  0.0750 -0.3722  0.3637
 2770W        W45823  33.522  23.085   3.510  0.2708 -0.0031  0.2100
 2771W        W45824  23.569  30.471  28.442  0.2132  0.2823 -0.2932
 2772W        W45825   6.099  12.986   1.600  0.1413  0.0593 -0.0716
 2773W        W45826  19.187  11.928   4.562  0.1139  0.0146  0.0330
 2774W        W45827  11.226  16.690  27.405 -0.0938 -0.2044 -0.4081
 2775W        W45828  14.946  12.237   5.621 -0.0966  0.1933 -0.1357
 2776W        W45829  11.719  14.636   0.445  0.0183 -0.2216 -0.1416
 2777W        W45830  22.739   3.063  15.786  0.0692  0.2614 -0.0561
 2778W        W45831  29.316  16.164   9.511 -0.1385 -0.4295  0.0275
 2779W        W45832   5.197   6.242   4.878 -0.1804  0.2040 -0.4159
 2780W        W45833  30.763  18.615  15.975  0.2073  0.0559  0.1395
 2781W        W45834  19.244  11.665   7.782 -0.4447  0.0244  0.0952
 2782W        W45835   6.441  10.657   9.368 -0.1896 -0.1760  0.0808
 2783W        W45836  20.409  10.442   9.800  0.0614 -0.0006 -0.1821
 2784W        W45837   2.436  17.405   3.609  0.0692  0.1237 -0.0550
 2785W        W45838  20.361  16.946   0.906 -0.2735 -0.3863  0.0540
 2786W        W45839  25.718  17.917   7.491  0.2375  0.0247  0.1307
 2787W        W45840  15.022  22.261   6.185 -0.2844  0.3294 -0.0886
 2788W        W45841  17.771  23.019  21.520 -0.1697  0.4377  0.4305
 2789W        W45842   0.213  26.501  22.616  0.2990  0.0713 -0.0330
 2790W        W45843  23.348  16.588  19.249 -0.1764  0.1571 -0.1432
 2791W        W45844   6.969  10.681   8.126  0.3539  0.0053  0.0276
 2792W        W45845  34.605  21.186   3.873  0.1205  0.0598  0.0289
 2793W        W45846   6.567  24.586  26.884 -0.1281  0.0935  0.1115
 2794W        W45847  21.748  14.519   0.943  0.2682  0.1663  0.2466
 2795W        W45848  12.906  11.020  10.510  0.3257  0.1141  0.1375
 2796W        W45849  12.466  27.311   5.469 -0.1229  0.2332 -0.0463
 2797W        W45850  26.939  21.804   0.801 -0.0203 -0.1567  0.0071
 2798W        W45851  10.615   8.038   7.333  0.1608 -0.1623  0.0841
 2799W        W45852  17.807  30.842   6.896  0.1158 -0.1194  0.3017
 2800W        W45853  15.022  12.456  18.725 -0.0833  0.1769 -0.1177
 2801W        W45854  13.988  27.081  10.060 -0.3659 -0.2049  0.2707
 2802W        W45855  20.279  19.521  23.158 -0.0371 -0.2146 -0.0623
 2803W        W45856  19.339  32.989   6.659 -0.0468 -0.3254  0.4252
 2804W        W45857   0.946   4.568   6.369  0.2205 -0.0496  0.1644
 2805W        W45858  12.892  14.388   9.780  0.0623  0.0217 -0.1403
 2806W        W45859  25.712  22.536   3.520  0.0316  0.1811  0.0687
 2807W        W45860  21.858  20.238   8.106  0.0536 -0.1284 -0.3161
 2808W        W45861  26.597   5.582   7.150 -0.3096 -0.1599 -0.1741
 2809W        W45862  16.035  30.334  28.715  0.1192  0.2671  0.2505
 2810W        W45863  12.493   9.462   2.642  0.2710 -0.1906  0.3121
 2811W        W45864   2.073  21.627   7.629 -0.0396  0.0406 -0.1773
 2812W        W45865   4.247  27.318   2.261  0.0398 -0.5397  0.0261
 2813W        W45866   5.624  16.564  26.371 -0.1139  0.4093 -0.2710
 2814W        W45867  12.446   5.269  27.028 -0.0870 -0.0957 -0.0945
 2815W        W45868  15.623  11.917  26.427  0.1453  0.0403  0.0099
 2816W        W45869  26.914   8.705   9.732 -0.0022 -0.0665  0.1093
 2817W        W45870   5.934  16.223   6.781  0.0043  0.3318  0.2332
 2818W        W45871   2.878  18.054   8.813 -0.3233  0.2451  0.1639
 2819W        W45872  17.429  13.438  24.866  0.2277 -0.0490  0.0901
 2820W        W45873  31.769  10.960   6.940  0.0026  0.3803  0.2634
 2821W        W45874  30.016  15.649   6.043  0.0058  0.1062 -0.1262
 2822W        W45875  34.536  10.099   7.219 -0.0900  0.1512  0.2482
 2823W        W45876  19.437  18.663   1.354 -0.0785 -0.2407  0.2280
 2824W        W45877  20.445  27.673  10.966 -0.1408 -0.3075  0.1083
 2825W        W45878  21.127  19.629   8.368 -0.2753 -0.1183 -0.1619
 2826W        W45879  11.538  22.603   8.759 -0.2226  0.0070  0.3135
 2827W        W45880  33.851  19.149   8.773 -0.1560  0.0812  0.1377
 2828W        W45881  17.504  15.869   2.602 -0.0081 -0.1022  0.0862
 2829W        W45882  15.060  25.888   6.622  0.2945 -0.1849 -0.1365
 2830W        W45883   2.063  23.196   5.930 -0.0590  0.0694  0.2399
 2831W        W45884  22.676  20.383  26.477  0.1207  0.2160  0.3252
 2832W        W45885  24.919  14.409   5.644 -0.2915 -0.2917  0.0303
 2833W        W45886  20.342   3.229   6.195 -0.1134  0.0984  0.1174
 2834W        W45887  12.391  21.188  28.201  0.1161  0.1824  0.1496
 2835W        W45888  13.806   1.912   9.679 -0.0934  0.1031 -0.0794
 2836W        W45889  14.279  21.985   0.208  0.0501 -0.1786  0.0447
 2837W        W45890  20.390  22.070   3.878 -0.0522 -0.0475  0.1764
 2838W        W45891  17.078  18.880  26.937  0.0924 -0.4564  0.0386
 2839W        W45892   7.057  13.332  28.195  0.1702  0.1943  0.1584
 2840W        W45893  13.086  21.824   0.112  0.0806 -0.1217 -0.2847
 2841W        W45894   8.786  13.533  21.927  0.3856  0.0521 -0.1130
 2842W        W45895  27.038   4.124  29.076 -0.5035  0.3357 -0.2005
 2843W        W45896  13.065  25.804  21.393 -0.2777  0.1299  0.0331
 2844W        W45897  29.600  15.189   6.614 -0.1096  0.1436 -0.2316
 2845W        W45898   8.638  25.011   1.417  0.1839  0.0235  0.0626
 2846W        W45899  10.843  11.171   7.615 -0.1113 -0.2608  0.2613
 2847W        W45900   7.068  33.054   2.864 -0.0165 -0.2101 -0.3970
 2848W        W45901  13.578  29.952   7.818  0.1346  0.1502  0.1155
 2849W        W45902   8.689  18.721  27.353  0.1139  0.0872 -0.1404
 2850W        W45903  23.893  31.461   9.381 -0.2064 -0.0018 -0.0053
 2851W        W45904  11.080  22.640  23.851 -0.0213  0.0918 -0.0753
 2852W        W45905  10.957   0.837   5.934  0.1360 -0.0869  0.1739
 2853W        W45906   6.551  14.666  29.055  0.0047  0.2621 -0.0579
 2854W        W45907  18.645  27.421   8.810  0.0610  0.1288  0.1047
 2855W        W45908  24.808  33.869   6.139 -0.1456  0.1233  0.1450
 2856W        W45909  30.445  11.045   9.046 -0.0019 -0.2259  0.0752
 2857W        W45910  16.524  15.617   2.582 -0.1949  0.1801  0.3138
 2858W        W45911  20.035  27.335   7.162  0.0511  0.0485 -0.2436
 2859W        W45912  18.882  14.917   3.295  0.0461  0.3483 -0.0806
 2860W        W45913  15.919  11.433   0.919  0.3650  0.0823 -0.0070
 2861W        W45914   6.003  12.122   8.520  0.1906  0.0256  0.2991
 2862W        W45915   5.311  15.057   3.087 -0.1667 -0.3134  0.2944
 2863W        W45916   9.325  21.157   9.337 -0.0547 -0.1974 -0.0822
 2864W        W45917  20.637  30.697   8.196  0.2263 -0.2951 -0.2485
 2865W        W45918  21.813   4.228  10.343 -0.3333 -0.3464  0.1603
 2866W        W45919  17.488   8.834   5.530  0.0214 -0.0401 -0.1462
 2867W        W45920   8.821  16.970   8.483 -0.2463 -0.2462  0.0048
 2868W        W45921  21.929  19.034  28.909 -0.2546 -0.1444  0.0066
 2869W        W45922   3.026  11.661  26.502 -0.2268 -0.0302  0.2660
 2870W        W45923  13.770  18.228   5.178  0.1928  0.1645  0.0877
 2871W        W45924  18.048  33.203   8.664  0.2976  0.3142 -0.1042
 2872W        W45925  20.774  29.109   1.954  0.0754 -0.0012  0.0158
 2873W        W45926  12.846  19.061  22.239  0.1705  0.1357  0.1552
 2874W        W45927  16.510   6.946   5.784  0.1293  0.1390 -0.3330
 2875W        W45928   6.451   1.353   7.220  0.0241  0.0341  0.2131
 2876W        W45929  29.116  33.036   0.179 -0.0995  0.1102 -0.0057
 2877W        W45930   5.737  22.041  22.972  0.2493 -0.0724 -0.1353
 2878W        W45931  25.901  13.668   6.530 -0.0595 -0.0789 -0.0524
 2879W        W45932  28.467  13.125   2.882 -0.2569  0.2589 -0.2146
 2880W        W45933  29.725  10.684   5.764  0.2364 -0.1339 -0.1062
 2881W        W45934  27.181  32.455   3.049 -0.0243  0.2210 -0.2374
 2882W        W45935  21.150  27.039   3.121 -0.0098 -0.2106  0.0100
 2883W        W45936  11.644   9.162   1.798 -0.4045  0.2705  0.1341
 2884W        W45937   8.513  21.587  28.743 -0.1224 -0.1492 -0.1532
 2885W        W45938  24.780  30.244   7.163  0.1827  0.1201 -0.0872
 2886W        W45939   9.387  16.653  26.700  0.3315 -0.1414 -0.1550
 2887W        W45940  33.875  15.953   7.400 -0.0011 -0.0838 -0.2630
 2888W        W45941  22.459   4.139   8.999 -0.2603  0.0183  0.3019
 2889W        W45942  10.430  29.038   6.069 -0.0339 -0.0496 -0.0342
 2890W        W45943  16.041  14.223  27.655 -0.2509  0.0622 -0.2328
 2891W        W45944  21.243  10.176  26.925  0.0734  0.1475  0.1573
 2892W        W45945   7.027  13.697   1.440 -0.0158 -0.1029  0.1016
 2893W        W45946  33.168  13.350   4.636 -0.3276  0.2477  0.2753
 2894W        W45947  16.408   3.929  28.986  0.0896 -0.1019  0.3629
 2895W        W45948  24.410  10.141   5.916 -0.1172 -0.2634  0.1549
 2896W        W45949  11.533   2.409   9.265  0.0983  0.2211  0.0523
 2897W        W45950  19.299  14.905   0.478 -0.2093 -0.2730 -0.3074
 2898W        W45951  19.012  17.977   1.542  0.5366  0.0802 -0.1127
 2899W        W45952  18.157  13.051   2.447  0.0233 -0.4078 -0.1722
 2900W        W45953   8.008  17.274   9.160 -0.1117  0.0354 -0.0012
 2901W        W45954  11.170  20.399  27.989  0.0841 -0.2072  0.0662
 2902W        W45955  17.960   7.324   6.306  0.2885  0.2115  0.0218
 2903W        W45956  18.844   2.603   2.303  0.0598  0.1962 -0.0252
 2904W        W45957   3.311   9.706   9.172  0.0179  0.0459 -0.2549
 2905W        W45958  27.798  29.821   6.979 -0.0207  0.1316 -0.0120
 2906W        W45959  29.788  30.754  22.453  0.1414  0.2752  0.3609
 2907W        W45960  27.837  19.583  24.452  0.2064  0.0222  0.3174
 2908W        W45961  16.965  17.830  29.061  0.0869 -0.3308 -0.2100
 2909W        W45962  17.978  21.973  27.976  0.0743 -0.1904 -0.1171
 2910W        W45963  29.753  20.534  12.747 -0.1982  0.1368  0.3957
 2911W        W45964  18.753  21.994   9.787 -0.0033  0.0652 -0.2045
 2912W        W45965   7.805  28.950   3.816  0.0321 -0.2688 -0.1115
 2913W        W45966  22.116   5.147  24.587 -0.2634  0.1534  0.1301
 2914W        W45967   8.313  16.356  23.062  0.0646 -0.2618  0.1868
 2915W        W45968  27.518  13.915   8.217 -0.3415 -0.1694  0.4588
 2916W        W45969  14.077   6.255  26.536 -0.1951 -0.0919 -0.1054
 2917W        W45970  31.706   4.683   7.692  0.2572  0.1114  0.0090
 2918W        W45971  14.110  26.196   9.118 -0.5294 -0.1278  0.2326
 2919W        W45972  26.364  32.440  27.673 -0.0045 -0.2089 -0.0897
 2920W        W45973   1.778  27.754   7.482 -0.0046  0.1878 -0.1627
 2921W        W45974  20.732   2.341  15.904 -0.2983  0.0979 -0.1539
 2922W        W45975  20.372  24.398   8.400  0.1812  0.0752  0.1659
 2923W        W45976  11.196   9.344   6.542  0.3549 -0.0799  0.2383
 2924W        W45977  20.003  19.248  25.885  0.3470  0.3033  0.2332
 2925W        W45978  14.989  27.358   4.096  0.3657 -0.2139 -0.2231
 2926W        W45979   6.604   0.484   6.882  0.1442  0.2321 -0.1566
 2927W        W45980  18.637  24.032   9.891  0.2337  0.2387 -0.0138
 2928W        W45981   7.498  20.691   8.471 -0.0003  0.0194 -0.0450
 2929W        W45982  18.381  14.928   5.311  0.2376  0.2881  0.1108
 2930W        W45983  17.331   5.130   9.414 -0.0346  0.2720  0.0449
 2931W        W45984  25.695  12.966  18.906 -0.2185  0.0790  0.3216
 2932W        W45985  14.256  30.506   1.595 -0.1665 -0.1609 -0.1384
 2933W        W45986  17.045  25.080  24.241 -0.1723 -0.3805  0.2666
 2934W        W45987  33.178   2.069  15.690  0.2445  0.1356 -0.3032
 2935W        W45988  10.548  13.159  24.672 -0.0435  0.2369 -0.0554
 2936W        W45989  10.831   7.585   2.306  0.1941 -0.0253  0.0342
 2937W        W45990  13.364  11.297   6.652  0.0140 -0.2772  0.2288
 2938W        W45991  16.951  19.157  25.993  0.1013 -0.0866 -0.2597
 2939W        W45992  20.619   9.968   7.864  0.0111 -0.1987 -0.0629
 2940W        W45993  16.260  32.188   9.593 -0.0513  0.1998 -0.0714
 2941W        W45994  17.889  15.859   3.142 -0.2869  0.0710  0.1504
 2942W        W45995   3.165  15.418   4.907 -0.1236  0.3782  0.0373
 2943W        W45996  17.525  26.725   8.366  0.2469  0.3675 -0.1373
 2944W        W45997  21.427  15.787  28.927  0.0732  0.4041 -0.2678
 2945W        W45998  31.951   1.823   5.992 -0.0350  0.0758  0.1048
 2946W        W45999   2.153  10.111   8.667  0.2162 -0.0009 -0.0688
 2947W        W46000   4.991  13.092   7.207 -0.2667  0.1936 -0.2939
 2948W        W46001  16.923   8.282  16.813 -0.2917 -0.3840  0.2508
 2949W        W46002  11.705  25.505   8.495 -0.1151 -0.0576 -0.0158
 2950W        W46003   9.396   0.209  28.370  0.1381  0.1072  0.0203
 2951W        W46004  21.188  30.906  18.259  0.1021 -0.2244 -0.1807
 2952W        W46005  18.467  10.550  25.619 -0.3008  0.1093 -0.2545
 2953W        W46006  16.590  25.441   6.887 -0.0445 -0.0281  0.0469
 2954W        W46007   4.981  25.816   3.279  0.2416 -0.0056 -0.0449
 2955W        W46008  18.289  13.485   5.206 -0.1290  0.1236 -0.1526
 2956W        W46009  13.322  13.354   5.356  0.0833 -0.0104  0.0224
 2957W        W46010  24.429  18.461  17.230  0.0711 -0.0259  0.1223
 2958W        W46011   9.545  20.009   9.968 -0.0445  0.0005 -0.1363
 2959W        W46012  12.011  12.192   3.203  0.0261 -0.0601  0.1851
 2960W        W46013  19.291  17.648  21.778  0.0212  0.0248  0.0818
 2961W        W46014  24.943  14.289  24.749  0.1699  0.2787 -0.2880
 2962W        W46015  19.486  19.062  27.765 -0.0106 -0.3317 -0.0540
 2963W        W46016  18.886  25.127   0.090  0.1603 -0.0649 -0.0149
 2964W        W46017   5.998  15.875   1.303 -0.3627  0.4468 -0.1427
 2965W        W46018  20.958  17.127   2.858  0.0820  0.0356  0.0149
 2966W        W46019   0.883  25.097  24.759  0.2031 -0.0134 -0.1581
 2967W        W46020  20.523  11.930   2.370  0.0370 -0.1566  0.0649
 2968W        W46021  11.476  32.698   2.624 -0.1024 -0.4292  0.0979
 2969W        W46022   0.411   9.789   1.170  0.0221  0.0471 -0.1386
 2970W        W46023   3.755  20.542   6.025 -0.0208 -0.3378 -0.1651
 2971W        W46024  29.942  26.381   4.478 -0.1266 -0.0770  0.0929
 2972W        W46025  14.078   5.783  29.014  0.0461  0.0310  0.1236
 2973W        W46026   8.076   8.491  21.693  0.3217  0.0537 -0.1122
 2974W        W46027  32.918  22.046  17.930 -0.1771  0.0487 -0.0219
 2975W        W46028  16.788   5.338  26.401 -0.0898  0.0641 -0.0354
 2976W        W46029  10.484  24.135   7.152  0.1189 -0.2251 -0.0034
 2977W        W46030  18.252   0.342  22.953 -0.1919 -0.0224 -0.0979
 2978W        W46031  28.380  23.867   9.728 -0.0414  0.2305  0.3418
 2979W        W46032  23.791  18.603   3.944  0.1747 -0.2157  0.2577
 2980W        W46033   6.677  10.126  19.272  0.2076  0.1606 -0.1645
 2981W        W46034  16.184   0.972  27.104 -0.0498  0.0708  0.2397
 2982W        W46035   5.706   0.234   4.259 -0.3132  0.0395 -0.0126
 2983W        W46036   8.521   6.574   8.722  0.1938 -0.0330 -0.3493
 2984W        W46037   2.169   3.099   3.890  0.0497  0.0134  0.3464
 2985W        W46038  13.934  22.204   2.827 -0.3680  0.0904 -0.3753
 2986W        W46039   5.503  22.866   6.348 -0.0400 -0.1767  0.1544
 2987W        W46040   7.633   6.401  28.585  0.0727 -0.1541 -0.0310
 2988W        W46041  34.404  12.529  20.857  0.0956 -0.0195 -0.2768
 2989W        W46042  16.287  21.269  22.344  0.2866 -0.1800 -0.1860
 2990W        W46043   9.372  25.745   5.111  0.1465 -0.1712 -0.0891
 2991W        W46044  15.050  24.994   0.284 -0.1642  0.1635 -0.2991
 2992W        W46045  26.971  31.540   0.172  0.1128 -0.1205 -0.0272
 2993W        W46046  17.934  25.079  19.201  0.0006  0.1204 -0.1640
 2994W        W46047  18.979   9.217   4.545  0.1413 -0.2354 -0.1911
 2995W        W46048  21.364   1.340   9.865 -0.3590  0.2308 -0.1818
 2996W        W46049  18.197  16.876   9.162  0.1350 -0.1192 -0.1310
 2997W        W46050  20.178   1.646   4.365  0.0437 -0.0949  0.2856
 2998W        W46051   5.697  16.012   9.141  0.1234  0.0075  0.2935
 2999W        W46052  10.581  12.946   6.545  0.1323 -0.1373  0.2431
 3000W        W46053  22.850  20.022  25.746 -0.2670  0.1955  0.3710
 3001W        W46054  26.629   4.209   8.158 -0.1672 -0.2344  0.0567
 3002W        W46055   2.677  21.542  17.530  0.0976 -0.0437  0.0408
 3003W        W46056  26.715  18.134  28.698 -0.0863  0.3924 -0.1128
 3004W        W46057  28.916  34.127  25.346 -0.3533  0.0594 -0.2562
 3005W        W46058   7.685  14.902  28.010  0.2237  0.1439 -0.2111
 3006W        W46059  14.408  27.352  22.159 -0.1851 -0.0534 -0.0418
 3007W        W46060   2.498  18.808   2.164  0.5012  0.0193  0.2103
 3008W        W46061   5.646  15.078  24.261  0.3167  0.1592 -0.0631
 3009W        W46062  12.377  20.978  27.169  0.0608  0.2010  0.2916
 3010W        W46063  14.365   2.936   4.564 -0.1244  0.2030 -0.1215
 3011W        W46064  25.985  10.910   7.109  0.0038  0.0956  0.0685
 3012W        W46065  11.766   9.532   7.284  0.0340  0.0763  0.1210
 3013W        W46066  27.769  24.595  26.452  0.0354 -0.0736  0.1107
 3014W        W46067   9.176  19.332   0.843 -0.2593 -0.1841 -0.0417
 3015W        W46068   6.485  30.979   7.582 -0.1695 -0.2502  0.0481
 3016W        W46069  18.039   3.031   4.159 -0.0171 -0.1567 -0.0954
 3017W        W46070  10.053   1.955   8.584  0.1464  0.2813  0.2370
 3018W        W46071   7.655  30.338  28.413 -0.0353  0.4297 -0.0774
 3019W        W46072  13.654  10.169   4.196  0.2330 -0.3328  0.2011
 3020W        W46073  11.257  20.544   3.689 -0.3357 -0.0143  0.1925
 3021W        W46074  13.710  12.749   9.719  0.2351  0.1884  0.4460
 3022W        W46075  12.364  19.836   6.279  0.2854  0.1265  0.0590
 3023W        W46076   7.159  25.711   3.976 -0.0653  0.0922  0.1560
 3024W        W46077   6.065   6.362   8.825  0.0649 -0.0494  0.0118
 3025W        W46078  10.708  21.228   1.322  0.2481  0.1358 -0.2891
 3026W        W46079  21.849  18.191  23.880  0.2760  0.0946  0.0927
 3027W        W46080  20.520  28.614  25.957  0.1117  0.0448  0.0595
 3028W        W46081  20.784  13.891   7.481  0.0257 -0.0178  0.0736
 3029W        W46082  23.084   5.614   8.756 -0.1539 -0.1026 -0.0734
 3030W        W46083  24.105  16.633  23.964 -0.2128 -0.0047  0.0275
 3031W        W46084  13.375   7.723  24.608  0.1197  0.1775  0.1827
 3032W        W46085   4.960  14.970  27.486  0.3018 -0.0102 -0.1220
 3033W        W46086  25.811  24.351  22.408 -0.1799  0.0996 -0.2286
 3034W        W46087  12.491   1.344   8.253  0.0215 -0.0716  0.0473
 3035W        W46088  10.799   9.147   6.504 -0.1435  0.2418  0.0294
 3036W        W46089  17.058  20.233   6.997 -0.2572 -0.2027  0.1045
 3037W        W46090  10.786  15.750   3.368 -0.3162  0.2860 -0.0591
 3038W        W46091  25.361  22.368   4.844 -0.2063  0.3821  0.3516
 3039W        W46092  17.872  21.554  28.197  0.0336  0.2706 -0.0415
 3040W        W46093   4.539   0.635  27.410  0.1043 -0.0255  0.0137
 3041W        W46094  20.336   7.992  25.314 -0.0250  0.0937  0.1086
 3042W        W46095  12.495  22.450   4.504 -0.2287  0.1261 -0.1288
 3043W        W46096  14.720  24.019   9.576  0.0993 -0.0762  0.0469
 3044W        W46097  32.082  20.625   4.971 -0.3243  0.2740 -0.2528
 3045W        W46098  26.881  22.929  27.623 -0.0913  0.2368  0.0686
 3046W        W46099  21.199   5.465  25.935  0.3730  0.1470  0.3050
 3047W        W46100   8.216  27.718   8.770  0.3366  0.2023 -0.0115
 3048W        W46101  11.186   5.946   5.960 -0.2441  0.1420 -0.2592
 3049W        W46102  14.220   3.789  17.210 -0.2832 -0.1711 -0.2894
 3050W        W46103   7.038  13.689   0.554 -0.0122  0.0328 -0.0643
 3051W        W46104  33.834  22.807   2.500  0.1098  0.2228  0.1024
 3052W        W46105  29.022  11.423   0.684 -0.2829 -0.0353 -0.1366
 3053W        W46106  15.112  14.003  28.096 -0.1663  0.1345 -0.2657
 3054W        W46107   6.855  19.850   3.893 -0.1423 -0.2902  0.2099
 3055W        W46108  25.648  34.241   7.523  0.2271  0.1362  0.0581
 3056W        W46109   5.936  26.336  25.467  0.1980  0.0759  0.0476
 3057W        W46110  16.453  11.928   0.857 -0.2324 -0.2823  0.0238
 3058W        W46111   2.077   4.951   9.897 -0.0588 -0.1872 -0.2491
 3059W        W46112   7.436  30.713   6.980  0.1905 -0.3712  0.1466
 3060W        W46113  32.900  28.690  26.386  0.0146  0.0945 -0.0884
 3061W        W46114  21.633  18.648  28.667  0.2953 -0.1438 -0.0340
 3062W        W46115   6.428  18.560  23.148  0.0805 -0.1514 -0.0717
 3063W        W46116   4.269  14.618  28.822  0.2353 -0.2323 -0.0994
 3064W        W46117   8.751   7.808  28.160 -0.2297  0.0546  0.0164
 3065W        W46118  18.822  12.459  26.809  0.1043  0.0212  0.0372
 3066W        W46119  25.742  15.819   1.790 -0.0252  0.3576  0.0127
 3067W        W46120  12.712  17.397   4.384  0.0624  0.2177 -0.1321
 3068W        W46121  25.754  14.982  23.220  0.3282 -0.0778 -0.3034
 3069W        W46122  25.059  22.352   5.264  0.0026  0.1014  0.1958
 3070W        W46123  16.418  20.721  26.350  0.0195  0.0106 -0.0667
 3071W        W46124  12.702  22.372   5.423  0.1379  0.0149 -0.1491
 3072W        W46125  14.289   8.743   9.532 -0.1019 -0.1864  0.2491
 3073W        W46126   8.708  32.823  19.976 -0.0502  0.3011 -0.1644
 3074W        W46127   8.482  20.682  23.622 -0.1669 -0.2736  0.1569
 3075W        W46128  10.936   9.661   8.200 -0.2397 -0.2392  0.0470
 3076W        W46129  15.717  15.914   0.580  0.0835 -0.2226 -0.2778
 3077W        W46130  16.832  21.984   4.382  0.1240  0.0127 -0.0121
 3078W        W46131  15.113  23.302  10.071  0.0189 -0.0315  0.1625
 3079W        W46132  20.582  24.650  10.258 -0.0897 -0.1344  0.2148
 3080W        W46133  22.949  17.303  23.543  0.1480  0.2195 -0.0032
 3081W        W46134  33.984  12.757  21.132 -0.2699  0.0037  0.1471
 3082W        W46135  16.136   8.464   5.414 -0.2188  0.1414 -0.1162
 3083W        W46136  17.393  20.608   6.532  0.2715 -0.0607  0.2432
 3084W        W46137  23.526  22.716   4.897 -0.0534 -0.0949  0.1765
 3085W        W46138   2.218   4.638  25.662 -0.3462  0.0563 -0.2722
 3086W        W46139  16.742  22.972  29.050  0.3955  0.0028 -0.1754
 3087W        W46140  14.829  12.704   3.646  0.0874  0.4063 -0.0261
 3088W        W46141  14.073  31.734  10.212  0.2463  0.1277  0.0554
 3089W        W46142  10.815  10.577  25.842  0.0634  0.0956  0.3630
 3090W        W46143   9.245   8.767   8.754  0.0457  0.1899 -0.1113
 3091W        W46144  25.782  13.421  27.971  0.2275  0.1797 -0.0434
 3092W        W46145  10.662  18.152  10.146 -0.1289 -0.0369 -0.0649
 3093W        W46146   8.310  10.464   5.026  0.1569  0.3389  0.2357
 3094W        W46147  12.292  27.431   6.753 -0.1988  0.0948  0.1268
 3095W        W46148  28.159  31.716   8.427 -0.1646 -0.0497 -0.2634
 3096W        W46149  18.367  19.652   0.962 -0.0156 -0.0681  0.1385
 3097W        W46150  19.467   3.228   7.626 -0.0371 -0.0185 -0.2784
 3098W        W46151   9.815  19.101  22.989  0.2032 -0.0805  0.0127
 3099W        W46152  19.816  21.793  22.377  0.2201  0.2853  0.1816
 3100W        W46153  19.655  18.870   5.869 -0.3439  0.1759 -0.0184
 3101W        W46154   2.125   5.478   7.442 -0.0077 -0.1302  0.2113
 3102W        W46155  17.403  13.994  10.613 -0.0526 -0.0448  0.2069
 3103W        W46156  14.674  24.499  16.437  0.0740  0.3279  0.0137
 3104W        W46157  23.017  13.195   3.589  0.1840 -0.0061  0.5595
 3105W        W46158   3.159  11.265   6.762 -0.1152 -0.1380  0.3224
 3106W        W46159   1.248  16.055  26.818 -0.4456 -0.2824  0.2035
 3107W        W46160  33.162  19.473   8.980  0.1435  0.0223 -0.0866
 3108W        W46161  18.787  11.889  21.031 -0.0053 -0.1183  0.0978
 3109W        W46162  18.844  15.435  25.511  0.2540  0.2422  0.5080
 3110W        W46163  26.195   0.102   6.542  0.0686 -0.0494 -0.0954
 3111W        W46164   8.256  26.885   8.284  0.1020 -0.2473  0.2723
 3112W        W46165   5.050  25.876   8.970 -0.0621  0.2160 -0.0100
 3113W        W46166  11.369  18.449   5.024 -0.2383 -0.3277 -0.2334
 3114W        W46167  10.037   4.812   4.163 -0.1532 -0.0629  0.0353
 3115W        W46168  10.767  17.735   0.734 -0.1143  0.0578 -0.3205
 3116W        W46169  23.869  23.599   6.732  0.1005  0.0572  0.0147
 3117W        W46170   1.667   5.965  26.682 -0.3849 -0.4215  0.2333
 3118W        W46171  27.574   9.993  25.557 -0.0513  0.0515 -0.0582
 3119W        W46172   6.244  10.049   7.468  0.2106  0.1192  0.0047
 3120W        W46173  10.271  31.377  25.619 -0.1491  0.1308  0.1637
 3121W        W46174  16.180   7.354   4.554 -0.2179  0.0573 -0.3263
 3122W        W46175  19.210  31.158   6.876  0.3010 -0.1924  0.0905
 3123W        W46176  13.548  21.418   2.651 -0.1306  0.1947  0.2356
 3124W        W46177  24.989  10.675   8.330 -0.2032  0.1028  0.0835
 3125W        W46178  16.129  11.833  28.862  0.0034 -0.0719 -0.0998
 3126W        W46179  12.223  17.541  23.522  0.0392  0.1464 -0.0786
 3127W        W46180  21.790  31.348  27.470  0.1906 -0.0477 -0.1416
 3128W        W46181  33.628  20.468   4.063 -0.1256  0.0487 -0.0872
 3129W        W46182  11.854   0.190   6.855 -0.2139  0.1126  0.3267
 3130W        W46183  11.333  21.854   4.299  0.3223 -0.3460  0.2039
 3131W        W46184  20.169  23.261   9.069 -0.1468 -0.0292  0.0866
 3132W        W46185  14.876  21.387   7.065 -0.0362  0.0673  0.2026
 3133W        W46186  19.435  26.164   6.728 -0.2418 -0.1693 -0.0808
 3134W        W46187   8.300   3.985   2.946 -0.0297  0.0097 -0.2429
 3135W        W46188  14.120  19.962  28.531  0.2208  0.3621  0.1444
 3136W        W46189   1.141  32.216   1.078  0.0033  0.0368 -0.1820
 3137W        W46190  12.094   9.065   6.263  0.2334  0.2711  0.1349
 3138W        W46191  13.080  19.566  21.649  0.1260 -0.1064  0.1260
 3139W        W46192  11.707   9.335   8.458  0.2349  0.3052  0.0788
 3140W        W46193  26.656  16.578   8.848  0.5022 -0.1241  0.2377
 3141W        W46194  27.087  29.318  24.906  0.0157  0.2938  0.3463
 3142W        W46195  19.601  15.908  21.333  0.0975  0.0008  0.1177
 3143W        W46196  20.820  14.356  25.748  0.1979 -0.1889  0.0897
 3144W        W46197   8.166  27.700  23.431  0.2228 -0.2182  0.1562
 3145W        W46198  15.690  30.469   0.283 -0.1462  0.2227 -0.1767
 3146W        W46199  20.555  23.216   9.494  0.0811  0.0311 -0.1305
 3147W        W46200  18.453  21.250   1.754  0.0853 -0.2381  0.2112
 3148W        W46201   6.198  14.037  25.712 -0.1084 -0.2509 -0.2031
 3149W        W46202   6.744  22.990   4.374  0.2806 -0.0116  0.1307
 3150W        W46203  20.382  12.457   1.251  0.1326 -0.1581  0.1952
 3151W        W46204  14.802  15.004  25.988 -0.0084  0.1367 -0.0318
 3152W        W46205  13.247  18.235   4.099 -0.2673  0.1771 -0.2881
 3153W        W46206  15.184  11.973  28.599 -0.0498  0.3903  0.1909
 3154W        W46207   9.333  16.725   2.145 -0.0695 -0.1837  0.2759
 3155W        W46208  14.034  13.873  21.853  0.3323 -0.3142 -0.0584
 3156W        W46209   1.904  19.950  26.506 -0.0750 -0.3309 -0.0191
 3157W        W46210  10.778  17.588   5.520  0.1228 -0.1567  0.0187
 3158W        W46211  18.924  13.358   8.797 -0.0099 -0.1018 -0.0710
 3159W        W46212  20.940  28.028   6.408 -0.2719 -0.0584  0.4752
 3160W        W46213   4.085   8.452  21.986  0.0253 -0.1350  0.0606
 3161W        W46214  23.774  14.925  25.060  0.0613 -0.4167 -0.0526
 3162W        W46215  21.419  24.601  27.734 -0.1317  0.0799 -0.0141
 3163W        W46216   4.934   1.408   2.915 -0.0241 -0.1114  0.0050
 3164W        W46217  17.905   6.943  25.695 -0.0632  0.0289 -0.0140
 3165W        W46218  10.092  10.099   0.321  0.2129  0.1670  0.0268
 3166W        W46219  25.309   4.287  27.668 -0.1330  0.0534 -0.0139
 3167W        W46220   1.373  19.662   1.889  0.1371 -0.2908  0.1056
 3168W        W46221  13.892   5.409  10.702 -0.1715  0.1607 -0.1088
 3169W        W46222  33.743  22.154   8.396 -0.0343 -0.2041 -0.0554
 3170W        W46223  18.202  18.971   3.690 -0.0726  0.1383 -0.1008
 3171W        W46224   0.955  11.272   7.624 -0.1277 -0.0876  0.5238
 3172W        W46225  20.789  29.048  28.716  0.1729 -0.0680  0.0267
 3173W        W46226  18.295  16.107   7.627 -0.0439  0.0555  0.0848
 3174W        W46227  25.743  12.286   6.158 -0.0226 -0.1853 -0.2554
 3175W        W46228   7.699  27.386  26.506  0.0767 -0.3469 -0.0556
 3176W        W46229  16.739   8.430  21.181 -0.1417 -0.0115 -0.3135
 3177W        W46230  18.093   1.720  20.417 -0.0549  0.0477  0.1179
 3178W        W46231   7.293  34.189   6.554  0.1111 -0.0163  0.0361
 3179W        W46232  17.404  11.712  10.039  0.0197 -0.0297 -0.0886
 3180W        W46233  20.603  19.809  14.558 -0.2885 -0.0241  0.1404
 3181W        W46234  27.180  13.141   1.482 -0.2816  0.1540 -0.2951
 3182W        W46235  17.088   8.615   4.366 -0.2278 -0.0807 -0.1092
 3183W        W46236   7.812   8.658  23.733 -0.0046  0.1338  0.1741
 3184W        W46237  17.845   4.444   8.964  0.0490 -0.3983 -0.2075
 3185W        W46238   7.401  33.314  10.379  0.2144  0.1608  0.1611
 3186W        W46239  20.461  10.825  10.163  0.2015 -0.3186  0.1044
 3187W        W46240  16.759  26.371  10.472 -0.1389  0.1789  0.2163
 3188W        W46241  18.518   7.398   7.985  0.0194 -0.0597  0.0003
 3189W        W46242  21.663  17.822   1.062 -0.1014 -0.0863 -0.0345
 3190W        W46243   9.655  21.922   2.892  0.4580 -0.1558 -0.0206
 3191W        W46244  22.638  19.556   1.709 -0.0229  0.2676 -0.2652
 3192W        W46245  32.623   9.207   6.556  0.2316  0.0029 -0.2656
 3193W        W46246  16.530   7.104   5.240  0.3147  0.0972 -0.0204
 3194W        W46247  16.899  18.410   9.017 -0.1660  0.2629  0.1850
 3195W        W46248  20.153  17.309   2.923  0.0563 -0.1536  0.3426
 3196W        W46249  28.889   6.314  27.203 -0.0577  0.2029  0.0886
 3197W        W46250  22.514  26.229   5.552 -0.6374  0.4249  0.0604
 3198W        W46251   2.025  13.079   7.180 -0.0106 -0.1949  0.0370
 3199W        W46252   1.438  23.490   5.056 -0.1235  0.0196 -0.0406
 3200W        W46253  18.552  19.032   7.621  0.1847 -0.0572  0.1853
 3201W        W46254   1.722  21.320   7.915 -0.1096 -0.0257 -0.3166
 3202W        W46255   6.705  14.126  25.473  0.0719 -0.1525  0.0383
 3203W        W46256  21.087  21.592   3.551  0.0165  0.4084  0.0415
 3204W        W46257   0.386  10.419   7.545 -0.0460  0.1354 -0.1043
 3205W        W46258  20.440  19.993   4.684 -0.0849  0.1213 -0.1254
 3206W        W46259  10.233  28.117  22.897 -0.1624 -0.0686  0.1547
 3207W        W46260  16.761  17.555   6.125  0.2606 -0.1161  0.3467
 3208W        W46261  16.971  29.012   8.422 -0.1092 -0.0180 -0.0557
 3209W        W46262  16.524   7.007   9.802 -0.0595  0.1037  0.0939
 3210W        W46263  33.430  22.337  24.314 -0.2002  0.1306 -0.1987
 3211W        W46264   9.404  29.418   2.059 -0.0427 -0.4336 -0.1521
 3212W        W46265  14.948  28.968   5.060  0.0697  0.0736 -0.0475
 3213W        W46266  19.936  14.756   9.573 -0.0957  0.0589  0.0082
 3214W        W46267  21.209   8.324   7.450  0.0470  0.2200 -0.0086
 3215W        W46268  13.193  33.773  10.989  0.0874 -0.1347  0.1547
 3216W        W46269  22.656  15.503  16.233 -0.0314  0.1907 -0.1279
 3217W        W46270  20.046   8.575   1.002 -0.0573  0.0810  0.0417
 3218W        W46271  20.446   8.456  10.467 -0.1080 -0.0968 -0.0157
 3219W        W46272  13.456  24.001  27.741 -0.1066 -0.0398  0.3792
 3220W        W46273  31.976  10.287   5.272  0.0394 -0.0834  0.0804
 3221W        W46274   8.168  22.317   8.072  0.2054  0.1202  0.1666
 3222W        W46275  24.601  14.515   3.210 -0.1606 -0.1191 -0.0324
 3223W        W46276  12.145   6.446   8.082 -0.1609  0.1897 -0.0090
 3224W        W46277  20.192   9.746   7.785  0.0036 -0.0588  0.1811
 3225W        W46278  18.595  20.700   7.451  0.0386 -0.2404 -0.1204
 3226W        W46279  34.298   9.812  26.876  0.0647 -0.1025  0.0246
 3227W        W46280  10.183  15.737   8.573  0.0524 -0.0980 -0.0246
 3228W        W46281  10.062  27.499   7.178 -0.0815 -0.0729 -0.1405
 3229W        W46282  20.339  17.336   1.368  0.0714  0.1218 -0.1647
 3230W        W46283  31.408  31.356  28.809  0.0007 -0.0167  0.1610
 3231W        W46284  20.070   7.171   0.596 -0.4956  0.1777 -0.0622
 3232W        W46285  24.185   2.400  24.515  0.0512  0.0559 -0.1741
 3233W        W46286  11.040  17.066   1.922 -0.3254  0.0066 -0.2263
 3234W        W46287  28.346   4.751   8.966  0.0161  0.2826 -0.3002
 3235W        W46288  25.914  15.613   0.699  0.0455 -0.0599  0.0189
 3236W        W46289   9.371  27.212   6.312  0.1293  0.3614 -0.1638
 3237W        W46290  13.978  21.733  25.312 -0.2994  0.0498 -0.1796
 3238W        W46291  14.066  20.390  19.436  0.0224 -0.3054 -0.1097
 3239W        W46292  18.942  21.255  27.391 -0.1139  0.1700 -0.1790
 3240W        W46293   4.000  15.227  24.436 -0.0863  0.0814 -0.3489
 3241W        W46294  18.462   7.692   3.892 -0.1818 -0.3699 -0.1248
 3242W        W46295  19.948  29.542  21.399 -0.0269 -0.0219  0.0099
 3243W        W46296  13.319  18.009   8.363  0.3769 -0.2364  0.1869
 3244W        W46297   7.366  11.217  10.421  0.3775  0.0640  0.0886
 3245W        W46298  26.269   9.322   3.294 -0.2334  0.0838  0.0785
 3246W        W46299  10.500  20.573   8.451 -0.1881  0.4778  0.5266
 3247W        W46300  26.303  19.864   6.660 -0.0691  0.2670  0.2558
 3248W        W46301  17.344   8.370   7.265  0.0308  0.3877 -0.0864
 3249W        W46302  23.648   2.797   3.424 -0.0457  0.0401 -0.3464
 3250W        W46303  22.232   9.292  10.119 -0.2752  0.0984  0.2047
 3251W        W46304   8.110  20.135   1.752 -0.3306 -0.0241  0.0254
 3252W        W46305  24.673   9.801   9.636 -0.2092 -0.1017 -0.2765
 3253W        W46306  21.370  19.887  24.717  0.3334  0.0176  0.2473
 3254W        W46307  21.422  11.855   8.034  0.4198 -0.1014 -0.0929
 3255W        W46308  11.254   5.455  10.998  0.0413 -0.1901 -0.3266
 3256W        W46309  12.942  16.237   7.775 -0.4312 -0.1477  0.2053
 3257W        W46310  18.097  23.133  10.723 -0.0466  0.1181 -0.0107
 3258W        W46311  34.286  13.766  27.974  0.2204  0.0163  0.0213
 3259W        W46312  29.934  28.425   2.330 -0.1925  0.3153 -0.1897
 3260W        W46313  16.652  12.084  27.565  0.0182  0.1407 -0.1565
 3261W        W46314  19.188  24.737  25.030 -0.2097  0.1124 -0.1145
 3262W        W46315  15.011   9.617  28.087 -0.2445 -0.9239 -0.0892
 3263W        W46316  21.873   6.592  22.352  0.0428 -0.1986  0.1265
 3264W        W46317  11.579  19.095  19.983  0.2198  0.1843  0.1125
 3265W        W46318   9.605  11.271   0.710  0.0644 -0.2740 -0.0437
 3266W        W46319  28.939  12.867   0.654 -0.3604  0.0028 -0.1104
 3267W        W46320  12.844  25.290  28.054  0.0682 -0.1509  0.0501
 3268W        W46321  31.671  16.949   4.932 -0.3180 -0.1519 -0.1442
 3269W        W46322  22.119  13.627   8.363  0.0227  0.2032 -0.1779
 3270W        W46323  15.478  16.562   7.166 -0.0464 -0.0620 -0.2678
 3271W        W46324  10.130  19.325   6.822  0.2818  0.0681 -0.0857
 3272W        W46325  12.136  19.558  27.094 -0.1792  0.0437 -0.0174
 3273W        W46326   4.917  30.584   9.013 -0.0437 -0.0113  0.1924
 3274W        W46327   7.958   0.950   7.105  0.1094 -0.2224 -0.1587
 3275W        W46328  14.795  16.262  28.307 -0.3476 -0.1005  0.3185
 3276W        W46329   7.073  22.302   7.375  0.0982  0.0198 -0.5603
 3277W        W46330  18.770  27.053   7.873 -0.3149 -0.0739 -0.1077
 3278W        W46331   8.368  19.532   7.465  0.2964 -0.0859  0.0950
 3279W        W46332  12.342   9.738   9.468 -0.2226  0.2493  0.0848
 3280W        W46333   1.836   9.622   6.344  0.1406  0.1969  0.2714
 3281W        W46334   5.821  28.831   5.326  0.3443  0.4930 -0.0464
 3282W        W46335  15.198  21.625   9.503 -0.0561  0.0417 -0.1525
 3283W        W46336   3.518   2.264   6.554  0.0221  0.0574 -0.3639
 3284W        W46337  13.911  23.503   3.259  0.0982  0.1030 -0.1845
 3285W        W46338  14.312  19.293   5.102  0.1525 -0.0895 -0.1337
 3286W        W46339  17.905  12.651   6.880 -0.1608  0.4586 -0.0413
 3287W        W46340   9.458   1.862  28.748  0.0077 -0.1038 -0.0479
 3288W        W46341  11.101  22.300   8.618 -0.3726 -0.2354 -0.2252
 3289W        W46342  13.769  25.270   0.245 -0.0328 -0.0026  0.2245
 3290W        W46343  17.485  11.604   4.400  0.1975  0.0913 -0.0951
 3291W        W46344   9.725   6.582   0.074 -0.0623  0.2029 -0.0960
 3292W        W46345   2.189  22.817  26.492  0.2699  0.1331 -0.1036
 3293W        W46346  11.312  17.647  27.160  0.2059  0.1573  0.1644
 3294W        W46347  13.192  17.253   8.543  0.1604 -0.0498  0.1592
 3295W        W46348  26.338  10.948   2.029 -0.0803  0.0120  0.0054
 3296W        W46349   9.133  20.314   0.150  0.0297 -0.0526  0.4296
 3297W        W46350   9.815  26.105   2.826 -0.1537  0.3295 -0.0788
 3298W        W46351   6.095  13.465   1.562  0.3705  0.1824 -0.2549
 3299W        W46352  17.049  26.273  27.892  0.0348  0.2013  0.1808
 3300W        W46353  20.745   4.612  17.888 -0.1118 -0.0922 -0.2168
 3301W        W46354  24.460  14.830   6.168 -0.1313 -0.2275  0.4944
 3302W        W46355  29.020   1.716  28.263 -0.0814  0.0578  0.1451
 3303W        W46356   5.138   8.506   8.375 -0.0222  0.0651  0.1555
 3304W        W46357   3.751  19.318   4.974  0.0297 -0.1640 -0.2827
 3305W        W46358  33.903  13.406   3.986 -0.2073 -0.2465 -0.0366
 3306W        W46359  22.744   9.260  21.416 -0.1462 -0.0189 -0.0770
 3307W        W46360  13.237  16.367  22.051  0.0959 -0.0290 -0.0263
 3308W        W46361  18.376   7.619   6.423 -0.0953  0.0486  0.0584
 3309W        W46362  17.755  28.942   2.335 -0.0699  0.4783  0.1250
 3310W        W46363   8.503  18.126  22.187 -0.1617 -0.0902 -0.2807
 3311W        W46364  17.835  20.012   6.818  0.0444 -0.0928 -0.1599
 3312W        W46365  28.139  10.994  27.411  0.1083 -0.0656 -0.0744
 3313W        W46366  13.718  18.768  27.554  0.0993 -0.0034 -0.1702
 3314W        W46367  14.953  20.231   1.649  0.1011  0.1269 -0.2185
 3315W        W46368  16.142  30.663  20.318 -0.0219  0.0943  0.0689
 3316W        W46369  21.790   7.478   5.666 -0.0035 -0.4250  0.0886
 3317W        W46370  23.490   8.709   7.992 -0.2881 -0.1487  0.2896
 3318W        W46371   4.016  25.596   9.107 -0.2914  0.0939  0.3653
 3319W        W46372  20.334  13.027  28.615  0.2455 -0.1071 -0.1491
 3320W        W46373  32.388  15.911   4.810  0.0491  0.0372  0.4829
 3321W        W46374   7.089  19.842   5.197 -0.1241 -0.0947  0.1089
 3322W        W46375  14.000  20.892   5.758 -0.0342 -0.2002 -0.2341
 3323W        W46376  16.824   1.293  16.329  0.2701 -0.0529 -0.0665
 3324W        W46377  16.588   5.240  19.236  0.0653  0.1274  0.2393
 3325W        W46378  17.411   6.752  10.350 -0.4217  0.2956  0.0451
 3326W        W46379  14.310  13.781   4.541 -0.2279  0.0891  0.4366
 3327W        W46380  15.746  23.843   5.059  0.1155 -0.1175  0.0865
 3328W        W46381  15.678  10.688   6.081 -0.2288  0.1001  0.1345
 3329W        W46382  11.282  15.598   9.970 -0.0213  0.4003 -0.2868
 3330W        W46383  25.597   8.457   0.369  0.2124  0.0959 -0.1136
 3331W        W46384  14.143  15.769   3.787  0.0087 -0.3387  0.0631
 3332W        W46385   4.977  14.126  26.358  0.0467  0.0214  0.1704
 3333W        W46386  17.460  14.706   1.446 -0.0411 -0.0731 -0.3488
 3334W        W46387  19.506  22.841  26.644  0.0106 -0.1416  0.0330
 3335W        W46388  12.373  18.102  27.621  0.1509  0.1243 -0.1380
 3336W        W46389  16.564  31.211   9.183 -0.0950  0.2249 -0.1632
 3337W        W46390  32.808  10.151  26.165 -0.1679 -0.2346  0.1883
 3338W        W46391   4.082   7.539   3.122  0.0675  0.1235  0.0472
 3339W        W46392  14.047  10.426   5.667 -0.1395  0.0829  0.1308
 3340W        W46393  16.373  14.129   7.774  0.1833  0.1110 -0.0601
 3341W        W46394   8.626  20.732   8.708  0.1085  0.2082  0.0961
 3342W        W46395  18.776   1.091   8.558 -0.0064  0.2154 -0.2931
 3343W        W46396   6.022   2.031   6.843 -0.1651 -0.1874  0.0174
 3344W        W46397  13.703  28.408   8.537  0.0114 -0.1452  0.1204
 3345W        W46398   8.888  12.878  10.319 -0.1402 -0.0448  0.2149
 3346W        W46399  12.917  22.442   9.352 -0.0344  0.0277 -0.1503
 3347W        W46400  33.037  23.352   8.727 -0.0214  0.1642 -0.0192
 3348W        W46401  25.572  11.047   6.841 -0.3797 -0.0437  0.0616
 3349W        W46402  20.907   0.744   9.483  0.1277 -0.3217  0.0262
 3350W        W46403  30.725  12.788   8.155 -0.1354  0.1170  0.1464
 3351W        W46404   1.131  22.315  19.225 -0.2593  0.1305 -0.1246
 3352W        W46405   4.138  21.226   6.485 -0.1001  0.0515 -0.1062
 3353W        W46406   4.142  24.248  10.089  0.1135 -0.1209 -0.1201
 3354W        W46407  14.006  12.932  10.640 -0.1465  0.0348 -0.0463
 3355W        W46408  13.786  26.561  28.319 -0.1148  0.3508  0.1553
 3356W        W46409  13.012  13.971   3.680  0.3966 -0.0658  0.0980
 3357W        W46410  10.319  16.599   3.330 -0.0422  0.0778  0.0540
 3358W        W46411  15.597   8.510  10.367 -0.0104  0.1041 -0.0146
 3359W        W46412   9.358  18.950   9.278 -0.1779 -0.0771 -0.0837
 3360W        W46413  17.273  26.145   8.834 -0.0650  0.1737 -0.0686
 3361W        W46414   5.944  13.475  16.901  0.0875  0.0378  0.1090
 3362W        W46415  17.835  27.202  26.772 -0.3909  0.2762 -0.3631
 3363W        W46416  18.918   5.774  25.748  0.0500 -0.0331  0.1089
 3364W        W46417  16.873   8.330  10.399  0.1309 -0.0488  0.3392
 3365W        W46418  17.984  22.393  10.156 -0.0627  0.1627 -0.0846
 3366W        W46419  29.456  23.116   8.476 -0.1468 -0.0158 -0.0629
 3367W        W46420  22.771  26.838  28.006  0.1505  0.0589  0.0483
 3368W        W46421   7.153  17.915   2.900 -0.2484 -0.1227  0.0389
 3369W        W46422  20.139  20.263   3.333 -0.1197  0.0781  0.0865
 3370W        W46423  27.302  12.721   5.814  0.2549 -0.1746 -0.0874
 3371W        W46424  22.226  12.229   5.309 -0.3679 -0.2515 -0.2027
 3372W        W46425  29.002  13.403   2.262  0.3514  0.1396  0.1936
 3373W        W46426  24.193   2.159   8.922 -0.1859  0.0685 -0.0041
 3374W        W46427  16.120   8.125   6.867  0.1314  0.1202 -0.2875
 3375W        W46428  20.677  28.742   7.677 -0.0936 -0.0093  0.0911
 3376W        W46429  14.375  23.991   8.767 -0.1221 -0.1470 -0.1612
 3377W        W46430   7.990  11.425   1.618  0.4719 -0.2171 -0.0786
 3378W        W46431   1.429  17.517   3.439 -0.0603  0.0651  0.1824
 3379W        W46432  24.869  16.664  28.451  0.3552 -0.4123 -0.1442
 3380W        W46433   5.976  19.784  19.675  0.1133 -0.1256  0.0634
 3381W        W46434   2.081  19.755  15.390  0.0766 -0.0971  0.0221
 3382W        W46435  17.634   2.471  14.436 -0.0621 -0.2928 -0.0234
 3383W        W46436  27.547  20.392   9.606  0.0143 -0.2019  0.1463
 3384W        W46437  10.667  17.421  29.084  0.0214  0.0976 -0.0713
 3385W        W46438   7.800   6.302   8.191 -0.0600 -0.3057  0.0687
 3386W        W46439  29.184  24.485  20.817 -0.2186  0.3276  0.1578
 3387W        W46440   9.588  17.597  26.681  0.1496 -0.2814  0.1914
 3388W        W46441  13.644  11.882   1.490 -0.0080  0.1214 -0.0457
 3389W        W46442   1.691  29.556   1.507 -0.0408  0.1866 -0.4159
 3390W        W46443  15.855  13.352   9.957  0.0864 -0.2313  0.0916
 3391W        W46444  15.705  32.864   6.804  0.0111  0.2233 -0.0977
 3392W        W46445  16.112  29.257   5.783  0.1573 -0.1090 -0.2723
 3393W        W46446  20.851  10.628  15.360 -0.1221 -0.0339 -0.0473
 3394W        W46447  12.383  22.249   1.464 -0.1542  0.1067 -0.0267
 3395W        W46448  16.097  30.444   2.801 -0.0770  0.0045  0.0124
 3396W        W46449  18.228  28.433   5.903  0.0595  0.0805 -0.3033
 3397W        W46450   6.476  20.485   8.255  0.0843 -0.2168 -0.0735
 3398W        W46451  22.341  15.469  14.813  0.0893 -0.1499 -0.0194
 3399W        W46452  23.612  25.782  26.006 -0.1122 -0.1250  0.0022
 3400W        W46453  30.111  24.797   5.193 -0.0076  0.0922  0.1905
 3401W        W46454  30.296  32.910   7.011  0.0272 -0.5363 -0.0372
 3402W        W46455  15.747   8.129  18.447 -0.0983 -0.0500 -0.0171
 3403W        W46456  21.593  32.901   8.277 -0.0001  0.1530 -0.1927
 3404W        W46457   3.715  17.848  20.432 -0.2766 -0.0654  0.1432
 3405W        W46458   5.539   0.923   1.772  0.0787 -0.3610 -0.0789
 3406W        W46459  13.223  17.393  16.426  0.1761  0.1862 -0.2376
 3407W        W46460   4.848  13.285  10.127 -0.0562 -0.4997  0.0852
 3408W        W46461   6.184  10.277  19.786 -0.1190 -0.2194  0.1635
 3409W        W46462   5.935  19.940   7.746  0.1204 -0.0056  0.0538
 3410W        W46463  22.573  21.137   8.699  0.4343  0.0441  0.3442
 3411W        W46464  11.459  27.761   5.579 -0.1554 -0.0401  0.0106
 3412W        W46465   1.653   8.109  20.670  0.1213  0.2141  0.0873
 3413W        W46466  27.253  18.502   8.094  0.1236  0.1719  0.2658
 3414W        W46467  15.206  17.156   2.385  0.1744  0.0829 -0.1844
 3415W        W46468  22.249  14.344  26.795 -0.0285  0.2933  0.1672
 3416W        W46469  10.398  31.071   2.006 -0.1267 -0.1976 -0.2609
 3417W        W46470  26.652  15.122   7.858 -0.0392 -0.0920 -0.2874
 3418W        W46471  23.232  19.181  25.565 -0.1286 -0.5373 -0.0329
 3419W        W46472  15.676  13.655   1.218  0.4554 -0.0714  0.0330
 3420W        W46473   4.789  18.313   1.008 -0.2152 -0.1178  0.0588
 3421W        W46474  18.414  21.240   9.734 -0.1016 -0.2102 -0.0457
 3422W        W46475  17.146  22.238   5.309  0.1626 -0.0713  0.2144
 3423W        W46476  31.139  17.745  25.682 -0.0201 -0.1479  0.2246
 3424W        W46477   9.706  17.366   9.770  0.0244  0.3140 -0.0242
 3425W        W46478  26.017  23.991  25.962  0.1130  0.2286  0.1610
 3426W        W46479   1.179  17.472  23.220  0.1072  0.4350  0.1145
 3427W        W46480  30.039  10.603  24.213  0.1871 -0.1220  0.1572
 3428W        W46481  29.558  20.347  21.455  0.5363  0.1496 -0.3004
 3429W        W46482  17.139  15.239   0.787 -0.0886  0.0182 -0.1596
 3430W        W46483  14.893  29.254  24.361  0.0217 -0.1530  0.2080
 3431W        W46484   8.217   9.465  19.080  0.0194  0.2043  0.1100
 3432W        W46485   7.437  16.115   1.063 -0.0133  0.1639 -0.1695
 3433W        W46486  12.990  20.342  25.569  0.0020  0.1780 -0.4395
 3434W        W46487   0.508  16.632   8.488  0.2858 -0.1714 -0.0261
 3435W        W46488   4.770  13.558   4.098  0.0982  0.1013  0.1247
 3436W        W46489  16.340  31.640   8.091 -0.2228 -0.0245  0.0648
 3437W        W46490  29.434  23.557   6.320  0.2842  0.0207 -0.1728
 3438W        W46491  33.006  20.813   6.359  0.2033 -0.2027 -0.0085
 3439W        W46492   5.611  19.080   8.804  0.0801 -0.2083 -0.1436
 3440W        W46493   8.964  28.047   5.204  0.0839 -0.3120 -0.1142
 3441W        W46494  24.354  18.169   0.850 -0.1230 -0.0801  0.3231
 3442W        W46495  27.177  18.655   4.568 -0.0850  0.0310  0.0018
 3443W        W46496  20.885  23.719   5.085 -0.0741  0.2421 -0.0403
 3444W        W46497  22.866  19.757   6.938 -0.0795 -0.0558 -0.1859
 3445W        W46498  21.543  17.065   4.772  0.3330 -0.1425  0.1929
 3446W        W46499  12.294   0.152   8.174  0.0526 -0.0773 -0.1099
 3447W        W46500  31.345  24.903  21.031  0.0976  0.0666  0.0887
 3448W        W46501   5.049  20.886  23.714  0.0736  0.1391  0.0863
 3449W        W46502  10.722  32.652  24.549  0.0347 -0.0261 -0.3948
 3450W        W46503   1.061   0.766  27.302  0.0139  0.4243  0.2936
 3451W        W46504  20.573  22.937   4.428 -0.1281 -0.2318  0.2768
 3452W        W46505  23.926  17.668   9.780 -0.2679  0.0488  0.2522
 3453W        W46506  15.111   4.233   1.241  0.0066  0.1276 -0.0627
 3454W        W46507   0.241  18.789   8.765 -0.0077 -0.2895 -0.1084
 3455W        W46508   4.918   3.260   2.323  0.0364  0.0409 -0.1807
 3456W        W46509   6.489  29.537  24.699 -0.0510 -0.1626  0.0241
 3457W        W46510   1.989  21.075   4.111 -0.1058  0.0695  0.1699
 3458W        W46511   4.717  26.034  27.061  0.0998  0.0080  0.1360
 3459W        W46512  18.732   9.019   5.618 -0.1048  0.1365 -0.0269
 3460W        W46513  19.725  22.904  10.138 -0.2413 -0.0559  0.1256
 3461W        W46514  13.738  18.275  25.317 -0.2220  0.2381  0.2783
 3462W        W46515  13.910  24.018  27.975 -0.2798 -0.3362  0.0821
 3463W        W46516  10.262  23.286  15.512 -0.0395  0.2311 -0.5167
 3464W        W46517  10.774  12.952   0.030 -0.3362 -0.0236 -0.1978
 3465W        W46518  24.646  21.626   0.470  0.2615 -0.1266  0.3317
 3466W        W46519   1.923  19.226   6.462  0.5080  0.0706 -0.1762
 3467W        W46520   6.560  30.115  28.794 -0.0441 -0.0491 -0.1383
 3468W        W46521   5.651  27.958  27.706 -0.1020 -0.2037 -0.0381
 3469W        W46522   4.101  10.477   1.396  0.2593 -0.1033 -0.3173
 3470W        W46523   5.745  23.215  24.872 -0.3995 -0.0980  0.1177
 3471W        W46524  11.884   5.516   8.588  0.2908  0.0015  0.3018
 3472W        W46525   1.943  19.674   3.613  0.1408  0.1696 -0.4252
 3473W        W46526  19.288  30.826   2.183  0.1218  0.0264  0.2280
 3474W        W46527  28.813  23.125   7.602  0.4177  0.1566 -0.4603
 3475W        W46528   8.264  28.215  26.524 -0.0321 -0.3294 -0.0327
 3476W        W46529  26.051   9.535   5.178 -0.0047  0.3009 -0.1269
 3477W        W46530   8.583  17.513   8.536  0.0612 -0.2143 -0.1577
 3478W        W46531  19.565  11.217  28.394  0.1030  0.0210  0.3116
 3479W        W46532  12.271  15.577  10.411  0.2161  0.0179  0.0943
 3480W        W46533  17.479  24.818   5.869  0.0722 -0.1318 -0.1346
 3481W        W46534  11.512  11.747  10.338 -0.0695 -0.1945  0.2669
 3482W        W46535   6.750  21.334   6.153 -0.1825 -0.2012 -0.1583
 3483W        W46536  15.062  16.431  22.379 -0.2935 -0.2212  0.3063
 3484W        W46537  22.591  34.080   9.639  0.0977 -0.1820  0.2020
 3485W        W46538   7.842  19.825  26.619 -0.0534 -0.1191 -0.0478
 3486W        W46539   2.772  17.689  18.200 -0.0150  0.0322 -0.2468
 3487W        W46540  10.147  22.263  25.480  0.1882  0.2329  0.0661
 3488W        W46541   6.548  23.811   7.598  0.0722  0.1642 -0.0934
 3489W        W46542  20.188  14.513   6.949 -0.0836  0.1110  0.2772
 3490W        W46543  28.464  14.146   9.560 -0.0244 -0.1842 -0.0521
 3491W        W46544   9.068   8.422  28.748  0.4030 -0.0462  0.0124
 3492W        W46545  30.100   8.235  10.482 -0.1657  0.0796 -0.0338
 3493W        W46546  30.491   7.655   9.797 -0.1046  0.0236 -0.1645
 3494W        W46547  34.052  31.274   1.581  0.1901 -0.0228 -0.0290
 3495W        W46548  20.026  17.936   9.975  0.2680  0.1660  0.4647
 3496W        W46549  32.883  28.807  22.479  0.0748  0.1723 -0.1462
 3497W        W46550  16.607  26.847  10.364  0.2624  0.1133  0.0512
 3498W        W46551  27.395  19.891   7.651 -0.5066  0.1274 -0.2049
 3499W        W46552  19.047  26.494   6.881  0.2733  0.1211  0.0721
 3500W        W46553  19.337  22.036  24.159 -0.0424  0.2300 -0.0490
 3501W        W46554  12.539  20.547   7.569  0.0327  0.0415  0.1380
 3502W        W46555   9.900  16.469   7.670 -0.3178 -0.0075  0.1679
 3503W        W46556  23.041   4.276   5.800  0.2791 -0.0313  0.3881
 3504W        W46557  29.897  15.313   7.020  0.1887  0.5064 -0.1902
 3505W        W46558  34.141  21.587   7.741  0.1038 -0.1698 -0.0747
 3506W        W46559  21.960  12.441   9.565 -0.1005 -0.0985 -0.0080
 3507W        W46560   7.237   5.841   9.706  0.3222  0.3488 -0.1188
 3508W        W46561  11.789  23.552  19.113 -0.0204 -0.0534  0.0748
 3509W        W46562  11.984  26.670   9.088  0.1683 -0.0006  0.1192
 3510W        W46563   3.916  17.164   3.940  0.3460 -0.2544 -0.1251
 3511W        W46564   2.920  12.173   9.668 -0.2242 -0.0098 -0.0771
 3512W        W46565  10.830  21.047  14.592  0.3137 -0.4148  0.0858
 3513W        W46566  15.821  23.814   8.564 -0.0834 -0.2238 -0.3453
 3514W        W46567  27.606  16.886  17.212  0.0672  0.0867 -0.1164
 3515W        W46568  13.566  25.456   1.911  0.1118  0.1287 -0.0422
 3516W        W46569  27.053  27.508   8.495  0.0112  0.4470  0.0280
 3517W        W46570   0.613   9.760   1.638 -0.0161 -0.1561 -0.2431
 3518W        W46571   9.156  12.849   7.653 -0.0704  0.1471  0.0230
 3519W        W46572  18.750  17.779   1.935 -0.0082  0.1032 -0.4554
 3520W        W46573  10.047   4.155   9.485  0.2116  0.1016  0.1536
 3521W        W46574  16.424  11.539   3.451  0.5157 -0.1567  0.2634
 3522W        W46575  19.297  11.940   3.322  0.2969  0.3540  0.0883
 3523W        W46576  10.851   1.498   1.682  0.0551  0.2168  0.0637
 3524W        W46577  13.054   8.579  27.512 -0.0189 -0.0449  0.1224
 3525W        W46578  19.765  14.947  28.940 -0.0742 -0.1278  0.0884
 3526W        W46579   6.282  13.055   3.574  0.1160  0.1832  0.0520
 3527W        W46580  21.768  29.193  27.372  0.1357 -0.1589 -0.2453
 3528W        W46581  19.652  27.610  18.338  0.1258 -0.2493  0.1808
 3529W        W46582  16.803  31.552   5.938 -0.0032 -0.1533 -0.1453
 3530W        W46583  27.186  29.167  23.377  0.0589  0.1114  0.0734
 3531W        W46584  31.913  12.822   4.490  0.0392 -0.0851 -0.0100
 3532W        W46585  24.680  23.986  24.453 -0.4142 -0.4596 -0.3182
 3533W        W46586   9.046  15.808  28.588  0.0447 -0.0420 -0.1084
 3534W        W46587   6.799   8.816   5.587 -0.2210  0.0971  0.1941
 3535W        W46588  23.778  17.435  29.135  0.3960 -0.0158  0.2679
 3536W        W46589  12.422   0.418   4.056 -0.0650 -0.1017  0.3360
 3537W        W46590   3.183  10.765   7.932 -0.3515  0.0887 -0.1124
 3538W        W46591   1.651  21.140  20.083 -0.0327  0.2824 -0.0942
 3539W        W46592  17.852  34.597  25.163  0.0810 -0.0028  0.0889
 3540W        W46593  33.078  15.754  16.912 -0.1403 -0.1227 -0.0889
 3541W        W46594  14.628  15.730   3.656 -0.0201 -0.1682 -0.3949
 3542W        W46595  20.614  23.654  28.123 -0.1879 -0.0231 -0.4174
 3543W        W46596   8.082  27.656   4.831  0.0511 -0.4380 -0.1055
 3544W        W46597  12.334  10.823   8.383 -0.3519 -0.2376 -0.0488
 3545W        W46598  30.110  23.779   9.964 -0.1875  0.0282  0.0807
 3546W        W46599  18.610  29.157  26.999  0.0645  0.0380  0.1290
 3547W        W46600   8.254  17.431  15.322  0.0994 -0.0122  0.0772
 3548W        W46601  19.956   8.455  25.534 -0.2245  0.1128 -0.0712
 3549W        W46602  12.173   7.779  21.279 -0.0143  0.2017  0.0817
 3550W        W46603   8.053  13.199  20.485 -0.0971 -0.1669  0.0410
 3551W        W46604  16.893   0.675   0.277 -0.3069 -0.1824 -0.0724
 3552W        W46605   8.653  13.017   7.785 -0.1073 -0.0517  0.0255
 3553W        W46606   6.528  17.196   9.434 -0.3796  0.1072  0.0544
 3554W        W46607   8.924  24.450   5.332 -0.3090 -0.0264 -0.0780
 3555W        W46608  21.311  19.532  29.045 -0.3978  0.1691  0.1229
 3556W        W46609  20.117  25.321  27.049  0.0405 -0.1349  0.0034
 3557W        W46610  21.194   1.716   5.851  0.0442 -0.1086 -0.0589
 3558W        W46611  16.178  17.217   2.101  0.2372  0.0491 -0.1519
 3559W        W46612   6.220  22.618   9.221 -0.1317  0.3264  0.1602
 3560W        W46613  32.082  28.637   0.767  0.0456 -0.1228  0.1485
 3561W        W46614  27.134   0.914  17.958  0.1570  0.0197 -0.1982
 3562W        W46615   0.519  25.127  22.736 -0.0740  0.0228  0.0396
 3563W        W46616  16.926  15.098   8.988  0.0835 -0.0359  0.1786
 3564W        W46617   4.547  17.689   1.062 -0.2502 -0.0833  0.4165
 3565W        W46618  20.190  31.890  10.232 -0.1598 -0.2698  0.2181
 3566W        W46619   6.452  24.650   2.236  0.2100 -0.0293 -0.0295
 3567W        W46620  21.681  11.031  25.166 -0.0546  0.1965  0.1872
 3568W        W46621   9.265  17.838  26.298  0.1685 -0.1013 -0.1965
 3569W        W46622   6.196  15.046   5.338 -0.0881  0.0737  0.0589
 3570W        W46623   7.599  13.201  17.977 -0.2190  0.0498 -0.0801
 3571W        W46624   0.423  16.470   1.090  0.1342 -0.0076 -0.1524
 3572W        W46625  10.918  17.567   2.320  0.0373  0.1656 -0.1611
 3573W        W46626   9.002  17.932   2.355  0.0699 -0.0725  0.0561
 3574W        W46627  17.359  13.541   4.861  0.1487 -0.3449  0.2546
 3575W        W46628  23.143  31.763   6.938  0.0787 -0.0490  0.3266
 3576W        W46629  25.725  19.373   8.390  0.0819  0.2898 -0.0960
 3577W        W46630   5.030   9.494   6.109 -0.1981 -0.2333  0.0176
 3578W        W46631  26.073  15.443  24.642  0.1934 -0.0376  0.1379
 3579W        W46632   8.551  13.981   7.209 -0.0261  0.0261 -0.0588
 3580W        W46633   6.042  15.263  23.262  0.1828  0.1337  0.1951
 3581W        W46634   0.900  16.818   1.350 -0.0866 -0.0312 -0.0198
 3582W        W46635  12.720  12.716   5.451 -0.0653  0.1113 -0.1898
 3583W        W46636   9.799  12.289   1.303 -0.1417 -0.2861 -0.1609
 3584W        W46637  26.521  21.303  19.794 -0.0106 -0.0973  0.0498
 3585W        W46638  19.163  18.967  14.828  0.1113  0.0657 -0.0072
 3586W        W46639   6.706  24.328  16.663  0.0407  0.0002  0.0475
 3587W        W46640  13.433   1.766  27.590  0.2070  0.0170  0.2776
 3588W        W46641  16.330  11.408  24.300 -0.0367  0.0099 -0.0032
 3589W        W46642  12.347  17.388   3.953 -0.2064 -0.0279 -0.1838
 3590W        W46643  19.684  25.616  26.155 -0.0420  0.0374 -0.1186
 3591W        W46644   3.361  11.375   9.812  0.1322 -0.0097  0.1251
 3592W        W46645  10.156  30.432   3.312  0.3002 -0.1371 -0.2509
 3593W        W46646  16.530  13.311   4.144 -0.1223  0.2644 -0.3655
 3594W        W46647   9.884   0.484  28.173 -0.0509  0.0628 -0.0800
 3595W        W46648  17.573  24.294  17.089 -0.2319  0.1851  0.1520
 3596W        W46649   0.128  34.062  18.552  0.0919  0.0138  0.0990
 3597W        W46650   9.524  26.318  25.600  0.2622  0.1474 -0.1677
 3598W        W46651  14.086   4.917  22.186 -0.1157  0.0280 -0.1309
 3599W        W46652  34.644  15.034  21.459 -0.1292  0.1062 -0.2203
 3600W        W46653  18.420  22.875   7.317 -0.0733 -0.0922 -0.3317
 3601W        W46654  17.214   4.319   0.254  0.0175  0.0034  0.0255
 3602W        W46655  26.875  22.367   7.991  0.1973 -0.1073  0.1050
 3603W        W46656  27.534  11.941  25.802 -0.1520 -0.2377  0.2325
 3604W        W46657  25.508   2.116   7.018  0.1030  0.2389 -0.0545
 3605W        W46658  10.672  33.593  26.954  0.1244  0.0666  0.4859
 3606W        W46659  15.916  31.700   2.723  0.2052 -0.3020  0.2333
 3607W        W46660  21.834  10.727  10.125  0.2644  0.1529  0.2359
 3608W        W46661  17.523  15.430   7.267 -0.0438  0.1055  0.1625
 3609W        W46662  25.780  23.641   5.883 -0.0663  0.1218 -0.1342
 3610W        W46663   8.860  22.668  20.770  0.0881  0.0971  0.2346
 3611W        W46664   1.164  33.710   4.480  0.1760  0.2108 -0.1112
 3612W        W46665  31.710   6.217   6.830  0.0920 -0.1611  0.3177
 3613W        W46666  33.781  26.288   2.792  0.0325  0.1756 -0.1702
 3614W        W46667  17.280  19.315   1.413  0.2541 -0.2105 -0.1439
 3615W        W46668  20.346  21.571   0.385  0.0252 -0.0257 -0.3388
 3616W        W46669  19.094  11.796   1.941  0.1696  0.2981  0.1158
 3617W        W46670  19.736  30.955   9.936 -0.0950  0.0894 -0.1067
 3618W        W46671  23.606   2.417   5.787 -0.1018 -0.0809 -0.3552
 3619W        W46672  19.593  22.767   6.541  0.2414  0.0104 -0.0306
 3620W        W46673  33.170  13.091  20.940 -0.0223  0.4920  0.0191
 3621W        W46674  13.622   9.808  26.185  0.0074  0.0950  0.0199
 3622W        W46675  22.457  30.707  15.413 -0.0229 -0.1159 -0.1155
 3623W        W46676  32.405  23.284  27.527  0.0223  0.0214  0.2176
 3624W        W46677  16.295  21.122  27.115 -0.0481 -0.1111  0.1665
 3625W        W46678  20.520   8.942  10.774  0.1203  0.1463  0.0555
 3626W        W46679   6.584  14.365  26.556 -0.0034 -0.2849 -0.1055
 3627W        W46680   7.856  14.938  25.274  0.0892 -0.1668  0.1641
 3628W        W46681  20.645  16.463   8.970 -0.1828  0.0900 -0.3634
 3629W        W46682  12.313   9.194   5.103 -0.0118  0.1019  0.2995
 3630W        W46683  14.583  22.828  10.470  0.2467 -0.0028  0.0194
 3631W        W46684  20.456  13.716   1.488  0.0441 -0.2015  0.1173
 3632W        W46685  28.075  26.406  28.258  0.1682 -0.2799  0.1812
 3633W        W46686  14.146  21.178   9.841  0.0283  0.0766 -0.0449
 3634W        W46687  10.413  10.347   4.349 -0.2639  0.0306 -0.0574
 3635W        W46688  23.830   5.368   1.905  0.1024 -0.1073 -0.2659
 3636W        W46689  12.787  19.211  28.890 -0.0201  0.0904  0.1131
 3637W        W46690  21.229  31.195   6.965  0.0305 -0.0826 -0.2445
 3638W        W46691  22.168   7.859  20.758  0.0637  0.1113 -0.1909
 3639W        W46692  17.329  26.950  28.835 -0.0595  0.0252 -0.1196
 3640W        W46693  30.340  19.034   4.660 -0.2497 -0.0029  0.4429
 3641W        W46694  20.683  20.680  28.221 -0.0530  0.0184  0.2199
 3642W        W46695  16.569   6.170   9.453 -0.3442  0.3506  0.0768
 3643W        W46696   7.799  15.366  25.479 -0.0842 -0.3832  0.0859
 3644W        W46697   0.054  14.498   2.944  0.3880 -0.0963 -0.0437
 3645W        W46698  11.410  25.946  21.636 -0.0509 -0.0461 -0.0876
 3646W        W46699  17.911  19.600  25.774 -0.0125  0.2252 -0.3082
 3647W        W46700  29.931  19.608  16.733  0.0603  0.0517  0.0007
 3648W        W46701  22.859  24.585   6.556 -0.1337  0.0055  0.0161
 3649W        W46702  20.251  26.659   4.466  0.0473 -0.0561 -0.0994
 3650W        W46703   4.674  12.908   2.254  0.0433 -0.0237 -0.2763
 3651W        W46704  13.790  25.154   5.840  0.1644  0.1349  0.1169
 3652W        W46705  22.825  10.550   0.717  0.3371 -0.0902  0.1689
 3653W        W46706   2.009  30.309  23.347 -0.2748  0.4494  0.0846
 3654W        W46707  33.533  18.305   7.224 -0.1747 -0.2420 -0.1949
 3655W        W46708  15.183  23.184   3.977 -0.0512 -0.0601  0.0570
 3656W        W46709  20.308  23.027   1.095 -0.0697 -0.1635  0.0814
 3657W        W46710   6.444  16.164   7.536 -0.1154 -0.1347  0.1241
 3658W        W46711   4.802  22.767   6.878 -0.4577 -0.1756  0.0202
 3659W        W46712  24.588  32.842   5.169  0.3609  0.2821 -0.1182
 3660W        W46713  17.606  31.970   9.858  0.0168  0.0265  0.0651
 3661W        W46714  18.936  19.581   7.401 -0.2119 -0.2875 -0.1346
 3662W        W46715  12.307   1.667  28.356 -0.1737  0.0391  0.2447
 3663W        W46716  24.533  16.999  19.883 -0.0466  0.0011 -0.0623
 3664W        W46717  24.729  27.220   5.508  0.0314 -0.1948 -0.0618
 3665W        W46718  14.672  18.681   3.170 -0.1502  0.0084 -0.1131
 3666W        W46719  16.684   0.846   2.296  0.1752  0.1831 -0.0889
 3667W        W46720  21.064  23.534  18.811  0.0932 -0.2109 -0.3143
 3668W        W46721  19.609  15.188   4.930  0.0034  0.5283  0.0051
 3669W        W46722   2.001  27.476   5.649  0.1427 -0.0149 -0.0091
 3670W        W46723  15.117  17.200   4.072 -0.1447 -0.3865 -0.2735
 3671W        W46724   2.419  17.163   5.646  0.0876 -0.2096  0.0297
 3672W        W46725  26.099  18.411  28.290  0.1573  0.2618 -0.0892
 3673W        W46726  13.342   6.456   2.065 -0.2090 -0.0386 -0.1083
 3674W        W46727  27.072  22.907  21.371  0.3779 -0.3754  0.2595
 3675W        W46728  11.456  23.751   6.098  0.2360 -0.1921  0.1360
 3676W        W46729  17.995  30.354  19.732 -0.1181  0.0372  0.0432
 3677W        W46730  27.000   7.485   5.897 -0.1263 -0.1034 -0.0437
 3678W        W46731  29.520  28.628  27.941  0.1368  0.1873 -0.1161
 3679W        W46732  34.520  19.643  18.221  0.0182 -0.1913  0.2535
 3680W        W46733   1.639  31.477   6.668 -0.0770  0.2553 -0.0175
 3681W        W46734  19.236  14.606   0.985  0.2198 -0.0622  0.3063
 3682W        W46735   8.297  23.295   1.871  0.1324  0.1279 -0.0063
 3683W        W46736  34.379  14.742  25.295 -0.0636  0.0570 -0.1868
 3684W        W46737  18.006  11.778   7.899 -0.0301 -0.2491  0.1578
 3685W        W46738  29.383  29.591   2.316 -0.1416  0.2337  0.1969
 3686W        W46739  24.982   1.866   9.534 -0.2988 -0.1092 -0.2788
 3687W        W46740  17.510  22.510  13.123  0.0211  0.0437  0.2664
 3688W        W46741   1.353   7.177   8.131 -0.0068 -0.3448 -0.0234
 3689W        W46742  25.416  28.515  26.804 -0.0601 -0.0046 -0.0249
 3690W        W46743  17.453   8.804  23.375 -0.0395 -0.4277  0.2095
 3691W        W46744  18.643  16.067  25.221  0.0964  0.1756 -0.3160
 3692W        W46745  12.174  31.461   4.233 -0.2102  0.2200  0.0190
 3693W        W46746   9.509   8.101   2.425  0.2131  0.3116  0.0064
 3694W        W46747  15.883  22.129   5.927 -0.1533 -0.0529  0.3588
 3695W        W46748  26.342  29.857  15.137  0.2564  0.3146  0.1465
 3696W        W46749  33.062  25.023  29.131  0.1135  0.2172  0.0210
 3697W        W46750  17.509  12.654   5.077 -0.3739  0.2891  0.1912
 3698W        W46751  21.251  26.666  26.443 -0.3074 -0.1357 -0.0949
 3699W        W46752  13.086  10.298   9.281 -0.1696 -0.1845 -0.2284
 3700W        W46753  10.012  14.213  28.939 -0.2127  0.0233  0.3466
 3701W        W46754  25.715  26.018  25.386  0.4157  0.3781 -0.1103
 3702W        W46755  16.360  22.142  22.379 -0.2690  0.0426 -0.2493
 3703W        W46756  15.606  26.920   1.009 -0.0990  0.0411 -0.1515
 3704W        W46757  23.007  10.129  10.370 -0.1430  0.1057 -0.0247
 3705W        W46758  25.949   2.986   7.425  0.0770 -0.0423  0.1268
 3706W        W46759   4.906  29.004   2.996 -0.1083  0.0236 -0.0376
 3707W        W46760  18.039  25.542  18.946  0.0074 -0.1511  0.0257
 3708W        W46761  13.324  33.376   6.976 -0.0897 -0.0508  0.2673
 3709W        W46762  15.564   7.145  17.018  0.1921 -0.3574  0.0315
 3710W        W46763   0.384   5.852  16.719 -0.0957  0.0263 -0.0165
 3711W        W46764  11.846  26.113   6.504  0.1760 -0.3123 -0.1983
 3712W        W46765  28.235  33.979  15.763 -0.2197 -0.0162 -0.1153
 3713W        W46766   8.289  19.169   6.174 -0.1731  0.0451 -0.1778
 3714W        W46767  14.478  20.055  19.558  0.0105  0.0048 -0.1879
 3715W        W46768  12.228   6.616  17.472 -0.0286  0.2531  0.0129
 3716W        W46769  21.056  20.770   3.298  0.1902  0.1461  0.4662
 3717W        W46770  14.178  20.019   1.250  0.2539  0.0943 -0.0673
 3718W        W46771  14.244   7.560   9.314  0.0839 -0.2074 -0.4120
 3719W        W46772  33.736  23.663   7.340  0.0283  0.0442  0.0914
 3720W        W46773  17.440  21.784  25.444 -0.0285 -0.0184 -0.0283
 3721W        W46774  15.104  17.089   8.717  0.0506  0.0725 -0.1724
 3722W        W46775  19.486  20.416   6.288  0.0291 -0.2204 -0.2090
 3723W        W46776   4.469  19.607  20.468  0.0406 -0.0223  0.0924
 3724W        W46777  15.689   4.607   4.412  0.1617  0.1509 -0.1303
 3725W        W46778  29.145  31.361   8.453 -0.1818 -0.1727 -0.0837
 3726W        W46779  22.239  31.010   7.490 -0.0977 -0.0795 -0.3186
 3727W        W46780  17.053  12.033  27.839 -0.0964 -0.0002 -0.6274
 3728W        W46781   3.927   9.381   3.452 -0.1350  0.0564 -0.2600
 3729W        W46782  23.847  27.079  10.872  0.0002  0.0954  0.2043
 3730W        W46783  24.421  32.552   4.732  0.0182 -0.1810 -0.2562
 3731W        W46784  11.894  15.444  21.924  0.0306  0.1620  0.2120
 3732W        W46785  23.042  29.212  22.079  0.0444  0.2318  0.0335
 3733W        W46786  21.491  16.354  23.676  0.0829  0.2171  0.5157
 3734W        W46787   1.448  14.869  27.892  0.0803 -0.1349 -0.0920
 3735W        W46788  22.921  12.380  10.019 -0.0883 -0.6160 -0.3149
 3736W        W46789   8.472  13.457   2.964  0.0954  0.2180 -0.2507
 3737W        W46790  11.020  32.018  23.148  0.1356  0.3525 -0.2302
 3738W        W46791   5.808  32.279  15.642  0.3738  0.1892 -0.0792
 3739W        W46792  10.023  15.609   3.562  0.1895  0.1779  0.0667
 3740W        W46793  20.357  22.130   5.801 -0.1124  0.1168  0.0693
 3741W        W46794  12.582  14.937  24.973 -0.2025 -0.0873 -0.0067
 3742W        W46795   7.421  24.999   2.100  0.0490  0.2217  0.0443
 3743W        W46796  31.812  18.946   5.729  0.0927 -0.2271  0.3663
 3744W        W46797  20.536   2.419  29.167 -0.1602  0.2367  0.0367
 3745W        W46798  26.114  24.512  24.685 -0.0202  0.2157  0.1086
 3746W        W46799   4.241  17.606  28.511  0.0331  0.2682 -0.1367
 3747W        W46800  32.097  12.063   2.379 -0.1834 -0.1224 -0.0622
 3748W        W46801  24.483  30.196   6.181  0.0704  0.1160 -0.2190
 3749W        W46802   6.562  29.433  22.708  0.0007  0.1086 -0.3674
 3750W        W46803  15.645  13.007  14.145  0.0650  0.0742 -0.3388
 3751W        W46804  12.061  21.381   8.553  0.0662 -0.0172  0.2079
 3752W        W46805  31.612  16.854  26.389 -0.1370  0.3748 -0.1392
 3753W        W46806  13.073  19.967  27.446  0.4202 -0.3098  0.0702
 3754W        W46807  22.832  15.319  27.684  0.2423 -0.3156  0.0866
 3755W        W46808   2.692  22.949   9.120  0.4232  0.4422 -0.1777
 3756W        W46809   7.607  17.929   0.743 -0.0878 -0.1859  0.0578
 3757W        W46810  23.118  22.961   6.611  0.5147 -0.2513 -0.0357
 3758W        W46811  12.820  28.780   5.811  0.4792 -0.2397 -0.4513
 3759W        W46812   8.194  32.527   0.627 -0.0092  0.1469 -0.0776
 3760W        W46813   1.872  33.499  28.790  0.1866 -0.2112  0.2347
 3761W        W46814   7.278  11.235  22.141 -0.1253 -0.3454  0.4109
 3762W        W46815  13.408  14.793  23.819 -0.0857  0.0607 -0.2005
 3763W        W46816  28.789  12.442   6.953 -0.5078 -0.1481  0.1648
 3764W        W46817  27.871  17.176   8.380  0.1001 -0.0449 -0.1403
 3765W        W46818   9.941   5.814   5.263 -0.0384  0.1146  0.0809
 3766W        W46819  17.129  23.971  15.298  0.2358 -0.0304 -0.0593
 3767W        W46820   2.830  15.484   5.368  0.0158  0.0614 -0.1455
 3768W        W46821  22.423  12.795   4.313 -0.2034 -0.3143 -0.1421
 3769W        W46822  20.983  27.343   4.403  0.0990 -0.1508  0.1662
 3770W        W46823  12.138  20.234  28.880  0.0375 -0.1935 -0.1629
 3771W        W46824   9.219   9.652   3.797 -0.3948 -0.0270  0.0133
 3772W        W46825  17.861  23.463   6.708  0.1472 -0.0942 -0.5259
 3773W        W46826   1.447  20.096   1.687 -0.0233 -0.4202  0.1311
 3774W        W46827  21.900  19.857   4.707  0.0446  0.2393 -0.1012
 3775W        W46828  25.279  25.946   5.926  0.0583 -0.1052  0.0978
 3776W        W46829  16.715  21.954   6.212  0.1784  0.1182 -0.1420
 3777W        W46830  30.827  14.205  16.063 -0.0979  0.0574 -0.2013
 3778W        W46831  23.601  13.756   4.177 -0.3229  0.1669  0.3451
 3779W        W46832   2.822  15.820  28.433 -0.0699  0.2514  0.2159
 3780W        W46833  10.503  23.609   0.736  0.1229 -0.1002 -0.0134
 3781W        W46834  16.267  19.217   9.814  0.1276 -0.1460 -0.0167
 3782W        W46835   9.038  12.035   5.776  0.0789 -0.5138 -0.0368
 3783W        W46836   7.345  16.156  20.074 -0.2481  0.0170 -0.1852
 3784W        W46837  12.652  17.546  13.314  0.3196 -0.0384  0.1503
 3785W        W46838  23.567  33.615  22.880  0.0354 -0.1122 -0.2417
 3786W        W46839  19.449  19.168   0.324 -0.0919 -0.2627  0.1207
 3787W        W46840  31.269  25.384  22.000  0.1959 -0.1966  0.0108
 3788W        W46841   7.468  19.439   1.585 -0.0266  0.1892 -0.3046
 3789W        W46842   9.251  25.908  26.997 -0.2444  0.0085  0.1666
 3790W        W46843  18.810  16.455   8.584  0.0044  0.2932  0.1822
 3791W        W46844  19.518  11.222   1.510 -0.0907 -0.0552 -0.1691
 3792W        W46845  26.537  28.441  21.122 -0.2242 -0.2743  0.0271
 3793W        W46846  34.578  21.413   7.379  0.0156 -0.0048 -0.0231
 3794W        W46847  20.462  32.684   5.450  0.2266  0.2019 -0.2776
 3795W        W46848  23.960  32.695   4.915 -0.0580  0.0129 -0.0925
 3796W        W46849  20.739  12.890   7.549 -0.0188 -0.4495 -0.3817
 3797W        W46850   9.759  18.433   4.709  0.1526 -0.0645 -0.0412
 3798W        W46851  19.271  18.524  22.226  0.0249 -0.4097 -0.1544
 3799W        W46852  26.537  14.816   0.406  0.2971 -0.3181  0.0656
 3800W        W46853  31.629  22.558  14.313 -0.0146  0.2081  0.0359
 3801W        W46854   2.320  17.845   3.339  0.1206  0.2161 -0.1746
 3802W        W46855  27.907  19.179   9.514  0.0013  0.1962 -0.3089
 3803W        W46856  18.053  31.290   6.177  0.5443 -0.0539  0.1159
 3804W        W46857  31.429  31.466   1.325 -0.0954 -0.0294  0.0503
 3805W        W46858   3.928  13.141  27.824 -0.1672  0.0488 -0.1321
 3806W        W46859   5.991  31.542   2.073 -0.0101  0.3462 -0.1629
 3807W        W46860  17.664  33.367   5.458  0.2305  0.6078  0.0243
 3808W        W46861   2.607  13.808   4.529 -0.0581 -0.0971  0.0218
 3809W        W46862  23.101  16.719   8.917 -0.0762  0.2051  0.0344
 3810W        W46863  30.361   3.267   6.842 -0.1856 -0.2420 -0.0869
 3811W        W46864  23.861  33.208   9.406 -0.3113  0.0040  0.0885
 3812W        W46865  25.135  18.868  25.968  0.0161  0.1821  0.1277
 3813W        W46866  33.387   5.343   7.927  0.3366 -0.0753  0.0581
 3814W        W46867  11.787  16.078   5.993  0.1071  0.1698  0.0656
 3815W        W46868   2.286  14.014  27.454 -0.2232 -0.0175  0.2210
 3816W        W46869   1.843   3.132   3.294  0.0057 -0.0746  0.0517
 3817W        W46870   9.451   4.939   9.856 -0.1810 -0.1647 -0.1814
 3818W        W46871  17.036   6.788  27.547  0.2004 -0.0857 -0.2272
 3819W        W46872  25.941  11.297  20.266 -0.1031 -0.0157  0.2176
 3820W        W46873  30.715  14.085  17.350  0.1137  0.0030 -0.0325
 3821W        W46874  15.191   6.057   6.360 -0.2961  0.0298 -0.1601
 3822W        W46875   7.746  23.196   7.045  0.0061 -0.2450  0.1829
 3823W        W46876   8.457  17.606  27.374  0.3357 -0.1543  0.1676
 3824W        W46877  19.242   0.836   4.323 -0.1108  0.1284  0.0826
 3825W        W46878  15.656  24.674   6.905 -0.0825 -0.1229 -0.4385
 3826W        W46879  15.940  24.799   6.441 -0.0905  0.1121 -0.1877
 3827W        W46880  27.676  31.895   8.446 -0.1134 -0.2511  0.0514
 3828W        W46881  18.829  23.075  16.625  0.0868  0.1137 -0.0051
 3829W        W46882  26.345  20.047   0.768  0.3235 -0.2770  0.1869
 3830W        W46883  16.332  21.459   8.144  0.1194 -0.0006 -0.1169
 3831W        W46884  15.727  19.612  23.437 -0.1422 -0.2652  0.0957
 3832W        W46885  15.961  25.826   3.465  0.1266  0.1833 -0.1871
 3833W        W46886   9.246  30.704   7.408 -0.2045 -0.1709 -0.1649
 3834W        W46887  16.763  25.613   0.148  0.0095 -0.3514 -0.0753
 3835W        W46888  15.199  29.862   2.938 -0.0227  0.1350  0.1178
 3836W        W46889  10.368  14.527   9.290 -0.2147  0.0487  0.0288
 3837W        W46890  18.819  23.446   8.039  0.1254  0.2422  0.2409
 3838W        W46891   3.408  24.634  27.248  0.2098  0.0258  0.0567
 3839W        W46892  16.869  18.912   7.166 -0.0571  0.0704 -0.0296
 3840W        W46893  29.996  21.316  19.935 -0.1108 -0.0661 -0.2209
 3841W        W46894  14.864  14.216  25.208  0.1946  0.0161  0.1058
 3842W        W46895  21.921   4.416   9.099  0.1879  0.0862 -0.3473
 3843W        W46896  15.303  30.711   4.915 -0.5570  0.2871 -0.1656
 3844W        W46897   9.906   5.685  10.276  0.2557 -0.0852 -0.2503
 3845W        W46898  33.582  12.161  22.217  0.1063  0.1609 -0.0742
 3846W        W46899   5.118  20.413   8.725  0.2637 -0.0019 -0.0456
 3847W        W46900  25.563  22.917   9.317 -0.2793 -0.2627 -0.0520
 3848W        W46901  12.029  24.489   2.187  0.2651  0.0364 -0.1167
 3849W        W46902  19.762  10.934   3.652 -0.1328  0.0018 -0.1186
 3850W        W46903  16.059   2.389   5.967  0.1291 -0.3402 -0.1232
 3851W        W46904  25.105  20.781  15.819 -0.1661  0.1894 -0.3174
 3852W        W46905   0.203  19.331  27.284 -0.1651 -0.0538 -0.5434
 3853W        W46906   3.599  20.192  27.540  0.1923  0.3279 -0.3212
 3854W        W46907   1.462  14.667   4.196  0.1697 -0.1307  0.1113
 3855W        W46908  17.321  21.031   7.628 -0.1855 -0.2746 -0.0143
 3856W        W46909  22.814  22.943   5.529 -0.0094 -0.1521 -0.1621
 3857W        W46910   9.117  18.004   9.359  0.0213  0.2554  0.2064
 3858W        W46911  24.582  12.393   5.805  0.0876  0.0133 -0.3757
 3859W        W46912  19.579   8.106   4.699  0.1566  0.3988  0.3945
 3860W        W46913  22.080  27.609   3.757  0.0865 -0.3745  0.1953
 3861W        W46914  18.862  18.573   2.542 -0.0584 -0.2477  0.1727
 3862W        W46915  25.910  17.842   3.872  0.3355  0.0095 -0.1868
 3863W        W46916  17.031   2.156  17.039 -0.2232 -0.2491  0.4093
 3864W        W46917  16.192  23.382  16.431  0.0828  0.2674 -0.0120
 3865W        W46918   8.451   3.530  10.729 -0.0408 -0.1641  0.0128
 3866W        W46919  21.810   3.285  28.325  0.0171 -0.0930 -0.0189
 3867W        W46920  27.486  22.564  22.248  0.0112  0.2198 -0.3822
 3868W        W46921  14.736  16.994  22.148 -0.1699  0.3429 -0.1312
 3869W        W46922  18.167  28.668   7.735 -0.0092  0.0340  0.3812
 3870W        W46923  23.020  28.979  24.451 -0.1354  0.1292  0.0766
 3871W        W46924  13.924   1.205   6.256 -0.1031  0.1342  0.0741
 3872W        W46925  12.812  25.525  25.899  0.0211  0.1078 -0.1705
 3873W        W46926  22.144  19.202  13.713 -0.1361 -0.0063  0.2400
 3874W        W46927  24.547  19.674   0.654 -0.0304 -0.1856 -0.0209
 3875W        W46928  22.396  14.939   1.602 -0.3834  0.1274  0.0427
 3876W        W46929  12.408  16.713   7.484  0.0286  0.2895  0.0414
 3877W        W46930  15.990  10.235  10.139 -0.0128 -0.1833 -0.0232
 3878W        W46931   3.892  23.520  28.953  0.0665 -0.1991 -0.2333
 3879W        W46932  17.556  33.129   9.055 -0.1184 -0.0110  0.0719
 3880W        W46933  21.148   4.110   8.292 -0.0571  0.0529  0.1832
 3881W        W46934  29.993  11.156   2.715 -0.3836  0.0520 -0.0669
 3882W        W46935   7.662  18.901   8.936  0.0421 -0.0805 -0.2147
 3883W        W46936  22.725  29.588  19.546 -0.0202  0.2355 -0.0298
 3884W        W46937   8.998  23.359   6.251  0.0931  0.2391  0.3542
 3885W        W46938  18.032   9.839  19.841  0.1550 -0.3347  0.2082
 3886W        W46939  13.117   5.138   4.380  0.0110 -0.1101  0.3148
 3887W        W46940  14.333  30.636   4.844  0.1488  0.2324  0.0372
 3888W        W46941  16.540  27.877   8.081  0.2026  0.0568 -0.4820
 3889W        W46942   7.052  11.460  20.499  0.0665  0.0445 -0.0461
 3890W        W46943  30.942  25.765   3.610  0.0284 -0.0180  0.2602
 3891W        W46944  24.145   9.701   2.548 -0.2198  0.1984  0.0047
 3892W        W46945  15.238  26.165  21.529  0.1435 -0.3126  0.2908
 3893W        W46946  15.488  15.736  25.876 -0.1487 -0.0489 -0.0417
 3894W        W46947  16.623  24.661   1.473 -0.0185  0.1846 -0.2055
 3895W        W46948   6.432  17.994  22.900  0.1029 -0.2133 -0.0121
 3896W        W46949  21.368  20.312   7.940 -0.2510  0.2067  0.1749
 3897W        W46950  26.422  10.912  10.332  0.0405  0.0600  0.2227
 3898W        W46951  14.473   9.851   4.742  0.3073  0.1348 -0.2061
 3899W        W46952  28.163  32.280   4.804 -0.1421 -0.2368  0.1252
 3900W        W46953  28.674  28.335   8.884 -0.1523 -0.1995 -0.0840
 3901W        W46954  21.244  32.242   4.354  0.0453  0.0074 -0.2118
 3902W        W46955  10.226   3.981   5.261 -0.1435  0.0194 -0.0940
 3903W        W46956  16.171  19.770   7.938 -0.0411  0.4715  0.1882
 3904W        W46957  17.276  28.804  28.138  0.3963  0.1517 -0.1878
 3905W        W46958  34.171  28.091   7.132 -0.0154 -0.2374  0.0990
 3906W        W46959  18.510  29.737   0.795  0.4355 -0.3994 -0.0438
 3907W        W46960  32.894  34.532   0.488  0.3652 -0.1520 -0.1568
 3908W        W46961   2.559  21.532   7.618 -0.0305  0.3089  0.1162
 3909W        W46962   7.091  26.627   2.930 -0.0150  0.3100 -0.1022
 3910W        W46963   5.403  12.266   3.749 -0.2946  0.0720 -0.2347
 3911W        W46964   1.934  21.430   1.673  0.0385 -0.0117 -0.0526
 3912W        W46965   0.876  13.453  23.135 -0.4568  0.0797  0.2421
 3913W        W46966  26.522  22.676   8.995 -0.2566  0.0863  0.0968
 3914W        W46967  17.069  26.221  25.386 -0.3000 -0.2766 -0.2086
 3915W        W46968  12.082   2.201   2.106  0.0136 -0.0549 -0.0550
 3916W        W46969  31.634  16.032   4.076  0.2956 -0.3056  0.2846
 3917W        W46970  19.050  23.033  26.805 -0.1040 -0.1802  0.3393
 3918W        W46971   9.893  14.280   1.807 -0.0940 -0.3159  0.1291
 3919W        W46972   0.139  31.999  28.756 -0.0192 -0.0928 -0.0367
 3920W        W46973  19.734  30.887   7.361 -0.0923 -0.0840 -0.2105
 3921W        W46974   3.240  15.777   3.120 -0.0417 -0.2501  0.1604
 3922W        W46975  27.522  19.563   4.952  0.0298  0.0245 -0.0497
 3923W        W46976  29.286  15.174   2.467  0.1696  0.0933  0.3843
 3924W        W46977  18.443  22.424   2.221  0.1885  0.1450  0.0757
 3925W        W46978  20.654  23.176  27.339 -0.1186  0.2152  0.3086
 3926W        W46979   8.486  16.914   4.619 -0.0436 -0.1503  0.1348
 3927W        W46980  30.804  30.661   7.067  0.2867  0.0847  0.5675
 3928W        W46981  13.163  33.232  10.281  0.1685  0.0170  0.1740
 3929W        W46982  23.310  12.273   3.404 -0.2030 -0.0466  0.3585
 3930W        W46983  24.010  26.547  10.328  0.1196  0.1519 -0.0524
 3931W        W46984  31.317  30.021   5.452  0.2236 -0.0597  0.0562
 3932W        W46985  28.152   0.940   9.640  0.1652 -0.3521 -0.2970
 3933W        W46986  33.949  33.464  21.043 -0.1321 -0.1432 -0.0172
 3934W        W46987  18.577  16.986   2.636 -0.0937 -0.1064 -0.0181
 3935W        W46988   6.486  20.830  24.328 -0.1952 -0.1987  0.2345
 3936W        W46989   8.132  14.911   8.997 -0.3504 -0.0680  0.1561
 3937W        W46990  29.634  16.832  21.555  0.2132 -0.1925  0.1643
 3938W        W46991  21.748  13.217   6.345  0.0739  0.0787  0.1353
 3939W        W46992  32.731   7.875  25.556  0.0618 -0.4270 -0.1436
 3940W        W46993   2.840   3.481   3.653 -0.1523 -0.1494 -0.0543
 3941W        W46994  22.782  20.548   3.337 -0.1656  0.1282 -0.1242
 3942W        W46995   9.758   9.967   3.385 -0.2635  0.0338 -0.1511
 3943W        W46996  22.097   7.471   2.385  0.1286 -0.2922 -0.0700
 3944W        W46997   3.087  23.575   7.192 -0.0506 -0.2850  0.1766
 3945W        W46998  12.892  24.982  28.932 -0.0930  0.1374 -0.1184
 3946W        W46999  20.298  11.548  28.790 -0.2447 -0.0680 -0.2057
 3947W        W47000  32.432  14.572   7.386  0.0012  0.1745 -0.2031
 3948W        W47001  16.771  22.614  23.295 -0.2638  0.3460  0.1949
 3949W        W47002  25.973  22.484   4.110  0.0136  0.1479 -0.0352
 3950W        W47003  28.610   2.591   0.001 -0.2724 -0.1176  0.2072
 3951W        W47004  17.330  27.851   3.471 -0.0842  0.0285 -0.0748
 3952W        W47005   2.772  21.484   9.281 -0.2791  0.1262  0.2765
 3953W        W47006  25.951  18.131   8.038 -0.2395  0.1737 -0.0114
 3954W        W47007  17.036  21.572   3.935 -0.1030 -0.1645  0.1119
 3955W        W47008  27.276  33.571   5.744  0.1223  0.0140 -0.0927
 3956W        W47009   3.942  22.507  28.401  0.0386  0.1162 -0.1993
 3957W        W47010  24.896  28.122   8.544  0.1676 -0.2272  0.3062
 3958W        W47011  23.346  23.546  26.921  0.2492 -0.1148  0.6032
 3959W        W47012  17.913  18.250   8.143  0.2901  0.0260  0.1234
 3960W        W47013  30.815  16.959   1.423 -0.3584  0.0341 -0.0674
 3961W        W47014  11.280  10.785  10.190 -0.5541 -0.1290  0.2357
 3962W        W47015  14.054  23.165  16.315 -0.1309 -0.0703 -0.1037
 3963W        W47016  29.043  15.358   6.016  0.3441  0.0100 -0.2257
 3964W        W47017  19.455  28.958  28.725  0.0904 -0.0308  0.2539
 3965W        W47018  29.228  26.821   4.514  0.1800  0.0346 -0.3961
 3966W        W47019  11.394  28.236   0.298  0.1148 -0.1336  0.0019
 3967W        W47020  27.399  33.052   7.355 -0.0503 -0.0774  0.0509
 3968W        W47021   7.173  28.154   2.056  0.0625 -0.0869  0.3498
 3969W        W47022  15.847  14.040   7.368  0.3739 -0.1153 -0.0338
 3970W        W47023  26.159  19.718   3.619 -0.0117 -0.1981 -0.0198
 3971W        W47024  23.074  28.884   2.799  0.1868 -0.0028 -0.5456
 3972W        W47025  17.481  24.192   5.640 -0.2537  0.0039 -0.0007
 3973W        W47026  18.395  34.311   9.230 -0.1613 -0.2189 -0.2219
 3974W        W47027  14.205  28.773  25.032  0.1155  0.1355  0.2935
 3975W        W47028  14.394  14.158  27.457 -0.0773  0.1280 -0.2218
 3976W        W47029   8.371  10.529  26.697 -0.0026 -0.1789 -0.0361
 3977W        W47030  18.652  30.538  21.512 -0.0685  0.0383  0.0153
 3978W        W47031  22.831  21.194   9.179 -0.0251  0.1568 -0.0988
 3979W        W47032  17.067   9.572   8.608  0.0195 -0.0725  0.3528
 3980W        W47033  15.399   2.214  20.505  0.0105 -0.1177 -0.1887
 3981W        W47034  34.382  14.419   7.051  0.1139 -0.4653  0.0170
 3982W        W47035  11.495  20.151  23.740  0.1226  0.0742 -0.0022
 3983W        W47036  12.447  12.875   7.247  0.1258 -0.0370  0.1058
 3984W        W47037   2.235   6.982   8.284 -0.0965  0.0350 -0.1181
 3985W        W47038   5.538   8.326  10.038  0.4217  0.1289 -0.2131
 3986W        W47039  13.909   6.813   8.690  0.0520  0.0829  0.2947
 3987W        W47040  17.100  13.874  28.866 -0.3214 -0.0840  0.0826
 3988W        W47041  15.566  16.426  24.291 -0.4952  0.0458  0.5438
 3989W        W47042  23.125  16.293   6.942 -0.0587  0.0203 -0.1705
 3990W        W47043  19.770  22.052  25.221 -0.0587  0.3572 -0.1980
 3991W        W47044   3.364  29.642  26.985 -0.1234  0.0597  0.3439
 3992W        W47045   9.809   3.780   6.491 -0.0842 -0.1321 -0.0714
 3993W        W47046  20.527   3.034   1.586  0.0685  0.4569  0.0890
 3994W        W47047   0.936  31.921  21.517  0.0418 -0.0257  0.0057
 3995W        W47048  20.724  24.136   9.965 -0.0599  0.4341  0.1498
 3996W        W47049   6.209  26.002   8.808 -0.0959 -0.3805  0.0047
 3997W        W47050   4.080  18.001   0.324 -0.0685  0.0119 -0.2220
 3998W        W47051   6.555  20.119  27.964 -0.2303 -0.0819  0.1445
 3999W        W47052  20.100  14.805   1.585  0.1374  0.0665 -0.0093
 4000W        W47053   8.718  24.482   6.734 -0.0052 -0.2055  0.3310
 4001W        W47054   4.875  22.045   9.644  0.2433 -0.0630  0.0121
 4002W        W47055  18.524  13.161   3.914 -0.0830 -0.0649  0.1237
 4003W        W47056   7.672  33.937   6.208  0.0147  0.1603 -0.3738
 4004W        W47057  34.176  31.368   3.091  0.1254 -0.0618 -0.4223
 4005W        W47058   3.599  20.432   5.591  0.2314  0.0638 -0.0983
 4006W        W47059  14.989  16.925   3.679  0.1189 -0.3059 -0.0393
 4007W        W47060  33.169  25.989   3.499  0.0835  0.0707 -0.3160
 4008W        W47061  27.164  21.628   4.003  0.2242  0.0256 -0.1427
 4009W        W47062  20.513  16.490   7.332 -0.1410  0.2950 -0.1144
 4010W        W47063   8.699  24.314  21.452  0.2393  0.0364  0.0134
 4011W        W47064  30.816  16.483  29.021 -0.1061 -0.1770  0.0721
 4012W        W47065   3.893  17.705  27.729  0.2100  0.1572 -0.2802
 4013W        W47066  17.425   8.294   6.706  0.1648 -0.0856 -0.0922
 4014W        W47067   8.871  17.107   2.966 -0.0237 -0.1828  0.0417
 4015W        W47068  23.351   2.036  23.994 -0.0953  0.1724  0.2064
 4016W        W47069   8.580  28.518   6.856 -0.0632  0.1335  0.1024
 4017W        W47070  10.921  18.222   4.064  0.0450 -0.1743 -0.2552
 4018W        W47071  18.221  31.641  22.353  0.1404 -0.0869  0.0082
 4019W        W47072  20.635  21.055  27.189  0.1786 -0.0597  0.2295
 4020W        W47073  24.127  32.911   8.424  0.1990 -0.1484  0.0056
 4021W        W47074  34.259  30.183  26.466  0.0887 -0.0485 -0.1187
 4022W        W47075  13.044  26.911  26.021 -0.1229 -0.0797 -0.0282
 4023W        W47076  26.254  16.081   3.084 -0.0732 -0.0852  0.2118
 4024W        W47077   4.830  17.762   8.493  0.2436  0.3331 -0.2981
 4025W        W47078  25.445  17.292  29.092 -0.1806 -0.2148 -0.3460
 4026W        W47079   6.664  24.148   7.201 -0.2600  0.3137 -0.1831
 4027W        W47080  26.713  17.385  27.974 -0.3343 -0.0909  0.0379
 4028W        W47081  14.798  19.416   3.973 -0.1369 -0.0683 -0.0050
 4029W        W47082  14.946   5.260   5.131 -0.2945  0.0879 -0.2897
 4030W        W47083  33.942  18.721  21.078  0.0624 -0.1750 -0.0362
 4031W        W47084  11.219  21.574   2.239  0.0478 -0.0637  0.1687
 4032W        W47085   5.822   0.766   1.307 -0.0412 -0.1083  0.0230
 4033W        W47086   4.438  27.530  21.616  0.5539  0.0747 -0.0334
 4034W        W47087  31.696   9.794   7.915  0.1914 -0.0532 -0.0957
 4035W        W47088  15.622  12.602  23.194 -0.0675  0.0769 -0.2580
 4036W        W47089  11.285  16.785   4.417 -0.3153  0.2818  0.2068
 4037W        W47090  13.564  15.908  28.776  0.2258  0.1010  0.0855
 4038W        W47091  18.438  21.465   6.356 -0.2929  0.0116  0.0640
 4039W        W47092  15.309  31.383   8.994 -0.2323  0.1339 -0.1628
 4040W        W47093  33.224  28.209  26.454 -0.2150  0.3293 -0.0653
 4041W        W47094  10.808   3.968  28.836  0.2007 -0.2247 -0.0306
 4042W        W47095  14.637  21.114   4.658  0.2233  0.1987 -0.3143
 4043W        W47096  22.713  13.390  26.775  0.1499 -0.1224 -0.0250
 4044W        W47097  31.160  16.880   5.900  0.0356  0.1654  0.0836
 4045W        W47098   4.240  20.072   4.429 -0.0109  0.3602 -0.2506
 4046W        W47099   6.085   7.122   8.236 -0.4927  0.2178 -0.3237
 4047W        W47100   9.833  23.785   2.775  0.1751 -0.0792  0.0344
 4048W        W47101   0.097   6.591  20.882 -0.0988  0.1410  0.2889
 4049W        W47102  20.699  14.145   7.020  0.1244 -0.0416 -0.1035
 4050W        W47103   3.067  17.210   4.958  0.4663 -0.1663 -0.1195
 4051W        W47104  21.635  19.468  21.349 -0.0805  0.0428 -0.2415
 4052W        W47105  19.075   0.495  27.187 -0.1328 -0.1252  0.1355
 4053W        W47106  27.105   5.292  25.080  0.1448  0.0889 -0.1061
 4054W        W47107  21.256  23.931  23.704  0.1075  0.0095  0.0641
 4055W        W47108   8.800  26.617  15.842 -0.4293 -0.1705  0.0864
 4056W        W47109  17.619  16.698  27.020  0.0537  0.2703 -0.1544
 4057W        W47110  12.124  13.515   4.825  0.1542 -0.1592 -0.3599
 4058W        W47111  11.528   3.562   6.577 -0.2098  0.0092 -0.2543
 4059W        W47112  10.739  13.631   5.710  0.1694 -0.3438 -0.0501
 4060W        W47113   9.633  17.163   7.626  0.0357  0.1348 -0.2800
 4061W        W47114  12.685  25.250   8.580  0.0594 -0.0332  0.0777
 4062W        W47115   3.269  24.974   9.653 -0.4231  0.0930 -0.0558
 4063W        W47116  11.441  18.873   8.946 -0.2172  0.0450  0.0552
 4064W        W47117  10.402  19.953  25.833  0.0392 -0.2404 -0.1474
 4065W        W47118   9.240   9.008   6.983  0.0802  0.0156 -0.2026
 4066W        W47119  19.155  20.045  28.854 -0.0081 -0.0248 -0.1205
 4067W        W47120  28.900  29.771   5.798  0.0155 -0.2115 -0.1092
 4068W        W47121  15.037  24.077  26.836 -0.1167  0.0003 -0.1231
 4069W        W47122  26.299  17.953   6.798 -0.0735 -0.2028 -0.0780
 4070W        W47123  10.948  16.439   4.461 -0.1434  0.0876  0.0832
 4071W        W47124  22.711  20.904   7.839  0.1051 -0.0115 -0.0072
 4072W        W47125  31.323  17.581   4.426 -0.1907 -0.1891  0.0219
 4073W        W47126   8.120  20.439  14.379 -0.4427  0.1100 -0.1901
 4074W        W47127  17.737  31.729  22.485 -0.1618  0.1128  0.2676
 4075W        W47128  14.451  19.001   7.379 -0.1479  0.4165  0.0015
 4076W        W47129  12.039  11.566   5.104  0.0863  0.0109 -0.5262
 4077W        W47130  26.498  22.994   7.062 -0.1845  0.3813  0.1175
 4078W        W47131  11.004  15.221   8.515 -0.0962  0.1839 -0.1022
 4079W        W47132  24.522  19.571  26.136 -0.2003  0.0298  0.0773
 4080W        W47133  16.031  15.015   9.542 -0.1381 -0.1728 -0.2980
 4081W        W47134   9.891  28.732   0.292  0.1138 -0.3505 -0.1033
 4082W        W47135  31.371  31.594   6.065 -0.2620  0.1783  0.0659
 4083W        W47136  11.596  10.967   2.866  0.0835  0.2730 -0.1166
 4084W        W47137  16.478  14.631   1.784  0.1073  0.0011 -0.1989
 4085W        W47138  26.223  22.002   3.165  0.0726 -0.1838 -0.2198
 4086W        W47139  28.059  16.550  26.560 -0.1152  0.0517 -0.2906
 4087W        W47140   5.367  21.026   7.876 -0.1389  0.3287 -0.0859
 4088W        W47141   3.528  17.205   9.025  0.1188  0.3905 -0.0248
 4089W        W47142  17.529  15.298  27.265 -0.1236 -0.0964 -0.1884
 4090W        W47143   6.239  34.290   3.647  0.1170  0.1845 -0.2384
 4091W        W47144  20.114  13.878  19.085  0.2405 -0.1566  0.1447
 4092W        W47145  20.076   5.538   7.353 -0.2464 -0.1892 -0.2056
 4093W        W47146  21.037  19.033  20.834  0.2487 -0.0464 -0.2511
 4094W        W47147  23.329  13.640   9.713 -0.1800 -0.0344 -0.2159
 4095W        W47148  12.760  20.922  26.207  0.2147  0.3016  0.1551
 4096W        W47149   6.326  24.536   0.821  0.0540 -0.2986 -0.1631
 4097W        W47150   7.170  26.930  17.731 -0.0630  0.1741 -0.0339
 4098W        W47151  18.978  30.315  27.724  0.2004 -0.1229 -0.2707
 4099W        W47152   7.994  15.965   9.135  0.2792 -0.0675 -0.1852
 4100W        W47153   3.349  22.711  25.701  0.2638 -0.0428  0.0889
 4101W        W47154  22.731  12.408   2.292 -0.0276 -0.2047 -0.0118
 4102W        W47155  25.736  17.146   9.769  0.4011 -0.0326 -0.3753
 4103W        W47156  18.471  15.784   5.855 -0.0592  0.0614  0.2164
 4104W        W47157  27.111  15.992  29.133 -0.1182  0.1886 -0.3286
 4105W        W47158  22.190  22.128  26.600 -0.1016  0.2030  0.1731
 4106W        W47159   2.021  18.458   8.439  0.1814 -0.0080 -0.0052
 4107W        W47160  14.528   6.636   7.991 -0.0008 -0.0302 -0.1232
 4108W        W47161  14.200   8.077   4.819  0.0492  0.1545  0.0500
 4109W        W47162  11.396  24.668  28.945  0.0702  0.0051 -0.1763
 4110W        W47163  23.387  17.348  18.796 -0.0187 -0.2956  0.0287
 4111W        W47164   8.404  15.582   2.190 -0.1732 -0.1287 -0.1496
 4112W        W47165   9.445  32.464   7.917  0.2803 -0.0236 -0.1007
 4113W        W47166   8.055  13.090   9.210 -0.1566  0.0592  0.2701
 4114W        W47167  13.841  16.203   2.756 -0.1754  0.2578  0.0211
 4115W        W47168   0.571  22.862  25.679 -0.0014  0.0222 -0.1332
 4116W        W47169  20.222  29.518   8.207  0.0738 -0.1104 -0.0390
 4117W        W47170   9.638  33.077   7.679  0.1364  0.1553  0.1189
 4118W        W47171  21.694  25.970   1.530  0.0402  0.1181  0.2996
 4119W        W47172   3.344  22.438   0.077  0.3029 -0.2004 -0.1605
 4120W        W47173  17.641  16.393   6.606  0.2126  0.0459  0.0623
 4121W        W47174  17.612  27.338   5.469 -0.1109 -0.0255 -0.2970
 4122W        W47175  16.595  24.242   8.206 -0.2198 -0.0522  0.0054
 4123W        W47176   3.943  23.910   3.756  0.2337 -0.0229 -0.1687
 4124W        W47177  32.050   7.247  27.179 -0.0590  0.1229 -0.0256
 4125W        W47178   7.225  23.706   5.734 -0.1143  0.0792 -0.0407
 4126W        W47179  20.454  32.386  23.027  0.2143  0.1658  0.0716
 4127W        W47180  24.046   0.363   9.760  0.1141  0.1339  0.0765
 4128W        W47181  14.822   2.236   8.704 -0.0785  0.2139  0.0870
 4129W        W47182  11.329  15.286   6.783  0.1309 -0.3461  0.1562
 4130W        W47183  25.473  24.378   4.921  0.0625  0.2367 -0.1462
 4131W        W47184   0.374   9.625  26.655  0.0909  0.5950 -0.1756
 4132W        W47185  13.000  27.323   6.307  0.0536 -0.0634  0.0563
 4133W        W47186  14.074  30.860  21.240  0.0870  0.2014 -0.1273
 4134W        W47187   5.513  13.895  20.575  0.1268 -0.0569  0.3299
 4135W        W47188  23.044  12.825   4.926  0.1063 -0.0177 -0.2134
 4136W        W47189  17.178  20.595   5.165 -0.1645  0.2813  0.0250
 4137W        W47190  13.117  10.624  10.784  0.1061  0.0547 -0.1181
 4138W        W47191   8.506   8.951  28.321  0.0993  0.2522 -0.1551
 4139W        W47192  13.269  31.983  25.756 -0.1303  0.1021  0.3282
 4140W        W47193   1.766  23.293   8.098  0.0153 -0.1646  0.2517
 4141W        W47194  14.104  15.653   2.684  0.2397 -0.0426 -0.2236
 4142W        W47195  20.116  26.129   1.565  0.4295 -0.3089  0.2616
 4143W        W47196  13.895  31.785   8.103  0.3054  0.0049 -0.2816
 4144W        W47197  15.043   4.578  28.475  0.2746 -0.1033  0.0062
 4145W        W47198  14.998  31.263  19.424 -0.1003  0.2005 -0.0172
 4146W        W47199  13.612  20.792  25.123 -0.3153  0.1782  0.0269
 4147W        W47200  23.034  10.369  26.337  0.1417  0.2419  0.1994
 4148W        W47201  23.745  23.107   8.743 -0.1854  0.1151 -0.0444
 4149W        W47202  22.723  19.385   6.005 -0.0974  0.0288 -0.3356
 4150W        W47203  32.182  18.424   4.773  0.2771  0.2064 -0.2719
 4151W        W47204   8.537  27.134   4.116  0.1876 -0.0673 -0.2700
 4152W        W47205  12.835  26.808  25.566  0.1385  0.1102 -0.0193
 4153W        W47206  12.660  25.755  24.442 -0.0874  0.3105  0.0340
 4154W        W47207   5.687  22.469  10.007 -0.1634 -0.2686  0.0121
 4155W        W47208   1.645   2.816   7.003  0.0565 -0.0248 -0.3293
 4156W        W47209  23.321  14.775  26.241 -0.0126  0.1965 -0.0395
 4157W        W47210   2.921  21.811   3.797  0.1275 -0.0305  0.4403
 4158W        W47211  17.849  25.802  27.698  0.1798 -0.2266 -0.2689
 4159W        W47212  20.977  30.717   5.909 -0.0229 -0.1839 -0.0703
 4160W        W47213  11.445  21.943   0.964 -0.1255  0.1575 -0.2079
 4161W        W47214  30.644  29.722   2.150 -0.0612  0.1118 -0.1577
 4162W        W47215  25.415  13.118   2.915  0.3363 -0.1722 -0.0678
 4163W        W47216  18.900  24.215   9.137 -0.0221  0.4229  0.0043
 4164W        W47217  32.293   2.935   1.964 -0.1668  0.2928 -0.0881
 4165W        W47218   4.832  26.934   4.044  0.1909 -0.3163 -0.0200
 4166W        W47219  13.476   7.551   9.679 -0.3136  0.1770 -0.1734
 4167W        W47220  10.872  28.188   2.551 -0.0092 -0.0312  0.1527
 4168W        W47221   1.578  19.342  28.444  0.0118  0.1728 -0.3582
 4169W        W47222  11.351   5.946   6.448 -0.3333 -0.0833  0.1741
 4170W        W47223  18.966  19.566  26.217 -0.3190 -0.0642 -0.3699
 4171W        W47224   8.420   3.948  26.373 -0.1056 -0.0546  0.0503
 4172W        W47225  30.546  20.187  27.103  0.0482  0.0996 -0.0171
 4173W        W47226  27.858   6.601   7.403  0.2769  0.0700 -0.1442
 4174W        W47227  11.480  25.247   5.926  0.0589  0.0720 -0.2435
 4175W        W47228  20.156  18.878  27.039 -0.2863  0.2056 -0.0881
 4176W        W47229  18.180  23.289   0.276 -0.1635  0.1225 -0.1738
 4177W        W47230   8.380  23.464  16.970  0.0184  0.0907 -0.2012
 4178W        W47231   1.473  17.826  28.072 -0.0485  0.1453 -0.0990
 4179W        W47232  33.473  26.931   7.292 -0.2229 -0.1379  0.0190
 4180W        W47233  13.423  17.259   3.846  0.1115 -0.1757 -0.3327
 4181W        W47234  10.219  24.547   8.442 -0.0322  0.0397  0.2126
 4182W        W47235  13.280  19.326  17.260  0.1250  0.2288  0.0100
 4183W        W47236  19.609  27.030  24.602  0.0066 -0.0922  0.0374
 4184W        W47237  21.439   8.070  28.194 -0.0571  0.1182 -0.0138
 4185W        W47238  23.311   8.161   4.007  0.1202 -0.0582  0.2739
 4186W        W47239  15.776  12.190   5.673 -0.1795  0.0471 -0.1831
 4187W        W47240  27.283  31.021   3.613  0.2564 -0.0830 -0.2065
 4188W        W47241   3.704  22.207   7.003 -0.1511 -0.0005  0.0766
 4189W        W47242   5.647  22.139   8.272  0.2673  0.1062  0.3132
 4190W        W47243  33.819  23.971  27.079  0.2476  0.1612  0.0315
 4191W        W47244  13.679   8.530   6.284 -0.1737 -0.5377 -0.0077
 4192W        W47245  18.439  20.174   7.991  0.2201  0.0012 -0.1558
 4193W        W47246  25.407  32.952  26.124  0.0327  0.0429 -0.0328
 4194W        W47247  26.081  30.172  19.539  0.0686  0.0623 -0.0961
 4195W        W47248   7.485   4.342   1.072 -0.1538  0.2204 -0.1309
 4196W        W47249  28.547  18.993   5.872 -0.0626 -0.1010 -0.3579
 4197W        W47250   7.747  26.741  16.377  0.2422  0.0498  0.0823
 4198W        W47251  31.808   0.905   3.980 -0.1472  0.1081  0.1976
 4199W        W47252  16.624  22.464  29.032 -0.0204 -0.1033  0.1425
 4200W        W47253  23.697  26.728   0.098 -0.0596  0.0611 -0.0901
 4201W        W47254  28.040  13.892   6.486 -0.1332 -0.1220 -0.0747
 4202W        W47255  18.546  12.712   5.773 -0.0615 -0.1012  0.1382
 4203W        W47256  24.353  28.152   4.257 -0.0572 -0.1776 -0.4317
 4204W        W47257  16.094  19.531   5.443  0.1310  0.0161  0.2043
 4205W        W47258  13.727  18.744   5.311  0.1072 -0.0094  0.2258
 4206W        W47259  22.433   6.761  22.423 -0.0008 -0.3571  0.2200
 4207W        W47260   4.225   7.963   0.251 -0.3633  0.2304 -0.0927
 4208W        W47261  20.588  28.711   5.373 -0.1007  0.3079  0.0475
 4209W        W47262  28.967  20.786  26.858  0.4938  0.0064  0.0191
 4210W        W47263  25.575   2.250   2.423 -0.2660  0.0084  0.1636
 4211W        W47264  12.343  15.470   3.900  0.0623  0.1257 -0.4616
 4212W        W47265   3.286  12.133   8.158 -0.2947 -0.1883 -0.0590
 4213W        W47266   7.085  13.583  10.693 -0.1229  0.3028  0.0912
 4214W        W47267  11.299  13.974   6.408  0.0710 -0.3286 -0.0498
 4215W        W47268   5.561  19.131  27.985 -0.2917  0.0180 -0.1103
 4216W        W47269  28.605  33.080   8.051  0.0819 -0.3500  0.1848
 4217W        W47270   1.185   6.744   6.424 -0.2631 -0.0995  0.0125
 4218W        W47271  16.930  32.238  22.757 -0.1753 -0.3080  0.1624
 4219W        W47272  33.593  19.688  27.305 -0.0463 -0.4617 -0.3062
 4220W        W47273   3.793   8.647  18.057  0.0276 -0.2910 -0.1604
 4221W        W47274  17.589  18.998  25.234  0.4262 -0.1461 -0.1898
 4222W        W47275   4.343   2.589   4.096 -0.3258  0.2601  0.0012
 4223W        W47276  26.577  16.032   4.256  0.3274  0.1012 -0.0697
 4224W        W47277  23.843  14.904  19.436  0.2707  0.0128  0.1269
 4225W        W47278   9.310  28.527   0.397 -0.0647  0.1143 -0.0338
 4226W        W47279  32.700  17.831   4.979 -0.1515 -0.0341  0.2989
 4227W        W47280  18.373  31.151  27.842  0.0977 -0.0589  0.0254
 4228W        W47281  22.645  16.644   0.729 -0.1349 -0.2478  0.1538
 4229W        W47282  16.294  20.268   8.130  0.0436 -0.0213 -0.1691
 4230W        W47283   4.349  17.938  25.959  0.0364  0.1489 -0.1586
 4231W        W47284  12.130   2.776   4.008 -0.1782 -0.1535 -0.1758
 4232W        W47285   3.161   3.550   1.419  0.1931  0.1126 -0.3726
 4233W        W47286  24.028  13.720   5.125 -0.1910 -0.2113  0.1520
 4234W        W47287  21.057  29.780   0.235  0.1105 -0.2835  0.1123
 4235W        W47288  22.681  13.834   6.028  0.2979 -0.1492 -0.0434
 4236W        W47289  25.703  16.600   8.798 -0.0377  0.0222  0.3347
 4237W        W47290  19.601   6.814   4.516  0.0860 -0.1242 -0.0037
 4238W        W47291  21.381  20.028   4.774  0.0304  0.0591 -0.1701
 4239W        W47292  19.387  18.112   3.840  0.2950  0.3916 -0.0504
 4240W        W47293   9.562  20.786   8.140 -0.1301 -0.0469 -0.0714
 4241W        W47294  16.976  27.641   1.861  0.3041  0.0522 -0.3321
 4242W        W47295  11.022  29.465   2.066  0.0451  0.1394 -0.1300
 4243W        W47296  28.077  31.277   0.541 -0.0963  0.2013  0.1876
 4244W        W47297  16.367   4.114   0.274  0.0442 -0.0421  0.1335
 4245W        W47298  13.938  25.326   9.208 -0.1670  0.4370 -0.1227
 4246W        W47299  21.457  28.758   4.732 -0.0388 -0.0938 -0.0471
 4247W        W47300  24.500  22.489   8.631 -0.2571 -0.0187  0.1384
 4248W        W47301  22.811  28.313   5.052 -0.0861 -0.0659  0.0586
 4249W        W47302  16.559   9.377  28.426  0.2368 -0.2383  0.2319
 4250W        W47303  14.895  17.560   8.624  0.0228  0.2990  0.0645
 4251W        W47304  17.805  25.342  27.280 -0.1123 -0.3397  0.0750
 4252W        W47305  17.292   8.901   1.190 -0.2943  0.2852  0.0540
 4253W        W47306  12.981   8.616   6.185  0.0727  0.0997 -0.1298
 4254W        W47307  24.721  24.630   9.179 -0.0018 -0.2562  0.4369
 4255W        W47308  15.837  17.394   0.061 -0.0525 -0.2618 -0.0835
 4256W        W47309  18.397  28.702   0.765 -0.1657  0.1405  0.0227
 4257W        W47310   8.862  12.147   9.807 -0.2507  0.1115  0.1107
 4258W        W47311  28.043  13.179   5.988  0.1573  0.3017  0.0167
 4259W        W47312   8.822  18.644   0.739 -0.2608 -0.0813 -0.0529
 4260W        W47313  24.470   8.958   8.236  0.0501  0.3055  0.0129
 4261W        W47314  14.853  22.514   9.659  0.4870 -0.1009 -0.1633
 4262W        W47315  20.765   0.516   4.568 -0.0291  0.2391  0.0116
 4263W        W47316  10.783  17.298  25.946 -0.1359 -0.2763  0.0636
 4264W        W47317   3.809  19.253   7.057  0.0166  0.1779  0.3979
 4265W        W47318   6.857  25.813   2.876 -0.0846  0.2223  0.1162
 4266W        W47319   6.553  10.619   3.325 -0.0185 -0.1139  0.1929
 4267W        W47320  18.311  21.045   4.760 -0.2192  0.5665  0.0400
 4268W        W47321   6.877  24.590  28.776  0.0531  0.2380  0.1595
 4269W        W47322  31.249  31.353   8.210  0.0739  0.1486  0.0180
 4270W        W47323  13.964  11.980   7.531 -0.2215  0.1751 -0.3045
 4271W        W47324  20.390  20.824   2.047  0.0646 -0.2323 -0.1048
 4272W        W47325  19.166  16.334   2.173 -0.0148 -0.0002 -0.1553
 4273W        W47326  18.364  25.834   4.143 -0.1297 -0.0340  0.3001
 4274W        W47327  11.565  15.138   1.158  0.2031 -0.0691  0.0791
 4275W        W47328   8.176  16.691   0.196  0.1420 -0.0879  0.1019
 4276W        W47329  12.615  16.853   9.667 -0.0218 -0.1741  0.0592
 4277W        W47330   9.211  17.787   5.429  0.2213 -0.0584 -0.1882
 4278W        W47331  12.667  12.324   8.078  0.1022  0.2331  0.3726
 4279W        W47332  19.241  25.118   8.771 -0.0206 -0.0689  0.0682
 4280W        W47333   7.030  25.345   4.317 -0.2854  0.0993 -0.2464
 4281W        W47334  19.656  13.861   6.673  0.1725 -0.0419 -0.1511
 4282W        W47335  33.841   8.016   5.162 -0.3009 -0.3138  0.1010
 4283W        W47336  17.626  24.768  10.214 -0.2151  0.3825 -0.1281
 4284W        W47337  14.222  10.600  10.105 -0.0295 -0.1549  0.0391
 4285W        W47338  25.785  28.444   2.045 -0.2721  0.2445  0.1907
 4286W        W47339   9.927  25.943   3.676  0.0510 -0.2468 -0.2382
 4287W        W47340   9.591  15.195   5.189  0.2693 -0.2438  0.1588
 4288W        W47341   3.396  20.510  21.934 -0.2615  0.0140 -0.0494
 4289W        W47342  16.743  19.631  22.934  0.0036  0.2665 -0.0281
 4290W        W47343   7.731  15.377   8.499  0.3595  0.4747 -0.2039
 4291W        W47344  13.821  20.430   9.187  0.3751 -0.3190  0.0187
 4292W        W47345  15.430  20.343   7.675  0.0809 -0.0500 -0.0875
 4293W        W47346  14.229  21.476   1.657  0.2517 -0.1388 -0.2928
 4294W        W47347  17.731  11.662   8.887 -0.1109 -0.3635 -0.2660
 4295W        W47348  23.595  19.208  16.209  0.1496 -0.1433  0.1042
 4296W        W47349  24.201  25.542   9.072  0.1670  0.2344 -0.3272
 4297W        W47350  25.433  22.757   1.465  0.0253  0.1478  0.2099
 4298W        W47351  24.269   0.031   5.199  0.0204 -0.3825  0.0289
 4299W        W47352   2.156  17.333   4.990 -0.0877  0.0996 -0.3382
 4300W        W47353  24.960   0.784   2.705  0.1313 -0.1367 -0.1849
 4301W        W47354  15.155  28.357  21.788  0.2032 -0.0498  0.1722
 4302W        W47355   8.043   6.465   3.923 -0.0840 -0.1226 -0.1864
 4303W        W47356   5.563  24.311  28.199  0.0485  0.1482 -0.0388
 4304W        W47357  10.333  27.137   3.660  0.2336 -0.0998  0.0950
 4305W        W47358  12.584  20.882   5.268 -0.0686  0.1230  0.0962
 4306W        W47359  30.951   7.757  27.093  0.2282 -0.0161 -0.0385
 4307W        W47360  25.242   7.014   6.126  0.0413 -0.1182  0.4221
 4308W        W47361  14.072  16.121   1.369  0.2961  0.3463  0.0521
 4309W        W47362  19.982  28.994   9.824 -0.0563 -0.0070  0.2283
 4310W        W47363  10.972  22.700   7.114 -0.1547  0.2096  0.2162
 4311W        W47364  24.116   8.902   2.624 -0.2186 -0.0422 -0.0012
 4312W        W47365  14.796   6.506   8.734  0.2743  0.0917  0.1557
 4313W        W47366  29.605  16.721  10.143  0.2309 -0.3137  0.0448
 4314W        W47367  14.623  16.734   2.826 -0.0675  0.1506  0.2043
 4315W        W47368  28.337  14.353   8.156 -0.2407 -0.2484 -0.3046
 4316W        W47369  20.243  18.823   0.948  0.2180 -0.3412 -0.4347
 4317W        W47370   8.425  16.776  27.051  0.3196 -0.0011  0.3127
 4318W        W47371   8.867   7.335   2.438  0.0486 -0.1161 -0.0030
 4319W        W47372  16.504  15.871   3.007  0.5117 -0.2641  0.0672
 4320W        W47373   8.365   6.620   9.622 -0.1172  0.1982 -0.3095
 4321W        W47374   6.735  16.966  18.468 -0.0832  0.0936  0.0236
 4322W        W47375  17.198  15.110   5.734 -0.1159  0.2687  0.1495
 4323W        W47376  19.259  19.806  28.365 -0.0317  0.0416  0.0090
 4324W        W47377  30.059  20.586   1.516 -0.0448 -0.1328 -0.3383
 4325W        W47378   1.519  30.570  22.237  0.1583  0.0428  0.1562
 4326W        W47379  18.282  27.907   0.971 -0.2844  0.0001  0.1099
 4327W        W47380  31.182  27.407  26.071  0.1366 -0.0772 -0.1280
 4328W        W47381  20.968  14.896   4.651  0.0280 -0.1037 -0.0255
 4329W        W47382   2.618  21.040  21.879  0.1646  0.0305 -0.3740
 4330W        W47383   1.797  23.186  27.883  0.2154 -0.0238 -0.3216
 4331W        W47384  30.121  16.773   8.620 -0.2119  0.1661 -0.2166
 4332W        W47385  23.316  21.097  26.165 -0.3255  0.0086  0.0937
 4333W        W47386  10.996  24.644   9.296  0.1212 -0.1283  0.4660
 4334W        W47387  19.431  25.654   7.361  0.0113 -0.0497  0.2495
 4335W        W47388   7.233  16.738   5.991  0.0094  0.0507  0.0453
 4336W        W47389   7.294   9.347  10.126  0.3061  0.0063 -0.0919
 4337W        W47390   5.112  21.444  27.733 -0.0013  0.3767  0.0436
 4338W        W47391  10.925  31.398  28.857  0.0890 -0.1859 -0.0130
 4339W        W47392  19.286   9.134  18.933  0.0775  0.1910  0.1487
 4340W        W47393  18.867  24.750  27.165 -0.0310  0.2194  0.1612
 4341W        W47394   5.198  27.915   6.700 -0.0235 -0.1640  0.0332
 4342W        W47395  32.419  23.218   6.264 -0.2202 -0.0696 -0.1089
 4343W        W47396  21.122  16.429   8.693 -0.3734 -0.1412 -0.1168
 4344W        W47397  21.664   8.531  23.414  0.2745  0.2008  0.1577
 4345W        W47398  20.144  18.237   2.268 -0.1321  0.0559  0.0910
 4346W        W47399  12.269  17.558   7.996 -0.2452 -0.2780 -0.1282
 4347W        W47400   8.826  18.875   3.691  0.0942  0.0398 -0.2062
 4348W        W47401  10.293  19.702   9.101 -0.3125  0.0462 -0.1264
 4349W        W47402  14.500  25.454   7.481 -0.0771 -0.0149 -0.2101
 4350W        W47403   7.785  11.780  25.806 -0.1241 -0.0820 -0.3123
 4351W        W47404  12.153   9.299   7.053  0.0976  0.2297 -0.3438
 4352W        W47405  34.608  33.733  25.631  0.3069 -0.2050  0.0875
 4353W        W47406  25.088  13.377   4.477  0.1311 -0.1439  0.0328
 4354W        W47407   8.392  30.639   7.783 -0.0591  0.2046  0.2848
 4355W        W47408   8.577  22.878   2.077  0.3029 -0.0082  0.0492
 4356W        W47409  31.224  14.702   6.626 -0.0192  0.2391  0.0040
 4357W        W47410  20.942  21.842   2.339  0.0992  0.1711  0.0459
 4358W        W47411  34.190  24.570   1.423 -0.0991  0.3111  0.0890
 4359W        W47412  26.235  29.455   6.190  0.3599 -0.2788  0.0892
 4360W        W47413   9.665  28.539   3.623  0.0691 -0.1772 -0.0347
 4361W        W47414   1.813  11.075   8.476 -0.0394  0.1854 -0.0113
 4362W        W47415  26.317  21.616  26.578 -0.1783  0.2434 -0.2742
 4363W        W47416  17.208  11.437   2.388 -0.1579 -0.0353  0.2759
 4364W        W47417  12.019  14.622   4.229 -0.0843  0.2200 -0.0006
 4365W        W47418  12.204   8.565   4.629 -0.2254  0.0299 -0.3917
 4366W        W47419  26.813  20.094  26.840 -0.1515 -0.2421 -0.0616
 4367W        W47420  10.481   6.763   8.508  0.1007  0.4108  0.3192
 4368W        W47421  11.824  19.241   5.720 -0.0342 -0.1233 -0.0028
 4369W        W47422  10.147   0.341   1.274  0.0851  0.1135 -0.1359
 4370W        W47423  11.607  20.452  24.571 -0.1671  0.0346 -0.1081
 4371W        W47424   0.381   4.439  27.231  0.1420 -0.2088  0.2365
 4372W        W47425  30.912  29.290   3.503 -0.0018  0.5043  0.2583
 4373W        W47426  16.272  34.643  15.400  0.0708 -0.0781  0.0173
 4374W        W47427  32.897  17.162   8.430 -0.0110 -0.0404 -0.1732
 4375W        W47428  12.106  16.467   5.258 -0.3698  0.0444  0.2188
 4376W        W47429  23.429  23.743   5.068  0.1476 -0.1916 -0.0310
 4377W        W47430   9.642   1.282  25.663 -0.2362 -0.2380  0.2897
 4378W        W47431  29.304  16.509   7.982  0.2616 -0.5431  0.1671
 4379W        W47432  17.792  22.205   4.823 -0.1834 -0.2728 -0.1975
 4380W        W47433   6.996  17.717   8.819  0.1240 -0.0069  0.0023
 4381W        W47434  22.940  26.610   4.899  0.2137  0.3085  0.4205
 4382W        W47435  19.001  21.329   4.322 -0.1683 -0.0927  0.1653
 4383W        W47436  17.477  14.342   3.369  0.2670 -0.1453  0.2061
 4384W        W47437  24.112  19.256   7.229  0.0353 -0.2191  0.2279
 4385W        W47438  20.403   8.665   4.892  0.3100 -0.0514 -0.0045
 4386W        W47439  17.160  21.654   8.934  0.0096 -0.4048  0.3253
 4387W        W47440  24.652  22.677   3.110  0.0576 -0.1906  0.1984
 4388W        W47441   8.570  12.074   3.812 -0.0798  0.1924  0.3771
 4389W        W47442  21.126  15.652   9.912 -0.0719  0.3572  0.2141
 4390W        W47443  27.813  26.770   7.561  0.0321  0.1425 -0.1656
 4391W        W47444   5.553  20.382   4.918 -0.0458  0.0087 -0.0821
 4392W        W47445  12.156  22.201   7.717 -0.0758  0.1560  0.3261
 4393W        W47446   0.046  18.164   7.376 -0.1076 -0.1898  0.0166
 4394W        W47447  29.075  33.333  28.386 -0.0374  0.0574 -0.0844
 4395W        W47448  17.795  17.002   5.279 -0.0677 -0.2145  0.2973
 4396W        W47449   7.065  17.861  28.463 -0.2282 -0.1025  0.1242
 4397W        W47450  21.404  15.515  24.047  0.0843 -0.0387  0.4797
 4398W        W47451  10.347  26.017  26.518  0.1357 -0.1930 -0.0501
 4399W        W47452  11.161  27.612   7.379 -0.0890  0.1911 -0.0848
 4400W        W47453  14.547  20.676   3.371 -0.3895  0.0552 -0.1171
 4401W        W47454  24.108  13.271   1.412  0.0204  0.1424  0.0648
 4402W        W47455  14.386  18.313   8.297  0.0632  0.1008 -0.1113
 4403W        W47456   0.749  24.160   1.616  0.0157  0.0077 -0.1304
 4404W        W47457  27.978  19.756   7.480 -0.0967 -0.5470  0.1554
 4405W        W47458  22.885  23.975  10.403 -0.2325  0.0217 -0.1028
 4406W        W47459   8.781   9.005   6.053  0.5175  0.1976  0.0420
 4407W        W47460  23.198  32.535   4.276  0.4408  0.0215  0.1257
 4408W        W47461   7.623  17.092   3.524  0.2516 -0.1166 -0.0602
 4409W        W47462  18.306  22.466   4.151 -0.0205  0.2753 -0.4356
 4410W        W47463  25.878  28.322  27.758 -0.0951 -0.2138  0.0459
 4411W        W47464  31.849  25.369   7.004 -0.3874  0.0927  0.0447
 4412W        W47465  15.585   5.600   6.830 -0.0494  0.2358 -0.0495
 4413W        W47466   9.646  18.866   3.948 -0.0758  0.1371  0.1980
 4414W        W47467   8.216  26.431  28.642 -0.2764 -0.1975  0.2524
 4415W        W47468   1.428  11.428   7.802  0.2258 -0.1694  0.1789
 4416W        W47469   9.032  12.293   3.590 -0.1971 -0.0904  0.1213
 4417W        W47470  21.793  17.647   7.226  0.0058 -0.0608 -0.1244
 4418W        W47471  15.795  18.630   8.752  0.4475  0.1476  0.1385
 4419W        W47472  30.057  24.189   7.489 -0.0344 -0.0729  0.1587
 4420W        W47473  16.796  10.311  28.144  0.0519 -0.2713  0.0852
 4421W        W47474  14.192  12.878   9.474  0.0937 -0.0223 -0.0161
 4422W        W47475  15.807   1.966   0.005  0.1273  0.0455  0.0680
 4423W        W47476  13.284  21.369  24.595  0.1944  0.0339 -0.0392
 4424W        W47477  16.096  16.200   3.905  0.1118  0.1358 -0.0550
 4425W        W47478  11.503  19.518   1.953 -0.1023  0.2396 -0.1968
 4426W        W47479  18.129  30.257  28.495 -0.2318 -0.0962 -0.0585
 4427W        W47480  13.091   6.059   6.504 -0.3937  0.1313  0.0978
 4428W        W47481  12.322  17.917   2.376 -0.0304 -0.0676  0.0167
 4429W        W47482   2.084  13.709   2.778 -0.1383  0.1051  0.1232
 4430W        W47483   8.002  19.267   7.186 -0.3645 -0.1486 -0.1267
 4431W        W47484  17.337   1.414  20.437 -0.2395  0.0517  0.1322
 4432W        W47485   7.792  30.246   2.624  0.1898 -0.0675 -0.4623
 4433W        W47486  27.875  21.365   8.342 -0.0010 -0.3019  0.0524
 4434W        W47487   2.516  24.237   1.318 -0.2728 -0.0337 -0.0858
 4435W        W47488   6.148  25.166   0.459  0.1449 -0.1942 -0.0278
 4436W        W47489  17.926  34.613   9.370  0.2281  0.0696 -0.0076
 4437W        W47490  11.014   7.554   9.514  0.1414  0.0880  0.0383
 4438W        W47491  28.489  16.540  27.840 -0.0002 -0.1281  0.0879
 4439W        W47492  24.474   7.171  26.567  0.1899  0.1736  0.1079
 4440W        W47493  27.597  21.005  27.738 -0.2523  0.2921 -0.2871
 4441W        W47494   3.362  27.510   3.339 -0.0098 -0.1600  0.0471
 4442W        W47495  17.122  19.496   3.827  0.1318  0.2653  0.0524
 4443W        W47496  21.734   0.735   7.464 -0.2535  0.1813  0.1584
 4444W        W47497   1.731  26.621   4.804 -0.2123 -0.1683  0.1331
 4445W        W47498   6.204  22.057   9.138 -0.4024 -0.0374  0.0678
 4446W        W47499   6.379  30.416   4.861  0.0095  0.0569  0.0516
 4447W        W47500  15.764  16.160   7.089  0.1815  0.0132  0.1554
 4448W        W47501   9.911  17.112  22.630 -0.0081 -0.0183 -0.2288
 4449W        W47502  15.492  22.388  20.363  0.1409  0.0901  0.0350
 4450W        W47503   6.508  22.064  10.027  0.0064 -0.3382 -0.0025
 4451W        W47504  30.626  10.625  24.339 -0.3290  0.1554 -0.1033
 4452W        W47505  25.125   4.365   3.249  0.1493 -0.0032  0.2691
 4453W        W47506   3.533  12.559   9.083  0.3396 -0.3337 -0.1989
 4454W        W47507  31.610  31.061   3.926 -0.0422 -0.1475  0.2364
 4455W        W47508  32.492  33.140   5.440 -0.0597 -0.0318  0.3614
 4456W        W47509  27.595  20.075  27.949  0.0305  0.1238  0.3567
 4457W        W47510   7.804  21.909   8.049  0.1651 -0.2480 -0.1550
 4458W        W47511  22.371  20.227   8.202 -0.2703  0.0609  0.0886
 4459W        W47512  33.011   1.506   9.428  0.0145  0.0918 -0.0303
 4460W        W47513   4.803   6.565   8.110  0.1145  0.2108  0.2351
 4461W        W47514  14.503  24.250   3.350 -0.2535 -0.3465  0.2347
 4462W        W47515   5.257   0.804  15.486 -0.0333 -0.1263  0.0665
 4463W        W47516  20.087  27.317  24.597 -0.3728 -0.3244  0.2553
 4464W        W47517  25.445  30.879  28.081  0.1752 -0.0153  0.2327
 4465W        W47518   3.531   2.348   5.672  0.1455  0.0374 -0.3168
 4466W        W47519  28.093  23.109  29.056 -0.2836 -0.0730  0.1900
 4467W        W47520  17.603  15.660  26.793 -0.1324 -0.2520 -0.3962
 4468W        W47521  30.990  27.668   0.038  0.0318 -0.1680 -0.1101
 4469W        W47522  11.213  16.544   3.339  0.3199 -0.2273  0.0737
 4470W        W47523  23.909  22.478   4.787 -0.3971  0.1695 -0.1823
 4471W        W47524  14.203  29.815   8.336  0.0566  0.1834  0.2216
 4472W        W47525   9.845  23.252   7.392 -0.1190 -0.4467 -0.3200
 4473W        W47526  20.505   5.416   0.482  0.0083  0.0054  0.0380
 4474W        W47527  21.491   4.535  20.002  0.0015  0.0381  0.2129
 4475W        W47528  20.651  25.854   9.055 -0.1534  0.1884 -0.0195
 4476W        W47529  28.678  18.861  10.594 -0.2617 -0.0218 -0.0089
 4477W        W47530   8.523  22.684  25.912 -0.1506  0.1923 -0.1727
 4478W        W47531  16.797  20.948  21.990 -0.3763 -0.1574 -0.0049
 4479W        W47532  20.806  21.944  28.561 -0.1631  0.0881 -0.2115
 4480W        W47533   7.765   4.706  21.801 -0.1191 -0.0565 -0.1139
 4481W        W47534  14.061  24.494   3.504  0.0206  0.0878 -0.0890
 4482W        W47535  19.471  17.011  26.878  0.1307 -0.0746 -0.2693
 4483W        W47536  11.498  20.546   7.012 -0.1067  0.0460 -0.2416
 4484W        W47537  18.391  24.554   9.665  0.1164 -0.4460  0.0041
 4485W        W47538  11.566  11.729   2.422  0.0092  0.0309  0.3737
 4486W        W47539  19.360  33.530   5.199 -0.2274  0.2942  0.2126
 4487W        W47540   8.877  21.954  27.954  0.3655  0.2353  0.0499
 4488W        W47541  16.101  18.834   1.507  0.1360 -0.4274  0.3197
 4489W        W47542  25.898  29.333   4.113 -0.0128 -0.1680 -0.3212
 4490W        W47543  11.677  18.016  28.545  0.0437  0.1493 -0.0830
 4491W        W47544  26.153   2.970   4.813  0.1581 -0.1378  0.0988
 4492W        W47545  16.552  25.834   0.503 -0.4888 -0.2443  0.0383
 4493W        W47546  26.994  13.062   0.911  0.0074  0.1290 -0.2272
 4494W        W47547  13.032  21.041   9.395  0.2072  0.0623 -0.1069
 4495W        W47548  17.950  32.962   5.483  0.0348 -0.1658  0.2693
 4496W        W47549   5.264  19.919  22.847  0.0568 -0.0902  0.3130
 4497W        W47550  33.235  19.075   0.269 -0.1237 -0.0701 -0.2889
 4498W        W47551  18.886  30.405   9.132  0.2317 -0.0944 -0.1211
 4499W        W47552  10.399  14.099   5.084 -0.3762  0.0237 -0.0080
 4500W        W47553   9.442  24.775  26.419  0.0248  0.0439 -0.0270
 4501W        W47554  10.920  11.815   0.840  0.1764  0.0443  0.3334
 4502W        W47555  19.097  22.396   9.285 -0.0295 -0.1593  0.2373
 4503W        W47556  15.825  15.376   7.857 -0.5302 -0.2152 -0.0240
 4504W        W47557  18.791  31.926   5.271 -0.1813 -0.0002  0.0474
 4505W        W47558  32.286   5.188  17.923  0.1729 -0.3792  0.1220
 4506W        W47559  23.003  24.899  16.290  0.2052  0.3030  0.0626
 4507W        W47560  27.675  32.836  28.466  0.1713 -0.0586  0.2714
 4508W        W47561   4.083  32.252   6.944 -0.0494 -0.1882 -0.1548
 4509W        W47562  14.386  24.588   4.268  0.0217 -0.1582  0.0340
 4510W        W47563   9.877  20.525   8.524 -0.0623 -0.1448 -0.1727
 4511W        W47564   4.281  22.743  24.682  0.1063  0.2084 -0.4202
 4512W        W47565   8.185  22.825   3.713  0.0381 -0.2592 -0.2978
 4513W        W47566  17.199  23.025   8.438  0.2294 -0.1208 -0.1062
 4514W        W47567   1.365  20.645   2.924  0.0101 -0.0873  0.3232
 4515W        W47568  12.957  26.003   7.171 -0.1332 -0.2078  0.0239
 4516W        W47569  12.329   6.320  28.830 -0.3403 -0.2247  0.1315
 4517W        W47570  19.156  21.314   6.990 -0.0435  0.0581  0.0812
 4518W        W47571   8.508   6.202   4.884 -0.1339 -0.0239  0.1719
 4519W        W47572   9.412  16.058   2.268 -0.0496  0.1800  0.0881
 4520W        W47573  22.112  17.231   2.064 -0.3182  0.0225  0.1956
 4521W        W47574  24.710  32.486   3.682 -0.1849 -0.1235  0.2579
 4522W        W47575  18.873   1.736  14.003  0.1088 -0.0008 -0.2719
 4523W        W47576   8.708  22.039   9.135  0.1189  0.0035  0.1864
 4524W        W47577  21.711   7.906   4.747  0.4214 -0.2455 -0.1729
 4525W        W47578  28.885  20.658   0.531  0.1593 -0.3567  0.1839
 4526W        W47579  13.469  20.048   9.870 -0.0853 -0.2488  0.1067
 4527W        W47580  12.043  27.010   2.781 -0.1258  0.2185  0.0932
 4528W        W47581  15.010  16.893   5.961 -0.3437  0.2457  0.1607
 4529W        W47582   5.497  12.233  28.074  0.1536 -0.3011 -0.0582
 4530W        W47583   6.487  13.144   0.846  0.0890 -0.1789 -0.2878
 4531W        W47584  29.702   3.256   3.660 -0.1789  0.0291 -0.2599
 4532W        W47585  30.039  19.352  24.271  0.0428 -0.3639 -0.0912
 4533W        W47586  10.835  31.534   8.990 -0.0217 -0.2508 -0.0556
 4534W        W47587  15.976   7.738  15.263  0.0401 -0.0793  0.3396
 4535W        W47588  20.084   6.861   6.894  0.2603  0.0092  0.2355
 4536W        W47589  33.117  22.797  25.320 -0.0072  0.1833  0.0133
 4537W        W47590  28.358  25.948   4.055  0.2266  0.0146  0.2143
 4538W        W47591  22.679  18.538  27.968 -0.0207 -0.0209  0.0205
 4539W        W47592  26.401  29.006   2.997 -0.0819  0.0215 -0.0152
 4540W        W47593  16.962  23.502  25.983  0.0478 -0.0676 -0.1244
 4541W        W47594  18.729  25.851   9.755 -0.0132  0.0423  0.2430
 4542W        W47595  12.068  31.273   6.730 -0.0241 -0.1165  0.3076
 4543W        W47596  30.539  15.423   4.757 -0.0201  0.2887  0.5130
 4544W        W47597  14.239  26.060   2.602  0.1607  0.1305 -0.0334
 4545W        W47598  30.136  27.024  28.621 -0.2046  0.1018 -0.1828
 4546W        W47599  19.093  18.276   5.526  0.0472 -0.0158 -0.0078
 4547W        W47600  15.079   3.238  27.797  0.0331 -0.0211 -0.0533
 4548W        W47601  22.964  31.643   4.699 -0.0572 -0.2113 -0.2037
 4549W        W47602  21.896  26.051   8.752 -0.2428 -0.1302 -0.1017
 4550W        W47603  24.822  12.928   2.240 -0.5376  0.0105  0.1335
 4551W        W47604  18.950  18.271  23.290  0.0294  0.1134  0.4133
 4552W        W47605  24.055  29.403   4.891 -0.0021 -0.1382 -0.0733
 4553W        W47606  18.517  13.226  28.421 -0.3894 -0.2151 -0.1164
 4554W        W47607  11.080  27.993   8.738 -0.1915 -0.0210 -0.2077
 4555W        W47608  21.103  26.144   8.395 -0.1810  0.1068 -0.0839
 4556W        W47609   4.191  15.013  29.085  0.1988  0.0983 -0.0035
 4557W        W47610  25.608  13.991   6.834  0.2888 -0.0681  0.0988
 4558W        W47611  16.610  22.684  18.579 -0.0843 -0.1319 -0.3175
 4559W        W47612  20.411  23.683  10.120  0.0027  0.2022  0.1751
 4560W        W47613   4.322   6.533  23.883 -0.1002  0.0211 -0.1368
 4561W        W47614  21.332  16.759   4.436 -0.2116 -0.2856 -0.0462
 4562W        W47615  12.958  21.767   6.184  0.3267  0.3261 -0.0097
 4563W        W47616  21.480   0.627   5.171  0.1434  0.2685 -0.1066
 4564W        W47617  18.802  32.141  10.773 -0.1070  0.0045  0.0708
 4565W        W47618  11.362  27.696  16.036 -0.3223  0.0079  0.3803
 4566W        W47619   8.278  22.038   0.943 -0.1479  0.1535 -0.3870
 4567W        W47620   7.253  32.317   2.181 -0.0227  0.0018  0.1557
 4568W        W47621   6.090  20.819  27.035 -0.3477  0.0418 -0.0852
 4569W        W47622  34.484  19.478  26.178 -0.0378 -0.1059  0.1346
 4570W        W47623  12.423  25.047  29.037  0.0954 -0.3406  0.1189
 4571W        W47624  19.461  16.766   5.905  0.1595  0.2653  0.0631
 4572W        W47625  12.096  31.449   3.726 -0.0045  0.0172 -0.0021
 4573W        W47626  30.664  17.296   0.575 -0.2193  0.3981 -0.0833
 4574W        W47627   6.631  27.089   7.162  0.1770  0.4547 -0.1373
 4575W        W47628  19.503   6.690  25.480 -0.1863  0.1037 -0.0827
 4576W        W47629  17.905  21.356  23.624  0.1754 -0.3408  0.1676
 4577W        W47630  32.794  22.557  23.788  0.2242  0.0777 -0.2332
 4578W        W47631  18.926  18.896  24.026 -0.0093  0.0596 -0.0984
 4579W        W47632  17.605  16.499   8.462 -0.0305 -0.4447 -0.1569
 4580W        W47633  22.868  21.242   4.431  0.2610 -0.0145  0.0441
 4581W        W47634  14.729   9.424   6.664  0.1404 -0.2138 -0.0832
 4582W        W47635  24.498  22.745  26.675 -0.2624 -0.1209 -0.0060
 4583W        W47636  31.324  33.208   7.830 -0.1127 -0.0912  0.1567
 4584W        W47637  21.580  12.259   0.724 -0.0713 -0.0854  0.0407
 4585W        W47638   6.173   4.151   6.051 -0.0259 -0.1696 -0.2177
 4586W        W47639   9.129   1.483   3.549 -0.0159 -0.0010  0.0079
 4587W        W47640  28.296  23.390   9.681  0.1910 -0.2422 -0.1852
 4588W        W47641  12.710  26.748   8.608 -0.0836  0.0394 -0.1389
 4589W        W47642  19.662  23.280   5.377 -0.1123 -0.1723  0.0089
 4590W        W47643  16.045  24.489  27.061  0.1737 -0.0457  0.1116
 4591W        W47644  18.994  23.938   7.083 -0.1486 -0.1430 -0.0662
 4592W        W47645  15.040  13.085   1.868  0.0347  0.1650 -0.2205
 4593W        W47646  31.455  27.068  20.446  0.2779  0.0569  0.0492
 4594W        W47647   7.174  23.220   0.773 -0.0383  0.0434 -0.3246
 4595W        W47648  23.434  22.888  22.913  0.0074 -0.1060  0.0791
 4596W        W47649   6.605  26.342   8.497 -0.0850 -0.2611 -0.0845
 4597W        W47650  16.099  32.007   5.066  0.0439 -0.3250 -0.1154
 4598W        W47651   9.032  19.534   9.065 -0.1774  0.2860  0.0468
 4599W        W47652  18.224  15.289   0.085  0.2880 -0.2699  0.3731
 4600W        W47653  19.867  16.039  25.406 -0.1821 -0.1595  0.2787
 4601W        W47654  11.959  17.926   6.114  0.4040  0.0259 -0.1496
 4602W        W47655  18.500  23.486   8.490 -0.0852 -0.4018  0.0308
 4603W        W47656  12.748  21.197   8.888  0.2402  0.2386 -0.2608
 4604W        W47657  23.785  29.944   7.243 -0.2544  0.2073  0.0653
 4605W        W47658  17.075  19.867   1.536  0.0878  0.3061 -0.1336
 4606W        W47659   3.437  19.659   3.289 -0.0875 -0.2965  0.0710
 4607W        W47660  14.409  25.681  19.298  0.0472  0.0631  0.1240
 4608W        W47661  19.287  20.892   7.305  0.1461  0.1321  0.2148
 4609W        W47662  15.264   1.699   3.668  0.1442  0.0850  0.2297
 4610W        W47663   7.490  10.898  19.083 -0.0866  0.1882  0.0835
 4611W        W47664  10.668  16.280   8.097  0.1626  0.2603 -0.1709
 4612W        W47665  23.049  13.848   9.272  0.0481  0.0901  0.0559
 4613W        W47666  18.662   1.106  25.212 -0.2640  0.1684 -0.0577
 4614W        W47667  21.142  33.655  25.457  0.1537  0.0911 -0.0005
 4615W        W47668  22.491  19.338   5.549  0.1382  0.1138 -0.2407
 4616W        W47669  27.176  25.276   0.389 -0.2844  0.0312  0.2881
 4617W        W47670  22.487  17.988   6.047 -0.1716 -0.2646  0.0183
 4618W        W47671  30.042   7.498  22.171 -0.2052  0.0613  0.1636
 4619W        W47672   8.296  12.708   7.378  0.1377 -0.1563  0.0849
 4620W        W47673  21.504  18.198  24.253  0.2087 -0.3386 -0.1547
 4621W        W47674  20.261  10.207  26.227  0.1117 -0.2215  0.0343
 4622W        W47675  24.254  26.891   3.252 -0.0073 -0.0818 -0.0373
 4623W        W47676  11.079  28.130   4.649 -0.3118  0.0132  0.0357
 4624W        W47677   1.447  21.558  19.937 -0.1951 -0.0851 -0.1271
 4625W        W47678  18.729  28.936  10.383  0.1886  0.0115 -0.0399
 4626W        W47679  32.020  21.881   1.477  0.2383  0.0644 -0.1341
 4627W        W47680  14.649  23.248   7.485  0.0325 -0.0080  0.1450
 4628W        W47681  19.505  12.986   2.571  0.0477 -0.2180 -0.0827
 4629W        W47682  12.022  31.968   1.810  0.1495  0.0991  0.3024
 4630W        W47683  15.953  18.967  15.341 -0.2039  0.0780 -0.6798
 4631W        W47684  21.344  13.397   9.117  0.0812  0.0624 -0.1910
 4632W        W47685   2.837  15.561   7.644 -0.0906  0.1773  0.0394
 4633W        W47686   9.109  25.107   4.159 -0.2695 -0.1185 -0.1625
 4634W        W47687   8.732  23.558   9.031  0.1243 -0.1836  0.0437
 4635W        W47688  22.381  22.901  20.527 -0.0059  0.0616 -0.1348
 4636W        W47689  28.209  23.777  24.200 -0.1278 -0.2235 -0.2259
 4637W        W47690   9.274  27.252  27.511 -0.1714  0.0405 -0.0237
 4638W        W47691  22.402  30.781   8.949 -0.3122  0.0488  0.2386
 4639W        W47692  32.844  11.255   5.921  0.0130 -0.1644  0.2254
 4640W        W47693  27.866  18.886  27.036 -0.0346 -0.2044 -0.1830
 4641W        W47694  12.510  32.755   2.446 -0.1183 -0.0902 -0.0414
 4642W        W47695  26.687  26.713   5.304  0.1682 -0.3688 -0.0234
 4643W        W47696  28.150   7.040   7.284  0.1863  0.1211 -0.1567
 4644W        W47697  22.164  28.024   2.630 -0.1684  0.3718  0.4147
 4645W        W47698  21.416  15.361   4.554  0.2261 -0.0957 -0.3463
 4646W        W47699  20.488  14.501  10.014  0.3222  0.2099 -0.5558
 4647W        W47700   3.276  25.245   3.164  0.3135 -0.0668  0.1985
 4648W        W47701   8.427  20.128   9.240  0.3694  0.0199  0.0983
 4649W        W47702  24.411   2.485   9.341 -0.1645  0.1997  0.1584
 4650W        W47703  17.374   7.386  28.478 -0.0950  0.3741 -0.1909
 4651W        W47704  15.677   4.258   4.894 -0.0309 -0.2570  0.1868
 4652W        W47705   9.234  27.832  23.820  0.3018 -0.1237 -0.2598
 4653W        W47706  17.548  30.226   9.468 -0.0715 -0.3447  0.2385
 4654W        W47707   9.600   1.214   5.982 -0.1872 -0.1807 -0.0538
 4655W        W47708   7.702  30.061   2.200 -0.0558 -0.1818 -0.2426
 4656W        W47709  31.231  22.744   1.134  0.0622  0.1081 -0.2466
 4657W        W47710  21.506  17.805  24.908 -0.4197  0.2439 -0.0722
 4658W        W47711   0.948  15.872  28.081  0.2023 -0.0053  0.1376
 4659W        W47712  20.292   5.800   3.878 -0.0946 -0.0051  0.1586
 4660W        W47713  13.243  23.449  27.573  0.0446 -0.0383  0.0570
 4661W        W47714  30.901   2.046   7.551  0.1093 -0.1512  0.2281
 4662W        W47715  22.522   5.398   5.378 -0.2553  0.0290 -0.0536
 4663W        W47716  15.940   2.723  21.594  0.3045 -0.2260  0.1837
 4664W        W47717  12.788  25.785   6.102  0.2162 -0.0497  0.0772
 4665W        W47718  30.714  26.263   6.341  0.2217 -0.0730  0.3711
 4666W        W47719  17.093  26.287   4.959  0.0471 -0.2004 -0.1322
 4667W        W47720  14.227  31.499  17.814  0.5137 -0.2202  0.0302
 4668W        W47721  31.920  28.896  25.525  0.0209 -0.3217  0.1636
 4669W        W47722  34.250  23.153   2.825  0.0740 -0.1214  0.4522
 4670W        W47723   7.970  13.249   6.054 -0.0128 -0.0334 -0.1813
 4671W        W47724   5.756  32.193   4.442 -0.1858  0.0254  0.0089
 4672W        W47725  21.057  23.163  23.087 -0.0896  0.3125  0.1958
 4673W        W47726  14.499  13.402  28.573  0.3001 -0.0905  0.0458
 4674W        W47727  30.413  15.018   6.950  0.2097 -0.1045  0.1277
 4675W        W47728   2.798  13.772   3.506  0.0974 -0.0890 -0.1078
 4676W        W47729   0.766   6.306   4.659 -0.3650 -0.0170 -0.1416
 4677W        W47730  32.698  34.342  22.176 -0.1038 -0.0420  0.2664
 4678W        W47731   2.567  31.461   6.504 -0.2023 -0.0386 -0.1855
 4679W        W47732  18.878  23.860  20.269  0.1516 -0.1449 -0.1497
 4680W        W47733  19.056   3.887  25.260  0.1832 -0.0271 -0.0517
 4681W        W47734   8.126  10.854   6.085  0.0238 -0.4051  0.1604
 4682W        W47735  21.881  29.799  14.336  0.1059 -0.1634 -0.1232
 4683W        W47736   7.132   9.739  24.013 -0.0081  0.0696  0.2803
 4684W        W47737  15.680  11.905   6.544  0.0197  0.1193  0.2046
 4685W        W47738   6.812  18.847   5.692 -0.2356  0.1303  0.0006
 4686W        W47739  19.864  32.994   4.771 -0.2804  0.0043  0.0842
 4687W        W47740  18.752  25.360  25.000 -0.1719 -0.0352 -0.2281
 4688W        W47741  15.680  27.506  20.427 -0.0268  0.0358  0.0886
 4689W        W47742  29.669  23.115  28.049  0.0580 -0.0532 -0.0667
 4690W        W47743  20.914  33.257  16.538 -0.1266  0.0493 -0.0295
 4691W        W47744  22.313  20.792   9.085  0.0368 -0.0491  0.1779
 4692W        W47745  23.633  19.183  27.977 -0.0709  0.1952  0.1429
 4693W        W47746  30.310   8.618  28.323 -0.2426 -0.1293 -0.0554
 4694W        W47747  18.013  14.280   0.230 -0.0341 -0.0652 -0.3249
 4695W        W47748   4.041  28.571   5.121  0.1852  0.0339  0.0369
 4696W        W47749  14.149  30.530  24.707 -0.0187 -0.0106 -0.0197
 4697W        W47750   8.929  23.780   7.497 -0.1059 -0.0990  0.0987
 4698W        W47751  31.684  26.055  26.049 -0.0351 -0.0955  0.0688
 4699W        W47752  34.352  32.185   3.253  0.0428  0.1415 -0.2205
 4700W        W47753  32.645  21.181  23.059  0.0775  0.0989  0.1163
 4701W        W47754   9.059  16.124  29.063  0.2296 -0.0461  0.0073
 4702W        W47755  17.558  13.418   4.433 -0.2512  0.0060 -0.2487
 4703W        W47756  11.371  22.293  17.944  0.3467  0.0071  0.1146
 4704W        W47757  13.323  12.857   2.568 -0.4375 -0.0965  0.1263
 4705W        W47758  17.031   0.153   1.291 -0.1163  0.1125 -0.0538
 4706W        W47759  11.068  23.097   8.145 -0.0199  0.0682 -0.0153
 4707W        W47760  25.337  27.358   3.904 -0.1232 -0.0474 -0.0044
 4708W        W47761   3.923  33.249   9.344 -0.0455  0.0388 -0.1741
 4709W        W47762  17.525  20.515   0.494  0.0513  0.0757  0.0087
 4710W        W47763  34.487  32.840   7.119 -0.0510  0.1865  0.1124
 4711W        W47764   5.279  28.842   8.038  0.0662 -0.1824 -0.0065
 4712W        W47765  30.399  17.716   0.291 -0.1861  0.3296 -0.2184
 4713W        W47766  12.786  19.034   3.476 -0.0933 -0.1063 -0.0800
 4714W        W47767  20.658  23.245   0.176 -0.1248 -0.2962  0.2038
 4715W        W47768   9.681   9.954  20.686  0.4149  0.1165 -0.3142
 4716W        W47769   6.882  21.742   7.986 -0.0586 -0.0359 -0.1148
 4717W        W47770  19.771  19.463  25.212  0.2865 -0.0438  0.2467
 4718W        W47771  25.324  23.928  27.345 -0.0534  0.0207  0.0259
 4719W        W47772  11.380   6.508  10.856  0.1585  0.0389  0.1881
 4720W        W47773   3.702  13.996  22.625  0.0120  0.0833  0.1079
 4721W        W47774   7.650  30.773  22.821 -0.2965 -0.1498  0.0083
 4722W        W47775   0.415  31.661  26.148 -0.1009 -0.0849 -0.1007
 4723W        W47776  10.233  13.557  20.427  0.2379  0.0330 -0.0758
 4724W        W47777   4.953  28.627  25.339  0.0962  0.4070  0.3063
 4725W        W47778  29.247  29.382   1.899 -0.0502 -0.0096  0.3022
 4726W        W47779  13.979  29.185   1.037 -0.0383  0.0124 -0.3481
 4727W        W47780  23.893  21.932  23.927 -0.0823  0.1299  0.2632
 4728W        W47781  19.963  19.291   5.832  0.0932 -0.2769 -0.0034
 4729W        W47782  24.896  22.396   3.668 -0.1979  0.1563  0.2047
 4730W        W47783  13.207  29.055   2.005 -0.0445  0.1582 -0.0594
 4731W        W47784  17.830  21.264  27.676 -0.0456  0.2557 -0.0711
 4732W        W47785  12.966  28.346   8.266  0.1645  0.0135  0.0177
 4733W        W47786  11.603   9.785  10.072 -0.0094 -0.0120 -0.2731
 4734W        W47787   5.017  14.872  23.035 -0.0470  0.0648 -0.2111
 4735W        W47788  32.345  22.370   0.905  0.0504 -0.0057 -0.3281
 4736W        W47789   4.751  27.151  21.994  0.0078 -0.2284  0.1024
 4737W        W47790  17.185  15.996   5.926  0.1848 -0.0266  0.0652
 4738W        W47791  25.434  18.424   9.890  0.1904  0.2175  0.2001
 4739W        W47792  19.276  27.946   5.972 -0.0126 -0.3771  0.0731
 4740W        W47793   1.684  16.608   0.249  0.1282 -0.1822 -0.0156
 4741W        W47794  15.324  18.976  21.685  0.1259 -0.0706 -0.2329
 4742W        W47795  33.179  28.473   1.526  0.5481 -0.0951  0.3031
 4743W        W47796  17.062  13.425   9.613 -0.0922 -0.0400  0.4501
 4744W        W47797  16.908  32.835  15.044  0.2240 -0.2275  0.0168
 4745W        W47798  25.786   2.054  16.547 -0.0359  0.0556  0.3382
 4746W        W47799  23.129  25.965  29.014 -0.0939 -0.0167 -0.1130
 4747W        W47800  19.897  11.391  26.064  0.4054 -0.0812  0.5070
 4748W        W47801  27.872  26.773   2.199  0.0491  0.0080 -0.0866
 4749W        W47802  17.190  16.394  27.889 -0.0417 -0.1510  0.2133
 4750W        W47803  10.648  24.940  18.813  0.3545  0.0635 -0.0768
 4751W        W47804   9.778   7.497  26.414  0.1376 -0.2719  0.0355
 4752W        W47805   8.616   6.115  26.121 -0.0369 -0.0327 -0.0269
 4753W        W47806  17.830  27.669   2.749  0.1482  0.0071  0.0845
 4754W        W47807  29.310   6.353  22.141 -0.1653 -0.0748 -0.0305
 4755W        W47808  21.001  19.345  17.566 -0.0325  0.2650  0.0310
 4756W        W47809  10.480  30.563  19.728 -0.1810  0.0903  0.3392
 4757W        W47810  27.053  14.492  28.325  0.2115  0.0248 -0.1232
 4758W        W47811   7.761  20.191  21.352 -0.1316 -0.0772 -0.3169
 4759W        W47812  24.541  22.206   3.288  0.2399 -0.0335 -0.0346
 4760W        W47813  10.902   3.754   3.568  0.0686  0.2818  0.1821
 4761W        W47814  14.440  16.897  25.069  0.1146 -0.0652 -0.0581
 4762W        W47815  26.556  24.719   5.060 -0.4308 -0.1034  0.0633
 4763W        W47816   4.417  21.986   0.062  0.3136 -0.4917  0.0711
 4764W        W47817  32.867  32.603  25.437 -0.0080  0.2048 -0.0023
 4765W        W47818  18.882  26.318   7.862 -0.1915  0.0491 -0.3521
 4766W        W47819  20.200   0.966   5.754  0.0067 -0.0188 -0.1792
 4767W        W47820   6.173  21.081   9.347 -0.0702  0.1756 -0.1196
 4768W        W47821  29.358  14.475  17.036 -0.1184 -0.0890 -0.1011
 4769W        W47822   7.184  17.349  25.963 -0.2856 -0.4334  0.2799
 4770W        W47823   5.376  19.846   3.545  0.3471  0.4483  0.0298
 4771W        W47824  12.138  29.872   8.709  0.3073  0.3147  0.2626
 4772W        W47825   9.052  24.899   8.124 -0.4793  0.1181 -0.0536
 4773W        W47826   4.724   9.734  22.376 -0.0968  0.1865 -0.0253
 4774W        W47827  24.975  16.591  16.272 -0.1299 -0.0833  0.0928
 4775W        W47828  21.676  23.369   5.138 -0.0068 -0.1504 -0.0400
 4776W        W47829  24.422  32.904   3.823  0.1054  0.3611  0.0816
 4777W        W47830  12.871  15.545  10.387  0.1262  0.1614  0.3445
 4778W        W47831   8.726  18.091  28.332  0.0144 -0.2802 -0.0020
 4779W        W47832  21.312  23.345   3.983  0.2311  0.1797 -0.1424
 4780W        W47833  17.711  23.338   3.578  0.0550  0.1464  0.2348
 4781W        W47834  24.395  25.436  22.492  0.0293  0.3035 -0.2312
 4782W        W47835  11.923  18.197  22.769  0.2925 -0.1104  0.3649
 4783W        W47836  23.871  22.462   7.269  0.1068 -0.0256 -0.0437
 4784W        W47837  21.336  14.743   0.687 -0.2881 -0.2256  0.1648
 4785W        W47838  25.165  11.704  19.171  0.2316  0.0207  0.0412
 4786W        W47839  15.725  29.961  25.499  0.0329  0.1270  0.1718
 4787W        W47840  14.397  24.633  27.351  0.0347  0.2968 -0.1359
 4788W        W47841   2.980  28.871   3.495  0.1846  0.2494  0.0627
 4789W        W47842   2.209  32.355   3.776 -0.0385  0.3456  0.0439
 4790W        W47843  11.250  18.559   8.580  0.0261 -0.2329 -0.1155
 4791W        W47844  12.621  15.122   1.370 -0.2103 -0.0158  0.1339
 4792W        W47845  23.104  19.657  26.729  0.0262  0.1421  0.0104
 4793W        W47846   0.447  22.184   0.691 -0.2882 -0.0085 -0.1053
 4794W        W47847  19.005  13.599  24.345 -0.2121 -0.3751 -0.1519
 4795W        W47848   8.484  31.461  14.054  0.3988  0.2925  0.0970
 4796W        W47849  23.958  15.675   8.821 -0.2037 -0.2252 -0.0807
 4797W        W47850  23.672   3.237   9.493 -0.0971  0.2271  0.0087
 4798W        W47851  26.486  13.579   3.790 -0.2668 -0.1258 -0.2073
 4799W        W47852  28.393  25.634   7.731  0.4501  0.0341 -0.0053
 4800W        W47853  17.070   7.573   7.080 -0.0182 -0.2875  0.0945
 4801W        W47854   2.582  23.555   1.983  0.1911 -0.1217  0.1549
 4802W        W47855  12.916  16.970  28.059 -0.1725 -0.2915  0.1123
 4803W        W47856   5.681  23.445  27.286 -0.0707 -0.0539  0.2487
 4804W        W47857  17.844  25.083  25.512 -0.3598 -0.2025  0.0054
 4805W        W47858  25.893  21.593  24.318  0.0640 -0.1461 -0.0484
 4806W        W47859  27.959  15.514   2.319  0.0829  0.1442 -0.0261
 4807W        W47860  28.760   8.128   0.394 -0.1748  0.3157 -0.1335
 4808W        W47861  24.697   1.620  10.188 -0.0860  0.3242  0.0900
 4809W        W47862  17.938  27.858  24.380 -0.1855 -0.0841 -0.2621
 4810W        W47863  30.899   4.520  27.333  0.0255 -0.0702 -0.2270
 4811W        W47864  29.681  27.541  19.993 -0.2052  0.0572  0.1123
 4812W        W47865   6.707  23.526  20.411  0.1187 -0.0738 -0.0052
 4813W        W47866  22.725  32.150   5.591 -0.1006 -0.0725 -0.1842
 4814W        W47867  20.140  22.359  17.299  0.0561 -0.1127  0.2034
 4815W        W47868  21.163   3.028  17.211  0.0723 -0.1473 -0.1878
 4816W        W47869  11.801  18.506   8.774  0.0335  0.0532 -0.3741
 4817W        W47870  23.129  22.518   3.363 -0.0819 -0.1729  0.1704
 4818W        W47871  24.182   6.249  21.002  0.2029  0.4511 -0.1333
 4819W        W47872  22.739  15.590   2.298  0.3913 -0.1331 -0.1292
 4820W        W47873  33.190  27.997   6.755  0.0767 -0.1754 -0.0192
 4821W        W47874  18.422  32.909  27.174  0.3432 -0.0287 -0.1914
 4822W        W47875  19.389  14.947  26.581 -0.0838  0.2439 -0.2098
 4823W        W47876  24.592  25.853  20.434 -0.1544 -0.0710  0.1967
 4824W        W47877  14.037  23.906   6.259 -0.3426 -0.1052  0.0578
 4825W        W47878  16.531  19.822   8.378  0.1884  0.0740  0.0328
 4826W        W47879  18.386   1.451   1.860 -0.0642 -0.2519 -0.0617
 4827W        W47880  28.973  20.180  19.873  0.0764  0.2972 -0.0755
 4828W        W47881  21.385  31.396   4.593  0.3775 -0.1567  0.1555
 4829W        W47882   9.032  24.928   1.744 -0.1359  0.0960  0.2391
 4830W        W47883  11.279  18.966   6.372  0.2339  0.1485  0.0191
 4831W        W47884   6.254  28.227   2.425  0.1677 -0.0423 -0.0405
 4832W        W47885   2.889   2.321  28.481  0.0131 -0.2227 -0.2083
 4833W        W47886   0.630  26.411  28.768  0.1802 -0.0112  0.0371
 4834W        W47887   6.506  25.680   7.499  0.2216  0.0183  0.0760
 4835W        W47888   8.509  14.537  24.712  0.0516 -0.0946 -0.3047
 4836W        W47889  25.091  18.104  10.179  0.0558 -0.2326  0.1518
 4837W        W47890   4.360  27.396  28.922  0.2495  0.0775 -0.2125
 4838W        W47891  18.760  33.017   8.275  0.0725  0.0920  0.1037
 4839W        W47892  15.614  16.031  25.516 -0.0370  0.1444  0.1829
 4840W        W47893  10.247  22.512   8.944  0.1349 -0.2196 -0.0757
 4841W        W47894   9.452  30.757  16.979 -0.0099  0.1569  0.1218
 4842W        W47895  23.316  29.689  26.287 -0.4266 -0.1207  0.1699
 4843W        W47896   5.570  21.807   1.319 -0.0311 -0.1732  0.0020
 4844W        W47897   7.395  16.963   8.045  0.1982  0.2362  0.0513
 4845W        W47898  13.100  12.283  18.805 -0.0437 -0.1356  0.2397
 4846W        W47899  17.687  24.939  21.732  0.0506 -0.1161  0.1333
 4847W        W47900  18.155  19.641   8.096  0.0611  0.2046  0.2236
 4848W        W47901  14.407  11.980  25.453 -0.1695  0.2517 -0.5156
 4849W        W47902  31.412  27.843   8.849 -0.1128 -0.0686 -0.3456
 4850W        W47903  14.263  20.802   6.197  0.0938  0.0249 -0.0527
 4851W        W47904  24.675  14.365   6.072  0.2238  0.4384  0.0384
 4852W        W47905   5.061  19.689   5.430 -0.0904 -0.2722  0.1590
 4853W        W47906  20.218  20.255  26.717 -0.0493  0.2719  0.1974
 4854W        W47907   8.464  23.706   6.148  0.0040 -0.0957 -0.2771
 4855W        W47908  27.831   5.131  25.505  0.1558 -0.5505 -0.2048
 4856W        W47909  29.600  12.806   2.089 -0.1635  0.2176  0.2231
 4857W        W47910  12.339  31.020  14.646 -0.1489 -0.2846 -0.2189
 4858W        W47911   8.875  34.594  26.593 -0.0186 -0.1239  0.1788
 4859W        W47912  13.766  19.026  19.189  0.3313 -0.0962  0.0706
 4860W        W47913   2.178  18.923   2.541 -0.0483 -0.2910 -0.3527
 4861W        W47914  31.193  22.347  20.672  0.2172 -0.2823  0.0936
 4862W        W47915   1.156  22.806  18.489 -0.0516 -0.1168  0.0809
 4863W        W47916  26.984  22.462  21.106  0.2920 -0.0134 -0.0417
 4864W        W47917  25.863  22.036   0.774  0.0742  0.0713  0.1021
 4865W        W47918  31.336  17.347   5.229  0.3738  0.0532 -0.1921
 4866W        W47919  18.441  11.418  10.478  0.1435 -0.2286 -0.0466
 4867W        W47920  10.558  19.078   5.972  0.0595  0.1323  0.1243
 4868W        W47921  31.923  18.531  28.937 -0.0536 -0.0650 -0.1810
 4869W        W47922  34.112   0.219   7.769 -0.2062  0.1536 -0.1449
 4870W        W47923  22.877  24.123  28.439 -0.0856 -0.1049 -0.2112
 4871W        W47924  25.769  18.058   9.448 -0.2626  0.1668  0.3022
 4872W        W47925  12.025  23.719  21.117 -0.0563 -0.2816  0.1500
 4873W        W47926  17.513  22.120  28.845 -0.0045  0.2407 -0.0082
 4874W        W47927  25.421  10.621   6.507  0.3598 -0.2391 -0.1255
 4875W        W47928  21.430  22.062   8.910  0.2527 -0.0882  0.0712
 4876W        W47929   7.307  24.963  20.787 -0.2909  0.1040 -0.1206
 4877W        W47930  26.624  25.160  25.325  0.3122 -0.0203 -0.0060
 4878W        W47931  27.147  23.958  24.282 -0.3128 -0.1839  0.0872
 4879W        W47932  24.090  30.971  28.300  0.0465 -0.2734  0.2897
 4880W        W47933  16.217  22.873   5.292  0.1142 -0.0372 -0.1522
 4881W        W47934  23.021   4.064  26.978  0.1183  0.1288 -0.1630
 4882W        W47935  22.971  29.551   5.594 -0.1020 -0.1711  0.1212
 4883W        W47936  14.424  28.809   2.299 -0.2403 -0.1687  0.1584
 4884W        W47937   0.488   1.455   4.188  0.0710  0.0669  0.0544
 4885W        W47938  10.918  13.091   5.777  0.1701  0.2485  0.0088
 4886W        W47939  18.397  25.950   3.140  0.3089 -0.2057  0.3550
 4887W        W47940  14.072  14.997   3.663  0.0561  0.1192 -0.3604
 4888W        W47941   0.758  24.256   5.651  0.2427  0.0914  0.0749
 4889W        W47942  20.946  22.157   4.423  0.2281 -0.0323 -0.1098
 4890W        W47943   8.300  24.305   6.480  0.1651 -0.0823  0.3860
 4891W        W47944  19.857   5.974  22.513 -0.0910 -0.1527  0.2103
 4892W        W47945  32.700  16.831  24.229 -0.2109 -0.2926  0.3255
 4893W        W47946  17.999  31.678  26.870  0.0608  0.2414 -0.2216
 4894W        W47947  26.011  23.704  10.840 -0.2094  0.0460 -0.0104
 4895W        W47948  16.459  29.976  25.429 -0.0215  0.1708 -0.0076
 4896W        W47949  22.908  10.666   6.487  0.2967 -0.1216 -0.1558
 4897W        W47950  11.113  19.869   5.396  0.2016 -0.0248 -0.1979
 4898W        W47951  16.244   1.379   7.905 -0.1914 -0.1835  0.1660
 4899W        W47952  10.910  24.578  14.925 -0.0239 -0.0233 -0.3199
 4900W        W47953  11.680  32.131   2.184  0.3357 -0.1040 -0.1744
 4901W        W47954  18.931  26.016   6.751  0.1070 -0.5124 -0.0979
 4902W        W47955  20.653  27.530   7.141 -0.1263  0.3762 -0.2213
 4903W        W47956  32.574  34.210   6.368  0.0271 -0.1630 -0.3481
 4904W        W47957  21.775  33.124  28.953 -0.2653  0.1881 -0.1767
 4905W        W47958   5.846  26.288  22.274 -0.0904 -0.1356  0.0515
 4906W        W47959  31.094  33.155   1.862  0.2076 -0.0131  0.2529
 4907W        W47960  26.688  11.210  27.245  0.4969 -0.0185  0.3097
 4908W        W47961  15.257  19.032  28.721 -0.3280  0.3512  0.0112
 4909W        W47962  11.205  25.610  28.331  0.2938  0.0121  0.2009
 4910W        W47963  13.763   6.801   6.700  0.0675  0.1400 -0.2013
 4911W        W47964   9.096  30.708  15.264 -0.0394  0.1869  0.0575
 4912W        W47965  16.401  32.368  10.626  0.2811 -0.0425 -0.0477
 4913W        W47966   6.317  16.265   5.892 -0.1160 -0.2506  0.0216
 4914W        W47967   9.857  30.614  27.583  0.2986 -0.3609 -0.1501
 4915W        W47968  13.743  33.101  26.604 -0.1160 -0.0261  0.1351
 4916W        W47969  21.648  11.489   8.316 -0.0538  0.0243 -0.0941
 4917W        W47970  18.939  32.599  23.595 -0.0119 -0.1989 -0.1424
 4918W        W47971  25.619  25.053   8.735 -0.0414  0.1767 -0.0007
 4919W        W47972   8.055  16.994   4.263 -0.1487  0.0934  0.1098
 4920W        W47973  28.480  27.404  25.184 -0.0946 -0.0634 -0.0032
 4921W        W47974  27.243  13.518   0.810 -0.0793  0.2836 -0.4097
 4922W        W47975   5.203  26.923   8.325 -0.2203  0.1968 -0.1868
 4923W        W47976  18.641  29.337   5.014  0.2699 -0.1531 -0.5887
 4924W        W47977  31.702  28.316  18.132 -0.2395  0.2375 -0.1149
 4925W        W47978  16.453  13.638   7.744  0.2392 -0.2598 -0.0505
 4926W        W47979   4.864   9.985  18.591  0.0730  0.1086  0.0975
 4927W        W47980  19.044  20.494   6.608 -0.0188 -0.1147  0.1492
 4928W        W47981  31.438  17.976   1.122 -0.2139  0.0252 -0.3323
 4929W        W47982   7.214  10.703   5.122 -0.1216 -0.1952 -0.0262
 4930W        W47983  11.673  33.118   9.796  0.1310  0.1114  0.2113
 4931W        W47984   9.312  23.189   4.292  0.1873  0.1443  0.1361
 4932W        W47985   7.348  30.485  20.625 -0.1772 -0.0341  0.1004
 4933W        W47986  34.508  11.795  19.523  0.1910 -0.0977 -0.2795
 4934W        W47987  19.531   2.760   3.060  0.0425  0.0725 -0.1150
 4935W        W47988  14.617  14.771   2.376 -0.1571  0.0786  0.2592
 4936W        W47989  28.691   6.145  28.869  0.3073  0.3668 -0.2326
 4937W        W47990  14.605   2.946   8.299  0.1550 -0.2571 -0.2110
 4938W        W47991  20.978  16.970   7.294 -0.2406 -0.0837 -0.1584
 4939W        W47992   5.299  22.735   5.791 -0.1920  0.1457 -0.2647
 4940W        W47993   6.791  19.800   9.452 -0.3837 -0.0266 -0.1757
 4941W        W47994  14.945  31.252  24.912 -0.1752 -0.2312 -0.2642
 4942W        W47995   6.670  27.314  26.984  0.3079  0.0164 -0.0026
 4943W        W47996   2.962  18.536  27.816 -0.1063 -0.1929  0.0664
 4944W        W47997  17.178  28.100  20.897  0.0158 -0.0343 -0.1108
 4945W        W47998  17.445   1.442  23.672 -0.5593  0.1335 -0.0305
 4946W        W47999  16.569  23.751   4.600  0.1055  0.0336 -0.0390
 4947W        W48000   8.409  14.543  29.171  0.1314 -0.1384  0.0875
 4948W        W48001  10.641  25.040  24.356  0.1820 -0.2142  0.1112
 4949W        W48002  30.983  12.243   7.503  0.2108 -0.0997  0.2047
 4950W        W48003  18.617  10.042   1.215 -0.0093 -0.0450 -0.2275
 4951W        W48004   9.807  17.390   8.049 -0.0261  0.0160  0.0529
 4952W        W48005  17.756  31.693  28.864  0.1366  0.0242  0.1165
 4953W        W48006  18.224  26.397  11.051 -0.1290  0.1646 -0.1096
 4954W        W48007  21.185  24.098  22.751  0.0067 -0.0992  0.2467
 4955W        W48008  30.367  28.529   6.995  0.1191 -0.2996 -0.0194
 4956W        W48009   3.196  12.963   7.836 -0.0872  0.0080  0.1112
 4957W        W48010  17.515  33.563   6.070 -0.0041 -0.0926  0.0461
 4958W        W48011  31.210  16.923   7.613  0.0970  0.5378 -0.5552
 4959W        W48012   9.599  23.225   7.820  0.4052  0.2166  0.2747
 4960W        W48013   4.320  32.417   2.691 -0.3751 -0.0407 -0.0470
 4961W        W48014  23.452  26.238   7.549  0.2988  0.0988  0.0753
 4962W        W48015  28.678  23.351   3.369 -0.3431 -0.1425  0.1703
 4963W        W48016   6.632  24.503   0.365  0.2047  0.1524  0.0024
 4964W        W48017   6.822  17.132  25.666  0.1468 -0.1410 -0.1849
 4965W        W48018   2.021  29.175   6.140  0.0157  0.2201  0.1474
 4966W        W48019   2.104   0.822  23.984  0.4122  0.0564  0.0579
 4967W        W48020   1.930  22.852  20.111 -0.2990 -0.0037 -0.5621
 4968W        W48021  23.280   2.829   7.672  0.0538  0.2246  0.0941
 4969W        W48022  16.946  33.415   5.179 -0.2477 -0.0839  0.2207
 4970W        W48023  11.693  15.862   9.002 -0.1293 -0.1477 -0.1800
 4971W        W48024  29.501  21.040  29.023  0.2369  0.1395  0.0953
 4972W        W48025  19.484  22.964  21.055 -0.1688 -0.1817  0.3810
 4973W        W48026  18.407  24.358  21.773  0.0973 -0.1963  0.3266
 4974W        W48027   7.967  20.163   6.246  0.2861 -0.1412 -0.0116
 4975W        W48028  11.406  28.764   6.197 -0.2214  0.0736 -0.2498
 4976W        W48029  25.301  22.318   1.941 -0.4780  0.0108 -0.2069
 4977W        W48030  18.725  14.839   8.010  0.1288 -0.1371  0.1417
 4978W        W48031   5.175  26.454  24.979 -0.0404  0.0625  0.0907
 4979W        W48032  27.046  11.362   9.585  0.1155  0.0646 -0.1223
 4980W        W48033  25.152  26.812   9.075 -0.2028  0.0688 -0.2046
 4981W        W48034  31.901   8.913   5.885 -0.1242  0.3406  0.2037
 4982W        W48035  25.042   3.643  26.798 -0.1454 -0.0062 -0.3452
 4983W        W48036  19.066  28.723  14.291 -0.0300 -0.3795  0.0985
 4984W        W48037   8.976  33.232  26.590  0.3393  0.0402  0.0235
 4985W        W48038  13.544  30.509   9.559 -0.1616  0.1778 -0.0514
 4986W        W48039  22.523  14.695   1.219  0.1086  0.0304 -0.2245
 4987W        W48040  17.620   1.913   3.019 -0.2397 -0.2852  0.0651
 4988W        W48041  20.101  28.178   8.316 -0.1024 -0.0620  0.2032
 4989W        W48042  25.824  24.711   5.688  0.0725 -0.6038 -0.2481
 4990W        W48043  29.403  29.103   4.144 -0.2578  0.0110 -0.1112
 4991W        W48044  17.105  25.861  24.186  0.0693  0.1277 -0.2425
 4992W        W48045  15.383  19.844  24.870  0.3260  0.0929  0.1294
 4993W        W48046  25.646  10.507   6.023  0.0858 -0.1650  0.1157
 4994W        W48047  13.798  17.851   9.416 -0.1668 -0.0859  0.0838
 4995W        W48048  24.129  23.487   3.541  0.2101  0.1738  0.4087
 4996W        W48049  13.467  14.560  15.726 -0.0824 -0.1341 -0.0842
 4997W        W48050   1.457  22.522   4.487 -0.1483  0.2110 -0.1562
 4998W        W48051  29.828  26.170   9.643  0.0504  0.3035  0.0414
 4999W        W48052  26.742  10.514  25.805  0.2615 -0.4789  0.1264
 5000W        W48053   8.464  18.974   0.548 -0.2290 -0.2419  0.4165
 5001W        W48054   2.095  29.101  19.136 -0.1350 -0.1114 -0.1313
 5002W        W48055  13.492  21.500  25.546 -0.1146 -0.1010  0.0303
 5003W        W48056  29.653  24.818   2.964  0.1213  0.2322  0.0328
 5004W        W48057   8.583  30.019  21.053  0.0782 -0.1308 -0.0670
 5005W        W48058   9.449  24.575   4.041 -0.0951  0.0162  0.2085
 5006W        W48059  18.970  19.276   0.639  0.1075 -0.1418  0.4748
 5007W        W48060  14.835  18.102   5.519 -0.0143  0.1302  0.2451
 5008W        W48061  20.312  25.422   2.709 -0.0253 -0.1785 -0.0181
 5009W        W48062  15.094  21.492   5.350 -0.1070 -0.1057 -0.1392
 5010W        W48063  13.398  20.097  25.761  0.3664  0.1592 -0.2559
 5011W        W48064  20.060  31.482   0.849  0.2248  0.0207 -0.0400
 5012W        W48065   7.330  19.190  26.199  0.1970  0.4803 -0.0702
 5013W        W48066  23.686  21.174   3.167 -0.1838 -0.0195  0.0235
 5014W        W48067  27.933  31.295   8.136  0.0265  0.0105  0.1014
 5015W        W48068   0.355  23.841   3.256 -0.1259  0.0207  0.3580
 5016W        W48069  15.236  29.300   7.233 -0.0131  0.3294 -0.0903
 5017W        W48070  16.158   9.039  24.358 -0.2094 -0.1086 -0.0845
 5018W        W48071  11.135  31.023   2.241  0.1423  0.5271  0.0418
 5019W        W48072  13.786  26.027   0.582  0.0545  0.1083 -0.0696
 5020W        W48073   6.618  26.024  23.419  0.1316 -0.2456  0.0397
 5021W        W48074  16.382  30.690  17.460  0.2285  0.1250 -0.1143
 5022W        W48075   8.558  25.076   7.035 -0.3678 -0.2531  0.3344
 5023W        W48076  10.691  32.687   8.345 -0.0242  0.0516 -0.0730
 5024W        W48077  12.450  25.087   6.954 -0.2074  0.1850  0.2685
 5025W        W48078  27.243  29.627  18.403  0.0222  0.2379  0.1917
 5026W        W48079  17.892  16.794   5.751  0.0748 -0.2614  0.0597
 5027W        W48080  23.431  20.652   0.693  0.3733  0.4063  0.1897
 5028W        W48081  18.010  12.670   4.345  0.4789 -0.1631 -0.1418
 5029W        W48082  20.004  19.044   9.894  0.3008  0.1027  0.3006
 5030W        W48083  16.079  25.346  10.862  0.0667 -0.1788  0.0915
 5031W        W48084  17.862  15.671   2.312 -0.0889  0.1838  0.1186
 5032W        W48085  19.371  15.275   5.339  0.2080 -0.1179  0.0711
 5033W        W48086  14.714  19.190  26.069  0.1393  0.3254  0.0753
 5034W        W48087  15.060  21.795   6.380 -0.2499  0.0349 -0.0866
 5035W        W48088  25.784  16.714  24.158  0.2703 -0.3142  0.1170
 5036W        W48089  11.181  12.135  28.234 -0.0723  0.1829  0.2275
 5037W        W48090  17.538   2.427   7.708  0.2101  0.0665  0.2837
 5038W        W48091  10.120  10.062   6.288 -0.2803 -0.2445  0.3293
 5039W        W48092  24.267  11.610   3.385  0.0551  0.0127 -0.4575
 5040W        W48093  11.865   7.722  19.808  0.2889 -0.2846  0.2300
 5041W        W48094  16.487  19.790   0.937  0.2691 -0.3243 -0.3493
 5042W        W48095  21.894   0.893  26.787 -0.2187  0.1485  0.1840
 5043W        W48096  18.680  20.473   2.039 -0.0665 -0.0794  0.1686
 5044W        W48097   1.062  20.743  20.708 -0.0807  0.0713 -0.0380
 5045W        W48098  22.765  23.947  20.035  0.3373 -0.0151  0.0916
 5046W        W48099  17.052   3.241   4.361  0.0983  0.1780 -0.1962
 5047W        W48100  19.584  24.439  20.437 -0.0103 -0.1484 -0.1259
 5048W        W48101  22.525  11.285   1.673  0.0803 -0.1763 -0.4862
 5049W        W48102  32.377  21.556  26.712 -0.2617  0.2842 -0.0583
 5050W        W48103  13.069  17.474   9.774 -0.3402 -0.2712  0.2496
 5051W        W48104  34.105  27.321   2.877 -0.0687 -0.2701 -0.0420
 5052W        W48105   3.920  13.570  18.795  0.0012 -0.1922  0.3284
 5053W        W48106  25.901  24.164   5.752 -0.1307 -0.6486 -0.0973
 5054W        W48107  11.617  26.529   0.040  0.0813 -0.1760  0.4614
 5055W        W48108  28.573   9.377   3.652 -0.0556 -0.2957  0.1075
 5056W        W48109  10.090  28.862  24.383 -0.3771 -0.1286  0.2233
 5057W        W48110  17.066  30.772   9.335  0.1519  0.0556 -0.3041
 5058W        W48111   5.710  25.609  27.208 -0.3298  0.1612 -0.2890
 5059W        W48112   5.512   4.365  20.418 -0.1015  0.1962 -0.1377
 5060W        W48113  18.634  26.418   5.903 -0.2920 -0.4258 -0.2734
 5061W        W48114  10.672  25.977   0.327  0.0799 -0.1186  0.0259
 5062W        W48115  11.905  21.602  22.443 -0.0122  0.0377 -0.0031
 5063W        W48116   4.132  20.432  14.826  0.1015  0.5383  0.4296
 5064W        W48117   7.912  18.290  26.550  0.0737  0.2367 -0.0524
 5065W        W48118   7.789  25.720   0.316 -0.2091 -0.0693  0.2659
 5066W        W48119  20.399  12.559  27.349  0.2142  0.2208  0.0427
 5067W        W48120  15.439  30.344   1.787  0.0757  0.1006 -0.2809
 5068W        W48121  28.447  33.476  18.574  0.1698 -0.0520  0.0138
 5069W        W48122  26.610  11.451  10.190  0.0342 -0.2960  0.4822
 5070W        W48123  27.558  27.874  27.087 -0.3926  0.1910  0.1708
 5071W        W48124  32.981  14.420  26.807  0.2464 -0.0215  0.0320
 5072W        W48125  18.816  23.527   4.986  0.0671  0.0733  0.3078
 5073W        W48126  28.405  22.153   8.811 -0.1732  0.0823  0.1726
 5074W        W48127  26.198  16.978  24.198  0.1482  0.0605 -0.2089
 5075W        W48128  33.943  23.926   2.026  0.0997  0.1149  0.2272
 5076W        W48129  26.824  15.311   4.044  0.2732 -0.3479  0.0349
 5077W        W48130  34.587  15.703  19.394  0.1945  0.0137  0.0407
 5078W        W48131  13.529  15.543   9.831 -0.2511 -0.0326  0.0278
 5079W        W48132  24.989  17.071   1.291 -0.0505  0.2548  0.1864
 5080W        W48133  10.284   8.655  25.975 -0.1187 -0.1477  0.0313
 5081W        W48134   0.734  18.145  25.183 -0.0444 -0.2413  0.1141
 5082W        W48135  26.340  27.139   9.398  0.0818 -0.0771  0.1333
 5083W        W48136  16.448  18.233   1.614  0.3559 -0.0402 -0.0306
 5084W        W48137  18.311  19.962   4.958 -0.0216  0.0019 -0.2836
 5085W        W48138  30.893   2.643   1.543  0.2311 -0.2053 -0.1871
 5086W        W48139  19.974  32.514  28.032 -0.0405 -0.1134  0.0330
 5087W        W48140  13.274  23.862   2.325  0.2732  0.0346  0.0674
 5088W        W48141   7.152  22.106   8.931 -0.0452 -0.2155 -0.2698
 5089W        W48142  12.077   0.898   5.986  0.1512 -0.1753 -0.0238
 5090W        W48143  20.727  21.066   5.241 -0.2897  0.4554  0.0807
 5091W        W48144  15.896  25.949   6.680 -0.2008  0.1477 -0.0762
 5092W        W48145  19.996  17.668  28.136  0.3068 -0.1013  0.0702
 5093W        W48146  25.937  24.020   9.566  0.3177 -0.2627 -0.1713
 5094W        W48147  29.501  21.578  24.288  0.3251  0.0329  0.0509
 5095W        W48148  26.994   5.785   0.866  0.1843  0.0771  0.3808
 5096W        W48149   9.941  24.886   4.738  0.2542  0.0553  0.3840
 5097W        W48150  19.821   7.234   6.785 -0.3743 -0.2898  0.1371
 5098W        W48151  13.889  16.916  10.214  0.0081  0.1639  0.1446
 5099W        W48152  15.311   8.054  27.929  0.1133  0.0987  0.0087
 5100W        W48153  11.997   2.028   3.562  0.0276  0.1976  0.0523
 5101W        W48154   9.565  29.203   5.546  0.0907 -0.0574  0.1140
 5102W        W48155  22.571  31.091   2.320  0.3530  0.5290 -0.1130
 5103W        W48156  16.002  25.394   3.262 -0.0968 -0.0454  0.3210
 5104W        W48157  15.644  19.723   9.803  0.2401 -0.0427 -0.1064
 5105W        W48158   5.431  29.216   8.767  0.1262  0.2988 -0.1320
 5106W        W48159  12.041  23.074   4.913  0.0201 -0.0983 -0.1469
 5107W        W48160  11.567   7.557  25.434 -0.0079  0.3300 -0.2498
 5108W        W48161  10.109   2.993  24.583  0.1376  0.0096  0.0982
 5109W        W48162  17.631  27.651   3.796 -0.0295  0.1888 -0.1721
 5110W        W48163  32.103  26.957  28.451 -0.1752  0.1132 -0.4152
 5111W        W48164  22.803  33.431  28.833  0.0373 -0.4726 -0.0517
 5112W        W48165  18.803  14.528   1.875  0.1229 -0.0102  0.0900
 5113W        W48166   9.467  27.086   4.280 -0.0526 -0.0715  0.2298
 5114W        W48167  31.153  15.164   2.852  0.0828  0.0723  0.2938
 5115W        W48168  20.347  22.168   7.166 -0.1318  0.0917 -0.0657
 5116W        W48169  17.474  21.449   7.167  0.0577 -0.1091  0.0899
 5117W        W48170  21.168  19.673   5.125 -0.3686  0.3633 -0.2076
 5118W        W48171  20.817  31.463   9.820 -0.0819  0.1831 -0.1538
 5119W        W48172   9.133  33.380  20.790 -0.1004 -0.0924  0.1108
 5120W        W48173  21.572  17.375  28.294 -0.1520 -0.2193 -0.0677
 5121W        W48174  24.264   2.338   8.458 -0.1498  0.1138 -0.1370
 5122W        W48175  11.955  27.514   5.542 -0.0506 -0.2216  0.2619
 5123W        W48176  25.075  16.330  23.925  0.1119  0.1098 -0.3254
 5124W        W48177  12.651  18.598   5.349  0.2985 -0.0103  0.0773
 5125W        W48178   9.077  27.771   3.612 -0.0049  0.2170  0.0485
 5126W        W48179  14.713  17.603  28.614 -0.0337 -0.0732  0.1468
 5127W        W48180   7.054  18.017   7.960 -0.1220 -0.0722 -0.0268
 5128W        W48181  10.001  22.518  15.491  0.0210  0.0588  0.3608
 5129W        W48182  20.201  20.936  10.094  0.1321 -0.2758  0.0111
 5130W        W48183  10.550  21.036   3.362  0.1854  0.0681  0.1275
 5131W        W48184  17.745  26.107   4.224 -0.3008 -0.0405 -0.0446
 5132W        W48185   2.123   7.964   1.423  0.2220 -0.1554 -0.2911
 5133W        W48186   6.062  23.169  26.352 -0.1398  0.2962 -0.1059
 5134W        W48187  27.308  12.399  28.250  0.3281 -0.1379  0.0580
 5135W        W48188  20.593  16.015   2.275 -0.0153 -0.0896  0.5282
 5136W        W48189  31.624  18.833  23.836 -0.2948 -0.4111  0.0865
 5137W        W48190   5.907  24.159  18.805 -0.0672 -0.0493  0.0469
 5138W        W48191  19.971  20.134  25.516  0.2940 -0.2415  0.0353
 5139W        W48192  16.838  20.503   9.572  0.1525 -0.3572 -0.0903
 5140W        W48193  14.365  10.807   4.173  0.1967  0.0996  0.4075
 5141W        W48194  26.143  22.582   0.556  0.0718  0.3297  0.0766
 5142W        W48195   9.567  30.374   9.161 -0.1793 -0.0331 -0.1729
 5143W        W48196   7.350  19.065   7.985  0.2108  0.2423  0.0204
 5144W        W48197  23.848   2.829   0.702 -0.1478  0.1155  0.0498
 5145W        W48198  16.014  23.806  14.238  0.0903 -0.1879 -0.0990
 5146W        W48199  16.501  25.163  24.141 -0.1450  0.1697  0.0009
 5147W        W48200   9.660  20.140  23.395  0.3672  0.1435  0.0511
 5148W        W48201  23.902  23.963   8.827 -0.0409 -0.2767  0.0576
 5149W        W48202  18.436  13.581   6.099 -0.2779 -0.0624 -0.3180
 5150W        W48203  19.132  20.502   4.804  0.1869 -0.0064  0.1383
 5151W        W48204  12.324  18.219   0.060  0.0041 -0.0432 -0.1490
 5152W        W48205   5.101  16.202   6.900  0.1632  0.2186  0.1144
 5153W        W48206  11.014   1.481  27.489  0.0035  0.1753 -0.2009
 5154W        W48207  17.271  17.390   6.031  0.0096 -0.2382  0.1651
 5155W        W48208   9.079   1.682  20.627 -0.2175 -0.0710 -0.1274
 5156W        W48209  21.143  32.586   7.674 -0.2780 -0.1330  0.3745
 5157W        W48210  28.697  25.948   4.451  0.0072 -0.1112 -0.2268
 5158W        W48211  14.096   8.359  28.550 -0.0581 -0.2515 -0.0848
 5159W        W48212  29.043  17.737   5.018  0.0729 -0.0840  0.0338
 5160W        W48213  13.316  33.620  29.141 -0.0220 -0.1128 -0.0224
 5161W        W48214  19.529  21.606   7.416 -0.2999 -0.2546 -0.0565
 5162W        W48215  22.294  13.614   3.767  0.1526 -0.0277 -0.0091
 5163W        W48216  33.667  27.774  20.909  0.2379  0.0361 -0.4195
 5164W        W48217  14.787  13.345   9.683  0.0596  0.2469 -0.0534
 5165W        W48218   1.544  12.821   5.810  0.1172  0.0125  0.0154
 5166W        W48219  26.863  26.057   8.745  0.0477 -0.0606 -0.1511
 5167W        W48220  30.917  32.723  17.118  0.2443  0.1330 -0.2724
 5168W        W48221  20.332   2.929   6.952  0.0885 -0.3493 -0.1605
 5169W        W48222  14.590   7.373   0.398 -0.3259  0.0307  0.1342
 5170W        W48223   9.792  16.969   2.263  0.1177 -0.1208  0.0437
 5171W        W48224  18.278  26.522  10.365 -0.1468 -0.0796 -0.0185
 5172W        W48225  14.952  24.021  22.849  0.1340  0.0080  0.2392
 5173W        W48226  10.238  29.578  21.510  0.0803 -0.0919  0.0349
 5174W        W48227   9.575  28.039   2.362 -0.0530 -0.1945  0.2367
 5175W        W48228   5.896  21.314   0.533 -0.0516  0.0261  0.0913
 5176W        W48229   7.879  20.303   8.417 -0.0374 -0.1192  0.0163
 5177W        W48230  21.273  32.321   6.503  0.0105  0.2652  0.3505
 5178W        W48231  11.946  25.129   5.834 -0.2443 -0.1161 -0.0640
 5179W        W48232   7.023  30.385   8.163  0.0614 -0.1786 -0.2659
 5180W        W48233  21.908  25.734   9.657 -0.3661 -0.2202  0.2617
 5181W        W48234  18.601   0.592  26.087  0.1973  0.0786  0.5643
 5182W        W48235  34.281  18.447  23.320 -0.1782  0.0813 -0.1112
 5183W        W48236   9.082  28.888  26.011  0.1640  0.2249 -0.0754
 5184W        W48237   9.083  20.675   0.521 -0.0448  0.0610  0.2711
 5185W        W48238  27.420  12.836   1.132 -0.1310  0.3323 -0.1560
 5186W        W48239   9.479  20.944   6.495 -0.0080 -0.2989  0.0335
 5187W        W48240  31.306   9.687  25.164 -0.4065  0.1882  0.0086
 5188W        W48241   9.484  23.577  27.294  0.0263 -0.1944  0.0492
 5189W        W48242   7.398  22.459   8.662 -0.1394  0.2718 -0.0463
 5190W        W48243  22.864  22.967   6.034  0.2511  0.3169  0.1267
 5191W        W48244  16.724  19.927  14.604  0.0495  0.2036  0.1713
 5192W        W48245  26.419  11.561  29.005  0.0237  0.0886 -0.1020
 5193W        W48246  30.648  26.280   1.536 -0.2324 -0.0940 -0.1513
 5194W        W48247  17.929  19.594  24.579  0.0572 -0.1002 -0.4284
 5195W        W48248  17.364  10.498   2.268  0.1737 -0.0612  0.0187
 5196W        W48249  18.087  29.479   5.134 -0.0899 -0.1555 -0.0813
 5197W        W48250  34.426  25.631   0.123 -0.1276 -0.2649  0.1650
 5198W        W48251   0.145  15.277   3.292 -0.0229 -0.3523  0.1316
 5199W        W48252   9.659  25.069   0.131  0.1654  0.1024 -0.2297
 5200W        W48253  12.288  17.636  25.176  0.0337  0.0965  0.2263
 5201W        W48254  30.827  19.165   7.852 -0.1997 -0.0483 -0.1391
 5202W        W48255  20.089  17.535  26.541  0.2190  0.2150  0.3093
 5203W        W48256  24.495  17.635   9.710 -0.0074 -0.0077 -0.0346
 5204W        W48257  10.586  13.344   5.347 -0.0303 -0.1605 -0.3813
 5205W        W48258  15.318  32.172   9.890  0.0451  0.1753 -0.2221
 5206W        W48259  19.355  18.343   8.563  0.1939 -0.1995 -0.0135
 5207W        W48260  20.714  22.129   9.698 -0.1834  0.1037 -0.0013
 5208W        W48261  22.539   9.461  25.120 -0.2166 -0.1707  0.1784
 5209W        W48262  14.360   2.543  27.670  0.0253  0.0502  0.0282
 5210W        W48263  12.838  30.221   8.014 -0.1538  0.0483 -0.0582
 5211W        W48264  20.854  22.414   5.300  0.1464  0.2412  0.0615
 5212W        W48265  17.562   9.432   8.228 -0.1529 -0.1260  0.3611
 5213W        W48266  32.640  27.055   4.276 -0.1516  0.0673 -0.2105
 5214W        W48267  11.777   5.743   7.217  0.1611 -0.1961 -0.2394
 5215W        W48268   2.611  22.471   1.221 -0.4990  0.0097  0.1033
 5216W        W48269  29.484   5.883   4.269 -0.3238  0.0982  0.1349
 5217W        W48270   2.745  17.609  27.726 -0.2968  0.2314 -0.0873
 5218W        W48271  22.316  22.176  28.773  0.0449  0.0671 -0.0735
 5219W        W48272   4.718  25.577   9.152  0.1708  0.1376  0.1865
 5220W        W48273  17.943  25.060   7.612  0.0099  0.1768 -0.1113
 5221W        W48274  19.008   1.997  26.397 -0.0908  0.1503 -0.2880
 5222W        W48275  11.162  28.360   0.701  0.1758 -0.0399 -0.0622
 5223W        W48276  18.429   0.058   1.000  0.2352 -0.2349 -0.2347
 5224W        W48277   5.269  23.988   6.332  0.1450 -0.1217 -0.2489
 5225W        W48278  18.292  29.452   4.586  0.0137  0.2797  0.3744
 5226W        W48279  16.067  26.241   2.812 -0.0387 -0.0175  0.0980
 5227W        W48280   5.912   2.114   8.903  0.0016 -0.1695  0.1885
 5228W        W48281  30.753  21.699  24.193 -0.0523 -0.0820  0.0211
 5229W        W48282  28.231  25.093   4.542 -0.0274  0.3720  0.0494
 5230W        W48283  27.065  23.011  27.039 -0.4141 -0.1795 -0.1673
 5231W        W48284  10.028  20.707   2.991 -0.0338  0.0899 -0.2254
 5232W        W48285   3.777  25.499  27.779 -0.1257 -0.2558 -0.0708
 5233W        W48286  26.492   3.701   6.034  0.2325  0.2833  0.1898
 5234W        W48287   3.555   4.462  27.759 -0.0998 -0.1588  0.2910
 5235W        W48288   7.289  22.545  17.221 -0.2743  0.0011  0.1205
 5236W        W48289  25.042  16.721   3.179  0.1384 -0.3544 -0.4161
 5237W        W48290  10.839  28.480  27.562  0.0517  0.1331  0.0413
 5238W        W48291  20.505  22.898  28.703  0.0811 -0.1897  0.1883
 5239W        W48292  17.248  26.705  28.069 -0.0076 -0.0459  0.0644
 5240W        W48293  14.416   8.589   5.352 -0.2169  0.0473 -0.1979
 5241W        W48294   6.613   7.869  20.588 -0.1968 -0.0188  0.0812
 5242W        W48295   9.199  17.641   0.220 -0.0182  0.2634  0.0711
 5243W        W48296  15.439   1.542   4.785 -0.0159 -0.1296 -0.0953
 5244W        W48297  15.696  15.523   4.527 -0.0328 -0.1553  0.2212
 5245W        W48298  24.228   3.145   8.973 -0.2206 -0.3360  0.0813
 5246W        W48299   9.719  16.401   8.170 -0.2558 -0.2087  0.1499
 5247W        W48300  30.363  21.472  22.878  0.3669 -0.2196  0.2321
 5248W        W48301  21.036  15.251   2.724 -0.2883 -0.1043 -0.3652
 5249W        W48302  12.103  13.137   5.819 -0.1669 -0.4364 -0.1669
 5250W        W48303   7.714  12.455  20.420 -0.3344  0.0615 -0.1045
 5251W        W48304  20.588  30.296   6.403 -0.0681  0.1349 -0.4250
 5252W        W48305  16.454  13.543   1.931 -0.5823 -0.1160 -0.0035
 5253W        W48306  13.936  10.702  28.644 -0.0702  0.0888 -0.0340
 5254W        W48307  10.674  15.259  25.569  0.2152  0.2660  0.5428
 5255W        W48308  23.322  19.874   8.101 -0.1962 -0.0217 -0.0041
 5256W        W48309  10.260  28.792  27.472  0.1156 -0.0627  0.2122
 5257W        W48310  32.394  27.159  26.652 -0.1637 -0.1654 -0.3016
 5258W        W48311  30.151  33.619   1.972  0.0780  0.1330 -0.1143
 5259W        W48312  32.754   2.704   7.899  0.1327 -0.0449  0.0732
 5260W        W48313  21.025  27.634  29.165 -0.0919  0.0619 -0.0259
 5261W        W48314  21.223  16.372  15.371  0.0588 -0.4169 -0.0747
 5262W        W48315  33.290  24.414  23.844 -0.1835 -0.2046  0.4852
 5263W        W48316   5.609  18.128  23.155 -0.1363 -0.2968  0.1188
 5264W        W48317  22.893   4.251  19.483 -0.0404 -0.0133  0.7093
 5265W        W48318   4.215  19.365   8.615 -0.1165  0.0537  0.1221
 5266W        W48319   4.903  18.846   7.750  0.1587  0.1799  0.0080
 5267W        W48320  31.971  29.725   9.016  0.1627  0.1571 -0.0439
 5268W        W48321  23.052  29.722  10.473  0.1687 -0.0429 -0.0371
 5269W        W48322  33.418  19.761  27.758 -0.1157  0.1343  0.0332
 5270W        W48323   4.620  22.542   0.334 -0.2529 -0.2329  0.2009
 5271W        W48324   8.229  24.288   1.028  0.2750 -0.4020 -0.0990
 5272W        W48325   6.404  18.701   5.343 -0.2489  0.4131 -0.0235
 5273W        W48326  14.704  28.748   7.348  0.2733 -0.1384  0.2827
 5274W        W48327  21.559  14.246   8.902 -0.3768  0.2193  0.2487
 5275W        W48328   9.051  15.153   4.101 -0.1725 -0.0139 -0.0611
 5276W        W48329   8.520  20.039  27.577  0.0769  0.0288  0.1381
 5277W        W48330  31.484  20.657   0.878  0.2643  0.0575 -0.0936
 5278W        W48331   1.112  20.624   2.417 -0.3045 -0.0589 -0.1258
 5279W        W48332  30.274  19.383  14.536  0.1239 -0.1301  0.0612
 5280W        W48333  27.905  30.481   3.640 -0.1834 -0.0987 -0.4460
 5281W        W48334   3.217   4.031   9.280  0.0635 -0.1809  0.1638
 5282W        W48335  33.990  16.103   0.081 -0.1518  0.2834 -0.2319
 5283W        W48336  20.032  34.552   4.345 -0.0779  0.0166 -0.1343
 5284W        W48337  12.525  15.119  27.959 -0.1987 -0.0089  0.1626
 5285W        W48338   0.487   2.036   5.133  0.2586  0.0215  0.2370
 5286W        W48339  22.339  33.622   1.320  0.0736  0.0364 -0.0104
 5287W        W48340  15.729  19.899  26.699  0.0417 -0.0387 -0.3212
 5288W        W48341  19.286  20.074   5.029 -0.2518 -0.1941  0.0664
 5289W        W48342   3.840  20.430   2.477  0.1566  0.0726 -0.2922
 5290W        W48343   5.143  19.206   5.847 -0.0110  0.1340 -0.0781
 5291W        W48344  20.085  18.942  20.243  0.1989 -0.1532  0.2235
 5292W        W48345  15.603  16.721   5.392 -0.2979  0.0579 -0.3498
 5293W        W48346  14.004  22.740  23.811  0.1469  0.0917  0.0822
 5294W        W48347  20.623  30.629   6.854  0.0762  0.1913 -0.2946
 5295W        W48348  16.412  20.811   4.866 -0.2473 -0.0972  0.0296
 5296W        W48349  23.688  13.938   8.545 -0.0675 -0.1200  0.1426
 5297W        W48350  18.180   2.731  24.510 -0.2080 -0.0800  0.0458
 5298W        W48351  15.479  19.846   1.842 -0.2594  0.1566  0.2766
 5299W        W48352   8.805  19.253  28.611 -0.0228 -0.2046 -0.0250
 5300W        W48353   5.525  30.985   6.557 -0.0779  0.0293 -0.0920
 5301W        W48354  25.615  33.454  29.062  0.3799  0.3272 -0.1840
 5302W        W48355  15.724  18.495  27.225  0.3695 -0.2499  0.0828
 5303W        W48356   9.302  21.337   6.190 -0.1090  0.0733  0.0780
 5304W        W48357   1.282   2.943   1.735  0.2220 -0.1870  0.0648
 5305W        W48358  20.767  14.857  26.135  0.0879 -0.0783  0.0024
 5306W        W48359  15.868  26.392   4.197 -0.1048  0.1324  0.0840
 5307W        W48360   0.152  25.479   4.574 -0.2271  0.2828 -0.3053
 5308W        W48361  19.135  12.873  27.118 -0.0336 -0.4113 -0.0236
 5309W        W48362  10.893   3.424  28.827  0.1569 -0.0196  0.4626
 5310W        W48363  17.185  25.048   5.534  0.0023  0.0935  0.1816
 5311W        W48364   3.970  33.342  27.718  0.0814 -0.1764 -0.3225
 5312W        W48365  24.479  27.344   7.893 -0.1474  0.2877  0.1670
 5313W        W48366  16.127  14.966  24.079  0.1772  0.0404  0.4406
 5314W        W48367  30.371  33.347   8.311  0.1043  0.0275 -0.0474
 5315W        W48368  14.047  24.363   6.924  0.2410  0.0360  0.1596
 5316W        W48369  15.625   8.066   4.812 -0.1700 -0.1395 -0.1533
 5317W        W48370  16.349  29.484  29.100 -0.2162  0.0123  0.0545
 5318W        W48371   3.455  25.036   6.474 -0.1876  0.0378  0.0038
 5319W        W48372  22.415   0.576  27.253 -0.0565  0.2275 -0.2955
 5320W        W48373  15.163   7.787   2.324 -0.1286  0.0230  0.0126
 5321W        W48374  23.689  23.010   2.596 -0.1317  0.1969  0.2840
 5322W        W48375  12.197  16.837   4.838 -0.0326  0.2516 -0.0783
 5323W        W48376  10.118  24.009   0.776 -0.2881  0.1672 -0.0698
 5324W        W48377  18.957   3.999  23.005 -0.0465 -0.0917  0.1035
 5325W        W48378  20.491  20.249   2.045 -0.0847 -0.2191  0.4796
 5326W        W48379  34.282  28.158  24.607 -0.0967  0.2572 -0.0336
 5327W        W48380   5.732  19.602   0.985  0.2174 -0.1492 -0.1597
 5328W        W48381   2.370  25.446  14.865  0.3354 -0.0108  0.1322
 5329W        W48382   5.211  22.984  24.433  0.4295  0.2101  0.3208
 5330W        W48383   1.511  20.941  26.970 -0.0868  0.3350  0.2582
 5331W        W48384   9.272  24.539   0.816 -0.1662 -0.1557 -0.1680
 5332W        W48385  10.847  30.635   1.456  0.0274  0.0498  0.0092
 5333W        W48386  30.607  17.982   7.960 -0.0953  0.1143 -0.2599
 5334W        W48387  21.133  13.020   0.166  0.3331  0.3611  0.0079
 5335W        W48388   7.308  30.205   9.224  0.0219 -0.0909 -0.1170
 5336W        W48389  23.366  30.235   4.803  0.1278  0.1766  0.2875
 5337W        W48390   8.953  20.401   8.411  0.0908 -0.0642 -0.1554
 5338W        W48391  22.961  18.162   4.195 -0.2032  0.3040 -0.0534
 5339W        W48392  25.193  24.977   6.543  0.0573 -0.2939  0.0497
 5340W        W48393  12.583  24.338   7.813 -0.2974  0.2111 -0.2646
 5341W        W48394   6.669  20.442   6.235  0.1244 -0.2462 -0.1773
 5342W        W48395  28.603  23.486   2.439 -0.0698  0.3431 -0.1601
 5343W        W48396  25.474  22.070  25.442  0.0830  0.2565  0.2389
 5344W        W48397  21.403  21.011   7.159  0.1474  0.0562 -0.1878
 5345W        W48398   2.598  23.215   3.741 -0.0061 -0.0551 -0.0155
 5346W        W48399  19.990   8.334   0.053  0.1999  0.1043  0.2096
 5347W        W48400  17.122  17.408   7.527  0.3550 -0.0528  0.1036
 5348W        W48401  25.576  21.423   1.371 -0.4256 -0.0617  0.2717
 5349W        W48402  20.061  14.578  16.939 -0.4346 -0.0597  0.0641
 5350W        W48403  13.904  24.695   5.121  0.0172 -0.0518 -0.1345
 5351W        W48404  27.841  29.954   4.018 -0.1922  0.1588  0.0211
 5352W        W48405  14.448  24.647   5.572  0.0197  0.1219 -0.1178
 5353W        W48406  19.367  16.150  22.216 -0.0838  0.0497 -0.1244
 5354W        W48407  23.174  34.047   5.320 -0.0319 -0.0086 -0.2091
 5355W        W48408  30.867  22.604  29.003  0.0864 -0.0836 -0.1055
 5356W        W48409   8.147  27.248  28.789  0.1584 -0.0236  0.0918
 5357W        W48410  21.540  26.168   4.320 -0.0706 -0.2350  0.1269
 5358W        W48411  25.124   1.599  22.285 -0.2331 -0.2361  0.0098
 5359W        W48412   6.855  27.676  28.827  0.2427 -0.0510 -0.1481
 5360W        W48413  20.810   7.723   8.409 -0.0038 -0.0265 -0.0148
 5361W        W48414  10.564  28.962   9.376  0.0295  0.0567 -0.1181
 5362W        W48415  29.902  26.204   6.284  0.1854  0.1632  0.1908
 5363W        W48416  21.446   1.065  24.898  0.2828  0.0468  0.0078
 5364W        W48417   8.851  29.308  24.076  0.1133 -0.0463 -0.0905
 5365W        W48418  27.867  10.116   6.630 -0.0469 -0.0962 -0.1182
 5366W        W48419  34.177  26.688  24.708 -0.0308  0.1238 -0.0249
 5367W        W48420   6.533  18.790  25.021  0.1627  0.0708 -0.0724
 5368W        W48421   9.475  21.348   2.820 -0.1801  0.0488  0.5456
 5369W        W48422   6.859  12.222  17.795 -0.1258  0.0847  0.2738
 5370W        W48423  11.539  30.060   8.861  0.2039  0.1757 -0.2551
 5371W        W48424  22.887   9.445   6.004 -0.0704  0.1350  0.1027
 5372W        W48425  16.951   9.943   3.346  0.1834 -0.0935 -0.0476
 5373W        W48426   5.939  20.715   4.248  0.1563  0.0748  0.0042
 5374W        W48427  28.930  13.131   5.624  0.0867  0.1687 -0.0616
 5375W        W48428  17.578  20.521   4.896 -0.4370 -0.2499  0.1136
 5376W        W48429  13.728  19.155   9.916 -0.0560 -0.1920  0.0711
 5377W        W48430  18.072  15.800   8.173  0.0832  0.2702  0.1582
 5378W        W48431  33.166   2.217   6.944 -0.0519  0.1965  0.0847
 5379W        W48432   2.834  10.864   5.051 -0.3620 -0.0525 -0.0900
 5380W        W48433  34.561   8.866  27.987  0.0559 -0.0071  0.3576
 5381W        W48434   5.430  25.672   8.440 -0.0566 -0.0315  0.2353
 5382W        W48435   1.372  31.205   9.804 -0.0881 -0.1151  0.0740
 5383W        W48436   4.991  28.548   7.076 -0.1271 -0.2296 -0.2875
 5384W        W48437  17.117  15.158  25.671  0.0448 -0.1629  0.0540
 5385W        W48438  19.302  22.764   4.543  0.2090 -0.1647 -0.4623
 5386W        W48439   6.835  31.767  28.341 -0.1666  0.0087  0.1138
 5387W        W48440  28.587  25.828   2.595 -0.1008 -0.0552 -0.1241
 5388W        W48441  33.466   8.773   2.898  0.2501 -0.3592  0.0737
 5389W        W48442  14.129  33.164   9.053 -0.1291  0.0529 -0.0875
 5390W        W48443  23.527  29.351   5.080  0.0795  0.0111  0.2372
 5391W        W48444  17.227   0.751  10.700  0.0182 -0.0789  0.3043
 5392W        W48445   1.572   9.387  20.579 -0.2218 -0.3493  0.0974
 5393W        W48446  21.393  12.852   9.006  0.0782  0.0692  0.0854
 5394W        W48447   9.752  33.799   8.275  0.0297  0.3296 -0.1750
 5395W        W48448  31.203  17.566   3.248  0.1964 -0.1721  0.2145
 5396W        W48449   4.965   9.387   4.749  0.0711  0.1594  0.4650
 5397W        W48450  20.466  19.319  26.247 -0.0014  0.1591  0.1193
 5398W        W48451   6.936   0.508  27.147  0.0367  0.0770  0.1911
 5399W        W48452   7.072  15.827   0.676  0.1263  0.0586  0.0276
 5400W        W48453   9.455  21.946   9.400 -0.1951  0.1653  0.0177
 5401W        W48454  17.514  24.918  15.540 -0.2098  0.3284  0.0344
 5402W        W48455  13.435  10.116   7.996 -0.1399  0.3142 -0.0949
 5403W        W48456  20.499  18.684  20.060  0.0248 -0.1285 -0.0326
 5404W        W48457  16.512  15.543   0.273  0.1446 -0.2986 -0.1237
 5405W        W48458  27.682  23.517   8.650 -0.0819 -0.0992  0.2192
 5406W        W48459  30.572  11.697   9.523  0.1048  0.1669 -0.2195
 5407W        W48460  26.979   0.125   9.586  0.0010 -0.1325  0.0174
 5408W        W48461  25.207  34.133   5.959 -0.3392  0.1700  0.1742
 5409W        W48462  14.555  16.110   1.458  0.4008 -0.0668 -0.1240
 5410W        W48463   6.426  12.425   8.238  0.2025 -0.0150  0.1643
 5411W        W48464  17.762  22.216  28.416 -0.0761 -0.0915 -0.0184
 5412W        W48465  18.237  20.848  28.504  0.0404  0.1474 -0.0148
 5413W        W48466  27.758  13.568   2.462  0.1139 -0.2376  0.5111
 5414W        W48467   3.398  28.599   2.320 -0.0003  0.0772 -0.0526
 5415W        W48468  14.230  32.728   9.573 -0.1732  0.1834  0.0699
 5416W        W48469   9.110  19.104   7.177  0.3008  0.0861  0.2228
 5417W        W48470  16.579  30.183  23.257 -0.0510  0.1678 -0.1456
 5418W        W48471  26.792  27.386   5.974 -0.2393  0.2112 -0.1239
 5419W        W48472  13.337  18.715   4.253 -0.0966 -0.0587 -0.0412
 5420W        W48473  18.461  29.995   1.711 -0.0753 -0.1198  0.0359
 5421W        W48474  12.818   9.255   4.774  0.0012  0.1168  0.2373
 5422W        W48475   0.130  25.650   8.390 -0.2078  0.0460  0.1563
 5423W        W48476  23.738  19.731   2.518 -0.0542  0.0917  0.1246
 5424W        W48477  14.109  10.070   1.797  0.3317 -0.1453 -0.0632
 5425W        W48478  24.054  15.313   1.768 -0.0837 -0.3108 -0.1413
 5426W        W48479  13.099  15.312   8.554 -0.2781 -0.0781 -0.4421
 5427W        W48480  20.282  26.934   9.636 -0.2184  0.0183  0.1771
 5428W        W48481  13.319  14.449  21.160  0.0838 -0.1485  0.0388
 5429W        W48482  17.384  27.247  10.102 -0.0045 -0.2266  0.0312
 5430W        W48483  16.589  20.786  27.282 -0.1032  0.0947 -0.0303
 5431W        W48484  17.659   1.635   0.535  0.0191  0.2613 -0.2461
 5432W        W48485  29.738  13.162   1.709  0.0417 -0.4423 -0.1554
 5433W        W48486  19.892  24.898  19.810 -0.0789 -0.0076  0.1272
 5434W        W48487  22.552  15.109   9.637  0.0711  0.1020  0.0585
 5435W        W48488  20.003  19.013   6.298 -0.1282  0.0484  0.1472
 5436W        W48489  30.074  16.776  21.847 -0.2898 -0.0362 -0.2232
 5437W        W48490  15.996  18.874  26.576 -0.0519  0.1402  0.3571
 5438W        W48491  25.159  13.837  22.378 -0.0472  0.1525  0.0271
 5439W        W48492  11.962  29.308   8.556  0.0906  0.1151  0.1446
 5440W        W48493  25.320   5.204   2.741  0.2055 -0.3450 -0.1458
 5441W        W48494  29.008  25.116  22.892 -0.5150  0.4588 -0.1547
 5442W        W48495  20.616  17.663   4.185 -0.1164 -0.1752  0.3863
 5443W        W48496  31.244  21.664   9.655  0.0391 -0.0950  0.4079
 5444W        W48497   4.286  21.800   2.642  0.1687 -0.0773  0.1362
 5445W        W48498  11.670  23.598   2.579  0.0334  0.2058 -0.3103
 5446W        W48499   8.700  19.705  24.450  0.0450 -0.3153 -0.1271
 5447W        W48500   7.408   0.565   0.728  0.3365 -0.0631  0.0997
 5448W        W48501   7.258  13.235   4.865  0.0675  0.0066  0.1241
 5449W        W48502  10.448  33.650  26.079  0.1253 -0.1683  0.2560
 5450W        W48503  17.121   3.947   4.829 -0.2217 -0.0277  0.1190
 5451W        W48504  20.903  28.093   9.886 -0.0870  0.2265 -0.1007
 5452W        W48505  22.205   7.292  18.538  0.1039 -0.0943  0.1316
 5453W        W48506   8.486  14.943   0.838  0.1388 -0.3244  0.0264
 5454W        W48507  16.861  27.653  17.110  0.3187  0.1806 -0.0596
 5455W        W48508  16.105  33.338   1.552 -0.1797 -0.0182  0.0164
 5456W        W48509  24.502  13.974   8.248 -0.0910  0.0517  0.2746
 5457W        W48510   2.514  19.572  19.344  0.0696 -0.2018  0.4146
 5458W        W48511  26.260  27.354   5.925 -0.1323  0.1063 -0.0887
 5459W        W48512   9.600  34.267   3.570 -0.0934 -0.1494 -0.2758
 5460W        W48513  28.439  29.297   4.114  0.4166 -0.4295 -0.0115
 5461W        W48514  25.122  26.955   4.257  0.3448 -0.1020 -0.3393
 5462W        W48515  26.090  28.526   8.524 -0.1707 -0.1792  0.1439
 5463W        W48516  11.520  18.226   8.234 -0.1269 -0.1679  0.1416
 5464W        W48517  14.785  28.286   3.605 -0.4332  0.3020  0.1188
 5465W        W48518  30.000  29.716   2.931  0.1555  0.2065 -0.0527
 5466W        W48519  24.146  23.928  19.453 -0.1979  0.0578 -0.0419
 5467W        W48520  26.545  24.360   4.622 -0.0442  0.3603 -0.0448
 5468W        W48521  20.555  18.914  26.672 -0.1503 -0.0789  0.1998
 5469W        W48522  22.070  16.160  25.610  0.1474 -0.0965  0.1526
 5470W        W48523  15.039  19.104  28.152  0.2235 -0.0163  0.1113
 5471W        W48524   5.942   3.881   5.715 -0.1571 -0.1424 -0.3202
 5472W        W48525  12.544  21.341   8.436  0.2128 -0.1570 -0.1343
 5473W        W48526  10.005  12.175  22.574  0.0362 -0.0396  0.0046
 5474W        W48527   1.137  14.057  29.023 -0.0153  0.2542  0.0831
 5475W        W48528  22.562  18.988  24.340  0.1631 -0.0171 -0.0635
 5476W        W48529  16.692  22.235  24.839 -0.2817 -0.1465  0.1313
 5477W        W48530  23.402   6.238   3.476  0.2141 -0.1860  0.1349
 5478W        W48531  26.700   3.366  29.158  0.2520  0.1653 -0.0055
 5479W        W48532  17.014   4.364   6.584 -0.3511 -0.2768 -0.1584
 5480W        W48533  16.016  26.257   8.953 -0.3583  0.0902  0.1382
 5481W        W48534  29.071  30.758   2.144 -0.2897 -0.2040 -0.0729
 5482W        W48535  27.257  13.886  24.890 -0.1776 -0.0228 -0.2759
 5483W        W48536   5.372  19.755   4.996  0.2089 -0.1012 -0.2099
 5484W        W48537  23.123  27.782  24.171  0.0655  0.1190 -0.1163
 5485W        W48538  27.945  19.318   0.393  0.1211 -0.3487 -0.1017
 5486W        W48539  20.921  33.848  21.066  0.0966 -0.2196  0.1140
 5487W        W48540  23.858  28.732   6.743 -0.2708  0.1295 -0.0859
 5488W        W48541  34.427  28.060   6.549 -0.0459 -0.3011  0.0075
 5489W        W48542   7.900  22.783   1.327 -0.3069 -0.1857 -0.1172
 5490W        W48543   3.971  33.906  18.225 -0.3165  0.0415  0.2011
 5491W        W48544  19.031  16.632   2.802  0.0706  0.0845 -0.1863
 5492W        W48545  25.713  26.181   5.191  0.1809  0.1767  0.1589
 5493W        W48546   8.500  30.817   9.366  0.2071 -0.1836 -0.0456
 5494W        W48547   4.117  26.207   1.326 -0.0444  0.4031 -0.0959
 5495W        W48548  19.987  18.012   0.840 -0.3052 -0.1065 -0.0052
 5496W        W48549   2.884  14.503  29.036 -0.0778  0.1382 -0.3725
 5497W        W48550  22.309  20.801  28.302 -0.1064 -0.1070 -0.2498
 5498W        W48551   0.559  25.367   6.829 -0.0244 -0.2039 -0.0442
 5499W        W48552  13.731  15.861  25.816 -0.2039  0.1763  0.1079
 5500W        W48553   3.935  32.605  24.447  0.0616 -0.3812 -0.0133
 5501W        W48554   6.832  14.820   3.077 -0.0271 -0.0917 -0.1985
 5502W        W48555  22.426  33.608   9.983 -0.0554 -0.0501 -0.1080
 5503W        W48556   5.042  31.698   6.253  0.2035  0.1992  0.4710
 5504W        W48557  12.289  19.898  28.201 -0.1507  0.1735 -0.1432
 5505W        W48558  17.112  29.740   7.203  0.0368  0.1269  0.0614
 5506W        W48559   1.989   3.590   3.606 -0.0525 -0.2518 -0.1193
 5507W        W48560  14.467   7.133  22.666 -0.2519  0.0543 -0.0589
 5508W        W48561  14.694  28.941   8.785 -0.0432  0.0228  0.2356
 5509W        W48562  32.153  23.960   6.727 -0.0386 -0.0500  0.2433
 5510W        W48563  16.402  18.272   5.786  0.0952  0.0129 -0.0135
 5511W        W48564  25.326  18.158   3.757  0.1379 -0.0519  0.1485
 5512W        W48565   9.443  23.330   3.773 -0.0140  0.0171 -0.2024
 5513W        W48566  14.278  16.386   8.209 -0.2389 -0.1081 -0.0098
 5514W        W48567  12.781  33.058  29.021  0.1975 -0.1047 -0.1507
 5515W        W48568  16.439  25.557   8.624 -0.0119  0.1051 -0.1009
 5516W        W48569  23.425  26.669   4.764 -0.0965  0.1338  0.1063
 5517W        W48570  10.238  25.248  21.597  0.0577  0.0266 -0.0746
 5518W        W48571  16.430  22.196  14.405  0.0698  0.0120  0.2043
 5519W        W48572   4.217  33.813   7.756 -0.2081  0.0764  0.1267
 5520W        W48573  27.912   0.482   4.370  0.0242 -0.0388  0.1521
 5521W        W48574  12.321  20.302   6.000  0.0113 -0.0359 -0.0277
 5522W        W48575   5.150  33.263   2.463 -0.2310  0.0681  0.1208
 5523W        W48576  12.940  31.389   0.968  0.2990 -0.1299  0.0163
 5524W        W48577  21.435  21.669   7.631 -0.1505  0.0274 -0.2789
 5525W        W48578  20.954   4.607  25.267 -0.0457  0.1711 -0.0855
 5526W        W48579  23.630  11.978   6.007  0.1653 -0.0514  0.0059
 5527W        W48580  21.671   6.341   3.608 -0.0682 -0.0478 -0.1290
 5528W        W48581  12.259  18.862  23.054  0.0463 -0.0828 -0.1885
 5529W        W48582  12.768  17.996   3.601  0.2149 -0.0353 -0.0853
 5530W        W48583  23.953  27.192   5.868 -0.1600  0.1892 -0.0598
 5531W        W48584  19.480  25.598   0.523  0.0295 -0.1312  0.1609
 5532W        W48585   7.972  13.024   2.018  0.1437 -0.0126 -0.0366
 5533W        W48586   5.785  33.049   3.327  0.4717 -0.1380  0.3626
 5534W        W48587  22.553  23.638  26.824 -0.2150 -0.0083 -0.0279
 5535W        W48588  13.427  28.006   8.339  0.3206 -0.0041  0.0624
 5536W        W48589  16.429  15.518  26.402  0.1792  0.2166  0.1321
 5537W        W48590  22.822  26.606   7.437  0.1152 -0.1681  0.0516
 5538W        W48591  25.063  20.441   9.575  0.0712 -0.1798  0.2537
 5539W        W48592  17.144  14.730   0.546  0.0268  0.0667 -0.0585
 5540W        W48593  31.008  26.141   4.266  0.0484  0.1799 -0.0860
 5541W        W48594   9.112   0.496   8.234  0.2242  0.0146  0.0897
 5542W        W48595  14.865  27.793   3.837  0.5085  0.0439  0.2298
 5543W        W48596  27.001  20.188   4.503  0.0760  0.1852 -0.2402
 5544W        W48597  12.453  31.537  22.366 -0.3581 -0.0816 -0.0811
 5545W        W48598  16.756  16.503  28.221  0.3229  0.1143 -0.3882
 5546W        W48599  26.547  25.952  26.547  0.0241 -0.1446  0.2613
 5547W        W48600  10.577  22.958  28.699 -0.2240  0.3271 -0.0613
 5548W        W48601   4.237  31.072   5.713 -0.1399  0.2764  0.1791
 5549W        W48602   5.327  25.454   5.038  0.1166  0.0763 -0.0910
 5550W        W48603   8.892  32.370   2.146  0.2901 -0.0690  0.1867
 5551W        W48604  12.735  31.050  27.860  0.0341 -0.1566 -0.3102
 5552W        W48605  16.888  24.797   9.609 -0.1137  0.2434 -0.3994
 5553W        W48606  25.853  34.069   7.079  0.1160 -0.0450 -0.0604
 5554W        W48607  23.133  23.597  10.184  0.0049 -0.1492 -0.1503
 5555W        W48608   4.594  21.291   5.916  0.2588  0.2475 -0.4472
 5556W        W48609  24.058  18.444   4.380 -0.0949 -0.1897 -0.2408
 5557W        W48610   9.535  28.025   3.719  0.0829 -0.0505 -0.1378
 5558W        W48611  21.802   1.847  20.150  0.2974  0.0082  0.0166
 5559W        W48612   7.192  18.549   4.922 -0.2404 -0.0426 -0.1237
 5560W        W48613  14.093   5.906   5.432 -0.3183  0.2225 -0.0566
 5561W        W48614  22.949  13.485   3.083  0.1635 -0.1629 -0.1383
 5562W        W48615  15.148  17.019   2.889  0.1802 -0.1980  0.2561
 5563W        W48616  27.156  21.306  26.889 -0.3468 -0.2480 -0.0666
 5564W        W48617  30.154  20.609   0.468  0.0854 -0.0124  0.0038
 5565W        W48618  24.732   2.708   4.608 -0.3003 -0.0789 -0.0108
 5566W        W48619  11.558  24.085  29.084  0.0925 -0.2613 -0.2036
 5567W        W48620  18.095  19.574   5.912  0.0520 -0.1846 -0.3501
 5568W        W48621  24.033  28.645  17.257  0.3008 -0.3061  0.3593
 5569W        W48622  15.624  18.651   8.303  0.1405  0.0462  0.1064
 5570W        W48623  16.391  21.544   6.221 -0.0091  0.2271  0.1185
 5571W        W48624   2.382  26.191  24.986  0.1298  0.2853 -0.0179
 5572W        W48625  12.802  15.473   6.655  0.1916 -0.3401  0.3234
 5573W        W48626   3.353   5.322  23.077 -0.1566 -0.0392  0.0509
 5574W        W48627  15.728  15.542   8.803  0.0045 -0.0578 -0.5172
 5575W        W48628  29.873  26.973   9.313 -0.1652 -0.2520 -0.0779
 5576W        W48629   7.337  26.630   9.532  0.0722  0.0014  0.3916
 5577W        W48630  15.171   6.659   1.180 -0.2573  0.1526  0.0214
 5578W        W48631   9.399  19.534  10.087 -0.0295  0.3876 -0.1101
 5579W        W48632  22.090  29.761   7.151  0.2026  0.3022 -0.1013
 5580W        W48633  31.204  29.142  26.586 -0.1522 -0.0854  0.1156
 5581W        W48634   5.441  33.326   5.140  0.2731 -0.0838 -0.2385
 5582W        W48635  18.032  12.882   1.499  0.2259  0.0459 -0.0409
 5583W        W48636  10.961  22.523   9.639  0.2493  0.1301  0.1042
 5584W        W48637  12.961  15.691   9.906  0.0603  0.1776 -0.0185
 5585W        W48638   5.091  23.384   7.970  0.1047  0.1248 -0.2713
 5586W        W48639  12.227  12.667   6.021  0.1408 -0.0760  0.1185
 5587W        W48640  19.343  10.034   4.432  0.0172 -0.0311  0.1836
 5588W        W48641  32.332  27.786   0.835 -0.0860  0.3696  0.1876
 5589W        W48642  21.219  34.554   3.373  0.3916 -0.0265 -0.1489
 5590W        W48643  18.680  26.373   2.935 -0.1068  0.2208  0.0404
 5591W        W48644  24.606  19.077  26.112  0.1955 -0.2236  0.2713
 5592W        W48645   0.830  16.177   6.346  0.1278  0.2185 -0.1613
 5593W        W48646  14.966   1.405   1.893 -0.0598  0.0492  0.1450
 5594W        W48647  16.994  32.363   6.384  0.3066  0.1422 -0.1039
 5595W        W48648  25.191  15.174  24.531  0.0714 -0.3093  0.0833
 5596W        W48649  13.618  27.841  27.211  0.1152  0.0026 -0.0661
 5597W        W48650  13.350  27.162   1.951 -0.3164  0.2664 -0.1102
 5598W        W48651  20.668  33.933   1.757  0.0788  0.0730  0.2192
 5599W        W48652  22.047  21.083   9.557  0.0849 -0.0688  0.1022
 5600W        W48653  10.114  27.023   7.288  0.1256  0.0112 -0.1492
 5601W        W48654  18.372   1.096   8.214  0.0129  0.1938  0.0928
 5602W        W48655  18.756  19.252   9.157  0.2211 -0.0282  0.3826
 5603W        W48656   7.017  20.744   7.423  0.0615 -0.1093 -0.0897
 5604W        W48657   2.371  20.579  20.273 -0.1068  0.0641 -0.0832
 5605W        W48658  34.002  24.676   8.602  0.0234 -0.0751  0.1151
 5606W        W48659  18.015  26.279   8.948  0.0876 -0.0166  0.2870
 5607W        W48660  15.674  32.649   1.984 -0.3131 -0.0956  0.0352
 5608W        W48661  21.765  27.110   9.783  0.0737 -0.0095  0.1159
 5609W        W48662  31.506  25.639  25.804 -0.0411  0.1267  0.2287
 5610W        W48663   9.881  18.800   4.392 -0.0419  0.3089  0.0637
 5611W        W48664  14.477  24.044   1.326  0.0441 -0.0375 -0.0064
 5612W        W48665   8.991  18.365   9.705  0.4518 -0.1577 -0.2052
 5613W        W48666   3.438  34.138  27.410  0.0311 -0.1096  0.0913
 5614W        W48667   8.771  21.725   1.632 -0.2351 -0.0300 -0.1064
 5615W        W48668  18.143  30.004   9.435 -0.2190 -0.2163 -0.1938
 5616W        W48669  29.600  16.575   7.561  0.3922  0.2422 -0.0105
 5617W        W48670  31.208  14.076   3.328  0.1049  0.0251  0.1688
 5618W        W48671   1.046  11.667   4.666  0.3770  0.0320 -0.1380
 5619W        W48672  17.973  17.018   4.701 -0.2211 -0.0721  0.1853
 5620W        W48673   2.328  29.871  18.608 -0.0280 -0.0321  0.0720
 5621W        W48674  18.610  29.872   8.926  0.1627 -0.0565 -0.0361
 5622W        W48675  23.954   2.093  28.935  0.0974  0.1003  0.1113
 5623W        W48676  26.790  16.339   7.167 -0.3310  0.2238 -0.1006
 5624W        W48677  19.728  26.662   7.984 -0.0545  0.1370 -0.2234
 5625W        W48678  20.148   0.308  21.513  0.1973  0.0474 -0.0893
 5626W        W48679  18.849  28.464   0.798  0.1913  0.0595 -0.1663
 5627W        W48680   6.949  33.565   0.730 -0.2336 -0.4371 -0.0084
 5628W        W48681  21.309  21.265   3.099  0.0159 -0.3098  0.1146
 5629W        W48682  25.118  33.577  16.298 -0.1366 -0.0111 -0.2906
 5630W        W48683  20.128  18.581   8.731  0.0455 -0.1702 -0.0688
 5631W        W48684  16.240   3.704   4.328 -0.2154 -0.1489  0.0315
 5632W        W48685  24.850  19.263   0.672 -0.1675  0.1523  0.0906
 5633W        W48686  11.172  19.463   2.406  0.3167 -0.3891 -0.2058
 5634W        W48687  14.962   1.505  27.492 -0.1118 -0.2258 -0.1260
 5635W        W48688   4.189  33.829   5.432 -0.0070  0.2385 -0.2878
 5636W        W48689  12.816  22.881   7.496  0.0450 -0.1290  0.1697
 5637W        W48690  24.788   5.716   7.443  0.0005  0.1457  0.0572
 5638W        W48691   2.761   3.677  19.664 -0.2261 -0.0555  0.0177
 5639W        W48692  34.650  29.823   5.608  0.1161 -0.0841 -0.0268
 5640W        W48693  31.013  34.466   2.116 -0.2448 -0.0057  0.0051
 5641W        W48694  31.547  33.848   6.377 -0.0321 -0.1879  0.3002
 5642W        W48695  13.807  16.527   5.532 -0.1306 -0.1663  0.0188
 5643W        W48696  11.719  28.196   1.240  0.2935  0.1086 -0.1729
 5644W        W48697  26.589   5.475  16.063  0.0995 -0.2560  0.0516
 5645W        W48698  27.948  12.936   4.624 -0.0311  0.3692  0.0029
 5646W        W48699  14.649  25.653   2.500  0.1412  0.0588  0.1937
 5647W        W48700   5.162  19.250   1.022  0.1556 -0.0256 -0.2861
 5648W        W48701  12.701  19.609   0.794  0.0218  0.3132  0.0611
 5649W        W48702  10.872   9.248  25.362 -0.4170 -0.0841  0.1280
 5650W        W48703   0.209  20.565   0.484  0.0600 -0.0581 -0.2107
 5651W        W48704  20.532  18.852   8.434  0.1455 -0.2566  0.0681
 5652W        W48705   0.866  19.528  16.837 -0.0297 -0.2390  0.0209
 5653W        W48706  18.927   3.169  28.278 -0.1095  0.1176 -0.0550
 5654W        W48707  21.923  28.775  27.787 -0.1971  0.1174  0.0805
 5655W        W48708  11.019  33.093   4.807  0.1014  0.1063 -0.0305
 5656W        W48709  24.251  25.063  10.497 -0.0044 -0.1944 -0.0604
 5657W        W48710  21.377   7.240  22.411  0.4059  0.0782  0.2015
 5658W        W48711   8.052  26.553   7.471  0.1403 -0.4126  0.0376
 5659W        W48712  26.570  18.234   8.512 -0.1111 -0.2074 -0.4809
 5660W        W48713  16.472  30.396  21.638 -0.0115 -0.0760 -0.2783
 5661W        W48714  22.058  28.498   7.076  0.0587  0.0214 -0.0015
 5662W        W48715  11.927  22.701  13.570 -0.1571 -0.2309  0.4455
 5663W        W48716   5.390  21.007  27.865 -0.1056  0.0398 -0.2093
 5664W        W48717  16.868   9.476   3.324 -0.0783 -0.0052 -0.2847
 5665W        W48718  20.723  31.268  18.569  0.0659 -0.0806  0.2007
 5666W        W48719  15.802   0.177  28.532  0.4475 -0.4837 -0.1213
 5667W        W48720  15.356   1.091   6.832 -0.1557 -0.0557 -0.1547
 5668W        W48721  14.135  21.315   2.809  0.0291 -0.3267  0.1770
 5669W        W48722   4.089   2.387   9.797 -0.0495  0.1791 -0.0103
 5670W        W48723  16.383  15.785  29.051  0.1290 -0.0996 -0.1260
 5671W        W48724  11.302  12.494  19.144 -0.1690 -0.0362 -0.0187
 5672W        W48725   9.775  29.085  23.700 -0.1088 -0.2841 -0.1158
 5673W        W48726  17.552  18.470  25.307 -0.1189  0.0132 -0.1327
 5674W        W48727   1.263  29.600   5.049  0.1930 -0.2568  0.0349
 5675W        W48728  14.962  23.338  28.380  0.3646 -0.4323 -0.0030
 5676W        W48729   6.700  33.049  27.349 -0.0005 -0.0673  0.3159
 5677W        W48730  18.365   0.818   4.103 -0.0436 -0.3697  0.0816
 5678W        W48731   3.214  15.643  17.454 -0.0226 -0.1618 -0.2780
 5679W        W48732   2.737   7.512   0.369  0.3570  0.0880 -0.0825
 5680W        W48733  15.945   2.521   9.229 -0.0208 -0.1094 -0.0778
 5681W        W48734  18.851  24.111   8.196 -0.0673 -0.1455 -0.1220
 5682W        W48735  32.352  14.931   4.220  0.0454  0.1034  0.1622
 5683W        W48736  19.660   6.104   5.097 -0.2482 -0.2569  0.1867
 5684W        W48737  17.577  14.363   0.573 -0.1742  0.1027  0.2961
 5685W        W48738  17.530  34.383  23.546  0.2621 -0.0878  0.3043
 5686W        W48739  10.485  31.299   9.629  0.0570 -0.1452 -0.0167
 5687W        W48740  21.941  32.222  10.442 -0.1254 -0.0096  0.1008
 5688W        W48741  17.861  27.702  25.791 -0.1407  0.0146 -0.3473
 5689W        W48742  19.162  16.935   4.443  0.3955  0.1783  0.4802
 5690W        W48743  18.428  21.006  26.148  0.0287  0.2309 -0.1344
 5691W        W48744   8.809  19.015   4.248  0.1816  0.1194 -0.3983
 5692W        W48745  25.328   7.253  18.616 -0.2152  0.0850 -0.0830
 5693W        W48746  11.792   4.816   8.661  0.0268 -0.0343 -0.0498
 5694W        W48747  18.293  31.415   8.685 -0.3883 -0.1343  0.1186
 5695W        W48748  21.065  10.405   7.021 -0.1856  0.3292 -0.2236
 5696W        W48749  30.957   9.892  18.097 -0.3371 -0.0684  0.1358
 5697W        W48750  13.366   1.909   2.382 -0.0796  0.3049 -0.0465
 5698W        W48751  11.024  23.453  28.995  0.1598  0.2188 -0.0279
 5699W        W48752  21.257  28.240   2.859 -0.1029 -0.0151 -0.0913
 5700W        W48753   5.792  26.767  23.111 -0.0776  0.1001  0.0729
 5701W        W48754  23.204   9.651   7.290  0.1234  0.0841 -0.0770
 5702W        W48755   6.015   8.761  25.300  0.0278 -0.0631 -0.1529
 5703W        W48756   2.525  13.144  26.664 -0.1831 -0.2797  0.1997
 5704W        W48757  26.254   0.874  17.847 -0.1393  0.1098  0.1235
 5705W        W48758  11.188  23.371   2.596 -0.3949 -0.0286  0.0405
 5706W        W48759  18.360   9.773   6.321  0.3659  0.2570 -0.0286
 5707W        W48760   8.250   9.297  21.093 -0.1091  0.1482  0.0335
 5708W        W48761   6.243   0.100   4.974 -0.3460 -0.1936  0.4129
 5709W        W48762  22.409  26.391   0.077 -0.1457  0.2725  0.3650
 5710W        W48763  25.558   1.869  24.111  0.0680 -0.3370  0.0772
 5711W        W48764   1.009  30.724  20.214 -0.0769 -0.1114 -0.0833
 5712W        W48765  13.888  19.401  23.820  0.2432 -0.0867 -0.1182
 5713W        W48766  10.994  26.423   9.123  0.3289  0.0239 -0.0666
 5714W        W48767  12.662  19.645  27.373  0.1635 -0.4123  0.0663
 5715W        W48768  33.881  18.305   4.301 -0.0354 -0.0368 -0.1079
 5716W        W48769  18.483  22.529   1.660  0.2914  0.2262  0.2063
 5717W        W48770  12.757  21.024   6.639  0.0653 -0.1085  0.1659
 5718W        W48771  13.564  12.147  23.817  0.1030 -0.5077 -0.1317
 5719W        W48772  26.809  27.267   5.303  0.0345 -0.0278 -0.1604
 5720W        W48773  14.660  30.398   1.941  0.0004 -0.2801  0.3973
 5721W        W48774   8.915  17.879  17.998  0.2539  0.1440 -0.1315
 5722W        W48775   3.673  18.203   3.746  0.1244  0.0306 -0.1290
 5723W        W48776   2.199  27.073   0.330 -0.4603  0.0390 -0.1442
 5724W        W48777  14.287  21.470  27.738 -0.2672 -0.0407 -0.3471
 5725W        W48778  19.870  17.993  27.691 -0.1410 -0.0353 -0.1072
 5726W        W48779   0.842  17.237  24.321  0.1497  0.1807 -0.2273
 5727W        W48780   9.890   2.545  25.770  0.0390 -0.1624  0.0169
 5728W        W48781  27.278   4.800   7.706  0.4542 -0.1582  0.5248
 5729W        W48782  11.746  18.463  19.025  0.0735 -0.3327 -0.0399
 5730W        W48783  16.546  11.431   4.473 -0.0471 -0.0515  0.0525
 5731W        W48784  17.063  22.691  28.240  0.1839 -0.1637 -0.0675
 5732W        W48785  34.111   6.878  28.095  0.1202  0.3735  0.0835
 5733W        W48786   3.330  10.621  16.902  0.0186 -0.0026 -0.0882
 5734W        W48787   1.051  27.251   8.798 -0.0016  0.0237  0.0123
 5735W        W48788  11.288  27.531   3.565 -0.0688  0.2304  0.2784
 5736W        W48789   6.160   9.761   5.664  0.0247  0.1204 -0.2785
 5737W        W48790  15.895   2.004   2.395 -0.1366 -0.1498 -0.4229
 5738W        W48791  22.779  20.347   5.809  0.0403  0.5244 -0.1813
 5739W        W48792  32.760  27.454  15.582 -0.0066 -0.1001 -0.4046
 5740W        W48793  19.996   1.276   4.120  0.2099  0.1538 -0.0835
 5741W        W48794  27.448  25.775  15.201 -0.1295 -0.2628 -0.2252
 5742W        W48795  18.625   6.425   8.467  0.0830 -0.1578  0.0845
 5743W        W48796  18.467  22.178   8.439  0.1223  0.1513 -0.2445
 5744W        W48797  19.794  24.500   8.338 -0.2780  0.1194 -0.2590
 5745W        W48798  13.076  21.204   2.857  0.0523  0.1187  0.0996
 5746W        W48799  32.939  15.456  23.965 -0.0442 -0.0375 -0.3873
 5747W        W48800  10.404  10.427   8.622  0.2145  0.0706  0.1479
 5748W        W48801  17.331  34.284   3.998 -0.3941  0.2665 -0.2108
 5749W        W48802  14.212  20.828   5.274  0.0984  0.2712  0.1102
 5750W        W48803  19.998  23.372  17.085  0.3478  0.3189 -0.2251
 5751W        W48804  12.614   3.583   8.091  0.2335 -0.0010  0.0984
 5752W        W48805  18.159  26.449  28.817 -0.1088 -0.2771 -0.0713
 5753W        W48806  19.292   4.402   1.116 -0.0602 -0.1701  0.1383
 5754W        W48807  16.431  23.223  22.930 -0.1151 -0.0750 -0.2349
 5755W        W48808  21.830  31.979   5.280 -0.1249 -0.4517 -0.0605
 5756W        W48809   9.213  26.532  24.166 -0.0399 -0.1021  0.2724
 5757W        W48810  10.426  26.825  20.879  0.2075  0.3403  0.0981
 5758W        W48811  25.155  22.056   6.929 -0.0571 -0.0627  0.0200
 5759W        W48812  17.556  14.387   5.979 -0.2169 -0.0336 -0.0267
 5760W        W48813  29.731  17.369   6.109 -0.1496 -0.6409  0.0866
 5761W        W48814  24.170  27.092  14.493  0.0897 -0.0925 -0.1370
 5762W        W48815  10.042   6.724  28.821  0.0290 -0.2480  0.0137
 5763W        W48816  10.694  22.663   2.731  0.0665 -0.1096  0.1927
 5764W        W48817  19.965  20.671   6.440  0.0252 -0.2869  0.2322
 5765W        W48818  24.481  24.246  15.869 -0.1362  0.1746  0.0670
 5766W        W48819  17.254   9.304   5.673 -0.0692  0.0192 -0.3895
 5767W        W48820   6.427  29.056   7.928  0.2057  0.2728 -0.2255
 5768W        W48821  14.362  28.326   8.347  0.0201  0.2345 -0.1568
 5769W        W48822   7.121  21.260   1.484 -0.1778  0.1405 -0.0725
 5770W        W48823  20.355  33.107  25.479  0.0452 -0.0217 -0.1033
 5771W        W48824  18.933   5.076   1.520  0.1440 -0.3095  0.0841
 5772W        W48825  20.713  29.312  27.060 -0.3320 -0.0230 -0.4223
 5773W        W48826  22.264   3.380   4.967  0.1170  0.2888 -0.1403
 5774W        W48827   2.177  32.144  15.402  0.0527  0.1656 -0.2034
 5775W        W48828  14.854  28.726   1.200 -0.4949  0.2839  0.2956
 5776W        W48829  10.009   0.657   2.879  0.1172  0.1212  0.0584
 5777W        W48830  22.167  34.570   6.775 -0.0971 -0.1266  0.0878
 5778W        W48831  28.394  26.605   1.320 -0.0113  0.0034 -0.0098
 5779W        W48832  14.809  31.600   0.918 -0.1722 -0.0537 -0.0048
 5780W        W48833  26.101  22.751  16.432  0.1509 -0.1056 -0.0112
 5781W        W48834   0.985   4.327   4.331  0.2042  0.0942 -0.1107
 5782W        W48835  22.874  26.893  24.646 -0.0323  0.4632 -0.0105
 5783W        W48836  13.220  29.573   0.428 -0.0550 -0.3158  0.1602
 5784W        W48837  26.145  30.154  20.456  0.1602 -0.0530  0.4002
 5785W        W48838  24.613  23.725  22.003 -0.1161  0.0839  0.2760
 5786W        W48839  10.161   3.087   3.816 -0.5137 -0.0730 -0.0494
 5787W        W48840  15.806  12.777  21.874 -0.1345  0.1976  0.0634
 5788W        W48841  24.232  15.453  26.335  0.3544 -0.0883 -0.1575
 5789W        W48842  19.453  23.743  19.239 -0.2392 -0.1264 -0.4148
 5790W        W48843  20.465  19.417   9.492 -0.1937 -0.0225 -0.0641
 5791W        W48844  10.947  15.032  25.195 -0.0182 -0.0511 -0.0893
 5792W        W48845  25.276  19.231   8.454  0.2033 -0.1598  0.0884
 5793W        W48846  20.626  18.227   6.799 -0.1767 -0.1791  0.0777
 5794W        W48847  15.561  25.660   4.355 -0.1564 -0.3059 -0.1203
 5795W        W48848  14.861  32.582  26.345  0.1666 -0.2392 -0.1811
 5796W        W48849  15.751  33.627  10.654 -0.2434  0.0370 -0.2073
 5797W        W48850  31.946  25.855  28.109 -0.0808  0.0625  0.1315
 5798W        W48851  13.592  10.585   3.037  0.0714  0.1454 -0.1782
 5799W        W48852  30.074  23.445  14.154  0.0464 -0.0888  0.1132
 5800W        W48853   7.855  22.455  23.653 -0.2288  0.0971 -0.2297
 5801W        W48854  20.234  13.648   5.723 -0.1660 -0.1308  0.5442
 5802W        W48855  21.674  30.019   0.018 -0.0560  0.0413 -0.2916
 5803W        W48856  17.132  21.183   9.277 -0.1200  0.0295 -0.3582
 5804W        W48857  17.653  23.468  23.716 -0.0879 -0.1433 -0.0037
 5805W        W48858  12.303  22.525  27.025  0.0040  0.2425 -0.1492
 5806W        W48859  12.568  12.913   3.597 -0.0300 -0.0370 -0.0516
 5807W        W48860  12.363  22.691   3.756 -0.4825 -0.0790  0.0171
 5808W        W48861  21.673   5.505  20.915 -0.0567  0.1003 -0.1150
 5809W        W48862   8.022  25.095  28.848  0.0526 -0.0943 -0.1119
 5810W        W48863  16.267  14.679   3.698 -0.3193 -0.0585 -0.1412
 5811W        W48864  13.691  26.884   3.977  0.0932  0.1685 -0.0428
 5812W        W48865  27.413  22.753  24.712 -0.1875 -0.2263  0.3123
 5813W        W48866  13.165  11.152  19.346  0.2316  0.2506 -0.1389
 5814W        W48867  14.220   0.823   4.206  0.0051 -0.1066  0.2353
 5815W        W48868  20.293  14.339   5.000 -0.1871  0.2257  0.0711
 5816W        W48869  15.075  13.801   9.457  0.3692  0.2146  0.3277
 5817W        W48870  24.718   7.074  27.318  0.0633 -0.0845 -0.1988
 5818W        W48871   9.306  19.819   2.194  0.0975 -0.0772 -0.1162
 5819W        W48872   5.503  21.085   6.939  0.5628 -0.0140  0.0721
 5820W        W48873   9.443  31.345   3.730 -0.1023  0.1266  0.2329
 5821W        W48874  27.290  31.760  24.769 -0.1997 -0.0739  0.0004
 5822W        W48875   0.977   1.265   0.211 -0.2362  0.0407  0.2246
 5823W        W48876  16.215  26.680   7.958 -0.2304  0.1261 -0.0197
 5824W        W48877  13.229  33.549   2.876 -0.0213  0.0257  0.2439
 5825W        W48878  11.943   0.708  27.319  0.3221  0.0646 -0.0882
 5826W        W48879  22.045  24.554  11.086 -0.0629  0.0562  0.1108
 5827W        W48880  20.660  26.588   0.838  0.1279  0.1514 -0.0264
 5828W        W48881  12.106  10.780  27.676 -0.2614  0.1781 -0.1751
 5829W        W48882  10.068  13.674   0.558 -0.0163 -0.2628 -0.2214
 5830W        W48883   4.302   5.485   8.739  0.0063 -0.1046 -0.0274
 5831W        W48884  21.920  25.403  26.957  0.0591  0.1159 -0.3604
 5832W        W48885  25.019  28.685  22.421  0.0270  0.0677 -0.0021
 5833W        W48886  22.300  27.692  25.731 -0.2002 -0.0266 -0.2067
 5834W        W48887  19.427  17.026   5.002 -0.1443 -0.0507 -0.3619
 5835W        W48888   2.365  25.123   6.586  0.0996 -0.1065  0.1754
 5836W        W48889   3.605   8.049  19.407  0.2049  0.0554 -0.0229
 5837W        W48890  13.644   0.783   0.115 -0.2565 -0.1407 -0.1701
 5838W        W48891  19.392  24.581   8.703  0.2283  0.0202 -0.1036
 5839W        W48892  17.431  22.541  26.057 -0.1607 -0.0182 -0.0619
 5840W        W48893  25.946  28.275  16.995  0.2693  0.1580  0.0175
 5841W        W48894  23.396  32.476  27.102  0.0619  0.0759 -0.1219
 5842W        W48895  27.691   0.241  23.992 -0.2115  0.2273  0.0622
 5843W        W48896  32.647   1.378   6.990 -0.1457  0.0578 -0.0389
 5844W        W48897  16.120  20.392   5.005  0.1185 -0.3274 -0.0865
 5845W        W48898  17.456  24.116   7.391  0.2092  0.1982 -0.0791
 5846W        W48899  31.118   3.958   1.680 -0.0744 -0.0977 -0.2584
 5847W        W48900  26.311   1.446  20.904 -0.2473 -0.0490  0.1910
 5848W        W48901  30.619   9.900   1.583 -0.2322 -0.1660 -0.0867
 5849W        W48902  21.307  23.841   2.754 -0.1587  0.2298 -0.0686
 5850W        W48903  27.712  33.205   6.450  0.1046 -0.1838  0.1819
 5851W        W48904  15.910  28.325   9.920  0.0533 -0.0572 -0.0348
 5852W        W48905   8.584  29.280  22.219 -0.3332  0.3005  0.3304
 5853W        W48906  10.267  25.419   0.890 -0.0593 -0.3922 -0.2405
 5854W        W48907  14.520  27.500   1.463 -0.0417 -0.2554  0.1816
 5855W        W48908  15.855  18.296   5.895  0.0002  0.1749  0.0508
 5856W        W48909  21.220  23.126   1.489  0.1464  0.0171 -0.1078
 5857W        W48910  19.378  34.558  26.191 -0.0848 -0.0625  0.0225
 5858W        W48911  30.805   6.886   5.182 -0.3888  0.0879 -0.1900
 5859W        W48912   8.250  16.937   3.628 -0.4800 -0.3023  0.0405
 5860W        W48913  29.072  26.619   7.799 -0.0684 -0.0226 -0.0094
 5861W        W48914  15.157  24.767   3.979  0.0374  0.4101  0.1339
 5862W        W48915  25.528  21.077  29.135  0.1196  0.0996 -0.0690
 5863W        W48916  30.857  13.536  23.690 -0.0241 -0.0692  0.1080
 5864W        W48917   8.813  33.400   2.644 -0.0607  0.0557 -0.3459
 5865W        W48918  10.774  32.904   4.419  0.1337 -0.1690  0.3693
 5866W        W48919  16.158  21.320   9.644  0.1233 -0.1278  0.0455
 5867W        W48920  25.122   7.844  22.215 -0.2075  0.0383 -0.1852
 5868W        W48921  20.082  18.942  26.264  0.1379  0.0414  0.3283
 5869W        W48922  24.833  25.931   0.440 -0.0947 -0.1704  0.2925
 5870W        W48923  25.685   1.567   5.297 -0.1344  0.5026  0.3304
 5871W        W48924   9.232  25.331  19.718  0.0501 -0.1438 -0.3030
 5872W        W48925  31.771   1.694  28.326  0.2812  0.1080  0.0186
 5873W        W48926  27.361   8.575   4.674  0.1631  0.3228  0.1422
 5874W        W48927  20.841  27.266  28.294  0.2046  0.0080 -0.1176
 5875W        W48928   4.245  30.699   7.173 -0.1618  0.0423 -0.1662
 5876W        W48929  23.456  29.156  25.845  0.0063 -0.2107  0.0865
 5877W        W48930  15.714  21.688  24.697  0.0183 -0.2890  0.4262
 5878W        W48931  19.293  20.752  25.454  0.1687 -0.1530  0.0455
 5879W        W48932  14.480  33.194   6.442 -0.2547 -0.0611 -0.5117
 5880W        W48933  21.432  26.010  20.787 -0.2277 -0.1730  0.0319
 5881W        W48934  11.878  30.250   7.090 -0.0847  0.2876  0.1421
 5882W        W48935   1.483  31.633  25.462 -0.1437 -0.0180  0.1405
 5883W        W48936  27.603  29.026   2.266  0.2427 -0.2950  0.1176
 5884W        W48937  18.251  28.846   0.038 -0.1483  0.0798 -0.1758
 5885W        W48938  17.160  25.882  23.662  0.0329  0.0094 -0.0569
 5886W        W48939   9.930   0.070  25.071 -0.1664  0.4349  0.1033
 5887W        W48940  22.185  18.891  18.923  0.2334 -0.4813  0.5350
 5888W        W48941   6.381  31.169   4.073 -0.0610  0.1523  0.0607
 5889W        W48942  32.690  30.178  20.744 -0.3198  0.0524  0.4020
 5890W        W48943   2.094  24.403   7.291 -0.0191  0.1597 -0.1806
 5891W        W48944  21.348  10.681   8.808 -0.0317  0.1300  0.0310
 5892W        W48945  28.760   3.900   1.958 -0.0259 -0.0461  0.0083
 5893W        W48946  23.407  21.027  27.639 -0.0520  0.1266 -0.0580
 5894W        W48947   6.924  27.656  27.354  0.4150  0.0288 -0.1167
 5895W        W48948  15.321  27.898   2.916 -0.0944  0.1820 -0.2128
 5896W        W48949  16.434  13.504   6.411  0.0726  0.0280  0.3797
 5897W        W48950  21.211  21.766   7.109  0.2372 -0.1881  0.2394
 5898W        W48951   8.322  19.803  27.938 -0.2018  0.0747 -0.0872
 5899W        W48952  14.448   0.690   2.246  0.3786 -0.0164  0.2613
 5900W        W48953   6.889  34.339   7.358  0.0239 -0.0587  0.4250
 5901W        W48954  26.821  28.826  18.500  0.0335 -0.0364  0.0219
 5902W        W48955  25.461  27.290  15.874 -0.1870 -0.1835  0.2778
 5903W        W48956  16.369  18.206  28.769 -0.0527  0.2294 -0.1801
 5904W        W48957  33.858  26.561   8.880  0.1363  0.1372  0.0652
 5905W        W48958  14.631  26.572  24.355 -0.3869  0.0985  0.2024
 5906W        W48959  14.724  30.192  28.612  0.2331  0.1665 -0.0144
 5907W        W48960  17.760  28.468   4.059 -0.0404 -0.0613 -0.0971
 5908W        W48961  13.404  29.531  23.252  0.1389  0.0011  0.0169
 5909W        W48962  17.647  15.883   5.468  0.1508  0.0846  0.3599
 5910W        W48963   9.767  11.793  29.021  0.0229 -0.1183  0.0106
 5911W        W48964  18.510  17.211   6.525 -0.4963  0.1660 -0.1746
 5912W        W48965  23.147  17.719  10.180  0.3301  0.1544  0.2532
 5913W        W48966  29.299  25.103   4.221 -0.1211 -0.0323 -0.0519
 5914W        W48967  17.093  16.964   0.162  0.0196  0.2189 -0.1161
 5915W        W48968   8.035  29.260   4.218 -0.0045  0.0164 -0.3534
 5916W        W48969  12.572  28.773   5.270 -0.1246  0.3273  0.2107
 5917W        W48970  18.495  23.774   7.912 -0.5710 -0.1168  0.1849
 5918W        W48971  20.089  13.991   2.988 -0.0938  0.1209  0.1070
 5919W        W48972   4.143   9.355  21.145  0.0620  0.3483 -0.1890
 5920W        W48973  13.345  25.362   9.879  0.0006  0.2045  0.3928
 5921W        W48974  23.218  11.175   8.338 -0.1410 -0.2335  0.0870
 5922W        W48975  27.336   4.468   7.110 -0.2848  0.2753 -0.1107
 5923W        W48976  12.000   0.369  21.447  0.2135 -0.0499 -0.2794
 5924W        W48977  25.774  31.097   3.318  0.2075 -0.1382  0.1057
 5925W        W48978   6.125  21.895   2.756  0.0560  0.0696  0.1990
 5926W        W48979  11.305  17.426  23.304  0.0351 -0.1139  0.1103
 5927W        W48980  26.756  27.252  29.044 -0.1965 -0.0950  0.3494
 5928W        W48981  19.104  24.905  21.515  0.1995  0.0355 -0.4154
 5929W        W48982  25.008  10.301   6.569  0.2329 -0.0603  0.0087
 5930W        W48983  28.832   3.618   0.077  0.2688 -0.1734 -0.2126
 5931W        W48984  16.038   0.081  23.630  0.1215  0.1159  0.3337
 5932W        W48985  16.865  24.338  25.816  0.1871 -0.1775 -0.0847
 5933W        W48986   0.293  24.196   5.386 -0.0938  0.2517 -0.2428
 5934W        W48987  22.935  30.391   1.523 -0.0080 -0.0960 -0.0003
 5935W        W48988  29.711  30.881  15.374  0.0075  0.3195  0.0241
 5936W        W48989   5.471  16.946  25.974 -0.1868 -0.0730  0.1145
 5937W        W48990  29.155   3.855  24.707  0.1447 -0.1053 -0.2168
 5938W        W48991  19.507   2.652  26.716 -0.0816  0.0998  0.2600
 5939W        W48992  27.327   0.930  24.596  0.0446  0.2142  0.0687
 5940W        W48993   8.824  31.443  28.654 -0.0102  0.0450  0.0614
 5941W        W48994  18.635  30.298  28.156  0.2282  0.0979 -0.1199
 5942W        W48995  19.116  29.497   0.071 -0.2578  0.0158 -0.0849
 5943W        W48996  33.184  23.025   1.909  0.1376 -0.2543 -0.0375
 5944W        W48997  20.270  33.712   8.036 -0.2061 -0.0602 -0.3510
 5945W        W48998  20.603  26.121   0.373 -0.0080  0.0527  0.0132
 5946W        W48999  27.139   0.728  26.586 -0.2367  0.2866 -0.0536
 5947W        W49000  13.079  25.942   2.921  0.0702  0.3752  0.5139
 5948W        W49001  12.986  30.289  26.100  0.0102 -0.2264  0.1482
 5949W        W49002   1.267  29.218   6.580 -0.0008 -0.3089  0.1795
 5950W        W49003   9.509  22.542   8.006  0.5359  0.1241 -0.3193
 5951W        W49004   8.480  31.525   7.087 -0.0667  0.2703  0.0911
 5952W        W49005  22.090  16.178   1.861  0.0008 -0.0169 -0.1298
 5953W        W49006  23.928  34.574  26.451 -0.0018  0.0912  0.2812
 5954W        W49007  29.838   2.296   8.171  0.1303  0.0160  0.2602
 5955W        W49008   6.476  19.185  14.055  0.1377  0.1028  0.0636
 5956W        W49009   5.800   2.558   7.112  0.4651 -0.2851  0.2113
 5957W        W49010  23.467  21.464  25.176  0.2967  0.0033 -0.1686
 5958W        W49011  32.802  28.305   2.638  0.0226  0.0147 -0.1279
 5959W        W49012  14.001  22.197  16.731  0.1447  0.1329  0.1636
 5960W        W49013  15.345  31.678  26.438  0.1022  0.4125 -0.0579
 5961W        W49014  22.108  31.901   3.556  0.1925 -0.1385 -0.0909
 5962W        W49015  23.665   2.049  26.649  0.0659 -0.0232 -0.2385
 5963W        W49016   8.853  24.661   7.199  0.1996  0.0211  0.0936
 5964W        W49017  18.390  16.972   7.366 -0.2170 -0.1513  0.0576
 5965W        W49018   7.800   2.298   7.424  0.0221  0.2351  0.3133
 5966W        W49019   1.683  29.994   6.164  0.2130 -0.0323  0.0666
 5967W        W49020  27.964  31.598   7.395  0.1697  0.3154 -0.4141
 5968W        W49021  20.927  14.157  19.176  0.1680 -0.0572 -0.1247
 5969W        W49022  24.697  14.222   4.776  0.0319 -0.2533  0.2457
 5970W        W49023   4.720  20.529   8.454  0.2626  0.2712 -0.0340
 5971W        W49024   5.530  34.102  23.643  0.0037  0.0177 -0.0735
 5972W        W49025   6.567  21.395   9.138 -0.2907  0.0992 -0.0744
 5973W        W49026  24.672  25.002  26.932 -0.1804  0.0131 -0.3806
 5974W        W49027  20.140  34.044  24.930  0.1053  0.0527  0.3126
 5975W        W49028  12.550  20.797   4.333 -0.3135 -0.0467  0.0753
 5976W        W49029   8.867  23.831  22.428 -0.0223  0.3262 -0.1400
 5977W        W49030   4.551  27.588  20.255 -0.0653 -0.0318 -0.0314
 5978W        W49031  24.719  23.094  27.908 -0.2938  0.1003 -0.2845
 5979W        W49032  22.578  25.756   9.415 -0.0091  0.1576  0.0652
 5980W        W49033  13.016  21.275  14.143 -0.1543 -0.1748 -0.2120
 5981W        W49034  26.890  18.894  26.562  0.1960 -0.3290  0.1947
 5982W        W49035   6.855  16.913   4.893  0.1039 -0.3709 -0.0547
 5983W        W49036  19.582  30.951  20.029 -0.0495  0.3374 -0.0378
 5984W        W49037  21.713  14.823   8.039 -0.2672 -0.1800 -0.4194
 5985W        W49038  17.392  31.098  20.845 -0.2457  0.2153  0.0711
 5986W        W49039  18.394  18.825   8.906 -0.2220 -0.2584 -0.1523
 5987W        W49040  20.219  21.362  10.298 -0.0594  0.0464 -0.0820
 5988W        W49041  17.208  28.517  17.091 -0.3377  0.0516 -0.1058
 5989W        W49042  10.903  26.411   0.125 -0.2028 -0.0142  0.2629
 5990W        W49043  22.611   9.325  17.718 -0.0430  0.2866 -0.2256
 5991W        W49044  22.499   7.444   9.653 -0.1586  0.1287 -0.1101
 5992W        W49045   8.616  22.009  21.149 -0.1200 -0.0917  0.2855
 5993W        W49046  13.652   0.105   9.156  0.1793  0.0207  0.0004
 5994W        W49047  12.595  25.131   5.654  0.2959  0.1149  0.1185
 5995W        W49048  26.225  20.877   6.972 -0.0279 -0.0670  0.2119
 5996W        W49049  13.481  31.646  24.706 -0.1273  0.0429  0.0479
 5997W        W49050  25.233  20.430   4.546  0.0457  0.5379  0.1947
 5998W        W49051  25.829  22.318   6.646 -0.0902 -0.2341 -0.0476
 5999W        W49052  17.934   8.717   7.831 -0.1622  0.1306  0.0501
 6000W        W49053   4.393  28.003  15.006  0.2127  0.0658 -0.2348
 6001W        W49054   5.016  24.259   6.670  0.0176 -0.3857  0.0163
 6002W        W49055  25.848  29.229  19.668 -0.3285 -0.0466 -0.0767
 6003W        W49056  23.129  25.821  23.211 -0.2303  0.3504 -0.2191
 6004W        W49057  14.716  31.371   0.398 -0.3877  0.0099 -0.0684
 6005W        W49058  15.447  33.154   9.907  0.1351 -0.0366  0.1295
 6006W        W49059  10.710  27.198   8.149 -0.1227 -0.3631  0.2744
 6007W        W49060   0.164  29.727  19.568 -0.0213  0.4877 -0.0119
 6008W        W49061   8.342  26.327   4.390 -0.0801  0.1069 -0.1597
 6009W        W49062   1.277  23.029  24.506  0.1371  0.0164  0.3828
 6010W        W49063  12.489  32.486  24.247 -0.1647  0.1386  0.0545
 6011W        W49064  28.870  27.448  20.669  0.2510  0.2139 -0.1771
 6012W        W49065  26.755   0.858   4.937 -0.6104 -0.1676  0.1617
 6013W        W49066  17.766  15.445  14.172  0.0449  0.5718  0.3093
 6014W        W49067  24.256  16.254   5.032 -0.1750 -0.1104  0.0473
 6015W        W49068  24.776  16.254  10.013  0.1541 -0.1618  0.4454
 6016W        W49069  13.072  31.992  22.639  0.0636  0.2938 -0.0273
 6017W        W49070   3.093  20.248   7.637 -0.2166 -0.3696  0.1529
 6018W        W49071  23.019   5.271   5.924  0.1640  0.1476 -0.2267
 6019W        W49072   5.836  29.800   5.056 -0.1976 -0.0848  0.0128
 6020W        W49073  28.469   0.768   1.642 -0.2389 -0.0704 -0.2103
 6021W        W49074  19.867   6.301   9.092 -0.0333 -0.0183  0.0837
 6022W        W49075  20.552  17.943   9.403  0.0286 -0.0610  0.1216
 6023W        W49076  16.506  26.261   1.783 -0.0879 -0.0567 -0.0768
 6024W        W49077  28.619  26.573   5.865 -0.0819 -0.3733 -0.0311
 6025W        W49078   3.187   3.184  28.190 -0.2672 -0.1335  0.0596
 6026W        W49079  25.362   5.484   5.818 -0.0630 -0.1135  0.3868
 6027W        W49080  13.638  18.687   0.656  0.1174 -0.0589 -0.0021
 6028W        W49081  25.563  28.716   2.929 -0.0878  0.1785  0.1582
 6029W        W49082   1.549  24.152   8.376 -0.4067  0.1655  0.6395
 6030W        W49083   4.449  18.086   7.833 -0.1081 -0.1209  0.1123
 6031W        W49084  33.014  22.446  17.156  0.0175 -0.2905 -0.0670
 6032W        W49085  31.901   8.809   7.881  0.0212 -0.1884 -0.1838
 6033W        W49086  12.973  30.742   5.880 -0.0910  0.0497  0.0823
 6034W        W49087   9.440  12.874   8.068  0.1823 -0.1655 -0.2997
 6035W        W49088  16.411  23.605   6.575 -0.1914 -0.0628  0.1242
 6036W        W49089  25.583   3.131   5.064  0.1863  0.5402  0.1323
 6037W        W49090  14.871  27.776   0.923  0.2251  0.1393 -0.1447
 6038W        W49091  33.756  23.087   7.172 -0.0474  0.2397 -0.1985
 6039W        W49092  12.609  22.291  27.340  0.3648  0.1276 -0.2538
 6040W        W49093  16.278  25.105   9.347  0.1713 -0.1437  0.1881
 6041W        W49094  34.005   4.576  21.725 -0.0337 -0.0759  0.0570
 6042W        W49095   5.424  30.465   4.871  0.2603  0.2480 -0.3593
 6043W        W49096   8.365  32.717   2.737 -0.1133  0.0272 -0.3179
 6044W        W49097  14.753  32.430   2.904 -0.1606  0.2589  0.2898
 6045W        W49098  24.762  25.309  10.285 -0.1165  0.0024  0.2070
 6046W        W49099  33.627  21.680   3.659  0.0802  0.1924 -0.0893
 6047W        W49100  21.275  28.526   1.447 -0.0265  0.0109  0.2264
 6048W        W49101  10.231  20.424  27.896  0.3083  0.2320  0.0805
 6049W        W49102  10.924  11.170  24.096 -0.2887  0.1981 -0.1120
 6050W        W49103   1.598  27.939  26.332 -0.0051 -0.1813  0.0164
 6051W        W49104  30.757  21.679   9.484  0.2555 -0.0889 -0.0584
 6052W        W49105  17.148  28.069  17.269  0.1280 -0.0413 -0.0805
 6053W        W49106   7.938   7.296  10.207  0.0825 -0.0429  0.1112
 6054W        W49107  15.074  27.417   1.283  0.0733  0.0141  0.2162
 6055W        W49108  27.515  17.137  23.151 -0.2770 -0.0788  0.1329
 6056W        W49109  20.417  11.741   9.247 -0.1621 -0.1985 -0.0141
 6057W        W49110  22.913  27.207   6.013  0.1175  0.1678  0.1585
 6058W        W49111  30.502   8.438   7.809  0.1382  0.1337 -0.0213
 6059W        W49112  24.994   2.130  27.124  0.0187  0.0417 -0.3947
 6060W        W49113  22.515  26.220   7.504 -0.3186 -0.2112 -0.0032
 6061W        W49114  19.215  29.388   5.034 -0.3383 -0.0034 -0.0373
 6062W        W49115  23.208  25.435   8.665 -0.1321  0.1363 -0.4319
 6063W        W49116  21.231  17.700   5.533 -0.3038  0.1879  0.0645
 6064W        W49117  23.344  18.258  29.097  0.0974  0.1605 -0.3870
 6065W        W49118  22.074  32.839   9.678  0.0321  0.4613  0.0011
 6066W        W49119   3.561  19.802   5.011  0.0584  0.3185  0.0925
 6067W        W49120   6.427  20.158   9.413  0.1606  0.0312  0.1054
 6068W        W49121  13.945  28.627   5.599  0.1258 -0.0442  0.0902
 6069W        W49122  16.089  33.463   1.047  0.3461  0.1468 -0.0016
 6070W        W49123  17.659  30.175   9.005 -0.0496 -0.2880 -0.0324
 6071W        W49124  13.870   9.432  26.714  0.3348 -0.1209 -0.2019
 6072W        W49125  20.482  29.439   7.629 -0.1684  0.3685  0.2005
 6073W        W49126   1.000   7.565   7.940  0.1780 -0.1055 -0.1267
 6074W        W49127  22.475  27.331   0.496  0.2010 -0.1273 -0.1840
 6075W        W49128   5.461  23.789   7.814 -0.0588  0.2105  0.2784
 6076W        W49129  12.124   3.589  28.576 -0.0698  0.0493 -0.2048
 6077W        W49130  20.220  29.468   9.553  0.1638  0.0693  0.2560
 6078W        W49131   3.072  25.284  24.515 -0.1042  0.1190  0.1062
 6079W        W49132  19.688  32.903   3.593 -0.0107  0.4098  0.2414
 6080W        W49133  15.215  26.169   7.175 -0.0988  0.0177  0.0006
 6081W        W49134  18.602  27.105   2.060  0.0703  0.0200 -0.2026
 6082W        W49135  15.921  23.510  27.364  0.6725  0.1624  0.0115
 6083W        W49136  30.008  29.190  17.275 -0.0536 -0.0918 -0.1749
 6084W        W49137  14.994  23.022   5.691  0.2746 -0.2345  0.2125
 6085W        W49138   8.887  26.793   0.677  0.0099  0.0892 -0.1121
 6086W        W49139  26.062  32.022  27.399 -0.0662  0.0052  0.2610
 6087W        W49140   9.812   4.707  21.100 -0.0068 -0.0483  0.2343
 6088W        W49141  11.608  20.129   1.414  0.2285 -0.0297 -0.1072
 6089W        W49142  20.760  19.547   3.086 -0.0442  0.0464  0.0231
 6090W        W49143  31.368  16.804  25.365 -0.4041 -0.1017  0.0823
 6091W        W49144  16.073  12.619   8.890  0.1424  0.3551 -0.0560
 6092W        W49145   9.791  24.758   6.194 -0.2033 -0.1892  0.0211
 6093W        W49146  22.840  20.327   4.656  0.2458 -0.0889 -0.1549
 6094W        W49147  29.654  20.872   6.643  0.1739  0.0867  0.0194
 6095W        W49148   9.548  19.126   8.658  0.0971 -0.0535  0.1927
 6096W        W49149  28.181  33.397   3.498 -0.1537  0.1930 -0.1014
 6097W        W49150  13.337  19.887   1.480  0.1031  0.1167 -0.0773
 6098W        W49151   7.313  23.667   2.082  0.0484 -0.1923 -0.0120
 6099W        W49152   9.855  32.519  10.213  0.0221  0.0734  0.1964
 6100W        W49153  13.198  15.711  22.189 -0.1598  0.1721 -0.1906
 6101W        W49154  26.693  16.409  26.387  0.0134 -0.0516  0.0317
 6102W        W49155  25.837  24.790  24.969  0.1687  0.2841  0.0927
 6103W        W49156  19.806  28.103   0.324 -0.2228  0.1973 -0.1952
 6104W        W49157  20.055  26.241  28.615  0.4539 -0.1457 -0.3960
 6105W        W49158  22.648  31.890   9.780  0.2475  0.0432  0.0471
 6106W        W49159  17.929  28.716   0.977  0.2765  0.0385 -0.2300
 6107W        W49160  21.095  11.117  20.957  0.1143 -0.1939  0.0803
 6108W        W49161  18.061  32.258  21.496  0.1536  0.3062 -0.0599
 6109W        W49162   7.904  18.106   8.522  0.0224  0.0085 -0.0958
 6110W        W49163  15.770  21.512  25.817  0.0174  0.1175 -0.0389
 6111W        W49164  16.561  24.014   8.962  0.3449  0.1297 -0.2997
 6112W        W49165  11.512  24.597  25.467  0.0794  0.0930 -0.0596
 6113W        W49166  27.166  10.560  28.509  0.0385 -0.2610  0.1324
 6114W        W49167  10.442   0.317  27.014  0.1043 -0.0260  0.3299
 6115W        W49168  15.147  21.266   3.087 -0.1801 -0.1054  0.0523
 6116W        W49169   9.477  22.283   2.099 -0.0750 -0.1580  0.0779
 6117W        W49170   3.849  30.679  27.178  0.1440 -0.3022  0.0335
 6118W        W49171  16.973  18.577  28.276 -0.1913  0.2441 -0.2371
 6119W        W49172  11.137  20.045   3.955 -0.1545 -0.2167  0.0079
 6120W        W49173  16.634  19.440  14.516  0.3989  0.0173 -0.0018
 6121W        W49174  15.515  25.334  26.712  0.0636 -0.1959 -0.0112
 6122W        W49175  16.339  22.033   5.830 -0.0330 -0.1666 -0.3857
 6123W        W49176   0.283   8.857   4.081 -0.0496  0.0800  0.1671
 6124W        W49177  26.259  25.747   3.457 -0.0997  0.1913 -0.1551
 6125W        W49178  22.003  25.813  21.546  0.0421 -0.1990  0.1961
 6126W        W49179   8.817  28.623  28.614 -0.2013  0.0180  0.0551
 6127W        W49180  14.920  21.294  22.945 -0.0606 -0.3190 -0.0121
 6128W        W49181   4.222  26.789  22.923  0.6097 -0.1838 -0.1479
 6129W        W49182  31.631  20.485  25.303  0.4345  0.0990 -0.1941
 6130W        W49183   5.204  31.845  23.758  0.1056 -0.0562  0.1504
 6131W        W49184  32.613  22.153  19.842  0.0938  0.0677 -0.0884
 6132W        W49185  17.494  23.695   7.830 -0.0256 -0.2610  0.2228
 6133W        W49186  18.260  16.974  22.952 -0.1505  0.1783  0.2480
 6134W        W49187   6.708  17.565   4.071 -0.1363  0.2255  0.0437
 6135W        W49188  15.003  15.202  26.596  0.1207 -0.1244 -0.0545
 6136W        W49189  18.226  12.449   5.424 -0.1535  0.0400  0.1007
 6137W        W49190   6.123  22.784  28.098 -0.0618 -0.0204 -0.3259
 6138W        W49191  31.028  25.496   9.381  0.3381  0.2074  0.0164
 6139W        W49192  16.234  18.818   7.062  0.0283 -0.1920  0.0595
 6140W        W49193  14.956  27.491   6.776 -0.0073  0.0687  0.1586
 6141W        W49194  13.422  16.503   2.438 -0.0774 -0.3227 -0.2834
 6142W        W49195  12.071   7.662   2.302  0.0958 -0.0761 -0.0710
 6143W        W49196  12.933  26.248  28.892 -0.1134  0.1574 -0.1348
 6144W        W49197  16.932   3.542   0.996 -0.2057  0.0332 -0.3095
 6145W        W49198  33.702   0.112   5.912  0.0535 -0.1023  0.2190
 6146W        W49199  13.299  27.964   9.278 -0.0970 -0.0157 -0.4024
 6147W        W49200  19.752  30.589   5.555  0.1629 -0.0460  0.2598
 6148W        W49201  21.839  24.887   4.414 -0.3171 -0.1518  0.2599
 6149W        W49202  19.258   2.550  10.244 -0.0052  0.1224 -0.0407
 6150W        W49203  20.232  18.123   7.380  0.2282  0.0404  0.2520
 6151W        W49204  11.384  23.776   9.337 -0.1546 -0.2196  0.1366
 6152W        W49205  16.890   1.843   9.836  0.0802 -0.1886  0.0266
 6153W        W49206  18.304  18.505   5.079 -0.0303 -0.2602  0.2366
 6154W        W49207  17.517  23.066   5.033  0.1101 -0.2696 -0.1366
 6155W        W49208  23.322  25.394  20.348  0.0089  0.0273 -0.3087
 6156W        W49209   9.830   4.411   5.880  0.1720 -0.0920  0.0678
 6157W        W49210  19.306  22.951  25.812  0.2155 -0.0999  0.0322
 6158W        W49211  15.179   9.939   6.179  0.2455 -0.2066  0.0069
 6159W        W49212  15.326  27.591   8.862 -0.2883 -0.1224 -0.0578
 6160W        W49213  16.881   7.775   3.863 -0.3282 -0.3593 -0.2377
 6161W        W49214  24.938  28.052   2.658  0.0400 -0.0304 -0.1961
 6162W        W49215  18.269  27.906   1.659  0.0451 -0.3214 -0.0895
 6163W        W49216  24.197  26.746   4.272 -0.0693 -0.2496  0.0453
 6164W        W49217  22.005  17.313  29.167 -0.1731  0.0959 -0.1195
 6165W        W49218  13.739  28.888   4.787  0.3772  0.4386  0.2346
 6166W        W49219  18.210  19.787   8.818 -0.2023  0.0920 -0.2880
 6167W        W49220   2.084  10.812   8.174  0.2484  0.1190  0.1711
 6168W        W49221  16.483  29.171   1.608  0.2181  0.0548 -0.1042
 6169W        W49222  20.797  28.043  27.062 -0.0759  0.1199 -0.1995
 6170W        W49223  22.932  21.491  26.065  0.1383 -0.0413  0.3506
 6171W        W49224  19.976   3.494   3.553 -0.1003  0.0378 -0.0462
 6172W        W49225  28.248   7.850  29.043 -0.1269 -0.1208 -0.1171
 6173W        W49226  23.382   1.183  18.598  0.0241 -0.1410 -0.3348
 6174W        W49227   0.846  13.422  26.754  0.1464  0.2330 -0.1545
 6175W        W49228   2.548   1.314   7.430 -0.4784  0.1076  0.0983
 6176W        W49229  32.523  28.107  13.827  0.2368  0.2506 -0.1230
 6177W        W49230   9.618  32.171  29.158  0.1750  0.1849 -0.5080
 6178W        W49231  18.033  26.786   0.791  0.1253  0.0927 -0.0176
 6179W        W49232   4.577  24.053   6.425 -0.2811  0.0503  0.0861
 6180W        W49233  10.937  26.401  27.987 -0.4398  0.1758 -0.2314
 6181W        W49234  14.295  14.824   9.870 -0.0627 -0.3226 -0.2244
 6182W        W49235  16.802  25.927  25.111 -0.0280  0.0936 -0.1775
 6183W        W49236  11.811  23.488   9.314  0.3361 -0.1840  0.2791
 6184W        W49237   4.177  27.748   2.869  0.1281 -0.1461  0.0995
 6185W        W49238  28.057  15.977   2.154 -0.0790 -0.2075 -0.1175
 6186W        W49239  25.878  33.795  23.291 -0.2393  0.3220 -0.2306
 6187W        W49240   7.443  17.402   6.296  0.1986  0.1631  0.0128
 6188W        W49241  13.210  22.087   8.156  0.0245 -0.1128  0.1036
 6189W        W49242  22.960  28.173  28.873  0.2018 -0.0648  0.1933
 6190W        W49243  17.438   8.908   6.047 -0.0400 -0.0326 -0.2052
 6191W        W49244  12.915  29.313   3.683 -0.1433  0.0310  0.0292
 6192W        W49245  13.820  12.364   8.224  0.3465  0.0501 -0.1855
 6193W        W49246   0.783  27.761   5.027 -0.4509  0.1471 -0.0021
 6194W        W49247   4.781  19.318  26.897  0.0979 -0.2731  0.1468
 6195W        W49248   2.105  28.595   6.942  0.3324 -0.1171 -0.1562
 6196W        W49249  27.212  33.155  25.996 -0.0126  0.0206 -0.4661
 6197W        W49250  21.145   5.466  27.011  0.0382 -0.0855  0.2288
 6198W        W49251  20.161  15.208   7.515  0.0806 -0.1857 -0.2025
 6199W        W49252  15.378  28.570  20.179 -0.0003 -0.2061  0.0172
 6200W        W49253   4.535   0.012   3.054 -0.0484 -0.2149  0.1629
 6201W        W49254   2.065  26.628   6.987  0.0244  0.2317 -0.1431
 6202W        W49255  18.579   4.559   5.437 -0.1557 -0.1290 -0.2304
 6203W        W49256  18.138  22.357   6.484 -0.1608 -0.2136 -0.0780
 6204W        W49257  16.746   8.535   6.154  0.3409  0.2129 -0.0559
 6205W        W49258  25.458  32.958   5.280 -0.0441  0.1425 -0.2722
 6206W        W49259  27.914  26.481  15.383  0.0063  0.0353  0.1576
 6207W        W49260  20.671   1.565   4.511  0.1265  0.1633  0.1301
 6208W        W49261  22.861  24.855   6.118  0.0534  0.3174  0.3420
 6209W        W49262  23.593  29.520   6.154 -0.3994  0.0322 -0.2789
 6210W        W49263  14.993   0.876   5.410  0.1553  0.0347 -0.1135
 6211W        W49264  24.618  19.480   2.677 -0.2142  0.0318 -0.1537
 6212W        W49265   4.854  28.827  24.776  0.0875  0.0752  0.0989
 6213W        W49266  23.090  30.200   6.170  0.0610 -0.0791  0.1025
 6214W        W49267  20.615  20.641   6.608 -0.1887  0.3325  0.1603
 6215W        W49268  20.171  33.133   9.646  0.0338 -0.0573  0.1362
 6216W        W49269  12.233  27.863  22.976 -0.2024  0.1843 -0.0465
 6217W        W49270   4.307  17.849  27.263  0.0277 -0.1270  0.1060
 6218W        W49271  14.692  29.957  19.345 -0.0641 -0.2040 -0.1617
 6219W        W49272   1.020   1.800  22.100  0.3809 -0.0327 -0.0440
 6220W        W49273   8.567  23.171   0.307 -0.2763  0.1494 -0.0242
 6221W        W49274  14.141  14.592  10.737  0.1520 -0.2059  0.2908
 6222W        W49275   7.359  30.348   4.685  0.0817 -0.0868 -0.0902
 6223W        W49276  16.049   1.433   4.887  0.1877  0.2704 -0.1792
 6224W        W49277   5.120  17.594   0.288 -0.0251  0.0841  0.3644
 6225W        W49278  30.312   5.068   0.464  0.1007  0.0656 -0.2534
 6226W        W49279  24.484  30.321   9.697  0.2444 -0.2503  0.0197
 6227W        W49280  14.411  31.346  27.031 -0.0192 -0.0452 -0.4047
 6228W        W49281  27.504   2.290  24.500  0.1164 -0.1112  0.0342
 6229W        W49282  12.663   3.955  28.694  0.1983 -0.0295 -0.0926
 6230W        W49283  19.904   4.915   4.067  0.1505  0.3569 -0.0539
 6231W        W49284  16.972  28.044   2.149  0.1746 -0.0205  0.1105
 6232W        W49285  20.240  25.813  24.556 -0.2034  0.3045 -0.0196
 6233W        W49286  27.930  11.400  22.508 -0.1359  0.2101 -0.1706
 6234W        W49287   2.165  14.177  24.681 -0.0205 -0.3832 -0.0968
 6235W        W49288  25.334   0.184   3.627 -0.0362 -0.0726  0.1421
 6236W        W49289  32.699  19.179  28.065  0.3660 -0.0694 -0.0549
 6237W        W49290  27.105  20.324   6.171 -0.1368 -0.1633  0.1946
 6238W        W49291  18.325   0.769   1.573  0.2269 -0.1449  0.0179
 6239W        W49292   9.793  28.829   1.760 -0.0045  0.1845  0.1166
 6240W        W49293  12.062  21.638   5.618  0.0031  0.1987  0.0062
 6241W        W49294   4.805  16.316   4.113  0.1068  0.2783 -0.0510
 6242W        W49295  18.983  24.364   5.470 -0.1547  0.1925  0.0188
 6243W        W49296   7.775  24.304   6.191 -0.1567 -0.1777 -0.4286
 6244W        W49297  17.952  27.989   9.587  0.0565  0.1720 -0.0458
 6245W        W49298  11.291   5.642   4.848 -0.1440  0.1202 -0.0167
 6246W        W49299   3.441  13.052   6.554 -0.2513 -0.1842  0.3232
 6247W        W49300   1.983   6.308   5.498 -0.0929  0.2043  0.0115
 6248W        W49301  19.897  15.789   2.840  0.0376  0.1328 -0.0863
 6249W        W49302  13.757   0.511   4.860 -0.0493 -0.2908  0.2435
 6250W        W49303  17.878   2.759   7.800 -0.1453  0.1309  0.1104
 6251W        W49304  22.289   2.117   7.807  0.1221  0.0303 -0.0659
 6252W        W49305  10.997  24.506   2.599 -0.1754 -0.0659 -0.0512
 6253W        W49306  21.598  31.502   2.758 -0.3643  0.3446 -0.3406
 6254W        W49307  20.748  27.736   8.169 -0.0398  0.2744 -0.2033
 6255W        W49308  20.446  28.189   9.158 -0.0965  0.3680 -0.3472
 6256W        W49309  20.828   2.753   7.103  0.0407 -0.0991  0.3014
 6257W        W49310   3.659   7.661   2.906  0.1760  0.0356 -0.0511
 6258W        W49311   1.173   6.808   8.440 -0.1127 -0.3363 -0.1154
 6259W        W49312  15.237  18.358   8.293  0.1275  0.0514 -0.0630
 6260W        W49313  16.015  22.247  27.641 -0.0484 -0.0282  0.1704
 6261W        W49314  10.498  26.645  27.917 -0.0546 -0.2753 -0.0775
 6262W        W49315   3.115  31.330  22.468 -0.0467  0.2109  0.0658
 6263W        W49316  13.935  29.340   8.327  0.2602  0.2456  0.0655
 6264W        W49317  28.729  17.106   7.406 -0.1474  0.1362 -0.0448
 6265W        W49318  15.761  32.635   0.498 -0.2584  0.3123  0.0512
 6266W        W49319  21.306  17.656   2.023 -0.1852  0.0057  0.1813
 6267W        W49320  26.801  24.906   5.544 -0.0588  0.0832  0.3453
 6268W        W49321  24.728  31.984   5.244 -0.1607  0.2993  0.1284
 6269W        W49322  18.506  21.147   8.911  0.1946  0.1303  0.0379
 6270W        W49323   9.128   6.919   7.618 -0.1236  0.0794  0.0073
 6271W        W49324  12.937  24.679  17.863  0.1075  0.0394  0.1057
 6272W        W49325  23.262  24.404   6.806 -0.0913 -0.2180  0.0507
 6273W        W49326  10.924  26.262   7.823 -0.2745  0.0600 -0.1557
 6274W        W49327  25.470  31.701  24.869  0.0997 -0.0126  0.0101
 6275W        W49328  13.820   3.540   4.300  0.2272 -0.1102  0.1686
 6276W        W49329  16.634  34.688   8.458  0.0915 -0.1810 -0.0467
 6277W        W49330  15.125  21.594  28.817 -0.2909  0.1217 -0.0133
 6278W        W49331  24.430  28.166  15.385 -0.0270  0.1682 -0.4516
 6279W        W49332  18.198  34.349   1.616 -0.1542 -0.0252 -0.1266
 6280W        W49333  25.248   1.745  26.786  0.2247  0.0032  0.1689
 6281W        W49334  15.619  22.903   2.386  0.0714 -0.2991 -0.2069
 6282W        W49335   4.477   7.425   3.880 -0.0075 -0.2806  0.1916
 6283W        W49336  10.732   7.019   6.985 -0.0680 -0.2358 -0.1172
 6284W        W49337  15.145   0.368   8.147 -0.0999 -0.0085  0.0128
 6285W        W49338  27.171  14.918   1.256  0.0091  0.1883  0.1740
 6286W        W49339   3.755  16.167  24.031  0.0338  0.2598 -0.0955
 6287W        W49340   3.821  19.758   8.233  0.0761  0.1061 -0.0197
 6288W        W49341  15.360  29.401  24.310  0.1184 -0.0357 -0.0826
 6289W        W49342  19.225  21.560   6.018  0.0374  0.1330 -0.0878
 6290W        W49343  19.471   4.203   7.094  0.1083  0.0480  0.0357
 6291W        W49344  11.885  33.117   9.316 -0.3153  0.0575  0.2366
 6292W        W49345  17.674   5.576  14.106 -0.2005 -0.0311  0.1930
 6293W        W49346  22.195  28.530  23.178  0.0081 -0.0514  0.3263
 6294W        W49347  30.981  22.456  27.993  0.1362 -0.0985  0.2594
 6295W        W49348  17.736  25.763   1.086  0.1699 -0.1049 -0.1570
 6296W        W49349  21.353   3.580  20.929  0.3449  0.1647  0.2859
 6297W        W49350   3.814  30.944   7.062 -0.3121 -0.0807  0.2965
 6298W        W49351  11.569  21.203   4.685  0.1866 -0.1751  0.2505
 6299W        W49352  27.647  22.921  10.137 -0.2839  0.1463  0.2436
 6300W        W49353  15.813   0.291   6.385  0.3438  0.1391  0.0996
 6301W        W49354  31.057  11.646   5.107 -0.1249 -0.1080  0.2563
 6302W        W49355  21.030  28.824   2.866 -0.0081 -0.4396  0.3826
 6303W        W49356   8.788  14.270   6.157  0.0186 -0.0438  0.0837
 6304W        W49357  20.841  26.672   3.199  0.1941  0.0960 -0.1210
 6305W        W49358  16.864  22.834  22.839 -0.2106  0.0804 -0.2474
 6306W        W49359   9.182  28.722   2.700 -0.0634  0.0059  0.1276
 6307W        W49360  13.858  12.689   9.134  0.2547 -0.0384 -0.0123
 6308W        W49361  17.998  26.331   3.360  0.1906 -0.2243 -0.1090
 6309W        W49362  22.200  10.173  27.597  0.0249  0.0553 -0.3902
 6310W        W49363  18.535  10.807   6.261  0.1863  0.3091  0.2340
 6311W        W49364  33.653   1.505  22.324  0.0733  0.1069  0.2018
 6312W        W49365  27.427  29.833   8.427 -0.1814  0.2447 -0.1007
 6313W        W49366  28.685   2.209  28.581  0.1114  0.2192 -0.0311
 6314W        W49367  21.885  22.032  23.416 -0.1439  0.1497  0.0495
 6315W        W49368  16.408  28.533   4.987  0.1909  0.2656  0.2327
 6316W        W49369  14.649  18.042  28.380  0.0088 -0.1005 -0.2629
 6317W        W49370   0.575  26.800  25.010 -0.0332 -0.1788  0.0235
 6318W        W49371  22.780  31.934  17.851  0.2312 -0.3530 -0.2025
 6319W        W49372  11.409   8.325   6.348 -0.0953 -0.2377  0.1101
 6320W        W49373  27.928  34.256   4.729 -0.0491 -0.0384 -0.0411
 6321W        W49374  31.316  27.155   7.217 -0.2491 -0.0249 -0.0442
 6322W        W49375  14.031  19.898   0.230 -0.0045  0.2382 -0.0345
 6323W        W49376   5.001  29.122  25.302  0.1005 -0.1544 -0.2457
 6324W        W49377  31.755  32.460  25.669 -0.1677  0.2598  0.1658
 6325W        W49378  19.905  26.007   3.510  0.0763  0.1125  0.0272
 6326W        W49379  14.532  33.803  21.754 -0.1063 -0.0398  0.0563
 6327W        W49380   9.943  16.850   9.638 -0.2407 -0.2853 -0.1880
 6328W        W49381  29.601  25.258   1.791 -0.1705 -0.1401 -0.3869
 6329W        W49382  19.068  14.333   5.049 -0.1083 -0.1811  0.0616
 6330W        W49383  32.594   3.198  25.522  0.1363 -0.0719 -0.2130
 6331W        W49384  24.888  16.916   9.089  0.0762  0.2755 -0.0528
 6332W        W49385  31.014   2.058  21.826  0.1454 -0.0297  0.1612
 6333W        W49386  14.059   8.924   2.959 -0.1021  0.0933  0.2212
 6334W        W49387   3.366   1.151  24.167  0.5670 -0.0421  0.2614
 6335W        W49388   7.781  17.477   7.164  0.0645 -0.1150  0.0379
 6336W        W49389  10.063  25.662   6.843  0.0302 -0.2996 -0.1338
 6337W        W49390  31.607  25.370   2.050 -0.1650 -0.0242  0.1610
 6338W        W49391  13.669  12.933   5.338  0.4094  0.1197 -0.0155
 6339W        W49392   3.261  26.159   4.070  0.1595 -0.0465 -0.2989
 6340W        W49393  12.647  26.074   8.681  0.0069  0.0461  0.0302
 6341W        W49394  11.280  15.956  26.190 -0.2420  0.1822  0.1939
 6342W        W49395   5.663  26.890   6.348  0.0955  0.0861 -0.1336
 6343W        W49396  22.544   1.655  21.582  0.0125 -0.0992  0.1470
 6344W        W49397  21.040  32.826  20.403 -0.3072 -0.1067  0.0738
 6345W        W49398  27.989  12.032   4.193 -0.0149 -0.0367 -0.2674
 6346W        W49399   8.562  26.205  24.823  0.2830 -0.0021 -0.0003
 6347W        W49400  21.733  24.302  27.511 -0.1163 -0.3077 -0.3349
 6348W        W49401  13.640   5.026   4.335 -0.2270 -0.0257 -0.2119
 6349W        W49402   9.242   3.977  23.026  0.0678 -0.1168  0.4802
 6350W        W49403  14.354  31.318   2.440 -0.2736 -0.0256 -0.2254
 6351W        W49404  11.173  13.227  24.962 -0.0861  0.1632 -0.0084
 6352W        W49405  15.991   7.317   5.042  0.0171 -0.3245 -0.2015
 6353W        W49406  12.216  19.696   4.462  0.1761  0.0631 -0.2399
 6354W        W49407  19.097  15.121   9.464  0.2488  0.1953 -0.0262
 6355W        W49408  21.543  20.855   8.704  0.2807 -0.0250 -0.1773
 6356W        W49409   7.533  24.551  28.091  0.1617  0.0726 -0.0118
 6357W        W49410   1.171   1.769  26.509  0.0690 -0.0961 -0.1055
 6358W        W49411  13.791  21.055   6.319  0.1705  0.1448  0.0864
 6359W        W49412  30.478  26.429  21.443 -0.0121 -0.0296  0.1393
 6360W        W49413  15.409  24.894   3.577  0.1446  0.0083  0.1351
 6361W        W49414  29.108  20.118  28.961  0.1872  0.3784 -0.1990
 6362W        W49415  23.578  30.134   1.501  0.3044  0.3018  0.0764
 6363W        W49416   5.209   0.871   2.403 -0.0013  0.2356  0.0256
 6364W        W49417  12.558  17.206   4.806 -0.2178  0.0904 -0.1235
 6365W        W49418   9.795   4.193   3.602  0.1111 -0.1203 -0.1578
 6366W        W49419  33.054  27.842   7.958  0.1085  0.0252  0.2556
 6367W        W49420  15.737  22.867   1.602 -0.2171  0.1455 -0.4034
 6368W        W49421   7.130  33.680  25.241 -0.2199 -0.0852 -0.1628
 6369W        W49422  23.857  34.422   4.307  0.0830  0.0116 -0.1692
 6370W        W49423  21.645  27.830   9.260  0.1580 -0.1465  0.3683
 6371W        W49424  13.397  17.375   0.743 -0.1409 -0.2286 -0.0341
 6372W        W49425  22.982  31.865   5.238 -0.0546  0.1995 -0.1572
 6373W        W49426  22.015   0.513  10.076 -0.0131 -0.0690  0.0744
 6374W        W49427  20.699  30.595  10.256  0.2332  0.0183 -0.0499
 6375W        W49428   8.932  31.008   4.324  0.1038 -0.1689  0.3551
 6376W        W49429  27.330  12.996   0.522 -0.0983 -0.1786  0.1464
 6377W        W49430  17.715  30.458  27.200  0.0289  0.0209  0.0701
 6378W        W49431   1.966  20.493   5.127 -0.0481 -0.1444  0.0648
 6379W        W49432  22.357  31.399   4.183  0.0959 -0.2428  0.0094
 6380W        W49433  17.582  15.454   7.789  0.1466  0.0221  0.0828
 6381W        W49434  16.291  16.254  14.016 -0.0175  0.0145 -0.0740
 6382W        W49435   9.669  17.106  24.592 -0.1414 -0.1960  0.0481
 6383W        W49436  13.646  17.370   2.133 -0.2028  0.0249  0.2954
 6384W        W49437   8.761  18.246   6.378 -0.3624  0.1674  0.0184
 6385W        W49438   4.166  23.657  26.523 -0.2670 -0.4892 -0.2525
 6386W        W49439  26.865  14.172   2.645 -0.2447  0.1393  0.2132
 6387W        W49440  22.915  24.348   6.076  0.1062 -0.1077  0.1579
 6388W        W49441  26.055  30.201  15.472  0.0457 -0.1693  0.0619
 6389W        W49442  34.154  33.790  20.792  0.0952 -0.1273 -0.0001
 6390W        W49443  19.143  24.045   0.867  0.2215 -0.2291  0.2507
 6391W        W49444   5.497  20.719  28.306  0.1303 -0.0659  0.0528
 6392W        W49445  21.924  23.965   8.683  0.2485 -0.1186 -0.3067
 6393W        W49446  10.174  24.953  25.640 -0.2661 -0.0392  0.0319
 6394W        W49447  10.775  27.476   0.740  0.1127  0.2307  0.0014
 6395W        W49448  31.937  12.533  26.853  0.0191 -0.0283 -0.0180
 6396W        W49449   9.604  22.067   8.743  0.0562  0.2040 -0.0890
 6397W        W49450   1.549  14.310   3.872 -0.2734  0.1028  0.0453
 6398W        W49451   8.534   6.303  20.987 -0.1872 -0.2024  0.0850
 6399W        W49452  17.625   6.283  25.232  0.1343 -0.1747  0.1069
 6400W        W49453  27.539  29.089  24.666 -0.0832 -0.0291  0.2881
 6401W        W49454  30.723   5.589   3.925  0.3599  0.1083  0.1136
 6402W        W49455  17.948   2.754   9.774  0.0106 -0.3199  0.2103
 6403W        W49456   5.215  28.481   2.624  0.3056  0.0831 -0.0190
 6404W        W49457  19.846   5.241   1.071  0.0850 -0.4058  0.1405
 6405W        W49458  13.652  18.430   5.679 -0.2737 -0.0938  0.1572
 6406W        W49459   2.650  20.202   7.248 -0.1329 -0.0048 -0.1440
 6407W        W49460  18.422  28.710  22.618  0.0635  0.0402 -0.3025
 6408W        W49461  21.878  23.325   8.823  0.2592 -0.3245  0.1062
 6409W        W49462  18.207  22.563   9.228 -0.0648 -0.1809  0.0730
 6410W        W49463  31.160  20.158   4.856  0.1672  0.0702 -0.0723
 6411W        W49464   9.135  28.386   4.886 -0.1643  0.1067  0.3343
 6412W        W49465  19.967  19.924   4.799 -0.1576 -0.5142 -0.0394
 6413W        W49466  11.865  28.209  19.453  0.1179  0.1876  0.1960
 6414W        W49467  13.176  32.719  10.542 -0.2353 -0.2093 -0.3784
 6415W        W49468  34.221   2.061   7.440 -0.0131  0.1165 -0.0507
 6416W        W49469  18.571  25.408  22.762 -0.0596  0.3603  0.4180
 6417W        W49470  24.131  32.350  28.280  0.0096  0.1119 -0.1211
 6418W        W49471  21.174  32.598  27.664 -0.3870  0.1623 -0.0179
 6419W        W49472  12.334  28.323   8.243  0.1322 -0.1645  0.0799
 6420W        W49473  20.504  19.321   2.726 -0.2295 -0.0406 -0.0869
 6421W        W49474  23.234   7.887   6.171 -0.0143 -0.3058  0.2735
 6422W        W49475  14.827   5.139  26.696  0.1384 -0.0393 -0.4321
 6423W        W49476   5.852  20.820   6.694 -0.1741 -0.1703  0.1413
 6424W        W49477  21.242  27.084   4.053  0.1131  0.1646  0.1045
 6425W        W49478   9.102  12.575   7.193  0.0850  0.2329 -0.0380
 6426W        W49479   3.733  34.010   0.879 -0.0699  0.1023 -0.0425
 6427W        W49480  22.364  28.220   3.121 -0.0582  0.1792  0.1233
 6428W        W49481   8.291  18.482   9.904  0.3328 -0.1481  0.2878
 6429W        W49482   5.375  21.042  18.218 -0.0452 -0.1614  0.2528
 6430W        W49483  25.433   6.705   7.877  0.1098  0.2594  0.0560
 6431W        W49484  17.096  29.426   8.636  0.0563 -0.0312 -0.1539
 6432W        W49485   3.939  15.202   7.086  0.0839 -0.2609 -0.2005
 6433W        W49486  22.055  18.000   8.570  0.1265 -0.3147 -0.2405
 6434W        W49487  24.381  15.560   2.666  0.2292 -0.0605 -0.0098
 6435W        W49488  30.280  17.469   4.945  0.2054 -0.2325  0.1099
 6436W        W49489   7.332  13.028  25.991  0.0679 -0.1656  0.2812
 6437W        W49490  22.768  30.339  25.858 -0.0449 -0.1279 -0.0198
 6438W        W49491  19.665  13.164   3.564  0.1363  0.0961  0.1373
 6439W        W49492  21.135  27.670  28.450 -0.4484 -0.0951 -0.1974
 6440W        W49493   4.204  22.271   2.373 -0.2468  0.1988  0.0469
 6441W        W49494  16.137  26.798  10.578  0.1863 -0.1470 -0.1986
 6442W        W49495   8.742  26.091   7.059  0.0946  0.1371  0.0262
 6443W        W49496  13.868  17.643   3.824 -0.1859  0.2061  0.2022
 6444W        W49497  21.398   1.952  27.628 -0.1200 -0.3196 -0.2776
 6445W        W49498  24.735   4.642  10.455 -0.0107 -0.0843 -0.1280
 6446W        W49499  17.124  29.434  27.963  0.3036  0.1285 -0.0929
 6447W        W49500  19.319   0.083   6.487  0.2172 -0.0112  0.0384
 6448W        W49501  23.690  24.283  17.786  0.2589 -0.1389 -0.0346
 6449W        W49502   1.262  16.749  18.180  0.2109 -0.2358 -0.1664
 6450W        W49503  17.187  30.970   5.806 -0.0297  0.0612  0.3990
 6451W        W49504  11.975  10.549   9.610  0.3093 -0.1489 -0.2712
 6452W        W49505  14.429  31.573  26.020 -0.1335  0.0664  0.1279
 6453W        W49506  24.768   3.962   2.871 -0.1511  0.0284 -0.1837
 6454W        W49507  14.955  13.478   8.431  0.0874  0.2797 -0.3551
 6455W        W49508  27.652  20.031   6.582  0.0172 -0.0874 -0.1852
 6456W        W49509  29.347  28.782   9.655  0.1069 -0.0465 -0.3409
 6457W        W49510   3.219  32.830   8.387  0.0895  0.2995 -0.1535
 6458W        W49511   3.388  29.153   2.017  0.2305 -0.0655  0.0984
 6459W        W49512   6.743  25.123   7.418  0.1740  0.0804  0.1694
 6460W        W49513  18.372  27.540  24.530 -0.3524 -0.0033  0.1183
 6461W        W49514   2.087  18.861  24.027 -0.1780 -0.0434 -0.0260
 6462W        W49515  23.122  28.384   2.942  0.2016 -0.0592  0.1542
 6463W        W49516  22.753  21.997   6.358 -0.0367  0.1996 -0.0326
 6464W        W49517   1.131  19.547   6.666 -0.3013 -0.2504  0.1382
 6465W        W49518  21.818  34.476   2.336  0.0358 -0.1644  0.0948
 6466W        W49519  25.303   0.424   9.082 -0.1952 -0.0385 -0.1347
 6467W        W49520  14.009  16.675   4.549  0.1325  0.0637 -0.0121
 6468W        W49521  14.955  18.677   1.423  0.3189 -0.1586  0.0707
 6469W        W49522   1.500  30.550   7.753  0.0168  0.1840 -0.3010
 6470W        W49523  21.685  30.339   5.665  0.0022 -0.0254  0.0949
 6471W        W49524  19.255  27.905  10.600  0.1371 -0.1037  0.2564
 6472W        W49525  30.909  27.142  26.750  0.0457 -0.0283 -0.1126
 6473W        W49526  20.770  24.424   7.136 -0.4598 -0.1043  0.0617
 6474W        W49527  26.115  14.349   5.314 -0.1458  0.1123 -0.0971
 6475W        W49528  13.521  24.243   4.452 -0.3144  0.1697 -0.0913
 6476W        W49529   9.947   3.391   5.996  0.0688  0.1145  0.2669
 6477W        W49530  13.179   5.868   5.566  0.1594 -0.0554  0.1229
 6478W        W49531   3.841  29.390   2.221  0.0242  0.1161 -0.2960
 6479W        W49532  23.598  30.368   7.682 -0.2883 -0.0336 -0.0038
 6480W        W49533  15.790  22.175   4.495  0.1549 -0.0985  0.1847
 6481W        W49534  10.789  28.976  26.538 -0.1022  0.2854 -0.0902
 6482W        W49535  12.785  21.763  22.411  0.1201  0.0132 -0.1490
 6483W        W49536  32.170  14.686   6.450 -0.0964  0.2692  0.3726
 6484W        W49537  25.408  15.703  27.674 -0.0110  0.2233 -0.0924
 6485W        W49538  14.757  30.415   2.431  0.2195  0.0151  0.1793
 6486W        W49539   9.230  28.012   4.112 -0.0829  0.0487  0.0422
 6487W        W49540  18.392  16.863  28.468  0.0485 -0.2464  0.1770
 6488W        W49541  11.451  21.272   2.602 -0.0584 -0.1121 -0.0174
 6489W        W49542   8.382  26.135   8.130 -0.1549 -0.1301 -0.2446
 6490W        W49543   2.684   2.252  27.607 -0.1377 -0.1912  0.2034
 6491W        W49544   0.759  10.649  26.801 -0.0998 -0.0889 -0.2541
 6492W        W49545  12.758  14.463  22.671 -0.4183 -0.2003 -0.3240
 6493W        W49546  23.752   8.692  22.667 -0.1705 -0.3842 -0.0417
 6494W        W49547   9.511  29.638  28.972  0.0601 -0.1347 -0.0028
 6495W        W49548  18.176  32.319   1.838 -0.0996 -0.0080 -0.0115
 6496W        W49549  16.043  26.938   1.487 -0.2892  0.0699  0.0903
 6497W        W49550  26.874  17.467   5.816  0.0044 -0.0344 -0.0737
 6498W        W49551  21.542  24.753   9.265  0.0658  0.0363  0.0764
 6499W        W49552  10.682  24.013   8.822 -0.2993  0.2333 -0.2026
 6500W        W49553  28.038  32.723  28.848  0.1244 -0.2171 -0.1877
 6501W        W49554  11.474  28.892   9.295 -0.1696  0.0511  0.1217
 6502W        W49555  33.158  20.742  24.684  0.0013 -0.0228 -0.1194
 6503W        W49556  14.678   1.935  22.498 -0.3600 -0.2053 -0.0746
 6504W        W49557  22.870  25.621   0.145 -0.1988 -0.1441 -0.0048
 6505W        W49558  15.380   5.561  25.234  0.0594  0.1675 -0.2053
 6506W        W49559  24.253  24.570   0.378 -0.0551  0.0889 -0.1708
 6507W        W49560   5.056  30.923   2.597  0.1384 -0.1479 -0.1017
 6508W        W49561  28.053  24.249   9.763  0.1161 -0.0906 -0.0775
 6509W        W49562  12.828   1.531  10.207 -0.1011  0.0142  0.0198
 6510W        W49563  11.318  30.441   1.543 -0.1441  0.2229 -0.0466
 6511W        W49564  18.020  19.434   5.320 -0.1008 -0.2656  0.0425
 6512W        W49565  22.439   2.818   5.651  0.0497  0.0373 -0.1901
 6513W        W49566  25.851  19.342  23.781  0.3029 -0.1125  0.2269
 6514W        W49567   4.056   1.277  29.014 -0.2719  0.0161 -0.1993
 6515W        W49568  20.106  22.533  28.510  0.1146  0.0899  0.0525
 6516W        W49569  18.891  11.709  25.704 -0.1666  0.1248  0.0425
 6517W        W49570   2.220   9.287  27.961 -0.1506 -0.3777 -0.1763
 6518W        W49571   9.840   2.011   3.398 -0.2419  0.0854 -0.2801
 6519W        W49572   9.373  30.014   4.452  0.2430 -0.0297  0.1334
 6520W        W49573  12.072  12.208   4.882 -0.0988  0.0499 -0.2150
 6521W        W49574  24.546  25.932   5.424  0.2156  0.0161 -0.0104
 6522W        W49575  25.710   6.942  29.190  0.1848  0.1885  0.1976
 6523W        W49576  34.023  33.785   2.309  0.0218 -0.0953  0.2858
 6524W        W49577  11.676  15.495  27.855 -0.0483  0.2429 -0.1104
 6525W        W49578   4.845  31.896  10.326 -0.1158 -0.1803  0.1161
 6526W        W49579  14.633  25.000   9.745 -0.1274  0.2158 -0.2246
 6527W        W49580  14.243  28.638  28.970  0.1335 -0.1742  0.2376
 6528W        W49581  17.600  30.269  10.001  0.0011  0.1964  0.0333
 6529W        W49582  31.539  26.494   3.692  0.1355 -0.3610  0.0586
 6530W        W49583  21.037  30.880   8.013  0.1954  0.3269  0.0515
 6531W        W49584  22.751  23.972  22.771 -0.0016  0.1249  0.0831
 6532W        W49585  11.503  15.108   8.506  0.3304  0.0487 -0.1158
 6533W        W49586   0.953   7.260  29.155  0.1182 -0.2123  0.1365
 6534W        W49587  16.661  23.665   8.153 -0.1030 -0.0876 -0.2438
 6535W        W49588  25.460  29.914  23.905 -0.0050  0.1282  0.1586
 6536W        W49589  13.754  17.373   6.674  0.2638 -0.0710  0.1334
 6537W        W49590  21.835  27.565   6.504  0.2379  0.1359 -0.0830
 6538W        W49591  14.476  29.547   4.300 -0.2345  0.2839  0.1467
 6539W        W49592  20.517  22.112  28.898 -0.0492  0.1348  0.1264
 6540W        W49593   8.183  22.242   9.070  0.0699  0.1900 -0.1573
 6541W        W49594   3.432   8.270   9.140 -0.0620  0.0329 -0.0618
 6542W        W49595  27.380  29.986  26.369  0.0166 -0.0686  0.0224
 6543W        W49596   7.555  20.031   1.701 -0.3506  0.1281 -0.0984
 6544W        W49597  22.905  32.099   8.958  0.1313 -0.0924  0.0723
 6545W        W49598   2.811  25.090  14.594 -0.2877 -0.3621  0.3725
 6546W        W49599   7.602  27.689   4.896 -0.1866  0.1881 -0.0982
 6547W        W49600  12.894  24.238   9.539 -0.2525  0.1506 -0.2072
 6548W        W49601  16.682  25.871   4.348 -0.0122 -0.0483  0.0051
 6549W        W49602  14.863  28.098   8.376 -0.2550 -0.1331 -0.0487
 6550W        W49603  16.934  10.599   2.053  0.1325  0.1701 -0.0260
 6551W        W49604  28.744  28.449   7.486  0.2315  0.0959 -0.1504
 6552W        W49605  18.549   2.436   6.384 -0.1063  0.0322 -0.1260
 6553W        W49606   6.633  27.047  20.797  0.3088  0.0835 -0.0252
 6554W        W49607  19.750  23.342  27.492 -0.0455 -0.0077  0.0687
 6555W        W49608   6.898  19.627  24.965 -0.0317  0.1451 -0.2257
 6556W        W49609  30.647  17.568   6.492  0.0269 -0.0205  0.0489
 6557W        W49610   6.951  25.492  29.178  0.2124 -0.1319  0.0541
 6558W        W49611  18.259  15.662   9.390  0.1796 -0.1283 -0.2012
 6559W        W49612  26.689  15.283  20.241  0.2663  0.2518  0.0605
 6560W        W49613  22.255  13.250   6.649  0.1664  0.0450 -0.0308
 6561W        W49614   9.644  28.550   2.477 -0.2281  0.2826  0.0955
 6562W        W49615  12.399  13.105  27.697 -0.0309 -0.0412 -0.1055
 6563W        W49616  19.585  18.124   0.415  0.2145  0.2192 -0.1877
 6564W        W49617  27.443  22.403   1.485  0.0282  0.0403 -0.2489
 6565W        W49618  11.992  13.926   9.974  0.3474  0.1956  0.0524
 6566W        W49619   2.283  27.602  27.658  0.2965 -0.3198  0.0227
 6567W        W49620   7.525  18.912   1.589  0.0568  0.1321 -0.2361
 6568W        W49621  17.737  30.632   3.009  0.0315 -0.3368  0.1851
 6569W        W49622  21.464  28.799   0.061 -0.1943  0.1026 -0.0457
 6570W        W49623  10.364  31.134   4.657  0.1868  0.0067 -0.1870
 6571W        W49624   3.721  12.647   3.146 -0.0145  0.2058  0.1034
 6572W        W49625   9.008  26.303   8.877  0.2560  0.2087  0.3206
 6573W        W49626  13.143  27.985   3.463 -0.4596 -0.1796  0.2229
 6574W        W49627  30.344  33.217  28.051  0.2234  0.0676  0.1925
 6575W        W49628   9.689  20.211   6.021 -0.1294  0.2387  0.0068
 6576W        W49629  15.765   5.904   5.041 -0.0502  0.1305  0.1013
 6577W        W49630  15.741  23.931   7.472  0.0763  0.0132 -0.2459
 6578W        W49631   6.590  13.733   9.390  0.0803 -0.3181 -0.0332
 6579W        W49632  25.354  20.411  22.224  0.2684  0.1066  0.0667
 6580W        W49633   3.335  21.166   0.371 -0.1010 -0.0505  0.0368
 6581W        W49634  27.194  16.530   4.751 -0.1923  0.1834 -0.1031
 6582W        W49635  12.291   1.051  27.491  0.1470 -0.0162  0.2850
 6583W        W49636  28.784  19.199   7.783  0.2563 -0.4179 -0.0649
 6584W        W49637  13.935  19.617   9.593  0.0003  0.0407 -0.2167
 6585W        W49638  14.885  30.592   9.133  0.0045 -0.1190 -0.3056
 6586W        W49639  24.448  22.939   1.307 -0.2554 -0.3075  0.0377
 6587W        W49640  13.432  32.633   8.562  0.2108  0.1177 -0.1636
 6588W        W49641  30.259  21.501   8.443  0.0081 -0.4398 -0.0738
 6589W        W49642   7.807  13.293   9.631 -0.0928  0.0329  0.1422
 6590W        W49643  27.965   2.119   0.884  0.1132 -0.1358 -0.1053
 6591W        W49644  23.562  31.526  26.218 -0.0171 -0.0515 -0.0893
 6592W        W49645  12.186  15.528  27.718 -0.2032 -0.1288  0.2022
 6593W        W49646   9.900  14.282  22.060  0.5081 -0.1407  0.2364
 6594W        W49647   5.724  20.755   9.892 -0.0430  0.1861 -0.0355
 6595W        W49648  10.916  23.762   1.913 -0.0279 -0.1875 -0.0003
 6596W        W49649  12.375  17.400   2.574 -0.0132 -0.2394 -0.2515
 6597W        W49650  32.442  17.919   6.678  0.3663  0.2960 -0.3278
 6598W        W49651  29.311   1.836  24.000 -0.1404  0.2516  0.1917
 6599W        W49652  22.120   9.982   9.812 -0.1875 -0.0431  0.1469
 6600W        W49653  30.188  22.580   2.786 -0.3841  0.4473 -0.1034
 6601W        W49654  20.036  16.809  28.116 -0.3459  0.3524  0.2209
 6602W        W49655  12.712  21.585   0.936  0.2200  0.1574  0.0814
 6603W        W49656  22.165  13.965   2.971 -0.1669  0.2557  0.1304
 6604W        W49657  28.240  29.472   8.912  0.0447 -0.0491 -0.0404
 6605W        W49658   7.497   9.836  28.079 -0.0556 -0.0327  0.1529
 6606W        W49659  18.288   1.169   8.785 -0.3147  0.1401  0.1998
 6607W        W49660  17.893  12.323   0.225 -0.4029 -0.0616 -0.2664
 6608W        W49661   2.340   8.441   6.381 -0.2821 -0.0475  0.0812
 6609W        W49662   9.892  32.089   5.092 -0.1299  0.0654 -0.2069
 6610W        W49663  18.920  20.055  27.464  0.1924  0.0664 -0.1137
 6611W        W49664  11.395  18.884   9.880  0.2392 -0.1302 -0.2097
 6612W        W49665   8.962  31.566   5.779 -0.2440  0.1291 -0.1717
 6613W        W49666  22.101  30.422   9.059  0.1518 -0.4542 -0.1261
 6614W        W49667  25.025  14.315   9.389  0.0630  0.0893  0.0391
 6615W        W49668   0.480  16.174  21.761 -0.1500  0.2471  0.1027
 6616W        W49669  29.288  24.691  10.348  0.0738 -0.1255  0.1146
 6617W        W49670   7.243  29.163   8.428  0.0667  0.0891 -0.1958
 6618W        W49671  17.758  13.757   6.800  0.7232 -0.2610 -0.0979
 6619W        W49672  21.266  23.666   6.463 -0.3384 -0.0883  0.5008
 6620W        W49673  11.139  18.233   3.569 -0.1863 -0.0127 -0.1030
 6621W        W49674   0.039   4.147   6.415  0.1606  0.0178 -0.0141
 6622W        W49675  16.411  21.866  24.971  0.4464  0.4407 -0.0684
 6623W        W49676  19.908  22.470  10.305  0.3182  0.2923 -0.0857
 6624W        W49677  16.926  12.184   8.209 -0.1158  0.0519 -0.2101
 6625W        W49678  20.591  28.703  28.397 -0.0128  0.0220  0.0292
 6626W        W49679  13.761  16.483   8.102 -0.0267  0.0272 -0.1972
 6627W        W49680  23.550   0.465   6.931  0.0590 -0.4422  0.0069
 6628W        W49681   5.552   7.582  21.052  0.1065  0.0863 -0.0974
 6629W        W49682   3.772  23.532   3.470  0.0814 -0.3204  0.0824
 6630W        W49683  15.606  16.159   6.156 -0.1619 -0.0743  0.2169
 6631W        W49684   9.489  33.497  23.586  0.0999  0.0619  0.3414
 6632W        W49685  13.973  27.565   2.884  0.1533  0.2425  0.3492
 6633W        W49686  15.632  16.027   1.262  0.0063 -0.0322 -0.1771
 6634W        W49687   5.428  26.642   1.596 -0.0364 -0.2853 -0.0904
 6635W        W49688   5.905   7.664   7.619  0.1649  0.0961 -0.1826
 6636W        W49689  17.445  13.564  29.145 -0.0484 -0.6709  0.0500
 6637W        W49690  24.683  23.439   4.230 -0.0231 -0.0632 -0.0655
 6638W        W49691  20.798  28.970   9.055  0.0519  0.0015  0.2436
 6639W        W49692  22.212  22.687   7.818  0.0655  0.5805  0.2355
 6640W        W49693  16.714  22.615   8.562 -0.0151  0.1590 -0.0025
 6641W        W49694  26.985  10.050   8.148 -0.0676  0.0167 -0.3357
 6642W        W49695  15.544  16.503  27.072  0.0126  0.2955  0.1828
 6643W        W49696  11.288   8.956  27.045  0.2147  0.3244 -0.1427
 6644W        W49697  19.909  25.687   9.888  0.1141  0.4091  0.0369
 6645W        W49698  10.952  14.340   2.350  0.0096 -0.1044  0.0679
 6646W        W49699   0.094  12.805   7.408 -0.1854 -0.0585 -0.2657
 6647W        W49700  19.426  19.846   7.574 -0.0462  0.2582 -0.1318
 6648W        W49701  19.551  14.031   3.036 -0.1300 -0.2459  0.0366
 6649W        W49702  26.713  13.775   1.761 -0.1681  0.0162 -0.1997
 6650W        W49703  18.681  22.593  27.161  0.1987 -0.0432 -0.1447
 6651W        W49704  26.651  28.344   8.421 -0.0733 -0.0339  0.1607
 6652W        W49705   9.645  33.756   9.624 -0.2354 -0.2740  0.2275
 6653W        W49706  21.718  30.685  15.597 -0.3461 -0.0021 -0.0349
 6654W        W49707  21.699  31.961   0.274  0.2367  0.1691  0.0753
 6655W        W49708  20.627  16.175   4.299  0.1951 -0.1979 -0.0855
 6656W        W49709  20.521  17.833   6.447 -0.0272 -0.0471 -0.0606
 6657W        W49710  21.342  19.124   5.051  0.0315 -0.2589 -0.2202
 6658W        W49711  16.523  16.716  26.337 -0.2124 -0.2739  0.3338
 6659W        W49712  19.236  33.170   9.791 -0.1739 -0.0740 -0.0181
 6660W        W49713  20.212  30.871  25.814 -0.2865 -0.1838 -0.2040
 6661W        W49714  27.996  32.327  23.854 -0.2153 -0.0486  0.1272
 6662W        W49715  31.175  31.644   9.652  0.1804  0.1199 -0.0863
 6663W        W49716  24.568   4.575   9.978 -0.0998  0.2974  0.2964
 6664W        W49717  11.001  29.422  28.659 -0.4030 -0.2141  0.0849
 6665W        W49718   3.184  23.150  28.574  0.0977 -0.1499  0.1304
 6666W        W49719  26.854  33.434  28.246  0.0370  0.2812  0.0666
 6667W        W49720  17.207  31.722   9.534 -0.0377 -0.0399  0.1693
 6668W        W49721  24.434  25.165   2.315 -0.3397 -0.0663  0.1584
 6669W        W49722  18.675  18.031  25.060 -0.3310  0.1576 -0.1873
 6670W        W49723  16.972  19.739   0.525 -0.1271  0.1485 -0.1652
 6671W        W49724  27.126  17.273   4.367  0.2096 -0.3666 -0.1745
 6672W        W49725   6.182   2.585   9.132 -0.1873  0.0997 -0.2747
 6673W        W49726  16.424  24.391   0.310  0.0360  0.2239 -0.1108
 6674W        W49727  11.338  22.635   2.079 -0.0467 -0.2846  0.3464
 6675W        W49728  20.158   3.864   5.021 -0.0642  0.2227  0.1970
 6676W        W49729  16.287  27.413  24.286 -0.2252 -0.3492  0.0540
 6677W        W49730  21.458  10.584   5.406  0.2258 -0.2404  0.0860
 6678W        W49731   6.197  32.361   4.642 -0.2134  0.1907 -0.4990
 6679W        W49732  17.763   5.921   4.526 -0.1955 -0.0027 -0.2117
 6680W        W49733  10.561  20.147   1.422 -0.0757  0.0350  0.1038
 6681W        W49734  10.858  26.330  25.362 -0.0511  0.2180  0.0918
 6682W        W49735   9.833  26.698   4.422 -0.0197  0.1632  0.1832
 6683W        W49736   5.230  33.995   8.091 -0.2802  0.2441  0.2706
 6684W        W49737   5.657   4.363   3.725 -0.0779  0.2251  0.0872
 6685W        W49738  12.515  28.407   2.161  0.1285  0.4653  0.2280
 6686W        W49739  23.235  24.505   4.939 -0.1733 -0.2111  0.3823
 6687W        W49740  16.712   5.878   8.943  0.2092  0.0139  0.0364
 6688W        W49741  19.506  22.778  25.354  0.3538  0.0715 -0.0352
 6689W        W49742   9.594  20.127   1.848  0.0945  0.0360  0.0881
 6690W        W49743  19.012  22.012   6.181 -0.0862  0.2238 -0.1825
 6691W        W49744  21.698  18.612   5.888  0.0046 -0.0736  0.1675
 6692W        W49745   4.363  29.702   0.619  0.0792  0.0345 -0.1192
 6693W        W49746  23.635  24.067   8.063 -0.0711  0.0877 -0.3545
 6694W        W49747  26.533  26.595  26.475  0.2192  0.2557 -0.2358
 6695W        W49748  13.346  28.401   3.215 -0.0728  0.0742 -0.0757
 6696W        W49749  15.987  32.910  10.036  0.1311  0.1304  0.1906
 6697W        W49750  34.335  20.976   1.936 -0.0334 -0.0613  0.1690
 6698W        W49751  19.647   1.096  21.480  0.5766  0.0664 -0.2671
 6699W        W49752  26.176  22.247  10.616 -0.2736  0.3129  0.2449
 6700W        W49753  21.276   6.245   6.965 -0.1573 -0.0725  0.1655
 6701W        W49754  18.639  17.442  28.266 -0.2125 -0.0005  0.1952
 6702W        W49755  16.241   0.192  22.609 -0.0121  0.4789  0.0828
 6703W        W49756  29.551  32.091   7.392 -0.1405 -0.0414 -0.3457
 6704W        W49757  19.737  23.086   5.846 -0.0157 -0.2491  0.1393
 6705W        W49758   4.902  22.798   9.041  0.1308  0.1000 -0.0683
 6706W        W49759   9.785  18.213   2.633 -0.1567  0.0920 -0.2853
 6707W        W49760  16.317  31.923   2.320 -0.0527 -0.1814  0.0087
 6708W        W49761  16.326   7.428   8.725  0.0747 -0.0758  0.2068
 6709W        W49762  15.364  30.844   6.083 -0.0186  0.0225  0.0668
 6710W        W49763  12.566  26.012   4.332 -0.0828 -0.0077 -0.2360
 6711W        W49764  12.294  18.780   8.226 -0.1896  0.1035  0.1857
 6712W        W49765  14.814   2.054  28.716  0.0983 -0.1142  0.0697
 6713W        W49766  32.030  32.891  25.395 -0.1441  0.1800 -0.1371
 6714W        W49767  20.918  29.290   6.780 -0.0518 -0.3521 -0.1257
 6715W        W49768  10.172  12.926   8.091 -0.0704  0.1595  0.0931
 6716W        W49769  20.947  26.512  24.488  0.3729 -0.1966  0.1570
 6717W        W49770  16.969  29.347   2.582  0.0185  0.1151  0.2357
 6718W        W49771  14.247  31.282   4.864  0.5645 -0.0520  0.0010
 6719W        W49772  16.885  32.837   4.432 -0.2456  0.1602  0.0563
 6720W        W49773  22.564  23.333   9.315  0.1186  0.0531 -0.1952
 6721W        W49774   6.811  19.568   1.553 -0.1190 -0.1041  0.0371
 6722W        W49775  17.113  16.184   6.738 -0.0168  0.0557  0.0710
 6723W        W49776  19.398  26.452   9.410  0.0091 -0.3502 -0.0917
 6724W        W49777  30.370   9.073   1.672 -0.0431 -0.0201  0.2132
 6725W        W49778   6.611  28.335   5.936 -0.0472  0.0595 -0.1212
 6726W        W49779   9.290  28.717   3.950 -0.3205  0.0219 -0.1500
 6727W        W49780  21.599  21.637  26.175  0.4342 -0.1480 -0.0346
 6728W        W49781  33.167   2.033   9.494  0.2679  0.1669 -0.0757
 6729W        W49782  22.989  25.070  28.588  0.0402  0.0020  0.0255
 6730W        W49783   9.055  31.882  27.770 -0.2492 -0.1189 -0.1212
 6731W        W49784   2.190   0.841   0.224  0.1108  0.1715  0.4086
 6732W        W49785  22.332   7.373  20.974 -0.0436 -0.0102 -0.3233
 6733W        W49786  21.331  29.880   4.710  0.0218  0.0225  0.1195
 6734W        W49787  26.663  33.697   0.689 -0.0288  0.0882 -0.1772
 6735W        W49788  14.371  33.294  27.155  0.0322  0.1058 -0.2384
 6736W        W49789  33.877  17.337   8.856  0.1209 -0.0068  0.2531
 6737W        W49790  16.268  28.451   0.950  0.0429 -0.1293  0.1704
 6738W        W49791  30.821   3.804   2.119  0.1378  0.0456 -0.0116
 6739W        W49792  10.148  22.150  25.993 -0.0422 -0.0269  0.2888
 6740W        W49793  25.524  27.224   5.279  0.0680 -0.0631  0.1914
 6741W        W49794   6.449  21.416   9.657  0.3497 -0.0673 -0.2918
 6742W        W49795  14.982  26.529   7.773  0.2676  0.0849 -0.0065
 6743W        W49796  24.668  33.365  24.053 -0.3785  0.3388  0.2432
 6744W        W49797  11.070  33.928  14.646  0.1421 -0.0447  0.2558
 6745W        W49798  24.412  29.506   2.890  0.4077  0.1238 -0.2674
 6746W        W49799  32.121  10.416  17.721  0.0427 -0.0424  0.1055
 6747W        W49800   6.590  28.323  20.659 -0.1564  0.2053 -0.1705
 6748W        W49801  16.993   8.827   8.866 -0.2183  0.0893 -0.1547
 6749W        W49802  15.149  30.245  15.809  0.1922 -0.2957 -0.2611
 6750W        W49803  12.120  20.426   8.914  0.2377  0.0161 -0.4665
 6751W        W49804  12.603   1.565  18.533  0.0521  0.3965 -0.2585
 6752W        W49805  11.648  26.283  22.412 -0.2190  0.3521 -0.4123
 6753W        W49806  15.280  15.014   3.358  0.1620  0.0749 -0.0809
 6754W        W49807  11.037  27.124   5.564  0.0192 -0.0251  0.0418
 6755W        W49808  22.605  31.216   5.305 -0.0322  0.1052  0.0110
 6756W        W49809  23.701   6.480   6.022 -0.1726  0.0076  0.0455
 6757W        W49810  27.247  22.059   0.471  0.1496  0.0965 -0.0349
 6758W        W49811   9.755  15.162  26.156  0.0148 -0.2643 -0.1689
 6759W        W49812  12.182  25.106   8.474 -0.0867  0.0378 -0.3381
 6760W        W49813   5.676  10.456   6.053 -0.1909  0.0142  0.1422
 6761W        W49814   5.316  22.875   6.856  0.0236 -0.0346 -0.3261
 6762W        W49815  18.549   0.799  20.592  0.2574 -0.0319 -0.0465
 6763W        W49816  11.437  21.223  16.628  0.1279  0.1135 -0.1870
 6764W        W49817   9.773  21.451   5.405 -0.0531  0.0026 -0.1024
 6765W        W49818  26.321  32.205  28.921  0.1670  0.3948  0.0551
 6766W        W49819  15.654  25.939   2.185 -0.0429 -0.2257 -0.3402
 6767W        W49820  15.422  28.215   5.044 -0.0362  0.2119 -0.1088
 6768W        W49821  12.326  15.074   2.294  0.3057  0.1080 -0.0703
 6769W        W49822   9.994  32.717  24.728 -0.2295  0.0482  0.0163
 6770W        W49823  15.497  32.688  10.056 -0.0696  0.1131  0.0478
 6771W        W49824  29.517  25.558  25.129 -0.2850  0.0666  0.3006
 6772W        W49825  27.051  23.797  22.084 -0.3135  0.3652 -0.2961
 6773W        W49826   2.511   7.559  27.279 -0.3441  0.1712 -0.1598
 6774W        W49827  10.780  21.726  23.349  0.1998 -0.0704  0.3203
 6775W        W49828  25.884  24.525   6.108  0.1779 -0.1681  0.1169
 6776W        W49829  28.276  25.868   0.648  0.0884 -0.5067  0.3280
 6777W        W49830   9.349   0.266   1.814  0.0724 -0.0033  0.1869
 6778W        W49831  26.277  30.104   5.142 -0.2850 -0.0715 -0.0335
 6779W        W49832  18.704  31.740   3.380 -0.1336 -0.1717  0.1200
 6780W        W49833  32.718  31.988   3.511  0.1746 -0.0347  0.1313
 6781W        W49834  13.082  18.267  24.516 -0.0487  0.0339  0.1287
 6782W        W49835  11.280  16.612   0.975  0.1785 -0.0015  0.3907
 6783W        W49836  26.801   2.881  17.427 -0.6516 -0.0050 -0.1867
 6784W        W49837  14.852  27.067   2.113 -0.1663  0.0820 -0.0475
 6785W        W49838   1.528   8.363  28.728 -0.1208 -0.3452  0.0924
 6786W        W49839  19.155  17.400  27.248 -0.1660  0.0662  0.1630
 6787W        W49840   2.965  23.319   6.324  0.1432 -0.0792 -0.1027
 6788W        W49841  13.372   2.602   1.859 -0.0975 -0.2466  0.2084
 6789W        W49842   5.173  16.493  22.756  0.0402 -0.1115  0.2785
 6790W        W49843  17.029  22.660   2.695 -0.1548  0.1160 -0.0293
 6791W        W49844   6.484   8.899  24.909 -0.0559 -0.3697  0.0943
 6792W        W49845  26.393  16.323   7.592 -0.1712  0.1127  0.0588
 6793W        W49846  30.352  34.128   8.697 -0.1942  0.0855  0.1027
 6794W        W49847  16.327  18.792   5.924 -0.0684  0.1885 -0.0682
 6795W        W49848  18.552  33.049   6.050 -0.0865 -0.1144 -0.0922
 6796W        W49849  26.613   4.711  25.601 -0.0595 -0.2838 -0.0717
 6797W        W49850  15.916  26.038  29.041  0.0258 -0.1627 -0.3030
 6798W        W49851  32.945  10.256   2.899  0.1241 -0.0959  0.1056
 6799W        W49852  17.684  27.645  24.744  0.0900 -0.1641 -0.1872
 6800W        W49853  32.379  31.870   6.967  0.2734 -0.0451 -0.1275
 6801W        W49854  28.076  12.153  27.320  0.0870 -0.1981  0.1671
 6802W        W49855  14.725  28.178  17.887 -0.1746 -0.5456  0.1315
 6803W        W49856   6.136   1.221   9.389  0.0989  0.1717 -0.2563
 6804W        W49857  13.552  32.964   3.732  0.2518 -0.0089  0.0247
 6805W        W49858  20.586  24.679  25.925  0.1770  0.1232 -0.2490
 6806W        W49859   2.656  23.984   8.642 -0.0973  0.2420  0.1635
 6807W        W49860  17.435  16.217  15.080  0.0235  0.1276 -0.3547
 6808W        W49861  15.406  29.628   5.233 -0.1022  0.3317 -0.0257
 6809W        W49862  25.585  25.375  23.598  0.0343  0.1069 -0.1253
 6810W        W49863  10.419  20.496  22.877  0.1186 -0.3374 -0.1155
 6811W        W49864  20.317  25.824  22.341 -0.1227  0.1031 -0.3059
 6812W        W49865   3.225  32.022  23.021 -0.1995  0.0594 -0.0234
 6813W        W49866   3.001  23.080  26.354 -0.3111 -0.0080 -0.0088
 6814W        W49867  13.677  28.543   7.131  0.0647 -0.0267 -0.0859
 6815W        W49868   9.765  33.130  23.781  0.2784 -0.0422 -0.2913
 6816W        W49869  17.802  34.538   7.512  0.2462  0.1780  0.0088
 6817W        W49870   6.140  11.306  26.039 -0.3809 -0.0190  0.0002
 6818W        W49871   0.854  25.761   7.798  0.2228 -0.0831  0.0437
 6819W        W49872  16.201   6.274   3.683 -0.0685  0.3417 -0.2256
 6820W        W49873   2.063  32.390   0.866 -0.1262 -0.1687 -0.0440
 6821W        W49874  17.857  15.716  27.310  0.0457  0.2654 -0.0882
 6822W        W49875  14.249  26.202  21.615  0.0380 -0.3217 -0.0551
 6823W        W49876  27.279  28.052   4.593 -0.0605  0.3518  0.2354
 6824W        W49877  14.046   3.526   4.722  0.3502 -0.0854 -0.2616
 6825W        W49878   6.007  18.553   4.029  0.1687 -0.0585 -0.0279
 6826W        W49879  12.547  19.392  21.251  0.0771  0.0229 -0.4326
 6827W        W49880  24.613  30.210  18.627 -0.1839 -0.1045 -0.0286
 6828W        W49881   6.633  16.300   1.469  0.1912 -0.2010  0.2687
 6829W        W49882   2.413   2.401   7.817 -0.0256  0.1996  0.0539
 6830W        W49883  30.093   9.755   7.117 -0.3116 -0.0899 -0.0705
 6831W        W49884  16.105  19.876   9.874  0.0270 -0.0541 -0.1072
 6832W        W49885  20.031  20.222   2.851 -0.1086 -0.0308  0.0189
 6833W        W49886   2.261  32.571   2.893  0.0633  0.1151  0.2590
 6834W        W49887  33.281  23.814   0.745 -0.2365 -0.0040 -0.0260
 6835W        W49888  12.981  23.917  27.473  0.0868  0.0796 -0.1982
 6836W        W49889  22.266  32.391   3.016 -0.1790 -0.0467  0.0030
 6837W        W49890  21.228   1.725   2.145 -0.3229 -0.1012 -0.2300
 6838W        W49891  12.972   8.815   2.650 -0.4386  0.3497 -0.0289
 6839W        W49892  30.613  11.681   4.307 -0.0160 -0.0784  0.0277
 6840W        W49893  18.706  30.106   6.396 -0.1636  0.0875 -0.0113
 6841W        W49894   2.502  26.729  19.033 -0.0326  0.1360  0.0951
 6842W        W49895   1.433  31.143  25.730  0.0534  0.4073 -0.0701
 6843W        W49896  18.665  15.207   1.504  0.0037  0.1602  0.1572
 6844W        W49897  18.029  29.959   6.917  0.0325 -0.2592 -0.4955
 6845W        W49898   7.546  33.338  18.141  0.2810  0.3352 -0.3751
 6846W        W49899  20.745  12.443   5.850  0.0164 -0.0044  0.1547
 6847W        W49900  26.410   2.546  28.782  0.0163 -0.0155 -0.0301
 6848W        W49901   9.244   0.612  27.527  0.0349  0.0828 -0.3093
 6849W        W49902   6.206  34.334   6.566  0.0286 -0.1464 -0.0414
 6850W        W49903   5.960   6.673   0.007 -0.1582  0.0886 -0.1575
 6851W        W49904  32.893   7.016   6.148 -0.2282 -0.0717 -0.3600
 6852W        W49905  21.896  30.539   6.804 -0.3640 -0.1423 -0.0569
 6853W        W49906  17.524  30.158  20.477  0.0127 -0.1245 -0.1901
 6854W        W49907   7.663   7.030   0.646  0.1027 -0.0801 -0.0839
 6855W        W49908   1.113   8.592  16.104 -0.0836 -0.1292 -0.1664
 6856W        W49909  13.212  30.424   8.660 -0.2966  0.1071 -0.0688
 6857W        W49910   4.731  19.510   5.890  0.1073  0.1928 -0.0433
 6858W        W49911   8.735   3.908  20.799  0.0956 -0.2322  0.0971
 6859W        W49912   9.720  27.828  27.932 -0.1178  0.1030  0.0544
 6860W        W49913  21.983  32.765  21.329  0.2675 -0.0088 -0.0966
 6861W        W49914  18.077  21.369  26.090 -0.0683 -0.1108  0.0465
 6862W        W49915  21.963  22.644  25.055  0.3055 -0.0644  0.0764
 6863W        W49916  26.984  25.923  18.809  0.0369 -0.2310 -0.1187
 6864W        W49917  10.824   0.904   1.200  0.0217 -0.2194 -0.2247
 6865W        W49918  20.542  14.729  14.870  0.0297  0.1399 -0.0791
 6866W        W49919  24.436   5.773   1.610  0.3150  0.1854  0.0538
 6867W        W49920  26.268   5.214  23.688 -0.2706  0.2651  0.3670
 6868W        W49921  18.267  34.292   1.101  0.1500 -0.0506  0.0535
 6869W        W49922   9.570  26.735   3.443 -0.0904  0.0754 -0.0173
 6870W        W49923   9.717  15.711   5.780 -0.2614 -0.1073 -0.2273
 6871W        W49924  20.754  25.351   5.792  0.2828 -0.0297 -0.2855
 6872W        W49925  16.626  33.780   5.388 -0.3419  0.0205  0.2542
 6873W        W49926   4.637  24.417  20.176 -0.1546 -0.1710 -0.0341
 6874W        W49927   7.192   4.497   9.095  0.4242  0.1901  0.2033
 6875W        W49928  23.979   6.455   7.562  0.1048 -0.0403 -0.2241
 6876W        W49929  15.078  24.139   9.233 -0.3362  0.2283  0.0424
 6877W        W49930  11.969  27.564   2.798 -0.4388  0.1268 -0.0807
 6878W        W49931  20.719   6.275   2.472  0.0044 -0.1884  0.1019
 6879W        W49932  31.736   2.225   4.968  0.3399  0.0747  0.0878
 6880W        W49933  21.877  30.339  18.368 -0.0393 -0.0201 -0.0965
 6881W        W49934  26.241  23.924   1.232  0.0601 -0.2402  0.0237
 6882W        W49935  21.977  25.647  24.830  0.1328  0.1222  0.1841
 6883W        W49936  20.751  30.052   2.703  0.1430  0.0039 -0.0114
 6884W        W49937  14.563  25.631   6.634  0.2045 -0.2956  0.0571
 6885W        W49938  23.237   9.732  22.424 -0.1174 -0.2215 -0.4907
 6886W        W49939  21.872   0.907  17.732 -0.1382  0.2347 -0.1752
 6887W        W49940   3.587   8.609  19.627 -0.0504  0.1332  0.1397
 6888W        W49941  15.905   4.564   9.002  0.2051  0.1776 -0.2555
 6889W        W49942   2.057  22.451  22.784  0.0010  0.0187  0.3406
 6890W        W49943   3.672  30.812   3.616 -0.2238  0.2767 -0.2176
 6891W        W49944  12.335  10.096  24.917 -0.0171 -0.1659  0.2495
 6892W        W49945  27.129  24.767   4.697  0.0621 -0.1539 -0.1098
 6893W        W49946  19.705  29.619  24.872  0.1643  0.2198 -0.0337
 6894W        W49947   9.511   2.557   7.412  0.2004  0.2757  0.0169
 6895W        W49948  23.654  29.875   4.620 -0.0650  0.0496 -0.3817
 6896W        W49949  34.182  20.597  23.159 -0.0455 -0.2769 -0.0277
 6897W        W49950   7.511  22.059   3.594 -0.1108  0.0300  0.1481
 6898W        W49951  28.169  28.478  29.154  0.0296  0.0339  0.2123
 6899W        W49952  12.775  25.371   0.145  0.2571 -0.0374 -0.1271
 6900W        W49953  19.541  25.265  10.987  0.2175 -0.0998 -0.1079
 6901W        W49954  19.074   1.304   1.086 -0.2012  0.5028 -0.0109
 6902W        W49955   6.965  15.393  25.903 -0.1638 -0.3877 -0.1355
 6903W        W49956  21.248  19.260   8.839 -0.2243 -0.4057 -0.1012
 6904W        W49957  34.360  23.183  17.591 -0.0226  0.0644  0.4510
 6905W        W49958  15.653  29.533   0.384  0.0108 -0.0340 -0.0734
 6906W        W49959  22.523  30.707  29.092  0.3493 -0.3197  0.1806
 6907W        W49960  29.923   8.901   1.607 -0.0973  0.1047  0.1460
 6908W        W49961  21.906  32.296   7.666  0.2638  0.0880  0.0540
 6909W        W49962   7.922  31.775  25.928 -0.2054  0.0095 -0.2735
 6910W        W49963  31.528  16.380  25.131 -0.0487 -0.1560 -0.4289
 6911W        W49964   6.078  21.382  27.202  0.1738 -0.3439 -0.1258
 6912W        W49965  21.252  32.727  10.395 -0.1287  0.0468 -0.0414
 6913W        W49966  30.640  11.279  28.056 -0.0536  0.1942 -0.2103
 6914W        W49967   3.994  19.066   3.908 -0.1423 -0.0755  0.0975
 6915W        W49968  28.553   0.630  20.414 -0.2017 -0.3467  0.3485
 6916W        W49969   3.706   3.606   9.899  0.0331 -0.1148 -0.3362
 6917W        W49970  31.106  30.598   6.593  0.0968  0.1935  0.4471
 6918W        W49971  15.173  22.676   3.864 -0.0287 -0.1993  0.0340
 6919W        W49972   0.278  32.551  27.033 -0.4049  0.1269  0.0939
 6920W        W49973  10.038  28.488   5.957 -0.1562 -0.1404  0.0455
 6921W        W49974   9.013  24.385  24.394 -0.0360  0.3336 -0.1446
 6922W        W49975  21.308   8.999   6.920  0.2202 -0.0850 -0.0197
 6923W        W49976   7.860  33.388   2.437  0.2106 -0.0499  0.0737
 6924W        W49977   8.134  11.960   5.226 -0.1498  0.3914 -0.0405
 6925W        W49978  22.350  12.467   6.204  0.0658 -0.0965 -0.1228
 6926W        W49979  31.968  22.214   0.564  0.0292 -0.1546  0.0153
 6927W        W49980  18.750  31.773   2.440 -0.1750  0.2026 -0.0686
 6928W        W49981  22.226  30.079  10.366  0.0188 -0.2056 -0.1093
 6929W        W49982  16.150   1.331  17.211  0.2487  0.0682  0.0840
 6930W        W49983  13.070  12.520  19.307 -0.6307 -0.2844  0.3479
 6931W        W49984  18.886  28.133   7.805 -0.0492  0.2409 -0.5003
 6932W        W49985  11.177  26.439   5.097 -0.2183 -0.0266  0.0783
 6933W        W49986  25.778  15.766   3.842 -0.1749  0.4803  0.1423
 6934W        W49987  17.982  26.722   1.307 -0.0467 -0.3049  0.0207
 6935W        W49988  18.526   4.198   9.869  0.1180  0.0762 -0.1644
 6936W        W49989  16.842  23.107   5.784  0.0637  0.1507  0.1541
 6937W        W49990  21.173   9.258   8.565 -0.0182 -0.2445 -0.0919
 6938W        W49991  33.266  18.950   1.125  0.1032  0.0390 -0.0380
 6939W        W49992  12.294  33.306   2.440 -0.0306  0.2420  0.0770
 6940W        W49993  14.985  33.183  20.525 -0.0304 -0.0011 -0.2392
 6941W        W49994  10.647   2.579   5.180  0.2281 -0.0085  0.1613
 6942W        W49995  23.016  32.094   1.832  0.2112 -0.0350 -0.0074
 6943W        W49996  29.376  21.593  22.413  0.4469 -0.0623  0.1439
 6944W        W49997  21.382   2.164   1.925  0.0442 -0.0652 -0.2447
 6945W        W49998  12.997  13.864   6.315  0.0151  0.5400 -0.2145
 6946W        W49999  10.925  26.360  24.896  0.0680  0.1794 -0.2285
 6947W        W50000  22.937  17.866  24.192 -0.1508 -0.1723 -0.2794
 6948W        W50001  20.122   2.427   8.527  0.1087 -0.3009 -0.0305
 6949W        W50002  18.559  30.580   5.205  0.1942  0.1922 -0.0457
 6950W        W50003  24.563   0.166  21.376  0.1110 -0.0138 -0.0636
 6951W        W50004  19.834  31.152  22.557  0.1387 -0.1508 -0.2962
 6952W        W50005  29.715  15.768   8.862  0.0513 -0.0007 -0.0218
 6953W        W50006  27.860  10.526   5.758  0.0738 -0.1123  0.2286
 6954W        W50007  13.367   9.025   2.218  0.1914 -0.3049 -0.4056
 6955W        W50008  20.785  31.638   8.890  0.0433 -0.0231 -0.0435
 6956W        W50009  22.001  32.075   1.999 -0.3775 -0.1841 -0.0882
 6957W        W50010  13.209  10.682   8.796 -0.2104  0.0296  0.0151
 6958W        W50011  26.242  17.943   5.352  0.1957 -0.1507 -0.2488
 6959W        W50012  28.775   0.547   4.190 -0.1315  0.0576  0.2950
 6960W        W50013  23.210  26.589   9.298  0.0320 -0.0001  0.2195
 6961W        W50014   2.793  26.422  19.840  0.0045  0.0137  0.0009
 6962W        W50015  11.878  34.324   2.927  0.4010  0.3677 -0.0747
 6963W        W50016  21.599  23.264  19.215 -0.3259  0.0538 -0.4503
 6964W        W50017  16.671  24.647   2.691  0.0318  0.2436  0.1621
 6965W        W50018  32.371  31.487  28.738 -0.2304  0.0782 -0.3054
 6966W        W50019  23.653  24.577  17.356  0.2913 -0.0679  0.0697
 6967W        W50020  11.467  27.114  28.854 -0.0265  0.2336  0.4139
 6968W        W50021  20.398  32.541   1.481  0.0233 -0.4082  0.1336
 6969W        W50022  21.924  31.204   5.188 -0.0513 -0.1511 -0.0998
 6970W        W50023  11.237  27.811   7.833  0.0235  0.1948  0.2690
 6971W        W50024  15.245  32.444   2.930 -0.2261  0.1102 -0.0556
 6972W        W50025   5.792  33.749  19.612 -0.0306  0.0321  0.2849
 6973W        W50026   6.058  33.467  29.063  0.3488  0.2023 -0.3955
 6974W        W50027  16.359  21.172  21.759 -0.1536 -0.1411  0.1527
 6975W        W50028  20.890   6.099   8.182 -0.3636  0.0784  0.1221
 6976W        W50029  20.691  30.065  18.344  0.1301  0.1655  0.2901
 6977W        W50030   3.255  21.787  27.603 -0.1199 -0.0807  0.0086
 6978W        W50031  12.709  33.526  19.859 -0.2594  0.0364 -0.2530
 6979W        W50032  14.797   3.724  26.581  0.1388 -0.0268  0.0700
 6980W        W50033  11.210  21.936  22.217 -0.0600 -0.1801 -0.0103
 6981W        W50034  18.621  12.018   2.147 -0.0150  0.0739 -0.1484
 6982W        W50035   3.448  16.952  26.861 -0.0333  0.2967  0.0255
 6983W        W50036  31.877  19.772   3.935 -0.1438 -0.0695  0.1419
 6984W        W50037  26.350  13.572  16.030 -0.0899 -0.1010 -0.0106
 6985W        W50038   9.545  34.079  16.278 -0.0683  0.0401  0.0561
 6986W        W50039  25.834   2.650  25.090 -0.2587  0.4153 -0.0226
 6987W        W50040  33.746  21.750   8.709  0.3481  0.1832 -0.0493
 6988W        W50041  28.343   1.401   7.386  0.2430  0.4214 -0.1533
 6989W        W50042  10.943   2.915  19.054 -0.2255 -0.1838 -0.1572
 6990W        W50043  23.278  19.478   2.495  0.0111 -0.3485 -0.0598
 6991W        W50044   3.655   1.099   1.022  0.0651 -0.1588 -0.2196
 6992W        W50045  21.614  30.450  16.436 -0.3600 -0.1396 -0.1338
 6993W        W50046   0.728  22.168   5.915  0.1045 -0.3783  0.0693
 6994W        W50047  24.986  31.491   4.583 -0.0641 -0.1901 -0.0557
 6995W        W50048   7.999  32.162  17.397  0.2167 -0.3005 -0.2118
 6996W        W50049  30.071  31.055  24.153 -0.1883  0.2063 -0.5155
 6997W        W50050  19.765  30.285  28.275 -0.0127  0.1906 -0.0522
 6998W        W50051  18.820  20.838  28.549  0.1372  0.1180  0.0859
 6999W        W50052  19.855  32.223   3.194  0.0993 -0.0394  0.2220
 7000W        W50053   2.019  21.227   0.786 -0.0724  0.0513 -0.0685
 7001W        W50054  29.601  33.613  26.837 -0.0385  0.2775 -0.1508
 7002W        W50055   6.016  12.118  23.385  0.1846 -0.0932  0.1050
 7003W        W50056  16.425  33.828  25.128  0.2764 -0.0899  0.1538
 7004W        W50057  30.215  26.639  14.530 -0.0941 -0.0378  0.0814
 7005W        W50058  15.560  15.906  23.640 -0.1991  0.0741  0.0774
 7006W        W50059  12.637   9.373  10.198  0.1515  0.1752 -0.0274
 7007W        W50060  11.174  31.440  27.364 -0.0449 -0.1338  0.4142
 7008W        W50061  12.689  31.209   3.036  0.1507  0.0153  0.1871
 7009W        W50062   8.136  11.124   8.185 -0.0127  0.2763 -0.1268
 7010W        W50063  15.411  22.655  28.033  0.1436  0.1628  0.1760
 7011W        W50064  21.532   1.183  29.145 -0.1202 -0.0615 -0.0118
 7012W        W50065  23.911  26.185  27.555 -0.0833 -0.1196  0.1422
 7013W        W50066  12.654  14.957  28.496  0.0980 -0.1444  0.2107
 7014W        W50067  22.466   5.309   4.163 -0.2223  0.0692  0.1253
 7015W        W50068   9.411  29.939   7.115  0.2074 -0.1946  0.2873
 7016W        W50069   3.192  21.155  28.610 -0.3459 -0.0809  0.0207
 7017W        W50070  14.172   8.785  20.975  0.1728 -0.1061  0.1788
 7018W        W50071  16.659  22.145  14.909 -0.1988 -0.0561 -0.1956
 7019W        W50072  16.419  30.710   6.854 -0.0845  0.0324 -0.4012
 7020W        W50073  21.245  16.314   7.360 -0.0884  0.1252 -0.1628
 7021W        W50074  21.490   2.936   3.161 -0.2454 -0.1912  0.0216
 7022W        W50075   4.979  24.219   1.494 -0.1231  0.0808  0.0413
 7023W        W50076  21.643   8.562   2.294 -0.1635 -0.2761  0.2131
 7024W        W50077  21.207  23.464   7.394 -0.1598  0.0056 -0.0971
 7025W        W50078  15.105  11.782   8.340 -0.1282 -0.0929  0.0685
 7026W        W50079   4.751  33.528   2.630  0.2823 -0.1847  0.0127
 7027W        W50080  23.240   1.555  23.673  0.1329  0.2578 -0.0489
 7028W        W50081  22.465  20.954  24.588 -0.1621 -0.0513  0.2570
 7029W        W50082   4.310  11.494  23.825  0.1595  0.2929 -0.0535
 7030W        W50083  28.576  33.798   2.023 -0.0464  0.0122  0.1051
 7031W        W50084   6.935  16.178   6.726  0.2054 -0.0673 -0.0413
 7032W        W50085  16.861   3.231  23.453 -0.2438 -0.2420 -0.1185
 7033W        W50086  31.081  31.009  26.554 -0.1828  0.0547  0.0558
 7034W        W50087  11.887  29.568   5.289  0.0778 -0.1043  0.0578
 7035W        W50088  16.867  19.501   8.488 -0.2208  0.0548  0.1086
 7036W        W50089  12.646  25.496  22.633  0.0501  0.0791  0.1244
 7037W        W50090  10.916  23.115   2.883  0.1158  0.2263  0.3084
 7038W        W50091  32.152   3.809  25.055  0.1880 -0.0251  0.1198
 7039W        W50092  31.179   1.323   0.845 -0.2033  0.0704 -0.0457
 7040W        W50093  17.754  22.577   0.788  0.1143  0.0391 -0.0072
 7041W        W50094  28.484  34.338   3.966  0.0367  0.0994 -0.3016
 7042W        W50095  23.784  32.210   9.874 -0.2142  0.1886 -0.1114
 7043W        W50096   9.063  33.714   0.332  0.4056  0.2713 -0.1404
 7044W        W50097  28.212  22.747  22.937 -0.0881 -0.0664  0.0599
 7045W        W50098  16.137   8.355   9.685 -0.0886 -0.1385  0.0277
 7046W        W50099  29.524  28.130   3.355  0.3990 -0.1068  0.2335
 7047W        W50100   0.334   4.476   7.535  0.3973 -0.0655  0.1537
 7048W        W50101   1.035  28.870   4.206  0.0027 -0.3017 -0.1722
 7049W        W50102  27.362  17.050  19.940 -0.0615 -0.0363  0.1516
 7050W        W50103  29.946  29.467  21.183 -0.2409  0.1464  0.2483
 7051W        W50104   8.482   6.804  24.181 -0.1405  0.0171  0.0765
 7052W        W50105   5.062  27.642  28.291 -0.2893 -0.0808 -0.1586
 7053W        W50106  26.361  18.128  13.790  0.1613  0.0282  0.3379
 7054W        W50107  20.386  10.441   0.272 -0.0151  0.2590  0.2507
 7055W        W50108   4.381   3.081   5.697  0.3153 -0.4189  0.0477
 7056W        W50109   7.369   2.420  16.504 -0.2853 -0.1037  0.0214
 7057W        W50110   8.919  25.579  20.506  0.2918 -0.3093 -0.1890
 7058W        W50111   0.110  22.493   5.479  0.0404 -0.2517  0.2641
 7059W        W50112  25.395   9.710   6.056  0.1337  0.0555 -0.1452
 7060W        W50113   3.844   0.668   8.285  0.4124 -0.0212 -0.1132
 7061W        W50114   7.473   3.727   8.449  0.0626 -0.2948 -0.0006
 7062W        W50115  31.788   0.891  13.950  0.0257  0.1192  0.1998
 7063W        W50116  13.027   2.601   4.915 -0.0150  0.3732  0.1094
 7064W        W50117  20.165   2.795   8.924  0.0112  0.3143  0.0220
 7065W        W50118  26.309  27.694  27.598 -0.0240 -0.0731 -0.0172
 7066W        W50119  25.877  25.022   7.427 -0.1080 -0.1680  0.0402
 7067W        W50120  26.726   2.446   3.789 -0.1990  0.3986 -0.1220
 7068W        W50121  21.772   4.905   9.535  0.2644 -0.3053 -0.1782
 7069W        W50122  23.847   5.085   8.205 -0.0729 -0.1826  0.0454
 7070W        W50123  24.868  24.387  26.230 -0.0693  0.0274 -0.3439
 7071W        W50124  21.242  21.698  24.213 -0.0940  0.1279 -0.3761
 7072W        W50125  28.289  30.393   5.044 -0.3859  0.0808  0.1914
 7073W        W50126  22.519   2.592   7.443  0.1276 -0.0948 -0.3761
 7074W        W50127  16.392  27.305  19.551 -0.3836  0.2356  0.0141
 7075W        W50128  29.785   2.543   2.297  0.1306 -0.0933 -0.2853
 7076W        W50129  14.669  29.062   6.077 -0.2336 -0.0901 -0.1397
 7077W        W50130  22.657  31.237   4.609  0.1224  0.2998 -0.1675
 7078W        W50131  22.307   3.131  27.657  0.0408 -0.1902  0.1752
 7079W        W50132  18.808  24.798  25.987  0.1347  0.1348 -0.1002
 7080W        W50133   4.557  30.924   3.670  0.2226 -0.0470  0.2155
 7081W        W50134   7.902  23.460  23.008 -0.2332  0.0615 -0.1051
 7082W        W50135  11.873   2.079  25.928  0.2450  0.1110 -0.0049
 7083W        W50136  23.093  27.105   5.000  0.1442 -0.0428  0.0534
 7084W        W50137  20.240   7.942  22.193  0.0274  0.1017  0.2179
 7085W        W50138   5.636  28.620  19.713 -0.0438  0.1107  0.1040
 7086W        W50139  11.800   3.818   5.691 -0.3295 -0.2783  0.0430
 7087W        W50140  10.218  32.854  10.290 -0.1232  0.1101  0.1779
 7088W        W50141  19.681  30.928  22.946 -0.2339  0.1661 -0.1408
 7089W        W50142   8.409  28.121   5.330 -0.1088  0.0540  0.3425
 7090W        W50143  16.739  22.443   5.889 -0.1027 -0.1712 -0.2316
 7091W        W50144  32.286   6.346   8.410  0.1083  0.0389  0.0617
 7092W        W50145  14.459   5.370  27.518  0.1019  0.3268  0.0949
 7093W        W50146   9.365  22.435   7.577 -0.0546 -0.6120 -0.1779
 7094W        W50147  15.977  31.075   6.854  0.0071  0.0230 -0.2239
 7095W        W50148   6.940  21.682  19.195 -0.1451 -0.2465  0.1917
 7096W        W50149   2.693   6.889  25.476 -0.2135  0.2292 -0.0484
 7097W        W50150  24.815   8.739   5.323 -0.2385  0.0774 -0.2341
 7098W        W50151  16.593  24.557   7.298 -0.1489 -0.3055  0.1708
 7099W        W50152  30.551  31.480   7.697 -0.0016  0.1322 -0.0345
 7100W        W50153  24.237   9.551  16.658  0.1781 -0.1252 -0.0500
 7101W        W50154  25.429  27.731   5.481 -0.0137  0.2583  0.1498
 7102W        W50155  15.104   2.223  26.632  0.0448 -0.0163 -0.1008
 7103W        W50156  10.581   5.514  24.846 -0.1606 -0.2850 -0.2557
 7104W        W50157  17.848  20.158   8.732  0.0087  0.0660  0.0900
 7105W        W50158   1.360  30.633  25.887  0.0277 -0.0384 -0.1827
 7106W        W50159  29.456  24.383  14.833 -0.0805 -0.0921 -0.2333
 7107W        W50160  12.818  32.268   4.422  0.0376  0.3170 -0.4782
 7108W        W50161  15.824  27.437  27.604  0.1871  0.3337 -0.2147
 7109W        W50162  26.564   9.269  20.457  0.1487  0.2357  0.0019
 7110W        W50163  33.621  32.772   3.478  0.0041  0.3886 -0.1093
 7111W        W50164  20.897  20.244   9.694  0.0945  0.0070  0.0726
 7112W        W50165  32.650  33.114   4.445 -0.4052  0.1763  0.0170
 7113W        W50166  10.044   4.420  22.252  0.0881 -0.0576 -0.0347
 7114W        W50167  18.791  32.841   4.790 -0.5326 -0.0429  0.0756
 7115W        W50168  12.273  15.684   8.386  0.2278  0.0968 -0.2394
 7116W        W50169   7.099  25.964   4.528 -0.0106  0.1002  0.1106
 7117W        W50170  13.864   0.756  28.804  0.0790  0.1303  0.0652
 7118W        W50171   3.868  23.717  19.611  0.4185 -0.2723 -0.1012
 7119W        W50172  18.699  16.878  14.983  0.2232  0.0895  0.1524
 7120W        W50173   9.382  24.988   6.004  0.1898  0.1288  0.1989
 7121W        W50174   6.520   6.091  18.173  0.1187  0.1626 -0.0224
 7122W        W50175   8.988   1.074   3.856  0.1092 -0.0110 -0.1263
 7123W        W50176  17.454  28.198   4.667 -0.2460 -0.1658 -0.0883
 7124W        W50177   3.826   4.061   3.328  0.0726 -0.2148 -0.0337
 7125W        W50178  12.225   3.444   4.477 -0.3223  0.0073  0.1700
 7126W        W50179  12.404   0.546   7.602 -0.0359  0.1391 -0.1334
 7127W        W50180   4.030  29.915   6.796  0.2428  0.1729 -0.2524
 7128W        W50181  10.927   7.797  18.522  0.2809 -0.3169 -0.0485
 7129W        W50182  27.124   0.850   8.999 -0.2424  0.1585 -0.1370
 7130W        W50183  13.511  19.055   1.522 -0.4018 -0.1284 -0.0768
 7131W        W50184  23.284   4.742  20.013  0.2762  0.2353 -0.1564
 7132W        W50185  26.997  21.205   6.532  0.1049 -0.3134 -0.0694
 7133W        W50186   9.600  13.537  27.347 -0.0604 -0.0494  0.1233
 7134W        W50187  20.352  28.815   6.229  0.0798 -0.1484  0.1624
 7135W        W50188  16.507  27.258   1.357 -0.0433 -0.1854  0.1273
 7136W        W50189  13.142  32.806   4.701 -0.3309 -0.0576 -0.2900
 7137W        W50190   3.365   3.875  22.764 -0.3190 -0.0199 -0.0715
 7138W        W50191  23.412   0.172   4.168  0.2858 -0.0249 -0.1548
 7139W        W50192  21.850  14.551   5.749 -0.0132 -0.1588  0.1292
 7140W        W50193   3.254  21.343  26.419 -0.0760 -0.4218  0.1200
 7141W        W50194  30.371  17.270   9.218  0.2753 -0.1448  0.0316
 7142W        W50195  15.198  18.013  26.523  0.2018  0.2892 -0.1145
 7143W        W50196  27.831  12.136   2.049  0.3064  0.1940 -0.1930
 7144W        W50197  28.888  28.868   8.269  0.0285 -0.2555  0.0297
 7145W        W50198  28.998   3.743  13.378 -0.0137 -0.3462 -0.2043
 7146W        W50199  13.904   0.470   8.851  0.1754 -0.0687  0.4489
 7147W        W50200  23.194  34.661   4.984  0.1408 -0.0197  0.0079
 7148W        W50201   7.724  31.372  24.029 -0.1854  0.1656 -0.0706
 7149W        W50202  13.008  19.479   4.870 -0.1361  0.0403  0.0466
 7150W        W50203  22.594  24.105   9.964  0.3075  0.1202 -0.0075
 7151W        W50204  17.359  29.789  28.304  0.0567 -0.2308 -0.3222
 7152W        W50205   9.081  30.068   1.373 -0.0542 -0.1694 -0.0067
 7153W        W50206  13.160  28.377  27.899 -0.2125 -0.2222 -0.2820
 7154W        W50207  27.516  20.449   9.112  0.1554  0.1171 -0.0859
 7155W        W50208  27.137   1.930  26.818 -0.0323  0.0479  0.0255
 7156W        W50209   0.257   5.634   3.089  0.4045  0.2039 -0.1657
 7157W        W50210  21.043   3.196   4.758 -0.0388 -0.5327  0.0171
 7158W        W50211   9.245   0.980  27.114  0.2137  0.1387  0.2656
 7159W        W50212   4.628  31.131  26.740  0.0620 -0.1207 -0.1903
 7160W        W50213  30.150  10.845   6.098 -0.3856  0.0361  0.0593
 7161W        W50214  10.568  22.138  26.325 -0.2996 -0.2061  0.1363
 7162W        W50215  20.572  21.682   2.617  0.2985 -0.0579  0.2760
 7163W        W50216  17.045   2.577   0.885  0.0468 -0.1018  0.0741
 7164W        W50217  15.920  32.976   8.464 -0.3623 -0.0076 -0.1004
 7165W        W50218   1.671  31.672  28.201  0.3403  0.0727 -0.1314
 7166W        W50219   4.946  15.143  26.717  0.1163 -0.2653 -0.0937
 7167W        W50220  21.372   5.948   9.447 -0.0451  0.0133  0.3265
 7168W        W50221   2.212   7.484  22.121 -0.0090 -0.0970  0.2187
 7169W        W50222   9.662  22.602   0.205 -0.2867 -0.2459  0.1989
 7170W        W50223  34.205  29.323   9.031 -0.0875  0.0289  0.2141
 7171W        W50224   1.219   2.317  29.120 -0.1803 -0.0340 -0.1577
 7172W        W50225  20.929  31.643   4.559  0.2056  0.0927  0.0817
 7173W        W50226  10.732  26.192   1.132  0.2042  0.2697  0.1159
 7174W        W50227   1.736  15.363   3.697  0.0193 -0.1621 -0.1593
 7175W        W50228  20.857  30.592  24.727 -0.0689 -0.0715 -0.2649
 7176W        W50229  29.980   7.267  25.131  0.1520  0.0827  0.0317
 7177W        W50230   9.620   1.788  28.161 -0.0882 -0.0228  0.2156
 7178W        W50231  29.562   0.749  27.072 -0.0973 -0.0225  0.2449
 7179W        W50232  13.706   6.983  28.889 -0.0415  0.4904  0.1954
 7180W        W50233   0.513  12.019  17.837 -0.0242  0.2249  0.1071
 7181W        W50234  30.199  31.470   5.820 -0.1524  0.1537 -0.2090
 7182W        W50235  20.537  22.235   3.269  0.1253 -0.0230 -0.1178
 7183W        W50236   8.900  16.914   2.361  0.4407 -0.1122 -0.1313
 7184W        W50237  13.731   1.847   8.025  0.4292  0.0980  0.2699
 7185W        W50238  26.616  28.328  28.263  0.0290  0.3410  0.1636
 7186W        W50239  25.896  25.351   7.907 -0.0987 -0.0605 -0.2207
 7187W        W50240  10.502  25.169   3.875 -0.1151  0.1386 -0.3194
 7188W        W50241  13.705   7.414   1.782  0.0410 -0.1809 -0.1370
 7189W        W50242  12.200   3.541   4.973 -0.1104 -0.2003 -0.1534
 7190W        W50243  18.088   7.987  24.550 -0.1955 -0.2682 -0.1356
 7191W        W50244  11.196  33.887  23.100  0.3152 -0.0704 -0.0798
 7192W        W50245  20.036  33.270  10.134 -0.0057 -0.1659  0.0001
 7193W        W50246  14.194  28.220   6.978 -0.1625 -0.0551 -0.3142
 7194W        W50247  22.893  30.454   9.499 -0.2166 -0.2303 -0.0653
 7195W        W50248   6.907  15.963   7.798  0.0444  0.1576  0.1371
 7196W        W50249  12.222  14.911  16.181 -0.1706 -0.0027  0.0412
 7197W        W50250  22.339  25.121   5.931  0.1685  0.1988  0.3754
 7198W        W50251  25.281  17.481   7.477 -0.0399  0.0322 -0.0441
 7199W        W50252  24.756   8.018  28.169 -0.2466  0.0686  0.1954
 7200W        W50253  13.416  11.984   7.980  0.0025 -0.0879  0.0446
 7201W        W50254  32.214  10.825  26.202 -0.3094  0.2482  0.0338
 7202W        W50255  15.891  13.760   0.507 -0.0508  0.2165 -0.2505
 7203W        W50256   5.330  27.415   8.289 -0.3492 -0.1536 -0.0104
 7204W        W50257  21.247   7.155   9.689 -0.0167 -0.0115 -0.2471
 7205W        W50258  10.091   5.580  16.665  0.2895 -0.5638  0.0596
 7206W        W50259  30.218   9.814   1.051 -0.2788  0.0685 -0.2248
 7207W        W50260  20.852  28.671   1.589 -0.2514 -0.1867 -0.1399
 7208W        W50261  18.618  22.237  29.007  0.1058  0.0715 -0.1862
 7209W        W50262  15.720   6.561   5.797  0.1061 -0.2046  0.1231
 7210W        W50263  30.309  28.442  27.403 -0.2333  0.0966  0.0272
 7211W        W50264  19.357  22.694  14.302 -0.1931 -0.0231 -0.1094
 7212W        W50265  22.191   3.772  22.374 -0.2255 -0.2633 -0.0745
 7213W        W50266  13.902  15.067   8.564  0.0759 -0.1640  0.0798
 7214W        W50267  28.862  32.506   4.399  0.1391  0.0598  0.1561
 7215W        W50268  14.318  24.535   1.257  0.1255 -0.2175  0.1313
 7216W        W50269  20.695  13.083  21.792 -0.0134 -0.2290  0.3677
 7217W        W50270  29.658  25.674  22.448 -0.1882 -0.0075  0.0248
 7218W        W50271  11.456   1.398  28.158 -0.0035 -0.0653 -0.0206
 7219W        W50272  31.837  13.825   7.344  0.2333 -0.1418 -0.1132
 7220W        W50273  19.729   4.691   1.191 -0.4888 -0.5074 -0.0420
 7221W        W50274   9.000  33.011   5.327  0.0496 -0.1993 -0.0512
 7222W        W50275  30.476   3.900   1.041  0.0981 -0.0195  0.1027
 7223W        W50276  32.254   6.900   8.024  0.1989 -0.0406  0.1061
 7224W        W50277  23.867   3.927  25.866 -0.1976  0.0940 -0.2446
 7225W        W50278   8.526  12.090   7.762  0.0379 -0.0000 -0.1615
 7226W        W50279   3.933  23.541  28.018 -0.0008 -0.0253 -0.1211
 7227W        W50280  15.966  13.143  28.410 -0.0844 -0.1974 -0.1453
 7228W        W50281  14.476  22.745   5.716 -0.2509 -0.1200 -0.1436
 7229W        W50282  34.145  18.879   2.048 -0.2303  0.3005 -0.0514
 7230W        W50283   7.669  33.586   7.086 -0.0137 -0.1412  0.2830
 7231W        W50284   9.591  33.668   6.581  0.0214  0.1170 -0.1384
 7232W        W50285  14.571  14.014  10.265 -0.0659  0.0786  0.4200
 7233W        W50286  16.247   7.087   3.511  0.0783  0.0588 -0.1505
 7234W        W50287  13.209  32.475  22.778  0.0051  0.0142 -0.2318
 7235W        W50288  16.431   5.095  22.686 -0.0556  0.0942  0.3244
 7236W        W50289  13.362  19.801  27.902 -0.0217  0.2150 -0.3380
 7237W        W50290  21.193   3.795   6.413 -0.1045  0.0075 -0.1772
 7238W        W50291  18.928  19.276  22.801  0.2892  0.0309  0.0374
 7239W        W50292  32.140  30.302   7.630  0.2327 -0.2101 -0.0534
 7240W        W50293   8.213  31.312   9.383  0.2291  0.0269 -0.1809
 7241W        W50294  33.380  21.413   5.591 -0.2335 -0.2032 -0.3823
 7242W        W50295  24.552   2.710   4.176 -0.0560  0.1131 -0.1107
 7243W        W50296  19.218  26.476   2.534 -0.2158 -0.1607 -0.1953
 7244W        W50297  18.260  22.974  28.068 -0.0149  0.0400 -0.0014
 7245W        W50298   3.251   2.914  24.457  0.1955  0.1416  0.0032
 7246W        W50299  18.776  19.869   3.600 -0.1679 -0.3057 -0.0274
 7247W        W50300  20.648  12.446   5.361  0.0017  0.1612  0.2037
 7248W        W50301  19.525  17.852   7.738  0.2499  0.1831 -0.0784
 7249W        W50302  31.368  23.082   4.755  0.0197 -0.0730 -0.1311
 7250W        W50303  29.753  29.243   4.938  0.6723  0.1445  0.0050
 7251W        W50304  21.493  26.387   7.381 -0.0105 -0.2083 -0.3066
 7252W        W50305  14.847  30.364   1.164  0.0615  0.0436 -0.1583
 7253W        W50306  16.470  16.737   2.002  0.2632  0.1551 -0.1923
 7254W        W50307  13.314  14.279   5.193  0.1329 -0.0172  0.0734
 7255W        W50308   7.286  30.184   3.447  0.3331  0.2820  0.3710
 7256W        W50309  30.953  18.195   0.404  0.0353  0.0657  0.0724
 7257W        W50310  17.681  30.032  28.592 -0.0888  0.0842 -0.1755
 7258W        W50311  28.710  25.925   7.398  0.1186  0.0964  0.4313
 7259W        W50312   9.169  31.742   3.337 -0.0896 -0.0555 -0.0441
 7260W        W50313   6.893  23.647   4.721 -0.2959  0.0533 -0.0121
 7261W        W50314  17.255  29.068   4.316  0.0031 -0.1358  0.1946
 7262W        W50315  14.101  28.658   1.660 -0.0631 -0.0248 -0.0649
 7263W        W50316  25.557  32.213   4.613  0.0239  0.2929 -0.0394
 7264W        W50317  21.981  13.792  20.302 -0.0617  0.0645 -0.1750
 7265W        W50318  22.726  27.019   7.797  0.0575  0.0189  0.1541
 7266W        W50319  23.341  30.305   9.141 -0.0093 -0.1947 -0.1055
 7267W        W50320  21.457   3.253  24.464  0.1979 -0.0956 -0.1840
 7268W        W50321  16.537   4.937  10.098 -0.1533 -0.3774  0.4255
 7269W        W50322  33.483  13.610   3.770 -0.4335 -0.2268 -0.1710
 7270W        W50323  13.651  32.994   2.919 -0.0486 -0.0562  0.2177
 7271W        W50324   7.523   2.891   4.872 -0.1022  0.0407  0.1069
 7272W        W50325  27.544   4.425   7.985 -0.1212  0.3663 -0.1718
 7273W        W50326  14.557   2.010   0.010 -0.0137 -0.0373 -0.0488
 7274W        W50327  32.953   4.426   8.832  0.0352 -0.1703  0.1461
 7275W        W50328  23.013  21.264   9.894 -0.3271 -0.0436 -0.1829
 7276W        W50329   9.638  26.417   2.450  0.0701 -0.3445 -0.2024
 7277W        W50330  28.319  33.234  23.444 -0.1256  0.0687 -0.1274
 7278W        W50331  16.046  21.949   1.277  0.2247 -0.0140  0.2071
 7279W        W50332  21.852  13.198  28.287  0.0745 -0.2006 -0.0694
 7280W        W50333   6.976  25.527   3.342  0.1745  0.3750  0.4414
 7281W        W50334   8.860   1.195   0.246 -0.0196 -0.1563  0.1415
 7282W        W50335   7.630  23.028   8.648  0.1742  0.1121 -0.0150
 7283W        W50336  16.525  25.444  26.711 -0.2204 -0.1269  0.0245
 7284W        W50337  18.968  12.614   3.957  0.1016  0.2366  0.0822
 7285W        W50338  17.347  20.882   3.190 -0.0513 -0.0583  0.1773
 7286W        W50339   6.895  15.863  10.367  0.0096 -0.2169  0.1625
 7287W        W50340  10.500  26.137  24.587  0.0633 -0.1760  0.0807
 7288W        W50341  13.253  33.242  10.760 -0.1181 -0.1395 -0.2651
 7289W        W50342  32.264  13.612   8.309  0.1077 -0.0139 -0.1934
 7290W        W50343  15.048  25.276   4.148 -0.3558 -0.0837  0.2597
 7291W        W50344  30.868   8.411   3.237  0.1008  0.4000  0.0922
 7292W        W50345  24.241  27.878  28.329  0.1385  0.1044 -0.2020
 7293W        W50346  14.686  17.157   2.523  0.1467  0.0605  0.0202
 7294W        W50347  24.456  21.777   6.387  0.1648 -0.2869  0.0300
 7295W        W50348  22.663  33.042  28.535 -0.0900 -0.1331  0.2067
 7296W        W50349   5.375  25.590   9.804 -0.0867 -0.1568  0.1924
 7297W        W50350  21.939  24.851   3.302 -0.0061 -0.1501 -0.2020
 7298W        W50351  10.411  21.771  22.333 -0.1661  0.2316  0.1479
 7299W        W50352  20.604  17.530  25.193 -0.0875 -0.0452 -0.1748
 7300W        W50353  21.301   3.472   7.572 -0.0009 -0.3347  0.0361
 7301W        W50354  24.008   7.125  26.750  0.0849  0.2730  0.0650
 7302W        W50355  16.115  32.666  24.885  0.0717  0.3386 -0.1242
 7303W        W50356  12.459  19.824  20.323  0.2048  0.0612  0.3770
 7304W        W50357  17.954   4.535   0.758 -0.3751  0.1371 -0.2411
 7305W        W50358  14.543   1.530   6.900 -0.0104 -0.1417 -0.0910
 7306W        W50359  30.944  14.916   3.965  0.2424  0.4033 -0.1256
 7307W        W50360  15.143  27.508   9.684  0.3281  0.0673 -0.0432
 7308W        W50361  18.159  32.699  21.035  0.0602 -0.0274  0.1231
 7309W        W50362  23.143   6.992   7.124  0.1387  0.1918 -0.2006
 7310W        W50363  18.776  13.093   7.129 -0.2180  0.1829 -0.2227
 7311W        W50364   4.696  26.002   5.298  0.3414  0.4012  0.0772
 7312W        W50365   9.854  29.445   2.402  0.0166  0.2631  0.0818
 7313W        W50366  30.689  21.648  20.255  0.1527  0.0461 -0.2191
 7314W        W50367  31.117  26.524   9.301  0.1865 -0.0858 -0.0110
 7315W        W50368   0.409   9.120  22.448  0.0752  0.3209 -0.0457
 7316W        W50369  18.909  20.265  28.441  0.1492 -0.0700  0.0206
 7317W        W50370  19.798   0.344  20.467  0.1743 -0.0212  0.2195
 7318W        W50371  18.172  20.382   3.044  0.0573 -0.0260  0.2280
 7319W        W50372  13.314  15.409   6.566 -0.1404  0.0934  0.0063
 7320W        W50373  21.120   1.179   9.355  0.0756  0.1105  0.0626
 7321W        W50374  21.046   2.699   7.568 -0.0232  0.2420 -0.1440
 7322W        W50375  15.092  14.677   9.736  0.0388  0.1006 -0.2690
 7323W        W50376  13.123  20.501  24.408  0.0026 -0.1048 -0.1458
 7324W        W50377   8.363   0.672   7.500  0.1719 -0.1271 -0.0985
 7325W        W50378   7.657  23.322   8.115  0.1822 -0.2007  0.1193
 7326W        W50379  13.999  34.239   3.858 -0.2426  0.0405 -0.3001
 7327W        W50380  27.327  20.879   2.712  0.0015 -0.2246  0.0491
 7328W        W50381  16.244   7.640   7.926  0.0612  0.3525 -0.4111
 7329W        W50382   0.817  34.079  18.732  0.2894  0.1288  0.0805
 7330W        W50383  28.379  33.948   7.956  0.0899 -0.0098 -0.2542
 7331W        W50384  20.556  26.213   7.867 -0.0086 -0.1765 -0.1310
 7332W        W50385  33.319  28.061  12.718  0.4466 -0.0868  0.2157
 7333W        W50386  19.433   1.600   9.471 -0.0858  0.0883 -0.0390
 7334W        W50387  11.887  15.620   5.258 -0.0787  0.0606 -0.1893
 7335W        W50388  20.282  10.783   8.960  0.0106 -0.3646 -0.1379
 7336W        W50389   9.054   2.065   9.952 -0.1887  0.1813 -0.0748
 7337W        W50390   9.000  27.018   4.123 -0.4111 -0.3414 -0.0214
 7338W        W50391  26.987  20.659   4.169  0.0052 -0.2577  0.0035
 7339W        W50392  15.169  13.714   1.268  0.1975 -0.0803 -0.0591
 7340W        W50393  18.883  33.781   9.807  0.0751  0.2086  0.0957
 7341W        W50394  19.456   8.996   6.299  0.0994 -0.0995  0.0318
 7342W        W50395  12.345  21.986   9.141  0.0250 -0.0843 -0.2311
 7343W        W50396  19.741  11.599   0.318  0.0393 -0.4291 -0.0017
 7344W        W50397  28.213  33.004   9.017 -0.0998 -0.0305 -0.0213
 7345W        W50398   8.503  22.474   6.514  0.1801 -0.0101  0.1252
 7346W        W50399  12.604  24.942  21.867 -0.0731 -0.0807  0.1162
 7347W        W50400  20.567  10.635   9.385 -0.1968 -0.3515  0.2186
 7348W        W50401  13.086  34.472   9.897 -0.0165 -0.2520  0.1881
 7349W        W50402  26.019  12.435   5.199 -0.2111 -0.3855 -0.0421
 7350W        W50403  13.356   9.916   9.057 -0.0394  0.1057  0.1774
 7351W        W50404  19.941   6.024   9.509  0.1403 -0.1901  0.2958
 7352W        W50405  23.351  18.308   8.549  0.0142  0.0932 -0.2719
 7353W        W50406   3.698  24.465   2.395 -0.0024  0.1156  0.2810
 7354W        W50407   9.663  27.720   0.013 -0.3455 -0.1364 -0.4909
 7355W        W50408   7.765  18.827   2.342  0.1193  0.2073 -0.0074
 7356W        W50409  15.887   9.870   5.310  0.4056  0.0063  0.3247
 7357W        W50410  26.534   6.184   6.420 -0.1940 -0.0094  0.3039
 7358W        W50411  14.921  27.244   0.820 -0.0408  0.1211 -0.3902
 7359W        W50412  12.071  31.665  27.369  0.0988 -0.3311  0.0162
 7360W        W50413   7.067  30.136   8.811  0.0552 -0.3366  0.0187
 7361W        W50414  21.169  30.827   4.961  0.3514  0.3367  0.0210
 7362W        W50415  21.628   4.343   7.753  0.3352 -0.3931 -0.1160
 7363W        W50416   0.950  29.929  28.475  0.4875  0.2419  0.0845
 7364W        W50417  24.795  31.775   2.832  0.3106  0.3513 -0.2278
 7365W        W50418   8.736   3.513   0.984 -0.3024  0.0333  0.1968
 7366W        W50419  18.355  18.193  25.996 -0.3810 -0.0246  0.0081
 7367W        W50420  25.388  33.832   2.148  0.0687  0.2864 -0.1796
 7368W        W50421  17.203  20.891   1.816 -0.1292 -0.1794  0.2617
 7369W        W50422  25.267   3.999   7.977  0.0619  0.0498  0.1984
 7370W        W50423  17.161  19.532   6.471 -0.1391  0.3217  0.0393
 7371W        W50424  21.192  33.040   8.048  0.0554  0.0686 -0.2814
 7372W        W50425  18.253  26.907  27.770 -0.1216 -0.0271 -0.1861
 7373W        W50426  18.841  33.502   8.959  0.0926  0.2628  0.0480
 7374W        W50427  14.217   2.802   6.736  0.2453  0.4216 -0.0802
 7375W        W50428  28.322   2.550   7.806 -0.0983  0.3895  0.2207
 7376W        W50429  33.978  20.451   0.489 -0.2194  0.1991  0.1104
 7377W        W50430  25.160  27.287   7.539 -0.0279 -0.6045  0.0507
 7378W        W50431  20.989   5.035  20.235  0.0585  0.4077  0.1545
 7379W        W50432  23.133  29.150   2.346 -0.3000 -0.0143 -0.0222
 7380W        W50433  15.630   5.699   7.888  0.1607 -0.1561 -0.1028
 7381W        W50434   2.319  12.516   3.770  0.0306 -0.2925 -0.1384
 7382W        W50435  19.007   3.415   1.935  0.1206  0.1300 -0.0895
 7383W        W50436  19.660  30.940   6.816 -0.1221  0.0776  0.0848
 7384W        W50437  13.037  24.974   9.450  0.0206 -0.2143  0.0428
 7385W        W50438  30.126  13.872   5.499 -0.2618 -0.0822 -0.0618
 7386W        W50439  20.582  20.464  27.059 -0.0757  0.2021 -0.0179
 7387W        W50440  14.245  29.036   9.090 -0.1442 -0.1018 -0.1833
 7388W        W50441  25.520  32.871   2.141 -0.1770 -0.4121  0.2944
 7389W        W50442  23.368   7.069   3.888 -0.0479 -0.2588  0.0986
 7390W        W50443  10.061  32.619   7.654  0.4984  0.3361  0.2240
 7391W        W50444   2.710  32.003  28.463 -0.2475 -0.0716 -0.0410
 7392W        W50445   4.419  27.222   3.722 -0.0775  0.2488  0.1868
 7393W        W50446  19.830   3.308   1.867  0.1509 -0.1606  0.0234
 7394W        W50447  34.193  12.528   4.973  0.1838  0.2434  0.5591
 7395W        W50448  19.504  20.784   8.884  0.0902 -0.2195  0.1848
 7396W        W50449   7.305  32.698  22.602 -0.2858 -0.1319 -0.0834
 7397W        W50450  34.012   5.750   3.154 -0.0582 -0.0361 -0.2070
 7398W        W50451   2.610  18.713  18.385  0.0847 -0.0425  0.0254
 7399W        W50452  11.667  24.747  24.166  0.0430  0.0137 -0.1440
 7400W        W50453  14.420  19.799  26.433 -0.0014  0.2008  0.0908
 7401W        W50454  24.035   5.245   7.201 -0.2881  0.3841 -0.0962
 7402W        W50455  14.352  20.219   4.070  0.0981 -0.0603  0.0095
 7403W        W50456  29.237  30.358  27.883 -0.4034 -0.3592 -0.0198
 7404W        W50457  11.178  31.342   4.264  0.1675 -0.1648  0.0672
 7405W        W50458  17.561  18.858  28.911  0.0633 -0.2379  0.2364
 7406W        W50459  14.314   8.926   7.288  0.1704  0.0861  0.0703
 7407W        W50460  18.418  23.134  23.554 -0.0621  0.3032 -0.3234
 7408W        W50461  28.170   3.668   6.024  0.0135 -0.1178  0.1875
 7409W        W50462  10.849  24.057   0.368  0.1072 -0.2774  0.1191
 7410W        W50463   4.089  20.945  28.921  0.1196  0.0991 -0.1031
 7411W        W50464  10.242   4.459   3.826 -0.1809 -0.0836 -0.0483
 7412W        W50465  19.552  18.671   4.105 -0.1086 -0.3314 -0.2068
 7413W        W50466  15.868   9.394   5.373 -0.2432  0.1428 -0.0183
 7414W        W50467  27.046  23.482  26.980 -0.2491 -0.4775 -0.1988
 7415W        W50468  23.845  23.209   7.529  0.1021 -0.0329 -0.2051
 7416W        W50469  27.179  10.444   4.921 -0.1597 -0.1822 -0.1886
 7417W        W50470  14.224  26.096  10.032  0.2608 -0.1421 -0.0093
 7418W        W50471  13.425  20.402  25.334 -0.1921  0.2416 -0.2037
 7419W        W50472  18.402  20.731   4.113  0.4327 -0.2664  0.2871
 7420W        W50473  12.053   2.776   2.444 -0.0659  0.1475 -0.2323
 7421W        W50474  28.327   2.365  14.715  0.0868 -0.2031 -0.2493
 7422W        W50475  16.133  31.172   3.901 -0.0150 -0.1817  0.0340
 7423W        W50476   0.044  28.017   0.012  0.0302  0.2567 -0.2851
 7424W        W50477   0.296  32.345  18.378 -0.1077  0.2898 -0.3144
 7425W        W50478  16.860  20.124   3.380 -0.1244  0.0299  0.0885
 7426W        W50479  21.655  33.194   0.267  0.3774 -0.2281 -0.1032
 7427W        W50480  14.210  17.156  29.181  0.2814 -0.1814 -0.0631
 7428W        W50481  26.587  12.996   8.483 -0.0431  0.0092 -0.1887
 7429W        W50482  12.696  15.403   7.711  0.3433 -0.2203  0.0216
 7430W        W50483  12.038  31.288  28.165  0.0164 -0.3322  0.2138
 7431W        W50484   9.406  13.305  26.131  0.1160 -0.2054  0.3443
 7432W        W50485  18.221  33.934   4.507  0.0422  0.1435 -0.1992
 7433W        W50486  17.396  17.116   3.418  0.0344 -0.0224  0.2145
 7434W        W50487  12.839  21.811   1.401  0.0477 -0.2303 -0.1743
 7435W        W50488  17.999  32.813   9.926 -0.0110 -0.2128 -0.1993
 7436W        W50489   8.326  33.209   2.648 -0.1424  0.1038  0.0075
 7437W        W50490  16.398  20.472   5.665 -0.0151  0.1250 -0.3585
 7438W        W50491  15.346  23.241   2.616 -0.1714 -0.2829 -0.0863
 7439W        W50492  16.427  26.256   6.691  0.3505 -0.2048  0.1074
 7440W        W50493   8.114  19.632   6.215  0.0205 -0.1665 -0.2147
 7441W        W50494   5.299  31.558  27.693  0.1946  0.0334  0.0308
 7442W        W50495  10.944  11.512   3.076 -0.1465 -0.1195  0.3323
 7443W        W50496  26.421  20.320   4.793  0.0574  0.1583  0.1221
 7444W        W50497  22.351  28.587   1.831 -0.5143 -0.1354  0.2743
 7445W        W50498  14.687   3.435   0.696 -0.0945 -0.2277 -0.1168
 7446W        W50499  10.369  23.280   1.125  0.1551  0.0377 -0.1453
 7447W        W50500  28.541  32.406  29.116  0.3094  0.0227  0.0623
 7448W        W50501  16.406  32.382   1.670 -0.0036 -0.1503  0.1616
 7449W        W50502  18.819  11.739   4.812  0.0789  0.1686  0.2581
 7450W        W50503   7.832  27.506  27.857  0.0323 -0.2884 -0.1489
 7451W        W50504  19.964  23.187  24.641  0.0839 -0.2243 -0.3955
 7452W        W50505  31.347   1.044  27.257  0.0275  0.2643  0.1893
 7453W        W50506  17.925   3.354   0.143 -0.0504  0.0753 -0.1648
 7454W        W50507   2.122   1.858   3.262  0.1153  0.1825 -0.2199
 7455W        W50508  20.650  24.341  10.960 -0.1686 -0.4000 -0.0906
 7456W        W50509  23.941   7.468   3.178 -0.1677  0.5654  0.1673
 7457W        W50510  23.612  31.379   0.428  0.1233  0.0051 -0.0095
 7458W        W50511   2.258  11.427   5.374 -0.3420 -0.0823 -0.1172
 7459W        W50512  24.788  13.784   1.666 -0.1065  0.0336  0.1073
 7460W        W50513  10.981   9.366   3.026 -0.0902 -0.4316  0.2806
 7461W        W50514  27.497  29.160   5.605  0.1201 -0.1873  0.2453
 7462W        W50515  18.449  16.502  25.829  0.3682 -0.2883  0.1949
 7463W        W50516   0.637  30.273  27.345 -0.0084 -0.2230 -0.0511
 7464W        W50517  16.999   0.167   5.217 -0.0436  0.1549 -0.0659
 7465W        W50518  15.468  34.207   8.011 -0.1482 -0.0844  0.0894
 7466W        W50519  28.441  19.026   5.367 -0.3101 -0.2616 -0.1170
 7467W        W50520  17.455   1.899   7.993 -0.1457  0.1100 -0.2439
 7468W        W50521  18.835  11.532   5.715  0.1450  0.1319  0.3707
 7469W        W50522  17.014  21.241   1.424 -0.0889  0.0131  0.0699
 7470W        W50523  13.402  10.019  10.061 -0.2744 -0.3538  0.1802
 7471W        W50524  29.803  32.854   9.465 -0.3160  0.3825  0.0037
 7472W        W50525  15.493  24.805   2.323 -0.2020 -0.0576 -0.2448
 7473W        W50526  27.542  32.456   1.076 -0.0029 -0.1499  0.1573
 7474W        W50527  19.346  32.435   9.098  0.2354  0.0073 -0.1290
 7475W        W50528  26.634  24.446  28.633  0.2430  0.0591 -0.1627
 7476W        W50529   8.835  24.287   1.025 -0.1592 -0.0862  0.1986
 7477W        W50530  16.511  23.344  27.484  0.0269 -0.1823 -0.1051
 7478W        W50531   7.310  34.123  26.735  0.0640  0.2995 -0.0261
 7479W        W50532  12.985  11.486   8.279  0.1493 -0.1338 -0.1694
 7480W        W50533  18.607  32.389   0.609 -0.3109  0.1012  0.1136
 7481W        W50534   6.567  19.690  26.663  0.0166 -0.0461  0.0919
 7482W        W50535   6.810  17.675  22.985  0.1943  0.1327  0.0613
 7483W        W50536   9.775  10.567  21.958  0.2088 -0.0492 -0.2500
 7484W        W50537  33.005   0.666  26.653  0.1249  0.0159 -0.0795
 7485W        W50538  11.325  15.258   5.771  0.2420 -0.1073 -0.1373
 7486W        W50539  16.138   3.707   7.522 -0.1150 -0.1451 -0.0365
 7487W        W50540  19.105   3.336   1.410 -0.1583  0.1256  0.0249
 7488W        W50541  17.567  31.038  22.090 -0.0606  0.0381 -0.1162
 7489W        W50542  30.339  21.098  28.757  0.1674 -0.2211 -0.0073
 7490W        W50543  18.950  27.527  10.369 -0.0712 -0.3892 -0.2764
 7491W        W50544  12.800  19.837  21.203 -0.0837  0.3260 -0.0667
 7492W        W50545  31.057  23.584   8.627 -0.3368  0.3620  0.1207
 7493W        W50546  14.964   6.864   3.029 -0.2631  0.1278  0.2037
 7494W        W50547   1.779  33.764   0.972  0.1945 -0.0212  0.0585
 7495W        W50548  34.292  29.605   7.522 -0.2473  0.2691  0.0355
 7496W        W50549  30.320  13.938   1.006  0.0061 -0.1713  0.1549
 7497W        W50550  27.609  29.662   4.828  0.0930  0.1564  0.0309
 7498W        W50551  14.429  19.788   0.735 -0.0669  0.1679 -0.1577
 7499W        W50552  11.082  15.921  26.673  0.1284  0.2073 -0.0600
 7500W        W50553  24.363  19.709   9.530  0.0871 -0.0363  0.0235
 7501W        W50554  28.132  31.734  22.509 -0.0745  0.1938  0.1146
 7502W        W50555  22.821  32.660   5.669 -0.0047  0.2345 -0.1530
 7503W        W50556   7.800  18.289   2.701  0.1817  0.0043  0.2126
 7504W        W50557  13.795  16.927   5.138 -0.0815 -0.0246  0.1631
 7505W        W50558  17.401   7.474   1.287 -0.0289  0.1592 -0.2859
 7506W        W50559  15.635   9.391   3.437 -0.1983 -0.2361  0.0066
 7507W        W50560  20.320  31.650   9.750 -0.1178  0.2179  0.0933
 7508W        W50561  24.717  32.133  22.005 -0.1742 -0.1511  0.0525
 7509W        W50562  12.955  25.368   3.759 -0.2239  0.0707  0.2997
 7510W        W50563   4.079  33.664  25.010 -0.0423  0.1951 -0.1206
 7511W        W50564   0.658  18.099  28.499 -0.2295 -0.1597 -0.0001
 7512W        W50565   8.338  26.674   4.762  0.0976 -0.0554  0.1718
 7513W        W50566  19.721   5.351   2.574  0.1097 -0.2052  0.1341
 7514W        W50567  24.258   3.713   8.869 -0.0964  0.0717 -0.0147
 7515W        W50568  17.509   2.605  28.216 -0.3757  0.1765 -0.2274
 7516W        W50569  20.998  31.413   7.802  0.0127  0.3155 -0.0942
 7517W        W50570  17.286  25.432   4.516 -0.1760 -0.0142  0.0828
 7518W        W50571  21.814   1.475   3.375 -0.2659 -0.2989  0.1007
 7519W        W50572   3.495  23.601  27.592 -0.2557 -0.0840 -0.2205
 7520W        W50573   7.214  29.536  28.696 -0.1544 -0.1025 -0.1385
 7521W        W50574   2.787  32.662  28.451  0.3824 -0.2376 -0.1809
 7522W        W50575  19.973   0.715   3.406  0.1880 -0.5833  0.0838
 7523W        W50576  19.747  23.746  27.813 -0.1111 -0.0482  0.0212
 7524W        W50577  17.392   2.903  25.988  0.0338  0.1621  0.0547
 7525W        W50578  28.611  30.442  23.457  0.0238  0.0101  0.0502
 7526W        W50579  15.674   1.874   4.065 -0.0761 -0.0952 -0.0099
 7527W        W50580  10.462  32.130  26.373 -0.0133 -0.1052 -0.1328
 7528W        W50581  29.404  33.001   8.608  0.0628  0.0346 -0.1257
 7529W        W50582   5.839  15.494   5.483  0.1277 -0.0232 -0.1065
 7530W        W50583  13.092   8.548  24.727  0.1538 -0.0385  0.0165
 7531W        W50584   9.497  28.247   1.444 -0.2215 -0.0012  0.0303
 7532W        W50585  13.816  33.565   7.122  0.0663 -0.1474  0.0571
 7533W        W50586  21.868  24.200  28.464  0.2237  0.0600  0.1506
 7534W        W50587  12.739  30.209  28.790 -0.0707 -0.0474 -0.1646
 7535W        W50588  15.707  31.495  23.226  0.0273  0.0773 -0.2957
 7536W        W50589  11.324  28.197   2.228 -0.1539  0.1345  0.1890
 7537W        W50590  20.669  29.248  17.381 -0.1065  0.0620 -0.1226
 7538W        W50591  26.483   8.435   9.532 -0.0729  0.0655  0.1353
 7539W        W50592  20.818   9.110   0.902  0.2489 -0.1626 -0.0898
 7540W        W50593  11.128  31.560   1.159  0.2007  0.1165 -0.2127
 7541W        W50594  21.382  21.381  27.855  0.1176 -0.0525 -0.1158
 7542W        W50595  23.817  22.453  28.330 -0.0226  0.0523 -0.1237
 7543W        W50596  25.453  28.701   1.670 -0.3460  0.1626  0.0710
 7544W        W50597   2.364   8.132  28.303 -0.1098  0.0364  0.5130
 7545W        W50598  18.663  29.659   1.381  0.2748 -0.1849  0.2031
 7546W        W50599  18.950  26.882  28.395 -0.0450  0.0274  0.1287
 7547W        W50600  15.717  26.210  28.345 -0.2274 -0.3607  0.0772
 7548W        W50601  32.334   2.364  10.421  0.0973  0.2580  0.1934
 7549W        W50602   2.115   0.619   7.917  0.0063 -0.2491  0.0081
 7550W        W50603  25.219  13.606   3.550  0.1223 -0.0640 -0.3522
 7551W        W50604   4.850  17.809   9.042 -0.0074 -0.1973  0.1865
 7552W        W50605  21.033  28.306   7.207  0.3734 -0.0045 -0.2252
 7553W        W50606  18.066  32.339   3.964 -0.1782 -0.1741 -0.1595
 7554W        W50607  21.301  24.181   6.711 -0.1388 -0.0610 -0.3097
 7555W        W50608   3.371  28.494   6.840 -0.0438 -0.2136  0.0636
 7556W        W50609  16.926  23.998   3.807  0.3653  0.2365  0.0109
 7557W        W50610  22.996  24.485  24.172 -0.2925  0.1268 -0.1181
 7558W        W50611  21.689  18.891   9.677 -0.2375 -0.2005  0.0161
 7559W        W50612  26.281  34.670  25.819  0.1314  0.3841 -0.2606
 7560W        W50613  16.555  27.172  17.315  0.0501 -0.3010 -0.2530
 7561W        W50614   6.323  16.952   8.953  0.0527  0.0520  0.4251
 7562W        W50615  16.632  22.254   1.656  0.0494  0.1457  0.0455
 7563W        W50616  16.270  22.405   9.235 -0.2960 -0.1028  0.4015
 7564W        W50617   7.013  17.524   5.914  0.1248  0.3349  0.0547
 7565W        W50618  15.659  17.900   3.828  0.0129  0.1936 -0.1116
 7566W        W50619  15.377   6.728  25.180  0.0179  0.2168 -0.0535
 7567W        W50620  23.698  17.688   7.932 -0.2326 -0.0701  0.4495
 7568W        W50621  18.536  28.791   5.172  0.1949 -0.1370  0.0336
 7569W        W50622  18.873  17.269   7.340 -0.2128  0.0655  0.1708
 7570W        W50623   9.844  18.784   9.547 -0.3145 -0.0603 -0.0872
 7571W        W50624   9.200   5.360   5.724  0.2485  0.2734  0.0921
 7572W        W50625  32.515  32.325   8.987  0.0287 -0.2409  0.2846
 7573W        W50626  11.596  15.211   5.345  0.1281  0.2353 -0.1490
 7574W        W50627  18.798  21.781   3.171 -0.0709 -0.1685  0.1267
 7575W        W50628  24.986  23.035   8.003  0.0099  0.2472  0.3275
 7576W        W50629  23.705  27.003   7.666 -0.2706  0.1873 -0.0997
 7577W        W50630  13.874  14.392   7.870 -0.0849 -0.0167  0.0659
 7578W        W50631   7.822  25.631   3.033  0.3362  0.1579 -0.0809
 7579W        W50632  33.060  28.853  25.951  0.0782  0.0548  0.0523
 7580W        W50633   9.518  29.650   3.477  0.0612 -0.0413 -0.1626
 7581W        W50634  20.118  19.126   8.667 -0.3389  0.2266  0.1452
 7582W        W50635  10.737  23.891   4.992  0.0821  0.3514 -0.0976
 7583W        W50636   9.708   0.347  21.213  0.0597 -0.1997  0.4040
 7584W        W50637   3.247  24.857   2.287  0.1116 -0.0493  0.1551
 7585W        W50638  31.766   1.497   8.977 -0.0222  0.3385 -0.1636
 7586W        W50639  22.385   3.506   6.194  0.0054 -0.0132 -0.1845
 7587W        W50640  16.634  30.302  27.727 -0.0316  0.1623  0.1759
 7588W        W50641  23.411   1.503   6.616  0.1383 -0.0820  0.1837
 7589W        W50642   8.862  19.733  28.352  0.1676 -0.0713  0.1112
 7590W        W50643  12.807  25.814   8.127  0.1419  0.1637 -0.2985
 7591W        W50644  27.192  23.013  15.916 -0.1536  0.2116 -0.0091
 7592W        W50645   5.634  22.951  27.076 -0.0809  0.2812  0.1758
 7593W        W50646   1.463  30.585   0.921  0.4264  0.4785 -0.0054
 7594W        W50647  32.098  29.267  26.867 -0.0369 -0.2010  0.2694
 7595W        W50648  24.890   0.150   3.762 -0.0227  0.1110 -0.1202
 7596W        W50649  16.640   3.058   4.731  0.0942  0.0496 -0.1963
 7597W        W50650  19.202   7.846  10.112  0.2932  0.2749 -0.2519
 7598W        W50651   0.192  23.544   1.500  0.0253 -0.0293  0.0742
 7599W        W50652  22.416  31.329   7.031  0.1079  0.1072 -0.2335
 7600W        W50653  25.020   6.338   5.062 -0.1690 -0.3113 -0.2742
 7601W        W50654  14.633  13.961   4.212 -0.1731  0.0894 -0.0330
 7602W        W50655   9.161   0.789  18.053  0.1824 -0.2374  0.1183
 7603W        W50656  22.709  27.878   5.276  0.1729 -0.4440  0.0581
 7604W        W50657  11.114  20.650  26.147 -0.1906  0.1232 -0.4391
 7605W        W50658  27.137  33.890   4.551  0.1345  0.2039  0.2633
 7606W        W50659  19.081   4.031   0.165  0.1371  0.1415  0.1268
 7607W        W50660  10.461  25.047  26.064 -0.0521 -0.0487  0.0626
 7608W        W50661   9.892  15.058  23.426  0.2649 -0.1688  0.2677
 7609W        W50662  21.794  24.184   6.434  0.1563  0.3128 -0.2065
 7610W        W50663   9.712   0.308   2.730  0.1665 -0.0817  0.0076
 7611W        W50664  16.541  25.977  10.130 -0.0766  0.2416 -0.2318
 7612W        W50665  23.101  28.843   6.344  0.1389 -0.0917 -0.1938
 7613W        W50666  13.177  24.153   0.857 -0.1110  0.0972  0.2779
 7614W        W50667  14.943  31.948   8.680  0.3378  0.1482 -0.1519
 7615W        W50668  25.507  29.800  29.075  0.1392 -0.0126  0.0184
 7616W        W50669   6.444  28.515  24.509  0.1859  0.0995 -0.0286
 7617W        W50670  18.191  17.331   1.545  0.0735 -0.0621 -0.1021
 7618W        W50671  24.693  21.495   7.142  0.0314 -0.2870  0.0918
 7619W        W50672  11.173   8.909   4.592 -0.1202  0.2805 -0.2695
 7620W        W50673  12.267  25.327   0.345 -0.2075 -0.0172 -0.3163
 7621W        W50674  18.576   2.705   0.922  0.0036  0.1441 -0.1240
 7622W        W50675   0.301  17.418  20.229 -0.2307  0.1295  0.0161
 7623W        W50676  20.325   9.568   1.047  0.4206 -0.1827  0.0448
 7624W        W50677   1.231   2.182   4.986 -0.1359 -0.1016 -0.1798
 7625W        W50678   9.351  29.091   3.089 -0.1939  0.4123  0.2271
 7626W        W50679  16.501  27.304   9.508  0.1819  0.0630 -0.1823
 7627W        W50680  12.363  20.284   4.362  0.0776  0.1111  0.2419
 7628W        W50681  15.638  31.713   5.006 -0.4151 -0.1588 -0.0364
 7629W        W50682  25.213  31.008   6.749 -0.1614  0.0482 -0.0027
 7630W        W50683  16.277   3.463   8.472 -0.1689  0.3033  0.1004
 7631W        W50684  12.920   8.112   0.982  0.0070  0.2474  0.1376
 7632W        W50685  28.411  11.943   8.424 -0.0241 -0.1554 -0.2426
 7633W        W50686   7.067  27.730   4.829  0.0960 -0.0980 -0.0665
 7634W        W50687  15.953  25.955   9.370 -0.0549 -0.0479  0.0151
 7635W        W50688  26.915  19.401  25.470  0.1103  0.1448  0.0191
 7636W        W50689  21.711   3.809  22.123 -0.1642  0.0512  0.1991
 7637W        W50690  12.173  32.538   8.243 -0.0495  0.3401  0.1956
 7638W        W50691   0.180   6.499  24.866 -0.0126  0.1530  0.0311
 7639W        W50692  10.312  33.352  28.180 -0.0792  0.1286 -0.0117
 7640W        W50693  19.716  24.579  28.526 -0.1278 -0.1645 -0.3269
 7641W        W50694  21.175   6.618   9.991  0.1265  0.1161 -0.0213
 7642W        W50695  22.229  27.745   8.198  0.0034  0.1013  0.0044
 7643W        W50696  33.435  34.368   2.511 -0.0589 -0.2080  0.0390
 7644W        W50697  10.777  33.055   6.709  0.1728  0.1989 -0.0331
 7645W        W50698  12.499  16.350  25.403  0.0404  0.4274  0.1210
 7646W        W50699   0.644  23.809   6.615 -0.1631  0.2351 -0.0070
 7647W        W50700  11.788  29.443   8.088 -0.0382 -0.1809 -0.2615
 7648W        W50701  13.244   0.332   9.096 -0.0509  0.1021  0.0306
 7649W        W50702  11.040  26.903   8.955  0.1585  0.1231 -0.0238
 7650W        W50703  16.626  17.357   1.856  0.2624 -0.2335 -0.1185
 7651W        W50704  11.742  25.145   5.074 -0.0689 -0.0381  0.2413
 7652W        W50705   9.585   9.584   1.456 -0.0550 -0.1319  0.3205
 7653W        W50706  24.769  27.700   6.254  0.1057 -0.0757  0.0009
 7654W        W50707   5.800  15.275   0.463 -0.0415  0.2237  0.1792
 7655W        W50708  34.263  26.806  18.237  0.0436 -0.1395  0.1996
 7656W        W50709  26.597  15.467   9.425  0.0516 -0.0476  0.2787
 7657W        W50710   1.170  18.277   0.794  0.1011 -0.1969 -0.1987
 7658W        W50711  11.421  32.769   4.645  0.0523 -0.0104  0.3355
 7659W        W50712  13.496  19.273  25.701 -0.0098  0.0963 -0.0244
 7660W        W50713   0.647   4.620   8.976  0.0274  0.1056 -0.1671
 7661W        W50714  23.081  22.405   5.197  0.0735  0.0463  0.3692
 7662W        W50715  13.439  30.585   4.906 -0.0288  0.1775  0.3326
 7663W        W50716  12.527   0.318   8.647  0.0897 -0.1079  0.1741
 7664W        W50717  23.543  31.532  28.711  0.0094 -0.0280  0.1631
 7665W        W50718  16.473  26.164   7.949  0.2826  0.2645 -0.2486
 7666W        W50719  11.806   1.247  29.087  0.0750 -0.0757  0.0548
 7667W        W50720  22.437  27.954   7.208 -0.0304 -0.1539  0.2963
 7668W        W50721   1.974  25.744   5.894  0.2398 -0.1539 -0.3478
 7669W        W50722  14.133   6.364  24.501 -0.1933  0.0280  0.5044
 7670W        W50723  23.869   8.179   8.672  0.0255  0.0283  0.2147
 7671W        W50724  26.347  15.445   5.835  0.1547  0.2027 -0.0261
 7672W        W50725  11.872  28.265   3.877  0.2381  0.3688 -0.0501
 7673W        W50726   2.942  27.464   4.157  0.2257  0.2759  0.1722
 7674W        W50727  19.629  23.745   2.828  0.0892  0.0459 -0.1026
 7675W        W50728  18.992  28.381  10.477 -0.1623 -0.1021  0.0872
 7676W        W50729  22.675  16.244   6.657  0.1827 -0.0756  0.1261
 7677W        W50730   8.307  18.006  26.487 -0.2409 -0.0789 -0.1021
 7678W        W50731  28.977  34.155   5.443 -0.1031 -0.2418 -0.1608
 7679W        W50732  20.020  33.398   0.261  0.2576  0.0651 -0.1378
 7680W        W50733   2.554  20.840   8.757  0.0797  0.0258 -0.1439
 7681W        W50734   5.992  18.574   1.274 -0.1735 -0.2298 -0.1811
 7682W        W50735  13.835  17.476  21.826  0.0494  0.1146 -0.0968
 7683W        W50736  19.526   6.424   8.063  0.0283  0.0110  0.3712
 7684W        W50737  23.872   3.734  26.462 -0.0255 -0.0588 -0.2966
 7685W        W50738  13.220  23.966   6.048  0.0390  0.0784  0.0855
 7686W        W50739  17.533  31.457   9.921 -0.0995  0.0913 -0.0449
 7687W        W50740  32.022   0.600   6.523 -0.0866  0.2760  0.3070
 7688W        W50741  14.644  16.826   7.917 -0.1256 -0.0774  0.2626
 7689W        W50742  12.500  20.605   8.039  0.2170 -0.4423 -0.0175
 7690W        W50743  28.894  26.784   2.216 -0.2933 -0.0071  0.2189
 7691W        W50744  22.156   3.032   9.682  0.3515  0.1211 -0.2315
 7692W        W50745  14.779  20.984   6.106 -0.3844 -0.0294 -0.1666
 7693W        W50746  22.519  13.226   9.617  0.0557 -0.1959  0.3856
 7694W        W50747   1.851  23.904   8.774 -0.2996  0.2013  0.0664
 7695W        W50748  23.355  17.167   9.031 -0.0163 -0.0031  0.1768
 7696W        W50749  15.169  14.425  26.157  0.0012  0.0423 -0.0031
 7697W        W50750  12.816  12.812   4.924 -0.1903  0.1616  0.1611
 7698W        W50751   7.499   4.309  14.164  0.0105 -0.0706  0.2441
 7699W        W50752  21.376   9.484  10.013  0.2621  0.0529 -0.0462
 7700W        W50753  12.236  22.796   6.493 -0.1189  0.1166 -0.2923
 7701W        W50754  18.100  32.673  28.045  0.3098 -0.0133 -0.2036
 7702W        W50755  19.005  13.496   5.992  0.2754 -0.3851  0.0006
 7703W        W50756  21.634  34.432  25.284 -0.0217  0.2029  0.1366
 7704W        W50757   7.723  24.742   8.030 -0.0660 -0.0689  0.1273
 7705W        W50758  13.210  27.576  21.867 -0.3841  0.2773  0.2386
 7706W        W50759  17.215  22.309   3.247  0.1167 -0.0925 -0.2644
 7707W        W50760  23.067  13.546   5.793 -0.0625 -0.1218 -0.2231
 7708W        W50761  14.145  19.359   7.070  0.0230  0.0174  0.3051
 7709W        W50762  14.707  21.202  20.308 -0.4710  0.0468  0.1752
 7710W        W50763  17.667  34.109   7.814 -0.0932  0.0592 -0.1506
 7711W        W50764   7.898   0.436   5.564 -0.0308 -0.1263 -0.0115
 7712W        W50765   5.448  33.267   2.954 -0.0185  0.3902  0.0654
 7713W        W50766  17.269  29.820   9.021  0.0611 -0.0722 -0.0343
 7714W        W50767  12.466  10.411   8.108 -0.2029  0.3327 -0.1947
 7715W        W50768  16.295  25.018   9.910 -0.0233 -0.2056  0.0710
 7716W        W50769  12.159   2.270   2.626 -0.2554  0.0685 -0.1329
 7717W        W50770  20.130  12.839   5.034  0.0687  0.0148 -0.2177
 7718W        W50771  12.338  13.292  27.000 -0.2622 -0.1017  0.1151
 7719W        W50772  19.813   5.564  18.993 -0.0935  0.1133  0.1096
 7720W        W50773  17.963   8.015  27.666  0.4192 -0.0206  0.0339
 7721W        W50774  16.939  28.884   2.883  0.1595  0.0222 -0.1349
 7722W        W50775   9.118  29.384  29.170  0.1554 -0.0340 -0.2165
 7723W        W50776  15.636  17.769  27.693  0.1498 -0.3263  0.0254
 7724W        W50777  19.353   4.932   0.350 -0.0832 -0.4503 -0.1767
 7725W        W50778  12.578   4.104   5.522 -0.0441  0.2788 -0.1333
 7726W        W50779  34.542  24.336  24.830 -0.0182 -0.0190  0.5398
 7727W        W50780  18.873   0.697  27.910  0.2333  0.1108  0.0431
 7728W        W50781  14.779  27.099   1.592 -0.2490 -0.1072  0.1493
 7729W        W50782  18.289   3.456   6.107  0.1853  0.0632  0.1683
 7730W        W50783  34.672  31.531  22.481  0.0389 -0.0072  0.2480
 7731W        W50784  15.713   3.072   0.843 -0.2773  0.0108 -0.0096
 7732W        W50785  10.392  16.295   6.939 -0.0835  0.0294  0.1630
 7733W        W50786   5.427  23.370   6.363 -0.0113 -0.0079  0.1132
 7734W        W50787  31.134  27.552  17.378  0.3178  0.2029  0.0952
 7735W        W50788  11.627  23.567  23.577  0.2638 -0.0487  0.2486
 7736W        W50789  25.960  34.490   7.856 -0.1515  0.0637 -0.0905
 7737W        W50790  25.452  19.714   5.942  0.0327  0.4232  0.0912
 7738W        W50791   4.307   2.962   7.533  0.2009 -0.0176  0.3140
 7739W        W50792  20.947  32.022  23.758  0.1691 -0.0848  0.3138
 7740W        W50793  22.974  14.911   1.138 -0.2057 -0.0982  0.3750
 7741W        W50794  19.572   4.832  10.143  0.1864 -0.0217 -0.2792
 7742W        W50795  20.576   2.461  17.076 -0.0500 -0.0051  0.1249
 7743W        W50796  31.979  13.848   4.534  0.0078 -0.2241  0.1164
 7744W        W50797  30.794  11.732  21.736 -0.0795 -0.2698  0.1436
 7745W        W50798  19.429  32.556   7.184 -0.1287 -0.1709  0.1855
 7746W        W50799  21.702   5.428   5.171  0.2096  0.0792  0.1833
 7747W        W50800   9.556  20.635   5.752  0.1764  0.1750 -0.1279
 7748W        W50801   3.084  19.251   2.805 -0.0370 -0.0946  0.0037
 7749W        W50802  16.604   2.415   4.529 -0.3918 -0.0428 -0.2276
 7750W        W50803  28.885  31.749   5.424  0.1991 -0.0323  0.0226
 7751W        W50804  18.325  29.442   1.668  0.0741 -0.2389  0.0017
 7752W        W50805  23.543  16.413   3.753 -0.3789  0.1349 -0.0210
 7753W        W50806  12.605  23.834   9.583 -0.0846 -0.0799  0.1502
 7754W        W50807  16.887   6.037   0.493  0.0748  0.3367 -0.1368
 7755W        W50808  12.523   3.900   9.019 -0.1984  0.0600 -0.0506
 7756W        W50809  12.798  25.507   7.016 -0.1415  0.0637  0.2224
 7757W        W50810   2.954  32.446   6.248 -0.2435  0.4503  0.5440
 7758W        W50811  14.679  11.538  10.088  0.0984  0.0051  0.1645
 7759W        W50812  18.673  12.424   0.291 -0.1024 -0.0243  0.1514
 7760W        W50813  29.732  24.266  23.564  0.0961  0.1531 -0.1022
 7761W        W50814  20.678  25.282  11.024  0.1105  0.4334  0.0662
 7762W        W50815  22.917  14.903   9.307 -0.2153  0.2008  0.1525
 7763W        W50816   8.536  25.460  25.565 -0.1037  0.2157 -0.1202
 7764W        W50817  10.792   1.655   8.865 -0.2534 -0.0253 -0.1880
 7765W        W50818  18.756  34.669   6.543 -0.0603  0.0521  0.0876
 7766W        W50819  21.904  28.633   8.942 -0.0668  0.3678 -0.1187
 7767W        W50820   8.987  26.403  23.735  0.1821 -0.0882  0.1750
 7768W        W50821   5.775  26.422   5.256 -0.0942  0.1279 -0.0384
 7769W        W50822  33.933   0.446   1.994  0.2189 -0.1057  0.4419
 7770W        W50823  18.849  21.010   3.066  0.0743  0.2726  0.3336
 7771W        W50824  24.842  25.471   5.858  0.3794  0.1392  0.1476
 7772W        W50825   9.505  20.654   4.659  0.0978 -0.1922  0.3104
 7773W        W50826   9.832   0.343   4.570 -0.0347 -0.1539 -0.1245
 7774W        W50827  12.562  11.234   5.826  0.0739  0.2784 -0.0177
 7775W        W50828  26.441  33.166  29.102  0.1347  0.1285 -0.2164
 7776W        W50829   6.446  22.046   3.173 -0.3045 -0.1204 -0.3518
 7777W        W50830   9.421  16.800   3.015 -0.1538  0.1781 -0.1119
 7778W        W50831  29.728  34.164  22.130  0.0971  0.1743 -0.2308
 7779W        W50832  20.344  32.180   7.516 -0.0068  0.1741 -0.0331
 7780W        W50833  12.451  24.978   6.444  0.2462  0.1519 -0.3765
 7781W        W50834  16.152   0.205   4.077 -0.3138 -0.1137  0.1593
 7782W        W50835   5.474  25.608   3.573 -0.4014 -0.0709  0.1589
 7783W        W50836  21.840  11.574   7.510  0.1794 -0.1731  0.2737
 7784W        W50837   5.529  13.572   6.301 -0.0728  0.1582  0.0199
 7785W        W50838  32.256  32.239   9.983 -0.1739 -0.2740 -0.0573
 7786W        W50839  20.927   5.765   9.595  0.2589  0.0868 -0.1329
 7787W        W50840  21.337  29.902  20.276 -0.1752 -0.0052  0.0012
 7788W        W50841  24.574  19.268   9.224 -0.1184  0.3034  0.2461
 7789W        W50842  21.470   0.455   4.213  0.1380 -0.1220  0.0695
 7790W        W50843  27.204  27.582   6.153  0.2399 -0.2304  0.1105
 7791W        W50844  24.958  19.616   1.049 -0.2065  0.2937 -0.0072
 7792W        W50845  16.576   5.919   0.897 -0.0469 -0.0400 -0.0018
 7793W        W50846   2.823  33.123   2.192 -0.1763  0.1307  0.1171
 7794W        W50847  21.408  11.791   5.773 -0.1627 -0.0472 -0.2594
 7795W        W50848   0.540  32.409   4.035  0.1410  0.0380  0.2020
 7796W        W50849   8.565  25.774   0.717 -0.1354 -0.0837 -0.0883
 7797W        W50850  20.579   3.750  24.529 -0.4383 -0.0355  0.0304
 7798W        W50851  12.672  11.822   1.658 -0.1308  0.1887  0.1670
 7799W        W50852  16.342  22.588  25.030 -0.1163 -0.0265 -0.0561
 7800W        W50853  16.712   4.669   4.606 -0.4656  0.1854 -0.0147
 7801W        W50854   6.099  17.446   8.631  0.1364 -0.0238 -0.0698
 7802W        W50855  17.888  24.663   0.965  0.0070 -0.0631  0.0792
 7803W        W50856  24.298   6.009   5.945 -0.2107 -0.1328 -0.1133
 7804W        W50857  29.128  24.427   7.260 -0.0415  0.0418  0.0149
 7805W        W50858  31.210  10.331  17.956  0.0705 -0.2563 -0.2475
 7806W        W50859  20.359  26.697  22.168 -0.2962  0.0940 -0.1311
 7807W        W50860  16.473  18.468  26.368 -0.3134  0.2134  0.1125
 7808W        W50861  25.751  23.605   7.090  0.5314 -0.0096  0.1347
 7809W        W50862   8.491  31.760   5.923 -0.0447 -0.0105  0.4253
 7810W        W50863  23.721  31.891   1.348  0.0839  0.5149 -0.0611
 7811W        W50864  12.711  31.506   4.030  0.2166 -0.3158  0.2950
 7812W        W50865  19.853  27.775   1.720  0.1035 -0.2096 -0.0450
 7813W        W50866  27.060  23.151   3.863 -0.3085 -0.1546  0.0314
 7814W        W50867  30.533  21.793   6.009 -0.2691  0.1709  0.0677
 7815W        W50868  18.759   6.681   9.074 -0.0593 -0.2059 -0.2511
 7816W        W50869  17.527  34.482  20.736 -0.0336 -0.0754  0.2691
 7817W        W50870  23.162   2.797   2.475  0.0412 -0.1657 -0.2680
 7818W        W50871  20.964  30.031  19.649 -0.1055  0.3464 -0.0744
 7819W        W50872  23.637  19.639   5.098 -0.2092  0.0739  0.1145
 7820W        W50873  20.965   8.045   1.858  0.2465 -0.1485 -0.2013
 7821W        W50874  19.792   0.196   9.358  0.1588  0.1524 -0.1415
 7822W        W50875  11.354  17.801   0.700  0.1427 -0.3900 -0.1710
 7823W        W50876  15.560   4.038   3.815 -0.0451  0.3881  0.0457
 7824W        W50877  26.644  34.598  22.388 -0.2142 -0.1663  0.0583
 7825W        W50878  24.587   1.214   6.459  0.1399 -0.2392  0.1561
 7826W        W50879  17.803  10.478   1.511 -0.1793  0.0589  0.1990
 7827W        W50880  13.091  23.733   9.611  0.0753  0.0651  0.1150
 7828W        W50881  13.117  34.272   1.138  0.2002  0.1040 -0.0203
 7829W        W50882  18.426   4.070   6.855  0.0292 -0.1553  0.1571
 7830W        W50883  17.156   0.423  27.483  0.0149 -0.2229 -0.1597
 7831W        W50884   6.515  28.835   9.317 -0.3257  0.1513  0.1804
 7832W        W50885  25.098   1.676   2.325 -0.0026 -0.5833  0.0006
 7833W        W50886   9.375  31.389  24.394 -0.2243  0.0785 -0.0286
 7834W        W50887  28.099  34.174  25.656  0.0513  0.2165  0.1015
 7835W        W50888  15.989   8.865  23.926  0.2314  0.2547 -0.0434
 7836W        W50889  18.513  33.111   5.126  0.0278  0.1374 -0.3864
 7837W        W50890  25.164  32.605   0.333 -0.2300  0.2905 -0.0820
 7838W        W50891   9.230  33.856  20.819 -0.0066  0.1574  0.0736
 7839W        W50892  17.769  21.039  26.780  0.2021  0.1937 -0.0598
 7840W        W50893  16.550   3.585   0.263  0.0696 -0.0360  0.0400
 7841W        W50894  12.864   0.558  24.683 -0.1523 -0.0461  0.0726
 7842W        W50895  15.158  28.040   4.568 -0.3455 -0.0619  0.1133
 7843W        W50896  12.445   3.283  25.890  0.2094 -0.2774 -0.2474
 7844W        W50897  22.496  10.195  22.336 -0.1828 -0.0975 -0.0007
 7845W        W50898  26.412  23.979  23.677  0.1720 -0.0010 -0.0581
 7846W        W50899  16.431   8.255  10.135  0.1633  0.0335 -0.0804
 7847W        W50900  11.297  14.044   7.971  0.2409  0.3283  0.0027
 7848W        W50901   2.520   3.171  25.519 -0.0428  0.0888 -0.1488
 7849W        W50902  26.963   6.197   3.984  0.0642  0.0034 -0.1212
 7850W        W50903  12.494  30.172   7.641  0.1795 -0.4851 -0.0160
 7851W        W50904  21.978   3.860   6.326 -0.3479  0.0667  0.2652
 7852W        W50905   8.433  12.602   0.702  0.3239  0.1926  0.0388
 7853W        W50906  11.209   5.396  23.229 -0.0432 -0.6299  0.0579
 7854W        W50907   7.453  33.104  24.096  0.1595  0.2254 -0.1481
 7855W        W50908  24.313  29.949   4.987 -0.0193  0.0880 -0.2239
 7856W        W50909  11.343   3.047  21.587  0.1273  0.2044 -0.0711
 7857W        W50910  18.449   1.371  26.704 -0.1228 -0.3012 -0.2593
 7858W        W50911   8.493   0.527  25.326 -0.0342  0.1210  0.0980
 7859W        W50912  22.000  33.136  10.525  0.0773 -0.1384  0.2151
 7860W        W50913  11.731   2.936   9.826  0.0241  0.2572  0.0418
 7861W        W50914  12.279  24.364  28.036  0.1035  0.3806 -0.0596
 7862W        W50915  19.204   8.478   5.672 -0.1751 -0.1455  0.1475
 7863W        W50916  11.747  15.047   4.068  0.2633 -0.2948  0.0837
 7864W        W50917  22.330  16.993   2.872  0.1056 -0.1273  0.3009
 7865W        W50918  10.945   4.247  26.949  0.0191 -0.1052  0.0457
 7866W        W50919  29.055   9.951   2.616  0.1979 -0.2123 -0.2032
 7867W        W50920  24.269  26.358   2.465  0.0596 -0.0549 -0.0094
 7868W        W50921  30.981  28.426   3.869 -0.0542  0.4006 -0.3205
 7869W        W50922  18.043   0.845   4.545 -0.3209 -0.1470 -0.1629
 7870W        W50923  16.122  29.763   9.557  0.1577  0.0360 -0.0722
 7871W        W50924  24.230   5.031   2.128 -0.1046 -0.0105 -0.1453
 7872W        W50925   8.549  28.255  17.388 -0.0142 -0.0019 -0.0093
 7873W        W50926   8.498  12.422   5.171 -0.2371  0.2441  0.2952
 7874W        W50927  34.575  26.705  26.556  0.2275 -0.2507 -0.1154
 7875W        W50928  24.896  27.850   4.680  0.2458 -0.0727  0.1526
 7876W        W50929   4.605  32.991  28.403  0.2560  0.1332 -0.2685
 7877W        W50930  29.718   6.238  22.444  0.0199 -0.0597  0.0118
 7878W        W50931  20.741  19.389  23.120  0.0014  0.3267  0.1221
 7879W        W50932  14.605   1.455  22.382 -0.0006  0.2011 -0.0013
 7880W        W50933   9.867   4.151   8.204 -0.0262 -0.2744 -0.0617
 7881W        W50934  18.725  24.189  20.838  0.5211  0.1553  0.3500
 7882W        W50935  27.694   7.580  28.758  0.0136 -0.1638  0.1706
 7883W        W50936   3.823  20.794  21.976  0.3953  0.2030 -0.5828
 7884W        W50937  10.653  29.250   0.208  0.0021 -0.2354 -0.1153
 7885W        W50938  24.219  23.135  16.676 -0.1460 -0.0580 -0.1683
 7886W        W50939   6.299  10.933  18.262  0.2849  0.1419  0.1635
 7887W        W50940  18.672   4.633   3.606 -0.0159 -0.0822  0.0280
 7888W        W50941  17.447   3.169   3.561  0.0374 -0.0062  0.0732
 7889W        W50942   5.709  32.538   3.307 -0.0180  0.0049  0.0146
 7890W        W50943   6.669   0.288   5.899  0.0243  0.1013 -0.1505
 7891W        W50944  25.873  29.294  15.832  0.1275  0.0906  0.2245
 7892W        W50945  18.159   3.434  20.023  0.0051  0.1000 -0.1323
 7893W        W50946  27.348   1.278   1.985 -0.1363 -0.0499 -0.0905
 7894W        W50947  17.191  32.815  22.013  0.1558 -0.1974  0.1901
 7895W        W50948   2.831  33.427   0.303  0.1317  0.0439 -0.3633
 7896W        W50949  12.949   3.622  17.854 -0.2152 -0.0677 -0.0798
 7897W        W50950  26.377   3.910   9.093 -0.2858  0.0208  0.0172
 7898W        W50951  20.051  30.656   6.999  0.0220  0.1873 -0.1623
 7899W        W50952  21.607   1.904   6.138  0.0144  0.1019 -0.0423
 7900W        W50953   4.868   0.701  18.998 -0.0698 -0.0189 -0.2011
 7901W        W50954   9.516  25.896  24.741 -0.2561 -0.1195  0.0619
 7902W        W50955   4.304  26.405   7.173  0.1585 -0.1153  0.0672
 7903W        W50956  11.945  23.616   4.173  0.1506  0.1777  0.0110
 7904W        W50957  22.840  19.732   2.697 -0.1443  0.3858  0.0893
 7905W        W50958   5.033  24.787  15.375 -0.1362 -0.0173 -0.3095
 7906W        W50959   3.567   9.447   7.158 -0.0831 -0.1014 -0.3629
 7907W        W50960  19.462  21.370  26.737  0.0357  0.1194  0.1086
 7908W        W50961  10.859  26.097   5.902  0.2865 -0.1411 -0.1021
 7909W        W50962  19.492  20.545  14.335 -0.1914  0.3315 -0.0793
 7910W        W50963  17.631  27.565  17.360  0.2649 -0.2912 -0.0580
 7911W        W50964  23.646   4.853  25.400  0.2616  0.1309  0.0059
 7912W        W50965  16.394  24.630  23.710 -0.0941 -0.0810  0.1639
 7913W        W50966  27.522  24.541   4.322 -0.0425  0.1952 -0.1335
 7914W        W50967  27.348   3.223  28.030 -0.2444 -0.3078  0.0926
 7915W        W50968  17.780  32.074   3.117  0.0004 -0.0373 -0.0212
 7916W        W50969  14.537  34.361   9.965 -0.3678 -0.1972  0.1761
 7917W        W50970  15.958  29.807   2.542 -0.0916  0.4024  0.4341
 7918W        W50971  21.140  30.959   2.240 -0.1805  0.3334 -0.1668
 7919W        W50972  13.197   8.523   1.071  0.0643  0.3406 -0.0962
 7920W        W50973  28.478  17.789   3.071 -0.1431 -0.1398 -0.1910
 7921W        W50974  19.912  26.863   2.609  0.2440  0.1170 -0.2272
 7922W        W50975  25.483  33.446  26.038  0.1277  0.1391 -0.1780
 7923W        W50976  18.836  10.546   5.289  0.1706  0.1567  0.3045
 7924W        W50977  22.519   4.008   6.177 -0.2291  0.2872 -0.1986
 7925W        W50978  19.286  12.925   9.030 -0.2060  0.0217 -0.0563
 7926W        W50979   0.564   2.722  26.491 -0.2503 -0.1498 -0.2665
 7927W        W50980  16.247  28.121   4.116 -0.4319 -0.0038 -0.3526
 7928W        W50981  22.346  29.987   8.722  0.1372 -0.2353  0.1182
 7929W        W50982  26.593  16.789   7.587 -0.3484 -0.3118  0.1068
 7930W        W50983  18.680  32.144   9.211  0.2290  0.0974  0.2448
 7931W        W50984   5.384  32.525  29.183  0.0113 -0.7071  0.2128
 7932W        W50985  25.770   1.329   2.537  0.2408  0.1103 -0.2488
 7933W        W50986  21.480  11.308   5.923 -0.1893  0.0001 -0.2317
 7934W        W50987  16.187  29.246  28.183  0.1047 -0.3964  0.2819
 7935W        W50988  10.803  14.825  20.561 -0.1783  0.1602  0.5242
 7936W        W50989   6.935   0.906  21.628 -0.0150  0.2370  0.1589
 7937W        W50990  13.692   2.571  21.895 -0.2038  0.0922 -0.1206
 7938W        W50991  29.989   1.599   0.782  0.3340  0.0695  0.0412
 7939W        W50992  14.916  31.219   7.899 -0.0541 -0.0972  0.0189
 7940W        W50993  31.222   7.956   5.869 -0.1956 -0.3606 -0.0184
 7941W        W50994  10.544  23.948   3.189  0.1234 -0.2775  0.3932
 7942W        W50995  20.394   3.913   4.553  0.1458 -0.1080 -0.4540
 7943W        W50996  24.491   5.651   4.264  0.1383 -0.0557  0.2120
 7944W        W50997  32.028  18.063   1.108  0.2243 -0.1279 -0.3373
 7945W        W50998  12.166  28.015  17.222 -0.3523 -0.0473 -0.0849
 7946W        W50999  20.005  28.559   5.816 -0.2342 -0.0011 -0.0389
 7947W        W51000   5.365   6.234   3.438  0.1520 -0.2606 -0.0136
 7948W        W51001   6.887  12.375   4.956  0.1230  0.0424  0.2298
 7949W        W51002  15.897  10.291   5.669  0.0950  0.3502  0.0297
 7950W        W51003  21.821  29.495   5.741 -0.3096 -0.1083  0.1536
 7951W        W51004  12.596  16.357  10.560 -0.1425  0.0536  0.2155
 7952W        W51005  26.910  16.133   9.829  0.0445 -0.1775 -0.0582
 7953W        W51006  22.830   8.765  17.462  0.2849 -0.1803 -0.1722
 7954W        W51007  27.837   4.175  21.447 -0.2193 -0.0115  0.0487
 7955W        W51008  28.000  24.132  24.550 -0.4992  0.0917  0.5412
 7956W        W51009   9.278  27.080  13.755 -0.0544  0.0251 -0.2023
 7957W        W51010  28.574  27.202  16.696  0.2046  0.0280 -0.3324
 7958W        W51011  21.659  26.957   3.073 -0.1234  0.0062 -0.0359
 7959W        W51012  18.039  27.178   7.414  0.1021  0.0253 -0.0209
 7960W        W51013  20.990   7.373  27.642  0.0258  0.1735  0.1292
 7961W        W51014   3.924  30.365   3.309 -0.0432  0.1907  0.1084
 7962W        W51015   4.098  30.220   1.840  0.2750 -0.1404  0.0918
 7963W        W51016  20.945  11.114   8.556 -0.1155 -0.1161  0.0266
 7964W        W51017  28.585   5.518   4.372 -0.1781 -0.3822  0.2740
 7965W        W51018   5.289  12.520   9.654 -0.1475 -0.2666  0.0319
 7966W        W51019  14.244   4.231   6.449 -0.1539  0.2317  0.0335
 7967W        W51020  18.835   8.038   8.339  0.0202 -0.2516 -0.1145
 7968W        W51021  15.063  14.469  27.398  0.0993 -0.1205  0.1272
 7969W        W51022   9.633  24.280  21.212  0.0724  0.0476 -0.1121
 7970W        W51023  20.795  20.890  28.643 -0.1103 -0.0645  0.2838
 7971W        W51024   3.493   9.530  19.135  0.1699 -0.2257 -0.2502
 7972W        W51025  25.237  28.426  19.351  0.1113  0.0375  0.1137
 7973W        W51026  20.060  15.278   5.714 -0.1339 -0.1764 -0.0685
 7974W        W51027  17.260   4.631  27.672 -0.1014 -0.2658 -0.0871
 7975W        W51028  30.435   6.133  10.561  0.1278 -0.1428  0.0622
 7976W        W51029  25.700  13.945  23.251  0.2225 -0.0788 -0.1986
 7977W        W51030  20.435   5.042  19.522 -0.2306  0.0846 -0.1361
 7978W        W51031  33.044  17.499   7.995 -0.0274  0.0345 -0.2150
 7979W        W51032   9.642  19.792   3.479 -0.3144 -0.1605 -0.0007
 7980W        W51033  24.832   6.387   1.579 -0.1312  0.1349 -0.0610
 7981W        W51034   7.029  30.330   1.589  0.0354  0.1579  0.0164
 7982W        W51035  19.787  17.272   7.333 -0.0276 -0.1354 -0.3399
 7983W        W51036   9.119  31.216  29.126 -0.1015  0.3066  0.1814
 7984W        W51037   2.888   3.943   5.642  0.0043  0.1920  0.1346
 7985W        W51038  24.931  24.013  29.069 -0.0817 -0.0794  0.3750
 7986W        W51039  13.005  11.490  28.216  0.0425 -0.1503  0.1587
 7987W        W51040  22.141  32.637  10.099 -0.3168  0.1054 -0.0392
 7988W        W51041  19.095  25.702  27.122  0.1581 -0.1856  0.2662
 7989W        W51042  10.492  32.821  14.296  0.2948 -0.0735 -0.0025
 7990W        W51043  16.110   3.482   9.795  0.0950 -0.1736 -0.1038
 7991W        W51044  22.670  30.746   8.208 -0.0421 -0.1198 -0.3136
 7992W        W51045  20.072   2.234  21.840 -0.3772  0.5298 -0.0304
 7993W        W51046  22.936  14.014  27.347  0.1940 -0.1581 -0.0540
 7994W        W51047  16.873   5.928   8.182  0.2457 -0.1434 -0.1433
 7995W        W51048  13.222   5.002  27.819 -0.1779  0.0132 -0.1186
 7996W        W51049   5.997   7.958  27.778  0.1097  0.1547  0.0818
 7997W        W51050  23.699  21.283  28.925  0.0225 -0.1480 -0.3300
 7998W        W51051  22.765  12.987  27.953  0.1861 -0.1752  0.3571
 7999W        W51052  25.190   9.196   6.604 -0.2154  0.2206 -0.0653
 8000W        W51053  20.269  11.404   6.677 -0.2092 -0.2294  0.0122
 8001W        W51054  16.027  21.040   9.204  0.0260 -0.2185 -0.0541
 8002W        W51055   5.538  27.298   6.631  0.4392 -0.1302  0.0262
 8003W        W51056  19.822   9.142   2.005  0.2299  0.1800  0.1686
 8004W        W51057  15.400  24.505   1.657  0.0522 -0.3727 -0.3495
 8005W        W51058  13.181  27.875  27.088  0.1870 -0.0192 -0.2346
 8006W        W51059  13.410  34.335  15.658  0.0929  0.3280  0.0039
 8007W        W51060  19.522   2.576   9.581 -0.0490  0.3693  0.1064
 8008W        W51061  13.265  16.189  15.620 -0.0667  0.1621 -0.1400
 8009W        W51062  28.150  24.566   3.161 -0.0692  0.4079 -0.0478
 8010W        W51063  25.990   8.560   1.180  0.0277 -0.3103  0.0476
 8011W        W51064  26.271  18.009   2.829 -0.3113  0.2028  0.0658
 8012W        W51065   4.757  27.035   9.366 -0.2029  0.1871 -0.0838
 8013W        W51066   1.063  22.799   4.762  0.4281  0.0968 -0.1596
 8014W        W51067   1.248  31.348   9.286  0.4115  0.0421 -0.0624
 8015W        W51068  26.623  28.711   2.617  0.1507  0.1984  0.0669
 8016W        W51069  28.800  34.584   5.837 -0.1024  0.0488 -0.2350
 8017W        W51070   4.748  33.807   9.098  0.3071 -0.1371 -0.1554
 8018W        W51071  21.535  19.740  23.156 -0.0647 -0.0345 -0.1579
 8019W        W51072   2.638  31.715  21.508 -0.3964 -0.1428  0.3590
 8020W        W51073   6.625  13.586  19.857  0.1405  0.1265  0.2347
 8021W        W51074   2.624  34.658   1.621 -0.1838  0.1297 -0.2716
 8022W        W51075  22.088  13.805  13.144  0.0661 -0.1034 -0.1127
 8023W        W51076  17.464  26.918   0.621 -0.0036  0.3007 -0.2133
 8024W        W51077  12.583  19.786   4.824 -0.0045  0.1508  0.1096
 8025W        W51078  24.268  33.384  25.048  0.1673  0.2752 -0.0777
 8026W        W51079  10.764  21.237   4.006  0.0523 -0.2327  0.0381
 8027W        W51080  25.957   0.436   6.263 -0.2047 -0.1326 -0.1883
 8028W        W51081  28.879   0.200   4.519  0.1713 -0.1899 -0.0705
 8029W        W51082   7.655   0.111   1.757 -0.0096  0.1505 -0.3154
 8030W        W51083   5.692  33.878  18.037 -0.0170 -0.0876  0.1298
 8031W        W51084   3.655  22.509  20.504  0.1619 -0.0064 -0.0425
 8032W        W51085  34.608  31.593   6.573  0.1670 -0.2404  0.5156
 8033W        W51086  25.584  33.178  23.618 -0.1814  0.0402 -0.1002
 8034W        W51087  12.799   0.130   9.011  0.0655 -0.1153  0.0766
 8035W        W51088  12.210   7.037  26.995 -0.1555 -0.0159  0.0338
 8036W        W51089  23.650  33.084   6.319  0.0467  0.1527  0.0988
 8037W        W51090  27.498  27.719   8.572  0.2061  0.2343 -0.1077
 8038W        W51091   9.412  29.504  22.817 -0.0164  0.3369 -0.1463
 8039W        W51092  20.422  23.667   9.623  0.0824 -0.1084 -0.2618
 8040W        W51093  10.331  11.424  25.343 -0.3281  0.0668  0.0606
 8041W        W51094  21.505  32.769  25.223  0.0140 -0.2520 -0.2080
 8042W        W51095   7.604  32.634   2.431 -0.0327 -0.1100 -0.1864
 8043W        W51096  13.673   2.528   7.659  0.0448  0.0733  0.1912
 8044W        W51097   4.449   4.543  29.096  0.2185 -0.0660 -0.2067
 8045W        W51098  16.172  17.333   7.988  0.1912 -0.2559  0.2665
 8046W        W51099  24.479   5.333   1.845 -0.0929  0.5171 -0.1132
 8047W        W51100  27.952   9.373   0.579 -0.0539 -0.2340  0.1552
 8048W        W51101   5.117  32.461   3.203  0.0151  0.0040 -0.2606
 8049W        W51102  27.182   4.097   9.328  0.1246  0.0876  0.3933
 8050W        W51103  18.074  24.315   7.104 -0.0445 -0.2393 -0.2238
 8051W        W51104  14.363  29.039   6.572 -0.0546 -0.3147  0.0651
 8052W        W51105  16.100  16.395  24.347 -0.1333  0.1303  0.5845
 8053W        W51106  15.950  12.729   9.377 -0.0512  0.1277 -0.1008
 8054W        W51107  30.037   0.508   2.601  0.2148 -0.0452  0.1729
 8055W        W51108  17.875  23.091  17.670  0.0194  0.2228  0.1993
 8056W        W51109  19.076  15.046  25.661  0.1975 -0.0827 -0.3035
 8057W        W51110  17.830  26.666  10.275  0.2734 -0.1242 -0.1585
 8058W        W51111   7.735  29.442   9.045  0.2821 -0.1463  0.0621
 8059W        W51112  33.370  19.737   2.777  0.0936  0.2811 -0.1934
 8060W        W51113  14.541  31.480  23.883  0.0020  0.1885  0.1521
 8061W        W51114  17.833  16.219  23.421 -0.1707  0.1237  0.0515
 8062W        W51115  22.710  15.089   7.438  0.1761 -0.0036 -0.0515
 8063W        W51116   5.815  32.792   1.796  0.0517 -0.3998 -0.0143
 8064W        W51117  25.819   2.144  22.831 -0.1324  0.4230  0.1108
 8065W        W51118  30.417   5.602  23.265 -0.0576  0.3531 -0.1430
 8066W        W51119  12.444  29.358   0.403  0.2022 -0.0237 -0.1730
 8067W        W51120  15.450  28.033   9.784 -0.2166 -0.1905  0.1287
 8068W        W51121  26.791  34.066   1.504 -0.1159 -0.0103 -0.0926
 8069W        W51122  23.141  12.777  25.957  0.0972 -0.3543 -0.0955
 8070W        W51123  13.336  20.877  24.723 -0.1271  0.1238 -0.0137
 8071W        W51124   2.974  23.466   3.854 -0.1385  0.0251 -0.1545
 8072W        W51125  11.879   9.011  28.035 -0.1323  0.4027 -0.2096
 8073W        W51126  31.785  28.783   3.490 -0.0325 -0.1156 -0.0211
 8074W        W51127  19.462  32.907  27.369  0.0504 -0.3078 -0.2182
 8075W        W51128   4.002  25.076  20.396  0.2808  0.1887 -0.3645
 8076W        W51129  13.360  13.287   7.414  0.0909 -0.1857 -0.0658
 8077W        W51130   6.188  31.351   7.905 -0.1652 -0.0598 -0.0118
 8078W        W51131   2.646   8.827   4.739 -0.1135 -0.1678 -0.2949
 8079W        W51132   7.669  10.225   2.559 -0.0634 -0.1894 -0.0058
 8080W        W51133  18.728   2.430   9.947  0.0713 -0.1258 -0.3120
 8081W        W51134  22.815  11.569   6.958 -0.0990 -0.0788  0.3205
 8082W        W51135  20.578  11.265  19.713  0.2226  0.1605 -0.2985
 8083W        W51136  19.989  21.389  19.148 -0.0385 -0.0617 -0.0646
 8084W        W51137  12.320   5.788   2.567 -0.1395 -0.1962  0.2688
 8085W        W51138  16.001   9.295  27.428  0.1902 -0.0975  0.2819
 8086W        W51139  11.449   1.176   9.198  0.0574 -0.1491  0.1304
 8087W        W51140  12.176  23.972   4.437  0.1551 -0.1784 -0.2303
 8088W        W51141  24.679  11.160   9.378 -0.3518  0.0841 -0.1739
 8089W        W51142  23.728  27.575   1.604  0.1052 -0.4125 -0.3924
 8090W        W51143  22.728  33.078  24.613 -0.1724 -0.1210 -0.0162
 8091W        W51144  14.553  15.957   5.795  0.1418  0.2122  0.0641
 8092W        W51145  28.679   3.867  24.799 -0.0447  0.3459  0.0207
 8093W        W51146  15.340  29.828   2.472 -0.2151  0.0586  0.1254
 8094W        W51147  18.026  25.670   5.874  0.1959  0.1952  0.0531
 8095W        W51148  16.445  27.540   2.822 -0.1076 -0.0762  0.2771
 8096W        W51149  19.840  28.300   3.202  0.0785 -0.0726 -0.0724
 8097W        W51150  20.482   0.622   8.444  0.0677 -0.1103  0.1274
 8098W        W51151  25.261   5.113   8.915  0.0820 -0.0723 -0.2243
 8099W        W51152  18.024  33.367  18.715  0.2249  0.1778 -0.4183
 8100W        W51153  12.840  26.935   6.900 -0.0495  0.1479 -0.1484
 8101W        W51154  27.906  15.032   6.772  0.0628 -0.2221  0.0415
 8102W        W51155  19.151   2.458   8.712  0.1411  0.0131  0.0513
 8103W        W51156  11.474  28.447   4.265 -0.0905 -0.2282 -0.2317
 8104W        W51157  18.370  17.469   6.117  0.0123 -0.0605 -0.3349
 8105W        W51158  25.600   1.894   7.970  0.1276  0.0970  0.0317
 8106W        W51159  11.686  26.970   0.286 -0.0980  0.3699  0.3277
 8107W        W51160  23.261  32.892   5.462  0.0105 -0.1315 -0.0619
 8108W        W51161   0.121  11.243  28.299 -0.0449  0.1077 -0.4202
 8109W        W51162  17.726  29.536  26.924 -0.2091  0.1644  0.2605
 8110W        W51163  22.880   4.221   8.776  0.4379  0.1585  0.0894
 8111W        W51164  28.957   8.363   8.377  0.2689 -0.3610  0.1352
 8112W        W51165  18.881  15.848   6.705  0.0252  0.1219  0.1973
 8113W        W51166  21.416  18.561   5.273 -0.0337  0.1522  0.1280
 8114W        W51167   6.208  26.429   4.793  0.1513 -0.3426  0.0095
 8115W        W51168  13.855  17.361   9.545  0.1492  0.2026 -0.2331
 8116W        W51169   5.540  34.388   9.123 -0.3046 -0.0416  0.2138
 8117W        W51170  32.378  17.119   0.193  0.3465 -0.0633  0.0575
 8118W        W51171   8.177  18.712  27.316  0.0973  0.0670  0.1503
 8119W        W51172  24.128  15.914   2.383  0.1221  0.0925  0.1979
 8120W        W51173  17.729  13.811  25.031  0.1104  0.0975 -0.3852
 8121W        W51174  22.179  17.266  22.611 -0.3870  0.2491  0.0929
 8122W        W51175  28.248   3.513  26.725 -0.0537 -0.2342  0.0173
 8123W        W51176  19.516   2.417  22.280 -0.0385 -0.0739  0.0419
 8124W        W51177  13.321   4.763  24.318 -0.1967 -0.2126 -0.5352
 8125W        W51178   6.881  16.362   8.814  0.2521  0.1402  0.0358
 8126W        W51179  17.616  21.398   0.084  0.4270 -0.2965 -0.0922
 8127W        W51180  12.019  17.278   7.594  0.2534  0.3376  0.1224
 8128W        W51181  10.799  12.042  25.682  0.2075  0.2034 -0.0691
 8129W        W51182  17.342   7.013  14.576 -0.0232  0.3889 -0.1935
 8130W        W51183  25.696  34.582   3.563  0.1308  0.3677  0.1770
 8131W        W51184   6.245  10.411   9.758 -0.2815  0.1178  0.1436
 8132W        W51185  16.167   5.082   0.379  0.0618  0.0177  0.3474
 8133W        W51186  19.527  27.165   5.717  0.1174 -0.1520  0.1139
 8134W        W51187  16.239   8.022   3.136  0.2466  0.1033  0.0530
 8135W        W51188  15.408   0.615   8.568 -0.3435  0.0353 -0.1223
 8136W        W51189   2.929  22.862   1.030  0.1870 -0.0833  0.1221
 8137W        W51190  16.229   0.871   6.299 -0.0216  0.5290 -0.0639
 8138W        W51191  15.804   1.921  20.301  0.2271 -0.0153  0.0107
 8139W        W51192  34.093   3.929  23.551 -0.2351  0.0245  0.0453
 8140W        W51193   4.929  31.943   5.810  0.3244 -0.1081 -0.2818
 8141W        W51194  11.881   5.971   3.825 -0.1732  0.1150  0.0944
 8142W        W51195  17.671  12.992   7.203 -0.2025 -0.4572  0.1128
 8143W        W51196   6.970   5.601  21.680 -0.0863  0.0985  0.1139
 8144W        W51197  21.092   2.925   6.338  0.0180  0.1205 -0.1790
 8145W        W51198  15.573   6.158  27.320 -0.2488  0.2777  0.2055
 8146W        W51199  32.913   5.528   6.492 -0.2343 -0.0728  0.1184
 8147W        W51200   9.072  21.367  24.079 -0.1890 -0.1671 -0.0691
 8148W        W51201  20.970   4.951  19.331 -0.2050 -0.2100 -0.1580
 8149W        W51202  26.316   5.085   7.970 -0.1417  0.0560 -0.2618
 8150W        W51203  19.356  29.259  10.806  0.0148 -0.0808 -0.1097
 8151W        W51204  28.530  33.615   7.103 -0.1547 -0.0112  0.0311
 8152W        W51205  27.417   4.490   2.561 -0.0816 -0.0894  0.2913
 8153W        W51206  11.688  29.695  14.460 -0.1104  0.1062 -0.0108
 8154W        W51207  10.892  10.454   8.507  0.3771 -0.0859  0.3410
 8155W        W51208  33.511  24.963   8.601 -0.7448  0.1895 -0.0092
 8156W        W51209  17.572   2.289   9.970 -0.0526 -0.0565 -0.2088
 8157W        W51210  25.158  11.864  21.302 -0.0375  0.0416 -0.1239
 8158W        W51211  11.930  17.359   3.615 -0.0549  0.0428 -0.1495
 8159W        W51212  26.468  25.727   6.809 -0.1120  0.0454  0.2501
 8160W        W51213  11.509  30.348   0.781  0.1482 -0.3210  0.0650
 8161W        W51214  21.439  30.519   7.942  0.2141 -0.0780 -0.1506
 8162W        W51215   5.630  29.205   3.455  0.0028 -0.1658  0.0994
 8163W        W51216  34.485   0.816  23.944  0.1660 -0.1197  0.2082
 8164W        W51217  33.541   0.213   3.793  0.0597  0.1838  0.1807
 8165W        W51218  23.831  18.779   5.211  0.2206  0.2054  0.3526
 8166W        W51219  20.273  22.419  26.363  0.1551 -0.3199  0.0642
 8167W        W51220  10.539   0.771   7.693  0.0244 -0.1172 -0.2605
 8168W        W51221   9.530  22.103   8.230  0.0010  0.0560 -0.2997
 8169W        W51222  11.392  14.285  21.611  0.0704 -0.2479 -0.2233
 8170W        W51223  29.015  26.509   5.614  0.3032 -0.1228  0.2222
 8171W        W51224  22.632  31.092  26.415 -0.3356 -0.0100 -0.0213
 8172W        W51225  24.113   3.825  22.165 -0.1438 -0.1538  0.0084
 8173W        W51226  32.216   0.432   9.094  0.0920 -0.2653 -0.0877
 8174W        W51227   6.315  28.918   7.017 -0.2094 -0.3400  0.4395
 8175W        W51228  22.721  27.848   8.393 -0.0503  0.1780 -0.0690
 8176W        W51229  33.544  13.571  24.148 -0.3085 -0.2688  0.1693
 8177W        W51230  13.965   2.038  24.150  0.2756  0.0019 -0.0080
 8178W        W51231  14.678  29.541   0.719 -0.1851 -0.1133 -0.0160
 8179W        W51232  20.164  14.567   2.514 -0.0203  0.0971  0.2606
 8180W        W51233  18.625   4.139   8.034 -0.0595  0.2374 -0.1649
 8181W        W51234  11.543   5.485  21.503 -0.4463  0.1163 -0.1481
 8182W        W51235  28.257   2.676  26.146 -0.2361 -0.2581  0.0150
 8183W        W51236  29.564  25.020  24.764 -0.1043 -0.2832  0.1275
 8184W        W51237  17.229  24.493  26.407  0.0801 -0.1118  0.2493
 8185W        W51238   9.854   9.126   7.668  0.1746  0.0852  0.0364
 8186W        W51239  15.781  22.849   9.014 -0.1981 -0.0134 -0.0883
 8187W        W51240  34.450   4.952   4.957  0.3449 -0.1905 -0.4009
 8188W        W51241  27.892   1.362   3.712 -0.0424  0.0190  0.2073
 8189W        W51242  17.068  32.963   2.891  0.1564  0.1847 -0.2839
 8190W        W51243  32.327  28.896   8.244 -0.4487  0.3372  0.1045
 8191W        W51244  18.568   7.266   7.487 -0.2963  0.2121  0.1212
 8192W        W51245  12.565  29.035   7.964 -0.0831  0.2114  0.1099
 8193W        W51246  20.640  21.003   2.474 -0.0052 -0.1696 -0.3046
 8194W        W51247  20.549  24.525   7.712  0.0429  0.2244 -0.1059
 8195W        W51248  13.711  25.885  25.228  0.0056  0.2468  0.0733
 8196W        W51249  22.904   3.695   8.938 -0.1937 -0.2094  0.0990
 8197W        W51250  17.827   3.591  27.229  0.1443 -0.0683  0.1602
 8198W        W51251  20.018   1.236   8.099 -0.1919  0.0164  0.0781
 8199W        W51252  16.718   9.349  24.208 -0.3511 -0.3281  0.1631
 8200W        W51253  32.356  32.669   5.422  0.0585  0.0051 -0.2544
 8201W        W51254  20.846  10.992  28.155  0.0307  0.0409 -0.2963
 8202W        W51255  25.902  20.225   0.602 -0.1006  0.0045  0.2691
 8203W        W51256  32.491   4.889  27.443  0.4771  0.1524  0.3197
 8204W        W51257  17.792   4.842  26.264  0.1505 -0.0714  0.1154
 8205W        W51258  10.478   4.943  28.033  0.1766  0.2298 -0.0402
 8206W        W51259  16.959  18.149   1.294 -0.1325 -0.2353  0.3033
 8207W        W51260  17.527   1.600  18.863 -0.1294 -0.0904 -0.0857
 8208W        W51261  14.453  22.579   8.056  0.0344 -0.0377  0.1940
 8209W        W51262  19.916  32.426   4.607 -0.2735  0.0076  0.0101
 8210W        W51263  16.330   9.535   4.442 -0.2225 -0.0680 -0.1094
 8211W        W51264  29.661  32.988   1.156 -0.1882 -0.0408  0.1735
 8212W        W51265  13.801  10.117   0.376 -0.0144 -0.0044  0.0742
 8213W        W51266  21.653  12.591  19.914  0.0134  0.4041  0.1911
 8214W        W51267  24.735   5.814   8.956  0.2247  0.1406  0.0808
 8215W        W51268  22.060  24.188   3.326 -0.0568 -0.3142  0.0050
 8216W        W51269  10.731  24.534  26.287  0.3194 -0.0713  0.2105
 8217W        W51270  18.067   4.838   9.266  0.0707 -0.0008  0.3466
 8218W        W51271  24.602   8.512   6.972  0.1004  0.0516  0.0709
 8219W        W51272   2.272  12.790  15.043 -0.1394  0.2020  0.2361
 8220W        W51273  27.325  32.775   8.437 -0.1916 -0.0225 -0.1650
 8221W        W51274  24.562  29.614   1.950  0.3490 -0.3716  0.1102
 8222W        W51275  11.358  10.246  28.754 -0.1937 -0.1581 -0.0362
 8223W        W51276  19.653   5.416   8.514  0.0877 -0.0805 -0.1608
 8224W        W51277  14.448   1.672  27.363  0.2555  0.2043  0.1115
 8225W        W51278  15.928  21.770   3.657  0.0593  0.2834  0.3101
 8226W        W51279  16.795  30.772   6.535  0.1553  0.0347 -0.1295
 8227W        W51280   3.271  19.737  27.099 -0.0251 -0.1296 -0.0414
 8228W        W51281  20.521  13.190   9.076  0.2130  0.0618 -0.2653
 8229W        W51282  14.302  25.867  10.455 -0.0707  0.4864 -0.2495
 8230W        W51283  17.743  34.473   4.438 -0.1730 -0.1888 -0.0755
 8231W        W51284   6.755  18.604  29.132  0.0385 -0.1668  0.0152
 8232W        W51285  33.728   6.666   9.358 -0.1278 -0.1206 -0.1981
 8233W        W51286  17.201  14.769   2.586  0.1651 -0.1266  0.1396
 8234W        W51287  12.898  20.300  26.979 -0.0457 -0.3698 -0.3413
 8235W        W51288  29.509  12.105  28.132 -0.1062 -0.0356  0.0510
 8236W        W51289   4.902  10.166  16.427 -0.2610  0.0636  0.0345
 8237W        W51290  20.037  27.577   1.288 -0.2248  0.2770  0.2697
 8238W        W51291  11.323   5.311   7.879 -0.1991 -0.0934 -0.1716
 8239W        W51292   8.861  27.922   3.017  0.1284  0.0285  0.3934
 8240W        W51293   5.402  30.398  26.230  0.0953 -0.0191  0.2232
 8241W        W51294  21.327  10.128   7.592  0.0476  0.0117 -0.0636
 8242W        W51295  25.735  30.360   7.091 -0.1955 -0.2597 -0.1463
 8243W        W51296  10.379  17.570   4.068 -0.4766  0.0268 -0.1923
 8244W        W51297  22.637  29.340  20.728  0.0380 -0.3208  0.2042
 8245W        W51298  27.241  26.959  29.097 -0.2693 -0.0053 -0.0103
 8246W        W51299  11.722  22.535  27.027 -0.3708  0.1243  0.0367
 8247W        W51300  17.628  24.640  27.755 -0.0117 -0.0471  0.0783
 8248W        W51301  28.721   8.739   9.351 -0.3114  0.0815 -0.0951
 8249W        W51302  20.344  17.128  29.098  0.1699 -0.0833  0.0162
 8250W        W51303  23.382  17.191   1.343 -0.0317 -0.0724 -0.2109
 8251W        W51304  20.712  16.981  27.835 -0.0503  0.1510  0.0470
 8252W        W51305  32.553  13.295   8.646  0.1723  0.0223 -0.1091
 8253W        W51306  27.538  26.837  18.787  0.0468  0.1176 -0.1986
 8254W        W51307  26.530  32.851  19.573 -0.2250  0.0168 -0.0323
 8255W        W51308  10.226  29.530   2.763  0.0044 -0.2994 -0.2239
 8256W        W51309  11.292   3.717  10.203  0.0727  0.0539 -0.0944
 8257W        W51310   1.283  11.596   3.506  0.0755 -0.0597  0.3145
 8258W        W51311   7.773  21.164   4.422  0.1069  0.1826  0.1298
 8259W        W51312   2.407   6.706   1.155 -0.0216 -0.0944 -0.1331
 8260W        W51313   3.902  29.310  25.541  0.0755  0.1418  0.1079
 8261W        W51314  22.523   4.597   8.073  0.3186  0.2318  0.3994
 8262W        W51315   1.614  11.455  27.303 -0.1995 -0.0558  0.1463
 8263W        W51316   4.112   5.006  29.084 -0.0070 -0.5254  0.3051
 8264W        W51317  22.832   3.501  28.531  0.0676  0.1561 -0.1368
 8265W        W51318  28.716  31.546  25.030  0.2142  0.0833 -0.0077
 8266W        W51319  13.449   9.533  16.511  0.2918 -0.0855 -0.0835
 8267W        W51320  18.965   9.994   8.056  0.0297  0.3821 -0.0616
 8268W        W51321  10.891   5.108   5.667  0.0872  0.1828  0.0046
 8269W        W51322  16.401   5.090  28.741 -0.1313 -0.1133  0.0753
 8270W        W51323  21.963  24.653   1.036  0.0825 -0.2246  0.0204
 8271W        W51324  30.295  32.309  27.706 -0.2412 -0.2268  0.4947
 8272W        W51325  28.218   4.301  10.293  0.0952  0.1487  0.2695
 8273W        W51326  17.563   0.627   9.932 -0.0372  0.0456  0.2177
 8274W        W51327  22.236   9.828  10.356  0.2325  0.1217  0.0444
 8275W        W51328  17.996  25.909   9.360  0.0206 -0.0433  0.0496
 8276W        W51329   9.082  25.854   9.074  0.1151  0.0178 -0.0105
 8277W        W51330   8.046  18.381   2.223  0.0308 -0.0010 -0.0296
 8278W        W51331  18.612  24.500   1.278  0.1031 -0.0650 -0.0028
 8279W        W51332  16.224   1.454   1.840  0.0337 -0.0487  0.2658
 8280W        W51333   3.848  25.851   3.640 -0.2432 -0.1377 -0.4119
 8281W        W51334  13.289  23.293  20.528  0.1145 -0.1121  0.2044
 8282W        W51335  20.523  10.710   1.120 -0.0184  0.2050 -0.2189
 8283W        W51336   9.282  24.564   9.108 -0.2634  0.1838  0.2569
 8284W        W51337  22.488  18.665   9.740  0.0792 -0.3911  0.0597
 8285W        W51338  18.214   3.366   1.325  0.0463  0.0342  0.3219
 8286W        W51339  13.643  31.439   9.194  0.4391 -0.1631  0.1228
 8287W        W51340  16.188  29.939  26.468  0.1281  0.0499 -0.2208
 8288W        W51341  12.953  33.751   4.910  0.1620  0.0394 -0.2574
 8289W        W51342   5.990  33.147   9.585 -0.0259  0.0575  0.0954
 8290W        W51343  20.546  31.048  27.455 -0.1310  0.0324 -0.0693
 8291W        W51344  11.679  15.442   2.721  0.2281  0.0337 -0.0533
 8292W        W51345  23.317   8.361   2.363 -0.0431 -0.0232 -0.2350
 8293W        W51346  29.193  15.872   8.669  0.2809 -0.2211  0.0911
 8294W        W51347  11.459  30.826   6.188  0.1396 -0.0335  0.1092
 8295W        W51348   5.154  21.395   1.375  0.1077 -0.1529  0.1992
 8296W        W51349  11.838  28.152   6.516 -0.0877 -0.0807  0.0167
 8297W        W51350  31.955  24.916   7.237  0.3190 -0.0455  0.0858
 8298W        W51351   4.548  30.490   0.029 -0.1704 -0.0655 -0.1365
 8299W        W51352  11.681  11.870   9.935  0.2861 -0.0266  0.4936
 8300W        W51353  18.566  31.573   8.141 -0.1743 -0.1344 -0.1889
 8301W        W51354  22.598   6.945   9.545  0.1414  0.0021  0.0484
 8302W        W51355  15.631  19.137   8.001 -0.4988 -0.0041 -0.2076
 8303W        W51356   7.193  17.111   3.817  0.5262  0.1660 -0.0397
 8304W        W51357  10.924  32.437   8.781  0.0301 -0.0242 -0.1082
 8305W        W51358  16.230  18.595   8.380 -0.3336 -0.1929  0.0212
 8306W        W51359  14.592  33.445   6.009 -0.1340  0.4505 -0.0403
 8307W        W51360   8.252  14.098   8.509  0.0675  0.0383  0.0924
 8308W        W51361  11.424  20.656   9.004  0.0159 -0.3356 -0.0426
 8309W        W51362  19.889  31.682  27.779 -0.1703  0.0412 -0.2360
 8310W        W51363  19.283   8.296  26.803 -0.1833 -0.0140 -0.1473
 8311W        W51364  18.518  12.440   8.740 -0.1829 -0.2432 -0.0506
 8312W        W51365  14.471  34.321  28.883  0.0775  0.2590  0.2360
 8313W        W51366   6.199  20.249  19.783  0.1113 -0.1048 -0.0500
 8314W        W51367   5.354  24.630   0.785 -0.0830  0.0425  0.2370
 8315W        W51368  23.103  29.066   8.950  0.5320 -0.1090 -0.0605
 8316W        W51369  17.017  32.866   5.117  0.1267  0.1403  0.1445
 8317W        W51370  34.467   0.354   5.091 -0.2187 -0.0645 -0.1334
 8318W        W51371  10.207  11.605   7.129 -0.1112  0.2277  0.0906
 8319W        W51372  12.578   2.342  23.651 -0.1020 -0.2775 -0.0180
 8320W        W51373  14.083  13.880   0.030 -0.1393 -0.1075 -0.1637
 8321W        W51374   3.718  27.151  18.273  0.2386  0.1291  0.1019
 8322W        W51375  14.243  33.105   9.886 -0.2142  0.1046  0.3794
 8323W        W51376  23.215  32.623   8.845 -0.1064  0.2801  0.1424
 8324W        W51377   7.161  17.037   3.258 -0.2606  0.2962  0.0372
 8325W        W51378  19.018  19.932   1.361  0.0424  0.3426  0.5788
 8326W        W51379  34.007  26.610   8.031 -0.0939  0.1241 -0.2467
 8327W        W51380  13.065  31.810   8.868 -0.1238  0.1887  0.2013
 8328W        W51381  16.509   8.199  10.720  0.0312  0.0404  0.1103
 8329W        W51382  18.497   2.325  24.778  0.0635 -0.0200  0.1253
 8330W        W51383  30.978  21.491  23.548  0.0756 -0.1762 -0.0154
 8331W        W51384  22.719  20.863   4.694  0.1001 -0.0702 -0.3198
 8332W        W51385   2.798  24.432   7.818 -0.0074 -0.1011  0.0500
 8333W        W51386  28.771  29.361   3.405  0.0839  0.3728 -0.2459
 8334W        W51387  33.676   7.867   6.831 -0.2802 -0.2581 -0.0662
 8335W        W51388  19.651  11.368   2.556 -0.0513 -0.0841 -0.0500
 8336W        W51389  20.074   3.643   6.007  0.0507 -0.0210  0.0403
 8337W        W51390  24.611  14.457   5.199 -0.3565  0.1214 -0.0572
 8338W        W51391  10.118  14.276  26.477  0.1260 -0.0804  0.1004
 8339W        W51392  16.830  32.038   5.997 -0.2071  0.1068  0.0171
 8340W        W51393   9.703  27.076  20.612  0.0766 -0.0265  0.1715
 8341W        W51394   0.302   9.733   0.680  0.2815 -0.0070 -0.0385
 8342W        W51395  32.107  33.086  15.228 -0.0831  0.0534 -0.2811
 8343W        W51396   9.129  32.790   0.625 -0.0367  0.0200  0.0587
 8344W        W51397   3.630   2.308   0.533 -0.0997  0.3275 -0.0664
 8345W        W51398  32.642  27.845  22.429 -0.1476 -0.0367  0.0943
 8346W        W51399  29.774  11.303   3.193 -0.1437 -0.2364  0.1073
 8347W        W51400   1.270   9.212   4.155  0.3001  0.1575 -0.3192
 8348W        W51401  20.083   0.844  28.680  0.0649 -0.0409 -0.0838
 8349W        W51402  23.452  34.109   9.291 -0.0710  0.2514 -0.2595
 8350W        W51403  26.206   4.124   0.503 -0.2864 -0.3167 -0.2320
 8351W        W51404  13.767  30.882   3.944 -0.0676 -0.1279 -0.1142
 8352W        W51405   2.385  34.008  25.978 -0.1796  0.2358 -0.0258
 8353W        W51406  22.028  32.497  16.173  0.0411  0.5677  0.0730
 8354W        W51407  11.174  20.266   9.217  0.1870  0.1410  0.3118
 8355W        W51408  10.868  31.881  28.486 -0.0788  0.0418  0.0319
 8356W        W51409  22.068  21.410   2.754  0.3597 -0.3330  0.0548
 8357W        W51410   5.779  12.044   9.360  0.2588 -0.2135 -0.2265
 8358W        W51411  22.130  12.112   8.324  0.0186 -0.2171  0.3196
 8359W        W51412  14.913   9.152   4.484  0.1743 -0.2054 -0.0157
 8360W        W51413  19.647  10.416   4.115 -0.0954  0.1270  0.0831
 8361W        W51414  19.282  33.859   2.655  0.0956  0.3268  0.1161
 8362W        W51415  10.990   2.838   7.998  0.1636 -0.0259  0.0944
 8363W        W51416  19.415  26.992   6.165 -0.1671  0.1655  0.5321
 8364W        W51417  21.858   0.822   6.524 -0.1362  0.0487  0.3539
 8365W        W51418   7.119  12.489   1.208  0.0905  0.1946 -0.1676
 8366W        W51419  24.566  12.326  18.027  0.2355 -0.0388 -0.0918
 8367W        W51420  27.860   9.769  22.418  0.1425 -0.0818  0.0816
 8368W        W51421  20.873  32.403  15.987  0.2598 -0.0846 -0.3452
 8369W        W51422  10.920   9.773  25.573 -0.0860  0.1721  0.1077
 8370W        W51423  17.020  23.242   7.114  0.0011  0.0090 -0.0249
 8371W        W51424  27.296   5.857  27.888 -0.0323 -0.2787  0.2537
 8372W        W51425  15.887  30.688   5.586  0.0402  0.0453 -0.1311
 8373W        W51426  25.362   5.893  21.540 -0.3544 -0.0635 -0.1349
 8374W        W51427  12.753   9.254   3.001  0.2203  0.0231 -0.0679
 8375W        W51428  21.037  12.917   6.577  0.0536 -0.1172 -0.0768
 8376W        W51429   9.835   8.527   4.669 -0.3394  0.2987 -0.0875
 8377W        W51430  21.954   4.978   7.196  0.2663  0.2955  0.0031
 8378W        W51431   5.473   9.894  10.064 -0.3444 -0.2235 -0.1740
 8379W        W51432  29.194  21.037  26.418 -0.0959  0.1515 -0.3421
 8380W        W51433   8.725  34.334   9.544 -0.2080  0.0578  0.0278
 8381W        W51434  32.118  31.378   7.790  0.1964  0.0935 -0.3960
 8382W        W51435  12.614  22.428  24.796  0.0451  0.0205 -0.0450
 8383W        W51436  26.599  27.472  28.589 -0.1735 -0.0587  0.1667
 8384W        W51437   6.266   4.280   4.814  0.0347 -0.4118  0.1658
 8385W        W51438  19.934   8.837  16.831 -0.1076  0.2547  0.2184
 8386W        W51439  16.859  16.807   8.920 -0.0983 -0.1372 -0.0647
 8387W        W51440  21.668  28.166  27.159  0.3420 -0.0719  0.1957
 8388W        W51441  15.275  20.226   6.906 -0.0848  0.1543 -0.3104
 8389W        W51442  17.183  10.096   8.765  0.0726  0.2140 -0.1859
 8390W        W51443  16.674   1.434  25.544  0.2297 -0.0431 -0.0302
 8391W        W51444  16.867   9.724   6.424 -0.1124  0.4785  0.0596
 8392W        W51445  10.167  24.635   6.846  0.0243 -0.4112  0.3437
 8393W        W51446  17.306  32.516   1.975 -0.1088  0.0527  0.0653
 8394W        W51447  21.853   2.365  26.156 -0.1344 -0.3488 -0.0167
 8395W        W51448  11.815  19.403  17.947  0.0000  0.1178  0.1375
 8396W        W51449   7.158  17.639  22.119 -0.1000 -0.0857  0.0907
 8397W        W51450  21.428  14.180  18.901  0.0905  0.2728 -0.2121
 8398W        W51451  27.305  30.680   5.374  0.3188  0.1703  0.3240
 8399W        W51452  16.978  28.668   5.794  0.0544  0.0620  0.2689
 8400W        W51453  26.072  33.022   5.905  0.0889  0.2568 -0.0605
 8401W        W51454  21.340  13.403  27.901  0.0693 -0.2055 -0.0502
 8402W        W51455  11.127  27.678   6.831  0.1687  0.1956  0.1347
 8403W        W51456  20.904  34.672  24.214  0.0629 -0.2180  0.0005
 8404W        W51457  22.836  21.598   0.865  0.2711 -0.1666 -0.2055
 8405W        W51458  15.821  32.343   7.542  0.1288  0.0212  0.0562
 8406W        W51459  27.065  14.290   4.023 -0.0258 -0.0067 -0.1264
 8407W        W51460  27.963   6.582  27.711  0.2037  0.1474  0.0393
 8408W        W51461  17.831  33.253   8.116 -0.0234 -0.0947 -0.0044
 8409W        W51462  13.319  24.843  20.370  0.1717  0.1479  0.2210
 8410W        W51463  15.868   1.290  26.122  0.2093  0.2541  0.3513
 8411W        W51464   7.215   7.746   2.989  0.1755  0.1556 -0.4533
 8412W        W51465  31.159  34.436  21.896  0.1288  0.1249  0.2193
 8413W        W51466  16.060  30.798   3.174  0.0588 -0.0907 -0.1504
 8414W        W51467  24.696   1.946   0.138  0.0541  0.0771  0.0840
 8415W        W51468  29.061   5.941   9.148 -0.1649  0.2243  0.0095
 8416W        W51469  14.941  28.468   6.908  0.1521  0.0785  0.2632
 8417W        W51470  23.418   7.508  28.609 -0.2197 -0.1682  0.0979
 8418W        W51471  19.232  20.142   5.562 -0.1012 -0.0751  0.0006
 8419W        W51472  11.860   9.499   5.156  0.1003 -0.0440  0.0252
 8420W        W51473   6.410  15.487  10.291  0.0797  0.3375 -0.1332
 8421W        W51474  25.541   2.616   2.037  0.2741 -0.0985  0.0661
 8422W        W51475  11.458   1.621   6.926  0.0358  0.0738 -0.0205
 8423W        W51476  34.581   9.340   4.902 -0.3357  0.1359 -0.0688
 8424W        W51477   4.741  32.331   0.390  0.1124  0.1819 -0.0920
 8425W        W51478   7.622  13.205  24.825 -0.2575 -0.0360 -0.1085
 8426W        W51479   8.346  21.100   2.983 -0.0205  0.1771 -0.0603
 8427W        W51480  28.564  24.429   6.523  0.0750 -0.1940 -0.1129
 8428W        W51481  14.308  22.613   2.209  0.0241  0.0162  0.0891
 8429W        W51482   5.736  22.630   6.929 -0.0575 -0.0673  0.1101
 8430W        W51483  31.079   0.633   6.421 -0.0831  0.1887  0.1033
 8431W        W51484  18.462   2.485  27.008  0.1821  0.0026  0.1040
 8432W        W51485   3.854   5.151   4.056 -0.1725 -0.1924 -0.1383
 8433W        W51486  11.164  28.844   4.043  0.1848  0.0516 -0.0027
 8434W        W51487  21.937  30.272  22.085  0.0403  0.1870 -0.1284
 8435W        W51488  20.316   4.075  26.202 -0.0499 -0.3607  0.0731
 8436W        W51489  11.311  32.264  16.693  0.2219 -0.4063  0.1900
 8437W        W51490  21.657  31.243   4.198 -0.2014 -0.0981  0.0466
 8438W        W51491  24.024   1.012   1.466 -0.1023 -0.1785 -0.0228
 8439W        W51492  29.407  24.055  26.914  0.1609 -0.1519 -0.1168
 8440W        W51493  18.530   5.816   3.478  0.0261  0.0821  0.0101
 8441W        W51494  11.331   2.222  29.163  0.0128 -0.0213  0.0018
 8442W        W51495  29.548  32.173   6.036  0.1857  0.1152 -0.1379
 8443W        W51496  24.184   1.851   0.144  0.0223  0.0942 -0.0631
 8444W        W51497  28.132  32.914  19.531  0.2157 -0.3126 -0.0248
 8445W        W51498  28.192   1.478  19.515 -0.1032 -0.1878 -0.1454
 8446W        W51499   3.309  27.950   2.298 -0.3272  0.1309  0.0180
 8447W        W51500  21.905  28.596  24.782 -0.1746  0.0202  0.0922
 8448W        W51501   7.366  27.226  23.153 -0.3600 -0.1271 -0.1363
 8449W        W51502  27.947  13.251   2.106 -0.2233  0.1268 -0.0780
 8450W        W51503  23.324  24.545   5.686  0.4856 -0.1142 -0.0062
 8451W        W51504  12.194   2.990   5.811  0.2014  0.0574  0.3194
 8452W        W51505  14.458   0.932  28.065 -0.2017 -0.1342 -0.0880
 8453W        W51506  30.505   2.386   4.495 -0.1833  0.0269  0.2721
 8454W        W51507  29.109   9.089  26.228  0.1035 -0.0107 -0.0970
 8455W        W51508  20.550   9.520  16.374 -0.0329 -0.0242  0.2387
 8456W        W51509  18.065   9.330  20.023 -0.0338 -0.2663 -0.1226
 8457W        W51510  20.769   1.337  22.357 -0.0624 -0.0500  0.1564
 8458W        W51511  14.999  32.110   2.059  0.0242 -0.1775 -0.0883
 8459W        W51512  27.137  11.315  25.464  0.0113  0.1611  0.2848
 8460W        W51513  28.129  15.309   1.834 -0.1329 -0.1924 -0.1217
 8461W        W51514  11.751  27.248  28.421  0.1005  0.0390 -0.0249
 8462W        W51515  18.773  11.350   0.538  0.1577  0.0990 -0.0744
 8463W        W51516  28.288  10.131  20.001 -0.2165 -0.0809 -0.0320
 8464W        W51517  16.316  23.436   4.291 -0.2164 -0.2723 -0.0804
 8465W        W51518  10.730  25.286   2.986  0.1709  0.2344 -0.1780
 8466W        W51519  29.728  33.602   0.324  0.2954 -0.0690  0.1262
 8467W        W51520  16.034  28.958   3.991  0.0612  0.1474 -0.0817
 8468W        W51521  24.387   0.525   8.781 -0.2613  0.0679  0.2460
 8469W        W51522   3.300  13.083  10.048 -0.0810 -0.1361  0.3681
 8470W        W51523  27.760  15.794  28.733 -0.0700  0.0436 -0.1887
 8471W        W51524  16.499   1.434  15.079  0.0633  0.1964 -0.1163
 8472W        W51525  13.785  20.121  25.046 -0.1901  0.1059 -0.0557
 8473W        W51526  16.220  24.614   3.795 -0.1645  0.0941 -0.1442
 8474W        W51527  21.735   5.818   0.234 -0.0806 -0.0133  0.5059
 8475W        W51528   0.478   2.562  24.280  0.0885  0.0538  0.2436
 8476W        W51529  16.037  25.452   2.108  0.1982  0.3412 -0.1864
 8477W        W51530  18.482   5.784  25.396  0.0500  0.2115  0.0713
 8478W        W51531  23.831   3.797  26.970 -0.2282 -0.0107 -0.2645
 8479W        W51532  29.963  30.686   3.362  0.1872 -0.2615 -0.1063
 8480W        W51533  20.567   0.388   4.126  0.1076  0.1379 -0.0986
 8481W        W51534   1.643  28.878  27.492 -0.4480 -0.1604  0.2519
 8482W        W51535   9.909  28.870   4.508 -0.0080  0.1692  0.0747
 8483W        W51536  11.394   3.469   5.176 -0.0177  0.4129 -0.2280
 8484W        W51537  14.514  33.183   1.424  0.1834  0.0839 -0.2103
 8485W        W51538  16.753  32.002   4.184  0.1210 -0.2070  0.2350
 8486W        W51539  31.064  29.577  28.400  0.1277 -0.1536 -0.2891
 8487W        W51540  15.036  25.541  26.785 -0.2815 -0.0895 -0.1415
 8488W        W51541  30.048   4.724  16.772  0.0179  0.1014 -0.0445
 8489W        W51542  25.173  31.907   4.407 -0.0843  0.2811  0.5167
 8490W        W51543   2.590  30.538   2.762  0.4304  0.3527 -0.0163
 8491W        W51544  27.514  23.344   9.425 -0.0764 -0.2221  0.0013
 8492W        W51545   6.423  23.886  28.573 -0.0071 -0.2502 -0.0350
 8493W        W51546  14.548  31.828  22.521  0.1140  0.2223  0.1104
 8494W        W51547  11.247  26.703   2.220 -0.0875  0.2749  0.1115
 8495W        W51548  26.643  11.101  25.632  0.1062 -0.0602  0.0437
 8496W        W51549  28.786  32.986   3.374 -0.1638  0.0391 -0.1986
 8497W        W51550  22.789  23.980   7.850 -0.2206  0.1184 -0.1297
 8498W        W51551  24.600  10.326  27.096 -0.1204 -0.2395 -0.0643
 8499W        W51552  10.028  33.700  18.603  0.1115  0.4519  0.0299
 8500W        W51553  24.019  23.326   3.051 -0.4052 -0.2679 -0.0608
 8501W        W51554  16.476  15.091  24.973 -0.0654  0.4971 -0.0396
 8502W        W51555  15.251  28.929  24.253 -0.1123 -0.0995  0.3572
 8503W        W51556  22.325  22.052  25.622  0.0000  0.3879  0.1485
 8504W        W51557  17.450  18.617  19.526  0.0316 -0.3702  0.0381
 8505W        W51558   8.372  32.935  28.066  0.2131  0.1848 -0.1234
 8506W        W51559  23.398   2.761   3.996  0.2849  0.4537  0.0165
 8507W        W51560   9.353  26.050   0.976 -0.0360  0.2647  0.0485
 8508W        W51561  29.166  14.837  19.441  0.1316 -0.1434  0.5693
 8509W        W51562  26.838   3.598  22.196  0.0728  0.0106  0.1156
 8510W        W51563  23.489   3.387   7.312  0.0118 -0.0681 -0.0417
 8511W        W51564  11.357  10.143  23.840 -0.3363  0.1923  0.0136
 8512W        W51565  13.706  10.273  27.028  0.3124 -0.0950 -0.1242
 8513W        W51566  24.165  33.171  27.589 -0.0275  0.3210  0.1980
 8514W        W51567   9.065  33.205   2.256  0.0415  0.1300  0.1422
 8515W        W51568  11.811  13.928  27.209 -0.0975  0.2542 -0.0445
 8516W        W51569  29.435  22.566  26.354  0.2591 -0.3198 -0.1228
 8517W        W51570  30.196  34.123  21.959  0.1513 -0.2500 -0.3335
 8518W        W51571  21.222  14.631  25.734 -0.2006  0.0464 -0.0963
 8519W        W51572  30.996  31.472   6.412 -0.4531  0.0555 -0.0214
 8520W        W51573   6.094  18.059   0.645 -0.0034  0.0846 -0.3170
 8521W        W51574  31.081   8.845   3.084 -0.4324  0.0945  0.1113
 8522W        W51575  16.945  32.006   7.346 -0.0573 -0.3706 -0.0840
 8523W        W51576  22.100  28.888   0.123  0.1134  0.0403  0.0062
 8524W        W51577  28.965   3.307   4.798 -0.1472 -0.2168  0.2887
 8525W        W51578  11.269  28.926  28.395  0.0599  0.1717  0.5322
 8526W        W51579  21.255   2.050  27.151  0.1631 -0.2843  0.1779
 8527W        W51580   5.632  31.331   0.612  0.2786 -0.1341  0.0895
 8528W        W51581  33.665  21.525  23.201  0.0201  0.2224 -0.1930
 8529W        W51582  27.462   2.983  19.689  0.0388 -0.0534  0.0848
 8530W        W51583  19.024   9.964  17.855 -0.4370  0.1894  0.2076
 8531W        W51584  15.699  29.642  19.190 -0.0811 -0.1280  0.1687
 8532W        W51585  18.629   0.650  23.982  0.2741  0.3323 -0.2082
 8533W        W51586  12.773   9.341   0.999  0.2780 -0.3783 -0.0825
 8534W        W51587  14.581   5.404  17.986  0.0742 -0.0005  0.1252
 8535W        W51588  12.847  15.195   3.030  0.2185  0.3422  0.2796
 8536W        W51589   3.627  26.109  25.519 -0.4841  0.5093 -0.0250
 8537W        W51590   7.214  24.603   1.259  0.0023 -0.0997 -0.4095
 8538W        W51591   3.864  12.797   2.688  0.0606  0.1706 -0.4501
 8539W        W51592  17.041   2.120   4.316  0.0606 -0.0252 -0.0283
 8540W        W51593   5.781   2.243  17.767 -0.2730 -0.1046  0.0151
 8541W        W51594  14.809   8.823   8.902  0.0054 -0.0382 -0.1544
 8542W        W51595  33.767  27.401   1.073  0.3940 -0.1045 -0.2793
 8543W        W51596  27.147   2.744  22.961  0.1354  0.0053 -0.1325
 8544W        W51597  22.630   3.613  22.716 -0.0153 -0.3308  0.2381
 8545W        W51598  12.907  11.170   9.708 -0.1601 -0.0361  0.0354
 8546W        W51599  34.308  17.665   1.347 -0.0872  0.1012 -0.0842
 8547W        W51600  26.183  31.045   8.202 -0.1250  0.0427  0.2719
 8548W        W51601  26.160  16.699   3.168 -0.2762 -0.3422  0.0093
 8549W        W51602  16.975  30.138   5.734 -0.0416 -0.2669  0.0826
 8550W        W51603  18.585   8.987   0.089  0.0398 -0.5320 -0.1772
 8551W        W51604  26.079  28.365   0.606  0.0869 -0.1230 -0.3991
 8552W        W51605  31.084   3.613   8.901 -0.0417  0.0859  0.0001
 8553W        W51606   3.059  30.797   5.551 -0.0858 -0.2232  0.0218
 8554W        W51607  28.656   2.915  23.812  0.1961  0.0097  0.2476
 8555W        W51608  26.068  29.565  27.898 -0.1429  0.0600  0.2097
 8556W        W51609  29.925  25.497  27.010 -0.0277 -0.1265 -0.0284
 8557W        W51610  12.320   1.262   6.859 -0.3075  0.3940 -0.1542
 8558W        W51611  10.631  19.826   7.559 -0.2007  0.1534 -0.3384
 8559W        W51612   9.305   0.714   5.644  0.0496  0.0918 -0.1376
 8560W        W51613  12.487  29.010   3.690 -0.2932  0.3623  0.1138
 8561W        W51614  13.425  32.358  24.060  0.0534  0.1858 -0.0241
 8562W        W51615  23.008   3.714  10.242  0.0602 -0.0094  0.1631
 8563W        W51616  10.195  18.735  28.646  0.1372  0.0236 -0.2950
 8564W        W51617  20.041  27.141  27.560  0.1909 -0.2664 -0.0435
 8565W        W51618   1.177  10.697  24.163  0.2770  0.3724  0.2457
 8566W        W51619  14.775  18.127  23.022 -0.0097 -0.1147  0.0938
 8567W        W51620  27.474  24.504   7.899  0.4838 -0.0133 -0.3050
 8568W        W51621  16.966  30.064   0.097  0.2968 -0.2102  0.3182
 8569W        W51622  32.350   6.722  10.995  0.0133  0.0168 -0.0563
 8570W        W51623  10.280   8.105  15.401  0.1839  0.1103 -0.1611
 8571W        W51624  15.736  23.350  14.395  0.0970  0.1680  0.2195
 8572W        W51625  13.463   0.590  18.177 -0.1053 -0.3089  0.0038
 8573W        W51626  18.240  29.442   7.861  0.1477  0.1806 -0.1678
 8574W        W51627  27.407  34.450  27.837 -0.0755  0.0370  0.2586
 8575W        W51628   6.144  31.835  27.261 -0.2267  0.0027 -0.1610
 8576W        W51629  14.234  23.549  25.590  0.1065 -0.1061  0.0797
 8577W        W51630   9.727  24.300  23.003 -0.1984  0.1277 -0.2362
 8578W        W51631  22.554  13.748  27.473  0.0670  0.0711  0.1496
 8579W        W51632  22.240  13.034   3.169  0.3539 -0.3749 -0.3162
 8580W        W51633  15.832  30.067  26.162 -0.1260  0.0136 -0.1827
 8581W        W51634  13.516   5.938  27.849  0.1470  0.3992 -0.3700
 8582W        W51635  25.897  24.316  26.781  0.1389 -0.3583 -0.1974
 8583W        W51636   7.903   3.847   2.637 -0.0398 -0.1274  0.1402
 8584W        W51637  15.566   6.923   1.025  0.5018  0.2640 -0.1743
 8585W        W51638  13.544  20.814   5.465  0.0245 -0.0381  0.0114
 8586W        W51639  31.944   4.280   5.041  0.3455  0.1421 -0.2943
 8587W        W51640  30.298  24.692  10.354  0.2250  0.0304 -0.0644
 8588W        W51641  32.218   5.787   5.480  0.3137  0.3219 -0.1675
 8589W        W51642  14.834   5.878   8.196  0.1527 -0.1903 -0.1677
 8590W        W51643  21.637  29.047  22.635 -0.0647  0.2843 -0.2042
 8591W        W51644  12.633  30.644   2.707 -0.1500  0.0410 -0.3728
 8592W        W51645  34.553   4.966  10.220 -0.1861 -0.0475 -0.0832
 8593W        W51646   3.434  27.000   0.925 -0.0714  0.0991 -0.1988
 8594W        W51647  13.041  13.276   0.727  0.1648 -0.0520 -0.0452
 8595W        W51648   8.311   2.243  17.402 -0.2702  0.1096 -0.1156
 8596W        W51649  22.918   1.242   7.387  0.0284  0.0063 -0.3832
 8597W        W51650   8.775  20.983  10.009  0.0817  0.0403  0.0046
 8598W        W51651  16.145   4.246   1.329  0.1805  0.2213 -0.0807
 8599W        W51652  28.509  29.401   2.376 -0.0569 -0.1123  0.0269
 8600W        W51653  21.652  30.292   8.363 -0.0923 -0.1295 -0.1676
 8601W        W51654  14.453  31.233   5.936 -0.2739 -0.2366 -0.0808
 8602W        W51655  20.408  28.030   4.399 -0.0564 -0.1998  0.1094
 8603W        W51656  17.640  30.651   3.620  0.0138 -0.1758 -0.0230
 8604W        W51657  26.284  16.528   8.082  0.1924 -0.3246  0.0231
 8605W        W51658   6.415   1.581   9.047  0.2379  0.1721  0.0913
 8606W        W51659  14.127   7.183  22.212 -0.0653 -0.1916 -0.1338
 8607W        W51660   9.414  12.570  28.291  0.0161  0.2571 -0.3837
 8608W        W51661  15.330   4.936  28.695 -0.2358 -0.0616  0.0518
 8609W        W51662  17.682  15.241   1.487  0.0950  0.1344 -0.0001
 8610W        W51663   2.246  33.492  22.431  0.0597 -0.3732  0.3052
 8611W        W51664  32.358  10.308   2.812  0.0188 -0.3209 -0.0416
 8612W        W51665  26.707  19.023   3.665 -0.0993 -0.1743 -0.3649
 8613W        W51666   6.742  34.051   4.175 -0.0284  0.2105  0.0319
 8614W        W51667  14.000  28.148   5.440  0.2562  0.2822 -0.0604
 8615W        W51668   1.253  17.015  28.097  0.0593 -0.0595  0.2075
 8616W        W51669   4.328   0.574  20.491  0.2743 -0.0450  0.2239
 8617W        W51670  11.771  19.405  25.260 -0.1500 -0.0659 -0.2403
 8618W        W51671  13.440  12.916   7.091  0.0347 -0.1789 -0.1330
 8619W        W51672  12.392  30.005  15.607 -0.1213  0.0850 -0.0817
 8620W        W51673   6.660  11.748   7.360  0.0970  0.1276  0.1189
 8621W        W51674  12.959  28.635  25.990 -0.2660  0.0191 -0.1045
 8622W        W51675   6.054   4.140   3.947 -0.1436  0.1131  0.0066
 8623W        W51676  15.829   0.597   5.027  0.1185  0.0067 -0.1289
 8624W        W51677  33.099  29.575  24.294  0.1283 -0.1894 -0.0885
 8625W        W51678  21.944  33.905  17.318  0.3749 -0.2563 -0.2245
 8626W        W51679  29.621   6.098   3.537 -0.1596 -0.1009 -0.2192
 8627W        W51680   7.977   1.490  26.817 -0.0009  0.1066  0.0011
 8628W        W51681  31.590  33.444   9.406 -0.2128 -0.0472 -0.0813
 8629W        W51682  27.594  33.918  22.931 -0.0667 -0.3219  0.0619
 8630W        W51683  21.645  33.388  27.193  0.0642  0.0768 -0.2285
 8631W        W51684  25.453  17.481   8.601 -0.1513 -0.0589 -0.0287
 8632W        W51685  11.448  26.583   3.251  0.0706  0.1912  0.3899
 8633W        W51686  10.434  25.274  19.784  0.2632  0.0497  0.2969
 8634W        W51687  20.224  21.705   1.444 -0.1503 -0.0090  0.3169
 8635W        W51688  22.881  33.941  21.572 -0.0052 -0.3570 -0.0936
 8636W        W51689  10.570  15.410   8.594 -0.0047  0.1484  0.2550
 8637W        W51690   0.555   7.031  18.833 -0.0139 -0.1011  0.0569
 8638W        W51691  30.715   0.190   1.915 -0.0860 -0.0385 -0.1025
 8639W        W51692  13.815   3.675   3.576  0.0964 -0.1789  0.1281
 8640W        W51693  15.849   8.214  29.101  0.2623 -0.1410 -0.2869
 8641W        W51694  10.688  13.485   3.845  0.3133 -0.3029 -0.0295
 8642W        W51695   6.096  24.184   3.606 -0.2947 -0.1966  0.1271
 8643W        W51696  16.919   3.127   6.881  0.0321 -0.0421  0.0477
 8644W        W51697  10.456   3.701   6.397  0.0138  0.3180  0.0572
 8645W        W51698  11.083  26.573   0.946 -0.0988  0.0646  0.1187
 8646W        W51699  24.165   6.065  26.243 -0.3079  0.4400  0.1385
 8647W        W51700  27.770   2.297   9.203  0.0079  0.0371 -0.1578
 8648W        W51701  26.764  31.398   4.638  0.0880 -0.1772 -0.3219
 8649W        W51702  21.260  24.571  19.408  0.1150  0.1436 -0.0731
 8650W        W51703  24.099   1.345  18.196  0.2517  0.0374  0.1930
 8651W        W51704  23.029   3.946  21.450 -0.0780 -0.0115 -0.0143
 8652W        W51705  15.281  14.145  25.623 -0.1858 -0.2522 -0.0112
 8653W        W51706  16.913  29.501   9.171 -0.1809 -0.2958  0.2904
 8654W        W51707  28.274   6.483   5.157 -0.0517 -0.3192 -0.1155
 8655W        W51708  16.107  25.493  19.270  0.0793  0.0699  0.0266
 8656W        W51709  28.225  28.694   5.974  0.2654  0.0006 -0.0424
 8657W        W51710  24.597   0.659   3.903  0.3154  0.3226  0.0277
 8658W        W51711  17.430  33.135   0.903 -0.4306 -0.1888  0.3898
 8659W        W51712  30.856  21.238   4.109  0.0862 -0.0344 -0.0018
 8660W        W51713  10.290  30.869  24.274  0.0951 -0.4448  0.0622
 8661W        W51714  19.731   0.999   5.839  0.4471 -0.0176 -0.0477
 8662W        W51715  18.439   6.848   2.138 -0.0164  0.1539  0.0488
 8663W        W51716  27.706  20.654   8.274  0.1274 -0.0573 -0.0274
 8664W        W51717   2.365   9.220  23.712  0.2835 -0.3232  0.0503
 8665W        W51718   7.236  13.782  18.487 -0.2676  0.0722  0.1928
 8666W        W51719  25.709   8.459   1.637  0.1606  0.1839 -0.0080
 8667W        W51720   3.455   9.768  28.101 -0.0486  0.0027  0.2431
 8668W        W51721  10.792  29.117  24.786  0.3641 -0.0779 -0.0224
 8669W        W51722  16.357  11.344  25.876  0.2457  0.0314 -0.0000
 8670W        W51723  17.613   4.018  27.726  0.2892 -0.1722  0.0628
 8671W        W51724  27.696  29.339  14.731  0.0753 -0.0048 -0.0210
 8672W        W51725  31.754   7.332   8.967  0.1793  0.2874 -0.0711
 8673W        W51726  12.604  33.756   7.351 -0.2480 -0.0195 -0.0459
 8674W        W51727  22.453  20.668  29.180 -0.1072  0.1317 -0.2278
 8675W        W51728  28.443  20.755  26.310  0.0963  0.1568 -0.1565
 8676W        W51729   4.599  13.662  27.462  0.1009 -0.3429  0.2911
 8677W        W51730  21.270   9.175  20.106  0.1558  0.0303 -0.0872
 8678W        W51731   3.392  33.902   9.347 -0.0016 -0.0096  0.0553
 8679W        W51732  13.610  30.582   6.097  0.1243 -0.4358 -0.0335
 8680W        W51733  15.466  14.315  15.324 -0.2999 -0.2167  0.1302
 8681W        W51734   1.718   8.889   9.092  0.0118  0.0756 -0.0104
 8682W        W51735  28.172   7.299  10.186 -0.5166  0.0344  0.1710
 8683W        W51736  20.072   2.947   3.323  0.0315  0.2006  0.0361
 8684W        W51737  13.729  31.972   0.876  0.0645 -0.0732 -0.0867
 8685W        W51738  32.570   0.824  27.026 -0.1101 -0.1854 -0.4141
 8686W        W51739  26.699  17.799  10.272 -0.2194  0.0224 -0.0279
 8687W        W51740  21.355  31.893   4.674 -0.3516 -0.1454 -0.1823
 8688W        W51741  14.341   6.341   2.824  0.4733 -0.2704  0.2039
 8689W        W51742  22.187   2.337  28.876  0.2966 -0.1829 -0.0561
 8690W        W51743  14.894  31.355  17.393 -0.0558 -0.1398  0.5116
 8691W        W51744  19.217  34.429  26.706  0.2950  0.0727  0.1114
 8692W        W51745  15.115   6.925   1.888  0.1475 -0.0605  0.6395
 8693W        W51746  31.774  25.249   2.596 -0.2599 -0.1265  0.0469
 8694W        W51747  16.574  14.772   8.818 -0.2167  0.0284  0.2777
 8695W        W51748  18.841  31.074   6.523 -0.1181 -0.1554  0.0727
 8696W        W51749   4.494   1.010  26.976 -0.5195  0.1112 -0.1232
 8697W        W51750  11.955  10.653   0.220  0.0663  0.1001  0.1756
 8698W        W51751   5.869  13.880  27.831  0.0721  0.0957 -0.2103
 8699W        W51752  20.982   6.913   4.652  0.2926  0.0901 -0.0935
 8700W        W51753  34.102  30.655   9.029  0.1255  0.0991  0.2758
 8701W        W51754  24.319  21.468  21.463 -0.1254 -0.3020 -0.1066
 8702W        W51755   9.881  12.160   7.358 -0.0088  0.0600 -0.1555
 8703W        W51756  26.083  12.556  26.707  0.3903 -0.0388 -0.0579
 8704W        W51757  12.638  11.569  25.815 -0.1869  0.0952 -0.0536
 8705W        W51758  28.338  34.223   2.026 -0.2623 -0.0983  0.2197
 8706W        W51759  18.704  22.269  27.623 -0.0509 -0.1086 -0.1132
 8707W        W51760  24.829  15.178   4.389 -0.0084  0.1978 -0.0062
 8708W        W51761  10.454  21.864   9.141  0.0164  0.0846  0.0154
 8709W        W51762  17.299  19.393  27.945  0.2198  0.2732  0.0682
 8710W        W51763  20.549  30.744   1.459  0.4431  0.1105 -0.0463
 8711W        W51764  15.998  32.692   2.357 -0.1077 -0.0883  0.1357
 8712W        W51765  26.431  15.537   2.305  0.2459  0.1016  0.1414
 8713W        W51766  18.757  14.287   8.950  0.2821 -0.0449  0.1674
 8714W        W51767   1.807  16.276  18.846  0.0393  0.3499 -0.1853
 8715W        W51768  30.302  24.227  22.849  0.1575  0.1561 -0.0311
 8716W        W51769  19.654  17.150  23.623  0.2314 -0.1029 -0.0487
 8717W        W51770   8.353   2.579  18.359  0.2166 -0.2541  0.2713
 8718W        W51771   9.656  27.825   6.535  0.4112 -0.3638 -0.3606
 8719W        W51772  23.899   1.894   3.266 -0.1441 -0.0480 -0.1704
 8720W        W51773  10.282  34.360   8.664 -0.0369  0.0816  0.1094
 8721W        W51774  21.066   1.213  28.961 -0.2243 -0.2357 -0.0936
 8722W        W51775  13.839   0.888  23.509  0.0477  0.0203  0.1679
 8723W        W51776   8.759   0.423   8.656  0.1204  0.0910 -0.0291
 8724W        W51777  19.097  25.936   8.143 -0.0184 -0.1159 -0.1912
 8725W        W51778   3.603  21.352  21.907  0.2495  0.0611 -0.1170
 8726W        W51779   5.782  16.701   8.294 -0.2088  0.1116  0.1078
 8727W        W51780   6.452  18.247  24.126  0.1727 -0.2484  0.1095
 8728W        W51781  16.135  20.144  25.715  0.2349 -0.2055  0.1919
 8729W        W51782  34.462  34.101   3.032  0.1961 -0.0724  0.1686
 8730W        W51783   1.128  14.807   0.251  0.1241 -0.0016  0.0524
 8731W        W51784  29.316   7.958  27.438  0.1153 -0.1267 -0.0790
 8732W        W51785  19.928   8.501   1.908 -0.1440 -0.3793  0.2353
 8733W        W51786   5.298  10.709   8.156  0.0538  0.2810  0.1425
 8734W        W51787  14.105   1.215  23.157 -0.2680 -0.2228  0.0250
 8735W        W51788  19.315  11.237  27.795  0.0947 -0.0049 -0.0724
 8736W        W51789  16.389   4.559  14.938 -0.2559  0.4125  0.0410
 8737W        W51790  34.469  33.629   8.475 -0.0311  0.0886 -0.1906
 8738W        W51791  26.564  33.827   7.867  0.0681 -0.0346 -0.2454
 8739W        W51792   0.913  12.164   5.883 -0.0840 -0.0673 -0.1049
 8740W        W51793  33.181  34.242  26.171  0.3075  0.2311 -0.1014
 8741W        W51794   5.716  19.300  19.488  0.1247  0.0159  0.1241
 8742W        W51795  16.922  18.593   5.032 -0.2197  0.2161  0.0766
 8743W        W51796   1.895  31.876   2.697 -0.3073 -0.0353  0.1768
 8744W        W51797  16.447  32.689   8.350  0.0841  0.4233 -0.4057
 8745W        W51798   5.491  19.992  23.564  0.0871 -0.0306 -0.0446
 8746W        W51799  17.053  34.401  28.135  0.0319  0.1780 -0.2324
 8747W        W51800   0.261   5.910   8.376  0.2997  0.0345 -0.1823
 8748W        W51801  18.445  26.914   4.704  0.0566 -0.1398  0.0722
 8749W        W51802   2.157  10.092  27.598  0.3841  0.1566  0.1796
 8750W        W51803  22.626   2.415   5.413  0.2256  0.2272 -0.0764
 8751W        W51804  30.548  31.621  15.819  0.4106  0.2417 -0.0086
 8752W        W51805  17.930  33.538   7.170  0.3551 -0.0174  0.1678
 8753W        W51806   2.655   2.678  26.268  0.3820 -0.2432 -0.1010
 8754W        W51807  17.168   0.548  10.173 -0.3729  0.0938  0.0439
 8755W        W51808  13.857   2.587  27.780  0.1818  0.0864  0.0864
 8756W        W51809  27.035  30.250  21.290 -0.3286  0.0854 -0.1551
 8757W        W51810  29.900   9.049  25.596  0.1789  0.0981  0.1683
 8758W        W51811  23.300   0.827   2.263 -0.2153  0.1029  0.0706
 8759W        W51812   7.746  19.588  26.105  0.0051 -0.1434  0.2737
 8760W        W51813  18.519   5.103   0.744 -0.0895 -0.2322 -0.1896
 8761W        W51814  22.276  15.685   4.407 -0.0622 -0.1336 -0.1809
 8762W        W51815  15.097   1.292  20.763  0.2079 -0.0556 -0.2703
 8763W        W51816  27.116  15.723   3.251 -0.1906 -0.0592  0.2642
 8764W        W51817  18.726   0.688   8.219  0.0205  0.0101 -0.0336
 8765W        W51818  16.231   5.803   9.877 -0.5702 -0.0980  0.2104
 8766W        W51819  24.470  26.001  18.748  0.0487  0.2652  0.2611
 8767W        W51820  25.811  29.995  27.976  0.2186 -0.1309  0.1358
 8768W        W51821  19.522  25.022  17.000 -0.4138  0.1000 -0.0155
 8769W        W51822  28.959   9.786  27.765 -0.0150 -0.0264 -0.2098
 8770W        W51823  33.578  22.009   1.492 -0.2833 -0.1904 -0.1264
 8771W        W51824   2.577  24.292  21.435  0.1150 -0.1154 -0.0519
 8772W        W51825  26.326   9.361  17.782 -0.1513 -0.1862  0.1777
 8773W        W51826  27.223  23.249  28.687  0.0859 -0.2591 -0.0702
 8774W        W51827  20.881   1.394   3.772  0.1093  0.1916 -0.0553
 8775W        W51828  23.290  10.175  25.861  0.1008  0.1228  0.0013
 8776W        W51829   2.678   7.333  22.523 -0.1011  0.0205  0.0586
 8777W        W51830  23.884   2.035   9.844  0.0467  0.0559 -0.2110
 8778W        W51831   9.683  15.732   3.921 -0.0769 -0.0464  0.4543
 8779W        W51832  27.583  10.239  20.902  0.2484 -0.0247  0.3237
 8780W        W51833   4.620  10.965  18.663  0.1106  0.1622 -0.2825
 8781W        W51834   8.289   5.064   5.814 -0.5511 -0.1549  0.0888
 8782W        W51835  16.137   9.982   6.466 -0.1533 -0.0186  0.0812
 8783W        W51836  22.957  30.010   0.663 -0.1182 -0.3195 -0.2360
 8784W        W51837  21.047   7.604   2.042  0.4839 -0.1143  0.2661
 8785W        W51838  30.799  21.733   1.997  0.1494  0.2291  0.2954
 8786W        W51839  15.463  24.790   9.907  0.1560  0.1142  0.0369
 8787W        W51840  16.116  29.291   0.357 -0.0892  0.1315  0.0172
 8788W        W51841   7.308  34.062   5.480 -0.0748 -0.1064  0.0541
 8789W        W51842  33.849  14.713  25.358  0.0761  0.1562  0.2898
 8790W        W51843  21.284   5.459  15.293  0.1793  0.0568 -0.1431
 8791W        W51844  30.362  25.051  16.734  0.0456 -0.1579  0.3527
 8792W        W51845  25.096   0.173  18.321 -0.1285  0.1865 -0.0754
 8793W        W51846   5.622  28.955   1.121 -0.0210 -0.1134  0.0588
 8794W        W51847  15.108   2.686   8.994  0.0371 -0.0316  0.1124
 8795W        W51848  12.479   3.524   7.617  0.0679  0.0705 -0.2017
 8796W        W51849  12.159   6.016   1.200  0.1759 -0.1572 -0.4397
 8797W        W51850  24.838   0.703   1.479  0.1723  0.2885  0.2044
 8798W        W51851  25.939  29.235  21.940 -0.1469  0.0816  0.1419
 8799W        W51852  33.584   1.094   2.473 -0.0036  0.2978 -0.1447
 8800W        W51853  24.214  21.403   9.469  0.2028  0.4954 -0.3976
 8801W        W51854  12.386  28.768  19.869  0.0480 -0.1033  0.3738
 8802W        W51855  18.238   8.751   7.396 -0.0542  0.0128 -0.3287
 8803W        W51856  27.793  31.098   7.583 -0.1199  0.0743 -0.0163
 8804W        W51857  20.298  10.672  25.371  0.1437 -0.0565  0.0356
 8805W        W51858  33.865   3.762  27.226 -0.1060 -0.3261  0.0131
 8806W        W51859  23.801  32.923  25.741  0.0014  0.5388 -0.1780
 8807W        W51860  20.738  34.201   5.139 -0.4074 -0.2684 -0.0329
 8808W        W51861  12.501   0.931  20.409  0.0001 -0.4133  0.0338
 8809W        W51862  28.421   6.128   6.611 -0.2146  0.2690  0.0279
 8810W        W51863   3.358   3.115  23.955  0.1372  0.0481 -0.2162
 8811W        W51864  28.780   5.568   7.252 -0.2314  0.1197  0.1834
 8812W        W51865  18.182   8.193  26.719 -0.0977 -0.2618 -0.1934
 8813W        W51866  18.990   5.354  16.320 -0.0975 -0.0334 -0.0597
 8814W        W51867  27.417  28.480  26.307  0.1521 -0.0104 -0.2813
 8815W        W51868  11.244  32.529  25.063 -0.1446  0.2388 -0.2313
 8816W        W51869  18.323  27.617   9.635  0.0869  0.0777  0.1637
 8817W        W51870  26.603  34.544  24.590 -0.0681  0.4612 -0.0731
 8818W        W51871   7.184  23.266  18.781 -0.0550 -0.1366 -0.0362
 8819W        W51872  17.404  27.566  20.057 -0.1502 -0.0519  0.1879
 8820W        W51873   8.435  21.887  19.047  0.3365  0.3034  0.2801
 8821W        W51874  19.212   5.333   6.028 -0.2214 -0.1720  0.2021
 8822W        W51875  12.338  19.574   3.984  0.1192  0.2584  0.2290
 8823W        W51876  19.242   2.112  28.989 -0.0029  0.3262 -0.3577
 8824W        W51877  19.798  25.862  22.225 -0.1721  0.3011  0.0790
 8825W        W51878  24.289  10.919   4.660  0.2657  0.2299 -0.0432
 8826W        W51879  19.994  11.796   5.854 -0.1199  0.2873 -0.2650
 8827W        W51880  14.157  18.604  27.157  0.1032  0.0811 -0.1364
 8828W        W51881   1.888   4.055  21.515 -0.0474 -0.1808 -0.0693
 8829W        W51882  29.765  12.617  10.361 -0.0097  0.0963  0.1637
 8830W        W51883  34.467  23.519  22.084 -0.1243  0.3666 -0.0438
 8831W        W51884  34.176   3.415  18.950  0.2684  0.0460  0.3047
 8832W        W51885   5.346   0.489   2.880 -0.2492  0.1901  0.0255
 8833W        W51886  23.350  29.419  23.900 -0.0884  0.2101  0.3665
 8834W        W51887  19.984  34.307   0.270  0.0453 -0.2011  0.2575
 8835W        W51888  32.791  31.017   6.005 -0.2790  0.1261  0.1290
 8836W        W51889   1.672   5.023   1.897 -0.1089  0.0639 -0.2114
 8837W        W51890  10.662   7.797  27.930 -0.0088 -0.1545  0.0366
 8838W        W51891  14.778   8.542  25.836 -0.0631 -0.1183  0.0373
 8839W        W51892  13.849   0.938   4.531  0.2878 -0.2448 -0.1447
 8840W        W51893   1.865  31.443   6.024  0.0340 -0.1993 -0.1064
 8841W        W51894  27.472   2.871  10.061 -0.2433  0.2215  0.3075
 8842W        W51895  17.120   2.627   7.409  0.5267  0.4944  0.1261
 8843W        W51896  23.805   8.055  19.853  0.2365  0.4191  0.0556
 8844W        W51897  18.958   9.591   0.411 -0.3421  0.3046 -0.1887
 8845W        W51898  25.860  34.244   4.431  0.1118  0.1728 -0.1628
 8846W        W51899  15.394  11.618  27.408  0.1905  0.0618  0.2129
 8847W        W51900  23.364  12.070   2.770  0.0172 -0.0420  0.2992
 8848W        W51901   8.322   9.666  21.480  0.3662  0.3247 -0.0288
 8849W        W51902  33.413  17.286   4.773 -0.0469  0.0294  0.0912
 8850W        W51903   4.863   9.929   6.454  0.2004  0.0170 -0.1478
 8851W        W51904  22.233  31.464   8.512 -0.2050 -0.4415 -0.0456
 8852W        W51905  10.836  13.173   4.235  0.0706 -0.0523 -0.0155
 8853W        W51906   4.711   7.295   7.308  0.3298 -0.0267 -0.0868
 8854W        W51907   9.938  34.197   0.216  0.0115 -0.1779  0.0974
 8855W        W51908  34.472  13.743  22.825  0.1898 -0.0691  0.0459
 8856W        W51909  27.783  11.053  28.091 -0.1221  0.0834 -0.0597
 8857W        W51910  16.561  31.049  10.011 -0.2049 -0.3043  0.0032
 8858W        W51911  13.105  18.800   8.105 -0.0401 -0.4889 -0.2094
 8859W        W51912  19.051  24.450  27.681 -0.0271 -0.4404 -0.1920
 8860W        W51913  33.908  23.716   4.286  0.0383  0.1417 -0.3681
 8861W        W51914  19.078   7.487   4.100  0.0222  0.1532 -0.1165
 8862W        W51915  23.617  26.947  22.831  0.1282 -0.1016 -0.0354
 8863W        W51916  20.250  25.777  18.286 -0.0313  0.2102  0.1204
 8864W        W51917   4.693  23.384   7.038  0.0785  0.0774  0.0824
 8865W        W51918  30.389   1.789   2.400  0.0380 -0.0329 -0.1785
 8866W        W51919   5.506   3.536   8.759 -0.1074 -0.0137  0.0942
 8867W        W51920  15.285  30.207   4.923  0.1410  0.0792 -0.2470
 8868W        W51921  30.461   6.082   3.142 -0.1062  0.1390  0.0840
 8869W        W51922  15.151  24.930   4.512  0.1619  0.0406 -0.0072
 8870W        W51923  23.743  14.196  21.438 -0.2449 -0.4117 -0.2480
 8871W        W51924   5.944  23.151   1.443  0.1770  0.2127 -0.2518
 8872W        W51925   7.549   9.864  24.362 -0.2015  0.0440  0.0241
 8873W        W51926  19.389  16.957   2.912 -0.0750 -0.1330 -0.0217
 8874W        W51927  30.255  16.903  10.101  0.3408  0.0084 -0.0991
 8875W        W51928  27.032   2.843   8.917  0.1426  0.0120 -0.0275
 8876W        W51929  13.177   3.247   9.422 -0.0595 -0.1635  0.1075
 8877W        W51930  15.119  22.675   6.451 -0.2586  0.0688 -0.2925
 8878W        W51931   7.009  17.025   9.604  0.1374  0.2330 -0.2361
 8879W        W51932  20.816   7.032   7.752 -0.1555 -0.0634 -0.0870
 8880W        W51933  28.403   2.580  28.726  0.0265 -0.2216 -0.1575
 8881W        W51934  13.233   3.072  20.288  0.0125  0.5177 -0.1126
 8882W        W51935  19.747  17.114   5.770 -0.0099  0.0921  0.2545
 8883W        W51936   2.425  29.259   1.713 -0.1463  0.0671 -0.0089
 8884W        W51937  28.965   6.004   1.847  0.2570  0.1595 -0.0456
 8885W        W51938  18.400  32.338   9.649 -0.3672 -0.0111  0.4777
 8886W        W51939  18.785  13.019   4.832  0.2846  0.1508 -0.0876
 8887W        W51940  16.968  12.570   8.530  0.0436  0.0830 -0.0660
 8888W        W51941  14.247   5.398  28.191 -0.0034 -0.1795 -0.0442
 8889W        W51942  27.264  13.273   4.187  0.0681 -0.1723 -0.1877
 8890W        W51943   5.942  33.813  18.587  0.1084  0.2617 -0.2661
 8891W        W51944  25.318  34.088  27.746  0.0672  0.2027  0.3800
 8892W        W51945  14.418  34.141  27.083 -0.0376  0.1561  0.2561
 8893W        W51946   4.829  29.241  27.218  0.3697 -0.1487  0.0094
 8894W        W51947  24.098  11.171   9.427 -0.0990 -0.0087 -0.1722
 8895W        W51948  13.313  32.457   3.523 -0.1712  0.1934 -0.1397
 8896W        W51949  22.651  10.867  28.445 -0.3591 -0.1395  0.2336
 8897W        W51950  16.271  14.827   8.436  0.4035 -0.0668 -0.1104
 8898W        W51951  16.941  14.725   0.110  0.0440 -0.2068 -0.0440
 8899W        W51952  33.425   3.713   7.214  0.1877 -0.2415  0.2475
 8900W        W51953  23.213  26.835   7.756 -0.0254  0.2612 -0.3228
 8901W        W51954  22.197  33.750   5.548 -0.0875 -0.1565  0.4379
 8902W        W51955  11.339  31.390  25.524  0.1989 -0.2093 -0.0026
 8903W        W51956  27.440   9.361   0.429  0.3793  0.0654  0.3358
 8904W        W51957  31.102  29.129  13.634  0.3315  0.1517 -0.1916
 8905W        W51958  19.364  12.403   7.011 -0.0672  0.2163  0.0782
 8906W        W51959  26.249   4.670   8.706 -0.1405 -0.2165  0.2831
 8907W        W51960  31.061  33.294   5.695 -0.0014 -0.1844  0.0691
 8908W        W51961  13.602   1.987   7.117 -0.1978  0.1100 -0.1248
 8909W        W51962  31.442  20.072   8.883  0.2092 -0.3706 -0.0561
 8910W        W51963  17.404   2.209   3.834 -0.0954 -0.0800  0.0908
 8911W        W51964  30.377  28.826  27.766  0.0186 -0.0700 -0.1796
 8912W        W51965  31.442  23.977   1.842  0.0312 -0.1480 -0.2500
 8913W        W51966  33.794   4.479   0.075 -0.1425 -0.0372  0.1312
 8914W        W51967  11.411   9.207   2.775  0.1651 -0.0845 -0.0317
 8915W        W51968  13.067  32.218   8.362  0.1529 -0.0308  0.1801
 8916W        W51969  24.201   7.554  21.712 -0.0512 -0.0420  0.3019
 8917W        W51970  21.350  27.306  20.342 -0.1961  0.0410  0.4331
 8918W        W51971  12.991  11.504   6.004 -0.4959  0.1355 -0.0372
 8919W        W51972  21.772  33.808  22.098  0.2161  0.0834 -0.1011
 8920W        W51973  20.275   0.086  28.943 -0.1590  0.0130  0.0835
 8921W        W51974  19.303  31.650   6.897  0.0403  0.1617 -0.0272
 8922W        W51975  27.485  13.578   5.374  0.2101 -0.0347  0.2379
 8923W        W51976  19.629  14.196  15.555  0.0228 -0.3716  0.1918
 8924W        W51977  15.209   2.173   5.887  0.0117  0.0707  0.1927
 8925W        W51978  18.511  33.225   2.954 -0.1404  0.1455 -0.3322
 8926W        W51979  27.116   2.270  23.093  0.0563  0.1450  0.2114
 8927W        W51980  25.597  20.524   8.235  0.1066 -0.0363 -0.0688
 8928W        W51981  32.821  24.461   4.827 -0.0040 -0.0507 -0.2425
 8929W        W51982  31.369   3.531  25.722 -0.0718  0.2087  0.0250
 8930W        W51983  20.415   6.424   6.774  0.0357 -0.0853  0.0703
 8931W        W51984  14.086  15.782   7.080  0.0311  0.1313  0.2740
 8932W        W51985  17.344   9.865   1.042 -0.1452 -0.0201  0.0004
 8933W        W51986  24.336  12.665   6.149  0.2414  0.0062 -0.1720
 8934W        W51987  22.792   7.434   3.602 -0.1646 -0.2348  0.4136
 8935W        W51988  21.815  11.864   2.615 -0.0435  0.0422 -0.0871
 8936W        W51989  29.285  32.006   2.727  0.0172 -0.3453 -0.0089
 8937W        W51990  15.026   3.065  25.215 -0.1594 -0.2001 -0.0897
 8938W        W51991  17.572   8.386  27.509  0.1675 -0.0203  0.2476
 8939W        W51992   4.170  11.777   4.109  0.0650 -0.0148 -0.0571
 8940W        W51993  16.417   3.003   1.295 -0.2973  0.3135  0.1190
 8941W        W51994   9.339   5.043   8.418  0.0032 -0.0027  0.3445
 8942W        W51995  24.523   5.834   9.449  0.1847 -0.0515 -0.2152
 8943W        W51996  18.492  22.906   9.463  0.1995  0.0696 -0.0466
 8944W        W51997   0.036  14.674   1.320  0.0124  0.1940  0.2920
 8945W        W51998  27.807   9.516  24.341  0.0541  0.0523 -0.1681
 8946W        W51999  20.372  31.545   6.843  0.2495 -0.0253  0.0543
 8947W        W52000  27.743  10.957  23.469 -0.2144  0.1198  0.0059
 8948W        W52001  19.513  13.390   6.798 -0.0944 -0.1106  0.2618
 8949W        W52002  11.494  33.408   5.136  0.1210 -0.1087  0.2370
 8950W        W52003  12.155  32.820  25.829  0.3278 -0.3096 -0.3941
 8951W        W52004  13.300  27.795   0.292  0.3437 -0.4155  0.0014
 8952W        W52005  11.763   6.434   8.809  0.0133 -0.0890 -0.1657
 8953W        W52006  14.154   7.042  28.633 -0.1328 -0.3118  0.0925
 8954W        W52007  19.118   4.448   8.028 -0.0021 -0.0915 -0.0545
 8955W        W52008  15.397  26.271   8.177 -0.2114 -0.0684 -0.1892
 8956W        W52009  20.667   8.306   2.730 -0.2544 -0.2940  0.1928
 8957W        W52010  19.715  25.014  10.511 -0.1174 -0.1934  0.1402
 8958W        W52011  24.047  29.762   6.162 -0.1498 -0.2214 -0.0866
 8959W        W52012  22.876   8.907   5.845  0.1132 -0.1713 -0.0908
 8960W        W52013   9.470  22.039   0.833 -0.1961  0.1027  0.2629
 8961W        W52014  19.924   9.438   5.841 -0.0309  0.1951 -0.1131
 8962W        W52015  14.550  25.856  20.563  0.1124  0.3290  0.0996
 8963W        W52016   3.490   2.314   7.184  0.1461 -0.0993 -0.2516
 8964W        W52017   5.368  14.108   0.402  0.1186  0.1000 -0.4813
 8965W        W52018  18.104   9.180  26.582 -0.3776  0.2155 -0.2686
 8966W        W52019  16.088  12.592   1.661  0.1380 -0.0942  0.0876
 8967W        W52020   1.648  12.036   5.345  0.0467 -0.2049 -0.0252
 8968W        W52021   9.127   2.805   6.309  0.0155 -0.2259  0.2817
 8969W        W52022  15.091  29.434   2.645 -0.3186  0.3290 -0.4834
 8970W        W52023  27.409  10.066   7.861  0.0659 -0.0190 -0.3026
 8971W        W52024   7.670  12.181  10.828  0.0665  0.1040  0.1085
 8972W        W52025  13.272  14.697   9.739  0.2112 -0.1945 -0.1081
 8973W        W52026  23.900  20.722  24.817  0.3681  0.1614  0.0651
 8974W        W52027  22.757  14.858  28.531 -0.1306  0.3152 -0.0573
 8975W        W52028  15.849  16.994  25.242  0.2288  0.0445 -0.1097
 8976W        W52029   0.451   1.868   8.670 -0.2573 -0.0412  0.1313
 8977W        W52030  27.762  30.636   0.417  0.0520 -0.0575 -0.1402
 8978W        W52031  11.143  28.379  25.194  0.3604 -0.0086 -0.0290
 8979W        W52032  18.141  20.692  24.588 -0.1530  0.4771 -0.1831
 8980W        W52033  23.866   4.508   8.884 -0.0859 -0.1884 -0.0810
 8981W        W52034  25.245  10.204   2.532  0.0480  0.3053  0.0977
 8982W        W52035  11.582  22.281   2.672 -0.0672 -0.2195 -0.2616
 8983W        W52036  19.134  31.671   4.653  0.0742 -0.1080 -0.0339
 8984W        W52037  31.518  32.388   3.083  0.1236 -0.1144 -0.0013
 8985W        W52038  20.826  30.540   2.942  0.2762  0.2359 -0.2558
 8986W        W52039  15.281   4.615   4.729  0.3548  0.0573  0.0749
 8987W        W52040  14.868  21.948   7.807 -0.2496  0.5339 -0.2126
 8988W        W52041  12.524  15.622  26.121 -0.0749  0.1684 -0.1891
 8989W        W52042  34.288   3.347   0.240  0.1389 -0.0657  0.0514
 8990W        W52043   7.989   0.586  28.106 -0.3342  0.1987 -0.0822
 8991W        W52044  14.873  14.348   3.894 -0.1971 -0.2573  0.0657
 8992W        W52045   6.952  26.306   2.064  0.0007  0.0010 -0.2384
 8993W        W52046  27.285  28.690   0.847  0.0975 -0.2619 -0.2625
 8994W        W52047   7.303   4.951   9.356  0.0101  0.1542 -0.2654
 8995W        W52048   4.494   4.216   2.652 -0.0965  0.1498  0.3272
 8996W        W52049  23.184   1.461   8.281 -0.0534 -0.0638 -0.0315
 8997W        W52050  22.632   0.719   0.024  0.1265  0.2860  0.0638
 8998W        W52051  14.290  33.722   8.372 -0.2055  0.1754 -0.1312
 8999W        W52052  11.435  11.410   1.513 -0.0559  0.3576 -0.0329
 9000W        W52053  20.682   0.693   1.634 -0.1886 -0.1485  0.0575
 9001W        W52054  28.592  13.150   9.937 -0.1299  0.0750 -0.0102
 9002W        W52055  20.988   4.994  24.210 -0.3277  0.0968  0.0985
 9003W        W52056  25.102   5.431   1.111  0.4476  0.0629  0.2018
 9004W        W52057  10.431   4.080   9.887  0.1059  0.1682  0.0086
 9005W        W52058  27.235  14.223  25.814  0.0856 -0.0866  0.1468
 9006W        W52059  24.928   5.264   4.225  0.3094 -0.1932  0.0643
 9007W        W52060   8.085   9.730  29.178  0.3910 -0.0074  0.4196
 9008W        W52061  10.290  12.164  28.221 -0.0038  0.0747  0.1179
 9009W        W52062  10.542  13.997  19.650 -0.0020 -0.0555  0.0025
 9010W        W52063  18.038   6.605   5.705  0.0549  0.1153 -0.3214
 9011W        W52064   2.102   6.150   3.220  0.1841  0.1046  0.2131
 9012W        W52065  17.710  26.649   9.556  0.3206 -0.1971  0.1876
 9013W        W52066  11.268  22.404   7.700  0.2771  0.0025 -0.1112
 9014W        W52067  24.548  28.762  22.544 -0.1794  0.3562 -0.0158
 9015W        W52068   7.969   2.712   4.647  0.0591  0.0820 -0.0035
 9016W        W52069   4.331  18.251   5.866 -0.2173 -0.0629 -0.0696
 9017W        W52070  23.794  33.244   3.285 -0.0767  0.1760  0.1285
 9018W        W52071  29.578   5.748   1.234  0.0013  0.1527  0.0702
 9019W        W52072  27.472  26.499   1.525  0.1650 -0.0630  0.0191
 9020W        W52073  12.361  23.254   2.870 -0.0701 -0.2345  0.2374
 9021W        W52074  30.524  25.572   2.525 -0.1035 -0.1619  0.2168
 9022W        W52075  13.113  23.140   9.105  0.0819 -0.2958  0.1414
 9023W        W52076  13.839  32.023   3.697 -0.2633 -0.0198 -0.3773
 9024W        W52077  31.775  15.757   0.098 -0.0281 -0.0101 -0.2250
 9025W        W52078  11.275   4.113  15.044  0.1082  0.0772  0.1219
 9026W        W52079  31.071  32.878   9.540  0.3292  0.3182 -0.2633
 9027W        W52080  22.033   5.965   6.277 -0.0294  0.0133  0.1219
 9028W        W52081  19.484  32.288  25.654 -0.2152  0.1585 -0.6942
 9029W        W52082  18.138   3.495   5.021 -0.0015 -0.1982  0.3145
 9030W        W52083  14.782   5.789  29.064  0.0445 -0.0287  0.0874
 9031W        W52084  15.968  30.604   6.631 -0.0815  0.3311  0.1181
 9032W        W52085  14.632  29.113   0.424  0.0281  0.0445 -0.2170
 9033W        W52086  17.747  13.315  24.070 -0.0634  0.2494  0.1032
 9034W        W52087  30.987   7.737   9.697  0.2963  0.1168 -0.1456
 9035W        W52088  28.696  31.819  21.627 -0.2909  0.1253 -0.0574
 9036W        W52089  18.027   9.171   6.982  0.0658 -0.0901 -0.1823
 9037W        W52090  31.627  18.411   8.913  0.1598 -0.3019  0.2985
 9038W        W52091  17.286  18.715   7.986 -0.3456  0.4926  0.1737
 9039W        W52092  26.121   9.952   8.684  0.3364 -0.2081  0.1984
 9040W        W52093  13.667  31.115  15.018  0.3834  0.1105 -0.0913
 9041W        W52094  12.900  32.849  28.053  0.2093 -0.0224  0.2232
 9042W        W52095  21.103  29.282   4.273  0.5055 -0.0626  0.2520
 9043W        W52096  18.599   1.895  28.748  0.0039 -0.1047 -0.0757
 9044W        W52097  25.834  25.267  10.168 -0.2204 -0.0453  0.0223
 9045W        W52098  20.284  23.365  11.070  0.0814 -0.1518 -0.0265
 9046W        W52099  22.810  31.003   8.654 -0.2002  0.2332 -0.1056
 9047W        W52100  20.583  33.828   6.511 -0.2215 -0.2693 -0.2575
 9048W        W52101  28.693  13.709   8.068  0.1319 -0.1902 -0.1859
 9049W        W52102  17.800  31.953   7.812 -0.2244  0.0059 -0.2714
 9050W        W52103  20.303  14.491  20.147  0.0289  0.0887 -0.1242
 9051W        W52104  17.613  16.176   3.657  0.1181  0.2154 -0.4351
 9052W        W52105  32.203   7.298   7.543 -0.0746  0.1191  0.0402
 9053W        W52106  14.129  33.087   2.757 -0.0308  0.0389 -0.0250
 9054W        W52107  16.997  34.088   2.181 -0.0339  0.2510 -0.0891
 9055W        W52108  16.286   4.336   9.365 -0.0508 -0.0791 -0.3025
 9056W        W52109  15.825   5.075  19.827  0.0874  0.1332  0.1154
 9057W        W52110  16.554  28.117  21.782  0.0503 -0.2215  0.2058
 9058W        W52111  15.559  13.550  14.562 -0.1448 -0.0240  0.0102
 9059W        W52112  25.701  24.309   5.282 -0.3066 -0.2383  0.0209
 9060W        W52113   8.535  24.598   4.588 -0.0926 -0.0473  0.1476
 9061W        W52114  20.589  20.926  25.886  0.0535  0.0021 -0.0624
 9062W        W52115  24.507   5.214  25.779 -0.0655 -0.1272 -0.2701
 9063W        W52116  29.489  11.839  29.061 -0.2208  0.2289  0.0186
 9064W        W52117  26.764  31.432   7.394  0.1437 -0.0222  0.1415
 9065W        W52118   7.395  30.531  28.732  0.3343  0.1926  0.0268
 9066W        W52119  20.497  34.283  14.737 -0.2034 -0.2338  0.0728
 9067W        W52120  15.392  10.632  27.393 -0.1411  0.3678 -0.0062
 9068W        W52121  31.467   1.061  27.829 -0.2448  0.1488  0.2381
 9069W        W52122  31.800   7.764  10.458  0.1551  0.2370  0.0358
 9070W        W52123  11.513  16.067   6.420  0.0700  0.0195  0.3091
 9071W        W52124  24.505   8.024  27.192 -0.0547  0.0399  0.2685
 9072W        W52125  16.125   4.139  19.154 -0.1074 -0.0087 -0.1697
 9073W        W52126  22.819  30.995   5.697 -0.0551  0.1278 -0.1013
 9074W        W52127  24.253  14.006   1.019  0.1489 -0.1805 -0.2391
 9075W        W52128  24.624   5.069   8.249  0.0722  0.2403  0.1347
 9076W        W52129  14.137  12.351   0.856  0.0923  0.1777 -0.1617
 9077W        W52130  10.708  26.894   4.770  0.1774  0.0438 -0.2477
 9078W        W52131  13.660  32.159   3.260 -0.0265 -0.1091 -0.1054
 9079W        W52132  23.120   0.665  25.830 -0.4228  0.2297  0.2146
 9080W        W52133  28.032  20.890   9.919  0.0207 -0.0262  0.0360
 9081W        W52134  26.175   8.238   4.158  0.0195 -0.3200  0.1757
 9082W        W52135  28.778  24.765   3.031 -0.2834 -0.2203  0.0983
 9083W        W52136  19.806  28.358  21.631  0.3065  0.2215 -0.2497
 9084W        W52137  15.908  25.602   3.918 -0.2218 -0.1267  0.1514
 9085W        W52138  18.868   5.582  20.712  0.2735  0.0061 -0.0253
 9086W        W52139  12.631  24.093  24.342 -0.0426  0.1981 -0.0546
 9087W        W52140  20.435  17.610  24.036  0.0207  0.0693 -0.4747
 9088W        W52141  30.065  27.887  28.659 -0.2509 -0.1322 -0.0053
 9089W        W52142   8.265  12.587  22.821 -0.1856 -0.2179  0.0417
 9090W        W52143  31.436   2.600  26.864 -0.2076  0.0619 -0.2248
 9091W        W52144  21.523  33.724   9.771  0.2974  0.2253 -0.0453
 9092W        W52145  24.629  16.212   2.058  0.2607  0.0733 -0.2323
 9093W        W52146  13.377   2.344   8.066 -0.2159  0.2396 -0.1600
 9094W        W52147  14.957  31.659   4.225  0.0014 -0.0940 -0.0716
 9095W        W52148  18.820  14.174   8.187 -0.2644 -0.0559 -0.1378
 9096W        W52149  23.478   8.972   6.380 -0.1201 -0.1996  0.1251
 9097W        W52150  14.308  10.952   3.278 -0.2376  0.1308  0.1938
 9098W        W52151  21.142  33.621   8.981 -0.1404  0.0685 -0.2362
 9099W        W52152  15.921  15.562   2.552  0.4698  0.2871 -0.1152
 9100W        W52153   0.754   1.426   6.019 -0.0349 -0.1228 -0.1711
 9101W        W52154  17.696   1.149  18.613  0.2541 -0.1831 -0.0262
 9102W        W52155  30.714  32.938  24.704 -0.1590 -0.0842  0.0222
 9103W        W52156  25.737  20.317   7.819 -0.0538 -0.4044 -0.0499
 9104W        W52157  22.506   3.385   6.825 -0.1288  0.0701  0.2934
 9105W        W52158   4.975  28.924   4.533  0.0232 -0.0602  0.2230
 9106W        W52159  11.742  28.014   0.530  0.1162 -0.0059 -0.3128
 9107W        W52160  32.231  26.423   3.849  0.0376  0.1028 -0.1596
 9108W        W52161  21.807  27.465  21.206  0.3042 -0.0516  0.3197
 9109W        W52162  26.636  15.628  26.088  0.1598 -0.3217  0.2978
 9110W        W52163  32.372  15.905  13.855  0.0439 -0.0056 -0.1839
 9111W        W52164  15.281  32.685   9.628 -0.0958  0.0064 -0.2071
 9112W        W52165  23.468  34.574  26.605 -0.2762 -0.0263 -0.3749
 9113W        W52166   7.856  33.518   3.851 -0.0560 -0.2976 -0.1787
 9114W        W52167  12.537   7.142  26.223  0.1622 -0.0090 -0.3090
 9115W        W52168  26.245  17.405  28.061 -0.2543 -0.1090 -0.1052
 9116W        W52169  22.317  12.252   9.855  0.1300 -0.1526  0.0205
 9117W        W52170  23.797   3.726   9.676 -0.0912  0.0158  0.0333
 9118W        W52171  24.487   1.426   3.330  0.0639  0.4189  0.1841
 9119W        W52172  31.011  22.112   8.839 -0.4860  0.3407 -0.0246
 9120W        W52173   2.705   4.896  20.695 -0.1142  0.1613  0.0745
 9121W        W52174  31.843  32.439   3.542 -0.2080 -0.2691 -0.1691
 9122W        W52175  33.365  31.747  25.153  0.0284  0.2100 -0.0264
 9123W        W52176  26.830  14.651   5.479  0.0422  0.0466  0.1673
 9124W        W52177  29.025   1.867   4.263  0.0267 -0.3480  0.1867
 9125W        W52178  21.282   7.778  10.574  0.0455  0.1440 -0.0847
 9126W        W52179  20.378  26.339   8.993  0.0702  0.1702  0.0223
 9127W        W52180   8.588   2.623   9.524  0.3522  0.3438  0.1208
 9128W        W52181  21.009  11.122   1.205  0.0957  0.0262  0.0576
 9129W        W52182  18.328   4.029   4.301 -0.1621 -0.0173 -0.2155
 9130W        W52183  24.023  32.704   9.529 -0.0696 -0.2517  0.1817
 9131W        W52184  31.326   1.047   9.989 -0.2208  0.1968  0.0740
 9132W        W52185  20.640  32.909   8.084  0.0262  0.1125  0.0974
 9133W        W52186  16.384  25.353  17.745 -0.0255  0.0983 -0.4016
 9134W        W52187  15.912  22.695  23.634  0.1227 -0.1554  0.0615
 9135W        W52188  29.188  10.778  25.066 -0.0588 -0.1808 -0.0845
 9136W        W52189  10.169  17.506   3.581 -0.1901  0.1931 -0.2637
 9137W        W52190  20.230   9.366  19.015  0.0173  0.0182  0.0343
 9138W        W52191  12.862   0.679   3.958 -0.0659  0.0811  0.3568
 9139W        W52192  28.853  20.598  19.200 -0.2253  0.1647  0.2151
 9140W        W52193  20.104  32.585   7.837 -0.1135  0.1126 -0.0453
 9141W        W52194   1.024  28.425   4.441  0.3601 -0.0337 -0.0424
 9142W        W52195  15.745   1.587  19.876 -0.1315  0.0680 -0.0144
 9143W        W52196  15.224  33.929   8.382 -0.3035 -0.0824  0.0505
 9144W        W52197  21.105  10.949   3.781 -0.3363 -0.0904  0.2352
 9145W        W52198  10.171  15.640  11.042  0.1899 -0.1088  0.4038
 9146W        W52199  29.618   7.824   8.235  0.2311 -0.0435  0.0395
 9147W        W52200  27.202  33.121   9.391  0.5556 -0.2413 -0.3194
 9148W        W52201  22.520  32.879   6.124  0.1501  0.2873  0.0424
 9149W        W52202  29.103  17.018   3.963  0.1499 -0.0965  0.2565
 9150W        W52203  13.062   4.656  28.147  0.1055  0.0047  0.2236
 9151W        W52204   8.015  20.730   3.364  0.1520  0.1097 -0.0011
 9152W        W52205  31.032  31.307   7.716 -0.2296  0.1070 -0.2570
 9153W        W52206  26.522  14.054  22.204 -0.1742  0.2617  0.2406
 9154W        W52207  32.724   4.984  28.077 -0.1404  0.0711  0.2934
 9155W        W52208  12.890  25.602   0.838 -0.2157 -0.1799 -0.0023
 9156W        W52209  20.147  34.561   4.860  0.1596  0.1881 -0.3174
 9157W        W52210  14.172   8.653  24.035 -0.1822 -0.1128 -0.2036
 9158W        W52211  30.995  27.032   0.964  0.0472 -0.1310 -0.0190
 9159W        W52212  17.455  29.152  19.303  0.1168 -0.1555 -0.0851
 9160W        W52213  25.975  22.855   2.192 -0.0849 -0.0210  0.0026
 9161W        W52214  11.983   0.405  20.437 -0.0647 -0.0943  0.1644
 9162W        W52215  22.936  30.559   4.108 -0.1752  0.1810  0.1711
 9163W        W52216  20.253  12.037  28.834  0.2410  0.1896  0.1171
 9164W        W52217  25.452   1.798   9.659  0.0979  0.2693 -0.0305
 9165W        W52218  12.471   5.155   9.896  0.1758 -0.0037 -0.3785
 9166W        W52219  16.783  32.753  10.733 -0.1746  0.0038  0.1460
 9167W        W52220   2.129  24.279   6.024  0.0127 -0.1016  0.1602
 9168W        W52221  32.439  10.196   9.866 -0.1529  0.0090  0.2112
 9169W        W52222  32.559   6.382  27.671 -0.0627  0.1579 -0.1709
 9170W        W52223   9.842  25.400  28.709  0.2586 -0.3200 -0.2362
 9171W        W52224  10.751  29.424   6.274  0.3237  0.0221 -0.0204
 9172W        W52225   3.351  24.003   7.216  0.1349 -0.2097  0.1293
 9173W        W52226   0.764  16.647   6.185 -0.2443 -0.0952 -0.0095
 9174W        W52227   7.201  12.054  27.991  0.2760  0.1583 -0.0971
 9175W        W52228  14.442   2.418   0.298  0.0751 -0.1206 -0.1755
 9176W        W52229  22.159   1.393  27.125 -0.0436 -0.0783 -0.3522
 9177W        W52230  20.258   2.110   1.116  0.2451  0.1565  0.2235
 9178W        W52231  19.130  25.884   5.215 -0.0864 -0.0698 -0.1004
 9179W        W52232  19.700  10.964   1.048  0.0759  0.0577 -0.0253
 9180W        W52233  25.519  26.568  28.812  0.0790  0.0222  0.4457
 9181W        W52234   6.042  31.801   6.114 -0.0799  0.1874  0.1706
 9182W        W52235  14.300   8.610  15.996  0.0899  0.0689 -0.2372
 9183W        W52236   9.887   7.233  28.811 -0.1667 -0.0666  0.0048
 9184W        W52237  26.298  11.511   7.769  0.2717 -0.1646  0.1457
 9185W        W52238  28.056  19.012   4.428  0.0786 -0.0244 -0.0849
 9186W        W52239  16.398  32.518   6.694  0.0644 -0.0902  0.0619
 9187W        W52240  21.101  34.291  23.076  0.0345 -0.1685  0.2313
 9188W        W52241  21.569  25.283  21.401  0.1641 -0.0484  0.2327
 9189W        W52242  12.821   3.979  23.307  0.0268 -0.0883  0.0145
 9190W        W52243  15.720  13.606   4.733 -0.0136 -0.2186 -0.1037
 9191W        W52244  29.170  32.393   3.069 -0.0861  0.2660  0.4070
 9192W        W52245  30.728  26.676   6.077 -0.2950 -0.1935 -0.0023
 9193W        W52246  23.804  12.221  23.339  0.1566  0.0269 -0.1019
 9194W        W52247  20.491   8.487  24.349  0.0312  0.0283  0.0140
 9195W        W52248  20.245  23.216   7.903 -0.0608 -0.1226 -0.0951
 9196W        W52249  21.328  22.122   9.822 -0.2047 -0.2162  0.0758
 9197W        W52250  17.730  12.966   4.707  0.1871 -0.0210 -0.0357
 9198W        W52251  18.459  15.518  22.820  0.0115 -0.0968  0.1130
 9199W        W52252  21.300  31.861  24.803  0.2565  0.0061 -0.1277
 9200W        W52253  26.991  14.963  27.003  0.3482 -0.1835  0.1488
 9201W        W52254  20.437  33.105   9.160  0.1625  0.2714  0.0174
 9202W        W52255  17.696  32.674   2.427  0.2183  0.0798 -0.2587
 9203W        W52256  20.205  31.476   8.812  0.1794  0.0043  0.1728
 9204W        W52257   2.776  26.429  26.065  0.1283  0.1441  0.2871
 9205W        W52258   0.679   3.666   8.166 -0.0470 -0.0928 -0.1182
 9206W        W52259  31.906  14.895   8.749  0.0023 -0.0905 -0.0997
 9207W        W52260  13.018  22.582   3.182 -0.0824 -0.1761 -0.0021
 9208W        W52261  15.371   8.452  29.100  0.1920  0.1620  0.2100
 9209W        W52262  13.684  26.212   8.235 -0.0341 -0.1734  0.1412
 9210W        W52263  15.321  21.031  18.424 -0.1235 -0.0524 -0.4810
 9211W        W52264  14.896  11.950   7.824 -0.0920 -0.0121  0.0790
 9212W        W52265  19.989  28.761   0.989  0.2257 -0.0840 -0.1790
 9213W        W52266  22.422   3.360   2.719 -0.2059 -0.1290 -0.3367
 9214W        W52267  29.400   9.048   9.343 -0.0302 -0.0530 -0.0627
 9215W        W52268  15.110  12.264  23.820  0.2832  0.0241 -0.0786
 9216W        W52269  30.151  20.840  26.506 -0.1474 -0.0620 -0.0874
 9217W        W52270  19.626   4.338   3.687 -0.0248 -0.1231  0.2388
 9218W        W52271  21.755  18.457  24.637 -0.3517  0.1220  0.2250
 9219W        W52272  20.869   5.666  21.893 -0.5953  0.0072  0.2963
 9220W        W52273   1.282  28.545  24.380  0.0122 -0.1921  0.3223
 9221W        W52274   7.530  18.569  28.329 -0.1521  0.0745  0.2726
 9222W        W52275  26.211  29.926  21.737 -0.1848 -0.1619  0.1273
 9223W        W52276  25.879  22.665  28.885  0.2678 -0.1718 -0.2419
 9224W        W52277  19.726  10.866   4.267  0.2722 -0.0148 -0.0424
 9225W        W52278  34.316  10.563   7.360  0.0254 -0.2480  0.3006
 9226W        W52279  12.818   7.533   5.308 -0.1476  0.0160 -0.1476
 9227W        W52280  20.392   4.213   9.179  0.0539 -0.1772  0.3100
 9228W        W52281  14.729  32.259  18.647 -0.0442  0.1657 -0.0369
 9229W        W52282  26.629  25.293   0.046 -0.0364 -0.0054  0.0088
 9230W        W52283  21.617  32.641   7.436 -0.2084 -0.1572 -0.0230
 9231W        W52284  21.989  18.494   7.614 -0.0200  0.1265  0.1642
 9232W        W52285  19.651   6.713   6.657 -0.1876  0.0545  0.0446
 9233W        W52286  26.409   9.776   6.874 -0.1448  0.2852  0.0037
 9234W        W52287  11.574  12.970   7.685 -0.0540 -0.6730 -0.0639
 9235W        W52288  19.669  10.502   2.394  0.1380  0.1499 -0.1212
 9236W        W52289   8.409   6.238   2.472  0.4697  0.0375 -0.2445
 9237W        W52290  14.926  11.061  28.726  0.0800 -0.2487  0.2172
 9238W        W52291  26.744   1.950  23.073  0.2414 -0.2549  0.2091
 9239W        W52292   3.776   0.646  28.302  0.0522  0.1520 -0.1843
 9240W        W52293   9.825   2.390  26.590 -0.2375  0.0956 -0.1199
 9241W        W52294  19.525   9.192   5.004  0.1524  0.2241  0.1293
 9242W        W52295  32.602   6.656   2.910  0.0644 -0.0257 -0.0008
 9243W        W52296  22.622   7.885   7.009  0.0154  0.0830 -0.1455
 9244W        W52297  24.685   6.579  19.382  0.0690 -0.0841  0.0202
 9245W        W52298  21.852  14.050   8.434 -0.0361 -0.1238 -0.0416
 9246W        W52299  29.947  33.419   1.455 -0.0973  0.0196  0.2447
 9247W        W52300  32.618  31.887  26.743  0.1778 -0.0653  0.4538
 9248W        W52301  16.225  11.336   9.157 -0.4329  0.0849 -0.0919
 9249W        W52302  34.032  30.803   4.143 -0.0639 -0.1095  0.2568
 9250W        W52303   7.616  25.959   9.034  0.2159 -0.0169  0.0553
 9251W        W52304  29.846  13.652  10.166  0.0637  0.0916 -0.1334
 9252W        W52305  30.854  27.322   6.964  0.2398  0.0616  0.1471
 9253W        W52306  19.384  27.528   8.368  0.4161  0.1107 -0.0486
 9254W        W52307  10.803  33.340   2.515 -0.0226 -0.2103 -0.1075
 9255W        W52308  21.977  11.123   3.738  0.0985 -0.1900 -0.2565
 9256W        W52309  31.752   0.110   6.395  0.0623  0.0121  0.5174
 9257W        W52310   2.030   1.358   0.981 -0.4187 -0.0592 -0.0705
 9258W        W52311  29.011   1.478   9.026 -0.0512  0.0036  0.3871
 9259W        W52312   2.974  31.594   1.170  0.3016 -0.0905 -0.0274
 9260W        W52313  17.803  12.220   5.159  0.2115 -0.0802  0.2309
 9261W        W52314  32.240  27.183   6.761  0.0603  0.0076  0.0939
 9262W        W52315  10.463   2.298   5.761 -0.3710 -0.4439 -0.0168
 9263W        W52316   4.939  14.566   9.130  0.1898  0.0545  0.2290
 9264W        W52317   7.515   3.739   7.163  0.2485  0.2265  0.2089
 9265W        W52318  18.187   8.871  24.969 -0.4151 -0.1310 -0.2936
 9266W        W52319  30.902   3.776   9.326  0.0922 -0.3491  0.0120
 9267W        W52320  23.102   9.482   3.034 -0.0227 -0.1248 -0.0600
 9268W        W52321  17.704   4.184   0.469  0.0724 -0.1003  0.0788
 9269W        W52322  10.053   7.313  19.930  0.2833  0.1669  0.1175
 9270W        W52323  27.484   1.774   8.398  0.1186 -0.2657  0.0259
 9271W        W52324  26.543  18.476   3.651 -0.0155  0.3049 -0.2782
 9272W        W52325  16.725   6.380  10.895 -0.0696  0.0526 -0.1859
 9273W        W52326  12.833   2.703   7.230 -0.0329 -0.1934  0.1843
 9274W        W52327  23.595   0.355   1.382 -0.0523  0.0420  0.2104
 9275W        W52328  25.214  12.683   2.722  0.0710  0.0169 -0.0549
 9276W        W52329  31.371   0.790  25.442  0.6582 -0.0481  0.2405
 9277W        W52330  19.933  13.739   3.538  0.4128 -0.1284  0.1875
 9278W        W52331  25.943  11.443   8.143  0.0292 -0.0599 -0.2310
 9279W        W52332  18.998   3.582   7.423 -0.3742 -0.1905  0.0032
 9280W        W52333  15.495  14.312  22.398 -0.0820  0.0617 -0.0142
 9281W        W52334  15.061  19.894   2.925  0.1097 -0.3460 -0.2386
 9282W        W52335  14.416   8.478   6.198 -0.4066  0.0821 -0.3044
 9283W        W52336  30.361  23.702   0.525  0.0609  0.0133  0.1003
 9284W        W52337   7.246  28.161  16.634 -0.4469  0.2239  0.1402
 9285W        W52338  21.342  33.319   3.809 -0.0606  0.1531 -0.5304
 9286W        W52339  21.682  34.608  23.563 -0.2101 -0.2392 -0.0290
 9287W        W52340  24.848  32.851  28.716 -0.2521 -0.2212  0.1810
 9288W        W52341  21.736   6.327   9.277  0.2108 -0.2111 -0.3491
 9289W        W52342  32.422   2.737  27.084 -0.0259  0.0288  0.3667
 9290W        W52343  15.300   9.775  10.816 -0.2040  0.0271  0.1743
 9291W        W52344  10.660  33.621  25.584  0.1415 -0.1259  0.2648
 9292W        W52345  16.049  23.130  25.732  0.0452  0.0924  0.1372
 9293W        W52346  24.344   6.070   3.115  0.0631 -0.0305 -0.1077
 9294W        W52347  24.791  23.204   3.014 -0.0706  0.1665 -0.0195
 9295W        W52348  24.420   1.931   5.639 -0.3010 -0.2507  0.2366
 9296W        W52349  12.225  25.509   7.167 -0.1446 -0.0025 -0.0617
 9297W        W52350  11.748   4.355   7.544  0.0501  0.1772  0.0903
 9298W        W52351  24.586  27.967   8.219 -0.0156  0.3420  0.0012
 9299W        W52352   6.693   8.667   6.563  0.0620  0.0486  0.1218
 9300W        W52353  23.162  21.715  21.602 -0.0530  0.0427  0.0076
 9301W        W52354  19.211   3.189  16.795 -0.1990  0.0983  0.1738
 9302W        W52355  27.898  29.832   9.041 -0.1791  0.1133 -0.0951
 9303W        W52356  14.421   1.599   4.983  0.2312 -0.1803  0.2587
 9304W        W52357  20.704  10.713  27.700  0.2969 -0.1694 -0.4106
 9305W        W52358  17.044   3.794   9.736 -0.1203 -0.0702  0.4128
 9306W        W52359  25.454  14.373   6.549 -0.2980 -0.2493  0.0755
 9307W        W52360  10.263   5.313   4.093  0.3002  0.0169  0.0116
 9308W        W52361  27.269  21.320   7.091 -0.0873  0.0767  0.1304
 9309W        W52362  10.914   6.147   7.612  0.2190 -0.0499 -0.0405
 9310W        W52363  23.606  34.342   5.137  0.0157  0.0259  0.2905
 9311W        W52364  17.960  12.307   8.591 -0.0698 -0.0106  0.3603
 9312W        W52365  31.646   3.525   9.791 -0.2740  0.0885 -0.2270
 9313W        W52366  20.000   9.131   6.445 -0.0428 -0.1346 -0.0208
 9314W        W52367  26.043  29.538   8.041  0.2267 -0.0380 -0.0748
 9315W        W52368  19.898   8.017   4.288 -0.0650 -0.2199 -0.1071
 9316W        W52369  33.237  20.045   9.052  0.0342 -0.2999  0.1510
 9317W        W52370  29.696  28.522  21.112 -0.2743 -0.3102 -0.0529
 9318W        W52371  26.374  31.276   5.087  0.2203  0.0480 -0.2701
 9319W        W52372  26.414  32.312  10.552  0.1692  0.0108 -0.1832
 9320W        W52373   9.785  15.587  10.662  0.0002 -0.2442  0.0401
 9321W        W52374  22.837   5.939   2.702 -0.0387 -0.3680 -0.2527
 9322W        W52375   4.539  10.834   6.557 -0.0632 -0.2694 -0.1384
 9323W        W52376  27.077  33.414  23.619  0.2512  0.1644  0.0327
 9324W        W52377  10.948   4.262  24.467  0.1164  0.2590  0.0754
 9325W        W52378  12.039  33.945   1.687  0.1146 -0.3679 -0.2286
 9326W        W52379  22.790   0.610   5.620 -0.1872 -0.0129 -0.0104
 9327W        W52380  18.242   1.521   6.737  0.2569 -0.0180  0.0436
 9328W        W52381  18.673  32.943  21.050 -0.0425 -0.0603 -0.0045
 9329W        W52382   9.847  12.053   2.406 -0.3104  0.2608 -0.1081
 9330W        W52383  10.873  27.945   0.867  0.0411  0.0963  0.2719
 9331W        W52384  11.487  14.510   4.209 -0.0252 -0.2867 -0.0208
 9332W        W52385  26.045  32.722   8.909 -0.1273 -0.1983 -0.0866
 9333W        W52386  25.331   9.361   4.995 -0.3088 -0.1266  0.4150
 9334W        W52387  31.941  34.444   2.463 -0.1156 -0.0613 -0.3436
 9335W        W52388  20.628  10.467   3.847 -0.0880  0.0583 -0.1843
 9336W        W52389  14.572  29.804  28.364 -0.0795  0.1566  0.0522
 9337W        W52390  14.608  14.436  22.739 -0.2731  0.2247  0.1066
 9338W        W52391   4.370  33.404   1.861  0.0453 -0.0357 -0.2644
 9339W        W52392  13.209   9.260   5.724  0.0076 -0.0168  0.0412
 9340W        W52393   2.823  30.507   8.938  0.0357  0.2544  0.0551
 9341W        W52394  30.358  29.300   9.460 -0.2176  0.0731 -0.0187
 9342W        W52395  17.137  33.478  26.627  0.0001  0.5983  0.1864
 9343W        W52396   5.811  25.254   3.382 -0.2752 -0.2358  0.2094
 9344W        W52397   7.392  24.673  23.054 -0.1081 -0.1335  0.1339
 9345W        W52398   0.531  21.468   5.248  0.0945 -0.0948  0.1003
 9346W        W52399  19.174  33.789   3.461  0.1601 -0.1268 -0.1074
 9347W        W52400  19.418   6.313   9.962  0.1042  0.0859  0.1769
 9348W        W52401  33.578  16.172  20.679 -0.0369 -0.3630 -0.3366
 9349W        W52402  15.103  30.083  10.001  0.2451  0.1225  0.0925
 9350W        W52403  21.872   3.016   9.061  0.0296  0.0702  0.0623
 9351W        W52404  27.693  19.533   9.179  0.0274  0.0689  0.4480
 9352W        W52405  27.370   7.885   7.693 -0.2492 -0.0357  0.3482
 9353W        W52406  30.881  20.363   5.212 -0.1029  0.0433  0.1823
 9354W        W52407  13.746   0.741   7.336  0.1350 -0.2051  0.2318
 9355W        W52408  30.063   3.494   6.350  0.0412 -0.1636 -0.0253
 9356W        W52409  28.743  33.584   6.093  0.4103 -0.4124  0.1019
 9357W        W52410  21.740  29.006  25.073  0.0773  0.0963 -0.0081
 9358W        W52411  25.309  19.377   2.022 -0.3278  0.1129  0.0314
 9359W        W52412  15.526   0.827   4.169  0.0806  0.1339 -0.0378
 9360W        W52413  28.726  31.198   7.448  0.0394 -0.2058 -0.1238
 9361W        W52414  10.543  11.611  28.186 -0.1460  0.1651  0.0282
 9362W        W52415  15.735  12.337   9.868  0.3174  0.1561 -0.3841
 9363W        W52416  23.719  10.047   7.000 -0.0667 -0.1872 -0.4850
 9364W        W52417  20.230  25.987   6.867  0.0379  0.2399  0.1224
 9365W        W52418   6.472  32.360   1.144  0.2681  0.0145  0.0448
 9366W        W52419  32.387   3.719   8.477  0.1268  0.0230  0.3696
 9367W        W52420  30.677  26.573  27.470 -0.3135 -0.2218 -0.1194
 9368W        W52421  12.892  33.060   6.306  0.0263 -0.1720  0.0954
 9369W        W52422  26.176  13.303   6.174  0.1771  0.2453  0.1306
 9370W        W52423  20.079   1.999   3.002 -0.2776 -0.1230  0.0182
 9371W        W52424  32.913   0.609   6.826 -0.1737  0.1752  0.1108
 9372W        W52425  30.311  29.603   6.179  0.0429  0.1151  0.2495
 9373W        W52426  21.061  33.389   2.070 -0.3916 -0.1442  0.1684
 9374W        W52427  29.743   4.341   0.014  0.0762  0.2702  0.1931
 9375W        W52428  19.553  28.924   8.942 -0.0467 -0.0171 -0.2254
 9376W        W52429  23.776  10.466   7.525  0.0441  0.0143 -0.0013
 9377W        W52430   5.089   1.189  26.750  0.1384 -0.2884 -0.0791
 9378W        W52431  17.917  23.361   1.447 -0.3146 -0.2627 -0.2487
 9379W        W52432  17.892   2.302   4.964 -0.2167 -0.0484 -0.0272
 9380W        W52433  22.018   2.630   3.827 -0.1776 -0.1172  0.4427
 9381W        W52434  27.585  21.378   9.245  0.1463 -0.0791  0.1232
 9382W        W52435  19.612   5.301   9.953  0.4100 -0.1841 -0.1134
 9383W        W52436  14.711  12.812   1.481  0.2375 -0.4218  0.0023
 9384W        W52437  25.895  13.326   2.759 -0.1284  0.1746  0.1637
 9385W        W52438  26.726  32.819  28.262 -0.4022 -0.2650 -0.0814
 9386W        W52439  27.322  30.873   6.920  0.0962  0.1595  0.1957
 9387W        W52440  10.445  13.583   8.662 -0.1932 -0.0272 -0.3737
 9388W        W52441  20.138  29.482  26.905  0.0008 -0.1278 -0.2137
 9389W        W52442  17.947  32.415   6.821  0.0634 -0.1038  0.0499
 9390W        W52443  20.709  31.596   2.479 -0.0781 -0.1802 -0.0196
 9391W        W52444  22.134   1.528   1.443  0.3493  0.4044  0.0304
 9392W        W52445  18.102  28.784   5.496 -0.1483  0.1047 -0.2815
 9393W        W52446  24.890  25.477  17.739 -0.2152 -0.0273  0.0056
 9394W        W52447  26.666  29.500  28.772  0.2685 -0.0817 -0.0717
 9395W        W52448   8.950   0.448  19.419  0.0150 -0.5636  0.2768
 9396W        W52449  23.220  34.199   4.684 -0.0268  0.0861  0.0722
 9397W        W52450  12.093   5.933   6.380 -0.0702  0.0459 -0.1978
 9398W        W52451  16.497   1.660   8.407 -0.1641  0.4878 -0.1662
 9399W        W52452  33.227   1.861   3.102 -0.1503 -0.1233 -0.1106
 9400W        W52453  17.122  28.403   6.739 -0.1509  0.1414 -0.0702
 9401W        W52454  21.000   7.626  21.920  0.3689 -0.2669 -0.3040
 9402W        W52455  28.006   1.720   4.217  0.1956 -0.0728 -0.1492
 9403W        W52456  18.564   4.607  26.641 -0.3530 -0.1214 -0.0136
 9404W        W52457  20.731  13.657   6.002 -0.0742  0.0845  0.2242
 9405W        W52458  22.024  30.450   2.257 -0.2721 -0.1119 -0.1218
 9406W        W52459  21.678  24.264   4.381 -0.0318 -0.3261  0.0591
 9407W        W52460  15.044  33.709   9.536  0.2424 -0.1486  0.0066
 9408W        W52461  18.243  33.269   9.602 -0.0370  0.0421  0.2141
 9409W        W52462  23.303   8.635   1.111  0.1276 -0.1460 -0.2844
 9410W        W52463  17.536  27.878  21.172  0.0324  0.1271  0.2439
 9411W        W52464  24.283   0.786   9.848 -0.3560  0.1618  0.2236
 9412W        W52465  22.853   4.127   9.301 -0.1055  0.0345 -0.5366
 9413W        W52466   9.617  33.728   7.725 -0.0067  0.3118  0.0055
 9414W        W52467   4.179  34.518  23.308 -0.1586 -0.0541 -0.1566
 9415W        W52468   7.938  27.766   5.284 -0.3267 -0.0569  0.1736
 9416W        W52469  28.406  30.849   9.681 -0.2422 -0.1113  0.1317
 9417W        W52470  27.849   5.487   0.628  0.0519 -0.0093 -0.2181
 9418W        W52471  17.757  17.047   9.656 -0.0770  0.0698  0.0065
 9419W        W52472  30.491  23.733   5.367  0.0273 -0.3233  0.0721
 9420W        W52473  15.836   6.498  10.619  0.3688  0.1670  0.0932
 9421W        W52474   5.137   9.961   2.759  0.1106 -0.2570  0.1366
 9422W        W52475  16.051  22.895  26.144  0.2803 -0.0316  0.1951
 9423W        W52476  32.333  19.004  27.737 -0.0137 -0.1172 -0.0038
 9424W        W52477  30.554  34.388   2.360 -0.2894  0.0771  0.0582
 9425W        W52478  29.046  26.989   6.745 -0.3343 -0.0707 -0.2440
 9426W        W52479  16.895  28.815   0.176 -0.2653 -0.1956 -0.0626
 9427W        W52480   0.407  16.333  23.228  0.0775 -0.1944  0.0373
 9428W        W52481  24.824   9.416   9.299 -0.0034  0.1033 -0.0504
 9429W        W52482  24.360  27.650   5.496 -0.0632  0.0423  0.0890
 9430W        W52483  14.851  15.337   1.431  0.1518 -0.5324  0.0510
 9431W        W52484  21.902  13.543   5.882  0.4103  0.0457  0.0720
 9432W        W52485  13.603  24.202   7.080  0.0744  0.2628 -0.2175
 9433W        W52486  22.676  25.432   7.039  0.0001  0.0631 -0.2758
 9434W        W52487   3.698  24.145   5.557  0.1695  0.0142 -0.0226
 9435W        W52488  24.429  28.329   9.702 -0.4925  0.0148 -0.2169
 9436W        W52489  20.162  32.688   9.959  0.1712 -0.0507 -0.1342
 9437W        W52490  11.235  32.775   8.522 -0.2006 -0.2053 -0.2481
 9438W        W52491  17.417   3.125   6.150 -0.2487  0.0179 -0.3728
 9439W        W52492  21.411   0.779   9.541  0.0753  0.0822 -0.0134
 9440W        W52493  17.159  19.513  25.233  0.0446  0.0330  0.0627
 9441W        W52494  27.502  22.257   9.139 -0.1705  0.0004  0.1654
 9442W        W52495   9.658  20.991   9.713 -0.0573  0.5029 -0.2295
 9443W        W52496   9.538  15.695  27.075  0.4075  0.1266 -0.1757
 9444W        W52497  30.922  28.698   4.315  0.1888 -0.0232 -0.0050
 9445W        W52498  21.274   8.185   4.856  0.0913  0.1401 -0.0932
 9446W        W52499   1.302  19.156   1.707 -0.2593  0.1003 -0.3109
 9447W        W52500   5.240  18.539  18.565  0.0837  0.2181  0.4333
 9448W        W52501   5.407   2.601   3.207  0.5882  0.0556 -0.2913
 9449W        W52502  13.257  12.733   1.144  0.1318 -0.0349 -0.1310
 9450W        W52503   7.976  32.975  10.292 -0.0028  0.2536 -0.1782
 9451W        W52504  17.121  31.370   5.476 -0.0879 -0.2468 -0.0396
 9452W        W52505   3.914  13.368  19.749  0.2475 -0.0869  0.2936
 9453W        W52506  22.918   3.445  23.123 -0.0797  0.1064  0.1104
 9454W        W52507  16.855   7.244   2.605 -0.2033 -0.0626  0.0002
 9455W        W52508   4.737   7.341  27.552 -0.0518  0.2792  0.0138
 9456W        W52509  17.132  12.513  20.319  0.1472 -0.0605 -0.0265
 9457W        W52510  16.146   3.826   6.753 -0.0901  0.1395 -0.0846
 9458W        W52511  26.856  32.975  20.441  0.0811  0.1876 -0.2511
 9459W        W52512  25.823   6.744   5.425 -0.1233  0.2396  0.0145
 9460W        W52513  26.313  28.324   3.311  0.3117  0.1711  0.2689
 9461W        W52514  26.228  18.529  18.039  0.1483  0.1671  0.2463
 9462W        W52515  18.039  21.359   6.674 -0.2541  0.0373  0.1234
 9463W        W52516   8.872  30.994   0.424  0.0446  0.2614  0.0374
 9464W        W52517  22.545  14.081   9.031  0.0479 -0.1014  0.2052
 9465W        W52518  19.646  20.751  27.265  0.0872 -0.0407 -0.0690
 9466W        W52519  34.292  30.923   1.291  0.2415  0.4058 -0.0928
 9467W        W52520  28.133  33.169   5.142  0.0696 -0.2744  0.0789
 9468W        W52521  20.335  14.988   6.960  0.1687 -0.0911  0.4156
 9469W        W52522  31.924  11.386   9.910 -0.0525  0.0072 -0.1253
 9470W        W52523   9.972   6.035   5.709 -0.0153  0.0465  0.0141
 9471W        W52524  17.327  25.397   2.343  0.2291 -0.1916 -0.0747
 9472W        W52525  26.296   1.078   2.854 -0.2519  0.4273  0.0014
 9473W        W52526  12.071  30.216  24.846 -0.0429  0.1315 -0.4629
 9474W        W52527   1.049   5.900  10.126  0.3171 -0.0987 -0.0311
 9475W        W52528   7.874  14.826  29.161 -0.2421 -0.0218  0.0581
 9476W        W52529  33.949  13.046   1.426 -0.2044 -0.0201 -0.2190
 9477W        W52530  28.877  28.829   8.827 -0.0234  0.1636 -0.0133
 9478W        W52531  18.420  32.882   8.716 -0.2489  0.0408  0.3437
 9479W        W52532   9.653   5.980   3.322 -0.2113 -0.0050  0.1806
 9480W        W52533  12.382  13.478   4.404  0.1734 -0.4193  0.1858
 9481W        W52534  23.180   6.484  25.278 -0.2443  0.1231 -0.1186
 9482W        W52535  18.459   0.205   4.317  0.1643  0.0985 -0.1656
 9483W        W52536  31.342  29.619   6.765  0.0845 -0.0922 -0.2151
 9484W        W52537  25.916   9.310  27.714 -0.2624 -0.1054  0.0202
 9485W        W52538  27.430   0.778   6.732 -0.0540 -0.3006  0.1859
 9486W        W52539   7.478  25.819   7.123 -0.2849  0.0897 -0.4599
 9487W        W52540  26.064   4.223  16.930  0.0539 -0.1547 -0.1078
 9488W        W52541  19.154   9.721   6.771 -0.0773  0.0342  0.2442
 9489W        W52542  10.520  33.428   8.048  0.1682  0.1021 -0.1357
 9490W        W52543  24.624  31.134  15.897 -0.1139 -0.1414  0.0075
 9491W        W52544   7.615  25.420  25.897  0.1428 -0.2006 -0.1896
 9492W        W52545  17.018  21.077  23.074 -0.2034 -0.1074  0.0751
 9493W        W52546   9.461  13.874   8.659 -0.1253  0.4453  0.0573
 9494W        W52547  32.414  25.434  26.883 -0.2544 -0.1641 -0.1490
 9495W        W52548  15.638   5.593   3.029  0.2848  0.2100  0.0130
 9496W        W52549  19.922  11.163  28.780  0.0265 -0.2344  0.3875
 9497W        W52550  23.697  24.855  27.202 -0.2723  0.3525  0.2486
 9498W        W52551  16.020  15.674   0.193  0.3748  0.0999  0.2209
 9499W        W52552  16.614  21.576  21.200 -0.1210 -0.0616  0.0160
 9500W        W52553  15.472  32.733  25.748  0.0844 -0.0933  0.2179
 9501W        W52554  21.830  13.586   2.925  0.1734  0.1841 -0.1346
 9502W        W52555   1.103   9.102   0.440 -0.2596  0.1203 -0.2067
 9503W        W52556  31.056   0.216   7.307 -0.0456 -0.2068  0.0632
 9504W        W52557  13.306   9.249  10.205 -0.0284  0.4464 -0.0402
 9505W        W52558  26.521  34.122   9.655 -0.2458 -0.0286 -0.1559
 9506W        W52559  26.833  12.978  25.944 -0.1751 -0.0140 -0.3169
 9507W        W52560  10.771  31.175   7.546  0.0173  0.2631  0.0317
 9508W        W52561  10.938  11.314  10.776 -0.0167  0.2186  0.3577
 9509W        W52562  15.582  11.751   8.102  0.1439  0.2392 -0.2994
 9510W        W52563  15.132  15.359   5.218 -0.2997  0.3743 -0.1837
 9511W        W52564  30.705   5.980   2.710  0.1105  0.4025 -0.1484
 9512W        W52565   7.313  25.019   8.786  0.2455  0.2053 -0.1149
 9513W        W52566  23.808   8.311   7.928 -0.4579 -0.2426  0.0615
 9514W        W52567  25.868   3.494  25.416  0.0105 -0.1664  0.0669
 9515W        W52568  18.518  25.063   2.848 -0.0277  0.0142 -0.2658
 9516W        W52569  30.127   5.256  26.353  0.0351  0.3225  0.0675
 9517W        W52570  31.896  33.740  23.786 -0.0181 -0.1214  0.1887
 9518W        W52571  24.249  17.670   0.955  0.1282 -0.1172  0.2581
 9519W        W52572  16.006   6.587   8.350 -0.0980  0.1025 -0.0551
 9520W        W52573   4.086   2.107   8.986  0.1201  0.2264  0.2337
 9521W        W52574   7.806  14.222  23.828 -0.0752 -0.1200 -0.1790
 9522W        W52575  12.699  24.716   9.682 -0.2561 -0.1168  0.0627
 9523W        W52576  22.940  34.625   7.398  0.0735 -0.2268  0.1543
 9524W        W52577  24.844  26.368   1.740 -0.0600  0.2092 -0.2162
 9525W        W52578  29.366  33.668   7.184  0.1191  0.4984  0.0992
 9526W        W52579  18.665  29.844  27.695  0.0967 -0.2098 -0.2098
 9527W        W52580  17.298  32.117   2.325  0.2930  0.0486  0.0491
 9528W        W52581  21.642  23.228   6.373 -0.0977  0.1962 -0.0097
 9529W        W52582  18.929   4.950  29.001  0.1097 -0.1059 -0.0715
 9530W        W52583  10.136   6.788   9.473 -0.0513  0.0663 -0.0842
 9531W        W52584  23.292   8.210  26.373 -0.0714  0.0943 -0.1705
 9532W        W52585  33.075  28.069   2.300  0.0426  0.3218 -0.2565
 9533W        W52586  20.848   2.466   9.201  0.2525  0.1516  0.1288
 9534W        W52587  15.850   5.648   9.499 -0.1592 -0.0338 -0.4037
 9535W        W52588  12.808  14.109   1.271  0.2076  0.1471  0.0000
 9536W        W52589  27.953  12.392  10.099 -0.0883  0.0420 -0.1028
 9537W        W52590  13.690  30.225  25.711 -0.3510 -0.0474 -0.4033
 9538W        W52591   5.481  27.992   7.929  0.0226 -0.1349 -0.3251
 9539W        W52592   8.819   8.542   7.851  0.0607 -0.0976 -0.1451
 9540W        W52593  22.458   3.451   9.658 -0.2709  0.3517  0.3008
 9541W        W52594  17.929  28.025   4.969  0.1179  0.2522 -0.0776
 9542W        W52595  31.588   4.242   8.484 -0.1079 -0.3025 -0.2454
 9543W        W52596  21.295  10.854   7.090 -0.1396  0.0791  0.0161
 9544W        W52597  16.158  30.098   7.292  0.4179 -0.0107 -0.3566
 9545W        W52598  13.902  32.369   4.399 -0.2703 -0.3137 -0.2283
 9546W        W52599  16.334  30.961   4.904 -0.2291 -0.2416 -0.3656
 9547W        W52600   9.015  13.226   9.171 -0.1535 -0.2416  0.0014
 9548W        W52601   9.569   5.168   9.397 -0.0379  0.1185 -0.0901
 9549W        W52602  29.322  30.784   9.239  0.1353 -0.3664  0.0223
 9550W        W52603   8.685  32.374   3.707 -0.0098 -0.0496 -0.0492
 9551W        W52604  21.116  34.684  27.736 -0.0985  0.0429 -0.1420
 9552W        W52605  20.700   8.042   4.070 -0.0334 -0.1573 -0.0006
 9553W        W52606  21.285  12.930  27.767 -0.0733 -0.0608  0.0832
 9554W        W52607   5.005   1.110  15.149 -0.1103 -0.0042 -0.1656
 9555W        W52608   0.455  16.534  17.076  0.1585  0.1605 -0.1661
 9556W        W52609  14.745   0.723  25.932 -0.3397  0.0721 -0.3193
 9557W        W52610   4.704   1.935  17.592  0.2711  0.1634 -0.1024
 9558W        W52611  17.063  23.436   2.083 -0.2277 -0.1213 -0.1517
 9559W        W52612  19.106  10.577   9.727 -0.1678 -0.3791 -0.0359
 9560W        W52613  25.655   4.468  22.393  0.1827 -0.0817  0.0702
 9561W        W52614  22.453  28.765  25.556 -0.0554  0.0617 -0.0838
 9562W        W52615  31.939  21.142  19.348  0.1716 -0.0718  0.1059
 9563W        W52616  14.501  10.366   1.878  0.1702  0.0831  0.1432
 9564W        W52617  27.848   7.848   5.747 -0.4257  0.1340 -0.0727
 9565W        W52618  20.116  11.958   3.557 -0.1411  0.1760 -0.0904
 9566W        W52619  23.789   1.884   0.995 -0.2609  0.0988 -0.0812
 9567W        W52620  21.363   2.130   4.452 -0.4271  0.1862 -0.1298
 9568W        W52621  22.993  23.291   7.429  0.1377  0.2021 -0.1448
 9569W        W52622  11.579   7.551   5.738 -0.0148  0.2003  0.1968
 9570W        W52623  15.617   4.495  20.585  0.3402 -0.0295  0.1531
 9571W        W52624  20.685  33.708  15.687 -0.1029 -0.2339 -0.2808
 9572W        W52625  18.310  10.929   8.827  0.0566  0.0141 -0.0782
 9573W        W52626  16.570   8.523  22.742 -0.0998  0.2920  0.0890
 9574W        W52627  10.404  11.532   5.136 -0.2469 -0.0909 -0.2665
 9575W        W52628   7.127   6.321   6.177  0.1073  0.1764  0.1923
 9576W        W52629   2.620  13.626  20.152  0.0186  0.1277 -0.2577
 9577W        W52630  15.588   8.701   9.457  0.1153  0.2635  0.0943
 9578W        W52631  21.649   6.954  18.469 -0.2754  0.0612 -0.0589
 9579W        W52632  20.791   3.402  19.768  0.0211 -0.0298  0.1468
 9580W        W52633  21.280   2.021   3.778  0.0495 -0.3199  0.2471
 9581W        W52634  14.182   1.170   4.796  0.1851  0.0469 -0.2316
 9582W        W52635  13.993   4.526  28.535 -0.1277  0.2015 -0.4689
 9583W        W52636  12.662   8.784  22.047 -0.0607  0.0827 -0.0375
 9584W        W52637  29.639  14.328  21.905 -0.4322 -0.1329  0.1858
 9585W        W52638  18.871  33.065   8.781 -0.0489 -0.0615  0.0848
 9586W        W52639  14.360  28.540  27.243  0.0136  0.0107  0.0444
 9587W        W52640  17.037  13.131  24.812 -0.1744 -0.1129  0.0280
 9588W        W52641  26.207  12.738  21.083  0.0250 -0.0782 -0.0830
 9589W        W52642  22.134   2.199  18.030  0.3166 -0.1365 -0.0820
 9590W        W52643  20.435   8.947   0.552  0.0992 -0.1489  0.0271
 9591W        W52644  10.668  20.907   2.304  0.1962 -0.1617 -0.0878
 9592W        W52645  12.085  18.874   9.502  0.1816  0.0107  0.0795
 9593W        W52646  20.417  10.629   4.329 -0.0372 -0.1337 -0.0603
 9594W        W52647  29.157  34.508   4.671 -0.1619  0.3097  0.0635
 9595W        W52648  17.850  33.350   2.939  0.0162 -0.3700  0.1669
 9596W        W52649  31.326   4.757  25.944  0.3370 -0.2741  0.0290
 9597W        W52650  28.194  16.112  10.237  0.3339 -0.3243  0.2192
 9598W        W52651  19.052  26.539   1.952  0.3954 -0.1363  0.0139
 9599W        W52652  15.452  27.035  25.411 -0.0752 -0.0864  0.0353
 9600W        W52653  23.163  31.155   4.730  0.3632  0.0453 -0.2927
 9601W        W52654  26.016  27.484   8.010  0.1307 -0.1497 -0.2003
 9602W        W52655  18.314  12.481   2.683  0.2245  0.0814  0.1245
 9603W        W52656  19.847   1.484   5.659 -0.1083  0.0093  0.0728
 9604W        W52657  19.457   2.273  19.253  0.0012  0.0460  0.1761
 9605W        W52658  20.662  32.707  20.107  0.0100 -0.1645  0.1758
 9606W        W52659  12.614  10.757  28.638 -0.1829  0.1489 -0.0543
 9607W        W52660  20.430  11.538   4.248 -0.1516 -0.1903  0.5352
 9608W        W52661  20.572  20.819   9.633  0.2674  0.3575 -0.0234
 9609W        W52662  26.797   3.715   9.205 -0.1357  0.0106  0.0953
 9610W        W52663  25.812  16.156   1.371 -0.1254 -0.1451 -0.1244
 9611W        W52664  13.995  15.942   6.622  0.0499  0.0613  0.3874
 9612W        W52665  12.560  34.250  18.065 -0.1802 -0.0447 -0.0500
 9613W        W52666  29.935   8.878  28.145  0.0468 -0.1155  0.1740
 9614W        W52667  22.837  14.161   4.108  0.1555  0.0266 -0.0967
 9615W        W52668  11.562   4.606   3.440  0.0485  0.2082  0.1050
 9616W        W52669  27.367   1.392   9.405 -0.0765  0.2898  0.0260
 9617W        W52670  32.638  31.018  26.539 -0.0432 -0.1172 -0.1082
 9618W        W52671  25.269  32.922  21.157  0.2103  0.0025 -0.1041
 9619W        W52672  15.987   1.801   9.980 -0.2060  0.0903 -0.1094
 9620W        W52673  10.408   7.586   6.420 -0.0118  0.4469  0.0449
 9621W        W52674  17.285  10.828   5.682 -0.0594 -0.2964  0.0940
 9622W        W52675   6.319   2.124   8.538 -0.5564 -0.0320 -0.1227
 9623W        W52676  25.683   6.396   0.759 -0.2314 -0.1522 -0.3903
 9624W        W52677  15.832  20.812   2.908  0.0379 -0.0941  0.2418
 9625W        W52678  31.450   0.087  14.648 -0.1443  0.1579 -0.1825
 9626W        W52679  32.503  29.221  20.140  0.0309  0.1732 -0.0825
 9627W        W52680  20.713   7.120   4.214  0.2059 -0.1852  0.1509
 9628W        W52681  20.694   8.193  25.602 -0.1390 -0.2942  0.0748
 9629W        W52682  19.554  13.264  13.851 -0.2137 -0.4595 -0.3254
 9630W        W52683   5.194  13.678  10.202 -0.1949 -0.3417 -0.0014
 9631W        W52684  23.204   7.183   8.840  0.0029  0.0264 -0.0638
 9632W        W52685  33.515  16.322   8.893  0.1169  0.0814  0.1663
 9633W        W52686  28.666   3.396  21.795  0.0348 -0.3065  0.3112
 9634W        W52687  27.786  13.401  18.853 -0.2089 -0.2782 -0.3656
 9635W        W52688  31.652  12.410  19.952 -0.5116 -0.2498  0.1656
 9636W        W52689  29.570  24.238  19.090  0.1074  0.1229  0.1900
 9637W        W52690   3.237  30.977  12.838  0.3324 -0.4024 -0.2500
 9638W        W52691  29.767  32.825   3.683 -0.1183  0.3159  0.2061
 9639W        W52692  30.891   0.474   8.774 -0.0847  0.2027  0.1189
 9640W        W52693  26.237  13.578   4.612 -0.0330  0.0818  0.0040
 9641W        W52694  23.636  10.575  19.863 -0.0235  0.1903  0.2919
 9642W        W52695  18.398   7.616  10.984  0.1723  0.2444 -0.0805
 9643W        W52696  33.219  23.485  19.791  0.2472 -0.0355  0.0092
 9644W        W52697   8.125  33.404   1.486 -0.2009 -0.2174 -0.2961
 9645W        W52698  18.477  16.801   3.634  0.0790  0.0948  0.1567
 9646W        W52699  18.657   1.655  22.586 -0.0599 -0.0480  0.4253
 9647W        W52700   0.650  26.000   8.151  0.3129 -0.1483  0.4190
 9648W        W52701  28.139  16.164   0.595  0.3284 -0.0226  0.2901
 9649W        W52702  22.397  12.595   7.449 -0.1549  0.0391 -0.0381
 9650W        W52703  14.942   9.613   4.720 -0.0688 -0.0311  0.2711
 9651W        W52704  26.685   5.112  14.504  0.0810  0.1238  0.0415
 9652W        W52705  16.136  12.533   1.144  0.3585  0.0609 -0.2791
 9653W        W52706   7.426  15.496   8.881 -0.1472  0.3196 -0.2145
 9654W        W52707  19.098  12.305  19.546  0.3367 -0.2195 -0.0142
 9655W        W52708   0.644   6.318   3.981 -0.2030  0.1595  0.1366
 9656W        W52709  22.074  27.687  20.816 -0.0261  0.2553  0.0885
 9657W        W52710   8.185  14.644   7.171  0.4040 -0.0633 -0.1377
 9658W        W52711  11.652  11.599   3.688 -0.2648  0.1605  0.2187
 9659W        W52712  21.166  13.218   6.933 -0.3327 -0.1705 -0.0517
 9660W        W52713  11.989  12.480  27.240 -0.2554 -0.0916  0.0948
 9661W        W52714  16.361  12.518   0.015 -0.2528 -0.0100  0.0741
 9662W        W52715  26.653   6.945   8.182 -0.0223  0.2990  0.3563
 9663W        W52716  31.190  31.687   8.589 -0.2017  0.2247  0.0775
 9664W        W52717   3.495   4.667   4.213 -0.0759 -0.1557  0.0346
 9665W        W52718  26.174  10.673  18.272  0.0204 -0.0542  0.1674
 9666W        W52719  22.524   6.271   8.533  0.1360 -0.2501  0.1068
 9667W        W52720  32.780  20.188  24.538 -0.0485  0.0627 -0.2057
 9668W        W52721  19.186  12.731  28.005  0.3154 -0.0686 -0.1337
 9669W        W52722  23.401   4.255   9.038 -0.2099  0.1048 -0.3087
 9670W        W52723  24.173  17.030   9.588 -0.0274  0.0724  0.2492
 9671W        W52724  26.180   8.823  24.960  0.1451 -0.0010 -0.1975
 9672W        W52725  22.526   5.315  20.814 -0.1217 -0.1198  0.0276
 9673W        W52726   2.048   6.041  23.262 -0.0535 -0.0244  0.0705
 9674W        W52727  26.702   9.785   2.463  0.1191 -0.3127 -0.4509
 9675W        W52728   8.794   5.815   2.993  0.3067 -0.5716  0.2020
 9676W        W52729  18.377   1.947   8.056 -0.1837 -0.0130 -0.0281
 9677W        W52730  19.670  13.292  25.336  0.0361 -0.3437 -0.3034
 9678W        W52731   6.254  28.416  28.840 -0.1199 -0.1159  0.2342
 9679W        W52732  15.356   7.376   0.749 -0.2103  0.1483  0.1951
 9680W        W52733  32.944   4.446   5.024 -0.0502  0.2013 -0.1327
 9681W        W52734  22.087   9.860   5.247 -0.2257 -0.4411 -0.0779
 9682W        W52735  21.501   9.422  15.419 -0.0014 -0.0690 -0.2217
 9683W        W52736  10.799  26.872  20.135  0.4893  0.2593  0.2749
 9684W        W52737  19.034  22.568  19.133 -0.0144 -0.0797 -0.3200
 9685W        W52738  23.610  21.414   2.598 -0.0644 -0.0918 -0.0022
 9686W        W52739  11.853  10.680   8.113  0.1526  0.1320 -0.1409
 9687W        W52740  23.028  16.153  29.191 -0.0725 -0.0795 -0.1197
 9688W        W52741  13.039  30.433   6.353 -0.1733 -0.0688 -0.1113
 9689W        W52742  20.202   4.949   1.253 -0.1049 -0.0477 -0.1153
 9690W        W52743  34.631   9.751  27.369 -0.2200  0.1239  0.2667
 9691W        W52744   2.336   2.902  14.916  0.0325 -0.0834  0.0188
 9692W        W52745  24.082   1.612   9.892  0.0729  0.0745  0.3510
 9693W        W52746  25.259  11.155   4.186 -0.2827 -0.1976  0.0902
 9694W        W52747  18.327   0.338   6.206  0.2522 -0.3376  0.0692
 9695W        W52748  16.609  29.993   4.689 -0.0133 -0.3839  0.0905
 9696W        W52749  19.423  27.984  16.524  0.0278 -0.4580  0.1256
 9697W        W52750  20.885  18.605   5.285  0.0379  0.1694 -0.1046
 9698W        W52751  18.677  15.299   0.893  0.3379  0.1458 -0.3421
 9699W        W52752   7.795  16.926   2.470 -0.0228 -0.3458 -0.1133
 9700W        W52753  20.913  33.789   6.107 -0.1213 -0.0466 -0.0803
 9701W        W52754  15.487   5.093  19.321  0.0231 -0.0432 -0.3821
 9702W        W52755   0.070  31.910  20.660  0.0482 -0.0600 -0.2079
 9703W        W52756  19.410   3.276  28.671 -0.1900 -0.0543  0.0234
 9704W        W52757   1.072  29.944   3.812  0.2959 -0.1244 -0.0009
 9705W        W52758  12.661   4.922   8.442 -0.2295 -0.1828 -0.0136
 9706W        W52759  18.052   8.268   7.488  0.3126  0.2902 -0.3659
 9707W        W52760  23.155   1.031  21.669 -0.2504  0.2236  0.1118
 9708W        W52761  28.294   9.452   7.602 -0.1611 -0.2333 -0.1246
 9709W        W52762   4.280   8.629  19.827 -0.1690  0.1670  0.0539
 9710W        W52763  30.029   8.152   8.211 -0.0256  0.4408  0.1001
 9711W        W52764  16.493  19.713   8.905  0.2317 -0.1247 -0.1328
 9712W        W52765  31.433   9.694   2.105 -0.1574  0.1167 -0.0869
 9713W        W52766  25.655   8.893   3.632 -0.1845 -0.0204  0.0418
 9714W        W52767  31.247  22.741  18.322 -0.2607  0.0028  0.0133
 9715W        W52768  18.248  20.266   9.041  0.1674  0.0291 -0.0302
 9716W        W52769   4.558  18.666  26.156 -0.0724  0.2556 -0.2309
 9717W        W52770   8.521  30.057  26.793 -0.1125  0.3518  0.2650
 9718W        W52771  19.084   7.986   8.890 -0.0681 -0.3985 -0.1576
 9719W        W52772   5.398  14.678   5.900 -0.0355 -0.0822 -0.2492
 9720W        W52773   6.525   1.433   5.128 -0.0571 -0.1680 -0.0703
 9721W        W52774   9.548  26.878  25.513 -0.1379  0.0070  0.1269
 9722W        W52775  25.346  10.297   5.051  0.1117  0.0497  0.0138
 9723W        W52776  11.082  18.087  23.975 -0.2355 -0.1089 -0.2081
 9724W        W52777  28.141   3.751   7.549  0.3353 -0.4211  0.1094
 9725W        W52778  12.653   3.762  27.406 -0.0733 -0.2975  0.0615
 9726W        W52779  13.759   6.306   1.051  0.3943  0.1931 -0.0015
 9727W        W52780  16.797  25.153  15.173 -0.3510  0.0521  0.0886
 9728W        W52781  34.314  12.452   3.185  0.2681  0.3419  0.2276
 9729W        W52782   3.856  25.738   6.742 -0.2425  0.3146 -0.0432
 9730W        W52783  18.842  23.103  25.970 -0.2638 -0.0799  0.1909
 9731W        W52784  26.709  17.090   9.807  0.0694  0.0044 -0.0195
 9732W        W52785  22.995  16.318  19.014  0.1457  0.1758  0.0040
 9733W        W52786  10.634  13.915   6.123  0.0114  0.3674  0.1089
 9734W        W52787  27.496   4.352   8.471 -0.1585 -0.1555  0.1360
 9735W        W52788  28.236   7.930  25.244 -0.0415 -0.3195  0.1410
 9736W        W52789  16.367  14.716  27.172 -0.0808  0.0695  0.3367
 9737W        W52790   3.929  27.706  15.033 -0.1149 -0.1214  0.1277
 9738W        W52791  29.060   6.030  26.788 -0.2384 -0.4219  0.1808
 9739W        W52792  16.074   8.871   5.035 -0.3973 -0.0078 -0.0664
 9740W        W52793  24.051  13.404   8.734 -0.0463 -0.0914 -0.0097
 9741W        W52794   9.786  23.803   0.369 -0.0938 -0.5136 -0.0649
 9742W        W52795  23.809  32.176   7.753  0.2282 -0.3137  0.1060
 9743W        W52796  25.363   5.171  18.411 -0.0367 -0.2926  0.1554
 9744W        W52797  17.941   0.040   9.871  0.1066 -0.2198 -0.1950
 9745W        W52798  28.515   3.051   4.957  0.2627  0.0549 -0.0896
 9746W        W52799  26.842   3.871  17.725  0.1365 -0.0645  0.3027
 9747W        W52800  32.314  14.941  16.044 -0.1453 -0.2195  0.1181
 9748W        W52801   6.580   3.364  25.875  0.2239  0.2008  0.4960
 9749W        W52802  20.675  33.444   2.869 -0.1588 -0.0949 -0.1984
 9750W        W52803   8.164   3.889  25.029  0.0427 -0.0732 -0.0065
 9751W        W52804  28.646   8.816  10.442  0.0184  0.1601 -0.0818
 9752W        W52805  10.614   6.167   3.861 -0.0614  0.0669  0.1806
 9753W        W52806  21.389   7.939  15.427  0.0701 -0.3304 -0.4153
 9754W        W52807  17.397  26.044  27.632  0.0597  0.0142 -0.0367
 9755W        W52808  21.657   5.597   7.797 -0.1330 -0.1001 -0.0205
 9756W        W52809  14.581   1.515  18.681  0.0303  0.2142 -0.2787
 9757W        W52810  23.403   7.878   0.476 -0.0642 -0.1038  0.0058
 9758W        W52811  19.772  33.671   6.198 -0.0434  0.0981  0.0568
 9759W        W52812  22.242  27.760   0.656  0.0703  0.1125  0.1279
 9760W        W52813  29.873   0.977   2.091 -0.2025 -0.0579 -0.0448
 9761W        W52814   4.332  24.692   7.681 -0.0601 -0.0329 -0.3396
 9762W        W52815  13.305   2.249   9.536 -0.0923 -0.2328  0.1148
 9763W        W52816  22.430  12.184  28.299  0.1028 -0.0588 -0.2303
 9764W        W52817  16.685  30.466  27.251 -0.1094 -0.1330 -0.0425
 9765W        W52818  21.264  27.294   5.761 -0.2186 -0.0966 -0.1271
 9766W        W52819   2.207  29.786  25.948 -0.3307  0.2207 -0.2134
 9767W        W52820   1.708   6.583  15.463  0.2248  0.2369  0.2411
 9768W        W52821  21.698   6.191  26.964  0.1414  0.0338 -0.0364
 9769W        W52822  30.874  14.523  23.878 -0.4044  0.1091 -0.3009
 9770W        W52823  26.152  16.678  19.677 -0.2255 -0.2503  0.0714
 9771W        W52824  22.704  16.858  19.133  0.0077  0.0601  0.1345
 9772W        W52825   0.147   2.351  22.506 -0.2601  0.6877  0.3943
 9773W        W52826  23.157  17.437   0.871 -0.0748  0.1979  0.0223
 9774W        W52827  26.338   5.735  26.082  0.1847 -0.1886 -0.1250
 9775W        W52828   4.214  13.368  24.171 -0.0145 -0.0857 -0.3371
 9776W        W52829  16.815  29.090   3.452 -0.2621 -0.2213  0.0790
 9777W        W52830  30.235  15.410  19.143 -0.3061  0.0544 -0.0305
 9778W        W52831  21.221  28.677   1.911  0.1305 -0.1756  0.1408
 9779W        W52832  21.451  22.129   8.323 -0.0548  0.1569  0.0701
 9780W        W52833  32.105  13.508  27.654  0.1156 -0.0636  0.1719
 9781W        W52834  16.730   4.095  28.683 -0.0391 -0.0699  0.2028
 9782W        W52835  25.553  16.083   8.955 -0.1799  0.0750  0.2575
 9783W        W52836  30.577  13.134  13.971 -0.4511  0.3480  0.0053
 9784W        W52837  30.181   4.819   3.180 -0.1654 -0.1762 -0.2557
 9785W        W52838  21.302   3.623  23.738 -0.0397  0.0558  0.1225
 9786W        W52839  24.228  15.422  28.218  0.0700  0.1123  0.2261
 9787W        W52840  28.807  19.603   8.315  0.3352 -0.1065  0.3429
 9788W        W52841  21.146   7.096   7.373  0.0087 -0.0960  0.2946
 9789W        W52842  28.087  23.694   6.211 -0.1396 -0.1021  0.0959
 9790W        W52843  21.543   2.546   0.644 -0.0834  0.1939 -0.3141
 9791W        W52844   3.051  33.165  24.688 -0.0803 -0.0045 -0.1214
 9792W        W52845  18.272  30.022   3.461  0.1734 -0.0494 -0.0210
 9793W        W52846  32.403   6.195  23.487 -0.1124 -0.1559 -0.1577
 9794W        W52847  15.359  31.093   2.849 -0.0260 -0.1373  0.1369
 9795W        W52848  18.577  31.733  27.356 -0.1727  0.3083 -0.0900
 9796W        W52849  25.800  10.272  16.465 -0.0139  0.3009 -0.0424
 9797W        W52850  27.896  11.155  24.866  0.2823  0.2537 -0.2159
 9798W        W52851  26.400   6.428   7.415  0.0912 -0.0215  0.1883
 9799W        W52852  13.983   1.159  21.666  0.1339 -0.0974 -0.1756
 9800W        W52853  28.346  13.757   9.193 -0.0081  0.2013 -0.0592
 9801W        W52854  10.788  28.074  24.982 -0.0052  0.1348 -0.0281
 9802W        W52855  22.158  16.186   1.322  0.0723 -0.1011 -0.1283
 9803W        W52856  20.795   4.578   0.834 -0.2789  0.1072  0.2639
 9804W        W52857  20.006   9.770   0.646  0.0901  0.1653 -0.4042
 9805W        W52858  23.708  20.703  15.954 -0.0278  0.0991  0.1273
 9806W        W52859   4.072  20.019   6.190 -0.0852  0.2917  0.1578
 9807W        W52860  15.834  15.379   8.365  0.2122 -0.0388 -0.1001
 9808W        W52861  13.914   9.227  17.608  0.0427 -0.1650  0.0940
 9809W        W52862  13.140  19.322  15.093  0.1435 -0.3112 -0.1182
 9810W        W52863   9.460  30.865  26.118 -0.2333 -0.2865  0.3127
 9811W        W52864  14.981   1.684  25.931 -0.2014 -0.0864 -0.3012
 9812W        W52865   5.986  32.847  28.226  0.0939  0.2937  0.1575
 9813W        W52866  24.560   7.332   9.175 -0.1198 -0.1103  0.0373
 9814W        W52867  10.232  32.557   4.205  0.1791  0.2254  0.3241
 9815W        W52868  26.197   4.701   1.236 -0.1355 -0.0586  0.2583
 9816W        W52869  33.819   8.924  27.968 -0.1366  0.0533 -0.0422
 9817W        W52870  27.377  11.754  20.546 -0.3235 -0.1048  0.2253
 9818W        W52871  33.524   5.127   8.376 -0.0697  0.1129 -0.0941
 9819W        W52872  14.974  14.667   5.879 -0.1345  0.0931 -0.3427
 9820W        W52873   0.719   9.301  17.591  0.3322  0.1018 -0.1122
 9821W        W52874  28.408   6.303  19.212  0.1135 -0.0575 -0.3418
 9822W        W52875   6.802  23.792   0.130 -0.4613 -0.4865  0.2665
 9823W        W52876   6.617   3.314  17.261 -0.0462 -0.1122 -0.1535
 9824W        W52877  18.955  15.971   0.770  0.1111  0.1873  0.2827
 9825W        W52878   0.875   8.282  21.298 -0.2193 -0.1030  0.0552
 9826W        W52879  31.581   9.926  17.790  0.2789  0.1687  0.0511
 9827W        W52880  34.623  12.707   5.340 -0.1191 -0.3455  0.2142
 9828W        W52881  28.269  10.409   2.067  0.1390  0.0839 -0.0028
 9829W        W52882  25.847   5.200  19.726 -0.1380  0.0661  0.0175
 9830W        W52883  13.558   6.259   4.602 -0.2552  0.2509 -0.0175
 9831W        W52884  18.265  10.458  17.144 -0.1917 -0.2104 -0.3836
 9832W        W52885  21.678  15.472   0.572  0.1433  0.3447  0.3249
 9833W        W52886  19.265   9.969  19.363  0.1511 -0.0209 -0.1674
 9834W        W52887  26.423  29.679  24.907  0.1453 -0.2305 -0.3161
 9835W        W52888  10.259  18.925   9.262 -0.0795 -0.1199 -0.0192
 9836W        W52889  18.941  34.432   8.352 -0.0435 -0.0462  0.3193
 9837W        W52890  29.824   8.079  16.568  0.1105  0.0299  0.1373
 9838W        W52891  32.929  15.620   2.797  0.3020  0.0976  0.1037
 9839W        W52892  25.907   1.442   1.974 -0.3474 -0.1636 -0.0588
 9840W        W52893   1.909  11.423  28.144  0.1235  0.2477 -0.0543
 9841W        W52894  20.313  11.899   6.787 -0.2468 -0.0025  0.2647
 9842W        W52895  13.440   9.974  23.730 -0.2831  0.1752 -0.0284
 9843W        W52896  11.362   8.700  18.698 -0.0306 -0.3402  0.0020
 9844W        W52897  24.593   2.366  26.867 -0.0738  0.1032  0.3736
 9845W        W52898  32.872   9.862  17.289  0.2189  0.3134  0.0861
 9846W        W52899  26.016   8.573  24.071  0.3254  0.0005  0.0980
 9847W        W52900  17.195  15.429  26.929 -0.0949  0.0473 -0.0925
 9848W        W52901   8.619   9.837  28.634 -0.2298  0.2242  0.0364
 9849W        W52902   9.601  21.736  27.057 -0.0473  0.1129  0.3022
 9850W        W52903  25.820   0.665  18.913  0.3285 -0.0621 -0.3030
 9851W        W52904  30.485  11.126   2.731  0.1182  0.4882 -0.1572
 9852W        W52905  33.909  32.682   3.903 -0.4749 -0.0000 -0.1129
 9853W        W52906  21.176  23.066   7.692 -0.2328 -0.0511  0.1938
 9854W        W52907  20.946   2.596  24.644 -0.1236  0.1870 -0.1569
 9855W        W52908  16.339  29.229  14.597 -0.2235 -0.1348  0.2613
 9856W        W52909  30.824   4.983   6.135 -0.2556  0.0223  0.3065
 9857W        W52910  21.353   5.548   1.409 -0.2651 -0.0331 -0.0855
 9858W        W52911  28.073   5.702   5.086 -0.0075 -0.0353  0.0570
 9859W        W52912  19.509  11.133  20.050 -0.0544  0.0298 -0.0326
 9860W        W52913  23.520   5.570   6.291  0.0920  0.0948  0.1202
 9861W        W52914   8.188   2.046  16.839 -0.1703 -0.1507 -0.3401
 9862W        W52915  25.791  15.314  24.189 -0.0096  0.1036  0.0745
 9863W        W52916  20.699   8.519  20.820  0.1084  0.1119  0.1112
 9864W        W52917  13.822  12.791   3.313 -0.1833  0.1841 -0.4098
 9865W        W52918  10.284   3.396  25.315 -0.0647  0.1157  0.1404
 9866W        W52919  17.221   2.751   5.260 -0.3823 -0.2862  0.3504
 9867W        W52920  10.628   3.663   4.884  0.2156  0.1459  0.0615
 9868W        W52921  21.836  10.657  18.042 -0.0247  0.0961 -0.2587
 9869W        W52922  15.787  30.388  24.413 -0.0536  0.0567  0.2181
 9870W        W52923  23.327   0.996   6.408 -0.0750  0.1319 -0.1886
 9871W        W52924  26.322   4.758  24.536  0.1830  0.0735 -0.0512
 9872W        W52925  17.074  16.129   2.283  0.0763  0.0019 -0.0076
 9873W        W52926  13.541   8.878   0.216  0.1336 -0.1828 -0.1641
 9874W        W52927  20.917  12.629   9.513 -0.0960  0.0685  0.2674
 9875W        W52928  22.231  34.602  28.997 -0.0752 -0.0721  0.0870
 9876W        W52929  23.070   7.610   9.584 -0.0006  0.2396 -0.0174
 9877W        W52930  18.699   3.238  28.761  0.4605  0.1398 -0.3023
 9878W        W52931  17.376  30.021  29.035 -0.0916  0.1202 -0.1572
 9879W        W52932  28.112  13.815  18.724 -0.1993  0.0950  0.2812
 9880W        W52933  33.098  14.329   6.442  0.1368  0.0112 -0.1575
 9881W        W52934  10.023  12.392  25.391  0.0098 -0.1082 -0.1595
 9882W        W52935  15.323   8.057  17.290 -0.2404 -0.1266  0.3224
 9883W        W52936  10.031  11.217   4.975  0.2830  0.0040 -0.6032
 9884W        W52937  29.568   5.448   5.989 -0.1992 -0.1260  0.0066
 9885W        W52938  15.326   8.029  27.084 -0.2412  0.0277 -0.1821
 9886W        W52939  34.576  11.720  16.468  0.0215 -0.3332  0.2774
 9887W        W52940  28.444  20.270  26.232  0.2442  0.1035 -0.1931
 9888W        W52941  30.705   7.219   9.077 -0.2070 -0.0163  0.1288
 9889W        W52942  17.693  33.492   3.420  0.0980 -0.1351  0.1368
 9890W        W52943   9.521  17.884   3.398  0.2804 -0.1512 -0.3824
 9891W        W52944  21.620  10.993  15.882  0.1147  0.0340 -0.1298
 9892W        W52945  12.343  23.573  19.154  0.1699 -0.2151  0.0527
 9893W        W52946  15.452   8.958   3.700 -0.1393 -0.0012  0.1213
 9894W        W52947  18.526   4.150  25.055  0.1523 -0.0120  0.1555
 9895W        W52948  20.220  14.045  26.312  0.1103  0.0254  0.2775
 9896W        W52949  25.457  23.616   8.391 -0.2431 -0.2594 -0.2566
 9897W        W52950  22.382  29.456  24.191  0.1329 -0.2313 -0.0501
 9898W        W52951  10.940   9.686  19.595 -0.1814  0.1104  0.0042
 9899W        W52952  26.635  12.610   6.105  0.2846  0.2000  0.2991
 9900W        W52953  26.840  15.794   2.455  0.0149 -0.4407  0.1603
 9901W        W52954  23.452  11.480   5.970  0.0041  0.0842  0.1480
 9902W        W52955   2.771   4.225   5.281  0.0859  0.1714  0.4152
 9903W        W52956  25.936  26.814   1.677  0.0504  0.0069  0.0408
 9904W        W52957  20.743   9.407   1.452 -0.2204 -0.0771 -0.1057
 9905W        W52958  29.954  22.283   5.860 -0.0389 -0.2831  0.2012
 9906W        W52959  13.612  32.515  28.665  0.0591  0.1435 -0.2552
 9907W        W52960  21.043  10.578  23.688 -0.0702  0.3190 -0.2733
 9908W        W52961  16.818  17.208  13.899  0.0206 -0.1424 -0.3436
 9909W        W52962   3.633  31.810  13.047  0.1759 -0.2844 -0.0494
 9910W        W52963  19.889  22.848   3.656  0.0913 -0.4446 -0.0304
 9911W        W52964  20.950   9.945  24.698  0.0631 -0.1071  0.0052
 9912W        W52965  32.162   7.107   9.827 -0.0259  0.2032  0.0095
 9913W        W52966  22.806   5.776   1.922 -0.2052  0.0077  0.1226
 9914W        W52967  21.938  28.088  28.958  0.0903  0.0383 -0.5269
 9915W        W52968   6.664   6.970  10.438  0.1587  0.0155 -0.0402
 9916W        W52969  25.615  16.628   5.753 -0.0057 -0.0538  0.3740
 9917W        W52970   8.762  30.765  13.590  0.1267  0.1301  0.0539
 9918W        W52971  24.608  22.338  25.558  0.1190  0.3747  0.0919
 9919W        W52972   2.316   1.774   7.484  0.0228 -0.1480 -0.0162
 9920W        W52973  31.067  11.767   6.125 -0.2102  0.0161 -0.2762
 9921W        W52974  27.354   9.918  15.355  0.0559 -0.1644 -0.2643
 9922W        W52975   7.231   1.765  23.805  0.3027  0.1075 -0.0849
 9923W        W52976   4.672  32.081  29.019  0.1282  0.1049 -0.0904
 9924W        W52977  29.378  10.340   4.009 -0.2459  0.0352 -0.3914
 9925W        W52978  15.967  20.138  15.856  0.2760  0.1523 -0.0009
 9926W        W52979  14.591   1.734  10.093  0.0904  0.1153 -0.1568
 9927W        W52980  20.325  12.218  28.332  0.0401  0.3680 -0.1389
 9928W        W52981  15.950   6.831   3.021 -0.1949 -0.0192  0.3203
 9929W        W52982  28.443  26.737   2.036 -0.1405 -0.0204 -0.0959
 9930W        W52983  13.852   6.347  14.809  0.0443 -0.0445  0.1265
 9931W        W52984  21.241   9.540  16.019  0.0847  0.2328 -0.1892
 9932W        W52985   9.001  31.505   5.212 -0.1906  0.2387 -0.1903
 9933W        W52986  18.763  33.093   4.351 -0.3825  0.1078  0.0174
 9934W        W52987  21.752  13.081   3.150 -0.0953  0.0414 -0.1713
 9935W        W52988  14.385  31.425  26.486  0.0889 -0.1199  0.2340
 9936W        W52989  11.156  24.128   8.280  0.1739 -0.1025  0.0609
 9937W        W52990  11.115   1.694   7.706 -0.2834 -0.1256  0.1759
 9938W        W52991  30.859   3.396  22.996 -0.0573 -0.0890 -0.1077
 9939W        W52992   3.009  14.951  28.841  0.5131 -0.1189  0.1749
 9940W        W52993   7.420  10.258   5.264 -0.2210  0.0451 -0.0150
 9941W        W52994  17.381   5.718   1.082 -0.0057  0.0426 -0.0398
 9942W        W52995  20.164   1.733  21.869  0.1718  0.0215 -0.1281
 9943W        W52996  26.246  27.131   7.612  0.1509  0.4832 -0.0931
 9944W        W52997   0.771  26.840   3.039 -0.2154 -0.2556  0.0430
 9945W        W52998  25.659   7.663  18.510  0.0824 -0.2181  0.1682
 9946W        W52999  12.227  10.165   0.965 -0.0556  0.0208  0.1447
 9947W        W53000  32.683   9.727   9.754 -0.1538 -0.0551  0.2192
 9948W        W53001  14.646   8.781  25.090 -0.1455  0.2618 -0.1063
 9949W        W53002   9.846  17.731  15.199  0.1719  0.0463  0.0479
 9950W        W53003  23.581  10.012   7.602  0.0774 -0.1362 -0.0466
 9951W        W53004  15.239  15.823   2.199  0.0858  0.2456  0.0558
 9952W        W53005   8.493  12.101   8.507  0.1088 -0.0059  0.2047
 9953W        W53006  16.120  20.430  24.755 -0.0068 -0.0343  0.1762
 9954W        W53007  14.650   2.353   1.603 -0.0537 -0.3323 -0.1124
 9955W        W53008   4.487   4.085   0.855 -0.0987 -0.1825 -0.0002
 9956W        W53009   7.107  24.655  21.753 -0.0472  0.2176  0.0933
 9957W        W53010  15.490  22.039   6.999  0.0322 -0.1164 -0.3438
 9958W        W53011  16.675  11.427  25.041  0.2032 -0.3302  0.3111
 9959W        W53012  22.885  17.500  21.915 -0.2498 -0.3536  0.0837
 9960W        W53013  20.923  25.122   4.886  0.1718 -0.1552 -0.0987
 9961W        W53014  32.497   1.445   2.739  0.2891 -0.0980 -0.0030
 9962W        W53015  16.409   1.608   4.542  0.0117 -0.0952  0.1486
 9963W        W53016  16.021  14.162   9.269  0.1336  0.1492 -0.1634
 9964W        W53017  16.772  34.243  28.970  0.0107 -0.0215  0.0895
 9965W        W53018   7.728  11.796  10.454 -0.2268  0.0187 -0.1358
 9966W        W53019  15.891  11.161  17.091  0.0185  0.2355 -0.3813
 9967W        W53020  10.182  20.156   8.630  0.2682 -0.1519 -0.2453
 9968W        W53021  16.155  14.476   8.894 -0.0872 -0.3138 -0.1638
 9969W        W53022  13.776  11.192   4.543  0.0920  0.3064  0.2558
 9970W        W53023  11.811  31.659   6.537  0.2171  0.1109 -0.1727
 9971W        W53024  15.640  30.158  24.957 -0.1998  0.1080 -0.2106
 9972W        W53025  29.668  29.414  10.662 -0.2904  0.1036 -0.1255
 9973W        W53026  23.381  13.722  22.795 -0.1222 -0.1294  0.0322
 9974W        W53027   7.445  25.615  25.029 -0.0569  0.0080 -0.3043
 9975W        W53028  19.692  18.088   4.238 -0.0578  0.1016 -0.0294
 9976W        W53029   7.621   6.970   8.876  0.1013  0.2063 -0.1594
 9977W        W53030  14.251   0.131   9.100 -0.1571  0.0130  0.0109
 9978W        W53031  19.574  22.193   9.561 -0.1107 -0.2809 -0.0754
 9979W        W53032  24.268   9.650   5.762 -0.1459  0.2877  0.2659
 9980W        W53033  19.406  20.221  15.270 -0.2650  0.1336 -0.1019
 9981W        W53034  25.261  28.923   3.728 -0.2436 -0.4123 -0.1209
 9982W        W53035  32.920  13.511   1.952 -0.3876 -0.6010 -0.2611
 9983W        W53036   0.386  31.203  18.859 -0.0032 -0.0213  0.3288
 9984W        W53037  11.589  17.214   4.488  0.0634 -0.0710 -0.0991
 9985W        W53038   1.974   4.748   3.769 -0.2194 -0.1788 -0.5719
 9986W        W53039  26.741   4.240   9.438  0.1000  0.4427  0.2020
 9987W        W53040  20.201  18.034   9.001  0.0436 -0.0202  0.0745
 9988W        W53041   9.719  13.986  27.133  0.0805 -0.4617 -0.2606
 9989W        W53042  18.259   7.115   8.451 -0.2642  0.2346  0.1072
 9990W        W53043  18.725   5.704   5.001  0.1842 -0.1478 -0.1315
 9991W        W53044  21.719   6.998   1.951  0.1665 -0.2953 -0.3632
 9992W        W53045  20.022  13.623  25.225 -0.1279  0.0204  0.0577
 9993W        W53046  24.685   9.761   6.749  0.3435 -0.0717 -0.1692
 9994W        W53047  22.958  11.676   2.753  0.3424  0.3312  0.0186
 9995W        W53048  25.889  32.015   6.214  0.1138  0.4228 -0.1410
 9996W        W53049  11.395  27.681   4.693  0.0870  0.2135  0.1200
 9997W        W53050  32.213  34.216   7.648 -0.2216 -0.0824 -0.3080
 9998W        W53051  28.568  11.453   3.853  0.0367  0.2311  0.1240
 9999W        W53052  26.164   4.327   1.701  0.1594 -0.2686  0.0443
10000W        W53053  15.854  14.855   8.691  0.2481 -0.0625  0.1210
10001W        W53054  26.324  29.205  25.236  0.1056  0.1405 -0.0658
10002W        W53055  26.223  15.624  28.481 -0.5376  0.1631 -0.0908
10003W        W53056  14.351   3.394   4.215 -0.0613 -0.2033 -0.0838
10004W        W53057   7.696   3.501   8.869 -0.1472  0.2259  0.1799
10005W        W53058  19.955  10.559  10.284  0.3554 -0.3245  0.1432
10006W        W53059   3.988   0.842   1.348  0.2865 -0.0243  0.5420
10007W        W53060  17.597  28.567  28.517 -0.0192 -0.0498  0.1274
10008W        W53061  33.149   1.129   2.221  0.2656 -0.0506 -0.0703
10009W        W53062  29.851  23.403   0.500 -0.3310 -0.2489  0.0769
10010W        W53063  23.017   7.388  21.172  0.0112  0.0281  0.1424
10011W        W53064   3.436  32.002   4.619 -0.0696 -0.0886 -0.2800
10012W        W53065  18.988  18.819   4.611  0.0140  0.1201  0.1581
10013W        W53066  22.357  30.983   1.072 -0.2226 -0.0328  0.2595
10014W        W53067  12.040  15.233   0.852 -0.0260 -0.2869 -0.0711
10015W        W53068  34.617  31.106   3.198 -0.2183  0.2735  0.1441
10016W        W53069  24.368  31.895  27.739  0.2675  0.4211 -0.1812
10017W        W53070  22.147  25.300   3.143  0.0809 -0.0262  0.0830
10018W        W53071  29.181   8.298   1.303  0.0905 -0.0551 -0.0414
10019W        W53072  19.653  29.783  21.014  0.0660 -0.1328  0.0805
10020W        W53073  15.233  12.116   3.622 -0.0200 -0.1089  0.1562
10021W        W53074  11.945   1.024  17.708  0.1050  0.0577  0.0393
10022W        W53075  24.242  14.112   9.307 -0.2289 -0.1165 -0.1742
10023W        W53076  19.886   1.294   6.222 -0.1625  0.1439  0.0729
10024W        W53077   1.029   7.029   6.092  0.1564  0.3779  0.1215
10025W        W53078  12.865  22.326   1.381  0.0739  0.0578 -0.2574
10026W        W53079  24.681  15.401   4.800  0.2238 -0.0395  0.1804
10027W        W53080   3.161   9.491  28.826 -0.1058  0.2880  0.0360
10028W        W53081  26.945   1.663  26.415 -0.2423  0.2518  0.1163
10029W        W53082  25.970   5.802  22.296 -0.2660 -0.5750 -0.0884
10030W        W53083  17.592  11.565   1.939  0.1424 -0.0231 -0.0319
10031W        W53084  23.954  18.766   7.357  0.1460 -0.0319 -0.1149
10032W        W53085  13.475   4.260  28.193  0.1645  0.1199  0.0008
10033W        W53086  19.639  28.615   7.244 -0.2596  0.0921 -0.1829
10034W        W53087  15.527   8.177   9.308 -0.0183  0.2025 -0.1632
10035W        W53088  26.394  32.920   4.616  0.3778 -0.2343  0.2503
10036W        W53089  30.748   6.916   2.922  0.0994  0.0491 -0.1739
10037W        W53090  21.184  30.495  21.896  0.2005  0.0791  0.1519
10038W        W53091  26.499   7.539   9.678 -0.1098  0.0171 -0.0937
10039W        W53092  31.440   0.848   2.160 -0.3215  0.2187  0.1235
10040W        W53093   8.755   7.042   9.642  0.0122 -0.2613 -0.1849
10041W        W53094  23.840  14.779   6.817 -0.0964  0.0531  0.2013
10042W        W53095   9.781  16.584  26.439  0.2262  0.1787  0.0351
10043W        W53096   2.579  15.721  29.145 -0.2298  0.1433  0.0664
10044W        W53097  16.742  27.260  20.741  0.1887  0.1444 -0.2509
10045W        W53098  32.996  31.462  25.852 -0.0377  0.3197  0.0983
10046W        W53099  25.776  11.516   9.038  0.1990  0.5548 -0.0211
10047W        W53100  24.248  20.452  28.730 -0.1674 -0.1237  0.0353
10048W        W53101  34.331  23.521  27.104 -0.0820 -0.0096 -0.2207
10049W        W53102  12.863  14.829   3.913 -0.0119 -0.0434  0.0705
10050W        W53103  33.258   8.657   8.217  0.1342 -0.1014 -0.1100
10051W        W53104  24.619  29.251  10.009 -0.0753  0.0948  0.1307
10052W        W53105   5.784   9.417   7.258 -0.1573  0.2132  0.0142
10053W        W53106  31.823  33.423   0.074 -0.1240 -0.0176  0.0724
10054W        W53107  25.022  21.290   8.260 -0.1812 -0.0517 -0.0010
10055W        W53108  12.031  12.339   5.678 -0.0093 -0.1968 -0.1011
10056W        W53109  17.749   9.425   4.472  0.0564 -0.1896  0.5244
10057W        W53110  22.603   7.431   8.253  0.0659 -0.3632 -0.1614
10058W        W53111  19.153  10.674   7.033  0.0317  0.1206 -0.0622
10059W        W53112  15.563  24.057   1.643  0.2109  0.2362  0.4511
10060W        W53113   4.201   0.870  27.862  0.3991  0.2147 -0.1936
10061W        W53114  28.187  27.784   7.623 -0.2687  0.0138  0.0793
10062W        W53115  24.391   7.661   6.964 -0.0255 -0.3280 -0.4396
10063W        W53116  11.316  31.225   0.836  0.1062  0.0944 -0.0282
10064W        W53117  26.941  12.076  10.221  0.0383 -0.1442  0.0820
10065W        W53118  18.788   5.398   7.209 -0.2051 -0.1598  0.1063
10066W        W53119  11.930   3.110   1.246 -0.0806  0.1165  0.3009
10067W        W53120  22.147   5.237   9.335  0.0955  0.0051  0.1204
10068W        W53121  31.983  29.082   9.236  0.1645 -0.1493  0.3791
10069W        W53122  17.454   4.242   7.265 -0.0773  0.2833  0.4042
10070W        W53123  28.100  12.917   5.375 -0.2008  0.0773 -0.3451
10071W        W53124  23.187  11.135   5.295  0.1158  0.0259  0.2987
10072W        W53125  29.311  13.335   6.839  0.4304  0.0817 -0.1682
10073W        W53126  15.632   9.701   9.107  0.0473 -0.3350 -0.1490
10074W        W53127  11.158  34.254  25.405  0.1237 -0.1406 -0.2345
10075W        W53128  19.586  21.813  27.483  0.0312  0.1590 -0.0130
10076W        W53129  12.185  14.559   8.686 -0.2552 -0.0689 -0.1591
10077W        W53130  16.846   1.677   6.406  0.0716 -0.1228  0.3822
10078W        W53131  23.345   3.888  27.899  0.0813 -0.0139 -0.0121
10079W        W53132  10.481   8.605   2.346  0.3138 -0.0026  0.1151
10080W        W53133  32.859  32.990   1.038  0.2015  0.0261 -0.0943
10081W        W53134  25.104  19.115  23.437  0.4024 -0.0098 -0.2208
10082W        W53135  16.495   5.004  26.512  0.2834 -0.0294  0.0241
10083W        W53136  17.668  17.498  25.958  0.0257 -0.0358 -0.2431
10084W        W53137  14.611  14.853   1.267 -0.2137 -0.1858  0.2444
10085W        W53138  21.054  12.022   8.423 -0.1468  0.4059 -0.0398
10086W        W53139  11.592   7.483  10.337 -0.1639 -0.1637  0.1216
10087W        W53140  16.123  33.477  24.209 -0.1422  0.2090 -0.0040
10088W        W53141  18.188  30.845  20.822  0.1223  0.3029 -0.0999
10089W        W53142  25.412   5.647   9.813 -0.1748 -0.0504  0.0601
10090W        W53143  12.195   6.733   3.472  0.4173 -0.0964  0.2265
10091W        W53144  24.296  13.362   9.924  0.1960 -0.0950 -0.1906
10092W        W53145  26.070  23.465   9.695  0.1374 -0.0375  0.2138
10093W        W53146  24.933   5.911   0.263 -0.1281 -0.3947 -0.3340
10094W        W53147  27.080  30.145  28.977  0.1895  0.0234 -0.0834
10095W        W53148  12.782   6.073  21.248  0.3510 -0.2645 -0.2945
10096W        W53149  17.419  11.969   9.332  0.0006  0.3642 -0.0719
10097W        W53150  18.210  11.134   0.965 -0.4009 -0.4069  0.1458
10098W        W53151  18.633   2.505   5.480 -0.0868  0.0095  0.0584
10099W        W53152   1.573  31.634   3.411  0.0227  0.0991 -0.0788
10100W        W53153  28.659  29.573   7.882  0.0028  0.1200  0.2718
10101W        W53154  30.771   1.923   0.409  0.1263  0.0910 -0.0216
10102W        W53155  20.905  14.764  23.799 -0.1621 -0.3940  0.2322
10103W        W53156  23.679   5.623  23.313  0.0978  0.2586 -0.0562
10104W        W53157   8.524   6.978   6.355  0.2191  0.1382 -0.0836
10105W        W53158   6.345  23.927  13.637 -0.0456 -0.0433 -0.0645
10106W        W53159   2.524  10.046  19.920 -0.1369 -0.2454  0.3072
10107W        W53160  14.725   0.069   3.881  0.1110  0.0102  0.2040
10108W        W53161  29.645  18.108   8.938  0.0232  0.2930  0.0220
10109W        W53162  23.597  33.235  28.308  0.0303  0.0302  0.0881
10110W        W53163  28.751  17.526   7.089  0.0746 -0.0865 -0.0288
10111W        W53164  19.350  24.773  17.393 -0.1023  0.0257  0.1118
10112W        W53165   9.730  17.170   2.753  0.1268 -0.4505 -0.1461
10113W        W53166  14.020   8.426   8.551 -0.0954 -0.0349 -0.2217
10114W        W53167  20.302   2.093  28.773  0.1539 -0.0830 -0.0291
10115W        W53168  27.081   4.991   4.635 -0.2449 -0.0842  0.2657
10116W        W53169  22.190  31.120  22.162  0.0545 -0.0758 -0.1011
10117W        W53170  15.626   0.192   5.868  0.1413  0.2966 -0.0073
10118W        W53171  24.705  24.904   5.258  0.0165 -0.2041 -0.1639
10119W        W53172  18.397  16.661   5.856 -0.1750  0.0404 -0.1457
10120W        W53173   3.568   9.644   4.241 -0.3420 -0.3054  0.0378
10121W        W53174  18.773  16.340   5.760 -0.3493 -0.0003  0.2340
10122W        W53175  23.368   3.595   2.935  0.3517  0.4172 -0.1765
10123W        W53176  30.807  16.289   2.096 -0.0461 -0.2207 -0.1495
10124W        W53177   9.261   2.031   8.111 -0.1153 -0.2628 -0.0052
10125W        W53178  20.155  20.386   7.399  0.1309 -0.0220  0.0142
10126W        W53179  30.644   8.104   3.627  0.1669 -0.1574  0.1945
10127W        W53180  12.957   7.888  11.049 -0.0447  0.0519 -0.0249
10128W        W53181  28.419   7.942   3.113 -0.1177 -0.2665 -0.2656
10129W        W53182  15.876   9.299  29.044  0.0962 -0.2419  0.2686
10130W        W53183  33.354  17.291   2.410 -0.2963  0.0137  0.0752
10131W        W53184  19.641   9.456   9.266  0.0414  0.0693 -0.1548
10132W        W53185  18.416  17.623   0.509  0.1294 -0.2661 -0.0518
10133W        W53186  28.350  10.328   5.232  0.1322 -0.0660 -0.2253
10134W        W53187  10.364   0.995   2.668  0.3178 -0.2963  0.6001
10135W        W53188  15.200  34.248  22.281 -0.2288 -0.0726  0.1412
10136W        W53189   0.419   8.149   6.487 -0.2707 -0.0769  0.0926
10137W        W53190  24.621   2.815   9.835  0.1780  0.1664  0.0059
10138W        W53191  19.399  33.959   8.945 -0.0006 -0.4439  0.1542
10139W        W53192  15.304  34.241   3.032 -0.1964 -0.3068 -0.4046
10140W        W53193   1.712  33.196  27.545 -0.0380 -0.1576  0.0567
10141W        W53194   8.287  18.247   2.740 -0.2384 -0.1006  0.0336
10142W        W53195  26.231  17.827   9.383  0.2838 -0.2272 -0.1325
10143W        W53196  12.452  24.214  14.534  0.1863  0.0809 -0.0057
10144W        W53197  17.268   5.050   0.085 -0.0755 -0.0907  0.2408
10145W        W53198  24.019   3.355   2.013  0.2253 -0.0341  0.2580
10146W        W53199  23.230   8.438   6.496 -0.0627 -0.1195  0.3772
10147W        W53200   0.072   8.703  25.659 -0.1152 -0.0963  0.0989
10148W        W53201  27.976  14.862   1.275 -0.1332 -0.0072 -0.1946
10149W        W53202  27.305  11.421   7.974 -0.1295 -0.1377 -0.0079
10150W        W53203  26.120  19.388   4.795  0.2109 -0.3956  0.1294
10151W        W53204  22.226  27.044   3.772 -0.0036  0.4466 -0.1726
10152W        W53205   0.597   4.565  21.153 -0.1618 -0.2011  0.0330
10153W        W53206  12.417  33.276  17.017 -0.1549  0.1100 -0.0907
10154W        W53207  29.733  31.454  25.894 -0.0751 -0.2814 -0.3043
10155W        W53208  28.772   1.434   5.580 -0.0860 -0.2531  0.0214
10156W        W53209   4.343   7.148   9.586  0.0255 -0.3367 -0.1101
10157W        W53210  15.350   7.334  26.964  0.0193 -0.0299  0.2042
10158W        W53211  17.900  15.023   5.093 -0.0211 -0.0195 -0.1052
10159W        W53212  27.957  20.183   3.576  0.2227 -0.4209  0.0406
10160W        W53213  19.703  19.532  22.528  0.0887  0.2856  0.0275
10161W        W53214  15.937   2.188   0.476 -0.2382  0.0371  0.0371
10162W        W53215  10.866  30.536  28.766 -0.1585 -0.0669  0.2182
10163W        W53216  23.687  22.831   5.697 -0.2072 -0.0029  0.3262
10164W        W53217  19.654  27.362  25.176  0.1250  0.0902  0.2364
10165W        W53218  18.560   9.490   9.629  0.1301  0.0803 -0.2734
10166W        W53219   8.075  26.484  23.599 -0.1844  0.1023  0.0725
10167W        W53220  15.639   9.183   5.755 -0.0779 -0.4014  0.0277
10168W        W53221   3.920  14.297   3.845 -0.2338 -0.1436 -0.0726
10169W        W53222  12.371  17.772   4.371 -0.1523 -0.1445 -0.1081
10170W        W53223   5.938  13.874   2.631 -0.1436 -0.1093  0.0505
10171W        W53224   3.391   8.071  23.836 -0.1307 -0.2217 -0.0906
10172W        W53225  23.728   7.721   7.025 -0.1057 -0.2614 -0.0896
10173W        W53226   4.687  16.782   1.232 -0.0098 -0.0937  0.2292
10174W        W53227  29.228   3.107   3.888  0.2562  0.0261 -0.0029
10175W        W53228  10.855  11.689   4.720 -0.3487 -0.0842  0.2111
10176W        W53229  24.242  34.425  26.060  0.1746 -0.0394 -0.1394
10177W        W53230  24.838   1.336  24.454  0.1914  0.1436 -0.0993
10178W        W53231  32.239  34.601   9.096 -0.1546 -0.1860  0.1276
10179W        W53232   8.661  22.586  23.859  0.0117  0.1890 -0.1099
10180W        W53233  19.865   3.324   5.740 -0.1173 -0.0519 -0.2804
10181W        W53234  19.507  25.917  27.439  0.0937  0.0641  0.2392
10182W        W53235   4.962  25.090   8.319 -0.2499 -0.0786 -0.2154
10183W        W53236  23.295   5.881   4.086  0.1116  0.1160 -0.3093
10184W        W53237   5.584  10.849   7.677  0.0584 -0.0453  0.1494
10185W        W53238  15.300   1.394   8.924  0.3917  0.1952  0.1217
10186W        W53239  12.146  11.854   1.631 -0.1669 -0.0866 -0.1037
10187W        W53240  11.937  26.489   1.450 -0.0527 -0.2592 -0.2585
10188W        W53241  33.656   4.358  14.270  0.0721  0.2352  0.2539
10189W        W53242  20.046   7.373   5.790  0.0603  0.1171 -0.0444
10190W        W53243  24.212  29.194  10.313 -0.0641 -0.1182  0.0818
10191W        W53244  20.685  21.043   7.599 -0.1858  0.1273 -0.0432
10192W        W53245  11.210  20.212   7.342 -0.2640 -0.0456  0.1942
10193W        W53246  21.823  23.390  24.635 -0.1928  0.0302  0.1075
10194W        W53247  22.312  16.734   8.247  0.0773  0.0320 -0.2620
10195W        W53248  28.686  20.428   9.192  0.0522 -0.0189  0.0200
10196W        W53249  19.108  13.354  14.130 -0.1483 -0.3298  0.0574
10197W        W53250  30.162   8.607   2.898 -0.1265 -0.0507 -0.0698
10198W        W53251   3.605  29.295   9.256  0.1530 -0.0428 -0.0208
10199W        W53252  19.837   1.154  20.326  0.0366 -0.1389 -0.1506
10200W        W53253  28.778  14.458   9.794 -0.0214  0.0045 -0.1467
10201W        W53254  12.184  10.416   8.696 -0.1148 -0.0106  0.0701
10202W        W53255  17.957  11.586   4.976 -0.3028  0.2887 -0.0764
10203W        W53256  14.304   5.727   4.415 -0.1034  0.3180  0.1195
10204W        W53257  19.543   5.394   3.311  0.2534 -0.0661 -0.0071
10205W        W53258  13.120  22.087   9.841 -0.0220 -0.0218  0.1635
10206W        W53259  22.662  11.441   5.288 -0.2087  0.1525 -0.2034
10207W        W53260  17.148  27.507   7.029 -0.2785  0.0537  0.2401
10208W        W53261  24.113  30.692  24.281  0.1038 -0.3766  0.2072
10209W        W53262  30.591  14.370  28.372 -0.0011 -0.3435  0.2440
10210W        W53263  30.971  14.030   6.217 -0.1491 -0.2273 -0.0511
10211W        W53264   7.514  21.593  26.895  0.0275  0.1332 -0.1108
10212W        W53265  21.295  15.807   8.377 -0.1434 -0.1856  0.0554
10213W        W53266  21.284   8.224   1.399 -0.0525 -0.2581 -0.2403
10214W        W53267  30.638  25.802  22.543 -0.2338  0.2750  0.4984
10215W        W53268  19.123  29.809  21.781  0.3075 -0.2369  0.1561
10216W        W53269  20.061  26.792  24.394  0.3866  0.0594  0.1526
10217W        W53270  15.891  12.550  28.087  0.0776  0.0641 -0.1555
10218W        W53271   9.154  27.462  17.029  0.0607  0.0771 -0.1240
10219W        W53272  19.859   0.476   7.651  0.2525 -0.1710 -0.2483
10220W        W53273  26.193   0.332  15.069 -0.1704  0.0081  0.1413
10221W        W53274  20.359  14.474  17.423 -0.0621 -0.1594 -0.1675
10222W        W53275   0.489   5.789   6.575 -0.0417 -0.1492 -0.0794
10223W        W53276  28.373   1.136   5.392 -0.2605 -0.0098  0.0335
10224W        W53277  11.739  12.751   5.868  0.2372  0.0559  0.2598
10225W        W53278  23.225  28.281   2.064 -0.4401  0.2077  0.0849
10226W        W53279  23.450  28.239   0.461  0.0174 -0.1704  0.0004
10227W        W53280  11.482   3.171   8.902  0.0687 -0.0959  0.1600
10228W        W53281  19.743   6.304   3.224  0.2085 -0.0567  0.0623
10229W        W53282  26.292   7.186   9.366  0.1674 -0.0190  0.2175
10230W        W53283  24.943  20.318   6.527  0.1914 -0.2932 -0.1564
10231W        W53284  29.356   6.508  21.012  0.2586 -0.3171 -0.1531
10232W        W53285  24.639   4.270   9.577 -0.1294  0.0472  0.1406
10233W        W53286  22.606  15.573   1.811 -0.1009  0.1851  0.1121
10234W        W53287  24.153  31.275  26.249 -0.1654 -0.0236 -0.1633
10235W        W53288  25.429  10.605   7.778  0.0705  0.3380 -0.1048
10236W        W53289  32.245   0.742   7.849  0.0227  0.0705 -0.0829
10237W        W53290   5.055  33.367   9.534 -0.0032  0.2392  0.1021
10238W        W53291  17.742  10.027   6.930  0.1468 -0.1579  0.1604
10239W        W53292   6.460   5.441   6.464 -0.2286  0.0955  0.3758
10240W        W53293  21.876  22.672  28.366  0.2913  0.0786 -0.0915
10241W        W53294  33.661  15.154   6.756 -0.1868  0.0400 -0.0453
10242W        W53295  24.475  10.880  24.844  0.3990  0.0895 -0.2942
10243W        W53296  16.901  15.541   5.772  0.0633 -0.2235 -0.2961
10244W        W53297  14.119  22.111   7.016 -0.0922  0.0122 -0.3833
10245W        W53298  22.255  29.079  16.663  0.1912  0.0790  0.0622
10246W        W53299  15.851   8.137  10.062  0.1639 -0.2045 -0.0975
10247W        W53300  30.625  14.920   6.089  0.1253  0.0442 -0.0564
10248W        W53301  10.246  16.180   5.016 -0.3024  0.0026  0.3788
10249W        W53302  11.239  10.175  23.361 -0.0061 -0.0489  0.1704
10250W        W53303  20.693  14.394  24.523  0.1887  0.0164 -0.1909
10251W        W53304  19.308  17.914   8.710  0.0951  0.3390  0.0898
10252W        W53305  33.062   9.239  29.111  0.1153 -0.0246  0.1158
10253W        W53306  22.652   9.847  18.185  0.3129  0.1588  0.0852
10254W        W53307  17.165  10.883  25.883  0.5952 -0.0420  0.5769
10255W        W53308  18.295  18.060   4.858 -0.0019 -0.1326 -0.0329
10256W        W53309  10.021   2.605   6.607  0.0291 -0.1116 -0.3281
10257W        W53310  33.562  12.317   0.281  0.1251 -0.0199  0.0247
10258W        W53311  31.761  12.650   1.707  0.0786 -0.4396 -0.0340
10259W        W53312  25.624   7.458  28.335 -0.2282  0.2742 -0.2075
10260W        W53313  27.215  11.382   0.197  0.0046  0.0945  0.0908
10261W        W53314  31.647   2.132   8.542 -0.0820  0.2521 -0.1340
10262W        W53315  20.121  13.320   8.792  0.2405  0.2580  0.3401
10263W        W53316  24.486  12.154  28.917  0.2177  0.0377 -0.0246
10264W        W53317  15.918  26.193  19.937 -0.2411 -0.3438 -0.2827
10265W        W53318  15.900   2.817   2.117  0.3951  0.0564  0.0194
10266W        W53319  20.320  11.589   8.141  0.2163  0.0372 -0.0628
10267W        W53320  21.620   7.042   7.201  0.3756  0.0696 -0.0547
10268W        W53321   2.940  10.523   4.578 -0.1451 -0.2868 -0.0895
10269W        W53322  24.374   8.571   1.920 -0.0694  0.0266 -0.1854
10270W        W53323  21.476  21.691  18.852  0.3124 -0.1499 -0.0675
10271W        W53324   2.773  34.446   6.821  0.0320 -0.3402  0.1604
10272W        W53325  16.230   2.994  10.557 -0.4271 -0.0634  0.1503
10273W        W53326  11.959  23.379   3.157  0.0112  0.1841 -0.0652
10274W        W53327  16.940   9.743   3.786  0.0336  0.1730 -0.0844
10275W        W53328  15.380  21.390  23.096  0.1887  0.3423 -0.0197
10276W        W53329  34.033  10.462   5.960 -0.2990 -0.1523  0.0125
10277W        W53330  12.340  29.133  26.639 -0.0598 -0.1303 -0.0328
10278W        W53331  15.569   7.558  25.303 -0.0107  0.0426  0.0707
10279W        W53332  16.733  17.396  27.020 -0.5050 -0.0326 -0.2118
10280W        W53333  12.065  19.248   9.938  0.3886 -0.0561  0.1532
10281W        W53334  16.157  12.333   0.595 -0.3806 -0.0539  0.1180
10282W        W53335  22.737  16.072   5.653 -0.0499  0.0100 -0.0328
10283W        W53336   7.423  34.324   0.799  0.2035 -0.0551 -0.1400
10284W        W53337   1.095  24.689  28.059  0.2386 -0.2699  0.1625
10285W        W53338  13.467  24.288   2.318  0.1800  0.1694 -0.0753
10286W        W53339  12.446   3.664   1.437 -0.1939 -0.2456 -0.3289
10287W        W53340  25.407   2.797   3.206 -0.0834  0.0696 -0.0341
10288W        W53341  31.591  11.750   4.594  0.0129  0.0189  0.1183
10289W        W53342  19.878  20.048   1.594  0.1761 -0.2716 -0.1349
10290W        W53343  18.708   9.020  26.294  0.1117 -0.0870 -0.2053
10291W        W53344  26.007   4.139  26.060 -0.2058  0.2531 -0.0611
10292W        W53345  28.778   3.266   3.949  0.0996 -0.2160 -0.1667
10293W        W53346  22.948  33.313   6.778 -0.3329  0.1636 -0.2231
10294W        W53347  12.917  14.390   7.403  0.2141  0.0075  0.2555
10295W        W53348  27.753  13.197   9.516 -0.0455 -0.2357 -0.0057
10296W        W53349  11.342   7.790   3.827  0.1130  0.1096  0.4021
10297W        W53350  16.554   9.195   3.092 -0.0222  0.2224  0.2176
10298W        W53351  18.694   8.530  22.170 -0.0348 -0.0173  0.1165
10299W        W53352  21.929  15.106  16.619  0.1415 -0.0824  0.0675
10300W        W53353   7.948  25.655  27.137  0.2440 -0.0931  0.3024
10301W        W53354  13.177  29.546   7.530 -0.2125 -0.2664 -0.2292
10302W        W53355  27.611  16.976   5.372 -0.1095  0.0493  0.1066
10303W        W53356  18.915  30.806   3.644  0.3312  0.0772 -0.1078
10304W        W53357  27.404  11.255   4.203  0.5306 -0.2773 -0.0796
10305W        W53358  24.798   7.462  28.783  0.1369 -0.0683  0.2787
10306W        W53359  21.490   6.262  16.567 -0.2251 -0.0208  0.0407
10307W        W53360   1.252   5.048  23.577  0.2067  0.1977  0.0375
10308W        W53361  11.171   6.652   9.375  0.3951  0.1591  0.0245
10309W        W53362  30.977  10.569   3.810  0.0139 -0.2852  0.0262
10310W        W53363   7.102  23.200  27.755 -0.1350 -0.0606  0.0928
10311W        W53364   8.098  33.795   5.642 -0.0368 -0.1133 -0.0116
10312W        W53365   8.577   4.048   1.592 -0.1529  0.1569  0.0704
10313W        W53366  27.768  10.680   6.743 -0.1640  0.1505  0.1008
10314W        W53367  25.376  12.594   9.843  0.2766  0.3120 -0.1664
10315W        W53368  21.287  21.021  24.600 -0.1911 -0.4493 -0.1848
10316W        W53369   4.349   6.054  24.872 -0.3348  0.0562  0.1355
10317W        W53370  10.342   9.373  10.161 -0.0524  0.3232  0.1484
10318W        W53371  26.001  12.139   8.308  0.1113 -0.0075  0.3601
10319W        W53372  21.328   8.162  25.165 -0.1419  0.1580 -0.0774
10320W        W53373  10.354   7.903   2.033 -0.1358  0.1070  0.0062
10321W        W53374  29.374  14.965   5.947  0.0005  0.0832  0.2202
10322W        W53375  16.695  22.664  16.498 -0.1779  0.2516  0.2546
10323W        W53376   8.189   6.628  22.714  0.0667 -0.1786  0.0015
10324W        W53377   5.978   7.333  22.611  0.3386  0.0450  0.1226
10325W        W53378  15.556  30.309   0.726  0.0662  0.0452 -0.2673
10326W        W53379   5.052  10.906   6.530  0.0266  0.3188  0.1323
10327W        W53380   3.527  11.556   3.381 -0.1445  0.1856  0.0351
10328W        W53381  13.745  26.311   1.603 -0.2019 -0.0550 -0.3998
10329W        W53382  27.585  17.430  26.396  0.0689 -0.1646 -0.2068
10330W        W53383   2.418  20.168   6.706 -0.0569  0.1206  0.2126
10331W        W53384  22.383  12.998  21.557  0.3367 -0.2305 -0.2019
10332W        W53385  14.552  15.828   2.729  0.1109 -0.1204  0.2095
10333W        W53386  33.177  24.014  19.779  0.0289 -0.3671  0.0644
10334W        W53387  31.932   3.590   1.307 -0.2290 -0.0098 -0.0097
10335W        W53388   7.928   2.836  25.911  0.1956  0.3317 -0.1516
10336W        W53389  18.581   3.918   2.732  0.0597 -0.0903  0.2074
10337W        W53390  28.776  13.585   5.892 -0.0341  0.1636 -0.0418
10338W        W53391  12.823  33.729   3.676  0.0885 -0.0789  0.0415
10339W        W53392  34.528  12.821   1.598  0.0162  0.0827 -0.2595
10340W        W53393  33.109   0.778   7.984  0.1841  0.2366  0.0331
10341W        W53394  14.369  27.164   6.150  0.1057  0.1665  0.0979
10342W        W53395  30.784  24.372   2.093 -0.0275 -0.3841 -0.2817
10343W        W53396  10.440  19.824  10.527 -0.0230  0.3128 -0.1113
10344W        W53397  26.065  11.368   4.975 -0.1156 -0.2804 -0.2020
10345W        W53398  21.266  16.145   0.496  0.0659 -0.1016 -0.1666
10346W        W53399   5.468   6.818  21.273  0.0180  0.2884  0.3879
10347W        W53400  29.111  31.355   5.279 -0.1311 -0.0990  0.0031
10348W        W53401  22.598   7.602   6.161 -0.0836  0.0245 -0.5522
10349W        W53402  21.116  12.025   0.327  0.2833  0.1783 -0.2563
10350W        W53403  28.206  10.462  27.548 -0.2900 -0.0855 -0.0952
10351W        W53404  25.659  12.842   0.127  0.3389  0.1025 -0.1924
10352W        W53405  15.652   6.616  27.951 -0.1732  0.1848 -0.0880
10353W        W53406  11.007   8.954  28.498 -0.1411 -0.3412  0.3905
10354W        W53407  17.653  10.071   5.081  0.0158  0.0387  0.2597
10355W        W53408  18.582  24.557   8.375 -0.0771 -0.2016  0.0660
10356W        W53409  20.626   1.057  20.475 -0.1904  0.1011 -0.2124
10357W        W53410  26.238  25.642  28.068 -0.0772 -0.2090  0.1479
10358W        W53411  13.069  30.825   4.667  0.1301 -0.0488  0.0094
10359W        W53412  13.775  17.690   0.828  0.3020 -0.1653 -0.2990
10360W        W53413   0.669  34.513   7.750  0.0192  0.4051 -0.1625
10361W        W53414  11.837  29.481   4.197  0.0764  0.0281  0.1552
10362W        W53415  14.091   0.734   6.272 -0.0663 -0.3009  0.2070
10363W        W53416  20.515  11.905   3.871 -0.0360 -0.0066 -0.1795
10364W        W53417  32.901   1.461   3.050 -0.0175  0.0809 -0.1571
10365W        W53418  26.712  20.256  23.125 -0.0224 -0.2400 -0.1441
10366W        W53419   3.173   1.708   4.120  0.0483  0.0642  0.0248
10367W        W53420  29.464   6.664   7.355 -0.0153  0.0058  0.0256
10368W        W53421  17.047  33.077   5.554  0.0235 -0.2739  0.1966
10369W        W53422  13.756  20.163   1.081 -0.0533 -0.0201 -0.0334
10370W        W53423  26.153   1.432  26.439  0.0061  0.1739 -0.2495
10371W        W53424  23.899  15.713   7.297  0.3916 -0.2380  0.1913
10372W        W53425  25.260   8.984   5.364 -0.3643 -0.1046  0.2671
10373W        W53426   1.154   7.155   1.920 -0.2810  0.1546  0.0359
10374W        W53427  33.583   7.459   3.860  0.1050  0.2064  0.2310
10375W        W53428  31.872   4.218  27.107  0.2302  0.1746 -0.0569
10376W        W53429  15.632  20.567   4.973  0.0387  0.0589 -0.0327
10377W        W53430  14.679  15.796   8.911 -0.0192 -0.0085  0.2306
10378W        W53431  13.937  31.953   5.928  0.1695  0.4358 -0.1590
10379W        W53432  11.548  11.597   8.332 -0.2771 -0.1561 -0.0011
10380W        W53433  15.054  31.190   7.246  0.0672 -0.0953  0.0440
10381W        W53434  18.715   8.417   4.263 -0.4762  0.0768 -0.0108
10382W        W53435  15.741  30.169   6.816 -0.2632  0.5069 -0.0620
10383W        W53436   5.217   9.929   6.914 -0.1554 -0.1164  0.2851
10384W        W53437   1.222  27.958   6.299 -0.0468 -0.1284  0.1286
10385W        W53438  18.776   3.687   6.841  0.0132  0.2034  0.1841
10386W        W53439  32.488   6.138  28.152  0.2843 -0.1466 -0.3109
10387W        W53440  22.707   3.492   2.159  0.3845 -0.4738  0.2860
10388W        W53441  24.638  28.902   7.808  0.4947  0.2291 -0.0791
10389W        W53442  26.301  27.238   9.879  0.0795 -0.2679  0.0138
10390W        W53443  27.570  24.682   9.083  0.2853  0.0656 -0.0000
10391W        W53444  10.261  29.619   6.960  0.0338 -0.1614  0.0478
10392W        W53445   7.891   9.011   8.131 -0.1974 -0.1582  0.1597
10393W        W53446  32.581   8.352  24.001 -0.2478  0.0528 -0.3351
10394W        W53447  15.071  32.150   4.197 -0.0199  0.0230  0.0094
10395W        W53448  26.840  34.190  27.636 -0.1103 -0.1896 -0.3235
10396W        W53449  20.056  12.028   9.674  0.0485  0.2644  0.0833
10397W        W53450  22.442  28.197  23.501  0.1610  0.3283 -0.0469
10398W        W53451  29.075  14.218   1.818 -0.1616 -0.1316  0.0515
10399W        W53452  20.919  11.526   5.980 -0.1033 -0.1317  0.0471
10400W        W53453  17.990   7.396   9.295  0.1103  0.0604 -0.0079
10401W        W53454  23.258  11.854  18.580  0.1125 -0.0396  0.0612
10402W        W53455  14.285   0.424   6.997 -0.0776 -0.1445  0.0843
10403W        W53456  28.154   2.084   8.937 -0.0935 -0.0756 -0.1288
10404W        W53457  21.005  26.914  22.867 -0.1095 -0.1625 -0.1715
10405W        W53458  18.430  15.510   8.344  0.0016  0.2129 -0.0013
10406W        W53459  28.974   9.953  14.783  0.3065  0.0993 -0.2629
10407W        W53460  25.327  24.135   1.931 -0.2396 -0.0013  0.4706
10408W        W53461  24.285  14.340   6.479 -0.4630 -0.0873  0.1180
10409W        W53462  33.349   5.598   8.392 -0.1136  0.1299 -0.0319
10410W        W53463  24.358  13.713   5.740 -0.0644  0.0305  0.1764
10411W        W53464  19.687  17.579   3.587 -0.2846 -0.2755 -0.0662
10412W        W53465   8.965   4.880  17.824  0.3520 -0.1875  0.0688
10413W        W53466  22.517  11.351  10.096  0.0062 -0.1388 -0.0884
10414W        W53467  14.405   1.284  19.609  0.0791 -0.0721  0.2611
10415W        W53468  22.863  22.736   1.543  0.2446 -0.0814 -0.0187
10416W        W53469  23.524   7.838   7.532  0.1949 -0.1779  0.0999
10417W        W53470  15.253   5.601  26.630  0.1025  0.0946  0.0175
10418W        W53471  21.180   7.931   3.989  0.2613  0.1716  0.0780
10419W        W53472  20.501   4.660   6.803  0.0397  0.1323  0.3482
10420W        W53473  18.621  26.485  27.394 -0.2046  0.1982 -0.0707
10421W        W53474  31.090  31.554   4.644  0.2877  0.0282 -0.1387
10422W        W53475  20.795  32.488   1.207  0.2332 -0.0501  0.1453
10423W        W53476  21.941  31.614   4.394  0.1732 -0.1074  0.0530
10424W        W53477  28.173   5.349   8.450  0.1599 -0.0276 -0.3436
10425W        W53478  26.259   6.294   8.771  0.0571 -0.0762  0.4606
10426W        W53479  15.621  10.283   9.315 -0.0050 -0.0450  0.0503
10427W        W53480   9.085  14.714   7.409  0.2297 -0.0401  0.0906
10428W        W53481  31.496   8.749   9.074 -0.0497  0.0572  0.0638
10429W        W53482  16.926  11.269  14.814 -0.0582 -0.0349 -0.3485
10430W        W53483  18.860  32.739   3.962  0.0132  0.0047 -0.3580
10431W        W53484  21.459   9.168   4.670  0.0396  0.2848 -0.0351
10432W        W53485  19.733   6.034   6.165  0.1990  0.1692  0.1425
10433W        W53486  18.893  26.446   6.415 -0.2603 -0.0862  0.0317
10434W        W53487  16.550   7.976   0.843 -0.1078 -0.2631 -0.1876
10435W        W53488   8.850  26.770   8.537  0.2246 -0.0770  0.2770
10436W        W53489   3.738  13.467   6.835 -0.1527 -0.0775 -0.0687
10437W        W53490  10.907  31.244   1.425  0.0657 -0.1050 -0.2777
10438W        W53491  23.488  21.577   3.288 -0.1431 -0.0359 -0.0430
10439W        W53492  28.133  24.418   1.026 -0.2654 -0.0713 -0.0022
10440W        W53493  21.905  10.325   5.103 -0.0451  0.3467  0.1077
10441W        W53494  14.446  31.489  28.683 -0.5326 -0.0467  0.0910
10442W        W53495  34.222   4.205   3.304 -0.4891 -0.0100 -0.3561
10443W        W53496  18.391   3.223   6.750  0.1589  0.1981  0.2437
10444W        W53497  13.721  20.942  26.795  0.2186  0.0264 -0.1217
10445W        W53498   4.304  31.327  20.830  0.1275 -0.1008 -0.1107
10446W        W53499  24.941  28.651  21.930  0.2425 -0.0315 -0.3322
10447W        W53500  12.696   7.738   1.715 -0.3067 -0.3112 -0.0686
10448W        W53501  26.379   3.068   5.288  0.3074  0.2488  0.3380
10449W        W53502  16.966   2.061   2.300 -0.1540 -0.0099 -0.1433
10450W        W53503  32.004  27.270   1.147 -0.0455 -0.1513  0.3028
10451W        W53504  13.314  30.020  26.486  0.1499  0.0217  0.2031
10452W        W53505  23.802  24.454  25.328  0.1614 -0.2807  0.1281
10453W        W53506  10.706   9.308  18.523  0.2005 -0.2425 -0.3174
10454W        W53507  18.966  32.634   9.439  0.2007  0.4851 -0.0816
10455W        W53508  28.059  13.742  18.152 -0.2168 -0.1069  0.0548
10456W        W53509   9.168  31.247   3.321 -0.3188 -0.2114  0.0818
10457W        W53510  11.215  26.034   4.044 -0.1389 -0.1602 -0.4278
10458W        W53511  14.602   6.986   3.867  0.1621 -0.1394  0.4398
10459W        W53512  22.093   6.016  25.662 -0.0037  0.1263  0.2663
10460W        W53513   6.324  24.557   6.891  0.1323 -0.3129  0.0506
10461W        W53514  17.750   3.380   3.953 -0.3293 -0.3501 -0.2782
10462W        W53515  21.092   2.566  28.687  0.1474 -0.1085  0.0367
10463W        W53516  34.415  30.863  25.853  0.1564 -0.0158  0.0561
10464W        W53517  12.572   3.693   6.290  0.0419  0.0448 -0.0111
10465W        W53518   3.279  34.016   6.789 -0.1436 -0.1947  0.0806
10466W        W53519  17.454  10.649   2.937 -0.1619 -0.0584 -0.0327
10467W        W53520  32.912  13.132  28.608 -0.2773  0.0712 -0.1586
10468W        W53521  10.647   1.960   3.916  0.5234  0.0501  0.1102
10469W        W53522   0.534  28.709   9.644 -0.0628 -0.0005  0.1509
10470W        W53523  25.823   1.473   9.847  0.0914 -0.0854 -0.1951
10471W        W53524  22.623  27.687  22.156  0.0447 -0.0552 -0.1679
10472W        W53525  17.500  16.416   5.707  0.3314 -0.0812 -0.4220
10473W        W53526  30.867  34.332  24.865 -0.0079  0.3897 -0.1059
10474W        W53527  11.627   8.965   0.842  0.2534 -0.0268  0.0891
10475W        W53528  20.663  14.511  20.637 -0.0664 -0.3645  0.0699
10476W        W53529  16.112  30.265   3.888 -0.1644  0.1059  0.0359
10477W        W53530  21.392  18.655  26.033 -0.2465 -0.0632  0.1977
10478W        W53531  29.618  12.071   5.780 -0.1731 -0.0135  0.0963
10479W        W53532  20.831   0.780   6.422 -0.0135  0.1640 -0.2502
10480W        W53533  14.513  17.401   1.401  0.2406  0.0297  0.3353
10481W        W53534  22.460  27.529  28.627 -0.1523  0.1413  0.1794
10482W        W53535  11.926  32.879  26.810 -0.0285 -0.2010 -0.3337
10483W        W53536   8.178  29.800   5.360  0.0034  0.1973 -0.1113
10484W        W53537  25.400  32.585   4.288  0.1840  0.0260 -0.2718
10485W        W53538  17.769   6.921   9.385 -0.0255 -0.2914  0.1992
10486W        W53539  11.103  24.721   5.777  0.1103  0.1304 -0.2082
10487W        W53540  27.544   8.062   2.381 -0.0983 -0.0365  0.0089
10488W        W53541  16.850   2.348   3.530 -0.0001 -0.0701 -0.0959
10489W        W53542  23.575  27.335   4.098  0.3964 -0.0658  0.0357
10490W        W53543  16.315  15.385   8.113  0.0036 -0.1553 -0.0651
10491W        W53544  11.403  34.462   2.733 -0.0509  0.1530 -0.2277
10492W        W53545  24.623  34.351   3.709  0.0064 -0.1665 -0.2303
10493W        W53546  25.376  16.402   7.417 -0.1416  0.2035  0.1288
10494W        W53547   9.825  33.489   2.832 -0.0913 -0.3434  0.0807
10495W        W53548   7.261   1.341   6.503 -0.1130  0.0859  0.0018
10496W        W53549  21.298  12.824  23.069 -0.1970 -0.0411  0.1717
10497W        W53550   0.725  21.937  21.994  0.0159 -0.0494  0.4147
10498W        W53551  24.305  19.625  10.348  0.0303  0.5395  0.0368
10499W        W53552  32.670  18.090   9.231 -0.2057 -0.1497  0.0917
10500W        W53553  12.383  12.424  26.505 -0.1180 -0.2282 -0.1249
10501W        W53554  13.951   6.496  10.536 -0.0299  0.1799  0.2990
10502W        W53555  34.233  17.614   8.545  0.1026  0.1539 -0.1096
10503W        W53556  16.316  17.734  26.555  0.1504  0.2324 -0.1665
10504W        W53557  14.242  26.486   1.026  0.0720 -0.1202 -0.1123
10505W        W53558  16.212  31.127   5.421 -0.2595 -0.0987  0.1045
10506W        W53559  31.472  21.967   3.743  0.1231 -0.0522 -0.0627
10507W        W53560   7.459  16.881   0.410  0.3098 -0.0401 -0.2205
10508W        W53561  18.135  31.247  26.711 -0.0801  0.1505 -0.3573
10509W        W53562  22.036  14.765   1.309 -0.0309  0.2763  0.2375
10510W        W53563  26.391  33.735  10.138  0.3762 -0.2717  0.0656
10511W        W53564  17.341  30.274   7.934 -0.2148 -0.0341  0.0159
10512W        W53565   2.397   9.436  27.492 -0.0287 -0.2050 -0.1284
10513W        W53566  21.514   0.759  24.337  0.0877  0.2278 -0.1747
10514W        W53567  10.839  28.889   4.640  0.1373  0.5395 -0.0521
10515W        W53568  11.208  15.559   3.042  0.1070 -0.0189 -0.2651
10516W        W53569  21.888  32.163   9.020  0.1366  0.0861  0.2581
10517W        W53570   3.157   2.964   9.729  0.2479 -0.3140  0.1091
10518W        W53571  11.728   3.986   2.932  0.0558  0.0287  0.2958
10519W        W53572  17.821  24.822   6.217 -0.1804 -0.0039  0.0401
10520W        W53573  31.390  33.847   1.224  0.1195  0.0321  0.2145
10521W        W53574   2.448  12.748   2.316  0.1978 -0.1131 -0.1516
10522W        W53575  26.779   1.498   3.713  0.3006  0.3633 -0.0271
10523W        W53576  20.253  15.949  25.849  0.1223  0.1166 -0.0594
10524W        W53577  32.340  32.437   4.745 -0.3529 -0.0992 -0.1612
10525W        W53578  20.159  18.188   1.346 -0.0577  0.2517  0.1957
10526W        W53579  33.800   0.905   5.850  0.1544 -0.2192 -0.2904
10527W        W53580  24.797   8.278  10.303 -0.3613  0.2369  0.0522
10528W        W53581  16.542  12.692   8.791 -0.2475  0.2104 -0.1648
10529W        W53582  23.427  18.611   6.794 -0.0291  0.0092  0.2438
10530W        W53583  16.637   2.164   1.709  0.1735 -0.0376  0.1951
10531W        W53584  12.803  26.875   5.377 -0.1543  0.1514  0.1578
10532W        W53585  26.288  19.598   6.231  0.0672 -0.0695 -0.2170
10533W        W53586  26.257   8.290  21.985  0.0015 -0.1209 -0.1461
10534W        W53587  17.275   7.282  29.090  0.0169 -0.0516  0.2688
10535W        W53588  14.709   1.126   3.124 -0.0248 -0.0339  0.0814
10536W        W53589  15.795  31.642   3.169  0.4507 -0.1222 -0.1973
10537W        W53590  18.200   1.612   8.386 -0.0343  0.0638  0.0492
10538W        W53591  19.833  34.039  26.702 -0.3717  0.0829  0.1892
10539W        W53592  18.167  16.960   4.199  0.2016  0.0843 -0.0357
10540W        W53593   0.337  16.007   5.805 -0.2242 -0.3014  0.0769
10541W        W53594  30.589  25.548   0.069  0.3711 -0.0891  0.0254
10542W        W53595  11.691   5.338   4.647 -0.2333  0.3416 -0.0441
10543W        W53596  21.584   6.477   7.833  0.1447  0.4060 -0.0999
10544W        W53597  16.696   6.402   3.556 -0.1469 -0.5391  0.4012
10545W        W53598   5.007  22.988   7.685 -0.0032  0.0201 -0.4729
10546W        W53599  10.649   1.274  24.642  0.2419  0.1228 -0.2149
10547W        W53600  20.675  10.207  27.719 -0.0854  0.2839  0.3513
10548W        W53601  26.532  14.627   7.546  0.2356  0.0015 -0.0924
10549W        W53602  19.604   3.167   4.852  0.0383  0.1221 -0.1587
10550W        W53603  25.804   3.080  26.908  0.0641  0.1224 -0.0637
10551W        W53604  20.891   5.919  26.763 -0.1254 -0.0369  0.2555
10552W        W53605  27.708  28.435   3.078 -0.2655  0.3289  0.1324
10553W        W53606   4.792   8.532   5.244 -0.0081 -0.0662 -0.2234
10554W        W53607  25.790   5.698   1.895  0.2755  0.0074  0.1608
10555W        W53608  26.198   8.288   9.156 -0.2629  0.2568 -0.0579
10556W        W53609  15.293  17.742   3.181 -0.0464  0.0724  0.1708
10557W        W53610  12.910   0.289   4.219  0.1566  0.0981 -0.1007
10558W        W53611  17.337  15.367  24.996 -0.1254 -0.1434  0.2205
10559W        W53612  31.695  24.318   2.154  0.1273  0.1658 -0.3452
10560W        W53613  23.170  20.565   8.429  0.0182 -0.1549  0.0765
10561W        W53614  26.529  28.779   8.209  0.1945 -0.0123  0.2175
10562W        W53615  12.897   8.946   1.265 -0.0883  0.1528 -0.0321
10563W        W53616  29.239  32.351  26.804  0.2726 -0.0914 -0.2308
10564W        W53617   8.658  31.989  26.391  0.2030 -0.0475 -0.0215
10565W        W53618  26.363   5.880   0.143  0.0531 -0.0060  0.2399
10566W        W53619   8.978  10.689   2.420  0.2348  0.1527 -0.2258
10567W        W53620  27.818   5.743   1.952  0.4182  0.3840 -0.0739
10568W        W53621   8.075  10.341   7.068 -0.0864  0.0520 -0.2368
10569W        W53622  18.398   3.675   5.458  0.0421 -0.0118  0.0250
10570W        W53623  34.123   5.063   4.497  0.2060  0.1122  0.3974
10571W        W53624  33.375  32.312   1.173 -0.0090  0.1254  0.1010
10572W        W53625  12.081  12.281   8.174 -0.0938  0.1820  0.4107
10573W        W53626  20.551   8.118   5.539 -0.0363  0.2525  0.0095
10574W        W53627  31.169   3.367   8.446  0.2077 -0.1057  0.3342
10575W        W53628  25.419  32.459   2.360 -0.0642  0.0940  0.3158
10576W        W53629  20.628  14.155  27.774  0.0098  0.0317  0.2371
10577W        W53630  24.334  14.660  26.515 -0.0108  0.3879  0.0444
10578W        W53631  29.818   9.537   4.388 -0.0455 -0.0885 -0.1483
10579W        W53632  32.806  19.387   8.035 -0.2664 -0.3124  0.0300
10580W        W53633  15.091  10.558   5.413 -0.1285  0.2608 -0.3251
10581W        W53634  16.830  20.042   5.333 -0.1670  0.0993 -0.3226
10582W        W53635  16.132   2.574   4.401  0.1559 -0.0447 -0.1214
10583W        W53636  22.163   9.666   2.605  0.1199 -0.1338  0.1670
10584W        W53637  25.776  30.260   9.992 -0.2321 -0.2349  0.1416
10585W        W53638  15.856  16.752   8.590 -0.4052  0.2038  0.2532
10586W        W53639  19.425   1.977  10.373 -0.1538 -0.2173  0.1129
10587W        W53640  17.727   8.413   8.923  0.1563 -0.1884 -0.1438
10588W        W53641  19.441   4.087  28.009  0.1884 -0.0096 -0.0347
10589W        W53642   6.102  18.094   4.280  0.0620  0.3121  0.2841
10590W        W53643  24.662  33.376   3.668 -0.1590 -0.0340  0.1172
10591W        W53644  21.647   2.266   4.029  0.0941 -0.1824  0.1148
10592W        W53645  22.970  29.253   7.286  0.1288 -0.0581  0.0129
10593W        W53646  16.771  21.180   3.497 -0.1018 -0.2204 -0.0132
10594W        W53647  10.887  11.349  26.310  0.1559  0.5390  0.1458
10595W        W53648   2.991   5.407   0.014 -0.1198 -0.1119  0.0055
10596W        W53649  21.177  25.301   9.588  0.2586 -0.1174 -0.3124
10597W        W53650  15.857   1.997   9.088 -0.0607 -0.1105 -0.2397
10598W        W53651  22.933   2.803   5.695 -0.0500  0.1116  0.1865
10599W        W53652  11.106  12.842  20.602 -0.2237 -0.0468  0.0374
10600W        W53653  17.204  12.160   7.785 -0.3222 -0.1254 -0.4821
10601W        W53654  26.150  22.667   9.297  0.0416 -0.0587 -0.1576
10602W        W53655  18.921  13.011   6.053  0.3374  0.2209 -0.1300
10603W        W53656  18.191  24.540  10.232  0.2794  0.0051  0.2235
10604W        W53657   3.103  13.404   6.039  0.2362  0.2476  0.2413
10605W        W53658  16.037   3.306   7.831 -0.0184  0.3214 -0.1421
10606W        W53659   6.374   6.710   9.670  0.2326  0.2416 -0.1206
10607W        W53660  14.264  33.866   4.135  0.0879  0.1080 -0.2233
10608W        W53661  23.671  28.346   5.442 -0.0369 -0.1798  0.3388
10609W        W53662  18.581  17.528  25.104 -0.0157  0.1769  0.0043
10610W        W53663  31.714  31.685   7.515 -0.1263  0.2367  0.0194
10611W        W53664   4.764  16.006   3.138 -0.1440 -0.0489  0.1301
10612W        W53665  25.028   7.723   6.845 -0.2559  0.2019  0.4427
10613W        W53666  14.474   1.196   3.712 -0.0722  0.5252 -0.1342
10614W        W53667  23.770  29.186   8.436  0.0668  0.1512  0.0408
10615W        W53668   5.312   5.261   5.720  0.1580 -0.2327 -0.2529
10616W        W53669  10.740   0.986   5.520 -0.0608  0.5755  0.1446
10617W        W53670  29.623  13.286   6.482 -0.1097  0.1132 -0.0980
10618W        W53671  24.854   6.753   5.945 -0.0921  0.0573  0.2260
10619W        W53672  16.417  26.096   8.428  0.3085  0.4667 -0.1229
10620W        W53673  16.154   5.562   7.915  0.0398 -0.5405  0.5638
10621W        W53674  31.070   3.441  28.384 -0.1848 -0.0889 -0.1606
10622W        W53675  29.855  11.930   8.488  0.2614 -0.2815 -0.1130
10623W        W53676  23.817  12.465   4.625 -0.0790  0.0162  0.0977
10624W        W53677  17.107  31.114   7.462 -0.0522 -0.0186 -0.0359
10625W        W53678  11.132  29.095   7.381  0.0410  0.2253  0.1841
10626W        W53679  19.607   7.222   9.753  0.0658 -0.0929 -0.0802
10627W        W53680  31.307   8.851   0.318 -0.0601  0.0000 -0.2543
10628W        W53681  21.456  30.427   4.828  0.2084  0.1935 -0.0848
10629W        W53682  28.771   7.529   8.644 -0.1319  0.2227  0.1971
10630W        W53683   9.487  16.155   9.764 -0.1790  0.1681 -0.0900
10631W        W53684  23.375  19.423   8.416  0.2110  0.0355  0.1187
10632W        W53685  14.621   8.492   9.276 -0.0156  0.2431  0.0417
10633W        W53686   9.765   6.896   9.808 -0.0663 -0.3106  0.2114
10634W        W53687  16.508   4.139  26.638  0.1543 -0.1108 -0.2288
10635W        W53688  17.939  32.314   9.930 -0.3338  0.0469 -0.1148
10636W        W53689  23.977  18.937   5.770 -0.4066  0.1169 -0.0085
10637W        W53690  11.879  12.811  29.172 -0.2370  0.1674  0.3405
10638W        W53691  28.770   4.719   1.824 -0.0326  0.2609  0.1735
10639W        W53692  21.674   1.908   3.190 -0.0830  0.1476 -0.3397
10640W        W53693  25.347  13.381   7.984  0.2316 -0.4816 -0.0400
10641W        W53694  10.192   6.178   7.497  0.2952  0.1006  0.0978
10642W        W53695  14.376   6.161   3.684  0.0358 -0.1777 -0.0353
10643W        W53696  21.433  29.510   6.110 -0.0663 -0.2393  0.1049
10644W        W53697  21.872  24.798  10.110  0.6041  0.2622 -0.3129
10645W        W53698  23.804  28.755   9.485 -0.0782  0.3034  0.1343
10646W        W53699   5.389   7.817   2.359  0.2193  0.0284  0.0381
10647W        W53700  28.993  22.417   8.674 -0.0944  0.2482 -0.1067
10648W        W53701  23.459  29.002   3.497 -0.0635  0.1084 -0.2834
10649W        W53702  22.993   4.406   4.852 -0.3400 -0.0224  0.1228
10650W        W53703  16.156  16.515  25.868 -0.1024 -0.0902  0.1569
10651W        W53704   4.724  17.015   3.220 -0.1627  0.0280  0.1443
10652W        W53705  25.722  29.321   6.318  0.4043  0.2749 -0.2477
10653W        W53706  10.853  12.003  25.101 -0.2101  0.0751 -0.0291
10654W        W53707  26.010  34.419   9.681 -0.0646 -0.1132 -0.1187
10655W        W53708   1.396  11.933   3.185  0.0990 -0.1582 -0.1304
10656W        W53709  19.771   4.580   6.989 -0.2825 -0.3185 -0.1125
10657W        W53710  24.432  13.421   5.234 -0.0416 -0.1943 -0.0436
10658W        W53711   6.810  26.248   9.523 -0.0827  0.0421  0.3405
10659W        W53712  19.659   1.814  26.084 -0.3589 -0.1729 -0.1678
10660W        W53713  11.286   1.288   9.652  0.1692  0.1285 -0.0059
10661W        W53714  25.873  12.403  28.437  0.2001 -0.0272  0.0820
10662W        W53715  25.900  25.309  24.927  0.2290 -0.2352 -0.2094
10663W        W53716   6.066  14.141   1.979  0.3211 -0.2152 -0.1015
10664W        W53717  11.787  32.799   2.969  0.1517 -0.1435 -0.2096
10665W        W53718   0.684   9.013   7.102  0.1759 -0.1251  0.0667
10666W        W53719  30.224   0.376   0.875  0.0674  0.0466  0.2657
10667W        W53720  20.625  32.733  23.958 -0.2211 -0.2576  0.3594
10668W        W53721  18.608  29.054  24.861  0.0766 -0.1704 -0.2742
10669W        W53722  22.338  31.117   1.714  0.1156  0.0353  0.0277
10670W        W53723  17.859  23.903  22.767  0.0327 -0.0423  0.0973
10671W        W53724  12.352  24.816   9.230 -0.1370  0.2332  0.1345
10672W        W53725   9.872  15.714   4.928  0.1690 -0.2675 -0.2349
10673W        W53726  23.946   9.478  25.938  0.0327  0.1764 -0.0375
10674W        W53727  21.587   2.093   7.900  0.2156  0.0841  0.0573
10675W        W53728  18.265  10.177  15.024  0.0377 -0.0862 -0.0319
10676W        W53729  32.346   6.532   8.874  0.2247 -0.2945  0.0849
10677W        W53730  32.177  12.359  20.308  0.1001 -0.0275  0.1082
10678W        W53731  16.789   4.574  27.589 -0.0461  0.0326 -0.2860
10679W        W53732  13.131   0.151   7.907  0.2358 -0.0625  0.1760
10680W        W53733  21.119  13.434   2.722  0.1824 -0.2147 -0.3729
10681W        W53734  18.274   3.659  28.840  0.2323 -0.1496 -0.1312
10682W        W53735  10.826  18.991  27.798  0.2671 -0.2149  0.0460
10683W        W53736   5.072   0.728   3.539 -0.1204  0.0779 -0.5247
10684W        W53737   2.514  25.834   5.983 -0.0052 -0.0385 -0.0702
10685W        W53738  15.346  13.430   3.826 -0.0026 -0.2143  0.2911
10686W        W53739  23.654  29.201  25.300 -0.0848  0.1761 -0.2483
10687W        W53740  21.819  10.458  16.853  0.0846 -0.2423 -0.2430
10688W        W53741  19.137  15.955  25.309  0.1451  0.0314 -0.1712
10689W        W53742  12.554  15.713   6.273 -0.2207 -0.2118 -0.3021
10690W        W53743  19.440  11.046   6.205  0.1266  0.1482 -0.0604
10691W        W53744  30.333   5.147   2.859 -0.2269 -0.0654  0.0130
10692W        W53745  18.303  28.038  27.025  0.2460 -0.0520 -0.1484
10693W        W53746  10.533   8.671   8.130 -0.2758 -0.0974  0.0110
10694W        W53747  22.633  18.277   0.631 -0.2359  0.3068 -0.0092
10695W        W53748  13.910  19.096  27.162 -0.0180  0.1478 -0.1383
10696W        W53749  17.548   8.326   2.876 -0.0124 -0.0834 -0.0698
10697W        W53750  31.031  15.155   9.409  0.0655 -0.1035  0.1653
10698W        W53751   3.729  15.209   4.297 -0.0143  0.1737 -0.0977
10699W        W53752  17.368   4.270   9.024 -0.1191 -0.2983 -0.3439
10700W        W53753  26.278  25.330  28.847 -0.3103 -0.1431 -0.0808
10701W        W53754  23.751   8.259   0.276  0.1257  0.1171 -0.2522
10702W        W53755  17.242  17.176  25.778  0.1598  0.0227  0.1072
10703W        W53756  32.974   1.466   1.290  0.0976  0.0286  0.1978
10704W        W53757  28.786   4.324   6.455  0.0081  0.1928 -0.1717
10705W        W53758  22.553   7.904  25.571 -0.1324  0.2021  0.2886
10706W        W53759   3.952   4.890  19.171 -0.2032 -0.0766  0.1002
10707W        W53760  17.667  12.605  25.375 -0.2946  0.1043 -0.0379
10708W        W53761  21.078  10.669  25.960 -0.1013 -0.2360 -0.4239
10709W        W53762  29.630  21.073  23.453  0.1751  0.1679 -0.1771
10710W        W53763   3.090  12.724  15.702  0.2319 -0.5101  0.0560
10711W        W53764  15.799  10.916   4.499  0.0093 -0.2068 -0.2638
10712W        W53765  17.597   5.671  10.175 -0.2532  0.2029 -0.2470
10713W        W53766  31.253   7.151   4.890  0.0026 -0.0342 -0.3858
10714W        W53767  11.383   8.602   5.813  0.3849  0.1065  0.2222
10715W        W53768  31.062  19.171  29.129  0.3103 -0.0730 -0.3255
10716W        W53769   0.180  19.064   5.779  0.0573  0.0026  0.0202
10717W        W53770  10.729  11.762  27.691  0.0787  0.2163  0.1205
10718W        W53771  13.863  23.897   7.897 -0.2619 -0.0708  0.2577
10719W        W53772  14.370   4.999   0.609 -0.0300 -0.4125 -0.1813
10720W        W53773  20.672  24.283  19.906 -0.0107 -0.0505  0.0846
10721W        W53774   5.267   3.913  29.192  0.1997 -0.2336  0.0672
10722W        W53775  17.257   5.117   2.440  0.0018  0.0872  0.0491
10723W        W53776  12.466   9.023  10.570  0.2855  0.0937  0.2545
10724W        W53777  22.990  24.303   4.566  0.0389 -0.0247  0.3054
10725W        W53778  16.435   7.687   1.410 -0.3035 -0.3150 -0.2033
10726W        W53779   2.908  14.462  27.075 -0.0488  0.0729  0.0951
10727W        W53780  20.747   9.557  24.871  0.1522 -0.0763  0.1975
10728W        W53781   5.645   2.474   4.560  0.2085 -0.1383  0.3326
10729W        W53782   1.401  11.533   5.259  0.1535 -0.1631  0.0276
10730W        W53783  19.573  14.788   1.273 -0.1326  0.0435  0.3455
10731W        W53784  30.022  18.039   8.633  0.2159 -0.1341 -0.2713
10732W        W53785  32.314  14.474   9.429  0.0045  0.2775  0.0604
10733W        W53786  21.775  32.935  28.479  0.1032  0.1788 -0.2485
10734W        W53787  19.803  10.543   0.571 -0.0189 -0.0816 -0.1590
10735W        W53788  22.262  14.916  28.615 -0.0449  0.6290 -0.0145
10736W        W53789  13.667  33.807  10.811  0.0267  0.2553  0.1979
10737W        W53790   1.423  10.454   6.115  0.0069  0.0059 -0.2092
10738W        W53791   3.725   4.366   9.798  0.0993 -0.3152 -0.0384
10739W        W53792  11.580   9.232  15.359 -0.0203 -0.0819 -0.2396
10740W        W53793   6.206  19.744  27.843  0.2758  0.2975 -0.2610
10741W        W53794  19.743   8.645   5.631 -0.3419 -0.0861  0.2526
10742W        W53795  12.469   9.691   8.993  0.1962 -0.0097  0.2486
10743W        W53796  10.385  12.487   4.049 -0.1933 -0.2365 -0.3368
10744W        W53797  16.442   5.467   3.265  0.1272  0.0914 -0.2089
10745W        W53798  14.894  26.087   4.998  0.3742  0.0755  0.4298
10746W        W53799  15.945  16.750   7.210 -0.0567  0.3315  0.0585
10747W        W53800  31.036  18.787  28.786  0.0461  0.0919  0.1586
10748W        W53801  24.744  16.521  26.117 -0.1120 -0.0053  0.1693
10749W        W53802  20.781  32.027   9.937 -0.0734  0.0042 -0.1317
10750W        W53803   6.759   6.469   9.261  0.1887  0.1031 -0.5385
10751W        W53804   5.969  17.684   0.326  0.2811  0.1470  0.0664
10752W        W53805   6.273  22.954   0.285  0.2504 -0.0149  0.0621
10753W        W53806  25.557  16.461  23.162  0.3938 -0.3021 -0.0482
10754W        W53807  26.517   8.793   0.284  0.0217 -0.2891  0.1916
10755W        W53808  20.995  34.271  24.529 -0.1482  0.0227  0.1979
10756W        W53809   3.342   8.194   4.376 -0.0518 -0.0719 -0.1155
10757W        W53810  17.588  19.454  28.875 -0.0285  0.2593  0.5036
10758W        W53811  10.494  24.206  23.355  0.1880 -0.1800  0.0973
10759W        W53812  19.533  31.960   8.431 -0.0432 -0.1822  0.5902
10760W        W53813  25.190  28.288   0.940 -0.2650 -0.1954  0.1547
10761W        W53814   3.075   8.835  23.450  0.0801 -0.3478  0.4873
10762W        W53815  29.223  11.912   0.571 -0.3251  0.2360  0.0866
10763W        W53816  22.064  34.052   8.398 -0.1261  0.0871 -0.1130
10764W        W53817  17.015   6.517  19.738 -0.0643  0.0947  0.1973
10765W        W53818  16.682   7.737  11.075  0.0349 -0.2047 -0.3207
10766W        W53819  20.986  24.151   2.427  0.0438 -0.0718  0.2153
10767W        W53820  11.187  12.648   3.482  0.1731 -0.1257 -0.1654
10768W        W53821  23.729   2.707  21.323  0.4902 -0.1687  0.0621
10769W        W53822  21.718  33.261   9.535 -0.0408  0.0734  0.1613
10770W        W53823  19.747  33.690  10.277  0.4821 -0.0786 -0.1932
10771W        W53824  24.872   7.567   8.687 -0.1683  0.0590  0.0787
10772W        W53825  27.972  11.618   9.758  0.2090 -0.0974  0.1655
10773W        W53826  10.889   7.917  25.637  0.0538  0.1970 -0.0657
10774W        W53827   9.344   5.468   7.209 -0.2397 -0.1532 -0.4571
10775W        W53828  27.035  10.287  26.768  0.1270 -0.3410  0.2095
10776W        W53829  28.295  21.170   0.116  0.0426 -0.2478  0.1517
10777W        W53830  26.382  16.540   2.338 -0.0861 -0.0267  0.0348
10778W        W53831  15.845   8.400  22.484 -0.2276 -0.1045 -0.0797
10779W        W53832   8.547   4.724   7.318 -0.0416 -0.0558 -0.0520
10780W        W53833  21.235  17.593  26.549 -0.1740 -0.1400 -0.0640
10781W        W53834  13.174  13.003  23.655 -0.0524  0.0696 -0.1865
10782W        W53835  15.315   7.878  17.856  0.1072 -0.4601  0.0370
10783W        W53836  31.721   8.415   7.414  0.0277 -0.2591 -0.1340
10784W        W53837  19.718   4.459   4.255  0.0619  0.0381  0.2090
10785W        W53838  19.977   7.441   4.935  0.3804  0.0606 -0.1805
10786W        W53839  21.431  20.467   1.350 -0.2866 -0.2132  0.1990
10787W        W53840  15.586   8.196   6.635 -0.0481 -0.1252 -0.0396
10788W        W53841  21.089   7.365   3.848  0.3720  0.2813  0.0489
10789W        W53842  34.035   0.132   8.613 -0.1317  0.1675  0.2230
10790W        W53843  13.712  12.843   0.958 -0.4868  0.1102 -0.0528
10791W        W53844  25.782   5.631  27.420  0.0427 -0.0483 -0.0274
10792W        W53845   6.942   4.803   2.208  0.1701 -0.3830  0.1614
10793W        W53846  31.417  33.204  14.040  0.0847  0.3607 -0.0090
10794W        W53847   7.552   5.412   2.497  0.3345 -0.2091  0.2685
10795W        W53848   0.930  28.846  25.284  0.1013 -0.1078  0.1803
10796W        W53849  28.326   1.860   1.329  0.1774  0.0522 -0.0199
10797W        W53850  30.179   7.971   0.248  0.3917  0.1702 -0.3333
10798W        W53851   0.040  18.726   0.445  0.0360 -0.0926 -0.0088
10799W        W53852  26.958   7.844   6.340 -0.0294  0.1276 -0.1775
10800W        W53853  19.141  23.464   9.382 -0.1201  0.0840  0.0382
10801W        W53854  15.007  14.440   1.990 -0.0153  0.3977  0.0732
10802W        W53855  12.712  29.994   5.103  0.2527  0.0878 -0.0285
10803W        W53856  20.161   5.148  10.673 -0.1280  0.3497  0.2175
10804W        W53857  24.932   6.413  20.771 -0.0544 -0.1849 -0.0603
10805W        W53858  23.917   6.521   5.494  0.0719 -0.0106  0.0976
10806W        W53859  16.964  14.227   9.766 -0.2188 -0.1759  0.0262
10807W        W53860  31.178   0.395  25.141  0.0455 -0.2680  0.3173
10808W        W53861  12.151  14.959   3.261 -0.1108  0.0419 -0.2487
10809W        W53862  16.514  24.270   1.759  0.0223 -0.0539  0.0076
10810W        W53863  10.112  19.856  16.440  0.1353 -0.0071 -0.1287
10811W        W53864  16.343  14.992   6.043  0.1525 -0.3196 -0.2147
10812W        W53865  20.332  17.083  26.447  0.1760  0.0083  0.2467
10813W        W53866  18.418   0.208   7.595  0.0141 -0.1131 -0.0460
10814W        W53867  16.254   2.087   4.777 -0.0042  0.1615  0.2505
10815W        W53868  20.701  29.481  22.627 -0.3824 -0.2924  0.2056
10816W        W53869  10.331   6.576   7.163  0.1165 -0.0074  0.1999
10817W        W53870  21.130  25.348   3.068 -0.0449  0.4273  0.2340
10818W        W53871  16.538  13.658   2.877 -0.2555 -0.0897  0.1172
10819W        W53872  16.587   8.918  15.930 -0.0217 -0.1785  0.0161
10820W        W53873  12.886  31.643  27.802 -0.1205  0.0952  0.2908
10821W        W53874  23.379  11.786   7.079 -0.0840 -0.1185 -0.3548
10822W        W53875  12.410   8.963   1.279 -0.0867 -0.4907 -0.0523
10823W        W53876  11.305   7.151   9.460  0.0922 -0.3063  0.0409
10824W        W53877   1.876   6.358   9.713  0.2097 -0.1606 -0.1832
10825W        W53878   9.978  16.182   8.530  0.3693  0.3299 -0.1037
10826W        W53879  29.590  28.315   0.893  0.1676  0.1534  0.1882
10827W        W53880  32.421   3.497   2.960  0.1748  0.0894 -0.0452
10828W        W53881  27.708  18.774   8.065 -0.0371  0.1406 -0.1663
10829W        W53882  21.945  27.313  28.973 -0.2612 -0.0545 -0.1669
10830W        W53883  25.611   3.830  27.890 -0.4924 -0.4259 -0.0560
10831W        W53884  11.249  33.118  17.567 -0.1324 -0.0661  0.0672
10832W        W53885   0.294   7.909  27.446 -0.1352 -0.1500  0.1859
10833W        W53886  23.116  15.338   3.972  0.0682  0.1508 -0.1340
10834W        W53887  28.687   0.007   2.594  0.1446 -0.0378  0.3037
10835W        W53888  12.572  15.496   8.724  0.1087 -0.0099 -0.1552
10836W        W53889  28.499  11.690  18.525 -0.0900 -0.1447  0.1146
10837W        W53890  16.910  21.855   7.821  0.0493  0.1736  0.8114
10838W        W53891  10.657  23.168   7.748 -0.0152 -0.1786  0.0259
10839W        W53892  28.172   9.360  22.712  0.3444  0.2716 -0.2441
10840W        W53893  30.365   2.199  22.738  0.0582  0.0567  0.2007
10841W        W53894  12.037   6.719   6.876 -0.0376 -0.2382 -0.2968
10842W        W53895  11.310   2.121   5.781  0.0725  0.1204 -0.0712
10843W        W53896  12.960   4.795   6.648  0.0865  0.0364 -0.4295
10844W        W53897  27.860  11.934   8.360  0.2406  0.1540 -0.0466
10845W        W53898  17.471  33.051   0.409 -0.0246  0.3367 -0.3933
10846W        W53899  16.451   7.643  21.397  0.3035  0.3637 -0.1090
10847W        W53900  21.634  12.812  22.668  0.1655 -0.2691  0.2554
10848W        W53901  14.585  14.440  27.109  0.0799  0.1844 -0.0147
10849W        W53902   5.775   3.697   1.357  0.0543  0.3111  0.2080
10850W        W53903   1.702  27.671   3.092 -0.1254  0.1673 -0.3179
10851W        W53904  14.216   8.076  17.732  0.2405 -0.0261 -0.1234
10852W        W53905   5.374  11.866  27.498 -0.0748  0.0770  0.0905
10853W        W53906  23.680   4.596  13.811 -0.1748 -0.2025  0.3817
10854W        W53907  33.029   9.155  25.957 -0.0899  0.0922  0.2757
10855W        W53908  13.568   9.667   7.685 -0.1362  0.1150 -0.1662
10856W        W53909  14.106  33.700  10.543  0.0259 -0.2782  0.0621
10857W        W53910  28.415   8.337   0.011 -0.0146 -0.0510  0.0309
10858W        W53911  16.115   8.274  22.003 -0.2282  0.0081  0.0630
10859W        W53912  26.479   3.542   4.533 -0.0563  0.1818  0.1126
10860W        W53913  29.612  17.119  15.679 -0.2054 -0.1210  0.2615
10861W        W53914   5.740  24.636   5.956 -0.0659  0.1649  0.1289
10862W        W53915  23.650   1.100   4.491  0.2772  0.1212 -0.1705
10863W        W53916  24.093   8.397   0.804  0.2191 -0.2420  0.2582
10864W        W53917  22.303  21.176  23.901  0.0431  0.0158  0.0949
10865W        W53918  21.530  13.849  24.646  0.0123  0.3231  0.1970
10866W        W53919  21.663   4.376   5.003 -0.1754  0.0983 -0.0045
10867W        W53920  25.999  10.334   8.283 -0.2043  0.1820 -0.2144
10868W        W53921   8.821   3.748   7.537  0.0490 -0.2452 -0.0160
10869W        W53922  34.269  14.680  14.221  0.2136 -0.3450  0.1224
10870W        W53923  21.376  30.996   5.637  0.2446 -0.0617 -0.2073
10871W        W53924  15.808  11.239  10.008  0.0331  0.1031  0.0571
10872W        W53925  13.114  32.453  21.053 -0.0944  0.2015 -0.0672
10873W        W53926  30.866   3.513   5.520 -0.0446  0.1601 -0.0938
10874W        W53927  27.459  17.392   5.700  0.2085 -0.0326 -0.0193
10875W        W53928  23.898  12.376   3.631 -0.2883  0.0757  0.0949
10876W        W53929  13.749   0.539   9.325  0.1118 -0.0095  0.0925
10877W        W53930  30.695  23.586  19.398  0.0214 -0.1793  0.1690
10878W        W53931  21.142  32.654   8.386  0.0127 -0.3101  0.5124
10879W        W53932  21.137  13.882  25.592 -0.1316  0.1192 -0.1351
10880W        W53933  11.800   0.657  21.868 -0.1357 -0.1241  0.5123
10881W        W53934  11.838  34.650   5.791  0.4935 -0.3644 -0.3227
10882W        W53935  22.312  18.953   8.242 -0.2498  0.0246  0.0577
10883W        W53936  11.473  27.488  17.861  0.0302 -0.1592  0.2171
10884W        W53937  28.497  14.366   4.865  0.3891 -0.1721 -0.1940
10885W        W53938  24.089  34.164   1.041  0.1162 -0.3360  0.1237
10886W        W53939  26.195  34.473  10.562  0.0137  0.2370  0.1202
10887W        W53940  17.321  16.657   2.515  0.2195  0.2068  0.1216
10888W        W53941  20.058  11.316  17.836 -0.1923  0.0930 -0.1521
10889W        W53942  22.676   7.113   6.311 -0.2323  0.2193 -0.2753
10890W        W53943  24.728  30.255   2.772 -0.0479 -0.0870  0.3798
10891W        W53944  16.874  22.215   0.348 -0.1407 -0.0501 -0.0145
10892W        W53945  14.883  12.435   7.041 -0.0217  0.0017 -0.1855
10893W        W53946   7.053  10.116   7.267  0.3223  0.1014 -0.3211
10894W        W53947  18.980   9.955   5.215 -0.0157 -0.5585  0.0489
10895W        W53948  11.932   8.561  10.554  0.0526  0.1035  0.1037
10896W        W53949  20.747   4.306   4.512 -0.1617 -0.1209  0.2497
10897W        W53950  32.217  12.165  25.929 -0.0544  0.1619  0.3765
10898W        W53951  20.839   6.015   9.001 -0.3124  0.0440 -0.1764
10899W        W53952  15.110  11.095   4.655 -0.1265 -0.0651 -0.2070
10900W        W53953  21.690  16.269  19.687 -0.2196 -0.0373 -0.0725
10901W        W53954  15.651  21.319  29.023 -0.2007  0.1702 -0.2365
10902W        W53955  15.063  26.209   9.466  0.1455 -0.0333 -0.1176
10903W        W53956   8.318  21.330   8.487 -0.0838 -0.0272 -0.0602
10904W        W53957  21.549   0.441   9.175  0.0231  0.2839 -0.4627
10905W        W53958  26.029  33.272  22.439 -0.2883  0.1842  0.0539
10906W        W53959  20.852  14.850  24.359 -0.1390  0.2124 -0.1101
10907W        W53960  24.845   7.113   4.520  0.4783 -0.0261  0.1227
10908W        W53961  15.120  21.895  23.294 -0.0060  0.0288  0.1221
10909W        W53962  15.182   8.886   9.266  0.1862  0.0570  0.1497
10910W        W53963  25.783  21.492  26.171 -0.1712 -0.3422 -0.0305
10911W        W53964  25.278  12.449   0.017  0.0268 -0.0797 -0.2025
10912W        W53965  26.690  18.639  27.257 -0.0096 -0.1435  0.1849
10913W        W53966  24.348   9.089   9.489  0.0444 -0.0249 -0.1610
10914W        W53967   9.760   7.492  27.017  0.2217 -0.0138  0.4157
10915W        W53968  20.814  16.371   0.347 -0.1219  0.1512  0.0125
10916W        W53969  27.911   8.014  10.768 -0.0479 -0.0465  0.3253
10917W        W53970  15.644  11.617  28.959  0.0778  0.0682 -0.0931
10918W        W53971  21.707  15.032   0.826  0.0040  0.2167 -0.0250
10919W        W53972   6.439  11.486  25.409 -0.0592  0.1630  0.1299
10920W        W53973  14.133  29.831   3.178  0.0030  0.2456 -0.0710
10921W        W53974  17.469  12.092   5.922  0.0593 -0.2991 -0.2444
10922W        W53975  26.276  17.734   0.212 -0.1600 -0.2600 -0.0178
10923W        W53976  19.846  10.456   7.168 -0.1619 -0.0278 -0.2363
10924W        W53977   8.758  21.245   4.348 -0.1048 -0.1761 -0.0788
10925W        W53978  13.375  16.777  17.082  0.0049 -0.0930 -0.1261
10926W        W53979  29.091   5.985  24.431 -0.0724  0.0922 -0.0061
10927W        W53980  16.494  10.131  10.326 -0.3525 -0.0849  0.1260
10928W        W53981  20.286  15.855  29.001 -0.0023  0.0620  0.1362
10929W        W53982   8.958  26.431   1.888 -0.1078 -0.1959 -0.1333
10930W        W53983  12.194   9.651  26.953  0.3858 -0.1987 -0.0162
10931W        W53984  26.482   4.710  28.580  0.2843 -0.1559  0.1464
10932W        W53985   6.409   3.315  28.966 -0.0830 -0.3879 -0.1179
10933W        W53986  21.149  24.915  28.756 -0.0068 -0.2890  0.0550
10934W        W53987   6.498   2.863   7.266 -0.0957  0.1310 -0.0733
10935W        W53988  13.297   3.592   8.497  0.1881 -0.2675 -0.0720
10936W        W53989  27.710   6.905   5.475 -0.4224 -0.4082 -0.2962
10937W        W53990  24.805  20.341  23.827 -0.0357  0.0449 -0.0531
10938W        W53991  30.250   4.712   3.687 -0.1163 -0.0356 -0.2593
10939W        W53992  11.809  11.615  20.210 -0.0836  0.0337  0.1609
10940W        W53993  12.449  19.335  22.071 -0.1422  0.1356  0.1301
10941W        W53994  17.915   8.680   3.063  0.2018  0.2011  0.0977
10942W        W53995  29.426  22.747  23.366 -0.1587 -0.1247 -0.1129
10943W        W53996  17.943  33.322  22.366  0.2385 -0.2930 -0.1446
10944W        W53997  31.490   5.574   6.341 -0.0069  0.3161 -0.2233
10945W        W53998  15.141  25.005  14.569 -0.1904 -0.1208  0.0099
10946W        W53999  17.604   5.013  28.898  0.3487  0.1403  0.0693
10947W        W54000  24.658   4.061  20.552 -0.0339 -0.4511 -0.1572
10948W        W54001  18.183   2.391   0.764  0.0108 -0.4099  0.0662
10949W        W54002  22.976   9.828  16.383 -0.1331  0.1339 -0.0995
10950W        W54003  13.710  28.398   4.622  0.3373  0.1872  0.2188
10951W        W54004  28.259  29.100   4.516  0.0185  0.2510  0.0726
10952W        W54005  18.695  28.326   6.665  0.3384 -0.0394  0.0481
10953W        W54006  18.859   6.939   7.753  0.1133  0.2144  0.1216
10954W        W54007  12.709  10.587   8.635  0.0577  0.2656 -0.3487
10955W        W54008  25.032   2.537  28.453  0.3599  0.1711  0.0490
10956W        W54009  23.049  29.964  23.821  0.0753  0.0908 -0.0279
10957W        W54010  32.375   8.799  10.059 -0.0687 -0.1793  0.1278
10958W        W54011  26.482  30.904  21.708  0.1723  0.3588 -0.1102
10959W        W54012  18.897  29.584   5.397  0.2685 -0.2016 -0.1115
10960W        W54013  18.462  18.402  24.544  0.0452  0.1633 -0.4323
10961W        W54014  15.862  22.569   9.878  0.0111  0.0180 -0.1798
10962W        W54015   3.628  20.450   2.035 -0.0516 -0.2153 -0.0454
10963W        W54016  20.871  27.985  28.733  0.0546 -0.1979  0.0724
10964W        W54017  23.582   0.667   0.339 -0.1614 -0.1879  0.1137
10965W        W54018  20.611  14.770  27.400 -0.0916 -0.1279 -0.2326
10966W        W54019  22.311   3.760  25.873 -0.1656 -0.1694 -0.2429
10967W        W54020  31.074  18.504   2.047 -0.3666  0.0058 -0.1246
10968W        W54021  22.453   7.759  27.641 -0.0441  0.0359  0.0461
10969W        W54022  15.665  19.901  21.714 -0.2815 -0.0344  0.1447
10970W        W54023  20.373  27.823   8.538 -0.2321 -0.0944  0.0330
10971W        W54024  20.348   8.388   2.306 -0.2444 -0.0634 -0.0872
10972W        W54025  20.949   9.136  16.113 -0.3093 -0.0961 -0.0555
10973W        W54026  14.583  28.734   9.279 -0.0637  0.1114  0.2850
10974W        W54027  13.264   3.600  22.517  0.3682 -0.2265 -0.0452
10975W        W54028  10.505   2.110  22.907 -0.0129  0.1106 -0.3088
10976W        W54029   7.988   9.888  27.859 -0.1544 -0.3256 -0.0361
10977W        W54030  18.440  20.280   5.273  0.3045 -0.2471 -0.0118
10978W        W54031  16.310  19.474   0.111  0.1613  0.2262 -0.2550
10979W        W54032  29.568  15.910  15.131 -0.0648  0.1273  0.0511
10980W        W54033   5.568  34.115   1.651 -0.3701 -0.2271 -0.3656
10981W        W54034  19.868  29.221  25.143  0.2363  0.0086  0.1394
10982W        W54035   8.506   7.031  20.372 -0.2392 -0.1208 -0.0104
10983W        W54036  32.732   0.927   7.152 -0.1161  0.3164 -0.1379
10984W        W54037  23.006  13.123   1.615 -0.1493  0.0896 -0.4662
10985W        W54038  18.829   9.904  25.942 -0.1426 -0.0843 -0.0559
10986W        W54039  17.612  21.650  25.901  0.2277 -0.0684  0.0150
10987W        W54040  11.438  14.297  29.187  0.3641 -0.1200 -0.0235
10988W        W54041   6.386   5.515   0.277 -0.2587 -0.1356 -0.0013
10989W        W54042  16.255   3.012   9.128  0.0148 -0.2467 -0.1039
10990W        W54043   9.431  19.405  20.226 -0.0725  0.1071 -0.0179
10991W        W54044  24.252  15.534   1.370  0.2331 -0.0040 -0.1331
10992W        W54045  14.291  33.627  18.632  0.1494 -0.0575  0.0308
10993W        W54046   6.547  15.046  10.299 -0.1955  0.3108 -0.0288
10994W        W54047  18.585  32.360   4.031  0.1149  0.0274 -0.2964
10995W        W54048  12.822  14.708  16.686 -0.0322 -0.1641  0.2137
10996W        W54049  24.972  19.479  26.432 -0.1486  0.0506  0.0876
10997W        W54050  30.249  31.656  26.594 -0.0506  0.0518 -0.1493
10998W        W54051  21.902  28.695  20.243  0.3542  0.2138 -0.2303
10999W        W54052  22.229  17.477   4.214  0.1222  0.3900  0.2300
11000W        W54053  16.839  32.932  18.915 -0.3207 -0.0868 -0.0168
11001W        W54054   8.118  12.798   4.369 -0.1923  0.1174 -0.0417
11002W        W54055  14.595  29.057   4.199  0.1492 -0.1402  0.2377
11003W        W54056  12.319   7.881   9.842  0.4012 -0.1300 -0.0573
11004W        W54057  23.102  25.309  26.315  0.2313 -0.1754  0.0815
11005W        W54058   3.476  19.036   2.602 -0.0864  0.2339  0.0268
11006W        W54059  27.846  10.160   9.915 -0.3034  0.0296  0.0795
11007W        W54060  20.838  14.173  20.161  0.0726  0.2229 -0.0918
11008W        W54061  29.206   4.212   5.844  0.1075  0.1223 -0.1674
11009W        W54062  26.595  14.238   1.148  0.0339 -0.0604 -0.1178
11010W        W54063  15.880  23.527   0.612 -0.1034 -0.2853 -0.0549
11011W        W54064  29.336   1.773   2.478 -0.0184  0.1464  0.2556
11012W        W54065  21.385   8.176   9.624  0.0642  0.0302 -0.2342
11013W        W54066   6.394   7.113  22.728 -0.0456  0.1105 -0.1800
11014W        W54067  22.446  16.892   1.284 -0.0068  0.1449 -0.1933
11015W        W54068  15.388  11.189  26.405 -0.1201  0.1854  0.2084
11016W        W54069   2.412   4.450  18.524  0.0814 -0.2889 -0.2209
11017W        W54070  22.720  12.259  19.552  0.1210  0.0087  0.1062
11018W        W54071  26.566  10.586  22.247  0.0648 -0.0877 -0.1636
11019W        W54072   0.480  11.964   0.302  0.2035 -0.1872  0.0740
11020W        W54073   9.469  14.503   4.592  0.0623  0.0348 -0.4555
11021W        W54074  17.463   3.850   8.685  0.1629 -0.0609 -0.0682
11022W        W54075   3.732  13.377  24.431 -0.1541 -0.2211  0.1906
11023W        W54076  30.290   2.571   4.898 -0.0085 -0.2741 -0.1384
11024W        W54077   8.967  18.425   8.771  0.3000 -0.2371 -0.1639
11025W        W54078  29.275  21.288  26.939 -0.2140 -0.1767  0.3996
11026W        W54079  20.687  20.367   6.180 -0.0093 -0.2529  0.2879
11027W        W54080  19.148   2.803  17.657  0.0589  0.0887  0.0066
11028W        W54081  20.624  14.264  21.063 -0.1070  0.2913 -0.1064
11029W        W54082  16.446  29.347  23.352  0.3829  0.0632 -0.0252
11030W        W54083  26.529  11.441   9.595  0.1145  0.0087  0.0943
11031W        W54084  10.981   9.194   0.188 -0.0891  0.3752 -0.1519
11032W        W54085   9.889  24.503  28.357 -0.0513 -0.1800  0.0674
11033W        W54086  12.892   8.828   2.101 -0.0628  0.0329  0.0136
11034W        W54087  27.761  15.236  22.591  0.2030 -0.7463 -0.2950
11035W        W54088  25.366  16.160   1.680 -0.1416  0.1465  0.1066
11036W        W54089   4.465   5.516  18.823  0.2126 -0.0881 -0.0951
11037W        W54090  17.608  29.053   4.984  0.2359 -0.0062 -0.3102
11038W        W54091  12.226  20.783   5.798  0.1542 -0.2251 -0.0586
11039W        W54092  29.297  27.539   9.118  0.0442 -0.1846  0.0259
11040W        W54093  22.553   4.386   5.192  0.1147  0.2913 -0.0511
11041W        W54094   2.893  28.566   9.154  0.3955  0.4698 -0.0111
11042W        W54095   7.857  12.474  15.261  0.2122 -0.2208 -0.0400
11043W        W54096  13.219   3.089  10.106 -0.1569 -0.2077 -0.0508
11044W        W54097  18.613   5.968   4.002 -0.0724 -0.2021 -0.1641
11045W        W54098  31.833  10.176   1.979  0.1474 -0.0723 -0.0087
11046W        W54099  18.276  28.398   1.135 -0.0705 -0.1945  0.1755
11047W        W54100  24.322   2.141  28.066 -0.1016 -0.0195  0.0294
11048W        W54101   8.314   7.162   0.924  0.2709 -0.3002 -0.2879
11049W        W54102  17.309  18.695   5.520  0.3535  0.0275 -0.0181
11050W        W54103  18.796  20.408  27.764 -0.1267 -0.3042 -0.0293
11051W        W54104  16.725  24.530  21.149  0.2034  0.0774 -0.3028
11052W        W54105  10.816   9.173   8.173  0.0446 -0.1507  0.0479
11053W        W54106   0.533   3.665  27.539  0.2210  0.0078 -0.0565
11054W        W54107   3.619  30.332   3.754  0.0358  0.3610 -0.0070
11055W        W54108   9.954  10.535  26.245 -0.1102 -0.0368 -0.0801
11056W        W54109  17.016  11.183  21.596  0.0421  0.0346 -0.0449
11057W        W54110  17.516  23.474   1.142  0.1833  0.4309  0.0748
11058W        W54111   7.580   7.449   0.398 -0.0387  0.2013  0.0995
11059W        W54112   4.940  31.166   3.085  0.1235 -0.0730 -0.2898
11060W        W54113  24.404  29.586   4.450  0.1095 -0.1452  0.0033
11061W        W54114  27.940  34.680  28.873  0.1077  0.4612 -0.0361
11062W        W54115  30.819   6.034   7.742  0.0989  0.0055 -0.1433
11063W        W54116  30.987  33.862  28.825  0.2568  0.0723 -0.2559
11064W        W54117  31.483  29.601   7.343  0.0042 -0.0884  0.0704
11065W        W54118  23.106   8.658   0.548 -0.0470 -0.2580  0.2893
11066W        W54119  21.595   5.230   5.817  0.0740 -0.0606 -0.4738
11067W        W54120  18.985  14.719   9.847  0.4435  0.0688  0.0728
11068W        W54121  18.225  25.928   5.412  0.0912 -0.1219  0.1914
11069W        W54122  26.087   1.829   7.996 -0.0309  0.3878 -0.4057
11070W        W54123  25.075   8.799  25.709 -0.0887 -0.1776 -0.0567
11071W        W54124   2.689  12.005   6.386 -0.0411  0.4313 -0.2946
11072W        W54125  21.305   5.027   4.971 -0.2605 -0.2421 -0.0701
11073W        W54126  27.209   8.900   0.688 -0.2381  0.0047  0.0597
11074W        W54127  24.334  15.729   6.883  0.0620 -0.2024  0.0171
11075W        W54128  26.428   0.587   2.599  0.1329 -0.3441 -0.1024
11076W        W54129  22.797   5.910   9.349  0.2891  0.0210  0.3209
11077W        W54130  26.350  18.064  21.051  0.1058 -0.1526  0.6476
11078W        W54131   7.340   1.382   9.299  0.2009 -0.0650  0.0914
11079W        W54132  26.623   8.289   0.260  0.0374  0.2280 -0.0442
11080W        W54133  13.322  16.523   9.837 -0.2164 -0.1812 -0.1744
11081W        W54134   8.809   2.644   8.687 -0.0698  0.3055 -0.0665
11082W        W54135  21.730   5.523   9.826 -0.1493 -0.0771 -0.1511
11083W        W54136  16.844  13.344   1.542  0.1345  0.1755  0.2415
11084W        W54137  15.088   4.887   3.919 -0.1237 -0.1274  0.0313
11085W        W54138  28.673   6.133   3.166 -0.0147 -0.1093 -0.1165
11086W        W54139   5.445   7.533  10.144  0.3636  0.0557 -0.0981
11087W        W54140   1.312  26.577   8.487 -0.1288  0.1108 -0.0236
11088W        W54141  14.726   8.026   7.989  0.1172 -0.1529  0.1349
11089W        W54142   5.256   3.815  18.606  0.1954  0.0855  0.2372
11090W        W54143   5.080  23.137   9.869  0.2677 -0.0805 -0.1994
11091W        W54144  22.925  24.565   0.716  0.0533  0.0465  0.2070
11092W        W54145  24.251   0.355  27.030 -0.0636 -0.0330 -0.5436
11093W        W54146  24.452  19.305   8.708 -0.1640 -0.0516  0.0089
11094W        W54147  15.581   3.043  27.645  0.2634 -0.3030 -0.0250
11095W        W54148  15.338  31.714  21.770  0.0263  0.1541 -0.2600
11096W        W54149  30.646   5.931   2.187  0.1310  0.0794  0.3129
11097W        W54150  28.046   4.377   0.756  0.1106  0.3439  0.3458
11098W        W54151  14.027  10.307  23.054 -0.1780 -0.1728 -0.0941
11099W        W54152  19.581  15.339  12.889  0.0717  0.0701  0.3799
11100W        W54153  19.360  24.103   7.928  0.3710  0.0623  0.0619
11101W        W54154  11.639  13.376   3.909 -0.2075  0.0547 -0.1744
11102W        W54155  25.474   8.034  22.491  0.1498  0.1644  0.1410
11103W        W54156  23.649  10.298   2.578  0.2785 -0.4911 -0.1272
11104W        W54157  12.162  23.169   3.927  0.2714  0.2368 -0.0954
11105W        W54158  11.946   9.062   9.659 -0.0175 -0.1451 -0.1561
11106W        W54159  23.711  19.082  28.845  0.2224 -0.0108  0.2068
11107W        W54160  22.596  17.323  24.810 -0.1872  0.1429 -0.3226
11108W        W54161  30.460  20.297   5.634 -0.1262  0.0970 -0.0088
11109W        W54162  11.772  14.645   3.766 -0.0126 -0.4305  0.2868
11110W        W54163  23.039   1.613  18.479  0.2456  0.0338  0.1650
11111W        W54164  20.065  29.058  15.480 -0.1667 -0.0698 -0.0264
11112W        W54165  15.974   8.467  25.603  0.4169  0.2326  0.0724
11113W        W54166   7.231   8.633  16.925  0.1403 -0.1839  0.0469
11114W        W54167  24.851  19.935  26.213 -0.0364  0.1539  0.2041
11115W        W54168  30.450  19.589   3.043  0.0381 -0.0906  0.1736
11116W        W54169  32.974  32.875  24.536 -0.1297 -0.0703  0.1535
11117W        W54170  24.286  30.861   5.699 -0.0510 -0.2584  0.0051
11118W        W54171  24.347  14.840   1.782 -0.1588  0.0390  0.2447
11119W        W54172  28.315  17.247  15.922 -0.0896 -0.0816 -0.3360
11120W        W54173  13.158   6.802  28.968 -0.0090  0.1330 -0.0135
11121W        W54174  10.316   2.423  28.327 -0.0407  0.3686 -0.1423
11122W        W54175  27.386   1.845  19.069 -0.1073  0.1294 -0.1369
11123W        W54176   6.979  18.444   1.897  0.0754  0.1510 -0.0232
11124W        W54177  23.176  30.879   6.858 -0.0441 -0.1561 -0.2354
11125W        W54178  14.260   6.901   6.813 -0.1610  0.0684  0.0124
11126W        W54179  16.577   9.657   2.668  0.1854  0.1006  0.0971
11127W        W54180  22.773  12.959   5.888 -0.0603  0.3429 -0.1944
11128W        W54181  27.999   4.956   5.625  0.0077 -0.0422 -0.0354
11129W        W54182  22.092  11.677   8.539  0.1638  0.0887  0.0203
11130W        W54183  31.492  33.039   0.041 -0.1508 -0.1189 -0.0542
11131W        W54184  15.156   4.546   8.171  0.2042 -0.0442 -0.0507
11132W        W54185   8.474   6.431   4.373  0.3378  0.0332 -0.0842
11133W        W54186  11.368  11.273  10.396  0.0626 -0.2828  0.0273
11134W        W54187  10.311  22.245   9.410  0.1188  0.0692  0.1605
11135W        W54188  29.657  14.145   5.964  0.0304  0.1230 -0.2297
11136W        W54189  18.521   6.727   7.400 -0.2769  0.1013 -0.0666
11137W        W54190  25.054  18.926   1.793 -0.2907  0.1263 -0.2985
11138W        W54191  23.714  18.877   6.355 -0.0841 -0.0249  0.0005
11139W        W54192  20.444   7.633   7.019 -0.2361 -0.0606 -0.0944
11140W        W54193  12.798  18.757   4.243 -0.0142 -0.1835 -0.0114
11141W        W54194  14.581  13.571   6.087 -0.0027  0.0534  0.1349
11142W        W54195  17.051  29.116  24.938 -0.2436  0.1270 -0.1146
11143W        W54196  27.404  10.293   5.396 -0.0304  0.1396  0.2853
11144W        W54197  23.098  13.033   5.512 -0.0545 -0.2996 -0.1179
11145W        W54198  21.697  12.184   5.299 -0.0891 -0.0625 -0.0476
11146W        W54199  26.534  16.044   9.028 -0.1776 -0.1413 -0.0641
11147W        W54200  21.272  12.242  18.374  0.1063 -0.1884 -0.3866
11148W        W54201   5.893   3.368   7.561  0.0578 -0.0598  0.0894
11149W        W54202  15.915   5.596   5.941  0.3698  0.0615  0.2668
11150W        W54203  19.084  15.771  25.817 -0.2418 -0.1159  0.2547
11151W        W54204  24.509  30.606   4.421 -0.3925  0.1573  0.0979
11152W        W54205  20.074  15.421   7.951 -0.0121  0.0789 -0.4610
11153W        W54206  34.582   4.529   7.764  0.3783 -0.0420 -0.0597
11154W        W54207  21.987  27.054   6.570  0.1165  0.1394  0.2525
11155W        W54208   2.614  19.591   4.720  0.2204  0.1578  0.0048
11156W        W54209  10.472  13.793  10.202  0.0569  0.0528  0.3138
11157W        W54210   4.159  21.531   8.264 -0.3246  0.2082  0.1629
11158W        W54211  26.643   9.089   1.979 -0.0005 -0.2799  0.1371
11159W        W54212  17.472   5.066   2.939 -0.2553  0.0728  0.2940
11160W        W54213  14.583  14.938  26.805 -0.0959 -0.1248  0.0357
11161W        W54214  10.322  27.070  20.272  0.0100  0.1327 -0.2615
11162W        W54215  11.701   7.246   6.117 -0.0105 -0.0255  0.1233
11163W        W54216  11.856  18.125   9.455  0.2656 -0.0871 -0.3453
11164W        W54217  31.727  17.512   1.196 -0.0803  0.1571  0.1858
11165W        W54218  15.764  16.193  24.726 -0.2476  0.1158 -0.0053
11166W        W54219   3.658  11.377   6.768  0.0672 -0.1656 -0.1142
11167W        W54220  24.137  31.926   6.797  0.1449  0.0106  0.2130
11168W        W54221  19.775  23.983   6.018 -0.2454 -0.1243  0.0514
11169W        W54222  12.948   7.460   8.856  0.1088  0.0199  0.1335
11170W        W54223  24.473  15.016   8.076 -0.0221  0.2298 -0.3486
11171W        W54224  11.131   9.676  10.390 -0.0056 -0.0565 -0.1506
11172W        W54225  19.663  21.649   9.591  0.2707  0.2145  0.1502
11173W        W54226  17.127  14.106   6.048 -0.0916 -0.0470 -0.1435
11174W        W54227  15.220  24.620   7.403  0.0658 -0.2892 -0.3239
11175W        W54228  32.252  21.135   6.740  0.4832  0.0271 -0.2992
11176W        W54229   8.821  15.438   2.019 -0.1669 -0.4927  0.1001
11177W        W54230  13.425   6.666   7.198 -0.1520  0.0531  0.0512
11178W        W54231  12.705  13.410  25.417  0.2932  0.0035 -0.0075
11179W        W54232   6.371   7.057  18.086  0.1959 -0.1047 -0.0349
11180W        W54233  21.892   5.842   3.836  0.0056  0.3088  0.1965
11181W        W54234  25.575   7.281  24.040  0.2338  0.0771  0.1377
11182W        W54235  32.820   5.244   9.853  0.1958 -0.0433 -0.1029
11183W        W54236  23.788  33.961  25.532  0.2024 -0.1512 -0.1546
11184W        W54237   7.851  33.988   4.229 -0.1463  0.3385 -0.0589
11185W        W54238   6.183  10.912   3.596 -0.1323 -0.6760 -0.1572
11186W        W54239  31.930   3.261   1.762 -0.2448  0.0280  0.0931
11187W        W54240  20.735  15.086  19.637 -0.2288  0.1806  0.3770
11188W        W54241   3.072   3.164   4.057 -0.0147 -0.0623 -0.1723
11189W        W54242   8.290   5.257  26.198  0.0232 -0.0869 -0.6328
11190W        W54243  15.302  19.511   8.362  0.2287 -0.2706  0.0401
11191W        W54244  22.348   7.317   7.828  0.2286 -0.2851 -0.1477
11192W        W54245  19.136  19.532   3.750 -0.3933  0.1137  0.2098
11193W        W54246  24.292  25.090   4.999 -0.1373  0.2715  0.1325
11194W        W54247  14.206  13.943   1.591  0.3597  0.3902  0.0699
11195W        W54248  11.604   0.560   3.753 -0.2532 -0.2938  0.2396
11196W        W54249  19.936   9.412   7.443  0.2863  0.0495  0.1326
11197W        W54250  21.532  14.297  17.577  0.1779  0.0483  0.2164
11198W        W54251   7.717  10.548   3.463 -0.0099 -0.1933  0.2241
11199W        W54252  23.782  11.073  24.228 -0.0732 -0.1004 -0.0970
11200W        W54253  11.458   6.857  20.587  0.1055 -0.3826  0.0205
11201W        W54254  12.813  13.480  10.493  0.0334 -0.0913  0.0294
11202W        W54255  27.914  18.918   8.647 -0.0129 -0.1905  0.1313
11203W        W54256  16.979   7.235   7.587 -0.0924 -0.2146  0.1529
11204W        W54257   6.745   7.603   9.987  0.2292  0.0047  0.3497
11205W        W54258   0.870  32.612   8.346  0.0113  0.0275 -0.0889
11206W        W54259  20.167   9.020  26.349 -0.2583  0.0544  0.0922
11207W        W54260  23.010  14.752   6.061 -0.0596 -0.0893  0.1661
11208W        W54261  33.480  13.732  23.612  0.2876  0.1621  0.1024
11209W        W54262  18.546  10.189   6.606 -0.4231  0.0769 -0.4916
11210W        W54263  12.050   0.705   3.627  0.0907  0.0970 -0.0183
11211W        W54264  23.843  20.724  11.014 -0.0069 -0.0207  0.0338
11212W        W54265  18.760  25.207   9.129  0.0242  0.3816  0.0244
11213W        W54266  21.153  19.299  24.447  0.2744  0.1434 -0.0198
11214W        W54267  15.983  11.798   9.973 -0.0746 -0.1899 -0.0405
11215W        W54268  14.266   1.917   7.896  0.1673 -0.1657  0.0372
11216W        W54269   8.923  32.806   4.423  0.0132 -0.0771 -0.2391
11217W        W54270  21.102  16.727  28.028 -0.0893  0.1351 -0.1686
11218W        W54271  20.103   6.002  25.551  0.2006 -0.2930  0.0844
11219W        W54272  25.680   1.654  20.043  0.1017  0.3244  0.1453
11220W        W54273  22.935  11.897  18.954 -0.1959 -0.2322 -0.0656
11221W        W54274  24.365   9.115   7.761 -0.2011  0.1810  0.1047
11222W        W54275  34.333  10.343   4.558  0.0334 -0.0472 -0.1853
11223W        W54276  17.997  16.533   1.038  0.0778 -0.0208 -0.0720
11224W        W54277  23.731  23.887   4.150  0.1026 -0.0969  0.0164
11225W        W54278  16.254   9.367  23.996  0.3022 -0.4003  0.0100
11226W        W54279  28.558  32.627   5.313  0.0580 -0.5024 -0.2445
11227W        W54280  16.236   3.808  25.544 -0.4241 -0.2557  0.0904
11228W        W54281  19.781  32.074  26.560 -0.3613  0.0675  0.1610
11229W        W54282  24.374  13.531  26.723 -0.0241 -0.0872  0.4168
11230W        W54283  34.550  12.300  26.737 -0.1805 -0.0249 -0.1162
11231W        W54284   7.515  14.318  27.881 -0.2441  0.0399 -0.0848
11232W        W54285  34.597  21.831  28.585  0.1465 -0.1624 -0.1001
11233W        W54286  12.832   4.243  27.936 -0.5230  0.4045  0.0707
11234W        W54287  13.582   3.737   6.073  0.1713  0.2112  0.1323
11235W        W54288  24.391  11.190   4.218  0.2099 -0.3651 -0.2197
11236W        W54289  16.043  17.532   5.439 -0.0629  0.2173 -0.1829
11237W        W54290  17.810  21.812   9.602 -0.3339  0.3343  0.3674
11238W        W54291  10.070   6.337   4.418  0.0804  0.0832  0.0111
11239W        W54292   8.203  31.229   4.301  0.0172  0.0592 -0.1302
11240W        W54293   0.561   1.403   9.170 -0.0345  0.3557 -0.0877
11241W        W54294  12.954  15.427   5.464 -0.0656 -0.0359  0.0368
11242W        W54295   9.966   2.675   7.160  0.0500  0.1162  0.0626
11243W        W54296   8.166  11.166   6.467 -0.3394  0.2956 -0.1051
11244W        W54297  21.356  32.313   8.691 -0.3340 -0.0315  0.3013
11245W        W54298  14.329  25.172  27.386  0.1538  0.0148  0.2825
11246W        W54299  22.488  14.328   4.454  0.1515 -0.0751  0.0608
11247W        W54300  15.312   4.762  27.573 -0.0421  0.0051  0.1957
11248W        W54301  28.531  16.140  28.120  0.0228  0.0330  0.1749
11249W        W54302  26.096   1.092   9.980 -0.3087 -0.2007  0.0368
11250W        W54303  17.440  10.976   2.580 -0.1308  0.2317  0.1058
11251W        W54304  11.365  33.237   2.100 -0.1324  0.2251 -0.1675
11252W        W54305  21.274  13.432  23.826  0.1116  0.0176  0.0182
11253W        W54306  17.571  16.432   3.238  0.0050  0.0126  0.1747
11254W        W54307  18.727  27.563   0.841 -0.1028 -0.0165 -0.0455
11255W        W54308  23.127   9.540  25.805 -0.1112 -0.0173  0.2319
11256W        W54309  22.700   0.270  10.855 -0.3530 -0.0371  0.3771
11257W        W54310  25.620  18.051   5.362 -0.0506 -0.0846 -0.0466
11258W        W54311   4.320   5.030  28.676 -0.0680  0.1363  0.0497
11259W        W54312  22.690  10.306   9.240 -0.0382  0.2506 -0.2968
11260W        W54313  21.050   4.945  10.295 -0.1878 -0.0530 -0.1072
11261W        W54314  21.579  19.548   2.920  0.0111 -0.2738 -0.3361
11262W        W54315  22.326  10.790   8.242  0.0937 -0.1076 -0.1027
11263W        W54316  18.586   6.860   2.591 -0.1891 -0.0355  0.3948
11264W        W54317  27.119  19.037   8.318  0.0084 -0.2163  0.1267
11265W        W54318  20.649  10.562  26.241 -0.1235 -0.0269 -0.0569
11266W        W54319  31.767   7.369   4.957  0.0162  0.0352  0.0939
11267W        W54320  21.976  32.744   0.577 -0.0193 -0.2654 -0.1454
11268W        W54321  16.591   4.513   9.795 -0.2871  0.0644 -0.3270
11269W        W54322  18.484   8.232   3.730  0.0504  0.1763 -0.0293
11270W        W54323  20.025  22.739   9.391 -0.2212 -0.1475 -0.1640
11271W        W54324  11.465  16.902   3.205 -0.3432 -0.2457 -0.3949
11272W        W54325  26.313  33.439   1.014 -0.1523  0.1803  0.2246
11273W        W54326  21.493  13.509   6.575  0.0532 -0.0595 -0.1940
11274W        W54327  28.625   0.574   2.820 -0.0685  0.0053  0.2515
11275W        W54328  21.334  28.391   2.290  0.0474  0.1634 -0.0938
11276W        W54329  19.145   3.928   9.299  0.0436  0.1542  0.1635
11277W        W54330  30.843  21.036   0.274  0.1529  0.0874 -0.3683
11278W        W54331  17.576   4.731   9.259  0.0645  0.1073 -0.3144
11279W        W54332   7.599  12.389   8.382 -0.0617 -0.2168  0.2639
11280W        W54333  31.847  30.891   2.934 -0.0473  0.0323  0.3740
11281W        W54334  29.309  25.671   8.139  0.2662 -0.3652 -0.1254
11282W        W54335  21.699  16.148   7.032  0.1233 -0.1879 -0.1082
11283W        W54336  14.572  15.790  23.416 -0.0685 -0.0706 -0.1395
11284W        W54337   6.531  15.031  24.234  0.4233 -0.0438  0.0519
11285W        W54338  21.465   6.855  28.806 -0.1214 -0.0685 -0.1816
11286W        W54339  28.711  25.182   1.907  0.1036  0.1377  0.2027
11287W        W54340   7.371  32.993   0.455  0.0768  0.0351 -0.1310
11288W        W54341  23.963  13.131   3.257 -0.0006 -0.4078  0.0587
11289W        W54342  25.605  20.913   7.766  0.0457 -0.0205 -0.1250
11290W        W54343  30.568  21.619  22.453  0.0921 -0.2866 -0.1788
11291W        W54344  21.752   9.401  18.494  0.0889  0.0772  0.1472
11292W        W54345  12.325  22.464   9.204  0.2988  0.3459 -0.2245
11293W        W54346  17.754   9.482   2.269 -0.3458  0.0343 -0.0942
11294W        W54347  28.777   2.160   6.836  0.0913 -0.2527 -0.2620
11295W        W54348  31.388  25.125   5.008 -0.2138  0.1473 -0.1720
11296W        W54349  16.927   2.430   3.063  0.3193 -0.1692  0.0374
11297W        W54350  24.472  29.002   7.006  0.0960  0.1950 -0.1501
11298W        W54351  21.105  16.008   5.541  0.1263  0.0248 -0.1786
11299W        W54352  25.782  34.401  10.161 -0.4646 -0.1265  0.0209
11300W        W54353  17.346  12.382   5.452 -0.1191 -0.1510  0.0669
11301W        W54354  14.900   4.590   4.321 -0.2897 -0.1564 -0.1003
11302W        W54355  19.250  34.089  25.472  0.0299  0.0318 -0.1315
11303W        W54356  22.275  15.871   5.563 -0.3664  0.0789 -0.1715
11304W        W54357  28.003  34.131  17.177 -0.2107 -0.2548 -0.0102
11305W        W54358  24.587  14.362   0.921  0.1579  0.0976  0.1173
11306W        W54359   9.808  33.836  24.962  0.0848 -0.2341 -0.2953
11307W        W54360  25.536  14.587   3.823 -0.0838 -0.1124 -0.0021
11308W        W54361  32.975   9.070   5.998 -0.0134  0.0504 -0.3466
11309W        W54362  34.326   8.018   8.198 -0.2326 -0.1912  0.2768
11310W        W54363  11.084  33.876   9.740  0.3678 -0.1320  0.0976
11311W        W54364  33.730  11.962   7.897  0.2689  0.1443 -0.0598
11312W        W54365  31.426  10.107   9.737 -0.0208 -0.1011  0.1810
11313W        W54366  18.952  10.579   3.663  0.0236 -0.2493 -0.0838
11314W        W54367   9.963   1.585   4.971  0.0197  0.0589 -0.1425
11315W        W54368  14.129  34.561   0.547  0.0851  0.1599 -0.0166
11316W        W54369  19.449  11.173   5.276  0.3260 -0.2375 -0.3687
11317W        W54370  26.551   9.252  10.557 -0.2398  0.0908  0.0964
11318W        W54371  31.658   2.156   5.741 -0.0697  0.0497  0.5083
11319W        W54372  30.283  27.714  27.983  0.2108  0.3220 -0.0422
11320W        W54373   9.892   6.391   9.137  0.1923  0.0195  0.3500
11321W        W54374   8.374  10.389  24.472 -0.3625  0.1134  0.4236
11322W        W54375  25.461  14.463   9.136 -0.0824 -0.1236  0.0796
11323W        W54376  20.872   9.306   8.179  0.0357  0.3260 -0.1529
11324W        W54377  28.229  17.666   9.088  0.1015 -0.2128  0.2687
11325W        W54378   9.288   9.400  11.177  0.1597 -0.0068 -0.3064
11326W        W54379  16.375  33.192   4.562  0.0943  0.1964  0.0444
11327W        W54380  14.702   8.300   7.583  0.0572  0.0186 -0.1845
11328W        W54381   7.687   3.398   8.110  0.0832 -0.3137 -0.2049
11329W        W54382  33.682  27.957  26.308  0.1315 -0.1206 -0.1218
11330W        W54383  12.107   2.305   5.699  0.3539 -0.1609  0.1335
11331W        W54384  23.176  21.105   2.411  0.1205  0.0902 -0.2666
11332W        W54385  18.213  12.158  25.056  0.1974 -0.2584 -0.0042
11333W        W54386   7.843   9.346  28.885 -0.1028 -0.3937 -0.1005
11334W        W54387  20.384  17.238   5.052 -0.1872  0.0056  0.2340
11335W        W54388  31.731  17.931   1.534 -0.0653 -0.0370  0.3323
11336W        W54389  31.245   4.249   0.296 -0.0828 -0.2081 -0.3895
11337W        W54390  31.762  10.515   9.612  0.2447  0.0662 -0.0490
11338W        W54391  26.623   5.902   4.141  0.2707 -0.0598 -0.1884
11339W        W54392  17.665   9.440  10.293 -0.3321  0.1262  0.0745
11340W        W54393  27.304   6.219  26.241 -0.0629 -0.1256  0.1153
11341W        W54394  24.055   5.374  27.721 -0.1544 -0.2512  0.0961
11342W        W54395  19.507   5.527   3.839  0.1786 -0.1223  0.1601
11343W        W54396  23.199  23.384  18.112 -0.0048 -0.2695  0.0189
11344W        W54397  28.256  34.367   5.096 -0.2975  0.1367  0.0695
11345W        W54398  19.949  33.106   9.191 -0.0783  0.1026  0.1378
11346W        W54399  16.053  11.358   6.184  0.0052  0.1417  0.0096
11347W        W54400   7.959   8.655   3.731 -0.0712 -0.2121  0.1549
11348W        W54401  29.397  14.876   0.668 -0.2452  0.0626 -0.5156
11349W        W54402  17.491  16.941   4.759  0.1455  0.0638  0.2218
11350W        W54403  23.593  15.700  27.270  0.2592 -0.2450 -0.0430
11351W        W54404  14.379  12.203  27.194 -0.0264 -0.1049  0.0768
11352W        W54405   4.827  26.927   8.868 -0.2933 -0.2559  0.1705
11353W        W54406  16.941  32.481   3.763  0.1127 -0.1052 -0.1408
11354W        W54407  16.152  12.287  25.410 -0.0598  0.0237  0.3162
11355W        W54408  21.054   6.839  22.608 -0.1137 -0.3047  0.2473
11356W        W54409  20.543   7.722   1.882  0.2649  0.3349  0.0191
11357W        W54410  16.411  26.844  24.131 -0.2984  0.0106 -0.3454
11358W        W54411  19.925   8.791   5.044 -0.2076  0.3662  0.0773
11359W        W54412   8.032  13.057   8.627  0.0863 -0.3394  0.0546
11360W        W54413   2.283  31.630   1.789 -0.1483  0.1371  0.0197
11361W        W54414  18.359   8.299   8.452  0.1691 -0.1068 -0.0069
11362W        W54415  15.497  26.693   6.928  0.1361 -0.0698  0.1258
11363W        W54416  12.735  18.773   8.449 -0.2421  0.0247 -0.0277
11364W        W54417  33.313  11.282   5.714 -0.2125 -0.0786 -0.3911
11365W        W54418  14.038  14.303  28.922 -0.1674 -0.1020 -0.0555
11366W        W54419  23.794  12.547   6.286  0.1072 -0.0698  0.1252
11367W        W54420  20.426  12.756   8.323 -0.0263 -0.1103 -0.0854
11368W        W54421  16.181   9.767   1.042  0.1688  0.0054 -0.0693
11369W        W54422  23.401  26.094  22.866 -0.1899 -0.2712  0.0872
11370W        W54423  26.835  28.414  18.865  0.0585 -0.0441  0.2068
11371W        W54424   2.295  33.780   7.125  0.1402 -0.1209 -0.0785
11372W        W54425   8.379  24.545   7.404  0.1343 -0.0423 -0.0415
11373W        W54426  31.545  26.231  27.978  0.1390 -0.1711 -0.1833
11374W        W54427  15.349   9.333   6.635 -0.0234 -0.0972 -0.1498
11375W        W54428  23.304   4.195  28.827 -0.2515 -0.1599 -0.2926
11376W        W54429  25.953  14.792  26.838  0.2595  0.4672 -0.0604
11377W        W54430  21.898   8.277   3.951 -0.1535  0.0281  0.1000
11378W        W54431  24.042  12.633  25.949 -0.0820 -0.0402  0.2474
11379W        W54432  18.438   3.939  26.516 -0.2811  0.1890 -0.0336
11380W        W54433   5.724  33.373   6.859 -0.0279 -0.2292 -0.1693
11381W        W54434  28.218   2.582  22.006 -0.1579 -0.0060  0.1903
11382W        W54435  26.173  22.730  16.929 -0.0753  0.0091 -0.0505
11383W        W54436  15.327   5.569   9.810  0.0177  0.4048  0.0701
11384W        W54437  21.924   8.957  18.036 -0.1017  0.0127 -0.0241
11385W        W54438  13.701  14.024   3.791 -0.1972 -0.3932  0.0743
11386W        W54439   4.231   2.942   2.952 -0.2378 -0.2072  0.0307
11387W        W54440  32.008  14.396   9.859 -0.2081 -0.0836 -0.0621
11388W        W54441  18.932  33.584  23.589 -0.0108 -0.3092  0.1325
11389W        W54442  17.101  22.836   1.233  0.1015  0.0639  0.1162
11390W        W54443  18.559  34.183   4.765  0.2145 -0.0171  0.3198
11391W        W54444  27.156   1.471   0.060  0.1510  0.0884  0.0820
11392W        W54445  27.314   5.298   2.628 -0.4515 -0.1272  0.0401
11393W        W54446  17.229  16.299   7.708  0.0371 -0.2892  0.0174
11394W        W54447  23.213  10.224  26.769  0.1858 -0.2079  0.0963
11395W        W54448   8.605  12.033   4.300  0.0555  0.0953 -0.3258
11396W        W54449  28.508   2.033  16.461  0.0103  0.0392  0.0628
11397W        W54450   6.621  15.219   9.819  0.3636  0.1134  0.0229
11398W        W54451  25.173  12.841   5.249 -0.1291  0.1461 -0.0892
11399W        W54452  25.985   6.065   0.429 -0.2629 -0.1683 -0.2375
11400W        W54453  12.718  12.891   6.345  0.1936 -0.0119 -0.0294
11401W        W54454  27.481  32.876   3.729 -0.2485  0.1257  0.0417
11402W        W54455   5.597  10.727  14.090 -0.1880  0.2647 -0.0058
11403W        W54456   9.928  32.679   8.556  0.0784 -0.1015 -0.2957
11404W        W54457  16.291  12.198   1.995  0.1297 -0.1589  0.3365
11405W        W54458  30.344  10.087   7.586 -0.1851  0.0774 -0.0275
11406W        W54459   0.664  30.297   7.098 -0.0067  0.1035  0.4254
11407W        W54460   9.577   0.560   3.789  0.1651 -0.2620  0.0277
11408W        W54461  18.240  18.188   3.641  0.2152  0.0855  0.2427
11409W        W54462  26.089  24.398   7.206 -0.0586 -0.5437  0.0387
11410W        W54463  13.084  10.594   1.211 -0.1620 -0.1328  0.3757
11411W        W54464  22.832   6.634   6.248 -0.1283 -0.1240  0.3690
11412W        W54465  33.847   2.305  17.778  0.0158  0.0099  0.1006
11413W        W54466  22.852   8.611   7.213 -0.2446  0.1133  0.0353
11414W        W54467   3.391  16.459  18.589  0.0979  0.0514 -0.1251
11415W        W54468  28.319  17.519  27.142  0.1102 -0.0719 -0.2158
11416W        W54469  16.838  14.044   7.533 -0.0666 -0.2412  0.0071
11417W        W54470  18.270  34.109   5.214 -0.0778  0.0838 -0.0495
11418W        W54471   1.836  12.526   5.512 -0.1348 -0.3003 -0.4706
11419W        W54472  33.979  15.607  19.132 -0.2008 -0.2663  0.2252
11420W        W54473  10.601   2.103   7.092 -0.0452  0.1357 -0.1272
11421W        W54474  19.266  11.120  23.909  0.1754  0.3117  0.0575
11422W        W54475  32.078  14.904  21.759  0.4204 -0.2015 -0.2315
11423W        W54476  31.766  27.573  26.188  0.2106  0.1859 -0.0436
11424W        W54477  13.875   8.971   7.023 -0.2343  0.2628  0.2631
11425W        W54478  14.241  23.445  21.329 -0.4193 -0.1402 -0.3728
11426W        W54479  10.945  34.295  28.939 -0.0520 -0.1006 -0.3462
11427W        W54480  32.139  17.477   3.856 -0.0412  0.2788  0.0906
11428W        W54481   8.894  34.309   2.583 -0.2789 -0.1099  0.0301
11429W        W54482  16.150  12.914  27.884  0.2091 -0.4437  0.0558
11430W        W54483  15.782  10.764  27.739 -0.1504 -0.0344  0.1187
11431W        W54484  24.088  21.539  14.694  0.1852  0.1825 -0.1497
11432W        W54485  11.631   8.564   9.586 -0.1975  0.0458  0.3753
11433W        W54486  20.921   7.586   7.787  0.1750 -0.1498  0.2851
11434W        W54487   5.744  14.537   7.442  0.0559 -0.4734 -0.2573
11435W        W54488  19.835  11.145   3.191 -0.1537 -0.0554 -0.0634
11436W        W54489  24.081   4.551   4.784 -0.0042 -0.0260 -0.0918
11437W        W54490  20.862   5.349  10.460  0.1585 -0.2383 -0.0347
11438W        W54491  25.610  13.286  25.388 -0.3327  0.1196 -0.0802
11439W        W54492  28.174   3.145  28.205 -0.4509  0.2801  0.0966
11440W        W54493  20.901   8.970  18.319 -0.1079  0.1034  0.1899
11441W        W54494  28.032  17.738  19.967 -0.0628  0.0699 -0.1140
11442W        W54495  20.714  10.036   4.057 -0.0385 -0.0340  0.4251
11443W        W54496  31.495  18.459  19.826 -0.1720 -0.0851  0.0420
11444W        W54497  28.302   7.454  26.092 -0.1220  0.1659 -0.0984
11445W        W54498  23.316   4.321  19.153 -0.2237  0.3257 -0.0265
11446W        W54499   7.433   0.420  23.585 -0.0840 -0.1200 -0.1574
11447W        W54500  14.001   9.125  16.692 -0.2019  0.2377  0.1160
11448W        W54501  31.363  20.895   7.246 -0.0741  0.0671  0.0977
11449W        W54502  13.710  32.262   8.203  0.0504  0.2233  0.0947
11450W        W54503  34.452  11.191  22.598  0.4429  0.0039 -0.0778
11451W        W54504  31.363  12.720  24.813 -0.1833 -0.1500 -0.1496
11452W        W54505  25.504  11.578  14.026  0.1330 -0.2303  0.0185
11453W        W54506  25.806   4.557   5.207 -0.0819  0.1066 -0.0310
11454W        W54507  32.740   7.481   5.043 -0.0148 -0.2355 -0.0613
11455W        W54508  23.704  26.033  23.274  0.0520 -0.3128  0.1748
11456W        W54509  22.262  20.284  28.317 -0.1304  0.0974 -0.0474
11457W        W54510   8.602  12.950   3.307  0.2072  0.1489 -0.0431
11458W        W54511  11.544   3.901   1.702 -0.1236 -0.0712 -0.3382
11459W        W54512  25.088   8.339   7.664  0.1078 -0.0005  0.1142
11460W        W54513  29.142  19.682  25.690 -0.2146  0.1363  0.0231
11461W        W54514  26.226   3.807   2.472  0.0047 -0.3178 -0.1750
11462W        W54515  19.560   5.746   5.818 -0.0125 -0.2183 -0.2339
11463W        W54516  11.111  33.703   9.037 -0.1147  0.3271  0.0302
11464W        W54517  11.146  22.137  26.452  0.5726  0.2406 -0.0483
11465W        W54518  20.598   5.571   8.925 -0.2654  0.0541 -0.3575
11466W        W54519  28.913   8.840   8.530 -0.0804  0.0208 -0.0044
11467W        W54520  21.279  13.153   8.581 -0.0964  0.1257 -0.0481
11468W        W54521  23.786  30.056   9.365  0.0972 -0.0789 -0.0690
11469W        W54522  16.518  19.034   8.468 -0.2044 -0.0874 -0.1268
11470W        W54523  32.698   0.402   9.359 -0.4227 -0.1547 -0.0874
11471W        W54524  22.390   2.831   1.911  0.0107 -0.2789 -0.1038
11472W        W54525  26.298  22.971  28.273  0.0467  0.1027 -0.1909
11473W        W54526  30.820   4.107  28.431 -0.3549  0.2928 -0.0347
11474W        W54527   4.370  10.350  20.392 -0.0725  0.0725 -0.5248
11475W        W54528  17.312  10.886   6.526  0.2153  0.3636 -0.0171
11476W        W54529  13.392  18.657   9.681 -0.2454 -0.0369 -0.2076
11477W        W54530  18.621  10.530   1.968  0.0170  0.2374 -0.0325
11478W        W54531  11.645  34.292   2.360  0.1931 -0.0352  0.2996
11479W        W54532  27.457   9.503  23.387  0.0264 -0.0250 -0.2672
11480W        W54533  23.078   0.776   9.746  0.1715  0.0480 -0.0563
11481W        W54534  20.174  15.588   2.457  0.2011  0.1485 -0.0313
11482W        W54535  15.604   8.402   7.076 -0.1189 -0.0425 -0.0987
11483W        W54536  25.776  20.644  28.861  0.2386  0.1944 -0.0936
11484W        W54537  13.355   8.383  28.321 -0.0242 -0.0274 -0.3933
11485W        W54538  10.190   8.928  26.879  0.1034  0.0124 -0.0735
11486W        W54539  32.207   1.450  18.432  0.1936 -0.2214  0.2464
11487W        W54540  15.168  11.417   6.084  0.2945 -0.0090 -0.2283
11488W        W54541  32.498   6.378   1.201 -0.2270 -0.0564  0.2838
11489W        W54542  24.711  22.866   7.599  0.0120  0.1400  0.3455
11490W        W54543  14.625  14.387  10.639 -0.1023 -0.0329  0.1347
11491W        W54544  19.656   1.137   4.477  0.0842  0.2395 -0.1705
11492W        W54545  14.592  10.427   7.151  0.1558  0.0666 -0.0224
11493W        W54546  21.288  28.790   9.013  0.0527 -0.1826  0.3954
11494W        W54547  11.293  32.623   5.092 -0.0608 -0.2284  0.0239
11495W        W54548  27.288  10.271   9.663 -0.1049 -0.1768 -0.0938
11496W        W54549  26.599  26.427   6.216 -0.0011  0.0990 -0.2417
11497W        W54550  15.065  30.866   6.645  0.0663 -0.1348 -0.0579
11498W        W54551  19.559  12.500   9.069  0.1049 -0.0847 -0.0597
11499W        W54552  13.408  27.436   4.526 -0.0162  0.0651  0.0981
11500W        W54553   6.376  26.545  25.508  0.0832  0.1318  0.0094
11501W        W54554  17.708  11.567  10.635  0.2989  0.1075 -0.1257
11502W        W54555  13.022   1.077   2.556 -0.1225  0.0268  0.0738
11503W        W54556  34.277   2.345   1.718 -0.1117  0.1653  0.0708
11504W        W54557  21.390  23.649  17.739 -0.1075 -0.1041  0.2004
11505W        W54558  27.232  26.729   8.340 -0.0264  0.1365  0.0349
11506W        W54559  10.862  20.060  13.986 -0.1541 -0.1278 -0.0852
11507W        W54560  16.383   2.840  25.178 -0.1532  0.1453  0.0444
11508W        W54561  31.935   2.324   4.158  0.1331 -0.0634 -0.0474
11509W        W54562  31.459  12.954   8.653  0.1226  0.1123  0.0272
11510W        W54563  20.674  10.377   6.654  0.1901  0.2756 -0.0206
11511W        W54564  13.067   7.638   9.401  0.0711  0.0045  0.0449
11512W        W54565   7.633   3.874   8.004  0.1083 -0.0990 -0.0543
11513W        W54566  30.841  15.440   6.759 -0.1874  0.1171 -0.1209
11514W        W54567  14.653  16.017   5.137  0.0878  0.1985  0.0193
11515W        W54568  29.201   0.881   2.565  0.4046 -0.1657  0.0849
11516W        W54569  16.028  17.476   9.375 -0.0509 -0.0210 -0.1210
11517W        W54570   9.885  11.598   3.840  0.4592  0.1417 -0.0422
11518W        W54571  27.947  34.396   1.820 -0.0359 -0.0356  0.0881
11519W        W54572   3.610  11.675   1.197 -0.1626  0.0374 -0.1165
11520W        W54573   7.743  18.929  23.404  0.0887  0.0338  0.0948
11521W        W54574  15.635  13.665   6.654  0.0580  0.0710 -0.2561
11522W        W54575  26.674  10.044  22.402  0.0819 -0.1300 -0.1981
11523W        W54576   4.728  32.078   2.031  0.3015 -0.3147 -0.0849
11524W        W54577  26.394   3.856  26.861 -0.2668 -0.0816  0.2640
11525W        W54578  17.912  12.687   7.453 -0.0402 -0.4619 -0.0185
11526W        W54579  21.796   6.846   5.707 -0.0588  0.3852 -0.0774
11527W        W54580  16.871  14.144  23.341  0.0638  0.0439  0.1106
11528W        W54581  13.975  17.204  24.849 -0.0786 -0.0743 -0.1071
11529W        W54582  16.675  28.792   0.961 -0.1439 -0.2605  0.1742
11530W        W54583  25.185  16.768   0.132 -0.0984 -0.0967  0.0183
11531W        W54584  17.922  11.176   1.883  0.0280 -0.1849  0.1591
11532W        W54585  15.391  22.843   7.999  0.0110  0.0938  0.3234
11533W        W54586   1.989  16.733  17.590  0.2961  0.0080 -0.1960
11534W        W54587   0.388   5.076   4.666  0.0395  0.2184  0.1242
11535W        W54588  12.992  28.651  26.740  0.0245 -0.1198 -0.0647
11536W        W54589   5.753   4.713   1.187 -0.1111 -0.1934  0.2524
11537W        W54590  13.360  13.162   9.691  0.1458 -0.1328  0.1799
11538W        W54591  23.915   4.415   8.418 -0.1910 -0.1172  0.0979
11539W        W54592  23.530  29.617   8.267 -0.1933  0.0274  0.1079
11540W        W54593  23.167  28.464  27.195 -0.1563  0.1550  0.1136
11541W        W54594  19.281   2.591   3.530 -0.0806 -0.1474 -0.0695
11542W        W54595   9.705   4.053   5.447 -0.0140 -0.1292  0.1811
11543W        W54596  29.487  16.296  22.075 -0.0576  0.3527  0.2115
11544W        W54597  14.142  16.558   9.683  0.0058  0.3727  0.3822
11545W        W54598  13.814   5.908   9.292 -0.0111 -0.0796 -0.0058
11546W        W54599  14.676  11.220   6.291 -0.1139  0.0002  0.1000
11547W        W54600  16.901   8.562   7.262  0.4304  0.2537  0.0169
11548W        W54601   7.954   6.914   9.835  0.2523  0.2022  0.0172
11549W        W54602  32.586  22.549   4.513  0.1540  0.0772  0.0453
11550W        W54603  32.398  16.336  19.269 -0.0996  0.2152 -0.0620
11551W        W54604  16.673  23.101   3.374 -0.0952 -0.0457  0.0921
11552W        W54605  20.697  16.642  21.225 -0.0709  0.0219 -0.0040
11553W        W54606  29.834   6.765  25.155  0.2754 -0.0671  0.0340
11554W        W54607  22.983  21.981   4.044 -0.0047  0.5038 -0.1185
11555W        W54608  31.893  10.997   0.990 -0.1267  0.0333 -0.0229
11556W        W54609  16.428  28.377   5.709  0.0793  0.3177  0.0345
11557W        W54610  27.274  27.198  25.393  0.0434 -0.0448 -0.0343
11558W        W54611  14.780  20.597   9.061  0.4374  0.1079 -0.2180
11559W        W54612  24.489  32.549   9.221  0.1525 -0.0514  0.1272
11560W        W54613  27.249   5.241   3.124 -0.0448  0.2156  0.0840
11561W        W54614  18.005  34.034   7.385 -0.0788  0.1324  0.2806
11562W        W54615  17.642   2.791   6.732 -0.4832  0.2221 -0.3242
11563W        W54616   2.577   6.801   8.638 -0.1565  0.0307  0.1342
11564W        W54617   9.468   5.116   8.880  0.0067 -0.0121  0.1788
11565W        W54618  26.852  11.982   3.161 -0.2990 -0.0905 -0.3613
11566W        W54619  17.581  14.546  26.008 -0.0645  0.1394 -0.2898
11567W        W54620  23.706  29.498   6.861 -0.0425 -0.2772 -0.2327
11568W        W54621  23.011   9.104  23.132  0.1346  0.0258  0.0209
11569W        W54622  23.043  21.907  24.788 -0.2355 -0.0201  0.0445
11570W        W54623  15.499  14.638   5.780  0.0351 -0.2685 -0.1304
11571W        W54624   2.851  18.508   3.513  0.2384 -0.2718 -0.1222
11572W        W54625  20.864  14.361   8.281  0.1103 -0.1640  0.1853
11573W        W54626  12.640  14.026  25.256 -0.0303 -0.3075  0.4327
11574W        W54627  27.054   7.431   6.921 -0.0892  0.3778 -0.0791
11575W        W54628  26.014  13.054   3.170  0.0664  0.1082  0.3243
11576W        W54629  20.981  10.211   8.763  0.2671  0.3464  0.0198
11577W        W54630  13.696  10.252  28.308  0.1374 -0.1417 -0.2069
11578W        W54631  26.061  18.401  23.561  0.1900  0.1451  0.1089
11579W        W54632  19.790  11.051  10.234 -0.2442  0.2387 -0.1585
11580W        W54633  17.410   0.944  16.084  0.0209 -0.4091  0.3687
11581W        W54634  21.110  13.889   6.522  0.1297  0.1647  0.1154
11582W        W54635  23.847  10.016  20.692 -0.1539  0.0521 -0.1917
11583W        W54636  17.552  14.419  28.500  0.0467 -0.2036  0.2452
11584W        W54637  20.609  31.359  25.216 -0.2450  0.1145  0.1149
11585W        W54638  33.108   9.244   6.478 -0.0629 -0.0770  0.2049
11586W        W54639  22.389  20.432  27.522 -0.1817 -0.1070 -0.0175
11587W        W54640  25.286   6.413  21.539  0.0004 -0.0320  0.0711
11588W        W54641  33.118  21.522  25.366  0.0214 -0.2274  0.0882
11589W        W54642  13.022   8.501   8.296 -0.0848 -0.2662  0.0542
11590W        W54643  27.375   7.717   5.567  0.0899  0.1607  0.0894
11591W        W54644   1.323  14.138   4.356 -0.1374  0.0099 -0.3232
11592W        W54645  17.215   3.608  26.024  0.0048  0.1008  0.0068
11593W        W54646  23.009  32.298   7.049 -0.1183  0.3803  0.2361
11594W        W54647  10.957   2.565   8.444  0.1481 -0.3170  0.0295
11595W        W54648  18.798  18.658   8.536  0.1286 -0.1587 -0.2492
11596W        W54649  25.168  24.907  28.113  0.1212  0.0067  0.0757
11597W        W54650   0.616   4.049  16.990  0.1827  0.0090 -0.2751
11598W        W54651  26.859   9.622   6.713  0.0086  0.0679  0.0401
11599W        W54652  20.772  25.184   1.304  0.2210  0.1273  0.1723
11600W        W54653  20.942   3.414   2.711  0.0751  0.1788  0.0616
11601W        W54654  21.471  24.796  21.597 -0.2233  0.1878  0.2747
11602W        W54655  23.522  12.901  25.418 -0.0308  0.1427 -0.2581
11603W        W54656  27.296  23.049   8.457  0.3971 -0.0042  0.0097
11604W        W54657  27.216  33.980   8.360 -0.0983 -0.3408 -0.0302
11605W        W54658   6.048  22.806   7.822 -0.1214 -0.3005  0.1555
11606W        W54659   9.459   1.344  23.893  0.0678  0.1033  0.2754
11607W        W54660  20.562  14.047   5.717 -0.0342  0.0874  0.0731
11608W        W54661  23.916  20.923   9.495 -0.1997 -0.0875 -0.1807
11609W        W54662  34.314  18.187   7.108  0.1184  0.2015 -0.2097
11610W        W54663  32.677   4.487   3.534 -0.0541 -0.2411  0.1909
11611W        W54664  30.726   2.827   8.119 -0.0806 -0.0826 -0.2548
11612W        W54665  22.501  30.621   2.387 -0.0930 -0.2543 -0.0619
11613W        W54666  23.580  20.032  26.824 -0.0599 -0.0173  0.0170
11614W        W54667  24.080  11.971  27.610 -0.2313  0.1974 -0.1087
11615W        W54668   5.390  15.606   4.126  0.1689  0.0739 -0.0053
11616W        W54669  18.614  13.393   2.636  0.0878 -0.0173  0.1799
11617W        W54670  24.107  16.583  26.712  0.2837 -0.2016 -0.1624
11618W        W54671  29.991  15.003   9.224 -0.2260 -0.2233 -0.0554
11619W        W54672  20.205  20.767   6.871 -0.4672 -0.0174 -0.0382
11620W        W54673  23.934  17.809  20.771 -0.0426  0.1267  0.5175
11621W        W54674  21.399   5.685  23.607  0.2271  0.2509  0.1514
11622W        W54675  16.720  14.944  26.116 -0.0527  0.1749  0.0234
11623W        W54676   0.996   4.590   4.785  0.0804  0.1317 -0.0261
11624W        W54677  27.022   5.405   7.295 -0.1932 -0.1486  0.1719
11625W        W54678  29.510  11.064   2.783  0.0012  0.0601 -0.2325
11626W        W54679  21.013  15.326   6.614 -0.0572  0.1287  0.3572
11627W        W54680  32.298  21.849   4.875 -0.2390 -0.3650 -0.0119
11628W        W54681   2.926  28.449  28.008 -0.0368 -0.0754 -0.1159
11629W        W54682  11.543  33.994   3.919  0.1824  0.0070  0.1959
11630W        W54683  13.807  33.089  22.616  0.0352  0.0430  0.1046
11631W        W54684  28.649  34.513   3.079 -0.2300  0.0655  0.0552
11632W        W54685  11.856  24.293  28.772  0.1457  0.1139 -0.0335
11633W        W54686  22.127  12.855  20.110 -0.1048 -0.2019 -0.0078
11634W        W54687  11.843   9.264   3.170  0.0944  0.1601 -0.0082
11635W        W54688  18.084   0.568   5.222 -0.1585  0.2973  0.3775
11636W        W54689   9.817   1.037   9.026  0.1646 -0.0580 -0.0389
11637W        W54690   7.164   9.266   7.567 -0.2641 -0.0763 -0.1502
11638W        W54691  20.150   5.606   2.863 -0.4480 -0.2697  0.2106
11639W        W54692  23.911  18.064  18.731  0.0629 -0.1254  0.2107
11640W        W54693  15.269  17.844   8.958 -0.1927 -0.0297  0.1644
11641W        W54694  22.970  32.391   6.157  0.2450  0.0219  0.0850
11642W        W54695  20.060  14.436   6.209  0.1937 -0.0113 -0.0283
11643W        W54696  15.371  19.204   0.306  0.1527 -0.1093  0.3458
11644W        W54697  30.640   2.771   0.473 -0.0995 -0.1579 -0.2096
11645W        W54698  17.859  23.967  24.504 -0.2435  0.1823  0.1602
11646W        W54699  24.334  19.936   1.941  0.2552  0.1409  0.2258
11647W        W54700  26.604  23.305   4.299  0.1938  0.1335 -0.0693
11648W        W54701  16.111  29.586   3.158  0.2146  0.2289  0.0952
11649W        W54702  17.157   5.861   6.086  0.0361  0.1311 -0.1151
11650W        W54703  26.925  13.422   9.784  0.1700 -0.0758  0.0083
11651W        W54704  20.075  30.306   1.799  0.0206  0.0334  0.2794
11652W        W54705   4.054   4.368  17.217  0.0480 -0.0261 -0.2106
11653W        W54706  11.539   9.340  24.996  0.0719 -0.6475 -0.0506
11654W        W54707  14.319   9.254   5.915 -0.1621 -0.0964  0.0152
11655W        W54708  23.477  27.165  24.691  0.1507  0.1118  0.0776
11656W        W54709  16.375   5.492   7.476 -0.1256 -0.2002 -0.4285
11657W        W54710   8.323   2.549  10.006  0.1005 -0.1239  0.3942
11658W        W54711  22.744  21.763  27.672  0.2842 -0.0389  0.1883
11659W        W54712  31.550   1.605   4.597 -0.0598 -0.0716  0.0201
11660W        W54713  27.852  32.323   5.933  0.1596  0.1216 -0.0185
11661W        W54714  14.279  32.318   8.844 -0.0873  0.1147 -0.1483
11662W        W54715  20.733   8.505   1.457 -0.0964 -0.0202  0.0860
11663W        W54716  11.789  18.254   0.655  0.3602 -0.0339 -0.3458
11664W        W54717  14.871  11.414   5.353 -0.1531 -0.0359  0.0348
11665W        W54718  11.464  17.477   4.928  0.2052  0.3957 -0.1028
11666W        W54719  17.810   3.567   9.558 -0.0172 -0.0419 -0.1509
11667W        W54720  22.435   4.148   7.051  0.3896  0.1858 -0.2382
11668W        W54721  34.090  13.218  28.784  0.3931 -0.1584  0.2237
11669W        W54722  27.929   4.746   4.264  0.2581  0.1536  0.2315
11670W        W54723  12.314   1.781   6.033  0.2021 -0.2691 -0.2420
11671W        W54724  16.233   2.640   3.678  0.1896  0.1441 -0.1846
11672W        W54725  19.032   8.165   0.018  0.1710 -0.1962 -0.2340
11673W        W54726  28.677  27.834   6.892 -0.5223  0.0441  0.0886
11674W        W54727  17.250   3.405   3.101  0.1152  0.1517 -0.1041
11675W        W54728  20.523   9.865   5.456 -0.3903  0.2826 -0.0816
11676W        W54729  10.731  18.347   9.714  0.0447  0.1843  0.0570
11677W        W54730  17.971  22.600   7.385 -0.1187  0.4060 -0.3319
11678W        W54731  31.088  27.474   1.409 -0.2366  0.0730  0.0886
11679W        W54732  27.605  15.708   3.104 -0.0005  0.0107  0.2987
11680W        W54733  32.859  10.177   4.390  0.2306 -0.0898 -0.2135
11681W        W54734   4.962  16.237   0.141 -0.0677  0.0783 -0.0044
11682W        W54735  31.500  24.552  26.076  0.1074  0.1222  0.1337
11683W        W54736  11.548  10.267   4.575  0.0622 -0.2157 -0.2776
11684W        W54737  23.944   2.924  27.665  0.1531  0.1700  0.2883
11685W        W54738   1.146  13.323   0.385 -0.0442  0.0548  0.2266
11686W        W54739  25.830   6.816   3.660 -0.0031 -0.1008  0.0316
11687W        W54740  27.700  10.554   7.987 -0.1180 -0.1147  0.1039
11688W        W54741  22.847  28.597   4.160 -0.2923 -0.3369 -0.2738
11689W        W54742  22.756  33.047   4.563  0.2162  0.0404 -0.3147
11690W        W54743  13.951  21.847   4.744 -0.1893 -0.0172  0.0101
11691W        W54744  24.144  19.296   1.290  0.0224  0.1555 -0.0592
11692W        W54745  24.265  17.454   2.491 -0.3093 -0.3010 -0.0154
11693W        W54746  26.790  32.230   7.155 -0.1425 -0.1771  0.0586
11694W        W54747  28.796  16.460  28.974  0.0888 -0.1191 -0.0830
11695W        W54748  23.991  16.184   2.802  0.2078  0.0181  0.3429
11696W        W54749   1.177   7.991  19.940  0.1890 -0.2209  0.2976
11697W        W54750   5.798  25.023   3.929 -0.1136  0.0750  0.0194
11698W        W54751  29.712   7.132  16.411  0.1055  0.2140  0.1776
11699W        W54752  27.286  15.267   3.217  0.1734  0.1291 -0.0422
11700W        W54753  23.947   7.798   7.841  0.0532  0.1333 -0.1478
11701W        W54754  13.154   9.909  26.329  0.0366  0.0496 -0.2937
11702W        W54755   8.787  21.626   8.209  0.0267  0.1532  0.1406
11703W        W54756   3.877  11.161  22.844  0.0391 -0.3050 -0.0485
11704W        W54757  11.460   3.577   8.121 -0.1886 -0.0393  0.0009
11705W        W54758  25.737   2.499  10.494 -0.1426  0.0441  0.3050
11706W        W54759  23.132  19.324  28.088 -0.0551 -0.0731  0.1485
11707W        W54760  21.871   2.345  10.868  0.1338  0.1909  0.1434
11708W        W54761  25.352   3.513   6.769 -0.0842  0.0120  0.2442
11709W        W54762  24.238  19.094  29.003  0.1471 -0.0129 -0.1647
11710W        W54763  11.153  11.006   9.076  0.0459 -0.2328 -0.2954
11711W        W54764  18.364  14.168  28.805 -0.1868  0.3651  0.1961
11712W        W54765  14.830   6.159  10.190  0.0087  0.4689  0.1856
11713W        W54766  14.875  11.892   5.193 -0.3734  0.5296  0.0773
11714W        W54767  31.448  30.073   3.921  0.5134  0.5154 -0.2373
11715W        W54768  32.461  31.009   4.265 -0.1680 -0.1920  0.0533
11716W        W54769  25.995  22.985   1.630 -0.2257 -0.0050 -0.0630
11717W        W54770  24.660  25.671   0.826 -0.1278  0.1490 -0.2079
11718W        W54771  32.737  17.380   5.926 -0.2153 -0.1890 -0.2956
11719W        W54772  23.054   4.895   7.952 -0.1564  0.1968  0.0926
11720W        W54773  18.724   4.900  22.638 -0.0859 -0.0168  0.0521
11721W        W54774  17.625  10.733   3.492 -0.2359 -0.1878  0.0301
11722W        W54775  19.375  10.219   6.237 -0.1004 -0.1771 -0.0969
11723W        W54776  22.844  16.661  15.788 -0.3755  0.0636  0.1585
11724W        W54777  16.865  12.970  21.506  0.0990  0.0241 -0.0593
11725W        W54778  23.131  30.213  28.083 -0.1315  0.0210  0.0772
11726W        W54779  20.800  30.932   3.986 -0.0921 -0.2489  0.0826
11727W        W54780  12.418   2.640   3.136 -0.0021 -0.1629 -0.1855
11728W        W54781   2.853  18.455   2.195 -0.1288 -0.3698 -0.3877
11729W        W54782  13.827   2.654   2.121 -0.0936 -0.1266  0.0369
11730W        W54783  19.977   4.152   8.888 -0.1306 -0.4636  0.1705
11731W        W54784  21.428  29.755   7.713 -0.1604 -0.3512 -0.0067
11732W        W54785   5.588  12.273   7.772 -0.1826 -0.0033  0.3572
11733W        W54786  25.742  13.887   1.202  0.0174  0.2281 -0.0703
11734W        W54787  20.703  17.478   5.827 -0.1930  0.2640  0.2652
11735W        W54788  26.316   4.462   5.864  0.2110  0.0492 -0.0732
11736W        W54789  15.263   5.763   8.984  0.0860  0.2538  0.1787
11737W        W54790  17.499  22.594  28.575 -0.1052  0.2245  0.1780
11738W        W54791  23.026   8.318   6.022 -0.2231  0.2607  0.1283
11739W        W54792  11.534  33.957   9.095  0.2341  0.1557  0.1431
11740W        W54793  27.878   5.785   3.925 -0.0049 -0.0157  0.0678
11741W        W54794  21.670   9.676   8.924  0.3564  0.2995  0.1584
11742W        W54795  34.058  14.691   8.795  0.0502  0.1436 -0.3893
11743W        W54796  18.746   9.695   2.063  0.2541  0.0438  0.0437
11744W        W54797  17.964  16.803   6.541  0.1542 -0.0722  0.0139
11745W        W54798  24.740  21.843   4.141 -0.1928 -0.1890 -0.0987
11746W        W54799  17.501   7.867   3.652  0.0452 -0.2200 -0.2068
11747W        W54800  19.809   6.047   2.726 -0.1854 -0.0028  0.0126
11748W        W54801  20.774  14.041   8.919  0.0819 -0.0650  0.0964
11749W        W54802  30.208   1.158   9.005  0.1107  0.0644 -0.1753
11750W        W54803  23.104  30.478   9.979  0.1995 -0.2002  0.0337
11751W        W54804   2.831   3.633   6.589 -0.1254  0.2853 -0.1249
11752W        W54805  25.210  15.520   4.577 -0.2691  0.0124 -0.1218
11753W        W54806  27.415  25.614   0.030 -0.2307 -0.1497 -0.2349
11754W        W54807  23.555  16.223   7.727 -0.0068  0.2726 -0.2361
11755W        W54808  16.050  30.885  26.391  0.2633  0.0211 -0.1985
11756W        W54809   2.494  23.196   4.384 -0.1626  0.0944  0.3131
11757W        W54810  13.898   9.829   3.842 -0.0919  0.0623  0.2714
11758W        W54811  13.269   7.352   4.182  0.1528  0.0663  0.0690
11759W        W54812  13.026  19.874  10.107  0.0595 -0.1224  0.1885
11760W        W54813  18.987   8.026   0.509 -0.1695 -0.2878  0.2254
11761W        W54814  25.879  18.566   9.178  0.0254 -0.1201  0.0625
11762W        W54815  15.726  12.680   7.707 -0.0691 -0.2733  0.1121
11763W        W54816  19.632  12.035   6.736 -0.4880  0.1292  0.0002
11764W        W54817  11.441  32.435   3.078 -0.0681  0.1794 -0.0686
11765W        W54818   1.903  27.829   5.191  0.1414 -0.1534 -0.0396
11766W        W54819   7.968   5.392  27.122 -0.1066  0.1910 -0.1479
11767W        W54820  21.555  13.875   1.573 -0.0324 -0.0513  0.4805
11768W        W54821  20.151   5.162   2.679 -0.2350  0.1394 -0.0538
11769W        W54822   6.022  16.060   7.257  0.1222  0.1571  0.1923
11770W        W54823  21.760   5.579   4.344 -0.0952 -0.1903  0.3183
11771W        W54824  33.440  13.311   7.472  0.0322  0.3604 -0.1043
11772W        W54825  16.477  15.124  27.469 -0.1689  0.2378  0.3327
11773W        W54826   7.908  17.491  24.833  0.2941  0.1620  0.1925
11774W        W54827  10.244  25.564   8.714 -0.0149 -0.3342  0.2461
11775W        W54828   9.987  32.281   7.021 -0.1050 -0.2044  0.1230
11776W        W54829   9.244  15.582   5.361  0.1507 -0.0564 -0.2750
11777W        W54830   7.145  14.338   5.460 -0.2414 -0.0639  0.1479
11778W        W54831  17.102   9.197  27.101 -0.2184 -0.1902 -0.0860
11779W        W54832  20.483  18.355   5.577  0.1163  0.0334  0.1584
11780W        W54833  22.946  22.223  18.098 -0.2031 -0.2505  0.0123
11781W        W54834  12.123  33.100   0.415 -0.0178 -0.0304  0.5189
11782W        W54835   3.369   8.477  16.646 -0.0524  0.2041  0.1089
11783W        W54836  10.865  18.350   8.264  0.0731  0.1300 -0.3369
11784W        W54837  18.418  18.172  27.545  0.3015 -0.0201 -0.0286
11785W        W54838  15.349   5.338   3.922  0.0432 -0.2483  0.2448
11786W        W54839   3.246  34.158  16.489  0.3098 -0.1045  0.1811
11787W        W54840  27.700  26.888   3.056 -0.0695  0.6006  0.0222
11788W        W54841  16.332  34.252   1.374 -0.0674  0.2171  0.1275
11789W        W54842   6.855   8.776   1.513 -0.1467  0.1337 -0.1222
11790W        W54843  25.291   7.825  20.341 -0.4466 -0.2457 -0.3125
11791W        W54844  15.028   4.996   3.378 -0.0477  0.1510  0.1387
11792W        W54845  13.234   8.864   4.476 -0.0434  0.0064  0.0699
11793W        W54846  24.895   3.633   0.914 -0.1719  0.0167 -0.0565
11794W        W54847   5.855   8.876   7.078 -0.0691 -0.0136 -0.1010
11795W        W54848   5.956  32.232  27.528  0.1291  0.0941 -0.2521
11796W        W54849   9.935   3.673  23.978 -0.1776 -0.0297  0.2111
11797W        W54850  12.606  23.154  15.734 -0.2876  0.1484 -0.4964
11798W        W54851  19.775  17.810   2.565  0.0315 -0.2436  0.1213
11799W        W54852  26.290   3.625  20.557 -0.2381 -0.1066 -0.1041
11800W        W54853  25.971   5.068   3.995 -0.1715  0.1638 -0.2466
11801W        W54854   0.868   9.070  28.268  0.1836  0.1628  0.0956
11802W        W54855  25.731  20.153   5.944  0.2319  0.3233 -0.4500
11803W        W54856   2.320   7.069  22.402 -0.2312  0.1863 -0.1300
11804W        W54857  24.455   3.233   8.045  0.0438 -0.0358 -0.1923
11805W        W54858  16.769   4.322  14.638 -0.1422  0.4247 -0.2553
11806W        W54859  14.428  19.196   2.561  0.1363 -0.0374  0.2779
11807W        W54860  20.927  18.971   7.031 -0.1230 -0.3046  0.1824
11808W        W54861   1.565   5.983   0.335 -0.0722  0.3165  0.2807
11809W        W54862  30.834  16.079   5.924  0.0852 -0.0354 -0.1062
11810W        W54863   8.462  15.132   2.369  0.0531 -0.0419  0.0305
11811W        W54864  15.642  16.889   4.158  0.1349 -0.0023 -0.1850
11812W        W54865  12.648   2.402   0.626 -0.0096 -0.3808  0.0652
11813W        W54866   6.314   4.650   3.054  0.0145  0.2660  0.0914
11814W        W54867  20.963  33.720  23.642 -0.4735  0.0936  0.0227
11815W        W54868  18.802  13.692   1.542 -0.2990  0.0768  0.3352
11816W        W54869   6.563  20.909   7.421  0.0342  0.4001 -0.0152
11817W        W54870  28.620  15.377   4.637  0.2281  0.0118  0.0522
11818W        W54871  25.582  30.244   6.581 -0.1864 -0.0918 -0.1241
11819W        W54872  26.750   9.280  27.978 -0.0818  0.0080 -0.1827
11820W        W54873  12.302   8.358   1.508 -0.2430 -0.2014  0.2271
11821W        W54874  23.454  22.660  21.190 -0.1480  0.1534 -0.1097
11822W        W54875  27.218   4.416  20.945  0.1449  0.2548  0.3338
11823W        W54876  32.739  14.790  13.260  0.0064 -0.2386  0.1889
11824W        W54877  17.927   8.834  18.007 -0.0884 -0.0931  0.0484
11825W        W54878  18.386  10.787   0.618  0.1414 -0.0260  0.0242
11826W        W54879   4.672  19.981   0.726 -0.1379 -0.2080  0.0624
11827W        W54880  22.355  26.861  26.807  0.0402 -0.1012 -0.2217
11828W        W54881  23.644  12.871   2.927 -0.2449  0.1793  0.2277
11829W        W54882  15.743  27.646   8.573 -0.1278  0.1575  0.1935
11830W        W54883  18.823  28.114   3.856 -0.0646 -0.0787 -0.0278
11831W        W54884  24.982  15.777  22.890  0.1093 -0.0762 -0.2361
11832W        W54885  27.456  34.405   6.210  0.1218  0.2581  0.0067
11833W        W54886   5.536  26.882  26.694  0.2128  0.1546  0.0568
11834W        W54887  21.729  17.251   4.163  0.4014  0.1192 -0.3495
11835W        W54888  24.275  20.789  27.998  0.1443 -0.0252 -0.0018
11836W        W54889  12.112  29.817   2.967 -0.0789  0.0600 -0.0053
11837W        W54890  29.208  20.466   3.585  0.3132 -0.1548  0.1741
11838W        W54891   0.113  18.001   4.980 -0.0657  0.0043 -0.2486
11839W        W54892  13.056  17.474   0.252 -0.2196  0.0133  0.4348
11840W        W54893  19.509  13.605  17.753 -0.1303 -0.1317  0.0432
11841W        W54894  17.441  16.672  28.540  0.2878 -0.1666 -0.0960
11842W        W54895  15.954  16.455  28.952 -0.1877  0.0324 -0.2816
11843W        W54896   7.202  10.650  23.960 -0.1826 -0.0891  0.1481
11844W        W54897  15.420  33.955   9.877  0.1274  0.2055 -0.1955
11845W        W54898   6.702  19.135  27.559 -0.2138  0.2722 -0.2083
11846W        W54899  16.190  21.286  22.861 -0.3875  0.2570 -0.3584
11847W        W54900   5.239  19.050   5.370  0.1117 -0.2505  0.0665
11848W        W54901   3.937  32.067  26.000  0.0253  0.0235 -0.0017
11849W        W54902  11.938  33.385   6.029 -0.0866 -0.0152 -0.0124
11850W        W54903  14.512  18.207   1.799 -0.1143  0.0747  0.1787
11851W        W54904  15.519   3.509  19.491 -0.0327  0.2160  0.2094
11852W        W54905  26.192  21.925   7.897 -0.2304  0.0064  0.4118
11853W        W54906  29.305  34.627   6.782  0.0477  0.1807  0.0418
11854W        W54907  25.241  11.111  10.094  0.1018  0.1175 -0.1563
11855W        W54908  27.399  15.218  13.897 -0.1951 -0.0958  0.1455
11856W        W54909   8.261  24.934  17.575 -0.1159  0.0635 -0.0374
11857W        W54910   5.244   9.278   7.676 -0.3660  0.1149 -0.0930
11858W        W54911  22.192  30.382   2.791 -0.1198 -0.0899 -0.2306
11859W        W54912  31.000   3.613  24.936 -0.0171 -0.2349 -0.2343
11860W        W54913  17.480   1.217   2.185  0.5738 -0.0499  0.2358
11861W        W54914  27.158   5.760   8.695 -0.1142 -0.0590 -0.2944
11862W        W54915  28.331  12.114  24.912 -0.0160  0.1932  0.3781
11863W        W54916   6.420  16.722   7.600  0.2292  0.0530  0.2929
11864W        W54917   6.312  15.484   1.140 -0.2126 -0.1226 -0.0460
11865W        W54918  18.216  25.959  27.202  0.3842  0.2186 -0.0523
11866W        W54919   1.341   5.603   7.123  0.2411 -0.1798  0.2194
11867W        W54920   5.279  17.322  25.744  0.0642  0.0080  0.3973
11868W        W54921  20.317  17.155   0.436  0.1171 -0.3092 -0.1453
11869W        W54922  31.037  23.845  27.817  0.1613 -0.0161 -0.2160
11870W        W54923  28.956   9.144   9.653 -0.0250  0.0729  0.0518
11871W        W54924  29.054   6.907   5.840 -0.0646  0.0304  0.1464
11872W        W54925   7.046  20.827   5.097 -0.0200 -0.0542 -0.0237
11873W        W54926  10.635  34.161  21.997 -0.0702  0.0137 -0.0358
11874W        W54927  27.722  18.508   4.468 -0.0588 -0.0426  0.0465
11875W        W54928  18.503  26.242   9.818  0.1362 -0.1597  0.0235
11876W        W54929  28.030  14.383   9.037  0.0073  0.0970 -0.4836
11877W        W54930   8.219   7.962   2.952  0.0003 -0.0397  0.1091
11878W        W54931  16.487   7.058   7.812 -0.1989 -0.4666  0.2049
11879W        W54932  20.919  11.761   4.131  0.1629 -0.1147 -0.2948
11880W        W54933  14.739   5.254  28.013  0.0730 -0.0284 -0.1620
11881W        W54934  16.089   9.518  24.445  0.0211  0.3335  0.0603
11882W        W54935  28.311  12.108  18.701 -0.1074  0.1604 -0.1386
11883W        W54936   3.677  12.844   2.200  0.0030  0.2432 -0.2332
11884W        W54937  26.821  14.063   6.571  0.0066  0.0070 -0.2264
11885W        W54938   9.822   9.226   6.226 -0.0054  0.0617 -0.1374
11886W        W54939  30.060   8.044   2.109 -0.4425 -0.1209  0.1982
11887W        W54940  10.261  30.523  27.267 -0.0804 -0.1923  0.2168
11888W        W54941  22.110   6.727  21.890 -0.1205  0.0731 -0.1135
11889W        W54942  18.292   9.023  25.424  0.2864 -0.0305 -0.2511
11890W        W54943  14.778  24.978  24.705  0.1985  0.2169  0.3129
11891W        W54944  11.876  19.809   2.694 -0.3041  0.0904  0.2576
11892W        W54945  19.200  18.624  27.182  0.5539 -0.1136  0.0718
11893W        W54946  24.719  26.861  28.555 -0.0131 -0.3791 -0.2816
11894W        W54947  24.468  12.075  14.554 -0.0030 -0.2892  0.3568
11895W        W54948  13.552  28.786   5.244 -0.1233  0.1064  0.1619
11896W        W54949  13.797  19.813   5.240 -0.0532  0.0231  0.2591
11897W        W54950  20.035   2.403  10.329 -0.0919  0.1592 -0.0611
11898W        W54951  21.969  14.466  22.077 -0.1046 -0.3197 -0.1433
11899W        W54952  17.976   3.985   9.823  0.0757  0.0281 -0.1022
11900W        W54953  22.462   8.796   8.493 -0.0044 -0.2208  0.0168
11901W        W54954  21.566  12.251   0.236  0.0093  0.0902  0.2377
11902W        W54955  26.414   5.795   1.430 -0.1693  0.2027  0.1431
11903W        W54956  20.714  15.739  28.751 -0.0478  0.1224 -0.0234
11904W        W54957  27.416  13.461   4.875 -0.1386 -0.1774 -0.2423
11905W        W54958  17.310  10.195   2.721  0.3416 -0.1154  0.3043
11906W        W54959   6.355  24.045   5.563 -0.0549 -0.1029 -0.1230
11907W        W54960   0.098  13.586   9.473  0.1741  0.1936 -0.0017
11908W        W54961  12.917  15.204  24.002 -0.1078  0.0473 -0.3594
11909W        W54962  16.675  10.118   5.141  0.1231 -0.1003  0.3836
11910W        W54963  26.959  22.551  27.248 -0.1648 -0.2725  0.2363
11911W        W54964  29.181   9.173   3.868  0.1243  0.0686  0.0172
11912W        W54965  16.815  26.423  26.979  0.1222 -0.3347  0.1587
11913W        W54966  12.098  33.180  18.174  0.0884  0.1049  0.3172
11914W        W54967  16.885  12.384  24.777 -0.2433 -0.0408 -0.6075
11915W        W54968  19.469  31.879  28.421 -0.1397  0.2830  0.0928
11916W        W54969  19.254   4.975  23.827  0.1392  0.0436 -0.2182
11917W        W54970  12.599  15.967   5.590 -0.0699  0.3104  0.0612
11918W        W54971  24.521   1.457   5.472 -0.1566 -0.0824  0.2539
11919W        W54972  28.006  22.616   7.989 -0.4399  0.1634  0.1064
11920W        W54973  18.700  10.346   9.403  0.0569 -0.0600 -0.0978
11921W        W54974  16.638   3.903  28.027  0.1541 -0.1655  0.1119
11922W        W54975  24.949  19.506   8.884 -0.1253  0.1235  0.0688
11923W        W54976  21.497  18.953  26.753  0.1536  0.2616  0.0262
11924W        W54977  22.308   4.636   2.938  0.1012  0.4011 -0.0599
11925W        W54978  27.205  19.852   6.436 -0.2426 -0.1422 -0.0046
11926W        W54979  27.228  27.317   7.046 -0.0989 -0.2624  0.1799
11927W        W54980  16.856  14.270  21.857 -0.3014 -0.0194 -0.1592
11928W        W54981   0.836   0.444  21.574  0.0073  0.0136  0.1739
11929W        W54982  20.462   6.511  25.856 -0.0919 -0.0257 -0.1485
11930W        W54983  13.508   6.731  18.995 -0.0448 -0.0377 -0.1345
11931W        W54984  21.562  20.462   6.297  0.0054  0.0189  0.1477
11932W        W54985  10.894   3.622   4.378 -0.0158 -0.0531 -0.0632
11933W        W54986  10.092  10.227  23.869  0.2022 -0.3020  0.2103
11934W        W54987  32.761  18.234   6.359  0.0447 -0.1520 -0.3050
11935W        W54988  13.191   1.445   5.494 -0.1016  0.0859 -0.0310
11936W        W54989  30.432   5.768   8.655 -0.1060 -0.0679  0.0783
11937W        W54990  20.814  12.706  28.702 -0.2657  0.1744  0.1935
11938W        W54991  33.845  23.197  17.532 -0.0186  0.0876 -0.2223
11939W        W54992  30.198   3.860   1.481 -0.0919 -0.1025 -0.0751
11940W        W54993  24.177  23.310   9.732  0.0394 -0.1469 -0.2669
11941W        W54994  23.249  11.941  22.723 -0.0907  0.3633  0.3175
11942W        W54995  15.424  32.019   7.343 -0.3019 -0.3231  0.1159
11943W        W54996  23.078  18.049  18.039 -0.2648  0.0705  0.0633
11944W        W54997   7.124  15.945  22.868 -0.2464 -0.0574  0.2035
11945W        W54998   0.779  12.197  29.117  0.2375  0.2669 -0.2021
11946W        W54999  17.922  27.172   4.683 -0.4743  0.1979  0.1103
11947W        W55000  17.758  12.676   7.928 -0.3526  0.0498 -0.1728
11948W        W55001  12.838  18.272  16.414 -0.0791  0.0851 -0.2107
11949W        W55002  23.718  13.072   9.043  0.3390  0.3012  0.3187
11950W        W55003  13.263  10.345  27.220 -0.0332 -0.2276 -0.0317
11951W        W55004   8.845   1.653   0.454 -0.2401 -0.1415 -0.1423
11952W        W55005  21.978  21.860  26.941  0.2613  0.2007  0.0492
11953W        W55006   9.784  22.729   7.593 -0.3243  0.1599  0.3038
11954W        W55007   7.804  15.467   3.538 -0.0372 -0.0198  0.0445
11955W        W55008  18.976  13.044  28.509 -0.0918  0.1120  0.0826
11956W        W55009   0.991  15.757   3.601 -0.2526  0.1943  0.2300
11957W        W55010  22.019  11.365   9.962 -0.1742 -0.1171 -0.2273
11958W        W55011  21.347   3.802   3.958 -0.2006  0.5000 -0.0400
11959W        W55012  21.880  20.812   6.398 -0.0818  0.0373 -0.2451
11960W        W55013  25.938   9.200  26.143 -0.2701 -0.3046 -0.2102
11961W        W55014   0.477  28.318  23.914  0.0787  0.0054  0.4348
11962W        W55015  11.240  28.491   2.853 -0.2492  0.3139 -0.0756
11963W        W55016  24.074  30.565   4.170 -0.1976 -0.0449 -0.1709
11964W        W55017  30.795  10.882  29.147  0.0492  0.0651 -0.0285
11965W        W55018   5.383  23.906   4.127 -0.2676  0.1512 -0.1510
11966W        W55019  23.131   1.190   6.835 -0.3780  0.1016  0.2246
11967W        W55020  15.304  14.207   8.813 -0.1003 -0.4032 -0.1228
11968W        W55021  22.577  27.360   2.797  0.4670  0.0930  0.1921
11969W        W55022  28.884  20.975  19.693 -0.2263 -0.2439  0.2420
11970W        W55023   0.364   3.181  22.989  0.0945 -0.0960  0.1184
11971W        W55024  12.855   4.273   8.151  0.4195  0.1719  0.0650
11972W        W55025   1.027  12.564   4.456 -0.0857 -0.4282  0.3652
11973W        W55026  15.160  10.010  21.388 -0.4281 -0.3166 -0.0713
11974W        W55027  20.947  12.138  21.902  0.1070 -0.0510  0.0156
11975W        W55028  29.564  22.250   4.171 -0.0701 -0.0869  0.2603
11976W        W55029  13.435   1.611  25.525 -0.0939 -0.2994 -0.2195
11977W        W55030  24.590  20.835  28.861 -0.4388  0.0995 -0.0265
11978W        W55031  20.751  23.253   4.883 -0.1227  0.0505 -0.0321
11979W        W55032  23.056  15.466  19.507 -0.0542  0.2507 -0.2799
11980W        W55033  26.336  19.757   1.612  0.0210 -0.0545  0.0655
11981W        W55034  12.739  20.524   1.652  0.0549 -0.0078  0.0086
11982W        W55035  14.038  12.572   5.458  0.2386  0.1338  0.1268
11983W        W55036  15.146   3.461   2.081  0.1081 -0.1045 -0.1946
11984W        W55037  31.790  26.054  19.654  0.3724  0.1289  0.0136
11985W        W55038  11.293  11.407  22.383 -0.0309 -0.1710 -0.0163
11986W        W55039  17.868   9.693   5.425  0.2844 -0.2984 -0.2087
11987W        W55040  19.880  15.554  27.064 -0.1513 -0.2710  0.2141
11988W        W55041   4.314  13.313  16.270 -0.2013 -0.1085 -0.0557
11989W        W55042  19.109  22.876  21.468  0.0059  0.0700  0.3608
11990W        W55043  29.935  27.009   0.982 -0.1248 -0.1285 -0.0372
11991W        W55044  23.494  10.011  28.339  0.0801  0.2054 -0.4090
11992W        W55045   8.099  18.669  19.899 -0.0497 -0.3598  0.2772
11993W        W55046  18.974  10.137   7.544  0.3037 -0.0512 -0.1562
11994W        W55047  16.393  20.309  24.354  0.0143 -0.0205  0.0332
11995W        W55048   0.129  13.734  17.487  0.2323  0.1458 -0.0058
11996W        W55049  19.507  20.131  13.891  0.0662  0.2491  0.0581
11997W        W55050  18.695  19.248  23.747  0.1097  0.1382 -0.0912
11998W        W55051  21.571  33.195  24.851 -0.2328 -0.0315  0.1491
11999W        W55052  17.030  11.142  17.137 -0.0725 -0.0863  0.1630
12000W        W55053   1.248  14.339  18.960 -0.3538  0.1242  0.1527
12001W        W55054  32.348  15.228  25.303  0.1798 -0.2572  0.0723
12002W        W55055   4.897  14.805   8.589 -0.0526  0.0068 -0.0937
12003W        W55056  14.724  12.551   8.690  0.0702  0.1879  0.1767
12004W        W55057  31.526   9.383  17.576  0.0595  0.0899  0.1792
12005W        W55058   9.332  10.466  20.483 -0.1999  0.1566 -0.1550
12006W        W55059   5.069  17.148   1.287 -0.0696  0.0469 -0.0835
12007W        W55060  31.921  22.841   9.628 -0.1474  0.0078  0.2607
12008W        W55061  26.344  23.154   2.132 -0.2940  0.0229 -0.3542
12009W        W55062  18.312   0.404   3.799  0.0303 -0.4706  0.2161
12010W        W55063  18.661  15.757  23.838 -0.1410  0.3793 -0.0820
12011W        W55064   4.525  19.403  28.768 -0.1392 -0.0777  0.1268
12012W        W55065   9.904   2.001   2.506 -0.2826  0.0356 -0.1154
12013W        W55066  14.533  21.720   0.627  0.0428 -0.0683  0.0544
12014W        W55067  17.482  34.015   2.054  0.4410 -0.0682  0.0603
12015W        W55068  17.893  18.913  27.690  0.1194  0.0079 -0.1011
12016W        W55069  19.012  30.646   4.496 -0.1835 -0.0472  0.1012
12017W        W55070  33.945  15.531   3.444  0.0524 -0.0716 -0.1179
12018W        W55071  16.910   7.273   0.980 -0.0384  0.2141  0.0420
12019W        W55072   2.781   8.973  19.691 -0.0550  0.0533 -0.4713
12020W        W55073  25.910  17.203   1.323 -0.0562 -0.1274  0.1516
12021W        W55074   8.955  29.048   2.291  0.1292  0.1293  0.0044
12022W        W55075  16.681  31.166   5.540  0.4461 -0.2119  0.1799
12023W        W55076  33.783   9.363   7.926 -0.0981 -0.2912 -0.1128
12024W        W55077  17.525   3.457   5.764  0.0428 -0.1156 -0.1166
12025W        W55078  21.806  13.259   8.999  0.3116 -0.2492  0.0685
12026W        W55079  14.718  16.451   7.559 -0.1743  0.0623 -0.2813
12027W        W55080  28.121  17.686   7.704  0.1388  0.2854 -0.0102
12028W        W55081  24.831   4.471  20.249  0.0547  0.1270 -0.0837
12029W        W55082  10.426   5.478  27.048 -0.0960  0.1507  0.3217
12030W        W55083  21.665  22.796   5.108 -0.1642 -0.3479  0.0460
12031W        W55084  23.378   7.639  28.083 -0.1641 -0.0307  0.0490
12032W        W55085  33.136  16.225   8.581 -0.0377 -0.1994  0.0208
12033W        W55086  24.480  23.121  29.116 -0.0218 -0.0717  0.2107
12034W        W55087  10.647   8.014  26.100 -0.1004 -0.1052  0.0606
12035W        W55088   4.048  19.128   1.970 -0.2147  0.2298 -0.0686
12036W        W55089  21.540  12.398   3.852  0.1570  0.0345 -0.2234
12037W        W55090   5.159  22.194  19.109  0.3718  0.2205 -0.1605
12038W        W55091  17.681  21.173   9.789 -0.1029 -0.2293 -0.3337
12039W        W55092  13.557   4.733  21.224 -0.0007 -0.0336 -0.0272
12040W        W55093   9.361   2.216  26.642  0.1000 -0.0295 -0.0278
12041W        W55094  19.681  23.418   8.833 -0.1057 -0.0344 -0.0841
12042W        W55095  11.984  10.745  26.911  0.0375  0.2101  0.0128
12043W        W55096  18.285  19.705  10.134  0.0573  0.1701  0.2405
12044W        W55097  21.467  15.215  19.825  0.1650  0.4341  0.2300
12045W        W55098  10.509  16.204  28.734 -0.3304  0.1346  0.3118
12046W        W55099  25.223  15.078   1.668  0.0020  0.0020  0.0450
12047W        W55100  18.606  15.499  26.977 -0.1675 -0.0361 -0.2321
12048W        W55101  25.878  21.593   8.924 -0.3889  0.2003  0.1614
12049W        W55102  14.042  11.210  19.116  0.1722 -0.4474  0.0125
12050W        W55103  16.642  13.379   9.421 -0.0718 -0.0953 -0.1389
12051W        W55104  16.874   7.835   9.465 -0.1257  0.0587  0.1300
12052W        W55105  18.041   3.454   7.918 -0.0087  0.0792 -0.0727
12053W        W55106   4.016   8.353   6.423 -0.0285  0.1713  0.0967
12054W        W55107  18.491  17.701  26.503  0.2619  0.3181  0.1349
12055W        W55108  27.280   7.195   2.536 -0.2694 -0.0659 -0.3153
12056W        W55109  23.553   1.525  24.778 -0.0607 -0.0075  0.0586
12057W        W55110  27.119  11.768   5.962  0.2119 -0.1887 -0.1368
12058W        W55111  21.835   6.508   7.042 -0.0931  0.2302 -0.1465
12059W        W55112  21.293  32.972   3.445  0.0164  0.3908 -0.0407
12060W        W55113   6.127  11.970  23.858  0.1994 -0.1900 -0.2620
12061W        W55114  23.445  15.292   1.264  0.5984  0.2374 -0.0332
12062W        W55115  22.672   5.672  14.818 -0.1082  0.2180 -0.1513
12063W        W55116  19.717  15.012   8.188  0.0861 -0.1022  0.0157
12064W        W55117   2.549  15.804   9.484  0.1210  0.2105 -0.2247
12065W        W55118  12.132  18.401  23.185  0.1354 -0.2337 -0.0053
12066W        W55119  16.994   9.579   5.315  0.0203  0.1285 -0.0393
12067W        W55120  21.052  16.591  13.014 -0.1667 -0.3821  0.1827
12068W        W55121  15.544  14.632   4.965  0.2038 -0.0574 -0.4904
12069W        W55122  27.444   8.716  26.541 -0.1648  0.0162  0.0730
12070W        W55123  30.519  28.689   0.777 -0.1332  0.3640 -0.2697
12071W        W55124   3.302  33.635   8.871  0.0215 -0.3904  0.0707
12072W        W55125  23.661   3.395   6.017 -0.3325 -0.0328  0.0981
12073W        W55126  27.891  18.856  26.439  0.3535  0.0274 -0.3419
12074W        W55127  11.622   0.075   6.270 -0.1216  0.2659  0.1405
12075W        W55128  16.689  14.991   3.547  0.0370 -0.0185  0.4667
12076W        W55129  20.967  33.819  20.559 -0.0301 -0.4229  0.0310
12077W        W55130  13.144   8.600  14.772  0.1529  0.3241 -0.0611
12078W        W55131  18.297   9.645   1.793  0.0081 -0.3697 -0.0245
12079W        W55132   2.422  15.041  18.866  0.0622  0.2842 -0.0282
12080W        W55133  12.726  23.055  24.452 -0.2944  0.5034  0.2883
12081W        W55134  11.572  10.116   5.449 -0.1098 -0.1480  0.0151
12082W        W55135   6.253  20.178   7.493  0.1248 -0.2065 -0.2807
12083W        W55136  22.113  21.088   2.406  0.2848  0.1489 -0.0732
12084W        W55137  11.720   3.392  28.361 -0.1343  0.2161  0.0365
12085W        W55138  20.977  15.243   2.197 -0.1315  0.1285  0.1717
12086W        W55139  28.708  17.011  22.597  0.3130 -0.0015 -0.0376
12087W        W55140  10.232  11.782  27.836  0.2048 -0.1446 -0.4124
12088W        W55141   9.579  15.671  10.031 -0.1960  0.0686  0.2973
12089W        W55142  15.082  23.890  20.779  0.0445 -0.1882  0.0792
12090W        W55143   9.952   2.488   2.733  0.1282 -0.0857 -0.0177
12091W        W55144  21.068  14.469   7.839  0.0184 -0.0939  0.1289
12092W        W55145  17.077  10.658   9.986 -0.1563 -0.0262 -0.1938
12093W        W55146  22.187  16.407   9.217 -0.1574 -0.1619  0.0260
12094W        W55147  24.861   9.271  27.874 -0.0454  0.1424 -0.0763
12095W        W55148  13.335  11.881   4.286 -0.1490 -0.1354  0.0511
12096W        W55149  28.894  18.327  24.731  0.2218 -0.1288  0.1785
12097W        W55150  21.435   4.290   3.933 -0.1214  0.2845  0.1024
12098W        W55151  18.271  11.394   6.056  0.1342 -0.1237  0.4347
12099W        W55152  11.600   4.153  17.258 -0.0284  0.0514  0.0447
12100W        W55153  15.809  18.571  13.044 -0.2893 -0.0072  0.1049
12101W        W55154   7.459  10.574   9.430  0.1228 -0.2506  0.3195
12102W        W55155  14.460  11.917  15.707 -0.1222  0.1733 -0.0659
12103W        W55156  12.514  11.023  21.090  0.3194  0.0515 -0.0185
12104W        W55157  32.024  20.091   9.595  0.1781 -0.1152  0.1111
12105W        W55158  29.533  12.058  18.375  0.0098  0.1957 -0.1023
12106W        W55159   7.696   0.427   2.657 -0.2162  0.1659 -0.2691
12107W        W55160   6.262  16.528   9.284 -0.1931 -0.4018  0.2563
12108W        W55161  20.576   7.214  29.149 -0.0230 -0.0879  0.0650
12109W        W55162  28.665  24.099  19.350  0.1067  0.0309 -0.0144
12110W        W55163  26.514  19.373  15.007 -0.2607 -0.1909  0.0451
12111W        W55164   6.681  17.193   9.944  0.1463 -0.1219  0.1718
12112W        W55165  16.303  11.429   8.566  0.2715  0.0465  0.3571
12113W        W55166  10.812  11.975   3.432 -0.1296 -0.1220  0.2413
12114W        W55167  29.411  20.080  26.267  0.0190 -0.1338 -0.1779
12115W        W55168  18.751  16.568  26.432 -0.0358 -0.1369  0.2661
12116W        W55169   5.284  18.894   6.976  0.2820  0.2628  0.0795
12117W        W55170  26.688  33.432   1.638  0.0315  0.3122  0.0547
12118W        W55171   8.592  29.408   7.750 -0.1194  0.0759 -0.0248
12119W        W55172  22.496  27.643  23.579 -0.0437  0.0624 -0.1202
12120W        W55173  17.319   5.953   7.374 -0.1957  0.1506  0.2370
12121W        W55174  29.025  17.752   2.124  0.1358  0.0375  0.0622
12122W        W55175  14.702   8.356   4.515 -0.3405  0.1157 -0.1315
12123W        W55176  18.320   3.693   1.805  0.2567  0.1256  0.1904
12124W        W55177  14.052  27.571   0.030  0.2763  0.0458 -0.1309
12125W        W55178  17.155  17.481  22.565  0.0080 -0.0676  0.1340
12126W        W55179  24.693   2.417   1.386 -0.0449 -0.0234  0.3246
12127W        W55180  20.201  18.218   0.181 -0.2162  0.1748  0.1247
12128W        W55181  14.623  17.302  24.242  0.1181  0.1936  0.0649
12129W        W55182  24.618  29.597  25.686  0.0906  0.0370  0.2316
12130W        W55183  20.157  29.017  10.369  0.2132  0.0154  0.1086
12131W        W55184  22.810   7.407   7.131 -0.1641  0.1829 -0.0841
12132W        W55185  19.843  12.912  20.475 -0.0998  0.0626 -0.0987
12133W        W55186   4.991  13.462   2.214  0.0572 -0.1596 -0.2310
12134W        W55187  25.044   6.936   8.160  0.0633  0.4224  0.0107
12135W        W55188  22.101  29.340  21.838 -0.1918 -0.1773 -0.0927
12136W        W55189   7.971  17.525   0.658 -0.1122 -0.0543 -0.0837
12137W        W55190   4.302   6.868   8.897  0.3910 -0.0902  0.1109
12138W        W55191  30.198  26.805  16.490  0.4113  0.0452 -0.3654
12139W        W55192  16.970  14.590   1.411 -0.4184 -0.0720 -0.2400
12140W        W55193  29.102  18.452   4.494 -0.2343  0.0360 -0.0079
12141W        W55194  29.996   6.449   8.847 -0.0879  0.2856  0.1762
12142W        W55195  22.932  33.071   8.901 -0.0671  0.0182 -0.2452
12143W        W55196  18.341  14.152   8.532  0.1891  0.0392 -0.0000
12144W        W55197   6.480   9.177  20.734  0.1749  0.1069 -0.2668
12145W        W55198  18.459  16.509   2.811  0.0606 -0.0092  0.1110
12146W        W55199  13.301   3.994  10.016 -0.1616 -0.1608 -0.0557
12147W        W55200  22.245  21.438   1.805  0.0011 -0.2842  0.0582
12148W        W55201  12.922   6.960   3.769 -0.0292  0.2086 -0.3376
12149W        W55202  19.904  17.174   8.311  0.0269  0.0343 -0.1998
12150W        W55203  32.850   8.665  28.719  0.3211 -0.2859 -0.1640
12151W        W55204  26.140   6.729   4.599 -0.1613  0.0609  0.1216
12152W        W55205  29.019  27.576  26.176 -0.2851  0.2325 -0.0059
12153W        W55206   9.113   2.477  27.597  0.2232 -0.0779  0.1690
12154W        W55207  12.016  15.944  28.495 -0.1463  0.2719 -0.1880
12155W        W55208  17.954   7.750   6.585  0.0109 -0.0785  0.1075
12156W        W55209  16.811  17.222   6.490 -0.0427  0.2952  0.0942
12157W        W55210  27.761  18.875  27.932  0.0147 -0.2653  0.0211
12158W        W55211  20.234  18.824  10.309 -0.2807  0.0319  0.2957
12159W        W55212  28.413   7.729   4.379  0.1008  0.1072  0.1105
12160W        W55213  16.827   1.973   5.571  0.0696 -0.0373 -0.2237
12161W        W55214   5.647   5.021  14.983  0.2685 -0.0539 -0.2628
12162W        W55215   1.005  26.309  28.064  0.0483 -0.1455  0.2042
12163W        W55216  20.360  15.575  15.907  0.0407 -0.3089 -0.1246
12164W        W55217  18.091  19.104   2.302  0.0775  0.0932  0.1501
12165W        W55218  21.227  14.750   8.412 -0.0355  0.1010 -0.2516
12166W        W55219   9.780  12.762  10.383  0.0259  0.7479  0.0132
12167W        W55220   1.819  10.996   6.864 -0.0554 -0.2822  0.2155
12168W        W55221  14.682   4.578  10.629 -0.3688 -0.0963  0.0529
12169W        W55222  23.555  24.729   4.149  0.0445  0.1091 -0.6208
12170W        W55223   8.705  33.447  17.040 -0.1176 -0.1853  0.0596
12171W        W55224   0.146  21.388  28.270  0.1546 -0.0633 -0.2898
12172W        W55225  13.505  12.072  22.011  0.1140  0.0306  0.2884
12173W        W55226  19.038  26.221   8.969  0.1529 -0.1565 -0.0344
12174W        W55227  11.571   6.173  22.479 -0.0927 -0.1228 -0.1677
12175W        W55228   9.192  19.890   8.260  0.3560  0.3769 -0.0144
12176W        W55229  25.758  20.956  24.779  0.1075 -0.3264  0.0763
12177W        W55230  18.683  18.361   4.685  0.1676  0.3256 -0.2638
12178W        W55231  20.887  18.891   6.297  0.0957  0.1797 -0.2153
12179W        W55232  16.312   1.426   3.597 -0.0559 -0.0051 -0.0109
12180W        W55233  13.603  27.288   3.061 -0.3536 -0.0814  0.1061
12181W        W55234  25.020   5.339  10.151  0.1462 -0.2412 -0.1186
12182W        W55235  20.823  10.620   6.225  0.0264  0.2232 -0.3581
12183W        W55236  19.548  10.406  28.323  0.1741 -0.2576  0.0609
12184W        W55237  20.008  17.245   4.266 -0.1271 -0.0123  0.0915
12185W        W55238   8.544   4.710  24.695 -0.1371  0.1908 -0.2652
12186W        W55239  13.183  19.452   0.744  0.1251 -0.1467  0.1251
12187W        W55240  17.289  28.709  17.971 -0.0045  0.2755  0.2186
12188W        W55241  15.734  14.153   5.795 -0.1418  0.2358  0.2212
12189W        W55242  25.377  34.502   4.470  0.0231 -0.0460  0.1527
12190W        W55243  27.391   5.925  28.814 -0.1286 -0.2208 -0.3725
12191W        W55244  26.890   8.260  10.672 -0.0700 -0.0914 -0.1129
12192W        W55245  16.998  18.861   8.746  0.0903  0.0186  0.2033
12193W        W55246  21.738  28.932  26.831  0.1905 -0.0834 -0.2474
12194W        W55247  26.060  24.838   5.097  0.0033 -0.1367  0.1885
12195W        W55248  21.394   3.020  23.452 -0.1046  0.1823  0.0874
12196W        W55249  27.000   1.512   3.227 -0.0479 -0.0195 -0.1758
12197W        W55250  32.411   8.909  23.277  0.2575 -0.2492 -0.0618
12198W        W55251  18.770  11.760   5.286  0.1066  0.0190 -0.1232
12199W        W55252  28.086   0.733   5.371 -0.2635 -0.1756  0.2326
12200W        W55253  19.952  10.404   2.908 -0.0143 -0.1874  0.0614
12201W        W55254  13.785  16.174   6.113  0.0311  0.1654  0.0023
12202W        W55255  19.834  13.524   4.434 -0.1554 -0.2310  0.1174
12203W        W55256   4.328  21.282  23.352 -0.1997 -0.1217  0.1356
12204W        W55257  16.629  12.288  17.003 -0.0936  0.0827  0.0063
12205W        W55258  14.804   7.755   1.967 -0.0948  0.1450  0.1918
12206W        W55259  32.728  12.277   4.093 -0.2890 -0.0799  0.2171
12207W        W55260  20.583  19.156   6.820  0.0351  0.2629  0.1409
12208W        W55261  25.495  10.012   2.079 -0.2122  0.1180 -0.1166
12209W        W55262  19.372  14.406  21.174  0.0202 -0.1111 -0.0272
12210W        W55263   4.628   7.317   2.910  0.1187  0.0350  0.1543
12211W        W55264  16.936  21.747  10.009 -0.0730  0.2587 -0.0835
12212W        W55265  17.782  13.142   5.297  0.1133 -0.0037  0.0467
12213W        W55266  12.626   9.377   1.521  0.1134  0.1869 -0.3285
12214W        W55267  22.939  20.808  26.349  0.3009  0.0504  0.0808
12215W        W55268  13.751   7.076  25.444  0.1409  0.0799 -0.0002
12216W        W55269  29.923  12.456   8.581  0.1198 -0.2893  0.0478
12217W        W55270  20.974  12.151  19.704 -0.0644  0.2836 -0.1657
12218W        W55271   6.235   9.172   0.545  0.0661 -0.4173 -0.0758
12219W        W55272  32.487   8.253   6.365 -0.2188 -0.0446 -0.0246
12220W        W55273   0.570  11.775   5.968 -0.0020  0.0258 -0.0054
12221W        W55274  10.183  12.785  23.313 -0.1019  0.1307 -0.4261
12222W        W55275  15.026  10.316  15.777  0.3072 -0.1616  0.1353
12223W        W55276   8.710  19.069   1.007 -0.4460  0.0510  0.1047
12224W        W55277  18.669  11.930  16.983 -0.0367 -0.3925  0.0384
12225W        W55278  16.656  22.712   5.447  0.0824  0.1929  0.1779
12226W        W55279   9.416  15.043   7.645  0.2685 -0.0110 -0.1260
12227W        W55280  26.150   5.388  28.920  0.1656 -0.1174 -0.0739
12228W        W55281  25.375  10.173   6.275  0.1127 -0.3869  0.0558
12229W        W55282  17.082  12.486   9.992  0.0522  0.1059  0.2254
12230W        W55283   0.174  34.618   8.466  0.1975 -0.1656 -0.0420
12231W        W55284  13.185   2.305   4.328  0.0122  0.0662  0.2289
12232W        W55285  23.920   2.573  29.059  0.0148 -0.5492  0.0225
12233W        W55286  23.450  21.211   6.638 -0.1509 -0.2094 -0.0766
12234W        W55287  15.855  27.763  24.350  0.0122 -0.1923 -0.3192
12235W        W55288  18.869  19.789   0.355  0.1498  0.1530  0.0869
12236W        W55289  14.951  33.380   6.372 -0.1619 -0.0770 -0.3895
12237W        W55290  17.600  18.866   5.895 -0.0226 -0.1467  0.0994
12238W        W55291  28.125  18.177   7.563 -0.0479  0.2395 -0.3362
12239W        W55292  21.083  31.440   5.482  0.3646 -0.1556  0.2030
12240W        W55293  24.731   7.917  27.683 -0.0666  0.2425  0.0009
12241W        W55294   1.561  14.662   7.349  0.1422 -0.2857  0.0029
12242W        W55295  29.412  16.596   3.972  0.2468  0.2589  0.0699
12243W        W55296   6.173  16.930   1.992 -0.3432  0.2545 -0.0326
12244W        W55297  19.599  15.011   8.710 -0.1202 -0.1325 -0.1071
12245W        W55298   7.241  11.042   1.882 -0.2394  0.1928 -0.2470
12246W        W55299  31.500  19.867   2.199  0.1779 -0.1118 -0.0071
12247W        W55300  22.880  20.349   1.802  0.1825  0.2678  0.0452
12248W        W55301  26.034  34.195   3.391  0.1801 -0.1919  0.1168
12249W        W55302  16.928   6.652   8.389 -0.1780 -0.1488  0.3166
12250W        W55303  23.525  15.651   6.270  0.2233 -0.0607 -0.2037
12251W        W55304   3.923  14.608  10.086 -0.0942  0.0687  0.2513
12252W        W55305   2.371  14.514   6.911 -0.0382 -0.2510  0.0969
12253W        W55306  28.052  17.054  28.984  0.0887 -0.1722 -0.0706
12254W        W55307  32.256   2.410  24.833  0.1761 -0.2463  0.1408
12255W        W55308  13.790   9.884   6.868  0.0126 -0.0564 -0.1126
12256W        W55309  18.652  18.688   6.948  0.3842  0.1489 -0.1357
12257W        W55310   4.884  21.649  28.099  0.1086 -0.0650 -0.2500
12258W        W55311  13.648  14.217   8.398 -0.0456 -0.0598 -0.0303
12259W        W55312  17.683  13.600  20.736 -0.1181 -0.1193  0.1304
12260W        W55313  28.899  18.749   0.370  0.1480 -0.0634  0.3414
12261W        W55314  20.812   6.757  13.551  0.0062 -0.1350  0.0161
12262W        W55315  29.947  16.148   4.978 -0.1155  0.1857 -0.1515
12263W        W55316  21.384  13.823   8.383  0.0717 -0.4083 -0.2074
12264W        W55317   1.724   0.178   2.243  0.3400  0.1128  0.2422
12265W        W55318  28.940  14.625   3.989  0.1070  0.3114  0.2467
12266W        W55319   3.628  15.113   8.715 -0.2767 -0.0391  0.2140
12267W        W55320  11.707  31.375   7.487  0.0485 -0.0757  0.2993
12268W        W55321  23.718   1.528  10.970 -0.1286 -0.0925  0.0533
12269W        W55322  22.026  16.012  26.454 -0.2507 -0.2012 -0.3464
12270W        W55323   3.221  19.430   4.998 -0.0973  0.2027  0.3305
12271W        W55324  31.896  19.964  27.507 -0.1221  0.2365 -0.0015
12272W        W55325  21.279  15.420   8.833  0.2839  0.0819 -0.1740
12273W        W55326  29.016  34.041   0.592  0.0344 -0.3048  0.0453
12274W        W55327  20.742  14.565   1.373  0.3461 -0.1040  0.0186
12275W        W55328   2.390   4.000  26.521 -0.2028 -0.2129  0.0425
12276W        W55329  30.703  19.298  28.821 -0.4263 -0.3222 -0.4454
12277W        W55330  22.229   6.096   4.627 -0.2388 -0.1379  0.2971
12278W        W55331  26.068  23.139  28.695 -0.3263  0.1121  0.1011
12279W        W55332  27.157  10.121   8.621  0.1537 -0.0887  0.1274
12280W        W55333  22.411   7.690  17.104  0.2671  0.1545 -0.2236
12281W        W55334  25.949   0.737  15.760 -0.1037  0.1738  0.0703
12282W        W55335  10.620  16.260  15.245 -0.0467  0.0579  0.2994
12283W        W55336  10.892   4.309  27.519 -0.0307 -0.1482 -0.1140
12284W        W55337  27.277  31.325  23.709 -0.3627  0.2432 -0.0808
12285W        W55338  22.132   9.838  28.066 -0.1524  0.2225 -0.0923
12286W        W55339  32.350  11.857  10.075 -0.2147 -0.0924 -0.1530
12287W        W55340  28.990  17.855   6.827  0.3525  0.0024  0.1048
12288W        W55341  15.854  21.988   2.137 -0.0712 -0.1302 -0.0505
12289W        W55342  16.225  10.806   0.573 -0.2285 -0.4592 -0.3745
12290W        W55343   5.960   9.899   3.984 -0.2198  0.1988 -0.1750
12291W        W55344  19.120  24.576   5.014  0.1127 -0.1748  0.2630
12292W        W55345  18.041  27.532  22.115  0.1710 -0.2815  0.2867
12293W        W55346  27.053   5.851   9.636 -0.0800  0.1581 -0.0271
12294W        W55347  15.947   9.113   2.021  0.0235  0.3361  0.1127
12295W        W55348  10.899   7.470  26.133  0.0161 -0.1135  0.0669
12296W        W55349  18.495  26.668   9.034 -0.2666 -0.0412 -0.0942
12297W        W55350  12.994  16.029   2.980 -0.0146 -0.0081 -0.1048
12298W        W55351  34.131  28.457   5.973 -0.0495 -0.1367  0.0208
12299W        W55352  21.213  12.454   6.636 -0.0003  0.0185  0.0069
12300W        W55353  30.265  12.962   0.792  0.1022  0.3188  0.0158
12301W        W55354  17.750  10.217  17.022  0.0569  0.3287 -0.0744
12302W        W55355  23.400   9.547   7.802 -0.2418 -0.2807 -0.1199
12303W        W55356  15.910  34.294   3.560 -0.1855 -0.0586 -0.0442
12304W        W55357  15.008  14.346  28.966 -0.0953 -0.0680 -0.1026
12305W        W55358   4.913  18.355   7.691 -0.1732 -0.1569  0.2316
12306W        W55359  27.625  13.697   6.212  0.1171 -0.2389  0.1115
12307W        W55360  29.112   8.911  29.169  0.2606 -0.1692  0.0103
12308W        W55361   9.450  13.102   6.412 -0.3424  0.2087  0.3430
12309W        W55362   8.722  14.876  23.414 -0.1351  0.0337 -0.1186
12310W        W55363  19.498  19.675  27.869  0.1575  0.0622  0.0013
12311W        W55364  19.289   3.682  24.826 -0.2446  0.0527  0.0649
12312W        W55365   7.060  21.622   8.522  0.1805 -0.0750  0.2814
12313W        W55366  17.841  18.450  26.874  0.4344  0.1576  0.1691
12314W        W55367   9.523  23.525   8.171  0.1678 -0.0609 -0.3196
12315W        W55368   5.344   7.652   4.914 -0.5481 -0.3327 -0.0369
12316W        W55369  13.978  21.427   3.436 -0.0223  0.1330 -0.2411
12317W        W55370  26.985  33.035   6.964 -0.3373 -0.1747 -0.2749
12318W        W55371  20.925  14.840  25.183 -0.1303  0.1299 -0.0965
12319W        W55372  13.363  12.026  26.461 -0.1316 -0.0772 -0.1310
12320W        W55373  21.592  12.862   2.300  0.0068 -0.4566 -0.0254
12321W        W55374  24.879  21.281  26.035  0.0580 -0.0444 -0.0548
12322W        W55375  29.658   3.268  21.899 -0.0499  0.1082 -0.0296
12323W        W55376  21.742   0.558   6.975  0.4171  0.0106 -0.0966
12324W        W55377   7.247   4.166  23.097 -0.0273 -0.2174 -0.0239
12325W        W55378  21.663  24.871   8.064 -0.0518 -0.0795 -0.1868
12326W        W55379  19.291  26.894   4.964 -0.4387 -0.2148  0.2201
12327W        W55380  14.497  20.194   4.629 -0.0647  0.1044  0.0987
12328W        W55381  31.811  16.719  27.732  0.2992  0.1698 -0.0847
12329W        W55382  14.997   2.200  25.041  0.0299 -0.4940  0.2461
12330W        W55383  11.444   9.869  11.270  0.2206  0.0620  0.0231
12331W        W55384   0.923   8.182  25.948  0.2611 -0.4196  0.0852
12332W        W55385  15.536   2.096  16.440  0.0369  0.0425 -0.1106
12333W        W55386  20.900  15.502  29.125  0.0358 -0.1239  0.1324
12334W        W55387  26.839  28.711   7.473  0.1493 -0.1370 -0.1012
12335W        W55388  14.196  29.263   4.031  0.0850 -0.0321  0.2114
12336W        W55389   8.901  15.639  10.866  0.0729 -0.1200  0.1124
12337W        W55390  18.006  12.180  10.089 -0.1699 -0.1227  0.1569
12338W        W55391  32.689  10.566  10.082 -0.1555  0.1433 -0.0994
12339W        W55392   6.234  19.810  25.125 -0.0896 -0.0523  0.1055
12340W        W55393   3.709  16.068  24.943  0.1704  0.1274 -0.0165
12341W        W55394  17.304  13.128   3.255  0.0979  0.0600 -0.2019
12342W        W55395  25.941   7.720   7.000 -0.1915  0.0335 -0.1973
12343W        W55396  13.745   1.848   5.753 -0.0660  0.0163 -0.1062
12344W        W55397  26.318  12.799   9.899  0.0702 -0.3259  0.0520
12345W        W55398  11.167  15.630   1.317  0.2616  0.4390 -0.1296
12346W        W55399  14.701  21.135   7.898  0.2597 -0.1102  0.1543
12347W        W55400  16.559  23.251   5.378 -0.1944  0.1213 -0.2308
12348W        W55401  20.185   8.518   3.534  0.0708  0.1070 -0.3669
12349W        W55402  29.561   3.641   3.245 -0.1379 -0.2607 -0.1641
12350W        W55403  13.518  27.439  27.539 -0.1555  0.1233 -0.2285
12351W        W55404   6.999  25.045   0.269 -0.0747  0.1730  0.1599
12352W        W55405  32.081  18.285   5.753  0.0827 -0.0292  0.1310
12353W        W55406   5.676   9.473  20.971  0.0841 -0.3128 -0.1562
12354W        W55407  15.619  22.991   7.530 -0.2114 -0.3805  0.2952
12355W        W55408   8.093   8.336   6.143  0.0940  0.0298 -0.0501
12356W        W55409  28.005  22.350   2.665 -0.0469 -0.1001 -0.1198
12357W        W55410  11.370  11.610   4.349  0.1632 -0.3531 -0.1936
12358W        W55411  15.810  28.312   5.407 -0.3073 -0.1234 -0.3846
12359W        W55412   6.822  26.976   8.751  0.0420 -0.2481  0.0075
12360W        W55413   9.767  12.230   0.786 -0.0186  0.1722 -0.3358
12361W        W55414  18.468   7.212  20.003 -0.3483 -0.2996  0.4420
12362W        W55415  19.190  21.700   3.686  0.1484  0.3038  0.0256
12363W        W55416  14.945  18.728   8.535  0.1100  0.1432 -0.0979
12364W        W55417   9.177  14.668   8.862  0.1289  0.4931 -0.4584
12365W        W55418   7.293  16.704   8.837 -0.0059  0.0558 -0.2439
12366W        W55419  21.626  11.657  27.637  0.0452 -0.1852  0.1755
12367W        W55420  22.624  23.212   6.567 -0.3032 -0.0266  0.1562
12368W        W55421   7.754   4.090   9.738  0.2499 -0.2502  0.0197
12369W        W55422  26.464  22.751   6.368  0.3677 -0.3464 -0.0963
12370W        W55423  17.631  18.558   3.120 -0.2053 -0.1714 -0.0133
12371W        W55424  22.632  29.219   0.397  0.0926  0.0099  0.0646
12372W        W55425   6.839  16.812   3.568  0.1508  0.3383 -0.2123
12373W        W55426  14.212  22.427   8.428 -0.1650 -0.1449 -0.2211
12374W        W55427  25.799  18.463   8.674 -0.0614  0.1522  0.1039
12375W        W55428  19.204  15.235   4.171 -0.1557  0.0942 -0.1955
12376W        W55429   8.672  19.930  15.711 -0.2821  0.1906  0.0717
12377W        W55430  11.597   7.695   3.389  0.0935  0.3662 -0.1819
12378W        W55431  27.803  12.063  20.396 -0.3587 -0.0484 -0.0730
12379W        W55432  17.823  13.259   9.686  0.2657 -0.0436  0.0858
12380W        W55433  14.262  10.338  28.119  0.0798 -0.2055  0.1411
12381W        W55434  22.838  11.859   7.571  0.1533 -0.1829  0.1568
12382W        W55435  27.663   8.557  10.237  0.1513  0.2439 -0.0354
12383W        W55436  29.108   3.257  26.995  0.1958 -0.1036  0.0996
12384W        W55437  21.910  23.175  14.826 -0.2071 -0.0714 -0.1904
12385W        W55438  17.675  20.972   7.225 -0.0176  0.5843 -0.0494
12386W        W55439  24.013  21.857   6.508  0.1439  0.1251  0.0726
12387W        W55440  11.954   3.994   2.133  0.1316  0.2022  0.1940
12388W        W55441  26.183  17.171  23.515  0.0464 -0.0920 -0.0761
12389W        W55442  33.493  20.488   0.670 -0.1450 -0.0782 -0.1358
12390W        W55443  16.067   3.369  22.579  0.3827 -0.0250 -0.1974
12391W        W55444  21.163  10.697   4.944 -0.0022  0.1251  0.4293
12392W        W55445  20.918  16.925  20.022  0.0961  0.0485  0.0897
12393W        W55446  22.755  22.769   9.916  0.1679  0.2077 -0.1363
12394W        W55447  25.364  25.535  28.915 -0.0693  0.1043 -0.1126
12395W        W55448  25.719   5.727  15.166  0.0590  0.1181 -0.0662
12396W        W55449  26.241   8.725   4.293  0.3127 -0.0960 -0.0111
12397W        W55450   1.838   6.293   5.962 -0.1661  0.0823  0.1638
12398W        W55451   3.209  14.596   0.234  0.3209  0.0301  0.1277
12399W        W55452  10.186  11.057   0.664  0.0140 -0.2950  0.0663
12400W        W55453  12.851  23.658   6.966 -0.1203  0.1851 -0.0107
12401W        W55454  17.572  15.366   1.024  0.0001 -0.0094  0.3130
12402W        W55455  27.402   4.466  27.912 -0.0544  0.1842 -0.0969
12403W        W55456  16.507  14.072   0.359  0.1293  0.1270  0.0575
12404W        W55457  26.467  12.867   8.992  0.7229  0.0563  0.1120
12405W        W55458  25.537   5.803   4.138  0.1175  0.0206  0.0442
12406W        W55459  31.098   0.643   4.479 -0.0049 -0.0637  0.0192
12407W        W55460  12.647  12.508  10.570 -0.1487 -0.0602 -0.1066
12408W        W55461   4.372  10.140  10.813  0.0474 -0.1190  0.0736
12409W        W55462  13.496  27.243   6.375  0.0088  0.0202 -0.3679
12410W        W55463  23.177  20.230  26.679 -0.5051  0.1498  0.0899
12411W        W55464  17.084   3.868   1.965  0.0644 -0.0490 -0.1893
12412W        W55465  18.290  29.164   2.957  0.0132 -0.0705  0.0227
12413W        W55466  19.570  11.855   4.210  0.3281 -0.1115 -0.3323
12414W        W55467  17.153   5.023   8.447  0.1170  0.1539 -0.2813
12415W        W55468  29.718  29.925   2.071 -0.3361  0.3491 -0.1830
12416W        W55469  22.022  21.682   3.177 -0.0350  0.0037 -0.1092
12417W        W55470  24.138  16.535   9.125  0.1185 -0.2999  0.1771
12418W        W55471  30.887   6.550   8.685  0.1943 -0.2652  0.1092
12419W        W55472  11.823  12.386   8.936  0.0122  0.2299 -0.3051
12420W        W55473  19.591  25.916  20.790  0.1391 -0.0413  0.3452
12421W        W55474  12.315  34.256  20.707 -0.3808  0.2018  0.0137
12422W        W55475  16.813  22.293   8.198  0.0562  0.0091  0.1092
12423W        W55476  11.950  33.345  20.708  0.2833  0.3266  0.2910
12424W        W55477  13.040  15.426  18.300 -0.1193  0.3941 -0.1253
12425W        W55478  10.697   8.979   1.980  0.0551 -0.0458 -0.1013
12426W        W55479  26.588   1.165   7.326 -0.2150  0.4200  0.2939
12427W        W55480  25.263   1.526   9.213 -0.0002  0.0210  0.2101
12428W        W55481  24.426  10.259  20.024 -0.0237 -0.1156 -0.0250
12429W        W55482  18.244  30.885   0.095 -0.0147  0.0250 -0.1085
12430W        W55483  22.272  25.787   8.162 -0.1925 -0.0730  0.0526
12431W        W55484  18.174   2.273   6.596 -0.0737 -0.0318 -0.1147
12432W        W55485  18.869  15.109  25.174 -0.0634  0.3393 -0.1128
12433W        W55486  24.351  16.358   7.700  0.1795  0.0565 -0.1255
12434W        W55487  27.905  10.996  29.052  0.1181 -0.3687  0.3074
12435W        W55488  25.691  23.350   3.991  0.0209 -0.0002  0.1040
12436W        W55489  25.748  19.504  24.292  0.1021  0.2171 -0.0047
12437W        W55490  23.785   1.391   3.033 -0.1041  0.1612  0.1519
12438W        W55491  31.453  31.211  27.570  0.3038  0.1291 -0.0015
12439W        W55492  15.183  17.399  28.790  0.0348  0.2110 -0.0736
12440W        W55493   1.482  16.283   4.227 -0.2518  0.2252  0.1230
12441W        W55494  34.685   4.731   2.124 -0.2747  0.1747  0.1192
12442W        W55495   9.404  21.287   7.078  0.2376  0.1982 -0.0225
12443W        W55496  23.362   4.566   7.166 -0.1612  0.3765  0.1743
12444W        W55497  24.187  29.092   8.022 -0.1707  0.0852  0.3607
12445W        W55498  22.184  22.775  14.863  0.2651  0.0157  0.0264
12446W        W55499  20.693  14.278   3.285 -0.5320 -0.1265  0.2481
12447W        W55500  22.286  16.795   7.592 -0.0428 -0.0032 -0.1991
12448W        W55501  16.669  24.937   5.310 -0.2876  0.3254 -0.5952
12449W        W55502  27.383  10.265   4.256  0.0849 -0.3909  0.0828
12450W        W55503  27.833  30.023   8.617  0.4220  0.1987 -0.1394
12451W        W55504  27.007   1.965   9.864  0.0268  0.1502  0.3990
12452W        W55505  26.775  33.711   5.464 -0.0384 -0.0371 -0.0556
12453W        W55506  30.085  18.388   8.990 -0.2226  0.0814  0.2048
12454W        W55507  27.632   3.371   2.118  0.1430  0.0685 -0.0479
12455W        W55508  30.447  29.740   2.567  0.2269  0.0753  0.2463
12456W        W55509  27.046   7.969   3.155 -0.2140  0.0978  0.4154
12457W        W55510  18.779  12.055  23.585  0.0553 -0.4606 -0.0104
12458W        W55511  15.273   3.579   3.220 -0.0875 -0.1110  0.2112
12459W        W55512  21.633   5.836   6.039 -0.1552 -0.1058 -0.1940
12460W        W55513  32.028   0.437   7.478 -0.0992  0.0084  0.2471
12461W        W55514  13.727  17.798  25.552 -0.3003 -0.1746  0.0454
12462W        W55515   2.331  32.336  24.646  0.1914  0.1471  0.2998
12463W        W55516   6.562   5.670   0.779 -0.0990  0.0169 -0.2207
12464W        W55517  28.379   5.859   4.073  0.1635  0.2629  0.0847
12465W        W55518  14.256   3.722  19.821  0.4389 -0.1488  0.0146
12466W        W55519  20.118  21.086   9.511 -0.2650  0.0666  0.3767
12467W        W55520  24.662  15.352   3.101 -0.2026  0.2795 -0.2569
12468W        W55521   7.790   9.048  28.006 -0.0421 -0.0658  0.2712
12469W        W55522  18.333  12.656  27.780  0.2026  0.1519  0.2759
12470W        W55523  29.235  31.314  18.055  0.1357 -0.4552  0.0186
12471W        W55524  11.088  21.622   7.078  0.0170 -0.1070 -0.0794
12472W        W55525  12.823   9.181   7.811 -0.1670  0.0279 -0.0554
12473W        W55526  26.549   7.863   4.189  0.2337  0.0892  0.0348
12474W        W55527  21.756  27.758  27.520 -0.0866  0.1440 -0.0114
12475W        W55528   6.041  28.257   9.043 -0.0919 -0.1581  0.0199
12476W        W55529  17.351   0.686   3.737  0.0800  0.1119  0.1263
12477W        W55530  25.897  15.106   9.245  0.1697 -0.0217 -0.1246
12478W        W55531  20.359  24.585   6.898 -0.0327  0.1771 -0.0041
12479W        W55532  13.670   4.978   6.497 -0.0648  0.0950  0.0988
12480W        W55533   9.404  10.003  23.407  0.3946  0.1453  0.0210
12481W        W55534   2.582   8.010   8.493  0.3250  0.1160  0.1182
12482W        W55535   9.640  11.016   4.723 -0.2949  0.1537  0.2072
12483W        W55536   4.179  13.547   3.660 -0.0216  0.0344 -0.0295
12484W        W55537  25.132   3.537   5.454  0.0726  0.0079 -0.0460
12485W        W55538  22.862  23.672   1.573  0.0235 -0.0384  0.0058
12486W        W55539  18.485  14.745   5.880 -0.1602 -0.1829  0.0028
12487W        W55540  30.185  32.060   7.315 -0.0189 -0.2676  0.0837
12488W        W55541  26.983  13.425   5.118  0.0587 -0.1943 -0.1234
12489W        W55542  25.470  11.072   7.855  0.0533 -0.0975 -0.0929
12490W        W55543  23.740  12.462   5.395  0.1083  0.1693  0.1083
12491W        W55544  11.706  34.031  27.893  0.2634  0.3043  0.2139
12492W        W55545  10.196  14.199   0.208  0.2625  0.0528 -0.0212
12493W        W55546  21.441   3.424   1.007  0.0307 -0.1867  0.0562
12494W        W55547  17.964  16.086  28.845  0.0506 -0.1279  0.1938
12495W        W55548   7.686  16.998   8.863  0.0839 -0.4101  0.1235
12496W        W55549  11.508  28.684   7.215 -0.1680 -0.0608  0.2630
12497W        W55550  17.745  16.533  28.954 -0.2198 -0.2111  0.1947
12498W        W55551  10.163  13.783   3.230  0.0397 -0.0258  0.0394
12499W        W55552  18.759   8.240   1.324 -0.1374 -0.0205  0.0833
12500W        W55553  25.854  14.784   5.623  0.1205  0.2172  0.0205
12501W        W55554  21.536  31.417  24.125  0.0424  0.0255 -0.0080
12502W        W55555  26.283  18.864   5.361 -0.1165 -0.1301  0.0045
12503W        W55556  28.266   8.271   7.019 -0.0609 -0.0587  0.1767
12504W        W55557  18.271  30.909   9.631  0.2269  0.3971  0.0789
12505W        W55558   6.100  22.365  22.093  0.0719 -0.2423  0.0632
12506W        W55559  26.713  12.398   9.005  0.0993 -0.3379 -0.1570
12507W        W55560  17.225   7.606  10.320  0.0442 -0.0761 -0.2779
12508W        W55561   9.974  17.262   4.103  0.1765 -0.1292  0.0577
12509W        W55562  18.087  20.112   2.580  0.0251 -0.0438  0.0717
12510W        W55563  21.389  17.627   6.096 -0.1131  0.2194  0.0088
12511W        W55564  21.922   8.519  22.007  0.0556 -0.3525  0.3500
12512W        W55565  10.207   9.488   5.883 -0.3002 -0.0842  0.0952
12513W        W55566   6.632   1.911  24.060 -0.2877 -0.1871  0.1789
12514W        W55567  26.259  27.844   1.329 -0.1299 -0.0417 -0.5274
12515W        W55568  31.558  12.196   2.645 -0.0977  0.1581 -0.4748
12516W        W55569  24.682  17.354  21.219  0.2398  0.0238 -0.0057
12517W        W55570  31.271   6.691   5.099 -0.1078 -0.1101  0.1117
12518W        W55571   7.572  26.631  21.053 -0.0479 -0.1278 -0.0165
12519W        W55572   8.759  23.363   2.024  0.0532  0.2197 -0.0965
12520W        W55573  12.586  17.666   2.916  0.2616  0.0140  0.0961
12521W        W55574   7.448  34.611   7.918  0.6422  0.1150  0.1544
12522W        W55575  16.158  19.224   4.061  0.1315  0.0143 -0.1603
12523W        W55576  16.959   6.539  25.571 -0.1691  0.2075 -0.2242
12524W        W55577  26.700  25.947   2.645  0.0308  0.0900  0.0150
12525W        W55578  16.612  19.386   0.500  0.0289  0.0876 -0.0916
12526W        W55579  20.395  29.951   9.470  0.2121  0.3285  0.0608
12527W        W55580  20.445   5.110   8.975 -0.3157 -0.2389  0.0373
12528W        W55581   5.348  27.330   5.489 -0.1571  0.0378  0.1416
12529W        W55582  26.026  29.821   1.314  0.0595 -0.2239 -0.3312
12530W        W55583  17.929  24.598  28.149  0.2376 -0.0745 -0.1527
12531W        W55584  23.437   1.844  28.836  0.0174 -0.0992  0.0738
12532W        W55585   1.446  14.696   5.013  0.0134 -0.3757  0.0565
12533W        W55586  15.661  23.393   5.314  0.0900  0.1491 -0.2064
12534W        W55587  18.462   5.586   8.352  0.1765 -0.2160 -0.0498
12535W        W55588  23.134  23.581  27.685  0.0358 -0.1165  0.0768
12536W        W55589  30.557  15.397   8.756 -0.0865  0.0173 -0.2049
12537W        W55590  14.385  12.419   9.906 -0.1354  0.1661  0.4266
12538W        W55591  22.103  22.283   5.891  0.2702 -0.0827 -0.0320
12539W        W55592   8.519  31.911   3.867  0.1719 -0.2849 -0.4997
12540W        W55593  19.320  11.124   2.899 -0.2985  0.2403 -0.0931
12541W        W55594  14.648   2.941   0.953  0.0369  0.2693 -0.0334
12542W        W55595  26.280  14.142   0.028 -0.0182  0.0967 -0.1024
12543W        W55596  22.566   8.783   2.181 -0.5399 -0.1554  0.2133
12544W        W55597  18.520  11.544  23.442 -0.0311  0.4427  0.1833
12545W        W55598  22.737  16.832   5.170 -0.0431  0.1433 -0.4001
12546W        W55599  32.700  13.516   6.944 -0.0553  0.3283  0.2175
12547W        W55600  21.732  26.244  26.482  0.0418  0.2341 -0.0680
12548W        W55601  32.381  14.038  18.320  0.3350  0.0087  0.0299
12549W        W55602   5.489  17.337   2.314  0.0886 -0.0048  0.0976
12550W        W55603  15.854  16.302  23.377  0.2137  0.2253  0.0714
12551W        W55604  24.669  18.548  29.158 -0.2484 -0.0783  0.1838
12552W        W55605  23.634  21.730   4.324 -0.1547  0.1934  0.3593
12553W        W55606  18.599  15.814   3.700  0.0376  0.2544  0.0204
12554W        W55607  15.831  33.086  21.864 -0.1807 -0.1230 -0.0696
12555W        W55608  28.977  10.849   4.531  0.0766  0.3111  0.0834
12556W        W55609  17.738  34.430   5.251  0.2016  0.3029  0.4798
12557W        W55610  13.894  14.820   9.450  0.2626  0.1114 -0.1311
12558W        W55611  23.244  20.231   3.503  0.3355  0.2076  0.1792
12559W        W55612  27.145  31.991   7.500  0.2992 -0.1803  0.0135
12560W        W55613  26.813  23.914   8.581  0.0850 -0.1918  0.0585
12561W        W55614  31.119  23.854   5.401  0.3327 -0.2825  0.0286
12562W        W55615  14.551  13.345   8.799 -0.0129 -0.2038 -0.0310
12563W        W55616   5.457  18.129   9.538  0.0165 -0.0474 -0.1232
12564W        W55617  19.673  34.378   9.205 -0.0702 -0.1934 -0.5208
12565W        W55618  34.521   8.571   7.006  0.1937  0.3651 -0.0989
12566W        W55619  13.215  16.241   6.094  0.0818  0.2034  0.0341
12567W        W55620  29.502  27.715   6.400  0.1281 -0.2599  0.2130
12568W        W55621  24.145  10.579   6.603 -0.2247 -0.1074 -0.0523
12569W        W55622  24.840  14.434   7.950 -0.1008 -0.0835 -0.0834
12570W        W55623  10.094  20.335  28.344 -0.0203  0.0657  0.0671
12571W        W55624  24.033   0.652   7.079  0.2501 -0.0116  0.4586
12572W        W55625  13.605  32.211   2.752  0.2138  0.2548  0.2973
12573W        W55626  32.507  34.504  19.401 -0.0194 -0.0703 -0.2926
12574W        W55627  26.916   8.184   1.747 -0.0870  0.1118  0.1965
12575W        W55628   6.311   1.409   4.673 -0.1374  0.0718  0.2892
12576W        W55629  19.391  24.344   1.961 -0.3582 -0.1567  0.0140
12577W        W55630  21.267   8.842   7.397 -0.0556 -0.1778  0.1542
12578W        W55631  28.228  22.224  27.357  0.2139 -0.1313  0.0300
12579W        W55632  24.837  13.810   4.359 -0.0635 -0.0355 -0.2768
12580W        W55633   8.664  23.270  26.704 -0.2112 -0.0184 -0.2315
12581W        W55634  18.413   1.314   9.409 -0.0508  0.0762 -0.1353
12582W        W55635  25.348  28.174  13.911 -0.0254 -0.0672  0.0924
12583W        W55636  16.699   9.338   5.710  0.1957 -0.1225  0.1201
12584W        W55637  22.159   5.810  10.163 -0.1132  0.1097  0.1112
12585W        W55638   4.258  11.170  20.852 -0.1457  0.2731 -0.0954
12586W        W55639  27.258  31.140  29.196  0.1361  0.0651  0.0039
12587W        W55640  15.357  13.965  28.540 -0.5261 -0.0320 -0.1961
12588W        W55641   8.340  31.628  28.443  0.1712 -0.3222 -0.1312
12589W        W55642  12.544  26.685   6.135  0.0033  0.0561  0.0045
12590W        W55643   9.785  18.877   9.031 -0.2603 -0.1613  0.0705
12591W        W55644  13.407  11.890   3.714  0.3398 -0.2341  0.4553
12592W        W55645   1.023  10.088   9.114  0.0754  0.1517  0.0624
12593W        W55646   8.026  33.297   6.908 -0.2150 -0.0591 -0.0606
12594W        W55647  24.218   6.560  25.440 -0.0826  0.0676 -0.0117
12595W        W55648  21.521  33.592  29.056  0.0252  0.1854 -0.1304
12596W        W55649  21.746   6.356   2.554 -0.0306  0.0699 -0.0747
12597W        W55650  23.784  23.602   7.904  0.0288 -0.2230 -0.0772
12598W        W55651  27.830  32.527   2.443  0.2699 -0.4815 -0.3830
12599W        W55652  10.552  16.762  10.330 -0.0375  0.0052  0.2738
12600W        W55653  25.129   5.135   0.624 -0.0206  0.1471  0.0096
12601W        W55654   7.591  24.712   7.222  0.3375  0.1872  0.1480
12602W        W55655  34.603   5.360   3.846  0.1239 -0.0412  0.0331
12603W        W55656  17.576  19.677   4.052  0.0697 -0.1656 -0.0108
12604W        W55657   5.168  15.600   6.171  0.1138 -0.0431  0.1704
12605W        W55658   0.680  12.765  29.120  0.1493  0.1732 -0.1289
12606W        W55659  23.931  24.000  10.118 -0.3281 -0.0667  0.4849
12607W        W55660  23.554   8.338   9.011  0.0101 -0.0260  0.3448
12608W        W55661  16.042  11.976   6.990  0.2692  0.0552  0.0758
12609W        W55662  29.948  10.215  25.044  0.0023 -0.2226  0.1192
12610W        W55663  19.273  13.096   5.021  0.0411 -0.1054 -0.1253
12611W        W55664  23.707  18.262  20.594 -0.1339 -0.1819 -0.3990
12612W        W55665  16.335  18.003   8.041  0.0866 -0.0269 -0.0485
12613W        W55666  18.178  21.253   3.403 -0.1994  0.1345 -0.2900
12614W        W55667  14.013  20.713   3.909 -0.0416 -0.1275 -0.2887
12615W        W55668   9.967   2.806  28.292 -0.0093  0.1898  0.1994
12616W        W55669   5.022  12.008  10.150 -0.2302  0.0491  0.1735
12617W        W55670  19.200  16.349   4.058  0.2681  0.1765  0.2899
12618W        W55671  32.714  17.628   3.733  0.1926 -0.2487  0.1532
12619W        W55672  34.379  13.312   4.669  0.0131 -0.1701 -0.2408
12620W        W55673  25.503  10.543  28.002 -0.2793  0.2088  0.1971
12621W        W55674  29.940  10.903   7.438 -0.0398 -0.1875 -0.1439
12622W        W55675  15.704   9.141   4.862 -0.1566 -0.1334  0.1836
12623W        W55676  24.665  20.087   7.522  0.1776  0.3335 -0.3760
12624W        W55677  24.240  13.161   7.883  0.0089 -0.0197 -0.1777
12625W        W55678  19.417  23.770  10.337  0.2188  0.4343  0.1417
12626W        W55679  24.955  13.375   1.976 -0.3682 -0.3669 -0.3442
12627W        W55680  29.252  31.599   6.847  0.0909 -0.3116 -0.0718
12628W        W55681  30.691  15.833   9.120 -0.0789  0.0255  0.1861
12629W        W55682  34.111  17.666  27.742 -0.1983  0.3457 -0.0645
12630W        W55683  10.250  11.719  23.541  0.1233  0.2592  0.0705
12631W        W55684  16.181  11.424   2.571  0.2254  0.2514  0.3786
12632W        W55685  15.994  30.925   0.357 -0.2341  0.0010 -0.0898
12633W        W55686  18.344  12.185   9.677  0.1279  0.0718  0.2521
12634W        W55687  34.117   6.832  25.841  0.1736 -0.1291  0.1334
12635W        W55688  21.715  17.933   9.393 -0.1007  0.0935 -0.0476
12636W        W55689  20.536  19.574  28.202  0.3834 -0.2100 -0.1075
12637W        W55690  20.449  20.418   9.379 -0.1945  0.4655 -0.3881
12638W        W55691  13.297   7.193  24.595 -0.1480  0.4598  0.0329
12639W        W55692  21.006   7.498   6.130  0.2355 -0.0178  0.0582
12640W        W55693  30.485   6.431   3.962  0.1809  0.3305 -0.0049
12641W        W55694  22.533   9.460  28.894 -0.1823  0.2079 -0.0246
12642W        W55695  19.991   8.121   0.574 -0.0378 -0.0293  0.0387
12643W        W55696   7.190   7.453   2.528  0.1174  0.0465 -0.2404
12644W        W55697  21.549  18.706   2.385  0.0377  0.1479  0.0948
12645W        W55698  25.661   8.694   5.415 -0.1233  0.0970 -0.0922
12646W        W55699  18.078  19.819   6.408  0.4997 -0.2569 -0.1998
12647W        W55700  12.858  20.321  23.501  0.2349  0.2590  0.0338
12648W        W55701  28.327  17.961   1.072  0.2191 -0.0116 -0.2112
12649W        W55702  19.788  23.567   8.345 -0.4069 -0.2246  0.0337
12650W        W55703  13.269  28.658  23.523  0.0081  0.1608  0.0369
12651W        W55704  19.339  12.763  24.085  0.2521 -0.3019 -0.0033
12652W        W55705  30.824   6.226  23.784 -0.2042 -0.1888  0.0064
12653W        W55706   6.551   5.033   2.468  0.1874 -0.2720  0.2221
12654W        W55707   9.563  15.301   4.188  0.0324  0.0778 -0.0596
12655W        W55708  15.428   7.522  27.821 -0.0406 -0.3754  0.0326
12656W        W55709  29.579  30.128  20.398  0.0468 -0.2742 -0.1544
12657W        W55710   6.200   7.085   3.743  0.2441 -0.1280 -0.0644
12658W        W55711  23.407   9.177   5.672  0.0162  0.4177  0.0514
12659W        W55712   9.050  14.924   9.567  0.0410  0.0698 -0.3329
12660W        W55713  33.783  24.776   4.986 -0.0959 -0.0249 -0.1146
12661W        W55714  19.673  10.756   9.789 -0.0013  0.2706  0.2126
12662W        W55715  11.466   2.084  25.235 -0.1148 -0.0438 -0.1765
12663W        W55716  21.246  21.374   0.871 -0.4005 -0.1716  0.0201
12664W        W55717  23.081   9.691  10.151  0.1980 -0.0365 -0.3600
12665W        W55718  14.978  33.346  28.015 -0.1583 -0.2791 -0.1949
12666W        W55719  11.043  14.451   7.220 -0.4255 -0.3926 -0.0102
12667W        W55720  24.357  28.747   9.998  0.1489  0.2712 -0.1507
12668W        W55721  11.239  19.700  25.382  0.0072  0.2026  0.0205
12669W        W55722   0.282  24.268   8.023  0.0871  0.2714 -0.1615
12670W        W55723  12.759  30.171   2.826 -0.0556 -0.1186  0.0749
12671W        W55724   2.653  11.419   8.261  0.1107 -0.2553 -0.1062
12672W        W55725  27.902  22.569  24.039 -0.1965 -0.3183  0.0435
12673W        W55726  13.533   4.933   0.092 -0.1659 -0.2432 -0.0215
12674W        W55727  31.913  30.872  10.064 -0.0164 -0.3706  0.0011
12675W        W55728  29.925   3.326   4.959  0.0020  0.1876 -0.1880
12676W        W55729  26.572   1.485  26.733  0.0499 -0.3047  0.0327
12677W        W55730  23.347  22.097  28.393  0.1952 -0.0115 -0.0607
12678W        W55731  18.530   5.700   9.320 -0.1269 -0.3044 -0.2282
12679W        W55732   1.823   7.449  25.043 -0.1989 -0.0937  0.2183
12680W        W55733  14.064  24.424   2.990 -0.2287 -0.0994  0.2378
12681W        W55734  24.590  24.194   6.712 -0.1033 -0.2153  0.0058
12682W        W55735  27.416  20.459   4.835 -0.2823 -0.0129  0.0389
12683W        W55736   2.167  12.519  20.986 -0.3391 -0.0887 -0.1449
12684W        W55737  14.399   7.511   0.897  0.3341 -0.0271  0.1759
12685W        W55738  21.311  12.897   0.765 -0.0101 -0.2489 -0.1598
12686W        W55739  29.954   1.271  21.990 -0.1639  0.5050 -0.1842
12687W        W55740  20.601  16.842  20.450  0.0043  0.4799  0.4406
12688W        W55741  14.628   9.011   4.897  0.1083 -0.0045  0.4044
12689W        W55742  21.347   4.856   5.894  0.1767  0.1340 -0.1389
12690W        W55743   6.195   5.486  24.117  0.3286  0.2350  0.0865
12691W        W55744  22.633   3.947  23.926  0.2029  0.4362  0.0526
12692W        W55745  11.124  11.440   8.127  0.1803  0.2276 -0.1303
12693W        W55746  26.984  15.271  24.179 -0.1168 -0.2188  0.1925
12694W        W55747  14.120   4.889  25.771  0.1008 -0.0827  0.2987
12695W        W55748  29.138  15.578   7.536 -0.0129 -0.0496 -0.3405
12696W        W55749  10.633  16.388   0.020  0.2676  0.0169 -0.1330
12697W        W55750  21.480  14.579   4.951 -0.0488 -0.2417 -0.1422
12698W        W55751  24.065  17.000  21.439 -0.1512 -0.1352  0.0063
12699W        W55752  25.146  11.056   6.499  0.0758 -0.1252  0.0393
12700W        W55753  18.361  16.850   2.151 -0.0740  0.1412 -0.2186
12701W        W55754   9.438  13.277   8.817 -0.0489  0.0057  0.0154
12702W        W55755  24.519   8.200   9.463 -0.1666 -0.2319 -0.0369
12703W        W55756  11.403   7.318   5.355  0.0289  0.1532 -0.3250
12704W        W55757   5.050  21.624   9.416 -0.2643 -0.0107 -0.0170
12705W        W55758  29.211  21.526   3.580 -0.0879 -0.0174 -0.3487
12706W        W55759  30.338  18.778   9.245 -0.1136 -0.1326  0.1518
12707W        W55760  15.414  19.153  25.458 -0.2009 -0.2787 -0.2270
12708W        W55761  31.331   2.289   7.509 -0.1231  0.2360  0.0196
12709W        W55762  26.863  34.315   6.135 -0.2024  0.4003 -0.3004
12710W        W55763  16.041  15.932   8.820  0.2724 -0.0577  0.2009
12711W        W55764   4.268  18.273   0.800  0.0580  0.1728 -0.0105
12712W        W55765  23.793  30.875  20.371 -0.3014 -0.0567 -0.1259
12713W        W55766  25.395  11.655   2.727  0.0904 -0.0990 -0.4049
12714W        W55767  16.860  10.161  26.477 -0.3346 -0.1698  0.1009
12715W        W55768  15.531   9.912  10.163  0.0745  0.1976 -0.3548
12716W        W55769  27.638  21.760   8.446  0.0234  0.1180 -0.1202
12717W        W55770  23.561   9.029  29.082 -0.1393  0.2559 -0.2088
12718W        W55771  20.486  15.753   4.046 -0.2283  0.1292  0.1009
12719W        W55772  22.057  26.042   5.666 -0.3857  0.2552  0.0181
12720W        W55773  18.502  18.147  26.960 -0.0820 -0.3249 -0.3918
12721W        W55774  10.285  11.289   2.535 -0.3288 -0.0697  0.1142
12722W        W55775  10.237  25.012   3.360  0.0470 -0.1605  0.0928
12723W        W55776  18.543  22.720   8.636  0.2976  0.2142 -0.4140
12724W        W55777  23.375  12.129   8.339 -0.1827  0.2282 -0.1039
12725W        W55778  14.866  33.528   1.628  0.0182  0.0301  0.0711
12726W        W55779  21.141   8.000   0.907 -0.0126 -0.1832 -0.1955
12727W        W55780  17.771  16.906   3.130 -0.0073  0.0800  0.1709
12728W        W55781  24.822   3.645   6.734  0.1486  0.0283 -0.2392
12729W        W55782  27.652  12.621  27.527  0.0529 -0.0471 -0.3515
12730W        W55783  11.127   0.124  27.582  0.1208  0.0273 -0.3949
12731W        W55784  33.994  12.151  20.246 -0.2963  0.1620  0.3380
12732W        W55785  17.572   6.116   9.357 -0.0948  0.1838  0.1490
12733W        W55786  23.165  12.103  23.535  0.4335 -0.0993  0.1268
12734W        W55787  26.268  10.301   7.760 -0.1427  0.2937  0.1754
12735W        W55788   8.409  18.656   6.244 -0.0322 -0.1177 -0.1545
12736W        W55789  21.689  20.011   7.654 -0.3840  0.1234 -0.1201
12737W        W55790   3.411   8.702  27.221 -0.1754 -0.0018 -0.1474
12738W        W55791   7.672  10.915   0.920  0.2295  0.1312 -0.2018
12739W        W55792  14.015   7.684   8.494  0.0650 -0.1661  0.2565
12740W        W55793  24.979  29.544  26.115  0.0797 -0.2489  0.0578
12741W        W55794  17.337  12.964  25.159 -0.4302 -0.4738  0.1543
12742W        W55795   3.222  15.836   9.628 -0.0638 -0.1174  0.0771
12743W        W55796  27.096  22.194  24.852  0.0412  0.0724  0.0347
12744W        W55797  23.289   6.062   9.277 -0.0558  0.0193  0.0606
12745W        W55798   0.661   5.609   7.178 -0.2400  0.0260  0.0821
12746W        W55799  13.793  13.106   2.395 -0.1869 -0.0818 -0.0877
12747W        W55800   1.460  32.107   7.260 -0.0618  0.0851  0.1367
12748W        W55801  19.878  17.339   0.252  0.3228  0.3214  0.2045
12749W        W55802   9.226  17.639  15.055  0.0815 -0.2476 -0.0068
12750W        W55803  20.703  22.052  26.540  0.0080 -0.1541  0.0290
12751W        W55804  12.649   1.095   2.210 -0.0455 -0.0121 -0.2767
12752W        W55805  26.035  17.978  21.864  0.1108 -0.1350 -0.0656
12753W        W55806  25.367  12.141   8.446 -0.4005  0.3113 -0.2036
12754W        W55807  18.228   9.479   1.037  0.3066 -0.1817  0.3499
12755W        W55808  18.060  16.485   2.367  0.2033  0.0539  0.1916
12756W        W55809   1.654   4.390  22.453  0.0579  0.0553 -0.2184
12757W        W55810  15.435   8.016   6.136 -0.1261  0.2075  0.1519
12758W        W55811  13.461  33.061   8.262  0.0337  0.0084  0.0443
12759W        W55812  16.883  12.010   2.659  0.1977  0.4087 -0.1918
12760W        W55813  11.440  17.934   5.230  0.2570 -0.1602  0.0004
12761W        W55814  13.004  14.731   9.277  0.0624 -0.0201 -0.0392
12762W        W55815  15.141   5.861   6.818 -0.0018  0.0077  0.0230
12763W        W55816  21.414  28.492   4.240  0.0718  0.0236  0.0736
12764W        W55817  16.854  14.701   2.135 -0.2970 -0.1407  0.3184
12765W        W55818  22.600   9.572   8.862 -0.1791 -0.2553  0.1924
12766W        W55819  25.012  27.245  24.358 -0.0878 -0.1662  0.0023
12767W        W55820  31.062  15.953   9.461  0.0755  0.0237 -0.1368
12768W        W55821  18.308  13.728   9.335 -0.3236  0.0705  0.1974
12769W        W55822  19.810  26.753  10.205 -0.0174 -0.1586  0.0542
12770W        W55823   6.281  12.588   7.686 -0.1964  0.2792 -0.0065
12771W        W55824  17.544   4.932  27.942  0.1055  0.0137 -0.0476
12772W        W55825  33.994   3.065   3.499 -0.0921 -0.1461 -0.0917
12773W        W55826  19.835  29.418   3.242  0.0054  0.2349 -0.2198
12774W        W55827  26.466  18.616  25.356  0.0534 -0.2739 -0.1560
12775W        W55828  11.084  15.436   3.617 -0.0066  0.0632 -0.0942
12776W        W55829   7.278  22.058  28.391  0.0522  0.0679  0.2767
12777W        W55830  19.321  28.586   9.437 -0.1270  0.4141 -0.2482
12778W        W55831  33.689  26.783   8.470  0.0733 -0.1684  0.1233
12779W        W55832  19.033  14.024  26.429  0.2485  0.0684  0.2309
12780W        W55833   2.339   8.942  27.365 -0.0315 -0.1850  0.0932
12781W        W55834  22.953  12.319   1.813  0.0888 -0.2121  0.0513
12782W        W55835  12.341  23.318  25.808 -0.1451  0.2178 -0.2227
12783W        W55836  24.123   9.319  25.477 -0.0892  0.1105 -0.1832
12784W        W55837  19.992  15.126   2.479  0.0468  0.0986  0.3447
12785W        W55838  30.424  26.605  29.010 -0.0725 -0.0213  0.1673
12786W        W55839  15.297  20.012  27.765  0.0971 -0.2883 -0.1184
12787W        W55840  10.883  15.446   4.140  0.0416  0.2444  0.1396
12788W        W55841  16.040  11.858   0.598 -0.2794  0.0351 -0.2036
12789W        W55842  31.143  29.181   1.597 -0.2677 -0.1881 -0.2252
12790W        W55843  22.168  24.550  26.743  0.2483  0.1246  0.0139
12791W        W55844  15.262  11.521  20.792 -0.0688  0.0599  0.0916
12792W        W55845   4.691  14.844   4.165  0.0878  0.0603 -0.1364
12793W        W55846  28.802   7.812   9.567 -0.0935 -0.3496  0.1343
12794W        W55847  12.425   6.339   1.458  0.0806  0.0460 -0.1209
12795W        W55848  11.993  17.251  23.183 -0.0533  0.0573  0.1726
12796W        W55849  26.473  11.277   8.290 -0.2296 -0.0278 -0.0371
12797W        W55850  21.296  11.463  10.400 -0.3886 -0.0369  0.4371
12798W        W55851  28.217  17.227   8.812 -0.0893  0.1465  0.1502
12799W        W55852  11.240  18.912  27.544 -0.5094 -0.0122 -0.2073
12800W        W55853  25.044  13.227   3.299  0.4052 -0.2596  0.0936
12801W        W55854  32.011  10.798  21.465  0.0352 -0.2373 -0.1592
12802W        W55855  31.460  22.923  24.521  0.1873 -0.1511  0.2256
12803W        W55856  31.966   9.037  10.404  0.1650 -0.0120  0.0707
12804W        W55857   6.195  13.109   8.676 -0.2300 -0.0531  0.2003
12805W        W55858  19.984   4.531   0.451 -0.0660 -0.2122  0.2822
12806W        W55859   4.082  12.370   5.337 -0.1593 -0.0810  0.2425
12807W        W55860  20.381  24.355   1.667  0.0839 -0.0293  0.0488
12808W        W55861  20.879  15.056  20.538  0.3411  0.1523 -0.1953
12809W        W55862  20.888  10.031   2.948 -0.1530  0.1387  0.1160
12810W        W55863   6.895  31.218   4.963  0.2645 -0.0488  0.0663
12811W        W55864  16.631  18.924  26.448 -0.0874 -0.2564 -0.2491
12812W        W55865  27.695  24.356  22.542 -0.1855 -0.3992 -0.0134
12813W        W55866  13.454   9.440  25.909 -0.0689 -0.0762 -0.0965
12814W        W55867  33.650  17.384   9.333  0.0792 -0.2309  0.0595
12815W        W55868  22.118  21.330   5.562 -0.3712  0.1016 -0.1974
12816W        W55869  33.662  33.109   1.360 -0.2594  0.1772 -0.0295
12817W        W55870  23.955   8.319  24.600 -0.1937 -0.0161  0.2813
12818W        W55871  22.651   8.529  28.636 -0.2000 -0.1823  0.0126
12819W        W55872  20.771  11.742   9.646  0.0773 -0.1670  0.0161
12820W        W55873   0.998  30.286   3.471 -0.2468  0.0099 -0.1980
12821W        W55874  19.849  22.965   1.275  0.0908 -0.2966 -0.2378
12822W        W55875  14.719  19.499   5.873 -0.1145 -0.6409  0.0514
12823W        W55876   8.680  10.645  15.466 -0.0201  0.3172 -0.0677
12824W        W55877  22.501  12.518   1.816  0.1694 -0.2761 -0.1674
12825W        W55878  31.348   1.814  18.090 -0.2715 -0.2670  0.1576
12826W        W55879  23.132  12.706   9.725  0.0579  0.1501 -0.0836
12827W        W55880   2.124  13.069   2.135 -0.2240 -0.2994  0.4614
12828W        W55881   2.890  16.153   8.095 -0.2401 -0.0907 -0.1808
12829W        W55882  23.472  19.790   3.363 -0.0317 -0.3468  0.0424
12830W        W55883  28.038  23.984   1.421  0.2306 -0.0568  0.1152
12831W        W55884  20.542  11.777   3.324 -0.1939 -0.3934 -0.0019
12832W        W55885  22.607  21.729  20.799  0.6025 -0.0109  0.2422
12833W        W55886   6.008   7.335   4.759  0.1232  0.0711  0.2410
12834W        W55887  21.233   4.918  19.775 -0.0130  0.1763 -0.0024
12835W        W55888  28.966  22.827   8.002  0.0407 -0.3712 -0.0478
12836W        W55889  33.338   6.346   1.097  0.1267  0.0798  0.1740
12837W        W55890  13.789  18.370   3.417 -0.2028 -0.0786 -0.2262
12838W        W55891  28.270  23.404  27.637 -0.2976  0.1695 -0.1773
12839W        W55892  16.452  20.029   7.645  0.0868  0.0398  0.3662
12840W        W55893  22.921  10.647   5.194 -0.0804  0.2910 -0.1270
12841W        W55894  22.132  11.495   0.834 -0.0555  0.0307 -0.1406
12842W        W55895  20.427  21.204   6.510  0.2017  0.1794  0.1602
12843W        W55896  21.467  17.630   3.842  0.3026  0.3391 -0.1119
12844W        W55897   8.991  11.775   3.573 -0.1413 -0.2969  0.0433
12845W        W55898  21.934  16.037  29.137 -0.3857  0.0124  0.0471
12846W        W55899  26.632  17.606   3.282  0.1147 -0.1147  0.0461
12847W        W55900  28.021   2.563   8.894  0.1783  0.3393  0.1143
12848W        W55901  12.973   8.252   9.387 -0.1887 -0.0083  0.0787
12849W        W55902  17.742  13.171   1.204  0.2475 -0.0111  0.3670
12850W        W55903  11.638  15.920   2.908  0.4658  0.0321  0.0134
12851W        W55904  34.140   8.448  28.289 -0.1395  0.1695 -0.0095
12852W        W55905  19.754   2.280   8.201  0.0567  0.2083  0.0732
12853W        W55906  11.380   2.246  21.904  0.1746  0.1066  0.0283
12854W        W55907  20.837  10.627  18.058  0.0654 -0.0791 -0.2172
12855W        W55908  34.579  27.275   3.062  0.1891  0.0430 -0.0290
12856W        W55909  19.115  10.448   4.157 -0.0621 -0.3282  0.1745
12857W        W55910   7.042  17.091   1.787  0.1733  0.0945 -0.1480
12858W        W55911  29.575   8.910   0.526  0.0140 -0.3156  0.1942
12859W        W55912  33.571  14.076   8.163  0.1959  0.1655 -0.2605
12860W        W55913  14.698  12.860   0.304  0.2377  0.2385 -0.1790
12861W        W55914  19.824  19.078   2.000 -0.0838  0.1294  0.5153
12862W        W55915  19.619  15.491  26.632  0.0941  0.5903 -0.4455
12863W        W55916  14.624  18.643   6.784  0.3961 -0.0897 -0.1068
12864W        W55917  33.063  33.117   2.903 -0.1405  0.1876  0.0229
12865W        W55918  23.854   3.736   4.042 -0.1604 -0.0036 -0.1630
12866W        W55919  26.443  15.208   7.311 -0.0036  0.3118 -0.1866
12867W        W55920  20.035  19.436   2.629 -0.0162 -0.0598 -0.2031
12868W        W55921  20.818   3.350   3.890  0.0836  0.0541 -0.1651
12869W        W55922  30.352  10.426   8.016 -0.0685 -0.0460  0.1201
12870W        W55923   4.731   9.921   8.088 -0.0242 -0.1878 -0.0016
12871W        W55924  23.878  14.558   7.982  0.2708 -0.0803 -0.1829
12872W        W55925  20.169   3.671  25.110  0.3560  0.1740 -0.3203
12873W        W55926  23.954  12.566  19.314  0.1735 -0.2796 -0.0207
12874W        W55927  30.950   4.295   5.315 -0.0044  0.1936  0.0648
12875W        W55928  21.544   4.025   1.644  0.0455  0.1757 -0.0139
12876W        W55929  28.474  28.917   5.621  0.1093 -0.0978  0.1569
12877W        W55930  10.742   8.787   2.769  0.0174  0.2278  0.0109
12878W        W55931  16.381  21.223  26.561  0.0990 -0.0384  0.0077
12879W        W55932  25.206   7.298  28.049  0.0002  0.0761 -0.1235
12880W        W55933  17.224  14.850   7.856  0.0767 -0.0963  0.1519
12881W        W55934  19.631  18.926   2.422  0.0480  0.0946 -0.2377
12882W        W55935  28.779  12.264  27.775  0.3618 -0.0095 -0.3911
12883W        W55936  21.765  17.549  19.081 -0.0095 -0.3165  0.2925
12884W        W55937  24.206  27.086  10.230 -0.0184 -0.1945 -0.3464
12885W        W55938  17.659   7.881  26.537  0.0862  0.2843  0.0794
12886W        W55939   6.438   5.645   5.129  0.0529  0.1333 -0.1561
12887W        W55940  13.563  22.878  25.022  0.0717 -0.1689  0.1027
12888W        W55941   6.776  30.564  23.905  0.2822 -0.0739 -0.0006
12889W        W55942  21.243  25.383  25.052 -0.1308  0.4313  0.0425
12890W        W55943  26.325   8.962   2.864 -0.1555 -0.2621  0.1496
12891W        W55944  32.597  26.074   6.925 -0.1046  0.0509 -0.1023
12892W        W55945  30.168   9.195  25.240  0.0338 -0.0741 -0.2030
12893W        W55946  20.376   4.344  10.190 -0.1873 -0.1091  0.1615
12894W        W55947  29.500  31.276  25.467 -0.1413 -0.2252  0.3287
12895W        W55948  17.438   2.847   9.660  0.2894  0.0286  0.0353
12896W        W55949  22.072  26.096   1.967  0.0800 -0.0447  0.3028
12897W        W55950  19.444   8.717  21.529  0.3730 -0.0402  0.0558
12898W        W55951  23.107  21.292  27.985  0.1134  0.0296  0.1739
12899W        W55952  29.345  11.776   6.457  0.2834  0.0487  0.2655
12900W        W55953  29.376  16.895   4.927 -0.0418  0.1479  0.3228
12901W        W55954  21.874   1.299   9.736 -0.0424 -0.2388 -0.1947
12902W        W55955  23.308   9.144   5.195 -0.1937 -0.0021  0.0457
12903W        W55956  17.542   7.912  23.212  0.0872 -0.0764 -0.1294
12904W        W55957   5.909   9.327   0.891 -0.2613  0.0346  0.1921
12905W        W55958  11.547   9.071  28.543 -0.1415 -0.2504  0.0362
12906W        W55959  31.266   6.023   7.437 -0.1688  0.0618 -0.2502
12907W        W55960  17.538   8.789   0.133  0.2612 -0.0576 -0.0242
12908W        W55961  11.715   0.524  26.797  0.0352 -0.0565 -0.2262
12909W        W55962  31.928  20.177  25.039  0.1461 -0.1019 -0.1392
12910W        W55963  16.453   7.899   9.746 -0.1292  0.3544  0.3966
12911W        W55964  25.157  16.341   8.679  0.0389  0.2378 -0.1527
12912W        W55965  34.632   1.470  22.887  0.1611  0.3674  0.0511
12913W        W55966   9.933  13.616  20.809 -0.0625  0.2929  0.1283
12914W        W55967  22.814  16.957  25.014 -0.3849  0.3771 -0.0442
12915W        W55968  18.909  13.841  25.109  0.0788 -0.3210  0.0246
12916W        W55969  26.565  23.836  25.861 -0.1189  0.1630 -0.1429
12917W        W55970  21.189  13.403  15.066 -0.1143 -0.1177 -0.2747
12918W        W55971   5.923   4.611   9.600 -0.3120  0.2113  0.1329
12919W        W55972  27.136  18.016   2.698  0.2950 -0.0705  0.1126
12920W        W55973  10.257  15.465  18.226 -0.0815 -0.1578  0.1512
12921W        W55974  22.243  15.593  22.419  0.0960 -0.2959  0.0774
12922W        W55975   5.198   5.862   7.151 -0.0662 -0.1887 -0.1753
12923W        W55976   8.235   7.345   5.199  0.0988 -0.2262  0.3195
12924W        W55977  23.866  15.204   8.515 -0.1568 -0.0503  0.0018
12925W        W55978  19.450  13.029  20.227 -0.2145 -0.2196  0.4206
12926W        W55979  25.134  18.078   4.522 -0.3562 -0.0432  0.1769
12927W        W55980   6.422  16.684   4.913 -0.2579 -0.0975 -0.0877
12928W        W55981  21.164  17.879  24.477  0.3421 -0.0696 -0.1668
12929W        W55982  22.611  17.566  20.886 -0.1742  0.2112  0.2662
12930W        W55983  22.053  18.828   9.364  0.1377  0.2117  0.2175
12931W        W55984  15.563  23.419   9.648 -0.1722 -0.2325 -0.1104
12932W        W55985   9.513  10.206  22.879 -0.0422 -0.0146  0.0963
12933W        W55986  27.903  15.581  19.631  0.2532 -0.1860  0.0977
12934W        W55987  26.979  31.034  10.443 -0.3974 -0.4699 -0.2335
12935W        W55988   4.261  12.000   7.985  0.0657 -0.0526  0.0278
12936W        W55989  15.813  18.674  22.894  0.0013 -0.2787 -0.3362
12937W        W55990  16.239  14.900  23.596 -0.1176 -0.0057 -0.0870
12938W        W55991   0.284   9.960   8.452 -0.3079 -0.1243 -0.0959
12939W        W55992  28.223  10.667  20.364  0.3849  0.3137 -0.2049
12940W        W55993  21.513  16.133  12.962 -0.2013 -0.0991  0.2119
12941W        W55994  29.271  10.766   5.399 -0.1501 -0.0539  0.1268
12942W        W55995  24.214  31.062   1.097 -0.0377  0.0137  0.2628
12943W        W55996  19.058  20.994   7.989 -0.0265 -0.0265  0.1998
12944W        W55997  19.632  20.828   6.077  0.0196 -0.5591  0.1458
12945W        W55998  21.557  12.359  16.405  0.0176  0.1651  0.2472
12946W        W55999   3.106  10.444   8.850  0.2705  0.1943  0.0099
12947W        W56000  32.474  21.173  27.445 -0.0455 -0.3595  0.1548
12948W        W56001  16.945   4.370   1.785 -0.0124  0.3912  0.0975
12949W        W56002  19.927  26.842   2.113  0.0130  0.3107  0.1433
12950W        W56003   8.255  13.643  14.374  0.3714 -0.2640 -0.2329
12951W        W56004  16.848   7.952   6.078  0.0403 -0.1290  0.0841
12952W        W56005   9.562  16.304  28.679  0.0605 -0.1260  0.0390
12953W        W56006  12.044  28.088  15.195  0.1694 -0.0024 -0.0647
12954W        W56007  19.891  10.466   6.666 -0.4731 -0.2094  0.2914
12955W        W56008  28.681  33.022  28.491 -0.0349  0.2210  0.3820
12956W        W56009  24.897  12.093  19.360 -0.0641  0.1999 -0.0514
12957W        W56010   1.064   6.580   0.885  0.3448  0.0215 -0.2525
12958W        W56011  24.978  13.930  20.850 -0.1425 -0.0261 -0.3066
12959W        W56012   0.504   8.586  17.430  0.0069 -0.4090 -0.1860
12960W        W56013  12.299  25.841   6.332  0.0079  0.1908  0.1213
12961W        W56014  17.821   8.639  26.580  0.0005  0.0002 -0.0931
12962W        W56015  20.499  30.647   8.784 -0.2312  0.0093  0.1414
12963W        W56016  32.254  25.827   4.214 -0.0785 -0.2116 -0.1599
12964W        W56017  31.308  10.668  26.809  0.0970  0.1030  0.0566
12965W        W56018   3.592  21.717   3.077  0.0836  0.0854  0.1962
12966W        W56019  28.263   3.651  28.394  0.0206  0.5365 -0.1648
12967W        W56020  24.420   2.881   1.974 -0.1012  0.2281  0.1043
12968W        W56021  33.610  16.466   6.447 -0.0499 -0.3485  0.0992
12969W        W56022  21.305  25.139   7.145  0.2754 -0.0109 -0.2789
12970W        W56023  22.557  12.664   2.780 -0.1491  0.2417  0.5171
12971W        W56024  27.030  29.925  25.591  0.2168 -0.0792 -0.2155
12972W        W56025  23.809   1.791  19.177  0.4137  0.4139  0.0628
12973W        W56026  16.212  15.754   3.748 -0.1472  0.0444 -0.3184
12974W        W56027  33.501  12.144  14.890 -0.3172  0.1430  0.2492
12975W        W56028  20.814  16.562  24.799 -0.3125 -0.0790  0.0653
12976W        W56029  24.848  22.953   0.897  0.1532  0.1894 -0.4361
12977W        W56030  21.283  14.425   1.072  0.0045 -0.0581 -0.2789
12978W        W56031  30.334  15.302  27.248  0.2166 -0.0893 -0.0012
12979W        W56032  19.652   7.702   9.929  0.1875 -0.0114 -0.3602
12980W        W56033  15.103  10.253   9.342 -0.4333  0.0916 -0.3864
12981W        W56034  15.830   0.698   8.387 -0.2093  0.1351 -0.3485
12982W        W56035  15.994   4.747   3.213  0.0117  0.0348  0.1792
12983W        W56036  27.394  14.710   8.024  0.1518 -0.0615 -0.0881
12984W        W56037  33.868  26.921  28.103  0.1704  0.0975 -0.1618
12985W        W56038   5.125  13.367   3.284  0.2658  0.1165 -0.3405
12986W        W56039  22.750  25.984   7.873 -0.5172  0.1612 -0.0263
12987W        W56040  19.746  19.776   9.086  0.1906  0.1201 -0.1004
12988W        W56041  13.872  23.699   8.867  0.0730  0.0746  0.1460
12989W        W56042  25.430  20.620  24.982 -0.0117  0.1561  0.2844
12990W        W56043  30.029  16.314  19.844  0.2124  0.1043  0.1179
12991W        W56044  25.954   3.167  25.044  0.1532  0.0971  0.5094
12992W        W56045  21.876  15.693   1.000  0.0266 -0.1641  0.0284
12993W        W56046  24.727   8.743  15.896 -0.3029  0.0427  0.5797
12994W        W56047  21.807  16.063   5.732 -0.0991 -0.0173  0.2919
12995W        W56048  15.577   2.751  23.458 -0.0919 -0.3829 -0.2853
12996W        W56049  17.905  23.998   7.890  0.0385  0.0290 -0.1454
12997W        W56050  23.586  23.210  20.234 -0.3088 -0.1204 -0.1182
12998W        W56051  24.346  15.755   4.055 -0.1254  0.1734  0.0048
12999W        W56052  20.447  28.512   4.060 -0.0867  0.1729 -0.0746
13000W        W56053  32.017  17.926  28.435 -0.1552 -0.0164 -0.1532
13001W        W56054  13.981  12.191  10.297 -0.2803  0.0837 -0.0641
13002W        W56055   9.116   4.448  14.769  0.0757 -0.0586 -0.4025
13003W        W56056  16.501  15.920   7.583  0.2059  0.1789  0.0827
13004W        W56057  21.279  17.195  15.873 -0.2847 -0.1590 -0.0723
13005W        W56058  17.144  28.976   9.300 -0.1826 -0.4002 -0.1611
13006W        W56059  13.248  14.146   8.799  0.1123 -0.0728  0.0207
13007W        W56060   7.417  10.489  20.300  0.1020  0.1213 -0.1342
13008W        W56061  15.516  14.316   1.790  0.2811  0.2105  0.1360
13009W        W56062  34.462  12.642  25.261 -0.0868  0.3355 -0.0315
13010W        W56063  20.096   6.513  23.832  0.0293 -0.2855  0.2797
13011W        W56064  13.445  13.825   2.477  0.1129 -0.0961 -0.2323
13012W        W56065  27.624   1.357   4.559 -0.0010  0.5746  0.1545
13013W        W56066  14.373  32.803   7.978 -0.2384 -0.0880  0.0347
13014W        W56067  13.050  17.411  10.283  0.0436 -0.0088  0.3045
13015W        W56068  15.596  25.174  17.105  0.1544 -0.1909  0.1176
13016W        W56069   8.085   1.252   0.388 -0.1314  0.2741 -0.1155
13017W        W56070  22.827   7.179  13.842  0.0409  0.1193 -0.0161
13018W        W56071  25.398  15.856  25.745  0.0774  0.1769 -0.1614
13019W        W56072  29.277  20.839   7.184  0.2081 -0.0025  0.3181
13020W        W56073  21.247  18.910  17.744 -0.2910  0.1729 -0.4128
13021W        W56074  11.868  15.407   8.660  0.1942  0.1965 -0.3753
13022W        W56075  16.957  29.318  28.405 -0.1942  0.0695  0.1221
13023W        W56076  17.618  31.580  22.936 -0.1628 -0.0327  0.1254
13024W        W56077  17.145  14.744  28.353 -0.2546  0.2324 -0.0054
13025W        W56078  26.766  23.783   4.309  0.2415  0.1226 -0.0639
13026W        W56079  18.984   2.275  17.451 -0.2043 -0.1309  0.1952
13027W        W56080  28.999  21.244  22.591  0.1293  0.1390 -0.0843
13028W        W56081  27.246  10.696  24.608  0.0052 -0.0104 -0.0935
13029W        W56082  27.131   7.048   8.013  0.1153  0.0431 -0.1569
13030W        W56083  28.250  11.429   4.769 -0.0085  0.1025 -0.0650
13031W        W56084  21.791   0.009   1.257  0.2475 -0.0177 -0.1795
13032W        W56085  12.348   5.349   5.668 -0.0292  0.2120  0.2275
13033W        W56086  32.234   5.311  18.929  0.0427  0.1471  0.2050
13034W        W56087  20.077  14.225  20.539  0.2448  0.0050 -0.2479
13035W        W56088  25.890  18.700  26.821  0.0535  0.0968  0.3245
13036W        W56089  22.610  25.136   8.364 -0.1259 -0.0645  0.0037
13037W        W56090  24.824   4.135  27.318 -0.0407 -0.1717 -0.2084
13038W        W56091  29.591   0.016   9.104 -0.1537  0.1806  0.0346
13039W        W56092  22.263  26.813  29.132 -0.0871  0.0353 -0.0602
13040W        W56093  25.827  16.441   5.001 -0.2382 -0.0980 -0.3639
13041W        W56094   7.228   2.511  26.724  0.1347  0.1258 -0.0148
13042W        W56095  19.989  10.278  19.860  0.0720  0.1981 -0.1864
13043W        W56096   1.329  11.192  25.570 -0.1209  0.0523 -0.3998
13044W        W56097  24.315  12.336   8.042 -0.3959  0.0473  0.1504
13045W        W56098  19.879   7.472   2.359  0.0662  0.0912 -0.1075
13046W        W56099  26.208  12.550   4.377 -0.1466 -0.1766 -0.1839
13047W        W56100  20.806  19.177   9.744 -0.1550 -0.1742  0.0038
13048W        W56101  25.961   7.486   3.694 -0.1678  0.0743  0.0515
13049W        W56102  25.046   3.738  19.623  0.1332 -0.0474  0.1419
13050W        W56103  19.420  22.613   5.588 -0.2104  0.0070  0.0110
13051W        W56104  20.197  28.147  21.220 -0.1936 -0.3489 -0.1589
13052W        W56105  32.671  20.825  24.801 -0.2205  0.0145 -0.0767
13053W        W56106  29.255  16.364  16.702 -0.1629  0.0207  0.0661
13054W        W56107  34.513  20.861  26.995 -0.1269  0.0963 -0.1372
13055W        W56108  30.550  23.841   2.616  0.1174 -0.0293  0.2024
13056W        W56109  21.035   3.556  27.696  0.0261 -0.2558  0.0229
13057W        W56110  28.889  14.154   8.109 -0.2144  0.0543 -0.1087
13058W        W56111  14.696   5.595  25.715  0.1147  0.1790 -0.0371
13059W        W56112  12.568  12.860   4.441 -0.0053  0.0275  0.2046
13060W        W56113  20.084  12.755  13.896 -0.2710  0.0486 -0.3149
13061W        W56114  16.809  19.490   1.343 -0.0889 -0.2667 -0.0196
13062W        W56115   2.862   5.913   5.351 -0.0939 -0.0848  0.1374
13063W        W56116  13.134  31.385  16.309  0.1414 -0.0671  0.2959
13064W        W56117  21.973  24.777   5.771  0.0054 -0.4996 -0.0732
13065W        W56118   4.225  24.290   9.116 -0.1404  0.0886 -0.1588
13066W        W56119  18.440   3.700  24.392 -0.0395 -0.0004  0.2661
13067W        W56120  21.476  20.677   3.070 -0.2936 -0.1404 -0.0882
13068W        W56121  17.251  17.031  14.718 -0.2185  0.2050 -0.2179
13069W        W56122  20.352  10.479   4.767 -0.0500 -0.3231 -0.2690
13070W        W56123  26.945   8.538  19.367  0.2764 -0.1939 -0.0045
13071W        W56124  32.890  25.341  15.007 -0.0522  0.1671 -0.0398
13072W        W56125  12.651  13.923   8.215 -0.0307  0.2875 -0.4369
13073W        W56126  30.994  25.520  25.608  0.0884  0.2745 -0.2021
13074W        W56127   5.365  21.455  22.881  0.4446  0.2967 -0.1096
13075W        W56128  16.659   8.486   8.880  0.1268  0.2978  0.0637
13076W        W56129   4.164  11.965   2.519 -0.2882  0.0193  0.3317
13077W        W56130  30.809  18.542  24.946 -0.3257 -0.0515 -0.1958
13078W        W56131  14.089  18.645  25.513  0.2291  0.2999  0.0835
13079W        W56132  18.678   7.727  21.605  0.0739 -0.3018 -0.0311
13080W        W56133   7.153   9.171  24.109  0.1129 -0.0019 -0.1610
13081W        W56134  32.447  20.539   0.625 -0.0097 -0.2788  0.2719
13082W        W56135  21.554   6.841  16.568  0.1543 -0.0019  0.1446
13083W        W56136  29.169   7.875   7.561  0.4007 -0.2483 -0.0583
13084W        W56137   2.505   5.836   7.612 -0.1749 -0.0443 -0.1128
13085W        W56138  24.638  19.563   4.814 -0.2601 -0.3890 -0.3594
13086W        W56139  22.716  23.180   3.927 -0.0889  0.2387  0.4046
13087W        W56140   8.455  27.401   5.989  0.3007 -0.2553 -0.2376
13088W        W56141  25.550   1.177   8.442 -0.1387 -0.0676 -0.1591
13089W        W56142  17.119  18.815   6.111 -0.0142  0.0169 -0.0639
13090W        W56143  21.765  25.383   5.967 -0.0555  0.0113 -0.0462
13091W        W56144   3.266   1.302  23.649  0.2173 -0.3166  0.2202
13092W        W56145  29.009  16.466   2.783 -0.0129 -0.0706 -0.1569
13093W        W56146  13.240  31.839   7.442  0.1028 -0.4410  0.2590
13094W        W56147  30.959  14.289  25.951  0.3293  0.0257 -0.2646
13095W        W56148  21.871  22.706   2.940 -0.1028  0.1786 -0.1074
13096W        W56149  20.227  20.647   1.266  0.1629 -0.1614 -0.3335
13097W        W56150  13.189   5.363  27.347 -0.1119  0.1401  0.0452
13098W        W56151   7.558   8.235  17.055 -0.2651 -0.0398  0.1411
13099W        W56152  20.227  13.700   8.124  0.2229 -0.0496 -0.1768
13100W        W56153  26.683  23.238  21.333  0.2846  0.2242  0.1573
13101W        W56154  32.275  17.302   5.721 -0.0040  0.0156  0.2863
13102W        W56155   7.151  26.274  27.062  0.2706 -0.2156  0.3483
13103W        W56156  27.568  27.924   1.785 -0.1716 -0.1244  0.1081
13104W        W56157  24.335   4.617  10.756  0.2093  0.4354 -0.0892
13105W        W56158  20.360  14.527   0.975  0.3228 -0.1909  0.1512
13106W        W56159  15.935  15.259   6.287 -0.2917  0.1294  0.0683
13107W        W56160  18.258  25.782   9.836  0.2740  0.2442  0.0882
13108W        W56161  16.707  22.689  17.865  0.5523  0.1190 -0.1243
13109W        W56162  26.332  29.542  26.770 -0.4136 -0.1726 -0.1549
13110W        W56163   2.813  29.460   6.085 -0.2893  0.0090  0.2107
13111W        W56164  16.072   6.326   6.555  0.1729  0.2040 -0.0393
13112W        W56165  19.451  11.027   0.556  0.0840 -0.4136  0.2703
13113W        W56166  15.887  25.136   6.870  0.0560 -0.1615 -0.2734
13114W        W56167   4.911  15.406   2.549 -0.0860 -0.1059  0.3873
13115W        W56168  20.277  20.965  24.647  0.1510  0.2049 -0.3990
13116W        W56169  20.873  18.421  28.601  0.2872  0.0130 -0.3908
13117W        W56170  29.079  14.308   7.584  0.1717 -0.2598  0.1200
13118W        W56171   4.130   9.624  28.885  0.0553  0.2495  0.1355
13119W        W56172   4.132  21.299  27.403  0.3414 -0.1622  0.1768
13120W        W56173  24.707   4.871  21.669  0.2552  0.0751 -0.1887
13121W        W56174  16.816   1.413   4.800 -0.0265  0.0683  0.0310
13122W        W56175   8.135  13.601  17.524 -0.3014  0.2538 -0.1271
13123W        W56176   2.904  11.658   5.523 -0.0358 -0.1103  0.1947
13124W        W56177  32.568  19.264  23.443  0.0188  0.2729  0.0977
13125W        W56178  12.949  23.556  24.956 -0.0098 -0.0918  0.1649
13126W        W56179  19.876  12.789   8.184 -0.0172 -0.0866  0.0512
13127W        W56180   9.969  24.027   5.222  0.1506 -0.1646  0.1173
13128W        W56181  24.083  11.275  20.910  0.0636 -0.1068  0.2881
13129W        W56182   9.702  19.968   7.443 -0.1946 -0.0788 -0.2583
13130W        W56183  10.943  22.763   7.640 -0.1490  0.1392 -0.1890
13131W        W56184  29.532  12.782  25.073 -0.3389 -0.4034 -0.3691
13132W        W56185   4.204  22.642   1.491  0.1227 -0.2133 -0.2411
13133W        W56186  23.267  18.841   7.366 -0.0304  0.0336  0.4157
13134W        W56187  19.817  18.207   4.816  0.0415  0.0836 -0.2806
13135W        W56188  18.042  13.009  27.506 -0.2212 -0.2791 -0.2464
13136W        W56189  15.573   1.746   6.855  0.0814 -0.1776  0.2492
13137W        W56190  19.156  34.462  14.993 -0.1892  0.1179  0.0459
13138W        W56191  10.403  13.666   7.747 -0.0125 -0.1417 -0.0215
13139W        W56192   5.660   4.000   8.810 -0.1126  0.1247  0.0508
13140W        W56193   8.670  24.887   4.067 -0.3498 -0.0812  0.0684
13141W        W56194  17.947  12.027  21.175  0.0465 -0.1417  0.3155
13142W        W56195   0.524   5.434   5.365 -0.1496 -0.1150  0.1337
13143W        W56196  15.857  13.226   0.501 -0.1415  0.3826 -0.0296
13144W        W56197  19.950   2.958  24.712 -0.0714 -0.1460 -0.2854
13145W        W56198  20.967  30.977  21.219  0.2693 -0.0075  0.3687
13146W        W56199  17.281   1.292   6.372  0.3072  0.1054  0.1245
13147W        W56200   8.658  21.584   9.759 -0.3068 -0.0317 -0.2167
13148W        W56201   1.784  22.340  27.827  0.2912 -0.1036  0.1354
13149W        W56202  17.130   2.421   4.763 -0.1151  0.3231 -0.0169
13150W        W56203   5.605   5.457  17.996  0.1324  0.3744 -0.3317
13151W        W56204   6.054  15.851  21.484  0.1288 -0.2819  0.3966
13152W        W56205  21.201  22.465   3.843  0.2636 -0.3132 -0.0523
13153W        W56206   3.398  21.120   5.285 -0.0466 -0.2924  0.3644
13154W        W56207  29.744  10.214   8.473  0.1010  0.1297  0.1597
13155W        W56208  21.744  23.718  23.511  0.1106  0.0231 -0.1166
13156W        W56209  23.361  14.172   8.813  0.0055 -0.1882 -0.3278
13157W        W56210  12.281  20.420   1.259 -0.0201  0.0152  0.1674
13158W        W56211   6.111  22.360   8.208  0.0216  0.1152 -0.2099
13159W        W56212  15.772   5.152   7.058 -0.3694 -0.1754 -0.3182
13160W        W56213  22.004  22.083   4.762 -0.1391 -0.0598  0.2099
13161W        W56214   9.147  12.777  28.647 -0.1475  0.1909 -0.1774
13162W        W56215   1.987  10.788  22.482  0.0943  0.1886 -0.2298
13163W        W56216  18.386  29.588  15.590  0.1322  0.1597  0.4123
13164W        W56217   6.391  33.887  18.831 -0.0454 -0.1075  0.0115
13165W        W56218  15.612  11.290   9.223 -0.0334 -0.0867  0.1367
13166W        W56219  21.157  14.822  19.868 -0.0743  0.2121 -0.0923
13167W        W56220  29.077  13.041   9.863 -0.0567 -0.0497 -0.2255
13168W        W56221  33.181   7.747   0.837  0.1177 -0.0658 -0.0226
13169W        W56222   9.541  14.262   5.209  0.0272 -0.1321 -0.1908
13170W        W56223  24.380  23.102   6.099  0.2755  0.1005  0.1326
13171W        W56224  19.044   9.550  28.712  0.1402 -0.2143 -0.1473
13172W        W56225  20.629   2.786   6.155  0.1174 -0.1863 -0.0560
13173W        W56226  26.224  13.042   7.586  0.0107  0.1680 -0.0460
13174W        W56227  10.035   0.713   2.259 -0.1902  0.0712  0.1530
13175W        W56228  28.920   7.779  18.927 -0.0032 -0.1249 -0.1899
13176W        W56229  14.106   1.056   0.321  0.1423  0.2635 -0.0175
13177W        W56230  10.742  11.096   3.306 -0.1905  0.2232 -0.2333
13178W        W56231  10.238   5.281  18.270 -0.4622  0.0676 -0.0528
13179W        W56232  14.187  15.567   8.721 -0.1107 -0.0899  0.0881
13180W        W56233  26.232  30.862   1.011 -0.3027  0.0900  0.0783
13181W        W56234  33.295  11.779   1.871 -0.3402  0.2050 -0.0494
13182W        W56235  30.970  12.269  10.564  0.1594  0.0297  0.1592
13183W        W56236  34.186   6.927   1.158  0.1369 -0.1134 -0.0973
13184W        W56237  25.765  12.160   1.030  0.1337 -0.2352  0.2419
13185W        W56238  25.194  32.672  21.565 -0.2970 -0.0688 -0.1624
13186W        W56239  22.033  12.479   5.768  0.3095 -0.2285  0.1224
13187W        W56240  18.608  19.719  23.694  0.2667 -0.0633 -0.0870
13188W        W56241  31.234  15.206  21.609  0.4290  0.1916 -0.1858
13189W        W56242  33.045  34.379   2.863 -0.1407 -0.1739  0.1254
13190W        W56243  10.112  10.754  18.606  0.0292 -0.2093 -0.1128
13191W        W56244   1.108   6.579   5.851 -0.1198 -0.2569 -0.3263
13192W        W56245  16.967  14.210  22.777 -0.0983 -0.3620  0.3019
13193W        W56246  15.130   3.918   3.617 -0.2495 -0.0181  0.2817
13194W        W56247  17.359  22.998   9.761 -0.2006  0.3177  0.0682
13195W        W56248   2.225  14.973  10.077  0.0258 -0.1184 -0.0227
13196W        W56249  24.607  19.191  23.288  0.0420  0.3240 -0.0032
13197W        W56250   8.917  13.382   0.988  0.0138  0.0873 -0.1327
13198W        W56251  21.104  16.920  24.109 -0.1074  0.2950  0.0014
13199W        W56252  18.676  19.364  27.786  0.0493 -0.0411  0.1130
13200W        W56253   8.380  27.723  25.707 -0.0936  0.1170  0.2697
13201W        W56254  23.430  10.325   8.370 -0.0595  0.1252 -0.0099
13202W        W56255  10.218  24.004  28.168  0.2672  0.0757 -0.0200
13203W        W56256  24.972  26.880   1.859 -0.1933 -0.1546  0.3368
13204W        W56257  26.971  16.105   3.601 -0.0108  0.0798  0.2317
13205W        W56258   7.939   1.927   5.069  0.4879 -0.1870 -0.1339
13206W        W56259  25.688   9.473   1.203  0.0794 -0.1548 -0.2118
13207W        W56260  21.584  21.109  21.307 -0.5877 -0.0906 -0.1749
13208W        W56261  19.917  22.339   5.682  0.4139  0.0406  0.1611
13209W        W56262  18.624  13.878   5.046  0.1213  0.1654  0.2170
13210W        W56263  15.099  16.825   7.413 -0.1315 -0.0464  0.3316
13211W        W56264  19.125  13.697  27.657 -0.0626  0.3593 -0.0054
13212W        W56265  34.327  17.270  28.921 -0.0813 -0.4235 -0.3776
13213W        W56266  23.592  12.458  17.114 -0.1514 -0.0798 -0.0153
13214W        W56267  32.649   9.916   3.171 -0.2830  0.1772 -0.2038
13215W        W56268   1.131   6.313  13.594 -0.0429 -0.1889 -0.0668
13216W        W56269  20.946  16.631   7.649 -0.0045 -0.2005 -0.0208
13217W        W56270  31.810  13.629  26.658 -0.2208  0.1200 -0.1875
13218W        W56271  27.451   6.365   5.550 -0.4153 -0.0775  0.0249
13219W        W56272  21.258  18.109   9.347 -0.1420  0.2944  0.2451
13220W        W56273  14.692  34.520   0.223 -0.1424 -0.2170  0.1492
13221W        W56274  11.610  14.394  23.410  0.1361  0.1358  0.0950
13222W        W56275  21.280   5.986   1.912 -0.2369  0.1648  0.2046
13223W        W56276  17.577  12.056  18.122  0.0451 -0.0942  0.0262
13224W        W56277  13.052  17.493  25.179  0.2439 -0.0374  0.0941
13225W        W56278  19.956  20.573  22.823  0.0963 -0.0337  0.1342
13226W        W56279  17.674  34.568  22.708  0.3305  0.2632 -0.0597
13227W        W56280  28.629  20.922  18.248  0.0062 -0.0797  0.0687
13228W        W56281  19.624  10.520   5.308  0.0681 -0.1118 -0.2361
13229W        W56282  18.182  24.050  26.465 -0.0759 -0.0978  0.2217
13230W        W56283  18.996  21.663   7.989  0.4234 -0.2152  0.1294
13231W        W56284  15.920   9.092   1.366 -0.0856  0.0994 -0.0428
13232W        W56285  12.050  34.671   0.333  0.1235  0.0039 -0.1685
13233W        W56286   1.070  20.953  26.687  0.2249 -0.1083  0.0840
13234W        W56287  27.539  23.354  28.252 -0.1434 -0.1063 -0.6039
13235W        W56288  20.501  13.490   0.612  0.0885 -0.1841  0.5178
13236W        W56289  19.176  21.843  26.708 -0.5451 -0.0278  0.0912
13237W        W56290  19.100   8.239   5.183 -0.3789 -0.1464  0.0675
13238W        W56291   1.749  24.071   3.143 -0.1733  0.1857  0.0051
13239W        W56292  14.154  11.080   7.529  0.0238  0.1227  0.0848
13240W        W56293  30.456   9.651   4.603 -0.3298 -0.2053  0.0180
13241W        W56294  17.488   6.399   0.131  0.0592  0.3578 -0.1813
13242W        W56295  13.903  17.852  28.404  0.1714 -0.0606  0.1717
13243W        W56296  19.583   3.829   3.682  0.0877  0.2936 -0.1787
13244W        W56297   5.754  15.776   4.464  0.2120 -0.2427  0.1684
13245W        W56298  13.822  12.237  17.357  0.2903  0.5244 -0.1358
13246W        W56299  31.029   4.272   3.458 -0.2709  0.0639  0.0299
13247W        W56300  29.173  30.168   5.042 -0.0010 -0.2293 -0.0173
13248W        W56301  20.086  24.982   7.125  0.2338 -0.2188  0.0976
13249W        W56302   2.436  17.544   9.279 -0.0139  0.1531 -0.0636
13250W        W56303  29.316  18.809   2.776  0.0899 -0.0998 -0.1509
13251W        W56304   7.236   9.821   7.562  0.2115 -0.1725 -0.2252
13252W        W56305  29.988   7.618  16.681  0.1118 -0.4953  0.1729
13253W        W56306  20.086   1.363   2.084  0.2503  0.0886 -0.1815
13254W        W56307   9.411   5.293   0.512 -0.2387  0.2175  0.0291
13255W        W56308  28.971  16.057   1.728 -0.1049 -0.0293 -0.4158
13256W        W56309  28.700   9.886  18.229  0.3811  0.1407 -0.0248
13257W        W56310  10.384  14.071   0.740 -0.1839 -0.3498 -0.1474
13258W        W56311  20.623  10.637  24.983  0.3404 -0.2367  0.1764
13259W        W56312  23.525   4.962   7.429  0.0320  0.1754  0.0764
13260W        W56313  14.526  21.687   1.331 -0.2618  0.0072  0.0101
13261W        W56314  31.362  13.225  17.314  0.2861  0.0199 -0.0709
13262W        W56315  17.409  10.493   5.315  0.1413  0.0331 -0.1896
13263W        W56316  20.322  17.986  21.368  0.0577  0.1344 -0.1820
13264W        W56317  23.546  32.021  14.526 -0.1069  0.0950  0.0364
13265W        W56318  22.334  17.325  20.069 -0.3033 -0.2193  0.1510
13266W        W56319  18.866  30.082   5.538 -0.0644  0.1290 -0.0185
13267W        W56320  17.972  18.736   0.134 -0.0955  0.1349 -0.0667
13268W        W56321  29.072  11.818  19.770 -0.1803 -0.0912  0.1146
13269W        W56322  10.725  31.485   0.166  0.3035 -0.2645 -0.0228
13270W        W56323  27.451  29.472   8.071  0.3211  0.0328  0.1605
13271W        W56324   3.848  27.530   1.498  0.0593 -0.0559 -0.0020
13272W        W56325  12.271  19.088  28.808 -0.0416 -0.4074 -0.1278
13273W        W56326  16.598  30.369  25.719  0.2533 -0.1502 -0.1855
13274W        W56327  27.027   8.405  24.733  0.2329  0.0505  0.3353
13275W        W56328   1.103  14.587   4.684  0.1723 -0.0223  0.3007
13276W        W56329  23.581  24.050   0.955  0.1663 -0.1646 -0.0473
13277W        W56330  26.856  14.256  14.845 -0.0188 -0.1162  0.0659
13278W        W56331  13.866  19.082  17.286  0.1052 -0.3223 -0.1576
13279W        W56332  26.089  24.099   7.578  0.2411  0.1170 -0.1632
13280W        W56333  10.229  28.084   7.862 -0.3586 -0.2364  0.2356
13281W        W56334  31.204   7.464   1.048  0.4508 -0.1631 -0.0153
13282W        W56335  28.394  22.808   4.081  0.4659  0.2096 -0.1026
13283W        W56336  23.076   1.737  27.933 -0.2607  0.2150  0.1467
13284W        W56337  25.678  18.222  23.862 -0.0127  0.1935 -0.1658
13285W        W56338  33.338   7.392   1.250  0.3434 -0.2032  0.2747
13286W        W56339  27.077  17.715   7.294 -0.2085  0.0820  0.2565
13287W        W56340  25.671  26.089   6.388 -0.0782 -0.1786 -0.3125
13288W        W56341  28.512   5.232   8.874 -0.0362 -0.4647 -0.2423
13289W        W56342  32.038  15.570  28.475  0.3200  0.2756  0.1241
13290W        W56343  26.489  20.117  25.301 -0.1755 -0.1778 -0.4649
13291W        W56344  29.781  16.040  27.789 -0.4192  0.4163 -0.2298
13292W        W56345   8.683  17.509   0.514 -0.3261 -0.3080  0.2520
13293W        W56346  23.148  10.252   2.565  0.2369 -0.0713 -0.1466
13294W        W56347  32.526  18.069   2.094 -0.0992  0.1199  0.0655
13295W        W56348  29.469  13.322   7.684  0.0888 -0.0399 -0.1966
13296W        W56349  15.861  11.875  25.012 -0.0135 -0.1388  0.1536
13297W        W56350  23.096   9.524   8.939 -0.0283 -0.1272  0.0534
13298W        W56351  12.135   8.870  27.594  0.2354 -0.0497  0.0708
13299W        W56352  19.308  13.633  25.368  0.0023 -0.0080  0.0141
13300W        W56353  25.669  20.520   1.638 -0.4151 -0.0229  0.1383
13301W        W56354  23.346  13.891   4.866 -0.3160  0.2183  0.0428
13302W        W56355  25.071  22.176  28.281 -0.0976 -0.0793  0.2374
13303W        W56356  20.374  14.178  16.939  0.0982  0.0804 -0.0391
13304W        W56357  25.159   5.112   7.878  0.0043  0.2093  0.0306
13305W        W56358  25.026  21.870   0.667 -0.1457  0.3255  0.1419
13306W        W56359  12.988  18.747   6.204 -0.0751  0.2661 -0.0942
13307W        W56360  11.565  23.077  23.611 -0.1002  0.0894 -0.1404
13308W        W56361   7.779  25.709   3.899 -0.5410 -0.1537  0.0290
13309W        W56362  22.265   6.280  21.080  0.1355 -0.1417 -0.1940
13310W        W56363  16.777  23.853   6.020  0.2786  0.1315  0.0547
13311W        W56364   5.949   7.959   1.820  0.1854  0.0737  0.0186
13312W        W56365  16.039   5.157   0.860  0.1454  0.1178 -0.3128
13313W        W56366  14.692  23.184   9.753 -0.1907  0.1195  0.0437
13314W        W56367  13.356  29.341   9.923 -0.0823 -0.1198 -0.0139
13315W        W56368  13.014  24.138  26.510  0.1985 -0.1813  0.5453
13316W        W56369  24.619  24.637   6.996  0.1508  0.1697 -0.2729
13317W        W56370  18.906   8.960   8.051 -0.1243 -0.0196  0.0764
13318W        W56371  23.766  18.208   9.460 -0.2795  0.1493 -0.1938
13319W        W56372  27.990  19.893   0.561 -0.0243  0.2228 -0.2359
13320W        W56373   5.057  22.959  22.563 -0.2486 -0.1460 -0.1363
13321W        W56374   0.842  30.923  16.905 -0.0350 -0.3495  0.0945
13322W        W56375  25.333  25.899   2.660  0.2799  0.0500 -0.2232
13323W        W56376   7.283  14.804   6.796 -0.0426 -0.3197 -0.1403
13324W        W56377  26.464  28.808   8.721  0.3925 -0.2632  0.0788
13325W        W56378  19.654   2.725   0.675 -0.1332  0.0488  0.1195
13326W        W56379  12.076  21.030   4.547  0.2215  0.3410 -0.0049
13327W        W56380  17.259  13.495  25.384  0.0830 -0.0028 -0.0730
13328W        W56381  27.672  17.429   3.625 -0.2990  0.3428  0.1160
13329W        W56382  10.355  15.738  22.308 -0.3245  0.1925  0.0640
13330W        W56383   1.815   7.294  28.412 -0.0947  0.0033  0.0998
13331W        W56384   8.089  12.889  26.035  0.0223  0.0900  0.2513
13332W        W56385  19.604   3.078   9.753 -0.1216  0.0396  0.0798
13333W        W56386  17.068   3.123  23.960 -0.4085  0.0264  0.1365
13334W        W56387  29.281   4.347  10.692 -0.1206 -0.1516 -0.2052
13335W        W56388  18.468  27.863  23.765 -0.1191  0.0006 -0.0334
13336W        W56389  16.723  10.075  19.548 -0.2858  0.0438  0.0045
13337W        W56390   1.036  16.381  28.817 -0.2406 -0.0147  0.2982
13338W        W56391  21.818  21.049   6.838 -0.1989  0.1014  0.2193
13339W        W56392   1.607  24.453   3.603  0.1352  0.1037  0.3938
13340W        W56393  21.331   5.415   9.571  0.0616 -0.3558 -0.2521
13341W        W56394  19.071  18.359   0.325  0.0166  0.1703  0.3775
13342W        W56395  24.674  32.657   8.607  0.1154 -0.1362 -0.3497
13343W        W56396  11.274   8.246   8.390 -0.0794  0.0634  0.1650
13344W        W56397   6.421  27.199   5.428 -0.0622  0.1965  0.0732
13345W        W56398   0.011  11.485   9.300 -0.1465 -0.0688  0.1537
13346W        W56399  16.115   9.542   8.829  0.0056  0.0187  0.1746
13347W        W56400  19.788  14.169   0.061  0.3207  0.2103 -0.0121
13348W        W56401  21.363  17.799  26.086 -0.1563  0.0866  0.2193
13349W        W56402  10.272  10.988   6.770  0.0066 -0.0530  0.2330
13350W        W56403  16.599   2.866  27.713 -0.1945 -0.1351  0.1435
13351W        W56404  28.536  21.441   4.260  0.2136  0.1743 -0.2541
13352W        W56405  22.886   8.368  14.037 -0.0974  0.0929 -0.3655
13353W        W56406  31.068  21.255   7.082  0.0870 -0.0689 -0.2038
13354W        W56407  14.823  16.422   5.991  0.2104  0.0037 -0.1874
13355W        W56408  19.424   3.011  20.679 -0.1465 -0.1328  0.0668
13356W        W56409  16.423  17.145   5.352 -0.2852  0.1469  0.0184
13357W        W56410  27.567  32.475   9.998  0.0179 -0.0851  0.1874
13358W        W56411   8.429  22.174   8.646  0.1989  0.2714  0.3416
13359W        W56412   1.359  14.778  26.559  0.0858 -0.1791 -0.0212
13360W        W56413   4.167  32.080  25.244  0.2098  0.2701 -0.0536
13361W        W56414  26.644  14.192   3.133  0.3313 -0.1759 -0.0347
13362W        W56415  12.894   7.825   7.595 -0.2257 -0.0433 -0.0832
13363W        W56416  22.611  19.097   4.145 -0.2407 -0.0779 -0.2596
13364W        W56417  25.720   4.295   7.179 -0.3469  0.3347 -0.0697
13365W        W56418  28.679  15.294   1.362  0.0439 -0.1060 -0.0500
13366W        W56419  10.854  16.880  15.654  0.0484 -0.0067  0.3024
13367W        W56420  22.237  33.750   6.315 -0.3200 -0.0304  0.0580
13368W        W56421   1.568  13.602   7.100 -0.2042  0.0446  0.0103
13369W        W56422  24.099   3.659   5.846 -0.0741 -0.0471 -0.2327
13370W        W56423  19.952  19.565  21.532 -0.1815  0.2945  0.0818
13371W        W56424  21.749  20.376   4.801  0.1442  0.0272  0.0844
13372W        W56425  14.716  32.931   0.589  0.0754  0.0766 -0.0998
13373W        W56426  11.460  14.133   4.968 -0.2078 -0.3465 -0.0372
13374W        W56427  29.644  16.495   9.635 -0.1683 -0.3759  0.2410
13375W        W56428   2.389  22.678   3.575 -0.3048  0.0431  0.1800
13376W        W56429  14.788  18.854   6.373 -0.1910 -0.2503 -0.0617
13377W        W56430  27.485  25.683   1.830 -0.1288 -0.0225 -0.2179
13378W        W56431  28.375  22.471   5.180  0.0318 -0.3786  0.0056
13379W        W56432  18.945  17.203  25.384  0.2075  0.0741  0.1384
13380W        W56433   7.913  18.734   8.374  0.3372 -0.0225 -0.0986
13381W        W56434   6.023  34.395  23.985 -0.1924 -0.5463  0.1075
13382W        W56435  20.266  23.812   9.010  0.1779  0.0512  0.1906
13383W        W56436   8.557  11.689   5.136  0.0708  0.1487  0.1361
13384W        W56437  11.496  13.921  24.214 -0.2107  0.0803  0.0378
13385W        W56438  17.080  17.357   6.927  0.1980 -0.0898  0.1506
13386W        W56439   2.180  33.507   1.479  0.2506  0.0977 -0.0115
13387W        W56440  14.138  10.565   7.857 -0.1349 -0.0341 -0.2749
13388W        W56441  21.152  26.078   7.642  0.5628  0.0332  0.2710
13389W        W56442   7.492  10.611   7.805  0.0219 -0.0523 -0.0411
13390W        W56443  23.735  22.005   7.859  0.2354  0.0677 -0.0078
13391W        W56444  14.445  24.800   9.184 -0.0183 -0.1377 -0.1549
13392W        W56445   9.273  19.718   6.686 -0.1310 -0.1218  0.1290
13393W        W56446  28.173  24.130  26.467 -0.0265  0.1146  0.3245
13394W        W56447  15.255   6.989   5.635 -0.0709  0.0095  0.1215
13395W        W56448  19.425  31.799  21.454 -0.1470 -0.1138 -0.0744
13396W        W56449  14.896  27.356   3.522 -0.1076 -0.0342 -0.2894
13397W        W56450   8.704  31.707   1.076 -0.3088  0.0393  0.0526
13398W        W56451  30.090  30.175  28.859 -0.0059  0.1820  0.2998
13399W        W56452  18.525  15.136   2.739 -0.1843 -0.1119  0.0304
13400W        W56453  25.867  23.241  10.134 -0.0004 -0.0899  0.1190
13401W        W56454  23.655  23.055   4.063 -0.3257  0.1801  0.0896
13402W        W56455   5.808  24.688   9.037 -0.3684  0.5148  0.2328
13403W        W56456  20.037  12.014   4.412  0.0825  0.0101  0.1630
13404W        W56457  17.950  18.944   4.170  0.0075  0.0840 -0.0571
13405W        W56458  22.412   7.524   9.209 -0.0736 -0.1972  0.3772
13406W        W56459  23.513  10.235   2.006 -0.2055 -0.0559 -0.0678
13407W        W56460  16.561  18.546   0.481  0.0666 -0.2781  0.1584
13408W        W56461  21.058   6.371  24.907 -0.1132  0.0077  0.2424
13409W        W56462  25.085  17.351  10.686  0.2351  0.2316  0.0368
13410W        W56463  11.459   9.564   5.524  0.1380 -0.1492 -0.3353
13411W        W56464   6.489  32.842   3.507  0.3001  0.1518 -0.1742
13412W        W56465  15.849  24.287  25.161  0.0709  0.1010 -0.0902
13413W        W56466  15.257   1.641   4.346 -0.0575  0.0919  0.0088
13414W        W56467  17.089  25.900   0.374  0.0763 -0.1447 -0.2101
13415W        W56468  21.995  13.987   4.437  0.0762 -0.0175 -0.0232
13416W        W56469  33.931   5.353  25.697 -0.2479 -0.1631  0.0035
13417W        W56470  20.923   5.287   9.770  0.2855 -0.1803  0.1946
13418W        W56471  23.220  31.547   0.777 -0.2027  0.1107 -0.0544
13419W        W56472  16.097  14.552   6.402  0.1851 -0.0065 -0.1701
13420W        W56473  24.412   6.398  21.421 -0.0627 -0.1337  0.3338
13421W        W56474  30.948  33.698   3.494 -0.0364  0.0427 -0.3549
13422W        W56475  23.694  20.002   6.131 -0.1429  0.0289  0.1402
13423W        W56476  10.260  17.596   9.013  0.1348  0.0363 -0.0769
13424W        W56477  28.494   5.123  26.870 -0.1034 -0.0445 -0.1220
13425W        W56478  12.407  24.078   2.902  0.1089 -0.0298 -0.2033
13426W        W56479   2.314  34.458  10.298 -0.1563  0.1179 -0.1754
13427W        W56480  12.436  21.699  24.643  0.1228 -0.0256  0.1332
13428W        W56481  18.785  22.330   7.268  0.0697  0.2335 -0.0930
13429W        W56482  12.279  10.507   4.956 -0.1108 -0.0386 -0.0935
13430W        W56483  17.829   0.104   5.943 -0.2831 -0.1175 -0.0030
13431W        W56484   6.251  11.499   5.135 -0.0653  0.0865  0.0507
13432W        W56485  23.662  26.662   9.483  0.1070 -0.0107  0.1799
13433W        W56486  20.522  25.398   8.774  0.1042  0.0895  0.1562
13434W        W56487   0.538  20.117   8.196 -0.1020  0.0748 -0.0511
13435W        W56488  34.601  27.326   4.978  0.1211 -0.0280  0.1239
13436W        W56489  26.224  17.513  18.436  0.1178 -0.1768  0.1799
13437W        W56490   5.422  31.486  24.937 -0.3068  0.0107 -0.2631
13438W        W56491  21.651  14.752  27.434  0.0083  0.0387 -0.2899
13439W        W56492  33.608  11.741   8.661  0.1423 -0.0197 -0.2075
13440W        W56493  27.357  21.491  25.871 -0.1479 -0.1957  0.1462
13441W        W56494  10.389  14.934   3.678  0.1664 -0.1128  0.3175
13442W        W56495  22.677  14.791   4.656 -0.0716  0.1764  0.0163
13443W        W56496  24.505  14.691   1.359  0.0292 -0.1703 -0.1215
13444W        W56497  29.850  21.779   5.305  0.0916 -0.1002 -0.2298
13445W        W56498  30.428  26.268  22.427  0.1124 -0.1146 -0.0297
13446W        W56499  16.292  25.638   6.417 -0.0090  0.0625  0.0334
13447W        W56500  12.293  20.127   3.895 -0.0056  0.1795  0.0860
13448W        W56501  20.275   8.903   9.537 -0.0978 -0.1591  0.1835
13449W        W56502   4.551  10.579   9.084 -0.1625  0.0511  0.4578
13450W        W56503  24.429  29.403  20.302 -0.1581 -0.2388 -0.0945
13451W        W56504  23.513   7.938   8.164 -0.0826  0.0189 -0.3028
13452W        W56505  14.563  32.904  27.432  0.3696  0.1990  0.0251
13453W        W56506  17.129  15.099   7.005 -0.0702 -0.2561 -0.1691
13454W        W56507   9.149  15.601   7.510 -0.1179  0.0696 -0.1120
13455W        W56508  18.016  16.764   0.206  0.0101  0.2399  0.4443
13456W        W56509  12.024  10.111   8.331  0.4187 -0.1842  0.0339
13457W        W56510  31.042   9.248   4.084 -0.0251 -0.1589 -0.1311
13458W        W56511  23.270  21.097  14.732  0.3844 -0.2766 -0.2734
13459W        W56512  31.240  25.763   9.735 -0.1842  0.1216  0.0537
13460W        W56513   5.923  14.670   0.922  0.1474 -0.1278 -0.0039
13461W        W56514  28.717  13.948   3.338  0.0444 -0.0695 -0.1428
13462W        W56515  14.781   2.754   3.478  0.4913  0.0261 -0.3579
13463W        W56516  25.711   0.054   6.592  0.0982  0.0112  0.0594
13464W        W56517   8.274   9.307  18.230  0.1022  0.1228 -0.0754
13465W        W56518   6.183  18.647   9.482 -0.4305 -0.0288 -0.0321
13466W        W56519   5.486   7.262  10.583  0.0638  0.0483  0.1827
13467W        W56520  12.869  23.815   0.187  0.0376 -0.2291 -0.0696
13468W        W56521  18.721   9.782   3.359  0.1723  0.0478 -0.0993
13469W        W56522  23.095  24.319  10.044 -0.2163 -0.1659 -0.2661
13470W        W56523  19.505  17.265   4.523  0.0332 -0.0446 -0.1302
13471W        W56524  25.757  15.776  28.313  0.0414 -0.0036 -0.3973
13472W        W56525  18.414  25.688   6.278 -0.0201 -0.3806  0.1115
13473W        W56526   6.837  14.878   6.478 -0.0655  0.0491 -0.1043
13474W        W56527  23.537  14.032   6.269 -0.2496 -0.0532  0.0249
13475W        W56528  11.677  20.322  27.259 -0.2494 -0.1837 -0.1370
13476W        W56529  17.703  16.179   0.089  0.5189  0.1209  0.0122
13477W        W56530  16.271  23.865   6.058 -0.1341  0.0508  0.2915
13478W        W56531  26.393  12.125   9.464  0.0036  0.2848 -0.0584
13479W        W56532  14.206  19.450  17.351 -0.2207 -0.0662 -0.1284
13480W        W56533  10.987  15.779  27.221  0.2445 -0.0155  0.1850
13481W        W56534  19.223  10.930  27.351  0.0308  0.3776 -0.4301
13482W        W56535   1.265   7.960  28.910  0.1631  0.2027 -0.0021
13483W        W56536   4.665  16.871   5.125  0.0921 -0.1164 -0.1296
13484W        W56537   5.192  18.360   6.841 -0.0290  0.2666 -0.0254
13485W        W56538   4.034  19.470  28.515 -0.0287 -0.0171  0.2530
13486W        W56539  18.389  10.899   4.320 -0.0405  0.1486  0.2386
13487W        W56540  25.175  21.120  25.077  0.0300 -0.2442 -0.0398
13488W        W56541  31.158  11.867  23.321  0.0222  0.1499  0.1094
13489W        W56542  11.330   1.600   1.824  0.0136  0.0989  0.1622
13490W        W56543  24.707  17.350   5.195  0.2024  0.0540 -0.1811
13491W        W56544  33.733  12.545   3.054 -0.2649 -0.1816 -0.0989
13492W        W56545  21.404  26.304  28.943  0.0302 -0.0372  0.1477
13493W        W56546  17.361  12.667   4.556 -0.0084 -0.2716  0.0503
13494W        W56547  22.558  17.328   2.449  0.0958 -0.2473 -0.1559
13495W        W56548  14.108  15.662   7.638 -0.0628 -0.0599  0.0656
13496W        W56549   3.967  29.975  27.461  0.1153 -0.1073 -0.2873
13497W        W56550  26.697  13.372   8.812 -0.3035 -0.0609  0.1929
13498W        W56551  28.052  31.048   4.877  0.0743 -0.0845  0.0344
13499W        W56552   3.426   1.448   6.182  0.1661 -0.0753 -0.0756
13500W        W56553  25.500   0.052  13.879 -0.1356 -0.0724  0.2052
13501W        W56554   4.323  12.005   9.769  0.2287  0.0152 -0.1562
13502W        W56555  16.499   4.507   3.113 -0.0679 -0.1667 -0.0914
13503W        W56556  24.531  11.548   9.597 -0.2148 -0.3911 -0.1506
13504W        W56557   5.081  18.947  28.399  0.3599  0.3101  0.1356
13505W        W56558   9.684  13.105   1.234 -0.0224 -0.0298 -0.2297
13506W        W56559  20.754  22.811  10.136  0.0852  0.0252 -0.0176
13507W        W56560  25.582  27.263  10.534 -0.1965 -0.2115 -0.0396
13508W        W56561  10.657  22.979   1.406 -0.1156  0.1051 -0.0579
13509W        W56562   4.395  12.081   0.772  0.0038  0.0245  0.3349
13510W        W56563  16.398  12.215  18.299  0.0418  0.0748  0.1946
13511W        W56564  12.103  13.247   7.066 -0.3196 -0.0408 -0.0686
13512W        W56565   8.800  13.415   8.192 -0.0327  0.0977 -0.1351
13513W        W56566  25.188   9.674   4.002 -0.3236 -0.0208  0.2459
13514W        W56567  12.368  17.338   1.704 -0.0387  0.3261  0.1240
13515W        W56568  17.047  17.158   0.579  0.1513 -0.1236 -0.1881
13516W        W56569  23.700   9.344   1.728 -0.0290 -0.0828  0.1133
13517W        W56570   7.069  21.468   8.987  0.3465  0.0427 -0.0801
13518W        W56571  17.653  10.760  10.123  0.1982 -0.1985  0.5582
13519W        W56572  32.997  33.052  26.949 -0.0694  0.1062  0.2788
13520W        W56573  16.622  20.708   3.695 -0.1395  0.2769 -0.0054
13521W        W56574  23.506   5.713  26.953 -0.0672 -0.4402 -0.2667
13522W        W56575  33.323   8.933  27.241  0.4331 -0.0263 -0.2299
13523W        W56576  13.086  15.557   4.492  0.3867  0.2653  0.0209
13524W        W56577  16.080  20.999   5.669 -0.2300  0.1704 -0.1322
13525W        W56578  32.666  31.671   1.869  0.0811  0.0980  0.2654
13526W        W56579  15.514  22.541   7.205  0.2154 -0.1724 -0.2836
13527W        W56580  11.584  16.238   8.604 -0.1908  0.3292 -0.1181
13528W        W56581   4.430  14.059  19.296  0.2322 -0.2377  0.1741
13529W        W56582  23.680  33.231  29.107  0.2026  0.1552 -0.1134
13530W        W56583  12.878   6.446   6.132  0.1237  0.0128  0.1416
13531W        W56584   8.335  16.175   6.406 -0.0508 -0.0618  0.0733
13532W        W56585  30.483  17.345  26.219 -0.0015 -0.2992  0.1297
13533W        W56586  22.336   1.000  10.827 -0.1015 -0.1055  0.0019
13534W        W56587   9.351  26.769   8.663 -0.1324 -0.1202 -0.1136
13535W        W56588  13.619  26.287   4.782  0.0649  0.0476 -0.0807
13536W        W56589  21.449  17.757   6.905  0.3207  0.0069  0.0877
13537W        W56590  31.892  12.675   8.804  0.0843  0.2202  0.0764
13538W        W56591  10.437   4.342   4.969  0.5060  0.3667 -0.0017
13539W        W56592   0.067  22.562   3.889  0.1090 -0.1443  0.0130
13540W        W56593  24.767  12.687   2.977 -0.0722  0.0754  0.0122
13541W        W56594   0.751  24.440   2.268  0.2015 -0.0071  0.1556
13542W        W56595  16.199  12.650  17.912  0.0775 -0.0848  0.0637
13543W        W56596  23.062  18.141   8.964  0.2270 -0.1865 -0.0887
13544W        W56597  12.522  22.077  25.129 -0.3130  0.0347 -0.1415
13545W        W56598  21.757  26.855  23.475 -0.2309  0.2058  0.1414
13546W        W56599  16.996  26.304  20.895  0.1593  0.0911  0.3024
13547W        W56600  18.871  19.635   2.140 -0.0070  0.0376 -0.1412
13548W        W56601  20.820  16.569   1.911  0.1239  0.0972 -0.0160
13549W        W56602  20.235  25.554   3.622 -0.1742 -0.0353  0.2070
13550W        W56603  26.899   4.627  26.622 -0.0566 -0.2290  0.1070
13551W        W56604  34.003  16.489   4.293  0.0899  0.1484 -0.2716
13552W        W56605  19.039   6.540   9.650  0.0869  0.0250 -0.3363
13553W        W56606  23.458  16.063   7.222 -0.1799 -0.0345  0.5024
13554W        W56607  26.068   3.635  27.729 -0.0281 -0.1758 -0.1974
13555W        W56608  10.214   9.121   2.042 -0.0645  0.1736 -0.2292
13556W        W56609  10.681  29.336  25.289  0.0235  0.0897  0.0217
13557W        W56610  22.186  23.754   9.093 -0.0476  0.2447  0.0272
13558W        W56611  27.931  18.360  24.956  0.0455 -0.0779  0.0621
13559W        W56612  21.365   7.442  10.106 -0.2159 -0.3653 -0.1066
13560W        W56613   4.376  19.531   5.565 -0.1221 -0.3122 -0.1606
13561W        W56614  17.432  11.848   7.357 -0.0161  0.0151 -0.1502
13562W        W56615  11.909   5.746  10.295 -0.2389 -0.2834  0.3638
13563W        W56616  24.245  14.923   3.720 -0.1491  0.2308 -0.2084
13564W        W56617  21.945  17.718   6.042 -0.0090 -0.1768  0.1544
13565W        W56618  14.789  17.567   8.112 -0.2036  0.1749 -0.0160
13566W        W56619   5.195  17.246   9.473 -0.0110  0.0378  0.2701
13567W        W56620   4.963  24.468  25.679  0.2054  0.3029  0.0991
13568W        W56621  27.229  29.643   5.580  0.0421 -0.1591 -0.1755
13569W        W56622   9.422   8.991   1.383 -0.3249  0.2001 -0.1085
13570W        W56623  24.637  26.372  21.707 -0.0035 -0.3582  0.0642
13571W        W56624  30.258   7.284   8.168  0.2494  0.1008  0.1222
13572W        W56625  32.041   8.044   4.193 -0.0081  0.1448  0.0805
13573W        W56626   8.519  22.430   0.765  0.0197  0.0289  0.1939
13574W        W56627  22.681  21.128   6.306 -0.0308  0.0257  0.1484
13575W        W56628  23.582  33.948   1.242  0.2342 -0.3323 -0.1203
13576W        W56629  19.812  14.322   2.737 -0.0117 -0.0893  0.0625
13577W        W56630  25.641   1.498   4.581 -0.0573 -0.0722 -0.1060
13578W        W56631  31.350  14.933  27.596 -0.4456  0.0928  0.0101
13579W        W56632  19.886   1.816   7.050 -0.0223 -0.2768  0.2126
13580W        W56633  26.413  17.070   6.643  0.0937 -0.1425 -0.2070
13581W        W56634  16.056  33.980  27.364 -0.1278  0.0063  0.0074
13582W        W56635  13.712  21.560   8.519  0.1335  0.0280  0.0223
13583W        W56636  11.592  11.874  11.234  0.0743 -0.1663 -0.1889
13584W        W56637   3.092  20.575   4.343 -0.0240 -0.1652 -0.0829
13585W        W56638  14.226  16.616   8.984 -0.1182  0.1184 -0.1574
13586W        W56639  28.509  19.670   7.468 -0.1860 -0.2481 -0.0753
13587W        W56640  16.821  13.849   8.019 -0.0758 -0.0247 -0.1334
13588W        W56641  18.679  17.069   7.738 -0.1596 -0.2712 -0.1058
13589W        W56642  10.432  24.873   7.643  0.0207  0.0870  0.2376
13590W        W56643  19.211   0.972   8.870  0.2217 -0.0059  0.1043
13591W        W56644  13.236  15.648  10.782 -0.2478  0.0142  0.2218
13592W        W56645  13.679  17.706   6.207  0.4612 -0.1483  0.1054
13593W        W56646   9.464   7.236  10.049 -0.1686 -0.0560 -0.2129
13594W        W56647  17.122  14.457   8.772  0.0241 -0.3163 -0.0930
13595W        W56648  22.357  10.150   6.492  0.1928 -0.1890 -0.0425
13596W        W56649  21.666  16.932  19.003  0.0052  0.1127 -0.2203
13597W        W56650  13.291  28.835   0.011 -0.0394 -0.3043 -0.1186
13598W        W56651  13.593  24.573   5.510 -0.0092 -0.2362 -0.2330
13599W        W56652   4.933  19.191   7.255 -0.0367  0.1815  0.3368
13600W        W56653  25.186  18.451   8.635  0.2915 -0.1293 -0.0757
13601W        W56654  17.816  10.397   3.147 -0.5611  0.3093 -0.0934
13602W        W56655  24.942   9.438  28.841 -0.3701 -0.2010 -0.0742
13603W        W56656   2.086  15.514  29.025  0.0631  0.0377 -0.2089
13604W        W56657  18.084  18.588  28.835  0.2942 -0.1051 -0.3526
13605W        W56658  20.068  22.216   3.374  0.0829  0.1950  0.4774
13606W        W56659  18.680  18.247   2.133 -0.1376 -0.1348  0.0054
13607W        W56660  19.354  20.884   6.797 -0.0503 -0.0361 -0.5916
13608W        W56661  17.518  21.976  26.320 -0.0041 -0.2701  0.0297
13609W        W56662  14.874  20.518   6.354 -0.1742 -0.1301  0.2720
13610W        W56663  24.688  16.151   8.455  0.1825  0.0407  0.2519
13611W        W56664  11.822  20.639   8.587  0.1557 -0.1828  0.0551
13612W        W56665  16.802  17.939  28.304  0.4149  0.2883  0.2158
13613W        W56666  19.490  10.588   4.584 -0.0104  0.0535 -0.3178
13614W        W56667  26.100  32.543   8.464 -0.0030  0.0216 -0.0469
13615W        W56668  20.348   7.735   1.447  0.0879 -0.2416  0.2498
13616W        W56669  20.157  15.782  28.139 -0.0061 -0.2925 -0.1017
13617W        W56670   0.919  34.308   0.211  0.1521 -0.0864 -0.2760
13618W        W56671  23.128  12.007   6.105 -0.2657 -0.0500 -0.1505
13619W        W56672  32.716  15.050   3.886 -0.0688  0.1918  0.1995
13620W        W56673  27.366   4.588  10.561  0.0474  0.0393 -0.0448
13621W        W56674  13.210  18.100   5.543 -0.2168 -0.0391  0.1759
13622W        W56675  28.199  21.801   3.959  0.1233 -0.0458 -0.0460
13623W        W56676  18.476  14.485   6.333  0.1159 -0.2762  0.1849
13624W        W56677  19.495  15.235   2.365 -0.0919 -0.0897  0.0733
13625W        W56678  32.110  24.080   1.694  0.1573  0.0083 -0.0134
13626W        W56679  10.292   6.602   1.680 -0.3062  0.0943  0.1027
13627W        W56680   3.292  20.442  20.467 -0.2621  0.0125  0.2921
13628W        W56681  20.269   3.615  24.177 -0.2345  0.2393  0.0805
13629W        W56682  19.807  26.752   9.584  0.2523  0.0056  0.2332
13630W        W56683  14.629  32.366   5.344  0.3760  0.0628 -0.2014
13631W        W56684  30.836  20.596   6.501 -0.0484  0.0128  0.0020
13632W        W56685  29.400  18.414  25.514  0.0846  0.3290  0.2091
13633W        W56686  17.086   4.929  23.422 -0.1729 -0.1741  0.0610
13634W        W56687  24.199  17.920  14.547 -0.1030  0.0486  0.2319
13635W        W56688  25.117   8.596  21.061  0.1488  0.0025  0.0956
13636W        W56689  29.109  13.920   4.648 -0.2975  0.3727  0.2197
13637W        W56690  29.146   0.702   1.109 -0.0616 -0.0114  0.4311
13638W        W56691  21.806  12.091   3.539  0.1258  0.1342 -0.2001
13639W        W56692  28.972  20.165  22.823 -0.1834 -0.0492  0.2156
13640W        W56693  29.967   9.362  27.673  0.1414 -0.1170 -0.1288
13641W        W56694  18.091  20.461  21.435  0.2987 -0.1612  0.1035
13642W        W56695   9.590  14.180  10.619 -0.1126  0.0011  0.3527
13643W        W56696  18.705  17.630  28.908  0.2149  0.1752  0.0597
13644W        W56697  23.804  20.449   5.784  0.2763 -0.2074 -0.0277
13645W        W56698   3.238  29.821  15.073 -0.4604  0.2186  0.0607
13646W        W56699  13.386  14.782  10.255  0.2184  0.4045  0.0988
13647W        W56700  31.476  20.213   8.413 -0.1618  0.1469 -0.1484
13648W        W56701  13.883  28.325   8.057  0.0934 -0.2205  0.1342
13649W        W56702  17.811   9.192   0.246  0.0951 -0.1294 -0.1392
13650W        W56703  12.713   6.535  10.691 -0.0090  0.4404 -0.1918
13651W        W56704  11.186  16.487   8.826 -0.2278  0.1812  0.1981
13652W        W56705  16.304  33.119   3.236  0.1538 -0.0223  0.0187
13653W        W56706  31.730   8.897   9.976 -0.2102 -0.0127  0.0669
13654W        W56707  17.899   4.011   6.652 -0.0100 -0.3209  0.1695
13655W        W56708   8.929   9.040  20.181  0.0384 -0.1969  0.0055
13656W        W56709  16.140  16.832   6.559 -0.0161  0.1264 -0.2163
13657W        W56710  14.106  14.813   5.510 -0.2012  0.0001 -0.0771
13658W        W56711  15.054  20.649  28.724  0.2464  0.2502 -0.0149
13659W        W56712  23.388   9.793  27.211  0.5785  0.0460 -0.6079
13660W        W56713  27.241   4.214   1.629  0.0482 -0.0116  0.0212
13661W        W56714  12.288  13.804   5.448 -0.0343  0.1350  0.1434
13662W        W56715  24.585  23.254   0.450  0.4172 -0.0033  0.1823
13663W        W56716  32.829  22.605  27.056 -0.5371  0.2103 -0.2892
13664W        W56717  25.361  12.540   1.725 -0.2643 -0.0677 -0.2351
13665W        W56718  13.774  32.949   9.951 -0.4656 -0.0062  0.1294
13666W        W56719  20.120  16.143   3.995  0.0204 -0.1450 -0.1152
13667W        W56720  23.929  32.266  27.551 -0.0043 -0.0867 -0.3834
13668W        W56721  20.805  16.680   2.369 -0.1950 -0.1278 -0.2636
13669W        W56722  18.240  10.046   0.900  0.2625  0.1736  0.1737
13670W        W56723  18.841  17.885   7.220 -0.3500 -0.2802  0.0966
13671W        W56724   9.482  16.056   0.391  0.4412  0.0790  0.0060
13672W        W56725  17.246  26.417  25.831  0.1513 -0.0355 -0.0252
13673W        W56726  26.780  33.327   9.046 -0.2161  0.1123  0.1366
13674W        W56727  24.527  12.525   8.438 -0.0353 -0.1094  0.0946
13675W        W56728   3.742  26.939   1.940 -0.1787  0.0945 -0.1753
13676W        W56729  15.431  27.411   6.669  0.1531 -0.0143  0.2167
13677W        W56730  30.756  17.446   8.966 -0.3689  0.0244 -0.0591
13678W        W56731  27.006   9.952  10.197 -0.2217 -0.0761  0.3638
13679W        W56732  15.138  22.645   7.568  0.0775  0.0148  0.1403
13680W        W56733   7.720   7.175   1.504  0.0786  0.1953 -0.0276
13681W        W56734  27.107  22.632   4.517  0.2786 -0.0980 -0.1589
13682W        W56735  28.262  16.697   0.598  0.1493  0.1077 -0.4904
13683W        W56736  32.425   0.875   4.294 -0.1322  0.2708  0.1544
13684W        W56737  11.947  23.363  26.821  0.1347 -0.0262  0.2248
13685W        W56738  27.540  13.396  20.143  0.2752 -0.1089  0.0898
13686W        W56739  33.218  23.806   8.837  0.0869 -0.1108  0.0361
13687W        W56740  21.609  14.452   1.507  0.3108  0.0382 -0.4117
13688W        W56741  13.013  18.108   5.022  0.0404 -0.3862  0.2692
13689W        W56742  32.012  31.752   4.111  0.0466  0.2154 -0.0707
13690W        W56743  17.571  26.180   5.466  0.2088  0.3802  0.0803
13691W        W56744  18.313  20.075   6.748 -0.0024 -0.2903 -0.0272
13692W        W56745  25.696  14.004  28.471 -0.3607 -0.3273  0.0625
13693W        W56746  28.113  13.196  24.892 -0.0692  0.2845 -0.1085
13694W        W56747  16.738  21.571  23.141  0.3263 -0.1204 -0.0965
13695W        W56748  16.991  14.393  24.082  0.1389  0.0340  0.2386
13696W        W56749   0.440  22.099   9.536 -0.5754  0.4064 -0.0890
13697W        W56750  23.660  12.687   8.689  0.2827 -0.0280 -0.2865
13698W        W56751  24.552  33.118  26.309  0.1184  0.0983 -0.1605
13699W        W56752  16.418  31.506  27.694 -0.0885  0.0326 -0.1408
13700W        W56753  18.358  21.396   5.866  0.1992  0.1992  0.1396
13701W        W56754  14.784  17.123  26.233 -0.1583  0.1091  0.2466
13702W        W56755  20.624  27.777   4.066 -0.0444  0.1246  0.1419
13703W        W56756   6.206  30.500   2.016  0.2443  0.1816  0.1274
13704W        W56757   4.246  33.630   6.749 -0.1582 -0.1687  0.2283
13705W        W56758  12.122  29.698   1.563 -0.2141 -0.1127  0.0657
13706W        W56759  21.326  33.840   4.118  0.0383  0.0609 -0.0010
13707W        W56760   3.969   9.853   3.305 -0.0270  0.0494 -0.1652
13708W        W56761   5.646   1.085   5.084  0.4464  0.1378  0.1044
13709W        W56762  17.035  32.257   5.107 -0.1835 -0.2756  0.0713
13710W        W56763  27.641  26.914  27.410  0.0148  0.0338  0.0538
13711W        W56764  19.625  26.810  17.303 -0.1105  0.0869 -0.1152
13712W        W56765  16.458  26.773  25.410  0.0987  0.1543  0.1014
13713W        W56766  15.373  13.136   8.464 -0.2600 -0.1235 -0.1187
13714W        W56767  19.258  18.976  10.377  0.0514  0.0753 -0.0761
13715W        W56768  11.587  20.021   8.014  0.0302 -0.0886  0.0101
13716W        W56769  33.216  27.953  22.424 -0.0970  0.3112 -0.2045
13717W        W56770  12.505  16.707   0.554  0.0909  0.3651 -0.1123
13718W        W56771  27.738   5.193   3.484 -0.0902  0.0735 -0.1649
13719W        W56772   0.744  22.234  19.468  0.1959  0.1891 -0.0270
13720W        W56773  27.062   7.145   5.478  0.1876  0.1483 -0.1725
13721W        W56774  23.876  27.432  27.475 -0.3269 -0.2201  0.0717
13722W        W56775   3.578  21.217   6.675  0.0237  0.0399  0.1654
13723W        W56776  16.918  17.631  25.655  0.2765 -0.4908  0.0240
13724W        W56777  27.005  27.725  18.168 -0.2838  0.0337  0.2748
13725W        W56778  11.790   3.201   5.082 -0.4293 -0.0500 -0.3627
13726W        W56779  26.849  25.794  28.327  0.2114 -0.1492 -0.3496
13727W        W56780  21.238  21.323   9.952  0.0029 -0.1634  0.0251
13728W        W56781  25.107  14.143   0.760  0.6364  0.2680  0.1995
13729W        W56782  15.197  30.083  28.696 -0.2999 -0.2199 -0.0205
13730W        W56783  27.825   7.501  20.241 -0.0623  0.0177 -0.0182
13731W        W56784  15.375  32.884  17.704  0.0046  0.0910 -0.0695
13732W        W56785  22.168   7.196   8.454  0.1514 -0.0382 -0.0047
13733W        W56786  24.302  14.537   4.761 -0.0439 -0.2102 -0.1623
13734W        W56787  13.686  17.624  24.657  0.2270  0.0722  0.2897
13735W        W56788  13.256  19.311   6.862 -0.0454  0.0083 -0.1589
13736W        W56789  27.161  24.516   7.225 -0.2696  0.0815  0.1199
13737W        W56790  29.482  16.376   2.891  0.1124  0.1283  0.0922
13738W        W56791  24.664  13.031   1.686 -0.1456 -0.1207 -0.2778
13739W        W56792  10.913  23.730   8.444  0.0202 -0.0934  0.1293
13740W        W56793   3.333  15.016  27.385  0.0278 -0.0422  0.0961
13741W        W56794  30.094  27.568  10.087  0.1196 -0.1981 -0.0729
13742W        W56795  22.260  30.241   7.698  0.1808  0.0209 -0.2373
13743W        W56796  20.394  19.446  25.061  0.0335 -0.0128 -0.0840
13744W        W56797  18.240  17.803   7.159 -0.0007 -0.1881  0.1451
13745W        W56798  18.259   3.407  25.437 -0.2633 -0.1846  0.1308
13746W        W56799  24.001  23.584   9.212  0.2412 -0.0930 -0.0305
13747W        W56800   0.391  26.482   3.095 -0.0221 -0.0411  0.2680
13748W        W56801  21.768  24.467   8.825 -0.2431 -0.0903 -0.0003
13749W        W56802  23.874   9.559   2.102  0.2739 -0.1935 -0.1147
13750W        W56803  21.607  31.466   5.520 -0.1816 -0.3279  0.0166
13751W        W56804  19.618  10.900   5.705  0.1215  0.1949 -0.0848
13752W        W56805   0.620  30.280   1.723  0.2216 -0.2265  0.2220
13753W        W56806  33.153  24.288   9.103 -0.2194  0.0870  0.1398
13754W        W56807  18.863  15.537   2.697 -0.1524  0.2848 -0.0059
13755W        W56808  19.684  34.654   4.988 -0.1249  0.1659  0.1198
13756W        W56809  14.667  29.948  29.086 -0.0181 -0.0557 -0.0311
13757W        W56810  28.144  15.632   0.806  0.2150  0.0826  0.1172
13758W        W56811   0.373  10.620   8.457 -0.0611 -0.2009  0.2982
13759W        W56812  20.691  10.192   8.350  0.1412 -0.2736 -0.0063
13760W        W56813  25.293   6.864   8.607 -0.2091 -0.1847 -0.1273
13761W        W56814  18.439   3.962  23.308  0.0725  0.2506 -0.4832
13762W        W56815   4.405   9.541   7.253  0.1624 -0.1013 -0.1165
13763W        W56816  11.461  33.205   8.487  0.0663  0.0191 -0.2068
13764W        W56817  18.037  25.293   9.697  0.0263  0.1383  0.0130
13765W        W56818  23.092  15.325   6.906  0.0941 -0.1378  0.0847
13766W        W56819  12.454  26.681   4.502 -0.0977  0.1506 -0.0456
13767W        W56820  17.195  27.384   5.786  0.0047 -0.0286 -0.0436
13768W        W56821  13.559   8.103  24.006 -0.0006  0.0363  0.2539
13769W        W56822  18.505  17.680   5.245  0.1066 -0.1595  0.0208
13770W        W56823  28.855  12.046  24.937  0.2536 -0.1623 -0.0189
13771W        W56824  23.551  14.348   1.442  0.1861  0.1486 -0.2726
13772W        W56825  31.052   6.412  27.684 -0.1556 -0.4899 -0.2490
13773W        W56826  13.371  16.355   4.106  0.0167 -0.0359 -0.0199
13774W        W56827  29.957  17.326   4.358 -0.0606  0.1028  0.1192
13775W        W56828  15.908  10.324   8.125 -0.1554  0.0818 -0.1827
13776W        W56829  24.248  16.050   1.305 -0.2392 -0.4384 -0.3195
13777W        W56830  13.803  18.377   4.286  0.0466 -0.3239  0.4205
13778W        W56831  14.082  25.832   9.453  0.1634  0.0430  0.1256
13779W        W56832  22.250  21.496   4.126  0.0655 -0.3741  0.2053
13780W        W56833  11.140  22.829   6.600 -0.1678 -0.0404 -0.0401
13781W        W56834  20.374  16.095  28.602 -0.3232 -0.2278 -0.2030
13782W        W56835  31.285   3.552  24.474 -0.1379  0.2366  0.0522
13783W        W56836  18.213   6.328   4.025  0.1057 -0.0834 -0.2734
13784W        W56837  20.339   1.221   1.559  0.2118 -0.0468  0.1283
13785W        W56838  18.297  18.696   5.622 -0.0396  0.3765  0.0334
13786W        W56839  12.643  26.129   2.568 -0.3924  0.1656 -0.0350
13787W        W56840   9.925   7.444   8.254  0.1416  0.0295 -0.0327
13788W        W56841  15.064  29.310   3.707  0.0566  0.2289  0.2682
13789W        W56842  11.484  20.748  28.924 -0.2716  0.1530 -0.2568
13790W        W56843  21.651   6.443   4.138  0.0850  0.0452  0.0080
13791W        W56844  28.877  28.872   9.920  0.1937 -0.2037 -0.0152
13792W        W56845  26.262  31.885   9.782 -0.1524 -0.0363 -0.2137
13793W        W56846  24.525  25.834   7.508 -0.2603 -0.2992 -0.1192
13794W        W56847  16.716  16.555   7.752  0.3476  0.2496 -0.1543
13795W        W56848  29.488  19.204   2.971 -0.2910 -0.0086  0.3781
13796W        W56849  11.624  27.359   7.495  0.0980  0.0040  0.1663
13797W        W56850   1.036  26.134   2.369 -0.0822 -0.1865 -0.2228
13798W        W56851  12.484  19.843   3.503  0.2112  0.2163 -0.1849
13799W        W56852  20.579  34.539   7.912  0.2429 -0.0557  0.2849
13800W        W56853  20.991  23.668   2.207 -0.0617  0.1416  0.0196
13801W        W56854  11.187  12.674   6.062  0.0173 -0.1098 -0.0619
13802W        W56855   1.159  12.675   3.932  0.0382  0.2153  0.1730
13803W        W56856  26.716  22.635   9.503 -0.1973  0.0921  0.0794
13804W        W56857  24.427   2.940  26.243  0.2031 -0.2163  0.1410
13805W        W56858   7.255  15.217   9.252  0.4291  0.2523 -0.2693
13806W        W56859  15.199  17.876   4.982  0.1541  0.0851 -0.0556
13807W        W56860   2.009   7.611   6.091  0.0656  0.0502  0.4324
13808W        W56861  12.807  24.861  21.156 -0.1845 -0.0857  0.1236
13809W        W56862  31.719  20.983   4.625 -0.2740  0.1367 -0.1321
13810W        W56863  24.936  29.130  28.227 -0.0915 -0.0959 -0.0816
13811W        W56864  25.564  28.864   9.182  0.2481 -0.2469  0.3603
13812W        W56865  18.563   9.034  27.567  0.2004 -0.2517 -0.1059
13813W        W56866  19.169  14.966   3.692 -0.0638 -0.0219 -0.3124
13814W        W56867   0.994  10.840  14.147  0.0515  0.1626 -0.0926
13815W        W56868  17.679  18.544   7.075 -0.1041 -0.0871  0.0071
13816W        W56869   9.151   5.022   5.227 -0.0995 -0.3461  0.2381
13817W        W56870  19.106   9.697   8.502  0.1747 -0.3556  0.0997
13818W        W56871  10.277  34.640   3.503  0.1532  0.3175  0.2508
13819W        W56872  18.755  22.920  10.441  0.1192 -0.0357 -0.1609
13820W        W56873  19.041   8.131   2.696 -0.0763  0.2041  0.0082
13821W        W56874  17.673  31.307  23.869  0.2557 -0.0445 -0.0351
13822W        W56875  16.647   9.171  26.726 -0.0904 -0.0110  0.0267
13823W        W56876  22.858  14.246   8.708  0.0068  0.0625 -0.1864
13824W        W56877  13.429  10.249  28.785  0.0503  0.1341  0.0939
13825W        W56878  18.927  27.861  24.526  0.3400  0.1464  0.1406
13826W        W56879  10.579  24.743   8.136  0.2257  0.0907 -0.1615
13827W        W56880  33.107  26.218   1.782 -0.1397  0.0631 -0.0264
13828W        W56881  23.763  12.719   2.127  0.0973  0.0510 -0.1992
13829W        W56882  14.243  16.083   8.988 -0.0599  0.0820 -0.1118
13830W        W56883  15.520  11.930   7.157  0.3102  0.0021 -0.3724
13831W        W56884  11.836  15.151  10.216 -0.2827  0.0643  0.1488
13832W        W56885  19.127  19.074   4.108  0.5636  0.1958 -0.0598
13833W        W56886  19.155  16.556   5.525  0.1139  0.0684  0.0103
13834W        W56887  24.276  17.385  28.458 -0.1212  0.1003 -0.0077
13835W        W56888  30.146  18.635   1.899  0.0797 -0.4254  0.1002
13836W        W56889  15.260  13.279  25.864  0.3634 -0.0638 -0.0853
13837W        W56890  22.096  23.778   9.941 -0.0483 -0.4188  0.0373
13838W        W56891   6.259  24.440   9.390 -0.2000  0.0021 -0.0926
13839W        W56892   9.627  19.948   5.148 -0.2051  0.0430  0.0644
13840W        W56893  23.966  20.025   8.917  0.0490 -0.1718 -0.0709
13841W        W56894   8.797  28.948  24.430 -0.1322 -0.0390  0.0620
13842W        W56895  34.568  24.188   8.280  0.2787 -0.3911 -0.0456
13843W        W56896  11.120  12.211   6.312 -0.0953  0.0173 -0.3412
13844W        W56897  13.273  20.529  25.922  0.0067 -0.0178  0.1017
13845W        W56898  15.924  21.597   5.979  0.0375  0.2241  0.2203
13846W        W56899  21.951  17.652   7.785  0.1114 -0.0329 -0.1278
13847W        W56900  17.251  26.996   7.003  0.0279 -0.4035  0.2322
13848W        W56901   6.501  14.851   2.025  0.0914 -0.0737 -0.0309
13849W        W56902  18.205  20.545  15.148 -0.0201  0.1225  0.1559
13850W        W56903  22.028  26.331  28.024  0.0947  0.3309  0.1099
13851W        W56904  19.801  18.679   3.335 -0.0137 -0.1382 -0.0536
13852W        W56905  12.820  26.704  24.437  0.1584 -0.2864  0.2656
13853W        W56906  33.825  22.175   3.610  0.0363  0.4707  0.2448
13854W        W56907  23.695   8.381  25.136 -0.3862 -0.1464  0.2055
13855W        W56908  29.551  14.058  10.444  0.2669  0.1639 -0.3267
13856W        W56909  20.103  13.155   0.758  0.0770 -0.3722  0.2309
13857W        W56910  21.144  23.656  28.083  0.2620 -0.1845  0.1063
13858W        W56911  22.036  10.787   9.255  0.0937  0.1488 -0.1282
13859W        W56912  13.003  14.826  11.122 -0.1314 -0.0475  0.1526
13860W        W56913  25.550  27.701  16.126 -0.0611 -0.0772 -0.0956
13861W        W56914  24.075  24.516  27.936  0.3962 -0.0513  0.1961
13862W        W56915  26.500  17.822   8.767 -0.0539 -0.0388 -0.1578
13863W        W56916  30.711  25.147   5.788  0.0740 -0.0081  0.1178
13864W        W56917   1.261  17.194  17.414 -0.2367 -0.0112 -0.0063
13865W        W56918  11.401  18.370   9.031  0.1068  0.0615 -0.3751
13866W        W56919   6.530  34.539   0.884  0.0367 -0.3356  0.2694
13867W        W56920   9.923  16.316   2.165  0.3564  0.0577  0.0391
13868W        W56921  16.107  34.464   9.515 -0.3337 -0.0402 -0.0544
13869W        W56922  31.964  30.355   1.925  0.0881 -0.0063 -0.2596
13870W        W56923  31.093   7.073   7.943  0.2130  0.2283  0.2229
13871W        W56924  30.937  10.779   6.266  0.1674 -0.0204  0.2694
13872W        W56925  17.136   9.959  21.259  0.1163 -0.5256  0.1969
13873W        W56926  32.174  17.160  21.036 -0.2641  0.2658 -0.0413
13874W        W56927  25.503   2.938  24.788  0.1171 -0.3922  0.0607
13875W        W56928  12.176  15.921   0.212 -0.2899  0.1773 -0.1938
13876W        W56929   5.765  18.382   7.276 -0.1945  0.0022 -0.1217
13877W        W56930   1.650   8.309   7.061 -0.1742  0.0740  0.1560
13878W        W56931  21.790   1.646  15.090 -0.2511  0.2082  0.2830
13879W        W56932   5.564  15.256   8.616 -0.0580  0.1318  0.2349
13880W        W56933  17.106  17.498   3.117 -0.1427 -0.3333 -0.1369
13881W        W56934  12.687   8.049  23.473 -0.0888  0.3774 -0.1369
13882W        W56935   9.136  15.514  10.400  0.1490 -0.0150 -0.0290
13883W        W56936   1.449  19.031   9.330  0.3344  0.1473  0.2623
13884W        W56937   6.971  22.468   3.195  0.2165 -0.2228 -0.0506
13885W        W56938  29.837  25.837  27.365  0.1044 -0.0323 -0.2898
13886W        W56939  18.467  18.455  19.444  0.2211 -0.1028  0.1769
13887W        W56940  28.082  31.434  22.118  0.1453  0.2098 -0.0303
13888W        W56941  17.743  20.622   8.399  0.1366  0.1823  0.2220
13889W        W56942  21.085  27.077  21.595  0.3946  0.2374  0.0128
13890W        W56943  13.095   9.623  10.664 -0.5005  0.0582 -0.1835
13891W        W56944  14.199  11.704  10.369 -0.4279 -0.1327 -0.1905
13892W        W56945  13.899  19.969   5.728 -0.1300 -0.0575  0.0096
13893W        W56946  22.037   9.292   5.994 -0.1389  0.3419  0.1503
13894W        W56947  14.258  13.674   2.962 -0.1447 -0.0482 -0.0139
13895W        W56948  16.363  24.631   9.566 -0.1316 -0.0194  0.1798
13896W        W56949  12.873  22.267   6.279 -0.1158 -0.2066  0.0055
13897W        W56950  24.941  19.693   7.418  0.0942  0.4126  0.0958
13898W        W56951  17.623  18.381   0.168 -0.2556 -0.2344 -0.0826
13899W        W56952  23.993   7.708   2.727  0.0996  0.0937 -0.1482
13900W        W56953  14.436  19.209   0.080 -0.0615 -0.3054 -0.2003
13901W        W56954  17.809  12.508  28.489  0.0545  0.3307 -0.0410
13902W        W56955  23.591  11.640   8.619  0.1445  0.1124  0.2230
13903W        W56956  12.348   5.414  25.097  0.3653  0.0927 -0.0405
13904W        W56957  16.832  13.183   6.293 -0.0919  0.0824 -0.1384
13905W        W56958  15.993   5.641   3.557  0.0224  0.4034 -0.1710
13906W        W56959  13.599  19.733  28.415 -0.1658 -0.0406  0.0361
13907W        W56960  15.901  19.068  23.435 -0.4093  0.0186  0.2517
13908W        W56961  31.150   1.915   5.722  0.0740 -0.0913 -0.1545
13909W        W56962  22.129  19.378   9.208  0.2762 -0.2705  0.1773
13910W        W56963  14.833  18.218   4.153  0.1060  0.0928 -0.3456
13911W        W56964  28.974   6.076   3.650  0.1285  0.1738  0.0116
13912W        W56965  10.475   5.814  17.676  0.0680  0.2906 -0.1124
13913W        W56966  25.467  13.159  26.805  0.0615  0.1127 -0.0948
13914W        W56967  18.337   6.565   8.862 -0.2349 -0.0875 -0.0984
13915W        W56968  10.427   5.335  28.662  0.0789  0.1729 -0.1814
13916W        W56969   6.890  17.231   9.079 -0.0736 -0.1967  0.1334
13917W        W56970  21.284   9.067   7.954  0.1883 -0.2545 -0.2833
13918W        W56971  28.008  14.843   3.850 -0.0708  0.1469  0.1975
13919W        W56972  16.934   8.853  24.016 -0.2247 -0.0953 -0.2600
13920W        W56973  31.092   7.678   6.213  0.1139 -0.0436  0.1794
13921W        W56974   0.878  18.912  29.121  0.0919  0.2337  0.0939
13922W        W56975  20.410  22.185   6.692 -0.2990 -0.3849  0.1040
13923W        W56976  12.916  17.361   7.728 -0.0910 -0.1051  0.3716
13924W        W56977   8.965  22.079   5.690 -0.1736  0.0419  0.1819
13925W        W56978  20.500  26.945   5.621 -0.2493  0.1348  0.0025
13926W        W56979   6.855   9.849   0.267 -0.2525 -0.0447  0.0786
13927W        W56980   1.799   7.220  21.054 -0.0046 -0.0881  0.1917
13928W        W56981  19.690  18.018   6.572  0.0001 -0.3634 -0.1748
13929W        W56982  23.171  12.899   6.843 -0.0055 -0.1636  0.2530
13930W        W56983  11.659  20.845   3.700 -0.0340 -0.3497  0.0006
13931W        W56984  13.265  10.746  11.419  0.0334 -0.1243 -0.0234
13932W        W56985  22.328  15.853  28.835  0.4297  0.0320  0.2303
13933W        W56986  26.710  26.759   0.756 -0.1686 -0.1105 -0.0449
13934W        W56987  20.223  19.898  10.170  0.1746  0.1187 -0.0128
13935W        W56988  29.324  15.394   5.280  0.1048 -0.0137 -0.2471
13936W        W56989  15.774   9.623   8.425 -0.1054  0.1910  0.0070
13937W        W56990  20.471  28.605  27.891 -0.1116  0.0516 -0.0096
13938W        W56991  19.868  21.072   8.715 -0.4162 -0.1953 -0.0129
13939W        W56992  32.434   9.433   3.492 -0.0400  0.0563  0.0174
13940W        W56993  22.156  20.402   9.875  0.2255  0.1550  0.2783
13941W        W56994  21.663  12.849   3.983  0.0547 -0.0436  0.1044
13942W        W56995  16.350  24.676   8.489 -0.1468 -0.1017 -0.2068
13943W        W56996  23.288  11.961   1.839 -0.1607 -0.2316 -0.0197
13944W        W56997  30.354  25.948   5.280  0.3008 -0.0415  0.1214
13945W        W56998  21.686  29.037   9.465  0.0392 -0.3778  0.0873
13946W        W56999  16.143  26.760   8.422 -0.2732  0.1396  0.0803
13947W        W57000  22.293  13.252   9.102 -0.2713 -0.1286 -0.3660
13948W        W57001  26.548  19.389   5.179  0.1122  0.0622  0.0114
13949W        W57002  23.581  18.244   2.249 -0.1713 -0.3320  0.0579
13950W        W57003   7.617   9.975  23.904 -0.1475 -0.0630  0.0302
13951W        W57004  25.654   8.999   7.248  0.0682  0.2073  0.0657
13952W        W57005  26.613  15.431   3.555  0.2823 -0.2807 -0.2082
13953W        W57006  19.342  15.435   1.830  0.0379  0.1857 -0.1431
13954W        W57007  24.921  14.457  27.825 -0.1990  0.2488  0.1864
13955W        W57008  15.876  11.519   1.479 -0.2413 -0.1132  0.0730
13956W        W57009  23.179  30.688   5.571  0.1121 -0.0370 -0.0668
13957W        W57010  22.537  28.864   3.813 -0.0155  0.0802 -0.0207
13958W        W57011  16.064  10.588   0.111  0.1244  0.2326 -0.0654
13959W        W57012  16.024   2.579  10.432 -0.0281  0.2636  0.0645
13960W        W57013  29.604  34.273   9.941  0.0465 -0.1119  0.0743
13961W        W57014  18.209  34.488   2.160 -0.2038 -0.2201 -0.1384
13962W        W57015  14.057  11.361   5.913  0.0177  0.1994 -0.2376
13963W        W57016  17.249  22.025   7.465  0.1994  0.1374 -0.0491
13964W        W57017   4.389  12.903   8.042  0.0382  0.2887  0.1203
13965W        W57018  34.525  17.728  29.187  0.1361 -0.0410  0.0001
13966W        W57019  23.087  16.233   2.995 -0.0098 -0.0657 -0.1141
13967W        W57020   4.284  20.732   3.811 -0.2115 -0.1273  0.0084
13968W        W57021  16.043   5.715   1.580  0.0560  0.0900  0.2784
13969W        W57022  24.619   7.263   1.538 -0.0587 -0.2791  0.0297
13970W        W57023  31.409  16.957  14.955 -0.0444 -0.1025 -0.0580
13971W        W57024  18.885  10.996   8.638 -0.3100  0.1963 -0.0473
13972W        W57025  23.252  12.559   2.165  0.1023  0.0257 -0.0580
13973W        W57026  27.560   3.026  28.598  0.1327  0.2349  0.1092
13974W        W57027  28.160  26.279  23.303  0.0878  0.2918 -0.1101
13975W        W57028  22.145  23.396   6.572  0.1669  0.1635  0.1349
13976W        W57029  17.087  25.170   9.799  0.1722 -0.0401  0.0113
13977W        W57030  28.909  11.408   3.483  0.0406  0.0513 -0.0758
13978W        W57031  15.675  15.262  25.011 -0.0544  0.4089  0.0284
13979W        W57032  17.322  19.276   6.872 -0.0606  0.1984  0.2969
13980W        W57033  16.340  10.875   7.382  0.1912  0.1992  0.1951
13981W        W57034  18.016  17.371   6.627  0.1002 -0.1464 -0.1286
13982W        W57035  22.748  17.943   9.365 -0.1916 -0.2067 -0.5836
13983W        W57036  27.485  20.779   9.969  0.2995 -0.0652  0.1155
13984W        W57037  14.349  27.228  26.738 -0.0278  0.2659 -0.3657
13985W        W57038  27.023  25.605   3.361 -0.0958  0.1319  0.0937
13986W        W57039  20.434  12.962   3.783  0.3847  0.3575  0.2456
13987W        W57040   9.395  11.411   8.652  0.1612 -0.0646  0.0767
13988W        W57041  12.546  23.105   8.859 -0.0388 -0.1966 -0.2412
13989W        W57042  31.145  33.426   6.676 -0.3240 -0.2106 -0.1801
13990W        W57043   6.644  24.036   4.535  0.0448 -0.1861  0.6211
13991W        W57044  20.117  24.681  10.091  0.1363 -0.3154 -0.2493
13992W        W57045  11.982  25.324  25.278 -0.0553  0.1782 -0.0326
13993W        W57046   8.108  30.600   4.648 -0.1039 -0.1228 -0.0650
13994W        W57047  11.636  12.912  28.641  0.3349  0.2212  0.0181
13995W        W57048  24.999  20.937   7.593  0.4360  0.0938  0.2472
13996W        W57049  18.195  29.361  23.523  0.0739 -0.1394 -0.0903
13997W        W57050  18.619  15.398  14.230  0.1143 -0.1730  0.3230
13998W        W57051  21.236  33.193   4.776  0.2242 -0.3512  0.0060
13999W        W57052   3.503  15.928   0.545 -0.1142 -0.0125 -0.0298
14000W        W57053  10.326  13.155  11.347  0.0324  0.1150  0.2006
14001W        W57054  18.399   5.306  22.802 -0.0447  0.1712 -0.2072
14002W        W57055  25.418  24.170  21.036  0.0080  0.0025 -0.3001
14003W        W57056  18.633  11.819   4.339  0.0342 -0.1334  0.0725
14004W        W57057   2.750  19.297   2.041 -0.1940  0.3535  0.0704
14005W        W57058  30.066   0.669   1.282  0.1084 -0.2014 -0.1064
14006W        W57059  19.087  19.953   8.923 -0.1467 -0.1795 -0.0934
14007W        W57060   6.452  19.751   3.583  0.0091 -0.0401  0.0223
14008W        W57061   3.762  24.738   7.684 -0.3224 -0.4390  0.0110
14009W        W57062  11.094   9.764   9.334  0.0066 -0.0090 -0.1063
14010W        W57063  29.398  15.518  26.549  0.0784 -0.0090  0.2771
14011W        W57064  18.631  14.809   9.516 -0.1878  0.0666 -0.0430
14012W        W57065   7.188  30.689  18.489 -0.0220  0.0336  0.0697
14013W        W57066  10.376  14.251   6.471  0.0388 -0.2197 -0.0639
14014W        W57067  31.283  18.446   9.274  0.0268  0.4440 -0.1854
14015W        W57068  23.772  28.518   0.651  0.2709 -0.2771 -0.0711
14016W        W57069  29.373  30.260   6.157  0.1227  0.1716  0.2193
14017W        W57070  20.213   7.667   0.507 -0.2928 -0.2964  0.0970
14018W        W57071  20.807  13.169   3.029  0.3943 -0.1670 -0.1194
14019W        W57072  24.216  27.841   2.325  0.0889  0.1812 -0.1668
14020W        W57073   0.004  26.495  21.095 -0.2614 -0.1203  0.1133
14021W        W57074  16.261  22.429   6.187 -0.1070 -0.0963  0.2228
14022W        W57075  19.215  34.331   2.693 -0.1164  0.2629  0.1168
14023W        W57076  20.896  18.856   2.617  0.0238  0.0305 -0.0010
14024W        W57077   0.749  25.742   1.160 -0.3275  0.0749 -0.4262
14025W        W57078  33.379  15.577   4.849  0.2765 -0.2014 -0.0393
14026W        W57079  22.857  27.484  15.056 -0.0114 -0.1472  0.0746
14027W        W57080  22.626  17.304  28.505  0.2120  0.1649  0.1046
14028W        W57081  23.456  21.832   9.419 -0.1703 -0.0487 -0.3818
14029W        W57082  20.470  21.112  27.662  0.2401  0.1003  0.0901
14030W        W57083   7.788  20.967   3.684  0.0404  0.1136 -0.0344
14031W        W57084   9.592  15.325  22.377  0.0159  0.1332 -0.0079
14032W        W57085  22.790   7.816   3.088  0.1621 -0.0030 -0.2405
14033W        W57086  10.465  22.582   6.215  0.0248 -0.0767  0.0897
14034W        W57087   7.372  10.090  28.536  0.2733 -0.1913  0.0350
14035W        W57088  26.673   3.149   4.813  0.0630  0.1535  0.0533
14036W        W57089  21.868   6.809   9.861 -0.0529 -0.2084 -0.0401
14037W        W57090   1.676  11.994  20.856 -0.1510  0.5002 -0.0384
14038W        W57091  14.631  33.873   9.847  0.3403 -0.3717 -0.1761
14039W        W57092  28.642  10.947  28.592 -0.1399  0.0049  0.1261
14040W        W57093  17.532   0.195  23.632  0.0869 -0.0805 -0.0827
14041W        W57094  22.746  18.999  25.480 -0.0777  0.0238 -0.2581
14042W        W57095  18.632   8.028   9.229  0.1480 -0.0127  0.0525
14043W        W57096  29.743  19.359   7.848  0.4538  0.1188 -0.1796
14044W        W57097  27.009  20.130  24.603  0.1394 -0.1008 -0.0055
14045W        W57098   1.243  18.918   4.656 -0.0227 -0.1728 -0.1217
14046W        W57099  16.964  26.846   5.875  0.3375  0.0733 -0.0187
14047W        W57100  17.154  25.174   6.004 -0.3179 -0.3185 -0.0575
14048W        W57101  21.190  27.338   0.509  0.1343 -0.1060  0.1689
14049W        W57102  12.532  29.134   6.496  0.1760  0.0596  0.0186
14050W        W57103  17.002  16.239   3.803  0.0249  0.2747 -0.0220
14051W        W57104   0.555  17.393  20.882  0.3209  0.3716 -0.2856
14052W        W57105  34.338  14.538  26.785  0.0464 -0.1132  0.1670
14053W        W57106  18.487   4.782   3.018  0.1502  0.1969  0.0434
14054W        W57107  27.571  15.380   7.381 -0.0354 -0.1704  0.3100
14055W        W57108  23.641  13.609  24.368  0.0826  0.1482  0.0605
14056W        W57109  32.599   4.678  16.292 -0.2378  0.0982 -0.0587
14057W        W57110  10.550   8.091  26.615  0.4179  0.0193 -0.2576
14058W        W57111  21.974   2.782  26.393 -0.0198  0.1655  0.1605
14059W        W57112  29.636  18.904  24.845  0.2059  0.0817  0.2938
14060W        W57113  30.735  10.769   4.252  0.1185  0.0139 -0.0891
14061W        W57114  20.425  20.547  28.674  0.0585  0.4929 -0.0993
14062W        W57115  25.997  31.289  22.351 -0.4772 -0.0809 -0.0003
14063W        W57116   5.723  33.067   5.945 -0.1489  0.1490  0.0401
14064W        W57117  23.920   5.888   6.372  0.0622  0.2615  0.2348
14065W        W57118  20.837  18.574   8.179 -0.1435  0.0482  0.0545
14066W        W57119  21.521  11.155   8.686 -0.1031  0.0774  0.4496
14067W        W57120  23.365  13.674   8.368  0.3326  0.3486 -0.0845
14068W        W57121  19.800   7.351  25.074 -0.1061  0.1576  0.1265
14069W        W57122  18.175   2.002  28.103  0.0164  0.1011  0.3621
14070W        W57123   2.967  28.854   8.750 -0.0141  0.2332 -0.2435
14071W        W57124  30.925  19.090  18.891 -0.1642  0.0991  0.0582
14072W        W57125  23.544   2.709  20.453 -0.1690 -0.2242 -0.1800
14073W        W57126  27.592  30.621   9.794 -0.2448 -0.3332  0.1578
14074W        W57127  10.267  21.576   5.587 -0.0258  0.0766  0.0662
14075W        W57128   7.514  16.126   9.410 -0.0521 -0.1459  0.2059
14076W        W57129  11.036  33.633   8.410 -0.0069  0.1455  0.3790
14077W        W57130  34.229  24.934   6.726  0.2397  0.2428  0.0648
14078W        W57131  23.983  17.584  26.305  0.0277  0.3926  0.0883
14079W        W57132  20.120   5.459   8.878  0.0627  0.3330  0.0669
14080W        W57133   9.935  24.412   5.530  0.2215  0.0891 -0.0051
14081W        W57134  23.855   6.573  26.873  0.3180  0.0759  0.1348
14082W        W57135  14.232  22.721   6.188  0.2391 -0.1746 -0.2252
14083W        W57136  23.475  24.690  22.402  0.2628 -0.0926 -0.0813
14084W        W57137  19.060  11.549  22.301 -0.0501  0.0087 -0.0398
14085W        W57138  20.447  19.539   1.287  0.0490 -0.1664  0.1534
14086W        W57139   8.727  17.589   1.508  0.0208  0.1564  0.3197
14087W        W57140  31.334  20.456   3.798  0.2410 -0.2164 -0.2491
14088W        W57141  14.627  13.113   9.255 -0.1569  0.0676 -0.2501
14089W        W57142  27.292   6.754  17.607  0.0068  0.2139 -0.0488
14090W        W57143  12.553  24.574   5.515 -0.0262  0.0714 -0.0502
14091W        W57144  16.449  27.218  23.631 -0.3393  0.3316  0.1205
14092W        W57145  34.180   0.169  19.430 -0.0782 -0.0028  0.4309
14093W        W57146  24.911  19.866   1.491 -0.1218 -0.3012  0.1667
14094W        W57147  15.583  11.782   9.636  0.0741  0.0662 -0.4225
14095W        W57148   5.591  18.596  24.543 -0.1061 -0.0267  0.2099
14096W        W57149  19.850  29.696   7.809  0.1888 -0.3970  0.3446
14097W        W57150  17.581  16.003  23.054  0.0709  0.4497 -0.1826
14098W        W57151  19.691   1.552  27.030  0.0478 -0.1260  0.3163
14099W        W57152   9.487   4.466   7.231  0.2305 -0.0053  0.0142
14100W        W57153  26.122   9.935  27.250  0.0753 -0.1257  0.2054
14101W        W57154  18.668  16.102  26.089 -0.0611  0.0435  0.0405
14102W        W57155  29.029  27.717   4.144  0.1150  0.0628 -0.2025
14103W        W57156   0.345  14.354  19.155  0.1716 -0.2645 -0.0750
14104W        W57157  23.051  16.270   7.877 -0.0504 -0.0353  0.0891
14105W        W57158  10.049  18.170   4.444 -0.1716 -0.0001 -0.0046
14106W        W57159  16.770  25.996   5.861  0.0010  0.0166 -0.2173
14107W        W57160  26.811  27.789  28.914 -0.2823 -0.0521 -0.0880
14108W        W57161  10.859   9.919   7.505 -0.0020  0.2985 -0.1330
14109W        W57162  22.285  24.932   0.286  0.1394  0.0611  0.2551
14110W        W57163  10.943  18.820   5.038  0.0309 -0.2149 -0.0747
14111W        W57164  27.680  20.367  29.069 -0.1433  0.0555 -0.0178
14112W        W57165   4.991  25.863   9.510  0.0115  0.2072  0.2284
14113W        W57166   6.347  13.741   6.686  0.0108  0.0755  0.2935
14114W        W57167  33.200   9.463   0.428  0.1364  0.1553  0.2611
14115W        W57168  21.507  26.834  27.753  0.1154 -0.1019 -0.0878
14116W        W57169  27.239  13.156   7.675  0.1237 -0.4010  0.1770
14117W        W57170  19.889  21.469  28.890 -0.0046  0.1812 -0.3452
14118W        W57171  14.601   8.626  21.911  0.3389  0.0100 -0.0054
14119W        W57172  24.741  16.155   7.949 -0.1883 -0.0842  0.2349
14120W        W57173  19.842  18.577   2.089  0.0441  0.0616 -0.1437
14121W        W57174  16.757  19.701  27.613  0.2589 -0.5382 -0.0308
14122W        W57175  16.270   5.321   9.686  0.2590  0.1751 -0.0878
14123W        W57176  15.400  11.404   8.380  0.0906  0.2077 -0.0860
14124W        W57177  28.009  11.083   3.044  0.1247  0.0482  0.0665
14125W        W57178  25.925  22.076   3.660 -0.3499  0.1175  0.0651
14126W        W57179  16.989  18.091   3.269  0.0346  0.0467 -0.3305
14127W        W57180   7.340  11.838   9.186 -0.0549  0.5844 -0.1961
14128W        W57181   1.947  14.340   1.974  0.3027 -0.1913 -0.1706
14129W        W57182  26.671   4.518  28.968 -0.2867 -0.0140  0.2733
14130W        W57183   6.185  24.124   7.181  0.1047 -0.0298 -0.1498
14131W        W57184  26.267  20.779   6.505 -0.0257 -0.0282  0.0657
14132W        W57185  22.090   3.813   8.775 -0.2717  0.2316 -0.0932
14133W        W57186   9.419  20.281  18.963  0.0316  0.0271  0.1633
14134W        W57187  12.658   0.506   2.359 -0.1694 -0.0711  0.4075
14135W        W57188  12.846  15.489   0.831  0.0488  0.1330  0.2678
14136W        W57189  26.981  27.528  21.188  0.0537  0.2952 -0.0056
14137W        W57190  33.634  11.189   8.611  0.0652 -0.1770 -0.0146
14138W        W57191  18.132  32.685  13.989 -0.0199 -0.0185 -0.1663
14139W        W57192  12.517  14.631  27.913 -0.0595 -0.1546 -0.2461
14140W        W57193  15.139  12.588   0.229  0.0797 -0.0880 -0.3640
14141W        W57194  17.262  26.356  10.574 -0.3003  0.1061  0.0099
14142W        W57195  21.574  22.995  25.339  0.0802 -0.1657  0.1940
14143W        W57196  21.789  19.893  15.688  0.0165 -0.2838 -0.4116
14144W        W57197   0.744  14.080  16.084 -0.1941  0.1394 -0.1166
14145W        W57198  12.731  14.244   6.337 -0.1066  0.0211 -0.0345
14146W        W57199  22.576  12.121  27.368  0.1676  0.3015 -0.1092
14147W        W57200   2.132   5.423   4.773 -0.2381  0.1403  0.1311
14148W        W57201  24.045  31.244   2.561  0.0486  0.2796  0.1196
14149W        W57202   6.640  21.796  24.214  0.1844 -0.0186  0.2530
14150W        W57203  12.124  27.278   5.961 -0.1138 -0.0859  0.0423
14151W        W57204   4.440  25.983   2.625  0.1240 -0.0478 -0.0602
14152W        W57205  15.589  16.900   0.436  0.1520 -0.0005  0.1046
14153W        W57206  21.788  22.649   8.302 -0.1238  0.0749 -0.1420
14154W        W57207  21.472  10.932   1.001 -0.1659 -0.2212 -0.0217
14155W        W57208  20.448   8.485  20.416 -0.2327 -0.0725 -0.2441
14156W        W57209  15.319  23.442   3.582 -0.0251  0.1225 -0.0255
14157W        W57210  13.636   3.455   0.389  0.0862  0.1166  0.1927
14158W        W57211  18.674  20.036  26.071  0.1661  0.2078  0.2266
14159W        W57212  19.162   8.189   0.924 -0.2235 -0.1033 -0.2748
14160W        W57213  27.456  27.000   7.309  0.2034 -0.1017 -0.2417
14161W        W57214  22.667  28.850  20.745 -0.3358 -0.2064 -0.2753
14162W        W57215   4.401  23.741   8.807 -0.2812  0.0957 -0.1334
14163W        W57216  24.891  13.294   9.221 -0.3105  0.2433 -0.0172
14164W        W57217   9.836   1.413  23.013  0.0352 -0.1145  0.3260
14165W        W57218  16.743  16.349   3.003  0.0548  0.1658  0.3552
14166W        W57219   9.093  32.741  14.314 -0.1168  0.0349 -0.2179
14167W        W57220  19.897   6.057   5.542 -0.2215 -0.1109  0.1687
14168W        W57221  22.901  31.419   6.032 -0.3345 -0.1827 -0.2686
14169W        W57222  18.904  17.931   6.618  0.0324  0.0439  0.0172
14170W        W57223  17.076  18.345   5.972 -0.2533 -0.1336  0.1739
14171W        W57224  34.207  32.356   8.570  0.0329  0.0493 -0.2156
14172W        W57225  20.321  23.959  25.287 -0.3109  0.2482 -0.0310
14173W        W57226  22.407   2.430  18.406 -0.0368  0.3568 -0.0817
14174W        W57227  25.051  21.091  27.671 -0.4111  0.0319  0.6497
14175W        W57228  28.895  21.128  28.256 -0.1985  0.2807 -0.1273
14176W        W57229  21.985  10.209   0.663 -0.1671 -0.0461  0.1223
14177W        W57230  27.387   7.958  28.599 -0.1070 -0.1888  0.0560
14178W        W57231  25.341  26.926   6.130 -0.0459 -0.2704  0.2536
14179W        W57232  28.619   3.138   9.620 -0.1873 -0.1430  0.1333
14180W        W57233  18.502  25.043   8.338  0.2139  0.1521  0.0588
14181W        W57234  12.815  18.153  25.518  0.1665 -0.3082  0.0663
14182W        W57235   8.929  16.762   9.060 -0.1230  0.3298 -0.1520
14183W        W57236   4.750  10.297   1.508  0.1137  0.2230  0.1028
14184W        W57237   7.216  25.036   1.487  0.0012 -0.0780  0.1839
14185W        W57238  24.710  20.165   3.438  0.1024 -0.0404  0.2569
14186W        W57239   8.644  12.455   8.118 -0.1321  0.0285  0.2832
14187W        W57240  30.830  19.182  24.271  0.0415 -0.0454  0.0728
14188W        W57241  17.116   5.221   5.210 -0.0298  0.1563 -0.2129
14189W        W57242  23.708  22.814  19.759  0.1398  0.1141 -0.1500
14190W        W57243  19.610   1.280   7.814  0.0697 -0.1647  0.2342
14191W        W57244  19.916  10.856   1.471  0.0677  0.1268  0.2411
14192W        W57245   4.842   3.182  16.939  0.1635  0.1863 -0.1098
14193W        W57246  22.408  31.759  26.793 -0.1728 -0.0555  0.1391
14194W        W57247  14.572  14.527  24.382  0.3783  0.0968 -0.5522
14195W        W57248  25.428  20.264   5.099  0.1923  0.0647  0.3135
14196W        W57249  24.425  27.179   6.940 -0.0369  0.0046  0.0271
14197W        W57250  25.678  34.641   2.007  0.1190 -0.0172  0.0519
14198W        W57251  15.014  21.870   8.807 -0.0238  0.1182  0.2201
14199W        W57252  21.456  15.773  27.450  0.0382 -0.0713 -0.0383
14200W        W57253  11.364  23.011   5.246 -0.0360  0.2138  0.2895
14201W        W57254  18.365  18.615   6.142 -0.0434 -0.1647  0.1865
14202W        W57255  21.213  14.289   9.239 -0.3344  0.1937  0.3069
14203W        W57256  30.892   8.655   2.226  0.0617  0.0310 -0.0116
14204W        W57257  28.581  20.714   7.066 -0.0713 -0.0926  0.1031
14205W        W57258  13.912  32.889   5.178  0.0587  0.1074  0.3370
14206W        W57259  15.623  19.875   1.274 -0.0715 -0.0461  0.0294
14207W        W57260  25.610  14.463  26.962  0.0498  0.1740  0.2158
14208W        W57261  17.283  24.434   3.054 -0.1474  0.0707  0.1173
14209W        W57262  29.171  23.449   9.956 -0.0899 -0.2393  0.0216
14210W        W57263  21.742  23.804   9.522  0.1771 -0.0772 -0.1141
14211W        W57264   0.911  25.826  26.452  0.0757  0.1784 -0.0624
14212W        W57265  29.519  13.936   2.775 -0.1600 -0.4340  0.0292
14213W        W57266  27.684  14.825  20.209 -0.0825 -0.0127 -0.0370
14214W        W57267  20.795   6.588   3.861 -0.0245 -0.1681  0.0935
14215W        W57268  29.926  17.420   7.764 -0.0953  0.1369 -0.0338
14216W        W57269  31.280  18.711   7.258  0.2715 -0.1088 -0.0885
14217W        W57270  21.125  14.240   4.032  0.1228 -0.0905 -0.0335
14218W        W57271  14.661  14.043   7.244 -0.0301  0.1597 -0.2315
14219W        W57272  22.154  29.268   9.310  0.1529 -0.1884  0.2930
14220W        W57273  22.756   6.795   0.927  0.2367 -0.0425  0.1572
14221W        W57274  22.660  31.557  29.124  0.1643  0.1265 -0.2968
14222W        W57275  18.309  18.322   0.030 -0.0439 -0.0285 -0.2259
14223W        W57276  12.450  27.963   4.677 -0.0685  0.0384 -0.1679
14224W        W57277  30.970  23.015  27.261  0.0854  0.0109  0.0678
14225W        W57278  11.100  10.342   3.173 -0.4392 -0.0889 -0.0046
14226W        W57279  19.936  26.667   6.237  0.3258  0.1560 -0.2656
14227W        W57280  34.597  33.035   7.637  0.0051  0.1923 -0.4029
14228W        W57281  25.790  15.578  26.705 -0.1644 -0.1969 -0.1352
14229W        W57282  22.410  15.973   7.326  0.1412  0.1613 -0.1820
14230W        W57283  18.574  24.560   2.998 -0.0041 -0.1081 -0.2309
14231W        W57284  17.839   7.477   7.278  0.1444  0.2080 -0.2793
14232W        W57285  33.321  30.691   2.953 -0.0464 -0.1014 -0.2278
14233W        W57286   2.181  10.869   2.745 -0.2456  0.0393  0.0650
14234W        W57287  32.329  32.106  25.006 -0.1235  0.2485 -0.1718
14235W        W57288  17.711  11.235  20.406  0.2510 -0.1236  0.0164
14236W        W57289  25.678  28.736   0.404  0.0279  0.1821  0.0889
14237W        W57290  26.343  16.268  27.478 -0.0122 -0.0959 -0.2666
14238W        W57291  12.455  20.069   8.096  0.1741  0.2820  0.1355
14239W        W57292   2.287  20.336  25.009  0.0117  0.0978  0.2299
14240W        W57293  33.490   4.922   3.295  0.2191  0.2890 -0.1007
14241W        W57294  27.298   9.491  25.573  0.0968  0.2794  0.3697
14242W        W57295   6.966   9.931  23.538 -0.0162 -0.1128 -0.0218
14243W        W57296   3.865  16.696   1.882  0.0531  0.1942  0.0233
14244W        W57297  17.497   7.475  24.773  0.3434  0.0295  0.0361
14245W        W57298  12.885  22.861   5.519  0.0188 -0.1156  0.0137
14246W        W57299  20.780  17.459  27.767 -0.0974  0.1678  0.0877
14247W        W57300   0.315  16.716   9.409  0.0502  0.1995 -0.1580
14248W        W57301  20.538  26.343   2.203 -0.0073  0.0625  0.2712
14249W        W57302  14.757   6.917   9.552  0.0380  0.1622 -0.0873
14250W        W57303   8.932  17.156   4.810  0.0301  0.0564 -0.1179
14251W        W57304  28.790  31.234  21.471  0.3792 -0.3309  0.3055
14252W        W57305  28.910   5.774  27.231 -0.0037 -0.0413 -0.0615
14253W        W57306  16.333  21.245  28.424  0.2226 -0.2107  0.0403
14254W        W57307  21.814  16.683   8.395 -0.0179  0.1050  0.0781
14255W        W57308  22.171  32.542   7.405 -0.2087  0.3345  0.0281
14256W        W57309  17.237  24.390  10.517 -0.2724  0.2654 -0.1726
14257W        W57310  14.476  20.603   6.690  0.2208 -0.1776  0.1498
14258W        W57311  13.316  23.519   5.089  0.0375 -0.2473  0.3032
14259W        W57312  11.912  18.199  25.463  0.2893 -0.0737  0.1394
14260W        W57313  23.979  19.049  22.171  0.0734  0.0644 -0.2035
14261W        W57314  22.078   7.779   3.793  0.0228  0.0000 -0.0133
14262W        W57315  14.675  11.336  24.892  0.0674 -0.0458  0.0458
14263W        W57316  10.584  21.969  18.071 -0.0092 -0.0405  0.3120
14264W        W57317  18.294  28.146   6.375  0.1335  0.0788 -0.0025
14265W        W57318   6.831  31.975   6.075 -0.2345  0.2634 -0.3477
14266W        W57319  25.031  17.126  24.419  0.1707 -0.0390 -0.0500
14267W        W57320  26.218  31.076   3.502  0.0504  0.1903 -0.1118
14268W        W57321  24.017   9.046   8.529  0.2582 -0.4270  0.0661
14269W        W57322  32.730   7.647  23.695 -0.0831 -0.3470 -0.1714
14270W        W57323  21.133  23.703  29.005 -0.1839 -0.0308 -0.0776
14271W        W57324   8.277  18.915   6.904 -0.0571  0.1109 -0.1463
14272W        W57325  30.450  22.649  19.557 -0.0107  0.4123 -0.0367
14273W        W57326  19.320  21.824   6.709 -0.0971  0.0700 -0.0720
14274W        W57327  19.442  16.650   7.237 -0.3202 -0.2151 -0.1583
14275W        W57328  17.969  26.011  24.279  0.1927 -0.3525 -0.1326
14276W        W57329  13.455  28.233   4.232 -0.0885 -0.2140 -0.0961
14277W        W57330  14.887  20.946  15.509  0.0338  0.1796 -0.1169
14278W        W57331  22.426  23.262  10.669  0.2442 -0.2987  0.2379
14279W        W57332   1.189  15.996   5.021  0.3410 -0.0958 -0.2934
14280W        W57333  13.723  30.523   2.666  0.1110  0.1583 -0.1532
14281W        W57334  21.853  14.316   6.157 -0.1715 -0.1491  0.2470
14282W        W57335  14.307  17.322   8.050  0.3238 -0.0374 -0.1385
14283W        W57336   1.926   2.089  14.590 -0.0184  0.0016  0.3378
14284W        W57337  20.500  21.227  21.676  0.2333  0.0761 -0.2586
14285W        W57338  20.705  23.109   1.560 -0.3051 -0.0162 -0.1367
14286W        W57339  30.794  18.981  25.166 -0.0114 -0.0229  0.3124
14287W        W57340  21.688  13.163  23.068 -0.2467 -0.2755  0.0125
14288W        W57341  27.640  27.572  17.246 -0.1035  0.2090 -0.2530
14289W        W57342  20.728  20.594   8.381 -0.1424  0.1269 -0.0243
14290W        W57343  13.007  16.380   5.698 -0.0432 -0.2077 -0.3048
14291W        W57344   6.072  17.122   4.376 -0.2426 -0.0403 -0.0446
14292W        W57345  16.562  10.105   6.207 -0.0584  0.3271  0.2550
14293W        W57346  23.507  29.075  24.348 -0.2434  0.2888  0.2158
14294W        W57347  14.707  12.183   4.812  0.1833 -0.0961  0.0351
14295W        W57348  28.646  13.144   8.848 -0.1933 -0.1606  0.2018
14296W        W57349  24.718  18.393  10.258 -0.1782  0.1259 -0.0756
14297W        W57350  29.938  24.248  28.555 -0.0853 -0.2009  0.1965
14298W        W57351  10.021  29.495  28.914  0.1369 -0.0346  0.2814
14299W        W57352   0.759  27.058   4.912  0.0867 -0.0915 -0.0066
14300W        W57353   6.938  11.860   0.195  0.1397  0.0398 -0.2332
14301W        W57354   7.137  24.501  25.902  0.0042  0.1017  0.2605
14302W        W57355  19.933  21.297  26.809 -0.2664 -0.0282 -0.3344
14303W        W57356   4.775  30.895   7.007 -0.2080 -0.2349 -0.1300
14304W        W57357  29.851  22.545  26.033 -0.2964  0.1102 -0.1762
14305W        W57358  21.305   0.034   4.448 -0.0602 -0.3223 -0.1098
14306W        W57359  25.949  21.589   7.576 -0.0267  0.0227  0.2696
14307W        W57360  13.418  15.037   8.929  0.0190  0.0013 -0.0655
14308W        W57361   8.694   4.216   7.399  0.1387  0.0866  0.0885
14309W        W57362   2.323  26.877   9.596  0.1657 -0.0639  0.1723
14310W        W57363  28.891   6.781   4.464  0.0405  0.1521  0.0371
14311W        W57364  19.307  20.243  25.612 -0.0524 -0.0880  0.0567
14312W        W57365  25.666   5.337   6.971 -0.1714 -0.3976 -0.0444
14313W        W57366  21.666  22.959  26.445 -0.0299 -0.0326 -0.1822
14314W        W57367  23.368  31.748   9.230  0.1020  0.2450 -0.0308
14315W        W57368   0.607   3.392  28.836 -0.2090 -0.2709  0.3313
14316W        W57369  27.216  23.503  10.399 -0.2014  0.0801  0.0233
14317W        W57370  28.822  26.471   8.300 -0.0677  0.2949  0.2759
14318W        W57371   6.505  25.254   6.216  0.0598  0.1431 -0.2349
14319W        W57372  27.056  19.980  28.494  0.1323  0.0014  0.1456
14320W        W57373  16.807  26.736   9.086 -0.0302  0.2074  0.0962
14321W        W57374  13.678  14.334   5.560 -0.5455  0.0316 -0.0124
14322W        W57375  28.474  19.716  28.383  0.0616  0.0779  0.1230
14323W        W57376   8.697  13.744   6.187  0.0100  0.2427  0.2442
14324W        W57377  23.018  14.509  27.581  0.4089  0.0929  0.1345
14325W        W57378  17.166  32.555  18.803 -0.3130 -0.1597  0.0636
14326W        W57379  19.769   5.730  25.869 -0.0723  0.3657 -0.1350
14327W        W57380  28.663  28.657   9.280 -0.2941 -0.0655  0.1126
14328W        W57381  25.226   2.860  10.440 -0.2327 -0.0925  0.0851
14329W        W57382   7.321   9.931   1.772 -0.0375 -0.1686 -0.4067
14330W        W57383  24.107  14.736  21.415  0.0513  0.1400  0.2772
14331W        W57384  24.712  10.288   3.276 -0.2396 -0.0165 -0.0878
14332W        W57385  30.340   2.760   5.691  0.0953 -0.0550  0.3142
14333W        W57386  22.787  13.371   6.187  0.0203  0.0466 -0.0358
14334W        W57387  16.211  10.792  16.927  0.2766  0.2377  0.2981
14335W        W57388  19.101   6.372  10.321 -0.0744  0.0537 -0.2890
14336W        W57389  22.900  21.379  10.382 -0.3386  0.2875  0.1401
14337W        W57390  21.422  16.933  17.114  0.1251  0.0896  0.0093
14338W        W57391  22.704  29.211  21.223  0.0895  0.1891  0.0747
14339W        W57392  17.046  30.767   4.193  0.2880 -0.1867 -0.1110
14340W        W57393   7.768  22.911   2.078  0.1525 -0.2583 -0.1788
14341W        W57394  22.458  15.192   4.419 -0.1052 -0.4205 -0.0817
14342W        W57395  21.017  11.272  28.507 -0.3736  0.1071 -0.2284
14343W        W57396  31.590  17.251   3.054 -0.0304  0.1073  0.0881
14344W        W57397  32.612   9.978   6.247  0.0785  0.2080  0.2225
14345W        W57398  20.451  29.043   4.930 -0.1748 -0.1782  0.5582
14346W        W57399  18.300  30.811   1.951 -0.0234 -0.0650 -0.0427
14347W        W57400  16.984  33.101   3.946 -0.2493 -0.0976  0.0366
14348W        W57401  34.317  16.665   1.866  0.0224 -0.0962 -0.1262
14349W        W57402  10.627  19.925   5.710 -0.0064  0.2134  0.0406
14350W        W57403  13.264  31.462   7.840 -0.0609 -0.0823  0.2339
14351W        W57404  30.679  31.068  26.142  0.0437 -0.0447  0.3603
14352W        W57405   1.600  22.099  25.983 -0.1217 -0.0269 -0.1874
14353W        W57406  20.520  25.811   9.896 -0.1626  0.3211  0.1182
14354W        W57407  29.289  19.890   1.728 -0.0697 -0.1623  0.0492
14355W        W57408   5.730  12.007  24.745  0.1127 -0.1061  0.1192
14356W        W57409  12.514  17.450   1.245  0.0384  0.0122  0.0572
14357W        W57410  16.410  21.310  24.552  0.0717 -0.0778  0.3257
14358W        W57411  17.777  25.488  25.234 -0.0631 -0.0052 -0.1504
14359W        W57412  21.909  17.335  23.941  0.1751 -0.0785  0.0847
14360W        W57413  29.265   4.427   7.510 -0.3774  0.3422 -0.3642
14361W        W57414  17.846   7.809   5.513 -0.1735 -0.0819 -0.1340
14362W        W57415  29.455  17.948  20.537 -0.1496  0.3162 -0.2966
14363W        W57416  19.679  19.035  26.699 -0.0957 -0.0406 -0.5605
14364W        W57417  17.031  14.130  24.535  0.0339 -0.2218 -0.0471
14365W        W57418  22.046  21.423  19.973 -0.0766 -0.3942 -0.2177
14366W        W57419  33.910  20.126  14.886 -0.0135 -0.2681 -0.0743
14367W        W57420  28.407  11.323  22.769  0.0572 -0.1887  0.2449
14368W        W57421   3.246  17.885  13.953 -0.4048 -0.0737 -0.0051
14369W        W57422  28.749  16.151   8.405 -0.1635  0.0259 -0.1330
14370W        W57423  27.926  25.351  10.293  0.0186  0.2425  0.0243
14371W        W57424  21.737  19.417  19.542 -0.3630 -0.1524  0.2879
14372W        W57425  19.898  22.426   7.326  0.2587  0.1706  0.2158
14373W        W57426  17.587  13.718  22.840  0.2761 -0.2330  0.4205
14374W        W57427  15.896  21.521  26.424 -0.0028  0.0361 -0.4052
14375W        W57428  14.662  21.422  28.586  0.0586  0.1168  0.1029
14376W        W57429  28.703  33.206   9.080 -0.0158  0.2417 -0.1199
14377W        W57430  16.254  30.008  21.394 -0.0671 -0.1402 -0.2361
14378W        W57431  23.780  11.347   3.499  0.2402 -0.2203  0.1379
14379W        W57432  13.331  15.656  10.271 -0.1351 -0.4162  0.1988
14380W        W57433  18.820   0.720   1.514  0.0831 -0.0931  0.1415
14381W        W57434  20.247  24.134   7.971 -0.1083 -0.1964  0.0428
14382W        W57435  26.254  11.446  27.444 -0.1600 -0.3009 -0.0708
14383W        W57436  20.511  24.233   2.164  0.1571  0.0456 -0.1480
14384W        W57437  33.229  13.426  18.040  0.2959 -0.3463 -0.2522
14385W        W57438  20.709  15.284  10.018  0.1949  0.0564  0.1090
14386W        W57439  10.626  24.351   7.598  0.0996  0.2052 -0.0690
14387W        W57440  17.084  23.847   1.438  0.0131 -0.1833  0.2556
14388W        W57441  20.359  13.197  13.913 -0.0327 -0.0989  0.3676
14389W        W57442   3.416  15.473  27.623 -0.2049  0.0041 -0.0320
14390W        W57443  13.271  22.757   9.366  0.0971 -0.1076 -0.4201
14391W        W57444  21.396   1.863  10.095  0.1545  0.2035 -0.0656
14392W        W57445  10.189  22.690   1.289  0.3626  0.2506  0.0955
14393W        W57446  24.138  23.400  28.660 -0.0538 -0.0420  0.0930
14394W        W57447   7.014  21.514   5.745  0.1211 -0.1941  0.0784
14395W        W57448   3.811  10.499   5.707 -0.0677  0.0301 -0.7466
14396W        W57449  18.183   4.233   8.304 -0.2117  0.0937 -0.2453
14397W        W57450  11.797  18.578   4.654 -0.0916  0.1964 -0.1502
14398W        W57451  13.280  15.894  27.989  0.1193 -0.0130  0.1963
14399W        W57452   5.874  27.610  28.821  0.0941  0.4207  0.4284
14400W        W57453   3.225   5.355   8.625 -0.2351 -0.1478 -0.0200
14401W        W57454  32.028  16.109   8.520 -0.1546  0.0664 -0.0286
14402W        W57455  17.924  16.451  24.998 -0.2561  0.0801  0.0525
14403W        W57456  25.112  24.514   4.198  0.0633 -0.0296 -0.1030
14404W        W57457   2.510  22.452   5.533 -0.1587  0.0570  0.2085
14405W        W57458  16.042  21.733   9.873 -0.2581 -0.3185 -0.0922
14406W        W57459  25.016  10.810   0.830  0.0632  0.1539 -0.1321
14407W        W57460  26.513  26.151  28.194 -0.0718  0.2958 -0.2294
14408W        W57461  15.092   8.997  25.063 -0.2369 -0.0852 -0.0938
14409W        W57462  34.354  22.726   3.557  0.0704  0.1869  0.1834
14410W        W57463   1.131  16.694   5.899 -0.0263  0.2489 -0.0301
14411W        W57464  18.192  14.417  26.730 -0.1196 -0.1077 -0.1464
14412W        W57465  26.673  24.253  26.339 -0.3046  0.0303  0.3713
14413W        W57466   4.596  12.878   4.942  0.1066  0.2174 -0.4072
14414W        W57467  26.095  21.319   3.682  0.0972 -0.0487 -0.0715
14415W        W57468  16.744   2.782   2.700 -0.2392 -0.0673  0.0783
14416W        W57469  21.699  18.100   0.215  0.1979 -0.0586  0.1192
14417W        W57470  15.656  22.136   9.930  0.2013  0.2523 -0.2148
14418W        W57471  24.968  17.534  21.684  0.1482 -0.1857  0.0243
14419W        W57472  10.777  21.369   8.885 -0.2141  0.0215 -0.0800
14420W        W57473  27.683  13.038   5.680 -0.1496  0.0753  0.0419
14421W        W57474  31.319   3.039   2.191  0.0217  0.1035  0.0815
14422W        W57475   8.130   2.010  20.189 -0.0123  0.1952  0.1494
14423W        W57476  28.889  24.710  24.200  0.0683  0.2825 -0.3375
14424W        W57477  14.237  17.121   9.801 -0.0776 -0.1446  0.1126
14425W        W57478  25.490  18.450   7.374  0.1173 -0.0744  0.0830
14426W        W57479  17.476  17.945   0.165  0.2850  0.0193  0.1398
14427W        W57480  27.989  23.799   4.558 -0.2885  0.0693  0.2399
14428W        W57481  15.119  15.861   9.279  0.2798  0.2475 -0.1706
14429W        W57482  25.454  11.547   3.986  0.0503 -0.0665  0.2221
14430W        W57483   5.147  24.224   8.598  0.0327 -0.2779  0.0325
14431W        W57484   0.905  20.577  14.557 -0.2221  0.2791  0.2237
14432W        W57485  24.394  13.063   0.690 -0.1751 -0.0583  0.0814
14433W        W57486  23.088  22.548   8.247  0.0002 -0.2079 -0.3436
14434W        W57487  12.441  21.071  10.480  0.1068 -0.1508 -0.1455
14435W        W57488   8.694  16.950  23.748 -0.5034 -0.0700 -0.1208
14436W        W57489  18.030  13.585  27.181  0.1329 -0.1358 -0.0722
14437W        W57490  25.264  26.099  26.357 -0.1912 -0.1537  0.0408
14438W        W57491  29.832  16.399   4.270 -0.1020  0.2164 -0.2899
14439W        W57492  28.200  28.521   2.954 -0.1418  0.2964 -0.0920
14440W        W57493   3.892  18.460   3.228  0.1922 -0.0747  0.0130
14441W        W57494  19.808  15.178  23.539 -0.1174 -0.0522  0.0873
14442W        W57495  21.473  22.902   8.759 -0.1416  0.1471  0.0480
14443W        W57496  25.066   8.340  26.002  0.0684 -0.0379  0.1396
14444W        W57497  30.119  30.371   1.522 -0.0562  0.0516  0.3644
14445W        W57498  16.631  23.436   2.360  0.0107  0.1379 -0.1649
14446W        W57499  32.872   4.829   3.081  0.2062 -0.0323  0.0387
14447W        W57500  20.287  16.867   3.592  0.3825 -0.0945 -0.1483
14448W        W57501  27.337  13.869   4.287  0.1255 -0.0953  0.1646
14449W        W57502  12.391  18.415   6.876  0.0161  0.0462 -0.0131
14450W        W57503  27.407  28.888  28.669  0.1734 -0.3049  0.2186
14451W        W57504  12.780  22.965   2.042  0.1427  0.1324  0.0119
14452W        W57505  30.187   9.878  10.274 -0.1295 -0.4342  0.0058
14453W        W57506   4.527  19.751   0.120 -0.2181 -0.0880  0.0081
14454W        W57507  24.941  12.519   6.244  0.1643  0.0831  0.3212
14455W        W57508  32.977  20.242   9.455  0.1746  0.0321 -0.0072
14456W        W57509  14.942  20.085   5.624 -0.1716  0.0315  0.2725
14457W        W57510  17.748   7.464   0.903  0.1852  0.0220  0.1404
14458W        W57511  33.060  28.734   6.866 -0.0487  0.0053 -0.3280
14459W        W57512  19.190   8.750   7.676 -0.3979  0.0349  0.0600
14460W        W57513  26.579  17.444   8.396  0.4192 -0.1170  0.0269
14461W        W57514  23.621  18.036   8.930  0.2268 -0.4772  0.0177
14462W        W57515  30.696  15.479  10.115 -0.0359 -0.0678 -0.0632
14463W        W57516  26.467  23.031  29.094  0.0811  0.0856  0.2899
14464W        W57517  12.748  34.581   8.527 -0.4403 -0.3530 -0.2356
14465W        W57518   3.333  23.525  18.231  0.3127  0.0336 -0.0622
14466W        W57519  16.039  25.412  26.745  0.0075 -0.0943 -0.0704
14467W        W57520  14.685  17.581   0.554  0.4896  0.0065 -0.2540
14468W        W57521  17.963  16.481   6.146 -0.2970 -0.0107 -0.0458
14469W        W57522  27.079  27.978   6.465  0.0946 -0.2731 -0.0759
14470W        W57523   3.822  32.095   1.351  0.0625  0.1476 -0.0625
14471W        W57524   0.102  27.077   0.272  0.1211 -0.2773  0.3938
14472W        W57525  15.613  20.676   9.061  0.2610 -0.2761 -0.2425
14473W        W57526  19.558  21.524   2.683 -0.0402  0.2738  0.5157
14474W        W57527  15.063  14.475   3.031 -0.0592 -0.0524 -0.2237
14475W        W57528  21.952  23.597   0.896 -0.0732 -0.1526  0.1428
14476W        W57529  28.331  12.574  26.920 -0.0708  0.1549  0.0361
14477W        W57530  19.918  28.649   2.817 -0.1659  0.0632  0.0100
14478W        W57531  18.237  13.055   1.001 -0.2144  0.3678  0.1638
14479W        W57532  14.376  26.926  29.032  0.2073 -0.1007 -0.0465
14480W        W57533  23.452  11.047  26.484 -0.1193  0.0070  0.0464
14481W        W57534  26.183  12.481   3.041  0.1068 -0.0324  0.0714
14482W        W57535  29.904  26.974  26.836 -0.0919 -0.0062 -0.0930
14483W        W57536  11.949  15.710   7.260  0.3612 -0.0849  0.0233
14484W        W57537  29.832  19.407   9.784  0.0720 -0.0160 -0.2395
14485W        W57538  18.728  15.724   9.441 -0.1647 -0.4611  0.2572
14486W        W57539  26.959  32.115  28.456 -0.1951  0.0898  0.3387
14487W        W57540  16.970   6.241   7.739  0.4524  0.1111  0.1334
14488W        W57541   7.124  21.609   2.489 -0.1851 -0.0846  0.4467
14489W        W57542  32.159  24.696  26.795  0.0092 -0.0436 -0.1352
14490W        W57543  27.324  10.389   3.234 -0.0550 -0.0077 -0.2806
14491W        W57544  25.489  24.166   4.421  0.2681 -0.0099  0.0332
14492W        W57545  19.742  20.258   0.407 -0.3997  0.0007 -0.1413
14493W        W57546  16.548   1.893   7.068  0.0230  0.4409 -0.0314
14494W        W57547  14.004  19.649   0.958  0.2207 -0.1775  0.0025
14495W        W57548  25.145   0.303  28.777  0.0241  0.0084 -0.1064
14496W        W57549  11.909  19.330   1.599 -0.0253 -0.1605  0.1435
14497W        W57550  11.476  30.733   6.972 -0.0381  0.1042  0.0100
14498W        W57551  17.431  31.019  24.907 -0.0709  0.0402  0.0936
14499W        W57552  11.112  27.051   2.688 -0.3681  0.1184 -0.0950
14500W        W57553  30.427  12.442   3.954 -0.2030 -0.3627  0.1369
14501W        W57554  14.361   1.108   6.528 -0.2609  0.5099 -0.0181
14502W        W57555  22.539  18.808   9.283 -0.0298  0.2798 -0.2345
14503W        W57556  30.660  19.923   6.159 -0.1272 -0.0374 -0.1159
14504W        W57557  12.716  21.201  24.086  0.2821 -0.0522  0.2616
14505W        W57558  23.089   5.472  26.869  0.1099  0.1577 -0.1895
14506W        W57559  12.792  18.350   1.400  0.2426  0.0200 -0.1955
14507W        W57560  19.259   0.370   1.002 -0.0159 -0.3485 -0.0966
14508W        W57561  28.384  24.021   4.161  0.3825 -0.1256 -0.0392
14509W        W57562  18.913  14.566   3.733 -0.1468 -0.2040 -0.2035
14510W        W57563  17.222   4.308  25.475 -0.1260  0.3176  0.2387
14511W        W57564  10.527  10.832   4.140 -0.1981 -0.1455 -0.1205
14512W        W57565  13.744  18.561   1.978 -0.2614 -0.1843 -0.1011
14513W        W57566  11.406   7.407   6.643  0.1614  0.0687  0.2011
14514W        W57567  30.341  15.115   6.403  0.0567  0.4220 -0.0628
14515W        W57568  16.232  10.938  10.266 -0.0267  0.2426 -0.0220
14516W        W57569  20.451  21.303   9.775 -0.0427  0.1833  0.1135
14517W        W57570  13.377  20.454   2.403  0.2446  0.2362 -0.1637
14518W        W57571  25.288  26.516   1.602 -0.3391 -0.1338  0.0317
14519W        W57572  25.242  24.729  27.635 -0.0210  0.3041  0.0256
14520W        W57573  25.556  14.208   2.065 -0.1638  0.1445 -0.3720
14521W        W57574  25.025  22.527   8.117  0.1243 -0.0170 -0.2015
14522W        W57575  23.276  22.329   2.613 -0.3769 -0.0567  0.1462
14523W        W57576  24.249  20.469   1.780  0.3000 -0.0112 -0.1444
14524W        W57577  11.356  13.987   2.482  0.3446  0.3098  0.1517
14525W        W57578   0.298   7.642  19.444  0.1336  0.0272  0.2253
14526W        W57579  27.058  21.362   8.300  0.0716  0.0667 -0.3879
14527W        W57580  10.907  23.456   3.842 -0.0812 -0.0926  0.1038
14528W        W57581  15.289  31.463   3.177  0.2563  0.2736 -0.1684
14529W        W57582  23.967  25.414   5.277 -0.1620 -0.1636 -0.0339
14530W        W57583  33.169   6.066  25.310 -0.0065 -0.0245  0.0335
14531W        W57584  22.650  23.141   1.796 -0.2445 -0.0471 -0.4404
14532W        W57585  33.486  21.810  21.837 -0.1054  0.0688 -0.2734
14533W        W57586  31.632   5.374   5.893  0.4510  0.1401  0.1131
14534W        W57587  22.864  23.046   7.005  0.2456 -0.3548  0.0761
14535W        W57588  22.885  29.840   3.871 -0.1340 -0.0711  0.2511
14536W        W57589  10.074  19.717   2.668  0.1186 -0.3184  0.0190
14537W        W57590  28.178  17.342   1.831  0.1498  0.3583  0.4343
14538W        W57591   9.403  23.724  20.566  0.2395  0.2246 -0.2717
14539W        W57592   7.233  15.763  23.342  0.1962 -0.0846  0.0753
14540W        W57593  18.396  31.016   6.959  0.1125  0.1019  0.5763
14541W        W57594   3.992   8.215   8.994 -0.1865 -0.0790 -0.2270
14542W        W57595  16.690  19.120   6.012 -0.1966 -0.4994  0.1868
14543W        W57596  23.231  12.301  18.855  0.1354  0.1837 -0.0756
14544W        W57597  34.199  24.789  22.955  0.0159  0.1722  0.0218
14545W        W57598  12.947  17.975   7.275  0.3691  0.0411  0.0693
14546W        W57599  10.487  16.584   9.766  0.1802  0.1336 -0.1488
14547W        W57600  34.056  29.688  25.859 -0.0401  0.1206  0.2353
14548W        W57601  28.059   0.406   7.310 -0.1625 -0.0199  0.1415
14549W        W57602  17.144  32.957   9.245  0.1487  0.0286  0.0609
14550W        W57603  25.565  11.576  21.513 -0.1215 -0.4240  0.0738
14551W        W57604  23.688  32.018  18.750  0.6718  0.1302 -0.0689
14552W        W57605  29.004  15.565   1.712 -0.1482 -0.3282 -0.1106
14553W        W57606  12.173  16.059   3.095 -0.1525  0.0669 -0.0311
14554W        W57607  20.370  20.602   7.899  0.0846 -0.0831 -0.3099
14555W        W57608   3.023  15.464   1.616 -0.4029  0.0353  0.4853
14556W        W57609  18.866  18.874   2.937  0.2418 -0.1074 -0.0946
14557W        W57610   2.633  26.946  26.128 -0.2747  0.0597  0.1144
14558W        W57611  18.058  18.889   4.643  0.0152  0.0938 -0.0111
14559W        W57612  12.934  21.172   4.499 -0.0259  0.0060 -0.0742
14560W        W57613   3.579  12.159   5.170  0.0048  0.1250 -0.0855
14561W        W57614  14.261  13.288  21.969  0.1783 -0.0533 -0.0535
14562W        W57615   7.018  19.381   1.992 -0.2709  0.3012  0.1973
14563W        W57616  18.489  21.765  28.917 -0.4878 -0.2316  0.2219
14564W        W57617  27.061  16.040   5.574  0.0151 -0.0870  0.0391
14565W        W57618   2.640  14.416   4.120 -0.0562 -0.2306  0.1939
14566W        W57619  26.100  11.730   5.957  0.0099  0.1752  0.0951
14567W        W57620  17.617  11.182  26.830  0.0913  0.1735  0.1429
14568W        W57621  18.619  20.901  27.565  0.0182  0.0236  0.0905
14569W        W57622  17.060  31.247   6.667 -0.2143 -0.1171  0.0688
14570W        W57623  28.749   3.004   1.758  0.2273 -0.0990 -0.3169
14571W        W57624   6.676  10.981   3.630 -0.1329 -0.2020 -0.2097
14572W        W57625  16.772  13.706   7.155 -0.2047 -0.2010 -0.0802
14573W        W57626  11.949   8.501  26.374 -0.0018  0.1154 -0.1855
14574W        W57627  13.797  18.048   1.308  0.1511  0.0742 -0.3086
14575W        W57628  25.033  32.047  10.191 -0.1286  0.5349  0.1641
14576W        W57629  14.989  28.461   5.054  0.0938  0.0464 -0.0350
14577W        W57630  17.960  28.269   2.790 -0.0395 -0.2085 -0.1709
14578W        W57631  14.089  10.183   8.978  0.0912 -0.0781  0.0443
14579W        W57632   3.754  21.852  10.056 -0.1987  0.2187 -0.1305
14580W        W57633   8.165  27.013   9.755 -0.4433 -0.1715  0.0969
14581W        W57634   6.918  17.126  23.761  0.0735 -0.0394  0.0475
14582W        W57635  13.807  24.828   3.224  0.0842  0.2316  0.5486
14583W        W57636  19.503  16.459  27.625 -0.0423  0.4552  0.0865
14584W        W57637  11.641  13.480  17.589 -0.1147 -0.1319 -0.0952
14585W        W57638  13.061  16.979   9.904 -0.0065 -0.1931  0.0787
14586W        W57639  12.770  20.052   8.507  0.1174 -0.1884 -0.0696
14587W        W57640  24.831  20.783  25.378  0.1651 -0.0878  0.0692
14588W        W57641  18.381   8.656   5.564 -0.0839  0.1003  0.1039
14589W        W57642   0.084  14.099   7.693  0.1189 -0.0136 -0.1083
14590W        W57643   7.869  16.778   3.856 -0.1182  0.1139 -0.3799
14591W        W57644  21.745  10.092   2.675 -0.0721  0.0072 -0.5064
14592W        W57645  19.328   3.548   8.325  0.1649 -0.0129 -0.1817
14593W        W57646  18.524   0.886   6.852  0.1833  0.1350 -0.1668
14594W        W57647  15.578  17.516   2.244  0.0250  0.4540 -0.0867
14595W        W57648  12.247  12.315  17.016  0.0672  0.1181 -0.2746
14596W        W57649  28.860  24.187   6.845  0.0401 -0.1067  0.2537
14597W        W57650   8.908   9.762   8.727  0.2596  0.0548 -0.1419
14598W        W57651  15.692   8.700   8.948  0.0470 -0.0022 -0.1301
14599W        W57652  17.207  19.024  12.518 -0.0422 -0.0212 -0.1687
14600W        W57653  19.097  16.552  22.965  0.0275  0.3858 -0.0467
14601W        W57654   0.244  22.099   5.803 -0.2175  0.3066 -0.2131
14602W        W57655  18.280   4.994   8.859 -0.0010 -0.1551 -0.2299
14603W        W57656   0.166  28.384   2.855  0.0024 -0.0705 -0.0512
14604W        W57657  12.121  23.888   9.325 -0.4199  0.1327  0.1431
14605W        W57658  14.081  20.799  28.513  0.1136  0.2287  0.1284
14606W        W57659   4.131  22.677   0.680  0.2921 -0.1092 -0.2315
14607W        W57660  29.612  18.110   2.571  0.0952  0.0112  0.2327
14608W        W57661  27.654  15.854   7.474  0.3297 -0.1861  0.3920
14609W        W57662   2.610  18.735   0.178  0.1444  0.2815 -0.1975
14610W        W57663  13.194  11.712   3.278  0.0291 -0.0839 -0.1564
14611W        W57664  13.247  21.548   8.357 -0.0843 -0.0772 -0.4005
14612W        W57665   0.058  33.403  28.036  0.1509  0.0340  0.1974
14613W        W57666  30.618  26.029   2.333 -0.1060 -0.0654 -0.0592
14614W        W57667  34.339  14.917   9.753  0.0055 -0.0689  0.1456
14615W        W57668  14.273  21.374  27.241 -0.1219 -0.0927  0.3360
14616W        W57669  23.124  16.673   9.471  0.0725 -0.1681 -0.2005
14617W        W57670  22.324  21.489   5.993  0.0887 -0.1587  0.1700
14618W        W57671  31.727  18.070   3.880 -0.1096 -0.1788  0.0056
14619W        W57672  14.823   8.381   5.433  0.3111 -0.0937  0.0152
14620W        W57673  20.977  30.638  29.075 -0.1910  0.1819  0.0204
14621W        W57674  11.914  15.409   9.183  0.0661  0.1588 -0.0340
14622W        W57675  26.648  27.170   6.842 -0.1504 -0.2511  0.2506
14623W        W57676  18.066  14.568   2.770  0.1491 -0.3138  0.1504
14624W        W57677  24.333  30.845   3.259 -0.0766  0.2965  0.1106
14625W        W57678  24.260  18.464  25.941  0.0996  0.1163  0.2674
14626W        W57679  17.533  14.060   9.056 -0.0098 -0.1364 -0.0746
14627W        W57680  12.147  25.978   9.628 -0.1857  0.4268  0.1508
14628W        W57681  30.332   7.516   0.554  0.2849  0.0581  0.1328
14629W        W57682  19.220  14.942   4.636 -0.3773 -0.0053  0.0651
14630W        W57683   7.718  33.624  25.779  0.1025 -0.0259 -0.0852
14631W        W57684  15.913  14.792  28.894  0.1810 -0.0102  0.0914
14632W        W57685  15.633  14.157  15.782 -0.1079 -0.0688 -0.4049
14633W        W57686  28.536  25.926   8.807 -0.1865  0.1904 -0.1781
14634W        W57687   9.708  22.843   1.724 -0.0508  0.1580 -0.4141
14635W        W57688  22.779  14.940   6.925 -0.1324 -0.1421  0.1451
14636W        W57689  10.023  10.411  29.112 -0.2766 -0.1342  0.1029
14637W        W57690  21.692  26.467   3.187  0.1991 -0.0357  0.1347
14638W        W57691  18.020  19.879   2.155 -0.2321 -0.1659  0.1669
14639W        W57692   8.696  33.823   9.930 -0.2878 -0.2652 -0.4078
14640W        W57693  29.864  26.781  15.158 -0.2426 -0.1053  0.0538
14641W        W57694  28.843  13.843   9.873  0.0319  0.0587 -0.2084
14642W        W57695   7.882  23.424   6.603  0.0040  0.1280  0.2013
14643W        W57696  19.661  20.559   3.373 -0.1299  0.2251 -0.4424
14644W        W57697  17.829  13.392   3.257  0.0423 -0.0790  0.1095
14645W        W57698  31.726   7.943   2.700  0.1202 -0.0322 -0.0652
14646W        W57699  18.621  22.426  26.667  0.0193 -0.1452 -0.2280
14647W        W57700  25.566   1.113   6.773 -0.0718 -0.0112 -0.0330
14648W        W57701  15.128   0.577  27.424  0.2625  0.0339 -0.1380
14649W        W57702  19.455  11.849   1.278  0.0915 -0.0065 -0.3843
14650W        W57703   6.735   8.890   1.015 -0.1372 -0.1279  0.1524
14651W        W57704  10.619  21.063   5.073  0.2547  0.0167  0.1658
14652W        W57705  22.005  16.353   8.094  0.0504  0.3094 -0.1961
14653W        W57706  11.723  26.195   5.819  0.0535 -0.0806 -0.1225
14654W        W57707  12.092   9.347   8.850 -0.0692  0.2303  0.0749
14655W        W57708   0.134  30.600  28.375  0.0572  0.1617  0.0333
14656W        W57709  25.982   1.327  10.424 -0.0854  0.1082  0.2322
14657W        W57710  30.239  10.614   1.927 -0.2404  0.1493  0.0741
14658W        W57711   1.864  26.879  23.290 -0.1663 -0.1113 -0.0437
14659W        W57712  28.930  13.366  18.000 -0.3006  0.2817  0.1495
14660W        W57713  28.802   1.326  28.471  0.3584  0.1633  0.3045
14661W        W57714   6.578  15.055   4.471  0.2204  0.2524  0.0651
14662W        W57715  12.433  29.788   5.905 -0.3673  0.1062 -0.0547
14663W        W57716  15.288   3.917  26.430 -0.0452 -0.4145  0.0222
14664W        W57717  11.090  26.169   1.465 -0.1961 -0.1311 -0.2949
14665W        W57718  15.102  12.978   4.067 -0.0028  0.1185 -0.3558
14666W        W57719  26.542  19.895  24.402  0.0584  0.1018  0.0170
14667W        W57720  16.751   9.217   2.542  0.1129 -0.0752  0.1803
14668W        W57721  23.758  25.286  28.088  0.4041  0.0194 -0.2127
14669W        W57722  25.800  17.374   3.699 -0.1394  0.5280 -0.1868
14670W        W57723   7.835  23.076   0.915  0.2183 -0.0282  0.1659
14671W        W57724  10.894   6.735   8.835  0.1597 -0.0872  0.0171
14672W        W57725  27.820  17.961   4.436  0.0109 -0.3640  0.1360
14673W        W57726  24.248  10.374   8.901  0.2058  0.1339  0.0569
14674W        W57727   8.096  26.990   4.339 -0.2431  0.2222 -0.2930
14675W        W57728   9.808  17.259  29.126  0.2733 -0.3777 -0.1011
14676W        W57729   0.997  12.297   4.941  0.2525  0.0941 -0.2696
14677W        W57730  29.188  19.531   7.856 -0.1007 -0.2410  0.2761
14678W        W57731  18.921  23.907   5.997  0.4087  0.1766  0.1546
14679W        W57732  19.680  17.598   1.133  0.1842  0.3064 -0.0015
14680W        W57733  10.348  18.641   9.652  0.0626  0.0868 -0.2513
14681W        W57734   4.925  27.107  24.584  0.1806  0.0509  0.1197
14682W        W57735  29.165  27.824  28.199 -0.2064  0.3331  0.2470
14683W        W57736  16.926  16.718   1.274  0.0125  0.1238 -0.0106
14684W        W57737   1.922  26.447  22.781 -0.1629 -0.0929 -0.1549
14685W        W57738   8.485   9.752  15.078  0.0625 -0.0651 -0.0786
14686W        W57739  22.373  14.321   3.300  0.0491  0.0371 -0.7220
14687W        W57740  20.030  21.154   5.081  0.0861 -0.1194  0.2595
14688W        W57741  11.403   5.313  28.387 -0.0359 -0.1163 -0.0092
14689W        W57742  21.465  20.373  26.356 -0.0353  0.1463 -0.1088
14690W        W57743  18.944  19.521  25.323 -0.2427  0.1824 -0.0181
14691W        W57744  22.815  18.625   7.142  0.0774 -0.0855 -0.3758
14692W        W57745  13.227  32.432   6.749  0.2037  0.1424 -0.2197
14693W        W57746  15.742  22.335  17.528  0.0698 -0.2077 -0.0001
14694W        W57747  15.696  13.119   4.564  0.0632  0.2128  0.0092
14695W        W57748  22.237  23.348   4.217 -0.0704  0.2547 -0.3195
14696W        W57749  23.466  28.014   4.315  0.0629 -0.0825 -0.0828
14697W        W57750  13.628  20.043   7.372  0.1666 -0.1114 -0.3566
14698W        W57751   6.870  30.239   5.570 -0.1033  0.0450  0.0384
14699W        W57752   7.349  18.876   5.793  0.0604  0.0331  0.2779
14700W        W57753  12.743  22.005   7.850 -0.0162  0.3465  0.0753
14701W        W57754  31.051  16.713  15.636 -0.2678 -0.1098 -0.0230
14702W        W57755  13.225  28.705   7.361 -0.1675  0.1022 -0.1701
14703W        W57756  24.528  24.856   0.669  0.1593  0.3361 -0.0619
14704W        W57757  27.056  10.208   6.248  0.1046  0.2712  0.1582
14705W        W57758  21.996   0.281   7.386 -0.0456 -0.2920  0.2779
14706W        W57759   7.365  11.607  24.014  0.1879 -0.0989  0.1435
14707W        W57760  15.577  16.565  25.031 -0.3172 -0.1747 -0.2235
14708W        W57761  30.058  30.451  17.412 -0.2948  0.1227  0.2331
14709W        W57762  11.578  15.900   1.395  0.0228 -0.1311 -0.4736
14710W        W57763  20.359   6.387   0.987  0.3306  0.0764  0.0874
14711W        W57764   6.239  10.259   3.417  0.2743 -0.1826  0.0182
14712W        W57765  25.140  15.096   6.874  0.0775 -0.1010  0.1929
14713W        W57766   7.873  21.095   5.984  0.0981 -0.2087 -0.4032
14714W        W57767  27.926  22.743   5.508 -0.1658  0.0573 -0.0837
14715W        W57768  15.957   0.610   2.401 -0.3388  0.1650 -0.0677
14716W        W57769  29.463   1.333   8.099 -0.1135 -0.3002 -0.0188
14717W        W57770  21.949  12.969  29.147 -0.2622  0.0409 -0.1812
14718W        W57771  26.034   7.012  14.504  0.1493  0.0819  0.1742
14719W        W57772  28.463  25.075  24.038  0.0987 -0.0324 -0.0519
14720W        W57773  22.112  17.805  19.933  0.0817 -0.3196  0.5017
14721W        W57774   5.263  27.255  26.370  0.0879 -0.0718 -0.0625
14722W        W57775  27.808  12.132   5.167  0.1490  0.1109  0.0945
14723W        W57776  16.376  22.499  26.281 -0.0538  0.1549 -0.2919
14724W        W57777  21.134  17.125   6.223  0.0317 -0.2101  0.1477
14725W        W57778  24.118  15.210  18.513 -0.1746 -0.2134  0.3302
14726W        W57779  20.090  24.655   4.141  0.2102  0.1078  0.0995
14727W        W57780  10.430  13.447   2.844  0.0295  0.2410  0.2261
14728W        W57781   0.308   6.106  27.432  0.2242 -0.0097  0.2774
14729W        W57782  20.371  18.422   6.089  0.3004  0.1508  0.5037
14730W        W57783  15.690  15.220   0.488 -0.1428 -0.1378 -0.0694
14731W        W57784  22.591  20.907   2.529  0.2295 -0.3169 -0.0205
14732W        W57785   7.955  25.315   6.483 -0.1128  0.0864  0.1288
14733W        W57786  19.129  16.822   8.397  0.0941  0.0481 -0.1614
14734W        W57787  26.242  19.882  22.734 -0.2294 -0.1340 -0.1617
14735W        W57788  22.841  26.613  25.195  0.1478 -0.1052 -0.3833
14736W        W57789  14.513  32.307  28.135 -0.0464  0.1539 -0.2459
14737W        W57790   8.678  15.443  28.492  0.2652 -0.0874  0.0040
14738W        W57791  28.021  26.585   4.700  0.1782  0.0595 -0.0659
14739W        W57792  24.263  25.431   4.511 -0.0568  0.2040  0.2298
14740W        W57793   3.969  28.335  27.339  0.0958 -0.1785 -0.1259
14741W        W57794  26.878  10.936   0.225 -0.2977  0.2103  0.2605
14742W        W57795  22.044  21.614   7.676  0.3275 -0.0930 -0.1151
14743W        W57796   4.174  23.712  22.508 -0.0867  0.2671 -0.2476
14744W        W57797  18.980  18.328   2.987 -0.0521 -0.2345  0.1906
14745W        W57798  20.627  25.736   4.520  0.0917 -0.2586 -0.0624
14746W        W57799  16.582  24.549   5.579  0.1012  0.0450  0.4246
14747W        W57800  22.448  27.074   7.316  0.4270 -0.2971 -0.0020
14748W        W57801  18.970  23.181   6.611 -0.1315 -0.1114  0.0844
14749W        W57802  24.267  15.548   4.581  0.2745  0.1292  0.0903
14750W        W57803  16.569  32.831  28.359  0.0580  0.1780 -0.0970
14751W        W57804  20.710  12.538   3.880  0.1449 -0.1864 -0.2787
14752W        W57805  10.418  19.035  27.476 -0.0064 -0.0236 -0.0955
14753W        W57806   4.171  23.880   6.078  0.1580  0.0258 -0.1015
14754W        W57807   6.880  14.635   7.995  0.0593 -0.2140  0.1191
14755W        W57808  31.353  18.942   8.431 -0.1958 -0.0615  0.0953
14756W        W57809  13.688   7.368  18.638  0.1879  0.0557 -0.4221
14757W        W57810  16.439  12.524   2.950 -0.1501  0.0093 -0.0795
14758W        W57811  33.336  11.508   2.780 -0.1375 -0.1668  0.1253
14759W        W57812   1.683  22.823   3.953 -0.0576 -0.0364  0.4337
14760W        W57813   7.611  21.499   2.315 -0.0750 -0.1386  0.2386
14761W        W57814  11.652  16.657   3.567  0.2432  0.0772  0.1951
14762W        W57815  13.879  20.288   5.356  0.1077  0.1551  0.3196
14763W        W57816   8.160  16.577  26.669  0.2222 -0.1304 -0.1122
14764W        W57817  20.287  15.709   1.645  0.0750 -0.0097  0.0752
14765W        W57818  19.894  23.381   3.618 -0.0583  0.0947  0.2471
14766W        W57819  17.663   0.811   5.232 -0.0626  0.0829 -0.2010
14767W        W57820  10.735  13.923  11.405  0.0975 -0.3157 -0.1282
14768W        W57821  21.798  21.176   3.191 -0.1641 -0.0520  0.0581
14769W        W57822  23.758   7.457   1.630 -0.1190 -0.1075 -0.0643
14770W        W57823  24.562   0.822  10.593  0.1774  0.3817 -0.4070
14771W        W57824  25.927   6.682  23.392  0.2772 -0.0276  0.2290
14772W        W57825  15.045  10.828   7.783  0.0897  0.1583  0.0530
14773W        W57826  22.668   0.222  29.051  0.0343  0.0710 -0.1685
14774W        W57827  26.231  19.933   3.095  0.0901  0.0524 -0.1686
14775W        W57828  10.206  11.008   8.105  0.0477 -0.1822 -0.0035
14776W        W57829  21.609   1.000   3.364  0.3216 -0.2789  0.2195
14777W        W57830  17.728  22.154   3.300 -0.0501  0.1397  0.2604
14778W        W57831  24.688  21.295  24.986 -0.3484 -0.1590  0.0627
14779W        W57832  19.616  31.312  23.621 -0.0165 -0.1214  0.1650
14780W        W57833  27.635  30.153   5.072 -0.3476 -0.0878  0.0144
14781W        W57834  20.899  17.571   6.307  0.1113 -0.1764 -0.1110
14782W        W57835  33.503   5.396   9.346  0.1900  0.1877  0.0547
14783W        W57836  20.688  15.464   3.620 -0.0546  0.3360  0.1034
14784W        W57837   3.774  22.416   5.765 -0.3773  0.1625 -0.2062
14785W        W57838  21.707  20.086   2.821 -0.0445  0.0766 -0.1427
14786W        W57839  33.419   8.335   2.775 -0.0644 -0.0459  0.2440
14787W        W57840   4.889   7.137   3.985  0.0927  0.1039  0.0738
14788W        W57841  20.374  19.005   7.242 -0.0631  0.1931  0.0996
14789W        W57842  17.345  15.626  26.349  0.0848  0.5377  0.1073
14790W        W57843  28.997  15.726   3.895 -0.2471 -0.2827  0.3503
14791W        W57844  25.006  24.444   6.055  0.0511  0.1249  0.0269
14792W        W57845  23.024  13.399  17.168 -0.0567 -0.0795  0.1148
14793W        W57846  13.306  22.822   8.726  0.1731 -0.3458  0.1651
14794W        W57847   3.852   3.734   2.073 -0.1520 -0.1087  0.0505
14795W        W57848  13.387  24.271  23.177  0.0081  0.0158  0.1009
14796W        W57849  24.098  16.451  24.430 -0.0968  0.0050 -0.1430
14797W        W57850  32.971   0.505  10.427 -0.0031  0.0408  0.1737
14798W        W57851  29.917  29.890   8.900  0.2425 -0.0175 -0.4048
14799W        W57852  23.100  16.653  17.716  0.2676 -0.0866 -0.0818
14800W        W57853   6.978  20.229   4.759  0.3237  0.0312  0.2098
14801W        W57854  22.000  23.698   0.003  0.0362  0.1294 -0.2505
14802W        W57855   5.295  27.206   3.888 -0.3585  0.0482 -0.1747
14803W        W57856   6.891  15.403   0.423 -0.2290  0.0740 -0.0311
14804W        W57857  20.340  14.955   5.437 -0.3420  0.0514 -0.2072
14805W        W57858  24.315  21.906  16.467  0.0094  0.2357 -0.2028
14806W        W57859  20.561  18.962   7.827  0.0443 -0.0152 -0.3066
14807W        W57860  12.807  19.468   7.640  0.0252  0.1155 -0.5120
14808W        W57861   9.854  26.568   7.396 -0.0412  0.1180  0.1552
14809W        W57862  22.164  21.948   8.435 -0.1159 -0.0492  0.2303
14810W        W57863  34.378  24.363   8.750  0.1121 -0.3466 -0.4105
14811W        W57864  17.104  22.801  24.197  0.2157 -0.1033 -0.1375
14812W        W57865  18.664   9.747   6.778  0.0730 -0.3820  0.1202
14813W        W57866  19.680  14.546  13.247  0.1554 -0.2038  0.0785
14814W        W57867   9.148   1.426   6.052 -0.0022  0.1572 -0.3732
14815W        W57868  17.412  18.864   0.188  0.1937 -0.0151 -0.2191
14816W        W57869  14.232  20.479   1.869 -0.1587 -0.0061  0.2615
14817W        W57870  17.460  14.869   1.007  0.2370  0.1003  0.2925
14818W        W57871   9.942  22.020   0.645  0.0512 -0.0231  0.3303
14819W        W57872  13.274  20.463   4.611  0.3427  0.1824 -0.2203
14820W        W57873  10.381  30.849   7.529  0.0129 -0.1070  0.0528
14821W        W57874  20.207  20.871   2.629  0.0541 -0.2906  0.0768
14822W        W57875  22.451  23.370   6.980  0.3340  0.0312 -0.0190
14823W        W57876   9.734  20.288  20.386 -0.1504  0.3757 -0.1081
14824W        W57877  28.174  31.171   5.736  0.2066 -0.3802  0.0093
14825W        W57878  13.172  21.789   5.204  0.0066  0.0195 -0.0407
14826W        W57879  30.044  20.979   4.275  0.1980 -0.1762  0.1585
14827W        W57880  12.830   9.859   9.270  0.2284 -0.0892 -0.3376
14828W        W57881  11.129  27.592  19.794 -0.3558  0.1605  0.1212
14829W        W57882   4.558  18.305   2.498  0.1200  0.2102 -0.0795
14830W        W57883   5.630  11.069   8.240 -0.1271 -0.1960 -0.1963
14831W        W57884  21.253  14.814   5.888 -0.1428 -0.1287 -0.0781
14832W        W57885  10.768  19.488  10.384 -0.1753 -0.1944  0.1298
14833W        W57886  19.892  13.192  24.443  0.2382  0.2313  0.0255
14834W        W57887   2.282  13.142  25.840 -0.1096  0.0093 -0.0574
14835W        W57888  20.933  19.316  25.062 -0.2829  0.2403 -0.1942
14836W        W57889  20.334  25.446   8.305 -0.0063  0.1183  0.2666
14837W        W57890  20.855  11.573  23.694  0.2052  0.0319 -0.0962
14838W        W57891  19.657  20.055  29.127 -0.2726 -0.4405 -0.0413
14839W        W57892  31.972  20.426   1.777  0.0802 -0.1627 -0.0290
14840W        W57893   2.862   7.898   9.677  0.2759 -0.0547 -0.2200
14841W        W57894  25.763  21.863  25.836  0.1983 -0.3169  0.1461
14842W        W57895  26.916  22.005   2.760  0.1338  0.0811  0.1532
14843W        W57896  16.227  18.552  27.335  0.2665 -0.0691  0.6214
14844W        W57897  14.880  21.753   9.917 -0.0951 -0.3093 -0.2904
14845W        W57898  19.029  11.014  20.952 -0.0234  0.4630 -0.0743
14846W        W57899  34.070  14.199   9.096  0.0159 -0.0686  0.1894
14847W        W57900  29.490  11.551   7.938 -0.0576  0.0880 -0.1800
14848W        W57901  19.247   2.034  28.150 -0.1454 -0.2697  0.0436
14849W        W57902  13.495   5.762   9.943  0.2518 -0.2084 -0.2859
14850W        W57903   9.747  21.017   7.653 -0.0807 -0.0231  0.0295
14851W        W57904  19.516   9.567   6.164 -0.0581 -0.1003  0.4283
14852W        W57905   8.346  28.122   1.752  0.0511 -0.2781 -0.0681
14853W        W57906  32.176  22.809   6.633 -0.0876  0.4672  0.0751
14854W        W57907  20.413  28.610  10.560  0.1692 -0.2014  0.3541
14855W        W57908  28.033  27.787  21.082  0.0341 -0.1009  0.3043
14856W        W57909   5.895  14.786  24.731 -0.0250 -0.2646 -0.2599
14857W        W57910  16.708  21.706   5.783 -0.2220  0.2776  0.2658
14858W        W57911  14.223  25.165  20.170  0.0023  0.1869  0.1998
14859W        W57912   5.773  21.086  28.877 -0.2477 -0.1345  0.0390
14860W        W57913  18.402  25.159  17.175  0.0142  0.1017  0.2153
14861W        W57914  11.499  19.277   3.824 -0.1852  0.1264  0.1885
14862W        W57915  10.240  17.081   8.919 -0.4034  0.3650 -0.0518
14863W        W57916   3.412  27.568  29.094  0.1807 -0.1949  0.0688
14864W        W57917  26.077  12.497   7.778 -0.4116  0.0393 -0.1457
14865W        W57918   9.023  23.849   2.019  0.0523 -0.2976 -0.0858
14866W        W57919  19.796  22.916   7.940 -0.3432 -0.1908 -0.0507
14867W        W57920  11.320  24.817   7.738  0.3177 -0.1420 -0.1604
14868W        W57921  13.317  11.163   4.400 -0.1475 -0.0984 -0.0441
14869W        W57922  11.060  19.269   1.750  0.0389 -0.0418 -0.0912
14870W        W57923  17.363  24.588  28.235  0.0307  0.2462 -0.1068
14871W        W57924  18.412  13.255  25.579 -0.1813  0.0838 -0.1703
14872W        W57925  20.499  31.556   8.451 -0.1061  0.2373 -0.2279
14873W        W57926  27.897  25.894   9.780 -0.2171 -0.2399  0.2478
14874W        W57927  13.597  21.096  27.845 -0.0474 -0.0480  0.1349
14875W        W57928  20.998  27.465   3.876  0.1336  0.1550  0.3658
14876W        W57929  17.929  27.997  20.872  0.2401  0.3753 -0.1486
14877W        W57930  18.581  29.154   8.841  0.1617  0.2359  0.0038
14878W        W57931   9.526  22.951   8.305 -0.1328 -0.0383  0.1611
14879W        W57932  28.037  25.971   1.814 -0.2992 -0.1845  0.0085
14880W        W57933  22.289  19.471  28.905 -0.0936 -0.0341  0.2899
14881W        W57934   0.776  32.127   7.457  0.0050  0.2217  0.1581
14882W        W57935   2.370   0.726  28.150  0.1182 -0.1584 -0.0594
14883W        W57936  31.914  26.628   4.651 -0.1398  0.2848 -0.2740
14884W        W57937  15.118  23.731  28.165 -0.0144  0.0112  0.0878
14885W        W57938   2.149  17.086  28.054  0.0315 -0.0118  0.2469
14886W        W57939  13.833  24.515  26.701 -0.2925 -0.1941 -0.0675
14887W        W57940  23.817  14.948   9.492  0.2485 -0.0457 -0.0675
14888W        W57941  14.213  18.338   6.757 -0.4413 -0.2118 -0.0659
14889W        W57942   4.349  15.874   4.934 -0.2546  0.1111  0.1163
14890W        W57943  20.854  17.520   9.158 -0.0092 -0.3585 -0.1847
14891W        W57944  20.390  17.394   6.205  0.0288 -0.6340 -0.0135
14892W        W57945  13.552   6.325   6.813 -0.1715  0.1340 -0.3142
14893W        W57946  22.674  17.913   0.228  0.0155 -0.1145 -0.1392
14894W        W57947   7.540  27.902   5.599  0.0633  0.2137  0.0226
14895W        W57948  12.508  14.758  24.012 -0.0205  0.0074 -0.1112
14896W        W57949   5.184   3.624   8.313 -0.1887 -0.0456 -0.3949
14897W        W57950  16.806  18.065   6.944  0.0736 -0.2242 -0.2151
14898W        W57951   9.541  33.762   1.711  0.0234 -0.0121  0.1521
14899W        W57952  19.869  19.615   1.168 -0.0715  0.1017  0.2485
14900W        W57953  14.969  13.941   5.056 -0.0299  0.5210 -0.0056
14901W        W57954  28.738  18.405   1.915 -0.2881 -0.1894  0.0663
14902W        W57955  23.154  18.533  28.769 -0.1458  0.0879 -0.3845
14903W        W57956  17.224  22.485   8.422 -0.4004 -0.2382  0.0093
14904W        W57957  19.509  20.208   8.954 -0.1545  0.0922 -0.2427
14905W        W57958  22.611   5.778  27.104  0.3284 -0.0153 -0.0218
14906W        W57959  33.976  10.534   1.532  0.0003  0.1242 -0.2632
14907W        W57960  21.596  10.091   0.333 -0.0870 -0.1763 -0.0543
14908W        W57961  27.261  23.377   8.062 -0.1044 -0.0612 -0.2714
14909W        W57962  20.495  25.518  28.347  0.0578  0.0829  0.1932
14910W        W57963  16.363  14.760  23.068 -0.0003 -0.0912 -0.0835
14911W        W57964   5.952  17.800   5.799  0.0749  0.1680  0.0455
14912W        W57965  28.677  12.712  28.645  0.0170  0.2943  0.1146
14913W        W57966  19.752  24.267   7.643 -0.0028  0.0692 -0.2652
14914W        W57967  15.835  24.446  28.376 -0.1410  0.1918  0.5085
14915W        W57968  14.823  19.663  26.165 -0.1507  0.2138  0.1387
14916W        W57969   3.629  25.827   6.159  0.0870  0.0033 -0.2136
14917W        W57970  20.795   2.387  23.615  0.1338  0.1987 -0.1146
14918W        W57971  32.969  18.559   6.655  0.0537  0.0212  0.0309
14919W        W57972  27.232  14.826   8.704 -0.1889  0.0723  0.2033
14920W        W57973  22.553  31.443   1.365  0.1746  0.0158  0.2370
14921W        W57974  20.261  19.606   8.583 -0.0054  0.0335 -0.1242
14922W        W57975  17.074  17.711   5.194  0.0857  0.1417 -0.2447
14923W        W57976  21.252  10.369   6.139 -0.1455 -0.1006 -0.0914
14924W        W57977  18.686   5.404   3.728 -0.1863  0.0228 -0.0931
14925W        W57978  16.484  25.665   4.768 -0.1269  0.1056 -0.1676
14926W        W57979  30.090  22.111   6.323  0.1336 -0.0603  0.0601
14927W        W57980  12.754   8.890   5.161 -0.0580 -0.0806  0.1155
14928W        W57981  20.467  10.375   5.929  0.1809 -0.1703 -0.1629
14929W        W57982  19.495  26.206   5.408 -0.1666 -0.1976  0.1519
14930W        W57983  25.686   3.314   7.122  0.1875  0.1293  0.2828
14931W        W57984  13.044  15.048   5.795 -0.3533 -0.1446  0.2184
14932W        W57985   5.969  14.196  16.688  0.1453 -0.3613  0.0877
14933W        W57986  12.988  14.802  28.850  0.1406 -0.3227  0.1092
14934W        W57987  12.205  18.487   1.428  0.1744  0.2683  0.0444
14935W        W57988  26.590  11.718   5.784 -0.3285 -0.1483 -0.1002
14936W        W57989  30.471  33.699   7.795 -0.2316 -0.1835 -0.2238
14937W        W57990  29.334  32.823   7.699 -0.0170  0.1676  0.0560
14938W        W57991  25.641  20.235   8.661 -0.2761  0.1660  0.0362
14939W        W57992  21.508  25.102   5.513 -0.0561 -0.0396  0.2780
14940W        W57993  17.948  20.005   5.283  0.1548 -0.2400 -0.1084
14941W        W57994  14.073  19.880   8.736 -0.1429 -0.3994  0.2672
14942W        W57995  23.858  11.383   2.483  0.0383 -0.0176  0.0118
14943W        W57996  28.608  17.951   5.359 -0.2643 -0.0368 -0.5329
14944W        W57997  28.774  27.827  28.459  0.1705  0.1953  0.1875
14945W        W57998   2.437  28.387   8.942 -0.1533 -0.1214 -0.1556
14946W        W57999  19.955   5.006   8.953 -0.0858  0.0391  0.0495
14947W        W58000  32.700  12.504   9.208  0.0768  0.0622 -0.0123
14948W        W58001  26.745  31.586   9.575 -0.0008 -0.1635  0.0212
14949W        W58002  13.203  14.794   3.037  0.2199  0.1246  0.0016
14950W        W58003  29.904   4.024   7.923  0.1388  0.4688  0.0144
14951W        W58004  18.191  15.088   9.531  0.6801 -0.2123 -0.0455
14952W        W58005  25.686  27.977  28.927 -0.1309 -0.0033  0.5227
14953W        W58006  19.135  11.064   9.709 -0.3096 -0.1435  0.2369
14954W        W58007  16.942  19.858   7.599 -0.0334 -0.3385 -0.2908
14955W        W58008  10.825  18.713   3.957 -0.0508  0.0424 -0.4329
14956W        W58009  18.609  16.133   9.121  0.1440  0.0422 -0.2902
14957W        W58010  18.965  19.421   1.703 -0.2028 -0.1177 -0.0155
14958W        W58011  27.501  30.912   8.666 -0.0998  0.2455 -0.0684
14959W        W58012  12.580   8.510   5.888  0.2330 -0.0916 -0.2666
14960W        W58013  14.198  17.164   5.900 -0.1376 -0.0179 -0.3167
14961W        W58014   0.203  24.981   6.861  0.1057  0.4523  0.1291
14962W        W58015  13.461  30.284  28.237  0.3548 -0.2485  0.0449
14963W        W58016  32.718  21.795   4.511 -0.0046  0.1036  0.1788
14964W        W58017  14.515   4.095  18.548  0.1268 -0.2623  0.2546
14965W        W58018  27.305  13.619   1.523  0.2419  0.0549  0.3846
14966W        W58019  18.237  19.680  27.251  0.0161 -0.1142  0.1828
14967W        W58020  23.467  21.280  23.501 -0.0723  0.3658  0.2684
14968W        W58021  17.589  25.554   2.746 -0.0808 -0.1330 -0.1508
14969W        W58022  24.457  21.154   3.558 -0.1394  0.3985  0.0374
14970W        W58023  21.967  19.396   2.323 -0.1462 -0.2723 -0.0095
14971W        W58024  11.937  19.443  24.725  0.2995  0.0946  0.1070
14972W        W58025  30.292  16.583  20.452 -0.1614  0.0971 -0.0682
14973W        W58026  30.586   8.845   9.083  0.1677  0.2533 -0.2585
14974W        W58027  24.872   1.726   5.809  0.1097 -0.1470 -0.0207
14975W        W58028  15.281  10.993   8.188 -0.0846  0.2532 -0.2019
14976W        W58029  15.990  16.058  26.474  0.0603 -0.3289 -0.1134
14977W        W58030  21.001   8.963   4.879  0.0761  0.3733 -0.0518
14978W        W58031   9.260   6.308  28.379 -0.0275 -0.1263  0.0167
14979W        W58032   8.339  20.183   3.018 -0.0130 -0.3783  0.1327
14980W        W58033  25.363  16.563   3.609  0.0916 -0.1955 -0.1659
14981W        W58034  13.275   9.402   4.512 -0.2487 -0.1264 -0.0312
14982W        W58035  23.527   4.751   9.118  0.2657 -0.1414  0.2510
14983W        W58036  13.405   9.425   6.747 -0.0023  0.0183 -0.2372
14984W        W58037  13.192  15.170  10.479  0.1110  0.0491 -0.0544
14985W        W58038  25.321  29.512   2.412 -0.0783  0.0604  0.0396
14986W        W58039  11.338  16.321  21.412  0.0903  0.1454 -0.0738
14987W        W58040  26.742  12.575  17.340  0.3488  0.0075  0.0540
14988W        W58041  31.919  13.841   7.853 -0.1088 -0.2337  0.2799
14989W        W58042  20.528  28.908   9.992 -0.4844 -0.2259 -0.1690
14990W        W58043  16.207  21.586  26.060  0.1498 -0.1185 -0.0426
14991W        W58044  27.965  19.880   9.656  0.2051 -0.0663 -0.1317
14992W        W58045  15.689  23.744   3.967 -0.1450 -0.0659 -0.1870
14993W        W58046  33.517   2.529   8.634 -0.1501 -0.2353  0.3161
14994W        W58047  12.936  21.418  26.884  0.1045  0.3461 -0.1685
14995W        W58048  31.773   3.093   9.430  0.0015 -0.2337  0.0040
14996W        W58049   0.137  28.574   4.311 -0.0052 -0.0972 -0.0714
14997W        W58050  32.093  27.656  27.640 -0.4374  0.1067 -0.0952
14998W        W58051  21.530  23.146   1.046  0.1054  0.0411  0.0159
14999W        W58052  15.622   5.999   3.373 -0.1013 -0.1882  0.0864
15000W        W58053   2.492   8.140   9.330  0.1119  0.2252 -0.0832
15001W        W58054  24.142  29.748   9.073 -0.1754 -0.2181 -0.1178
15002W        W58055   7.309  23.023   7.064  0.0756  0.0005 -0.2453
15003W        W58056   2.330  10.688   4.294  0.2136  0.1503 -0.1425
15004W        W58057  24.715   1.319  28.606  0.1443 -0.0062 -0.1302
15005W        W58058  13.701  23.196   5.675  0.0271 -0.1398 -0.4473
15006W        W58059  12.298  18.665  24.946 -0.3269  0.1513 -0.0813
15007W        W58060  19.120  30.496  23.597 -0.0278 -0.2087 -0.0977
15008W        W58061  17.670  17.974  25.272 -0.0664 -0.0589  0.1149
15009W        W58062  24.871  22.329   4.508  0.0886  0.1161 -0.1467
15010W        W58063   9.700  15.185   6.913 -0.2545 -0.2300  0.2614
15011W        W58064  23.046  32.755  22.020 -0.0202 -0.3390 -0.3548
15012W        W58065  11.135  31.128  18.813  0.0704 -0.0041  0.1752
15013W        W58066  27.313  23.131   9.883 -0.0428  0.3310 -0.1131
15014W        W58067  14.834   1.596   4.004 -0.0937  0.4396 -0.1621
15015W        W58068   8.929  16.701   1.725  0.1633  0.1008 -0.1155
15016W        W58069  32.051  25.093  25.324 -0.0187 -0.0993 -0.1979
15017W        W58070  20.057   4.575  26.109  0.2641 -0.2603  0.0719
15018W        W58071  11.369  15.976  25.221 -0.0284  0.0884 -0.3194
15019W        W58072  12.216  21.867  10.038 -0.1575  0.2744 -0.1166
15020W        W58073  26.326  26.248  21.237 -0.1565 -0.1225  0.1340
15021W        W58074  14.634  25.988   3.355  0.1732 -0.3137 -0.1525
15022W        W58075   4.347  29.088   1.409 -0.0938  0.2842 -0.0989
15023W        W58076   6.577  12.695   4.488  0.0447  0.1597  0.1270
15024W        W58077  18.084  28.467   8.278  0.0990 -0.0704  0.0932
15025W        W58078  22.626  29.604   4.252 -0.1888  0.2573  0.0695
15026W        W58079   1.156   5.600  15.970  0.2026  0.2852 -0.0602
15027W        W58080  11.545  21.619  24.412 -0.0900  0.0163 -0.2987
15028W        W58081  16.181  27.228   3.525 -0.4879 -0.0372 -0.1630
15029W        W58082  21.962  19.402  28.539  0.2408 -0.1094 -0.2931
15030W        W58083  19.083  14.520  22.013 -0.0506  0.0022  0.1227
15031W        W58084   9.371  32.250   0.392  0.0605 -0.1982  0.0801
15032W        W58085  22.700  29.132  29.018  0.0856  0.0046  0.0840
15033W        W58086  20.838   7.223   5.731 -0.0087  0.0437 -0.0774
15034W        W58087  18.977  23.098   4.691  0.1350 -0.1290 -0.2239
15035W        W58088  16.076  29.091   9.419 -0.0063 -0.1214  0.0251
15036W        W58089  34.175  18.658  28.242  0.2664  0.3522  0.2257
15037W        W58090  19.546   4.409  10.441  0.0198  0.2818  0.0809
15038W        W58091  17.468  22.189   8.742 -0.0470 -0.0851  0.2775
15039W        W58092  31.651  29.909   6.958 -0.4607  0.0009  0.0713
15040W        W58093  24.430  22.170  22.262  0.4214  0.2510 -0.0045
15041W        W58094  34.621  31.007   4.991 -0.1083 -0.1917  0.0491
15042W        W58095  24.813  25.597  25.593  0.0191 -0.0401  0.0824
15043W        W58096  28.311   4.087   2.796  0.0872 -0.1675 -0.1726
15044W        W58097  25.317  10.991  25.111 -0.0843 -0.0447  0.2126
15045W        W58098  19.580   3.823   9.131 -0.1751 -0.1300  0.0244
15046W        W58099   0.203  28.693  27.907  0.1101  0.0105  0.3946
15047W        W58100  26.602  11.369   0.655  0.1473 -0.0446 -0.0031
15048W        W58101  19.309  15.234   8.008  0.0839 -0.1237  0.2677
15049W        W58102  14.466   8.543   0.193  0.0055  0.0767 -0.5254
15050W        W58103   2.951  16.759   5.742 -0.1815  0.0247  0.0137
15051W        W58104  22.684  22.125  22.855 -0.0322 -0.0544  0.5263
15052W        W58105  18.867  25.025  10.251  0.0862 -0.2374 -0.5328
15053W        W58106  22.668  18.646   3.089 -0.1368  0.1664 -0.0397
15054W        W58107  17.204   8.430  28.609 -0.0973  0.1498  0.1877
15055W        W58108  14.458  22.056   9.868  0.1822 -0.0143  0.1697
15056W        W58109  14.606  17.933   5.049  0.0807  0.1392  0.0371
15057W        W58110  28.441  28.817   9.697 -0.2266  0.0378 -0.0758
15058W        W58111  23.315  19.927   2.747  0.0303 -0.2438 -0.1768
15059W        W58112   3.013  25.656   7.734  0.1320 -0.2407  0.0308
15060W        W58113  25.583  24.669   7.179 -0.0445  0.3706 -0.1369
15061W        W58114  33.277  21.131   7.431  0.1344  0.1108  0.2150
15062W        W58115   4.566  15.203   6.177 -0.0558  0.2005 -0.3010
15063W        W58116  14.327   8.023   9.337 -0.0139  0.0137  0.1727
15064W        W58117  27.300  17.358  24.134 -0.0987  0.2402  0.2248
15065W        W58118  20.238  16.455   9.856  0.0309  0.0850  0.0693
15066W        W58119  16.246  29.472   7.471  0.1771 -0.4065 -0.0886
15067W        W58120   2.481  26.655   6.098 -0.2195  0.1907  0.2852
15068W        W58121  23.039   2.162   1.904 -0.1538  0.0097 -0.0642
15069W        W58122  24.647  24.301  28.794  0.1095  0.1046  0.0633
15070W        W58123  18.612  18.306   4.145  0.0266 -0.2716 -0.1041
15071W        W58124  12.921  29.116   7.106  0.2429  0.1512 -0.4760
15072W        W58125  21.425  17.515   8.078 -0.0328 -0.2200  0.0686
15073W        W58126  32.388  21.700   9.192 -0.3341  0.1349 -0.0906
15074W        W58127  20.734  23.806   4.560  0.1196 -0.1798  0.0250
15075W        W58128  10.585  11.389  29.182  0.1645  0.0937 -0.1248
15076W        W58129  14.208  25.409   3.965  0.0075  0.2373 -0.0764
15077W        W58130  24.987  26.104   7.827 -0.1664 -0.1414  0.3411
15078W        W58131  20.646  13.951  25.361  0.1018 -0.1526  0.2136
15079W        W58132  11.596  11.799  26.519 -0.0989 -0.1000  0.1593
15080W        W58133  18.206  24.938   2.409  0.3178  0.0079  0.1237
15081W        W58134  19.303  23.609   8.045  0.0035  0.0235 -0.4357
15082W        W58135  33.414  16.452   9.955  0.2025  0.4103 -0.2817
15083W        W58136  15.106  20.490   4.870 -0.1294  0.0787 -0.0816
15084W        W58137  24.156  18.175   8.459  0.1910 -0.0223  0.2625
15085W        W58138  21.850  13.538   1.767 -0.1132 -0.0290  0.1752
15086W        W58139   8.810   6.427   5.275 -0.1387 -0.2928 -0.2632
15087W        W58140  31.526   0.552   0.516 -0.0105 -0.0924  0.1723
15088W        W58141  17.060  29.940   9.467 -0.2263 -0.1351 -0.3992
15089W        W58142  14.405  20.892  20.614 -0.2581 -0.1521  0.3861
15090W        W58143  17.751  15.462   6.335 -0.0025 -0.1063  0.2004
15091W        W58144  22.492   5.574  15.841 -0.4471 -0.3147  0.0384
15092W        W58145  19.797  11.961   5.224  0.1173  0.1094 -0.2392
15093W        W58146  10.272  11.158   9.034  0.4032 -0.2159 -0.3612
15094W        W58147  31.834  29.200  27.950  0.3868 -0.2015  0.1778
15095W        W58148  15.935  15.907   1.632  0.0712 -0.1640  0.0988
15096W        W58149  33.925  22.300  26.938  0.1923 -0.0421 -0.0585
15097W        W58150   0.515  32.983   4.697  0.3772 -0.2053 -0.3616
15098W        W58151  16.006  29.304   1.856 -0.1557  0.0065  0.0719
15099W        W58152  28.047  28.286   3.481 -0.1991  0.0946  0.0682
15100W        W58153  16.325   7.095   9.177  0.2305  0.0485 -0.0042
15101W        W58154   9.470  12.669   5.021 -0.1057 -0.0462 -0.4114
15102W        W58155   7.296   8.400   8.557  0.0405  0.0391  0.1911
15103W        W58156  25.092   9.945   7.604 -0.0114 -0.2441  0.1714
15104W        W58157  25.941  18.765   4.322  0.0336 -0.2468  0.2328
15105W        W58158  31.122  19.508   0.839  0.2066  0.2457  0.0992
15106W        W58159  13.591   7.618   7.089  0.0097 -0.1918  0.1441
15107W        W58160   7.361  24.076   7.952  0.0775 -0.0447 -0.0803
15108W        W58161  20.305  32.637  17.649  0.0048 -0.0905 -0.0813
15109W        W58162  16.944   0.153   4.578  0.2499 -0.2371  0.1333
15110W        W58163  20.877  23.915   6.830 -0.1692  0.0597  0.3222
15111W        W58164  14.864  15.671   6.103  0.2092  0.2586  0.0987
15112W        W58165  30.963  12.685   2.389  0.0505 -0.0967 -0.5135
15113W        W58166  13.052  21.476   7.547 -0.1323 -0.1900  0.1181
15114W        W58167  14.765  23.554  23.374 -0.0046 -0.1145 -0.5268
15115W        W58168  19.213  10.380   9.244 -0.1518  0.1153  0.3688
15116W        W58169  26.945  23.321   7.670  0.2656  0.0971 -0.0110
15117W        W58170  19.547   0.810   3.058 -0.0011 -0.1812 -0.1302
15118W        W58171  27.493   6.688   8.152 -0.4095  0.2905  0.2046
15119W        W58172  28.127  16.792   9.047 -0.2190 -0.1247  0.0241
15120W        W58173  14.944   4.947  17.243 -0.1448  0.0270  0.0436
15121W        W58174   9.094  16.925   5.194  0.0506  0.3342  0.3463
15122W        W58175  17.128  19.093  25.556 -0.1202  0.1870  0.5900
15123W        W58176  14.878  30.442  27.791  0.1848 -0.0607 -0.1433
15124W        W58177  24.229  34.574   1.823  0.1309  0.2451 -0.0298
15125W        W58178  27.642  17.536   8.082 -0.2198  0.0300  0.0218
15126W        W58179  15.155  20.859  25.844 -0.4233 -0.2830  0.1236
15127W        W58180  20.681  26.836   5.133 -0.1719 -0.0201 -0.0989
15128W        W58181   6.169  20.506   6.444 -0.0474  0.0736 -0.2132
15129W        W58182  22.877  24.887  23.347 -0.0928  0.2295 -0.0358
15130W        W58183  28.311   9.144  28.912  0.4976  0.1276  0.1699
15131W        W58184  22.904  24.180  29.054 -0.2640  0.0391  0.0361
15132W        W58185  19.801  17.954  24.113  0.1683 -0.4033  0.0271
15133W        W58186  14.927  23.227   2.417 -0.0532  0.1028 -0.0240
15134W        W58187  21.594   9.439   6.010  0.1502 -0.2340 -0.2166
15135W        W58188  14.948  10.061   5.621 -0.1049 -0.0105 -0.0732
15136W        W58189   4.084  17.475   0.173 -0.0758  0.1854 -0.3173
15137W        W58190  16.089  12.273   4.893  0.0324 -0.2526  0.1024
15138W        W58191  20.091  25.866   1.129 -0.0014  0.0533 -0.4390
15139W        W58192   1.292  19.771  22.468 -0.0219 -0.2898 -0.1457
15140W        W58193  11.435  31.473  17.138 -0.3032 -0.0069  0.1342
15141W        W58194  20.212  20.475  25.116 -0.0396 -0.0191 -0.2216
15142W        W58195  17.948  27.629   6.901 -0.3095  0.1162 -0.2101
15143W        W58196  18.802  12.253   6.787 -0.2658  0.2223 -0.1714
15144W        W58197  19.069  18.850   0.383  0.0143  0.1523  0.0818
15145W        W58198  14.844   1.891  15.928 -0.1460  0.2281 -0.0613
15146W        W58199  16.777  28.984   7.804  0.1047 -0.0175 -0.0792
15147W        W58200  28.609  32.583  28.181  0.0620 -0.2089  0.3484
15148W        W58201  23.095  17.102  24.648 -0.0332 -0.1094 -0.1284
15149W        W58202  14.922  23.663   9.202 -0.0325 -0.1545 -0.2545
15150W        W58203  13.634   6.032  28.922  0.2244 -0.1435 -0.0445
15151W        W58204  22.740  25.531   9.889 -0.0134 -0.2552 -0.0751
15152W        W58205  11.172  28.917   3.580  0.0647  0.2004  0.1078
15153W        W58206  10.895  23.692   0.947 -0.0235 -0.1861 -0.0427
15154W        W58207  19.803  29.660  24.367  0.1009 -0.1664 -0.0206
15155W        W58208  18.969  18.950   3.487 -0.2399  0.0135  0.0620
15156W        W58209   2.329  24.713   3.915  0.0061 -0.1539 -0.1612
15157W        W58210  15.290  12.841   5.990 -0.5234  0.1449  0.1531
15158W        W58211   3.555   9.406   9.534  0.2456  0.0030 -0.0159
15159W        W58212  12.384  20.848  10.035 -0.1740  0.0209  0.1026
15160W        W58213  19.768  29.449   6.488 -0.2712 -0.0275  0.0990
15161W        W58214  18.542  10.162   5.319  0.1000  0.0953  0.1189
15162W        W58215  21.307  31.087   0.422  0.2648  0.2004  0.1609
15163W        W58216   1.086   9.279  19.141  0.3470 -0.0915  0.2315
15164W        W58217  20.950  26.988  16.870  0.1147  0.0511 -0.0703
15165W        W58218  28.464  27.370   4.820 -0.0086  0.2949 -0.0679
15166W        W58219  23.509  31.597   3.116  0.0016  0.0598 -0.0856
15167W        W58220  17.504  14.737   3.035  0.1491  0.2897  0.2274
15168W        W58221  10.146  13.099  10.089  0.1034  0.2172 -0.2929
15169W        W58222   2.418  19.174   8.869 -0.2239  0.1043  0.2093
15170W        W58223  25.736   4.925   2.763 -0.2519 -0.0687 -0.1682
15171W        W58224  26.644  20.383  22.165  0.2412 -0.0407  0.1650
15172W        W58225  33.656  24.846   3.735 -0.2223  0.0921 -0.2676
15173W        W58226  10.236   2.756   9.804  0.2889  0.0678 -0.0972
15174W        W58227   0.491  25.791   4.793 -0.1033 -0.5112  0.1327
15175W        W58228  23.593  29.977  27.089 -0.1149 -0.1579 -0.0433
15176W        W58229   4.182  24.342   5.499  0.0092 -0.0798  0.0964
15177W        W58230  34.183  31.063  27.668 -0.2946 -0.0809 -0.2529
15178W        W58231  31.961  27.123   0.371 -0.0753  0.0419  0.0216
15179W        W58232   3.124  28.627   7.546  0.4606 -0.2080  0.1481
15180W        W58233  11.476  29.213   7.782 -0.1189  0.1803  0.4241
15181W        W58234  10.339  18.302  28.202 -0.1721 -0.1683 -0.0814
15182W        W58235  15.936  34.107   4.282  0.3174  0.1679  0.0751
15183W        W58236  26.922  17.576   9.805  0.1023 -0.4599  0.0268
15184W        W58237  28.148  27.694  10.051 -0.0524 -0.0552 -0.1762
15185W        W58238  33.607  32.233  27.457 -0.0162 -0.1414  0.3003
15186W        W58239  20.012  25.817  23.993  0.1077  0.1847  0.0799
15187W        W58240  21.497  33.222   2.998  0.2521  0.2191  0.0128
15188W        W58241  20.669   0.345  10.464 -0.1470  0.4550  0.3271
15189W        W58242  31.419  25.691  23.481  0.1320  0.3029  0.0809
15190W        W58243  31.735  31.690  25.329  0.1681  0.0110  0.0987
15191W        W58244   9.043  31.598  27.286  0.0607 -0.2473 -0.0720
15192W        W58245  32.126  17.262   1.712  0.1036 -0.2403  0.2033
15193W        W58246  19.256   9.648  25.694 -0.1503 -0.4289 -0.2317
15194W        W58247  33.783  24.438  19.526  0.0720  0.2235  0.0162
15195W        W58248   7.650  31.743  21.469 -0.0383  0.1232  0.0018
15196W        W58249  21.903  14.143   1.790  0.1192 -0.1572 -0.0676
15197W        W58250   0.468  31.045  16.514  0.1519 -0.0984 -0.0104
15198W        W58251  29.077   3.258  25.087  0.2676  0.0816 -0.1993
15199W        W58252   5.851  19.653   9.823 -0.4307  0.2274 -0.0198
15200W        W58253   8.296  20.882   1.902 -0.2960  0.0997 -0.0785
15201W        W58254  21.009   9.501   2.979 -0.0291 -0.3086  0.2684
15202W        W58255  17.327  17.830  28.100  0.1603 -0.1207 -0.0675
15203W        W58256  15.216  14.525  14.862 -0.2462  0.0122  0.2764
15204W        W58257  24.977   0.482   0.968 -0.0277 -0.1491 -0.2879
15205W        W58258  10.118  21.105   7.289 -0.0957 -0.0758  0.1416
15206W        W58259  27.358  25.526   1.247 -0.0870  0.0520 -0.1677
15207W        W58260  18.063  26.343   2.828  0.1406  0.1232  0.0090
15208W        W58261   4.779  10.309   3.001  0.0713  0.1276 -0.1464
15209W        W58262   1.117  17.334   7.679  0.1633  0.0840 -0.3981
15210W        W58263  19.320  19.998  24.138  0.0292  0.1799 -0.1832
15211W        W58264  21.799  24.257  26.575 -0.1219 -0.3721 -0.2858
15212W        W58265  18.087  22.477  26.794  0.2944 -0.2257  0.3647
15213W        W58266  18.678  11.966   6.209 -0.2210 -0.0259 -0.1004
15214W        W58267  18.879  29.981   2.111 -0.0756  0.2196 -0.3465
15215W        W58268  30.662  26.903   4.870  0.1056  0.0757 -0.2479
15216W        W58269  25.861  27.459  15.032  0.2642 -0.0742  0.0744
15217W        W58270  20.130  27.169   3.269  0.2453  0.0603 -0.3978
15218W        W58271   9.030  33.956  18.172 -0.2782 -0.1073 -0.1459
15219W        W58272   6.757  24.539  21.339 -0.0453  0.3078  0.3452
15220W        W58273  14.328  17.521  22.165 -0.2149 -0.1757  0.2513
15221W        W58274   5.762  12.853   1.198 -0.2214 -0.1227  0.2946
15222W        W58275  34.083  23.518   0.425 -0.1308 -0.1772  0.1086
15223W        W58276  24.027  30.320  22.525  0.0373 -0.0110  0.1413
15224W        W58277  21.905  10.453   1.710 -0.1183 -0.0979 -0.0560
15225W        W58278  32.414  10.109  23.462 -0.1637 -0.0079 -0.0759
15226W        W58279  13.437  26.813  16.133 -0.1268 -0.2687 -0.2428
15227W        W58280  12.948  24.885  24.566 -0.2936 -0.3402 -0.1763
15228W        W58281  21.094  16.973   4.864 -0.0646 -0.0766  0.0002
15229W        W58282  18.568  27.974   0.117  0.0842  0.1538 -0.1845
15230W        W58283   2.526   7.746   4.346  0.1173  0.2486  0.0764
15231W        W58284  20.466  22.905   5.530 -0.1084  0.1349 -0.0535
15232W        W58285   7.195  24.968   7.142 -0.2590  0.2108 -0.0557
15233W        W58286  15.371  29.988   6.073 -0.0005 -0.0208  0.0790
15234W        W58287  20.264  17.557  10.246  0.1105 -0.1729 -0.0355
15235W        W58288  16.547  31.453  25.048 -0.3170 -0.0773 -0.1635
15236W        W58289   4.549  30.727   0.609  0.0544  0.2507  0.0526
15237W        W58290  32.125  29.464   1.846 -0.1286 -0.3815  0.1736
15238W        W58291   2.639  21.415   7.067 -0.1336  0.2213 -0.0252
15239W        W58292  31.409   4.189  16.175 -0.1160 -0.0924 -0.2309
15240W        W58293  13.498  20.256  26.352  0.0082  0.0572 -0.0100
15241W        W58294  27.290  29.923   7.924  0.0629 -0.0378  0.1721
15242W        W58295  24.127  20.785   2.189  0.1755 -0.0070 -0.0957
15243W        W58296  30.444  17.140   5.433 -0.0485 -0.1243  0.1485
15244W        W58297  22.725   8.257  29.147  0.2633 -0.2328  0.1161
15245W        W58298  21.049  18.886   8.601 -0.2437  0.0751 -0.0884
15246W        W58299  16.835   6.687   7.792 -0.3244  0.0298 -0.1927
15247W        W58300  26.809  24.400   8.677 -0.0022  0.1694  0.3844
15248W        W58301  20.927   5.819   4.658  0.1434 -0.3940 -0.1770
15249W        W58302   6.397   9.998  11.042 -0.2082 -0.0369 -0.0998
15250W        W58303   8.799  19.540   4.869 -0.1204  0.3848  0.1389
15251W        W58304  15.855  16.432   2.580 -0.1421 -0.0508 -0.0367
15252W        W58305  17.310  22.512  25.118 -0.3736 -0.1200 -0.2662
15253W        W58306  14.957  27.509   1.756  0.0527  0.3205 -0.1302
15254W        W58307  24.807  19.238  22.063  0.0561  0.0656  0.0816
15255W        W58308  21.777  28.460   1.610  0.1200 -0.2762 -0.0914
15256W        W58309   7.796  19.095   7.671 -0.2313  0.1762  0.0914
15257W        W58310  15.307  21.705   7.756  0.2948  0.0164 -0.1591
15258W        W58311  25.414  27.603   7.948  0.2762 -0.1207 -0.0206
15259W        W58312  18.954  14.285  27.357  0.1059  0.2058  0.3435
15260W        W58313  25.254  24.004   1.371 -0.0181 -0.0453  0.0763
15261W        W58314  18.125   5.424   1.282 -0.1021  0.0019 -0.0284
15262W        W58315  26.571  28.873  19.686  0.0712  0.2198 -0.0134
15263W        W58316  21.100  21.846   1.531 -0.0941  0.0435  0.2004
15264W        W58317   3.146  24.581  25.520  0.1201  0.1782  0.1148
15265W        W58318  22.735  19.753  28.878  0.2410  0.1353 -0.1311
15266W        W58319   7.578  28.311   0.076  0.1678  0.0848  0.5078
15267W        W58320  15.052   1.699   1.097 -0.1001  0.0939 -0.1752
15268W        W58321  26.098  16.380  17.350  0.2291 -0.0900 -0.0669
15269W        W58322   1.655  30.635  28.137 -0.0504 -0.3756  0.0574
15270W        W58323  34.442  22.124  24.301 -0.1150  0.4044 -0.1361
15271W        W58324  29.954  18.091  14.012  0.0909  0.0047  0.0763
15272W        W58325   8.616  25.401   5.723 -0.0027  0.1296 -0.2489
15273W        W58326   9.262  21.085   5.646  0.0872  0.0663  0.0283
15274W        W58327  17.880  31.357  28.074 -0.2332  0.1611  0.0484
15275W        W58328  30.121  23.105  16.888 -0.2034 -0.0053  0.0108
15276W        W58329  24.127  30.263   4.641 -0.1286 -0.1040  0.0822
15277W        W58330  18.619  16.112   8.105  0.0128  0.1881 -0.3217
15278W        W58331   9.653  29.250   1.549  0.4558  0.3005 -0.1484
15279W        W58332  30.768   7.142   0.613 -0.0012  0.2746  0.2047
15280W        W58333  15.975  14.579  22.627 -0.0663 -0.0116  0.2759
15281W        W58334   1.388   9.369  23.701 -0.2387 -0.3569 -0.1303
15282W        W58335  10.404  19.217  25.145 -0.1425 -0.3118  0.3305
15283W        W58336  20.883  28.972  24.042  0.0240 -0.0180 -0.2365
15284W        W58337  16.342  16.419   4.283  0.0900 -0.0056 -0.0165
15285W        W58338  23.846  16.796   4.775  0.2006  0.1370  0.0012
15286W        W58339   0.064   1.119   5.461 -0.0095 -0.2086 -0.3092
15287W        W58340  19.140  25.212  24.015  0.1195 -0.1127  0.1173
15288W        W58341  10.672  28.499   5.474 -0.1262  0.0341 -0.3384
15289W        W58342  19.173  24.401  26.032  0.1655  0.1484 -0.2334
15290W        W58343  28.438  25.241  25.929 -0.0179  0.0897 -0.3015
15291W        W58344  16.618  17.484  22.727  0.0413 -0.0397 -0.1519
15292W        W58345  26.868   5.785   3.131  0.1841  0.1929 -0.1639
15293W        W58346  26.799  27.977  26.757 -0.1303  0.1184  0.0851
15294W        W58347  24.714  24.735   3.932 -0.1153  0.2977 -0.0169
15295W        W58348  30.216  15.834   8.673 -0.1976  0.3098 -0.1424
15296W        W58349  26.114  23.474   4.410  0.0906  0.3266  0.3550
15297W        W58350  25.499  17.689  17.958  0.0309 -0.2218 -0.2034
15298W        W58351  23.967  12.138   4.231 -0.1593 -0.0545  0.0601
15299W        W58352  21.871  27.851  26.137 -0.4249 -0.0092 -0.1931
15300W        W58353   1.246  18.078   9.769  0.1115  0.3672  0.1724
15301W        W58354  17.284  23.304  24.013 -0.1497  0.2853 -0.2068
15302W        W58355  34.065  10.791  20.445 -0.2593 -0.0775  0.2730
15303W        W58356  31.551  33.671   6.963 -0.1009  0.0850 -0.0100
15304W        W58357   8.846   0.320  22.444 -0.1040  0.1587 -0.1347
15305W        W58358  18.454  23.846  16.717 -0.0200 -0.1916 -0.2264
15306W        W58359  20.417  32.618  25.294 -0.0240  0.1493  0.3230
15307W        W58360   8.765  10.129  28.126 -0.2038  0.1352 -0.2976
15308W        W58361   9.624  19.492  27.838  0.2539 -0.0247  0.3580
15309W        W58362  33.496  31.152   9.123  0.2091  0.0382  0.2474
15310W        W58363  30.826  24.590   6.567 -0.0635 -0.1775 -0.3203
15311W        W58364  18.851  14.694  27.859  0.0599  0.0510 -0.1313
15312W        W58365   6.337  32.501   6.721  0.1673  0.1001  0.1893
15313W        W58366   4.859  22.666   8.206 -0.2086 -0.1059 -0.0924
15314W        W58367  12.337  17.681   9.348  0.0030  0.1891 -0.1284
15315W        W58368  17.388  14.542   8.328 -0.0331  0.1396  0.0118
15316W        W58369   0.891  22.917  27.047 -0.0135 -0.2065 -0.0733
15317W        W58370  18.327  30.537  14.694 -0.0323  0.0004 -0.0111
15318W        W58371  22.451  24.272   2.088 -0.6157 -0.1918  0.5091
15319W        W58372  26.108  14.615  27.754  0.0298 -0.2045  0.0076
15320W        W58373  11.700   1.396  23.051 -0.2215 -0.1379  0.1358
15321W        W58374  11.353  28.861  28.896  0.1219 -0.1592 -0.2376
15322W        W58375  18.862   3.824   5.078 -0.1604 -0.3731 -0.3117
15323W        W58376  16.354   1.290   7.083 -0.0261 -0.0053  0.0482
15324W        W58377  17.029  27.309   8.813  0.0977  0.0662 -0.0664
15325W        W58378  20.692   3.932   9.498  0.2041  0.3459  0.1414
15326W        W58379  25.353  13.625  23.249  0.0294  0.0415 -0.2458
15327W        W58380  25.162   4.071  26.510  0.0140  0.1755 -0.0382
15328W        W58381  10.139  30.396   6.093 -0.0887  0.2185  0.2181
15329W        W58382  30.988  29.795  27.938  0.1240  0.2787  0.1052
15330W        W58383  20.363  19.986   8.940 -0.0390  0.0885  0.0118
15331W        W58384  19.182   8.775  25.622 -0.3197  0.0590 -0.3217
15332W        W58385  31.639  19.417   7.877  0.1627  0.0775  0.1706
15333W        W58386  14.623   2.650   7.710  0.0478 -0.1547  0.1081
15334W        W58387  13.961  22.210   6.118  0.1240  0.1243  0.0813
15335W        W58388  22.149  18.308  28.097 -0.0066  0.1285  0.0526
15336W        W58389   8.008  33.058   0.604 -0.2917  0.0182  0.0103
15337W        W58390  18.974  30.688  22.380 -0.4246 -0.1962  0.0989
15338W        W58391   8.738  14.714  15.293  0.1821  0.5193 -0.1679
15339W        W58392  26.939  16.430  26.830 -0.0210  0.2526 -0.0382
15340W        W58393  29.764  29.852  17.449  0.1493  0.2096 -0.1379
15341W        W58394  11.106  21.338   8.406  0.2721 -0.2202  0.0359
15342W        W58395  26.160  20.981   0.351  0.0671 -0.0617  0.0071
15343W        W58396  27.050  24.936   9.244  0.1342  0.0503  0.1693
15344W        W58397  25.097  22.631   6.216  0.3568 -0.0926 -0.1188
15345W        W58398  19.597  28.849  21.105  0.0403  0.3065  0.1501
15346W        W58399   8.211  26.009   0.429 -0.2907 -0.0321  0.2383
15347W        W58400  10.953  31.867   2.408  0.1511 -0.1088 -0.1779
15348W        W58401  29.100  22.720   0.756  0.0223 -0.0495 -0.4124
15349W        W58402   8.518  26.296  28.175 -0.1969 -0.1674  0.0347
15350W        W58403  22.423  15.184  25.319 -0.2144  0.0716  0.0692
15351W        W58404  25.210  20.260  20.310  0.2806 -0.2055 -0.0380
15352W        W58405  25.427  23.453  10.135 -0.2954 -0.2272 -0.2974
15353W        W58406  32.325   4.959   3.309 -0.3257  0.2028  0.2012
15354W        W58407  19.894  18.639   6.659  0.2711 -0.2589  0.1385
15355W        W58408  11.691  28.479   9.033  0.1685 -0.0919  0.3582
15356W        W58409  33.509  16.610  18.646 -0.1047  0.3659 -0.3103
15357W        W58410   1.814  22.704   5.855  0.1370  0.0867 -0.2133
15358W        W58411  14.083   4.712  19.787  0.0649 -0.0126 -0.1902
15359W        W58412   2.599  24.314   4.144 -0.0320  0.0391 -0.0014
15360W        W58413  12.798  21.466   3.171  0.0058 -0.1766  0.0479
15361W        W58414  17.564  26.680   0.162 -0.2198 -0.0280  0.3431
15362W        W58415  20.125  26.681   8.611 -0.2380 -0.0762 -0.1234
15363W        W58416  25.110  16.438   4.070  0.1139  0.0056  0.0811
15364W        W58417  18.360  28.063   5.534  0.2383 -0.0458  0.0841
15365W        W58418   0.204  29.835  21.706 -0.0854 -0.0005 -0.1997
15366W        W58419   7.469  23.005   4.357  0.0475 -0.0544 -0.2014
15367W        W58420  33.793  28.685  26.891 -0.2964 -0.2501 -0.0465
15368W        W58421  14.901  29.160  18.185  0.0414  0.0167 -0.0017
15369W        W58422  13.523  34.017   1.380 -0.0904  0.0258  0.2322
15370W        W58423  25.995  22.860  27.914 -0.1379  0.3569 -0.1638
15371W        W58424  14.107  19.091   7.819  0.0290 -0.1111  0.4460
15372W        W58425   1.059  24.211  28.845 -0.2352 -0.4470 -0.0459
15373W        W58426   5.713  27.243  22.813 -0.0501 -0.0810  0.0321
15374W        W58427  20.215  26.480  10.946  0.1251  0.0124 -0.0179
15375W        W58428  18.383   7.501   7.108  0.0799 -0.1981 -0.0196
15376W        W58429  22.308  29.922   5.058 -0.0042 -0.2368  0.0239
15377W        W58430   1.075  31.053  18.490 -0.1546  0.0222 -0.0889
15378W        W58431  21.764  31.679  28.698  0.0516  0.0977  0.2602
15379W        W58432   0.359  34.639  22.416  0.0075 -0.3385  0.2646
15380W        W58433  23.335   0.546  15.888 -0.0187  0.0280  0.1674
15381W        W58434  20.446  31.491  20.435 -0.1893  0.0674  0.1213
15382W        W58435  12.264   2.171   9.862 -0.0576 -0.1457  0.2582
15383W        W58436  16.217   3.788  27.232  0.4679 -0.1341  0.1025
15384W        W58437   8.511  17.859  21.346 -0.0404  0.2832 -0.1072
15385W        W58438  17.350  16.504  25.962  0.0203 -0.2164  0.1112
15386W        W58439  16.199   0.515   1.753 -0.1353 -0.0657 -0.0010
15387W        W58440  17.008  17.753   1.734 -0.3097  0.0424 -0.2972
15388W        W58441  13.870  27.829   1.986 -0.2751  0.2413  0.1379
15389W        W58442  23.573  13.608   7.879 -0.0747  0.1229  0.1816
15390W        W58443  16.241  28.225  25.533 -0.2655 -0.1427  0.2106
15391W        W58444  22.493  21.664  28.783  0.0661  0.3348 -0.2731
15392W        W58445  15.152  24.122  23.714 -0.0311  0.1355  0.0696
15393W        W58446  17.312  17.994  26.574  0.1767  0.1808 -0.3674
15394W        W58447  19.358   2.327   6.990 -0.2353 -0.0839  0.0287
15395W        W58448  24.679  11.264   6.552 -0.1350  0.0660 -0.1807
15396W        W58449  25.314  34.315  27.288 -0.0112  0.3032  0.2139
15397W        W58450  33.228  22.737   9.450 -0.1793  0.2102 -0.1108
15398W        W58451  12.365  32.125  14.657  0.0668  0.0108  0.0296
15399W        W58452  19.048  14.476  21.538 -0.1904 -0.4199  0.1317
15400W        W58453   3.346  26.324  22.979  0.0978 -0.0987  0.3845
15401W        W58454  31.254  15.429   7.204 -0.0972  0.0011  0.1419
15402W        W58455  13.412  33.488   8.453 -0.1976 -0.1431  0.1293
15403W        W58456  25.267  21.581  27.706  0.0743  0.3419 -0.1158
15404W        W58457  16.220   5.145   4.367  0.1240 -0.2090  0.0491
15405W        W58458  31.529  12.152   7.432  0.3517  0.0283 -0.0635
15406W        W58459  24.100   6.621  28.998 -0.2431  0.0179  0.1111
15407W        W58460  28.935  32.825   2.472  0.2312 -0.1773 -0.0341
15408W        W58461  31.801   8.733  17.075 -0.2500 -0.2341  0.1570
15409W        W58462  10.181   7.548   5.118  0.0324 -0.2270  0.1993
15410W        W58463  15.888  22.631  24.835  0.1112 -0.1655  0.0645
15411W        W58464  12.698  21.155  13.674 -0.2930 -0.0262  0.0104
15412W        W58465  20.251   3.063   4.342 -0.1420 -0.2189 -0.2619
15413W        W58466  29.406  20.344   8.992 -0.0429  0.1903 -0.0256
15414W        W58467  21.037  28.650   3.886  0.0783 -0.3877  0.1633
15415W        W58468  28.280   9.684   2.351 -0.0696  0.1886 -0.0253
15416W        W58469  12.940  26.180  24.798 -0.1849  0.2331  0.0756
15417W        W58470  14.224  16.377   6.363  0.0182 -0.2122  0.0194
15418W        W58471  12.303  22.053   0.996  0.0315  0.2469 -0.0923
15419W        W58472  25.779   1.857   5.663  0.1462 -0.0831 -0.3581
15420W        W58473  16.077  23.804  29.195 -0.0313  0.1409  0.1895
15421W        W58474  28.514  12.224   9.161  0.0790  0.0061  0.0987
15422W        W58475  22.174  19.727  25.217 -0.0226 -0.1785 -0.2906
15423W        W58476  15.182  24.450   3.419  0.2153 -0.0969  0.2775
15424W        W58477  24.414  19.373  28.450 -0.3293  0.2989  0.0726
15425W        W58478   7.001  24.434   5.222 -0.2997  0.1831  0.1497
15426W        W58479  14.926  33.024  15.396  0.2483  0.0363  0.0398
15427W        W58480  23.327  30.357  22.130 -0.1431 -0.3248  0.0902
15428W        W58481  31.317  13.837  26.024  0.0540  0.2938 -0.3009
15429W        W58482  18.055  12.928  25.322 -0.1595 -0.2596  0.1701
15430W        W58483  10.268  24.734   5.157  0.1968 -0.0662 -0.0204
15431W        W58484   5.984  21.758  25.355  0.1726  0.4424  0.0988
15432W        W58485  19.171  25.903   4.679 -0.1261  0.1457 -0.0562
15433W        W58486  25.191  28.995  26.880  0.1470 -0.0574  0.0837
15434W        W58487  25.732  25.244   5.522 -0.1557  0.0799 -0.0804
15435W        W58488  26.274  30.916   6.768  0.2268 -0.2720  0.2870
15436W        W58489   9.652  24.199   0.757  0.1056  0.0077  0.0808
15437W        W58490  19.110   2.555  24.210  0.0634 -0.1977 -0.1217
15438W        W58491  25.560  31.798   8.127 -0.0372 -0.0250  0.1127
15439W        W58492   0.239  25.112   4.884 -0.2178  0.1821 -0.0484
15440W        W58493  28.295  21.135  25.475  0.0050 -0.0183  0.1246
15441W        W58494  13.680  28.297   1.976 -0.2836  0.1540  0.2336
15442W        W58495  19.966  24.730  25.758  0.5190 -0.3406 -0.2569
15443W        W58496  28.360  21.141  17.855  0.1686  0.1078 -0.4408
15444W        W58497  18.228  31.020   1.086 -0.0633 -0.2154  0.0645
15445W        W58498  19.236  18.037   3.321  0.2866  0.2188 -0.0956
15446W        W58499  33.989  17.029   4.995  0.1321  0.1912  0.1156
15447W        W58500  21.392  22.226   7.235  0.0692 -0.0819 -0.2823
15448W        W58501  20.804  26.577  22.422 -0.0545  0.1961 -0.0310
15449W        W58502  26.464  17.784   5.778  0.1700  0.2323 -0.2616
15450W        W58503  11.915  34.622  18.772 -0.3019  0.0245 -0.3260
15451W        W58504  20.856  21.198  18.294  0.1328 -0.2716  0.1564
15452W        W58505  17.968  23.113  14.393  0.0470  0.3703 -0.0022
15453W        W58506  10.906  33.125  26.486  0.2463 -0.0784 -0.1973
15454W        W58507  25.433  26.940   9.697  0.1539  0.2412 -0.2553
15455W        W58508  11.927   6.727   2.570  0.1102  0.1116  0.1208
15456W        W58509   0.331  20.487  22.805  0.0873 -0.1486 -0.1936
15457W        W58510  29.613  28.213   6.405 -0.0442 -0.0494 -0.3045
15458W        W58511  20.187  22.611   1.423 -0.0992  0.0164 -0.0375
15459W        W58512  31.210   5.061   9.078 -0.2814  0.1267 -0.0750
15460W        W58513   4.028  14.030  18.999 -0.0066 -0.3012 -0.0502
15461W        W58514   1.680  20.518   5.571 -0.3537 -0.0840 -0.1134
15462W        W58515  10.040  22.655   9.428  0.2454  0.3112 -0.2231
15463W        W58516  13.957  28.559   3.230  0.4476  0.0570  0.1666
15464W        W58517  16.584  28.525   2.291 -0.4629  0.0674 -0.1657
15465W        W58518   1.182   9.775   7.669  0.2573  0.0301 -0.0002
15466W        W58519  20.155  23.702  25.806 -0.0105  0.0559 -0.0232
15467W        W58520  29.402  32.265  21.967 -0.4293  0.2675  0.0597
15468W        W58521  17.286  31.652   2.579  0.2346  0.0188 -0.0351
15469W        W58522  18.285  19.368   0.066 -0.1641  0.1793 -0.1605
15470W        W58523  23.890  25.677   4.803 -0.1479  0.0831 -0.1216
15471W        W58524  10.403  27.615   5.520  0.1076  0.0488  0.3302
15472W        W58525  18.007  19.837   9.230  0.2908  0.2477  0.2736
15473W        W58526   1.247  23.517   6.781 -0.1696 -0.1044 -0.0442
15474W        W58527  20.692  30.314   5.876  0.0973 -0.0419  0.0973
15475W        W58528  10.095  15.495   1.082  0.1419  0.1657  0.1087
15476W        W58529  27.733   5.102   0.944  0.1461  0.2625  0.1329
15477W        W58530   8.848  16.644  28.294  0.1447 -0.3495  0.0987
15478W        W58531  14.551  16.696   2.333  0.1010  0.2742  0.1723
15479W        W58532  31.287  30.615  29.111 -0.1810  0.0738  0.2367
15480W        W58533  22.263  24.142   7.771  0.6056 -0.2872 -0.1198
15481W        W58534  26.685  24.334   0.854  0.1950  0.0504 -0.3152
15482W        W58535  13.211  23.841   4.557 -0.2167  0.1097  0.0207
15483W        W58536  14.661  17.139   7.188  0.4476  0.2551  0.0415
15484W        W58537  21.092  10.501  18.821 -0.2458  0.2772  0.0716
15485W        W58538   4.844  22.726   5.664 -0.0291 -0.0382  0.2313
15486W        W58539   8.410   4.122   9.041 -0.1930 -0.2418 -0.3778
15487W        W58540  24.912  28.300   4.939  0.1089 -0.3411 -0.2344
15488W        W58541  28.395  32.735   7.789  0.0002 -0.1572  0.1960
15489W        W58542   6.312  34.130  29.116 -0.1348 -0.1602 -0.0306
15490W        W58543   6.561  19.992  28.783  0.2480  0.4234 -0.0587
15491W        W58544   1.273  22.978  25.050  0.0908 -0.0839  0.3874
15492W        W58545  29.184  18.698   8.268  0.1121  0.0766  0.2260
15493W        W58546  15.736  20.796   9.605  0.0839  0.0878 -0.3279
15494W        W58547  14.217  14.872   6.400 -0.1077  0.2610  0.1139
15495W        W58548   1.839  26.206  22.354 -0.0516 -0.0042  0.2498
15496W        W58549  20.861  19.263  27.566 -0.2237 -0.1079  0.0575
15497W        W58550  13.129  20.383  24.913  0.2409 -0.1562 -0.1693
15498W        W58551  24.485   0.725   8.125  0.1910 -0.0024  0.0705
15499W        W58552  24.531  22.792   8.058 -0.0888 -0.0621  0.0419
15500W        W58553   7.397  27.975   1.548 -0.0759 -0.2508  0.0634
15501W        W58554  14.751  23.516  19.834  0.4518 -0.0089 -0.1956
15502W        W58555  17.231  13.668   0.413 -0.2209  0.4630 -0.0080
15503W        W58556  29.698  10.774   3.941  0.0746 -0.0787  0.1392
15504W        W58557  28.918   9.387  10.096  0.1181  0.0327  0.0634
15505W        W58558  22.722  24.323   2.890 -0.0548 -0.2242 -0.0741
15506W        W58559  24.994  26.744   4.763  0.2013 -0.0509 -0.2253
15507W        W58560  17.764  20.647  28.679  0.0726 -0.1468 -0.0251
15508W        W58561  18.168  25.416   5.411  0.1092  0.1869 -0.2474
15509W        W58562   9.369  31.767   5.923  0.2714 -0.0911  0.1075
15510W        W58563  23.901  24.495  18.671  0.1664 -0.1136 -0.1075
15511W        W58564  24.994  28.199   5.813  0.1252  0.0124 -0.0004
15512W        W58565  21.481  30.955   7.760 -0.2931 -0.4791 -0.0678
15513W        W58566  22.325  26.857   2.655  0.1677 -0.1973  0.1325
15514W        W58567  21.676  15.896   8.061  0.3708  0.0379  0.2381
15515W        W58568  17.025  26.712   7.387 -0.3404 -0.1009 -0.1417
15516W        W58569  24.120  29.176   5.394 -0.3055  0.0118  0.0439
15517W        W58570  24.865  33.035   9.156 -0.2904 -0.0567  0.3896
15518W        W58571  15.531  22.841   8.550 -0.3545  0.1993  0.0217
15519W        W58572  19.652  21.667   0.544 -0.2132 -0.0302 -0.1510
15520W        W58573  19.199  21.838  20.652  0.0964 -0.1628 -0.4093
15521W        W58574   4.871  28.951   2.520  0.2804  0.4602 -0.1602
15522W        W58575  19.912  11.723  20.493 -0.3694 -0.0781 -0.0880
15523W        W58576  22.732  32.540   8.845  0.0014  0.0912  0.2793
15524W        W58577  15.879   5.398  27.188 -0.3160 -0.0087  0.3316
15525W        W58578  25.732  16.358   7.886  0.1885 -0.1704  0.0916
15526W        W58579  24.623  23.310   8.307 -0.2147 -0.1142  0.1926
15527W        W58580   8.789  21.206   9.453  0.4423  0.0933 -0.2145
15528W        W58581  20.754   2.402   2.378 -0.3040 -0.3844  0.0389
15529W        W58582   9.854  20.192   4.691 -0.0972  0.2805  0.0554
15530W        W58583  15.705  27.012   8.535 -0.0517  0.3478  0.1714
15531W        W58584  32.749  23.934   2.663  0.1049  0.1650  0.0094
15532W        W58585  28.437  16.470   9.274 -0.0842 -0.0796 -0.1833
15533W        W58586  23.762  18.513   1.472 -0.1013 -0.2502  0.1846
15534W        W58587   9.390  26.175   8.021  0.3552  0.0169 -0.1322
15535W        W58588  13.477  16.143   8.449  0.2864  0.0397 -0.1317
15536W        W58589  11.052  33.194  27.510 -0.0765  0.1410  0.0243
15537W        W58590  19.663  20.478   1.921  0.1496 -0.0343  0.1110
15538W        W58591  23.895  30.559   3.172  0.1485 -0.1785  0.0979
15539W        W58592  15.673  16.020   0.059 -0.2022 -0.1293  0.0916
15540W        W58593  17.444   2.910  21.686 -0.0519 -0.0608 -0.2898
15541W        W58594  15.408  19.150   7.415  0.2128 -0.0628 -0.1587
15542W        W58595  19.956  17.590   1.514 -0.3269 -0.0404  0.1444
15543W        W58596  20.931  28.360  18.651  0.2920 -0.1053  0.0670
15544W        W58597  10.611  25.867   6.310  0.2431  0.0759  0.2977
15545W        W58598  25.547  33.626   8.584  0.2014  0.1157 -0.0167
15546W        W58599  13.019  28.735   2.981  0.1904 -0.0109  0.1371
15547W        W58600  25.282   3.745   8.365 -0.3180  0.1460 -0.1977
15548W        W58601   7.912  23.852   9.713  0.1717  0.0309 -0.0850
15549W        W58602  14.777  33.504   2.631  0.0302  0.0822 -0.0450
15550W        W58603  15.208  18.447   4.317 -0.0401  0.1023  0.0006
15551W        W58604   1.334   6.082  21.563  0.1062 -0.0722  0.2168
15552W        W58605  20.226  23.688   2.231 -0.0744 -0.1211  0.0982
15553W        W58606  23.544  22.283   1.749  0.4566 -0.2500 -0.2009
15554W        W58607  20.911  28.351   2.558 -0.1579 -0.0367 -0.1637
15555W        W58608  34.642  15.631   1.329  0.2534 -0.1866  0.2468
15556W        W58609  15.075  19.820   3.461 -0.0935 -0.2113  0.0941
15557W        W58610  26.095  31.120  10.158 -0.5276 -0.0511 -0.1664
15558W        W58611  27.227  31.423   6.893 -0.0655  0.0115 -0.3150
15559W        W58612  27.612  28.724   6.915 -0.3794 -0.1221  0.0797
15560W        W58613   5.895  29.734   0.282  0.0525  0.3408  0.1300
15561W        W58614   9.802  22.343   9.112 -0.3140 -0.0768  0.1133
15562W        W58615  27.892  24.551   5.304  0.2277  0.1307 -0.0496
15563W        W58616  15.078  26.480   1.471  0.0861 -0.1099 -0.0974
15564W        W58617  24.248  21.024   8.226  0.0368 -0.5314  0.0693
15565W        W58618  12.537  29.619   6.496 -0.1710  0.1154 -0.1959
15566W        W58619   7.763  16.631   7.304 -0.0112  0.0149  0.1604
15567W        W58620  33.494  29.972   8.003  0.3237 -0.0663  0.2124
15568W        W58621  19.821  19.436   6.630 -0.0590  0.2383  0.1786
15569W        W58622  24.584   6.836   4.203 -0.0770 -0.2344 -0.0647
15570W        W58623  23.441  28.176   6.491  0.2121  0.0134  0.0062
15571W        W58624   0.791  20.782  26.235  0.0771 -0.0821 -0.1372
15572W        W58625  22.999  20.555   3.901 -0.0296 -0.0811 -0.1066
15573W        W58626  31.998  21.463  24.694  0.4089 -0.0316  0.1970
15574W        W58627  14.899  18.055   6.038  0.1332 -0.0854 -0.1416
15575W        W58628   0.454  12.441   8.798 -0.1272  0.1321 -0.0519
15576W        W58629  32.307  25.527   3.396 -0.0397 -0.0233 -0.1303
15577W        W58630  12.570  21.704  18.077 -0.2273 -0.2670 -0.0989
15578W        W58631  20.794   1.337   9.872  0.0738  0.1501  0.3809
15579W        W58632  26.875   9.927   9.113  0.0789  0.2661  0.0303
15580W        W58633  31.287  21.485   6.157 -0.1259  0.1738  0.1233
15581W        W58634  15.216  31.276  20.857 -0.0560  0.0892  0.1972
15582W        W58635  22.741  20.955  28.221 -0.1910  0.0518  0.2309
15583W        W58636  14.278  24.441   7.760  0.0630 -0.0119  0.2285
15584W        W58637  20.654  32.241  14.553  0.1088  0.5492 -0.0536
15585W        W58638  25.534  21.175  19.788  0.0515 -0.1116  0.0230
15586W        W58639  32.261   8.236   9.269 -0.0171 -0.4575  0.1587
15587W        W58640  16.535  14.444  24.043  0.2275 -0.4593  0.0719
15588W        W58641  20.234  23.885  26.792 -0.2149  0.0610 -0.0098
15589W        W58642  24.538  24.648   2.167 -0.0466  0.0546 -0.3164
15590W        W58643   1.191  28.484   0.430 -0.4150  0.1327  0.1098
15591W        W58644  20.344  21.633  29.057 -0.0743  0.0044 -0.1200
15592W        W58645   9.408  15.406   1.030  0.0715  0.0940 -0.1304
15593W        W58646  19.328   7.732   0.077 -0.2604 -0.0120 -0.1844
15594W        W58647  21.850  29.668  16.610  0.0576  0.0558 -0.0608
15595W        W58648   3.494   5.810   5.975  0.2877  0.1993  0.0164
15596W        W58649   0.356  22.071  16.933 -0.2575 -0.1494  0.0704
15597W        W58650  20.881  13.239   8.334 -0.0269  0.3209  0.1610
15598W        W58651  33.487  29.412  24.067 -0.0958  0.1061 -0.1747
15599W        W58652  25.636  21.283   6.048  0.0421  0.0606  0.1862
15600W        W58653  26.946  19.522   9.870  0.2079  0.2144  0.1641
15601W        W58654  20.836  24.049   1.459 -0.1719 -0.0606 -0.0174
15602W        W58655  11.552  13.364   8.680  0.0476  0.1493 -0.2460
15603W        W58656  32.601  25.056  28.072 -0.0028  0.1803 -0.1542
15604W        W58657  18.930  23.031   1.034 -0.1172 -0.0347 -0.0906
15605W        W58658   5.343  19.805  28.555 -0.4346 -0.1165  0.0185
15606W        W58659  19.425  26.742  28.418 -0.0990 -0.3055 -0.1164
15607W        W58660  25.640  25.192   4.813  0.1508  0.0206 -0.2650
15608W        W58661  22.534  24.927   3.234  0.1313 -0.0587 -0.5351
15609W        W58662  16.111  25.056  22.930 -0.1954 -0.4876  0.0186
15610W        W58663  26.045  25.151  23.881  0.2500 -0.1951  0.0293
15611W        W58664  23.521   5.805  22.118 -0.3054 -0.1181 -0.2273
15612W        W58665  19.740  17.828   7.040 -0.1673 -0.2148 -0.1978
15613W        W58666  28.069  18.161  10.240 -0.0415  0.2391 -0.0644
15614W        W58667   0.708  13.227   6.799 -0.0326  0.0174  0.0581
15615W        W58668  20.931  22.074  14.787 -0.0661  0.0037  0.0883
15616W        W58669  25.810  21.007   6.512 -0.0371 -0.0967 -0.3349
15617W        W58670   0.526  30.001   2.473  0.1108  0.1774 -0.1991
15618W        W58671   4.742  28.157  29.088 -0.2788  0.1041  0.2063
15619W        W58672  22.264  22.275   8.103  0.2030 -0.4264 -0.0810
15620W        W58673  27.334  23.624   9.059  0.1718  0.0009  0.0279
15621W        W58674  18.220  10.129  27.210 -0.4286  0.1245  0.2565
15622W        W58675   5.422  22.933  26.177 -0.1652  0.0689 -0.4543
15623W        W58676  24.193   0.826   7.707  0.2846  0.1758 -0.0402
15624W        W58677  19.050  32.626  24.374 -0.2307  0.1164  0.0458
15625W        W58678   3.514   3.538   9.222 -0.2909  0.0954  0.1923
15626W        W58679  34.102   4.015   5.415 -0.1036 -0.0337 -0.1750
15627W        W58680  18.056   7.861   7.048  0.1702 -0.2534  0.3606
15628W        W58681  19.902  11.779  27.241 -0.1492  0.1963  0.0147
15629W        W58682  14.613  22.643   8.659  0.1281  0.0685 -0.3374
15630W        W58683  16.656  30.199   1.564 -0.2208  0.3454  0.0115
15631W        W58684  21.148  19.720   8.900 -0.0862 -0.1039  0.1465
15632W        W58685  10.434  29.167   8.846 -0.1088  0.1114  0.2126
15633W        W58686   0.437   2.449   6.556  0.1305  0.0306  0.1151
15634W        W58687  18.740  10.149   3.005 -0.1299  0.2474  0.0140
15635W        W58688   5.237  32.827   2.905  0.2049 -0.3226  0.4074
15636W        W58689  22.069  29.116  22.285 -0.2368  0.0886  0.0209
15637W        W58690  27.153   0.245   2.699 -0.1687 -0.4875 -0.1096
15638W        W58691  23.758   5.723   5.438 -0.2872 -0.1964  0.2173
15639W        W58692  14.222  20.489   8.152 -0.1041 -0.0337 -0.0309
15640W        W58693  24.103  25.284   6.797 -0.0672 -0.1136  0.0762
15641W        W58694  25.098  12.163  24.871  0.0452 -0.0190 -0.1793
15642W        W58695   7.085  29.869   3.112 -0.1701 -0.2014  0.0243
15643W        W58696  12.925  16.682   6.130 -0.0235 -0.3773  0.1439
15644W        W58697   0.116   1.316   8.116  0.1395 -0.0202 -0.1775
15645W        W58698  33.041  26.951   2.353 -0.1301 -0.2977 -0.0879
15646W        W58699  23.397  16.826   3.530  0.0354 -0.1065  0.3072
15647W        W58700  19.399   0.291   7.705 -0.1857 -0.0359  0.1741
15648W        W58701  17.055  19.048   7.700 -0.1452  0.0544 -0.1873
15649W        W58702  31.718  12.027   6.828  0.4557 -0.2096  0.1916
15650W        W58703  18.819  21.135   6.614  0.2586  0.3966 -0.3585
15651W        W58704  11.152  33.034  22.919  0.2069 -0.1828 -0.0897
15652W        W58705  29.303  23.359   9.410 -0.1097  0.2373 -0.4376
15653W        W58706  32.302  20.474   7.453  0.0468 -0.0237  0.0777
15654W        W58707   8.601   4.359  15.876  0.1092 -0.2850  0.0591
15655W        W58708  17.619  25.086   0.632 -0.0793 -0.3108  0.0999
15656W        W58709  14.109  17.616   1.217  0.1645 -0.1002  0.2392
15657W        W58710  22.052  24.079  10.888 -0.2284  0.2797 -0.2122
15658W        W58711  17.210  22.529   9.520 -0.1274  0.0310  0.0789
15659W        W58712  27.344  20.490   7.658  0.0302  0.1120  0.2542
15660W        W58713  20.428  28.164  17.854  0.2590  0.1814 -0.2411
15661W        W58714   7.532  12.816   5.768  0.1169 -0.0893  0.0981
15662W        W58715   8.301  17.602   8.189 -0.2649  0.0488  0.0395
15663W        W58716  20.697  15.858  28.223 -0.2097  0.2865 -0.0232
15664W        W58717  19.925  31.274  21.874  0.1074  0.1561 -0.1969
15665W        W58718  32.857  10.871   7.792 -0.2958 -0.1958  0.3367
15666W        W58719   0.785  17.839  20.909 -0.2193  0.1570 -0.0328
15667W        W58720  22.469   3.741  28.878  0.1522 -0.0136 -0.2337
15668W        W58721  20.958  31.359  25.878  0.0286 -0.2172  0.0882
15669W        W58722   3.809  10.039  27.369  0.3008 -0.2962 -0.1056
15670W        W58723  28.749  10.292   9.080 -0.1142  0.1009 -0.0065
15671W        W58724  27.929  32.055   8.920 -0.5255  0.2550  0.3892
15672W        W58725  18.731  30.181   3.632 -0.0159 -0.4383 -0.0707
15673W        W58726  21.687  21.100  28.233  0.3607 -0.2590  0.0032
15674W        W58727  19.017  23.816  28.132  0.1906  0.1625  0.1351
15675W        W58728  29.133  24.409  26.039  0.0327  0.1611  0.3433
15676W        W58729  16.532  15.900  25.745  0.1241  0.2553  0.1351
15677W        W58730  29.637  13.458  20.630  0.0999  0.0458  0.2818
15678W        W58731  14.154  25.050   5.475  0.1799  0.0626  0.0231
15679W        W58732  17.409  16.454  25.061 -0.3817 -0.0317  0.2219
15680W        W58733  26.745  19.747   9.400 -0.0669  0.0070 -0.2381
15681W        W58734  32.235  29.534   2.301 -0.0048 -0.1721 -0.3363
15682W        W58735  23.470  31.924  19.174  0.2491  0.2295 -0.2668
15683W        W58736  12.429  17.086   7.917  0.3641  0.0057 -0.0037
15684W        W58737  30.262  15.168   7.468  0.1323 -0.0404 -0.1128
15685W        W58738  27.293  17.968   5.011  0.0005 -0.2302 -0.1848
15686W        W58739   0.503  29.064   1.425  0.0577  0.4142 -0.1837
15687W        W58740  11.055  25.039   4.699 -0.1406 -0.0991  0.0402
15688W        W58741  26.870  12.969   4.049  0.0510  0.1374 -0.1469
15689W        W58742  28.991  22.304   1.054 -0.4094 -0.1274 -0.2446
15690W        W58743   0.900  21.100   0.576  0.3130 -0.0395  0.0118
15691W        W58744  23.261  11.810   3.738 -0.4443  0.2076  0.2835
15692W        W58745  14.019  26.582  23.730 -0.0830  0.0356  0.2637
15693W        W58746  30.087  20.585  20.609 -0.1029  0.0786  0.1161
15694W        W58747  18.598   2.526   3.675  0.0290  0.1262 -0.0279
15695W        W58748  32.892   5.461  28.062  0.2176 -0.1617 -0.0269
15696W        W58749  12.901   3.116   8.020  0.0939  0.0395 -0.1860
15697W        W58750  32.210  14.320   7.984 -0.1582  0.3573 -0.0250
15698W        W58751   4.009  29.756   8.888 -0.0324 -0.0690  0.0710
15699W        W58752  23.848  15.788   4.317  0.0739  0.1995 -0.0757
15700W        W58753  17.698  19.227   9.668  0.0822 -0.4610  0.0652
15701W        W58754  12.472   4.503   4.739  0.1510  0.3041  0.1692
15702W        W58755  24.363  25.839   3.106 -0.0361  0.3786  0.0208
15703W        W58756  22.705  25.629   8.469 -0.2643  0.0858  0.0363
15704W        W58757  15.838  16.548  27.540  0.1415  0.2606  0.0361
15705W        W58758  17.414  33.353  10.413 -0.0519  0.0288 -0.2106
15706W        W58759  33.340  16.705  23.715  0.0042  0.3150  0.1219
15707W        W58760  12.659  24.195   1.025  0.0235  0.0972  0.3030
15708W        W58761  18.624  16.241  29.139 -0.1724 -0.2240  0.3179
15709W        W58762   5.970   5.841   7.827 -0.2040  0.1481 -0.2707
15710W        W58763  17.901  27.609   2.182 -0.0054 -0.2633  0.0501
15711W        W58764  17.403  32.334   8.542 -0.1490 -0.0072  0.4129
15712W        W58765  25.103  24.248   7.869  0.0549 -0.0996 -0.1964
15713W        W58766   9.184  17.688   4.547 -0.0140 -0.1242  0.1235
15714W        W58767  23.970  16.454  25.464  0.0683  0.0137  0.2038
15715W        W58768  21.796  29.719   4.756  0.1584 -0.1806  0.0281
15716W        W58769  18.215  29.680   2.663  0.0520  0.0159 -0.2534
15717W        W58770   5.644  15.979   0.886 -0.0605 -0.1716 -0.2337
15718W        W58771  31.463  10.115  23.750 -0.1555 -0.0620  0.1446
15719W        W58772  26.985  26.269   9.734  0.1307 -0.2937 -0.2484
15720W        W58773  15.575  21.319   2.805  0.0114 -0.2850  0.1948
15721W        W58774  20.105  23.895  10.848  0.2266 -0.0678  0.1651
15722W        W58775  20.502  23.232   9.969  0.1424 -0.0047 -0.0202
15723W        W58776   6.562  24.292   2.645 -0.0258 -0.0599 -0.0243
15724W        W58777  26.043  22.274  28.023  0.4533 -0.0288 -0.2336
15725W        W58778  25.968  21.047  28.673 -0.1180 -0.0052  0.2191
15726W        W58779  16.293  28.080   5.250  0.0650 -0.0281 -0.2876
15727W        W58780  21.154  27.141  15.313 -0.3029 -0.1470 -0.2220
15728W        W58781  27.211  25.375  24.383  0.0252  0.1233 -0.1145
15729W        W58782  13.846  21.696   2.994 -0.1044  0.0555  0.3795
15730W        W58783  12.500  12.111   5.786  0.1213 -0.0541  0.1083
15731W        W58784  18.555  23.403   2.911 -0.0005  0.2300 -0.3588
15732W        W58785  22.525  29.924   1.544 -0.1714  0.0109 -0.0444
15733W        W58786   4.091  25.815  25.469 -0.0056 -0.0241  0.1820
15734W        W58787  25.895  24.751   9.374  0.2078 -0.1256  0.3168
15735W        W58788  31.399  21.371   6.749  0.1052 -0.3168 -0.1386
15736W        W58789  17.885  21.749  28.705  0.1331  0.0971  0.0072
15737W        W58790  23.864  15.221  28.567  0.0016  0.1036 -0.1757
15738W        W58791  28.680  13.231  28.361  0.0917  0.1721 -0.1136
15739W        W58792  16.484  33.042   5.030 -0.2409  0.2389  0.1733
15740W        W58793  27.516  11.007  17.209 -0.0946 -0.2950  0.0581
15741W        W58794  27.081  29.818  28.610  0.1694 -0.2134  0.2750
15742W        W58795  20.970  27.262   8.215 -0.0692  0.3066  0.2672
15743W        W58796  22.386  27.621  27.646  0.1637 -0.3753  0.0834
15744W        W58797  29.768  31.296   2.670  0.2655 -0.1598  0.3126
15745W        W58798  20.664  24.585  28.550 -0.2735  0.1379  0.2527
15746W        W58799   9.585  20.213   8.062 -0.1331  0.3267 -0.0338
15747W        W58800   1.961  24.806  27.288 -0.0833 -0.0531  0.2501
15748W        W58801  18.538  30.961   7.447  0.0136  0.0421  0.0039
15749W        W58802   9.430  27.213  25.114  0.3323  0.2971 -0.0084
15750W        W58803   6.157  28.286  27.776 -0.1317 -0.0055 -0.2029
15751W        W58804  18.587  32.271   2.538  0.1411 -0.0634  0.1208
15752W        W58805  20.732   3.529   2.253 -0.6029 -0.1535 -0.0882
15753W        W58806  17.872   6.601   2.737  0.4175  0.0402 -0.1410
15754W        W58807  29.876  26.113  27.855 -0.0435 -0.2174  0.2362
15755W        W58808  24.175  10.270  10.212 -0.2516  0.0927 -0.0590
15756W        W58809  22.425  22.971  25.173  0.1418  0.0464 -0.0816
15757W        W58810  29.161  33.582   0.386 -0.2548 -0.0277  0.0387
15758W        W58811  14.781  28.830   5.484  0.2258 -0.0580  0.0339
15759W        W58812  33.678   2.417  22.566 -0.0617 -0.0292 -0.2085
15760W        W58813   2.643  29.684   8.916 -0.3100  0.1792  0.3015
15761W        W58814   1.438  21.977  19.401  0.2004 -0.3712  0.0177
15762W        W58815  24.658  34.564   1.536  0.0291 -0.2339 -0.1455
15763W        W58816  14.039  21.999   3.354  0.1348  0.0059  0.2383
15764W        W58817  25.164  20.742  25.883  0.4431 -0.0889  0.0662
15765W        W58818  16.138  24.760   7.084 -0.0597 -0.1717 -0.2690
15766W        W58819  22.094  31.101  23.657  0.1822  0.0088 -0.0542
15767W        W58820  18.808  31.610   9.862 -0.4676  0.0847 -0.1117
15768W        W58821   1.634  22.394  21.646  0.1669  0.1299  0.1499
15769W        W58822  12.332  29.403   4.076 -0.0789 -0.0503  0.0832
15770W        W58823  14.303   0.164  27.709 -0.3540  0.3806  0.3918
15771W        W58824  20.960  23.585   9.450 -0.4060  0.1858 -0.0082
15772W        W58825  25.062  17.976  25.233  0.1077 -0.2658 -0.1189
15773W        W58826  27.451  23.030   4.241 -0.1534  0.1293 -0.1828
15774W        W58827   2.202  20.858   1.047 -0.0450 -0.0562 -0.0966
15775W        W58828  21.233  21.175  20.289  0.0911  0.0240  0.2647
15776W        W58829  16.827  12.784  28.329  0.1853  0.0341 -0.2083
15777W        W58830  18.572  27.402   4.611  0.0975  0.0305 -0.1763
15778W        W58831  16.411  16.889  28.424 -0.2506  0.0204  0.2938
15779W        W58832  19.997  12.996  29.075  0.0227  0.0650 -0.1138
15780W        W58833  29.014  21.825   8.210  0.2658 -0.1397  0.0711
15781W        W58834  22.488  29.566   9.625 -0.1622 -0.0521 -0.3072
15782W        W58835  13.923   6.511   5.804  0.0324  0.3125  0.0317
15783W        W58836  29.181  17.253  26.921 -0.0511 -0.2439 -0.4193
15784W        W58837  22.510  28.220   8.153 -0.0162  0.1333  0.3470
15785W        W58838  23.734   3.121  28.161 -0.0984  0.0318 -0.1281
15786W        W58839  19.739  21.668   4.965  0.2602  0.2737 -0.0067
15787W        W58840  23.001   2.582   7.270 -0.1566  0.0712 -0.1849
15788W        W58841  32.209  18.712   5.510 -0.4246  0.0286 -0.2571
15789W        W58842  16.676  17.744   3.144  0.2945 -0.4089  0.0822
15790W        W58843  13.566  10.608   2.154 -0.1354  0.1789 -0.3907
15791W        W58844  15.327  19.693   7.391  0.0259 -0.3911 -0.1159
15792W        W58845  33.188  21.435  26.122  0.0168 -0.0246  0.1102
15793W        W58846   6.267  23.431   7.725  0.2128  0.1005  0.0852
15794W        W58847   9.831  29.423   6.733  0.1429  0.2887 -0.0256
15795W        W58848  26.649  34.002   4.195  0.0018  0.0368  0.0091
15796W        W58849  31.111  30.313   1.620 -0.1644  0.0696  0.0056
15797W        W58850  28.927  24.775  23.317 -0.0308 -0.3318 -0.1028
15798W        W58851  15.733  22.468  10.366  0.1681 -0.0877 -0.0254
15799W        W58852  18.946  30.979   7.876  0.1495  0.3254 -0.0599
15800W        W58853  21.106  10.483   0.368  0.0518 -0.1765  0.0989
15801W        W58854   1.442  27.409   4.023  0.0641  0.0992 -0.1072
15802W        W58855  22.438  18.302   9.368  0.3149 -0.2173 -0.0235
15803W        W58856   3.876  32.217   2.859 -0.0701 -0.1346 -0.0082
15804W        W58857   2.148  23.276  27.569 -0.2326 -0.3510 -0.0008
15805W        W58858  19.185  18.303   6.474  0.0360  0.0778  0.0060
15806W        W58859  10.303  27.481   8.099 -0.2821 -0.1206 -0.1746
15807W        W58860  22.267  26.800   7.955 -0.0440 -0.1468 -0.1019
15808W        W58861  22.618  15.659   4.735  0.0095  0.2470  0.1957
15809W        W58862  31.554  20.473  27.878  0.0655  0.2602  0.4054
15810W        W58863  17.490  15.816   2.016 -0.0132 -0.0274  0.1390
15811W        W58864  11.223  19.317   8.241  0.1759 -0.4010 -0.1081
15812W        W58865  26.758   2.944  28.902  0.1816 -0.3158 -0.1171
15813W        W58866  32.172  28.747   9.569  0.1445 -0.0444 -0.3308
15814W        W58867  16.211  32.967   5.437  0.0938 -0.1978  0.1442
15815W        W58868  22.595  26.972   4.878 -0.0606  0.1683  0.1565
15816W        W58869   0.032  21.942   6.503  0.3373  0.2667 -0.3145
15817W        W58870  15.728   4.886  26.530 -0.1805  0.1806 -0.0817
15818W        W58871  18.884   5.954   0.197 -0.0087  0.0659  0.0503
15819W        W58872  15.778  23.212   1.971 -0.2577  0.2558  0.1722
15820W        W58873  17.626  31.484   8.552  0.0823 -0.2729 -0.0011
15821W        W58874  15.801  14.869   6.642 -0.1005 -0.0410  0.0646
15822W        W58875  17.038  22.735   7.022 -0.3554 -0.0736  0.4345
15823W        W58876   1.965  27.351   8.205 -0.0487 -0.0605 -0.0373
15824W        W58877  13.596  17.001   8.087 -0.0594  0.0565  0.1620
15825W        W58878  11.040  18.471  20.371 -0.2021 -0.2419  0.1100
15826W        W58879  31.068  29.963   8.710  0.0000  0.5751  0.1617
15827W        W58880  18.675   2.142  17.815  0.1713  0.1300 -0.0166
15828W        W58881  23.327  15.794   7.685 -0.0252  0.0034 -0.1974
15829W        W58882  17.527   6.072  10.429 -0.1041  0.4095  0.0863
15830W        W58883  28.261  28.455   7.354  0.0312  0.2889 -0.1878
15831W        W58884   8.819  13.088  28.111  0.1109  0.1419  0.2743
15832W        W58885  27.459  30.095  28.525  0.1176 -0.5657 -0.2576
15833W        W58886   5.157  32.689  19.910 -0.1743  0.0643 -0.2007
15834W        W58887  16.817  34.418   1.125 -0.2619 -0.3695 -0.0152
15835W        W58888   9.666  27.531   3.416 -0.2107 -0.4363 -0.0721
15836W        W58889  15.506  23.517  28.385 -0.1448 -0.0152 -0.2022
15837W        W58890  20.494   6.125   4.523 -0.0948  0.1012  0.0380
15838W        W58891  30.455  20.653   6.873 -0.1578  0.1826 -0.3283
15839W        W58892  11.834  18.028   2.301  0.3773 -0.0275 -0.2416
15840W        W58893  12.686  28.259  25.633 -0.0998  0.0570  0.0564
15841W        W58894  20.838  32.673   3.374 -0.3567  0.1225  0.0211
15842W        W58895  25.909  29.367   5.842  0.1413  0.1224  0.0575
15843W        W58896  23.937  27.075  14.011 -0.0975  0.1590 -0.1585
15844W        W58897  26.442  28.829  20.134  0.0462 -0.0768  0.2599
15845W        W58898  24.557   0.101   9.686  0.0024  0.0840 -0.1599
15846W        W58899  15.421  28.808   7.293 -0.3512  0.0916 -0.4176
15847W        W58900  18.287   3.145  18.500 -0.0676  0.0585  0.0417
15848W        W58901  31.696  16.464   6.715 -0.0421  0.0308 -0.2463
15849W        W58902  28.227  12.327   2.436 -0.1761  0.1105 -0.0379
15850W        W58903  10.415  21.259   2.690  0.0965 -0.0606  0.0063
15851W        W58904  31.318  21.699   7.128  0.1458 -0.0566  0.0643
15852W        W58905  11.198  21.973   9.633  0.0166  0.2344  0.0704
15853W        W58906   4.341  29.635   7.813  0.1745 -0.0536 -0.1329
15854W        W58907   9.983  17.064   6.486  0.0480 -0.2033  0.1841
15855W        W58908  19.030  31.708   7.340 -0.3175  0.0994  0.0215
15856W        W58909  26.333  13.531   5.120  0.0735 -0.2021  0.2045
15857W        W58910  14.253  17.728  28.732 -0.3060  0.2423 -0.1487
15858W        W58911  16.964  26.735   2.475 -0.0736 -0.2746  0.0653
15859W        W58912  17.161  23.293   2.983 -0.0180  0.2273 -0.1716
15860W        W58913  29.619  11.673   0.846  0.0798 -0.1443 -0.0471
15861W        W58914  18.488  31.705   9.012 -0.2618 -0.0086  0.1179
15862W        W58915  12.817  31.731  29.056 -0.1769 -0.0233  0.1671
15863W        W58916  18.108  23.494   8.174 -0.0839 -0.0036  0.3048
15864W        W58917  24.157  32.291   3.381  0.0250 -0.3519  0.3004
15865W        W58918  21.733  31.619   4.863 -0.0498  0.2354 -0.3045
15866W        W58919  32.221  33.338   4.392  0.0689  0.0235 -0.0962
15867W        W58920  13.579  17.478   3.447 -0.1693  0.0683 -0.1617
15868W        W58921  26.827  27.679   7.740 -0.2239 -0.0127  0.1694
15869W        W58922  18.624  28.505   5.607  0.4854  0.1879  0.1181
15870W        W58923  26.884  33.260   2.079 -0.2212  0.0146  0.0843
15871W        W58924   9.273  24.644  27.316 -0.0497 -0.0655 -0.0325
15872W        W58925  29.273  23.339   6.797 -0.4122 -0.1884  0.1061
15873W        W58926  14.729  15.607   2.220 -0.0679 -0.0553 -0.1539
15874W        W58927  20.464  13.874   3.529 -0.1746  0.0348 -0.0418
15875W        W58928  28.852  10.938  10.325  0.1703 -0.3077 -0.3523
15876W        W58929  27.107  31.195   6.476  0.2809  0.0696  0.1203
15877W        W58930  30.651  28.824  23.781 -0.1045  0.0985 -0.2244
15878W        W58931  23.723  31.668  27.023  0.2275 -0.0818  0.1817
15879W        W58932  18.623  25.458  10.975  0.0904 -0.0227  0.2856
15880W        W58933  17.477  32.521   9.681 -0.3571 -0.3827  0.1316
15881W        W58934  15.538  30.306  10.135  0.0404 -0.1350 -0.1383
15882W        W58935  20.919   3.580   0.916  0.5148 -0.0316 -0.0172
15883W        W58936  24.849  33.762   6.941 -0.0782  0.0767  0.0855
15884W        W58937  25.212  15.025   2.677  0.3705  0.2615 -0.3487
15885W        W58938  25.349  29.303   7.370  0.1412 -0.0226 -0.1970
15886W        W58939  23.688  33.185   8.962 -0.1470 -0.0370 -0.0314
15887W        W58940  16.119  25.922   9.806 -0.3098  0.3414 -0.0861
15888W        W58941  13.214  21.176  10.004 -0.2145 -0.0133 -0.1837
15889W        W58942   9.688   2.688   5.153 -0.1433  0.0395 -0.1404
15890W        W58943  18.542   6.525   7.842  0.1903 -0.1042 -0.0211
15891W        W58944   4.864  22.773  29.095 -0.1272 -0.2078  0.1757
15892W        W58945  14.022  18.191   4.668  0.1665  0.1456  0.0167
15893W        W58946  20.115  32.712   8.885  0.4131  0.0594 -0.5172
15894W        W58947  31.183  31.686   4.166 -0.1279 -0.0343 -0.0133
15895W        W58948  21.634  20.792  22.093 -0.3425 -0.2322 -0.1862
15896W        W58949  18.176  10.003   3.218 -0.2361 -0.0944  0.3102
15897W        W58950   3.300  22.175   4.675  0.3340 -0.0248 -0.0149
15898W        W58951  26.362  24.931   1.391 -0.1270 -0.1934 -0.0723
15899W        W58952   6.568  19.277   3.639 -0.0264 -0.1376  0.0554
15900W        W58953   3.454   9.609   6.674  0.1001 -0.1196  0.2023
15901W        W58954  19.996  26.292   7.230 -0.3816 -0.0696 -0.0469
15902W        W58955  24.766  31.500   8.471 -0.0522  0.0768 -0.0119
15903W        W58956  10.290  31.959  27.757 -0.0582 -0.0945 -0.1626
15904W        W58957  29.964  22.907   9.276 -0.0581 -0.2319  0.1370
15905W        W58958  21.152  23.642  10.999 -0.0043  0.0327 -0.0188
15906W        W58959  10.876  13.940   4.135  0.1904  0.0725  0.4322
15907W        W58960  30.516  29.310   8.924  0.1685  0.0909  0.0799
15908W        W58961  29.069   2.944   2.811 -0.0755  0.1828  0.0921
15909W        W58962  24.063  16.784   8.009 -0.0407  0.1746  0.4450
15910W        W58963  12.301  24.999   9.685  0.0898  0.0024  0.0322
15911W        W58964  28.263  30.860  17.510 -0.1124 -0.1520 -0.0137
15912W        W58965  25.965  18.256  24.603  0.0163 -0.0391 -0.0289
15913W        W58966  18.848  30.714   6.166  0.2571  0.1468 -0.1500
15914W        W58967  25.130  31.408   6.353  0.1541  0.1680 -0.2234
15915W        W58968  21.038  30.527   9.956 -0.2050  0.0026  0.0691
15916W        W58969  19.354  16.787   1.965 -0.1546  0.1089 -0.0491
15917W        W58970  25.485  10.884  19.691 -0.1560 -0.1625  0.0052
15918W        W58971  18.174  11.348   1.481 -0.3681 -0.1958  0.3349
15919W        W58972  19.754  21.848   4.418  0.1252  0.1364  0.1734
15920W        W58973  16.681  17.549   9.508  0.1664 -0.3510  0.0907
15921W        W58974  16.879  23.549   3.348 -0.0566  0.4912  0.0090
15922W        W58975  29.611  24.687   9.899  0.0367 -0.0465 -0.0054
15923W        W58976  12.757  25.251   6.167  0.2511 -0.0418 -0.0195
15924W        W58977   9.641  25.720   1.983  0.0591  0.3072  0.1593
15925W        W58978  12.012  18.738  25.484  0.1908  0.0625  0.0821
15926W        W58979  28.318  21.971  26.276  0.0484 -0.0807 -0.0185
15927W        W58980  17.012  24.352   1.423 -0.1720  0.2059 -0.1708
15928W        W58981  23.793  31.123  19.343 -0.0980 -0.2278 -0.0496
15929W        W58982  21.545  30.135   5.206 -0.4049  0.0916 -0.1219
15930W        W58983  17.566  25.991   4.824  0.0737  0.0649  0.2260
15931W        W58984  20.357  11.953  10.464 -0.0167  0.0509 -0.1382
15932W        W58985  28.461  31.981  26.380  0.1077  0.0107 -0.1837
15933W        W58986  20.546  19.724   2.111 -0.1016 -0.1193  0.3578
15934W        W58987  20.670  16.983   3.248  0.0486  0.0360  0.3051
15935W        W58988  32.143  17.215   2.317 -0.2640  0.2289  0.2680
15936W        W58989   6.788  17.758  28.842 -0.0508  0.0849 -0.1304
15937W        W58990  24.911  33.890  27.598 -0.0586 -0.0700  0.2905
15938W        W58991  26.163  22.619   6.848 -0.1145  0.1094 -0.1653
15939W        W58992  17.763  23.078   0.130  0.0752  0.2780  0.1433
15940W        W58993  29.315  15.388  16.908  0.2718  0.1211 -0.1262
15941W        W58994  25.654   7.279  21.871  0.3771 -0.0284  0.0878
15942W        W58995   8.853  24.305   3.459 -0.1575  0.0777  0.1537
15943W        W58996  21.447  16.965  29.079 -0.1040  0.0070  0.0012
15944W        W58997  11.574  17.331   0.604  0.1436  0.3867  0.0870
15945W        W58998  14.670  26.067   6.900  0.1729 -0.0875 -0.2369
15946W        W58999  14.572  17.320   1.968 -0.0269  0.0418  0.0226
15947W        W59000  24.703  33.607   0.597 -0.1824  0.5033 -0.2318
15948W        W59001  20.369  26.992   0.015  0.0273 -0.2144 -0.1082
15949W        W59002  30.282  17.321   2.719  0.4906  0.4323 -0.2884
15950W        W59003   3.364  21.714  25.618 -0.3658  0.2734 -0.0243
15951W        W59004  22.570  16.677   8.873 -0.1793 -0.0096  0.2816
15952W        W59005  25.575  29.621   1.186 -0.3763  0.2352  0.1134
15953W        W59006  11.624   7.031   4.981  0.1322 -0.1197  0.0066
15954W        W59007  14.156  29.212  28.831  0.0761 -0.2933  0.0846
15955W        W59008  23.990  25.872   7.723  0.4197 -0.0484  0.1542
15956W        W59009  17.531  26.449   5.053 -0.3760 -0.1270 -0.1292
15957W        W59010  11.881  19.009   8.991 -0.0646  0.1688 -0.0974
15958W        W59011  33.523  29.656   5.024 -0.2608  0.1108 -0.3145
15959W        W59012  16.013  18.743   9.820  0.0805  0.1257  0.1406
15960W        W59013  11.338  20.480  25.771 -0.2197 -0.1700 -0.0057
15961W        W59014  29.332  32.838   4.564 -0.2184 -0.0005  0.2542
15962W        W59015  13.738  15.395  28.543 -0.0821 -0.2179 -0.0030
15963W        W59016  18.376  29.240   8.407  0.1715 -0.2346  0.1480
15964W        W59017  22.844  21.183   5.162  0.3107 -0.0010 -0.1215
15965W        W59018  23.667  32.681   9.241  0.0614  0.2982 -0.1457
15966W        W59019  22.977   2.186   2.857  0.0539 -0.1116  0.0840
15967W        W59020   4.913  32.438   2.743  0.1165  0.1179 -0.0590
15968W        W59021   4.366  18.927   5.469 -0.0969  0.1360  0.1655
15969W        W59022  27.517  29.342   7.313 -0.1259  0.1685 -0.4148
15970W        W59023  17.289  21.747  22.228 -0.0532  0.1885  0.0488
15971W        W59024  17.913  11.796   1.541 -0.4343 -0.1709 -0.1750
15972W        W59025  30.853  13.438   8.634  0.1663 -0.3795 -0.0394
15973W        W59026   0.796  15.316  20.307  0.3596 -0.1459 -0.3320
15974W        W59027  13.284  18.349   1.113 -0.1450  0.1612  0.1320
15975W        W59028  17.719  19.543   7.739 -0.1377 -0.0105 -0.0626
15976W        W59029  26.944  16.472   2.557 -0.1987  0.0004 -0.1054
15977W        W59030  26.565  14.169   7.849 -0.2696  0.3735 -0.3529
15978W        W59031  14.733  23.853  28.963 -0.2636 -0.0052  0.3518
15979W        W59032  11.557  10.728   9.745  0.2475  0.1097  0.1369
15980W        W59033  19.956  31.989   7.947  0.1178 -0.1106 -0.2649
15981W        W59034   7.744  12.597  25.663 -0.1802  0.2824  0.1174
15982W        W59035  11.824  13.990   2.525 -0.0402 -0.1710  0.0132
15983W        W59036  28.105  19.316   6.085 -0.0532  0.0398 -0.0451
15984W        W59037  27.120  16.369   8.948  0.0668  0.0033  0.0255
15985W        W59038   7.559  12.231  23.348 -0.1196 -0.0287  0.0386
15986W        W59039  23.954  23.838   3.233 -0.0632  0.1462  0.0632
15987W        W59040  16.538  27.649  23.250 -0.2960  0.1328 -0.0153
15988W        W59041  29.143  25.214   2.207 -0.3163  0.0495  0.2196
15989W        W59042  23.753  16.221   8.806  0.0669  0.3525 -0.0427
15990W        W59043   7.868  14.385  28.284 -0.3635  0.0955 -0.1551
15991W        W59044  11.429   2.817  23.348 -0.0532 -0.3022 -0.1855
15992W        W59045  32.962  32.057   5.417  0.4836 -0.2625 -0.1314
15993W        W59046  19.602  10.276   9.539  0.2196 -0.0514  0.2277
15994W        W59047  19.082  27.697  17.504  0.1175 -0.1904  0.0062
15995W        W59048   4.629  32.542  13.746 -0.0737 -0.0986 -0.0610
15996W        W59049   9.302   2.504   2.695 -0.0267  0.1137  0.0004
15997W        W59050  16.819  10.477   8.545 -0.0174 -0.1256  0.1984
15998W        W59051  14.827  20.162   5.129  0.4398 -0.1563 -0.1369
15999W        W59052  14.043  17.655  26.273 -0.1828 -0.1248 -0.1794
16000W        W59053  23.935  22.247  22.652 -0.2060  0.1444  0.1318
16001W        W59054  10.305  13.744  25.841  0.1962 -0.1570 -0.2021
16002W        W59055   3.376  13.449   0.907 -0.0026  0.0631  0.2459
16003W        W59056  13.326  21.310   8.951  0.1710 -0.3689  0.0973
16004W        W59057  15.420  22.165   4.009  0.4853 -0.0478  0.2887
16005W        W59058  14.490  28.831  27.958 -0.2084  0.1896 -0.1526
16006W        W59059  29.101  30.663   4.969  0.1522 -0.2935  0.0519
16007W        W59060   7.620  18.705  26.402 -0.1492  0.0235 -0.0787
16008W        W59061   1.336   1.829   6.931 -0.0047 -0.0038 -0.2956
16009W        W59062  21.847  31.636   6.255 -0.0151  0.0711 -0.0180
16010W        W59063  17.143  34.322   9.790 -0.1491  0.0291 -0.0050
16011W        W59064  14.686  32.929  23.786  0.2084  0.0115  0.0431
16012W        W59065  16.555  21.260   2.418 -0.5342  0.1185 -0.0841
16013W        W59066  27.053  10.304   6.723  0.1688 -0.0530 -0.1465
16014W        W59067   7.529  29.331   2.602  0.2194 -0.0316  0.0471
16015W        W59068  16.018   0.501  23.953 -0.2454  0.1861  0.2536
16016W        W59069  16.173  13.937   1.332  0.0055  0.1683  0.1371
16017W        W59070  25.078  33.932   3.159 -0.0192  0.3597  0.0721
16018W        W59071   8.123   0.023   3.597 -0.1326  0.2441  0.0463
16019W        W59072   5.211  23.077   5.392 -0.1614 -0.0087 -0.0381
16020W        W59073  20.175  28.586  10.057 -0.0481  0.2731 -0.0024
16021W        W59074   5.618  17.335   7.944  0.0085  0.1113  0.0859
16022W        W59075  14.724  22.914   4.042  0.1103 -0.0851 -0.0101
16023W        W59076  12.256  20.629   4.798 -0.3510  0.2088 -0.1127
16024W        W59077  20.907  16.280   5.094  0.1302 -0.1741  0.2068
16025W        W59078  30.875  21.173   5.395 -0.4841 -0.0315  0.1968
16026W        W59079  29.380  23.462  28.905 -0.2786  0.2141 -0.1005
16027W        W59080   6.718  23.051   8.598  0.2754 -0.1564  0.1530
16028W        W59081  23.170  31.287  28.440  0.1639 -0.1544  0.2055
16029W        W59082  18.472  18.694   2.210 -0.0359  0.0851 -0.3151
16030W        W59083   7.381  20.868  22.512 -0.2965  0.1220 -0.0381
16031W        W59084   1.843  18.144  26.630 -0.2110 -0.2624  0.2200
16032W        W59085  33.379  28.958   5.870  0.0559 -0.2075  0.1135
16033W        W59086  22.489   5.448   2.093 -0.0836 -0.3214  0.1097
16034W        W59087   3.473  24.443   7.049 -0.2672 -0.1347  0.3924
16035W        W59088  25.537  19.853  27.548 -0.1318 -0.0710  0.3671
16036W        W59089   6.542   4.184   0.477 -0.1419 -0.4412 -0.1968
16037W        W59090  20.295  10.093   6.675  0.0711 -0.2803 -0.3215
16038W        W59091  27.591   2.108   7.417 -0.0382 -0.0775 -0.1554
16039W        W59092   1.139  29.923   8.333 -0.2121 -0.0337  0.1210
16040W        W59093  22.643  27.938   9.519  0.1225  0.2218 -0.0077
16041W        W59094  21.945  23.167  25.066  0.2541  0.0594 -0.0543
16042W        W59095  15.886  28.633   4.355  0.0556 -0.1926  0.1051
16043W        W59096  20.681  20.765  29.183 -0.4114  0.0566 -0.1267
16044W        W59097  12.436  31.881   4.203  0.1130 -0.0429 -0.1669
16045W        W59098  25.422  18.241   2.972  0.2112  0.0481  0.3386
16046W        W59099  20.426  30.052  16.519  0.0990 -0.3751 -0.1191
16047W        W59100  19.331  23.970   6.344  0.2047 -0.0269 -0.2510
16048W        W59101  23.847  18.317   6.807  0.1447 -0.1902 -0.0732
16049W        W59102   7.735  13.684   0.754 -0.0923  0.1661 -0.1725
16050W        W59103  10.309  25.017   7.151  0.0863  0.1008 -0.0255
16051W        W59104  27.939   6.979   9.835 -0.1436 -0.0591 -0.0436
16052W        W59105  18.161  28.916   1.940 -0.1119  0.2123  0.1627
16053W        W59106   8.805  29.580   8.197 -0.2980 -0.2809 -0.1885
16054W        W59107  27.380  24.820  27.589 -0.0793  0.0461 -0.2191
16055W        W59108  21.465  21.265   4.657 -0.2468 -0.1877  0.3879
16056W        W59109  21.754  14.291   5.339 -0.0623  0.2533  0.0624
16057W        W59110  20.170  22.661   4.750 -0.2588 -0.0437 -0.0919
16058W        W59111  12.855  21.326   5.350  0.1292  0.0420  0.1033
16059W        W59112  24.930  18.198   6.570 -0.0680 -0.0239  0.1997
16060W        W59113  13.497   0.634  23.822 -0.0443 -0.0962 -0.2728
16061W        W59114   7.416  21.555   8.096  0.2542 -0.3759 -0.1312
16062W        W59115  33.602  14.688   0.549 -0.0613  0.0528 -0.2689
16063W        W59116  17.128  23.608  10.902 -0.1187 -0.2630  0.0033
16064W        W59117   5.836  27.368   4.121  0.1308  0.4422  0.2569
16065W        W59118  17.133  24.335   9.642 -0.2449  0.2355  0.1337
16066W        W59119  27.019  23.538   3.133  0.2454 -0.0065 -0.1557
16067W        W59120   2.031  29.907   0.790 -0.0517  0.0180 -0.0929
16068W        W59121  14.925  33.782  26.458 -0.2050  0.1102 -0.2288
16069W        W59122  16.879  23.604   6.835  0.1656  0.2557 -0.1709
16070W        W59123  30.793   8.181   6.518  0.2832  0.1124  0.2483
16071W        W59124  22.880  10.453   8.455 -0.0054  0.2871  0.2914
16072W        W59125  17.481  13.614   9.721  0.0741  0.0391 -0.1739
16073W        W59126  20.261  14.859  28.868 -0.0269 -0.1355  0.3965
16074W        W59127  27.606  30.764   2.415  0.3006 -0.1731  0.3083
16075W        W59128  23.720  24.345   6.162  0.4054 -0.0919 -0.1025
16076W        W59129  29.465  16.668   5.419  0.0963  0.0451  0.1820
16077W        W59130  27.945  22.558   3.280  0.1550 -0.1816 -0.1493
16078W        W59131   5.100   9.290  25.807  0.1025 -0.2931  0.1235
16079W        W59132  30.464   7.989   2.530  0.0863  0.2023 -0.1217
16080W        W59133  19.848  12.123  26.678  0.0430 -0.1766  0.1328
16081W        W59134  26.847  21.620  24.677  0.1311  0.0801 -0.0107
16082W        W59135  19.456  20.635   1.015 -0.1809  0.0265 -0.1499
16083W        W59136  34.233  25.060   0.044 -0.0451 -0.1079 -0.4097
16084W        W59137   9.841  22.227   9.598 -0.1980 -0.1450 -0.3411
16085W        W59138  11.621  25.699   1.788  0.0387  0.3167 -0.1271
16086W        W59139  11.079  18.151  10.404  0.0313  0.2548 -0.3461
16087W        W59140   0.637  31.366   8.726 -0.1684 -0.0328 -0.1825
16088W        W59141  18.073  16.259   5.191  0.0089 -0.0314  0.3623
16089W        W59142  10.726  22.782   3.247  0.0283  0.2601  0.2326
16090W        W59143   7.684  13.789  27.982 -0.0708  0.0345 -0.2546
16091W        W59144  18.659  13.607  28.045 -0.0670  0.1994  0.0620
16092W        W59145  11.425  28.355   5.183  0.0583 -0.1896 -0.1683
16093W        W59146   9.864  30.596   3.669  0.0724  0.0653 -0.0366
16094W        W59147   8.217  24.508   8.327 -0.0307 -0.1737  0.0078
16095W        W59148  11.320  21.020   0.472 -0.0237 -0.1977  0.1270
16096W        W59149  24.301  18.030   7.981  0.1853 -0.1453  0.1110
16097W        W59150  26.093  14.019   9.295 -0.0037 -0.3311 -0.0423
16098W        W59151  27.917  18.454   8.422  0.1269  0.1715 -0.1649
16099W        W59152  24.165  17.375   3.634 -0.3127  0.3762 -0.2153
16100W        W59153   3.669   1.374  28.567 -0.2019  0.1856  0.1691
16101W        W59154  24.563  19.760   6.578 -0.2597 -0.0383  0.0210
16102W        W59155  11.577  19.284   9.617  0.0005  0.0277  0.2395
16103W        W59156  12.759  26.419  27.469  0.1259  0.1822  0.0436
16104W        W59157  15.039  29.808   4.766  0.2669  0.3026 -0.0609
16105W        W59158   7.089  13.110   5.654 -0.0139  0.1192  0.2322
16106W        W59159  21.154  30.628  10.436  0.0092  0.0020  0.1841
16107W        W59160   5.904  33.850  25.767 -0.0370 -0.0620 -0.4387
16108W        W59161  15.271   2.925   6.054 -0.1442  0.1858  0.1855
16109W        W59162  13.587  24.825   8.385 -0.1553 -0.0782 -0.0320
16110W        W59163  25.299  18.259   0.933 -0.1809 -0.0661  0.0009
16111W        W59164   3.912  22.003   7.399 -0.3640  0.0358 -0.0096
16112W        W59165  27.004  24.491   2.569  0.0363  0.2969 -0.3063
16113W        W59166   9.752   7.006   1.339 -0.0006  0.0724 -0.1582
16114W        W59167   5.023  17.643   4.044  0.0534 -0.1163 -0.2076
16115W        W59168  29.294  18.777   3.279 -0.0275  0.0839  0.4621
16116W        W59169   8.542  19.660   7.930 -0.0377  0.2761  0.2582
16117W        W59170  14.155  19.521   5.983  0.0025 -0.1462  0.2907
16118W        W59171   2.344  28.427  28.046  0.0419 -0.1207  0.1532
16119W        W59172  12.703  11.473   2.033 -0.0914 -0.1501 -0.1804
16120W        W59173  24.132  22.960   8.276  0.1494 -0.1969 -0.0519
16121W        W59174  28.158   5.590   2.973 -0.0319  0.1070 -0.1315
16122W        W59175  14.515  21.211   7.468  0.0172 -0.0356 -0.0810
16123W        W59176  24.457  24.875   6.263 -0.1331 -0.0828  0.1399
16124W        W59177  18.898  24.569  10.842  0.1677  0.1182  0.0116
16125W        W59178  26.438  14.780   6.714 -0.0146 -0.0238  0.1606
16126W        W59179  25.823  16.974   7.809  0.2168 -0.2162  0.1305
16127W        W59180  19.694  20.295  24.159  0.0992 -0.2237 -0.0454
16128W        W59181  15.366  16.275  28.265 -0.0901 -0.3090 -0.1498
16129W        W59182  22.837   8.562  17.002  0.0975 -0.0265  0.1772
16130W        W59183  21.255  17.785   4.260  0.1667  0.1452  0.0357
16131W        W59184  23.049  15.466  21.262 -0.0237  0.1834 -0.0471
16132W        W59185  19.704  16.690   7.639 -0.1772 -0.0579 -0.0118
16133W        W59186  13.438  16.518   8.918  0.0363  0.1303  0.1808
16134W        W59187  20.308  19.959   7.236 -0.1542  0.0569  0.1709
16135W        W59188  14.259   3.723   7.024  0.1314 -0.0089  0.1374
16136W        W59189   1.517  11.365  27.763  0.0239 -0.2774 -0.0123
16137W        W59190  12.206  23.903   3.804 -0.0808  0.0114  0.0755
16138W        W59191  22.369   1.418   1.864 -0.1030 -0.0118 -0.0485
16139W        W59192  14.631  17.627  14.598  0.2376  0.0925  0.1654
16140W        W59193  28.152  24.420  27.510  0.0608 -0.0012 -0.1257
16141W        W59194   0.282  17.604  26.801 -0.0272 -0.0357 -0.0414
16142W        W59195   9.739  26.623   8.905 -0.1787 -0.1704 -0.0668
16143W        W59196  21.607  21.602   2.934  0.0370 -0.0922  0.1967
16144W        W59197  16.405  23.916  10.270  0.1007  0.0629  0.1617
16145W        W59198  31.369  13.928   8.016 -0.2286 -0.0391  0.2120
16146W        W59199  18.262  22.086   7.415 -0.1057 -0.0695 -0.1951
16147W        W59200  13.483  21.097   2.244 -0.2421  0.1113 -0.1361
16148W        W59201  33.304  32.293  23.697 -0.1333 -0.2021 -0.2331
16149W        W59202  11.892   4.264   8.607 -0.0984  0.3214  0.2414
16150W        W59203  20.276  18.080  22.720  0.3728 -0.2124 -0.0019
16151W        W59204  11.634   5.353   5.200 -0.1303 -0.1572 -0.0899
16152W        W59205  19.476  28.559   5.054 -0.0363 -0.0356  0.1421
16153W        W59206  14.522  21.512   8.790  0.3166  0.0348  0.3587
16154W        W59207  17.514   5.634   9.199  0.0742  0.0722 -0.1682
16155W        W59208  23.429  22.380   9.111 -0.0714  0.0330 -0.1565
16156W        W59209  31.337   5.311   0.775  0.0106  0.0450  0.2854
16157W        W59210  11.520  16.921   5.674 -0.0823 -0.2570 -0.0625
16158W        W59211  20.637  18.274  23.087  0.2854 -0.0812 -0.1464
16159W        W59212   0.951  18.761   3.205  0.0893 -0.1910 -0.1955
16160W        W59213  30.613  21.610   2.553  0.0773 -0.1062 -0.0285
16161W        W59214  15.906  23.306  10.151 -0.0036 -0.0810  0.0953
16162W        W59215  29.782  25.473   7.486  0.1831 -0.0543  0.2360
16163W        W59216  20.549   9.686   6.384 -0.2030  0.1283 -0.0917
16164W        W59217  29.340  13.468  26.279 -0.1716 -0.1011  0.1492
16165W        W59218  31.875  23.038  22.374 -0.0736  0.2907 -0.2233
16166W        W59219   4.839   2.859   7.376 -0.1200 -0.0099 -0.2440
16167W        W59220  22.104  24.614   1.895  0.0550  0.0993  0.3624
16168W        W59221  18.855  27.237   3.416  0.1615 -0.2184 -0.0676
16169W        W59222  19.230   0.808   1.256  0.0306 -0.2479  0.0242
16170W        W59223  23.133   3.184   8.078 -0.0602  0.0638 -0.1787
16171W        W59224  25.445  19.593   9.383 -0.0353 -0.0662 -0.3951
16172W        W59225  22.840   2.231   8.190 -0.0464  0.0881  0.0664
16173W        W59226  19.821  21.883   9.167  0.1138 -0.1607  0.2240
16174W        W59227  30.247   3.472  28.983  0.1792  0.1371  0.1999
16175W        W59228  29.656  16.674  20.345 -0.0146  0.4514  0.0832
16176W        W59229   1.799  33.848   3.625  0.4428 -0.0247 -0.1435
16177W        W59230  32.318  34.583   4.605  0.2654 -0.3418 -0.2990
16178W        W59231  22.306  19.937  26.370 -0.0481 -0.1997  0.1999
16179W        W59232  18.059  14.722   7.406  0.0912 -0.2726  0.1689
16180W        W59233  30.854  16.470   6.530 -0.0140 -0.0663 -0.0542
16181W        W59234  21.277  24.079   6.212 -0.2049  0.1750  0.0060
16182W        W59235  15.642  19.092   0.804 -0.4030 -0.0494  0.0148
16183W        W59236  17.090  29.170   5.349 -0.1281  0.3476  0.0884
16184W        W59237  13.327  22.996   3.987  0.0703 -0.1220  0.2538
16185W        W59238  17.969  21.139   2.862  0.0024  0.1880 -0.0938
16186W        W59239  27.370   3.357  27.096 -0.0384  0.0764 -0.0372
16187W        W59240  18.170   9.775   2.266 -0.2475  0.3434 -0.0701
16188W        W59241  20.884  27.569   9.535 -0.1164  0.0840  0.0490
16189W        W59242   5.179  16.457   1.875 -0.3303 -0.0553 -0.1088
16190W        W59243   5.415  18.607   3.394 -0.0234 -0.0816  0.2609
16191W        W59244  22.112  28.081  15.454  0.0059  0.2198 -0.2078
16192W        W59245  31.437  20.213  26.492  0.1897 -0.0567 -0.3051
16193W        W59246  18.767  13.792   9.171 -0.1309 -0.1363 -0.0520
16194W        W59247  31.682  16.079   9.029  0.1373 -0.0910 -0.2771
16195W        W59248  16.774   5.196   9.589 -0.3557  0.1539 -0.0119
16196W        W59249  17.457  19.650  28.328 -0.0457 -0.1036 -0.1239
16197W        W59250  26.751  27.948   9.032 -0.0017 -0.0290  0.1937
16198W        W59251  19.269  26.110   2.112  0.0401  0.2920  0.0931
16199W        W59252   0.535   9.167  27.604 -0.0893 -0.0710 -0.0163
16200W        W59253  27.966  12.334   6.289 -0.0678 -0.0358 -0.1543
16201W        W59254  10.355  31.570   6.872  0.0833 -0.3279 -0.0277
16202W        W59255   9.693  18.495   5.998  0.2291 -0.1265 -0.3042
16203W        W59256  18.271  21.317  27.437  0.2541  0.0440 -0.1130
16204W        W59257  15.237  11.274   2.129 -0.0658 -0.1276  0.3578
16205W        W59258  34.602  27.159  25.209 -0.1337  0.0248  0.0752
16206W        W59259  24.308  22.350  27.094 -0.1329  0.0599 -0.1947
16207W        W59260   4.251  27.890  25.798 -0.1553 -0.1477  0.1212
16208W        W59261  12.366  16.881  28.298  0.1317  0.1868  0.0951
16209W        W59262  22.659  17.899   5.430  0.1459  0.0545 -0.0547
16210W        W59263  18.675  17.995  28.414 -0.0821  0.3383  0.1058
16211W        W59264  12.020  23.157   7.970  0.0326 -0.1696 -0.0485
16212W        W59265  18.443   7.193   4.623  0.2620  0.0046 -0.0736
16213W        W59266  26.313   4.876   7.482  0.2665  0.1892 -0.1322
16214W        W59267  21.276  25.731   1.694 -0.1948 -0.0969  0.1220
16215W        W59268  24.692  11.518   5.956 -0.1002 -0.1894 -0.2164
16216W        W59269   4.312  33.051   5.231  0.3230 -0.2433 -0.2239
16217W        W59270   6.346  22.652   2.156 -0.0432  0.1604 -0.5046
16218W        W59271  18.596  10.701   9.719 -0.0604 -0.0210  0.1124
16219W        W59272  16.206  27.649   7.321  0.2511 -0.1489  0.1348
16220W        W59273  25.157  26.968   2.754  0.0981  0.3066  0.3639
16221W        W59274   0.815  18.830  27.536  0.1871 -0.4281  0.3474
16222W        W59275  25.357  24.964   1.660 -0.0562  0.0908 -0.0363
16223W        W59276  10.180  11.650  24.070  0.1236 -0.0737  0.0285
16224W        W59277  16.161  33.131   5.974  0.0890  0.1175 -0.1148
16225W        W59278   1.314  32.196   3.914  0.1341  0.1175 -0.2107
16226W        W59279  22.317  30.662   1.906  0.2377 -0.0944  0.0958
16227W        W59280   2.762  25.053   6.159  0.1121  0.1315 -0.0150
16228W        W59281  24.164   0.866   1.934 -0.0847 -0.0719 -0.2571
16229W        W59282  27.869  23.669   3.020  0.2538  0.0914  0.0799
16230W        W59283  21.575  34.354  26.296 -0.0481  0.0161 -0.0725
16231W        W59284  17.302   0.548  28.229  0.4324  0.0215  0.1363
16232W        W59285  15.959  28.166   1.396  0.1852  0.1050 -0.1197
16233W        W59286  22.081  25.379  16.630 -0.0440 -0.1130 -0.0717
16234W        W59287   9.154  13.990  28.840 -0.1814  0.3389 -0.0603
16235W        W59288  28.692   4.034   8.989 -0.2977 -0.2109  0.0422
16236W        W59289   8.702  33.415   3.138  0.4456  0.2103  0.0740
16237W        W59290  29.953  24.545  27.560 -0.0569 -0.0962  0.1894
16238W        W59291  27.098   7.679   9.878 -0.0231  0.2278 -0.1524
16239W        W59292   3.137   5.011  15.291 -0.2010  0.2011  0.0224
16240W        W59293  23.842  22.529   0.041 -0.1298 -0.0888 -0.0124
16241W        W59294  10.015  31.397   2.239 -0.0166 -0.0117  0.0098
16242W        W59295  18.700  26.716   0.841  0.2581  0.1155  0.0847
16243W        W59296  17.604  22.695   1.800 -0.2486 -0.0088  0.1129
16244W        W59297   6.595   2.687  26.415 -0.0687  0.2076  0.2462
16245W        W59298  22.174  29.216  28.291  0.0070  0.1271 -0.0274
16246W        W59299  11.254  10.699  25.591  0.1203 -0.1233  0.1580
16247W        W59300  16.677  24.306   5.164  0.1399  0.0045 -0.2527
16248W        W59301  21.485  26.437  10.210  0.2208  0.1421 -0.3975
16249W        W59302  14.107  30.486  25.839  0.2482  0.1109 -0.0382
16250W        W59303  12.409  17.076  28.785  0.3022 -0.1685  0.3175
16251W        W59304  30.447   2.542  22.305  0.1134  0.0931 -0.3495
16252W        W59305  24.674   4.024   9.095 -0.0239  0.4647 -0.1094
16253W        W59306  26.482  30.439  22.545  0.2409  0.0052 -0.1582
16254W        W59307  20.347   0.967   2.091  0.0296 -0.0317  0.3711
16255W        W59308  33.544   3.288  27.151  0.0923  0.1866  0.3354
16256W        W59309  28.789  24.789   0.666 -0.0266  0.1087  0.2369
16257W        W59310  18.082  29.536   0.819 -0.1267  0.1153 -0.2882
16258W        W59311  29.519  23.101   9.861 -0.1939  0.0290 -0.0779
16259W        W59312  21.161   4.318  28.183  0.2241 -0.1011 -0.1452
16260W        W59313  18.899   6.474  22.780  0.1169 -0.2517  0.3846
16261W        W59314   6.180   0.124   9.676  0.0579  0.1934  0.2497
16262W        W59315  19.633  31.331   5.571 -0.0651  0.2284 -0.0597
16263W        W59316   6.096  34.580  25.482  0.1335  0.0182 -0.1114
16264W        W59317  15.064  29.506   4.319  0.6138  0.3339 -0.0553
16265W        W59318   9.185  20.069   3.120  0.0609  0.1838 -0.0456
16266W        W59319  10.400  22.545  23.443  0.4907 -0.6408 -0.0091
16267W        W59320  21.209  26.308  10.606  0.0689 -0.3897 -0.0554
16268W        W59321  18.848  26.108  24.388 -0.2510  0.0820  0.0762
16269W        W59322  18.049   3.483   2.250 -0.1950  0.2710  0.0586
16270W        W59323  14.150  25.120   9.973 -0.1048 -0.0060  0.0153
16271W        W59324  25.981  24.988  22.914 -0.0036  0.2474  0.1077
16272W        W59325  17.502  23.071  14.525  0.0751  0.4798 -0.1649
16273W        W59326  20.252  27.769  26.355  0.0203 -0.1727 -0.1932
16274W        W59327  16.598  32.088   6.528 -0.0543  0.0389 -0.1662
16275W        W59328  21.456  16.934   6.543  0.2128 -0.1476 -0.1599
16276W        W59329  22.995  19.353  20.272 -0.2525 -0.0585 -0.1482
16277W        W59330  14.271   3.411   2.450  0.0397 -0.2049  0.1084
16278W        W59331  11.318  30.592  24.372  0.0800  0.2246 -0.1804
16279W        W59332  12.825  31.826   0.743  0.0794  0.0623  0.1393
16280W        W59333  18.494  17.381   0.999  0.2533 -0.0337  0.2500
16281W        W59334  29.662  28.054   1.938  0.1341 -0.0911 -0.0773
16282W        W59335  33.412   9.963   4.873  0.1216  0.0701  0.2164
16283W        W59336  20.717  24.825  10.828  0.0405 -0.1977  0.2657
16284W        W59337  19.528  27.579   6.229 -0.0320  0.4189 -0.3833
16285W        W59338  18.505  19.342   7.976 -0.1594  0.1262  0.3298
16286W        W59339  26.838  15.452   6.108  0.0079  0.2858  0.2152
16287W        W59340   5.282   6.125   2.012  0.3524  0.2313 -0.0667
16288W        W59341  18.687  27.564  14.465 -0.3213 -0.2570 -0.2083
16289W        W59342  11.716   0.290  19.663 -0.0251  0.1101 -0.1339
16290W        W59343  12.679  26.607  25.011  0.1363 -0.1040  0.0077
16291W        W59344  28.533  10.269   9.552 -0.2363  0.1491  0.2948
16292W        W59345   2.852  22.502  26.964  0.0997 -0.0791 -0.1418
16293W        W59346  31.418  31.179  22.271  0.0132  0.2016  0.1388
16294W        W59347  13.157  27.452  28.007  0.4368  0.1871  0.0157
16295W        W59348  10.589  11.179   1.562 -0.0595  0.1643 -0.0910
16296W        W59349  28.945  22.059  26.273  0.0556 -0.2578 -0.0314
16297W        W59350  20.316   4.409  18.130 -0.1945 -0.2166 -0.1942
16298W        W59351  28.192  22.786  27.412  0.2254  0.0360  0.1385
16299W        W59352  14.766   1.139   4.315  0.3371  0.2170  0.0161
16300W        W59353   9.356  30.403  21.839 -0.0238  0.1433  0.1861
16301W        W59354  27.379  10.245  23.832  0.0242  0.1480 -0.2108
16302W        W59355   2.340  11.672   6.447  0.1926 -0.0386 -0.0144
16303W        W59356  18.423  32.769   6.784  0.1182 -0.1049 -0.1720
16304W        W59357  28.592   3.243  22.852 -0.0405  0.2265  0.0103
16305W        W59358   7.055  28.448   2.927  0.0807  0.0964 -0.0367
16306W        W59359  31.927  23.318  16.784  0.0506  0.2088  0.1256
16307W        W59360   7.851  23.187   4.640  0.1614  0.1947 -0.0463
16308W        W59361  26.897  29.773  25.075 -0.0107 -0.1094  0.0821
16309W        W59362  22.336   7.229  27.524 -0.3785  0.2303 -0.0088
16310W        W59363   5.488  14.876  29.138 -0.3799 -0.2320  0.2112
16311W        W59364   4.204   6.941   7.017 -0.2167 -0.0764 -0.2061
16312W        W59365  25.749  25.017  27.124 -0.0221 -0.0369  0.2501
16313W        W59366  26.878   1.986   3.531 -0.0112 -0.1044  0.1561
16314W        W59367  31.130  11.762   9.230  0.1413 -0.1324 -0.1357
16315W        W59368  28.896   8.922  21.469 -0.1679  0.0361 -0.0654
16316W        W59369  22.081  31.614  24.463  0.0011  0.0746 -0.2153
16317W        W59370  22.715  17.467  20.384 -0.0461  0.1217 -0.0817
16318W        W59371  12.350  15.622  28.932 -0.0121  0.0608  0.1019
16319W        W59372  22.758  29.392  24.541  0.0762 -0.3502 -0.2127
16320W        W59373  22.738  25.908   5.990  0.2083 -0.2199  0.1135
16321W        W59374   9.968  20.616  23.283  0.3996  0.0543  0.0628
16322W        W59375  27.261  11.982   2.336 -0.2967 -0.0712 -0.0357
16323W        W59376  13.615  23.036  20.914  0.3316  0.0936  0.1132
16324W        W59377   4.788  28.110   8.404  0.1928 -0.3272 -0.2184
16325W        W59378  25.914   1.965   2.008 -0.1108 -0.0357  0.1792
16326W        W59379   8.449  25.301   0.857 -0.0191  0.0890 -0.1469
16327W        W59380   2.657  29.118   9.073 -0.2220 -0.1787 -0.1577
16328W        W59381  14.686  10.817   5.430  0.1320 -0.0133  0.0498
16329W        W59382   8.545  33.695  28.381  0.2601  0.1295 -0.2667
16330W        W59383  23.872   8.599   3.079 -0.0605 -0.0916  0.0552
16331W        W59384  18.257  28.298   0.358  0.1135  0.0337  0.0153
16332W        W59385  18.993  29.919   0.963 -0.2166  0.0014 -0.1021
16333W        W59386  21.114  27.984  17.182  0.3197 -0.0717 -0.1363
16334W        W59387  29.479  13.111  19.383 -0.0525  0.0422  0.0299
16335W        W59388  25.425  24.185  26.950 -0.2329  0.2563 -0.1425
16336W        W59389  21.734  30.404  28.202  0.1380  0.0899 -0.0376
16337W        W59390  13.873  16.454   8.606 -0.0562 -0.2922  0.0101
16338W        W59391  20.383  17.830  14.438  0.1422 -0.2893 -0.0118
16339W        W59392  12.781  12.723  27.727 -0.2014 -0.0068  0.1028
16340W        W59393  13.217  18.044   1.512  0.1307 -0.1445  0.0611
16341W        W59394  18.034   0.230   8.831  0.0776 -0.1772 -0.2404
16342W        W59395  26.273  10.296   9.525  0.2743  0.0679  0.1535
16343W        W59396  34.591  19.436  24.767 -0.1092 -0.1815  0.0259
16344W        W59397  31.253  14.054  29.067  0.0433  0.0503 -0.0140
16345W        W59398  23.090   8.248   7.910 -0.2018 -0.0764 -0.1684
16346W        W59399  13.129  18.761   3.790 -0.3595 -0.4213  0.0215
16347W        W59400   5.928  20.761  23.761  0.0942 -0.1598 -0.1460
16348W        W59401   3.666   6.519  29.130  0.4166  0.1253  0.0993
16349W        W59402   5.835  15.835   2.794  0.0393  0.0594 -0.1174
16350W        W59403  18.268   7.028  28.036  0.0974 -0.3468  0.2658
16351W        W59404  26.857  31.748   6.965 -0.1792 -0.0253  0.0829
16352W        W59405  19.789  20.460  28.005  0.0196  0.1366 -0.0186
16353W        W59406  12.728  16.228   6.033  0.1306 -0.1408  0.0226
16354W        W59407  26.029  22.965  24.547 -0.0902 -0.1939  0.0549
16355W        W59408  24.269  25.427   7.645  0.1569  0.0396 -0.3212
16356W        W59409   5.049   9.455   6.750  0.3182 -0.2046  0.0910
16357W        W59410  17.748  26.829  27.183  0.5545  0.0348 -0.0356
16358W        W59411   3.650  14.332  14.226 -0.2840 -0.1684  0.3313
16359W        W59412   2.202  20.773  27.145  0.0179  0.1619 -0.0076
16360W        W59413  23.710  22.241  25.558 -0.2167  0.0704 -0.2310
16361W        W59414  20.591   4.400  22.185 -0.0544  0.2567 -0.2786
16362W        W59415  27.305  33.140   2.331 -0.1317  0.0279  0.2242
16363W        W59416  14.725   0.272   7.800 -0.0266  0.0390 -0.2234
16364W        W59417  11.701  30.653   3.867  0.1057 -0.0057 -0.1562
16365W        W59418   7.644  20.674  18.214  0.0049  0.1062 -0.0272
16366W        W59419  14.048  24.765   3.928  0.0384 -0.1237  0.0104
16367W        W59420  15.363  31.713   9.616  0.1982 -0.0595 -0.1378
16368W        W59421  19.674  27.329   3.413  0.1347 -0.0809 -0.0423
16369W        W59422  29.373  34.576  26.129  0.2104  0.1678 -0.0847
16370W        W59423   6.644  16.735   6.311 -0.0552 -0.2693 -0.1870
16371W        W59424  23.604  12.674  29.029 -0.2684  0.1815  0.1729
16372W        W59425  22.505  30.296  26.276  0.0929 -0.1084 -0.0739
16373W        W59426  23.548  17.291   6.015  0.0885 -0.0857 -0.2311
16374W        W59427  14.176   0.144  18.630 -0.0966 -0.2779  0.3469
16375W        W59428  10.485  16.558   4.684 -0.0259 -0.1475 -0.1842
16376W        W59429   7.636   1.283   0.608  0.2454  0.0784 -0.0014
16377W        W59430   6.863   1.027   2.548  0.1573 -0.0534  0.0261
16378W        W59431  19.517  26.529   7.038  0.3047 -0.0854  0.2576
16379W        W59432  20.836  26.021  26.247 -0.2007  0.0524 -0.0238
16380W        W59433   8.964  31.710   6.327 -0.1444  0.2274  0.1904
16381W        W59434  11.346   4.799  15.735  0.1256 -0.1925  0.0970
16382W        W59435  17.102  25.722   6.617 -0.2043  0.1712 -0.1796
16383W        W59436   3.837  22.860  19.580 -0.0090 -0.0879  0.0774
16384W        W59437  12.557  31.324  26.051  0.0300 -0.0151  0.1581
16385W        W59438   4.359  19.887  19.943  0.2366 -0.0798 -0.1024
16386W        W59439  27.717  11.961  19.053 -0.1520 -0.1433  0.0450
16387W        W59440  17.971  25.016   5.782  0.0148 -0.0955 -0.0381
16388W        W59441  17.171  34.515  26.332 -0.0285  0.0646 -0.0604
16389W        W59442  20.706   9.553   4.107  0.2477  0.2134  0.2420
16390W        W59443  23.709  25.511  26.626 -0.2164 -0.3158 -0.1346
16391W        W59444  14.785  24.309   4.152 -0.3221  0.0774 -0.0102
16392W        W59445  24.109  28.622  23.845  0.1092 -0.1190 -0.4615
16393W        W59446  14.038   2.213   1.148 -0.1963 -0.0395 -0.3321
16394W        W59447  15.928  32.597   8.091 -0.0641  0.1628  0.0712
16395W        W59448  19.597  21.935  18.815  0.0179 -0.0313  0.0758
16396W        W59449  12.272  28.578   3.865  0.2133  0.0855  0.0495
16397W        W59450  23.236  27.528   4.422 -0.0912  0.0037 -0.2916
16398W        W59451  17.236  34.321   2.557 -0.2223 -0.4730  0.0704
16399W        W59452  13.399  11.640   5.695 -0.1996 -0.0907  0.0619
16400W        W59453  23.673  12.271  22.820  0.1917  0.0530  0.1430
16401W        W59454  32.834  15.799  27.275  0.2088  0.0656  0.2206
16402W        W59455  19.040  28.395  20.393  0.2345 -0.0818  0.1443
16403W        W59456  16.538  24.101   6.456 -0.3500  0.3422 -0.2528
16404W        W59457  13.715  19.997   2.995 -0.1525 -0.3129 -0.2123
16405W        W59458  28.179  19.834  26.242  0.3747 -0.0774 -0.1139
16406W        W59459  27.154  18.255   9.277 -0.0268  0.1762 -0.0861
16407W        W59460  16.945   6.662   4.042 -0.0730 -0.0336  0.1396
16408W        W59461  23.717  21.935   6.032  0.2407 -0.3325  0.3106
16409W        W59462  30.165  26.557   1.121  0.2987 -0.0024 -0.1222
16410W        W59463  30.673  31.465   0.747 -0.1877 -0.1712 -0.2314
16411W        W59464  27.492  25.021  25.592  0.0796 -0.3758  0.0237
16412W        W59465  17.302  21.985   8.213  0.2749 -0.0619 -0.0952
16413W        W59466  20.654  27.117   3.253  0.0169  0.0742 -0.0829
16414W        W59467  24.475  12.071  22.865 -0.0793 -0.0198  0.2590
16415W        W59468  27.173  10.879   7.888 -0.2384 -0.1905 -0.0661
16416W        W59469  19.411  12.580   8.002 -0.3679  0.2479 -0.3808
16417W        W59470   9.378  32.110   2.174  0.0897 -0.0809  0.2078
16418W        W59471  13.674  29.464   9.558  0.2997 -0.1098 -0.2466
16419W        W59472  14.655  19.717  28.676  0.1206 -0.1178  0.1996
16420W        W59473  30.391  31.536   1.353  0.1864 -0.1280  0.0575
16421W        W59474  24.688  18.918  10.014 -0.1899 -0.3774  0.2399
16422W        W59475  21.415   7.827   0.298 -0.0117 -0.1219  0.0087
16423W        W59476  28.498  17.344  26.710  0.0223  0.1670  0.1913
16424W        W59477  21.983  24.672   9.621 -0.1231 -0.0993  0.0048
16425W        W59478  22.058   0.380   5.179 -0.1560 -0.3227  0.0514
16426W        W59479  23.225  22.883  17.249 -0.3637 -0.1575 -0.0973
16427W        W59480   6.635  25.562  23.728 -0.0528 -0.1910 -0.0338
16428W        W59481   2.018   2.887   8.792  0.1598 -0.2246  0.0649
16429W        W59482  27.082  28.913   3.536  0.3379 -0.0708 -0.2284
16430W        W59483  29.404  17.037   1.036 -0.2609 -0.1457 -0.1419
16431W        W59484  19.158  22.044  20.140 -0.0175  0.5063  0.1900
16432W        W59485  23.663  26.881  24.281 -0.0747  0.1498 -0.2266
16433W        W59486   1.305  21.224   4.667 -0.1985 -0.1721 -0.3188
16434W        W59487  32.330  13.882  26.029 -0.0717 -0.2846  0.1323
16435W        W59488  21.678   8.242  27.112  0.0771 -0.1151  0.3842
16436W        W59489  15.520  29.062  20.423  0.0357 -0.1874  0.0992
16437W        W59490   2.295  19.371  17.624 -0.1463  0.0911  0.0265
16438W        W59491   7.686  30.353   6.133 -0.1431 -0.3028  0.0953
16439W        W59492  25.875   9.540   6.021  0.0134  0.0832  0.0617
16440W        W59493  16.230   5.217   8.394 -0.0829 -0.0851  0.0222
16441W        W59494   5.355  21.228   9.702 -0.0665 -0.0201 -0.1439
16442W        W59495   9.492  22.403   4.142  0.4242 -0.1285 -0.1307
16443W        W59496  22.287   7.874   6.413  0.0715 -0.0168  0.0446
16444W        W59497  28.992  31.425   6.438  0.2510  0.1000 -0.3716
16445W        W59498  15.413  26.238   5.834 -0.2748  0.0237 -0.1813
16446W        W59499  10.882  18.401  26.159  0.0558  0.0483 -0.4461
16447W        W59500  28.902   4.287   3.951 -0.0254 -0.4523  0.3086
16448W        W59501  16.953  25.951   8.310  0.0823  0.1772  0.0423
16449W        W59502  28.448  27.915   1.953  0.1797  0.0036  0.3543
16450W        W59503  10.651   1.928   7.593 -0.0130  0.1121  0.0729
16451W        W59504   8.996  32.352  23.498 -0.0840  0.3978 -0.2181
16452W        W59505  15.900  14.658   5.465  0.0175  0.2933  0.2698
16453W        W59506  16.335  23.578  24.744 -0.2609 -0.0566  0.0022
16454W        W59507  15.154  11.015   5.830  0.0562 -0.1603  0.1032
16455W        W59508   9.482  27.541  26.106 -0.2535  0.1934 -0.0701
16456W        W59509  27.039  14.810   3.939 -0.1635  0.0653 -0.1799
16457W        W59510  26.783  31.695   5.654 -0.0774  0.1718  0.1283
16458W        W59511  32.607  32.641   6.704 -0.0783  0.0643 -0.0749
16459W        W59512  26.100  34.412  26.634  0.1411 -0.1595  0.2827
16460W        W59513  13.079  30.249   5.794 -0.0936  0.0807  0.0839
16461W        W59514  22.155  32.093  15.742 -0.0313 -0.3119 -0.2704
16462W        W59515  27.736  32.639   2.888 -0.2647  0.2117  0.0952
16463W        W59516  32.419  22.023   1.238 -0.1431  0.1135  0.1336
16464W        W59517  25.331  22.245   0.455 -0.0770 -0.1501 -0.0763
16465W        W59518  11.641  26.746  21.138 -0.1395  0.1340  0.4164
16466W        W59519  17.902  22.500   2.492 -0.0721  0.1804 -0.0169
16467W        W59520  30.453  31.782   5.550  0.1208  0.1750  0.2400
16468W        W59521   7.158   3.555   4.406  0.4760  0.1918  0.1316
16469W        W59522   8.131  13.911  26.055 -0.1819 -0.0925 -0.2891
16470W        W59523  14.173  18.944  27.593 -0.2117 -0.2960  0.2027
16471W        W59524  13.021  21.871   7.111 -0.1088  0.3436  0.1950
16472W        W59525  20.520  33.626  27.907  0.1865 -0.2049 -0.2046
16473W        W59526   3.970  30.123   9.214  0.0345  0.0222 -0.1556
16474W        W59527   3.498  31.243   2.950  0.0237  0.2207 -0.1048
16475W        W59528   1.565   0.951  22.615  0.0614 -0.0566 -0.0582
16476W        W59529  25.776  30.813   7.266 -0.0858  0.1797  0.0809
16477W        W59530  20.242  22.828  10.208  0.1337 -0.1433  0.0697
16478W        W59531  15.215   3.341  15.805 -0.2016  0.3818 -0.0104
16479W        W59532   8.469  14.516   6.479 -0.4103 -0.3657 -0.0502
16480W        W59533  17.311   8.336   6.203  0.1321  0.1707  0.0118
16481W        W59534   6.308   4.786  24.897  0.1050 -0.0119  0.0835
16482W        W59535  12.486   5.891   4.883 -0.3352  0.3635  0.0071
16483W        W59536  22.379  31.536  28.169  0.1340  0.0706 -0.1841
16484W        W59537  14.965  18.058   1.413  0.2832 -0.2601  0.0608
16485W        W59538  20.884  26.418   2.602  0.4129 -0.3492 -0.1070
16486W        W59539  10.520  21.224  20.020  0.1525  0.1967 -0.0051
16487W        W59540  18.967  22.305   1.988  0.0766 -0.2296 -0.0117
16488W        W59541  15.994  25.045  28.484 -0.0084 -0.1643  0.1443
16489W        W59542   7.479  25.320   0.038  0.0275  0.0409  0.0996
16490W        W59543  19.418  20.533   5.214  0.2390  0.3673 -0.1857
16491W        W59544   5.904  25.406   2.836 -0.4339 -0.1451  0.1669
16492W        W59545   1.073  33.621   7.258  0.1110  0.0812 -0.0299
16493W        W59546  15.599  15.518   2.090 -0.1846 -0.2216 -0.0827
16494W        W59547   6.254  11.750  19.953  0.0314 -0.1844 -0.0318
16495W        W59548  14.292  19.655  29.052 -0.1966  0.1575  0.0912
16496W        W59549  22.504  24.502   5.057  0.1946  0.2869 -0.2597
16497W        W59550  29.589   4.455  26.245 -0.0804  0.3651  0.2121
16498W        W59551  22.148  23.993   8.251 -0.1734 -0.1301 -0.0635
16499W        W59552  26.488  17.712   7.274 -0.0806  0.2487 -0.0992
16500W        W59553  27.396  15.630   8.329 -0.2629 -0.2956 -0.1025
16501W        W59554  24.249  21.282  20.194 -0.4091 -0.1316 -0.1089
16502W        W59555  31.782   2.756  28.955  0.2913 -0.1762 -0.1859
16503W        W59556  10.735  25.451   8.762  0.0498 -0.2507  0.0337
16504W        W59557  23.871  19.855   4.297 -0.2860  0.2673  0.0234
16505W        W59558  33.289  21.979   9.167  0.0489  0.1382 -0.3031
16506W        W59559  25.142  30.778   2.793 -0.2013 -0.0877  0.0574
16507W        W59560  14.906  24.967  25.189  0.4162  0.1306  0.3093
16508W        W59561  23.808   5.224   5.256  0.0970 -0.4139  0.1160
16509W        W59562   6.638   3.764   4.475 -0.0998 -0.2850 -0.1324
16510W        W59563   3.616  29.101   1.112 -0.2715  0.2454 -0.0334
16511W        W59564   0.201  23.635  22.939  0.0608 -0.3080  0.1034
16512W        W59565  22.916  26.219   0.210  0.0679 -0.0710  0.1150
16513W        W59566  13.170  11.513   4.033  0.1518  0.1373 -0.0388
16514W        W59567  22.256  22.422  20.888 -0.1559 -0.1234 -0.3038
16515W        W59568  26.719  14.768   1.306  0.0597  0.0658 -0.2733
16516W        W59569  12.073   3.732   7.389  0.0319  0.1185 -0.1358
16517W        W59570   7.453  24.693  19.960 -0.0741 -0.0535  0.0829
16518W        W59571  10.154  29.156   4.125 -0.3786 -0.0430 -0.0905
16519W        W59572  12.454  13.634  21.511 -0.1969 -0.2015 -0.2440
16520W        W59573  20.873  21.142  23.448 -0.4241 -0.0691 -0.1087
16521W        W59574  13.838  34.673   4.726  0.2093  0.0293  0.0581
16522W        W59575  23.382  33.097  28.769  0.3155  0.0286  0.1986
16523W        W59576  29.575   0.662  21.316  0.2440  0.2219  0.3114
16524W        W59577   9.160  32.950  17.194 -0.1892 -0.0095 -0.3168
16525W        W59578  10.189  23.044  27.263 -0.1044  0.1312 -0.1384
16526W        W59579   0.705  17.290   0.129 -0.1728 -0.0866  0.2971
16527W        W59580  18.014  23.473  10.239  0.0254  0.2201  0.0042
16528W        W59581  24.467   0.145   4.054  0.1789  0.2379 -0.1088
16529W        W59582  25.589  21.295  10.508 -0.2211 -0.0122  0.3747
16530W        W59583  13.235  24.021  24.264  0.3661 -0.1979 -0.4347
16531W        W59584   9.799  31.207  20.364  0.0889  0.1080 -0.0645
16532W        W59585  14.729  34.367  10.534  0.0008  0.1782 -0.1737
16533W        W59586  25.248  23.803  28.745 -0.3128 -0.0163 -0.2868
16534W        W59587  25.775  13.568   3.721 -0.1236 -0.0248  0.0324
16535W        W59588   9.248  23.397  26.809 -0.1198  0.1694 -0.2840
16536W        W59589  14.337   7.324   7.471  0.0139  0.0861 -0.2594
16537W        W59590  10.462  19.956  21.479  0.0941 -0.2881  0.0693
16538W        W59591  30.490  30.371   5.427  0.3935 -0.2612  0.2861
16539W        W59592  24.701  20.611   7.223  0.0857 -0.1213 -0.0851
16540W        W59593   6.384  19.319   1.537 -0.0204 -0.1841 -0.2323
16541W        W59594  19.373  28.439  21.280  0.2388 -0.3646  0.2141
16542W        W59595  16.934   2.434   7.810  0.1332 -0.0844  0.0579
16543W        W59596  19.768  23.312   6.647 -0.1736  0.1349 -0.0830
16544W        W59597  15.459  23.332  25.082 -0.0176 -0.0541 -0.1805
16545W        W59598  12.510  24.272  26.538  0.0130 -0.1692  0.1992
16546W        W59599  12.431  32.099   3.194 -0.0999  0.3102  0.2585
16547W        W59600  19.061  23.788   9.863 -0.3545 -0.0176 -0.0848
16548W        W59601   2.128   1.550  21.857  0.3479  0.1232  0.3602
16549W        W59602  13.344  30.567   1.400 -0.0236 -0.2470 -0.1296
16550W        W59603   6.063  26.408   7.305  0.2107 -0.1357  0.1961
16551W        W59604  29.944   2.340   5.206  0.1506  0.1174 -0.0480
16552W        W59605  15.297  26.476  16.383 -0.1267  0.4679 -0.0092
16553W        W59606  27.968  28.101   1.934 -0.1162 -0.0576  0.2486
16554W        W59607  19.417  29.389   7.658  0.0233 -0.2175  0.0124
16555W        W59608  10.866  10.235  15.596 -0.0220  0.1551  0.1003
16556W        W59609  11.903  27.195   3.250 -0.0145  0.0132 -0.0024
16557W        W59610  13.536   2.176  15.477 -0.2396 -0.0651  0.2362
16558W        W59611  32.812  29.735   7.421  0.0907 -0.0478  0.0439
16559W        W59612  24.079  11.596   9.904 -0.0850  0.0266 -0.0868
16560W        W59613   9.654  19.377   5.841 -0.1795 -0.1098  0.2358
16561W        W59614   6.353   0.507  25.934  0.1451  0.0847 -0.1097
16562W        W59615  11.903  30.860  10.292  0.1414 -0.0161 -0.0005
16563W        W59616  34.619  25.486   3.617  0.1622 -0.2874 -0.0613
16564W        W59617  23.398  18.266  24.043  0.0446  0.1371  0.0085
16565W        W59618  32.310   5.313   6.506 -0.0076  0.0462  0.1280
16566W        W59619  16.908  25.325   8.509 -0.0705 -0.1324  0.0131
16567W        W59620  10.445   4.578  27.637 -0.0581 -0.0498 -0.0771
16568W        W59621  13.242   7.627   4.633  0.0673 -0.0472  0.0744
16569W        W59622   9.759  28.216  28.927 -0.1002 -0.0707 -0.0775
16570W        W59623  23.862   0.674   5.816  0.1764 -0.0805  0.0619
16571W        W59624  10.697  19.641  27.786  0.1283  0.2682  0.0941
16572W        W59625  20.613  31.199  26.989  0.2729 -0.1429 -0.1650
16573W        W59626   5.548  26.053   8.951 -0.2092  0.0290 -0.2689
16574W        W59627   9.794  24.782   4.273 -0.4050  0.1617  0.0343
16575W        W59628  16.919  19.191   5.491 -0.1902 -0.2945 -0.3136
16576W        W59629   6.811  18.241   6.776  0.1874 -0.2960  0.5001
16577W        W59630  18.195   0.289  18.665  0.1268  0.0807 -0.1959
16578W        W59631   6.819  24.880   4.496 -0.0937  0.1205 -0.0516
16579W        W59632  19.096  30.083  26.043 -0.2114  0.0309  0.3440
16580W        W59633  23.859  22.365   5.825  0.0603 -0.1605 -0.1803
16581W        W59634  12.857  17.803   9.428 -0.3026 -0.0681  0.1076
16582W        W59635  22.021   6.938  28.807  0.0480 -0.0331  0.4499
16583W        W59636  27.901   5.853  25.644 -0.1173 -0.0001 -0.3212
16584W        W59637  19.834  31.104   8.348 -0.1417  0.0118  0.3283
16585W        W59638  23.024   4.463  28.418 -0.0052  0.2293 -0.0892
16586W        W59639  33.336  11.176  25.457 -0.0443 -0.0592 -0.0668
16587W        W59640   8.926  26.621   7.249  0.0635  0.2839  0.1906
16588W        W59641  18.494  26.167   6.415  0.0756  0.1525 -0.4661
16589W        W59642  13.937  26.573   8.706  0.1458  0.1204 -0.1533
16590W        W59643  21.024   4.490   2.123 -0.1389 -0.2121  0.4441
16591W        W59644  23.010   7.396   2.862  0.0914 -0.0919  0.0688
16592W        W59645  22.056   7.128  23.871 -0.0420 -0.1205 -0.0687
16593W        W59646  16.097  32.285   4.190  0.0767 -0.0999 -0.0795
16594W        W59647  22.650  33.905   3.585  0.3322 -0.0056  0.1512
16595W        W59648  23.764  11.972  28.041 -0.1276 -0.0528 -0.0316
16596W        W59649  12.310  31.607  20.840  0.0941  0.1109  0.0050
16597W        W59650  24.663  25.101   6.689  0.2295 -0.2001  0.1110
16598W        W59651  29.797  30.153  21.666  0.1599 -0.2260 -0.1996
16599W        W59652  20.205  26.625  27.654  0.1155 -0.0567 -0.0817
16600W        W59653  21.786  28.563   3.402  0.1563 -0.0309 -0.4350
16601W        W59654   9.642  26.653   0.204  0.2620  0.2412  0.0287
16602W        W59655  20.221  27.213   2.725  0.0724  0.2866  0.1424
16603W        W59656  19.139  31.572  27.231  0.0226 -0.1586 -0.2340
16604W        W59657  28.045  22.679   5.969  0.2535  0.1144 -0.0386
16605W        W59658  14.338   1.202   9.286  0.1088  0.4043  0.0714
16606W        W59659  19.286   5.872   8.809 -0.0903 -0.2725 -0.1087
16607W        W59660   4.452  24.912  29.025 -0.1369 -0.0754 -0.0128
16608W        W59661  20.184  22.085   2.819  0.2492  0.0440  0.2172
16609W        W59662  30.513  21.815  27.073  0.0690 -0.3600  0.1463
16610W        W59663  23.316  32.311   2.155  0.3585  0.5156 -0.0667
16611W        W59664  25.122  30.307  22.093  0.1404 -0.0240 -0.2700
16612W        W59665  22.697  28.882  26.572  0.2549 -0.0271  0.1029
16613W        W59666  13.385   0.434   2.192 -0.2601  0.5128  0.0468
16614W        W59667  34.137  20.822   1.011 -0.1514  0.0549 -0.3173
16615W        W59668  12.229   5.404   2.056  0.2672 -0.1419 -0.1349
16616W        W59669  16.867  26.000   7.726 -0.1142  0.4604 -0.1340
16617W        W59670  26.873   5.447   1.262 -0.1908  0.2630 -0.0611
16618W        W59671  11.668  23.358  21.434 -0.1632 -0.0029 -0.1216
16619W        W59672  17.720   4.232  22.213 -0.1927  0.1647 -0.1595
16620W        W59673  11.775  29.916   9.262 -0.0551 -0.0047  0.0073
16621W        W59674  19.545   6.900  27.526 -0.2155  0.5238 -0.5602
16622W        W59675  20.213  33.669   9.372  0.0277  0.4450 -0.0629
16623W        W59676  28.136  13.543   9.705 -0.1010  0.0967  0.1659
16624W        W59677  16.817  29.799   8.705 -0.2625 -0.1206 -0.1269
16625W        W59678  21.446  31.376   1.855 -0.0049  0.2271  0.1054
16626W        W59679  25.632  27.393   2.659  0.2304 -0.1578  0.0620
16627W        W59680  24.976  13.787   9.273 -0.1759  0.1999  0.0373
16628W        W59681  29.619   8.754   9.778 -0.2049 -0.3936  0.2985
16629W        W59682   7.289  19.402   8.314 -0.0239 -0.1468 -0.1215
16630W        W59683  12.448  34.502   1.645  0.2097  0.0439  0.1077
16631W        W59684  15.697  30.443   4.724  0.2419 -0.0618 -0.1103
16632W        W59685  19.406  30.873   5.262  0.0640  0.1297  0.0588
16633W        W59686  25.514  21.066   8.987 -0.0130  0.1383 -0.0597
16634W        W59687  22.331   2.899   2.905  0.1093 -0.2267 -0.1791
16635W        W59688  26.041  18.883   1.209  0.1149  0.0102 -0.1318
16636W        W59689   7.349  16.716   0.942 -0.0685  0.3443 -0.1199
16637W        W59690  28.998   7.495  27.586 -0.1458  0.1439 -0.1644
16638W        W59691  16.676  23.385  10.781 -0.0955 -0.2262 -0.1128
16639W        W59692  23.418  29.178   6.494  0.1251 -0.2904  0.0915
16640W        W59693   2.052  32.583  22.363 -0.2019  0.0367 -0.1262
16641W        W59694  28.556  34.308   9.103 -0.1091  0.0952  0.0211
16642W        W59695  15.104  25.680   9.510 -0.2198 -0.0134 -0.2440
16643W        W59696  29.722  15.402   9.336 -0.1162 -0.4561 -0.4537
16644W        W59697   9.384  26.523   0.941  0.1878 -0.0111  0.1935
16645W        W59698  24.974  32.300   1.081  0.0138 -0.1392  0.0164
16646W        W59699  20.256  28.602   1.529 -0.1132 -0.0615  0.1747
16647W        W59700  15.647  28.829  22.843 -0.2292  0.2050  0.0267
16648W        W59701  17.809  22.868   3.518 -0.4022  0.1065  0.0407
16649W        W59702  14.211  23.530   0.166  0.1268 -0.0510 -0.2841
16650W        W59703   5.918  10.424   7.108  0.0054 -0.0221 -0.2974
16651W        W59704  15.237  27.003   3.730 -0.2815 -0.1963 -0.2950
16652W        W59705  24.004  15.365   0.307  0.0008  0.1757 -0.0238
16653W        W59706   6.104  20.574   0.904 -0.0444 -0.1921  0.0704
16654W        W59707  28.646  19.009   9.123  0.3050 -0.1249 -0.2096
16655W        W59708  26.298   4.571   5.207 -0.0574  0.0226  0.1484
16656W        W59709   0.644  16.957   0.946 -0.1118  0.0065 -0.0354
16657W        W59710  25.258   7.349   7.637  0.1204 -0.1700 -0.1433
16658W        W59711  15.289  16.330   5.095  0.0304 -0.1220 -0.0365
16659W        W59712  10.671  19.601  21.887 -0.2353 -0.4537 -0.1202
16660W        W59713   4.461   8.735  29.148 -0.1286  0.0768  0.1847
16661W        W59714   8.445   7.663   3.715 -0.1377  0.0033 -0.0424
16662W        W59715  28.718  33.957  21.094  0.1265  0.1613  0.4111
16663W        W59716  14.572  29.774   4.878 -0.2797  0.0563  0.0529
16664W        W59717  29.290  28.076  28.675  0.0399  0.1788 -0.1097
16665W        W59718   6.742  29.512  26.181 -0.1187  0.1231 -0.0066
16666W        W59719  13.725  34.600  15.371 -0.1909 -0.0501 -0.4835
16667W        W59720  30.699  25.992  14.435  0.1395 -0.0656 -0.2850
16668W        W59721  19.936  19.212  28.806  0.1520  0.2097 -0.2089
16669W        W59722   1.680  14.797   8.182  0.1384  0.2756  0.0256
16670W        W59723  25.502  24.865   5.233 -0.0149  0.0854  0.4302
16671W        W59724   9.996  18.672   8.551 -0.0729  0.2993 -0.3280
16672W        W59725  25.429  10.571   2.303  0.1171  0.2714  0.2524
16673W        W59726  22.477  30.136   6.814  0.0113  0.2128  0.0426
16674W        W59727  19.354   3.610  28.156 -0.1675  0.1140 -0.1248
16675W        W59728  21.843  15.496   7.578  0.0509 -0.0637 -0.0571
16676W        W59729  22.727  31.532   8.388  0.0608  0.1867  0.1702
16677W        W59730   6.570  24.521   5.492  0.0637  0.0576 -0.1416
16678W        W59731  19.696   4.523   8.974  0.1986 -0.0025 -0.1062
16679W        W59732  20.444  19.586  20.742 -0.0319  0.1892 -0.0048
16680W        W59733   6.563  26.021   2.439  0.0817  0.1363  0.2267
16681W        W59734  11.917  30.986   3.574 -0.1116 -0.0139 -0.1132
16682W        W59735  28.116  29.072  26.102 -0.0035 -0.0065  0.1957
16683W        W59736  21.766  19.162  24.021 -0.0225 -0.1813  0.1420
16684W        W59737  31.257   1.581   7.130  0.2648 -0.1216  0.1439
16685W        W59738  28.612  16.305   9.934  0.0961  0.0551 -0.0665
16686W        W59739  21.976   8.890   2.655  0.2199 -0.0869 -0.1496
16687W        W59740  23.499   5.837   8.356 -0.3290  0.1072  0.2010
16688W        W59741  21.172  30.086   0.656  0.2605 -0.0685 -0.0983
16689W        W59742  31.702  17.364   9.483 -0.3240  0.1162  0.0477
16690W        W59743  18.072  26.224   6.776  0.3457 -0.1035 -0.0939
16691W        W59744  18.872  31.139  24.450 -0.2658  0.0456 -0.2308
16692W        W59745  27.317  21.861   4.781 -0.1325  0.0984  0.0980
16693W        W59746   3.114  25.756   4.916  0.0984 -0.0415  0.0345
16694W        W59747  34.208  31.529  29.094  0.0744  0.1186  0.2410
16695W        W59748  12.628  24.284   4.921  0.2622  0.0486  0.0321
16696W        W59749  14.878  30.949  14.784  0.0033  0.2224  0.0601
16697W        W59750  13.291  29.849   5.521  0.4098 -0.1920  0.1772
16698W        W59751  11.086  29.996  19.668 -0.2797 -0.0458 -0.0093
16699W        W59752  11.302  16.329  10.450 -0.5094  0.0448  0.1038
16700W        W59753  13.728  33.949   0.860  0.2182  0.0871  0.2599
16701W        W59754  15.379   6.742   4.426 -0.2414  0.1074 -0.1035
16702W        W59755   1.667  10.599  10.082  0.1407 -0.0179  0.1190
16703W        W59756  31.967  13.011   6.858 -0.3969  0.4828 -0.0313
16704W        W59757  19.685   3.576   7.951 -0.1105  0.0411  0.0496
16705W        W59758  18.029  25.234   2.753 -0.0225  0.1700  0.0705
16706W        W59759  28.689  14.378   0.792  0.0932  0.0255 -0.1479
16707W        W59760  17.093   7.501   3.495  0.3158 -0.3604 -0.0092
16708W        W59761  31.784  13.161  22.853 -0.2351  0.1771  0.0003
16709W        W59762  18.648  20.271   3.313  0.1676 -0.0580 -0.3157
16710W        W59763  25.641   3.956   8.568  0.1587 -0.1597  0.1195
16711W        W59764  15.957  19.164   2.288  0.0226  0.1750 -0.0537
16712W        W59765  29.440  29.804   5.956  0.1221 -0.1467 -0.0786
16713W        W59766   2.291  25.173   3.603  0.1792  0.0638  0.4145
16714W        W59767  15.960  14.105  16.277  0.0139 -0.0263 -0.0352
16715W        W59768  26.997   9.435  10.129 -0.2174  0.3138  0.1359
16716W        W59769  31.242  29.420  15.079 -0.2060 -0.0742  0.3034
16717W        W59770   2.759  27.740   7.295  0.4174 -0.1134 -0.0941
16718W        W59771  20.716   9.940  26.932 -0.2713  0.1176 -0.0005
16719W        W59772  21.035   2.520   6.074 -0.1109  0.3000  0.3300
16720W        W59773  28.517  33.605   7.603 -0.0942 -0.0985 -0.0951
16721W        W59774  24.619   4.933   0.652 -0.1802 -0.3157  0.1483
16722W        W59775  30.921  32.539  14.446 -0.1934 -0.0997  0.0853
16723W        W59776  21.448  22.333   2.838 -0.0186  0.0737 -0.0904
16724W        W59777  18.248  32.999  27.656 -0.0122 -0.1715 -0.0220
16725W        W59778  23.888  26.113  24.856  0.1650 -0.0907 -0.0992
16726W        W59779   0.543  32.874   9.189 -0.2014 -0.0456 -0.2437
16727W        W59780  26.991  22.877   1.898 -0.1297  0.0090  0.1451
16728W        W59781  20.131  32.268   1.172 -0.3847 -0.2712  0.0591
16729W        W59782   2.685  18.975   9.259  0.0871  0.0722  0.1420
16730W        W59783  27.404   6.388   4.164 -0.0054 -0.1811 -0.1479
16731W        W59784  29.642  19.045   1.213 -0.0880  0.3332 -0.1347
16732W        W59785  14.100  16.809   1.077  0.0311 -0.0763  0.2928
16733W        W59786  12.056  25.211   3.699  0.1325 -0.0350  0.2650
16734W        W59787  18.190  24.179  28.165 -0.1643 -0.1588 -0.0380
16735W        W59788   5.919  25.517   1.310  0.2263 -0.0354  0.3153
16736W        W59789   8.674  34.346   8.273 -0.1137  0.0217 -0.0085
16737W        W59790   6.229  25.658   4.345  0.1555  0.2124 -0.2366
16738W        W59791  29.228  32.646   0.463  0.0213  0.3319 -0.1001
16739W        W59792  11.402  21.160   5.965 -0.0380  0.2159 -0.1450
16740W        W59793  21.490  28.404  20.541  0.0200 -0.2243 -0.2017
16741W        W59794   2.375   5.380   2.287 -0.0140 -0.0180  0.3416
16742W        W59795   3.903  28.316   2.843 -0.0949 -0.1454  0.3714
16743W        W59796  19.549  13.964   7.512  0.0874  0.1818  0.0497
16744W        W59797  20.338  16.397   4.981 -0.0761 -0.1233  0.0174
16745W        W59798   2.171  30.505  26.264 -0.0630  0.0751  0.2234
16746W        W59799  16.319   2.793   7.879  0.0832 -0.1160  0.0698
16747W        W59800  12.539  24.915  18.869  0.1463  0.1819  0.1397
16748W        W59801  27.859  18.654   2.240 -0.0315  0.4216 -0.1075
16749W        W59802  13.981  34.463  27.215  0.3620 -0.4676 -0.1658
16750W        W59803  22.113  25.320   6.349 -0.3908 -0.2641 -0.1395
16751W        W59804   7.638  20.411   5.861 -0.0859 -0.1537  0.3996
16752W        W59805  17.887  29.660   5.569  0.1543  0.0325 -0.1703
16753W        W59806  11.180  26.758  24.497 -0.1383  0.3031 -0.1309
16754W        W59807  23.535   7.372   4.444 -0.3414 -0.4378  0.0176
16755W        W59808  11.474  18.991  21.366 -0.0290  0.1623  0.0245
16756W        W59809  19.907  25.853   5.547 -0.2447 -0.2731 -0.1949
16757W        W59810  22.656  23.344   3.427  0.1434 -0.3113  0.3645
16758W        W59811  24.750  17.776   4.560 -0.1267  0.0388 -0.3006
16759W        W59812   5.965  31.197  22.236  0.4325  0.1307 -0.3741
16760W        W59813  18.942  16.005  28.454 -0.0487 -0.2009  0.4435
16761W        W59814  18.284  22.575   4.662  0.0825  0.0724 -0.1475
16762W        W59815  24.253  15.304   9.513  0.1390  0.0816  0.0017
16763W        W59816   7.970   2.663   6.249 -0.1349 -0.1404  0.0617
16764W        W59817  21.831  27.073   4.552  0.0610 -0.1348 -0.1354
16765W        W59818  31.086  26.721   3.621 -0.1320  0.2044 -0.0333
16766W        W59819  27.765   1.116  26.312  0.1301 -0.1338 -0.1801
16767W        W59820  16.897  14.985   6.235  0.1160 -0.0372  0.0204
16768W        W59821  10.812   2.974   2.306 -0.1950  0.0126 -0.2840
16769W        W59822   8.932   8.282   4.340  0.1093  0.1467 -0.0430
16770W        W59823  13.627  25.064   4.063  0.1627 -0.1268 -0.1598
16771W        W59824  27.979   4.882   1.838  0.0182 -0.1468  0.1088
16772W        W59825  16.891  33.450  23.734  0.0812 -0.0624 -0.1355
16773W        W59826  24.955   1.383   8.650  0.0197 -0.0478 -0.1696
16774W        W59827  13.447  20.171  27.264 -0.0970  0.5507 -0.1285
16775W        W59828  29.057  29.364  16.396 -0.0892 -0.1621 -0.1372
16776W        W59829  18.671  12.897   8.645 -0.1911 -0.0861  0.2023
16777W        W59830  10.094  19.083   4.012 -0.1304 -0.5028  0.0694
16778W        W59831  22.845  26.432   8.479 -0.3882  0.0761  0.0973
16779W        W59832  18.023  25.766   2.829 -0.3520 -0.0009 -0.1559
16780W        W59833  14.995   1.284   6.436  0.1691  0.1394  0.5200
16781W        W59834  26.245   5.349   0.214  0.0756  0.4544  0.0315
16782W        W59835  12.237  33.943   6.164  0.3230 -0.0907 -0.0783
16783W        W59836  13.165  30.475   9.167  0.0241  0.4111  0.0556
16784W        W59837  18.493  27.180   3.767 -0.3988 -0.1633 -0.2544
16785W        W59838  17.240  26.311   7.586 -0.1505  0.1978 -0.2014
16786W        W59839  10.042   3.612   8.139 -0.1564 -0.1666 -0.0279
16787W        W59840  24.673  30.377  26.240 -0.1389 -0.0665  0.1872
16788W        W59841  16.205  23.108   0.681  0.0145 -0.2335  0.0598
16789W        W59842   7.585  19.844  28.538 -0.0558  0.1975  0.0999
16790W        W59843  13.193  30.887  24.347  0.2809  0.1755  0.0005
16791W        W59844  25.876  23.184   6.023 -0.1989 -0.0027 -0.3886
16792W        W59845  17.250  24.966   3.332  0.1006 -0.0448  0.0639
16793W        W59846  14.377  18.666   9.930 -0.2131 -0.0992  0.0279
16794W        W59847  25.414  27.229   9.223  0.1798  0.1973  0.3584
16795W        W59848  16.560  12.171   6.086  0.1797  0.3059  0.0580
16796W        W59849  25.129  25.269   8.553 -0.1278 -0.5757 -0.0708
16797W        W59850  22.270  16.094   4.868  0.1496  0.2417 -0.0730
16798W        W59851   8.869  32.909  23.371  0.1152 -0.0431  0.1606
16799W        W59852  14.443   1.883   2.466 -0.1761 -0.0200 -0.0551
16800W        W59853   5.706   9.891  26.245 -0.1164  0.1553  0.3615
16801W        W59854   7.191  18.023   9.703  0.0437  0.2626  0.2492
16802W        W59855   8.577  24.652   0.053  0.3093 -0.3843 -0.2331
16803W        W59856  14.052  26.926   3.126  0.0564 -0.0516  0.0562
16804W        W59857   2.226  19.449   6.829 -0.0990  0.0168  0.1819
16805W        W59858   7.099  25.425   2.749 -0.2178  0.1077  0.1409
16806W        W59859  15.076   0.662   6.851  0.1122  0.0888 -0.1758
16807W        W59860  28.343  32.950   7.182 -0.0789 -0.2487 -0.0144
16808W        W59861  23.922  31.478   6.691  0.1392  0.0640  0.1980
16809W        W59862  26.058  20.472  19.134 -0.0741 -0.0624  0.4154
16810W        W59863  11.343  25.798  28.838  0.0192  0.1797 -0.2971
16811W        W59864  23.788  20.564   5.058  0.2011  0.0768 -0.2663
16812W        W59865  32.237  16.022   9.094  0.0910  0.1046  0.4672
16813W        W59866  15.875  13.240   1.028  0.3039  0.1171  0.0141
16814W        W59867  26.030  18.370   6.622  0.0382  0.2478 -0.0215
16815W        W59868  12.861  16.294   9.716 -0.4220  0.2393  0.1960
16816W        W59869  24.007  24.366   8.495 -0.2332 -0.2325  0.2557
16817W        W59870  27.765  19.805  25.045  0.0697 -0.1973  0.1125
16818W        W59871  18.164   7.586   8.615 -0.2328  0.3712  0.0236
16819W        W59872  14.524  29.889   7.944 -0.0566 -0.2460 -0.1692
16820W        W59873   1.419  18.380   4.495  0.1494 -0.1096  0.0158
16821W        W59874  13.687  24.293   8.188  0.0677  0.0242  0.2145
16822W        W59875   1.540  19.591  26.361  0.1862 -0.0816  0.1906
16823W        W59876  12.740  27.135  27.952 -0.0211 -0.0335 -0.1446
16824W        W59877  24.673  23.946  26.036 -0.0239 -0.0628 -0.0534
16825W        W59878   5.784  31.976   8.487 -0.1660 -0.0937  0.2837
16826W        W59879   3.138  28.451   6.274  0.1115  0.1275  0.1444
16827W        W59880  29.461  32.810  24.377 -0.2040  0.3483 -0.2501
16828W        W59881  19.617  17.467   9.437 -0.0721 -0.3165  0.2046
16829W        W59882  20.617  13.295  16.350  0.1327  0.0923 -0.0341
16830W        W59883  18.455  33.952  26.301 -0.2382  0.1029  0.0487
16831W        W59884  20.908   9.912   7.439 -0.1340 -0.1777  0.0155
16832W        W59885  28.728  34.650   7.545  0.2984  0.0075 -0.0290
16833W        W59886  27.733  30.644   6.679  0.2768  0.0495  0.1540
16834W        W59887  15.750  33.512   5.619  0.4546 -0.0523  0.1136
16835W        W59888   8.767  15.485   8.704 -0.0772  0.0506  0.2841
16836W        W59889  17.186  25.988   7.191  0.0077  0.2271  0.0804
16837W        W59890  17.150  33.727   4.665  0.1993  0.0713 -0.3372
16838W        W59891  26.831  19.146  10.216 -0.1423 -0.3717  0.1301
16839W        W59892  23.121  17.201   7.353 -0.1013 -0.0479  0.1301
16840W        W59893   6.198  26.640   3.162  0.3122 -0.2357  0.3090
16841W        W59894  34.047  33.802  27.665 -0.3577 -0.2306  0.0099
16842W        W59895  15.680  30.037   9.555  0.0137 -0.0639  0.2405
16843W        W59896  19.150  20.391   3.344 -0.2192  0.0501 -0.2657
16844W        W59897  14.376  15.085   8.520 -0.1964  0.0417 -0.1298
16845W        W59898  19.631  22.286   3.038 -0.1202  0.0544  0.2177
16846W        W59899  15.902  23.734   9.731  0.1279  0.2104  0.2311
16847W        W59900  22.051  23.269   0.363 -0.1148 -0.0918 -0.0554
16848W        W59901  30.315  34.617   7.188  0.1828  0.0410 -0.2192
16849W        W59902  10.499  19.226   1.626 -0.3808 -0.7645 -0.2343
16850W        W59903  24.557   4.604  26.767 -0.1400  0.0462 -0.3886
16851W        W59904  21.127  29.142  22.557  0.3070 -0.0285 -0.0565
16852W        W59905  27.255  28.383  19.993 -0.0801 -0.2124  0.2878
16853W        W59906  23.460  11.967  13.491  0.1465 -0.1986  0.1481
16854W        W59907  22.656  29.128   9.234  0.2828  0.1123 -0.1846
16855W        W59908  25.780  27.933   6.130 -0.0082  0.2694 -0.1001
16856W        W59909  18.761   5.900  27.559 -0.1699 -0.3399  0.2806
16857W        W59910   8.236  21.492   6.155 -0.1858 -0.2357 -0.1932
16858W        W59911  18.480   4.128  10.395  0.2057  0.0090 -0.1120
16859W        W59912  19.417  28.290  18.626  0.0636 -0.2698  0.0948
16860W        W59913   8.668  24.288  24.753 -0.1822  0.4131 -0.3175
16861W        W59914  11.532  34.243  23.104 -0.1380  0.0142  0.0538
16862W        W59915  17.823   9.865   9.237 -0.0675  0.1409 -0.0315
16863W        W59916  15.960  17.187   4.450  0.0669 -0.1275 -0.1300
16864W        W59917  34.080  27.537  23.766  0.0503 -0.2561 -0.1431
16865W        W59918  19.861  26.136   6.357  0.0803  0.3958  0.0307
16866W        W59919  19.420  28.690  25.834  0.0892  0.3198 -0.4306
16867W        W59920  22.474   2.759  22.792 -0.0450  0.3235 -0.2903
16868W        W59921   8.948  25.807  25.567 -0.0211 -0.1220  0.0695
16869W        W59922   3.842  17.417   9.770 -0.0180 -0.1557  0.2222
16870W        W59923  34.052  33.593  13.706  0.0242  0.0346  0.2336
16871W        W59924  30.392  20.500  18.314  0.0189  0.0625  0.1852
16872W        W59925  14.437  17.851  25.833 -0.0924 -0.0718 -0.0319
16873W        W59926  32.561  15.780   8.042 -0.1775 -0.0697 -0.0249
16874W        W59927  25.364  13.573   9.038  0.0739  0.1450 -0.2972
16875W        W59928  21.722  15.566   8.479  0.3110 -0.0643 -0.0558
16876W        W59929  22.633  23.140   4.402  0.3288 -0.2572 -0.2005
16877W        W59930  20.289   0.474  27.617  0.2244  0.0884  0.1156
16878W        W59931  28.010  27.298  25.370  0.1288  0.0919  0.0189
16879W        W59932   4.495   5.600   7.232  0.0088 -0.3592 -0.2528
16880W        W59933   4.415  28.499  28.645 -0.0234  0.1592 -0.4285
16881W        W59934  10.850  27.673  24.688 -0.0398 -0.0048 -0.1489
16882W        W59935  28.424  25.840   3.546  0.1672 -0.1847  0.1398
16883W        W59936  31.183  26.629   7.937  0.1544  0.0583  0.0237
16884W        W59937  27.289  21.805   9.238 -0.2642  0.1347  0.0420
16885W        W59938  26.286  27.686   7.603 -0.0967  0.2186  0.0400
16886W        W59939  23.105   4.883   4.970  0.1876 -0.3771 -0.2525
16887W        W59940  21.565   8.026   3.710 -0.2089 -0.1120 -0.0617
16888W        W59941  19.764  21.677  24.940 -0.3472 -0.0289 -0.1689
16889W        W59942  18.064  13.638   0.919  0.1110 -0.0995  0.0518
16890W        W59943  26.050  24.084   2.940 -0.0446 -0.1433  0.0686
16891W        W59944  18.566   7.355   2.347 -0.0496  0.4377 -0.2690
16892W        W59945  13.651   0.613   3.891  0.0942  0.0125  0.1482
16893W        W59946  17.690  25.116  11.131 -0.1338 -0.5386  0.0260
16894W        W59947  24.197  11.443   3.834  0.0237  0.0878  0.0319
16895W        W59948  26.110  14.114   6.966 -0.0757  0.2279 -0.1082
16896W        W59949  12.928  29.527   6.800  0.1060  0.0049  0.2014
16897W        W59950  16.346  19.263   4.968 -0.3468 -0.4240 -0.1404
16898W        W59951   9.974  18.294   9.460  0.1132  0.2461 -0.3154
16899W        W59952  18.180  29.729  10.197  0.1421  0.1107 -0.4055
16900W        W59953  27.976  31.949  27.271 -0.2313 -0.3597 -0.1469
16901W        W59954  23.946   9.035   9.793  0.1006 -0.1507  0.1494
16902W        W59955   9.532  33.622   2.177  0.2090 -0.1756  0.3953
16903W        W59956  13.659  26.239   5.381 -0.1721  0.0820 -0.2753
16904W        W59957  30.071  33.319   7.723  0.4119 -0.0634 -0.0491
16905W        W59958  14.387  29.769  20.550  0.1914  0.1471  0.1955
16906W        W59959  25.109  17.513  23.275 -0.1762  0.0153  0.0543
16907W        W59960  33.791  19.960   9.024 -0.2829 -0.1884  0.0153
16908W        W59961  25.730   8.249   8.768  0.0264  0.0315 -0.1674
16909W        W59962  19.009  18.333   8.194 -0.1529  0.1757  0.0809
16910W        W59963  31.877  11.081  28.988  0.0315  0.0727  0.1177
16911W        W59964  16.769  27.888  20.714 -0.1594  0.1534 -0.0522
16912W        W59965  23.891   9.376   4.594 -0.0645  0.1141 -0.0878
16913W        W59966  17.998  28.080   0.005 -0.1346 -0.0275 -0.0002
16914W        W59967  21.762  24.059   5.486  0.0415 -0.2138  0.1210
16915W        W59968  12.161  13.129  18.658 -0.2075 -0.0340 -0.0603
16916W        W59969   3.397  22.157   0.513 -0.1880  0.0658 -0.0614
16917W        W59970  19.682   8.495  10.915  0.3079 -0.2119 -0.1210
16918W        W59971  28.967  20.525  25.710  0.1392  0.1024  0.1529
16919W        W59972  16.918  32.626  27.302  0.1983  0.2326 -0.0266
16920W        W59973  28.383  14.371   3.392  0.1538 -0.0607  0.2948
16921W        W59974  33.866  29.914   1.350 -0.0376 -0.1480 -0.0949
16922W        W59975  33.046  29.224   4.616 -0.1262 -0.1706  0.2265
16923W        W59976  21.184  31.963   6.788 -0.0849 -0.0069  0.2444
16924W        W59977   8.407  33.090   3.638 -0.0879  0.1879 -0.0983
16925W        W59978  21.053  16.536  27.111 -0.1877 -0.1000  0.1258
16926W        W59979   1.043   1.233   3.281 -0.1130  0.1515  0.1083
16927W        W59980  18.586   7.843   0.969  0.0106 -0.0584 -0.1367
16928W        W59981  28.793  25.717   3.073 -0.1343 -0.0256 -0.1254
16929W        W59982  28.543  30.123  26.499 -0.2334 -0.1736 -0.1595
16930W        W59983  23.957  33.874  25.092 -0.1008  0.3603  0.0352
16931W        W59984  29.817  29.241   2.707 -0.1298 -0.0193 -0.1756
16932W        W59985  30.623  30.494  23.075 -0.1811  0.0339  0.0023
16933W        W59986  25.216  12.983   6.264 -0.2115  0.0441 -0.0128
16934W        W59987  28.049  33.925   1.775  0.2132  0.1177  0.2809
16935W        W59988  19.285  23.712  23.579 -0.0438 -0.1257  0.1544
16936W        W59989  24.705  25.096  17.370 -0.2903  0.2156  0.0087
16937W        W59990  16.114   5.176   2.388 -0.0368  0.1272  0.0329
16938W        W59991  11.262  19.755   6.888 -0.2843 -0.1676 -0.1612
16939W        W59992  11.555  21.026   9.329 -0.2042 -0.0236  0.0710
16940W        W59993  23.666  23.742   0.528  0.0862  0.2328  0.0093
16941W        W59994   8.870   5.279   4.829  0.2534 -0.1307 -0.3984
16942W        W59995  21.370  16.722  20.425 -0.2806  0.1867 -0.3199
16943W        W59996   3.286  24.377  26.588 -0.3982 -0.1354  0.1260
16944W        W59997  30.696   5.755  14.945 -0.1873 -0.2761  0.1540
16945W        W59998   6.621  27.678   7.804  0.2731  0.0323 -0.0763
16946W        W59999   3.263  33.422   6.451  0.1433 -0.3795  0.3486
16947W        W60000  21.555  23.433   9.182  0.3104 -0.1392  0.2121
16948W        W60001  21.940  27.975  26.693 -0.0961  0.0039 -0.0607
16949W        W60002  20.771   9.665   0.154 -0.2339 -0.0943 -0.1114
16950W        W60003  17.119  26.836   4.913 -0.2213 -0.3568 -0.0860
16951W        W60004  11.609   2.636   0.025 -0.0965 -0.0879  0.1905
16952W        W60005  15.069  21.873   6.874 -0.1041 -0.0211 -0.1591
16953W        W60006  17.066  19.202  26.553  0.1540  0.3013 -0.0487
16954W        W60007  22.501   9.561   1.636  0.0437  0.0728  0.1780
16955W        W60008  15.852  17.737   8.641  0.2054  0.0684 -0.1762
16956W        W60009  18.784  29.509   9.639  0.1247  0.0092 -0.2050
16957W        W60010  18.398  31.855   5.603  0.0176  0.2894  0.0129
16958W        W60011  27.631  29.103  27.704  0.0899  0.1063  0.0721
16959W        W60012  33.635   0.971   9.315  0.0806  0.0898 -0.3352
16960W        W60013  29.274  26.201   8.121  0.1724 -0.1837 -0.0053
16961W        W60014  10.389  25.538   9.232  0.1380 -0.0504 -0.0497
16962W        W60015  14.578  28.977  27.396 -0.2479  0.0130 -0.0207
16963W        W60016  15.262  33.671  24.584 -0.0254 -0.1305  0.0932
16964W        W60017  11.246  26.509   8.694  0.0021 -0.0071  0.0069
16965W        W60018  20.361  27.281  10.226 -0.2828  0.0828  0.0979
16966W        W60019  17.141  13.974   8.753 -0.2179 -0.0119 -0.3145
16967W        W60020  16.514  25.121  24.876  0.4031  0.0322 -0.0654
16968W        W60021  31.348  30.607   2.888 -0.3016 -0.3338 -0.3087
16969W        W60022  18.442  25.520   9.425  0.0360  0.1443 -0.1465
16970W        W60023   9.106  24.502  25.009 -0.1157 -0.0352 -0.1978
16971W        W60024  12.361  30.294   7.106  0.1062  0.1226  0.1546
16972W        W60025  26.604   6.198   1.668 -0.2529 -0.1778  0.2954
16973W        W60026   4.633  16.985  26.274 -0.3857  0.1324 -0.0506
16974W        W60027  12.450  19.178  27.165 -0.2741 -0.1263  0.0061
16975W        W60028  28.424  31.890   9.798  0.0774 -0.0368  0.0044
16976W        W60029  28.249  19.777   6.960 -0.2319 -0.0230 -0.1254
16977W        W60030  24.765  12.232  18.528 -0.4565 -0.2405 -0.0775
16978W        W60031  12.062  19.880  21.475  0.1168  0.1050 -0.0806
16979W        W60032  17.991  33.956  10.154 -0.1389 -0.3914  0.0395
16980W        W60033  16.462  22.947   7.256  0.4302  0.1205  0.3513
16981W        W60034  28.334  15.867  19.551 -0.2451 -0.0413 -0.1019
16982W        W60035  13.637   8.698   0.934  0.0378  0.0706  0.2058
16983W        W60036  24.372  17.900  26.070  0.1547  0.0910 -0.0270
16984W        W60037  15.795   3.862  23.175  0.0483  0.0705 -0.0909
16985W        W60038  14.363  27.264  22.629  0.2450 -0.3306 -0.0260
16986W        W60039  24.646  32.371   2.911  0.2435  0.0145 -0.1121
16987W        W60040  25.876  31.837  26.507 -0.1382 -0.3110  0.2753
16988W        W60041  11.958  32.328   3.083  0.1341  0.2602  0.1047
16989W        W60042  23.820  16.880  25.109 -0.0297 -0.1813  0.1057
16990W        W60043  28.589  24.309  26.817  0.0418 -0.1406  0.3425
16991W        W60044  20.897  21.576   3.065  0.1334 -0.0587 -0.3267
16992W        W60045  18.660   1.491   6.497  0.0350 -0.1969 -0.0228
16993W        W60046  17.783  30.271   5.608 -0.0763 -0.3829 -0.3970
16994W        W60047  21.230  17.276   4.410 -0.3076 -0.1355  0.1125
16995W        W60048  31.594  29.610   7.839  0.1664 -0.2640  0.1806
16996W        W60049  29.214  25.817  25.877  0.1673  0.0337  0.1200
16997W        W60050   7.598  17.680  27.686  0.2198  0.1736 -0.0816
16998W        W60051  23.773  13.496  10.083 -0.1900 -0.1332  0.1733
16999W        W60052  13.819  20.260   2.133 -0.1363 -0.1104 -0.1268
17000W        W60053  23.224  27.437   6.436  0.1971  0.0565  0.2560
17001W        W60054   4.600  27.109  21.421 -0.0232  0.1380  0.0294
17002W        W60055  20.352  12.911   2.352  0.2659  0.1076 -0.1664
17003W        W60056   9.280  25.234   0.517  0.2889 -0.3212 -0.4221
17004W        W60057   7.186  13.217  24.633 -0.1622 -0.3098 -0.1502
17005W        W60058   3.621  26.591  26.101  0.3086 -0.2745  0.2654
17006W        W60059  20.530   2.783  24.416  0.0797 -0.2602 -0.1707
17007W        W60060  21.609  19.794  28.760 -0.2960 -0.0919  0.0773
17008W        W60061   0.322  29.633   2.222  0.1639  0.1258  0.2188
17009W        W60062  24.173  23.321   5.708 -0.0286  0.0153 -0.1732
17010W        W60063   7.969  22.594  21.558 -0.2448 -0.1556 -0.0481
17011W        W60064  22.277  32.546   0.944  0.0283  0.4836  0.0224
17012W        W60065  16.583  13.444   8.252  0.0824  0.1319 -0.0058
17013W        W60066  24.001   4.113   0.850 -0.1058  0.2110 -0.0830
17014W        W60067  20.090  18.195   2.934  0.1753 -0.1880 -0.0163
17015W        W60068  13.301  25.000   5.804 -0.0003 -0.0206 -0.1804
17016W        W60069  22.750  25.022  28.114  0.0054 -0.0866 -0.2477
17017W        W60070   7.183  12.334   9.050  0.2888  0.0803  0.2423
17018W        W60071  16.492  28.313  24.317 -0.2311  0.1019 -0.0731
17019W        W60072  17.936  33.864   5.779  0.2787  0.0964  0.0973
17020W        W60073  24.376  10.537   2.954 -0.0594 -0.3498  0.2246
17021W        W60074  22.182   5.629  27.408  0.1552  0.0309 -0.0271
17022W        W60075  30.326   4.415  23.233 -0.0337  0.0115  0.2071
17023W        W60076  27.604  33.333  20.181  0.0538 -0.0434 -0.1183
17024W        W60077  13.964   2.056   7.546  0.2406 -0.0382  0.2450
17025W        W60078  20.524  31.336   5.215  0.2399  0.2029 -0.1566
17026W        W60079  20.120  29.580   8.678 -0.2947 -0.2957 -0.0438
17027W        W60080  31.889   1.856   1.477 -0.0489 -0.2147 -0.0848
17028W        W60081  16.325  23.876   8.476 -0.0083 -0.2193  0.3992
17029W        W60082  31.083  32.434   5.353 -0.3371 -0.2590  0.4444
17030W        W60083   8.504  26.502   7.645 -0.1292 -0.1810  0.0045
17031W        W60084   8.063  24.418   4.881 -0.2340 -0.0924  0.3488
17032W        W60085  23.429  15.418   9.553  0.2496  0.0908  0.2165
17033W        W60086  13.379  20.296   9.345  0.0844 -0.0806  0.0037
17034W        W60087  24.054  28.715   7.575  0.2670  0.1333 -0.3549
17035W        W60088  13.081  10.868   3.943 -0.2385  0.1065 -0.0124
17036W        W60089  20.401  20.270  17.457 -0.0414 -0.3961 -0.2284
17037W        W60090  24.325  22.669  16.199  0.2329  0.0204  0.0703
17038W        W60091  30.550   9.741   2.173 -0.2445 -0.0458  0.1119
17039W        W60092  21.699  28.431   7.488  0.1765  0.0764 -0.4555
17040W        W60093  10.670   2.836   9.666  0.2373 -0.1247  0.1496
17041W        W60094  29.803  26.411   2.572 -0.1747  0.2752  0.0180
17042W        W60095  17.600  20.172   4.359  0.2596  0.0282  0.0429
17043W        W60096  25.805  20.610   6.845 -0.1290 -0.1802 -0.0577
17044W        W60097  18.159  15.291   0.920  0.3531 -0.2566 -0.1863
17045W        W60098  17.520   0.841   6.760 -0.1539 -0.0459 -0.0471
17046W        W60099  29.103  25.207  27.570  0.1265  0.3268  0.0352
17047W        W60100  27.864  25.439   1.513 -0.5007  0.0097  0.1864
17048W        W60101  13.298  20.695  23.803  0.3032 -0.1609  0.0678
17049W        W60102  22.803  30.743   1.996  0.2023  0.2122  0.1586
17050W        W60103  13.057  34.558  22.725  0.2077 -0.0788 -0.2407
17051W        W60104  22.673  25.574   4.881 -0.1700 -0.0450 -0.0030
17052W        W60105  17.152  16.479   8.643 -0.2503 -0.1501  0.0440
17053W        W60106  15.895  28.235  28.229 -0.0564 -0.1310 -0.0260
17054W        W60107  25.733  22.489   7.137 -0.1118  0.3289  0.0191
17055W        W60108  11.672   2.849  22.420  0.0751 -0.1744  0.1278
17056W        W60109  27.285  29.766  28.190  0.1503 -0.0998  0.1427
17057W        W60110   9.589  20.214   7.004  0.0610 -0.0148 -0.1258
17058W        W60111  11.786  16.178  23.989  0.2562  0.3812  0.0552
17059W        W60112  27.383  32.733  19.076 -0.1134  0.1088 -0.2072
17060W        W60113  16.258  26.129   6.208 -0.0691  0.1354 -0.0976
17061W        W60114  22.385   5.938   5.909  0.1881  0.1072  0.0243
17062W        W60115  27.353  18.602  10.740 -0.0129  0.0879 -0.0782
17063W        W60116  19.946  24.880  27.334 -0.1958  0.1064 -0.0293
17064W        W60117  31.328  15.989   3.585  0.2919  0.0891  0.0790
17065W        W60118   7.279  28.170   7.391 -0.0738 -0.3412 -0.0786
17066W        W60119  30.100   4.118  28.948  0.0557 -0.2166 -0.2346
17067W        W60120   7.804  29.265   4.714 -0.0526 -0.3370 -0.3929
17068W        W60121  17.938  27.122   8.382 -0.1672 -0.2000 -0.1770
17069W        W60122  30.649  28.998   4.031  0.0798  0.0586 -0.0191
17070W        W60123   0.894  22.995   8.737  0.1551  0.2132  0.2681
17071W        W60124  21.830   5.820  23.868  0.2212 -0.2134  0.2684
17072W        W60125  24.144   3.806   2.214 -0.2104  0.2390  0.1602
17073W        W60126  27.785  29.445  26.306 -0.1902 -0.1395  0.1792
17074W        W60127  22.212   6.345   1.603  0.1387 -0.0292 -0.1581
17075W        W60128  29.661  14.294  28.199 -0.0163  0.1127 -0.1870
17076W        W60129  18.553  26.312   6.903  0.1355 -0.3072  0.2098
17077W        W60130  22.340  20.019  21.401  0.0709  0.2551  0.1292
17078W        W60131  17.476  16.358  27.445  0.4421 -0.1945  0.0817
17079W        W60132  23.223  15.479   2.038 -0.1506 -0.3224 -0.4144
17080W        W60133  13.360  22.496   4.016  0.0319 -0.3136 -0.0287
17081W        W60134  18.430  18.927  28.996  0.2718 -0.0225  0.0362
17082W        W60135  15.522  25.059   0.916  0.0326 -0.0136  0.1410
17083W        W60136   4.908  23.532  24.293 -0.0802  0.1695 -0.0790
17084W        W60137  25.874  24.841  28.587  0.0945  0.1921 -0.1973
17085W        W60138  28.160  12.721  27.369 -0.1854 -0.0375  0.1452
17086W        W60139  26.963   2.535   1.537  0.0757  0.3071 -0.0848
17087W        W60140  20.579   1.477   6.872  0.0479 -0.3785 -0.0182
17088W        W60141  10.892  32.001  18.362  0.3060 -0.3105 -0.1626
17089W        W60142  27.343  16.977  27.932  0.4163  0.2014  0.2661
17090W        W60143  16.048  17.894   1.464 -0.2604 -0.0939 -0.3115
17091W        W60144  12.457  13.784   9.252  0.1583  0.1103 -0.2951
17092W        W60145  19.321  18.570   9.188 -0.1777  0.1575  0.0011
17093W        W60146  25.987  26.971   1.198 -0.0645 -0.0400 -0.2010
17094W        W60147  15.385  27.564   7.165  0.1291 -0.1002  0.2603
17095W        W60148  33.799  28.532   7.018 -0.0982 -0.0149 -0.3868
17096W        W60149  21.545  31.676  26.974 -0.1174  0.2237 -0.2762
17097W        W60150   1.339   0.680  28.244  0.2806 -0.2583  0.1638
17098W        W60151   0.684  25.516   8.235  0.1052 -0.1301  0.0596
17099W        W60152  26.515   2.759   8.727 -0.3818  0.0679 -0.1335
17100W        W60153  33.060  19.311   3.013  0.0546 -0.0387 -0.4330
17101W        W60154  22.755  31.931   6.673  0.0138  0.1668 -0.4088
17102W        W60155   2.386   0.682  10.008  0.0745 -0.0598 -0.0177
17103W        W60156   9.359  13.177   4.163 -0.1187  0.2176 -0.1473
17104W        W60157  11.548  15.884  27.045 -0.1232  0.2609  0.0587
17105W        W60158  23.798  25.920   0.481 -0.0282  0.3417  0.0573
17106W        W60159  20.495   2.410   8.864 -0.0441 -0.2713  0.1220
17107W        W60160  13.723  25.005  26.576  0.1893 -0.0996 -0.0313
17108W        W60161  21.923  22.128   2.862  0.3360  0.0683 -0.1564
17109W        W60162  21.412  33.664   4.758 -0.0395  0.1944 -0.0012
17110W        W60163  13.627  23.589   8.393  0.1141  0.1715 -0.1087
17111W        W60164  21.081   4.104   5.132  0.0049  0.0833  0.2691
17112W        W60165  12.010   4.819   4.272  0.1312  0.0010  0.1309
17113W        W60166  17.767  25.175   3.170  0.1976 -0.0217 -0.0109
17114W        W60167  28.441   2.663   4.243  0.3003  0.2816 -0.0893
17115W        W60168   4.611   3.793   9.074  0.2099  0.0478 -0.0052
17116W        W60169  23.144  28.677  20.480  0.2972  0.1801 -0.4003
17117W        W60170  13.571   2.624   8.591 -0.1138 -0.1408  0.1480
17118W        W60171   9.461  29.461   8.865 -0.1055  0.1237  0.1171
17119W        W60172  24.745  33.239   6.803  0.2440  0.2272  0.0441
17120W        W60173  13.780  10.949  10.184  0.1242  0.0974  0.1459
17121W        W60174  16.090  20.399  26.613  0.0965 -0.2470  0.1136
17122W        W60175  32.852  13.589   5.742  0.1291  0.0247 -0.1020
17123W        W60176  25.778  19.392   7.338  0.0687  0.0050  0.1219
17124W        W60177  25.844   4.375   1.304 -0.0092 -0.2490  0.1967
17125W        W60178   8.489   9.580   7.076 -0.0655  0.1171 -0.0654
17126W        W60179  19.781  22.830   5.320 -0.4360 -0.1649 -0.1565
17127W        W60180  23.914  28.776  10.321  0.2608  0.1115  0.0367
17128W        W60181  23.331  20.538   5.868 -0.1138 -0.0062 -0.0419
17129W        W60182  20.324  23.537  10.581 -0.1416  0.1813 -0.1461
17130W        W60183  23.582  32.912   9.669 -0.0864  0.1503 -0.0599
17131W        W60184  17.942  27.737  27.373 -0.1357  0.0441 -0.0117
17132W        W60185  10.622  28.906   7.664 -0.1407 -0.0821  0.1440
17133W        W60186  23.704  16.848   5.381 -0.1727 -0.2245  0.2179
17134W        W60187  18.317  33.348   6.889 -0.2061 -0.2559 -0.2157
17135W        W60188  20.057  16.298   4.562 -0.0413 -0.1075  0.0578
17136W        W60189  11.304  13.907  10.579  0.0522 -0.0046  0.1132
17137W        W60190  12.474  22.333  10.307  0.0747  0.1103  0.0370
17138W        W60191  27.991  25.722   4.265 -0.1877  0.0950 -0.1370
17139W        W60192  31.947  23.681   3.676 -0.0158 -0.0530  0.1760
17140W        W60193  19.506  28.153   9.529  0.0308  0.1453 -0.0249
17141W        W60194  19.041  11.173  25.601 -0.0190 -0.1765  0.0339
17142W        W60195  20.815  18.513   3.877 -0.3381  0.0115 -0.0237
17143W        W60196  10.091  28.712   8.784 -0.1373 -0.0680  0.2897
17144W        W60197  18.135  21.024   6.269  0.1381 -0.0370 -0.1799
17145W        W60198  24.707  31.625  28.524  0.1998  0.1928  0.0283
17146W        W60199  19.848  33.736   4.021  0.0957 -0.1903 -0.2815
17147W        W60200  23.465   2.268   9.827  0.1688  0.0708  0.0389
17148W        W60201  23.149  13.642   7.485  0.0225  0.0850 -0.2576
17149W        W60202  29.777  31.079  23.523 -0.1207 -0.1274 -0.1038
17150W        W60203  19.942  27.342   9.813  0.2095 -0.0304  0.3143
17151W        W60204   5.242  20.991  14.187  0.2071  0.1217 -0.1659
17152W        W60205  17.809  28.097   1.931  0.0819  0.0336  0.1741
17153W        W60206  12.889  26.813  23.228  0.0842  0.3625  0.2257
17154W        W60207  28.978  16.748  24.731  0.1440  0.2231 -0.1481
17155W        W60208  28.400  30.079   7.184 -0.0495  0.3220 -0.2501
17156W        W60209  10.466   0.899   5.985 -0.1288  0.2613 -0.0986
17157W        W60210  21.901  33.286   7.783 -0.2149 -0.0931 -0.0628
17158W        W60211  15.813  21.790   6.697 -0.2518  0.1202  0.3258
17159W        W60212  11.788  10.272   5.040  0.1629 -0.0123 -0.0100
17160W        W60213  25.309  17.658   2.786 -0.3418  0.0406  0.2001
17161W        W60214  21.894  23.260   3.828  0.1222  0.2085  0.0860
17162W        W60215  18.015  18.318   2.878  0.2041 -0.1986 -0.0840
17163W        W60216  18.213  21.698  27.061 -0.1796  0.0725 -0.1879
17164W        W60217   3.061   9.630   7.588  0.1335  0.1232 -0.3477
17165W        W60218  19.920   2.367   6.160  0.1400 -0.3883  0.0227
17166W        W60219  20.992  22.906   2.496 -0.1187  0.0053  0.0203
17167W        W60220  13.125  29.046   4.947 -0.0789  0.1749  0.2444
17168W        W60221  24.678  29.311   8.919 -0.0735 -0.0063 -0.1944
17169W        W60222  32.369  24.496  26.354  0.1866  0.2610 -0.3403
17170W        W60223  16.046  31.513   1.300 -0.4408 -0.1944  0.1036
17171W        W60224  31.431  31.790   6.514  0.0416 -0.1345 -0.2188
17172W        W60225  18.926  33.751   5.818 -0.1181 -0.1644 -0.1979
17173W        W60226  28.161  17.984   5.687 -0.0770 -0.1758  0.1387
17174W        W60227  26.350  29.128  27.802 -0.0978 -0.2056 -0.0247
17175W        W60228  15.280  18.372   1.177 -0.2850  0.2230 -0.0244
17176W        W60229  14.687   1.010   8.391 -0.1803  0.0847  0.1651
17177W        W60230   5.818  22.326  24.754  0.0279 -0.2078 -0.0618
17178W        W60231  17.948  14.763   0.323 -0.2684  0.0664 -0.0265
17179W        W60232   0.681  30.814   8.644  0.2647 -0.0291 -0.0934
17180W        W60233  23.820  29.386   7.978  0.2311 -0.2285  0.0828
17181W        W60234  26.430  23.480  28.241 -0.1405  0.0354  0.3269
17182W        W60235   5.249  31.203  21.552  0.5198 -0.2018 -0.0816
17183W        W60236  28.146  17.550   4.652  0.1535 -0.1688  0.3010
17184W        W60237  22.288  20.745   3.036 -0.4340  0.0201  0.1793
17185W        W60238  19.632  33.623   8.627 -0.1321 -0.3327  0.1016
17186W        W60239  14.031  21.005  23.990 -0.1933  0.0698 -0.2137
17187W        W60240   3.461  31.013   6.130 -0.1168 -0.2256  0.0691
17188W        W60241   3.233  23.184   6.844  0.0612 -0.1482 -0.1702
17189W        W60242  10.402  33.721  10.328  0.2086  0.1085  0.0894
17190W        W60243  22.826  25.027  24.264 -0.3116  0.2386 -0.0443
17191W        W60244   5.016   5.472  24.349 -0.1285  0.2052  0.0121
17192W        W60245   8.160  18.792  26.464  0.1315  0.0532 -0.0675
17193W        W60246  28.633  25.662   5.950  0.2390 -0.0623  0.0811
17194W        W60247  12.884  31.195  17.109 -0.0021 -0.2009  0.1463
17195W        W60248   6.185  21.327   7.706 -0.0522 -0.2306 -0.2114
17196W        W60249  33.374  20.945   0.460  0.2537  0.2159 -0.0358
17197W        W60250  31.120  29.875   9.498  0.1417 -0.0706  0.0566
17198W        W60251  25.483  28.821  24.961 -0.1574 -0.1845 -0.1089
17199W        W60252   0.588  16.576   4.147  0.0500 -0.1021  0.1199
17200W        W60253  29.543   0.373  15.083  0.0919  0.0659  0.1316
17201W        W60254  18.279  23.098  23.036  0.0552 -0.2492 -0.0213
17202W        W60255  30.514  33.771  26.467 -0.0733 -0.2548  0.0551
17203W        W60256   7.633  13.843   6.821 -0.1161  0.1017  0.0880
17204W        W60257  28.897   1.815   7.979 -0.4113  0.0461 -0.0005
17205W        W60258  29.723  17.617   8.942 -0.1983 -0.2059 -0.0265
17206W        W60259   7.496  25.438   3.552  0.2838 -0.0283 -0.1702
17207W        W60260  19.494  18.866   6.321 -0.0461 -0.1281  0.1683
17208W        W60261  16.360  25.208   7.241  0.0441 -0.0384  0.1589
17209W        W60262  23.691   7.935   1.604 -0.0606  0.2542 -0.1279
17210W        W60263   0.788  33.849  23.355  0.2648  0.2413  0.1152
17211W        W60264   4.246  24.102  22.177  0.1243  0.3281  0.1086
17212W        W60265   7.355  18.830   2.041  0.1342 -0.2841 -0.4928
17213W        W60266  25.463  25.115   9.251 -0.1253  0.2048 -0.0808
17214W        W60267   9.348  33.297   5.227  0.0107 -0.2866  0.3600
17215W        W60268  11.286  31.455   0.010 -0.0860  0.0643 -0.2421
17216W        W60269  10.238  18.289   7.064 -0.1498 -0.1649  0.1822
17217W        W60270  30.109  26.433   5.425 -0.0149  0.1020 -0.0879
17218W        W60271  16.137  24.780   7.550  0.1519 -0.1796 -0.0275
17219W        W60272  15.910  15.604  26.626 -0.1454  0.2776 -0.0091
17220W        W60273   7.058  27.287   6.245  0.0876  0.2726  0.0060
17221W        W60274  19.760   3.091   4.314  0.2729  0.0280 -0.0409
17222W        W60275  18.070  26.250   1.141  0.0459  0.2450  0.0026
17223W        W60276  24.024  23.401   1.442  0.0036  0.0927  0.0286
17224W        W60277  33.085  18.599  25.939 -0.0682  0.0352 -0.2859
17225W        W60278  18.167  32.617   0.455 -0.1240  0.1377 -0.1255
17226W        W60279  24.877  27.389   7.140  0.0120 -0.0507 -0.1061
17227W        W60280  22.645  12.903   5.276  0.1389 -0.1970 -0.0299
17228W        W60281  24.744  34.531   2.053  0.3607  0.0485  0.2169
17229W        W60282  21.090  24.446   3.139  0.2947  0.1293  0.3931
17230W        W60283  32.432  32.836   7.207 -0.0594 -0.0089 -0.0230
17231W        W60284  16.035  23.285   7.305  0.2077 -0.2415 -0.3044
17232W        W60285  19.337  17.625   6.495 -0.1407 -0.2284 -0.3826
17233W        W60286  17.832   9.123   3.995 -0.3296  0.3272  0.1786
17234W        W60287   0.210  10.583   5.069  0.0194 -0.0517 -0.0962
17235W        W60288  24.117  24.004   6.025  0.1297 -0.1087 -0.1800
17236W        W60289   5.571  23.859   8.521  0.0545  0.1988 -0.1313
17237W        W60290  24.653  26.307  27.768 -0.1198  0.0071  0.0146
17238W        W60291  11.188  16.455  28.348  0.0544 -0.2065  0.1856
17239W        W60292  27.258   3.004   8.452  0.1942 -0.1155  0.0360
17240W        W60293  14.228  20.311  23.315 -0.1177  0.1483 -0.2012
17241W        W60294  30.597   3.722   2.674  0.0887  0.1188 -0.3745
17242W        W60295  22.145  33.535   8.584 -0.0028  0.1656 -0.1170
17243W        W60296   1.131  20.047   3.980  0.0489 -0.0660  0.1591
17244W        W60297  24.926  22.875  28.344 -0.3253  0.1182  0.0195
17245W        W60298   9.805  29.943   4.406 -0.2321  0.0561 -0.0041
17246W        W60299  21.515  21.684   9.713  0.2486  0.2105 -0.2506
17247W        W60300  17.747  22.606  23.207 -0.1066 -0.0153 -0.1631
17248W        W60301  18.542  26.296   4.116 -0.1741 -0.2690 -0.1135
17249W        W60302  26.464  17.490  28.969  0.0373  0.1333 -0.2755
17250W        W60303   0.155  23.955  23.906 -0.3116  0.0309  0.0287
17251W        W60304  24.295  26.496   5.217 -0.0376  0.0737 -0.0066
17252W        W60305   9.372  26.754   6.124 -0.1788  0.3306 -0.1179
17253W        W60306  29.299  10.377   5.715  0.0501  0.0310 -0.0744
17254W        W60307  13.654  12.307  18.017  0.1127  0.1668  0.1831
17255W        W60308  18.730  19.651   8.842  0.3750 -0.3185 -0.1390
17256W        W60309   6.976   9.402   2.949 -0.0815 -0.2541 -0.1500
17257W        W60310  15.028  20.367   3.571 -0.1507 -0.1860 -0.0454
17258W        W60311  20.521   8.498   7.240 -0.0809  0.0289 -0.2536
17259W        W60312  15.922  30.600   7.193 -0.2145 -0.4836  0.3041
17260W        W60313  11.974  17.240   0.958  0.0399  0.0143 -0.0367
17261W        W60314  20.423  15.231   9.321 -0.1726  0.2247 -0.1001
17262W        W60315  14.873  21.927  23.817  0.0298 -0.0249  0.3675
17263W        W60316  24.075  34.230   5.413 -0.0486  0.1114  0.1600
17264W        W60317   0.484  19.060   7.063 -0.0524 -0.1057  0.0288
17265W        W60318  22.001  32.571   4.499  0.1496 -0.2650  0.0004
17266W        W60319   7.327   0.080   1.400  0.0038 -0.1412  0.0291
17267W        W60320  27.640   1.642   0.321 -0.2047  0.0877  0.0293
17268W        W60321  13.392  13.218   6.123 -0.2615  0.1880 -0.2447
17269W        W60322  24.524  19.337   6.242 -0.0592  0.1207  0.0492
17270W        W60323   0.312   6.963  28.377  0.0997 -0.0714  0.2390
17271W        W60324   0.252  12.736   5.791  0.1834  0.0104  0.4060
17272W        W60325  31.595   6.168   2.167  0.2586 -0.0015 -0.1838
17273W        W60326  25.110   9.177   8.896  0.0081 -0.0181  0.1423
17274W        W60327   8.707   2.311   9.153 -0.2117 -0.2047 -0.2027
17275W        W60328  16.152  14.558   0.252  0.2655 -0.2678  0.0840
17276W        W60329  18.671  24.117   7.629 -0.1301 -0.0711 -0.2017
17277W        W60330  11.751  26.666   4.581 -0.2467  0.0732  0.3718
17278W        W60331  16.694  20.274   9.020 -0.2085  0.2022 -0.0094
17279W        W60332  27.613  32.256  27.128 -0.3275  0.3121 -0.4019
17280W        W60333   2.880  31.100  26.961  0.0250 -0.1274 -0.0602
17281W        W60334  15.950   7.632   9.873 -0.3276  0.3174  0.2641
17282W        W60335  17.110  21.426   3.150 -0.0301  0.2042 -0.0055
17283W        W60336  27.399  25.087  26.086 -0.1144  0.1392  0.1079
17284W        W60337  27.130  19.151   7.354 -0.4194  0.4966  0.1663
17285W        W60338  30.757  27.525  27.302  0.0799 -0.1744 -0.2792
17286W        W60339  22.912  20.797   9.741 -0.2318 -0.2851 -0.3080
17287W        W60340  30.516   1.472   8.755 -0.1279 -0.0710  0.2735
17288W        W60341   0.372  21.739   7.402  0.1693 -0.1483  0.0981
17289W        W60342  26.951  28.419   1.229 -0.1481 -0.2688 -0.1623
17290W        W60343  28.485  13.675  10.840 -0.2476 -0.3200  0.1643
17291W        W60344  21.970  29.219   8.348 -0.0077  0.0784 -0.1085
17292W        W60345  27.868  13.423   9.132 -0.1280  0.1737 -0.0567
17293W        W60346  19.459   0.703  28.672 -0.0578 -0.0129 -0.0119
17294W        W60347  34.363  21.744   4.298 -0.0546  0.1702 -0.3404
17295W        W60348  12.603   7.768   7.972 -0.3708  0.2268 -0.1577
17296W        W60349  13.763   1.206   8.149  0.3510  0.1782 -0.2010
17297W        W60350  33.185  21.643   6.052 -0.0632 -0.0551 -0.0268
17298W        W60351  28.493  23.083   1.921 -0.0390  0.0575 -0.1492
17299W        W60352   6.580  24.914   2.648  0.2179  0.2946  0.0658
17300W        W60353  28.699  30.083   4.928  0.3109 -0.2942  0.3541
17301W        W60354  19.562  18.938   6.897 -0.2007 -0.1422 -0.0185
17302W        W60355  13.294  17.897   0.806 -0.0562  0.0785  0.0943
17303W        W60356   3.693  15.151   2.201 -0.2197  0.4401  0.0220
17304W        W60357  17.282  27.461   9.647  0.0552 -0.2578  0.4319
17305W        W60358  28.644   2.281   5.568  0.1303 -0.1769 -0.0986
17306W        W60359   4.463  30.386   3.541  0.0626 -0.0817  0.1253
17307W        W60360  24.905  23.890   8.360 -0.1102 -0.3312  0.0640
17308W        W60361  14.883  27.743   6.354 -0.2266  0.4310 -0.1315
17309W        W60362   4.124  13.529   9.107 -0.2792 -0.2003 -0.4946
17310W        W60363  21.001  25.061   5.423 -0.1768 -0.0636  0.0957
17311W        W60364   4.186  27.823  22.796  0.1718  0.0699  0.2606
17312W        W60365   4.911  22.310   9.154  0.0228 -0.1243  0.0244
17313W        W60366  24.504  21.731   4.706 -0.2126 -0.1888  0.3540
17314W        W60367  12.781  17.894   4.112 -0.2666 -0.1518  0.0198
17315W        W60368  20.267  30.558  28.322  0.1099  0.2687 -0.0297
17316W        W60369  24.515  22.136   3.845 -0.0930 -0.0253 -0.1177
17317W        W60370   5.390  28.784   3.790  0.0952 -0.0143 -0.1860
17318W        W60371   9.541  22.534   3.052  0.0180 -0.2724 -0.1887
17319W        W60372  12.435   1.789   3.674 -0.1093 -0.0525  0.2682
17320W        W60373   8.382  34.063   8.644  0.1421  0.0077 -0.0740
17321W        W60374  25.230  26.001   9.824  0.1106  0.0242 -0.1146
17322W        W60375  23.115  27.564   5.276  0.1141  0.0004  0.1032
17323W        W60376  10.872  20.190  25.018  0.4134  0.1239  0.0011
17324W        W60377   5.962  32.834   6.830 -0.1977 -0.0659 -0.1573
17325W        W60378  14.588  23.962   0.344 -0.0360  0.0760 -0.0903
17326W        W60379  31.617  31.456   4.378 -0.3397 -0.0045 -0.0877
17327W        W60380  20.536  24.540   6.144  0.2505 -0.3253  0.0089
17328W        W60381  26.078  26.668  18.748  0.2063  0.0287 -0.0299
17329W        W60382  28.322   9.055   8.877 -0.1767 -0.2363 -0.0603
17330W        W60383  28.116  13.488  22.713  0.3274  0.2941 -0.1299
17331W        W60384   9.499   3.756   9.855 -0.0611 -0.0203 -0.1767
17332W        W60385   5.163   6.423   3.013  0.0275  0.0113  0.3326
17333W        W60386  32.049  29.067  24.547 -0.3059 -0.4786 -0.1391
17334W        W60387  23.712   3.034   9.055 -0.0352 -0.0205 -0.0248
17335W        W60388  33.010   9.079   2.305 -0.0715  0.0547 -0.0859
17336W        W60389  24.873   5.400   1.563 -0.1202 -0.0779  0.0171
17337W        W60390  23.907   4.026   8.907  0.1234  0.2682  0.0519
17338W        W60391  21.507  18.520  26.480 -0.1630  0.0210  0.3441
17339W        W60392  23.477  24.099   7.556 -0.0208 -0.0807 -0.0804
17340W        W60393  13.045   9.895   5.347  0.1828 -0.3004  0.0944
17341W        W60394  17.480   8.399  17.331 -0.0110 -0.1750 -0.0851
17342W        W60395  16.516  19.060  28.194 -0.1657  0.1613 -0.2055
17343W        W60396   5.624  29.959  13.453 -0.2523  0.0678  0.1598
17344W        W60397  15.544  13.544  20.298 -0.1910  0.0383 -0.2918
17345W        W60398  17.304   5.238  27.088  0.0422  0.3596  0.1301
17346W        W60399  30.706   2.790   1.014  0.3274  0.0922  0.0326
17347W        W60400  10.564  20.689  23.806  0.4372  0.1309 -0.0211
17348W        W60401  30.508   2.709  27.870 -0.2254 -0.0384 -0.3440
17349W        W60402  14.495   0.110   7.343 -0.2182  0.1238 -0.0115
17350W        W60403  10.242   2.038   8.094 -0.2312  0.3089 -0.0024
17351W        W60404  22.734  32.644   7.343  0.1916  0.4076 -0.1002
17352W        W60405  27.072  12.654   7.536  0.1023 -0.0483  0.5127
17353W        W60406  25.878  19.070   2.105  0.2753  0.3458  0.0523
17354W        W60407  24.209  31.295  17.285 -0.1076  0.1349  0.1728
17355W        W60408  12.662   3.084   1.656 -0.1335 -0.2885 -0.1565
17356W        W60409  21.739  26.812   0.966 -0.2826 -0.2767  0.2115
17357W        W60410  18.125   0.333  27.280  0.1317 -0.1929 -0.0032
17358W        W60411  23.168  13.999  26.285  0.1508 -0.2233  0.0963
17359W        W60412  12.811   4.039   5.057 -0.2447 -0.0123  0.1793
17360W        W60413  17.979  19.517   3.418 -0.0783  0.0001  0.3146
17361W        W60414  31.862  33.411  14.367 -0.0697  0.0022 -0.0050
17362W        W60415  25.756  12.528   0.505  0.0888  0.1925 -0.0518
17363W        W60416  23.043  22.412  24.857 -0.2598  0.1918 -0.0097
17364W        W60417  15.948  32.327  25.710 -0.2895  0.1694  0.0844
17365W        W60418  22.344   4.276   3.510 -0.3527 -0.1439 -0.1143
17366W        W60419  25.980   9.388   3.797  0.1362 -0.1058 -0.0358
17367W        W60420  30.786  15.304   0.683  0.3194  0.0268 -0.0391
17368W        W60421  27.062   5.797   5.454  0.0292  0.1843 -0.2624
17369W        W60422  10.986  20.777   5.963 -0.0814 -0.3785  0.0441
17370W        W60423  32.194   5.773  18.751  0.2566 -0.1329 -0.2169
17371W        W60424  22.058   9.718   4.400 -0.0353 -0.0639 -0.2975
17372W        W60425  22.854  26.140   8.869 -0.1046  0.0584  0.1621
17373W        W60426  19.057  23.265   9.820 -0.0817 -0.4015 -0.2465
17374W        W60427  30.028  19.458  27.678 -0.3203  0.0655 -0.2641
17375W        W60428  11.583  29.209  13.592 -0.2042  0.1029 -0.1314
17376W        W60429  22.840   6.869   0.081 -0.1204 -0.0852 -0.0778
17377W        W60430  15.345  26.840  27.496 -0.2700  0.0239 -0.1488
17378W        W60431  30.902  24.301  28.149  0.3512 -0.1821 -0.0815
17379W        W60432   8.729  34.499   6.565  0.0997 -0.4011  0.1791
17380W        W60433  18.256  29.821  16.104  0.2287 -0.2711 -0.1209
17381W        W60434  34.121  28.176  26.937 -0.1620 -0.2099  0.0528
17382W        W60435  29.616  13.803   8.053 -0.4702 -0.1893  0.0521
17383W        W60436  17.241  29.132   7.598 -0.1951 -0.1155 -0.0841
17384W        W60437  16.892   0.822   3.029 -0.1909 -0.2956 -0.2286
17385W        W60438  19.510  21.049   8.370 -0.2893 -0.2008 -0.0266
17386W        W60439  25.627  31.560  28.802  0.0213  0.1541 -0.2719
17387W        W60440  18.477  12.908   1.680  0.4810 -0.2224 -0.2948
17388W        W60441  14.906   3.989   9.545  0.0042 -0.1678  0.0478
17389W        W60442  24.468   9.729  28.990  0.1230 -0.0275  0.1280
17390W        W60443   4.874  15.517  28.665 -0.0525  0.0144 -0.2075
17391W        W60444   8.998  10.796  23.537  0.0054  0.0021 -0.1571
17392W        W60445  24.283  33.821  29.149  0.2387  0.3539 -0.1389
17393W        W60446  11.658  25.656  20.169  0.0127  0.1328  0.1417
17394W        W60447  21.852  32.592  28.949 -0.2534 -0.5821  0.0839
17395W        W60448  22.073   1.489  24.629  0.0399 -0.2348  0.3450
17396W        W60449  25.234  11.619   4.423 -0.1401  0.0343 -0.1802
17397W        W60450  33.740  28.585  13.415 -0.0571 -0.2672  0.1582
17398W        W60451  31.502   2.966  16.988 -0.1589 -0.1121 -0.2723
17399W        W60452  19.402  23.176  16.323 -0.0462 -0.0287 -0.0217
17400W        W60453   7.475  30.821   8.282 -0.0455  0.3233 -0.1453
17401W        W60454  18.142  34.395  22.469 -0.1018 -0.1465  0.4519
17402W        W60455  32.251  32.451   2.383 -0.3667 -0.1925  0.0119
17403W        W60456  28.242  30.613  27.480 -0.1069 -0.2729 -0.0832
17404W        W60457  13.749   8.650  14.504  0.2005  0.0480  0.0624
17405W        W60458   6.931  34.206  23.633  0.4109 -0.2607  0.2317
17406W        W60459  15.708  24.578   5.050 -0.4798  0.2562  0.0567
17407W        W60460  27.901  25.077   6.208  0.0817 -0.0207 -0.2859
17408W        W60461  31.653  14.365   7.155 -0.0660 -0.0360  0.1571
17409W        W60462  21.018   5.919   6.678  0.0051 -0.2247  0.0994
17410W        W60463  21.274  15.574   7.878 -0.3177  0.1000 -0.0086
17411W        W60464  11.789  28.682   4.801  0.1361  0.0506 -0.0948
17412W        W60465  15.956  25.310   8.585 -0.1400 -0.2036  0.0873
17413W        W60466  13.299  33.094   1.883 -0.2155 -0.1240  0.0096
17414W        W60467  13.750  33.102  24.772  0.1008 -0.1111 -0.2397
17415W        W60468  17.201  29.753  26.079 -0.1138  0.0047 -0.2719
17416W        W60469  12.639   0.661  24.024 -0.0173  0.0067 -0.0194
17417W        W60470  17.823  31.675   0.722  0.0067 -0.0210 -0.1055
17418W        W60471   4.044  15.383  25.802  0.1070 -0.0175  0.1984
17419W        W60472  23.445  23.977  25.598 -0.1394 -0.1526 -0.0582
17420W        W60473  19.365   5.473   9.555  0.2065  0.0552  0.1709
17421W        W60474  30.965   4.086  21.777  0.2238  0.0086 -0.0308
17422W        W60475   8.564  21.605  22.819  0.1604  0.1519  0.0054
17423W        W60476   6.321  13.198   6.584 -0.0763 -0.0121  0.1011
17424W        W60477  17.462  31.282  22.540  0.0302  0.1373  0.0628
17425W        W60478  24.802  34.402   6.199  0.1937  0.0548 -0.0976
17426W        W60479  15.321  24.856   7.953 -0.1206 -0.0782 -0.0182
17427W        W60480   6.602   6.157   9.642  0.0855 -0.0744 -0.0527
17428W        W60481   8.857  28.707  21.430  0.3923 -0.0573 -0.1461
17429W        W60482  21.088  25.905   4.318  0.1177  0.0870  0.0055
17430W        W60483  32.425   6.865  19.916  0.0180  0.1131 -0.1363
17431W        W60484  15.078  32.546   1.150  0.1882 -0.0514 -0.0058
17432W        W60485  16.600  26.699   0.550  0.1885 -0.2059  0.0254
17433W        W60486  34.101  18.367   1.511  0.3411  0.2343 -0.1224
17434W        W60487  32.017  13.713  25.602  0.2714 -0.5402 -0.1028
17435W        W60488   6.064   7.098  25.364  0.2375 -0.0675  0.0691
17436W        W60489   4.633   5.861   7.759  0.1490  0.0348 -0.0184
17437W        W60490  20.809  20.735   9.152 -0.0543 -0.0218  0.0126
17438W        W60491  28.080  29.895  29.148 -0.1462 -0.3014 -0.0437
17439W        W60492  17.669  14.083  20.796 -0.0183 -0.0688 -0.0244
17440W        W60493  29.370  34.610  21.946  0.4480  0.0952 -0.3789
17441W        W60494   6.423  20.114   2.105  0.0308  0.2068 -0.1469
17442W        W60495  28.049   4.447  18.952 -0.1086  0.1477 -0.3169
17443W        W60496  30.973  33.450  27.968  0.3294  0.0149  0.2010
17444W        W60497  24.416  10.536   2.140  0.0717  0.1611  0.1785
17445W        W60498  23.351  25.577  28.429 -0.5491  0.1191  0.3945
17446W        W60499  34.474   5.795   4.066  0.1645  0.0854  0.2459
17447W        W60500  13.217  29.658  23.779  0.2132 -0.2797  0.0318
17448W        W60501  18.637   6.935   8.196  0.0474  0.3680 -0.2303
17449W        W60502  27.527  23.690  24.247 -0.0337 -0.0338 -0.2627
17450W        W60503  25.817  34.056   0.794 -0.1354 -0.2240 -0.0567
17451W        W60504  23.466  25.924   4.711  0.2604 -0.0167 -0.1932
17452W        W60505  24.736  34.668   0.735  0.1583  0.0760  0.0217
17453W        W60506  17.992   7.447   1.705  0.1384 -0.1306  0.3050
17454W        W60507  13.499  20.338   8.804  0.0866  0.1398  0.1054
17455W        W60508  19.887   5.627   6.553  0.0097 -0.1350  0.1300
17456W        W60509  22.766   5.990   0.541 -0.1666 -0.0326 -0.1773
17457W        W60510   3.890   2.864  28.970  0.1071  0.1653  0.2310
17458W        W60511  18.468   9.737   4.403  0.0491 -0.2236 -0.1831
17459W        W60512  26.504  29.000   9.525 -0.3095 -0.0900 -0.0110
17460W        W60513  15.554  26.215   0.125 -0.3273 -0.2864  0.1530
17461W        W60514  31.855  30.113  24.358  0.1169 -0.0704 -0.1217
17462W        W60515  16.623   9.362   3.817 -0.0044  0.0615  0.0714
17463W        W60516   9.953  20.044  25.191  0.3973 -0.1722  0.1900
17464W        W60517  29.325  28.293   0.031 -0.2813 -0.3331  0.0906
17465W        W60518  10.662  23.984  20.048 -0.0461  0.1317  0.0397
17466W        W60519  18.251  24.838   8.911  0.2300  0.2253 -0.1492
17467W        W60520   1.496   3.304   3.592  0.1298 -0.1481 -0.1057
17468W        W60521  28.133   6.054   3.146  0.2084 -0.1507  0.2815
17469W        W60522  17.321   7.901   1.568  0.1071  0.0566  0.1567
17470W        W60523   7.695   7.740  14.709 -0.0549 -0.2948  0.0388
17471W        W60524  29.143  33.148  24.516  0.1517 -0.3142  0.2445
17472W        W60525  18.426  21.459   3.006 -0.0010  0.0828  0.0901
17473W        W60526   0.944   2.155  26.266  0.1948 -0.0554  0.1042
17474W        W60527  27.268   4.905  28.059 -0.2122  0.2500  0.1598
17475W        W60528  18.893  34.259   0.376 -0.1036 -0.1248  0.1238
17476W        W60529  24.352  23.122   3.314  0.1260 -0.2045  0.1171
17477W        W60530  26.029  29.805   2.573  0.2737 -0.1677  0.3520
17478W        W60531  20.921   0.127  26.783 -0.1022 -0.0219  0.0178
17479W        W60532  13.531   9.372   8.911  0.1936 -0.0415  0.2569
17480W        W60533   9.832  31.133  24.347 -0.0665  0.0952  0.2612
17481W        W60534  34.243  34.504   2.771  0.0504 -0.3093 -0.0892
17482W        W60535  21.070  22.219   1.907 -0.0103  0.0785 -0.2683
17483W        W60536   1.173   0.234   1.079 -0.2525 -0.2746 -0.1434
17484W        W60537  23.939  25.070   9.078 -0.3613 -0.1821  0.0766
17485W        W60538  30.224  12.049  24.434 -0.0745  0.2420 -0.1350
17486W        W60539  23.377  22.835  28.159  0.3354  0.0419 -0.2634
17487W        W60540  16.696  34.398   6.960  0.1103  0.3530  0.2903
17488W        W60541  15.078   0.101   5.473  0.0565 -0.1641 -0.1186
17489W        W60542  25.671  27.110  28.068 -0.0915  0.0739 -0.0650
17490W        W60543  30.843   3.823   7.054 -0.2315 -0.0042  0.3042
17491W        W60544  22.099  26.890  10.704  0.2524  0.0899 -0.1261
17492W        W60545  17.201  32.256  14.608  0.2263  0.0062  0.1316
17493W        W60546  10.449  22.103   6.610  0.0049 -0.3509  0.2496
17494W        W60547  19.814  25.239   0.548  0.0925 -0.4136 -0.1358
17495W        W60548   3.835  24.726   5.660  0.1565  0.1377 -0.1433
17496W        W60549  32.229  21.113  18.500  0.0028 -0.1824  0.4594
17497W        W60550  18.654  10.174  26.527  0.2950 -0.4156 -0.2651
17498W        W60551  26.041  34.602   0.994 -0.0902 -0.3270 -0.2923
17499W        W60552  13.511   3.359  19.755  0.0489 -0.1538  0.1582
17500W        W60553  10.847  28.113  26.975 -0.0926  0.1013  0.1634
17501W        W60554   1.409  17.849   0.667  0.1942 -0.3719  0.2668
17502W        W60555  26.292  31.971  24.894  0.1579  0.0735  0.0373
17503W        W60556  20.032  28.323   7.088  0.0529  0.1182  0.0114
17504W        W60557  27.938  28.792  25.608 -0.1727 -0.0360 -0.1421
17505W        W60558   2.141   0.586   6.844 -0.1225  0.1002  0.1205
17506W        W60559  18.851   2.513  26.082  0.1131 -0.0020  0.2461
17507W        W60560  13.277   1.296  10.269 -0.1166 -0.3987 -0.0748
17508W        W60561  17.916  11.633  22.365 -0.1436 -0.1619 -0.0891
17509W        W60562  33.179  14.902  26.031  0.2040 -0.0788 -0.2347
17510W        W60563   6.984   5.662   1.669 -0.2748 -0.0187  0.2635
17511W        W60564  13.328  31.235   5.462  0.1115  0.3481 -0.0224
17512W        W60565  13.780   6.899  10.760  0.1547 -0.2459  0.0442
17513W        W60566  15.697  20.210  28.122 -0.2228 -0.0788 -0.3112
17514W        W60567  12.985  30.455   2.383  0.1384  0.0007 -0.2697
17515W        W60568  27.478  32.602   1.541 -0.2037  0.0910 -0.1947
17516W        W60569  14.631  32.108   8.357  0.2331 -0.1756  0.0626
17517W        W60570  30.804  31.278   7.190 -0.2193 -0.0108 -0.0585
17518W        W60571  16.608  20.511   6.918  0.4084  0.0684 -0.1634
17519W        W60572  24.853  28.500   2.951 -0.1807  0.0227  0.1230
17520W        W60573  26.404  21.578  17.484 -0.0896  0.2981 -0.0292
17521W        W60574  16.913   1.538  15.816 -0.1174  0.0656 -0.1679
17522W        W60575   8.887  28.363  27.051 -0.1822 -0.2237  0.2033
17523W        W60576  29.732   0.000   7.494 -0.0952  0.3910  0.1116
17524W        W60577  22.980  24.851   7.747  0.0604  0.0652 -0.0862
17525W        W60578  16.802  15.109  28.378  0.4286  0.0700 -0.3056
17526W        W60579  22.370  28.699   4.382  0.0979  0.0358  0.0521
17527W        W60580  20.996  27.901  21.009 -0.3390  0.2887 -0.1853
17528W        W60581  23.349  34.087  22.896  0.1453  0.0182  0.1251
17529W        W60582  23.398  27.010   3.100 -0.0164  0.0463  0.0136
17530W        W60583  19.035  31.322   2.859  0.3296  0.0003 -0.0021
17531W        W60584  13.800  18.190   8.286  0.2061  0.0988 -0.0760
17532W        W60585  19.283  25.889   9.590 -0.0330 -0.1110  0.0527
17533W        W60586   3.521  32.352   7.271 -0.1181 -0.1492  0.1056
17534W        W60587  28.886   2.660   6.478 -0.2227  0.1388  0.1381
17535W        W60588  20.808  13.665  21.651  0.1640 -0.0361  0.1447
17536W        W60589  19.313  34.453   0.141 -0.0558  0.3213 -0.1528
17537W        W60590  22.359  16.686   0.194 -0.3526  0.1892  0.0309
17538W        W60591  13.342  31.334   2.343  0.1297  0.0148 -0.1296
17539W        W60592  27.939  34.647   1.317 -0.1473  0.2610 -0.1599
17540W        W60593   9.284  28.195  28.009  0.1609  0.4285 -0.1348
17541W        W60594  23.514  33.679   3.423 -0.1301  0.1225 -0.2936
17542W        W60595  31.543  29.772  24.169 -0.0775  0.0240  0.1980
17543W        W60596  22.638  26.477   7.907  0.1440  0.1861  0.1254
17544W        W60597  26.012   5.835   2.402  0.2566 -0.0505  0.2574
17545W        W60598  25.804   0.049   4.370 -0.2453  0.0361  0.0531
17546W        W60599  24.823  28.067   6.698  0.3398 -0.0432 -0.2793
17547W        W60600  23.049  25.900  27.089  0.1759 -0.0774  0.0499
17548W        W60601  13.033  27.381   7.276  0.0191 -0.1279  0.0170
17549W        W60602  24.478  31.550   4.556  0.2796 -0.0798 -0.1288
17550W        W60603  23.165  34.270   8.883 -0.0680 -0.2079  0.1552
17551W        W60604  29.508  31.580  27.178 -0.2544  0.0344  0.0678
17552W        W60605  33.668  23.970   8.150  0.0860 -0.0343  0.0727
17553W        W60606  23.652  34.056   7.659  0.2118 -0.1789  0.0397
17554W        W60607  25.200  22.696   3.391  0.0985  0.1721  0.0886
17555W        W60608  25.316   6.132   1.670  0.0570 -0.0853  0.0497
17556W        W60609  17.100  19.105  24.743  0.1141  0.0784  0.1771
17557W        W60610   3.410  13.811  10.471  0.0638  0.0378  0.1031
17558W        W60611  11.997  30.822   7.013  0.1037 -0.0303 -0.1180
17559W        W60612  31.145   4.704   2.530 -0.2136 -0.1273  0.2692
17560W        W60613  21.621  32.563  20.953  0.1068  0.3791 -0.5813
17561W        W60614  21.731  17.558   2.291 -0.0889 -0.1194  0.1667
17562W        W60615  28.159  32.360  25.072  0.0157 -0.1466  0.2188
17563W        W60616  25.404  24.868   1.169 -0.1201 -0.0924  0.0004
17564W        W60617  13.030  32.845  25.066 -0.1596 -0.2309 -0.0564
17565W        W60618   8.673  22.613   4.992 -0.0163 -0.0318  0.0407
17566W        W60619  10.561  24.911   6.103 -0.1165  0.0711 -0.1487
17567W        W60620  19.841   3.966  22.955  0.0080  0.0484 -0.3824
17568W        W60621  11.856  19.304   5.252  0.4311  0.1369 -0.2365
17569W        W60622  11.103  30.827  24.769  0.1471 -0.2098  0.0579
17570W        W60623   5.868  13.074  17.278  0.1187 -0.0371 -0.0704
17571W        W60624   5.683  14.691  26.345  0.0861  0.0322  0.1554
17572W        W60625   6.242  17.300  27.591  0.0828 -0.0188  0.1849
17573W        W60626   1.317   7.894   1.058  0.2523  0.1509 -0.0232
17574W        W60627  13.515  26.416   2.540  0.0406 -0.1478  0.0396
17575W        W60628   6.474   6.741  27.411  0.1154  0.2405  0.2626
17576W        W60629  32.465  26.868  23.987 -0.0838  0.0213 -0.1720
17577W        W60630  15.916  19.099  24.756 -0.1719 -0.2815 -0.0825
17578W        W60631  15.289  34.084   0.460  0.0805  0.1547 -0.2330
17579W        W60632   8.061   5.660  28.699 -0.0838  0.3460 -0.2554
17580W        W60633  13.626   5.150  22.136  0.2634  0.0150  0.0476
17581W        W60634  29.704   6.859   5.861  0.0329 -0.0868  0.3384
17582W        W60635  24.971  25.681  26.496  0.0495  0.0003 -0.0113
17583W        W60636  17.073  23.850  23.045 -0.2348  0.0391  0.1074
17584W        W60637  17.686  22.665   8.265 -0.1303  0.2098 -0.2581
17585W        W60638   4.857  29.771  23.119  0.0220  0.3078  0.0603
17586W        W60639  29.275   2.822   4.830 -0.0595 -0.1018  0.2010
17587W        W60640  28.829   2.679   4.763  0.2689 -0.3271 -0.4327
17588W        W60641  27.828  31.452   8.778  0.0303 -0.1969 -0.0489
17589W        W60642  24.820  32.965   2.934 -0.1073 -0.1778  0.2817
17590W        W60643  19.322   8.432  19.305  0.1787 -0.0185  0.0540
17591W        W60644  17.698   2.879  26.651 -0.1400  0.1579 -0.1261
17592W        W60645  20.215  31.233   9.199 -0.1117  0.0097  0.1329
17593W        W60646  33.027  30.284   1.688  0.2188 -0.1877  0.1422
17594W        W60647   9.005  28.315   1.330 -0.0913 -0.1653  0.1423
17595W        W60648   8.651   0.099   3.644 -0.2174  0.0168  0.4035
17596W        W60649  20.526   8.575  15.634 -0.3783 -0.2410 -0.0823
17597W        W60650   8.006  19.365  23.369 -0.1009 -0.0058 -0.1967
17598W        W60651   5.688  26.160  28.804  0.0610  0.0642  0.2357
17599W        W60652  26.935  28.899   2.978  0.2177  0.3671 -0.0648
17600W        W60653  16.139  21.772   9.332 -0.1070  0.0190  0.1247
17601W        W60654  28.223   0.243  25.384  0.0251  0.0739 -0.1845
17602W        W60655  30.712  29.215   5.583 -0.0187  0.0384  0.0117
17603W        W60656   9.681  20.855  20.240  0.1240  0.0224 -0.0958
17604W        W60657  22.408  11.701   8.135 -0.0809 -0.2310  0.3262
17605W        W60658   4.512   1.252  28.080 -0.1585 -0.0040 -0.1865
17606W        W60659  20.029  31.000   0.945  0.1215 -0.1673  0.0441
17607W        W60660  13.546   0.278   8.190 -0.0323 -0.5317 -0.2990
17608W        W60661   4.633   5.055  22.159 -0.1670  0.0065  0.1583
17609W        W60662  29.413  31.762   9.845  0.2738 -0.0531 -0.0468
17610W        W60663  15.741  28.839  14.810 -0.1810  0.3244 -0.1076
17611W        W60664  26.314   6.462   8.190  0.2871  0.0058  0.0674
17612W        W60665  14.280  31.523   7.181 -0.0595  0.4158 -0.0397
17613W        W60666  23.891   1.167   9.674 -0.2085  0.2899 -0.0369
17614W        W60667  22.025  29.664   1.741  0.2634 -0.1828 -0.1223
17615W        W60668  10.502  20.769   0.663 -0.0779  0.1649 -0.0062
17616W        W60669   0.160   3.011  25.332 -0.2316 -0.0039 -0.0272
17617W        W60670  22.478  28.031  28.911 -0.1123 -0.0733  0.3730
17618W        W60671  14.778  30.616   3.447  0.1230 -0.0182 -0.1191
17619W        W60672  21.999  33.523  21.731 -0.0076  0.2759 -0.2059
17620W        W60673  11.951  12.493   4.026  0.3280 -0.0116 -0.1304
17621W        W60674  13.966  34.255  28.841  0.1895 -0.0082  0.1720
17622W        W60675  14.636  34.487   0.732  0.2258  0.1607  0.2122
17623W        W60676  27.755  31.103  24.259  0.1005  0.2037  0.2186
17624W        W60677   0.437   1.630  27.101  0.0978  0.1911  0.0973
17625W        W60678  16.418  32.397   2.430 -0.1243 -0.1647 -0.1063
17626W        W60679  31.310   2.316  20.766  0.2045 -0.4260 -0.0280
17627W        W60680  32.568  31.248   9.480  0.1804  0.1138  0.0210
17628W        W60681  13.293  28.265   6.418 -0.3804 -0.1725  0.2640
17629W        W60682  32.244  25.706  18.778  0.1686 -0.1460  0.0288
17630W        W60683  12.300  22.718  20.651  0.0856 -0.1487  0.0831
17631W        W60684  18.798  26.538  24.693 -0.2051  0.0946  0.0263
17632W        W60685  25.682   2.136  10.129  0.0754  0.0627  0.1447
17633W        W60686  19.084   6.620  26.289  0.0070  0.0480  0.1687
17634W        W60687  27.430  32.858   4.628  0.1541  0.0191 -0.1529
17635W        W60688   6.045  34.117   1.966 -0.0566 -0.2754  0.1255
17636W        W60689   9.831  28.362   6.385 -0.1433  0.0764 -0.0195
17637W        W60690  15.568  33.443  20.670 -0.3924  0.1195  0.2416
17638W        W60691  15.085  30.301  18.429 -0.1072 -0.2112  0.1133
17639W        W60692  24.015  25.659  17.105 -0.2951  0.0438 -0.3512
17640W        W60693  25.701  31.737   9.739  0.2921 -0.0011  0.0603
17641W        W60694  26.710   6.158  27.111 -0.0115 -0.3130 -0.0751
17642W        W60695   1.840   0.225  28.832  0.0571  0.4225 -0.2288
17643W        W60696  22.163  26.930  20.475 -0.1316  0.2134  0.0796
17644W        W60697  22.234  33.612   8.030 -0.0320  0.0452  0.2542
17645W        W60698  15.902   6.751   3.730  0.1905  0.0504  0.0155
17646W        W60699  18.142   8.952  27.051  0.0849  0.2406  0.3750
17647W        W60700  23.907  23.049   4.794 -0.1821  0.3830  0.1208
17648W        W60701  14.960   9.140  10.117 -0.2322 -0.0211 -0.1144
17649W        W60702  28.704  24.596   7.597  0.2474  0.0630 -0.1929
17650W        W60703  18.772   1.945   1.273 -0.0142  0.3561 -0.2157
17651W        W60704  15.789   1.204   0.656  0.1410 -0.1281  0.2240
17652W        W60705  13.683  31.724   6.471  0.1679  0.2662 -0.4347
17653W        W60706   5.957   1.871   9.331  0.0981 -0.0369  0.3824
17654W        W60707   4.891  24.644   0.613 -0.2795  0.1947  0.2821
17655W        W60708  28.343   0.003   4.329 -0.1950  0.0255 -0.1211
17656W        W60709  27.011  31.605  20.099 -0.2013 -0.1865 -0.2299
17657W        W60710  33.871   1.637   6.420 -0.1786  0.1964 -0.5316
17658W        W60711  18.700   2.361   8.650  0.0432 -0.0516  0.3075
17659W        W60712  32.320  14.195   3.816  0.0999  0.0032  0.1135
17660W        W60713   4.148  14.980   1.313  0.1293 -0.1095  0.0296
17661W        W60714  23.400  32.400   8.403  0.0420 -0.1534 -0.1165
17662W        W60715   8.392  26.454   7.103  0.0897  0.0921 -0.3429
17663W        W60716  26.256  21.863  10.104 -0.0123 -0.1505 -0.1854
17664W        W60717  24.412  12.430  23.935  0.2671  0.4114 -0.0953
17665W        W60718  19.663  11.903   4.729  0.1700 -0.1815  0.2276
17666W        W60719  32.294  22.774  27.792  0.0055 -0.1983 -0.1209
17667W        W60720  16.276  27.677   1.204 -0.0839 -0.0303  0.0117
17668W        W60721  19.336  24.134   9.015  0.0157  0.0267 -0.1728
17669W        W60722  22.769  14.788  27.964  0.5009 -0.1050 -0.0813
17670W        W60723  29.754  22.274  26.744  0.1229 -0.0393 -0.1135
17671W        W60724  11.077   6.448   5.180 -0.0303  0.1043  0.0637
17672W        W60725  18.913  22.341  23.980 -0.1716  0.0393 -0.1050
17673W        W60726   6.673  29.516   1.696 -0.1672 -0.2661  0.2505
17674W        W60727  22.224  32.518   2.113  0.1821 -0.1132  0.0730
17675W        W60728  21.386  18.437   3.247 -0.1017  0.0990 -0.0624
17676W        W60729  19.156   0.847  27.499  0.0964 -0.3571 -0.0592
17677W        W60730  23.386  27.109  16.984 -0.0597 -0.0567 -0.1326
17678W        W60731   6.407  33.280  25.486 -0.0783 -0.2811 -0.1764
17679W        W60732  24.476  16.221   3.140 -0.0093 -0.1428  0.0094
17680W        W60733  14.925  28.801   0.191  0.0244 -0.0704 -0.1946
17681W        W60734  13.209  31.014   3.994 -0.1199  0.0510  0.1771
17682W        W60735  27.812  27.683   9.116 -0.0710  0.0539  0.1173
17683W        W60736  19.475  29.156   1.984 -0.2158 -0.0254 -0.0843
17684W        W60737  31.943  19.798  24.112 -0.0870 -0.0885 -0.3836
17685W        W60738   7.713  24.970  14.617  0.1354 -0.0152  0.2442
17686W        W60739  17.890   5.364  23.680  0.0815 -0.1393 -0.0068
17687W        W60740  11.896  25.561   6.687  0.1148 -0.0990 -0.1203
17688W        W60741  31.231  12.756   5.587 -0.1175 -0.0267  0.2306
17689W        W60742  27.436  26.751   5.710 -0.1517  0.1243 -0.2465
17690W        W60743   7.062  27.221  15.665 -0.0593 -0.1162 -0.0911
17691W        W60744   5.338   0.363   9.603  0.1212 -0.0412  0.0243
17692W        W60745   9.800   9.553  21.665 -0.1474 -0.2272 -0.0495
17693W        W60746   4.517  34.468  25.477 -0.1119 -0.1618  0.1470
17694W        W60747  19.596  32.520  28.505 -0.0966  0.1148 -0.1492
17695W        W60748  31.633   2.126   3.814  0.0885  0.1321  0.1607
17696W        W60749  25.762  33.328   6.310 -0.0199 -0.2228  0.4019
17697W        W60750   4.545   0.774   8.672 -0.0862  0.1822  0.2747
17698W        W60751  17.142  16.596  27.015  0.2938  0.0986  0.2806
17699W        W60752   2.882  33.248  26.079 -0.0396  0.0030 -0.0897
17700W        W60753  16.638  20.584   2.570 -0.1140  0.4201 -0.0115
17701W        W60754  20.130   1.824   0.722  0.1330  0.2005  0.2812
17702W        W60755  24.856   3.111  28.563 -0.1762  0.0450  0.1959
17703W        W60756  18.682  15.278  26.532  0.1106 -0.1909 -0.0366
17704W        W60757  10.093  34.477  19.144  0.1819  0.1441  0.1080
17705W        W60758   0.625  12.030  26.888 -0.2177  0.3801 -0.1541
17706W        W60759  17.320  23.116  22.667 -0.0135 -0.0549 -0.1909
17707W        W60760  17.961  12.676   1.010 -0.1839  0.0117 -0.0988
17708W        W60761  12.037  28.164   5.988 -0.0738  0.1860  0.1492
17709W        W60762  30.325  21.379   4.177  0.1318 -0.1598  0.0946
17710W        W60763  28.518  25.983   6.905  0.0418 -0.3497 -0.1552
17711W        W60764  21.148  31.385   2.563  0.1920 -0.0340  0.3082
17712W        W60765  24.454  25.432  17.951  0.0913 -0.0178  0.2363
17713W        W60766  23.991   6.371   8.671  0.2961 -0.2744  0.1407
17714W        W60767  21.537  24.506   0.113 -0.0020 -0.1199 -0.0465
17715W        W60768  19.926  27.014  25.957 -0.1902 -0.3780  0.0018
17716W        W60769  21.791  30.523   1.835 -0.3249 -0.1224  0.0783
17717W        W60770  26.626   4.324   4.994  0.0606 -0.3146  0.0903
17718W        W60771  17.487  10.043   7.418 -0.1893  0.1197 -0.0260
17719W        W60772  26.928  29.919  20.417  0.3051 -0.1391 -0.2261
17720W        W60773  28.986  25.356  28.361  0.2836  0.4450 -0.0187
17721W        W60774   0.899  16.685  28.455  0.0974 -0.1015  0.0361
17722W        W60775  32.046  23.488   2.425  0.1331 -0.2438  0.1768
17723W        W60776  12.983  34.348   8.907 -0.0999  0.3753  0.0140
17724W        W60777  16.291  34.224   5.111  0.0374 -0.2542  0.0423
17725W        W60778  28.928  22.752  28.180 -0.1428 -0.0253 -0.0739
17726W        W60779  28.882   0.326   5.070 -0.2028 -0.1386 -0.1830
17727W        W60780   0.818   6.791   4.848 -0.2829  0.0891 -0.0072
17728W        W60781  19.965   5.467   0.587 -0.2447 -0.1319  0.0715
17729W        W60782  27.992  28.124   9.770  0.0594  0.1481 -0.3999
17730W        W60783  24.135  21.874   2.270 -0.0392  0.2489  0.0909
17731W        W60784  23.163  31.361   5.611  0.0919  0.1614 -0.0116
17732W        W60785  18.879   3.457  17.040 -0.2302 -0.0462  0.1999
17733W        W60786  15.962  30.728   5.052  0.0918 -0.1888 -0.0441
17734W        W60787  19.652   2.266  10.080 -0.0761 -0.3012 -0.2356
17735W        W60788  20.888  19.108   4.541  0.1646  0.0674  0.2004
17736W        W60789  23.639  24.270   4.686 -0.0749  0.2366  0.1514
17737W        W60790   0.863  27.335   2.920 -0.1277  0.0567 -0.0800
17738W        W60791  23.090  33.882   3.210  0.0401 -0.0836  0.0610
17739W        W60792  10.342  23.372  26.865 -0.3405 -0.2401  0.3580
17740W        W60793  30.581   1.866   4.161 -0.2662 -0.1908 -0.2659
17741W        W60794  18.857  26.816   8.674  0.1145  0.4389 -0.0911
17742W        W60795  23.178  27.243  24.264 -0.0539 -0.0888 -0.4591
17743W        W60796  28.670   6.364  17.123 -0.0097  0.5040 -0.0604
17744W        W60797  31.381   3.115  20.778 -0.1796 -0.0897 -0.2134
17745W        W60798  23.149   7.537   3.328  0.0162 -0.0137 -0.1716
17746W        W60799  15.754  14.179   6.664 -0.1388 -0.5335 -0.3247
17747W        W60800  30.702   7.844  22.794  0.0016  0.4649  0.0903
17748W        W60801   1.986  25.773   8.500 -0.0635  0.0567  0.0581
17749W        W60802  31.237   9.671   2.873 -0.2123  0.0506  0.0170
17750W        W60803  27.916   4.138   5.904  0.1090 -0.0845  0.1239
17751W        W60804  13.525  23.133   8.164 -0.1488 -0.1843 -0.0419
17752W        W60805  14.214  25.644   8.431 -0.1738 -0.3958  0.0892
17753W        W60806   1.001  29.328   7.180 -0.3338 -0.2565  0.5911
17754W        W60807  26.793   3.839  10.512  0.3475 -0.3252 -0.0755
17755W        W60808  17.064  17.508  26.129  0.4303  0.0295  0.1711
17756W        W60809  17.925  18.925   6.265 -0.0355  0.3750  0.2012
17757W        W60810  11.642  32.302   3.518 -0.2250  0.0538 -0.2459
17758W        W60811  27.505  24.046   1.868 -0.3747  0.1969 -0.2407
17759W        W60812  31.950  11.241   2.843  0.1476  0.0385 -0.1745
17760W        W60813  20.494   7.310  27.719  0.1779 -0.0924 -0.0909
17761W        W60814  23.909   5.034   3.409  0.1771  0.1884  0.1694
17762W        W60815  23.979  33.809   4.127 -0.0700  0.1738 -0.2322
17763W        W60816  18.274  26.919   5.414  0.0217 -0.1422 -0.0157
17764W        W60817  30.449  24.086   9.639 -0.2079  0.0339  0.0004
17765W        W60818  15.416  25.511   3.062  0.0983  0.2829  0.1901
17766W        W60819   2.732  21.018   9.528 -0.0579 -0.0577 -0.2895
17767W        W60820  22.769  25.497   2.516 -0.0041  0.1093  0.1106
17768W        W60821  26.091  14.329  23.331 -0.1039 -0.2270 -0.2769
17769W        W60822  29.125  17.578  23.468 -0.2151 -0.0536  0.0994
17770W        W60823  22.001  32.175   0.668  0.0877  0.0492  0.1429
17771W        W60824  33.480  28.664  26.209  0.4971  0.0813 -0.0194
17772W        W60825  17.705  30.412  15.892 -0.0285  0.0138  0.0017
17773W        W60826   4.310  10.091  10.080 -0.0441 -0.1027 -0.1177
17774W        W60827  27.835  34.311  26.739 -0.2388  0.0265  0.1416
17775W        W60828  23.908  30.785  26.428 -0.0055 -0.0110  0.0149
17776W        W60829  23.379  24.170  28.398 -0.0579  0.4718 -0.2258
17777W        W60830  22.295  34.145  25.552  0.0906 -0.0404  0.2675
17778W        W60831  15.180  20.730   9.417  0.2479  0.1466 -0.4820
17779W        W60832   3.739  30.483   0.553 -0.1571 -0.0066 -0.0367
17780W        W60833  22.924  14.040  19.846 -0.0470  0.0480  0.0538
17781W        W60834  15.612  21.655   3.196 -0.1337  0.0371 -0.2282
17782W        W60835  19.506   9.979   7.074 -0.2059 -0.3506  0.3675
17783W        W60836   9.444  33.248  28.185 -0.3031  0.0980  0.0473
17784W        W60837  28.524   5.961   5.216  0.0485 -0.0111 -0.2017
17785W        W60838  27.292   6.682   9.123  0.0613  0.3293 -0.3414
17786W        W60839  24.648  26.739   0.837  0.1887  0.2858  0.1616
17787W        W60840  21.728   3.450   3.423 -0.1834  0.0141  0.1269
17788W        W60841   6.598  34.068   7.674  0.1325 -0.1024  0.1951
17789W        W60842  14.591   9.546   0.472 -0.1101 -0.3774 -0.1401
17790W        W60843   4.856  24.203  28.939 -0.1465  0.4144 -0.0582
17791W        W60844  20.835   3.818   4.089 -0.0032 -0.3455  0.1565
17792W        W60845  12.881  28.597   0.895  0.0536 -0.1086 -0.2296
17793W        W60846   6.913   0.655  22.703 -0.0317 -0.1942 -0.0987
17794W        W60847   0.154  27.701  26.470 -0.0080 -0.1943 -0.0286
17795W        W60848  26.189  24.927  21.796 -0.3086 -0.2516 -0.0522
17796W        W60849  21.633  24.273   5.957  0.0322 -0.0949 -0.1840
17797W        W60850  15.997  17.204  28.398  0.3708 -0.0494  0.0453
17798W        W60851  18.017  23.772   5.442  0.1793  0.2399 -0.3135
17799W        W60852  17.643  17.542  26.490  0.3481  0.2782 -0.0074
17800W        W60853   2.779   2.869  28.020  0.3553 -0.4578  0.1497
17801W        W60854  27.358   2.165   9.527 -0.0668 -0.1099 -0.2213
17802W        W60855  15.806  28.625   0.113 -0.5700 -0.3192 -0.1428
17803W        W60856  24.912  32.911   8.219  0.1926  0.2925  0.3614
17804W        W60857  31.153  23.796   4.818 -0.1530  0.1060 -0.1196
17805W        W60858  25.041  25.505   2.667  0.0765  0.2637  0.0945
17806W        W60859  27.873  12.348  22.099  0.1356 -0.0042 -0.0556
17807W        W60860   3.486  26.064   6.586 -0.1886  0.2162 -0.0588
17808W        W60861  19.080   0.620   6.376  0.2544  0.5035  0.0689
17809W        W60862  27.935   4.645   1.191 -0.0714 -0.2256 -0.3077
17810W        W60863  24.425  31.836   8.574  0.0746 -0.0811 -0.0935
17811W        W60864  22.316  17.158  20.696  0.4005 -0.2107 -0.0791
17812W        W60865  18.224  15.660  28.411  0.4981 -0.1060  0.0954
17813W        W60866  23.439  33.336   3.761  0.2306 -0.2901  0.1011
17814W        W60867   5.218   6.997   1.984 -0.0414 -0.1677 -0.3133
17815W        W60868  24.082  22.420   8.411  0.2313 -0.1795  0.0118
17816W        W60869   7.870   2.397  28.787  0.0616 -0.0578 -0.0223
17817W        W60870   0.744  29.324  17.739 -0.3069  0.0047 -0.1859
17818W        W60871  27.750  21.157  10.276  0.1615  0.2078 -0.2481
17819W        W60872  30.026  26.085  26.882  0.1910 -0.0354 -0.0936
17820W        W60873   9.617  23.597   5.409 -0.3260  0.0477  0.0044
17821W        W60874  15.397  34.453   1.297 -0.1509  0.0740  0.1619
17822W        W60875  31.705   5.849  28.409  0.0858  0.0893 -0.2751
17823W        W60876  14.758   3.528   9.673 -0.0106  0.1654  0.0744
17824W        W60877  12.930  21.984  27.717 -0.0502 -0.2541  0.3047
17825W        W60878  17.425  29.804  27.772  0.4098 -0.0018  0.1115
17826W        W60879  34.146   6.287  15.963 -0.0314  0.0611 -0.0790
17827W        W60880   2.461  21.643   1.581  0.1022 -0.0297 -0.1645
17828W        W60881  22.390   6.884  25.361 -0.3287  0.1807 -0.3086
17829W        W60882  20.149   4.716   9.277  0.0190  0.1496 -0.0555
17830W        W60883   6.870  26.773  25.551 -0.0858  0.1308  0.0688
17831W        W60884  11.056  27.050   7.294  0.1628  0.1160  0.0832
17832W        W60885  21.017  33.894  19.521  0.2064 -0.1907 -0.3221
17833W        W60886  24.422  21.763  21.876  0.1424 -0.1607  0.0379
17834W        W60887  28.934  30.036  23.318 -0.0632 -0.1489  0.1164
17835W        W60888  23.565  26.475   4.317  0.0872 -0.1229  0.0865
17836W        W60889  14.755   4.113   6.597  0.2970 -0.0506  0.2620
17837W        W60890  14.851  30.309   9.583 -0.0146 -0.1717 -0.5343
17838W        W60891   4.853   6.955   1.654  0.1638 -0.0389 -0.0040
17839W        W60892  28.383  22.659  28.162 -0.0278  0.0032  0.0463
17840W        W60893  21.805  34.265   1.043  0.2802  0.0165  0.1954
17841W        W60894  19.348  12.499   3.278  0.3113 -0.1709  0.0362
17842W        W60895   2.044  22.790  24.382  0.0984  0.1122 -0.2430
17843W        W60896  26.386  31.206  20.885  0.0366  0.0396  0.0528
17844W        W60897  25.710  23.935   4.804  0.1231  0.0606  0.0544
17845W        W60898  13.431  18.430   2.964  0.2475  0.0849 -0.3012
17846W        W60899  13.304   4.657  22.396 -0.0901  0.0858  0.4229
17847W        W60900  25.241   4.747  22.493 -0.1976 -0.1784 -0.2849
17848W        W60901  20.758  22.937  17.212  0.0044 -0.0176 -0.0279
17849W        W60902   4.366  30.166   0.358  0.0719 -0.0239  0.2234
17850W        W60903  21.009   0.203   1.824 -0.1632  0.0290  0.0626
17851W        W60904  17.990   1.109   2.010  0.1394 -0.1134  0.1678
17852W        W60905  23.897  16.617   0.115  0.0444 -0.2580 -0.3053
17853W        W60906   9.940  10.460  28.606  0.0898 -0.0808 -0.0168
17854W        W60907  28.100  24.174   1.855 -0.1479  0.2501 -0.0550
17855W        W60908  33.251   1.448   1.797  0.2133 -0.1022 -0.2289
17856W        W60909  21.714  33.422  21.270 -0.3022 -0.0753 -0.0318
17857W        W60910  23.314  27.883   3.142  0.1967  0.2762  0.0938
17858W        W60911  15.654  20.032  25.882  0.0715 -0.0639 -0.2280
17859W        W60912  21.607  24.955   7.548 -0.1703  0.1629  0.0151
17860W        W60913  29.909  33.631   7.316  0.3602 -0.2231  0.1381
17861W        W60914  10.777  22.313   5.922 -0.0580 -0.1615 -0.2873
17862W        W60915  24.042  20.792   0.570  0.0142  0.2003  0.1378
17863W        W60916   1.744  30.179  28.845  0.0098 -0.1799  0.2283
17864W        W60917  12.645  28.691   7.400 -0.1360 -0.0366  0.0728
17865W        W60918  31.947  33.335  25.160  0.2526 -0.3235 -0.2576
17866W        W60919  29.787  14.114   3.246 -0.0693  0.2282 -0.2203
17867W        W60920  29.106   0.047   9.543 -0.1959 -0.1202 -0.1505
17868W        W60921  30.693  24.703   4.494  0.0022 -0.0024 -0.3310
17869W        W60922  27.569  32.760  27.352  0.2149  0.0725  0.1316
17870W        W60923   9.397   7.253  23.825  0.0269 -0.0309  0.2090
17871W        W60924  17.388   5.421  10.592  0.0019  0.1789 -0.1069
17872W        W60925  28.576   3.517   7.949  0.0875 -0.0611  0.0038
17873W        W60926   9.950  18.181  27.877  0.1249 -0.0665  0.1534
17874W        W60927  19.452  32.677  10.111 -0.0578 -0.0517  0.5143
17875W        W60928  15.554  33.876   7.589 -0.1002 -0.2753  0.2818
17876W        W60929  26.680  19.342   2.295 -0.2158 -0.1681  0.1996
17877W        W60930   1.549  11.511   9.318  0.1653  0.1502  0.1311
17878W        W60931  23.964  25.494   0.305 -0.0551 -0.2235 -0.0735
17879W        W60932  17.298  30.852   5.220  0.0049 -0.1219 -0.0465
17880W        W60933   7.182   5.786   2.715 -0.0957  0.1008 -0.0713
17881W        W60934  28.877  18.371   9.133 -0.0808  0.1070  0.1024
17882W        W60935  20.855   2.256   7.050 -0.1137  0.1443 -0.2892
17883W        W60936   5.232   7.373   6.613 -0.1432 -0.0968  0.0843
17884W        W60937  20.545  26.299  27.917 -0.2169  0.1993 -0.0944
17885W        W60938   1.811  31.520  24.120 -0.2194 -0.0669 -0.2344
17886W        W60939  17.760  23.180   9.062 -0.2336  0.0063  0.1486
17887W        W60940   8.656  27.713   5.689 -0.1012 -0.2105  0.3013
17888W        W60941  16.288   3.416   5.322 -0.0457  0.0629 -0.1178
17889W        W60942  29.088  23.025   5.034  0.1700 -0.2094  0.0748
17890W        W60943  19.737   9.849   7.512  0.0666  0.1749  0.1715
17891W        W60944  25.243  19.362   7.050 -0.0013  0.0505  0.0437
17892W        W60945  32.950  28.398  27.970 -0.0725 -0.0838 -0.2554
17893W        W60946  23.893  25.453   7.959 -0.0016  0.0056  0.4284
17894W        W60947  30.244  16.590  26.382 -0.1985  0.2293  0.2402
17895W        W60948  28.509   2.663   3.691  0.0242  0.0141  0.2958
17896W        W60949  11.902  26.676  27.721  0.1955  0.0190 -0.0814
17897W        W60950  10.659  14.513  28.223 -0.1724  0.2757 -0.1498
17898W        W60951  25.482  17.771   0.840  0.0238 -0.2279 -0.0832
17899W        W60952   4.106   4.592   6.427  0.0062 -0.0106  0.1085
17900W        W60953  18.132   2.158   9.423 -0.1056 -0.5445 -0.4166
17901W        W60954  20.115   8.343  27.630  0.1361 -0.2609  0.1234
17902W        W60955  17.588  28.143  24.740  0.0950  0.0469 -0.1182
17903W        W60956  23.069  26.511   3.225 -0.0743  0.0425  0.0418
17904W        W60957  18.005  14.526   5.017 -0.2154  0.0962  0.0676
17905W        W60958  25.388   1.473  25.820  0.0699  0.1978 -0.0264
17906W        W60959  24.696  21.344   9.717 -0.4966 -0.1496  0.1715
17907W        W60960  19.057  34.219   6.622 -0.0208 -0.0463 -0.3063
17908W        W60961  14.480  33.127  24.353 -0.1904 -0.0637  0.1688
17909W        W60962  18.053  18.580   8.562 -0.0514 -0.0771  0.5452
17910W        W60963  14.380  34.028   9.391 -0.0278 -0.0066  0.3185
17911W        W60964  29.894  31.419  27.853  0.1936 -0.2008 -0.0936
17912W        W60965  17.846  30.432  21.123 -0.1445 -0.0240 -0.3010
17913W        W60966  20.499   2.775   8.471 -0.2060  0.1555  0.0187
17914W        W60967  27.455  21.661   0.231 -0.0433  0.0768  0.3633
17915W        W60968  17.578   1.293  28.861 -0.4923 -0.1824 -0.1395
17916W        W60969  23.108  20.459   9.998  0.0211  0.1835  0.0993
17917W        W60970  14.654  17.154   3.276  0.0445 -0.0327  0.3269
17918W        W60971  23.648   6.718   9.727 -0.1068  0.2619 -0.0133
17919W        W60972  23.964  16.450   1.382 -0.0044  0.2164 -0.0320
17920W        W60973   6.837   7.818   6.780 -0.2317  0.1263  0.0642
17921W        W60974  15.286  26.658   7.387 -0.0292  0.1187 -0.0494
17922W        W60975  25.317  31.458   7.020 -0.0689 -0.0055 -0.1036
17923W        W60976  14.773  20.115   0.727 -0.0792 -0.1038  0.0066
17924W        W60977  18.089  26.783  29.189 -0.0414 -0.0990 -0.0696
17925W        W60978  27.445  31.479   6.192  0.1240 -0.0667  0.0255
17926W        W60979  21.318  15.087  28.314 -0.2245 -0.2552  0.2671
17927W        W60980  11.180  21.268  27.324  0.1053 -0.0565  0.2666
17928W        W60981  15.135  24.259  25.298 -0.0862  0.1435  0.1254
17929W        W60982  25.198  12.190   5.342 -0.0242  0.0097 -0.1039
17930W        W60983  25.820  11.122  28.291 -0.2955 -0.1033  0.1528
17931W        W60984  16.047  14.475   7.525 -0.0965  0.0313  0.3908
17932W        W60985  33.193  15.812   0.617  0.0129 -0.2832 -0.1216
17933W        W60986  24.703  26.837  26.830 -0.2261  0.0515  0.0423
17934W        W60987  23.317  13.579   0.907 -0.0704  0.1737  0.1424
17935W        W60988   9.170  32.162   8.302 -0.1573  0.1629  0.1031
17936W        W60989   3.998   4.850   6.896  0.0356  0.0128 -0.0067
17937W        W60990  11.587  26.029   1.403  0.3503  0.1166  0.2007
17938W        W60991  13.414  18.177  28.427  0.0310 -0.1762  0.0687
17939W        W60992  18.898  25.685   7.090  0.0998  0.0707 -0.1303
17940W        W60993  29.016   0.150   2.935  0.1681  0.3739  0.1567
17941W        W60994  18.782  26.958   0.119 -0.1025  0.2031  0.4311
17942W        W60995  20.136   4.677   9.831 -0.0509  0.0349 -0.0514
17943W        W60996  27.056  26.627   1.876 -0.1619 -0.0773 -0.2917
17944W        W60997  25.707  28.019  25.259 -0.2916  0.1387  0.0275
17945W        W60998   9.132  29.132   6.411  0.1074  0.2602 -0.0130
17946W        W60999  19.911   4.240   2.006 -0.2478  0.0919 -0.0298
17947W        W61000  30.688   4.891   7.633  0.1494 -0.1251  0.0825
17948W        W61001  20.746   3.489   6.278  0.0656 -0.3590  0.2027
17949W        W61002  19.160  24.636  28.739  0.1132 -0.0326 -0.0053
17950W        W61003  12.946   3.980   1.565 -0.2438 -0.0651 -0.1020
17951W        W61004  18.333  27.641  14.093 -0.1819 -0.3873 -0.0440
17952W        W61005   8.940  11.673   2.105  0.0534 -0.1466 -0.1070
17953W        W61006  24.356  31.093   8.554 -0.2618  0.2537 -0.0804
17954W        W61007   8.059  23.230   7.434  0.3754 -0.3078  0.0040
17955W        W61008  25.281   1.477  15.586 -0.1187  0.1693  0.1038
17956W        W61009  14.391  29.386   3.353  0.0190 -0.0430 -0.2191
17957W        W61010  32.733   3.822   9.926 -0.3519  0.2832 -0.1081
17958W        W61011  21.283  26.776   1.306  0.3161  0.0199  0.0683
17959W        W61012   2.246  25.478   6.229 -0.1987  0.1678 -0.2714
17960W        W61013  22.959  29.930   9.321  0.1598  0.0089  0.1167
17961W        W61014  11.862  12.098   8.548  0.4925  0.2784  0.0589
17962W        W61015  20.781   0.649  24.050  0.2194  0.1592  0.0670
17963W        W61016  34.628  29.497   6.034 -0.1389 -0.0109  0.2590
17964W        W61017  19.311  33.355  21.813  0.0374  0.0962 -0.1582
17965W        W61018  23.272  26.653   8.345 -0.3673 -0.0296 -0.2701
17966W        W61019  30.367  25.238   5.214 -0.0214  0.2212 -0.0464
17967W        W61020   4.035  11.002  10.082  0.0830  0.1396 -0.0563
17968W        W61021  16.276  30.100  10.439 -0.1384 -0.1627 -0.0208
17969W        W61022  30.588  27.419   7.363 -0.2420  0.1003  0.1405
17970W        W61023  17.463  31.639  10.361  0.2774 -0.2299  0.0623
17971W        W61024  17.550  24.461   0.626  0.1219 -0.2405 -0.0004
17972W        W61025  26.025  34.032  20.269 -0.0937 -0.2407  0.0490
17973W        W61026   9.716  19.127   7.104  0.2070 -0.2776  0.1012
17974W        W61027  16.750   3.497   3.177 -0.0557  0.1669  0.3725
17975W        W61028  24.987  23.909   3.582 -0.1994  0.3474  0.1324
17976W        W61029  27.735  14.676   5.952 -0.2901  0.2994 -0.4145
17977W        W61030   7.534  10.138   6.098 -0.0811 -0.0974 -0.1657
17978W        W61031  24.597  28.475  28.162  0.1058 -0.2007  0.0672
17979W        W61032  33.946   2.512   9.536  0.1882  0.3754 -0.0462
17980W        W61033   9.812  24.326  26.160  0.0424  0.0377  0.1959
17981W        W61034  26.455  33.748   5.064 -0.1287 -0.4666  0.0732
17982W        W61035  15.472  22.130   3.202 -0.0874  0.3099  0.1017
17983W        W61036  18.810  19.106  24.977 -0.2017  0.0902  0.0822
17984W        W61037  28.784  12.866   1.420 -0.0689 -0.3092  0.4839
17985W        W61038  31.646   9.910  20.251 -0.1066 -0.0960 -0.0362
17986W        W61039  24.678  15.240   6.949 -0.2072 -0.0852 -0.0551
17987W        W61040  17.857   6.254   7.277  0.0819  0.1489 -0.3337
17988W        W61041  14.897   8.655  19.200 -0.2334  0.0198  0.1383
17989W        W61042  19.751   3.687  14.815  0.1368  0.4278 -0.2452
17990W        W61043  28.587   1.535  29.112 -0.0038  0.3112  0.1553
17991W        W61044   6.362  29.952  28.250 -0.0243 -0.1192  0.1577
17992W        W61045   4.339  27.687  23.555  0.0089  0.0054 -0.1348
17993W        W61046  31.173  33.147  18.373 -0.0569 -0.1815  0.0841
17994W        W61047  18.245  21.057  25.657 -0.0164  0.0092  0.0192
17995W        W61048  13.949  26.968   0.078  0.0532 -0.3864  0.0213
17996W        W61049  11.745  21.826   1.950 -0.0649  0.0647 -0.2350
17997W        W61050  14.945   3.678   6.104 -0.0045  0.3615 -0.0029
17998W        W61051  33.799  30.654   5.953 -0.0024 -0.1217 -0.1113
17999W        W61052  26.965   6.197  10.827 -0.1369 -0.3491 -0.1711
18000W        W61053  19.493  19.515  26.963 -0.2609  0.0539 -0.1810
18001W        W61054  26.682  18.276   2.849  0.0847  0.5671  0.1053
18002W        W61055   4.301  34.164   8.324 -0.1490  0.1187 -0.0986
18003W        W61056  27.581  30.440   9.075  0.3179 -0.0310  0.0925
18004W        W61057   9.751   8.649  20.108 -0.1321 -0.1938  0.0443
18005W        W61058  10.011  27.035   3.133 -0.0001  0.0309 -0.2025
18006W        W61059  18.262  32.270  25.956  0.0384 -0.1896 -0.2763
18007W        W61060  27.279  25.870   7.819  0.1391  0.1339 -0.2541
18008W        W61061  21.957  12.415   4.786  0.1718  0.3747 -0.0720
18009W        W61062   7.374  16.515  17.262  0.1746 -0.2543  0.0152
18010W        W61063  24.691  26.537   8.095  0.2092 -0.4528  0.1608
18011W        W61064   7.732  26.321   9.354  0.1792 -0.1163  0.0711
18012W        W61065  16.242  26.256   1.330  0.0708  0.1352 -0.1197
18013W        W61066  10.577  11.650   5.650 -0.2946  0.1362 -0.0694
18014W        W61067  15.261  23.866   1.109 -0.2654 -0.0191  0.1716
18015W        W61068  17.154  27.199   7.569  0.0511 -0.1586 -0.1058
18016W        W61069  13.793   5.603   2.326 -0.0717  0.1670  0.2476
18017W        W61070  26.675   1.669   9.046  0.1459  0.3534 -0.1678
18018W        W61071  30.212   2.144  25.727  0.2099 -0.2768  0.0276
18019W        W61072   3.159  28.047   9.836 -0.0405  0.1570 -0.1580
18020W        W61073  26.658   4.645  27.824 -0.0062  0.2424  0.0845
18021W        W61074  26.571   4.571   1.497  0.2595 -0.2571 -0.5960
18022W        W61075  32.462  30.735   8.486  0.1598  0.3035  0.2325
18023W        W61076  18.868  15.538   8.613  0.2051  0.1775 -0.1084
18024W        W61077  22.816   8.564   4.087 -0.0644 -0.0580 -0.0178
18025W        W61078  29.164  29.420   6.132 -0.2986  0.1801 -0.2965
18026W        W61079  17.674  27.605  28.326  0.4053  0.3217 -0.1455
18027W        W61080  14.638  28.918  24.746 -0.0871 -0.0025  0.1278
18028W        W61081  34.015  32.143  23.515 -0.1057  0.0637  0.1985
18029W        W61082  19.131  15.725  26.624 -0.0548 -0.0375  0.0700
18030W        W61083  20.213  23.427   8.566  0.0529  0.0804 -0.2824
18031W        W61084  17.739  24.774   2.894  0.2234 -0.3293  0.4251
18032W        W61085  24.562  24.461   8.700 -0.0090 -0.0704  0.1358
18033W        W61086  23.642  20.527   0.289 -0.1517 -0.1710 -0.0407
18034W        W61087  21.046  17.912   1.226 -0.0444  0.0645 -0.0264
18035W        W61088  24.882  32.645  22.747  0.1035  0.2176 -0.2271
18036W        W61089  25.574  27.215  19.821  0.0885  0.2519  0.0401
18037W        W61090  14.063   6.167  23.070 -0.2162  0.0742  0.0222
18038W        W61091  20.571  32.466   7.164  0.1750 -0.3266  0.0790
18039W        W61092  30.977  25.683   4.086 -0.1249  0.3704  0.1050
18040W        W61093  15.704  34.368   9.853  0.2328 -0.0829 -0.2060
18041W        W61094  13.621  19.011   8.236 -0.0032 -0.1623 -0.4459
18042W        W61095  17.044  26.018  20.230 -0.1557  0.1528  0.0025
18043W        W61096   4.133  19.104  23.701  0.0508  0.3419 -0.0491
18044W        W61097   6.487  20.404   4.459 -0.0308 -0.4542 -0.0203
18045W        W61098  20.686  24.026   8.592  0.0025 -0.2024 -0.0432
18046W        W61099  18.238  21.165   7.392  0.4145 -0.1549 -0.0653
18047W        W61100  14.039  26.705   3.608 -0.0837  0.3526  0.5118
18048W        W61101  18.780   1.469   7.452  0.2196 -0.1306  0.2254
18049W        W61102  15.320   0.497   7.274 -0.1753  0.0546 -0.2856
18050W        W61103  16.273  28.668  28.564 -0.0099 -0.0040 -0.1182
18051W        W61104  16.036   0.778  28.000  0.1592  0.3619 -0.0209
18052W        W61105  22.829  31.427   9.956 -0.1530 -0.1033  0.0808
18053W        W61106   4.540  22.787   4.671  0.0767 -0.2807 -0.0134
18054W        W61107  22.291  27.452   6.622 -0.3174 -0.2478 -0.3923
18055W        W61108   8.479  25.343   6.590  0.1338 -0.0629  0.1599
18056W        W61109  14.515   0.495   6.572 -0.0308 -0.3170  0.0410
18057W        W61110  13.680  31.822   7.191  0.0798 -0.1430  0.4468
18058W        W61111  11.915  32.631  21.957 -0.0174  0.2523 -0.0096
18059W        W61112  10.337  25.037   8.591  0.2158 -0.3604 -0.1227
18060W        W61113  12.814  17.740   6.434 -0.1926 -0.3005  0.2495
18061W        W61114  30.291  30.143  26.787 -0.0509  0.1278 -0.2171
18062W        W61115   8.011   3.141   7.644 -0.1950 -0.0226  0.0663
18063W        W61116  28.412  31.006  16.630 -0.0408  0.1885 -0.1190
18064W        W61117  19.206   6.235  20.188 -0.1948  0.1509  0.0791
18065W        W61118  24.981  32.818   4.147  0.1440  0.1045  0.0175
18066W        W61119   6.336  29.564   6.215 -0.3895 -0.2779  0.1713
18067W        W61120  15.479  15.788  28.285 -0.1529 -0.1221 -0.1763
18068W        W61121   0.951  25.969   7.326  0.1282  0.1170 -0.3930
18069W        W61122  11.087  30.444   2.367 -0.2126  0.1543 -0.1394
18070W        W61123  17.627   0.101   6.423  0.1407  0.2070 -0.2142
18071W        W61124   1.315  25.769   3.832  0.0500  0.2334 -0.4641
18072W        W61125  27.786   8.324  18.139  0.0005  0.0419  0.0152
18073W        W61126  25.668  30.418   5.892 -0.4079 -0.0960 -0.0335
18074W        W61127  28.143   3.583  24.292 -0.0562 -0.1773  0.1159
18075W        W61128  27.635   3.247   9.579 -0.0845  0.4468 -0.0918
18076W        W61129  32.164  24.972   1.183 -0.0758  0.4003 -0.3178
18077W        W61130  20.744  22.378   0.101  0.1735  0.1071 -0.0034
18078W        W61131  26.222  30.464  26.651  0.0125 -0.0731 -0.3812
18079W        W61132  32.550  18.090  25.427  0.0943 -0.0297 -0.0060
18080W        W61133  27.260  17.110  10.005  0.0084 -0.1303  0.1367
18081W        W61134  18.447  22.397   5.155  0.0949  0.2087  0.0318
18082W        W61135  12.182  23.528  28.361 -0.1719 -0.0793  0.0256
18083W        W61136  29.024  11.059   8.585 -0.1245 -0.0851 -0.1509
18084W        W61137   1.684  29.945   4.927  0.1615  0.0786  0.3565
18085W        W61138  17.637  28.357   0.269 -0.0432 -0.1514 -0.2773
18086W        W61139  23.721  26.395  25.673  0.0967  0.0260  0.1888
18087W        W61140  24.719  23.254   9.422  0.0456  0.2032 -0.1970
18088W        W61141  23.366  22.228   1.189 -0.0501  0.1880 -0.0891
18089W        W61142  20.680  29.895   2.086  0.0985  0.1485 -0.1637
18090W        W61143  25.317  31.619   2.331 -0.3230  0.0980  0.0071
18091W        W61144  13.769  29.608   5.799  0.2547  0.2157 -0.0308
18092W        W61145  20.931  16.080  21.579 -0.3496  0.0275 -0.3565
18093W        W61146  10.720  27.499   3.571 -0.1222  0.0729 -0.0873
18094W        W61147  18.276  18.223   5.441 -0.2854  0.2198  0.2426
18095W        W61148   0.740   4.138  23.297  0.1142  0.0334 -0.1943
18096W        W61149  18.837  25.023  22.454 -0.0681 -0.2827  0.0109
18097W        W61150  14.504  30.044   0.937  0.4226  0.2493  0.0003
18098W        W61151  15.688  22.022   1.666 -0.1357  0.1453 -0.2175
18099W        W61152  26.429   8.258   2.462  0.0739 -0.2927  0.4406
18100W        W61153  23.783   5.968   3.716 -0.0104 -0.0927  0.0022
18101W        W61154  18.183  12.451  28.976 -0.3577  0.0605  0.3365
18102W        W61155  27.466  23.276   0.850 -0.0265 -0.1826  0.0630
18103W        W61156  27.182  12.048   6.426  0.2753 -0.2197 -0.0902
18104W        W61157  18.553  18.204  12.186  0.3535 -0.3014 -0.3835
18105W        W61158  30.329  34.197   9.190 -0.2496 -0.2550  0.2121
18106W        W61159  17.556  31.480   5.698  0.0142 -0.0697 -0.2570
18107W        W61160  26.118  29.858   5.675 -0.4252  0.0343  0.0676
18108W        W61161  12.451  28.701  26.852  0.0811  0.2074  0.2387
18109W        W61162  14.290  32.716   3.590 -0.2090 -0.2193  0.0710
18110W        W61163  10.005  13.184  26.453 -0.1744 -0.1914 -0.2353
18111W        W61164   0.145   3.674   7.180 -0.2409  0.0566 -0.2965
18112W        W61165   8.655  31.021  17.286 -0.1887  0.2511 -0.1194
18113W        W61166  22.786  31.715  24.044 -0.2147 -0.3055  0.1960
18114W        W61167  24.458  25.455   1.882  0.0447 -0.1375 -0.0244
18115W        W61168   6.906  29.827   3.615 -0.0030 -0.3521  0.3938
18116W        W61169  33.680  25.244   5.609 -0.1072 -0.0416  0.1417
18117W        W61170   7.621   7.105   2.453  0.1494 -0.1333 -0.0754
18118W        W61171  21.142  27.412   7.215  0.3069  0.0644  0.0026
18119W        W61172  25.424   6.911   0.735 -0.0923  0.0230 -0.0000
18120W        W61173  26.925  16.481  24.572  0.0826 -0.2917  0.1363
18121W        W61174  30.184  23.471   4.443  0.0393 -0.1130 -0.0302
18122W        W61175   6.585  23.224   9.385  0.1861 -0.0672  0.1917
18123W        W61176   7.282  18.914   4.219 -0.2150 -0.0026  0.1842
18124W        W61177  28.566  12.335  27.305  0.0278  0.0908  0.0113
18125W        W61178   0.271  21.240   7.081 -0.1747  0.0986 -0.3615
18126W        W61179  21.240  26.768  28.778 -0.2200 -0.6143  0.3529
18127W        W61180   6.501  31.945  14.369 -0.0300  0.0249 -0.2199
18128W        W61181  26.863   2.257  15.135 -0.0501 -0.2322 -0.3216
18129W        W61182  11.587  29.619   5.756 -0.0813  0.1319 -0.3066
18130W        W61183  31.974  30.757   7.076 -0.1579  0.1456 -0.5092
18131W        W61184  19.375  21.972   9.001 -0.0097  0.0655  0.2136
18132W        W61185  16.218  21.945  20.532  0.0562  0.2513  0.2565
18133W        W61186   9.959  24.091   2.378 -0.1262  0.0253  0.1117
18134W        W61187  11.700  32.289  18.180  0.0793 -0.2003  0.1274
18135W        W61188   6.810  21.739   3.170 -0.0473  0.0588 -0.0441
18136W        W61189  26.076  18.052   8.533 -0.0432  0.0694 -0.0033
18137W        W61190  26.364  23.007   9.612 -0.3349 -0.3056 -0.1313
18138W        W61191  19.736  20.676   7.067  0.1168  0.0550 -0.0251
18139W        W61192  11.601  12.295   2.479  0.1912  0.0620 -0.0352
18140W        W61193   9.179  33.300   2.974  0.0682 -0.1806  0.1479
18141W        W61194  10.092   9.958   2.139 -0.0386  0.2011 -0.2583
18142W        W61195  26.778  30.432  22.953  0.2836  0.0152  0.0335
18143W        W61196  17.479  24.289   7.882  0.2349  0.2533 -0.0528
18144W        W61197  27.674  32.308   5.474 -0.1689 -0.0309  0.1048
18145W        W61198  27.424  22.225  29.196 -0.1982 -0.0791  0.0348
18146W        W61199  17.847  17.578   0.124 -0.0843 -0.0067 -0.0911
18147W        W61200  19.029  33.363  19.772  0.2309  0.2761  0.0715
18148W        W61201  15.303  22.577   4.350  0.1911 -0.2577  0.0125
18149W        W61202  16.777   1.327   8.546 -0.2255  0.2586  0.0727
18150W        W61203  13.933   3.822   1.105 -0.2889  0.2880 -0.0589
18151W        W61204  24.433  33.959   7.217 -0.0195 -0.1655 -0.0048
18152W        W61205  24.700   7.577   5.548  0.1654  0.1024 -0.1091
18153W        W61206  31.056   5.227   5.177 -0.1065  0.1086 -0.0583
18154W        W61207  25.598  30.818  10.032 -0.0868  0.1184  0.1508
18155W        W61208  19.167   1.566   9.085 -0.1778  0.0247 -0.0450
18156W        W61209   9.144   1.227  24.914 -0.2176 -0.1797  0.1315
18157W        W61210  32.545  26.853  19.275  0.0716 -0.0832  0.1764
18158W        W61211  27.723   1.315   8.990 -0.0759  0.1570 -0.2030
18159W        W61212  31.897  23.046   7.649 -0.0868  0.0334 -0.2297
18160W        W61213  20.865  20.552   2.018  0.1102  0.0658  0.3123
18161W        W61214  17.530  27.828   7.203  0.1804  0.0495  0.1899
18162W        W61215   1.094   9.353   3.634 -0.0009 -0.0927 -0.0081
18163W        W61216  17.980  33.401   2.079 -0.0598  0.2195 -0.1203
18164W        W61217  28.671  28.686   6.140 -0.1983 -0.0054  0.0555
18165W        W61218  15.696  32.406  15.986  0.0421 -0.0187  0.1549
18166W        W61219  21.206  27.099  14.324  0.0398 -0.1925  0.0335
18167W        W61220  19.944   9.154   3.977  0.2113  0.3824  0.2686
18168W        W61221  22.599  30.443  27.248  0.2565 -0.0225 -0.1828
18169W        W61222  22.237  32.740   6.538 -0.3224 -0.0845  0.0833
18170W        W61223  15.989   7.876   1.497  0.1694 -0.0388  0.1654
18171W        W61224  14.081  18.725   4.684 -0.2770  0.1284  0.2516
18172W        W61225  20.566   6.212  22.039 -0.1299  0.0860 -0.0092
18173W        W61226  30.524  32.044  28.943 -0.2177  0.3139 -0.0751
18174W        W61227  31.106  20.920   4.646  0.2196 -0.3225 -0.0251
18175W        W61228  26.150  12.162  22.107  0.1561  0.0099 -0.0519
18176W        W61229  27.980   5.200   7.424 -0.1886 -0.0574  0.0994
18177W        W61230  15.064  27.392   4.938 -0.0914 -0.0923 -0.0021
18178W        W61231  26.691  20.775  19.940  0.2290 -0.1700 -0.1771
18179W        W61232  17.449  15.619   4.483  0.3119 -0.1506 -0.0051
18180W        W61233  21.167  20.247   3.530 -0.0046 -0.1274  0.4063
18181W        W61234  19.674  30.483   6.534 -0.1228  0.3512  0.1282
18182W        W61235  22.266   5.250   6.481 -0.3772  0.0539 -0.2048
18183W        W61236  11.921  27.700  18.956 -0.1886  0.0061 -0.2463
18184W        W61237   1.299  11.270   9.697 -0.1686 -0.2967 -0.2550
18185W        W61238  20.596  15.281   4.059  0.0066  0.3996  0.1636
18186W        W61239   7.121  23.411   8.593 -0.0671  0.2637 -0.3194
18187W        W61240  16.193   4.662  19.898 -0.1584  0.0081  0.0708
18188W        W61241  23.222  27.036  10.467 -0.0361 -0.0717 -0.1947
18189W        W61242  25.690   6.612   9.444  0.1589 -0.3027  0.0809
18190W        W61243  10.667  32.559   1.674 -0.0249 -0.0692  0.0302
18191W        W61244  25.464  24.450  23.335 -0.0095 -0.1321  0.1856
18192W        W61245  18.770  32.423   6.656 -0.1271  0.0513  0.2343
18193W        W61246  16.298  24.469  11.136 -0.3501 -0.2400 -0.2759
18194W        W61247  10.742  23.936  29.086  0.0524  0.3625 -0.1227
18195W        W61248   8.586  29.016   0.765  0.0010 -0.0824 -0.2165
18196W        W61249  26.109  27.131  29.159 -0.4752  0.3798 -0.0683
18197W        W61250   7.812   2.113  19.212  0.0238  0.1056 -0.1202
18198W        W61251  13.983  25.966   5.142  0.0500  0.0858  0.0082
18199W        W61252  13.445  10.340   4.644  0.3452  0.0666 -0.3142
18200W        W61253  11.393  23.611  18.836  0.0669 -0.0103  0.0845
18201W        W61254  15.763  17.419  26.967  0.1069  0.2117 -0.0633
18202W        W61255  23.016  31.578   8.824  0.0746 -0.3217  0.1802
18203W        W61256  14.842   6.101   1.104  0.0942  0.0149 -0.1368
18204W        W61257   9.421  22.793   3.719 -0.1144 -0.0463 -0.1243
18205W        W61258  23.163  24.669  28.289 -0.1234  0.1164 -0.2890
18206W        W61259  20.611  30.935   7.169 -0.0701 -0.2962 -0.0562
18207W        W61260  10.514   3.377   7.345  0.1300 -0.0263  0.0319
18208W        W61261   1.280  26.685   4.986 -0.0439  0.0390  0.0922
18209W        W61262  10.764   7.867   7.836 -0.2056 -0.3716 -0.0762
18210W        W61263  15.507  26.377  23.209  0.1486 -0.0871  0.2027
18211W        W61264   8.496   8.970   8.976 -0.0780 -0.2170 -0.0985
18212W        W61265  20.143   8.504  23.161  0.0692 -0.0370 -0.2390
18213W        W61266  14.947   0.693   2.225  0.1612  0.0727 -0.0015
18214W        W61267   2.920   1.263  27.432  0.3713  0.2619  0.2366
18215W        W61268  16.304  16.761  25.237 -0.6179 -0.0602 -0.1972
18216W        W61269  24.729  11.560  28.950  0.1560 -0.2063  0.1827
18217W        W61270  32.134   0.101   5.635  0.1262 -0.2588 -0.4094
18218W        W61271  23.943   5.047   3.897 -0.0535  0.1022 -0.0389
18219W        W61272  15.609   4.526   2.915  0.0683 -0.0543 -0.0658
18220W        W61273  20.209  24.151   9.889  0.0770 -0.1173  0.0191
18221W        W61274   9.303  30.964   5.093  0.0015  0.0042  0.2810
18222W        W61275  12.375  28.504   2.931  0.1877  0.2944  0.3968
18223W        W61276   4.784   3.672   0.756 -0.3443 -0.5348 -0.3596
18224W        W61277  20.638  32.312   5.748 -0.0936  0.0575 -0.0477
18225W        W61278  21.088  26.818  27.515 -0.1175 -0.0651 -0.1144
18226W        W61279   1.362   9.151   8.218 -0.1792  0.1063 -0.1405
18227W        W61280   2.434  19.314  23.079 -0.2911 -0.0175  0.0157
18228W        W61281   5.526  22.514   4.775 -0.2737  0.0059 -0.1135
18229W        W61282  11.606  23.647   7.552 -0.1977 -0.0128 -0.1719
18230W        W61283  19.153   2.336  27.687  0.2099 -0.1153  0.0760
18231W        W61284  16.760  33.860   0.038 -0.1669 -0.1077 -0.0116
18232W        W61285  28.558  25.104   8.499  0.1363 -0.0169 -0.2467
18233W        W61286  23.216  27.341  10.092  0.2764 -0.0241  0.1718
18234W        W61287  14.147  16.151   9.448  0.0241  0.0845 -0.3179
18235W        W61288  18.273  27.614   6.509  0.0558  0.0497  0.0417
18236W        W61289  16.606  20.909   7.251 -0.1253 -0.0229 -0.1461
18237W        W61290  13.003  13.624   7.239  0.1906  0.0979 -0.2341
18238W        W61291   4.277   3.121   8.081  0.1788  0.0504  0.0087
18239W        W61292  14.441  16.477   0.209  0.2138  0.2585  0.3008
18240W        W61293  28.235  26.808   7.307 -0.0933 -0.4392 -0.2154
18241W        W61294  27.218  25.926   2.661  0.1080 -0.1246 -0.1525
18242W        W61295  16.913   4.116   3.882 -0.3777  0.2130  0.0521
18243W        W61296  10.902  31.141  22.780 -0.3621 -0.1888  0.0011
18244W        W61297  25.814   0.949  28.651  0.0108  0.0816  0.1027
18245W        W61298  24.356  17.972   2.947 -0.1823 -0.3390  0.1052
18246W        W61299  19.025  31.027  19.698 -0.0668 -0.0250 -0.1458
18247W        W61300  20.311  26.873  16.773 -0.0663  0.1796 -0.1914
18248W        W61301  23.946   0.967   2.721 -0.0356  0.1651 -0.2383
18249W        W61302  14.054  27.671   3.981 -0.3974  0.1871  0.1872
18250W        W61303  16.645  22.130  26.207 -0.1890 -0.1404 -0.0634
18251W        W61304   2.958  23.327   9.106 -0.2686  0.1366 -0.0685
18252W        W61305  26.894  11.105  10.415 -0.0994 -0.1259  0.2508
18253W        W61306  19.986  22.871  26.731  0.0186 -0.0826 -0.0174
18254W        W61307  25.784  20.234   6.482  0.2218 -0.3242 -0.0338
18255W        W61308  18.295  31.399   9.762  0.0181 -0.1899 -0.0595
18256W        W61309  32.472  31.688  27.289 -0.1568  0.0666 -0.1782
18257W        W61310  30.503  24.612   1.086  0.1234  0.0692  0.0398
18258W        W61311  14.648  33.607   6.644 -0.0212  0.0539  0.0519
18259W        W61312   2.440   2.481   7.287  0.1498  0.1599  0.1868
18260W        W61313  16.612  11.437   7.535  0.0219  0.1674 -0.0144
18261W        W61314  29.924  18.238  28.876  0.0357  0.1042 -0.2456
18262W        W61315  20.502  15.364   6.643  0.4172 -0.2519  0.3225
18263W        W61316   1.744  26.455   1.824  0.0489 -0.0539  0.1238
18264W        W61317  29.804  21.698   6.412 -0.2478 -0.0081  0.0604
18265W        W61318  21.886  30.934   6.373  0.2131 -0.1708 -0.2471
18266W        W61319  23.987   3.511   8.102  0.1245  0.0602 -0.0424
18267W        W61320  11.677   0.135   9.398  0.0837  0.2592 -0.1829
18268W        W61321   8.017   6.505   6.350 -0.0811  0.0762 -0.0723
18269W        W61322  22.837  27.223  28.386  0.2051  0.2214 -0.2077
18270W        W61323  32.391  26.823  22.839 -0.1894  0.0744  0.2433
18271W        W61324  11.739  11.720  24.181  0.1221  0.0437  0.2972
18272W        W61325   0.795  29.581  24.556 -0.0904  0.0426 -0.1458
18273W        W61326  17.134   0.298   3.991  0.2071 -0.1293 -0.2271
18274W        W61327   2.640  27.153   4.401 -0.0136 -0.1351 -0.1842
18275W        W61328  28.540  16.765   0.117 -0.0653 -0.1589  0.1613
18276W        W61329  18.783   6.505  27.087 -0.1464  0.0427  0.0562
18277W        W61330  30.700   1.306   9.234  0.0706  0.0298 -0.1441
18278W        W61331  21.433  26.433   8.881 -0.0754 -0.0802  0.0764
18279W        W61332   9.148  20.465   7.967 -0.3538 -0.0288 -0.1814
18280W        W61333  18.520  21.656  10.073  0.0014 -0.2210 -0.1699
18281W        W61334  30.980  26.436  29.004 -0.0303 -0.0243  0.2076
18282W        W61335  29.803   9.641  29.060 -0.1072 -0.1063 -0.1960
18283W        W61336  28.151  31.743  26.012  0.0769 -0.1983 -0.2161
18284W        W61337  12.813  30.764   6.773 -0.2074 -0.2361  0.0177
18285W        W61338  30.113  26.169   2.152  0.0290 -0.1805  0.1145
18286W        W61339  21.703  10.768   4.845 -0.0398 -0.0205  0.0653
18287W        W61340  28.100  15.346   7.648 -0.1492 -0.0342 -0.0674
18288W        W61341  13.643  10.778   7.261 -0.3173  0.1128  0.0178
18289W        W61342  17.758   5.169   1.416 -0.1223  0.0246 -0.2360
18290W        W61343  19.269   1.639   4.816  0.1177 -0.0687  0.1805
18291W        W61344  28.818  34.099   6.403  0.1255 -0.3136 -0.0440
18292W        W61345  23.026  27.850   6.531 -0.0672 -0.2086 -0.2506
18293W        W61346   1.187  23.647   9.244 -0.1953  0.2047 -0.0456
18294W        W61347   0.979  22.314  25.703  0.0656 -0.1628 -0.0188
18295W        W61348  14.759  19.774  26.770  0.1637 -0.0699 -0.0961
18296W        W61349   2.247  10.100  19.005  0.0389  0.2722 -0.2326
18297W        W61350  20.995  34.087  10.467 -0.1249  0.0910  0.0232
18298W        W61351  25.011  28.610   7.950 -0.0947 -0.1366  0.0637
18299W        W61352  14.669  29.385  17.686  0.1865 -0.0604 -0.1532
18300W        W61353   9.412  27.578   2.239  0.2090  0.2003 -0.0461
18301W        W61354   5.876  27.031   7.757 -0.0088  0.0145  0.1146
18302W        W61355  19.317  29.583   2.820 -0.0233  0.2170 -0.2841
18303W        W61356  29.403  31.608  24.263 -0.1551 -0.0157 -0.0476
18304W        W61357  25.627  21.769   3.993 -0.2947  0.3011 -0.0868
18305W        W61358  33.620  28.596  19.155 -0.0942 -0.0369  0.1344
18306W        W61359  16.661  23.130  14.101  0.1885 -0.3583  0.3411
18307W        W61360  11.175  14.696  27.732 -0.0196  0.1245  0.0595
18308W        W61361  25.684   6.947  25.089  0.1484 -0.0285 -0.0376
18309W        W61362  24.179  13.366  21.032  0.1407 -0.2430 -0.1570
18310W        W61363  24.471   7.350   4.252 -0.0297  0.0009  0.1841
18311W        W61364  26.373  29.962   6.138  0.1012 -0.1295 -0.0350
18312W        W61365  28.946  29.768   2.446  0.0528  0.0864  0.3750
18313W        W61366  17.138  20.964   3.997  0.0101 -0.1298  0.1027
18314W        W61367  27.164  16.839   8.805  0.1506  0.0476  0.1250
18315W        W61368  24.943   3.484   0.411  0.2411  0.0897  0.2096
18316W        W61369  23.501  26.113   1.570 -0.0098  0.6005  0.4496
18317W        W61370  17.374  27.473  26.658  0.1432 -0.1148 -0.1415
18318W        W61371  14.238  25.160   8.895 -0.1311  0.1826 -0.0393
18319W        W61372  24.040  33.217  15.086  0.0395  0.1255 -0.2266
18320W        W61373   7.660  23.699   5.378 -0.0595  0.3590 -0.2155
18321W        W61374  15.089   2.733   7.542  0.2023 -0.0840  0.1226
18322W        W61375   1.951  30.912   6.117 -0.0856  0.0643 -0.0116
18323W        W61376  19.343  31.134  27.153  0.2050  0.1564 -0.1370
18324W        W61377  21.010  28.599   8.591  0.2860  0.0125  0.3818
18325W        W61378  18.956  27.598   8.006  0.3015  0.0864 -0.2370
18326W        W61379   2.128  19.766  26.994  0.0894 -0.1503  0.3326
18327W        W61380   0.830   1.936   5.460  0.2433  0.0885 -0.1841
18328W        W61381  12.678  16.960  27.482  0.2044  0.0028  0.0913
18329W        W61382  23.002  26.412   5.917  0.1210  0.3172 -0.0750
18330W        W61383  15.486  32.760   8.966 -0.1834  0.0427  0.0135
18331W        W61384  17.521  10.134   0.313  0.0358 -0.0269  0.0606
18332W        W61385  20.695  12.807  19.000 -0.0021 -0.1340  0.2503
18333W        W61386  23.424  15.279  24.990 -0.0671 -0.0094 -0.0858
18334W        W61387  26.660  24.407   3.949  0.0163  0.0782 -0.0582
18335W        W61388  31.064   8.360   1.822  0.0544 -0.0774 -0.0206
18336W        W61389  13.042   0.826   6.265 -0.0215 -0.2547  0.1499
18337W        W61390  24.955  22.874  29.107 -0.1227  0.1088 -0.2061
18338W        W61391  21.884  15.522  17.718 -0.2123  0.2406  0.2802
18339W        W61392  11.841   0.151   2.998 -0.1459 -0.4503  0.1604
18340W        W61393  19.350  25.738   4.187  0.1155  0.1166 -0.1731
18341W        W61394  28.205  20.625   1.241  0.0321  0.1501 -0.3757
18342W        W61395  26.472  10.959   8.647  0.2619  0.0941 -0.1623
18343W        W61396  25.705  12.857  28.657 -0.0279  0.2611  0.2536
18344W        W61397  12.048  27.723   6.296 -0.2131 -0.1295  0.2095
18345W        W61398   8.430   7.537  10.832  0.1512  0.2034  0.3515
18346W        W61399  29.590  32.068   3.207 -0.1257  0.2505  0.2397
18347W        W61400  19.235  34.142   6.013 -0.4447 -0.3721 -0.1757
18348W        W61401   6.335  31.337   2.406  0.1462  0.2632  0.1572
18349W        W61402  18.924   1.240  27.637 -0.1696 -0.1534 -0.1480
18350W        W61403  17.900   3.697   6.276 -0.1524  0.0934 -0.2374
18351W        W61404  34.073  30.573  27.183  0.2907  0.2728  0.0196
18352W        W61405  12.830  26.126   3.382  0.0815  0.1287  0.1736
18353W        W61406   7.345  27.825  24.016  0.4519  0.3436  0.1495
18354W        W61407  27.811  30.414  21.019  0.1411 -0.3382  0.1157
18355W        W61408  16.540  28.928  24.872  0.1425  0.3334  0.4839
18356W        W61409  19.289   6.105   1.986  0.0255 -0.1092  0.2842
18357W        W61410  25.437  28.551  27.903  0.0864 -0.0334 -0.4215
18358W        W61411  12.219  25.705   2.489  0.0156 -0.1216  0.0936
18359W        W61412  17.298  31.555   7.281 -0.0259 -0.0543 -0.0857
18360W        W61413  23.258  26.823  27.930  0.2201  0.1022  0.3762
18361W        W61414  19.297  11.936  16.193 -0.2441  0.3809 -0.2644
18362W        W61415  31.823  21.069  24.564 -0.0375 -0.0229 -0.1948
18363W        W61416  27.369  34.639   1.735 -0.1828 -0.1116  0.2172
18364W        W61417  25.476  20.741   9.457  0.1329 -0.0861  0.0147
18365W        W61418  16.602  31.688   4.612 -0.0816  0.2294  0.1192
18366W        W61419  12.664  17.142   0.302  0.0909  0.2909  0.0180
18367W        W61420  14.626  23.611   1.708 -0.3202 -0.0895 -0.0943
18368W        W61421  26.958  27.118  28.488  0.1517 -0.2039 -0.0247
18369W        W61422  14.665  24.379   9.118  0.3839  0.0062  0.0383
18370W        W61423  15.002   0.832  10.038  0.2075  0.0248 -0.1712
18371W        W61424  28.311   2.241  25.047  0.2316 -0.3021  0.0318
18372W        W61425  31.129  34.638   8.505 -0.0586  0.0208 -0.0356
18373W        W61426  31.995  22.292  29.052  0.3007  0.1175 -0.2601
18374W        W61427   7.977   4.550   2.886 -0.0785  0.0589 -0.2823
18375W        W61428  31.929   1.109  25.523 -0.2856  0.1492  0.0257
18376W        W61429  19.393  15.796   8.049  0.1063  0.2365  0.0938
18377W        W61430  14.274  24.250   3.855  0.0587  0.3407  0.1369
18378W        W61431  30.148   0.435   4.201  0.3746  0.0016  0.0417
18379W        W61432  18.374  15.506   7.433  0.1125  0.0578  0.0268
18380W        W61433  12.195  30.491  24.362 -0.4169  0.1735 -0.1311
18381W        W61434  11.238   1.094   4.601 -0.0440  0.0241  0.0638
18382W        W61435  24.527  30.895   5.222  0.1329  0.0197 -0.2080
18383W        W61436  20.447   2.453   9.764  0.4631 -0.1201  0.4877
18384W        W61437  13.586  28.772  21.141 -0.0075  0.1700  0.0560
18385W        W61438  11.030  25.378  27.806 -0.0248  0.2530  0.2239
18386W        W61439  13.633   7.705   2.211  0.2393 -0.2090  0.1136
18387W        W61440  26.965   0.651  27.404 -0.1894 -0.1004 -0.3696
18388W        W61441  15.150  10.584   4.530  0.2878  0.0798  0.0564
18389W        W61442  16.301   2.607   9.583 -0.0047  0.0519 -0.1027
18390W        W61443  28.135  20.424   9.007  0.2660 -0.0436  0.1093
18391W        W61444  20.630  25.053   9.425  0.0669 -0.0860  0.2805
18392W        W61445  34.472  20.685   6.160 -0.1014  0.0604 -0.3437
18393W        W61446  15.002  12.036   2.924  0.2411 -0.1530 -0.1663
18394W        W61447  11.057  16.915   7.955  0.0956  0.3669  0.1477
18395W        W61448  16.350  25.400   0.243  0.1692 -0.0769 -0.1424
18396W        W61449  28.027  33.864   9.560 -0.0166  0.0570  0.3114
18397W        W61450  17.457  22.386   7.130  0.0976 -0.0342 -0.1054
18398W        W61451  19.668  33.424   4.778  0.0521  0.3373 -0.0118
18399W        W61452  31.103  26.681   8.495  0.1727 -0.2500 -0.0810
18400W        W61453   2.901   0.949   8.274  0.0848 -0.1608  0.3776
18401W        W61454  22.735  34.138  26.469 -0.2326  0.0009  0.1366
18402W        W61455  17.361  21.383   5.554  0.0188  0.0339 -0.2235
18403W        W61456  19.590  33.479   0.497 -0.0786 -0.1756 -0.0550
18404W        W61457  22.252   8.995  19.128  0.0484 -0.2216  0.1620
18405W        W61458  27.233   8.027   8.785 -0.3767  0.2017  0.1657
18406W        W61459  28.163  29.564   8.032  0.1456  0.0040 -0.1308
18407W        W61460  23.987  14.559   9.271  0.1681  0.2297 -0.1457
18408W        W61461   6.832  22.929   1.304 -0.2094 -0.0731 -0.1989
18409W        W61462  13.327  23.091  23.202 -0.0895 -0.2712  0.2010
18410W        W61463  17.097  17.740  20.871 -0.0163  0.1960  0.1885
18411W        W61464  21.076  32.720   9.893  0.2043 -0.0029 -0.2927
18412W        W61465  16.707   1.966   4.651 -0.3818 -0.0372  0.1488
18413W        W61466  13.586  17.663  16.127 -0.2668  0.3160 -0.0766
18414W        W61467  22.981  28.812   3.368 -0.5711 -0.2757 -0.2573
18415W        W61468  25.284  18.753   3.100  0.1083 -0.1434 -0.0052
18416W        W61469  20.372   1.764  19.137  0.1297  0.0829 -0.0091
18417W        W61470   8.013  31.644   4.090 -0.0305 -0.1611  0.3028
18418W        W61471  11.047   6.328   4.103  0.0268  0.2116  0.1267
18419W        W61472  31.849  28.893   8.282  0.0916 -0.3865 -0.2686
18420W        W61473  27.047   1.995   5.707 -0.0800  0.2137 -0.0134
18421W        W61474   8.678  29.007   7.041  0.1067 -0.1078 -0.0437
18422W        W61475  25.763  13.493  21.048  0.1079 -0.2165  0.0492
18423W        W61476  21.439  18.380   2.705  0.2047  0.0297 -0.0599
18424W        W61477  26.204  26.213   5.472  0.1193 -0.1663  0.0926
18425W        W61478  19.261  29.704   8.561  0.1632  0.0120 -0.1257
18426W        W61479  24.460  13.102   8.286 -0.2233  0.1401  0.0959
18427W        W61480  25.345  29.320   9.393  0.0558  0.1289  0.0836
18428W        W61481  31.605  25.622   5.686  0.0729  0.1789 -0.4854
18429W        W61482  19.883  24.407  27.570  0.0673  0.1195  0.0871
18430W        W61483  34.516  26.043   8.331  0.0652 -0.3527 -0.1008
18431W        W61484  17.311  20.406  28.900 -0.0551 -0.2012  0.0107
18432W        W61485   2.706   3.255   8.187 -0.1091  0.1847  0.1379
18433W        W61486  24.255  30.282  10.580  0.3177  0.1425 -0.1725
18434W        W61487  18.948  29.024   8.327  0.3182 -0.3294  0.3680
18435W        W61488   6.404  12.334   4.838 -0.0335  0.2016 -0.1681
18436W        W61489   6.695  22.147  28.893  0.1478 -0.3958 -0.0993
18437W        W61490  15.953  11.198  28.923  0.0113 -0.1133  0.1202
18438W        W61491  21.840  15.736   3.070 -0.0489 -0.0695 -0.1379
18439W        W61492  14.569  34.077   3.681  0.2543 -0.1527 -0.1577
18440W        W61493  31.439  24.740  18.448 -0.1370 -0.0764 -0.1820
18441W        W61494  20.274  31.629   2.727 -0.0690  0.0226 -0.1832
18442W        W61495   1.113  28.886  23.642  0.0900 -0.0887 -0.1154
18443W        W61496  33.657  14.917  24.600 -0.2105  0.0130 -0.1594
18444W        W61497  23.217  24.915  20.734 -0.0214  0.2743 -0.1857
18445W        W61498  18.082  11.025   6.357 -0.1179  0.0913 -0.0154
18446W        W61499  19.835   7.434  22.450  0.1494 -0.1388  0.1479
18447W        W61500  28.750   8.304   3.344 -0.0790 -0.0837 -0.1954
18448W        W61501  21.093  30.921  16.464  0.0015 -0.1237  0.4326
18449W        W61502  18.188   0.755   7.643 -0.1209  0.4382 -0.3766
18450W        W61503  26.202   3.441  22.323  0.0103  0.0905 -0.0965
18451W        W61504  15.219  25.333  29.166 -0.1467 -0.4191  0.2049
18452W        W61505  16.237   3.096  24.406 -0.1283 -0.1949 -0.2070
18453W        W61506  11.145  11.920   9.436 -0.1994  0.1046 -0.0006
18454W        W61507   1.357  33.444   0.874 -0.2515 -0.1774 -0.1929
18455W        W61508  14.274  11.572  22.205  0.0770  0.0889 -0.0834
18456W        W61509  27.542   1.111   7.542 -0.1719 -0.0468 -0.0684
18457W        W61510  27.671   2.504   6.419 -0.1198  0.0553  0.2054
18458W        W61511   1.129  28.370   3.959  0.1461  0.3645  0.0205
18459W        W61512  18.846  16.021  27.478 -0.1008 -0.0583  0.0162
18460W        W61513  14.182  34.338  24.704 -0.1141 -0.1976 -0.0042
18461W        W61514  13.322  26.755   1.138 -0.1435 -0.0922 -0.2035
18462W        W61515  15.945  29.750   0.014  0.2000  0.5174  0.0600
18463W        W61516  27.706   4.364   6.304  0.0437 -0.2215  0.1148
18464W        W61517  16.530  21.298   3.128 -0.0891 -0.1442 -0.0471
18465W        W61518  15.535  24.362   2.107  0.0406  0.0741  0.1235
18466W        W61519  19.856  26.377   0.615  0.2628 -0.1639  0.0247
18467W        W61520  10.904  14.708  27.059 -0.0502 -0.0258 -0.2192
18468W        W61521  27.930   4.029   5.103  0.2527  0.3396  0.0887
18469W        W61522  18.507   2.050  25.200  0.1061 -0.1991 -0.0169
18470W        W61523  14.540  33.917   7.578 -0.2724  0.0618 -0.2986
18471W        W61524  24.321   2.285   3.880 -0.1029 -0.3045 -0.0665
18472W        W61525   5.392  28.975   2.633 -0.1809 -0.2494 -0.2016
18473W        W61526   9.959  24.260  17.640 -0.0874  0.0440  0.0769
18474W        W61527   2.096  10.224  16.787  0.1504 -0.3860 -0.0544
18475W        W61528  31.538  23.792  27.704  0.1642  0.0052 -0.2439
18476W        W61529   7.706  32.072   5.665  0.1265 -0.1508  0.4757
18477W        W61530  33.016   3.675  17.156  0.0159 -0.3643 -0.0169
18478W        W61531  25.394   1.947   4.522 -0.0091  0.3203  0.0205
18479W        W61532  16.242   4.793  29.195  0.0775 -0.0972  0.0629
18480W        W61533  14.448  12.892  27.645  0.2320  0.1209 -0.0431
18481W        W61534  22.953   0.870  13.846 -0.1493  0.3733  0.2041
18482W        W61535  20.692   1.831  11.061 -0.0536 -0.0290 -0.0476
18483W        W61536  23.366  12.869  21.315  0.1901 -0.3201  0.0169
18484W        W61537  28.369  34.137  28.437  0.0201  0.1741  0.0296
18485W        W61538   1.009  25.319   8.587 -0.2408 -0.1197  0.1687
18486W        W61539  20.691   1.782   6.085  0.1065  0.0110  0.2441
18487W        W61540  30.518  31.035  26.646  0.0099  0.1199 -0.1636
18488W        W61541  33.599  29.003   8.281  0.1458  0.0252  0.0756
18489W        W61542  30.968   9.126  26.227  0.0555  0.0317 -0.0358
18490W        W61543  21.507  17.583  27.831  0.0953 -0.1191 -0.2534
18491W        W61544  25.993  31.149  20.370 -0.2679  0.0782  0.1639
18492W        W61545  24.501  28.380  26.822  0.1689  0.0422 -0.0057
18493W        W61546   2.131   7.233   9.550  0.0705  0.0517 -0.0210
18494W        W61547   7.939  26.379   4.707 -0.2103  0.0735 -0.3166
18495W        W61548   9.799  27.713  26.567  0.2429  0.3680 -0.1165
18496W        W61549   8.172  28.236  21.666  0.0559  0.0736 -0.2652
18497W        W61550  15.208   7.143   4.699  0.0224 -0.1978 -0.2066
18498W        W61551  17.198  24.549   3.638  0.0098 -0.0833  0.1163
18499W        W61552  15.193   1.150   8.531 -0.2744  0.0735 -0.0230
18500W        W61553  19.805   3.188  22.711 -0.1244  0.0224  0.0734
18501W        W61554   8.562   8.270  25.319 -0.1358  0.1184  0.0633
18502W        W61555  25.833  20.507  10.046  0.2439 -0.1707  0.3640
18503W        W61556  32.516  29.649  27.495 -0.1105 -0.1773  0.0540
18504W        W61557   1.285  31.844   0.757 -0.4513 -0.1655  0.1469
18505W        W61558   7.260  32.166  15.449 -0.0778 -0.2360  0.3277
18506W        W61559  30.698  30.548  14.246  0.1897  0.1448 -0.1224
18507W        W61560  24.118  18.498  21.990 -0.1004 -0.2053  0.0775
18508W        W61561   9.718  11.181  28.963  0.4219 -0.0517 -0.0498
18509W        W61562  19.711  34.506  20.448  0.2270 -0.1854  0.3058
18510W        W61563   4.566   8.205  10.055 -0.1085 -0.0817 -0.0480
18511W        W61564   7.915  14.101   9.686  0.0473  0.2552 -0.1235
18512W        W61565  25.049   3.884   3.275 -0.4643  0.1956  0.1453
18513W        W61566  22.496  25.836   0.364  0.0072 -0.2241 -0.1605
18514W        W61567  12.994  16.459   2.658 -0.3701  0.0093 -0.0427
18515W        W61568   6.137  20.910  25.131 -0.0608 -0.2046  0.2150
18516W        W61569   6.514  29.123  26.431  0.3913  0.0896 -0.0261
18517W        W61570  16.730  28.092   0.839  0.0111 -0.1333  0.1981
18518W        W61571  13.159  30.075   7.553 -0.5664 -0.1212  0.0510
18519W        W61572  14.884   2.433   6.690  0.2527 -0.3479  0.0141
18520W        W61573   6.857  10.278   6.539  0.1058  0.0107  0.0740
18521W        W61574  13.012  25.483   9.424  0.0824  0.3577 -0.1245
18522W        W61575  18.792  33.210   2.530  0.3552  0.0512 -0.1969
18523W        W61576  27.562  18.787   3.194  0.3195  0.0169  0.0324
18524W        W61577   1.793  20.433   2.979  0.1332 -0.0330 -0.3630
18525W        W61578  13.692  25.809   2.245  0.1657  0.1614 -0.2169
18526W        W61579  28.780  28.947   6.711 -0.0174 -0.2813 -0.0722
18527W        W61580  24.964  17.420  27.410  0.1051  0.0139 -0.1192
18528W        W61581  27.367   6.718   4.548  0.1225 -0.2096  0.1842
18529W        W61582  12.882  12.370  27.240  0.0913 -0.0823  0.2714
18530W        W61583   9.926   8.880   3.625  0.2647 -0.0408  0.2015
18531W        W61584  11.269   5.015   8.380 -0.1721 -0.1206  0.0406
18532W        W61585  14.001  10.069  18.535 -0.1905  0.0979  0.0598
18533W        W61586   1.965  27.120  19.860  0.2713 -0.0156  0.2916
18534W        W61587  15.246  31.248   2.338 -0.1437 -0.2478  0.2510
18535W        W61588   8.286   4.975   9.280 -0.2675  0.0715  0.1036
18536W        W61589   7.547  34.342  27.955  0.4114 -0.2961 -0.1016
18537W        W61590  24.052  21.943  22.215 -0.0539  0.0254 -0.2875
18538W        W61591  14.312  34.553  10.439  0.0126  0.0076 -0.0377
18539W        W61592  25.527  33.245   5.775  0.0917 -0.2099 -0.0636
18540W        W61593   9.665  30.339   7.220 -0.1674  0.1015 -0.1060
18541W        W61594  19.984   2.561  24.303 -0.0597  0.3236  0.0774
18542W        W61595  20.906  25.827   9.510 -0.0886  0.0177 -0.2913
18543W        W61596  17.238  32.860   7.731  0.1190 -0.0917 -0.0946
18544W        W61597  17.116   9.301  21.769 -0.3731 -0.1590 -0.0633
18545W        W61598   7.634  15.683  15.236 -0.2631  0.1448 -0.2129
18546W        W61599  33.821   3.097  19.595 -0.0981 -0.0414 -0.0964
18547W        W61600  14.319   4.629   0.223 -0.0103 -0.0811 -0.0560
18548W        W61601  18.455   5.107   9.917  0.0304 -0.1447  0.0783
18549W        W61602  19.960   5.228  23.037 -0.0729 -0.1085 -0.0722
18550W        W61603   2.534  25.343  23.594 -0.3122 -0.1788 -0.0859
18551W        W61604   0.703  24.904  27.682  0.1620  0.1456  0.2145
18552W        W61605  22.817  34.390   7.844  0.2463 -0.3912 -0.1461
18553W        W61606  27.434   2.034   1.297  0.4215  0.1940  0.2664
18554W        W61607  19.663  29.249  10.409  0.1739 -0.0652 -0.3274
18555W        W61608  12.182  10.198   0.373 -0.0590  0.1897  0.0187
18556W        W61609  23.198  28.113  25.411 -0.0341  0.3323  0.0631
18557W        W61610  16.096   2.232  17.111  0.2742  0.1074 -0.4408
18558W        W61611  15.169  19.871  16.071 -0.3642  0.0961 -0.4186
18559W        W61612  22.818   6.521   8.035 -0.4244  0.3103  0.2962
18560W        W61613   5.580  24.932  28.996  0.0899  0.1615  0.1477
18561W        W61614  18.949  13.548  19.574 -0.1142 -0.0237  0.0075
18562W        W61615  26.102   2.996  21.491  0.0757  0.0556  0.0785
18563W        W61616   3.707  32.648  23.999  0.2161 -0.3916 -0.0669
18564W        W61617  21.938   6.720  28.105 -0.2469  0.0888 -0.0068
18565W        W61618  20.090  27.790   3.017 -0.0266 -0.1196  0.1424
18566W        W61619  21.584   5.088   6.381  0.1805 -0.1883  0.2527
18567W        W61620  20.315  32.186   9.891  0.2555 -0.0768 -0.0027
18568W        W61621  24.484  33.558  20.223 -0.2860 -0.0057  0.1814
18569W        W61622  19.410   6.681  15.014  0.1761 -0.1200 -0.0801
18570W        W61623  25.615   4.647  27.292 -0.1284  0.0679 -0.0107
18571W        W61624  23.718  21.538   7.679  0.1605 -0.2528 -0.0758
18572W        W61625  19.296   0.981   7.081 -0.1535 -0.1505 -0.2778
18573W        W61626   3.716  13.018  24.825 -0.2103  0.0169  0.0657
18574W        W61627   2.818  24.647  28.914 -0.2681  0.3059  0.1069
18575W        W61628  17.355   3.414   8.397 -0.2816 -0.2302  0.1615
18576W        W61629  25.761   0.343  22.378  0.0766  0.2105  0.2877
18577W        W61630  16.571  26.389   2.257 -0.0038  0.0009  0.2417
18578W        W61631  22.471  12.835   3.596 -0.0291  0.0590  0.0326
18579W        W61632  25.690  33.691  20.982  0.0163  0.2508  0.1153
18580W        W61633  16.503   6.099   4.034  0.1841  0.0889  0.2684
18581W        W61634  26.931   6.740  21.961 -0.1385 -0.1486 -0.1806
18582W        W61635  22.849   2.409  27.771 -0.2688 -0.0806 -0.1852
18583W        W61636  15.663  20.638  23.896  0.4049 -0.1187 -0.1708
18584W        W61637  20.102  27.243  24.137 -0.4529 -0.1063 -0.2223
18585W        W61638  26.066  28.500  21.408  0.0502  0.2963  0.0488
18586W        W61639  24.025   2.807  27.167  0.0439 -0.0976  0.0530
18587W        W61640  25.349   6.599  26.655 -0.1004 -0.1261 -0.1851
18588W        W61641  25.690  28.351   6.432  0.0270  0.2187  0.2009
18589W        W61642  16.051  31.010   9.353 -0.0330 -0.1073  0.0201
18590W        W61643  20.195  34.539  22.688 -0.0620  0.3220 -0.1781
18591W        W61644  20.832   9.494  28.850 -0.2329 -0.1216  0.0381
18592W        W61645  19.427  29.095   5.385  0.1065 -0.0009  0.0003
18593W        W61646  25.289  13.789   1.088  0.0514 -0.0435  0.1001
18594W        W61647  28.299   6.845  26.021 -0.2498 -0.2609  0.3120
18595W        W61648  26.040  10.326   3.409  0.2630  0.0439  0.0751
18596W        W61649  26.156   2.095  20.102  0.0803 -0.0808 -0.0759
18597W        W61650  17.003  12.150  24.379 -0.0092 -0.1348 -0.1435
18598W        W61651  12.824   0.494   6.674  0.1761 -0.0355  0.2291
18599W        W61652  25.283  32.008  16.801 -0.0821 -0.2174  0.1081
18600W        W61653  11.878   3.033  18.902  0.0294 -0.0771 -0.4469
18601W        W61654  32.275  11.980   6.139 -0.2178 -0.3779  0.0163
18602W        W61655  16.932   4.030   7.298  0.0693 -0.1668  0.2344
18603W        W61656  24.489  27.534  27.368 -0.0466  0.1626  0.3420
18604W        W61657  13.431  19.699  19.521 -0.0507 -0.0439  0.0153
18605W        W61658  19.422  10.512   3.652  0.3140  0.0874  0.0290
18606W        W61659  27.348  31.477  26.110  0.0937  0.0890  0.2372
18607W        W61660   6.994  32.222   5.049 -0.0529 -0.2586 -0.0535
18608W        W61661   0.655  25.521  24.549  0.2613  0.0721  0.0850
18609W        W61662  23.527   7.623   2.164  0.1639 -0.0470  0.0738
18610W        W61663   7.758  33.443  26.271 -0.0163 -0.1625 -0.1740
18611W        W61664  11.882   8.971   5.354 -0.1517 -0.0323  0.0672
18612W        W61665   0.143  34.202   7.508  0.0814 -0.0363  0.2274
18613W        W61666  30.882   0.775  25.191  0.0467 -0.2613  0.0763
18614W        W61667  13.150   2.297   3.819 -0.1580 -0.1886 -0.0833
18615W        W61668  25.569  10.178  21.848 -0.0633  0.0789  0.0598
18616W        W61669  25.211  34.302   1.945 -0.0366  0.2570 -0.2230
18617W        W61670  29.384  22.085  27.959 -0.0066 -0.0337 -0.0416
18618W        W61671  32.893  20.785  26.583 -0.0966 -0.1069  0.0747
18619W        W61672  29.456   1.812  20.761 -0.1444 -0.0478  0.2296
18620W        W61673  19.932  15.494   3.256 -0.1933 -0.0107 -0.0422
18621W        W61674  33.006   3.799   2.910 -0.0847  0.3128 -0.0091
18622W        W61675  25.939  28.130  22.770 -0.2174  0.3638 -0.0428
18623W        W61676  23.262  23.624   4.156  0.1448 -0.2006 -0.1078
18624W        W61677  19.612  31.780  17.524 -0.0464 -0.0062  0.1605
18625W        W61678  22.699  15.304  27.012 -0.1870  0.3857 -0.1003
18626W        W61679  17.993  32.378   4.796  0.1666 -0.2529  0.1689
18627W        W61680  31.107   8.402  24.789 -0.0473 -0.1483  0.0896
18628W        W61681  18.755  24.293   1.826  0.0018  0.1991 -0.2047
18629W        W61682  27.097   0.225   7.727  0.0898  0.2013 -0.1757
18630W        W61683  15.664  24.682   0.614  0.0584  0.0303  0.1386
18631W        W61684  23.452  26.660  19.569 -0.2654  0.1640 -0.0734
18632W        W61685  29.384   6.141  28.187  0.1654  0.1077  0.0775
18633W        W61686  10.748  28.197   9.072 -0.0911 -0.2096 -0.1296
18634W        W61687  18.137   2.181  25.659 -0.1171  0.1436 -0.0288
18635W        W61688  21.396  19.583  28.344 -0.3329 -0.2383  0.2255
18636W        W61689   1.225  28.091  18.281 -0.0169 -0.1441 -0.2642
18637W        W61690  28.436   5.240  21.350 -0.1182 -0.1984  0.1753
18638W        W61691  17.363   7.669  16.898  0.1362  0.1126 -0.2289
18639W        W61692  14.439   5.472   0.038  0.3436  0.4208 -0.1262
18640W        W61693  26.109   1.124   3.313  0.0005  0.2929  0.1781
18641W        W61694  23.378   9.068   9.034 -0.0724 -0.1040  0.2512
18642W        W61695  23.134   7.580  24.728  0.0357  0.1762  0.1309
18643W        W61696  16.720  26.909   7.026 -0.1732 -0.0024 -0.1152
18644W        W61697  16.880  11.023   9.255 -0.2548 -0.1144 -0.2292
18645W        W61698  25.400  19.701  27.990  0.0303 -0.2970 -0.2579
18646W        W61699  27.794   1.603  22.942 -0.0418  0.1690 -0.1056
18647W        W61700  15.701  24.075   8.115 -0.0316 -0.0192 -0.0854
18648W        W61701   7.286   4.736  23.919  0.0119  0.1624 -0.4284
18649W        W61702  13.547  10.000  19.479  0.1803  0.3284 -0.2707
18650W        W61703  18.485  33.990  22.526 -0.3024  0.0881 -0.3066
18651W        W61704  12.985  28.731   1.733  0.0690  0.3094 -0.1953
18652W        W61705   2.866   5.641   8.407  0.3060  0.0136 -0.0898
18653W        W61706  12.521  26.379   3.074  0.3310 -0.0910  0.2231
18654W        W61707  32.577  29.067   3.862 -0.0776 -0.1239  0.1538
18655W        W61708   3.023  34.172   4.899 -0.1298  0.1352 -0.1824
18656W        W61709   3.720  30.516   7.291  0.0061 -0.4024  0.1241
18657W        W61710  15.499   7.261  28.230 -0.2650 -0.2438  0.2157
18658W        W61711  14.255  11.263   9.195 -0.1475 -0.3951 -0.0587
18659W        W61712   5.668   9.776   0.800  0.0902  0.0136 -0.3817
18660W        W61713  24.706  19.789  26.668  0.1733  0.2894 -0.1563
18661W        W61714  16.903  11.608   5.646 -0.1067 -0.3994 -0.0161
18662W        W61715  24.540   7.444  19.952 -0.0389  0.2205 -0.1722
18663W        W61716  27.601  32.659  25.659  0.1502  0.0830  0.1176
18664W        W61717  26.586   3.541  22.643  0.0743 -0.1518 -0.0939
18665W        W61718  31.754  28.516   6.434 -0.1500 -0.1613  0.0394
18666W        W61719  32.193  19.386   5.637  0.0801  0.0031 -0.0119
18667W        W61720  14.598  13.566  24.131  0.1157  0.0529 -0.3196
18668W        W61721  24.831   1.725   2.875  0.1296 -0.0617 -0.3386
18669W        W61722  16.503  20.857  23.070 -0.0845  0.0424  0.1045
18670W        W61723  26.975   1.921   8.774 -0.0073 -0.0525  0.2381
18671W        W61724  28.764  27.133  25.680  0.0728 -0.3736  0.2513
18672W        W61725  26.001  33.171   2.477 -0.0387  0.0534 -0.1170
18673W        W61726  25.883  27.104   0.371 -0.2646 -0.0324 -0.1259
18674W        W61727  19.182  21.013   5.200 -0.3860 -0.0219  0.1205
18675W        W61728  19.882  30.052   2.465 -0.1854  0.1171 -0.0472
18676W        W61729  25.441   1.457   5.839 -0.2645 -0.0770 -0.0950
18677W        W61730   0.984  32.160  23.906  0.2942 -0.0620 -0.2813
18678W        W61731  19.128   8.776   9.545 -0.2609 -0.0455 -0.3356
18679W        W61732  30.755  23.198   3.248  0.1724 -0.3062  0.1488
18680W        W61733  25.746  22.102   5.761  0.3259  0.3364  0.3181
18681W        W61734  30.644   1.512   5.945 -0.0849  0.4030 -0.2284
18682W        W61735   8.940  23.530   4.594 -0.4345 -0.2760 -0.5939
18683W        W61736  11.311  26.757   3.662  0.0036  0.0308  0.2300
18684W        W61737   7.408  24.682   2.881  0.0873 -0.0959  0.0654
18685W        W61738  20.029  24.364  24.410  0.3825  0.0143 -0.0228
18686W        W61739  12.003  29.343  26.913 -0.0652 -0.1192 -0.0100
18687W        W61740  28.432  12.450   8.240 -0.0685 -0.1114 -0.1457
18688W        W61741  10.808   3.832   7.324 -0.2664  0.2731 -0.3047
18689W        W61742  21.668  11.661   5.386 -0.0099 -0.1394 -0.0173
18690W        W61743  15.642  27.781   3.409  0.1327 -0.2427 -0.0892
18691W        W61744  24.338  19.026  23.641 -0.1058 -0.3080 -0.1310
18692W        W61745  25.230  28.093   6.460 -0.2271 -0.1053  0.3866
18693W        W61746  18.602   3.388  20.215  0.0468 -0.0222  0.1200
18694W        W61747   0.014  29.967  26.118  0.1187  0.1124  0.0940
18695W        W61748   9.676   6.792  10.692  0.1207 -0.2196  0.1760
18696W        W61749  11.208  18.663   0.167  0.0478 -0.0331 -0.0394
18697W        W61750  23.923  14.863  27.465  0.1637  0.3266  0.2324
18698W        W61751  23.590  34.224   3.364  0.0663  0.1477 -0.2853
18699W        W61752   6.553  29.966   1.504 -0.1311  0.4079  0.0010
18700W        W61753  27.353  21.287   3.681  0.1727 -0.0917  0.0004
18701W        W61754  28.506   0.093   0.092  0.0901 -0.1065 -0.0587
18702W        W61755  19.942   2.589   9.841 -0.2214 -0.1854 -0.2637
18703W        W61756   7.952  25.217   0.159 -0.0805 -0.0392  0.3085
18704W        W61757  27.191  33.830   3.659  0.1455 -0.1739 -0.0729
18705W        W61758  20.933  24.815   7.833 -0.0931 -0.2551 -0.1072
18706W        W61759  28.344  24.493   9.313  0.2668 -0.1086  0.2997
18707W        W61760  19.328  12.088   0.453  0.1226  0.0896  0.1300
18708W        W61761  17.323   6.545   9.187  0.1115  0.1742 -0.4164
18709W        W61762  22.801  27.438   4.713 -0.0379  0.0963  0.1625
18710W        W61763  21.871  29.226   1.953  0.1372 -0.0063  0.2642
18711W        W61764  21.598  30.627  22.961 -0.1724 -0.1812 -0.0182
18712W        W61765  13.745  13.740  28.302  0.1688 -0.0986  0.1586
18713W        W61766  31.652  16.525   0.913 -0.4750  0.1084 -0.1339
18714W        W61767  28.616  24.931  24.953 -0.0782 -0.2222 -0.0998
18715W        W61768  26.810  20.649   4.637  0.0953  0.0149  0.2111
18716W        W61769  10.286  31.385   2.680 -0.0660 -0.1984  0.0581
18717W        W61770   5.390  11.465  26.987 -0.2156 -0.2384  0.0250
18718W        W61771  27.098   1.033  29.013  0.0270  0.0379  0.0102
18719W        W61772   2.936  10.493   1.346 -0.0928  0.0076 -0.2610
18720W        W61773  28.018  33.724   4.571 -0.2344  0.0899  0.1050
18721W        W61774  10.788  29.810  26.224 -0.2179  0.1817 -0.1309
18722W        W61775  17.840  11.947  26.375 -0.2348  0.2676 -0.1853
18723W        W61776  23.187   3.059  26.806 -0.0034  0.0444 -0.1065
18724W        W61777  18.037  26.750   7.621 -0.0629  0.2181 -0.0406
18725W        W61778   0.833   0.455   6.626  0.0666  0.0365  0.0913
18726W        W61779  30.031   1.675  24.532  0.0731  0.0167  0.0740
18727W        W61780  24.555   2.043  23.525 -0.0109  0.0233 -0.0077
18728W        W61781  18.839  14.389   7.689 -0.1900  0.0853  0.0263
18729W        W61782  20.422  24.400   5.260 -0.1396 -0.1997  0.0971
18730W        W61783  15.900  17.683   7.701 -0.1879 -0.3771  0.2267
18731W        W61784  18.537   9.664  23.625 -0.1465  0.3199 -0.0526
18732W        W61785  11.043   6.178   9.552 -0.1442  0.1047  0.1880
18733W        W61786  19.022  10.330   1.095 -0.1866  0.2518  0.1040
18734W        W61787  20.118  22.042  24.826  0.0333  0.1708  0.0589
18735W        W61788  31.136   4.046   5.694 -0.1071 -0.3100  0.0008
18736W        W61789   1.767   2.350   3.844  0.0202 -0.1305 -0.1361
18737W        W61790  13.424  27.662   6.591 -0.0586  0.1738 -0.2212
18738W        W61791  21.991  31.050   6.880  0.0014  0.1015 -0.0159
18739W        W61792  26.581   6.750  27.791 -0.1205 -0.1252 -0.1771
18740W        W61793   0.530  11.979   3.581 -0.3810 -0.0949  0.0032
18741W        W61794  29.519  32.502  19.280  0.1617 -0.2364 -0.0462
18742W        W61795  17.218  26.934  25.758 -0.0947  0.0641  0.0603
18743W        W61796  31.966   2.919  24.806 -0.3479  0.2803 -0.1622
18744W        W61797  15.333  31.226  26.075  0.1536  0.1746 -0.1699
18745W        W61798  16.578  23.253  28.012  0.0878  0.1835  0.2802
18746W        W61799  30.671  31.159   1.615  0.0953 -0.1273 -0.1584
18747W        W61800  26.878   0.002   5.286 -0.1174 -0.2752 -0.2350
18748W        W61801  19.783  12.722   3.388 -0.0411 -0.1028  0.1327
18749W        W61802  14.271  21.703  21.531  0.0397  0.2132 -0.0390
18750W        W61803  13.164  24.212   2.763  0.0747  0.0707 -0.0502
18751W        W61804  29.285  32.864  27.617  0.0572 -0.2634  0.0713
18752W        W61805  28.718   1.017   2.481 -0.0869 -0.1928 -0.1498
18753W        W61806   2.562  33.223  24.793 -0.0343 -0.1678  0.1432
18754W        W61807  26.554  16.506   1.156  0.0925  0.0625  0.1296
18755W        W61808  24.702  33.432   0.130  0.0082  0.1122 -0.2309
18756W        W61809  14.748  20.062  19.962 -0.0890 -0.1269  0.0478
18757W        W61810  15.969  19.295   7.202 -0.1776  0.0877  0.1694
18758W        W61811  16.828   4.782  22.478 -0.0952 -0.0268 -0.1080
18759W        W61812   7.660   8.652  28.422  0.0273  0.2986 -0.0757
18760W        W61813  10.759   6.794   4.946 -0.3888 -0.0853 -0.3120
18761W        W61814  21.339  16.770   6.984 -0.0670  0.1476 -0.0851
18762W        W61815  14.888   9.269   7.578 -0.0177 -0.0200 -0.1565
18763W        W61816  15.976  19.979   3.202  0.0320 -0.2488  0.2013
18764W        W61817  27.118  31.207  24.909 -0.1574 -0.0684 -0.1079
18765W        W61818   8.068   0.973  26.779 -0.3070  0.1317  0.0479
18766W        W61819   2.902   6.811  28.965 -0.3998 -0.0359  0.1977
18767W        W61820  17.071  34.291   8.600 -0.0583 -0.2941 -0.1169
18768W        W61821  16.506   1.696   5.104 -0.0051 -0.1223  0.0763
18769W        W61822  19.071  31.808   3.064  0.1528 -0.1974  0.2260
18770W        W61823  23.040  33.446   8.499 -0.0352  0.0387 -0.2713
18771W        W61824  28.839   8.223   4.663  0.1291  0.0074  0.0622
18772W        W61825  18.356  12.536  16.146 -0.1524 -0.0824 -0.0090
18773W        W61826  28.635  20.535  27.146  0.0069 -0.0877 -0.0405
18774W        W61827  11.912   2.711   9.025  0.1439 -0.2913  0.0034
18775W        W61828  20.613   7.162  26.601 -0.2887  0.1395  0.1015
18776W        W61829  16.849  29.927   0.562 -0.0328 -0.0331  0.1510
18777W        W61830  14.324   1.972  26.962 -0.0010 -0.0489 -0.3926
18778W        W61831   7.454   1.272  25.539 -0.1554  0.0501 -0.1155
18779W        W61832  19.626  33.508   9.413 -0.2558  0.1338 -0.0363
18780W        W61833  23.176  23.103   4.235  0.1325  0.2742 -0.1107
18781W        W61834   0.649  24.701   2.715 -0.2831  0.1030  0.2270
18782W        W61835  29.405  32.161  25.123 -0.2309  0.0992 -0.1076
18783W        W61836  16.862   8.810  27.399  0.1449 -0.2150 -0.0711
18784W        W61837  18.517  24.335  27.331  0.1580  0.2362 -0.0218
18785W        W61838   9.649   2.363   2.279 -0.1177 -0.0868  0.0325
18786W        W61839  19.179  12.129   9.293  0.1935  0.1080  0.0544
18787W        W61840  31.787   8.083  26.642 -0.1038 -0.0564 -0.4147
18788W        W61841  26.435   6.017  23.086 -0.1103  0.0041 -0.2442
18789W        W61842  24.753  30.747   6.621 -0.0268  0.0363 -0.3376
18790W        W61843  22.307   1.179  26.246 -0.0126  0.0886 -0.1143
18791W        W61844  21.229  25.965  10.296 -0.1741 -0.1198 -0.1250
18792W        W61845  18.332  30.881   8.655  0.0473  0.1545  0.0877
18793W        W61846   2.113  16.491  26.945 -0.1263  0.0866  0.0004
18794W        W61847  18.077  10.637   1.045  0.0705  0.2530  0.1234
18795W        W61848  17.108  28.017   7.104 -0.3195  0.0149 -0.0442
18796W        W61849  10.906   2.918  14.942 -0.1368 -0.1308 -0.0099
18797W        W61850  26.762  29.036   1.087 -0.0992  0.3651  0.2271
18798W        W61851  25.304  26.003   8.931  0.2875 -0.1139 -0.2310
18799W        W61852  14.157  22.964   8.390 -0.3080 -0.0260 -0.2186
18800W        W61853  33.556   5.267   0.420  0.0082 -0.0039  0.1014
18801W        W61854  28.152  30.487  20.657 -0.0703  0.1382 -0.1233
18802W        W61855  17.326  27.167   3.307 -0.1956 -0.0202  0.0468
18803W        W61856  21.560   2.616   1.787  0.2087  0.1737  0.2132
18804W        W61857  29.124  30.490   0.801 -0.0454 -0.1559 -0.1244
18805W        W61858   8.876  28.797   1.193  0.1070 -0.0454  0.3334
18806W        W61859  27.598  27.910   0.398  0.1035  0.0370  0.0084
18807W        W61860  18.668  30.110   3.171 -0.3685 -0.1711 -0.2044
18808W        W61861  29.722  18.610   1.588 -0.3141  0.0658  0.5064
18809W        W61862  23.761  16.157   1.040 -0.1092 -0.2070  0.0732
18810W        W61863  20.892   2.875   8.086 -0.2490  0.1337 -0.0888
18811W        W61864  31.498   5.544   3.579 -0.1370 -0.4464 -0.1079
18812W        W61865  24.726   0.606   2.225 -0.0047 -0.1029  0.1092
18813W        W61866  24.290  30.542   2.782  0.1671 -0.0677  0.0723
18814W        W61867  21.137  18.862   3.565 -0.2338 -0.1817  0.1811
18815W        W61868  32.924   9.812  23.489 -0.1599 -0.0800 -0.0183
18816W        W61869  26.655  22.498  29.124  0.0705  0.0351  0.1133
18817W        W61870  29.080  24.390   5.270 -0.0217  0.0864  0.0750
18818W        W61871  26.469  18.479  23.866 -0.1189  0.1185  0.0417
18819W        W61872  24.289  22.606   1.810  0.0731 -0.1145 -0.2313
18820W        W61873  21.066  10.377   3.268  0.1006  0.0791  0.1982
18821W        W61874  20.486   3.986  10.476 -0.0239 -0.3061 -0.0907
18822W        W61875   3.401  13.057   8.297 -0.2170 -0.0043 -0.3508
18823W        W61876  10.092  19.546   4.262 -0.0098  0.0094  0.1488
18824W        W61877  21.016  25.287  11.399  0.0230  0.1667 -0.0807
18825W        W61878   3.664   4.648  25.577 -0.3044  0.0922  0.0213
18826W        W61879  16.986  18.999   6.631  0.2967 -0.0978 -0.0378
18827W        W61880  16.067  15.440  27.598 -0.0250 -0.0013  0.3047
18828W        W61881  14.474   4.630   6.270 -0.0844 -0.1329 -0.0262
18829W        W61882  19.955   0.754  23.455 -0.1543  0.1438  0.0178
18830W        W61883  20.931  33.381  10.189 -0.1198  0.2804 -0.2537
18831W        W61884  27.012   6.633   8.316  0.1253  0.1174  0.0685
18832W        W61885  15.793   6.521   2.659 -0.2613 -0.2460  0.2120
18833W        W61886   4.990  21.876  23.067 -0.2557  0.4147 -0.0629
18834W        W61887  19.828  29.123   4.468 -0.0252  0.2718  0.1872
18835W        W61888  25.385  32.600   7.565 -0.1867 -0.0127 -0.0219
18836W        W61889  27.437  32.645  15.926  0.3339  0.1957 -0.0536
18837W        W61890   5.178  20.740  15.985 -0.1446  0.1377 -0.0753
18838W        W61891  20.720   0.504   9.987  0.2064 -0.2193 -0.2331
18839W        W61892   3.899  18.589   1.364  0.2377 -0.0688  0.0799
18840W        W61893  20.535   7.420   9.945 -0.0222  0.2241  0.0118
18841W        W61894  23.264   8.550  20.644 -0.1287 -0.0003 -0.0064
18842W        W61895  19.892  23.336  27.997 -0.0655 -0.1457 -0.0172
18843W        W61896  25.646  22.873   6.790  0.0432  0.2306 -0.0555
18844W        W61897   9.915   7.594  27.467 -0.0136  0.0611  0.1656
18845W        W61898  33.482  26.485  27.672  0.0766 -0.0632  0.0016
18846W        W61899  22.680   2.986  26.902  0.2418 -0.3454 -0.3440
18847W        W61900  20.392  34.146  27.754  0.0201 -0.2281 -0.0176
18848W        W61901  34.558   7.983   5.613 -0.1477 -0.1692 -0.0177
18849W        W61902  22.413   3.501   7.840 -0.0503 -0.0402  0.0316
18850W        W61903  22.141  30.275   7.209 -0.1605  0.0187 -0.0722
18851W        W61904  25.125  33.262   0.446  0.0185 -0.3246 -0.1436
18852W        W61905  17.315   2.019   9.628  0.1845 -0.1574 -0.0363
18853W        W61906   2.433  21.875  26.891 -0.3445 -0.1138 -0.0951
18854W        W61907  32.704  30.664   5.077  0.0597 -0.0288  0.0328
18855W        W61908  20.266   1.587   7.784  0.0337 -0.4557 -0.0171
18856W        W61909  11.658   0.455  15.557 -0.0071  0.2204  0.5371
18857W        W61910  18.221  30.094  22.394 -0.0693 -0.0452 -0.0629
18858W        W61911  12.735  24.166  20.482  0.1194  0.1389 -0.0437
18859W        W61912   0.100  16.306   0.051  0.1517  0.0722 -0.2353
18860W        W61913   5.956  26.332  27.924  0.2620  0.3402  0.2733
18861W        W61914  31.261  33.892  26.151  0.0482  0.1269 -0.0132
18862W        W61915  14.829  24.459  27.528  0.0227 -0.1774 -0.1323
18863W        W61916  25.406   3.797  10.062  0.0068  0.2072  0.1120
18864W        W61917  30.464  13.087   3.470 -0.1994 -0.0221 -0.1314
18865W        W61918  30.298   7.313  18.492 -0.2117 -0.1566  0.1249
18866W        W61919  31.772  25.891   5.263  0.2841  0.1322  0.0307
18867W        W61920  30.103   2.354  25.274  0.0662 -0.0063  0.0358
18868W        W61921  17.921  13.685   6.063  0.0580  0.0121 -0.2955
18869W        W61922  32.945  32.340   7.848  0.1326 -0.0102  0.0313
18870W        W61923  11.806  26.135   8.134 -0.0040  0.0958 -0.0897
18871W        W61924   3.340  31.910   1.629  0.4565  0.2175 -0.0020
18872W        W61925  33.279   9.240   8.196  0.0347 -0.1302  0.1625
18873W        W61926  14.165  24.036  17.722  0.0914  0.3026  0.1576
18874W        W61927  34.380   6.241   8.124  0.0654  0.2690  0.0568
18875W        W61928  15.305  18.372   5.241  0.1093  0.1335 -0.3051
18876W        W61929  22.916  31.002  23.209  0.0385  0.1239  0.0387
18877W        W61930  10.097  33.463   9.013 -0.2886 -0.1703  0.1176
18878W        W61931  14.420  24.064   8.072  0.1388  0.2379 -0.2151
18879W        W61932  25.925   9.802  24.002 -0.0229  0.1017  0.1108
18880W        W61933  23.394   0.825  28.022 -0.2068 -0.1416 -0.2924
18881W        W61934  19.036  27.639   1.365 -0.0156 -0.1139 -0.0157
18882W        W61935  22.517  10.789   9.254 -0.3197 -0.2934 -0.0345
18883W        W61936  14.347  33.726   5.212  0.1559  0.2418 -0.0087
18884W        W61937  13.989  25.257   7.732  0.0027 -0.3166 -0.1749
18885W        W61938  15.276  19.190  22.175 -0.0634 -0.0908  0.0683
18886W        W61939   9.887  20.714   4.935  0.2407 -0.1905 -0.1920
18887W        W61940   1.999  20.371   9.217 -0.0469  0.1133  0.3732
18888W        W61941  20.181  21.259   6.906 -0.1179  0.0821  0.0855
18889W        W61942  28.717  30.434   8.694  0.0094  0.2030 -0.1386
18890W        W61943  11.896  11.490   9.658 -0.2551  0.0189 -0.0319
18891W        W61944  31.311   9.560  23.781  0.3820 -0.1837 -0.0347
18892W        W61945   9.868  32.224   4.267 -0.2204 -0.0324 -0.2142
18893W        W61946  19.857   4.228   4.681  0.0565 -0.2286 -0.0556
18894W        W61947  20.001  23.940   7.287  0.0201 -0.1234  0.1495
18895W        W61948  25.209  30.272  27.215  0.0398  0.2859  0.3936
18896W        W61949  11.024   1.691   8.429  0.0453  0.0160  0.0136
18897W        W61950  28.801  28.655   4.778  0.3859  0.0563  0.0994
18898W        W61951  11.354  28.860   0.899 -0.3171  0.4454 -0.2688
18899W        W61952  20.162   3.485  27.028  0.1788  0.1712  0.3273
18900W        W61953  21.899   0.715  10.646 -0.0691 -0.3471  0.0216
18901W        W61954  11.966  11.640  21.677 -0.0997 -0.1353 -0.1345
18902W        W61955   7.401  26.446   2.363 -0.0846  0.2546 -0.0566
18903W        W61956  25.828   2.913   3.635 -0.1668  0.0213  0.1863
18904W        W61957  16.542  22.075  21.660  0.1825 -0.2583  0.0241
18905W        W61958  12.285  34.625   2.800 -0.3562 -0.0365  0.0058
18906W        W61959   0.743   3.923   2.893 -0.1276  0.0636 -0.0266
18907W        W61960  28.052   5.323   2.081 -0.0087 -0.0153  0.0073
18908W        W61961  27.339  26.771   7.737 -0.0966 -0.0285 -0.1597
18909W        W61962  18.056   7.036  10.523 -0.1667 -0.0463 -0.2556
18910W        W61963  14.438  19.260   4.362  0.0885 -0.2986  0.2254
18911W        W61964  20.184  20.493   1.731  0.2591  0.0274  0.1320
18912W        W61965   4.249  24.369   6.731 -0.1119  0.0501 -0.0426
18913W        W61966  25.209   0.008   4.920  0.1319 -0.6311 -0.2803
18914W        W61967  17.906  14.831  28.989 -0.1198 -0.2068  0.1257
18915W        W61968  20.374  34.201   3.340 -0.1137  0.1206 -0.0843
18916W        W61969  23.750   8.922   4.301 -0.1109  0.0687 -0.5729
18917W        W61970  12.642  29.126   4.951 -0.3629 -0.0478 -0.1504
18918W        W61971   7.750   5.660  20.680  0.0445 -0.0108 -0.0926
18919W        W61972   5.514  26.294  19.478 -0.1860 -0.2476 -0.1402
18920W        W61973  26.593   8.819   6.808 -0.0029 -0.3079 -0.0137
18921W        W61974  10.627  21.326   7.269  0.1858  0.1775  0.1283
18922W        W61975  20.190  31.203   3.138 -0.0454 -0.1390 -0.0725
18923W        W61976  20.433   8.349   6.311  0.0030  0.0848  0.3223
18924W        W61977  24.695   6.295   3.377 -0.0376  0.2467  0.0479
18925W        W61978  23.780  33.309   4.169 -0.1459 -0.0548 -0.1231
18926W        W61979  22.280   0.170  24.210  0.1659 -0.2239  0.2984
18927W        W61980  27.026  16.012   4.565 -0.4705 -0.1743  0.2541
18928W        W61981  21.694  24.121   0.597 -0.1969  0.1340  0.0753
18929W        W61982   5.431  28.025   2.688  0.1908  0.1087 -0.2015
18930W        W61983  30.446   3.714  25.721  0.4395  0.0280 -0.0502
18931W        W61984   3.639  33.332   2.658 -0.4596 -0.3283  0.0053
18932W        W61985  12.493   6.909   9.342  0.0980  0.1037  0.1439
18933W        W61986   1.670   4.574  10.005 -0.0029  0.1532 -0.0837
18934W        W61987  22.903  25.466  26.739 -0.1141  0.2151 -0.1898
18935W        W61988  24.556   8.466  22.300  0.0761 -0.3360 -0.0640
18936W        W61989  14.059   4.840   4.126  0.1258 -0.0277 -0.0757
18937W        W61990   9.184  25.886   4.662 -0.2060  0.1424 -0.0961
18938W        W61991  16.123  33.462   7.396  0.0797  0.0561 -0.0415
18939W        W61992  22.845  34.120   5.811 -0.1570 -0.2507 -0.0257
18940W        W61993  21.999  24.850  10.629  0.0019 -0.2696 -0.3530
18941W        W61994  18.479  19.759   4.522  0.2292 -0.3071  0.1758
18942W        W61995  11.816   8.942   8.061 -0.2850  0.2960  0.1316
18943W        W61996  12.744   9.534  27.069 -0.4042 -0.3199  0.4236
18944W        W61997   8.215  27.182   3.379 -0.1980  0.2470 -0.0231
18945W        W61998  10.085   3.108  25.715 -0.3655 -0.0566 -0.1207
18946W        W61999  19.619  28.415   9.063 -0.2219  0.4617 -0.2499
18947W        W62000   5.311  31.853   3.653 -0.0092  0.0749 -0.1249
18948W        W62001  28.617  32.338  24.758 -0.0084  0.0609  0.0537
18949W        W62002  12.952   8.310  15.635  0.1694  0.0526 -0.3533
18950W        W62003  32.519  27.607   1.719  0.5207 -0.1119  0.0105
18951W        W62004  26.993   8.119   5.332 -0.2393 -0.0978  0.1800
18952W        W62005  15.761  23.731   3.451 -0.1742 -0.1340 -0.0102
18953W        W62006  22.687  24.457   3.422 -0.0048 -0.0569 -0.0034
18954W        W62007  15.714   7.122   9.997 -0.0009 -0.1560  0.1458
18955W        W62008  29.228  11.766   4.700  0.1207  0.1655 -0.1800
18956W        W62009  12.272  25.482   5.544  0.3256 -0.1431 -0.0762
18957W        W62010   4.917  30.695  20.288  0.0561 -0.1644 -0.0542
18958W        W62011   8.235   9.037   8.433 -0.0659  0.2801 -0.0917
18959W        W62012  16.448   4.777   8.361  0.1428  0.1074  0.0708
18960W        W62013  20.307  31.195   1.357  0.2288 -0.0512 -0.1680
18961W        W62014  20.735  34.465   1.958  0.0489  0.0273  0.0490
18962W        W62015  27.160  33.599   1.517  0.1015  0.1426  0.0905
18963W        W62016  24.699  11.665   8.284 -0.1328  0.1217 -0.2940
18964W        W62017  10.369  21.784   6.984 -0.1388 -0.1873 -0.2659
18965W        W62018  33.552  28.036  27.291 -0.1228 -0.0733 -0.1339
18966W        W62019  31.016  24.319   0.092  0.0697 -0.4325 -0.1166
18967W        W62020   7.919  31.172   3.840 -0.4024 -0.0896  0.1468
18968W        W62021  10.269  14.772  28.181 -0.1979  0.3393 -0.3166
18969W        W62022  10.774   0.133   2.762  0.1470  0.2366  0.0071
18970W        W62023  30.942   1.065   1.882 -0.1243  0.0857 -0.2074
18971W        W62024  13.984  16.453   2.182 -0.0305  0.1873  0.1450
18972W        W62025   7.121  26.174   2.695  0.1122 -0.2079 -0.2269
18973W        W62026  25.374  33.838  26.367  0.1637 -0.2328 -0.0731
18974W        W62027  26.479  33.577   4.024  0.1605  0.0725 -0.0823
18975W        W62028  13.229   8.267   7.636  0.0514  0.3786 -0.2758
18976W        W62029  31.561   9.844  25.558  0.1921 -0.0031  0.2629
18977W        W62030  10.922   5.961   5.013 -0.1222 -0.1734 -0.2939
18978W        W62031  23.327   3.406   4.653 -0.1434 -0.0812 -0.2062
18979W        W62032  29.745  15.214   2.919 -0.2019  0.2267 -0.0132
18980W        W62033  31.830   0.157   9.277  0.0746  0.2771  0.3130
18981W        W62034  15.597   6.208   7.706 -0.2303 -0.3980 -0.3607
18982W        W62035  25.374  33.241   9.913  0.1154 -0.1291 -0.4706
18983W        W62036  15.389  15.968   7.393 -0.0873 -0.0856  0.1402
18984W        W62037  23.042   4.114   6.338  0.0928 -0.0973 -0.2428
18985W        W62038  17.016  18.973   1.748  0.0625  0.0807 -0.2842
18986W        W62039  29.621  20.597   4.290  0.2308  0.1014 -0.0727
18987W        W62040  20.089   6.276   5.975 -0.3150  0.0320  0.2581
18988W        W62041   0.516   0.598   7.916  0.2848  0.1759  0.0022
18989W        W62042  25.495   1.209   3.416  0.3056  0.0720  0.1078
18990W        W62043  15.571   3.238   8.397  0.3994 -0.1886 -0.1422
18991W        W62044  16.350   2.533   0.403 -0.1836  0.0874 -0.0085
18992W        W62045  30.006  29.535   8.146 -0.0971 -0.1758 -0.2813
18993W        W62046  29.386  31.737   0.404 -0.0723  0.6413  0.1908
18994W        W62047  17.587  23.238   4.482  0.0367  0.1344 -0.1766
18995W        W62048  31.281   7.033   3.075 -0.0901 -0.1235 -0.3061
18996W        W62049  12.202  17.438  15.385 -0.1527 -0.2936 -0.1178
18997W        W62050  19.894   1.763   8.858 -0.1639  0.3080 -0.0080
18998W        W62051  14.267  20.278   7.383  0.2761 -0.0653 -0.2648
18999W        W62052  15.606  11.600  23.988  0.0725  0.1161 -0.2643
19000W        W62053  17.567   9.769   8.592 -0.0695  0.0557 -0.1127
19001W        W62054  15.968   6.989  10.542  0.1209 -0.1470 -0.1834
19002W        W62055  13.848   0.759   5.358  0.1380  0.1984  0.1671
19003W        W62056  21.200   1.236   7.065 -0.0749  0.0987 -0.2446
19004W        W62057  15.066  33.482  10.162  0.2301 -0.1367  0.2181
19005W        W62058  32.827  29.413   9.151 -0.2344 -0.0785 -0.2644
19006W        W62059   2.302  31.916  20.137 -0.0969 -0.2635  0.0294
19007W        W62060  33.355  29.811   1.307  0.2676  0.1898 -0.0086
19008W        W62061  26.311  32.355  25.293  0.1178  0.0035  0.1713
19009W        W62062  19.521  29.681  10.659 -0.0430  0.0651 -0.1224
19010W        W62063  14.860  33.857   6.080 -0.1333 -0.1023 -0.0807
19011W        W62064  31.339   4.190   1.074  0.0223  0.0596  0.1764
19012W        W62065  23.406   0.301   7.409  0.0358 -0.0201  0.2418
19013W        W62066  23.392   1.991   6.477  0.0072  0.0005 -0.2301
19014W        W62067  21.961  13.724   6.837  0.2613 -0.1264 -0.3551
19015W        W62068   8.684  26.621  22.307 -0.1211  0.2158 -0.1093
19016W        W62069  17.030  25.159  25.703  0.0343 -0.2720  0.0862
19017W        W62070  10.371  16.955   6.783 -0.1566 -0.1031 -0.1762
19018W        W62071  18.761  23.056   2.463 -0.1644 -0.2650 -0.1288
19019W        W62072  14.447  15.295  26.352  0.2035  0.3405 -0.4764
19020W        W62073  21.596  33.601  25.143 -0.0147 -0.0526 -0.3164
19021W        W62074  19.851   3.225   9.074  0.1171  0.1970  0.0623
19022W        W62075  31.263  23.402   5.632  0.1084  0.0729  0.2573
19023W        W62076  26.658  34.636   6.489 -0.1078  0.0017 -0.2298
19024W        W62077  25.528   5.217   8.533  0.3059  0.1480 -0.2273
19025W        W62078  22.021   6.113  26.547  0.0495  0.0919  0.1801
19026W        W62079  11.964  10.765   3.116 -0.2413 -0.1104 -0.1633
19027W        W62080  31.896  34.613   3.844 -0.1850  0.2389 -0.3742
19028W        W62081  32.162  12.468  19.854 -0.1126 -0.1777  0.0632
19029W        W62082  18.333   6.589   6.470 -0.0984  0.4153  0.2124
19030W        W62083  24.469  12.945   0.105 -0.1165 -0.0836 -0.2225
19031W        W62084  11.813   4.693   5.360 -0.1590  0.3237  0.3713
19032W        W62085  33.674   1.334  28.066  0.0566 -0.0190 -0.0393
19033W        W62086  32.109   0.915   6.157  0.2407  0.0136  0.2606
19034W        W62087  25.876  32.944   4.446  0.0452 -0.0775  0.0191
19035W        W62088  16.786  29.051   8.875 -0.1243  0.0441 -0.3446
19036W        W62089  22.350  30.422  21.138 -0.1578  0.1335  0.0431
19037W        W62090  24.820  20.777   1.676  0.0733  0.0444  0.1511
19038W        W62091  11.580   9.478   8.912 -0.0818 -0.3469 -0.0739
19039W        W62092   0.481  34.616  24.114  0.2815 -0.2614 -0.2483
19040W        W62093  25.178   5.580   6.993 -0.1562  0.1445 -0.0197
19041W        W62094   0.140   4.426   4.514  0.0494 -0.0066  0.2073
19042W        W62095  16.745  26.570  28.127 -0.0205 -0.1608  0.1548
19043W        W62096  10.980   0.390   8.616  0.2532  0.0450  0.0178
19044W        W62097  22.972   0.438   4.176  0.0979  0.2656 -0.3096
19045W        W62098  18.466   1.812  18.661  0.3050 -0.0601 -0.0348
19046W        W62099  26.982  10.947   7.106  0.3715  0.4028 -0.0943
19047W        W62100  19.477  28.380  10.486  0.0883 -0.0012  0.2249
19048W        W62101  25.088   3.254   6.381  0.2191 -0.2317  0.0658
19049W        W62102  20.480  14.179  14.939 -0.1245  0.2785  0.0994
19050W        W62103  29.347  10.577  23.054  0.1147  0.1788 -0.0622
19051W        W62104   0.495   2.490   1.138  0.0165 -0.1393  0.0641
19052W        W62105  13.627  11.045  22.435  0.5400  0.1810  0.0645
19053W        W62106  22.319  29.094   4.805 -0.1738  0.0464  0.1255
19054W        W62107  26.053   3.930   5.167  0.1284  0.0599 -0.0074
19055W        W62108  15.042  29.618  28.514  0.1547 -0.1043 -0.2618
19056W        W62109  20.985  31.342  24.794 -0.0372  0.1622 -0.1483
19057W        W62110  17.078  33.655  21.482 -0.0783  0.1148  0.0511
19058W        W62111  28.084   3.408   6.544  0.0658 -0.3048 -0.1465
19059W        W62112  16.234   9.021   9.600  0.0414 -0.2424  0.1264
19060W        W62113  26.827  22.924   7.386  0.0026  0.1187  0.0029
19061W        W62114  32.406  24.542  28.058 -0.3701 -0.0266  0.3739
19062W        W62115   8.010   1.088  22.071  0.1345 -0.0161 -0.1303
19063W        W62116   8.081   6.005   3.613  0.0946  0.0431  0.3839
19064W        W62117  24.518  24.431  24.642  0.0897  0.0248 -0.4789
19065W        W62118   4.046  16.261   5.037 -0.0806  0.2156 -0.0672
19066W        W62119   7.774   6.694   9.246  0.3494 -0.1889  0.0508
19067W        W62120  21.159  28.931   3.427  0.3369 -0.1021  0.1530
19068W        W62121  16.603   0.333  19.717  0.0491 -0.1627 -0.0389
19069W        W62122  28.182  32.904   4.296  0.1011 -0.1005 -0.2330
19070W        W62123  10.795  31.398  26.546 -0.4099 -0.1830  0.2307
19071W        W62124   9.315  10.168   5.448  0.1033 -0.0471 -0.2830
19072W        W62125   6.774   1.220  26.701 -0.1143  0.2539  0.0052
19073W        W62126  18.417  30.366  24.301  0.0654  0.1698 -0.1632
19074W        W62127  22.559  11.693  17.244  0.1080  0.1806 -0.0294
19075W        W62128  11.106  19.740  20.631 -0.1198  0.0866  0.0225
19076W        W62129  32.824   4.622   5.888 -0.2962  0.0604 -0.2574
19077W        W62130  31.199   2.856   4.446  0.0853 -0.0565  0.1690
19078W        W62131  20.948   9.344   6.732  0.2196  0.1536  0.0918
19079W        W62132  15.253  17.596   3.716 -0.3701 -0.0514  0.1405
19080W        W62133  21.750  10.421   9.782  0.2745 -0.4207 -0.0826
19081W        W62134  28.646  32.548   7.363  0.1072 -0.2833 -0.1382
19082W        W62135  32.210   1.402   0.786 -0.1939 -0.0554  0.0624
19083W        W62136   8.664   7.521   0.333 -0.1420  0.0758 -0.0301
19084W        W62137  21.065  25.317  19.201  0.1030  0.0207  0.1733
19085W        W62138   9.001   0.771  26.242 -0.2514 -0.5014  0.2259
19086W        W62139  20.910  29.166   7.693 -0.1553  0.1009  0.3016
19087W        W62140  22.659  15.528   4.095 -0.1075  0.1275 -0.0356
19088W        W62141  27.492   4.523  25.608 -0.1525 -0.3996  0.1545
19089W        W62142  14.038   5.258   6.795  0.1964  0.2734 -0.0957
19090W        W62143  22.162  23.458  17.114  0.0782  0.2739 -0.0325
19091W        W62144  10.850   2.925  26.266  0.1292 -0.3612  0.0811
19092W        W62145  23.311  21.816  25.988  0.3337  0.1765  0.0811
19093W        W62146  27.346  30.790   7.660 -0.2956  0.0402  0.1886
19094W        W62147   3.642   3.197  20.307  0.1062  0.1210 -0.1043
19095W        W62148  22.585  10.380  17.879  0.2262 -0.1961 -0.1489
19096W        W62149   2.216  34.516  27.660 -0.2024  0.0253  0.2510
19097W        W62150  30.911  28.867  21.952  0.0611 -0.4562  0.1394
19098W        W62151  19.532  30.861  28.890  0.0818  0.0708 -0.2303
19099W        W62152  31.512  34.019  18.493 -0.1231  0.1744 -0.2628
19100W        W62153  19.879   1.709   9.914  0.2195  0.0834  0.0779
19101W        W62154  20.682   3.033   6.598  0.0637 -0.1825 -0.0825
19102W        W62155   2.397  22.403   4.890  0.1524  0.0449 -0.2552
19103W        W62156  20.182  10.164  28.917  0.2360  0.1261 -0.1757
19104W        W62157   5.438  30.966  25.001  0.0510 -0.1534 -0.3606
19105W        W62158  23.150  15.815   9.286 -0.0242  0.0482 -0.0067
19106W        W62159   2.038  24.886   4.877  0.1103  0.0148  0.3064
19107W        W62160  28.174  10.409  24.408  0.1067  0.1821  0.1870
19108W        W62161  31.843   4.145  18.161 -0.4284  0.4446  0.0645
19109W        W62162  21.726   0.507  15.736 -0.1706  0.1523  0.0402
19110W        W62163  31.734  20.201  22.944 -0.1270 -0.1912  0.2610
19111W        W62164  19.562  11.400   9.804  0.1189 -0.4169 -0.1804
19112W        W62165  20.031  15.239  15.763 -0.2552  0.2363 -0.2038
19113W        W62166  14.615  19.234   1.817  0.2178 -0.0909  0.0913
19114W        W62167  22.292   8.671  15.900 -0.0008 -0.0535 -0.2761
19115W        W62168  24.309   7.052   6.962 -0.0930  0.0395 -0.1695
19116W        W62169   6.285  18.186   7.548 -0.1407 -0.0637  0.0624
19117W        W62170   8.403  13.366   4.853  0.2344 -0.0102 -0.1542
19118W        W62171  15.696  12.160  23.979 -0.2174 -0.0633 -0.1016
19119W        W62172  25.082   3.858  29.191 -0.1940 -0.0408  0.3677
19120W        W62173  20.722   7.573   8.911  0.1239 -0.0945  0.0858
19121W        W62174  19.470  14.039  25.978 -0.1777  0.1135  0.0322
19122W        W62175  30.797   0.047  26.690  0.1406 -0.1371  0.0571
19123W        W62176  25.420   7.779  25.099 -0.0426 -0.0549  0.0814
19124W        W62177  32.566   3.657   1.582 -0.0541 -0.0088  0.0660
19125W        W62178  29.957  27.768  13.649  0.0642 -0.0096 -0.2447
19126W        W62179  12.852  22.543  27.721 -0.2213  0.0964  0.1629
19127W        W62180   7.302   7.862  27.180 -0.1682 -0.1381  0.1313
19128W        W62181  15.185  22.756   2.602  0.0704 -0.3758  0.2519
19129W        W62182   3.268  17.180   7.782 -0.0279  0.1520  0.1085
19130W        W62183  16.291   5.985   8.187 -0.0753  0.0028  0.3485
19131W        W62184  10.583   0.203   8.836  0.0257  0.4030 -0.0086
19132W        W62185  17.236  28.621  29.019  0.1527  0.1756 -0.2729
19133W        W62186  19.644  24.218  16.426 -0.0057 -0.0404 -0.0649
19134W        W62187  20.981   3.035   2.291  0.1251 -0.2707  0.1554
19135W        W62188  14.738  22.561   3.560 -0.2078 -0.2895 -0.1302
19136W        W62189  19.025  10.124   2.050  0.2884  0.1095  0.2856
19137W        W62190  31.618   1.571   5.682  0.3670  0.0976  0.2939
19138W        W62191   2.355   9.673  23.878 -0.0931  0.0760 -0.1958
19139W        W62192   6.928  19.499  16.418  0.0290 -0.4845 -0.0917
19140W        W62193  28.500  15.917   5.429 -0.3409 -0.1074 -0.0244
19141W        W62194  25.071  34.271   9.913 -0.0652  0.2091  0.1506
19142W        W62195  22.486   9.011   8.922 -0.1605  0.0935 -0.0490
19143W        W62196  23.200  17.497   1.730 -0.0609 -0.0195  0.0878
19144W        W62197   5.384   4.969   1.816 -0.0619  0.1097 -0.1168
19145W        W62198  24.747  31.823  20.347 -0.0624  0.0571 -0.3099
19146W        W62199  30.360   0.902   2.543  0.0839  0.2753 -0.2279
19147W        W62200  34.471   9.688   1.412  0.1159  0.3195  0.1833
19148W        W62201  10.173   3.522   5.013  0.2303  0.0812 -0.0684
19149W        W62202  14.283   0.085   2.186 -0.3460  0.0363 -0.2206
19150W        W62203  11.691   4.742   5.902  0.1224 -0.2077  0.0592
19151W        W62204  33.952   5.082   9.402 -0.1434  0.1568 -0.1888
19152W        W62205  23.234  17.592  20.206  0.2228  0.2242 -0.3836
19153W        W62206  24.326   4.615   5.253 -0.0545 -0.0176 -0.1435
19154W        W62207  27.523   8.188   5.548 -0.2066 -0.3634 -0.1469
19155W        W62208   7.110  33.947   3.451 -0.0070 -0.0125 -0.0547
19156W        W62209  25.735  19.775   7.678 -0.0588 -0.1536  0.0676
19157W        W62210  12.841   1.874  17.062 -0.0073 -0.2528 -0.2320
19158W        W62211  34.497   9.549  24.478  0.0729  0.1609  0.0667
19159W        W62212  24.228  14.174  22.387  0.0390 -0.3841  0.1832
19160W        W62213  13.440  26.595   8.339 -0.0607 -0.0096  0.2401
19161W        W62214  20.525  18.905  28.895  0.2623 -0.2306  0.1298
19162W        W62215  23.461  33.745   4.292 -0.0117  0.3734 -0.1427
19163W        W62216  25.304   4.253  22.147 -0.0663  0.1933  0.0447
19164W        W62217  21.980   4.763  20.182 -0.2437 -0.3060  0.0664
19165W        W62218   8.564  29.954   4.800  0.0021 -0.1856 -0.0770
19166W        W62219  25.115   0.035  27.435 -0.0597  0.0830  0.1788
19167W        W62220  32.386   6.803   9.454 -0.0786  0.0866 -0.0795
19168W        W62221   1.806   9.181   8.479 -0.0812  0.0059  0.0145
19169W        W62222  20.668   2.656  14.422  0.0637  0.1045  0.1203
19170W        W62223  19.914   4.197   9.345 -0.1242 -0.2997  0.4500
19171W        W62224  27.490  15.150   1.508 -0.1064 -0.4742 -0.2501
19172W        W62225  19.915  24.437  18.121  0.1278 -0.4683  0.1609
19173W        W62226  29.549   1.323  22.823  0.0871 -0.0604  0.1044
19174W        W62227  25.260   8.680   0.753 -0.0276 -0.2801  0.2653
19175W        W62228  12.187  33.744   2.168 -0.4101  0.1185  0.1020
19176W        W62229  33.912  31.421  22.492  0.2758  0.0763 -0.1505
19177W        W62230  33.989   6.709   0.784  0.1137 -0.0209  0.0211
19178W        W62231  11.465   2.066   3.693  0.0807 -0.0942  0.1008
19179W        W62232  11.672   6.042  22.916  0.0082  0.0808  0.1071
19180W        W62233  33.579  34.370   5.421  0.0495  0.1909  0.0631
19181W        W62234  26.093  34.427   4.804 -0.0936 -0.1163  0.2631
19182W        W62235   9.066   5.631   2.619  0.3973 -0.2857  0.3477
19183W        W62236   3.547  19.082  29.061  0.2217  0.0052  0.1773
19184W        W62237  24.712  17.086   7.190  0.3379 -0.1292  0.0349
19185W        W62238  12.464  22.792  24.088 -0.0659  0.1149 -0.1874
19186W        W62239   2.935  11.957  20.087 -0.1971 -0.0771  0.1226
19187W        W62240  23.983  16.376   6.106  0.1989 -0.1739  0.0270
19188W        W62241  32.097  34.037   6.375  0.0406 -0.3864 -0.2123
19189W        W62242  34.141   8.958  10.081 -0.1722  0.2390 -0.2544
19190W        W62243  20.762  21.583   0.684 -0.0543 -0.1377 -0.1742
19191W        W62244   0.756   4.848   1.720  0.0105 -0.1819 -0.1235
19192W        W62245  34.610  29.374  24.498  0.0540 -0.0897 -0.1169
19193W        W62246  12.809   9.206  18.360 -0.0909 -0.1501  0.1408
19194W        W62247  15.128  28.370  14.163  0.4265 -0.2466  0.1413
19195W        W62248  24.863   3.729  10.123 -0.0498 -0.1021 -0.2029
19196W        W62249  21.844  12.109   9.085  0.2188  0.3609  0.0518
19197W        W62250  29.460   6.988  29.114 -0.1672  0.1285  0.2046
19198W        W62251   1.903  30.263   6.937  0.1950 -0.1940 -0.1456
19199W        W62252  26.746  14.703  26.059  0.2012 -0.0806 -0.0147
19200W        W62253  25.900  31.414   2.911 -0.1443 -0.1269  0.0467
19201W        W62254  34.458   3.845   9.806 -0.0170  0.0430  0.0717
19202W        W62255  24.912  10.928   8.821  0.1923 -0.2661 -0.1955
19203W        W62256  28.964  31.997  24.794 -0.1073  0.2458  0.2055
19204W        W62257  27.887  10.915  18.261 -0.3649  0.0891 -0.1388
19205W        W62258  29.676  31.105  18.656 -0.0989 -0.3405  0.1004
19206W        W62259  31.714  31.352   8.529  0.0932 -0.0369 -0.1546
19207W        W62260  18.418  17.225  27.174 -0.2845 -0.3777  0.2043
19208W        W62261  13.877  10.985   4.101  0.1637  0.0787 -0.1110
19209W        W62262  28.256   1.519  22.120  0.1136  0.0128  0.1135
19210W        W62263  15.161  30.683   3.113  0.0751  0.1372 -0.2205
19211W        W62264   1.345  22.502   0.212  0.0033 -0.3595 -0.1131
19212W        W62265  24.542  32.195   4.323 -0.1299 -0.2455 -0.2460
19213W        W62266   7.023  32.600  24.089 -0.1710  0.1266 -0.1589
19214W        W62267  10.268  29.310  22.957 -0.1381 -0.0886 -0.0994
19215W        W62268  23.920  13.748   0.553  0.1485  0.2621 -0.2265
19216W        W62269  27.906  33.696   6.385  0.2147  0.2052 -0.0610
19217W        W62270  25.366  30.933   9.301 -0.0400  0.1251 -0.3369
19218W        W62271  19.232  30.627  27.173 -0.1474 -0.2470  0.0395
19219W        W62272  29.911  10.172  16.063  0.1140 -0.0042  0.1745
19220W        W62273  15.907  20.739  21.162  0.0273 -0.0185 -0.2335
19221W        W62274  26.799  28.538  27.759  0.1752 -0.0563 -0.0265
19222W        W62275  22.246  23.223  18.015  0.2863 -0.3454 -0.1917
19223W        W62276  26.399   0.846  17.372 -0.1196 -0.3413 -0.0618
19224W        W62277  31.097  34.084   3.099  0.0413  0.2418  0.1912
19225W        W62278  18.152  12.609  13.667 -0.1716  0.4313  0.0716
19226W        W62279  16.364  32.615   9.273  0.1339  0.1666  0.0816
19227W        W62280  28.861   4.895   8.969  0.0804  0.3831 -0.1397
19228W        W62281  26.755  10.275   3.443 -0.3163 -0.0818 -0.2067
19229W        W62282  18.775  13.798   5.570  0.0463 -0.4418  0.0421
19230W        W62283  15.482   8.950   4.471 -0.0346  0.1789 -0.0215
19231W        W62284  12.334  30.054   3.885  0.0202  0.0616 -0.2393
19232W        W62285   8.938   8.950   4.557  0.1313 -0.0585 -0.3423
19233W        W62286   9.767   9.222   0.468  0.1014  0.0052 -0.3308
19234W        W62287  25.028  32.216  21.583 -0.1145 -0.1432 -0.2521
19235W        W62288  23.318  26.116  25.732  0.0212 -0.0682  0.0020
19236W        W62289   7.628  29.431   7.560  0.2034  0.4082 -0.0271
19237W        W62290  31.274   2.692   5.214 -0.3337 -0.2394 -0.0746
19238W        W62291  15.221   0.257  27.775  0.0080  0.0966 -0.1985
19239W        W62292  22.237  31.581   5.481 -0.1174 -0.2407 -0.2858
19240W        W62293  14.702  11.148   4.380 -0.0506 -0.0466 -0.1047
19241W        W62294  15.444  15.754   6.446 -0.0949 -0.0583 -0.0223
19242W        W62295  19.325  30.446   2.847 -0.0593  0.1810 -0.1548
19243W        W62296  25.045   6.194  17.555 -0.2763  0.0064  0.1549
19244W        W62297  19.114  18.621   5.936  0.1060 -0.0477  0.0380
19245W        W62298  32.491   3.840  23.599 -0.0515  0.3034  0.2502
19246W        W62299  16.265  20.046   5.371 -0.0129 -0.0128  0.2184
19247W        W62300  15.906  22.167   4.027  0.0725  0.0674  0.3077
19248W        W62301  25.906   0.243  20.260  0.0845  0.0805  0.1029
19249W        W62302  30.640   4.632   4.003 -0.0609 -0.1000 -0.0544
19250W        W62303  11.846   1.614   9.004  0.2346  0.1027 -0.2320
19251W        W62304  26.614   0.971   6.822 -0.2202 -0.3489 -0.4854
19252W        W62305  10.377   2.171   9.403 -0.0485 -0.0851 -0.3435
19253W        W62306  25.474  17.550   9.601 -0.1066 -0.1715 -0.1910
19254W        W62307   1.913   2.968  18.730 -0.3540  0.2825  0.4193
19255W        W62308  25.245  33.518  21.853 -0.3360 -0.0925  0.2360
19256W        W62309  19.151  31.440  19.933  0.2526 -0.0943  0.0537
19257W        W62310  28.054   6.414   1.545  0.0152  0.1121 -0.0715
19258W        W62311  22.295   1.255   4.517 -0.1079  0.5463  0.3443
19259W        W62312  23.963   0.143   7.135  0.0340  0.0570  0.0077
19260W        W62313  22.042  28.687   8.279 -0.2559 -0.0384 -0.0904
19261W        W62314  23.786  11.965   7.818  0.1177 -0.2675 -0.0554
19262W        W62315  24.897   0.995   9.533 -0.3253  0.3389  0.2545
19263W        W62316  16.389  29.110   0.725  0.0692  0.0516 -0.0921
19264W        W62317  25.269  30.708   3.268  0.1001  0.1691  0.3336
19265W        W62318  23.866  10.276   9.277 -0.0799 -0.1132 -0.0138
19266W        W62319  34.203  33.996  21.834  0.2989  0.2236 -0.2132
19267W        W62320   2.761  11.333   7.096  0.3536 -0.0931 -0.3715
19268W        W62321  26.436   4.908  24.055  0.0118 -0.0632 -0.0910
19269W        W62322  22.142  22.169   7.519 -0.2587 -0.0988  0.1215
19270W        W62323  27.795  34.435  23.188  0.0650  0.3369 -0.1688
19271W        W62324  15.382  22.778  16.156 -0.3030 -0.4513  0.2159
19272W        W62325   7.750   9.118  27.317 -0.2838 -0.1536  0.1201
19273W        W62326  27.686   5.473   6.106 -0.2187  0.2931 -0.0096
19274W        W62327   8.499  24.164   1.905 -0.0161 -0.1829 -0.3717
19275W        W62328  22.176   8.907  10.479 -0.3634 -0.0941  0.2832
19276W        W62329  19.347   5.739   6.356  0.0518 -0.2478  0.0602
19277W        W62330  20.646  27.659   6.253 -0.0989  0.1641 -0.0892
19278W        W62331   7.044   0.187   3.522 -0.2578  0.3114  0.3661
19279W        W62332  30.733  17.604  20.895  0.2607  0.0241  0.1368
19280W        W62333  22.798  30.218   7.761  0.0181 -0.3553  0.0412
19281W        W62334  28.337  12.205  16.820 -0.0553 -0.2383 -0.5890
19282W        W62335  26.206  34.296  19.695 -0.1247 -0.0926 -0.0132
19283W        W62336  22.646  23.823   2.025 -0.0964  0.0005  0.0794
19284W        W62337  28.511  33.114   2.522  0.1384 -0.1431 -0.0090
19285W        W62338  18.056  13.697   1.782  0.2139  0.2587  0.4559
19286W        W62339  31.471  26.226   0.958  0.1431 -0.1780  0.0677
19287W        W62340  30.955   5.014   6.752  0.0614 -0.1570 -0.1964
19288W        W62341  25.588  34.054  28.332 -0.0249  0.2473  0.2350
19289W        W62342  15.295  34.117   8.832 -0.2340 -0.1248 -0.1189
19290W        W62343  22.741  33.615   2.910  0.2808  0.0918  0.0553
19291W        W62344  27.795  30.548   0.906 -0.0736 -0.1016  0.0060
19292W        W62345   4.526  31.553   4.870  0.0436 -0.0177  0.0328
19293W        W62346  26.867   4.982  28.961 -0.1479 -0.1017  0.3104
19294W        W62347  21.634  29.987   6.144 -0.2236  0.1939 -0.2921
19295W        W62348  23.495  31.624   1.807  0.1524 -0.1347 -0.0435
19296W        W62349  20.961  30.575   8.861  0.5072  0.2210  0.1679
19297W        W62350  32.611   3.417   9.646 -0.0758 -0.2419  0.1205
19298W        W62351  33.697   5.098   3.713  0.3274 -0.0085 -0.0873
19299W        W62352  25.216   1.048  27.900 -0.0830  0.1967  0.0196
19300W        W62353   0.768  29.207   0.992 -0.1294 -0.0511 -0.0595
19301W        W62354  10.031   5.551  23.632  0.1395  0.0013 -0.0325
19302W        W62355  29.767  28.636   5.694 -0.1350  0.2377 -0.4207
19303W        W62356  17.178  33.607   2.272 -0.1758  0.0020 -0.0320
19304W        W62357  18.515  31.043  10.681  0.2406  0.0872  0.0726
19305W        W62358  19.977   5.323  17.726 -0.0014  0.1933  0.0998
19306W        W62359  27.814  29.674   9.847 -0.3204  0.1071  0.0097
19307W        W62360  13.895  22.231   1.294  0.3145  0.0185  0.2113
19308W        W62361  19.517  27.776   1.188  0.3763  0.3694  0.0631
19309W        W62362  13.690  30.919  27.257  0.0794  0.0109  0.0929
19310W        W62363  15.725  30.433  19.247  0.0028  0.0884 -0.0630
19311W        W62364  30.643  33.667  20.213 -0.0673  0.1472  0.0220
19312W        W62365  20.082  17.357   3.392 -0.0741 -0.2527  0.2869
19313W        W62366  22.309  14.213  23.085 -0.2718  0.0455  0.1026
19314W        W62367  16.205  32.378  22.196 -0.2662  0.2274  0.1648
19315W        W62368   3.769  11.115  18.300 -0.0359 -0.1607 -0.0183
19316W        W62369  22.762  33.221  10.068  0.4395 -0.1627 -0.0083
19317W        W62370  26.707   2.877   3.346 -0.1578 -0.3258  0.0175
19318W        W62371  23.896  10.686  18.491 -0.1046  0.1820  0.4038
19319W        W62372  18.402   5.752  15.367  0.1170 -0.2208  0.0680
19320W        W62373  31.252   3.883  28.194  0.2102 -0.1237 -0.0986
19321W        W62374  30.729   0.262   4.539 -0.0418 -0.1446  0.2720
19322W        W62375  31.436  34.204  26.529  0.2156 -0.1405  0.1104
19323W        W62376  18.497  30.473  16.116  0.0064 -0.1296  0.1652
19324W        W62377  13.828   2.695  26.829  0.0278  0.1218  0.0752
19325W        W62378  26.760   8.871   3.994 -0.3568  0.0777 -0.1516
19326W        W62379  24.711  18.447   7.268 -0.1872  0.0574  0.2574
19327W        W62380  33.606  29.909  22.801  0.0413  0.0988 -0.2653
19328W        W62381  13.534  29.945  23.502 -0.1665 -0.1000  0.1394
19329W        W62382  18.166  34.083   7.924  0.0648  0.2151 -0.1967
19330W        W62383   7.610  15.657   9.439 -0.0699 -0.1251 -0.1931
19331W        W62384  29.617  12.262  23.744 -0.1005 -0.0395 -0.0425
19332W        W62385  24.911   2.397  22.234  0.2837  0.1314 -0.1814
19333W        W62386  32.912   6.816   6.628  0.0503 -0.1992 -0.0584
19334W        W62387  29.510  17.205  17.988  0.0533 -0.2365  0.0617
19335W        W62388  16.924  11.489  15.971  0.1783 -0.2709  0.0480
19336W        W62389   6.376  13.807  16.249 -0.0793  0.3372  0.0570
19337W        W62390  24.208  34.599   2.637  0.2436 -0.2916 -0.0069
19338W        W62391  29.696  23.438   7.001 -0.1060 -0.3099  0.3606
19339W        W62392  19.873   2.458   2.292 -0.2144  0.2930  0.4734
19340W        W62393   5.998  19.551  15.017  0.1520 -0.1853 -0.1726
19341W        W62394  11.355  27.717   2.187  0.2468 -0.2523  0.1778
19342W        W62395  32.555   3.838   5.391  0.2168 -0.0233 -0.1897
19343W        W62396  17.851  32.079  27.147 -0.2455 -0.4444 -0.0290
19344W        W62397  31.239  29.248   7.041 -0.0098 -0.1292  0.2331
19345W        W62398  30.634   0.499  27.431 -0.0011  0.0316 -0.1943
19346W        W62399  29.802  28.063   5.551 -0.1423 -0.3159 -0.0643
19347W        W62400  33.796  21.432  28.669  0.0608  0.0188  0.1577
19348W        W62401  15.852  30.587  26.048  0.0351  0.0995 -0.0398
19349W        W62402  22.750  17.392  21.372 -0.1082 -0.0346  0.3024
19350W        W62403  21.598  21.518   0.332 -0.1061  0.0051  0.1955
19351W        W62404  17.051   2.451   2.568  0.2517  0.0142 -0.0471
19352W        W62405  14.624  16.388  26.987 -0.0789  0.2391 -0.0732
19353W        W62406  11.593  31.090   2.487  0.0189 -0.0032 -0.0851
19354W        W62407  10.271  29.469  17.166 -0.0820 -0.2627 -0.2252
19355W        W62408  24.941   0.696  21.849 -0.1308 -0.1032 -0.1050
19356W        W62409  34.016   6.066  28.664  0.1618 -0.2442  0.0545
19357W        W62410  30.662  10.710   1.047  0.1380 -0.0283 -0.0054
19358W        W62411  31.611   9.509  22.928  0.1137  0.2517  0.0342
19359W        W62412   0.968  14.232   6.167  0.2034  0.0409 -0.1333
19360W        W62413  16.264  12.645  26.399  0.0505 -0.2775 -0.0871
19361W        W62414  24.977  11.684  24.941  0.1390 -0.0394  0.0337
19362W        W62415  19.289  15.978   4.810 -0.0679 -0.0040 -0.3041
19363W        W62416  21.642  10.706   5.913 -0.0468  0.1007 -0.3110
19364W        W62417  16.333  26.518   9.729  0.0889  0.0527 -0.3539
19365W        W62418  28.032  28.787   3.341  0.4720 -0.1941 -0.0604
19366W        W62419  28.400   3.643   3.842 -0.0993 -0.0322 -0.2794
19367W        W62420  18.108   7.213   2.170  0.0046 -0.1538 -0.0231
19368W        W62421  30.813  24.122  27.385  0.1802  0.1734  0.0005
19369W        W62422  17.595  16.116   8.081 -0.0138  0.0487  0.0702
19370W        W62423   6.333  28.333   3.459 -0.0419  0.1094  0.1699
19371W        W62424   4.974   6.013   6.697 -0.4127 -0.2552  0.0027
19372W        W62425  27.433   8.298   1.942  0.0497  0.0413 -0.0354
19373W        W62426  10.472  33.509   2.173 -0.1685  0.1397  0.3630
19374W        W62427  23.625  12.622   6.798 -0.1258 -0.3619 -0.0393
19375W        W62428  23.102  15.151   8.203  0.2623 -0.3486  0.0156
19376W        W62429  17.764  28.783   3.640  0.1406 -0.3100  0.1002
19377W        W62430  10.410  20.904  26.282 -0.3211  0.0427 -0.0572
19378W        W62431  33.741  21.586  16.967  0.0576  0.3002  0.2150
19379W        W62432  26.042  31.911  16.866 -0.0253 -0.2146  0.4914
19380W        W62433   5.326  33.282  28.823 -0.0246  0.1599  0.2019
19381W        W62434   2.244  11.158  16.479 -0.3439  0.0511 -0.1946
19382W        W62435   4.506  33.498   4.445  0.2749 -0.1741 -0.1860
19383W        W62436  20.924  17.387   7.687 -0.2823  0.3336 -0.0258
19384W        W62437  22.104  34.425  25.039 -0.3192  0.0362  0.0520
19385W        W62438  34.490  27.995  25.616  0.2590  0.1054 -0.0399
19386W        W62439  18.638  30.451   7.297 -0.1508  0.0871 -0.1309
19387W        W62440  16.709   2.231  16.257 -0.3416 -0.0214  0.0527
19388W        W62441  15.733  19.380   4.386 -0.0932 -0.1730 -0.1054
19389W        W62442  26.139  13.929   3.817  0.2233  0.0846  0.0399
19390W        W62443  27.140  14.754  29.058 -0.4019  0.0343 -0.0541
19391W        W62444  27.238  20.132  29.051  0.0923 -0.1095 -0.1491
19392W        W62445   7.811  10.150   0.109  0.0285 -0.0091  0.0857
19393W        W62446  12.193  26.584  23.399  0.0764 -0.0995 -0.1893
19394W        W62447   3.563   4.204  27.122 -0.0457  0.2367  0.1550
19395W        W62448  32.066   4.069   6.099  0.0069  0.5046 -0.2366
19396W        W62449  25.000  31.329   2.734  0.0137  0.1704 -0.1223
19397W        W62450  14.073  33.358  16.462 -0.4476 -0.0056  0.0131
19398W        W62451  27.144   4.403   5.397 -0.0039 -0.0857 -0.0063
19399W        W62452  34.412   9.299   9.701 -0.1849 -0.3205 -0.2121
19400W        W62453   3.864  26.737   7.707 -0.3377  0.0938 -0.2383
19401W        W62454  16.401  14.626  25.263  0.0878 -0.2820 -0.0448
19402W        W62455   6.993  19.344   3.886  0.4565  0.3249 -0.4216
19403W        W62456  24.959   9.413  14.986 -0.0387 -0.1535 -0.1804
19404W        W62457  13.198  24.880   7.554  0.3083  0.1157  0.0334
19405W        W62458  24.607   4.192  19.044  0.1417  0.0444  0.1093
19406W        W62459  27.575  19.260   3.440 -0.4102 -0.1939 -0.0763
19407W        W62460  23.923   2.377   9.526 -0.2826 -0.0837 -0.0000
19408W        W62461  20.190  31.634   4.018 -0.5552  0.0577 -0.2748
19409W        W62462  29.511  31.759   1.071 -0.0249  0.2138  0.0846
19410W        W62463   7.611  21.540  28.426 -0.2448 -0.0674 -0.0257
19411W        W62464  32.874  26.430   7.264 -0.0125  0.1759 -0.0962
19412W        W62465  20.617   9.452  14.778 -0.0512 -0.0922 -0.1113
19413W        W62466  23.365  34.661  27.986  0.3300 -0.2942 -0.3022
19414W        W62467  34.456  28.737   6.438  0.2286 -0.3602 -0.1270
19415W        W62468  30.216  10.070   1.820 -0.0291 -0.0280  0.0930
19416W        W62469  12.568  25.467  10.262 -0.0565 -0.1460 -0.1012
19417W        W62470  33.252   6.812  28.444  0.0685 -0.2935  0.3473
19418W        W62471  25.548  20.995  15.996 -0.2033 -0.0313 -0.1095
19419W        W62472  17.410  10.288  27.995 -0.5661 -0.2284  0.1493
19420W        W62473  14.780   2.502   7.216 -0.0686  0.0268  0.0792
19421W        W62474  26.116  33.976  28.206 -0.4052 -0.2846 -0.2257
19422W        W62475  12.909  13.907  27.407  0.1710 -0.0778  0.0399
19423W        W62476  18.127  25.387  18.089  0.2305 -0.0074 -0.0386
19424W        W62477  32.358  16.088  27.444  0.3274  0.0181 -0.0275
19425W        W62478   1.840  27.265   2.863  0.0365  0.0845 -0.0083
19426W        W62479  29.544  22.953  28.948  0.3020  0.0180  0.1812
19427W        W62480  16.212  16.739   4.618 -0.2212 -0.0166  0.2189
19428W        W62481  19.288   4.951   2.412 -0.1828  0.0765 -0.1221
19429W        W62482  20.322  12.813   9.482 -0.0660 -0.1825  0.1433
19430W        W62483  24.476   3.619   6.122  0.0644 -0.0567 -0.1397
19431W        W62484   1.155  11.725  23.630  0.1822 -0.0956 -0.1601
19432W        W62485  17.512   2.122   1.415  0.4091  0.0966 -0.1533
19433W        W62486  33.343  24.969  19.702 -0.2960 -0.2217  0.1335
19434W        W62487  21.531  19.281   3.917 -0.2347 -0.1019 -0.3580
19435W        W62488  20.695   3.619   7.943  0.0555  0.0565  0.1585
19436W        W62489  30.318   9.352   3.078 -0.0744 -0.0291 -0.0137
19437W        W62490  25.587  21.590   4.490 -0.1167  0.0329 -0.1837
19438W        W62491  29.600  10.731  10.415  0.0751 -0.1822  0.2115
19439W        W62492  20.899  10.784   9.773 -0.2182  0.0272 -0.2801
19440W        W62493  34.112  26.809   3.757 -0.0728 -0.0612  0.0888
19441W        W62494  30.503  34.525   6.245 -0.1648  0.0182 -0.0220
19442W        W62495  32.845  22.469  24.377  0.3130  0.1673  0.0167
19443W        W62496  11.973  32.050   7.503  0.2661 -0.0803 -0.0133
19444W        W62497  30.845  30.528   2.107 -0.0606 -0.0257  0.0468
19445W        W62498  13.927  20.576  14.309 -0.1806  0.4832 -0.1115
19446W        W62499  21.827   4.778   1.119  0.1276 -0.1676  0.0665
19447W        W62500   3.637  13.590  28.711 -0.1619  0.0253 -0.3654
19448W        W62501  18.917  20.786   1.565  0.0321 -0.1353  0.0649
19449W        W62502  22.022   6.298   9.761 -0.2146 -0.0671 -0.1043
19450W        W62503  32.449  10.648   0.170  0.3919 -0.1380  0.0213
19451W        W62504   0.007  30.781   8.172  0.2298  0.0813  0.2737
19452W        W62505  32.350   0.608   0.293  0.1110 -0.1337 -0.1880
19453W        W62506  25.141  31.878   8.486  0.0402  0.1751 -0.0016
19454W        W62507  19.230  18.532   3.376  0.0352  0.0201 -0.0743
19455W        W62508  22.250  17.758   2.346 -0.2566 -0.1761  0.1219
19456W        W62509  32.592  12.850   3.384  0.0686  0.1462  0.2469
19457W        W62510  11.025  20.285   0.994  0.1362 -0.2195 -0.0480
19458W        W62511   7.355  14.879   9.746 -0.3035 -0.2082 -0.1714
19459W        W62512  27.941  33.295  24.867 -0.0293 -0.0346  0.1499
19460W        W62513  19.599  21.855   3.886 -0.0246 -0.3586  0.0175
19461W        W62514  13.329   9.904  27.414  0.0484  0.2893 -0.0723
19462W        W62515  31.763   2.878  16.299  0.0922 -0.2063  0.1891
19463W        W62516  11.158   6.634   0.565  0.0712  0.2214 -0.1054
19464W        W62517  27.548   2.124   2.906 -0.0117  0.5852 -0.0271
19465W        W62518  14.985  21.202   2.536 -0.0753 -0.1302 -0.0925
19466W        W62519  15.139   5.114  22.696  0.1950 -0.1490 -0.0421
19467W        W62520  30.639   7.497   2.576  0.0631  0.1028 -0.3985
19468W        W62521  11.423  29.546   4.475 -0.1046  0.0864  0.1470
19469W        W62522  32.326   2.203   9.136 -0.0494  0.0966  0.0046
19470W        W62523  19.481  32.976   5.719 -0.3707  0.0134 -0.2448
19471W        W62524   4.552  33.205  26.396 -0.0897  0.0392  0.0541
19472W        W62525   2.879   4.052  14.364  0.3302 -0.2286  0.0525
19473W        W62526  15.953  26.102   5.769 -0.2402 -0.0073 -0.2581
19474W        W62527  16.460  16.342   9.636  0.1013 -0.1484 -0.0590
19475W        W62528   1.274  20.460   1.332 -0.1085  0.0290  0.2408
19476W        W62529  18.520  30.774   9.108  0.4066  0.0726 -0.1416
19477W        W62530  24.134   1.658   8.047  0.1889  0.0789 -0.1156
19478W        W62531  14.290  32.592  25.263  0.1146 -0.0714  0.1164
19479W        W62532  23.217   4.654   8.719 -0.1452 -0.0253 -0.1201
19480W        W62533  18.533  13.289  24.310  0.1801 -0.1966  0.3364
19481W        W62534   6.751   1.353   6.540  0.0287  0.1670 -0.0389
19482W        W62535   6.188  32.581   3.162 -0.0794 -0.0721 -0.0529
19483W        W62536   3.908   4.908   5.026  0.0431 -0.0850  0.0616
19484W        W62537  20.986  17.035   8.105  0.0545 -0.3156  0.0384
19485W        W62538  13.940  33.412   7.538  0.1561  0.2276  0.0937
19486W        W62539  28.203  16.274  14.063 -0.0362  0.2232 -0.0825
19487W        W62540  23.018  28.623   2.366 -0.1455 -0.1007  0.2545
19488W        W62541  17.042  12.304   7.305  0.0883  0.0118  0.0286
19489W        W62542  18.384  33.334   1.045  0.1469 -0.0872 -0.2766
19490W        W62543   7.558  26.601   7.215 -0.1755 -0.0476 -0.0913
19491W        W62544  11.812   3.064   2.145  0.0236 -0.0638 -0.1311
19492W        W62545  15.100  32.534   9.151  0.1119  0.0684  0.0535
19493W        W62546  19.100  11.756  27.950 -0.1797  0.5427  0.0346
19494W        W62547  15.666  19.763  27.961  0.5791 -0.2777  0.2105
19495W        W62548  13.863  11.408  10.448  0.2845  0.1564  0.3781
19496W        W62549  16.958  22.185   2.830 -0.1210 -0.0981  0.0564
19497W        W62550  29.452  33.517   3.798 -0.0125 -0.2317 -0.1800
19498W        W62551   0.573  33.159   8.358  0.1680  0.0019 -0.0020
19499W        W62552  16.928  31.873  16.854  0.2419 -0.0229  0.2564
19500W        W62553  34.035  20.412  27.406  0.0462  0.0515 -0.3565
19501W        W62554  15.963  33.566   9.355  0.0824  0.1183 -0.2274
19502W        W62555  16.087   4.409  28.561  0.2566  0.0293  0.2479
19503W        W62556  14.558  27.387   8.913  0.0076  0.1572  0.0391
19504W        W62557  14.926  13.910  21.481  0.1362 -0.0290  0.1103
19505W        W62558  30.126   6.116  26.786  0.1027  0.0391 -0.3190
19506W        W62559  34.113  29.857  24.732 -0.0134  0.1967  0.1983
19507W        W62560  18.207   4.424   5.861  0.1126 -0.3020 -0.1304
19508W        W62561  30.929   1.030  25.768  0.2787  0.0172  0.0672
19509W        W62562  33.215  23.271  14.815  0.1157 -0.2233  0.0825
19510W        W62563   4.686  19.500   8.558 -0.0998 -0.1291 -0.1828
19511W        W62564  20.011  21.747   8.665  0.0269  0.2881  0.1258
19512W        W62565  16.886   4.630  26.716  0.1161  0.2564 -0.1157
19513W        W62566  23.787   1.679   6.277  0.1110  0.3104 -0.4298
19514W        W62567  22.567   0.125   7.100 -0.1054 -0.0320  0.1639
19515W        W62568  33.189  22.940   3.816 -0.0791  0.0831  0.1054
19516W        W62569  26.472  26.642  24.262  0.1005 -0.0143 -0.1359
19517W        W62570  27.573  11.348   9.346 -0.5198 -0.0962 -0.1107
19518W        W62571  34.290   0.692   1.761  0.0755  0.1066 -0.0606
19519W        W62572  16.604  33.874  27.447 -0.2598 -0.1903 -0.3347
19520W        W62573  32.683  23.535   9.460 -0.1466  0.1943  0.3461
19521W        W62574   3.348  14.518   1.569  0.0745 -0.2290  0.0925
19522W        W62575  11.059   2.809  27.209  0.1751  0.0894 -0.1344
19523W        W62576  19.218  12.461   6.532 -0.0600 -0.1641  0.0642
19524W        W62577  12.437  11.747   3.455  0.0758  0.0731  0.0551
19525W        W62578  22.750  10.258  28.560  0.1811 -0.1174  0.0978
19526W        W62579  22.248  34.435  22.109  0.2654  0.1421  0.2378
19527W        W62580  32.197   3.531  10.001  0.4782 -0.2120  0.1134
19528W        W62581  18.367   3.880  28.189  0.2965  0.0840  0.1775
19529W        W62582  18.217  14.561   7.829 -0.3483 -0.1017  0.0247
19530W        W62583  23.460  26.990   9.852 -0.0672 -0.0815 -0.0167
19531W        W62584  28.354  12.960   3.351  0.0568  0.2344  0.3318
19532W        W62585  23.473  27.596  21.638  0.1961 -0.3036  0.1105
19533W        W62586  31.022   8.079   4.498  0.3092 -0.2081  0.0844
19534W        W62587  32.585   7.467   8.966 -0.0481 -0.2244  0.0995
19535W        W62588  20.248   5.267   8.005 -0.1391  0.1554 -0.0940
19536W        W62589  26.317   4.253   4.404 -0.0375 -0.1667  0.0078
19537W        W62590  27.338  28.401   7.808  0.1328  0.2292 -0.2232
19538W        W62591  29.129   8.016   1.719  0.1913 -0.3111 -0.1603
19539W        W62592  13.450   7.373   9.016 -0.1905  0.0728 -0.0532
19540W        W62593  27.374  25.918  28.265  0.0605  0.1810  0.0860
19541W        W62594  19.140  13.429   3.338  0.1270 -0.0095  0.2912
19542W        W62595  19.315  18.986   0.866 -0.1820 -0.3441 -0.2802
19543W        W62596   9.000   5.364  28.640 -0.3668  0.0460  0.1691
19544W        W62597   4.396   9.696   7.748  0.1568  0.1307 -0.1841
19545W        W62598  22.756  13.935   5.552 -0.0429 -0.0184  0.0894
19546W        W62599  22.013  25.930   2.451  0.0035  0.0923 -0.2118
19547W        W62600  21.172  29.152  23.520 -0.1886 -0.1663  0.2243
19548W        W62601   6.266  12.351   0.646 -0.3892 -0.2006  0.4286
19549W        W62602  27.813  14.090  26.735 -0.0455 -0.1403 -0.3201
19550W        W62603  14.327  31.518  29.182  0.0708 -0.0250 -0.1428
19551W        W62604  22.323  33.470   7.459  0.0495  0.3078  0.0257
19552W        W62605  21.390  27.356   9.299 -0.2105 -0.2370  0.2475
19553W        W62606  15.771   9.904  20.521 -0.2362  0.1468 -0.0317
19554W        W62607   3.885  34.347  13.377  0.0522  0.1143  0.1455
19555W        W62608   5.407  32.319  25.117 -0.0695  0.0201  0.3008
19556W        W62609  27.984   3.087   9.860 -0.0665 -0.0790 -0.1321
19557W        W62610  13.237  20.679   9.660 -0.1971  0.0104  0.0306
19558W        W62611  25.357   8.814   2.301 -0.0282  0.1319 -0.0408
19559W        W62612  16.945   2.977   6.020  0.2800 -0.0951  0.1913
19560W        W62613   4.674   0.606  23.932  0.4732  0.0559  0.1765
19561W        W62614  30.117   1.620  25.606  0.1675 -0.0373  0.0536
19562W        W62615  19.367   6.794   9.942 -0.0897  0.2547  0.1177
19563W        W62616  19.891  12.277  28.625  0.3628  0.0619 -0.1246
19564W        W62617  32.632   6.102  26.076 -0.0683  0.1304 -0.2903
19565W        W62618  22.633   0.385  19.832 -0.0549 -0.7390 -0.0860
19566W        W62619  33.715   2.116   4.459  0.0129 -0.1162 -0.0142
19567W        W62620  16.896   4.510   5.075  0.0109 -0.1820 -0.0331
19568W        W62621  23.787  20.109   1.768  0.0283  0.1443  0.1046
19569W        W62622  16.646  29.436   5.244  0.3255  0.1163 -0.0112
19570W        W62623  28.867  31.496   4.377  0.2573 -0.1309  0.1070
19571W        W62624   3.562  18.980  22.928  0.2499  0.2575 -0.1895
19572W        W62625  15.199  28.960  24.779  0.1891 -0.1952  0.0107
19573W        W62626  32.501   1.469  29.052 -0.0468 -0.0543 -0.3129
19574W        W62627  23.262   2.585   3.026 -0.1685 -0.4463  0.0527
19575W        W62628  19.904  30.194   7.092 -0.0162 -0.0905 -0.2207
19576W        W62629  28.400   0.410   4.600  0.0120  0.0828 -0.0488
19577W        W62630  17.948  21.153   4.305 -0.0305 -0.2835  0.0386
19578W        W62631  20.156   4.561   2.882 -0.1738 -0.0518  0.3275
19579W        W62632  25.537  28.252  21.085 -0.0301  0.2248 -0.2429
19580W        W62633  21.591  17.580   4.651  0.0701  0.2270  0.2984
19581W        W62634   9.917   1.236   5.507 -0.0704 -0.0184 -0.0557
19582W        W62635  13.488  15.217   2.903 -0.1623  0.5208 -0.3439
19583W        W62636  31.570  30.939   8.310 -0.1520  0.0738 -0.2242
19584W        W62637   8.067  13.665  26.581  0.2112  0.0343 -0.1361
19585W        W62638  18.241   4.729  22.682  0.0806 -0.1628 -0.2046
19586W        W62639  25.187   6.115   3.801 -0.1818  0.0847  0.0429
19587W        W62640   1.070  26.543  17.450  0.0837 -0.0665 -0.0241
19588W        W62641  18.679  32.053   6.389 -0.1196  0.2569 -0.0198
19589W        W62642   2.259  27.749   7.487  0.1801  0.2294  0.0843
19590W        W62643  19.807  21.318   9.190  0.0734  0.2002  0.1868
19591W        W62644  25.112   2.006   7.860  0.1985  0.2068  0.2748
19592W        W62645  25.140   4.231  18.207 -0.0596  0.3859  0.3740
19593W        W62646  23.600   8.561  27.975 -0.0156  0.0901  0.0808
19594W        W62647  29.498   7.589   9.897  0.0799  0.1013 -0.3535
19595W        W62648  25.830   1.712   9.325  0.1516  0.0770 -0.0383
19596W        W62649  24.138  24.853  19.363 -0.1147 -0.0771 -0.1911
19597W        W62650  26.740   3.420  28.560  0.0751  0.0250  0.1593
19598W        W62651  16.582   3.026  15.452  0.0582 -0.0160 -0.0997
19599W        W62652  29.513   6.086  24.718 -0.1396 -0.3619 -0.2323
19600W        W62653  32.115   5.609  24.190 -0.1401  0.2712  0.1011
19601W        W62654  30.846  26.543  24.111  0.0506 -0.0047 -0.0447
19602W        W62655  17.819  29.868   6.467  0.0367  0.0674 -0.0585
19603W        W62656  31.882  33.072  28.864 -0.1006 -0.0972 -0.2875
19604W        W62657   3.962  30.560   5.030  0.0704 -0.2287  0.1297
19605W        W62658  19.756  31.787   3.735  0.2782  0.1502 -0.1851
19606W        W62659   9.661  22.780   8.857 -0.2595 -0.0343  0.1132
19607W        W62660  14.061  23.865   8.390 -0.1563  0.1038  0.1374
19608W        W62661  25.303  15.399   7.247 -0.0446 -0.1036 -0.1468
19609W        W62662  13.416   7.202   7.912 -0.0117 -0.0146  0.0205
19610W        W62663   4.493   0.224   2.586 -0.2965  0.0646 -0.2451
19611W        W62664  23.417   9.291   7.060  0.0039  0.2628 -0.4029
19612W        W62665  15.991   0.262   8.395  0.2341 -0.2675 -0.1078
19613W        W62666  18.692  30.503   4.054 -0.1721 -0.1203  0.0099
19614W        W62667  27.770  28.855   5.932  0.1410 -0.1179 -0.0095
19615W        W62668  12.806   0.164  18.446  0.0677  0.1527  0.0104
19616W        W62669  27.017   2.473   3.014  0.0503  0.4991 -0.3457
19617W        W62670  22.048  16.784   8.930  0.0394 -0.3553 -0.0950
19618W        W62671  20.254   5.951   1.949 -0.0254 -0.2354  0.2507
19619W        W62672  18.348   2.443   4.784 -0.1340  0.1888 -0.1233
19620W        W62673  33.128  26.087   5.268 -0.1502 -0.3711 -0.1536
19621W        W62674  24.924  29.260  23.862  0.0547 -0.0447  0.0316
19622W        W62675  12.512   4.931  27.446  0.1746  0.0504  0.1992
19623W        W62676  23.624  28.876   2.248 -0.1703 -0.0383  0.0485
19624W        W62677  20.855  20.080   8.019 -0.1937  0.0199 -0.1300
19625W        W62678  22.293   7.132  17.016  0.1600  0.1826  0.1984
19626W        W62679  27.688   8.950   4.656  0.1213  0.1320 -0.0743
19627W        W62680   6.011   6.810   4.675 -0.1161 -0.0862 -0.1090
19628W        W62681  32.142  10.663  15.453 -0.0109 -0.0861 -0.5118
19629W        W62682  18.135   0.140   0.131 -0.0769 -0.2156 -0.0349
19630W        W62683  25.922  32.258  15.945 -0.1955  0.0093  0.0642
19631W        W62684  29.134   5.281   7.322  0.1602 -0.1762 -0.0156
19632W        W62685  25.873   6.978   4.925 -0.0777  0.1568 -0.2209
19633W        W62686  16.074   6.845   4.348  0.1202  0.0656 -0.1969
19634W        W62687  34.534  26.447  19.197  0.0539  0.1386 -0.0905
19635W        W62688   3.543   1.155  27.328 -0.0600 -0.0126 -0.2226
19636W        W62689   0.037   2.907   2.386  0.0472  0.1307  0.2925
19637W        W62690  19.016  20.699  27.343 -0.3701  0.0969  0.0428
19638W        W62691  13.817  21.181   0.051  0.0999  0.2100 -0.1240
19639W        W62692  10.781  10.034  27.851 -0.1322  0.0798 -0.0424
19640W        W62693  14.997  33.361   6.991  0.2618  0.4559  0.0786
19641W        W62694  18.701   7.269   5.178 -0.0303 -0.0673 -0.1580
19642W        W62695  10.995  31.014  28.560 -0.1341  0.0074  0.3120
19643W        W62696  30.068   7.651   4.390 -0.1002 -0.6313 -0.0551
19644W        W62697  23.213   8.301   7.345 -0.2590  0.0229  0.1238
19645W        W62698  20.796  27.848   3.612 -0.1384 -0.1516 -0.0128
19646W        W62699  26.494  20.741   1.400 -0.1373 -0.2484 -0.1632
19647W        W62700  21.350  10.092   9.055 -0.3652  0.1654 -0.1213
19648W        W62701  18.993   2.171  26.841  0.0683 -0.0101  0.0409
19649W        W62702   9.827  22.418   8.488 -0.1217  0.1267  0.0628
19650W        W62703  33.961   3.357   2.719 -0.2712  0.3231  0.1400
19651W        W62704   2.346  32.140   2.664  0.1612  0.3687 -0.2015
19652W        W62705   2.676  30.233   1.391  0.1047  0.0414  0.1005
19653W        W62706  20.070  14.731  25.564  0.3608  0.0966 -0.1604
19654W        W62707  31.588   6.010  26.454  0.3538 -0.1205 -0.0775
19655W        W62708  10.101  11.007  20.150 -0.1733  0.0720  0.2249
19656W        W62709   9.031   9.199  28.300 -0.4398 -0.0343 -0.1048
19657W        W62710  16.389   1.940   0.328 -0.1372  0.0350 -0.1448
19658W        W62711  24.033  32.964   0.246 -0.2512  0.0258  0.2375
19659W        W62712  19.436  16.709   0.340 -0.3616  0.1160 -0.1123
19660W        W62713  23.598  23.040   9.821 -0.1996 -0.0081  0.0465
19661W        W62714  15.763   2.309   7.116 -0.2907 -0.0119 -0.1090
19662W        W62715  23.688  33.981  18.867  0.3238 -0.1621  0.0991
19663W        W62716  17.349   3.261  25.611 -0.1735  0.0749 -0.1617
19664W        W62717  20.069   1.844  28.297  0.0888  0.0999 -0.2356
19665W        W62718  34.426  26.334   5.778 -0.2455  0.0899 -0.0031
19666W        W62719  25.417  12.196   9.489 -0.1757  0.2742  0.1291
19667W        W62720  21.200   5.114  18.371 -0.0472  0.2982 -0.0817
19668W        W62721  19.695  33.618   6.663  0.1244 -0.0904 -0.2671
19669W        W62722  11.598  14.318   2.873  0.2660  0.0412  0.1121
19670W        W62723  12.123   0.650  29.173  0.3289  0.0293 -0.6434
19671W        W62724  25.026   2.050   7.345  0.0131  0.1918  0.0793
19672W        W62725  21.166  17.515  10.077  0.0092 -0.0468 -0.1305
19673W        W62726  26.768   1.972  26.043  0.1684  0.3088 -0.1257
19674W        W62727  16.140  34.669   6.493  0.0997 -0.0415  0.1035
19675W        W62728  21.972   6.596   0.815 -0.2517  0.0307 -0.1882
19676W        W62729   5.388  23.047  25.145 -0.0105  0.1280 -0.0609
19677W        W62730  21.541   5.403   3.899 -0.3290  0.2168  0.1245
19678W        W62731  15.116   1.452  23.548 -0.2181  0.0948  0.1258
19679W        W62732  18.118  27.608   0.050  0.3557  0.0471 -0.0613
19680W        W62733  20.572  27.435  28.863  0.1761 -0.0089 -0.1362
19681W        W62734  16.984   5.228   7.617  0.2084 -0.3530 -0.1029
19682W        W62735   0.298  19.468   2.723 -0.0466 -0.0155 -0.2580
19683W        W62736  15.638  30.215   3.935  0.1190  0.2202  0.2646
19684W        W62737  13.626  15.624   8.531 -0.1788  0.2941 -0.0453
19685W        W62738  23.070  26.981   1.742 -0.0127 -0.2171  0.2416
19686W        W62739   2.002   8.413  22.688 -0.3608 -0.0967 -0.2642
19687W        W62740  27.141   0.645  26.100  0.1054 -0.2543 -0.0933
19688W        W62741  31.507   1.295   4.193  0.0942  0.1606  0.2769
19689W        W62742  30.333   6.264   6.627  0.0751 -0.2214 -0.1323
19690W        W62743  29.840   5.637  16.207  0.0619  0.0711 -0.0557
19691W        W62744  33.635  25.540   0.976 -0.2404  0.0524  0.0624
19692W        W62745  18.580   4.753   9.220 -0.0260 -0.0966 -0.1469
19693W        W62746  19.674  33.547  26.587  0.0430 -0.1261  0.0130
19694W        W62747  28.731   5.801  13.858  0.1372 -0.0406  0.1356
19695W        W62748  19.364  13.046  21.157  0.3564 -0.1361 -0.0746
19696W        W62749  15.641  20.927   8.239 -0.1818  0.0712  0.0055
19697W        W62750  22.634   1.355   6.732  0.0805 -0.1919 -0.1960
19698W        W62751  11.173  27.918   5.134 -0.3537  0.0308  0.1343
19699W        W62752  20.419   2.916   5.206 -0.3356 -0.1405  0.1774
19700W        W62753  30.530  16.470   2.506 -0.2378  0.2512 -0.1550
19701W        W62754  26.806  21.275   9.676 -0.0529 -0.2242  0.0911
19702W        W62755  12.914   6.144   4.856 -0.0980  0.1045 -0.1020
19703W        W62756  25.398  13.890   6.401 -0.1033  0.0110  0.4102
19704W        W62757  28.181  30.905   5.331  0.0699  0.1014  0.3199
19705W        W62758  15.891  11.363   8.309  0.2751  0.1094 -0.0976
19706W        W62759  22.097   7.806  28.614  0.1178 -0.0736 -0.1100
19707W        W62760  29.007  29.889   9.050  0.5318 -0.0184  0.2169
19708W        W62761  20.583  26.954   8.382  0.1925 -0.0567  0.2740
19709W        W62762   0.272   5.821  28.278 -0.1743  0.0338 -0.1577
19710W        W62763  10.775  23.208   8.505 -0.0589 -0.1220  0.1283
19711W        W62764  23.454  34.649  18.190  0.1400 -0.1410  0.1114
19712W        W62765  28.705   1.603  21.725 -0.0586 -0.2091 -0.1114
19713W        W62766  22.032  10.679  21.821 -0.0506  0.0704 -0.2901
19714W        W62767  26.339  26.677   4.382  0.0860  0.2447  0.1703
19715W        W62768  19.819  34.110   8.754 -0.0993  0.0167 -0.1351
19716W        W62769  21.164  18.194   5.088  0.1537 -0.0779  0.0906
19717W        W62770  24.183   8.395   2.645  0.0458 -0.1473  0.0593
19718W        W62771   0.783   1.610   7.717  0.1399 -0.0948 -0.0473
19719W        W62772  31.304   7.461   8.763  0.0262 -0.1756  0.0357
19720W        W62773   9.809  31.566   1.094  0.0283  0.0949 -0.0615
19721W        W62774  11.107  33.426  26.850 -0.1634  0.0902  0.2082
19722W        W62775  28.564  25.333  19.474  0.1663  0.0080 -0.3122
19723W        W62776  32.211  29.981   6.662 -0.0873 -0.1611  0.2554
19724W        W62777  19.775  32.327   9.941  0.0065 -0.0286  0.3467
19725W        W62778  33.586   1.529   8.392  0.0150  0.2681 -0.3267
19726W        W62779  24.099   1.130  26.602 -0.2303  0.1779  0.2138
19727W        W62780  11.314  27.106   8.523  0.1455 -0.3231 -0.1430
19728W        W62781  17.389  18.044   1.559 -0.1833  0.0702  0.0216
19729W        W62782   9.635  22.127  24.239 -0.0530 -0.1313 -0.1628
19730W        W62783  21.303   3.146   8.426  0.1506  0.1054 -0.1317
19731W        W62784  31.308  21.279  29.100  0.1125  0.0494  0.1011
19732W        W62785   4.829  13.798  26.761  0.2148  0.0923 -0.4048
19733W        W62786   0.958  32.458  25.731 -0.0400  0.0031 -0.1366
19734W        W62787   9.794  31.095   4.994  0.0905 -0.0098  0.2751
19735W        W62788  29.608   6.782   8.791  0.1403  0.1875 -0.1623
19736W        W62789  19.698   6.440  26.484  0.3158  0.1665 -0.2007
19737W        W62790  17.007   8.946   6.458 -0.0649 -0.1590 -0.1573
19738W        W62791  12.912  16.474  10.157 -0.0539  0.2434 -0.2580
19739W        W62792  28.178  27.802   3.713  0.2162  0.1075  0.1853
19740W        W62793   9.820  26.263   1.032  0.0467 -0.1204 -0.0453
19741W        W62794  25.679  28.699   8.344 -0.0559  0.2546 -0.0601
19742W        W62795  28.648  19.132  15.401 -0.1230 -0.2067  0.2730
19743W        W62796  13.460  27.056   7.942  0.1874 -0.2078 -0.0725
19744W        W62797  23.744  13.220  24.050 -0.3388  0.3978 -0.4190
19745W        W62798  31.788   8.419   4.954 -0.1066  0.0329  0.1271
19746W        W62799  13.695  25.336   3.265  0.2477  0.1855  0.0177
19747W        W62800   1.101   5.936   8.254  0.2081  0.0967  0.3420
19748W        W62801  33.422  30.425   2.494 -0.0947  0.1327  0.4442
19749W        W62802   1.444   9.949  20.623  0.1932 -0.0603 -0.0100
19750W        W62803   0.823  12.189   9.459 -0.1193 -0.3644  0.2801
19751W        W62804  26.785  26.334  23.550  0.0229  0.0454 -0.0657
19752W        W62805  24.468  25.801   9.904 -0.2164 -0.2314  0.1847
19753W        W62806  29.999  31.353   6.267 -0.1100  0.2140  0.0591
19754W        W62807  21.786  13.933   9.846  0.3016 -0.0982  0.1068
19755W        W62808   5.648   4.157   6.765 -0.0648  0.0304 -0.4894
19756W        W62809  17.965   6.114  10.684  0.0058 -0.1152 -0.1363
19757W        W62810  31.933  29.572  23.515 -0.0114  0.3471  0.2531
19758W        W62811  25.674  10.225  28.364 -0.1389 -0.1844 -0.0403
19759W        W62812  33.958  18.682  27.688  0.0003 -0.1995  0.0986
19760W        W62813  26.703   1.995   4.008 -0.0941  0.1853 -0.0013
19761W        W62814  24.795  12.936   7.132 -0.3104 -0.1382 -0.0416
19762W        W62815  21.017  10.212  18.435 -0.2855 -0.0028  0.0228
19763W        W62816  13.803   9.012  14.829  0.0357 -0.1561 -0.1071
19764W        W62817  15.920  20.011   8.417  0.1004 -0.0991  0.2635
19765W        W62818  19.139  31.153  27.887 -0.4299  0.0302 -0.0492
19766W        W62819  32.530   8.882   4.631  0.4156  0.2101 -0.1641
19767W        W62820  29.246   9.060  28.718  0.1544  0.1902  0.0044
19768W        W62821  32.050   1.268   8.644 -0.2165 -0.1552 -0.3284
19769W        W62822  27.489   2.184  14.341  0.2510 -0.1294 -0.1260
19770W        W62823  15.437  26.978   7.853  0.1687  0.1716  0.3402
19771W        W62824  26.262  30.877   9.563 -0.0075 -0.0017  0.1324
19772W        W62825  30.599  34.121  28.618  0.1391 -0.4265 -0.1354
19773W        W62826  33.120  28.723   4.879  0.3297 -0.4986 -0.0828
19774W        W62827   3.460   8.471  16.047  0.0650 -0.0018  0.1069
19775W        W62828  23.862   4.511  28.156 -0.4335  0.0129 -0.1547
19776W        W62829  31.957   3.275   6.558 -0.1440  0.1223 -0.1236
19777W        W62830  21.266  21.013   4.215  0.1075 -0.2288 -0.3308
19778W        W62831  17.401  34.621  25.077 -0.2580  0.3725 -0.1790
19779W        W62832  28.233  27.311   3.997  0.1097  0.3822  0.0436
19780W        W62833  19.162  30.017   3.454 -0.1475  0.1187  0.0866
19781W        W62834  18.530  33.576  22.214  0.0276 -0.0951 -0.1547
19782W        W62835  24.628  30.982   8.144 -0.3640  0.1744  0.0445
19783W        W62836  32.021   8.757   8.494  0.1021  0.0789 -0.0044
19784W        W62837   0.302  29.659   4.644 -0.1632  0.0390 -0.2931
19785W        W62838  16.439  25.394   0.745  0.1825  0.2167 -0.0600
19786W        W62839  19.067  12.106   4.051  0.1157  0.0428  0.3654
19787W        W62840  21.607   1.289  21.539 -0.2340 -0.2672  0.1024
19788W        W62841  34.060  34.038  22.324  0.0983  0.0475  0.1508
19789W        W62842  19.017  26.065   2.776 -0.0403 -0.1220 -0.2263
19790W        W62843   4.710  14.024   9.467 -0.2974  0.0033  0.1096
19791W        W62844  29.328  30.784  22.187  0.1409 -0.1485  0.1544
19792W        W62845  11.449  17.966   1.696 -0.3109 -0.1390 -0.0610
19793W        W62846  28.696  14.698  24.190  0.0096  0.1200 -0.0588
19794W        W62847  30.506  10.412   3.912  0.1350  0.0611 -0.1750
19795W        W62848  31.771  24.224  27.750 -0.0136 -0.1846  0.0679
19796W        W62849  34.286   1.943   5.968 -0.0255 -0.0787 -0.1236
19797W        W62850  23.014  34.303   0.310  0.2280  0.0568 -0.1858
19798W        W62851  17.049  34.614  20.749  0.0714  0.1543  0.0722
19799W        W62852  22.767  23.320   2.823 -0.1194  0.0131 -0.2197
19800W        W62853  32.400   9.846  26.032 -0.0095  0.0697  0.1942
19801W        W62854  13.614  16.682  25.633 -0.3123 -0.1142 -0.0353
19802W        W62855  23.156  23.223   8.272  0.4273  0.0425  0.1301
19803W        W62856  24.685   5.683  29.127  0.5246  0.2872  0.5458
19804W        W62857  21.651   1.158   9.279 -0.1399 -0.1957  0.1142
19805W        W62858  26.580  34.226   7.569 -0.0502 -0.1114 -0.2148
19806W        W62859  34.565   0.086  22.253 -0.0511  0.1290  0.0754
19807W        W62860  23.686  20.875   8.998 -0.1544  0.2399  0.0196
19808W        W62861  21.753  22.375   7.870  0.1253  0.2202 -0.0590
19809W        W62862   3.104   1.743   9.867  0.2650  0.0136 -0.0307
19810W        W62863  26.075   3.377   6.255 -0.1090 -0.2014  0.1358
19811W        W62864  12.082  21.082  18.670  0.0098  0.0876  0.0622
19812W        W62865  28.934  11.632   6.641 -0.5056  0.0541  0.0394
19813W        W62866  25.342   4.432   8.432 -0.0157  0.2029  0.1193
19814W        W62867  32.192  27.370   7.288 -0.0968  0.0459  0.0325
19815W        W62868  32.100  32.414   7.859 -0.0768 -0.0973  0.1003
19816W        W62869  26.894   4.765   1.162  0.3660  0.0726  0.2465
19817W        W62870  29.139  28.424  26.599 -0.3828  0.1676  0.2015
19818W        W62871  32.784  12.569   5.787  0.4157 -0.1884 -0.4174
19819W        W62872  18.689   3.529  20.768 -0.0459  0.3164 -0.0095
19820W        W62873  15.956  30.509  10.342 -0.2862  0.0238  0.1816
19821W        W62874  32.253   4.646   4.834 -0.1477  0.0575  0.1921
19822W        W62875  32.411   9.975   1.451  0.5441 -0.0883 -0.1207
19823W        W62876  27.034  25.561  15.044  0.0226  0.0517 -0.1182
19824W        W62877   8.511   4.321   0.248  0.1640 -0.1448 -0.0127
19825W        W62878  24.131   0.559   4.925 -0.0847 -0.1374 -0.3011
19826W        W62879  22.302   0.622   5.561 -0.1571 -0.2129  0.4458
19827W        W62880  32.887  21.690  17.527 -0.1385  0.1641 -0.1726
19828W        W62881  13.553   6.180   0.241  0.1542 -0.2443  0.3092
19829W        W62882  29.835  12.298   7.153  0.1012  0.2419  0.2089
19830W        W62883  20.992  28.324   5.713  0.1750  0.1207  0.2951
19831W        W62884  16.560   9.001  24.945  0.1757  0.0236 -0.0361
19832W        W62885  20.404   9.922   9.593 -0.3347  0.1846  0.0767
19833W        W62886  10.273  27.695  26.554 -0.2853 -0.4790  0.1053
19834W        W62887  22.430  10.645   8.741 -0.1614  0.1606  0.1654
19835W        W62888  28.528   4.053   7.629 -0.1418 -0.3204  0.2603
19836W        W62889  30.044  26.931  20.621  0.0087  0.1893  0.2560
19837W        W62890   3.804   6.147   5.176  0.0174  0.1855  0.0855
19838W        W62891  23.990  14.510   6.177  0.0614 -0.2305  0.2536
19839W        W62892  20.922  23.685  10.083  0.0582  0.0949  0.0679
19840W        W62893  23.614   4.925   1.895 -0.0499 -0.2031  0.1170
19841W        W62894  28.861  32.021  26.018 -0.1715  0.1144 -0.1010
19842W        W62895  18.923  28.156  25.063 -0.1220  0.0857  0.1527
19843W        W62896  27.933   7.425   8.516 -0.1165  0.0471  0.0730
19844W        W62897  15.950  11.707   9.200 -0.1650  0.2416 -0.1380
19845W        W62898  20.258   9.152   4.844  0.0845  0.3087 -0.0883
19846W        W62899  15.752   4.321   2.394 -0.2571  0.0681  0.2642
19847W        W62900  26.097  25.204   4.487  0.2502  0.2875  0.2595
19848W        W62901  25.507  26.300   7.744  0.0157 -0.0156  0.0065
19849W        W62902  31.100  33.474   7.169 -0.0006 -0.2825  0.0188
19850W        W62903  19.423  10.832   9.339  0.0025 -0.0021  0.0585
19851W        W62904  26.592   3.937  24.957  0.2914  0.1025 -0.1266
19852W        W62905   1.662   7.754   3.893  0.1009 -0.1009  0.2302
19853W        W62906  25.441  24.923   5.952 -0.1485  0.1509 -0.0500
19854W        W62907  19.602  34.627  10.222  0.0230  0.3408  0.0072
19855W        W62908  26.285  14.872   5.164 -0.0151  0.2901  0.0084
19856W        W62909  23.927   5.528   5.992  0.0650 -0.0796 -0.0143
19857W        W62910  28.228  30.365   8.828  0.2028 -0.0109 -0.3039
19858W        W62911  22.193   8.257  10.330  0.1923 -0.0052  0.3446
19859W        W62912  18.694   9.463  10.137 -0.0841 -0.2906 -0.2861
19860W        W62913   1.199  27.017   0.103  0.1778  0.1894  0.0920
19861W        W62914  26.530   3.208   8.970  0.0047 -0.1024 -0.4142
19862W        W62915  24.402  16.667   6.879  0.1127  0.2223  0.0094
19863W        W62916   0.716  29.211  26.667 -0.2729 -0.1988  0.0639
19864W        W62917  16.203   5.028  26.914  0.2968  0.1390 -0.1079
19865W        W62918  21.397  12.539   9.770 -0.0394  0.0082 -0.2611
19866W        W62919  15.224   6.538   5.357 -0.3196  0.0151 -0.1572
19867W        W62920  29.192   8.177   4.276 -0.0505 -0.0553  0.0031
19868W        W62921  16.354  11.875   8.878 -0.0131  0.2542 -0.0925
19869W        W62922  31.318   7.040  10.239  0.0931 -0.0866 -0.0925
19870W        W62923  11.094  11.142  27.263 -0.0353 -0.0237  0.0579
19871W        W62924  24.669  10.628   7.387 -0.2290 -0.0447  0.2066
19872W        W62925  30.892   5.505   9.654  0.1228 -0.1470 -0.0530
19873W        W62926  19.966  14.485   1.264 -0.1679  0.0680  0.0235
19874W        W62927  14.574  23.614  22.926  0.1769 -0.3074  0.2382
19875W        W62928  23.348   6.576  26.712  0.1249  0.0967 -0.2411
19876W        W62929  16.120  11.705   5.822  0.1506  0.2526  0.1175
19877W        W62930  11.103   0.972  27.452  0.0345 -0.1824 -0.4172
19878W        W62931  24.589  32.310  27.601 -0.1787  0.2203  0.0381
19879W        W62932  27.763  10.250   0.481  0.2589  0.1532  0.1926
19880W        W62933  18.013  14.763   1.320  0.0788 -0.2021  0.2928
19881W        W62934  19.757   5.102  22.574  0.0433  0.3828 -0.1450
19882W        W62935  17.476  18.680   5.007  0.0550  0.2577 -0.2465
19883W        W62936  18.154   6.983   0.979  0.0586 -0.1763 -0.0837
19884W        W62937  32.170  23.614  26.972 -0.1463 -0.3362 -0.5599
19885W        W62938  25.972   7.400  21.119  0.2307  0.3383  0.0786
19886W        W62939  11.450   9.913   0.700  0.0212 -0.1229 -0.0410
19887W        W62940  19.782  33.810   5.286  0.1460  0.1988 -0.0216
19888W        W62941   7.316   2.339   9.502 -0.0921 -0.0854  0.0087
19889W        W62942  16.575  31.753  29.140 -0.1986  0.2265 -0.1387
19890W        W62943  26.446  23.909   5.654 -0.1186  0.2367 -0.1019
19891W        W62944  34.176  23.292   1.102  0.2760 -0.1658 -0.1053
19892W        W62945  17.007  25.780   4.762  0.0199  0.0565  0.2311
19893W        W62946  13.036   7.526   8.057 -0.1037 -0.0583  0.1467
19894W        W62947  17.473  29.287   8.379  0.1801  0.0101  0.4125
19895W        W62948  25.296  12.851   7.113 -0.2647  0.1913 -0.0608
19896W        W62949  28.490  23.002   8.749  0.0088  0.0811 -0.1739
19897W        W62950  27.210  25.605  23.254 -0.0326  0.1859  0.1458
19898W        W62951   7.047   1.672  27.694 -0.6038  0.0793 -0.0246
19899W        W62952  20.695   7.044   9.655  0.1993 -0.0062  0.1547
19900W        W62953  32.873   1.895   1.470 -0.1177  0.0041  0.1580
19901W        W62954  19.823   4.460   2.459  0.0334 -0.1100 -0.0930
19902W        W62955  29.238   3.920   2.247 -0.2818  0.1308 -0.1088
19903W        W62956  28.223  12.740  25.304 -0.1643  0.0010 -0.1837
19904W        W62957  23.336  32.857   2.071  0.0229  0.3492  0.0636
19905W        W62958  16.026   0.488  25.046 -0.0463  0.1512  0.0070
19906W        W62959  23.835  23.519   4.899  0.1906  0.2005  0.0381
19907W        W62960  15.733  26.214   6.229  0.1870  0.2200  0.1863
19908W        W62961  25.320   2.469   5.287 -0.3647  0.2573 -0.0778
19909W        W62962  27.489  33.679   2.970  0.1453 -0.0831 -0.1503
19910W        W62963  17.986   6.046   9.983 -0.0854  0.1993 -0.0690
19911W        W62964  28.080  25.118   2.066 -0.3033  0.3980  0.1233
19912W        W62965   7.742   1.981   1.965 -0.0928  0.0648 -0.0573
19913W        W62966  18.002   1.648   5.478  0.0460 -0.0150 -0.1204
19914W        W62967  25.128  33.738  28.647  0.1735 -0.1305 -0.0538
19915W        W62968  31.400   5.892   5.873  0.1680  0.1186  0.1731
19916W        W62969  29.165   0.527   8.234  0.0240 -0.0509 -0.1789
19917W        W62970  12.498  25.875   5.269  0.0785  0.0907  0.3941
19918W        W62971  28.318   6.027  10.581  0.0898 -0.2813  0.2181
19919W        W62972  20.743  17.417  28.811  0.0543 -0.2334  0.1376
19920W        W62973  13.529  25.077   5.365 -0.1743  0.1490  0.0764
19921W        W62974  27.766   7.651  26.868 -0.1170 -0.2139  0.0515
19922W        W62975  29.462  30.502   9.596  0.0616 -0.1837 -0.0162
19923W        W62976   6.683  29.680   4.350 -0.0554  0.1968 -0.0446
19924W        W62977  34.329   5.482  23.903  0.0829 -0.2612 -0.0447
19925W        W62978  21.510  17.822   0.609 -0.0239  0.0255 -0.0923
19926W        W62979  16.322  30.120   8.558 -0.0829  0.0391 -0.1407
19927W        W62980  23.916   8.850   7.789 -0.2084  0.3620  0.1533
19928W        W62981  14.473  29.398  22.380  0.0952  0.2114 -0.0381
19929W        W62982  15.353  27.033   5.163 -0.0165  0.3000  0.1766
19930W        W62983  25.693  30.310   4.366 -0.2929  0.4697 -0.1411
19931W        W62984  23.152  12.869   9.064  0.3226 -0.1875  0.0633
19932W        W62985  18.635   0.838   3.615  0.1940  0.3718  0.1308
19933W        W62986  29.799  25.814  23.086 -0.1735 -0.1404  0.2684
19934W        W62987  28.916   6.285   6.560  0.0766 -0.0727 -0.1601
19935W        W62988   1.152  12.894  16.723 -0.2948 -0.1217  0.0093
19936W        W62989  22.356   9.186   2.421  0.1856 -0.1435 -0.1598
19937W        W62990  29.776  13.067  26.333  0.1652 -0.0286  0.0297
19938W        W62991   9.643  16.558   2.531  0.0317 -0.0389  0.4257
19939W        W62992  28.276  17.286   2.736  0.1449 -0.2183 -0.0268
19940W        W62993   4.205  31.832   1.617 -0.0971  0.0101  0.2608
19941W        W62994  32.269  13.089   9.027 -0.0926  0.0709  0.2997
19942W        W62995  23.759  28.375  24.328  0.0447  0.1485 -0.4680
19943W        W62996  19.732   3.525   4.026 -0.0058  0.1829 -0.3007
19944W        W62997  15.437  28.121   3.787 -0.3925 -0.1496  0.0852
19945W        W62998  27.369  26.451  10.527  0.1038 -0.0296 -0.1388
19946W        W62999  22.771   4.681   8.522  0.2328 -0.0378 -0.0759
19947W        W63000  22.787   9.042  27.950 -0.0620 -0.3394  0.2067
19948W        W63001  16.639  24.864   2.257  0.4185 -0.0348  0.0407
19949W        W63002  20.754  21.422   1.674 -0.2837  0.2765  0.0726
19950W        W63003  21.448   8.277   5.686 -0.2018 -0.3380  0.2561
19951W        W63004  19.366   4.322   7.599  0.1586  0.2174 -0.1449
19952W        W63005  34.526  29.020   7.929  0.0928  0.0415 -0.0585
19953W        W63006  31.762  28.322  22.288 -0.1222 -0.1539  0.0797
19954W        W63007   1.845  13.987  27.807 -0.0881  0.3411 -0.2890
19955W        W63008  25.789  11.744   3.669  0.1360  0.1529  0.0648
19956W        W63009  29.777  22.399   8.177  0.1606 -0.1135  0.2289
19957W        W63010  28.591  24.340   3.240  0.1455  0.2519 -0.0780
19958W        W63011  10.762  26.695   2.541 -0.0684 -0.0327  0.2914
19959W        W63012  24.242   3.842   9.350  0.0238  0.0625 -0.1171
19960W        W63013  21.625  31.627  25.332  0.1031  0.1088  0.5592
19961W        W63014  28.797   9.837   6.806  0.0225  0.0200  0.3607
19962W        W63015  18.650  20.072   1.012  0.3297  0.0003 -0.0757
19963W        W63016  17.663  30.795   5.563  0.1027 -0.0147 -0.2124
19964W        W63017   5.988   0.401   8.698  0.2560  0.1234 -0.1853
19965W        W63018  34.052   0.035   0.588  0.1038 -0.0831 -0.0188
19966W        W63019  30.076   6.291  19.297  0.0995  0.0905  0.2149
19967W        W63020  13.100  28.952   3.408  0.2634 -0.2474 -0.2959
19968W        W63021  23.813  27.971   9.991 -0.0002 -0.1925 -0.0794
19969W        W63022  18.032  21.005   1.751  0.0002 -0.0371  0.1145
19970W        W63023   1.451   6.161   9.427  0.1307  0.2147  0.2867
19971W        W63024  17.329  29.472   9.511  0.1537 -0.1984 -0.1170
19972W        W63025   2.633  25.633   8.533 -0.1233  0.0032 -0.1115
19973W        W63026  23.774  23.729  24.851 -0.5008 -0.0353  0.0880
19974W        W63027  29.800   0.401  25.239  0.2553 -0.1563  0.1971
19975W        W63028  11.182  33.949   1.790  0.0756  0.1934  0.2346
19976W        W63029  20.988  26.469   4.223 -0.2770 -0.0503 -0.0981
19977W        W63030  22.850  32.097   4.450  0.2313 -0.4018  0.0216
19978W        W63031  27.687   5.461  27.653 -0.1455  0.0048  0.0095
19979W        W63032  30.701  28.553  24.199  0.4389  0.4499  0.1505
19980W        W63033  15.402  14.892   3.913  0.1138  0.1152  0.0108
19981W        W63034  22.384   7.323   3.975  0.2273  0.1814 -0.0025
19982W        W63035  21.067  30.510  27.430  0.1021 -0.4310  0.1798
19983W        W63036  18.151  18.560   3.343 -0.0555  0.2710 -0.0588
19984W        W63037  20.679  20.033  20.659  0.1451 -0.0365 -0.0432
19985W        W63038  25.487   7.171   5.674 -0.0402 -0.0542 -0.1262
19986W        W63039  24.222   3.356   5.436  0.2596  0.0079  0.1074
19987W        W63040  12.535   5.411   5.046  0.1246 -0.2380 -0.0101
19988W        W63041   0.178   4.172   7.925 -0.2469  0.2252  0.1845
19989W        W63042  31.059   8.379   5.706 -0.1784 -0.1087  0.1283
19990W        W63043  15.602  34.050   6.433 -0.0795 -0.0152  0.1464
19991W        W63044  10.415  10.328  10.345  0.0318  0.0531 -0.2179
19992W        W63045  30.914  13.837   4.784  0.0541 -0.2456 -0.3020
19993W        W63046  17.733  14.997  23.869 -0.1673  0.1343  0.0843
19994W        W63047   6.553  33.268   4.884 -0.1876 -0.0409  0.1008
19995W        W63048  28.999   3.468   0.852  0.3576 -0.0111  0.4642
19996W        W63049  16.756   3.752  26.263 -0.1107 -0.1290 -0.0669
19997W        W63050  20.910   9.875   4.541  0.0863 -0.0855  0.1455
19998W        W63051  34.072   0.465   2.457 -0.0170  0.2322  0.0093
19999W        W63052  24.177  11.363   6.688 -0.1271  0.1821 -0.0506
20000W        W63053  21.586   6.451   8.810  0.4690  0.0834  0.0295
20001W        W63054  32.013  28.611   7.804  0.2748 -0.0516 -0.0614
20002W        W63055  10.373  18.274   8.624  0.2306  0.1510 -0.1847
20003W        W63056  14.143  20.291  24.667 -0.0850 -0.0880 -0.2027
20004W        W63057  29.354   9.343   0.583  0.2208  0.0841  0.1837
20005W        W63058  20.756  22.556   7.280 -0.1319  0.1291 -0.0244
20006W        W63059  33.132  33.619  23.418 -0.3249 -0.1269 -0.0032
20007W        W63060  27.809  25.228   7.155  0.0136  0.1911  0.1034
20008W        W63061  28.543   4.286   0.632 -0.1179  0.1318 -0.1000
20009W        W63062  19.832  19.242   9.425 -0.4156 -0.0541 -0.0573
20010W        W63063  11.036  28.611  25.685  0.0505 -0.1037  0.0835
20011W        W63064  27.107   0.551   3.078 -0.3685  0.1185  0.1494
20012W        W63065  18.333   5.216   5.770 -0.0558  0.2642 -0.1468
20013W        W63066  26.557   1.041   9.850  0.0932 -0.1075  0.1672
20014W        W63067  30.274  13.504   2.417 -0.2120  0.0317  0.3605
20015W        W63068  17.789  31.002   9.884  0.0888 -0.0115  0.1282
20016W        W63069  23.710   6.222   7.163 -0.3222 -0.1852  0.0482
20017W        W63070  18.165   4.896  26.646  0.1469  0.3125  0.4631
20018W        W63071  25.001  34.217   1.371 -0.0857  0.3305 -0.2375
20019W        W63072  33.964  25.945   4.450 -0.1847  0.1759  0.0450
20020W        W63073  23.839  32.027  28.066 -0.0279  0.3012 -0.1011
20021W        W63074   5.612   3.161   8.332 -0.1038  0.0710 -0.0653
20022W        W63075  28.226   4.192   6.243 -0.1397 -0.0661 -0.3071
20023W        W63076  33.218   5.720   7.536 -0.0403 -0.1828 -0.0910
20024W        W63077  15.166   2.033   1.830  0.1768 -0.1279 -0.0032
20025W        W63078  21.820  27.668   7.970 -0.1606  0.0559 -0.1034
20026W        W63079  18.504   1.434  10.272  0.0510  0.0360 -0.3389
20027W        W63080  13.906   4.708   2.295 -0.1357  0.1361  0.1835
20028W        W63081  32.801  10.024  10.101  0.0108 -0.0436  0.4536
20029W        W63082   5.567  23.716   3.201  0.1354  0.0382 -0.1697
20030W        W63083  18.953  31.021  10.919 -0.5479  0.0333 -0.0412
20031W        W63084  26.288  25.658   2.484 -0.1656  0.0027 -0.0107
20032W        W63085  25.251   7.655   5.584 -0.0104 -0.1136  0.1734
20033W        W63086  32.197  27.283  20.842 -0.1096 -0.0994  0.0818
20034W        W63087  15.163  11.029   5.315 -0.5745  0.0035 -0.0331
20035W        W63088  27.503   2.969   1.697 -0.0646 -0.0572 -0.3641
20036W        W63089  15.227  29.863  26.591  0.4766 -0.1293  0.0854
20037W        W63090  21.544  25.010  10.517  0.1794 -0.0641  0.0988
20038W        W63091  19.649  31.888  10.253 -0.0133  0.0556  0.0969
20039W        W63092  21.316  10.130   4.242 -0.3777  0.2000 -0.0223
20040W        W63093  13.279  27.530   1.543  0.1860  0.1218  0.0684
20041W        W63094  30.963   1.173   5.198  0.1751 -0.3197  0.0879
20042W        W63095  22.137   6.197   0.449  0.1183  0.0952 -0.1100
20043W        W63096  17.108   5.856   6.683 -0.0987 -0.2748  0.1536
20044W        W63097  28.714   3.738   3.043  0.2648 -0.0402  0.2217
20045W        W63098   4.081  29.714  26.764  0.0506 -0.0295 -0.0883
20046W        W63099  15.744   3.405   7.488  0.4775 -0.0448  0.0167
20047W        W63100  29.761  24.013   2.271 -0.1089 -0.1357 -0.1155
20048W        W63101  19.806  31.660   5.289  0.0850 -0.1268 -0.0347
20049W        W63102  17.570  18.329   5.818 -0.2357  0.3117 -0.1334
20050W        W63103  10.366  34.489   8.155  0.0472  0.1946  0.2231
20051W        W63104  27.881   9.310   7.210 -0.1241  0.1045 -0.0599
20052W        W63105  16.055  11.910   4.058 -0.1316 -0.1031 -0.0428
20053W        W63106  24.292   1.848   7.512  0.0436  0.3689  0.2785
20054W        W63107  16.629  11.934   3.708  0.2605 -0.0647 -0.1455
20055W        W63108  16.009  33.537   6.682  0.2892 -0.1220 -0.1250
20056W        W63109   9.814   2.276  28.076  0.2315  0.0311  0.0437
20057W        W63110  18.120  25.567  20.660 -0.2564 -0.3009  0.0132
20058W        W63111   3.831  26.576   2.339  0.1297 -0.1628 -0.0028
20059W        W63112  18.540   8.403  15.281 -0.1712 -0.2107  0.2015
20060W        W63113  33.883  30.914  26.771 -0.1755  0.1816  0.1718
20061W        W63114  11.178   0.626   9.972  0.0112 -0.2401 -0.2493
20062W        W63115  12.671   2.777  27.112  0.0351 -0.2511  0.0340
20063W        W63116   1.412  22.539   2.314  0.2888  0.2155  0.1693
20064W        W63117  28.594  19.364   6.625  0.0639  0.1575 -0.1841
20065W        W63118  21.385  11.817   4.333 -0.1932  0.0773  0.0530
20066W        W63119  29.550  11.413   7.457 -0.3006  0.0814  0.2479
20067W        W63120  21.838   1.109  25.312  0.2302  0.2542 -0.1897
20068W        W63121  21.829  22.696  23.427  0.0682  0.2114 -0.0658
20069W        W63122  30.542   4.915  21.695 -0.0052 -0.0381  0.2481
20070W        W63123  23.256  10.515  28.966  0.0060  0.3327 -0.1387
20071W        W63124  26.757  29.542   6.254 -0.0561 -0.0311  0.2797
20072W        W63125  31.491  13.982  26.589 -0.0207  0.1248  0.1825
20073W        W63126  28.850  12.749   8.505 -0.0273  0.0966  0.5033
20074W        W63127  15.733   1.023  27.417 -0.0567  0.2452 -0.3047
20075W        W63128  11.799  34.427   3.774 -0.0764  0.3917  0.3747
20076W        W63129  18.299   9.997   3.965  0.2465 -0.2298  0.1008
20077W        W63130   7.107  32.020  22.499 -0.3663  0.1132 -0.1879
20078W        W63131  20.029  10.458   3.489 -0.2133 -0.0553 -0.0616
20079W        W63132  26.335  10.968   7.811  0.0133 -0.0527  0.0335
20080W        W63133   0.915   2.113   6.841  0.2174  0.4152  0.3272
20081W        W63134   7.986   3.626   4.618  0.0396 -0.2008  0.0949
20082W        W63135  16.476   4.786   3.573  0.1669  0.3582  0.0043
20083W        W63136  19.129  30.705   6.616  0.2658  0.0192 -0.1135
20084W        W63137   8.046  23.474   2.539 -0.0585 -0.5450 -0.1527
20085W        W63138  12.587   4.777   1.287 -0.2110  0.3477 -0.0528
20086W        W63139  15.626  29.382   1.177  0.0048 -0.4912 -0.0682
20087W        W63140  24.364  33.045   9.353  0.2071 -0.1634  0.1008
20088W        W63141  28.375  29.043   6.343  0.1613 -0.3292 -0.3117
20089W        W63142   0.766  33.781   6.766  0.1210  0.0316  0.1169
20090W        W63143  32.195  33.457   4.892 -0.0832  0.1464 -0.1371
20091W        W63144   0.896  17.346   3.602  0.0330 -0.0622  0.1161
20092W        W63145  22.692  32.694  22.579 -0.1274 -0.0035  0.0229
20093W        W63146  16.575  19.794   7.223 -0.1521 -0.2047  0.4110
20094W        W63147  19.193  28.836  28.266  0.4846 -0.0500 -0.1706
20095W        W63148  16.675  20.754   4.221  0.1759  0.1801 -0.0024
20096W        W63149  23.281  26.386   8.823 -0.0308 -0.0305  0.0407
20097W        W63150  12.398   1.321  27.085 -0.0620 -0.0310 -0.2545
20098W        W63151  17.037   0.104   1.872 -0.1008 -0.1364 -0.0797
20099W        W63152  28.293   6.461   7.472  0.0593 -0.2063  0.0491
20100W        W63153  11.425  33.417   5.905  0.2863  0.0338 -0.0301
20101W        W63154  29.391  12.996   5.469  0.1516 -0.1043  0.1492
20102W        W63155  33.035  12.918   8.513  0.1543 -0.2872 -0.2490
20103W        W63156  23.164  23.151   1.257 -0.2366  0.0892  0.2305
20104W        W63157  11.529  23.306   4.477 -0.1767  0.0622  0.0987
20105W        W63158  27.038  22.253  14.216  0.0985 -0.0397  0.0303
20106W        W63159   0.909   1.696   1.497  0.1699  0.0025 -0.0678
20107W        W63160  28.307  30.083   9.212  0.0126 -0.3377 -0.1058
20108W        W63161  33.653  32.228   2.564 -0.0788  0.3157  0.1669
20109W        W63162  16.339  10.927   4.453  0.0061  0.1206  0.0225
20110W        W63163  18.368  32.475  18.002  0.1312 -0.2916 -0.0448
20111W        W63164  16.604  10.773   0.299 -0.1491  0.1093 -0.1645
20112W        W63165   4.252  10.880   5.603 -0.3283 -0.0334 -0.1438
20113W        W63166   0.441  28.488   3.354 -0.0725 -0.0547 -0.0614
20114W        W63167  16.652   0.325  22.846  0.1414  0.0977  0.1038
20115W        W63168  20.857   6.976   6.411 -0.0159  0.0519 -0.1391
20116W        W63169  15.526   5.222   6.508  0.1460  0.2047  0.2314
20117W        W63170   5.996  19.148   1.237 -0.0872 -0.1832  0.2015
20118W        W63171  32.698   1.082   1.505  0.4183  0.1531  0.2908
20119W        W63172  28.001  23.865   8.851 -0.1414  0.0028 -0.3261
20120W        W63173  23.893  28.201   7.834 -0.2704 -0.2919 -0.0978
20121W        W63174  18.780  26.627  27.936  0.0901  0.1089  0.1017
20122W        W63175  12.855   9.482   3.506  0.4513  0.0970 -0.0408
20123W        W63176  22.297  30.916   4.951 -0.0308 -0.2867  0.1581
20124W        W63177  25.084  30.812   9.989 -0.0739 -0.0460  0.2080
20125W        W63178  33.273  15.543   6.764 -0.1504  0.1068 -0.0042
20126W        W63179  22.342   4.987   0.259 -0.1238 -0.0981  0.4414
20127W        W63180  22.462   6.241   7.619  0.2082  0.1843  0.0069
20128W        W63181  24.229  29.219  26.502  0.1392 -0.0260 -0.4219
20129W        W63182  11.085  33.618   7.654 -0.1077  0.1812  0.2359
20130W        W63183  13.215  32.330   0.773 -0.1846  0.2198 -0.0934
20131W        W63184  26.355   8.243  10.718  0.0926  0.0614  0.0168
20132W        W63185  20.544  31.287   4.697  0.4332 -0.1382  0.3492
20133W        W63186  10.490   8.663   3.943 -0.0637 -0.2216 -0.1152
20134W        W63187  18.662  34.232   9.825 -0.1063  0.2451 -0.0699
20135W        W63188  23.819  31.053  28.760 -0.1011  0.0014 -0.0559
20136W        W63189   8.863  27.250   9.391  0.0507 -0.0168 -0.0409
20137W        W63190  17.836   4.228   2.844 -0.0596 -0.0189  0.0669
20138W        W63191  14.794  20.061   6.634 -0.0751  0.0448  0.0069
20139W        W63192  32.360  33.902  28.998 -0.1316 -0.2540  0.2906
20140W        W63193   3.784  30.260  28.535  0.0030 -0.0820  0.0300
20141W        W63194  23.341  18.860   8.347  0.1157 -0.0530 -0.3406
20142W        W63195  32.980  14.471   3.318 -0.0937 -0.0280 -0.2792
20143W        W63196   1.368  23.573   9.707 -0.0433  0.4365  0.0805
20144W        W63197   5.655   4.187   1.573 -0.0923  0.0306  0.1270
20145W        W63198   5.409   7.528   7.590 -0.0921 -0.0901 -0.3870
20146W        W63199  10.988   2.708   4.819 -0.1950 -0.0480  0.2435
20147W        W63200   9.171  23.317   5.424  0.2507  0.0846  0.0190
20148W        W63201  33.843   0.601   0.572  0.0517  0.1719  0.0683
20149W        W63202  27.246   2.371   0.441  0.1309 -0.2146 -0.0837
20150W        W63203  19.761   9.847  27.911 -0.1028  0.1439 -0.1062
20151W        W63204  20.965  13.821   4.272  0.1675 -0.1968 -0.1349
20152W        W63205  30.316   3.705   7.818  0.0380  0.2828 -0.0613
20153W        W63206  19.453  33.747  16.600  0.1459 -0.2006  0.2736
20154W        W63207  26.269   9.619  10.729  0.0799  0.0838  0.0078
20155W        W63208  19.189   6.213  27.209 -0.0061  0.3998  0.2285
20156W        W63209  26.714   1.036  27.718 -0.0303 -0.0493 -0.0548
20157W        W63210  27.486   0.511   2.337 -0.0945 -0.0895  0.2788
20158W        W63211   5.919  21.791  23.586 -0.0375  0.0427 -0.0565
20159W        W63212  32.550  13.853   2.177  0.1433 -0.3489 -0.0507
20160W        W63213  13.966  31.330   5.988 -0.0878  0.0665 -0.1095
20161W        W63214  28.869  15.893   9.734  0.0868 -0.1128  0.0040
20162W        W63215   4.188  25.901   7.146  0.1795 -0.1495 -0.0998
20163W        W63216  26.462   9.157   9.146 -0.3663  0.1730 -0.2288
20164W        W63217   0.550  26.086  19.591 -0.1957 -0.1261  0.0479
20165W        W63218  21.197   6.892   6.894  0.1896  0.1746 -0.0907
20166W        W63219  10.933  17.954  13.778  0.0775  0.0597  0.1008
20167W        W63220  24.232   2.404   2.904 -0.0083  0.0496 -0.2822
20168W        W63221  24.077  18.907  17.789 -0.0761 -0.0083  0.0601
20169W        W63222  30.435  10.278  28.042 -0.1862  0.1168 -0.0617
20170W        W63223   4.071   7.261  26.286 -0.3203 -0.0396  0.4488
20171W        W63224   9.800  17.270  15.402  0.1304  0.1828  0.0319
20172W        W63225   3.207   6.989   5.367  0.2126  0.2294 -0.0786
20173W        W63226   8.646  14.269   4.659 -0.1442 -0.1410  0.0773
20174W        W63227  24.327  30.569  21.262 -0.0601 -0.1183  0.2063
20175W        W63228  15.919  17.253  15.082 -0.1448  0.1097  0.2323
20176W        W63229  33.881  32.074   4.986  0.1968  0.1272 -0.0346
20177W        W63230  22.542  29.413   3.756 -0.0654  0.0291 -0.3220
20178W        W63231  19.371  31.828   1.086  0.2768  0.1044 -0.1828
20179W        W63232   9.130  14.767   3.037 -0.1818 -0.0162 -0.4619
20180W        W63233  30.479   0.388   5.430 -0.0943 -0.0016  0.2300
20181W        W63234  28.097   5.563  20.417 -0.0703 -0.2977  0.2496
20182W        W63235  16.570  20.044   2.951 -0.2426 -0.0828  0.1722
20183W        W63236  20.987   1.929  24.001  0.1637  0.1098  0.3148
20184W        W63237  30.441  16.413  24.163 -0.0820  0.2556  0.2505
20185W        W63238  24.840   6.464   8.311 -0.1745 -0.1861 -0.4250
20186W        W63239  31.636   6.737  23.400 -0.2155 -0.1316  0.2245
20187W        W63240  26.790  10.269   1.660  0.0074 -0.0066  0.1526
20188W        W63241   9.186   2.753   2.247  0.1259  0.1136  0.1179
20189W        W63242  20.306  24.402  23.516  0.1409  0.1321 -0.3553
20190W        W63243   7.067   9.164  19.768  0.0084 -0.0054 -0.0172
20191W        W63244  17.963  13.894  21.175  0.0269  0.0664  0.1034
20192W        W63245  32.016  14.712   7.702 -0.2357  0.1556 -0.0386
20193W        W63246   0.104  32.609   7.486  0.0255  0.0395  0.0379
20194W        W63247  30.239   3.810   6.696 -0.1547 -0.0397  0.1594
20195W        W63248   2.924  12.895  26.854  0.1277  0.1441 -0.0623
20196W        W63249  18.524  17.639   8.588 -0.3373 -0.1561 -0.2721
20197W        W63250  11.434  12.618  10.624 -0.0482  0.3409  0.1928
20198W        W63251  15.845  34.029   1.977 -0.2397 -0.0992  0.1904
20199W        W63252  17.789  13.078   6.225 -0.3024  0.2890  0.2671
20200W        W63253  18.785  23.770  24.028  0.0176 -0.0356  0.1458
20201W        W63254  27.773  11.199  28.585  0.2678 -0.1753 -0.0074
20202W        W63255  11.720  10.221   4.132 -0.2226 -0.0518 -0.0614
20203W        W63256  22.788  20.340  21.988  0.2704  0.0868  0.1492
20204W        W63257  19.893  32.561   0.873  0.0972 -0.0674  0.2104
20205W        W63258  26.793  11.387   6.209 -0.1318  0.0636  0.1608
20206W        W63259  14.186  13.998   8.263  0.1775 -0.0289  0.0962
20207W        W63260  26.774   6.503   2.487 -0.0226  0.0919 -0.4210
20208W        W63261  10.198  12.373   2.301  0.0423  0.2732 -0.1315
20209W        W63262  26.424   9.552  15.137 -0.3287 -0.0403  0.1343
20210W        W63263  11.395   7.081  29.040 -0.4219 -0.3424  0.0132
20211W        W63264  11.160   7.207   7.121 -0.2131 -0.0583 -0.2225
20212W        W63265  30.540  31.693  25.269 -0.0683 -0.0196 -0.0140
20213W        W63266  20.035  25.504  16.737 -0.0575 -0.0420 -0.1999
20214W        W63267  33.453   0.420  26.680  0.2323 -0.0805 -0.2667
20215W        W63268  23.010   7.657   8.598  0.0569  0.0489  0.2751
20216W        W63269  30.907  26.010   5.448 -0.1816 -0.3061 -0.1794
20217W        W63270  29.142  34.423   0.230 -0.2831 -0.1871 -0.3267
20218W        W63271  21.086  11.860   6.765  0.1746  0.0461  0.0218
20219W        W63272  10.224  28.515   5.080  0.0255 -0.0901 -0.1230
20220W        W63273  24.779  12.254   2.443 -0.1683 -0.1680  0.1273
20221W        W63274   6.356   8.743   1.388 -0.2827 -0.2384 -0.0053
20222W        W63275  24.374  11.091   5.339  0.0549  0.0782 -0.2621
20223W        W63276  11.384   9.162  19.794 -0.0286  0.0033 -0.0114
20224W        W63277  12.630  18.854  18.243  0.1384  0.3075 -0.1472
20225W        W63278  14.332   5.734   7.194  0.0426 -0.1540 -0.1466
20226W        W63279  19.648  14.905   7.635 -0.1731 -0.0049 -0.1240
20227W        W63280  25.116  27.212  25.614  0.2894 -0.1128  0.1713
20228W        W63281  28.227   6.313   6.111  0.0729 -0.0440 -0.0631
20229W        W63282  31.931   7.634   0.082  0.0708 -0.1826  0.2835
20230W        W63283  27.755   3.238  19.312  0.0643 -0.0085  0.0867
20231W        W63284  21.750  25.151   6.681 -0.2799 -0.2389 -0.0479
20232W        W63285  10.141  28.414  14.760 -0.0253 -0.0235 -0.2325
20233W        W63286   9.984   7.403  21.520  0.4395 -0.2890  0.0625
20234W        W63287  25.552  15.235   5.465  0.4511  0.0759 -0.0794
20235W        W63288  18.796  13.725  28.526  0.0871 -0.0382 -0.0239
20236W        W63289   1.654   3.487  10.002 -0.2904  0.2219 -0.1053
20237W        W63290   8.778  28.695   9.571 -0.1367 -0.0138 -0.0209
20238W        W63291  24.614  10.801   2.583 -0.2827 -0.0486  0.2443
20239W        W63292  32.014  24.829   5.656  0.2726 -0.1188  0.0322
20240W        W63293  13.570   5.454   1.042 -0.3573 -0.0207  0.0842
20241W        W63294   2.860   4.347   9.395 -0.1382  0.2694  0.0905
20242W        W63295  20.372  33.928   5.322  0.0673  0.4238  0.3279
20243W        W63296  29.392   7.655   1.885 -0.0541 -0.1109 -0.2233
20244W        W63297  17.026  22.086   1.413  0.1337 -0.2587 -0.2524
20245W        W63298  18.195  21.265   7.935  0.1690  0.0728  0.1777
20246W        W63299  19.718  14.440  21.527  0.0967  0.2702  0.0397
20247W        W63300  30.616   8.964   3.944  0.0653 -0.3627  0.1473
20248W        W63301  21.321   0.571   7.697 -0.0602  0.0630  0.0508
20249W        W63302  12.755   2.001   2.446 -0.2695  0.0217  0.3547
20250W        W63303  26.135  22.851   0.965 -0.2615 -0.0056  0.1485
20251W        W63304  18.950  29.135  23.307 -0.1441  0.3666  0.4055
20252W        W63305  23.973  12.523  25.444  0.0264 -0.2200 -0.3024
20253W        W63306  14.203  32.541  14.234 -0.0550  0.0485  0.0171
20254W        W63307  26.314  30.980   2.658  0.2705  0.2197  0.2893
20255W        W63308  19.639  24.503   0.258 -0.0470 -0.0325  0.0309
20256W        W63309  25.435  11.841   6.800 -0.2320 -0.2149  0.1259
20257W        W63310  24.671   4.131   5.402  0.2681  0.0388 -0.3793
20258W        W63311  26.341  17.181   9.388  0.0125 -0.1000  0.1361
20259W        W63312  20.658   8.169   7.603 -0.0468  0.0823 -0.0135
20260W        W63313  28.120  18.084   0.131 -0.4214 -0.1450 -0.0494
20261W        W63314  11.160   7.650   5.555 -0.1363  0.0984 -0.1005
20262W        W63315  25.993  29.979   6.531 -0.2586 -0.0236 -0.0866
20263W        W63316  24.983  16.850   3.827  0.1692 -0.1180  0.4718
20264W        W63317  21.377   9.629  26.135 -0.0781 -0.0010 -0.1165
20265W        W63318  32.399  26.113   1.365  0.2515  0.3849 -0.4790
20266W        W63319  10.067  10.447   9.460  0.2994 -0.0071 -0.0523
20267W        W63320  23.543   3.907  25.077 -0.2841 -0.1113 -0.0578
20268W        W63321  15.139  25.062   3.163 -0.0185 -0.0951 -0.2638
20269W        W63322  24.035  14.712   8.466  0.0945 -0.0916 -0.1058
20270W        W63323  23.563  24.481  26.288  0.0688  0.2414  0.0243
20271W        W63324  27.858   5.685  28.924  0.0285  0.2172  0.0074
20272W        W63325   5.144  14.739  27.005 -0.0768 -0.1145 -0.0558
20273W        W63326  16.882   4.601  26.160 -0.0558 -0.0006 -0.0696
20274W        W63327  17.393  14.457   5.080  0.2469 -0.3229 -0.2147
20275W        W63328  25.924  32.804  25.097 -0.1400 -0.0363 -0.1887
20276W        W63329  10.537  14.766   3.240 -0.1389 -0.1527 -0.1913
20277W        W63330  18.263   5.659  27.362 -0.5262  0.0909 -0.1764
20278W        W63331  17.061  29.617  24.758 -0.2121  0.0710 -0.0962
20279W        W63332  25.735   5.324  23.793  0.0351  0.0841  0.0175
20280W        W63333  15.058   7.304   0.327  0.4166 -0.0337  0.1601
20281W        W63334  23.887   4.649   5.438  0.1745  0.2594  0.0571
20282W        W63335  26.449   0.002   1.642  0.2034 -0.2532  0.0262
20283W        W63336  17.134  33.450  24.822  0.1330 -0.1772 -0.1833
20284W        W63337  15.260  17.291   8.207 -0.1586 -0.2604 -0.0250
20285W        W63338  13.221  32.776   7.094  0.1371  0.1383 -0.0126
20286W        W63339  22.382  18.956  17.371  0.0226 -0.0453  0.1622
20287W        W63340  18.759  14.091  27.853  0.2873 -0.1990 -0.1487
20288W        W63341  33.228   9.887   2.660 -0.0271 -0.1899  0.0769
20289W        W63342  21.262  28.297   4.699  0.3081  0.0462 -0.1472
20290W        W63343  28.951  26.584  14.421 -0.0950 -0.0870  0.0397
20291W        W63344  16.095   5.463   8.816  0.4133 -0.3282  0.1440
20292W        W63345  24.129  26.487   0.906  0.0754  0.1556 -0.1024
20293W        W63346  10.492  29.757  27.767 -0.0127 -0.2453  0.0982
20294W        W63347  21.322  27.096   7.831  0.0096 -0.2790  0.0935
20295W        W63348  34.564  10.876  27.467  0.2728  0.0312  0.1893
20296W        W63349  24.628   0.137   2.477 -0.3866 -0.0604  0.4011
20297W        W63350  16.409  12.573   5.228  0.1307 -0.1386  0.0826
20298W        W63351   3.560   6.808  22.420 -0.4854 -0.4908  0.0229
20299W        W63352   5.626   9.237   9.322 -0.0236 -0.4200  0.0204
20300W        W63353  30.901  31.024   0.556 -0.0616 -0.0618  0.0897
20301W        W63354  27.041   6.995  10.801 -0.0935  0.0170  0.3344
20302W        W63355  13.138   3.339   5.893  0.1616  0.0810  0.0514
20303W        W63356  18.787  15.829   7.619  0.3370 -0.0701 -0.0367
20304W        W63357  18.646   9.133   1.110  0.0420  0.1710  0.2287
20305W        W63358   3.017   9.837  20.073  0.3838  0.1624  0.1960
20306W        W63359  25.453  28.571  22.769 -0.1784 -0.2161  0.0765
20307W        W63360   4.230  22.369   1.054 -0.2371  0.2054 -0.1495
20308W        W63361  16.591  14.053  27.267 -0.1652 -0.0825  0.3372
20309W        W63362  31.151   8.665  27.012  0.1374 -0.1671 -0.0276
20310W        W63363  11.566  10.732   2.406  0.0176  0.0800 -0.0478
20311W        W63364  15.414  33.901  25.532  0.2804 -0.0811  0.5459
20312W        W63365  17.530   8.244   1.907  0.0469 -0.2102  0.2351
20313W        W63366  17.185  16.964   4.228 -0.1463  0.0156  0.0854
20314W        W63367  26.528  16.995   4.163  0.2140  0.1834 -0.1981
20315W        W63368   3.756  17.830  29.190 -0.1113 -0.2108  0.0132
20316W        W63369  29.701  11.697   8.920  0.0326  0.2049 -0.2747
20317W        W63370  33.741   3.164  21.315 -0.0993 -0.2562 -0.2710
20318W        W63371  31.605  10.382  27.288 -0.0341 -0.1591 -0.1652
20319W        W63372  15.764  26.564  16.447  0.1633  0.0935  0.0986
20320W        W63373  19.654  13.418  27.957  0.2926 -0.0120 -0.2095
20321W        W63374  31.064   1.771  23.919  0.1885 -0.2067  0.2709
20322W        W63375  17.706   2.543  25.811 -0.0278  0.1614 -0.1122
20323W        W63376  13.990  26.554   2.712 -0.2301 -0.0859 -0.1104
20324W        W63377  18.608  27.977  10.455  0.1351 -0.1196  0.2639
20325W        W63378  22.968   3.554  23.838 -0.2762  0.0782  0.1148
20326W        W63379  29.342   6.928   8.247 -0.1200  0.0788  0.0151
20327W        W63380  25.098   1.906  29.093  0.2031 -0.0587 -0.1384
20328W        W63381   8.314  20.994  16.733 -0.0996 -0.0730 -0.1193
20329W        W63382  20.322  32.939   7.519 -0.0162 -0.0228  0.1291
20330W        W63383  25.360   4.439   2.382  0.1162  0.2653  0.0635
20331W        W63384  25.365  33.497   6.880  0.2083  0.0466  0.2450
20332W        W63385  25.460  18.072  19.354  0.0065  0.5051 -0.0702
20333W        W63386  32.802  15.661   0.308 -0.2251  0.3423  0.2027
20334W        W63387   1.868   9.674   5.766 -0.0300  0.0766 -0.0957
20335W        W63388  19.320   7.491   1.322  0.0213 -0.2567  0.0151
20336W        W63389   2.845   7.380   4.598 -0.2603 -0.0254  0.2777
20337W        W63390  20.489  32.536  27.730  0.4481  0.0072 -0.0275
20338W        W63391  24.447  29.153   1.697 -0.2453 -0.2861 -0.1823
20339W        W63392   9.540  33.136  24.256 -0.2558 -0.1895 -0.1231
20340W        W63393  26.609  20.032   7.089  0.1435 -0.1955  0.0170
20341W        W63394  25.780   7.915   1.202  0.3712 -0.0574  0.0802
20342W        W63395  21.788  33.868   1.314  0.0614  0.1254  0.1303
20343W        W63396  22.838  10.693   7.389 -0.1516  0.0366  0.2543
20344W        W63397   8.948  29.728  26.604 -0.2788  0.0151 -0.1446
20345W        W63398   8.901  20.965   0.086 -0.4293 -0.1049  0.0308
20346W        W63399  25.213   7.864   2.611 -0.0672 -0.0781 -0.1639
20347W        W63400  18.752  27.856   1.814 -0.1200  0.0430  0.1866
20348W        W63401   5.403   1.928  26.551  0.0244  0.2799 -0.2657
20349W        W63402  23.679   3.747   2.616  0.1319 -0.3073 -0.1622
20350W        W63403  19.151   8.998   7.255  0.0156 -0.3004  0.0456
20351W        W63404  25.773  27.880   1.968  0.1491  0.1628  0.0716
20352W        W63405  25.094   7.546  19.013 -0.2473 -0.1393 -0.2740
20353W        W63406  27.909   0.495   4.879 -0.4570  0.0760 -0.0180
20354W        W63407  22.873   3.794   5.631  0.1233  0.3304 -0.1601
20355W        W63408  24.251   5.025  23.444  0.1327 -0.3878 -0.0993
20356W        W63409  21.988  15.343   4.648  0.0999  0.0106  0.1618
20357W        W63410  19.067  23.249  19.028  0.1351 -0.1798 -0.1414
20358W        W63411  28.535  18.652  19.957  0.1487 -0.1580 -0.2031
20359W        W63412  13.566  14.557  28.220 -0.1137  0.0901 -0.1479
20360W        W63413  27.829   2.273   4.669  0.1878 -0.1231  0.2526
20361W        W63414  21.104  25.799   8.948  0.1489 -0.0186 -0.1874
20362W        W63415  16.375  24.945  19.150 -0.1356  0.1122  0.0495
20363W        W63416  11.401  26.572  27.754 -0.3229  0.3122 -0.2342
20364W        W63417  17.172  32.561   5.492 -0.0439 -0.2852 -0.0228
20365W        W63418  21.955  12.917  18.680  0.1799  0.0950 -0.0389
20366W        W63419  16.503   4.950  27.786  0.0922  0.0786 -0.2057
20367W        W63420  16.913  23.817   9.865 -0.1046 -0.0752  0.1392
20368W        W63421  31.688  19.199  22.919 -0.1575  0.1008  0.0631
20369W        W63422  10.538  26.634  24.872  0.1712  0.1816  0.0130
20370W        W63423  32.100   7.632   9.933  0.0490 -0.1729 -0.0349
20371W        W63424  24.427  13.625  23.769 -0.0113  0.0818  0.3603
20372W        W63425  15.654  10.420   0.951 -0.2229  0.0609  0.2113
20373W        W63426  27.773  27.326  24.072  0.3672 -0.0062 -0.1592
20374W        W63427  32.209   9.773  23.154  0.0710  0.4972  0.2636
20375W        W63428   0.270   9.733  24.919 -0.1194 -0.2161  0.0679
20376W        W63429  13.049   5.887   8.752 -0.0145  0.2756 -0.0594
20377W        W63430  16.569   9.609  10.746 -0.0009 -0.2915 -0.2084
20378W        W63431  28.865   7.605   0.415  0.1026 -0.0558 -0.1269
20379W        W63432  21.041   4.299   1.691  0.1732  0.1790  0.2835
20380W        W63433  24.492   3.435  27.960  0.0700  0.1252 -0.0036
20381W        W63434  17.819  16.333  24.205  0.0470 -0.0605 -0.0474
20382W        W63435  18.479   1.033  27.638  0.2515  0.1258  0.2250
20383W        W63436  34.338  17.314  18.499  0.0415  0.0993  0.2273
20384W        W63437  25.900   8.677   4.679  0.2536  0.3585  0.0317
20385W        W63438  29.666  11.138  25.382 -0.1819 -0.1092  0.0047
20386W        W63439  24.899  29.240   0.052 -0.0114 -0.1327 -0.1510
20387W        W63440  28.672   3.385  14.805 -0.3708  0.1756 -0.3579
20388W        W63441  18.450  34.411   0.077 -0.1343 -0.1410  0.0810
20389W        W63442  11.755  20.367  21.223 -0.0600  0.1453  0.1001
20390W        W63443  19.348   2.371   9.182 -0.0625  0.0520 -0.2136
20391W        W63444  11.324  25.372  22.335 -0.0310 -0.0327 -0.2643
20392W        W63445   6.307   1.020   8.014  0.5558 -0.0413 -0.1830
20393W        W63446  17.907  19.079   8.534 -0.0509 -0.1050  0.0032
20394W        W63447  23.164   8.581   8.831  0.0422  0.2046  0.2080
20395W        W63448  32.204  33.773   3.171  0.0290  0.1800  0.2120
20396W        W63449  11.102   5.471  18.289 -0.0010 -0.2954 -0.0316
20397W        W63450  19.525  27.800  20.558  0.1502 -0.1514  0.0897
20398W        W63451   3.652   5.222  21.189 -0.2582  0.0756  0.0256
20399W        W63452  29.148   5.851  28.602 -0.3399 -0.1846 -0.0111
20400W        W63453  26.804   7.339   4.839 -0.1808  0.0833 -0.0430
20401W        W63454  20.767  27.811  24.259 -0.0590  0.0923 -0.1643
20402W        W63455  28.505  22.230   5.882 -0.1192  0.0323  0.0567
20403W        W63456  21.467  29.826   6.598 -0.1819  0.1099 -0.1039
20404W        W63457  16.716  31.267   8.501 -0.1049 -0.0356 -0.3099
20405W        W63458  14.686  24.031   1.956  0.1779  0.4747  0.1203
20406W        W63459  18.417   6.341   6.026 -0.4181 -0.4694  0.1903
20407W        W63460  22.439  19.668   2.285  0.0929  0.0492  0.0855
20408W        W63461  31.894   9.232  24.577  0.1594  0.0031  0.0255
20409W        W63462  31.460   9.838  26.034  0.4068 -0.3958  0.0603
20410W        W63463  18.977  14.965  23.520  0.2244  0.0634 -0.1968
20411W        W63464  22.804  12.119  22.571  0.3630  0.1364  0.1384
20412W        W63465  19.258   8.842  10.077 -0.2156 -0.1723 -0.0156
20413W        W63466  17.821  30.624  28.460 -0.0025 -0.0664 -0.0798
20414W        W63467  25.830  19.904   4.042  0.3115  0.2027  0.0544
20415W        W63468  25.545   6.327  24.962 -0.2490  0.0098 -0.1564
20416W        W63469  10.622   9.751  25.172 -0.1003 -0.4269 -0.3931
20417W        W63470  19.144  21.038   4.686  0.2762  0.0003 -0.3208
20418W        W63471   5.431  30.787   0.368  0.2550  0.2263  0.1529
20419W        W63472  30.110   9.686   9.371  0.0704  0.0171  0.2223
20420W        W63473  31.549  27.228  23.206 -0.0313  0.1933  0.1325
20421W        W63474  23.821  11.009  15.937  0.0340 -0.1286  0.0345
20422W        W63475  28.648   5.811   9.440 -0.0810  0.1703 -0.2147
20423W        W63476   9.696   1.158  23.479  0.2086 -0.1292  0.3536
20424W        W63477  31.661  23.118   1.028  0.3026  0.1970 -0.1568
20425W        W63478  28.596   2.198  20.513 -0.0287 -0.2794  0.1110
20426W        W63479  15.490  26.188   4.432  0.1022  0.0142 -0.2427
20427W        W63480  18.672  33.329   5.588  0.1321  0.2308 -0.1491
20428W        W63481   9.678  22.056  27.399 -0.0409 -0.0709 -0.1845
20429W        W63482   7.211  31.170   3.195  0.1858 -0.0034  0.0231
20430W        W63483   0.259  33.494   4.562 -0.2169 -0.1391  0.0176
20431W        W63484  23.721  30.941   9.605 -0.0295  0.1726 -0.0663
20432W        W63485  18.505  33.592   4.037  0.1955  0.0479  0.0505
20433W        W63486  20.672   5.356  28.670  0.3440 -0.0429  0.1898
20434W        W63487  26.028  22.531  22.317  0.0450 -0.2046 -0.1395
20435W        W63488  22.352  11.617   3.549 -0.1518  0.0839 -0.1187
20436W        W63489  28.232  10.094   9.221 -0.1849 -0.1308 -0.1569
20437W        W63490  26.194  16.403   8.923 -0.3670  0.3464  0.2339
20438W        W63491  21.416  12.940   8.198  0.0189  0.2182  0.4874
20439W        W63492  29.371  11.669   5.967  0.1083  0.0613  0.4430
20440W        W63493  31.013  28.937   7.947  0.1420 -0.1135 -0.2427
20441W        W63494  11.032   0.514   2.495 -0.1889  0.4020  0.2549
20442W        W63495  25.443   1.772   7.504 -0.0806 -0.2748  0.0183
20443W        W63496   2.469  11.264  18.562  0.0689  0.3548  0.0728
20444W        W63497  16.929  10.385  25.974 -0.1046 -0.1842  0.1639
20445W        W63498  30.559  12.593  21.320  0.2895 -0.5226  0.2593
20446W        W63499  30.680  27.042   6.492  0.0569  0.2430  0.0174
20447W        W63500   2.944   6.427   5.213  0.0272 -0.2841  0.0781
20448W        W63501  24.294   6.745   5.055 -0.0765 -0.0166 -0.1549
20449W        W63502  32.830  15.908  25.052  0.0050  0.3651  0.2209
20450W        W63503  20.839   1.550   2.349 -0.1971 -0.1525 -0.1475
20451W        W63504  14.879  11.710   4.703  0.1556  0.1786 -0.0035
20452W        W63505  23.376  19.750  14.320 -0.0309  0.1981 -0.1534
20453W        W63506   9.641  31.581   9.995 -0.2752  0.0941  0.0155
20454W        W63507  23.373  10.624   2.270 -0.2623 -0.1630  0.0122
20455W        W63508  19.394   6.833   9.445 -0.0380  0.0117  0.0975
20456W        W63509  30.808  21.599  26.001  0.0308 -0.0145  0.3156
20457W        W63510  12.775   9.676  20.699 -0.3860  0.0732  0.2623
20458W        W63511  27.021   9.795  24.728 -0.3200  0.0604  0.1349
20459W        W63512  20.145   1.305  28.460  0.0106  0.2900 -0.1251
20460W        W63513  15.897   6.918  25.222 -0.2112 -0.2894 -0.0339
20461W        W63514   6.788  34.179  10.488  0.3712 -0.2315  0.0746
20462W        W63515  10.337  17.896   7.663 -0.1183 -0.3653 -0.1744
20463W        W63516  23.882  19.588   8.382  0.0538 -0.0450 -0.1241
20464W        W63517  21.181  30.970   0.854 -0.0092  0.2011 -0.2814
20465W        W63518  18.956  33.988   8.068  0.0189  0.0131  0.1458
20466W        W63519  24.839  12.870  23.421  0.0569  0.0353  0.1981
20467W        W63520  28.360   2.486  27.649  0.0315 -0.0450 -0.1831
20468W        W63521  33.173   7.085  18.854  0.3820  0.2233  0.1144
20469W        W63522  21.091  16.644  18.473 -0.0064  0.2602  0.3860
20470W        W63523  21.330  15.479  25.181  0.2414 -0.0970 -0.1345
20471W        W63524  18.448  29.297   3.430  0.1085 -0.0282 -0.0464
20472W        W63525  16.333  18.086   7.433 -0.2033 -0.1067 -0.0060
20473W        W63526  16.820   0.615   1.152  0.1353 -0.1069 -0.0423
20474W        W63527  18.642  30.862   0.386 -0.1441  0.0254 -0.1262
20475W        W63528  26.624   2.807   9.237 -0.2251  0.3333 -0.3474
20476W        W63529  19.246   8.030   6.723 -0.1738  0.0298 -0.2428
20477W        W63530  29.207  15.598   2.687 -0.2306 -0.0315 -0.1153
20478W        W63531   9.600  11.570   5.787  0.1764 -0.0974  0.1099
20479W        W63532  27.513  26.569   0.893  0.0497 -0.0605 -0.3889
20480W        W63533  10.689   7.620   1.173 -0.1267 -0.2361  0.0581
20481W        W63534  34.609  25.944   3.254  0.2316  0.1559 -0.1134
20482W        W63535  22.771  32.096   0.129 -0.0289 -0.0880  0.1570
20483W        W63536  27.101   2.758   2.550 -0.0507  0.0737  0.2599
20484W        W63537  12.301   4.470   5.369  0.0584  0.2475 -0.0454
20485W        W63538  15.234   8.751  26.517 -0.4949 -0.0698 -0.0386
20486W        W63539  20.717  14.904   6.613  0.0041 -0.0549 -0.2048
20487W        W63540  20.161  28.032  27.308  0.1404  0.0541 -0.1301
20488W        W63541  18.455  19.647   9.230 -0.0469 -0.2771 -0.1628
20489W        W63542  27.464  20.089  16.920 -0.1712 -0.0073 -0.3487
20490W        W63543  18.358  19.597  25.488  0.0457 -0.1517  0.0811
20491W        W63544  21.583   0.417  27.882 -0.1900 -0.3626 -0.1560
20492W        W63545   6.671  16.723   4.478  0.1742 -0.1886  0.6554
20493W        W63546  30.120   4.305  26.303  0.0438  0.0817 -0.2359
20494W        W63547  33.798  10.428   8.893 -0.2110  0.3429  0.2346
20495W        W63548  32.382  31.135   6.361  0.2226 -0.1900  0.1448
20496W        W63549  18.545  30.239   8.131  0.1102 -0.1664 -0.0315
20497W        W63550  30.821   0.534   3.987  0.2215  0.0980 -0.0586
20498W        W63551  17.846  16.769  23.452  0.1187 -0.3456 -0.1967
20499W        W63552  21.545  11.605   9.937 -0.0600  0.1412 -0.1208
20500W        W63553   1.842  19.307  19.977 -0.1413  0.0053  0.1343
20501W        W63554  18.524  25.708   8.959  0.0222 -0.1055 -0.0996
20502W        W63555  13.098  26.185  24.330 -0.0164  0.1004 -0.3003
20503W        W63556  18.287   3.835   3.766  0.3987 -0.1119 -0.4361
20504W        W63557  28.837  10.561  22.773 -0.1722 -0.3807  0.2653
20505W        W63558  14.317   8.903   6.388  0.0077 -0.0857 -0.0567
20506W        W63559  15.807  16.321   3.229 -0.2694 -0.1498  0.2604
20507W        W63560   2.966  30.117   0.790  0.3865  0.0301  0.2404
20508W        W63561  30.075  18.623   6.254  0.0756  0.1414  0.0732
20509W        W63562  24.726  23.063  25.685  0.1214  0.2654  0.1267
20510W        W63563  34.496  27.895  17.676 -0.2154  0.2435  0.2699
20511W        W63564  20.930  12.249   4.962 -0.3799 -0.1134 -0.2766
20512W        W63565  24.234   6.128   3.594 -0.1540 -0.2665  0.3337
20513W        W63566  12.421  11.553  23.367  0.0134  0.4041 -0.0550
20514W        W63567  19.360   2.075   5.262 -0.1827  0.3204 -0.1916
20515W        W63568  21.040   1.331   8.460  0.4207 -0.0007  0.2139
20516W        W63569  17.950   6.240   2.305  0.1894  0.2581 -0.0367
20517W        W63570  21.307  10.274   4.713 -0.0283 -0.0936  0.2171
20518W        W63571  12.735  33.786   0.847  0.4682 -0.1066 -0.2789
20519W        W63572  21.802   0.635   2.417 -0.2823  0.0439 -0.0410
20520W        W63573  32.708  16.816  25.407 -0.2747  0.2231 -0.3041
20521W        W63574  27.356  14.271  10.480 -0.0367  0.4021 -0.3720
20522W        W63575  11.344  31.302   6.030  0.2862  0.2112  0.2750
20523W        W63576  25.163   0.294  21.153  0.0665 -0.3146 -0.0939
20524W        W63577  16.376  26.947   5.523 -0.2232 -0.3949 -0.1690
20525W        W63578  18.688  17.023  23.296  0.3256 -0.1659  0.0749
20526W        W63579   3.119   9.813  21.163 -0.2961  0.1771  0.1125
20527W        W63580  14.834  32.085  28.511 -0.0541 -0.1138 -0.0833
20528W        W63581   9.229   2.337   8.878  0.2975  0.0201  0.1577
20529W        W63582  30.842  15.431  15.683 -0.1952 -0.0059  0.1203
20530W        W63583  26.463  31.078  28.269 -0.2257  0.0939 -0.0820
20531W        W63584  20.209  30.893   6.586 -0.1565 -0.1055  0.2664
20532W        W63585  31.578  32.002   8.599 -0.1314 -0.1300  0.1860
20533W        W63586  21.299  15.146  23.757 -0.2511  0.3611 -0.1273
20534W        W63587   7.869  28.477  24.238  0.0223 -0.2217 -0.1459
20535W        W63588  12.221  16.224  27.616 -0.1844  0.1248 -0.3244
20536W        W63589  29.838  34.544  28.711 -0.2514 -0.1309 -0.1136
20537W        W63590   9.616  34.033  27.634 -0.3076 -0.0690  0.0648
20538W        W63591   9.815   7.406   9.720 -0.2138 -0.1000  0.0077
20539W        W63592  14.419   7.400   1.845  0.1605 -0.1535  0.2019
20540W        W63593  19.629   5.254  26.016  0.1214  0.2650  0.0144
20541W        W63594  14.191  31.492   5.511  0.2397 -0.4005 -0.0986
20542W        W63595  28.630   1.356   2.825  0.0717 -0.1204 -0.1428
20543W        W63596  16.911   4.866   5.518 -0.0340 -0.0033  0.0626
20544W        W63597  25.770   8.822   2.028  0.3209  0.0441 -0.2872
20545W        W63598  18.343  12.989  22.897 -0.1868  0.2713 -0.2221
20546W        W63599  13.988  27.583  24.748  0.4903 -0.0978 -0.0657
20547W        W63600   4.893   7.624   7.705  0.1284  0.1168 -0.0320
20548W        W63601  26.826  12.253   7.757 -0.1039  0.2023 -0.2384
20549W        W63602  27.766  17.789   4.892  0.0797 -0.2272 -0.0711
20550W        W63603  29.394  11.878  15.997 -0.0135  0.0860  0.2173
20551W        W63604   0.827  14.045   5.305  0.1991 -0.0045 -0.0002
20552W        W63605  22.162  16.373  24.429 -0.0713 -0.0973  0.0054
20553W        W63606   0.096   4.018   4.148 -0.1022 -0.1284 -0.2573
20554W        W63607  17.993  16.168  27.636  0.0599  0.4134 -0.1873
20555W        W63608  25.410   1.154   0.470  0.0543 -0.1215 -0.1238
20556W        W63609  14.902   6.467  22.337 -0.1468  0.2256 -0.5303
20557W        W63610  15.415  33.423  24.072 -0.0267  0.0652  0.2538
20558W        W63611   3.045   5.869  28.968 -0.0195  0.2489 -0.0847
20559W        W63612  20.435  16.486   5.852  0.1884 -0.2363  0.1480
20560W        W63613  19.707  33.016   9.749 -0.3913  0.0729  0.2111
20561W        W63614  10.268  19.095   8.471  0.2312 -0.1587  0.0070
20562W        W63615   0.101  31.081  25.633  0.1290  0.2708 -0.0001
20563W        W63616  12.421  20.128   6.711  0.1305 -0.0452 -0.1404
20564W        W63617  30.515  16.476   8.653  0.0776  0.2908  0.1345
20565W        W63618  20.814   7.584   4.314 -0.1650  0.1170  0.0095
20566W        W63619  16.799   9.967  23.482 -0.0962 -0.2992 -0.2950
20567W        W63620   9.294  34.271   7.322  0.0523  0.0659 -0.2614
20568W        W63621  14.121   2.195  21.742 -0.1627 -0.1432  0.2575
20569W        W63622  19.874  27.201  10.310  0.1776 -0.2585  0.2298
20570W        W63623   8.196  10.531  22.812 -0.2587  0.1125 -0.0631
20571W        W63624  23.564   0.049   2.830 -0.2534 -0.0006  0.1197
20572W        W63625  26.773   3.224   5.709 -0.1647 -0.3460 -0.0451
20573W        W63626   1.934   1.505  26.006 -0.1218  0.0414 -0.0884
20574W        W63627  22.531  10.725   4.526  0.2079  0.0573 -0.3458
20575W        W63628  25.819   1.301  25.652  0.1005 -0.2303 -0.2489
20576W        W63629  25.968  15.414   1.894  0.0678 -0.0875 -0.1785
20577W        W63630  32.890  13.825   4.617 -0.0288 -0.0587 -0.1624
20578W        W63631  28.648   5.903  21.473 -0.1399  0.0457  0.3263
20579W        W63632  30.051  10.195   6.270 -0.1168  0.2407  0.1915
20580W        W63633  20.177   9.504   9.039  0.0860  0.1640 -0.1999
20581W        W63634  17.356   4.294   5.162  0.1115  0.2412 -0.1441
20582W        W63635  22.748  17.275  19.493 -0.0457 -0.0231  0.2184
20583W        W63636  21.297  33.888   5.793 -0.2435 -0.0334  0.2796
20584W        W63637  27.658   7.122  10.342  0.3304  0.1512 -0.1465
20585W        W63638   7.739   5.226  28.659 -0.0404  0.0379  0.1684
20586W        W63639  18.793   4.023   6.324 -0.3304  0.0448  0.0036
20587W        W63640  17.705  10.509   7.100  0.0193 -0.3710  0.0084
20588W        W63641  30.202   9.399   8.161  0.1880 -0.2858  0.0932
20589W        W63642  31.495  33.142   3.459 -0.1766 -0.1495  0.0465
20590W        W63643  31.025   7.579   4.591 -0.3787  0.1465 -0.0531
20591W        W63644  26.445   0.320   5.501 -0.2889 -0.0077  0.0642
20592W        W63645   1.801  12.934  21.055  0.0055  0.0285 -0.1219
20593W        W63646  23.978   2.046   6.672  0.1358 -0.1589  0.1824
20594W        W63647  21.167  27.920   3.968  0.1605  0.0427  0.3044
20595W        W63648  24.169  14.414   3.859  0.0282  0.2766  0.2746
20596W        W63649  13.840   2.086  17.885 -0.0720  0.0435  0.0321
20597W        W63650  27.805   2.372   3.994  0.3499 -0.2255  0.0140
20598W        W63651  31.891  34.206  28.497  0.2575  0.0480  0.1176
20599W        W63652  27.999   3.922  28.110 -0.0322 -0.0845  0.0635
20600W        W63653  32.023  28.171  26.887  0.2283 -0.0504  0.4140
20601W        W63654  28.316   5.272   5.406  0.0244  0.0226 -0.1012
20602W        W63655  30.044   5.456   5.214  0.1784 -0.0913  0.1667
20603W        W63656  27.946   0.834  16.128  0.1746 -0.5534  0.2365
20604W        W63657  10.951   3.905  25.515  0.2290 -0.2391 -0.1763
20605W        W63658  27.514  29.801   2.383 -0.1268  0.0951  0.4339
20606W        W63659  25.847   0.581  10.282 -0.0929  0.0588  0.1426
20607W        W63660   9.889  12.256   1.931 -0.1089  0.2633 -0.0011
20608W        W63661  21.130   0.982  27.626 -0.1943 -0.0023 -0.1559
20609W        W63662  24.723   1.595   7.909  0.2182 -0.2884 -0.2724
20610W        W63663  34.380  28.148   8.253  0.0227 -0.2013  0.1876
20611W        W63664  32.704  17.040   9.240  0.0995 -0.0305 -0.1887
20612W        W63665  21.517  10.554  10.507  0.0360 -0.0623  0.0943
20613W        W63666  25.092  11.097   5.196 -0.0732  0.1844  0.3006
20614W        W63667  19.754  10.680  20.093 -0.0852  0.1076 -0.0188
20615W        W63668  33.696  33.186  25.854 -0.1723  0.0772  0.0989
20616W        W63669  24.477   7.871   4.376 -0.0857 -0.0929 -0.1499
20617W        W63670  26.839  32.589  25.229 -0.0354 -0.0921  0.1975
20618W        W63671  25.279  12.968   4.744 -0.1887 -0.1849 -0.0296
20619W        W63672  17.280  21.174  25.785 -0.3874  0.0617 -0.0331
20620W        W63673  30.861  29.748  26.738  0.0002  0.0781 -0.0043
20621W        W63674  24.045  11.394  28.625  0.1996  0.0229 -0.2029
20622W        W63675  31.352  19.588   1.677  0.0129 -0.1734 -0.0969
20623W        W63676  11.891   2.867   8.001 -0.0133  0.1800 -0.2157
20624W        W63677  34.276  30.470   3.826 -0.3071 -0.0805  0.1789
20625W        W63678  20.982   2.589  16.844 -0.0509  0.1329 -0.0095
20626W        W63679  25.615  33.927   5.711  0.2518 -0.1569 -0.0698
20627W        W63680  23.907   4.189   2.435 -0.0705  0.0967 -0.1800
20628W        W63681  34.491  33.958  27.767 -0.1523 -0.0859 -0.1006
20629W        W63682  20.296   7.814   6.063 -0.0684 -0.1615 -0.1295
20630W        W63683  11.912  18.174  21.657 -0.1445 -0.2593  0.2830
20631W        W63684   0.051  27.829   7.587 -0.0516 -0.0592  0.2356
20632W        W63685  12.426   3.579  19.686  0.1773  0.2417 -0.0057
20633W        W63686  25.479  34.496   3.996  0.0137  0.0349  0.0869
20634W        W63687  20.778  10.861   7.227  0.1143 -0.1655 -0.0196
20635W        W63688  22.509  11.231   7.392 -0.2866  0.1540 -0.3265
20636W        W63689  29.776  26.174   3.949  0.0539  0.0723  0.1770
20637W        W63690  26.411  25.285   8.748 -0.2978 -0.2492 -0.1546
20638W        W63691   5.548   5.881   4.112 -0.3180 -0.0689  0.0894
20639W        W63692  32.024  11.641  25.966  0.2119  0.1535 -0.1341
20640W        W63693   2.280  26.738   1.051 -0.0422  0.0884  0.0976
20641W        W63694  21.870  19.978   9.793  0.2568  0.2137  0.2932
20642W        W63695  28.281   3.607   9.830  0.2802 -0.1699 -0.1100
20643W        W63696  15.061   7.332   2.602 -0.0454 -0.0328  0.0130
20644W        W63697  28.944   3.376  24.594 -0.0055 -0.1921  0.1777
20645W        W63698   3.481  10.039  19.736  0.2448 -0.3250  0.1183
20646W        W63699  26.252  33.434   9.718 -0.2049 -0.1304  0.1928
20647W        W63700  19.980  11.799  23.907  0.1406  0.2613  0.1939
20648W        W63701  22.503   2.519   3.821  0.0151  0.2173 -0.1736
20649W        W63702  16.540  29.114  15.169 -0.0855 -0.0814 -0.5813
20650W        W63703   0.098  33.465   3.833 -0.1452 -0.0109  0.3544
20651W        W63704   1.025  19.583   3.814 -0.4543  0.3238  0.1027
20652W        W63705   9.228  12.718   2.622  0.2037  0.0260  0.0179
20653W        W63706  22.441  22.592   0.395 -0.1527 -0.0985 -0.3012
20654W        W63707  17.343  14.042  24.165 -0.0815 -0.1329  0.2194
20655W        W63708   2.897   7.373   5.142 -0.1713  0.0020 -0.0302
20656W        W63709  10.946   6.743   7.791  0.4216  0.0541  0.0057
20657W        W63710  11.420   0.055   4.974 -0.4684 -0.0494 -0.1163
20658W        W63711  17.864  18.146  28.966  0.5413 -0.0894  0.0616
20659W        W63712  28.439   9.809   8.753 -0.2196  0.3488  0.3031
20660W        W63713  34.682   4.917   8.407  0.2945 -0.2229  0.2885
20661W        W63714  23.696   7.385   5.441  0.0387  0.1475  0.2563
20662W        W63715  23.560  11.528   5.523  0.1846  0.1660  0.2659
20663W        W63716  24.928   1.874   4.707  0.3745 -0.1691 -0.0351
20664W        W63717  13.698  28.209  23.969  0.3294 -0.1191  0.0976
20665W        W63718  16.718  12.908   6.986  0.0755  0.0015  0.1650
20666W        W63719   1.535  20.232  26.443  0.2430  0.2196 -0.3866
20667W        W63720  10.311   7.601  28.366 -0.1279 -0.0893  0.0246
20668W        W63721  16.199  31.965   9.164  0.0015 -0.2098  0.0343
20669W        W63722  15.477  23.302   1.508 -0.0822  0.0802 -0.2310
20670W        W63723   2.291   3.472   6.776 -0.1515  0.1382  0.4032
20671W        W63724  11.232  12.054   9.915 -0.0161  0.1505  0.1589
20672W        W63725  30.779  33.759   5.848 -0.0914  0.0407  0.0323
20673W        W63726  26.873   6.021   7.107 -0.3111  0.0746 -0.1381
20674W        W63727   5.921   6.098  21.045 -0.0119 -0.4247 -0.0586
20675W        W63728  25.555   6.286  18.294  0.2291 -0.0539 -0.1077
20676W        W63729   0.068  21.718   6.972 -0.2104  0.0081  0.2683
20677W        W63730  16.986   7.237  16.108 -0.1869  0.1978  0.0377
20678W        W63731  19.343  31.039  25.947 -0.0895  0.0646  0.1160
20679W        W63732  26.260   2.278   9.500  0.2969 -0.1971 -0.2185
20680W        W63733  26.753  34.049  29.094  0.3070  0.0173 -0.0472
20681W        W63734  29.255   8.734   0.860 -0.0802  0.2499  0.0937
20682W        W63735  18.638   4.909   7.336 -0.2544  0.0645 -0.0308
20683W        W63736   7.617  13.495   2.100 -0.0899 -0.0443 -0.1038
20684W        W63737  24.788  11.144   5.604 -0.4459  0.0103 -0.1131
20685W        W63738  19.287   5.785  16.192  0.1090  0.2061 -0.0559
20686W        W63739  19.091  23.655   4.028  0.2252  0.2273 -0.1242
20687W        W63740  27.249  21.306  27.823 -0.1561  0.0028 -0.2001
20688W        W63741  20.353   3.089   1.175 -0.1468  0.3927  0.1466
20689W        W63742  15.573   8.330  26.076  0.1108  0.0301  0.1310
20690W        W63743   4.718  11.179   9.994 -0.1063  0.0441  0.2815
20691W        W63744  12.249  10.387  11.319 -0.0601 -0.0669  0.1588
20692W        W63745   3.077  27.935   3.288 -0.1813  0.0231  0.4158
20693W        W63746  16.812  31.471   7.294 -0.5568  0.2311  0.0116
20694W        W63747  32.288  32.088   9.414  0.0235  0.0644 -0.0388
20695W        W63748  19.611   8.158  27.832 -0.2283 -0.2024 -0.0884
20696W        W63749  32.490   0.478   5.704  0.0747  0.1272 -0.3639
20697W        W63750  23.511  20.485  27.013  0.2511  0.3069  0.0615
20698W        W63751  30.914  17.908   6.060  0.3218 -0.0726 -0.0830
20699W        W63752  24.091   2.444   1.922 -0.2387  0.1751 -0.1254
20700W        W63753  25.064  13.207   8.629 -0.0128 -0.0927  0.4649
20701W        W63754  20.855   2.442  24.158  0.1911  0.1786  0.1518
20702W        W63755  30.322   3.857   4.686  0.2203  0.1614 -0.1752
20703W        W63756  32.166   7.674   5.293 -0.2423 -0.0126  0.2605
20704W        W63757  32.801   8.803   6.357 -0.1289 -0.5300 -0.1049
20705W        W63758  20.166  11.269   7.766  0.1274 -0.0278  0.1627
20706W        W63759  27.708  34.394   5.353 -0.0089 -0.3477 -0.1015
20707W        W63760  34.038  12.501   0.382 -0.0837 -0.1948  0.5410
20708W        W63761  23.581  12.004   5.062 -0.0333 -0.1319  0.0086
20709W        W63762  23.520  31.352   2.280  0.0247  0.1414  0.0492
20710W        W63763  21.901  19.194   0.257  0.0891  0.2051  0.1845
20711W        W63764  27.597  24.573  26.918 -0.0735 -0.1384 -0.4526
20712W        W63765  25.695  27.707   9.219  0.0178  0.2995 -0.1347
20713W        W63766  15.452   0.830   5.291  0.1148 -0.0241  0.3669
20714W        W63767  26.807  30.703  28.406 -0.1921  0.0588  0.2589
20715W        W63768  26.052   1.185   7.390  0.3586  0.1325  0.1689
20716W        W63769  14.666  18.064   6.677 -0.0843  0.1748  0.0174
20717W        W63770  21.874  34.562   9.459 -0.0269  0.0378 -0.0416
20718W        W63771  33.078  16.473   5.934 -0.1817 -0.2125  0.2554
20719W        W63772   1.981  33.280   7.164 -0.2548  0.1605 -0.1422
20720W        W63773  13.800  12.508  25.035  0.2993 -0.0855 -0.4841
20721W        W63774  13.662   6.724   4.985 -0.0215 -0.2220  0.0448
20722W        W63775  25.978  33.746   4.142 -0.0348 -0.4265 -0.0154
20723W        W63776  29.509   3.681  22.230  0.1654  0.0941  0.0826
20724W        W63777  11.936  17.702   0.743  0.1978  0.0612 -0.0923
20725W        W63778   4.191   9.265   0.063 -0.3830 -0.2121  0.1502
20726W        W63779  27.254  12.003   7.790  0.0112 -0.0305 -0.0661
20727W        W63780  26.073   1.811  23.869  0.1581 -0.2123  0.0635
20728W        W63781  16.488   7.181   6.637 -0.2171 -0.3383 -0.2684
20729W        W63782  14.797  17.012   9.844  0.1778 -0.0358  0.1628
20730W        W63783  13.553  27.910   3.814  0.2866 -0.0206 -0.1612
20731W        W63784  32.917   2.091  27.763  0.2145  0.0787 -0.1876
20732W        W63785   9.422  30.725   9.534 -0.1568  0.0184 -0.0671
20733W        W63786   7.399  29.031  28.740 -0.1811  0.3196  0.2802
20734W        W63787  16.917  29.634   3.437 -0.2803 -0.0193 -0.1130
20735W        W63788   8.986   1.075   2.328 -0.2459  0.4594  0.1080
20736W        W63789   7.613   0.697  18.680 -0.1123  0.1179 -0.4391
20737W        W63790  18.625  19.100   9.618  0.0974  0.1774  0.1345
20738W        W63791  23.205   6.562  24.775  0.1676  0.0568 -0.1102
20739W        W63792  12.688  20.283   4.915  0.1120 -0.0998 -0.5056
20740W        W63793   1.207   0.108   7.564  0.0745  0.0354 -0.1436
20741W        W63794  29.567   9.805   9.632 -0.2278  0.2364  0.2848
20742W        W63795  29.682  17.940   5.212 -0.1182 -0.0985  0.3062
20743W        W63796   8.644  34.003   6.793  0.2814 -0.1524 -0.0511
20744W        W63797  30.179  30.234   0.850  0.3258 -0.0897 -0.0745
20745W        W63798  14.118  17.597   4.527  0.3738  0.3142  0.2094
20746W        W63799  34.501   0.924   7.451  0.2155  0.1836  0.2159
20747W        W63800  12.901  30.228   1.486  0.1481 -0.1937  0.1733
20748W        W63801  31.695  13.570   0.692 -0.0837  0.0858 -0.0230
20749W        W63802  12.329  15.466  25.703 -0.2006  0.0175 -0.1134
20750W        W63803  17.422   2.085  23.065 -0.2804  0.0202 -0.0399
20751W        W63804  26.013   6.342   9.236 -0.1568 -0.1071  0.1959
20752W        W63805  20.648   4.644  23.339  0.0243 -0.0389  0.3815
20753W        W63806  16.324   7.365  15.078  0.0982  0.1412  0.0078
20754W        W63807  18.841  32.003   8.325  0.0925 -0.0579 -0.3572
20755W        W63808   6.913   9.187   7.120  0.0443 -0.2996 -0.0757
20756W        W63809  22.549  23.710  20.395 -0.2797  0.0661 -0.1376
20757W        W63810  32.667   2.532   6.493 -0.1029 -0.0549  0.2167
20758W        W63811  23.943   8.812  24.651 -0.0944  0.0952  0.1040
20759W        W63812   4.530  27.772   5.405 -0.0810  0.0462  0.2702
20760W        W63813   5.770  13.450   6.745 -0.0724  0.1014  0.2061
20761W        W63814  29.616  33.871   1.308  0.0840  0.0783 -0.0022
20762W        W63815  26.680   4.542  27.314  0.1880 -0.1738 -0.0423
20763W        W63816   7.652  19.697   2.434  0.2135 -0.1073 -0.0918
20764W        W63817  19.617  27.650  28.821  0.0140  0.2756 -0.0077
20765W        W63818  21.710  18.025   2.972 -0.0042 -0.1570 -0.2909
20766W        W63819  32.972  13.968   6.106  0.0820 -0.2487 -0.2220
20767W        W63820  22.908   0.479   7.236  0.1027 -0.0179  0.1498
20768W        W63821  18.674  12.364  27.327 -0.3712 -0.1202 -0.0945
20769W        W63822  32.447  34.526   8.026  0.0232  0.2056 -0.0417
20770W        W63823  28.299  20.822   2.969  0.1446 -0.2611  0.1917
20771W        W63824  21.847   7.376  26.281 -0.0345  0.2541  0.0560
20772W        W63825  12.397  33.324   6.913  0.1124 -0.4287  0.4176
20773W        W63826  24.523  14.644  27.475 -0.1014  0.2163 -0.0525
20774W        W63827  34.603   0.681   5.507  0.1628  0.4573 -0.2494
20775W        W63828  19.394  25.556   2.894  0.0357  0.4312 -0.0429
20776W        W63829   6.389  15.007   7.837  0.1956  0.1664 -0.0535
20777W        W63830  24.268  13.915   8.795 -0.0232 -0.0453  0.0844
20778W        W63831  25.630  26.541  21.382  0.1153  0.0745  0.1580
20779W        W63832  24.855  24.245   2.211 -0.2309  0.0053 -0.5237
20780W        W63833  24.579   0.267   1.822  0.2650 -0.2071  0.1066
20781W        W63834  13.412   8.456   4.674  0.5271  0.0818  0.0124
20782W        W63835   0.444  26.613   0.723  0.1011 -0.1749 -0.1106
20783W        W63836  23.371  34.121   0.660  0.4451  0.0236 -0.0622
20784W        W63837  33.839  13.387  26.608  0.0489 -0.1703  0.0663
20785W        W63838  26.119   5.858   9.511  0.0120 -0.0238  0.0344
20786W        W63839  18.807  11.953   9.778  0.0309  0.0288  0.1474
20787W        W63840   2.455   4.290   8.224 -0.3559 -0.0351 -0.4732
20788W        W63841  15.569   6.746   7.712 -0.1651 -0.0383 -0.3005
20789W        W63842  32.262  32.105  25.889  0.1958 -0.2140  0.1022
20790W        W63843  29.951  12.601   4.192 -0.1618 -0.0507 -0.0477
20791W        W63844  19.988  27.751   0.075 -0.1218 -0.2085  0.1640
20792W        W63845  25.539  25.132  24.119  0.0637  0.1572  0.4323
20793W        W63846   2.149   1.621  26.470  0.2263 -0.2749  0.3083
20794W        W63847  19.055   9.429   8.974 -0.1785 -0.0214  0.1028
20795W        W63848   5.370  11.754  24.149  0.4053 -0.1736  0.1743
20796W        W63849  32.502   5.961   6.257  0.1127 -0.0711  0.0399
20797W        W63850   6.197  27.218  27.993 -0.0391  0.3409 -0.0723
20798W        W63851   2.629  15.518   1.886 -0.1485 -0.1264 -0.0189
20799W        W63852  20.548  22.365   4.711 -0.0530 -0.1245 -0.1121
20800W        W63853  10.342  11.001   5.589 -0.0328 -0.1972 -0.2131
20801W        W63854  27.582  11.165  18.626  0.2060 -0.0973  0.0862
20802W        W63855  14.083   1.522   6.660  0.1802  0.1215  0.1947
20803W        W63856  20.490  20.674   5.554  0.0976 -0.0463 -0.0580
20804W        W63857  22.556   8.571  23.564 -0.2901 -0.2800 -0.0278
20805W        W63858  15.807  13.377   8.615  0.1463  0.2309 -0.1720
20806W        W63859  16.499   8.024  23.543  0.1522  0.0505 -0.1807
20807W        W63860  12.801   3.400   3.447 -0.1817  0.0446  0.2729
20808W        W63861   9.644  10.779   4.212  0.1003  0.0608  0.2808
20809W        W63862  29.815  12.380   8.040 -0.3770 -0.1479 -0.1406
20810W        W63863   7.448  23.838   9.961  0.1125 -0.0613  0.2970
20811W        W63864  19.020  15.573   9.086  0.1347 -0.1717 -0.2111
20812W        W63865  12.336  11.516   9.106  0.0707  0.0162 -0.1999
20813W        W63866  12.611  25.188   9.143 -0.0049  0.2649 -0.0127
20814W        W63867  19.027   2.652  10.712 -0.0358  0.1052  0.0261
20815W        W63868  16.419   6.026  10.767  0.0868  0.4095 -0.1727
20816W        W63869  18.954  15.174   6.358 -0.2589  0.0953  0.0280
20817W        W63870  20.489  28.581  22.271 -0.2283  0.1201  0.0164
20818W        W63871  22.017   9.380   3.436 -0.1911 -0.1020 -0.0916
20819W        W63872  25.968  32.837   3.447 -0.0258  0.0428 -0.0583
20820W        W63873  19.936   7.307  26.814 -0.0626 -0.2125 -0.0316
20821W        W63874  29.664   0.707  28.700  0.4761  0.0883 -0.1818
20822W        W63875  29.756  17.910   9.429  0.0702 -0.2018  0.0306
20823W        W63876  16.267  32.616   5.770  0.0733  0.1167  0.2185
20824W        W63877  19.701  24.212   9.937 -0.1665 -0.1621 -0.2103
20825W        W63878  21.794  27.174   7.081  0.2923  0.0148  0.3084
20826W        W63879  11.767  15.753  16.473 -0.2395  0.0638 -0.0663
20827W        W63880  19.384   7.845  23.223  0.1859 -0.1492 -0.2530
20828W        W63881  23.074  24.035   1.880  0.3134  0.1143 -0.1201
20829W        W63882  32.308   4.088   0.289  0.0283  0.0361 -0.1779
20830W        W63883  15.305   6.116   8.139 -0.0082 -0.2698 -0.1906
20831W        W63884  25.365  23.272   5.847  0.0591 -0.0066 -0.0666
20832W        W63885  29.609   1.526  15.418 -0.0244  0.0346 -0.1612
20833W        W63886  11.087  19.249   9.759 -0.1967  0.0818  0.0206
20834W        W63887  14.810  12.166   8.356  0.0174 -0.0115 -0.2067
20835W        W63888  25.337   5.031   6.201 -0.0414  0.0397 -0.2296
20836W        W63889   7.865  10.051   3.403  0.2955 -0.2109  0.0677
20837W        W63890  27.936  11.894  25.144  0.2657 -0.2185 -0.0540
20838W        W63891  16.316  21.138   4.510 -0.3204 -0.0852 -0.4075
20839W        W63892  24.024   1.196  23.302 -0.0871  0.1473  0.0195
20840W        W63893  16.187  11.400  14.206  0.2038  0.1822 -0.2325
20841W        W63894   2.577   9.832   6.437  0.1907  0.0951 -0.3446
20842W        W63895  21.864   5.854   9.457 -0.3243  0.1394  0.1064
20843W        W63896  22.693   7.213   4.572  0.0136  0.1209  0.0584
20844W        W63897  17.998   4.509   3.235  0.0386  0.1256  0.0477
20845W        W63898   8.145  12.820  10.250 -0.1262  0.2192 -0.2721
20846W        W63899  10.099   3.945   4.765  0.2299 -0.3225 -0.1991
20847W        W63900  19.000   1.967   7.428 -0.0915  0.2778 -0.4161
20848W        W63901  34.242   8.001   8.931  0.1113  0.0541 -0.0075
20849W        W63902  26.190  15.191   8.079  0.0366  0.0692 -0.1010
20850W        W63903   3.965  13.998   7.902 -0.2288  0.0090 -0.1200
20851W        W63904  13.923  23.975  25.805  0.2778  0.2778 -0.1564
20852W        W63905  12.011  16.893   3.322 -0.2430 -0.4073 -0.2247
20853W        W63906  12.463   6.553   9.780  0.1510  0.0114  0.2183
20854W        W63907  23.148  11.093   1.951  0.1205  0.1692 -0.1462
20855W        W63908  31.346   2.966   3.600  0.4893  0.0973 -0.1227
20856W        W63909  25.338  29.158   0.391  0.1145 -0.5053  0.1010
20857W        W63910  12.921   2.600  18.257 -0.2131  0.3491  0.0798
20858W        W63911  23.786   1.124  10.185 -0.0738 -0.1859  0.2865
20859W        W63912  26.247   5.294   3.482 -0.5100  0.0034  0.2511
20860W        W63913  21.785  21.637  25.539  0.3490  0.1980 -0.0347
20861W        W63914   9.222  20.675  16.756 -0.2009  0.0486  0.1101
20862W        W63915  27.842   1.128   2.943  0.0458  0.2575 -0.1028
20863W        W63916  27.464   9.455  10.800 -0.3209 -0.1538  0.1893
20864W        W63917  12.506   5.877  24.760  0.1773 -0.4229  0.0684
20865W        W63918  27.393   9.664   5.990 -0.0966 -0.0787 -0.5649
20866W        W63919  29.307   1.967   1.516  0.0145  0.1234 -0.2325
20867W        W63920   9.168  13.843   9.950 -0.2285  0.1106  0.3925
20868W        W63921   0.477   7.511   8.609 -0.0977 -0.3919 -0.2646
20869W        W63922   9.031  32.587   0.140  0.0425  0.4152 -0.2368
20870W        W63923   8.184   0.511   4.659  0.3175 -0.0569  0.1996
20871W        W63924   0.692  28.325   0.010 -0.2032  0.0562 -0.2858
20872W        W63925  33.658  30.708   9.326 -0.0172 -0.0297 -0.2385
20873W        W63926   5.390   9.285   8.218  0.1673  0.0798 -0.1672
20874W        W63927  15.723  11.043   3.341  0.0535  0.0181  0.0035
20875W        W63928  13.925   2.513   2.682 -0.0364 -0.4460  0.1904
20876W        W63929  32.521   5.366  28.449 -0.0618  0.3051  0.0417
20877W        W63930   6.914   4.680   7.627  0.0132 -0.3622  0.2551
20878W        W63931   8.305  21.877   1.393 -0.2988 -0.0882  0.0411
20879W        W63932  15.445  11.300   1.666 -0.2799  0.4615  0.1335
20880W        W63933  22.193   3.955   0.032  0.1416  0.1208  0.0348
20881W        W63934  15.415  31.624   5.448  0.2162 -0.1546 -0.0579
20882W        W63935   4.224  28.121  26.845 -0.2918  0.0054  0.1633
20883W        W63936  27.342  12.190  27.787  0.3179  0.0580  0.4723
20884W        W63937  27.336   7.062  20.933  0.0440  0.2830 -0.1088
20885W        W63938  18.095  11.433   5.579  0.0296  0.3277 -0.0744
20886W        W63939   2.542   3.207   0.504 -0.1814  0.2866  0.0244
20887W        W63940  28.213   7.581  22.719  0.0490 -0.1891  0.2126
20888W        W63941  21.470  12.374   9.336 -0.0984 -0.2405  0.1761
20889W        W63942  14.342  29.093   7.232 -0.0285  0.1773 -0.0288
20890W        W63943  24.865  14.672   2.366  0.1347 -0.0970  0.1148
20891W        W63944  22.538   6.015  25.882 -0.2110  0.0308 -0.0354
20892W        W63945  11.126  21.017   4.968 -0.0170 -0.0353 -0.0314
20893W        W63946   6.293   2.529   7.616  0.4944 -0.0344  0.1672
20894W        W63947  24.367   9.658   1.129 -0.0876 -0.0302 -0.0964
20895W        W63948   0.488   1.745  25.865  0.0433 -0.0435  0.1499
20896W        W63949  15.925   0.856   1.060 -0.1342 -0.2575  0.1545
20897W        W63950  11.559  33.281  28.676  0.2129 -0.0654 -0.2583
20898W        W63951  24.162  11.363  25.479  0.2752 -0.1758 -0.2710
20899W        W63952  13.373  31.894   3.635  0.1948 -0.0696 -0.2712
20900W        W63953  22.643   9.918   5.001  0.3849  0.1626  0.1056
20901W        W63954  21.337  12.240   7.111  0.1551  0.0338 -0.0473
20902W        W63955  34.372   3.377   9.271 -0.0426 -0.1860  0.3278
20903W        W63956  16.627  23.976  15.317  0.0106 -0.0649  0.0908
20904W        W63957  30.650  13.694  11.104 -0.2656  0.0405  0.4530
20905W        W63958  31.788   1.585  26.748 -0.2136 -0.0611  0.1219
20906W        W63959   0.744   0.697   8.424  0.1223 -0.1392  0.1725
20907W        W63960  27.543   9.793   9.798  0.2578 -0.1888  0.1588
20908W        W63961  22.009   7.159   7.532 -0.4308  0.2829  0.1930
20909W        W63962  27.392  33.504  26.826 -0.0964  0.1999  0.2335
20910W        W63963  21.261  24.126   9.996 -0.1251 -0.1157  0.0678
20911W        W63964  30.778  18.043  14.392  0.1506 -0.3271  0.0887
20912W        W63965   9.481  29.812  19.719 -0.3122 -0.2754  0.0911
20913W        W63966  28.560  33.638   2.489  0.1308  0.2379 -0.2834
20914W        W63967  22.340  13.386  25.057 -0.1282  0.1250  0.1608
20915W        W63968  10.801   7.147  27.611 -0.0347  0.0602  0.2303
20916W        W63969  16.346  32.482   7.801  0.0434  0.1061  0.1973
20917W        W63970  24.668  14.786  26.072 -0.1567  0.0958 -0.3219
20918W        W63971  25.013   5.879   6.457  0.0262 -0.1023 -0.1860
20919W        W63972  15.841  13.119   3.585  0.2599  0.0685  0.3884
20920W        W63973  20.104  11.036   4.778  0.1822 -0.1834  0.3216
20921W        W63974  15.409  12.652   4.396  0.0441  0.1773 -0.2545
20922W        W63975  29.582  22.997   4.851 -0.0548  0.2077 -0.1031
20923W        W63976  22.316  23.736  21.916  0.3119 -0.0209 -0.0005
20924W        W63977  17.415  11.992  19.000 -0.0762 -0.0721  0.0583
20925W        W63978  20.437   0.556   6.643 -0.0131  0.3083 -0.2709
20926W        W63979   6.841  28.725   6.140  0.1012 -0.0127 -0.1109
20927W        W63980  20.716  13.839  27.264  0.2387  0.0750  0.1104
20928W        W63981   7.796  27.379   3.578 -0.1261  0.0386  0.1136
20929W        W63982  22.943  11.094   9.262  0.1352 -0.0881 -0.0671
20930W        W63983  31.369  18.696  20.293 -0.3135 -0.2593 -0.2587
20931W        W63984  19.173   4.106  10.610 -0.0514  0.1343  0.1019
20932W        W63985  13.865  29.355  10.040  0.3203  0.2360 -0.0244
20933W        W63986  33.316   6.350  28.238 -0.1597 -0.1663 -0.0037
20934W        W63987  26.822  16.501   7.910  0.1184 -0.0507 -0.3734
20935W        W63988  27.723  29.195   1.658 -0.2224 -0.1209 -0.0220
20936W        W63989   3.199  14.972   1.483  0.0617 -0.0324 -0.1382
20937W        W63990  14.507  24.770   2.011 -0.0815 -0.0661 -0.0402
20938W        W63991  34.374  12.514   7.694  0.0734 -0.3959  0.2859
20939W        W63992   4.101  30.689  19.345 -0.0585  0.3364  0.0859
20940W        W63993  21.396   0.345   5.697  0.0430  0.0231 -0.0480
20941W        W63994   9.458  14.194   8.057  0.2914 -0.4505 -0.1536
20942W        W63995  28.360  12.841  15.598  0.0438 -0.2290  0.0440
20943W        W63996  17.206  29.849   0.960  0.0970  0.3051  0.1457
20944W        W63997  29.569  11.801   9.779 -0.0413  0.2268  0.0753
20945W        W63998  21.861   7.045   6.593 -0.0712 -0.2343  0.2129
20946W        W63999  11.061  16.186   1.405  0.2070  0.3257  0.0113
20947W        W64000  27.727   4.273  10.216 -0.2609  0.0590 -0.3514
20948W        W64001  25.773   5.614   6.593 -0.1933 -0.0345 -0.2863
20949W        W64002  33.849  10.177   1.925  0.2022  0.0071 -0.1556
20950W        W64003  22.178   2.325   5.746  0.1816  0.0588 -0.3115
20951W        W64004  19.271  27.431   9.213 -0.1645 -0.0520  0.1570
20952W        W64005  14.241  20.119   6.707 -0.0675  0.0255  0.1173
20953W        W64006  20.629  34.029   9.372 -0.2020 -0.0810  0.2984
20954W        W64007  14.811   8.941   6.691 -0.0151  0.1537 -0.0043
20955W        W64008  20.889  31.771   9.476 -0.0290 -0.0702  0.0310
20956W        W64009  30.253   5.433  24.584  0.0078 -0.0334 -0.0812
20957W        W64010  28.603  10.076   2.484  0.1816  0.2315 -0.0982
20958W        W64011   6.181  13.168  19.025 -0.2397  0.0675  0.0790
20959W        W64012  26.413  17.946   1.381 -0.0422  0.1092  0.2111
20960W        W64013   0.998  27.449   4.640 -0.0147 -0.0957  0.1032
20961W        W64014  22.974  20.418  29.143  0.2133 -0.0014  0.2367
20962W        W64015   5.453   2.991   5.842 -0.2916  0.0100  0.1049
20963W        W64016  32.945   9.640   2.293 -0.1576 -0.0897  0.1138
20964W        W64017  24.763   4.179   7.810  0.1063  0.0691  0.4481
20965W        W64018  28.367   5.583  25.635  0.2950 -0.1829  0.4587
20966W        W64019   0.964   1.687   5.020  0.0344  0.3094 -0.1774
20967W        W64020  27.283   8.361   2.841 -0.0164  0.3125 -0.1407
20968W        W64021  20.080  13.765   7.546 -0.2129 -0.2381 -0.1371
20969W        W64022  10.695   5.724   7.415  0.1500 -0.2910 -0.1016
20970W        W64023  20.890  23.173   2.109 -0.2851 -0.0324 -0.0879
20971W        W64024  22.865  14.909  26.221  0.0150 -0.0393 -0.0452
20972W        W64025  19.177  31.630  10.234 -0.2194  0.2210 -0.0029
20973W        W64026  16.504  30.541  28.639  0.0046 -0.1840  0.0819
20974W        W64027  16.599   9.972  28.982  0.3110  0.3161 -0.1814
20975W        W64028  26.902   8.999   5.496  0.1443 -0.2277  0.2879
20976W        W64029   4.902  33.369   8.729  0.2019  0.1673  0.2078
20977W        W64030  13.260  13.437  27.441  0.0140  0.1100 -0.1053
20978W        W64031  19.928  11.740  28.517  0.1839  0.2769 -0.2018
20979W        W64032  18.024  25.025  10.418 -0.2259 -0.1962 -0.1891
20980W        W64033  17.785  10.676   5.657 -0.3514  0.0603  0.0433
20981W        W64034  23.286  14.522   5.732  0.1087 -0.1865  0.0074
20982W        W64035  18.192   7.603   0.192  0.0959 -0.2768 -0.2436
20983W        W64036  22.182  26.876  27.264 -0.1330  0.0767 -0.0011
20984W        W64037  20.335  27.758   7.516  0.3302 -0.0348  0.1503
20985W        W64038  25.017  27.540  20.321  0.1457  0.2788  0.0714
20986W        W64039  27.555  13.862  27.151  0.2419  0.0594  0.0865
20987W        W64040  16.196   1.933   1.916  0.2001  0.1738 -0.1641
20988W        W64041  31.811   4.051   9.462  0.1538 -0.0285  0.0424
20989W        W64042  20.030   0.767   9.804 -0.0665  0.0769  0.3563
20990W        W64043   9.430   5.708   9.477 -0.3214  0.3490 -0.0537
20991W        W64044  28.610  27.928   7.374  0.3347 -0.0209 -0.1024
20992W        W64045  30.586  19.831   7.029 -0.2929 -0.0244  0.5721
20993W        W64046   4.711   2.899   7.905  0.0470  0.1435  0.2333
20994W        W64047  24.663   0.457   7.737 -0.0917  0.0068  0.1107
20995W        W64048   6.786   5.890  25.103 -0.0823 -0.1063 -0.0029
20996W        W64049  22.473  17.294   6.649 -0.3704 -0.2736  0.1898
20997W        W64050  26.702   1.754   4.697 -0.1336 -0.1316 -0.0349
20998W        W64051  21.922  32.813   7.798  0.2183  0.1679 -0.2059
20999W        W64052   1.458   5.117   8.437  0.1227 -0.0298  0.0571
21000W        W64053  30.876   7.948   2.801 -0.1640 -0.1846  0.0419
21001W        W64054  15.915  10.010  15.236 -0.2115 -0.2844 -0.0715
21002W        W64055  20.920  22.775  29.138 -0.0334  0.0092 -0.0168
21003W        W64056  23.761   6.126   0.528  0.0428  0.1078  0.2482
21004W        W64057  27.417   8.322  21.980  0.2953 -0.3580 -0.0532
21005W        W64058  16.629   0.970  25.320  0.2486 -0.0219 -0.1467
21006W        W64059  22.213   0.797   7.213 -0.0074  0.4792 -0.1557
21007W        W64060  22.278  11.769   5.388 -0.2976 -0.2290  0.0840
21008W        W64061   7.414  11.477   4.872 -0.0568 -0.2291  0.1220
21009W        W64062  22.268  27.477   1.186 -0.1853 -0.0710 -0.3566
21010W        W64063   0.460  32.554  24.563 -0.0684  0.0635  0.1356
21011W        W64064   5.806   4.945   3.908 -0.0309  0.0372  0.1270
21012W        W64065  26.194  12.839  28.262 -0.3133 -0.1305  0.1075
21013W        W64066  29.734  25.816  26.073 -0.2985 -0.4457 -0.1743
21014W        W64067   5.107  16.797  26.285 -0.1286  0.0478 -0.1103
21015W        W64068  24.517  11.283   2.520 -0.2225 -0.1879 -0.1023
21016W        W64069  23.068   3.939   4.623  0.1434 -0.1813  0.1817
21017W        W64070  22.407  18.878  26.296  0.1530  0.2399  0.0339
21018W        W64071  21.199  34.560   0.151  0.0419 -0.0167 -0.1009
21019W        W64072  11.901   2.943  28.272 -0.0918  0.1306 -0.2312
21020W        W64073  22.790  26.687  26.211 -0.1580 -0.0618  0.2673
21021W        W64074  20.098  16.946   6.646 -0.1253 -0.1939 -0.0217
21022W        W64075  34.419   2.829  15.316 -0.1382  0.1498 -0.0375
21023W        W64076  24.383  13.983  28.766 -0.2570 -0.1270 -0.0677
21024W        W64077  26.083  22.165   9.167  0.0963  0.0680  0.2168
21025W        W64078  23.514  33.649   7.414 -0.1236  0.1791 -0.1222
21026W        W64079   2.540  24.350   5.587 -0.0483  0.1486  0.1619
21027W        W64080  24.364   4.991   9.073 -0.1239 -0.3702  0.0176
21028W        W64081   9.782  15.162   6.431  0.0679 -0.5126 -0.0630
21029W        W64082   6.224  14.274   2.520 -0.1449  0.0584  0.3105
21030W        W64083  14.789  10.706   8.569  0.3002 -0.2422  0.0525
21031W        W64084   2.787  11.081   9.256 -0.3611 -0.0377  0.0173
21032W        W64085   6.068  14.885   4.273 -0.2523 -0.0780 -0.0349
21033W        W64086  19.027   3.816   8.784  0.2497 -0.2544 -0.0321
21034W        W64087  28.775  12.059  24.115  0.0354 -0.0010  0.0800
21035W        W64088  30.421   5.858   4.861 -0.2300  0.0616  0.0245
21036W        W64089  22.648  22.035   6.932  0.1780 -0.0413  0.0197
21037W        W64090  20.076  29.104   2.961 -0.0833  0.1149  0.2061
21038W        W64091  24.999   8.500   6.597 -0.1910  0.1925  0.1204
21039W        W64092  32.449  33.624   1.464  0.1367 -0.2431  0.0242
21040W        W64093  20.183  31.691   1.271 -0.0443  0.2468  0.0893
21041W        W64094  28.995   2.258   8.391 -0.0579 -0.2965 -0.0919
21042W        W64095  14.120  15.482  25.404 -0.2157  0.1104  0.0551
21043W        W64096  11.554   9.298   4.051  0.1318 -0.1126 -0.0529
21044W        W64097  21.293  31.757   0.820  0.0877  0.2896 -0.0114
21045W        W64098  11.523  10.670   7.189 -0.1999  0.4462  0.1562
21046W        W64099  26.539  19.445   0.224  0.0995  0.0630 -0.1335
21047W        W64100  22.694  33.024   9.632 -0.1429  0.0070  0.4554
21048W        W64101  28.367  15.807   9.852  0.2641 -0.0278  0.0587
21049W        W64102  27.635   1.429   5.731 -0.0791  0.3036 -0.3609
21050W        W64103  22.502  32.332  21.160  0.0972 -0.0865 -0.2524
21051W        W64104  22.815  12.124  26.424 -0.0009 -0.0897  0.2740
21052W        W64105  18.201  10.220  24.336  0.0746  0.1196 -0.1257
21053W        W64106  18.191  25.050   1.894  0.0038  0.0321 -0.0618
21054W        W64107  10.264  24.607   6.354  0.2756 -0.1362  0.0885
21055W        W64108  33.972  18.246   8.475  0.1223  0.0708 -0.2799
21056W        W64109  21.727  10.217   8.764 -0.0682 -0.2053 -0.0247
21057W        W64110  28.819  21.913   8.699 -0.0691  0.2097  0.2175
21058W        W64111  27.978   1.010  26.876 -0.0628 -0.4916  0.1429
21059W        W64112  25.485   5.162   4.132  0.2402 -0.1820  0.1035
21060W        W64113  17.085  22.897   5.194 -0.3207  0.2856 -0.4186
21061W        W64114  26.914  34.416  25.206 -0.2467 -0.0210 -0.0006
21062W        W64115  21.664   1.013   0.422  0.2240 -0.1189 -0.3494
21063W        W64116  27.032  33.595   9.386  0.2053 -0.1454 -0.6125
21064W        W64117  26.057   5.177   8.809  0.1477  0.0456  0.1023
21065W        W64118  31.129  16.457   8.813  0.0543 -0.1044  0.2808
21066W        W64119   9.676  11.080  26.994 -0.1453  0.3279  0.2654
21067W        W64120  20.209  28.964   4.079  0.2968  0.2435  0.0040
21068W        W64121  27.940  27.579   6.200 -0.0187  0.0832 -0.1279
21069W        W64122   4.207  15.337   7.496  0.2263  0.1115  0.2182
21070W        W64123  22.243   5.277   5.005 -0.0202 -0.1000 -0.2569
21071W        W64124   3.756   3.803   4.116 -0.2015 -0.1572  0.1284
21072W        W64125   2.892  12.269   8.503 -0.1206 -0.1823  0.1654
21073W        W64126  23.817   1.266  19.654 -0.2862 -0.1236  0.1675
21074W        W64127  34.411  12.419   6.726  0.3311 -0.0700  0.2680
21075W        W64128  21.819  11.171  29.069 -0.3147 -0.0216 -0.4512
21076W        W64129  33.212   2.579   5.932  0.0208  0.0220 -0.1192
21077W        W64130  18.771  16.928   3.117  0.0660  0.1007 -0.1309
21078W        W64131  33.400  16.211   3.274 -0.0272 -0.4220  0.0248
21079W        W64132  20.837  18.574   5.864  0.0750  0.0236  0.1800
21080W        W64133  31.891  15.312   8.407  0.1170  0.0128 -0.3519
21081W        W64134  21.948   6.491  20.673  0.0516  0.0302 -0.1860
21082W        W64135   2.427  15.500   7.305  0.1825 -0.3281 -0.0087
21083W        W64136  29.628  17.494  28.176 -0.2196  0.0380 -0.0069
21084W        W64137  25.191  14.996  25.515  0.0127 -0.2905  0.2698
21085W        W64138  31.533   4.955   8.281 -0.0838  0.0701  0.0433
21086W        W64139  11.336  32.036   2.714 -0.0762 -0.2602  0.0455
21087W        W64140  22.624   3.044  18.997  0.0337  0.1010 -0.0540
21088W        W64141  23.965   3.118  29.080  0.0734  0.1394  0.0021
21089W        W64142  31.929   2.015   4.538 -0.4277 -0.0275 -0.2669
21090W        W64143  26.956  29.509   8.284  0.2336 -0.1577 -0.3884
21091W        W64144   7.181  14.201   0.432 -0.1648 -0.1198  0.1427
21092W        W64145  30.246   1.595   3.742  0.0267 -0.2159  0.0426
21093W        W64146  32.885   4.352   2.995  0.0937  0.2533 -0.0285
21094W        W64147  19.390  30.743   7.825 -0.2299 -0.0144  0.0619
21095W        W64148  21.871  33.970   4.827 -0.1609 -0.1013  0.2278
21096W        W64149  31.589  25.377   8.417 -0.0496 -0.0861  0.0662
21097W        W64150  25.058   6.522  25.048 -0.0995 -0.0780 -0.0670
21098W        W64151  26.853   9.907  14.027 -0.1506 -0.0228 -0.1521
21099W        W64152  18.148  24.820   5.326 -0.1100 -0.1106 -0.0935
21100W        W64153  20.414  32.482  29.198  0.1074 -0.2397 -0.1650
21101W        W64154  16.091  28.185   9.370 -0.1557 -0.0718 -0.2512
21102W        W64155  26.188   0.550  29.045 -0.0259  0.1505 -0.0958
21103W        W64156  21.499   3.319   9.170 -0.0964  0.0814 -0.1177
21104W        W64157   9.358  12.092   9.901 -0.1017  0.1552 -0.0558
21105W        W64158  24.532  34.184   6.667 -0.0160  0.4318  0.3022
21106W        W64159  22.664  20.116   8.670  0.2282  0.3211  0.0821
21107W        W64160   2.249  34.280   6.864 -0.1597 -0.4769  0.1023
21108W        W64161  17.777  10.286  10.453  0.0105 -0.0763 -0.1042
21109W        W64162  22.248  19.883   7.795  0.0054  0.1305  0.0302
21110W        W64163  13.174   7.493   0.308 -0.0070 -0.3505 -0.1489
21111W        W64164   6.038   1.184   2.702 -0.1176  0.0920  0.1890
21112W        W64165  23.602   6.926   5.719 -0.1260  0.2280 -0.2065
21113W        W64166  14.422  34.433   2.541 -0.2763 -0.1612  0.1665
21114W        W64167  18.620   6.735  21.768  0.0880  0.3035  0.5235
21115W        W64168   0.993  27.750   8.018  0.1798 -0.0529 -0.1128
21116W        W64169  30.503   2.342   7.739 -0.2427  0.1555 -0.0654
21117W        W64170  32.668  30.713   2.124  0.0721 -0.0514  0.1225
21118W        W64171  29.747   0.185  21.388 -0.0900 -0.3053 -0.1252
21119W        W64172  19.577  14.439   9.343 -0.1107 -0.6311 -0.2831
21120W        W64173  24.176  23.216   0.989  0.0159 -0.1150 -0.2464
21121W        W64174  34.576  33.940   9.616  0.1578  0.1972 -0.2258
21122W        W64175   3.756  31.942   9.207 -0.0700  0.1756 -0.2299
21123W        W64176  34.571  17.312   1.064 -0.0953  0.0586 -0.1965
21124W        W64177  19.888  16.822   7.101  0.0533 -0.0315  0.2449
21125W        W64178  31.875  11.875   6.400 -0.2224 -0.1479 -0.0135
21126W        W64179  25.365   4.710  19.186 -0.0674  0.2131  0.0509
21127W        W64180  14.655  12.451   2.356  0.1362  0.1185 -0.0765
21128W        W64181  29.407   8.648  26.368  0.0683  0.0673 -0.1510
21129W        W64182  20.054  14.804   7.854  0.2286  0.2370  0.2350
21130W        W64183  18.394  12.613  10.051 -0.3224 -0.2980 -0.1449
21131W        W64184  27.976   0.394   9.149 -0.1903 -0.1987 -0.2515
21132W        W64185  32.487   7.471   2.149  0.2788  0.0035 -0.2110
21133W        W64186  19.949  13.950   7.127  0.2096  0.0153  0.0735
21134W        W64187  32.776   0.970   2.895 -0.0455  0.2210 -0.1199
21135W        W64188   0.241  33.115   3.040  0.1068 -0.2167 -0.0942
21136W        W64189  25.990  27.241  10.853 -0.0549 -0.2426  0.0951
21137W        W64190  27.700   7.313  24.452 -0.1012  0.3009 -0.0333
21138W        W64191  33.218  33.031   4.443 -0.0536 -0.2003 -0.2294
21139W        W64192  13.769   4.887   5.755  0.0708  0.0535 -0.0682
21140W        W64193   9.840   9.576   2.945 -0.0083 -0.1021 -0.0259
21141W        W64194  23.735  32.560   1.953 -0.2792 -0.0288  0.2641
21142W        W64195  18.645   3.349   5.267 -0.4350 -0.1244 -0.1307
21143W        W64196  23.327  27.621  25.463  0.3587  0.1034  0.1346
21144W        W64197  11.337  34.452  10.309 -0.1238 -0.0306 -0.0915
21145W        W64198  21.819  22.159   6.385  0.1572  0.0355 -0.1919
21146W        W64199  33.213  13.245   0.669  0.2940 -0.1523 -0.1879
21147W        W64200  29.842  10.199  10.516  0.0260  0.2234  0.2070
21148W        W64201  18.609   9.254   1.777 -0.0143  0.0586  0.2574
21149W        W64202  17.618   2.909   8.582  0.1572 -0.0009 -0.2378
21150W        W64203   0.596  14.686   8.411 -0.0583 -0.0986 -0.3774
21151W        W64204  16.604   8.373   3.267 -0.0009  0.2080 -0.2473
21152W        W64205  16.130  31.525   6.693  0.2428 -0.2431  0.0132
21153W        W64206  30.042  10.759   5.237 -0.2079 -0.3915  0.3902
21154W        W64207  21.535  28.969   9.969  0.4543  0.1884 -0.1639
21155W        W64208  30.333  27.295   5.601  0.1669 -0.1214 -0.0485
21156W        W64209  17.499  25.428   6.835  0.2878 -0.2143  0.0988
21157W        W64210  12.877   2.500   8.064 -0.0975 -0.1667  0.3393
21158W        W64211  26.187  22.009   9.618  0.2949 -0.5497 -0.0554
21159W        W64212  21.631   7.699   2.906  0.3357 -0.0317 -0.0900
21160W        W64213  26.018  29.856   3.201 -0.1467 -0.2345  0.0118
21161W        W64214  28.600  28.006   5.191 -0.1696  0.1794  0.1297
21162W        W64215  14.724  30.402  10.108  0.1107 -0.0020 -0.2989
21163W        W64216  22.149  10.605  25.896  0.2927 -0.4082  0.1353
21164W        W64217  28.134  31.402   4.441 -0.0400  0.0036 -0.1620
21165W        W64218  17.834   4.400   9.682 -0.0361 -0.3411 -0.2742
21166W        W64219  24.462  12.316  27.460  0.0686  0.1266 -0.1402
21167W        W64220  19.370  11.506  24.912 -0.3797 -0.1744 -0.0589
21168W        W64221  30.828  32.275   1.540  0.0347 -0.0386 -0.0995
21169W        W64222  31.618  10.625   7.326  0.0298 -0.0374  0.1221
21170W        W64223  17.047  16.037  28.261  0.0342 -0.0397 -0.2345
21171W        W64224  13.800   8.776   5.067 -0.0215 -0.1294  0.3247
21172W        W64225   3.407   7.463   5.443  0.1474  0.2319 -0.2700
21173W        W64226   9.267   9.476   8.600  0.0385 -0.0604  0.1116
21174W        W64227  24.879  17.575   7.211  0.1022 -0.1803 -0.0979
21175W        W64228  30.172  13.914   8.275  0.1918  0.1594  0.2823
21176W        W64229  28.523  28.866   2.591  0.2808  0.0735 -0.2956
21177W        W64230  22.475  11.494   2.183  0.4264  0.1579  0.0529
21178W        W64231  13.299   6.774   9.927  0.3505 -0.0013  0.3005
21179W        W64232   9.661  16.282  10.234 -0.0828  0.1684 -0.1426
21180W        W64233  18.156  13.561   6.539  0.0078 -0.0479 -0.1585
21181W        W64234  16.166  18.544   0.155 -0.0675  0.3499 -0.1068
21182W        W64235  20.442   0.031   3.332  0.2279  0.0592 -0.1927
21183W        W64236  20.590   3.718   3.641 -0.3287 -0.1459 -0.1792
21184W        W64237  29.385   6.440   2.880  0.0915  0.0982  0.0194
21185W        W64238  24.817  22.311   5.723  0.0352  0.2120  0.2005
21186W        W64239  27.452  10.636   7.135 -0.0575 -0.1451 -0.1670
21187W        W64240  23.822  26.551   2.419 -0.1725 -0.1609 -0.1395
21188W        W64241   0.526   2.290   8.404 -0.0747  0.2113 -0.3383
21189W        W64242  22.428  13.902   9.739 -0.0501  0.2386 -0.1024
21190W        W64243  29.895  29.963   6.091 -0.0841 -0.1294 -0.0184
21191W        W64244  27.456  16.502   5.935 -0.1687  0.0394  0.0915
21192W        W64245  22.242  27.984   4.101 -0.0691  0.0073  0.0234
21193W        W64246   1.782   1.747   8.748 -0.0167  0.0113 -0.0333
21194W        W64247  22.259   9.492   4.938 -0.0199 -0.1200 -0.0260
21195W        W64248  14.126  30.215   7.788  0.1669  0.0837 -0.1688
21196W        W64249  18.864   8.634   5.332 -0.0501  0.0506 -0.4214
21197W        W64250  30.285  17.830   9.367  0.3009  0.0430  0.1511
21198W        W64251  12.307   7.881   7.471 -0.1347 -0.3863 -0.0327
21199W        W64252  20.957   8.431   5.758 -0.0928  0.0580 -0.1458
21200W        W64253  15.184   7.072  17.425 -0.0240  0.3145 -0.0293
21201W        W64254   1.267  19.756   7.594 -0.1104  0.0967 -0.0422
21202W        W64255  29.236  20.108   3.200  0.1661 -0.1431  0.1907
21203W        W64256  17.575   6.741   6.986  0.0260  0.2155  0.0245
21204W        W64257  17.463  30.190  26.195  0.0378 -0.0528 -0.3211
21205W        W64258  27.343   5.369   4.328 -0.1801  0.0809 -0.2599
21206W        W64259  20.849  32.642   9.378 -0.0483 -0.1170  0.1970
21207W        W64260  27.101  12.573   4.825  0.0921 -0.1743 -0.0601
21208W        W64261  16.048   6.958   6.974 -0.1488  0.3008 -0.0749
21209W        W64262  21.648  18.801  25.098 -0.3099 -0.1072  0.3842
21210W        W64263  22.169   5.077   0.802 -0.0952 -0.0190  0.0914
21211W        W64264  14.887  15.376   8.778  0.0735  0.3122 -0.1926
21212W        W64265  34.577   5.843   6.416 -0.0560 -0.2164  0.2489
21213W        W64266  13.707  34.352   7.330 -0.0160  0.2743 -0.1640
21214W        W64267  24.548  21.962  28.664  0.1651  0.1909  0.2974
21215W        W64268  33.384   3.472  25.057 -0.0303 -0.1453 -0.0544
21216W        W64269  33.952  12.304   6.959  0.2526  0.2285 -0.0414
21217W        W64270  26.874  30.550   3.496  0.1556  0.5120 -0.0872
21218W        W64271   4.397   2.131   5.349 -0.2556 -0.1590 -0.0489
21219W        W64272  23.698   5.749  28.831  0.0362  0.2954 -0.2555
21220W        W64273  14.406  27.384   5.412 -0.0047  0.0407 -0.2522
21221W        W64274  17.965   3.098  22.711 -0.2765 -0.1145 -0.0436
21222W        W64275  24.542   4.745   2.379  0.1791 -0.2538 -0.0250
21223W        W64276  28.802   4.433   7.302 -0.1261  0.3086 -0.0867
21224W        W64277  26.801  32.499   1.675 -0.1977 -0.0881 -0.0551
21225W        W64278  31.349  19.773   4.557  0.0838 -0.1517 -0.1272
21226W        W64279  21.818  19.300   6.486 -0.1411 -0.2786 -0.0413
21227W        W64280  22.376  31.493   6.011 -0.3175  0.0485  0.3939
21228W        W64281  22.824  16.273   8.696  0.2286  0.1864  0.3790
21229W        W64282  21.139   3.253   0.090  0.2626  0.2451 -0.1594
21230W        W64283   8.759   3.195   2.684  0.1301  0.1517  0.2030
21231W        W64284  12.418  24.768  19.863 -0.1689  0.1494  0.0692
21232W        W64285  30.654   9.901  27.783 -0.1933 -0.1377 -0.2210
21233W        W64286  26.298   6.061   3.836  0.1223 -0.0183 -0.1308
21234W        W64287   8.180  11.594   0.096 -0.1140  0.1076 -0.0007
21235W        W64288   8.532  10.423   6.034  0.2548  0.1943  0.0104
21236W        W64289  28.313  13.906   8.328 -0.1542  0.2187 -0.1406
21237W        W64290  27.608  22.088   2.368 -0.3136 -0.1442  0.0303
21238W        W64291  18.000  22.485  21.487  0.1057 -0.1866 -0.3441
21239W        W64292   7.342  21.930   3.069  0.0675  0.2985  0.1393
21240W        W64293  23.588   7.556  25.686 -0.0425 -0.1752 -0.1123
21241W        W64294   5.236   3.899   6.525  0.1078  0.2943  0.3759
21242W        W64295  32.058  32.038   7.442  0.0103  0.0752  0.1969
21243W        W64296  21.203   6.798   5.528 -0.0537 -0.0643 -0.0276
21244W        W64297   6.724  33.340   7.090 -0.2603  0.0629 -0.0919
21245W        W64298  30.998  31.074  25.255  0.1499 -0.2822 -0.1257
21246W        W64299  31.566   1.359  28.775 -0.1563 -0.0162  0.0063
21247W        W64300  25.282  32.673  18.119  0.3024 -0.1313 -0.1325
21248W        W64301  16.205  13.737   8.619 -0.2091  0.0452  0.1608
21249W        W64302  26.237   8.460   3.405 -0.2199 -0.0187 -0.0191
21250W        W64303  25.879  28.889   8.790 -0.3698 -0.1666  0.0522
21251W        W64304  18.379   5.675  24.888  0.4660  0.1025  0.2860
21252W        W64305   1.329   7.353   4.141 -0.0958  0.1457  0.0755
21253W        W64306  29.316  17.549  15.759 -0.1634 -0.0073 -0.1458
21254W        W64307  25.834  16.350   3.442 -0.0257  0.0454 -0.2314
21255W        W64308  32.291  33.501   3.652 -0.0216  0.2165  0.1248
21256W        W64309  23.671  32.699   8.712  0.0892 -0.0161  0.0528
21257W        W64310  25.147   0.806   6.569  0.1600 -0.2042  0.2322
21258W        W64311  31.201  12.585  19.545 -0.0921 -0.0821 -0.1063
21259W        W64312  21.602  15.754   6.049 -0.1262 -0.0619  0.0756
21260W        W64313  29.565  28.052  20.191 -0.1645 -0.2157  0.0689
21261W        W64314  33.950  25.966   6.153 -0.1466  0.1502  0.1242
21262W        W64315  22.829  15.411  26.183 -0.0538 -0.0961  0.0416
21263W        W64316  24.834   1.683  18.445 -0.2397  0.1649  0.0435
21264W        W64317  29.674   3.522   0.393  0.1827  0.0484 -0.2838
21265W        W64318  24.493  12.049   2.052  0.2442 -0.1432  0.2170
21266W        W64319  31.532   8.860  15.554  0.1645  0.0370  0.0178
21267W        W64320  25.467   8.367   9.199  0.1065 -0.1003  0.0757
21268W        W64321  20.047  31.633  26.276  0.0293 -0.1762  0.5707
21269W        W64322  32.855  14.560   3.799 -0.1542 -0.1432 -0.0735
21270W        W64323  27.329   3.431  29.165  0.4472 -0.2262  0.1646
21271W        W64324  27.700   4.952  27.804 -0.0682 -0.1181 -0.2353
21272W        W64325   1.422  16.846   4.268 -0.2008  0.0101  0.1348
21273W        W64326  28.741  34.650  23.672 -0.0299 -0.3531 -0.2522
21274W        W64327   3.536  34.162   7.229  0.3556  0.0175 -0.1045
21275W        W64328  24.658  20.555   9.267 -0.1485  0.1240  0.0749
21276W        W64329  30.319  12.850  23.587  0.2321 -0.1272 -0.1396
21277W        W64330   4.284  17.659   5.467  0.0866  0.1094  0.1147
21278W        W64331  33.716  11.774   2.383 -0.1259  0.1194  0.0589
21279W        W64332   0.802  14.533  23.968  0.0107 -0.0971 -0.1582
21280W        W64333  21.920  11.774   7.974 -0.1925  0.3644 -0.2398
21281W        W64334  31.113   1.341  27.625 -0.0732  0.0371  0.3422
21282W        W64335  27.825   8.451  20.681  0.2098  0.1405  0.0767
21283W        W64336  13.543   1.974   3.051 -0.1779 -0.2599  0.0462
21284W        W64337  12.732  12.398   3.657  0.1297  0.1163 -0.1418
21285W        W64338   0.758  15.953   4.152 -0.1102 -0.0945  0.0737
21286W        W64339  20.743   4.096   9.982  0.0281  0.2534 -0.0034
21287W        W64340  18.154   7.890   8.176 -0.1522  0.1161 -0.0826
21288W        W64341   8.867  23.081  25.824 -0.4416  0.1124 -0.0275
21289W        W64342  23.399   7.184  16.676  0.1901 -0.2356  0.1396
21290W        W64343  20.126  27.646   6.342 -0.0218 -0.1935  0.1228
21291W        W64344  28.951  27.542   2.205  0.1099 -0.0088  0.0866
21292W        W64345  13.149  18.352  26.209  0.0093  0.1894  0.2652
21293W        W64346   2.470  30.492  22.366  0.1475  0.1097  0.2626
21294W        W64347   6.851  33.625   1.985 -0.2317  0.0766  0.1287
21295W        W64348  15.155  13.035   6.404 -0.0901  0.1209 -0.1304
21296W        W64349   9.360   4.476   3.860 -0.0587 -0.1820  0.0758
21297W        W64350   5.398  13.587  16.711  0.0541  0.1343 -0.0061
21298W        W64351   9.648  12.051  27.427  0.1802 -0.2229  0.2995
21299W        W64352  11.626   0.824  10.762  0.2065 -0.2271  0.0502
21300W        W64353  12.984  12.542   8.372 -0.1304  0.0336 -0.1296
21301W        W64354  10.594  14.152  29.036  0.1207 -0.0036  0.0244
21302W        W64355   1.042  30.013   0.563 -0.1047 -0.1309  0.0728
21303W        W64356   7.360   3.747   3.964  0.2084  0.0936 -0.2267
21304W        W64357  30.507  24.632  24.930 -0.1231  0.3094 -0.2007
21305W        W64358   9.862  17.192   7.195  0.0230 -0.1901 -0.1579
21306W        W64359  15.264  11.074  27.890 -0.1676 -0.3849  0.0409
21307W        W64360  15.523  33.777  28.066  0.0532  0.0601  0.0839
21308W        W64361  15.004  28.292  26.349 -0.1109 -0.1137 -0.0875
21309W        W64362  28.587  13.043  25.132 -0.3246  0.1600 -0.0639
21310W        W64363  27.001  11.950   5.399 -0.0628 -0.3310  0.0707
21311W        W64364  24.149  26.742   7.480  0.0985 -0.1286 -0.2312
21312W        W64365  34.398   1.559   8.231 -0.1293 -0.0438  0.2861
21313W        W64366  34.375   4.671  14.701 -0.0345 -0.2277  0.0881
21314W        W64367  32.072  29.332   3.243  0.2729  0.1364 -0.1504
21315W        W64368  10.428   6.995   6.493 -0.1709 -0.0127  0.1909
21316W        W64369  22.931  34.365  23.001 -0.1190  0.1734 -0.0030
21317W        W64370  30.084  13.728   6.722  0.2794 -0.2470 -0.1743
21318W        W64371  26.363  23.834   8.262  0.1857 -0.3605  0.1929
21319W        W64372  27.938  18.687   7.671 -0.3700 -0.1086 -0.0850
21320W        W64373   6.347  17.723   2.726 -0.0028  0.2369  0.0393
21321W        W64374  30.750  29.004  18.957 -0.0414  0.0419  0.4540
21322W        W64375  29.459  25.167   1.299  0.0482  0.0675  0.3221
21323W        W64376   4.196   5.177  26.706  0.3118  0.1063 -0.0387
21324W        W64377   4.225   7.302   7.420  0.1701 -0.0602 -0.0625
21325W        W64378  31.719  19.430  20.987 -0.0761  0.0733  0.1005
21326W        W64379  23.912   9.207   6.222  0.3142  0.0107 -0.1188
21327W        W64380  28.714  14.951  15.542  0.0434  0.2417  0.0425
21328W        W64381   8.616  32.241   0.074 -0.0152 -0.1342 -0.4049
21329W        W64382  21.010  17.512   8.425 -0.3653 -0.1843  0.0763
21330W        W64383  26.445  12.566   1.689 -0.2474 -0.1281 -0.2292
21331W        W64384  21.542  31.125  27.060  0.0272 -0.2285 -0.1032
21332W        W64385   6.226  21.614   8.824 -0.1601  0.0149 -0.0671
21333W        W64386  27.810   8.211  15.712 -0.1683  0.3497 -0.1888
21334W        W64387  22.533  21.750  10.658  0.0949 -0.0266  0.4320
21335W        W64388  18.964   4.061   7.175  0.2496 -0.1373  0.1832
21336W        W64389  12.978  33.897  26.561 -0.1860 -0.0800 -0.0567
21337W        W64390  22.503  22.684  26.956 -0.0281  0.0478  0.3428
21338W        W64391  13.179  34.302   5.638  0.1946 -0.1114  0.3021
21339W        W64392  19.960  16.473   3.572 -0.1094 -0.2146 -0.3033
21340W        W64393  31.400  18.216  20.651 -0.0175 -0.0557  0.2137
21341W        W64394   5.626   6.622   7.492 -0.1835 -0.3225  0.0143
21342W        W64395   0.464   8.012   8.503  0.0439  0.0580 -0.0186
21343W        W64396  25.555  30.676   4.996 -0.2410  0.1004 -0.2539
21344W        W64397  18.876   8.661  14.029 -0.1948  0.1860 -0.1337
21345W        W64398  11.314   1.111   3.932 -0.1354  0.1812  0.0109
21346W        W64399  19.690   5.839  18.432  0.1540 -0.0999 -0.0320
21347W        W64400  26.343  32.936   5.144  0.0591  0.1470  0.0138
21348W        W64401  26.549   9.299   5.372  0.0585  0.0349  0.0963
21349W        W64402  24.070  34.605   8.104  0.1204 -0.0355  0.1454
21350W        W64403  14.190  19.339   2.146 -0.0748 -0.1084  0.1408
21351W        W64404  20.149  19.797  18.011  0.0117  0.3802 -0.2448
21352W        W64405  16.524   9.845   3.594  0.0591  0.1836 -0.0177
21353W        W64406   0.467  16.945  21.275  0.3929 -0.0133 -0.1098
21354W        W64407  31.824   6.023   9.207  0.1675 -0.0855  0.5270
21355W        W64408  28.521  18.853  21.445  0.2705  0.1426  0.0901
21356W        W64409  27.541  12.955  20.594 -0.0380  0.0500 -0.0212
21357W        W64410  17.643  11.258   4.118  0.2633 -0.2891  0.2789
21358W        W64411  30.769   8.330  21.067  0.0708  0.0263  0.0549
21359W        W64412   3.653   7.688  15.594 -0.1959  0.0673 -0.0953
21360W        W64413   3.260  31.590   6.633  0.1677 -0.1883 -0.0221
21361W        W64414   2.464   4.219   7.712 -0.2541 -0.1948 -0.2478
21362W        W64415  18.606  12.725   6.323 -0.2234 -0.1513  0.0290
21363W        W64416  21.808  32.002  23.557 -0.0720 -0.0172  0.2222
21364W        W64417   6.882  13.286   5.217  0.2522  0.0003 -0.3100
21365W        W64418  15.826  27.003   6.706 -0.2208 -0.0905  0.3451
21366W        W64419  11.152  24.171  20.191  0.3270  0.0331 -0.0910
21367W        W64420  32.561  11.171  14.827  0.1556  0.0133 -0.1775
21368W        W64421  25.015  30.965   6.193  0.2629 -0.0858 -0.1253
21369W        W64422  17.167  30.324   9.809 -0.0961 -0.1915  0.4565
21370W        W64423  31.797   6.710   3.641 -0.1071 -0.1427 -0.0649
21371W        W64424  22.874  17.118  15.604 -0.0646 -0.0280  0.1250
21372W        W64425  14.297   1.381  20.148 -0.2258  0.0961  0.2872
21373W        W64426  25.945  18.589   7.135  0.0956 -0.2395 -0.0096
21374W        W64427  22.502   6.413   0.747 -0.0034 -0.0860 -0.2782
21375W        W64428  14.272  17.192  28.087  0.3120  0.1506  0.1963
21376W        W64429  28.178  30.338   0.602  0.1602  0.0997  0.1687
21377W        W64430  15.899  32.633  24.455  0.3781  0.0570 -0.1094
21378W        W64431  27.667  29.478  20.645  0.3092  0.2647  0.1235
21379W        W64432  26.092  23.980  22.736  0.1719 -0.2947  0.0926
21380W        W64433  23.591   5.040  26.933  0.0764  0.2198  0.3955
21381W        W64434  19.364  11.808   8.282 -0.1205 -0.1828 -0.0628
21382W        W64435  22.752  33.796   5.527  0.1279  0.1956  0.2241
21383W        W64436  10.182  32.294   6.268 -0.0517  0.0465 -0.0011
21384W        W64437  30.455  25.900   1.254  0.1876 -0.0671 -0.3422
21385W        W64438  33.710  14.210   0.320 -0.1213  0.0548 -0.1602
21386W        W64439  14.659  21.627   4.866 -0.0377  0.2902 -0.1442
21387W        W64440  26.931   9.825  26.821  0.0047 -0.1973  0.1148
21388W        W64441   7.326  10.701   3.663 -0.1451  0.0091  0.0488
21389W        W64442  33.718   8.122  20.179  0.1752  0.0307  0.4676
21390W        W64443  31.624  12.181   1.652 -0.1846  0.1194  0.2302
21391W        W64444  26.685  18.239   1.687 -0.2822 -0.1638  0.2359
21392W        W64445  17.982  31.543   8.191  0.0732 -0.2527  0.0994
21393W        W64446  11.220  15.814  10.409  0.0617  0.2298  0.3645
21394W        W64447   5.761  21.794   5.335  0.0317 -0.0480  0.3152
21395W        W64448  30.413  10.399  25.257  0.1101  0.3075  0.3396
21396W        W64449  11.744  15.449  27.382  0.2976 -0.2443  0.1032
21397W        W64450   1.898  10.177  27.164 -0.2731 -0.0031  0.2433
21398W        W64451  31.552  33.313   7.350 -0.1790  0.1582  0.0112
21399W        W64452  14.072  12.525  19.539  0.1426 -0.0144  0.0583
21400W        W64453  23.300  26.636   2.586  0.1979 -0.0339 -0.3063
21401W        W64454  26.261   1.988   5.854 -0.0297 -0.1428  0.0909
21402W        W64455  29.358  29.148   7.609  0.1422 -0.0438 -0.1718
21403W        W64456  29.774  10.494  15.645  0.0164 -0.2583  0.0559
21404W        W64457   2.669   2.980   7.225  0.1253 -0.3138  0.0080
21405W        W64458  18.369  12.044  26.332 -0.0326 -0.4261  0.0531
21406W        W64459  27.789   1.101   6.611  0.0557 -0.0292  0.0432
21407W        W64460  29.060  22.674  18.973  0.0445 -0.2972 -0.2556
21408W        W64461  24.911  11.636   9.232  0.2151 -0.5343 -0.1612
21409W        W64462  22.295  20.278   8.981  0.1896  0.4999  0.3096
21410W        W64463  24.376   0.538  19.703 -0.1060 -0.1938 -0.4719
21411W        W64464  20.666  33.198   7.278  0.1039  0.0257  0.1050
21412W        W64465  21.183   5.690   8.056  0.1127  0.1128  0.0616
21413W        W64466  30.050   6.798   5.095 -0.2072  0.0167  0.1032
21414W        W64467  25.244  14.885  29.126  0.1094  0.0074 -0.1032
21415W        W64468  26.304   6.989   2.804 -0.2276  0.2141  0.0152
21416W        W64469  20.230   1.471  24.789 -0.1536  0.0810 -0.2058
21417W        W64470  23.900  32.278  16.905  0.0127  0.2958  0.1748
21418W        W64471  17.423   5.783  15.093  0.2292  0.1591  0.5580
21419W        W64472  17.572  34.241  10.050  0.2312 -0.0851 -0.2347
21420W        W64473  26.583  14.299  28.560 -0.2209 -0.2891  0.3179
21421W        W64474  23.925   5.570  25.626  0.1727  0.0707 -0.5037
21422W        W64475  19.987   9.446  16.832 -0.0349  0.2978 -0.0012
21423W        W64476  25.982  23.637  18.219  0.0378 -0.1867 -0.0282
21424W        W64477  25.029  14.456  27.015  0.2880  0.3437  0.0002
21425W        W64478  25.693   6.444  28.109 -0.0401  0.3215  0.1642
21426W        W64479  18.013  12.627   3.013 -0.0921 -0.1877  0.0322
21427W        W64480   2.224  10.193   2.586  0.0915  0.1294 -0.2256
21428W        W64481  26.714  12.824   1.319 -0.1733  0.1621 -0.0060
21429W        W64482  27.942   6.881  15.922  0.0618 -0.0346  0.3175
21430W        W64483  17.296   9.201  14.970  0.2388  0.0506 -0.1850
21431W        W64484  34.214   3.096  22.567 -0.0208 -0.0693  0.0268
21432W        W64485  25.053   9.316  19.001  0.0582 -0.2030 -0.2240
21433W        W64486  21.628   8.959   3.586 -0.3918 -0.3570  0.1698
21434W        W64487  25.431   8.113   7.980 -0.1453  0.3654  0.0009
21435W        W64488   8.434   8.171   4.542 -0.1248  0.5394  0.0253
21436W        W64489  28.458   1.684  21.318  0.0724 -0.0536 -0.1229
21437W        W64490  33.453  28.655  22.962 -0.0541 -0.0676  0.1481
21438W        W64491   5.982   1.418   8.003  0.0916  0.0168  0.0046
21439W        W64492  22.222   0.348   8.185 -0.3011  0.1012  0.1631
21440W        W64493  32.856   4.034  24.525  0.0387  0.2606  0.0888
21441W        W64494  13.570  21.564   4.978 -0.2417 -0.1069 -0.0659
21442W        W64495  19.451  26.897   9.246 -0.1266 -0.3190  0.0869
21443W        W64496  12.400  29.069  23.867  0.1176  0.0056 -0.0791
21444W        W64497  22.191   5.036   1.326  0.0659  0.1066 -0.0146
21445W        W64498  20.225  16.581   6.331  0.2934  0.2580  0.1363
21446W        W64499  26.128   6.473   6.972  0.1905 -0.2233  0.0923
21447W        W64500  18.047   5.758   6.436 -0.0660  0.1244  0.0454
21448W        W64501  23.470   7.971  27.728  0.4096  0.1852 -0.0637
21449W        W64502  21.204  11.227   4.185 -0.3341  0.0330  0.1444
21450W        W64503   9.279  19.452  23.032  0.0605 -0.0218 -0.1611
21451W        W64504  26.526  26.260  25.900 -0.0699 -0.2941  0.0170
21452W        W64505  21.369   8.412   8.839 -0.1135  0.0604  0.1672
21453W        W64506   6.450   4.304  25.241 -0.0694 -0.0844 -0.1151
21454W        W64507  30.178  15.067   4.594 -0.2596  0.2067  0.1176
21455W        W64508  13.851   3.734   5.195  0.0755  0.3821 -0.3188
21456W        W64509  29.015  22.971   9.627 -0.2915  0.0628 -0.2391
21457W        W64510  24.447  14.368  26.117 -0.2651  0.0862  0.1636
21458W        W64511  11.825  21.396   4.267  0.1128 -0.0029 -0.0432
21459W        W64512  22.333  10.677  19.219 -0.1188  0.4850  0.1747
21460W        W64513  28.881   4.078   6.863 -0.0131  0.3276 -0.1146
21461W        W64514  18.934  17.501   7.777 -0.0886  0.1254  0.1439
21462W        W64515   0.787   0.552  29.055  0.0118  0.0398 -0.2960
21463W        W64516  12.264  16.424  28.232 -0.2892  0.0203  0.0625
21464W        W64517  18.062   6.668  28.455  0.1264 -0.0931 -0.2714
21465W        W64518   0.015  25.199   7.721 -0.4428 -0.0569  0.1345
21466W        W64519  27.216  32.559   5.492 -0.0857  0.0983  0.1685
21467W        W64520  15.161   4.436   9.455  0.4472  0.0033 -0.5060
21468W        W64521  18.671  11.323   1.331 -0.1980  0.0240 -0.1256
21469W        W64522  10.847  11.996   8.792 -0.1120  0.3714  0.1416
21470W        W64523  17.340   2.994   1.750  0.1085  0.2629  0.2496
21471W        W64524  14.459  14.412  26.636  0.0251 -0.3340 -0.0984
21472W        W64525  30.381  13.427   0.566  0.3365  0.2488 -0.3084
21473W        W64526  26.052  14.722  25.472 -0.4828  0.1187  0.3022
21474W        W64527  24.361   4.303   8.176  0.3139 -0.0787 -0.0421
21475W        W64528  20.886   2.479  28.209 -0.0062  0.1761 -0.3116
21476W        W64529  25.887  15.075   1.084 -0.1799  0.0577 -0.0120
21477W        W64530  22.309  21.930   1.696 -0.0427  0.5475 -0.0654
21478W        W64531  22.774   0.226  24.520 -0.1043 -0.4382  0.3444
21479W        W64532  29.171   7.259  24.585 -0.3096 -0.0412  0.1481
21480W        W64533  22.960   0.185   8.423 -0.0260  0.1273  0.1806
21481W        W64534  23.348   1.723  26.817  0.1308 -0.0167 -0.2490
21482W        W64535   9.380  30.363  25.276 -0.2760  0.1548 -0.0289
21483W        W64536  17.207  31.852   8.579  0.0897  0.1225 -0.1613
21484W        W64537  15.557   7.877   2.689 -0.1104 -0.1331 -0.1480
21485W        W64538  29.379  13.613   1.124 -0.1081 -0.2097  0.0904
21486W        W64539  28.983  21.506   4.377 -0.2092  0.0889  0.0825
21487W        W64540  26.362  14.664   5.662 -0.3890 -0.0185 -0.0040
21488W        W64541  19.738  13.478   8.347 -0.3936 -0.1313  0.0636
21489W        W64542   1.037   3.212  27.780 -0.0515  0.3590 -0.2148
21490W        W64543  10.427   8.583  18.277 -0.0791  0.0718  0.4033
21491W        W64544  22.647  18.825  27.528  0.3986 -0.1226  0.0015
21492W        W64545  18.934  10.667  25.740  0.0194  0.0375 -0.0830
21493W        W64546  22.429   6.341   6.245 -0.1037  0.1472 -0.1135
21494W        W64547  25.097   3.758   9.212  0.1862  0.1378 -0.0823
21495W        W64548  24.308   3.792   5.212 -0.1558  0.1264 -0.1802
21496W        W64549   9.500   8.729  14.994 -0.0274 -0.0506  0.2168
21497W        W64550  32.700   3.702   8.005 -0.0702 -0.0382  0.1258
21498W        W64551  27.501  12.291   8.456 -0.0548  0.0351  0.0616
21499W        W64552  14.631  11.427   1.440  0.0459 -0.2753 -0.0572
21500W        W64553  32.470   5.015  24.452  0.2963 -0.0803 -0.0674
21501W        W64554  12.532  18.729   4.747  0.0455 -0.1634 -0.3670
21502W        W64555  18.358  23.613  23.745  0.0795 -0.2924 -0.1671
21503W        W64556  26.320  26.940   7.126  0.0087 -0.1041 -0.0086
21504W        W64557  10.531  18.379   3.751 -0.3598 -0.3157  0.1197
21505W        W64558  29.526  19.009  22.518 -0.2563 -0.2635 -0.0455
21506W        W64559  22.759  10.012  22.704 -0.0309 -0.1347 -0.2036
21507W        W64560  26.627  29.017   5.131 -0.2091 -0.3152 -0.1830
21508W        W64561  31.539  11.626   9.720  0.2691 -0.0404 -0.0003
21509W        W64562  29.303  31.027  13.403  0.1092 -0.0624  0.1126
21510W        W64563  13.645  15.487  15.750  0.1130 -0.0363  0.0893
21511W        W64564  21.132   6.179  28.086 -0.0474  0.2700  0.3373
21512W        W64565  30.996   9.242  18.427  0.4589 -0.0712 -0.0262
21513W        W64566   2.065   3.732   0.023 -0.1341 -0.3320  0.2581
21514W        W64567  20.033   9.712   6.316  0.2376  0.2113  0.1563
21515W        W64568  20.649  11.341  20.633 -0.2216  0.1772 -0.1037
21516W        W64569  10.732  17.324   9.825 -0.2416  0.0152 -0.0673
21517W        W64570  22.606  17.640  19.803 -0.1678 -0.2413  0.1164
21518W        W64571   9.154   8.670  21.242 -0.1537 -0.1943 -0.1470
21519W        W64572  29.537   4.742  10.943 -0.0187  0.1665 -0.1711
21520W        W64573  18.941   9.570  26.968  0.0825  0.1454 -0.1894
21521W        W64574   7.418   9.409  20.773 -0.0686 -0.2150 -0.1306
21522W        W64575  21.736  16.424   1.626  0.0158  0.4427  0.0123
21523W        W64576  26.815  33.071  25.495 -0.1271  0.1662  0.0188
21524W        W64577   9.116   6.785   7.128  0.0457 -0.2837 -0.1658
21525W        W64578  22.603   2.618  10.181 -0.2533 -0.1846  0.3171
21526W        W64579   3.753  23.961   4.895  0.3753  0.0738  0.1746
21527W        W64580  15.589  10.829   5.550 -0.0180  0.1922 -0.1273
21528W        W64581  17.290  13.948   5.214  0.0039  0.1616 -0.2247
21529W        W64582  29.098   6.259   8.154  0.5172 -0.0779 -0.1243
21530W        W64583  25.279  28.948  17.989  0.1134 -0.1431 -0.0863
21531W        W64584  15.981  32.522   6.980 -0.1334  0.0915 -0.0059
21532W        W64585  20.270   7.168  28.132 -0.2528 -0.0834 -0.0788
21533W        W64586  23.194   8.134  25.112  0.2507  0.0105  0.1636
21534W        W64587  24.355   8.828   5.161  0.1313 -0.1989  0.0273
21535W        W64588  28.027  12.787   0.283  0.0649  0.0092  0.0279
21536W        W64589  28.739  16.425  20.333  0.0477  0.0282  0.1619
21537W        W64590  10.462   4.236  20.134 -0.1324 -0.1925  0.3429
21538W        W64591  27.006   6.121  18.458  0.0320 -0.1348  0.0072
21539W        W64592   5.062   8.328   2.004 -0.0205  0.1167 -0.1345
21540W        W64593  15.143  26.127  19.263 -0.0944  0.1566 -0.0415
21541W        W64594  28.781   9.648  24.381  0.0385 -0.0083 -0.1456
21542W        W64595   4.758   3.389  17.421 -0.1187  0.2274  0.0322
21543W        W64596  30.493  25.126  20.686 -0.0642  0.1075 -0.1166
21544W        W64597  20.230  21.106  28.710  0.0549  0.2566 -0.1706
21545W        W64598  31.275  19.485   3.051 -0.1199  0.3185  0.0683
21546W        W64599  22.903   6.559  27.725  0.1721  0.2233 -0.0418
21547W        W64600  26.473  12.233   5.399 -0.1139  0.0691 -0.2172
21548W        W64601  17.791  25.781  20.223 -0.3479  0.1630  0.1103
21549W        W64602  13.680  28.495   7.617 -0.2062 -0.1213  0.1167
21550W        W64603   6.443  10.972   4.929  0.0175  0.2368 -0.0679
21551W        W64604  16.121   8.352  17.414 -0.0351 -0.0218 -0.4995
21552W        W64605  19.563  16.200   7.661  0.1395 -0.2955  0.0753
21553W        W64606   8.152  31.969   8.066  0.0476 -0.2580 -0.4378
21554W        W64607  16.211  23.761   7.472  0.0507 -0.1065  0.5104
21555W        W64608  21.440  14.581   1.968  0.0627 -0.1165 -0.0297
21556W        W64609  31.997  25.348   6.523  0.0101 -0.0305 -0.0689
21557W        W64610  23.755   7.448   3.962 -0.1388 -0.1580  0.1201
21558W        W64611  20.770  10.496  28.151 -0.3799  0.1270  0.4022
21559W        W64612   3.465  13.140  23.463 -0.2213 -0.3737  0.2275
21560W        W64613  17.951  11.478   3.162 -0.3577  0.2025  0.0355
21561W        W64614  24.625  14.675  20.115  0.2659 -0.1506  0.0783
21562W        W64615  14.945  15.751   8.148  0.0486  0.0923  0.2391
21563W        W64616  26.343  19.960  14.212  0.0579 -0.0106 -0.1149
21564W        W64617   0.058   4.348   2.456 -0.0140  0.2203  0.1656
21565W        W64618  23.591   6.614  18.985  0.2652 -0.0587 -0.3272
21566W        W64619  32.601  24.611   1.107 -0.0742 -0.1151 -0.1568
21567W        W64620  18.797  27.936  27.140  0.2414  0.3382 -0.1013
21568W        W64621  20.839  18.615  27.514  0.0558 -0.0514 -0.1993
21569W        W64622  20.033  13.515   6.804 -0.2684  0.3184  0.0725
21570W        W64623  21.795   5.206  22.775 -0.3171  0.0262  0.0624
21571W        W64624  23.084  27.030   9.523 -0.4163  0.0599 -0.1493
21572W        W64625  29.743   7.996   6.705  0.2623  0.2677  0.0682
21573W        W64626  15.359   9.689  17.166 -0.3274 -0.0131  0.0372
21574W        W64627  14.354  27.798   4.624 -0.3695  0.3438  0.0678
21575W        W64628  26.368  24.324   2.648  0.0005  0.0229 -0.0897
21576W        W64629  11.855  10.431   9.082 -0.3946 -0.2076 -0.1480
21577W        W64630  27.363  10.789   4.535  0.0247 -0.3352  0.0702
21578W        W64631  23.067  12.749  16.068 -0.0327  0.1150 -0.1985
21579W        W64632   5.663  11.411   7.044  0.0013  0.0106  0.0425
21580W        W64633   1.758  13.408   1.864  0.0702 -0.3453 -0.0756
21581W        W64634  27.689  19.084   0.885  0.1387 -0.0697 -0.0575
21582W        W64635  14.029   9.231   9.106 -0.0829 -0.0705 -0.0683
21583W        W64636  34.562   3.885  20.624  0.0365  0.2469  0.1427
21584W        W64637  22.599  13.643   9.330 -0.0595 -0.0525 -0.0024
21585W        W64638  24.496   4.242   4.972  0.1004 -0.0575  0.0822
21586W        W64639  21.223   5.356  22.844 -0.0542 -0.2271  0.0529
21587W        W64640  11.530   1.829   3.188  0.1672 -0.4162  0.1481
21588W        W64641   4.150   9.780   5.893  0.4435 -0.3024  0.0320
21589W        W64642  25.605   9.496  17.473 -0.0574  0.2889 -0.1740
21590W        W64643  22.514   2.872   7.000 -0.4164 -0.4116  0.1325
21591W        W64644  14.491  12.760  19.486 -0.2927  0.2377 -0.4733
21592W        W64645  33.054  22.854   4.304 -0.0795  0.2104  0.0170
21593W        W64646   1.927   7.044   3.586  0.2883  0.0201  0.0116
21594W        W64647   9.003  11.591  28.109  0.1557 -0.2627 -0.2382
21595W        W64648  32.263  19.456   8.488  0.2369  0.3605 -0.0010
21596W        W64649  31.895  12.499   3.474 -0.2589  0.2106  0.4504
21597W        W64650  13.211  20.663  27.975 -0.1153  0.0593 -0.2754
21598W        W64651  18.919  20.406   5.292  0.1765  0.0501 -0.2233
21599W        W64652  19.189  22.875  22.958 -0.3601 -0.0623  0.4127
21600W        W64653  28.519   5.158   3.963  0.1542 -0.0801  0.0985
21601W        W64654  19.296   1.294  16.263  0.2625 -0.2643 -0.0418
21602W        W64655  21.775  18.518   1.954 -0.3283  0.2504  0.1799
21603W        W64656   7.197  12.509   0.021 -0.1885  0.0574  0.2098
21604W        W64657   2.581  32.309   0.042 -0.0742  0.1462 -0.0680
21605W        W64658   9.039  12.724   4.119 -0.1550  0.2218 -0.0540
21606W        W64659  24.635  23.271  19.909  0.0636  0.1795  0.1647
21607W        W64660   6.477   3.997   9.314 -0.0037 -0.2820 -0.2279
21608W        W64661  23.397  24.858   2.376 -0.1874 -0.0513 -0.2682
21609W        W64662   0.203   2.748   0.791 -0.2772  0.0983 -0.2975
21610W        W64663  10.683  14.286   8.847 -0.1207 -0.1114 -0.3940
21611W        W64664  11.166  11.604   2.140  0.0602 -0.3014  0.1075
21612W        W64665   4.633  16.908  28.757 -0.3831 -0.1075 -0.2989
21613W        W64666  15.892   1.041   9.008  0.0102  0.1622 -0.2474
21614W        W64667  20.809  19.332  24.024 -0.1459 -0.3892  0.0123
21615W        W64668  31.040  14.172   2.228 -0.3331 -0.2242 -0.1454
21616W        W64669  24.890  11.945  21.821 -0.1614  0.0995  0.3129
21617W        W64670  33.189  34.177  23.400  0.0872  0.0746  0.2024
21618W        W64671  31.197  27.612   6.513 -0.1448 -0.0430  0.0857
21619W        W64672  31.037  30.291  22.837 -0.2447  0.1704  0.3884
21620W        W64673  20.124   5.703   7.823 -0.0372 -0.2834  0.0838
21621W        W64674  25.793  12.495   1.415 -0.1671 -0.0007 -0.0173
21622W        W64675  24.096  13.282  16.821 -0.0859  0.4619  0.1626
21623W        W64676  13.932  18.991   1.827  0.0916  0.2508 -0.0834
21624W        W64677  32.902   8.462  27.807  0.4108  0.0239 -0.0080
21625W        W64678  23.842   2.428   8.242  0.2072 -0.0870  0.4229
21626W        W64679  32.411   7.165  14.440  0.2242  0.0477 -0.1475
21627W        W64680  20.152   9.167  18.505  0.0793  0.1682 -0.1753
21628W        W64681  27.767   9.915  26.072 -0.2427  0.0702 -0.1045
21629W        W64682  15.284  21.976  24.485  0.4211 -0.0560  0.2680
21630W        W64683  30.746  13.748  26.164  0.1844  0.5602 -0.3881
21631W        W64684  31.534  14.945  18.936 -0.1232 -0.2445 -0.2123
21632W        W64685  31.879  30.143   4.814 -0.1571 -0.0813 -0.1906
21633W        W64686  23.349  25.638  27.867  0.0816 -0.0434 -0.0975
21634W        W64687  20.863   8.680   0.611 -0.3116 -0.1426  0.1838
21635W        W64688   6.186  15.515   2.941 -0.1607 -0.1866 -0.0162
21636W        W64689  14.501  31.733   6.748 -0.0103  0.0885 -0.1763
21637W        W64690  32.982  33.052   9.108 -0.2498  0.0398  0.2555
21638W        W64691  26.537  11.301  17.723  0.1399  0.3265 -0.1294
21639W        W64692  31.626  31.774  22.347  0.0980 -0.1330  0.0205
21640W        W64693  27.109  23.478   8.682  0.0803  0.2540  0.0791
21641W        W64694   2.926   2.237  23.656 -0.1281  0.0757  0.2577
21642W        W64695  21.238  33.418   8.506  0.1923 -0.3360  0.1451
21643W        W64696  21.081   7.293  26.794  0.0732 -0.0466  0.3491
21644W        W64697   8.569   3.935  11.020 -0.1803 -0.1852  0.0832
21645W        W64698  26.467  26.381   9.900  0.2729  0.1236 -0.1210
21646W        W64699  17.857  18.292   8.960  0.0031  0.2580 -0.0706
21647W        W64700  26.495  22.715   3.237 -0.0922 -0.3490 -0.0760
21648W        W64701  18.273   8.495   0.679 -0.1679 -0.2334  0.0342
21649W        W64702  17.810  26.683  16.089  0.4359  0.0710  0.4702
21650W        W64703  20.903  15.859   6.551 -0.3300 -0.2352 -0.0856
21651W        W64704  23.370  30.322  23.912  0.1501 -0.0032  0.1246
21652W        W64705  27.785  31.401  25.290  0.0470  0.2237 -0.1628
21653W        W64706  14.250  11.139   6.510  0.1144 -0.3055  0.1459
21654W        W64707  15.289  12.258  29.063 -0.2292 -0.1382  0.1295
21655W        W64708  10.200  18.613  26.709  0.3651  0.0629 -0.0710
21656W        W64709  21.552   8.145  17.035  0.0130  0.2209  0.3269
21657W        W64710  22.829   4.939  18.619 -0.0017  0.0765  0.0119
21658W        W64711  13.820   7.989  28.997 -0.1048  0.1733 -0.1920
21659W        W64712  15.737  11.027   1.384  0.3068 -0.1219 -0.1575
21660W        W64713  14.005  20.780  27.805  0.1184 -0.3158  0.2870
21661W        W64714  30.781  11.689  18.651 -0.0444 -0.1576  0.5594
21662W        W64715  21.194   0.727  25.567 -0.2107 -0.0765 -0.0743
21663W        W64716  22.005  12.459   0.311 -0.2244  0.3262  0.0844
21664W        W64717  34.229   5.655   3.569 -0.4420  0.1972 -0.0714
21665W        W64718   4.065   9.716   9.863  0.0631  0.1153  0.0578
21666W        W64719   0.990  30.703   7.650 -0.0194 -0.4438  0.0228
21667W        W64720   1.743   3.810   8.816 -0.2638  0.0840 -0.2234
21668W        W64721   0.172  12.259   6.610  0.3086 -0.1409  0.0870
21669W        W64722  27.216  14.770  26.103  0.0152 -0.5453 -0.3491
21670W        W64723   3.709   1.614   7.961  0.0924  0.0817  0.3545
21671W        W64724  26.620  10.714  27.438 -0.1027 -0.1744 -0.1685
21672W        W64725  30.429  15.215  26.758  0.0611 -0.0666  0.0073
21673W        W64726  23.553  23.822  15.757 -0.5180  0.1022  0.2129
21674W        W64727  13.249  19.449   5.930 -0.1751  0.0169 -0.3580
21675W        W64728  18.441   8.986  21.791 -0.1718  0.0529 -0.3113
21676W        W64729  24.691   8.520  28.313 -0.0151 -0.0543  0.0089
21677W        W64730  13.468   9.020   9.817  0.6049 -0.1355 -0.3473
21678W        W64731   2.821  27.308  20.962 -0.3538 -0.2622 -0.4323
21679W        W64732  19.817   9.995   3.809 -0.3123 -0.0411 -0.0373
21680W        W64733   1.547   8.902   2.366 -0.0053  0.1743  0.0369
21681W        W64734  30.637   5.476   2.008 -0.0342  0.1358 -0.0149
21682W        W64735  23.648   9.153  23.091  0.3361 -0.0973  0.2680
21683W        W64736  14.206   5.049   8.986  0.0432 -0.1341  0.2025
21684W        W64737  12.140  11.506   3.767  0.4150 -0.1475 -0.0498
21685W        W64738  15.359  16.386   4.544 -0.1933  0.2501  0.0839
21686W        W64739  22.953   6.443   3.663 -0.1073 -0.1793 -0.0908
21687W        W64740  25.303   4.807   5.056  0.1043 -0.0925  0.1168
21688W        W64741  22.610   5.191  22.173  0.2046 -0.2001 -0.2388
21689W        W64742  23.485   9.781   4.357 -0.1527 -0.0935 -0.0097
21690W        W64743   7.378   1.888  23.324 -0.2863  0.0650 -0.0140
21691W        W64744  15.639  30.113   7.374  0.0442  0.3279  0.0826
21692W        W64745  15.980  17.383   2.558  0.0874 -0.3296  0.1147
21693W        W64746  25.877   6.741   8.039  0.1294  0.2184  0.0476
21694W        W64747   4.778  11.909   8.747  0.0279 -0.2079  0.0455
21695W        W64748  15.497  21.118   9.265 -0.3121 -0.2304  0.0925
21696W        W64749  32.446  10.760  21.254 -0.1639  0.1865  0.3807
21697W        W64750  18.478  26.583   0.317  0.0099 -0.0237 -0.2091
21698W        W64751  11.542  11.421   6.005 -0.1909  0.3511  0.0980
21699W        W64752  22.424  10.165   5.385 -0.0710  0.1000  0.1640
21700W        W64753  25.419  18.401   1.914 -0.0497 -0.4844  0.6011
21701W        W64754  29.204  26.576  22.993  0.1912 -0.1225 -0.0084
21702W        W64755  24.610   9.425   0.671  0.1012 -0.0336 -0.1531
21703W        W64756  19.062   6.618   8.689  0.0306 -0.2493 -0.1292
21704W        W64757  19.529  17.476  26.122  0.1056 -0.1480 -0.1526
21705W        W64758  33.572  19.295   7.370  0.0001  0.2607 -0.2665
21706W        W64759  22.777  26.717  29.098  0.3130 -0.2440  0.2676
21707W        W64760  12.283  12.181  10.942  0.0745  0.0935  0.2223
21708W        W64761  18.251  25.953   1.526 -0.1701 -0.0807 -0.2299
21709W        W64762  11.504  17.541   6.701 -0.2180 -0.0852 -0.3073
21710W        W64763  29.652   8.027  14.392 -0.1663  0.5456 -0.0839
21711W        W64764  33.650   7.606   4.895  0.2396  0.1747  0.1012
21712W        W64765  13.528  30.981   8.099  0.0474  0.1365  0.0548
21713W        W64766  17.384  28.809   0.355 -0.0416 -0.1707 -0.1150
21714W        W64767  32.954  10.585   4.717  0.1680 -0.0441  0.1044
21715W        W64768  32.162  13.674  10.517  0.0532 -0.1015  0.2203
21716W        W64769  29.359   9.095   6.673  0.1776  0.1669 -0.0467
21717W        W64770  23.122  33.187   1.164 -0.2920  0.3125 -0.2346
21718W        W64771  19.257  13.141   7.188 -0.0401 -0.0538  0.3221
21719W        W64772  19.855  27.901   7.489  0.0456  0.0673  0.2292
21720W        W64773  25.604   8.239  27.404  0.1950 -0.3116 -0.2932
21721W        W64774  25.069  22.807   5.753 -0.3283 -0.0847  0.0933
21722W        W64775  10.868  15.845  15.536 -0.2910  0.0866  0.2394
21723W        W64776  13.639  15.548   4.815 -0.2436  0.1729 -0.1127
21724W        W64777   8.909  23.746   9.868  0.1637  0.1226 -0.4295
21725W        W64778  31.711   8.418   0.651  0.1461 -0.0192  0.0179
21726W        W64779  16.849  11.348  28.611  0.2100  0.1798 -0.0044
21727W        W64780  31.615  15.086   7.945 -0.3129 -0.4268 -0.1839
21728W        W64781  15.450   9.170  28.823  0.1275  0.1514 -0.0177
21729W        W64782  31.988  32.933  26.929 -0.0724 -0.3322 -0.1590
21730W        W64783  30.099   8.804   5.670 -0.0223 -0.2616 -0.0445
21731W        W64784  32.949  19.416  25.540  0.2232  0.0244  0.0206
21732W        W64785  32.816   8.516   5.923  0.1831  0.1864 -0.1551
21733W        W64786  28.646  12.877   5.244 -0.1602 -0.1614  0.4159
21734W        W64787  17.137   6.259  21.350  0.3104 -0.0438 -0.3723
21735W        W64788  15.917  14.944   8.119 -0.0871 -0.2095  0.3467
21736W        W64789  30.036  27.492  29.142 -0.1064  0.1838  0.3891
21737W        W64790  19.696   3.191  16.373 -0.0697  0.0439 -0.1116
21738W        W64791  26.766   9.164   0.537  0.0078 -0.0099 -0.3165
21739W        W64792  16.021  10.502   4.722  0.1373  0.3742 -0.1582
21740W        W64793  16.449  15.590  23.749  0.0909 -0.4022  0.0744
21741W        W64794  21.140  20.889  27.666 -0.0860  0.1350 -0.0271
21742W        W64795  25.068  15.158  21.935  0.2983  0.3440 -0.2659
21743W        W64796  21.816   5.769   4.764  0.1775 -0.2415 -0.0509
21744W        W64797  21.699   9.386  26.575 -0.1999  0.0101  0.0959
21745W        W64798  25.019   1.428   3.251  0.0609  0.1107  0.0043
21746W        W64799  14.138  26.314   6.315 -0.0360 -0.0275  0.0953
21747W        W64800  31.472  14.504  20.374 -0.0987  0.0201  0.0429
21748W        W64801   1.669   8.276   9.805 -0.1949  0.0166  0.3891
21749W        W64802   1.299   4.847  23.112 -0.1842  0.0702  0.1072
21750W        W64803   0.142   3.453   3.120  0.1236 -0.3579  0.0652
21751W        W64804  22.812  13.969  24.125  0.4439 -0.0428  0.2704
21752W        W64805   6.104  20.439  18.633 -0.2166 -0.2061  0.1024
21753W        W64806  11.855   9.756   3.991 -0.2758  0.1058  0.1359
21754W        W64807  29.250  14.503   9.198 -0.0857  0.0076 -0.1016
21755W        W64808   9.501   0.251   2.301  0.0384  0.0680  0.0336
21756W        W64809  15.148  33.011   2.303 -0.2959 -0.1289  0.0652
21757W        W64810  18.116   8.125  29.063  0.0780  0.0478 -0.4790
21758W        W64811  22.663  14.998   5.414  0.1425  0.3226  0.1475
21759W        W64812  19.564  31.447   2.995 -0.1386 -0.1876  0.1663
21760W        W64813  26.792   6.080  22.737 -0.0532 -0.1155 -0.0722
21761W        W64814   6.884   9.064  10.127  0.1783  0.2108 -0.4861
21762W        W64815  25.696   4.809  16.403 -0.2459  0.1828  0.3953
21763W        W64816  24.316   2.139   1.581  0.2207  0.0522 -0.0853
21764W        W64817  21.094  10.130   6.562  0.2420 -0.2412  0.2653
21765W        W64818  26.663  20.276  27.286  0.1421  0.4346 -0.0838
21766W        W64819  29.080  17.028  17.859  0.2803  0.2051 -0.0526
21767W        W64820   3.479  21.112   4.744 -0.0519  0.2380  0.1048
21768W        W64821  19.069  19.182   6.014 -0.2278  0.0289 -0.1601
21769W        W64822  26.259  15.372   6.359  0.2940 -0.3781 -0.2027
21770W        W64823  28.800  25.573  17.446 -0.0475 -0.1003  0.1031
21771W        W64824  19.209   0.790   5.376 -0.0697  0.1266  0.1974
21772W        W64825  33.572   5.830   1.207 -0.1701  0.0006  0.2377
21773W        W64826  20.100  11.280   0.136 -0.0337  0.1681  0.4873
21774W        W64827  21.651  22.851  26.975 -0.4171 -0.2981 -0.2065
21775W        W64828  17.828  28.168   5.968  0.0556 -0.6886  0.1168
21776W        W64829  11.625  13.872   6.099 -0.2663 -0.0653 -0.2568
21777W        W64830   0.877   6.077   6.396 -0.0077  0.1206 -0.3187
21778W        W64831  34.597   3.135   7.187  0.0702 -0.1104  0.0997
21779W        W64832  26.250   1.367   2.449  0.0802 -0.2977  0.1891
21780W        W64833   8.385  11.751   0.990  0.0840  0.1385 -0.0373
21781W        W64834  11.426   5.181  27.903  0.2862  0.0837 -0.0004
21782W        W64835  27.250   0.085   4.568 -0.1543 -0.1346  0.0342
21783W        W64836  10.092  24.899   1.824  0.1183 -0.0264 -0.2405
21784W        W64837  21.973   4.479   8.644  0.0339  0.0814  0.2263
21785W        W64838  23.335   8.172  19.820 -0.3234  0.1949  0.0875
21786W        W64839  20.970  13.753   1.625 -0.0007  0.2566  0.1427
21787W        W64840  22.919  20.705  21.616 -0.1341 -0.1724  0.3288
21788W        W64841  32.176  14.680  20.194  0.0239 -0.1479 -0.2838
21789W        W64842   9.942  17.160   5.130 -0.1255 -0.0551  0.1797
21790W        W64843  20.399  16.303   0.897 -0.1658  0.2123  0.0394
21791W        W64844  17.414  10.283  10.099 -0.1869  0.1677  0.2267
21792W        W64845  10.913   6.359   0.983  0.2675 -0.0426  0.1669
21793W        W64846  33.200  16.514  27.539 -0.1257  0.1220 -0.2956
21794W        W64847   7.484  10.491  17.425 -0.1056  0.2986  0.0254
21795W        W64848  21.592  33.527  25.648 -0.2650  0.1691 -0.1866
21796W        W64849  29.905  12.023  26.929  0.0449 -0.0985  0.2892
21797W        W64850  18.017  33.073   7.219 -0.2586  0.2643  0.0797
21798W        W64851  31.317   7.622   4.974  0.1389  0.0265 -0.1006
21799W        W64852  29.389   8.736  26.889  0.0443 -0.2200 -0.3610
21800W        W64853  14.820   9.104   2.183 -0.1379  0.2576 -0.0548
21801W        W64854  18.928  14.041   4.584 -0.1281 -0.2882 -0.0965
21802W        W64855  13.099  10.583  10.283 -0.1374  0.0072  0.0864
21803W        W64856   7.180  21.554  28.137  0.0297 -0.0782  0.0861
21804W        W64857  27.105  15.660  25.802 -0.0084  0.2045 -0.3252
21805W        W64858  18.297  33.559   8.140  0.2880 -0.2783  0.1123
21806W        W64859  34.510  18.126   1.290 -0.2257  0.0779 -0.1668
21807W        W64860  30.545  32.567   8.750 -0.0448  0.0525  0.1151
21808W        W64861  24.255   8.889   3.154  0.0143  0.0591 -0.3917
21809W        W64862   4.915  21.667   6.410 -0.1836  0.2913 -0.1825
21810W        W64863  20.957   4.218   0.534  0.0530  0.1359  0.3281
21811W        W64864   8.187   8.386  10.262  0.0950  0.1541  0.1642
21812W        W64865  12.655   3.451   2.111 -0.2591 -0.1255 -0.0180
21813W        W64866  29.799  20.719   7.308 -0.1376 -0.0047 -0.0255
21814W        W64867  30.769  14.432  16.599  0.2662  0.0630  0.2091
21815W        W64868  10.956  32.234  24.805 -0.0019  0.1082  0.0814
21816W        W64869   4.230  26.546   5.500 -0.0846  0.1803  0.1995
21817W        W64870  21.729  15.050  28.620 -0.1393  0.1872 -0.0295
21818W        W64871  15.189   1.821   7.296 -0.1568 -0.1371  0.2573
21819W        W64872  18.635  18.590  10.043  0.1334  0.0664 -0.1763
21820W        W64873  15.595  10.848   7.781  0.1610  0.1682 -0.1080
21821W        W64874  29.608   0.279  25.699  0.3121  0.2104 -0.0078
21822W        W64875  18.670  17.491   9.474 -0.3877 -0.0171 -0.0414
21823W        W64876  16.096   3.186   5.805 -0.3557 -0.0800  0.0716
21824W        W64877  16.104   1.591   4.033 -0.3081 -0.0974 -0.0384
21825W        W64878  15.674   8.318   8.619 -0.1108  0.0969 -0.3738
21826W        W64879   3.395   9.038  28.598 -0.0017 -0.0140  0.3030
21827W        W64880  17.871  14.759   8.293 -0.2431  0.1722  0.0217
21828W        W64881   7.312  19.561   0.664 -0.2179  0.0836  0.0701
21829W        W64882  29.686   1.795   7.975  0.0161 -0.3328  0.0575
21830W        W64883  25.787   7.061   9.698 -0.0629  0.1642 -0.0429
21831W        W64884  26.746  17.974   0.210  0.2010 -0.2326  0.3528
21832W        W64885   2.922  10.890   2.235  0.0147 -0.0742  0.1990
21833W        W64886  31.364   3.268  26.158 -0.0291 -0.2908 -0.1405
21834W        W64887  24.466   8.077   1.081  0.1659 -0.0020  0.4252
21835W        W64888  26.103   9.088   6.116 -0.1407  0.3408 -0.3603
21836W        W64889  24.512  33.126   2.116 -0.1944 -0.4036  0.1773
21837W        W64890  13.831   6.021  20.187 -0.1796 -0.0420  0.0398
21838W        W64891   7.752   9.322   2.356  0.3025  0.2141 -0.1635
21839W        W64892  32.602   2.770   4.714 -0.2868  0.0742 -0.2010
21840W        W64893  18.320  27.921   6.914 -0.0800  0.1446  0.3048
21841W        W64894  26.641   8.527  18.781  0.2328  0.0354  0.0378
21842W        W64895  31.887  25.426  27.791 -0.2495 -0.2047 -0.0487
21843W        W64896  28.093   2.755  20.423  0.0092 -0.1032 -0.0670
21844W        W64897  18.345  10.024   2.719 -0.1668  0.1884 -0.1629
21845W        W64898  24.304   7.223   6.341 -0.0641 -0.0528  0.0624
21846W        W64899  31.945  20.489   4.532 -0.1666 -0.2330 -0.0538
21847W        W64900  29.292  12.055  24.097  0.2999 -0.1216 -0.0062
21848W        W64901  18.661   7.897   2.902  0.0853 -0.3097  0.0746
21849W        W64902  32.090  17.971  25.215  0.1116  0.2952  0.1236
21850W        W64903  27.010   6.334   9.530  0.1084  0.0633 -0.1624
21851W        W64904  22.428  32.108   2.648 -0.2637 -0.0827 -0.1666
21852W        W64905   3.966  34.298  27.323 -0.0685  0.1500  0.0596
21853W        W64906  25.808  13.640   9.186  0.1826  0.2004  0.1088
21854W        W64907  24.379  20.628   4.288 -0.0937  0.0236  0.2532
21855W        W64908  21.456   5.221   8.635  0.0264 -0.0550 -0.0738
21856W        W64909   9.637  18.421   9.143 -0.1296  0.1335  0.2033
21857W        W64910  25.414  10.529  27.452  0.3100  0.1899 -0.2063
21858W        W64911   1.550  19.977  24.443  0.3016  0.1671  0.2727
21859W        W64912   7.189  29.933   6.686  0.3625 -0.0111  0.1214
21860W        W64913  30.769   4.150  19.147 -0.0080  0.3079  0.2389
21861W        W64914  16.305  18.013  26.125  0.0100 -0.3094 -0.1167
21862W        W64915  23.495  12.903  21.849 -0.0041 -0.2486 -0.0280
21863W        W64916  15.690  14.566   9.042  0.0279 -0.0378 -0.0733
21864W        W64917  21.896   2.528  28.230 -0.3574  0.0961  0.2547
21865W        W64918  26.309  12.748  27.107 -0.3334  0.2005 -0.1379
21866W        W64919  33.152  32.478  28.283  0.2085 -0.0327  0.3251
21867W        W64920  20.811   8.552  10.099  0.3767 -0.2355  0.0709
21868W        W64921  13.193  13.079   2.097  0.1250  0.0778  0.1381
21869W        W64922  23.822   3.949  18.372  0.0216  0.1858 -0.0125
21870W        W64923   3.101  18.934   5.140  0.1462  0.1905  0.2725
21871W        W64924  30.974   2.699   9.187  0.1671  0.2874 -0.2555
21872W        W64925  19.584   3.003   3.511 -0.0454 -0.4625  0.0806
21873W        W64926  33.923  13.611   9.218  0.0347  0.0034  0.0037
21874W        W64927  27.487  11.002   1.540 -0.1708  0.0445 -0.0876
21875W        W64928   3.465   9.685  22.633 -0.0867  0.0480 -0.5145
21876W        W64929  23.969   4.340   3.364 -0.1306  0.2192 -0.0814
21877W        W64930  20.980   8.852  28.920 -0.0624 -0.1724  0.0701
21878W        W64931  25.984  10.845   6.548 -0.0233  0.3710 -0.2409
21879W        W64932  18.847  12.435   8.308  0.1976 -0.0549 -0.0016
21880W        W64933  22.861  28.305   8.510  0.1549 -0.5871  0.2650
21881W        W64934  31.982  26.903  23.580  0.0355 -0.3544 -0.1175
21882W        W64935  19.412   7.729  28.651 -0.4047  0.0435  0.0735
21883W        W64936  23.927  19.496   8.875 -0.2788  0.0286  0.1054
21884W        W64937  16.206  14.560   8.035 -0.3701 -0.1616  0.1492
21885W        W64938  18.538   4.409  28.349 -0.2488 -0.2210 -0.0208
21886W        W64939  18.244  11.255  20.210  0.3627 -0.2185 -0.1177
21887W        W64940  26.425  34.201   8.816  0.1125  0.2517 -0.1366
21888W        W64941   9.577  12.114   4.048  0.2000  0.0836  0.1770
21889W        W64942  32.974  25.885   6.501 -0.0992  0.3061  0.0423
21890W        W64943   0.342  12.362   4.428 -0.2928 -0.0902 -0.4061
21891W        W64944  16.607  30.338   0.579  0.1941 -0.1611  0.3135
21892W        W64945  23.477   1.696   2.697 -0.1928 -0.2171  0.2693
21893W        W64946  15.317   0.239   6.607  0.0674  0.0867 -0.0648
21894W        W64947  30.635   9.355   4.975 -0.0722 -0.0050 -0.2044
21895W        W64948   6.442   8.937  27.946 -0.1247  0.0130  0.0971
21896W        W64949  31.547   4.992  25.535  0.0104 -0.0988 -0.1060
21897W        W64950  17.907  24.773   7.208 -0.2577 -0.1487 -0.3620
21898W        W64951  23.549   4.478   2.902 -0.1964 -0.1686  0.0866
21899W        W64952   1.416  15.243   4.087  0.0872 -0.0662  0.1599
21900W        W64953  13.431  11.324  10.052 -0.3096 -0.1718  0.1632
21901W        W64954   3.219   6.247  21.904 -0.0433 -0.2571  0.0722
21902W        W64955  28.134  27.611  22.230  0.1346  0.1611  0.1603
21903W        W64956  23.335   3.607   5.716 -0.3055  0.1662  0.3530
21904W        W64957  31.398   4.928   3.471 -0.0245 -0.0234  0.0812
21905W        W64958  24.589  16.798  27.503 -0.0672 -0.0081  0.0253
21906W        W64959  31.582  10.342   8.759  0.0421 -0.1242 -0.1878
21907W        W64960  24.361  15.649   5.724  0.1495 -0.0245 -0.0880
21908W        W64961  32.652  28.075  28.760 -0.0517  0.2085 -0.1231
21909W        W64962  18.991   1.708   5.215  0.0262  0.0799  0.3395
21910W        W64963   7.427   1.916   5.777  0.1670  0.3312  0.6609
21911W        W64964  32.620  26.329   0.456 -0.0918  0.0855  0.2585
21912W        W64965  31.018  10.900  10.884  0.0480  0.0738 -0.2003
21913W        W64966  22.841   1.988   1.098 -0.1092  0.0671 -0.4093
21914W        W64967  23.492   3.468  27.638 -0.0331  0.0388  0.0846
21915W        W64968  31.915  14.539   0.233 -0.1136  0.1909 -0.0086
21916W        W64969  11.502  15.580   6.338 -0.1314  0.3772 -0.0400
21917W        W64970  25.062   1.451   1.824  0.2271  0.0828 -0.0570
21918W        W64971  17.155  16.360   7.228  0.2292 -0.1113 -0.3733
21919W        W64972  22.859  22.784  26.669 -0.1018  0.0700  0.4133
21920W        W64973  32.321   3.356   5.234  0.0781  0.2438  0.0414
21921W        W64974  18.835   6.866  28.949  0.0032 -0.0641  0.2347
21922W        W64975  29.705  10.701  25.145  0.2007  0.0370 -0.1120
21923W        W64976  13.911   6.205   0.595 -0.1739  0.1185  0.0160
21924W        W64977  12.197  15.121   9.846  0.1809 -0.0959  0.0922
21925W        W64978  21.706   9.771   2.289  0.1075  0.1432  0.0275
21926W        W64979  12.805  21.849  26.595 -0.0468  0.0944  0.2489
21927W        W64980  19.492   1.919   7.321  0.1891  0.1234 -0.0779
21928W        W64981  22.015   0.800   9.160  0.2349  0.0799  0.2087
21929W        W64982  32.826   0.039  25.056 -0.1471  0.3312 -0.1387
21930W        W64983  27.921   9.709  10.101  0.1523  0.1049  0.1212
21931W        W64984  19.105  16.692  26.884  0.2137  0.0168 -0.2321
21932W        W64985  23.424  18.637   2.701 -0.0047 -0.0232 -0.1573
21933W        W64986   0.020  31.592   5.538 -0.1687 -0.2370  0.0114
21934W        W64987  29.709  16.279   8.120  0.2248 -0.1154  0.1223
21935W        W64988  21.180  26.739   5.016  0.3872  0.1578 -0.0914
21936W        W64989  16.325  10.110   3.991  0.3538  0.4189 -0.1816
21937W        W64990  29.191  33.907   3.129  0.0038  0.0805 -0.1056
21938W        W64991  24.288  13.982   2.046 -0.3568  0.1337 -0.2214
21939W        W64992  15.402  21.149   1.745 -0.0507  0.0605  0.3551
21940W        W64993  18.060   3.862   8.651  0.0515 -0.2798  0.1703
21941W        W64994  29.490  13.722   8.761  0.1831 -0.0045 -0.1509
21942W        W64995  12.196  14.186   7.938 -0.2093  0.1131  0.0538
21943W        W64996  15.083  15.949  25.810 -0.1103 -0.0859  0.1194
21944W        W64997  21.395   6.821  10.651  0.3683  0.3615 -0.2503
21945W        W64998   3.766  28.349   8.335 -0.0823 -0.1830 -0.1649
21946W        W64999  32.767  28.896   8.559 -0.0470 -0.0910  0.1427
21947W        W65000  31.761   0.847   7.702  0.0759  0.0259 -0.2126
21948W        W65001  11.769  20.760   4.869 -0.1565  0.0689 -0.0167
21949W        W65002   4.805  18.837   2.924 -0.0016  0.1501 -0.0327
21950W        W65003  34.403   0.769   8.782  0.2572  0.2622 -0.2804
21951W        W65004  17.474  11.557   5.110  0.0173  0.1693  0.2270
21952W        W65005  25.864  19.350   9.805 -0.3210  0.2457 -0.0601
21953W        W65006  27.409  16.512   2.707  0.2916 -0.1282 -0.1419
21954W        W65007  25.408  27.992   7.618  0.1888  0.3523 -0.0012
21955W        W65008  24.522  16.186   2.622  0.0210  0.4471 -0.1566
21956W        W65009  25.407  17.263  21.748  0.0456  0.0994 -0.0577
21957W        W65010  20.931  29.606   8.967  0.2416 -0.0951  0.3325
21958W        W65011  28.271   8.212   4.311  0.0686  0.0190  0.1200
21959W        W65012  29.559  30.753  13.101 -0.1382  0.4159 -0.3453
21960W        W65013  32.614   7.294  10.729 -0.0100  0.0028 -0.3338
21961W        W65014  29.174  20.367   4.163 -0.2063  0.0954  0.1551
21962W        W65015  24.896  16.148   6.310 -0.1586  0.0488 -0.2120
21963W        W65016  33.736  31.010   4.867 -0.0288 -0.0297 -0.1095
21964W        W65017  15.902   8.777   2.782  0.4916  0.2093 -0.1065
21965W        W65018  30.041   1.411   3.112 -0.3695  0.2373  0.3846
21966W        W65019   5.289  16.884   2.924  0.1393  0.1718  0.0337
21967W        W65020  34.631   2.577   4.086  0.3452 -0.2688  0.2027
21968W        W65021  31.777  28.477  20.619  0.2660 -0.1325 -0.0986
21969W        W65022  24.527  28.467   9.200  0.0443  0.4195  0.0853
21970W        W65023  20.909  21.842   3.990 -0.1618 -0.1903 -0.0784
21971W        W65024  17.291   4.566  28.941  0.0959  0.0438 -0.0503
21972W        W65025  13.630  12.135  18.674 -0.3188 -0.0114  0.0119
21973W        W65026  33.628  19.782   7.577 -0.0831 -0.2470  0.2157
21974W        W65027  24.701  11.482   5.229 -0.3150  0.1071  0.2321
21975W        W65028   4.801  15.120  24.102  0.1253 -0.1465 -0.4676
21976W        W65029  25.456   1.602  27.973 -0.2589 -0.1425 -0.0434
21977W        W65030  29.890   8.516   3.468  0.1645 -0.3094  0.0317
21978W        W65031  16.132   6.796  10.026  0.0629 -0.0873 -0.1324
21979W        W65032  22.662  13.205   4.865 -0.2108  0.1387  0.2102
21980W        W65033  22.764  10.880  28.949 -0.0118  0.0169 -0.0090
21981W        W65034  32.573   5.108  23.994  0.2804 -0.2645 -0.1619
21982W        W65035   7.544   4.121   0.623 -0.0208 -0.1743  0.2550
21983W        W65036   7.372   4.825   0.870 -0.0200  0.0674  0.0768
21984W        W65037  29.085  15.606  24.528 -0.1340  0.2785  0.1966
21985W        W65038   1.247  21.352   4.122  0.0138  0.0230 -0.0106
21986W        W65039  19.927  13.729  26.092 -0.0521  0.2258  0.0463
21987W        W65040  29.262  17.911   0.136  0.1104 -0.5412 -0.1257
21988W        W65041  27.421  30.723  26.829  0.0024  0.3153  0.1498
21989W        W65042  23.136   4.691   1.982 -0.3787  0.0700  0.1851
21990W        W65043  28.361   1.750  26.314  0.1692 -0.0603 -0.0177
21991W        W65044  30.887   1.798   1.490 -0.0773  0.1767  0.2603
21992W        W65045  30.460  31.909  27.055  0.0987 -0.3055 -0.0585
21993W        W65046  11.782  21.378   8.979 -0.0334 -0.0917  0.3874
21994W        W65047  19.872   3.145   7.953 -0.5274  0.2582  0.0566
21995W        W65048  16.735  12.297   1.779 -0.2898 -0.1792  0.3458
21996W        W65049   9.937   3.352   9.886  0.1367 -0.0335 -0.1938
21997W        W65050  17.750  15.265  24.251 -0.0722 -0.1926 -0.1583
21998W        W65051  34.457  19.638   5.416  0.0886 -0.0798 -0.0366
21999W        W65052  13.227   9.387   5.100 -0.2373  0.0189  0.0847
22000W        W65053  34.233   3.108   2.346 -0.1690  0.2166  0.0596
22001W        W65054   2.711   2.230   4.908  0.2385 -0.1380 -0.0572
22002W        W65055  20.481   1.266  26.860 -0.1512 -0.2909 -0.0520
22003W        W65056  30.045  19.060   8.145 -0.2223 -0.1824 -0.0534
22004W        W65057  27.999  13.516   7.379  0.0123  0.3481 -0.2666
22005W        W65058  31.285  10.435   6.518 -0.1801  0.1432 -0.1395
22006W        W65059  32.386  34.134   4.787  0.3235  0.2295 -0.0733
22007W        W65060  23.780  26.850  21.971  0.1924 -0.0457 -0.0367
22008W        W65061  25.178  33.367  24.771 -0.2391  0.2011  0.3337
22009W        W65062  28.941  13.606  27.073  0.0348  0.2300  0.0933
22010W        W65063  21.240  13.905  20.248  0.0350  0.0748 -0.0858
22011W        W65064  33.705  11.034  18.752 -0.2942  0.1912 -0.1947
22012W        W65065  20.005   9.769   5.395  0.0407 -0.1074 -0.0260
22013W        W65066  17.892   7.121   5.761  0.1223  0.1387 -0.1670
22014W        W65067  13.417   3.401  27.459 -0.2885  0.3175  0.1574
22015W        W65068  11.772  14.209   9.492 -0.3145 -0.1175  0.3390
22016W        W65069  25.178  23.440   3.434 -0.0483 -0.3367  0.1745
22017W        W65070  17.698   7.405  25.607  0.0943  0.3483 -0.3652
22018W        W65071  25.146  29.302  19.451  0.0867  0.0212  0.0424
22019W        W65072  14.884  29.491   7.875  0.2165  0.0889 -0.0808
22020W        W65073  12.620  11.399   0.454 -0.3588 -0.0919 -0.1244
22021W        W65074  18.117  18.537  26.289 -0.2502  0.2485 -0.1760
22022W        W65075  30.456   0.600  24.088 -0.1853 -0.1267  0.0296
22023W        W65076  24.864  16.526   7.652  0.2060 -0.3900 -0.4474
22024W        W65077  16.744   5.234  28.354  0.1591 -0.3367  0.1796
22025W        W65078  18.477   4.394   4.745 -0.0350 -0.0949 -0.1236
22026W        W65079  22.009   7.779   5.251  0.0866  0.1405  0.1676
22027W        W65080  23.157   5.081   0.649 -0.2458  0.0836  0.2543
22028W        W65081  13.332  25.430  10.656 -0.0944  0.0905 -0.1366
22029W        W65082  30.836  31.549   5.887 -0.0845 -0.2178  0.0082
22030W        W65083  27.646   6.546   6.924  0.0947  0.0112 -0.5211
22031W        W65084  19.617   6.525  10.331 -0.4237 -0.1852  0.2864
22032W        W65085  18.186  16.165  25.447 -0.0341  0.2979 -0.1071
22033W        W65086   0.905   1.559  25.043  0.0931 -0.0885  0.0635
22034W        W65087  21.655  15.507   4.993 -0.0072 -0.1253  0.1778
22035W        W65088  17.042  30.665   8.124  0.1584 -0.1693 -0.1731
22036W        W65089  12.162  11.536   2.522  0.0429  0.0216  0.0661
22037W        W65090  22.859   0.970  27.837 -0.1780  0.1011  0.0930
22038W        W65091  31.378   7.097   9.315  0.0685 -0.0659  0.2222
22039W        W65092  22.774  21.794  24.350 -0.0838  0.0199 -0.2121
22040W        W65093  27.453   1.865  25.247  0.0420 -0.1973  0.0300
22041W        W65094   1.884   3.879   4.063 -0.2407 -0.2508  0.0644
22042W        W65095  22.924  25.957  28.519 -0.1064  0.3244  0.2120
22043W        W65096  19.568   1.646   2.355 -0.0700  0.1021  0.3590
22044W        W65097  23.460  10.777   4.317 -0.1104  0.1519  0.2397
22045W        W65098   0.790   6.724  29.096 -0.0928 -0.3910  0.2025
22046W        W65099  25.828  11.881  17.846 -0.4717  0.0286 -0.0671
22047W        W65100  16.939   3.034   0.701  0.0518 -0.0386 -0.3925
22048W        W65101  13.199  25.765   2.016 -0.0392 -0.3311 -0.2224
22049W        W65102  34.295  28.112   3.580 -0.1687  0.0905  0.0709
22050W        W65103   4.629   8.404   1.738 -0.1990  0.0005 -0.1636
22051W        W65104  30.580  28.095  24.378 -0.0831 -0.0107 -0.1851
22052W        W65105  16.116  23.315  27.803  0.0080  0.3269  0.0425
22053W        W65106  29.936  32.292  28.081 -0.0931  0.2325 -0.2695
22054W        W65107   0.176   3.403   8.655 -0.1144 -0.1543  0.1329
22055W        W65108  16.730   6.768   2.589 -0.2729  0.0642  0.2448
22056W        W65109  21.921   3.614   5.280  0.0693  0.1531 -0.4177
22057W        W65110  18.954   3.033  26.158 -0.4005 -0.2414 -0.1139
22058W        W65111  21.023   9.259   9.062  0.3397  0.0185 -0.1690
22059W        W65112   9.785  33.813   9.134 -0.0135 -0.1777  0.1408
22060W        W65113   8.189   9.706   5.798 -0.1883  0.0827 -0.0169
22061W        W65114  31.856   6.234  10.296 -0.0019 -0.0566 -0.1304
22062W        W65115   5.909   5.750   8.618  0.0082 -0.0129  0.1560
22063W        W65116  23.777  21.035   1.814 -0.2499  0.2555  0.2289
22064W        W65117  30.732   8.063   8.771  0.4306  0.1361  0.1368
22065W        W65118  18.815  13.359  25.848 -0.0766  0.1580 -0.5370
22066W        W65119   2.670   2.654   5.212 -0.0164 -0.0702 -0.2510
22067W        W65120  29.442  28.535   2.263  0.3605  0.0984 -0.1007
22068W        W65121  25.752   8.649  27.188  0.4174  0.0200  0.1463
22069W        W65122  24.324  12.093   4.574  0.1863  0.1669 -0.2065
22070W        W65123  21.182  20.847   9.932  0.2670  0.3039 -0.0837
22071W        W65124  26.365   6.782   2.326  0.3863  0.2518 -0.0384
22072W        W65125  18.870  31.181  28.779  0.1913 -0.0119  0.2442
22073W        W65126  14.250   5.203   3.052 -0.0227  0.2533  0.0093
22074W        W65127  22.232  18.796  27.940 -0.0995 -0.1946 -0.2166
22075W        W65128  27.630  30.940   4.585 -0.2592 -0.0308 -0.0472
22076W        W65129  24.353  15.318   6.089 -0.1168  0.3039  0.1977
22077W        W65130  21.330   5.092   9.128  0.0768 -0.0351 -0.0057
22078W        W65131  28.172  13.204  10.261  0.1459  0.1394  0.1659
22079W        W65132  29.450   2.862   3.334 -0.1064  0.0018 -0.2122
22080W        W65133  20.217  33.274  27.540  0.0587  0.1839 -0.0232
22081W        W65134  14.664  26.114   2.231  0.2366 -0.2434  0.0864
22082W        W65135  20.408   1.623  28.680  0.1195 -0.1718 -0.0333
22083W        W65136  33.348  31.085   5.221 -0.2924 -0.1228 -0.1996
22084W        W65137  25.152   9.990  19.444 -0.0976  0.2057  0.0712
22085W        W65138   4.960  29.337   8.961  0.0227  0.0951  0.0133
22086W        W65139  26.774  17.052  25.816  0.1108  0.0586  0.0544
22087W        W65140  18.767   9.684  29.172 -0.1632 -0.2535 -0.0944
22088W        W65141  21.168  14.720   1.586  0.1772 -0.1048  0.1033
22089W        W65142  24.850  13.387   9.739 -0.0990  0.1232  0.1488
22090W        W65143  24.906  17.088   2.130  0.1486 -0.0817  0.0746
22091W        W65144  12.679   7.946   6.576 -0.0765 -0.0044 -0.2301
22092W        W65145  21.019  14.845   7.498  0.1098 -0.0919  0.0790
22093W        W65146  33.530   7.640  10.454 -0.0614  0.1452 -0.1234
22094W        W65147  30.999  28.018   1.847 -0.4056  0.0542 -0.1256
22095W        W65148   1.083  34.309  28.547  0.1642  0.1755 -0.0712
22096W        W65149   4.369   8.509  16.498 -0.0361  0.0661  0.0140
22097W        W65150  23.835  11.153  10.039 -0.0680  0.2098 -0.2072
22098W        W65151  25.655  33.032  10.287 -0.2497  0.4405  0.1906
22099W        W65152  31.120   3.142   9.420  0.2190  0.1779 -0.0922
22100W        W65153  19.168  22.256   3.295  0.2601 -0.3851  0.0534
22101W        W65154  29.405  10.099   7.864 -0.1631  0.0191 -0.1175
22102W        W65155  27.229  17.958  19.262  0.1231 -0.3113 -0.1374
22103W        W65156  19.005   8.187  26.385  0.2161  0.2525  0.1561
22104W        W65157   3.715   2.762   7.508  0.3625 -0.1578  0.2455
22105W        W65158  29.955  13.800   8.955  0.0001  0.2519  0.0069
22106W        W65159  26.293  34.301  10.051 -0.0092  0.3125  0.0394
22107W        W65160  23.647  19.460   2.981  0.2275  0.4285  0.0596
22108W        W65161  24.967  13.082   6.680  0.0579  0.2114  0.0042
22109W        W65162   1.660   4.419  28.004 -0.5272  0.0388 -0.3650
22110W        W65163  12.467   9.676   7.162  0.0285 -0.0971  0.0849
22111W        W65164  32.710   5.014   6.201 -0.0078  0.1248  0.1585
22112W        W65165  16.988   8.815  27.891  0.1188  0.0385  0.0905
22113W        W65166  19.180   8.794   4.907  0.0389 -0.2980  0.0177
22114W        W65167  17.066   4.329   9.910  0.1445  0.0747 -0.4369
22115W        W65168  19.122   5.389   8.685 -0.2476  0.0090 -0.0017
22116W        W65169  29.671  24.939   0.133  0.0711  0.0399 -0.0844
22117W        W65170  30.555   8.536  10.095  0.0259  0.1585  0.0408
22118W        W65171  13.042  28.081   5.051  0.0946 -0.2626  0.1384
22119W        W65172  34.358  12.708   0.052 -0.1251  0.1439  0.1371
22120W        W65173  29.031  31.799   4.013  0.2981 -0.1194 -0.0265
22121W        W65174   7.434  29.902   2.614 -0.2200  0.1027 -0.1490
22122W        W65175  24.581   5.504  28.663 -0.1932 -0.0649  0.0140
22123W        W65176  23.356   5.815   0.646  0.0693 -0.1482  0.1646
22124W        W65177  29.037   7.356  10.617  0.0990  0.0499  0.0057
22125W        W65178  17.407   8.710  23.850 -0.0540  0.0884 -0.1154
22126W        W65179  19.989  19.411  23.974  0.1306  0.1604  0.0179
22127W        W65180  25.638  15.845   9.691 -0.2678 -0.0581  0.1089
22128W        W65181  31.833  14.198   9.404 -0.0596 -0.0940  0.2481
22129W        W65182  16.427  20.278   9.429  0.0170 -0.0961 -0.0882
22130W        W65183  23.461   7.505   9.191 -0.3704 -0.0154 -0.0358
22131W        W65184  25.975  23.492   5.036  0.2316  0.0876 -0.6305
22132W        W65185  30.910  12.392   5.577  0.0101  0.2874  0.1780
22133W        W65186  24.850   9.881  21.417  0.0222 -0.1227  0.0010
22134W        W65187  11.343   4.016  26.767  0.1043 -0.1144 -0.0249
22135W        W65188  28.828  29.634   1.046 -0.0266 -0.2470 -0.0948
22136W        W65189  21.335  29.602   1.151 -0.2516 -0.3730  0.1020
22137W        W65190  29.210  17.793  10.150  0.1626  0.2767  0.1820
22138W        W65191  15.745   7.074   1.773 -0.0912  0.1564  0.1169
22139W        W65192  28.918   8.283  22.074 -0.0690  0.2523 -0.1859
22140W        W65193  24.516   6.570   1.129 -0.1803  0.1587 -0.0230
22141W        W65194   3.121  11.169   4.744  0.0686  0.2403  0.1628
22142W        W65195  26.649  32.696   7.211  0.2261 -0.1336 -0.1680
22143W        W65196  30.583  13.869  28.472 -0.1950 -0.3419 -0.1129
22144W        W65197  13.126  11.051   2.207 -0.0403  0.1035 -0.2045
22145W        W65198  32.471   5.317   0.849  0.0761 -0.3207 -0.0974
22146W        W65199  22.340   9.499  18.340  0.0045 -0.1894 -0.0983
22147W        W65200  28.421   0.324   6.600 -0.1988 -0.1096  0.2030
22148W        W65201  25.000  26.067   2.251 -0.1606 -0.1002 -0.0277
22149W        W65202  29.629   5.555   9.672  0.0091 -0.0524 -0.1646
22150W        W65203  26.777   7.269   9.116  0.1853 -0.0272  0.0973
22151W        W65204   9.430  16.887   9.661  0.0189  0.0966 -0.0421
22152W        W65205  22.004  21.715  10.780  0.2034 -0.2290  0.3257
22153W        W65206  24.995   6.361   7.689  0.2863 -0.0984 -0.2253
22154W        W65207   7.309  20.190   8.337  0.2678 -0.1369 -0.1872
22155W        W65208  21.249  28.817   6.687 -0.1183 -0.0226 -0.1694
22156W        W65209  33.273   5.277  26.783 -0.1650 -0.0829 -0.1728
22157W        W65210   4.912  11.340   3.523  0.0655 -0.2112  0.0867
22158W        W65211  12.982  15.233   2.193  0.0001 -0.1332  0.1709
22159W        W65212  14.694   5.858  10.541 -0.1860  0.1087  0.1391
22160W        W65213  25.596   5.217   3.654 -0.3006 -0.0174  0.1882
22161W        W65214  27.250  22.092   3.165 -0.2050  0.2667  0.0345
22162W        W65215  31.177   4.876   9.515  0.0132  0.3124 -0.1721
22163W        W65216  13.888   8.368   0.650  0.0667 -0.0693  0.2879
22164W        W65217   6.772  12.965   4.926 -0.1771 -0.0981 -0.0090
22165W        W65218  14.139  10.531   1.537 -0.0015 -0.2644  0.1597
22166W        W65219  13.328   9.760  25.321 -0.1508  0.3128  0.1891
22167W        W65220  13.353   4.932   9.619 -0.3844 -0.0652  0.3082
22168W        W65221   7.483   4.512   9.540 -0.0050 -0.1498  0.0871
22169W        W65222  19.645  29.545   0.450 -0.0177  0.0935  0.1276
22170W        W65223  12.526  20.893   9.225  0.1745 -0.1351 -0.5422
22171W        W65224  22.936  19.685   8.528 -0.1913  0.2104 -0.0260
22172W        W65225  23.100  13.583   1.354  0.0078 -0.0501 -0.1818
22173W        W65226  19.055  18.900  22.431 -0.0373 -0.2584 -0.0632
22174W        W65227  27.440  15.418  17.260  0.1259 -0.2126  0.1655
22175W        W65228  14.464  12.094   8.905 -0.0209 -0.3126 -0.1068
22176W        W65229   3.519  10.049  23.015  0.2049 -0.5605  0.1351
22177W        W65230   2.796   0.644   5.770 -0.0626 -0.0395  0.0524
22178W        W65231  24.442   8.949   9.975  0.1357 -0.0261 -0.1445
22179W        W65232   6.147  30.134  22.901 -0.3028  0.2439 -0.0265
22180W        W65233  12.146  31.634   9.428  0.1220  0.1471 -0.2009
22181W        W65234   7.684   7.469   3.165 -0.0092  0.1301  0.0243
22182W        W65235  26.809   8.167   9.779  0.3838  0.0396 -0.0456
22183W        W65236  22.524  15.027  24.867  0.1163 -0.3225  0.3742
22184W        W65237  24.966   4.921   1.465 -0.0042 -0.0957 -0.0669
22185W        W65238   5.480  23.869   5.526 -0.0777 -0.0924  0.2762
22186W        W65239  18.816  14.305  25.124 -0.2630  0.1111 -0.3071
22187W        W65240   7.804   8.350  23.157  0.1265  0.0168  0.0267
22188W        W65241  24.035   4.139  29.024 -0.1264  0.0598 -0.0637
22189W        W65242  25.214   5.163   0.082  0.1095 -0.0915 -0.3613
22190W        W65243  21.465   0.640  10.054 -0.1293  0.2809  0.1943
22191W        W65244  26.237  14.597   1.418  0.0807  0.2843  0.0035
22192W        W65245  15.730  17.293  25.908 -0.0534 -0.0916  0.2084
22193W        W65246  25.535  23.962   6.714 -0.1352  0.0544 -0.1765
22194W        W65247   8.775  31.247  27.658  0.0034 -0.1570  0.1374
22195W        W65248  27.692  14.158   6.713 -0.1462 -0.0098  0.1419
22196W        W65249  24.338   1.920   2.053  0.1798 -0.0233 -0.1555
22197W        W65250  15.164  11.159   1.269  0.0253  0.3609  0.1291
22198W        W65251  32.842  32.696   8.766 -0.4052  0.1663 -0.0377
22199W        W65252   1.685  11.611   2.348 -0.0879  0.1631 -0.1636
22200W        W65253  21.455   1.143   7.521 -0.1724  0.2464 -0.1078
22201W        W65254  19.229   8.998   5.422 -0.4195  0.0558  0.3006
22202W        W65255  23.900  17.063   8.618  0.4061 -0.3444 -0.4270
22203W        W65256  11.137   5.239  27.532  0.1001  0.2319  0.1446
22204W        W65257  27.491  21.067   8.408  0.3727  0.1602  0.2288
22205W        W65258   4.875  10.432   7.910  0.2149  0.1189 -0.0680
22206W        W65259  27.774  21.854  29.072  0.1621  0.0095  0.1202
22207W        W65260  21.653  23.583  28.861  0.1106  0.1986 -0.2373
22208W        W65261  19.977  23.533   5.105  0.0254 -0.3322 -0.2374
22209W        W65262  26.991  12.324  22.356  0.1683 -0.2199 -0.0903
22210W        W65263  28.633  12.256   8.675 -0.2248  0.1939  0.0999
22211W        W65264  16.759  10.252  27.186  0.1741 -0.2365  0.0041
22212W        W65265  19.887  15.760   5.564 -0.0284  0.2718  0.0681
22213W        W65266  21.431  18.295   1.208 -0.0395  0.1383  0.1183
22214W        W65267  19.046  25.087   4.983 -0.2110 -0.0459 -0.2346
22215W        W65268  27.473  16.829   3.768 -0.3135  0.0537  0.0234
22216W        W65269  20.069   8.854   4.503 -0.1784  0.1355 -0.1202
22217W        W65270  19.819  15.655   4.816  0.0944 -0.3187 -0.1665
22218W        W65271   4.877  25.208   5.836  0.3709 -0.2139  0.3273
22219W        W65272  14.935  23.565   3.869 -0.2161  0.0125  0.0022
22220W        W65273  23.944  13.323  27.988 -0.0551  0.3133  0.0865
22221W        W65274  22.030   3.172   2.486 -0.4596  0.0847 -0.3616
22222W        W65275  19.728  12.141   1.732 -0.1568 -0.0845  0.3558
22223W        W65276  17.961  18.730   2.602 -0.0389 -0.0367 -0.1562
22224W        W65277  26.142  10.288   5.994 -0.0136  0.2497 -0.1192
22225W        W65278  18.978   7.784  28.845 -0.2456  0.3547  0.0785
22226W        W65279   1.218   3.072   3.219  0.0302 -0.1365  0.0371
22227W        W65280  25.965   3.905   3.627  0.1298 -0.2090  0.1149
22228W        W65281  12.664  20.734  24.563  0.0227  0.3343 -0.2198
22229W        W65282  18.407  16.853  27.530  0.2896  0.2017 -0.0657
22230W        W65283  15.373  20.464   6.480  0.0645  0.0473 -0.0870
22231W        W65284  20.936  15.979   3.926  0.2653  0.3647  0.1853
22232W        W65285  29.659   9.544   6.568  0.1301  0.0441  0.0524
22233W        W65286  33.351  25.531  21.854 -0.3015  0.0829 -0.0914
22234W        W65287  25.328  30.991   7.232 -0.0312 -0.3418 -0.5709
22235W        W65288  28.143  28.873  23.619  0.0229  0.1571  0.1224
22236W        W65289   4.058   6.390   8.803  0.1872 -0.2128  0.2340
22237W        W65290  30.775  24.046   0.514  0.2189 -0.2062 -0.0312
22238W        W65291  28.985   7.477   5.770  0.0582  0.1102 -0.1917
22239W        W65292  19.439  32.192   2.883  0.1921 -0.1848 -0.0765
22240W        W65293   1.236  18.916  28.251  0.3342 -0.0077 -0.1318
22241W        W65294   9.807  15.143   4.624 -0.3777 -0.2992 -0.0308
22242W        W65295  30.382   8.050  10.088 -0.0764 -0.0549 -0.0346
22243W        W65296  24.937  19.456  28.066 -0.0870  0.1369  0.2734
22244W        W65297  13.373   6.250   3.343 -0.1874 -0.1780 -0.0923
22245W        W65298  31.983  27.114   4.458 -0.0802 -0.0455  0.1846
22246W        W65299  21.891  11.022   8.338  0.1020  0.2292 -0.0251
22247W        W65300  15.443  12.817   1.393  0.0619  0.1765  0.1332
22248W        W65301  24.216   5.308   3.145 -0.1781 -0.1134 -0.2898
22249W        W65302  24.891  11.926   8.789  0.0490 -0.0690  0.2500
22250W        W65303  27.671  32.857   4.182  0.2426  0.1412 -0.2014
22251W        W65304   7.009  17.788   6.791 -0.2610  0.1228  0.0185
22252W        W65305  14.025  10.506   3.306 -0.0491 -0.3638  0.0436
22253W        W65306  19.015  10.751   8.252  0.2298 -0.1748  0.0174
22254W        W65307  12.200   9.526   2.225  0.0030 -0.2525  0.0953
22255W        W65308   3.715   5.808   3.310 -0.1161  0.0817 -0.1193
22256W        W65309  26.013  18.408   5.443  0.0710  0.1396 -0.1347
22257W        W65310  20.189   9.277   2.319 -0.1699  0.0531 -0.2716
22258W        W65311  18.205  33.067   6.441  0.2374 -0.1164  0.0281
22259W        W65312  11.444  19.893   0.164  0.0760 -0.2058 -0.1367
22260W        W65313  33.364  26.678   6.714  0.2070 -0.0835  0.0541
22261W        W65314  13.983  26.869   9.574  0.0103  0.1837  0.0467
22262W        W65315  24.609   6.547   4.634  0.2663  0.1350 -0.0553
22263W        W65316  24.149   1.686   7.040 -0.2357 -0.1537  0.0478
22264W        W65317  21.147   8.960   0.250  0.2443 -0.0450  0.1280
22265W        W65318  19.861  12.440   7.743  0.1062  0.1293  0.1510
22266W        W65319  27.490  31.447  28.771  0.2071 -0.4846  0.1637
22267W        W65320  28.981  17.239   6.705  0.2289 -0.2747  0.0096
22268W        W65321  15.922   8.767   7.160  0.0928  0.0714  0.0078
22269W        W65322  29.012   3.997   9.983  0.0746  0.0733  0.1747
22270W        W65323   4.363   8.150   5.145 -0.1718 -0.0436  0.4278
22271W        W65324   8.793   2.314   5.036  0.2033  0.3177 -0.0891
22272W        W65325  17.043  16.962  26.674 -0.1794  0.0891 -0.0335
22273W        W65326  24.513   9.923  10.121 -0.1008 -0.2487  0.0383
22274W        W65327  27.805   9.783   5.058  0.0630 -0.0949  0.1410
22275W        W65328  24.475  13.904  16.918  0.1347  0.1376  0.0923
22276W        W65329  20.245  33.510   3.151  0.1033  0.4459  0.3675
22277W        W65330  20.961  16.226   2.538  0.0240  0.0756 -0.0479
22278W        W65331  20.193  18.783   5.823  0.0502 -0.0530  0.0570
22279W        W65332  24.606  15.383  26.015  0.3601 -0.0372 -0.0317
22280W        W65333  17.834  31.958   8.419  0.0915  0.2627 -0.0903
22281W        W65334  29.446  21.011  10.335  0.2376  0.2926 -0.0456
22282W        W65335  31.123  13.979   5.260  0.3754  0.3464  0.2199
22283W        W65336  18.658   1.707   9.284 -0.2177 -0.4093  0.0463
22284W        W65337  20.526   6.325   1.569  0.0890  0.0045 -0.1105
22285W        W65338  13.861   6.267   9.677  0.0159 -0.2714  0.1441
22286W        W65339  16.754  15.573  24.259  0.0169 -0.2628 -0.0656
22287W        W65340  29.410  18.419  25.000 -0.1059  0.0188  0.0850
22288W        W65341  20.065  34.079   4.953 -0.2460  0.1043  0.0999
22289W        W65342  11.341   6.061   2.076 -0.0113 -0.1150 -0.3353
22290W        W65343   5.262  13.224   5.952  0.1394  0.2192  0.0670
22291W        W65344  18.782  21.332   4.861 -0.0302  0.0684  0.0221
22292W        W65345  26.125  16.876  10.490 -0.0882 -0.1006  0.4823
22293W        W65346   9.059  20.918   6.198  0.0679 -0.1549  0.5029
22294W        W65347  33.130   8.858   3.327 -0.3849 -0.0748  0.0959
22295W        W65348  19.034   2.984   8.937 -0.2744  0.1220  0.0910
22296W        W65349  20.489  30.280   2.286 -0.0343 -0.0626  0.1818
22297W        W65350   8.896  12.136   5.312  0.0688 -0.1176  0.0392
22298W        W65351  32.082  11.549  10.542 -0.2129  0.0932 -0.0375
22299W        W65352   9.532  12.408   8.228  0.3597 -0.0833  0.3416
22300W        W65353  27.688  27.831   0.869 -0.2274  0.1075 -0.2142
22301W        W65354  11.349   7.031   7.946 -0.1699  0.3497  0.1302
22302W        W65355  27.211  10.134  18.836 -0.0697 -0.0885  0.0066
22303W        W65356  24.424  18.877  28.170 -0.3650  0.0304 -0.0156
22304W        W65357  12.940   6.782  10.278  0.1274  0.0937 -0.0772
22305W        W65358  19.146  12.611   4.734  0.0871 -0.1419  0.1318
22306W        W65359   9.420  18.467   8.231  0.1037 -0.3854 -0.0778
22307W        W65360  24.249  30.063   0.132  0.0274 -0.1696  0.1589
22308W        W65361  27.899  30.864  10.400 -0.2717  0.0678 -0.2463
22309W        W65362  16.025   4.336   4.076  0.0457 -0.1305 -0.0693
22310W        W65363  22.827   7.145   8.567  0.1507 -0.2104 -0.1413
22311W        W65364  27.039  19.555   1.943  0.1555  0.1782 -0.0041
22312W        W65365  29.796  10.175   9.282  0.0807  0.0391 -0.0980
22313W        W65366  17.547  13.929  10.100  0.1382  0.0115 -0.0151
22314W        W65367  24.466   8.090   7.388  0.1283 -0.0603 -0.3362
22315W        W65368  16.656  17.313   8.748  0.2672 -0.1250 -0.0237
22316W        W65369  19.365  11.740   5.515 -0.1289  0.1686  0.3260
22317W        W65370  23.261  17.278   5.105 -0.1948  0.0591  0.2104
22318W        W65371  19.449   1.584  28.988  0.1040  0.0870 -0.3620
22319W        W65372  27.316  20.825   6.403  0.2009 -0.1609 -0.0474
22320W        W65373  22.404  14.533   6.798 -0.1028  0.0145 -0.1796
22321W        W65374   1.021   5.529   2.474 -0.1571 -0.0938 -0.1510
22322W        W65375  14.435  14.021  24.194 -0.3061  0.0819 -0.2202
22323W        W65376  20.291  12.707  22.631 -0.2480 -0.0602  0.2242
22324W        W65377  29.357   8.651   6.476  0.2707  0.2814  0.2081
22325W        W65378  10.680   8.925   6.027  0.0255  0.1788 -0.2064
22326W        W65379  16.774  17.762  18.882 -0.3814  0.0589  0.2923
22327W        W65380  20.013  17.584   6.688  0.3349 -0.0923 -0.0913
22328W        W65381  25.804   0.119  10.590 -0.1183 -0.0381 -0.2208
22329W        W65382   1.897  32.184  26.731 -0.1870 -0.3524 -0.3067
22330W        W65383  27.269  12.321   8.903  0.1044  0.0289 -0.3551
22331W        W65384   1.834  34.171   6.436  0.3143  0.0644  0.0797
22332W        W65385  10.987  31.837   3.042 -0.0801 -0.3204 -0.3455
22333W        W65386  18.646  12.988  22.483  0.0020 -0.0365  0.1318
22334W        W65387  25.445  10.775   5.124  0.2764  0.1777  0.0656
22335W        W65388   4.922  17.302   8.057 -0.2857  0.2470  0.1007
22336W        W65389  30.244  11.766  10.376  0.0378 -0.1768 -0.0925
22337W        W65390  26.644  10.065   8.646 -0.1116 -0.0872 -0.1211
22338W        W65391  24.000  12.721   7.760  0.0826 -0.1811 -0.5675
22339W        W65392   0.427  33.006   7.583  0.0141 -0.0509  0.1382
22340W        W65393  20.809   1.374   5.848  0.2667  0.2378 -0.1087
22341W        W65394  29.574  24.248  22.238  0.1038 -0.0303  0.1831
22342W        W65395  19.804   8.045   3.769  0.2679  0.3544 -0.1801
22343W        W65396  13.377  10.399   2.619  0.5258  0.2219  0.1107
22344W        W65397  24.202   4.402  23.508  0.0580  0.0436 -0.0985
22345W        W65398  27.855  16.580   9.470 -0.1494 -0.1141 -0.1436
22346W        W65399  13.662  17.399   4.898  0.1018  0.0268 -0.0508
22347W        W65400  24.436  24.917  27.719 -0.0035  0.0060 -0.0221
22348W        W65401   2.898  11.715   2.093 -0.0537 -0.2516  0.1666
22349W        W65402   6.026  15.916   7.784 -0.1695 -0.0482  0.1907
22350W        W65403  21.333   2.500   3.605 -0.4397  0.1925 -0.0985
22351W        W65404  19.128  17.181   6.488 -0.0571  0.3484 -0.4378
22352W        W65405  33.426  16.009   6.632  0.0310  0.0035  0.2599
22353W        W65406  23.313  10.725   8.068 -0.2121 -0.0425 -0.1263
22354W        W65407  18.782  15.992   1.273  0.3488 -0.1124  0.1264
22355W        W65408   8.782  31.597   0.575 -0.2619 -0.0680 -0.3082
22356W        W65409  16.902   1.077   5.635  0.1948  0.0124  0.2692
22357W        W65410  29.311  19.088   5.026  0.3256 -0.1342  0.1933
22358W        W65411  25.558  13.958  22.130  0.1534  0.0408  0.3798
22359W        W65412  29.080  33.656   5.154 -0.0554 -0.4706  0.0753
22360W        W65413   0.386  11.677   2.383 -0.0389 -0.1101  0.1462
22361W        W65414  32.246  16.249   4.011  0.0682  0.0536  0.0202
22362W        W65415  11.573   8.054   9.913 -0.1677 -0.0632 -0.1142
22363W        W65416   4.982   8.004   8.669 -0.0371 -0.0247  0.1726
22364W        W65417  13.954   3.848   9.293  0.0119 -0.1653 -0.0045
22365W        W65418  22.729  11.472  28.566 -0.0684  0.1608 -0.0936
22366W        W65419  26.843  18.961   6.871  0.0139  0.3271 -0.2797
22367W        W65420  19.114   9.348  20.007  0.2033  0.1320  0.1996
22368W        W65421  26.464  14.484   9.637  0.0675 -0.1803 -0.1000
22369W        W65422  14.401   7.007   3.091  0.0335  0.1322  0.2627
22370W        W65423   3.289   0.383   5.108  0.2487  0.2368 -0.0092
22371W        W65424  14.381  10.961  19.491  0.3028  0.0949 -0.2706
22372W        W65425   1.694  30.689   5.568  0.1975 -0.3060  0.1879
22373W        W65426   4.901  16.011   2.676  0.0783  0.1473 -0.1560
22374W        W65427  23.526  19.259  28.434  0.0066 -0.0272  0.4339
22375W        W65428  22.851  16.003   4.421  0.2279 -0.1656  0.0192
22376W        W65429   3.396  16.845  16.984 -0.1004 -0.2046  0.0258
22377W        W65430  19.086  11.963   6.468  0.0353  0.2379  0.0634
22378W        W65431  20.394  12.494  20.827  0.0413  0.0365  0.0002
22379W        W65432  20.968   7.465  23.309  0.1203  0.2057 -0.2789
22380W        W65433  18.583  14.459   9.886  0.1145 -0.3013  0.1635
22381W        W65434  15.768  15.213   2.992  0.0828 -0.0119 -0.3450
22382W        W65435  15.586  18.168   8.672 -0.3231  0.3360  0.1075
22383W        W65436   4.696  29.327  20.487  0.0005  0.2498  0.0456
22384W        W65437  30.279  14.745  15.439  0.1689 -0.2167  0.0158
22385W        W65438  24.953  15.446   3.533 -0.2735 -0.1557 -0.0578
22386W        W65439  32.586   8.786   8.370  0.1431  0.1780 -0.0277
22387W        W65440  25.444  24.392  25.347  0.0441 -0.1908  0.1841
22388W        W65441  24.033  18.341   1.149  0.1974 -0.0940 -0.1283
22389W        W65442  10.083  24.533   3.866 -0.2587 -0.2699 -0.1817
22390W        W65443  10.767  19.986   9.436  0.0980  0.3790  0.0169
22391W        W65444   0.451  11.870   3.035  0.0570 -0.2825 -0.3514
22392W        W65445  20.878  26.013   2.286  0.0702  0.1973  0.1540
22393W        W65446  10.846  22.558   8.134 -0.0306 -0.0234 -0.1030
22394W        W65447   9.506   1.230   4.471 -0.3274 -0.1132 -0.0433
22395W        W65448  10.408  21.348  27.634 -0.2810 -0.0474  0.0413
22396W        W65449   6.407  22.399  14.204 -0.0517 -0.1780 -0.2097
22397W        W65450   5.322   5.256  19.525  0.2521  0.3647  0.0946
22398W        W65451  33.178   9.411   8.734 -0.0795 -0.1591 -0.0999
22399W        W65452   6.075  14.073   8.265  0.1876 -0.0850  0.0106
22400W        W65453  32.458  21.065  26.760 -0.0576 -0.4438  0.0403
22401W        W65454  33.506  19.640   2.313  0.3247 -0.1377  0.0419
22402W        W65455   1.877  15.061  25.020  0.1015 -0.2177 -0.1832
22403W        W65456  11.600  18.440   1.625 -0.1237 -0.1291  0.1791
22404W        W65457  23.034  15.489   5.625 -0.1480  0.0742 -0.1570
22405W        W65458  19.753   1.447  21.044 -0.0079 -0.0860  0.2859
22406W        W65459  30.441  23.910  16.379 -0.0685 -0.2089  0.0343
22407W        W65460  25.807  17.631   5.124  0.0423  0.0636  0.3378
22408W        W65461  25.078  13.684  21.341  0.1332  0.1489  0.1790
22409W        W65462  28.457  13.534  28.711 -0.0340  0.0215 -0.1900
22410W        W65463  23.681  22.571   3.474 -0.0000 -0.0123  0.0302
22411W        W65464  21.721  15.646  26.640  0.3755 -0.0782  0.1862
22412W        W65465  11.631  22.102   6.431  0.0790 -0.1331  0.1905
22413W        W65466  27.940  24.326   0.533  0.0551  0.4249 -0.1897
22414W        W65467  16.429   1.635   9.221  0.0329 -0.0281 -0.1286
22415W        W65468  20.081  28.692   7.560 -0.2245  0.0760 -0.0776
22416W        W65469  15.242  21.179   1.121 -0.2420 -0.1053  0.1891
22417W        W65470   0.616  12.881   5.471 -0.3312 -0.1805 -0.1930
22418W        W65471  13.058  16.562  28.769 -0.2120 -0.1221 -0.0301
22419W        W65472   7.096  10.447   6.121  0.2165  0.2456 -0.1232
22420W        W65473  19.321  14.250   3.578 -0.0626  0.3147 -0.2453
22421W        W65474   1.127  33.971  21.027  0.0103 -0.0312 -0.1298
22422W        W65475   0.805  14.464  28.929 -0.1103  0.0809  0.1841
22423W        W65476  20.744  29.335   8.116 -0.0729  0.2007 -0.1380
22424W        W65477  27.490   6.641   0.835 -0.1963  0.0596 -0.1055
22425W        W65478  17.642  14.878   4.182 -0.1472 -0.1409 -0.2844
22426W        W65479  20.692  11.259   2.776 -0.0966 -0.2178 -0.2769
22427W        W65480   8.496  18.013  15.219 -0.0279  0.0435  0.0093
22428W        W65481  33.248  17.505  27.400 -0.0916 -0.1465 -0.1988
22429W        W65482  28.500  17.354   7.793  0.0173 -0.3048  0.1925
22430W        W65483  34.337  16.071   9.622  0.2400  0.1726 -0.1099
22431W        W65484  19.307  28.587   8.684  0.0604  0.3885  0.1910
22432W        W65485  27.713  12.489  24.531 -0.0560  0.2061  0.2002
22433W        W65486  15.882   9.204   4.298 -0.3090  0.0425 -0.1467
22434W        W65487   2.153  22.209   5.986 -0.1314 -0.1426 -0.0367
22435W        W65488  25.873  15.301   4.131  0.2032 -0.2399  0.3960
22436W        W65489  34.084   3.677  29.111 -0.0148  0.2695 -0.0341
22437W        W65490  16.733  19.382   7.533  0.1143 -0.3447  0.0149
22438W        W65491   4.983   4.133  16.490  0.0424  0.3096  0.0763
22439W        W65492  13.991   9.029  21.414 -0.0655  0.1292 -0.2818
22440W        W65493  29.305   4.561  23.143 -0.0930  0.1894 -0.2981
22441W        W65494   8.020   7.674  26.467 -0.2028 -0.1288 -0.6010
22442W        W65495   2.641  19.929   3.827  0.0545 -0.1822  0.2555
22443W        W65496  18.067  17.784   6.247 -0.3259 -0.0926 -0.1856
22444W        W65497  24.272  13.036  17.637 -0.1374  0.2391  0.1477
22445W        W65498  29.822  30.972  28.495  0.0860  0.2056 -0.2527
22446W        W65499  27.365  12.600   3.461 -0.0235 -0.2316  0.0261
22447W        W65500  28.797  26.930   0.298  0.1962  0.3338  0.1389
22448W        W65501   9.711  34.487  23.309 -0.1094 -0.1194  0.0380
22449W        W65502  21.417  18.918  22.710 -0.1534  0.0714 -0.4297
22450W        W65503   0.570  17.152   9.398  0.1312  0.0876 -0.1198
22451W        W65504  17.106  33.236   5.980 -0.1625 -0.2236 -0.0733
22452W        W65505  26.404  12.212   3.502 -0.1237 -0.1049 -0.0673
22453W        W65506   5.097  11.200   8.219  0.1990  0.1468 -0.3801
22454W        W65507  28.147  15.918  29.030  0.0882  0.1141 -0.2171
22455W        W65508  24.721   9.925   4.049  0.5121  0.1114 -0.2183
22456W        W65509  13.369  12.641   4.823 -0.0468 -0.2212 -0.1253
22457W        W65510  20.249   1.940   5.837 -0.3537 -0.0308  0.1219
22458W        W65511   5.686  10.108  19.792  0.1378  0.2565 -0.0834
22459W        W65512  34.441  15.265   5.540  0.1786  0.2145  0.3557
22460W        W65513  33.740  16.463  27.651 -0.1008 -0.0730 -0.2557
22461W        W65514  22.323  12.594   8.097 -0.1842  0.1220 -0.0584
22462W        W65515  14.326   4.476   3.164  0.0240 -0.0867  0.3375
22463W        W65516  22.232  19.184  25.422  0.0200 -0.1099 -0.2104
22464W        W65517  14.651   0.277   0.585  0.2510 -0.0130 -0.1272
22465W        W65518  32.394  11.638   2.185 -0.2947  0.1089  0.0877
22466W        W65519   8.225   4.773   1.179 -0.1051  0.1183  0.1550
22467W        W65520  19.249  13.077  16.412  0.0717 -0.1832 -0.1912
22468W        W65521   6.136  11.369   1.139  0.0127 -0.0223 -0.1021
22469W        W65522  23.519  10.371  24.632 -0.2186  0.1961  0.2659
22470W        W65523  17.356  13.383  22.047  0.1719  0.1936 -0.4694
22471W        W65524  27.164  15.185  16.943  0.1262  0.3140 -0.0783
22472W        W65525   6.394  26.167  27.675 -0.0458 -0.0253  0.0887
22473W        W65526  15.195   8.937   6.313  0.1906  0.2526  0.3988
22474W        W65527   0.292   4.663  26.735  0.1226  0.5268 -0.0313
22475W        W65528   4.291  17.166  10.068  0.1926  0.1264 -0.1558
22476W        W65529   9.535   9.544   4.214 -0.2599  0.1257 -0.1773
22477W        W65530  24.383  25.628   5.027 -0.0088 -0.1763 -0.0020
22478W        W65531  27.699   2.149   8.726 -0.1408 -0.1197  0.1481
22479W        W65532  23.210   7.907   9.158 -0.3753  0.1560 -0.1753
22480W        W65533  20.694  11.377   3.922 -0.3809 -0.0481 -0.1958
22481W        W65534   6.951  14.046  27.273  0.1261  0.2816 -0.1743
22482W        W65535  20.757  33.249   2.448  0.3336  0.1917  0.2033
22483W        W65536  21.324  20.365   0.660  0.4555 -0.1528  0.0358
22484W        W65537  28.229  13.145  23.202  0.2682  0.3733  0.0274
22485W        W65538  25.341   6.388   4.199 -0.1812  0.2001  0.1908
22486W        W65539  20.814  23.343   4.104  0.1706 -0.4057  0.2319
22487W        W65540  11.491   3.860  22.352 -0.1401  0.2349 -0.3790
22488W        W65541  13.620   8.627  24.101 -0.1105  0.0512  0.2025
22489W        W65542  34.148  33.737   9.854 -0.1085  0.0253  0.1338
22490W        W65543  26.677  33.186   9.505  0.2454 -0.2806  0.2609
22491W        W65544  33.542  28.862   5.204 -0.0465  0.2265 -0.1116
22492W        W65545  18.152   2.753  25.758  0.0232  0.1075  0.0973
22493W        W65546  27.587  17.537  21.464  0.1384 -0.2152 -0.4890
22494W        W65547  19.505   5.670  27.871  0.0179 -0.4090 -0.2507
22495W        W65548  33.742  16.395  27.101  0.1607  0.0647 -0.0535
22496W        W65549  29.827   3.855   4.825 -0.0580 -0.2137  0.4071
22497W        W65550  23.412  11.001   5.776  0.2997  0.5171  0.3407
22498W        W65551  18.728  33.964   4.240 -0.0767  0.2862 -0.0602
22499W        W65552  14.419   8.033   8.368 -0.0566  0.1939 -0.2026
22500W        W65553  27.728  14.739  26.028  0.2101  0.0540  0.3189
22501W        W65554  24.810   2.259   9.717  0.0671 -0.0930  0.1786
22502W        W65555  31.161   8.819  17.281 -0.0345 -0.0695 -0.2357
22503W        W65556  33.935  31.818   1.364 -0.0056  0.1490  0.1842
22504W        W65557  33.554  33.536   1.064 -0.1765  0.1771  0.0841
22505W        W65558  19.615  15.281   0.220 -0.0449 -0.1439 -0.2185
22506W        W65559  15.599   4.284   0.306 -0.1625  0.2080 -0.0755
22507W        W65560  11.526  23.868   4.532  0.0292  0.0856 -0.2487
22508W        W65561   3.779  18.805   8.503  0.1398 -0.0197  0.0299
22509W        W65562  18.242   5.276   7.491 -0.2086  0.0477 -0.4240
22510W        W65563  28.200  15.748  18.429 -0.0772  0.0572  0.1924
22511W        W65564   9.851  20.038  16.085 -0.3041 -0.0953  0.2144
22512W        W65565  21.485   3.438   4.854  0.0060  0.1348  0.3197
22513W        W65566  21.593  12.051   8.431  0.0823 -0.1071  0.0159
22514W        W65567  34.020  32.548   4.679  0.2536 -0.1565 -0.0396
22515W        W65568  28.530   1.531  15.547  0.0904 -0.1054  0.1255
22516W        W65569  13.083  19.211  16.009 -0.1899 -0.0946 -0.4857
22517W        W65570  10.203   8.310  25.175  0.0673 -0.0967 -0.1947
22518W        W65571  12.941  14.660   6.141  0.0034  0.3059  0.0449
22519W        W65572  19.858  18.568   5.498 -0.4216 -0.0927 -0.1575
22520W        W65573  20.661  14.619   7.159  0.0193  0.1228  0.0779
22521W        W65574   5.048  30.663   5.463 -0.0275 -0.2597 -0.1939
22522W        W65575   5.857   6.883   0.463 -0.0892 -0.1094 -0.2875
22523W        W65576  33.309   0.603   4.677 -0.0301  0.0501 -0.0439
22524W        W65577  25.668   2.416  21.371  0.0156  0.0571 -0.1621
22525W        W65578  24.166   2.260   7.725 -0.1406 -0.1862 -0.1719
22526W        W65579  25.486  10.580   4.648 -0.3843  0.1013 -0.0414
22527W        W65580   6.660  18.358   2.264  0.1896  0.0188 -0.1552
22528W        W65581  32.406  16.389   2.368  0.2711  0.3604  0.0213
22529W        W65582   6.777  32.460   4.687  0.5256  0.1237 -0.0716
22530W        W65583  32.012   7.233  19.061  0.0799 -0.3192  0.0828
22531W        W65584  17.259  15.344  24.215  0.1188 -0.2968 -0.1980
22532W        W65585  26.457  20.781   2.553  0.1414 -0.0333  0.2484
22533W        W65586  22.804  28.385   3.597 -0.0322 -0.1330 -0.0699
22534W        W65587  19.831   5.583   4.193  0.2260 -0.1634 -0.1508
22535W        W65588  11.149  31.826   4.159  0.0238 -0.1287 -0.1869
22536W        W65589  18.854  20.977   2.002  0.3139 -0.2222 -0.2362
22537W        W65590  19.482  32.329  16.092  0.0754  0.2931 -0.2557
22538W        W65591  26.479   8.931   9.595  0.2920 -0.1224  0.0831
22539W        W65592  27.178   8.633  24.251 -0.2347  0.1674  0.0542
22540W        W65593  20.527   2.644  18.494  0.1388 -0.1777  0.2227
22541W        W65594  31.562   5.291  23.680 -0.1876  0.2490  0.1215
22542W        W65595  14.627  25.332  10.184 -0.1539  0.0701 -0.2432
22543W        W65596  21.853  34.402   7.621  0.2478 -0.1148 -0.1212
22544W        W65597  28.136  20.224   4.730  0.4233  0.1107 -0.1907
22545W        W65598   2.649  13.532   9.466  0.1261 -0.0216  0.1114
22546W        W65599  30.727  26.954  21.902 -0.0676 -0.3654 -0.0046
22547W        W65600  24.927  32.929  27.983 -0.1914 -0.0918 -0.0977
22548W        W65601  12.572  10.177   9.561 -0.0390 -0.1149 -0.2171
22549W        W65602  12.446  14.072   3.312 -0.2898 -0.3808  0.4407
22550W        W65603  18.470  23.503  27.558  0.0242  0.2397  0.1752
22551W        W65604  18.215  22.167  24.414  0.1184  0.3782 -0.2558
22552W        W65605   1.669   0.271  28.330 -0.1090  0.0019 -0.3895
22553W        W65606   9.320  12.377   3.111 -0.1103  0.1214  0.0054
22554W        W65607  33.153  23.420  24.070 -0.3491  0.1908  0.1875
22555W        W65608   5.924   3.918   5.099  0.1258  0.1451 -0.1379
22556W        W65609  24.298   2.863  10.211  0.1441  0.1873  0.0335
22557W        W65610  33.970  24.521   7.563 -0.0178 -0.0354 -0.1161
22558W        W65611   2.222  14.220   6.532 -0.2281 -0.3636 -0.1958
22559W        W65612  32.712  23.064   7.196 -0.0148  0.1506  0.3380
22560W        W65613  17.470  34.563   6.912  0.0185  0.0342 -0.0102
22561W        W65614  24.922  10.971  16.690 -0.1117  0.0240 -0.2046
22562W        W65615  15.623   1.865   2.822 -0.0189 -0.0446 -0.0318
22563W        W65616  13.862  19.718  27.957 -0.5332 -0.0302 -0.1303
22564W        W65617  33.374  12.709  16.681 -0.1497 -0.2453 -0.0237
22565W        W65618   0.559   5.524   3.491 -0.0653 -0.4952  0.0742
22566W        W65619  31.394   2.395   2.000 -0.2355 -0.1107  0.0946
22567W        W65620  17.984  19.045  27.141 -0.0350  0.0188 -0.2800
22568W        W65621  31.250   3.999   4.325 -0.0304 -0.1810  0.2626
22569W        W65622  25.503   1.796   1.732 -0.0510 -0.1881 -0.0038
22570W        W65623   1.737  18.976   7.766 -0.2397 -0.1687 -0.0079
22571W        W65624  30.517  13.000  18.528  0.0501 -0.7955 -0.4530
22572W        W65625  23.451  30.213   8.372 -0.0272  0.1717  0.1698
22573W        W65626   3.178  21.179  16.244  0.0430 -0.0423  0.2668
22574W        W65627  24.168  21.130   5.866 -0.3011  0.0323  0.0129
22575W        W65628  12.104  19.006   4.656 -0.1239  0.0777  0.0243
22576W        W65629  27.864   4.888  15.083 -0.4514 -0.0377 -0.2923
22577W        W65630  14.765   5.776   2.269  0.1822 -0.0023 -0.2980
22578W        W65631  25.630  14.543  17.852  0.3151 -0.1965  0.0264
22579W        W65632  18.245   2.033   5.158  0.0482 -0.2695  0.2422
22580W        W65633  32.051  16.742   2.972 -0.2122  0.1869 -0.2610
22581W        W65634  20.536  19.200  25.762 -0.2987 -0.2843  0.0025
22582W        W65635  19.308  21.684   0.899  0.1200 -0.0080 -0.3236
22583W        W65636  14.003  15.060  21.443  0.1837 -0.0742  0.2479
22584W        W65637  19.978  20.074   8.690 -0.0344  0.0672  0.2064
22585W        W65638  13.303  11.894   6.865 -0.0070  0.0141 -0.2136
22586W        W65639  25.331   4.165   2.861 -0.2984  0.3283 -0.2625
22587W        W65640  11.299  16.582   9.355 -0.0877 -0.0739  0.1511
22588W        W65641  31.471   0.621   5.580 -0.1818 -0.0511 -0.1358
22589W        W65642  24.444   9.960   4.708 -0.0795  0.2000 -0.0716
22590W        W65643  19.537  17.985  15.264  0.0601  0.1660 -0.4115
22591W        W65644  33.362  14.413  26.553 -0.0190 -0.1650 -0.1237
22592W        W65645  26.186  12.871   7.093 -0.0745 -0.1042  0.1268
22593W        W65646  33.101   5.230  17.409  0.2168  0.1077  0.1243
22594W        W65647  27.843   3.719   9.490  0.0044 -0.1151 -0.0667
22595W        W65648  33.452  17.481  22.118 -0.0788 -0.0111  0.0260
22596W        W65649  27.063   8.572   6.969 -0.1490  0.1714  0.0252
22597W        W65650  21.012  23.464  20.046  0.1483 -0.1125  0.0855
22598W        W65651   0.879  14.792  20.412 -0.1419  0.0392  0.0678
22599W        W65652  16.818  18.222  27.892  0.0796  0.0971 -0.1967
22600W        W65653  22.608  15.432   0.383  0.1204 -0.2166 -0.1910
22601W        W65654  15.913   1.752   1.520  0.3767 -0.2832 -0.0595
22602W        W65655  26.340  16.141   0.237  0.0269 -0.2607 -0.2035
22603W        W65656  12.156  11.039   6.621 -0.2167  0.0117 -0.0425
22604W        W65657  14.167   7.153   8.406 -0.1242 -0.2400  0.0074
22605W        W65658  27.173  22.297  28.797 -0.0048 -0.0456  0.3203
22606W        W65659   6.406  11.508   2.131  0.2837  0.3607  0.0564
22607W        W65660  24.646  14.164   9.693 -0.1101  0.2754  0.0650
22608W        W65661   5.969  11.983   5.054  0.0296 -0.1371  0.1509
22609W        W65662  11.725  17.292   9.631 -0.2225  0.1239 -0.0098
22610W        W65663  20.594   5.202   6.673 -0.1048 -0.4000 -0.2266
22611W        W65664  16.375   6.731   4.754  0.2125 -0.1130 -0.1519
22612W        W65665   1.876  14.704  20.310  0.0074 -0.0200 -0.0102
22613W        W65666  34.158  12.286  26.329  0.3668 -0.2364 -0.4044
22614W        W65667  25.193   8.744  22.810  0.1099 -0.0536  0.0494
22615W        W65668  26.859  12.080   8.291 -0.0512 -0.0363  0.0570
22616W        W65669  16.652  19.361   1.880 -0.3222 -0.2435 -0.0974
22617W        W65670  30.858  12.849  24.158 -0.0457  0.4865  0.2560
22618W        W65671   1.984   4.241  29.118 -0.0141 -0.1790  0.2492
22619W        W65672   9.141   5.336   9.672  0.1844  0.2793 -0.2219
22620W        W65673  33.898  23.475   7.846  0.1006 -0.2418  0.2111
22621W        W65674   4.375  27.640   3.318 -0.1719 -0.4505  0.0242
22622W        W65675  23.255  11.446   3.310  0.1438  0.1538 -0.0073
22623W        W65676   5.244   3.302   1.644  0.2409 -0.1380 -0.1515
22624W        W65677  24.663  22.450   2.131 -0.2912 -0.0648  0.0542
22625W        W65678  20.948  21.315  14.379  0.1851 -0.0585 -0.0700
22626W        W65679  17.996  34.240  27.500 -0.1779 -0.2460 -0.2845
22627W        W65680  21.432  20.517   5.688 -0.0250 -0.2066  0.5173
22628W        W65681  25.768   9.700  20.552 -0.1002 -0.0623 -0.2015
22629W        W65682  22.578  18.276  17.691 -0.0432 -0.1661 -0.1574
22630W        W65683   7.924  15.963  24.969 -0.1796 -0.0053  0.1176
22631W        W65684  25.280  16.846   6.253  0.3231  0.3214 -0.2021
22632W        W65685  27.180   3.157   7.081 -0.1388 -0.1150 -0.2482
22633W        W65686  24.791  18.420   8.277 -0.2550  0.0484 -0.2598
22634W        W65687  32.626  19.022   7.780  0.1657  0.2760  0.0070
22635W        W65688  23.549  11.484   5.014 -0.0968  0.0548 -0.0216
22636W        W65689  21.724   7.600   3.443 -0.0180 -0.2467 -0.1568
22637W        W65690  32.398   5.828   2.310 -0.1676  0.2598 -0.0811
22638W        W65691  18.321  10.762   9.345  0.3499  0.2541  0.1922
22639W        W65692  13.255  21.068   6.728  0.0462  0.2657 -0.0400
22640W        W65693  27.871  11.843   3.777 -0.0156  0.3432 -0.2689
22641W        W65694  20.725  32.843  19.612  0.4069 -0.1123  0.0144
22642W        W65695  25.765  13.806   2.234 -0.0100 -0.0416  0.2106
22643W        W65696  10.430   4.782   1.712  0.0633  0.1136  0.0580
22644W        W65697  26.725  15.175   4.564 -0.3093  0.0757  0.2168
22645W        W65698  20.138  23.250   5.536  0.1656  0.1196 -0.1853
22646W        W65699   9.119  10.828   8.281 -0.1926  0.1682 -0.0285
22647W        W65700  20.606  33.512  23.310 -0.2192 -0.0012  0.0036
22648W        W65701  33.066  28.026   6.186 -0.0679 -0.0233  0.1238
22649W        W65702  25.370  12.057   6.355  0.2812 -0.1638 -0.0024
22650W        W65703  26.864   1.745  18.998 -0.0447  0.1066  0.1548
22651W        W65704  19.171  13.273   1.393  0.1073  0.0188 -0.0746
22652W        W65705  17.923  16.976  17.992 -0.1810 -0.0287 -0.1823
22653W        W65706  24.082   1.066   4.971  0.0265  0.0779 -0.3105
22654W        W65707  23.948  29.917  20.716 -0.0431 -0.0243 -0.0308
22655W        W65708   5.892  16.515   0.765 -0.1345  0.1561  0.0971
22656W        W65709  14.451   1.648   1.937 -0.0823  0.2272  0.0815
22657W        W65710   7.557  20.371  22.665 -0.0307 -0.1655  0.1084
22658W        W65711  25.917  33.274  25.361 -0.0100 -0.0347 -0.1814
22659W        W65712  22.883   5.508   8.270  0.0446 -0.3128  0.0823
22660W        W65713  31.367  10.874   3.719 -0.1104 -0.2766 -0.0881
22661W        W65714   0.107  20.407  10.192 -0.0930 -0.0101 -0.0043
22662W        W65715  29.241   4.969  22.805 -0.0447  0.0712  0.0229
22663W        W65716  23.546  13.514   3.691 -0.0063 -0.0468 -0.0758
22664W        W65717  25.639  11.391   4.498 -0.0643 -0.0590 -0.2254
22665W        W65718  31.054  22.468  26.621 -0.2458 -0.2805  0.0998
22666W        W65719  13.292   1.103   8.474 -0.3460 -0.1790  0.2386
22667W        W65720  28.775  21.091   3.030  0.1006  0.2983  0.2900
22668W        W65721   2.185  32.020   4.587 -0.3060  0.0394  0.0286
22669W        W65722  14.968  16.325   1.098  0.2208 -0.1886  0.1592
22670W        W65723  27.449  22.733  24.071  0.0160 -0.3611 -0.0174
22671W        W65724  19.460   3.748  28.883  0.0284 -0.3613  0.0143
22672W        W65725  23.811  20.563   6.285 -0.1400  0.0624 -0.1862
22673W        W65726  24.768  21.023   0.568 -0.1667 -0.1095 -0.0446
22674W        W65727  32.329  13.440   0.361 -0.0687  0.0298  0.0772
22675W        W65728  20.357  18.390   1.877  0.2040  0.1211 -0.1260
22676W        W65729  30.148  19.805   9.652  0.0716 -0.1984 -0.2397
22677W        W65730  28.235   9.509  23.347  0.1630  0.0811 -0.0489
22678W        W65731  30.465   9.592  15.489 -0.0268 -0.1670 -0.2492
22679W        W65732  19.873   0.532   5.817  0.2619 -0.0237  0.1577
22680W        W65733   2.490   7.156   1.968 -0.1678  0.0350 -0.1212
22681W        W65734  13.609  16.578  26.664 -0.2148  0.0097  0.2091
22682W        W65735  13.857   1.002  27.759 -0.0505  0.0900  0.2433
22683W        W65736  21.881  15.761  22.730 -0.0593 -0.0344 -0.1637
22684W        W65737  20.180  18.812   0.091  0.1733  0.4706  0.2426
22685W        W65738  20.433   5.958   8.628  0.2379 -0.0175  0.2175
22686W        W65739  32.541   2.514  19.197  0.0263 -0.1432 -0.1286
22687W        W65740  31.834  20.123  15.304 -0.2992 -0.1205 -0.3378
22688W        W65741  28.120  12.987   7.567  0.3750 -0.1118 -0.1127
22689W        W65742   9.116  27.187   8.652  0.0855 -0.1740 -0.0747
22690W        W65743  18.893  23.782   6.544  0.0344 -0.0243  0.1024
22691W        W65744  23.686   4.933  22.374 -0.0792 -0.0171  0.3132
22692W        W65745  29.010   5.641   5.921 -0.0341 -0.0993  0.0690
22693W        W65746  22.384  28.645  21.131 -0.0855  0.1016 -0.1267
22694W        W65747   3.165  16.891   3.085 -0.1460  0.2572  0.4137
22695W        W65748  26.061  16.776  25.160 -0.1985  0.2977  0.0689
22696W        W65749   6.168  21.485   3.650  0.2547  0.1199  0.0436
22697W        W65750  19.976   2.969   8.441 -0.0100 -0.3908 -0.1913
22698W        W65751  19.651  16.200  28.770  0.1335 -0.3471  0.1862
22699W        W65752  30.792  19.113  19.868 -0.0543 -0.0437  0.0114
22700W        W65753  22.909  12.754  29.146  0.2544  0.0651 -0.3341
22701W        W65754  24.469  25.491   5.514 -0.2869 -0.1107 -0.1963
22702W        W65755  19.021   9.244  14.963  0.1226 -0.2319  0.4224
22703W        W65756  15.392  15.881   7.923 -0.1127  0.2601  0.2745
22704W        W65757  24.682  31.359  26.130 -0.1621 -0.2591  0.1075
22705W        W65758  11.327   8.260   9.276  0.1231 -0.0003 -0.2928
22706W        W65759  17.618  22.093  27.625  0.4051  0.0085  0.2524
22707W        W65760  23.463  11.625   8.110 -0.1203 -0.2547  0.1450
22708W        W65761  22.485  11.892  19.962  0.0242 -0.3592  0.0746
22709W        W65762  15.585   3.078   5.555  0.3176 -0.1265  0.2047
22710W        W65763  20.436  12.078   6.063  0.1620 -0.2631 -0.2008
22711W        W65764  32.438  34.588  15.470  0.1691 -0.1396  0.0191
22712W        W65765  14.857  29.942   2.554 -0.0357  0.1822 -0.2309
22713W        W65766  23.879  23.798  25.574 -0.0529  0.2146 -0.0594
22714W        W65767   0.099  23.896  10.009 -0.0960 -0.1016 -0.1230
22715W        W65768   3.687   5.399  18.251 -0.1121  0.1744 -0.0353
22716W        W65769  23.346   8.934   2.435 -0.0429 -0.0161  0.2439
22717W        W65770  22.401  24.318   3.857  0.0342  0.1065  0.1226
22718W        W65771  32.074  10.375   9.029 -0.1023 -0.0019  0.2943
22719W        W65772  21.387  28.294   8.906  0.1578  0.2094  0.0553
22720W        W65773   6.383  17.263  28.902 -0.2835  0.0300  0.2092
22721W        W65774   3.669   9.034   2.743 -0.0639  0.0984 -0.0010
22722W        W65775  17.302  16.881   8.326  0.1105 -0.1688 -0.0061
22723W        W65776   4.192  12.417  25.452  0.1550 -0.0950 -0.0484
22724W        W65777  23.136  31.313  28.943 -0.0846 -0.1569 -0.0784
22725W        W65778  16.320   8.041  28.830 -0.1484  0.3667  0.0744
22726W        W65779  22.581  14.986   0.114 -0.1935 -0.0089  0.1601
22727W        W65780  24.574  11.287   7.127  0.3319  0.0061  0.3278
22728W        W65781  27.918  32.426   4.334  0.3882  0.1885  0.0669
22729W        W65782  25.903   6.705   7.459  0.1723  0.0701  0.1872
22730W        W65783  31.675  17.710   2.904 -0.0106 -0.1874 -0.3666
22731W        W65784  25.221  10.254  26.326  0.0334  0.1056  0.3427
22732W        W65785  26.285   7.422   1.749  0.2072 -0.1650 -0.0171
22733W        W65786   3.747  19.689   9.926 -0.4013  0.0719 -0.3907
22734W        W65787  28.893  17.576  20.999  0.1250 -0.1017 -0.2108
22735W        W65788  27.173  17.396   1.563 -0.1084 -0.1126 -0.3132
22736W        W65789   9.927  26.017   8.603  0.0195  0.1008  0.0263
22737W        W65790  10.523   6.363   2.432  0.1116 -0.2446 -0.0755
22738W        W65791  23.649   6.942  17.190  0.0770  0.2121  0.0786
22739W        W65792  17.418  21.535  23.629  0.0564  0.1775 -0.1086
22740W        W65793  13.133   8.479  26.969 -0.1798 -0.0151 -0.3155
22741W        W65794  21.421  20.390  20.840  0.5199  0.0585  0.1703
22742W        W65795  20.464  18.060  28.527  0.3787  0.0073  0.3667
22743W        W65796  24.273  24.303  20.872 -0.0804  0.0636  0.3564
22744W        W65797  25.996  23.585  23.741  0.0638  0.0266  0.2506
22745W        W65798  28.653   5.261   5.859 -0.0716 -0.2166  0.0907
22746W        W65799  17.158  15.824   3.652 -0.1816  0.2678  0.1122
22747W        W65800  30.184  22.255   4.651 -0.2626  0.1563  0.0649
22748W        W65801  17.162  12.513  25.334  0.1340  0.0682 -0.0528
22749W        W65802  18.898   9.667  27.846 -0.0303  0.0627 -0.1293
22750W        W65803  19.331  33.141   7.157 -0.1895 -0.0410 -0.0480
22751W        W65804  26.086  15.765   0.240 -0.1655  0.0586  0.2726
22752W        W65805  13.767  11.589  23.756  0.0792  0.0106 -0.0355
22753W        W65806  26.539  30.273  28.386 -0.2022 -0.1306 -0.0901
22754W        W65807  20.965  14.090  20.700  0.1354  0.0419  0.0879
22755W        W65808  13.671   1.578   2.783  0.1634 -0.0202 -0.2337
22756W        W65809  21.028  18.747   7.745  0.1879 -0.3877 -0.1424
22757W        W65810  34.425  23.434  28.265  0.2067 -0.0946  0.2024
22758W        W65811  19.477  25.899  29.012 -0.0656 -0.0776 -0.2455
22759W        W65812  27.735  14.053  17.903 -0.2329 -0.1286 -0.1191
22760W        W65813  22.061  20.464  18.155 -0.1511  0.0162  0.1559
22761W        W65814  29.757   2.964   5.670  0.0458 -0.0722 -0.3072
22762W        W65815  20.093  27.516   5.042  0.0369 -0.0744 -0.3905
22763W        W65816  29.526  14.285   0.614 -0.0241  0.0822  0.1097
22764W        W65817  20.044  28.343   4.352 -0.0177  0.0599  0.1934
22765W        W65818  19.665  26.028   5.927 -0.0484  0.0533 -0.0119
22766W        W65819  24.972  15.421   9.158 -0.1722  0.4419  0.1651
22767W        W65820  11.405  19.183  24.562  0.1457  0.1323  0.2598
22768W        W65821  33.068  33.151  23.318 -0.1277 -0.0259  0.4886
22769W        W65822  17.223   6.589   1.586  0.1493  0.2111 -0.0745
22770W        W65823  22.526  32.835   9.150  0.2512  0.1975 -0.2831
22771W        W65824  23.611  18.866  22.894  0.1175 -0.5120  0.0156
22772W        W65825  33.067  16.533  21.878 -0.1293 -0.0621  0.1976
22773W        W65826  28.335  14.266   2.208  0.1593  0.1979 -0.0625
22774W        W65827  22.882  20.420  13.696 -0.2489  0.1356 -0.3343
22775W        W65828  23.300  24.988   0.953 -0.1213  0.0885 -0.1667
22776W        W65829  30.958  12.729   1.214  0.0328  0.0877  0.0430
22777W        W65830  24.357   9.185  10.402 -0.0435  0.1499 -0.2892
22778W        W65831  16.455   6.505  27.696  0.0090  0.0383  0.0204
22779W        W65832  24.738  15.611  23.316 -0.3740 -0.1327  0.1094
22780W        W65833  13.716  27.412   8.745  0.0494  0.2381  0.4848
22781W        W65834  20.797  19.545   4.788 -0.0753  0.1473  0.2332
22782W        W65835  33.749   8.697  27.547 -0.2790 -0.0022 -0.0371
22783W        W65836  29.947  30.268   3.039  0.2197  0.0803 -0.1544
22784W        W65837  28.268  11.979   7.936 -0.0509  0.1598 -0.0513
22785W        W65838  18.689  12.177   9.302 -0.0573 -0.2197  0.0189
22786W        W65839  27.503  10.951  20.575  0.3803  0.1514  0.1331
22787W        W65840  29.984  12.293   6.627  0.0705 -0.0784  0.1549
22788W        W65841   3.503  10.195   8.529  0.1259 -0.0124  0.1435
22789W        W65842  19.293  11.629   5.029 -0.0449 -0.0058  0.2555
22790W        W65843  20.472   4.281  29.046  0.1802 -0.2045  0.0461
22791W        W65844  23.106  23.917   0.739  0.2643 -0.1134 -0.4870
22792W        W65845  27.255  10.885  10.144 -0.0324  0.1369  0.0986
22793W        W65846  16.300   4.218   5.790  0.3243 -0.2055 -0.1388
22794W        W65847  18.383  12.922   6.707 -0.0930  0.0594  0.1573
22795W        W65848  22.666  12.912  10.430 -0.0138  0.2561  0.0212
22796W        W65849  25.236  30.352   3.696 -0.0416  0.0271 -0.0866
22797W        W65850  23.015   7.486  22.505 -0.1365 -0.3200 -0.2168
22798W        W65851  21.309   0.971   2.504 -0.0927  0.1295  0.0484
22799W        W65852  32.824  22.150   7.530 -0.1151  0.2536 -0.0011
22800W        W65853   1.835   6.867   9.664  0.1266  0.1335 -0.1487
22801W        W65854  22.689  22.827  26.214 -0.3186  0.1671 -0.3248
22802W        W65855  33.558   2.648  10.455  0.1003  0.2099 -0.1871
22803W        W65856   5.498  17.829   0.505  0.2184  0.5752  0.0552
22804W        W65857  25.336   8.811   6.278  0.3000 -0.0541  0.0152
22805W        W65858  11.179  18.072   2.177 -0.5227 -0.0682 -0.1124
22806W        W65859  18.787   5.556  24.657  0.1060 -0.1094 -0.0423
22807W        W65860  28.872   7.464  26.958 -0.0039  0.0497 -0.1118
22808W        W65861  29.288   5.760   7.186  0.1391 -0.1839  0.3044
22809W        W65862  26.372   7.870   8.496  0.1011  0.1224  0.0477
22810W        W65863  16.507  12.663  25.960  0.0755 -0.1242 -0.4351
22811W        W65864  21.847  11.997   9.849 -0.0919  0.0022 -0.2083
22812W        W65865   5.147  16.840   3.385 -0.0239  0.1578  0.0992
22813W        W65866  17.708  14.120   4.900  0.1761 -0.0803 -0.0546
22814W        W65867  23.000  30.594   7.491 -0.1896  0.0571 -0.0058
22815W        W65868  14.348  10.064  28.546 -0.0761 -0.2529 -0.1866
22816W        W65869   1.695  32.771   7.349 -0.0820 -0.1226 -0.0303
22817W        W65870  28.429   1.826   8.427  0.0076 -0.0990  0.0512
22818W        W65871   4.862  13.361  20.088 -0.3247  0.1259 -0.3492
22819W        W65872  25.475  11.865  10.459  0.0653 -0.1757  0.0253
22820W        W65873  23.088  14.259   6.294  0.1528  0.2561 -0.2458
22821W        W65874   0.418   0.531   6.201  0.0142 -0.0421 -0.0954
22822W        W65875  17.453  31.157   7.024 -0.0116 -0.3156  0.0057
22823W        W65876  31.068   7.894  21.073  0.0822  0.0043 -0.1306
22824W        W65877  32.740   7.141  27.265  0.2680 -0.1146  0.0731
22825W        W65878  23.514   2.869   5.896  0.1099  0.0048 -0.1140
22826W        W65879  32.522  11.737  27.684 -0.3165  0.0209  0.0136
22827W        W65880  18.326  30.609  10.018  0.0093 -0.2189 -0.0366
22828W        W65881  34.095  16.250   2.176 -0.0888  0.0831  0.1181
22829W        W65882  29.489  18.064  20.011 -0.1780  0.0825  0.2436
22830W        W65883   9.640  29.261  28.263  0.2588  0.0669 -0.0202
22831W        W65884   0.964  20.052   5.840 -0.1680 -0.1240 -0.0290
22832W        W65885  17.609  20.997   9.281  0.1140 -0.0478  0.4410
22833W        W65886  19.891   0.962  10.777  0.0193 -0.1434  0.1075
22834W        W65887  32.015  32.234   7.018  0.0821  0.1109 -0.0875
22835W        W65888  22.464   5.540   1.572 -0.1951  0.1216 -0.0710
22836W        W65889   8.638  18.264  23.720 -0.1683  0.1464  0.2947
22837W        W65890  15.559   1.124   3.209  0.1268  0.0735  0.1148
22838W        W65891  34.599  27.860   2.248 -0.2426  0.1296 -0.0617
22839W        W65892  16.559   0.389   4.340 -0.2206 -0.1973 -0.1491
22840W        W65893  16.954   6.219  23.344 -0.1037  0.0527 -0.3346
22841W        W65894  25.839   6.000   8.345  0.0359  0.0129  0.1371
22842W        W65895  16.317  10.416  24.163 -0.0882  0.3481 -0.0960
22843W        W65896  31.267  19.665   5.700  0.2719 -0.1474  0.0231
22844W        W65897  27.342   5.014   8.191 -0.0935  0.1607 -0.1728
22845W        W65898  26.183   6.832  21.333 -0.2760 -0.2640  0.1295
22846W        W65899  15.738  18.098   5.419  0.2234 -0.1617 -0.4508
22847W        W65900  25.266  33.683   9.214  0.0006  0.0902 -0.2962
22848W        W65901  27.092  15.420  28.295 -0.1158  0.0544 -0.2041
22849W        W65902  25.653  32.915   1.331 -0.0722  0.0928 -0.1249
22850W        W65903  33.406   5.826   6.135 -0.1557  0.1878  0.0817
22851W        W65904  23.678  31.265   4.867  0.0291 -0.1900 -0.0660
22852W        W65905  17.781  11.869   9.745 -0.1161  0.3793  0.1296
22853W        W65906  20.948  18.651  21.360  0.0010 -0.0418 -0.2203
22854W        W65907   8.461  13.299   1.278  0.4163  0.1485 -0.1749
22855W        W65908  12.915   5.481  28.576  0.0769 -0.0285 -0.0097
22856W        W65909  33.729  26.584  26.872 -0.0751 -0.0771  0.1100
22857W        W65910  14.677  21.556   2.346 -0.1991  0.0574  0.2532
22858W        W65911  20.363  11.287   7.202 -0.2687 -0.0707  0.0906
22859W        W65912  32.468  34.552   5.101  0.4536  0.0844  0.1568
22860W        W65913  26.604   7.282   0.219  0.0963  0.1048 -0.0116
22861W        W65914  16.218  20.475  23.916  0.2178  0.0767  0.1786
22862W        W65915  21.836  18.328  25.223 -0.0442  0.2682  0.3943
22863W        W65916  34.648  22.348   4.743 -0.0430 -0.3944 -0.1750
22864W        W65917  28.114  11.749  24.694  0.0318 -0.1254 -0.3308
22865W        W65918  19.114   6.861   7.262  0.1386  0.1880  0.1312
22866W        W65919  20.660  21.208   0.270 -0.3398 -0.0913  0.3128
22867W        W65920   9.108   2.007  17.279 -0.1835  0.3123 -0.1810
22868W        W65921   8.409  23.662  28.102 -0.1098 -0.1185 -0.1182
22869W        W65922  17.502  12.045  28.127  0.2008 -0.0205 -0.3717
22870W        W65923  22.334  15.027  24.142  0.1446  0.1694 -0.1040
22871W        W65924  21.934  30.620   7.506  0.3208  0.3117 -0.0060
22872W        W65925  21.344  25.467  10.364 -0.2725 -0.0913 -0.0741
22873W        W65926  25.940  27.298   8.957  0.1762 -0.1216 -0.1431
22874W        W65927  30.348   8.513  19.500 -0.3543 -0.0479  0.3806
22875W        W65928  33.180  34.173   7.579  0.1578 -0.0343 -0.0436
22876W        W65929  26.164  15.186  16.058 -0.0020 -0.0863  0.0582
22877W        W65930  30.132   7.594  28.606 -0.1560 -0.0141  0.2483
22878W        W65931   4.921   4.737  25.579  0.0758 -0.1890 -0.1282
22879W        W65932   4.078   7.822  17.857 -0.1972 -0.1715  0.2745
22880W        W65933  26.074   8.676   2.532  0.0188  0.1522 -0.3598
22881W        W65934  10.510  10.238   3.878  0.3912  0.2489  0.2719
22882W        W65935  24.059   6.012   9.664 -0.4009 -0.1107  0.1710
22883W        W65936   2.700  10.958   3.992  0.0537  0.0196 -0.0816
22884W        W65937  21.749   3.604   1.481  0.1845  0.0040  0.0559
22885W        W65938  26.983  12.274   3.597  0.3258  0.1253 -0.1089
22886W        W65939  22.008  20.303   6.505 -0.3398 -0.0308 -0.0039
22887W        W65940  13.782  22.692   8.834  0.1040  0.2616 -0.0158
22888W        W65941  27.913   9.358  10.486 -0.0043 -0.1154  0.0440
22889W        W65942   0.695   7.837   6.718 -0.2153  0.0855 -0.1794
22890W        W65943  28.641  29.608   2.837  0.0240  0.2958  0.1495
22891W        W65944  19.409  17.111   7.548 -0.0797  0.2512  0.0886
22892W        W65945   2.604  33.397  26.672  0.0694 -0.1577 -0.0648
22893W        W65946   9.264  22.314   7.106  0.2930 -0.0555  0.1341
22894W        W65947  25.902  10.733   1.553  0.1361  0.0381 -0.5478
22895W        W65948   9.429  22.741  26.805  0.0910 -0.0405 -0.1045
22896W        W65949  18.481   7.794  25.695 -0.2885  0.4630 -0.2886
22897W        W65950  28.479  17.767  20.234  0.0993 -0.3160 -0.1000
22898W        W65951  13.732  15.915   8.921  0.2681 -0.2947  0.0061
22899W        W65952  16.482   9.456   0.724  0.1663  0.2339 -0.2617
22900W        W65953   1.093   7.343  27.597 -0.1139 -0.0445  0.0647
22901W        W65954  24.164  32.892  22.807 -0.3345 -0.1432  0.4525
22902W        W65955  14.024  28.283   4.182 -0.0509 -0.2825  0.0935
22903W        W65956  25.628  12.087   5.069 -0.0329 -0.5303  0.0051
22904W        W65957  12.970  34.477  27.444  0.0111 -0.2189  0.0837
22905W        W65958  18.317  10.246   8.417  0.0348 -0.0453  0.0636
22906W        W65959  31.257  15.859   6.925  0.0325 -0.1184  0.0065
22907W        W65960  27.679  15.154   8.269  0.0804 -0.1693 -0.3051
22908W        W65961  33.106  17.951   3.895 -0.0378 -0.0708  0.0585
22909W        W65962  13.716  10.172  17.908 -0.1290 -0.0780  0.0325
22910W        W65963  33.569  33.078  23.292 -0.2084 -0.2095  0.2408
22911W        W65964   1.239  15.857   4.046 -0.3578 -0.1159  0.0719
22912W        W65965  13.573   9.450   3.606  0.0130  0.3926 -0.2325
22913W        W65966  15.636  28.176   8.680  0.1299  0.2209  0.1208
22914W        W65967  28.250   1.460   8.867  0.1195 -0.0739 -0.0212
22915W        W65968  28.031  18.350  26.785 -0.2069  0.1136  0.1368
22916W        W65969  27.671   5.914  10.139  0.1379  0.0406 -0.0850
22917W        W65970  13.991  20.016   8.202 -0.1447 -0.2229  0.1911
22918W        W65971  17.327   6.977   4.019 -0.3119 -0.0858 -0.0275
22919W        W65972  17.253  20.890  28.630  0.1332 -0.0583  0.1169
22920W        W65973   8.307   9.113  24.938 -0.0055 -0.0977  0.1746
22921W        W65974   8.370  11.038  27.296  0.1820  0.1310  0.0905
22922W        W65975  15.615   2.626  27.292 -0.0073 -0.1669  0.1852
22923W        W65976  29.033  12.567  27.306  0.4177  0.0227  0.1784
22924W        W65977  27.024  14.375   7.366 -0.1920 -0.1100  0.0685
22925W        W65978  21.009   0.605   3.907  0.0936  0.0282 -0.0369
22926W        W65979  25.409  14.961   0.818  0.0679 -0.0668  0.0266
22927W        W65980  26.078  26.736   9.193 -0.0236  0.0434  0.2416
22928W        W65981  19.101  13.814   2.728  0.1261 -0.0655 -0.1434
22929W        W65982  24.506  29.505   5.212  0.0295  0.2941  0.0739
22930W        W65983  26.976  10.797  25.438  0.2187  0.2967 -0.1310
22931W        W65984  20.186   3.984  24.652 -0.0632  0.2211  0.1279
22932W        W65985  21.481  34.143   3.654 -0.2056 -0.2409  0.3998
22933W        W65986  12.120  18.131   5.521  0.0368  0.3172 -0.0082
22934W        W65987  30.995  29.286  17.202 -0.0059 -0.0607 -0.0047
22935W        W65988  19.586   0.521   5.002  0.0881 -0.2483 -0.0207
22936W        W65989  25.955   9.431  15.955 -0.0899  0.0554 -0.3361
22937W        W65990  30.351  19.207   8.532  0.0580  0.1701  0.1035
22938W        W65991  21.757  21.258   4.195  0.3313 -0.0470  0.1498
22939W        W65992  18.010  13.355  22.962  0.2014 -0.2968  0.0052
22940W        W65993  29.725  11.326  27.699  0.2779  0.1639 -0.1534
22941W        W65994   0.298  23.934   3.741 -0.1307  0.1166  0.0955
22942W        W65995  23.525  17.829   3.890  0.1764 -0.0249 -0.1502
22943W        W65996  23.209  20.604   4.957  0.0114 -0.2412  0.1167
22944W        W65997  19.307  24.154   7.428  0.1251 -0.0820 -0.1154
22945W        W65998  11.786  11.541  10.913 -0.1921  0.1376  0.0962
22946W        W65999  23.759  23.213  25.012 -0.0637  0.4054 -0.2781
22947W        W66000  22.562  17.536   7.995  0.1938 -0.0135  0.0617
22948W        W66001   4.862  20.843  25.484 -0.2381  0.0017 -0.1442
22949W        W66002   8.782  18.509  14.436  0.5786  0.2194  0.0501
22950W        W66003  31.362   9.547  18.103  0.0161 -0.0175  0.0704
22951W        W66004   2.651   4.302   1.273 -0.0300 -0.1309 -0.0172
22952W        W66005  19.712   5.464   8.037 -0.1838  0.1776  0.0152
22953W        W66006  27.294   9.005   4.966 -0.2699  0.1573  0.2009
22954W        W66007  27.262  34.125   1.627 -0.2524  0.0327 -0.0717
22955W        W66008  14.543   6.172   9.042 -0.2295 -0.4073  0.0273
22956W        W66009  26.768  28.107   5.443 -0.2436 -0.2674  0.2851
22957W        W66010  29.201  13.315  18.508 -0.0575  0.0413  0.0701
22958W        W66011  24.170  17.024  24.332  0.1861 -0.0425 -0.2410
22959W        W66012  22.162  16.903  23.729  0.0358  0.1865 -0.0901
22960W        W66013  20.761  20.499   1.474 -0.1107 -0.4572  0.0709
22961W        W66014  21.223  21.772   0.542 -0.3602  0.0611 -0.2240
22962W        W66015  17.661  29.387   7.866  0.2310 -0.1031  0.0968
22963W        W66016  18.529   3.767  22.327  0.1976  0.2131 -0.3439
22964W        W66017  23.504  18.191   5.798 -0.0087 -0.2408  0.2172
22965W        W66018  12.453  14.531   5.080 -0.3834 -0.1566 -0.1412
22966W        W66019  19.884  12.275   1.180  0.0931 -0.2136 -0.0854
22967W        W66020  23.263  26.492  17.574  0.1519 -0.0309  0.1659
22968W        W66021   5.615   0.225   9.125  0.1190  0.2426  0.2702
22969W        W66022  16.339  25.149   6.544  0.1254  0.2041  0.0534
22970W        W66023  26.078  28.908  18.738 -0.2719 -0.1126  0.1315
22971W        W66024  27.601   5.088   9.678  0.2654 -0.1575  0.4493
22972W        W66025  29.924   1.398   6.685 -0.1596 -0.2014  0.1489
22973W        W66026  28.612   0.611  27.275  0.2962  0.2784 -0.3814
22974W        W66027  14.839  19.802   8.256  0.1126  0.0508 -0.1033
22975W        W66028  21.170  14.773   6.413  0.1771  0.2900 -0.0407
22976W        W66029  13.750  16.161   3.307  0.1939 -0.3659 -0.1205
22977W        W66030  26.430   3.608  18.736  0.2208  0.2339 -0.0212
22978W        W66031   9.051  18.254   1.182 -0.0740  0.1562  0.1688
22979W        W66032  26.963   6.465  19.277  0.1508  0.0105 -0.1652
22980W        W66033   6.358  11.268   7.596  0.1086  0.1707  0.0564
22981W        W66034   1.872  19.790   1.731 -0.0152 -0.5235 -0.0819
22982W        W66035  17.192  10.406  19.830 -0.2675 -0.1807  0.3883
22983W        W66036  27.784  17.579  10.861 -0.1236  0.3367  0.0457
22984W        W66037  25.920  15.375  17.555  0.0852 -0.1388 -0.1005
22985W        W66038  30.999  17.453  18.654 -0.1341  0.1373 -0.0945
22986W        W66039  26.482   0.959   3.584 -0.2095 -0.2235 -0.1997
22987W        W66040   6.610  21.390   3.452  0.0884 -0.0115 -0.2030
22988W        W66041   5.066  15.522   3.049  0.0967  0.0050  0.1876
22989W        W66042  16.585  15.153   7.055  0.1734  0.0030 -0.0843
22990W        W66043  12.021  13.770   3.431  0.0498 -0.1084 -0.0041
22991W        W66044  19.255   2.624  26.271  0.0703 -0.0742 -0.0032
22992W        W66045  19.833   7.690   2.924  0.1168  0.1477  0.0416
22993W        W66046  10.965  15.475   4.709 -0.0459 -0.3208 -0.1395
22994W        W66047  23.761  31.593   2.656 -0.1371 -0.1346  0.0625
22995W        W66048  14.023  24.698   0.865  0.0987  0.0090 -0.2708
22996W        W66049  33.483  23.412   3.162 -0.0149  0.0948 -0.2012
22997W        W66050  30.336  20.509   5.073  0.2979 -0.1573  0.3250
22998W        W66051  23.091  31.174   6.442 -0.0150  0.0685 -0.0785
22999W        W66052  24.493   8.885   4.725 -0.0265  0.2644  0.2294
23000W        W66053  28.417   8.072  10.116 -0.0610  0.2750  0.1385
23001W        W66054  26.421  12.955   2.943  0.1350  0.2625 -0.4061
23002W        W66055   8.548   3.246  23.185  0.2972 -0.1271  0.2072
23003W        W66056  13.475  18.132   6.074 -0.1868  0.0794  0.1044
23004W        W66057  25.158  33.160   4.422 -0.0659 -0.1769  0.2350
23005W        W66058  18.489  30.854   5.675 -0.1720 -0.0098  0.0189
23006W        W66059  16.582   5.638   0.406  0.0833  0.2584  0.1867
23007W        W66060  18.161  31.403  29.081 -0.0555  0.0793 -0.3008
23008W        W66061   1.942   8.892   2.695 -0.0482 -0.1750 -0.0797
23009W        W66062  29.166   9.511   8.867 -0.3062 -0.0423  0.0986
23010W        W66063  14.720  11.471   0.952 -0.1808  0.1323  0.1724
23011W        W66064  28.252  11.990  10.067  0.3974  0.0459 -0.0877
23012W        W66065  27.977  32.073   3.899 -0.3828  0.2524 -0.1860
23013W        W66066  11.350   7.918  29.189  0.0939 -0.0977 -0.1288
23014W        W66067  32.957   8.074   6.185 -0.0521 -0.1813  0.3834
23015W        W66068  28.701  19.887   0.005 -0.0408  0.1678  0.0759
23016W        W66069  11.897   9.341   5.689 -0.1803  0.3177 -0.0277
23017W        W66070   9.294  19.295   5.397  0.2892  0.1675  0.1623
23018W        W66071  10.703  30.744  27.162  0.0375  0.2250 -0.1757
23019W        W66072  29.717  19.392   4.245 -0.2139  0.2966 -0.2349
23020W        W66073   6.550  21.310   5.702  0.1714  0.0557  0.2079
23021W        W66074  20.870  17.878  26.988 -0.0228 -0.1388  0.1055
23022W        W66075   3.729  27.865  25.759 -0.1413 -0.2241 -0.1465
23023W        W66076  17.493  15.109  28.462  0.1362 -0.1251 -0.2934
23024W        W66077  14.341   8.502  10.320  0.1178 -0.0337  0.1696
23025W        W66078  25.131  24.136   0.315 -0.1682 -0.0748 -0.1670
23026W        W66079  20.891  25.458   9.992 -0.1610  0.3269 -0.0983
23027W        W66080  28.558  15.287   6.158 -0.1183  0.3655  0.4819
23028W        W66081  24.982   6.864   9.193 -0.1208 -0.2588 -0.0269
23029W        W66082   4.390  26.470   0.791 -0.0451 -0.1436 -0.0279
23030W        W66083  18.251  13.828   7.490 -0.1540 -0.2181  0.1952
23031W        W66084  12.010  18.034  23.581  0.0005 -0.2749  0.2188
23032W        W66085  17.916  19.905  28.216  0.2690  0.0932 -0.3014
23033W        W66086  22.952   0.601   8.705 -0.0644  0.0154 -0.1550
23034W        W66087  23.070   9.356   6.569  0.2430 -0.0111 -0.1368
23035W        W66088  21.657   3.822   7.501 -0.1035 -0.1240 -0.0809
23036W        W66089  13.473  21.595   3.970 -0.2678  0.1195  0.2534
23037W        W66090  26.573   6.650  20.999  0.0073 -0.0294 -0.1888
23038W        W66091  19.569  17.741   6.071 -0.0838 -0.4038  0.1823
23039W        W66092  19.539  31.392   0.735 -0.1367  0.3851 -0.2105
23040W        W66093  16.681  14.726   6.675 -0.1700  0.2295 -0.0906
23041W        W66094  25.900   4.768  19.434  0.0314 -0.1493  0.0893
23042W        W66095   7.876   7.517  29.129  0.2432 -0.0801  0.1104
23043W        W66096  19.859   6.124  10.096 -0.2994 -0.0266  0.0030
23044W        W66097  16.265  31.596   7.542  0.1021  0.2226  0.0518
23045W        W66098  32.307  21.763   8.624 -0.3725  0.0936  0.0487
23046W        W66099  17.866   7.157   7.644 -0.0960  0.2134  0.1397
23047W        W66100  20.959  15.657  21.237 -0.1791  0.3146  0.0242
23048W        W66101  19.704  18.538  22.023 -0.2377 -0.3489  0.1525
23049W        W66102  29.722  12.010   1.643  0.0804 -0.3543  0.2534
23050W        W66103  32.379  15.945  20.733  0.1919 -0.2080  0.1496
23051W        W66104  11.312  12.576   7.900  0.0920  0.1072  0.0163
23052W        W66105  24.818  28.958   3.924 -0.2301  0.0280  0.1087
23053W        W66106   5.331   1.715  21.717  0.0806  0.2533  0.2306
23054W        W66107  28.917  28.254  28.344 -0.1547  0.0886 -0.4098
23055W        W66108  25.723  22.473   1.734 -0.3422  0.2381  0.0714
23056W        W66109  17.440  28.276  28.119 -0.0554 -0.1616 -0.0125
23057W        W66110  28.313  12.187   5.028 -0.1034  0.0608  0.1159
23058W        W66111   1.969   8.813   7.733 -0.2126  0.0426  0.1511
23059W        W66112  18.929   6.077  23.126  0.1166 -0.2150 -0.0814
23060W        W66113  28.025  22.134  23.734 -0.5016 -0.1084  0.0583
23061W        W66114   6.389   6.092   9.190 -0.0050 -0.2211  0.0683
23062W        W66115  21.734  28.965  23.789  0.1101 -0.3191  0.0908
23063W        W66116  10.754   3.441   9.364 -0.1750 -0.3676 -0.0641
23064W        W66117   3.757  10.503  27.325  0.3855 -0.0318 -0.2231
23065W        W66118  34.245   7.373   8.920 -0.0042  0.2147 -0.1238
23066W        W66119  28.457  11.694   8.939  0.0069  0.0038 -0.0626
23067W        W66120  25.173  21.189   9.527  0.2430 -0.1310 -0.1963
23068W        W66121  34.361  11.113   5.275 -0.1905 -0.1226 -0.0963
23069W        W66122  16.995  13.379   7.581 -0.2144 -0.0319  0.2806
23070W        W66123  17.550  16.586   1.281 -0.1796 -0.0761  0.0170
23071W        W66124  30.057  33.877  27.562 -0.0295 -0.1734  0.1323
23072W        W66125  32.344  13.011  27.601  0.0202 -0.1741 -0.1428
23073W        W66126  13.577   5.423   8.112  0.0731  0.2444  0.2793
23074W        W66127  27.584  26.523   8.912 -0.0135  0.1247  0.1257
23075W        W66128  22.836  28.854   0.775 -0.0868  0.1426  0.1536
23076W        W66129  19.890   6.695   5.005 -0.0852  0.0434 -0.3788
23077W        W66130  23.550  24.969   8.834 -0.0027  0.0421  0.0588
23078W        W66131   4.685  21.599   1.413 -0.0141  0.2973 -0.1771
23079W        W66132  29.830  18.085  26.944 -0.0735  0.5054  0.0884
23080W        W66133  15.824  20.699  22.124 -0.1923  0.1096  0.2630
23081W        W66134  11.662  21.771   2.478 -0.0581  0.0280  0.1224
23082W        W66135  24.798   7.494  24.655 -0.0799  0.2923  0.2133
23083W        W66136  20.273  28.429   9.581 -0.2011  0.1698  0.0622
23084W        W66137  17.894   1.048  24.059 -0.1791  0.0638  0.0755
23085W        W66138  11.084   7.548   3.440 -0.0672  0.1546 -0.0873
23086W        W66139  21.694   6.226   1.734  0.0036 -0.2291 -0.1270
23087W        W66140  32.524   2.650   5.616  0.0254  0.1033 -0.1663
23088W        W66141  25.658  17.058   6.038 -0.0356 -0.1911 -0.0688
23089W        W66142   2.521  10.893   3.194  0.0846 -0.2577 -0.2903
23090W        W66143  14.655  17.577   6.961 -0.1133 -0.1030 -0.1855
23091W        W66144  22.246  20.763   0.416 -0.1785  0.1191 -0.0121
23092W        W66145   2.077  23.271   7.685 -0.3678  0.3482  0.0336
23093W        W66146   7.527  20.275  27.369  0.0779 -0.0131 -0.1238
23094W        W66147  17.217  11.549  10.468 -0.0928 -0.5026  0.0079
23095W        W66148  30.173   3.328   8.448 -0.1080 -0.0601  0.3535
23096W        W66149  23.551   0.996   8.019  0.2452 -0.1840  0.5260
23097W        W66150  16.635   5.008   5.100  0.2068  0.2224 -0.1648
23098W        W66151  24.002  32.299   1.454 -0.0031 -0.3056 -0.1783
23099W        W66152  24.675  25.548  26.932  0.2870 -0.0379  0.2268
23100W        W66153  26.420   9.850   9.348 -0.1893 -0.0674  0.1054
23101W        W66154  33.073  17.374  18.132  0.1978 -0.1028 -0.0953
23102W        W66155  33.666   7.472   1.810  0.2098 -0.0458 -0.0760
23103W        W66156  20.825   8.912   9.395  0.0376 -0.1347 -0.1754
23104W        W66157  25.788  12.144  23.154 -0.1687 -0.0874  0.0310
23105W        W66158   2.952  11.570  21.810 -0.1302  0.1061  0.2618
23106W        W66159  17.430  13.935  26.467  0.0534 -0.0712 -0.1120
23107W        W66160  32.864  11.645   5.649  0.1205 -0.2277  0.1759
23108W        W66161  14.771   9.329  10.511 -0.2976  0.1188  0.1852
23109W        W66162  26.463  19.376   9.163 -0.2262  0.1455 -0.1454
23110W        W66163  20.231  15.466  26.451  0.1721  0.1033 -0.2633
23111W        W66164   1.867  14.440   1.451  0.2370 -0.1890 -0.1009
23112W        W66165  32.044   9.350  27.023 -0.1127 -0.2284  0.1478
23113W        W66166  21.023   3.514  24.147  0.1035 -0.3218  0.0112
23114W        W66167  20.571  17.352   2.512  0.0161  0.0022  0.2456
23115W        W66168  21.547  10.075   5.621 -0.0554 -0.0658  0.2997
23116W        W66169  17.365  15.706   1.501  0.0667  0.1121  0.0449
23117W        W66170  29.651  20.842  21.809  0.0257 -0.0088 -0.1483
23118W        W66171  18.267  16.526   7.322  0.0401 -0.0181  0.1120
23119W        W66172  21.618  18.396   8.399 -0.2514 -0.1325 -0.0224
23120W        W66173  10.035  29.392   3.271 -0.0227 -0.0123  0.1882
23121W        W66174  20.946  18.518   3.009  0.1941 -0.2597 -0.1685
23122W        W66175  11.427  12.720   2.768  0.2240 -0.0713 -0.0481
23123W        W66176   2.186  11.369   7.024  0.1619  0.0839 -0.0091
23124W        W66177  32.714   5.131   6.729  0.1777  0.1911 -0.3009
23125W        W66178  26.041  21.268   8.595 -0.1760  0.0572 -0.2004
23126W        W66179  29.130   9.486   2.549  0.0203 -0.0745  0.4138
23127W        W66180  24.557  27.470   5.041 -0.1806  0.0382 -0.2165
23128W        W66181  23.170  13.306  21.766  0.0485 -0.1254 -0.2115
23129W        W66182  16.899  16.919   6.876 -0.1365 -0.0588  0.0799
23130W        W66183  13.799  24.662  24.769  0.2225  0.0365 -0.0344
23131W        W66184  34.282   3.031  21.881  0.0020  0.2419  0.0344
23132W        W66185  18.741  34.001   9.403  0.2667 -0.1849 -0.0498
23133W        W66186  32.656  18.142   7.606  0.0804 -0.1612  0.0415
23134W        W66187  24.724  20.045   9.494  0.0978 -0.0702  0.1111
23135W        W66188  19.239   9.795   9.330  0.0364  0.2574 -0.0690
23136W        W66189  24.870  17.942   3.555 -0.1165 -0.0319  0.2253
23137W        W66190  20.793  30.306   7.878  0.1729  0.2541  0.1331
23138W        W66191  30.370  15.910   3.223 -0.3418  0.0190  0.4484
23139W        W66192  30.098  18.914  24.617  0.0572 -0.1309 -0.0338
23140W        W66193  33.037   2.095   8.126 -0.1788  0.1373  0.2085
23141W        W66194  21.648  20.956   5.570 -0.2297 -0.0573 -0.0091
23142W        W66195  13.924   1.255  26.776  0.0014 -0.2358 -0.0550
23143W        W66196  30.109   1.901   3.297  0.1372 -0.1587 -0.2774
23144W        W66197  18.744  32.216  25.026  0.1481  0.3682 -0.0580
23145W        W66198  27.329  27.055  23.927  0.1083 -0.0536 -0.2351
23146W        W66199  12.297  15.082  10.546 -0.1793  0.2045  0.1071
23147W        W66200  28.564   8.827  16.658  0.0867 -0.1616 -0.0237
23148W        W66201  18.721  10.644   6.731  0.3448 -0.0715  0.0744
23149W        W66202  21.294  12.051   2.610  0.2168 -0.1404 -0.2714
23150W        W66203  15.922  14.395   1.346  0.0830 -0.0122 -0.1386
23151W        W66204  28.130  11.828   7.078 -0.1464 -0.1968 -0.1762
23152W        W66205  25.925  10.689   7.852  0.2885 -0.0137  0.0730
23153W        W66206  29.179  17.200   7.517 -0.0241  0.2536  0.1953
23154W        W66207  26.630   7.839   1.475 -0.0006  0.0571 -0.0229
23155W        W66208  17.265  15.887   4.112  0.1160  0.1580 -0.1695
23156W        W66209  25.785  12.455  28.941 -0.0820  0.0144  0.2042
23157W        W66210  31.465   5.270  28.474  0.2168 -0.2275 -0.0940
23158W        W66211  19.151  21.320   7.579  0.2221 -0.0671  0.2777
23159W        W66212  25.756  27.473   5.857 -0.2982 -0.2813  0.0799
23160W        W66213  29.722   3.967   6.170 -0.0904 -0.1388 -0.0877
23161W        W66214  26.967  15.470  29.181 -0.0433 -0.0956 -0.0071
23162W        W66215  16.667   6.424   0.046 -0.3805 -0.3381  0.2251
23163W        W66216  23.444   4.369   6.187 -0.0678 -0.1310 -0.0296
23164W        W66217  31.618   7.053   8.581  0.0844  0.1093  0.0316
23165W        W66218  17.443  10.360   0.838  0.1651 -0.4173 -0.2126
23166W        W66219  24.014  10.757   7.905 -0.0523  0.0485 -0.1390
23167W        W66220   4.896  24.417   9.081  0.0926  0.0097  0.1271
23168W        W66221  34.658  16.545   9.800  0.2948 -0.0200 -0.1789
23169W        W66222  31.089   7.605  24.847  0.4966 -0.3112 -0.3614
23170W        W66223  23.688  18.622   5.964 -0.0881  0.4035 -0.2788
23171W        W66224   9.076   1.156  10.495  0.1023 -0.3038  0.2183
23172W        W66225  21.994  18.246   2.587 -0.1244 -0.4003  0.0685
23173W        W66226  19.558  20.579   5.682  0.1805 -0.1030  0.1378
23174W        W66227  12.590  11.022  20.482 -0.2107  0.1529  0.0726
23175W        W66228  17.793   4.492  27.758 -0.1428  0.1711 -0.1151
23176W        W66229  32.527   9.358  22.185 -0.0023 -0.0674  0.0401
23177W        W66230  26.226  15.734  26.679 -0.0533  0.1287 -0.1184
23178W        W66231  17.012  10.662   0.975 -0.0384 -0.0700 -0.2084
23179W        W66232  10.942  20.716  28.352  0.0532  0.0061  0.1088
23180W        W66233  19.547   4.744  22.330  0.2939 -0.0905 -0.1443
23181W        W66234  27.193  31.345   8.768 -0.0321 -0.2003  0.3236
23182W        W66235  28.938  33.389   2.486 -0.1854  0.2205 -0.0528
23183W        W66236  11.000  11.885   1.365 -0.0610  0.4142  0.0145
23184W        W66237  23.060  18.169  18.939 -0.1500  0.0919 -0.1734
23185W        W66238   6.142   5.075   9.414  0.1933  0.0331  0.0252
23186W        W66239  27.959  14.187   6.125  0.2522 -0.0809  0.0942
23187W        W66240  33.596  30.886   2.462 -0.1913  0.3841 -0.0268
23188W        W66241  27.451  17.596   9.977 -0.2697  0.0511 -0.1681
23189W        W66242  20.724   1.851  26.991  0.0338  0.3377 -0.4924
23190W        W66243  17.011  23.145   6.589 -0.3078 -0.5641 -0.4286
23191W        W66244  23.026   5.878   4.981 -0.1514  0.2875  0.0812
23192W        W66245   1.582  23.549   8.931  0.1091 -0.0970 -0.4265
23193W        W66246  20.058  13.549   9.844 -0.3920 -0.1559  0.0799
23194W        W66247  30.334   0.805   2.032  0.2744 -0.0278  0.0405
23195W        W66248   5.544  28.763   9.148  0.0123  0.2981  0.4198
23196W        W66249  32.160  13.288   6.127  0.0411 -0.2835  0.2367
23197W        W66250  24.288  19.749   1.062  0.2209  0.1368 -0.0066
23198W        W66251  24.329   4.814   3.126  0.0932  0.1262 -0.1681
23199W        W66252   2.470   2.372   8.330 -0.0126 -0.4581  0.3332
23200W        W66253  24.756   7.104   8.724  0.0750  0.1391 -0.0144
23201W        W66254  15.805  12.446  24.977 -0.0554 -0.3106  0.1834
23202W        W66255  21.364  16.180  22.517  0.3169 -0.4355 -0.0720
23203W        W66256  27.320  29.584  25.971  0.0161 -0.3011  0.1486
23204W        W66257   1.396  20.553   8.426 -0.3252  0.1065 -0.1992
23205W        W66258  25.253  27.260   8.425 -0.2523  0.4247 -0.0635
23206W        W66259  16.877  24.551   3.977 -0.0749  0.5019  0.2183
23207W        W66260  12.548   0.417   1.469 -0.0645 -0.0811 -0.0931
23208W        W66261  18.903   8.930  10.798 -0.0081 -0.6426  0.2388
23209W        W66262  22.335  28.236   5.849  0.0026  0.1595 -0.0369
23210W        W66263  21.556  17.464  25.245 -0.1238 -0.1097  0.0071
23211W        W66264   6.530  33.620   3.915  0.0307  0.2801  0.2607
23212W        W66265  17.100   4.193   7.710 -0.2316  0.1055 -0.1687
23213W        W66266  22.028  13.766   8.884 -0.1906 -0.0059  0.1854
23214W        W66267  31.339  34.217   1.574  0.1379  0.4349 -0.0381
23215W        W66268  21.200  13.344   7.540  0.0387 -0.2128  0.1270
23216W        W66269  27.728   1.728   4.885 -0.1890  0.0001 -0.0659
23217W        W66270  22.425  25.027  24.576  0.0836 -0.0717 -0.0719
23218W        W66271  20.310   7.839   8.585 -0.2973 -0.2849 -0.1042
23219W        W66272  22.769  22.879   8.657 -0.1391 -0.1390  0.3759
23220W        W66273   6.176  13.245   3.068  0.1158 -0.3350 -0.2585
23221W        W66274  31.453  20.325   2.564  0.3180  0.0649 -0.1587
23222W        W66275  22.410  19.055   2.964  0.2436 -0.0026  0.1463
23223W        W66276  18.001  14.170  14.939  0.3503  0.0005  0.1263
23224W        W66277  25.025  18.223  26.733 -0.2013  0.3543  0.0761
23225W        W66278   1.935  24.481  19.732  0.0104  0.1126  0.4679
23226W        W66279  33.126  10.860   9.530 -0.1431 -0.0531  0.0637
23227W        W66280  23.103  13.801   6.377 -0.0979  0.0490 -0.0057
23228W        W66281  14.442   9.977   2.119 -0.0614  0.0869  0.0724
23229W        W66282  18.826  23.487   6.998 -0.0280  0.0889  0.0478
23230W        W66283  20.017   4.221  26.992  0.1099 -0.0096 -0.1947
23231W        W66284  13.804   7.328   9.412 -0.1728  0.0492 -0.2331
23232W        W66285  34.663  13.450  17.010  0.3318 -0.1520 -0.0851
23233W        W66286  16.247   6.325   5.049 -0.1307 -0.0194  0.1841
23234W        W66287  26.681  24.066   1.814  0.1426  0.0159 -0.1048
23235W        W66288  11.612  12.490   3.165  0.1063  0.1712 -0.0910
23236W        W66289  24.633   4.314   7.314  0.4230  0.0247 -0.0476
23237W        W66290  16.591  25.170  27.988 -0.0385 -0.0395 -0.0700
23238W        W66291  21.637  19.988   3.407 -0.0521  0.2851  0.1524
23239W        W66292  16.497  21.928  19.558 -0.2880 -0.4167 -0.0690
23240W        W66293   8.860  26.451   6.704 -0.1732  0.3006  0.0653
23241W        W66294  26.210  26.235   2.639 -0.3337 -0.1644  0.4102
23242W        W66295  27.782   2.376   6.894 -0.1714 -0.1390 -0.0967
23243W        W66296  29.251  29.792  27.623 -0.0675 -0.3041 -0.0577
23244W        W66297  23.614  14.435   8.445  0.2608 -0.3024  0.1191
23245W        W66298  16.459  17.645   7.672 -0.2759 -0.3049 -0.1073
23246W        W66299  14.389  21.709   3.159  0.3264  0.0114 -0.1653
23247W        W66300  20.957  11.984   3.057  0.2039  0.3017 -0.0100
23248W        W66301  13.582  15.843   5.213 -0.0758 -0.1102 -0.3024
23249W        W66302  21.234  27.911   6.991  0.0085 -0.4459 -0.1597
23250W        W66303  25.064  18.835   0.807  0.0582  0.1245 -0.1308
23251W        W66304  14.304  10.840   6.011  0.3620 -0.0766  0.0484
23252W        W66305  25.735  17.393  19.290  0.1357  0.1062  0.1774
23253W        W66306  23.939  16.968  28.363  0.4000  0.3780  0.0876
23254W        W66307  19.482   0.397   7.220  0.0983 -0.4411 -0.0466
23255W        W66308  20.621  26.109   6.047  0.0218  0.1382 -0.1646
23256W        W66309  18.788   5.075   3.341  0.1763 -0.1354  0.0567
23257W        W66310  15.875   3.252   3.059 -0.0037 -0.0107  0.1644
23258W        W66311   4.447  25.033   3.835  0.1885 -0.0907 -0.1918
23259W        W66312  27.102  19.893   6.989  0.0910  0.1162  0.2213
23260W        W66313  16.392  12.959   9.179 -0.2196 -0.2230  0.1465
23261W        W66314  29.312   1.812  23.510 -0.1893  0.1689 -0.0581
23262W        W66315  20.684  18.992  27.121 -0.0920  0.0212  0.2087
23263W        W66316  14.543  18.515   4.727  0.0723 -0.1908 -0.1808
23264W        W66317  16.753  11.047   2.327 -0.1466  0.2024  0.1092
23265W        W66318  31.842  10.235   0.316 -0.0457  0.3840  0.0712
23266W        W66319  19.410  16.306   0.683  0.1083 -0.2391  0.1315
23267W        W66320  12.964   9.024   7.419  0.1152 -0.1703 -0.2647
23268W        W66321   8.322  23.259   9.163  0.1257  0.0989 -0.1229
23269W        W66322  29.611   7.390   4.524 -0.1627 -0.1786  0.1163
23270W        W66323  16.968  18.843   4.126  0.1516  0.0116  0.0441
23271W        W66324   1.574  31.605  26.577  0.0977 -0.0789  0.0563
23272W        W66325  27.283   3.212   5.745 -0.0446  0.2081 -0.0838
23273W        W66326  31.482  13.096   7.755  0.0122 -0.1939 -0.1848
23274W        W66327  20.977   7.618   9.760  0.0766 -0.1579  0.0751
23275W        W66328  26.225   5.170   7.100 -0.1883  0.1196 -0.2140
23276W        W66329  16.954  11.545   2.929 -0.1573  0.1652  0.2961
23277W        W66330  32.470  33.475  25.397  0.2586  0.0777 -0.0842
23278W        W66331  23.100  15.484   3.224  0.2640  0.2573 -0.6223
23279W        W66332  26.393  13.267  27.784 -0.0720  0.1204 -0.0381
23280W        W66333  21.667   0.922   6.071 -0.1006 -0.0348 -0.0727
23281W        W66334  23.566   5.708  27.739  0.3438  0.1212 -0.4609
23282W        W66335  31.858   3.604   6.187  0.0831  0.1524 -0.0286
23283W        W66336   4.138  10.906   0.979 -0.2000 -0.1982 -0.1741
23284W        W66337  24.322  10.019   5.313 -0.2237 -0.0352 -0.0063
23285W        W66338  11.572  15.364   1.663 -0.3693 -0.0457  0.1377
23286W        W66339  11.423  13.182   5.992  0.1167 -0.0074  0.0754
23287W        W66340  19.788  20.099   3.680 -0.3067  0.2598  0.2213
23288W        W66341   1.456   2.146   7.354  0.1742 -0.0170  0.1333
23289W        W66342  27.997  20.401   0.482 -0.0564 -0.0374  0.2168
23290W        W66343  24.970   7.188   5.743 -0.1831  0.4886 -0.4490
23291W        W66344  13.936  18.071   7.089 -0.4428  0.0195 -0.0412
23292W        W66345  18.964  34.335   7.095 -0.2384  0.1403 -0.2614
23293W        W66346  20.725  10.836   7.745  0.1610 -0.0311  0.3786
23294W        W66347   9.347  16.418   5.608 -0.1212 -0.1425 -0.2414
23295W        W66348  33.877  17.568   4.934 -0.2702  0.1148  0.0137
23296W        W66349  20.965  24.041  28.374 -0.0315 -0.0326 -0.2022
23297W        W66350   2.301   8.733   3.192 -0.2188 -0.1396  0.4236
23298W        W66351  29.133  18.709   5.920  0.2033 -0.2520  0.0146
23299W        W66352  14.207  23.921   1.825 -0.0504  0.0150  0.2856
23300W        W66353  32.448  13.808   6.123  0.1920  0.0192  0.1406
23301W        W66354  30.035  21.214   5.684  0.0815 -0.1133 -0.2758
23302W        W66355  16.194  19.262   1.807  0.2221 -0.1585 -0.2897
23303W        W66356   0.446   8.135   9.056 -0.1242 -0.1694 -0.0081
23304W        W66357  21.596  31.345   6.631 -0.1617 -0.1598  0.1363
23305W        W66358  24.091  33.841   9.962  0.1348 -0.2207 -0.2137
23306W        W66359  21.252  18.240   2.167 -0.4048 -0.0925  0.0447
23307W        W66360  12.190  16.211   8.997  0.1221  0.0724 -0.0184
23308W        W66361  18.987   9.375  27.448  0.0604  0.0814 -0.1125
23309W        W66362   5.241   5.829   6.195 -0.4097 -0.2823  0.0346
23310W        W66363  31.361  20.349   7.214  0.0333 -0.3152  0.0113
23311W        W66364  19.903  16.829   2.052  0.1072  0.1312  0.2325
23312W        W66365  26.067  15.793   3.445 -0.3147  0.2312  0.1115
23313W        W66366   1.876  30.558   3.395  0.1995  0.0538 -0.1950
23314W        W66367   7.621  17.911   3.003  0.3185  0.4498  0.0911
23315W        W66368  14.331   3.018   9.104  0.0126  0.5808  0.0546
23316W        W66369  26.487  20.881   4.190 -0.0854 -0.1192  0.0896
23317W        W66370  10.666  31.689   7.930 -0.1718  0.3286 -0.0947
23318W        W66371  28.168   8.599  24.173  0.0422  0.1471  0.0831
23319W        W66372  30.020  33.111   5.263  0.3612  0.0884  0.0213
23320W        W66373  25.596   7.641   8.061  0.0737 -0.0372  0.0383
23321W        W66374  33.910   9.750   3.694 -0.0678  0.1692 -0.0363
23322W        W66375  25.371  17.176   4.010 -0.2248 -0.0900  0.0532
23323W        W66376  11.243  10.153  10.923  0.2473 -0.2435 -0.0872
23324W        W66377  27.446  25.374   8.018 -0.3933  0.2296 -0.1268
23325W        W66378  32.977   7.989   5.562 -0.0970 -0.2253 -0.0137
23326W        W66379  19.906  15.740   8.815  0.1280  0.1966 -0.1831
23327W        W66380   6.152   7.673   6.136  0.3017  0.0390  0.0810
23328W        W66381  20.449  19.113  27.898  0.0271 -0.3056  0.2342
23329W        W66382  20.189   9.678   8.596  0.1268 -0.0545 -0.2411
23330W        W66383  22.580  16.813   6.732 -0.0599 -0.3264  0.0325
23331W        W66384  15.860  34.033   0.465 -0.1355  0.0578  0.1595
23332W        W66385  25.110  14.799  14.851 -0.1273  0.1832 -0.1267
23333W        W66386  27.780  18.355   1.592  0.3166  0.0032  0.1104
23334W        W66387   2.091   7.213   6.683 -0.1492  0.3633  0.1154
23335W        W66388  20.097   9.475   3.125 -0.0653  0.0673 -0.0599
23336W        W66389  12.729   5.259   1.034  0.0175  0.0304 -0.0839
23337W        W66390  31.988  13.964  22.013  0.2531  0.3004  0.0725
23338W        W66391  32.069  12.844   5.043  0.2744  0.1467 -0.3455
23339W        W66392  21.090  11.368   7.198 -0.0712 -0.2407  0.0268
23340W        W66393  17.087  13.568  27.439 -0.0194 -0.0960 -0.0129
23341W        W66394  21.407  15.706  20.113  0.0189 -0.1832 -0.0108
23342W        W66395  16.892  13.982  26.537 -0.2638  0.1640  0.0677
23343W        W66396  32.874   9.204   9.074  0.0404  0.3162 -0.0604
23344W        W66397   9.758  30.768   0.604  0.2880  0.3456  0.2209
23345W        W66398  13.937  15.204   7.166 -0.1340  0.1704  0.0032
23346W        W66399  20.992  21.452   7.410 -0.1303 -0.2687  0.0074
23347W        W66400  21.692   2.872   7.353 -0.0253 -0.5456 -0.1227
23348W        W66401  23.808  25.703   1.311  0.1330 -0.1848 -0.3176
23349W        W66402  24.885   6.940  10.528  0.0357  0.4937 -0.3695
23350W        W66403  15.646   5.188   9.726 -0.1520 -0.0955  0.0921
23351W        W66404  30.044   5.254  22.404 -0.0021  0.2324 -0.0140
23352W        W66405  17.819  21.579   8.149  0.1259 -0.2262 -0.1379
23353W        W66406  25.505   3.412   4.396 -0.0954 -0.0179  0.0387
23354W        W66407  28.327   2.450   1.055  0.2279  0.2538 -0.0797
23355W        W66408  20.018   2.736   2.727 -0.3034 -0.2347  0.1294
23356W        W66409  18.611  23.051   9.945  0.0183 -0.1280  0.0327
23357W        W66410  19.537   7.809   2.177  0.1437  0.2417 -0.0406
23358W        W66411  26.029   4.094   2.974  0.0160 -0.2032 -0.3235
23359W        W66412   8.139  15.238   5.609  0.2429 -0.0540  0.1725
23360W        W66413   1.865  16.898  13.670  0.3288 -0.1898  0.3947
23361W        W66414   1.045  22.888   7.276 -0.0404  0.1979 -0.1027
23362W        W66415  22.207  18.738   1.790 -0.2608 -0.0373  0.0836
23363W        W66416  25.998  21.063   9.080  0.1632  0.0497  0.0748
23364W        W66417  12.468  11.647   7.571  0.0990 -0.0050 -0.1267
23365W        W66418  17.495  20.972  24.858  0.2788  0.0011  0.1228
23366W        W66419  27.679  28.648   8.099 -0.0215 -0.1164 -0.0388
23367W        W66420  16.500  15.388  25.930  0.0154  0.1107  0.1916
23368W        W66421  27.336  13.386   9.302 -0.3281  0.2270 -0.2642
23369W        W66422  20.456  18.373  22.144 -0.1683 -0.2382  0.2870
23370W        W66423  23.648  14.821   6.008 -0.0968 -0.3741  0.2747
23371W        W66424   0.295  18.006   5.481 -0.6132  0.1818 -0.1040
23372W        W66425  14.154  32.024  26.095  0.0014  0.0662  0.0730
23373W        W66426  25.497  13.166   6.684  0.0629  0.2027  0.1695
23374W        W66427  25.628   8.222   9.616 -0.1205 -0.2386 -0.1294
23375W        W66428  20.400   6.648   6.241 -0.0135  0.2744  0.2335
23376W        W66429  22.606  25.948   2.788  0.0972 -0.1094 -0.2227
23377W        W66430   4.450  16.379   1.353 -0.1074 -0.0011  0.1249
23378W        W66431  18.833  11.252   2.882  0.0358  0.1232  0.0071
23379W        W66432  23.991   0.879   8.746  0.1712  0.0182  0.1939
23380W        W66433  28.106  24.789   1.724  0.1703  0.0962 -0.2851
23381W        W66434  19.187   2.498   2.761  0.1971 -0.0890  0.1071
23382W        W66435  17.469   9.338   8.813  0.0161  0.1538 -0.4915
23383W        W66436  18.939  14.903  24.393 -0.1038 -0.1144  0.2257
23384W        W66437   9.007  26.431  26.957 -0.1716  0.1714 -0.0740
23385W        W66438  23.314  17.915   6.243  0.0808 -0.0021 -0.2966
23386W        W66439  33.188  12.506   1.193  0.0778 -0.0075  0.0859
23387W        W66440  18.683   4.879  25.768 -0.1239  0.0554  0.0167
23388W        W66441  32.524  15.418   7.707  0.0774  0.3243 -0.2405
23389W        W66442  30.045  12.814  22.977 -0.3686 -0.0312 -0.2704
23390W        W66443  31.991  22.951   5.398 -0.2331  0.1524 -0.3475
23391W        W66444  16.648  18.004   8.770  0.0919 -0.0767  0.2657
23392W        W66445  11.856   0.282   8.841 -0.1469  0.0313 -0.1250
23393W        W66446  11.739  22.997   3.508 -0.1154 -0.2066 -0.1864
23394W        W66447  20.378  17.552   9.126  0.2031 -0.0769  0.0454
23395W        W66448  33.269  10.054   6.620  0.1338 -0.0170 -0.2094
23396W        W66449  19.005  27.547   4.685 -0.0626 -0.1157 -0.2107
23397W        W66450  27.981   4.101  29.141 -0.1749  0.2360 -0.1219
23398W        W66451  11.379  13.591   4.419  0.0683  0.2570 -0.0503
23399W        W66452  26.519   7.011   1.916 -0.2341 -0.0321 -0.1697
23400W        W66453  16.065   7.090   9.632 -0.0524 -0.0492  0.2303
23401W        W66454  31.608   3.766   6.968  0.2407  0.3335  0.2203
23402W        W66455   1.803  17.037   8.689  0.0709 -0.3056  0.0198
23403W        W66456   9.416  12.611   2.177 -0.0846  0.3143  0.0457
23404W        W66457  15.487  18.545  28.861 -0.0457  0.2896  0.2508
23405W        W66458   2.489   6.858   4.847 -0.2355  0.2576  0.1081
23406W        W66459  25.304  27.691  26.752  0.1525 -0.0430 -0.1469
23407W        W66460  22.138   9.336  28.495 -0.0947  0.0032 -0.0515
23408W        W66461  25.126   9.291   7.121  0.1871  0.0574  0.2367
23409W        W66462  20.891   4.218   8.767  0.0942  0.2333  0.0134
23410W        W66463   6.609   4.606   3.534  0.2005 -0.3239  0.0469
23411W        W66464  12.792   4.548   5.625 -0.2426  0.0409  0.0285
23412W        W66465  28.744  20.384   7.543  0.0251 -0.0550  0.2475
23413W        W66466  24.623   0.944   1.864 -0.2045 -0.0047 -0.0301
23414W        W66467  30.654   5.520   6.901 -0.1246 -0.1581  0.3673
23415W        W66468  25.206  33.155   2.646 -0.1565 -0.2376 -0.3968
23416W        W66469  14.501  24.834   0.928 -0.0236 -0.0251  0.1046
23417W        W66470  13.476   6.854   5.912  0.1761 -0.5381 -0.0624
23418W        W66471  21.188  18.813   9.619 -0.2280  0.0046 -0.1792
23419W        W66472  30.244   5.601  10.001 -0.3490 -0.0085 -0.1127
23420W        W66473  24.556   7.204   5.168 -0.2580  0.0649 -0.0240
23421W        W66474  17.619  29.152  24.786  0.2174 -0.3361  0.1885
23422W        W66475  29.003  11.485   7.143  0.2411 -0.0692  0.3714
23423W        W66476  23.604  21.196  24.653  0.3459  0.1731  0.4564
23424W        W66477  26.819  16.392   9.438  0.2227  0.1097  0.3156
23425W        W66478  23.289  34.345   2.571  0.0133 -0.0417 -0.2060
23426W        W66479  30.068  11.164  10.397 -0.0400  0.0078  0.2339
23427W        W66480  26.258   7.984   6.579  0.0901  0.0832  0.1618
23428W        W66481  22.214   4.386   9.511  0.1844 -0.2138  0.1406
23429W        W66482   0.929  12.614   0.811 -0.0825 -0.2004  0.1658
23430W        W66483  31.629  30.026   5.874 -0.2458 -0.0446  0.0032
23431W        W66484   4.535  19.335  14.819 -0.0532 -0.1516 -0.2055
23432W        W66485  14.714  31.485   5.555  0.3385 -0.2163  0.5079
23433W        W66486  15.619  11.459   2.402 -0.0502  0.0902  0.2335
23434W        W66487  33.058  22.453   4.838  0.1120  0.2844  0.0351
23435W        W66488  25.651   3.853   9.640 -0.3495  0.1326  0.2152
23436W        W66489  17.449   5.643   1.571  0.0594 -0.0558 -0.0104
23437W        W66490  23.317  15.415  22.144 -0.0054 -0.1081 -0.1306
23438W        W66491  23.860  13.508  26.912 -0.1420 -0.0143  0.0548
23439W        W66492  22.901  34.451   9.591  0.1610  0.1661  0.1319
23440W        W66493  21.423  20.883   6.092  0.4450  0.2470 -0.0234
23441W        W66494   3.673   7.329   0.681 -0.0770  0.0025  0.2243
23442W        W66495  22.688  10.595   9.680  0.0147 -0.1607 -0.3058
23443W        W66496  11.026  23.111  27.307 -0.0277  0.1413  0.1816
23444W        W66497  25.274  20.722  18.464 -0.2455  0.1737  0.0733
23445W        W66498  24.626  19.304   7.347  0.4890  0.0675 -0.1260
23446W        W66499  27.889   9.020   2.993 -0.0901 -0.1413 -0.0201
23447W        W66500  24.002  26.219   3.005  0.1693 -0.0955 -0.0606
23448W        W66501  27.881  26.444   9.331  0.2078  0.0677 -0.1892
23449W        W66502  19.162  13.815   5.087  0.0062 -0.2232 -0.2207
23450W        W66503  20.202  27.663   9.403 -0.0234  0.2163 -0.2420
23451W        W66504  28.092  12.615  28.276 -0.2724  0.0944 -0.0216
23452W        W66505  13.899   1.270   3.053 -0.1206  0.1303  0.1972
23453W        W66506  21.732   5.921   8.961 -0.0233 -0.1351 -0.4027
23454W        W66507  21.246   7.305   6.520  0.0981 -0.1379 -0.4394
23455W        W66508  19.014  32.811  25.827  0.1119  0.0092 -0.2046
23456W        W66509  15.664  24.891  28.078  0.0986 -0.1802  0.2701
23457W        W66510  23.940  10.077   5.751  0.2157  0.0636 -0.1822
23458W        W66511  17.444   1.212   7.298 -0.0375 -0.0333 -0.2523
23459W        W66512  23.115   9.876   4.670 -0.1327 -0.1330 -0.0561
23460W        W66513  20.104  13.488   4.008  0.1324 -0.2244 -0.1590
23461W        W66514   8.828  14.873   6.293 -0.1257  0.0136 -0.1736
23462W        W66515   6.980   6.627   7.434 -0.0567 -0.0035  0.0157
23463W        W66516  10.139   8.185   1.625  0.2990  0.0547 -0.1385
23464W        W66517   4.041  17.654  24.535 -0.1014 -0.0393 -0.2699
23465W        W66518  21.878  26.440  29.113  0.1899  0.1106  0.1813
23466W        W66519  18.228  11.939  23.752  0.0653  0.0828  0.4690
23467W        W66520  26.802  18.455   6.881  0.2838  0.0423 -0.1184
23468W        W66521  34.609   5.766   8.783 -0.2346 -0.0737 -0.0794
23469W        W66522  16.416  18.402   6.670 -0.0762  0.0864 -0.1556
23470W        W66523  32.874  23.216   0.591  0.0936 -0.0332  0.0132
23471W        W66524  15.887  13.480  23.277 -0.0477  0.1366 -0.2472
23472W        W66525  21.839  32.218  28.045  0.0744  0.1247 -0.2624
23473W        W66526   3.825  10.015  22.270  0.3552 -0.1844  0.0134
23474W        W66527  26.673  12.496   7.185  0.0121  0.0410 -0.1880
23475W        W66528  24.368  31.998  28.626 -0.0320  0.0308  0.1050
23476W        W66529  17.445   9.052   5.092  0.2757  0.2201  0.1577
23477W        W66530  21.598   7.176  26.644  0.2066  0.1382 -0.0817
23478W        W66531  18.853   3.640   5.603 -0.1341  0.2186 -0.1169
23479W        W66532  26.763   4.671   3.641 -0.0180 -0.0253  0.1041
23480W        W66533  28.578  17.285   0.386  0.0313  0.0575  0.1372
23481W        W66534   1.964  33.122  28.418  0.0163 -0.2531 -0.0317
23482W        W66535  16.542   5.170  27.346  0.1723 -0.0404  0.0478
23483W        W66536  24.296   0.255   3.012 -0.1271 -0.2245  0.2314
23484W        W66537  19.874  16.440   8.157 -0.2847  0.1914  0.2505
23485W        W66538  30.007  17.067   8.148 -0.0809 -0.1539  0.2090
23486W        W66539  21.940  30.066   6.673 -0.1975 -0.1114  0.2148
23487W        W66540  17.228  16.214   9.644 -0.0144 -0.1190 -0.3400
23488W        W66541  29.574  12.337   2.290  0.3020 -0.3745  0.0377
23489W        W66542  25.293   9.776  17.719  0.0974 -0.1428  0.0287
23490W        W66543  15.312  19.111  27.468  0.0656 -0.1241  0.0152
23491W        W66544  27.006  23.988  17.391  0.0569 -0.1099 -0.1367
23492W        W66545  26.757  22.833   5.988 -0.0282  0.2161 -0.0112
23493W        W66546  24.553  20.814   8.795  0.1878  0.0507 -0.0388
23494W        W66547  22.503  25.702   4.381  0.0583  0.1796  0.0383
23495W        W66548  18.340  24.455  24.793  0.0260 -0.2052 -0.0577
23496W        W66549  23.753   0.444  22.888  0.2616 -0.0192 -0.2061
23497W        W66550  19.426  10.725  26.503  0.3109  0.2095 -0.1223
23498W        W66551  30.169  32.489  26.446  0.3414  0.2323  0.1081
23499W        W66552  14.584  18.207   8.776  0.0568 -0.0896  0.2917
23500W        W66553   6.225  16.522  27.075 -0.0118  0.2670 -0.3272
23501W        W66554   2.354  14.461  24.199  0.0758  0.0481 -0.0969
23502W        W66555  19.072  33.375  10.184  0.2082 -0.0916 -0.0587
23503W        W66556  19.667  26.945   8.393 -0.0022 -0.3139  0.0166
23504W        W66557   0.568  17.126   8.574  0.3963  0.0708  0.2803
23505W        W66558  23.317  14.509   1.024 -0.2484 -0.0696 -0.0317
23506W        W66559   6.682  19.279   2.379  0.1175 -0.1736 -0.1807
23507W        W66560  27.378   8.136  27.723 -0.2805  0.1066  0.1176
23508W        W66561  19.965   9.521  23.214  0.1883 -0.1336 -0.0587
23509W        W66562  26.969   8.075  25.269  0.0766  0.3368  0.2743
23510W        W66563  27.024  25.130   8.092  0.1461 -0.3060 -0.2704
23511W        W66564  22.446  26.832  18.612 -0.0137  0.2240 -0.2084
23512W        W66565  25.486  14.053   2.611 -0.1977 -0.2350  0.2257
23513W        W66566  15.929  15.582   9.797 -0.1446  0.0864 -0.1170
23514W        W66567  17.276  25.556   8.889  0.1624  0.0286  0.4459
23515W        W66568   9.898  32.681   4.606 -0.0147  0.0163  0.2447
23516W        W66569  30.217  24.529   8.039 -0.4355 -0.1653 -0.0743
23517W        W66570  21.781  17.177   7.549  0.1758  0.1468 -0.0056
23518W        W66571  26.586   8.549  28.697 -0.1221 -0.1302  0.2057
23519W        W66572  25.072  15.678   7.654 -0.0377 -0.0953  0.0804
23520W        W66573  31.692  16.437   5.823 -0.1446 -0.0344  0.2884
23521W        W66574  21.493  15.719  22.451  0.1124 -0.2202  0.4207
23522W        W66575  29.096  24.991  26.099  0.1596  0.4484  0.0433
23523W        W66576  21.789  25.128  20.901 -0.1368 -0.2114  0.1427
23524W        W66577   1.950  15.527   1.078 -0.1982  0.0039 -0.1005
23525W        W66578  31.221  22.833   0.122  0.1032  0.2184 -0.2135
23526W        W66579  22.160   8.221   8.499 -0.4862  0.0494  0.1190
23527W        W66580  28.018  12.603  22.528  0.3433 -0.0786  0.3568
23528W        W66581   0.114  10.226   6.184  0.0988 -0.1117  0.1296
23529W        W66582  29.099  28.588  28.944 -0.0440  0.1334  0.0788
23530W        W66583  10.590  12.273  10.469  0.0894 -0.0201 -0.1070
23531W        W66584  22.245  13.311  27.713  0.2747  0.1128  0.0661
23532W        W66585  31.501  23.007   5.332 -0.0321 -0.0498 -0.0640
23533W        W66586  17.014  14.760  15.060  0.1745  0.0005 -0.1961
23534W        W66587  28.258  33.905   3.733  0.2751 -0.4223 -0.0367
23535W        W66588  15.777  19.841   4.097  0.0245 -0.3935  0.0705
23536W        W66589  34.523  16.092   0.659  0.1073 -0.3050 -0.2221
23537W        W66590  23.979  24.492   3.371  0.0932  0.0616  0.0233
23538W        W66591   2.724   2.456  15.431  0.1125 -0.0303 -0.4243
23539W        W66592  19.216  17.305   1.328 -0.1642  0.0847 -0.1141
23540W        W66593  10.205   1.470   2.665  0.1702  0.3390  0.1685
23541W        W66594  29.661  24.629  28.836 -0.1349 -0.1554  0.1214
23542W        W66595  31.285  21.831   6.623 -0.1518 -0.0129  0.1884
23543W        W66596  19.626  13.585   3.228  0.1157 -0.0599  0.0603
23544W        W66597  10.794  24.389   3.470  0.4164  0.2934 -0.1546
23545W        W66598   5.051  27.437   9.182  0.1757 -0.2050  0.1905
23546W        W66599  25.354  29.475   5.933 -0.2882  0.0805  0.0093
23547W        W66600  32.499  27.702  23.316 -0.0917 -0.1464  0.0013
23548W        W66601  23.956  11.695  24.997 -0.1825 -0.1800 -0.4914
23549W        W66602   6.312  14.509   7.358 -0.0883  0.2163  0.0716
23550W        W66603  16.411   7.689   6.363  0.1758 -0.2277  0.0824
23551W        W66604  32.059   3.891  26.059 -0.1408  0.1046 -0.2060
23552W        W66605  23.155  24.836  10.196 -0.1316 -0.1590  0.0225
23553W        W66606  20.882   4.691   3.706  0.1617  0.2405 -0.1445
23554W        W66607  14.828   5.988  21.422 -0.1696 -0.1649 -0.3178
23555W        W66608  27.686  21.058  17.185  0.3155 -0.1801 -0.2856
23556W        W66609   7.957   7.674   7.388 -0.2799  0.2763  0.2061
23557W        W66610  30.184  18.612  10.210 -0.0149 -0.0764  0.0904
23558W        W66611  29.115  17.245  25.991  0.0767 -0.0468 -0.2211
23559W        W66612  16.492   8.619  10.477 -0.2296 -0.4913  0.1921
23560W        W66613  23.852  20.190   7.178 -0.3679 -0.1488 -0.2843
23561W        W66614  12.780  16.828   5.686 -0.1489 -0.2218 -0.0369
23562W        W66615  16.182   8.167   7.860 -0.0688  0.0266  0.0233
23563W        W66616  28.978  19.057   1.869 -0.0791  0.0619 -0.3075
23564W        W66617  24.544  27.820   9.281  0.0850 -0.5912  0.4269
23565W        W66618  19.906   1.222   5.225 -0.0428  0.5017 -0.0770
23566W        W66619   5.494  18.817  19.834  0.1376  0.1483 -0.1349
23567W        W66620  29.755  26.742   2.180  0.1494 -0.0610  0.2043
23568W        W66621  21.969  18.357  27.161 -0.1798  0.1530  0.0052
23569W        W66622  22.957   9.881   9.308  0.1992 -0.1560 -0.0858
23570W        W66623  27.616  16.902   7.578  0.1920 -0.0623  0.0074
23571W        W66624  33.445   4.889   9.077  0.4020  0.1064  0.0500
23572W        W66625  15.769  23.608  25.498 -0.1860  0.1552  0.0775
23573W        W66626  20.390  22.876   8.270  0.1698 -0.2025  0.0401
23574W        W66627  28.725  21.315  25.196 -0.1216 -0.1059  0.1343
23575W        W66628  27.609  11.413   7.546 -0.0096 -0.0949  0.2247
23576W        W66629  26.998   9.174  24.068 -0.2039 -0.0857  0.3818
23577W        W66630  31.454  20.586   4.765  0.0522  0.0286 -0.0489
23578W        W66631  13.376  21.491   3.100 -0.2054  0.1434  0.2258
23579W        W66632   8.927  15.696  22.857  0.2054 -0.3815 -0.0419
23580W        W66633  33.753  30.499  19.151  0.0432  0.1474  0.0483
23581W        W66634  27.928  10.423   4.243 -0.3493  0.1442 -0.1692
23582W        W66635   5.691  23.611  21.592  0.0236  0.0859 -0.0038
23583W        W66636  22.737  17.057  26.598  0.0883  0.0739 -0.0682
23584W        W66637  22.498  23.119  16.030 -0.3696 -0.0841 -0.2969
23585W        W66638  24.286   9.519  27.009  0.0525  0.0221  0.0720
23586W        W66639  19.434  27.021   2.852 -0.1937 -0.2684 -0.1064
23587W        W66640  22.691  10.645  20.852  0.0573  0.2412 -0.0710
23588W        W66641  26.115  22.467   3.132  0.4989 -0.1494 -0.2127
23589W        W66642  22.984  21.902  23.943  0.0495  0.0221  0.0407
23590W        W66643  23.195  34.085   6.225 -0.1766  0.0584 -0.0934
23591W        W66644   1.015   8.769   2.344  0.0929  0.0570  0.0997
23592W        W66645  24.935  30.808  23.499 -0.0593  0.2825 -0.0201
23593W        W66646   8.153  12.886  28.772  0.1223  0.0302  0.1256
23594W        W66647   3.798   4.550   0.597 -0.0359  0.3164 -0.3537
23595W        W66648  23.498  19.008  23.768  0.2303 -0.0464  0.0359
23596W        W66649  25.661  16.846  29.063  0.0118 -0.2355 -0.3023
23597W        W66650  27.383  24.284   0.656  0.0157  0.2280 -0.0837
23598W        W66651  13.352   6.497  18.507 -0.0454  0.2301  0.0349
23599W        W66652  32.719   9.183   7.511  0.1707  0.0860 -0.1992
23600W        W66653  26.786  16.963   9.327  0.0085 -0.1948 -0.2678
23601W        W66654   9.301  23.022  26.000 -0.2002  0.0266 -0.1913
23602W        W66655  17.801  27.411  25.215  0.1163 -0.0308  0.0146
23603W        W66656  17.575  19.660   5.076  0.0214 -0.2156 -0.3760
23604W        W66657  32.337  25.910   7.428  0.2970  0.1796  0.1756
23605W        W66658  24.117   9.206  18.732 -0.0796 -0.2820  0.2844
23606W        W66659  23.538  18.828  17.845 -0.1788  0.0561 -0.3455
23607W        W66660  15.968  26.318   5.259  0.0981 -0.1682 -0.5292
23608W        W66661  25.849   7.028  26.708 -0.2111  0.2073 -0.0197
23609W        W66662  11.037  23.016   9.245 -0.4124 -0.1995  0.3513
23610W        W66663  21.190   6.166  14.924  0.2905  0.3169 -0.1560
23611W        W66664  29.483  15.443   8.481 -0.0601  0.0726  0.0171
23612W        W66665  21.659  17.487   5.720 -0.0652 -0.2110 -0.1123
23613W        W66666  19.640  25.192  26.920 -0.0661  0.1087  0.4213
23614W        W66667  17.451  12.036  23.479  0.2422 -0.0031 -0.1460
23615W        W66668  18.396  15.029   3.469 -0.0198  0.0144 -0.1835
23616W        W66669  23.669  25.089   6.787 -0.0057  0.0387  0.0469
23617W        W66670  32.932   9.678   6.676 -0.2018 -0.2123  0.2268
23618W        W66671  24.159  13.974   7.831 -0.2915  0.1653 -0.1193
23619W        W66672  19.906  13.246  18.685 -0.0062  0.3698 -0.0428
23620W        W66673  12.892   9.967  29.002  0.0513 -0.0115  0.0733
23621W        W66674  16.804  10.377  25.083 -0.1057  0.2052  0.3286
23622W        W66675  27.239  24.503  18.071  0.0969 -0.0001  0.2808
23623W        W66676   0.136   8.013   9.450 -0.2867 -0.0196  0.3761
23624W        W66677   5.545   5.599   9.098  0.4590 -0.2754 -0.1374
23625W        W66678  22.288   9.427   9.652 -0.0112 -0.1087  0.0124
23626W        W66679  25.492   8.742  23.208 -0.1660  0.0414 -0.2083
23627W        W66680  21.841   0.969  10.124 -0.4230 -0.3044 -0.1027
23628W        W66681  16.685  19.549   5.715  0.1353 -0.2466  0.2274
23629W        W66682   6.953  15.798   6.443 -0.1573  0.1807 -0.0308
23630W        W66683  14.774   3.216   7.895 -0.1075  0.2742  0.0330
23631W        W66684  23.214   7.824  21.340  0.0973  0.1344 -0.0250
23632W        W66685  22.881  17.982  20.513 -0.0971 -0.1431 -0.0223
23633W        W66686  20.513  34.274   6.735  0.1220  0.0579 -0.0181
23634W        W66687  27.652  18.264   0.083 -0.0172 -0.0938 -0.1429
23635W        W66688  34.092  20.120   4.575 -0.0349 -0.0351  0.0507
23636W        W66689  23.594   1.001  27.183  0.1381 -0.1217  0.1381
23637W        W66690  24.424  34.351   9.105  0.3683  0.0367  0.3197
23638W        W66691  29.985  19.783   4.004 -0.0956  0.0300  0.3026
23639W        W66692  33.726  25.266   1.444  0.2444  0.1978  0.1154
23640W        W66693  17.757  21.058   4.757  0.0685  0.0466  0.2366
23641W        W66694  12.423   3.307   9.301 -0.0473  0.0987  0.1302
23642W        W66695  23.091  31.756  27.613  0.0236  0.1075 -0.3456
23643W        W66696  21.212   3.099   5.467  0.0533  0.2695 -0.1076
23644W        W66697  13.280  29.833   6.046 -0.1503 -0.1446  0.1330
23645W        W66698  26.821  33.989   9.157 -0.1587 -0.0149 -0.3171
23646W        W66699  19.733  21.992  28.476  0.0999  0.0927 -0.2373
23647W        W66700  32.262  28.896   3.478 -0.0704 -0.1185  0.2718
23648W        W66701  19.119  25.532  23.648 -0.3295  0.0436 -0.0860
23649W        W66702  18.086   1.499  28.883  0.1267 -0.1654  0.1871
23650W        W66703   6.672  10.969   4.147 -0.0434 -0.1595  0.2947
23651W        W66704  30.260  16.242  26.020 -0.2688  0.0117  0.1170
23652W        W66705  19.975  17.435   5.371  0.0662 -0.1949  0.0439
23653W        W66706  19.045  29.606   3.802  0.6995 -0.1161 -0.0381
23654W        W66707  12.820  19.536   2.605 -0.2946  0.1924 -0.0188
23655W        W66708  34.203  12.300   8.806  0.3239 -0.1675  0.1058
23656W        W66709  16.243   6.212   4.575 -0.0378 -0.1105 -0.1932
23657W        W66710  20.797  27.554  27.008  0.0770  0.0056 -0.0919
23658W        W66711  30.082   2.170   0.897  0.4982 -0.0991  0.0764
23659W        W66712  27.556  19.020   6.135  0.0664 -0.0864  0.1054
23660W        W66713  28.203   3.100   1.873  0.0041 -0.2825 -0.1109
23661W        W66714  20.099  12.444   9.334  0.1168  0.3371  0.0689
23662W        W66715  31.428   6.442   7.886 -0.0560 -0.2120  0.1620
23663W        W66716  18.525  17.842   3.865 -0.0653  0.0140 -0.1913
23664W        W66717  30.694  16.319   1.196 -0.0092 -0.0105 -0.2186
23665W        W66718  18.032  22.212  18.785 -0.1987 -0.0006 -0.0256
23666W        W66719  16.605  15.818   0.752 -0.0885  0.0689 -0.0755
23667W        W66720  20.478  14.892   3.770  0.2480 -0.0883  0.4600
23668W        W66721  33.748  13.144   9.341  0.4417  0.0583  0.1909
23669W        W66722  17.331  18.078   0.624  0.1710 -0.1997  0.0232
23670W        W66723  22.049  24.435   4.721 -0.2040 -0.3884 -0.2142
23671W        W66724  26.596  19.243   9.647 -0.4085 -0.1249  0.0793
23672W        W66725  26.713   3.213  26.721 -0.1954 -0.0605  0.1470
23673W        W66726   0.950  28.484  26.628  0.4297 -0.0459 -0.1390
23674W        W66727  21.382  27.048   8.845 -0.1590 -0.0680 -0.0659
23675W        W66728   2.019  16.631   9.757  0.1292  0.1283 -0.0824
23676W        W66729  23.822   8.094   2.975 -0.1662 -0.3571  0.3235
23677W        W66730  24.674  11.744  26.746  0.2112 -0.0213  0.0477
23678W        W66731  24.129  32.987  25.378  0.0194  0.0063  0.2851
23679W        W66732   1.253  10.092   9.995 -0.3740  0.0209 -0.1273
23680W        W66733  31.534  19.343   5.434 -0.0109 -0.1258 -0.0595
23681W        W66734  15.916  19.009   8.479  0.0090 -0.0854 -0.0211
23682W        W66735  29.736  13.153   5.940 -0.2869  0.0985  0.1594
23683W        W66736  28.719  21.789  13.983  0.1702  0.1692 -0.2547
23684W        W66737  17.004   1.534  24.179  0.0213  0.0347 -0.0489
23685W        W66738  15.108  13.541   6.385  0.0671 -0.0274  0.0436
23686W        W66739  23.560   5.281  20.247 -0.2273 -0.3300 -0.2834
23687W        W66740  19.280  12.203   2.858 -0.2975 -0.1611 -0.2253
23688W        W66741  34.481  21.076  19.108  0.2474  0.2277  0.2353
23689W        W66742   0.921  19.152   0.412  0.2344 -0.2785  0.0590
23690W        W66743  14.736  32.900  13.592  0.0422 -0.4449 -0.2126
23691W        W66744  33.071   1.038  14.288  0.0494 -0.1777  0.2740
23692W        W66745  24.771  34.663   5.139 -0.0413 -0.2475 -0.0798
23693W        W66746  13.102  24.061   7.216  0.2854  0.2611  0.0872
23694W        W66747  27.259  23.638  21.110 -0.0881 -0.2326  0.1817
23695W        W66748  27.331   3.781  26.651 -0.1972 -0.0906  0.0697
23696W        W66749  22.023  29.116   9.866 -0.2218 -0.3560  0.1159
23697W        W66750  21.185  19.776   3.246  0.1758  0.2032 -0.1462
23698W        W66751  17.355   9.999  22.590 -0.2362 -0.1909 -0.0671
23699W        W66752  18.450  20.545   9.444 -0.0854  0.1389  0.0483
23700W        W66753  18.144   6.791   3.870  0.0842  0.3596  0.1481
23701W        W66754  22.014  14.501   4.963  0.0842 -0.0788 -0.0995
23702W        W66755  15.313  12.147  25.021 -0.0865 -0.0308  0.0258
23703W        W66756  13.714  17.836  21.469  0.2375  0.1836 -0.0107
23704W        W66757  18.657   0.041   2.978  0.0929 -0.0531 -0.1047
23705W        W66758  15.988   5.393   6.443 -0.1317  0.0661  0.0854
23706W        W66759   8.960   5.483  14.929  0.0493 -0.0506 -0.1569
23707W        W66760  28.042  13.011   6.976 -0.2073  0.0385  0.0369
23708W        W66761  17.674   4.400  23.119 -0.0737  0.2253 -0.0525
23709W        W66762  23.648  30.160   3.535 -0.2180 -0.0133  0.0909
23710W        W66763  31.068   6.639  23.622  0.0844  0.2123 -0.0143
23711W        W66764  30.284  22.268  24.884  0.1452 -0.2015 -0.0285
23712W        W66765  32.787  28.987  24.410 -0.0991 -0.2467 -0.0861
23713W        W66766  23.194  15.952  22.058  0.0907 -0.0213 -0.0386
23714W        W66767  26.941  33.108  19.728  0.0321 -0.1392 -0.0419
23715W        W66768  19.407   1.095  26.137 -0.0565  0.0466 -0.1706
23716W        W66769  20.355  15.725   8.491  0.1109  0.0374 -0.2844
23717W        W66770  19.906   8.983   1.377 -0.0550 -0.0260 -0.1382
23718W        W66771  21.795  21.457   8.962  0.1533  0.0998 -0.2695
23719W        W66772  26.986  19.789   4.800  0.0674 -0.1948  0.1623
23720W        W66773  16.990   4.939   6.490  0.1159  0.1608 -0.1472
23721W        W66774  20.894  16.305   5.883  0.1283 -0.0634  0.3159
23722W        W66775  32.870   8.863  28.144  0.1564  0.3286 -0.1742
23723W        W66776   6.141  14.683  28.449 -0.0778  0.2592  0.1351
23724W        W66777  23.980  13.922   6.462 -0.1332 -0.1223  0.2518
23725W        W66778  28.417   1.907  16.980 -0.2216 -0.0051  0.0094
23726W        W66779  24.906  16.126   6.845 -0.1399  0.0300 -0.0432
23727W        W66780   5.067  13.374   2.753 -0.0926  0.1890 -0.2603
23728W        W66781  21.482  20.370   9.618 -0.3337  0.0445  0.3556
23729W        W66782  16.947  30.887  21.364  0.4974  0.1661  0.0762
23730W        W66783  24.687  25.753   6.598 -0.1639 -0.1192 -0.0598
23731W        W66784   8.058   1.320   5.105 -0.1651  0.1341 -0.0219
23732W        W66785  15.087  18.698  27.855 -0.1255 -0.2111 -0.3743
23733W        W66786  25.964  34.630  15.248  0.0126 -0.3662 -0.4561
23734W        W66787   2.555  10.747  25.545  0.0449  0.1295  0.1001
23735W        W66788  21.028  16.136  23.544 -0.1220  0.0865 -0.0623
23736W        W66789  20.373  31.856  28.352 -0.1246 -0.0181 -0.0393
23737W        W66790  33.431  12.054  28.412  0.0376  0.0151 -0.1071
23738W        W66791  15.459  30.793   2.379  0.0127  0.0487  0.1593
23739W        W66792  20.340  31.227  29.175  0.3979 -0.0457 -0.0676
23740W        W66793  19.930   4.196  20.750 -0.4011  0.1470 -0.0921
23741W        W66794  26.982  31.089   7.755 -0.1681  0.0521  0.0582
23742W        W66795  10.412  13.123   7.049 -0.1520  0.0548  0.1830
23743W        W66796  34.488   7.129  28.211  0.0413 -0.0589 -0.1922
23744W        W66797  22.576  14.299   6.223  0.0635  0.0468  0.2807
23745W        W66798   8.645  27.015   4.621 -0.2353  0.1702 -0.1526
23746W        W66799  28.891  12.037  25.926 -0.0063 -0.2131 -0.1474
23747W        W66800  29.909   5.497  21.858  0.1236  0.1209 -0.2547
23748W        W66801   6.937   9.526   6.339  0.0295 -0.0990  0.0028
23749W        W66802  22.571  30.038   9.573  0.4712  0.4182  0.0569
23750W        W66803  18.065  16.076   7.115  0.1629 -0.2115 -0.1499
23751W        W66804  25.875  24.227  24.987  0.0389 -0.0796 -0.3198
23752W        W66805  30.647  11.511   1.218  0.1645  0.2575  0.1036
23753W        W66806  32.902  18.716   1.847  0.2586  0.0410 -0.0851
23754W        W66807  16.959  23.251  25.501  0.3872  0.0097 -0.2290
23755W        W66808   7.416  22.821  22.271 -0.0223 -0.2243 -0.0434
23756W        W66809  27.032  14.213   5.409  0.3188  0.0166  0.0325
23757W        W66810  21.407  18.038  23.777  0.3937 -0.3843  0.1380
23758W        W66811  24.953  18.929   8.753  0.1931  0.0392  0.1949
23759W        W66812  30.335  26.138  28.701  0.2787 -0.1587  0.0607
23760W        W66813  29.262  19.018   7.747  0.1241 -0.4819  0.0026
23761W        W66814  21.162  23.539   1.233 -0.0649  0.2094  0.1754
23762W        W66815  26.662  24.810   6.749  0.1744 -0.0377 -0.1648
23763W        W66816  12.649  12.838  28.207  0.1892  0.0252  0.1285
23764W        W66817   4.363  11.561   7.770  0.1418  0.0049 -0.4556
23765W        W66818  24.208   5.553   7.603  0.3346  0.0118  0.0846
23766W        W66819  21.859  15.127   2.395 -0.2626 -0.1059  0.0359
23767W        W66820  27.115   3.704   0.822  0.1005 -0.0005 -0.0090
23768W        W66821  34.368  17.219   4.078 -0.0185 -0.0184 -0.0143
23769W        W66822  18.007   5.485   1.798  0.3039 -0.2601  0.0912
23770W        W66823  13.879  27.813   4.420 -0.0260  0.0964  0.1822
23771W        W66824  22.562  12.861   9.237  0.0766 -0.3192  0.2501
23772W        W66825   5.704  11.595   7.631  0.0799  0.0849  0.2496
23773W        W66826  26.189  17.894   7.656  0.2035  0.0048 -0.0473
23774W        W66827  31.881  29.561   4.785  0.4672 -0.2363 -0.0499
23775W        W66828  20.331  19.347  27.345 -0.1381 -0.0190  0.2903
23776W        W66829  31.173   8.558   0.766 -0.0235  0.0570  0.1575
23777W        W66830  24.285  16.163  25.646  0.2881  0.0391  0.1176
23778W        W66831  32.389  15.981  17.305 -0.1515 -0.0477 -0.1159
23779W        W66832  22.797   9.443   4.994  0.0864  0.0663 -0.0305
23780W        W66833  32.819  18.536   8.003  0.2474 -0.0472  0.0884
23781W        W66834   4.261  13.758   9.674 -0.2263  0.1431  0.0713
23782W        W66835  21.499  20.500   7.304  0.0521  0.2063 -0.1260
23783W        W66836   4.744  16.281   8.016  0.3323 -0.1131  0.0572
23784W        W66837  26.755   2.730   1.934 -0.1649  0.0311  0.0606
23785W        W66838  23.266  27.019  29.113  0.1850 -0.2047 -0.3774
23786W        W66839  20.946  24.072   3.650  0.0832  0.1175  0.0921
23787W        W66840  23.695  27.860   5.264 -0.1725 -0.0552 -0.0338
23788W        W66841  20.297  12.942   3.289  0.0276 -0.1346  0.3313
23789W        W66842  25.714  27.724  20.952 -0.1617 -0.1292  0.0681
23790W        W66843  30.012  16.856   5.339  0.0212 -0.4107 -0.0879
23791W        W66844   5.513  17.986  26.917  0.2557 -0.2447  0.1911
23792W        W66845  22.602   0.523  24.119  0.2326 -0.0125 -0.0514
23793W        W66846  23.422  19.484   7.034 -0.2350 -0.0138 -0.1326
23794W        W66847  30.611  32.756   1.423 -0.1011 -0.0511  0.0446
23795W        W66848  25.091  28.007   7.112  0.3691 -0.0813 -0.3405
23796W        W66849  16.972  16.893   1.753 -0.0525 -0.0194  0.1401
23797W        W66850  34.219   8.046   9.486  0.2113 -0.0333 -0.1361
23798W        W66851  29.795   9.538  22.050  0.1045 -0.0297  0.1990
23799W        W66852  25.588   8.694  25.484  0.2267 -0.1925 -0.5901
23800W        W66853  21.726  27.269  27.494  0.0397 -0.1372 -0.0627
23801W        W66854   8.125  25.068   1.202  0.1983  0.0951 -0.1634
23802W        W66855  19.411  22.532  23.899 -0.2715 -0.0450  0.0764
23803W        W66856   1.762  33.897   9.041  0.0658 -0.0225 -0.1192
23804W        W66857  18.032  20.481   5.519 -0.0886 -0.2623 -0.1488
23805W        W66858  29.517  25.169  27.785  0.1650 -0.0352  0.3012
23806W        W66859  20.438  27.377   9.724 -0.1052  0.3170 -0.0140
23807W        W66860   5.009  17.217   2.582  0.2057  0.1266  0.4770
23808W        W66861  14.179  21.363   6.520  0.0537  0.4937 -0.2922
23809W        W66862  24.310   8.978  26.970 -0.3229 -0.1181 -0.0359
23810W        W66863  22.097  27.087   0.766  0.1736  0.2490  0.2109
23811W        W66864  18.467  20.021   2.297 -0.2094  0.1236 -0.0315
23812W        W66865  17.453  19.763  23.670 -0.3045 -0.0282 -0.1586
23813W        W66866  25.935  22.529  26.050  0.0274  0.1567 -0.1263
23814W        W66867  28.568  31.041   2.300  0.1194  0.1353 -0.2970
23815W        W66868  18.367   6.873  10.142 -0.0832 -0.0269  0.1274
23816W        W66869  20.299  25.161  26.510  0.2641 -0.3673 -0.0326
23817W        W66870  13.289  11.363   7.886 -0.2279 -0.2903  0.0050
23818W        W66871  28.010  15.194   9.054 -0.0024  0.0407  0.1561
23819W        W66872  16.816   7.763   2.662  0.1184  0.1142  0.0395
23820W        W66873  23.365   7.217  22.716 -0.0638  0.4028  0.1699
23821W        W66874  18.368  11.422  27.666  0.2348  0.0237 -0.0992
23822W        W66875  26.317  26.126   8.554 -0.2915  0.0198 -0.4731
23823W        W66876  16.422   7.810  14.268  0.2390  0.3042 -0.0819
23824W        W66877  33.794  19.930  25.467 -0.0123 -0.0432  0.0875
23825W        W66878  28.128   4.752  15.893  0.0856  0.1941  0.3004
23826W        W66879  27.354   3.782   7.013 -0.0506 -0.1665  0.1059
23827W        W66880  29.620   9.304  25.242 -0.4848 -0.1108 -0.0567
23828W        W66881  21.259  20.714   1.733 -0.0224 -0.1514  0.1333
23829W        W66882  15.075  32.603   7.553 -0.2857  0.1755  0.1907
23830W        W66883  14.169  11.370   4.297 -0.2063 -0.1899  0.2008
23831W        W66884  14.321  19.123   6.511  0.1103  0.2783 -0.0407
23832W        W66885  15.164  13.837   4.112  0.3883  0.1209  0.0620
23833W        W66886  26.276  24.770   4.622  0.0404  0.1212 -0.2044
23834W        W66887  18.890   5.877  26.300 -0.0225  0.1298  0.3293
23835W        W66888  27.715   6.510  19.784 -0.2934  0.0081  0.1586
23836W        W66889  28.746  14.560   6.262  0.1338 -0.3300 -0.1650
23837W        W66890  28.358  18.528  28.590  0.0742  0.1577  0.1198
23838W        W66891  26.151  19.208   3.803  0.1617  0.0802 -0.0741
23839W        W66892  21.790  30.188   4.577  0.4322  0.1738 -0.1692
23840W        W66893  13.624  18.679  26.996 -0.1769  0.1039 -0.1126
23841W        W66894  18.196  23.968   8.273 -0.0225 -0.3706  0.1251
23842W        W66895   0.237  15.386  15.513  0.0709 -0.0823  0.0324
23843W        W66896  32.929  15.705   8.530 -0.0240  0.3307  0.2303
23844W        W66897  23.007   9.590  24.876  0.0625 -0.1491  0.2058
23845W        W66898  25.605   0.815   4.189 -0.2196 -0.1211 -0.0032
23846W        W66899  29.296  10.892   2.278  0.0371  0.0332  0.1829
23847W        W66900   6.563   4.547   8.535 -0.0660 -0.0475  0.0597
23848W        W66901  27.739   6.448   9.300  0.1909 -0.3142  0.0298
23849W        W66902  27.023   9.777   9.660 -0.0545 -0.0559 -0.0383
23850W        W66903  28.058  34.429  21.060 -0.0039  0.1763  0.0843
23851W        W66904  19.717  29.974   6.459  0.2109 -0.1044 -0.0992
23852W        W66905   8.325  14.835   5.313  0.0360 -0.2088  0.1177
23853W        W66906  16.764  32.203  24.643  0.0335 -0.1950  0.1600
23854W        W66907  19.723  15.090   1.820 -0.1689  0.1272 -0.0443
23855W        W66908  31.135  11.906   9.683  0.0606 -0.0713  0.0709
23856W        W66909  12.438  20.294  27.874  0.1900  0.0705  0.1802
23857W        W66910  26.827  13.925   0.912  0.1460 -0.1383  0.2218
23858W        W66911  30.900   2.671   3.007  0.0121 -0.0719 -0.1265
23859W        W66912  21.302  19.759  24.246 -0.0088 -0.1391  0.1173
23860W        W66913  10.395  18.147   8.077 -0.2478 -0.1890  0.0660
23861W        W66914   3.470  10.555  24.847  0.2121  0.2570  0.1078
23862W        W66915  27.445   4.831  10.143  0.0344  0.2723  0.0691
23863W        W66916  21.749  24.875  19.526  0.0140 -0.0622  0.0891
23864W        W66917  23.651  20.154   4.768 -0.0993  0.0356  0.1247
23865W        W66918  26.624  10.084   6.559 -0.3428  0.0384 -0.1130
23866W        W66919  21.342   3.546  23.239  0.0780 -0.1386  0.3222
23867W        W66920  21.656  11.467   4.036  0.0208  0.1303 -0.3006
23868W        W66921  30.256  18.928   2.360  0.1040 -0.0883 -0.0659
23869W        W66922  17.439   3.243  26.394  0.0126  0.0477 -0.0144
23870W        W66923  29.562  20.986   8.147 -0.1902  0.0414 -0.2889
23871W        W66924  22.327  11.368  25.756 -0.2237  0.3312 -0.0662
23872W        W66925  22.526   5.852   3.065 -0.2145  0.0911 -0.1236
23873W        W66926  30.265  23.503  10.324 -0.0304  0.1896  0.0953
23874W        W66927  23.614  12.135   8.818 -0.0377  0.0776 -0.1144
23875W        W66928  27.827  25.911   0.406 -0.0381  0.1257  0.2439
23876W        W66929  13.652  19.086  26.614  0.0112 -0.1508  0.2874
23877W        W66930  28.643  17.688  26.358  0.2752 -0.1691 -0.1410
23878W        W66931  14.895   0.731   8.735  0.1330 -0.0525 -0.0948
23879W        W66932  30.075  21.778   4.209  0.3024 -0.1837  0.2057
23880W        W66933  11.221   9.843   3.383  0.2400  0.2203 -0.2647
23881W        W66934  25.439  12.129  17.186 -0.1210  0.1620  0.2168
23882W        W66935  21.916  23.294   7.051  0.1240 -0.4869 -0.3195
23883W        W66936  19.828  16.659   4.960  0.4021  0.0588  0.0505
23884W        W66937  25.970  17.477   8.581  0.1689  0.0656  0.1224
23885W        W66938  24.106  13.594   3.618  0.1516 -0.0373  0.3622
23886W        W66939  32.974  17.083   2.746  0.1304  0.0424  0.2109
23887W        W66940  14.600  15.882   9.397  0.0415 -0.2663  0.1429
23888W        W66941  19.608   6.417  23.925  0.1484  0.1043 -0.3291
23889W        W66942   1.284   9.329  29.165 -0.1350 -0.0326 -0.2214
23890W        W66943   5.941  12.724   3.186 -0.0596 -0.2331 -0.2013
23891W        W66944  22.701  24.729   9.908 -0.1366  0.1115 -0.4809
23892W        W66945  26.261  11.456  25.858  0.0266 -0.2386 -0.0105
23893W        W66946   8.675  31.039  26.604  0.0656 -0.0952 -0.0391
23894W        W66947  21.237  25.164   7.996 -0.0194 -0.0477 -0.1948
23895W        W66948  12.915  16.493   5.189  0.1276 -0.1115  0.3116
23896W        W66949  30.945  23.532  28.748  0.2810 -0.1550 -0.0905
23897W        W66950  21.883  17.434  17.674  0.1737 -0.1850 -0.1366
23898W        W66951  13.637  13.028  28.751  0.1102  0.3272 -0.1260
23899W        W66952  11.228  18.412   7.852 -0.2892  0.1738  0.0156
23900W        W66953  16.581  27.080   6.392 -0.1903  0.3608 -0.1240
23901W        W66954  17.419  26.638   2.656 -0.2000 -0.0280 -0.0460
23902W        W66955  11.901  27.021   4.118 -0.2043 -0.0854  0.0737
23903W        W66956  25.867  15.717   5.345 -0.1620 -0.0161 -0.1211
23904W        W66957  25.339   7.574  24.595 -0.1275  0.1362 -0.0541
23905W        W66958  17.558  21.546  10.016  0.0765  0.0042 -0.1499
23906W        W66959  21.522  12.038  26.740 -0.1328  0.1056 -0.0381
23907W        W66960  17.553   9.995   1.584 -0.1629 -0.2519  0.1945
23908W        W66961  17.580  13.210  28.865  0.0283  0.0713 -0.1054
23909W        W66962  16.878   9.183   1.209 -0.0215  0.0570  0.3417
23910W        W66963  28.504  10.775  26.515 -0.0837 -0.0200 -0.2041
23911W        W66964  10.374   5.393   4.756 -0.2095 -0.3042 -0.2248
23912W        W66965  13.433   6.729  21.182  0.0812  0.2596 -0.1760
23913W        W66966  29.407  17.242   8.938 -0.2798 -0.0488 -0.0003
23914W        W66967  22.912  18.442   9.365 -0.1111 -0.3204 -0.1377
23915W        W66968  11.734  24.254   5.853 -0.0057  0.2469 -0.0548
23916W        W66969  27.906  29.114  10.856 -0.2972 -0.1037  0.1063
23917W        W66970  24.385  10.679  21.288 -0.0336 -0.0828 -0.0284
23918W        W66971   3.429  10.332   9.734  0.0790  0.3808 -0.1465
23919W        W66972  22.907   0.452   0.360  0.4390 -0.1577 -0.0512
23920W        W66973  23.156  30.312   3.631  0.0308 -0.2877 -0.3944
23921W        W66974  15.660  12.353  14.941 -0.0208 -0.4924 -0.4857
23922W        W66975  14.151  22.428   9.084 -0.0354  0.1046  0.1163
23923W        W66976  14.290  11.618   6.811 -0.2180  0.1308 -0.0669
23924W        W66977  11.739  12.740  10.224  0.0720  0.2274  0.0371
23925W        W66978  16.522  34.161   2.271  0.0799 -0.1026  0.1852
23926W        W66979  19.977  18.880   8.202  0.3424  0.0550  0.0558
23927W        W66980   0.959   6.107   0.672  0.3330  0.1316  0.0704
23928W        W66981   8.623  26.734  27.152  0.0505  0.0120  0.2027
23929W        W66982   9.981  19.424   9.357  0.0811  0.1176 -0.0541
23930W        W66983  16.656   9.785   6.900 -0.1020 -0.0044 -0.2326
23931W        W66984  13.945  16.984   1.647  0.0317 -0.0232  0.1056
23932W        W66985  27.650   8.399   6.446 -0.1731 -0.0911  0.1503
23933W        W66986  23.925  25.774   9.994 -0.1680  0.1305 -0.0168
23934W        W66987  14.374  13.033   8.436 -0.1565  0.1734  0.3159
23935W        W66988  11.507   7.617  27.428 -0.3658 -0.1287  0.4416
23936W        W66989   5.614   8.325   7.085 -0.0998  0.1969 -0.0293
23937W        W66990  32.107  33.936  20.690 -0.0181  0.2024  0.1181
23938W        W66991   6.787  16.722   9.229 -0.3114  0.0616  0.1950
23939W        W66992  21.764  29.425   7.956 -0.1065  0.1289 -0.2476
23940W        W66993  11.944  31.742   7.038 -0.4351 -0.1988  0.0347
23941W        W66994  13.344  15.531   9.001  0.4835 -0.0274 -0.2725
23942W        W66995  22.228   4.020  16.720 -0.0675  0.0114  0.0699
23943W        W66996  24.454  32.641   4.217 -0.0153  0.2213 -0.0890
23944W        W66997   4.701  10.736   5.680 -0.3368 -0.0163 -0.0508
23945W        W66998  32.122  22.670   5.899  0.0205  0.0403 -0.2333
23946W        W66999  19.487  20.525   9.904  0.2644 -0.0894 -0.1432
23947W        W67000  17.523  22.096  10.215 -0.1141  0.1047 -0.4125
23948W        W67001  31.183  30.380   2.489  0.3325  0.0569 -0.1490
23949W        W67002  22.404  27.387  29.094 -0.1136  0.1312  0.1867
23950W        W67003  32.763  17.880   5.947  0.1157  0.0910  0.2440
23951W        W67004  18.891  14.026   1.910  0.0295  0.3316  0.0272
23952W        W67005  24.118  21.731  28.854 -0.2271 -0.2828  0.2563
23953W        W67006  14.762  10.997   3.045  0.0564 -0.5590 -0.2583
23954W        W67007  14.333  23.921  22.577  0.4591 -0.0166  0.2796
23955W        W67008  11.682  21.341   2.146 -0.0448  0.2337  0.0107
23956W        W67009  24.088   2.364   7.173  0.2906  0.0790  0.0126
23957W        W67010  18.831  18.580  21.957 -0.1304 -0.2625  0.3264
23958W        W67011  16.580  21.006   7.788 -0.3757 -0.0118  0.0030
23959W        W67012  10.062  28.297   1.638 -0.0186  0.0802 -0.1956
23960W        W67013  14.214  12.666   5.915 -0.0843 -0.2109  0.4869
23961W        W67014  21.290  26.726  23.682 -0.0355  0.0358  0.0059
23962W        W67015  23.184  16.957  14.613 -0.1485  0.0166 -0.1828
23963W        W67016  20.831  19.909   7.155 -0.1075 -0.0921 -0.1054
23964W        W67017  17.877  28.447   3.275  0.1996  0.0081  0.2811
23965W        W67018  21.422  20.292  26.820 -0.1462  0.0619  0.0456
23966W        W67019  10.912  23.068  22.021 -0.0630 -0.2605 -0.3005
23967W        W67020  17.911  27.464   4.209 -0.0504  0.1422 -0.0937
23968W        W67021  29.838  26.754   5.115  0.1263 -0.2218 -0.1069
23969W        W67022  27.753  17.005   5.906 -0.2153 -0.1862 -0.0477
23970W        W67023  29.337  20.310  24.150  0.1109  0.2640  0.1476
23971W        W67024  22.516  25.100   2.720  0.1296  0.1600 -0.0990
23972W        W67025  26.305  15.063   2.244  0.1245  0.1392  0.1636
23973W        W67026  27.052  24.439   9.220  0.0609  0.0803 -0.1570
23974W        W67027  17.614  28.861  26.116  0.3087  0.3001 -0.0229
23975W        W67028  11.104   7.972   9.765  0.1023  0.1915 -0.0289
23976W        W67029  31.544  32.179  28.531 -0.2154  0.1614  0.0109
23977W        W67030  17.942  25.469   0.627  0.0108 -0.0223 -0.3871
23978W        W67031  12.286  26.328   3.528 -0.0664  0.1091  0.1719
23979W        W67032  24.031  21.329   2.181 -0.4241 -0.2217  0.3590
23980W        W67033   1.826  18.566   2.816 -0.1680  0.4332 -0.0534
23981W        W67034  14.552  12.807   7.862  0.1698  0.0451 -0.3697
23982W        W67035  16.649  14.607   9.709  0.2232 -0.2968  0.0173
23983W        W67036  19.783  10.077  10.316  0.1913 -0.2012 -0.0059
23984W        W67037  27.585  29.623   9.366  0.3134 -0.1181  0.1353
23985W        W67038  19.865  21.974   8.225 -0.0157  0.1675 -0.1245
23986W        W67039  28.506  12.080  29.073  0.1489 -0.0200  0.3417
23987W        W67040  16.933  19.519   7.096 -0.1434 -0.3875  0.1588
23988W        W67041  12.804  16.409   6.585 -0.2233 -0.4513 -0.0624
23989W        W67042  21.056  27.507  24.553  0.3957 -0.1863  0.1260
23990W        W67043   9.096   4.782   3.398  0.0299 -0.1695  0.1912
23991W        W67044  13.999  12.008  16.877 -0.0566  0.0025 -0.0416
23992W        W67045  15.825  12.209   7.975 -0.0926  0.0907  0.1099
23993W        W67046  32.084  13.016   3.224  0.0458  0.2208  0.0043
23994W        W67047  19.416  31.439   9.496 -0.0687  0.2605 -0.3021
23995W        W67048  25.271  21.836   3.132  0.0666 -0.0650 -0.1356
23996W        W67049   0.780   7.344   4.193  0.0638  0.0963  0.0275
23997W        W67050  25.869   5.840   9.957  0.0838 -0.1493 -0.0902
23998W        W67051   5.724  28.606  18.141 -0.2750 -0.0123  0.1774
23999W        W67052  24.879  12.704  25.560  0.0878  0.2019  0.3250
24000W        W67053  25.181   4.979  16.506  0.1778 -0.0097  0.3428
24001W        W67054   4.084  22.970   9.504 -0.0722  0.0862  0.1515
24002W        W67055  23.501  20.707   3.553 -0.1604  0.1212  0.0894
24003W        W67056  21.979  22.832   7.338  0.5014 -0.0701  0.1521
24004W        W67057  15.184  24.336   4.488 -0.1469 -0.1565  0.2011
24005W        W67058   8.493  31.077   4.654  0.0565  0.2702  0.2799
24006W        W67059   2.602  24.705   6.532  0.0663 -0.0955 -0.2267
24007W        W67060  33.715   9.250  28.501 -0.1472 -0.0139 -0.0605
24008W        W67061  14.414  17.355  15.800  0.1161  0.0163  0.1798
24009W        W67062  23.099  27.090   2.208 -0.0958 -0.2857  0.3011
24010W        W67063  28.749   7.384   3.606  0.2006 -0.0824  0.0996
24011W        W67064  33.411   7.792  24.886 -0.4622 -0.3361 -0.1637
24012W        W67065  23.786  14.913  23.395 -0.2836 -0.1040  0.0366
24013W        W67066  13.250  19.606   2.319 -0.1838 -0.0166  0.2470
24014W        W67067  22.337  14.073   8.540 -0.0558  0.1581 -0.1758
24015W        W67068  34.095  22.659   2.941 -0.0715  0.0355 -0.0144
24016W        W67069  19.998  28.807  24.726 -0.2932 -0.3293  0.1949
24017W        W67070  29.781  25.956   8.185 -0.0061 -0.2088 -0.2956
24018W        W67071  21.158  11.530   8.711  0.0605 -0.1841  0.1238
24019W        W67072  21.530   4.009   5.421 -0.1208  0.1384 -0.0249
24020W        W67073  22.566  34.293   8.645  0.0585 -0.0913 -0.1405
24021W        W67074   2.526  13.617   3.056  0.1262  0.2369 -0.0254
24022W        W67075  22.978  34.353  20.180  0.1239 -0.1696 -0.0806
24023W        W67076  14.876  12.628   8.175  0.1902 -0.1088  0.2757
24024W        W67077  14.518  27.879  10.055  0.0577 -0.0025 -0.2959
24025W        W67078  23.544  20.201   1.326  0.1688  0.0301  0.1786
24026W        W67079  11.986   9.797   3.331 -0.1757 -0.0761 -0.1697
24027W        W67080  20.313   9.513  28.978  0.0367  0.2967 -0.1746
24028W        W67081  26.892  15.155  27.966 -0.1269  0.1776 -0.1843
24029W        W67082  19.150  12.978   7.727  0.0813  0.1752 -0.0348
24030W        W67083  17.334  28.582   6.139 -0.0182 -0.0416  0.1308
24031W        W67084  20.081  27.021   8.072  0.1952 -0.1959  0.0572
24032W        W67085   9.729  27.214  23.714  0.1848  0.0999 -0.3173
24033W        W67086  23.688  17.240   3.647 -0.1931 -0.1467  0.2461
24034W        W67087  19.353   8.346   4.253  0.0680  0.0950 -0.1820
24035W        W67088  13.205  21.602   4.447 -0.3720 -0.1720  0.2004
24036W        W67089  26.510  14.314   8.345 -0.2789 -0.0326 -0.0087
24037W        W67090  17.035  22.337  27.051 -0.3507  0.1569  0.1630
24038W        W67091  29.457  32.822  27.155 -0.2626  0.4564 -0.1110
24039W        W67092  32.001  24.826   4.608 -0.0413 -0.0082 -0.5569
24040W        W67093  31.404  11.781   1.204  0.1767 -0.0969 -0.2390
24041W        W67094  25.897  26.671  19.263  0.0424 -0.1314 -0.1198
24042W        W67095  20.546  14.536   4.627 -0.1454  0.2486  0.2466
24043W        W67096  14.596  15.441  21.877  0.1868 -0.3054  0.2637
24044W        W67097  30.499   9.860   9.789 -0.0573  0.0236 -0.1709
24045W        W67098  33.657  17.888   0.128 -0.3474  0.0553 -0.1679
24046W        W67099  12.120  29.389   5.688 -0.1582  0.2378  0.0320
24047W        W67100  20.510  20.301   3.647 -0.0626  0.1723  0.0135
24048W        W67101  27.247   2.411   5.396  0.0229 -0.1955 -0.0203
24049W        W67102  19.051  17.285   2.787 -0.1133 -0.1912 -0.2874
24050W        W67103  16.806  16.565   0.433 -0.0310 -0.2394  0.0624
24051W        W67104  21.480  18.624  27.530  0.0460 -0.3627 -0.0419
24052W        W67105  31.857  13.955  10.211 -0.1163  0.2102  0.1818
24053W        W67106  22.689  22.626   4.531  0.2207  0.0270  0.0109
24054W        W67107  29.006  18.143   3.155 -0.2278  0.2177  0.0838
24055W        W67108  18.724  16.360   7.531  0.1596 -0.1137  0.0338
24056W        W67109   1.534  33.516   7.388 -0.2490 -0.1367  0.2676
24057W        W67110   9.716  11.667  20.612 -0.1083  0.1024  0.0115
24058W        W67111  33.520  22.367   9.365  0.0968  0.0381 -0.1196
24059W        W67112  14.451  13.023   9.935 -0.2203 -0.2755  0.2953
24060W        W67113   2.492  21.191  27.890 -0.2525  0.0813  0.4433
24061W        W67114  14.042   9.599   4.699  0.0961 -0.0360  0.0785
24062W        W67115  31.517  31.743  27.648  0.1703 -0.1752 -0.0272
24063W        W67116  16.371  13.053   6.670 -0.1954 -0.5034 -0.3787
24064W        W67117   5.077   2.969   4.668  0.0114 -0.1754 -0.1513
24065W        W67118  27.897  10.840   3.829 -0.1436 -0.1527  0.1825
24066W        W67119  19.518  34.198   7.872  0.0853  0.2256 -0.1644
24067W        W67120  16.005  34.114   2.522 -0.0666 -0.3540  0.1952
24068W        W67121  32.427   5.507  28.948  0.1467  0.0990 -0.0787
24069W        W67122  30.508   0.907   5.252  0.0776 -0.3955 -0.0164
24070W        W67123  21.985   9.485   8.077 -0.4199  0.1868  0.0448
24071W        W67124  17.627  15.187  23.316 -0.2349  0.2528  0.0951
24072W        W67125  23.724  17.521   1.117 -0.0196  0.0481  0.2735
24073W        W67126  16.678   7.812   1.851  0.2026  0.0659 -0.1050
24074W        W67127  19.408   7.286   2.252  0.2532  0.0412  0.0744
24075W        W67128  19.419  26.919  20.219  0.1672  0.0212 -0.0479
24076W        W67129  11.853  11.125   1.701 -0.0751 -0.0940 -0.0566
24077W        W67130   6.551   8.309   1.093  0.0253 -0.0686 -0.1041
24078W        W67131  18.431   9.217  25.896  0.1926  0.1566 -0.2993
24079W        W67132  19.422  13.681   3.665  0.0755  0.0032 -0.0473
24080W        W67133  30.393  23.334   3.630 -0.0138 -0.1633 -0.0766
24081W        W67134   6.042  21.927   4.915 -0.0710 -0.0856 -0.0534
24082W        W67135  28.774  14.335   4.473 -0.0238  0.2378 -0.1128
24083W        W67136  23.130  24.571   1.695 -0.2783  0.2080 -0.2454
24084W        W67137  30.924  21.011   1.582 -0.0103  0.1290 -0.2650
24085W        W67138  24.462  12.891  22.991 -0.1374 -0.1275  0.0331
24086W        W67139  19.526  28.638   3.591 -0.0663  0.1573 -0.3649
24087W        W67140   2.859  22.759   2.483  0.1483 -0.0303  0.1101
24088W        W67141  25.453  20.830  24.011  0.3362 -0.0848  0.2499
24089W        W67142  25.368  12.865   1.368  0.1151  0.0729 -0.2361
24090W        W67143  24.808  31.431   1.884 -0.1772  0.0158 -0.0981
24091W        W67144  26.546  18.222   1.005  0.0496 -0.2504 -0.5250
24092W        W67145   2.621  21.126   2.717 -0.0132  0.2986 -0.3894
24093W        W67146  15.565   6.861   7.150  0.0913 -0.1455 -0.0278
24094W        W67147  28.254  21.266   0.591  0.0188  0.0033  0.3203
24095W        W67148   0.833  11.688   2.790 -0.1286 -0.0821 -0.1666
24096W        W67149  28.770  19.362   4.233  0.2201 -0.0417 -0.0248
24097W        W67150   8.685  19.774   3.156  0.0753  0.3131  0.0930
24098W        W67151  29.330  17.881   4.629 -0.2303  0.0471 -0.1019
24099W        W67152  25.595  24.464  28.361  0.1219  0.2149  0.0813
24100W        W67153  33.638  13.658   5.308  0.1426  0.0067  0.0125
24101W        W67154   5.919  21.943  19.953 -0.1396  0.0592  0.1318
24102W        W67155  12.147  15.244  25.265 -0.1694  0.0426 -0.0512
24103W        W67156  33.871  15.365  24.477 -0.0350 -0.1972 -0.1084
24104W        W67157  20.413  11.105   8.634 -0.2166  0.1181  0.4375
24105W        W67158  20.288  21.626   5.048 -0.1961  0.0475 -0.0658
24106W        W67159  17.997   9.315   7.481 -0.1861  0.1936  0.1282
24107W        W67160  26.188   3.760  25.651 -0.2765 -0.0991  0.0528
24108W        W67161  27.663  22.756  25.172  0.3283 -0.0479 -0.0908
24109W        W67162  33.041   0.407   6.350  0.1165 -0.3698 -0.0378
24110W        W67163   0.208  28.483   9.020 -0.3458 -0.1672  0.1518
24111W        W67164   1.332  27.667  16.577 -0.0735 -0.4358  0.3826
24112W        W67165  33.886  30.338  24.790 -0.1036  0.0573 -0.0018
24113W        W67166  17.012  13.048   9.278  0.4686  0.0839  0.0388
24114W        W67167  11.555  12.515   7.383 -0.2881  0.3321 -0.1694
24115W        W67168   0.432  14.241  27.675 -0.3224 -0.1253  0.0844
24116W        W67169  18.693  30.857  20.611 -0.0736 -0.0191  0.0473
24117W        W67170  19.476  14.042   2.428 -0.1516 -0.1191  0.0407
24118W        W67171  28.647  21.120   4.800  0.1899 -0.1050 -0.1861
24119W        W67172  28.297  33.134  16.206 -0.3701 -0.2190  0.2388
24120W        W67173  31.167  21.751  25.076  0.0923  0.1073  0.0651
24121W        W67174  25.892  15.803  22.366  0.1645 -0.2446 -0.0011
24122W        W67175  17.537  19.664   1.712  0.0639 -0.3803  0.0025
24123W        W67176  24.343  11.041   5.863  0.4041  0.0414  0.0180
24124W        W67177  24.160   1.611   1.663  0.0699 -0.2980 -0.3003
24125W        W67178  15.810  20.054   6.819 -0.0365 -0.1883 -0.0918
24126W        W67179  30.169  16.624  27.908  0.0273 -0.1968  0.1624
24127W        W67180  34.350  18.102   7.681 -0.0637 -0.1832 -0.0327
24128W        W67181  15.106  21.130   6.461 -0.1027  0.3370 -0.0982
24129W        W67182  21.557  20.278   3.941 -0.0441 -0.2263  0.0091
24130W        W67183  18.560   4.494   4.145  0.0451  0.1540  0.0365
24131W        W67184  17.135   5.510   3.161  0.0866  0.1281 -0.2040
24132W        W67185  22.533  33.305  10.497 -0.1671 -0.2228  0.1053
24133W        W67186   3.747  21.080   8.753 -0.1204  0.2265 -0.1301
24134W        W67187  30.973   2.289  16.637 -0.0889  0.2369 -0.0521
24135W        W67188  21.424  17.905   8.468 -0.0474  0.1510  0.2142
24136W        W67189  21.456  11.599   4.856  0.1823  0.2026  0.0918
24137W        W67190  34.067  26.373   8.437  0.2486  0.0571 -0.2412
24138W        W67191  16.457   5.112   5.581  0.0518 -0.2808 -0.3326
24139W        W67192  24.293  23.148   7.781  0.0292 -0.2261 -0.2647
24140W        W67193  32.425   8.980   3.664  0.0044  0.2195 -0.2143
24141W        W67194  24.051  10.246   4.911  0.0152  0.3096 -0.2124
24142W        W67195  26.478  13.478   7.430 -0.1592 -0.0255  0.1403
24143W        W67196  17.556  31.505   4.194  0.0280  0.3542 -0.1782
24144W        W67197  27.761  23.579   4.165  0.0080  0.0529 -0.1859
24145W        W67198  29.420   5.117   5.667  0.0835 -0.1601 -0.2388
24146W        W67199   1.180  11.601   1.789 -0.4954 -0.1074  0.1371
24147W        W67200  27.761   9.110   1.790 -0.1340  0.0751  0.0282
24148W        W67201  15.840  23.506   7.704 -0.0887  0.1431  0.0659
24149W        W67202  26.795  15.047   8.871  0.0603 -0.2316 -0.0375
24150W        W67203  29.183  13.497   4.275  0.2125 -0.1936 -0.1926
24151W        W67204   8.889  13.391   5.263 -0.1763  0.0563 -0.1304
24152W        W67205  34.414  13.907   7.004 -0.2591 -0.2446  0.0584
24153W        W67206  27.247   0.456   0.907 -0.0057 -0.0029 -0.3122
24154W        W67207   3.066  27.095   3.365  0.2491 -0.2221 -0.0846
24155W        W67208  24.925  13.120   7.930 -0.3292 -0.0682 -0.0384
24156W        W67209  29.377  20.392   7.482  0.0822  0.1638 -0.0280
24157W        W67210  23.909  31.309  20.110 -0.1149 -0.0967 -0.1768
24158W        W67211  10.036  31.154   5.442  0.1992  0.1124  0.1939
24159W        W67212  31.396  24.071  19.828  0.0764  0.0570 -0.1424
24160W        W67213   3.111  16.094   6.036 -0.0339  0.0367  0.0879
24161W        W67214  24.831  32.288   8.324 -0.0509 -0.0726  0.2009
24162W        W67215  22.667  21.538  23.068 -0.1424  0.1948 -0.1519
24163W        W67216  19.834  16.224   8.680  0.1699  0.0331 -0.1132
24164W        W67217   9.570  18.353  29.135 -0.0994  0.0967  0.1050
24165W        W67218  12.443  17.434  26.663  0.0630 -0.2041 -0.0145
24166W        W67219  16.060   4.395   8.483 -0.2066  0.1037  0.4667
24167W        W67220  30.883  13.602  27.692  0.3347 -0.1423 -0.1808
24168W        W67221  25.368  25.847   3.791 -0.2393 -0.1499  0.0518
24169W        W67222  33.269   5.221  25.655  0.0432 -0.0787  0.1532
24170W        W67223  16.245  17.735   5.912  0.0776 -0.0979  0.0110
24171W        W67224  27.733  20.553   3.858  0.1803 -0.0716  0.1144
24172W        W67225  18.552  15.894   7.217  0.0833 -0.0838 -0.1406
24173W        W67226   3.703   4.849   6.266  0.1265  0.1181  0.1124
24174W        W67227  15.016  16.984  14.131 -0.0063 -0.0350 -0.1558
24175W        W67228  29.905  18.910  26.150  0.2753  0.1357  0.0829
24176W        W67229  25.591  31.290   1.528 -0.0232 -0.2387 -0.0850
24177W        W67230   6.249  12.621   5.763 -0.0234  0.0622 -0.2304
24178W        W67231  27.599  10.229   8.376  0.2495 -0.1135 -0.2460
24179W        W67232  21.553   9.919   9.760 -0.2589  0.0404 -0.2503
24180W        W67233  25.436  17.776  24.081 -0.1108  0.0343  0.5974
24181W        W67234  27.766  10.231  18.733  0.3021  0.0712  0.0043
24182W        W67235  14.002  17.762   8.598 -0.0988  0.1853 -0.1081
24183W        W67236   5.361  16.784   9.605  0.2901  0.4783  0.1069
24184W        W67237  20.073  28.085   6.615 -0.1327  0.1864  0.0224
24185W        W67238  22.497  15.695  18.531 -0.0412 -0.0826  0.0043
24186W        W67239  24.519  14.372   7.462 -0.0701 -0.0499  0.3438
24187W        W67240  33.887  21.795   6.762 -0.1176 -0.0775 -0.1458
24188W        W67241  25.497  15.715   9.270  0.2454 -0.0628  0.2408
24189W        W67242  30.832  33.126   2.302  0.0025  0.2176  0.1909
24190W        W67243  18.457   6.042   9.808  0.0711 -0.0529 -0.0304
24191W        W67244  21.412  28.900   5.724  0.1574 -0.1474 -0.3511
24192W        W67245  21.992  28.773   2.973 -0.4545  0.0205  0.0187
24193W        W67246  33.477  12.670  25.951 -0.0309  0.1735  0.0788
24194W        W67247  32.074  23.462   2.937  0.0601 -0.3039  0.0505
24195W        W67248  15.541  17.379   5.601 -0.3710  0.1275 -0.2588
24196W        W67249   4.410  19.715   2.594  0.0524  0.1938  0.1530
24197W        W67250   8.665  20.786   6.814 -0.0967  0.2641  0.0226
24198W        W67251   3.361  22.713  10.350 -0.2709 -0.0576  0.0114
24199W        W67252  29.297   5.539   6.377  0.2868  0.0263 -0.1133
24200W        W67253   3.413  14.779   8.352 -0.1536  0.3361 -0.0424
24201W        W67254   9.668  34.038   5.633  0.0465  0.2945 -0.0417
24202W        W67255   3.194  20.285  27.175 -0.1563  0.1100 -0.1154
24203W        W67256   0.147  18.320   6.882  0.0186  0.0579  0.2441
24204W        W67257  18.829  18.825   6.256 -0.1017 -0.0465 -0.0384
24205W        W67258   1.881   9.079   3.139  0.0359  0.2181  0.0684
24206W        W67259  18.929   1.128   1.858  0.0932 -0.2478 -0.1922
24207W        W67260  15.873   4.974   8.728  0.0339 -0.1754 -0.3390
24208W        W67261  31.979   7.286   0.457  0.4816 -0.1367 -0.1791
24209W        W67262  28.360  29.847  28.594  0.2746  0.0948  0.2765
24210W        W67263  22.466  21.314  17.678  0.2389 -0.0755  0.1092
24211W        W67264   1.882  11.928  24.364 -0.3124  0.0770  0.1552
24212W        W67265  29.303  29.994   6.956 -0.0058  0.1678  0.3511
24213W        W67266  21.225  19.714   6.031  0.1517 -0.3023 -0.1892
24214W        W67267  17.812  15.167   6.846 -0.2950 -0.0849 -0.1074
24215W        W67268  28.053  30.680   9.963 -0.3070  0.0872  0.0733
24216W        W67269  25.231  14.133  28.342 -0.1303 -0.3416 -0.2362
24217W        W67270  18.541  23.014   6.861 -0.1154 -0.1783 -0.0223
24218W        W67271  28.241  33.654   6.054  0.1729  0.1890 -0.2378
24219W        W67272  26.546  30.461  21.316  0.1226 -0.3012  0.0224
24220W        W67273  30.282   9.449   9.975  0.1807  0.5100 -0.2493
24221W        W67274  23.159  16.915   7.921  0.0429 -0.0848  0.2222
24222W        W67275  19.487  19.916   6.130  0.1054 -0.0294 -0.0559
24223W        W67276  26.443  18.715   3.097  0.1527 -0.0811  0.0908
24224W        W67277  26.360   4.716   4.676  0.0582  0.3702 -0.2457
24225W        W67278  18.614  12.884   2.725  0.1507  0.3308 -0.1913
24226W        W67279   4.459  25.711  28.913 -0.1735 -0.0710  0.0956
24227W        W67280   4.777  13.243   8.358 -0.0244 -0.1090  0.3398
24228W        W67281  29.564  18.312   8.166 -0.4131 -0.2516  0.0284
24229W        W67282   9.011  18.695   8.364  0.0118 -0.3804 -0.1897
24230W        W67283  18.006  27.357  28.604  0.0215  0.5371 -0.0030
24231W        W67284  33.281   5.298  29.139 -0.1251  0.1439  0.2062
24232W        W67285  16.505  16.971   3.641  0.1251  0.0993  0.3752
24233W        W67286  18.095  12.268   2.229  0.1802  0.1475 -0.0526
24234W        W67287  15.224   1.806  26.379 -0.1758  0.1850 -0.3019
24235W        W67288  12.684  22.038   4.944  0.0367 -0.4123  0.0827
24236W        W67289  21.839  26.100   4.722 -0.1905 -0.2435  0.0310
24237W        W67290  26.463  21.690   2.819 -0.0240  0.0664  0.0347
24238W        W67291  32.530  11.788   4.178  0.1507 -0.2296 -0.0696
24239W        W67292  27.419  18.343   9.805  0.1315  0.1656  0.0337
24240W        W67293  23.505  33.028   0.525  0.0829  0.0289  0.2792
24241W        W67294  30.667  20.229   1.998 -0.0267  0.0077  0.0775
24242W        W67295  15.864  31.226   2.942  0.4598 -0.1298  0.1449
24243W        W67296  24.877  10.116   6.074 -0.3769  0.1058  0.1672
24244W        W67297  24.849  12.032   6.135  0.0360  0.0284 -0.0149
24245W        W67298  18.391   7.118   6.557 -0.2136  0.0399 -0.1704
24246W        W67299  22.288  28.917   0.764 -0.1248 -0.3444 -0.1357
24247W        W67300  21.577  25.683   0.101  0.3893 -0.0244  0.0357
24248W        W67301   6.799   0.137   0.508 -0.2879  0.1338  0.0073
24249W        W67302  22.179  21.187  26.330 -0.3760  0.1608  0.2559
24250W        W67303  11.366  14.273   9.057  0.2976 -0.1308 -0.0490
24251W        W67304  17.579  22.537   5.291 -0.1444  0.1232 -0.1842
24252W        W67305  22.165  21.560  24.726 -0.1583 -0.5060 -0.3843
24253W        W67306  11.098  14.477   2.813  0.0382  0.1530  0.0239
24254W        W67307  28.431   2.394  18.676 -0.0784  0.1448 -0.1917
24255W        W67308   0.593  14.225  26.873  0.0086  0.3466 -0.0894
24256W        W67309   1.984  13.024   5.190 -0.1115  0.0577 -0.0194
24257W        W67310  22.406  17.752  17.325 -0.0465  0.2129 -0.1114
24258W        W67311  19.616   9.055   5.830 -0.0716 -0.1761 -0.2202
24259W        W67312  11.156  20.234   6.805 -0.2275  0.3125 -0.2819
24260W        W67313  25.545  14.222   7.627 -0.0423  0.1934 -0.0800
24261W        W67314  22.574  14.136  27.739 -0.0276  0.2401 -0.1043
24262W        W67315  25.351  28.133   1.819 -0.1892  0.0637  0.0651
24263W        W67316  18.476  13.438  22.391 -0.3410  0.3138  0.3112
24264W        W67317  20.657   3.998   1.388  0.0498  0.0744  0.2652
24265W        W67318  15.175  18.406  26.838  0.1634  0.0522 -0.1661
24266W        W67319  22.853   0.856  24.400 -0.1056 -0.2341 -0.2030
24267W        W67320  24.320  14.963  25.127 -0.2092  0.1558 -0.1751
24268W        W67321  21.538   8.583   2.828 -0.2711  0.0426  0.0619
24269W        W67322  19.904  21.831  27.987 -0.0245  0.1898  0.4499
24270W        W67323  28.797  18.196   9.719 -0.0764  0.0539 -0.1178
24271W        W67324  28.833  17.041  22.136 -0.0451  0.3879  0.1509
24272W        W67325  14.384   5.516   9.878  0.3087 -0.2248  0.0400
24273W        W67326   7.688  17.601   9.395 -0.1225 -0.3034 -0.4336
24274W        W67327   7.015  20.224   4.254  0.0819  0.1527  0.0397
24275W        W67328   9.676  22.220  29.061  0.1473  0.1991 -0.1324
24276W        W67329   8.416  19.794   2.651 -0.0421 -0.2169 -0.3906
24277W        W67330  22.817  17.075   3.008 -0.1056 -0.4895 -0.4516
24278W        W67331  20.004  14.572  29.156  0.1507 -0.0557 -0.0930
24279W        W67332  34.185  17.122  17.995 -0.0332  0.0827  0.0980
24280W        W67333  32.841  28.112   8.370 -0.1460 -0.0500 -0.3271
24281W        W67334  21.490  14.084   4.408 -0.0215  0.3318  0.2244
24282W        W67335  14.809  14.264   6.713 -0.1159  0.0283  0.3295
24283W        W67336  27.084  20.440   9.781  0.0743  0.2036 -0.0073
24284W        W67337  34.551  17.593   2.940 -0.2683  0.2548  0.2748
24285W        W67338  13.541   5.624   8.726  0.0125 -0.1113  0.3344
24286W        W67339  21.594  10.595  17.580  0.0347  0.2252 -0.3599
24287W        W67340  11.188  13.030   8.791 -0.0340 -0.1507  0.0691
24288W        W67341   4.543  11.262  26.454 -0.0502  0.1571  0.0127
24289W        W67342  19.741  21.087   7.363 -0.1898 -0.1992 -0.0720
24290W        W67343   3.561  13.457  25.063  0.1547 -0.5047  0.1295
24291W        W67344   7.453   8.312   7.775  0.0901 -0.1338  0.0832
24292W        W67345  19.703   8.879  26.192 -0.2547 -0.3819  0.0247
24293W        W67346  11.158   3.786   6.954 -0.2526 -0.0698 -0.2230
24294W        W67347   8.513  30.431  27.196  0.2955  0.0355  0.0055
24295W        W67348  24.402   7.694   7.648 -0.0783  0.0667  0.0028
24296W        W67349  17.216  17.823   7.088  0.1099 -0.2387  0.4108
24297W        W67350  25.194  14.289   4.643 -0.1044 -0.0203 -0.0410
24298W        W67351  13.653  21.873   4.373 -0.1229  0.3049  0.0491
24299W        W67352  32.867  13.394  25.015  0.1843 -0.2068 -0.0796
24300W        W67353  11.025  16.817   2.847  0.3759 -0.1325 -0.3322
24301W        W67354  20.108  12.601  26.880  0.0767  0.0752 -0.1794
24302W        W67355  24.079  22.456  22.125 -0.2461 -0.1981 -0.0000
24303W        W67356  20.115  16.758   4.086  0.2997 -0.2106  0.1055
24304W        W67357   8.879  22.352   8.712  0.2534  0.1641  0.1366
24305W        W67358  18.116  27.395  10.076 -0.4514  0.0088 -0.2305
24306W        W67359   0.652   9.364   5.754 -0.3963  0.0347 -0.1100
24307W        W67360  21.429  11.239  25.642  0.0454 -0.3718 -0.1992
24308W        W67361  34.044   9.455   5.467  0.0490 -0.0556 -0.0935
24309W        W67362  18.185  16.359   6.668 -0.0162 -0.1446  0.0837
24310W        W67363  17.349  16.694   6.914 -0.0421 -0.0201  0.1206
24311W        W67364  18.976  24.287  24.795  0.1097  0.4741 -0.0763
24312W        W67365  15.064   3.077   3.275  0.2997 -0.0701 -0.3358
24313W        W67366  26.135  20.505   2.199  0.1705  0.1667 -0.1339
24314W        W67367  28.029  34.164  20.573 -0.2993 -0.2381 -0.0535
24315W        W67368   6.994   0.880  27.948 -0.1251 -0.1049 -0.1404
24316W        W67369   6.807  17.235   8.357 -0.1385  0.0789  0.2674
24317W        W67370  25.153  15.600   9.643  0.0073 -0.1611 -0.1850
24318W        W67371   2.768   1.219   0.859 -0.0125 -0.1121  0.0410
24319W        W67372  16.911  15.200   2.536 -0.0143  0.3509  0.0369
24320W        W67373  18.417  15.910   3.214 -0.3653 -0.0809 -0.0122
24321W        W67374  15.971  11.865   8.409 -0.0608 -0.2453 -0.0243
24322W        W67375  31.372  12.944   0.252 -0.0474 -0.4568 -0.1430
24323W        W67376   6.324  20.408  28.952  0.0386  0.3245 -0.0011
24324W        W67377  20.061   6.136   1.463 -0.0663 -0.1012 -0.3490
24325W        W67378   0.854  29.179  24.877  0.2387 -0.0452 -0.1392
24326W        W67379  22.801  22.900   7.913  0.0094 -0.1169 -0.0095
24327W        W67380  24.184   8.473   1.422  0.0797  0.1223  0.1345
24328W        W67381  15.266  11.613   2.719  0.2355  0.1166  0.0501
24329W        W67382  27.339   7.669   3.491  0.1336 -0.0109  0.2040
24330W        W67383  16.449  21.701   3.842  0.1041  0.0142  0.0910
24331W        W67384  19.811  18.535  27.717 -0.0857  0.2042 -0.4818
24332W        W67385  26.880  19.679   7.414 -0.2501  0.0980  0.2012
24333W        W67386  23.244  34.593   9.266  0.0782  0.1042 -0.1015
24334W        W67387  12.081  17.190   9.280  0.4870  0.0142 -0.2221
24335W        W67388  27.422  18.457  19.096  0.0962  0.1371  0.0944
24336W        W67389  22.574   2.382   6.933 -0.0953 -0.2109 -0.1275
24337W        W67390  18.283  14.968  26.429 -0.0315 -0.0021 -0.1344
24338W        W67391  28.565   6.331   8.284 -0.2078 -0.0891  0.1305
24339W        W67392  10.573  10.922   9.373  0.1388  0.2750  0.0919
24340W        W67393   4.190   4.406   1.767 -0.2792 -0.3344  0.1629
24341W        W67394   1.619  15.412   8.259  0.1238  0.2675  0.2356
24342W        W67395  28.200  22.439  26.073  0.0828  0.3026 -0.1180
24343W        W67396   9.111  25.919   0.503  0.1358  0.0531 -0.0703
24344W        W67397  19.863  10.761   8.593 -0.0015 -0.1465 -0.3286
24345W        W67398  23.974  17.920   7.532  0.0599 -0.0688  0.0249
24346W        W67399  19.984  12.715   6.186 -0.0633  0.2720  0.2496
24347W        W67400  16.502   5.733  20.989 -0.0686 -0.2545 -0.3156
24348W        W67401  17.640  11.259   3.570  0.1220 -0.0622  0.2506
24349W        W67402  12.765  12.888  29.016 -0.0495 -0.1424  0.2785
24350W        W67403  23.830  18.243   8.032 -0.0350 -0.1575  0.1059
24351W        W67404  11.576  22.883   5.696 -0.1770  0.1169  0.1243
24352W        W67405  27.254  26.210   9.112 -0.2247 -0.0687  0.2153
24353W        W67406  31.434  22.435   1.808 -0.0664  0.1628  0.0867
24354W        W67407  29.957  26.620   6.964 -0.0924 -0.3174  0.1384
24355W        W67408  24.328  31.810  18.793  0.1099  0.3277 -0.1673
24356W        W67409  27.238  23.541   7.307  0.0193  0.1584 -0.0479
24357W        W67410  21.253  14.765   9.442  0.0918  0.0059 -0.0352
24358W        W67411  34.389  30.219   0.701  0.1908  0.1078  0.1392
24359W        W67412  25.066  17.719  26.108 -0.1325 -0.1525  0.2494
24360W        W67413  23.538  12.585   8.156  0.0065 -0.1687 -0.2831
24361W        W67414  18.516   8.986   5.160  0.1446  0.0827  0.2546
24362W        W67415  22.527  20.299   6.646  0.0536 -0.1444 -0.0461
24363W        W67416  28.265   0.822  15.685  0.0335  0.0311  0.1474
24364W        W67417  21.164  12.352  25.295  0.0420  0.0801 -0.1014
24365W        W67418  17.391  17.684   8.744 -0.2057  0.1548 -0.0036
24366W        W67419  15.449  18.375   6.217  0.2103  0.0144  0.0479
24367W        W67420  32.910  14.362  22.014  0.0743  0.1222  0.0023
24368W        W67421  21.590  15.064   8.658 -0.0313  0.1309 -0.2497
24369W        W67422  21.295  16.348   9.182  0.0762 -0.1763 -0.2129
24370W        W67423  30.991  18.273   7.925 -0.0800  0.0647  0.0017
24371W        W67424  26.136  29.754  28.829  0.1311  0.0439 -0.0003
24372W        W67425  26.894   9.718  15.068  0.1995 -0.1468 -0.1482
24373W        W67426  27.787  22.159   8.165  0.1025  0.0617  0.1709
24374W        W67427  30.193  20.442   1.043 -0.0227  0.1050  0.2577
24375W        W67428   2.113  17.151   9.440 -0.0753 -0.1835  0.0280
24376W        W67429  28.228  23.858  26.838 -0.3204 -0.0062  0.0578
24377W        W67430   6.975  15.557  21.733 -0.1020  0.1210  0.1492
24378W        W67431  27.902  13.095   8.414  0.0976 -0.2415 -0.1371
24379W        W67432  13.478  15.982  25.426  0.0042 -0.2439  0.0184
24380W        W67433  22.934  12.008  28.341  0.0465  0.2147  0.1105
24381W        W67434   9.111  20.407   8.962  0.1095  0.1320  0.1279
24382W        W67435  27.263  30.867   9.333 -0.0059 -0.2224  0.0457
24383W        W67436  14.155   9.666  27.735 -0.2790  0.0346  0.0185
24384W        W67437  29.305  19.708  28.138 -0.1368  0.0335 -0.1103
24385W        W67438  14.270  14.439  10.227  0.4393  0.3354  0.0774
24386W        W67439   4.132  20.529  26.851 -0.0365 -0.1326 -0.0667
24387W        W67440  25.585  15.238   2.487  0.3212  0.1237 -0.0108
24388W        W67441  20.668  30.085  27.570  0.0239 -0.0458  0.0657
24389W        W67442  11.179  10.103   4.205  0.2551  0.1772 -0.1498
24390W        W67443  25.617  21.851   6.640  0.1895  0.3851  0.0749
24391W        W67444  26.503  22.297   2.856  0.1721  0.1761 -0.0061
24392W        W67445  25.976  30.948   5.038 -0.1531 -0.0815 -0.0551
24393W        W67446  13.279  31.735   3.184 -0.0351 -0.2114  0.2799
24394W        W67447  19.127   9.842  24.941 -0.1185  0.0980  0.1478
24395W        W67448  20.254   2.677  21.437  0.0636 -0.1227 -0.2325
24396W        W67449  33.891   8.985  27.133  0.3687 -0.3394 -0.0779
24397W        W67450   1.397  13.204   8.983  0.1750 -0.1088  0.2301
24398W        W67451   9.344   6.588   2.991 -0.0443 -0.1106  0.0773
24399W        W67452   4.045  18.756   0.844  0.1665 -0.1240 -0.0971
24400W        W67453   0.958  13.620   9.593  0.1796  0.2119  0.2663
24401W        W67454  22.738  20.000  26.726 -0.0616 -0.2038 -0.1513
24402W        W67455  33.647  28.343   5.069 -0.0655 -0.0590  0.0300
24403W        W67456  12.140  17.094  10.172  0.1286  0.0676 -0.0918
24404W        W67457  25.359  17.337  28.192 -0.0316 -0.3078  0.0001
24405W        W67458   8.326  15.338  16.244  0.1435 -0.0551 -0.2051
24406W        W67459  24.993  24.575  29.096  0.1958  0.1055  0.0957
24407W        W67460  15.078  15.394   3.870  0.0673 -0.3552 -0.0018
24408W        W67461  31.059  13.173   9.655 -0.0378 -0.0108  0.4326
24409W        W67462  20.897  21.065  26.753 -0.5217  0.3635 -0.0819
24410W        W67463  19.471  22.086  27.890  0.0168  0.0315  0.1083
24411W        W67464  18.625   5.479  21.381  0.2218 -0.0044 -0.1904
24412W        W67465  27.958   5.577   9.769  0.0050  0.1732 -0.1005
24413W        W67466  34.267  21.780   3.114 -0.0909  0.3330  0.2564
24414W        W67467  34.145  21.739   0.564 -0.1833  0.2635  0.1976
24415W        W67468  30.468  12.586   3.447 -0.1029 -0.1533  0.3175
24416W        W67469  28.440  14.487  14.331  0.0838  0.0806  0.0258
24417W        W67470   3.753  27.034   2.497  0.0623 -0.0525  0.0355
24418W        W67471  18.612  24.976  11.097  0.0193 -0.1802 -0.0085
24419W        W67472  18.097   3.481   9.116  0.0850  0.1304  0.3089
24420W        W67473  14.993   0.678   4.332 -0.2994  0.0074 -0.0153
24421W        W67474  12.829  15.683   1.300 -0.2518  0.1262 -0.0871
24422W        W67475   1.098  18.230   5.429  0.3076 -0.1088  0.0432
24423W        W67476  30.239  12.138   3.526  0.1719  0.0217 -0.1775
24424W        W67477  13.131  27.805   2.561  0.0041  0.1177  0.2215
24425W        W67478  28.709  32.237   3.086  0.1207  0.0548 -0.2318
24426W        W67479  33.135  13.055   9.343  0.2274 -0.3360  0.0580
24427W        W67480  28.264  30.556   7.158 -0.1007  0.0861  0.0186
24428W        W67481  15.185  20.670   4.064  0.2599 -0.0187  0.1123
24429W        W67482  18.185  18.409   4.520 -0.0609  0.2245 -0.1094
24430W        W67483  22.228  20.688   4.736  0.0205 -0.0742  0.1846
24431W        W67484  16.967  34.098   5.606 -0.2302  0.2449 -0.1036
24432W        W67485  17.855  13.993  26.754  0.2410  0.3666  0.5093
24433W        W67486  26.711  16.851   3.532  0.0896 -0.1393 -0.0118
24434W        W67487   1.627   8.455   2.689  0.3534  0.1122 -0.0839
24435W        W67488  18.795  24.902   9.685 -0.0906 -0.1114 -0.0360
24436W        W67489  26.248  14.328   3.512  0.1495 -0.2271  0.0474
24437W        W67490  30.974   5.115   2.207 -0.2438 -0.0551 -0.1620
24438W        W67491  16.962  14.436   4.775  0.1355  0.2507  0.1313
24439W        W67492  23.654  14.288   2.912 -0.0871 -0.3381 -0.2032
24440W        W67493   6.222   4.923  19.630 -0.0278 -0.0658  0.0650
24441W        W67494  21.030  24.707  26.090 -0.1739  0.1091  0.0036
24442W        W67495  14.347  18.749   9.461 -0.1176 -0.0922 -0.2119
24443W        W67496  25.863  13.673   8.584  0.1162  0.3549 -0.1672
24444W        W67497  31.660   4.928   0.649  0.2295 -0.2852 -0.1287
24445W        W67498  18.041  11.150  10.832  0.3477 -0.1795  0.1112
24446W        W67499   4.635  25.434  23.819  0.0284 -0.0754  0.1350
24447W        W67500  17.856  11.658   3.951  0.0850  0.1065  0.1981
24448W        W67501  32.003  17.379   2.832 -0.0066  0.2400 -0.0057
24449W        W67502  22.993  21.252   1.909  0.0913  0.1492  0.0457
24450W        W67503  23.237  11.312   9.642 -0.1204  0.2037  0.0654
24451W        W67504  12.540  20.627  26.695  0.0920  0.1447 -0.0456
24452W        W67505  23.011  18.995   4.488 -0.0467 -0.0402 -0.0927
24453W        W67506  25.708   5.981  20.350  0.3180  0.2283 -0.0613
24454W        W67507  34.523  11.107   8.362  0.0827 -0.2834 -0.1623
24455W        W67508  20.522  24.917   2.679  0.0106 -0.1513  0.0840
24456W        W67509  25.374  16.817   6.788 -0.2732  0.2333 -0.2344
24457W        W67510  21.991  20.615   5.538 -0.1330  0.2744 -0.1672
24458W        W67511  31.491  17.784   9.636 -0.1824 -0.1601 -0.2234
24459W        W67512  33.328  29.471   7.566  0.0994  0.2086 -0.1159
24460W        W67513  13.228  25.011  20.929  0.2348  0.1628  0.2397
24461W        W67514  24.813  34.243   7.130  0.0636 -0.0172  0.1941
24462W        W67515  29.554  15.627   6.245  0.1791 -0.0657 -0.1100
24463W        W67516  14.469   0.259   3.414 -0.2664 -0.3905  0.3341
24464W        W67517  14.357  15.362   9.580 -0.0801 -0.1555 -0.0527
24465W        W67518   5.386  21.308   3.504  0.1731 -0.0764  0.2515
24466W        W67519   6.197   7.241   6.823  0.1947 -0.0288 -0.1137
24467W        W67520   2.477   0.268   7.637 -0.3758 -0.3254 -0.1565
24468W        W67521  15.078  14.370   8.289  0.1280  0.1251 -0.2235
24469W        W67522  24.860  17.045   5.935 -0.0149  0.0839 -0.2391
24470W        W67523  28.991  19.367  23.914 -0.0146 -0.4585 -0.0177
24471W        W67524  15.084  17.959   9.526  0.0511 -0.0560 -0.1165
24472W        W67525  20.039  24.223   5.659 -0.1125  0.0350  0.1645
24473W        W67526  23.973   6.646  27.828  0.0386  0.0097 -0.0620
24474W        W67527  26.568  20.277   4.324  0.0331 -0.0389  0.0221
24475W        W67528  27.189  32.784  27.803 -0.0465  0.0123  0.2680
24476W        W67529   6.931   9.676   3.576  0.0350 -0.0131  0.3278
24477W        W67530  33.893  19.634   7.155  0.1329  0.0204  0.0524
24478W        W67531  12.528  18.812   6.470 -0.2501 -0.3164 -0.0588
24479W        W67532   9.875  18.847   6.745  0.0622 -0.3015 -0.0522
24480W        W67533   5.075  11.766   8.313  0.1830 -0.0809 -0.4143
24481W        W67534  11.838   2.206   4.667 -0.3949 -0.3064  0.0185
24482W        W67535  19.746  14.469   3.211 -0.1284 -0.2989  0.1154
24483W        W67536  26.676  12.149  20.532 -0.1151 -0.0296 -0.0916
24484W        W67537  33.417  25.266  16.030 -0.0008 -0.1447  0.3133
24485W        W67538   4.504  31.515   2.392 -0.5570  0.1363  0.1286
24486W        W67539  23.906  29.125   0.751  0.1004  0.0654 -0.2089
24487W        W67540  23.112   9.707   2.489  0.1234  0.1756 -0.2948
24488W        W67541  19.253  11.333   8.101 -0.0944 -0.0775  0.2876
24489W        W67542  20.153  13.303   9.357 -0.0175 -0.0742  0.2515
24490W        W67543  27.613  23.259  29.030 -0.3109 -0.1948  0.0159
24491W        W67544  22.001  21.901   8.944 -0.1494  0.0428 -0.0882
24492W        W67545  25.376  21.577   9.722 -0.0237  0.0163  0.1282
24493W        W67546  28.192  27.249   5.980  0.1062 -0.0070  0.1632
24494W        W67547  20.102  11.685   0.740 -0.0239 -0.2099 -0.0832
24495W        W67548  31.465   3.866   0.648  0.0145 -0.0635 -0.1430
24496W        W67549  29.712  15.112   7.473 -0.0419 -0.0475 -0.1947
24497W        W67550   4.783  17.550  20.804  0.0863  0.1280 -0.3214
24498W        W67551  10.314   5.345  10.481 -0.3409 -0.1248 -0.0233
24499W        W67552  10.845  20.532   9.570 -0.0792  0.1682 -0.0178
24500W        W67553  18.214  19.089  28.067  0.1770 -0.0173 -0.1884
24501W        W67554  21.618  34.635  27.772 -0.2175  0.0011 -0.1333
24502W        W67555   9.404  10.798  19.706  0.0506  0.1555  0.1321
24503W        W67556  23.473  11.466   2.003  0.0709 -0.1914 -0.0248
24504W        W67557  23.546  32.298   6.948 -0.2162 -0.0867  0.0679
24505W        W67558  24.681  16.432   8.955  0.2204  0.0575 -0.1976
24506W        W67559  14.187  16.962   3.315 -0.1372 -0.0902  0.1362
24507W        W67560  10.838  27.616  23.321  0.1444  0.1259  0.1615
24508W        W67561  19.753  15.865  21.817 -0.3530  0.0355  0.0489
24509W        W67562   4.678  29.987   4.973  0.0526 -0.0028 -0.2470
24510W        W67563  33.848  20.249  29.135  0.1549 -0.0689 -0.1765
24511W        W67564  24.042  23.975   3.704 -0.1788 -0.1922 -0.1803
24512W        W67565  20.055  12.884   7.605  0.1492 -0.2760  0.0279
24513W        W67566  25.128  21.438  22.558 -0.0420 -0.0020  0.1100
24514W        W67567  26.795   8.270   1.260 -0.3609  0.0114 -0.0416
24515W        W67568  23.504  26.653  10.219  0.0071 -0.0911 -0.0760
24516W        W67569  11.398  18.232   6.824  0.0866  0.1593 -0.2315
24517W        W67570  20.864   5.616   7.090  0.1026 -0.0456 -0.2147
24518W        W67571  25.445  16.215  26.173  0.1176 -0.0673  0.2317
24519W        W67572  19.163  16.276  26.618  0.0056  0.0384 -0.1013
24520W        W67573  26.160  15.699   1.452  0.1222  0.2886 -0.0966
24521W        W67574  26.004   4.161   6.619 -0.0611  0.0599 -0.0498
24522W        W67575  11.531  17.528   7.390  0.3172 -0.1556 -0.3291
24523W        W67576  17.101  26.225   6.611 -0.0825 -0.2415 -0.1698
24524W        W67577  22.276  24.832   3.744  0.1611 -0.2659  0.0256
24525W        W67578  23.495   9.046   8.487 -0.1072 -0.0043  0.0754
24526W        W67579  29.145  21.033   0.733 -0.0307 -0.2220  0.0980
24527W        W67580  27.001  11.984  24.746 -0.5406 -0.1183 -0.3296
24528W        W67581  17.007   5.574   0.729 -0.3225 -0.2474 -0.3435
24529W        W67582  13.045  24.417   7.684  0.2682  0.2725 -0.0901
24530W        W67583  22.426  26.526  25.941 -0.1866 -0.1400  0.0623
24531W        W67584  27.335   0.628  21.272  0.2939 -0.1057  0.1333
24532W        W67585  23.266  25.038   8.218  0.0870  0.0446  0.3661
24533W        W67586  16.052  14.064   4.639  0.3456  0.3690 -0.1127
24534W        W67587  15.737  18.912   3.954  0.0609 -0.0837 -0.1195
24535W        W67588  18.758   6.475   6.688 -0.1514  0.0566  0.2328
24536W        W67589  27.999  21.468   4.327  0.1382 -0.3867 -0.1310
24537W        W67590   3.983  25.522   8.169  0.1127 -0.1768 -0.3692
24538W        W67591  24.458  31.723   9.410 -0.0854  0.2673 -0.0487
24539W        W67592  11.618   9.605   3.622 -0.0213  0.3417  0.1905
24540W        W67593  28.514   2.617   5.207 -0.0238  0.5666 -0.1314
24541W        W67594   5.870  33.315   8.667  0.0875 -0.0566 -0.1181
24542W        W67595  31.442  25.101   6.902 -0.1569 -0.1194 -0.1944
24543W        W67596  14.980  13.304   3.558  0.1323  0.2612 -0.0668
24544W        W67597  29.973  21.998   8.354  0.1529 -0.1861 -0.2185
24545W        W67598  23.810  28.921  21.739 -0.0029  0.1939 -0.0520
24546W        W67599  28.126  11.390  25.238 -0.1888  0.0964  0.2475
24547W        W67600   1.045  20.908   6.461 -0.0947  0.1880 -0.0663
24548W        W67601  22.514  13.105  28.635 -0.1490  0.1975  0.1707
24549W        W67602  22.152  27.443  26.157  0.1378  0.2974  0.0279
24550W        W67603  15.928  19.431  26.695 -0.2416 -0.0578 -0.0539
24551W        W67604   2.989  14.174   4.315 -0.2949 -0.2317 -0.2196
24552W        W67605  30.474  10.140   7.061 -0.3670 -0.4068 -0.0450
24553W        W67606  32.079  11.652   5.303  0.0426  0.0622  0.1367
24554W        W67607  15.170  20.173  28.937 -0.1032  0.0313  0.1921
24555W        W67608  21.310  28.163  18.968 -0.0475 -0.2736 -0.1680
24556W        W67609  18.621  28.175  19.730 -0.1506 -0.0180 -0.0762
24557W        W67610  26.345  13.488   0.281 -0.1594  0.0538  0.2729
24558W        W67611  26.003  30.997  25.089 -0.2818  0.0903 -0.2247
24559W        W67612  28.404  12.040   3.364 -0.3672  0.2550  0.2574
24560W        W67613  18.528  10.092   2.255 -0.0002 -0.2592  0.1215
24561W        W67614  23.451   8.197   5.278  0.4828  0.1535 -0.0006
24562W        W67615  13.319  21.348   6.276  0.2626  0.0299  0.1290
24563W        W67616  11.773   9.567   9.335  0.2206 -0.1215 -0.1868
24564W        W67617  19.269  17.069  24.003  0.2817 -0.2432 -0.1658
24565W        W67618  28.217  30.816   0.649  0.0688  0.0271 -0.1772
24566W        W67619  33.381   0.460   6.959  0.0872 -0.0065  0.0090
24567W        W67620  23.732  14.091   0.971 -0.2263 -0.2853 -0.2842
24568W        W67621  18.111  14.499  21.366  0.0584 -0.1752  0.0596
24569W        W67622  24.362  14.760   6.718  0.0402 -0.2592  0.2772
24570W        W67623   4.493  21.762   2.000  0.1790  0.0899  0.0270
24571W        W67624  19.191  24.691  10.418 -0.0493 -0.3153  0.0908
24572W        W67625  19.285  14.244   6.478  0.0750 -0.0632  0.4454
24573W        W67626   0.474  19.155   1.952  0.2714  0.1124  0.4114
24574W        W67627  22.568  25.244   3.617 -0.3990  0.1951  0.3732
24575W        W67628  31.280  30.130   6.653  0.0391 -0.1527 -0.2088
24576W        W67629  16.303  12.714  25.139  0.2582 -0.0419  0.1566
24577W        W67630  19.933  28.646   4.799 -0.5132 -0.2132  0.1067
24578W        W67631  23.650  23.844  18.071  0.1623 -0.2272 -0.1894
24579W        W67632  21.010  27.187   4.921  0.2086  0.0099  0.0013
24580W        W67633  27.180  22.641   0.109 -0.0768 -0.1787  0.1782
24581W        W67634  18.387  27.482  10.501 -0.0971 -0.0086 -0.0158
24582W        W67635  16.264  17.569  13.017 -0.0537 -0.0555  0.2534
24583W        W67636  22.108   6.161  22.127  0.0631 -0.1969 -0.0402
24584W        W67637  20.901  15.436   7.592  0.5687  0.3226  0.1994
24585W        W67638  32.065  31.479   5.432  0.1474 -0.0679 -0.2646
24586W        W67639  31.208  20.484   6.246  0.0244  0.0560 -0.0724
24587W        W67640  32.578  15.850   4.341  0.1884  0.0605  0.0735
24588W        W67641  16.530  20.267  28.748 -0.1975 -0.1181  0.1634
24589W        W67642  28.921  13.336   3.328  0.0058 -0.0480  0.0410
24590W        W67643  22.175   8.568   5.299 -0.1539 -0.0481  0.1835
24591W        W67644   8.352   1.786  27.975  0.0968  0.2876 -0.1083
24592W        W67645  22.056   7.258   9.003  0.1723 -0.0491  0.1163
24593W        W67646  24.791  25.833  27.413  0.0070  0.0898 -0.2155
24594W        W67647   0.669  17.499   7.504  0.0054  0.2560 -0.1032
24595W        W67648   5.000  31.773   1.244 -0.1384 -0.1712  0.0029
24596W        W67649   5.614  27.448   3.207  0.1137 -0.0837 -0.0429
24597W        W67650  19.728  18.885  23.841 -0.1088  0.3525 -0.1891
24598W        W67651  15.286  17.912   4.201 -0.0566  0.0868  0.0640
24599W        W67652  32.071  19.485   6.439  0.0046 -0.3304 -0.1704
24600W        W67653  22.546  10.396  15.886 -0.0523 -0.0226 -0.1277
24601W        W67654  13.463  17.278   5.318  0.1812 -0.0704 -0.1495
24602W        W67655  20.722  28.817  26.476 -0.1800 -0.0348  0.0742
24603W        W67656  28.737  26.637   3.152 -0.5784  0.0461 -0.0592
24604W        W67657  26.838   9.534  19.559 -0.0705 -0.2957  0.1260
24605W        W67658  24.745  23.327  17.706 -0.0652 -0.3684  0.1204
24606W        W67659   1.762  33.121   6.561 -0.0984 -0.0275  0.0302
24607W        W67660  20.584   8.881   3.581 -0.0906 -0.0214  0.1135
24608W        W67661  27.850  22.295  16.258 -0.2128 -0.0251  0.3069
24609W        W67662   0.507  25.362   9.062 -0.1007  0.1034 -0.2586
24610W        W67663  14.460   2.022   5.962  0.0962 -0.1933 -0.2662
24611W        W67664  15.992  17.644  26.113  0.1749 -0.1267 -0.1318
24612W        W67665   6.365  29.586   9.106  0.3228  0.0853  0.0389
24613W        W67666   2.093  23.057   5.441 -0.0134  0.2869 -0.0645
24614W        W67667  32.659  28.345   2.182  0.0396 -0.2638 -0.1961
24615W        W67668   2.928  23.624   7.716 -0.2958 -0.2052 -0.0370
24616W        W67669  22.492  23.912   5.371 -0.0274  0.1339  0.0988
24617W        W67670  26.878  23.156  17.673  0.0338 -0.0640 -0.2128
24618W        W67671  23.113  10.624  27.923  0.1567 -0.2523 -0.1843
24619W        W67672  15.811  16.987   8.101 -0.2247  0.3426  0.1952
24620W        W67673  27.617  19.595  22.762  0.0058 -0.3984  0.1371
24621W        W67674   2.734  23.294   6.904  0.0571  0.0045  0.0460
24622W        W67675  19.474  23.512   4.914  0.0624 -0.0293  0.2260
24623W        W67676  17.150  14.909  23.965 -0.1041  0.0519 -0.3490
24624W        W67677  28.797  29.510  15.019  0.0615  0.0531 -0.0016
24625W        W67678  25.093  14.227   2.304  0.0542  0.0969 -0.0583
24626W        W67679   1.631  19.927  15.153 -0.0425  0.5036  0.0985
24627W        W67680  18.369   1.461  21.972  0.0022 -0.2961 -0.0058
24628W        W67681  25.602  22.615   3.066  0.2240  0.1280 -0.1683
24629W        W67682  15.359  32.237  22.615 -0.2323  0.1127  0.2713
24630W        W67683  29.393  28.291   9.775  0.0965  0.0387 -0.0124
24631W        W67684  17.817  25.713   0.199 -0.0911  0.0577 -0.0717
24632W        W67685  26.015   9.855   0.901 -0.3069 -0.1023  0.1510
24633W        W67686  25.659  10.703  28.555  0.1240 -0.0683  0.0688
24634W        W67687  32.977  25.098   4.089  0.0040  0.2472 -0.0836
24635W        W67688  33.013   0.208  24.086  0.0846  0.1989 -0.3057
24636W        W67689  24.890  24.939   1.366 -0.2100 -0.1362  0.0041
24637W        W67690   6.229  13.480   9.066  0.2525  0.2129  0.0294
24638W        W67691  17.270  19.184   9.228  0.0489  0.0011  0.0502
24639W        W67692  29.370  18.577  27.185  0.1055 -0.0764  0.0796
24640W        W67693  24.127  20.450   6.837 -0.2237 -0.3594 -0.2171
24641W        W67694  16.140  29.203   6.974  0.0196  0.1150  0.1585
24642W        W67695  16.599  26.643   1.149  0.2719  0.0993 -0.1033
24643W        W67696  25.015  29.709  28.121 -0.0885  0.1463 -0.0957
24644W        W67697  24.251   8.465   5.603  0.0063  0.1446  0.1648
24645W        W67698   9.816   6.649  28.379 -0.0175  0.0182 -0.2559
24646W        W67699  18.543  13.194   4.425 -0.2800 -0.0749  0.2665
24647W        W67700   6.697  26.234  24.840  0.1300 -0.0829  0.2645
24648W        W67701  23.195  23.337   6.127 -0.0194 -0.1381  0.1255
24649W        W67702  23.133  11.132  28.231 -0.0942 -0.1539  0.1191
24650W        W67703  27.235  15.523   1.116  0.1450  0.0899  0.0983
24651W        W67704  20.322   3.249   8.711 -0.0198 -0.1727  0.2948
24652W        W67705  12.392  12.205   1.394 -0.0769 -0.1577 -0.1473
24653W        W67706  29.233  16.030  17.730 -0.3105  0.1295  0.0547
24654W        W67707  21.853  28.665  22.319  0.0373  0.1789 -0.0535
24655W        W67708  13.332  31.378   8.772 -0.2434  0.0460 -0.1680
24656W        W67709   4.796  26.782   1.075  0.0948  0.1261  0.2927
24657W        W67710  26.893  28.012   2.563 -0.0072  0.3016 -0.1345
24658W        W67711   8.912  21.717   7.677 -0.1269  0.1913 -0.1029
24659W        W67712  21.634   3.985   3.554  0.0282 -0.3106 -0.2709
24660W        W67713  30.860  30.325   2.919  0.2074  0.0514  0.1936
24661W        W67714  16.998  23.079   2.451  0.2046  0.1708 -0.1771
24662W        W67715  12.387   4.557   5.983 -0.0358  0.0223 -0.2245
24663W        W67716   7.447   0.172  21.132  0.1766  0.1725 -0.1294
24664W        W67717  19.544  29.851   7.395  0.3559  0.0820 -0.0236
24665W        W67718  11.302  22.897  14.878 -0.0594 -0.1676  0.0980
24666W        W67719  23.240  19.693   0.745  0.0767 -0.0277  0.1173
24667W        W67720  34.229  20.386   8.297  0.2550 -0.1197  0.1871
24668W        W67721  22.525   7.892  26.800 -0.0307 -0.2364  0.1502
24669W        W67722  24.058  17.031   2.778 -0.0635  0.0534  0.0057
24670W        W67723  21.365   6.691   3.779  0.1422  0.1708  0.0385
24671W        W67724  21.903  16.538   4.532 -0.2190 -0.1447 -0.0446
24672W        W67725  16.779  31.714   8.277 -0.0108  0.3706 -0.1295
24673W        W67726  19.683  27.322  17.112  0.1608  0.2043 -0.1103
24674W        W67727  22.976  15.921  18.721 -0.2549  0.2245  0.1805
24675W        W67728  29.496  15.600   3.088 -0.1418  0.0180  0.1075
24676W        W67729   2.624   0.896   6.772 -0.0547  0.0479 -0.1789
24677W        W67730  17.399  25.829   8.495 -0.0519 -0.2259  0.0455
24678W        W67731  17.370   6.180   6.928  0.1311  0.0411  0.0612
24679W        W67732  27.231  22.307   1.910 -0.4014 -0.0621  0.4154
24680W        W67733   0.073  21.182  24.724 -0.0494  0.0346  0.1023
24681W        W67734  21.296   9.038   3.968  0.0822  0.0244 -0.0194
24682W        W67735  15.998  18.201   4.951 -0.0779 -0.0947  0.0513
24683W        W67736  17.371  23.288  26.874 -0.4205 -0.0251  0.2404
24684W        W67737  20.097  24.311  22.400 -0.1409  0.1377 -0.1117
24685W        W67738  15.955  24.015  27.115 -0.1900  0.4842  0.1246
24686W        W67739  31.730  23.455  22.055 -0.0741  0.3860 -0.0396
24687W        W67740  31.374  31.406   6.848  0.0321 -0.2958 -0.0093
24688W        W67741  19.222  31.609   5.543  0.1168 -0.0624 -0.0837
24689W        W67742  15.387  13.846   5.406 -0.0617  0.2476  0.2736
24690W        W67743  13.763  23.216   1.695 -0.2563 -0.0206 -0.0335
24691W        W67744  20.862  33.106  24.225  0.0393  0.1365 -0.1827
24692W        W67745  27.986  26.694   1.629 -0.1218  0.1871  0.2993
24693W        W67746  24.247  11.404  21.716  0.0285 -0.0928 -0.0493
24694W        W67747  34.387  11.200  23.943 -0.0545  0.1488 -0.2761
24695W        W67748   7.276  24.912  27.856  0.2592 -0.0262  0.1651
24696W        W67749  24.043  12.200   1.587 -0.2963 -0.1341 -0.2786
24697W        W67750   9.460  30.498   1.479 -0.3326  0.1065  0.0087
24698W        W67751  31.281  31.228   8.889 -0.1583  0.2644 -0.1309
24699W        W67752  33.455  20.729  25.336  0.0254  0.0121 -0.2208
24700W        W67753  27.333   4.964  25.444  0.1596 -0.1845 -0.4398
24701W        W67754  32.302  14.777  25.968 -0.3017  0.1028 -0.1927
24702W        W67755  27.136  20.919   9.628  0.0385  0.3347 -0.0081
24703W        W67756   5.471   1.340   7.339  0.0027 -0.4675 -0.0079
24704W        W67757  22.260  16.518  28.704 -0.1195  0.0748  0.1643
24705W        W67758  31.884  18.590   7.662 -0.2954 -0.1997  0.0173
24706W        W67759  12.204  25.796  19.459  0.1312 -0.0516  0.4577
24707W        W67760  16.358   5.130   7.899 -0.0246  0.1196  0.1354
24708W        W67761  29.892  28.443  23.616 -0.1213 -0.2663 -0.0274
24709W        W67762  21.688  20.348  10.141 -0.0002  0.0338 -0.0252
24710W        W67763  17.720  30.109   8.240  0.0340  0.2183  0.0992
24711W        W67764  33.254  11.861   2.486 -0.0143  0.0266  0.0454
24712W        W67765  22.014  24.359  10.506 -0.1137  0.0821 -0.2151
24713W        W67766  30.515  22.962   7.490  0.1153  0.0184  0.0952
24714W        W67767  31.723  24.823  20.140 -0.0151  0.3280  0.0775
24715W        W67768  17.497  20.204   0.888  0.0326  0.2741  0.1437
24716W        W67769  14.495  23.996  26.604  0.1197 -0.0379 -0.0607
24717W        W67770  18.846  28.709  28.835  0.1044 -0.0819 -0.0385
24718W        W67771  20.455  31.169  21.221  0.2778 -0.1407 -0.0970
24719W        W67772  23.270  15.622  20.108 -0.0276 -0.0533  0.0085
24720W        W67773  23.929  20.234  27.113  0.1141 -0.3012  0.0540
24721W        W67774   2.849  22.037   1.055  0.1034 -0.1310  0.3679
24722W        W67775  24.442  22.707   0.839 -0.1686 -0.1445  0.1076
24723W        W67776  30.253  21.290   8.917  0.0788 -0.0827 -0.1910
24724W        W67777  14.542  19.605   1.460 -0.0638 -0.1023  0.1635
24725W        W67778   9.927  22.808   4.862 -0.0338 -0.2374  0.0995
24726W        W67779  26.458   2.275  25.222 -0.2209  0.0620  0.0888
24727W        W67780  29.004  21.064   5.774  0.2886 -0.1047  0.1057
24728W        W67781  24.160   9.716   3.154 -0.3215 -0.2257 -0.0318
24729W        W67782  22.339  28.533   8.648 -0.0130  0.5130 -0.0869
24730W        W67783   2.026  22.503   6.952 -0.0259 -0.0257  0.0259
24731W        W67784  30.605  19.840  22.038  0.0952 -0.2540 -0.0006
24732W        W67785  17.998  12.719   2.015  0.1279 -0.1982 -0.0322
24733W        W67786  25.112   8.329  18.019 -0.3785 -0.4784  0.0923
24734W        W67787  27.921  22.113  17.871  0.1407  0.2621  0.1011
24735W        W67788   0.175  24.019   1.345  0.1304 -0.1339  0.3014
24736W        W67789  12.404  16.824   1.787  0.0203 -0.1653 -0.1202
24737W        W67790  12.655   9.567   8.116 -0.0409 -0.1522 -0.2279
24738W        W67791  20.472   9.083   8.990 -0.2943  0.2219  0.0511
24739W        W67792  20.036   4.729  19.535  0.1169  0.2102 -0.0103
24740W        W67793  30.246  26.597   4.870 -0.0557  0.3628  0.1881
24741W        W67794  32.164  20.068   9.046 -0.2145 -0.1343  0.0883
24742W        W67795  27.598  21.245   7.931 -0.0974  0.2075  0.3953
24743W        W67796  23.371  29.709  27.667  0.0974 -0.2853  0.0663
24744W        W67797  11.576   8.083   2.034  0.0670 -0.1442  0.0959
24745W        W67798  18.386   8.664  26.699  0.0677 -0.0651  0.0201
24746W        W67799  27.311  13.827   6.653  0.0746 -0.2131  0.1754
24747W        W67800   2.512  26.526   5.133  0.1159 -0.0173 -0.1004
24748W        W67801  25.939  13.079  17.415  0.1552  0.2622  0.1387
24749W        W67802  20.125  27.690   4.589  0.0394 -0.0471  0.1250
24750W        W67803  29.534  19.656   6.861 -0.2102 -0.2446 -0.2420
24751W        W67804  27.313   2.118   6.392 -0.1575 -0.1188 -0.3292
24752W        W67805  27.402   0.089  17.812 -0.3097 -0.0414 -0.0147
24753W        W67806  14.797  31.695   7.136 -0.1363  0.0071  0.0272
24754W        W67807  29.904  26.326  20.514 -0.4153  0.0045  0.0151
24755W        W67808  13.582  12.438   7.527  0.1182 -0.2999  0.1368
24756W        W67809  28.063  11.328   2.504  0.1296  0.0063 -0.1032
24757W        W67810  24.522  25.511   2.715 -0.1019  0.1211 -0.1358
24758W        W67811   1.457  24.162  19.092 -0.1478 -0.2046 -0.7747
24759W        W67812   5.523  13.599  23.085  0.2800 -0.1832  0.1248
24760W        W67813   1.048  29.315   4.708 -0.1679  0.0799  0.2528
24761W        W67814  23.424  29.546  22.354 -0.3147  0.0066 -0.3156
24762W        W67815  17.669  14.382   1.144  0.1568 -0.2147  0.0443
24763W        W67816   5.693  11.890  10.644  0.0850  0.0535  0.1887
24764W        W67817   5.868  26.965   8.922  0.2742 -0.2768 -0.3732
24765W        W67818  30.053  18.692  26.598  0.0021  0.0878  0.2115
24766W        W67819  24.913   6.534   8.809 -0.1240 -0.1336 -0.1385
24767W        W67820  17.943  17.859  25.764  0.1441  0.1486  0.5782
24768W        W67821  14.027  24.163   0.952 -0.0240 -0.1962 -0.2644
24769W        W67822  27.241  23.080   3.339  0.4883  0.0769 -0.0646
24770W        W67823  27.326  26.085  27.710  0.1427  0.0132 -0.0207
24771W        W67824   7.103  10.193  27.235 -0.0597 -0.1486  0.0465
24772W        W67825   2.910  16.283   0.945 -0.1038 -0.0890  0.2481
24773W        W67826   8.464  16.814  19.841  0.0563  0.2335  0.2453
24774W        W67827  23.478  27.828   1.213 -0.0705  0.2145 -0.1079
24775W        W67828   7.184  12.223   5.431 -0.1341  0.4008 -0.1925
24776W        W67829  27.968  20.026   1.925 -0.0788  0.3265 -0.0357
24777W        W67830  24.661  17.214  20.512 -0.0942  0.3444  0.0101
24778W        W67831  22.919  23.914  24.943  0.0473 -0.1316 -0.0454
24779W        W67832  26.654   2.277   6.587 -0.0537 -0.1359  0.0459
24780W        W67833  25.056   2.046   0.492 -0.2337 -0.1094  0.1842
24781W        W67834  24.226  23.819   1.653 -0.4430  0.2056  0.1181
24782W        W67835  17.725  11.670   1.108  0.2325  0.1799  0.2084
24783W        W67836  26.969  21.106  18.516  0.0009 -0.0058 -0.1653
24784W        W67837   6.311  14.299   0.255 -0.0648 -0.1463 -0.2522
24785W        W67838  13.546   6.118  25.102  0.0230 -0.0135  0.0871
24786W        W67839  28.944  18.349   7.056  0.2758 -0.1349  0.0849
24787W        W67840  33.556  15.791  16.800  0.0304 -0.0307 -0.1015
24788W        W67841  24.357  14.165  21.485 -0.0041  0.0017 -0.1188
24789W        W67842  28.429  20.787   0.412 -0.0582  0.2665 -0.1027
24790W        W67843  20.004  17.948   3.811  0.0338 -0.3626 -0.1367
24791W        W67844  15.643  19.854   8.015 -0.0839  0.1095  0.0282
24792W        W67845  27.482  14.777  28.614 -0.0687  0.0870  0.1895
24793W        W67846  31.268  10.496   9.435  0.0060  0.3427  0.2240
24794W        W67847  17.978  11.851   7.388  0.4575 -0.0091  0.0426
24795W        W67848  12.569  21.136   0.666 -0.0915 -0.0055  0.1749
24796W        W67849  16.837   6.788   9.318  0.1486 -0.2020 -0.1883
24797W        W67850  16.088  12.718  10.383  0.0710  0.2788  0.2172
24798W        W67851  13.434  21.224   0.490  0.0769  0.2070 -0.0911
24799W        W67852  23.428   9.633  27.730 -0.3204 -0.0146  0.1544
24800W        W67853   6.549  31.815  27.673  0.3015  0.1201  0.4133
24801W        W67854  29.601  15.421  18.321 -0.0578  0.3187 -0.2508
24802W        W67855  28.690   2.569  25.867  0.0765 -0.0395 -0.1099
24803W        W67856  32.303  27.698  15.621 -0.1755 -0.2648 -0.2352
24804W        W67857  29.829   5.960   5.159 -0.1595 -0.0938  0.0330
24805W        W67858  23.865  27.944  26.763  0.0324  0.0518  0.2035
24806W        W67859  16.407   8.831  28.348  0.2051  0.1515  0.3368
24807W        W67860  15.685  26.517   8.663  0.1785 -0.2788 -0.3838
24808W        W67861  26.293  18.575   8.764  0.4395  0.1340 -0.1971
24809W        W67862  23.794  24.571   7.573 -0.2942 -0.0936  0.0204
24810W        W67863  26.231   0.804   9.480 -0.0759  0.0961  0.0610
24811W        W67864  13.824   0.684   0.630 -0.1025 -0.0894  0.1365
24812W        W67865  15.313  33.628   6.667 -0.3875 -0.1872  0.0092
24813W        W67866  27.732  28.201  19.238  0.0932 -0.0263 -0.0063
24814W        W67867  20.398  29.797  21.492 -0.1877  0.2408 -0.0960
24815W        W67868  25.406  20.863   2.459  0.2065 -0.3274 -0.0751
24816W        W67869  23.051  18.611   0.217 -0.1026  0.0124  0.0117
24817W        W67870  28.587  19.334   1.532 -0.0822 -0.0419  0.0319
24818W        W67871  24.625  29.843  23.087 -0.1443  0.3242 -0.0320
24819W        W67872  12.698  22.073   0.585  0.1091 -0.2915  0.0284
24820W        W67873  29.032   4.475   3.503 -0.2003 -0.0366 -0.2243
24821W        W67874  12.282  15.663   6.714  0.0892  0.3252 -0.1512
24822W        W67875  18.721  22.753   2.858 -0.0948 -0.1900 -0.2671
24823W        W67876  13.378  19.855   5.573  0.0531 -0.0231  0.2944
24824W        W67877  20.127  24.082  16.823 -0.0065  0.4604  0.0328
24825W        W67878  25.096   4.643   8.808 -0.2054 -0.1617 -0.0578
24826W        W67879   8.972  14.329  28.367  0.1269 -0.0414  0.2031
24827W        W67880  24.756  29.578  23.475 -0.1630 -0.1996 -0.0256
24828W        W67881   5.858  11.729   8.820  0.0908 -0.3220  0.1397
24829W        W67882  19.248   9.816   5.879 -0.1202  0.2670  0.1081
24830W        W67883   3.140  13.053   7.365 -0.1810 -0.3202  0.1496
24831W        W67884  33.376  11.212   6.826 -0.1013 -0.2120 -0.1497
24832W        W67885   7.312  18.924  28.101 -0.4351 -0.0443 -0.3792
24833W        W67886  17.397  20.361   3.277 -0.3862  0.3216 -0.3044
24834W        W67887  32.211  21.755  20.614 -0.0538  0.1086  0.2956
24835W        W67888  16.488  31.737  17.103  0.4476 -0.0769  0.1125
24836W        W67889  25.023  17.581   8.231 -0.4073 -0.0832  0.5080
24837W        W67890  27.894  27.494  20.076  0.0038 -0.2384 -0.0245
24838W        W67891  23.780  26.454   8.995  0.0834 -0.4641  0.3426
24839W        W67892  32.299  31.206  27.312 -0.2305 -0.3123  0.1669
24840W        W67893  21.643  18.967   6.929 -0.0385 -0.2648  0.0536
24841W        W67894  24.859  20.370   4.161 -0.0774 -0.1320 -0.5285
24842W        W67895  27.086  33.905  19.195 -0.2223  0.4476  0.0295
24843W        W67896  21.540  29.911  28.167 -0.0323  0.2765  0.0766
24844W        W67897  10.285   6.661  25.381 -0.0142  0.0568 -0.1383
24845W        W67898  29.683   6.934   4.212 -0.0396 -0.0072 -0.2907
24846W        W67899  16.581  27.516   8.901 -0.1390  0.2323  0.3153
24847W        W67900  21.805   4.178  20.349  0.3051  0.0216  0.0495
24848W        W67901  20.450  22.177   1.574  0.0393 -0.3228 -0.1272
24849W        W67902  16.987  25.484   0.655  0.0059 -0.1875 -0.1110
24850W        W67903  18.663  26.302   1.738  0.2189 -0.0260  0.2024
24851W        W67904  21.858   8.418   9.449 -0.0244  0.0533  0.0499
24852W        W67905  23.484  25.362   5.044 -0.2131  0.2131 -0.1356
24853W        W67906  17.079   1.759   8.300 -0.2285 -0.1195 -0.0437
24854W        W67907  22.513  29.976   7.383 -0.1942  0.0964  0.1947
24855W        W67908  31.951  10.827   5.818 -0.2581 -0.1000 -0.2868
24856W        W67909  22.101   9.056  28.950 -0.2535  0.0556  0.2079
24857W        W67910  16.406  16.030   6.614 -0.0836  0.1121 -0.0715
24858W        W67911  27.474   0.709   2.788  0.0607 -0.1034 -0.2535
24859W        W67912  14.679   8.708   5.808  0.0388 -0.1857 -0.1040
24860W        W67913   8.466   3.246   5.433  0.0533  0.1076 -0.0466
24861W        W67914  19.961  27.074   1.414 -0.1928 -0.0106 -0.1258
24862W        W67915  29.390  22.744   0.183 -0.2504  0.1099  0.2544
24863W        W67916   4.011  23.527  24.972  0.2287  0.0677  0.1797
24864W        W67917  26.663  18.453  26.146 -0.6362 -0.0007  0.0911
24865W        W67918  17.752  19.405   9.084 -0.1174 -0.2571 -0.3409
24866W        W67919  31.543  24.540  19.634 -0.3577  0.0028  0.2159
24867W        W67920  34.193  22.720  27.222 -0.2000  0.1473  0.7076
24868W        W67921  12.254  34.425  23.875  0.6043  0.1449 -0.2330
24869W        W67922  29.194   9.480  24.771 -0.4977  0.2672  0.0313
24870W        W67923  16.799  12.558   9.159 -0.4101 -0.1145  0.0805
24871W        W67924   1.786  21.778   1.996  0.0049 -0.2943 -0.3527
24872W        W67925  17.493  23.644   9.084  0.1128 -0.2301 -0.0766
24873W        W67926  28.079   7.496   5.989  0.2107 -0.0107 -0.1198
24874W        W67927  18.923  31.226  10.425 -0.0768  0.1464  0.0090
24875W        W67928   1.577  15.771   6.735 -0.2528 -0.2688 -0.0737
24876W        W67929  21.366   8.926   2.488  0.2626  0.1801  0.0387
24877W        W67930  31.556  24.235   6.121  0.3667  0.2060 -0.1536
24878W        W67931  27.192  21.345   4.722 -0.0405 -0.2465 -0.0244
24879W        W67932  20.885   9.562  26.234 -0.2460  0.3010  0.0395
24880W        W67933  33.219   1.223  25.285  0.0820 -0.0140 -0.1935
24881W        W67934   7.092  16.144   9.780 -0.1418 -0.0344  0.0465
24882W        W67935  25.421  18.740  20.295 -0.2930  0.2579  0.1641
24883W        W67936  28.671  26.945  23.719 -0.0535 -0.3251 -0.1640
24884W        W67937  13.695  25.075   1.020 -0.2542 -0.1988  0.0159
24885W        W67938  10.056  21.261  18.362 -0.3467 -0.2262  0.1081
24886W        W67939  23.735  33.061   4.686 -0.1791 -0.2351  0.0522
24887W        W67940   3.379  13.470   8.562 -0.0141 -0.1504  0.1509
24888W        W67941  24.835  12.908   4.495 -0.1970  0.0514 -0.2785
24889W        W67942  30.294  11.796  25.540 -0.0293 -0.0890  0.2461
24890W        W67943  25.822  27.989   5.642  0.1034 -0.0928  0.4552
24891W        W67944   9.806  25.374  19.987  0.2473  0.4274  0.0622
24892W        W67945  21.688  13.582  15.258 -0.0517  0.3951  0.0443
24893W        W67946  21.957  17.746  15.974  0.1320 -0.1716  0.0707
24894W        W67947  27.061   3.038  18.697  0.2819  0.0936  0.2000
24895W        W67948  19.825   7.963   1.770 -0.2959  0.1728 -0.4376
24896W        W67949  29.208  23.997   9.192 -0.0802  0.3343 -0.2809
24897W        W67950  11.838  13.350   7.440  0.0547  0.1106 -0.1485
24898W        W67951  24.122  12.662   9.191 -0.1286  0.0571  0.3114
24899W        W67952  32.108  16.797  19.747 -0.0308  0.3181 -0.0298
24900W        W67953  30.655  26.956  28.560  0.0649  0.0433 -0.0662
24901W        W67954  30.530  24.137   7.312 -0.3979 -0.1389  0.1708
24902W        W67955  14.920   9.314   5.125  0.1720  0.0846  0.3213
24903W        W67956  25.226  20.886   0.337 -0.1421  0.2198  0.0050
24904W        W67957  26.531  12.813  25.248  0.2653 -0.1394  0.2468
24905W        W67958   4.364  15.243   4.836 -0.0798 -0.0361 -0.0243
24906W        W67959  24.708  20.673   6.222 -0.1725  0.2674 -0.0228
24907W        W67960  32.676  31.563  23.790 -0.2486 -0.0558 -0.2827
24908W        W67961  29.597  19.140   8.304  0.1183  0.1580  0.0445
24909W        W67962  28.235  26.395   6.990  0.2326 -0.1807 -0.3990
24910W        W67963  23.127  19.518  23.156  0.1779  0.0693 -0.1874
24911W        W67964  31.631  19.451  14.608 -0.2339  0.0399  0.0104
24912W        W67965  22.976   8.377  20.242  0.0523 -0.0524 -0.2541
24913W        W67966  32.290  19.284  28.484  0.1681  0.0804 -0.1382
24914W        W67967  25.338   8.765   8.761 -0.3094  0.1626 -0.3730
24915W        W67968   7.291  17.202   4.980 -0.2460 -0.1780 -0.0368
24916W        W67969  23.135  20.126  27.174  0.0692 -0.0295 -0.2187
24917W        W67970  25.623  11.108   9.294  0.0547 -0.1623 -0.4590
24918W        W67971  28.861  34.577  22.310 -0.1181 -0.2878 -0.1779
24919W        W67972  29.660  29.476  27.225 -0.0836 -0.0955 -0.5016
24920W        W67973   9.128  14.679   5.752  0.2517 -0.2012  0.3769
24921W        W67974  31.859  24.904   6.770  0.1140 -0.3128 -0.2155
24922W        W67975  30.231  21.744   9.317 -0.0775  0.0625 -0.1047
24923W        W67976  17.531   0.605  14.328  0.0633  0.1493 -0.0403
24924W        W67977  18.945  10.081   0.238  0.0792 -0.0503 -0.2174
24925W        W67978   8.276  13.482   8.072 -0.1741 -0.2865 -0.0226
24926W        W67979  25.764  28.590  25.326  0.0579  0.0184 -0.1639
24927W        W67980  21.956  21.631   1.359  0.4042  0.1414  0.4331
24928W        W67981  10.059  22.250   0.216 -0.2162 -0.5387  0.0158
24929W        W67982  28.822  27.070   3.924  0.2093  0.0725 -0.1232
24930W        W67983   4.408  24.291  23.825 -0.3733 -0.1422 -0.1155
24931W        W67984  32.278  14.464   4.692  0.2844  0.0227  0.2346
24932W        W67985  22.543  31.667  10.307  0.5069  0.1492  0.2214
24933W        W67986  17.607  26.239   9.377 -0.1175 -0.0426  0.0714
24934W        W67987  33.642  27.486  18.867 -0.1410 -0.0362 -0.1516
24935W        W67988  27.728  34.165   1.287 -0.1218  0.2442 -0.2578
24936W        W67989  14.424   8.659   7.959  0.0249 -0.1585  0.0459
24937W        W67990   0.060  26.797  12.937 -0.1635  0.0095  0.0545
24938W        W67991  32.697  23.918   3.141  0.0109 -0.0197  0.1483
24939W        W67992  21.906  15.610   2.596 -0.0049 -0.1783  0.0905
24940W        W67993  33.025  20.425  14.514  0.0670 -0.0101 -0.0485
24941W        W67994  27.891  23.547  22.437  0.0014  0.3096 -0.3167
24942W        W67995   1.571  24.575  16.723 -0.0269  0.1057  0.0836
24943W        W67996  26.019  17.682   7.176  0.2491 -0.0129 -0.0675
24944W        W67997  13.953  24.929  25.238  0.0949  0.0431 -0.0839
24945W        W67998  17.461  14.090   9.584  0.0892 -0.1111  0.0568
24946W        W67999  30.670  14.320   7.464 -0.1992  0.0995  0.1113
24947W        W68000  26.830  12.714  15.496  0.1062  0.2400  0.0070
24948W        W68001  34.472  25.949   6.994 -0.1396 -0.1076  0.0602
24949W        W68002  30.037  26.009   5.634  0.1053  0.0412 -0.0362
24950W        W68003  24.741  30.768   2.534  0.1227 -0.2982  0.1720
24951W        W68004  22.760   9.580   6.975  0.1425 -0.0316 -0.2807
24952W        W68005  14.600  14.103   1.859 -0.4558 -0.0304 -0.1492
24953W        W68006  27.627  15.594   3.615 -0.0860 -0.2504  0.0469
24954W        W68007  18.192  13.442  15.819 -0.1315  0.0985  0.0624
24955W        W68008  29.228  13.809   7.115  0.1516  0.1332  0.0208
24956W        W68009  24.447  25.873   2.204  0.1689  0.0339  0.0817
24957W        W68010  27.020  32.021   8.800  0.1374 -0.0250 -0.0154
24958W        W68011  29.700   9.705  26.155  0.0517 -0.0295 -0.1354
24959W        W68012  15.116   7.239   3.337 -0.0511  0.2455  0.0378
24960W        W68013  27.220  13.580   7.943  0.0652 -0.0842  0.3969
24961W        W68014  22.177  13.172   4.684  0.0250  0.4025  0.2933
24962W        W68015   1.662  17.451  22.444  0.1328 -0.1383  0.0367
24963W        W68016  18.755  24.777  24.789 -0.0045 -0.0206  0.1245
24964W        W68017  19.152  21.584   0.427 -0.2312  0.0947 -0.1445
24965W        W68018  24.896  15.578  20.039 -0.0393 -0.3775  0.0086
24966W        W68019   8.463  17.071  29.145  0.1067 -0.0837 -0.1362
24967W        W68020   1.784  20.305   8.339  0.0755 -0.2408  0.2817
24968W        W68021  28.378   3.099   7.684  0.0537 -0.3055 -0.1996
24969W        W68022   1.906  22.911   6.334 -0.1466  0.1784 -0.0929
24970W        W68023  23.686  21.127  28.091  0.1296 -0.3448 -0.1914
24971W        W68024  21.497  20.405   4.399  0.2110 -0.0734  0.0340
24972W        W68025  22.186  22.979   8.565 -0.1571  0.1167 -0.0901
24973W        W68026   7.401  17.569  17.529 -0.0439 -0.1302 -0.4710
24974W        W68027   1.879  19.166  27.096 -0.0961 -0.2971  0.1722
24975W        W68028  29.852  11.131   0.840 -0.1321  0.2720  0.0169
24976W        W68029  22.506  22.815  10.869 -0.0328  0.3963  0.1909
24977W        W68030  22.448  27.070  27.704  0.0725 -0.2805 -0.0585
24978W        W68031  34.362  28.380   9.144 -0.2350 -0.0946 -0.3038
24979W        W68032  12.468  16.798   8.756 -0.0294 -0.1351 -0.2442
24980W        W68033  21.915  16.535  27.956 -0.1185 -0.1553  0.2956
24981W        W68034  23.326  18.775   5.467  0.1714  0.2181  0.0135
24982W        W68035  14.521  19.234  25.615 -0.0792 -0.1118 -0.1834
24983W        W68036  18.507  27.857   7.413  0.2466 -0.0481  0.4180
24984W        W68037  26.460   3.914  14.592  0.1683  0.1225  0.0736
24985W        W68038  29.271  24.474   1.570 -0.2098  0.0597 -0.0179
24986W        W68039  26.811   6.033  19.056 -0.2848  0.1555 -0.1365
24987W        W68040   8.731  23.870   8.622  0.2081  0.0091  0.0272
24988W        W68041  33.845  11.989   5.831  0.1535 -0.1910  0.0393
24989W        W68042  32.884  17.145   0.487  0.0662 -0.4907  0.0239
24990W        W68043  21.495  27.462   4.674  0.1741  0.0753  0.2457
24991W        W68044  27.234  13.677  15.565  0.3293 -0.1404 -0.1742
24992W        W68045  15.967  21.241   7.840  0.0654 -0.0312  0.0993
24993W        W68046  30.189  15.439  25.465  0.1976  0.4417 -0.2361
24994W        W68047  34.124  20.420   7.653 -0.1120 -0.5365 -0.3434
24995W        W68048  25.051  29.251   4.719 -0.0426 -0.2720  0.2699
24996W        W68049  14.638  22.146  23.339  0.1765  0.1066 -0.0591
24997W        W68050   3.712  28.239   6.473 -0.0378 -0.0281  0.0291
24998W        W68051   1.923  22.439   4.212 -0.0409 -0.0085  0.0181
24999W        W68052  27.848  34.050   8.884 -0.0672  0.0122  0.1048
25000W        W68053  24.481  18.920  22.287  0.2907  0.3029 -0.0021
25001W        W68054  29.884  21.132   8.599 -0.2719 -0.1707  0.0714
25002W        W68055  20.834  19.194   7.498 -0.0187 -0.1410  0.2697
25003W        W68056  26.714  12.348   9.869 -0.0428  0.0334  0.0362
25004W        W68057  28.651  16.730   6.669 -0.0078 -0.1553 -0.2001
25005W        W68058  19.033  14.061   7.401 -0.1270  0.1149  0.0310
25006W        W68059  29.476  27.804   9.606  0.0406 -0.2574  0.0411
25007W        W68060  24.748   9.653   5.006 -0.0344  0.2536 -0.3233
25008W        W68061  16.701  28.496  10.408 -0.4197  0.0897 -0.3281
25009W        W68062   1.421  20.073   8.606 -0.2480 -0.0778  0.0532
25010W        W68063   5.642  20.346   3.872 -0.2255 -0.0767  0.0463
25011W        W68064  23.327   9.965  20.797  0.0012  0.2408  0.0332
25012W        W68065  12.941  15.002   6.637 -0.0163 -0.2007  0.0707
25013W        W68066  27.408  32.554   2.054 -0.0902  0.4474 -0.1975
25014W        W68067   9.389  29.469  26.499 -0.1507 -0.0762  0.1440
25015W        W68068  21.854  20.521   8.891  0.0832 -0.0092  0.0634
25016W        W68069  14.505  18.053  10.532 -0.0833  0.2808  0.1380
25017W        W68070  23.053  22.086  19.899  0.2090 -0.0400  0.4978
25018W        W68071   0.064  20.970   1.160 -0.0867  0.0380  0.1277
25019W        W68072  29.682  25.748  17.452 -0.0966  0.0956 -0.2302
25020W        W68073  19.735  30.487  23.770 -0.0326  0.0586 -0.1191
25021W        W68074  33.412   4.958   2.421 -0.0254  0.1194 -0.2304
25022W        W68075  13.962  16.844  18.112  0.0995  0.3601  0.0497
25023W        W68076  33.519  16.789   7.746 -0.2517  0.2432  0.4085
25024W        W68077  23.012  14.994  27.263 -0.2192 -0.2587  0.0929
25025W        W68078  33.149  20.567   2.919 -0.0811 -0.0164 -0.1037
25026W        W68079  14.607  27.741   3.317 -0.2446  0.0993  0.2364
25027W        W68080  20.597   7.685   6.490 -0.2444 -0.3474  0.0315
25028W        W68081  17.746  15.495   5.029 -0.1093 -0.0210  0.1475
25029W        W68082  17.938  22.082   2.849  0.0277  0.0931  0.1951
25030W        W68083  31.167  15.165   8.194  0.1092  0.0971  0.2794
25031W        W68084  27.945   8.648  26.982  0.1074 -0.1034  0.3717
25032W        W68085  10.484  18.748   8.816 -0.0228 -0.0484 -0.0049
25033W        W68086  24.450  23.675  27.098  0.0234  0.1236 -0.2532
25034W        W68087  11.131  20.866   4.136 -0.0848 -0.1006  0.0824
25035W        W68088  15.153  15.422   3.072  0.1121 -0.3816  0.1067
25036W        W68089  13.530  24.235  24.613  0.0617 -0.1051 -0.1808
25037W        W68090   5.694  16.997  24.515  0.2626 -0.0423  0.2385
25038W        W68091  26.054  30.858  20.765  0.1893  0.5143  0.0915
25039W        W68092  19.031  27.525   2.121 -0.0961  0.2539 -0.1325
25040W        W68093   7.596   7.452   6.129  0.2365  0.0178  0.0250
25041W        W68094  14.763  11.754   6.473 -0.0925  0.1217 -0.0637
25042W        W68095   8.565  11.462   6.653  0.2732 -0.1397  0.0345
25043W        W68096  21.405  18.536  23.336  0.0625  0.0048  0.1976
25044W        W68097  16.676  12.953  25.562  0.3138 -0.0959 -0.1528
25045W        W68098  21.783  20.685   4.055 -0.3184  0.1835 -0.3995
25046W        W68099  26.533  13.596  20.521  0.1477  0.1185 -0.0840
25047W        W68100  31.292  17.442  10.188  0.0293 -0.0261 -0.0253
25048W        W68101  14.310   4.462   0.803 -0.2167 -0.2879  0.1866
25049W        W68102  18.263   9.863   5.643 -0.1716  0.3031  0.1463
25050W        W68103  24.763   4.829  25.532  0.0058  0.0675 -0.4329
25051W        W68104  25.075  25.870   7.388 -0.1114  0.0443 -0.0520
25052W        W68105  26.968  14.523   9.675 -0.3219  0.0173  0.3561
25053W        W68106   9.439   3.533  10.673  0.0550  0.0809  0.0124
25054W        W68107   0.994  13.255  26.252  0.0907 -0.2309  0.0594
25055W        W68108  31.659  22.567  25.115 -0.5420  0.0877 -0.0322
25056W        W68109  13.610  34.201   7.806 -0.2248 -0.1971 -0.0666
25057W        W68110   3.028  23.161   4.275 -0.1988  0.2099 -0.1370
25058W        W68111   4.633   7.052  22.631 -0.2656 -0.1824  0.0801
25059W        W68112  23.554  19.253   7.508  0.3407 -0.0506 -0.1860
25060W        W68113  31.078  15.792  27.494  0.0395  0.0999  0.3880
25061W        W68114  22.821   4.897   6.630 -0.2029  0.0285 -0.2506
25062W        W68115  19.172   7.512   9.766  0.0375  0.2525 -0.2828
25063W        W68116  24.860   7.556   2.842 -0.0634 -0.4280 -0.0111
25064W        W68117   6.813  13.381   6.757  0.1193 -0.2662 -0.2885
25065W        W68118  11.689  19.915  20.439  0.2685 -0.2178 -0.3237
25066W        W68119  22.225  15.840  28.364 -0.0846  0.0811  0.3742
25067W        W68120  20.711  14.553   2.452 -0.2926  0.1932  0.1831
25068W        W68121  21.029   5.160  25.499 -0.1040  0.2692 -0.1146
25069W        W68122  12.686  32.139  20.161 -0.3542 -0.4361 -0.0615
25070W        W68123  29.505  23.254  15.553  0.2796 -0.2016 -0.0564
25071W        W68124  27.479  24.102  20.690 -0.2679  0.1219 -0.1065
25072W        W68125  26.811  32.058  17.665  0.0083  0.1705  0.0072
25073W        W68126  18.073  18.807  22.682 -0.5451 -0.2503  0.0229
25074W        W68127  27.152  27.437   9.018  0.1584 -0.0126 -0.2486
25075W        W68128  26.256  13.799  27.125 -0.1197 -0.1370 -0.1668
25076W        W68129  16.630  20.373   0.218  0.1224  0.2036  0.2116
25077W        W68130  24.331  17.034  27.000  0.0672 -0.0738 -0.2132
25078W        W68131  24.679  17.274   4.670 -0.3014  0.0167  0.2911
25079W        W68132  17.746  13.986   8.615 -0.1881  0.4196 -0.0457
25080W        W68133  18.940  32.853   6.911 -0.2781  0.2489  0.0015
25081W        W68134  11.180  13.090   2.439 -0.1748 -0.0486  0.0652
25082W        W68135  33.364  34.210   8.534 -0.4289 -0.2847 -0.0340
25083W        W68136  21.666  12.181   6.742 -0.2568  0.3913 -0.1269
25084W        W68137   3.900  29.854  14.767 -0.3193  0.5046  0.1086
25085W        W68138  27.500  25.830   5.106  0.2453 -0.3065 -0.0661
25086W        W68139   3.834  32.329   5.279 -0.0072  0.1916  0.2447
25087W        W68140   4.854  27.200  28.049 -0.1409 -0.0919 -0.0298
25088W        W68141  22.465  23.989  28.884 -0.0749 -0.3253  0.1988
25089W        W68142   1.598   2.044   0.206  0.3284  0.0690  0.6571
25090W        W68143   4.045   2.926   7.107  0.0026 -0.0465 -0.3089
25091W        W68144  15.782  12.714   5.924  0.1750 -0.0529  0.1352
25092W        W68145  18.090  22.584  27.289  0.0009  0.0090 -0.3106
25093W        W68146  25.076  24.933   7.064  0.0891  0.4367 -0.0240
25094W        W68147  24.549  17.974   6.392  0.0432 -0.1736 -0.1523
25095W        W68148  20.164  12.426  26.403  0.1315 -0.0146  0.3098
25096W        W68149  23.886  16.233   4.574  0.0107  0.0914  0.3515
25097W        W68150  23.377  26.383  21.988  0.1221  0.0383  0.1888
25098W        W68151  29.892  11.729  20.656  0.1956 -0.0783 -0.0873
25099W        W68152  23.844  13.686   1.220  0.0079 -0.1131  0.0540
25100W        W68153  26.328  16.138   1.409 -0.1577  0.0932  0.0610
25101W        W68154   3.882  28.593   6.853 -0.1045  0.0887  0.2550
25102W        W68155  23.948  13.743   9.164 -0.1114 -0.0409 -0.0677
25103W        W68156  16.239  34.313   9.986 -0.0929  0.1044 -0.1222
25104W        W68157  19.939   7.854  19.284 -0.0638  0.0542  0.0560
25105W        W68158  30.329  29.178  15.561  0.2183 -0.1572  0.2212
25106W        W68159  28.124  13.362   3.680  0.1365  0.0341  0.2831
25107W        W68160  25.953  28.146   1.605 -0.1514 -0.0955  0.1970
25108W        W68161  19.580   4.254   8.454  0.0194  0.0463  0.2006
25109W        W68162   4.955  27.264   4.843 -0.3840 -0.1555  0.1620
25110W        W68163   3.089   0.761   0.936  0.0455  0.0234  0.3519
25111W        W68164   8.777  23.139   1.034  0.1153  0.1377  0.2893
25112W        W68165   9.951  20.668   9.406  0.2483 -0.0936 -0.1974
25113W        W68166  27.054  31.300   1.347  0.2213  0.3960  0.1597
25114W        W68167  29.395  15.741   4.771  0.1355  0.1282  0.1160
25115W        W68168   5.194  19.229   6.345 -0.0734  0.2295  0.1599
25116W        W68169  23.483  22.167   4.673  0.3530  0.1802 -0.3123
25117W        W68170   1.109   7.191   5.617 -0.1494 -0.0599  0.1013
25118W        W68171  13.492  19.649   3.975 -0.1185 -0.4170  0.0267
25119W        W68172  30.226   2.223  26.648  0.0818 -0.2717  0.0857
25120W        W68173  18.053  21.024   3.813  0.0722  0.2547 -0.0705
25121W        W68174  10.222  34.098   2.794 -0.0970  0.0501 -0.3630
25122W        W68175  22.258  13.247  26.371  0.3955  0.1493 -0.0842
25123W        W68176  27.039  10.899   5.134 -0.2776 -0.3919 -0.0541
25124W        W68177  25.897  28.694  22.208 -0.1512 -0.0056  0.2199
25125W        W68178  32.564  22.355   1.625 -0.0850 -0.0114 -0.1378
25126W        W68179  25.346  30.956   0.636  0.0760  0.2415  0.0094
25127W        W68180   1.052  18.343  28.373  0.1346  0.1046  0.1943
25128W        W68181  30.007  16.609   7.237 -0.1889 -0.0540  0.4335
25129W        W68182  23.959  19.507  27.722 -0.0956 -0.3294  0.0579
25130W        W68183  13.430   6.972   3.809  0.1972 -0.0408 -0.3260
25131W        W68184  26.126  34.390   7.400  0.1967  0.0268 -0.1208
25132W        W68185  29.770  28.774   6.322 -0.0591  0.0539  0.0990
25133W        W68186  32.976  16.679  28.419 -0.0083  0.0841 -0.3621
25134W        W68187  27.796  16.615  29.071 -0.1468  0.0406 -0.0850
25135W        W68188  14.266  15.400   4.174 -0.1592 -0.0408  0.1568
25136W        W68189   7.984   3.206  26.240  0.0351  0.0805  0.0701
25137W        W68190  20.906  28.235  25.803 -0.1555  0.2019  0.0382
25138W        W68191  22.018  28.672   5.646 -0.0401  0.2259  0.0628
25139W        W68192  23.231  25.779  26.521 -0.0023 -0.0323 -0.0452
25140W        W68193  23.768  33.356   9.874  0.2488  0.3083  0.0638
25141W        W68194  11.843  20.999  19.953 -0.1349  0.0205  0.1379
25142W        W68195   9.924  24.973   7.539  0.5390 -0.0424 -0.0944
25143W        W68196  24.600  21.819  23.804  0.2117  0.1523 -0.0348
25144W        W68197  30.032  13.941   4.576  0.2888  0.0672 -0.0969
25145W        W68198  22.981  32.624   9.345 -0.0797 -0.0024 -0.3724
25146W        W68199  18.037  20.970  23.330  0.1822  0.3139 -0.0426
25147W        W68200  23.073  33.187  18.885 -0.0923  0.1651 -0.0022
25148W        W68201  15.971  18.774   6.604  0.1897  0.1981  0.0644
25149W        W68202  30.849  17.179   8.382 -0.2064  0.1416  0.1436
25150W        W68203   4.200  25.943  14.460 -0.0113  0.2523  0.0164
25151W        W68204  25.067  14.797   9.218  0.0504 -0.0420  0.0557
25152W        W68205  20.734  27.229   1.871 -0.0136 -0.0479 -0.3739
25153W        W68206  21.021  20.662  20.619  0.0105 -0.0779 -0.0850
25154W        W68207   0.952  15.628   1.152  0.1985 -0.5033 -0.1115
25155W        W68208  25.574  24.816   2.473 -0.1632  0.0149 -0.2089
25156W        W68209  29.290   7.695  24.448 -0.1498 -0.0525 -0.1850
25157W        W68210  14.147  24.500  28.945  0.3266  0.3721 -0.2713
25158W        W68211  19.747   3.501   5.248 -0.0509  0.0325  0.0595
25159W        W68212   1.108  19.598   4.680  0.0681 -0.3708 -0.1479
25160W        W68213  20.604  26.608   0.213  0.0776 -0.0663 -0.0519
25161W        W68214   9.732  18.169   6.385 -0.1274  0.0051 -0.0372
25162W        W68215  20.449  29.932  10.625 -0.1259  0.0821 -0.1309
25163W        W68216  11.822  25.884  27.184  0.0397  0.1206 -0.1300
25164W        W68217   3.270  13.058   4.999  0.0406 -0.1561 -0.5340
25165W        W68218  23.924  10.177  28.206  0.1174  0.0553  0.0894
25166W        W68219   6.423  34.530  28.795  0.2098 -0.0021 -0.0417
25167W        W68220  24.620   9.049   2.823  0.1181  0.0395  0.1414
25168W        W68221  11.755  24.917   2.338 -0.0118 -0.0887  0.2271
25169W        W68222  27.282  28.065  26.020  0.1724  0.3024  0.3091
25170W        W68223  33.533   6.019   9.310 -0.1788 -0.0574  0.0780
25171W        W68224  24.667  21.850   5.909  0.1780  0.1567 -0.0192
25172W        W68225   0.479  16.353   6.647  0.0326  0.1149  0.0074
25173W        W68226   5.820  24.105   1.218  0.0691  0.5077 -0.2321
25174W        W68227  33.056   5.967   9.091 -0.1306 -0.1357 -0.0888
25175W        W68228   7.532   5.416  26.944 -0.4523  0.0996 -0.0114
25176W        W68229  31.744  18.751   9.352 -0.1198  0.2152 -0.3870
25177W        W68230  18.981   7.873  25.518  0.2785  0.1733  0.1597
25178W        W68231  33.235  31.942   2.073 -0.0747  0.0065 -0.0642
25179W        W68232  14.004  17.392   0.390 -0.3052  0.1932 -0.0732
25180W        W68233  27.908  15.446   8.624  0.2306 -0.2140 -0.0454
25181W        W68234   9.471  24.618   3.058 -0.0403 -0.1834  0.2773
25182W        W68235  14.881   4.180   9.014 -0.1102 -0.0780 -0.1506
25183W        W68236   0.674  20.661   9.604  0.0615 -0.1124 -0.3866
25184W        W68237  25.232  29.957  28.635  0.0636  0.0706  0.1460
25185W        W68238   1.059  33.407  20.271 -0.2011 -0.2649  0.0561
25186W        W68239   3.813  25.870  13.371  0.2731  0.0975 -0.0817
25187W        W68240  12.555  31.060   7.655 -0.0138 -0.1120 -0.2569
25188W        W68241  15.742  17.557  28.804 -0.0497  0.0369 -0.2077
25189W        W68242  22.922  10.812  19.789 -0.2959  0.1148 -0.1314
25190W        W68243  29.489   9.664  27.706 -0.1757  0.1180 -0.0944
25191W        W68244   2.792  24.006   8.095  0.2152 -0.0090  0.0746
25192W        W68245   0.889  26.160  23.893 -0.2723  0.0283 -0.1101
25193W        W68246  28.416  12.150   7.433  0.2103  0.0688  0.1849
25194W        W68247  29.054  22.307   6.726  0.0536  0.0526  0.2195
25195W        W68248  12.973  14.999   0.910  0.4428 -0.0018 -0.1584
25196W        W68249  13.411  28.343  27.010  0.1683 -0.2040  0.1379
25197W        W68250   9.585  13.600   9.720  0.2002 -0.0040 -0.0048
25198W        W68251  27.652  32.407  28.779 -0.1885  0.1087  0.0212
25199W        W68252  16.479  19.225   7.168  0.0998 -0.0231 -0.0698
25200W        W68253   1.494  21.841   3.793  0.0493 -0.2775  0.3422
25201W        W68254  23.275  19.092  27.636  0.2209  0.0083  0.0373
25202W        W68255  18.864  19.014   8.159  0.0332 -0.0005 -0.1477
25203W        W68256  26.635   5.130   3.751  0.2227 -0.2711 -0.2502
25204W        W68257  24.157  15.402   7.872 -0.2250  0.0031  0.0866
25205W        W68258   5.139   1.842   2.720  0.0882  0.0420 -0.1319
25206W        W68259  27.891  19.315  14.334 -0.1325 -0.0715 -0.0036
25207W        W68260  22.390  30.529   9.640  0.1131  0.0469  0.3160
25208W        W68261  24.511  17.813   4.945  0.3176 -0.1470 -0.1365
25209W        W68262   5.651  32.800  24.326  0.1245  0.1648 -0.0411
25210W        W68263   3.446  24.871   6.005  0.2040 -0.2011  0.1390
25211W        W68264  31.581  21.739   4.725 -0.1946 -0.2445 -0.1987
25212W        W68265  25.571  14.390   5.882  0.2814 -0.2284  0.2004
25213W        W68266  19.645  17.822  21.391  0.2895 -0.0689 -0.0571
25214W        W68267   3.729   0.829  10.129  0.1314  0.0010  0.0274
25215W        W68268  29.586   7.911  15.850 -0.0862 -0.0240 -0.2635
25216W        W68269  29.433  29.805  23.206  0.0863  0.2482  0.0321
25217W        W68270  23.392   5.414   7.128 -0.1006 -0.2209 -0.0079
25218W        W68271  31.543  14.152   7.577 -0.0194 -0.0078  0.0048
25219W        W68272  31.266   5.661  28.136  0.0414  0.0036 -0.0604
25220W        W68273  30.865  22.645   2.055  0.0754  0.0251  0.1693
25221W        W68274   0.711  10.772   1.555 -0.1831  0.1025  0.2098
25222W        W68275  14.879  22.898   7.920 -0.0664  0.1318  0.0790
25223W        W68276  24.095  27.626   4.965  0.2246  0.5009 -0.0573
25224W        W68277  23.275  20.403   3.012 -0.1868 -0.3751  0.0758
25225W        W68278  30.181  28.118   5.081  0.2163  0.0933 -0.1126
25226W        W68279  23.255  20.907   9.353  0.2349  0.3211 -0.2831
25227W        W68280  19.745  20.359  26.818  0.0395  0.3583  0.5034
25228W        W68281  17.207  20.150   4.710  0.0508  0.1116  0.1518
25229W        W68282  17.845  28.752   7.114 -0.0826  0.2988 -0.0402
25230W        W68283  28.371   7.697  28.444 -0.2907 -0.3534  0.0229
25231W        W68284   5.732   5.379   2.651 -0.1601  0.2884  0.1228
25232W        W68285  27.318  17.537   2.749  0.3573 -0.0378 -0.1028
25233W        W68286  26.385  23.802   2.743  0.1187 -0.3909 -0.1500
25234W        W68287  31.811  32.602   8.652  0.1347 -0.0583  0.0708
25235W        W68288  23.688  27.943   2.191  0.0938  0.2440  0.0152
25236W        W68289  27.582  15.818   2.031  0.0427 -0.4063 -0.0470
25237W        W68290  25.599  17.208   2.811  0.0637 -0.0796 -0.0124
25238W        W68291  21.653  25.196  21.929 -0.1251  0.2596 -0.0968
25239W        W68292  20.287  26.572   8.041  0.0562  0.2206  0.0841
25240W        W68293  28.285  18.326   8.020  0.1651 -0.0402  0.6145
25241W        W68294  15.834   7.778   3.732 -0.1113 -0.0525  0.1633
25242W        W68295  21.741  23.262   9.957 -0.1568 -0.0589  0.0203
25243W        W68296  12.849   5.310  29.055  0.1207 -0.1414  0.2437
25244W        W68297  26.829  15.307   2.579  0.2585 -0.0800  0.0465
25245W        W68298  19.071  27.596  16.632 -0.0392  0.0069 -0.0355
25246W        W68299  15.543  21.057  21.125 -0.3319  0.2202 -0.0387
25247W        W68300   5.932  23.062  19.423  0.0127  0.1258 -0.0082
25248W        W68301  23.257   2.007  19.284  0.1271 -0.1432  0.0526
25249W        W68302  16.619  12.309   4.852  0.1361 -0.4855  0.0033
25250W        W68303  15.920  29.969   0.526 -0.4442  0.5033 -0.0129
25251W        W68304   2.704  27.041   5.952  0.1062 -0.1409  0.1237
25252W        W68305   3.803  19.531   3.932  0.1463 -0.0452 -0.0251
25253W        W68306  19.821   8.552   9.050  0.1450 -0.2160  0.1083
25254W        W68307  28.969  13.150  24.860 -0.1152 -0.1742  0.3726
25255W        W68308  12.074  14.248   1.080  0.0321  0.1238 -0.1696
25256W        W68309  28.939  13.842   1.446 -0.0731 -0.0696 -0.1014
25257W        W68310  23.575  16.202  27.273 -0.2236 -0.0126 -0.3559
25258W        W68311  19.313  12.265   0.972 -0.0751  0.1389 -0.0330
25259W        W68312  22.248  15.956   9.981 -0.0114  0.2897  0.5093
25260W        W68313  30.649  22.830   6.186 -0.0990  0.2947 -0.4014
25261W        W68314  26.040  12.976  25.381 -0.0904 -0.1438 -0.1610
25262W        W68315  21.908  16.681  14.463 -0.3661 -0.1928 -0.1127
25263W        W68316  16.188  12.137   5.348 -0.2763 -0.2552 -0.2122
25264W        W68317  32.540  16.838   7.192  0.2733  0.1330 -0.0228
25265W        W68318  10.764  24.953   5.187  0.0765 -0.1617 -0.1125
25266W        W68319  23.415  31.624   4.510 -0.2132  0.2577 -0.1948
25267W        W68320  11.706  15.101   6.072  0.1447  0.0741 -0.0316
25268W        W68321  28.720  18.585   6.150 -0.0317  0.3286  0.2414
25269W        W68322  12.746  20.543  21.846 -0.1995 -0.0064  0.0054
25270W        W68323  16.058  23.044   9.758 -0.1921  0.0737 -0.0249
25271W        W68324  26.821  11.651   6.662 -0.0236  0.0959  0.1459
25272W        W68325  12.014  19.541   9.411 -0.2054 -0.0152  0.2063
25273W        W68326  20.042  23.271  10.172 -0.1099  0.4338  0.0198
25274W        W68327   1.952  22.474   5.316  0.0914 -0.0977 -0.0166
25275W        W68328  29.454  25.253  23.737  0.0472  0.2301  0.1415
25276W        W68329  26.355  11.772   8.297 -0.1328  0.2126  0.0912
25277W        W68330  13.846  13.633   6.903  0.1346  0.2131 -0.0688
25278W        W68331  20.473  16.722  12.749 -0.0949  0.2624  0.1235
25279W        W68332  20.015  18.005   8.566  0.1742  0.0249 -0.2077
25280W        W68333  23.953  19.930   9.501 -0.0153 -0.1519 -0.2408
25281W        W68334  17.840   0.925  27.849 -0.3136 -0.2211  0.2024
25282W        W68335  21.373   6.559   7.350  0.3416 -0.1080 -0.0987
25283W        W68336  21.532  20.459   2.596  0.0123  0.2671 -0.1473
25284W        W68337   0.628   9.231   8.802 -0.0980 -0.2112 -0.0229
25285W        W68338  17.631  22.724   4.617 -0.0004  0.1408  0.1507
25286W        W68339  19.522  15.737   5.216  0.1773 -0.0418 -0.1650
25287W        W68340  15.678  18.356   4.007 -0.4697 -0.1445  0.3184
25288W        W68341  22.294   0.940   6.716  0.0612 -0.0875 -0.1573
25289W        W68342  28.778  14.214   6.722  0.2822  0.0013 -0.2233
25290W        W68343  11.154  17.779   1.323 -0.0996  0.0407 -0.0356
25291W        W68344  23.193  16.141  28.553 -0.1372 -0.2074  0.0583
25292W        W68345  18.590  28.507  21.594  0.1613  0.0875 -0.0235
25293W        W68346  24.867  29.951  27.450  0.2036 -0.0934 -0.1884
25294W        W68347  10.450   9.586   8.434  0.2521 -0.2489  0.0491
25295W        W68348   9.584   8.054   1.522  0.1118  0.0526  0.2175
25296W        W68349  17.103   7.147  15.601 -0.1711 -0.1043  0.0613
25297W        W68350   2.207  20.881  24.903 -0.0477  0.1832  0.0817
25298W        W68351   3.681  15.565  23.701 -0.1341  0.0570  0.2753
25299W        W68352  19.815  19.085   4.106 -0.4130  0.0731 -0.2209
25300W        W68353   6.130  19.460  18.196 -0.0070 -0.1909 -0.1288
25301W        W68354  32.021  11.274   5.651 -0.1524  0.0131 -0.1208
25302W        W68355  19.260  11.229   5.756  0.0371  0.2447  0.0379
25303W        W68356  27.784  23.092   3.306 -0.2004 -0.1391 -0.2076
25304W        W68357   1.828  10.699   6.436 -0.1596  0.0394  0.0392
25305W        W68358  16.792  26.977   7.814 -0.3832 -0.3120 -0.2983
25306W        W68359  33.054  29.772   5.335  0.2773 -0.2381 -0.2604
25307W        W68360  33.809  13.052   8.404 -0.3842  0.2213  0.1718
25308W        W68361  21.436  11.556   2.536 -0.0136 -0.0529  0.0954
25309W        W68362  25.947  13.072  19.397 -0.0156 -0.2059  0.0797
25310W        W68363  12.499  25.194   0.846  0.1191 -0.1618  0.0503
25311W        W68364  25.658  11.438   8.534  0.0189 -0.1232  0.1273
25312W        W68365  21.350  16.983   7.680 -0.0816  0.2272  0.1268
25313W        W68366  18.751  26.792   1.642  0.1911  0.2256  0.2675
25314W        W68367  24.303  23.144   7.214 -0.0538 -0.0661  0.1742
25315W        W68368  21.704  29.651   3.381 -0.2267  0.1784 -0.0068
25316W        W68369  18.292   9.104   9.147  0.0476  0.0485 -0.0237
25317W        W68370  24.620  17.890   9.136  0.1705  0.3674 -0.0798
25318W        W68371  12.627  17.363   9.557 -0.1096  0.0564 -0.0092
25319W        W68372  12.224  16.267   7.683  0.1582 -0.2765  0.2184
25320W        W68373  20.646  32.505   8.404 -0.3427 -0.3651 -0.1619
25321W        W68374  15.341  19.516   3.159 -0.0490 -0.0510  0.0884
25322W        W68375   8.491  24.002   7.427  0.0583 -0.1724 -0.3622
25323W        W68376  32.452  24.753   5.872 -0.0344  0.1011 -0.2882
25324W        W68377  21.481  29.340  20.104 -0.3480 -0.2305 -0.1781
25325W        W68378  34.611  23.118  27.056  0.0170  0.0111  0.0942
25326W        W68379  22.472  23.364  17.493  0.1685  0.0416  0.1481
25327W        W68380  25.716  15.307   3.171 -0.7089  0.0436  0.2854
25328W        W68381  17.113  12.501   6.381 -0.2723  0.3827  0.1046
25329W        W68382  30.697  27.919   3.131  0.1409 -0.2856 -0.0673
25330W        W68383   9.292  20.908   7.681 -0.1710  0.0369 -0.1017
25331W        W68384  15.957  22.277   6.988  0.0881 -0.0442  0.0801
25332W        W68385   5.970  23.545   1.068  0.1681  0.2643 -0.1127
25333W        W68386  19.390   4.715  25.111 -0.0670  0.0666 -0.0338
25334W        W68387  11.401   3.100   7.932  0.0133  0.3054  0.0750
25335W        W68388  21.615  34.344   8.194 -0.1478  0.2516 -0.0645
25336W        W68389  18.388  34.119   7.037 -0.1801 -0.1513 -0.1287
25337W        W68390  17.055   6.316   6.350  0.1812  0.1494 -0.0375
25338W        W68391  22.716  21.621   8.978 -0.3034  0.2905  0.0590
25339W        W68392  22.382  26.872   8.744  0.0396  0.1827 -0.1155
25340W        W68393  27.882   6.253  24.218 -0.1266 -0.0021  0.1388
25341W        W68394  23.748  15.674   1.200  0.0639  0.1081 -0.3387
25342W        W68395  30.205   2.129   6.799 -0.2666 -0.3702  0.3884
25343W        W68396  26.710  23.714  26.483  0.0686 -0.0871  0.1849
25344W        W68397  23.696  19.715   5.605 -0.1816  0.1538 -0.0358
25345W        W68398  31.243  28.529   0.152  0.0825  0.0397 -0.1030
25346W        W68399  14.109  16.763   7.912 -0.1952  0.1259 -0.2687
25347W        W68400  13.936   8.823   9.953  0.0590 -0.3966 -0.0368
25348W        W68401  25.529  14.693  27.803  0.1151 -0.3686  0.2744
25349W        W68402   1.466  11.263   0.956  0.1962  0.0918  0.1431
25350W        W68403  19.702  15.382   7.550 -0.2273 -0.1281 -0.2431
25351W        W68404  32.641  20.934   5.158 -0.1021 -0.0365 -0.2109
25352W        W68405  34.585   3.055  28.182  0.1499 -0.1667 -0.0536
25353W        W68406  33.919  18.362   7.604 -0.5890 -0.0848 -0.0105
25354W        W68407  26.171   9.409   9.615 -0.5222  0.2204  0.0343
25355W        W68408  14.729  16.779  26.623  0.1593 -0.2226  0.0488
25356W        W68409  18.302  12.259   4.352  0.0408 -0.0356 -0.2143
25357W        W68410   5.556  17.998   6.269 -0.0089 -0.0106 -0.1449
25358W        W68411  31.798   0.882  27.457  0.0715  0.1581 -0.4352
25359W        W68412  15.804  19.898   5.737 -0.1298 -0.0726  0.0916
25360W        W68413  18.768  24.546  10.068 -0.0910  0.0628  0.0290
25361W        W68414  23.808  28.958   4.978  0.0353 -0.0321 -0.0681
25362W        W68415  26.396  32.417   6.939  0.0757 -0.0966 -0.2665
25363W        W68416  29.640  26.513   8.398 -0.0577 -0.2363  0.0161
25364W        W68417  15.110  14.517   6.371 -0.2263 -0.4863 -0.1549
25365W        W68418  21.267  30.088  21.450 -0.1848 -0.2402 -0.1442
25366W        W68419  26.958   6.898   5.918 -0.1998 -0.1342 -0.0989
25367W        W68420   7.209  19.397   4.971 -0.1804 -0.4560 -0.2416
25368W        W68421  29.170  12.169  20.845  0.1132  0.1408  0.0491
25369W        W68422  18.762  28.700   8.623 -0.2886  0.0814 -0.0847
25370W        W68423  27.640  16.796   7.102  0.1745  0.1824  0.3763
25371W        W68424  34.385  27.466   0.169  0.0331  0.0043  0.0134
25372W        W68425  33.387  28.461  26.936 -0.3159  0.3125  0.1361
25373W        W68426  18.799  20.741   4.503  0.5675 -0.0626 -0.1107
25374W        W68427  15.629  10.517   1.463 -0.2911 -0.2826 -0.1351
25375W        W68428  31.031  10.896  23.419 -0.0675  0.2093  0.3473
25376W        W68429  24.293  27.435  25.600  0.1087  0.3877 -0.1700
25377W        W68430  25.535  21.683   7.358  0.2018 -0.2059 -0.0948
25378W        W68431   0.643  26.202  24.463  0.2950  0.2807  0.0959
25379W        W68432  27.745  30.469   5.506  0.2107  0.0518 -0.2465
25380W        W68433   8.632  15.164   4.691 -0.0723  0.2223  0.0873
25381W        W68434  12.718  20.763  28.201  0.0585 -0.1123  0.1475
25382W        W68435  26.091  26.315  25.157  0.0111  0.0692 -0.0505
25383W        W68436  29.931  34.021   8.936 -0.0743 -0.0632 -0.3944
25384W        W68437  16.582  24.121   4.239 -0.0156 -0.0303 -0.3237
25385W        W68438  15.320  17.963   6.488  0.0871  0.3049  0.1747
25386W        W68439  14.474  32.786   5.135  0.1517  0.4496 -0.0798
25387W        W68440   5.620   8.271  24.215 -0.0456 -0.0605  0.1947
25388W        W68441  22.485  31.437  21.867 -0.0161 -0.2008 -0.0991
25389W        W68442  20.510  10.644   2.834  0.1713 -0.0572 -0.2418
25390W        W68443  22.515  32.666  23.332 -0.1477  0.0947  0.2515
25391W        W68444  20.983  12.923  26.333 -0.1024  0.4042 -0.1981
25392W        W68445  24.311  12.079   6.938 -0.1322  0.0201 -0.2775
25393W        W68446  25.430  28.471   4.949 -0.1891 -0.1356  0.0253
25394W        W68447  28.451  22.216   7.330  0.1558  0.1372 -0.2116
25395W        W68448  15.571  15.286   6.654 -0.3175  0.1575 -0.2146
25396W        W68449  19.278  13.559  23.925  0.0138 -0.2231  0.1616
25397W        W68450  20.193  22.510   8.945 -0.0733 -0.1913 -0.1628
25398W        W68451  23.500  19.636  29.121 -0.1166 -0.2129  0.0280
25399W        W68452  15.585  17.155   8.533 -0.0748 -0.0219  0.1469
25400W        W68453  16.817  12.910  28.833 -0.0376  0.2219 -0.0947
25401W        W68454  13.629  15.275  10.310  0.3385  0.2040  0.3034
25402W        W68455  21.597   1.103   5.468 -0.0421  0.0533  0.3732
25403W        W68456   2.199  19.874  28.132  0.2526 -0.2376  0.1150
25404W        W68457  23.885  22.504   2.694 -0.1832 -0.0666  0.2741
25405W        W68458  15.774  18.173   6.538  0.3086  0.1815 -0.4468
25406W        W68459   7.724  12.277   0.864 -0.0958 -0.3032 -0.1321
25407W        W68460   6.949  22.744   6.061  0.1290 -0.0979  0.1431
25408W        W68461  21.736   4.748   4.071 -0.1929 -0.2643  0.0142
25409W        W68462  20.888  14.460   4.952  0.1529 -0.0876 -0.0191
25410W        W68463  13.464  27.462   8.264 -0.0082 -0.1535  0.0574
25411W        W68464  27.885  24.877   0.277 -0.0255 -0.1135 -0.1964
25412W        W68465  12.825  24.505   2.623  0.0932 -0.1217 -0.0177
25413W        W68466  32.504   8.964  21.368 -0.0114 -0.1626 -0.0788
25414W        W68467  33.950   1.788   8.157 -0.1116  0.1536 -0.1369
25415W        W68468  22.691  17.212   0.801 -0.0864  0.1013  0.2079
25416W        W68469   9.659  22.948   2.701 -0.0197  0.1597 -0.0470
25417W        W68470   1.505  14.842   8.630  0.0202 -0.1525  0.0999
25418W        W68471  14.752  27.022  24.812  0.0455  0.1577 -0.2406
25419W        W68472  29.865  21.606  27.822 -0.1294  0.0721  0.0026
25420W        W68473  19.741  27.388   2.939 -0.1423 -0.1466  0.0252
25421W        W68474  10.759  20.792   0.137  0.0797  0.1733  0.0868
25422W        W68475  15.364  12.878  24.428 -0.3819  0.1918 -0.1210
25423W        W68476  23.378  18.144  25.944  0.1223  0.2353  0.1053
25424W        W68477  16.625  26.737   4.692 -0.2631 -0.0171  0.1875
25425W        W68478  34.361  24.873   2.606 -0.3215  0.3827 -0.2083
25426W        W68479  23.569  26.470  24.041 -0.0552  0.2467 -0.2181
25427W        W68480  17.895  20.419   4.081  0.1920  0.2637  0.0943
25428W        W68481  13.054   9.684  10.140  0.2956  0.1559  0.0542
25429W        W68482  21.769  16.614   6.266 -0.1463 -0.1046 -0.3269
25430W        W68483  14.334   2.023   4.683  0.1143 -0.4714 -0.1593
25431W        W68484  16.029  18.435  26.108 -0.4007  0.2734 -0.1044
25432W        W68485  17.064  20.619  23.796 -0.3568  0.4444 -0.2199
25433W        W68486  26.170  16.026   5.650 -0.1892 -0.0077  0.0442
25434W        W68487  25.792  13.849   8.090  0.0371  0.0467 -0.3014
25435W        W68488  34.230  11.695  26.368 -0.0179  0.2539 -0.0517
25436W        W68489  12.696   2.162   4.176  0.3467  0.0285 -0.1347
25437W        W68490  26.221  15.531  29.027 -0.0149  0.1452 -0.0609
25438W        W68491  33.113   7.464   5.486  0.1036 -0.0281  0.0241
25439W        W68492  30.100  14.192   2.025  0.0097  0.1323  0.0523
25440W        W68493  21.109  24.517   9.762 -0.0620 -0.2862  0.0094
25441W        W68494  14.259  28.292   2.076 -0.2980 -0.2658 -0.2062
25442W        W68495  33.934  16.598   7.160  0.1440 -0.3605  0.2324
25443W        W68496  28.924   4.612   5.307 -0.0059 -0.0376 -0.2960
25444W        W68497  24.646  16.122  28.717 -0.1737 -0.1620  0.0951
25445W        W68498  33.155  25.812  25.936  0.1420 -0.1666 -0.1429
25446W        W68499  21.698   5.996  10.118 -0.0203  0.1077  0.0461
25447W        W68500   5.825  12.848   5.858  0.0391  0.0228 -0.1783
25448W        W68501   6.121   5.881   4.820 -0.0493  0.1348  0.1665
25449W        W68502  19.038   6.984  28.468  0.0187  0.2639  0.0770
25450W        W68503  13.009  24.295  27.837  0.1305 -0.2637  0.2223
25451W        W68504  29.969  11.738  23.056  0.0612 -0.1302  0.1694
25452W        W68505   9.339   9.195   3.906 -0.0411 -0.0632 -0.1365
25453W        W68506  19.343  25.518   9.124  0.2181  0.0508 -0.2156
25454W        W68507  13.503  22.510   6.168  0.1103  0.0782 -0.0869
25455W        W68508  17.804  30.314  22.580  0.0968 -0.0132 -0.1648
25456W        W68509  32.132   7.781   9.158  0.0721  0.0004  0.1606
25457W        W68510  20.945  16.460   8.167 -0.3097 -0.3008 -0.1127
25458W        W68511  15.105  24.159  28.844 -0.2722 -0.1539 -0.0603
25459W        W68512  19.872   0.122   7.281  0.0255 -0.3332 -0.0863
25460W        W68513  12.330  24.003   0.733 -0.0785  0.0607  0.2227
25461W        W68514  14.322  12.560  28.013 -0.0288 -0.2628 -0.1026
25462W        W68515  11.215  16.920   6.706 -0.1946 -0.6065  0.0545
25463W        W68516  24.897  12.634   9.523  0.0758 -0.0906  0.0087
25464W        W68517  23.657   9.179   8.051  0.0970  0.1932 -0.4383
25465W        W68518  12.196  31.878   7.930  0.0612 -0.3784 -0.0185
25466W        W68519  25.895   9.793  27.710  0.0637 -0.3091  0.1684
25467W        W68520  27.870  29.336  21.544  0.0460  0.2072 -0.1546
25468W        W68521  11.658  13.343   4.817 -0.1292  0.2899 -0.0793
25469W        W68522  14.276  25.403   9.566 -0.1926  0.0941 -0.2135
25470W        W68523  22.409  19.074   4.710 -0.3929  0.1359  0.0085
25471W        W68524  18.889  25.436   9.605 -0.0242 -0.1317 -0.0582
25472W        W68525  29.832  26.999  27.756 -0.0101 -0.1741  0.0002
25473W        W68526  21.347  13.835   7.507 -0.1935  0.2030  0.0605
25474W        W68527   5.646   3.499  26.416  0.3047  0.0807  0.3474
25475W        W68528  19.596  12.066   7.893  0.1671  0.0537  0.5274
25476W        W68529  31.763  21.816   5.525 -0.2397 -0.2358  0.3608
25477W        W68530  16.974  25.490   8.011 -0.3063 -0.2080  0.0190
25478W        W68531  33.174  29.688   0.383  0.0649  0.2399  0.1494
25479W        W68532  19.304  24.142   9.629  0.0865 -0.0526  0.0602
25480W        W68533  23.641  10.521   5.036 -0.0798  0.2729  0.0303
25481W        W68534  23.307  13.609  27.574  0.0916  0.2168  0.2945
25482W        W68535  27.872  14.979  21.194 -0.2738 -0.0145 -0.0320
25483W        W68536  20.628  16.020  24.066 -0.1578  0.0944  0.1802
25484W        W68537  33.989  20.812  24.222  0.1499 -0.2793  0.0603
25485W        W68538  21.165  14.226   8.617 -0.2654 -0.2369  0.0621
25486W        W68539  24.977  17.959   6.072  0.0229  0.0919  0.0455
25487W        W68540  17.627  17.509  28.884  0.1811  0.1987  0.1280
25488W        W68541  19.640  14.559   6.976 -0.1061  0.2325  0.1207
25489W        W68542  26.548  17.794   1.893  0.1516  0.0086  0.1545
25490W        W68543  27.227  31.928  29.021 -0.0540 -0.2329 -0.1623
25491W        W68544  15.473  11.953   2.413 -0.1545  0.0172  0.0076
25492W        W68545  27.623  28.347   0.130  0.0344 -0.0251 -0.0010
25493W        W68546  14.796  17.733  22.584  0.0966 -0.5390 -0.4625
25494W        W68547   0.264  15.977  20.666  0.0880 -0.0616 -0.2230
25495W        W68548   9.192  12.946   9.612  0.0597 -0.0286 -0.1585
25496W        W68549  20.694  21.432   2.198 -0.2749  0.1112  0.0992
25497W        W68550  25.428  30.366   5.371 -0.3002 -0.0081  0.1347
25498W        W68551   0.555  25.250   0.110 -0.0657  0.1301 -0.0881
25499W        W68552  19.791  17.646  23.419 -0.1550 -0.0532  0.0264
25500W        W68553  29.730   7.843   1.055  0.0967 -0.0161 -0.2986
25501W        W68554   2.785   2.831   1.666  0.1423  0.2347 -0.2094
25502W        W68555  17.044   8.414   7.918  0.0025  0.1036 -0.0725
25503W        W68556  17.856  22.246  24.076  0.0185  0.0656 -0.2421
25504W        W68557  22.257  24.550  27.354  0.1346 -0.1614  0.1777
25505W        W68558   9.421  13.760  27.855 -0.0005 -0.1609  0.1470
25506W        W68559  30.595  26.262  27.863  0.3143  0.0000 -0.1710
25507W        W68560  29.301  33.880  10.089 -0.2224 -0.2129 -0.0335
25508W        W68561  13.437  21.894   2.778  0.1378 -0.4874  0.0752
25509W        W68562  26.553  29.161   7.442 -0.1391 -0.1373 -0.0052
25510W        W68563  19.090   5.825   5.947  0.1609  0.0152 -0.1535
25511W        W68564  21.742  17.707   8.880  0.3023  0.1645  0.1098
25512W        W68565   5.864  23.327   9.146 -0.0612  0.1900  0.0605
25513W        W68566  30.023  24.736  16.682  0.0465  0.0552  0.3238
25514W        W68567  19.901  25.838  15.787  0.1018  0.2586  0.1703
25515W        W68568  29.333  21.095   4.485  0.0135 -0.4565 -0.1051
25516W        W68569  19.395  13.974  27.338  0.0544  0.1966 -0.1099
25517W        W68570  15.454  16.609  28.662  0.0669  0.1274 -0.0990
25518W        W68571  26.068  14.247  21.487 -0.2522 -0.1820  0.0047
25519W        W68572  28.342  18.874  28.963 -0.0899  0.1952 -0.3224
25520W        W68573   0.578   6.490  27.524 -0.1172 -0.2036  0.1641
25521W        W68574  26.216   6.801   8.546 -0.1313 -0.2192  0.1083
25522W        W68575  19.081  11.450   8.572 -0.1345  0.1415 -0.1363
25523W        W68576  29.821  30.467   1.942  0.2626  0.1240 -0.1428
25524W        W68577   3.220  15.923   4.564  0.2189 -0.1049 -0.0616
25525W        W68578  26.408  27.421   1.103  0.2522  0.1028  0.1833
25526W        W68579  25.647  34.422   0.239 -0.1729 -0.1227  0.1701
25527W        W68580  25.214  15.565   2.396  0.4485  0.0414 -0.4538
25528W        W68581  28.945  17.425   9.164 -0.0212 -0.0881  0.0116
25529W        W68582  14.598  25.238   5.583 -0.0832  0.3762  0.0277
25530W        W68583  18.808   6.447   7.156  0.0185  0.3695  0.1685
25531W        W68584  23.940  21.573   3.581 -0.1589 -0.2653 -0.2151
25532W        W68585  19.216  22.127   7.127 -0.0559  0.3148  0.2282
25533W        W68586  27.299  16.408   3.949 -0.0874 -0.3444 -0.3004
25534W        W68587  29.511  33.612   9.073  0.2734 -0.2221  0.1599
25535W        W68588  32.302  20.965   9.124 -0.2179 -0.2524 -0.0756
25536W        W68589  15.679  26.511   2.784 -0.1018 -0.3721  0.1142
25537W        W68590  24.157  23.495   4.051 -0.1145  0.0970  0.0331
25538W        W68591  28.217  11.836   6.237 -0.3885  0.3547  0.2387
25539W        W68592  19.024  19.567  16.340 -0.1460 -0.1850  0.1760
25540W        W68593  16.061  29.014  19.705 -0.0203 -0.0812 -0.2204
25541W        W68594   2.871  30.924  26.069 -0.0571 -0.4168 -0.2321
25542W        W68595  16.839  24.381   8.578  0.0936 -0.1620 -0.0363
25543W        W68596   3.430   8.559   8.371  0.0300  0.6289  0.1466
25544W        W68597  20.505  10.871   5.947 -0.0383 -0.3591  0.0093
25545W        W68598  23.595  16.099  28.236 -0.0046 -0.1569  0.1663
25546W        W68599  25.018  14.283   7.495  0.1084 -0.2855  0.0682
25547W        W68600  23.458  23.665  15.095 -0.1582 -0.1346 -0.0831
25548W        W68601  16.249  16.509  28.137  0.0311 -0.0110  0.2462
25549W        W68602  31.077  12.390  10.095  0.0640 -0.1831 -0.0796
25550W        W68603  31.990  24.025  25.306 -0.0208 -0.0023  0.0727
25551W        W68604   8.396  34.624   8.573 -0.1478 -0.1154  0.1995
25552W        W68605  25.015  30.123   7.685 -0.0985 -0.0362  0.0878
25553W        W68606  25.484  13.573   2.572 -0.3803 -0.2190 -0.2310
25554W        W68607  13.764  19.267   5.153  0.0003 -0.2086  0.1186
25555W        W68608  26.228  33.247   3.502  0.1105 -0.1670 -0.0466
25556W        W68609  27.548   6.837  27.908 -0.0063 -0.2060 -0.3390
25557W        W68610   6.692  16.516  22.878  0.1631 -0.0785 -0.1145
25558W        W68611  25.217  29.168   4.203  0.1674  0.0309 -0.0046
25559W        W68612  24.477  16.860   4.959  0.1168 -0.1951  0.3128
25560W        W68613  34.682  12.434   8.517  0.1826 -0.0656  0.1100
25561W        W68614  24.883  26.233  24.645  0.0449  0.0825 -0.3546
25562W        W68615  22.220   6.443  28.473 -0.2208 -0.0243  0.1454
25563W        W68616  24.540  29.223   4.812 -0.2041 -0.1423  0.0769
25564W        W68617  27.440  17.722   8.717 -0.2707 -0.1385 -0.0284
25565W        W68618  21.250  16.737  22.091  0.4818  0.0162  0.0596
25566W        W68619  29.467  25.851   8.592 -0.1088  0.0799 -0.0242
25567W        W68620  29.217  10.195  16.604 -0.2610  0.2237 -0.0359
25568W        W68621  28.256   0.176   2.855 -0.2776 -0.0353  0.0546
25569W        W68622  22.499  18.465  23.460  0.2280  0.2525  0.1626
25570W        W68623  32.313  15.310  27.299 -0.0700  0.2639  0.1291
25571W        W68624   1.057   7.155  20.121  0.1691  0.1186 -0.0573
25572W        W68625   6.866  28.743  28.148  0.1328 -0.1917  0.1043
25573W        W68626  27.908   1.190  10.116 -0.1634  0.2240  0.2397
25574W        W68627  20.421  22.707   9.716 -0.2250 -0.0660  0.3038
25575W        W68628  27.222  20.030   9.504  0.0285  0.1612  0.0417
25576W        W68629  28.266  17.575   6.257 -0.1873  0.0131 -0.1430
25577W        W68630  19.523   3.917   1.353  0.0328  0.2146  0.0972
25578W        W68631  22.641  24.146   7.424  0.1140  0.2095  0.1435
25579W        W68632  18.546  17.596   7.519  0.0431  0.0418 -0.0821
25580W        W68633  22.254  34.169  27.769  0.2306 -0.0471 -0.1307
25581W        W68634  22.760   7.234   5.397  0.1603 -0.1191 -0.0133
25582W        W68635  24.040  24.307   6.754 -0.2409  0.0860 -0.1458
25583W        W68636  18.642  18.558   3.279  0.0797 -0.3053 -0.0184
25584W        W68637  20.809  29.639   3.896 -0.1741  0.0262  0.2102
25585W        W68638  14.642  11.530   9.101  0.1852 -0.1262  0.1332
25586W        W68639  18.616   9.582   5.440 -0.1134 -0.1858  0.1649
25587W        W68640  26.596  23.878  10.737 -0.0073  0.0905 -0.1001
25588W        W68641  19.853  12.247   5.825 -0.1279  0.1512  0.1120
25589W        W68642  20.060  11.208   6.273  0.0068  0.2368 -0.2174
25590W        W68643  13.685  13.122   8.880 -0.0292 -0.0787 -0.0039
25591W        W68644  23.944  12.174   9.224 -0.0867  0.2689  0.0064
25592W        W68645  13.771   9.271   9.500  0.1851 -0.1613 -0.0631
25593W        W68646  32.306  32.609   3.305  0.1413 -0.0964 -0.2038
25594W        W68647  24.541  23.818   4.553  0.1144 -0.0108  0.2658
25595W        W68648  25.279  20.010   7.687  0.2106  0.0295 -0.1766
25596W        W68649   4.641  11.740   3.736 -0.1837  0.0509 -0.0694
25597W        W68650  14.374  11.363   5.302 -0.3589 -0.2314  0.0034
25598W        W68651  19.222  19.487   8.974 -0.1449 -0.1882 -0.1707
25599W        W68652  17.375  25.972   7.998 -0.0900  0.0968  0.0662
25600W        W68653   2.488  30.749   4.698 -0.2491 -0.2184  0.1967
25601W        W68654  30.698  19.943  10.254 -0.0053  0.0708 -0.0505
25602W        W68655  20.422  12.533   6.222 -0.0910  0.3032  0.0113
25603W        W68656   7.809  19.731   0.664  0.2256  0.0050 -0.0264
25604W        W68657   8.311  25.888   4.622 -0.1086  0.1400  0.1323
25605W        W68658   3.347  21.548   7.896  0.0204 -0.4340 -0.1333
25606W        W68659   8.345  18.483  27.708 -0.1983 -0.0808  0.0888
25607W        W68660  17.365  18.582   9.013 -0.1800  0.0079  0.0742
25608W        W68661  33.427  16.343   9.437  0.1371  0.1883 -0.0016
25609W        W68662  27.681  28.352   0.651 -0.2724 -0.0903 -0.0654
25610W        W68663  16.538  18.790   7.620 -0.0030  0.1089 -0.1622
25611W        W68664  24.881  12.224  25.363 -0.0969  0.0424 -0.1384
25612W        W68665  18.948  14.569  25.830 -0.0263  0.1144 -0.3277
25613W        W68666  24.013  19.298  25.588  0.2571 -0.1325  0.0505
25614W        W68667  29.000  20.425   7.029  0.0831 -0.1684 -0.1015
25615W        W68668  33.319   5.574   0.761 -0.0769  0.1164  0.1116
25616W        W68669   6.283   0.865   3.113  0.1511 -0.0573  0.1902
25617W        W68670  19.948   9.834  17.680  0.3233  0.3479 -0.0431
25618W        W68671  27.592  19.474   7.305  0.1221 -0.0515 -0.1034
25619W        W68672  30.077  20.892   6.905 -0.0369 -0.2828  0.0379
25620W        W68673  30.505   0.669   6.563 -0.0231 -0.0625  0.1226
25621W        W68674  20.086   6.318   7.928  0.3554 -0.1660  0.0975
25622W        W68675   2.401  21.018  15.823 -0.0635  0.0259 -0.2324
25623W        W68676  11.687  12.080  28.301 -0.1411 -0.2975 -0.0828
25624W        W68677  20.170   5.492   0.094  0.0386 -0.0132 -0.1589
25625W        W68678  18.965   8.436   9.231  0.2022  0.0183  0.1139
25626W        W68679  18.959  10.010   6.337  0.1766  0.0543 -0.2098
25627W        W68680  31.970  20.610   1.347 -0.1463 -0.1852 -0.0150
25628W        W68681  22.951  16.655   3.328 -0.1424  0.2036  0.1208
25629W        W68682  33.512  13.783   1.067 -0.2154 -0.0478 -0.2834
25630W        W68683  23.191   4.683  26.745  0.0809  0.1332  0.1173
25631W        W68684   9.091  14.188   4.333 -0.1827  0.1172 -0.1112
25632W        W68685   2.472  25.026  18.016  0.0473  0.0199  0.1613
25633W        W68686  25.332  14.725  16.307 -0.0131 -0.0741  0.5495
25634W        W68687  31.303  24.267   1.362 -0.2031  0.1252 -0.0424
25635W        W68688  19.228  31.097   8.320 -0.1377  0.0387  0.2758
25636W        W68689  10.794  12.303   4.345  0.1509  0.2477  0.0543
25637W        W68690  25.908  14.527   1.918 -0.1358 -0.3257  0.1778
25638W        W68691  31.132  20.296  23.746 -0.3141 -0.0222  0.0727
25639W        W68692   5.158  19.400   3.535 -0.1647  0.0069 -0.1062
25640W        W68693  18.557  15.986   8.563  0.3020  0.3335  0.2762
25641W        W68694  17.786  11.167   7.238  0.2400  0.3348 -0.1636
25642W        W68695  19.760  13.418  28.806  0.1554  0.1065  0.0338
25643W        W68696  15.272  20.381   2.769 -0.1329 -0.0190  0.2706
25644W        W68697  24.189  19.083   9.472 -0.0712  0.0531  0.0396
25645W        W68698  25.254  13.194  23.972  0.0563  0.4148 -0.1109
25646W        W68699   0.858  23.302   9.559 -0.3219  0.0234  0.0137
25647W        W68700  26.422   3.051   9.957 -0.3583 -0.1825 -0.1659
25648W        W68701  25.680  27.076  28.623 -0.0480  0.4639  0.1847
25649W        W68702  24.200   0.473  28.314 -0.1511 -0.2216  0.1896
25650W        W68703  18.726  18.659   5.345 -0.0187 -0.3195  0.0563
25651W        W68704  24.793  23.754   0.317  0.3034  0.0606  0.3113
25652W        W68705   3.707  17.681   0.960 -0.3221 -0.0325 -0.0023
25653W        W68706  30.814  16.121  27.913 -0.1682  0.0321  0.1957
25654W        W68707  14.068  31.632  28.362 -0.2840  0.0010  0.0965
25655W        W68708  13.212  19.397   0.134 -0.5209 -0.4259 -0.1111
25656W        W68709  29.123   5.650   9.520  0.2030  0.1073 -0.1811
25657W        W68710  22.908  17.366   1.351  0.2066 -0.0658 -0.1351
25658W        W68711  23.187  32.842   5.994 -0.3017 -0.1756 -0.0310
25659W        W68712  17.897  11.029  27.279 -0.0457 -0.0691 -0.0636
25660W        W68713   1.958   1.301   9.627 -0.1945  0.0649 -0.1222
25661W        W68714   7.099   6.339   9.803 -0.0947  0.0346  0.0783
25662W        W68715  15.669  12.140  28.796  0.3493  0.3751  0.1992
25663W        W68716   9.476  18.680   3.248 -0.1367 -0.0767  0.0522
25664W        W68717  13.713  30.231  26.745  0.0904  0.0446 -0.1031
25665W        W68718  22.896   4.934   7.458 -0.1079 -0.0438 -0.1287
25666W        W68719  26.274  23.657   5.996  0.4482  0.2607  0.0510
25667W        W68720  29.019  16.509   0.202 -0.1528 -0.1264  0.2660
25668W        W68721  10.056   3.605   9.466  0.1036 -0.1224 -0.1045
25669W        W68722  23.293   8.699   5.968 -0.0051 -0.0019 -0.0412
25670W        W68723   7.030  17.592   4.764  0.1569  0.0898  0.0827
25671W        W68724   3.885  18.064  15.743 -0.1608 -0.0903  0.1364
25672W        W68725   8.871  23.489  28.204 -0.0770  0.1092 -0.2358
25673W        W68726  16.108  20.484   0.929  0.0690 -0.0764 -0.0821
25674W        W68727  18.113  13.729   8.320  0.0489 -0.1046 -0.0402
25675W        W68728  26.144  24.075  22.002 -0.2679 -0.3715  0.1015
25676W        W68729  13.740  12.121   2.680 -0.1229 -0.0034 -0.0633
25677W        W68730   4.409  14.186   6.984  0.4299  0.3895  0.1459
25678W        W68731  25.512  26.728   0.464  0.2734 -0.0173 -0.1650
25679W        W68732  14.574  14.437   6.189  0.1135 -0.1754 -0.2058
25680W        W68733  25.603  22.845  24.155 -0.5697 -0.2377 -0.0163
25681W        W68734   0.586  16.384  20.807  0.0851  0.0168  0.0925
25682W        W68735  22.438  20.847  26.081  0.0308  0.0579 -0.1065
25683W        W68736  11.800  19.750   9.881 -0.0874 -0.2101  0.4242
25684W        W68737  20.167  20.741   8.395  0.1370 -0.0304 -0.1925
25685W        W68738  28.290  24.270  29.098  0.0989  0.2342 -0.3553
25686W        W68739  32.373  27.433   4.654  0.0953  0.0678 -0.2033
25687W        W68740  18.120  21.588  25.058  0.2258 -0.1086 -0.1825
25688W        W68741   2.670   8.544   8.984 -0.0675 -0.0372 -0.2721
25689W        W68742  18.797  17.018   6.960 -0.2234  0.2103  0.0231
25690W        W68743  15.914  23.850   9.218  0.2273  0.1323 -0.0254
25691W        W68744  14.225  11.577  26.440 -0.1270  0.3324  0.3762
25692W        W68745  22.437   7.204   5.745 -0.1731 -0.1455  0.0683
25693W        W68746  26.306  18.481   8.194 -0.0434 -0.1875  0.3055
25694W        W68747  26.225  19.966   5.161 -0.1977 -0.0456 -0.0604
25695W        W68748  32.178   4.069   4.539 -0.0291  0.3585  0.0488
25696W        W68749  14.126  32.096   8.426 -0.2658  0.2468 -0.0105
25697W        W68750  27.358  14.746   6.540  0.1081 -0.0326 -0.1057
25698W        W68751  17.206  19.669  24.175 -0.1346 -0.0272  0.0934
25699W        W68752   9.112   6.838   4.544 -0.0499 -0.2273  0.1472
25700W        W68753   4.471  28.520  26.007  0.1499  0.1190  0.1099
25701W        W68754  23.792  11.923  28.546  0.0825 -0.0496 -0.2668
25702W        W68755  15.342  27.850   8.422  0.2610  0.0494 -0.0522
25703W        W68756  24.450  20.675  23.590 -0.0541 -0.1337  0.2635
25704W        W68757   7.337  23.699   4.916  0.2336  0.2353 -0.2117
25705W        W68758  31.472  17.995   9.132  0.0936  0.0962  0.2075
25706W        W68759  32.300   9.361   0.694 -0.0522  0.1016 -0.0451
25707W        W68760  14.797  18.150  26.061  0.2048  0.2057 -0.0649
25708W        W68761  29.690  22.091   4.845 -0.0678 -0.3861  0.2082
25709W        W68762  29.304  22.608   8.381  0.0431 -0.3148  0.1669
25710W        W68763  25.332  29.522   1.697  0.0362 -0.1512  0.1614
25711W        W68764   7.134  27.288  14.926  0.0769  0.2885 -0.2819
25712W        W68765  23.466  19.636   8.910  0.0978  0.0172 -0.1347
25713W        W68766  31.734  25.089  21.286  0.2014  0.0602  0.4227
25714W        W68767  32.323  24.209   8.409  0.0092  0.2610 -0.0993
25715W        W68768   7.020  19.317  27.933  0.1615 -0.0986  0.0121
25716W        W68769  32.759  30.389  16.975 -0.2718 -0.1613 -0.0458
25717W        W68770  17.500  31.704  28.170 -0.3761  0.0567 -0.3510
25718W        W68771  17.444   4.471   0.740  0.0106 -0.3033  0.2248
25719W        W68772  31.447  19.819  28.647  0.1572 -0.2373  0.1399
25720W        W68773  18.842  16.548   8.073  0.0445  0.0547  0.0205
25721W        W68774  16.043  30.561   8.223  0.3890  0.2822  0.1709
25722W        W68775  19.607  31.328   7.137 -0.1897  0.0371  0.1378
25723W        W68776  13.360  14.677  16.673 -0.2050  0.1027  0.1417
25724W        W68777  32.466   8.637  27.455  0.3435 -0.1931 -0.2975
25725W        W68778  24.981  20.564   3.611 -0.1003  0.2104 -0.1209
25726W        W68779  30.116  23.026   6.597 -0.2202 -0.0454  0.1190
25727W        W68780  24.276  13.045   6.415 -0.1052 -0.1077  0.2069
25728W        W68781  22.872  25.323   4.090  0.1230  0.0358 -0.0544
25729W        W68782  16.969  22.521  19.868 -0.0338 -0.3009 -0.1952
25730W        W68783  22.117  29.944   1.147  0.1731  0.3235 -0.0112
25731W        W68784  26.687  30.626   2.246 -0.0707 -0.1144 -0.5151
25732W        W68785  15.971  25.243   1.124 -0.3995 -0.0595 -0.2333
25733W        W68786  22.100  26.652   9.841 -0.1790 -0.0135 -0.1224
25734W        W68787  20.926  16.987   6.698  0.2905 -0.0720 -0.1822
25735W        W68788  16.677  21.322   1.936 -0.4417  0.0805  0.2392
25736W        W68789  28.375  26.610   9.220 -0.0433  0.1525 -0.2430
25737W        W68790  33.740  20.493  22.388  0.2529 -0.0295  0.0853
25738W        W68791  14.256  21.016  26.891 -0.0115  0.3586  0.2073
25739W        W68792  23.467   7.391   2.972  0.1136  0.0562 -0.5825
25740W        W68793  25.530  32.309   3.377 -0.0487 -0.0390  0.1079
25741W        W68794   3.853   4.383  26.663  0.2310 -0.1903 -0.0632
25742W        W68795  26.485  25.743  25.871 -0.1307 -0.3212 -0.0149
25743W        W68796  25.401  18.816   8.996  0.1086 -0.0750  0.1782
25744W        W68797  11.041   4.768  10.264 -0.1188 -0.1383 -0.0527
25745W        W68798  14.084   4.700  28.991 -0.1603  0.0397 -0.1735
25746W        W68799  25.800  29.859   4.031  0.2390 -0.1357  0.1190
25747W        W68800  20.067  20.289  19.675  0.1084 -0.1709  0.1370
25748W        W68801   1.217  14.623  23.230  0.0356  0.0060 -0.2008
25749W        W68802  23.757  28.942  23.511  0.0980 -0.2593  0.0648
25750W        W68803  22.893  14.819  23.345 -0.1142  0.4174 -0.3638
25751W        W68804   0.047  13.758  29.042 -0.1031 -0.0910 -0.0482
25752W        W68805  22.682  14.608   2.315 -0.1777  0.4390 -0.1185
25753W        W68806  16.518  34.168   5.780  0.0618 -0.1769  0.4327
25754W        W68807   2.689  12.070   7.258  0.0501 -0.2892  0.4131
25755W        W68808  14.898  22.439   5.678 -0.0557 -0.0268 -0.0324
25756W        W68809   7.459  23.066   6.598 -0.1693  0.2261  0.0113
25757W        W68810  23.381  19.829   4.482 -0.0865  0.0389  0.1240
25758W        W68811  12.767  21.937   8.389 -0.3488  0.2036 -0.1399
25759W        W68812  18.464  24.396   3.534 -0.1409 -0.1424  0.0770
25760W        W68813  24.803  20.916   3.303 -0.0133 -0.0057  0.3057
25761W        W68814  21.827   1.936   5.679 -0.0163 -0.3067  0.1900
25762W        W68815  34.155  22.672   4.067  0.1711  0.0936  0.1972
25763W        W68816  22.568  18.071   2.019 -0.0439 -0.0506 -0.0822
25764W        W68817  15.655  13.555   9.546  0.2299  0.0830  0.0625
25765W        W68818  17.858  29.649  15.374  0.0258  0.3958  0.0796
25766W        W68819  29.174  30.880  26.182  0.0713 -0.4707  0.1105
25767W        W68820  20.594  20.829   3.513  0.0411  0.2867 -0.2128
25768W        W68821  14.567  18.347   1.303 -0.1171  0.0968  0.0581
25769W        W68822  28.660  24.552  28.300  0.0287  0.1145 -0.0868
25770W        W68823  17.778  25.848  28.201  0.1965 -0.3271 -0.0182
25771W        W68824  25.754  19.165  24.653  0.3531 -0.1689 -0.0888
25772W        W68825  10.199  26.459   2.550  0.0828 -0.0524  0.2134
25773W        W68826  33.587   0.382  23.294 -0.1089 -0.0447  0.1243
25774W        W68827  16.014  27.628  10.199  0.1235  0.1259 -0.0338
25775W        W68828  27.135  25.856   6.776 -0.0205  0.0077  0.1930
25776W        W68829  27.902  24.540  23.751  0.1870  0.1234  0.0295
25777W        W68830   8.685  25.787   6.629 -0.0176  0.3077  0.2836
25778W        W68831  22.424  19.862   0.579  0.2709 -0.1671 -0.2465
25779W        W68832  29.710  19.400  20.272  0.0282  0.0671  0.1576
25780W        W68833  20.368  19.150  24.162 -0.0907  0.1020 -0.0554
25781W        W68834  28.966  15.960   3.021 -0.2653  0.0146 -0.0727
25782W        W68835  22.012   5.732   2.447  0.3336 -0.0977 -0.3209
25783W        W68836  34.660  21.078  27.861 -0.0775 -0.1990 -0.0779
25784W        W68837  26.333   3.519  25.155  0.0751  0.1768  0.0147
25785W        W68838  31.641  12.420   5.654 -0.0684  0.0608  0.2177
25786W        W68839  23.882  25.260  23.153 -0.1894  0.3354  0.4251
25787W        W68840  10.856  17.463  28.640 -0.1408 -0.0992 -0.1564
25788W        W68841  25.326  24.109  24.886 -0.0540  0.2051 -0.1351
25789W        W68842  20.536   4.228  20.267  0.0286  0.2315 -0.1165
25790W        W68843  26.432  33.336   5.496  0.0063 -0.0751 -0.0912
25791W        W68844  18.512  12.701   2.248  0.0653  0.1339 -0.2794
25792W        W68845  25.156  25.589  18.164 -0.0341 -0.1723  0.1586
25793W        W68846  29.435  27.964  13.538  0.1447 -0.0819 -0.4568
25794W        W68847  30.798  19.334   6.015 -0.1036  0.2145  0.3567
25795W        W68848  13.497   6.719  14.826 -0.1405 -0.0212 -0.2932
25796W        W68849  11.084  23.573  28.195 -0.1030 -0.1245 -0.0884
25797W        W68850  22.229   4.572   1.859 -0.0774  0.4349 -0.1261
25798W        W68851  28.661  21.924   1.370 -0.0890 -0.1285  0.2536
25799W        W68852  20.456  27.279   3.767 -0.0171  0.0724  0.2735
25800W        W68853  28.669  23.779   7.035  0.3410 -0.4789 -0.2238
25801W        W68854   4.756  28.447   3.010  0.3549 -0.2854 -0.0918
25802W        W68855  25.257   1.747   5.472 -0.3710  0.0026 -0.0593
25803W        W68856  34.176  23.059   5.219 -0.2740  0.1733 -0.1390
25804W        W68857  31.151  20.739  15.684 -0.0888 -0.1999  0.0598
25805W        W68858  31.088  16.610   2.946  0.1851 -0.4054 -0.1510
25806W        W68859  11.537  18.286  23.204  0.2057 -0.1700 -0.0090
25807W        W68860  33.627  22.598   6.992  0.4646  0.1222  0.0592
25808W        W68861   4.080   7.141   6.591  0.2481 -0.3149  0.1579
25809W        W68862  18.069  31.050   2.417 -0.2467  0.2155  0.0535
25810W        W68863  28.773  14.641   7.888  0.2841  0.1600 -0.1274
25811W        W68864   0.277  13.769  23.774 -0.1356  0.0859 -0.2185
25812W        W68865  14.007  31.794   6.790 -0.1600 -0.1052 -0.0211
25813W        W68866  20.489   4.869  26.762 -0.2577  0.3034  0.1774
25814W        W68867  27.368  23.302  17.626 -0.2738  0.0809 -0.0669
25815W        W68868  22.626  15.413   2.856 -0.1599 -0.1864 -0.0120
25816W        W68869  30.429  31.143  27.399  0.3339 -0.0766 -0.1676
25817W        W68870  12.824  29.888   1.891 -0.0930  0.0459 -0.1356
25818W        W68871  20.828  24.858   4.416 -0.1335 -0.2242 -0.1709
25819W        W68872  33.080  17.019  26.959  0.1532 -0.0024 -0.0550
25820W        W68873  26.457  17.903   8.139  0.2558  0.5434  0.0701
25821W        W68874   1.647  25.878   6.872 -0.0554  0.0360 -0.0483
25822W        W68875  32.275  18.980  26.057 -0.0416  0.1046 -0.1973
25823W        W68876  32.334   4.335  17.172  0.0179 -0.1353  0.0517
25824W        W68877  21.773  19.312   0.702  0.2854  0.0060  0.0101
25825W        W68878  20.159  29.193  23.457  0.0472 -0.4126 -0.3003
25826W        W68879  16.942  18.722   2.664 -0.1767  0.0738 -0.0766
25827W        W68880   3.328  15.793  25.001 -0.0510  0.2214 -0.0781
25828W        W68881  13.899  13.925   6.512 -0.1676  0.0250 -0.0681
25829W        W68882  21.782   9.904  26.199 -0.2136 -0.0874 -0.2380
25830W        W68883  25.995  29.609   3.652  0.0118  0.3913  0.3120
25831W        W68884  32.815  24.862   3.164  0.2941  0.0459 -0.0324
25832W        W68885  24.333  23.634   6.991 -0.0515 -0.1829  0.1681
25833W        W68886  26.753  21.189  27.450  0.0418  0.0023 -0.1196
25834W        W68887  28.394  24.439   1.462 -0.0962  0.1002  0.0912
25835W        W68888   6.352  29.559   3.047  0.0822 -0.0961  0.1352
25836W        W68889  26.984  23.441   5.169 -0.0246  0.0865  0.1336
25837W        W68890  28.443  20.122  26.912 -0.0026  0.2329 -0.2528
25838W        W68891   6.866  16.863  19.291  0.1290 -0.2736 -0.2887
25839W        W68892   9.470  30.260  27.375 -0.1748 -0.1015 -0.2262
25840W        W68893   8.869  16.186   6.586 -0.3067 -0.2785 -0.0854
25841W        W68894  32.032  25.800   6.650  0.0891  0.0046  0.2114
25842W        W68895  18.816   5.067   2.268  0.1800  0.0789 -0.0937
25843W        W68896  15.970  29.588   5.373  0.3412  0.1055 -0.2813
25844W        W68897  21.198  27.525  26.511 -0.0783 -0.0582  0.1307
25845W        W68898  11.138  23.165   4.760  0.0033 -0.1336  0.1517
25846W        W68899  26.221  33.419  24.459  0.2464 -0.1236  0.0924
25847W        W68900  22.626   8.290  27.310  0.0529 -0.0503 -0.1273
25848W        W68901   7.186  30.800   0.478  0.1954  0.1971  0.0693
25849W        W68902  28.896   2.328  20.966  0.1732 -0.1156 -0.0211
25850W        W68903  33.236  27.077   5.590 -0.3869 -0.0156  0.2598
25851W        W68904  21.092  31.271  19.478  0.1932 -0.0235 -0.0258
25852W        W68905   2.874  31.602  27.702  0.0889  0.2512  0.2270
25853W        W68906  10.990   9.993  24.206  0.1458 -0.1121  0.3028
25854W        W68907  16.409  31.047  28.596 -0.0531  0.1251  0.2107
25855W        W68908  17.724  10.723  14.963  0.0547 -0.2098  0.2380
25856W        W68909  31.718   0.507  14.259  0.2617 -0.1718 -0.0395
25857W        W68910  24.141  21.002  15.981 -0.0022 -0.0709  0.0140
25858W        W68911  31.356  16.173   7.520  0.0870 -0.0653 -0.1662
25859W        W68912  19.740  25.373  25.286 -0.2970  0.0600  0.0647
25860W        W68913  29.214  12.808  17.653  0.0029 -0.0558  0.0787
25861W        W68914  14.909   2.393  22.433 -0.4139 -0.3405 -0.3276
25862W        W68915  28.060   0.434   3.561  0.1289  0.0851  0.0033
25863W        W68916  10.852  15.886  28.766  0.3239  0.0819  0.1525
25864W        W68917  24.573  25.937  23.628 -0.0069  0.1612 -0.0248
25865W        W68918  30.340  16.164  24.816  0.3329  0.3248  0.3900
25866W        W68919  13.575  24.562   7.682 -0.3419  0.0122 -0.1659
25867W        W68920  21.341  22.004   3.626 -0.2979 -0.1383  0.2770
25868W        W68921  18.143  31.582  21.623 -0.0551  0.1928  0.1802
25869W        W68922  17.647  25.240  10.612  0.0422 -0.1709 -0.1512
25870W        W68923  20.830  17.369  22.037  0.2401 -0.0698 -0.0304
25871W        W68924  10.101  31.417   3.185  0.3666  0.0522 -0.1785
25872W        W68925   1.376  26.551   2.283  0.1478 -0.0269  0.2203
25873W        W68926  14.183  24.106   9.712  0.1655  0.1145  0.0969
25874W        W68927  21.703  24.542   5.343 -0.1655  0.1322 -0.2928
25875W        W68928  29.129  22.441   2.117  0.0731  0.0637  0.0317
25876W        W68929   0.012  25.951  27.686  0.3344 -0.2685  0.0160
25877W        W68930  30.665  15.663  27.202  0.0455  0.1996  0.0331
25878W        W68931  22.179  14.735   6.184  0.0774 -0.3837 -0.1258
25879W        W68932   3.607  19.749   7.290 -0.0485  0.1431 -0.2315
25880W        W68933  10.268  17.520  21.800  0.1844  0.5324 -0.1195
25881W        W68934  17.776   7.798   0.400 -0.2995  0.2147 -0.1937
25882W        W68935  14.796  25.599   2.013 -0.3457  0.0863  0.0703
25883W        W68936  18.605   1.415   4.818  0.2030  0.1399 -0.2176
25884W        W68937  33.489  24.236  27.422  0.1475 -0.0652  0.2340
25885W        W68938  24.977   0.609   8.119  0.2212  0.1803 -0.2608
25886W        W68939  19.731  22.451   9.155  0.4235 -0.2296 -0.1626
25887W        W68940  21.970   0.281  10.472 -0.0301 -0.3218 -0.0127
25888W        W68941  15.569  19.773  25.467  0.0118  0.1490  0.0899
25889W        W68942  25.847  16.082  27.488  0.0928  0.1060  0.3408
25890W        W68943  32.209  15.358   3.803 -0.0905 -0.0826 -0.2610
25891W        W68944  32.068  22.458  17.035  0.3545  0.0532 -0.0498
25892W        W68945  18.629   9.278  26.768 -0.0096 -0.2584  0.2648
25893W        W68946  19.165  31.578  22.041 -0.0708  0.3023 -0.2224
25894W        W68947  24.161   4.175   9.648 -0.1012 -0.3240  0.2825
25895W        W68948  12.376   5.627   6.885 -0.0833  0.1392  0.2674
25896W        W68949  25.460   1.302   7.244  0.1155  0.0412  0.2428
25897W        W68950  25.500  18.513   5.528  0.0481  0.0382 -0.1106
25898W        W68951  13.449  23.986   1.232 -0.0672 -0.2997  0.0910
25899W        W68952  26.140  13.765  27.661 -0.1735  0.1297  0.2649
25900W        W68953  26.782  19.916   6.080 -0.1398  0.0088  0.1061
25901W        W68954  10.495  33.021   0.650 -0.2196 -0.1050  0.0995
25902W        W68955   1.485  18.252  22.476  0.0781 -0.1703  0.1431
25903W        W68956   7.864   8.643  24.229  0.2797  0.1647  0.1530
25904W        W68957   5.548  14.387  29.171 -0.0046  0.0637 -0.1322
25905W        W68958  28.610  28.507  25.294 -0.1590  0.1046 -0.1626
25906W        W68959   7.316  12.552  23.001  0.0540  0.4499 -0.1871
25907W        W68960  33.233  22.888   7.923  0.0081 -0.3538  0.2088
25908W        W68961   5.820  30.512  18.512 -0.0165 -0.1750 -0.0742
25909W        W68962  32.840  23.777   8.492 -0.0502 -0.0806  0.1852
25910W        W68963  12.851  26.248   2.043  0.0764 -0.2152 -0.0340
25911W        W68964  31.023   4.822  28.228  0.1987  0.1484 -0.0989
25912W        W68965  13.829  17.250   1.203 -0.0755  0.0370  0.0280
25913W        W68966  34.552  16.440   8.021 -0.0347 -0.1342 -0.2482
25914W        W68967  30.469  27.986  22.375  0.0386  0.2739  0.0753
25915W        W68968   6.411  12.768  25.157  0.1936  0.1667 -0.5014
25916W        W68969  15.108  26.905   6.651  0.1819  0.2863  0.5170
25917W        W68970  21.103  26.568  25.491  0.3197 -0.1699  0.0544
25918W        W68971  25.174  28.698  10.466 -0.1359  0.0901 -0.1715
25919W        W68972  30.323  12.008   8.673  0.1973 -0.0159 -0.0491
25920W        W68973  20.582  31.830  17.651  0.2600  0.0584 -0.3650
25921W        W68974  11.074  26.627  24.031  0.1452 -0.1328 -0.1492
25922W        W68975  21.496  24.656   3.519  0.0833 -0.4338  0.1342
25923W        W68976  23.293  29.027  27.127 -0.2500 -0.1234  0.0064
25924W        W68977  14.099  25.255   8.168 -0.1155 -0.0420 -0.1673
25925W        W68978   5.813  16.581   1.675 -0.1183  0.1470  0.2377
25926W        W68979  13.429  24.862   4.902 -0.0265  0.2248 -0.1222
25927W        W68980  21.344  25.486  26.491  0.2539  0.5617  0.1709
25928W        W68981  34.098  23.190   4.265 -0.2479 -0.0578 -0.0039
25929W        W68982  23.576  19.921  21.904  0.0643 -0.0140 -0.0821
25930W        W68983   0.132  12.467   2.870 -0.0866  0.0699 -0.0311
25931W        W68984  12.747  17.250  16.347 -0.1680 -0.2031  0.4232
25932W        W68985   2.713  21.836   5.813 -0.2329  0.0073 -0.2679
25933W        W68986  18.193  17.084   7.941  0.1877 -0.0146 -0.1110
25934W        W68987   7.900  10.627  20.541  0.1731  0.2297 -0.0582
25935W        W68988  29.019  28.054   7.684  0.2152  0.0679  0.0900
25936W        W68989   0.761  29.325  23.182 -0.0893 -0.1443  0.3957
25937W        W68990  28.416  30.065   2.550  0.1822 -0.0366 -0.1037
25938W        W68991  34.107  30.969   3.401  0.1264 -0.0035  0.1561
25939W        W68992   6.105  21.646  28.037  0.4678 -0.1411 -0.1336
25940W        W68993  17.915  14.989  24.696  0.3105 -0.0198 -0.0681
25941W        W68994  30.401   0.355  20.710  0.2168 -0.2213  0.0543
25942W        W68995  21.505  20.223  25.911 -0.3893 -0.3677  0.3424
25943W        W68996  25.209  33.720   3.930  0.2191  0.0179 -0.0279
25944W        W68997  15.503   2.642   6.801 -0.1569  0.0235  0.0699
25945W        W68998  23.449   9.590  29.121 -0.2587  0.0055 -0.1342
25946W        W68999  28.132   7.614  24.651 -0.2306  0.0980 -0.0438
25947W        W69000  32.021  21.272  24.127  0.1115 -0.0097  0.2356
25948W        W69001  16.939  24.589   1.900  0.1617 -0.2278  0.0567
25949W        W69002  20.564  14.854   5.014 -0.1262 -0.1279  0.1227
25950W        W69003  30.406  31.914  26.023  0.0455  0.1991 -0.0378
25951W        W69004  29.486  14.865  25.986  0.1127 -0.1884 -0.2957
25952W        W69005  32.510  31.498   4.933  0.2592 -0.0196 -0.0421
25953W        W69006  11.931  33.037   8.247 -0.5407 -0.0591 -0.0842
25954W        W69007  24.734   9.728   1.542 -0.0728  0.0637  0.1269
25955W        W69008  30.093   6.304   3.592 -0.1453 -0.1582 -0.2568
25956W        W69009  20.748   1.993   2.023 -0.1771 -0.2193 -0.1529
25957W        W69010  21.162  15.771   9.184 -0.1329  0.0768  0.3407
25958W        W69011  14.876   7.265   8.091  0.3557  0.0884  0.0445
25959W        W69012  24.348  33.624   4.468  0.1653 -0.1633  0.0350
25960W        W69013  29.276  24.662  17.562  0.0343 -0.1244  0.0758
25961W        W69014  20.273  16.430   6.874  0.1341  0.1407 -0.0100
25962W        W69015  12.077  24.536   6.326 -0.0150 -0.0150 -0.0183
25963W        W69016  20.590  17.486   3.039  0.0472  0.0124  0.2132
25964W        W69017   3.776  21.143   6.157 -0.1144 -0.0324 -0.0056
25965W        W69018  13.172   5.563  19.481 -0.2380  0.3999 -0.0516
25966W        W69019  33.448   8.400   6.773  0.0326  0.0840  0.1975
25967W        W69020  23.885  30.099   4.146 -0.3886  0.0027 -0.0445
25968W        W69021  23.815  11.024  26.967 -0.2667  0.0855 -0.0625
25969W        W69022   9.771  10.975   7.290  0.1179  0.4054 -0.2440
25970W        W69023  25.402  15.446  27.030 -0.1608 -0.2483  0.1439
25971W        W69024   3.371  19.582   6.899  0.1925  0.2229  0.3075
25972W        W69025  23.604  11.115  29.084 -0.3767 -0.0514 -0.0704
25973W        W69026  15.319  12.085   9.976  0.2723  0.1237 -0.2378
25974W        W69027   7.074   3.735   7.969  0.0385 -0.2413 -0.1304
25975W        W69028  21.640  32.743  26.721  0.1474  0.1362  0.2653
25976W        W69029  24.258  27.704  19.349  0.3433  0.1376  0.3110
25977W        W69030   9.471  33.833  28.180 -0.1536  0.0765  0.0810
25978W        W69031  22.153  29.197   7.720  0.1491 -0.0151 -0.0886
25979W        W69032  26.751  17.991  26.041  0.2989  0.0030 -0.2526
25980W        W69033  31.650   1.849   7.032 -0.0355  0.4219 -0.0582
25981W        W69034  20.043  32.858   8.337  0.0164  0.0203  0.2330
25982W        W69035  30.462   5.244   4.246  0.0511  0.1931  0.1847
25983W        W69036  24.166   7.540   0.360  0.2837 -0.1354  0.0206
25984W        W69037  24.179   6.421   9.344 -0.2184  0.0549 -0.2884
25985W        W69038  21.492   7.956   9.115 -0.2174 -0.0085  0.1916
25986W        W69039  22.407  14.599  28.962 -0.2793  0.1614  0.1642
25987W        W69040  24.568  22.368   7.619  0.0461 -0.0774  0.0942
25988W        W69041  27.317  19.243  10.095 -0.1874  0.1516  0.1554
25989W        W69042  12.708   5.298  19.620 -0.0791 -0.1350  0.0051
25990W        W69043  33.567  29.867   2.568 -0.0958  0.2838  0.0612
25991W        W69044  19.562  21.055  17.997  0.0219  0.3530 -0.2984
25992W        W69045  32.339  14.105   8.444  0.4238  0.1474  0.3849
25993W        W69046  31.265  22.901  21.481 -0.0949  0.0196  0.1182
25994W        W69047  22.337  25.923   4.836  0.0253  0.2940 -0.1613
25995W        W69048  11.350  16.676   9.931  0.0419  0.2176  0.0822
25996W        W69049   9.589  14.416  26.489 -0.2648 -0.0534 -0.1358
25997W        W69050  17.995  21.112   0.255 -0.3054  0.0468 -0.1283
25998W        W69051  16.994  32.669  22.454 -0.2990  0.2960 -0.0387
25999W        W69052  11.820  19.002   7.268 -0.1068 -0.0155 -0.0739
26000W        W69053   7.621   6.406   8.836  0.1507  0.0436  0.2305
26001W        W69054   0.200   9.869   7.499  0.3210  0.0487 -0.0390
26002W        W69055  28.625  18.089   0.653 -0.1852  0.0343  0.3674
26003W        W69056  31.240  28.812  19.138 -0.2084 -0.2590 -0.0234
26004W        W69057   3.554  26.377  28.439  0.3299 -0.0710  0.3979
26005W        W69058  15.717  24.579   1.087  0.3154  0.2200  0.2008
26006W        W69059  25.148  31.680   9.868 -0.1720  0.0264  0.1877
26007W        W69060  21.823  18.698   1.456  0.0742  0.1166  0.1336
26008W        W69061  25.064   7.465   9.260  0.2959 -0.3685 -0.0520
26009W        W69062   1.815  20.593   3.900 -0.0159  0.1375 -0.1924
26010W        W69063  34.054  29.520   0.291 -0.1660  0.1387 -0.1534
26011W        W69064  22.158  16.115  21.381  0.1072 -0.4098  0.0779
26012W        W69065  25.181   3.766   4.118  0.0575 -0.1062 -0.0392
26013W        W69066   6.280  15.082  22.842  0.3259 -0.2128  0.1862
26014W        W69067   1.916  21.092  25.243  0.1362  0.1049  0.0125
26015W        W69068  19.444  29.640   3.559 -0.2496 -0.1009  0.4975
26016W        W69069  16.826   9.839   5.805 -0.0691 -0.2224  0.0306
26017W        W69070  29.165  25.968   5.658 -0.0247  0.0282  0.0602
26018W        W69071  22.076  28.164   8.354  0.1683 -0.1384 -0.3082
26019W        W69072  11.530  24.363   8.613 -0.0001 -0.1293  0.2524
26020W        W69073  33.611  13.404   6.651 -0.0534  0.2086 -0.1757
26021W        W69074  20.264  13.947  13.329 -0.4965  0.2145 -0.0959
26022W        W69075  28.879   7.796   4.226  0.3308  0.1279  0.1319
26023W        W69076   5.525  19.191   1.647  0.0123 -0.2752 -0.1705
26024W        W69077   5.901  15.732  25.948 -0.0431  0.0340 -0.1942
26025W        W69078  31.327  10.251  21.877  0.1884 -0.1523 -0.0374
26026W        W69079   4.416  16.020  16.562  0.2543 -0.1304  0.0371
26027W        W69080  33.104  20.804   0.894  0.2059 -0.2097 -0.0855
26028W        W69081  27.816  31.521   3.496 -0.3779 -0.1888  0.1866
26029W        W69082  31.578  21.443  24.421  0.0498 -0.4554 -0.2123
26030W        W69083  32.080  30.267  16.954  0.1754  0.2357  0.2907
26031W        W69084  24.858  30.752   7.168  0.0154  0.1081  0.0537
26032W        W69085  23.504  22.114   6.467 -0.3068 -0.2199 -0.0451
26033W        W69086  33.464  13.850  20.526  0.0274 -0.3465 -0.0396
26034W        W69087   4.881  14.152   7.995  0.3359  0.4153 -0.4449
26035W        W69088  22.636  31.342  17.066  0.1072  0.2493 -0.0345
26036W        W69089  24.238  22.711   7.527 -0.0733 -0.0999 -0.1814
26037W        W69090  23.107   3.604   0.940  0.1265  0.0145  0.3244
26038W        W69091  18.522  18.934  27.151 -0.1740 -0.1568  0.0640
26039W        W69092  20.560  25.346   4.109 -0.2145  0.0825 -0.1038
26040W        W69093  24.563  25.935  21.518  0.0379  0.0786  0.0433
26041W        W69094  22.676  18.709  28.996  0.2659  0.0373  0.0488
26042W        W69095  16.923  21.863   3.250  0.0513  0.1105  0.3325
26043W        W69096  23.119  23.672   2.612 -0.0008  0.0378 -0.2446
26044W        W69097  23.206  23.065  26.824 -0.3158 -0.0418 -0.1066
26045W        W69098  24.071  16.566   5.607  0.1618 -0.1607 -0.0736
26046W        W69099  24.297   5.994  15.894 -0.0886 -0.0814  0.3932
26047W        W69100  19.557  29.607   9.607 -0.1822  0.0836 -0.0820
26048W        W69101   0.471  25.119   5.874 -0.0440 -0.1352 -0.0743
26049W        W69102  20.444  32.770  26.434  0.1700 -0.1605 -0.0018
26050W        W69103  25.535  17.488  15.452  0.0052  0.1424 -0.0472
26051W        W69104  23.515  18.987  24.500  0.0997  0.3037 -0.0070
26052W        W69105  12.274  25.701  29.179  0.1029  0.0157  0.0979
26053W        W69106   3.405   4.147  26.629 -0.1868  0.0142  0.1035
26054W        W69107  20.551   1.356  19.052  0.0633  0.1878  0.1247
26055W        W69108  33.529   5.658  22.917  0.1858 -0.1958  0.1087
26056W        W69109  27.875  28.469  22.493 -0.5098  0.0034 -0.1475
26057W        W69110  21.567  20.777  19.476  0.0694  0.1305 -0.3677
26058W        W69111  16.704  33.668   2.153 -0.2273  0.1671  0.0423
26059W        W69112  21.614  17.107  27.812 -0.0297  0.3183  0.1077
26060W        W69113  22.097  27.254   2.960 -0.1318  0.0954 -0.3286
26061W        W69114  24.480  31.455  26.697 -0.0353 -0.0646 -0.0258
26062W        W69115  21.835  23.692   1.934  0.2314  0.0506  0.3212
26063W        W69116   4.784  20.625   4.083 -0.2589 -0.2843 -0.1824
26064W        W69117  16.945  30.414  19.834 -0.2397 -0.1538  0.0024
26065W        W69118  29.990  29.158  18.640 -0.1819 -0.2598 -0.1615
26066W        W69119  17.741  28.691  10.008  0.1668 -0.0897 -0.1973
26067W        W69120   5.044  23.849   7.082 -0.0005  0.1817 -0.0567
26068W        W69121   6.038  19.820   3.326 -0.0681 -0.2434  0.1743
26069W        W69122   4.418  15.518  22.346 -0.3028  0.1676  0.1076
26070W        W69123  24.405  11.082   7.593  0.2037 -0.0051 -0.0793
26071W        W69124  24.145   9.354   8.147  0.2280 -0.0275 -0.2658
26072W        W69125   9.936  29.311  24.594 -0.2307  0.2884 -0.3068
26073W        W69126  34.173  25.186  23.606  0.2091 -0.0474  0.1243
26074W        W69127  16.987   6.821  10.005 -0.3226  0.0708  0.0125
26075W        W69128  27.672  30.891   8.070 -0.2389 -0.1060 -0.0905
26076W        W69129  19.235  19.263  26.543 -0.0843  0.4371  0.0214
26077W        W69130  21.811  31.796  27.697  0.1111  0.1849 -0.2856
26078W        W69131  25.277  20.576   6.001  0.0560 -0.3941 -0.0024
26079W        W69132   1.396  22.116   2.814 -0.2334 -0.1155  0.1342
26080W        W69133  24.997  29.351   2.007  0.1245  0.2692 -0.2994
26081W        W69134  30.052  23.696   7.774 -0.1424  0.0084  0.2566
26082W        W69135   0.092  27.849  23.406 -0.1614  0.0081  0.3744
26083W        W69136  24.038  25.884  15.679 -0.0559  0.0605  0.0338
26084W        W69137  21.127   7.741   1.432 -0.1995  0.0093  0.2377
26085W        W69138  28.458  15.688  22.307  0.1048 -0.0016 -0.1073
26086W        W69139  23.078  12.227   9.536  0.1991 -0.0308 -0.2561
26087W        W69140  30.440  24.673  21.775 -0.2084 -0.1827 -0.1361
26088W        W69141  23.999  26.018  18.600  0.1419 -0.0415 -0.3034
26089W        W69142   3.353  12.143  26.484 -0.1322  0.0704  0.0360
26090W        W69143   2.914  26.663   9.957 -0.1430 -0.2568 -0.0635
26091W        W69144  27.890   1.392   2.388  0.1256 -0.0158  0.0687
26092W        W69145  10.455  31.715   9.259  0.0022  0.1542 -0.0282
26093W        W69146  32.340  32.348  14.058 -0.0326  0.1102  0.0406
26094W        W69147  22.379  12.427  26.628 -0.1101 -0.0016  0.3188
26095W        W69148  14.400  24.477   7.303  0.0562 -0.4087 -0.1407
26096W        W69149   5.990  15.406   9.511  0.2272  0.2427  0.2411
26097W        W69150  15.627  17.458   4.092 -0.1470 -0.0451  0.0746
26098W        W69151  28.145  28.783  24.086  0.0317 -0.1367 -0.2034
26099W        W69152  18.279  32.216  23.277 -0.2194 -0.0474 -0.0146
26100W        W69153  16.437  30.159   4.249  0.0666 -0.1528 -0.0213
26101W        W69154  25.845  28.761  27.611  0.0110  0.0440 -0.3178
26102W        W69155  22.678  21.442  29.189 -0.1621  0.0464 -0.1224
26103W        W69156  20.199  17.068   9.867 -0.0126  0.4174  0.1729
26104W        W69157  27.612  20.674  25.260 -0.0913 -0.0420 -0.1085
26105W        W69158   0.399  20.016  22.976  0.0561  0.0134 -0.0188
26106W        W69159  26.057   6.046  26.741  0.1906 -0.0964 -0.0256
26107W        W69160  30.611  24.995   0.667 -0.0961  0.0687  0.1669
26108W        W69161  13.932  33.474   0.539  0.3214 -0.0478  0.0136
26109W        W69162  24.659  25.376   8.897 -0.1733 -0.3520 -0.1166
26110W        W69163  28.279   7.846   8.436  0.1733  0.0444  0.1992
26111W        W69164  32.743  15.950   2.496 -0.3316 -0.2484 -0.0105
26112W        W69165  23.544  19.928   8.518  0.0598  0.1556 -0.2565
26113W        W69166   1.845   6.093  10.237  0.0195 -0.1263  0.3026
26114W        W69167  26.364  11.139   3.735  0.1546  0.1819 -0.1891
26115W        W69168  20.812  14.223  28.210 -0.0285 -0.1002  0.0691
26116W        W69169  13.405  20.355   5.577  0.2850  0.0447 -0.2135
26117W        W69170  20.499   1.153   8.297  0.1791  0.2592 -0.2095
26118W        W69171   2.955  19.723  24.310  0.1123 -0.1607 -0.0869
26119W        W69172   4.736  25.718   5.859 -0.0112  0.1054 -0.1322
26120W        W69173  10.228  21.920   9.794 -0.0332 -0.2158 -0.1506
26121W        W69174   6.223  27.524   5.058 -0.2204 -0.2602 -0.0088
26122W        W69175  21.489  26.398   6.237 -0.1520  0.1115  0.0175
26123W        W69176  16.656  19.247  29.083  0.0613  0.0894 -0.1811
26124W        W69177  24.298  29.730   3.968  0.1502  0.0850  0.2846
26125W        W69178  16.344  34.424   8.974 -0.1857 -0.0034 -0.1051
26126W        W69179  22.011  23.705   4.456  0.0748  0.0825 -0.1866
26127W        W69180  17.493  27.828   5.389 -0.1051 -0.0158 -0.3045
26128W        W69181   0.856  14.842   6.763 -0.1856  0.0251  0.0939
26129W        W69182  32.366  13.020  28.919 -0.1210 -0.0653  0.1243
26130W        W69183   6.474  25.203   9.213  0.0514 -0.1203 -0.1346
26131W        W69184  12.234  33.478   7.444 -0.0779 -0.0826  0.1563
26132W        W69185  34.589  20.707   2.504  0.4386  0.1006 -0.1895
26133W        W69186  19.994   9.791   7.030 -0.0307  0.3244 -0.1700
26134W        W69187  22.521   5.734   4.930 -0.1260  0.1184  0.2845
26135W        W69188  21.906  31.745  23.980  0.2234  0.0259 -0.0752
26136W        W69189  19.941  16.785  22.244  0.4055 -0.0781 -0.0394
26137W        W69190  22.404  20.859  26.671 -0.2713 -0.0344  0.2222
26138W        W69191  25.713  17.555   4.218  0.0873 -0.0186  0.1903
26139W        W69192  24.116   3.020   7.662  0.1570 -0.1728 -0.0238
26140W        W69193  19.278  18.695  25.861  0.2435  0.2881 -0.0119
26141W        W69194  20.497  29.389   6.524  0.0230  0.2622  0.0140
26142W        W69195   1.638   9.761  27.214 -0.1842 -0.2355  0.1075
26143W        W69196  20.671  20.309   7.605 -0.0926  0.0182  0.2220
26144W        W69197   3.178  14.116  24.243  0.1238  0.0711  0.0621
26145W        W69198  20.258  28.594   6.709 -0.4122  0.3694  0.1277
26146W        W69199  18.723  29.318   4.232 -0.0034  0.1893  0.1638
26147W        W69200  28.258  20.179   7.356  0.1240 -0.0553  0.1959
26148W        W69201  25.737   8.455  21.689 -0.0927  0.1538  0.1658
26149W        W69202  25.613  25.658   3.029  0.1551  0.1540 -0.0051
26150W        W69203  16.343  14.611   9.315 -0.0070 -0.2643  0.2429
26151W        W69204  31.889  28.116  19.454 -0.2002 -0.1185  0.0009
26152W        W69205   3.534  29.898   0.020 -0.0358 -0.3625  0.1722
26153W        W69206  30.336  27.726  25.662 -0.1761 -0.1161  0.3051
26154W        W69207  25.400   8.945  18.817  0.0369 -0.0542 -0.2109
26155W        W69208   7.706  19.991  29.044 -0.1666  0.0004  0.2134
26156W        W69209  31.564  26.696   8.262 -0.0014 -0.1872 -0.0875
26157W        W69210  28.717  12.651   8.946  0.2965  0.1686 -0.1636
26158W        W69211  25.168  18.141   5.545 -0.1044  0.1152  0.0240
26159W        W69212  25.579  33.503   4.295  0.0744  0.0327  0.2156
26160W        W69213  15.637  12.427   4.794  0.2967 -0.2039 -0.2043
26161W        W69214  17.585  22.265  18.033  0.3279  0.2433  0.0035
26162W        W69215  26.167  24.623   3.004  0.1527 -0.1675  0.0835
26163W        W69216  16.689  33.166   9.800 -0.2261  0.0474 -0.0722
26164W        W69217   1.163  23.469   3.724  0.1912  0.2660 -0.2347
26165W        W69218  30.732  29.615   9.322  0.0183  0.1049  0.0619
26166W        W69219  16.339  10.912  26.321  0.1983  0.1463  0.0060
26167W        W69220  25.217   8.343   1.493 -0.1604 -0.0233  0.1456
26168W        W69221  28.806  23.718   9.098 -0.2050  0.0654 -0.3169
26169W        W69222  22.310  22.696   1.430  0.0412  0.0657  0.1505
26170W        W69223  12.032   0.539   1.233 -0.2644  0.0128 -0.0378
26171W        W69224  19.073  15.125   8.802 -0.1311 -0.2843 -0.0280
26172W        W69225  19.146  25.349   4.460 -0.1126 -0.0555 -0.0390
26173W        W69226  33.097  29.601   7.045 -0.2456  0.3122 -0.1601
26174W        W69227  25.280  24.784   8.549 -0.3412 -0.0367 -0.3030
26175W        W69228  24.578  18.956   6.506  0.1340 -0.0321 -0.1966
26176W        W69229  21.538  31.403   8.100  0.2338  0.1317  0.1578
26177W        W69230  23.008  25.465  15.458 -0.0412 -0.0692  0.0647
26178W        W69231  19.684   4.955   3.539  0.0120  0.0923 -0.1557
26179W        W69232  19.822  24.817   2.799  0.1977 -0.1675 -0.1491
26180W        W69233  28.783   7.693  28.641 -0.1915  0.0296 -0.2443
26181W        W69234   8.112  21.631   2.185 -0.4212 -0.0825  0.2060
26182W        W69235  29.684  32.315  26.436 -0.0785  0.1468 -0.1721
26183W        W69236  29.858  19.547   6.084 -0.4333  0.0548 -0.3361
26184W        W69237  23.615  31.958  26.526  0.2431  0.2311 -0.3856
26185W        W69238  23.950  28.015   1.339 -0.0795 -0.0595  0.0540
26186W        W69239  15.513  18.276  28.331 -0.3223 -0.0306  0.0487
26187W        W69240  19.622  17.128  22.557 -0.4247 -0.4410 -0.1949
26188W        W69241  21.412  25.269   4.151 -0.3038 -0.1529  0.0626
26189W        W69242  23.128  20.421  25.089  0.2472  0.0209 -0.0060
26190W        W69243  21.215  21.125  22.930 -0.0690  0.4207 -0.0454
26191W        W69244  21.535  29.935   7.155 -0.0313  0.1280  0.1678
26192W        W69245  10.556  26.890   0.031 -0.0832  0.1295 -0.0228
26193W        W69246  27.062  25.974   5.376 -0.0198  0.4176  0.0815
26194W        W69247   8.479  18.116  27.369  0.1039 -0.2184 -0.1258
26195W        W69248  11.589  24.089  25.346 -0.4095 -0.0892 -0.3347
26196W        W69249  23.151  30.975   9.598 -0.1398  0.0240 -0.2017
26197W        W69250   9.767  24.714   8.122 -0.0617 -0.1695 -0.3622
26198W        W69251   0.451   5.306  29.189 -0.0803 -0.0508 -0.2043
26199W        W69252  22.652  20.025   1.422  0.1485 -0.2630  0.0211
26200W        W69253  18.403  27.153   0.912 -0.1241  0.1377  0.2806
26201W        W69254  24.654   0.121   5.967 -0.1891  0.1958  0.1370
26202W        W69255  18.944  12.371  28.313  0.0279 -0.1515 -0.1691
26203W        W69256  18.462   4.984  27.841  0.3820  0.2202  0.2647
26204W        W69257   2.171  26.611   5.730  0.2225 -0.3363 -0.1097
26205W        W69258  30.489  16.941   4.999  0.3163  0.0488  0.0523
26206W        W69259  17.427  20.383  27.783 -0.2402  0.1395 -0.0240
26207W        W69260  26.784  14.625   2.819 -0.0302  0.1393 -0.0594
26208W        W69261  31.777  17.054   8.768 -0.1838  0.0623  0.0108
26209W        W69262  24.448  16.541   1.409  0.0550 -0.0592  0.1420
26210W        W69263  24.273  22.398   9.475  0.0679 -0.0860 -0.1551
26211W        W69264  24.601  30.127   1.595 -0.1182  0.2534 -0.0970
26212W        W69265  21.046  18.992  26.486 -0.2349  0.2766 -0.0030
26213W        W69266  26.144   9.726   5.623 -0.1808  0.0781 -0.3376
26214W        W69267   9.096  11.986   2.880  0.1957  0.0486 -0.4079
26215W        W69268  19.768  24.192   2.955 -0.2593  0.0491 -0.1199
26216W        W69269   5.248  11.296  11.198 -0.0116 -0.1047  0.2915
26217W        W69270  30.169  29.250   3.073 -0.0346 -0.2799  0.2237
26218W        W69271  23.084  14.986  16.911  0.1812 -0.3751  0.3095
26219W        W69272  17.927  33.401  23.478  0.1100  0.2401 -0.2631
26220W        W69273   3.589  24.327  22.965 -0.3018  0.0194 -0.0903
26221W        W69274  27.316  15.286   6.449  0.0076 -0.0585  0.1970
26222W        W69275  15.592  30.650   8.460 -0.0275 -0.2070 -0.0965
26223W        W69276  26.049  15.097  15.020  0.2213  0.3333  0.1854
26224W        W69277  13.719  13.891  10.244  0.3731  0.2310 -0.1781
26225W        W69278  17.063  26.840  10.159 -0.3483  0.1497  0.1829
26226W        W69279  28.679  19.169   2.265 -0.3812  0.3240 -0.0595
26227W        W69280  34.545  34.656  29.071 -0.1760 -0.2498  0.1860
26228W        W69281  16.367  30.516  10.021 -0.0369  0.1623 -0.1416
26229W        W69282  11.706  26.611   6.248 -0.0005  0.1283 -0.1281
26230W        W69283  17.076  22.047   5.771  0.0316 -0.2502  0.1054
26231W        W69284  14.725  25.185   2.369  0.3038  0.2221  0.1221
26232W        W69285  20.109  27.589   3.557  0.3219 -0.0686  0.4008
26233W        W69286  24.449  25.768  10.393 -0.4476  0.0162  0.2410
26234W        W69287  12.431  25.626  15.494  0.2157  0.1307  0.1016
26235W        W69288  34.217  16.454  28.434 -0.0256 -0.1590 -0.1495
26236W        W69289  33.882  25.543   0.522 -0.0206  0.0619  0.2322
26237W        W69290  18.857  29.827  10.081 -0.1484 -0.2720 -0.0104
26238W        W69291   5.882  27.011  17.079 -0.0098 -0.0592 -0.0757
26239W        W69292  12.253  25.356   3.029 -0.2137  0.1207  0.0650
26240W        W69293  31.485  32.982  16.408  0.1065 -0.0370 -0.2709
26241W        W69294  29.389  27.786   8.655 -0.1793 -0.0692 -0.1230
26242W        W69295  10.236  27.970   4.914  0.0889  0.1314  0.0877
26243W        W69296   7.312  26.430  24.014  0.2919  0.0204  0.2119
26244W        W69297  27.663   2.194   9.962  0.3391 -0.2163  0.2774
26245W        W69298  25.847  26.841  27.571  0.1479 -0.0809  0.1402
26246W        W69299  20.809  16.019   0.796  0.4927  0.0495  0.3878
26247W        W69300  10.539   6.011  29.110  0.4534 -0.1048 -0.0373
26248W        W69301   3.469  16.148   5.268  0.1134 -0.1059 -0.0895
26249W        W69302  19.410  29.181  23.540 -0.1597  0.3782  0.0996
26250W        W69303  31.851   1.202   2.567 -0.2424  0.0261 -0.2606
26251W        W69304  13.441  18.487  27.872 -0.0217 -0.2342  0.0672
26252W        W69305  20.807  18.890  24.263 -0.2150 -0.0467 -0.0843
26253W        W69306  24.069   7.028   5.457  0.3654  0.1562  0.1917
26254W        W69307  14.393  25.071   5.990  0.2118  0.1426  0.0745
26255W        W69308  34.334  19.822   5.908 -0.0231 -0.0013 -0.0052
26256W        W69309  33.656  22.250   8.848 -0.0152  0.0235  0.1960
26257W        W69310  17.321  26.643   9.231 -0.0139 -0.0578  0.0873
26258W        W69311  23.996   3.002   5.792 -0.0047 -0.0185  0.2003
26259W        W69312  34.600  21.470   8.487  0.0988 -0.0551  0.2899
26260W        W69313  24.390  27.343   5.921 -0.1895  0.1656 -0.1377
26261W        W69314  31.807  25.633   3.732 -0.3917  0.0320 -0.0641
26262W        W69315  14.036  12.155   1.262 -0.0345  0.1116  0.1791
26263W        W69316  26.469  16.538   4.319  0.2061 -0.3667  0.0516
26264W        W69317  25.516  31.904  10.148  0.0599  0.1014 -0.0016
26265W        W69318  11.548  26.508  24.111  0.1743  0.1501  0.0709
26266W        W69319  16.954  28.909   1.400  0.2301  0.1351 -0.0326
26267W        W69320  26.997  29.339   7.249 -0.0774 -0.0142 -0.0583
26268W        W69321  33.746   6.139  22.141 -0.4415  0.0134 -0.1797
26269W        W69322  11.538  29.969   1.488 -0.0258  0.1100  0.0035
26270W        W69323  19.487  24.433   0.905 -0.0785  0.0334  0.0779
26271W        W69324  31.102  10.262  27.183  0.3128  0.0703 -0.0898
26272W        W69325  21.984  17.841   4.995  0.0329  0.1627  0.0620
26273W        W69326   1.114  24.409   8.571 -0.0125  0.1299  0.0820
26274W        W69327  16.120  18.422   6.283 -0.2038 -0.3852  0.0615
26275W        W69328  27.382   6.923   3.964 -0.0822 -0.0375 -0.1269
26276W        W69329  20.221  20.164   6.372  0.0777  0.3447  0.0892
26277W        W69330  13.811  21.553   6.132 -0.3948 -0.0150 -0.1185
26278W        W69331  20.704  17.506   2.048 -0.1362 -0.5397 -0.0466
26279W        W69332  11.845  26.543   5.493  0.0162 -0.1230 -0.1002
26280W        W69333  25.128  11.357   6.919  0.3240  0.1397 -0.0667
26281W        W69334  28.311  22.358  16.282 -0.2546  0.0062  0.1234
26282W        W69335   3.661  25.522  19.807 -0.1206  0.3326  0.1291
26283W        W69336  30.338  18.251   5.377 -0.2317  0.2815  0.0357
26284W        W69337   7.688   3.144   0.481 -0.0473  0.0481  0.0146
26285W        W69338  20.231  16.965   6.033 -0.0617  0.0269 -0.5337
26286W        W69339  18.333  27.198  28.999 -0.1088 -0.1221 -0.2083
26287W        W69340  16.772  16.773  27.389  0.1821 -0.2583 -0.0049
26288W        W69341  13.619  32.473  14.122 -0.0993 -0.1499  0.1547
26289W        W69342  11.248  14.417   0.456 -0.1113  0.0143 -0.2428
26290W        W69343   7.397  26.706  27.216 -0.0958 -0.2477 -0.2121
26291W        W69344  27.499  31.134   1.215 -0.1535  0.2567 -0.1427
26292W        W69345  24.198  22.813   5.622  0.0531  0.1794  0.0357
26293W        W69346  22.059   0.953  27.338  0.1593 -0.0635  0.0957
26294W        W69347  19.962  19.077   7.611 -0.3118 -0.0307 -0.0418
26295W        W69348  23.785   9.301   5.120  0.1650 -0.3199 -0.0670
26296W        W69349  24.382  18.547   8.040  0.0662 -0.2401  0.0440
26297W        W69350  15.864  29.474   9.138 -0.1765 -0.0145 -0.0958
26298W        W69351  24.891  21.197   1.937  0.3334  0.2925 -0.1018
26299W        W69352   0.304  32.925   2.179  0.0251  0.2921  0.1795
26300W        W69353  19.194  19.999  26.068 -0.0708  0.0842  0.0138
26301W        W69354   8.838  19.736   0.274  0.0134  0.0506  0.0119
26302W        W69355  33.414  18.300   4.560  0.1760 -0.2043  0.3453
26303W        W69356  18.302  20.632   3.540 -0.0449 -0.1674  0.0556
26304W        W69357  19.206  33.813   0.612  0.3961  0.0192 -0.0112
26305W        W69358  20.280  23.004  22.685  0.1229 -0.0871 -0.1081
26306W        W69359  30.718  20.606  26.557  0.0716  0.0317 -0.1944
26307W        W69360  28.606  19.004   1.154 -0.0133  0.1451  0.0925
26308W        W69361  31.786  11.729  10.210  0.0162  0.2552 -0.0240
26309W        W69362   6.778  19.087   0.116  0.1460  0.2572  0.3437
26310W        W69363  21.642  19.135  10.075  0.2123  0.0367 -0.2538
26311W        W69364  16.977  19.628  24.762 -0.0130  0.2192 -0.3413
26312W        W69365   0.966  26.172  25.678  0.0051  0.1139 -0.0710
26313W        W69366  31.367  34.648  26.768  0.0264 -0.0716 -0.2225
26314W        W69367  22.621   1.917   2.102 -0.2464 -0.0271 -0.2908
26315W        W69368   4.999  32.178   8.414 -0.2177 -0.2265 -0.1055
26316W        W69369  16.932  28.128   7.792  0.0269  0.2476 -0.0687
26317W        W69370  20.032  20.393  24.617 -0.0787  0.3694  0.0506
26318W        W69371  19.195   5.822   0.778  0.1352 -0.2685  0.3267
26319W        W69372   1.556  25.185  27.379 -0.0212  0.1805 -0.0190
26320W        W69373  28.287  13.679   2.258 -0.0808  0.0756  0.2722
26321W        W69374   0.843  12.800   5.028  0.0627 -0.1239  0.0337
26322W        W69375  27.306  11.616   5.484  0.1486 -0.0261  0.2754
26323W        W69376  22.236   6.619   9.381  0.0607  0.1037 -0.1235
26324W        W69377  13.568  29.288   8.719  0.0692  0.0227  0.0728
26325W        W69378  22.915  11.154   1.394  0.1142  0.0873 -0.0436
26326W        W69379  15.864  11.211  17.655  0.0250 -0.1528 -0.1449
26327W        W69380   1.706  18.726  25.513  0.3030  0.2316 -0.0176
26328W        W69381  28.909   1.165  27.963  0.2422 -0.0755 -0.0312
26329W        W69382  18.821  10.534   1.498 -0.1479  0.0087  0.2379
26330W        W69383  25.215  26.337   9.373  0.0882  0.0671 -0.1460
26331W        W69384  15.892  19.927   0.253  0.1795  0.1989 -0.2125
26332W        W69385  21.286  16.300  25.388  0.0441  0.2095  0.0736
26333W        W69386  11.069  24.358   0.004 -0.0407  0.1710  0.2510
26334W        W69387  29.210  14.893  27.696  0.0563  0.3493 -0.5162
26335W        W69388  27.320   9.564   7.825 -0.3323 -0.2287  0.1455
26336W        W69389  31.276   7.327   8.311  0.3521 -0.2756  0.1027
26337W        W69390  32.444   0.820   9.329  0.0249 -0.1112  0.1022
26338W        W69391  34.392  14.302   3.805  0.0346 -0.3000 -0.0257
26339W        W69392  25.550   5.434   2.348 -0.0811  0.1236 -0.1330
26340W        W69393  19.472  18.602  28.037  0.0188 -0.0348  0.0960
26341W        W69394  22.014  16.544   2.932 -0.2869 -0.1951 -0.1831
26342W        W69395  18.561  19.595  13.741  0.1678  0.2538  0.2153
26343W        W69396  28.804  21.002  24.835  0.1043  0.0253 -0.0453
26344W        W69397  27.812  21.690   2.550 -0.1277  0.1612  0.3692
26345W        W69398  34.535   1.027   6.907 -0.3680 -0.4317 -0.0492
26346W        W69399   4.682   2.741   1.971 -0.0276  0.1490  0.0854
26347W        W69400  17.495   3.546   7.854  0.2452  0.0891 -0.0271
26348W        W69401  33.827  32.416  26.528 -0.0989 -0.2520 -0.1662
26349W        W69402   4.881  12.496   0.706 -0.0360 -0.2271  0.2494
26350W        W69403   0.958  10.969   2.112  0.0652 -0.1915 -0.0470
26351W        W69404  26.835  27.718   3.461 -0.0483  0.1219 -0.0512
26352W        W69405  29.850   9.220  15.048 -0.0358 -0.2324 -0.0309
26353W        W69406  30.893  29.856   3.189 -0.2778  0.1642 -0.0604
26354W        W69407  33.731  18.214   8.018 -0.2234  0.1585 -0.1274
26355W        W69408  28.338   1.362   4.051  0.1494 -0.1305  0.1371
26356W        W69409  33.315   1.918   1.616 -0.0968  0.2689  0.2342
26357W        W69410  33.352  23.272   4.201  0.1161  0.0231  0.0013
26358W        W69411  16.888  31.465  11.327  0.0664  0.1518 -0.1024
26359W        W69412  26.299   9.372   1.103 -0.2311 -0.1386  0.0666
26360W        W69413  30.491  32.297  23.077  0.0579 -0.1876 -0.0036
26361W        W69414  13.027  26.784   8.183  0.1530  0.0960 -0.0776
26362W        W69415   2.316  19.395   6.124 -0.1097 -0.2804  0.1977
26363W        W69416  15.535  24.312   9.164 -0.2388  0.4034  0.0028
26364W        W69417  20.613  21.265  24.916 -0.1740 -0.0610 -0.4463
26365W        W69418  33.219  16.584   4.887  0.0850 -0.2629 -0.0133
26366W        W69419   6.790  15.152  28.391  0.0903  0.1730  0.0367
26367W        W69420  33.755  21.039  23.047 -0.2245 -0.1256 -0.0223
26368W        W69421  19.040  23.760  21.483 -0.3479  0.1675  0.0823
26369W        W69422  11.667  15.772  24.807 -0.4242  0.2910  0.2740
26370W        W69423  13.391  15.515   3.627 -0.0585  0.3160  0.1935
26371W        W69424   5.716   1.260   9.758 -0.3375  0.1582 -0.2125
26372W        W69425  12.188  29.852   7.302 -0.3001  0.2482 -0.1036
26373W        W69426  26.137  18.952  27.853  0.0917  0.0453  0.1113
26374W        W69427   9.188  17.568  28.917  0.2387 -0.1448  0.1277
26375W        W69428  33.872  19.646   4.733 -0.1958  0.3616 -0.4176
26376W        W69429  26.178  29.097  26.520 -0.1659 -0.2135  0.0002
26377W        W69430  25.839  27.801   4.475 -0.0947 -0.0116  0.0685
26378W        W69431   8.989  15.177   2.474  0.4766  0.3992  0.1160
26379W        W69432  12.858  32.166   9.783 -0.0537  0.3649  0.1322
26380W        W69433  32.515  10.354   4.691 -0.0802 -0.2693 -0.1304
26381W        W69434  32.290  13.681   8.808  0.0664 -0.0235  0.0126
26382W        W69435  18.844  18.092  29.092  0.0704 -0.1065 -0.2432
26383W        W69436   3.760  20.980  25.436 -0.0290 -0.0961 -0.0475
26384W        W69437  22.208  14.747   4.444 -0.0218  0.0173  0.0144
26385W        W69438  27.090  20.569   1.149  0.2211 -0.1044 -0.3326
26386W        W69439  23.784   3.192   0.346  0.1767 -0.3703  0.1431
26387W        W69440  31.051  28.431   5.611  0.0873 -0.3002 -0.3298
26388W        W69441  31.031  20.723  22.755  0.1538 -0.3254 -0.1975
26389W        W69442  25.685  16.726  10.247  0.0332 -0.0500 -0.0282
26390W        W69443  32.452  24.552  21.560 -0.2795  0.2854  0.2642
26391W        W69444  22.119  10.699  17.656  0.1090  0.0204  0.1288
26392W        W69445  26.989  26.319   7.867  0.1253  0.1078 -0.0958
26393W        W69446  19.004  22.161  15.696 -0.0282  0.0146  0.1024
26394W        W69447  22.776  10.047  24.818  0.1772  0.3070  0.3355
26395W        W69448  23.841  19.120   3.723  0.1863  0.0665 -0.1870
26396W        W69449  22.702   1.811  25.739  0.0983  0.1578 -0.0464
26397W        W69450  31.965   9.742   2.321 -0.1548  0.2139 -0.0085
26398W        W69451  24.995   1.862   8.895 -0.0798  0.0691  0.1122
26399W        W69452  15.671  10.253   3.931 -0.0441  0.0282  0.0490
26400W        W69453  30.103  28.548  18.221  0.3284 -0.3408  0.0073
26401W        W69454  27.011   2.815   5.812 -0.0788  0.2633 -0.0596
26402W        W69455  15.279  20.349   6.027 -0.4969  0.1136  0.0145
26403W        W69456  21.365  25.836   9.779  0.1207  0.2050  0.2256
26404W        W69457  11.100  16.630   5.453  0.0918 -0.1443 -0.1000
26405W        W69458  19.267  20.989  26.999 -0.0406  0.0317 -0.1049
26406W        W69459  24.895   1.609  27.267 -0.0782  0.0635  0.1142
26407W        W69460  16.813  26.292   8.717 -0.1610  0.0919  0.2816
26408W        W69461  21.456  24.536   7.816  0.2479 -0.0920 -0.0639
26409W        W69462  28.001   4.656   7.824 -0.0314 -0.2214  0.0390
26410W        W69463  13.307  20.014   6.971 -0.3800  0.1152  0.3001
26411W        W69464   5.989  17.306  17.854 -0.0887 -0.1788 -0.2096
26412W        W69465  25.802  22.087  22.048 -0.0968  0.0409 -0.2753
26413W        W69466  10.807   6.100   6.477  0.1858  0.2134  0.2415
26414W        W69467  18.875  26.305  23.060 -0.4021  0.0958  0.0977
26415W        W69468  25.996   6.198   3.353 -0.3379  0.1324  0.2528
26416W        W69469   9.792  33.904  28.531 -0.2640 -0.3561 -0.1035
26417W        W69470   2.740  26.214  22.186 -0.0132 -0.0020 -0.0528
26418W        W69471  15.046  31.221   9.501 -0.1585 -0.1736  0.0890
26419W        W69472  19.847  25.436   5.236  0.1286 -0.3760  0.0774
26420W        W69473  20.649  28.237  10.300  0.0643 -0.1658  0.2260
26421W        W69474  18.651  27.890   2.326  0.1890 -0.1560  0.2516
26422W        W69475  20.301  24.981   7.721 -0.0672  0.1058 -0.1228
26423W        W69476   2.348  33.170  25.324 -0.0555  0.0125 -0.0018
26424W        W69477  19.629  32.121   9.366 -0.0138 -0.1383 -0.0318
26425W        W69478  31.492  21.858   8.633  0.1777  0.0229  0.3260
26426W        W69479   4.295  20.797  27.633 -0.4103  0.2032 -0.3482
26427W        W69480  29.736  32.422   9.222  0.2372  0.3414  0.2175
26428W        W69481  26.764   2.355   8.944  0.0683  0.0753  0.3432
26429W        W69482  21.857  23.782   4.979 -0.1681 -0.1241  0.2286
26430W        W69483  27.478  16.012   9.217 -0.0282 -0.0657 -0.0254
26431W        W69484  10.882  13.828   1.542 -0.0040 -0.0485 -0.1232
26432W        W69485  25.311  26.084   0.826  0.1434 -0.1937 -0.0893
26433W        W69486  28.328  23.997  15.784  0.2337  0.3847 -0.4151
26434W        W69487  19.455  29.276  27.491 -0.1164  0.0735 -0.0852
26435W        W69488  27.242  10.769   2.476  0.0111  0.2515  0.0221
26436W        W69489  13.889  18.716   9.683  0.0752 -0.0348  0.3395
26437W        W69490  28.899  30.016  21.980  0.0557 -0.2641  0.1152
26438W        W69491   8.188  15.120   4.921  0.4115 -0.1537  0.0363
26439W        W69492  12.323  32.395   3.567  0.3932 -0.3860 -0.0165
26440W        W69493  22.888  30.397   2.790  0.0007 -0.1616  0.1102
26441W        W69494  17.494  17.378  24.506 -0.0796  0.0041  0.1699
26442W        W69495  23.904   7.326   5.916  0.1138  0.0132  0.1950
26443W        W69496  14.575   6.035   1.592 -0.0157 -0.0990  0.2838
26444W        W69497  24.107  32.930   2.896 -0.0346 -0.1806 -0.1213
26445W        W69498  23.989  22.164   1.773 -0.0444 -0.1197 -0.3103
26446W        W69499  22.424  14.500  22.192  0.0645  0.0758 -0.1306
26447W        W69500  28.711  25.136   7.760 -0.0120  0.1786  0.1945
26448W        W69501  22.976  32.571  27.714 -0.1526 -0.2400  0.2172
26449W        W69502  16.481  24.687   4.300  0.0201 -0.1740  0.1585
26450W        W69503  20.151  24.519   2.584 -0.1530 -0.0209  0.2788
26451W        W69504   3.716  17.717   8.704  0.1570 -0.0201 -0.0755
26452W        W69505  18.391  20.864   2.068 -0.1921 -0.1707 -0.1147
26453W        W69506  20.916  21.050   1.976  0.5313  0.0775  0.0064
26454W        W69507  16.372  23.359   7.889  0.0070  0.0717  0.1735
26455W        W69508  16.720  13.781   9.120  0.1735 -0.1959 -0.0434
26456W        W69509   8.280  25.545   1.671  0.0161  0.1952  0.1556
26457W        W69510  19.633  11.386   6.487  0.2351 -0.3408 -0.0707
26458W        W69511  19.337   3.412   9.451 -0.1017  0.1508 -0.1350
26459W        W69512  15.849   0.291  14.492  0.1602  0.0158  0.2385
26460W        W69513  14.740  29.197  10.194 -0.1816 -0.0011  0.1312
26461W        W69514  24.144  31.440  19.155  0.0356 -0.0562 -0.2537
26462W        W69515  24.285  18.070  25.584  0.3187  0.0269  0.0601
26463W        W69516  23.334  21.363  18.072  0.0146  0.2392  0.1931
26464W        W69517   4.296   5.212   2.443  0.1085  0.2881 -0.2048
26465W        W69518  27.756  24.564  27.830  0.0087 -0.1269  0.0556
26466W        W69519  19.246  25.020   9.952 -0.0285  0.1775 -0.1477
26467W        W69520  31.597  20.005   0.068  0.0899  0.2465 -0.1637
26468W        W69521  24.998  25.046   4.266  0.2903 -0.2023 -0.2826
26469W        W69522  27.718   6.910  19.342  0.0646  0.0736 -0.3379
26470W        W69523  25.251  23.853   2.343 -0.0130 -0.1712  0.1977
26471W        W69524  23.485  15.698   5.662  0.2782  0.1625 -0.0482
26472W        W69525  11.660  11.905   9.351 -0.5466 -0.0273  0.0460
26473W        W69526  18.922   3.942  26.333 -0.1944 -0.1383  0.1250
26474W        W69527  29.360  28.855   8.629  0.0901 -0.0783 -0.2147
26475W        W69528   9.604  13.522  29.069  0.0736  0.0016 -0.1191
26476W        W69529  25.761   5.921  10.453  0.0191  0.0080 -0.1541
26477W        W69530  26.278  31.368   9.773  0.1085  0.1403 -0.1761
26478W        W69531  17.792  10.762   2.164 -0.1087  0.2749 -0.1165
26479W        W69532  27.080  19.473  21.399  0.0539 -0.1828  0.0326
26480W        W69533  34.189  20.919   5.845 -0.0767 -0.0543  0.0246
26481W        W69534  23.226  11.830  26.574 -0.0617 -0.0187  0.0826
26482W        W69535  25.129  25.822   9.384  0.0127  0.1003  0.0895
26483W        W69536  29.092  34.319  23.614 -0.1709 -0.0698  0.1079
26484W        W69537   1.583  26.172  29.095  0.4363 -0.0358 -0.1513
26485W        W69538  26.119  17.208  14.820 -0.0817 -0.2482  0.0776
26486W        W69539  28.394   5.740   0.604  0.1445 -0.0272  0.2335
26487W        W69540  21.029  18.881  27.861 -0.1780  0.0041  0.4571
26488W        W69541  27.441  31.762   8.867  0.0448 -0.2067  0.2288
26489W        W69542  30.077  23.469   3.219 -0.0326  0.1176  0.1664
26490W        W69543  22.027   5.385   3.934  0.0189  0.1273  0.0715
26491W        W69544  20.672   4.499  28.024 -0.2386  0.0597  0.1435
26492W        W69545  24.010  20.317  28.172  0.0491 -0.0785 -0.0974
26493W        W69546  24.073  12.837   4.828 -0.4657  0.0543  0.2120
26494W        W69547  23.332  33.070   8.535 -0.0505 -0.0610  0.0900
26495W        W69548  15.145  19.170   0.721 -0.1353  0.1422  0.2948
26496W        W69549  12.316   2.526   8.087 -0.0789 -0.4329  0.1072
26497W        W69550  14.416  10.341   2.964 -0.0127  0.1223 -0.0546
26498W        W69551   9.463  33.428   7.023 -0.1380 -0.1533 -0.0002
26499W        W69552  25.474   8.302   7.287  0.0028 -0.0603 -0.2948
26500W        W69553  12.254  21.536   3.823  0.2316 -0.0137  0.0517
26501W        W69554  28.730  22.178   4.745  0.1905 -0.0459  0.2300
26502W        W69555  24.849   8.716   1.906 -0.1589 -0.0356 -0.0621
26503W        W69556  20.711  12.508  26.952  0.2235  0.1594  0.0859
26504W        W69557  29.114  29.346   8.059 -0.0313 -0.1079 -0.3077
26505W        W69558  21.915  30.682   4.684  0.0930  0.4075 -0.1470
26506W        W69559  19.480   8.569   2.278  0.1098 -0.2419 -0.1388
26507W        W69560  24.365  15.362   9.001  0.0573  0.0403 -0.1631
26508W        W69561  21.922  16.941   1.600 -0.0587  0.1759  0.0594
26509W        W69562  13.188  17.760   6.079 -0.1032 -0.3100  0.4209
26510W        W69563  18.036   6.187   9.487 -0.1608  0.2388  0.1759
26511W        W69564  14.423  21.929  25.053  0.1858  0.0796 -0.1515
26512W        W69565  24.708  19.493  28.804 -0.2265 -0.3777  0.3156
26513W        W69566  23.296  20.039   5.758 -0.0138 -0.3327 -0.0027
26514W        W69567  24.502  23.543   6.189  0.0558 -0.2002 -0.0033
26515W        W69568  30.760   0.557   0.898 -0.1994 -0.3492  0.0492
26516W        W69569   7.079  16.103   1.554 -0.2227  0.2855  0.2446
26517W        W69570  27.509   1.690   6.432 -0.1237 -0.2977  0.2431
26518W        W69571  14.994  11.719   1.267 -0.6110  0.1993  0.3426
26519W        W69572  16.117   3.114   4.432 -0.1619  0.1163 -0.5478
26520W        W69573  16.023  32.040   6.434 -0.0832 -0.0328  0.2181
26521W        W69574   1.792   5.712   4.536  0.2868 -0.2151  0.1924
26522W        W69575  17.909   2.616   4.395 -0.0810  0.0151 -0.0891
26523W        W69576  29.793  26.593  25.057  0.0256  0.1677  0.0373
26524W        W69577  29.389   2.897   7.276  0.0397  0.2647  0.2383
26525W        W69578   5.445   4.399  22.236 -0.0775 -0.0209 -0.0088
26526W        W69579  17.802  16.543   7.063  0.0830 -0.1518 -0.0455
26527W        W69580  31.172  20.133   3.443 -0.3130  0.2237  0.1207
26528W        W69581  16.958   9.726   7.294  0.0942 -0.0558  0.3061
26529W        W69582   4.531  32.770  27.929  0.0164 -0.3078 -0.2188
26530W        W69583  26.973  25.574  18.425 -0.0944 -0.2459 -0.3219
26531W        W69584  12.497  24.562   3.610  0.0134 -0.2148 -0.0535
26532W        W69585  21.441  22.296   4.591  0.1329  0.1254  0.0538
26533W        W69586   0.717   2.008   6.393  0.1568  0.1263 -0.0325
26534W        W69587   2.654  21.833  21.443  0.0904 -0.1371  0.2653
26535W        W69588   0.187  24.648   5.106  0.1485  0.1746 -0.4065
26536W        W69589   4.225   1.882   7.825 -0.1029 -0.1001 -0.2392
26537W        W69590  19.906  17.357   6.279  0.3187 -0.2045 -0.0846
26538W        W69591  26.309  34.012  26.778 -0.4083  0.0859 -0.0541
26539W        W69592  30.093  28.153  29.074 -0.0241 -0.1848 -0.0326
26540W        W69593  20.949  26.683   9.666 -0.1365  0.0895 -0.2099
26541W        W69594  16.250  20.804   9.598  0.1397 -0.1564 -0.0056
26542W        W69595  32.848  20.703   4.050 -0.2389 -0.2984 -0.2151
26543W        W69596  26.175  18.143   7.274 -0.0155  0.0730  0.1261
26544W        W69597  22.260  12.842   6.960  0.3025 -0.3605 -0.1037
26545W        W69598  25.532  16.813  21.522 -0.0227  0.2783 -0.2160
26546W        W69599  24.516  17.070   7.861 -0.2543  0.0892  0.0162
26547W        W69600   5.917  15.597   0.843 -0.2453  0.1532  0.1635
26548W        W69601  32.887  23.258   1.552 -0.4201  0.0322 -0.0979
26549W        W69602  14.782   8.813  10.448  0.1162 -0.0115 -0.2977
26550W        W69603  20.709  18.286   0.417  0.0593 -0.0835  0.0694
26551W        W69604  21.312  12.909   7.705 -0.0277  0.2568 -0.1180
26552W        W69605  19.237  11.059  28.911 -0.0038 -0.0083  0.2363
26553W        W69606  18.731  31.989  10.299  0.3225 -0.1369  0.2517
26554W        W69607  20.164   8.986  25.538 -0.0125  0.3854  0.1534
26555W        W69608  17.936  19.203  25.506 -0.2558 -0.2680 -0.0136
26556W        W69609  20.403  26.194  29.038  0.0597 -0.2486 -0.3697
26557W        W69610  21.146  16.039   4.538  0.4618  0.4080  0.5368
26558W        W69611  27.609  18.387  28.815  0.2366  0.2730 -0.1990
26559W        W69612  21.299  24.091   8.060  0.2429 -0.0392  0.2107
26560W        W69613  31.554  26.760   9.420 -0.0287  0.0875 -0.0034
26561W        W69614   4.469  25.753   3.553  0.0165 -0.0381  0.1116
26562W        W69615  28.031  22.043   7.540 -0.0463  0.1010  0.0307
26563W        W69616  23.567  33.006   2.454  0.2170 -0.2263  0.1013
26564W        W69617  24.682  14.835  26.980  0.3226 -0.1206  0.1028
26565W        W69618  18.415  15.125   4.292 -0.3158  0.0798  0.0904
26566W        W69619  29.096  30.398   7.888  0.5106 -0.0526 -0.0456
26567W        W69620   7.795  24.694   3.269 -0.1623 -0.0548  0.3450
26568W        W69621   0.188  27.293   3.564 -0.1683 -0.2129  0.3272
26569W        W69622  20.682  30.804  22.228 -0.1331  0.0091  0.1559
26570W        W69623  20.311  15.312   4.534  0.2115 -0.2325 -0.0273
26571W        W69624   2.979  25.562  19.519  0.0437  0.0345 -0.0553
26572W        W69625  19.231  26.744   7.803 -0.0793 -0.3129 -0.0824
26573W        W69626  22.000  17.000   6.502  0.3302 -0.0832  0.1074
26574W        W69627  25.063  19.397   1.476  0.2336 -0.1579 -0.0901
26575W        W69628  29.281  25.689   0.065  0.2438  0.0125  0.0431
26576W        W69629  21.121  21.810  28.056  0.0464  0.3223  0.0686
26577W        W69630  29.912  12.281  11.045 -0.0590 -0.2226 -0.1142
26578W        W69631  23.281  16.631   7.427 -0.1897  0.3368 -0.1469
26579W        W69632   1.567   9.602   8.439 -0.0225 -0.1680  0.2432
26580W        W69633  24.814  17.245  10.210 -0.1372  0.1627 -0.1158
26581W        W69634  21.826  27.260   3.466 -0.5066  0.0336 -0.1843
26582W        W69635  22.119  17.262  14.255 -0.0699  0.6206  0.4120
26583W        W69636  10.141  20.282   5.700  0.1962 -0.1272  0.0456
26584W        W69637  28.121  19.855   5.855 -0.1642  0.0434  0.0298
26585W        W69638  32.067  11.568  24.614 -0.1798 -0.2961 -0.2425
26586W        W69639  20.065  24.591   7.924  0.0172  0.2159 -0.1704
26587W        W69640   7.695  24.783   9.073  0.0447 -0.1962  0.0607
26588W        W69641  18.883  26.698   9.940  0.0543  0.1124 -0.1039
26589W        W69642   9.039  19.449   8.575  0.0524 -0.2262 -0.1702
26590W        W69643  28.439  20.486   5.416  0.1840 -0.1905 -0.1868
26591W        W69644  25.289   1.534   8.174 -0.2160  0.5059  0.0409
26592W        W69645  21.102  12.922  23.998 -0.0557 -0.1907 -0.0785
26593W        W69646  21.646  14.983   9.680 -0.1095  0.0953 -0.1381
26594W        W69647  14.187  11.775   9.332 -0.1021  0.1123  0.1096
26595W        W69648  23.201  25.334   9.984  0.0892 -0.0332 -0.1666
26596W        W69649  15.597   7.719   1.026 -0.0072  0.1575  0.1464
26597W        W69650  24.620  31.968  10.517  0.0723  0.2058 -0.0472
26598W        W69651  24.437  23.916  29.082 -0.0951 -0.0220  0.0286
26599W        W69652  19.405  19.239   5.588  0.0246  0.1470  0.1042
26600W        W69653  20.168  14.042   4.411 -0.2035 -0.0828 -0.0769
26601W        W69654  19.851  30.101  23.433 -0.0514  0.0829 -0.0879
26602W        W69655  17.989  14.282   8.279  0.0720  0.0029 -0.2294
26603W        W69656  20.017   8.041   9.250  0.0460 -0.1369  0.0237
26604W        W69657  27.080  22.053   3.697  0.0903 -0.0512 -0.1449
26605W        W69658  20.509   3.316  27.349  0.0123  0.0212 -0.0752
26606W        W69659  11.771  33.594   7.677  0.3108 -0.1811  0.0338
26607W        W69660  22.896  23.517  23.976 -0.1129  0.2761  0.2393
26608W        W69661  23.111  24.169   7.160 -0.3533 -0.0465 -0.2219
26609W        W69662  31.708  16.653   1.888  0.0109  0.0045  0.2500
26610W        W69663  27.788  26.118  27.888  0.1800  0.1817  0.0788
26611W        W69664  25.672  14.992  27.177 -0.1969 -0.4065  0.0642
26612W        W69665  20.281  29.727  17.893  0.0963  0.0008 -0.1419
26613W        W69666  33.333  32.289  25.211 -0.0323 -0.4493 -0.1556
26614W        W69667  21.016  31.117  27.422 -0.0403  0.1619 -0.0585
26615W        W69668  29.997  28.234  26.260 -0.0303 -0.1732 -0.0835
26616W        W69669   0.576  23.400   8.755  0.1221 -0.1135 -0.0064
26617W        W69670  12.425  19.029   9.151  0.0048  0.0115 -0.2031
26618W        W69671  23.538  15.112   6.573 -0.0845  0.3092 -0.1486
26619W        W69672  25.567  34.081   9.822  0.1305 -0.0431 -0.2294
26620W        W69673  27.667  11.691   1.122 -0.3031  0.2532 -0.3651
26621W        W69674  15.773  24.419   7.308 -0.1133  0.1414  0.2218
26622W        W69675  31.782  24.292  26.836 -0.4344  0.2921  0.1950
26623W        W69676  27.266  26.104   6.334 -0.0402  0.2310  0.0237
26624W        W69677  29.855  12.075   2.568  0.0723 -0.0728  0.0576
26625W        W69678  27.478  21.581  10.155  0.1179 -0.1025 -0.1559
26626W        W69679  24.320  13.173   2.826  0.0208 -0.1488  0.0550
26627W        W69680   3.929  13.913   5.340  0.3226  0.1549 -0.0890
26628W        W69681  32.849   8.315   6.709  0.0322 -0.1243 -0.1646
26629W        W69682  28.202  27.849  26.692  0.0284 -0.0065  0.1268
26630W        W69683  32.067  30.486   6.436  0.0026  0.0326 -0.2152
26631W        W69684  25.849  31.711   7.659  0.2799 -0.0165  0.1222
26632W        W69685  10.566  14.905   9.577 -0.0413 -0.2821 -0.0123
26633W        W69686  19.937  12.954   4.391 -0.2491 -0.1984 -0.0474
26634W        W69687  29.407  21.112   8.733  0.0690 -0.0333  0.0432
26635W        W69688  20.686  12.942   5.532 -0.1702 -0.1094 -0.2200
26636W        W69689  28.245   3.110  19.213 -0.2082 -0.0343 -0.0518
26637W        W69690  22.526  19.052   0.970  0.1440 -0.1377 -0.1452
26638W        W69691  25.154  15.635   1.471  0.0371 -0.0706  0.1255
26639W        W69692  27.309  30.429   3.868 -0.2698  0.1524 -0.1211
26640W        W69693  23.798  19.520  22.139 -0.2388 -0.0097  0.5200
26641W        W69694  28.125  19.363   3.534  0.1554 -0.0653  0.1190
26642W        W69695   3.639  21.479   8.305 -0.0278 -0.0767  0.0812
26643W        W69696  22.724  10.976  21.859  0.0652 -0.3513  0.2535
26644W        W69697  22.772  22.124   8.167 -0.0893 -0.0160  0.1993
26645W        W69698  22.794  19.970   0.913 -0.3614  0.1880 -0.3334
26646W        W69699  24.666  29.861   8.875 -0.0897  0.0898 -0.4904
26647W        W69700  14.417  24.043   2.625 -0.0970 -0.1424 -0.1753
26648W        W69701  24.191  26.263   6.848 -0.0044 -0.0599  0.4179
26649W        W69702   1.699  26.232  18.808 -0.1346  0.2165 -0.2693
26650W        W69703   1.698  12.180  23.298  0.2542 -0.2409  0.1461
26651W        W69704  33.116  30.407   3.816  0.1341 -0.0874 -0.2318
26652W        W69705  26.509  32.818   5.730  0.2056 -0.0622 -0.1844
26653W        W69706   1.130  26.124   8.600  0.2910  0.2633 -0.1057
26654W        W69707  32.346  24.136   6.270  0.0796  0.2645  0.2797
26655W        W69708  29.870  15.421  25.084 -0.0441 -0.1451  0.2190
26656W        W69709  31.098  11.597  29.068  0.0785 -0.0375  0.2269
26657W        W69710  12.696  16.133   3.397 -0.0758 -0.2704  0.3351
26658W        W69711  34.287  14.177  26.327 -0.0651 -0.1417  0.1372
26659W        W69712  33.541  26.181  27.205 -0.2816 -0.0066  0.2577
26660W        W69713  13.276  13.361   6.894  0.0180  0.0644 -0.0437
26661W        W69714  18.870  20.763   2.487  0.1528 -0.4235  0.3000
26662W        W69715  19.941  20.869  20.854  0.0844 -0.1089 -0.0089
26663W        W69716   6.024  19.386   6.978  0.0555  0.0759 -0.2468
26664W        W69717  20.103  24.523   3.654  0.0506 -0.1808  0.0633
26665W        W69718  22.867  27.058  22.552  0.2185 -0.0266 -0.0563
26666W        W69719  22.966  16.441   2.109  0.1076  0.0264  0.0491
26667W        W69720  14.588  23.161   6.915 -0.2199 -0.2397 -0.2257
26668W        W69721  16.999  24.351   6.354  0.1711 -0.0637 -0.1081
26669W        W69722  31.877  27.977   5.158  0.1269  0.0739 -0.2181
26670W        W69723  19.479  18.666   7.405 -0.1573 -0.1208  0.1366
26671W        W69724  14.504  27.364   8.204  0.2623 -0.0524 -0.1617
26672W        W69725  30.583  26.051   7.298 -0.1080 -0.2888 -0.2885
26673W        W69726  12.690  25.004  23.458 -0.2649  0.0675 -0.1141
26674W        W69727  31.298  26.366  28.614 -0.2320 -0.2794 -0.0528
26675W        W69728  23.543  23.427  23.997 -0.0237  0.0949 -0.3010
26676W        W69729   9.333  22.436   9.506 -0.0637  0.0512 -0.0858
26677W        W69730  20.085  16.066   2.019  0.0235 -0.0878 -0.3257
26678W        W69731  28.258   0.294  27.384 -0.2034 -0.0462 -0.0996
26679W        W69732  20.866  20.807   4.451  0.0551 -0.2125 -0.2280
26680W        W69733  21.148  24.450   4.514 -0.0328  0.0594 -0.0889
26681W        W69734  26.705  18.741   8.064  0.1988  0.0864 -0.1696
26682W        W69735  21.896  19.672   6.817 -0.0176 -0.1271  0.0088
26683W        W69736  16.134  20.940  24.799  0.2483 -0.4852 -0.2271
26684W        W69737  13.558  19.576  24.343  0.0859 -0.2677 -0.1495
26685W        W69738  30.961  13.246   4.703 -0.1561  0.0844 -0.2512
26686W        W69739  18.220  23.356   3.711 -0.0037 -0.0517  0.0768
26687W        W69740  15.003  24.781   6.358 -0.2358 -0.1019  0.0382
26688W        W69741   2.431   3.600   3.421 -0.1032  0.1466 -0.0268
26689W        W69742  24.136  15.641  16.261  0.0833  0.0400 -0.0469
26690W        W69743   2.394  31.405   7.079  0.0565 -0.4590 -0.0054
26691W        W69744   5.329  16.542  23.353  0.0923  0.1937 -0.0917
26692W        W69745  23.241  29.617   4.346  0.1393 -0.0425  0.0824
26693W        W69746  22.548   9.182   6.712  0.0332  0.1310 -0.0083
26694W        W69747  30.582  23.688  20.303 -0.0481  0.0259  0.4693
26695W        W69748  19.230   3.050  23.506  0.1687  0.2432 -0.0384
26696W        W69749   3.814  24.526   5.215  0.1416  0.0078 -0.0481
26697W        W69750  27.736  21.323  21.096  0.0175 -0.0512  0.0153
26698W        W69751  21.372  31.063   1.301  0.2428  0.1110 -0.1014
26699W        W69752  33.793  13.175   7.076  0.0419 -0.2015 -0.1893
26700W        W69753  13.246  17.007   6.350  0.1001  0.1454 -0.2187
26701W        W69754   6.752  32.223  28.038  0.1335  0.1124 -0.0326
26702W        W69755  29.555  32.120   8.800 -0.4003  0.2158 -0.0921
26703W        W69756  28.527  20.456   6.568 -0.0217 -0.0837  0.0847
26704W        W69757  32.708  15.421  24.930 -0.1297  0.1928 -0.1196
26705W        W69758  20.124  20.913   9.052 -0.2498 -0.1556 -0.0020
26706W        W69759  19.374  17.541   0.244  0.3301  0.0395  0.1549
26707W        W69760  31.152  18.983  10.147 -0.1941 -0.0289 -0.0511
26708W        W69761  24.766   4.492  23.651 -0.4245  0.0017  0.4970
26709W        W69762  22.807  10.178   6.694 -0.1493  0.0113 -0.2882
26710W        W69763  33.424  20.003   9.777  0.0266  0.2328 -0.2163
26711W        W69764   2.530  20.268  28.206 -0.1542 -0.0317  0.0062
26712W        W69765  22.418  30.689  25.946 -0.0051  0.1566 -0.1165
26713W        W69766  26.101   5.659   7.033  0.0691 -0.1226  0.0792
26714W        W69767  16.982   3.870  19.419 -0.0861 -0.3223  0.1619
26715W        W69768  15.679  20.055   7.319  0.1521  0.3527 -0.2691
26716W        W69769  15.359  28.695   6.194 -0.0657 -0.0185  0.1415
26717W        W69770   0.966  23.138   6.519 -0.3256 -0.4384 -0.4008
26718W        W69771  16.773  11.642  27.919  0.2226 -0.0439  0.0655
26719W        W69772  23.375  22.457  25.251 -0.1801  0.2164 -0.2677
26720W        W69773  25.055  26.442   0.496 -0.1598 -0.0317  0.0161
26721W        W69774  12.059  15.974  26.669 -0.1867  0.1204  0.0544
26722W        W69775  20.855  23.697  11.394 -0.0696 -0.1554 -0.2963
26723W        W69776   0.245  23.873   6.225  0.0037  0.0899 -0.1984
26724W        W69777  17.926  24.565   5.695 -0.3465  0.2992  0.1150
26725W        W69778  26.365  12.756   3.489  0.0179 -0.1102 -0.3801
26726W        W69779   5.063  16.877   6.889  0.1170  0.2370 -0.0127
26727W        W69780  31.325  21.413  10.133 -0.0662 -0.1001 -0.3340
26728W        W69781  25.145  15.061   8.780  0.1094  0.5583 -0.4691
26729W        W69782  32.839  14.825   2.844  0.0073 -0.2524  0.1603
26730W        W69783  32.339  23.644   5.586 -0.3244  0.1614  0.2290
26731W        W69784   4.725  27.570   7.724 -0.0880  0.1105 -0.0848
26732W        W69785   0.037  32.548   4.965  0.1660  0.0066  0.1302
26733W        W69786  21.090  15.894   6.061  0.1639 -0.0694  0.0049
26734W        W69787   1.773  18.522   9.358 -0.1889 -0.0005  0.1532
26735W        W69788  25.632   0.509  26.830 -0.0252 -0.0656 -0.1362
26736W        W69789   0.531  13.742  27.626 -0.5532  0.1202  0.2558
26737W        W69790  23.092  26.689   6.771  0.3051  0.0955  0.0281
26738W        W69791  30.309  28.627   3.760  0.0149 -0.0556 -0.1050
26739W        W69792  17.908  21.038   5.207  0.3890 -0.1163 -0.2222
26740W        W69793  11.809  28.668  28.540 -0.3254 -0.1336  0.2223
26741W        W69794  26.305  21.575   2.050 -0.1424  0.0461 -0.0012
26742W        W69795  21.725   2.657   4.420 -0.3658 -0.2558  0.0558
26743W        W69796  26.865   7.502  20.156 -0.1640 -0.1315  0.3575
26744W        W69797  21.286  18.259   8.060  0.4236 -0.0393  0.3864
26745W        W69798   8.941  23.950   9.435  0.1472 -0.2188 -0.2287
26746W        W69799  21.282  15.935   5.014  0.2161  0.2335 -0.0471
26747W        W69800  27.561  17.897   1.551  0.0074 -0.0207 -0.0657
26748W        W69801  32.952  15.740   4.656 -0.1627  0.1675  0.1410
26749W        W69802  25.185  16.109   9.792 -0.1641  0.2502  0.4023
26750W        W69803  31.854  26.646   1.019 -0.3652  0.0043 -0.1054
26751W        W69804  13.857  27.587   3.538  0.0439  0.0934  0.1433
26752W        W69805   1.250  24.125   9.999  0.2774  0.0503  0.1195
26753W        W69806  15.256  25.042  21.789 -0.2352 -0.2164  0.1877
26754W        W69807  21.862  16.757   7.842 -0.0916 -0.1822 -0.0565
26755W        W69808  28.058  20.816   0.771  0.0230 -0.0422  0.0603
26756W        W69809   5.979   3.785   9.712 -0.0421 -0.1203  0.1979
26757W        W69810  30.209  27.062  22.198 -0.0516  0.1871  0.2432
26758W        W69811   8.516  13.342   3.840  0.1575 -0.0590  0.0325
26759W        W69812  26.621  18.493  29.088 -0.1753 -0.2336  0.0582
26760W        W69813  30.422  20.163  26.592  0.0676  0.1149  0.1354
26761W        W69814  29.787  28.683   8.441 -0.0706  0.3580  0.0991
26762W        W69815  15.276  27.816   4.102 -0.0178 -0.1388 -0.0781
26763W        W69816  20.744   0.976   5.456  0.2946  0.0529  0.0689
26764W        W69817   1.923  11.734   6.101 -0.0112 -0.1171 -0.1341
26765W        W69818  27.460  31.536  24.312  0.1639  0.1160  0.1855
26766W        W69819  16.844  34.120  10.620 -0.3087  0.0066 -0.1466
26767W        W69820  30.716  22.386   4.741  0.4763  0.1287  0.0748
26768W        W69821  12.629  33.603   7.825 -0.3019 -0.0111 -0.2259
26769W        W69822  24.568  25.505  10.821  0.3389 -0.1430  0.4877
26770W        W69823   3.541  21.404   4.350  0.2212 -0.0251  0.1850
26771W        W69824  20.394   4.152   8.626 -0.1061  0.0659 -0.1654
26772W        W69825  28.072  13.963   9.955  0.1891  0.2075 -0.1135
26773W        W69826  15.406  32.574  26.270  0.1587  0.0987 -0.0200
26774W        W69827  31.490  24.083   7.792  0.1243 -0.0894  0.2062
26775W        W69828   4.442  20.947   9.356  0.1189  0.1592 -0.0735
26776W        W69829  23.119  21.067   8.794  0.1680  0.3853 -0.0471
26777W        W69830  25.696  24.277  20.642  0.2007 -0.0262 -0.4896
26778W        W69831   8.390   1.127   0.041 -0.0882 -0.1068 -0.1398
26779W        W69832   5.210  29.848  28.957  0.0124 -0.0538  0.1688
26780W        W69833  27.761  31.261   7.038  0.0210  0.0040  0.2475
26781W        W69834  25.174  33.676   0.726 -0.1132 -0.2977  0.0207
26782W        W69835   3.477  19.999   1.840 -0.0931 -0.1261  0.3740
26783W        W69836  16.681  11.482   9.079  0.0842  0.0738 -0.2949
26784W        W69837  11.496  10.160  10.406  0.2673 -0.1104  0.0447
26785W        W69838  19.008  21.202   8.996  0.0283  0.3808  0.0427
26786W        W69839   0.091   2.531   9.765 -0.1203  0.1327 -0.1819
26787W        W69840  32.598  23.782   5.103  0.1356 -0.1423 -0.0451
26788W        W69841  24.258  11.941  28.396 -0.0255  0.0295 -0.1593
26789W        W69842  33.146   8.816  24.990  0.0757 -0.1001  0.1417
26790W        W69843  23.472  17.603   7.475  0.0019 -0.1098  0.0214
26791W        W69844  25.754  14.916   8.014 -0.0691 -0.0600  0.0961
26792W        W69845  29.343  27.554   3.333 -0.0170 -0.0260 -0.1007
26793W        W69846  28.975  11.791  26.796 -0.0845 -0.2074 -0.1043
26794W        W69847  14.010  25.395  18.533 -0.0861  0.1767  0.2030
26795W        W69848  22.054  24.162   9.572 -0.1037 -0.1502  0.0354
26796W        W69849  14.146  15.482   4.964  0.0119 -0.1570  0.1534
26797W        W69850  21.036  29.141  24.908 -0.0090  0.4124  0.1005
26798W        W69851  18.211  22.059  24.882  0.0079  0.0198  0.1258
26799W        W69852  23.202   8.574   4.990  0.1582  0.1942  0.1402
26800W        W69853  32.626  24.954   8.111  0.1524 -0.2539  0.1561
26801W        W69854  20.746  31.423   7.287 -0.0397 -0.1055 -0.1527
26802W        W69855  10.408  28.318   8.717  0.0140 -0.0606 -0.1394
26803W        W69856  12.786  14.379   8.051  0.1696  0.2461 -0.3273
26804W        W69857  19.021  22.557  28.602 -0.1190  0.3894 -0.3223
26805W        W69858  29.456  22.560   9.805  0.0281  0.0710 -0.0881
26806W        W69859  28.907   8.237  17.577 -0.0700 -0.1200  0.2202
26807W        W69860   6.648  18.260   8.151 -0.0902 -0.2008 -0.3313
26808W        W69861  27.653  26.636  29.027 -0.1259 -0.0203  0.1365
26809W        W69862  19.899  31.155   0.452 -0.2363  0.0419 -0.0752
26810W        W69863  20.640  30.368  10.641  0.0846  0.2467 -0.2482
26811W        W69864  32.429  20.151   1.840 -0.2200  0.1462 -0.0478
26812W        W69865  24.697  28.572   1.060 -0.0942  0.1742 -0.1413
26813W        W69866  22.610  28.465   7.622 -0.0796  0.0369 -0.1028
26814W        W69867  10.571  32.445  21.378  0.1907 -0.0366  0.1735
26815W        W69868  17.949  18.375  27.531 -0.1171 -0.0030 -0.1748
26816W        W69869  17.583  18.279   2.080 -0.0785 -0.0422  0.2495
26817W        W69870  15.345  20.069   8.374  0.1069  0.0936  0.0463
26818W        W69871   9.801  28.379   5.527  0.0243 -0.0907  0.3605
26819W        W69872  27.650  11.290  27.602 -0.1358  0.0737  0.1375
26820W        W69873  19.738  18.232   7.451  0.1441  0.0447  0.1570
26821W        W69874  13.423  11.687  28.003 -0.0140  0.1221 -0.2794
26822W        W69875  28.262   1.891  24.721 -0.0416 -0.0899 -0.1840
26823W        W69876  22.723  34.455   6.775 -0.3350 -0.0561 -0.0390
26824W        W69877  29.744  33.157  26.662 -0.0024  0.0391 -0.0808
26825W        W69878   3.184   0.081  29.072 -0.1814 -0.0271 -0.0319
26826W        W69879  16.032  22.686  19.112 -0.0261  0.0607 -0.0461
26827W        W69880  23.903  12.005  10.221  0.0131  0.0181 -0.1186
26828W        W69881  20.123   2.070   0.143 -0.0339  0.1557 -0.1921
26829W        W69882   1.394   3.233   4.947  0.2499 -0.0043  0.0598
26830W        W69883   1.211   5.837  26.715 -0.4914  0.2040 -0.0451
26831W        W69884  28.820   4.117   0.263  0.0963  0.1357  0.0236
26832W        W69885  17.389  27.438  28.814  0.2091 -0.0192 -0.1581
26833W        W69886  32.285  31.683   6.381 -0.1645 -0.0491 -0.0420
26834W        W69887  30.868  30.800  17.578  0.0921 -0.2682  0.1794
26835W        W69888  26.178  24.427  25.806 -0.1188  0.2531 -0.0166
26836W        W69889  11.558  22.555  24.290  0.1009 -0.1315  0.0028
26837W        W69890  23.531  11.362   4.499 -0.2096  0.2574 -0.1212
26838W        W69891  22.003  27.171  24.525  0.0927 -0.5085  0.0042
26839W        W69892  27.203   5.902  23.312  0.1128 -0.1076  0.0353
26840W        W69893   4.834  24.238  17.095 -0.0931 -0.1614 -0.0358
26841W        W69894  30.346  23.045  16.061 -0.0442 -0.0748 -0.3023
26842W        W69895  21.168  33.677  26.860 -0.0226 -0.1807  0.1738
26843W        W69896   5.603  29.359   5.066 -0.0140 -0.0188 -0.1133
26844W        W69897  10.830  23.990   2.597 -0.1336  0.3324 -0.0143
26845W        W69898  21.452  26.025   6.533  0.0468  0.0208 -0.0475
26846W        W69899  12.409  20.927   1.579  0.1000 -0.0489  0.2331
26847W        W69900  29.698  32.337   2.814  0.0133  0.4437 -0.2986
26848W        W69901  10.971  19.162  22.695  0.0332 -0.2125 -0.1270
26849W        W69902  13.295   1.382   8.015 -0.2459  0.0868  0.0746
26850W        W69903  26.442  31.932   0.136 -0.0105 -0.1762  0.0037
26851W        W69904  23.139   1.178  19.169  0.1317  0.3087  0.2052
26852W        W69905  28.105  30.057   4.807  0.0907 -0.1096 -0.0618
26853W        W69906  30.900  27.035   8.166  0.1864  0.0593  0.1464
26854W        W69907  30.507  23.817  28.682  0.0415  0.1169  0.2408
26855W        W69908  20.036  29.967  27.530 -0.1065  0.2218 -0.0004
26856W        W69909   4.272  29.698   2.524  0.0247 -0.2277  0.2043
26857W        W69910  28.907  27.039   1.782  0.2978  0.1044 -0.1238
26858W        W69911  29.341  16.291   8.528  0.2970 -0.1907 -0.1790
26859W        W69912  12.868  22.974   6.043 -0.0231  0.0349 -0.1622
26860W        W69913  33.861  19.335   1.827 -0.1923  0.0926 -0.2388
26861W        W69914  28.608   9.026   4.980 -0.1594 -0.1415 -0.1903
26862W        W69915  28.420  30.315  28.301 -0.1181  0.0996 -0.0677
26863W        W69916  27.618   9.904   1.529 -0.0285  0.0963  0.2007
26864W        W69917  27.325  12.063  26.589 -0.0886 -0.2224 -0.2086
26865W        W69918  15.431  32.828  17.234  0.0405 -0.1338 -0.2564
26866W        W69919  34.176   9.455   8.798  0.1451  0.2133  0.1421
26867W        W69920  18.614  34.607   5.278  0.1696  0.2702 -0.1585
26868W        W69921  15.506  28.163   9.315  0.1381 -0.0913  0.0983
26869W        W69922   6.834   0.393   4.394  0.0505  0.2224 -0.1195
26870W        W69923  22.523  18.163   2.611 -0.1400 -0.0521  0.0225
26871W        W69924  25.921  34.325  23.245  0.4251 -0.3165 -0.0958
26872W        W69925  23.105   5.130  28.316 -0.0967  0.0194  0.1786
26873W        W69926  32.522  31.949  28.509  0.0194 -0.0009  0.4158
26874W        W69927   2.925  20.038  23.834  0.0758  0.1871  0.3551
26875W        W69928  18.585   1.196  20.923  0.0950 -0.0192  0.1325
26876W        W69929  28.022  25.255   2.581 -0.0608 -0.0444 -0.0518
26877W        W69930   2.112  23.840   6.579  0.2603 -0.0826  0.6158
26878W        W69931  21.531  30.060   1.615  0.2424  0.3112  0.0794
26879W        W69932  33.008  24.142  25.402  0.1267  0.0672  0.3838
26880W        W69933  20.136  22.720   5.901 -0.3920 -0.0538  0.0695
26881W        W69934  17.111  26.105  10.079 -0.1440  0.4204  0.2117
26882W        W69935  23.933  18.828   7.885 -0.2880 -0.0056 -0.0530
26883W        W69936  30.242   7.754  23.189  0.0697 -0.1728 -0.2376
26884W        W69937  23.345  12.428   6.339 -0.1382 -0.1852  0.0739
26885W        W69938  21.031  23.151   8.955  0.0582  0.0905  0.0432
26886W        W69939  21.936  27.863  22.977 -0.3238  0.1535  0.4465
26887W        W69940  25.160  24.228   0.818  0.0185 -0.1023 -0.2216
26888W        W69941  14.522  25.715  25.218  0.1074 -0.0076 -0.1006
26889W        W69942  32.781   3.179   6.779 -0.0853  0.0231  0.1031
26890W        W69943  10.276  27.024   8.342  0.3090 -0.2230 -0.0954
26891W        W69944  24.687  33.410   9.448 -0.4401  0.1383  0.2432
26892W        W69945  15.702  22.280  23.999 -0.0976 -0.1474 -0.1026
26893W        W69946   1.183  34.129   6.801 -0.0883  0.4115  0.1576
26894W        W69947   6.427  14.296   9.551 -0.0413 -0.2209 -0.0326
26895W        W69948  16.436  22.880   0.260 -0.1995  0.1632  0.1691
26896W        W69949  24.652  22.820   7.044 -0.4779 -0.3797 -0.1604
26897W        W69950  30.673  32.668   7.780 -0.0899  0.0743 -0.0404
26898W        W69951  32.522  22.350  25.523 -0.1238  0.1559  0.1652
26899W        W69952  28.185  13.918   0.892  0.2191  0.0404  0.2270
26900W        W69953  24.194  34.280   9.736 -0.0492  0.1842  0.2858
26901W        W69954  10.463  16.144  10.131  0.0179  0.0294 -0.0782
26902W        W69955  33.971  19.076   5.916  0.0061 -0.0639  0.0957
26903W        W69956   2.110  33.018  23.821 -0.1278 -0.1090  0.0788
26904W        W69957   2.309  30.911   7.013 -0.2064  0.1427 -0.0863
26905W        W69958  24.525  19.798   9.977  0.1400 -0.1006 -0.2901
26906W        W69959   1.575  21.530  23.994 -0.1282 -0.1035 -0.1827
26907W        W69960  32.929  33.974   4.776  0.2547 -0.0677 -0.0150
26908W        W69961  22.754  29.773  24.176 -0.0597  0.1629  0.1453
26909W        W69962  27.209  26.352  22.498  0.1181 -0.2299  0.2411
26910W        W69963  24.217  21.685  25.378  0.0172 -0.2738 -0.0953
26911W        W69964  33.999  28.635   2.024 -0.1498 -0.0739  0.3079
26912W        W69965  17.400   6.937   6.453 -0.0396 -0.1173 -0.3349
26913W        W69966  10.482  31.459   5.127 -0.1328 -0.1826 -0.0588
26914W        W69967  22.751  29.232  27.056  0.3019 -0.1613 -0.0344
26915W        W69968  33.409  17.914   3.212 -0.2145  0.1193  0.0819
26916W        W69969  24.892  26.226   4.625  0.0873 -0.1849 -0.3118
26917W        W69970  34.632  21.556  19.010 -0.0091 -0.1578 -0.1693
26918W        W69971   9.423   1.069   5.295 -0.2048  0.1279  0.0737
26919W        W69972  21.739  27.558  24.253 -0.0957 -0.2302 -0.0076
26920W        W69973   0.886  13.051  20.345 -0.1762 -0.0350  0.0143
26921W        W69974   0.795   1.771  23.114  0.3067 -0.0267  0.0990
26922W        W69975  16.888  24.109  10.311  0.0778 -0.1369  0.2372
26923W        W69976  24.411  31.173  24.214 -0.1187 -0.2380  0.2953
26924W        W69977  25.951  33.200   5.363 -0.3870 -0.0265 -0.0125
26925W        W69978  28.042  13.571  23.473 -0.0527 -0.0891  0.0205
26926W        W69979  19.745  23.507  25.073 -0.1355  0.0482  0.2890
26927W        W69980  32.648  20.779   7.847 -0.1485 -0.4590  0.0473
26928W        W69981  34.436  32.276  14.482 -0.1344  0.3841  0.1687
26929W        W69982  21.700  24.797   4.884  0.0561  0.1251 -0.0206
26930W        W69983  22.723  29.019  16.843  0.4396  0.0936 -0.0669
26931W        W69984  18.125   9.009  29.043  0.1389 -0.1872 -0.2109
26932W        W69985  12.310   1.527   9.216  0.0198 -0.2270 -0.1539
26933W        W69986  34.544   5.116   7.978  0.0403 -0.0581  0.3328
26934W        W69987  29.204   9.195  23.342 -0.0525  0.0825  0.0102
26935W        W69988  15.435  10.472   8.063 -0.2696  0.2319 -0.5838
26936W        W69989  17.928  26.338  27.082  0.2184  0.0605 -0.1483
26937W        W69990  22.208   2.399   1.078 -0.1064  0.3875 -0.0655
26938W        W69991  30.231  20.077  16.941  0.2237  0.1467  0.3367
26939W        W69992  26.896   2.350  27.033 -0.2637 -0.1607 -0.0685
26940W        W69993  25.279   4.880   1.862 -0.0830 -0.0537  0.2235
26941W        W69994  17.671  14.629  21.633  0.0581  0.1789  0.0615
26942W        W69995  10.923  12.308   9.263 -0.2667 -0.1575  0.2424
26943W        W69996  21.991  23.726  27.554 -0.1541  0.1830 -0.0428
26944W        W69997  25.108  33.824   5.502 -0.1113  0.0738 -0.1641
26945W        W69998  18.123  26.861  15.252 -0.1071 -0.1726 -0.0350
26946W        W69999  31.796   7.255   5.849 -0.1253 -0.3893  0.0174
26947W        W70000  25.760  21.449   6.863  0.1699 -0.0812 -0.2270
26948W        W70001  27.238  13.809  18.762 -0.0408  0.0639  0.2891
26949W        W70002  20.447  15.671   3.219  0.1861  0.1429  0.1812
26950W        W70003  17.568  19.178   4.777 -0.1865  0.0576 -0.2439
26951W        W70004  28.032  30.192  26.610 -0.0942 -0.3118 -0.1575
26952W        W70005  31.370  26.171  25.478  0.0253  0.0854 -0.1833
26953W        W70006  20.380  23.625  27.233 -0.0051 -0.1374  0.3110
26954W        W70007  13.976  16.712   6.073  0.0187  0.2095  0.1741
26955W        W70008   6.271  34.164  24.354  0.0229 -0.1034  0.0004
26956W        W70009   2.336  29.720   4.531 -0.2859 -0.0137 -0.2181
26957W        W70010  24.956  16.628  28.921 -0.1602 -0.0894 -0.0280
26958W        W70011  31.129  20.082  24.262 -0.1877 -0.2893  0.3118
26959W        W70012  14.569   7.417   2.541  0.2545  0.0151  0.2009
26960W        W70013  12.040  28.287   7.705 -0.2397 -0.0700 -0.0447
26961W        W70014  15.325  21.674   1.790 -0.0261 -0.0417 -0.3744
26962W        W70015  33.105   0.960   1.215 -0.0733 -0.0280  0.1818
26963W        W70016  29.503  28.754  23.777  0.1974  0.1792  0.2714
26964W        W70017  27.990  31.854   5.044 -0.1653 -0.1472  0.2935
26965W        W70018  31.403  20.822  28.761  0.1743  0.0849 -0.1978
26966W        W70019  13.208  19.271  28.631 -0.2807  0.0865  0.2858
26967W        W70020  32.908   0.074   1.349  0.0111  0.3583 -0.0276
26968W        W70021  12.823  19.463   1.583  0.3889  0.1825  0.0574
26969W        W70022  19.984  34.033   3.088 -0.2157 -0.2464  0.0901
26970W        W70023  30.548   3.487  24.731 -0.1494  0.1231 -0.1861
26971W        W70024  24.940   5.166  27.515 -0.1878  0.2053 -0.3809
26972W        W70025  21.891  25.391   7.734  0.2772 -0.0394  0.2576
26973W        W70026  19.251  31.085  22.581 -0.1921 -0.3412  0.1544
26974W        W70027  10.585  23.330  28.293  0.0450 -0.0269 -0.0866
26975W        W70028  17.744  32.835  20.205  0.0573  0.0000 -0.1183
26976W        W70029  22.037   1.310   0.436  0.0978 -0.1084 -0.1049
26977W        W70030  11.298   0.506  15.933 -0.0478 -0.1283  0.5002
26978W        W70031  22.121  26.781   3.176  0.1349 -0.0927 -0.1533
26979W        W70032  24.478   3.390   2.005 -0.0741 -0.0599 -0.2506
26980W        W70033  13.443   3.908  27.534 -0.0218 -0.2216  0.0043
26981W        W70034  30.836  34.354  27.396 -0.1633  0.2215 -0.1517
26982W        W70035  25.922  28.302  10.550  0.1778 -0.0644  0.2199
26983W        W70036   0.061  20.326   8.989 -0.2481 -0.0250 -0.0723
26984W        W70037  23.427  27.750  27.938 -0.0557  0.0927  0.0638
26985W        W70038  26.690  30.376  20.430  0.0546  0.1126 -0.1470
26986W        W70039  16.025  25.892   0.366 -0.1223 -0.2500 -0.0429
26987W        W70040  23.100  20.649  24.287  0.0282  0.0716  0.0105
26988W        W70041  33.957  21.226  15.141  0.1857  0.5316 -0.1861
26989W        W70042   9.653   7.825  21.368 -0.3356 -0.0476  0.2017
26990W        W70043  27.249  30.295  20.377 -0.0452  0.3097 -0.0585
26991W        W70044  17.292  20.184  23.952 -0.2787 -0.2789 -0.4369
26992W        W70045  27.077  29.806  10.082  0.1219 -0.3121 -0.0318
26993W        W70046   6.379  18.194   2.729  0.1120  0.1807 -0.2239
26994W        W70047  34.006  20.272   0.954  0.1356  0.3402  0.1564
26995W        W70048  34.565  13.958   8.827 -0.0317 -0.1226 -0.0869
26996W        W70049   5.924  21.047  24.683 -0.1207 -0.0509  0.1199
26997W        W70050  24.943  28.664  26.529  0.1833 -0.1825  0.1346
26998W        W70051  23.882  26.300  18.206  0.0722  0.1589 -0.0731
26999W        W70052  23.208   4.913   2.967  0.0153  0.1265  0.1623
27000W        W70053  26.297  30.774   1.713 -0.0476  0.0275 -0.0476
27001W        W70054   2.988  17.286   5.559 -0.0419 -0.3080  0.0453
27002W        W70055  11.419  30.544   4.581  0.0125  0.1832 -0.1583
27003W        W70056  18.709  10.000  28.311 -0.0307  0.1788  0.0458
27004W        W70057  32.852  31.166  18.737  0.0180  0.0502  0.0647
27005W        W70058   4.982   3.938  22.766 -0.2178  0.1992  0.0451
27006W        W70059   8.711  31.939   4.367  0.0796  0.0678 -0.2318
27007W        W70060   5.066  13.810  17.044 -0.1159 -0.2688  0.0049
27008W        W70061  23.038   7.474   2.268  0.0569  0.1823  0.0521
27009W        W70062  22.588  30.176  19.712 -0.0939  0.0102 -0.0299
27010W        W70063  19.339  10.018   2.404 -0.0802  0.2641  0.0760
27011W        W70064  16.453  27.138  28.314 -0.1558  0.0732  0.2589
27012W        W70065  27.017  15.501  26.970 -0.2620 -0.1739  0.1835
27013W        W70066  33.171  22.137  22.597  0.1140  0.0950  0.1175
27014W        W70067  28.871  21.578  27.264 -0.1640  0.1910  0.1178
27015W        W70068  18.636  23.433  18.779 -0.1850 -0.3652  0.3747
27016W        W70069   6.503  15.537   7.769  0.1470 -0.1845 -0.1195
27017W        W70070  12.819   5.202  18.062 -0.0345 -0.0455 -0.0175
27018W        W70071  22.585  24.064  27.133  0.1659 -0.1594  0.2970
27019W        W70072  25.876  32.796  17.316  0.1570  0.0583  0.2892
27020W        W70073  24.825   0.768   9.043 -0.4149 -0.0950  0.2035
27021W        W70074  31.147  32.075   2.769  0.1056  0.1639  0.2014
27022W        W70075  15.262   3.313  29.165  0.3551  0.0696 -0.0181
27023W        W70076  13.337  23.779  22.654 -0.1290 -0.3977  0.1231
27024W        W70077   7.471  11.995  24.319 -0.1558  0.3597 -0.0661
27025W        W70078  17.091  29.177   4.816  0.2773  0.3146 -0.0375
27026W        W70079  29.679  28.140   0.408  0.2289 -0.0201  0.1261
27027W        W70080  31.888  28.339   5.508 -0.0354  0.1444 -0.1521
27028W        W70081  11.862  20.714  13.937 -0.0247 -0.2470 -0.3658
27029W        W70082  17.075  29.447  10.955  0.0792 -0.1129  0.2239
27030W        W70083  26.231  10.233  22.586 -0.0746  0.2587 -0.0408
27031W        W70084  30.037  34.577  27.297  0.0859 -0.0948  0.2124
27032W        W70085  15.904  28.451   3.869 -0.0998  0.0197 -0.3047
27033W        W70086  29.101  22.481  27.702 -0.0320  0.3036  0.0178
27034W        W70087   3.506  16.205   4.197  0.2079 -0.0531  0.2305
27035W        W70088  19.701  25.613  20.416 -0.4214 -0.0254  0.1852
27036W        W70089  17.928  29.868   3.096  0.3131 -0.1172  0.3366
27037W        W70090  20.686  19.296   8.536  0.0272 -0.2717  0.1921
27038W        W70091  14.461  26.656   6.021 -0.0897 -0.1872  0.2682
27039W        W70092  28.148  15.356   6.472 -0.0948 -0.1538  0.0177
27040W        W70093   1.042   7.514  19.811  0.1182  0.1920  0.1444
27041W        W70094  13.342  25.599   5.444  0.1438  0.1219 -0.1981
27042W        W70095  21.816  25.930  23.456  0.1674  0.0314 -0.0931
27043W        W70096  22.906   3.868  24.327  0.0550  0.1046 -0.0348
27044W        W70097  13.684  25.341   6.841 -0.0230 -0.1825 -0.1010
27045W        W70098  29.299  25.500   6.720  0.0465 -0.2983 -0.3219
27046W        W70099   8.155  24.166   5.889  0.0665 -0.0804  0.2474
27047W        W70100  23.331  22.897   0.780 -0.0863 -0.2996  0.0241
27048W        W70101  16.328  34.289  23.445 -0.0389  0.0224 -0.0803
27049W        W70102  23.085   8.723   8.316 -0.0895  0.2552 -0.1350
27050W        W70103  10.319  33.789  23.151  0.2291  0.4248  0.0265
27051W        W70104  17.680  26.295  27.978  0.1922  0.3975  0.0295
27052W        W70105  30.533   3.470   4.519  0.1413  0.0094 -0.2620
27053W        W70106  16.404  25.204   1.393 -0.0239 -0.1773  0.1269
27054W        W70107  13.420  19.018   0.359  0.0162 -0.1232 -0.3676
27055W        W70108   5.554  11.983  15.155  0.0785 -0.0769 -0.1136
27056W        W70109   8.641  21.793  26.478 -0.1185  0.0186  0.3957
27057W        W70110  31.648  22.043  27.169  0.0447  0.5325 -0.1752
27058W        W70111  31.287  15.758  29.163 -0.1776  0.1680 -0.2386
27059W        W70112  23.408  21.910  14.936  0.1889 -0.0022  0.1074
27060W        W70113  24.140   9.306   8.939 -0.2258 -0.0744 -0.1056
27061W        W70114  33.836  24.595   9.677 -0.0165 -0.2386 -0.1035
27062W        W70115   2.793  23.340   0.978  0.1626 -0.0048 -0.0692
27063W        W70116  22.884   7.687  18.167 -0.3345 -0.1556  0.0347
27064W        W70117  33.330  11.772  24.056 -0.0874  0.1605 -0.2390
27065W        W70118  14.079  19.579   6.589 -0.0575  0.0501  0.1819
27066W        W70119  20.088  10.733   9.516  0.3879  0.2844 -0.0897
27067W        W70120  31.270  10.696   5.041  0.1364 -0.1056 -0.0852
27068W        W70121  23.566  17.976  20.146 -0.3916 -0.2746 -0.1463
27069W        W70122  17.840  28.766   2.868  0.1031  0.1868  0.1342
27070W        W70123   8.737  17.840   3.644 -0.2937 -0.2545  0.0552
27071W        W70124  27.422  19.239   8.821  0.1545 -0.0440  0.1341
27072W        W70125   7.379  28.792  27.711  0.1470  0.1532 -0.2775
27073W        W70126  26.433  15.874  24.237 -0.0705 -0.0872  0.0044
27074W        W70127  33.337  16.099  27.233  0.0987  0.0779 -0.0147
27075W        W70128  14.763  17.480   9.633  0.1450 -0.2389 -0.0532
27076W        W70129   4.767  32.646   5.109  0.0412  0.3422  0.1201
27077W        W70130  22.145   7.882   2.051  0.1119 -0.0697  0.0129
27078W        W70131  27.743  32.190  23.442 -0.0374  0.1013  0.1055
27079W        W70132  30.694  25.920  20.460  0.1572  0.0322 -0.2489
27080W        W70133  32.777  33.450   3.157 -0.3274 -0.0363 -0.0038
27081W        W70134   1.369   5.405  18.640  0.0472 -0.2547  0.0584
27082W        W70135  24.860  19.850   7.959  0.0872  0.2219  0.2381
27083W        W70136  19.988  25.203   8.710  0.3545 -0.0298  0.0031
27084W        W70137  21.460  22.791   2.681 -0.1777 -0.1842  0.2812
27085W        W70138  20.049  32.361  10.320  0.0670 -0.0666 -0.3224
27086W        W70139  12.531  26.798  23.738  0.1483  0.0466 -0.1550
27087W        W70140   9.727   3.297   1.202  0.0223  0.1408 -0.0361
27088W        W70141  17.354   7.022   3.416 -0.0549 -0.1880  0.1663
27089W        W70142  14.105  21.106   8.805 -0.2347 -0.1037  0.0332
27090W        W70143  11.265  22.117  18.910 -0.0071 -0.1758  0.1655
27091W        W70144   7.652   2.237  28.027  0.2898 -0.0253 -0.0371
27092W        W70145  17.689  31.452  27.196  0.1906  0.3654  0.2885
27093W        W70146  11.695  24.615  25.978  0.1427 -0.1851  0.2786
27094W        W70147  30.479   4.197  19.568  0.2193  0.0022  0.1680
27095W        W70148  29.519  16.861  18.336 -0.1053 -0.1479 -0.1168
27096W        W70149  33.597  29.651   2.108 -0.1635 -0.1017  0.0044
27097W        W70150   9.802  26.918   6.274 -0.1597 -0.2315 -0.0583
27098W        W70151   0.991  17.743   1.678 -0.1357 -0.0879 -0.0448
27099W        W70152  31.824   7.791   7.612 -0.1348  0.0894  0.0043
27100W        W70153  23.760   2.754  28.559 -0.1895 -0.1806  0.0938
27101W        W70154  26.538  32.785   7.748 -0.2217  0.0581  0.0638
27102W        W70155   3.345  26.840   1.685 -0.0349  0.2131  0.0650
27103W        W70156   5.644  33.099  29.122  0.0162  0.1352 -0.3742
27104W        W70157  17.328  32.434  28.346 -0.0043  0.1408  0.1251
27105W        W70158  18.088  27.176  27.273 -0.1747 -0.0516 -0.0923
27106W        W70159  30.513  33.139  27.147  0.1075 -0.1455  0.2017
27107W        W70160  34.654  33.527   3.089 -0.1208  0.0029  0.2151
27108W        W70161   7.058  29.391   1.985 -0.0777 -0.0170  0.1791
27109W        W70162  33.552  28.689   4.660  0.1486 -0.0603  0.1223
27110W        W70163  30.041   1.396  17.625  0.0196 -0.6690 -0.0334
27111W        W70164  23.994   6.953  27.211  0.1413  0.2116  0.1991
27112W        W70165  33.976  17.826   5.415 -0.4661  0.0601  0.2041
27113W        W70166  25.667  24.791  24.478  0.2737  0.2044  0.4879
27114W        W70167  30.883   2.240   3.343  0.1115  0.4507 -0.0998
27115W        W70168  21.016  17.942   3.826  0.1811  0.0735  0.3152
27116W        W70169  29.368  15.138   4.242  0.1809 -0.1801  0.0377
27117W        W70170  16.250  21.652   0.380 -0.0056 -0.1801  0.2915
27118W        W70171  18.165  32.903  16.666 -0.2124 -0.0966  0.0123
27119W        W70172   6.400  12.897   8.131 -0.1465  0.1825 -0.1897
27120W        W70173  33.232   6.057   8.612  0.1457 -0.2168  0.1245
27121W        W70174  12.808  17.191   1.892  0.0102 -0.3274 -0.0753
27122W        W70175  20.371  29.623  19.865  0.1009 -0.0554  0.1488
27123W        W70176   3.575  27.188   7.794  0.0152 -0.0392  0.0100
27124W        W70177  26.525  25.284   7.128 -0.3272 -0.0987  0.2284
27125W        W70178   3.000   4.099   6.987  0.0014 -0.0139 -0.1268
27126W        W70179  25.205   0.571  24.041  0.0764 -0.5299  0.0148
27127W        W70180   1.251  21.111   3.177  0.1005  0.2130 -0.0010
27128W        W70181  19.040  28.722   3.218 -0.0583 -0.0869  0.3181
27129W        W70182   5.622  24.499  25.452 -0.2072  0.2196 -0.0603
27130W        W70183  15.977  26.817  28.318  0.2071 -0.0183 -0.2502
27131W        W70184  18.797  30.665   9.603 -0.0077  0.1601  0.1040
27132W        W70185  23.164  34.177   2.123  0.2110  0.2749  0.0001
27133W        W70186  33.122  24.768  27.367 -0.2044 -0.0659  0.2120
27134W        W70187  16.871  30.712   7.645  0.1917  0.0991 -0.0786
27135W        W70188   4.000  19.492   2.358  0.0958 -0.1110  0.2735
27136W        W70189   0.226  28.100  21.397 -0.1713  0.0730  0.1687
27137W        W70190  22.390   6.173  17.944  0.2144 -0.0937  0.2025
27138W        W70191  22.204  34.461   3.137  0.0032 -0.0053 -0.0359
27139W        W70192  18.503   5.758  26.672  0.1342 -0.2569 -0.1231
27140W        W70193  29.239  21.878   6.601  0.0771  0.2459 -0.2211
27141W        W70194  25.770  23.151   8.475 -0.0919 -0.0498  0.2897
27142W        W70195  27.307  15.129   4.221 -0.4023  0.0314  0.0200
27143W        W70196  16.371  21.138   5.248 -0.1357  0.0861  0.4329
27144W        W70197  16.547  10.935   8.782  0.1864  0.0795  0.0713
27145W        W70198  26.118  14.134   9.788 -0.2983  0.0547 -0.0337
27146W        W70199  19.010  24.394   3.419 -0.2780 -0.2954 -0.1461
27147W        W70200  26.839  20.999   0.245  0.1667 -0.0050 -0.2327
27148W        W70201  17.935   1.070  25.506 -0.1195 -0.3585  0.3002
27149W        W70202  16.487  25.181   4.599  0.2596 -0.0347 -0.1893
27150W        W70203  25.055  17.721  20.399  0.3796  0.2279 -0.0497
27151W        W70204  23.632  10.319  21.015  0.2727  0.2604 -0.1538
27152W        W70205   7.621   8.465   6.234  0.3431 -0.2087  0.1002
27153W        W70206  28.063  32.734  20.739 -0.2797  0.3158 -0.0539
27154W        W70207  16.178  31.808  21.743  0.0269  0.0963  0.2193
27155W        W70208  26.081   2.710  25.990 -0.0361  0.0624  0.3025
27156W        W70209  12.254  26.593  21.890  0.0791  0.1405 -0.0290
27157W        W70210  21.470  20.750  14.912  0.0816 -0.3165  0.3499
27158W        W70211  22.135   0.952  20.412 -0.1392  0.3392 -0.0043
27159W        W70212  15.320  26.887  26.598  0.1066  0.2059 -0.1784
27160W        W70213  24.388  17.639  24.739 -0.0602 -0.1113  0.2902
27161W        W70214  27.830  30.870  20.804 -0.2940  0.1536 -0.2008
27162W        W70215   8.181  20.521  25.011 -0.0830  0.0843 -0.0220
27163W        W70216  23.576  30.845   8.281 -0.0261 -0.0341  0.2159
27164W        W70217  19.773  29.230   1.012  0.2934 -0.1898 -0.1346
27165W        W70218   0.223  19.350  20.259  0.2296  0.2790 -0.0984
27166W        W70219  26.387  13.495   2.012  0.2140 -0.1440  0.2075
27167W        W70220  23.263  22.169   9.696 -0.3123 -0.2248  0.1784
27168W        W70221  16.316   5.462   1.250  0.1954 -0.0718 -0.0940
27169W        W70222  26.608   2.466   4.596  0.2989  0.5539  0.0081
27170W        W70223   0.294  32.108  22.116  0.0026 -0.3404 -0.3476
27171W        W70224  23.416  27.837  10.293 -0.2743 -0.2223  0.0852
27172W        W70225   2.126   0.439  28.448 -0.2983  0.1541 -0.0132
27173W        W70226  27.105  29.188  28.971 -0.2396 -0.1243  0.1526
27174W        W70227  15.385  27.843  23.473 -0.1397  0.1819 -0.1592
27175W        W70228  28.111   0.710   6.934 -0.2254  0.3356  0.2414
27176W        W70229  20.632  22.505   8.561 -0.0903  0.4183 -0.0692
27177W        W70230  27.396  28.242   4.137 -0.0650  0.1122 -0.1539
27178W        W70231  19.028   0.901  10.335  0.3791  0.2589 -0.3232
27179W        W70232  25.173  30.945   8.085  0.0280  0.0156 -0.3712
27180W        W70233  21.211   5.538  28.770  0.0264 -0.0620  0.3122
27181W        W70234  16.670  29.863   1.211 -0.1805  0.0718 -0.0007
27182W        W70235  18.928  26.269  26.612 -0.2694 -0.3135  0.0152
27183W        W70236  15.721  25.609  26.386  0.0198  0.0973  0.0377
27184W        W70237   0.472  33.783   5.931  0.2812  0.2157  0.3067
27185W        W70238  22.236  26.317   3.671  0.2026 -0.0216 -0.0135
27186W        W70239  15.138  23.151  19.489  0.0541  0.3161  0.0667
27187W        W70240  19.661  20.907   5.321 -0.3859 -0.0180  0.3202
27188W        W70241  25.907  33.165  26.078 -0.0173 -0.0797 -0.1734
27189W        W70242  13.270  30.817  25.043 -0.1732  0.1472 -0.1804
27190W        W70243  23.398  23.814   6.937 -0.0411  0.1807 -0.0259
27191W        W70244  27.986  15.132  28.983 -0.0023  0.0123 -0.1241
27192W        W70245  29.566  15.258  17.407 -0.1133  0.1092 -0.0403
27193W        W70246   7.277  25.950  24.311 -0.0583 -0.0380 -0.4227
27194W        W70247  23.520  30.675  19.965 -0.0766 -0.0127  0.1204
27195W        W70248  13.076  26.523   7.281  0.0095 -0.1437  0.1679
27196W        W70249  25.752   8.802  22.745  0.1003  0.4251  0.3062
27197W        W70250  26.403  26.766   6.688 -0.0593  0.0675  0.1966
27198W        W70251  31.190  33.034   7.055  0.0315 -0.0542 -0.2057
27199W        W70252  30.113  25.573   8.861  0.1215  0.0038  0.1967
27200W        W70253  22.876   1.787   5.546 -0.0553  0.2352  0.0894
27201W        W70254   4.139  34.110   3.640  0.0316  0.1521 -0.1596
27202W        W70255   0.453  15.714  15.182 -0.0205  0.2065 -0.1596
27203W        W70256  20.777   0.229   2.918  0.2390 -0.2050 -0.0040
27204W        W70257  25.212  31.149  26.162  0.0921  0.1998  0.5086
27205W        W70258   8.332  22.364  28.556 -0.0230  0.3124 -0.0565
27206W        W70259  22.600  16.123   1.609  0.3453  0.0179 -0.3131
27207W        W70260   9.193   9.736   5.725 -0.1921  0.4629  0.0148
27208W        W70261  24.969  17.511   5.682 -0.0309  0.0903 -0.0263
27209W        W70262  34.655   2.955   4.741  0.0517 -0.2163 -0.3943
27210W        W70263  17.223  28.674   3.424  0.3670 -0.0148 -0.0880
27211W        W70264  31.676   2.968  23.859  0.1600  0.2050  0.0761
27212W        W70265  20.945  22.495   0.851 -0.1225  0.3819  0.1247
27213W        W70266   7.765   9.095  25.791 -0.0472 -0.0779 -0.1434
27214W        W70267  29.419  32.555   1.095 -0.0635 -0.0517  0.1560
27215W        W70268  26.818  22.313  23.418  0.3002  0.0751  0.1845
27216W        W70269  22.617  21.202   5.641  0.1016 -0.1837 -0.2103
27217W        W70270   4.740   2.763   4.347  0.0783 -0.0992  0.1017
27218W        W70271  30.782  28.882   6.327 -0.1339  0.0735  0.0580
27219W        W70272   1.681  25.585  23.337 -0.1041  0.0640 -0.0295
27220W        W70273   4.963  25.039  28.984  0.2676  0.2085 -0.1906
27221W        W70274  23.227  21.323   6.110 -0.2302 -0.0984 -0.1393
27222W        W70275  23.651  25.327  25.078  0.1064  0.2206 -0.4913
27223W        W70276   2.210  29.608   1.205  0.1352  0.0416  0.3328
27224W        W70277  29.605  23.102   6.469 -0.0673  0.1504 -0.1401
27225W        W70278   6.271   0.179  10.177  0.0748  0.0763 -0.1218
27226W        W70279  21.942   8.171  21.546  0.2853  0.0914  0.1620
27227W        W70280  31.522  12.087   9.963 -0.2322 -0.0588  0.1717
27228W        W70281  30.779   8.882  26.671 -0.0465 -0.0635 -0.3158
27229W        W70282  29.874   6.346  10.267  0.0921 -0.0003 -0.2731
27230W        W70283  26.935  25.453   5.496 -0.0617 -0.0463  0.1313
27231W        W70284  22.300  30.585  22.028 -0.0126 -0.2326  0.2512
27232W        W70285  31.764  26.045   4.705 -0.3034  0.0781 -0.0300
27233W        W70286   0.633  32.491  23.606 -0.0474 -0.2537 -0.3228
27234W        W70287  29.928  25.150  23.847 -0.2200 -0.0205  0.1660
27235W        W70288  24.444  13.350  22.111 -0.0011 -0.0468 -0.2716
27236W        W70289  32.065  12.005  29.082 -0.2692  0.0691 -0.1346
27237W        W70290  17.624  28.960   6.296  0.2693 -0.3195 -0.1414
27238W        W70291  31.697  23.149   3.839 -0.1343  0.1004  0.4670
27239W        W70292  22.669  28.525   2.861 -0.2232 -0.1047  0.1825
27240W        W70293   9.415  14.415   1.729 -0.0444 -0.1641  0.0205
27241W        W70294  27.902  24.700   9.433  0.1950 -0.0772  0.1818
27242W        W70295   6.276  27.794   1.597  0.3885 -0.2717  0.0485
27243W        W70296  21.705  34.140   9.620  0.0093  0.1462 -0.1562
27244W        W70297  27.356  18.241   6.843  0.2164 -0.0684 -0.3642
27245W        W70298  27.087  24.406   2.005 -0.5006 -0.2813 -0.0263
27246W        W70299   3.774  26.363   5.453  0.3892 -0.3037  0.2147
27247W        W70300  34.320  16.743  17.383 -0.2836 -0.0050 -0.0490
27248W        W70301  31.335  23.238   3.447  0.0433 -0.1657 -0.2969
27249W        W70302  24.736  18.111  21.138  0.0571  0.0669 -0.0458
27250W        W70303  33.536   9.782   6.329  0.0671 -0.3261  0.2318
27251W        W70304  26.095   4.330   4.857  0.0845 -0.1803 -0.1472
27252W        W70305  18.215  26.703   3.120  0.1420  0.4287  0.1363
27253W        W70306  24.838  11.787  25.934  0.1625 -0.0245 -0.2332
27254W        W70307  22.490  20.242  28.900  0.2414  0.3266 -0.2712
27255W        W70308  14.796  11.556   2.888 -0.0863 -0.0555  0.1896
27256W        W70309  31.124  29.002   5.351  0.0025  0.0137  0.1758
27257W        W70310  30.666  32.490   5.692 -0.1620 -0.0131 -0.3029
27258W        W70311  25.791  26.245  17.963  0.0731 -0.3350  0.3457
27259W        W70312  17.187  22.208  28.428  0.0379  0.1515  0.2610
27260W        W70313  14.296  20.597   9.081  0.0393  0.0729 -0.1877
27261W        W70314   9.674  22.422   3.547  0.0385 -0.0138 -0.0791
27262W        W70315   4.654  29.589   3.307  0.2542  0.1515  0.3472
27263W        W70316   7.391  29.012  27.112  0.1644  0.3989  0.3965
27264W        W70317   9.078  22.706  28.485 -0.1553  0.3123 -0.2266
27265W        W70318  22.583  20.153   2.980 -0.1381 -0.0784 -0.0727
27266W        W70319  22.112  12.524   4.037  0.0617  0.0378 -0.2653
27267W        W70320  31.732  29.840   5.218  0.3759  0.3635 -0.1329
27268W        W70321  16.135  30.082   5.435  0.2410 -0.1399 -0.3085
27269W        W70322  11.514  17.661   2.384 -0.1665 -0.1648 -0.0188
27270W        W70323   6.578  18.658   9.184 -0.1924 -0.3093  0.1093
27271W        W70324  22.931  32.203  18.955  0.0859 -0.4104  0.3001
27272W        W70325  14.707  21.475   5.796  0.3703  0.1751 -0.2337
27273W        W70326  29.318  16.447  28.821 -0.0999 -0.2465  0.0378
27274W        W70327  20.052  34.523   8.883  0.1685 -0.0381 -0.2673
27275W        W70328  17.881  12.155   6.318 -0.0983  0.4423 -0.0991
27276W        W70329   2.740  11.952   3.750  0.1399  0.1345 -0.0029
27277W        W70330  27.916  25.031  26.319 -0.1029 -0.2696  0.2169
27278W        W70331  21.585  28.665   1.009  0.0264  0.2200 -0.1323
27279W        W70332  11.618  26.689  28.581  0.0749  0.2048  0.4614
27280W        W70333  20.047  33.275   3.545  0.2914 -0.0513 -0.1104
27281W        W70334  24.449   6.050   2.003 -0.1724 -0.1930  0.0560
27282W        W70335  21.810   3.160  28.786 -0.1064 -0.1167 -0.0907
27283W        W70336  28.279  24.264   4.549  0.0375  0.1829 -0.0727
27284W        W70337  14.477  27.557   3.754  0.2474 -0.0124  0.4262
27285W        W70338   2.867   7.217  27.209  0.1249 -0.3579  0.4130
27286W        W70339  21.641  22.620   6.402 -0.3919  0.0474  0.0544
27287W        W70340   3.604  22.783  27.661 -0.0235 -0.1196  0.2849
27288W        W70341  30.192  28.731  25.565  0.0620  0.0347  0.1588
27289W        W70342  33.990  23.798   1.072  0.0845  0.0646  0.2350
27290W        W70343   1.701  16.286  25.176 -0.1765  0.0836  0.2186
27291W        W70344  31.285  22.207  16.582 -0.2275 -0.0733  0.0714
27292W        W70345  13.414  27.903  26.201  0.1887 -0.2104 -0.1033
27293W        W70346  26.550  34.102  10.413 -0.1420 -0.0890 -0.2153
27294W        W70347  27.660  22.423   6.703  0.1175 -0.2206 -0.2658
27295W        W70348  23.390  24.306   4.199 -0.2023 -0.1774 -0.2337
27296W        W70349  22.221  21.164   6.452 -0.1169  0.0315 -0.0544
27297W        W70350   1.802   7.514  20.447 -0.2398 -0.0932  0.0286
27298W        W70351  18.152   1.703   3.194  0.1093  0.1031 -0.0547
27299W        W70352  15.243  11.563  10.146  0.0159 -0.3074 -0.3615
27300W        W70353   9.132  29.128  15.279 -0.3811 -0.0787 -0.0299
27301W        W70354  12.862  20.724   4.679  0.2874  0.1993  0.1858
27302W        W70355  26.577  22.383   1.472  0.1080  0.2965  0.4267
27303W        W70356  25.454  23.246   7.125  0.0324  0.1869 -0.1723
27304W        W70357  18.870  18.331  25.940  0.0264  0.2097  0.0294
27305W        W70358  24.916  23.862  21.592 -0.2753 -0.0306 -0.0762
27306W        W70359  15.486  20.048  23.441 -0.3811  0.2092  0.0893
27307W        W70360  21.306  27.351  18.812  0.2277 -0.0369  0.1320
27308W        W70361  15.589  31.685   6.659 -0.0299  0.0079 -0.1205
27309W        W70362  17.767   0.554  24.187  0.1976 -0.3840 -0.0358
27310W        W70363  26.184  30.508   7.307  0.1796  0.0908 -0.0539
27311W        W70364  14.329  28.252  25.939  0.1332  0.1266  0.0018
27312W        W70365  16.256  26.666   5.041 -0.1234 -0.0287  0.0645
27313W        W70366  29.724  22.363   2.653 -0.3103 -0.1681  0.3041
27314W        W70367  19.646  21.203   0.277 -0.2820  0.2506  0.1232
27315W        W70368  19.061  31.352  25.638 -0.2100  0.0161 -0.2567
27316W        W70369  23.387   1.352   2.118  0.2105  0.1644  0.1275
27317W        W70370   0.564  22.985   9.738  0.0087 -0.2311 -0.1324
27318W        W70371  18.146  18.987   7.046 -0.1137 -0.1902 -0.4032
27319W        W70372   3.057  11.040   1.432 -0.0398  0.0937  0.2051
27320W        W70373  16.674  33.120  24.366  0.1104  0.0011  0.0419
27321W        W70374  23.593   5.735   0.148  0.0931 -0.0641 -0.0807
27322W        W70375   3.465  31.780   5.530 -0.0635  0.0277 -0.1987
27323W        W70376  29.373  15.534  23.085  0.0424  0.0435  0.2136
27324W        W70377  13.784  16.919  22.486  0.0467  0.1955 -0.0625
27325W        W70378  18.343  18.399   1.759 -0.3975  0.1359 -0.2099
27326W        W70379  22.922   9.047  27.401  0.2613 -0.2756  0.1529
27327W        W70380  25.682  12.938   5.322  0.0849 -0.0554 -0.0853
27328W        W70381  12.755  33.955   9.672 -0.1092  0.0607 -0.0745
27329W        W70382  23.192  20.237   7.681 -0.2695 -0.0869  0.3395
27330W        W70383   4.771   2.057  23.314 -0.3199  0.1174 -0.1391
27331W        W70384  27.581  30.324   7.046 -0.2689 -0.4197  0.0036
27332W        W70385  34.465  22.277   8.535  0.1435 -0.0758 -0.2471
27333W        W70386  27.704  22.752   0.790 -0.0998  0.2368 -0.1634
27334W        W70387   7.881  25.551  29.009  0.0178 -0.1327 -0.0754
27335W        W70388  22.677  33.353   0.493  0.1291 -0.1144  0.0606
27336W        W70389  18.975  28.751  14.834  0.2661 -0.1038  0.1423
27337W        W70390  17.506  15.547   5.853 -0.2083 -0.1276 -0.0379
27338W        W70391  30.382   2.053  16.425  0.3275 -0.1817 -0.0727
27339W        W70392  31.391   8.919  10.348  0.2634 -0.3137  0.2591
27340W        W70393  17.344  24.430   8.377 -0.0364 -0.0988 -0.1666
27341W        W70394  26.134   7.115   8.140 -0.1606 -0.0214 -0.5316
27342W        W70395  33.329   9.360  18.717  0.1129 -0.0553 -0.0220
27343W        W70396  12.036  24.432   0.511 -0.0656  0.0341 -0.1622
27344W        W70397   0.283  30.192  24.708 -0.4110 -0.0352  0.4092
27345W        W70398  16.014  26.457  19.072 -0.0071 -0.2496  0.3176
27346W        W70399   8.183  21.984   4.040 -0.0431  0.0722  0.1342
27347W        W70400  25.349  25.728  27.755  0.0645 -0.3694  0.1602
27348W        W70401  27.669  16.877   8.855  0.0671 -0.1885  0.1618
27349W        W70402  25.848  25.039  18.274  0.5448 -0.2974  0.0339
27350W        W70403  19.256  25.606  21.151  0.1087 -0.0815  0.0150
27351W        W70404  31.321   0.884  24.947  0.4051  0.0708  0.0926
27352W        W70405   5.885  28.828  25.884 -0.0907 -0.1988 -0.0288
27353W        W70406   1.506  31.771   5.771 -0.1547  0.1594  0.2682
27354W        W70407  17.637  20.593   8.925 -0.4138 -0.1204  0.0282
27355W        W70408  15.260   3.579   2.591  0.0810 -0.0573  0.2586
27356W        W70409   5.723  19.091   9.598  0.2058  0.1908  0.1104
27357W        W70410  33.374   7.792   7.748 -0.0591  0.1965 -0.2436
27358W        W70411  24.085  26.868  19.562  0.3042  0.2188 -0.0131
27359W        W70412  25.231  32.215  20.506 -0.2490 -0.0303  0.0699
27360W        W70413   0.921   1.506  24.081  0.0974  0.3897  0.1325
27361W        W70414  10.890   2.118   8.617  0.2520 -0.0502 -0.1555
27362W        W70415  21.022   7.235   1.652  0.0522  0.3332 -0.2517
27363W        W70416  33.936  19.604   5.222  0.0413 -0.1350  0.1816
27364W        W70417  20.907  27.976   0.843  0.0539  0.1722 -0.1633
27365W        W70418  23.276  18.002   9.443 -0.5258 -0.0054  0.1105
27366W        W70419  31.364  31.698   7.851 -0.0721 -0.1452 -0.2570
27367W        W70420  24.980   9.671  24.418 -0.2450 -0.0263  0.0228
27368W        W70421  27.379  22.023  26.739 -0.1968  0.3409  0.1927
27369W        W70422  19.114   2.590  24.695  0.0319 -0.2455  0.3364
27370W        W70423  34.203   2.645   5.569  0.1429  0.3871 -0.0227
27371W        W70424  25.250   2.240  10.462  0.4007  0.2561 -0.1359
27372W        W70425  33.543  31.840   8.622  0.1218  0.2821 -0.0850
27373W        W70426  24.750   5.321   5.648 -0.2572 -0.0302  0.1466
27374W        W70427  33.129  26.734   7.659  0.0409 -0.0334  0.0547
27375W        W70428  17.820  20.644   0.074  0.1934 -0.1352  0.0388
27376W        W70429  30.096   3.266   4.005 -0.0693 -0.2157  0.1858
27377W        W70430  30.780   4.376   8.285  0.4016  0.1942 -0.1934
27378W        W70431  16.619   1.282   1.613  0.0676  0.2799 -0.0426
27379W        W70432  29.999  31.812   8.681 -0.0808  0.0414  0.0128
27380W        W70433   8.165   3.586   6.255  0.0705  0.0889  0.0088
27381W        W70434  26.163  26.936  22.335 -0.0226 -0.2118  0.2946
27382W        W70435  10.392  25.789   1.366 -0.0648 -0.1817  0.1398
27383W        W70436  24.514  18.785   9.068  0.1655  0.1099 -0.2528
27384W        W70437  20.813  31.635  27.202 -0.3355  0.0037  0.1467
27385W        W70438   0.463  26.092   0.510 -0.1100  0.3432  0.0185
27386W        W70439  17.649  17.249   8.730 -0.4021  0.1628  0.0262
27387W        W70440  31.395   8.114   4.862  0.1989  0.0025 -0.2559
27388W        W70441  34.448  20.239   7.236  0.2208  0.1254 -0.0619
27389W        W70442  23.418  29.104   9.465  0.0737  0.2183 -0.2150
27390W        W70443  33.792  23.835   6.848 -0.1356  0.2882  0.0588
27391W        W70444  28.839  28.706  24.892  0.0667  0.2841 -0.2839
27392W        W70445  27.905  26.944   6.996 -0.1384 -0.1410  0.2557
27393W        W70446  26.622   7.669   0.515  0.1223  0.3850 -0.0155
27394W        W70447  24.251  21.661   4.297  0.1250 -0.1831 -0.0597
27395W        W70448  29.297  27.268   5.507  0.3366  0.1410 -0.0678
27396W        W70449   6.628   2.349  18.377 -0.1386 -0.4473 -0.0937
27397W        W70450  29.861  28.476   9.916  0.0113  0.0877  0.2443
27398W        W70451  23.509  27.796   6.190 -0.2402  0.0863 -0.0835
27399W        W70452  13.642  17.165  16.425 -0.2264  0.0085  0.2102
27400W        W70453   0.696  27.572  21.914  0.0577 -0.0431  0.2900
27401W        W70454  19.242  33.314  26.462 -0.4573  0.2685 -0.0796
27402W        W70455  24.779  15.123   0.063 -0.0355 -0.0451 -0.1437
27403W        W70456  16.967  30.817  20.846 -0.0416  0.0572 -0.2203
27404W        W70457   2.535  34.419   3.122  0.2929 -0.0648 -0.2820
27405W        W70458  24.778  18.100  28.100 -0.1394  0.0375 -0.0816
27406W        W70459  16.932   0.384   7.438 -0.3337  0.1722 -0.0894
27407W        W70460  23.475   4.326   7.916 -0.0106 -0.1310 -0.1364
27408W        W70461  26.922  16.657   1.910  0.3709  0.2071 -0.2383
27409W        W70462  16.077  24.211   3.393 -0.1293  0.1371  0.4320
27410W        W70463  10.798  30.714   0.393  0.3535 -0.0356 -0.0627
27411W        W70464  20.765  33.155   9.559  0.2920 -0.2313  0.2120
27412W        W70465  24.734  29.999  26.568 -0.1570  0.0279  0.2201
27413W        W70466  26.864  32.935   8.680 -0.3316  0.0481  0.3092
27414W        W70467  18.218  22.630   9.756  0.1089 -0.0631 -0.1238
27415W        W70468  34.652   0.511   7.025 -0.0697 -0.1451  0.2647
27416W        W70469  15.664  29.114  24.943 -0.1853 -0.0022  0.1386
27417W        W70470  19.727  33.981  28.506  0.0579  0.2086  0.0400
27418W        W70471  20.871  26.648   5.574 -0.2500 -0.1050 -0.1553
27419W        W70472  20.348  20.874  15.545 -0.2446  0.0028 -0.0161
27420W        W70473  17.938  22.928   8.643  0.1528  0.0258  0.0252
27421W        W70474  33.602  23.492   1.295 -0.0876 -0.1007  0.1996
27422W        W70475  33.834  24.586   0.639  0.1608  0.2087  0.1298
27423W        W70476  24.152  26.849   3.767 -0.2270  0.0177  0.2635
27424W        W70477  22.223  25.406   9.250  0.2752  0.0449 -0.3259
27425W        W70478  21.573  32.138   2.286 -0.2322  0.1030  0.0428
27426W        W70479  17.088  17.894  25.273 -0.0238  0.0214  0.3758
27427W        W70480  23.577  24.095   3.410  0.0241 -0.2017 -0.2209
27428W        W70481  28.698  31.101  18.643 -0.4868  0.1615  0.1716
27429W        W70482   2.861  10.703   0.849 -0.0651  0.1635  0.2427
27430W        W70483  21.949   4.679   0.602  0.0273  0.2296 -0.1368
27431W        W70484   2.991  33.610  26.456  0.0456  0.3348 -0.2548
27432W        W70485   2.797  29.562  23.305 -0.3024 -0.0675  0.4274
27433W        W70486  13.287  25.475  28.176 -0.3016  0.0459  0.3917
27434W        W70487  22.941  26.927  10.081  0.0638 -0.0996  0.0804
27435W        W70488  26.314  28.110   9.848 -0.2660  0.0319 -0.2513
27436W        W70489  30.139   3.203  26.596  0.0757 -0.0858 -0.0617
27437W        W70490  30.474  28.786   8.236  0.2862 -0.1430  0.2328
27438W        W70491  31.664  11.692   3.466 -0.0167 -0.0737  0.0903
27439W        W70492  27.827   5.552   1.198 -0.1610 -0.3235  0.1599
27440W        W70493  31.581  29.360   3.498  0.0313  0.2057 -0.1188
27441W        W70494  27.408   1.414   5.144  0.0707 -0.0569  0.1575
27442W        W70495  13.850  30.694   1.388 -0.0513  0.0426 -0.4150
27443W        W70496   3.463   7.955  28.421 -0.0200 -0.0742 -0.0217
27444W        W70497  18.535  21.193   4.339 -0.2575 -0.0976  0.1093
27445W        W70498  23.497  15.115   3.291 -0.0121 -0.0172 -0.0482
27446W        W70499  20.486   4.843   6.308  0.2796 -0.3222  0.2096
27447W        W70500  30.231   3.141   1.701  0.0815 -0.2428  0.1410
27448W        W70501  13.984  30.084   2.664  0.0367 -0.0547  0.2739
27449W        W70502  14.847  31.382  29.035 -0.1022 -0.1887  0.2453
27450W        W70503  23.245  13.790  23.966  0.2135 -0.1588 -0.1337
27451W        W70504  24.470   3.638   0.671 -0.0942 -0.2110  0.1227
27452W        W70505  22.423  20.757   5.774 -0.0512 -0.0377  0.2403
27453W        W70506  18.925  19.595  10.075  0.2831  0.0413 -0.1906
27454W        W70507  20.298  33.798  25.319 -0.1861  0.1008  0.4672
27455W        W70508  16.350   7.481  28.778  0.0848 -0.0091  0.0577
27456W        W70509  20.610  22.805  25.617  0.0108 -0.1723 -0.2451
27457W        W70510  19.886  26.542  18.327 -0.0899  0.4029 -0.1100
27458W        W70511   2.771  17.883   8.267 -0.1763  0.1741  0.1013
27459W        W70512  15.615   3.212   1.800 -0.1589  0.0503 -0.2133
27460W        W70513  32.441  22.226   6.523  0.0542  0.0740  0.0965
27461W        W70514  25.135  11.614   8.473  0.1285 -0.0253  0.0467
27462W        W70515  28.916  23.194   2.799 -0.1261  0.3919  0.2715
27463W        W70516  30.507  18.023   8.979 -0.1775 -0.2474 -0.1382
27464W        W70517  30.078  23.867  24.864  0.1820  0.0851 -0.0964
27465W        W70518  21.941  13.039   3.592  0.0023  0.1935  0.2673
27466W        W70519  27.557  17.795   3.201  0.0645  0.0979 -0.3975
27467W        W70520  17.980  28.886  27.640 -0.0742  0.2636  0.2785
27468W        W70521  24.958  33.471  27.853  0.0847 -0.2386  0.0706
27469W        W70522  21.105  32.899  23.762  0.1832 -0.2874 -0.0966
27470W        W70523  31.687   5.225   9.095 -0.3501  0.0978  0.2290
27471W        W70524  22.575  25.273   1.476  0.0545 -0.0053  0.2632
27472W        W70525  25.982  13.585   1.717 -0.0765 -0.2476 -0.0240
27473W        W70526  23.202  29.811   5.899 -0.0539  0.2127  0.0511
27474W        W70527  15.280  19.734   3.964 -0.1823  0.0284 -0.1500
27475W        W70528  31.498  27.921   8.205 -0.0906  0.0562 -0.0389
27476W        W70529  27.397  12.802  16.618 -0.0016  0.1479 -0.2256
27477W        W70530  32.308  30.384  27.125 -0.0873 -0.0019  0.0856
27478W        W70531  31.313  27.151   9.667  0.1796 -0.0896  0.1242
27479W        W70532  13.377   0.679   5.238  0.3480  0.2606  0.2260
27480W        W70533  12.373  30.163   4.691  0.0677 -0.0932 -0.1967
27481W        W70534  24.457  23.443  26.150  0.1321  0.0128 -0.0877
27482W        W70535   1.391  21.454   1.948  0.1079  0.1722  0.0594
27483W        W70536  18.923  25.927   3.891  0.2444  0.3243 -0.2588
27484W        W70537  13.283   3.991   6.680 -0.1410  0.1972 -0.0163
27485W        W70538   1.629  32.598   5.612 -0.1128  0.1097 -0.0502
27486W        W70539  14.519  33.117   9.374  0.0171  0.0050  0.2286
27487W        W70540  13.572  16.467  28.537  0.1815 -0.0571  0.2287
27488W        W70541  29.844  18.674   2.628  0.1946  0.0280 -0.2876
27489W        W70542  25.187   8.548   5.633  0.0388 -0.3791 -0.2419
27490W        W70543  24.268   0.553   5.440 -0.2124  0.0546  0.2349
27491W        W70544  28.555   1.136   9.377 -0.2381 -0.2951  0.3390
27492W        W70545  13.921  18.238  21.595 -0.7613 -0.3086  0.0615
27493W        W70546  21.050  19.267  26.878  0.0384  0.1248 -0.0704
27494W        W70547  13.709  14.916  26.664 -0.1903 -0.0560 -0.1065
27495W        W70548  22.661  31.797   7.156  0.1194 -0.1668 -0.0238
27496W        W70549  16.728  20.198   1.236 -0.2718 -0.1464  0.0405
27497W        W70550  31.233   4.832   7.718 -0.2480 -0.0328  0.0177
27498W        W70551  22.549   1.165   9.574 -0.2816  0.2263 -0.0077
27499W        W70552  10.463  19.442  25.943  0.2313  0.2461  0.1853
27500W        W70553  33.396  20.511  13.372  0.0419  0.3240 -0.0298
27501W        W70554   0.828  17.649  12.970 -0.0254 -0.2525  0.3976
27502W        W70555  21.729  18.890  23.115 -0.0196  0.0909  0.1017
27503W        W70556  29.151   7.018  25.531 -0.0097  0.1773 -0.0214
27504W        W70557  31.515   4.095  29.015 -0.2077 -0.2164 -0.1588
27505W        W70558  25.708  21.605  10.110  0.0630 -0.1007 -0.3271
27506W        W70559   3.721  26.399   4.843  0.0730 -0.0512 -0.2152
27507W        W70560  31.795   2.027   9.002  0.0216 -0.3227  0.0338
27508W        W70561  15.949  27.418  10.731  0.0081  0.0687  0.0407
27509W        W70562  26.350   3.110   6.633  0.1031 -0.1434  0.0119
27510W        W70563  12.488   7.066   9.898 -0.0436  0.0997  0.1290
27511W        W70564  20.475  23.574   5.864  0.0974  0.3574  0.1050
27512W        W70565  12.092  25.107   2.604  0.0021  0.0656  0.0625
27513W        W70566  26.310  25.871  24.224  0.0602  0.1034  0.0616
27514W        W70567  21.336  21.736  10.254  0.0394 -0.0211  0.0281
27515W        W70568  26.618  10.436  22.768  0.2727  0.0704  0.1579
27516W        W70569  23.591  25.038   5.543 -0.0928  0.2276  0.0971
27517W        W70570   1.292  23.806   0.481  0.1829 -0.1465  0.0914
27518W        W70571  14.278  22.649   7.510  0.2062 -0.1107  0.1925
27519W        W70572   8.768   1.808  27.224 -0.0808  0.0247 -0.1124
27520W        W70573  28.101  22.569   9.525  0.0855  0.0981  0.0874
27521W        W70574   3.808   5.106   2.587  0.5267 -0.1026 -0.1861
27522W        W70575  14.295  19.898   5.062  0.1255 -0.2796 -0.0856
27523W        W70576  22.866  16.588  26.704  0.1346  0.0027  0.1289
27524W        W70577  34.353  16.191  26.464 -0.2649  0.0127  0.1483
27525W        W70578   4.541  31.409  23.090 -0.2350 -0.0305 -0.1456
27526W        W70579  34.307  28.873  23.365 -0.2371  0.0924 -0.0417
27527W        W70580  13.524  25.607   2.847  0.2269 -0.3884  0.1498
27528W        W70581  27.446  31.028   4.114 -0.0511 -0.0249 -0.3561
27529W        W70582  30.415  30.562   7.420 -0.2577  0.4655  0.1063
27530W        W70583  28.979  26.632   3.597 -0.0896 -0.3705  0.3802
27531W        W70584  24.126  17.494   3.112 -0.0657 -0.1632 -0.0945
27532W        W70585  14.212  31.550   0.530  0.1068 -0.0666 -0.1688
27533W        W70586  24.831   4.463   6.088  0.1613 -0.0032 -0.0088
27534W        W70587   6.896  27.279   5.540  0.1528 -0.0565  0.0679
27535W        W70588  10.047  23.852  25.723  0.1109  0.1725 -0.0271
27536W        W70589  30.984  33.583   3.007 -0.3241  0.1484 -0.2136
27537W        W70590   1.728  32.062   6.812  0.0303 -0.1927  0.0033
27538W        W70591  30.741  18.455   9.159  0.1897 -0.3165  0.3601
27539W        W70592  17.057  17.943  27.005 -0.0672 -0.0377 -0.1083
27540W        W70593  29.854   9.105  10.060  0.1259 -0.2441  0.0177
27541W        W70594   1.637  24.095   6.246  0.1682 -0.0923 -0.1443
27542W        W70595  28.994  16.385   5.343  0.2033  0.0671  0.1708
27543W        W70596   6.365  12.311   3.450 -0.0170  0.1390 -0.0348
27544W        W70597   2.172  26.122   8.871  0.0573 -0.1923  0.0548
27545W        W70598  25.675   8.413  10.535 -0.2205  0.2534  0.2785
27546W        W70599  16.219   4.834   4.772 -0.0787  0.1557 -0.3939
27547W        W70600  32.757   4.085  26.781 -0.3433 -0.2176 -0.1149
27548W        W70601  20.607  27.614   4.685  0.1809 -0.0449  0.0873
27549W        W70602  24.402  29.805   5.811  0.2422 -0.0819 -0.1776
27550W        W70603  31.852  25.415  28.302  0.0883  0.0508  0.2479
27551W        W70604   3.216  27.309  18.308 -0.0349  0.2517  0.0459
27552W        W70605  32.762  26.470  23.191 -0.1847 -0.0240  0.1220
27553W        W70606  32.769  22.586   0.687  0.1776  0.2415  0.3558
27554W        W70607  26.584  25.036   3.788 -0.4660  0.0054  0.0062
27555W        W70608  22.142  16.972  16.808 -0.0110  0.2320 -0.0606
27556W        W70609  23.193  18.937   1.649  0.2026 -0.0426  0.0279
27557W        W70610  25.544  12.390  10.420 -0.0300 -0.2736  0.3514
27558W        W70611  18.196  18.566  27.185  0.4374  0.1502  0.3230
27559W        W70612   4.479   4.549  22.151  0.0473 -0.3923 -0.0738
27560W        W70613  17.435  27.782  18.357  0.0952 -0.2662 -0.0841
27561W        W70614  21.235  23.110  28.109 -0.1616 -0.2216 -0.3442
27562W        W70615  19.694  27.185   1.811 -0.3685  0.1454 -0.0600
27563W        W70616  20.275  26.954  19.133 -0.0117  0.1298  0.2306
27564W        W70617  29.370   4.466   0.898  0.2398 -0.0040  0.1818
27565W        W70618  10.101  26.280   4.180 -0.1181  0.4300 -0.1086
27566W        W70619  19.093  14.191   5.571 -0.0253 -0.3579 -0.0241
27567W        W70620  19.276  29.043   7.289 -0.1801 -0.0861 -0.0979
27568W        W70621  18.033  17.025  28.883 -0.0480  0.3690 -0.2377
27569W        W70622  25.020  33.457  25.683 -0.1292  0.2405  0.0575
27570W        W70623  20.746  24.424   4.170  0.0260 -0.2236  0.1675
27571W        W70624  32.839  24.615   1.535  0.2492 -0.1896 -0.3053
27572W        W70625  31.214  12.245   8.959 -0.1166 -0.0917 -0.1328
27573W        W70626   9.545  28.733   6.226 -0.1295 -0.1078 -0.2765
27574W        W70627  31.166  33.932   9.739  0.1207  0.4283 -0.0586
27575W        W70628  17.932  19.974   3.831  0.1275 -0.0339 -0.0403
27576W        W70629  24.141  24.268   5.550 -0.3210  0.2717 -0.0160
27577W        W70630  32.668  27.037   7.305  0.2690 -0.1810 -0.0971
27578W        W70631  22.190  24.145  20.654 -0.3585  0.0993 -0.1035
27579W        W70632  21.791  25.798   8.020  0.1129  0.2581 -0.2244
27580W        W70633  28.728  31.270   1.854 -0.2609  0.2486 -0.2701
27581W        W70634  21.376  17.344   7.228  0.0397  0.1756 -0.1047
27582W        W70635   5.228  24.768   2.242  0.0561 -0.1420 -0.2517
27583W        W70636  20.214  33.306  13.783  0.0370  0.2967  0.0346
27584W        W70637  11.112  34.190   8.740  0.0375 -0.1658  0.2372
27585W        W70638  17.608  15.599   8.260 -0.0081 -0.0877  0.1841
27586W        W70639  30.722  17.951  28.235  0.0487 -0.2688  0.0561
27587W        W70640  15.591  17.092   1.967  0.0746 -0.0528 -0.1060
27588W        W70641  30.992  17.792  25.133  0.1367  0.0122 -0.2611
27589W        W70642  28.280   4.584   8.515  0.0462 -0.0630  0.1987
27590W        W70643  20.870  26.456   3.684  0.0426  0.2351 -0.0299
27591W        W70644  17.368  25.115   7.755  0.3278  0.3634 -0.1698
27592W        W70645  18.448  29.289   1.065 -0.4309 -0.1234 -0.1273
27593W        W70646  29.161  16.980  27.368 -0.0487 -0.5831  0.0287
27594W        W70647  26.757  13.488   0.597 -0.0044  0.1376  0.0388
27595W        W70648  21.521  16.943   9.567 -0.3794  0.1617 -0.0523
27596W        W70649  23.062  23.790   8.599  0.4120  0.2037 -0.0227
27597W        W70650  20.427  21.236  14.420  0.0909  0.3501  0.0671
27598W        W70651  22.143  21.486   8.236 -0.0342 -0.0091  0.3940
27599W        W70652  31.466  23.706  28.678  0.1916  0.1129  0.0365
27600W        W70653  14.319   3.534   3.567 -0.0343 -0.0829  0.0408
27601W        W70654  15.339  19.951   2.490 -0.0827 -0.0459  0.0470
27602W        W70655  19.158  30.170   7.247  0.1502  0.0584  0.0766
27603W        W70656  22.796  34.286   2.431  0.0969  0.2340  0.2392
27604W        W70657  13.636   4.304  24.363 -0.2364 -0.0606  0.0354
27605W        W70658   8.095  33.591   7.408  0.0624  0.1362  0.1269
27606W        W70659  11.259  27.016   3.260  0.1444 -0.1827  0.0205
27607W        W70660  19.162  29.229   9.377  0.0311  0.1356 -0.0609
27608W        W70661   0.283  28.186   3.756  0.2534 -0.0669 -0.3306
27609W        W70662  11.374  28.725  27.926  0.3139  0.2353  0.2349
27610W        W70663  27.807  14.666  24.555 -0.0818 -0.0792 -0.2284
27611W        W70664  17.418  11.022   7.676  0.2258  0.0977  0.0972
27612W        W70665  23.382  14.512  10.232  0.1319 -0.1540 -0.0705
27613W        W70666  16.686  22.912   4.906  0.0761 -0.2535 -0.0653
27614W        W70667  17.544  29.466   9.922  0.0243  0.1315 -0.1513
27615W        W70668   0.712   4.901   7.489  0.0122  0.0969 -0.0244
27616W        W70669  18.002  33.733  21.834  0.0268  0.1455 -0.0675
27617W        W70670  33.733  27.391   2.510  0.1486  0.0591  0.1628
27618W        W70671  23.942  20.669   8.076 -0.1118  0.3431 -0.1980
27619W        W70672   7.515  32.628   4.847  0.0370 -0.0899 -0.3021
27620W        W70673  24.709  27.144   4.637  0.0990  0.0166  0.1384
27621W        W70674  16.638  18.519   8.638  0.1678  0.0849 -0.0150
27622W        W70675   1.659  27.017   4.281  0.0372 -0.0853 -0.3141
27623W        W70676  18.347  33.132   3.791 -0.0872  0.3922 -0.3555
27624W        W70677  30.195   5.434   7.003  0.1914  0.1242 -0.3836
27625W        W70678  27.823  33.632   3.924  0.0063  0.1882 -0.0915
27626W        W70679  28.682  22.210   8.309  0.0087 -0.0507  0.1019
27627W        W70680  34.514  32.316  27.281 -0.1172  0.0821 -0.1285
27628W        W70681  17.629  25.201   5.364 -0.0142  0.1948  0.1792
27629W        W70682  25.395  19.820   7.191 -0.2168  0.0622  0.1892
27630W        W70683  29.248  17.537   7.172 -0.0369 -0.0980  0.2776
27631W        W70684  12.505  28.077   9.200 -0.0377  0.1366  0.0851
27632W        W70685  27.168  26.489  23.301 -0.0656 -0.0702 -0.1509
27633W        W70686  16.140  14.864   4.193  0.1385  0.1705  0.0662
27634W        W70687  10.309  11.511   7.689  0.0550 -0.1720  0.1931
27635W        W70688  29.595  19.637   3.258 -0.0210  0.1919  0.3149
27636W        W70689  18.692  27.619   9.995 -0.1069  0.2250  0.2546
27637W        W70690  26.208   2.655   3.167 -0.0096  0.3832 -0.1151
27638W        W70691  20.494   2.576  24.909 -0.0187 -0.1201  0.2624
27639W        W70692  13.822   4.623   6.166  0.6041 -0.0448  0.3346
27640W        W70693  21.124  21.919   6.101 -0.0484  0.1749  0.0594
27641W        W70694  23.338  19.119  10.190 -0.0775  0.0481  0.0648
27642W        W70695  30.983  31.058   6.785  0.1150  0.1002 -0.0368
27643W        W70696   7.129  29.639   8.582 -0.0122  0.0800  0.1953
27644W        W70697  22.983  32.129   9.456 -0.0813 -0.0668  0.2598
27645W        W70698  23.134   0.163  28.842  0.0093 -0.0592 -0.0920
27646W        W70699  25.717   3.158   5.906 -0.3328  0.1050  0.3924
27647W        W70700  15.325  20.876   2.770 -0.0470  0.0881 -0.0520
27648W        W70701   4.222   0.859   3.309 -0.0726 -0.1867  0.1724
27649W        W70702  22.245   1.986  27.106 -0.1231 -0.4154  0.0967
27650W        W70703  13.116   2.465   6.911  0.0350  0.4342 -0.1716
27651W        W70704  16.572  30.209   2.059 -0.2761  0.3994  0.0283
27652W        W70705  28.307  28.490  26.123 -0.2709  0.2275  0.1564
27653W        W70706  24.607  28.139   7.251  0.0639  0.0533 -0.0866
27654W        W70707  26.188  25.415  27.522  0.0638  0.4550  0.0735
27655W        W70708  33.314  28.837   6.360  0.0141  0.0268  0.4047
27656W        W70709   6.905   9.653   8.921 -0.1831 -0.2419  0.1283
27657W        W70710  32.445   4.396   0.646 -0.1957  0.2863  0.0299
27658W        W70711  32.638  30.232  25.025  0.2956  0.2036 -0.0954
27659W        W70712  11.792  13.750  28.822 -0.0612 -0.0117 -0.1489
27660W        W70713  27.527  22.789   7.033 -0.2065 -0.1513 -0.0981
27661W        W70714   0.386   4.490   0.390  0.1970  0.1168  0.0064
27662W        W70715  15.234  28.850   6.781 -0.0346  0.3406  0.2394
27663W        W70716   0.657  30.556   3.852  0.4084  0.1277  0.0543
27664W        W70717  19.211  26.985   8.356 -0.0004  0.1190  0.1789
27665W        W70718  32.727  33.552   9.059 -0.0434 -0.0383 -0.1835
27666W        W70719  28.708  18.326  20.283 -0.0669  0.1810 -0.1882
27667W        W70720   7.554  19.258  23.766  0.1423 -0.0879  0.2051
27668W        W70721  22.076  25.981   4.028  0.1258 -0.0300  0.0662
27669W        W70722   1.255   7.847  25.612  0.0442  0.1024  0.5544
27670W        W70723  29.267  29.838   8.207 -0.0071 -0.2628 -0.2682
27671W        W70724  32.048   6.561  23.793 -0.2539  0.0174 -0.1679
27672W        W70725   1.588  31.045   6.427  0.2073 -0.0392 -0.0013
27673W        W70726  24.309  10.212   9.697 -0.2128  0.0415  0.2263
27674W        W70727  34.432  26.144   3.699 -0.1455  0.1055 -0.0013
27675W        W70728  32.212  19.706   9.911  0.2645  0.2613 -0.0522
27676W        W70729  16.448  20.945   1.477 -0.0335  0.1858 -0.1456
27677W        W70730  29.581  12.171   7.687  0.2203 -0.1611 -0.0920
27678W        W70731   2.708  19.428   2.981 -0.1488  0.1504  0.1061
27679W        W70732  20.918  13.786   9.856 -0.1970  0.2537 -0.0574
27680W        W70733   4.253   1.223   3.821 -0.0338 -0.1652 -0.0469
27681W        W70734   8.550  20.861   6.337  0.2868  0.1591 -0.2816
27682W        W70735  28.453  23.071   0.160 -0.1079 -0.1271 -0.0362
27683W        W70736  31.608  18.923  24.339  0.0778 -0.0390 -0.2620
27684W        W70737  19.081  27.161  25.356 -0.1906 -0.0614 -0.3399
27685W        W70738  19.825  24.040   9.497  0.1227  0.1861  0.1123
27686W        W70739  14.022  23.009  28.718 -0.0343  0.1584  0.5555
27687W        W70740   2.364  30.474   8.688 -0.1453 -0.1742  0.2414
27688W        W70741  24.363  30.516   0.809  0.0505 -0.1158  0.0078
27689W        W70742  25.801  29.700  24.767  0.0924 -0.0619 -0.2927
27690W        W70743  30.913   8.866  10.364  0.0529 -0.1183  0.1365
27691W        W70744   8.965  22.114   9.508 -0.4064  0.3166 -0.0100
27692W        W70745  30.669  33.478   1.980 -0.1843  0.1837  0.1679
27693W        W70746  22.670  24.651   4.532  0.1295 -0.0919  0.0597
27694W        W70747  28.746  21.054   1.686  0.2171  0.1009  0.5070
27695W        W70748  17.926  23.566   8.754  0.1571  0.3343  0.2045
27696W        W70749   2.509  24.478   4.773  0.0289 -0.0213  0.2519
27697W        W70750  27.833   6.707   5.074  0.0947 -0.1993 -0.0493
27698W        W70751  26.925  27.767  23.520  0.3583 -0.1426 -0.2931
27699W        W70752   5.416   2.714  18.430 -0.3576 -0.3855  0.0098
27700W        W70753  30.242   0.790  27.734 -0.2347 -0.0781  0.1695
27701W        W70754  22.653   0.435   6.579  0.0396  0.0470  0.1306
27702W        W70755  27.751  29.249   3.287 -0.1188  0.0211 -0.0220
27703W        W70756  22.484   9.646   5.394 -0.0029  0.2501  0.1273
27704W        W70757  26.146  32.871   6.919 -0.0120  0.0446 -0.0173
27705W        W70758   0.843  34.187   3.852  0.1047 -0.3134  0.3758
27706W        W70759  27.577  24.971   4.524  0.1822 -0.4352 -0.1836
27707W        W70760  19.228  19.615   0.117 -0.0249 -0.1202  0.0900
27708W        W70761  13.928  28.622   9.132 -0.1177  0.0697 -0.1639
27709W        W70762  34.066   1.722   1.282 -0.1085  0.0418  0.1717
27710W        W70763  14.446  23.201  28.415  0.1284  0.1615  0.2671
27711W        W70764  26.689   9.149  29.142  0.1072 -0.1365 -0.0001
27712W        W70765  27.343  16.640   7.900 -0.1584  0.0160  0.1362
27713W        W70766  20.009  20.279   6.921  0.1424 -0.0331  0.2252
27714W        W70767  15.942  19.282  25.521 -0.1554  0.0367 -0.0017
27715W        W70768  28.977  28.771  27.792 -0.0541  0.2359  0.1770
27716W        W70769  13.196  27.597   0.697 -0.2042 -0.1364 -0.0546
27717W        W70770  16.244  28.985   1.168  0.0669  0.1147 -0.2949
27718W        W70771  18.941  26.235   9.453 -0.1357 -0.3441  0.1419
27719W        W70772  14.338  19.835   2.064 -0.1965 -0.1901 -0.0075
27720W        W70773  15.867  21.396   8.437 -0.1114  0.0271  0.2071
27721W        W70774  21.200  30.978   9.568 -0.1803 -0.0224  0.0430
27722W        W70775   6.101  10.690   0.879 -0.0946  0.0922  0.0823
27723W        W70776  25.238  32.613   7.041  0.1740 -0.1065  0.2489
27724W        W70777   4.636  28.407   6.090 -0.1489 -0.0595  0.1387
27725W        W70778  17.905  27.379   8.869 -0.1004 -0.0911  0.3181
27726W        W70779   6.321  28.628   8.845 -0.3630 -0.0102 -0.0057
27727W        W70780  20.435  23.870   5.385  0.1924 -0.1426 -0.0913
27728W        W70781   2.519   6.254  21.751 -0.1066  0.0891  0.1927
27729W        W70782  23.779  32.602  17.312  0.0088  0.2826  0.0981
27730W        W70783  27.519  31.667   2.585  0.1403 -0.1171 -0.0266
27731W        W70784  21.215  30.224   0.052 -0.2292  0.0133  0.3181
27732W        W70785  17.044   7.550   8.252  0.2489  0.0203 -0.1000
27733W        W70786  13.678   0.210   5.421 -0.1683  0.0999 -0.2940
27734W        W70787  26.337  27.852  19.759  0.1567  0.0190 -0.1163
27735W        W70788   1.235  20.751   8.888 -0.0330  0.3357  0.2648
27736W        W70789  20.120  16.433   7.706 -0.0245  0.0477  0.0353
27737W        W70790  16.525  24.619   7.878 -0.0105 -0.0646 -0.3084
27738W        W70791  25.933  27.017   4.975  0.3122  0.0211 -0.2674
27739W        W70792  25.851  22.439  10.069 -0.2821  0.1430  0.1601
27740W        W70793  20.991  18.295   2.584  0.1539 -0.2648 -0.1973
27741W        W70794   0.263  26.835   2.198 -0.3470  0.0790  0.2772
27742W        W70795  14.923  13.859   3.665 -0.0428  0.0962  0.0822
27743W        W70796  19.684  14.599   6.451  0.3320 -0.2602 -0.0243
27744W        W70797  19.331  21.074  27.534  0.0404  0.1898  0.2623
27745W        W70798  29.358  32.485   8.591  0.2582 -0.0705  0.0130
27746W        W70799   4.916  17.781  28.228  0.0420 -0.1473 -0.1296
27747W        W70800  19.096  26.967   9.559 -0.3383  0.1543  0.1349
27748W        W70801   0.364  32.064  28.241 -0.0080  0.1657 -0.0606
27749W        W70802  22.671  29.469  27.557  0.0797 -0.1537 -0.0809
27750W        W70803   8.430  31.573   4.613 -0.0859 -0.2161 -0.1678
27751W        W70804  23.436  27.615   4.937  0.0676  0.1439  0.0111
27752W        W70805  16.344  19.604   2.265  0.1448 -0.0851  0.0664
27753W        W70806  30.009  28.602  28.123 -0.4371  0.1862  0.0225
27754W        W70807  29.193  24.103  26.474 -0.0604  0.0056 -0.1097
27755W        W70808   5.114  10.391   6.706 -0.0172 -0.0039 -0.0429
27756W        W70809  22.756  26.022   4.083 -0.0633 -0.0533 -0.0247
27757W        W70810  32.013  29.089   6.592  0.0237  0.1385 -0.3256
27758W        W70811  22.033  17.313   4.644 -0.2432 -0.1917  0.2207
27759W        W70812  16.794  30.262   8.398  0.1281  0.0054 -0.1765
27760W        W70813  27.032  31.954   6.082 -0.0890  0.1721  0.1645
27761W        W70814   3.225  17.712   0.189  0.0367 -0.0750 -0.1052
27762W        W70815   1.810  20.355   7.555  0.0045 -0.2525  0.1126
27763W        W70816   6.972   2.291   3.156 -0.4641 -0.1857  0.2865
27764W        W70817  24.784   3.613   3.551 -0.3361  0.3796 -0.0395
27765W        W70818  29.649   6.408   4.961 -0.2482  0.0294  0.2167
27766W        W70819  23.528  32.508   5.169  0.0710 -0.0209  0.0963
27767W        W70820  29.425  20.186   4.639 -0.1637  0.1968  0.1432
27768W        W70821  20.150  24.461   0.147  0.0802 -0.1263 -0.0898
27769W        W70822  20.939  23.400   6.934 -0.0597  0.0502 -0.0636
27770W        W70823   8.578  30.964  28.550 -0.1434  0.1825 -0.0996
27771W        W70824  12.831  20.616   8.387 -0.1673 -0.0157  0.2062
27772W        W70825  13.318  33.889  24.333  0.1469 -0.1560 -0.1635
27773W        W70826  11.966   4.852   3.430  0.0597 -0.3792  0.1987
27774W        W70827  28.988  29.048   9.428 -0.0347  0.2681  0.1069
27775W        W70828  30.576  17.827   1.849 -0.0597  0.0138  0.1022
27776W        W70829   0.932  16.021  20.785  0.0016  0.2847  0.0249
27777W        W70830  16.255  30.569   1.913  0.3122  0.0053 -0.4881
27778W        W70831  20.935  19.188  29.060  0.0836  0.2836 -0.0809
27779W        W70832  25.918  33.214  26.952  0.2361 -0.0868 -0.4150
27780W        W70833   9.633  32.303   8.595 -0.4267 -0.1125 -0.1066
27781W        W70834  33.471  21.413   2.289 -0.0265  0.1805 -0.2498
27782W        W70835  23.477  16.613  17.365 -0.3596 -0.1955 -0.1596
27783W        W70836  17.764  21.305   7.563 -0.2201  0.1657  0.1160
27784W        W70837  28.474   4.395   8.011 -0.0453 -0.0659  0.0620
27785W        W70838  29.030  33.502   6.733  0.0975  0.0442  0.3050
27786W        W70839   7.574   1.779   6.676 -0.1284 -0.4059 -0.0265
27787W        W70840  20.831  28.847  24.579  0.0598 -0.0807 -0.1504
27788W        W70841  14.506  27.997   0.697  0.1007  0.2079  0.0478
27789W        W70842   7.611  23.745   8.290  0.0341  0.1445  0.1741
27790W        W70843  25.760  17.587   0.160 -0.1132 -0.1174  0.2943
27791W        W70844  34.392  23.769  22.642  0.1104 -0.0559  0.0107
27792W        W70845  21.336  12.962   9.500  0.1527  0.1427  0.1128
27793W        W70846  22.501  31.183   2.901 -0.2381 -0.1757 -0.0158
27794W        W70847  28.191  15.975   2.655  0.0152 -0.1777 -0.1919
27795W        W70848   9.492   0.776   4.750  0.2948 -0.1457  0.0800
27796W        W70849  18.416  21.127  10.192 -0.1092 -0.1811  0.0459
27797W        W70850  21.750  30.323  18.859  0.2630  0.0502 -0.4043
27798W        W70851   4.757  28.687  27.214  0.1970  0.0144 -0.5429
27799W        W70852  33.269  21.387   7.844  0.3046  0.2169  0.0591
27800W        W70853  32.573  17.161   4.076 -0.1156 -0.0026 -0.3115
27801W        W70854  23.217  19.852   1.229 -0.2321 -0.0848  0.2001
27802W        W70855  16.490  26.390   4.044  0.0202 -0.2423 -0.0777
27803W        W70856   3.621  32.698   7.681 -0.1811 -0.0078 -0.2366
27804W        W70857  16.374  22.885   5.827 -0.2247  0.1009 -0.0569
27805W        W70858   4.340  30.587  24.808 -0.0395  0.0877  0.2373
27806W        W70859  28.178  19.713   2.208  0.0879  0.0506 -0.0523
27807W        W70860  32.327  34.263   3.756  0.1937  0.0529 -0.1145
27808W        W70861  29.329   8.602   2.314 -0.0189 -0.2455  0.0969
27809W        W70862  17.103  30.239   1.327  0.0038  0.1084 -0.5196
27810W        W70863  22.425   6.714  25.905 -0.1120 -0.0483 -0.1922
27811W        W70864  23.334  31.647   1.242  0.1726  0.3524 -0.1278
27812W        W70865   1.175   4.170   7.013 -0.1946  0.1095  0.1079
27813W        W70866  26.247  32.569   1.807 -0.1096 -0.1015  0.2207
27814W        W70867   7.036  23.229  26.283  0.1358 -0.0106 -0.1617
27815W        W70868   9.112  32.465   0.987 -0.1941 -0.0296  0.0033
27816W        W70869  31.670  26.401  27.387  0.0410 -0.2088 -0.0956
27817W        W70870   0.197  25.496  24.244  0.0422 -0.0978 -0.0949
27818W        W70871  19.186  27.381   0.050 -0.0777 -0.3419 -0.3924
27819W        W70872  21.301  27.219   0.975 -0.1234  0.0351  0.0540
27820W        W70873  11.567  22.019  26.673  0.1789 -0.0369  0.1230
27821W        W70874  28.274   7.019   2.398  0.0558  0.1740 -0.0042
27822W        W70875  32.794  26.854   5.773  0.3425 -0.3023 -0.0585
27823W        W70876  13.360  29.057   4.390 -0.1082 -0.2588 -0.0853
27824W        W70877  28.203  32.172   0.434 -0.2374 -0.0416 -0.0590
27825W        W70878  22.145  20.489   4.260  0.1809  0.0387 -0.0528
27826W        W70879  21.981  24.455   8.027  0.1891  0.0676  0.6051
27827W        W70880  21.899  26.750   5.388  0.1731 -0.0631  0.2776
27828W        W70881  29.697  20.733   3.705  0.0281  0.1880 -0.1337
27829W        W70882  29.437  29.877   5.427  0.2481  0.3761  0.1473
27830W        W70883  17.845   6.707   1.404 -0.0333  0.2723  0.1199
27831W        W70884  14.610   0.896   9.710  0.1667 -0.3130  0.1561
27832W        W70885  32.361  20.606  28.224  0.0024  0.0501 -0.0431
27833W        W70886  33.339  29.384   9.328  0.0740 -0.1637  0.0661
27834W        W70887  18.461  32.967   9.307 -0.2529  0.0523 -0.1512
27835W        W70888  21.107  31.631   1.637 -0.4126  0.0419  0.0295
27836W        W70889   6.185  28.591   0.179  0.1048  0.2776  0.0522
27837W        W70890   4.053  22.595   3.643 -0.1452 -0.0040  0.0023
27838W        W70891  15.943   8.268   5.944 -0.0216 -0.1444  0.0277
27839W        W70892  22.452  25.446  29.096  0.0023  0.3209 -0.0957
27840W        W70893  27.268   2.974  25.712 -0.1857  0.2762  0.1318
27841W        W70894  34.518  14.880   4.681  0.0280  0.0622  0.1959
27842W        W70895  24.726  27.374  28.649 -0.0001 -0.1030 -0.0517
27843W        W70896   9.990   0.219   3.159  0.0116 -0.1327  0.2080
27844W        W70897   2.509   1.810   4.169 -0.1224 -0.0788 -0.2120
27845W        W70898  27.589  27.023   4.750 -0.1159  0.0530 -0.1646
27846W        W70899  23.103  24.222   8.151  0.0473  0.0655  0.3695
27847W        W70900   4.696  34.540   5.428  0.0821  0.0107  0.1624
27848W        W70901  25.169  29.448   2.888 -0.1399  0.0792 -0.0752
27849W        W70902  13.813  22.798   7.063 -0.0135 -0.1265 -0.2420
27850W        W70903  25.376  27.467  23.507  0.0909  0.1948 -0.0667
27851W        W70904   9.354  24.444   7.362 -0.0026 -0.0043 -0.0282
27852W        W70905  24.502  26.353  10.501  0.2162 -0.1237 -0.0054
27853W        W70906  14.895  17.953  23.940  0.1880  0.2025 -0.2993
27854W        W70907  16.482  18.796   1.810  0.0917  0.6098  0.2253
27855W        W70908  20.794  27.284  23.833 -0.4156  0.2433  0.0711
27856W        W70909  12.708   1.296   9.734  0.0163  0.0048 -0.0102
27857W        W70910  23.520  22.259   6.947 -0.2488  0.3137 -0.4927
27858W        W70911  17.618  22.112   6.605 -0.4151  0.3474 -0.3504
27859W        W70912  10.425  31.983   4.951 -0.1634  0.2159 -0.0168
27860W        W70913  12.054  21.719   6.413 -0.2137  0.1014  0.0483
27861W        W70914  14.246  21.845   6.325  0.2310 -0.0103 -0.2144
27862W        W70915  17.714  32.789   7.900  0.1398 -0.0828 -0.2622
27863W        W70916  20.504  12.237   9.533  0.0626  0.0935 -0.0217
27864W        W70917  20.511  10.973   6.823  0.1898  0.2145  0.1872
27865W        W70918  24.758  30.415   3.556  0.0533 -0.1335 -0.3025
27866W        W70919  26.968  32.488   9.379  0.0395 -0.3368  0.1261
27867W        W70920  29.385  22.777  24.742  0.1567 -0.0725  0.0924
27868W        W70921  22.951  28.069   7.075 -0.0324 -0.3338 -0.1697
27869W        W70922   6.419  13.179   5.188 -0.0125  0.0643 -0.1017
27870W        W70923  14.254  27.382   6.624  0.0640  0.4153 -0.0995
27871W        W70924  22.663  29.386  16.517 -0.1164  0.3277 -0.5036
27872W        W70925  23.452  24.856  10.669 -0.2646  0.0923 -0.2208
27873W        W70926  10.824   1.207   3.021  0.1408  0.1251 -0.1456
27874W        W70927  26.500   6.252   9.519 -0.1331 -0.1172 -0.0486
27875W        W70928  27.739  20.858  28.995 -0.0650  0.0267  0.2808
27876W        W70929  23.902  26.104   4.409  0.1201 -0.0294  0.1636
27877W        W70930  31.201   4.690   1.143  0.0810 -0.0543 -0.3107
27878W        W70931   3.854  31.504  17.905 -0.2974  0.1407  0.1014
27879W        W70932  22.766  13.441   5.347  0.0481  0.1154  0.1720
27880W        W70933   9.307  27.202   3.584 -0.0689 -0.0101 -0.0313
27881W        W70934  19.195  33.224   3.432 -0.2266 -0.2431  0.0401
27882W        W70935  16.837  34.582   8.945  0.0340  0.0280  0.0737
27883W        W70936  17.816  24.229  10.293 -0.0165  0.1138  0.0735
27884W        W70937  20.133  16.904   5.305 -0.1095  0.0527  0.0913
27885W        W70938   8.836   6.414   6.886  0.1308  0.0538 -0.1714
27886W        W70939  14.426  20.134  24.207  0.2169  0.1623  0.1715
27887W        W70940  10.635  21.347  25.031 -0.1986 -0.0968  0.0010
27888W        W70941  11.777  13.806   6.664 -0.0145  0.0953  0.1482
27889W        W70942  29.164  31.230   2.067  0.1616 -0.0162  0.2204
27890W        W70943   2.317  20.574   3.898  0.1760  0.3122  0.1413
27891W        W70944  25.467  26.999   4.865  0.0541  0.0045 -0.2902
27892W        W70945  21.619  26.113   9.191  0.1852 -0.0396 -0.0276
27893W        W70946  11.266  30.526  25.882 -0.1294  0.1110 -0.1177
27894W        W70947   4.210  32.019   3.969  0.0979 -0.2234  0.1675
27895W        W70948  25.159  21.838   8.209  0.0434  0.0031 -0.1248
27896W        W70949  28.908  29.857   8.568 -0.2306 -0.0645 -0.1827
27897W        W70950  19.083   3.734   1.015  0.2461 -0.1145  0.1996
27898W        W70951   4.342   0.240   5.831 -0.0707 -0.1871 -0.2944
27899W        W70952  23.445   6.704   8.759 -0.1189 -0.0722 -0.0621
27900W        W70953  33.333   4.004   1.881  0.1649 -0.3427 -0.2709
27901W        W70954  20.675  30.149   8.831  0.0078 -0.2448  0.1982
27902W        W70955  25.723  30.900   6.770  0.0707 -0.0553  0.0564
27903W        W70956  28.672  26.785   4.530 -0.0717 -0.0851  0.0645
27904W        W70957  10.045  26.229  24.208  0.0006  0.0967 -0.2117
27905W        W70958  33.095  34.350  28.736  0.0876  0.0687 -0.0672
27906W        W70959  24.947  31.664   6.857 -0.0439 -0.0103 -0.2648
27907W        W70960  17.007  23.942  26.241 -0.3117 -0.1785  0.4405
27908W        W70961  14.931   3.379   2.908 -0.0274 -0.1737 -0.2000
27909W        W70962   7.512  22.547   9.720 -0.0996  0.1592  0.0802
27910W        W70963   9.995  12.826   0.464  0.1132  0.1986  0.3910
27911W        W70964  22.233  25.313   4.349  0.1524  0.1203 -0.2245
27912W        W70965  25.425  22.980   6.321 -0.1824 -0.0868 -0.0341
27913W        W70966  30.974  27.676   8.972 -0.0302 -0.2617 -0.2763
27914W        W70967  20.090  31.489   8.116  0.0285 -0.2058 -0.0281
27915W        W70968  25.159  10.554   3.389  0.2752 -0.1595  0.0850
27916W        W70969  24.312  21.758   6.883 -0.1662 -0.0441 -0.0235
27917W        W70970  29.131  30.546  26.949  0.0068  0.1707 -0.1673
27918W        W70971  25.787  29.251   4.596 -0.1054 -0.1355 -0.0492
27919W        W70972  27.940   4.899   0.527 -0.0554 -0.1407 -0.0823
27920W        W70973  34.609   8.215  25.659 -0.0819  0.1598 -0.0993
27921W        W70974  33.832   8.701  22.643  0.1150  0.0157 -0.1333
27922W        W70975  17.620  27.840  15.169  0.2041  0.1604 -0.1955
27923W        W70976  32.237  32.519  23.294 -0.0498 -0.1680  0.1460
27924W        W70977  18.465  21.656   1.461  0.0218 -0.0647  0.0918
27925W        W70978  31.518  18.577   3.860  0.2358 -0.1246  0.2076
27926W        W70979  18.689   3.337  25.709  0.1555 -0.0979  0.1548
27927W        W70980  15.644  14.398  21.059 -0.2104  0.0566 -0.0810
27928W        W70981  19.927  24.498   1.783  0.1343  0.2163  0.0093
27929W        W70982  12.285   9.562   5.424 -0.2145 -0.0376  0.2097
27930W        W70983  30.245  21.522  15.095  0.0054  0.0912 -0.0506
27931W        W70984  25.421   6.735   1.552  0.2823 -0.0401  0.0288
27932W        W70985  14.779   2.829   1.458 -0.1526 -0.0714 -0.0870
27933W        W70986   4.843  24.727   1.757 -0.1536  0.0646 -0.2766
27934W        W70987  15.181   0.048  27.290  0.1281 -0.0214  0.1972
27935W        W70988  28.660  30.617   4.772 -0.1896 -0.4111 -0.0689
27936W        W70989  14.223   0.259  17.164 -0.1332 -0.0339  0.2577
27937W        W70990  18.370  18.735   2.863 -0.2385 -0.1565 -0.0632
27938W        W70991   2.351  31.675  27.604 -0.3723 -0.0581 -0.3023
27939W        W70992  31.758  10.785   1.481  0.1515  0.2645  0.1439
27940W        W70993  33.052  14.505  24.428  0.2250  0.3923  0.2691
27941W        W70994  25.291  19.737   0.025  0.2134 -0.1384 -0.2296
27942W        W70995  32.691  17.167  26.691 -0.0292  0.0897  0.0719
27943W        W70996  10.018  34.599   4.383  0.4248 -0.0832  0.1382
27944W        W70997  17.224  34.004  19.762  0.0472 -0.0240 -0.0521
27945W        W70998  30.168  29.247   5.218 -0.1065 -0.1420  0.0527
27946W        W70999  24.385   1.439  24.780 -0.1900 -0.1075 -0.0356
27947W        W71000  33.775  19.680   1.349  0.3917 -0.0556 -0.0764
27948W        W71001  21.851  26.199  18.357  0.3404  0.0071  0.1919
27949W        W71002  15.159  27.099   7.080 -0.3548 -0.2227 -0.0503
27950W        W71003   2.930  32.761   4.725  0.0245  0.0522 -0.2635
27951W        W71004  22.312  28.793  26.889 -0.1825 -0.0386 -0.0297
27952W        W71005  17.312  28.904  16.366 -0.2579  0.1813  0.0507
27953W        W71006  20.888   3.958  23.855  0.0113 -0.0637 -0.3967
27954W        W71007   1.354   1.574   5.320 -0.4569  0.1209  0.2850
27955W        W71008  20.442  19.838  27.220  0.0528 -0.0459  0.1506
27956W        W71009  21.058  32.134  17.339 -0.2334  0.2308  0.1387
27957W        W71010  23.422  10.276   4.428  0.0325  0.0918  0.1246
27958W        W71011  22.447  16.961   3.371  0.0992  0.0093  0.0857
27959W        W71012  31.685   8.256  20.046 -0.1801 -0.0994  0.2411
27960W        W71013  16.189  23.885   0.991 -0.3348  0.2881  0.5055
27961W        W71014  12.539  14.088   0.845  0.0744  0.3900 -0.0503
27962W        W71015  23.335  26.665  26.438  0.0419  0.0393 -0.3002
27963W        W71016  33.916   2.805   1.633 -0.0164  0.1104  0.0410
27964W        W71017  32.310  25.208   5.166  0.2909  0.6867  0.2943
27965W        W71018  25.533  13.129  27.693 -0.0325 -0.2432 -0.1826
27966W        W71019  16.939   5.479   9.211  0.0336  0.0706  0.1471
27967W        W71020  23.080  11.319  20.070  0.1357  0.2031 -0.4670
27968W        W71021  27.300   8.835  15.258 -0.1731 -0.1541  0.0024
27969W        W71022  27.129  27.442   2.249 -0.4251 -0.0537 -0.1620
27970W        W71023  33.467   2.105  26.641 -0.1390  0.1470  0.2846
27971W        W71024  25.487  19.968  27.070 -0.0389  0.2092  0.0694
27972W        W71025  27.209  24.865   2.017 -0.1224 -0.0947  0.0155
27973W        W71026  21.094  22.338  10.527 -0.2023  0.2195  0.1697
27974W        W71027  31.174  16.154   1.203  0.1898  0.0089 -0.0567
27975W        W71028  19.921  25.980   2.278  0.2746 -0.1856  0.0013
27976W        W71029  19.041  26.605   1.180 -0.1399 -0.0726  0.2029
27977W        W71030  27.166  15.395   3.730 -0.3533 -0.3427 -0.2723
27978W        W71031  26.658  27.551  21.589  0.0219  0.0061 -0.1837
27979W        W71032  21.316  28.598  16.031  0.1012  0.0818  0.0524
27980W        W71033  21.641   8.465   1.752  0.2890 -0.0905  0.0914
27981W        W71034  21.849   6.764   9.090 -0.3383  0.2422 -0.1911
27982W        W71035  26.392   4.090  24.014  0.2902 -0.1447  0.1458
27983W        W71036  12.889  22.554  26.234  0.0723 -0.0842  0.3110
27984W        W71037  22.018  12.775   6.524  0.2452  0.0519 -0.1612
27985W        W71038  24.185  22.386   5.443 -0.0527  0.2662 -0.2666
27986W        W71039  27.172   1.045  17.415  0.0061 -0.2611 -0.1725
27987W        W71040  22.205  28.294   6.438 -0.1504 -0.2497  0.1863
27988W        W71041  18.803  26.988  24.143  0.2119 -0.2920  0.2165
27989W        W71042  21.292  26.758  18.201  0.2078  0.0759  0.2824
27990W        W71043  20.388  34.414   1.618  0.2697  0.1685 -0.3747
27991W        W71044  34.312  26.723   4.250 -0.2113  0.0899  0.0248
27992W        W71045   7.543  13.863  25.574 -0.1746 -0.1978 -0.0885
27993W        W71046  10.657  24.327   2.915 -0.0897  0.0236 -0.1390
27994W        W71047  25.974  27.104   3.106  0.0994 -0.1114 -0.3808
27995W        W71048  20.817  16.280  22.023 -0.5253  0.1448  0.1614
27996W        W71049  28.471   9.691  16.204 -0.0283 -0.0305 -0.0524
27997W        W71050  17.468   5.777   0.553  0.0505  0.1872  0.1209
27998W        W71051  30.182  28.678   6.064 -0.2100  0.0446 -0.0162
27999W        W71052  27.768  12.425   1.598 -0.2784  0.0026 -0.0513
28000W        W71053  12.098   0.091  27.400 -0.1424 -0.1711  0.3293
28001W        W71054  11.245   9.313  21.485 -0.0327 -0.2752 -0.0328
28002W        W71055  19.119  17.308   1.893  0.3963  0.1549  0.3395
28003W        W71056  32.693  21.696   0.364 -0.1612  0.3447 -0.1701
28004W        W71057  22.627  30.492   0.326  0.1063 -0.2072 -0.0215
28005W        W71058  23.437  29.159   0.660  0.1513 -0.4251 -0.1727
28006W        W71059  15.298  12.167  28.150 -0.2729  0.0061 -0.2033
28007W        W71060  21.270  27.575  20.807 -0.2240  0.0205  0.0088
28008W        W71061  16.755  21.359  14.407 -0.1219  0.2557 -0.1813
28009W        W71062  16.813  16.805   8.422 -0.0856  0.0085 -0.2793
28010W        W71063  14.314   0.083   8.572 -0.3015  0.0916 -0.1791
28011W        W71064  18.066  11.242  28.252  0.0477  0.0376  0.3754
28012W        W71065  32.475  20.775  15.349  0.1087  0.1758  0.0225
28013W        W71066   9.181  22.509   0.574 -0.1292  0.0983  0.0648
28014W        W71067  19.468  24.983  28.899 -0.1409  0.0138 -0.1601
28015W        W71068  33.952  28.480   3.753 -0.1529  0.1433  0.2625
28016W        W71069  15.825  12.845   8.541 -0.0559 -0.2778 -0.3530
28017W        W71070  27.366  13.487   2.186 -0.2541  0.4010 -0.1001
28018W        W71071  15.430   4.462   6.309 -0.1609 -0.2746  0.2757
28019W        W71072   1.711   9.833  26.206 -0.0340 -0.0826 -0.2197
28020W        W71073  24.231  34.073  18.478  0.0851  0.1565  0.2639
28021W        W71074  27.522  33.617  27.808  0.1410 -0.0201  0.1755
28022W        W71075  17.432  29.359   6.441  0.0662 -0.2727 -0.0463
28023W        W71076   8.331  28.540  28.956  0.1182 -0.0453  0.0245
28024W        W71077   0.104  22.653   4.425  0.1992 -0.0253 -0.0074
28025W        W71078  20.004  27.394  23.414 -0.0915 -0.0627  0.1791
28026W        W71079  19.321  25.559   3.436 -0.1536 -0.0560 -0.1012
28027W        W71080   8.543  27.859  22.605  0.2168 -0.1115  0.1369
28028W        W71081  11.957  20.089   8.498 -0.1072  0.2011 -0.1308
28029W        W71082  11.828   5.782   3.365 -0.4445 -0.0015 -0.2849
28030W        W71083   0.808  32.845  24.718 -0.0755  0.2353  0.1187
28031W        W71084  18.910   7.556  23.992 -0.0795 -0.0414  0.1528
28032W        W71085  27.713   4.449   1.652  0.1952 -0.0627  0.2837
28033W        W71086  28.607  34.262  10.154 -0.1846  0.2619  0.1415
28034W        W71087  16.114  24.331  27.881 -0.0480  0.1335  0.0404
28035W        W71088  13.163   4.613   2.083  0.1322 -0.1523  0.1457
28036W        W71089  15.627   1.076   2.291  0.1993  0.2658 -0.0318
28037W        W71090   8.883  29.287  18.484  0.2842  0.2466 -0.0924
28038W        W71091  28.859  24.908  28.554 -0.1282 -0.1859  0.1499
28039W        W71092  21.336  34.318   5.565 -0.3001  0.0155  0.0888
28040W        W71093  26.379  27.968   4.670  0.1133 -0.0675 -0.0479
28041W        W71094  25.985   0.516  18.214  0.0440  0.0496 -0.1256
28042W        W71095   5.477  19.584  29.037 -0.0079  0.4057 -0.1784
28043W        W71096  24.237  28.542   8.011 -0.1319  0.0923 -0.1793
28044W        W71097   7.706  26.858   2.256 -0.0817 -0.2452 -0.1158
28045W        W71098   0.640  31.613  24.777  0.0185 -0.0985 -0.5630
28046W        W71099   8.360  25.125   2.461 -0.1546  0.0043  0.0111
28047W        W71100  19.821  11.039   8.137 -0.0682 -0.0909 -0.2681
28048W        W71101  32.019  25.155  29.051  0.2612 -0.0560  0.0930
28049W        W71102  18.285  16.678  22.513  0.2406  0.0983  0.2457
28050W        W71103  16.041   9.204  10.222  0.0432  0.1813 -0.0216
28051W        W71104  25.960  26.081   3.897  0.0422 -0.2768 -0.2004
28052W        W71105  15.457  16.493   2.897 -0.4012  0.3461  0.0283
28053W        W71106  24.957  19.440  22.527 -0.1202  0.0709  0.1029
28054W        W71107  14.011  31.585   8.879 -0.0203  0.1353 -0.1709
28055W        W71108  21.970  29.447   5.099 -0.2912 -0.3385 -0.1306
28056W        W71109  21.443  19.118  18.328 -0.1843  0.0659 -0.0682
28057W        W71110  31.216  30.408   7.038  0.1660 -0.1781 -0.1431
28058W        W71111  22.391  30.563   5.956  0.0140 -0.1712 -0.0517
28059W        W71112   2.463  29.172   6.366 -0.4205  0.1138 -0.2897
28060W        W71113  25.092  34.097  21.871  0.2247 -0.0428  0.2854
28061W        W71114  20.919   8.986  10.370  0.1061  0.4032 -0.0508
28062W        W71115   8.133  29.591  26.745  0.3647  0.0554 -0.1621
28063W        W71116  15.134   9.501  23.431  0.1697  0.0766  0.3653
28064W        W71117  32.842   0.584   1.003 -0.1707  0.1728  0.0996
28065W        W71118  34.080  30.956   0.438 -0.2115 -0.4160  0.1217
28066W        W71119  32.508  27.257   0.539  0.2342 -0.1262 -0.0194
28067W        W71120  26.803  25.309   1.992  0.0321  0.3607  0.2213
28068W        W71121  26.207   4.854   9.525  0.0866 -0.2293  0.2311
28069W        W71122  15.466  16.500  29.186  0.2351  0.1068 -0.2826
28070W        W71123  27.461  14.651   1.560 -0.0173  0.0432 -0.0324
28071W        W71124  13.074   3.564   5.454 -0.0294 -0.3392  0.0312
28072W        W71125  25.374   6.566   9.853 -0.1781  0.0756  0.3335
28073W        W71126  27.780   1.694  19.347 -0.0625 -0.2512  0.1172
28074W        W71127  29.256  29.049   4.674 -0.1591  0.2854 -0.0725
28075W        W71128  16.584  13.510  27.515  0.0343  0.2427  0.3653
28076W        W71129  24.967   3.143  21.608  0.0491  0.0950  0.0260
28077W        W71130   1.354   1.437   2.935 -0.0282 -0.2042 -0.4079
28078W        W71131  32.431  32.129   5.132 -0.1966 -0.1678 -0.1209
28079W        W71132   1.651  27.034  28.317 -0.2174 -0.0927 -0.0535
28080W        W71133  28.698  32.205   7.807 -0.2179 -0.0024 -0.0276
28081W        W71134  17.045  28.413   2.499  0.3595 -0.0857 -0.0126
28082W        W71135   4.479  28.239  27.278  0.3658 -0.0805 -0.1803
28083W        W71136   8.972  27.401   7.016 -0.1573 -0.3029 -0.0784
28084W        W71137   2.812   8.748  24.676  0.1943 -0.0839 -0.1578
28085W        W71138  11.482  28.488  18.465 -0.1782 -0.1620  0.1097
28086W        W71139  13.829  16.874   6.988  0.0735 -0.1595 -0.2079
28087W        W71140  23.066  31.179   9.154 -0.1547  0.3088  0.2277
28088W        W71141  28.585  32.726   9.182 -0.2209 -0.0121 -0.0556
28089W        W71142  12.355  12.381   4.481  0.1069 -0.0537  0.0892
28090W        W71143  13.283   1.920   5.599  0.0236  0.0098  0.4737
28091W        W71144  33.833  32.449  24.027 -0.0627 -0.0720  0.1962
28092W        W71145  18.083  33.878   8.659  0.1325 -0.0122 -0.0860
28093W        W71146  13.389  15.150   7.059  0.0184 -0.0322 -0.0340
28094W        W71147  24.164  20.680   9.174 -0.2868 -0.2021 -0.3211
28095W        W71148  22.680  15.972   5.099 -0.1763 -0.0865  0.2427
28096W        W71149  19.116  32.386   0.543  0.1877 -0.2557  0.0388
28097W        W71150  22.796   8.051   5.634  0.0814 -0.0221  0.1482
28098W        W71151  27.865   6.970   6.749 -0.1125  0.3316 -0.1133
28099W        W71152   2.106  18.520   0.554 -0.0907  0.0142  0.1351
28100W        W71153  21.150  24.768  18.574 -0.2467 -0.1938 -0.0545
28101W        W71154  27.320  34.063  26.280  0.1375  0.0428  0.0465
28102W        W71155   9.543  25.668   8.931  0.0717 -0.2553 -0.4031
28103W        W71156  17.694  30.525   1.387 -0.0252  0.2274  0.1179
28104W        W71157   5.364  31.883  23.303 -0.0538  0.0966 -0.0373
28105W        W71158  29.058  29.346  18.819  0.2598  0.4655  0.0278
28106W        W71159  25.671  18.769   2.738  0.0536  0.0732  0.4000
28107W        W71160   3.172   5.906   9.404  0.0852 -0.0440  0.0821
28108W        W71161   8.850  28.263   8.530  0.1124 -0.2365 -0.1901
28109W        W71162  31.217  14.600  29.113 -0.1708 -0.0622  0.4677
28110W        W71163  32.729  34.243  29.135  0.1169 -0.0382 -0.0605
28111W        W71164   0.595   6.955  27.815 -0.2325 -0.0062  0.4730
28112W        W71165  19.398   2.012   6.510  0.0307  0.1140 -0.2279
28113W        W71166  22.792  27.844  25.647 -0.0504  0.1103 -0.1663
28114W        W71167   7.664  26.717   5.974  0.2884  0.3888  0.0913
28115W        W71168   3.609   9.718  25.455 -0.1846  0.0800 -0.0495
28116W        W71169  20.638   8.734   4.457  0.0869 -0.3169 -0.0806
28117W        W71170  23.281  18.802   9.626 -0.1394 -0.1632 -0.0599
28118W        W71171  23.931  24.426   4.306 -0.4066 -0.0903 -0.0346
28119W        W71172  33.377  26.621   1.905 -0.1548  0.1482  0.1890
28120W        W71173  29.992   0.663  15.754 -0.0612  0.0258  0.2290
28121W        W71174   1.624   0.413  22.731  0.0457 -0.3484  0.1240
28122W        W71175  19.874  22.512  20.408 -0.1913  0.2833  0.2771
28123W        W71176   0.475   4.876  20.363 -0.2127  0.0951  0.0351
28124W        W71177  25.309  17.835   7.900 -0.0456 -0.0024  0.0317
28125W        W71178  33.771   1.356   5.658 -0.1094  0.1712  0.0083
28126W        W71179  20.651  33.163   3.242  0.0031 -0.1286 -0.2473
28127W        W71180  30.300  32.353  24.081  0.1446  0.1608  0.1906
28128W        W71181  28.932  14.249  25.542  0.0860  0.0852  0.2034
28129W        W71182  16.361  17.698   8.445  0.0158 -0.2644  0.2496
28130W        W71183  26.310  21.742  25.814 -0.3544  0.1131 -0.4201
28131W        W71184   2.391  29.936  23.410  0.0947  0.0774 -0.1453
28132W        W71185  19.880   3.831  26.125 -0.1973  0.3569 -0.1567
28133W        W71186   0.910  27.937   3.813 -0.1690 -0.0753  0.1027
28134W        W71187   8.382  19.578  26.852 -0.1483 -0.0870  0.1712
28135W        W71188  21.913  22.995  22.000 -0.1066  0.1416  0.1475
28136W        W71189  34.204   1.284   5.321  0.0944 -0.0079 -0.0594
28137W        W71190   7.812  21.136   3.043  0.1675 -0.0864  0.0305
28138W        W71191  32.426   7.359   0.023  0.2129  0.3118 -0.0925
28139W        W71192  31.193  23.217  28.367  0.1537  0.1156 -0.1039
28140W        W71193  25.776   6.475   8.671 -0.0106  0.0393  0.3576
28141W        W71194  20.965  21.468  22.693  0.1299 -0.1946  0.1572
28142W        W71195  22.775   2.483   1.040 -0.1218 -0.0133  0.2155
28143W        W71196   3.612  14.315  25.098  0.0815 -0.0095  0.0848
28144W        W71197   8.871  26.918   6.857  0.3948 -0.3458 -0.0609
28145W        W71198  11.949  22.878   6.043  0.1477 -0.1339 -0.0398
28146W        W71199  18.117  33.868   6.689  0.2174 -0.2051  0.2847
28147W        W71200  23.023  30.101   4.319 -0.1087  0.1513 -0.0794
28148W        W71201  18.560   0.082  24.612  0.4331 -0.1543 -0.1346
28149W        W71202  23.789   1.377  26.920 -0.0532 -0.0980 -0.1946
28150W        W71203  27.459   6.211  15.413 -0.3544  0.0993 -0.0089
28151W        W71204  32.468  32.222   8.167  0.3217  0.1315 -0.1825
28152W        W71205  15.870  20.560   8.616  0.0240  0.1598 -0.0391
28153W        W71206  17.027  33.444  15.064 -0.0960 -0.2124  0.2359
28154W        W71207  12.193  22.000   0.452 -0.0187  0.0538  0.2334
28155W        W71208  16.474  23.975  25.543 -0.3020  0.1198 -0.0928
28156W        W71209  20.118  31.422   3.571  0.0092 -0.3909  0.0094
28157W        W71210  31.864  21.074   1.245 -0.0546  0.1576 -0.1706
28158W        W71211  12.493  25.773  18.817 -0.0760  0.2143 -0.3479
28159W        W71212  10.535  32.429  17.003  0.0498 -0.1209  0.4400
28160W        W71213  18.982   2.096   2.210  0.1388 -0.4684 -0.0033
28161W        W71214  32.988   6.437  26.233 -0.0827 -0.1447 -0.0661
28162W        W71215  23.487  25.954  16.945  0.1942  0.1855  0.2008
28163W        W71216  27.396  31.132   9.715 -0.0149 -0.0662  0.0869
28164W        W71217  18.729  31.214  20.278  0.3752 -0.1470  0.1305
28165W        W71218  12.627  30.417  23.849  0.0266  0.1827  0.2518
28166W        W71219  22.038  18.822   4.865  0.1393  0.0164  0.1680
28167W        W71220  27.745  25.344   0.362 -0.0762  0.0190  0.1153
28168W        W71221  32.320  25.459   8.332  0.0710  0.2346  0.1957
28169W        W71222  16.517  11.224  21.315 -0.1034 -0.0891  0.0011
28170W        W71223  24.386  33.835   3.337  0.2222  0.1701  0.0183
28171W        W71224  23.933  24.904  27.659 -0.0371  0.2892  0.3470
28172W        W71225  16.745  11.178  27.188  0.3685  0.2618 -0.0162
28173W        W71226   0.927  12.389   8.524 -0.0008 -0.1861 -0.0875
28174W        W71227  15.005  30.186   8.166 -0.0189  0.1108  0.0165
28175W        W71228  13.000  28.204  14.740  0.0527  0.2916  0.0333
28176W        W71229  21.651  23.403   3.415 -0.1426  0.1659  0.0723
28177W        W71230   2.300  18.504   6.417  0.0837  0.0556 -0.2699
28178W        W71231  32.122  28.473   8.433 -0.2237 -0.1122 -0.0491
28179W        W71232  21.745  17.539   2.983  0.1671  0.1296 -0.1934
28180W        W71233  26.073  20.584  26.523  0.0391 -0.1375 -0.3283
28181W        W71234  20.723  26.686  23.589  0.4813  0.2667 -0.1247
28182W        W71235  31.890   8.603   5.486 -0.2654 -0.2349 -0.1673
28183W        W71236  21.617   6.793   4.660 -0.0613  0.0033  0.0902
28184W        W71237  24.220  31.704  15.072  0.1796 -0.1942 -0.1649
28185W        W71238  27.736   1.450  29.064 -0.0848  0.1240 -0.0239
28186W        W71239  28.802  24.170   6.208  0.0751  0.0352 -0.0284
28187W        W71240  12.081  25.285   9.320 -0.0579 -0.1998 -0.1653
28188W        W71241  31.313  12.592   7.642  0.0115 -0.2259 -0.0020
28189W        W71242  24.574  26.440   7.577  0.3057 -0.0715 -0.0425
28190W        W71243   2.890  27.478   3.657 -0.4343  0.1145  0.1295
28191W        W71244  34.228  24.212   0.984 -0.0763 -0.0992  0.2109
28192W        W71245   1.482   5.948  19.679 -0.1126  0.2228  0.0412
28193W        W71246  30.180  20.813   8.921 -0.1365  0.0433 -0.2531
28194W        W71247  33.042   8.216  24.150 -0.0156  0.0167  0.2198
28195W        W71248  28.244  26.223  25.711 -0.2297  0.3331 -0.0813
28196W        W71249   2.045  18.251   8.877  0.1279 -0.0740 -0.1529
28197W        W71250  24.291   0.494   5.946 -0.1888  0.3252  0.1304
28198W        W71251  30.731  23.080   0.038 -0.2531 -0.0588 -0.0601
28199W        W71252  11.097  30.279  15.800  0.0808  0.1253  0.0583
28200W        W71253  20.245  12.873  24.074  0.0931  0.3856 -0.0292
28201W        W71254  20.177  29.767   5.176  0.1967 -0.0081  0.0389
28202W        W71255   9.234  30.687   0.729  0.2143 -0.1427  0.1107
28203W        W71256  21.853   2.201  27.620  0.1544  0.1597  0.1250
28204W        W71257  19.245  26.630  26.325 -0.2762 -0.2983 -0.5576
28205W        W71258  15.241   1.273   5.133 -0.0469 -0.0226 -0.2274
28206W        W71259  24.006  34.493   0.187  0.4860  0.0286  0.0320
28207W        W71260  24.826  23.984   4.131 -0.0136 -0.1446 -0.0769
28208W        W71261  24.830  27.770   3.011  0.0852  0.1416  0.1420
28209W        W71262  21.317  33.492   0.548  0.1698  0.2904 -0.0204
28210W        W71263  30.731  30.514  18.190 -0.2154  0.0185  0.2696
28211W        W71264   2.325  22.945   0.080  0.0625  0.2855 -0.1424
28212W        W71265   7.844  22.009   3.234 -0.0853 -0.2456  0.1507
28213W        W71266  18.454  29.716   8.223 -0.0323 -0.0221 -0.0122
28214W        W71267  12.130   0.881   6.599  0.3188 -0.0868 -0.2649
28215W        W71268  32.151  34.306  25.853  0.1204  0.0630  0.1691
28216W        W71269  12.128   5.759   1.690  0.0287  0.0978 -0.2574
28217W        W71270  17.028  11.852   0.595  0.2476  0.2066 -0.0062
28218W        W71271   4.312   0.651   5.464  0.0860  0.2050  0.0633
28219W        W71272  21.871  26.126   1.038  0.0407  0.0162  0.1155
28220W        W71273  19.068  16.071   8.359  0.0949 -0.1142 -0.0967
28221W        W71274  29.585  33.366   5.206  0.0263  0.0458 -0.2100
28222W        W71275   2.178   4.997   5.514 -0.1815 -0.1302  0.1951
28223W        W71276  32.489  25.030   4.536 -0.3572 -0.0418  0.0123
28224W        W71277   0.038  30.848   4.067  0.2833 -0.0571  0.1511
28225W        W71278  25.629  32.779  17.759  0.1331 -0.0892 -0.3655
28226W        W71279  21.467  22.805  21.774 -0.1219 -0.0137 -0.1482
28227W        W71280   9.626  12.021   4.639 -0.3924  0.2381 -0.2142
28228W        W71281  26.502   4.797  22.562  0.1351 -0.1928  0.1504
28229W        W71282  21.995  21.934  28.409  0.0280  0.0004  0.0299
28230W        W71283  12.032   8.304  21.288 -0.3613 -0.0108 -0.0054
28231W        W71284  16.118  23.150  19.190 -0.0074  0.4535 -0.0165
28232W        W71285  28.709  28.967  29.066 -0.0923  0.2730 -0.0791
28233W        W71286  28.047  16.091   3.641 -0.1875  0.1134 -0.3652
28234W        W71287  19.987   7.814  28.504 -0.1149  0.3077  0.0372
28235W        W71288   7.878  19.520  17.582  0.0909 -0.0251  0.0933
28236W        W71289  26.429  13.124   0.855 -0.1967  0.1733 -0.1300
28237W        W71290  14.495  30.362  27.408 -0.1237 -0.0557  0.2436
28238W        W71291   7.190  12.278  24.712  0.0642 -0.0284 -0.2213
28239W        W71292  26.495  29.783   3.836  0.2646 -0.2047 -0.1374
28240W        W71293  20.814  28.481   3.081  0.0070 -0.0164  0.1642
28241W        W71294  26.128  31.550  28.136  0.1218 -0.3599 -0.2415
28242W        W71295  21.567  22.354  29.164  0.0730 -0.0176  0.3925
28243W        W71296  33.233  22.595  24.782 -0.2109 -0.0660 -0.2606
28244W        W71297  12.870   2.924  23.693  0.1048 -0.0037  0.3698
28245W        W71298  12.366   8.837  25.718  0.0794 -0.1247  0.0602
28246W        W71299   3.255  29.282   8.619  0.1151 -0.1629 -0.1514
28247W        W71300  20.524  26.428   1.695 -0.4086  0.3124 -0.2120
28248W        W71301  28.116  31.358   6.563 -0.0219 -0.0629  0.0958
28249W        W71302  17.033  24.593   5.886  0.0143 -0.1607 -0.2043
28250W        W71303  31.107  16.980   3.268  0.0542  0.3222  0.0358
28251W        W71304   4.294  28.926   6.345 -0.2018  0.0351  0.1073
28252W        W71305  19.091   0.666  26.374 -0.4317 -0.1503  0.0987
28253W        W71306  11.158   6.278   1.379 -0.1627  0.3645 -0.1432
28254W        W71307  21.977  27.895   7.483  0.1760  0.1578  0.1670
28255W        W71308  30.972  24.545   8.842  0.0901 -0.1844  0.1800
28256W        W71309  12.507  13.477   5.721 -0.1996 -0.1217 -0.0170
28257W        W71310  23.459  26.910   8.839  0.0995 -0.3064 -0.1812
28258W        W71311  29.052  30.379   9.057  0.0288  0.2784 -0.2743
28259W        W71312  24.665   1.040   3.621 -0.1083 -0.3290  0.0893
28260W        W71313  19.715  18.666  27.079 -0.2657  0.0188  0.1003
28261W        W71314  15.911  19.913  22.202 -0.3331  0.1452  0.4343
28262W        W71315  19.877   0.034  20.848  0.0624  0.0679  0.1501
28263W        W71316  16.980  20.462   5.627  0.1651 -0.0696  0.1113
28264W        W71317  20.778  32.167  29.188  0.1146  0.3233  0.1595
28265W        W71318  19.499  33.452   3.743  0.1981  0.0779 -0.2804
28266W        W71319  33.231  28.535  25.450  0.2844  0.0341 -0.0681
28267W        W71320  22.056  30.198  28.906  0.1336  0.1188  0.0794
28268W        W71321  22.782   3.287  27.677  0.2991  0.3343 -0.2791
28269W        W71322  25.202  31.604  20.473  0.2413 -0.3463  0.0037
28270W        W71323   1.804   2.086   9.117  0.1635  0.2765  0.3654
28271W        W71324  14.109  20.793   0.480 -0.0164 -0.0110  0.0367
28272W        W71325  15.503  29.100   6.472  0.0526  0.2318 -0.1178
28273W        W71326  32.934  20.764  28.104  0.2058  0.1542 -0.1391
28274W        W71327  22.095  13.589   9.422 -0.3467  0.1969 -0.3796
28275W        W71328   4.194  32.508   8.991  0.0100 -0.0026 -0.0222
28276W        W71329  23.082  28.023   1.577  0.0744 -0.0693 -0.1369
28277W        W71330  28.850  23.944  27.040  0.1446 -0.0258  0.4150
28278W        W71331   4.147   4.105  22.295  0.0445  0.0244 -0.0585
28279W        W71332  21.739  23.143   8.308  0.2541  0.0761  0.3635
28280W        W71333   5.681   0.633   2.311 -0.3419 -0.3896 -0.1953
28281W        W71334  27.694   0.371  21.046  0.0583  0.0588  0.0169
28282W        W71335  20.988   0.777  20.327 -0.0170  0.2409  0.0802
28283W        W71336  33.206   3.119  29.069  0.2021 -0.0561  0.0952
28284W        W71337  20.353  11.650   1.371  0.0845 -0.1564  0.0603
28285W        W71338  25.253  31.909  28.493 -0.2318  0.3029  0.1856
28286W        W71339  12.519  25.319  23.146  0.0392  0.0608  0.5123
28287W        W71340  13.921  32.061  22.189 -0.2222 -0.1390  0.0510
28288W        W71341  18.805  25.326   8.640  0.2980 -0.1306  0.1073
28289W        W71342  17.143  28.267   5.553  0.1170  0.2927 -0.2587
28290W        W71343  16.178  34.426   1.883 -0.0940  0.0210 -0.2482
28291W        W71344  24.757  24.758   9.696 -0.0143 -0.0291  0.0340
28292W        W71345  19.514  34.478   2.251 -0.1759  0.4995 -0.0707
28293W        W71346  16.459  21.497   7.076 -0.1131  0.1065 -0.0636
28294W        W71347  22.385  32.351  22.070 -0.0069  0.0574  0.0608
28295W        W71348  27.988   7.171   4.156 -0.0254  0.0322  0.2914
28296W        W71349  18.036  29.679   8.858  0.2654  0.1111  0.1149
28297W        W71350  27.393  27.350  10.284 -0.2719 -0.0106  0.1310
28298W        W71351  27.219  12.818  26.225  0.0867 -0.1483 -0.2098
28299W        W71352  18.559  33.844  23.067  0.0841 -0.1079 -0.1324
28300W        W71353  18.210  15.251   1.638 -0.0670 -0.0363  0.2620
28301W        W71354  14.283   1.362   0.668 -0.2090 -0.1665  0.1049
28302W        W71355  25.711  33.612   9.995  0.0623  0.1056  0.3975
28303W        W71356  31.063  32.300   0.613  0.0120  0.1603  0.3286
28304W        W71357  32.185   7.664  27.502  0.1398 -0.2958 -0.1170
28305W        W71358   4.803   5.542  29.063 -0.0316 -0.0086  0.3356
28306W        W71359  22.474  23.548  22.977 -0.1648  0.0751 -0.3813
28307W        W71360  11.461  29.072   1.342 -0.3799 -0.0486  0.2282
28308W        W71361  18.631  33.531   9.425  0.0134  0.0671  0.2715
28309W        W71362  28.667  26.247   7.821  0.0844  0.0020  0.3921
28310W        W71363  19.887   4.775   4.663  0.1456 -0.1400 -0.1359
28311W        W71364  27.777  31.008  28.769  0.0021  0.1601  0.0588
28312W        W71365  15.368   1.177  21.990 -0.0460  0.1030 -0.3185
28313W        W71366   9.419   7.825   3.460  0.1874 -0.1028  0.2126
28314W        W71367  34.202  33.532   5.877 -0.1036  0.1049 -0.2939
28315W        W71368  16.946  29.724   2.098  0.1322  0.1435  0.1002
28316W        W71369  21.332  32.982  15.630 -0.1512 -0.1307  0.2004
28317W        W71370  28.352  27.622   3.076  0.3241  0.1933  0.1891
28318W        W71371   6.144   5.304  13.877 -0.1053  0.2695 -0.3151
28319W        W71372  16.245  12.731  24.121 -0.0869  0.2000 -0.0488
28320W        W71373  19.103  34.455   7.805  0.0380 -0.1781 -0.1577
28321W        W71374  19.508   2.834  15.320 -0.2134  0.2214  0.1295
28322W        W71375  16.914  29.452   0.787 -0.0833  0.1867  0.2580
28323W        W71376  32.886  25.113  16.127 -0.1828 -0.1285 -0.2903
28324W        W71377  32.280   4.755  17.463  0.0852  0.0491  0.0056
28325W        W71378  12.599   3.935  21.914 -0.3166 -0.1620  0.0427
28326W        W71379  18.917  25.926   6.266 -0.1999 -0.2245 -0.1057
28327W        W71380  22.942   4.189   4.208 -0.2020  0.0187 -0.3257
28328W        W71381  20.843   3.790   4.647 -0.0592  0.3332 -0.3071
28329W        W71382  22.508  29.539  21.581 -0.0518 -0.0504  0.0242
28330W        W71383  23.462  12.813   4.549  0.1460 -0.7143 -0.1394
28331W        W71384  32.799   4.186  19.196 -0.2876  0.2358  0.0554
28332W        W71385  10.410  28.227  27.418 -0.1241 -0.1046  0.2762
28333W        W71386   5.941   5.909   9.195 -0.0389  0.3841 -0.3128
28334W        W71387  16.357  28.879   2.071  0.1391  0.0633  0.2441
28335W        W71388  24.954   5.432  20.439 -0.1166  0.0744 -0.3401
28336W        W71389  20.874  23.233   5.836 -0.1190 -0.1615 -0.2002
28337W        W71390  16.222   0.392  28.243  0.1025  0.0765 -0.2056
28338W        W71391  27.872   6.049   8.272  0.1696 -0.2926  0.2808
28339W        W71392  21.630  17.064   8.121  0.4027 -0.0668  0.3885
28340W        W71393   0.585   0.811  14.136  0.2159 -0.2645 -0.1541
28341W        W71394  29.300  27.066   9.152  0.3581 -0.0451  0.1430
28342W        W71395  17.556  26.459   3.100 -0.0225 -0.0852 -0.1118
28343W        W71396   2.947  26.699   8.959  0.0888  0.2353  0.0903
28344W        W71397  16.615  32.620   5.378 -0.1993 -0.1649 -0.2220
28345W        W71398  24.405  32.043   3.767  0.0112  0.0971 -0.0396
28346W        W71399  18.633  25.810   8.472  0.1900  0.2134  0.1302
28347W        W71400  13.923  11.104  28.161  0.0282  0.1709 -0.3068
28348W        W71401  19.400   6.284   6.425 -0.1476 -0.0694  0.1732
28349W        W71402  20.832   6.504   5.323 -0.4183  0.1534  0.2033
28350W        W71403  34.674  30.604   1.159  0.0983 -0.0492 -0.1814
28351W        W71404  25.670  29.040  16.682  0.1131  0.3938 -0.1734
28352W        W71405  29.959  20.697   8.404 -0.0968 -0.4175 -0.0378
28353W        W71406  21.952  10.578   2.869 -0.2375  0.0802  0.0887
28354W        W71407  14.177  34.493  16.786  0.0983  0.1628 -0.0212
28355W        W71408  32.373  29.089   6.200 -0.1087 -0.1262  0.1928
28356W        W71409  27.993  26.232   6.335  0.2073  0.0382  0.1232
28357W        W71410  23.770   5.314  29.087 -0.0575  0.2208 -0.2716
28358W        W71411  19.316  29.471   7.051  0.1115 -0.0205  0.3757
28359W        W71412  13.185  23.067  17.354  0.0890  0.1025  0.1202
28360W        W71413  18.336  27.913  20.069 -0.1561  0.0254 -0.1485
28361W        W71414  29.990  28.746   0.365  0.0944 -0.1132 -0.1793
28362W        W71415  26.959  22.899  28.961 -0.0085 -0.1234 -0.1395
28363W        W71416  16.273  27.044  27.430  0.0131 -0.0337 -0.3821
28364W        W71417  25.042  31.671   3.301  0.2775  0.0283  0.0648
28365W        W71418  31.705   0.390   3.794 -0.1871  0.0331 -0.1607
28366W        W71419  30.166  31.743   4.582 -0.0429  0.1585 -0.2092
28367W        W71420   8.268  33.785   1.002  0.1276 -0.2283 -0.0363
28368W        W71421  24.436  34.283  29.133  0.1528 -0.2249  0.3053
28369W        W71422  29.532  29.638   9.175 -0.0888  0.1947 -0.2551
28370W        W71423  30.419  30.295  24.578  0.0136  0.2959  0.1398
28371W        W71424  16.807  32.585   2.708 -0.0977 -0.1912 -0.0466
28372W        W71425  15.769  14.408  10.416 -0.0356 -0.0695 -0.1763
28373W        W71426  24.404   0.121   4.681  0.1114  0.0324  0.1496
28374W        W71427  22.680  12.562   9.603  0.1680  0.1310 -0.1500
28375W        W71428  22.656  30.296   9.981  0.0346 -0.2386 -0.0638
28376W        W71429  33.567  28.525   5.655  0.1281 -0.3747  0.0977
28377W        W71430  31.257  23.441   3.002 -0.0764 -0.1585  0.1281
28378W        W71431  31.357   8.896   1.102 -0.1114  0.2300  0.2965
28379W        W71432  27.948  28.879   6.489  0.0305 -0.0149  0.0412
28380W        W71433  20.762  12.123   7.548 -0.0187  0.2941  0.1804
28381W        W71434  15.811   2.400   2.620  0.2559  0.2576  0.1747
28382W        W71435  23.158  34.049  18.766  0.0471 -0.1055  0.0197
28383W        W71436   1.955   5.836   5.019  0.0449  0.0362  0.1425
28384W        W71437  11.123  14.819   3.252 -0.4392 -0.0444  0.1012
28385W        W71438   7.226  30.043   0.117 -0.0974  0.1858 -0.3952
28386W        W71439  22.274  31.085   5.666 -0.2587 -0.3354 -0.1821
28387W        W71440  10.905  24.884   7.502  0.0963  0.1214  0.0927
28388W        W71441  28.439  31.283   8.292 -0.2071 -0.0164 -0.3834
28389W        W71442  19.689  33.932  17.408 -0.2713  0.1281 -0.3202
28390W        W71443  19.626   8.210  21.690 -0.1987  0.2058  0.0445
28391W        W71444  14.852  28.250   1.036  0.2782 -0.0619  0.5179
28392W        W71445   9.662  31.364   6.274  0.0661  0.2493  0.2166
28393W        W71446  30.532  25.749   6.927  0.0039  0.0686 -0.2438
28394W        W71447  13.801  14.562  10.347 -0.0859  0.0548  0.1517
28395W        W71448   2.386  32.491   8.305 -0.1856 -0.0609 -0.1458
28396W        W71449  34.201  29.368  27.624  0.1777 -0.2098 -0.1952
28397W        W71450  23.354  20.818   6.228 -0.1405  0.1140  0.0630
28398W        W71451  13.407  11.564  26.288 -0.1882 -0.2300 -0.0883
28399W        W71452  29.892  28.510   3.500  0.0117 -0.0173  0.1016
28400W        W71453  25.588  33.279  20.050 -0.1426  0.0634 -0.0030
28401W        W71454  18.014  16.015  25.937  0.0081 -0.1458 -0.0308
28402W        W71455  22.337   1.957   1.329  0.1268  0.0283 -0.2295
28403W        W71456  20.217  31.595   4.933 -0.1652 -0.0055  0.1822
28404W        W71457  12.320  24.246  21.348  0.1634  0.0215 -0.2146
28405W        W71458   7.476  26.322  23.146 -0.1856  0.3408 -0.2865
28406W        W71459  18.605   8.658   7.725 -0.2870 -0.0138  0.0953
28407W        W71460  31.571   5.695   2.346  0.0049 -0.0973 -0.1281
28408W        W71461   6.428  27.489   7.370 -0.0278  0.0785  0.1727
28409W        W71462  18.909  22.774  26.354  0.1778  0.0993  0.2197
28410W        W71463   5.852  27.814  25.145 -0.3039  0.0262 -0.2041
28411W        W71464   0.987   2.633   0.215 -0.3454 -0.1507  0.2806
28412W        W71465   0.010   6.555  14.782 -0.0046 -0.1293 -0.0325
28413W        W71466  31.848   0.621   8.250 -0.1634  0.1008  0.1904
28414W        W71467  20.239  33.143   3.984 -0.0980  0.1292 -0.1681
28415W        W71468   6.752  30.831   0.130  0.0442  0.2660  0.0398
28416W        W71469   7.513  20.738   3.127  0.0990  0.0404 -0.2017
28417W        W71470  20.171  29.522  23.865  0.1318 -0.1613 -0.0435
28418W        W71471  23.330  17.742   4.893 -0.0534  0.4106 -0.1099
28419W        W71472  24.227  32.417   8.734  0.0239 -0.0073 -0.1857
28420W        W71473  32.889   2.916  24.120  0.0415 -0.1655 -0.4212
28421W        W71474  13.638   1.234   0.328 -0.1312 -0.1620  0.0965
28422W        W71475  26.526  23.663   5.258  0.0131  0.4641 -0.0640
28423W        W71476  13.859  19.601   4.744  0.0405  0.0464  0.1061
28424W        W71477   6.884  27.802   4.007 -0.1698 -0.0486  0.1299
28425W        W71478  21.164  29.193   2.522  0.2842  0.0156 -0.1552
28426W        W71479   1.121  27.399   5.180  0.0739 -0.1953  0.4400
28427W        W71480  24.109  27.495   6.816 -0.3623  0.3580  0.2739
28428W        W71481  23.542  27.999   9.025  0.2599  0.2662  0.0369
28429W        W71482  24.880  30.412   4.034 -0.1903  0.1536 -0.1803
28430W        W71483   2.542  26.246   4.561 -0.2313  0.0556  0.1588
28431W        W71484  26.018   4.126  19.263 -0.2615  0.2369 -0.1038
28432W        W71485  25.365   9.810  19.008  0.1704  0.2962 -0.1437
28433W        W71486   0.531   1.021   6.286 -0.0390 -0.1582 -0.2281
28434W        W71487  10.108  23.138   1.527  0.1911  0.0446  0.2241
28435W        W71488   4.053  15.764   2.094 -0.0813  0.0537  0.2320
28436W        W71489  20.911  22.721   9.662 -0.0870  0.2214  0.0727
28437W        W71490  14.491  13.882   5.483 -0.3062 -0.0278 -0.0574
28438W        W71491   4.342  18.883  24.653 -0.0778 -0.1331 -0.0169
28439W        W71492  29.909   2.179  24.822 -0.0337 -0.1511 -0.0865
28440W        W71493  24.421  33.791   7.725 -0.0413  0.3099 -0.0024
28441W        W71494  19.382   6.789  22.653 -0.1601  0.2941  0.1054
28442W        W71495   7.708  31.906   5.057  0.1837 -0.0544 -0.0834
28443W        W71496  23.526  30.794  18.513 -0.0488 -0.0831  0.1256
28444W        W71497  29.491   6.115   1.677 -0.0178 -0.0193  0.0071
28445W        W71498  29.741  15.157  18.820  0.0888  0.0182  0.0804
28446W        W71499   5.176   9.918   5.897 -0.0658  0.3423 -0.1510
28447W        W71500   3.995   2.428   7.232  0.1334  0.0442 -0.2264
28448W        W71501  25.787   9.373  20.959 -0.1253  0.1366 -0.0349
28449W        W71502   7.664  25.034  27.159  0.0633  0.3765 -0.4885
28450W        W71503  17.404   2.449   2.053 -0.0045  0.3762  0.2984
28451W        W71504  22.178  10.365   3.712  0.0305  0.3000  0.1344
28452W        W71505  30.387  30.582   8.746 -0.1333  0.1811  0.1564
28453W        W71506   8.342  27.740  28.006 -0.2350 -0.0171  0.1353
28454W        W71507  27.101   6.472   6.905 -0.0936  0.1795 -0.0350
28455W        W71508  21.035  18.249  29.143 -0.2019 -0.2124 -0.0695
28456W        W71509  20.344  26.952  11.074  0.0967 -0.0901 -0.1801
28457W        W71510  19.983  26.902   5.784 -0.0266  0.0185  0.0707
28458W        W71511  13.653   6.881   1.807 -0.2559  0.3218 -0.0595
28459W        W71512  33.437  16.451  23.110 -0.0055  0.3417 -0.1414
28460W        W71513  29.736  20.118  23.837  0.2191 -0.1694  0.1459
28461W        W71514  21.277  26.979   4.580  0.1525  0.3432 -0.4623
28462W        W71515  26.474   0.128   4.172 -0.2300  0.1616  0.3414
28463W        W71516   3.480  30.684   5.741 -0.0248 -0.1910  0.0125
28464W        W71517  23.438   0.206  24.026 -0.1195  0.0624  0.2565
28465W        W71518  29.310   3.255   5.196 -0.2005 -0.0252  0.1667
28466W        W71519  22.098  32.955   0.130 -0.1478  0.1439 -0.1942
28467W        W71520  24.261   9.154   4.293  0.0269 -0.3042 -0.0090
28468W        W71521  21.680  21.751   6.145 -0.1393  0.1205 -0.2002
28469W        W71522  21.562  16.563  26.458  0.0519  0.0033 -0.1828
28470W        W71523  14.404  32.630   6.617 -0.1544  0.0048 -0.0908
28471W        W71524  16.803  31.339   9.627 -0.2070 -0.0343  0.0280
28472W        W71525   2.484   5.851   1.976 -0.2796 -0.0634  0.1829
28473W        W71526  24.888  25.717   3.596 -0.1604  0.0745 -0.1003
28474W        W71527  22.897  22.676   0.546  0.0802 -0.2270 -0.2843
28475W        W71528  24.534  23.648   9.891 -0.2024  0.1869  0.0399
28476W        W71529  31.741  32.085  14.709  0.1365 -0.0226 -0.0779
28477W        W71530  20.478  30.864   4.355 -0.1417  0.2882  0.0160
28478W        W71531  11.094  22.646   6.067  0.2494 -0.3436  0.0113
28479W        W71532  25.201  17.540   4.319  0.1853  0.1134 -0.3192
28480W        W71533  34.372  23.046  23.538  0.2246 -0.1754 -0.3669
28481W        W71534  13.067  28.934  28.216  0.0186  0.1773 -0.1151
28482W        W71535  17.990  30.933  27.094  0.0534 -0.0325  0.1538
28483W        W71536  29.274  28.495  25.943  0.0533  0.2647 -0.3099
28484W        W71537  23.748   6.290   4.546 -0.0491  0.3034 -0.0552
28485W        W71538   1.339  26.832   5.856  0.1162  0.1288  0.0374
28486W        W71539  24.753  20.816   9.656  0.1190 -0.0868  0.1587
28487W        W71540  27.805  24.082   2.303 -0.1636  0.0986  0.4081
28488W        W71541   3.502   3.030   7.071 -0.3611 -0.1349 -0.1848
28489W        W71542  33.241  33.352   1.890 -0.1031 -0.1073  0.1982
28490W        W71543  20.410  10.425  15.449  0.2805 -0.0193  0.0053
28491W        W71544  24.726  29.694  22.568 -0.0205  0.0775  0.0301
28492W        W71545  28.143  30.979   6.867 -0.0554  0.0672  0.1486
28493W        W71546  20.771   4.234   6.383  0.0879 -0.3496  0.0913
28494W        W71547  23.833  19.075  21.317 -0.1172  0.0286 -0.0486
28495W        W71548  28.011  24.940   6.758 -0.0316 -0.1826  0.0263
28496W        W71549  18.580  22.603   6.555 -0.2626  0.1524  0.0593
28497W        W71550  20.453   4.673   3.330 -0.2426 -0.0347  0.2787
28498W        W71551  26.988  30.393  25.590  0.0773  0.3088 -0.1277
28499W        W71552  30.210  27.213  20.239 -0.0142 -0.0232 -0.0807
28500W        W71553  14.505  24.928   5.161  0.1905  0.1997 -0.0838
28501W        W71554  26.822  26.815   0.258  0.0567 -0.0170 -0.1273
28502W        W71555  25.842  21.865  10.532 -0.4761  0.0901 -0.0821
28503W        W71556  24.602  32.873   6.336 -0.0874 -0.2684  0.1513
28504W        W71557  34.416  29.155   4.391 -0.0320 -0.1451  0.2349
28505W        W71558  32.565  10.302  10.493  0.0136  0.1299  0.2196
28506W        W71559  18.706   3.325  22.252  0.1531 -0.1357 -0.0716
28507W        W71560  18.457  26.271   8.128  0.4590 -0.0114  0.1501
28508W        W71561   0.564  16.150   8.674  0.1657 -0.1130  0.2050
28509W        W71562  27.011   7.982  10.227  0.1333 -0.2275 -0.0609
28510W        W71563  21.734   7.427   5.095 -0.0573  0.1774 -0.2354
28511W        W71564  31.754   0.525   4.783  0.2781  0.2727 -0.2880
28512W        W71565  30.006  16.163  24.263 -0.1213 -0.0978  0.1703
28513W        W71566  12.749  31.042   4.208 -0.2419 -0.1145 -0.0952
28514W        W71567  32.035  21.434   0.553  0.1206  0.0567 -0.0716
28515W        W71568   4.491  21.366   5.203  0.1867 -0.2838  0.1597
28516W        W71569  12.856  31.696  25.917 -0.1048  0.0796 -0.0092
28517W        W71570  26.091  34.673   3.921 -0.0848 -0.1705  0.0848
28518W        W71571  14.859  24.920  18.914  0.1093 -0.1616  0.1601
28519W        W71572  10.697   1.396   0.297 -0.1902 -0.3236  0.1658
28520W        W71573  34.268  23.735  25.253 -0.2210 -0.1757  0.1568
28521W        W71574   0.506  32.346  26.638  0.1851 -0.0611  0.0196
28522W        W71575  25.212  26.518   9.956  0.0313 -0.2867  0.1938
28523W        W71576  25.704   7.922   2.123  0.2089 -0.0715 -0.1884
28524W        W71577  20.839  21.135   3.900  0.2104 -0.2751  0.0167
28525W        W71578  25.885  33.016   1.831 -0.0471 -0.3339  0.3174
28526W        W71579   1.497  11.112   3.318 -0.1458  0.2125 -0.0596
28527W        W71580  29.018   7.094  21.678  0.3927  0.1469  0.2913
28528W        W71581  29.776   2.248   7.684  0.0057  0.2601  0.0258
28529W        W71582  17.025   2.913  10.073  0.0327 -0.2733  0.1598
28530W        W71583  20.186   4.256   7.917  0.1782 -0.0762  0.2690
28531W        W71584  29.435   0.726   2.070 -0.3998 -0.0870 -0.2819
28532W        W71585  26.459  14.254   4.555 -0.3046 -0.0051  0.1095
28533W        W71586  14.357  21.922   8.515  0.0338  0.0474  0.0800
28534W        W71587  10.326   4.328   1.341  0.2151 -0.1293  0.1468
28535W        W71588   6.992  20.472  21.394  0.4089 -0.0466  0.0013
28536W        W71589  34.341  13.979  25.800  0.1158  0.0248 -0.0166
28537W        W71590  26.121  19.283  29.122  0.0744  0.0251 -0.2997
28538W        W71591  22.339  32.872   8.694  0.1756  0.0756 -0.1979
28539W        W71592  26.317   1.820  24.493 -0.1944 -0.4074 -0.0943
28540W        W71593  19.862  22.427   6.208 -0.3140 -0.1100 -0.1382
28541W        W71594  23.717   2.836   8.623 -0.3483  0.4378  0.3133
28542W        W71595  30.514  23.086  25.913 -0.0668  0.0577 -0.3189
28543W        W71596  16.447  30.901  21.576  0.0290  0.0164 -0.1250
28544W        W71597   2.427   3.760   6.368  0.0842  0.0451 -0.2087
28545W        W71598  19.489  21.373   8.749  0.1225  0.2979 -0.1432
28546W        W71599  27.110  16.271  19.738  0.1332 -0.0227  0.0637
28547W        W71600  22.175  12.026   9.445 -0.1474 -0.0712 -0.0240
28548W        W71601  10.240  33.865  24.309  0.1424  0.0507  0.0730
28549W        W71602  31.841  26.117   3.686  0.1229  0.1132  0.0403
28550W        W71603  11.931   7.558  23.716 -0.0975 -0.1456 -0.2577
28551W        W71604  27.614  27.320   8.932  0.0080 -0.1331 -0.0028
28552W        W71605   4.936  34.064   5.477 -0.1536  0.1108 -0.0086
28553W        W71606  23.900  29.213  26.033  0.3783 -0.4379  0.1765
28554W        W71607  22.810   3.388   8.595 -0.3205  0.1758  0.2084
28555W        W71608  21.745  21.620   8.497  0.1397 -0.0244  0.1640
28556W        W71609  20.655  31.477   5.735  0.2536 -0.1012 -0.0518
28557W        W71610   9.236  29.966   0.114 -0.0231 -0.1331 -0.2582
28558W        W71611   1.224   7.676   2.853  0.3660  0.1578  0.0493
28559W        W71612  15.978  20.457   9.277  0.0800 -0.0508  0.3713
28560W        W71613   2.961  12.003   0.523  0.0094  0.2344 -0.0191
28561W        W71614  24.529  19.069   5.769 -0.0367  0.4132 -0.2211
28562W        W71615  30.962  29.021   4.792  0.1665 -0.0628  0.1853
28563W        W71616  23.036  21.281   7.729 -0.1389 -0.2446  0.5849
28564W        W71617  31.492  13.391   6.101  0.1161  0.4611 -0.1079
28565W        W71618  17.543  17.626   6.774 -0.1856 -0.0608 -0.1266
28566W        W71619  17.418  34.346   6.328 -0.0656  0.3524  0.0223
28567W        W71620  22.125  33.700   2.333 -0.0877 -0.3959  0.0309
28568W        W71621  22.417  31.781  25.464  0.0529 -0.1782  0.4435
28569W        W71622   7.566  18.067   9.273 -0.1356  0.0258 -0.1095
28570W        W71623  25.295  25.433  25.306 -0.0596 -0.3178  0.1527
28571W        W71624  15.278   3.951   9.234  0.0827  0.1845 -0.0986
28572W        W71625  10.453   3.057   0.958  0.1355  0.1256  0.2544
28573W        W71626  13.806  29.582   1.332 -0.0465  0.1768  0.0751
28574W        W71627  13.619   5.469  29.186 -0.1175 -0.2972  0.0284
28575W        W71628  22.594  22.718   6.551 -0.2917 -0.2421  0.0710
28576W        W71629  31.919  11.405   4.768 -0.0058 -0.1939 -0.0527
28577W        W71630  20.852   0.446  22.758 -0.2274 -0.1986 -0.2064
28578W        W71631  22.809  13.654   2.624 -0.0301  0.2113  0.1493
28579W        W71632  28.498  29.198   8.668  0.0684  0.0741 -0.2882
28580W        W71633  22.193   4.918   9.727 -0.1166 -0.4391 -0.2757
28581W        W71634  26.176  17.913  28.044  0.0368 -0.1411 -0.2230
28582W        W71635  19.234   8.100  10.647  0.0444 -0.2292  0.1848
28583W        W71636  15.195  22.087   9.275 -0.3479 -0.2540 -0.0380
28584W        W71637  20.459   3.375   7.495 -0.2102 -0.0849 -0.1945
28585W        W71638  11.498  25.664  27.905  0.3124  0.0226  0.1043
28586W        W71639  12.459  15.985   4.497 -0.0074 -0.1539  0.3132
28587W        W71640  22.733  34.077  25.520 -0.2565  0.0684 -0.1973
28588W        W71641  29.938  25.258  27.443  0.0516  0.0190  0.0760
28589W        W71642  27.998  13.918   5.294  0.2331 -0.1826  0.0375
28590W        W71643  18.678  32.588   7.528 -0.2427 -0.1163 -0.0797
28591W        W71644  27.440   6.669   9.635  0.0817 -0.0224  0.2142
28592W        W71645  33.834  23.029   1.516 -0.0059 -0.1853 -0.1365
28593W        W71646  24.070  29.039   4.498  0.0008  0.2036  0.2647
28594W        W71647  13.717  20.479   9.686 -0.0576 -0.2514 -0.2596
28595W        W71648   6.489  26.607   2.778 -0.0054 -0.0089  0.1795
28596W        W71649  33.211   4.387   9.857 -0.0868  0.3171  0.0354
28597W        W71650  17.787  21.466  21.396 -0.2583 -0.2265 -0.4319
28598W        W71651  11.309  25.550  24.558 -0.1177  0.0362  0.0034
28599W        W71652  18.918  16.457  28.154  0.3158 -0.0686  0.1336
28600W        W71653  22.819   8.044   6.385 -0.2491 -0.0234  0.1119
28601W        W71654  28.973   6.524   3.167 -0.0357 -0.0188 -0.2065
28602W        W71655  25.931   9.060  14.595  0.3457 -0.0804  0.1135
28603W        W71656  14.680   4.375   2.856  0.0105 -0.2351  0.0387
28604W        W71657  34.269   3.285   3.799 -0.2293  0.0695  0.0360
28605W        W71658  20.374  20.554  10.395 -0.3097 -0.2336  0.0825
28606W        W71659   2.940  18.340   8.322 -0.0103 -0.3393  0.2367
28607W        W71660  23.398   3.339  10.430 -0.3732 -0.3255  0.0269
28608W        W71661   1.392   5.878  25.273  0.4608 -0.1438 -0.0435
28609W        W71662  16.974   0.031  21.878 -0.3054  0.0300  0.3307
28610W        W71663  14.150  23.418   1.925 -0.1840 -0.3482 -0.0822
28611W        W71664  21.891   4.025   9.506 -0.0805  0.0782  0.1923
28612W        W71665   4.320  23.986   2.059 -0.1459  0.3243 -0.2941
28613W        W71666  22.118  30.281   0.276 -0.0075  0.4308  0.1128
28614W        W71667   1.659   6.628   7.632 -0.0194  0.1982 -0.0350
28615W        W71668  18.739  21.347  24.186  0.1149  0.0963  0.3157
28616W        W71669  21.246   2.867   0.931 -0.1411  0.0256  0.0581
28617W        W71670   8.846  30.360  22.457 -0.0420 -0.2928 -0.0876
28618W        W71671  23.942  29.989  10.798  0.0024  0.3604  0.0664
28619W        W71672  12.575  10.983   6.935 -0.0647  0.0511  0.2477
28620W        W71673  14.283   3.082   7.687 -0.1838  0.0906 -0.1282
28621W        W71674  16.545  19.297  26.772  0.1071 -0.0922 -0.1665
28622W        W71675  34.017  32.250   6.007  0.1679 -0.0205 -0.0196
28623W        W71676  16.307  29.924  25.939  0.1073  0.0477 -0.1587
28624W        W71677  18.911  33.121   9.315  0.1431  0.2092 -0.4489
28625W        W71678  20.527   9.129  27.448  0.0570 -0.0478 -0.2005
28626W        W71679  15.845  30.263   8.736 -0.3425  0.0005 -0.1171
28627W        W71680   0.099   7.000  27.849 -0.2001  0.1258  0.1225
28628W        W71681  26.727   5.985   8.749 -0.1892 -0.0089 -0.3107
28629W        W71682  30.418  24.644   7.530 -0.2832  0.0209 -0.0488
28630W        W71683  23.509  25.498   8.228  0.2444 -0.4159  0.1150
28631W        W71684  31.492  14.247   5.611  0.1433 -0.2577 -0.1877
28632W        W71685   4.753  22.453   1.748  0.1273 -0.0473  0.0294
28633W        W71686  23.066   6.353   2.612  0.0814  0.1286 -0.0769
28634W        W71687  12.454  30.367  27.314 -0.0347  0.2113  0.2853
28635W        W71688  30.454   2.154  27.698  0.0297  0.3633  0.1904
28636W        W71689  23.772  33.002  21.621  0.0033  0.1817 -0.0040
28637W        W71690  27.791   7.244   2.346 -0.1417 -0.0556  0.1632
28638W        W71691  27.460   4.527   4.473 -0.0743 -0.2267 -0.2985
28639W        W71692  18.358  27.378   6.044  0.0872 -0.0254  0.1130
28640W        W71693  33.579   3.387   8.420  0.1673 -0.0778 -0.0575
28641W        W71694   1.676  22.923  25.327  0.1041  0.1829 -0.0868
28642W        W71695  10.941  14.512  10.184  0.4258  0.3799  0.0966
28643W        W71696  24.091  28.101   8.268  0.0281 -0.0092 -0.1545
28644W        W71697  33.846  32.417   1.161 -0.1084  0.4349 -0.3337
28645W        W71698  30.534   3.057   0.064  0.0252  0.1175  0.0368
28646W        W71699  26.741  33.288   5.013  0.4520 -0.2139 -0.0893
28647W        W71700  15.175  15.522   7.620  0.0736  0.3842 -0.0219
28648W        W71701  13.261  18.784  20.420  0.0439  0.1087  0.0979
28649W        W71702  18.774  29.379   7.990 -0.0581  0.1847  0.1209
28650W        W71703   5.641  24.102  17.135  0.1447  0.1697 -0.0835
28651W        W71704   5.152  16.923  22.538 -0.1442  0.1718  0.0790
28652W        W71705  24.841  24.265  24.960 -0.1485 -0.3494  0.2168
28653W        W71706  22.117  31.881  10.043  0.0088 -0.1432 -0.0972
28654W        W71707  19.936   7.269   7.785 -0.1390  0.0672 -0.0882
28655W        W71708  18.981   0.622  14.851 -0.1676 -0.1366  0.3748
28656W        W71709   6.409  30.343  15.074  0.1632  0.0465 -0.1223
28657W        W71710   2.613  28.103   3.532 -0.5666  0.0680 -0.1849
28658W        W71711  28.271  29.951   9.654 -0.1872 -0.3963 -0.0172
28659W        W71712  18.616  30.617  25.141 -0.0904  0.0617 -0.3595
28660W        W71713   1.026  24.972   9.669 -0.0731 -0.2567 -0.0537
28661W        W71714  16.174  22.269   3.622 -0.1920 -0.1279 -0.1065
28662W        W71715  32.652   4.375   1.075  0.1076 -0.0364 -0.1574
28663W        W71716  19.856  27.730  26.986 -0.2915  0.0031 -0.1213
28664W        W71717  21.314  34.415   9.268 -0.1496  0.2626  0.0686
28665W        W71718  33.853  10.366   4.140  0.1298  0.1905 -0.1830
28666W        W71719  20.702  30.892  26.096 -0.1086  0.2810  0.0671
28667W        W71720  31.587   4.876  23.400  0.0346  0.0510  0.0855
28668W        W71721  21.185  12.441   2.896  0.3310 -0.3016  0.0292
28669W        W71722  27.597   2.970   4.571  0.0133 -0.0563 -0.1178
28670W        W71723  23.897  19.976   3.780 -0.1658 -0.1312 -0.1331
28671W        W71724  22.834   3.267   9.146 -0.0449 -0.0175 -0.1509
28672W        W71725  22.488  29.646  26.949 -0.0603  0.1605  0.0650
28673W        W71726  22.798  26.831  25.650 -0.0413  0.0552  0.3423
28674W        W71727  22.836  24.523  10.449 -0.0933  0.2240 -0.2724
28675W        W71728  19.499   4.591   3.163 -0.2436 -0.0288  0.0869
28676W        W71729   5.925  10.494   9.377  0.0841  0.2134  0.0288
28677W        W71730  23.213  34.578   3.229 -0.4529 -0.0888  0.0336
28678W        W71731  27.036  32.310  26.601  0.0727 -0.1869  0.2443
28679W        W71732  11.734  25.494  24.880  0.1487  0.0030  0.0739
28680W        W71733  21.537  25.754   2.430 -0.1049  0.0859 -0.1588
28681W        W71734  19.150  30.794  20.151  0.3259  0.1255  0.1440
28682W        W71735  17.163  25.081   1.374  0.1852 -0.1684 -0.1505
28683W        W71736  18.261  32.415   6.433  0.2282  0.1013  0.2310
28684W        W71737  28.055  32.802  24.165  0.1737  0.1578  0.2718
28685W        W71738  29.520  29.421   4.499 -0.2374  0.0594  0.5335
28686W        W71739  19.127   2.669   0.731  0.1116 -0.0393  0.0178
28687W        W71740  20.198  28.061  21.682  0.0772 -0.1949  0.0386
28688W        W71741   7.853  20.493  28.933 -0.1669  0.0266  0.2681
28689W        W71742  21.713  22.474   8.972 -0.2169  0.2671  0.0854
28690W        W71743  12.411   2.363  20.202  0.1599  0.1133 -0.2117
28691W        W71744  19.883  23.495  27.067 -0.3813  0.1302 -0.1132
28692W        W71745  22.270  29.530   8.764  0.3064  0.2956  0.0588
28693W        W71746  15.579  25.421   5.216 -0.1201 -0.0106 -0.0628
28694W        W71747  28.348   0.802   2.251  0.1143 -0.0527 -0.3028
28695W        W71748  31.063  27.016   1.541 -0.0539  0.1122  0.0660
28696W        W71749  13.593  12.621   2.024 -0.1345  0.0672  0.0215
28697W        W71750  32.539  20.885  22.071 -0.1247 -0.3195 -0.2127
28698W        W71751  10.872   4.011   8.551  0.2685 -0.1296 -0.1734
28699W        W71752  15.150  25.829   8.254 -0.2404  0.3177 -0.2187
28700W        W71753  14.709  28.751   2.830 -0.0574 -0.1464 -0.1011
28701W        W71754  18.944  22.013   8.300  0.0652  0.1303  0.1056
28702W        W71755  19.624   2.823   8.937 -0.0755 -0.0001 -0.1759
28703W        W71756  10.723  19.783   3.761 -0.1308  0.1530  0.0575
28704W        W71757  22.962  22.709   7.423  0.1017  0.0765  0.1000
28705W        W71758  26.189   2.564  27.680  0.0133  0.0850  0.1883
28706W        W71759  16.974   1.103  21.256 -0.1243 -0.0991 -0.4515
28707W        W71760  14.285  17.618  27.167  0.2138  0.0540 -0.1582
28708W        W71761   7.075  19.878  26.747 -0.1131  0.0448  0.0064
28709W        W71762  19.352  27.188  26.934  0.2322 -0.1983  0.1044
28710W        W71763  22.702   0.419  23.609 -0.3177  0.0311 -0.0040
28711W        W71764   4.060   7.154  19.534 -0.3787  0.0550 -0.3769
28712W        W71765  23.829  14.799   4.768 -0.2748 -0.1085 -0.1860
28713W        W71766  30.156   1.977   7.918 -0.1343  0.0158  0.3305
28714W        W71767  19.440  33.018   5.044 -0.1123  0.1339  0.1083
28715W        W71768  24.145   1.492   4.378 -0.1390  0.0484 -0.0236
28716W        W71769  18.222   6.155   0.547  0.4058  0.1247 -0.3925
28717W        W71770  26.666   8.474   2.051  0.2313 -0.1862  0.2997
28718W        W71771  31.889   5.712  20.491  0.2062 -0.3449 -0.1689
28719W        W71772  23.915  30.395   8.038  0.3223 -0.2294 -0.0012
28720W        W71773  20.466  19.721  27.705 -0.0597  0.2483  0.0925
28721W        W71774  26.760  23.142   6.545  0.0527 -0.2923  0.3732
28722W        W71775  18.279  31.489   3.682  0.2639 -0.0338  0.3893
28723W        W71776  13.963   8.355   9.425 -0.3830  0.2158 -0.2053
28724W        W71777  19.379  30.174   0.857  0.3424  0.1302  0.2572
28725W        W71778  32.328   2.025   6.361  0.3284  0.2807 -0.1003
28726W        W71779   5.520  34.624   3.825 -0.2598 -0.1024 -0.1698
28727W        W71780  17.496  17.851   4.902  0.1219  0.2616 -0.6667
28728W        W71781   0.837  30.942   9.377  0.0236  0.1954  0.0244
28729W        W71782   6.407  33.481   6.235  0.0686 -0.1647 -0.0233
28730W        W71783  23.974   2.977   7.168  0.1190 -0.1021 -0.2251
28731W        W71784  25.180  31.456   0.968 -0.1638 -0.1066  0.0000
28732W        W71785  32.028  16.548   5.443  0.4766 -0.1154  0.1603
28733W        W71786  30.498  14.128   4.545 -0.0018  0.2625  0.2188
28734W        W71787  30.388  20.366   9.052 -0.1750 -0.0319  0.2397
28735W        W71788  18.211  10.719   1.818 -0.0112 -0.3117  0.1572
28736W        W71789  18.808  33.862   6.296  0.1465 -0.0729  0.0154
28737W        W71790  24.598   0.426  28.019 -0.1250 -0.1951  0.1126
28738W        W71791  24.990  17.668   9.381  0.2772 -0.0552 -0.0882
28739W        W71792   8.486  16.026   6.927 -0.1293  0.1410 -0.0365
28740W        W71793  33.247  18.944   6.499 -0.1417 -0.2560 -0.3151
28741W        W71794  19.115  19.402  28.000 -0.4317  0.1263  0.3972
28742W        W71795  27.117  19.459  28.226  0.0050  0.0856  0.2614
28743W        W71796   3.496  24.163  27.424  0.0936 -0.2917 -0.0151
28744W        W71797  29.270   5.213   2.112  0.0282 -0.1054 -0.0597
28745W        W71798  24.947   2.211  24.691 -0.3767 -0.1123 -0.2167
28746W        W71799  23.949   1.740  20.948  0.2330  0.0753  0.0103
28747W        W71800  17.288  10.428   8.294 -0.0952 -0.1681 -0.1004
28748W        W71801  14.489   2.556   3.937  0.1740 -0.2325  0.0105
28749W        W71802  34.378   2.460   8.770 -0.0834 -0.0268 -0.0278
28750W        W71803  26.608   0.080   3.274  0.2004 -0.1072  0.3151
28751W        W71804  19.183  31.587   6.095 -0.1635  0.2418 -0.0943
28752W        W71805  18.522  33.765  28.895 -0.1823 -0.1275 -0.2032
28753W        W71806   2.293   2.886   7.573 -0.2868  0.0925  0.0895
28754W        W71807  18.904  25.608  28.560  0.0815 -0.1555 -0.1648
28755W        W71808  28.607   6.528   3.484  0.1497 -0.3346 -0.1591
28756W        W71809  23.271   6.513   1.482  0.1568  0.0702  0.3038
28757W        W71810  25.960   4.665   9.153 -0.0195  0.0419 -0.1730
28758W        W71811  31.504  33.062   2.256  0.1848 -0.0213  0.0021
28759W        W71812  29.804  12.327  16.628  0.3437  0.0175  0.2682
28760W        W71813  26.783  28.924   1.698 -0.2305  0.1017 -0.1008
28761W        W71814  19.201  18.847  23.084  0.1939 -0.0592  0.0604
28762W        W71815  26.614  12.671   5.582 -0.2570  0.0789  0.0258
28763W        W71816  30.164  33.439  26.834  0.1796  0.2498 -0.0104
28764W        W71817  28.814   0.550   0.174 -0.0512  0.0666  0.0820
28765W        W71818  23.893   0.566  27.366 -0.1425  0.1690  0.1732
28766W        W71819  17.682  20.176   2.848  0.0258 -0.1654 -0.1353
28767W        W71820  32.789  30.330   7.493 -0.1460  0.0303 -0.1962
28768W        W71821  23.604   1.620   8.637  0.1322  0.2444  0.3601
28769W        W71822   2.336  11.056  28.246  0.1369 -0.1284  0.0339
28770W        W71823   9.359  31.492   7.987 -0.2878  0.0339 -0.3027
28771W        W71824  14.103  32.228   9.352  0.1331 -0.0501  0.5321
28772W        W71825  11.819  24.853   7.579  0.1815 -0.2589  0.0319
28773W        W71826   8.920  23.918   5.039  0.0538  0.3399  0.1271
28774W        W71827  22.358  27.746   3.010  0.1313  0.1060 -0.0347
28775W        W71828  24.561  30.296  24.577  0.0159  0.0751  0.0536
28776W        W71829  25.372  30.420   7.932 -0.0095 -0.0935  0.0354
28777W        W71830   4.379  15.682   0.632  0.0147  0.2049 -0.0233
28778W        W71831  19.801  32.382  25.078  0.2075  0.1165  0.3249
28779W        W71832  11.324  27.887   3.243 -0.1437  0.2298  0.1758
28780W        W71833  23.833  19.835  28.148 -0.1986 -0.3322  0.2425
28781W        W71834  23.551  32.514   3.661 -0.0460  0.1621  0.2812
28782W        W71835  25.247  14.714  28.684  0.1339  0.0235  0.1006
28783W        W71836  27.174  24.299   6.173  0.0673 -0.0629 -0.2011
28784W        W71837  24.184  34.399  28.487 -0.2212 -0.0085  0.0740
28785W        W71838   1.170  28.928   0.660  0.5039 -0.1210 -0.1247
28786W        W71839  24.593  28.491   5.675 -0.0693  0.0405 -0.0244
28787W        W71840  15.505  24.631   2.802 -0.0406  0.0277 -0.1772
28788W        W71841  17.992   2.421  28.230 -0.0507  0.1183  0.1510
28789W        W71842   2.514   2.690   9.311 -0.0607  0.2110  0.4021
28790W        W71843  30.079  32.848   1.464  0.3704  0.0280  0.0794
28791W        W71844  17.091   1.846  28.475 -0.0211  0.0817 -0.0868
28792W        W71845  20.027   1.885  23.798 -0.2685 -0.2018  0.2019
28793W        W71846  16.133   8.462   6.478  0.0498  0.0263  0.1709
28794W        W71847  16.541  26.065   2.653  0.1368 -0.1850  0.4192
28795W        W71848  22.995  23.947   4.961  0.1525  0.2124  0.2720
28796W        W71849  31.590  32.012  20.179 -0.1017  0.0628 -0.2500
28797W        W71850  13.782  14.558   5.078  0.1122 -0.1961  0.5066
28798W        W71851  23.011  28.730   8.384  0.3619 -0.0267 -0.0655
28799W        W71852  15.259  12.744  28.956  0.2886  0.4005  0.0076
28800W        W71853  31.168  34.196  24.526 -0.0175  0.2397 -0.1776
28801W        W71854   7.667  27.785   7.454 -0.3080 -0.2760 -0.2244
28802W        W71855  25.829  10.504  27.094  0.1440 -0.2457 -0.0894
28803W        W71856  16.288   2.050  10.230  0.2932 -0.1240  0.0194
28804W        W71857  26.450  27.873   8.063  0.0537 -0.1006 -0.3021
28805W        W71858  16.196   0.649   9.092 -0.1952 -0.0195 -0.2917
28806W        W71859  23.381  25.146   7.210  0.1963  0.0056 -0.2607
28807W        W71860  32.524  29.557  23.729  0.1128  0.3215  0.2222
28808W        W71861  25.611  14.925  24.456  0.1108  0.0902 -0.0317
28809W        W71862  23.097  27.149   8.205  0.2407  0.2258 -0.2303
28810W        W71863  23.188  29.116   5.433  0.1442  0.1140  0.0851
28811W        W71864   1.182   3.685   5.575  0.0692  0.3197 -0.0607
28812W        W71865  20.785  23.583   0.625  0.1370 -0.1715  0.2641
28813W        W71866  29.696  28.375   5.153  0.0190  0.0870 -0.3367
28814W        W71867  25.448  22.228   8.163 -0.0015 -0.0938 -0.0904
28815W        W71868  15.181  27.229   9.276  0.0130 -0.0640  0.0711
28816W        W71869  31.333  19.563  25.984  0.2417  0.0957 -0.0664
28817W        W71870  26.789   4.838   7.711 -0.0872  0.0973 -0.0336
28818W        W71871  28.646  27.890  20.480  0.1649  0.0813 -0.0892
28819W        W71872   1.935  26.723   2.800 -0.1126  0.0219  0.0333
28820W        W71873  12.057  14.106   3.004 -0.0048 -0.0476  0.0734
28821W        W71874  26.540  27.206   0.297 -0.3905  0.0534  0.2215
28822W        W71875  26.972   0.129   8.384  0.2095 -0.1856  0.1794
28823W        W71876  31.503  31.393  23.223 -0.4047  0.0832 -0.1729
28824W        W71877  19.516  20.031   1.962  0.1759  0.0141 -0.1949
28825W        W71878  23.503  18.263  28.577 -0.3540  0.0555  0.1628
28826W        W71879  21.687   9.110   6.677 -0.1306 -0.1752 -0.1483
28827W        W71880  32.988  23.006   2.357 -0.0265  0.0292 -0.3337
28828W        W71881  21.855  28.308   6.030  0.0868  0.3643 -0.1297
28829W        W71882   1.177  13.741   2.942  0.0538  0.1836  0.0227
28830W        W71883  25.574   0.121  16.557  0.1821 -0.0869  0.0646
28831W        W71884  16.954  26.876   3.503 -0.1865 -0.2361  0.1711
28832W        W71885  11.617  17.733  10.734  0.1781  0.0357 -0.0034
28833W        W71886  17.867  27.111   1.606  0.1602 -0.1579  0.1152
28834W        W71887   9.991   2.872  20.575 -0.0225  0.2116  0.1047
28835W        W71888  30.323   8.147  26.209  0.1330 -0.2346 -0.2939
28836W        W71889  10.747   2.192   6.592 -0.0455  0.0491 -0.0659
28837W        W71890  18.821   6.921  23.900  0.0301 -0.1213 -0.2210
28838W        W71891  10.808  24.561   4.825 -0.0403  0.1836  0.0281
28839W        W71892   1.808   0.366  25.264 -0.0319  0.0376 -0.1338
28840W        W71893  27.625  21.069   6.776  0.0232 -0.1423  0.1747
28841W        W71894  13.959  25.481  27.123 -0.1139 -0.1154 -0.1603
28842W        W71895  24.559  31.558   3.190  0.2691 -0.2165 -0.1557
28843W        W71896   1.922   4.249  23.984  0.2383 -0.3467 -0.0084
28844W        W71897  26.714   0.310  24.297 -0.2175 -0.0089 -0.0479
28845W        W71898  22.990  33.586   7.578 -0.1532  0.2281  0.1533
28846W        W71899  20.533  28.422   5.864  0.0137  0.2025  0.0661
28847W        W71900   9.935   4.815  20.326 -0.2500  0.0287 -0.2238
28848W        W71901  10.747  30.659   8.928 -0.0692  0.0555  0.0411
28849W        W71902  19.732  24.978   5.519  0.0337  0.0976 -0.0694
28850W        W71903  17.711   2.493   8.198  0.0271  0.0141  0.0333
28851W        W71904  24.261  20.992  27.077  0.1613 -0.1814  0.1736
28852W        W71905  24.013   7.881  24.835  0.0376  0.2519 -0.2041
28853W        W71906  26.082  17.374   2.781  0.1955  0.5107 -0.1465
28854W        W71907  23.070  16.302   5.861 -0.0973  0.2328  0.0650
28855W        W71908  16.251  28.076  10.209  0.2660 -0.0524  0.2297
28856W        W71909  12.834  33.700   4.280 -0.1229  0.0616 -0.0195
28857W        W71910  24.280   0.057  28.989  0.1342  0.0813  0.2153
28858W        W71911  25.648  25.978   9.625 -0.2207  0.2699  0.0158
28859W        W71912  10.058  26.863  27.711 -0.2187  0.1614  0.0116
28860W        W71913  21.441  25.720  21.599  0.2318  0.1542  0.0495
28861W        W71914  23.342  16.446  23.092  0.0385  0.1333 -0.0102
28862W        W71915   1.144  25.907  25.280 -0.1967  0.0563 -0.1819
28863W        W71916  21.354  27.290  21.222 -0.4730  0.0331 -0.2293
28864W        W71917   9.781  10.299   2.271  0.0950  0.0224  0.2074
28865W        W71918  15.677  23.323  25.987 -0.4502  0.2040  0.0165
28866W        W71919  28.308  25.696  23.419  0.3085  0.2153  0.1601
28867W        W71920  27.095   1.705  20.583  0.0127  0.2462  0.1624
28868W        W71921  11.182  11.969  21.020  0.1563 -0.0957 -0.0954
28869W        W71922  27.247  15.210   4.744 -0.1060 -0.0805 -0.3429
28870W        W71923  26.327  27.601   4.332 -0.1168  0.0315 -0.0469
28871W        W71924  10.740   1.739   6.258  0.0382 -0.1003 -0.4561
28872W        W71925   3.069  15.985   5.055  0.2608  0.0599  0.2536
28873W        W71926  19.084  11.993   5.861  0.2046 -0.0455  0.0918
28874W        W71927  22.847   3.661   9.479  0.2588  0.1680 -0.2148
28875W        W71928   7.468  32.312   6.030  0.0513 -0.0994  0.0159
28876W        W71929  19.515   4.540   0.598 -0.0851  0.1299 -0.1533
28877W        W71930  34.609   1.646   5.705 -0.1730  0.0802 -0.2453
28878W        W71931  12.037  23.544   8.285  0.3898 -0.0396  0.3230
28879W        W71932  10.563  30.672  27.835  0.1100  0.3404 -0.0939
28880W        W71933  27.811  16.074  27.411 -0.3812  0.2366 -0.0503
28881W        W71934  20.439  24.005   4.873  0.1537 -0.0278  0.1361
28882W        W71935  28.535   7.803   2.589 -0.2581 -0.0000 -0.3813
28883W        W71936  24.260  15.198   5.553 -0.1955  0.1260 -0.2397
28884W        W71937  23.311  18.622  25.734  0.0050  0.1513  0.1395
28885W        W71938  15.265  19.240   4.130  0.1511  0.0679  0.1311
28886W        W71939  34.592   5.474  28.027  0.1360  0.0711 -0.0826
28887W        W71940  27.236  28.613   0.349  0.1994 -0.2968  0.2582
28888W        W71941  20.941   7.475   5.277  0.1620  0.1122 -0.0241
28889W        W71942  14.402  20.288   5.464 -0.1106 -0.0361  0.0717
28890W        W71943  14.486  27.866   9.179  0.0183 -0.0442  0.1859
28891W        W71944  19.157  10.039   3.437 -0.0606  0.0513  0.3039
28892W        W71945  24.123  29.010  25.179 -0.2067 -0.0480 -0.0582
28893W        W71946  11.829   0.471   5.919 -0.1681  0.0482  0.0111
28894W        W71947  15.072  11.976   7.374  0.0325  0.0839  0.1308
28895W        W71948  10.179   1.581   3.221 -0.1713 -0.0523  0.1632
28896W        W71949   0.579   4.878   6.591  0.0764 -0.4217 -0.2212
28897W        W71950   3.015  32.558   0.090 -0.1481  0.1626  0.4395
28898W        W71951  10.198  13.038   1.414  0.0767 -0.3166  0.2716
28899W        W71952   4.133  29.400   6.336  0.1991  0.1452  0.0496
28900W        W71953  21.143  32.903   2.418 -0.3543 -0.2143 -0.0561
28901W        W71954  10.788  30.908   4.403 -0.1788 -0.2639  0.0598
28902W        W71955   3.815   0.938   9.564 -0.1276  0.2944  0.0020
28903W        W71956  32.726  26.401  26.919  0.1459  0.5118  0.1159
28904W        W71957  30.669  24.588  27.745  0.0625  0.0929 -0.0681
28905W        W71958  17.070  30.132   1.866 -0.0765  0.1318 -0.0373
28906W        W71959  28.229   1.054   2.651 -0.4464  0.1169 -0.2345
28907W        W71960  26.883   6.525   1.401  0.0656  0.2023  0.0972
28908W        W71961  27.582  11.976  24.110 -0.0782 -0.1680  0.1139
28909W        W71962  25.555  30.403  23.989  0.0275 -0.2052 -0.0275
28910W        W71963  27.124  23.591  23.793 -0.2603 -0.4091 -0.0271
28911W        W71964  28.559  25.774  24.724 -0.1719  0.0114 -0.1294
28912W        W71965  21.301   2.508   7.106  0.0957  0.0340  0.0667
28913W        W71966  14.813   0.281  24.359 -0.0536 -0.2189 -0.1585
28914W        W71967  27.094  21.519  10.506 -0.3133 -0.0478 -0.1267
28915W        W71968  23.100  29.779   8.598 -0.0486  0.1137  0.0292
28916W        W71969  27.883  30.825   2.901  0.0418  0.0712  0.4873
28917W        W71970  18.640  20.886   0.185  0.3455  0.2181  0.3937
28918W        W71971  16.958  15.262   5.308  0.3710 -0.0063  0.2812
28919W        W71972  22.680  34.672  26.718  0.0957 -0.0555 -0.1045
28920W        W71973   3.119  19.719   2.871  0.3240 -0.2533 -0.0978
28921W        W71974  18.494  30.024   7.012  0.0108 -0.1068  0.5011
28922W        W71975  16.433   0.742   9.518  0.0155  0.0626 -0.1782
28923W        W71976  32.177   9.256   6.304 -0.0148  0.1037  0.0046
28924W        W71977  21.384  32.815  28.782 -0.2904  0.2058 -0.2573
28925W        W71978   0.727   2.071   2.249  0.3312  0.2085 -0.1257
28926W        W71979   2.075  15.887   6.511  0.1183  0.0402 -0.0303
28927W        W71980  13.379  17.038   9.513 -0.2044  0.2041 -0.0429
28928W        W71981  33.294   0.180   2.561 -0.5242  0.1681 -0.1979
28929W        W71982  27.332  22.207   8.616  0.2169 -0.2422  0.0874
28930W        W71983  28.739   1.118   1.292  0.0658 -0.1223 -0.0797
28931W        W71984   1.281   2.577   4.630  0.2940 -0.4237  0.1905
28932W        W71985  29.219  24.971  27.154 -0.1574 -0.0582 -0.3394
28933W        W71986  21.866  11.101  14.311 -0.0524 -0.1913  0.0894
28934W        W71987   0.846  32.120   0.603  0.1227  0.0990  0.1051
28935W        W71988  18.660   7.398  28.921  0.3275 -0.0821 -0.0555
28936W        W71989  27.909  29.551   8.483  0.0739  0.0506 -0.0631
28937W        W71990  24.694  34.232   3.243 -0.1459  0.2259  0.0617
28938W        W71991  18.704  27.167  10.783  0.2490 -0.0678 -0.1182
28939W        W71992   9.409  17.604   7.662  0.1674  0.1159 -0.0234
28940W        W71993  27.775   9.292   5.085 -0.3200  0.3659  0.1156
28941W        W71994  22.555   0.626   8.462  0.1605 -0.1046  0.0442
28942W        W71995  17.644  24.997   2.412 -0.2241 -0.1674 -0.0445
28943W        W71996  18.876   4.153   5.454  0.3813  0.1406 -0.1744
28944W        W71997  25.515  19.798   0.696 -0.2541 -0.0846 -0.3779
28945W        W71998   1.216  26.723  26.321 -0.1429 -0.2043 -0.0793
28946W        W71999  24.153  26.327  10.818  0.2427  0.0664  0.1562
28947W        W72000  26.275  16.659   9.499  0.2474 -0.2376  0.1396
28948W        W72001  26.700  26.901   9.095 -0.2341  0.2088 -0.4904
28949W        W72002  16.123  24.928   8.094  0.0469  0.1673  0.0569
28950W        W72003  24.857  18.718   5.592 -0.1657 -0.2780 -0.0437
28951W        W72004  22.410  21.816   7.981 -0.0226 -0.0963  0.0075
28952W        W72005  31.113  30.013  24.425 -0.1636  0.2992 -0.0566
28953W        W72006  31.829  18.850   2.861  0.3815  0.1293 -0.0555
28954W        W72007  21.849  14.134   1.230  0.2110 -0.0453 -0.0252
28955W        W72008  28.064  28.343   6.334 -0.1164 -0.0409  0.0725
28956W        W72009  27.154  29.311   9.386 -0.2263 -0.0909 -0.5334
28957W        W72010  16.691  25.250   9.553  0.4231 -0.0622  0.3811
28958W        W72011  23.119  11.690   8.576 -0.3635  0.1945 -0.0832
28959W        W72012  22.684  25.453   3.034  0.1447  0.3770  0.0500
28960W        W72013  22.423   3.468  26.744  0.4261  0.1804  0.1200
28961W        W72014  30.344  29.967   1.239 -0.2096  0.0429 -0.1506
28962W        W72015  23.033   3.650   7.110  0.0184 -0.0238 -0.4444
28963W        W72016  32.192  22.061   5.335  0.1594 -0.2339  0.1359
28964W        W72017  25.174  25.582   0.685 -0.1849 -0.2739  0.1202
28965W        W72018   5.531  25.668  27.692 -0.3112  0.0874 -0.2862
28966W        W72019  24.217   4.704   3.634 -0.0438  0.0543  0.0927
28967W        W72020   1.823   5.433   6.941 -0.0376  0.0828 -0.0995
28968W        W72021  30.474  25.213   1.645 -0.1863 -0.0851  0.0997
28969W        W72022  16.516  31.461   1.992  0.5739 -0.0783 -0.0203
28970W        W72023  32.202  29.252  21.674 -0.3238  0.2908  0.1456
28971W        W72024  19.998   3.344   6.982  0.1030 -0.1145  0.1439
28972W        W72025  17.974  19.984   1.043  0.0791 -0.3639  0.3327
28973W        W72026  24.100  17.474   7.721 -0.0153 -0.0628  0.0643
28974W        W72027  28.801  16.577   4.303  0.0612 -0.1289 -0.2539
28975W        W72028  23.842  15.661   8.337  0.1429  0.0671  0.0864
28976W        W72029  22.262   8.101  16.523 -0.1019  0.0808 -0.3788
28977W        W72030  16.446  34.069   7.899 -0.0281  0.0343 -0.2046
28978W        W72031   4.844  17.045  25.819  0.0565  0.4051  0.0390
28979W        W72032  14.367   3.720   5.116 -0.2604  0.2034 -0.3457
28980W        W72033  12.095   2.009   8.484  0.0079  0.1943  0.4098
28981W        W72034  19.897  24.916   1.424  0.0909  0.3197  0.0270
28982W        W72035  13.061  32.942   3.650 -0.2130 -0.1131  0.0007
28983W        W72036  26.337  31.649  26.927  0.4107  0.0282 -0.4787
28984W        W72037  32.351  22.497  19.055 -0.2961 -0.0144 -0.2019
28985W        W72038  14.972  14.351  28.394  0.0222 -0.0822  0.0360
28986W        W72039  13.568   4.132   4.406  0.2452  0.0818 -0.0064
28987W        W72040  21.538   4.827   7.897 -0.0232  0.2510  0.1946
28988W        W72041  27.492  33.021   6.824  0.2090 -0.0119 -0.4602
28989W        W72042  15.333  30.351  27.340  0.1085  0.2258  0.1519
28990W        W72043  32.649  28.059   3.227  0.3398  0.1021  0.0603
28991W        W72044  26.947  24.999  25.775 -0.0954 -0.2506 -0.0838
28992W        W72045  26.740  21.989   3.264  0.2446 -0.0902  0.0712
28993W        W72046  12.919  23.188   4.256  0.1517  0.1275  0.1503
28994W        W72047  14.119  29.122   9.597  0.1155  0.1070  0.1919
28995W        W72048   0.341  30.559   5.160 -0.4413  0.2680 -0.0347
28996W        W72049  13.017  19.933   9.515  0.1794 -0.0656  0.1654
28997W        W72050  25.377  16.157  24.832 -0.1392  0.0469  0.2484
28998W        W72051  25.616  28.825   6.368 -0.0420  0.0026 -0.1327
28999W        W72052  18.241   4.450   3.720  0.3754 -0.3587 -0.1217
29000W        W72053  31.074  10.032   7.013 -0.4291 -0.0596 -0.2234
29001W        W72054  33.889  18.492   5.689  0.1112 -0.1561 -0.2283
29002W        W72055  10.924  12.662  10.427 -0.0241  0.1183 -0.2058
29003W        W72056  22.033  28.336   9.448  0.0334  0.1171  0.1076
29004W        W72057  14.955   6.384   4.385 -0.3459  0.2373  0.0241
29005W        W72058  20.122  26.469  28.179 -0.1854 -0.2644 -0.0296
29006W        W72059  31.463  15.291   9.521 -0.1170  0.2709  0.1480
29007W        W72060  12.718  28.628   0.332 -0.1728 -0.1426 -0.0296
29008W        W72061  12.908  31.725   1.639 -0.1154 -0.3969  0.0469
29009W        W72062  11.032   3.103   5.160 -0.1179 -0.0779 -0.0459
29010W        W72063  19.130   0.712   9.885  0.2185 -0.2723  0.0364
29011W        W72064  29.680  28.221   4.272  0.1075 -0.1835 -0.0200
29012W        W72065  28.499  30.832   4.131  0.0860 -0.1013 -0.0370
29013W        W72066   4.827  26.049  21.696  0.0903 -0.0091  0.1653
29014W        W72067  32.504  21.575  29.071  0.0601  0.2222  0.0711
29015W        W72068  24.243   4.993   6.830 -0.2784 -0.3105 -0.0337
29016W        W72069   5.911  27.371   7.422 -0.1412 -0.4003 -0.1029
29017W        W72070  20.329  26.525   4.936  0.2169  0.1212  0.3170
29018W        W72071  18.060  29.207   3.810 -0.0542  0.0648 -0.0850
29019W        W72072  11.634  30.649  25.547  0.1052 -0.0377  0.0665
29020W        W72073  15.654   6.918  27.204 -0.1479  0.0245  0.1051
29021W        W72074  27.563  21.858   3.894 -0.0259  0.1505  0.1741
29022W        W72075  17.482   0.146   7.356  0.1837 -0.0133 -0.1601
29023W        W72076  17.240  11.113  10.167 -0.2951  0.0753  0.1424
29024W        W72077  23.972  26.624  24.887 -0.1659  0.0030  0.0224
29025W        W72078  15.216  25.728   2.427 -0.0098  0.1088  0.1069
29026W        W72079  23.594  27.126   4.549  0.0387 -0.0617 -0.1260
29027W        W72080  24.039  23.845   4.607 -0.0858  0.0450 -0.0470
29028W        W72081  31.667   3.745   4.292  0.0348  0.1237  0.2469
29029W        W72082  20.386  29.448  25.175  0.0961 -0.3112  0.1456
29030W        W72083  26.170  26.033  25.628 -0.0248 -0.2368 -0.0225
29031W        W72084  33.148  29.876   3.782 -0.2098 -0.0190 -0.2968
29032W        W72085  31.041  19.640  10.082 -0.0475 -0.0587 -0.1178
29033W        W72086  20.463   1.019   6.848 -0.0793 -0.0187  0.2349
29034W        W72087  27.443  29.375  28.591 -0.0940 -0.1383  0.0210
29035W        W72088  26.247  26.359   7.083 -0.0390 -0.0439  0.1201
29036W        W72089  27.965   7.688   3.147 -0.1126  0.0283 -0.3024
29037W        W72090   2.921  25.754  27.909 -0.1407  0.0095  0.0291
29038W        W72091  28.731  20.684   3.836 -0.1846  0.0956 -0.3248
29039W        W72092  25.932   6.349   9.750  0.3437 -0.0333 -0.0638
29040W        W72093  12.124  21.113  21.512  0.2801 -0.3413 -0.5212
29041W        W72094  31.561  11.069   9.688 -0.2786  0.0155 -0.0827
29042W        W72095  17.014  13.890  27.014  0.0372 -0.2267  0.0602
29043W        W72096  14.750  32.685  26.816  0.0732 -0.1408  0.1065
29044W        W72097   9.565  32.628  24.455  0.0421  0.1213 -0.2295
29045W        W72098  25.349  32.585  27.219 -0.1870  0.0596  0.1821
29046W        W72099  21.265   6.083   0.277 -0.1635 -0.2628 -0.0699
29047W        W72100  19.858   5.546   9.361  0.2188  0.1346  0.1719
29048W        W72101  11.336  34.368  27.572  0.2065  0.1287  0.0076
29049W        W72102  22.763   0.887   6.398 -0.1865 -0.1219 -0.0240
29050W        W72103  21.279  14.479  23.549  0.1760 -0.2578 -0.0659
29051W        W72104  23.027  27.885   3.713 -0.3388  0.3638 -0.1588
29052W        W72105  12.477   9.804   5.807  0.2089  0.1945 -0.2664
29053W        W72106  19.970  17.729  22.959  0.1554 -0.1551  0.1083
29054W        W72107  18.200  29.102   7.243  0.0997  0.0673 -0.0747
29055W        W72108  23.917  33.558   6.492  0.3954 -0.1213 -0.0521
29056W        W72109   8.679   6.184  24.662 -0.0198 -0.1331  0.0012
29057W        W72110  26.382  21.174  16.118 -0.2425  0.2532  0.1618
29058W        W72111  24.287  29.444   1.107  0.0443  0.2463 -0.0726
29059W        W72112  20.701  10.884   0.248 -0.0172 -0.0844 -0.0617
29060W        W72113  19.577  30.900   4.723 -0.0355 -0.4875 -0.0389
29061W        W72114  22.971   5.009   9.391 -0.4198  0.0937 -0.1042
29062W        W72115  28.946   2.425   3.604 -0.1621 -0.1545 -0.2536
29063W        W72116   9.511   6.969   5.563 -0.0721  0.2330  0.1243
29064W        W72117  21.656  31.722  28.205  0.1362 -0.4254  0.1976
29065W        W72118  23.493  32.789   7.067 -0.2129 -0.2399  0.0285
29066W        W72119  13.925  28.991  21.470  0.1954  0.0115 -0.1778
29067W        W72120  26.990   5.778  20.490  0.0225  0.0579 -0.0143
29068W        W72121  10.457  17.120  18.860  0.0115 -0.2677  0.0690
29069W        W72122  14.965   1.539   3.144 -0.0393  0.1690  0.0575
29070W        W72123  16.224  30.886  17.012 -0.0330  0.1456 -0.0769
29071W        W72124  32.021   4.355  29.147  0.0313  0.1644 -0.1766
29072W        W72125  21.598  16.794  24.571  0.0748 -0.3538 -0.0643
29073W        W72126  15.266  33.816  20.679  0.0258 -0.1902  0.4798
29074W        W72127  19.064  24.153  25.299 -0.1470  0.2292  0.2401
29075W        W72128   5.487  26.450  23.328  0.0792  0.0085  0.2610
29076W        W72129  30.386   7.977   1.244 -0.3998 -0.1403  0.0938
29077W        W72130   7.050   4.655  21.724 -0.2236  0.1173  0.0081
29078W        W72131  29.371  28.617   2.970  0.2332  0.1861 -0.0050
29079W        W72132  21.271   4.410  22.592 -0.0108  0.1767  0.0063
29080W        W72133  30.885  15.319  28.159 -0.2447  0.1788 -0.1056
29081W        W72134  20.711   1.259  27.289 -0.0242 -0.0204 -0.2368
29082W        W72135  20.334  29.445  21.122  0.2519  0.0164 -0.1299
29083W        W72136   0.980  23.148  23.125 -0.1396  0.0168 -0.1239
29084W        W72137  28.555   2.982   5.623 -0.0167 -0.0976 -0.1440
29085W        W72138  21.515  18.585   7.619 -0.0729 -0.1539  0.2438
29086W        W72139  21.072  26.397   0.449 -0.2281  0.0547  0.2443
29087W        W72140  21.480  33.200  28.105  0.0973  0.1612  0.1344
29088W        W72141  13.665  30.830  28.155 -0.0463  0.1488  0.2556
29089W        W72142   0.428  34.384  27.045  0.0416  0.0791  0.2054
29090W        W72143  18.685  33.108  16.752  0.0375  0.1604 -0.1328
29091W        W72144  14.249  33.801   4.682  0.1017  0.0631  0.3601
29092W        W72145  13.231  25.917   9.108  0.0781  0.1578 -0.0343
29093W        W72146  16.651   4.093  25.661  0.0375  0.0601 -0.3442
29094W        W72147  31.057  14.363   9.948 -0.0976 -0.0105 -0.0011
29095W        W72148  16.772  31.644  26.399 -0.1265 -0.1933  0.0132
29096W        W72149   0.521  32.364   1.867 -0.3688  0.1403 -0.4798
29097W        W72150  14.291  28.801   5.292  0.1029 -0.1548 -0.0736
29098W        W72151  25.085  25.655  14.809  0.0155 -0.0629  0.3069
29099W        W72152  12.616  24.445   6.257 -0.3547 -0.0283  0.0468
29100W        W72153  19.925   7.070   5.358  0.1224 -0.1678  0.3512
29101W        W72154   7.013  17.135   6.373  0.1334 -0.1064 -0.2048
29102W        W72155  21.055  26.063   6.331  0.1316 -0.0477 -0.0994
29103W        W72156  29.169  33.677  25.241 -0.0437  0.0606  0.3051
29104W        W72157  28.768  30.852  26.847  0.1466 -0.1251  0.3480
29105W        W72158  29.376  13.502   4.752 -0.0466 -0.0854  0.3152
29106W        W72159  31.348   6.929   7.556  0.0466  0.2405  0.0250
29107W        W72160  23.545  31.894   2.217  0.2034 -0.2478 -0.0284
29108W        W72161   6.465  29.753   3.854  0.2625 -0.1183  0.2213
29109W        W72162  21.683  33.301  15.870 -0.3181 -0.2755 -0.1342
29110W        W72163  26.176  34.271   1.694 -0.0356  0.3156 -0.1658
29111W        W72164   4.687  34.170   3.941 -0.0176  0.1371 -0.1247
29112W        W72165   3.485   2.869   8.727 -0.1498 -0.0457  0.3213
29113W        W72166  16.828  24.021   7.220 -0.1075 -0.2420  0.2419
29114W        W72167  24.744   7.431  23.561  0.0374  0.1972  0.1532
29115W        W72168  32.639   2.094   0.163  0.2443  0.1185  0.0706
29116W        W72169   7.724  29.924  25.627 -0.0033  0.3352 -0.0669
29117W        W72170  13.796  10.924   5.793 -0.1498 -0.0454  0.1739
29118W        W72171  29.572  10.622  26.845 -0.0988 -0.0568 -0.2990
29119W        W72172  13.857  10.564   2.570 -0.1309 -0.0004  0.1452
29120W        W72173  23.576   1.514  14.635 -0.3119  0.2134 -0.1016
29121W        W72174   2.130  10.755   1.410 -0.2345  0.0516  0.0644
29122W        W72175  19.753  29.483  26.323 -0.3195 -0.3313 -0.0668
29123W        W72176   0.551  31.866  20.375 -0.0861 -0.1696  0.0197
29124W        W72177  21.462  27.882  25.204  0.0783 -0.1515  0.2586
29125W        W72178  12.358  14.014  24.262 -0.1084 -0.0025 -0.1756
29126W        W72179  14.932   2.201   3.624 -0.0676  0.0818  0.1657
29127W        W72180  21.041  30.801  26.953  0.0427  0.0410  0.0606
29128W        W72181  26.068  30.214   2.184  0.1359  0.0063 -0.1883
29129W        W72182   0.414  33.333   0.958  0.1097 -0.0570 -0.3182
29130W        W72183  12.126  20.029   9.596  0.0481  0.0962  0.1029
29131W        W72184  19.189  31.217  19.077  0.2804  0.1878 -0.1415
29132W        W72185  16.539  22.581   0.674  0.1597 -0.0446  0.0070
29133W        W72186  28.545  30.670   3.630  0.1048  0.0458  0.2157
29134W        W72187  26.373  31.578   5.994 -0.0879  0.0609  0.1108
29135W        W72188  29.495   6.805  23.132 -0.0980  0.0848  0.0747
29136W        W72189  26.618   2.102   0.888 -0.1035 -0.0274  0.1215
29137W        W72190  29.243  31.352   0.996  0.0278 -0.4308 -0.2321
29138W        W72191  26.327  28.675   5.804  0.0988  0.2647  0.0442
29139W        W72192  29.236  28.363  14.888 -0.0947 -0.2196 -0.0313
29140W        W72193  17.690  31.494   1.578 -0.0266  0.0697  0.2482
29141W        W72194   7.115   9.145   9.676  0.2392  0.1907  0.1777
29142W        W72195   3.148  21.635   1.248 -0.0898  0.3386  0.1996
29143W        W72196  13.346   4.451  16.087  0.1131 -0.0140 -0.2511
29144W        W72197  24.378   1.602  23.225  0.0741 -0.1794  0.3845
29145W        W72198  24.208  34.568   1.288  0.3710  0.0618 -0.1589
29146W        W72199   8.794   8.458   6.473  0.2615 -0.2288  0.0935
29147W        W72200   5.368   4.475   4.745  0.0463 -0.0578 -0.3727
29148W        W72201  14.005  33.763   9.192 -0.0772  0.0895 -0.0948
29149W        W72202  17.481  25.572  27.949  0.0078  0.3411  0.2472
29150W        W72203   1.625   2.125   8.330  0.3092  0.1125 -0.0297
29151W        W72204   9.086  31.385  28.072 -0.1600 -0.0461  0.1217
29152W        W72205  11.485   5.474  10.280 -0.1950 -0.0680  0.2976
29153W        W72206  27.545  27.703   6.466  0.0299  0.3361  0.0076
29154W        W72207  14.485  23.383  20.766 -0.0647 -0.0977 -0.2422
29155W        W72208  32.216  14.436   6.886  0.2380 -0.1210 -0.0277
29156W        W72209   4.792  26.785   2.774 -0.0501 -0.0292 -0.2236
29157W        W72210  22.393   1.615  23.508  0.1070 -0.1663  0.2122
29158W        W72211  24.492  12.385  17.098 -0.3341 -0.1035 -0.0050
29159W        W72212  32.286  19.111   9.142 -0.1435  0.2044 -0.0407
29160W        W72213  18.529  32.961  28.105  0.0385 -0.1591 -0.1576
29161W        W72214   6.019  28.720  28.543 -0.1066 -0.4462 -0.0950
29162W        W72215  30.966  10.720  20.842  0.0310 -0.4320 -0.0869
29163W        W72216  24.758  25.639   1.347 -0.0344  0.1289 -0.0996
29164W        W72217  30.358  28.027  24.831  0.0064 -0.1695  0.2524
29165W        W72218   0.036  27.557  22.530 -0.2137 -0.3791  0.1934
29166W        W72219  23.597  23.539   2.369 -0.1246 -0.0782 -0.3681
29167W        W72220   2.316  26.437  19.503 -0.2669  0.0788  0.3275
29168W        W72221  17.236  11.073   3.817 -0.1967 -0.0876 -0.2090
29169W        W72222  20.745  15.650   7.015  0.0950  0.0007  0.0272
29170W        W72223   1.152   0.514   2.580 -0.0167  0.2012  0.3134
29171W        W72224  32.605  29.861   6.899  0.1103  0.1654 -0.1435
29172W        W72225  11.746  25.936   2.534  0.1652 -0.0274  0.0182
29173W        W72226   4.167  32.123   5.603 -0.1475  0.2238 -0.1022
29174W        W72227  16.953   1.504  14.465  0.3884  0.0741  0.2456
29175W        W72228  17.463  34.448  21.783  0.3496 -0.2484 -0.0277
29176W        W72229  21.510   6.126  23.120  0.5520 -0.0096 -0.1883
29177W        W72230  20.708  10.358   7.400 -0.2270  0.1675  0.2200
29178W        W72231  31.492   9.709  24.260 -0.0852  0.0248 -0.2200
29179W        W72232  34.213  33.487  23.595  0.1977 -0.0365 -0.0250
29180W        W72233   9.917  12.031   6.556  0.0331  0.0333 -0.0773
29181W        W72234  21.259   4.076  27.382  0.0513 -0.0350 -0.0316
29182W        W72235  33.092   5.360  27.308  0.1800  0.1471  0.0979
29183W        W72236  24.704  16.143   0.334 -0.0917  0.0819  0.0248
29184W        W72237  20.205   4.127   2.461 -0.0740 -0.1924  0.0571
29185W        W72238  15.541   5.764   3.988 -0.0507  0.0609 -0.2910
29186W        W72239  28.414   3.107   3.514 -0.1101  0.3894 -0.0389
29187W        W72240  26.737   9.099  18.518 -0.1127  0.2430 -0.1247
29188W        W72241  24.769  10.668  28.427 -0.2068 -0.0039 -0.2211
29189W        W72242  25.042  26.405   7.372 -0.4086  0.2604  0.2700
29190W        W72243  19.137  22.230  18.801  0.0360  0.1668 -0.0319
29191W        W72244   4.535  24.099   1.314  0.1038  0.1123  0.1957
29192W        W72245  22.869  27.899   2.064  0.0311  0.0663 -0.3596
29193W        W72246  15.808   1.459   7.643  0.0727 -0.0625  0.1773
29194W        W72247  14.266  24.126  19.090 -0.0364 -0.0024  0.0598
29195W        W72248  29.041   3.909   3.405  0.1818 -0.1881 -0.1273
29196W        W72249  31.255   6.880  27.539  0.1411  0.0359  0.0745
29197W        W72250  22.061  16.396  26.116  0.0867  0.0183 -0.2901
29198W        W72251  26.671  26.253  24.057 -0.0045  0.0126  0.0206
29199W        W72252   2.944  30.468  22.016  0.3580  0.1487  0.1344
29200W        W72253  11.556  10.215   2.093  0.1014  0.1917 -0.0637
29201W        W72254   1.518  12.429  28.607  0.0089  0.2398 -0.0936
29202W        W72255  20.259  32.657   6.715 -0.2749  0.0430  0.3320
29203W        W72256  29.590  28.249  19.672 -0.2418 -0.1330  0.0648
29204W        W72257  33.935   1.410   9.160  0.0937  0.0893 -0.0663
29205W        W72258  15.988  30.675   6.094 -0.0167  0.1100 -0.1633
29206W        W72259  31.460   5.772  21.505  0.1562  0.0628 -0.1406
29207W        W72260  25.564   4.660   6.492  0.0505 -0.1365 -0.0579
29208W        W72261  11.766  30.817  27.900  0.1135 -0.1274  0.2091
29209W        W72262  17.851   1.459  22.009  0.1159  0.2781  0.0132
29210W        W72263  14.959  12.446   7.717 -0.1966  0.0837  0.1919
29211W        W72264  19.402  10.067  26.965  0.2497  0.0756 -0.1088
29212W        W72265  18.953   3.932  18.306 -0.4290  0.2057 -0.2393
29213W        W72266  12.960   3.941  20.518 -0.3074  0.0978 -0.0213
29214W        W72267  26.200   2.866  19.470  0.1978  0.0331 -0.1802
29215W        W72268  34.614  24.163   6.970 -0.1626  0.2390  0.0067
29216W        W72269  18.834   3.399  15.754 -0.4658 -0.0203 -0.0138
29217W        W72270  22.295  28.053   3.564 -0.1844  0.0035 -0.0634
29218W        W72271   3.558  33.652  21.265  0.2286  0.3749 -0.0148
29219W        W72272  22.008   3.741  10.342 -0.0045 -0.1311  0.0010
29220W        W72273  30.293   4.506   8.329  0.1750 -0.1809 -0.0780
29221W        W72274   8.606  31.314  22.650  0.0938 -0.2592  0.0351
29222W        W72275  13.556  11.184   0.581  0.0719 -0.1222  0.0305
29223W        W72276  20.190  27.769  17.691  0.1481  0.3680 -0.1789
29224W        W72277  28.415  31.415   5.015  0.2028 -0.0140  0.3036
29225W        W72278  23.264  19.645  16.248 -0.0357 -0.1195  0.1431
29226W        W72279  19.459   1.854   0.191 -0.2237  0.2721  0.0617
29227W        W72280  15.487  27.400   0.882  0.2641 -0.2790 -0.0290
29228W        W72281  18.695  22.427   3.289  0.0703  0.0487 -0.0318
29229W        W72282  24.600   1.284  16.882 -0.0443  0.0014  0.3269
29230W        W72283  25.266   6.546  17.215 -0.3201  0.2294 -0.2083
29231W        W72284  11.420  32.326   7.592  0.4062 -0.0452 -0.0906
29232W        W72285  12.549  22.636  21.674 -0.1349  0.1003  0.1165
29233W        W72286  21.583   5.941   3.223 -0.1211 -0.0017 -0.1806
29234W        W72287   3.827  11.539  23.756  0.1808  0.1246  0.3220
29235W        W72288  10.947  30.188  23.091  0.2148 -0.5764  0.1200
29236W        W72289   6.786  13.635   4.747  0.0098  0.0522 -0.2835
29237W        W72290   9.938  28.527  16.882  0.1022  0.1416 -0.0422
29238W        W72291   1.442  22.525   6.439 -0.0648 -0.2214  0.3338
29239W        W72292  31.408   4.502  22.902  0.0827 -0.3753 -0.1819
29240W        W72293  16.000  28.266  24.249  0.4653 -0.0455 -0.3114
29241W        W72294  29.747   2.991  26.495 -0.0638  0.0314  0.1584
29242W        W72295  25.795   0.538  16.180 -0.2118 -0.2756 -0.0134
29243W        W72296  27.124  24.050   1.032  0.0836  0.1970 -0.3375
29244W        W72297  23.896   0.385   8.906  0.1782  0.0868 -0.1673
29245W        W72298  23.698  26.821   8.160 -0.1288 -0.1379 -0.1915
29246W        W72299  16.257  28.975   3.022  0.3100 -0.1031  0.2166
29247W        W72300  16.724   1.494   6.812  0.1754 -0.0092 -0.1370
29248W        W72301  32.604  28.490   8.784  0.1190 -0.0073  0.0647
29249W        W72302  27.163  33.100  23.165 -0.2355  0.4308 -0.1643
29250W        W72303   8.053  30.796  16.811  0.3292  0.0340 -0.0601
29251W        W72304  15.239  29.545  14.194 -0.0885 -0.1543  0.3318
29252W        W72305   7.315  17.078  21.807  0.1649 -0.0690  0.1939
29253W        W72306  16.474  30.891   2.835  0.1953 -0.0525 -0.1129
29254W        W72307  23.173  11.242  28.802  0.0007  0.0231  0.6277
29255W        W72308  18.599  25.455  10.110 -0.1846  0.2039  0.0292
29256W        W72309  32.290  10.587   6.128 -0.2993  0.0063 -0.0185
29257W        W72310  14.789  21.678   9.202  0.1921  0.1769 -0.3601
29258W        W72311   0.831   3.117   9.607 -0.1123 -0.3266  0.0398
29259W        W72312  15.298   6.051  28.299 -0.0782  0.0647  0.3782
29260W        W72313  21.167  29.464   7.367  0.1065 -0.0858 -0.2657
29261W        W72314  25.901  20.180   5.445 -0.2027  0.0032  0.0885
29262W        W72315  14.474  27.413  24.937  0.0170  0.0582 -0.0479
29263W        W72316  33.743   3.319   4.877  0.1692  0.2991  0.3552
29264W        W72317  24.382   2.517   2.396  0.0022 -0.2913 -0.1181
29265W        W72318   9.466  31.818   0.645  0.2953 -0.1010  0.1361
29266W        W72319   3.107   7.127  16.528 -0.0431 -0.1119  0.0280
29267W        W72320  18.084  25.654  17.660  0.0137  0.1514 -0.0271
29268W        W72321  30.772  21.640  17.562  0.0928  0.0999  0.3209
29269W        W72322   1.596  26.983   8.484 -0.5102  0.1699 -0.2148
29270W        W72323  18.719  31.622  24.614 -0.0210  0.1352 -0.0416
29271W        W72324   3.101  15.642   8.710  0.0838 -0.1807  0.1897
29272W        W72325  26.988   5.013  26.296  0.0150  0.3223  0.3993
29273W        W72326  10.267   5.551   9.454 -0.1433 -0.1902  0.0026
29274W        W72327  27.751  25.170  20.983 -0.0135 -0.1580 -0.0558
29275W        W72328  19.874  23.345  16.570 -0.1050 -0.0606  0.2647
29276W        W72329  28.745   3.645   8.646  0.0503  0.2917  0.0294
29277W        W72330  19.599  30.147  10.486 -0.2963 -0.2837 -0.3361
29278W        W72331  26.713  26.294   0.289  0.1434  0.2467  0.0789
29279W        W72332  26.409  31.164   9.200 -0.1625 -0.0384  0.1637
29280W        W72333   2.507  32.042   2.017 -0.3975 -0.1453  0.0289
29281W        W72334  23.128  10.522  24.952 -0.3083 -0.3892 -0.0205
29282W        W72335  30.669  33.878   9.044 -0.2286  0.0712 -0.0216
29283W        W72336  32.028   2.309  28.954  0.0550  0.0855  0.2375
29284W        W72337  21.974   9.832  20.128 -0.0530 -0.3501  0.3858
29285W        W72338  34.271  26.380  25.166  0.3113  0.0317 -0.0317
29286W        W72339  20.350  27.395   8.197  0.1713 -0.0240  0.2921
29287W        W72340  24.931  17.877   4.085 -0.0697  0.1157 -0.0836
29288W        W72341   5.481   4.141   9.483 -0.1685 -0.0125  0.1178
29289W        W72342  17.916   0.732   8.827 -0.2851  0.0277  0.0008
29290W        W72343  17.469  23.039   2.205 -0.1121 -0.0369  0.2062
29291W        W72344  27.782   1.824   3.756 -0.1396 -0.1214  0.1910
29292W        W72345  28.875   4.560  20.248  0.2086 -0.2498  0.1051
29293W        W72346  26.917  20.662  27.372  0.3836 -0.2986 -0.3203
29294W        W72347   0.762   3.260   2.701  0.0985 -0.0305  0.0999
29295W        W72348  16.248  31.671  28.118 -0.0694  0.1120 -0.2213
29296W        W72349  17.116   1.556   2.006 -0.0375 -0.2346  0.0154
29297W        W72350  28.823  23.974  26.043  0.1836 -0.0381 -0.1108
29298W        W72351  27.195  16.456   6.909 -0.3019  0.0563  0.0058
29299W        W72352  29.611  24.009   4.448  0.0647 -0.1960 -0.0401
29300W        W72353  12.009   9.708   6.147  0.0363 -0.1799 -0.3659
29301W        W72354  26.148  22.354   8.646 -0.0391  0.3717  0.0438
29302W        W72355  31.712  32.711   6.072 -0.0754 -0.0424  0.2082
29303W        W72356  24.349  34.376   0.519 -0.3754 -0.0058  0.0807
29304W        W72357  22.094   0.419   8.662 -0.0463  0.0455 -0.3256
29305W        W72358   9.657  22.472  20.310  0.0298  0.1275  0.0204
29306W        W72359  26.750  26.282   2.102  0.0874 -0.1002 -0.1594
29307W        W72360  27.631  24.536   3.102  0.0326 -0.2208 -0.1409
29308W        W72361  20.853   5.817  27.714  0.0469  0.1069 -0.0427
29309W        W72362  29.311  25.202  29.104  0.0167 -0.2034  0.3067
29310W        W72363   4.189   0.964   9.950 -0.0459  0.0369 -0.0437
29311W        W72364   8.183  32.714   5.030  0.0074 -0.0788  0.3148
29312W        W72365  26.522  31.073  26.181 -0.0175 -0.1439  0.1899
29313W        W72366  28.683  33.798   4.010  0.0924 -0.2791 -0.1019
29314W        W72367  26.793  30.016   6.980 -0.1250  0.1103  0.2841
29315W        W72368  13.623  16.068   1.519 -0.4432 -0.0494 -0.3026
29316W        W72369   2.073  24.320   3.531 -0.0147 -0.0073 -0.2408
29317W        W72370   0.511   7.166  25.773 -0.2952  0.1135  0.2395
29318W        W72371  25.799   8.712   6.371 -0.0612  0.2359  0.1405
29319W        W72372  13.787   8.563  10.308  0.0332  0.1747  0.0797
29320W        W72373   2.339  30.853   0.001  0.2123  0.2850 -0.2096
29321W        W72374  33.373   8.804   7.745 -0.2118 -0.1241  0.0655
29322W        W72375  29.110   5.886   1.377 -0.1547 -0.1155 -0.1561
29323W        W72376  18.600   2.998   9.829 -0.2202 -0.1891  0.1434
29324W        W72377  22.331   9.030  26.043 -0.0922 -0.2259 -0.0119
29325W        W72378  11.739  29.096   8.947 -0.1779  0.0885  0.0979
29326W        W72379  31.620  23.699  24.624  0.2964  0.4707 -0.1146
29327W        W72380   2.613   2.310   6.042 -0.3715 -0.0625 -0.1656
29328W        W72381  12.623  28.068   3.471  0.0959  0.0935 -0.0275
29329W        W72382   0.492  13.762   4.887  0.1536  0.1199 -0.0813
29330W        W72383  31.223  28.554  22.684 -0.1481  0.0325 -0.1883
29331W        W72384  21.638  20.996   1.507  0.1087 -0.2126  0.2337
29332W        W72385  22.533   1.973   3.133 -0.3507 -0.0875  0.0735
29333W        W72386   2.571  34.384  16.479 -0.1749 -0.0213 -0.3737
29334W        W72387   6.608  33.756  28.903  0.0169  0.3490 -0.1778
29335W        W72388  25.581  26.678  17.154 -0.1620  0.0784 -0.2443
29336W        W72389  28.943   2.711   7.063  0.0124  0.2111 -0.1086
29337W        W72390  19.438  18.330   9.644  0.2750 -0.2454 -0.1843
29338W        W72391  14.495  19.742   6.341 -0.0418  0.0233  0.3046
29339W        W72392  31.937  28.829  26.719  0.0659 -0.1814 -0.0642
29340W        W72393  29.135  27.799  10.475  0.1425 -0.3244  0.0070
29341W        W72394   8.223  18.046   5.417 -0.0628  0.0914  0.1058
29342W        W72395  28.909   8.439  26.400 -0.1776 -0.2049  0.0721
29343W        W72396  12.579  21.772   3.519  0.0344  0.0383  0.3104
29344W        W72397   9.537   3.786  19.881 -0.2506 -0.0270  0.1326
29345W        W72398  27.092  25.431  10.025  0.0310  0.0919 -0.2208
29346W        W72399  29.631   9.457   9.192  0.0252 -0.2520 -0.1305
29347W        W72400  18.272  28.311  10.365  0.0546  0.1077 -0.1217
29348W        W72401  21.702  11.554   6.272  0.0713 -0.1713 -0.3712
29349W        W72402  10.847   6.769  28.642 -0.1273 -0.1480 -0.0389
29350W        W72403  10.059  15.431   5.508  0.0400  0.1272  0.3958
29351W        W72404  28.551   9.710  21.402  0.0768 -0.0790 -0.2432
29352W        W72405  19.071  17.396  10.185  0.4247  0.1382 -0.1940
29353W        W72406  13.466   9.280  10.725 -0.0132 -0.2781 -0.1449
29354W        W72407  15.388   5.648   2.614 -0.0549 -0.2278  0.3624
29355W        W72408  33.457   9.773  15.735  0.0871  0.1363  0.0424
29356W        W72409  26.634  31.968  25.994  0.1698 -0.0450  0.1001
29357W        W72410  28.959   2.256   9.986 -0.2022  0.0796  0.1803
29358W        W72411   4.754   2.868   5.893 -0.0902  0.2706  0.2093
29359W        W72412  12.777  19.223   6.089 -0.0978  0.1148 -0.2765
29360W        W72413  23.541  10.035   4.894 -0.1470  0.2428  0.1818
29361W        W72414  22.897  30.139   8.288  0.0694 -0.0796  0.2464
29362W        W72415  33.772   1.479   4.615  0.3068 -0.2793 -0.0591
29363W        W72416   9.160  12.099   8.892  0.0579  0.4005 -0.1337
29364W        W72417   2.655   6.707   1.700 -0.1065  0.2458  0.0506
29365W        W72418  28.352  24.280   7.736  0.1461  0.0985 -0.0087
29366W        W72419  25.216  27.913  23.216 -0.2220 -0.1032  0.2717
29367W        W72420   6.578  32.828  28.670  0.1397 -0.0720  0.2816
29368W        W72421  25.590  29.985   8.078  0.1078 -0.3001 -0.0899
29369W        W72422  31.459   8.313   0.120 -0.0744  0.4973  0.3430
29370W        W72423  20.344  26.829   6.424  0.0831 -0.2174  0.2600
29371W        W72424  25.541  16.475   1.047  0.0104 -0.0581  0.0049
29372W        W72425  19.657  13.933   9.641  0.0736  0.0750  0.0345
29373W        W72426  18.914   6.519   2.789 -0.2368  0.1044 -0.0212
29374W        W72427  33.964  31.473   8.796  0.1273 -0.1067  0.0996
29375W        W72428  24.323  24.068   9.037  0.1134  0.1292  0.1742
29376W        W72429  21.177   9.219  28.672 -0.3480  0.2089 -0.0370
29377W        W72430   1.084  26.936  27.173  0.0154 -0.1160  0.2112
29378W        W72431  26.171  29.116   7.739 -0.2388 -0.0387  0.0314
29379W        W72432  16.228  20.974  24.121 -0.0537 -0.0415 -0.1282
29380W        W72433   0.149   4.164   0.059  0.2332  0.0569  0.1011
29381W        W72434  32.133   3.537   4.506  0.0171  0.2449 -0.2661
29382W        W72435  25.355  10.881  27.038 -0.0421 -0.1722  0.0317
29383W        W72436  17.784  25.005   6.713  0.2136 -0.1001  0.1519
29384W        W72437  10.395  24.023  28.713 -0.0976 -0.0234  0.0601
29385W        W72438  25.701   7.431   7.434 -0.2291 -0.1647  0.0750
29386W        W72439  22.824  24.718   9.198  0.1236  0.3056  0.0258
29387W        W72440  18.104   9.506   0.496 -0.3931  0.2533 -0.0161
29388W        W72441  18.966  11.750  15.686  0.1706 -0.0245  0.3003
29389W        W72442  28.912   4.386   2.548 -0.0856  0.2310 -0.2228
29390W        W72443  25.521  21.234  14.038  0.0540  0.3858 -0.2200
29391W        W72444  20.823  27.849   0.356  0.3242 -0.3910  0.0212
29392W        W72445  32.629  10.385   5.217  0.1155 -0.1673  0.2015
29393W        W72446  21.352  28.636  23.346  0.5016  0.2432  0.0290
29394W        W72447  19.342  27.176  10.379 -0.3440  0.0466  0.0754
29395W        W72448  22.074   7.112   4.679  0.0270  0.0410 -0.0295
29396W        W72449  34.364   1.189   3.077  0.1822 -0.0231 -0.0971
29397W        W72450  22.057   9.215   7.688 -0.2294  0.0675 -0.1131
29398W        W72451  22.168   2.673  19.825 -0.0695  0.1923  0.0860
29399W        W72452  32.919   3.361   4.287  0.1648 -0.2657 -0.5273
29400W        W72453  34.134   9.623   2.237  0.0708 -0.1859 -0.0149
29401W        W72454  19.252  22.800   2.123 -0.2319  0.1702 -0.0989
29402W        W72455  12.490   3.158  21.578 -0.2881  0.2058 -0.0331
29403W        W72456  24.844   1.244   2.665 -0.3387 -0.0609  0.2039
29404W        W72457  23.605  28.398  26.459  0.1836 -0.0125 -0.3893
29405W        W72458  30.668  12.710   4.424 -0.4447 -0.0582  0.0011
29406W        W72459   2.590   4.932  20.226 -0.2748  0.1550  0.4149
29407W        W72460  27.849   3.054   0.327 -0.2938  0.3384  0.0125
29408W        W72461  15.315   1.512   9.749  0.2526 -0.2591  0.0356
29409W        W72462   9.308  33.413   3.796 -0.0794  0.0296 -0.3572
29410W        W72463  11.865  33.548   9.470  0.2114  0.1554 -0.1834
29411W        W72464  22.865   5.423  14.356  0.0281  0.1389 -0.3474
29412W        W72465  26.215  28.863  16.313  0.3313 -0.1504 -0.0247
29413W        W72466  11.053  11.527   5.784 -0.0971  0.3327 -0.1406
29414W        W72467  12.056   7.534  25.576 -0.1195  0.2962  0.2571
29415W        W72468  18.116  30.333   6.446  0.0853 -0.1326 -0.1592
29416W        W72469  12.068   4.464   6.782  0.1011 -0.1720 -0.0968
29417W        W72470   7.162  30.192   7.108  0.1610 -0.1414 -0.1457
29418W        W72471   9.457  32.306   5.277  0.2209  0.1580 -0.1766
29419W        W72472   3.393   2.812   8.131 -0.2587 -0.2194 -0.1115
29420W        W72473  12.381  26.648   2.577  0.0892 -0.0299 -0.1307
29421W        W72474  23.285  30.026   7.903  0.0485  0.0545 -0.3158
29422W        W72475  25.618   7.900  26.564  0.2351 -0.0775 -0.0525
29423W        W72476  14.553  31.195  18.015 -0.0096 -0.2451  0.0411
29424W        W72477  25.900   1.243   5.989  0.0080 -0.2486  0.2588
29425W        W72478  10.221  26.244   2.017  0.0743 -0.2469 -0.0551
29426W        W72479  33.501   8.308   3.810 -0.2857  0.2399 -0.0155
29427W        W72480  24.610  26.564  26.204  0.0415  0.0140 -0.1748
29428W        W72481  11.615  21.035  26.582  0.3431 -0.2031 -0.0132
29429W        W72482  18.550  28.837   6.755 -0.2702  0.0817 -0.0336
29430W        W72483  22.608  30.860  22.812  0.0689 -0.2390 -0.3107
29431W        W72484   7.982  14.237  24.705  0.1038 -0.1136  0.0954
29432W        W72485  31.972  22.862   1.454 -0.1187 -0.0260 -0.1488
29433W        W72486   0.504  20.642   8.309  0.0128  0.0497  0.0219
29434W        W72487  18.083  33.933   0.766 -0.1228 -0.4606  0.0699
29435W        W72488  27.213   3.643   4.284  0.1496  0.0086 -0.1981
29436W        W72489  11.246   1.195   5.696  0.1408 -0.2702  0.0328
29437W        W72490  31.607  27.598  25.293  0.0894 -0.0109  0.4150
29438W        W72491   4.558  10.849  23.258  0.0234 -0.2900  0.2624
29439W        W72492  33.766  10.925  26.014 -0.0600  0.0614 -0.1136
29440W        W72493  23.916   5.854  27.325  0.0680 -0.0709  0.2360
29441W        W72494  11.187  22.402   1.458  0.0427 -0.0406 -0.1727
29442W        W72495   2.011   0.950  10.151 -0.1528 -0.1524  0.0833
29443W        W72496   5.638  13.317   1.372 -0.0324  0.0217 -0.0303
29444W        W72497  16.496   6.760   1.099 -0.0309 -0.1903 -0.2307
29445W        W72498  24.120   8.283   6.055  0.0063 -0.1566 -0.1023
29446W        W72499  13.976  31.236   6.786  0.1141 -0.2051 -0.0346
29447W        W72500  18.908   0.803   5.784 -0.1061 -0.2735  0.0602
29448W        W72501  12.496  29.647   3.660  0.2005  0.0360 -0.0888
29449W        W72502  25.144   3.144  19.772 -0.1809 -0.1673  0.1297
29450W        W72503  19.069  21.265   1.642 -0.3409 -0.1435 -0.2728
29451W        W72504  29.906  29.533  23.066 -0.1118  0.2790  0.0455
29452W        W72505  22.217  25.406   4.841  0.1104  0.0040 -0.1782
29453W        W72506  20.662  14.181   1.633  0.2315 -0.1391  0.0996
29454W        W72507  19.417   3.588   1.730 -0.1631 -0.0282 -0.0508
29455W        W72508  30.029  22.238   7.758 -0.0989 -0.0233  0.1348
29456W        W72509  29.823  12.695   5.716  0.3424 -0.1853 -0.0482
29457W        W72510  15.260   1.163  29.016  0.0690 -0.1205  0.0405
29458W        W72511  30.683  32.170  27.391 -0.1101 -0.1628  0.1310
29459W        W72512  14.798  31.351   2.686 -0.0601 -0.0301  0.0660
29460W        W72513  16.056  24.610  19.743 -0.1979  0.2452  0.3921
29461W        W72514  13.875  31.151   0.430  0.3571  0.4517 -0.2538
29462W        W72515  21.641  34.677   9.030 -0.3225 -0.0194  0.2712
29463W        W72516  31.201   6.239  21.493 -0.0682  0.0290 -0.0234
29464W        W72517  26.411   1.339  27.362  0.0551 -0.1481 -0.1660
29465W        W72518  27.491   4.025   5.448  0.0419  0.0849 -0.1201
29466W        W72519  19.590  33.363   1.350 -0.3122  0.0431 -0.1762
29467W        W72520  21.428  28.633   6.091 -0.1226  0.0143  0.2897
29468W        W72521  15.423   5.893   9.436 -0.0534  0.1119  0.1585
29469W        W72522  13.983   3.772   2.232  0.0735 -0.0702  0.0632
29470W        W72523  22.756   4.494   9.633 -0.0303 -0.1612  0.0467
29471W        W72524  21.458  26.855  24.780 -0.1168 -0.1061 -0.2178
29472W        W72525  13.686  21.991   9.161 -0.0680  0.1614  0.1567
29473W        W72526  24.914  29.224   9.631 -0.1275 -0.0893 -0.3323
29474W        W72527  24.514  10.665  23.176 -0.1499 -0.3294 -0.2295
29475W        W72528  19.971   7.559   3.883  0.1447 -0.3791  0.2007
29476W        W72529  14.401  12.706  23.007  0.0035  0.1812 -0.0330
29477W        W72530  22.548   0.254   5.250 -0.1593 -0.0200 -0.0685
29478W        W72531  15.417  14.955  28.031 -0.0654 -0.0983  0.2127
29479W        W72532  23.448  30.414   5.254  0.3521  0.0023  0.0328
29480W        W72533  19.107   7.131   5.999  0.2448  0.1311  0.0185
29481W        W72534   1.507  34.342   8.781 -0.0651 -0.2652 -0.4039
29482W        W72535  10.846  14.683   9.201 -0.0519 -0.0008  0.2767
29483W        W72536  22.327  26.639   9.218  0.0428 -0.1528  0.2172
29484W        W72537  12.375   4.767  28.304  0.0873  0.1779  0.2571
29485W        W72538  32.201  25.778  29.155 -0.2021  0.3382  0.1427
29486W        W72539  22.966  30.353   5.183 -0.2193 -0.1502  0.0236
29487W        W72540  10.462   9.294   2.917 -0.3376 -0.2441  0.1901
29488W        W72541  22.223  13.724   7.448  0.2299 -0.0811  0.1932
29489W        W72542  28.455  34.644   8.485 -0.3289  0.1278  0.0227
29490W        W72543  34.495   9.624   7.427 -0.1249  0.4684  0.0102
29491W        W72544  16.508  24.970   0.433  0.1455 -0.0839  0.1478
29492W        W72545  20.590   5.747  23.677  0.1593  0.0946  0.1015
29493W        W72546   0.562   2.372   5.692 -0.2095 -0.0837  0.1663
29494W        W72547  23.565   1.217  23.469 -0.0837  0.2815 -0.1045
29495W        W72548  10.325  33.658   5.135 -0.1689  0.2745  0.2547
29496W        W72549  12.998  31.303   6.842  0.0744  0.1519  0.0310
29497W        W72550   1.408  23.238  25.856 -0.0189  0.2936 -0.0620
29498W        W72551  25.468  18.542   4.375  0.2639  0.0284  0.4780
29499W        W72552  27.521  29.421  20.015  0.0675  0.0996 -0.1253
29500W        W72553  19.803  22.464   0.500 -0.3762 -0.1534 -0.3237
29501W        W72554  20.083   5.572   9.841  0.0028  0.0530 -0.3537
29502W        W72555  22.360   3.855   6.676 -0.0243  0.1881  0.1810
29503W        W72556  19.562  28.168   4.693  0.2392 -0.6407  0.1288
29504W        W72557  16.482   3.073   9.651 -0.1705  0.2809  0.1977
29505W        W72558  27.859  24.418   1.484 -0.2520  0.1019  0.0106
29506W        W72559  28.597  21.037   6.698 -0.3687  0.3050  0.0732
29507W        W72560  12.914  18.598  21.419  0.3599  0.1210  0.2971
29508W        W72561  29.374  13.796   9.274  0.2053  0.3694 -0.1698
29509W        W72562  26.467  32.502   8.838 -0.2000 -0.1619  0.3768
29510W        W72563  23.476  33.217   7.723 -0.2452 -0.2818 -0.1428
29511W        W72564  31.065  26.136   3.142  0.1707 -0.2179 -0.4584
29512W        W72565  34.037   1.542  26.137 -0.0386  0.2051  0.1227
29513W        W72566  14.596  26.513   1.783 -0.2094 -0.0826 -0.0233
29514W        W72567  21.005   9.813   1.547  0.2580 -0.1815  0.0467
29515W        W72568  15.947  26.620   3.614 -0.0378 -0.1574  0.0174
29516W        W72569  27.636  28.029   2.774 -0.1594  0.0691 -0.2495
29517W        W72570  30.294   4.203  22.339 -0.1756 -0.1839 -0.1222
29518W        W72571  30.315  30.403   0.359  0.1832  0.0474  0.1456
29519W        W72572  19.909   9.365   4.450 -0.1700 -0.2525 -0.0489
29520W        W72573  28.009  31.617   9.715 -0.0059 -0.0969 -0.1227
29521W        W72574  27.112  26.062  28.974 -0.2691 -0.0976 -0.0230
29522W        W72575   2.786  29.572   0.789  0.1377 -0.2134  0.1245
29523W        W72576  18.168   8.181   5.335 -0.2078 -0.0707 -0.0240
29524W        W72577  22.062  12.792   2.546  0.3316  0.2852 -0.0528
29525W        W72578   7.706   5.691  27.462  0.3462 -0.2155 -0.2430
29526W        W72579  28.028   4.956   4.969  0.0956  0.0206  0.3004
29527W        W72580   5.298   1.953   5.843  0.2333 -0.1439 -0.2858
29528W        W72581  21.497   6.920   7.688  0.1926 -0.1314 -0.0815
29529W        W72582  24.113   2.429   5.853 -0.5497 -0.0378  0.1455
29530W        W72583   8.320   9.426   9.041  0.2421 -0.0823 -0.1249
29531W        W72584  29.680  29.879   7.338  0.0568 -0.0006  0.0154
29532W        W72585  34.569  26.191   9.548  0.1245  0.2722  0.1640
29533W        W72586   0.599  12.999   9.001  0.0890 -0.1648  0.0138
29534W        W72587  33.138  31.961   6.271  0.2707 -0.5578 -0.1105
29535W        W72588  30.053   6.111   8.443  0.1957  0.2095  0.0380
29536W        W72589   9.339  31.674  14.891  0.0975 -0.0763 -0.1437
29537W        W72590   1.289   5.686  28.394  0.2291  0.2398  0.0881
29538W        W72591  33.597  27.743   2.981  0.1440 -0.4576  0.0055
29539W        W72592  27.626  20.527   0.921  0.2312 -0.2784 -0.2774
29540W        W72593  21.985  26.397  23.468  0.1812  0.1187 -0.0088
29541W        W72594   9.503   0.960  27.695  0.2155  0.2859 -0.0568
29542W        W72595   1.685   4.872   8.068  0.0818  0.1196  0.2803
29543W        W72596  24.746  30.013  28.458  0.1507  0.1847  0.0519
29544W        W72597   2.854   7.177   3.066  0.2413 -0.0874 -0.1852
29545W        W72598  26.489   5.110   8.465  0.1150 -0.0795  0.1059
29546W        W72599  32.957   4.817  23.489  0.0051  0.1487 -0.0393
29547W        W72600  32.188  26.647  20.723 -0.1849  0.1310 -0.5954
29548W        W72601  26.738  31.945   0.634 -0.0455  0.2534 -0.0822
29549W        W72602  11.909  30.887   5.339  0.1146 -0.2365 -0.3300
29550W        W72603  31.791   6.879  25.023 -0.2849  0.1516 -0.1659
29551W        W72604  33.828  19.887   2.612 -0.1234  0.1823 -0.0288
29552W        W72605  18.818  17.870   5.594  0.2634 -0.2208 -0.1076
29553W        W72606  22.190   3.913  26.462  0.1188  0.1923  0.3153
29554W        W72607  33.971  15.148  20.467 -0.0005  0.2077  0.3041
29555W        W72608  16.916   8.202   2.064  0.2438 -0.1221  0.0910
29556W        W72609  26.690  24.380   7.023 -0.0263 -0.0450 -0.1797
29557W        W72610  14.695  22.055   4.652  0.3795 -0.0589  0.2945
29558W        W72611   7.586  26.540   6.618  0.1008 -0.1534  0.3457
29559W        W72612  17.931  26.328  28.413 -0.0643  0.4215  0.1492
29560W        W72613   0.654  23.624   9.214  0.0763  0.1686 -0.0719
29561W        W72614  14.441  30.259   8.330 -0.0935  0.1885  0.1321
29562W        W72615   0.359   3.009   9.870  0.4038 -0.2694  0.1539
29563W        W72616  28.778  22.981   6.663 -0.3850 -0.1188  0.0904
29564W        W72617  10.762   0.717   0.323 -0.0710 -0.3545 -0.2722
29565W        W72618  29.565   3.187   2.995 -0.0413  0.1425 -0.2690
29566W        W72619  33.824  31.722   7.704 -0.0729  0.0251 -0.1430
29567W        W72620  22.015  11.542   0.177 -0.0638  0.1015 -0.0399
29568W        W72621  26.297  34.679   8.869 -0.1385  0.1338  0.1620
29569W        W72622  28.885  22.533   5.617 -0.0990  0.1317  0.2676
29570W        W72623  22.571   0.451  17.878 -0.1672 -0.1224  0.1968
29571W        W72624  26.357  10.093   2.131 -0.1126 -0.0403 -0.1148
29572W        W72625  12.757  34.130  10.584 -0.0890 -0.1574  0.0856
29573W        W72626   7.407  27.424   7.688  0.4097  0.2443  0.1230
29574W        W72627  23.329   2.998  19.044  0.0642  0.1123  0.2347
29575W        W72628  33.343  11.450   2.284 -0.1523  0.0760 -0.0682
29576W        W72629  31.273  30.548   0.399  0.3606 -0.1155 -0.0939
29577W        W72630  13.822  34.191   9.426  0.0862 -0.0808  0.0102
29578W        W72631  27.338   9.943   9.320 -0.0107  0.0804  0.0335
29579W        W72632  30.645  20.814   9.141 -0.0599  0.0247  0.0047
29580W        W72633  30.059  29.574  18.213  0.2707 -0.1398  0.3126
29581W        W72634  26.083  31.533   8.010  0.0448  0.0319  0.0107
29582W        W72635  28.147  31.059   2.038  0.2467  0.2565 -0.1944
29583W        W72636  26.814  32.439   3.739  0.0707  0.0300  0.0555
29584W        W72637  31.882  11.276   3.817 -0.0509  0.1904 -0.0925
29585W        W72638  13.354  29.787  20.060 -0.0694 -0.0743 -0.1187
29586W        W72639  24.279   6.621   3.453  0.0262  0.2953  0.1743
29587W        W72640  34.061   7.841  24.561 -0.1744 -0.1283 -0.0650
29588W        W72641  14.831  16.496   6.539 -0.1496 -0.1102  0.1164
29589W        W72642  32.520   8.508   9.625 -0.1123 -0.2515 -0.0448
29590W        W72643  24.966   1.908   3.351 -0.0125  0.1795 -0.1237
29591W        W72644  29.291   7.781   0.677  0.0461 -0.1728 -0.0453
29592W        W72645  18.516   6.804  25.536  0.0617 -0.0952 -0.1503
29593W        W72646  15.124   4.175  24.364 -0.4525 -0.0002  0.1026
29594W        W72647  20.420  33.039   1.692 -0.1439  0.0838  0.2820
29595W        W72648  23.133  10.672   6.025  0.1609 -0.0802 -0.3203
29596W        W72649  25.796  14.172  27.823 -0.0187  0.0830 -0.0944
29597W        W72650  30.020  33.582   8.641 -0.1024  0.0540  0.3002
29598W        W72651  24.166  30.857   9.710  0.4005  0.1228  0.1577
29599W        W72652  20.860  28.278   4.208 -0.2270 -0.3754  0.0837
29600W        W72653  20.272  10.453   8.557  0.1521 -0.4015 -0.1171
29601W        W72654  20.650  27.152   6.487 -0.1220 -0.3030 -0.0357
29602W        W72655  11.936  26.454  19.691 -0.1742 -0.0365  0.1785
29603W        W72656  32.094   1.383   5.874  0.0099  0.3430 -0.1633
29604W        W72657  22.459   0.632   3.334  0.2016  0.3431 -0.2134
29605W        W72658  10.088   0.453  29.081 -0.1709 -0.0475  0.0681
29606W        W72659  10.557  20.054   6.196 -0.0118 -0.2211 -0.4417
29607W        W72660  31.775  30.504   5.991  0.0274 -0.2789 -0.0201
29608W        W72661  21.867   1.830   9.761 -0.0526 -0.2194 -0.1152
29609W        W72662  11.892  10.849   7.542 -0.2484  0.2342 -0.1889
29610W        W72663  25.757   0.204  15.796 -0.0689  0.1229  0.0275
29611W        W72664  15.533  26.484   5.442 -0.0157 -0.0921  0.1097
29612W        W72665  25.034   1.809   4.204  0.0445 -0.0617 -0.0461
29613W        W72666  12.925  34.607   5.985  0.2034 -0.1284  0.0159
29614W        W72667  22.296  29.010   8.832 -0.1790 -0.1676 -0.2095
29615W        W72668  27.967   6.990   8.810  0.1918 -0.0780 -0.1247
29616W        W72669  28.936   2.266  10.500  0.4332 -0.1482  0.2664
29617W        W72670  11.737  10.221   1.597 -0.0688 -0.1467  0.3470
29618W        W72671  24.780  17.129   3.388  0.1698  0.0580  0.3931
29619W        W72672  25.560  29.731   6.626  0.0418  0.0377 -0.0294
29620W        W72673   4.429   9.140   6.890  0.0555 -0.0519 -0.0304
29621W        W72674  33.372  32.415   6.296  0.0821  0.1184  0.1483
29622W        W72675   3.993  21.999   3.072  0.1583 -0.0331  0.1973
29623W        W72676  12.453  33.408   1.734  0.0104  0.2165  0.2031
29624W        W72677  17.951  10.429   7.568 -0.2197 -0.2032 -0.2265
29625W        W72678  10.441  27.982   4.378 -0.0964 -0.0541 -0.0677
29626W        W72679  34.045   6.249   9.269  0.1349 -0.0311 -0.0116
29627W        W72680   2.925   4.711  24.794  0.1098 -0.3017  0.2057
29628W        W72681  22.799   3.462   3.050  0.1304  0.0256 -0.1717
29629W        W72682   4.404   0.426   1.142  0.0516 -0.1424 -0.1372
29630W        W72683  21.119   3.600   3.574  0.0194  0.3380 -0.0943
29631W        W72684   4.284  31.996   6.508  0.2027 -0.0103  0.2293
29632W        W72685  31.532   0.084  18.864  0.0033 -0.1101  0.2828
29633W        W72686  23.108  28.439  23.702 -0.2276 -0.1747  0.2658
29634W        W72687  28.284   0.543   4.093 -0.1100 -0.0393  0.1739
29635W        W72688   6.467  26.417  28.235 -0.0810 -0.1348  0.2415
29636W        W72689  21.832  27.066   2.010  0.0831 -0.0202  0.1416
29637W        W72690  25.592   4.347   9.463  0.2437  0.1382  0.1369
29638W        W72691  20.959  15.024   3.772 -0.1798 -0.1631  0.3244
29639W        W72692  17.359  32.447   2.678 -0.2834 -0.1288 -0.2465
29640W        W72693  34.451   2.932   0.829  0.0291  0.0069 -0.1586
29641W        W72694  19.321  19.310  22.336  0.1167  0.0674 -0.0546
29642W        W72695  16.329   7.233   6.121  0.1419 -0.1699  0.2855
29643W        W72696  26.545  25.383  28.459 -0.1740 -0.0322 -0.0584
29644W        W72697  30.638  25.538   8.445 -0.1223  0.1788  0.3265
29645W        W72698  14.282  25.580   5.633  0.1463 -0.0409 -0.3681
29646W        W72699  23.561  34.543  10.947 -0.0019 -0.1722  0.1497
29647W        W72700  32.558   7.465   9.833  0.1438 -0.0002  0.1517
29648W        W72701  34.013  24.266   8.324  0.0440 -0.0563 -0.0631
29649W        W72702  11.729  29.275   3.039 -0.2288 -0.0361  0.2893
29650W        W72703   0.603   0.381   1.122 -0.2984  0.0399 -0.0421
29651W        W72704  22.277  29.999   6.308 -0.1798  0.1279  0.1518
29652W        W72705   0.145  14.125   9.652 -0.0562 -0.0696 -0.3019
29653W        W72706  21.642  27.398  26.321  0.2780  0.1356 -0.1155
29654W        W72707  28.518  12.029  22.382  0.0862  0.2991 -0.2252
29655W        W72708  24.713   5.390   6.642 -0.3320 -0.0900  0.0145
29656W        W72709   1.511  14.366   2.251 -0.1092  0.3938 -0.1717
29657W        W72710  33.263   1.533   4.947 -0.3318  0.0400 -0.0204
29658W        W72711  27.341  32.657  25.175 -0.2837 -0.1775 -0.0339
29659W        W72712  18.861  20.507  25.791 -0.1260  0.0895 -0.0308
29660W        W72713  31.852  33.789  14.747  0.2325 -0.1210 -0.1015
29661W        W72714  17.464   1.815   5.490 -0.0763 -0.0668 -0.2677
29662W        W72715  18.741  34.143  26.798 -0.0490 -0.2586 -0.0260
29663W        W72716  31.613  34.420   2.067 -0.1662  0.1138  0.1068
29664W        W72717  28.895   5.811   9.935 -0.1624 -0.0378 -0.2998
29665W        W72718  28.605  14.766  27.245  0.0102 -0.3288  0.1287
29666W        W72719  29.782   1.719   9.349  0.4961  0.1846  0.0132
29667W        W72720  24.147  24.017  27.925  0.2684  0.0755 -0.1074
29668W        W72721  30.320  33.861   8.276 -0.2351  0.1249  0.0730
29669W        W72722  32.762  12.662  28.340  0.0764  0.0299 -0.1748
29670W        W72723  31.581  33.697  25.837 -0.1372 -0.1375  0.1168
29671W        W72724  25.028   2.616   1.712  0.2127  0.0570  0.1419
29672W        W72725   6.633   4.532   2.695 -0.0496 -0.2186 -0.1788
29673W        W72726  26.825   1.410   7.894  0.0671  0.0306 -0.3212
29674W        W72727  29.079  30.318  14.536  0.2258 -0.1964 -0.0629
29675W        W72728  28.083  32.507  28.387  0.1225  0.2651 -0.0185
29676W        W72729   4.596  14.654   9.966 -0.0133  0.0644  0.0005
29677W        W72730  21.575   9.210   7.273 -0.2501  0.2645  0.0561
29678W        W72731  30.590   6.456  28.647 -0.1525  0.1624 -0.0155
29679W        W72732  24.698  20.405  24.944 -0.1284 -0.1278 -0.3955
29680W        W72733   5.001   9.626  16.466 -0.1662  0.0147  0.3106
29681W        W72734  12.511  18.152   9.145 -0.3529  0.1209 -0.1473
29682W        W72735  22.631  24.079  22.299 -0.1098  0.1643  0.3082
29683W        W72736  26.633   6.535   8.577 -0.3780 -0.1535 -0.0896
29684W        W72737  30.838  32.546   3.565  0.3494 -0.3130  0.1160
29685W        W72738   0.744  27.297  27.146  0.0233  0.0500  0.0430
29686W        W72739   2.089   6.822   8.843  0.0480 -0.1426 -0.0478
29687W        W72740  15.364  20.761   1.330  0.3325 -0.0378  0.0753
29688W        W72741  24.828  17.084   0.577 -0.0394 -0.0676  0.0538
29689W        W72742  29.240   1.090   3.876 -0.1623 -0.3499  0.0199
29690W        W72743  20.423  17.465  13.837 -0.1124  0.0096 -0.1074
29691W        W72744  31.623   5.686   6.973 -0.2290 -0.2754 -0.3232
29692W        W72745  25.413   6.451   6.184 -0.1461  0.0503  0.1773
29693W        W72746  12.568   6.742  28.484 -0.3951 -0.1128 -0.0930
29694W        W72747  32.856  20.824   0.327 -0.2779  0.1011  0.1667
29695W        W72748  11.357  26.700  16.282  0.2135 -0.0269 -0.4406
29696W        W72749  34.622  25.542  23.333 -0.1298  0.0924 -0.0767
29697W        W72750  19.244   1.815  28.578  0.0214 -0.4942  0.2189
29698W        W72751  18.702  25.684  27.497 -0.0411 -0.2295 -0.1615
29699W        W72752   4.866   6.861  27.614 -0.0126 -0.1440  0.0197
29700W        W72753  33.622  15.428   2.484 -0.0087 -0.1706 -0.2754
29701W        W72754  12.450  26.836   5.686  0.1294  0.1672 -0.0169
29702W        W72755   0.755  30.915  26.516 -0.0276 -0.1460  0.0107
29703W        W72756  30.971   4.809   3.677 -0.4379  0.0982 -0.1884
29704W        W72757   3.511   0.906   5.182  0.0097  0.2730 -0.0080
29705W        W72758  17.787   5.148  10.479 -0.0207  0.1876 -0.2639
29706W        W72759  31.724  20.484  14.946  0.0298 -0.2466  0.0573
29707W        W72760  34.622  22.608   7.522  0.0969  0.0254 -0.1219
29708W        W72761   7.034  26.200   4.066 -0.0504 -0.3159 -0.0613
29709W        W72762  19.116  25.083   6.521  0.0824  0.0970 -0.1892
29710W        W72763  10.390  26.949  28.701  0.4764  0.0476  0.0373
29711W        W72764  31.120  29.915  14.787 -0.1209 -0.1052 -0.2273
29712W        W72765  29.439   3.112   8.116  0.0808 -0.0362 -0.2469
29713W        W72766  19.488  12.687   0.339 -0.3045 -0.2441  0.0192
29714W        W72767   5.041   1.593   9.157  0.0681  0.0085 -0.4393
29715W        W72768  15.313  28.918   2.894 -0.0476 -0.1154 -0.1552
29716W        W72769  21.386   2.761  22.972 -0.0619  0.0516  0.0104
29717W        W72770  21.087  34.335   7.942 -0.0765 -0.2100 -0.0001
29718W        W72771  32.308  22.694   7.757  0.0296 -0.0260 -0.1191
29719W        W72772  28.468  16.469  26.889 -0.0071  0.1590 -0.1244
29720W        W72773  28.192   7.128  18.893 -0.0380  0.1751 -0.1543
29721W        W72774  27.957   1.786  19.841 -0.1554  0.0573 -0.0796
29722W        W72775  31.391  14.474   9.260 -0.0073  0.1163 -0.0944
29723W        W72776   8.616  10.860  28.646 -0.2962  0.0914  0.1573
29724W        W72777   6.346   9.384  28.938  0.1164 -0.1824 -0.2956
29725W        W72778  31.417   0.743   9.504 -0.3654 -0.1866  0.0953
29726W        W72779  21.339  34.206  27.974  0.2955 -0.1263  0.0090
29727W        W72780  24.074  17.916   6.315  0.1757 -0.1291  0.2057
29728W        W72781  31.586  22.213  28.416 -0.2617  0.1120 -0.0108
29729W        W72782  34.684   2.275  19.900 -0.0080  0.1252  0.0491
29730W        W72783   1.261   6.619  25.937  0.1290  0.2072  0.0674
29731W        W72784  27.014  12.850   8.952 -0.0456  0.4925  0.2250
29732W        W72785  26.277  10.498   2.382  0.1347  0.1253  0.2008
29733W        W72786   0.388  25.937  28.773 -0.1473 -0.2638 -0.0937
29734W        W72787   2.571   0.122  18.654  0.0646  0.2215  0.0286
29735W        W72788   7.577  23.667   3.316  0.0891 -0.1073  0.1044
29736W        W72789  10.851   8.927   7.711  0.1998 -0.1535 -0.0757
29737W        W72790  24.154  25.065  20.541 -0.1709 -0.2401  0.3151
29738W        W72791  17.463  10.238  23.235  0.2229 -0.0461 -0.0501
29739W        W72792  22.740  11.961   0.633  0.1934 -0.2900 -0.0339
29740W        W72793  27.615  32.959   1.872 -0.2950  0.0914  0.1906
29741W        W72794  33.713   4.503  26.689  0.0254  0.0659  0.3378
29742W        W72795  31.191  28.412   7.674  0.0091 -0.2561  0.2774
29743W        W72796  15.346  25.356   4.789  0.0583  0.1066  0.0609
29744W        W72797  19.059   1.001   6.668  0.0028  0.4436 -0.1409
29745W        W72798  22.182   8.872   5.741  0.0947 -0.1302  0.3760
29746W        W72799  25.010  28.708   5.238 -0.0632 -0.1291  0.0611
29747W        W72800  20.464  33.917   7.634 -0.0124  0.0172 -0.1459
29748W        W72801  25.853  16.782  25.593 -0.2355  0.2069  0.2316
29749W        W72802  14.955  24.805   2.762 -0.4388  0.0565  0.1028
29750W        W72803  30.959   3.009  25.516 -0.1877  0.2134  0.0997
29751W        W72804  30.689  28.887  19.873 -0.2350 -0.1103 -0.0328
29752W        W72805  28.478  21.086  10.186  0.2386  0.1013  0.1191
29753W        W72806   2.169  33.041   2.974  0.1061  0.0533 -0.1610
29754W        W72807  15.040  29.388   9.590  0.0833 -0.3728  0.2069
29755W        W72808  20.675   5.405   5.464 -0.0362  0.0652  0.5974
29756W        W72809  30.244   7.468   1.053  0.0856 -0.1814 -0.4532
29757W        W72810  26.530  14.747   4.772  0.0882 -0.2953  0.1317
29758W        W72811   0.106   1.779   0.849  0.0208  0.0713 -0.2126
29759W        W72812  12.259  12.035  25.555 -0.1177 -0.3053  0.1776
29760W        W72813  18.248  33.868   9.350 -0.2555  0.1599 -0.0088
29761W        W72814  19.166   0.849   3.829  0.2448  0.0362  0.2587
29762W        W72815  30.616  10.727   8.285 -0.2038 -0.2726 -0.3327
29763W        W72816  22.458   5.373  26.688 -0.3532  0.4319  0.0819
29764W        W72817  20.691  32.553   7.681  0.0866 -0.2035  0.0403
29765W        W72818  21.225  27.362   9.778 -0.0932 -0.1449  0.0462
29766W        W72819  25.830  32.901   4.962 -0.3262  0.1392  0.1023
29767W        W72820  28.112  29.100  23.133  0.0106  0.1386 -0.2916
29768W        W72821   9.382  31.573   7.427 -0.0192  0.1217  0.2844
29769W        W72822  33.833  29.493   3.724 -0.0488 -0.3393 -0.1805
29770W        W72823  17.297  22.579   6.584  0.1826 -0.0234 -0.3605
29771W        W72824  31.167  32.913  22.934  0.0268  0.1324 -0.0771
29772W        W72825  25.482   9.240   2.733 -0.1908  0.1606 -0.0152
29773W        W72826  24.142   6.369  23.672 -0.1856  0.2108  0.3160
29774W        W72827  16.672  29.197   6.872 -0.0524  0.1336  0.2417
29775W        W72828  19.918  24.709   8.834 -0.0632 -0.0580 -0.0330
29776W        W72829  21.385   1.390   4.988  0.2250 -0.3025 -0.0737
29777W        W72830  29.659   0.089   9.659 -0.1841 -0.0907 -0.1458
29778W        W72831  29.872   3.793   1.833 -0.0156 -0.0682 -0.0197
29779W        W72832   0.830  23.067   7.749  0.0515 -0.1107 -0.0399
29780W        W72833  27.522  24.082  24.740 -0.2036  0.1846 -0.0187
29781W        W72834   4.246   3.814  25.826 -0.0163 -0.1148  0.3524
29782W        W72835   5.796   7.083  16.506 -0.0907 -0.0608 -0.1682
29783W        W72836  32.189  34.258   1.945 -0.0364  0.4174 -0.1372
29784W        W72837  24.660  23.512   3.400  0.1843 -0.1293 -0.0253
29785W        W72838  25.918   1.590   7.624 -0.1720 -0.1295 -0.0019
29786W        W72839  29.382  31.351  20.238 -0.3289 -0.1209 -0.0897
29787W        W72840   2.847   2.176  20.798 -0.3306  0.1556 -0.3318
29788W        W72841  21.773   0.305  28.898  0.1241 -0.1344  0.0709
29789W        W72842  22.180   3.740  25.316  0.1614  0.1834 -0.0154
29790W        W72843  25.857  32.132   7.939 -0.0157 -0.1842 -0.1241
29791W        W72844  25.407   5.482  25.265  0.0431 -0.0759 -0.0056
29792W        W72845  32.706  25.824   8.382  0.3386 -0.0410  0.1819
29793W        W72846  12.189   1.918  27.932  0.1060 -0.2396  0.2092
29794W        W72847  28.966   2.095   2.386 -0.2016 -0.1890  0.0238
29795W        W72848  27.044  25.922  27.334 -0.0049 -0.0852  0.0941
29796W        W72849   1.436  28.761  28.881 -0.2304  0.0740  0.0495
29797W        W72850  25.238  15.779  26.700 -0.2898 -0.1759  0.4050
29798W        W72851  16.923  31.348   2.269  0.1317  0.0017 -0.3092
29799W        W72852  33.229  33.237  25.405  0.1515 -0.0993 -0.0885
29800W        W72853  23.363  12.923  26.811  0.0090  0.2167  0.0183
29801W        W72854  30.756   8.944   9.851  0.2105  0.1096 -0.4058
29802W        W72855  31.624  18.129  28.136  0.1963  0.2118 -0.3511
29803W        W72856  26.716   0.215  28.128  0.0308 -0.2902 -0.3077
29804W        W72857  18.080   5.035  19.785 -0.1556  0.2252 -0.0223
29805W        W72858  32.998  27.298   0.357 -0.0759  0.0313 -0.0472
29806W        W72859  23.563   4.793   6.374 -0.1150 -0.0132 -0.5643
29807W        W72860  29.949   3.770   8.779  0.0237 -0.2917 -0.0195
29808W        W72861  18.992   0.317   5.505  0.1057 -0.2151 -0.3965
29809W        W72862  25.823   5.584  27.892 -0.2022 -0.1295  0.1564
29810W        W72863  24.322  11.527   8.588  0.0306 -0.1309  0.0813
29811W        W72864   0.549   0.032  20.085  0.1579  0.1035 -0.1464
29812W        W72865  29.488   1.796  28.571 -0.0696 -0.1481  0.0414
29813W        W72866  21.286   9.527  28.250  0.1583  0.2552 -0.0269
29814W        W72867  20.059  33.644   1.163  0.0039 -0.1113 -0.1131
29815W        W72868  27.178  19.834  27.921 -0.0791  0.2142  0.1633
29816W        W72869  17.908  29.189   5.921  0.1184  0.1371 -0.1422
29817W        W72870  25.994   1.111  22.896 -0.1002  0.0616 -0.1893
29818W        W72871  27.153   8.941  27.215  0.1446 -0.0871  0.0179
29819W        W72872  22.757  33.466  14.279 -0.2507 -0.1499 -0.0191
29820W        W72873  18.336  14.489   0.553 -0.1782 -0.1317  0.0301
29821W        W72874  21.660  24.224   8.371  0.0247  0.2239 -0.2748
29822W        W72875   0.639  14.854  23.373  0.2759 -0.0493  0.0651
29823W        W72876  31.871   6.347   0.007 -0.0350 -0.1759 -0.3889
29824W        W72877  30.334   6.966   0.882  0.2667  0.1264 -0.3210
29825W        W72878   3.035  33.834   3.984 -0.0751  0.0132  0.1433
29826W        W72879  33.548   8.529  25.885  0.0684  0.1719 -0.0758
29827W        W72880  30.856  33.991   1.964 -0.3417  0.0756 -0.1520
29828W        W72881  29.192   0.953  23.942  0.1567 -0.1064 -0.0385
29829W        W72882   2.386   9.084   7.857 -0.0783  0.0152  0.1937
29830W        W72883   8.723  28.761   4.583 -0.3005 -0.2085  0.3323
29831W        W72884  15.736   0.536   7.506 -0.3774  0.1698  0.1236
29832W        W72885  14.300  21.433   9.253 -0.0428  0.2746 -0.0689
29833W        W72886   0.293  12.551   6.246 -0.1976  0.1679  0.0845
29834W        W72887   4.100   4.131   5.523 -0.2372  0.3496  0.0939
29835W        W72888  17.893   5.906   6.968 -0.2757 -0.5713 -0.3310
29836W        W72889  29.668   4.064  25.944 -0.1468  0.1658 -0.0659
29837W        W72890  16.738  12.143   5.285 -0.1879 -0.1608 -0.2663
29838W        W72891  19.778   6.505  28.039 -0.4269 -0.3645 -0.1787
29839W        W72892  24.705  30.706   3.046 -0.1112  0.0912  0.2085
29840W        W72893  13.119   6.479  17.079  0.2881 -0.0656 -0.0845
29841W        W72894  12.078  33.301   5.119 -0.0137 -0.3093 -0.1760
29842W        W72895  16.802  33.922   0.595  0.0482 -0.0816  0.2630
29843W        W72896  34.398   0.479  16.039  0.0509  0.0852 -0.2349
29844W        W72897  24.103   8.346  16.746  0.0147 -0.1129 -0.2531
29845W        W72898  31.293   4.831  20.446  0.0628 -0.1557  0.1898
29846W        W72899   4.081  26.160  20.061 -0.0325 -0.2292  0.3941
29847W        W72900  13.537   5.569  26.321  0.0852 -0.1296 -0.0863
29848W        W72901  31.741  30.388   6.794  0.1939  0.0084 -0.0980
29849W        W72902   1.282   0.744   6.852  0.0976  0.0173 -0.0010
29850W        W72903  19.175  12.702   5.741 -0.1171  0.1005 -0.0257
29851W        W72904  13.199  26.719  19.613 -0.0336  0.2481  0.1795
29852W        W72905  11.386  17.800  10.243  0.0731  0.3477 -0.3364
29853W        W72906  15.513   6.923   3.518  0.1735 -0.0406 -0.2255
29854W        W72907  23.348   9.207  18.145 -0.1896  0.1686 -0.0831
29855W        W72908  13.810   7.030  26.200 -0.2376  0.0044  0.2386
29856W        W72909  29.341   1.674   7.653  0.0775 -0.1442  0.1493
29857W        W72910  33.657   6.270  16.146  0.0458  0.1316 -0.1741
29858W        W72911   7.010   2.658   9.824 -0.0250  0.0374 -0.2809
29859W        W72912  30.057  12.278  17.100  0.4917  0.0325  0.0200
29860W        W72913  26.552   7.711   7.617 -0.0746  0.2864  0.0620
29861W        W72914  28.360  21.992   5.042 -0.0750 -0.0225  0.0881
29862W        W72915  27.892   3.027  18.294  0.1103  0.0485 -0.0948
29863W        W72916  18.175  14.608   8.710 -0.0615 -0.2239  0.0614
29864W        W72917  25.714  28.740  23.552  0.4505 -0.1879 -0.0256
29865W        W72918  23.121   0.535  29.092 -0.1941  0.0685 -0.0862
29866W        W72919  31.696  24.782  26.481  0.0308 -0.2427 -0.0731
29867W        W72920   1.334   0.817  19.631 -0.0542  0.2467 -0.1220
29868W        W72921  28.820   5.470   2.048  0.0395 -0.1474  0.1846
29869W        W72922   7.297  32.586  16.825  0.2564  0.4086  0.0480
29870W        W72923  22.771   8.098  19.746 -0.1022 -0.0199  0.0449
29871W        W72924   2.910  27.030  26.480  0.1920  0.1143 -0.0943
29872W        W72925  29.410   7.053   3.539  0.1432 -0.1792  0.0921
29873W        W72926  33.819   8.033   5.960  0.4260  0.0258 -0.2370
29874W        W72927  27.675   3.438   4.720  0.2472  0.0355  0.0186
29875W        W72928  29.666  32.238  24.310 -0.1741 -0.0169 -0.1025
29876W        W72929  22.676   4.595   5.708  0.0999 -0.1933  0.0013
29877W        W72930  27.526   4.087  23.181  0.1289  0.0309  0.0955
29878W        W72931  19.301  32.822   8.782 -0.1343  0.0466 -0.2453
29879W        W72932  20.042  24.509   6.143 -0.0119  0.1576 -0.2398
29880W        W72933  19.113  12.423  23.707  0.5214  0.2716 -0.2202
29881W        W72934   4.657  33.170  19.112  0.1187  0.0998  0.1983
29882W        W72935  24.840  25.278  19.201  0.1625 -0.2507 -0.4354
29883W        W72936   0.088  32.586  25.250  0.1127  0.3135 -0.0020
29884W        W72937  34.360  17.208  28.284 -0.1347  0.0678 -0.0364
29885W        W72938  21.967   6.660  21.330  0.1701  0.3117 -0.1357
29886W        W72939  15.352   5.320  16.035 -0.2069  0.2513 -0.1568
29887W        W72940   8.690   2.682   0.381 -0.3625 -0.0300 -0.0969
29888W        W72941  28.803   9.776   9.056  0.2510  0.1199 -0.0519
29889W        W72942   4.660   6.802   9.334 -0.0289  0.0125 -0.1760
29890W        W72943  26.220  31.477  26.401  0.1541  0.1675 -0.0844
29891W        W72944  23.145  26.300   8.022  0.0159 -0.1733  0.0347
29892W        W72945  26.154  33.302   1.463  0.1654  0.1305 -0.1967
29893W        W72946  20.624   4.674  23.935 -0.1520 -0.2096 -0.1375
29894W        W72947  21.088   0.273  24.941 -0.0578 -0.1531 -0.1340
29895W        W72948   1.232   9.206   0.972 -0.2512  0.1007  0.1403
29896W        W72949  17.712  10.441   6.599  0.0099 -0.1631 -0.1119
29897W        W72950   4.119   7.957  19.321  0.0139  0.0488  0.3462
29898W        W72951  18.758  27.332   1.639  0.2600 -0.0654  0.0496
29899W        W72952  31.284  24.242   5.095  0.2018 -0.1136 -0.1787
29900W        W72953  28.220  25.082  27.208  0.0008 -0.0213 -0.1315
29901W        W72954  16.828   3.482  27.035  0.0392 -0.1043  0.0319
29902W        W72955  21.135   9.632   7.813  0.0330 -0.0445  0.0641
29903W        W72956  14.540  25.273   2.848 -0.2390 -0.1806  0.3998
29904W        W72957  28.381  28.857  26.435  0.0649 -0.0587 -0.3296
29905W        W72958  26.153   2.694   9.045  0.1885 -0.1235  0.0883
29906W        W72959  27.963   8.068   6.699 -0.0935 -0.0216  0.0531
29907W        W72960  18.789  14.495  23.739 -0.2438 -0.3209  0.1790
29908W        W72961   3.086   6.144  27.923 -0.1426 -0.1350 -0.1202
29909W        W72962  34.208  21.758   7.227 -0.0672 -0.2346  0.2690
29910W        W72963   4.283   6.094   5.097  0.1133  0.0499  0.2442
29911W        W72964  26.732  22.051   6.711  0.1864 -0.0098  0.1754
29912W        W72965   0.585   5.323  22.343  0.1928 -0.1782  0.2552
29913W        W72966  27.112   9.468   0.793  0.0022 -0.2940  0.0794
29914W        W72967  28.775  30.221   2.205  0.2421  0.0365 -0.1812
29915W        W72968  19.588  10.421   5.835 -0.2346  0.2084 -0.2505
29916W        W72969  33.198  32.787  22.425 -0.0142 -0.3281  0.1090
29917W        W72970  26.448  27.142   4.164 -0.0845  0.0059  0.1590
29918W        W72971  22.308  34.094   5.942 -0.1119 -0.1321  0.4084
29919W        W72972  30.266  17.437  23.935 -0.1286  0.0293 -0.1711
29920W        W72973  32.508   9.786   1.951  0.2962 -0.0877 -0.0525
29921W        W72974  10.004   3.086   4.689 -0.1605 -0.1333  0.2915
29922W        W72975  29.851   5.776   1.671  0.0135 -0.3459 -0.1867
29923W        W72976   1.643  19.141  20.546  0.0939  0.1373  0.0096
29924W        W72977  27.825  28.811   0.872 -0.0205  0.1614 -0.2931
29925W        W72978  17.908  12.600  15.891 -0.2386 -0.2097 -0.0854
29926W        W72979  26.260   8.791  26.177 -0.1706  0.1541  0.1326
29927W        W72980  22.754   9.412  27.112 -0.1553 -0.2340  0.2151
29928W        W72981  26.933  18.599  23.519  0.1689  0.2347  0.1318
29929W        W72982  31.923   9.689   4.083 -0.0176 -0.1419  0.2982
29930W        W72983   1.614   9.351  27.948 -0.1267 -0.3885  0.1700
29931W        W72984  22.857   3.196  16.530 -0.2086  0.0677  0.1768
29932W        W72985  23.443  21.218   3.634  0.1606  0.0718  0.2367
29933W        W72986   7.588   1.488  27.772 -0.0780 -0.0885  0.3463
29934W        W72987  26.303   2.182  21.957 -0.0874  0.3341  0.2346
29935W        W72988   6.361  32.850   8.289  0.0952  0.0015  0.1185
29936W        W72989  17.312  12.923   5.507 -0.1368 -0.1448  0.1105
29937W        W72990  20.869   8.953   1.716 -0.1649 -0.0564 -0.1652
29938W        W72991  29.343   3.224  24.354 -0.0003 -0.0314  0.0390
29939W        W72992  23.141  29.023  23.461 -0.1168  0.1439 -0.0335
29940W        W72993  31.039  24.403  26.278 -0.0803 -0.0007 -0.1592
29941W        W72994  18.256   8.646   6.434 -0.1119  0.0225 -0.0272
29942W        W72995  24.275   7.662   1.323  0.2396  0.1284  0.1169
29943W        W72996  30.300   2.794   4.118 -0.0345  0.2940 -0.1903
29944W        W72997  28.640  20.548   5.929  0.0351 -0.0511  0.0596
29945W        W72998   0.632   3.043   1.166 -0.1016 -0.0168  0.0731
29946W        W72999  30.346   9.675  18.867  0.1684 -0.2586 -0.1621
29947W        W73000  29.705  27.322   1.347  0.0419  0.1037 -0.0956
29948W        W73001   6.188   0.307   6.531  0.0035 -0.1277 -0.0791
29949W        W73002  31.476  26.246   8.426  0.2849  0.2815 -0.0575
29950W        W73003   3.267  26.533   5.486  0.1101  0.2283  0.2460
29951W        W73004   6.294  11.956  20.599  0.0486  0.0483 -0.2649
29952W        W73005   0.874  30.608   4.299 -0.2123  0.0108 -0.0022
29953W        W73006  31.821  15.945  20.487 -0.1819 -0.1173 -0.0734
29954W        W73007  20.884  23.804   7.843 -0.0886 -0.2223 -0.1696
29955W        W73008  28.854   7.130   8.137 -0.4533 -0.3331  0.1164
29956W        W73009  21.176  25.190   6.618  0.1352 -0.1572  0.3183
29957W        W73010  27.008  24.794   6.352 -0.1294 -0.0985  0.0035
29958W        W73011  21.074  12.290   1.755  0.2195 -0.0486 -0.4847
29959W        W73012  28.802  13.423  18.843  0.0854 -0.0639 -0.1582
29960W        W73013  11.897   1.738  26.806  0.0626  0.3744  0.1887
29961W        W73014  33.458   2.082  24.917 -0.2492  0.0445  0.2231
29962W        W73015   3.922  13.732  25.826 -0.1257 -0.1366  0.1316
29963W        W73016  21.392   4.490   1.369  0.0753  0.2026 -0.1661
29964W        W73017  20.142  30.842   5.297  0.3802  0.2812 -0.0121
29965W        W73018  16.669  30.953  29.184  0.0825  0.1253 -0.0411
29966W        W73019  33.971   2.639   0.848 -0.2263 -0.1509 -0.0303
29967W        W73020  30.269   1.285  26.286  0.0058 -0.0082  0.3721
29968W        W73021  16.674  29.579  16.834 -0.0874 -0.2820  0.2346
29969W        W73022  14.260   2.623  22.961  0.1098 -0.1608 -0.0694
29970W        W73023  32.002   3.855   2.710 -0.3935  0.0361  0.1156
29971W        W73024  13.349  27.655   2.084 -0.0551  0.0462 -0.0482
29972W        W73025  24.750  30.358   9.104 -0.2620 -0.1479  0.0162
29973W        W73026  23.246  25.083   6.407 -0.3407 -0.1141  0.1882
29974W        W73027  20.378   3.474   9.663  0.1705 -0.0179 -0.2866
29975W        W73028  19.401   1.294   6.006  0.1983  0.0218 -0.0254
29976W        W73029  34.053   2.965  24.585  0.1711 -0.0796 -0.1085
29977W        W73030   0.580   8.334  10.344 -0.0062  0.1421  0.0600
29978W        W73031   9.077   4.532   7.615 -0.2428  0.0514  0.0517
29979W        W73032  12.822  31.566   7.604 -0.0071 -0.0865  0.1108
29980W        W73033  10.127   3.376  28.226 -0.1328  0.0835 -0.1437
29981W        W73034  22.806  33.445  27.655  0.0068 -0.2060  0.0202
29982W        W73035   5.348  31.718   8.235  0.3319  0.0999 -0.0429
29983W        W73036   5.474   9.492  16.341 -0.0761 -0.0858  0.2396
29984W        W73037  26.448  11.690   4.722  0.1083  0.0987 -0.3196
29985W        W73038  30.324   8.331   4.964 -0.2391  0.2630 -0.0991
29986W        W73039  32.881   2.776  26.588 -0.1667  0.0313 -0.1749
29987W        W73040   5.618   3.220   7.085 -0.0640  0.1129  0.3672
29988W        W73041   0.566  31.644   7.346  0.1823 -0.2438  0.0636
29989W        W73042  21.774  34.214  27.600  0.2607  0.3477  0.0232
29990W        W73043  30.884  28.779  25.718  0.0664 -0.3424  0.1588
29991W        W73044  23.401  33.321  22.444  0.1069 -0.1597  0.0908
29992W        W73045  23.776  34.628  22.760 -0.1747  0.1568 -0.1462
29993W        W73046  31.032  33.520   8.822  0.1695  0.0950  0.0454
29994W        W73047  23.361   6.873   1.860  0.0201 -0.0719  0.2169
29995W        W73048  26.430   1.711  15.607 -0.3468 -0.2162  0.0529
29996W        W73049  17.819  31.194   9.414 -0.0545 -0.0448  0.0858
29997W        W73050  29.337  16.549   6.197  0.0022 -0.0738  0.0014
29998W        W73051  23.209   7.024   6.562 -0.2763 -0.1413  0.0447
29999W        W73052   0.294  19.059   6.364  0.1837  0.0632  0.1176
30000W        W73053  30.965  34.382  23.943 -0.1022 -0.0044 -0.0816
30001W        W73054  34.496  32.515   1.215 -0.3856 -0.0382  0.0704
30002W        W73055  29.184  21.422   7.343 -0.0261  0.0984 -0.4158
30003W        W73056   5.957  13.757   7.036 -0.1343 -0.2191 -0.2320
30004W        W73057  31.799  20.967  27.928  0.1717  0.3058 -0.3884
30005W        W73058  27.562   4.881   1.569 -0.4784  0.2574  0.1461
30006W        W73059  11.561  12.256  26.883  0.1952 -0.1085  0.1017
30007W        W73060  15.786   4.506   7.158  0.1053 -0.2420 -0.1226
30008W        W73061   4.026  10.214   6.547  0.1558 -0.1319 -0.0949
30009W        W73062  16.853  33.598   9.180  0.0660  0.0622 -0.1706
30010W        W73063  12.758  11.325   7.783 -0.0986  0.0381  0.0948
30011W        W73064  22.465  12.951   7.812  0.1239  0.0504  0.0793
30012W        W73065   3.662   2.363  27.969  0.1752 -0.0043 -0.0113
30013W        W73066  20.428   4.419   7.477 -0.0169  0.2886  0.2120
30014W        W73067   0.779  33.608   6.272 -0.1997  0.2877  0.1517
30015W        W73068  31.911   2.601   9.345  0.4131  0.1341  0.0014
30016W        W73069  10.453  20.615   4.435  0.2692  0.0143 -0.0242
30017W        W73070  30.405   7.726   1.936 -0.2633  0.3072  0.0520
30018W        W73071  25.534  15.796   3.365  0.1443 -0.0753 -0.4648
30019W        W73072   8.818  11.651   9.430  0.2038 -0.0568  0.0329
30020W        W73073  27.273  31.082  27.136 -0.0330 -0.0495  0.1265
30021W        W73074  16.368  11.426  26.373 -0.1053  0.0876 -0.4239
30022W        W73075  31.782  27.388   5.857 -0.0808  0.1398 -0.1262
30023W        W73076  17.042   9.250   2.952 -0.0748  0.2287  0.0320
30024W        W73077  22.217  29.027  15.779 -0.0690 -0.2215  0.0218
30025W        W73078  28.867   2.601   2.089  0.0234  0.1130  0.0974
30026W        W73079  25.161  20.028   2.690  0.0102  0.0023  0.5092
30027W        W73080  13.784  10.142   1.398  0.0271  0.3579  0.0713
30028W        W73081  33.349  33.676   8.451 -0.0043 -0.2732 -0.1324
30029W        W73082  12.073  26.142   5.300  0.1458  0.0195  0.2884
30030W        W73083  20.667  11.243   9.864  0.1000 -0.0752 -0.4478
30031W        W73084  34.288   2.687  17.373 -0.2302  0.2768 -0.0004
30032W        W73085  24.617  31.071   3.706  0.1522  0.0348  0.1989
30033W        W73086  28.150   5.699  15.852 -0.1594  0.0686 -0.0520
30034W        W73087  29.175   3.334   3.392  0.0619 -0.1851 -0.4578
30035W        W73088  34.038  23.081   3.603 -0.0489 -0.0860  0.0871
30036W        W73089   6.147  26.220  22.658 -0.0488 -0.1796 -0.0601
30037W        W73090  28.806  12.129   1.224 -0.3126 -0.2869  0.0078
30038W        W73091  24.309  32.162   8.136 -0.1446  0.3400 -0.2803
30039W        W73092  15.771  28.430  21.032 -0.2872  0.0892 -0.1101
30040W        W73093  13.145  32.431  24.724  0.1146 -0.1200  0.0264
30041W        W73094  25.589  18.950   0.558 -0.1575  0.1280  0.1657
30042W        W73095  25.195  32.154   9.737 -0.3009 -0.1084  0.1685
30043W        W73096  30.965  29.966   3.754 -0.0370 -0.0534 -0.1231
30044W        W73097  27.632   7.180   6.263 -0.3036 -0.0359  0.0358
30045W        W73098  17.930   6.174  28.012  0.2498  0.1058  0.2460
30046W        W73099  18.120  21.974   2.197  0.1871 -0.0942 -0.2214
30047W        W73100  27.112   7.122  26.593  0.0216 -0.1612  0.2638
30048W        W73101  23.872  33.060   3.738  0.1618 -0.0256 -0.2706
30049W        W73102   8.583  20.645   9.270  0.2137 -0.1344 -0.2204
30050W        W73103  30.169  20.538  23.006 -0.3508  0.1261 -0.1920
30051W        W73104   3.997   1.484   4.824 -0.2877 -0.0675  0.0657
30052W        W73105  30.450  23.335   7.780 -0.0424  0.0122  0.1799
30053W        W73106  28.627   2.798   8.138  0.0447  0.1895 -0.2584
30054W        W73107  22.210  30.208   1.799 -0.1385  0.2162  0.0568
30055W        W73108   1.961  15.163  25.825  0.0439  0.2539 -0.0309
30056W        W73109  33.572   0.849   6.531  0.2960  0.0717 -0.0619
30057W        W73110  33.200   0.310   7.879 -0.1059 -0.3023 -0.2225
30058W        W73111  33.161   9.772   3.134 -0.1253  0.0473 -0.0258
30059W        W73112  25.565  31.670   0.064  0.2813  0.1869 -0.2287
30060W        W73113  21.762  20.988  28.707  0.1957 -0.0061 -0.0527
30061W        W73114  20.737  30.067  17.175  0.0814 -0.0563  0.1440
30062W        W73115  17.195  11.771  27.042 -0.1699  0.0598 -0.0319
30063W        W73116  26.553   2.755   6.354  0.0675  0.2300  0.1215
30064W        W73117   8.119   8.425  16.827  0.0983  0.1386  0.0989
30065W        W73118  15.572  24.216   3.210 -0.0015 -0.1592  0.2464
30066W        W73119  32.857  10.045   4.910 -0.1283 -0.3659 -0.1575
30067W        W73120  16.368   8.955   3.595  0.1304  0.0998  0.0071
30068W        W73121  11.577   1.399   1.074  0.0960 -0.1643  0.3674
30069W        W73122   0.244  32.688   2.613  0.2004 -0.2138 -0.0544
30070W        W73123  24.500  15.734   8.555 -0.1916 -0.2295  0.0352
30071W        W73124  33.854   1.178  29.151 -0.2347 -0.2842 -0.0046
30072W        W73125  23.223  28.547   5.335  0.2988 -0.0441 -0.1132
30073W        W73126   1.156  17.170   3.216  0.4071 -0.3341  0.0433
30074W        W73127  32.300  29.006   2.905  0.0231 -0.0666  0.0543
30075W        W73128  30.910  24.583  26.774 -0.0456  0.3950  0.0443
30076W        W73129  20.520   7.317   8.503  0.0092 -0.1179  0.0844
30077W        W73130  17.545  33.103   2.101 -0.1987  0.0847  0.0382
30078W        W73131   0.040  10.948   4.822  0.2552 -0.0623 -0.2350
30079W        W73132  26.996   7.786  10.871 -0.1635 -0.0425  0.1943
30080W        W73133  17.918  26.178   9.768  0.1592  0.1532 -0.0727
30081W        W73134  17.747   4.496   4.954 -0.0764 -0.0221  0.2994
30082W        W73135   1.569   3.173   0.852 -0.0625 -0.2098 -0.2216
30083W        W73136  23.681  34.072  23.301  0.1690  0.0851 -0.3216
30084W        W73137  33.577  31.849  26.487  0.1042  0.0475 -0.0567
30085W        W73138  27.509  23.331  16.684  0.1571  0.1477  0.0843
30086W        W73139  26.450  33.405  20.688  0.0099 -0.0753  0.0674
30087W        W73140  21.067  11.493  21.543  0.0712  0.2206 -0.2257
30088W        W73141  31.581  14.195  28.685 -0.4177  0.0680 -0.2210
30089W        W73142  14.816   3.435  16.899  0.0446  0.0115 -0.1651
30090W        W73143  29.091  31.764   0.798  0.3745 -0.3656 -0.0230
30091W        W73144  20.487  32.306   1.912  0.2289 -0.1977 -0.1990
30092W        W73145  17.738  30.820   4.731 -0.1246 -0.3325 -0.2589
30093W        W73146  27.899  22.664   9.055 -0.1008  0.0852  0.1357
30094W        W73147  24.377  14.848  20.695  0.0277  0.2189 -0.0551
30095W        W73148   0.430  33.885  25.812  0.2209  0.1566  0.1881
30096W        W73149  19.760  21.468   8.329 -0.2423 -0.3081  0.0343
30097W        W73150   7.125  20.834   6.496 -0.3721  0.2082 -0.2330
30098W        W73151   6.232  22.714  19.711  0.0819  0.0596  0.1910
30099W        W73152  23.241   5.986   7.331  0.6260  0.2578 -0.0743
30100W        W73153  17.757   4.511   5.488 -0.2767 -0.0479  0.0224
30101W        W73154  29.047  19.559   0.654 -0.0459 -0.0237 -0.0124
30102W        W73155  19.678   5.358  28.848 -0.0255 -0.1527  0.1035
30103W        W73156  12.842  33.244   7.167  0.0077 -0.1574  0.1083
30104W        W73157  15.564   1.898   5.123 -0.3600 -0.4710  0.2646
30105W        W73158  22.731   0.707   8.020 -0.3193  0.1801 -0.0284
30106W        W73159  25.038   8.074   9.398 -0.1758  0.1586  0.0881
30107W        W73160   9.712  15.802   1.818  0.2491  0.1650 -0.0108
30108W        W73161  23.760  14.029  14.290  0.0038 -0.4202 -0.0690
30109W        W73162  31.605   9.113   6.275 -0.0482  0.0531  0.4489
30110W        W73163  16.353   0.168  26.037 -0.1706 -0.1195 -0.0238
30111W        W73164  32.105  28.776  26.000  0.0922  0.2309  0.0071
30112W        W73165   0.699  31.926   6.984 -0.4228 -0.0550 -0.0189
30113W        W73166  15.575  31.901  23.573  0.1891 -0.0221  0.0565
30114W        W73167   8.064  25.651   0.789  0.1051 -0.1798  0.0309
30115W        W73168  16.321   1.087  26.167  0.0821 -0.0754 -0.0463
30116W        W73169  21.246   5.941  21.691  0.2200 -0.0050  0.0743
30117W        W73170  27.468   8.271   6.878 -0.0234 -0.0511  0.1235
30118W        W73171  16.105  27.197   1.050 -0.2143  0.2962  0.1305
30119W        W73172  26.994  31.343  27.520 -0.1265  0.1032 -0.2418
30120W        W73173  19.201  11.176   7.402  0.0541 -0.2797 -0.1237
30121W        W73174  27.476  19.045   4.678  0.0220 -0.2060  0.1869
30122W        W73175  23.238  29.525  17.908 -0.0994 -0.2024  0.3402
30123W        W73176  14.122   4.786   1.165  0.0013 -0.4320  0.1059
30124W        W73177  20.045   5.021  25.859  0.1760 -0.3311  0.3744
30125W        W73178  10.988  13.308   8.435 -0.1188  0.0405  0.0436
30126W        W73179  33.826  28.918  26.460  0.0310  0.0031  0.0316
30127W        W73180  25.421   5.720   8.427 -0.4118 -0.1567  0.2384
30128W        W73181  33.446  34.601  23.313 -0.0858 -0.2910  0.0614
30129W        W73182  30.356  33.947   4.353 -0.4682  0.1346 -0.1171
30130W        W73183  23.418   1.370   0.920 -0.0510 -0.3572  0.0811
30131W        W73184  16.931   3.725   7.772 -0.1986 -0.0042  0.2188
30132W        W73185  17.116  20.939   5.553  0.2010 -0.1035 -0.2029
30133W        W73186  31.301   4.460   8.068 -0.2172 -0.1210 -0.0384
30134W        W73187  29.953  20.018   1.066  0.3635 -0.1654  0.2054
30135W        W73188  27.010  33.958   5.883  0.2057  0.0886 -0.0790
30136W        W73189  33.420  30.084   4.154  0.0404 -0.1016  0.0810
30137W        W73190  30.904  14.767   8.029  0.1196  0.0840  0.0120
30138W        W73191  14.786  22.209   6.601  0.0415 -0.2161 -0.0553
30139W        W73192   3.964   2.649   5.711  0.3054  0.0544 -0.4539
30140W        W73193  22.914   2.279   3.945 -0.2054  0.0296 -0.1473
30141W        W73194  10.214  31.019   3.511  0.0903 -0.1564 -0.1910
30142W        W73195  18.950  27.054   4.643 -0.0340 -0.0691  0.1131
30143W        W73196  33.502  12.624   6.128 -0.0280 -0.1514  0.2015
30144W        W73197  10.077  25.721  24.786 -0.1615  0.0197 -0.1991
30145W        W73198  19.425  25.706  26.622  0.0372  0.0141 -0.1132
30146W        W73199   4.223   5.380  27.719  0.0169  0.1187 -0.0028
30147W        W73200  24.385   3.247   4.968  0.2500  0.1221 -0.1836
30148W        W73201  21.996  11.305  27.540  0.0293 -0.3852  0.2333
30149W        W73202   0.973  26.211  17.901  0.1265  0.0382  0.0656
30150W        W73203  31.815  12.695  24.530 -0.0827  0.0198 -0.1671
30151W        W73204   9.708  10.121  28.304  0.4243  0.2865 -0.2872
30152W        W73205  23.649   0.257  18.537 -0.0596 -0.1270  0.0267
30153W        W73206   9.361  28.002   9.092  0.0369  0.1418  0.0935
30154W        W73207  12.412  32.438   4.171 -0.0311  0.1312  0.2751
30155W        W73208   3.573  30.081   6.486  0.0481 -0.1029  0.1455
30156W        W73209  19.120  25.217   5.634  0.2083 -0.2332  0.1089
30157W        W73210  17.713   8.117   2.446  0.4571 -0.0154 -0.2629
30158W        W73211  29.633  10.439   5.324  0.3501  0.3710 -0.1043
30159W        W73212  32.545   1.356  28.430  0.0798 -0.0514 -0.0418
30160W        W73213  13.697   5.384   0.526 -0.0571  0.0577 -0.0170
30161W        W73214   0.829  12.251   9.976  0.1241  0.1469 -0.1109
30162W        W73215  30.115  26.198  25.214  0.2124  0.0632  0.1145
30163W        W73216  27.352   4.577   9.312  0.1332  0.0247 -0.0088
30164W        W73217   2.545  30.982  15.430  0.0537 -0.1233 -0.0576
30165W        W73218  23.380  22.702   0.280  0.0579  0.0107  0.1866
30166W        W73219  15.558  32.185   6.860 -0.0252  0.0528  0.0506
30167W        W73220  13.087  30.443  28.535 -0.2523 -0.0930  0.1323
30168W        W73221  17.587  29.017   9.624  0.2209  0.0756 -0.0707
30169W        W73222  17.104   7.814   6.517 -0.0802  0.1917  0.0104
30170W        W73223  19.849   3.572  19.317 -0.1578 -0.1785  0.1452
30171W        W73224  24.164  29.200   8.913 -0.1247  0.2749 -0.3214
30172W        W73225  18.627   5.317   9.007  0.0993 -0.3626 -0.0685
30173W        W73226  34.123   1.767  15.904  0.0779  0.0387 -0.1187
30174W        W73227  21.119   6.380  17.878  0.0243 -0.2132 -0.0816
30175W        W73228  27.399   1.703   8.910 -0.1717  0.2572  0.1427
30176W        W73229  15.517  10.328  25.296 -0.2818 -0.5134 -0.1962
30177W        W73230  22.312  19.891  28.618 -0.1445  0.4166 -0.3746
30178W        W73231   0.585   1.171  26.787  0.1233  0.0789  0.2166
30179W        W73232  29.469   6.080   9.496  0.1618  0.0662 -0.2241
30180W        W73233  21.857  33.881  22.587  0.0207 -0.3601  0.0038
30181W        W73234  25.188   1.056   8.897 -0.2825 -0.6136  0.0652
30182W        W73235  23.036  27.788   5.993  0.1312 -0.2359  0.2271
30183W        W73236   5.382   5.906  29.068 -0.1353 -0.0609  0.1339
30184W        W73237  22.972  21.704   3.621 -0.2637  0.3020  0.0642
30185W        W73238  21.515   0.299   8.674  0.1285 -0.1574 -0.0193
30186W        W73239  21.144  10.247   5.300 -0.2611  0.2464  0.1266
30187W        W73240  20.821  33.176  27.930 -0.0013  0.2581 -0.1804
30188W        W73241  33.304  31.907   9.445 -0.0186 -0.1070  0.0379
30189W        W73242  15.948  33.308   8.895  0.0473 -0.2372  0.0599
30190W        W73243  16.630  21.192   3.982 -0.0634  0.0717 -0.0077
30191W        W73244  33.885  30.111  17.430 -0.2898 -0.1055 -0.0532
30192W        W73245  33.455  27.492  20.540  0.2710  0.0665 -0.0828
30193W        W73246  15.939   2.827   4.032  0.0608  0.1113 -0.1866
30194W        W73247  29.188   5.067   6.138 -0.1170  0.0124  0.3117
30195W        W73248  11.784   7.223  25.844 -0.4776  0.0622  0.0066
30196W        W73249  23.325  30.470   0.176 -0.0351 -0.1517 -0.2490
30197W        W73250  33.300  10.869   4.990  0.0046 -0.2144 -0.0892
30198W        W73251  28.114  27.909   8.118  0.1764 -0.0611  0.0225
30199W        W73252   2.327  31.054  18.091  0.1984 -0.1809  0.0767
30200W        W73253  15.864   3.026   6.915  0.6764 -0.0985  0.4323
30201W        W73254  29.505   3.733  25.080 -0.1657  0.1727 -0.0082
30202W        W73255  27.197   8.654  22.380  0.0211 -0.2612  0.2860
30203W        W73256  33.148  18.514   7.627 -0.1846  0.0249 -0.0750
30204W        W73257  34.234  15.063   1.935 -0.1725 -0.0052  0.0740
30205W        W73258  31.673  17.478   7.292  0.1699 -0.0396 -0.4064
30206W        W73259  30.530  29.308   6.566  0.0636  0.0467  0.2681
30207W        W73260  29.779  15.946   2.088  0.2066  0.0384  0.0155
30208W        W73261  24.296   2.322   9.863 -0.1079  0.2042  0.1035
30209W        W73262  22.291  31.942   0.138  0.2049 -0.0856 -0.0033
30210W        W73263  20.150  30.056  17.453 -0.0097  0.4982  0.0982
30211W        W73264  28.510  25.819   6.415  0.3687 -0.0649 -0.1339
30212W        W73265  19.247  32.240   8.131 -0.0204  0.0781  0.2127
30213W        W73266   6.385  31.318   1.817 -0.1984 -0.1708 -0.1299
30214W        W73267   3.788  18.517  26.742 -0.0167  0.1440 -0.3980
30215W        W73268  13.626  33.585  25.396  0.3873  0.2287  0.2003
30216W        W73269   0.429   5.841   7.560 -0.2308 -0.1588 -0.0275
30217W        W73270  23.532   8.151  10.087 -0.2092  0.1967 -0.0891
30218W        W73271  21.970   4.659   2.587  0.0664 -0.4555  0.3361
30219W        W73272  29.017   5.397   7.819 -0.1818  0.3267 -0.0493
30220W        W73273  10.612  30.708   4.809 -0.1983  0.1100 -0.1664
30221W        W73274  27.162  18.447  22.537  0.0120 -0.0764 -0.2149
30222W        W73275  29.642  16.111   2.526  0.4393 -0.1505 -0.0908
30223W        W73276  27.972  15.314  24.308  0.3479  0.1108  0.0517
30224W        W73277  27.639   4.201  14.062  0.0333  0.0319  0.1601
30225W        W73278  32.700  29.984  23.575 -0.1752  0.1424  0.3724
30226W        W73279  33.828  11.852   9.137 -0.1200 -0.1233 -0.1346
30227W        W73280  26.931   6.088   8.261  0.1600 -0.4108 -0.1748
30228W        W73281   7.053   3.134   2.791 -0.0206  0.1127  0.2904
30229W        W73282  24.174  24.465  25.004  0.1269  0.1178  0.0649
30230W        W73283  34.000  18.686   3.421  0.3449 -0.1115 -0.0749
30231W        W73284  13.038  12.059  26.842 -0.2455 -0.1114  0.0836
30232W        W73285  20.362  31.001   0.545 -0.1851 -0.2456  0.0418
30233W        W73286  32.381   0.395   4.492  0.2019 -0.0444  0.1519
30234W        W73287  26.060   9.803   3.481  0.0944  0.0623 -0.3110
30235W        W73288  20.050   8.934   5.971  0.2188  0.0125  0.3340
30236W        W73289  30.965  19.021  14.235 -0.0576  0.1033  0.0265
30237W        W73290  10.378   8.102   3.717 -0.0564 -0.0990  0.1518
30238W        W73291  14.058   1.726  29.075 -0.1126  0.1930  0.0058
30239W        W73292  24.134  21.374   6.626 -0.0688  0.0116 -0.0376
30240W        W73293  27.530   4.258  24.142  0.0800 -0.1819  0.3763
30241W        W73294  29.868  25.122   6.412  0.1722 -0.0085 -0.1822
30242W        W73295  15.355   6.273   4.733 -0.1736 -0.0892 -0.1918
30243W        W73296  25.643  29.477   3.371 -0.3008  0.0225  0.4784
30244W        W73297  18.622  23.966   2.771  0.3686 -0.2696  0.1883
30245W        W73298  21.087  21.763  27.127  0.1013 -0.0716  0.2674
30246W        W73299  25.972   4.432   9.824  0.0899 -0.3150 -0.1296
30247W        W73300  32.438  31.309   9.014  0.0080 -0.1283  0.0431
30248W        W73301  23.828  26.393   1.897  0.1337 -0.1315 -0.0137
30249W        W73302   7.252   7.103   0.873 -0.1818 -0.0883  0.3201
30250W        W73303  28.395   6.989   3.540 -0.1223 -0.2389 -0.1839
30251W        W73304  22.127  25.815  18.107 -0.3202 -0.2885 -0.0603
30252W        W73305  26.349  14.310   8.871  0.2317 -0.1310  0.0972
30253W        W73306  30.555  15.779   2.261 -0.1410  0.0056  0.0365
30254W        W73307  24.359  26.140  27.337  0.0687 -0.0481 -0.0360
30255W        W73308  20.915  30.237  26.992 -0.1314  0.2458 -0.0696
30256W        W73309  34.523   8.070   9.934 -0.0809 -0.1877  0.1699
30257W        W73310  33.645  24.289   6.732  0.1119 -0.2219  0.0457
30258W        W73311  20.919  13.469   9.333 -0.2251 -0.1508  0.0027
30259W        W73312   4.718   6.636  15.380  0.0519 -0.2127 -0.2726
30260W        W73313   6.767   1.247  26.191  0.0960 -0.0171 -0.1734
30261W        W73314  31.992  31.655   4.659 -0.1936 -0.0747  0.2910
30262W        W73315  28.150   2.239   7.470 -0.1004 -0.2277  0.1078
30263W        W73316  10.506  31.946   5.455  0.0322  0.2045  0.1964
30264W        W73317  16.898   1.145   7.091 -0.4561  0.1081 -0.0153
30265W        W73318  15.088  12.940   5.510  0.0791 -0.0652 -0.0268
30266W        W73319   4.930  32.449   7.565 -0.1079 -0.1759  0.1072
30267W        W73320  32.954   3.551  25.972  0.4809  0.1701  0.4187
30268W        W73321  20.126  30.998   4.702  0.0558 -0.1399  0.0592
30269W        W73322   2.842  28.054   6.310 -0.0358  0.0618 -0.1264
30270W        W73323  27.189  33.161   2.825 -0.2038  0.0255  0.2428
30271W        W73324  33.539   9.380   4.896  0.0327 -0.1943  0.2155
30272W        W73325  30.700   2.452  15.736 -0.0292  0.2723 -0.0440
30273W        W73326   5.229  10.268  21.632 -0.1147 -0.3124  0.1334
30274W        W73327  15.174   0.459   9.102 -0.0592  0.4296  0.1880
30275W        W73328  21.015  14.023  23.193  0.0752  0.0493 -0.0822
30276W        W73329  21.558  18.485  27.017  0.0527  0.3743  0.2197
30277W        W73330  20.435  28.427  20.876  0.1775 -0.0309  0.1547
30278W        W73331  32.077  20.381   0.298 -0.1190 -0.2278 -0.1886
30279W        W73332   3.338  26.887   2.207 -0.1994 -0.0209 -0.1728
30280W        W73333   8.676   7.929  15.487 -0.0799  0.3680 -0.0981
30281W        W73334   3.633  33.652  22.278 -0.2624  0.0502 -0.0671
30282W        W73335  18.120  15.432  25.822 -0.0552 -0.0289 -0.3050
30283W        W73336  33.867   6.530  20.466  0.2213 -0.1300  0.0292
30284W        W73337  25.183  11.881  23.559  0.2804 -0.0211 -0.0393
30285W        W73338  21.344  25.110   0.898 -0.0198 -0.1056 -0.1761
30286W        W73339   9.873   9.612   9.944 -0.2600  0.0587 -0.2051
30287W        W73340   4.392   4.668   7.144 -0.2820 -0.1137 -0.1433
30288W        W73341  21.649  12.104  27.295  0.0599 -0.1921 -0.2046
30289W        W73342  33.263  14.107   4.392 -0.0459  0.0553  0.2602
30290W        W73343  24.765  10.282   2.651 -0.0958  0.0209  0.0675
30291W        W73344  17.616  28.032   2.385 -0.0823 -0.0391 -0.3552
30292W        W73345  30.277   7.818  17.032  0.0689 -0.0434 -0.0369
30293W        W73346  20.343   8.586   7.815  0.0429 -0.2168  0.5243
30294W        W73347  31.374  18.604   4.581 -0.0786  0.3564  0.0301
30295W        W73348  14.269  12.711   3.644  0.1009  0.1890  0.0928
30296W        W73349   6.211   6.425   7.905  0.2863  0.0047  0.0328
30297W        W73350  31.952  34.019  26.679 -0.2102 -0.1594 -0.0763
30298W        W73351  31.155   9.883   4.286  0.0532  0.2888 -0.0635
30299W        W73352   4.445   6.973   2.653  0.0616  0.0542 -0.1501
30300W        W73353  23.512  30.669  17.584 -0.4166  0.2226 -0.2450
30301W        W73354  27.739  22.217  15.455 -0.2412  0.1009  0.0221
30302W        W73355  27.505  25.045   1.273 -0.0180  0.1281  0.3243
30303W        W73356   2.452  26.900   9.116 -0.0819 -0.2143 -0.0039
30304W        W73357  11.854  21.180   5.715  0.0838 -0.2237 -0.2372
30305W        W73358   1.834   2.809  27.406 -0.1116  0.1646  0.0864
30306W        W73359  23.256  23.395   9.755 -0.0674 -0.2337  0.0359
30307W        W73360   9.366  29.739   7.913  0.1256  0.2066  0.0501
30308W        W73361  20.652  29.518   7.199  0.1815 -0.0093  0.1368
30309W        W73362  22.396   1.669   9.584 -0.0170  0.0094  0.3407
30310W        W73363  13.985   0.137  28.161  0.0385  0.1889  0.0729
30311W        W73364  18.851  10.271  19.302  0.0139  0.0483  0.0681
30312W        W73365  19.603  11.865   9.610  0.1184 -0.0518 -0.4087
30313W        W73366  22.130  13.518   4.301 -0.2845  0.1610  0.2170
30314W        W73367  21.464  17.162  18.194  0.0218  0.2588 -0.1675
30315W        W73368  27.992  11.768  20.771  0.0713  0.1737 -0.0907
30316W        W73369  29.529   5.266  10.101  0.0638 -0.1835  0.2512
30317W        W73370   3.215  10.423  23.159  0.0356  0.0128  0.2676
30318W        W73371   5.459  13.683   2.590 -0.0151 -0.1464  0.4452
30319W        W73372  33.177   6.988   3.964 -0.0933  0.2168  0.3037
30320W        W73373   0.777  32.084   1.456 -0.0701  0.3716  0.0758
30321W        W73374  25.468   2.917   6.325  0.2543 -0.0679  0.0640
30322W        W73375  26.703  16.753   8.362 -0.4675  0.0629 -0.1193
30323W        W73376  12.760  28.582   4.014  0.0158 -0.0986 -0.0214
30324W        W73377  32.964  33.869   6.613  0.0883 -0.2272 -0.0878
30325W        W73378  32.332  15.681   0.855 -0.0313  0.1402  0.1326
30326W        W73379  11.576   4.069  29.079  0.0219  0.0539  0.3284
30327W        W73380   5.436  32.989   8.849  0.2868  0.1218  0.2837
30328W        W73381  18.993  30.628   5.675  0.0943  0.0778  0.1042
30329W        W73382   4.256  26.873   2.595 -0.0151 -0.1043 -0.1882
30330W        W73383  18.662  34.151   1.993 -0.1766  0.1394 -0.0888
30331W        W73384   5.668  11.845  23.657 -0.2118  0.1847 -0.0427
30332W        W73385  26.680  28.941  25.610 -0.2367  0.3537 -0.2983
30333W        W73386  32.077  16.303   3.189 -0.1930 -0.4413  0.0181
30334W        W73387   8.756   9.230  25.470  0.1856  0.1245  0.3312
30335W        W73388   0.962  34.255   2.310  0.3192  0.0617 -0.2762
30336W        W73389  14.970  24.062   0.672  0.1742  0.0335 -0.2281
30337W        W73390  29.674  32.444  20.566  0.5563 -0.1339  0.0021
30338W        W73391  30.655   7.592  24.574  0.3612 -0.0536  0.1343
30339W        W73392   3.892   6.517  10.247 -0.1814 -0.1588  0.0419
30340W        W73393  17.108   1.356   7.702 -0.0792 -0.1236  0.2110
30341W        W73394  18.862  25.182   2.443 -0.0768 -0.3633 -0.0412
30342W        W73395  30.746  20.210  24.048 -0.1201  0.0420 -0.0911
30343W        W73396  29.629  31.625   1.618  0.0417 -0.2950 -0.2223
30344W        W73397   1.594   5.640   7.510  0.1500 -0.0444  0.1551
30345W        W73398   2.896   6.817  15.755 -0.3739  0.0122  0.2023
30346W        W73399  17.606   0.571   2.453  0.1708  0.1335  0.2037
30347W        W73400  19.487  17.132   9.967  0.2606 -0.3328  0.1621
30348W        W73401  21.526  29.859   5.695  0.1422  0.0227  0.1372
30349W        W73402  27.933  32.807  26.035  0.0970  0.1060  0.1400
30350W        W73403  32.160   7.586   2.571 -0.1740 -0.0401  0.1381
30351W        W73404  13.913   0.384  24.695  0.0349 -0.3342  0.2251
30352W        W73405  32.927  21.226   8.549 -0.1035 -0.2681  0.2419
30353W        W73406   2.797   8.489   2.417  0.0723  0.3680 -0.0663
30354W        W73407  16.339   3.596   9.381 -0.2315 -0.3026  0.0706
30355W        W73408   0.640  23.759  27.686  0.3739  0.1311  0.5197
30356W        W73409  15.295  12.936  28.435  0.0939  0.5862  0.0250
30357W        W73410   3.196   5.271   9.356 -0.1467  0.1414 -0.0973
30358W        W73411  20.407  19.662   5.795 -0.2667  0.1543  0.1161
30359W        W73412  29.141   9.466  22.937 -0.0065  0.0243 -0.2003
30360W        W73413  27.913  14.204   8.467  0.0669 -0.5481 -0.0149
30361W        W73414  24.855   9.004   7.895  0.0168  0.0863  0.0165
30362W        W73415  28.297   8.737  28.635 -0.0264  0.2003  0.1326
30363W        W73416  14.350  15.349   2.241 -0.0586 -0.1831 -0.1274
30364W        W73417  30.149  32.663   8.463 -0.0518 -0.0827 -0.2348
30365W        W73418   4.241   0.018   7.525  0.0209  0.1384  0.1946
30366W        W73419  22.489   2.669   9.724  0.0501  0.1481 -0.4974
30367W        W73420  27.144  10.742  27.555  0.1016  0.1401 -0.0249
30368W        W73421  24.993  17.835  27.105  0.1073 -0.0391 -0.0239
30369W        W73422  21.595   9.824  28.000  0.0922  0.3175 -0.3955
30370W        W73423  26.390   7.191  17.571 -0.0323  0.1796  0.2559
30371W        W73424  24.212   0.085   0.804 -0.0731  0.1632  0.1545
30372W        W73425  25.651  23.035   3.415 -0.0033  0.2333 -0.0325
30373W        W73426  32.267   3.065   9.587 -0.1260  0.1834 -0.1736
30374W        W73427  18.202   7.095   9.727  0.2443 -0.1231 -0.0276
30375W        W73428  32.567  15.991   7.556 -0.1370 -0.0539  0.0778
30376W        W73429  19.375  32.471   5.734  0.0722  0.3160  0.3025
30377W        W73430  24.011  25.983   8.927  0.1720 -0.2394  0.1051
30378W        W73431  27.847  11.029  10.342 -0.1753 -0.1753  0.3768
30379W        W73432  29.706  23.386   5.653  0.3196 -0.4597 -0.1148
30380W        W73433  17.665  33.336   3.940 -0.3674 -0.1979 -0.1578
30381W        W73434  26.620   9.061  19.524 -0.1324 -0.2682 -0.0130
30382W        W73435  23.881  28.776   8.931  0.1646 -0.0472 -0.2471
30383W        W73436  24.640  16.833   5.477  0.3250 -0.1396 -0.0379
30384W        W73437   9.801  29.915   6.823 -0.3250  0.4313  0.0935
30385W        W73438  33.856  15.548   8.545 -0.1527 -0.0485  0.2500
30386W        W73439  19.117   5.687   6.955 -0.0483  0.1052  0.0818
30387W        W73440  26.581  33.310   7.840  0.4236 -0.1293  0.1497
30388W        W73441   3.018  32.430   7.095  0.0453 -0.0209  0.2363
30389W        W73442   5.449  30.433   3.742 -0.2388 -0.0480 -0.0049
30390W        W73443  16.356   3.456   4.831 -0.1695 -0.0394  0.4607
30391W        W73444  13.167   3.659   9.001  0.1757 -0.0423 -0.0124
30392W        W73445  24.793  20.387   1.324  0.2087  0.0018  0.1580
30393W        W73446  15.357   1.743  23.229  0.0372  0.0990  0.0537
30394W        W73447  19.777   4.080   5.306  0.0046  0.2856  0.0039
30395W        W73448  19.815  30.493   2.805  0.0117  0.1833 -0.3464
30396W        W73449  14.634  27.289  17.384  0.3029  0.1604  0.3759
30397W        W73450  29.253  14.630   9.694  0.1577 -0.0430  0.0104
30398W        W73451  11.682  15.914   9.819 -0.1019  0.3430  0.0074
30399W        W73452  32.047   1.305   4.250 -0.4007 -0.1980  0.0972
30400W        W73453  27.021  33.669  26.442 -0.0690  0.1562  0.0225
30401W        W73454  30.118  16.698  23.196  0.1667  0.2986 -0.0134
30402W        W73455  33.478   5.288   5.165 -0.0516  0.0755  0.1544
30403W        W73456  19.671  34.300   4.597  0.1580  0.2023  0.0807
30404W        W73457   1.111  20.432   9.268 -0.6266  0.0269 -0.0013
30405W        W73458  29.643   7.499   1.462 -0.2801  0.1266 -0.0493
30406W        W73459  20.101   7.280   7.247 -0.3879  0.2141  0.0253
30407W        W73460  31.687   8.553  24.451  0.0544  0.4106 -0.0657
30408W        W73461  29.349  14.458   3.684  0.0047  0.0027 -0.0886
30409W        W73462  25.739  26.951   4.083 -0.0362  0.1201 -0.0795
30410W        W73463  18.156  30.879   5.272  0.0555 -0.1691 -0.1362
30411W        W73464   7.159  10.721   7.375 -0.1359 -0.1030  0.1136
30412W        W73465  30.315  21.148   1.869 -0.0054 -0.2363  0.1925
30413W        W73466  32.216   9.837   5.967  0.1872 -0.0208 -0.0708
30414W        W73467  19.211  30.198   6.430  0.0929  0.0062 -0.0099
30415W        W73468  31.518   3.759  26.198 -0.0859 -0.0982  0.1047
30416W        W73469   0.511   0.754  27.069  0.3583  0.0498  0.2373
30417W        W73470  22.064  22.347   0.071 -0.0435  0.1595 -0.0752
30418W        W73471  17.457  13.862   4.260 -0.3001 -0.1882  0.0962
30419W        W73472   8.850   3.330   7.977  0.0135  0.2221  0.0049
30420W        W73473  30.524   5.364   6.090  0.0444 -0.1899  0.2552
30421W        W73474   4.219  27.244   1.677  0.0772  0.1713  0.1278
30422W        W73475   1.339   4.066   5.202 -0.0118  0.0113 -0.0116
30423W        W73476  32.801  25.055   5.007 -0.0441 -0.3595  0.0834
30424W        W73477  28.850   5.499  18.169  0.1217  0.0851  0.3050
30425W        W73478  23.443  31.732   7.890  0.3853  0.1562 -0.0438
30426W        W73479  19.552  31.120   1.685  0.1918  0.0174 -0.0112
30427W        W73480  13.770  13.851   9.150 -0.2165 -0.2045 -0.0901
30428W        W73481  28.101   6.013   7.827  0.0276  0.0248  0.2919
30429W        W73482  23.079  29.483   6.749 -0.1026 -0.2219  0.1473
30430W        W73483  28.888  28.424  16.542 -0.2987  0.1737  0.0951
30431W        W73484  11.269   7.709   1.992  0.0626 -0.0951  0.1524
30432W        W73485   2.539  30.447  26.650 -0.3426  0.1777  0.0727
30433W        W73486  32.775  12.557   6.496  0.0535 -0.2606 -0.3807
30434W        W73487  15.024   3.449  27.310 -0.2606  0.0391 -0.0190
30435W        W73488  24.113  10.289   7.202 -0.0459  0.4374  0.3947
30436W        W73489  29.407  11.477  21.999 -0.0185  0.2318 -0.3477
30437W        W73490  29.382   8.480   8.860 -0.1696  0.0197 -0.0579
30438W        W73491  23.480   5.672   9.610  0.0482  0.1441 -0.0051
30439W        W73492  19.126   1.831  19.251 -0.0312  0.0871 -0.1321
30440W        W73493  20.781  15.087  12.869 -0.1595 -0.2019  0.2941
30441W        W73494  30.909   1.988   4.537  0.1245 -0.2359  0.3379
30442W        W73495  11.819   8.832   8.599 -0.3031 -0.3132 -0.0849
30443W        W73496  24.793   7.146  28.336 -0.0872 -0.0381 -0.1500
30444W        W73497   0.168   7.514  16.286 -0.1291  0.1789  0.1819
30445W        W73498  30.744   0.134   9.106  0.0629  0.2320 -0.1437
30446W        W73499  32.183   0.307   4.980  0.0514  0.1197  0.1443
30447W        W73500   0.071  31.557   3.843  0.1142 -0.4072  0.3312
30448W        W73501  27.795  19.165  22.525  0.3322 -0.1774  0.2576
30449W        W73502  18.815  21.552  22.247 -0.0691  0.0867  0.1374
30450W        W73503  27.956  33.762   8.484 -0.4094  0.0306  0.2701
30451W        W73504  19.520  28.323   2.798  0.0730 -0.3835 -0.0863
30452W        W73505  21.378  17.812  16.618 -0.3388 -0.2894 -0.0633
30453W        W73506  21.687   4.977  10.009 -0.2205  0.0914 -0.0984
30454W        W73507   1.796   2.417  21.247  0.2391 -0.2659 -0.1901
30455W        W73508   1.871  31.946   8.961  0.4484  0.0960  0.0236
30456W        W73509  21.297  19.629  10.493  0.2783  0.1442  0.0510
30457W        W73510  10.623   1.082   8.073  0.1686 -0.1862 -0.2078
30458W        W73511  27.733   0.911   5.695 -0.1403  0.3312  0.2222
30459W        W73512  22.751   0.265   9.798 -0.0756 -0.2569  0.2428
30460W        W73513   2.031   1.479   7.752  0.1850 -0.0774 -0.2038
30461W        W73514  31.375  17.885   4.787 -0.3684 -0.5810 -0.2108
30462W        W73515  28.076  29.587  22.988  0.0319  0.0886  0.1996
30463W        W73516  18.781   8.049   1.789  0.0667 -0.1999 -0.1442
30464W        W73517  24.389  32.884   6.909 -0.1156 -0.3211 -0.0764
30465W        W73518  31.727   1.391  20.004  0.0800 -0.0021  0.1132
30466W        W73519  16.306   2.664  28.898  0.0911  0.0492 -0.0292
30467W        W73520   0.239  25.383  27.700 -0.4121  0.1349  0.1677
30468W        W73521  12.152   6.252   6.909 -0.2756 -0.1450  0.3259
30469W        W73522  30.338  10.004  10.803 -0.1662 -0.1930  0.1054
30470W        W73523  18.471  30.811   4.407 -0.1478  0.3939 -0.0988
30471W        W73524  22.529  16.277   8.251 -0.0713 -0.1588 -0.1049
30472W        W73525   8.762  34.212   7.344 -0.1162  0.2395  0.1921
30473W        W73526  23.322  24.655  26.962 -0.1186  0.1296 -0.0579
30474W        W73527  33.201   6.206   7.717 -0.0689 -0.1517 -0.3839
30475W        W73528   1.318  29.103  15.831  0.0751  0.0233 -0.1012
30476W        W73529  23.136  23.391   9.243  0.2095 -0.3903  0.1053
30477W        W73530  20.184  32.845  10.439 -0.0931  0.2963 -0.0457
30478W        W73531  16.241   1.031  23.838  0.0467 -0.0188  0.0405
30479W        W73532  21.812  24.531  22.351  0.0811 -0.3943  0.0407
30480W        W73533  24.520   1.152  10.082 -0.0634 -0.1103 -0.0242
30481W        W73534  21.545  27.356  22.272 -0.0410 -0.2598  0.2022
30482W        W73535  18.638  20.976  27.121 -0.2159  0.2929 -0.1576
30483W        W73536   6.870  32.895   8.937 -0.0822  0.0129 -0.0653
30484W        W73537  17.058   0.688  27.076 -0.2361 -0.0388  0.5012
30485W        W73538  32.119   5.152   1.525  0.0870  0.0109 -0.3753
30486W        W73539  14.352   5.049   8.283 -0.0407  0.2598  0.0421
30487W        W73540  15.752   2.346   4.860  0.0290 -0.0277 -0.0317
30488W        W73541  22.981  22.167  27.792 -0.0793 -0.1587 -0.4248
30489W        W73542  16.424  16.357   0.716 -0.0188 -0.1632 -0.0458
30490W        W73543  24.561  14.264   2.481  0.1014 -0.1885 -0.2547
30491W        W73544  23.381   9.453   9.361 -0.0272 -0.1697  0.0331
30492W        W73545  25.993  31.941  29.164  0.2475 -0.0316  0.2859
30493W        W73546  32.473  32.841  10.332  0.0168  0.1083  0.0889
30494W        W73547  33.639  25.871   3.523  0.1496  0.0027  0.0101
30495W        W73548   1.902   5.988   6.397 -0.2163 -0.1008  0.0491
30496W        W73549  14.739  34.476   8.642  0.2250 -0.2113  0.0931
30497W        W73550  24.930   2.946   3.399  0.0033  0.2308 -0.1319
30498W        W73551  21.193  20.526   8.879  0.3312  0.1009 -0.0119
30499W        W73552  29.648  31.902   4.796 -0.2283  0.1091  0.1998
30500W        W73553   0.177   3.662  28.883  0.3770  0.0073  0.0116
30501W        W73554  29.906  34.156   7.326 -0.0696  0.0496 -0.1286
30502W        W73555  17.940  17.025   6.981  0.1664 -0.0106 -0.0510
30503W        W73556   5.707  10.283   0.789  0.1849 -0.1035 -0.2065
30504W        W73557  13.592  12.264   9.394 -0.1562 -0.1892  0.3879
30505W        W73558  26.413  29.471   7.054 -0.0715  0.1478 -0.0153
30506W        W73559  28.164   6.114  21.558  0.1619 -0.0826 -0.2527
30507W        W73560  26.719  24.702   2.182  0.1191  0.0653  0.0138
30508W        W73561  31.721   2.149  25.058  0.1931  0.0958  0.2037
30509W        W73562  26.875   9.417   9.017  0.0612 -0.0875  0.0582
30510W        W73563  31.852  20.977  20.674 -0.0484  0.0136 -0.2265
30511W        W73564  20.158  11.123   2.816 -0.0978  0.0332  0.0188
30512W        W73565  10.357  29.371  28.074  0.0911 -0.0554 -0.2168
30513W        W73566  32.186   9.866   3.363 -0.1628 -0.1270 -0.1536
30514W        W73567  29.119   8.794  28.294 -0.1291  0.3380 -0.4065
30515W        W73568   7.749  26.043  20.984 -0.0263 -0.3644 -0.0982
30516W        W73569  30.134  25.653  26.538  0.1578  0.2355 -0.2478
30517W        W73570  30.140  10.643   7.013  0.0327  0.1258 -0.0707
30518W        W73571  19.501  23.921  28.253  0.0044 -0.3090 -0.0770
30519W        W73572  21.313  20.644  28.552 -0.1117 -0.1038  0.0431
30520W        W73573  34.178   1.325  21.672  0.0472  0.1079 -0.0028
30521W        W73574  28.469  34.139   6.946  0.2364 -0.1337  0.2641
30522W        W73575  17.790   1.647   8.813 -0.2673 -0.4404 -0.2683
30523W        W73576   7.348  28.398   5.556  0.0405  0.1214  0.1629
30524W        W73577  33.369  26.779  27.258  0.3014  0.2769 -0.0434
30525W        W73578  23.144   2.846   9.175 -0.0403  0.0757 -0.2645
30526W        W73579  10.122   8.540  17.360 -0.1622  0.2030  0.0324
30527W        W73580  11.537  30.983   0.065  0.4801  0.1007 -0.3327
30528W        W73581  14.011  14.024  25.577  0.0278 -0.0654  0.3188
30529W        W73582  34.187  30.112   8.384 -0.1050  0.3051 -0.1431
30530W        W73583  28.129  24.730   5.899 -0.1591 -0.0802  0.2429
30531W        W73584   7.200   4.597  15.140 -0.0668 -0.0057  0.0316
30532W        W73585   2.443  28.821  24.701  0.1813  0.1819 -0.1386
30533W        W73586  26.855   1.301  10.533  0.1899 -0.1299  0.0220
30534W        W73587  30.778   5.820   8.240 -0.3453  0.1153 -0.0961
30535W        W73588  19.617   5.534   6.933 -0.0778 -0.0600 -0.4320
30536W        W73589  22.685  17.715   4.178 -0.0892 -0.1386 -0.1242
30537W        W73590  12.299   7.328  26.616 -0.2309  0.1029 -0.1174
30538W        W73591  32.541   0.056   6.956 -0.1621  0.1705 -0.1874
30539W        W73592  12.430   8.502  27.296 -0.0335 -0.0834  0.2116
30540W        W73593  28.573   1.332   3.573  0.1968  0.3646 -0.1020
30541W        W73594  17.037  31.767   4.999  0.1787 -0.4409  0.3487
30542W        W73595   9.494  33.962  23.402 -0.1594  0.0527 -0.3526
30543W        W73596   5.198   3.496   5.190  0.0619  0.0363 -0.2266
30544W        W73597  29.405   4.812   9.106  0.1137 -0.1001  0.2846
30545W        W73598  21.848  29.122  26.074  0.0607  0.2085  0.2790
30546W        W73599  25.740  32.545  10.465 -0.2098 -0.2609  0.0011
30547W        W73600  12.564   1.555   6.529 -0.1090 -0.0665  0.2559
30548W        W73601  21.282   8.631   6.540 -0.0964 -0.1976  0.2206
30549W        W73602  25.443  30.886   8.731 -0.1900  0.3083 -0.1351
30550W        W73603  28.461  16.256   1.893  0.2766 -0.1583  0.0593
30551W        W73604  29.493   2.092   0.741 -0.4895 -0.4219  0.0894
30552W        W73605  31.818   5.185   6.302  0.3377  0.0316 -0.3248
30553W        W73606  23.834  26.767   3.018  0.0676  0.1625 -0.1752
30554W        W73607  26.346  29.681   7.542  0.0468  0.0983 -0.0668
30555W        W73608  20.569  23.480   7.656  0.0502  0.2025 -0.1139
30556W        W73609  24.131  12.079  25.312  0.1005 -0.1361 -0.2070
30557W        W73610  20.375  32.359   2.727 -0.1083  0.0454 -0.2193
30558W        W73611  22.264  16.563   1.635 -0.1576 -0.1345  0.1094
30559W        W73612   4.190  31.986   5.023 -0.1667 -0.0493 -0.4642
30560W        W73613   3.869  28.407   7.824  0.3565  0.3213 -0.0319
30561W        W73614   0.448  31.691   9.963 -0.2422 -0.0741  0.0234
30562W        W73615  25.056  31.210   7.648 -0.0567 -0.1553  0.2449
30563W        W73616  28.690  23.172   9.957  0.1382 -0.0443 -0.1227
30564W        W73617  21.044  14.253   7.334 -0.4519  0.1497  0.0918
30565W        W73618  20.854  22.206  18.236  0.1335 -0.2743 -0.3445
30566W        W73619  17.547  34.624   8.543 -0.1311  0.1303 -0.0597
30567W        W73620  22.958  14.617   8.441 -0.0193 -0.1076  0.0284
30568W        W73621  30.439  27.892   6.098  0.5372  0.0179  0.0673
30569W        W73622  24.424  28.789   8.875 -0.0291 -0.0869  0.0298
30570W        W73623  28.607   2.124   5.045 -0.2086  0.0652  0.0765
30571W        W73624   2.465   0.630   5.318 -0.1872  0.2868  0.0331
30572W        W73625  25.466  28.795   5.299  0.0872 -0.3324 -0.2456
30573W        W73626  25.553  28.104   3.461 -0.1303 -0.0194 -0.1268
30574W        W73627  23.472   2.909  29.021  0.0030 -0.0194  0.1865
30575W        W73628  30.473   5.795  19.276 -0.0315  0.0533  0.2564
30576W        W73629  33.538  16.919   7.192 -0.1406  0.3709 -0.1527
30577W        W73630  23.476  18.412   0.460  0.3334 -0.2341 -0.0460
30578W        W73631   5.222  20.468  27.958  0.1376 -0.0109  0.1906
30579W        W73632  20.890  31.434   2.014 -0.0413  0.1459  0.0393
30580W        W73633  32.978  31.951  22.059 -0.1259  0.0582  0.2293
30581W        W73634   2.403   8.898   0.593  0.1169  0.0247 -0.1002
30582W        W73635  30.126  24.691   9.839  0.0450 -0.0100  0.0430
30583W        W73636  18.393   0.336   8.071  0.0138 -0.1095  0.2308
30584W        W73637  28.924  13.118   9.344  0.3413 -0.0547  0.0683
30585W        W73638  23.754   2.084   2.146 -0.2687  0.2542 -0.4413
30586W        W73639  24.462  20.235   5.014 -0.1963 -0.1909  0.0177
30587W        W73640   4.847   3.615  20.037  0.2149 -0.0804 -0.2597
30588W        W73641  30.216  16.778   3.119  0.0442  0.1854 -0.0960
30589W        W73642  29.715   4.598   0.450 -0.1697 -0.2163  0.0123
30590W        W73643   1.913   0.379   9.381  0.0872 -0.1300 -0.1401
30591W        W73644  30.508  34.146  29.086  0.1538 -0.2076  0.2486
30592W        W73645  30.521  31.153   0.343  0.0048 -0.0453 -0.0269
30593W        W73646  30.413  15.359   1.110  0.3078  0.0784  0.1302
30594W        W73647  25.972  20.752   8.519  0.2040 -0.1219 -0.0423
30595W        W73648   2.204  27.586  24.163  0.0478 -0.0973 -0.3642
30596W        W73649   6.329  29.005  24.530  0.0773 -0.1128  0.0425
30597W        W73650  28.305   0.072  27.862  0.0362 -0.0448 -0.1229
30598W        W73651  22.413  30.613  23.765  0.3018  0.0144  0.0375
30599W        W73652   8.693  27.049   8.033  0.0202  0.3256 -0.1668
30600W        W73653  22.766  31.006   7.723  0.0565  0.1968 -0.3623
30601W        W73654  15.760  26.753   5.072  0.1298 -0.1791  0.2836
30602W        W73655  29.904  14.006  22.234 -0.0086  0.3330 -0.4000
30603W        W73656  24.233  13.261  28.915 -0.0824  0.2086 -0.1997
30604W        W73657  28.534   2.333   1.495 -0.3033 -0.2463 -0.1194
30605W        W73658  29.095  28.931   6.327  0.0421 -0.3880 -0.1314
30606W        W73659  33.197  32.346   2.339  0.0844  0.0071 -0.0168
30607W        W73660  13.054   0.979   9.949 -0.1820  0.1900 -0.0336
30608W        W73661  19.974  25.088   1.894 -0.3365 -0.1671  0.1703
30609W        W73662  10.254  21.235   7.791  0.1820  0.1273 -0.3932
30610W        W73663   1.106  33.810   5.932 -0.1036  0.2498  0.0209
30611W        W73664  15.133  13.543   2.262 -0.2681 -0.1782 -0.2200
30612W        W73665  11.740  31.925   5.635 -0.0814  0.0426  0.0033
30613W        W73666  34.388  27.152   5.981  0.3148  0.2318 -0.1696
30614W        W73667  18.714  15.289   5.880 -0.1853 -0.2093 -0.0516
30615W        W73668  34.095  28.411   5.420  0.0231  0.0450  0.0742
30616W        W73669  22.007  30.931  27.379  0.0043 -0.0514 -0.4338
30617W        W73670   3.472   9.713   3.374 -0.1981  0.0159 -0.1213
30618W        W73671  32.412   4.992   4.329 -0.0686  0.0958 -0.2443
30619W        W73672   3.309   2.770  28.947  0.0310 -0.0370 -0.1865
30620W        W73673  25.380  27.616   7.056  0.3073 -0.0238  0.1488
30621W        W73674  13.084  26.478   5.185 -0.0484 -0.0062  0.1872
30622W        W73675  33.112  20.130   2.571  0.0127 -0.0801 -0.1226
30623W        W73676  25.757  30.606  10.439 -0.0794  0.0369  0.0260
30624W        W73677  22.993  10.954   7.040 -0.3470 -0.4287 -0.1172
30625W        W73678  24.283  30.875   2.305  0.1453 -0.0632  0.0995
30626W        W73679  21.985   2.439   1.962 -0.2807  0.0197 -0.0136
30627W        W73680  31.372  15.809  25.903  0.4568 -0.0252 -0.0488
30628W        W73681   9.079  20.874   8.265  0.2205  0.1250 -0.1025
30629W        W73682  31.605  29.219   5.294  0.0388 -0.0575  0.4063
30630W        W73683  27.418  18.841  26.643 -0.4086 -0.0125  0.1583
30631W        W73684  25.446  27.627   9.678  0.0535 -0.0234 -0.2007
30632W        W73685  23.612  30.815   7.331 -0.1420 -0.1082  0.4182
30633W        W73686  11.107  13.655   6.676 -0.0164  0.0074  0.0250
30634W        W73687  11.507  13.448  10.539  0.0411 -0.2640 -0.0028
30635W        W73688  21.353   7.307   5.519 -0.1953 -0.0910 -0.0063
30636W        W73689   9.730  33.524   5.843 -0.0105 -0.1756  0.0152
30637W        W73690  31.728  19.515   2.650  0.3487  0.0553 -0.1393
30638W        W73691  24.123   0.366   1.242 -0.1427 -0.0140  0.0681
30639W        W73692  26.268  23.379  27.232  0.1295 -0.0046 -0.0879
30640W        W73693   1.692   0.307  23.446 -0.2197  0.0269 -0.1233
30641W        W73694   2.094  33.009   1.567 -0.0022  0.3319  0.0481
30642W        W73695   5.924  31.696   7.628  0.3843  0.2147  0.0751
30643W        W73696  25.827   8.551  29.166 -0.1667 -0.0477  0.4811
30644W        W73697  25.100   9.318  17.567  0.0196 -0.2911 -0.0422
30645W        W73698  21.327  30.031  22.135  0.2298 -0.2108  0.0238
30646W        W73699  28.561   6.211   4.352 -0.3230 -0.1569 -0.2213
30647W        W73700   7.825  15.422  20.090  0.0041 -0.5198  0.0905
30648W        W73701   0.720  31.226   6.590 -0.3329  0.2632  0.0102
30649W        W73702  30.887  14.850  25.403 -0.0721 -0.2632 -0.0804
30650W        W73703   7.447   0.029   2.207  0.1839  0.0168  0.2239
30651W        W73704  25.320  24.560   5.634 -0.2746 -0.1443 -0.1180
30652W        W73705  22.259  24.913   4.719 -0.1209 -0.2111 -0.2227
30653W        W73706  13.393  33.338   0.831 -0.3472 -0.1839  0.1188
30654W        W73707   5.488  31.280   0.041 -0.2564 -0.0577 -0.0908
30655W        W73708  25.853  27.168   8.352 -0.1426 -0.1452  0.0253
30656W        W73709   3.186   4.302  24.810  0.3953  0.1643  0.0899
30657W        W73710  20.798  32.697   4.540 -0.1429  0.0594  0.0524
30658W        W73711  24.676   5.371  25.024 -0.1178 -0.0501 -0.0202
30659W        W73712   2.706  19.903  22.601 -0.0293 -0.1670 -0.2485
30660W        W73713  33.325  33.378  19.945 -0.0335  0.1385  0.0504
30661W        W73714  27.938  32.587   9.127 -0.1137  0.3619 -0.1541
30662W        W73715  28.117  31.930  20.290 -0.2468  0.0645  0.2558
30663W        W73716  31.226  31.674  24.110  0.1128 -0.1925 -0.0057
30664W        W73717  11.201  25.149  28.254 -0.1937 -0.1608 -0.0807
30665W        W73718  22.128   2.680   2.403 -0.0016  0.1528 -0.0548
30666W        W73719  23.453   8.780  25.575  0.4876  0.0379 -0.4279
30667W        W73720  13.227  26.590  17.417  0.4030  0.2916 -0.1640
30668W        W73721   0.546   0.679   7.007 -0.0930 -0.2446  0.3430
30669W        W73722  17.729  28.972   4.140 -0.0691 -0.0440 -0.1434
30670W        W73723  26.456  21.296   0.081  0.1617 -0.0877  0.0429
30671W        W73724  30.976  20.188   5.676  0.3845  0.1640 -0.1155
30672W        W73725  31.406  25.338   9.026 -0.1211  0.2356 -0.0957
30673W        W73726  24.371  33.839   5.915  0.2787 -0.1964  0.0068
30674W        W73727   1.033   6.249   5.353  0.3171  0.0174  0.0592
30675W        W73728   7.668  33.575  10.837  0.0037 -0.0495  0.0700
30676W        W73729   1.518   7.880   4.500  0.0117  0.0612 -0.1063
30677W        W73730  20.210  23.127   7.397 -0.4053 -0.2011 -0.2848
30678W        W73731  13.334   3.352   8.022  0.1545  0.2311 -0.0897
30679W        W73732  29.612   3.538   7.986  0.1257 -0.2578  0.1007
30680W        W73733  29.933   7.527   8.921 -0.1335 -0.1972  0.2199
30681W        W73734  27.075   1.925  27.904  0.1032  0.0996  0.0469
30682W        W73735  12.911   5.020   7.599  0.1227 -0.2967  0.0643
30683W        W73736  20.553  32.384   0.480 -0.0944 -0.1684  0.0292
30684W        W73737  15.318  28.901   1.358  0.1332  0.1404 -0.2982
30685W        W73738  31.949   5.261   8.311  0.0341  0.0851  0.1257
30686W        W73739  30.701   1.319   8.300 -0.1584 -0.0834  0.1010
30687W        W73740  20.432  26.366   3.415 -0.2972  0.1469 -0.1097
30688W        W73741   4.554   9.635   6.779  0.0100  0.3682  0.2478
30689W        W73742   5.025  17.891   6.716  0.2013 -0.4046  0.0424
30690W        W73743  16.686  30.529   2.446  0.2063 -0.1773  0.3038
30691W        W73744   7.985   6.312  26.682 -0.2060 -0.1263 -0.1386
30692W        W73745  28.060   0.562   3.079  0.2482  0.1757 -0.0593
30693W        W73746  33.433  14.541   8.024  0.2805 -0.3091 -0.2500
30694W        W73747   2.517   6.044   6.165 -0.1995  0.0607  0.1228
30695W        W73748  22.205   6.219   3.968  0.2519 -0.1634 -0.0978
30696W        W73749  23.527   0.717  11.137  0.2599 -0.4179 -0.1790
30697W        W73750  17.824  25.646   4.466 -0.0580 -0.0762 -0.2464
30698W        W73751  13.306   8.149  10.021 -0.1951 -0.0807 -0.2615
30699W        W73752  22.365  13.882  21.318 -0.2018 -0.0683 -0.0034
30700W        W73753  25.191   9.116  10.601 -0.1802 -0.1312  0.2021
30701W        W73754  26.326   6.208   9.990 -0.1884  0.1967 -0.1021
30702W        W73755  30.412  28.356  25.859 -0.0788 -0.2217  0.0654
30703W        W73756   2.764   2.622   1.120 -0.0564 -0.0216  0.2828
30704W        W73757  26.495  14.974   3.391  0.1309  0.1277  0.1029
30705W        W73758  26.049   2.030   1.007 -0.1910 -0.1069 -0.2432
30706W        W73759  21.058  20.445   2.764 -0.3520 -0.1946  0.0736
30707W        W73760  31.705   3.940   7.949  0.1583 -0.1089 -0.1143
30708W        W73761  30.024   4.886   8.409 -0.2776 -0.3598 -0.0474
30709W        W73762  30.673  21.137  26.555  0.0596  0.0918  0.0616
30710W        W73763  22.006  26.748   6.993  0.0532 -0.1942 -0.0320
30711W        W73764  29.866  25.612   4.061 -0.1699 -0.1531 -0.2085
30712W        W73765   2.805   3.787   7.541 -0.0511  0.3392 -0.0063
30713W        W73766   1.736  34.372   5.851  0.0194 -0.2035  0.0505
30714W        W73767  22.915  19.663   9.027  0.1172 -0.1028 -0.1981
30715W        W73768  31.091   5.708   4.733  0.0918 -0.1742  0.1741
30716W        W73769  31.907  22.550  23.952 -0.0050  0.0576 -0.1736
30717W        W73770  24.565  20.669  10.556  0.0703 -0.0034  0.1742
30718W        W73771  20.273   1.567   1.257 -0.2238 -0.1168 -0.2227
30719W        W73772   6.746  28.202  24.767 -0.0170  0.4170  0.4154
30720W        W73773  20.108  11.946   7.850  0.0104  0.0916  0.1535
30721W        W73774  33.008  28.496   8.107 -0.0515  0.0934  0.1716
30722W        W73775  14.825  30.388   4.814  0.1492 -0.0575  0.0242
30723W        W73776  29.268   3.107   0.173  0.0629 -0.1068  0.0094
30724W        W73777  15.104  30.164   3.716 -0.2032 -0.0856  0.0301
30725W        W73778  21.165  15.679   0.586  0.2478 -0.0354 -0.0399
30726W        W73779  22.378  33.978   6.765 -0.2650 -0.0502  0.0870
30727W        W73780  30.183  27.562  19.847  0.0688  0.1692  0.0802
30728W        W73781   2.581  12.529   1.855  0.1954  0.0960  0.1989
30729W        W73782   1.118   9.413   8.710  0.0961  0.2430  0.0820
30730W        W73783   1.437  18.388   8.977 -0.0068 -0.0852 -0.3314
30731W        W73784   2.445  33.932   7.860  0.0376  0.3242  0.2364
30732W        W73785  30.176  17.766   1.293  0.2086 -0.0007 -0.3452
30733W        W73786   1.029  25.258  22.610 -0.1109  0.1252 -0.3181
30734W        W73787  14.121   2.940   0.995  0.0911  0.2265 -0.0673
30735W        W73788   7.304  11.269   2.386 -0.3141 -0.0830 -0.3496
30736W        W73789  28.541  30.745  25.425  0.1376  0.0783  0.1676
30737W        W73790   9.207  14.736  28.117 -0.0858 -0.2340  0.0458
30738W        W73791  20.589   6.238  24.500  0.1274  0.3404 -0.1933
30739W        W73792  31.334   0.136   5.508 -0.1115 -0.0756  0.3307
30740W        W73793  21.628  18.195   8.907 -0.0601 -0.0834  0.0515
30741W        W73794  28.923   1.808   6.531  0.1458  0.1961 -0.2430
30742W        W73795  15.936   6.320   3.147  0.5403  0.0562 -0.0614
30743W        W73796  14.562   7.055   5.485 -0.3140  0.0649 -0.0292
30744W        W73797  23.515   5.793   3.239 -0.5127  0.0893  0.0037
30745W        W73798  31.364  31.772  29.161  0.1650  0.1389 -0.2002
30746W        W73799  15.260  10.859  14.281 -0.0473  0.0493 -0.3299
30747W        W73800  33.174   1.050  14.753  0.0988  0.2909 -0.0457
30748W        W73801  17.732  20.931  24.388 -0.1707  0.2843  0.3266
30749W        W73802  18.633  23.536   2.445 -0.0171  0.3325 -0.2821
30750W        W73803  13.271  30.018   3.977  0.0873  0.0577  0.0954
30751W        W73804  27.426   6.317  19.328 -0.0359 -0.5937 -0.2401
30752W        W73805  20.847  24.361   8.207 -0.0816  0.2269  0.1145
30753W        W73806  13.483   2.504   5.781 -0.0125 -0.2181 -0.0301
30754W        W73807  29.945  33.173  21.255  0.3073 -0.6601  0.0614
30755W        W73808  30.438  28.081   4.682  0.0264 -0.0052  0.0425
30756W        W73809  29.095  13.260  28.713 -0.3279  0.1350  0.1709
30757W        W73810  23.968   2.917  25.379 -0.0610  0.1697  0.1736
30758W        W73811  20.382   9.542   5.110  0.1013 -0.1066 -0.3103
30759W        W73812  19.617   2.295   3.892 -0.2058  0.2743 -0.0550
30760W        W73813  26.013  11.877  20.906  0.2501 -0.3129  0.1663
30761W        W73814  34.369  10.776  28.488  0.1004 -0.0878  0.1186
30762W        W73815  20.100  14.667  23.834 -0.1309 -0.0596  0.0336
30763W        W73816  25.685  28.172   8.450  0.4257 -0.0991 -0.1650
30764W        W73817  20.351  30.439  22.534  0.0180 -0.1923 -0.0369
30765W        W73818  17.160  27.468  28.380 -0.0133 -0.0396 -0.2629
30766W        W73819  20.640  28.168   7.716 -0.1890 -0.1688 -0.2177
30767W        W73820  31.123  12.382  27.370  0.2616  0.0666 -0.0776
30768W        W73821  27.502   7.640   6.023 -0.2814  0.6665  0.3909
30769W        W73822   1.330  33.399   7.892 -0.0941  0.0804 -0.1094
30770W        W73823  34.357   2.327  10.537  0.2130  0.0619  0.3910
30771W        W73824   1.127  33.982  27.567  0.2139 -0.2510  0.3086
30772W        W73825  20.162   6.418   9.668  0.0930 -0.0513  0.1826
30773W        W73826  23.064   7.569   4.485 -0.0891  0.0478  0.0937
30774W        W73827  13.093   3.115   0.492  0.0081 -0.1306  0.0032
30775W        W73828  21.886   7.459   7.120  0.0166  0.2363  0.0208
30776W        W73829  22.159   2.330   6.710  0.3201 -0.2701 -0.0708
30777W        W73830  22.952   0.023   2.125  0.2039 -0.1361 -0.2443
30778W        W73831  24.088  19.211  26.116 -0.3108  0.0029  0.0477
30779W        W73832  34.490  18.590   8.818 -0.1066 -0.1905  0.0555
30780W        W73833   6.280   2.592   8.513 -0.3151  0.2908  0.1795
30781W        W73834  27.308  12.041   6.920 -0.0701  0.1984 -0.0413
30782W        W73835  32.679   5.041  28.791  0.1191  0.0784 -0.1447
30783W        W73836  24.282  17.779  22.099 -0.0136  0.2982  0.2104
30784W        W73837   3.070  20.975   7.654 -0.3153  0.0191 -0.0889
30785W        W73838  28.222  19.590  21.847 -0.1026 -0.2477  0.0445
30786W        W73839  15.281  10.203   1.377  0.0468  0.2694  0.1766
30787W        W73840   1.665  26.197   8.702 -0.0766 -0.1844 -0.0874
30788W        W73841  27.133  11.605   9.109  0.1113 -0.0890 -0.1527
30789W        W73842  25.134   7.515  17.183  0.3259  0.0452  0.1226
30790W        W73843  29.953   3.096   9.303  0.2448  0.0142 -0.1695
30791W        W73844  13.528  23.323   2.998  0.1448  0.2091  0.1575
30792W        W73845  28.484  29.962   8.794 -0.0967 -0.2544 -0.0006
30793W        W73846   1.470   4.956  24.123 -0.0176 -0.0593 -0.3222
30794W        W73847  24.039  32.249   4.571  0.1293 -0.0249 -0.1465
30795W        W73848  30.374   1.208   6.743 -0.1693  0.2548 -0.1525
30796W        W73849  21.278   8.546  10.214 -0.0191 -0.4705 -0.0975
30797W        W73850  21.963   8.966   9.607 -0.1471 -0.0901  0.1067
30798W        W73851  34.207  14.675   9.256  0.2876 -0.2448 -0.2310
30799W        W73852  34.431  10.142   9.322 -0.0229  0.0959  0.1003
30800W        W73853  32.783   5.641  25.306  0.3749  0.2633  0.3076
30801W        W73854  34.573   1.722  25.080  0.0699  0.0242 -0.3678
30802W        W73855  23.912  18.041   1.970  0.1040 -0.4555 -0.1684
30803W        W73856   0.442   7.013  20.951  0.2275 -0.1311  0.0521
30804W        W73857  29.608   3.113   4.619  0.1293 -0.1320  0.2113
30805W        W73858  16.385  20.745  28.666 -0.1204 -0.1099 -0.3420
30806W        W73859  17.808  23.488  27.770  0.4261 -0.0728 -0.0237
30807W        W73860  29.400  26.137   3.379  0.4025  0.2061  0.1611
30808W        W73861   2.719  32.183  21.371 -0.3617 -0.3457  0.0594
30809W        W73862  21.771  14.481  26.934 -0.1988  0.1854  0.2729
30810W        W73863  11.638   3.120   1.643 -0.0181 -0.1263 -0.0490
30811W        W73864  16.620  11.707  25.692 -0.0003  0.2853  0.0020
30812W        W73865  19.777   3.862  15.777 -0.3273 -0.2341 -0.2874
30813W        W73866  23.724  25.721   2.599  0.1928  0.3566 -0.0349
30814W        W73867  24.274  33.178   5.958 -0.0487  0.2276  0.5013
30815W        W73868  32.575   9.614  20.316 -0.1477  0.0760  0.2895
30816W        W73869   2.748   6.812   3.392 -0.0795  0.0241 -0.1337
30817W        W73870   6.128  30.922   1.658 -0.0048  0.1108 -0.0290
30818W        W73871  26.089   7.487   6.043  0.2157  0.0655  0.0058
30819W        W73872  25.275  20.281  18.753 -0.1117  0.2227  0.2587
30820W        W73873  17.440  10.794  27.179 -0.3329  0.1197  0.2646
30821W        W73874  25.885  29.164  26.092 -0.1165  0.2394  0.1195
30822W        W73875  34.555   7.328   6.440  0.0997  0.0184  0.3302
30823W        W73876  22.128  19.329  24.889 -0.0396  0.2586  0.0242
30824W        W73877  10.168   0.133  21.147  0.0726  0.0424  0.1557
30825W        W73878  18.686  10.988   4.971  0.0868  0.0338 -0.2573
30826W        W73879  20.117  31.174   7.090 -0.0711  0.3968  0.2271
30827W        W73880  26.085  32.971  19.998 -0.0344 -0.0681 -0.2383
30828W        W73881  27.648   7.462   9.497  0.2244 -0.0056  0.0200
30829W        W73882  17.738  14.075   6.402 -0.0208  0.1363  0.2092
30830W        W73883   3.046  10.381  21.731  0.3408  0.0950 -0.0714
30831W        W73884  21.250  19.142   6.642  0.2126 -0.2204  0.0536
30832W        W73885  23.592  26.191   2.677  0.3468  0.0677  0.0928
30833W        W73886  23.909   9.051   7.292  0.0581 -0.0392 -0.1731
30834W        W73887  10.217   8.451  16.820  0.0806 -0.1050 -0.1745
30835W        W73888  27.797  27.903   6.842  0.0703  0.0235 -0.0484
30836W        W73889   4.912  30.382   5.828 -0.1268  0.1547  0.0941
30837W        W73890   9.469   8.816  28.405 -0.1615 -0.3438  0.1046
30838W        W73891  28.263   8.948  23.405 -0.1991 -0.1742  0.1014
30839W        W73892   0.322  28.608   6.268 -0.1131  0.1495  0.1636
30840W        W73893   1.828   9.259   2.244 -0.0522  0.0056  0.0798
30841W        W73894  26.247  18.166   0.537  0.0561  0.2572 -0.0046
30842W        W73895  33.503  14.839   1.696  0.1547 -0.0593 -0.1447
30843W        W73896   8.311  17.240  22.877  0.1929  0.3114 -0.1600
30844W        W73897  29.868   1.696  20.407 -0.0290 -0.0577 -0.1740
30845W        W73898  27.942  13.529  28.729 -0.0023  0.0066 -0.0018
30846W        W73899  14.428   0.035   6.685 -0.0447 -0.3906 -0.0959
30847W        W73900  18.445   4.320   7.433  0.2773  0.0376  0.2429
30848W        W73901  32.207   1.986  14.841  0.0745 -0.1793  0.0186
30849W        W73902  17.468   5.926  27.990 -0.1384 -0.1334  0.0301
30850W        W73903  30.787  26.433   7.711 -0.0405  0.0877 -0.0296
30851W        W73904  28.570   2.052  26.643 -0.1851  0.2542  0.0696
30852W        W73905  26.384  21.332   6.656  0.2117  0.0008 -0.0412
30853W        W73906  24.389   6.570   7.354 -0.2010  0.4345 -0.1754
30854W        W73907   1.913   3.616   7.058  0.0570 -0.2280  0.1415
30855W        W73908  22.211   1.326   9.261  0.0251  0.0924 -0.1613
30856W        W73909  33.452  12.942   1.251 -0.0879 -0.1758  0.1463
30857W        W73910  19.136   8.335   4.735 -0.1265 -0.0232  0.2875
30858W        W73911  22.173  11.945  27.907  0.2690 -0.1811  0.2393
30859W        W73912  34.105  12.512  28.374  0.0025  0.1027  0.2976
30860W        W73913  17.959   7.090   3.465 -0.3256  0.0783 -0.1451
30861W        W73914   6.872  10.792  15.296  0.0759 -0.0623 -0.2855
30862W        W73915  32.087   3.637   8.926  0.0715  0.0582  0.0218
30863W        W73916  17.874  18.817   7.443  0.0090 -0.0735  0.0259
30864W        W73917  16.987  32.260   3.200 -0.0247  0.0102  0.1063
30865W        W73918   5.267  27.105   3.307  0.2840  0.0689  0.0725
30866W        W73919  28.213  29.752   1.690  0.0361 -0.5049  0.3398
30867W        W73920  23.493  26.308   0.321 -0.0384 -0.0000 -0.1120
30868W        W73921   7.356  33.581   6.584 -0.1057  0.0088  0.1494
30869W        W73922  24.177   1.469  19.163 -0.0780 -0.2952 -0.1388
30870W        W73923  23.932  13.089  26.138  0.1720 -0.0257  0.1519
30871W        W73924  16.520  28.954   8.230 -0.1783  0.1677 -0.0045
30872W        W73925  33.776  30.064  21.571 -0.0540  0.0186  0.4138
30873W        W73926  24.851  18.779   5.024 -0.1652 -0.3100 -0.1348
30874W        W73927  30.934  33.575   4.303 -0.2315 -0.0115 -0.0111
30875W        W73928  31.748   7.317   7.424  0.1238 -0.0909 -0.1826
30876W        W73929  32.821  10.648   8.751  0.1154  0.0134  0.3032
30877W        W73930  16.696   7.740   6.777 -0.0010 -0.3018 -0.2139
30878W        W73931  28.308  11.960   5.539  0.1596  0.3659  0.0764
30879W        W73932  20.503   0.065  21.014 -0.2644 -0.1469 -0.1563
30880W        W73933  14.021  23.375   8.119  0.2210  0.0824  0.1626
30881W        W73934   9.338  12.353   4.424 -0.0790  0.2654  0.2162
30882W        W73935  22.968  11.523   7.894 -0.3162  0.1245  0.2490
30883W        W73936  17.581   5.933   6.522 -0.4622  0.0798 -0.1498
30884W        W73937  21.755  16.079  24.610 -0.2151 -0.2447  0.3736
30885W        W73938  17.086   4.857   9.827  0.0185  0.1900  0.1341
30886W        W73939   4.702  30.043  18.049 -0.0732 -0.0032  0.4501
30887W        W73940  32.721   3.762  10.477 -0.0550 -0.1744 -0.0226
30888W        W73941   4.405   8.608  25.811 -0.0352 -0.1677  0.1378
30889W        W73942  32.714   0.707   4.778  0.1119  0.4509  0.0502
30890W        W73943  19.698   3.695  27.179 -0.2821  0.2149 -0.3297
30891W        W73944  20.356  11.125   9.343 -0.0368 -0.1550 -0.1689
30892W        W73945  24.718   1.647   7.404  0.0495  0.0960 -0.2333
30893W        W73946   1.477   2.812  21.382  0.0153 -0.0480  0.1225
30894W        W73947  25.164  30.546   8.962  0.2046 -0.2712  0.2083
30895W        W73948  25.518  11.142  25.548 -0.1847  0.2557 -0.0641
30896W        W73949  17.304   6.171  25.740 -0.3709  0.2742 -0.1775
30897W        W73950  25.082  33.008  25.362 -0.1638  0.0905 -0.1816
30898W        W73951  19.915  30.760   3.694  0.0482 -0.0676 -0.0452
30899W        W73952  20.461  15.150   5.933 -0.2329 -0.4719  0.1901
30900W        W73953  28.783  28.649  19.994  0.2387  0.2522 -0.2518
30901W        W73954  29.514  15.167   0.238  0.4767 -0.0398 -0.3305
30902W        W73955   4.816  21.312   9.102 -0.0487 -0.0179  0.2014
30903W        W73956  25.211  12.118  18.390  0.0912  0.2208  0.2523
30904W        W73957  28.475  23.485   1.542 -0.3298  0.1495 -0.1319
30905W        W73958   1.689  24.045  27.686  0.0793  0.2240  0.2661
30906W        W73959  17.700  19.017  12.602  0.1371 -0.1750 -0.2271
30907W        W73960   2.712   4.785   9.175 -0.2503 -0.2855 -0.0403
30908W        W73961   2.502  32.768  23.170 -0.0040 -0.0888  0.2510
30909W        W73962  18.291  13.093   6.269 -0.0332 -0.3073 -0.0546
30910W        W73963  29.923  24.058  17.995  0.0015  0.0026  0.0164
30911W        W73964  23.437  12.553  25.016 -0.3279 -0.2917 -0.1263
30912W        W73965  33.184   7.331   2.739  0.1411 -0.1617 -0.1372
30913W        W73966  27.988   8.115   9.324  0.0644 -0.1539 -0.4062
30914W        W73967   7.029  13.847   5.316 -0.1039  0.3244 -0.2109
30915W        W73968  15.193   0.802  21.163 -0.0624 -0.1954  0.0483
30916W        W73969  26.351   4.424  22.898  0.2542 -0.5268 -0.3672
30917W        W73970  30.701   5.135  15.816 -0.1634 -0.1684  0.1528
30918W        W73971  29.881   1.756   7.530 -0.0774 -0.0710 -0.1868
30919W        W73972  29.541   0.506   9.257  0.2020 -0.0969 -0.1116
30920W        W73973   9.084  27.957  26.924 -0.2405  0.0045  0.2408
30921W        W73974  27.439  21.546   0.740 -0.1119  0.0041 -0.0881
30922W        W73975  30.127  15.729  16.715  0.1126 -0.2648  0.2898
30923W        W73976  25.263   6.375  14.067 -0.0486 -0.2395 -0.1146
30924W        W73977  22.732  32.526  19.496 -0.3135  0.0754 -0.3077
30925W        W73978  10.916  11.678  27.151 -0.3381 -0.2771 -0.1678
30926W        W73979  23.997  16.528   6.571 -0.1902 -0.0566  0.0246
30927W        W73980  24.238  15.674  18.932 -0.3327  0.0675  0.1343
30928W        W73981  26.073   3.092  21.970 -0.0408  0.1288 -0.1920
30929W        W73982  32.106  29.709   7.046  0.1727 -0.1129  0.0999
30930W        W73983  16.861  29.885  19.420  0.1258  0.0920 -0.2444
30931W        W73984   2.684  24.129   9.256  0.0999  0.0383 -0.0768
30932W        W73985  10.097  28.338   3.553 -0.0099 -0.2057 -0.1875
30933W        W73986  23.010  23.550   2.144  0.0115  0.0813 -0.1649
30934W        W73987  18.848  24.896   0.626 -0.2567 -0.6300  0.0666
30935W        W73988   6.385   0.479  25.044  0.0729  0.4090 -0.0508
30936W        W73989  18.867   9.697  26.502  0.1144  0.0904 -0.0175
30937W        W73990  26.875   0.021  21.670 -0.0073 -0.1378  0.0654
30938W        W73991  21.369  13.177   5.371 -0.0788  0.1976 -0.2279
30939W        W73992  21.598  10.889  26.113  0.2967 -0.1313 -0.0423
30940W        W73993  29.648   4.407   7.084 -0.0734 -0.0002 -0.1015
30941W        W73994  18.092  32.969  28.452 -0.2159 -0.0919  0.2736
30942W        W73995  27.747  11.762   7.906 -0.0333 -0.2368 -0.3997
30943W        W73996  29.295  15.927   4.261  0.1337 -0.1268  0.0562
30944W        W73997  31.287   4.337   2.826 -0.2250 -0.1531  0.1137
30945W        W73998  22.712  21.764   4.405 -0.0268  0.0224 -0.0385
30946W        W73999  15.385  18.958   5.778 -0.1484 -0.0917 -0.3610
30947W        W74000  19.654  14.811  27.059 -0.0380  0.2099  0.0767
30948W        W74001  28.821  28.860  27.213  0.1527  0.1434 -0.0792
30949W        W74002  22.817   6.868   5.690 -0.0960  0.3730  0.1064
30950W        W74003   8.865   6.605  28.958 -0.1227  0.0924  0.1896
30951W        W74004  23.950  32.404  25.967  0.2201 -0.0505 -0.1325
30952W        W74005  23.198  31.909  29.124 -0.1018  0.2566 -0.2808
30953W        W74006  34.384   9.358   2.772 -0.1040  0.2791  0.2861
30954W        W74007   2.334  19.607  25.920 -0.1155 -0.0047  0.1439
30955W        W74008  14.952  18.562   5.914 -0.1851 -0.0900  0.0115
30956W        W74009  24.058  10.498   3.882 -0.2320  0.0550  0.0490
30957W        W74010  30.787  11.410   9.141  0.0505 -0.2025  0.2566
30958W        W74011  33.104  25.394   6.347  0.0842  0.1082  0.2121
30959W        W74012  33.761  12.500   5.720 -0.2084 -0.1673  0.0177
30960W        W74013  22.182  28.422  23.823  0.0468  0.3081  0.0862
30961W        W74014  28.459  14.445   7.150  0.2591  0.1012  0.0066
30962W        W74015  14.094  17.456   1.856  0.4063  0.0786 -0.3481
30963W        W74016  19.716   4.596  29.192 -0.0834  0.1813  0.1642
30964W        W74017  19.954  15.252  20.655 -0.1846 -0.0154 -0.2529
30965W        W74018   7.908  22.499  10.112 -0.0828  0.2988  0.0815
30966W        W74019   3.104  33.111  23.880  0.1293 -0.0248  0.2602
30967W        W74020  11.709  16.831   0.690  0.0118  0.1174  0.0655
30968W        W74021   1.460   8.334  18.171  0.0720  0.2738 -0.3623
30969W        W74022  28.980   0.460   7.224  0.0514  0.0962  0.0949
30970W        W74023  31.960  13.917  21.493  0.1257 -0.1935 -0.3773
30971W        W74024  30.054  14.817   0.791 -0.2290  0.0777 -0.2770
30972W        W74025  20.594   4.515  26.124 -0.1514 -0.0572 -0.0694
30973W        W74026  32.938   8.300   0.789  0.0776 -0.2488 -0.2361
30974W        W74027   4.051  23.229  22.528 -0.3740 -0.0820  0.2081
30975W        W74028  30.950  14.642  28.617 -0.0811 -0.0242  0.1055
30976W        W74029   1.621  28.573   7.808 -0.1938 -0.1634 -0.0444
30977W        W74030  31.902   1.050   1.042 -0.2774 -0.0845  0.1368
30978W        W74031   6.637  12.355   5.615 -0.5344 -0.1516 -0.0120
30979W        W74032  24.690  26.757   3.036 -0.4075  0.1582 -0.1130
30980W        W74033  22.244   3.066   6.556  0.2201 -0.1263  0.2048
30981W        W74034  11.745  25.543  25.845  0.0677 -0.1362 -0.3203
30982W        W74035  21.594  12.052  21.525 -0.2274  0.1264 -0.1101
30983W        W74036  17.442   4.115   6.800  0.0110  0.0927  0.0197
30984W        W74037  24.752  12.948  18.870  0.0879  0.2559 -0.1539
30985W        W74038   4.860  30.268   3.855 -0.1848  0.0465 -0.0045
30986W        W74039  32.371   3.122  28.481 -0.0502  0.1696  0.0251
30987W        W74040  34.515  23.544  26.649  0.1031  0.0179  0.3287
30988W        W74041   9.908  28.224   2.699 -0.2430 -0.3130  0.0976
30989W        W74042   1.842  11.392  16.401  0.1405 -0.2016 -0.0571
30990W        W74043  29.248   1.313  17.044  0.3860  0.1373 -0.3287
30991W        W74044  18.486  19.193  26.362  0.1926 -0.1375  0.1518
30992W        W74045  29.257  11.536   8.356 -0.0081  0.0124  0.3450
30993W        W74046  23.365  10.739   6.729  0.0512 -0.0947 -0.0091
30994W        W74047   6.047  27.738   8.279  0.1662 -0.0727 -0.1667
30995W        W74048  10.512   8.354  10.504 -0.2811  0.0525  0.0144
30996W        W74049   7.576   8.120   9.533 -0.0688 -0.0390 -0.3041
30997W        W74050  30.711  16.214   5.029  0.2722  0.4408 -0.2107
30998W        W74051   1.972  34.547  21.618  0.4228  0.2039 -0.0378
30999W        W74052  16.502  30.808  27.652  0.0547  0.1185  0.1649
31000W        W74053  27.425   9.827   6.511  0.1219  0.1604  0.1453
31001W        W74054  22.975  32.451   5.265  0.1561 -0.1974  0.2455
31002W        W74055  20.766  30.086  10.218 -0.0302 -0.4221  0.0591
31003W        W74056   5.290   6.719   9.241  0.1304  0.1294  0.0420
31004W        W74057   7.012   9.432  22.699  0.0955 -0.2334 -0.2357
31005W        W74058  34.177  24.678   5.738 -0.0136 -0.2315 -0.0503
31006W        W74059  22.292   5.868  22.587 -0.3307 -0.5302  0.0424
31007W        W74060  17.037  26.780   3.005 -0.1458 -0.5163 -0.0150
31008W        W74061  12.546  22.456   7.532 -0.4492 -0.3448 -0.1592
31009W        W74062   6.052   9.368  23.038 -0.1240  0.0106 -0.3152
31010W        W74063  11.882  12.958  16.099  0.0630  0.1466  0.0968
31011W        W74064  24.307  13.706   1.376  0.2619 -0.1656  0.1663
31012W        W74065   3.056  14.173   2.589 -0.1064  0.1023 -0.1494
31013W        W74066   9.572  20.969   3.201 -0.0427  0.1303 -0.0273
31014W        W74067  31.255  16.352  22.382  0.0200 -0.1596  0.0804
31015W        W74068  24.792  26.894  18.942  0.0014  0.0664  0.0020
31016W        W74069  31.552   8.441  21.433  0.1950  0.2166 -0.0741
31017W        W74070  24.555   6.101  10.004 -0.1509  0.0831 -0.0033
31018W        W74071   7.728  30.385   0.968  0.1851 -0.1202 -0.1231
31019W        W74072  20.686  15.232   3.203 -0.0439 -0.3852 -0.0052
31020W        W74073   1.334   3.720  20.091 -0.0719  0.1174 -0.1322
31021W        W74074  20.470   6.240   3.971  0.1743  0.2198  0.1427
31022W        W74075   2.353  32.525  27.782  0.0754  0.1409 -0.3835
31023W        W74076  25.892   3.270   0.158  0.0161  0.1434 -0.0593
31024W        W74077  17.418  29.137   5.832 -0.0128  0.2758 -0.0122
31025W        W74078  22.279   3.890  27.034  0.3167 -0.2869  0.1083
31026W        W74079   5.789  11.677  21.373 -0.2666  0.2550  0.2216
31027W        W74080  26.646  13.930   6.062  0.2438  0.0481 -0.1796
31028W        W74081  16.751   8.177  23.122 -0.3313 -0.2858  0.0258
31029W        W74082  21.697   8.838   4.448 -0.0972 -0.1297 -0.1495
31030W        W74083   5.174   0.656   6.766 -0.3757 -0.1761  0.0411
31031W        W74084  19.523  19.032  23.388  0.2698 -0.1919  0.0117
31032W        W74085  25.118  14.169   1.818 -0.2176  0.1662 -0.1041
31033W        W74086   3.968   3.032  15.068 -0.1673  0.0147 -0.0842
31034W        W74087  18.660   5.974   5.784 -0.0881 -0.0919 -0.0208
31035W        W74088  29.564  34.389  27.067  0.0867 -0.0188 -0.2328
31036W        W74089  21.311  32.880   9.472  0.1897  0.4154  0.2146
31037W        W74090  30.602   3.955  28.947 -0.0647  0.3594  0.0553
31038W        W74091  12.646  11.534   3.917 -0.2729  0.1131 -0.1042
31039W        W74092   2.330   6.407   5.827 -0.1643 -0.3164  0.3028
31040W        W74093  16.063   6.858   7.587  0.0338 -0.1178  0.0032
31041W        W74094  34.134  18.052  23.465  0.0255  0.2680 -0.0574
31042W        W74095   0.067  22.310   7.973 -0.0834 -0.3599  0.0824
31043W        W74096   6.934   2.023   6.017  0.1600 -0.0162  0.1463
31044W        W74097   7.013  15.361  24.732  0.0892  0.3150 -0.1038
31045W        W74098  28.103  26.544   8.026  0.0016  0.1342 -0.0418
31046W        W74099  33.205  17.182  28.745  0.0697 -0.1567  0.0432
31047W        W74100  19.396  11.647  28.685  0.0545  0.0027 -0.2076
31048W        W74101  27.754  30.062   0.321  0.3012  0.0551 -0.0589
31049W        W74102  22.574  26.774   0.356  0.2322 -0.2950  0.2410
31050W        W74103   3.195  20.030   9.011 -0.0704 -0.3197 -0.0738
31051W        W74104  31.522  12.734  27.394  0.0651  0.1568  0.1766
31052W        W74105  29.689  14.783   4.663  0.2007 -0.1025  0.2382
31053W        W74106   4.737  12.713  22.246 -0.0652  0.0489  0.1820
31054W        W74107  12.439  29.978   8.299 -0.1908 -0.0431 -0.2042
31055W        W74108  29.219   8.804   7.053 -0.1570 -0.1517  0.0594
31056W        W74109  31.068  12.590   8.671  0.3955 -0.0266  0.0843
31057W        W74110  26.904   9.727  20.044 -0.0790 -0.1080  0.0985
31058W        W74111  24.194  20.058   3.422 -0.1008 -0.1439  0.3119
31059W        W74112  31.709  33.515   8.177  0.0842  0.0876  0.0369
31060W        W74113  32.233  13.213  10.230  0.1822 -0.0772  0.2240
31061W        W74114  17.719   2.094   1.942  0.1594 -0.2225 -0.0347
31062W        W74115  14.940  25.989   6.000  0.0854 -0.0336  0.1209
31063W        W74116  25.063  30.253   3.167 -0.3220  0.0604 -0.0576
31064W        W74117  34.137   4.704  24.363 -0.1945  0.2247 -0.2809
31065W        W74118  26.024   3.374  19.579  0.0064 -0.0747  0.0742
31066W        W74119   0.301   2.543  23.028  0.1898  0.1824  0.0312
31067W        W74120  34.602  12.777  28.653  0.3685 -0.1946 -0.0414
31068W        W74121  19.980  15.628   6.445  0.1131  0.1840 -0.3409
31069W        W74122   6.844   2.256   9.476 -0.1108  0.1432  0.1642
31070W        W74123  25.760  31.883   6.755 -0.1001 -0.2350 -0.0966
31071W        W74124  20.495  23.178  24.031  0.0615  0.0800  0.0529
31072W        W74125  16.616  26.313   0.255  0.0839 -0.2029  0.0409
31073W        W74126  34.271   9.973  24.047 -0.0366  0.2169  0.0169
31074W        W74127   0.103   2.692  21.561  0.1796 -0.0265 -0.2275
31075W        W74128  28.664  17.005  15.600 -0.0595 -0.1585  0.5377
31076W        W74129  29.220  12.575   3.256  0.2033 -0.1861 -0.0195
31077W        W74130  25.837   8.950   4.149 -0.0901  0.0588 -0.1944
31078W        W74131  32.978   9.950  15.701 -0.3350 -0.0191 -0.3768
31079W        W74132  20.909  12.777   8.086 -0.0178  0.0083  0.1443
31080W        W74133  29.754  19.179   7.001 -0.2907 -0.1774  0.0244
31081W        W74134  11.125   6.184   7.139  0.2139 -0.0607  0.2257
31082W        W74135  26.527   9.216   8.611 -0.1714  0.1154 -0.0260
31083W        W74136  18.675  17.467   2.354 -0.1672  0.1659 -0.2341
31084W        W74137  32.283  18.626  27.466  0.0281  0.1199  0.4544
31085W        W74138  11.415   8.559   5.332  0.1425  0.0978  0.0020
31086W        W74139   0.643   9.021  29.118 -0.1645  0.2456 -0.1303
31087W        W74140  29.025   2.379   5.181 -0.1924 -0.0546  0.1213
31088W        W74141   3.323  20.396   6.372  0.0845  0.1445  0.1955
31089W        W74142  19.919   3.085  20.480  0.3378  0.0771  0.2306
31090W        W74143  18.173  19.018  13.757  0.2696 -0.1738  0.1425
31091W        W74144  24.650  16.850  28.047  0.0879  0.1164 -0.1141
31092W        W74145   8.694  23.879   6.688  0.0810  0.3106  0.0381
31093W        W74146  22.876   3.621   6.140  0.0597  0.0222  0.0108
31094W        W74147   1.267   4.012  22.385  0.1629 -0.1730 -0.4367
31095W        W74148  34.141  14.960  28.997 -0.2969  0.3834  0.3125
31096W        W74149  28.901   3.612   7.122 -0.1352  0.1210 -0.1526
31097W        W74150  29.675  31.650   4.023  0.4817  0.3185  0.1568
31098W        W74151  17.204   6.290  27.519 -0.0961 -0.0569  0.1317
31099W        W74152  21.418  30.374   8.800 -0.0526 -0.3042  0.1394
31100W        W74153  22.487   7.718  22.613  0.3002 -0.2207  0.0610
31101W        W74154   5.391  13.801   7.957 -0.0266 -0.0378 -0.2300
31102W        W74155  28.751  15.628   8.327  0.2293  0.1973 -0.0535
31103W        W74156  24.680  15.247  28.286  0.1628 -0.1568 -0.0667
31104W        W74157  19.556  26.166  24.141 -0.2190  0.0368 -0.0445
31105W        W74158  29.995  32.447  22.877 -0.2805 -0.1392 -0.0638
31106W        W74159   6.113   2.911   6.261 -0.1223  0.1209 -0.4384
31107W        W74160  14.094  14.076  28.370 -0.3502 -0.0025 -0.3485
31108W        W74161  21.138  12.716   3.676  0.0538 -0.1710  0.3168
31109W        W74162  31.570  11.057   4.717 -0.0810  0.1826 -0.2572
31110W        W74163  14.416   2.718   1.885 -0.2949 -0.1360 -0.0020
31111W        W74164  12.710  14.963  24.454 -0.0482  0.1916 -0.3254
31112W        W74165  24.133  13.613  19.797 -0.0433 -0.2322 -0.0318
31113W        W74166  28.927   5.792   6.435  0.0767 -0.1978  0.0824
31114W        W74167  26.622  29.271   7.962  0.1418  0.1886  0.1757
31115W        W74168  16.984  20.362   6.476  0.1634 -0.2428  0.2752
31116W        W74169  10.336  29.471  25.822  0.1508 -0.1827 -0.2373
31117W        W74170  14.593  25.091   0.329 -0.4721  0.2825  0.0347
31118W        W74171  13.830   7.780   2.634  0.0447 -0.3760  0.0521
31119W        W74172  26.965  18.122  10.568 -0.0030  0.0044  0.2917
31120W        W74173   9.172   9.628   7.721 -0.1506 -0.1035  0.1968
31121W        W74174  11.705  21.700  28.065 -0.1257  0.1884 -0.1077
31122W        W74175  17.246  13.733   9.224  0.2221  0.0697  0.2571
31123W        W74176  16.653  12.087  23.990  0.2995 -0.0540 -0.0997
31124W        W74177  27.620  11.450  17.007 -0.1387  0.3887 -0.2998
31125W        W74178  26.123   6.597  18.917  0.1984 -0.0592  0.1339
31126W        W74179  21.829  14.024   2.566 -0.0392  0.1355  0.3538
31127W        W74180  17.380  13.411   2.840 -0.1178 -0.3736 -0.3047
31128W        W74181   7.604   6.933  20.047  0.1320 -0.3004 -0.1778
31129W        W74182  16.315  30.363   5.880 -0.0956  0.1623 -0.2555
31130W        W74183  19.036   0.907  14.439  0.1727  0.3740  0.0178
31131W        W74184  34.602   3.118  21.385  0.0565 -0.1716 -0.1511
31132W        W74185  22.843   6.257   7.239 -0.0382 -0.0042 -0.1677
31133W        W74186   5.535  21.495  24.901 -0.2125  0.2144  0.2865
31134W        W74187  21.390  11.010   1.506 -0.0296  0.2260 -0.2016
31135W        W74188  31.917  29.233  26.356  0.4117 -0.2649  0.1077
31136W        W74189  31.509  13.888   5.949  0.0458 -0.0736 -0.1738
31137W        W74190  23.726   0.243  26.953  0.0658 -0.0825 -0.0061
31138W        W74191   8.634  10.181   6.984  0.1053 -0.2800 -0.0174
31139W        W74192  27.139   2.172   2.436  0.2173  0.1790  0.1363
31140W        W74193  19.820  23.060  19.610 -0.1208 -0.0398 -0.1268
31141W        W74194  25.348   8.251  25.109 -0.1770  0.0458 -0.0210
31142W        W74195  20.544  15.477  27.371  0.2075 -0.0725  0.0265
31143W        W74196  22.069  30.265  23.770  0.3919  0.0424 -0.1181
31144W        W74197   6.967  18.782  14.751 -0.0844 -0.0464 -0.0396
31145W        W74198  26.786   4.535   6.286  0.2367 -0.2169  0.1707
31146W        W74199  30.269   2.633  24.922 -0.1601  0.0689 -0.1337
31147W        W74200  30.852  26.368  26.636  0.1026 -0.1731 -0.1858
31148W        W74201  29.479  21.491   5.515 -0.1282  0.0398 -0.1995
31149W        W74202   0.713   1.923   3.682 -0.2851  0.0542 -0.2412
31150W        W74203  17.855   8.485  23.895  0.2605  0.1976 -0.1849
31151W        W74204  26.561   5.766  24.338  0.1386  0.2888  0.0374
31152W        W74205   5.560  27.661  14.020  0.2257  0.1767  0.2037
31153W        W74206  30.332  14.387  10.647  0.0444  0.0189 -0.1094
31154W        W74207  28.818  25.338   8.167  0.4418  0.0212 -0.0522
31155W        W74208  18.318  16.024  24.872 -0.0981 -0.0153  0.4764
31156W        W74209  32.794  17.464   3.161 -0.0665  0.3476 -0.1191
31157W        W74210  21.079  20.703   3.837  0.0139 -0.1399  0.3785
31158W        W74211   6.714  16.393   9.977 -0.0704  0.1460 -0.0793
31159W        W74212   4.029  31.483   4.915 -0.0591  0.2685 -0.1702
31160W        W74213   4.216  32.149   0.576 -0.1824  0.0330  0.0383
31161W        W74214  21.432  27.616   3.641 -0.0311 -0.1029  0.2705
31162W        W74215  25.107  10.888  27.819  0.3643 -0.1035  0.1749
31163W        W74216  12.366   0.889   3.936  0.1307  0.0532  0.0161
31164W        W74217   0.513   0.457   0.642 -0.0652  0.1310  0.1506
31165W        W74218  29.758   7.955   5.840  0.0313  0.3346  0.1717
31166W        W74219  25.459   3.505   7.587 -0.0686 -0.0933 -0.0706
31167W        W74220  26.442  30.369   3.315 -0.0148 -0.0532  0.2410
31168W        W74221  16.511  12.700  10.100  0.1443  0.0624 -0.0767
31169W        W74222  16.227   7.289  10.193 -0.1902  0.0097  0.1660
31170W        W74223   1.349  17.554   4.812  0.0137  0.1016  0.2183
31171W        W74224  30.430   5.230   9.676  0.0989  0.0272  0.2548
31172W        W74225  28.378   3.984   1.584  0.4324 -0.2496 -0.0284
31173W        W74226  25.053  24.193  19.745 -0.4681  0.1745  0.0206
31174W        W74227  31.132  32.493   7.330  0.0686 -0.1512 -0.0291
31175W        W74228  14.200  16.292   7.693 -0.1185 -0.2988  0.1952
31176W        W74229   2.052  33.253  26.560  0.0009  0.2933  0.1497
31177W        W74230  29.162  27.060  23.823 -0.0080  0.0076 -0.4319
31178W        W74231   1.981  34.060   8.092  0.0773 -0.2887  0.0857
31179W        W74232  19.894  17.783   8.166  0.0165  0.1191  0.4142
31180W        W74233  22.840  27.139   0.174 -0.0149 -0.1907  0.1745
31181W        W74234   7.718   2.010   1.076 -0.1920  0.2305 -0.0599
31182W        W74235  27.370   3.670   1.679 -0.0839 -0.1162 -0.0529
31183W        W74236  26.087  26.359   9.565 -0.1860 -0.1030 -0.3919
31184W        W74237  16.870   7.645   8.730 -0.0964  0.0485 -0.1198
31185W        W74238  11.710  24.359   1.540  0.0598 -0.1098 -0.5393
31186W        W74239  19.486  11.873  26.971  0.2261  0.1345 -0.1462
31187W        W74240  13.955  14.690   7.367 -0.2282  0.1660  0.1449
31188W        W74241  31.846   6.987   1.940  0.1860 -0.1736 -0.0661
31189W        W74242  25.804  26.270   4.688 -0.0449  0.0364  0.0371
31190W        W74243   6.643  25.412   1.618  0.0494 -0.3354  0.0866
31191W        W74244  21.679   8.812   7.726  0.1897  0.0509 -0.5019
31192W        W74245   2.644   7.285  28.743  0.0756  0.2090 -0.3341
31193W        W74246   2.252  29.698   7.814  0.1965 -0.3434  0.1130
31194W        W74247  28.382  10.782   7.974  0.1937  0.1905  0.0368
31195W        W74248  26.781  31.780  28.164 -0.2164  0.0108 -0.2314
31196W        W74249  18.462  15.482  28.009 -0.1721 -0.1251 -0.2833
31197W        W74250  29.581   2.930   2.550  0.1383 -0.1575  0.3801
31198W        W74251  31.892   4.720   3.340  0.0387 -0.2465  0.0884
31199W        W74252  12.356  23.588   7.184  0.1365 -0.3667  0.2153
31200W        W74253  22.425  31.756   3.865  0.0676 -0.2561  0.1434
31201W        W74254   0.232  34.053   4.302 -0.1000  0.0435 -0.1699
31202W        W74255  24.922   5.949  27.770  0.2558 -0.1152 -0.1356
31203W        W74256  16.613  23.315  28.554  0.2059 -0.2064 -0.3012
31204W        W74257  31.021  13.854   6.720  0.2842 -0.0327  0.0583
31205W        W74258  20.824   2.805   2.755  0.0884 -0.0283  0.0305
31206W        W74259  20.850  21.388   8.416 -0.3079  0.0850  0.0749
31207W        W74260  22.663  11.130  26.777  0.0282  0.0636  0.1900
31208W        W74261  26.924   5.455   4.102 -0.1782 -0.2199 -0.1502
31209W        W74262  30.168  14.725   5.899 -0.0351  0.1059 -0.1004
31210W        W74263  29.893  34.425   9.358  0.0222  0.1476  0.1315
31211W        W74264  33.316  24.746  18.241 -0.0797 -0.2194 -0.0516
31212W        W74265  26.595   8.163   3.298  0.0041 -0.2615  0.0837
31213W        W74266  34.501   6.090   6.895 -0.1124 -0.2133 -0.0946
31214W        W74267  16.062  19.790   6.448 -0.1234 -0.1430 -0.0052
31215W        W74268  33.210   3.407   8.844 -0.0214 -0.0363  0.0972
31216W        W74269   8.414  28.295  19.436  0.0461 -0.3815 -0.0239
31217W        W74270  21.097  32.922  28.272 -0.3127 -0.0269 -0.0229
31218W        W74271  31.603  22.428   9.502 -0.1692 -0.0874 -0.0880
31219W        W74272  31.829  10.208  25.227 -0.4227 -0.0481 -0.0040
31220W        W74273  31.856  10.019   4.846  0.1042  0.1785  0.3437
31221W        W74274  34.659   1.517  13.355 -0.1304 -0.0972 -0.1369
31222W        W74275  21.081  19.589   2.143  0.1941 -0.0810  0.1530
31223W        W74276  19.143  33.833  17.105 -0.2120  0.0647  0.2175
31224W        W74277  33.206  19.487   7.662 -0.0576 -0.0963  0.1914
31225W        W74278  26.153   8.708  10.331  0.2405  0.1897  0.2443
31226W        W74279   2.988   1.057   5.677  0.2167  0.0681  0.2388
31227W        W74280  12.638  23.953   4.552  0.0060  0.0020  0.1318
31228W        W74281   0.026  28.530   0.150  0.3081  0.3745  0.1156
31229W        W74282  32.905   8.164  25.073  0.0909 -0.2167  0.0147
31230W        W74283   7.395   4.451   3.568  0.0272 -0.0618  0.1655
31231W        W74284  25.923  10.727  24.730 -0.1108 -0.2512  0.1204
31232W        W74285  21.771  14.760   3.892 -0.1094  0.4106  0.1214
31233W        W74286  16.115  13.890  26.899  0.2187  0.0123 -0.3757
31234W        W74287  29.929  31.800   6.522 -0.3375 -0.0486  0.0166
31235W        W74288  21.393  14.925   1.189 -0.0339  0.4886  0.2619
31236W        W74289  14.043   7.325  14.930 -0.2003  0.0538 -0.0297
31237W        W74290   4.053  21.007   1.963 -0.1264 -0.1349 -0.2828
31238W        W74291  21.408   7.841   6.403 -0.0163 -0.2177 -0.0508
31239W        W74292  30.996  24.106   6.562 -0.5460 -0.0037  0.0493
31240W        W74293  29.623  27.455   7.549 -0.2341  0.1108  0.1072
31241W        W74294  25.869  29.348   2.310  0.1579 -0.3079  0.0229
31242W        W74295   3.176  16.355   9.739  0.0551 -0.0600  0.2405
31243W        W74296  17.145  23.237   0.268 -0.0385 -0.0111 -0.0685
31244W        W74297  17.343  25.816   5.657  0.2614 -0.0819  0.0127
31245W        W74298  18.741  16.687  25.459  0.0479  0.2333 -0.2713
31246W        W74299  33.723  34.125  27.563 -0.2661 -0.0963  0.0438
31247W        W74300   8.731  31.978   2.435  0.2811  0.3018  0.0689
31248W        W74301  15.412   5.814   0.425  0.0563  0.0370  0.0389
31249W        W74302  26.956   3.196   9.276 -0.2595 -0.1651  0.0232
31250W        W74303  13.862  32.763   8.120  0.0699  0.1365 -0.2681
31251W        W74304   0.269  21.154   0.468 -0.2090  0.1087 -0.3050
31252W        W74305  23.187  26.676   0.318 -0.0489  0.3501  0.0852
31253W        W74306  29.247  22.211   5.164 -0.1391 -0.3187  0.2528
31254W        W74307  32.317  30.914   3.116 -0.1460  0.0493  0.2765
31255W        W74308  20.596  22.441  28.548  0.3075  0.0412  0.2598
31256W        W74309  10.952   3.621   6.061 -0.0541  0.0546 -0.1849
31257W        W74310  18.417  11.799   0.483  0.4152  0.4746 -0.0641
31258W        W74311  27.822  30.858  24.903  0.2837 -0.1318 -0.0860
31259W        W74312  31.739  11.534   0.976  0.0859 -0.2042  0.0944
31260W        W74313  16.483  33.272   1.922  0.2571  0.0767  0.0053
31261W        W74314   3.462   3.947   1.733  0.0634 -0.2878  0.1145
31262W        W74315  33.892  11.257   7.285  0.0225 -0.1371 -0.0474
31263W        W74316  25.498  18.822  29.062 -0.0160  0.0668  0.0426
31264W        W74317  13.243  14.050   2.070 -0.2830  0.0732  0.1710
31265W        W74318   1.934  20.301   6.571  0.1631 -0.1267  0.0545
31266W        W74319  22.969   2.727   8.049 -0.2326  0.1398  0.1078
31267W        W74320  24.552  29.309   3.702  0.1231 -0.1035  0.1629
31268W        W74321   5.831  27.327   8.585 -0.0075 -0.0145 -0.0572
31269W        W74322  21.680   9.595   5.391  0.0089  0.1605 -0.0001
31270W        W74323  18.497  11.567   0.040  0.1643  0.1716 -0.1688
31271W        W74324  33.521  33.718   7.464  0.0328  0.0902 -0.1187
31272W        W74325  33.599  33.204  17.879  0.3832  0.0732 -0.2230
31273W        W74326  24.777   5.033   9.775  0.3130  0.0819 -0.2811
31274W        W74327   1.032  24.911  14.788 -0.2761  0.2899  0.2894
31275W        W74328  26.697  32.461   5.203 -0.2094  0.0078  0.2263
31276W        W74329  17.194  31.411   1.367 -0.1238  0.0699 -0.0343
31277W        W74330  26.456  23.473  15.684 -0.0443  0.1573  0.0041
31278W        W74331  23.531  24.287   1.886 -0.5460  0.1171  0.0063
31279W        W74332   2.828   9.191   9.836 -0.1178  0.1372  0.0662
31280W        W74333  21.100  10.856  20.451  0.1068 -0.2302  0.1524
31281W        W74334  21.268   4.598   5.232  0.3227  0.0806  0.0469
31282W        W74335  27.174  17.130   3.518  0.0684 -0.4378 -0.2040
31283W        W74336  30.721  32.769   7.200  0.2117  0.2758  0.1402
31284W        W74337  21.618  30.607   9.248 -0.0656 -0.2268  0.1822
31285W        W74338  29.630  30.292   5.735  0.0245 -0.2216  0.1607
31286W        W74339  13.247   6.296  29.060  0.1292  0.1799 -0.0164
31287W        W74340   7.730   5.445   7.038  0.2393 -0.1770 -0.0936
31288W        W74341  20.119  19.689   3.026  0.0983  0.0019  0.1772
31289W        W74342  11.103  17.883   6.702  0.0966 -0.1360 -0.1641
31290W        W74343  23.261  12.320  16.182  0.0566  0.0202  0.0272
31291W        W74344  19.933  12.487   5.350  0.1146 -0.1012 -0.2457
31292W        W74345  24.374  11.607   5.565  0.1185 -0.0171 -0.1026
31293W        W74346  29.244  25.215   7.700  0.4274 -0.1960 -0.0463
31294W        W74347  24.809   9.991   8.166 -0.4019 -0.0678 -0.2936
31295W        W74348  26.575  18.098  25.240 -0.1703 -0.2327  0.3289
31296W        W74349  10.401  11.934  29.180 -0.1521 -0.3632 -0.2027
31297W        W74350   4.489   0.737  22.996 -0.1530  0.1512 -0.5068
31298W        W74351  28.894   1.381   3.209  0.3520  0.0530 -0.0431
31299W        W74352  31.913   4.453  28.199  0.0752  0.2648 -0.0246
31300W        W74353  10.623  14.507   3.786  0.1467 -0.1144 -0.0738
31301W        W74354  15.216  22.648  14.926 -0.0942 -0.1895  0.1810
31302W        W74355   5.651  19.066  21.568  0.1256 -0.0367 -0.0087
31303W        W74356  23.789   6.450   6.529  0.0628  0.3927  0.0821
31304W        W74357   0.859   7.273   8.303 -0.0017 -0.0340  0.0762
31305W        W74358  26.056  26.676  18.195 -0.1807  0.1186  0.1218
31306W        W74359  18.021   7.828   9.718  0.4102 -0.1057  0.1423
31307W        W74360  13.002  25.234   1.201  0.4021  0.2793 -0.1986
31308W        W74361  14.481   2.575   4.961 -0.2289 -0.1579  0.2732
31309W        W74362   0.981   3.291  19.244 -0.0312  0.1305  0.0624
31310W        W74363  26.958   9.581  28.884 -0.0348 -0.0806 -0.0700
31311W        W74364  26.832  26.714   2.344 -0.0121  0.0846  0.1963
31312W        W74365  15.317   9.979  24.917 -0.0673  0.5671  0.0791
31313W        W74366  26.201  21.287  26.145 -0.1225 -0.0788 -0.4108
31314W        W74367  15.557  32.918  28.352 -0.0074  0.1775 -0.1417
31315W        W74368  31.285  23.998   3.244 -0.2520  0.0245  0.0951
31316W        W74369  13.483  26.725   3.003  0.0879 -0.3126 -0.0647
31317W        W74370  25.773  18.417   3.982 -0.0158  0.1583 -0.1607
31318W        W74371  23.303   5.794   2.801  0.5112 -0.2163 -0.4075
31319W        W74372  32.403   4.862   5.816  0.0870  0.0963 -0.0520
31320W        W74373  32.991  11.707   4.563  0.2061 -0.0274  0.2453
31321W        W74374  34.470   0.252   0.296 -0.0848  0.1395 -0.2143
31322W        W74375  30.002  23.750   6.005  0.1060 -0.1602  0.1563
31323W        W74376   8.752  13.680  28.895  0.0677  0.0852  0.0080
31324W        W74377  25.402  28.846   7.196 -0.1353 -0.2424  0.1759
31325W        W74378  12.432   4.530   3.928 -0.0688 -0.0487 -0.0019
31326W        W74379  20.609  18.580   3.356 -0.0100 -0.0844  0.1074
31327W        W74380  27.033   2.789   0.715 -0.0408  0.0536  0.4353
31328W        W74381  31.290  33.143   9.082 -0.1642 -0.1254 -0.1520
31329W        W74382  16.778   7.088   8.542  0.1204 -0.0992  0.1244
31330W        W74383  22.125  13.392   7.820 -0.0841  0.0288 -0.0075
31331W        W74384   3.453   0.262   3.077 -0.0248  0.0061  0.2161
31332W        W74385  26.715  33.309   2.986 -0.0214 -0.0908 -0.2165
31333W        W74386  32.141  10.747  25.190  0.2238  0.2102  0.6058
31334W        W74387  12.258   7.908   8.355  0.3798  0.4049  0.0981
31335W        W74388  19.338   4.553   6.729  0.0459  0.3231 -0.1919
31336W        W74389   9.905  11.314   4.350  0.2315  0.1117 -0.0487
31337W        W74390  13.785   5.347  25.939  0.0976 -0.2734  0.1887
31338W        W74391  20.883  28.747  22.594  0.2200 -0.2295 -0.1506
31339W        W74392  29.119  16.848   8.767  0.1932  0.0663 -0.3767
31340W        W74393  13.896   2.929  28.291 -0.3192 -0.0288  0.1676
31341W        W74394  17.439  11.811   6.398 -0.0152 -0.1926 -0.0515
31342W        W74395  34.560   4.930   7.468  0.1081  0.1741 -0.0346
31343W        W74396  21.770  18.686   4.034 -0.0635  0.0759 -0.1880
31344W        W74397  26.543   2.809   8.115 -0.1838 -0.2813 -0.3632
31345W        W74398  16.072   3.610   8.932  0.2572 -0.3727  0.0581
31346W        W74399  32.197   8.671   1.975 -0.1109  0.0100  0.1882
31347W        W74400  19.098  10.459   3.131 -0.0516 -0.2701  0.0273
31348W        W74401  12.070  32.299   9.573 -0.2624  0.3546 -0.0454
31349W        W74402  31.773   1.679   1.057  0.2553 -0.2501 -0.0783
31350W        W74403  20.387  28.427   5.023 -0.1354  0.2952 -0.3842
31351W        W74404  30.722   7.191   5.559 -0.2744 -0.4093 -0.1091
31352W        W74405  28.383  26.114   9.253  0.0961  0.1247  0.0159
31353W        W74406  22.581   3.388   4.016 -0.1204 -0.0074  0.0886
31354W        W74407  27.669  13.658  26.615 -0.2239  0.0476  0.1006
31355W        W74408   4.137  29.427  26.407  0.0266 -0.3596  0.4229
31356W        W74409   0.887  31.122  23.579  0.0184  0.2509  0.1862
31357W        W74410   4.481  32.168   9.299  0.3919 -0.1232  0.0554
31358W        W74411  13.625   6.068   2.176  0.1522 -0.3421 -0.2638
31359W        W74412  20.057   5.040   8.413 -0.0781  0.2060 -0.0403
31360W        W74413  28.962  33.387   1.702  0.0566 -0.0046 -0.3129
31361W        W74414  28.550  28.617  17.623 -0.1837  0.0001  0.2065
31362W        W74415  16.285   8.061   0.197 -0.0694  0.0370  0.2194
31363W        W74416  20.805   6.255   5.935 -0.0598  0.1760  0.2550
31364W        W74417  18.268  32.516  21.885  0.2318  0.0799 -0.2394
31365W        W74418  28.988   2.237  28.955 -0.1691 -0.0183 -0.1042
31366W        W74419   1.967  30.918  26.074  0.0485 -0.3395 -0.1577
31367W        W74420  24.785   3.822  28.259  0.0337 -0.0499 -0.3481
31368W        W74421   3.051  28.381  28.675  0.2434  0.1336  0.0345
31369W        W74422   7.090  10.335  26.209  0.1226  0.1070 -0.0266
31370W        W74423  31.178  26.494   2.826 -0.0160 -0.0475  0.3020
31371W        W74424  27.180   8.531  22.850  0.1640  0.1688  0.1155
31372W        W74425  27.909  20.310   2.333 -0.0093 -0.2696 -0.2777
31373W        W74426  17.965  31.183   3.141 -0.1358  0.0099  0.2016
31374W        W74427   6.097  32.271   7.767 -0.0677 -0.0072  0.2439
31375W        W74428  26.991   5.183   0.182  0.0476 -0.1988  0.0212
31376W        W74429  27.807  17.221  22.476  0.1495  0.0268 -0.0956
31377W        W74430  21.787  21.736   4.426  0.1781  0.1651 -0.1311
31378W        W74431  18.448  23.747   4.614  0.1284 -0.0507  0.1532
31379W        W74432  18.884  14.943  22.387  0.1519  0.2164 -0.1376
31380W        W74433  31.042   7.181   2.625 -0.0958 -0.2859  0.1196
31381W        W74434  19.709  34.545  26.550 -0.1553 -0.0477 -0.2123
31382W        W74435   5.679  26.746   7.382  0.0568  0.0833  0.1545
31383W        W74436  16.172  13.184   4.505  0.0496 -0.0896 -0.0243
31384W        W74437  32.531  12.015   3.658  0.0773 -0.1328  0.3055
31385W        W74438  17.552   2.589  24.442 -0.3732  0.0912  0.2830
31386W        W74439  15.873   1.303  25.605  0.0045  0.0610 -0.1472
31387W        W74440  20.426  11.990  20.381 -0.0143 -0.3469 -0.1580
31388W        W74441   3.308   0.912   9.467 -0.0635 -0.0212 -0.3038
31389W        W74442  18.948  26.896  10.391 -0.1010 -0.1922 -0.2340
31390W        W74443  16.536   3.266  10.882 -0.1550  0.1720  0.0999
31391W        W74444  26.111   9.888   7.934 -0.0870  0.1034  0.1063
31392W        W74445   3.482  30.014  26.582  0.1363  0.0536  0.2529
31393W        W74446  27.154  26.414  27.365 -0.2763  0.3671  0.0959
31394W        W74447  14.079   6.792   2.786  0.0867 -0.0474  0.1721
31395W        W74448  16.224   5.878   9.177 -0.1881 -0.1485  0.0619
31396W        W74449  29.623  33.274   3.367  0.0141  0.4686 -0.0807
31397W        W74450   0.901  31.474   2.116  0.2722  0.1699 -0.0985
31398W        W74451  19.487  26.401   6.244  0.3540 -0.0572  0.0661
31399W        W74452  23.046  10.151  18.126 -0.1463  0.1184  0.0329
31400W        W74453  16.316   8.973   8.031  0.3321  0.5475 -0.1096
31401W        W74454  25.185   9.230   6.077  0.1141 -0.2793 -0.2764
31402W        W74455  26.365   8.223  23.189  0.0140  0.0465 -0.0319
31403W        W74456  21.836  17.750  25.804  0.1151 -0.1678  0.1862
31404W        W74457  32.866   7.521  18.583 -0.1433 -0.1244  0.0336
31405W        W74458  15.004  14.277   4.353  0.2234  0.1610  0.0283
31406W        W74459  24.240   2.585  20.104  0.0027  0.0413 -0.0250
31407W        W74460   2.722  12.310   0.834 -0.1653  0.0452 -0.2225
31408W        W74461  26.719  11.107  27.818  0.0254  0.3281  0.0153
31409W        W74462  32.866   2.799  25.288 -0.0289  0.2386 -0.0000
31410W        W74463   8.954   6.733   1.736  0.0418  0.1716 -0.0811
31411W        W74464  24.352  21.778   3.361  0.3219 -0.1121 -0.1914
31412W        W74465  24.701   2.233   4.357  0.0963 -0.0194  0.2056
31413W        W74466  25.552   3.815   3.082 -0.2418 -0.1580  0.1104
31414W        W74467  30.400   8.790   2.061 -0.1564  0.4306 -0.1279
31415W        W74468   0.552  10.816   7.002 -0.4766  0.0838 -0.2441
31416W        W74469  15.131  30.110   5.353  0.0378 -0.0086 -0.2060
31417W        W74470  17.869  25.466   2.336 -0.0882 -0.0958 -0.0180
31418W        W74471  25.413  16.376  29.058  0.1338 -0.0782  0.2829
31419W        W74472   9.227  32.359   2.541  0.0599  0.0894 -0.0458
31420W        W74473  25.198  32.661   6.283 -0.0488 -0.1887 -0.1568
31421W        W74474  10.161   4.026   0.887 -0.0500  0.0750 -0.2177
31422W        W74475  26.188  28.856   0.428  0.2531  0.0380  0.1261
31423W        W74476  22.641   1.010   9.092  0.1666 -0.1469  0.1187
31424W        W74477  22.579  13.024   1.350 -0.0106 -0.0641 -0.0675
31425W        W74478  30.690   7.795  25.964 -0.1828  0.1347  0.0786
31426W        W74479  16.320  30.449  22.621 -0.2236  0.3666  0.0608
31427W        W74480   5.966   8.603  29.142  0.0710  0.0682  0.1158
31428W        W74481  29.673  14.231   9.977  0.0384 -0.0344 -0.3928
31429W        W74482  17.984  27.365   0.693 -0.1011 -0.1087 -0.1746
31430W        W74483  18.111  13.197  26.840  0.3696  0.0963  0.0397
31431W        W74484  14.828   8.995   3.690  0.0561 -0.0760  0.1309
31432W        W74485  21.447  15.874  23.528  0.1401  0.1830 -0.0302
31433W        W74486  20.175  14.979  26.126  0.3555  0.2624  0.2012
31434W        W74487  32.229  27.208  23.152  0.1923 -0.2113  0.1372
31435W        W74488  20.382   9.575   4.574 -0.3208  0.0114 -0.2723
31436W        W74489  28.309  23.187   5.628  0.0997 -0.0493 -0.2371
31437W        W74490  13.073   2.173   2.063 -0.0964 -0.1829  0.1241
31438W        W74491  33.983  12.033   1.173 -0.0446  0.0098 -0.1908
31439W        W74492  24.129  18.782   6.646  0.1770  0.2036  0.0546
31440W        W74493  23.885   3.647   3.074 -0.3419 -0.4141 -0.1942
31441W        W74494  27.129  11.238   8.747 -0.1140  0.0090 -0.1454
31442W        W74495  25.965  12.957   4.001 -0.0562  0.2268 -0.4921
31443W        W74496  26.110   4.396   0.005 -0.0337 -0.2151 -0.3479
31444W        W74497  33.293   4.543  20.310  0.1679  0.1145 -0.1240
31445W        W74498  30.825  21.428  27.833 -0.1476  0.2027  0.0179
31446W        W74499  34.526   7.848   6.511  0.2849  0.1192  0.2252
31447W        W74500   9.015   5.371  21.673 -0.0771  0.0813  0.1280
31448W        W74501  34.278  10.283  20.272 -0.2360  0.0077  0.1906
31449W        W74502  23.106   2.251   5.571 -0.1217 -0.3160  0.1330
31450W        W74503  31.758  27.272   6.897 -0.1641 -0.0088  0.0873
31451W        W74504   2.370  11.871   1.265 -0.0806  0.4151 -0.3717
31452W        W74505   3.316   6.641  27.780  0.1527  0.1157  0.1198
31453W        W74506  17.410   7.239   6.891  0.0505  0.2099 -0.1245
31454W        W74507  25.616  31.931   5.090  0.3158  0.0199  0.2178
31455W        W74508  33.365   4.227   2.877 -0.1913 -0.0185 -0.0401
31456W        W74509   1.047  33.972  29.037 -0.2560  0.2956  0.1327
31457W        W74510  13.182  13.503   3.592  0.1821 -0.0160  0.1990
31458W        W74511  22.994  32.893  20.325 -0.3630  0.0238  0.0688
31459W        W74512  22.882  18.607   6.661  0.0175  0.0569  0.1059
31460W        W74513  25.863  16.781   3.732 -0.1474  0.4624  0.1096
31461W        W74514  25.447   7.709   4.886 -0.0017 -0.1245 -0.1017
31462W        W74515   2.310   4.242  26.955  0.0414  0.0199  0.1368
31463W        W74516  23.890   7.983   5.243 -0.0289 -0.1537 -0.0982
31464W        W74517  19.989  12.953  24.910  0.3011  0.1287  0.1273
31465W        W74518   5.994  27.868  20.055  0.0753  0.0912  0.1379
31466W        W74519  31.226  28.494  22.189  0.0886  0.1652  0.1296
31467W        W74520  28.563  11.476  24.117  0.1931  0.0326 -0.0347
31468W        W74521   1.320  15.677   9.059 -0.0281  0.1796 -0.0677
31469W        W74522  17.987  22.999   7.088  0.0316 -0.2267 -0.1563
31470W        W74523  27.128  14.962   1.775  0.0114  0.1229 -0.1187
31471W        W74524  33.465   4.361   8.427 -0.0699  0.0714 -0.1637
31472W        W74525   0.096  30.168  25.190  0.0009 -0.0264 -0.1994
31473W        W74526  14.622  28.409   9.773 -0.1734  0.0310  0.1129
31474W        W74527  27.578  34.559   6.734 -0.0022  0.0343 -0.0290
31475W        W74528   3.152   6.491   9.007  0.1758 -0.5139  0.0578
31476W        W74529  14.044   2.256   4.014 -0.0164  0.4409 -0.0826
31477W        W74530  25.641   2.914   0.535 -0.4652  0.0209  0.0091
31478W        W74531  10.625  26.390   6.712  0.0527  0.2004 -0.0600
31479W        W74532   6.966   2.462   6.435  0.0483 -0.0410  0.2518
31480W        W74533  11.081  20.332   8.694  0.0540 -0.1951 -0.0127
31481W        W74534  17.819   4.935   7.642  0.0823 -0.1524 -0.0010
31482W        W74535  32.496   4.592  28.383  0.0285  0.0908  0.2271
31483W        W74536   5.042   6.867   5.104  0.0478  0.0457  0.1721
31484W        W74537  31.404  10.494   5.539 -0.0532 -0.1304  0.2689
31485W        W74538  27.176   6.337  28.933 -0.0641  0.1873  0.1690
31486W        W74539  11.266  21.923   5.723 -0.2305 -0.1172  0.2620
31487W        W74540  19.990  12.616   1.580 -0.3092  0.0386 -0.0734
31488W        W74541  32.359  20.143   5.647 -0.0319 -0.0204  0.4705
31489W        W74542  31.613  30.103   0.430  0.0011  0.2008 -0.2028
31490W        W74543  34.197  34.639  26.111  0.2968 -0.1827  0.1445
31491W        W74544  21.836  10.263  24.648  0.0470  0.2419 -0.1130
31492W        W74545   0.279   1.915   2.306  0.3213 -0.2207  0.1825
31493W        W74546  26.439  31.003   7.286  0.0981 -0.0718  0.1108
31494W        W74547   5.264   6.354   5.471 -0.4116  0.1327 -0.3410
31495W        W74548  20.050  32.257   6.518  0.3695  0.1833  0.0239
31496W        W74549  19.800  14.150  24.619 -0.1018 -0.2615  0.3245
31497W        W74550  28.144  18.155   9.250  0.3064  0.0386  0.2754
31498W        W74551  23.715   7.852   4.372 -0.0490  0.3960  0.1934
31499W        W74552  22.763   1.376   4.250  0.0013 -0.0719 -0.0840
31500W        W74553  22.816  27.126   9.099  0.0205  0.0094 -0.0846
31501W        W74554   8.157   2.888  24.419 -0.3225 -0.2062  0.0118
31502W        W74555  32.816  27.660   3.468  0.2481 -0.2320  0.2249
31503W        W74556   1.203   0.012   2.560 -0.1985 -0.0132  0.0836
31504W        W74557  28.034   8.571  25.891  0.2337 -0.0965  0.2086
31505W        W74558  24.205  11.997  24.128 -0.3337 -0.1607  0.1552
31506W        W74559   2.171   2.522  24.388  0.1986 -0.0374 -0.1976
31507W        W74560  28.128   3.770   2.357 -0.1466  0.1631  0.3525
31508W        W74561   5.927  33.365   1.675 -0.0681 -0.1468 -0.3847
31509W        W74562  28.318  26.838   8.820 -0.0805  0.0387  0.1266
31510W        W74563   6.409   9.230  23.395 -0.2004  0.0701  0.0816
31511W        W74564  27.143  24.936  28.675  0.1256 -0.3643  0.1518
31512W        W74565  30.226   5.559   3.752  0.4694 -0.1069 -0.1982
31513W        W74566   6.422   0.149  18.822  0.3707  0.3511 -0.2576
31514W        W74567  20.568  28.179   1.578 -0.4037 -0.0015  0.1452
31515W        W74568   1.077   3.919   4.002  0.1937 -0.4096 -0.0055
31516W        W74569   1.830  10.547  17.541 -0.0506 -0.4029  0.0333
31517W        W74570  24.979  31.730  25.098 -0.1787 -0.1581  0.0598
31518W        W74571  28.072  13.612  16.694 -0.0892 -0.0633 -0.1600
31519W        W74572   5.708  13.159  28.317 -0.1660  0.1057  0.4072
31520W        W74573  30.614  28.830   8.774 -0.0826 -0.0473 -0.1072
31521W        W74574  26.305   3.722   4.011 -0.1142 -0.0663 -0.0065
31522W        W74575  27.230  32.254   9.713  0.2880  0.0406 -0.0382
31523W        W74576  29.067  17.906  25.151  0.0600  0.1980  0.0597
31524W        W74577  33.212  33.594  28.099  0.0120  0.1254 -0.1780
31525W        W74578  17.240  33.570   5.536 -0.0791  0.0330  0.0972
31526W        W74579   9.709  28.738  26.862 -0.1325 -0.0601  0.2636
31527W        W74580  25.243   0.577   3.233  0.3810  0.4459  0.2471
31528W        W74581  17.961   9.843   7.409  0.2899 -0.0452  0.4215
31529W        W74582  28.374  10.465  23.909  0.0259  0.2108  0.2995
31530W        W74583  21.601  12.049  19.583 -0.1897 -0.2343 -0.1663
31531W        W74584   5.530   9.538   5.822  0.2941  0.0097  0.0683
31532W        W74585   8.924  34.160  26.818 -0.0359  0.0125  0.1071
31533W        W74586  32.944   9.275  27.236  0.1235 -0.0769 -0.1638
31534W        W74587  20.801  34.566   6.398 -0.0470  0.0263  0.0719
31535W        W74588  31.431   0.984  25.845 -0.1771  0.1409  0.0322
31536W        W74589  24.587   4.626  23.189 -0.0102  0.0991  0.1264
31537W        W74590  22.466  16.492   9.705  0.3622 -0.0250  0.0949
31538W        W74591  20.944   9.771   9.711  0.0296  0.1718 -0.3459
31539W        W74592  30.997   6.544  17.673 -0.3556  0.0266 -0.0890
31540W        W74593  22.828  16.930   0.289 -0.2436 -0.0069 -0.2129
31541W        W74594  28.278  33.240  25.775  0.1289  0.1435  0.1172
31542W        W74595  20.238   5.689   4.464 -0.1736 -0.2414  0.0169
31543W        W74596  26.570  29.254   6.619 -0.1165 -0.0663  0.1018
31544W        W74597  27.753  13.544   6.775  0.1590  0.2991  0.2548
31545W        W74598  27.051  33.565   2.530 -0.3065 -0.0515 -0.0141
31546W        W74599  16.004  12.208  29.182  0.0762 -0.1269  0.2884
31547W        W74600  19.909   5.617  10.814 -0.0980  0.3857 -0.1649
31548W        W74601  26.635  12.189  29.010 -0.1396  0.1597  0.2987
31549W        W74602  31.752   5.278  22.449 -0.2285  0.1327 -0.1840
31550W        W74603   2.006  30.206   8.507 -0.2410 -0.2335  0.1099
31551W        W74604   3.296   1.130   3.832 -0.0785 -0.0748 -0.0778
31552W        W74605  16.405   2.919   5.380  0.0931  0.2974  0.0025
31553W        W74606  20.671  16.809   6.282 -0.0184  0.1176  0.2625
31554W        W74607  20.083  17.602   5.832 -0.0547 -0.1336  0.3901
31555W        W74608  25.950  34.003  26.363 -0.0220 -0.0178 -0.2463
31556W        W74609   0.562   8.246  27.696 -0.0894 -0.2533 -0.0358
31557W        W74610   0.231   5.782   9.591  0.0527  0.0251  0.0362
31558W        W74611  33.528  20.431   7.061  0.1406  0.0850 -0.1234
31559W        W74612  28.118  26.729  24.493 -0.0948  0.2684 -0.0326
31560W        W74613   3.131  23.256   9.660  0.0916 -0.0929  0.1134
31561W        W74614   0.061   7.774   8.182  0.2932 -0.3918  0.2475
31562W        W74615  15.754  18.721   2.598  0.2304  0.1630  0.2520
31563W        W74616  15.563   2.474   5.951 -0.1316  0.1551  0.2678
31564W        W74617  16.995   4.213   6.054  0.1283 -0.0778  0.1441
31565W        W74618  26.786  11.275   1.609  0.3167  0.0215 -0.0329
31566W        W74619  23.608   4.376  24.761  0.1685 -0.0417 -0.0460
31567W        W74620  10.121  29.932   5.171 -0.0292 -0.0532 -0.1943
31568W        W74621  28.631   5.823   1.063 -0.1888 -0.2454  0.1083
31569W        W74622  22.400  12.232  29.006  0.1484  0.3738  0.1215
31570W        W74623  30.622  30.277   2.421 -0.0323 -0.2758 -0.0565
31571W        W74624  25.514   1.981   0.236 -0.0133  0.1661 -0.0545
31572W        W74625  12.418   3.073   4.780  0.0231 -0.0413  0.0009
31573W        W74626  24.561   3.075  22.064  0.2189  0.0332 -0.3424
31574W        W74627   5.096  34.030   4.143 -0.1139  0.0813  0.1159
31575W        W74628   4.023   0.461   9.931 -0.2462 -0.1850 -0.4095
31576W        W74629  24.321   7.017   7.497  0.2575  0.1114 -0.3176
31577W        W74630  15.707  25.897  21.319  0.1021  0.1008  0.3547
31578W        W74631  33.197  15.503   4.179  0.2054 -0.2488  0.1818
31579W        W74632  21.205   5.211   2.500  0.2007 -0.0287  0.3037
31580W        W74633  28.131  22.470  20.970  0.0615 -0.0724 -0.2514
31581W        W74634  12.028   9.447  28.712  0.0706 -0.0973  0.0047
31582W        W74635  28.973   8.488   3.723 -0.1165 -0.1808 -0.1503
31583W        W74636  24.657   1.171   1.436 -0.0392 -0.1002 -0.1598
31584W        W74637  26.822  30.078   9.702  0.1461 -0.0248 -0.0348
31585W        W74638   0.612   7.024  23.073 -0.0433 -0.1307  0.1371
31586W        W74639  27.414  10.616  28.093  0.0512 -0.2477  0.2071
31587W        W74640  23.235  33.669   7.016  0.0851  0.3122 -0.0341
31588W        W74641  33.757   8.231  28.766  0.2910 -0.1543 -0.3499
31589W        W74642   4.801   6.349   7.515 -0.0126 -0.0082 -0.3272
31590W        W74643  19.071   2.066  22.160  0.0359  0.1935 -0.3214
31591W        W74644  33.408   5.248   7.434  0.3019  0.0563 -0.3927
31592W        W74645  13.768   3.458   1.864 -0.2591  0.0482 -0.1944
31593W        W74646  28.353  10.202  10.045 -0.2964 -0.0275  0.1718
31594W        W74647  17.526  32.458  25.702  0.0388 -0.3630 -0.0369
31595W        W74648  25.314   0.779   9.830  0.1160 -0.3705  0.0792
31596W        W74649  22.787   5.898   7.617  0.1986 -0.0080  0.1895
31597W        W74650  30.850  12.912   6.435  0.1196  0.2521 -0.0818
31598W        W74651  24.584  21.508   9.013 -0.0773  0.0511  0.0335
31599W        W74652  31.828   8.496   9.348  0.1205 -0.2452  0.1785
31600W        W74653  26.689  25.622  19.749 -0.1237 -0.0801 -0.0948
31601W        W74654   6.304   0.166   4.173  0.0988  0.1108 -0.1567
31602W        W74655  30.473  18.967   7.527 -0.0639  0.7426 -0.0914
31603W        W74656  21.747   3.707   5.794  0.2304  0.3974 -0.1392
31604W        W74657   2.696  31.082   7.924  0.2008  0.1393  0.0184
31605W        W74658   6.880   4.083   2.816  0.1272  0.1296 -0.2458
31606W        W74659  19.931  31.943   2.010 -0.0042 -0.0864  0.1268
31607W        W74660  30.227   8.861   9.911  0.2814  0.3866  0.0865
31608W        W74661  32.818   9.765   4.167  0.3211 -0.0301  0.0410
31609W        W74662  28.370   8.591   7.626  0.0540 -0.2373 -0.0329
31610W        W74663   4.330   5.644  26.946  0.0760 -0.0040  0.1523
31611W        W74664   5.503  33.089   9.359 -0.2597 -0.2040 -0.3364
31612W        W74665   0.851  29.246   3.931  0.0813 -0.1240 -0.1148
31613W        W74666  28.024  13.609  20.148  0.0407 -0.0580  0.2090
31614W        W74667  29.732   5.424   1.970  0.0662  0.0118 -0.2903
31615W        W74668  19.439   9.575  27.634 -0.0475 -0.1194 -0.1051
31616W        W74669  25.263   0.799  22.367  0.0101 -0.1678  0.1650
31617W        W74670  20.813  13.474   7.850  0.2271 -0.4304 -0.0323
31618W        W74671  32.605  11.630   6.203 -0.1920  0.1744 -0.1073
31619W        W74672  27.521  26.346   2.889  0.1567 -0.2130  0.0322
31620W        W74673   3.592  27.000   6.395 -0.0264  0.0746  0.0814
31621W        W74674  26.742  31.695   1.095  0.0463  0.0143 -0.4551
31622W        W74675   2.534  34.234   7.302 -0.1429  0.0944 -0.1178
31623W        W74676  31.859   9.984   6.643 -0.0817  0.0999  0.2297
31624W        W74677  26.953  13.346  10.623  0.1536  0.1633 -0.1921
31625W        W74678  28.296  34.087  16.762  0.4293  0.1954 -0.1080
31626W        W74679  25.214   0.262   6.749  0.0140 -0.6718 -0.0825
31627W        W74680   2.912  21.024   2.014 -0.1496  0.1501  0.3529
31628W        W74681   6.958  29.355  24.784 -0.1295  0.3295 -0.1116
31629W        W74682  23.119   7.925  22.199  0.0234  0.2043 -0.3168
31630W        W74683  14.407  27.752   7.001  0.2360 -0.2313  0.1352
31631W        W74684  33.433   3.909   9.309  0.0674 -0.0220  0.0727
31632W        W74685  19.430   9.683   5.081  0.1544 -0.3155 -0.1271
31633W        W74686   8.777   4.760   4.519 -0.1983  0.0072  0.0005
31634W        W74687  18.795  13.539   4.108 -0.1430 -0.0089  0.0784
31635W        W74688   6.975   4.069   2.345 -0.1694  0.1022 -0.0766
31636W        W74689  33.274  34.209   0.568  0.0435  0.2147 -0.0370
31637W        W74690  27.294   0.496   7.343 -0.1059  0.0695 -0.0021
31638W        W74691  23.775  12.520   9.713 -0.1410 -0.0686  0.0222
31639W        W74692  29.855  15.820   9.631 -0.0203  0.1917 -0.0407
31640W        W74693  24.873  33.355   7.881  0.2911 -0.1848  0.0581
31641W        W74694  34.416  10.631  10.114  0.2927 -0.2845  0.3736
31642W        W74695  24.094  18.994  28.524  0.1976 -0.0661 -0.4583
31643W        W74696  22.286  33.302   9.544 -0.1017  0.0385 -0.0870
31644W        W74697  29.576  14.477   5.081  0.0163 -0.0417  0.1631
31645W        W74698   3.684  11.955  26.090 -0.0476  0.0797 -0.1769
31646W        W74699  25.176  34.054   2.589 -0.1105  0.0245 -0.0977
31647W        W74700   4.486  30.124   5.919  0.0650  0.3043  0.0031
31648W        W74701  20.835  28.548  28.804 -0.1378 -0.1550 -0.1686
31649W        W74702  18.415   2.724   1.969  0.0788 -0.0789 -0.3045
31650W        W74703  24.199  26.200  23.246  0.1159  0.3150 -0.1151
31651W        W74704  24.017   5.779  25.200  0.0231  0.1487  0.0057
31652W        W74705   6.529   0.010   5.494 -0.0264 -0.1792  0.0865
31653W        W74706  27.779   3.559   8.804  0.0005  0.0468  0.1088
31654W        W74707  16.338   2.280   0.865 -0.0822  0.3650 -0.0003
31655W        W74708  27.715  34.642   5.825 -0.0997  0.0748  0.1635
31656W        W74709   0.466  14.431   9.360 -0.0768  0.1915  0.1550
31657W        W74710  19.533  20.242  27.399  0.3340  0.1158 -0.2980
31658W        W74711  31.481   5.644   9.341 -0.0146 -0.0702  0.0290
31659W        W74712  28.701   5.650   3.770 -0.0740  0.2556  0.1176
31660W        W74713  33.998   6.788   7.306 -0.0260 -0.0614  0.0330
31661W        W74714  27.224  10.608   8.736  0.1835 -0.1775  0.0865
31662W        W74715   6.612  18.089   4.162  0.1813  0.1424 -0.2769
31663W        W74716  28.561   5.083   6.699 -0.0189  0.2635 -0.4851
31664W        W74717  27.001  24.522   0.387 -0.6599 -0.2843  0.1318
31665W        W74718  20.565  24.805  21.881 -0.1602  0.3331 -0.1817
31666W        W74719  26.479  31.259   7.830 -0.1028  0.0949 -0.1247
31667W        W74720  11.900   0.475   7.931 -0.0637 -0.2685 -0.0001
31668W        W74721  30.523  30.306  28.063  0.1147 -0.0476 -0.0127
31669W        W74722  21.772  32.110  16.821  0.0998 -0.1936 -0.0211
31670W        W74723  15.934   2.285   3.837  0.0741  0.0050 -0.0742
31671W        W74724  22.511   4.144   5.607  0.2713  0.2473  0.0220
31672W        W74725   7.755  10.724  15.791  0.2635 -0.0300  0.0565
31673W        W74726   1.420   3.519   1.777  0.0185  0.2692 -0.0843
31674W        W74727  26.625  10.066  20.895 -0.1848  0.4052  0.2082
31675W        W74728  13.471  15.262  14.947 -0.2152  0.2276  0.0341
31676W        W74729  23.648  34.554   8.990 -0.1410  0.3224  0.0991
31677W        W74730  30.770  29.575   5.995  0.0328  0.1577  0.1494
31678W        W74731  28.076  34.492  26.339 -0.3724  0.0118 -0.1599
31679W        W74732  23.002   2.590  26.175 -0.0875  0.1537 -0.1600
31680W        W74733   5.985   0.033  20.559 -0.0780  0.0037 -0.1341
31681W        W74734   1.177  33.609   4.977  0.0193  0.0570  0.1813
31682W        W74735  26.257  34.156  25.983  0.2538 -0.1090 -0.2550
31683W        W74736  29.702  13.845  28.473  0.1483  0.2922  0.2078
31684W        W74737  24.152  23.859  26.128 -0.0660  0.1447  0.1256
31685W        W74738  33.702  21.021   9.085  0.3947  0.0363  0.0270
31686W        W74739  27.713  12.289   7.876 -0.1415 -0.0533  0.4993
31687W        W74740  30.649  30.998   9.940 -0.0748 -0.0524 -0.3648
31688W        W74741  30.013   2.963   3.344  0.0209 -0.1359 -0.1925
31689W        W74742   6.368   5.619   3.278  0.0212 -0.0876 -0.1964
31690W        W74743  14.982  28.627  28.905 -0.0604  0.2205 -0.3842
31691W        W74744  17.703   0.320   6.950 -0.0307 -0.3634 -0.0333
31692W        W74745  31.367  32.564   3.575  0.1566  0.0559  0.1841
31693W        W74746  23.930   8.098   1.240  0.0686  0.1853  0.1849
31694W        W74747  26.755   7.678   1.018  0.4103 -0.0319  0.3192
31695W        W74748   6.940  26.565  18.045 -0.1506  0.0098 -0.1906
31696W        W74749  28.420   8.556  23.688 -0.0471 -0.2798  0.2004
31697W        W74750  31.810   9.529   7.437  0.0176 -0.0919 -0.0414
31698W        W74751  22.681  33.357   7.862 -0.1922  0.1714  0.4903
31699W        W74752   2.803  31.719   1.607 -0.1140 -0.0167 -0.0816
31700W        W74753  11.593  16.281   1.772  0.0146 -0.4755 -0.0289
31701W        W74754  33.669  20.099   3.694  0.3486 -0.2629 -0.1502
31702W        W74755  31.599  26.423  22.881  0.1709 -0.0442 -0.1049
31703W        W74756  19.758  10.517   9.063  0.2329 -0.1281 -0.0655
31704W        W74757  33.266  25.279  28.412 -0.2912  0.0718 -0.0661
31705W        W74758   3.987   9.420   7.751  0.1833 -0.0017 -0.0393
31706W        W74759  26.213  29.236  28.910  0.1499  0.0040 -0.0531
31707W        W74760  26.418  27.091   5.013 -0.0048 -0.2076 -0.2387
31708W        W74761  23.532   2.235   0.580  0.0324 -0.2036 -0.1324
31709W        W74762  33.681  27.559  24.529 -0.0392  0.3982 -0.3634
31710W        W74763  22.931  18.096   1.688  0.1484 -0.2230  0.1276
31711W        W74764  18.417   6.036   8.114  0.1993  0.2271 -0.2613
31712W        W74765  23.237  28.188   5.747  0.1175  0.0184  0.0100
31713W        W74766  26.721   2.077   9.366 -0.2841 -0.1720  0.0468
31714W        W74767  13.333  30.253   2.813 -0.1898  0.2443  0.1781
31715W        W74768  22.489   4.398   7.535 -0.2515 -0.1183 -0.2752
31716W        W74769  32.937  12.772  24.012  0.2238 -0.1552  0.2285
31717W        W74770  33.523  10.872   8.201 -0.1688  0.0789  0.1635
31718W        W74771   1.353   0.379   3.156  0.2645  0.4539 -0.0059
31719W        W74772   6.790   7.022  27.702  0.2183 -0.0272  0.0956
31720W        W74773   3.166  32.512   5.788 -0.0206  0.2206  0.1753
31721W        W74774  33.851  32.988  25.416  0.0310  0.0816 -0.0390
31722W        W74775   3.558  29.419  27.981 -0.0298 -0.0021 -0.2093
31723W        W74776   5.011  31.207   9.393 -0.0315 -0.0585  0.0356
31724W        W74777  23.341  30.588   2.658  0.1867  0.1971 -0.0023
31725W        W74778   3.607  28.822  22.278 -0.0008 -0.2218  0.2475
31726W        W74779  21.897   1.281  20.102  0.0274 -0.2223  0.0680
31727W        W74780  29.895   3.092  27.492 -0.0898  0.0039  0.0976
31728W        W74781  31.465  27.125  26.956  0.0317 -0.0649  0.3894
31729W        W74782  13.371   2.628  28.684  0.2193  0.1920 -0.0515
31730W        W74783  14.238   6.623  28.897  0.0602 -0.0093  0.1301
31731W        W74784  15.551   5.375   8.727 -0.2981  0.0550 -0.2531
31732W        W74785   5.701  21.438   7.935 -0.1214  0.1131  0.0895
31733W        W74786  29.833   2.778   6.135 -0.1507 -0.2316  0.0031
31734W        W74787   5.675  11.075   6.657  0.2321 -0.0515 -0.1941
31735W        W74788   7.726  16.178   7.171 -0.2545  0.1944  0.1971
31736W        W74789  24.111  28.699   5.447  0.1157 -0.0095 -0.0321
31737W        W74790   7.079   3.701  22.311  0.2146  0.0690  0.0303
31738W        W74791  33.174  33.827   1.213  0.4033 -0.0356 -0.5558
31739W        W74792  16.722  15.686   8.274 -0.0828  0.1630 -0.3158
31740W        W74793  17.511   3.674   9.957 -0.0480  0.2778 -0.2123
31741W        W74794  18.424  23.168   7.810  0.5710 -0.0623  0.2262
31742W        W74795  19.509   6.584   7.156 -0.2805 -0.0075  0.1425
31743W        W74796  17.158  21.406   2.162 -0.2755 -0.0244 -0.2988
31744W        W74797  28.962  30.559   9.532  0.0565 -0.1072 -0.4044
31745W        W74798  19.061  20.577   5.769 -0.2394 -0.1375 -0.2019
31746W        W74799  12.655  11.783  24.672 -0.0535  0.0059 -0.1428
31747W        W74800  27.579  14.822  14.685  0.1450 -0.1198 -0.0051
31748W        W74801  21.975  13.885  26.963  0.1160  0.0233 -0.1869
31749W        W74802  11.843  32.346   5.877  0.0628 -0.0225 -0.1924
31750W        W74803   9.509   2.726   9.335 -0.0873 -0.0162  0.0395
31751W        W74804   2.757  13.113  15.648  0.0155  0.1527  0.0624
31752W        W74805   7.535   4.802  25.065 -0.0641  0.1352 -0.1658
31753W        W74806  12.409  32.859   8.519 -0.1322  0.0481  0.0014
31754W        W74807  11.351  11.026   8.286 -0.1982  0.0856  0.2331
31755W        W74808  21.555  26.388  20.467  0.5006 -0.3244  0.0753
31756W        W74809  25.360  33.216   9.408  0.2536  0.2577 -0.0187
31757W        W74810  30.835  10.838   8.726  0.2363  0.0025  0.1264
31758W        W74811   7.024   3.430   1.010  0.1105 -0.0501 -0.2087
31759W        W74812   3.151   6.656   6.641  0.0563  0.2005 -0.0065
31760W        W74813  22.111  13.937   7.944 -0.0046 -0.0351  0.0990
31761W        W74814   7.634   9.058   9.560 -0.2856  0.0349 -0.0021
31762W        W74815  18.032  32.660   5.976 -0.1830 -0.2020 -0.1144
31763W        W74816  20.967  33.132   9.093  0.0131 -0.0399 -0.0800
31764W        W74817  27.303  16.360   0.255  0.3271  0.0295  0.4427
31765W        W74818  22.508  15.302   1.288  0.1496  0.1829 -0.0867
31766W        W74819  34.058   9.276   0.208 -0.1906  0.0518 -0.0155
31767W        W74820  14.422  34.329   6.096  0.0937 -0.0356 -0.1797
31768W        W74821  19.901   4.997   7.813 -0.0210 -0.3370  0.1481
31769W        W74822  27.368   6.299   5.078 -0.2987 -0.1312  0.0404
31770W        W74823  30.666  27.781   1.418  0.3294 -0.1833  0.1363
31771W        W74824   3.746  13.210  19.185  0.1886 -0.0223 -0.0212
31772W        W74825   5.132   8.504   1.546 -0.1266  0.2686  0.5516
31773W        W74826  25.172   5.588  15.879 -0.0386  0.0357  0.1762
31774W        W74827  31.838  34.207  23.641  0.0157 -0.0129 -0.2677
31775W        W74828   1.974   4.326   5.958 -0.0963  0.0718 -0.0139
31776W        W74829  15.181  33.619   7.328  0.1611  0.0241 -0.0462
31777W        W74830  33.838   9.059   2.790  0.0045  0.0115  0.2822
31778W        W74831  23.492  12.005   9.651 -0.2505  0.1219  0.0986
31779W        W74832  11.127   7.613   8.715 -0.0576 -0.0810  0.2282
31780W        W74833  20.615  26.213   9.413 -0.1424  0.0340  0.0757
31781W        W74834  29.377  12.057   9.144 -0.1531 -0.1995  0.1848
31782W        W74835  32.535  28.238  20.865  0.1846 -0.1093 -0.2075
31783W        W74836  23.082  15.828   6.005  0.1482  0.2388 -0.1081
31784W        W74837  32.954  18.061   5.304 -0.1436 -0.0589  0.1404
31785W        W74838  29.173  33.951  19.678  0.2491 -0.0183  0.2892
31786W        W74839  31.292  16.291  28.865  0.0399 -0.0073  0.0822
31787W        W74840  30.306   1.843   8.432  0.0881  0.2051 -0.0401
31788W        W74841  29.893  30.688   9.067 -0.3316 -0.3591 -0.2248
31789W        W74842  22.476  30.132  29.137 -0.1204  0.3204  0.2566
31790W        W74843  32.889  22.415   6.401 -0.1911 -0.0513 -0.3504
31791W        W74844  23.067  13.182  26.457  0.1004  0.1705 -0.1595
31792W        W74845  34.094  20.027  28.503 -0.1465 -0.1761  0.1646
31793W        W74846   2.995  17.197  28.554  0.3201 -0.0689 -0.2882
31794W        W74847  26.520  22.855   7.779 -0.1695 -0.2239  0.0769
31795W        W74848  20.488  34.445   9.688 -0.2375 -0.1523 -0.0042
31796W        W74849  31.202   6.877  29.194 -0.2889  0.3174  0.3985
31797W        W74850   0.655   5.465  25.562  0.2186  0.0013 -0.0187
31798W        W74851   4.096   1.631   8.756 -0.1335  0.0064  0.2001
31799W        W74852  11.238  31.663   5.711 -0.1193  0.0093 -0.1457
31800W        W74853  34.174   8.553  27.804  0.0103 -0.1878 -0.3441
31801W        W74854  21.461  23.104  28.658  0.0806 -0.1587  0.2195
31802W        W74855  13.469  33.800   5.028 -0.1914  0.0012 -0.0210
31803W        W74856  30.281  26.920   5.987 -0.0320  0.0091 -0.1057
31804W        W74857  27.153  26.398   6.805  0.0624  0.0117  0.2788
31805W        W74858  29.314  17.498   3.568 -0.2237  0.4113  0.0078
31806W        W74859   6.190  14.454  21.986 -0.1691  0.0113 -0.2233
31807W        W74860  22.654  16.689   5.653  0.1899  0.3152 -0.0730
31808W        W74861   7.457   9.528   7.916 -0.2103  0.0003  0.0983
31809W        W74862  26.422  18.344   4.635  0.3705  0.0501  0.1179
31810W        W74863  20.639  16.805   4.897  0.2239  0.2341 -0.0231
31811W        W74864  30.572  12.362  28.883 -0.0357 -0.0692 -0.2088
31812W        W74865  26.157   5.884  27.705  0.0755 -0.5096  0.0810
31813W        W74866  21.339  29.112   5.133 -0.1510  0.0312 -0.1879
31814W        W74867  31.672   9.083   8.796 -0.0114  0.2320  0.2340
31815W        W74868  25.370   6.311   5.406  0.0224  0.3999 -0.0623
31816W        W74869  31.907   2.309   6.175 -0.0519 -0.2646  0.1753
31817W        W74870  22.188   1.578   8.418 -0.2091  0.1992 -0.2551
31818W        W74871  10.443   5.244   9.021  0.1633  0.1190 -0.1238
31819W        W74872  33.814   2.201  20.893 -0.2111  0.3021  0.0357
31820W        W74873  34.425  12.455   7.226  0.5582  0.0145  0.0420
31821W        W74874  27.531  12.773   9.242  0.2651  0.0348 -0.2109
31822W        W74875   3.137  14.115  20.252  0.0507  0.1529  0.3033
31823W        W74876  27.834  18.061   8.709 -0.0920 -0.1470 -0.0237
31824W        W74877  30.016   9.332  26.101 -0.2385  0.0308 -0.1275
31825W        W74878  30.989   4.454  16.006  0.5645 -0.0061  0.5647
31826W        W74879  24.797   4.576   8.308  0.0789 -0.1898  0.1855
31827W        W74880  32.192   6.324   0.813 -0.0131 -0.0067  0.0196
31828W        W74881  28.209  34.631   7.662  0.0139  0.4550 -0.0453
31829W        W74882  19.316   6.177  26.288  0.1408  0.1178  0.0153
31830W        W74883   8.038  11.696  10.970 -0.1950 -0.2162  0.1428
31831W        W74884  32.606  26.417   6.415 -0.1267 -0.0200 -0.0867
31832W        W74885   4.687  23.024   5.162 -0.5083  0.3485 -0.0744
31833W        W74886  24.700  31.990   4.735  0.3751  0.1397 -0.1438
31834W        W74887  32.237  28.332   5.142 -0.1861  0.1457  0.1011
31835W        W74888  29.675  11.417  10.180 -0.3664 -0.0566  0.1039
31836W        W74889  23.654  13.984   5.255 -0.2512  0.2437 -0.0558
31837W        W74890   4.123   0.590   7.706 -0.0281  0.1640 -0.0819
31838W        W74891   6.433   8.389  10.142  0.0837  0.1142  0.0690
31839W        W74892  14.586  13.622   4.988 -0.1288 -0.2635  0.3217
31840W        W74893   1.955  32.226  22.690 -0.0128 -0.0802  0.0484
31841W        W74894  14.156  15.006  27.987 -0.3570 -0.1373  0.0743
31842W        W74895  30.277  29.816   9.235  0.1459  0.0982 -0.0557
31843W        W74896  22.899  17.025   3.675  0.1962  0.0532 -0.0340
31844W        W74897  25.559   1.766   2.269  0.2033 -0.2499  0.0726
31845W        W74898  31.366  28.773   4.646 -0.0762  0.1983 -0.4343
31846W        W74899  18.273   5.700   5.892  0.0876 -0.0520 -0.2145
31847W        W74900  13.638  22.952   9.657 -0.0805  0.0641 -0.3657
31848W        W74901   2.386   9.890   0.935 -0.2591  0.0047  0.2492
31849W        W74902  23.420  30.365   6.505  0.1714  0.1088  0.2341
31850W        W74903  30.018  32.342  25.978 -0.1340 -0.1123  0.3818
31851W        W74904  29.698   4.567   3.055  0.0608  0.0316  0.2552
31852W        W74905  33.736   4.420   7.603 -0.1109  0.0109 -0.1189
31853W        W74906   0.271   5.501  17.977  0.3481 -0.2560 -0.0807
31854W        W74907  33.454  32.873   9.027  0.2097 -0.2273 -0.2066
31855W        W74908  16.758  31.127   6.162 -0.0302 -0.2525  0.1776
31856W        W74909  31.162  24.501   6.155 -0.3040  0.1770  0.0488
31857W        W74910  34.230  18.908   9.836 -0.0680 -0.2134  0.2249
31858W        W74911  34.670   6.648   5.030 -0.0599  0.2568 -0.0592
31859W        W74912  24.012  28.736   4.090  0.0153 -0.0514 -0.1359
31860W        W74913  20.376   0.595   0.027 -0.1062  0.1313 -0.0808
31861W        W74914  21.899  33.573   7.239 -0.0145 -0.0461  0.0645
31862W        W74915   7.508  11.376   2.866  0.2515  0.1866  0.0994
31863W        W74916   3.913  25.589   5.424 -0.0754 -0.2658  0.1956
31864W        W74917  33.885   0.100   7.304  0.0615 -0.1723  0.0958
31865W        W74918  17.173  12.698  24.539  0.0344  0.1914 -0.3251
31866W        W74919   1.440   9.028  25.771  0.2413  0.0515 -0.0801
31867W        W74920   1.099   6.287   7.858 -0.1566 -0.0856 -0.1392
31868W        W74921   6.959  20.932   8.716  0.0157 -0.0995 -0.1254
31869W        W74922  12.013  29.084   4.516 -0.1396 -0.2354 -0.0491
31870W        W74923   9.033  33.051  16.134  0.1864 -0.1450  0.0266
31871W        W74924  18.429   5.600  23.528  0.1553 -0.1364 -0.0964
31872W        W74925  24.970  10.502  26.818  0.2845  0.3895 -0.1243
31873W        W74926  18.820  13.621   2.151 -0.2729 -0.0501 -0.4672
31874W        W74927  26.824   1.055   1.953  0.0772 -0.3129 -0.1951
31875W        W74928  28.359  26.901   4.903 -0.1167 -0.0611 -0.0815
31876W        W74929  17.738   4.463  19.144 -0.0830  0.1765  0.1846
31877W        W74930  33.605   6.263  10.099  0.0237 -0.2821  0.0964
31878W        W74931  23.607  32.639   6.088 -0.1657  0.2282  0.2059
31879W        W74932  24.915  28.455   3.656  0.0893  0.0746 -0.1909
31880W        W74933   8.573  11.556  17.803 -0.3147  0.1511  0.3067
31881W        W74934  30.894  34.509   5.457 -0.2638 -0.2228  0.1879
31882W        W74935  24.212  11.645  14.699 -0.0305 -0.0954 -0.1525
31883W        W74936  18.529  16.587  23.796 -0.0920  0.5789  0.0503
31884W        W74937  29.796  23.380   5.068  0.4400  0.0455  0.0450
31885W        W74938  29.042  19.663  26.177 -0.2007 -0.0583 -0.0115
31886W        W74939  25.108   2.487  15.365 -0.1548 -0.1176 -0.3473
31887W        W74940   1.008   7.553  26.688 -0.0503 -0.1842 -0.1314
31888W        W74941  25.603  18.321  22.797 -0.0801 -0.0939  0.2261
31889W        W74942  30.348  21.631   5.237  0.1776 -0.1238 -0.0877
31890W        W74943  27.063  32.532   8.871  0.0715  0.3238  0.2302
31891W        W74944  23.932   6.199  28.651  0.2431 -0.1204  0.2290
31892W        W74945  19.483   9.279   1.095 -0.0057  0.0645 -0.3203
31893W        W74946   5.131   2.413   6.038  0.0152 -0.0209  0.1554
31894W        W74947  33.100   5.266   2.929  0.0144 -0.0840  0.0106
31895W        W74948  18.218   7.627  28.847  0.1631  0.3448 -0.2868
31896W        W74949  34.500  14.042  27.609 -0.0210  0.1001  0.1641
31897W        W74950  13.120  18.792   9.222  0.0724  0.0104 -0.2181
31898W        W74951   4.197  14.242   8.315 -0.0028 -0.3346 -0.1567
31899W        W74952  33.322  21.753   2.872  0.2969 -0.0100 -0.0422
31900W        W74953  27.121  24.928  25.245  0.0972  0.1140 -0.0863
31901W        W74954  19.128   3.968  16.448  0.2542  0.3303 -0.2038
31902W        W74955  21.617  15.458   1.621  0.1295 -0.2316  0.0616
31903W        W74956  11.119  19.370  21.690 -0.4019  0.1720 -0.0922
31904W        W74957  26.956  16.488   4.307 -0.0854 -0.0492 -0.0999
31905W        W74958  14.397  27.772  24.418  0.0500 -0.1074  0.1377
31906W        W74959  27.317  17.081  18.027 -0.1584 -0.1941  0.0320
31907W        W74960  22.361   6.614   1.222 -0.2745 -0.4939  0.1194
31908W        W74961   1.300   5.846   5.561 -0.1774  0.0759 -0.2125
31909W        W74962  10.828  11.007   5.383  0.3339  0.0648 -0.0822
31910W        W74963  11.273  14.448   6.254 -0.3436 -0.0918 -0.1054
31911W        W74964  31.163  11.194   1.115 -0.2280 -0.1802  0.0789
31912W        W74965  31.663  11.050  28.052 -0.0256 -0.2668 -0.1008
31913W        W74966  22.086  10.276  26.363 -0.1149  0.1448  0.3201
31914W        W74967  31.213  30.790  24.155  0.2909  0.2317  0.1965
31915W        W74968  29.381  15.944   1.313 -0.0095  0.0666  0.0769
31916W        W74969  31.081   5.532   8.611 -0.0382  0.0970  0.0112
31917W        W74970  17.550  18.851  27.021 -0.0483 -0.2191  0.0412
31918W        W74971  27.486  22.951  27.776  0.0630  0.0427  0.2448
31919W        W74972  13.190  31.024  21.596  0.4650  0.2795  0.0697
31920W        W74973  30.521  10.403   9.757  0.0111  0.3010  0.3448
31921W        W74974  22.286  12.346  24.082  0.3269  0.1276 -0.1419
31922W        W74975  15.644  14.728   2.102 -0.0582 -0.1477 -0.0970
31923W        W74976  28.050   5.117  27.402 -0.2214  0.0382 -0.0778
31924W        W74977  25.936  28.611  28.228  0.0667  0.0196 -0.4769
31925W        W74978  13.205  19.070  22.679 -0.0468  0.1283 -0.0797
31926W        W74979  22.177  22.425  23.636  0.4737 -0.0277 -0.1107
31927W        W74980   9.752   3.425  21.827 -0.2325 -0.2987  0.1562
31928W        W74981   8.676   3.426  15.813 -0.3347  0.1252 -0.3082
31929W        W74982   0.908  17.702  28.078  0.0745  0.0173  0.1619
31930W        W74983  23.038   7.494  26.683  0.2559  0.0340  0.0372
31931W        W74984  33.113   6.286   5.390  0.0536  0.3883  0.2953
31932W        W74985  29.002   3.988   7.508 -0.2573  0.1314 -0.0571
31933W        W74986   7.579   8.257  28.137  0.2815  0.3263 -0.1455
31934W        W74987  10.412  22.585  17.330  0.3221  0.1818 -0.4604
31935W        W74988  23.536   3.408  25.197  0.1151 -0.0853 -0.1541
31936W        W74989  22.214  22.915  10.205 -0.0005 -0.1449  0.0416
31937W        W74990  33.943   6.510  25.271  0.2155  0.1409  0.1694
31938W        W74991   1.880  34.636  24.151 -0.2855  0.0054 -0.0746
31939W        W74992  33.167  24.543   5.379 -0.0686  0.0559  0.1233
31940W        W74993  16.369   5.637   5.556  0.2166  0.0404 -0.0059
31941W        W74994   5.451  25.225  27.429 -0.2090  0.3604 -0.2032
31942W        W74995  29.548  17.672   0.464  0.0420  0.4642 -0.3441
31943W        W74996  22.433  11.307   0.216  0.2980 -0.3072  0.0420
31944W        W74997  28.580  17.108  25.243 -0.0558  0.0766 -0.0742
31945W        W74998  27.837   6.200   5.148 -0.1340 -0.2166 -0.1271
31946W        W74999  23.695  31.934  10.731  0.0164 -0.3662 -0.0060
31947W        W75000  14.700  24.192  10.565  0.0126 -0.2241  0.0134
31948W        W75001  20.632   3.769  21.033 -0.1395 -0.1136  0.0904
31949W        W75002   5.111  16.414   2.737 -0.1595  0.1087 -0.0449
31950W        W75003   3.974   2.163   6.580  0.0676  0.1868 -0.1042
31951W        W75004   0.266   4.498  17.802 -0.0808 -0.4434  0.1208
31952W        W75005  33.833  18.358  24.408 -0.0556 -0.0423  0.1678
31953W        W75006  24.135  10.748  25.240 -0.0853 -0.0819 -0.1750
31954W        W75007  11.703   3.423   0.709  0.2533 -0.1087 -0.2765
31955W        W75008  20.663  32.997  19.106  0.0225  0.1434 -0.3087
31956W        W75009  22.853   5.311   5.030  0.0333  0.0535 -0.1713
31957W        W75010   1.670   7.833  21.320  0.4311  0.0513  0.0510
31958W        W75011  28.488  10.512  24.839 -0.2234  0.1069  0.2761
31959W        W75012  34.632   6.276  21.310  0.1445 -0.0696  0.0022
31960W        W75013  10.709  17.655  24.072  0.1666 -0.2235 -0.1936
31961W        W75014  34.605   0.736   2.608 -0.1147  0.1718  0.0292
31962W        W75015   5.758  12.401   9.830  0.0212  0.1837 -0.4653
31963W        W75016   9.499  19.692   9.510  0.2551 -0.1141  0.4212
31964W        W75017  29.117   1.072   6.384 -0.0424 -0.1517 -0.0806
31965W        W75018  23.733  11.464  19.164  0.3141 -0.1308  0.0081
31966W        W75019  26.031  26.109   7.659  0.0525  0.2360  0.0260
31967W        W75020  13.754   3.276   8.413 -0.1979 -0.2838  0.1858
31968W        W75021  24.535  23.830  25.194  0.4275 -0.0682 -0.0684
31969W        W75022   7.446  33.089   2.501  0.0182 -0.0028  0.2780
31970W        W75023  13.855   9.275  16.201  0.0975 -0.0196 -0.2521
31971W        W75024  23.600  11.392   7.323  0.0946  0.0655 -0.0773
31972W        W75025   3.481  17.509   3.892  0.1763 -0.0986 -0.1035
31973W        W75026  26.072   7.528   0.265 -0.3974  0.0483  0.0466
31974W        W75027  30.324   3.989   9.590  0.1971  0.2099  0.2214
31975W        W75028  27.311   6.101  25.398  0.0351  0.2509 -0.0215
31976W        W75029  28.283  14.396  22.813 -0.0345  0.0901 -0.0863
31977W        W75030  20.250   6.918  18.110 -0.2366 -0.1145  0.2880
31978W        W75031  28.027  13.192   2.617 -0.2317  0.0683 -0.2910
31979W        W75032   3.742  32.412   8.445  0.1165  0.1032 -0.1879
31980W        W75033  30.651  18.914  10.074 -0.1078  0.1638  0.3217
31981W        W75034  29.217  23.906  25.754 -0.1057 -0.1264 -0.2136
31982W        W75035  22.058   3.355  22.153  0.0250  0.1450 -0.0693
31983W        W75036  22.400  12.136   4.799  0.1106 -0.0659 -0.3251
31984W        W75037  14.311  15.118   9.078  0.0402  0.2177 -0.3757
31985W        W75038  30.394  13.618  10.277  0.3694 -0.0795 -0.2220
31986W        W75039  28.715   8.472   5.778  0.2512 -0.1023 -0.1256
31987W        W75040  24.587  30.905   1.877 -0.0887 -0.1347 -0.3312
31988W        W75041   0.682  29.814   1.922  0.0659 -0.3839 -0.0626
31989W        W75042  22.208  17.717  28.977 -0.2748  0.0804  0.0613
31990W        W75043  28.626  29.271   4.914 -0.2188  0.0103 -0.2107
31991W        W75044  11.635  20.867   6.630 -0.0665  0.0398  0.0222
31992W        W75045   1.236  32.729  22.917 -0.0662  0.0035 -0.2028
31993W        W75046  31.717  19.364   0.651 -0.0520 -0.0656  0.2642
31994W        W75047  10.271   6.823  27.930  0.3178 -0.1141 -0.1926
31995W        W75048  22.149  12.431  27.445  0.1392 -0.1667 -0.1573
31996W        W75049  14.463   0.680  20.646  0.1363  0.0180  0.1418
31997W        W75050  23.632   4.047   4.625  0.2447  0.0602 -0.1321
31998W        W75051  26.994   7.356  20.595 -0.1562 -0.0151 -0.0366
31999W        W75052  22.277   5.230   6.950 -0.1313 -0.3380 -0.1840
32000W        W75053  18.948  16.976   1.578  0.4169 -0.0709 -0.0883
32001W        W75054  27.380   3.583   0.456 -0.0036  0.0323  0.0347
32002W        W75055  28.211  32.250   7.994 -0.0817  0.4139  0.0339
32003W        W75056  30.767  12.230   9.365  0.6051  0.2493  0.0498
32004W        W75057  20.479  33.453  10.433 -0.2038 -0.2784 -0.2024
32005W        W75058  14.876  34.529   1.290  0.3388 -0.1529  0.0068
32006W        W75059  25.079   7.417   1.546  0.2088 -0.3299  0.1615
32007W        W75060  10.269  34.443  26.254 -0.1616 -0.1007  0.0174
32008W        W75061  34.383  32.822  15.400 -0.1301  0.2937 -0.0878
32009W        W75062  22.177  25.511   5.693  0.3893  0.1993  0.0792
32010W        W75063  29.840   0.361   3.788 -0.2711  0.1261 -0.2251
32011W        W75064   0.684  15.536   8.338 -0.0338  0.0195 -0.1190
32012W        W75065  27.979   5.169  26.419 -0.1295 -0.1066 -0.0334
32013W        W75066   5.807  20.329  15.619 -0.2708 -0.1539  0.0430
32014W        W75067   6.410  33.024   9.276  0.1709 -0.0517 -0.2172
32015W        W75068  25.304  24.640  25.746  0.0227  0.2374  0.1126
32016W        W75069  27.273  27.437  22.280  0.0055  0.1051  0.2419
32017W        W75070  15.168  17.915  27.499 -0.1192 -0.1365 -0.0227
32018W        W75071  20.990  28.463   6.193 -0.1505  0.2830  0.1083
32019W        W75072  25.365   7.657  27.513  0.0492  0.2148  0.0414
32020W        W75073   0.070   2.411  15.472  0.1083 -0.0564  0.0959
32021W        W75074  29.814  15.316   4.339  0.3238 -0.0617 -0.5850
32022W        W75075  17.897  16.585   1.875 -0.3457  0.0643  0.0949
32023W        W75076  22.562  31.760  19.646 -0.0227 -0.0776  0.0790
32024W        W75077  27.445  19.320  23.238  0.0100  0.1481 -0.0388
32025W        W75078  25.956  15.050  20.385  0.0819 -0.0609 -0.3151
32026W        W75079  21.125  20.067   7.545 -0.4105 -0.3121 -0.1240
32027W        W75080   1.042  20.297  23.420 -0.2934  0.0372 -0.2008
32028W        W75081   3.072   1.555  27.826  0.0003 -0.1617  0.0585
32029W        W75082  28.253   9.821   6.489  0.1316  0.0879 -0.1299
32030W        W75083  26.416   8.969  22.551  0.3558 -0.1490 -0.2744
32031W        W75084  26.990   3.990   5.111 -0.1522  0.0852  0.0037
32032W        W75085  24.128   8.206  10.277 -0.0783  0.0104  0.1208
32033W        W75086  25.660   0.594  21.118 -0.0482  0.1988 -0.2258
32034W        W75087  12.092  28.748  23.090 -0.2502  0.0585 -0.0047
32035W        W75088  26.119   1.456  19.824  0.1040 -0.1582  0.2281
32036W        W75089  32.901   9.274   3.305 -0.1464  0.4061  0.1838
32037W        W75090  31.384  34.015  28.561 -0.1711 -0.1475  0.0646
32038W        W75091  21.089   2.062   6.232 -0.1403 -0.0660  0.0167
32039W        W75092   3.994  19.285  24.587  0.0102 -0.0293  0.2568
32040W        W75093  10.488  11.796   1.129  0.1825 -0.0703 -0.1254
32041W        W75094   4.895   7.946  24.542 -0.3605  0.0767 -0.1194
32042W        W75095  21.857  28.460  18.732  0.2179  0.0118 -0.3057
32043W        W75096  30.591  31.256   5.485 -0.2964 -0.1814 -0.0123
32044W        W75097  30.149  16.419   6.802  0.1558  0.1492  0.0763
32045W        W75098  26.356  25.722  15.599 -0.1791 -0.0815  0.0354
32046W        W75099   6.626  17.913   5.802 -0.2959 -0.2212 -0.0761
32047W        W75100  32.789   6.645   3.360  0.0444  0.1694 -0.1006
32048W        W75101  29.860   7.059   3.782  0.1556 -0.0313 -0.2720
32049W        W75102  28.110  16.794   8.539 -0.1576  0.0748  0.1790
32050W        W75103  26.507  24.350   7.490  0.0924  0.2548  0.0186
32051W        W75104  18.117  13.499  27.914  0.1171  0.2362  0.2147
32052W        W75105  19.252  32.040  27.573 -0.0466 -0.2281  0.1262
32053W        W75106   1.536  31.216   8.833 -0.0556 -0.3065 -0.0814
32054W        W75107  33.518  13.980   3.379 -0.0880  0.1791  0.4524
32055W        W75108  10.055   6.835  15.793 -0.1153 -0.0920  0.2231
32056W        W75109  16.695   6.433   0.699  0.0462 -0.1388 -0.1734
32057W        W75110  22.921  11.501   3.803  0.1825 -0.0177 -0.1727
32058W        W75111   7.400  15.004  24.893  0.0054 -0.1627  0.1919
32059W        W75112  26.504  13.180  21.145  0.4427 -0.1396 -0.2384
32060W        W75113  22.620   3.037   3.292 -0.2032  0.0982  0.0732
32061W        W75114  25.535  22.266  22.941 -0.1563 -0.1514 -0.0771
32062W        W75115  13.068  19.969  19.306 -0.1381 -0.2777  0.1552
32063W        W75116  15.326  27.515   3.644  0.3145 -0.1201  0.0076
32064W        W75117   3.772   3.419  17.079  0.0930  0.2400 -0.2485
32065W        W75118  30.436  20.606  25.627 -0.0813 -0.0126 -0.0236
32066W        W75119  23.259  10.081  23.484 -0.3005  0.1724 -0.3180
32067W        W75120  12.346   5.380  23.455 -0.0529 -0.3278 -0.0874
32068W        W75121  28.104  14.615  20.405  0.0398 -0.1384  0.2408
32069W        W75122  24.747   6.804   3.299  0.1001 -0.2180  0.3238
32070W        W75123  26.946  25.518  25.996  0.0270 -0.2229 -0.1106
32071W        W75124   1.158   6.405   2.460  0.1154 -0.1393 -0.0402
32072W        W75125   3.460  29.570  25.586 -0.0986  0.1573 -0.2068
32073W        W75126  27.499   5.523  25.370  0.0216 -0.0298 -0.0512
32074W        W75127  30.488   4.217   2.494  0.0785 -0.0648 -0.2162
32075W        W75128  34.149  18.989  26.769 -0.1599 -0.0108  0.3015
32076W        W75129  22.486  13.915  17.763 -0.2212  0.0387 -0.1222
32077W        W75130   3.664   4.817   5.729  0.1538  0.1828 -0.2740
32078W        W75131   2.008   3.197   9.730  0.1086  0.3321 -0.1732
32079W        W75132  25.565  17.130  27.234 -0.0165  0.0988 -0.1263
32080W        W75133  22.586   9.606   4.464 -0.2529 -0.1780  0.0752
32081W        W75134  11.803  14.448  20.171 -0.0495  0.1435 -0.3279
32082W        W75135  26.439  33.978  28.620  0.5283  0.1334 -0.3209
32083W        W75136   6.642  21.333   8.625 -0.1127  0.0811 -0.0788
32084W        W75137  28.111  13.048  26.978 -0.0545  0.0076 -0.1245
32085W        W75138  27.675  19.132  28.372 -0.3086  0.2021  0.0578
32086W        W75139   8.211   4.273   7.155  0.2909  0.0648 -0.2263
32087W        W75140  23.569  10.272  18.469 -0.1854 -0.1123 -0.0671
32088W        W75141  23.747  18.601  24.263  0.0269 -0.1048 -0.0559
32089W        W75142   3.135   4.936   5.809  0.1608 -0.0766 -0.0251
32090W        W75143  22.400  34.565   9.473 -0.2324  0.1441 -0.1851
32091W        W75144  24.806  33.347   4.120 -0.1267  0.2306  0.2757
32092W        W75145  12.271   9.170  27.210  0.0230  0.0828  0.0137
32093W        W75146  18.191  21.935  23.831  0.0959 -0.2502  0.0170
32094W        W75147   5.523   5.789   8.121  0.0296 -0.0011  0.1787
32095W        W75148  34.014   2.793  26.542 -0.0398 -0.2084 -0.2630
32096W        W75149  17.247  24.027   5.216 -0.0409 -0.3048 -0.4663
32097W        W75150   7.423   5.313   4.730  0.1430 -0.0841  0.0756
32098W        W75151  33.031  33.349   4.837 -0.3178  0.1194  0.2350
32099W        W75152  21.068   3.827   9.723  0.0661  0.2042  0.1037
32100W        W75153  11.594  10.833   0.524 -0.2070  0.0158 -0.2409
32101W        W75154  17.245  24.913   8.543  0.3848  0.0748 -0.1080
32102W        W75155  33.161  32.989  17.827 -0.0125  0.3260 -0.0024
32103W        W75156  12.604   0.509   9.367 -0.0621 -0.3055 -0.2200
32104W        W75157  19.569  28.944   7.703 -0.2931  0.0656  0.1147
32105W        W75158  10.947   5.409  28.651  0.0061 -0.2296 -0.3684
32106W        W75159   1.561   6.093  20.232 -0.2302  0.0356  0.1539
32107W        W75160  21.689   7.028  23.480 -0.1996  0.1863  0.0054
32108W        W75161   0.575  20.358  14.902 -0.0806  0.0317 -0.1665
32109W        W75162  34.296  34.404  14.728  0.1855  0.1091  0.1445
32110W        W75163  32.096  23.902  26.172 -0.2105  0.1025 -0.2240
32111W        W75164   5.084  21.843   1.163  0.0017  0.1187 -0.0319
32112W        W75165  18.732  16.388   3.207  0.0564  0.1851 -0.0792
32113W        W75166  22.636  23.475   5.589  0.3602  0.0029  0.0036
32114W        W75167   0.303  11.173   5.189  0.1663  0.0652 -0.4083
32115W        W75168  33.762   8.220   9.042  0.0426  0.1017 -0.1024
32116W        W75169  15.698  19.367  21.540 -0.0990  0.0145 -0.0883
32117W        W75170   8.827   8.739   6.866  0.1533 -0.0472 -0.0999
32118W        W75171  27.240   6.342   7.920  0.2347 -0.0822  0.1111
32119W        W75172  33.314  19.810  26.941 -0.1645  0.3464 -0.0442
32120W        W75173  33.223  25.625  25.335  0.2681 -0.3281  0.1349
32121W        W75174  30.771  10.068  28.986 -0.0899  0.1831  0.3400
32122W        W75175  22.452  11.958  10.705 -0.2686  0.1627  0.0152
32123W        W75176   7.892  17.040  26.298  0.1190 -0.0265  0.0312
32124W        W75177  21.715  32.600   6.303  0.1472 -0.0622 -0.2263
32125W        W75178  25.832  28.785   0.859 -0.0306  0.1052  0.2634
32126W        W75179  22.755   9.363   8.425  0.2212 -0.2336  0.4016
32127W        W75180  31.105  27.017  23.265  0.1340 -0.1890  0.1902
32128W        W75181  15.850  12.101  23.088 -0.2511  0.1062 -0.2422
32129W        W75182  26.040  30.000   8.484 -0.0388  0.1292 -0.1738
32130W        W75183   6.744  33.420   7.873  0.4431  0.2153  0.1545
32131W        W75184   4.934   5.976   3.445  0.2248  0.1697  0.0667
32132W        W75185  20.452  12.950   1.469 -0.0418  0.0155 -0.0281
32133W        W75186  27.198  33.272   8.519 -0.3588  0.3024 -0.1526
32134W        W75187  24.591  17.405  18.885 -0.1297 -0.1601  0.0527
32135W        W75188  24.377  16.932   0.354  0.0619  0.3230 -0.0551
32136W        W75189  25.208  34.339   3.619 -0.1016 -0.0883 -0.0262
32137W        W75190   8.931  10.198   6.226  0.0137 -0.2599  0.2009
32138W        W75191  28.301  11.507   3.426  0.4746  0.1435 -0.2600
32139W        W75192  28.556  17.264   5.372 -0.0290  0.3902  0.1972
32140W        W75193  24.248  24.068   4.173 -0.1820  0.5253 -0.2036
32141W        W75194  25.210  33.433   7.362  0.2284  0.0788 -0.2354
32142W        W75195   3.568  27.690   6.558  0.2532 -0.0009  0.1575
32143W        W75196   1.548  12.530  19.213  0.0019  0.1060 -0.2478
32144W        W75197  26.151  13.837  25.079 -0.0734 -0.0516 -0.1142
32145W        W75198  32.464  22.755   1.196 -0.0504 -0.4689  0.0260
32146W        W75199  30.657   3.841  22.209 -0.2098 -0.0473 -0.1404
32147W        W75200   7.873  17.394  24.169 -0.2991  0.0891  0.0885
32148W        W75201   1.329   1.100   1.425  0.0238 -0.0946 -0.0052
32149W        W75202   0.568  10.517   8.031  0.4690 -0.1954  0.0722
32150W        W75203  22.339  16.247  18.672  0.2259 -0.0585  0.1610
32151W        W75204  21.509  32.696  24.663 -0.1061 -0.3425 -0.3404
32152W        W75205   6.374  16.358  10.389  0.3555 -0.0549  0.3852
32153W        W75206  19.521   4.089  27.497 -0.5128  0.0779 -0.0357
32154W        W75207  30.429   4.852   1.735  0.1386  0.1289  0.2391
32155W        W75208   3.870  25.961  20.510  0.1616  0.1531 -0.1768
32156W        W75209  27.902  12.913   8.894 -0.0517  0.2705  0.0329
32157W        W75210  19.024  22.673   6.915  0.0349 -0.1588 -0.3804
32158W        W75211  12.389  12.342  24.573 -0.0379  0.0416  0.0671
32159W        W75212  33.964   8.520   5.055  0.2185 -0.0012 -0.1279
32160W        W75213  21.141  33.549   9.486 -0.3055 -0.1527  0.3607
32161W        W75214  33.375  31.500  26.176  0.4691 -0.1139 -0.0128
32162W        W75215  32.188   6.125  25.866 -0.0521 -0.0328 -0.2419
32163W        W75216  10.247  14.952  11.004  0.2810  0.1180  0.0601
32164W        W75217  20.672   5.645  18.851 -0.0147  0.1459  0.0465
32165W        W75218  12.327  13.579   0.318 -0.1684  0.0548  0.2696
32166W        W75219   1.774   0.310  26.934 -0.1562 -0.0028  0.0382
32167W        W75220  27.163  32.781   9.755 -0.0014 -0.0567 -0.0618
32168W        W75221  22.308   0.893  25.371  0.0001  0.2652 -0.0416
32169W        W75222  21.680  25.550  25.221  0.1731  0.4279 -0.0345
32170W        W75223  21.341  24.663   1.820  0.1497  0.0147 -0.4527
32171W        W75224  22.452  15.082  26.085  0.2626 -0.1946 -0.0196
32172W        W75225  18.629  30.263   4.520 -0.0321 -0.1495  0.0733
32173W        W75226  21.534  17.377   8.550 -0.0671 -0.0389 -0.1051
32174W        W75227  21.401  20.509  23.668 -0.0402  0.0318 -0.3639
32175W        W75228  28.608  13.427   1.266  0.0859  0.0895  0.0341
32176W        W75229  26.145  27.408  21.184 -0.3012  0.0222  0.3685
32177W        W75230  28.538  21.147  24.041 -0.0168 -0.0920  0.3237
32178W        W75231  22.266  14.726   9.743  0.1593 -0.1487 -0.0711
32179W        W75232  23.728  19.739   7.907  0.3780  0.1382  0.0622
32180W        W75233  20.873  13.170   4.954  0.1581  0.3161 -0.0811
32181W        W75234   1.809   5.334   9.699  0.0918 -0.1530 -0.1403
32182W        W75235  27.762  13.296  28.333  0.0646 -0.0553  0.2154
32183W        W75236   5.777  17.079   1.581  0.2143  0.0131  0.0164
32184W        W75237  27.772  14.239  22.830 -0.2570 -0.1408 -0.2364
32185W        W75238  28.715   4.951   9.886  0.1189  0.0491  0.1056
32186W        W75239  19.887  17.607   8.954  0.2097 -0.2366  0.0427
32187W        W75240  23.702  18.530   8.891 -0.3047  0.1801 -0.1842
32188W        W75241  18.307   4.572   2.236  0.2068 -0.0278 -0.4208
32189W        W75242   9.982   5.917   9.210  0.0352  0.1069 -0.2152
32190W        W75243  22.081  15.112   3.978  0.0046 -0.1489 -0.0916
32191W        W75244   4.131   6.549  10.713 -0.1691 -0.0785  0.0137
32192W        W75245  26.738  23.777  20.853 -0.1916  0.0236  0.1122
32193W        W75246   0.495  14.393  23.073  0.0941 -0.1439  0.0642
32194W        W75247  17.982   3.715   5.753  0.0144 -0.0489 -0.0752
32195W        W75248   2.092  18.656   0.016 -0.3070 -0.0078  0.0613
32196W        W75249   7.556   2.669   9.790  0.2364  0.2552  0.2713
32197W        W75250  19.422  25.117   7.399 -0.1348 -0.0372 -0.0037
32198W        W75251  26.770  16.003   7.552 -0.0688 -0.2194  0.0498
32199W        W75252  30.709   3.211   5.944  0.0011  0.1937  0.0816
32200W        W75253  20.937   4.718  22.124 -0.0754 -0.1660 -0.3550
32201W        W75254  19.238  21.047   3.432  0.1495  0.3708  0.4521
32202W        W75255  22.164   3.906  22.863 -0.0660  0.5370  0.0814
32203W        W75256   3.911  20.352   1.599 -0.1086  0.0456 -0.1151
32204W        W75257  24.787  11.907   5.614  0.1343 -0.2857  0.0576
32205W        W75258  11.050  14.797   9.782 -0.1303 -0.0693 -0.1202
32206W        W75259  31.454  10.137   5.211  0.2309 -0.3619  0.0926
32207W        W75260   0.006  10.787   5.508  0.1378 -0.0333  0.1558
32208W        W75261  27.704  25.142   0.826  0.3631 -0.0794 -0.0382
32209W        W75262  32.013   4.682  27.338  0.1914 -0.0095 -0.2073
32210W        W75263  21.736  17.511  22.619 -0.0083 -0.2134 -0.0384
32211W        W75264  31.273   4.766   4.408 -0.1334 -0.1390 -0.2365
32212W        W75265  30.402  18.405   4.902 -0.0349 -0.2881 -0.4365
32213W        W75266  29.182  32.232  18.348 -0.1074 -0.1245 -0.1998
32214W        W75267   1.404   8.634   3.294 -0.1472  0.0599 -0.1803
32215W        W75268   1.934  16.366   6.359  0.2775 -0.1234 -0.0984
32216W        W75269  27.774   9.954  28.701 -0.2746  0.2051 -0.0309
32217W        W75270   5.132  20.992  27.422  0.2083  0.0790  0.1877
32218W        W75271  28.533  20.265  25.382  0.2322  0.1033  0.3134
32219W        W75272  17.006  12.828   0.404 -0.0198  0.0073  0.1188
32220W        W75273  20.200  28.469  11.016 -0.1148 -0.2112 -0.0139
32221W        W75274  29.621   9.410  23.513  0.0445  0.2908 -0.0889
32222W        W75275   1.398   8.525  23.217  0.0555  0.0240  0.0100
32223W        W75276  17.900  30.568   8.761 -0.3786 -0.0784  0.2132
32224W        W75277  31.793  19.110  27.904 -0.1188  0.2605 -0.1400
32225W        W75278  10.829   9.772  26.540 -0.0545 -0.1196  0.1810
32226W        W75279  14.817   3.708  27.712  0.0096 -0.1826  0.0416
32227W        W75280  33.569   0.606   2.333 -0.0832  0.2211  0.0089
32228W        W75281   9.905  19.070  23.782 -0.3062 -0.1339  0.0158
32229W        W75282  14.676  10.983  10.129  0.3122 -0.1441  0.1388
32230W        W75283  17.284   7.645   9.785 -0.0176 -0.0618  0.2391
32231W        W75284  20.227  17.718   2.239 -0.0569  0.2039 -0.0346
32232W        W75285  18.111   5.285   4.255  0.0048 -0.1239  0.0887
32233W        W75286   9.438   7.757   6.302  0.0417 -0.0798  0.1649
32234W        W75287  26.821  18.241   8.052 -0.1911  0.1985 -0.0363
32235W        W75288  12.202   2.894  26.265 -0.0277 -0.0697 -0.0232
32236W        W75289  15.535  33.921   3.431 -0.2033 -0.0828 -0.1313
32237W        W75290   4.743  18.413   4.960 -0.5050  0.1924  0.1334
32238W        W75291  30.158  25.986   4.195 -0.3450 -0.0489  0.0484
32239W        W75292  23.153  22.103  21.916 -0.3860  0.3388 -0.2107
32240W        W75293  31.114  33.344   0.416  0.1576  0.0761  0.1764
32241W        W75294  33.674  26.470   7.636  0.0288 -0.1194  0.3694
32242W        W75295  33.191   5.754  21.504 -0.1284  0.0851 -0.2106
32243W        W75296  15.212  25.277   9.105  0.0514 -0.1792 -0.2365
32244W        W75297  21.429   4.508  27.772 -0.0642 -0.4789 -0.0677
32245W        W75298  32.366  29.304  23.331  0.1530  0.2562  0.1028
32246W        W75299   1.383  18.670   2.037 -0.3168  0.1588 -0.1042
32247W        W75300   1.877  17.160   5.597 -0.1202 -0.0843  0.4555
32248W        W75301  12.761  11.584  28.829  0.0658 -0.0531 -0.0863
32249W        W75302   8.694  30.461  16.118  0.1335  0.2074  0.0660
32250W        W75303  28.862   3.168  29.072  0.3497 -0.0666 -0.3221
32251W        W75304  11.374  29.334  15.217  0.2290  0.2017 -0.2531
32252W        W75305  18.412   0.316   1.491 -0.1873  0.1339 -0.3163
32253W        W75306  30.090   2.603   9.220 -0.0572 -0.0967 -0.4274
32254W        W75307  19.682  14.500   1.777 -0.1366  0.0193 -0.0673
32255W        W75308  25.884  23.853  13.742 -0.1091 -0.0674 -0.2823
32256W        W75309  27.722  17.096   0.954 -0.0081 -0.1513 -0.1396
32257W        W75310  20.257  18.871   1.898  0.0495  0.0502  0.1318
32258W        W75311  34.322   7.543  13.978 -0.0129 -0.3231 -0.1074
32259W        W75312  24.890  20.114   4.684 -0.0495 -0.0467  0.1377
32260W        W75313  11.670  17.023   0.209 -0.0665  0.0051 -0.2035
32261W        W75314  29.090  29.887   0.195 -0.1094 -0.0721 -0.0785
32262W        W75315  30.437  31.990   1.656 -0.4061  0.2883  0.1593
32263W        W75316   2.862  12.862  24.564 -0.1700 -0.1433 -0.0544
32264W        W75317  23.718  13.126   7.946 -0.1111  0.1851  0.2545
32265W        W75318  27.126  10.013   1.204 -0.0738 -0.0980 -0.0655
32266W        W75319  22.891  18.859   8.022 -0.2376 -0.3134  0.2351
32267W        W75320  18.001  17.528   7.977  0.0324 -0.0248  0.2532
32268W        W75321  19.012   5.865  10.428 -0.2092  0.2625 -0.0782
32269W        W75322  23.010   7.753   8.124  0.0029 -0.1547  0.2395
32270W        W75323  30.327   1.185   3.998 -0.0972 -0.0847  0.1546
32271W        W75324  34.330   4.572  28.101 -0.1883  0.0239  0.1770
32272W        W75325  27.100   8.563  28.649 -0.3122 -0.0009  0.3208
32273W        W75326  23.589  15.372  24.159  0.0564  0.0005 -0.0872
32274W        W75327  14.460  30.739   9.287  0.4811 -0.1821  0.2877
32275W        W75328  22.639   4.294   6.613  0.2426  0.0636 -0.0089
32276W        W75329  33.148  18.452   1.043 -0.1842  0.1343 -0.1341
32277W        W75330  29.268   3.917  28.370  0.0859 -0.1353 -0.2121
32278W        W75331   0.123  21.124   1.727  0.1139  0.1787  0.2106
32279W        W75332  24.266  34.157  25.547  0.0292  0.0235 -0.0158
32280W        W75333  14.094   5.154   2.275 -0.0102 -0.1270  0.4109
32281W        W75334  31.073   7.306  26.309  0.2142 -0.0366 -0.2012
32282W        W75335  32.788  33.898  20.169  0.1093  0.2059 -0.3671
32283W        W75336  12.916  18.819   9.673 -0.4935  0.1193  0.1595
32284W        W75337  26.715  24.752   4.417  0.0932  0.2247 -0.2946
32285W        W75338  16.728   2.719   5.082  0.2215  0.0260 -0.1337
32286W        W75339  27.624  19.484  18.312  0.1877  0.0138 -0.1106
32287W        W75340  27.080   7.537   7.961 -0.3278 -0.1243  0.0309
32288W        W75341  30.076  22.165  18.102  0.1644  0.3544  0.0623
32289W        W75342   5.218   5.152  29.083  0.2152  0.3093 -0.1778
32290W        W75343   1.308   7.932   4.924 -0.3893  0.1514 -0.1321
32291W        W75344   4.163   0.218  26.670 -0.1719 -0.0216 -0.0139
32292W        W75345  15.486  34.432   5.653  0.0488  0.0270 -0.2048
32293W        W75346  22.148   0.543  21.072 -0.2665  0.2352  0.1039
32294W        W75347   8.684  32.418   8.383 -0.0669 -0.3066 -0.1154
32295W        W75348  23.862  12.487  20.156  0.2478 -0.2795  0.0779
32296W        W75349  21.910  19.060  22.549  0.0276 -0.2853 -0.0428
32297W        W75350  26.367   8.004   2.006 -0.0344 -0.4173 -0.0032
32298W        W75351  14.563   6.569   3.314  0.2414  0.0446  0.3628
32299W        W75352  23.348   6.007   6.251  0.2676 -0.3405  0.1462
32300W        W75353  15.366  11.322  26.874  0.1454 -0.2231 -0.1250
32301W        W75354  19.458  17.766  23.798  0.2136  0.0330  0.1463
32302W        W75355  17.588  11.297   9.858 -0.0681 -0.3184 -0.1347
32303W        W75356  26.551  13.091   6.421  0.0461  0.1507 -0.0860
32304W        W75357  12.455  19.513  29.130 -0.1961 -0.0543 -0.0055
32305W        W75358   2.521  30.111   3.668 -0.0148  0.0476  0.0813
32306W        W75359   4.538  13.617   7.748 -0.1295  0.0350 -0.0640
32307W        W75360  10.368  11.454   4.132  0.2608 -0.0709  0.2118
32308W        W75361  27.175   9.727   7.074  0.0129 -0.0458  0.1112
32309W        W75362  31.486   7.543  25.147 -0.1084  0.0405  0.2094
32310W        W75363  31.279   7.606  18.849  0.1854  0.0949  0.1567
32311W        W75364  31.217  18.843  18.543 -0.1116 -0.0714  0.2156
32312W        W75365  13.645   4.982  20.557 -0.0333 -0.2092 -0.0106
32313W        W75366  24.040  13.523   7.081  0.3721 -0.0364  0.0868
32314W        W75367  20.105  29.082   0.150 -0.1978 -0.0603  0.0073
32315W        W75368  19.372  24.366   6.875 -0.0751 -0.2856  0.2561
32316W        W75369  31.233  11.303   6.215  0.2794  0.1150  0.0284
32317W        W75370  23.809  12.178   6.966 -0.0240  0.0531 -0.3011
32318W        W75371   3.204   4.014   7.918 -0.0245  0.0903  0.0868
32319W        W75372  15.653   9.149   9.257 -0.1443  0.0271 -0.2199
32320W        W75373  10.969   8.362  25.899  0.0849 -0.1858 -0.4072
32321W        W75374  24.469  11.785   6.471 -0.0351  0.4522 -0.1029
32322W        W75375  23.160  20.324   5.407 -0.0498 -0.2284  0.1660
32323W        W75376  33.137  15.015  28.342  0.0497  0.2526  0.0880
32324W        W75377   0.256  10.988   9.635 -0.4558 -0.0005  0.1696
32325W        W75378   0.875   8.848   7.598 -0.2121 -0.3957 -0.1366
32326W        W75379  20.715   6.267   9.374 -0.0828  0.2399 -0.4551
32327W        W75380  14.934   7.057   1.231  0.0335 -0.0590 -0.2983
32328W        W75381  15.895   8.741  10.075  0.0532  0.1143 -0.0138
32329W        W75382  22.337   4.621   8.970  0.1070  0.2442 -0.1558
32330W        W75383  30.715  16.116  25.125 -0.0632 -0.0042 -0.0492
32331W        W75384   3.999  15.599   6.710  0.1974 -0.5536 -0.0184
32332W        W75385  23.484  27.408  23.930  0.2983 -0.1212 -0.0521
32333W        W75386  17.452   9.738   2.733  0.0941  0.1722  0.1634
32334W        W75387  17.457  14.911   8.806 -0.3043  0.3390 -0.0278
32335W        W75388  31.799  10.465   6.526 -0.3372  0.1504 -0.1230
32336W        W75389   4.958  12.907   0.981 -0.0251  0.2335 -0.0519
32337W        W75390   8.534  23.841  28.709  0.1127 -0.3661  0.1498
32338W        W75391  33.678  22.524  13.947  0.1904  0.1806 -0.0209
32339W        W75392  10.845   4.329  25.919  0.1217  0.0589  0.0847
32340W        W75393  33.213  22.454   4.049  0.1395  0.2862 -0.0668
32341W        W75394  22.336  17.718  22.579  0.0703  0.1747 -0.3552
32342W        W75395  33.886  16.288   9.552  0.1726 -0.0921 -0.2657
32343W        W75396  28.952   2.646   0.392 -0.0032 -0.2316  0.2253
32344W        W75397   3.080   4.801  25.818  0.0615 -0.0027 -0.0758
32345W        W75398  28.517  30.910   5.990  0.0603 -0.0430  0.0688
32346W        W75399  18.636  21.151  22.580  0.1253  0.3231 -0.1054
32347W        W75400   7.461  10.761  10.625 -0.0035 -0.2894  0.1601
32348W        W75401  22.298   7.072   9.953  0.0528  0.3527  0.0063
32349W        W75402  22.362  31.460   9.861 -0.0770 -0.0953  0.2840
32350W        W75403   6.791  30.011  14.787 -0.1870 -0.1367  0.1242
32351W        W75404  22.278   8.263   6.744 -0.0728  0.0226  0.1770
32352W        W75405  20.865  15.149   1.166 -0.1504  0.1516  0.3813
32353W        W75406  33.375  19.623   4.898 -0.0240  0.1967  0.1454
32354W        W75407  17.857  23.940   9.425 -0.2281 -0.1520  0.0445
32355W        W75408  31.682  19.770   3.104  0.2030  0.1133  0.0507
32356W        W75409  25.051   1.235  10.116  0.3294  0.0318  0.1078
32357W        W75410  15.718  14.336   7.922 -0.0357  0.2894  0.3436
32358W        W75411  13.169  18.447   8.469 -0.0890  0.0121 -0.1719
32359W        W75412  22.863  15.047  17.436  0.1265  0.0087 -0.0343
32360W        W75413  33.756   8.892   3.290  0.0234  0.3688  0.0288
32361W        W75414  23.320   2.243   6.964  0.0284 -0.0320  0.0168
32362W        W75415  30.161  15.040   3.107 -0.1495  0.0848  0.0287
32363W        W75416  30.034  24.894   2.030  0.1311  0.0706  0.0254
32364W        W75417  12.484  19.950  26.962  0.3781  0.1157 -0.4422
32365W        W75418   9.857  10.814  19.379 -0.2445  0.1030 -0.2055
32366W        W75419  27.989  17.513   2.305 -0.2447  0.1908 -0.3205
32367W        W75420  22.065  18.324   4.129 -0.4576 -0.1563 -0.1256
32368W        W75421  23.765  16.278   5.068  0.2478  0.2703  0.1551
32369W        W75422   7.934  16.858   2.924  0.0633  0.0775  0.1955
32370W        W75423  20.508  12.824   2.854 -0.1842  0.0251  0.0921
32371W        W75424  29.215   1.352  16.564 -0.0526 -0.3216  0.1153
32372W        W75425   7.276  29.326   7.211  0.3145 -0.4505  0.3081
32373W        W75426  18.220   7.144  28.681  0.2644  0.2399  0.2292
32374W        W75427  21.548   5.869   2.650 -0.1753 -0.2143  0.0947
32375W        W75428   4.512   5.133   6.841  0.2777 -0.1677 -0.3199
32376W        W75429  25.280   9.594   2.398  0.1687 -0.1821  0.1318
32377W        W75430  33.318   8.059   9.253  0.2255 -0.2646  0.3625
32378W        W75431  33.200   6.352  23.788  0.2318 -0.4354 -0.0983
32379W        W75432  22.428  11.539  27.081  0.0307 -0.0024 -0.0472
32380W        W75433  17.962  25.114   5.009  0.0983 -0.2035 -0.1553
32381W        W75434  30.002  19.255   3.842 -0.0416 -0.0684 -0.1653
32382W        W75435  24.000   9.075   3.873  0.2293  0.3760 -0.1325
32383W        W75436  25.315  32.744   4.766  0.7156 -0.0083  0.3211
32384W        W75437  22.851  18.558  16.231  0.1306  0.0460  0.2743
32385W        W75438   6.182   8.243  28.606 -0.1756 -0.2559  0.2470
32386W        W75439  20.751  21.525  10.222 -0.0016  0.0458  0.0898
32387W        W75440   0.867   6.413   8.265 -0.0603  0.4040  0.0569
32388W        W75441  26.732   8.645  16.562 -0.0204  0.1369 -0.0485
32389W        W75442  24.454   7.754   5.179 -0.2404  0.1588 -0.1314
32390W        W75443  32.259  13.869  27.167  0.3085  0.0935  0.1215
32391W        W75444  20.042   7.306   8.649  0.1787  0.2236 -0.2183
32392W        W75445  23.036  23.065   2.236  0.1268  0.0322  0.3214
32393W        W75446  27.217  15.023   5.587 -0.2448  0.1775 -0.3177
32394W        W75447  15.136  21.909   8.229  0.1849 -0.2884 -0.3190
32395W        W75448  13.661  15.535   7.855 -0.0154  0.2210 -0.0638
32396W        W75449  32.504  24.574  22.286  0.0525 -0.2139  0.2014
32397W        W75450   5.151  22.136   3.753  0.2382  0.0167 -0.0024
32398W        W75451   4.300  19.755   6.616 -0.0555  0.2242  0.1306
32399W        W75452   7.656  32.605   3.968 -0.0850  0.0725 -0.0495
32400W        W75453  25.291   2.255   4.117  0.0381  0.2334  0.1862
32401W        W75454   1.110   9.713   8.192 -0.0308  0.0420 -0.0533
32402W        W75455  34.411  16.745   7.029  0.1143 -0.0692 -0.4503
32403W        W75456  26.408  12.648  28.873 -0.6099 -0.4501  0.0831
32404W        W75457  30.608  20.826   0.648  0.1434 -0.1768 -0.0522
32405W        W75458  18.072  16.916  27.028 -0.3428 -0.0828 -0.0572
32406W        W75459  28.451   7.435   3.988 -0.2083  0.1265 -0.0369
32407W        W75460  21.257   6.459   4.509  0.0347  0.0096  0.1739
32408W        W75461  16.346   5.188  10.495  0.1211  0.4670  0.0189
32409W        W75462  23.747   2.249   6.258 -0.1615  0.1581  0.1126
32410W        W75463  24.734   9.373   6.434  0.0665 -0.1243  0.1609
32411W        W75464   6.343   7.359   3.233  0.2329 -0.3846 -0.1624
32412W        W75465  23.186  21.753   4.552  0.0782  0.1342 -0.3961
32413W        W75466  17.513   3.947   3.132 -0.0423  0.0205 -0.2249
32414W        W75467  19.811   7.035   2.581 -0.1647  0.0049  0.1566
32415W        W75468   4.534   9.804   2.023 -0.0157  0.0098  0.1151
32416W        W75469  24.076   9.031  19.600 -0.0567  0.3430  0.0145
32417W        W75470   4.096  11.526   2.229  0.0082 -0.1643  0.1739
32418W        W75471   0.065   8.384   7.467 -0.1730  0.0173 -0.1558
32419W        W75472  25.515  19.371  25.779 -0.2033  0.1362  0.2781
32420W        W75473  31.435   7.809   9.409 -0.1025 -0.0811 -0.0117
32421W        W75474  29.056   3.518  17.190 -0.0507  0.1618 -0.4402
32422W        W75475  25.359  26.025  15.048  0.1454  0.0371 -0.3163
32423W        W75476  26.571   3.490   1.557 -0.0961  0.0892  0.4095
32424W        W75477  14.622  13.705  28.033 -0.0898  0.2710  0.3424
32425W        W75478  11.439  16.344   5.688 -0.1018 -0.1933 -0.0671
32426W        W75479   8.143  27.306  26.759  0.0216 -0.1819  0.0862
32427W        W75480  22.345  22.559  18.027 -0.1071 -0.0468 -0.1156
32428W        W75481   1.575  24.932   2.768  0.2638 -0.1977  0.2724
32429W        W75482  30.632  13.695   5.477  0.1602  0.0440  0.0859
32430W        W75483  23.313  28.819  10.377 -0.2018  0.1147  0.0262
32431W        W75484  31.303  10.268   4.757  0.1721 -0.1280  0.0006
32432W        W75485  25.481   8.966   0.439  0.1985  0.2606 -0.0021
32433W        W75486  18.221  20.538   6.072  0.1748  0.1028 -0.0130
32434W        W75487  10.903   8.764   6.897 -0.1249 -0.2480 -0.0551
32435W        W75488  28.551  10.842   6.503 -0.2806  0.0885  0.1456
32436W        W75489   4.003  10.223   0.588 -0.1183  0.2251  0.3712
32437W        W75490   6.082  15.150   2.035 -0.2065  0.0811 -0.2716
32438W        W75491  12.537  17.369  18.885 -0.3108  0.0301  0.3372
32439W        W75492  24.390  17.043  10.070 -0.1939 -0.1854 -0.0977
32440W        W75493  23.096   4.529  29.099 -0.0729  0.2193 -0.2424
32441W        W75494  17.987  19.124  28.964 -0.1280 -0.0208  0.0315
32442W        W75495  20.844  17.675   6.794  0.1566  0.0240  0.3357
32443W        W75496   7.525  24.371   4.602  0.3243  0.6009 -0.2618
32444W        W75497   1.093  29.792  23.845 -0.0244 -0.0665 -0.1262
32445W        W75498  12.029  26.586   2.117  0.3171 -0.1482  0.1056
32446W        W75499  18.068  25.438  25.974  0.1067  0.1903 -0.1402
32447W        W75500  16.890  13.231   0.955  0.0035  0.0316 -0.2432
32448W        W75501  22.610   5.416   9.238  0.0710  0.1619  0.2882
32449W        W75502  31.404   8.525   5.371  0.4088  0.0380 -0.1536
32450W        W75503  26.057  22.965   4.779  0.1807  0.0068 -0.1008
32451W        W75504  11.377   6.190  28.882 -0.1014 -0.4671 -0.0766
32452W        W75505  29.371  29.612  24.947  0.1803 -0.0660  0.1190
32453W        W75506  23.281   7.560  27.514 -0.0531  0.0068  0.0368
32454W        W75507  19.822  11.909  25.244 -0.0218  0.3659 -0.1499
32455W        W75508  34.221   4.683   8.687 -0.0770  0.4388 -0.0192
32456W        W75509  31.274  22.254   9.864  0.0383 -0.0642 -0.0083
32457W        W75510   8.465   3.487  26.166 -0.1078  0.0122 -0.1648
32458W        W75511  25.373  17.128   4.546  0.0207 -0.2930 -0.1076
32459W        W75512  30.722   8.928  27.175  0.1849  0.2913  0.0056
32460W        W75513  23.464  10.213   5.865 -0.2190 -0.2198  0.0164
32461W        W75514  29.038   6.966   1.707  0.1048  0.2515  0.0250
32462W        W75515  24.179  16.277   1.788  0.1777  0.0781 -0.1986
32463W        W75516  29.623  23.035   1.850  0.2392 -0.1445  0.0242
32464W        W75517  27.968  19.021   5.508  0.2698 -0.0941 -0.2040
32465W        W75518  25.750  12.003  14.071 -0.1497 -0.1608 -0.1418
32466W        W75519  28.026  10.575  28.081 -0.0518 -0.1506 -0.1972
32467W        W75520  34.044   4.655   9.609 -0.0467 -0.1789  0.1056
32468W        W75521  30.512  13.111   6.110 -0.0704 -0.2250 -0.2223
32469W        W75522  18.749  16.559  28.745 -0.1304 -0.1027 -0.2830
32470W        W75523  25.515  15.506   4.967 -0.0651  0.4178  0.3620
32471W        W75524  30.169  11.765   6.512 -0.1145  0.0798 -0.2551
32472W        W75525  19.868   8.996   8.275  0.1499 -0.2650 -0.0119
32473W        W75526  20.532  16.720   4.372 -0.2570  0.0237  0.1330
32474W        W75527  14.954   9.296   9.022 -0.0697  0.2701 -0.0908
32475W        W75528  16.517   2.872   4.188  0.2025 -0.0224  0.3025
32476W        W75529  33.290   1.355   9.959  0.2696 -0.2620 -0.1435
32477W        W75530   4.096  12.668  21.282  0.1141  0.1955 -0.4491
32478W        W75531  30.507  30.329   7.930 -0.2334  0.1193 -0.1474
32479W        W75532  29.042  16.930   7.079  0.0744 -0.1972  0.0165
32480W        W75533  26.165   6.437   5.602  0.0518 -0.0317 -0.2169
32481W        W75534  33.157  22.323   0.639 -0.1785 -0.0748 -0.0192
32482W        W75535   4.526  14.241   4.643 -0.0556 -0.1775  0.2811
32483W        W75536  27.914  10.706   7.198 -0.2607  0.1107 -0.3130
32484W        W75537   1.726  30.829  23.484  0.1987 -0.1163 -0.1528
32485W        W75538  19.251  13.549  28.699 -0.0301  0.1809 -0.1263
32486W        W75539  19.587  15.489  22.577 -0.0454 -0.2410  0.2288
32487W        W75540  29.810   5.079   0.349 -0.1334  0.1987  0.2696
32488W        W75541  16.538   6.758   0.354 -0.0426  0.3987 -0.1629
32489W        W75542  30.560  14.715   4.934 -0.0145  0.0695  0.0066
32490W        W75543   2.253  33.512   0.380 -0.0130  0.0782 -0.0082
32491W        W75544  19.052  13.939   3.887 -0.4602 -0.1510 -0.1224
32492W        W75545   9.163  24.033   8.315 -0.0519 -0.1827 -0.0641
32493W        W75546  16.437  23.863   3.416  0.2986 -0.1377  0.1827
32494W        W75547  33.472   3.944   2.417  0.1316  0.0465  0.0717
32495W        W75548  11.617   2.774   6.402  0.2250  0.1782  0.0872
32496W        W75549  19.454   1.840  24.112 -0.3104  0.1153 -0.0809
32497W        W75550  26.686  30.936   0.698  0.2832  0.0499 -0.0914
32498W        W75551  20.058  20.492   2.344  0.1897 -0.0516  0.0213
32499W        W75552  25.676  33.480  24.750  0.0171  0.1825  0.0777
32500W        W75553  22.525   1.458   5.813  0.2250  0.0393 -0.1128
32501W        W75554   7.539  33.572  28.416  0.0867  0.2396 -0.1084
32502W        W75555  20.222   9.799  22.831  0.0205 -0.3547  0.2520
32503W        W75556  22.036   5.169   5.449 -0.1967 -0.0239 -0.2347
32504W        W75557  26.317   2.039   4.474 -0.1058 -0.0262  0.5763
32505W        W75558   5.701  22.495  28.757  0.1200  0.1011 -0.0769
32506W        W75559   6.221   5.535   5.955 -0.0500  0.2529 -0.0455
32507W        W75560  22.143  30.586   5.428  0.1419 -0.1961  0.0352
32508W        W75561  30.977  18.966   4.260 -0.0001  0.0941  0.1285
32509W        W75562   5.367  12.583  15.938 -0.2748 -0.1925 -0.0272
32510W        W75563  23.765  20.836  23.536 -0.0397  0.1720  0.4107
32511W        W75564  18.120  27.891   4.070 -0.1444  0.0132  0.1788
32512W        W75565   6.681  11.219   8.549  0.0156 -0.1729 -0.0441
32513W        W75566  16.017  30.006   9.114  0.2586 -0.2011 -0.2178
32514W        W75567  24.887   2.474   7.146  0.0780 -0.2669  0.1971
32515W        W75568  19.719  24.723   2.237 -0.0656 -0.1671  0.0122
32516W        W75569   6.254   9.398  28.070  0.0808 -0.0293  0.6084
32517W        W75570  12.181   6.267   4.584 -0.0358 -0.1566 -0.1577
32518W        W75571  14.065  32.278   2.429  0.2436 -0.0948  0.1559
32519W        W75572  21.299   5.351  20.597 -0.0226 -0.0156  0.2148
32520W        W75573  16.905  11.828  28.877  0.0204  0.2663 -0.3081
32521W        W75574  34.032  31.306   4.270 -0.1332 -0.0824 -0.0660
32522W        W75575  22.633  28.004   6.217  0.1876 -0.1765  0.2676
32523W        W75576  20.721  21.848   1.864  0.1886  0.3152  0.1627
32524W        W75577   5.373  10.384   8.795 -0.0131 -0.1271  0.2418
32525W        W75578   0.441   9.551   9.410  0.2959  0.1651 -0.2910
32526W        W75579  28.273  19.723   3.037 -0.1990  0.1738  0.1524
32527W        W75580   8.797   6.100   0.156  0.1032  0.3912  0.0107
32528W        W75581  20.515  17.959   5.957  0.1533  0.1974 -0.3400
32529W        W75582  21.931  16.639   2.019  0.2017  0.0612  0.0606
32530W        W75583  33.172  17.761   9.236 -0.0378  0.1720  0.0714
32531W        W75584  23.847  22.721   5.249 -0.0852 -0.0009 -0.2190
32532W        W75585  18.734   5.827   7.680  0.2188  0.0729 -0.0599
32533W        W75586   3.400   2.575   2.369  0.0606  0.1289 -0.1831
32534W        W75587  24.264  28.828   4.961 -0.1677  0.3096 -0.0672
32535W        W75588  34.410  13.974   9.946 -0.0556  0.1215  0.3028
32536W        W75589  12.277   9.474   0.272 -0.0230 -0.2177  0.0079
32537W        W75590  23.916   0.311   2.603  0.0572  0.1512  0.3296
32538W        W75591  26.204   5.381   2.031  0.0484  0.3288 -0.1982
32539W        W75592  10.346   1.299   7.769  0.0641  0.2426 -0.5913
32540W        W75593  30.897  29.505   4.589  0.3268 -0.0427 -0.0405
32541W        W75594   3.976  25.862   2.731  0.2502  0.0310  0.2548
32542W        W75595   4.692  22.997  21.847 -0.0044 -0.0141  0.0664
32543W        W75596  29.527  26.647   7.351 -0.0361  0.2166 -0.2451
32544W        W75597  33.189   0.346  17.647  0.0289  0.2240  0.1210
32545W        W75598  31.675  12.875   5.424  0.1165  0.2105  0.1377
32546W        W75599  22.042  14.271  24.714 -0.1024 -0.1304 -0.1829
32547W        W75600  24.827  18.940  25.565  0.3859 -0.2347  0.0128
32548W        W75601  28.194   3.325   9.456  0.0547  0.1685 -0.0149
32549W        W75602  28.692   9.845   5.095 -0.0793  0.1826  0.0839
32550W        W75603  10.237   3.326   0.138  0.3091  0.0562 -0.0418
32551W        W75604  25.644   9.183   6.297  0.0699 -0.0222  0.2795
32552W        W75605  19.455  13.221  26.801  0.0101  0.0924  0.0012
32553W        W75606   3.883   8.830   9.604 -0.0795  0.3817 -0.0629
32554W        W75607  28.065  29.482   4.824  0.3372  0.4665 -0.1276
32555W        W75608  24.756  11.806  27.375 -0.1565  0.2255  0.1629
32556W        W75609  21.000  28.094   1.361 -0.1438 -0.1662  0.1802
32557W        W75610   3.664   3.636   7.067 -0.3752  0.0048  0.3076
32558W        W75611   2.768  15.168   8.793  0.0278 -0.0343  0.0406
32559W        W75612   8.753   3.723   3.852  0.1423  0.0361 -0.0221
32560W        W75613  24.220  14.037   4.781  0.1759 -0.2289 -0.2743
32561W        W75614  28.428  19.327   4.596  0.2919  0.0875  0.2062
32562W        W75615  33.350   1.862   6.364 -0.1591 -0.2047  0.0004
32563W        W75616  16.347  17.963   6.391  0.0323  0.0313  0.5962
32564W        W75617   0.545  12.175  20.639  0.3285 -0.1033  0.3055
32565W        W75618  16.935   3.440   9.326  0.0693  0.2071 -0.0270
32566W        W75619  34.004  14.800  10.129  0.2655 -0.0715  0.0471
32567W        W75620   2.753  26.767  23.697  0.0015 -0.3012  0.1369
32568W        W75621  19.940  20.302  15.615  0.1560 -0.3770  0.0676
32569W        W75622   5.837   6.206   8.238 -0.1447  0.1312 -0.1416
32570W        W75623  11.333  10.374  18.175  0.0347  0.3627 -0.1504
32571W        W75624   6.755  10.895   9.070 -0.2307  0.1204 -0.1251
32572W        W75625  28.186   5.383   7.872  0.0968 -0.1225  0.0474
32573W        W75626   1.561  32.276  24.338 -0.0764  0.0933  0.0882
32574W        W75627   8.300   1.891   1.198 -0.2886  0.0577 -0.1008
32575W        W75628  23.302  21.777   0.040  0.1748 -0.0945 -0.2013
32576W        W75629  13.865  32.072   4.782  0.1234 -0.3282  0.2117
32577W        W75630  23.729  19.247   8.070 -0.1328  0.4181 -0.1837
32578W        W75631  24.802  11.507   1.253  0.1646 -0.0974 -0.0004
32579W        W75632  33.291  14.681  25.608  0.2589 -0.2357 -0.0275
32580W        W75633  34.087  11.483  26.806  0.2848  0.2386  0.0651
32581W        W75634  18.798   3.276  10.201 -0.0145  0.1822 -0.0407
32582W        W75635  26.080   8.194   4.722  0.0007 -0.2248  0.1651
32583W        W75636  31.592  17.420   5.615  0.0310  0.1171  0.1100
32584W        W75637  29.248   4.368  10.220 -0.0333 -0.1052  0.2140
32585W        W75638  30.998   4.606  26.363 -0.1366 -0.5377 -0.1796
32586W        W75639  12.470   0.400   5.236  0.0063 -0.2785 -0.0438
32587W        W75640  33.210   6.730  25.837 -0.0674 -0.0610  0.1230
32588W        W75641  18.684   6.689  21.268  0.0689 -0.2927  0.2795
32589W        W75642  29.552  10.171   9.979  0.0087 -0.1321 -0.1705
32590W        W75643  24.180  33.148   5.439  0.4909  0.1436  0.1126
32591W        W75644  32.438   3.389  23.371  0.1566 -0.4214 -0.2733
32592W        W75645  22.544  18.271  16.513 -0.0622 -0.1100  0.1918
32593W        W75646  20.974  33.814   7.599  0.0349  0.0791 -0.5243
32594W        W75647  30.977  13.008   4.243 -0.3272 -0.0770  0.0266
32595W        W75648  15.979  11.049  15.674 -0.0195 -0.0236  0.2203
32596W        W75649  33.688  17.694   2.450  0.0275  0.2614 -0.1199
32597W        W75650  21.143   5.621   7.514  0.2208 -0.0937 -0.2232
32598W        W75651  31.917  14.616   6.010  0.1036 -0.1631 -0.0391
32599W        W75652  31.989  13.736  23.049  0.2294 -0.0111 -0.0362
32600W        W75653  20.108  21.389   7.391 -0.1282  0.1445  0.3303
32601W        W75654  24.805   8.969  17.837  0.2534 -0.1824 -0.0716
32602W        W75655  18.088   7.493  20.269 -0.0219 -0.4197 -0.3725
32603W        W75656  26.595  16.097   2.049 -0.0170  0.2504 -0.0188
32604W        W75657  32.251   2.364   3.744 -0.2204 -0.1459  0.0878
32605W        W75658   6.276   0.582   3.921  0.2282  0.2586 -0.0051
32606W        W75659  24.012   6.118   4.121 -0.2385 -0.2249 -0.2724
32607W        W75660  32.924  14.664   8.732 -0.0872 -0.0109  0.3225
32608W        W75661  24.633  23.498   1.747  0.3383  0.3489  0.0209
32609W        W75662  12.512  30.202   9.737  0.3473 -0.1142  0.0724
32610W        W75663   0.033  27.461  28.291  0.2080 -0.0055 -0.0725
32611W        W75664   4.643  32.893  26.068  0.1704 -0.4525 -0.0791
32612W        W75665  27.122  10.668   3.603 -0.2326  0.2994  0.2559
32613W        W75666  21.135  10.455   3.869  0.0010  0.2147 -0.0856
32614W        W75667  33.644  33.948   0.191 -0.1644 -0.0682  0.0089
32615W        W75668  25.302  15.545  21.368 -0.1510 -0.1794 -0.2272
32616W        W75669   6.612  26.375   8.027 -0.0461 -0.1752 -0.0621
32617W        W75670  20.368  16.300  28.153  0.1906 -0.1641 -0.2825
32618W        W75671  11.919   1.975  17.477  0.1248 -0.0987 -0.0850
32619W        W75672   3.158   6.527   7.964  0.0250 -0.0596 -0.3157
32620W        W75673   2.687   2.880   0.143  0.0422  0.2106 -0.0306
32621W        W75674  30.019  14.976  28.084 -0.4403 -0.0112 -0.0328
32622W        W75675  22.838  16.434  17.362 -0.1619 -0.0002  0.2215
32623W        W75676   6.280  10.248  27.524  0.0757 -0.2241 -0.0659
32624W        W75677  25.183   7.481  15.651 -0.1217 -0.1231  0.0139
32625W        W75678  32.156  17.997   7.886 -0.1422 -0.2632  0.2280
32626W        W75679   5.609  12.433  24.444 -0.0302  0.0059  0.1212
32627W        W75680  26.211  20.001  19.270 -0.2232  0.1690  0.0517
32628W        W75681   4.647  17.642   7.041 -0.0090 -0.1768  0.1348
32629W        W75682   7.790  19.233   8.158 -0.1080  0.0024  0.0954
32630W        W75683   1.180   7.596   5.363  0.1224 -0.1142  0.1258
32631W        W75684   7.228   7.358  21.561  0.0834  0.1965  0.0545
32632W        W75685   4.562  10.162  27.807 -0.3643  0.0655 -0.0075
32633W        W75686  26.132   3.455   9.772 -0.3652 -0.1148  0.0627
32634W        W75687  15.994   3.825   4.929  0.1120  0.0374  0.1682
32635W        W75688  10.648   7.857   5.165  0.0118  0.3929 -0.3229
32636W        W75689   7.065  31.125   6.744  0.0461  0.2278 -0.1375
32637W        W75690  27.813  18.139   6.749  0.0159  0.2287 -0.0739
32638W        W75691   1.950  22.097   7.436  0.2807 -0.0815  0.1559
32639W        W75692  18.951  28.004  10.062 -0.0514 -0.2659 -0.1150
32640W        W75693  21.507  15.812   7.438  0.0622  0.2201 -0.0177
32641W        W75694  27.496  15.721   6.355  0.4926  0.3361  0.0583
32642W        W75695  25.122  14.389   0.039 -0.1755  0.3368 -0.0794
32643W        W75696  24.304   5.327  29.157  0.3385 -0.3616  0.3003
32644W        W75697  18.816   8.960   9.103 -0.2688 -0.2168 -0.3184
32645W        W75698  18.533   9.514   5.965  0.0679  0.1964  0.0180
32646W        W75699   4.393  10.813   6.101 -0.0906 -0.1443  0.4899
32647W        W75700  32.055  30.576  28.980 -0.1437 -0.2181  0.0328
32648W        W75701  34.200   5.070  26.147  0.0093 -0.0261  0.0023
32649W        W75702  24.756   0.517   3.424  0.1091 -0.1497  0.0538
32650W        W75703  25.309  28.637   8.791  0.0486 -0.2294  0.0567
32651W        W75704  33.253   6.562   4.221 -0.1067  0.2432 -0.0549
32652W        W75705  22.733  12.699  22.188 -0.1331 -0.0074 -0.1172
32653W        W75706  26.299   0.196  26.281  0.0525 -0.0239  0.3818
32654W        W75707  18.713   6.352   1.371 -0.2371  0.1768  0.0074
32655W        W75708  24.184  24.922   5.467 -0.0706 -0.0619 -0.0538
32656W        W75709  33.036   2.641   5.061 -0.2674 -0.0508 -0.0577
32657W        W75710  23.019   7.106   0.615 -0.4072  0.3714 -0.1060
32658W        W75711  15.767  33.062   2.549 -0.1275 -0.2101 -0.0184
32659W        W75712  32.932  12.535   7.434 -0.0151  0.0055  0.0593
32660W        W75713  22.059  27.809  10.630 -0.1180 -0.3770 -0.0462
32661W        W75714   8.751  23.601   8.205 -0.0514  0.1311 -0.0656
32662W        W75715  34.222  32.342   8.097  0.3492  0.1048  0.0885
32663W        W75716   8.261  10.069   0.997 -0.0828 -0.2986  0.0358
32664W        W75717  19.660  18.028   1.363  0.0157 -0.1809 -0.0457
32665W        W75718  11.720  15.156  26.542  0.0538 -0.0433 -0.0584
32666W        W75719  33.543   2.145  28.739 -0.0171  0.0810  0.0145
32667W        W75720  34.455   6.384   8.957 -0.2367  0.2333  0.1238
32668W        W75721  29.535  23.922   0.676  0.1348  0.1344 -0.1298
32669W        W75722  21.826  10.735   1.371 -0.0970 -0.3720  0.0507
32670W        W75723  18.805   5.759   8.754 -0.0311 -0.0310 -0.1321
32671W        W75724  20.608  17.941  19.515 -0.1366  0.0671  0.2634
32672W        W75725  24.470   6.248   8.861 -0.2697 -0.2834 -0.1605
32673W        W75726  18.674  34.152   7.470 -0.1073  0.1215  0.1176
32674W        W75727  19.336  29.920  28.869 -0.0731 -0.2367 -0.3750
32675W        W75728  30.067  15.028   5.460  0.2966 -0.3378  0.1776
32676W        W75729  31.445  17.100   4.090 -0.2450  0.1329 -0.2407
32677W        W75730  34.037  13.822   8.779 -0.2639  0.1120  0.0346
32678W        W75731  25.413   1.310   2.177 -0.0070 -0.0579  0.5890
32679W        W75732  29.546  20.335   8.150  0.2520  0.0399 -0.3827
32680W        W75733  31.906   4.729   9.078  0.1413 -0.1090 -0.0553
32681W        W75734  32.400  15.630   2.653  0.3922 -0.2837 -0.0647
32682W        W75735  21.391  11.992   1.155 -0.2500  0.0687  0.2947
32683W        W75736  32.196   2.607   9.804  0.0069 -0.0228 -0.0997
32684W        W75737  31.456   2.239   9.221 -0.1112  0.2411 -0.3484
32685W        W75738   1.184   1.875   7.834  0.1840 -0.0167 -0.0168
32686W        W75739  24.098   5.469  28.683 -0.0012  0.1092 -0.2290
32687W        W75740   0.601   8.561  25.736 -0.0428  0.1471 -0.3116
32688W        W75741  31.110  33.375   9.554  0.1113  0.1343 -0.3274
32689W        W75742  14.351  30.747   3.788 -0.0954 -0.0331 -0.0269
32690W        W75743   4.188  16.454  22.294 -0.1006  0.1086 -0.1980
32691W        W75744  34.567   9.751  10.021 -0.2238  0.2090  0.2579
32692W        W75745  17.513   6.468   6.472  0.2203  0.2858 -0.0032
32693W        W75746  27.503   6.092   9.597  0.1148 -0.1145  0.0823
32694W        W75747  28.716  31.943   2.553 -0.0729 -0.1706 -0.4124
32695W        W75748  23.886  19.338  24.380  0.1049 -0.1689  0.0965
32696W        W75749  20.139   1.743   5.259  0.1052 -0.0985 -0.3219
32697W        W75750  16.813  16.047   9.474  0.1335 -0.1625 -0.0954
32698W        W75751   6.540   2.105   7.717 -0.2767 -0.1145 -0.4205
32699W        W75752  17.955  19.507  28.539 -0.0491 -0.2065 -0.0590
32700W        W75753  21.515  12.790   6.474  0.0130  0.4117  0.0977
32701W        W75754   4.602   9.356   6.340  0.1467 -0.0740  0.4279
32702W        W75755  26.172  19.959   2.153 -0.0377  0.0342 -0.0516
32703W        W75756  29.876  10.923   8.349 -0.1337 -0.1381 -0.0299
32704W        W75757  12.129   9.285   3.590 -0.3413  0.1733 -0.1987
32705W        W75758  18.958   1.658   9.801 -0.1883 -0.4574 -0.0661
32706W        W75759  13.453   1.190   6.117  0.2149  0.1786  0.0548
32707W        W75760  12.496  11.576   8.593  0.0518  0.0625 -0.0869
32708W        W75761  33.336   0.205   3.358 -0.1526 -0.1611  0.0766
32709W        W75762   2.836  17.336  24.574 -0.0273  0.1465  0.2941
32710W        W75763  30.528  34.431   9.572 -0.1025 -0.0807 -0.0361
32711W        W75764   8.182   4.281   2.443  0.1175 -0.0362 -0.3527
32712W        W75765   9.710   2.086   8.902  0.1038 -0.0126  0.2259
32713W        W75766  14.343   4.216   6.927 -0.0045  0.0748  0.2257
32714W        W75767  31.769  20.677   6.346  0.3948 -0.3322  0.3094
32715W        W75768  20.006   7.414  10.010  0.0126  0.1770  0.2174
32716W        W75769  29.352  28.409   5.494 -0.0326  0.3313 -0.1005
32717W        W75770  26.218  22.486   3.656  0.0515  0.2123 -0.0555
32718W        W75771  22.957  23.870  26.620  0.1387  0.3965  0.2262
32719W        W75772  17.649  20.145   1.854  0.2739 -0.1378  0.2884
32720W        W75773  29.426   2.271   3.421 -0.1297  0.1404  0.0250
32721W        W75774  24.062  19.418   7.726 -0.0244  0.0148 -0.3045
32722W        W75775  17.967  20.282  27.258 -0.0761  0.3499  0.1075
32723W        W75776  30.834  33.285   1.470 -0.1747 -0.1273 -0.0001
32724W        W75777  25.669   6.812   7.007  0.1410  0.3228 -0.2345
32725W        W75778  27.800  16.208   3.193  0.0383 -0.1603 -0.2197
32726W        W75779  22.393   7.181  26.149  0.0080 -0.0948 -0.0937
32727W        W75780  21.733   3.248   2.872 -0.0477  0.0648  0.0155
32728W        W75781   3.278   1.556  27.266 -0.0568 -0.2736  0.2048
32729W        W75782  24.768  10.355  26.151  0.0929  0.0371 -0.1878
32730W        W75783   1.778   1.850   2.895  0.1249 -0.0392  0.3603
32731W        W75784  27.475  10.822  25.659 -0.0495  0.1976 -0.1238
32732W        W75785  28.704   9.340   8.681 -0.5389 -0.0205 -0.2186
32733W        W75786  31.972   2.700  26.868 -0.2161 -0.1107 -0.0059
32734W        W75787   6.604   0.394   9.862 -0.0130  0.0526  0.3371
32735W        W75788   0.949  22.236   3.952  0.1892 -0.2929 -0.3255
32736W        W75789  34.586  29.479  22.332  0.2148  0.0174  0.0013
32737W        W75790  31.561   9.525   8.366  0.0379  0.2542 -0.3006
32738W        W75791   9.371   4.398  10.634  0.0942  0.1586 -0.2093
32739W        W75792  28.109  10.495   7.705  0.2183 -0.1078  0.1341
32740W        W75793  33.344  34.308   8.050  0.2364  0.1851  0.0636
32741W        W75794  20.107  20.790   3.234  0.0561  0.1235 -0.3091
32742W        W75795   5.066  18.248   9.206  0.5458 -0.3865  0.2201
32743W        W75796  32.911  13.924   2.621  0.2664 -0.2670 -0.0276
32744W        W75797  26.794  12.270  10.772 -0.0508  0.2247  0.1750
32745W        W75798  19.344   6.843  28.943 -0.0039  0.1719  0.0653
32746W        W75799  19.699   9.108  10.069  0.1077  0.0001 -0.2032
32747W        W75800   0.555  10.935   5.571  0.2775  0.2427  0.1645
32748W        W75801   2.909  16.806  14.098 -0.0013 -0.1842  0.1656
32749W        W75802  19.843   9.171  26.855  0.1758 -0.2838 -0.1907
32750W        W75803  13.171   0.745  29.091  0.1104  0.0723 -0.1661
32751W        W75804   2.649  31.215  28.463 -0.0227  0.1125  0.0803
32752W        W75805  33.243   8.874  10.740  0.0722  0.1692 -0.2249
32753W        W75806  22.327   5.723   7.157  0.1206 -0.2380 -0.2461
32754W        W75807  32.543  23.268   8.547 -0.0676 -0.2241  0.1459
32755W        W75808  13.330   3.758  23.606  0.2177 -0.2173  0.2012
32756W        W75809   4.071  20.271   8.959  0.0492 -0.0411  0.2848
32757W        W75810  23.509   7.803   8.659 -0.2815  0.0730 -0.2912
32758W        W75811   5.617  18.545   6.052 -0.0928  0.0668  0.0208
32759W        W75812   8.194  20.352   0.703  0.1944  0.0751 -0.0125
32760W        W75813  25.479   6.998   7.398  0.1839  0.2878 -0.1084
32761W        W75814  27.101  16.073   1.253  0.0028 -0.0298  0.4014
32762W        W75815  30.112  32.920   1.999  0.1197  0.3214 -0.0549
32763W        W75816  31.000   0.681   5.430 -0.2266  0.0761  0.0364
32764W        W75817   0.029   1.620   9.041 -0.3092  0.1703 -0.2504
32765W        W75818  17.227   9.014  25.647  0.1212  0.2120  0.0732
32766W        W75819  10.728  30.346   0.017 -0.0204 -0.1099  0.0148
32767W        W75820  27.265  14.856   6.042 -0.1284 -0.3849 -0.1394
32768W        W75821  27.251  21.488   9.643 -0.0473 -0.0193  0.0917
32769W        W75822  29.250  12.935   8.856  0.1828  0.3980  0.1643
32770W        W75823  22.775  11.326  25.984  0.0342  0.0235 -0.1630
32771W        W75824  28.032  32.666   8.201 -0.0571  0.2035 -0.0998
32772W        W75825  17.121  19.532   5.953 -0.1808  0.2705  0.1576
32773W        W75826  29.625   2.634   9.584 -0.2069 -0.1704 -0.1656
32774W        W75827  33.729   3.646  23.981  0.1534  0.1590  0.0399
32775W        W75828  13.383   7.600   8.619 -0.0554 -0.1006  0.1557
32776W        W75829  20.254   8.690  25.964  0.5632 -0.1542 -0.0782
32777W        W75830  30.611  26.960   3.504  0.0957  0.0367 -0.1340
32778W        W75831  10.772  13.699   5.073 -0.1936 -0.4762  0.0020
32779W        W75832   4.873  12.311   9.057 -0.1294  0.0034 -0.1588
32780W        W75833  31.740   7.359  18.655 -0.1611  0.0147  0.1660
32781W        W75834   3.833  10.177  10.037  0.1275  0.1600 -0.1225
32782W        W75835  31.615   6.523   1.812  0.3945  0.1182  0.3553
32783W        W75836   1.176  31.023   6.733 -0.0877  0.1544 -0.3283
32784W        W75837  22.626  29.726   0.385  0.0931 -0.3449  0.0643
32785W        W75838  32.180  18.316   7.356 -0.0506  0.0534  0.0895
32786W        W75839  33.074  24.505   8.047 -0.2510  0.0370  0.0542
32787W        W75840  21.660  32.076   2.836  0.1255  0.1755  0.0849
32788W        W75841  22.751   7.008   6.852 -0.0666  0.1660  0.2039
32789W        W75842  30.959  13.529   1.176  0.1299 -0.2708  0.4047
32790W        W75843  27.132  19.281   6.434 -0.0741  0.1787  0.1416
32791W        W75844  28.221  10.752  26.107  0.0993  0.0946 -0.0839
32792W        W75845  17.357  25.048  25.382  0.0081 -0.4849  0.0809
32793W        W75846  14.508  18.944  27.930 -0.1652 -0.0575  0.1680
32794W        W75847  21.861  13.442   9.902  0.1813  0.2090  0.2672
32795W        W75848  28.833   8.033  29.107  0.5155 -0.0081 -0.1214
32796W        W75849  33.664  17.504   7.461  0.0612 -0.0501 -0.3672
32797W        W75850  33.394   9.589   6.843  0.0687 -0.2473  0.2680
32798W        W75851  22.945  14.262  25.085  0.3792  0.1685  0.6092
32799W        W75852  25.849  30.577   9.609 -0.0255 -0.0559 -0.1020
32800W        W75853  33.782   1.884   2.220  0.1094 -0.0816  0.0989
32801W        W75854   0.588   8.610   3.727 -0.0358 -0.0596 -0.2826
32802W        W75855  16.254  10.316   7.371  0.0386 -0.1291 -0.1633
32803W        W75856  14.660  12.524  23.453  0.1463  0.0863  0.2865
32804W        W75857  32.584   1.883   8.279 -0.1279 -0.3164 -0.1960
32805W        W75858  23.469  22.425   0.717  0.2682 -0.0464  0.0493
32806W        W75859  14.708  11.004   9.334 -0.3028 -0.2034 -0.1914
32807W        W75860  18.956  12.667   7.212 -0.3684  0.1462  0.0885
32808W        W75861  34.579   0.378   6.561  0.1849  0.2197  0.0829
32809W        W75862  13.468  16.128   0.579  0.0564 -0.0671 -0.0813
32810W        W75863  20.123   9.622  28.186  0.0692  0.1580  0.0087
32811W        W75864  27.728   4.223   9.518  0.0092 -0.0409 -0.1145
32812W        W75865   2.756   1.779   1.551  0.0994  0.1472  0.0371
32813W        W75866  12.624  14.862   8.543 -0.0733 -0.2629 -0.0138
32814W        W75867  25.822   5.473   4.379  0.3239 -0.0565 -0.0213
32815W        W75868  31.279  12.718   1.594 -0.1983  0.1086 -0.0061
32816W        W75869  30.111   8.739  10.364  0.0840 -0.1873  0.2520
32817W        W75870  29.753  26.844   4.562  0.1463  0.1094 -0.1820
32818W        W75871  27.455  12.337   9.376 -0.3279  0.2819  0.1280
32819W        W75872  24.531  15.424  13.724  0.2946  0.2815 -0.0602
32820W        W75873  28.493   1.428   0.994  0.1132 -0.1239 -0.4413
32821W        W75874  19.682   6.162   0.667  0.2444 -0.0356 -0.0349
32822W        W75875  27.319   6.269  10.052 -0.1556 -0.4165 -0.0791
32823W        W75876   3.211  34.418   7.639  0.0346 -0.0337 -0.0647
32824W        W75877  27.225  33.897   9.771 -0.0828  0.0522  0.2057
32825W        W75878  26.369  26.943  27.406  0.1825  0.0837 -0.1093
32826W        W75879  14.005  33.378  28.133  0.0646  0.4117  0.3803
32827W        W75880   3.337   0.653   7.312 -0.1099 -0.2060 -0.0046
32828W        W75881  25.833   5.638   8.736  0.1284 -0.0892 -0.1757
32829W        W75882  20.166  30.788   7.530  0.1006  0.0051 -0.3078
32830W        W75883  28.167   3.818  24.718 -0.2051 -0.1560 -0.1247
32831W        W75884  26.970  26.165  10.652 -0.0780 -0.2629 -0.1440
32832W        W75885  30.586  34.359   4.288 -0.0786 -0.2161 -0.2700
32833W        W75886  13.020   4.686   7.229 -0.2116 -0.0399 -0.2016
32834W        W75887  27.986  34.278   6.052 -0.1410  0.0382 -0.1596
32835W        W75888  17.893  20.590   2.673 -0.0610 -0.1044  0.0558
32836W        W75889  15.804  22.288  23.098  0.0007 -0.0232  0.2716
32837W        W75890  27.481  10.329   6.513 -0.0047  0.1514  0.0408
32838W        W75891   1.745  10.031   2.578 -0.2163 -0.1686 -0.0925
32839W        W75892  12.415  21.146  27.690  0.1481  0.1420 -0.0338
32840W        W75893   1.223  32.772   3.868  0.1497 -0.2024 -0.0877
32841W        W75894  20.511   9.321   9.537  0.0143 -0.0078  0.1278
32842W        W75895   2.520   2.219   2.186 -0.0410 -0.3861 -0.0299
32843W        W75896   8.793  14.534   8.446  0.1312  0.0209  0.0772
32844W        W75897  31.571  10.302   6.965  0.1345  0.4823 -0.1249
32845W        W75898  30.374  11.522  20.701  0.3201  0.0661 -0.0722
32846W        W75899   5.327  29.027   7.124 -0.4069  0.2231  0.1608
32847W        W75900  32.890  10.262   8.399  0.1157 -0.3147 -0.0655
32848W        W75901  28.673   2.648   3.196  0.1133  0.1256 -0.0811
32849W        W75902  26.728  10.047  25.824  0.0718  0.0522 -0.3712
32850W        W75903  28.826   3.101   6.775  0.2628  0.3342  0.4338
32851W        W75904  31.214   2.187  28.903  0.0534  0.0202 -0.1106
32852W        W75905  15.265   4.121   6.646 -0.2421 -0.0352  0.3774
32853W        W75906  12.387  31.455   0.119  0.0600 -0.3210  0.1367
32854W        W75907  12.361  12.377   6.996  0.3248  0.0477 -0.1669
32855W        W75908  23.705  10.793   2.552 -0.1123 -0.0230  0.0678
32856W        W75909  30.390  16.765   9.120  0.2947  0.0261 -0.1948
32857W        W75910  15.475  11.799  23.168  0.1237  0.5263  0.0955
32858W        W75911  17.804   9.799  28.758  0.2041 -0.1403  0.0663
32859W        W75912  26.825   5.961  25.525 -0.1207 -0.0308 -0.2064
32860W        W75913  16.877  34.359   5.184 -0.2084 -0.2815  0.2896
32861W        W75914   5.144  19.375   6.816 -0.1299 -0.0874 -0.0813
32862W        W75915  18.391   3.733   6.522  0.0045 -0.0017 -0.1361
32863W        W75916   0.130  31.312  25.186 -0.1677  0.4228 -0.0015
32864W        W75917  28.578   1.060   7.672  0.1205 -0.2518  0.0719
32865W        W75918  18.522  31.555   1.818 -0.1398 -0.0882  0.0269
32866W        W75919  29.297   4.382  28.646  0.0614  0.0106 -0.3040
32867W        W75920  29.902   7.067   6.498 -0.1689 -0.1355 -0.1391
32868W        W75921  27.073   5.536   6.479 -0.2801  0.2160 -0.0720
32869W        W75922  14.585   0.321   4.314 -0.0322  0.1616 -0.1752
32870W        W75923  25.535  10.578   8.273  0.1065 -0.3289 -0.0171
32871W        W75924  27.783  15.089  17.052  0.3006 -0.0126  0.1387
32872W        W75925  16.070  23.215   1.595  0.2620 -0.0215  0.0443
32873W        W75926  27.316  13.218  25.001 -0.2137  0.1498 -0.4529
32874W        W75927  27.533   1.985   7.890  0.2412  0.2287  0.0605
32875W        W75928   9.903  10.027  28.851  0.1213  0.3221 -0.1128
32876W        W75929  27.260   5.697   1.420 -0.1402  0.1352 -0.2227
32877W        W75930  10.500  19.390   9.486 -0.0610 -0.1102  0.0663
32878W        W75931  23.663  18.282   6.360  0.0230 -0.0314 -0.1967
32879W        W75932  24.543  18.211   4.276 -0.0110  0.1826  0.3321
32880W        W75933   1.725  31.175   9.352  0.2895  0.2301 -0.0263
32881W        W75934   8.581  28.582   8.271  0.3707  0.0777 -0.2881
32882W        W75935   4.275  31.827  22.906  0.2896  0.4921 -0.2549
32883W        W75936  22.106  18.879   5.641 -0.2099  0.2132  0.0936
32884W        W75937   2.334   3.753   4.524  0.0717 -0.0332  0.0813
32885W        W75938  26.636  30.382   6.077  0.4013 -0.0184  0.1655
32886W        W75939  32.080  15.749   8.189  0.0285  0.0131 -0.0715
32887W        W75940  30.049  32.435   6.003  0.0112 -0.1412  0.0750
32888W        W75941  27.171  25.170  27.872 -0.0876 -0.0807  0.1649
32889W        W75942  30.155  13.707  21.015 -0.1026  0.0066 -0.0215
32890W        W75943  32.761   5.108  26.993  0.2555 -0.0040 -0.0275
32891W        W75944   1.231  27.497  22.661 -0.2960 -0.0978  0.0395
32892W        W75945  27.415  12.237  10.277 -0.1458 -0.0056 -0.1843
32893W        W75946  25.616   4.984  25.656 -0.1498 -0.0639 -0.0857
32894W        W75947  22.348  12.505   1.224 -0.0968  0.0802  0.1221
32895W        W75948  30.649  23.110   9.923 -0.1706  0.0215 -0.1117
32896W        W75949  32.974  32.850   0.558  0.1345  0.1026 -0.1783
32897W        W75950  16.744  11.125  26.129 -0.0978  0.0633 -0.1779
32898W        W75951  30.945  21.793   4.709  0.2096  0.1502 -0.0893
32899W        W75952  13.531  31.828  25.323  0.0772  0.0941 -0.0691
32900W        W75953  18.209  33.660   3.607 -0.1050  0.0776  0.1200
32901W        W75954  19.079   3.104   7.356  0.3880 -0.1404  0.0670
32902W        W75955  26.018   6.498  25.874 -0.0055  0.3453 -0.0196
32903W        W75956  32.576   3.369  29.060  0.2766  0.0387 -0.1997
32904W        W75957   5.065  11.627   0.042  0.2259  0.0666 -0.1680
32905W        W75958  15.905  32.275  28.541 -0.1345 -0.2685 -0.0336
32906W        W75959  25.713  16.198   5.478  0.0126  0.1455 -0.0391
32907W        W75960   1.945  27.441   3.984 -0.1292  0.0419  0.1751
32908W        W75961  28.435  23.571  15.517  0.0892 -0.0107  0.0526
32909W        W75962  32.264  18.390   8.567  0.0933 -0.0033  0.0086
32910W        W75963   7.702  11.523  27.881 -0.2823  0.2458  0.3981
32911W        W75964  19.090   6.677   1.327 -0.2274 -0.2468  0.2029
32912W        W75965  22.340  30.990   3.859 -0.1066 -0.1905 -0.0708
32913W        W75966  26.529  33.055   6.206  0.0837 -0.1872  0.1918
32914W        W75967   2.026   2.289   2.711  0.1669 -0.0767  0.2440
32915W        W75968  21.419  34.174   2.555  0.1430 -0.1596  0.1294
32916W        W75969   6.457  15.484  24.598 -0.6051 -0.0792  0.2966
32917W        W75970  17.643  28.578   7.809  0.0120 -0.0994  0.0963
32918W        W75971  25.681  10.309   9.524  0.0293  0.0618 -0.0168
32919W        W75972   3.912  14.365   9.616  0.1999 -0.1720  0.2517
32920W        W75973  30.958  17.393   6.127  0.1816  0.0890 -0.0997
32921W        W75974  31.907   5.386  28.206  0.1362 -0.3684 -0.0644
32922W        W75975  32.043  29.633  25.453  0.3120  0.1097  0.0268
32923W        W75976  27.141  18.197   7.282 -0.2258  0.0838  0.2005
32924W        W75977  29.402  34.646   5.152 -0.1439 -0.0051  0.3543
32925W        W75978   2.156  14.388  27.892  0.2215  0.1160  0.0194
32926W        W75979  17.153  32.957   9.714  0.2599  0.1818 -0.0367
32927W        W75980  26.121  33.883   9.199  0.0588 -0.2684 -0.1540
32928W        W75981   8.523   9.973   4.352 -0.0855  0.3212  0.1363
32929W        W75982  28.246  15.620   8.975 -0.4222 -0.0517 -0.3203
32930W        W75983  27.828  24.164  25.100  0.1875 -0.3355  0.1000
32931W        W75984  30.242  14.532   4.602 -0.0915 -0.1189 -0.0015
32932W        W75985   0.072  34.660  26.642 -0.1661  0.0485 -0.1142
32933W        W75986  28.390  14.271   6.408  0.0916 -0.0434  0.0045
32934W        W75987  13.737  12.018  28.491  0.1118  0.0904 -0.1383
32935W        W75988   0.330   3.716   7.761 -0.2002 -0.1202  0.3759
32936W        W75989   8.881   8.664   5.606  0.1196  0.0218  0.0529
32937W        W75990  21.324   8.511  24.755 -0.0521  0.0927 -0.1388
32938W        W75991  32.180  11.224   1.894  0.0357  0.1523  0.0175
32939W        W75992  20.019  29.553  28.686  0.2951 -0.1208 -0.2111
32940W        W75993   2.410   3.314   4.811 -0.1245 -0.1583  0.1984
32941W        W75994   9.256   2.384   5.536  0.0557 -0.0025 -0.0721
32942W        W75995  22.715   8.071   1.836  0.1133  0.0074 -0.1616
32943W        W75996  30.486   9.842   0.117 -0.1442  0.1667 -0.1840
32944W        W75997  16.227  23.866   7.971  0.0871 -0.1150 -0.3581
32945W        W75998  24.202  18.586  24.001  0.3153  0.3303 -0.3052
32946W        W75999  20.837   8.606  14.791  0.2646 -0.1605 -0.2910
32947W        W76000  21.710  18.163   7.900 -0.0195  0.0671 -0.2374
32948W        W76001  12.707  32.411   2.904  0.1324  0.2252  0.0385
32949W        W76002  22.354  13.708  25.420 -0.0942  0.0315  0.0233
32950W        W76003  28.210  31.061  27.253  0.0358  0.2015  0.0855
32951W        W76004  24.983  34.230  10.382 -0.0098  0.2319  0.0509
32952W        W76005  33.632   3.191  20.099  0.2377  0.0902 -0.0912
32953W        W76006   0.189  31.075   4.521  0.1228 -0.3019  0.2785
32954W        W76007  23.459   3.784  17.554  0.1833 -0.2202  0.0308
32955W        W76008  10.471   0.592  27.510 -0.1354 -0.1384  0.1138
32956W        W76009  28.231  34.588  26.938 -0.2160 -0.0606  0.2691
32957W        W76010   5.250  15.844  26.476  0.1763 -0.1761 -0.2162
32958W        W76011  16.098  11.129  24.737 -0.0380 -0.1263  0.2198
32959W        W76012  20.368   6.411   2.063 -0.3950  0.1369  0.0310
32960W        W76013  16.948  21.149  24.508 -0.0216  0.3322 -0.2297
32961W        W76014  16.083  11.786   4.971 -0.3845  0.0770  0.1011
32962W        W76015  32.115  29.644   4.073  0.1518  0.2394  0.0685
32963W        W76016   8.399  17.977   8.435 -0.2508  0.1513  0.2685
32964W        W76017  34.023  24.696   8.043 -0.1072  0.2283  0.1604
32965W        W76018  22.581   0.520  28.199  0.1021 -0.1720  0.0283
32966W        W76019  33.101  16.233   0.870 -0.3671  0.5075  0.5021
32967W        W76020  28.531  13.084   4.719  0.0303  0.1697  0.5024
32968W        W76021  18.174  12.258  27.986 -0.1736 -0.3364 -0.1396
32969W        W76022  29.420   4.547   4.604  0.1690 -0.0890  0.4159
32970W        W76023   7.743   0.972   2.633 -0.1039  0.0405  0.0657
32971W        W76024  25.010  10.425   8.878  0.0157  0.0226  0.4410
32972W        W76025   0.783  18.645   8.105 -0.2365 -0.1384  0.1237
32973W        W76026  26.418   6.162   5.285  0.1622 -0.1615  0.2037
32974W        W76027  19.100   8.445  16.790 -0.1793  0.1631  0.2447
32975W        W76028  30.422  21.849   4.528  0.1242 -0.0801  0.0841
32976W        W76029  25.952   2.220  28.499  0.1935  0.1102  0.1161
32977W        W76030  20.783  26.403  27.492 -0.1542  0.0019  0.0698
32978W        W76031  10.285  17.503   0.699  0.2538  0.1220 -0.2087
32979W        W76032  31.496  18.654  28.069 -0.2934 -0.0482 -0.3077
32980W        W76033  23.503  34.684   7.007  0.0003  0.1763  0.1908
32981W        W76034   3.143  14.321   8.374 -0.1911 -0.0238  0.2361
32982W        W76035  19.549  11.835  26.360 -0.0877 -0.1691 -0.1261
32983W        W76036  27.692  14.824   4.343  0.2310  0.1926  0.1432
32984W        W76037   3.007  14.435  18.188 -0.1090  0.0467 -0.1060
32985W        W76038  20.565   3.741   8.931  0.1554  0.1952 -0.0252
32986W        W76039  30.063  17.388   0.547  0.1084 -0.0510  0.2462
32987W        W76040  28.056  34.278   9.291  0.2643  0.0494 -0.0665
32988W        W76041  25.518   6.890   6.494  0.1772 -0.0403  0.1768
32989W        W76042  12.809  18.049  25.980 -0.1471  0.1848  0.0396
32990W        W76043  26.688  22.274   8.709 -0.1229 -0.0864 -0.1442
32991W        W76044  18.758  13.578   3.067 -0.0123 -0.0177 -0.1053
32992W        W76045  19.349  32.861   1.740  0.0517  0.1606  0.0085
32993W        W76046  14.051  15.801  27.988  0.1793 -0.0656  0.3376
32994W        W76047  18.879  12.660  16.336  0.0458  0.1537  0.2157
32995W        W76048  34.192   8.504   3.129 -0.1090 -0.1804  0.0275
32996W        W76049  25.459  31.147   2.557  0.1623  0.0320  0.1906
32997W        W76050  30.203   5.711  22.500 -0.2089  0.0971  0.0447
32998W        W76051  24.902  16.171   7.323  0.0265  0.1135  0.4874
32999W        W76052  13.713   9.232   3.196 -0.0890  0.0039  0.0892
33000W        W76053  24.290  29.462   0.630 -0.1197  0.0777 -0.1922
33001W        W76054  10.901  21.344  27.705  0.2053 -0.1467  0.0295
33002W        W76055  22.669  25.160   8.943 -0.1880 -0.2410 -0.1144
33003W        W76056  24.162  14.487  20.998 -0.2730  0.2897 -0.1187
33004W        W76057   8.461   1.017   1.194 -0.3661  0.1318  0.1646
33005W        W76058  24.371  13.016  13.558 -0.3155  0.0332  0.0138
33006W        W76059  24.978  14.060   8.499  0.1643  0.0700  0.0446
33007W        W76060  23.430   7.902   2.626  0.1874  0.2796 -0.0291
33008W        W76061   2.766  18.422   6.568  0.2128 -0.3794  0.0053
33009W        W76062  24.942   7.214  20.316  0.2212  0.0988  0.1243
33010W        W76063  12.071  19.265  28.338 -0.1715 -0.1269  0.0275
33011W        W76064  25.455  27.119   7.203  0.2554 -0.1909  0.0431
33012W        W76065   6.401  10.883   6.431  0.1086 -0.0801  0.0263
33013W        W76066  28.588   3.997  29.024  0.1960  0.4276 -0.0535
33014W        W76067  32.383  24.631   3.595  0.1435  0.0770 -0.0393
33015W        W76068   5.244   7.019  10.179  0.3169 -0.0588 -0.3414
33016W        W76069   3.660   7.326  22.566  0.0188 -0.1360 -0.2794
33017W        W76070  22.200  33.985   8.835 -0.0243 -0.0874 -0.0277
33018W        W76071  24.636   9.038  28.315  0.1224 -0.0032 -0.0204
33019W        W76072  30.278  14.173  22.590 -0.0678  0.0696 -0.2639
33020W        W76073   4.115  20.535   4.847  0.0015  0.0003  0.0049
33021W        W76074   9.529  32.085  20.746  0.2121  0.0867  0.4334
33022W        W76075  19.412  18.012   8.189 -0.0380  0.0270 -0.2265
33023W        W76076  32.135  30.029  16.213 -0.1506  0.2020  0.0631
33024W        W76077  20.170  29.881   4.681 -0.2128 -0.2504  0.0847
33025W        W76078  25.546  17.912  29.064  0.0731 -0.0368 -0.0632
33026W        W76079  20.604  15.812  26.595 -0.1821 -0.3442 -0.2927
33027W        W76080  18.888  25.435   8.109 -0.0572 -0.1427  0.0609
33028W        W76081   9.725  16.593  20.597  0.3508  0.1235 -0.0045
33029W        W76082  18.565   9.304   0.602  0.1265 -0.0043 -0.3286
33030W        W76083  21.687   2.154  28.550  0.0926 -0.2645  0.1625
33031W        W76084  13.241   1.395  22.501 -0.1387 -0.0245 -0.2475
33032W        W76085  25.626   9.110   8.468  0.1180 -0.1462 -0.1819
33033W        W76086   6.913   7.601  21.099  0.3048  0.1969 -0.1637
33034W        W76087   2.773  24.481   0.177 -0.1538 -0.0895  0.0203
33035W        W76088  17.585  19.693   9.459  0.0267 -0.1196 -0.0896
33036W        W76089   2.282  17.422   4.481 -0.1659 -0.0050 -0.3550
33037W        W76090  17.453  33.654   6.981  0.0898  0.1547  0.3342
33038W        W76091  19.442  24.213  22.362  0.0257 -0.0806  0.0239
33039W        W76092   8.290  17.096  28.647 -0.1698 -0.0860  0.1409
33040W        W76093   3.635  15.744   5.014  0.1007  0.0832  0.1048
33041W        W76094  17.324  10.278  10.690  0.3130  0.0314 -0.0271
33042W        W76095  27.422   0.757  27.669  0.0806  0.1621 -0.2435
33043W        W76096  17.915   9.006  27.910 -0.2249  0.4463  0.1444
33044W        W76097   7.119  10.243   1.488 -0.0899  0.4474  0.0590
33045W        W76098  32.012  20.878  27.020 -0.1861  0.1720  0.0581
33046W        W76099  31.213   6.551   3.244 -0.0409  0.2657 -0.0477
33047W        W76100  32.777  13.529  17.783  0.1189 -0.2049  0.0997
33048W        W76101  29.071  13.231  16.180  0.3331 -0.2167 -0.0379
33049W        W76102   8.160   0.153  23.715  0.2273  0.1371  0.0431
33050W        W76103  21.669  20.639  25.419  0.0418  0.0541 -0.3229
33051W        W76104  16.187  23.053  21.640  0.0791  0.0395 -0.3492
33052W        W76105  34.153   2.047   9.655  0.0466 -0.3192  0.1495
33053W        W76106  27.680   0.190   0.049 -0.1703 -0.1976 -0.0291
33054W        W76107   4.533  12.081   1.529  0.3358  0.1223  0.0081
33055W        W76108  31.619   0.933  19.764 -0.0430  0.1540 -0.0688
33056W        W76109  20.981  10.351  10.524  0.3100 -0.1106  0.0449
33057W        W76110  33.729   4.726   8.615 -0.3281 -0.2438  0.1570
33058W        W76111  23.277   7.669   5.390  0.0985  0.0404  0.1248
33059W        W76112  32.890   4.439   6.374  0.0361  0.0703  0.0084
33060W        W76113  29.849  27.807   7.854  0.0004  0.0710  0.0403
33061W        W76114  22.121  29.304   0.485 -0.0029  0.0863  0.0472
33062W        W76115  25.479  12.730   8.471  0.0252  0.1037  0.3448
33063W        W76116  28.530  18.798   2.716  0.4193 -0.3183 -0.3745
33064W        W76117  31.110  15.727  21.256 -0.1373  0.3149 -0.0784
33065W        W76118  18.200   5.657   7.867  0.3670 -0.4533 -0.0792
33066W        W76119  10.918  15.814   5.026  0.0233  0.3027  0.2640
33067W        W76120   3.040   3.816  20.600 -0.0987 -0.0039 -0.0617
33068W        W76121   3.685  22.721  24.831 -0.1466 -0.1283 -0.1228
33069W        W76122  29.916   3.757   9.763 -0.0176  0.1912 -0.2284
33070W        W76123   6.003   6.268  19.863 -0.0623 -0.0637  0.1862
33071W        W76124   6.066   8.647   4.703 -0.3873 -0.0733  0.1977
33072W        W76125  28.251  22.104   3.001 -0.1050 -0.0553  0.1883
33073W        W76126  13.220  25.226  17.133  0.2660  0.1374 -0.2424
33074W        W76127  10.177   0.499  24.256  0.0647 -0.1056 -0.2169
33075W        W76128   8.080  17.021   7.095 -0.1776  0.2883  0.0342
33076W        W76129  16.714   4.482   9.133 -0.2305 -0.1329 -0.3015
33077W        W76130  32.152  21.402  28.678  0.0836 -0.1217 -0.2463
33078W        W76131  27.961  16.012  19.943 -0.0046  0.1581  0.1763
33079W        W76132  23.104  16.804   6.035  0.3665 -0.1023 -0.2094
33080W        W76133  11.470  16.169  16.639  0.1752  0.1843 -0.0844
33081W        W76134  34.195  31.180  24.486  0.1447  0.0406  0.1648
33082W        W76135  28.112  27.041   7.914  0.3622  0.1792  0.1310
33083W        W76136  22.579  17.449   0.137  0.2395 -0.0629 -0.2351
33084W        W76137  10.049   1.585  25.763 -0.0267  0.0870  0.3276
33085W        W76138  30.405  20.346  21.890  0.0473 -0.1714 -0.2749
33086W        W76139  25.422  12.116   0.705 -0.3952  0.0638 -0.2661
33087W        W76140  34.611   4.045  25.589  0.0368 -0.2895  0.2022
33088W        W76141  21.684   4.622   7.339 -0.1622 -0.1542 -0.1011
33089W        W76142  23.324  14.972   7.377 -0.2532 -0.1436  0.2864
33090W        W76143   2.122  27.111  22.845  0.0073  0.0285  0.1212
33091W        W76144  27.962  27.422  18.844 -0.0749 -0.0184  0.0261
33092W        W76145  10.773   3.373  18.213 -0.3003  0.1091 -0.0441
33093W        W76146  16.298  31.838  15.948  0.0949 -0.0190 -0.1346
33094W        W76147   6.363  15.498  27.812  0.1573  0.1632 -0.0230
33095W        W76148  18.349   3.974   4.982 -0.0922 -0.0486 -0.1248
33096W        W76149  29.173   5.270   8.847  0.0915  0.1219 -0.1416
33097W        W76150  10.217  28.917   3.357  0.0952  0.0155 -0.1443
33098W        W76151  27.676   6.061  17.948 -0.2787  0.0326 -0.0248
33099W        W76152  18.669  13.056   7.819 -0.0726  0.1247 -0.3815
33100W        W76153  14.488   4.969  29.103  0.1978  0.2196 -0.1680
33101W        W76154  17.139  20.184   2.528  0.4230 -0.1525 -0.2524
33102W        W76155  11.416  16.099   0.946 -0.0945  0.2211  0.2534
33103W        W76156  24.386  16.690  25.835  0.1754 -0.0723 -0.3669
33104W        W76157  22.702   6.896  27.423  0.1777 -0.1955  0.0611
33105W        W76158  25.629  18.851  25.877  0.1092 -0.0213  0.2534
33106W        W76159  14.454   3.967   2.424  0.1900 -0.2010  0.0203
33107W        W76160   3.194  12.248   9.228  0.2292 -0.4018 -0.1255
33108W        W76161   9.608  15.360  29.140  0.1326 -0.0425  0.1225
33109W        W76162  33.414  11.740  16.846 -0.1194  0.0496  0.0587
33110W        W76163   0.057  11.941  18.595  0.2090 -0.0095  0.2280
33111W        W76164  14.044   7.736  28.578  0.2064  0.1146  0.1673
33112W        W76165  21.602   4.403   8.327 -0.1823  0.2372  0.0579
33113W        W76166  31.167  27.015  24.116  0.0589 -0.1172  0.1034
33114W        W76167  20.401  10.032   3.681  0.1979 -0.1963 -0.1476
33115W        W76168   5.548  22.415   6.202  0.0523  0.1145 -0.0086
33116W        W76169  23.362  34.598  22.133 -0.2146  0.2582  0.1993
33117W        W76170  27.217  23.566   3.608 -0.3349  0.0222 -0.0247
33118W        W76171  17.325  13.672  23.351  0.0012 -0.0767 -0.1205
33119W        W76172  19.015  26.675   9.154 -0.0762 -0.0585 -0.0870
33120W        W76173   4.458  26.600  24.352 -0.0031  0.0534  0.2682
33121W        W76174  31.407  19.751   1.182  0.0290 -0.0808  0.2538
33122W        W76175  27.612  11.945   2.811 -0.3287  0.2597  0.1354
33123W        W76176  32.911  15.467  26.046 -0.2541  0.1718 -0.0319
33124W        W76177  11.535  21.933   5.195  0.0272  0.2309 -0.1280
33125W        W76178  17.131   7.345  27.555  0.2111  0.1542  0.2267
33126W        W76179  32.362  25.671  19.536 -0.3173 -0.2110  0.0198
33127W        W76180  30.283  11.137   7.126 -0.0372  0.0046  0.2543
33128W        W76181  32.732  14.536   6.962 -0.0557  0.2129 -0.0248
33129W        W76182  28.956  10.288  15.682 -0.0114 -0.2507 -0.2829
33130W        W76183   7.972  16.339   9.430 -0.2194 -0.1292  0.0238
33131W        W76184   8.956   9.201   1.568  0.0492  0.1375  0.0679
33132W        W76185  23.157  32.680   2.533  0.0704 -0.0528  0.1263
33133W        W76186   5.371   5.481  16.499 -0.2242  0.2290  0.2485
33134W        W76187  19.881  32.904   1.723  0.0733  0.1128 -0.0209
33135W        W76188  19.501  22.535  10.555 -0.0646  0.0011 -0.0800
33136W        W76189  27.621  16.745  26.557 -0.1262 -0.0572 -0.3363
33137W        W76190   9.992  14.726  19.756  0.1049 -0.2276  0.1081
33138W        W76191  32.449  17.121  18.668 -0.1521 -0.0847  0.0516
33139W        W76192  17.740  10.174   8.332  0.0002  0.2861 -0.4399
33140W        W76193  17.102  32.764  19.342 -0.2443 -0.1890  0.1491
33141W        W76194  34.141  10.906   6.307  0.0636  0.2843 -0.0329
33142W        W76195  20.143  17.793  20.845  0.2634  0.2133  0.1920
33143W        W76196  25.994   9.950  22.188 -0.2824  0.2525 -0.2845
33144W        W76197  22.008   7.615  16.402 -0.0244  0.1785  0.1728
33145W        W76198  27.106  16.604  25.082  0.0293 -0.1193  0.1367
33146W        W76199  25.893  22.950  22.025  0.1248  0.0359 -0.0558
33147W        W76200  32.764  15.384   6.903 -0.2565  0.2155  0.1171
33148W        W76201  23.690  13.522   0.135  0.3025 -0.1057 -0.2212
33149W        W76202  33.974   3.513  23.116 -0.0115  0.1933  0.2467
33150W        W76203  32.615   1.547   6.392  0.1263 -0.0286 -0.2784
33151W        W76204   5.413   9.630   4.779  0.1977  0.1287  0.2909
33152W        W76205  32.738   5.281  25.687 -0.0072  0.0630  0.1054
33153W        W76206  27.101  10.370  15.214 -0.2128  0.1732  0.1277
33154W        W76207  18.867  20.297  25.338 -0.1281 -0.2645 -0.3062
33155W        W76208  12.465   4.050   7.271  0.0416 -0.0405  0.0716
33156W        W76209   3.728   1.517  27.110 -0.1453  0.2708  0.0069
33157W        W76210  21.234   2.035  25.419 -0.2371  0.3139 -0.3578
33158W        W76211  27.966  15.079   9.577 -0.0576  0.0398 -0.0471
33159W        W76212  19.659  14.863   4.519  0.1446  0.1009  0.1149
33160W        W76213  29.606   6.997  26.563 -0.0021  0.3780 -0.0068
33161W        W76214  20.159  19.065  25.173  0.1448  0.2829 -0.0396
33162W        W76215  32.512   8.388   7.110 -0.1969 -0.0229 -0.1278
33163W        W76216   5.583   1.861   7.101  0.1286  0.0204 -0.0881
33164W        W76217  20.393  14.091   8.529  0.3912 -0.1355 -0.1418
33165W        W76218   0.510  20.236   5.632  0.0100  0.0945 -0.2299
33166W        W76219  17.347  13.069   7.766  0.0276  0.2276  0.1386
33167W        W76220   4.499  12.632   3.533 -0.3029  0.0968  0.1408
33168W        W76221   0.390  18.014  13.059 -0.3124  0.5779 -0.3444
33169W        W76222  21.955  30.194   9.464  0.0366  0.1286  0.0021
33170W        W76223  17.908  14.718   0.812  0.1347 -0.1224  0.2693
33171W        W76224  19.343  21.039   5.694  0.1176 -0.1539  0.0209
33172W        W76225  19.746  19.026  10.331 -0.0161 -0.0732  0.2079
33173W        W76226  15.436   0.798   1.380  0.0858  0.3906 -0.0192
33174W        W76227  20.223  21.417   8.933  0.2183 -0.3433  0.1200
33175W        W76228   8.789  13.067  27.001 -0.2848 -0.1572  0.1250
33176W        W76229  21.864  25.095   0.599 -0.0423 -0.0725  0.2480
33177W        W76230  22.993   1.151   5.269  0.1046  0.0124 -0.2503
33178W        W76231   9.451  12.272   2.594  0.1294  0.2898  0.0820
33179W        W76232  29.181  22.903  24.306 -0.2524 -0.0667 -0.0172
33180W        W76233  29.608   0.573   1.125 -0.0036 -0.0561  0.0084
33181W        W76234  19.421  15.740  13.229  0.1206  0.1878  0.3410
33182W        W76235  34.042  13.588  22.121  0.3457  0.2036 -0.0296
33183W        W76236  17.225   7.568  20.055  0.0672  0.1419  0.1232
33184W        W76237  13.300   9.002  23.269 -0.1008  0.1861  0.0583
33185W        W76238   2.187   6.484   8.416 -0.0430 -0.3756  0.1179
33186W        W76239   6.692  19.655   5.031 -0.0310 -0.2723 -0.5295
33187W        W76240  18.994   7.100   9.501  0.0744  0.1200  0.0092
33188W        W76241  14.007  24.361   8.758 -0.2172 -0.3189  0.1662
33189W        W76242  29.580  13.823   4.407 -0.1631 -0.0276  0.0141
33190W        W76243  30.995  24.647  22.636  0.0011  0.1489  0.1570
33191W        W76244  28.885  15.957  27.621  0.2364  0.1453  0.0081
33192W        W76245   9.829   8.999  19.771 -0.0996 -0.3926 -0.3634
33193W        W76246  33.692   7.577  25.954  0.0749 -0.0801  0.2109
33194W        W76247  33.450   9.963  16.878 -0.4313 -0.1631 -0.0899
33195W        W76248  28.672   8.604  21.079  0.0562  0.0325  0.2608
33196W        W76249  22.577   3.356   1.200 -0.1023 -0.0884 -0.3649
33197W        W76250  30.177  18.412  18.322 -0.3293 -0.1452 -0.0075
33198W        W76251  24.348  14.329   5.651 -0.0161 -0.0764  0.0279
33199W        W76252  14.967  25.163   7.562  0.1433  0.3353  0.1207
33200W        W76253  26.736  34.384  16.820  0.0819 -0.1315 -0.5752
33201W        W76254  25.379  30.813   5.786 -0.1008 -0.2189 -0.0703
33202W        W76255  30.071   5.959  23.250  0.0141 -0.0415  0.3411
33203W        W76256  19.170  16.241   3.025  0.3521 -0.4509  0.1416
33204W        W76257  27.482  10.255  22.215 -0.0025 -0.1308  0.1401
33205W        W76258  25.924  11.225   7.682 -0.0573  0.0283  0.1716
33206W        W76259  29.104   4.391   9.052 -0.2065  0.0220  0.0852
33207W        W76260   2.926   5.631  21.313  0.1059 -0.2934  0.0663
33208W        W76261  21.108  28.213   7.872  0.0380 -0.2325 -0.0584
33209W        W76262  18.382  10.109  23.206 -0.0049 -0.0776  0.1459
33210W        W76263  23.706  13.790  25.424  0.0378  0.5754 -0.1520
33211W        W76264  25.611   4.358  28.616 -0.1702 -0.2089  0.1386
33212W        W76265   3.846  13.243  29.031 -0.0500  0.1136  0.1969
33213W        W76266  24.419  11.635   9.094  0.0859 -0.2055  0.1872
33214W        W76267  14.964  20.013  27.159  0.1057  0.1195 -0.0031
33215W        W76268  25.729  15.373   8.291 -0.2694  0.1775 -0.0419
33216W        W76269  20.531  19.920  24.697  0.1654 -0.0477 -0.2513
33217W        W76270   5.701  11.593  22.040  0.1407 -0.0399 -0.2176
33218W        W76271  17.332  14.957   5.059 -0.1239 -0.1940  0.1606
33219W        W76272  22.630   5.013   6.186 -0.2544 -0.0373 -0.2195
33220W        W76273  11.217   7.300  23.064  0.0736 -0.1318  0.3735
33221W        W76274  31.433  28.160   4.687  0.0711  0.1065  0.2901
33222W        W76275  26.212  18.039  28.995 -0.1591  0.0144 -0.1483
33223W        W76276  15.378  16.948  22.906  0.0997 -0.1656 -0.1723
33224W        W76277  28.661  13.264   8.319  0.1918  0.0585  0.0696
33225W        W76278  22.951   4.061   1.674  0.0028  0.1551  0.1376
33226W        W76279  29.215  17.498  21.796  0.0133 -0.0576  0.0284
33227W        W76280  13.915  13.588   6.139  0.1313 -0.3208  0.2651
33228W        W76281  30.027   9.307  10.441 -0.1908  0.2926 -0.0463
33229W        W76282  15.893  24.628  24.078  0.0899 -0.0951 -0.0246
33230W        W76283  21.575  17.320  25.880 -0.1738  0.2038  0.3137
33231W        W76284   4.728  33.139   9.825  0.2722  0.2373  0.3142
33232W        W76285  26.173  29.809   0.455  0.3171 -0.3919  0.2941
33233W        W76286  29.739   9.228   3.858 -0.1575 -0.1704  0.0768
33234W        W76287  24.362   2.609  18.020  0.1916  0.0028 -0.1321
33235W        W76288  20.766   3.919   2.576 -0.3462 -0.1983  0.0298
33236W        W76289  10.863   3.710   0.391  0.4176 -0.0403 -0.0341
33237W        W76290   7.925   8.451   7.995 -0.0607 -0.0230  0.1898
33238W        W76291  27.480   9.675  21.969  0.0947 -0.2007  0.3449
33239W        W76292  32.435   8.366  26.784  0.0033  0.4773 -0.2279
33240W        W76293  29.672  20.069  28.287 -0.1257  0.0591  0.0230
33241W        W76294  31.723  15.746   3.373 -0.0068  0.1129 -0.0547
33242W        W76295   2.162  18.644   1.532  0.3837 -0.1740  0.2534
33243W        W76296  25.124   9.939  24.060 -0.2181  0.2090 -0.1542
33244W        W76297  29.329  18.653   5.397  0.1579  0.0024 -0.0714
33245W        W76298  31.150  15.926   7.897 -0.1633  0.0559 -0.0225
33246W        W76299   3.424  32.997   9.381 -0.0545 -0.1266 -0.1233
33247W        W76300  30.334  20.162  23.398 -0.0277  0.0068 -0.0651
33248W        W76301  29.448  27.658  20.840 -0.1848  0.0264 -0.2111
33249W        W76302  19.741  27.019  21.581 -0.2120  0.0143 -0.0257
33250W        W76303   2.173  11.261   3.044  0.1881 -0.0132  0.1322
33251W        W76304  31.073   6.768   5.573  0.0092  0.1301 -0.1881
33252W        W76305   5.825   5.405   5.631 -0.2426  0.3233  0.2025
33253W        W76306  29.129   3.601  21.925  0.0274  0.1145 -0.2331
33254W        W76307  25.573  25.281   6.389 -0.2930  0.2966 -0.2533
33255W        W76308  18.855  14.049  23.552  0.2192  0.0697 -0.1251
33256W        W76309  20.549  11.765  14.866 -0.1747 -0.1589  0.0367
33257W        W76310  28.409  25.934  24.274  0.2452  0.0325 -0.1839
33258W        W76311   1.215  14.478  24.315 -0.0760 -0.3013  0.1481
33259W        W76312  23.779  12.375  15.939 -0.0733  0.1050 -0.0065
33260W        W76313   2.663  12.873   4.738  0.1030 -0.1612 -0.1458
33261W        W76314   7.913   5.078  14.247  0.1158  0.2210  0.2765
33262W        W76315  32.362  14.823  27.216  0.0877 -0.0970  0.2490
33263W        W76316  19.478  19.885  25.336  0.0452  0.1190 -0.0331
33264W        W76317   6.951  31.770   4.784  0.2362 -0.0898  0.0969
33265W        W76318   8.327  10.209   9.820  0.1397  0.1346 -0.0402
33266W        W76319  22.921  22.488   6.257 -0.1435 -0.0260 -0.0587
33267W        W76320   2.394  34.279   3.630 -0.1500 -0.0040 -0.3357
33268W        W76321  24.145   9.903  25.699 -0.0439 -0.0502  0.4036
33269W        W76322  30.052  30.297  16.503  0.1885  0.0966 -0.2767
33270W        W76323   3.444  12.068  21.438  0.1931  0.1642  0.1881
33271W        W76324  33.063  13.053   1.522  0.5087 -0.0643 -0.2689
33272W        W76325  26.153  25.748  22.725  0.0217 -0.0232  0.0899
33273W        W76326  33.622  26.467   0.804 -0.3144 -0.1454 -0.1243
33274W        W76327  31.190   1.385   6.012 -0.6181 -0.1029 -0.0465
33275W        W76328   2.348  13.449  16.652  0.0250  0.0335 -0.0556
33276W        W76329  21.937  21.633   5.101 -0.0945 -0.0220 -0.2304
33277W        W76330  27.996  32.326   1.451  0.2360 -0.1832 -0.3799
33278W        W76331   5.004   3.170  15.883  0.0680 -0.3060  0.1364
33279W        W76332  29.292  14.036  25.737  0.0943  0.0738 -0.0805
33280W        W76333  18.325   2.591   3.121  0.0605  0.0970 -0.1401
33281W        W76334  16.619  12.594  13.758 -0.0228  0.0994 -0.0905
33282W        W76335  34.466  29.259   0.375 -0.3427  0.1768 -0.1162
33283W        W76336  33.287  27.872   5.318  0.0444 -0.0645  0.2276
33284W        W76337  33.642   7.856  18.551 -0.4586  0.0468 -0.0068
33285W        W76338  18.708   5.144  10.963  0.4524  0.0516  0.0254
33286W        W76339  24.812  14.696   7.120  0.0720  0.0072 -0.0611
33287W        W76340  30.633  24.792   3.690 -0.0143  0.0773  0.0221
33288W        W76341  13.577  10.291   9.173 -0.5265 -0.0076  0.1834
33289W        W76342  24.309   7.077  24.708 -0.1810 -0.0306 -0.0536
33290W        W76343  33.276  17.914  28.855  0.2179 -0.2887  0.0341
33291W        W76344  31.431  10.418   3.965 -0.0487 -0.0933 -0.1538
33292W        W76345  26.151   5.638  18.546  0.1263  0.2892  0.0411
33293W        W76346  26.334  31.535   5.502 -0.2248 -0.1507  0.0842
33294W        W76347   2.973  29.518  25.728  0.0269 -0.1058 -0.1046
33295W        W76348  14.745  26.307  21.649  0.4329 -0.1562  0.1337
33296W        W76349   5.953   5.599   3.589 -0.0309  0.0182  0.2069
33297W        W76350  21.681   4.415   9.734  0.4819  0.0302 -0.1939
33298W        W76351  26.407  28.709   0.915  0.0362 -0.1984 -0.2694
33299W        W76352  18.059   6.983   7.162  0.1224  0.2795  0.3908
33300W        W76353  25.704   0.859  17.026 -0.2621 -0.2085  0.0522
33301W        W76354  17.941  29.382   6.403  0.0822  0.1798 -0.1191
33302W        W76355  28.314   4.928   8.089 -0.0445  0.0755  0.1465
33303W        W76356  29.897  21.233   9.285  0.1288 -0.3678  0.0409
33304W        W76357  20.471   3.922   6.196 -0.0452  0.2173  0.3275
33305W        W76358  22.182  23.122   1.663  0.0627 -0.2813 -0.2753
33306W        W76359  21.668  11.183  23.501  0.2056 -0.0894 -0.1303
33307W        W76360   4.852   0.271   9.842 -0.2204  0.0142  0.1017
33308W        W76361   2.778  12.439   0.169  0.1095 -0.3190  0.1183
33309W        W76362   1.697   6.962   8.524 -0.1652 -0.0984 -0.2105
33310W        W76363   1.124  26.987  24.105 -0.0487  0.2162 -0.3066
33311W        W76364  26.718   5.238  20.810  0.0192  0.0699 -0.1148
33312W        W76365  27.230   5.664  28.401 -0.2581  0.0244 -0.0592
33313W        W76366  12.497   6.461  25.928 -0.0723 -0.0483  0.2402
33314W        W76367  32.320  15.302  16.469  0.1954  0.0654  0.1621
33315W        W76368   2.295   2.647   1.910  0.1724  0.0580  0.1275
33316W        W76369  29.045  29.524  20.253 -0.1869  0.1478  0.2139
33317W        W76370  22.584  16.728   4.000 -0.1978  0.1783  0.0646
33318W        W76371  24.186  26.515  28.953 -0.1964  0.3587  0.0114
33319W        W76372  24.287  29.712  21.969  0.0079  0.2263  0.0690
33320W        W76373  32.205  18.455  25.289  0.0001 -0.0085  0.0060
33321W        W76374  18.873  23.130   5.213 -0.0165  0.1024  0.0361
33322W        W76375  30.470   6.854  15.487  0.1970 -0.1355 -0.1437
33323W        W76376  20.395   6.444   8.907 -0.0764 -0.2301 -0.3687
33324W        W76377  25.239  19.600   3.690 -0.0678 -0.0726 -0.2658
33325W        W76378  27.886   9.008  21.614  0.1592 -0.2270 -0.4536
33326W        W76379  23.459  13.202  17.329 -0.3430 -0.1604 -0.1184
33327W        W76380  24.822  15.075  27.398  0.2061 -0.1331 -0.3050
33328W        W76381   2.135  30.737  25.180 -0.1801 -0.1525 -0.0266
33329W        W76382   2.074  22.725   2.544 -0.0144 -0.1252  0.1834
33330W        W76383  19.589  17.410  22.953  0.1007 -0.1540  0.1137
33331W        W76384   1.515  26.432  22.013  0.2399  0.0012  0.1787
33332W        W76385  14.892  14.383  16.267 -0.0256  0.3519  0.4068
33333W        W76386  26.817  18.016  24.717 -0.0569 -0.0218  0.0303
33334W        W76387  17.135   4.342  19.689  0.1070  0.1659  0.0444
33335W        W76388  31.444   3.752   1.268 -0.3375 -0.0935  0.3212
33336W        W76389  33.978  23.352  22.080 -0.0038 -0.2893 -0.1484
33337W        W76390  27.178   4.108   8.151  0.1872 -0.0180  0.1910
33338W        W76391   6.822  22.833   2.386  0.0363  0.1133  0.0635
33339W        W76392  18.314   9.019  28.548 -0.0457 -0.3315  0.0545
33340W        W76393  24.543   5.156  26.260  0.1514  0.1351 -0.0303
33341W        W76394  24.941  13.753  27.292 -0.1908 -0.2207 -0.1428
33342W        W76395  34.044  12.816   9.615  0.0977 -0.0033 -0.0077
33343W        W76396  29.742  18.401   6.626 -0.1361  0.2729  0.4279
33344W        W76397  18.517  34.171  21.216  0.3018 -0.4258 -0.2028
33345W        W76398  29.067  13.401   8.639 -0.0256 -0.0215 -0.0721
33346W        W76399  25.140  14.525  22.587 -0.3684  0.0778 -0.0348
33347W        W76400  29.618  10.785   4.930  0.0920 -0.0367  0.0805
33348W        W76401  34.157  14.060   0.424 -0.2125 -0.4295  0.1825
33349W        W76402  19.985  15.628   0.173  0.1040  0.1448  0.3086
33350W        W76403  15.470  26.195   6.729  0.4330  0.1655  0.0521
33351W        W76404  14.870  16.493   1.634  0.0859  0.3275 -0.1663
33352W        W76405  15.737  33.632  21.657 -0.2566  0.1785  0.0229
33353W        W76406  23.110  14.419  24.276 -0.0513  0.1918  0.0788
33354W        W76407  28.641   2.349   7.311  0.1078 -0.0307 -0.1817
33355W        W76408  25.152   8.732  27.557  0.2538  0.1312 -0.1392
33356W        W76409   7.023   2.127   2.657  0.0289 -0.2323  0.1285
33357W        W76410  23.839  16.114   3.408 -0.1068 -0.1812  0.1043
33358W        W76411  20.241   6.891   2.886  0.0130  0.3075 -0.1833
33359W        W76412  10.492  11.052  28.168  0.1206  0.0059  0.1918
33360W        W76413  26.295   4.121   6.195 -0.2985  0.2470 -0.0634
33361W        W76414   5.624   3.082   2.478  0.3862  0.0784 -0.1845
33362W        W76415  33.599  10.342   7.542  0.2440 -0.1841 -0.3461
33363W        W76416  25.449   9.776   2.861 -0.0189  0.1445  0.2027
33364W        W76417  33.597  19.945  22.849  0.1971  0.0804 -0.1040
33365W        W76418   4.634  19.633   7.254  0.2791  0.2900 -0.2497
33366W        W76419  28.244   9.652  25.322  0.1811 -0.1525  0.2145
33367W        W76420  30.923   9.414   7.615  0.0994 -0.3405 -0.2108
33368W        W76421  21.347  10.153   8.466  0.3839 -0.0215  0.1279
33369W        W76422  31.027  15.301   1.148  0.1639  0.1447  0.0771
33370W        W76423  10.044  11.952  20.257  0.3876 -0.3369  0.1492
33371W        W76424  26.971  25.705   7.370 -0.0031 -0.2248 -0.1877
33372W        W76425  34.452   6.151   3.598 -0.0523 -0.2035 -0.0288
33373W        W76426  32.910  23.922   2.124  0.1015  0.0702  0.1792
33374W        W76427  22.522   8.949   7.498 -0.1189 -0.2617  0.0669
33375W        W76428  24.588  16.757   0.821 -0.1651  0.0115 -0.1227
33376W        W76429  14.639  11.962  24.066 -0.0333 -0.0853 -0.1276
33377W        W76430   3.484   9.226   3.178 -0.1162 -0.0972  0.0542
33378W        W76431  31.538  12.253  10.430 -0.0247 -0.6785  0.3021
33379W        W76432  19.899  22.648  15.780  0.1471 -0.2045 -0.1018
33380W        W76433  12.903   5.388  10.223  0.1210  0.0350 -0.2354
33381W        W76434   0.421  16.488   3.617  0.0661 -0.0045  0.2646
33382W        W76435   0.609   9.514   7.572  0.0012 -0.0070 -0.2589
33383W        W76436  29.000   8.654   1.876 -0.0479  0.3830 -0.1257
33384W        W76437  19.024   9.674   4.258  0.0957  0.2780 -0.0693
33385W        W76438   7.051  24.010   8.516 -0.1145  0.3640  0.0970
33386W        W76439   0.466  33.706  24.925 -0.0396  0.4333  0.0010
33387W        W76440  27.382  27.335  28.345 -0.0875  0.2132  0.0828
33388W        W76441  18.050  23.781   0.534 -0.1524  0.0417  0.2580
33389W        W76442  21.882   1.726   4.229 -0.0491 -0.1959  0.2813
33390W        W76443  21.167  26.084   3.817 -0.0190  0.4248 -0.1014
33391W        W76444   0.676   9.276  20.271  0.1842 -0.0712 -0.2656
33392W        W76445  16.241  31.267  10.768  0.0292 -0.1062  0.2771
33393W        W76446  31.747  32.201   9.498 -0.0603  0.2990 -0.2572
33394W        W76447  24.969  33.845  18.957 -0.1981  0.1309 -0.2468
33395W        W76448  18.229   9.540  29.198 -0.1947 -0.0065  0.0867
33396W        W76449  20.080  14.562  14.780 -0.2693 -0.0239  0.3043
33397W        W76450   6.122  33.546   4.536 -0.0702  0.2889  0.1739
33398W        W76451  15.763  19.270   6.390 -0.1139  0.0793 -0.0566
33399W        W76452   2.619   3.696   7.087  0.0776 -0.0371  0.1118
33400W        W76453   7.117   4.591   8.613  0.3523  0.1309 -0.1095
33401W        W76454   0.877  28.270   3.415 -0.0669  0.1001 -0.0428
33402W        W76455   2.700  17.958  28.507  0.0361 -0.1015  0.1944
33403W        W76456  17.700  27.522   9.895 -0.0719 -0.0787 -0.2312
33404W        W76457  30.917  19.236   3.820  0.0363  0.0639 -0.0577
33405W        W76458  21.649  29.467   9.936 -0.1120 -0.0500  0.0840
33406W        W76459  13.075   0.799   9.446  0.3415  0.1793 -0.0181
33407W        W76460  11.786  18.463   7.232 -0.2587  0.1130 -0.3720
33408W        W76461  29.699  22.493   4.563 -0.4466 -0.0665  0.2145
33409W        W76462  29.505  18.108   9.833  0.2440 -0.4743  0.1859
33410W        W76463  21.210  17.369  28.624  0.2991  0.1138  0.0250
33411W        W76464   5.217  15.289   7.686 -0.0802 -0.0077 -0.0207
33412W        W76465  19.300  14.080  22.276  0.3284  0.0234  0.1307
33413W        W76466  23.384  15.835  28.971 -0.2016 -0.2085  0.0863
33414W        W76467   6.740  19.695   0.738 -0.2500  0.0276  0.1352
33415W        W76468  26.034   5.715   3.286 -0.2169  0.1173  0.1611
33416W        W76469   1.619   7.322  27.906 -0.0365  0.1802  0.0596
33417W        W76470  12.026  16.762  19.224 -0.3824 -0.1224  0.0205
33418W        W76471  34.474  31.446   9.173 -0.0833  0.0673 -0.0077
33419W        W76472  27.310  20.559  28.819  0.1351 -0.0570 -0.0489
33420W        W76473  26.349  13.880  28.594 -0.1778 -0.3236  0.0064
33421W        W76474  30.451  22.750  24.974 -0.0163 -0.2963 -0.2352
33422W        W76475  24.993   3.249   7.726  0.0514 -0.0949  0.2564
33423W        W76476  23.525   8.923  21.892 -0.1260  0.0057 -0.1665
33424W        W76477  33.236   3.934  18.067 -0.1521 -0.1791 -0.0111
33425W        W76478   7.155  14.910  26.066  0.2966  0.0444  0.2970
33426W        W76479   3.659  18.441   0.555 -0.0153 -0.0893  0.1233
33427W        W76480  22.603  11.976   3.070  0.2651  0.3032 -0.0734
33428W        W76481   1.444  14.385   8.319 -0.0171 -0.0524  0.1271
33429W        W76482  19.410   6.417  21.834  0.0645  0.1302  0.1018
33430W        W76483  33.115  12.757  26.262 -0.0701 -0.0304 -0.0269
33431W        W76484  14.425  10.010  22.883  0.2913 -0.0679  0.2136
33432W        W76485  18.252  18.107   8.678  0.1124 -0.4441 -0.2004
33433W        W76486  18.429  10.655  26.445  0.3026 -0.1463  0.1391
33434W        W76487  28.353   8.048  22.952 -0.0113  0.1394  0.2349
33435W        W76488   6.211  15.597   8.244  0.1536 -0.0764  0.0870
33436W        W76489   3.954  30.825   8.026 -0.3252  0.2668 -0.0392
33437W        W76490  18.094   6.941   3.037 -0.2989 -0.1390  0.0285
33438W        W76491  25.686  12.488   4.136 -0.1857 -0.2429 -0.0402
33439W        W76492  29.473  34.147   2.454  0.0101 -0.1421 -0.0264
33440W        W76493  11.600   0.567   2.724 -0.0076  0.0285 -0.1481
33441W        W76494  22.663  17.768   1.434 -0.2026 -0.0795  0.0653
33442W        W76495  24.726   2.274   7.768  0.0969  0.2798 -0.1023
33443W        W76496  31.309  22.298   8.427 -0.1661 -0.0326  0.0592
33444W        W76497  28.616  14.184   9.044 -0.0222 -0.3737  0.1322
33445W        W76498  20.455  24.400  24.793 -0.2538 -0.0074 -0.0612
33446W        W76499  33.163  17.560   3.551  0.1531  0.1134 -0.0352
33447W        W76500  20.462   4.239  23.642 -0.1623 -0.0064  0.1177
33448W        W76501  15.922  33.062  16.517 -0.1739 -0.2008  0.3773
33449W        W76502  12.296  13.982   1.578 -0.4161  0.1218 -0.3116
33450W        W76503  26.065  17.203  29.112 -0.0981  0.2730 -0.1143
33451W        W76504  23.093  13.678   6.975 -0.1558 -0.0795  0.1236
33452W        W76505  31.611  33.587   2.405  0.2167  0.1112 -0.0693
33453W        W76506   1.468   5.379   5.816 -0.0282 -0.0058  0.0170
33454W        W76507  30.445  16.602   1.937  0.0968  0.0218 -0.0482
33455W        W76508   6.858   9.853  25.568 -0.1057 -0.0209 -0.0264
33456W        W76509  30.768   4.099  15.074 -0.1559 -0.2061 -0.2003
33457W        W76510  28.337   9.520   8.092  0.2976  0.0624 -0.1824
33458W        W76511  21.284  10.873   9.481  0.1958 -0.0116  0.5635
33459W        W76512  29.398   5.091   7.929 -0.0891 -0.1788  0.3895
33460W        W76513  23.096  27.894   9.309  0.0310  0.0857  0.3063
33461W        W76514  24.765  21.453   3.368  0.2259  0.1073 -0.0094
33462W        W76515  29.587  25.638  26.595 -0.3411  0.1856 -0.0147
33463W        W76516   8.372  11.687   4.037  0.1269 -0.0852  0.0169
33464W        W76517  17.306   9.745   9.961 -0.1078 -0.0732 -0.1400
33465W        W76518  29.276  15.171   1.949  0.1462 -0.4414  0.0121
33466W        W76519   2.364   6.528  26.660 -0.0275 -0.1953 -0.1442
33467W        W76520   7.042  20.218   7.110  0.0600  0.1895 -0.3957
33468W        W76521  18.949  11.244   5.346  0.0680  0.0115 -0.2892
33469W        W76522  23.537  19.115   8.936  0.0921 -0.1755  0.1206
33470W        W76523  32.742   8.521  20.541 -0.0472  0.1580  0.0318
33471W        W76524   4.150   2.320   0.193  0.1892 -0.0113 -0.1158
33472W        W76525  23.230   2.989  27.853 -0.2815 -0.2060 -0.0849
33473W        W76526   2.159  14.917   6.793  0.0621 -0.0186  0.0918
33474W        W76527   1.850  13.772   9.603 -0.4344  0.1757  0.0966
33475W        W76528  24.987  16.446  27.795 -0.1444  0.1474  0.2785
33476W        W76529  30.504  21.340   5.717 -0.0657 -0.0225 -0.0514
33477W        W76530   6.263  16.162   4.130  0.0429  0.0778 -0.2422
33478W        W76531  26.835   5.639  25.862 -0.1075 -0.2353  0.0939
33479W        W76532  23.546  10.426  28.558  0.3843 -0.0639  0.1960
33480W        W76533  18.422  16.590   0.554  0.2325 -0.0889  0.1029
33481W        W76534   2.817  12.423   3.974 -0.2418 -0.2050  0.0341
33482W        W76535  27.974  10.356   0.938 -0.1647 -0.3650 -0.0018
33483W        W76536  25.363  15.138   0.319  0.1179  0.0449 -0.3130
33484W        W76537  20.437  16.922   2.762  0.1308 -0.0513  0.2262
33485W        W76538  30.331  22.899  28.285  0.0406 -0.2061 -0.1250
33486W        W76539  27.818   1.244   7.129 -0.3165 -0.0422  0.2389
33487W        W76540  31.995  33.755   9.291 -0.2174 -0.0304  0.2147
33488W        W76541  27.661  21.428  28.571  0.0330  0.1071  0.3831
33489W        W76542  20.146  14.300  14.283  0.0333 -0.0535 -0.2007
33490W        W76543   9.646  33.477   0.375  0.0196 -0.0217 -0.0538
33491W        W76544  24.394  22.278  26.539 -0.2868 -0.1912  0.2866
33492W        W76545   4.088  18.357   2.145 -0.1547 -0.3035  0.0996
33493W        W76546  19.705  27.333   0.068  0.2844  0.0219  0.1170
33494W        W76547  28.045  20.254   0.986  0.1725  0.0979 -0.0476
33495W        W76548  26.851  18.220   4.255  0.0395 -0.2086 -0.1755
33496W        W76549  23.864  34.508  25.727  0.0640 -0.1090 -0.0725
33497W        W76550  20.726  19.172  16.484  0.2652 -0.1193  0.0337
33498W        W76551   1.840  15.885  23.981  0.2493 -0.3919  0.1250
33499W        W76552  33.170   2.517   6.456  0.1447 -0.4281  0.0393
33500W        W76553  22.729  16.841   2.390 -0.0491 -0.1556 -0.2538
33501W        W76554   8.752  14.835   9.145  0.1077 -0.0620 -0.0299
33502W        W76555   3.033  15.784   0.070  0.0756  0.1247 -0.0118
33503W        W76556  28.866  10.682   8.215 -0.3196 -0.0856  0.5626
33504W        W76557  31.471  13.083   4.254  0.2213 -0.6054 -0.1283
33505W        W76558  24.890  12.488  28.750  0.1171  0.1724 -0.0966
33506W        W76559  19.258  16.349  24.642  0.2521 -0.3928  0.2052
33507W        W76560  22.563  24.257  21.131  0.3350 -0.3712  0.1505
33508W        W76561  29.356  15.766   9.788  0.1754 -0.0860  0.0989
33509W        W76562   1.027  22.868  22.335  0.0637 -0.0737  0.4064
33510W        W76563  32.950  24.060  28.792  0.0471 -0.0106  0.1567
33511W        W76564  23.378   4.514  26.157 -0.2080  0.2514  0.1801
33512W        W76565  18.134  11.373   4.226 -0.1236  0.1287  0.5178
33513W        W76566  25.053  18.698  26.567  0.0511  0.0984 -0.1669
33514W        W76567  27.154  26.193   3.655  0.3941  0.2172  0.1553
33515W        W76568  12.733  33.655   6.086 -0.1254  0.1284 -0.1208
33516W        W76569  26.316  14.131   6.549 -0.1653  0.0777  0.0887
33517W        W76570  18.683  12.933  15.443 -0.2423 -0.0803 -0.2023
33518W        W76571  23.046  11.742  26.118 -0.1287 -0.1199 -0.2213
33519W        W76572  24.795  15.664   7.175 -0.0183 -0.2381 -0.0581
33520W        W76573  34.284  10.575   9.117  0.1293 -0.2206 -0.0563
33521W        W76574   9.231  13.096  29.080  0.1279 -0.2091 -0.0115
33522W        W76575  21.791  16.530  22.840  0.0874  0.0676  0.3622
33523W        W76576   6.911  13.139  25.441  0.0506 -0.0372 -0.0455
33524W        W76577  25.018  11.045   3.369 -0.0479  0.0922 -0.1403
33525W        W76578   4.421   3.198   8.687  0.1668  0.1537 -0.1405
33526W        W76579  19.217  17.880  25.982  0.1376  0.1540  0.0878
33527W        W76580  33.559  15.256  21.449 -0.0333 -0.1162  0.1224
33528W        W76581  21.786  18.824   8.003 -0.0938  0.0122 -0.0979
33529W        W76582  22.723   9.911   5.735 -0.2921  0.1347 -0.0336
33530W        W76583  26.199  21.533   0.439 -0.1309  0.0195 -0.5335
33531W        W76584   3.955  26.575   8.881 -0.1924  0.1715  0.0166
33532W        W76585  13.048  16.006   5.386 -0.0601  0.1473 -0.0605
33533W        W76586  21.975  22.624  26.664 -0.1589 -0.1984  0.0145
33534W        W76587  34.355   3.866   6.468 -0.3844  0.2317  0.1983
33535W        W76588  14.693   6.266  24.881 -0.0817 -0.0469  0.2453
33536W        W76589  22.049  11.994   0.612  0.0769  0.0646 -0.0410
33537W        W76590  28.967  19.775   8.753 -0.0138  0.1206 -0.1701
33538W        W76591  34.165  15.262   8.990 -0.0352 -0.0707 -0.3184
33539W        W76592  25.349  17.849   0.329  0.0753  0.1092 -0.4050
33540W        W76593   9.497  14.726  10.574 -0.1347 -0.0253 -0.3179
33541W        W76594  18.452  24.875   4.221  0.2804  0.0373  0.1770
33542W        W76595   1.968   7.997   9.384 -0.0119  0.0918  0.2244
33543W        W76596  13.308  16.069   7.378  0.0272 -0.1146  0.1803
33544W        W76597  33.989  20.510  26.424 -0.1276 -0.0788 -0.0069
33545W        W76598  11.669  12.879   4.232 -0.0305 -0.2253  0.0775
33546W        W76599  24.734  23.929   3.086  0.0092  0.0230 -0.3446
33547W        W76600  12.818  12.007  20.712  0.0177  0.0190  0.2060
33548W        W76601  23.082  22.712  29.045 -0.0947 -0.0132 -0.2254
33549W        W76602  30.692  11.415   0.706 -0.2814 -0.1657  0.1948
33550W        W76603  14.548  15.087  21.494 -0.3111  0.2373  0.0361
33551W        W76604  26.053   7.284   7.121 -0.1279 -0.3096  0.0141
33552W        W76605  27.642   3.499   7.423  0.1282  0.0300 -0.0890
33553W        W76606  32.105   8.130   8.635  0.0886 -0.1389 -0.3439
33554W        W76607  15.456  13.718   8.709 -0.0351 -0.0144  0.2682
33555W        W76608  31.530  15.758   9.464  0.0327  0.2085  0.2835
33556W        W76609  18.048  28.339   9.898 -0.2630 -0.0849  0.1748
33557W        W76610   4.674   0.782   3.849 -0.1588  0.2313  0.0173
33558W        W76611   0.661   3.630  24.847  0.2101 -0.1117  0.1325
33559W        W76612  28.211  21.061  25.999 -0.1390 -0.0340 -0.2036
33560W        W76613  26.064   4.888   0.300  0.0984  0.0161 -0.0147
33561W        W76614  23.777  18.276  27.608 -0.0379  0.2976  0.0288
33562W        W76615  25.285  29.145   3.299 -0.1492  0.0357 -0.0016
33563W        W76616  33.563  15.162   0.614  0.0655 -0.1437 -0.1181
33564W        W76617   2.391  10.953  26.026 -0.4104 -0.2330 -0.1423
33565W        W76618  22.054  10.991   4.424  0.1323  0.1429  0.0938
33566W        W76619  25.325   0.631   0.180  0.0506  0.2148 -0.1477
33567W        W76620  31.006  21.150  26.137  0.1412  0.1307 -0.0282
33568W        W76621  31.923   0.959  26.049 -0.3800 -0.1557  0.0546
33569W        W76622  31.033  33.191  17.263 -0.0102  0.1050  0.0124
33570W        W76623   5.620  18.828   4.100 -0.1365 -0.0837  0.1323
33571W        W76624  20.136  13.188   8.317 -0.0986 -0.0399  0.0765
33572W        W76625  32.634  19.486   7.545 -0.0230  0.1058  0.3072
33573W        W76626  34.433   0.281   8.994  0.3686  0.0529  0.1372
33574W        W76627  17.593   6.604  27.541 -0.0521 -0.0880  0.1884
33575W        W76628  29.865  16.922   0.217  0.1404 -0.0833  0.2205
33576W        W76629  17.901  12.624   8.959 -0.0019  0.0081  0.1657
33577W        W76630  18.832  16.857   4.037  0.1959  0.0923  0.3179
33578W        W76631  21.173  17.217   8.965  0.1698 -0.0792  0.0149
33579W        W76632   1.959  24.466   2.626 -0.0015 -0.0523  0.3681
33580W        W76633   1.449   5.355  28.048  0.0627  0.0169 -0.1097
33581W        W76634  15.707  22.721   4.097  0.1102  0.0278 -0.3077
33582W        W76635  27.983  34.588  23.591  0.2477  0.1875 -0.0753
33583W        W76636   9.124  19.803   5.219  0.2486  0.2754  0.0801
33584W        W76637  15.894  12.975  27.050 -0.0957  0.2342 -0.0101
33585W        W76638  26.995  12.975   8.116 -0.0207  0.0860  0.3397
33586W        W76639  22.170  23.503   5.224 -0.2018  0.2319 -0.0597
33587W        W76640  17.561  11.046  29.025  0.1334  0.0170 -0.1782
33588W        W76641  34.130  22.149  26.537  0.0282 -0.0910 -0.0045
33589W        W76642  33.681  21.898   0.329 -0.2552  0.0361 -0.1036
33590W        W76643  17.007   4.124  26.657 -0.1940 -0.2078 -0.2691
33591W        W76644  16.292   1.322   6.574  0.1817 -0.3335  0.0767
33592W        W76645  26.961  22.088   9.423 -0.2744 -0.1111 -0.0505
33593W        W76646  13.072   3.202   7.146  0.0923 -0.0849 -0.2920
33594W        W76647  24.057  12.355   8.777  0.0485 -0.1482 -0.1342
33595W        W76648  23.253  15.117   8.703  0.0691  0.1023 -0.1424
33596W        W76649  23.571  15.754   5.113  0.0304 -0.3390  0.0363
33597W        W76650  34.541  14.271   4.615 -0.0375 -0.0227 -0.1442
33598W        W76651   1.954   0.599   5.359  0.4302  0.0111  0.0886
33599W        W76652   0.646  16.282   4.599  0.0638 -0.1529 -0.2473
33600W        W76653   0.533  14.670   2.087  0.0893 -0.0002 -0.1147
33601W        W76654   5.943  33.989   4.625  0.0644  0.2812 -0.0950
33602W        W76655   7.076   9.784  27.767  0.0150 -0.2249 -0.0343
33603W        W76656  31.136   7.320  16.937  0.2295  0.3802  0.0365
33604W        W76657  12.636  33.307   3.515 -0.0787 -0.1118 -0.0880
33605W        W76658  19.480  10.116   8.891 -0.0045 -0.0245 -0.0338
33606W        W76659  20.144   6.969   8.319  0.0727 -0.0544  0.1046
33607W        W76660  24.436   8.136   3.752 -0.0643  0.1205  0.4845
33608W        W76661  28.565   4.382   2.167 -0.2257  0.3202  0.0778
33609W        W76662  27.976  10.949  25.362  0.0351  0.1313  0.1565
33610W        W76663  25.473   7.440   9.533  0.0360  0.0389  0.1028
33611W        W76664  32.937   4.138   0.728  0.0167 -0.1664  0.0277
33612W        W76665  26.547  23.388   7.400 -0.1806 -0.4632 -0.0743
33613W        W76666   4.194  24.912  18.611  0.1186  0.1155  0.2433
33614W        W76667  27.791  32.601   3.389 -0.0632  0.2163  0.0414
33615W        W76668  22.724  18.659  28.472 -0.0937 -0.1547 -0.0755
33616W        W76669  24.918   7.462   4.908  0.2874 -0.1181  0.1625
33617W        W76670  11.884  34.496   9.070 -0.2348  0.0945  0.1023
33618W        W76671  19.597  16.237  26.457  0.3032  0.0044  0.1326
33619W        W76672   2.751   6.336   4.159  0.0678 -0.1092 -0.2198
33620W        W76673  18.306  19.867  28.569  0.0873  0.1642 -0.1463
33621W        W76674   1.580  17.842   2.190 -0.0374  0.4412  0.3348
33622W        W76675  32.259  14.810  26.502  0.0930 -0.1862  0.0718
33623W        W76676  30.650  19.180  26.830 -0.0185 -0.2340  0.0198
33624W        W76677  26.325  21.057  23.575 -0.0344  0.0706  0.0450
33625W        W76678  21.472  20.989   0.555  0.2149  0.2773 -0.2722
33626W        W76679   0.267  19.375  10.034  0.2004  0.3671  0.4260
33627W        W76680  31.350  31.006   6.401 -0.0407 -0.0312  0.1186
33628W        W76681  15.672  31.911   9.201 -0.0535 -0.2037  0.0197
33629W        W76682  19.004  27.342   6.158 -0.4326  0.1692 -0.0942
33630W        W76683  21.025   4.268   1.138  0.4018  0.0266  0.0495
33631W        W76684  11.451   2.497  20.255  0.1787  0.0179 -0.0089
33632W        W76685  23.842   8.747   5.948  0.1598  0.1341  0.2217
33633W        W76686  26.303  17.626   3.666  0.3022 -0.1049  0.0025
33634W        W76687  21.669  22.890  10.298  0.1099  0.3113  0.0134
33635W        W76688   0.269   3.878   8.869  0.2723  0.1688  0.2520
33636W        W76689  26.655  34.517   3.855  0.1683  0.0604  0.2535
33637W        W76690  31.846   9.265   2.081 -0.1071 -0.1618 -0.4044
33638W        W76691  27.895   4.764  29.195 -0.4870  0.0341  0.0411
33639W        W76692  16.121  25.599   6.970  0.0240 -0.0224 -0.2091
33640W        W76693  33.429  18.602   6.835  0.0318  0.0519 -0.0009
33641W        W76694  17.656  19.127  26.599  0.0619  0.1245 -0.1202
33642W        W76695  28.996  26.263  29.081  0.0546  0.0069  0.1042
33643W        W76696  24.766   1.963   3.807  0.0194  0.0388 -0.0435
33644W        W76697  20.021  17.235  26.115  0.0972 -0.3037 -0.0227
33645W        W76698  31.772  15.248   7.459  0.2458 -0.0780 -0.2807
33646W        W76699  27.551  10.201   8.954 -0.1827 -0.2019  0.0347
33647W        W76700  19.560  27.424  14.835 -0.0683 -0.0200  0.2190
33648W        W76701  23.704   7.163   7.076 -0.0047 -0.2816 -0.1823
33649W        W76702  13.871  34.279  15.872  0.1946  0.0720  0.0011
33650W        W76703  27.154  17.639   3.465 -0.0022  0.1774 -0.2437
33651W        W76704  25.143  16.077   9.328 -0.2804  0.1392 -0.3139
33652W        W76705   0.605  13.301   0.079  0.1866 -0.0382  0.2713
33653W        W76706  30.309  25.812  26.096  0.3780  0.0427 -0.0318
33654W        W76707  33.106  21.608   8.942  0.0876  0.0354 -0.5020
33655W        W76708  30.828  24.445  28.686  0.3694 -0.1988 -0.0949
33656W        W76709  27.467   3.917   2.961  0.0255 -0.0064  0.0296
33657W        W76710  20.500   0.343   1.066 -0.1399 -0.0234  0.0469
33658W        W76711  23.366  23.392   0.727  0.0395 -0.0754  0.1582
33659W        W76712  23.029  15.073   3.549  0.1542 -0.0330  0.0003
33660W        W76713  31.675  20.674   0.403  0.0795 -0.3087  0.2991
33661W        W76714  20.630   1.002   3.628 -0.2671 -0.1595  0.1948
33662W        W76715  28.756   9.709   8.272 -0.0005 -0.0923 -0.1495
33663W        W76716  20.674   2.202  17.803 -0.0506 -0.4517 -0.0384
33664W        W76717  21.226  24.261  16.725  0.1920  0.0783 -0.0940
33665W        W76718  22.140  23.313  23.314  0.0839 -0.2503  0.2092
33666W        W76719   7.247  11.614   5.335  0.1995  0.1031 -0.2625
33667W        W76720  31.732   9.633  26.374  0.4516  0.1900  0.1027
33668W        W76721   9.370   9.963   7.386  0.3233 -0.1295  0.0913
33669W        W76722  14.571   6.416  26.223  0.0183 -0.0898  0.0118
33670W        W76723  31.600  16.238   5.307 -0.1745  0.1752  0.0390
33671W        W76724  27.327  12.371  23.852  0.3228 -0.2232  0.2208
33672W        W76725  17.099  23.735   6.450 -0.0278 -0.2581 -0.1382
33673W        W76726  20.842  25.308   7.053  0.0009 -0.2141 -0.2209
33674W        W76727   6.397  13.523  14.836 -0.1070 -0.1415 -0.1650
33675W        W76728  18.697   8.372  17.393  0.0220  0.0508 -0.1938
33676W        W76729  29.876  14.174  10.835 -0.1795 -0.0739 -0.3784
33677W        W76730  30.407   9.857  26.930  0.3226  0.2864 -0.0281
33678W        W76731  25.447  29.469   3.831  0.0866  0.3037  0.0626
33679W        W76732  24.113  21.636  20.552  0.2137 -0.0760  0.0850
33680W        W76733  19.711  18.147  23.614 -0.2339 -0.2749  0.1046
33681W        W76734  17.953   1.188  28.530 -0.1176 -0.2818 -0.3086
33682W        W76735  19.782   8.683   3.743 -0.1212 -0.0278 -0.3276
33683W        W76736  32.097   5.397  22.833 -0.0127  0.1473  0.4043
33684W        W76737  31.215   3.434   7.194 -0.2116 -0.1289 -0.3242
33685W        W76738  27.395  19.284   9.546 -0.1319  0.1793 -0.0509
33686W        W76739  24.011   3.887  27.507 -0.1272  0.1037 -0.0440
33687W        W76740  22.353  22.996   3.661  0.1146  0.2189 -0.1147
33688W        W76741  21.785   0.644   5.563 -0.1941  0.0323 -0.1169
33689W        W76742  31.271  15.484   7.709 -0.0088  0.2387  0.2646
33690W        W76743  26.789  19.775  21.805  0.1126 -0.0606  0.1241
33691W        W76744  30.672  11.444  21.074 -0.3853 -0.1252 -0.2683
33692W        W76745   8.906   8.896   3.651 -0.2214 -0.1120 -0.1167
33693W        W76746  23.739  17.500  22.381  0.0427  0.1008  0.2091
33694W        W76747  27.519  19.756  28.454  0.2722 -0.1866  0.2575
33695W        W76748   0.347   8.679   2.162  0.0235 -0.2117 -0.1262
33696W        W76749  11.153  26.916   5.116  0.3041 -0.0432 -0.0022
33697W        W76750  18.023   0.735   8.081  0.0980  0.1144  0.0611
33698W        W76751  24.500  16.053   0.751  0.0917  0.1326  0.4681
33699W        W76752   1.638  31.680  13.193  0.1596 -0.0158 -0.0477
33700W        W76753  33.764   9.919   6.798 -0.1951  0.3312 -0.2856
33701W        W76754  22.859   9.764  28.541 -0.2497  0.1824 -0.1119
33702W        W76755   6.021  14.150  29.085 -0.1388 -0.0047 -0.0247
33703W        W76756  28.243   5.061   4.509 -0.0274 -0.2205  0.1324
33704W        W76757  25.926   6.680   2.825 -0.0293 -0.2549  0.0015
33705W        W76758  24.136   1.887  23.743 -0.0965  0.4519  0.0589
33706W        W76759  16.253  18.543   4.694 -0.2674 -0.1871  0.0760
33707W        W76760  16.508  14.381   8.456  0.0661  0.0850 -0.2089
33708W        W76761  23.311   7.677  26.218 -0.0948  0.0149 -0.1445
33709W        W76762  28.654  19.702   9.641 -0.1035 -0.2031 -0.0028
33710W        W76763  25.173  24.926  27.132  0.0522 -0.0556  0.1619
33711W        W76764  23.785  34.239  28.181  0.1225  0.1725 -0.0561
33712W        W76765   2.930  12.028  29.099  0.2049 -0.0422  0.2901
33713W        W76766  15.042  11.637   8.854  0.0725  0.1005 -0.2145
33714W        W76767  28.511  17.992  10.096 -0.0995 -0.0259 -0.1855
33715W        W76768  22.874   1.535   9.637 -0.1284  0.0622  0.3392
33716W        W76769   2.572  12.120  10.517  0.0079  0.1199  0.0828
33717W        W76770  26.409   9.219  24.777 -0.1606  0.3824  0.1400
33718W        W76771  28.485  18.925   6.432 -0.0145  0.1480  0.0274
33719W        W76772  21.331   9.234   5.199 -0.2110  0.1354  0.1150
33720W        W76773  21.193  28.925  26.241  0.2247  0.2063 -0.0824
33721W        W76774   4.345  24.948  24.984  0.2093 -0.0603 -0.0210
33722W        W76775  31.139  17.646   9.284  0.0766 -0.2332  0.1832
33723W        W76776  22.959  19.225   8.817  0.2940  0.3845  0.2135
33724W        W76777  14.704  23.350   4.293  0.0894 -0.2312 -0.0938
33725W        W76778   2.204   9.809   4.635  0.4459 -0.3740 -0.4071
33726W        W76779  16.487  21.722  26.423  0.4198 -0.0214 -0.0196
33727W        W76780  28.840  10.642   6.925  0.1311  0.1911  0.1898
33728W        W76781  13.879   2.806   6.035 -0.0890 -0.1726  0.0064
33729W        W76782   2.096  23.880  18.771  0.0599  0.2118 -0.1073
33730W        W76783  28.749   3.844   2.453 -0.1828  0.0793  0.3336
33731W        W76784  24.135  33.765  19.913  0.0647 -0.4896 -0.1444
33732W        W76785  14.393   0.963  28.586  0.0325 -0.1905 -0.2009
33733W        W76786   0.115   9.768   6.957 -0.0146 -0.1273  0.0457
33734W        W76787  21.049  15.992   0.067 -0.0552  0.0119  0.1567
33735W        W76788  34.476  12.323  27.888 -0.1297  0.0498 -0.1483
33736W        W76789  16.773  31.193   0.802  0.1528  0.0072  0.2917
33737W        W76790  20.832  20.148   8.974  0.2792  0.3371  0.2728
33738W        W76791  16.990  15.546   8.660  0.0726 -0.2390 -0.1235
33739W        W76792  27.839  19.772   3.302 -0.3450  0.3750  0.0491
33740W        W76793   1.843   8.115   8.918 -0.2683 -0.1335 -0.0448
33741W        W76794  27.812  17.935   9.845 -0.0708  0.1286 -0.0758
33742W        W76795  30.833   5.623  22.570 -0.1367  0.0056  0.2571
33743W        W76796  29.949  15.676   4.649 -0.6103  0.0701  0.0345
33744W        W76797   1.278  11.693  25.664  0.1330 -0.1450 -0.2953
33745W        W76798   6.348   3.795  20.903  0.5293  0.1136  0.1984
33746W        W76799  22.843  26.510   0.970 -0.0797  0.0203  0.4233
33747W        W76800  22.909   3.787  22.350  0.0689 -0.2622 -0.1713
33748W        W76801  30.889  10.930   9.256 -0.0742  0.1363 -0.0217
33749W        W76802   0.854   9.149   5.289 -0.0379  0.2433 -0.1209
33750W        W76803  27.145   0.971  28.072  0.1840 -0.0251  0.0808
33751W        W76804  30.493   9.078   6.181  0.1138 -0.1791 -0.0841
33752W        W76805  26.191   7.703   4.633 -0.1496  0.0639  0.1332
33753W        W76806  22.321   5.681   9.576  0.2198  0.1472 -0.0233
33754W        W76807  12.746  11.782   0.134  0.0040  0.1734 -0.3515
33755W        W76808  23.149   5.750  22.522 -0.1061  0.2081 -0.1029
33756W        W76809  20.356  14.825   9.098  0.1219  0.1535 -0.0415
33757W        W76810   9.806   6.041  24.623  0.0159 -0.3086 -0.0968
33758W        W76811  26.685  13.122   1.723 -0.0706  0.1296 -0.0415
33759W        W76812  24.384  13.325   7.420  0.3503 -0.0615 -0.0627
33760W        W76813  28.261  16.792   9.595  0.1662 -0.0817  0.3191
33761W        W76814  31.127  15.344   4.577 -0.4598 -0.2394  0.3629
33762W        W76815  20.418  20.254   5.142  0.1403 -0.1892 -0.1113
33763W        W76816   9.478  26.609   9.331 -0.0559 -0.0835 -0.0054
33764W        W76817  33.199   9.120  25.489 -0.0786 -0.1343  0.1057
33765W        W76818  26.525   6.988  21.711 -0.2670  0.0709  0.1538
33766W        W76819  32.666  17.623   5.480 -0.0152 -0.1986  0.0474
33767W        W76820   9.433  18.783   5.592 -0.0408  0.0547 -0.0878
33768W        W76821  10.503   7.461  10.243  0.0572  0.0695 -0.2800
33769W        W76822  30.257  11.811   9.880  0.0695 -0.2461  0.2864
33770W        W76823  33.219  19.096   6.977  0.1724 -0.1061  0.1096
33771W        W76824  27.600  13.370   3.829  0.0001 -0.2125 -0.0164
33772W        W76825  16.136  12.219  27.584  0.1838  0.3411  0.0796
33773W        W76826   2.054  28.827  21.706  0.0855 -0.2485 -0.2007
33774W        W76827  21.556  16.020   9.923 -0.1648 -0.0448  0.0909
33775W        W76828  20.572  11.941   1.868  0.0360  0.1450 -0.1679
33776W        W76829  31.631  31.210   7.879  0.0343  0.1285  0.1864
33777W        W76830  25.669  19.737  24.797 -0.2483  0.3091 -0.0459
33778W        W76831  33.837  13.857   7.366 -0.3294 -0.1364 -0.1652
33779W        W76832  20.005  26.121  18.607 -0.2882 -0.2572 -0.3582
33780W        W76833   4.031  27.588   3.800  0.0273 -0.0007  0.4324
33781W        W76834   6.437  34.431  19.305 -0.3417 -0.2019  0.0661
33782W        W76835   2.382  11.217  21.650 -0.3281  0.0049 -0.0364
33783W        W76836  10.666  17.690   7.373 -0.3666  0.0516  0.0304
33784W        W76837  10.525  11.975   7.373  0.3987  0.0996  0.2603
33785W        W76838  24.201   3.474  24.567  0.0513  0.1783 -0.4713
33786W        W76839   4.366   2.767   0.975  0.0338  0.2612 -0.1169
33787W        W76840  25.794  16.601   2.251 -0.0883  0.1036  0.1106
33788W        W76841  34.536  27.658  27.308  0.2054 -0.2913  0.1980
33789W        W76842  28.928  12.985   2.960  0.1591  0.0786  0.1173
33790W        W76843  28.075  22.843   1.883  0.2332  0.0744 -0.3157
33791W        W76844  25.310  18.060   9.602  0.1628  0.2209  0.0948
33792W        W76845  24.824  13.853  28.655  0.1961 -0.0616 -0.1557
33793W        W76846  20.339  14.052  24.293 -0.2372 -0.1200  0.1451
33794W        W76847   5.810  17.035   8.784  0.1919  0.1558  0.1373
33795W        W76848  16.721  21.719   1.643  0.1407 -0.3662 -0.3867
33796W        W76849  31.272  34.187   8.906 -0.1070 -0.1955  0.0268
33797W        W76850  28.985  18.797   1.405  0.1847 -0.1379  0.0317
33798W        W76851  21.930  18.351  26.661 -0.0933  0.3333 -0.1161
33799W        W76852  23.356  16.611  28.461  0.1438 -0.1623  0.2326
33800W        W76853  27.978  19.718   4.790  0.1418 -0.2987  0.2307
33801W        W76854  26.307  25.289   7.594  0.0941 -0.0945  0.1680
33802W        W76855   1.557  11.903  10.388  0.3651  0.1004 -0.1228
33803W        W76856  16.114   3.171   1.864 -0.0328 -0.2505  0.0661
33804W        W76857  13.242   2.813   4.422  0.2102  0.0450  0.0557
33805W        W76858  32.985   5.538   9.501 -0.1238 -0.1281 -0.2504
33806W        W76859  21.460   9.924  14.681  0.0363  0.0117  0.2108
33807W        W76860   3.951  30.167   1.347  0.1360 -0.1477  0.0661
33808W        W76861  23.738  13.234   4.679  0.1877  0.3379 -0.0730
33809W        W76862  28.762   7.501   7.692 -0.1107  0.2627 -0.1519
33810W        W76863  32.380  19.110  26.678  0.0198 -0.4452 -0.2267
33811W        W76864  23.547  25.068  28.601  0.0311  0.2286  0.1849
33812W        W76865   3.357  16.041   1.033 -0.0155 -0.1921  0.1891
33813W        W76866  22.467   1.916   0.729 -0.0366 -0.1459  0.1433
33814W        W76867  24.162   7.977  22.546  0.2841 -0.5348 -0.1257
33815W        W76868  22.865   5.929  29.160  0.1043  0.0299  0.2112
33816W        W76869  22.049  13.258   7.119 -0.1744  0.1725 -0.1405
33817W        W76870  11.642  17.662   3.392  0.4262  0.1013 -0.2220
33818W        W76871  11.389  11.895   1.666 -0.2724 -0.0932 -0.1601
33819W        W76872  19.325  21.719   1.746 -0.0519  0.0593 -0.0613
33820W        W76873  33.006   6.915   2.986  0.0469 -0.0226  0.2496
33821W        W76874  25.962  18.979  28.388  0.2910  0.2478  0.0074
33822W        W76875  22.658  21.745   8.444 -0.0362  0.2596  0.0428
33823W        W76876  18.219  15.771   5.259  0.1766 -0.2195 -0.1574
33824W        W76877  30.902  17.966  21.191  0.0051  0.2507 -0.0914
33825W        W76878  31.427   7.736   8.013 -0.0918 -0.0413  0.2803
33826W        W76879   1.346  16.695  20.168 -0.0424  0.1092 -0.1058
33827W        W76880  27.600  11.096   2.136  0.0215  0.0532 -0.0301
33828W        W76881  33.334   1.127  24.584 -0.1442  0.2205  0.0838
33829W        W76882  33.703   4.883   5.997  0.0072  0.0354  0.2421
33830W        W76883  34.017  12.605   3.583 -0.2491  0.1021 -0.1996
33831W        W76884  28.452  21.787   8.291  0.3031 -0.4367  0.0951
33832W        W76885  26.199  32.426   5.039  0.1289  0.0092  0.0285
33833W        W76886  20.641  31.426   3.225  0.4098 -0.0982 -0.2461
33834W        W76887   6.802   7.133   6.267 -0.1633  0.1550 -0.0577
33835W        W76888  32.237  19.526   7.285 -0.2994  0.0446  0.0233
33836W        W76889   4.222   0.101   3.441 -0.2088 -0.0911 -0.1059
33837W        W76890  16.384  25.810   3.065 -0.0589 -0.2513  0.0016
33838W        W76891  28.454  14.350   1.700  0.2005  0.0896  0.0182
33839W        W76892  20.931   0.905   6.857 -0.1367  0.0106  0.1424
33840W        W76893  29.161  11.515   9.975  0.2055 -0.0666  0.2879
33841W        W76894  32.779   3.300   5.483  0.4225 -0.1195 -0.1373
33842W        W76895  21.807  14.497   3.464  0.1971  0.3158 -0.2101
33843W        W76896   8.141  20.722   6.860  0.1569 -0.1303  0.1202
33844W        W76897  27.012  12.611   9.435 -0.2328  0.1755  0.0476
33845W        W76898  16.931  14.553   3.621 -0.1551 -0.1663  0.0660
33846W        W76899  22.967  18.051   5.799  0.2754  0.0897  0.0295
33847W        W76900  19.189   3.590   7.846  0.0577  0.0664  0.1563
33848W        W76901  24.490   5.629   6.170 -0.1960 -0.2039 -0.1416
33849W        W76902  24.286   1.513   9.417 -0.1186  0.0015  0.1765
33850W        W76903  34.409   4.458   9.169  0.0462  0.0127 -0.3357
33851W        W76904  25.184   5.762  22.923 -0.1411 -0.1714 -0.0023
33852W        W76905  23.132  25.073   4.830  0.0322 -0.0375  0.1702
33853W        W76906  18.227  23.610  22.449 -0.2640  0.0297  0.1842
33854W        W76907  31.526  29.404   9.099  0.2536 -0.0647 -0.3918
33855W        W76908   5.674  14.394   8.018 -0.0985  0.0113 -0.0435
33856W        W76909  25.150  10.148   3.074  0.1007 -0.1985  0.0980
33857W        W76910  22.039  18.033   7.373 -0.2293 -0.2041 -0.1196
33858W        W76911  28.953   0.906   2.964 -0.2328  0.1267  0.3433
33859W        W76912  19.881  10.993   2.279  0.1947  0.0203 -0.0356
33860W        W76913  15.546   6.025   5.773 -0.2696 -0.2233  0.3688
33861W        W76914  33.844  12.755   0.952 -0.0924  0.0025  0.0052
33862W        W76915  32.393  33.147   2.594  0.0764  0.1006 -0.1867
33863W        W76916  28.867  25.001   2.609 -0.0991 -0.1021 -0.0856
33864W        W76917  10.695  20.277   0.644  0.3290  0.0430 -0.1312
33865W        W76918  24.435  12.550   9.818  0.2296  0.0043  0.2159
33866W        W76919  12.029   7.396   9.929  0.2532  0.2244  0.0359
33867W        W76920  32.205  22.981   2.983 -0.0238 -0.2487  0.2400
33868W        W76921  15.575  24.211   4.158  0.1193  0.1123 -0.1364
33869W        W76922  21.613  12.707   5.318 -0.0539 -0.4426 -0.1696
33870W        W76923  31.297  14.448   5.167 -0.1610 -0.0910 -0.2890
33871W        W76924  32.300  29.702  26.103 -0.0044 -0.0173  0.1067
33872W        W76925  21.648  23.723   8.305 -0.0409  0.2689  0.1657
33873W        W76926  25.336   1.657   4.950 -0.0721  0.0715  0.2436
33874W        W76927  21.094  16.496  29.054 -0.3759  0.0347 -0.0485
33875W        W76928   4.609  10.098  19.466  0.0556  0.4625 -0.0266
33876W        W76929  28.725  14.646   9.295 -0.0053  0.0996 -0.0789
33877W        W76930  15.300  19.008  10.464 -0.3223  0.1405  0.0487
33878W        W76931  13.918   8.605   8.096  0.3120  0.2717 -0.2250
33879W        W76932   3.575  24.432   0.608  0.0836 -0.0938 -0.0166
33880W        W76933  17.087  23.429   8.038  0.2219 -0.3072  0.0117
33881W        W76934  14.357   3.206   5.782 -0.0954  0.0897 -0.1612
33882W        W76935  32.234   9.828   2.792 -0.2727  0.0872 -0.0552
33883W        W76936  30.805   2.776   4.813  0.0365 -0.1581 -0.2555
33884W        W76937  23.591  30.721   0.453  0.0780  0.0104  0.0523
33885W        W76938  12.009  16.107   6.728 -0.0960  0.1932 -0.0630
33886W        W76939  17.814   5.786  23.448  0.2389 -0.0436  0.2147
33887W        W76940  29.796  30.448   0.064 -0.0945  0.3234 -0.0194
33888W        W76941  23.169  22.698   5.750 -0.0661 -0.1720 -0.1176
33889W        W76942  10.250  34.108   6.293 -0.1965 -0.3580 -0.0782
33890W        W76943  30.390  22.595   9.492 -0.0368  0.1447  0.0711
33891W        W76944  25.678   4.635   4.708  0.0409  0.0067  0.1472
33892W        W76945  27.515  18.006   6.335  0.0698 -0.0157  0.1572
33893W        W76946  32.980  24.895   1.986  0.4077 -0.1647 -0.2590
33894W        W76947  27.753  28.956  17.256 -0.2519 -0.0859  0.1952
33895W        W76948   2.087   1.160  21.491  0.1790 -0.0547  0.0494
33896W        W76949   1.708  10.856   0.807 -0.1348 -0.0399 -0.2629
33897W        W76950  24.706   5.036   8.737 -0.2457  0.0758  0.1034
33898W        W76951  31.154   7.465   3.647 -0.2004  0.0050 -0.0671
33899W        W76952   6.920   9.697   6.911 -0.5719 -0.0865 -0.0660
33900W        W76953  34.367   8.684   7.423 -0.2377  0.0205 -0.1107
33901W        W76954  27.669  21.767   9.588  0.0654 -0.0983 -0.1265
33902W        W76955  22.223  14.107   6.545  0.1065 -0.1947  0.3837
33903W        W76956  25.586  22.574  21.887 -0.2737 -0.1032  0.1158
33904W        W76957  31.346  23.482   9.286 -0.2447  0.2250  0.0468
33905W        W76958  19.877   7.303  21.963  0.2384  0.0402 -0.1614
33906W        W76959  18.754  18.917   5.761  0.2304  0.1019 -0.2343
33907W        W76960  29.379  18.009   1.167 -0.0262  0.1649 -0.0178
33908W        W76961  23.931  14.944   0.507 -0.0194 -0.0515  0.1782
33909W        W76962  22.617  15.645   5.833  0.0160  0.0335 -0.2735
33910W        W76963  30.860   9.138   2.225 -0.1495 -0.1749 -0.1385
33911W        W76964  32.609  30.592   6.377  0.3867 -0.1161 -0.1543
33912W        W76965  26.292  18.488  28.705 -0.0604 -0.0512  0.1657
33913W        W76966  21.184  13.970  25.070  0.0334  0.0527  0.0360
33914W        W76967  30.674  21.383   1.469 -0.0589  0.0298  0.0528
33915W        W76968  32.394  13.602   7.846  0.3855  0.3972 -0.0644
33916W        W76969  25.473  10.951   3.232 -0.1210  0.0590 -0.3165
33917W        W76970   3.708  16.116   3.328  0.1816 -0.1208  0.0571
33918W        W76971  33.002  21.226   9.834  0.0608  0.0490 -0.1687
33919W        W76972  19.853   1.993   4.200 -0.0009 -0.2042 -0.0367
33920W        W76973   4.129  12.704   5.746  0.0447  0.1343 -0.2276
33921W        W76974  31.095  20.666   7.629 -0.1671 -0.2410  0.0197
33922W        W76975  19.279  17.092   7.041  0.3797 -0.0649 -0.1404
33923W        W76976  32.057  29.193   7.971 -0.2894 -0.0870 -0.1619
33924W        W76977  21.897  20.424   3.138  0.0985  0.1795  0.0922
33925W        W76978   2.591  12.819   8.954 -0.1220  0.3408 -0.1692
33926W        W76979  33.233  15.320   7.411 -0.2232 -0.0561 -0.0650
33927W        W76980  27.119   4.914   7.238 -0.1930 -0.1081 -0.2592
33928W        W76981  19.884  20.708  25.361  0.2559 -0.0430 -0.2197
33929W        W76982  28.011  21.796  26.676  0.0756 -0.3731  0.3440
33930W        W76983  27.133  10.875   1.150 -0.0715 -0.3238 -0.1452
33931W        W76984  11.033   0.931   8.385  0.0208  0.1445  0.0376
33932W        W76985  26.995  12.562   5.285  0.0509 -0.3782 -0.0640
33933W        W76986  29.861  17.371   9.392  0.3138  0.1267 -0.1250
33934W        W76987  24.364  16.056   4.573  0.0549  0.1118  0.1115
33935W        W76988  17.753  16.817  19.110 -0.0040  0.4118 -0.1227
33936W        W76989  27.665   9.191   5.940  0.0137  0.1865 -0.0316
33937W        W76990  27.549  16.763   6.562  0.3541 -0.2020  0.2866
33938W        W76991   5.245  19.487   8.623 -0.0056 -0.0857 -0.1646
33939W        W76992  15.945  13.782   3.295 -0.0038 -0.1781  0.0898
33940W        W76993  31.820  27.844   0.964 -0.2043  0.1551 -0.1538
33941W        W76994  20.942   0.541   0.824 -0.2218 -0.0265  0.0838
33942W        W76995  30.068   3.422   3.273  0.0430 -0.1486  0.0159
33943W        W76996  27.950  17.315  26.786 -0.0654 -0.0415  0.0953
33944W        W76997   2.968  17.326  29.117 -0.2164 -0.1276 -0.1086
33945W        W76998  23.865  11.137   7.034  0.0042  0.0107 -0.0889
33946W        W76999   1.768  34.336   1.785 -0.0293 -0.2330  0.1547
33947W        W77000  30.862   5.674   5.177 -0.1620  0.0726  0.2629
33948W        W77001  24.572  33.260  10.499 -0.1326  0.0086  0.1105
33949W        W77002   2.222   0.221   5.067 -0.0269  0.1297  0.0503
33950W        W77003  30.329  14.785  10.350 -0.2151  0.5436 -0.4616
33951W        W77004  24.160  16.443   0.966  0.4839 -0.3016 -0.3742
33952W        W77005  31.744   7.963  27.526 -0.0752  0.1735 -0.2732
33953W        W77006  21.747  34.016   2.058  0.2264  0.1354  0.4283
33954W        W77007   9.753  12.212   5.110  0.1754  0.1460 -0.0695
33955W        W77008  27.828  30.172   9.397 -0.0236 -0.2867  0.2147
33956W        W77009  33.513   7.882   2.066  0.0964  0.2522 -0.2321
33957W        W77010  33.076   8.841   8.745  0.0761 -0.2316 -0.0188
33958W        W77011  15.713  21.500   9.551 -0.0914 -0.0336  0.2055
33959W        W77012  34.413   6.479   2.739 -0.1430  0.1437  0.3976
33960W        W77013  31.639  31.641   3.786 -0.3925 -0.0430 -0.3588
33961W        W77014  19.873  23.047   8.467  0.3714 -0.0447 -0.0012
33962W        W77015   9.101   9.274   3.396 -0.1007  0.1118 -0.2569
33963W        W77016  20.642  27.466  19.810  0.2523 -0.2528 -0.2773
33964W        W77017  13.898  15.284   1.900 -0.1943 -0.2463 -0.0436
33965W        W77018  33.921   5.477   6.197 -0.0305 -0.4163  0.1146
33966W        W77019  25.989  13.165   6.612  0.0737  0.2915  0.0159
33967W        W77020  17.271  12.322   8.891 -0.1956 -0.2264 -0.3515
33968W        W77021  17.787  19.306  28.098 -0.2187 -0.1248 -0.2262
33969W        W77022  21.760  14.124   7.720  0.0548 -0.2815  0.4097
33970W        W77023  33.052  10.524  28.606 -0.0959  0.1075 -0.2367
33971W        W77024  28.335   5.664   7.458  0.0823  0.1844 -0.1290
33972W        W77025  28.287  23.396   7.963  0.0855 -0.0314 -0.1185
33973W        W77026  28.360  16.882   1.825  0.1199 -0.2249  0.0869
33974W        W77027  33.983   6.401   5.947 -0.1558  0.2374  0.2000
33975W        W77028  16.665  12.301   9.726  0.1231  0.0394  0.0001
33976W        W77029  14.825  14.420   8.718 -0.0646 -0.1237  0.3377
33977W        W77030   3.112  33.470   0.724 -0.1647 -0.1885 -0.0872
33978W        W77031  18.785  30.887   3.086 -0.0669  0.4338 -0.0323
33979W        W77032  10.084  15.115   5.947  0.0347 -0.0069 -0.2724
33980W        W77033  27.053  16.440  24.049  0.0791 -0.4190  0.1777
33981W        W77034  29.250  25.659   7.416  0.5030  0.0408  0.0472
33982W        W77035  24.267   8.113  28.169  0.2462  0.2769 -0.3675
33983W        W77036  18.307  13.489   7.920 -0.0748 -0.2222  0.2775
33984W        W77037   7.383   7.855   4.810  0.0006 -0.0934 -0.0794
33985W        W77038   7.398  19.339   8.794  0.1320  0.1289 -0.2438
33986W        W77039   2.901  22.533  25.648  0.0413  0.0535 -0.0955
33987W        W77040  21.709   2.256   6.494  0.1034  0.3940  0.0572
33988W        W77041  19.917  15.664   1.017 -0.1564 -0.3284 -0.0612
33989W        W77042  28.804  22.096   5.367  0.2730  0.0513  0.0292
33990W        W77043  22.525   2.043   3.666  0.1094 -0.0282  0.1443
33991W        W77044  19.104  23.971  27.560 -0.1100  0.0895 -0.3495
33992W        W77045  32.769  32.359  26.837  0.3054 -0.2187 -0.0119
33993W        W77046  26.283  12.988  21.537  0.1110 -0.0136 -0.2665
33994W        W77047  30.916  27.999  27.068 -0.1501  0.2750  0.0554
33995W        W77048  29.807  13.405   2.609 -0.0885  0.0401 -0.2439
33996W        W77049  25.683  11.992   2.037  0.1339 -0.1719 -0.1005
33997W        W77050  29.069   9.996   8.699  0.1529 -0.1520  0.0826
33998W        W77051   3.983  19.839  20.299 -0.1610  0.4040  0.1980
33999W        W77052  21.310  13.402   8.044  0.0483  0.4481  0.2772
34000W        W77053  33.820   7.645   8.627 -0.1349 -0.1079  0.0587
34001W        W77054   3.255   9.024   8.144 -0.2026  0.0613 -0.1477
34002W        W77055   4.234  23.461  28.417  0.0329 -0.0468 -0.0772
34003W        W77056  10.022  20.141   7.773 -0.0892 -0.0105  0.2231
34004W        W77057  33.380   9.679  17.294  0.0054 -0.0540 -0.0569
34005W        W77058  19.467  11.671   9.187 -0.0733 -0.2049 -0.4280
34006W        W77059  13.305  12.490   8.000  0.0063 -0.2770 -0.1075
34007W        W77060   2.452   7.585  29.162  0.0454  0.1853  0.0913
34008W        W77061  23.981  15.574   5.396 -0.4680  0.0955 -0.1057
34009W        W77062   4.729  13.096  16.331  0.0685  0.1211  0.1498
34010W        W77063  17.648  22.068  15.051 -0.1602 -0.0581  0.0739
34011W        W77064  30.211  32.144   9.339 -0.2153 -0.2914  0.3036
34012W        W77065  21.748   0.349   9.659  0.0300 -0.0017 -0.3199
34013W        W77066  28.507   2.578   5.986 -0.2209  0.1684 -0.1845
34014W        W77067  31.330   4.068   9.374 -0.1945  0.0268  0.3964
34015W        W77068  25.652  10.185   2.827 -0.0675 -0.0741 -0.3164
34016W        W77069  28.592  32.653  27.081 -0.1444  0.1862  0.0135
34017W        W77070   2.277  30.985   5.078 -0.2346  0.0927 -0.2096
34018W        W77071  19.474   7.279  10.230 -0.0663 -0.2349  0.1572
34019W        W77072  21.616  19.676  23.649 -0.1613 -0.0295  0.1239
34020W        W77073   5.072  23.792  10.211 -0.4525 -0.0350  0.2130
34021W        W77074  16.980   7.427  23.451  0.2541 -0.1319 -0.0509
34022W        W77075  22.242  16.008   3.515  0.2622  0.1962  0.1957
34023W        W77076  15.324  33.494   4.235 -0.0698 -0.2978  0.0946
34024W        W77077  32.188  33.060   9.455 -0.0924  0.1395  0.0194
34025W        W77078  23.718  11.986  26.591  0.0349  0.0914 -0.1088
34026W        W77079  29.307   8.633   4.667 -0.0447  0.0443  0.2944
34027W        W77080   7.042  22.367  23.374 -0.3065  0.1245 -0.2948
34028W        W77081  24.937  17.169  26.508 -0.0428 -0.1913 -0.1344
34029W        W77082  30.831   5.151   5.613 -0.2238  0.2040 -0.0077
34030W        W77083   1.268  15.280  21.111  0.0895  0.2889 -0.1907
34031W        W77084  32.939   4.193  10.232 -0.1957  0.1729 -0.2667
34032W        W77085  19.538  19.092   7.978 -0.0969 -0.0977  0.1908
34033W        W77086  20.165  20.801   0.797  0.0573  0.2140 -0.0285
34034W        W77087  10.032   6.930   7.300 -0.0717  0.0399  0.2538
34035W        W77088  17.129   7.083  22.989  0.1463 -0.2290 -0.0384
34036W        W77089  26.752   1.127  27.163  0.3270  0.1541 -0.2725
34037W        W77090  26.287  10.688   8.160 -0.0808  0.4653  0.0814
34038W        W77091  27.663  19.119   6.717  0.1940  0.0400  0.3074
34039W        W77092  27.745   8.266  28.021 -0.1054  0.0572 -0.2810
34040W        W77093  10.440  17.016   4.203  0.3038  0.0300 -0.2740
34041W        W77094  18.887  23.035  28.765 -0.1479  0.0905 -0.0553
34042W        W77095  24.973  28.683  27.897 -0.0103 -0.0069  0.1257
34043W        W77096  23.678  24.456   8.896 -0.3439 -0.2862  0.2017
34044W        W77097  23.756   5.559  24.767 -0.1707 -0.0110 -0.1134
34045W        W77098  30.566   3.510  18.038  0.0256  0.1428  0.3207
34046W        W77099   1.928  30.847  27.180 -0.1211 -0.0580  0.1737
34047W        W77100  22.518  17.706   0.593  0.1240  0.1212 -0.1411
34048W        W77101  32.520  21.016   6.253  0.1052 -0.0028  0.2734
34049W        W77102  20.707  26.665   8.767  0.2573 -0.1223  0.3740
34050W        W77103  34.080  14.647  22.865  0.2125 -0.0007  0.1309
34051W        W77104  26.849  22.080   7.211 -0.2598 -0.1057  0.1202
34052W        W77105  34.566  19.611   6.647 -0.2897 -0.1456 -0.0890
34053W        W77106  28.263  30.040   4.364  0.0077  0.0182 -0.1301
34054W        W77107  15.030   5.008   5.638  0.1407 -0.1613  0.1203
34055W        W77108  23.941  14.417  26.794 -0.2376 -0.1268  0.1591
34056W        W77109  20.109   6.143   7.485  0.1482  0.1321 -0.0744
34057W        W77110   3.510  15.007   6.175 -0.0278 -0.2777  0.0425
34058W        W77111   1.276  13.042  15.512  0.2896 -0.0729 -0.4995
34059W        W77112  26.266  30.406   0.235 -0.1276 -0.2933  0.2027
34060W        W77113  26.476   1.383   8.277 -0.0546  0.1723 -0.0320
34061W        W77114  20.468  24.056   7.046 -0.2087  0.1454 -0.1845
34062W        W77115   4.873  16.741   7.301  0.0115 -0.1804 -0.2153
34063W        W77116  30.575  10.288   3.437  0.1608 -0.2097 -0.0934
34064W        W77117  19.922  10.986  22.684 -0.0506  0.0796  0.2443
34065W        W77118   6.205  14.052  22.869  0.0164  0.1952  0.2146
34066W        W77119  31.904  14.239   6.309 -0.1076 -0.1055 -0.0225
34067W        W77120  11.242  11.977   5.901 -0.3498 -0.2568 -0.0529
34068W        W77121  27.283  15.046  20.155  0.2441  0.0127 -0.0784
34069W        W77122  32.341  16.743   3.945  0.2402 -0.0849  0.0333
34070W        W77123  10.545  21.959   3.383 -0.0021 -0.0925 -0.1267
34071W        W77124  34.272  21.655  27.305  0.0030 -0.0208  0.1896
34072W        W77125  12.864  11.580  21.551 -0.3330 -0.0920  0.2458
34073W        W77126  29.544   3.311   9.503 -0.1115 -0.0360  0.2582
34074W        W77127  23.210  33.636   8.049  0.0824  0.0041  0.2177
34075W        W77128  18.566  10.918   5.491  0.1436 -0.1591  0.0897
34076W        W77129  25.349  10.918   3.757  0.0748 -0.0563  0.1828
34077W        W77130  26.689  22.482   7.496 -0.1658  0.1155 -0.0923
34078W        W77131  13.760  20.569   3.087  0.1237  0.1157 -0.1886
34079W        W77132  31.065  19.914  21.876  0.0865  0.0187 -0.2381
34080W        W77133   4.973   6.399   5.878 -0.0075 -0.2903 -0.1292
34081W        W77134  10.612  11.334   0.759 -0.1897  0.1537 -0.2049
34082W        W77135  26.191   9.118   8.263  0.0982  0.1277  0.1166
34083W        W77136  14.080  12.786   8.127 -0.0780  0.0225 -0.1099
34084W        W77137  11.811  14.493   6.042  0.0306  0.1877  0.0971
34085W        W77138  27.940  15.947   6.518 -0.1439 -0.2025  0.1895
34086W        W77139  32.926   0.420  27.111 -0.3084  0.0914  0.0985
34087W        W77140  30.709  25.202  14.599  0.1424 -0.0195  0.1111
34088W        W77141   1.549  34.253  28.837  0.2620 -0.1787  0.3443
34089W        W77142  28.226  20.150  29.132  0.1531 -0.0630 -0.0633
34090W        W77143  25.268  16.023  21.579 -0.1344  0.0380  0.0239
34091W        W77144   6.757  10.202   2.484  0.0604 -0.0561 -0.3160
34092W        W77145  28.250  30.958   7.381 -0.1114  0.0503  0.0197
34093W        W77146  22.840   0.598   0.872  0.0846  0.0578  0.2828
34094W        W77147   7.766   4.426  28.107  0.0411  0.1689 -0.1479
34095W        W77148  23.516  12.301   1.548 -0.1605 -0.1352 -0.2369
34096W        W77149  20.136  24.533   4.841  0.0694 -0.3511  0.0819
34097W        W77150   9.825  27.356   4.079  0.1942  0.3908  0.2073
34098W        W77151  29.507  16.086  16.181  0.0828  0.0859  0.1217
34099W        W77152  33.744  21.157  14.180  0.0100 -0.0298 -0.3799
34100W        W77153  17.594   2.053   5.911  0.4077 -0.2349 -0.1414
34101W        W77154  21.987  15.167  27.487  0.1760 -0.1302 -0.1234
34102W        W77155  28.514   2.072  25.482 -0.3594 -0.2431  0.0932
34103W        W77156  32.526  11.598  20.177  0.0076  0.0099 -0.1426
34104W        W77157  16.110  28.584   1.625  0.1377  0.3235  0.2652
34105W        W77158  33.494  22.788  23.507 -0.2035 -0.0508 -0.3174
34106W        W77159   6.676  16.132   5.523 -0.3551  0.0114 -0.1570
34107W        W77160  25.366  32.618   9.666 -0.0437  0.1107 -0.2191
34108W        W77161  27.806   5.551   8.138  0.0163  0.0695  0.0111
34109W        W77162  29.666  18.765   7.956 -0.1177 -0.2914 -0.1032
34110W        W77163  23.698  27.788   8.150 -0.1694  0.0281 -0.3956
34111W        W77164  31.965  22.482   8.105  0.0641  0.1413  0.1143
34112W        W77165  17.093  28.943  25.787  0.1033  0.0096 -0.3974
34113W        W77166  17.578  20.809   4.249  0.1323 -0.1231 -0.1123
34114W        W77167  14.755  15.387   9.292  0.1907 -0.0759  0.1124
34115W        W77168  19.747  26.889   3.180  0.3492  0.1679 -0.1822
34116W        W77169  11.903  21.402  28.400 -0.0560  0.3083  0.0716
34117W        W77170  12.696  24.446   3.108  0.0368 -0.1389 -0.0882
34118W        W77171  25.746   7.347  28.786 -0.1051 -0.0777 -0.1087
34119W        W77172  21.268  11.936   5.172  0.0353 -0.0687 -0.0881
34120W        W77173  26.927  23.756   2.660 -0.2092  0.0847 -0.0257
34121W        W77174   1.172  34.124  24.383  0.0564 -0.2449  0.0933
34122W        W77175  14.760   5.269   9.716  0.2117 -0.1667  0.1277
34123W        W77176   3.983   6.328  27.213 -0.3555 -0.3614  0.4385
34124W        W77177  18.904   9.149  22.452  0.2521 -0.2542 -0.4145
34125W        W77178  18.607   4.695  10.973  0.1832 -0.0623 -0.0812
34126W        W77179  31.641   7.501  27.565 -0.4090 -0.2727 -0.2942
34127W        W77180  24.576   4.657   1.674 -0.0278  0.3377  0.1069
34128W        W77181  27.744  24.459   7.429  0.1027 -0.0741 -0.0025
34129W        W77182  23.874   2.257  16.211  0.0599 -0.1307 -0.0322
34130W        W77183  33.605  33.150   7.528  0.0675 -0.3830 -0.0754
34131W        W77184   6.798  33.530  27.878  0.2058  0.1712 -0.1766
34132W        W77185   5.936  31.474  18.919 -0.1548 -0.0696  0.1208
34133W        W77186  29.871  14.165  19.017  0.1829 -0.0992 -0.2045
34134W        W77187  20.723  19.726   2.568  0.2623  0.0219  0.1779
34135W        W77188  21.154  29.830  18.860  0.1977 -0.0834  0.0803
34136W        W77189  29.915  19.709   5.487  0.1916  0.1265  0.1483
34137W        W77190  18.095  13.139  22.424  0.0160 -0.1215  0.0404
34138W        W77191  18.212  23.233  16.018  0.1488 -0.1738 -0.2520
34139W        W77192  29.760  31.993  22.847 -0.2192  0.3467 -0.0466
34140W        W77193  33.658  21.269  26.244 -0.2257 -0.1459  0.0487
34141W        W77194  29.931  22.820   9.825  0.0392 -0.2122 -0.2396
34142W        W77195  26.172  30.318  27.100  0.2461  0.2410 -0.3162
34143W        W77196  13.635  14.840   2.172  0.0948 -0.0903 -0.0981
34144W        W77197  33.100  11.743   9.416  0.0333  0.0403 -0.0073
34145W        W77198  29.968  17.349   2.301  0.1997 -0.3184  0.1873
34146W        W77199  14.250  30.276  20.558  0.0523  0.0808 -0.1633
34147W        W77200  23.223  22.005  25.510  0.0392 -0.2152  0.1890
34148W        W77201  22.961  10.292   5.621 -0.2112  0.2600  0.0024
34149W        W77202  18.234   7.939   3.323  0.2333  0.1342 -0.4573
34150W        W77203  27.875  10.718  27.109 -0.0598 -0.1187 -0.1153
34151W        W77204   7.953  16.456   6.313  0.0554  0.3819 -0.1163
34152W        W77205   8.748  17.567  20.788  0.1948 -0.0563 -0.0245
34153W        W77206  19.551  31.254   2.312 -0.0250  0.1668 -0.0576
34154W        W77207   1.772  15.742  21.718 -0.1599 -0.0816 -0.3356
34155W        W77208  31.134   4.473  18.579 -0.0428  0.0057  0.1776
34156W        W77209  29.548   3.580   6.463 -0.2756 -0.0580 -0.1584
34157W        W77210  13.310  19.448  14.508 -0.2246  0.0392  0.0707
34158W        W77211  14.979  12.906   6.969  0.1282  0.0229 -0.0520
34159W        W77212   8.537   3.347   2.163 -0.0067  0.1606  0.0050
34160W        W77213  11.467   2.961   8.437 -0.3719  0.0478 -0.0358
34161W        W77214  33.643  33.360  26.352  0.2125 -0.0166  0.1013
34162W        W77215  23.409   3.021   6.374 -0.1699 -0.3316 -0.0425
34163W        W77216   0.735  14.097  20.689 -0.1307 -0.3221 -0.5228
34164W        W77217  19.032  20.597   0.207 -0.2110  0.3441  0.0816
34165W        W77218  21.992  26.000  28.413 -0.0659  0.3127  0.5325
34166W        W77219   7.387  20.928  25.831 -0.0860 -0.2948  0.1104
34167W        W77220  16.070  18.830   3.172  0.0904 -0.4820 -0.1109
34168W        W77221   1.482  12.525  22.479 -0.2086 -0.2908 -0.2422
34169W        W77222  28.912  15.727   1.170  0.1063  0.0354 -0.0621
34170W        W77223   1.664  11.313  14.450  0.0494 -0.2478  0.3744
34171W        W77224  14.887  21.241  20.763  0.2090  0.1358  0.1306
34172W        W77225   2.633   9.999   9.470 -0.1014  0.1486 -0.1951
34173W        W77226  22.511  14.747   8.069 -0.0975  0.2509 -0.0807
34174W        W77227  30.853  16.250  18.826 -0.1575 -0.2022  0.3094
34175W        W77228  30.179  21.973  25.479 -0.0607  0.2660  0.0021
34176W        W77229  25.450  14.949   8.387 -0.2568 -0.0248  0.3735
34177W        W77230  30.566  18.539  23.809  0.2177 -0.1303 -0.0657
34178W        W77231  32.315  16.230  16.399 -0.0060 -0.1877  0.2386
34179W        W77232  30.920  23.093   7.814  0.0158 -0.2154  0.2915
34180W        W77233  27.603  16.539  16.742  0.1828 -0.0785 -0.1001
34181W        W77234  30.875  16.709   7.933 -0.1975  0.2030 -0.2655
34182W        W77235   8.604   0.834   3.629  0.3211  0.1366  0.0830
34183W        W77236  23.063  22.221   7.196  0.2267  0.4026  0.1997
34184W        W77237  30.111  15.886  21.554 -0.0286  0.0898  0.0173
34185W        W77238  15.538   7.533  14.942 -0.0831  0.1948 -0.0433
34186W        W77239   5.451  21.909  28.201 -0.1526 -0.0718  0.0867
34187W        W77240  12.323  17.245   8.410 -0.0065  0.0292 -0.1029
34188W        W77241  19.361  19.362  15.006  0.2583 -0.3282  0.0611
34189W        W77242  26.748  21.422  14.754  0.1242 -0.1062 -0.3993
34190W        W77243  21.042  17.852  15.460  0.1021 -0.0013  0.1692
34191W        W77244  30.358  23.450   1.875 -0.0322  0.1179 -0.0383
34192W        W77245  28.762   8.851   3.973  0.5446 -0.0112 -0.1769
34193W        W77246  17.551   7.509   3.226 -0.0409 -0.2714 -0.4757
34194W        W77247  29.692  10.745  23.867  0.0001  0.1989 -0.0493
34195W        W77248  28.356  28.136  10.151  0.3403 -0.0183 -0.0876
34196W        W77249  14.750  24.725   1.548  0.0070  0.1227 -0.2079
34197W        W77250  31.045  19.388  13.922  0.0415 -0.2772  0.0356
34198W        W77251  22.194   9.282   2.912  0.2206  0.3469  0.4403
34199W        W77252   0.133  20.439   2.875  0.0459  0.2573 -0.3987
34200W        W77253  29.651   9.050   7.107  0.2524  0.3937 -0.1440
34201W        W77254  33.011  22.758   1.521 -0.3603 -0.1203  0.1095
34202W        W77255  30.628   9.376  25.705 -0.3063  0.1997  0.3063
34203W        W77256  25.777  33.618   9.015 -0.0450 -0.0699  0.2996
34204W        W77257  27.911  23.513   9.162 -0.1818 -0.2756  0.0575
34205W        W77258  22.213  13.679  10.139 -0.0942  0.2440 -0.1790
34206W        W77259  34.640  27.767   8.134 -0.3000  0.1168 -0.2024
34207W        W77260  29.349  31.229   9.003  0.1183 -0.1849 -0.1977
34208W        W77261  14.289   7.189   6.426 -0.1535 -0.1140 -0.2412
34209W        W77262  21.659   6.395  27.863  0.1540  0.3191 -0.1787
34210W        W77263  34.531  31.631  28.470 -0.0792  0.0202  0.0878
34211W        W77264  25.677  21.889  16.902  0.1988  0.0877  0.3622
34212W        W77265  10.050   8.412   4.142  0.2579 -0.2364 -0.2003
34213W        W77266  15.754   7.872  17.529  0.1875  0.2876 -0.1554
34214W        W77267  30.959  19.165   9.711  0.1720  0.0498 -0.0294
34215W        W77268  12.003  11.655   7.894  0.1731  0.2130  0.0313
34216W        W77269  29.195  16.862  26.466  0.2387  0.3053  0.0945
34217W        W77270  12.579  25.461   6.583  0.1856  0.2021 -0.0875
34218W        W77271  27.275  29.748  20.716 -0.2425  0.1085  0.0670
34219W        W77272  28.246  25.252  18.548  0.1745 -0.0168 -0.0314
34220W        W77273   6.285  14.027  25.174  0.0264 -0.4386  0.2223
34221W        W77274  31.099   1.666  23.240  0.1035  0.0920  0.0749
34222W        W77275  29.240   6.923   2.191  0.2257  0.2467 -0.0678
34223W        W77276  12.375  21.108   7.029  0.2340  0.0028 -0.0501
34224W        W77277  28.118   7.319  26.609  0.0519  0.1780  0.2531
34225W        W77278  28.502  14.775  21.807  0.2140 -0.1847 -0.1557
34226W        W77279  17.347   7.661   0.148 -0.3640 -0.2206  0.3187
34227W        W77280  25.047  32.438  19.829 -0.1074  0.0704  0.3894
34228W        W77281  17.572   5.167  19.904 -0.1630 -0.2068 -0.0993
34229W        W77282  16.559  17.565   0.064 -0.1709  0.1701  0.1102
34230W        W77283  22.803  16.928  25.833 -0.4046  0.3147  0.1214
34231W        W77284  22.644  16.973  22.648 -0.1263  0.3655 -0.3713
34232W        W77285  16.374   7.997   3.687 -0.2448 -0.0488  0.0450
34233W        W77286  26.049  23.528   2.443 -0.1263  0.1852 -0.0340
34234W        W77287  26.304   4.676   3.853  0.2301  0.0404 -0.0332
34235W        W77288  31.518   7.823   9.992 -0.4598  0.3517 -0.1578
34236W        W77289   5.079   9.716  24.264 -0.0092  0.4256 -0.2970
34237W        W77290   5.396  16.252  28.105 -0.1953 -0.0196  0.0510
34238W        W77291   0.689   4.665   8.421  0.3683 -0.2040  0.5756
34239W        W77292  24.615  26.768  29.065  0.1000  0.1911 -0.0584
34240W        W77293  34.405  27.133  24.727  0.0328  0.1493  0.0305
34241W        W77294  30.920  19.871   5.234 -0.0443 -0.1340 -0.0407
34242W        W77295   3.751   5.432   8.657 -0.0160 -0.1957  0.0454
34243W        W77296   9.651  18.990  24.265 -0.2690  0.0957 -0.0014
34244W        W77297  22.403   8.597  16.589  0.3539  0.0158 -0.2076
34245W        W77298  30.580  10.856   6.839 -0.1862 -0.0022  0.3430
34246W        W77299  17.019  18.500  24.062  0.0439  0.0385 -0.0627
34247W        W77300  22.948   8.055   2.650  0.1225 -0.3488  0.0539
34248W        W77301  28.794   7.031  27.918 -0.0836 -0.3584  0.0771
34249W        W77302   7.187  14.844   5.550  0.0799 -0.1743 -0.2690
34250W        W77303  29.198  12.332   1.556  0.1199 -0.2076 -0.0863
34251W        W77304  33.287  10.121  10.141 -0.2854 -0.2708  0.1394
34252W        W77305  32.037   4.909  28.297  0.3472  0.1088 -0.1660
34253W        W77306  17.409   8.709   8.055  0.0048 -0.0587 -0.3236
34254W        W77307   5.159  19.805   4.536  0.0147  0.2740 -0.0234
34255W        W77308  27.425  27.572  26.230  0.3040 -0.0429 -0.0287
34256W        W77309  23.841  10.671  27.337 -0.1202  0.2045 -0.0622
34257W        W77310  20.950  23.196  25.888 -0.1915 -0.2957  0.0905
34258W        W77311  22.940  13.866  14.831  0.3403  0.0024 -0.0714
34259W        W77312  22.186  17.355  19.652  0.0171 -0.0855  0.1262
34260W        W77313  26.414  17.416  27.503 -0.2042  0.0588 -0.0244
34261W        W77314  27.176  17.447  27.851  0.4941  0.0145 -0.0660
34262W        W77315  27.676  15.896  17.188 -0.1855 -0.0366 -0.4239
34263W        W77316   8.407  17.096   9.357 -0.0076  0.0221 -0.1138
34264W        W77317  27.468   2.179   2.070 -0.4170  0.3290  0.0943
34265W        W77318  25.816  11.725  29.169 -0.4351 -0.2224  0.0546
34266W        W77319  26.189  21.684   8.350 -0.3007 -0.0072 -0.1349
34267W        W77320   2.998   2.997  18.702  0.0014  0.0679  0.0531
34268W        W77321  14.803  15.466  25.691 -0.0024 -0.2221 -0.1626
34269W        W77322   6.010  15.129   8.338 -0.0610 -0.2650  0.1015
34270W        W77323  27.675  24.521  16.646  0.0593 -0.0478  0.0519
34271W        W77324   8.727  23.497   2.969  0.1261  0.1549 -0.0136
34272W        W77325  27.953  11.417   6.186  0.0693 -0.2956  0.1521
34273W        W77326   0.491  11.259   3.069  0.0738 -0.2030  0.0185
34274W        W77327  14.804  20.692  16.001 -0.1623 -0.3774 -0.0015
34275W        W77328   1.931  30.307   7.989  0.0160 -0.0261  0.2090
34276W        W77329  14.664   9.432   4.019  0.0694  0.0444  0.2258
34277W        W77330  24.430  11.076   8.962  0.0038  0.0351  0.1039
34278W        W77331  33.617   1.157   1.423 -0.2911 -0.0726 -0.3977
34279W        W77332  10.375  29.300  27.541 -0.0789 -0.1806 -0.0870
34280W        W77333  16.762  18.371   4.472 -0.0221 -0.1661  0.1473
34281W        W77334  19.188  13.171   0.275  0.0578  0.0344  0.2034
34282W        W77335   2.630  18.009  25.944 -0.1361  0.1710 -0.1270
34283W        W77336  27.631  16.139   0.728  0.1353 -0.1367 -0.1060
34284W        W77337  27.692  29.257   6.226 -0.2955  0.0909  0.1496
34285W        W77338  25.306  21.094   0.769  0.1623  0.1730 -0.1882
34286W        W77339  15.770   7.127  24.242  0.1379 -0.0410 -0.6013
34287W        W77340  18.979  16.164   6.335  0.1314 -0.3564  0.0554
34288W        W77341   6.275  27.608  24.894  0.1591  0.1439  0.0342
34289W        W77342   0.163   4.891  14.911 -0.2272 -0.0885 -0.0546
34290W        W77343  24.976  11.370   4.786 -0.0467 -0.0403 -0.0544
34291W        W77344  15.508  10.242  28.789  0.2250  0.1463 -0.0594
34292W        W77345  31.253   7.545  20.122  0.1834 -0.0557  0.2432
34293W        W77346  18.695   9.012   3.015  0.0909  0.2472  0.0482
34294W        W77347  29.917  24.128   1.004 -0.0585 -0.0431  0.4846
34295W        W77348  14.543  29.340   5.216  0.1022  0.1172 -0.1717
34296W        W77349  27.190  17.525   6.617  0.1910 -0.1226 -0.0682
34297W        W77350  17.316  10.386   1.802 -0.1486 -0.1637  0.0416
34298W        W77351  18.862  22.268   2.806 -0.0973  0.1357 -0.0915
34299W        W77352  13.069  16.313   2.097  0.1118 -0.0607  0.1205
34300W        W77353  28.557   4.220  27.264 -0.0731  0.1724  0.0509
34301W        W77354  21.968   4.791  25.944 -0.0038 -0.0644 -0.4753
34302W        W77355  20.210  20.973  26.470 -0.4083  0.4215 -0.3190
34303W        W77356   6.069  13.070   2.075 -0.3252 -0.2095  0.3298
34304W        W77357  26.334  17.205   1.882 -0.0380 -0.0758 -0.1723
34305W        W77358   8.834  15.127  17.096 -0.0541  0.1646  0.0732
34306W        W77359  27.747  16.014  22.999  0.0256 -0.1786 -0.0678
34307W        W77360  32.279  19.108  18.167  0.2234  0.2374 -0.2497
34308W        W77361  23.715  34.143  14.334 -0.1198 -0.3165 -0.0644
34309W        W77362   1.107   6.171   8.728  0.2684  0.0580  0.1054
34310W        W77363   0.247   7.861   0.501  0.2045  0.1959 -0.0054
34311W        W77364  32.659  31.122   2.424 -0.1014  0.0220  0.1394
34312W        W77365  16.575  32.607  29.140  0.2257 -0.0796 -0.0648
34313W        W77366  22.628  24.609  26.935 -0.1240 -0.2050 -0.0438
34314W        W77367   5.018  15.789  18.713 -0.0075  0.5091 -0.1301
34315W        W77368  22.604  14.736  18.992  0.3015 -0.4187 -0.0738
34316W        W77369  22.132  18.323   4.713  0.0081  0.1609 -0.1740
34317W        W77370   2.999  27.704  22.306 -0.3090 -0.3665 -0.1692
34318W        W77371   8.360  25.204   3.516 -0.0065  0.1168  0.1489
34319W        W77372  18.862  15.304  24.670 -0.0689  0.3167 -0.2204
34320W        W77373  22.627  17.988  26.796 -0.1923 -0.1702  0.2072
34321W        W77374  19.190  21.272  14.633 -0.0120 -0.3348  0.2195
34322W        W77375  23.298  12.311   4.462 -0.0902 -0.1007  0.0248
34323W        W77376   4.428  16.916   9.196 -0.1486  0.0533  0.0154
34324W        W77377  26.324  12.661  18.158 -0.2052 -0.0353  0.0768
34325W        W77378  22.341  20.680   6.866  0.0748  0.0622 -0.0223
34326W        W77379  27.424   5.972  26.723  0.0905 -0.1259  0.0981
34327W        W77380   0.624   1.084  24.176 -0.2204  0.2258 -0.4133
34328W        W77381   1.698  23.641   2.137  0.0539 -0.0543 -0.1032
34329W        W77382  11.471  20.680   3.238 -0.2999 -0.0059  0.2742
34330W        W77383  10.419  29.448  27.033 -0.4238 -0.1618  0.1247
34331W        W77384  18.865   4.063   4.286 -0.0678 -0.1769 -0.2467
34332W        W77385  24.771  20.114  13.748  0.1356 -0.1186 -0.0418
34333W        W77386  21.356  27.772   6.475  0.0386 -0.1267 -0.0478
34334W        W77387  21.549  34.056  26.736  0.0814 -0.0790  0.0882
34335W        W77388  23.286  26.404   0.799 -0.4878  0.2562 -0.0564
34336W        W77389  13.897  12.900  19.227 -0.0987 -0.1954 -0.5094
34337W        W77390  23.836  20.778  10.032 -0.0359 -0.1238  0.0323
34338W        W77391  21.711  20.530   1.761  0.2360  0.1752  0.1433
34339W        W77392   0.078  22.138   7.318 -0.1839 -0.0102  0.2941
34340W        W77393  25.063  16.937   2.668  0.0227  0.2316 -0.1951
34341W        W77394  13.163  23.306  22.773 -0.3891  0.2953  0.0613
34342W        W77395  29.092  20.024  17.017 -0.2114  0.2896 -0.0357
34343W        W77396  28.844  18.913  29.018 -0.4937  0.2002 -0.0572
34344W        W77397   3.152  28.331   4.642 -0.1855  0.0403 -0.0333
34345W        W77398  23.714  28.865  29.116  0.0338 -0.1904  0.1766
34346W        W77399  22.800  21.416  22.204 -0.0053 -0.2891 -0.0401
34347W        W77400  32.659  11.296  25.409 -0.4773  0.3481  0.2128
34348W        W77401  23.901  23.263  26.878  0.0699  0.1679  0.2106
34349W        W77402  19.286  18.092   4.819 -0.2981  0.0004 -0.1204
34350W        W77403  33.526  14.525  10.075  0.1477  0.0895 -0.1268
34351W        W77404  21.455  20.387  20.383 -0.2016 -0.0892 -0.1146
34352W        W77405  20.782  11.673  16.049  0.1481 -0.0224  0.0206
34353W        W77406   3.078  30.420   1.247  0.0078 -0.1618 -0.0250
34354W        W77407  30.045  13.607   5.013  0.2655 -0.3187 -0.1673
34355W        W77408  30.652  25.239   7.019  0.0357  0.0094 -0.2600
34356W        W77409  29.884   8.226  17.595  0.5596  0.0191 -0.1691
34357W        W77410  19.520  17.650  28.033  0.0519 -0.0236  0.0776
34358W        W77411  34.552  32.181  28.353  0.1290 -0.1899 -0.0519
34359W        W77412  27.584  23.280   3.790 -0.1539  0.0771  0.3613
34360W        W77413   2.378  15.511   5.303  0.1650 -0.1127  0.1177
34361W        W77414   1.322  13.365  22.936  0.1060 -0.1088 -0.2639
34362W        W77415  13.175  34.263   1.722  0.2004 -0.1804 -0.0747
34363W        W77416  11.584   7.516   2.444 -0.2734 -0.2275 -0.0946
34364W        W77417  15.301  27.445  14.709 -0.0486  0.0162 -0.2001
34365W        W77418  33.219  25.478   3.602  0.1339 -0.1087 -0.1447
34366W        W77419   1.854   0.874   3.385  0.1017  0.1984  0.0676
34367W        W77420  22.362  24.785   8.787 -0.0572 -0.1876  0.0420
34368W        W77421   5.620  26.982   0.674 -0.1082 -0.1963 -0.4828
34369W        W77422  22.333  32.469   5.787  0.1865 -0.1573 -0.0875
34370W        W77423   1.889  19.368  23.301  0.3113  0.2504  0.3343
34371W        W77424   4.590  23.170   2.271  0.0187  0.0905  0.0784
34372W        W77425   6.153   9.460  17.487 -0.2923  0.2138  0.0812
34373W        W77426  33.495  13.485  25.603 -0.2765 -0.0852  0.0422
34374W        W77427  24.190  19.385   5.923  0.1043 -0.0840  0.4495
34375W        W77428  23.522   6.173   5.513  0.0641 -0.6874 -0.1819
34376W        W77429  30.107   9.255   7.314  0.0022  0.2754  0.2490
34377W        W77430   9.802   0.791   1.444  0.0351 -0.1682  0.2673
34378W        W77431  21.872  13.319   5.455  0.0425 -0.0419 -0.0874
34379W        W77432  31.890  18.030  21.528  0.0137 -0.0806 -0.0641
34380W        W77433  27.483  20.899  26.770 -0.1584 -0.0976 -0.4439
34381W        W77434   7.575   6.532  25.140  0.1149 -0.3849 -0.0123
34382W        W77435  30.032  21.298   6.584 -0.0563 -0.0490  0.0336
34383W        W77436  23.529  25.848   3.066  0.0419  0.1244 -0.0694
34384W        W77437  23.196  22.900   5.245  0.0376  0.2776  0.2766
34385W        W77438  23.482  13.316  15.734  0.3609 -0.2615  0.0255
34386W        W77439  29.034  22.125   5.845  0.0887  0.1697  0.0035
34387W        W77440  25.516  25.582   1.114  0.1520  0.0262  0.0469
34388W        W77441   5.436  18.404  14.862 -0.0731  0.1915 -0.2253
34389W        W77442  14.535  23.115  27.418  0.1896  0.3116 -0.0815
34390W        W77443  12.542  15.870  10.834  0.2064  0.1572  0.0122
34391W        W77444  15.419  13.154   2.228 -0.2894 -0.4731  0.0324
34392W        W77445  29.621  29.172  18.261 -0.3650 -0.1089 -0.0694
34393W        W77446  29.011   7.535  21.432 -0.1126  0.0650  0.0837
34394W        W77447   3.374  20.080  20.796  0.0081 -0.0682 -0.0151
34395W        W77448  22.239   5.864   8.580  0.2953 -0.0299  0.2364
34396W        W77449  15.905  10.334  27.622  0.0652  0.2204 -0.3626
34397W        W77450  26.488   9.109  28.650 -0.0695  0.1151 -0.1840
34398W        W77451  27.335  10.204   1.913  0.0157 -0.2952 -0.1701
34399W        W77452  28.179   9.219   3.393  0.2139  0.1294  0.1141
34400W        W77453  21.193  15.499   3.780  0.1875 -0.1685 -0.0651
34401W        W77454  30.810  25.513  27.074  0.2650 -0.1516 -0.1337
34402W        W77455   5.219  29.618   1.046 -0.2343  0.0890  0.2285
34403W        W77456  15.258  29.022  21.960 -0.0309  0.0172 -0.0700
34404W        W77457  31.624  20.906   6.802 -0.1352 -0.0417  0.2115
34405W        W77458  16.019  19.525  24.664  0.0212  0.0913 -0.0864
34406W        W77459  26.933   5.361  16.772 -0.1466 -0.3078 -0.1410
34407W        W77460  34.237  20.935   9.052  0.1406  0.1680  0.0703
34408W        W77461  27.298  15.086  21.103 -0.3133 -0.2557 -0.0087
34409W        W77462  18.577  19.311   7.170  0.2874 -0.1471 -0.1046
34410W        W77463  31.462  21.832  23.540 -0.0200  0.1633 -0.0306
34411W        W77464  26.638  25.663  18.004  0.1409 -0.3545 -0.0328
34412W        W77465  28.825  28.734  10.427 -0.0416  0.1755 -0.0186
34413W        W77466  29.431  21.619  23.267 -0.0965  0.2819  0.4308
34414W        W77467  26.802  26.098   4.671 -0.3163  0.0858  0.1734
34415W        W77468  31.446   5.982  10.289 -0.1221  0.0692 -0.2735
34416W        W77469  23.038   0.360   5.221  0.1248 -0.0057 -0.0009
34417W        W77470  15.441  18.686   3.480  0.4455  0.4778  0.3431
34418W        W77471   3.121  18.495  15.923  0.1338 -0.2019  0.1523
34419W        W77472   2.513  21.854   0.723  0.2807  0.4366 -0.0488
34420W        W77473  20.655  14.268   4.209  0.4476 -0.0887  0.1293
34421W        W77474  27.178  10.149  24.391 -0.1130  0.2148 -0.0394
34422W        W77475  30.574  18.586   4.274  0.1452 -0.1046  0.3091
34423W        W77476   7.666   6.090  19.622 -0.0294  0.1193  0.2938
34424W        W77477   8.920  21.741   4.482 -0.2791  0.1667  0.0213
34425W        W77478   6.129  17.487  26.257  0.0729 -0.0729 -0.2434
34426W        W77479  24.221  10.948   1.241 -0.1387  0.2143  0.2396
34427W        W77480   4.691  14.244   3.256  0.0715 -0.1326 -0.0923
34428W        W77481  26.890   0.448  24.729 -0.1665  0.0853  0.0661
34429W        W77482  21.786  17.401  27.399 -0.0971  0.1129 -0.2202
34430W        W77483  20.936  30.529   2.376  0.1438  0.2023  0.1400
34431W        W77484  10.468  23.382  20.994  0.0030  0.1987  0.0137
34432W        W77485  25.370  11.398  23.712 -0.0732  0.1834  0.1544
34433W        W77486  26.550  21.423  16.931 -0.2907 -0.4043  0.2000
34434W        W77487  18.017  25.877  26.727 -0.0745  0.1156  0.0462
34435W        W77488  28.539  25.382   2.669  0.4376  0.1533 -0.2217
34436W        W77489  27.173  19.828  19.216 -0.5513 -0.1778 -0.4677
34437W        W77490  28.011  25.552  20.629 -0.2134 -0.0329 -0.0695
34438W        W77491  33.587  14.978   7.740 -0.2827  0.0210 -0.2918
34439W        W77492  33.694  12.316   8.860 -0.0980  0.0259  0.0759
34440W        W77493  20.868   8.819  20.330 -0.1031 -0.2538  0.1308
34441W        W77494   1.892  28.946   2.932 -0.0246  0.3677  0.0344
34442W        W77495   2.570   6.153   5.021  0.0741  0.0874  0.1352
34443W        W77496  30.817  16.701  24.273 -0.1346  0.3882 -0.0759
34444W        W77497  28.845  18.553  17.955 -0.0696  0.0089  0.1196
34445W        W77498  24.236  14.602  28.856  0.2962 -0.0586  0.0170
34446W        W77499  17.473  12.923  23.807 -0.3995 -0.1378 -0.3293
34447W        W77500  27.859  19.029  20.159  0.3103 -0.1415 -0.1600
34448W        W77501  29.414   3.938  16.004 -0.2341 -0.0187  0.1456
34449W        W77502  23.142  17.437  28.442  0.3006 -0.1829 -0.1204
34450W        W77503  18.993  17.316   5.250 -0.0694  0.1945 -0.2271
34451W        W77504  26.323  17.449   4.124 -0.3808  0.0354 -0.0897
34452W        W77505  13.580  11.884   6.443 -0.1320 -0.0131  0.0319
34453W        W77506  18.648  18.402   5.759 -0.0271 -0.1385 -0.0534
34454W        W77507   2.772   7.704   6.365 -0.1789  0.0216  0.1913
34455W        W77508   0.122  13.349   8.187  0.0292  0.4504  0.0065
34456W        W77509  12.430  11.476   9.638  0.1205 -0.1407 -0.1674
34457W        W77510  33.090   6.682  28.887  0.0132 -0.1615 -0.0081
34458W        W77511  31.620  28.635  21.888 -0.0750 -0.0998  0.2011
34459W        W77512   0.435  18.405   6.091  0.0655 -0.0333  0.0103
34460W        W77513  26.657   8.318   6.792  0.1265 -0.1440 -0.0923
34461W        W77514  23.700  23.318   5.839 -0.0425  0.2692 -0.0490
34462W        W77515  17.777  13.083   8.848  0.2506  0.1515 -0.2025
34463W        W77516  16.755  21.176   8.719 -0.3717  0.3090 -0.1655
34464W        W77517  21.792   7.178  14.989 -0.0932  0.1150 -0.0273
34465W        W77518  31.711  17.930  16.979  0.0611 -0.0885  0.0681
34466W        W77519  20.433   4.158  21.760 -0.3572  0.1272 -0.0307
34467W        W77520  24.242  15.079   2.648  0.1765  0.4098 -0.3594
34468W        W77521   6.831  24.116  21.089 -0.0832 -0.0523  0.0650
34469W        W77522   3.507   7.926  20.392  0.2709 -0.0261  0.2318
34470W        W77523  34.676  17.927   0.453 -0.1738 -0.2445 -0.1275
34471W        W77524  30.452  17.459   2.261  0.0770 -0.1704  0.1673
34472W        W77525  30.506  16.958  26.540  0.4246 -0.0138  0.3931
34473W        W77526   3.741  24.889  16.659 -0.0990  0.1631  0.0834
34474W        W77527   1.714   9.554   0.105 -0.0611  0.3038 -0.2904
34475W        W77528   1.883   3.066  26.895  0.1027 -0.1837 -0.1541
34476W        W77529  20.775   9.467  24.414 -0.0943  0.1557  0.2924
34477W        W77530  28.788  10.400   3.958 -0.3017  0.1723  0.4555
34478W        W77531  17.255  17.175  23.269 -0.1622  0.1679 -0.0275
34479W        W77532  24.701  12.277   7.723 -0.0138  0.1276  0.1028
34480W        W77533  32.907  34.538  27.279 -0.1671  0.0771  0.0391
34481W        W77534  12.138  16.744   2.633  0.1773 -0.0988 -0.1752
34482W        W77535  31.993  22.173   9.281  0.3110 -0.0796  0.0766
34483W        W77536  14.987  21.375   7.557  0.1654 -0.0629 -0.0630
34484W        W77537  25.293  18.996  25.510  0.2911 -0.1696  0.1606
34485W        W77538  25.884  21.401  18.922  0.1774 -0.2044  0.1497
34486W        W77539  34.626  25.385   1.091  0.2520  0.2659  0.1615
34487W        W77540  27.687   4.524  27.541 -0.0348 -0.1194  0.1970
34488W        W77541  31.012  14.929   4.894 -0.0932  0.4126  0.0893
34489W        W77542  27.663  30.514  28.766 -0.2710 -0.0204 -0.1239
34490W        W77543   4.986  12.770   3.486 -0.0736  0.0375  0.1962
34491W        W77544  27.581   6.616   3.485  0.0702 -0.0611 -0.2432
34492W        W77545  29.184  28.016   5.134  0.1519  0.2681 -0.2373
34493W        W77546   2.585  33.235   1.619  0.0223 -0.1972  0.0539
34494W        W77547  22.123  10.484   4.627 -0.0109 -0.2210 -0.2438
34495W        W77548  26.636   9.220   3.650  0.1211 -0.6200  0.0636
34496W        W77549  17.725  17.364   4.903 -0.1514  0.4468 -0.0497
34497W        W77550  22.683  22.710   5.130 -0.0637  0.0078 -0.0534
34498W        W77551  26.026  11.859   9.625  0.1154  0.0303  0.1401
34499W        W77552  25.015  26.401  25.964 -0.0800  0.1311  0.2077
34500W        W77553  23.202  16.034   0.443 -0.0068  0.0741  0.1808
34501W        W77554  29.141   9.597   9.402 -0.1428  0.3942  0.2062
34502W        W77555  25.427  32.159   7.085  0.0020  0.1430 -0.0403
34503W        W77556  16.885  27.492   7.889 -0.0655  0.0179  0.2841
34504W        W77557  32.766  23.267  19.149  0.1975  0.2218  0.2166
34505W        W77558   1.289  13.421  28.815 -0.0229 -0.0461 -0.0639
34506W        W77559   0.491   4.835   3.640 -0.1024 -0.1289  0.0216
34507W        W77560  27.975  13.032  15.313  0.3987  0.1829 -0.1839
34508W        W77561  25.371  15.982   7.199  0.0134  0.0872  0.0774
34509W        W77562  24.489   5.653   3.406 -0.2673  0.1286 -0.1015
34510W        W77563   8.460   9.058  10.777 -0.0957 -0.0216  0.2270
34511W        W77564  15.664  16.044   5.468  0.0242  0.2475 -0.3465
34512W        W77565  22.090  12.179  28.676 -0.0775  0.3195  0.1659
34513W        W77566  21.369   5.551   4.722 -0.0103 -0.2310  0.0820
34514W        W77567  15.227  23.923   8.091 -0.2124  0.2309 -0.2293
34515W        W77568  10.517  18.487   2.400 -0.1086  0.0170 -0.0806
34516W        W77569  29.626  24.823   5.071 -0.1606 -0.0643  0.2283
34517W        W77570  27.518  16.208  18.729  0.0282 -0.0226  0.2382
34518W        W77571  32.482  28.127  27.128  0.1199 -0.0689 -0.2972
34519W        W77572  13.127  30.025  22.565 -0.1225 -0.1321  0.2008
34520W        W77573  20.931  27.608   1.187  0.3466 -0.0463 -0.0959
34521W        W77574  22.602  14.385  20.736  0.2800 -0.1348 -0.3233
34522W        W77575   7.009  14.791   3.589  0.1519  0.0579  0.1024
34523W        W77576  30.052  10.491  22.693  0.1077  0.1593  0.2738
34524W        W77577  26.760  12.013  25.162 -0.1020  0.0407  0.2725
34525W        W77578   1.094  19.109   1.240 -0.1165 -0.2118 -0.2591
34526W        W77579   0.676  24.378  19.355 -0.0799  0.0076 -0.2116
34527W        W77580  19.290  20.425   7.078  0.5124  0.1379 -0.0938
34528W        W77581  17.490  29.485   7.364  0.0341  0.3266  0.0938
34529W        W77582  19.515  23.232  23.827  0.1263 -0.0968  0.0664
34530W        W77583  26.205  16.721   6.868 -0.0490 -0.0137  0.2892
34531W        W77584  21.670  13.413   8.480  0.1652 -0.1682  0.0014
34532W        W77585  29.794  32.283   6.476  0.1055 -0.0238  0.1820
34533W        W77586  16.087  23.235   0.171  0.1935  0.3013  0.3460
34534W        W77587  22.124   2.560   5.301 -0.3306  0.1871  0.0607
34535W        W77588  32.062  13.098  23.628  0.0817  0.1084  0.1460
34536W        W77589  27.043  33.142   3.746 -0.0222 -0.1858 -0.3911
34537W        W77590  26.539  23.158   5.192 -0.3545  0.2728  0.0069
34538W        W77591  10.678  11.851  26.344 -0.6058 -0.2184 -0.3032
34539W        W77592  31.105  24.626   9.412  0.0372  0.0211  0.3059
34540W        W77593  21.582  24.962   6.196 -0.0639  0.2112 -0.0574
34541W        W77594  18.668  14.732  26.258 -0.2152  0.0267 -0.0237
34542W        W77595  33.378  14.746   6.641  0.0285  0.1819  0.1171
34543W        W77596  28.199  19.776  16.418 -0.1354  0.1191  0.2760
34544W        W77597  26.916  18.488  25.059  0.2590  0.3381 -0.1758
34545W        W77598  18.171  16.819  24.069  0.2986  0.3982 -0.3563
34546W        W77599   0.910  12.975  18.929 -0.0318 -0.3412  0.0774
34547W        W77600   7.357  13.628   6.500 -0.0646  0.1770 -0.0097
34548W        W77601   7.400  19.654  24.071 -0.0047  0.3179  0.0380
34549W        W77602  24.046   6.368   1.172 -0.0113 -0.0417 -0.1671
34550W        W77603  23.196  25.459   0.792  0.1404  0.2063  0.0310
34551W        W77604  15.697  17.235   3.013 -0.2015  0.0916 -0.2430
34552W        W77605  22.595  25.544   0.848 -0.0935 -0.1304 -0.3124
34553W        W77606  19.292  17.986   6.887 -0.0055 -0.1617  0.2470
34554W        W77607  30.622   9.164   4.417 -0.1477  0.4575 -0.3079
34555W        W77608  15.422  20.491  16.633 -0.1503  0.0598 -0.1694
34556W        W77609  10.139   8.878   0.385  0.2420 -0.2876  0.0917
34557W        W77610  31.986  14.907  19.454 -0.0435  0.3069  0.2232
34558W        W77611  13.293  25.379  21.226 -0.2360  0.2928 -0.0013
34559W        W77612  11.193  13.460   3.416  0.3673 -0.1396 -0.0653
34560W        W77613  32.811  18.997   8.794  0.0072 -0.0956 -0.2494
34561W        W77614  25.472  21.303   3.230  0.3761 -0.1053 -0.0782
34562W        W77615   9.585  14.578   3.768 -0.0841  0.0459 -0.0788
34563W        W77616   2.651  13.049   7.088  0.1173 -0.0856  0.1128
34564W        W77617  28.298  10.660   6.032 -0.1575  0.0996 -0.2636
34565W        W77618  33.815  30.250   8.879  0.0777 -0.0327 -0.2800
34566W        W77619  23.594  12.740  27.404  0.0349 -0.1833  0.2222
34567W        W77620  28.712  17.967   3.960  0.3367  0.1197  0.1434
34568W        W77621  11.956   5.973   8.417  0.0119  0.3438 -0.1741
34569W        W77622  30.091   9.877   0.532 -0.0172 -0.0798  0.0741
34570W        W77623  21.958   6.334  19.257 -0.1767  0.0409 -0.2466
34571W        W77624  33.394   7.194  26.923 -0.0812 -0.0040 -0.2352
34572W        W77625  23.480  13.383   2.515 -0.0364 -0.3054 -0.2470
34573W        W77626  31.931  17.578  26.909 -0.0266 -0.3654 -0.1017
34574W        W77627  25.710   4.867   9.650 -0.0128 -0.0339 -0.0688
34575W        W77628  31.811  23.999   2.976  0.0344  0.2240 -0.2517
34576W        W77629  30.164  14.979   8.720 -0.1892  0.1580 -0.2004
34577W        W77630  33.658   4.975  27.866 -0.3739 -0.3076  0.1939
34578W        W77631  16.857  24.571   0.505 -0.0211  0.1851 -0.1012
34579W        W77632  18.868  29.584  20.814 -0.0452  0.1566  0.0172
34580W        W77633  17.738  25.897   8.866  0.3921 -0.3328  0.0025
34581W        W77634  22.865  20.645   2.188  0.0231  0.1685 -0.1044
34582W        W77635  32.259  18.847   2.589  0.0866 -0.0487 -0.0365
34583W        W77636  16.747   6.154  27.541  0.1505  0.1183 -0.1027
34584W        W77637   3.492  34.125  23.909  0.0130  0.0548  0.0024
34585W        W77638  27.656   7.473   4.765  0.1200  0.2017 -0.0028
34586W        W77639  21.208  33.981   5.181  0.5753 -0.0666  0.0946
34587W        W77640   3.193  13.487  18.435 -0.1794  0.1369  0.3722
34588W        W77641   3.383  18.338  28.048  0.2262 -0.0517 -0.1145
34589W        W77642  32.323  11.613   8.837  0.0040 -0.0692 -0.1978
34590W        W77643  31.087  18.965   6.817  0.0500 -0.0468 -0.2539
34591W        W77644   0.602  19.250  25.195 -0.2654 -0.2363 -0.2057
34592W        W77645  33.398   2.740  17.918  0.1629 -0.0106 -0.3299
34593W        W77646  25.187   5.157  26.312  0.1173 -0.1173  0.0972
34594W        W77647  25.271   8.657   0.096 -0.1619  0.0503  0.0619
34595W        W77648  31.819  34.063   0.061  0.1836  0.0759  0.1201
34596W        W77649  19.678   4.410  23.227  0.1907  0.0610  0.0087
34597W        W77650  30.777  23.004  22.275  0.2675 -0.0606 -0.0690
34598W        W77651   7.537  31.853   4.124 -0.5037  0.0975  0.1433
34599W        W77652  26.817  28.400   2.941  0.1392 -0.0542  0.2106
34600W        W77653  20.485   8.860   2.506  0.0410 -0.1252 -0.0676
34601W        W77654  28.605   6.086   7.435 -0.3088 -0.0693  0.0743
34602W        W77655  24.213  14.912   9.006  0.2071 -0.0048 -0.1647
34603W        W77656  20.758  24.972   9.901 -0.0138  0.0697  0.2326
34604W        W77657  31.383   8.835   7.814  0.0136 -0.1128 -0.0881
34605W        W77658  30.265  11.816   9.172 -0.1639  0.3649 -0.1199
34606W        W77659  19.524  15.528  25.921  0.0253  0.0141 -0.1013
34607W        W77660  34.451  10.415   5.236  0.3451 -0.0808 -0.2513
34608W        W77661  22.416  16.302   5.319 -0.2788 -0.1204 -0.1374
34609W        W77662  15.646  26.199  10.658  0.1222 -0.0466  0.2508
34610W        W77663  14.899  14.983   4.949  0.0133  0.3070  0.0254
34611W        W77664   3.929  19.100  14.931  0.2297  0.0016  0.0631
34612W        W77665   1.493   4.144   5.737 -0.0153  0.2384 -0.3240
34613W        W77666  20.972  14.990  22.604  0.2462 -0.1694  0.1807
34614W        W77667  17.405  32.077   6.466  0.3477 -0.3620  0.0051
34615W        W77668  22.288  15.865  16.875  0.2775  0.0766 -0.0297
34616W        W77669  22.709  28.730   5.264  0.0430  0.3924 -0.2970
34617W        W77670  12.501  20.735   6.309  0.0575 -0.1294 -0.1948
34618W        W77671  29.621  14.797   2.741  0.1154  0.0960  0.0437
34619W        W77672  25.087  25.059   8.080 -0.0489 -0.0154 -0.1493
34620W        W77673  24.496   7.576   0.855 -0.0383  0.1068 -0.0172
34621W        W77674  19.587  18.391  28.667  0.1362 -0.2726  0.2937
34622W        W77675  13.845  12.194  27.032 -0.1370  0.3004 -0.1145
34623W        W77676  17.852  15.621  26.325 -0.1445 -0.0279  0.2019
34624W        W77677   8.779   3.278   4.096  0.1744  0.2470 -0.1363
34625W        W77678  10.831  11.626  20.336 -0.0913 -0.0089  0.1091
34626W        W77679   8.153  23.258  28.165  0.0878 -0.0051  0.1458
34627W        W77680  28.210  24.732  26.643  0.0933 -0.0878  0.0404
34628W        W77681  25.297  25.578   2.092 -0.3393 -0.1602  0.0769
34629W        W77682  20.773  23.942  25.507 -0.2123 -0.0655  0.0384
34630W        W77683  16.919  19.703   2.283 -0.4136  0.2678 -0.2932
34631W        W77684   4.168   3.360   4.869  0.2225  0.2017 -0.0059
34632W        W77685  30.140  22.099  16.143 -0.1739 -0.1115 -0.2133
34633W        W77686   0.565   2.693   1.569  0.1378  0.0890 -0.3471
34634W        W77687  16.572  18.858  28.655  0.0896 -0.1650 -0.0429
34635W        W77688  31.987  33.418   0.605  0.5286  0.2103 -0.1301
34636W        W77689  29.019   3.438  28.618 -0.3053 -0.1939  0.1903
34637W        W77690  19.007   2.872   5.442 -0.0765 -0.0058  0.1827
34638W        W77691  24.704  16.945  23.421  0.0180 -0.0383 -0.3620
34639W        W77692  26.386  10.135   3.746  0.1463  0.0262  0.1264
34640W        W77693  30.324  32.796  27.782  0.0058 -0.0738 -0.2432
34641W        W77694  23.568  25.089  10.232  0.1430  0.1105 -0.0486
34642W        W77695  29.286  15.391   8.995 -0.1269  0.3509  0.0016
34643W        W77696  30.615  14.497   2.451  0.0576 -0.1043 -0.0118
34644W        W77697  34.027   5.896   8.873  0.2169  0.1768 -0.2158
34645W        W77698  28.703   3.372  26.548 -0.1678 -0.1456 -0.2260
34646W        W77699   0.292  15.418  26.928  0.1328 -0.1463  0.3609
34647W        W77700  29.835  22.770  22.964 -0.1632 -0.0541 -0.1179
34648W        W77701  26.194  25.519   9.875 -0.0260 -0.0208  0.0665
34649W        W77702  30.120  11.271   5.024 -0.1742 -0.0305 -0.4681
34650W        W77703  13.728  13.461   9.815  0.0920  0.0428  0.1065
34651W        W77704  29.903   4.773   5.733  0.1861  0.1206 -0.0052
34652W        W77705  20.930  28.703  10.323 -0.1644 -0.0026  0.0100
34653W        W77706  25.681  12.788   6.378  0.0040 -0.1343 -0.2231
34654W        W77707  24.401   7.094   0.900 -0.2550  0.0661  0.0021
34655W        W77708  31.652  31.692   5.291  0.0971 -0.0446  0.0408
34656W        W77709  32.908   3.854   6.554  0.3317  0.0251 -0.0850
34657W        W77710  30.158  25.447   7.133 -0.0855 -0.0811  0.0319
34658W        W77711  14.368  22.812   5.108 -0.3797  0.2402  0.0609
34659W        W77712  32.519  23.477   2.708 -0.2000 -0.0881 -0.1666
34660W        W77713  26.495   4.801   7.004  0.2684 -0.0513 -0.1091
34661W        W77714   1.875  16.603   4.258 -0.1281  0.5138 -0.2978
34662W        W77715   9.815   0.099   3.564  0.0503  0.1194 -0.0915
34663W        W77716  25.278   8.702  10.314  0.0668  0.0877 -0.0923
34664W        W77717  31.173   0.376   8.261 -0.0562  0.1075 -0.1198
34665W        W77718  20.890   8.542   0.125  0.0324  0.0128  0.1823
34666W        W77719  22.101  29.494  23.743  0.0720 -0.0382  0.2931
34667W        W77720  23.744  15.475  14.842  0.2019  0.1230  0.1427
34668W        W77721  20.826  12.907  20.183  0.0915 -0.1790  0.0242
34669W        W77722   3.763  18.770   7.932 -0.0214 -0.1424  0.3320
34670W        W77723  20.706  28.182   4.730  0.0822  0.0245 -0.1862
34671W        W77724   7.626  21.628   7.608  0.2378 -0.1079  0.1945
34672W        W77725   3.475  23.612   7.479 -0.1432 -0.0122  0.0374
34673W        W77726  31.638   0.509   1.868 -0.3276 -0.4910  0.0684
34674W        W77727   0.471   3.423  26.240  0.1602  0.1341  0.2476
34675W        W77728  15.295  26.864   2.468 -0.1214 -0.1351 -0.2866
34676W        W77729  26.915  12.744   3.607 -0.3255  0.1393  0.0314
34677W        W77730  32.661   0.451   5.225 -0.0821 -0.2044 -0.0572
34678W        W77731  20.386  15.954   6.720  0.0579  0.2420 -0.2713
34679W        W77732   2.638  19.302  20.833 -0.0374 -0.0588 -0.2208
34680W        W77733  18.299  20.041   9.568 -0.1812  0.3335  0.1775
34681W        W77734  26.939  13.627  20.227 -0.0981 -0.0709  0.1009
34682W        W77735   2.875  34.010   2.841 -0.0112 -0.1913  0.0394
34683W        W77736  25.982  12.434  27.511 -0.1170 -0.2170 -0.2873
34684W        W77737  26.476  20.609   0.299  0.1082 -0.0584  0.1922
34685W        W77738  20.820  14.024  29.109  0.0017 -0.0290 -0.0152
34686W        W77739  22.780  17.852  25.250  0.2466 -0.4454 -0.0158
34687W        W77740  19.006  24.738   6.905 -0.0423  0.1652 -0.0017
34688W        W77741  25.757  14.058   8.915  0.3326 -0.3814  0.0565
34689W        W77742  23.726  18.970   1.671 -0.0953  0.1869 -0.1142
34690W        W77743   8.477  14.602   8.812  0.1696  0.2784 -0.3086
34691W        W77744  32.582  29.089   0.485  0.1216  0.0655 -0.2170
34692W        W77745  19.441   7.968  25.608 -0.2793 -0.0215 -0.0551
34693W        W77746  22.893  17.195   2.052  0.1551 -0.1754  0.2759
34694W        W77747   3.424   4.033  27.585  0.0050  0.2139 -0.5044
34695W        W77748  24.600  22.268   9.837  0.1674 -0.0738  0.3358
34696W        W77749  13.482  12.422   5.277 -0.1969  0.0132 -0.1328
34697W        W77750  21.405  12.431   7.977 -0.0584 -0.1497  0.0177
34698W        W77751  18.634  21.867  24.021 -0.3326 -0.3846  0.1295
34699W        W77752  32.774  21.731   7.824  0.3062 -0.1510  0.0320
34700W        W77753   3.046   8.194   3.904 -0.1146 -0.2499  0.0633
34701W        W77754  25.151  22.865   4.852 -0.0278  0.0093  0.0588
34702W        W77755  32.436  20.501   5.347  0.1190  0.0135 -0.0959
34703W        W77756  28.331  16.630   3.997  0.0290 -0.1248 -0.0269
34704W        W77757  28.080   4.320   5.482 -0.4095 -0.0811 -0.1633
34705W        W77758  30.554  15.313   2.059 -0.0520 -0.0195 -0.0562
34706W        W77759  25.362  20.525  16.786  0.2876 -0.0038  0.1162
34707W        W77760  18.189  22.523   3.444 -0.4130 -0.2426  0.3640
34708W        W77761  24.210  14.816  27.061 -0.5008 -0.4456 -0.1561
34709W        W77762  14.883  11.648  28.164  0.0753  0.3587  0.0008
34710W        W77763  27.297  18.051   5.869 -0.0390 -0.0635  0.0981
34711W        W77764  26.489  19.795  10.178  0.0291 -0.0110 -0.2385
34712W        W77765   0.873  17.458   8.811 -0.3116  0.1537  0.1298
34713W        W77766  28.444  20.869  26.858  0.0052  0.3791  0.0464
34714W        W77767  15.298  12.773   9.941 -0.1731  0.1047  0.3149
34715W        W77768  17.552  13.702  21.690 -0.0121 -0.2219 -0.3454
34716W        W77769  29.355  16.500   2.416  0.0940 -0.1660  0.0440
34717W        W77770  16.908  10.724   6.873 -0.1140  0.1072  0.0649
34718W        W77771  31.783   8.713   1.344  0.1299  0.0557 -0.0578
34719W        W77772  27.574   4.166   9.037 -0.4001  0.0137  0.0329
34720W        W77773  32.298  18.775   8.245  0.2321 -0.1070 -0.1037
34721W        W77774  20.412  27.130  23.556  0.2736 -0.1121  0.1306
34722W        W77775  21.876  15.098  26.097 -0.0152  0.1263  0.1497
34723W        W77776  22.725  13.921   7.363  0.1648 -0.2636 -0.3815
34724W        W77777  16.939   7.423   1.499 -0.0386 -0.0912  0.2840
34725W        W77778  33.530   2.403  19.968 -0.0842  0.0019  0.0127
34726W        W77779  27.369  25.268   8.525  0.1548  0.1357 -0.0165
34727W        W77780  11.224  26.348   7.374 -0.2462 -0.0364  0.0459
34728W        W77781  18.493  13.494   1.825 -0.1552  0.2915 -0.0750
34729W        W77782  24.619  11.993  23.878 -0.0220 -0.2159 -0.3240
34730W        W77783  28.642   9.480  10.976  0.2484  0.1119 -0.0325
34731W        W77784   7.608   8.114  15.015 -0.2920  0.0348 -0.1268
34732W        W77785  30.417  15.758   8.215  0.0193  0.0008  0.2209
34733W        W77786  29.879   8.526   1.943  0.1250  0.1195  0.3230
34734W        W77787  21.076  24.865   9.425 -0.1664  0.3070  0.0710
34735W        W77788  23.098   8.119   8.612 -0.0941  0.0811  0.1411
34736W        W77789  13.704  15.945  27.681  0.0734 -0.2425 -0.1664
34737W        W77790   7.747  12.605   4.032 -0.3294  0.2810  0.0272
34738W        W77791  30.554  19.230   4.191  0.1957  0.2204  0.2592
34739W        W77792  29.977  15.000  18.220 -0.1808  0.0896 -0.0782
34740W        W77793  18.448   5.647   6.746 -0.3783  0.1078  0.0163
34741W        W77794  14.837  16.406   4.825  0.1512 -0.0577 -0.2948
34742W        W77795  25.843  31.118   9.697  0.0429 -0.1654 -0.0620
34743W        W77796  28.230  23.856   8.105  0.2353 -0.0917  0.0792
34744W        W77797  12.521  16.446   8.441  0.1602  0.1184  0.0015
34745W        W77798  28.263  22.818   6.463 -0.4262  0.0052  0.0679
34746W        W77799  14.822  15.192   9.742 -0.2137  0.1758  0.1426
34747W        W77800   9.927  12.987   9.052 -0.2924 -0.2763 -0.2647
34748W        W77801  20.407  13.727   7.082  0.0743  0.1838  0.0981
34749W        W77802  24.861  13.174  28.072 -0.0511 -0.2224  0.1725
34750W        W77803  29.860  20.940  19.488  0.0381  0.1711 -0.0475
34751W        W77804   4.972   6.297   9.147  0.0551  0.0570 -0.0413
34752W        W77805  33.081  27.308  27.173 -0.0631  0.0364  0.2734
34753W        W77806  26.395  21.250   5.577  0.2129 -0.0060  0.2829
34754W        W77807  27.828  13.800   3.880 -0.1214 -0.1064 -0.1076
34755W        W77808  30.174  22.943  27.111 -0.0525 -0.1076  0.2350
34756W        W77809  22.015  33.686   9.658  0.3326  0.1441 -0.0036
34757W        W77810  24.464  23.761   5.704 -0.1731  0.1013  0.1010
34758W        W77811  30.485  22.108   9.597 -0.0174  0.3461  0.1978
34759W        W77812  33.439  15.652   3.467 -0.0476 -0.0076 -0.3270
34760W        W77813  32.542  10.912   0.599  0.1794 -0.0945  0.2862
34761W        W77814  11.319  15.818  21.360  0.3351  0.2826 -0.0751
34762W        W77815  29.591  27.296  29.133  0.0538 -0.0798 -0.1160
34763W        W77816  11.079   0.795  19.563  0.0124  0.1885  0.1770
34764W        W77817  30.352  23.230  24.872  0.0494 -0.1371 -0.1121
34765W        W77818   4.999  27.665   5.663 -0.0847 -0.2297  0.0952
34766W        W77819  30.812  29.448   5.101 -0.2420 -0.0416  0.0999
34767W        W77820  32.430  26.752   2.273 -0.2740 -0.1810 -0.0672
34768W        W77821  27.173  34.285  20.264  0.0954  0.1013 -0.3244
34769W        W77822   9.465   6.322   6.969 -0.0455 -0.1749  0.0437
34770W        W77823  18.418  21.312   0.351 -0.1286 -0.2538 -0.1910
34771W        W77824  20.608  19.734   0.077  0.0480 -0.2603 -0.1946
34772W        W77825  25.486  15.184   7.691 -0.1938 -0.0626  0.2384
34773W        W77826  19.354  20.485  24.985  0.1820  0.2028 -0.0842
34774W        W77827   6.977   8.250  19.962  0.2523  0.0002 -0.0638
34775W        W77828   5.557  24.247  16.444  0.0118  0.0221  0.1234
34776W        W77829  27.718  23.766  16.929 -0.0800  0.0899 -0.3388
34777W        W77830  30.436   3.713   8.908  0.0860 -0.4036  0.0234
34778W        W77831   0.114  29.928   0.896 -0.3277 -0.0564 -0.0545
34779W        W77832  23.637  14.083   0.189  0.3589  0.3078 -0.1025
34780W        W77833  28.292   2.619   1.869 -0.1773  0.1142 -0.0994
34781W        W77834  19.310   3.288   3.914  0.0463  0.0548 -0.3615
34782W        W77835   3.494  23.610   4.006  0.0691  0.1968  0.0643
34783W        W77836   1.399   8.998  15.379  0.0378 -0.0324 -0.0659
34784W        W77837  32.758  14.602  25.818 -0.1759  0.0905 -0.1252
34785W        W77838  24.600  21.227   6.092  0.0376 -0.2694 -0.2252
34786W        W77839  17.508   8.558  10.026  0.4178 -0.2641  0.0009
34787W        W77840   6.400  14.243   5.911 -0.0699  0.0178  0.0947
34788W        W77841  15.611  21.489   1.399  0.1646  0.2689 -0.0790
34789W        W77842  22.488  19.094  21.597  0.0781 -0.1267  0.2724
34790W        W77843  21.224  21.923  21.389 -0.0186  0.0013 -0.3515
34791W        W77844  31.902  30.182   8.975  0.2484  0.1963 -0.1742
34792W        W77845  19.513  15.827  24.353  0.0128 -0.0093  0.0800
34793W        W77846  21.967  33.130   6.825  0.1572 -0.0757  0.0428
34794W        W77847  13.505  20.093  10.372  0.0737  0.0567  0.1334
34795W        W77848   4.104  15.505   3.622  0.2113 -0.0843  0.2115
34796W        W77849  29.083  21.581   0.677 -0.0434  0.0064 -0.2609
34797W        W77850  13.401  16.912   1.466 -0.2776 -0.3992  0.3664
34798W        W77851  26.905  10.812   4.673 -0.2258 -0.0950  0.2054
34799W        W77852  22.146  26.104  10.236  0.2331 -0.1147 -0.0209
34800W        W77853  16.947   7.321  24.993 -0.0162  0.1762 -0.0890
34801W        W77854  30.858  32.568  23.399  0.0672 -0.0585 -0.2617
34802W        W77855  10.343  20.102  28.707 -0.1345  0.0783  0.1335
34803W        W77856  28.987  27.955   1.879 -0.1549 -0.4410 -0.0322
34804W        W77857  22.393   7.836  20.133  0.1911  0.2706  0.1561
34805W        W77858   3.154  22.396   4.207 -0.2416 -0.1479 -0.0198
34806W        W77859  27.585  15.423   9.587  0.2095  0.2695 -0.1465
34807W        W77860  21.796  30.156  26.962 -0.2877  0.2265 -0.1381
34808W        W77861  17.244  29.999   4.708  0.1125 -0.0322  0.0657
34809W        W77862  26.269  16.545  20.732 -0.0105 -0.0373 -0.1267
34810W        W77863  27.043  10.761   9.611 -0.3666  0.0140  0.0344
34811W        W77864   8.824  16.795  18.630 -0.1423 -0.1746  0.2329
34812W        W77865   2.788  24.561  25.905 -0.1702  0.4072  0.2928
34813W        W77866   3.191   4.843   7.218 -0.2554  0.2199 -0.0187
34814W        W77867  12.041  13.158  23.761 -0.0289  0.1181  0.1586
34815W        W77868  21.432  16.772   1.909  0.0163  0.0225 -0.2031
34816W        W77869  26.212  16.976   4.597  0.1383 -0.2191 -0.0438
34817W        W77870  27.026  10.084   5.786 -0.2252  0.0356 -0.1832
34818W        W77871   3.561  21.633   5.168 -0.0333 -0.1177 -0.1773
34819W        W77872  26.169  14.279   7.430  0.0020 -0.5166 -0.2131
34820W        W77873  17.221  13.532  10.160 -0.3860  0.1602  0.0928
34821W        W77874  32.185  28.773  21.850 -0.0592  0.0068 -0.1114
34822W        W77875  29.937  24.705  23.439 -0.1617 -0.0035 -0.1315
34823W        W77876  31.184  24.205  23.827 -0.0887  0.4371 -0.0809
34824W        W77877  32.206  22.886   8.259  0.0993 -0.2296  0.0080
34825W        W77878   0.425  18.475   8.387  0.0888  0.2061  0.2983
34826W        W77879   8.170  22.989   2.389 -0.0785 -0.3183  0.1075
34827W        W77880  22.700   0.161   8.007  0.4416  0.0027 -0.0175
34828W        W77881  24.111  19.345   1.791 -0.1661  0.0261 -0.2688
34829W        W77882  20.762  20.224   0.462  0.0326 -0.0970  0.2694
34830W        W77883  11.666  14.844  10.621 -0.0562  0.1087 -0.1174
34831W        W77884  28.180  22.776  24.871  0.2023  0.1835 -0.1838
34832W        W77885  29.281  14.797   7.597 -0.0758  0.0601  0.1245
34833W        W77886   1.528  24.416   8.879  0.3443 -0.0782 -0.3310
34834W        W77887  22.635  21.213   1.467 -0.0629  0.2195 -0.3387
34835W        W77888  25.408  34.593   9.229  0.1380 -0.4108 -0.1711
34836W        W77889   2.013  13.254  14.374  0.1669  0.1509 -0.0632
34837W        W77890  20.910  16.191  26.764  0.0037 -0.0605 -0.0876
34838W        W77891  23.290  15.882   0.990 -0.0016  0.2859 -0.1469
34839W        W77892  16.552  22.643  28.136 -0.2243 -0.2487  0.3424
34840W        W77893  22.012  22.897   9.746  0.1573 -0.0786  0.0353
34841W        W77894  27.471  33.824  21.535  0.2285 -0.0576  0.1744
34842W        W77895   0.654  15.290   0.945  0.1385 -0.2553 -0.0993
34843W        W77896  32.838  12.110   5.946 -0.3667  0.0548 -0.5102
34844W        W77897  33.781  23.642  25.720  0.0584  0.1685  0.0988
34845W        W77898  28.381  14.853   9.005  0.1035  0.1290 -0.0392
34846W        W77899  32.859  19.582   1.582 -0.1383 -0.1261 -0.1367
34847W        W77900  30.472  21.043   7.751  0.1280 -0.0939  0.1264
34848W        W77901  10.031  15.920   5.385 -0.1673 -0.3279 -0.4122
34849W        W77902  32.609  28.481  23.777  0.0693 -0.0461  0.0972
34850W        W77903  14.243  21.269   6.004 -0.3132  0.2092 -0.1879
34851W        W77904  22.399  18.174   1.588  0.1816  0.2172 -0.0409
34852W        W77905   1.852  16.906   1.087 -0.3178  0.3363 -0.1611
34853W        W77906  30.860  12.070  27.781 -0.0203 -0.3310 -0.0841
34854W        W77907  33.279   7.272   5.941 -0.0288  0.0705 -0.0106
34855W        W77908   6.944  21.056   3.236  0.0073 -0.1799 -0.1142
34856W        W77909  31.476  17.499  16.650  0.1714  0.0028 -0.0637
34857W        W77910  29.746  29.304   1.981  0.2654  0.1783  0.2916
34858W        W77911  28.443  13.633  10.071 -0.1112 -0.0330 -0.3491
34859W        W77912  23.483  12.943   5.220  0.1374  0.2713  0.2298
34860W        W77913   3.230  10.783  10.231 -0.1422 -0.2665 -0.1989
34861W        W77914  10.003  12.166   3.805 -0.0550 -0.0235  0.0734
34862W        W77915  17.581  30.714   4.164  0.4601  0.1547 -0.2118
34863W        W77916   3.811   8.585  20.141  0.1787  0.0696 -0.1311
34864W        W77917  21.773  21.206   1.006 -0.3247  0.2848  0.0027
34865W        W77918  23.577  23.818   2.814  0.2783 -0.2352  0.4332
34866W        W77919  29.445   8.446  20.524 -0.0209  0.2706  0.1803
34867W        W77920  20.550  14.842   1.785 -0.0055 -0.3274 -0.2469
34868W        W77921   1.909  16.663   5.573 -0.1156 -0.0386  0.0085
34869W        W77922  18.314   6.764   4.345  0.2018 -0.1443 -0.1104
34870W        W77923  30.018  15.044  17.610 -0.2204 -0.0837  0.2151
34871W        W77924  28.996  13.452  10.181 -0.2703 -0.1673  0.4337
34872W        W77925  33.569   7.010   7.318  0.1858 -0.0720 -0.1465
34873W        W77926  31.354   8.492  16.947  0.0751 -0.1108 -0.1055
34874W        W77927  24.275  12.271  26.150  0.1107 -0.1991 -0.1694
34875W        W77928  14.660  27.186   9.344  0.3158 -0.0217  0.1620
34876W        W77929   3.085   1.401  26.836 -0.0484 -0.1196  0.1498
34877W        W77930  12.052   7.839   0.710 -0.0368 -0.0724 -0.2317
34878W        W77931   9.478  10.643   2.761 -0.0477  0.0114 -0.0533
34879W        W77932  20.201  22.717   4.089  0.2790  0.2556  0.0873
34880W        W77933  23.814  24.061   5.190  0.0695 -0.0213  0.5168
34881W        W77934  19.863  26.807  11.155  0.3079  0.1791 -0.4002
34882W        W77935  28.162  25.321   5.820  0.1730  0.0616 -0.3015
34883W        W77936  30.053   8.052   2.779 -0.3055 -0.1720 -0.0898
34884W        W77937  17.000  17.384  28.198  0.1677  0.4980  0.0144
34885W        W77938  24.095   4.341  25.811  0.1483  0.3343  0.1879
34886W        W77939  31.958  22.019   7.899 -0.0692 -0.1275 -0.2695
34887W        W77940  24.338  13.075   5.794 -0.3089  0.3221  0.0329
34888W        W77941   2.108  31.288   8.555 -0.2027  0.1801 -0.0671
34889W        W77942  18.745   5.431  29.173  0.0660  0.0169  0.2882
34890W        W77943  23.867  21.949  27.847 -0.1787  0.1035  0.2478
34891W        W77944  29.237  11.039   7.233  0.1549 -0.0596 -0.0156
34892W        W77945  18.600  12.195   7.361  0.0567 -0.0451 -0.0143
34893W        W77946   4.889  22.850  25.865 -0.0423  0.0141  0.0900
34894W        W77947  12.076  14.777  28.564 -0.0446 -0.1521  0.2368
34895W        W77948  23.760   8.692   8.746  0.0332 -0.3596 -0.0601
34896W        W77949  15.498  30.691   6.724 -0.0373  0.1335  0.1876
34897W        W77950  14.661   0.055   5.867  0.0690  0.1121  0.0447
34898W        W77951  23.474  15.913   9.628  0.0048  0.0237  0.3267
34899W        W77952  11.963  11.721   3.277 -0.1694 -0.1776  0.0442
34900W        W77953  24.881  15.853  27.669  0.1935  0.0585 -0.0477
34901W        W77954   5.402  33.949  27.441  0.3294  0.0817  0.0999
34902W        W77955  15.570  19.742   3.550  0.0352 -0.2030 -0.0612
34903W        W77956  19.801  10.168   2.052  0.1813 -0.1321  0.2097
34904W        W77957  11.612  20.053   7.173  0.1135 -0.0121 -0.2631
34905W        W77958   5.879  12.043  18.234 -0.0189  0.0992  0.4856
34906W        W77959   7.552  23.557  25.583  0.1538 -0.2392  0.0450
34907W        W77960  30.210  22.855  24.537  0.1917 -0.3233  0.1678
34908W        W77961  29.994  28.579   4.154 -0.0564  0.2788 -0.4423
34909W        W77962  31.471  19.987  27.787  0.3580  0.3472  0.1340
34910W        W77963  22.854  18.256  29.059  0.1156  0.0125 -0.0603
34911W        W77964   8.909  34.122   4.316  0.0903  0.0643 -0.2120
34912W        W77965  26.416  13.643  24.007 -0.1449  0.1235 -0.5312
34913W        W77966  26.131  15.871   8.764 -0.0715  0.1459  0.1262
34914W        W77967   3.826  23.296   7.654 -0.1852  0.3631  0.1598
34915W        W77968  26.919   9.391   4.131  0.1083  0.0243  0.0089
34916W        W77969  30.456  10.364  10.427  0.3287  0.1564  0.5536
34917W        W77970  29.522  34.665   1.231 -0.1620 -0.0915 -0.0887
34918W        W77971  25.869  26.054  23.198 -0.0153  0.0964  0.0571
34919W        W77972  19.057   4.934   6.766 -0.2889  0.1975 -0.1102
34920W        W77973  27.079  24.553  18.715 -0.1265 -0.0139  0.0370
34921W        W77974  31.583   5.535  25.606 -0.0219 -0.0381  0.1742
34922W        W77975   2.265   9.970   1.529  0.1322  0.0809 -0.2283
34923W        W77976  31.130  12.489   2.851  0.1203  0.0529 -0.2356
34924W        W77977  24.132   3.087  28.581 -0.0770  0.0028  0.2894
34925W        W77978  25.595  24.166   7.182  0.1495 -0.2833  0.0126
34926W        W77979   3.413   4.270   8.532 -0.2051 -0.0002  0.2849
34927W        W77980   1.974  21.643   5.303 -0.0584  0.5178  0.0275
34928W        W77981  30.492  19.166   5.643 -0.1031 -0.1439 -0.1409
34929W        W77982  24.244   5.634  24.773  0.0823 -0.0004 -0.1538
34930W        W77983  30.219  28.519  24.447 -0.0460  0.0633 -0.1001
34931W        W77984  23.439  18.742   4.328 -0.1536 -0.1651 -0.0117
34932W        W77985  32.501   7.826   8.420  0.2215  0.0210 -0.1074
34933W        W77986  32.386   9.427   4.182 -0.1893  0.1949  0.1654
34934W        W77987  31.916  11.930   5.716 -0.2771  0.1461 -0.0017
34935W        W77988  16.050   5.078  19.276 -0.2603 -0.1176  0.2167
34936W        W77989  25.966  24.266   3.827 -0.0414  0.0958  0.0750
34937W        W77990  34.069  29.696   8.111 -0.2475 -0.0700  0.2779
34938W        W77991  26.784  21.418  28.735  0.1721 -0.1615 -0.2455
34939W        W77992  32.925  12.174   5.411 -0.0052  0.0160 -0.0054
34940W        W77993  15.180   8.700  10.112  0.2858 -0.2641  0.1607
34941W        W77994  24.200  18.947   6.195  0.0520  0.1745 -0.0255
34942W        W77995  28.665  11.196   4.246  0.1577  0.0634 -0.2391
34943W        W77996  29.309  12.798   7.024 -0.2017 -0.0060  0.1587
34944W        W77997   1.598  18.055  24.358  0.0070  0.2518 -0.3484
34945W        W77998  29.712  20.954   1.567  0.0723  0.1824  0.0215
34946W        W77999  13.823  32.494   9.704  0.1739 -0.0169  0.0532
34947W        W78000  19.580  26.754   1.306 -0.2433 -0.1279 -0.1238
34948W        W78001  18.742  22.653   4.839 -0.2437  0.1891  0.0159
34949W        W78002   2.550  15.810   6.697  0.0107 -0.5079  0.0636
34950W        W78003  13.027   5.320  10.708  0.1778 -0.0227  0.0419
34951W        W78004  24.256   8.629   9.601 -0.1811 -0.2880 -0.2532
34952W        W78005  24.237   9.811   8.086 -0.1216 -0.1380 -0.0479
34953W        W78006  27.140  14.614   9.191  0.2993 -0.1719 -0.2281
34954W        W78007  21.075  27.633   9.108  0.0594 -0.4077  0.4989
34955W        W78008  30.739  10.907  23.832  0.0973  0.0317 -0.0908
34956W        W78009  29.797  13.943  27.206 -0.0242 -0.3444 -0.1275
34957W        W78010  11.687  15.700   6.805  0.3489  0.0484  0.2092
34958W        W78011  29.708   8.115  19.976 -0.1710  0.0324 -0.0229
34959W        W78012   4.333   0.791   4.179  0.1042  0.1032  0.4967
34960W        W78013  25.715  27.720  10.634  0.0864 -0.0947 -0.0845
34961W        W78014  26.158   4.865   5.608  0.1656 -0.1007 -0.0049
34962W        W78015  30.467  12.130  28.293  0.1632  0.2390  0.2071
34963W        W78016  16.471  21.928   4.746 -0.2260 -0.1959  0.1313
34964W        W78017  20.789  26.663  25.026  0.2149  0.1210  0.0756
34965W        W78018  30.622  32.303   7.444 -0.0320 -0.3147  0.0415
34966W        W78019  25.571   9.320  15.673 -0.1718 -0.2365 -0.1159
34967W        W78020  32.023  33.869  25.610 -0.2342  0.1007 -0.1489
34968W        W78021  31.142  20.839   8.918  0.2763  0.0010 -0.0445
34969W        W78022  20.997  28.795   2.360 -0.3149 -0.0542  0.0335
34970W        W78023   8.613  17.052   7.411  0.2987 -0.0542 -0.1396
34971W        W78024  20.451  15.521   1.172  0.0278 -0.0674 -0.2568
34972W        W78025   5.140   9.134   9.465  0.1823  0.1982 -0.3672
34973W        W78026  30.896  30.237   5.729  0.0052 -0.1453 -0.0249
34974W        W78027   2.664   4.656   7.540  0.0427  0.0439 -0.1467
34975W        W78028   1.547  19.733   0.855  0.0870  0.1271 -0.1699
34976W        W78029  20.128   7.855   4.725 -0.3835 -0.1695  0.2008
34977W        W78030  21.159  23.123   6.198 -0.1220 -0.0668  0.0952
34978W        W78031  13.850  15.031   5.117  0.0293 -0.1672 -0.0555
34979W        W78032  17.059   3.274   7.956  0.0285 -0.4201  0.0859
34980W        W78033  30.339  20.284   9.517 -0.1395  0.1509 -0.0138
34981W        W78034  34.173  16.688   8.307 -0.0216  0.1276 -0.0065
34982W        W78035  27.922  12.595   6.721 -0.0182  0.0893  0.0516
34983W        W78036   2.875  22.199   4.949 -0.2882  0.1904  0.3135
34984W        W78037  24.119   4.487   2.043 -0.0867 -0.1443  0.3682
34985W        W78038  31.429  24.610   4.352  0.2006 -0.0895  0.2592
34986W        W78039  33.119  22.845   6.202 -0.0120  0.0820  0.0359
34987W        W78040  24.956   5.786   3.513  0.1869 -0.2786 -0.0461
34988W        W78041  15.756  20.031   5.215  0.1043  0.0149  0.1782
34989W        W78042  30.587  26.296  25.028 -0.4168  0.0939  0.2189
34990W        W78043  20.755  26.988   0.502  0.1391  0.0402  0.0987
34991W        W78044  25.440  30.783  25.195  0.0879 -0.2824  0.2584
34992W        W78045  32.819  23.159   3.564 -0.1098 -0.3067 -0.0854
34993W        W78046  18.904  11.455  26.751  0.2674 -0.0842 -0.0561
34994W        W78047   0.501  12.020  10.594 -0.0078  0.1065  0.2685
34995W        W78048  11.139  27.307   4.463  0.2342 -0.5300  0.2367
34996W        W78049  19.069   6.677  27.462 -0.2873  0.1887 -0.0241
34997W        W78050  16.076  27.752   2.078 -0.3572  0.0947 -0.1883
34998W        W78051  30.060  17.932   7.570 -0.2981 -0.1851 -0.1347
34999W        W78052  30.015   3.326   5.427  0.1209  0.2077  0.5608
35000W        W78053  13.630  11.813   9.557  0.1388 -0.2008  0.2229
35001W        W78054  14.433  26.722   7.397 -0.0556 -0.1870 -0.3348
35002W        W78055  29.402  17.836   5.980  0.5929  0.1375 -0.0833
35003W        W78056  27.800  27.621  28.602  0.3349 -0.0643 -0.1531
35004W        W78057  26.976   3.047   7.946 -0.0267 -0.0714 -0.0781
35005W        W78058   9.538  15.945   5.365 -0.2502 -0.0353  0.1323
35006W        W78059  28.118  11.778  25.557 -0.2366 -0.0469 -0.1739
35007W        W78060  11.695  20.988   1.367  0.1720  0.2982 -0.3352
35008W        W78061  14.032  18.057   1.958  0.0872 -0.0301 -0.1567
35009W        W78062  31.604  28.384   9.040  0.0360  0.0486  0.1300
35010W        W78063  26.079  33.481   8.483 -0.3449  0.2028 -0.5120
35011W        W78064  19.822  22.044   6.689 -0.1464 -0.0383  0.1153
35012W        W78065  22.200  10.708   6.091  0.2126 -0.3840  0.0004
35013W        W78066  21.499  27.862   4.965 -0.0374 -0.1058 -0.4523
35014W        W78067  22.183  15.559   8.248  0.3424 -0.2999 -0.0387
35015W        W78068  29.326  31.489  17.265 -0.0957 -0.0954  0.1012
35016W        W78069  28.130   1.738  28.741 -0.1975 -0.0279 -0.2950
35017W        W78070   2.590  10.024   5.939 -0.0523 -0.1576  0.4297
35018W        W78071  24.700  18.538  26.895 -0.4162  0.0705  0.2601
35019W        W78072  10.030  18.345  28.964  0.0608  0.1347  0.0794
35020W        W78073  33.661   7.595   6.324 -0.0522  0.0425 -0.0262
35021W        W78074  12.660  16.435   9.053 -0.1148  0.1515 -0.2373
35022W        W78075  20.832  26.223  25.220 -0.1773  0.0908 -0.1299
35023W        W78076  21.097  11.949  21.374  0.2978  0.0688  0.0572
35024W        W78077  21.830  19.142   8.876  0.0730 -0.2258 -0.0194
35025W        W78078  27.433   9.857   2.859 -0.1151 -0.0080 -0.3191
35026W        W78079  23.521  12.026   6.528 -0.0960 -0.0046 -0.0287
35027W        W78080   2.041   4.693   6.352  0.0339 -0.1645  0.3868
35028W        W78081  28.702  16.546  28.392 -0.0678  0.3764 -0.0974
35029W        W78082  32.972  28.374  28.963 -0.4393  0.1440 -0.0198
35030W        W78083  25.634   4.364   7.995 -0.1912 -0.1498  0.1620
35031W        W78084  34.290  21.880   8.772  0.5179 -0.0636  0.2266
35032W        W78085  28.029  19.352   7.164  0.0327  0.1486 -0.1277
35033W        W78086  21.295  26.805   6.028 -0.1635  0.1370  0.0152
35034W        W78087   2.805  33.735   1.540 -0.2287  0.0029 -0.2518
35035W        W78088  11.457   9.223  10.162  0.1518 -0.1170 -0.1900
35036W        W78089   3.260  19.577   6.358  0.0068  0.0386  0.0170
35037W        W78090  26.060  23.716  22.324  0.0467  0.0106  0.0696
35038W        W78091  34.132  18.592   6.186  0.4795  0.1869  0.1832
35039W        W78092  29.919   1.552  10.257 -0.0223  0.0269  0.1626
35040W        W78093  11.816   7.512   1.925  0.1225  0.1266  0.0222
35041W        W78094  29.259  23.511  16.930 -0.0761 -0.2182  0.2575
35042W        W78095  19.728  21.253   4.429  0.1830  0.0586 -0.1269
35043W        W78096  29.246  18.068   4.179 -0.1251 -0.2608 -0.1049
35044W        W78097  22.464  23.228   8.848  0.1160  0.1906  0.0516
35045W        W78098  25.403   3.913   4.523 -0.1567  0.2084  0.0207
35046W        W78099  21.279  16.952   0.908 -0.1744 -0.0907  0.0734
35047W        W78100  33.096  13.827   8.911 -0.5534 -0.2272 -0.0367
35048W        W78101  18.147  12.307   7.661  0.1899  0.0899 -0.1609
35049W        W78102   2.574  10.429   3.963  0.2833  0.2042  0.2406
35050W        W78103   5.800  16.807   0.298  0.2458 -0.1187  0.1082
35051W        W78104  31.111  20.087   6.529 -0.0737  0.0262  0.1300
35052W        W78105   1.378   6.998   8.893 -0.0580 -0.2397  0.1267
35053W        W78106  31.963  15.126   9.714 -0.2048  0.1043  0.0346
35054W        W78107   6.026   6.345   7.463  0.2649  0.0634 -0.2849
35055W        W78108  26.529   5.315   7.562  0.2358  0.2004  0.0310
35056W        W78109  33.078  14.101   5.612 -0.2639 -0.0582  0.4115
35057W        W78110   4.080  30.117   4.603  0.0265 -0.2201  0.0564
35058W        W78111  19.744  13.240  25.791 -0.2125 -0.0323 -0.1209
35059W        W78112  25.055  23.565   9.718 -0.0916 -0.0483  0.0927
35060W        W78113  22.106  25.748   5.218  0.1501 -0.2132 -0.1417
35061W        W78114  26.136   9.648   1.464 -0.0151 -0.0354 -0.0068
35062W        W78115  19.940  13.206   6.052  0.2116 -0.3233  0.2425
35063W        W78116  25.584  30.831  26.082 -0.2046 -0.0605 -0.1296
35064W        W78117  19.147   5.478   7.785 -0.0409 -0.1869 -0.2335
35065W        W78118  26.697   0.041  10.376 -0.0581 -0.1362 -0.0774
35066W        W78119  23.183   7.748   7.054  0.2954  0.1408 -0.4275
35067W        W78120  31.144  22.037   7.694 -0.0770  0.1233 -0.2098
35068W        W78121  19.493   7.981   2.625 -0.0939 -0.2567  0.0025
35069W        W78122  21.145  24.617  10.650  0.0986 -0.4814 -0.1506
35070W        W78123  18.668  14.913   7.420 -0.1592  0.1129 -0.1430
35071W        W78124  12.102  13.086   2.110 -0.3555  0.1734 -0.1131
35072W        W78125   1.693  33.708   6.350  0.0872 -0.0433 -0.1001
35073W        W78126  25.240   4.241  16.668  0.1967  0.2243 -0.3158
35074W        W78127  20.670  12.255  28.710  0.1139  0.1812  0.2553
35075W        W78128   1.098  32.818   0.510  0.2182 -0.0770  0.1998
35076W        W78129  32.184  26.204  28.529 -0.1297 -0.1608 -0.1353
35077W        W78130  19.476  26.474   3.915  0.1542  0.2743  0.2404
35078W        W78131  11.598   6.181   7.038 -0.0416 -0.0452  0.0394
35079W        W78132  19.425  19.393  21.547  0.3721  0.0101  0.2078
35080W        W78133   0.878   8.415   5.886  0.0346  0.1254 -0.2179
35081W        W78134  17.226  15.178   1.334  0.1801 -0.0422  0.0314
35082W        W78135  23.748  14.458   0.705  0.1037 -0.1907  0.0703
35083W        W78136  20.525  33.248  26.550 -0.1795 -0.0977 -0.0567
35084W        W78137  30.141   5.375   8.557  0.1365 -0.0252 -0.0676
35085W        W78138  23.076  21.517   8.588  0.3620  0.2233  0.0095
35086W        W78139  16.592  24.165   7.706 -0.0527 -0.2149  0.1234
35087W        W78140  28.877  18.873   4.043 -0.4866  0.2097 -0.1425
35088W        W78141  25.479  13.626   7.575 -0.1187  0.1088 -0.4021
35089W        W78142  27.254  28.842  21.251 -0.0907 -0.0110  0.0838
35090W        W78143  16.717  28.952  10.130 -0.4467  0.3755  0.2121
35091W        W78144  34.307  19.237  24.434  0.2002  0.3639 -0.1496
35092W        W78145  27.188  25.108  10.468 -0.3165 -0.2688 -0.2535
35093W        W78146  27.035  23.873   6.627  0.2251  0.0799  0.1096
35094W        W78147   1.757   6.654  10.118 -0.1864  0.2094 -0.0607
35095W        W78148   0.810  20.554   1.066  0.0444  0.0072 -0.0299
35096W        W78149  18.175  25.977   7.185  0.1941 -0.0880  0.0029
35097W        W78150  18.698  18.154  10.192  0.0083  0.2438 -0.1330
35098W        W78151  31.676  29.908  23.261 -0.0666 -0.2160 -0.2048
35099W        W78152   8.369  34.640   7.943  0.2341 -0.0555  0.2356
35100W        W78153  22.282  10.941  24.925 -0.0158 -0.1003  0.3709
35101W        W78154  24.963  24.644   0.400  0.1821  0.1770 -0.0744
35102W        W78155  23.065   9.344   4.398 -0.3788 -0.2856 -0.0041
35103W        W78156  23.266   9.736   5.220 -0.0807  0.2272 -0.1976
35104W        W78157  27.348  33.583  28.935 -0.3736 -0.3528 -0.1589
35105W        W78158  24.902  29.914   5.976  0.0150  0.1500  0.0489
35106W        W78159  29.438  22.303   7.629 -0.0696  0.1451  0.1469
35107W        W78160  29.852  32.823   7.862 -0.4449 -0.1092 -0.0456
35108W        W78161   8.293   6.024   8.161 -0.0497  0.1439 -0.1751
35109W        W78162  20.200  25.062   9.182 -0.0057 -0.1702 -0.1637
35110W        W78163  33.136  28.775  28.686 -0.0438  0.0127  0.0444
35111W        W78164  27.613  16.384  25.837  0.2681  0.1125 -0.3543
35112W        W78165   1.225   8.510   3.756 -0.0185  0.0838  0.3437
35113W        W78166   2.261  18.349   4.260  0.0095  0.3541 -0.2661
35114W        W78167   3.803  14.488  22.818  0.1413 -0.2285  0.0789
35115W        W78168  33.271  14.544   2.022 -0.0945  0.1904 -0.0836
35116W        W78169  22.950   6.388  23.086 -0.2305 -0.0705 -0.0904
35117W        W78170  22.197  15.521   3.828  0.0234  0.1720 -0.1569
35118W        W78171  30.031  25.220  19.908  0.1254  0.1025 -0.2680
35119W        W78172  12.812  15.989   2.428 -0.1551 -0.2492 -0.0928
35120W        W78173  27.238  21.409   6.186  0.0665 -0.1283 -0.1678
35121W        W78174   0.690  14.151   2.154 -0.0976  0.2562  0.2008
35122W        W78175  22.540  33.833   8.412  0.1292  0.3662  0.0615
35123W        W78176  23.572  19.585   3.807 -0.0773 -0.0413 -0.2223
35124W        W78177  31.675  23.242  26.714 -0.0273  0.1061  0.0446
35125W        W78178  23.185   6.247   4.460  0.2386 -0.1019 -0.2164
35126W        W78179  31.458  13.752   6.429 -0.2102  0.1430 -0.1665
35127W        W78180  34.182  17.345   0.764 -0.0697  0.3790 -0.0914
35128W        W78181  32.918   7.668   2.484 -0.0152 -0.2005  0.1975
35129W        W78182  22.778  14.699  25.256  0.1009  0.2778 -0.4682
35130W        W78183  19.519  15.443   8.943 -0.2063 -0.2728 -0.1855
35131W        W78184   7.766  14.426  10.050 -0.2332 -0.3025  0.2342
35132W        W78185   0.540   4.537   9.475  0.1123 -0.1689 -0.0339
35133W        W78186   6.778  14.735   7.543  0.0878  0.0215 -0.1527
35134W        W78187  32.363  18.582   1.775  0.0344 -0.0873 -0.2701
35135W        W78188  29.140  14.956  10.456 -0.0420  0.0163  0.1772
35136W        W78189  17.875  12.858  24.281 -0.0719  0.1086  0.0222
35137W        W78190  19.082   2.018   9.423 -0.4267 -0.0866  0.0574
35138W        W78191  34.478  20.549  27.839 -0.0837 -0.4308 -0.0314
35139W        W78192  26.913  11.508   8.288  0.1239 -0.3166  0.3872
35140W        W78193  28.810   2.471   9.070 -0.1571 -0.0705 -0.1549
35141W        W78194  11.592  32.172  27.272  0.0364 -0.1202  0.2822
35142W        W78195  19.561   9.205   3.674  0.0254 -0.1439 -0.0349
35143W        W78196  24.945  20.221   5.162 -0.1871  0.0908  0.0850
35144W        W78197  19.777  18.378   8.307  0.0313  0.0703 -0.0506
35145W        W78198  27.886  14.931  26.875 -0.1625  0.2060 -0.1051
35146W        W78199  31.991  18.265   5.223  0.1143 -0.0224  0.4136
35147W        W78200  20.307  31.109   8.523 -0.0141  0.0393  0.3892
35148W        W78201  25.095   5.104  25.163  0.0501  0.2971 -0.2867
35149W        W78202   1.683  12.569  27.244  0.0243 -0.0827 -0.0595
35150W        W78203  31.675  20.214   1.092  0.0673 -0.1998 -0.2074
35151W        W78204  12.042  19.287   8.226 -0.0504 -0.1914  0.0005
35152W        W78205  32.804  12.877   7.939  0.0348 -0.1946  0.1324
35153W        W78206  23.443  25.235   4.074 -0.0716  0.0668  0.1328
35154W        W78207  34.362  33.312   7.280 -0.0967 -0.1104  0.0601
35155W        W78208   9.728  17.743   8.440  0.1518 -0.1806 -0.0961
35156W        W78209  26.718  25.120   9.879 -0.0009 -0.0461  0.0569
35157W        W78210   3.634   9.067   6.163  0.0042  0.1189 -0.1141
35158W        W78211  21.792  15.911  28.618 -0.1457  0.0286 -0.0216
35159W        W78212  13.771  13.812   5.671  0.2756 -0.1431 -0.0842
35160W        W78213  29.352  32.026   9.413 -0.0208  0.0231  0.0744
35161W        W78214  18.731  31.829   6.930  0.0543  0.2611 -0.0856
35162W        W78215  24.474   9.715   8.985  0.1396 -0.1289 -0.1624
35163W        W78216  27.763   3.944   1.600 -0.0489 -0.4234  0.1559
35164W        W78217  16.032  13.726   2.770  0.0242  0.4873  0.0425
35165W        W78218  24.815  12.369   4.375  0.0441 -0.1341  0.1653
35166W        W78219  12.827  15.557   0.010  0.1365  0.0156  0.0784
35167W        W78220   2.897  23.205   3.324 -0.0070 -0.2190 -0.1724
35168W        W78221   2.865  13.079  29.155 -0.2324 -0.0077  0.2247
35169W        W78222  23.849  23.078   7.017 -0.2650 -0.1651  0.1301
35170W        W78223  23.412  19.245   3.430  0.1958  0.2751  0.1442
35171W        W78224  33.636  13.463   6.138 -0.0881 -0.0369  0.0219
35172W        W78225  23.574  32.484   4.674  0.1991  0.2095 -0.0640
35173W        W78226  22.182  14.291   4.014 -0.0604 -0.1691  0.3087
35174W        W78227   0.199   8.961   4.903 -0.0175 -0.1398 -0.1056
35175W        W78228  29.340   8.094   2.750 -0.1664  0.2918 -0.1640
35176W        W78229  17.713   2.371   9.530  0.0540  0.1262 -0.0155
35177W        W78230   1.952  23.027   7.061 -0.0697  0.0396 -0.1322
35178W        W78231   9.411  16.497   9.327 -0.0859 -0.0784  0.2460
35179W        W78232  27.250  28.136  23.683  0.2410  0.0300 -0.0671
35180W        W78233  34.579  15.428  25.458  0.1755  0.1478 -0.0977
35181W        W78234  23.150  20.019   3.972  0.0273 -0.1106  0.2909
35182W        W78235  23.886  23.795   7.183 -0.0022 -0.1701  0.0771
35183W        W78236  15.411  18.896   2.109  0.0200 -0.4404  0.2587
35184W        W78237   2.400  16.735  23.476  0.2834  0.0279  0.3519
35185W        W78238  25.973  16.607   4.243 -0.3755 -0.3186 -0.1722
35186W        W78239  22.532  20.313   7.182  0.1216  0.0501 -0.0416
35187W        W78240   4.583  15.373  23.677  0.0169 -0.1160 -0.1029
35188W        W78241  32.679  17.290   7.318 -0.1685  0.0506 -0.1236
35189W        W78242  13.476  15.957   5.718  0.2007  0.1397 -0.0383
35190W        W78243  31.011  22.870   5.386 -0.0112  0.1646  0.1335
35191W        W78244  14.677  34.172  28.365 -0.2235 -0.0761  0.0847
35192W        W78245  14.698  16.853   8.907 -0.0533 -0.0650 -0.2299
35193W        W78246   0.906  26.707  25.526 -0.0194  0.3670  0.2731
35194W        W78247  17.762  26.321   7.246  0.0996 -0.2353 -0.1488
35195W        W78248  32.219  16.812   1.961  0.1002  0.1198 -0.1367
35196W        W78249  10.850  15.841  16.411 -0.2500 -0.1275  0.3641
35197W        W78250  20.930   9.778   2.548  0.2702  0.1606  0.1557
35198W        W78251   3.787  19.245  17.699 -0.2629  0.0246  0.0600
35199W        W78252   3.534  22.380   2.986 -0.0375 -0.1372 -0.1723
35200W        W78253   9.373  15.111   1.518 -0.0507 -0.0369 -0.0299
35201W        W78254  27.032  14.254   8.793  0.1761  0.0537 -0.1703
35202W        W78255  13.039  26.185  28.429 -0.1316  0.0303 -0.2994
35203W        W78256   3.062  10.745   9.704 -0.0874  0.1547 -0.1464
35204W        W78257  21.676  17.017  22.821  0.3409 -0.1712  0.0244
35205W        W78258   4.283  30.166  14.564 -0.0138  0.0439 -0.0474
35206W        W78259   7.691  30.976  17.380  0.2144 -0.1733  0.0720
35207W        W78260  33.493  11.920   3.627  0.2338 -0.3006  0.0240
35208W        W78261   4.254  12.122  26.024 -0.0105  0.2236  0.2844
35209W        W78262   5.348  29.925   2.275  0.2551 -0.1974 -0.0138
35210W        W78263  24.543  16.264  24.612  0.1399 -0.0259  0.0391
35211W        W78264  27.365  28.047   9.622  0.1222 -0.0416  0.0049
35212W        W78265  15.533   9.359  27.191  0.1134 -0.1847  0.0352
35213W        W78266  11.250  27.950  27.271  0.0846 -0.1605 -0.4277
35214W        W78267  24.578  19.717   9.072  0.0711  0.3165  0.1240
35215W        W78268  26.786  11.431  23.920 -0.2819  0.1793  0.0183
35216W        W78269  18.015  25.598   7.510 -0.1046 -0.2720  0.0772
35217W        W78270  12.089  22.464   5.717 -0.0258 -0.0669  0.0710
35218W        W78271  13.921  17.126   7.476  0.0050 -0.2219  0.3001
35219W        W78272  24.795  22.404   6.753  0.3211 -0.2085 -0.4923
35220W        W78273  27.011  20.598  18.493 -0.3018  0.2109  0.0456
35221W        W78274  28.876  30.479   6.384  0.0532 -0.3104  0.0490
35222W        W78275  18.249  15.633   2.034  0.0326 -0.1086  0.2229
35223W        W78276  18.079  10.134   6.622  0.1322  0.1228  0.1418
35224W        W78277  27.463  29.181  26.781 -0.0050  0.3225  0.0928
35225W        W78278  20.684   1.926   7.879 -0.0004 -0.1945 -0.1495
35226W        W78279  27.321  28.948  23.949  0.1507 -0.3041 -0.0815
35227W        W78280  25.212  17.384  22.784 -0.2266 -0.1931  0.4080
35228W        W78281  31.990  15.174   5.137  0.0557  0.2049 -0.0629
35229W        W78282  26.337  21.971   5.709  0.0058  0.0245 -0.3247
35230W        W78283  28.480   1.910   0.848 -0.2786  0.1066 -0.0309
35231W        W78284  30.673  25.815   5.941  0.0147  0.1700 -0.0075
35232W        W78285  25.857  29.496  26.470  0.1557 -0.0591  0.0223
35233W        W78286  29.211  25.893  21.535 -0.0100 -0.1575  0.1018
35234W        W78287  22.584  12.043   6.241 -0.4007 -0.3036  0.0032
35235W        W78288  27.241  16.923   5.842 -0.1059  0.2029  0.0274
35236W        W78289  27.173  18.312  23.901  0.0381  0.1505 -0.0473
35237W        W78290  26.087  17.574   8.107  0.4140 -0.1024  0.0239
35238W        W78291  31.366  13.581  27.429 -0.0132 -0.1546  0.3141
35239W        W78292   2.003  26.740   3.460  0.1974  0.0695  0.1085
35240W        W78293  20.536  22.954   8.795 -0.0341 -0.0151 -0.0206
35241W        W78294  28.319  19.705  10.307  0.0691  0.1380  0.1256
35242W        W78295  21.093  18.666   9.119  0.1976  0.0168 -0.0044
35243W        W78296  23.281  27.223  16.189  0.4279 -0.1781 -0.1670
35244W        W78297  29.527  23.824   0.074  0.0231  0.1021 -0.1497
35245W        W78298  22.532  34.175   0.578  0.1506 -0.0313 -0.3042
35246W        W78299  29.766  16.568  16.715  0.0466  0.3250 -0.1599
35247W        W78300  30.227  21.128   4.769 -0.0355 -0.0051  0.2166
35248W        W78301  26.549   8.654   5.362  0.1839 -0.0293 -0.0119
35249W        W78302  12.630  12.453  23.302 -0.3367  0.2216 -0.2809
35250W        W78303  12.166  19.653   6.754 -0.3021  0.2612 -0.2129
35251W        W78304   6.990  24.547   8.677  0.0471 -0.0946  0.2518
35252W        W78305  20.129  17.323   1.932 -0.0510 -0.0514  0.0580
35253W        W78306  25.799  17.569  22.664  0.1711 -0.2699 -0.0158
35254W        W78307  18.879  25.681   2.418  0.2853 -0.4300  0.4801
35255W        W78308  19.240  19.522   4.284  0.0363 -0.4604 -0.2815
35256W        W78309  25.123  16.124   5.843 -0.4315 -0.1405 -0.0468
35257W        W78310  29.039  26.225  25.410  0.2131  0.0696 -0.1673
35258W        W78311   5.518   8.841   4.622 -0.0544  0.0150 -0.2980
35259W        W78312  31.866  27.515  19.692  0.2032 -0.1495 -0.1142
35260W        W78313  29.213  16.008   3.537 -0.2399 -0.2782 -0.2321
35261W        W78314   4.737   0.419   9.329  0.2238 -0.0136 -0.0624
35262W        W78315  24.922  10.938  14.696 -0.0900  0.1536  0.2341
35263W        W78316  25.444   5.875  28.495  0.1531 -0.6099 -0.0100
35264W        W78317  17.736   5.379   7.803 -0.3267 -0.2780  0.1376
35265W        W78318  20.704  29.467  17.870 -0.0456 -0.1580 -0.1277
35266W        W78319  22.024   7.194  16.055 -0.2332 -0.0860 -0.1021
35267W        W78320  18.818  20.911   5.531  0.6323 -0.1035 -0.3044
35268W        W78321  27.117   1.686  10.353 -0.0913 -0.0845  0.0599
35269W        W78322  27.879  28.941  26.581 -0.3329  0.1958  0.1455
35270W        W78323  32.015   8.052  10.122 -0.3441 -0.2451  0.2643
35271W        W78324  26.562  18.288  14.225 -0.3292 -0.1484  0.0257
35272W        W78325  24.859  31.364  22.573  0.1939  0.0927 -0.0487
35273W        W78326  24.071   6.865   6.044  0.1576 -0.0429  0.2172
35274W        W78327   5.262  17.602   4.538 -0.1825 -0.2497  0.1202
35275W        W78328   0.975  31.804  18.525  0.0434  0.0773 -0.0696
35276W        W78329  25.890   2.831  26.445  0.0171  0.1887  0.0526
35277W        W78330  14.802  21.396   0.941  0.1060 -0.2544  0.0749
35278W        W78331  16.942   7.352   5.681  0.1170 -0.1739  0.1543
35279W        W78332  21.815  16.896  25.658 -0.0611  0.1584 -0.0452
35280W        W78333   2.304   0.113  20.303 -0.4900 -0.0947 -0.0372
35281W        W78334  19.018   2.238  20.835 -0.0133 -0.1368 -0.0334
35282W        W78335  17.704   1.194   1.085  0.1481  0.2489 -0.2001
35283W        W78336  18.245  24.001   4.159 -0.1871 -0.0863  0.1379
35284W        W78337  24.479  20.605   0.634  0.0356 -0.2514  0.3064
35285W        W78338  20.252  12.085  16.140  0.0032  0.0030 -0.0278
35286W        W78339  23.587  25.850   8.567  0.2417 -0.1939  0.1131
35287W        W78340  25.120  28.475  28.931 -0.2540 -0.1140  0.0835
35288W        W78341  27.424   9.534   1.778 -0.1074 -0.0090  0.1004
35289W        W78342  16.566  14.273  26.812 -0.3975  0.3114 -0.0552
35290W        W78343   7.755  24.530   0.465 -0.0772 -0.1876  0.1031
35291W        W78344  12.446  26.211   0.142  0.1369  0.0025 -0.1361
35292W        W78345  19.008  34.244  26.250  0.0203  0.0384  0.1065
35293W        W78346   9.783  16.542   0.265  0.1803 -0.1118 -0.3711
35294W        W78347  16.663  21.357  24.006 -0.1204  0.1371  0.0126
35295W        W78348  32.903  34.268  25.248 -0.2843 -0.0032 -0.2983
35296W        W78349  30.626  25.554   7.423 -0.2945  0.2066  0.3203
35297W        W78350  12.205   0.000   1.237  0.3758  0.0283  0.2245
35298W        W78351  29.226  26.789   8.261  0.0025 -0.0883 -0.1798
35299W        W78352  28.786  20.667   5.038 -0.2347  0.0445 -0.1202
35300W        W78353  31.272  20.753  23.576  0.3604 -0.1054  0.0869
35301W        W78354  25.060   9.189   8.399 -0.0865 -0.4814 -0.0744
35302W        W78355  18.688  32.649   5.214 -0.0177 -0.1466  0.0148
35303W        W78356  26.442   3.906  26.323  0.0443 -0.0003 -0.0365
35304W        W78357  12.462  26.336   9.705  0.0697 -0.3491  0.1886
35305W        W78358  18.042  21.598   2.686  0.3052 -0.1467  0.1891
35306W        W78359   0.626  26.982   1.563  0.0220 -0.4172  0.0486
35307W        W78360  27.936  27.587   2.765 -0.1237  0.0126  0.1249
35308W        W78361  13.606  18.330   6.503  0.0503 -0.0060 -0.0927
35309W        W78362  24.084  22.084   9.854  0.1220 -0.0442  0.2117
35310W        W78363  31.337  28.579  14.936 -0.2598 -0.0093 -0.1096
35311W        W78364   8.241  24.367  25.114 -0.3409 -0.0054  0.1631
35312W        W78365  11.318   4.794  22.254  0.2220 -0.0544 -0.0849
35313W        W78366  18.345  27.874   2.729 -0.1239 -0.1195 -0.0973
35314W        W78367  21.976  20.860  29.197  0.0983 -0.1994 -0.0870
35315W        W78368  25.652  16.211  10.081 -0.1060  0.0736 -0.1736
35316W        W78369  26.922  25.287  26.913  0.1149  0.0281 -0.0941
35317W        W78370  31.544   8.861  29.054 -0.1971  0.0635  0.1699
35318W        W78371  27.245   3.618   9.620 -0.0704  0.2048 -0.0854
35319W        W78372  16.986  29.653   6.707  0.1341 -0.1621  0.0729
35320W        W78373  10.221  20.051   7.244 -0.1200 -0.0763 -0.2982
35321W        W78374  27.572  33.006  24.163  0.0302  0.0827 -0.0652
35322W        W78375  33.156  25.177  17.950 -0.1482 -0.0583 -0.2883
35323W        W78376  20.098  25.038   2.441 -0.1809  0.0971 -0.1725
35324W        W78377  32.675  17.274   1.728  0.1876  0.0902  0.1358
35325W        W78378  31.479  22.019  28.874  0.2043  0.0788  0.0836
35326W        W78379  31.433  23.743   8.289  0.2195 -0.0189  0.1942
35327W        W78380  18.303  16.359  27.261  0.1194  0.0247 -0.0551
35328W        W78381   7.047  32.972   5.789  0.0460 -0.2109 -0.0798
35329W        W78382  21.549  22.010   1.319  0.1782  0.0179  0.1264
35330W        W78383   4.126   0.705  19.399 -0.3640  0.0623 -0.1787
35331W        W78384  28.093  18.347  23.010  0.2514 -0.1864  0.1000
35332W        W78385  14.380   9.627  10.905  0.1337 -0.2716 -0.1503
35333W        W78386  17.654  12.865  18.795  0.2161  0.1875  0.1055
35334W        W78387  25.531  11.364  23.116  0.4014  0.1694  0.3292
35335W        W78388  31.624  26.704   2.858 -0.1073  0.2415 -0.0230
35336W        W78389   5.839  33.238  28.670  0.0667  0.0042  0.5218
35337W        W78390   1.083  17.930   1.155 -0.1398 -0.3355  0.0946
35338W        W78391  32.788  13.356   3.399 -0.1919 -0.0253 -0.0790
35339W        W78392  25.798  27.339   2.046  0.0541 -0.1233 -0.0234
35340W        W78393  11.028  21.775  13.988 -0.3179 -0.1717 -0.0042
35341W        W78394  15.165  29.365   0.996  0.0338 -0.0918 -0.0852
35342W        W78395   4.101  31.431   2.086 -0.0468 -0.0004 -0.0950
35343W        W78396   9.938  17.062   4.556 -0.2372  0.1646 -0.0228
35344W        W78397   1.925  19.036   0.781 -0.2897 -0.0025 -0.0320
35345W        W78398  16.582  22.401   4.524  0.1375  0.0912  0.1631
35346W        W78399  33.811  33.679  22.812  0.0082  0.2026  0.0379
35347W        W78400   8.521  28.895   1.980 -0.2083 -0.2268 -0.0649
35348W        W78401   1.390  22.045   1.763 -0.0892 -0.1319 -0.2382
35349W        W78402  10.076   2.958  10.252  0.3171  0.0609 -0.2372
35350W        W78403  19.243  14.885   8.391 -0.1507 -0.0370 -0.0692
35351W        W78404  14.110  25.915  22.158  0.1680 -0.4582 -0.1280
35352W        W78405  21.201  18.188   7.560  0.2487  0.2282  0.1284
35353W        W78406  30.085  31.164  25.519  0.1643 -0.0149 -0.1327
35354W        W78407  27.596  16.043   7.981 -0.0566 -0.0994  0.1513
35355W        W78408  31.379  14.222   6.675 -0.3192  0.1194 -0.2613
35356W        W78409  31.798  27.677  29.201 -0.1908  0.4939  0.0808
35357W        W78410  24.132  11.023   2.807  0.3366 -0.0907 -0.0547
35358W        W78411   0.271  10.715  27.739  0.1721 -0.1675  0.1808
35359W        W78412  11.962  18.665   3.794 -0.0869 -0.0410 -0.2333
35360W        W78413  19.251  24.710  24.510  0.1256  0.0939  0.3499
35361W        W78414  32.953   2.335   5.512  0.0022 -0.0107  0.0915
35362W        W78415  23.637  25.558   7.555 -0.0996  0.0186  0.2405
35363W        W78416   1.102  26.992  22.786  0.1832  0.0472 -0.0432
35364W        W78417   3.725  21.638   6.980  0.1361 -0.1878 -0.2870
35365W        W78418  24.053  29.224  29.083  0.0852  0.2359  0.2042
35366W        W78419  24.301  20.894   4.920  0.0634  0.3812 -0.0365
35367W        W78420  26.894   0.863   8.540 -0.0869  0.0775  0.0685
35368W        W78421  21.907  28.054   0.377 -0.0455  0.1951 -0.1067
35369W        W78422  23.200  14.159   8.328  0.1548 -0.2741  0.1185
35370W        W78423   4.100  23.272  19.793 -0.2016 -0.2028 -0.1335
35371W        W78424  21.906  19.682   3.800 -0.1345  0.0370  0.2448
35372W        W78425  14.371  11.634  23.780 -0.1149  0.1229 -0.2385
35373W        W78426  24.063  17.536  17.712 -0.1792  0.0321 -0.2577
35374W        W78427  18.482  10.880   1.442  0.0811  0.0678  0.2009
35375W        W78428   9.980  33.299   4.944 -0.0029  0.3961 -0.1146
35376W        W78429  12.798   6.021  26.981 -0.0186 -0.0030  0.0607
35377W        W78430  34.363  18.682   1.166  0.1336  0.3053  0.3226
35378W        W78431  25.155   4.061   8.747  0.0945 -0.2103 -0.0520
35379W        W78432  23.270  11.972   5.544  0.0416 -0.2812  0.0554
35380W        W78433   1.846  16.348   6.840  0.0222 -0.1879  0.2150
35381W        W78434   3.008  11.972   1.101  0.1567 -0.0924 -0.0089
35382W        W78435  27.596  20.289   3.199  0.0492 -0.1394 -0.0485
35383W        W78436  31.568  12.411  18.397 -0.1248 -0.0245  0.0173
35384W        W78437  16.992  12.612   5.058  0.0647  0.2851 -0.4553
35385W        W78438  26.433  26.649  23.746 -0.0996  0.2921 -0.2836
35386W        W78439  20.636  22.570  10.857  0.0215  0.1409  0.3569
35387W        W78440   8.963   7.300   9.246  0.0322  0.0201 -0.0194
35388W        W78441   4.134  14.339   6.594 -0.0191  0.0275 -0.0685
35389W        W78442  10.257  12.089  25.860  0.0411  0.1360 -0.0995
35390W        W78443  25.330  22.494   6.710  0.0857 -0.1597 -0.0881
35391W        W78444  29.854  22.840   1.027  0.1830 -0.1840 -0.0083
35392W        W78445  21.400  15.412   1.155  0.2381  0.4337 -0.3630
35393W        W78446  27.895  32.721  26.531 -0.3633  0.1669  0.0016
35394W        W78447   1.827  27.957   4.168  0.0978  0.3118  0.0337
35395W        W78448  27.828  30.753  28.357 -0.0154 -0.1820 -0.0978
35396W        W78449   5.021  20.195   9.914 -0.0730  0.2049 -0.1615
35397W        W78450  23.824  22.199  18.229  0.0879  0.0758  0.3926
35398W        W78451  30.517  15.366   5.363 -0.0531  0.1775  0.1500
35399W        W78452  24.674  18.042   6.959  0.0318  0.0644 -0.0683
35400W        W78453  27.320  16.260  27.242 -0.1334 -0.3269  0.5314
35401W        W78454  19.619  30.685  17.177 -0.0770 -0.0236 -0.1545
35402W        W78455   7.339  30.114  25.773 -0.0788 -0.2387 -0.1531
35403W        W78456  22.638   4.819  24.307 -0.1088 -0.1595  0.2207
35404W        W78457  23.683  21.516   0.207  0.2482 -0.0237  0.1848
35405W        W78458  25.988  17.052  27.772  0.0862  0.2191  0.0910
35406W        W78459  20.791  32.988   2.095 -0.2149 -0.1572 -0.1254
35407W        W78460   0.426   7.244   6.887 -0.2522 -0.1393  0.0698
35408W        W78461  25.391  16.206  27.608  0.4139 -0.2410  0.0805
35409W        W78462  25.680  19.793  23.909  0.0643  0.1533  0.2365
35410W        W78463   9.040  22.311  25.269  0.0037  0.0925 -0.2952
35411W        W78464   1.531  27.374  20.119  0.1908  0.1262 -0.0873
35412W        W78465   6.150  27.783   6.642 -0.0182  0.1214  0.1302
35413W        W78466  30.625  20.099  18.750 -0.0869 -0.1542 -0.1380
35414W        W78467  32.156  14.819  10.013  0.2403  0.2557 -0.1925
35415W        W78468   4.639   1.437  26.171  0.0197  0.1455  0.0615
35416W        W78469   0.532  16.981   4.844 -0.1477  0.0248 -0.2526
35417W        W78470  13.479  20.600  22.537  0.2178 -0.1066 -0.1837
35418W        W78471  26.014  28.968   2.685  0.1061  0.0754  0.2435
35419W        W78472  20.859  15.353  28.255 -0.0326 -0.2352 -0.1164
35420W        W78473  23.089  27.951   8.782  0.4595  0.0894 -0.1248
35421W        W78474   4.455  19.454   1.642 -0.1623  0.0937 -0.5267
35422W        W78475  23.013   8.115   4.485  0.1180  0.1515  0.1605
35423W        W78476  14.283   4.040   8.831  0.0162  0.2439 -0.1785
35424W        W78477  32.699  14.365   1.004  0.0052  0.1950  0.0033
35425W        W78478  12.826  19.432   4.418 -0.0848  0.1425  0.0851
35426W        W78479  32.065  14.586   1.559 -0.1526 -0.1807 -0.2418
35427W        W78480  21.778  12.552   7.024  0.2005 -0.1497 -0.0080
35428W        W78481  28.830   2.183   1.877  0.2296  0.1136 -0.1174
35429W        W78482   5.443  11.432  18.300 -0.0108  0.1498 -0.1136
35430W        W78483  27.877  22.233   6.175  0.3726 -0.0305 -0.0443
35431W        W78484   4.234   5.288   4.783 -0.2486 -0.0818 -0.1847
35432W        W78485   1.765  25.667  18.903  0.2330  0.2975  0.2279
35433W        W78486  21.199  22.832  26.235  0.0533 -0.0252 -0.3302
35434W        W78487  24.367  22.142   4.338 -0.3435  0.1434  0.4850
35435W        W78488  22.437  22.649   6.028 -0.1917 -0.0598  0.1180
35436W        W78489  22.054  15.729   1.619 -0.1662 -0.2453 -0.0971
35437W        W78490  13.430  14.116  16.548  0.3247  0.0943 -0.1139
35438W        W78491  30.641   7.436   6.018  0.0359 -0.0699 -0.1075
35439W        W78492  24.318  33.634   5.045  0.0364 -0.0015  0.0272
35440W        W78493   8.559   1.380  21.485 -0.1387  0.1144  0.1532
35441W        W78494   3.287   9.948   3.006 -0.1068  0.0072  0.0888
35442W        W78495  19.244  17.016   8.926  0.0702 -0.0158  0.1904
35443W        W78496   2.836  16.849   1.110 -0.1654 -0.2788  0.2813
35444W        W78497  29.118  21.288  20.559 -0.1743  0.2580 -0.0952
35445W        W78498  32.789  15.008   1.254 -0.1095 -0.1295 -0.1106
35446W        W78499  33.044  24.850  28.566  0.2586 -0.2968  0.0123
35447W        W78500  17.724  22.155   8.273 -0.0152  0.1515 -0.0447
35448W        W78501  25.985  17.611   2.034 -0.1548  0.0583 -0.2072
35449W        W78502  30.253  32.459   3.502 -0.1029  0.0948 -0.0093
35450W        W78503  10.807  24.948   2.514  0.4184  0.0417 -0.1484
35451W        W78504  29.768  23.004  21.225  0.2109  0.0643 -0.2822
35452W        W78505  27.054   9.907   7.599  0.2229  0.1454  0.0138
35453W        W78506  19.443  30.158   7.860  0.0951  0.2477  0.3067
35454W        W78507  21.609   0.944   4.844 -0.2488 -0.2259 -0.0751
35455W        W78508  28.023  16.121   5.512 -0.1523  0.3482  0.0725
35456W        W78509  28.890  12.860   6.079 -0.1852  0.2245  0.3402
35457W        W78510  17.093   7.130   4.476 -0.1127  0.3291  0.1401
35458W        W78511  30.630  29.226  27.256 -0.1216 -0.1433  0.2065
35459W        W78512  25.317  18.600  21.381  0.2228  0.3311 -0.0495
35460W        W78513  22.488  12.944   6.312  0.3129  0.0800 -0.0213
35461W        W78514  19.743   8.964  18.844 -0.1153  0.3455  0.0977
35462W        W78515  12.704  17.715  27.483  0.0546 -0.0355  0.2931
35463W        W78516  20.041  31.308  20.256  0.2302  0.2644  0.0093
35464W        W78517  26.679  15.907  17.535 -0.3713 -0.0594  0.1894
35465W        W78518  32.162   9.126   8.803  0.2776  0.1619  0.1248
35466W        W78519  23.955  13.531   7.545 -0.1078  0.1980 -0.4508
35467W        W78520   0.685  21.864   2.458 -0.4035 -0.1414  0.3084
35468W        W78521   8.612   9.686  22.974  0.1926  0.1355 -0.0230
35469W        W78522  23.536  27.343   7.316  0.0792 -0.3317  0.0431
35470W        W78523   0.890  16.122   7.005 -0.3025  0.0277  0.2398
35471W        W78524  33.639  31.163  24.615  0.0944 -0.1381 -0.3543
35472W        W78525  24.417  21.062   1.843 -0.2794  0.0565  0.0282
35473W        W78526  23.213  33.298  22.904  0.0510 -0.1282 -0.3290
35474W        W78527  11.966  25.571   3.395 -0.1197  0.0013 -0.1500
35475W        W78528  13.250   7.782   1.835  0.0705 -0.0603 -0.1497
35476W        W78529  29.517  22.260  24.683 -0.1762 -0.1096  0.0961
35477W        W78530   0.113  10.835  22.545 -0.0378 -0.1650  0.0022
35478W        W78531   0.202  27.202   9.174  0.2713  0.1189 -0.1356
35479W        W78532   6.220   8.317  26.110 -0.2598 -0.1249  0.0756
35480W        W78533  28.567  12.483   0.461  0.2675 -0.2684 -0.1368
35481W        W78534  12.836   7.402  11.122  0.1246 -0.1094  0.0155
35482W        W78535  28.764  30.579   3.048  0.1154  0.1577  0.1991
35483W        W78536  23.048  27.945  27.213  0.0195  0.0854  0.1954
35484W        W78537  26.736  13.633  10.255 -0.1624 -0.0715 -0.0928
35485W        W78538  15.507  13.336   9.035  0.0411 -0.1111 -0.1742
35486W        W78539  28.467  21.522   8.805  0.0150  0.1605  0.0547
35487W        W78540  23.378  20.255  22.219  0.0139  0.0280  0.1453
35488W        W78541   5.933  21.827  16.174  0.0993  0.0915 -0.2690
35489W        W78542  18.331  13.294  23.359 -0.2701 -0.2917 -0.0392
35490W        W78543  19.344   4.541  17.783  0.1640  0.1293 -0.2133
35491W        W78544   4.659  18.797  21.554 -0.0666 -0.0223 -0.1091
35492W        W78545  28.551  11.371   6.333  0.1265 -0.1018 -0.1767
35493W        W78546  25.687  26.522  28.066  0.1267  0.2964  0.0179
35494W        W78547  33.516  25.459  19.655 -0.0798 -0.1226 -0.0765
35495W        W78548  27.779  13.551  10.130  0.0925 -0.2670 -0.0761
35496W        W78549  21.777  17.029   5.599 -0.1313  0.2778  0.2711
35497W        W78550  31.704  12.580   6.657  0.0917 -0.1348 -0.1782
35498W        W78551   6.315  25.554  25.747  0.1974  0.0242 -0.2168
35499W        W78552  31.678   8.977  22.700 -0.0133  0.0846 -0.0741
35500W        W78553   6.790  17.766  26.921  0.2072 -0.2795  0.1409
35501W        W78554  20.455  23.557   7.145  0.2962 -0.0718 -0.0023
35502W        W78555  18.236   3.049   9.428 -0.0720  0.0532  0.1419
35503W        W78556  27.791  19.329   2.094  0.1732  0.0281  0.0805
35504W        W78557  19.883  18.995  24.296  0.3206 -0.0601 -0.2600
35505W        W78558   1.757  25.837  22.824  0.0984  0.3273 -0.4533
35506W        W78559  28.374  29.710  24.481 -0.3278  0.2147 -0.1465
35507W        W78560  28.924  31.722  20.283  0.0236 -0.1736 -0.1616
35508W        W78561  26.839  26.997  24.078 -0.0433 -0.1427  0.0267
35509W        W78562   6.521  12.141   7.783 -0.2421  0.1367  0.0446
35510W        W78563  22.165  18.779  27.351  0.1157 -0.1418 -0.0125
35511W        W78564   2.737  14.113  22.762 -0.0394  0.2999 -0.1112
35512W        W78565  27.782   9.522   8.144 -0.2114  0.1386 -0.0605
35513W        W78566  29.226   4.231  21.171 -0.5628  0.0710 -0.1231
35514W        W78567  33.207  22.090  28.110 -0.1839  0.1207 -0.1915
35515W        W78568  26.823  22.448  27.849 -0.2341  0.0012  0.0061
35516W        W78569  29.357  20.030   2.354  0.0075  0.2056  0.0704
35517W        W78570  24.612  14.445  22.513 -0.4827  0.2992 -0.2311
35518W        W78571  23.622  25.460   9.777  0.0309 -0.1124  0.0870
35519W        W78572  33.793  10.964   5.964 -0.0577  0.1700  0.1471
35520W        W78573  33.255  23.347   5.504 -0.1324  0.0106  0.0058
35521W        W78574  27.121  24.432  27.155  0.0933  0.0088  0.3253
35522W        W78575   0.024  32.048  25.574 -0.2659 -0.4481 -0.2067
35523W        W78576  24.910  22.540   8.889 -0.0453  0.1665 -0.0595
35524W        W78577  28.044   5.725   6.469 -0.1113 -0.0939  0.4019
35525W        W78578  21.380  15.949   2.373 -0.0734  0.1361 -0.1946
35526W        W78579  17.543  20.790   3.628 -0.1221 -0.0489 -0.4087
35527W        W78580  31.730  11.907   0.245  0.1461 -0.0771 -0.0051
35528W        W78581  15.030  15.996   3.915 -0.0232 -0.0052 -0.1278
35529W        W78582  27.140  33.611   7.613 -0.0548 -0.2593  0.0028
35530W        W78583  23.734  29.903   7.860 -0.0612 -0.2395  0.3476
35531W        W78584  32.451  21.422   4.290 -0.0563  0.1416  0.0414
35532W        W78585  23.961  18.376   3.488 -0.0100 -0.2682 -0.1121
35533W        W78586   2.443  19.241  16.517  0.2734  0.0974 -0.2029
35534W        W78587  33.150  29.145   0.542 -0.0043  0.0406 -0.4890
35535W        W78588  30.621  10.272   2.140  0.0076  0.0107 -0.2046
35536W        W78589   1.391  19.674   4.182  0.1739  0.1356 -0.0830
35537W        W78590  23.042  31.756  28.620  0.0809 -0.0354  0.0286
35538W        W78591  30.423  15.769  13.883 -0.1427 -0.0664  0.0425
35539W        W78592  32.871  30.052  21.404 -0.0346  0.1283 -0.2196
35540W        W78593  32.540  12.539  20.541 -0.1919 -0.3370 -0.2492
35541W        W78594   3.945  17.894   9.567 -0.1496 -0.2386 -0.0658
35542W        W78595   2.676  29.400   8.035  0.3783  0.2018  0.2109
35543W        W78596  23.388  31.112  26.974 -0.3444 -0.0866  0.2975
35544W        W78597   3.856  34.458  22.933 -0.1790 -0.0612  0.1400
35545W        W78598  14.654  12.321  17.995  0.0996  0.2230 -0.0453
35546W        W78599  27.810  22.644   5.039  0.0908  0.0470  0.3802
35547W        W78600  26.907  28.952   8.528 -0.1726 -0.1263  0.4361
35548W        W78601  27.502  23.148   8.929 -0.0660 -0.0748 -0.1641
35549W        W78602  23.885   7.736  21.235  0.0366  0.1970 -0.0789
35550W        W78603   3.976   5.973  22.624 -0.0198  0.1217 -0.3294
35551W        W78604  29.491  27.734  26.052 -0.3666 -0.2032  0.0878
35552W        W78605   4.783   5.424   7.889 -0.3993 -0.1507  0.2234
35553W        W78606  15.723  24.465  24.525 -0.1774 -0.0542 -0.0646
35554W        W78607  29.329  12.343   7.315 -0.0825  0.1831  0.1668
35555W        W78608  24.896  28.523   7.015 -0.1152  0.0289 -0.1862
35556W        W78609  23.659  11.538   9.708 -0.1614 -0.2611  0.1581
35557W        W78610  32.634   0.482   3.953 -0.3145 -0.2427 -0.0428
35558W        W78611  12.777  24.427  18.271 -0.0205  0.0517 -0.1916
35559W        W78612  24.971  32.176   6.935 -0.0928 -0.0545  0.3735
35560W        W78613  29.615   6.700  23.590 -0.1244 -0.3181 -0.2046
35561W        W78614  19.931  23.003   6.284 -0.2393  0.2680  0.0264
35562W        W78615  29.455  14.965   9.311  0.0714 -0.1565 -0.2447
35563W        W78616  26.331  10.382  16.364  0.0850  0.0316 -0.0001
35564W        W78617  22.074  12.896   6.030  0.3558 -0.0612 -0.1212
35565W        W78618  21.761  23.746   3.078 -0.2797  0.2465  0.0164
35566W        W78619  23.805  14.275   4.824  0.0315 -0.1381  0.0995
35567W        W78620  31.844  17.283  27.819  0.0648  0.2653  0.1292
35568W        W78621  25.217  20.850  28.577  0.2162 -0.1766 -0.1202
35569W        W78622   1.175   3.212  28.871 -0.2592 -0.2514 -0.2037
35570W        W78623   5.068  27.627   5.192 -0.0774 -0.2908  0.1839
35571W        W78624  33.023  20.208  26.847 -0.0825  0.0803  0.2060
35572W        W78625  28.628  13.770  27.378 -0.0090 -0.1103 -0.1390
35573W        W78626   9.388   7.141   9.583 -0.2806  0.0733  0.1387
35574W        W78627  22.342  17.869  27.976  0.0184 -0.1643  0.1593
35575W        W78628   1.143  12.203  25.648  0.2002  0.1190 -0.2689
35576W        W78629  19.386  30.107  27.931  0.0832  0.0840  0.2090
35577W        W78630   1.532  10.991  24.369 -0.0699 -0.0480  0.1185
35578W        W78631  34.625   8.861   9.848 -0.3430 -0.2229  0.1344
35579W        W78632  29.686  23.554   8.578 -0.0127 -0.1210  0.3344
35580W        W78633  29.596  25.825   1.005 -0.4789 -0.2063 -0.2136
35581W        W78634  27.389  20.525   5.804  0.0567 -0.1804  0.0837
35582W        W78635  17.678  21.463  25.017 -0.3484  0.0932  0.0054
35583W        W78636  16.020  29.371   6.307 -0.0512  0.0957 -0.0001
35584W        W78637  25.237  15.922  28.060 -0.0875 -0.1096 -0.0766
35585W        W78638  30.068  19.667  23.244 -0.1496  0.2444  0.1411
35586W        W78639  31.106  31.837  16.618  0.2303  0.1938 -0.0410
35587W        W78640  19.878  32.578  20.435 -0.2733 -0.0318  0.2422
35588W        W78641   2.078  24.788  13.601 -0.1080  0.2953 -0.1404
35589W        W78642   7.930  11.501   3.822 -0.2806  0.1712  0.1731
35590W        W78643  28.058  17.305  10.273 -0.1737 -0.0458  0.1000
35591W        W78644  29.154  10.582   3.605 -0.1147  0.2297  0.2084
35592W        W78645   4.040  10.555   2.573 -0.3100 -0.3195  0.0674
35593W        W78646  26.031   1.287  17.157  0.1489  0.0958 -0.1123
35594W        W78647  20.287  17.604  29.115 -0.1168 -0.1362  0.1286
35595W        W78648  30.214  29.685   0.359  0.1797  0.0727  0.0958
35596W        W78649  13.676  20.096   4.652 -0.2675  0.2198 -0.2656
35597W        W78650  31.799  19.595   1.507 -0.3199  0.2762 -0.3387
35598W        W78651  24.680  21.597  22.347 -0.1452  0.0094  0.0703
35599W        W78652  33.048   7.629   9.223  0.0293 -0.0708 -0.1564
35600W        W78653   0.333  32.052   0.426  0.0387 -0.3067  0.0848
35601W        W78654  29.660  27.350   8.816 -0.1028 -0.0482  0.0449
35602W        W78655   2.688  14.119   2.311 -0.0168  0.0558  0.1218
35603W        W78656  24.728  23.280  25.213  0.2694 -0.2044  0.0831
35604W        W78657  32.412  34.138   8.340 -0.1841 -0.0965  0.1713
35605W        W78658  32.870  19.432   8.576  0.1455 -0.0103  0.0967
35606W        W78659  27.636   3.732   5.949 -0.1955  0.0262 -0.2159
35607W        W78660  24.226  12.633   5.563 -0.1033  0.3037 -0.1015
35608W        W78661  26.624  15.863   3.343 -0.0538 -0.2296 -0.0258
35609W        W78662  24.327  26.502  26.901 -0.1234  0.0807 -0.0748
35610W        W78663  31.210  17.083  18.934  0.0330 -0.0478  0.0459
35611W        W78664  31.565  17.512  18.219  0.1050  0.1832 -0.0659
35612W        W78665  22.409  13.331  16.574 -0.1738 -0.1266 -0.1491
35613W        W78666  24.803  31.097  25.704  0.0843 -0.0260 -0.2465
35614W        W78667  28.920  15.366  26.767  0.2222 -0.2981 -0.2169
35615W        W78668  28.109  22.274  22.668 -0.0299 -0.1303 -0.1945
35616W        W78669  24.606  30.402   7.641 -0.1219 -0.3475  0.0016
35617W        W78670  24.411  30.621  28.186 -0.1135  0.2582  0.2995
35618W        W78671  16.368  16.065   9.182  0.1590 -0.2170 -0.1908
35619W        W78672  19.787  17.110   1.122  0.1020 -0.0227 -0.1669
35620W        W78673  23.247  13.576  29.016 -0.0713 -0.1833 -0.3022
35621W        W78674  24.021  21.547  28.053 -0.0102  0.0755  0.1900
35622W        W78675   8.211  26.123   1.065 -0.1751 -0.1791 -0.2252
35623W        W78676  30.786   0.923   3.667  0.1976  0.4792 -0.4623
35624W        W78677  31.459  18.023  27.648  0.0905 -0.0295 -0.3436
35625W        W78678  26.169   8.959   7.028  0.2341 -0.1571  0.0669
35626W        W78679  25.415  19.495   4.210  0.1623  0.1185  0.0267
35627W        W78680  23.548   5.321   5.761 -0.2961  0.2446  0.1763
35628W        W78681  29.875  16.197   7.580 -0.1772  0.1640  0.1153
35629W        W78682   7.858  33.613   9.592  0.3709  0.1538  0.0027
35630W        W78683  28.974  11.374  20.708  0.3050 -0.1047 -0.1553
35631W        W78684   6.159  22.128   1.369  0.0731  0.0061 -0.0927
35632W        W78685  21.582  26.465   4.978  0.2575  0.0158  0.0595
35633W        W78686  25.602  31.571   6.286  0.3264 -0.1200 -0.2260
35634W        W78687  13.850  13.306  26.184  0.2274  0.0313 -0.2634
35635W        W78688  29.447  19.186   6.021  0.0320  0.1111  0.1150
35636W        W78689  14.732  10.685   3.488 -0.2066 -0.2503  0.2431
35637W        W78690  29.745  25.663   9.597  0.1009  0.0595  0.0180
35638W        W78691  26.213  15.821   6.671  0.1210 -0.1921 -0.2822
35639W        W78692  27.629   2.586   0.202 -0.1425  0.1984  0.0028
35640W        W78693  14.014  22.621   4.455  0.0515 -0.0336  0.1075
35641W        W78694   3.109  27.965  23.662 -0.2968  0.2593 -0.0851
35642W        W78695  31.537  18.755   1.962  0.1949  0.4530 -0.3727
35643W        W78696  25.023  14.826  26.571 -0.2273  0.0332 -0.0463
35644W        W78697  25.188  21.828   2.656 -0.2250 -0.1107 -0.1407
35645W        W78698  14.095  20.940  26.360 -0.0415  0.0172 -0.0286
35646W        W78699  32.499  18.089   3.147 -0.3119  0.4924 -0.1587
35647W        W78700  29.192  21.450  29.044  0.0139  0.1286  0.1062
35648W        W78701  12.728  19.563   3.180  0.0259  0.0807  0.1143
35649W        W78702  34.393  24.136   1.470 -0.1974 -0.2817  0.0188
35650W        W78703  21.786  14.627   9.184 -0.2608  0.1162 -0.5595
35651W        W78704  27.258  25.749   8.880  0.0322 -0.2034  0.1175
35652W        W78705  34.153  23.985   3.381 -0.1581  0.0664  0.3884
35653W        W78706  33.394  20.891   5.264  0.0583 -0.0681 -0.0149
35654W        W78707  25.929  17.073   0.373  0.0335  0.1551  0.0459
35655W        W78708  33.559  25.769   6.470 -0.1430 -0.0927  0.2026
35656W        W78709  30.285  26.994  17.070 -0.1624  0.1438  0.0166
35657W        W78710  34.055  25.558  22.529  0.0687  0.0335 -0.4335
35658W        W78711  32.557  16.486  17.455 -0.1947 -0.1606  0.1709
35659W        W78712  29.099  21.765  22.911 -0.0822 -0.1751 -0.1554
35660W        W78713  13.433  13.470   7.963  0.0448 -0.0022  0.0464
35661W        W78714  21.608  25.441   8.211 -0.0133  0.1307  0.3696
35662W        W78715  26.165  14.403  17.170  0.0019 -0.1702 -0.1655
35663W        W78716  28.928  10.548  22.053 -0.0052  0.3491 -0.0290
35664W        W78717  28.797  21.771   7.248  0.0862 -0.0460  0.0203
35665W        W78718  31.389  11.041   2.998  0.2509 -0.3928  0.0643
35666W        W78719  32.045  11.880   1.891 -0.2094 -0.1082 -0.0777
35667W        W78720  21.929  32.142   8.469 -0.0675 -0.0013  0.1671
35668W        W78721  34.437   5.377   7.028  0.0132 -0.1717  0.1569
35669W        W78722  19.250  23.518   0.189 -0.0788  0.3736  0.1677
35670W        W78723  15.229  20.041   0.832 -0.0964 -0.1383  0.0643
35671W        W78724  12.895  23.835   4.098  0.1203 -0.0280  0.0607
35672W        W78725   2.007  25.228   4.001  0.0414 -0.2272 -0.0594
35673W        W78726  28.116  27.183  27.699 -0.0428 -0.1760  0.1435
35674W        W78727  14.412  11.645   4.577  0.1623 -0.0885 -0.2528
35675W        W78728   5.106  12.465  28.630  0.1074  0.0086 -0.1303
35676W        W78729  14.757  11.227  27.274  0.0598 -0.2289 -0.0062
35677W        W78730  13.891   1.317   8.659 -0.1758 -0.0846  0.2288
35678W        W78731  18.243   4.001  27.632  0.5133  0.0934  0.2046
35679W        W78732  22.057  29.690   4.113  0.0960 -0.3974  0.0807
35680W        W78733   6.229  23.182  25.087 -0.1014  0.2058  0.0729
35681W        W78734  23.177  20.994  25.322 -0.1455  0.2492 -0.2541
35682W        W78735  31.481  27.351   3.148  0.0338 -0.1775  0.0075
35683W        W78736   7.733  21.550   3.387 -0.0250 -0.3748  0.0340
35684W        W78737  32.067  11.469   1.482  0.1305 -0.3378  0.0438
35685W        W78738  25.717  15.407  28.878 -0.1557 -0.0014 -0.1899
35686W        W78739  26.819  12.175   5.030 -0.1329 -0.2619  0.2141
35687W        W78740  29.023   1.722   7.034 -0.0041 -0.1834  0.0164
35688W        W78741  25.205   9.205   2.016 -0.4275  0.0069  0.0389
35689W        W78742   8.912  20.447   6.344 -0.0866  0.2487  0.0764
35690W        W78743  23.590  26.199  19.591  0.3341 -0.0308 -0.0885
35691W        W78744   4.851  19.836  28.464 -0.0212 -0.0352  0.1289
35692W        W78745   4.168   8.304   8.559 -0.4584 -0.2421  0.0401
35693W        W78746  26.175  14.018   0.895 -0.3140 -0.3657  0.4366
35694W        W78747  27.436  18.472  27.960 -0.0936  0.4206 -0.2679
35695W        W78748   5.181  32.559   8.168 -0.1981  0.0026  0.0459
35696W        W78749   1.434  11.429  28.374  0.2334 -0.1645 -0.0915
35697W        W78750  21.925   4.644  24.176  0.0420 -0.3206  0.0231
35698W        W78751  34.601   7.139   5.314 -0.0925  0.3701  0.2066
35699W        W78752  32.932  30.536   0.744  0.0831  0.0903 -0.0905
35700W        W78753  22.293  22.895   6.958 -0.1602 -0.2231  0.1822
35701W        W78754   2.820  19.936   6.701 -0.2953 -0.0672 -0.0432
35702W        W78755  34.110   4.186   9.584  0.1148 -0.1198 -0.0618
35703W        W78756  27.550  12.596   5.400 -0.1522  0.0323  0.0755
35704W        W78757  21.970  11.237   6.627  0.1441 -0.0490 -0.0352
35705W        W78758  29.810  22.332   7.144  0.0804  0.0131 -0.1405
35706W        W78759  14.057  32.171  22.655 -0.0344  0.0834  0.0887
35707W        W78760  19.864  26.233  24.484  0.1816 -0.0973 -0.2858
35708W        W78761  17.028  20.719   7.850 -0.2583  0.2895 -0.0739
35709W        W78762  21.034  14.920   6.965 -0.2252  0.1024  0.1991
35710W        W78763  17.531   5.308  28.438  0.2739 -0.1112  0.1871
35711W        W78764  24.295   6.882  22.793 -0.1061  0.3287 -0.1121
35712W        W78765  11.075  13.593   6.129 -0.1339 -0.3024  0.1626
35713W        W78766  23.488  12.476  22.113  0.2243 -0.0717 -0.0761
35714W        W78767  19.791   4.560   6.092  0.1616 -0.1392 -0.0429
35715W        W78768  25.028  21.090   4.365  0.2203 -0.1014 -0.1627
35716W        W78769   3.407  14.545   1.062 -0.0572 -0.1080 -0.2095
35717W        W78770  31.024  23.757  10.055 -0.2763 -0.2212 -0.1952
35718W        W78771  23.898  10.820   9.087  0.0275 -0.0526 -0.2802
35719W        W78772  22.601  10.519   6.963  0.1370 -0.1317  0.1150
35720W        W78773  29.631  24.134   1.620 -0.0986  0.2249  0.1141
35721W        W78774   0.324  24.834  29.068 -0.1743 -0.0514  0.4070
35722W        W78775   2.047  19.949   0.820  0.5011  0.2217 -0.2990
35723W        W78776  22.991  14.443  16.646 -0.1182 -0.1799  0.0676
35724W        W78777  25.916  13.336  22.589 -0.0636 -0.0803  0.3361
35725W        W78778  17.821  10.015  27.959 -0.1053  0.2652  0.0262
35726W        W78779  10.807  14.626  15.991 -0.0373  0.4609  0.2297
35727W        W78780   1.407  16.635   3.832  0.2567  0.1727  0.0092
35728W        W78781  22.162  27.435   2.464  0.1895  0.3620 -0.3842
35729W        W78782   5.322  34.677  24.735 -0.2477 -0.3156  0.0640
35730W        W78783  23.491  13.534  23.606  0.4162 -0.1061 -0.0610
35731W        W78784  28.457   9.602   3.166 -0.0099  0.2642  0.0259
35732W        W78785   6.150  14.366   7.805 -0.2850  0.0817  0.2027
35733W        W78786   6.170  27.610  28.355  0.2539 -0.0878 -0.3008
35734W        W78787   5.694  20.230   3.314 -0.2078 -0.1944  0.1181
35735W        W78788  10.713  21.455  27.148  0.3658  0.2934  0.0564
35736W        W78789  33.914   8.133   8.517  0.0921 -0.0981 -0.2657
35737W        W78790  26.527  21.184   7.288  0.0652  0.0355  0.1436
35738W        W78791  31.209  13.116  27.423 -0.1963 -0.2331 -0.2012
35739W        W78792  15.786  14.117  24.719  0.1613 -0.0114 -0.0500
35740W        W78793   8.404  20.944   5.292  0.0402  0.0868  0.1567
35741W        W78794  22.728  20.642  25.437 -0.1885  0.1146  0.1629
35742W        W78795  26.040  10.762   9.658  0.0927 -0.1153  0.2327
35743W        W78796   2.318  23.115   2.765 -0.2550 -0.0528  0.0018
35744W        W78797  33.211  18.662  13.086  0.0672  0.0918 -0.0274
35745W        W78798  16.816   5.920   9.901 -0.3080 -0.0838  0.2444
35746W        W78799   9.522  11.289   5.265  0.0731  0.0541 -0.3646
35747W        W78800  14.990  24.038   3.245 -0.3545 -0.2167  0.0069
35748W        W78801   4.085  14.999   6.022  0.3316  0.2193  0.0140
35749W        W78802  29.221  21.184  23.080 -0.0912 -0.0126  0.0751
35750W        W78803  15.648  32.075   5.400 -0.1602  0.1462 -0.0095
35751W        W78804  24.930  21.017   2.461  0.1243 -0.5301  0.0109
35752W        W78805  29.997  21.024  22.602  0.1588  0.0896  0.0606
35753W        W78806   6.867  20.789   6.895 -0.2224  0.2802  0.0390
35754W        W78807   2.939  15.601  22.468 -0.0460  0.3174 -0.0990
35755W        W78808  29.736  21.688  29.102 -0.0010 -0.0005 -0.4214
35756W        W78809  28.315  21.164   8.464  0.2537  0.2054  0.0315
35757W        W78810  20.799  24.622   2.356 -0.0758  0.3500  0.0459
35758W        W78811   9.092  23.004  26.513  0.1750  0.3897 -0.2778
35759W        W78812  22.228  17.789   6.440  0.4056 -0.1648 -0.1450
35760W        W78813  22.622  10.068   8.739  0.0938  0.2602  0.0988
35761W        W78814  11.573  12.123   4.921  0.3845 -0.0795 -0.1114
35762W        W78815  32.712  13.770   8.566  0.0023 -0.0510  0.1462
35763W        W78816  26.243  23.806   9.271  0.0218 -0.3007 -0.1017
35764W        W78817  31.535  11.839   5.975 -0.1491  0.0710 -0.1698
35765W        W78818  11.952  31.695   0.449 -0.5785  0.0962  0.1984
35766W        W78819  17.567  26.909   7.399  0.0964 -0.0986  0.4016
35767W        W78820  19.908  21.863   5.866 -0.1142  0.0416  0.0989
35768W        W78821  21.673  12.473   8.709 -0.1808  0.0085 -0.1402
35769W        W78822  23.874  13.414   9.577 -0.0553 -0.2175  0.4914
35770W        W78823  19.228  19.554  15.856  0.1658 -0.2462 -0.2502
35771W        W78824   4.144  29.702  28.573  0.2509  0.0817  0.1329
35772W        W78825  30.858  21.850   1.448  0.1046  0.0231  0.1488
35773W        W78826  17.906  12.138  27.154 -0.1677 -0.1131 -0.4724
35774W        W78827  24.968  14.713   6.586 -0.0572 -0.3017  0.1285
35775W        W78828  28.776  13.584   2.871  0.3579  0.0071  0.0335
35776W        W78829  14.378  21.137   1.284 -0.0660  0.0937  0.0292
35777W        W78830  16.560   8.591   9.700  0.0475  0.0582 -0.3470
35778W        W78831  32.293  17.415   6.696 -0.0422  0.0168  0.0226
35779W        W78832  20.484  22.137  22.145  0.0785  0.3909  0.0672
35780W        W78833  14.333   9.159   6.839  0.1225 -0.1307 -0.0637
35781W        W78834  28.612  24.237  10.466 -0.2143 -0.0527 -0.0215
35782W        W78835  31.114  27.287  22.820  0.3622 -0.5513  0.1335
35783W        W78836  17.441  19.746  22.564 -0.0137  0.2666  0.1855
35784W        W78837  27.779  32.306  21.019 -0.0739  0.0415 -0.1892
35785W        W78838  13.448  23.616  24.632  0.0051  0.1547  0.2331
35786W        W78839  30.514   5.361   5.298 -0.2942  0.2457 -0.2096
35787W        W78840  15.468  29.130  18.439  0.0097 -0.0128  0.0545
35788W        W78841   4.851   8.959   7.687  0.1973  0.2795 -0.2164
35789W        W78842  24.734  17.785  19.355  0.1358 -0.0499 -0.1675
35790W        W78843  23.365   5.450  21.216 -0.0257  0.1703 -0.1507
35791W        W78844  25.295   9.333   1.499 -0.0617  0.1360 -0.3752
35792W        W78845   0.508  19.639   3.371 -0.1623 -0.0777 -0.1836
35793W        W78846  28.937  26.595  23.442  0.1994  0.2322  0.1886
35794W        W78847  23.705  19.467   6.154 -0.5643 -0.1613  0.1302
35795W        W78848  23.318  27.710   1.896  0.1003 -0.3521 -0.1875
35796W        W78849  19.368  25.039   2.579  0.1815  0.1989  0.2819
35797W        W78850  27.362   8.260   1.410 -0.0734  0.0628 -0.3829
35798W        W78851   5.705  20.420  22.095 -0.0850 -0.0278  0.2037
35799W        W78852  30.643  26.344   9.163 -0.0343 -0.1915  0.1039
35800W        W78853  26.969  20.910   5.095 -0.2191  0.0753 -0.1834
35801W        W78854   1.633  21.102   6.474 -0.7631 -0.1712  0.0511
35802W        W78855  23.404  32.075   7.412  0.0957 -0.3246 -0.1757
35803W        W78856  19.391  11.607   7.320  0.2605 -0.1117  0.1932
35804W        W78857   4.813   3.190  10.256  0.0190 -0.2260  0.0309
35805W        W78858  15.430  16.334   9.308 -0.3986  0.1053  0.0813
35806W        W78859  21.530   1.804  26.827 -0.3722  0.4285  0.0471
35807W        W78860  30.258   1.442   8.036  0.2971  0.1069 -0.0447
35808W        W78861  22.540  11.902   3.915 -0.2843  0.2607  0.1324
35809W        W78862  18.581  29.099   7.573 -0.0527 -0.1147 -0.0081
35810W        W78863  30.222  30.014   8.518 -0.0351  0.1629 -0.2769
35811W        W78864  11.732  24.069   3.986 -0.2030  0.0448  0.2984
35812W        W78865  34.292  30.384  23.461 -0.0003  0.1522  0.2176
35813W        W78866  28.960   8.223  23.836  0.0021 -0.1879  0.0143
35814W        W78867  23.014   1.331   5.738  0.1856  0.0056 -0.2892
35815W        W78868  31.960  17.724   9.318 -0.0346 -0.1762  0.0352
35816W        W78869   8.943  25.484   4.429 -0.1661  0.0619 -0.2331
35817W        W78870  34.088  24.856   2.161 -0.1916  0.0566 -0.1213
35818W        W78871  18.660  32.894  26.218 -0.0825  0.3343 -0.0949
35819W        W78872   3.271  18.276   9.100  0.3306  0.0796  0.1109
35820W        W78873  26.817  17.315   6.962 -0.2744  0.1835 -0.3246
35821W        W78874  23.212   2.220  23.550 -0.0056  0.2535  0.0147
35822W        W78875   7.369  19.039   9.350  0.6397 -0.1017 -0.2727
35823W        W78876  16.843  28.666   6.369 -0.1377  0.4833  0.3019
35824W        W78877  21.069  22.617   4.566  0.0312 -0.0307 -0.0876
35825W        W78878  23.390  14.135   4.401 -0.0463 -0.2177 -0.0720
35826W        W78879   9.345  21.742   4.191 -0.0629  0.0677  0.1256
35827W        W78880  32.675  30.118  28.350  0.0655  0.2063 -0.1163
35828W        W78881  28.853  24.514   2.622 -0.3213 -0.1583  0.2160
35829W        W78882  17.027  22.036   4.853  0.1526  0.1126  0.0978
35830W        W78883  34.340  21.433  26.592  0.6178  0.3956 -0.1368
35831W        W78884  21.272  17.287   5.189  0.3135 -0.0177 -0.0033
35832W        W78885  13.217  26.598   1.653 -0.1075  0.0352 -0.1565
35833W        W78886  15.378  14.503   6.765  0.0354  0.0582  0.1876
35834W        W78887   2.385   9.476  10.083  0.1934  0.0798  0.2502
35835W        W78888  13.667   1.140  20.650  0.0279  0.0980  0.1681
35836W        W78889  22.942  13.819  27.846 -0.3081  0.3835 -0.1922
35837W        W78890  21.616  15.825  20.547  0.3405  0.0563  0.2780
35838W        W78891  31.443  16.709  23.659 -0.0712  0.3590  0.1313
35839W        W78892   1.862  18.894  28.330  0.1274  0.0033 -0.0311
35840W        W78893  28.553  22.841   9.516 -0.0308  0.1032 -0.2431
35841W        W78894  31.474  15.674   4.856  0.1493 -0.0332  0.3370
35842W        W78895  17.589   2.262  20.984 -0.1809  0.2635  0.2732
35843W        W78896  27.618  25.669   9.306  0.2698 -0.2988 -0.3187
35844W        W78897  21.593  30.915  24.299  0.6600 -0.0981  0.0311
35845W        W78898  27.957   8.783   3.900 -0.2338 -0.1559  0.2664
35846W        W78899  26.560  24.386  28.154 -0.1336  0.2187 -0.1658
35847W        W78900  22.638  27.785  24.308 -0.1292 -0.0939  0.0092
35848W        W78901  12.015  23.076   4.427 -0.1453 -0.0968 -0.2407
35849W        W78902   3.043  15.604   2.593 -0.0884  0.4313  0.1683
35850W        W78903  28.720  19.532   9.147  0.2219  0.2649  0.0664
35851W        W78904  22.517  17.550   4.656 -0.0807 -0.0938  0.0985
35852W        W78905  30.092  15.715   2.385  0.0594  0.0696 -0.1935
35853W        W78906  15.761  19.770   4.725 -0.1911  0.1450 -0.0600
35854W        W78907   3.291  12.179  25.924  0.0338  0.1747  0.0945
35855W        W78908  20.537  27.050  20.966  0.1409 -0.1716 -0.0217
35856W        W78909  28.836  23.293   0.423 -0.0221 -0.4336 -0.0958
35857W        W78910   7.174  32.380   4.432 -0.0234  0.2661 -0.0884
35858W        W78911  25.472  26.293   3.956 -0.1783  0.1947  0.2968
35859W        W78912   9.768  19.973   6.560 -0.2163  0.1420  0.0136
35860W        W78913  21.650  10.059   6.623  0.1028 -0.1505  0.0103
35861W        W78914  16.308  32.581   0.529  0.1448  0.0430 -0.0248
35862W        W78915  22.014  18.873   2.216  0.1127 -0.1195  0.1593
35863W        W78916  23.829  33.223   7.221 -0.0172  0.3789  0.1175
35864W        W78917  25.378  17.019   8.855  0.0177 -0.4797  0.1139
35865W        W78918  23.060   8.181   6.879 -0.0209  0.0853 -0.2194
35866W        W78919  25.053  33.562   6.503  0.2057 -0.0875 -0.1716
35867W        W78920  24.385  28.043   6.399 -0.0276  0.0103  0.0669
35868W        W78921  25.439  24.283   3.438 -0.1309 -0.1060  0.1679
35869W        W78922  28.399  21.816  28.698  0.2196 -0.1146  0.1063
35870W        W78923  26.113  14.727   7.109  0.0076 -0.1565  0.2498
35871W        W78924   3.239  31.151  27.639 -0.0574 -0.2275 -0.1295
35872W        W78925  31.089  23.139  21.898  0.1929  0.0017 -0.4582
35873W        W78926  27.182  14.356  15.564 -0.0983 -0.2835  0.0818
35874W        W78927  31.423  29.833  27.352  0.2410  0.0741 -0.0986
35875W        W78928  27.652  12.412   2.523  0.0354  0.1965  0.3162
35876W        W78929  29.968  15.491  22.387  0.4614 -0.0183 -0.3193
35877W        W78930  12.514  16.628  28.817 -0.0947 -0.0156  0.0884
35878W        W78931  24.215  27.064   4.691 -0.0605  0.1710  0.1132
35879W        W78932  30.737  25.466  24.615  0.1947  0.0910  0.0159
35880W        W78933  28.105   6.142   1.930  0.2452  0.0549 -0.2617
35881W        W78934  28.263  26.075  25.046 -0.3061  0.1078 -0.2808
35882W        W78935  24.818  15.754   5.499  0.2850 -0.1867  0.0250
35883W        W78936  23.354  31.872   9.746  0.1678  0.1749 -0.0638
35884W        W78937   8.634  14.618   7.626 -0.1938 -0.3368  0.0245
35885W        W78938  18.476  34.230   6.570 -0.0405  0.2467  0.1335
35886W        W78939  20.334  30.690   2.824  0.1709  0.1309  0.2059
35887W        W78940   1.975  17.688  23.783  0.0571 -0.0761  0.0496
35888W        W78941  15.585   0.308  24.803  0.0351 -0.0687 -0.1457
35889W        W78942  10.992  20.466   8.213 -0.0147  0.1207 -0.0121
35890W        W78943  31.589   2.436  10.426  0.1392 -0.0072 -0.0808
35891W        W78944  27.458  11.561   3.775  0.0519  0.2721  0.2034
35892W        W78945  23.442  12.033  21.830  0.2328 -0.0459  0.3521
35893W        W78946  22.119  34.616  16.641  0.0961  0.2852 -0.1938
35894W        W78947  31.866  23.502   5.525  0.2088 -0.0204  0.0480
35895W        W78948  11.049  23.400   6.189  0.2567 -0.0625  0.0812
35896W        W78949   8.641  33.534   1.409 -0.0668 -0.1571  0.2832
35897W        W78950  29.557  15.133   1.121 -0.5241  0.1142  0.2728
35898W        W78951   1.965  16.444  14.057 -0.1329 -0.0253 -0.0168
35899W        W78952  33.110  18.867  28.148  0.0263  0.0227  0.0556
35900W        W78953  26.689  23.502  20.450  0.1412 -0.2620  0.2215
35901W        W78954  31.153  21.166  24.428  0.1470 -0.0664 -0.1595
35902W        W78955  15.170  22.259   3.554 -0.0524  0.2686  0.0565
35903W        W78956   2.542   8.942  27.781 -0.1273 -0.2395  0.0093
35904W        W78957  14.842  13.619   4.567  0.1841  0.1566 -0.0108
35905W        W78958  28.972  22.951   8.532  0.2168  0.2474  0.1076
35906W        W78959  28.631  28.058  27.464 -0.3223 -0.1428 -0.1946
35907W        W78960  18.865  26.433  10.500  0.2037 -0.1544  0.1278
35908W        W78961  28.923  18.984   3.065 -0.3755  0.2032 -0.0307
35909W        W78962  32.574   7.431   7.281  0.0826 -0.2753 -0.3904
35910W        W78963  23.657   9.559  14.697 -0.2405  0.1594  0.1674
35911W        W78964  16.639   2.101   6.051  0.1057  0.2770  0.0389
35912W        W78965  25.662  20.208  24.674  0.3211  0.0156  0.0031
35913W        W78966  28.919   2.874   8.792 -0.2448 -0.3210 -0.0177
35914W        W78967  10.595   4.483   4.213  0.5547 -0.1435  0.1196
35915W        W78968   8.101  20.679   6.140 -0.1074  0.2076 -0.0510
35916W        W78969   0.304  23.518   0.511  0.0903  0.4927 -0.2879
35917W        W78970  23.068  20.724   7.558 -0.0404 -0.0659  0.1860
35918W        W78971   8.582  24.638   1.766  0.1335  0.1098 -0.0836
35919W        W78972   8.874  23.016   3.750  0.0349 -0.0055  0.1556
35920W        W78973  17.282  11.601   5.972 -0.3693 -0.1638  0.0135
35921W        W78974  13.220  17.760  18.888  0.0949 -0.2684  0.2796
35922W        W78975  14.654  23.152   1.923  0.1155  0.0732 -0.0854
35923W        W78976  20.212   0.137   8.480  0.0929  0.1391 -0.1153
35924W        W78977  27.855  18.748   1.285 -0.2599  0.1420  0.1344
35925W        W78978  11.755  17.929  29.036 -0.2570 -0.0669  0.0210
35926W        W78979  23.197  20.917   0.310  0.0390  0.0584  0.0965
35927W        W78980   8.660  10.681  10.807 -0.2485  0.0070 -0.1587
35928W        W78981   4.976   1.354   5.484  0.0499  0.1584 -0.0838
35929W        W78982  15.954   8.526  24.277  0.0831  0.1894 -0.1844
35930W        W78983  20.458  27.882   5.122  0.0519 -0.0274 -0.0663
35931W        W78984  28.460   9.363   1.888 -0.0372  0.1029  0.0871
35932W        W78985  27.411   0.712   7.834  0.0584  0.3655 -0.0663
35933W        W78986  32.490  23.724   2.278 -0.1331 -0.1383 -0.2281
35934W        W78987  26.722  13.980  23.846  0.0872  0.0386 -0.1847
35935W        W78988  24.188  18.654   4.834 -0.1903 -0.0462  0.3059
35936W        W78989  27.975  20.601   7.304 -0.2655  0.0264  0.0096
35937W        W78990  10.172  14.180  10.512  0.3273 -0.0013  0.3148
35938W        W78991  31.360  16.234   0.662  0.1017  0.2037  0.1887
35939W        W78992   5.736  21.470   2.614 -0.0255  0.2026  0.1879
35940W        W78993  20.215  29.018  17.313 -0.1186 -0.0220  0.0492
35941W        W78994  26.396  24.333   7.979  0.0140  0.1666 -0.2487
35942W        W78995  15.640  23.665   0.199  0.0992 -0.0037  0.1646
35943W        W78996  11.146   5.856   2.477 -0.0177  0.2887  0.1816
35944W        W78997  29.390  17.589   9.301 -0.1040 -0.1114  0.0975
35945W        W78998  17.645   8.708  25.748  0.1454 -0.0666 -0.0728
35946W        W78999   8.769  15.932   7.941 -0.1370  0.4546  0.1496
35947W        W79000   2.197  16.340  16.764  0.1929  0.1340  0.1872
35948W        W79001  12.201  30.509   9.429  0.1469 -0.4352  0.3322
35949W        W79002  16.985   1.971   3.830  0.1390 -0.1698  0.1982
35950W        W79003  23.628  18.513   7.597 -0.0645  0.0697 -0.1760
35951W        W79004  31.789  24.222   4.192  0.1314 -0.2634  0.2158
35952W        W79005  22.093  28.140   4.560  0.1311 -0.1377  0.0023
35953W        W79006  23.328   6.570   7.330  0.0940 -0.0979  0.1368
35954W        W79007  32.490  21.517  24.828 -0.0336  0.3770  0.0937
35955W        W79008   9.094   9.298   4.920  0.1487 -0.0735 -0.2930
35956W        W79009  16.926  17.050   6.004  0.0911  0.3415  0.1249
35957W        W79010  31.575  16.860  17.450 -0.2762  0.0890 -0.1040
35958W        W79011  16.418  18.122  26.969 -0.0328 -0.1232 -0.1752
35959W        W79012  30.955   8.469   8.933 -0.0963 -0.2071  0.0113
35960W        W79013  22.787  26.645   8.991  0.1151 -0.1428 -0.1788
35961W        W79014  13.774  15.135   6.629 -0.1162  0.0838 -0.1395
35962W        W79015  20.389  20.410  22.050  0.1042  0.1096 -0.3586
35963W        W79016  15.010  17.533   5.914  0.2311  0.0274  0.2774
35964W        W79017  16.045  10.476   9.660 -0.0312 -0.0352 -0.3282
35965W        W79018   9.867  31.846  28.457 -0.2365  0.0045  0.1269
35966W        W79019  26.120  23.605   7.467 -0.0350  0.0775  0.1392
35967W        W79020  25.095  24.631   2.618  0.1890  0.2476 -0.2632
35968W        W79021  27.386  25.841  25.168  0.0522  0.1769 -0.2407
35969W        W79022   0.661  33.755   4.444  0.1443 -0.1567  0.0898
35970W        W79023  18.609   8.626  10.627 -0.2490 -0.1980  0.1802
35971W        W79024  14.664  12.174   6.001  0.2301  0.1542 -0.4528
35972W        W79025  31.761  20.247   9.202 -0.4518 -0.1073  0.1708
35973W        W79026  26.454  16.721   6.249  0.0561 -0.2212 -0.2466
35974W        W79027  21.682  32.441   4.131  0.2132 -0.0790  0.0447
35975W        W79028  28.231  32.235  22.379 -0.0400 -0.1823 -0.2478
35976W        W79029   1.440   0.008  25.129  0.2127 -0.4043 -0.0529
35977W        W79030  27.275  20.309   0.620 -0.2744  0.0909 -0.1367
35978W        W79031  23.194  22.251  28.958  0.0263  0.3987  0.1739
35979W        W79032  29.701  14.819   3.265  0.0433 -0.2277 -0.2208
35980W        W79033  11.984  23.018   1.972 -0.0310  0.1690  0.1472
35981W        W79034  17.432  20.209  23.355  0.1319 -0.3648 -0.1904
35982W        W79035  13.235  14.369  27.255  0.3498 -0.1854  0.2306
35983W        W79036   6.548  12.982   6.969 -0.0355 -0.1864  0.3372
35984W        W79037  30.435   2.595   7.057 -0.5452 -0.2838  0.0145
35985W        W79038  27.021  30.803   4.033  0.0676  0.0181  0.0655
35986W        W79039  32.417  15.749  18.733 -0.1854  0.5043 -0.0028
35987W        W79040  34.111  28.356  26.433 -0.0481 -0.2140 -0.0579
35988W        W79041  16.300  25.085  23.422 -0.2465 -0.0432  0.1023
35989W        W79042  10.725  25.878   3.340  0.0029  0.1540  0.0134
35990W        W79043  21.211  16.081  24.067  0.0696 -0.2887 -0.1393
35991W        W79044  33.284   2.357   0.137  0.1736  0.1371 -0.0080
35992W        W79045  26.205  15.888   6.113  0.1222 -0.1566  0.1601
35993W        W79046  31.873  22.062   2.831 -0.0836 -0.1546 -0.3836
35994W        W79047  16.403  18.760   3.858  0.1275  0.0111 -0.0839
35995W        W79048  29.013  10.763   6.338  0.3979 -0.2123  0.3024
35996W        W79049  23.055   9.850  26.289 -0.3936 -0.2114  0.0780
35997W        W79050  33.143  29.006   8.841 -0.3450 -0.1629 -0.0651
35998W        W79051   1.018  31.713  25.438  0.0642  0.3474  0.0203
35999W        W79052  28.182   9.977   3.345 -0.2244  0.0144 -0.0106
36000W        W79053  22.532  29.031   9.707  0.0508  0.0872  0.0988
36001W        W79054   4.949  11.234  10.821  0.0062 -0.0325 -0.0427
36002W        W79055  21.553  33.718   2.848 -0.3416 -0.2416 -0.2540
36003W        W79056  25.239  13.383   1.535  0.0204  0.3951 -0.0656
36004W        W79057   4.001   9.897   2.525  0.0579 -0.0073 -0.0084
36005W        W79058  32.527  14.911   7.906 -0.0515 -0.2001 -0.3566
36006W        W79059   0.432  31.921  22.657 -0.1355 -0.0795 -0.1093
36007W        W79060  22.688  25.692   7.492 -0.1137  0.1519 -0.2017
36008W        W79061   0.787  20.219   4.317  0.1821  0.4033 -0.2592
36009W        W79062  11.120  17.207   4.709 -0.0236  0.0146  0.2815
36010W        W79063  23.258  14.141   0.628  0.3439 -0.0258 -0.0685
36011W        W79064  15.957   4.061  22.674  0.0380  0.0594  0.0771
36012W        W79065  24.292  14.415   8.909  0.3287  0.1119  0.1100
36013W        W79066  31.359  24.800  16.809 -0.1894  0.1535  0.1310
36014W        W79067  25.729  21.962   0.019 -0.2774 -0.1591 -0.0624
36015W        W79068   7.534  10.975   3.167 -0.0018 -0.1069 -0.1631
36016W        W79069  26.013  25.370   3.207 -0.1871 -0.0004 -0.2746
36017W        W79070  31.510  12.579   0.617  0.1034  0.1203 -0.2751
36018W        W79071   5.783  28.485  18.904 -0.1250 -0.0398 -0.2460
36019W        W79072  25.246   6.300  27.992  0.1564  0.0376  0.0751
36020W        W79073  21.111  26.696   9.147 -0.0781  0.1673 -0.1975
36021W        W79074   6.747  24.937   6.952  0.2443 -0.0164 -0.2873
36022W        W79075   2.381  16.525  28.933  0.2009  0.0278  0.1047
36023W        W79076  24.777  16.456   5.923 -0.1709  0.1554 -0.0173
36024W        W79077  20.799  24.080   9.087  0.5311 -0.0397 -0.1003
36025W        W79078  21.749  19.492  27.566 -0.1135  0.1180  0.0753
36026W        W79079   6.801  22.821  26.821  0.0689  0.1121  0.2044
36027W        W79080  19.113  18.271  28.463  0.2147  0.0373  0.3239
36028W        W79081  17.176  15.472   4.899  0.1331 -0.1750 -0.1393
36029W        W79082  22.060  14.110  27.774 -0.1407 -0.4589  0.1688
36030W        W79083  29.160  17.254  22.690 -0.1823  0.2282  0.2150
36031W        W79084   7.646   5.929  27.895 -0.0255 -0.1229 -0.0280
36032W        W79085  24.275  29.669   1.547 -0.0613  0.1920 -0.1803
36033W        W79086  27.701  22.739   3.647 -0.1492  0.2294  0.0169
36034W        W79087  20.736  21.547   5.856 -0.0982 -0.1594 -0.1115
36035W        W79088  28.425  21.544  25.973 -0.0415 -0.2438 -0.0740
36036W        W79089  33.055  30.832  27.311  0.0982 -0.1007 -0.0504
36037W        W79090  31.697  13.480   4.540 -0.4199 -0.0062  0.1855
36038W        W79091   2.918  18.633   1.002  0.1262 -0.1659  0.0061
36039W        W79092  11.619  27.976   8.851 -0.2728 -0.0285  0.2680
36040W        W79093  27.722  22.405  26.834 -0.1220 -0.1199 -0.2750
36041W        W79094   1.548  21.269  26.553 -0.1495 -0.3285  0.0473
36042W        W79095  21.933  17.139   8.540 -0.0992  0.0061 -0.0713
36043W        W79096  22.405  14.541  28.202  0.1446 -0.1691  0.0113
36044W        W79097  32.610   9.308   8.634 -0.3075  0.0019 -0.1616
36045W        W79098  11.254  33.032   4.172  0.0991 -0.0108 -0.0234
36046W        W79099  27.373  22.038  22.160  0.0578 -0.0332  0.0647
36047W        W79100  30.939  19.688   1.351 -0.0975  0.3084  0.1651
36048W        W79101  11.297  23.685   0.583  0.3925  0.0518 -0.2980
36049W        W79102  20.162  21.200  24.175  0.2342  0.0240  0.1912
36050W        W79103  27.565  22.611   7.611 -0.0802  0.0164 -0.2343
36051W        W79104  32.557  30.779   9.211  0.1211  0.1251  0.1596
36052W        W79105  29.473  14.956  28.989 -0.0468 -0.3134  0.0371
36053W        W79106  31.291   5.278  14.652  0.2156  0.2454 -0.0896
36054W        W79107  22.771  15.828  25.732  0.2873 -0.3774 -0.0850
36055W        W79108  26.894  31.701  22.842  0.1621 -0.0475 -0.1498
36056W        W79109  15.011  32.515  28.925  0.1998 -0.0139 -0.0775
36057W        W79110  27.688  22.341   5.752  0.0853  0.0229 -0.0072
36058W        W79111  10.881  25.343  26.980 -0.3748 -0.0622 -0.0709
36059W        W79112  23.481  18.088   2.735  0.0545  0.0624 -0.2458
36060W        W79113  33.542  14.942   9.685 -0.0538  0.1229  0.3945
36061W        W79114  33.080   7.630  10.146 -0.1279 -0.4355  0.2266
36062W        W79115  30.357  14.607   6.475  0.0515  0.1900 -0.0528
36063W        W79116   1.364  18.840   7.414 -0.3147  0.3751  0.1702
36064W        W79117   0.072  31.019   2.191 -0.3896  0.0038 -0.0162
36065W        W79118  32.247  25.935   8.049 -0.1903 -0.1889 -0.1017
36066W        W79119  19.967   3.443   7.463  0.1972  0.0662 -0.2381
36067W        W79120   4.902  31.974   4.858 -0.0294 -0.0101 -0.1589
36068W        W79121  23.230   6.813  22.996 -0.1498 -0.2266  0.4749
36069W        W79122  27.674   9.736   7.451  0.0699 -0.2272 -0.2170
36070W        W79123  21.386  22.545   5.497  0.2443  0.1698 -0.2977
36071W        W79124  19.993  24.107   4.594 -0.1320 -0.2901 -0.1725
36072W        W79125   8.276  24.367   3.584 -0.4538 -0.0541 -0.1120
36073W        W79126  27.864  20.991  16.504 -0.0723 -0.1696 -0.3046
36074W        W79127  27.402  28.010   9.023 -0.1887  0.0596  0.1600
36075W        W79128  17.381  25.355   0.191  0.1604  0.3134  0.0887
36076W        W79129  25.082  10.615   6.103 -0.0097 -0.4072  0.1732
36077W        W79130  22.342  27.273   9.029 -0.2253  0.0623 -0.0440
36078W        W79131  11.290  23.762   8.780 -0.1519  0.2310 -0.2180
36079W        W79132  21.999  33.617   6.737  0.0996  0.0438 -0.1367
36080W        W79133  29.224  13.130  21.909  0.3577  0.0387  0.0303
36081W        W79134  26.381  29.224   5.669  0.1235  0.4359  0.1954
36082W        W79135  22.756  21.042   3.045 -0.0730 -0.1322 -0.1395
36083W        W79136   4.172   5.610  18.044 -0.0368  0.1960  0.3462
36084W        W79137   1.609  14.369  26.908 -0.2815 -0.1829 -0.0842
36085W        W79138  21.024  17.415   3.897  0.0416  0.3132 -0.2015
36086W        W79139  18.848  11.939   3.124  0.3930 -0.2084 -0.0357
36087W        W79140  15.822  25.134   3.648 -0.0519  0.0942  0.2002
36088W        W79141  28.444  13.703  26.266  0.1670  0.0060 -0.0700
36089W        W79142  23.761  20.680   7.551  0.2575  0.5570  0.0617
36090W        W79143  17.495  18.117   7.361  0.0723  0.0916  0.1845
36091W        W79144  20.595   2.252   8.375  0.2805  0.0735  0.0640
36092W        W79145  26.240  16.309   6.534 -0.1058 -0.1302  0.1192
36093W        W79146  21.832  17.303   1.216 -0.1815  0.2693  0.1362
36094W        W79147  15.401  18.857   8.950  0.1085 -0.1738  0.2304
36095W        W79148   4.974  16.491   5.286  0.0455 -0.3187 -0.0478
36096W        W79149  21.959  16.690   1.195  0.0666  0.4233 -0.1065
36097W        W79150  16.202   0.442   6.672  0.0125 -0.0189  0.2640
36098W        W79151  27.795  15.166   3.144  0.0979  0.1073 -0.0945
36099W        W79152  28.598  20.245   4.899 -0.0692  0.1323 -0.3160
36100W        W79153  17.551   7.385   4.388 -0.2330  0.2213  0.1482
36101W        W79154   0.331   9.641   2.009 -0.0595 -0.0072  0.0538
36102W        W79155  30.559  14.092   9.162 -0.1129 -0.0041  0.1074
36103W        W79156  23.755  12.820   0.336  0.1103 -0.2056 -0.0933
36104W        W79157  20.692  21.771   6.965 -0.0248  0.0060 -0.1040
36105W        W79158  25.389  25.774  25.657 -0.0412  0.1928 -0.1039
36106W        W79159  27.875  31.942  15.669  0.2474 -0.2260 -0.1278
36107W        W79160  24.250  24.015   0.328 -0.0620 -0.1350 -0.0283
36108W        W79161  30.275  28.039   9.146  0.2540 -0.1813 -0.2545
36109W        W79162   4.360  24.217   8.036 -0.2723 -0.0933 -0.1788
36110W        W79163  17.051   9.259  22.935  0.0817 -0.1095 -0.0186
36111W        W79164  18.948   7.833   7.102  0.0719  0.2955  0.1395
36112W        W79165  25.630  19.891   9.052  0.1855  0.0127 -0.0203
36113W        W79166  31.690  29.825  19.865 -0.2270 -0.0923 -0.0891
36114W        W79167  34.097  28.206   4.211  0.1315  0.0438  0.3553
36115W        W79168   6.313  11.389   3.413 -0.0909  0.0008  0.2003
36116W        W79169  30.899  33.481   7.655 -0.0461 -0.0622 -0.0765
36117W        W79170  19.777  26.068   0.211  0.2601 -0.0469 -0.0446
36118W        W79171  26.243  18.406  27.815 -0.1273  0.0251  0.0695
36119W        W79172  15.003  20.019   9.446 -0.1332  0.2041  0.1782
36120W        W79173  26.975  16.944   3.995  0.0671 -0.0907  0.0898
36121W        W79174  20.387  24.118   9.392  0.3199  0.2344  0.1296
36122W        W79175  31.487  25.969   1.387  0.1224 -0.1233  0.3893
36123W        W79176  17.327  22.897  29.104 -0.0334 -0.0256 -0.0790
36124W        W79177  13.908  28.061   4.877 -0.1304  0.2200 -0.1690
36125W        W79178   5.691  28.233   2.213  0.0055  0.1163  0.1619
36126W        W79179   7.303  25.773   6.417 -0.0878  0.4282 -0.0500
36127W        W79180   3.278   0.065  26.153  0.3676 -0.1246 -0.0114
36128W        W79181  22.290  21.325   9.198 -0.2842  0.0675  0.1775
36129W        W79182  19.373  10.339   1.759 -0.0633 -0.3475  0.0312
36130W        W79183  23.811  16.966   3.203 -0.0465  0.0099  0.0861
36131W        W79184  33.696   6.291  24.175 -0.2250 -0.0134 -0.1359
36132W        W79185  18.449   8.914   6.782  0.0164 -0.0197  0.1233
36133W        W79186   8.650  14.697   1.282  0.0579  0.0255  0.1158
36134W        W79187  27.213  24.374   8.357  0.2058 -0.0307 -0.1240
36135W        W79188   4.666   4.752   9.983 -0.0323 -0.1447 -0.1523
36136W        W79189  23.349   9.308  27.252  0.1413  0.2484  0.0985
36137W        W79190  20.504  18.648   1.381 -0.1896 -0.5046  0.3148
36138W        W79191  21.025  27.486   3.340  0.2938  0.1314  0.0522
36139W        W79192  22.211  32.263   6.620  0.1779 -0.0109 -0.6678
36140W        W79193  23.936  29.483  22.341 -0.1501  0.3762  0.1725
36141W        W79194  26.381  19.530   2.777 -0.2587 -0.2000  0.1538
36142W        W79195  17.392   7.312   9.388  0.0482 -0.1170 -0.0033
36143W        W79196   3.506   7.792   8.951  0.1055 -0.1405  0.2037
36144W        W79197  14.677  25.571  28.624  0.0295 -0.2108  0.2633
36145W        W79198  30.033  19.493   3.394 -0.0952  0.0288  0.3950
36146W        W79199  26.947  17.455   5.028 -0.0135  0.0971  0.5263
36147W        W79200  11.664  19.845  27.601 -0.0322 -0.0339  0.2668
36148W        W79201  25.270   6.189  21.061 -0.3210 -0.0688  0.0495
36149W        W79202  27.701  26.841   8.102 -0.2822  0.5725  0.3870
36150W        W79203  16.905  11.715   4.180 -0.1526  0.1254  0.1596
36151W        W79204  27.654  13.769  22.141 -0.0683  0.0077 -0.2020
36152W        W79205  19.420  12.091  25.471  0.1103  0.2696  0.1609
36153W        W79206  27.510  22.348   9.982 -0.2037 -0.0330 -0.0742
36154W        W79207  25.466  14.584   2.527 -0.0712 -0.0831  0.3226
36155W        W79208  25.623  22.029  26.377  0.0868 -0.4405  0.3139
36156W        W79209  33.491  18.460  26.218 -0.2291  0.1972 -0.0766
36157W        W79210  22.980  21.071   3.655  0.0066 -0.0135 -0.3067
36158W        W79211  24.236  23.172   9.195 -0.1975 -0.0361  0.1311
36159W        W79212   3.393  11.781   2.521 -0.1911 -0.1758 -0.3031
36160W        W79213  30.117  23.619  27.734 -0.0016 -0.0062  0.0077
36161W        W79214  23.632  30.771  25.489 -0.0995  0.3259 -0.1756
36162W        W79215  29.783  24.507   0.683 -0.1819 -0.1607  0.0807
36163W        W79216   8.634  15.076  28.878 -0.3235  0.2198 -0.2864
36164W        W79217  32.738  13.458   9.112 -0.0951 -0.3788 -0.0570
36165W        W79218  33.694   4.110   1.225  0.1162 -0.1114  0.2581
36166W        W79219  31.114  30.836  27.403 -0.1035  0.1328 -0.0199
36167W        W79220  24.103  14.035   5.968 -0.1214 -0.1822  0.2399
36168W        W79221   8.171  15.364  27.191  0.4926 -0.1662 -0.1485
36169W        W79222  26.837  19.620   1.385 -0.0751 -0.2614  0.0320
36170W        W79223  29.566  10.682   0.936  0.2171 -0.0593  0.1197
36171W        W79224  25.131  21.333  10.139 -0.2955  0.2580 -0.2272
36172W        W79225  26.047  10.610   4.515  0.0397  0.0492 -0.3402
36173W        W79226  19.370  21.478  22.375  0.1208 -0.1604 -0.2579
36174W        W79227  30.771  21.286   8.984  0.1722  0.1411  0.1741
36175W        W79228  34.036  25.606  24.855 -0.0801 -0.0005  0.1862
36176W        W79229  31.687  30.443   2.487  0.1349  0.3019  0.1216
36177W        W79230  24.184  18.444  10.323  0.1089 -0.3860  0.0494
36178W        W79231  16.944  14.962   4.758 -0.2064 -0.2153 -0.2268
36179W        W79232  19.226  12.075  26.013  0.0681 -0.1855  0.5321
36180W        W79233  32.464  25.256  25.746 -0.3172  0.2108  0.1760
36181W        W79234   0.729  25.286  18.808  0.2240  0.0875  0.2500
36182W        W79235  24.128  13.556   6.149  0.0000 -0.2109 -0.0476
36183W        W79236  32.900  20.143   5.578 -0.0738  0.1193 -0.0785
36184W        W79237  20.573  21.028   8.085  0.2400  0.4555  0.0836
36185W        W79238  14.253  17.403   2.772  0.3912 -0.3450 -0.3054
36186W        W79239  26.726  15.526   7.651  0.0192 -0.4679 -0.0426
36187W        W79240  26.937  20.544   0.056  0.0701 -0.1340  0.2486
36188W        W79241   3.642   8.978   9.111  0.3806 -0.1622  0.0415
36189W        W79242  25.455  33.344   2.250 -0.0494 -0.2498  0.2385
36190W        W79243   9.880  28.390  23.779  0.3601  0.0703  0.1416
36191W        W79244  25.156  19.384   5.463 -0.0791 -0.2284 -0.2174
36192W        W79245  31.642  18.723   6.833 -0.0174 -0.0612 -0.1272
36193W        W79246  26.924  30.870  27.447  0.1457 -0.1334 -0.0009
36194W        W79247   1.389   9.209   6.952 -0.0275 -0.0425 -0.1683
36195W        W79248  26.245  19.751  29.031 -0.0304  0.2297  0.1284
36196W        W79249  27.969  19.590  18.861  0.0242 -0.1335  0.0391
36197W        W79250  31.779  19.954   4.412 -0.1481 -0.2301 -0.1532
36198W        W79251   8.698  22.979   2.960  0.2600 -0.2151  0.0782
36199W        W79252  21.381  19.920   4.304  0.0665  0.0848  0.3843
36200W        W79253  26.860   8.693  25.132 -0.1124 -0.1456 -0.0002
36201W        W79254  20.918  15.830  17.426  0.4734 -0.2145 -0.0021
36202W        W79255  30.066  19.232  26.868 -0.0201  0.0652 -0.0067
36203W        W79256   0.653  10.377   2.933  0.0454 -0.1029 -0.1346
36204W        W79257  19.455  31.962   8.940 -0.0230  0.0939 -0.2172
36205W        W79258  25.742   2.589   2.848 -0.2912  0.2253  0.0917
36206W        W79259  34.014  31.140   6.112  0.0806  0.1121  0.0777
36207W        W79260  33.719   7.606   4.395  0.2357  0.0778 -0.3516
36208W        W79261   4.384  24.998   3.025 -0.1761  0.1628 -0.1523
36209W        W79262  20.975  30.377   5.034 -0.1487 -0.0472  0.3130
36210W        W79263  30.928  17.755   2.279  0.0915  0.0667 -0.2323
36211W        W79264  30.304  13.280  27.558  0.0214 -0.4133  0.1071
36212W        W79265  26.177   1.811   3.409  0.1410 -0.1049  0.1888
36213W        W79266  26.743  14.024   3.669  0.1778  0.0241  0.2287
36214W        W79267  25.588  27.776   3.035  0.1468 -0.0258  0.0677
36215W        W79268  27.316  17.512  25.114  0.2683 -0.2377  0.1448
36216W        W79269  32.857   5.099  25.268  0.2325 -0.0942  0.3454
36217W        W79270  12.775  13.908   9.610 -0.0493  0.1203 -0.1935
36218W        W79271   5.984  25.110   8.120 -0.1508  0.0681  0.1990
36219W        W79272   5.809  25.950   7.075  0.0712 -0.0425  0.2839
36220W        W79273  26.643   2.351   3.312  0.1471  0.0017 -0.3809
36221W        W79274  25.077  19.064   9.257 -0.2134  0.4230  0.0233
36222W        W79275   6.193  28.881  23.301 -0.1220 -0.0642  0.1886
36223W        W79276  28.505  29.715   3.802  0.2252 -0.0466 -0.1868
36224W        W79277  24.624   0.201   8.230  0.0445 -0.2076  0.0329
36225W        W79278   7.523  28.822   2.466 -0.1532 -0.2549 -0.0265
36226W        W79279   2.226  16.736  19.260 -0.0309 -0.0123 -0.1308
36227W        W79280  18.127  18.259  24.998  0.0724 -0.0981  0.3566
36228W        W79281  28.255  18.591   5.541  0.1348  0.0487  0.0112
36229W        W79282   0.646   4.726  23.946  0.1957 -0.0717  0.0730
36230W        W79283  27.782  11.967   9.266  0.2928 -0.0215  0.1482
36231W        W79284  13.227  22.399   5.328  0.0838 -0.3754 -0.3443
36232W        W79285  23.162  19.999  28.739  0.0417 -0.0369 -0.0149
36233W        W79286   3.071  27.826  18.113  0.2012 -0.1319  0.1794
36234W        W79287  24.670   1.820   5.155  0.0733 -0.0421  0.3448
36235W        W79288  24.625   9.775  25.824  0.0391 -0.1253 -0.0686
36236W        W79289  31.987  22.679   0.979 -0.2841 -0.0025 -0.2357
36237W        W79290  28.144  17.360   3.223  0.1214  0.1207  0.2285
36238W        W79291  20.878  23.254   8.088 -0.1320 -0.0373  0.2046
36239W        W79292   0.216  33.306   5.042 -0.1093 -0.2259  0.0174
36240W        W79293  31.618   1.475   6.212 -0.2152 -0.0407  0.0746
36241W        W79294  14.927  19.121  21.389 -0.1464  0.0901  0.0875
36242W        W79295   1.944  15.066   0.050  0.0502  0.2773 -0.3653
36243W        W79296  28.738   9.901  29.187 -0.0667  0.0573  0.0274
36244W        W79297  19.750  11.409   4.881  0.2390  0.0725  0.2079
36245W        W79298  28.881   2.982   3.506 -0.1544 -0.0541  0.0470
36246W        W79299  12.211  19.049   4.025 -0.1824  0.1212 -0.0901
36247W        W79300  27.849  28.116   3.928 -0.2261  0.2772  0.3614
36248W        W79301   9.499  10.355   9.993 -0.0628 -0.1035 -0.0145
36249W        W79302  30.095   2.271  28.787 -0.2271 -0.1398  0.0109
36250W        W79303  21.948   0.783   0.713  0.2356 -0.2568  0.1460
36251W        W79304  20.443  25.279  22.173  0.0656  0.1581 -0.0376
36252W        W79305  12.548  13.762   6.194 -0.1190  0.1474  0.0676
36253W        W79306  27.500  34.038   5.013  0.1761 -0.2901 -0.0292
36254W        W79307  17.676  33.566   8.812  0.2729 -0.4451  0.1045
36255W        W79308  33.595  24.571  28.701  0.0643 -0.2972 -0.2796
36256W        W79309  34.218  29.200   6.184  0.2245 -0.3595  0.2120
36257W        W79310   6.732  17.215   4.469  0.1001 -0.1022 -0.2864
36258W        W79311  31.540   2.941   5.619 -0.0168  0.3057  0.0509
36259W        W79312  32.549  14.079  28.205  0.0093 -0.1255 -0.1081
36260W        W79313  26.365  16.632   0.576  0.0151 -0.1462  0.2856
36261W        W79314  17.255   2.996   3.974 -0.1055 -0.3413 -0.0922
36262W        W79315  29.444   1.070   5.994  0.2350 -0.0450  0.3361
36263W        W79316  33.151  19.550   7.163  0.0470 -0.2130 -0.0092
36264W        W79317  34.545  18.864  25.614  0.1462  0.2264  0.0331
36265W        W79318  31.824  17.093   8.248 -0.1935 -0.1950 -0.1583
36266W        W79319   0.346   5.211   9.469  0.0392 -0.3634  0.3490
36267W        W79320  18.197  17.315  26.704  0.3769  0.2384  0.3166
36268W        W79321  14.781  20.596   4.444  0.2313  0.0421  0.1201
36269W        W79322   1.431  25.793   5.433  0.1454 -0.0943  0.0847
36270W        W79323  25.854  17.315   4.629 -0.2562 -0.0713  0.0532
36271W        W79324  30.758   4.177   9.018 -0.0559  0.1868  0.4446
36272W        W79325  28.942  28.496   5.779  0.1035 -0.0561  0.0595
36273W        W79326  28.693  14.800   1.096  0.0962 -0.2794 -0.0669
36274W        W79327  28.697  26.145   5.624 -0.2437  0.1138 -0.0647
36275W        W79328   2.404  32.906   4.900 -0.0937  0.0443 -0.1236
36276W        W79329  32.195  25.483   2.483  0.0302  0.1968  0.2207
36277W        W79330  26.353   1.793   6.725  0.3597  0.0074 -0.2248
36278W        W79331  30.941  12.157  22.920  0.0766 -0.1538 -0.0726
36279W        W79332  28.219  23.113   2.579  0.3623 -0.1507 -0.1611
36280W        W79333  15.143   1.603   2.670 -0.1940 -0.1386 -0.2393
36281W        W79334  21.464  19.828  27.945 -0.0169  0.1249 -0.0703
36282W        W79335  32.048  17.932   7.003 -0.3387  0.0676  0.0703
36283W        W79336  15.232  13.112   7.975 -0.0663  0.0940 -0.1241
36284W        W79337  27.363  14.938   5.140  0.2604  0.0537  0.0069
36285W        W79338  11.666  19.665  27.151 -0.0350 -0.2852  0.0332
36286W        W79339  17.775   4.602  26.809  0.0849  0.0459 -0.3387
36287W        W79340  14.754   6.478   7.450 -0.2276  0.1807 -0.3589
36288W        W79341  33.480  19.194  28.613  0.2847 -0.4684 -0.0487
36289W        W79342  30.338  32.157   0.154 -0.1419 -0.2730  0.1742
36290W        W79343  23.424   9.985  20.293 -0.0689  0.3116 -0.0638
36291W        W79344  25.080  23.764   4.528  0.1122  0.1402 -0.0505
36292W        W79345  21.801  21.136   3.719  0.2342  0.0925  0.1225
36293W        W79346   5.991   1.311   4.275 -0.2011  0.0121  0.2534
36294W        W79347   0.304   7.063   6.341 -0.1292 -0.0504 -0.0145
36295W        W79348   0.288   7.628   6.436  0.5558 -0.1939  0.1623
36296W        W79349  18.417  27.555  27.121  0.2790  0.2088  0.0018
36297W        W79350  19.191  10.517  14.789 -0.6175  0.0803  0.2157
36298W        W79351   2.216  24.692   1.378  0.3250 -0.0284  0.0745
36299W        W79352  22.202  31.327   4.702 -0.1441  0.2182  0.4435
36300W        W79353   1.403  26.078   0.531 -0.2087 -0.0959  0.0189
36301W        W79354  27.220   5.326   7.784 -0.0267 -0.0970  0.2711
36302W        W79355  17.601   9.971   9.688 -0.4132 -0.1334  0.0020
36303W        W79356  32.334  25.152   7.700  0.0308  0.3005  0.1068
36304W        W79357  20.630  30.505   5.419 -0.1567  0.3444 -0.0048
36305W        W79358   3.988  13.521   6.312 -0.1067  0.1751 -0.1687
36306W        W79359  29.794  32.878   6.069 -0.2571 -0.3355  0.2005
36307W        W79360  31.831  21.104  21.926 -0.1882 -0.0566  0.0300
36308W        W79361  28.791  23.661  28.305  0.4400 -0.0849  0.1230
36309W        W79362  17.645  21.429   8.961 -0.0147 -0.2158 -0.4104
36310W        W79363   7.135  33.396   8.204  0.0441  0.0803  0.1632
36311W        W79364  22.657  14.439   1.779  0.1591  0.1401 -0.2138
36312W        W79365  17.420  17.831   3.363 -0.0195  0.0451  0.0529
36313W        W79366  30.663  22.005  22.860  0.0367  0.2066  0.3063
36314W        W79367  21.870  25.246   5.194 -0.1221 -0.0187  0.3535
36315W        W79368  23.103  15.563  27.383  0.0262  0.0839 -0.0001
36316W        W79369  25.023  28.806   7.485 -0.0202 -0.1374 -0.2298
36317W        W79370   6.030   9.604  21.966  0.0899  0.0373 -0.1061
36318W        W79371  31.669  20.095  28.246  0.0298 -0.6138 -0.2006
36319W        W79372  20.290   8.851  28.269  0.4787  0.2007  0.2935
36320W        W79373  23.047  15.175  29.178  0.0018  0.0134 -0.2630
36321W        W79374  24.236  33.020   9.869  0.0467  0.0384 -0.2922
36322W        W79375  17.773  27.545   9.376  0.1778  0.1630  0.2692
36323W        W79376  23.142  24.500   3.698  0.0991 -0.1038  0.4149
36324W        W79377  28.980  20.505   8.418 -0.2852 -0.1535  0.2564
36325W        W79378  33.430  26.238   2.174  0.0806 -0.1528 -0.0958
36326W        W79379   6.908  19.518  21.268  0.2884 -0.1654 -0.3203
36327W        W79380  25.543  24.590  27.200  0.0123  0.1716  0.2541
36328W        W79381  20.745  26.510   7.538  0.2832 -0.2008 -0.1588
36329W        W79382  12.448  23.714  14.386  0.2365  0.2768 -0.2708
36330W        W79383   6.904  15.450   4.406  0.0424 -0.0048  0.2561
36331W        W79384  22.428   1.138   4.968 -0.2953 -0.3394 -0.3150
36332W        W79385   5.004   0.665  19.445 -0.0554  0.2424 -0.3247
36333W        W79386   6.963  21.198  26.740 -0.0324  0.1856 -0.0228
36334W        W79387   7.806  25.899   8.581 -0.0078  0.0173 -0.1839
36335W        W79388  27.643   0.747   8.862  0.3365  0.1016  0.1947
36336W        W79389  31.627   3.910   5.827 -0.1253  0.2506 -0.0354
36337W        W79390  30.092  13.407   6.350 -0.0021 -0.1827  0.2999
36338W        W79391  14.752  22.818   7.271 -0.0669 -0.0676  0.1326
36339W        W79392  23.966  30.814   0.746  0.0992 -0.1458  0.2913
36340W        W79393  20.838  19.234   5.211  0.0915 -0.4906 -0.0233
36341W        W79394  14.611  19.913   7.216  0.1763  0.2077 -0.2248
36342W        W79395  33.413  25.683   1.461  0.0131  0.0213  0.0391
36343W        W79396  18.276  24.833  24.403 -0.0651 -0.0903  0.1322
36344W        W79397  29.841   1.142  27.833  0.1439  0.0217  0.3802
36345W        W79398  29.185  10.001  28.638  0.2199  0.0678 -0.2308
36346W        W79399  12.539  25.032   3.864  0.3896 -0.0475 -0.1608
36347W        W79400  31.462  19.444   4.111  0.1367 -0.2480  0.3786
36348W        W79401  26.462  22.438  27.340  0.0762 -0.2183  0.3122
36349W        W79402   4.319  27.599   8.053  0.0663 -0.0409  0.1913
36350W        W79403  13.102  23.433   3.263 -0.0527  0.1001 -0.1832
36351W        W79404  26.053  20.226   9.237 -0.1633 -0.0630  0.1728
36352W        W79405   0.519  25.610   5.660 -0.0360 -0.1504 -0.0921
36353W        W79406  26.130  25.629   0.948 -0.0671  0.0091  0.0083
36354W        W79407  27.370   3.832   6.387  0.0574  0.1991  0.2449
36355W        W79408  13.122  18.859   7.079 -0.2118 -0.2882  0.3577
36356W        W79409  28.809  18.081   8.602  0.2454 -0.3364 -0.2229
36357W        W79410   0.269   9.574   8.888 -0.0144  0.2847  0.0185
36358W        W79411  29.639  20.208   4.017  0.1177 -0.0148  0.0320
36359W        W79412  24.340  28.211  24.811  0.0394  0.0011  0.2134
36360W        W79413  14.716  31.063  23.147  0.1032  0.0550 -0.0925
36361W        W79414  29.705  19.116  26.571 -0.0685  0.3559 -0.0985
36362W        W79415  24.968  24.478   5.048  0.2319 -0.0152  0.0203
36363W        W79416   0.258   3.305   2.640 -0.1782  0.0777 -0.1390
36364W        W79417  33.480  31.103   6.879 -0.0330 -0.1952  0.1548
36365W        W79418  33.585  29.377   2.503 -0.1727 -0.2255 -0.1213
36366W        W79419  25.635  16.118  17.536  0.0420  0.0815 -0.1318
36367W        W79420  29.750  17.831   6.365  0.1631 -0.1224 -0.0778
36368W        W79421  30.196  26.928  23.979  0.3819 -0.0023  0.0298
36369W        W79422   1.791  19.904  16.462  0.1557  0.0965 -0.1303
36370W        W79423  13.856  34.070   8.563 -0.0003 -0.2552 -0.0611
36371W        W79424  24.538   8.513  23.635 -0.0365 -0.3517  0.0251
36372W        W79425  13.815   7.837  18.925 -0.1676 -0.0168  0.3353
36373W        W79426  20.547  31.736   0.055  0.1308  0.3089 -0.2825
36374W        W79427  19.986   3.928  18.981 -0.0853 -0.0740  0.0566
36375W        W79428   6.863  31.546   6.778  0.1423 -0.0096 -0.2913
36376W        W79429  15.192  18.213  27.961  0.0927 -0.0002 -0.3214
36377W        W79430   4.550   6.718   0.393  0.0692  0.0886 -0.0664
36378W        W79431  25.488   2.935  21.657 -0.2223 -0.2425  0.3001
36379W        W79432  21.641  16.573  20.047 -0.4294 -0.1516  0.0135
36380W        W79433  19.594  16.247   5.448 -0.2137 -0.1889 -0.1979
36381W        W79434  20.109  17.147   8.862  0.0646  0.1464 -0.2010
36382W        W79435  27.499  21.311  23.786  0.1011 -0.0775 -0.0682
36383W        W79436   5.474  22.420  27.958  0.2390  0.2504 -0.4358
36384W        W79437  32.386  28.042  16.826 -0.0441 -0.0707  0.1644
36385W        W79438   7.908   0.401  25.100 -0.1600  0.0903 -0.2451
36386W        W79439  31.204  34.222   6.103  0.2262  0.1459 -0.2152
36387W        W79440  27.553  23.986   3.870  0.4604 -0.1425  0.0333
36388W        W79441  31.957  17.521   6.001  0.1887  0.1975  0.1236
36389W        W79442  20.906  32.735  28.998 -0.0804  0.0474  0.0003
36390W        W79443  26.736  20.079   6.593 -0.1663  0.3780 -0.0410
36391W        W79444  22.836  29.105  24.945  0.0330 -0.0474 -0.0326
36392W        W79445  26.881  13.487  18.521 -0.1397  0.2332  0.3116
36393W        W79446  25.687  18.991  17.357 -0.1587 -0.3228 -0.3468
36394W        W79447  17.002   2.266   1.343 -0.1912 -0.0203  0.0170
36395W        W79448  28.281  17.835  26.648  0.0015  0.2999 -0.1884
36396W        W79449   0.645  24.291  29.130 -0.1446 -0.0307 -0.0621
36397W        W79450  26.092  30.441   8.748 -0.3056  0.1368 -0.1452
36398W        W79451   1.585  16.761  22.709 -0.1230  0.0398  0.0167
36399W        W79452  18.335  20.792   5.311  0.2431  0.0841 -0.2911
36400W        W79453  26.660  19.261   4.637 -0.0775  0.0121 -0.0326
36401W        W79454  29.912  23.001   5.434 -0.0039  0.1854  0.4808
36402W        W79455  17.627  21.740  21.787  0.1642  0.1676  0.0232
36403W        W79456  18.761  28.863  20.251  0.2685  0.2679 -0.0207
36404W        W79457  18.305  22.548   6.997 -0.2034  0.2901 -0.2529
36405W        W79458   8.764  17.824  26.235 -0.0711 -0.0230  0.1453
36406W        W79459  24.655  23.090   8.893 -0.3101 -0.0820  0.0643
36407W        W79460  32.639  30.993   4.687  0.0293  0.0029  0.1734
36408W        W79461  28.835  14.920   2.279  0.0477  0.1700 -0.0117
36409W        W79462  15.211  25.379   8.562 -0.0171  0.1763  0.0291
36410W        W79463   7.466   5.034  14.553  0.1952 -0.0004 -0.2115
36411W        W79464  28.830  10.981  27.036 -0.0345  0.2097 -0.0329
36412W        W79465   7.281  30.425   2.456  0.0432  0.1882 -0.0797
36413W        W79466  31.179  16.389   9.820 -0.3725 -0.1681 -0.1135
36414W        W79467  19.890  12.701   2.377 -0.2142  0.2775 -0.0533
36415W        W79468  16.855  19.994  21.995 -0.3586 -0.0053 -0.1079
36416W        W79469   4.841   2.033   3.548  0.1903  0.1694 -0.0694
36417W        W79470  17.771  27.938   3.159 -0.0014 -0.2228  0.1361
36418W        W79471  29.845   9.494   2.966 -0.1417  0.1815  0.3059
36419W        W79472  26.660   7.577  26.614 -0.0846  0.1941  0.3426
36420W        W79473  19.057  24.003  22.576  0.2193 -0.2161  0.1701
36421W        W79474  15.053   7.644  28.156 -0.0312 -0.1440  0.3880
36422W        W79475  12.538  17.763   5.357 -0.1946 -0.3754 -0.1521
36423W        W79476  16.097  14.276  28.157  0.0999 -0.1173  0.4758
36424W        W79477  10.799  25.136   0.744 -0.3151 -0.3214  0.2208
36425W        W79478  18.968  18.505   1.772 -0.1119  0.0243  0.1972
36426W        W79479  18.709   8.269  27.460 -0.0158  0.1206 -0.1909
36427W        W79480   9.170  19.873   4.732  0.0711 -0.0533 -0.1209
36428W        W79481  17.967  13.351   9.185 -0.2224  0.0078 -0.2889
36429W        W79482  28.232  23.313  10.177  0.1522 -0.0216 -0.1307
36430W        W79483  16.710  25.717   1.033 -0.1077 -0.2294 -0.3058
36431W        W79484  27.320  30.569   4.337 -0.0205  0.0376 -0.1611
36432W        W79485  29.413  25.753  28.323 -0.5529  0.0857 -0.5576
36433W        W79486  14.907  33.344  27.453 -0.1384 -0.1248  0.0116
36434W        W79487   0.272  20.799   2.138  0.0160  0.0218  0.1248
36435W        W79488  17.287  20.465   1.567 -0.0161 -0.1246 -0.1891
36436W        W79489   8.749  17.676  10.203  0.2120 -0.0839  0.0237
36437W        W79490  14.386  22.098   7.563  0.0505 -0.2429 -0.1489
36438W        W79491  27.372  23.780  25.865 -0.1256  0.0733 -0.1385
36439W        W79492  23.031  24.352  20.989 -0.0786  0.0887  0.3677
36440W        W79493  27.201  20.104  27.184  0.0612 -0.1770 -0.0383
36441W        W79494  22.833  12.385  26.913 -0.1797 -0.0889  0.3017
36442W        W79495   4.893  30.180  26.279  0.0932  0.4528  0.1014
36443W        W79496  15.831  22.436   8.662 -0.0505  0.0485 -0.0640
36444W        W79497  11.897  33.346  27.004 -0.0820  0.0789  0.0606
36445W        W79498  18.932  16.910   4.860 -0.2522 -0.0082 -0.0331
36446W        W79499  22.451   3.615   9.159 -0.1810  0.1254 -0.0472
36447W        W79500  31.048  11.258  10.482 -0.2604 -0.1747 -0.0387
36448W        W79501  33.725  22.322   4.129  0.2137 -0.1260 -0.0025
36449W        W79502  28.109  10.795   5.041  0.5133 -0.0776  0.0004
36450W        W79503  27.915  19.431   8.669 -0.0900 -0.0595  0.3455
36451W        W79504  29.625  29.945  27.872  0.1176 -0.0596 -0.1972
36452W        W79505  15.077  28.910  25.824 -0.0751  0.2119  0.0859
36453W        W79506  24.640   4.192   3.487  0.1612  0.2128 -0.1312
36454W        W79507  24.655  21.090   7.958  0.0121 -0.4143  0.1308
36455W        W79508  26.952  33.773  16.426 -0.3415 -0.0855  0.0919
36456W        W79509  26.767   5.473   9.012  0.0559  0.1036 -0.0109
36457W        W79510  17.277   8.541  25.367 -0.2204 -0.0282  0.3658
36458W        W79511  28.836  21.356  27.745 -0.2342 -0.1991 -0.3053
36459W        W79512  33.752  26.313   6.562  0.1450 -0.0715 -0.0905
36460W        W79513  29.936  30.514  20.505 -0.1600 -0.3271  0.0929
36461W        W79514   3.204   7.036   8.015  0.0316 -0.0307  0.0267
36462W        W79515  17.785  23.256   2.595 -0.1401 -0.0665  0.0364
36463W        W79516  24.514  17.965  25.145  0.0837 -0.0744  0.3681
36464W        W79517  24.750  29.793   2.478 -0.0822 -0.2838 -0.0819
36465W        W79518  33.410  16.829  26.643  0.0073  0.0754 -0.1957
36466W        W79519  19.739  27.009   7.647 -0.0913 -0.4152 -0.1892
36467W        W79520  34.576  15.867  23.940 -0.0419  0.0179  0.0190
36468W        W79521  28.008  26.678   1.049 -0.1651 -0.1940 -0.2630
36469W        W79522  25.931  33.902  24.477 -0.1868  0.0880  0.0629
36470W        W79523  23.927  18.257   0.484  0.2186  0.1872 -0.1525
36471W        W79524  16.807  25.212   1.007  0.0224  0.1824 -0.4217
36472W        W79525  14.987  24.234   1.564 -0.1420 -0.1136 -0.0268
36473W        W79526  29.203  12.671   1.128  0.2886 -0.1364  0.2377
36474W        W79527  15.602   4.182   3.248  0.2490 -0.0249 -0.0793
36475W        W79528  34.312  22.530   7.969  0.0579 -0.3035  0.2211
36476W        W79529  28.099  23.159   6.112  0.1037  0.3076  0.3581
36477W        W79530  22.325  23.510   1.859  0.1351  0.0426  0.1147
36478W        W79531  24.482  28.316  22.741 -0.0812  0.0828  0.0734
36479W        W79532  32.547  28.001  23.791  0.0318  0.2894 -0.3527
36480W        W79533   0.012  22.730  29.032 -0.3391 -0.2990 -0.0491
36481W        W79534   9.372  11.569   7.754 -0.0001  0.5280 -0.1198
36482W        W79535  31.744  28.778  28.658  0.1000 -0.1830  0.0070
36483W        W79536  16.942  15.167   9.530  0.2474 -0.2640  0.3800
36484W        W79537  25.025  14.711   0.430 -0.0387 -0.1919  0.3710
36485W        W79538  32.212  12.201  28.490  0.0134  0.0365 -0.1219
36486W        W79539   5.351  28.759   3.113  0.0285 -0.1367 -0.3545
36487W        W79540  24.448  24.627   1.096 -0.0927  0.3502  0.0797
36488W        W79541  13.145  23.156  28.437  0.5010 -0.0541 -0.3646
36489W        W79542   6.554  24.050  20.700  0.0059 -0.2821  0.4034
36490W        W79543  22.635  30.762  24.531 -0.1108  0.0712 -0.2876
36491W        W79544  25.329   1.508  24.917  0.3358 -0.1151  0.2960
36492W        W79545  18.577  13.419  14.253 -0.1264  0.3088 -0.1018
36493W        W79546  17.769  27.003   9.923  0.1089 -0.1187 -0.1242
36494W        W79547  28.660  22.542  20.925  0.0020  0.0404  0.0425
36495W        W79548  20.467  25.386   7.416 -0.0111  0.2718 -0.0882
36496W        W79549   3.901  25.061   5.295 -0.1936  0.2570  0.1922
36497W        W79550  20.208   0.712  26.730 -0.2049  0.1988 -0.3498
36498W        W79551  15.904  12.074  16.558 -0.0990  0.0235  0.0836
36499W        W79552  26.395  33.589   8.825  0.0826  0.1507 -0.0667
36500W        W79553  32.879  26.747   0.173  0.1670 -0.2151  0.0187
36501W        W79554  26.976  27.482  27.470 -0.1712 -0.1970 -0.3368
36502W        W79555   0.952  16.837   8.672  0.1586  0.0817 -0.4581
36503W        W79556   3.710  27.180   9.663 -0.0155 -0.1229 -0.1888
36504W        W79557  27.702  11.348   8.288  0.1301 -0.3375  0.0182
36505W        W79558  23.635   8.210   9.480 -0.1555  0.0455 -0.0464
36506W        W79559  29.849  19.365  16.254  0.2711  0.0476 -0.1296
36507W        W79560  29.169  32.082   4.859 -0.1823 -0.3582  0.1779
36508W        W79561  24.874   0.979   3.140  0.6234 -0.3503 -0.0236
36509W        W79562  32.498  10.861   4.556 -0.2763 -0.1327  0.2971
36510W        W79563  28.560  26.875  27.344  0.1947 -0.0356  0.0410
36511W        W79564  30.033  26.006   8.631 -0.2266  0.1340  0.1546
36512W        W79565  21.409  23.877   5.762  0.1795 -0.0020 -0.1482
36513W        W79566  20.794   9.333   3.599 -0.4860  0.1340 -0.2009
36514W        W79567  25.404   6.932   5.151 -0.3226 -0.0440  0.2568
36515W        W79568  30.782  26.647  20.995  0.4255 -0.2415  0.1045
36516W        W79569  14.407  18.654  13.990 -0.3522  0.0655  0.1600
36517W        W79570  27.208  31.238   0.480  0.0862  0.0692 -0.1316
36518W        W79571  18.549  20.110  28.133 -0.0856 -0.0273 -0.1283
36519W        W79572  20.019  15.337   5.200  0.1831 -0.3768 -0.1472
36520W        W79573  16.768  17.161   3.185 -0.3893 -0.0931 -0.0073
36521W        W79574  30.542  17.177  17.106  0.0266  0.1672 -0.0701
36522W        W79575  28.520  10.803   2.975 -0.0359 -0.1955 -0.3051
36523W        W79576  24.004  28.872   0.293 -0.1134 -0.2288 -0.3250
36524W        W79577  30.084  33.975   3.125 -0.1715  0.0871 -0.0012
36525W        W79578  30.093  11.524   0.768  0.1506  0.3191  0.0314
36526W        W79579  34.185  31.957   2.637 -0.2546 -0.1554  0.1268
36527W        W79580  26.840  21.290   5.701  0.0954 -0.4801  0.1723
36528W        W79581  25.406  25.403   5.883 -0.1699  0.1103 -0.0486
36529W        W79582   0.383  33.723  24.289 -0.0910 -0.1513 -0.1145
36530W        W79583  29.645  10.187   1.591 -0.1658  0.0536 -0.0518
36531W        W79584  22.947  18.975  17.028  0.0183  0.1256  0.0195
36532W        W79585  20.266  18.487   8.170 -0.2437 -0.0062  0.0332
36533W        W79586  28.361  15.497   5.678 -0.0788  0.6038  0.0148
36534W        W79587  24.075  16.653  18.597 -0.1619 -0.1189  0.0097
36535W        W79588   1.904  21.285   9.960  0.0042 -0.0980 -0.0817
36536W        W79589  30.179   7.439  28.124  0.1039  0.2530  0.0345
36537W        W79590  25.712  17.248   8.236 -0.0849 -0.3625  0.0306
36538W        W79591  23.343  33.755  28.268  0.1851 -0.0057  0.0311
36539W        W79592   2.018  33.531   3.350  0.0345  0.1309  0.1633
36540W        W79593  29.961  21.317   1.323  0.0346  0.0111 -0.0551
36541W        W79594  18.823  14.848   0.659 -0.0276  0.5049 -0.1612
36542W        W79595  33.884  30.209   0.961  0.2954  0.4318  0.0069
36543W        W79596  27.499  21.876  20.294  0.2665 -0.0487  0.0476
36544W        W79597   7.885   7.194  15.485 -0.3382  0.0532 -0.0170
36545W        W79598  18.732  21.064  16.755 -0.1272 -0.3227  0.1014
36546W        W79599  33.156  28.996  27.076  0.1084 -0.0127  0.0459
36547W        W79600  31.582  18.046  16.447  0.1463  0.0245  0.0615
36548W        W79601  32.692  21.928   5.371 -0.2524  0.1497  0.1030
36549W        W79602  25.050  19.023  24.307  0.1843 -0.1714  0.1420
36550W        W79603   0.730  31.463   5.492  0.0555  0.0626  0.0617
36551W        W79604   8.046  21.667  15.636 -0.1419 -0.1640 -0.0538
36552W        W79605  28.251  13.266   4.301  0.1177 -0.0907 -0.0900
36553W        W79606  33.862  20.933   3.355  0.0824  0.2031  0.2329
36554W        W79607  11.021  30.567   6.324 -0.2907  0.0806 -0.0450
36555W        W79608   3.642  25.042   2.533  0.0006 -0.1603 -0.1034
36556W        W79609   1.027   3.326   6.623 -0.0677 -0.0328  0.0211
36557W        W79610  24.184  22.059   7.497  0.1449 -0.0134  0.0756
36558W        W79611  31.776  25.793   9.714 -0.0551  0.2721  0.2656
36559W        W79612  34.355   1.351  10.117  0.0230  0.0186  0.0051
36560W        W79613  19.208   0.922  26.793 -0.0152 -0.2513 -0.1770
36561W        W79614   7.592  11.227  27.536 -0.0629  0.0218  0.0508
36562W        W79615  27.456  19.273  27.073  0.4590  0.0703 -0.5162
36563W        W79616  17.177  24.607   4.897  0.1532  0.1287 -0.0687
36564W        W79617  29.418  32.199  28.294 -0.0430 -0.1928  0.2359
36565W        W79618  33.498  25.057  14.777  0.1548  0.1773  0.0553
36566W        W79619  25.586  32.996   4.022  0.0537  0.0020 -0.2404
36567W        W79620  27.779  23.480  27.814 -0.0045  0.1133 -0.1301
36568W        W79621  26.732  23.263   3.459  0.2126 -0.1923 -0.0963
36569W        W79622  16.957  30.205   3.460  0.1316 -0.0743 -0.0520
36570W        W79623  26.555  14.191   5.596  0.2284 -0.2476 -0.3210
36571W        W79624  17.366  23.866   9.571 -0.0312 -0.1977 -0.0354
36572W        W79625  16.870  29.011  21.660 -0.0907 -0.0592 -0.1703
36573W        W79626  31.159  18.754   9.683 -0.1577 -0.1149 -0.0996
36574W        W79627  19.794  30.881   3.185  0.2096 -0.1624  0.0739
36575W        W79628  31.485  31.269   3.411 -0.1769  0.1173 -0.0740
36576W        W79629   0.252  16.213   8.200  0.2124  0.5792 -0.1171
36577W        W79630  11.777  30.564  26.016  0.0414 -0.1128 -0.1360
36578W        W79631  24.726   6.739   7.028  0.0385  0.2124  0.0380
36579W        W79632  28.841   2.031  20.073 -0.1188  0.2100 -0.2993
36580W        W79633  21.001  20.314   5.482 -0.2638 -0.0157 -0.1132
36581W        W79634   7.710   8.762   1.592  0.0557 -0.2714 -0.1875
36582W        W79635  32.212  19.591  18.104  0.1256 -0.1115 -0.0901
36583W        W79636  18.288  26.303   2.283 -0.3880 -0.1248  0.2568
36584W        W79637  28.524  29.100   9.196 -0.1882 -0.3158  0.3477
36585W        W79638  23.634  22.688  15.602  0.1715 -0.2378 -0.0725
36586W        W79639  20.443   8.055  28.410 -0.1646 -0.0882 -0.1127
36587W        W79640  33.844   7.654  24.095  0.0075  0.0304  0.0581
36588W        W79641  22.697  32.388  10.914 -0.0579  0.1547  0.1416
36589W        W79642  24.842  23.564   2.587 -0.2605  0.0671 -0.1786
36590W        W79643  30.872   9.608  14.769 -0.2040  0.2910  0.1430
36591W        W79644  24.991   3.880  22.003 -0.1109 -0.0023 -0.1480
36592W        W79645  11.117  27.516   1.039  0.1440  0.2052 -0.1945
36593W        W79646  13.504   8.984   5.388 -0.0460 -0.3244  0.1561
36594W        W79647  11.615  12.331   6.196  0.2538 -0.0714  0.1974
36595W        W79648  28.299  19.461   5.074  0.0327  0.0511 -0.0070
36596W        W79649   3.649  11.111  27.851 -0.2446 -0.1512  0.1572
36597W        W79650  21.107  19.463   4.209  0.3869 -0.2902  0.1160
36598W        W79651  29.517  15.655  17.884  0.1934 -0.1621  0.0255
36599W        W79652  23.805  20.892   0.969 -0.1489  0.0939  0.0376
36600W        W79653  30.515   6.160  25.088  0.3208  0.2451  0.1577
36601W        W79654   0.742  19.350  18.368  0.0073  0.1190  0.1364
36602W        W79655  25.968  18.990   7.544 -0.0507  0.0522  0.0987
36603W        W79656   0.872  17.150   7.223 -0.0100  0.0047  0.0580
36604W        W79657  33.726   5.498  24.711 -0.2658  0.1095 -0.2444
36605W        W79658  33.049  24.610  22.160  0.2974  0.0177  0.2517
36606W        W79659  12.456  20.887   8.685 -0.1310  0.2210  0.1400
36607W        W79660  24.977  27.754  24.483 -0.0187 -0.1947 -0.1400
36608W        W79661  32.715  17.605  27.791 -0.2437 -0.0876 -0.0271
36609W        W79662  29.916  11.139   4.217 -0.0089 -0.1634  0.0117
36610W        W79663  32.051  25.072   3.521 -0.0055  0.2452 -0.0195
36611W        W79664  13.382  17.631   1.225  0.0420 -0.0218 -0.0349
36612W        W79665  29.666  16.958   1.519  0.3259 -0.1112  0.1193
36613W        W79666   7.051  18.257  18.763 -0.1255  0.0730 -0.2386
36614W        W79667  30.931   3.922  18.119 -0.3470 -0.0449 -0.0990
36615W        W79668  29.669  19.398   5.157 -0.1161 -0.1187  0.2862
36616W        W79669  23.468  15.904  23.220  0.2298  0.0421  0.2080
36617W        W79670  20.751  27.436   5.812 -0.0229 -0.1025  0.1157
36618W        W79671  34.230   5.851   0.394  0.1068  0.3150 -0.1260
36619W        W79672  26.051   2.468  21.026  0.1173  0.0786 -0.4211
36620W        W79673  27.914  23.553   0.163  0.3268  0.1851 -0.1574
36621W        W79674  15.883  31.106   6.358 -0.2051 -0.1025 -0.0997
36622W        W79675  31.324  20.316   0.313  0.2865  0.1749 -0.0474
36623W        W79676   2.764  23.304   8.060 -0.4547  0.1285  0.1958
36624W        W79677   0.829   4.779  28.934  0.0866  0.2161  0.1706
36625W        W79678  23.002  19.850  15.850 -0.1262 -0.4033  0.0745
36626W        W79679  20.750  27.525   0.692 -0.2667 -0.0859  0.2076
36627W        W79680  24.404  18.794   5.304 -0.1564 -0.0171 -0.0540
36628W        W79681  28.123  28.398   0.401  0.1317  0.2057 -0.1386
36629W        W79682  21.309   1.043  21.147 -0.1087 -0.0626  0.1114
36630W        W79683  29.091  13.589  27.631  0.3455  0.1276 -0.1033
36631W        W79684   5.264  14.509   7.263  0.1248  0.0178  0.1258
36632W        W79685  33.263  33.219   0.360 -0.0470 -0.0928  0.0515
36633W        W79686   8.080  26.434  25.855 -0.0207  0.1643  0.2324
36634W        W79687  24.232  21.534   7.969  0.2231 -0.4546  0.1966
36635W        W79688  31.474  26.322   0.099 -0.1373 -0.0578 -0.0958
36636W        W79689   8.962  24.908  18.912  0.0640  0.0184 -0.1221
36637W        W79690  31.328  18.803   5.582  0.2198 -0.1451  0.2836
36638W        W79691  30.126  34.357   8.200  0.3676  0.0860 -0.0563
36639W        W79692  23.540  33.914   2.349  0.1877 -0.0196 -0.1036
36640W        W79693  15.577  18.188   7.907 -0.3402 -0.3829  0.0036
36641W        W79694  25.648  29.953  22.199 -0.0909 -0.1008  0.1852
36642W        W79695  30.630  31.725  14.302 -0.1142  0.2302  0.0588
36643W        W79696  13.600  21.756   3.462  0.0633 -0.1103  0.2660
36644W        W79697  27.419  34.531   4.168  0.0130 -0.2988 -0.0110
36645W        W79698  27.104  27.459   1.300 -0.2390 -0.0958  0.2071
36646W        W79699  14.445  27.886   0.194  0.0909  0.2788  0.1065
36647W        W79700  21.224   3.655  19.803 -0.1491 -0.0856 -0.0613
36648W        W79701   5.934   1.884  24.816  0.2314  0.2461  0.0299
36649W        W79702  22.144  20.995  10.019 -0.0454 -0.0639  0.0144
36650W        W79703  25.341   1.462   2.693  0.1551  0.1021 -0.0905
36651W        W79704  19.517   8.199   0.280 -0.3125  0.3759  0.0822
36652W        W79705  11.055  34.194   4.534  0.1385 -0.0759 -0.1971
36653W        W79706   9.748   2.249  27.566 -0.1752  0.2901  0.0390
36654W        W79707  30.615  20.826   9.611  0.2309 -0.0722 -0.1157
36655W        W79708  28.202  20.507   7.832 -0.1478 -0.0161 -0.1715
36656W        W79709  29.285  23.125  27.110 -0.1407 -0.1154  0.0521
36657W        W79710  13.311  13.544  28.433 -0.0691 -0.1428  0.0322
36658W        W79711  32.740  17.666  25.208 -0.0797  0.2450 -0.0092
36659W        W79712   2.666  33.492   9.201 -0.2524  0.3021  0.0149
36660W        W79713  28.068  12.398   4.534  0.1002 -0.5755 -0.2055
36661W        W79714  20.630   9.016   5.762  0.5092  0.0986 -0.1613
36662W        W79715  19.373  17.650   7.263 -0.1960  0.0367  0.0870
36663W        W79716  19.267   0.422  25.432 -0.1370 -0.1209  0.0678
36664W        W79717  12.541  31.014   0.344  0.3252 -0.0639  0.1318
36665W        W79718  23.021  25.875  27.586 -0.0485  0.0700  0.0375
36666W        W79719  27.993  25.826   7.448 -0.1401  0.0563 -0.0140
36667W        W79720  29.938  12.324   9.868 -0.0152  0.3535 -0.4297
36668W        W79721  20.638   2.222  21.610  0.0030 -0.2302 -0.2634
36669W        W79722   3.745   6.095  16.264  0.1157  0.0402  0.4786
36670W        W79723  27.992  12.275   3.512  0.0110  0.0209 -0.0366
36671W        W79724   1.611  25.570   1.059  0.1314  0.1545  0.1073
36672W        W79725  14.201   7.505   3.438 -0.1303 -0.1401 -0.0680
36673W        W79726  33.681  22.323  26.460 -0.0797 -0.0343  0.0590
36674W        W79727  23.762  16.251   2.362 -0.1756  0.2004  0.1842
36675W        W79728  28.849  26.961  20.619 -0.1737 -0.2257 -0.3896
36676W        W79729  24.335  22.422  28.469  0.2480  0.0215  0.2846
36677W        W79730  27.288  32.089  22.196  0.2405  0.1954 -0.3632
36678W        W79731   1.952  15.829  25.127 -0.2119 -0.1102 -0.3747
36679W        W79732   0.455  17.816   3.200 -0.0863 -0.0172  0.0097
36680W        W79733  27.853  20.960   1.301 -0.2198  0.1220 -0.0877
36681W        W79734  10.383   2.581   0.943  0.2074 -0.3050 -0.1488
36682W        W79735   0.121  23.755   4.756 -0.0361  0.1378  0.0950
36683W        W79736  32.883  29.988  24.455  0.1202 -0.0461 -0.0865
36684W        W79737   7.304  15.951  18.221 -0.2462 -0.4469 -0.1993
36685W        W79738  13.229  19.369   3.604 -0.0019  0.1776 -0.2235
36686W        W79739  24.113  18.540   9.368 -0.1677 -0.0125  0.3041
36687W        W79740   2.301   5.315   9.041 -0.3380 -0.1643 -0.2136
36688W        W79741  28.641  20.496   2.347  0.1319 -0.1487  0.1696
36689W        W79742  29.565  13.645  26.937  0.1850 -0.5104  0.0133
36690W        W79743   5.153  13.131  24.019 -0.0274  0.0682  0.1682
36691W        W79744  15.271  18.428   2.377  0.0771  0.2210  0.1748
36692W        W79745  29.491  22.225  10.154  0.0957 -0.1369 -0.1123
36693W        W79746   3.273  26.252  22.028  0.2157  0.1408  0.1015
36694W        W79747   0.173  17.978  28.201  0.0733  0.0884 -0.0866
36695W        W79748   2.217   4.231  15.766 -0.0633  0.3713 -0.1965
36696W        W79749   0.502  17.520  17.144  0.1761  0.0887 -0.1145
36697W        W79750  32.987  24.000   0.244  0.0678  0.0671 -0.0055
36698W        W79751  23.196  31.822   8.304 -0.0662 -0.1531  0.1436
36699W        W79752  13.897  20.458   7.011 -0.2444  0.1302  0.2999
36700W        W79753  28.571  25.473  28.666  0.1883 -0.1300 -0.1435
36701W        W79754  31.485   8.467   2.114 -0.6469  0.2988 -0.0715
36702W        W79755  33.205  13.134  27.268 -0.2394 -0.1894 -0.0137
36703W        W79756  20.307  31.697  16.241  0.0556 -0.0086  0.1532
36704W        W79757  24.935  20.277  27.874  0.2563  0.0620 -0.1520
36705W        W79758  17.515  22.440   3.660 -0.1193 -0.0198 -0.1958
36706W        W79759  30.985  17.478   1.869 -0.0309  0.3058  0.1042
36707W        W79760  22.077  14.507   8.096 -0.0263  0.0962  0.0268
36708W        W79761  17.758  18.731   0.598 -0.0787 -0.2623 -0.0140
36709W        W79762  30.013  23.131   2.843  0.3016 -0.0337 -0.0420
36710W        W79763  25.160   5.996   3.010 -0.0607  0.1103 -0.0072
36711W        W79764  26.068  23.467  22.855 -0.0479  0.2566 -0.1823
36712W        W79765  31.634  11.697   1.674 -0.1038  0.0513 -0.0588
36713W        W79766  21.598   1.838   4.851  0.0808 -0.0339  0.0870
36714W        W79767  20.038  22.512   6.712 -0.1030  0.2861 -0.0910
36715W        W79768  23.574  21.614   6.372  0.0792 -0.2505  0.1149
36716W        W79769  33.075  22.885   8.483 -0.4183 -0.0879 -0.0669
36717W        W79770  22.818  28.520  21.524 -0.2007  0.1037  0.1945
36718W        W79771  19.542  14.800   2.720  0.0526  0.2138 -0.0468
36719W        W79772  29.344   6.512   6.658 -0.1350  0.1483  0.0875
36720W        W79773  26.109  34.563   2.805  0.3081  0.3109 -0.2047
36721W        W79774  25.490  18.016  27.569  0.2525  0.1356  0.1003
36722W        W79775  30.102  12.946  18.160 -0.2247 -0.2077 -0.2941
36723W        W79776  24.290  34.441   7.108 -0.0683 -0.1411 -0.0892
36724W        W79777   5.916   7.918   8.639 -0.0360 -0.1774  0.1362
36725W        W79778  26.730  27.616  22.088 -0.0276  0.0038 -0.1837
36726W        W79779  12.332   2.189   4.758  0.2798 -0.2764 -0.2344
36727W        W79780  26.901  22.979  26.073  0.2070 -0.1551  0.3052
36728W        W79781  22.683  28.606  27.161  0.1614 -0.2222  0.1222
36729W        W79782  20.568  19.850   6.194 -0.0677  0.3366 -0.0183
36730W        W79783  27.596  23.646   2.168  0.0064 -0.1712  0.1931
36731W        W79784  22.767  23.731   8.261  0.2458 -0.2203 -0.0989
36732W        W79785  12.880  21.580   8.017 -0.1988 -0.2165 -0.2269
36733W        W79786  20.719  23.063   7.207 -0.0046 -0.0039  0.0226
36734W        W79787  32.119   1.359   6.336 -0.1851  0.1382 -0.0573
36735W        W79788  31.143  22.917   2.806  0.1960 -0.1181 -0.0727
36736W        W79789  28.175  28.466   8.153 -0.0219 -0.1098 -0.0775
36737W        W79790  19.481  27.182   0.555 -0.1136  0.0339 -0.1555
36738W        W79791  20.789  15.842   8.286  0.0532  0.0914  0.0708
36739W        W79792  19.139  19.299   7.806  0.1053  0.0899  0.3428
36740W        W79793  27.766  33.339   4.404  0.1238  0.0036  0.1474
36741W        W79794  27.872  29.304   6.843  0.3743  0.1038 -0.0705
36742W        W79795  29.388  32.686   5.915 -0.0936 -0.0280 -0.0216
36743W        W79796  14.637  10.953   1.314  0.3428 -0.1826 -0.1533
36744W        W79797  22.230  17.584   8.780 -0.1963 -0.1980 -0.1386
36745W        W79798  30.170  16.415   9.476 -0.1030 -0.1778 -0.2692
36746W        W79799  27.932  28.282  25.816 -0.3616 -0.0639 -0.1427
36747W        W79800   5.848  15.648  28.792  0.1470  0.0908 -0.2080
36748W        W79801  33.168  20.141   4.073  0.1068 -0.1364 -0.0419
36749W        W79802  21.443  34.634   9.763 -0.0332 -0.0204  0.2734
36750W        W79803  28.700  18.253   6.478 -0.3234  0.2502 -0.3502
36751W        W79804  27.430  26.808  24.818 -0.3107  0.0326  0.4632
36752W        W79805  11.157  33.184   3.699  0.2285  0.0212  0.3832
36753W        W79806   3.187  12.032  15.367 -0.0104  0.0108 -0.0855
36754W        W79807  30.935  18.496   8.362  0.2436 -0.1278  0.1934
36755W        W79808   2.365  24.254   7.699 -0.1147 -0.1809  0.0946
36756W        W79809  22.203   8.958   8.138 -0.3443  0.1726 -0.1809
36757W        W79810  27.618  28.974   3.652  0.3642  0.2798 -0.0234
36758W        W79811  25.515  24.259   9.366 -0.1885  0.0063 -0.3509
36759W        W79812  25.749  29.270  23.550 -0.0827  0.5366 -0.0503
36760W        W79813  18.859  22.928   7.978 -0.0337 -0.1747 -0.2173
36761W        W79814  26.900  23.668   8.073 -0.1378  0.1380 -0.0556
36762W        W79815  24.696  19.444  24.359  0.0179 -0.0355 -0.0730
36763W        W79816  10.841  15.538  25.165 -0.0149  0.0689 -0.1458
36764W        W79817  25.142  25.490  19.594 -0.1854 -0.0583  0.2692
36765W        W79818  27.740  21.808   5.865  0.1350 -0.2210  0.3783
36766W        W79819  29.510  21.828   4.437 -0.0564 -0.2149 -0.0303
36767W        W79820   4.346  19.323   7.027 -0.1805  0.2450 -0.1716
36768W        W79821  26.434  18.442   9.540 -0.4715  0.1998  0.0376
36769W        W79822  31.612  32.857   8.276 -0.1245 -0.1370 -0.3194
36770W        W79823   0.362   2.428   3.888  0.1449  0.0317  0.0289
36771W        W79824  21.047  25.548   3.931  0.1549 -0.1227  0.1518
36772W        W79825  19.414  18.907  21.787  0.0070  0.1338  0.2360
36773W        W79826  27.049   1.069  19.781 -0.0689  0.2345 -0.1253
36774W        W79827   7.719  12.716  15.705 -0.0720  0.1657 -0.3835
36775W        W79828  33.065  11.544  20.143 -0.1495  0.2470  0.2460
36776W        W79829  20.659  24.427   2.824 -0.1045  0.1335 -0.1997
36777W        W79830  19.615  22.509  28.627 -0.1372  0.0884 -0.1640
36778W        W79831  23.864  33.659  23.793  0.2981  0.0641  0.0465
36779W        W79832  11.264  22.387   4.483  0.0972  0.0085 -0.0992
36780W        W79833  19.756   1.779  21.522 -0.2179 -0.2718 -0.1302
36781W        W79834  21.796  24.349   2.271  0.1503 -0.1146  0.1201
36782W        W79835  30.382  26.606   7.398  0.3121  0.1985  0.0370
36783W        W79836   3.806   8.117  28.785 -0.0397 -0.0860 -0.2911
36784W        W79837  30.675   7.580   6.516  0.1966 -0.0534  0.0363
36785W        W79838  29.305  34.102  16.770 -0.3850  0.0180 -0.1799
36786W        W79839  12.953  30.279   3.270 -0.2522  0.0637  0.1088
36787W        W79840  34.369  31.304  14.750  0.1966 -0.0098 -0.1092
36788W        W79841  20.831  27.047   6.995 -0.0024  0.2520  0.0979
36789W        W79842  25.802  34.183   1.273 -0.0093  0.4185  0.1895
36790W        W79843   1.957  25.478  24.374  0.1354  0.2474  0.2510
36791W        W79844   1.184  15.658  25.694 -0.0233  0.0833 -0.5037
36792W        W79845  22.885  10.009   0.710 -0.0723  0.1142  0.0109
36793W        W79846  19.351  23.356   1.906 -0.3064 -0.0555 -0.0603
36794W        W79847  28.924  28.778   4.271 -0.0552  0.1171  0.3068
36795W        W79848  25.168  17.847   3.215 -0.0503  0.0238  0.1687
36796W        W79849  22.849  14.287   7.683 -0.1683  0.2466 -0.2529
36797W        W79850  23.951  32.059  16.402 -0.0177  0.0473 -0.3004
36798W        W79851  32.860  32.364   6.376 -0.0257 -0.0218 -0.0460
36799W        W79852   2.377  30.617   6.160  0.0376  0.0269  0.1673
36800W        W79853  28.063  25.919  10.284 -0.0475  0.1895  0.2206
36801W        W79854  27.310  21.510   5.711  0.0541  0.0739  0.4380
36802W        W79855  23.388  25.243  23.272  0.2207  0.1673 -0.5202
36803W        W79856  27.031   4.981   5.678  0.0543 -0.1738  0.1736
36804W        W79857   9.623   0.380   8.215  0.0678  0.2100 -0.2242
36805W        W79858  16.412  28.444   6.469 -0.0753 -0.2375  0.2235
36806W        W79859   5.269  22.591   3.399  0.0424 -0.0985 -0.0338
36807W        W79860  28.928   1.448   2.318  0.0518 -0.0520  0.0449
36808W        W79861  12.695  26.032   0.948  0.1555  0.1575 -0.0967
36809W        W79862   4.010   1.037   0.596  0.2393 -0.2187  0.0899
36810W        W79863  30.855   3.206  27.288  0.0853  0.0050  0.0461
36811W        W79864  32.805  21.771   9.410 -0.3113  0.0624  0.2062
36812W        W79865  15.948  26.638  27.338 -0.1479  0.1327 -0.3353
36813W        W79866  25.683  23.451   0.734 -0.2347  0.0744  0.2516
36814W        W79867  29.694  30.615  21.762 -0.1638 -0.0319  0.0809
36815W        W79868  14.616  28.103  27.513 -0.2466  0.0925  0.2336
36816W        W79869   5.118  21.243   2.729 -0.1022 -0.0379 -0.0522
36817W        W79870   5.894  24.691  25.784 -0.2222  0.3174 -0.1278
36818W        W79871   4.051   4.774   9.318 -0.2242  0.2463  0.1974
36819W        W79872  24.845  30.255  21.274 -0.2954  0.0401  0.2507
36820W        W79873  29.215  33.753   6.229  0.0008 -0.0381  0.1103
36821W        W79874  22.801  32.511   2.045 -0.1744  0.2445 -0.0702
36822W        W79875  26.470  18.679   7.276 -0.0518 -0.1345 -0.2616
36823W        W79876  30.010  21.632   4.730  0.2438  0.1814 -0.1148
36824W        W79877  25.638  27.524  25.483 -0.3062  0.3120  0.1751
36825W        W79878  34.567   4.301  27.308 -0.3242  0.1277 -0.0493
36826W        W79879  19.120   6.011   9.508  0.1418 -0.1047  0.1290
36827W        W79880  22.864   0.578  27.491  0.3131 -0.2796  0.3652
36828W        W79881   4.310  24.700   5.814  0.3785 -0.3875 -0.1568
36829W        W79882  29.663  11.121  21.300 -0.0486  0.1167 -0.1837
36830W        W79883  21.748  18.036   3.823  0.1284 -0.2030  0.1234
36831W        W79884  28.166  17.032  26.389 -0.3677  0.0701  0.3871
36832W        W79885   9.833  27.993  15.917  0.1021  0.1549  0.2344
36833W        W79886  32.773  28.728  20.722  0.2863 -0.0250  0.1019
36834W        W79887  26.896  22.758  22.519  0.2037 -0.2707  0.1361
36835W        W79888  24.021  26.523  16.448 -0.1502  0.4063 -0.2967
36836W        W79889  15.951  16.207   6.575  0.2143 -0.2363 -0.1574
36837W        W79890  28.792  31.278  28.820 -0.2186 -0.1268  0.0524
36838W        W79891  32.845  15.405  28.544 -0.0440  0.0643  0.0595
36839W        W79892  19.195  33.224   7.919  0.2152 -0.3789 -0.0516
36840W        W79893  21.740  22.469   9.860 -0.3034  0.1711  0.1257
36841W        W79894  17.402  29.421  22.963  0.4375  0.0872  0.2792
36842W        W79895  16.857  27.620   9.355  0.0308  0.0859 -0.0992
36843W        W79896  20.780  13.981   9.420 -0.1721  0.2464  0.3357
36844W        W79897  22.061   1.092   5.779 -0.2506  0.0482  0.3041
36845W        W79898  31.838  28.429   3.842 -0.0934 -0.3049  0.0244
36846W        W79899  24.789  15.753   1.131 -0.0923 -0.1188  0.2749
36847W        W79900  34.051  18.221  26.090  0.0208  0.0098  0.2586
36848W        W79901  14.081  21.538  22.702 -0.0211  0.3356 -0.0847
36849W        W79902  17.588  21.201  28.336 -0.2060 -0.1897 -0.2249
36850W        W79903  19.020  21.847  25.936 -0.0606  0.3131 -0.0730
36851W        W79904  32.034  20.173   8.331  0.1512 -0.1750  0.3102
36852W        W79905  22.026  16.383   0.316 -0.1597 -0.2203  0.3948
36853W        W79906  27.679  25.838   6.479 -0.3560 -0.0986 -0.3518
36854W        W79907  28.849  33.773  15.559  0.3929 -0.1925 -0.1386
36855W        W79908   1.332  14.195  26.559 -0.0155  0.0294 -0.1450
36856W        W79909  30.718  16.528   5.735  0.1505  0.0942 -0.2486
36857W        W79910  10.070  31.143   0.878  0.0262  0.1475 -0.0493
36858W        W79911  22.753  21.104  25.063  0.2472 -0.1022 -0.0734
36859W        W79912  30.527   1.840  24.143 -0.1740 -0.2410 -0.0037
36860W        W79913   6.997   8.528   4.683 -0.0311  0.1939  0.2006
36861W        W79914  20.938  27.048  26.730  0.0099 -0.1646  0.2638
36862W        W79915  30.880  31.213  27.598 -0.1232 -0.0753 -0.2363
36863W        W79916  25.730  14.168   4.564 -0.0251 -0.1531  0.1509
36864W        W79917   8.409  19.615  28.446 -0.1891 -0.0999  0.1459
36865W        W79918  17.750  23.101  18.582 -0.0974 -0.0450 -0.0608
36866W        W79919  32.085  15.323   4.359  0.0311 -0.2262 -0.0956
36867W        W79920  28.554  17.887   7.984  0.1672 -0.0353 -0.0455
36868W        W79921  14.277  23.575  17.942 -0.1029  0.2667  0.0083
36869W        W79922  19.079  21.584  18.907  0.1156  0.0951 -0.0353
36870W        W79923   0.010  26.938  28.021  0.3622  0.1729  0.3047
36871W        W79924  31.555   0.393   7.800 -0.1074 -0.0902  0.1051
36872W        W79925  31.032  26.051   1.143 -0.1463 -0.2030 -0.0857
36873W        W79926  20.864  21.336  27.882  0.0369 -0.1095 -0.2069
36874W        W79927  26.928   4.263  27.689 -0.2013  0.5299 -0.1151
36875W        W79928  14.893  11.976   0.845 -0.3603 -0.1823  0.3320
36876W        W79929  24.898  23.143   6.204  0.2719 -0.0049  0.1953
36877W        W79930   9.284  26.109  28.497  0.1757  0.0122 -0.0042
36878W        W79931  22.381  18.785  14.452  0.1710 -0.0464 -0.0670
36879W        W79932  17.676   2.735  28.881  0.4303  0.0851 -0.0469
36880W        W79933  33.561  22.702   0.597  0.2250  0.0447  0.0509
36881W        W79934  19.434   6.106   0.063 -0.0132  0.0449  0.2189
36882W        W79935  25.286  25.321  10.170  0.0849  0.0025  0.1438
36883W        W79936  25.522  28.358   7.329 -0.1485 -0.0798  0.1555
36884W        W79937  33.488  22.476   4.631  0.1256 -0.3129  0.0780
36885W        W79938   7.490  14.072  28.336 -0.0102 -0.2089 -0.2532
36886W        W79939   5.693  27.090  28.849 -0.0453 -0.1473  0.0497
36887W        W79940  30.180  30.040  28.365 -0.0787 -0.2909 -0.0055
36888W        W79941  27.661  24.944   2.336 -0.0095  0.0098  0.0606
36889W        W79942  21.809  21.829   7.277  0.3767  0.4379  0.1648
36890W        W79943  33.252  19.070  25.799  0.1457  0.1921 -0.1708
36891W        W79944  30.822  15.897   3.434 -0.1648  0.0600 -0.4820
36892W        W79945  21.519  15.237  27.523 -0.0212 -0.2715  0.0200
36893W        W79946  29.248  19.686   9.727 -0.2647 -0.0195  0.0033
36894W        W79947  33.300  12.722  10.182 -0.1094 -0.1722 -0.0654
36895W        W79948  18.242  20.285   1.345  0.0102 -0.2250 -0.2401
36896W        W79949  24.769  23.557  10.338  0.1486 -0.0756 -0.0408
36897W        W79950  30.624  27.935   0.270 -0.1594 -0.0932  0.3386
36898W        W79951  30.344  31.123   1.004 -0.0224 -0.3667  0.0115
36899W        W79952  12.527  34.026  23.787  0.4035  0.0898 -0.0102
36900W        W79953   7.517  25.320  27.552  0.0032 -0.1987 -0.2242
36901W        W79954   2.305  15.995   3.658  0.0479 -0.0172  0.1468
36902W        W79955   3.335  30.078  25.667 -0.1999 -0.1941 -0.2144
36903W        W79956  28.350  33.575  16.532  0.1312  0.0141  0.1737
36904W        W79957   2.551  19.745   8.242 -0.3221  0.1222 -0.5377
36905W        W79958  18.708  17.788   9.846 -0.2364  0.1563  0.1709
36906W        W79959  29.005  24.997  28.010  0.1819 -0.1473 -0.0071
36907W        W79960  24.717  32.265   9.669 -0.2305  0.0307  0.0621
36908W        W79961  24.358   6.727  18.902  0.4275  0.0279  0.0904
36909W        W79962  16.626  29.998   6.150  0.0902 -0.1018 -0.0500
36910W        W79963  29.938   5.331   0.827 -0.1056 -0.1470 -0.1175
36911W        W79964  15.562  29.806   9.998 -0.0639  0.2350 -0.1974
36912W        W79965  10.560   3.923  10.329  0.1685 -0.1456 -0.0386
36913W        W79966  10.233   7.601   2.772  0.2900 -0.1628  0.2552
36914W        W79967  28.433  13.453  27.052 -0.1358 -0.3007  0.5729
36915W        W79968  27.402  22.415  26.387 -0.0839  0.2347 -0.1382
36916W        W79969  21.070  18.182   0.827 -0.0993 -0.0247 -0.0053
36917W        W79970   3.144  17.942   6.023 -0.4825  0.0320 -0.1712
36918W        W79971  18.963   8.432  23.291 -0.1297  0.1038 -0.1996
36919W        W79972  10.751  24.449  28.706  0.1339 -0.4387 -0.0435
36920W        W79973  25.739   9.645   4.759  0.1971  0.0930 -0.0011
36921W        W79974  18.556  30.057   2.522 -0.1561 -0.1087  0.0851
36922W        W79975  27.863  17.637  15.182 -0.0370  0.1303  0.0454
36923W        W79976  23.648  11.675  23.680 -0.1767 -0.0652 -0.0304
36924W        W79977  14.014  27.446  28.728 -0.0638 -0.0701  0.1875
36925W        W79978  20.942  12.727  27.357 -0.1121  0.1916 -0.2976
36926W        W79979  28.454  27.672   6.145  0.1416  0.6326 -0.0725
36927W        W79980   0.762  25.630   5.243 -0.4532 -0.0569 -0.2034
36928W        W79981  32.309  16.707   3.462  0.0305  0.7055 -0.1269
36929W        W79982  31.210  30.032   7.547 -0.1225 -0.1860 -0.0992
36930W        W79983   3.061  14.190  24.763  0.1974  0.0846 -0.0513
36931W        W79984   8.248  28.048   6.177 -0.2457 -0.0570 -0.2270
36932W        W79985  28.662  22.797   6.103  0.3414  0.0892 -0.1591
36933W        W79986  12.246  13.112   7.618  0.1713 -0.0294 -0.0772
36934W        W79987  26.204  26.624  27.848  0.0639  0.1559  0.3582
36935W        W79988  31.470  20.410   5.250  0.1853 -0.2467 -0.2799
36936W        W79989  17.822  19.912  26.916  0.2328 -0.2745  0.1176
36937W        W79990  21.562  23.688   8.783  0.1233 -0.0362 -0.3354
36938W        W79991   8.380  25.266  25.109  0.0704  0.0634 -0.0257
36939W        W79992  29.652  31.511  19.809  0.0450  0.0501 -0.1823
36940W        W79993   3.197  31.300   7.091  0.2296 -0.3344 -0.1377
36941W        W79994   2.386  18.023   6.543 -0.2457  0.2543  0.1272
36942W        W79995  27.434  34.028  10.461 -0.4098  0.0849  0.1682
36943W        W79996  29.983  14.901   6.718  0.0544  0.2887 -0.0742
36944W        W79997  34.106  21.507   1.126 -0.1997  0.2352 -0.1613
36945W        W79998   5.982  28.507  22.159 -0.0899  0.0140  0.0768
36946W        W79999  25.124  20.578   5.459  0.2298  0.2064 -0.0575
36947W        W80000  15.342  24.206   7.688 -0.0788 -0.3728  0.0231
36948W        W80001  21.356  12.517  10.288  0.1693  0.1575  0.1505
36949W        W80002  24.641   5.343   2.426 -0.1108  0.0257 -0.1218
36950W        W80003  31.687  30.698  14.045  0.0599 -0.0994  0.2281
36951W        W80004  20.670  21.009   6.054 -0.0710 -0.2190 -0.1533
36952W        W80005  12.631  12.999  25.139 -0.0818  0.1288  0.0703
36953W        W80006  28.938  12.131   9.307 -0.0668  0.0606 -0.2428
36954W        W80007  34.630  14.120   8.245  0.2140  0.3194 -0.1258
36955W        W80008  29.674   7.556   7.622  0.0007 -0.2904 -0.0079
36956W        W80009  26.784  12.999  27.508 -0.0999  0.0316 -0.0573
36957W        W80010  17.384  34.200   8.209 -0.1301 -0.1591 -0.2528
36958W        W80011   0.956  20.836   7.073  0.1905  0.2332 -0.1716
36959W        W80012  23.109  21.390  25.605 -0.2165 -0.0265 -0.1865
36960W        W80013  32.579  24.425   3.164  0.0575  0.0433  0.1146
36961W        W80014   3.665  21.704  26.574 -0.0054 -0.2485  0.0723
36962W        W80015  33.662   1.113   0.490 -0.1632  0.2450  0.1146
36963W        W80016  23.014  30.956  25.429 -0.1448  0.1789  0.0436
36964W        W80017  27.802  21.859   1.978  0.1887  0.0472  0.2562
36965W        W80018   6.708  17.004   2.151  0.2163  0.0540 -0.0732
36966W        W80019   7.287   6.819   9.857  0.2397  0.1538 -0.0323
36967W        W80020  19.248  33.776  27.544 -0.1697  0.1088  0.0994
36968W        W80021  15.854  29.480  17.477  0.3198  0.2160 -0.1735
36969W        W80022  24.418  12.257   2.821  0.0990 -0.3458 -0.2965
36970W        W80023  15.074  17.783   0.403 -0.0841  0.0485  0.1140
36971W        W80024  32.405  28.877   1.126  0.1453  0.1540 -0.0555
36972W        W80025  26.742  23.050   9.238  0.3220 -0.1960  0.0822
36973W        W80026  13.963  12.454   4.449  0.0057  0.0833 -0.2557
36974W        W80027  20.237  27.758  18.493  0.0021  0.0529 -0.0384
36975W        W80028  31.321  11.541   8.202 -0.1781 -0.0374 -0.0460
36976W        W80029   1.924   8.702   3.559 -0.0007  0.0868 -0.1504
36977W        W80030  27.915  29.912  22.659  0.1727  0.1875 -0.0626
36978W        W80031   3.178  25.523  20.003  0.5410 -0.1631  0.1609
36979W        W80032  22.388  22.582  22.766 -0.0253 -0.0851  0.0553
36980W        W80033  32.469  23.389   3.247  0.1978  0.0537  0.0799
36981W        W80034   6.146   3.304  22.966  0.3624  0.4495  0.0063
36982W        W80035   2.362  24.548  18.776  0.0546 -0.0369  0.0166
36983W        W80036  27.090   6.170   6.046  0.0774  0.3676  0.2751
36984W        W80037  17.296  26.731   7.850  0.0498  0.0934 -0.1577
36985W        W80038   1.396  23.427  22.978  0.0098  0.0984  0.0953
36986W        W80039  30.899  25.936   1.881  0.0532  0.1506  0.0576
36987W        W80040   7.602  19.714  21.811  0.1919  0.0521 -0.0618
36988W        W80041  32.018   4.045   5.491 -0.0541 -0.4518  0.2013
36989W        W80042  24.583  33.514  25.960 -0.2075  0.0412 -0.0631
36990W        W80043  29.803  24.969   8.462  0.0794  0.1450  0.3471
36991W        W80044  23.770  30.919   1.240 -0.0553 -0.0376  0.1858
36992W        W80045  29.663  19.264   0.761 -0.0559 -0.1814  0.0089
36993W        W80046  28.456  17.685   2.087  0.1715 -0.0950 -0.2097
36994W        W80047  28.758  26.199  26.619 -0.0291 -0.2174  0.1887
36995W        W80048  15.259  16.461   5.715 -0.0524  0.0207 -0.0417
36996W        W80049  20.624  33.926  24.628 -0.1978 -0.2812  0.0017
36997W        W80050  33.765  29.956   0.365  0.0787  0.3519 -0.3301
36998W        W80051  29.425  31.819   6.344  0.2128  0.2328  0.1188
36999W        W80052   5.380   9.300   2.610 -0.2338 -0.1312  0.3784
37000W        W80053  15.129  21.552  28.266 -0.1483  0.0334  0.2482
37001W        W80054  29.641   8.573  25.358 -0.3858 -0.0440  0.1843
37002W        W80055  20.829   6.429  17.436 -0.0838 -0.1890  0.3343
37003W        W80056  32.802  21.864   6.358  0.0524 -0.4355  0.0817
37004W        W80057  24.486   1.501   6.059  0.1710 -0.1034  0.2114
37005W        W80058  25.821  34.088  27.387 -0.1457  0.2812 -0.0874
37006W        W80059  24.489  21.920   8.626  0.1534 -0.1064 -0.1282
37007W        W80060  20.126  12.711  28.233 -0.0238 -0.3150  0.3361
37008W        W80061   5.311  14.251  27.956 -0.0341  0.0768  0.1200
37009W        W80062  21.684  25.674   4.985  0.0375  0.1309  0.0089
37010W        W80063  20.773   3.455   9.337 -0.3297  0.0342 -0.2022
37011W        W80064  27.946  30.800  20.309 -0.0047  0.2242 -0.0938
37012W        W80065   7.458  33.854   4.564  0.1607  0.0080 -0.2101
37013W        W80066   4.061  29.014   3.531  0.0438 -0.1369 -0.2095
37014W        W80067  32.056  32.922  24.901  0.0914  0.1239  0.1151
37015W        W80068  16.983  25.942  25.855  0.0286  0.1663  0.1964
37016W        W80069  23.645  23.294  28.411  0.0835 -0.1440 -0.1875
37017W        W80070  25.970  16.275  27.042  0.0812  0.2272 -0.1768
37018W        W80071  19.301  19.155  23.893 -0.2608  0.1957 -0.0625
37019W        W80072   0.034  17.786   8.291 -0.2240 -0.1493 -0.0853
37020W        W80073  12.963  20.559   3.096  0.1775 -0.3109 -0.1135
37021W        W80074  31.558  23.257  27.830  0.1049 -0.1534 -0.2540
37022W        W80075  20.057  16.801  23.793  0.2246 -0.2218 -0.0058
37023W        W80076  19.669  15.564   6.046 -0.0573 -0.0285  0.2534
37024W        W80077   5.875  31.448   1.548 -0.3853  0.1360  0.0545
37025W        W80078  27.872  26.907   0.249 -0.1645  0.2032 -0.0556
37026W        W80079  24.189  22.911   8.772 -0.2381  0.4431 -0.2009
37027W        W80080  29.783   6.585   8.372 -0.1285 -0.0440  0.0710
37028W        W80081  11.678  18.944   2.551 -0.0251 -0.0574  0.2141
37029W        W80082  13.287  10.273  26.642  0.2465  0.2752 -0.2365
37030W        W80083  16.355  12.461  20.969  0.0618 -0.0746 -0.0215
37031W        W80084  13.668  25.656   8.906 -0.0470 -0.2473  0.1431
37032W        W80085   8.257  29.109   7.398  0.2801  0.1735 -0.1702
37033W        W80086  19.644  25.101   9.164  0.0072 -0.2812 -0.0367
37034W        W80087  26.649  20.568  25.769 -0.1311 -0.1117  0.1041
37035W        W80088  24.491   2.844  27.693 -0.0696 -0.1043  0.0911
37036W        W80089  27.210  31.909  25.205 -0.1513  0.3913 -0.2557
37037W        W80090  14.705  27.033   8.521  0.1461 -0.0385  0.0347
37038W        W80091  12.001  16.571   8.711 -0.1585  0.0171 -0.3453
37039W        W80092   0.702  29.306   0.450  0.3403 -0.2151 -0.1015
37040W        W80093   9.878  21.740  25.221 -0.0036 -0.0680 -0.2402
37041W        W80094  26.422  22.085   1.868 -0.0840  0.1253 -0.2694
37042W        W80095  34.019  26.774   1.099  0.0862 -0.0421  0.2318
37043W        W80096  19.332  16.975  24.871 -0.1588  0.2366  0.0593
37044W        W80097   0.740  16.300   5.270  0.1748 -0.1398  0.2625
37045W        W80098  26.126  15.669   9.400  0.1662 -0.0332 -0.0014
37046W        W80099   7.683  29.600   5.400 -0.2556 -0.1291 -0.0832
37047W        W80100  15.983   2.401   9.959 -0.1083  0.0422  0.1609
37048W        W80101  17.325  18.241   5.218  0.0219  0.1975 -0.2620
37049W        W80102  32.608  18.102   8.755 -0.1438 -0.1929 -0.2168
37050W        W80103   0.138  32.570  23.572 -0.0615  0.1134  0.3073
37051W        W80104   3.725  24.057  16.095 -0.0651 -0.1230 -0.1752
37052W        W80105   6.540  26.122   6.511 -0.0941 -0.2493 -0.2967
37053W        W80106   1.769  25.764  27.272 -0.1153  0.3178  0.0476
37054W        W80107  26.519  15.138  24.631  0.2692  0.3786  0.0084
37055W        W80108  24.207  30.517  10.108  0.3181 -0.2589 -0.2418
37056W        W80109   6.995  24.888  15.018  0.0245 -0.0035  0.2266
37057W        W80110  33.491  10.039  25.197  0.1477  0.1648  0.0254
37058W        W80111  32.672  23.846   4.049 -0.1606  0.3467  0.1401
37059W        W80112   7.357   5.743   7.283  0.0838  0.1396 -0.2569
37060W        W80113   1.229  23.441  29.196  0.1469 -0.0800  0.1402
37061W        W80114  22.706  29.646   8.992 -0.0640 -0.1254 -0.1820
37062W        W80115  16.962  22.816   0.758 -0.1598  0.0942  0.0180
37063W        W80116  26.789   4.210  20.881 -0.2870 -0.1573 -0.0326
37064W        W80117  27.939  19.161   4.891 -0.2703  0.1417 -0.2485
37065W        W80118   3.340  26.649  28.020  0.4201 -0.2667  0.1090
37066W        W80119  16.959  23.983   4.723 -0.0793 -0.0798  0.0205
37067W        W80120  32.531  33.238  28.331 -0.0196 -0.2465 -0.0741
37068W        W80121  10.441  25.102  28.703  0.2887  0.0552  0.0222
37069W        W80122  33.317   4.478  23.759  0.1375 -0.3623  0.2940
37070W        W80123  26.965  10.171   2.921  0.4203  0.1230 -0.3002
37071W        W80124  28.698  22.688  28.629 -0.2358  0.1034 -0.1085
37072W        W80125   5.983  20.074  28.743 -0.1438  0.0263  0.0342
37073W        W80126  27.745  13.719   3.394 -0.6890  0.2008  0.0066
37074W        W80127  32.849  30.840   3.946 -0.1225  0.2508  0.2270
37075W        W80128  31.563  30.604   1.542  0.0042  0.1054 -0.0241
37076W        W80129  10.259  16.664   0.261  0.3277 -0.0071 -0.1423
37077W        W80130   5.031  21.511  22.451 -0.0131 -0.1222 -0.2699
37078W        W80131  25.825  17.078   6.900 -0.1159  0.1178  0.2677
37079W        W80132  15.841   5.407   1.277  0.0645  0.0051 -0.4063
37080W        W80133  32.069  27.119  18.329  0.0798 -0.0378  0.1891
37081W        W80134  24.813  26.945   0.404  0.0089 -0.0037  0.0891
37082W        W80135  13.949  18.367  28.357  0.1764  0.0062  0.0212
37083W        W80136   3.910   1.962  14.230  0.2063  0.0499 -0.0651
37084W        W80137  20.888  23.198  26.382 -0.2260 -0.0582  0.1728
37085W        W80138  24.388  23.878   8.573  0.0783  0.0222  0.0315
37086W        W80139  21.029  24.276   0.045  0.2524 -0.0891 -0.2636
37087W        W80140  25.383  20.921   1.686 -0.0805  0.0424 -0.2649
37088W        W80141  10.989  30.869   5.659  0.2320 -0.1692  0.0946
37089W        W80142  21.533  11.050  24.328 -0.0064  0.2572  0.2237
37090W        W80143  34.226  20.772   2.858 -0.0595 -0.0385 -0.3804
37091W        W80144  23.441  23.755   6.194  0.2792 -0.1130 -0.1206
37092W        W80145  23.030  33.805   4.494 -0.1217  0.0357 -0.1559
37093W        W80146  13.248  23.712   0.499 -0.1016  0.2099 -0.1293
37094W        W80147  16.501  20.604   2.082 -0.0136  0.0741 -0.2229
37095W        W80148  21.478  16.331   6.573 -0.1504  0.0896 -0.1278
37096W        W80149  29.300   4.104   4.333  0.0365 -0.1888  0.0877
37097W        W80150  32.480  30.720  26.121  0.1640 -0.0521  0.1315
37098W        W80151  20.232  31.072  28.395  0.3050  0.4164 -0.2002
37099W        W80152   1.415   7.831   7.073 -0.0802  0.4013 -0.0642
37100W        W80153  28.775  12.806   4.158 -0.0569 -0.0974 -0.0748
37101W        W80154  27.593  26.763  26.032  0.1509  0.2215  0.0964
37102W        W80155  17.139  21.420   0.407 -0.1032  0.0797  0.2830
37103W        W80156  25.546   4.905  26.151 -0.1340 -0.2424 -0.3469
37104W        W80157  20.202  20.915   7.360  0.1974  0.0866 -0.0568
37105W        W80158  19.944   1.477   4.811 -0.0236 -0.0207  0.0226
37106W        W80159  27.711  24.500   8.536 -0.2984  0.2718  0.0094
37107W        W80160  32.730   8.137   2.457  0.0331  0.0027  0.0291
37108W        W80161  30.835  18.894  27.261 -0.1441  0.0548 -0.0850
37109W        W80162  22.422   9.916   0.557 -0.0600 -0.0706 -0.1649
37110W        W80163  23.292  24.396  10.513 -0.0364  0.1538 -0.0551
37111W        W80164  22.825  11.560   8.966 -0.2833 -0.1457 -0.2410
37112W        W80165   5.008  18.546  25.409 -0.4251 -0.1378  0.3015
37113W        W80166   5.418  31.543   2.296  0.3042 -0.0491  0.1962
37114W        W80167  25.275  20.693   4.139 -0.0479  0.0789 -0.0610
37115W        W80168   7.461   9.821  19.548  0.1684  0.0583  0.1773
37116W        W80169   1.284  28.938  19.050  0.0885  0.0564 -0.3267
37117W        W80170  23.672  14.101   8.034 -0.1303 -0.2075 -0.3364
37118W        W80171  28.648  16.625   7.274  0.1870  0.2139  0.1891
37119W        W80172  22.615  28.656   6.239  0.0812 -0.2269 -0.2939
37120W        W80173  28.808  31.493   6.985  0.0676 -0.1934  0.1426
37121W        W80174  16.263  24.176   9.369 -0.1777  0.2548 -0.0803
37122W        W80175  26.110  27.597   6.382 -0.1071  0.2713  0.1070
37123W        W80176  19.685   3.867  24.450  0.4150  0.1603 -0.0294
37124W        W80177   8.432  31.577  23.512 -0.0056 -0.0950  0.1024
37125W        W80178  27.364  30.818   6.407 -0.2093 -0.1711  0.0293
37126W        W80179  14.971  24.850   8.438  0.0777  0.4416  0.0123
37127W        W80180  16.538  19.381   3.696  0.2911  0.3618  0.1648
37128W        W80181   1.297  26.300   5.632  0.0667 -0.1896  0.0887
37129W        W80182  25.686  20.414   4.135 -0.0703 -0.2653 -0.2710
37130W        W80183  18.816  27.586   9.286 -0.2263 -0.0266  0.0799
37131W        W80184  26.831   5.800   1.798 -0.1410 -0.1426 -0.0901
37132W        W80185  17.593  27.091   9.320 -0.0454 -0.1624 -0.2533
37133W        W80186   4.935  30.619  26.576  0.1860  0.0762  0.0513
37134W        W80187  28.686  30.503   8.196 -0.1008  0.3479 -0.4052
37135W        W80188  17.434  14.907   2.165  0.2945 -0.2450  0.2070
37136W        W80189  33.053  12.791   9.758 -0.1643 -0.0102  0.3001
37137W        W80190   9.698  26.059   7.554 -0.0272 -0.1814 -0.1700
37138W        W80191  28.577  13.216   6.228 -0.0418 -0.0440 -0.0124
37139W        W80192  31.433  21.348  22.311 -0.2239 -0.0591  0.1455
37140W        W80193  23.005  10.273   1.139  0.2181 -0.0340  0.1289
37141W        W80194  28.224  18.826   8.178 -0.2391  0.0997 -0.3963
37142W        W80195  11.522  21.314   3.850  0.1692 -0.3643 -0.0609
37143W        W80196   8.675  18.812   7.988  0.1315 -0.1382 -0.0510
37144W        W80197  32.018  19.781   3.474  0.2184  0.1057 -0.0458
37145W        W80198  20.528  16.957   9.117 -0.2292 -0.0602 -0.0382
37146W        W80199  34.633  26.410   6.579  0.0766 -0.2298 -0.2608
37147W        W80200  32.527  11.189   1.492 -0.2376  0.3108 -0.2428
37148W        W80201  12.521  31.517   8.213  0.0043 -0.2335 -0.0718
37149W        W80202  13.001   6.856   2.815 -0.2119 -0.2044 -0.0657
37150W        W80203  32.449  24.521   9.370  0.0360  0.0029 -0.0713
37151W        W80204   5.581  17.806   4.210  0.2959  0.0342  0.1093
37152W        W80205  16.255  15.507   5.894 -0.2541 -0.1232 -0.0638
37153W        W80206  19.644  23.789   0.084 -0.1700 -0.2071  0.0203
37154W        W80207  17.388  19.614   0.119 -0.1794 -0.0311  0.3527
37155W        W80208  12.511  25.663  28.005  0.1482 -0.0523  0.1162
37156W        W80209  10.402  15.580  24.735  0.0858  0.1301 -0.1448
37157W        W80210  33.212  14.776  24.835  0.3166  0.0403 -0.1479
37158W        W80211  33.041  19.763   2.245 -0.2259  0.2219  0.2569
37159W        W80212  23.848  22.183   5.205 -0.0251 -0.1234  0.0058
37160W        W80213  20.043  20.390   4.513 -0.1290 -0.2329  0.1586
37161W        W80214   8.872  11.814   0.626 -0.1099  0.0330  0.1550
37162W        W80215   2.460  14.424  25.876 -0.2518  0.0080  0.2227
37163W        W80216  29.754   0.181  24.249  0.2833 -0.0665  0.0752
37164W        W80217   4.070  32.050  22.126  0.2703  0.2820  0.0577
37165W        W80218  30.908  22.180   7.270  0.0633 -0.2058 -0.0745
37166W        W80219  18.364  20.092  22.090  0.1304  0.1897 -0.1413
37167W        W80220  31.316   3.645   4.681  0.1039  0.2124  0.0595
37168W        W80221  15.838  21.231  28.403 -0.2460 -0.4969 -0.1998
37169W        W80222  28.444  11.288   2.070  0.1881 -0.1211  0.0520
37170W        W80223  25.022  12.828   0.923 -0.1949 -0.3130  0.0260
37171W        W80224  23.341  27.514   2.372 -0.0664 -0.4215 -0.1304
37172W        W80225   3.735   2.079   7.553 -0.1593  0.3176  0.3340
37173W        W80226  27.027  28.657  16.794 -0.0576  0.1098 -0.1644
37174W        W80227  27.222   3.086  13.567  0.3041  0.0872  0.3122
37175W        W80228  24.058  15.824   1.754  0.0006 -0.1115  0.1617
37176W        W80229   9.190  14.501   9.325  0.0534  0.3107  0.1852
37177W        W80230   0.199  19.578   8.261 -0.0885 -0.1021 -0.1134
37178W        W80231  25.037  29.904  26.955 -0.0413  0.2125 -0.0412
37179W        W80232  14.054   4.888   1.799  0.1003 -0.0135  0.2619
37180W        W80233   0.599  33.497   7.559 -0.0017 -0.1686  0.0057
37181W        W80234  29.272  33.250   4.829  0.0190 -0.2744  0.1587
37182W        W80235   1.301  22.184   8.800  0.0679 -0.2017 -0.1401
37183W        W80236  26.099   4.384  28.414 -0.1788 -0.0311  0.1448
37184W        W80237   5.689   3.734   8.374  0.0008  0.0079  0.1078
37185W        W80238   3.009   0.522  18.699  0.2743  0.2956 -0.0928
37186W        W80239   1.399  22.813   9.385 -0.0634  0.1587  0.1740
37187W        W80240  28.074  21.244   2.437 -0.0919 -0.0775 -0.0712
37188W        W80241  11.381  15.678  29.111  0.0997  0.3895 -0.1886
37189W        W80242  32.240  18.441   2.945 -0.3772 -0.0813  0.0946
37190W        W80243  25.131  24.395   7.366 -0.1437  0.1448  0.1690
37191W        W80244  22.567   1.933  28.547  0.2842 -0.0194  0.1532
37192W        W80245  22.323  23.799   6.227  0.1177 -0.4695 -0.1719
37193W        W80246  17.741   1.388   3.296  0.1738 -0.0507  0.1657
37194W        W80247  33.296   0.156   5.499 -0.0060  0.0649 -0.2449
37195W        W80248   1.057  19.439  27.077  0.4109  0.0990  0.0326
37196W        W80249  17.842  21.593   4.525 -0.1233  0.1919  0.2042
37197W        W80250  12.254  18.813   3.329  0.0801 -0.3372 -0.1682
37198W        W80251  16.576  17.730  28.780  0.0158  0.1024 -0.2517
37199W        W80252  23.346  28.308   8.314  0.2602 -0.0770 -0.1903
37200W        W80253  29.298  27.271   8.090  0.0443 -0.1309 -0.1056
37201W        W80254   2.239  29.889   5.007  0.2836 -0.1387  0.4101
37202W        W80255  20.047  16.980  22.743  0.0447  0.0319  0.0233
37203W        W80256  20.470  29.227   4.467 -0.0336 -0.0560 -0.1859
37204W        W80257  21.170   1.144  20.670 -0.0815 -0.0733  0.4437
37205W        W80258  12.021  19.576   3.083  0.1911  0.2095  0.2298
37206W        W80259  14.973  23.595   6.816  0.0140  0.2450  0.0468
37207W        W80260  28.091  23.029   8.269  0.1316  0.1345  0.0780
37208W        W80261   7.100  25.228  23.643  0.0156 -0.1392  0.2247
37209W        W80262  12.781  20.080  28.250  0.0054 -0.0460  0.0467
37210W        W80263  26.474  27.014   2.477 -0.1523 -0.1053  0.0861
37211W        W80264  31.176  22.302   0.040 -0.0033 -0.0444  0.0109
37212W        W80265  18.282  21.993   0.145 -0.2280  0.2519  0.0656
37213W        W80266   1.735  26.578   3.829 -0.1376 -0.1030  0.0619
37214W        W80267   5.422   1.170   3.529 -0.1120 -0.0632  0.2223
37215W        W80268  29.770  14.647   8.925 -0.2575 -0.1228  0.0788
37216W        W80269  30.420  21.012   6.080  0.2737 -0.5945 -0.3052
37217W        W80270  27.827  27.254   9.523 -0.0438  0.0255 -0.0760
37218W        W80271  21.849   2.277   9.000  0.1410  0.0900 -0.0682
37219W        W80272  20.171  25.910   9.495 -0.0627 -0.0722 -0.0370
37220W        W80273  28.965  23.017   5.564 -0.1914  0.0231  0.2435
37221W        W80274   8.141  23.316  29.160  0.0648 -0.0114 -0.3013
37222W        W80275  17.372  23.645   3.961  0.3070 -0.0729  0.1030
37223W        W80276  14.011   6.235  28.649 -0.1403 -0.1123  0.2688
37224W        W80277  18.027  22.866   1.524 -0.2032 -0.1477  0.0003
37225W        W80278  27.531   1.619   7.474 -0.0722 -0.0393 -0.3012
37226W        W80279  25.897  21.481  25.008  0.1835  0.0910  0.2318
37227W        W80280  26.595  26.332   2.980  0.1598 -0.0331 -0.1441
37228W        W80281  12.134   0.955  26.958 -0.0131  0.1001  0.0195
37229W        W80282  34.578  27.761  21.256  0.1600 -0.1870 -0.1733
37230W        W80283  21.008   1.212  16.582 -0.3697 -0.1327 -0.0271
37231W        W80284  23.554  14.459   7.585  0.1205  0.3716 -0.1063
37232W        W80285  25.233   5.327   5.354 -0.2386  0.3332 -0.2153
37233W        W80286  26.302  20.380   7.780  0.0081  0.2944  0.0165
37234W        W80287  23.224  28.283   3.906 -0.0621  0.1491  0.0381
37235W        W80288  26.525  18.899   9.032 -0.2157 -0.1420  0.1234
37236W        W80289  21.615  21.592   3.466  0.2333  0.4203  0.1769
37237W        W80290  26.762  26.811   8.155 -0.2363  0.2446 -0.0198
37238W        W80291  17.970   7.440   8.021 -0.1627 -0.0328  0.0852
37239W        W80292  19.498   1.111   6.500 -0.3432  0.4220  0.0261
37240W        W80293  28.723   1.044  23.024  0.1282  0.0104 -0.2959
37241W        W80294  19.877  20.119  14.849 -0.1353 -0.1375  0.2559
37242W        W80295  19.257  15.542   0.064  0.3602 -0.1849  0.1591
37243W        W80296  32.606  18.757   6.868 -0.1319 -0.1920 -0.0753
37244W        W80297  30.577  26.071   8.295 -0.2342  0.2534  0.2190
37245W        W80298  16.067  31.162   2.145  0.1557  0.0183 -0.1637
37246W        W80299   1.796  25.644   3.858 -0.0284  0.1052  0.0485
37247W        W80300  30.226   3.623  14.592 -0.2853 -0.0375 -0.2491
37248W        W80301  22.798  25.456  27.245 -0.0057 -0.0698  0.2307
37249W        W80302  14.720   3.828   8.495  0.0198 -0.0127  0.2605
37250W        W80303   4.575  18.433  24.764 -0.1679  0.0699 -0.3632
37251W        W80304  28.602  16.990   1.409  0.0423  0.1534 -0.0121
37252W        W80305  23.510  22.904  20.663  0.0502  0.4221  0.0730
37253W        W80306  23.331  17.976   8.196 -0.0966 -0.1459  0.0718
37254W        W80307  30.373  23.662  26.711 -0.0557 -0.0610  0.0756
37255W        W80308  29.362  14.200  28.602 -0.1352 -0.0795 -0.2259
37256W        W80309  20.031  15.729  27.617  0.0460  0.3362 -0.2360
37257W        W80310  25.345  20.233   3.875 -0.1542 -0.1889  0.2189
37258W        W80311  22.880  10.640   1.517  0.1632  0.0024 -0.4158
37259W        W80312  15.975   9.468   6.453 -0.2253  0.1068  0.0527
37260W        W80313  18.672  26.783   3.291  0.0230 -0.0689  0.3030
37261W        W80314  16.959  15.936  26.071  0.0167 -0.2298 -0.1408
37262W        W80315  13.088  20.634   0.931  0.2253 -0.5893 -0.0311
37263W        W80316  17.884  11.873   8.373 -0.0050 -0.1756  0.0043
37264W        W80317  20.675  30.884   4.965 -0.1977  0.3402 -0.0693
37265W        W80318  22.290  23.321   9.810 -0.0640 -0.1846  0.0038
37266W        W80319  28.901  23.416  28.722 -0.2836 -0.1591  0.2859
37267W        W80320  25.405  24.996   9.753  0.2665  0.0436 -0.0521
37268W        W80321   7.600  30.291  27.896 -0.0717 -0.4059  0.0956
37269W        W80322   0.436  20.184   3.225  0.1067 -0.0818 -0.0146
37270W        W80323  22.331  15.515  24.942  0.0732  0.0568 -0.2917
37271W        W80324   0.819  30.650  18.331 -0.0408 -0.2124  0.0434
37272W        W80325   1.547  31.321  24.657  0.0872  0.1548  0.0559
37273W        W80326  20.211  26.936   4.068 -0.0811  0.0443  0.1389
37274W        W80327  30.079   3.711  13.548  0.2452  0.1978  0.1501
37275W        W80328   4.434  30.168   2.421 -0.1657 -0.2846  0.2120
37276W        W80329  22.964  15.394   1.010 -0.1991 -0.2942  0.0930
37277W        W80330  17.269  30.260  21.637  0.0229  0.0140 -0.3155
37278W        W80331  29.828  17.418   3.607 -0.0076  0.2316  0.0446
37279W        W80332  33.530  21.421   0.501 -0.1028 -0.3181 -0.0110
37280W        W80333   3.448   2.455  27.448 -0.0074  0.5332 -0.2088
37281W        W80334  24.431  18.448   9.817  0.0148  0.1895  0.1006
37282W        W80335  25.096  24.449   8.930 -0.1224 -0.0643  0.1168
37283W        W80336  29.029  15.840  26.577  0.0673  0.1983  0.0371
37284W        W80337   1.571  12.666  25.663 -0.2179  0.0602 -0.2884
37285W        W80338  12.764  14.417   3.641  0.3501 -0.0949 -0.0440
37286W        W80339   9.556   4.510   8.521  0.1681 -0.0688  0.0681
37287W        W80340  27.913   8.306   9.862  0.0916 -0.2970 -0.1195
37288W        W80341  11.248   0.214  26.187 -0.0500 -0.1766  0.1020
37289W        W80342  15.917  24.778  23.456  0.2802 -0.1078 -0.1975
37290W        W80343  17.065  17.876  23.873 -0.1753  0.3035 -0.0087
37291W        W80344  17.047  23.999   9.000 -0.2465 -0.0609  0.0424
37292W        W80345  18.639  22.462   8.128  0.0288  0.2272 -0.0343
37293W        W80346  33.379  24.100   6.297 -0.1485  0.1572 -0.0378
37294W        W80347   3.381  22.996   0.199 -0.0583  0.3921 -0.5790
37295W        W80348  25.114  22.622  27.046 -0.1329  0.1627 -0.2696
37296W        W80349  14.705   9.098   8.108 -0.3730 -0.0660 -0.1162
37297W        W80350  33.602  19.348   0.957  0.0629  0.2042 -0.1063
37298W        W80351  18.146  24.168   4.701  0.1280 -0.1824 -0.2819
37299W        W80352  24.929  32.545   7.913  0.0718 -0.1431  0.1124
37300W        W80353   5.958  32.714   4.343  0.3371 -0.2607 -0.1451
37301W        W80354   2.793  28.801  25.146  0.0302  0.3624 -0.0153
37302W        W80355  31.486  16.868   5.516  0.0251  0.2112  0.3362
37303W        W80356  25.261  29.653  20.261  0.0085  0.2663  0.1615
37304W        W80357  34.147  27.165   6.882  0.1531 -0.0941 -0.0247
37305W        W80358  28.116  21.438   9.369 -0.2264  0.1900 -0.1212
37306W        W80359   0.467  11.052   6.562  0.0013 -0.0945  0.0001
37307W        W80360  23.909  22.012   9.389  0.2468 -0.1921  0.1328
37308W        W80361  24.204  32.185   9.533 -0.0095 -0.2784  0.3616
37309W        W80362   5.211  25.540  29.097 -0.1068 -0.2317  0.3612
37310W        W80363  20.278  12.295   5.045 -0.0367 -0.0343 -0.0500
37311W        W80364   6.606  27.768   1.213  0.1028 -0.2524  0.0301
37312W        W80365   0.084  27.260   5.456  0.1478  0.0452 -0.1775
37313W        W80366  20.445  25.712   1.455  0.1622 -0.1917 -0.3018
37314W        W80367  22.313   1.542   7.949 -0.2082  0.0215  0.0338
37315W        W80368  28.160  10.431   8.239  0.2454  0.3252  0.2231
37316W        W80369  26.290  27.510   8.581  0.0942 -0.1167 -0.1412
37317W        W80370  11.774  22.087  28.955  0.0938  0.2656  0.0061
37318W        W80371  22.883  28.440   6.680  0.1449 -0.0672  0.0229
37319W        W80372  23.777  19.907  20.366 -0.0564  0.3179  0.0332
37320W        W80373   5.661  29.377   7.173  0.2076 -0.1588  0.2209
37321W        W80374  30.737  30.935   8.843 -0.5252 -0.0129  0.2892
37322W        W80375  31.159   3.769   7.486 -0.0804 -0.0340 -0.2543
37323W        W80376   1.039  32.529  21.935 -0.2707 -0.1580  0.3818
37324W        W80377  26.513  15.088  26.900 -0.2402  0.2255 -0.1535
37325W        W80378   3.599  32.097  25.166  0.0985  0.1257 -0.3548
37326W        W80379  31.503  20.995   8.514 -0.3807  0.0220 -0.1075
37327W        W80380  26.675  24.843   2.712 -0.0104  0.1289  0.1257
37328W        W80381   0.131  22.480   3.286 -0.0053 -0.0285 -0.2348
37329W        W80382  33.096  22.386   3.167 -0.0094 -0.0934 -0.1613
37330W        W80383  33.745  27.755  27.680  0.0799  0.0498 -0.2041
37331W        W80384  11.106  10.993   2.335 -0.2519 -0.0531  0.1090
37332W        W80385  24.189  32.428   6.646  0.1154 -0.1525 -0.1013
37333W        W80386   5.492  22.834  22.733 -0.3619 -0.2649  0.0503
37334W        W80387  19.939  28.809   5.299  0.1711 -0.3298 -0.1780
37335W        W80388  18.386   0.818   0.685  0.2628 -0.2007 -0.3469
37336W        W80389   0.289   3.345   8.065  0.0274 -0.1527  0.3557
37337W        W80390  33.761  22.817   9.493 -0.1272  0.0958 -0.1903
37338W        W80391   2.493  25.373   3.084  0.0986  0.0445  0.0952
37339W        W80392  21.228  23.588  15.425  0.0706 -0.1384 -0.1089
37340W        W80393  30.651  21.537  28.587 -0.3903  0.0375 -0.2715
37341W        W80394  16.780  18.125   8.297 -0.0127  0.0260  0.1205
37342W        W80395   3.110  20.909   0.686 -0.0323  0.1704 -0.4739
37343W        W80396  33.567  16.028  24.496  0.1122  0.2059 -0.3280
37344W        W80397  33.711  24.421   6.049  0.2357 -0.0882  0.0488
37345W        W80398  18.847  24.359   7.226  0.1850  0.3495 -0.1898
37346W        W80399   7.438   7.524   5.532 -0.2403  0.0206  0.0815
37347W        W80400  19.206  20.412   1.362 -0.0363  0.0894  0.2001
37348W        W80401  24.159  31.276   4.969  0.4458  0.0129 -0.2336
37349W        W80402   0.975  20.794  28.733 -0.0522 -0.0912  0.1425
37350W        W80403   2.148  28.371   2.800 -0.1174  0.1848 -0.2085
37351W        W80404  32.114  26.328  27.180  0.0126  0.0845 -0.0957
37352W        W80405  10.045  23.578   2.366 -0.0994 -0.1425  0.3027
37353W        W80406  18.085  25.435  10.153  0.0503 -0.1469 -0.0037
37354W        W80407   7.559  27.084   1.845 -0.0645 -0.0663 -0.0139
37355W        W80408  21.268   6.879   9.149 -0.0115 -0.1887 -0.3009
37356W        W80409  27.070  21.611   2.463 -0.0946  0.1505  0.1230
37357W        W80410  22.986  19.397   7.358 -0.0158 -0.0914  0.2490
37358W        W80411  28.814  31.997   3.619  0.0665  0.2123  0.0185
37359W        W80412  25.864  27.844   5.066 -0.3543  0.1141 -0.0311
37360W        W80413  25.531  28.067   6.900  0.0280 -0.1594  0.2069
37361W        W80414  18.387  14.640   6.972 -0.3745 -0.2708  0.0911
37362W        W80415  18.860  27.874  20.987 -0.2387  0.1314 -0.0977
37363W        W80416  19.183  15.798   3.749 -0.1526  0.3604  0.0016
37364W        W80417  31.097  30.266   6.215  0.0774  0.1056  0.0216
37365W        W80418   5.090  24.216  28.414 -0.2628  0.0369  0.0268
37366W        W80419  29.013  11.187   9.284 -0.2168  0.0027 -0.0407
37367W        W80420  28.764  19.457   3.143  0.0609  0.0574  0.1152
37368W        W80421   0.366  17.202   7.196  0.0433  0.1380 -0.2808
37369W        W80422   8.782  20.751   4.234 -0.0234  0.4732 -0.2238
37370W        W80423  16.833  22.180  25.517 -0.0720 -0.2011  0.1771
37371W        W80424  29.467  34.222   7.200  0.2521 -0.2469 -0.1533
37372W        W80425  26.822  23.405  27.441 -0.2992  0.1800 -0.1348
37373W        W80426  25.727  20.032   1.438  0.2942 -0.1523  0.0032
37374W        W80427  27.524  22.116  23.915  0.1585 -0.2047  0.0056
37375W        W80428  21.635  34.458   3.132  0.1963  0.1044 -0.0149
37376W        W80429  21.760  23.544   2.657 -0.1761 -0.1077  0.0092
37377W        W80430  25.495   4.877  17.402 -0.2806 -0.0618 -0.2088
37378W        W80431  23.001   1.861  25.305  0.2400  0.0364  0.0441
37379W        W80432  31.383  18.076   3.264  0.0918  0.0935  0.1041
37380W        W80433  24.219  18.401   6.376  0.0271 -0.0769  0.0144
37381W        W80434  14.832  25.172   1.800 -0.1062 -0.0349  0.2957
37382W        W80435  28.797  20.161   3.773 -0.3665 -0.1816 -0.0304
37383W        W80436  27.390  17.188   8.532 -0.0285  0.2506 -0.0902
37384W        W80437  31.126   2.900   0.701  0.1214 -0.1564  0.1314
37385W        W80438  25.540  29.302   8.507  0.0216 -0.0839  0.0288
37386W        W80439  32.540  11.164   6.422 -0.0951  0.0461  0.0589
37387W        W80440  26.339  28.222   5.131  0.1325 -0.1127 -0.0719
37388W        W80441  22.336  21.107  28.849 -0.2558 -0.0982 -0.1882
37389W        W80442   2.396  32.248  28.766 -0.3131 -0.2801 -0.3431
37390W        W80443  24.802  31.543   0.093  0.0671 -0.2508  0.2049
37391W        W80444  25.095  19.181   2.760 -0.1263  0.2695  0.0747
37392W        W80445  28.871   2.110   3.226  0.1116 -0.0435  0.1774
37393W        W80446  22.595  23.733   2.586 -0.0343  0.2300  0.5256
37394W        W80447  28.555  24.719   8.110  0.2783  0.0884 -0.1023
37395W        W80448  20.191  24.409  10.770 -0.2115  0.0826  0.2163
37396W        W80449   1.437  31.354   7.091  0.0986  0.5021  0.5033
37397W        W80450  27.614  22.806   9.611  0.1166 -0.0374 -0.1571
37398W        W80451  15.381  23.033  28.411  0.2466 -0.2377  0.1599
37399W        W80452  34.370  23.386   8.453  0.2421  0.0464 -0.1888
37400W        W80453  29.447  10.430   9.469 -0.2486 -0.0018 -0.2932
37401W        W80454  27.992  19.252   8.212  0.2844 -0.1310 -0.1977
37402W        W80455  31.931  25.296  26.354 -0.2535  0.0078  0.1622
37403W        W80456  26.450  10.897   0.557 -0.0099 -0.1460 -0.0367
37404W        W80457  28.643  12.118   9.712  0.0127  0.1631  0.0497
37405W        W80458  26.104  20.941   5.232 -0.0816 -0.3020  0.3006
37406W        W80459   6.403  25.092  23.872 -0.1352 -0.0750  0.0880
37407W        W80460   4.966  12.184   5.058 -0.2495 -0.0246  0.1707
37408W        W80461  29.642  15.043   3.894  0.2970 -0.0559  0.0515
37409W        W80462  10.045  27.514   3.131  0.1294 -0.4343  0.1733
37410W        W80463  32.254  13.553   9.301  0.0975  0.0396  0.0204
37411W        W80464  16.760  16.761  29.072 -0.2398  0.2758  0.0419
37412W        W80465  23.548  21.128   7.524 -0.1365  0.1485 -0.4600
37413W        W80466  32.270  27.558   2.443  0.4605  0.0008  0.0782
37414W        W80467  20.182   2.947  27.228  0.0508  0.1715 -0.3714
37415W        W80468   0.441  13.031  24.578  0.3958  0.2760 -0.0733
37416W        W80469  17.381  10.725  19.236 -0.2945 -0.4029  0.0833
37417W        W80470  16.626  31.172   7.695  0.0404  0.0699 -0.1082
37418W        W80471  17.700   7.661  16.005  0.0792 -0.2892 -0.1307
37419W        W80472  17.722  32.743  25.188  0.1125 -0.2093 -0.0836
37420W        W80473  22.847  15.176  22.988  0.1521  0.1748  0.1022
37421W        W80474  33.940   6.474  26.816 -0.0158 -0.0080  0.2930
37422W        W80475  26.612   3.096   7.078 -0.1819  0.1251 -0.0683
37423W        W80476  33.053  19.593   6.134  0.0936  0.1803 -0.1785
37424W        W80477  31.269  12.249  24.969 -0.0827 -0.0500  0.3818
37425W        W80478  21.385   2.605  10.159 -0.1267 -0.0343  0.1220
37426W        W80479  26.902   7.480  26.127 -0.1036  0.2422  0.0713
37427W        W80480   6.964  25.310   3.773  0.1163 -0.0543  0.0567
37428W        W80481  18.461   9.997  25.465 -0.1037 -0.3825  0.0190
37429W        W80482  27.784  30.779   7.168 -0.2354  0.0671  0.0550
37430W        W80483  24.063  25.600   7.234 -0.0950 -0.2566  0.2388
37431W        W80484  30.436  10.832  21.584 -0.1282 -0.1987 -0.1230
37432W        W80485  14.119  23.726   2.373 -0.0797 -0.1053  0.2247
37433W        W80486  19.537   3.106   1.448  0.0877 -0.2645 -0.1038
37434W        W80487  24.512  24.132  23.396  0.2091 -0.2651  0.2666
37435W        W80488  29.116   1.067  19.748 -0.3257 -0.2710  0.1451
37436W        W80489   6.084  16.564  27.614  0.0259  0.0303 -0.1711
37437W        W80490  23.938  31.656   3.899  0.2399  0.1093  0.0963
37438W        W80491   3.457  18.620  14.272 -0.4876 -0.1791  0.1151
37439W        W80492  23.654  24.265   7.118  0.1404  0.2200 -0.1337
37440W        W80493  32.544  13.873  15.820 -0.0809  0.0936 -0.0647
37441W        W80494   6.318   7.712   6.907  0.1600 -0.1210 -0.1205
37442W        W80495  21.190  26.062  22.429 -0.2459 -0.0524 -0.0076
37443W        W80496  25.729   3.520  22.637 -0.0101  0.0877 -0.1218
37444W        W80497  30.570  28.387   2.951  0.0999  0.0540 -0.2523
37445W        W80498  32.020  32.466   0.068  0.1195  0.1613  0.1578
37446W        W80499  31.413   0.689  24.227 -0.0286 -0.0033  0.1541
37447W        W80500   0.054  21.411   4.358  0.0000 -0.2937 -0.0333
37448W        W80501  15.050  14.903  13.974  0.0855 -0.1289  0.0198
37449W        W80502  28.638   9.323  10.468 -0.0194  0.0993 -0.1229
37450W        W80503  11.382  16.594  10.897  0.3251 -0.2395  0.3193
37451W        W80504  21.960   8.742   7.304  0.1083 -0.5346  0.2122
37452W        W80505  25.517  21.891   7.787 -0.2343 -0.1146  0.3286
37453W        W80506  20.049   3.932  27.478  0.0250  0.0981  0.0722
37454W        W80507  14.972   6.917   8.974 -0.0444  0.3587  0.1334
37455W        W80508  24.110  14.403  24.210 -0.3122 -0.1818  0.0816
37456W        W80509  15.001   1.889   9.728  0.0795 -0.1538 -0.1009
37457W        W80510  18.017  26.577   8.346 -0.0530  0.0965 -0.1820
37458W        W80511  12.628  16.581  27.832  0.0554 -0.2138  0.1498
37459W        W80512  22.997  26.995  18.467 -0.3148  0.1254 -0.1698
37460W        W80513  21.869   6.493   2.078  0.0273 -0.1190 -0.3594
37461W        W80514  28.072  13.573  25.789  0.4580 -0.2607 -0.1076
37462W        W80515  12.166  26.485   4.906  0.0458  0.1194 -0.1751
37463W        W80516  15.063  27.878   5.828  0.1724 -0.0898  0.1759
37464W        W80517  21.312  32.915   6.281  0.0278 -0.4970  0.2288
37465W        W80518  21.951   7.565   0.906  0.0999  0.0237  0.2978
37466W        W80519  34.507  15.884   8.273  0.3955  0.1560  0.0158
37467W        W80520  28.751  20.404  29.144 -0.5060  0.2150  0.1668
37468W        W80521  20.797  23.208   6.516  0.3137  0.1117 -0.3515
37469W        W80522  11.183  23.196   2.058 -0.1897  0.0871 -0.0301
37470W        W80523  26.239   9.707  26.255  0.1410 -0.0341  0.0895
37471W        W80524  20.261  34.450  26.798 -0.0102  0.0336  0.0990
37472W        W80525  28.247  26.812  22.453  0.0184 -0.0565 -0.0586
37473W        W80526  23.869  32.160   5.014  0.0003  0.1261  0.0437
37474W        W80527  28.170  23.490   3.402 -0.2548 -0.0904 -0.0230
37475W        W80528  16.255   0.616   0.466  0.1522 -0.1220  0.2623
37476W        W80529  32.574  31.529   1.379 -0.1324 -0.2112 -0.0637
37477W        W80530  14.940  27.905   7.019  0.0554 -0.0398 -0.2214
37478W        W80531  31.538  27.072   0.574 -0.3225  0.1145 -0.0616
37479W        W80532  32.872  10.728   0.987  0.0314 -0.0944  0.2559
37480W        W80533  31.523  17.528   0.236 -0.0531 -0.0662 -0.0017
37481W        W80534   2.036   8.887  24.406 -0.2096  0.4027 -0.0383
37482W        W80535  31.447  13.608  22.843 -0.0902  0.0258  0.0110
37483W        W80536  25.476  10.312  28.822  0.0234 -0.2399  0.1868
37484W        W80537   4.179   2.789  22.589  0.1391  0.0630  0.1075
37485W        W80538   6.851  32.577   1.445 -0.3821 -0.0393 -0.1519
37486W        W80539   3.639  19.544  29.049 -0.1909 -0.1762  0.1443
37487W        W80540  13.344  25.617  22.270 -0.1467  0.0034 -0.2791
37488W        W80541  30.386  29.832  27.179  0.2212  0.2917 -0.1433
37489W        W80542  10.792   5.263   3.822  0.1030 -0.1015 -0.0144
37490W        W80543  16.197   9.908  20.840 -0.1359  0.0131  0.1045
37491W        W80544  27.569  27.291   0.067  0.0503 -0.0629 -0.1679
37492W        W80545   0.973  31.872   5.862  0.0594  0.1846 -0.0607
37493W        W80546   2.981  30.017   9.042 -0.2942 -0.3671 -0.0287
37494W        W80547   2.288   3.785   0.887  0.1914 -0.1308 -0.0837
37495W        W80548  25.563  19.808   5.265  0.0326 -0.2542 -0.1565
37496W        W80549  12.915  23.071   2.955  0.1048 -0.1691 -0.0356
37497W        W80550  31.987  11.518  18.073 -0.1872  0.2479  0.1126
37498W        W80551  31.773   1.693   9.713  0.1146  0.1002  0.2012
37499W        W80552  19.076  32.288   6.114 -0.1776 -0.1642 -0.3106
37500W        W80553  32.985  31.993   0.169  0.1028 -0.0767  0.0719
37501W        W80554  18.406  19.288  15.276 -0.1933  0.1543  0.0538
37502W        W80555  31.734   6.323   5.900  0.2204 -0.0120  0.0305
37503W        W80556  34.017  13.821  26.188 -0.0944 -0.0390  0.0858
37504W        W80557  14.161  14.057   4.011  0.0818  0.0507 -0.0896
37505W        W80558  34.062  31.839  20.536  0.0505 -0.0598  0.0904
37506W        W80559   3.159  23.762   2.600  0.0791  0.1914 -0.2700
37507W        W80560   3.823   3.554  22.855  0.2437 -0.2778  0.0307
37508W        W80561  26.984  32.309  16.065 -0.0793 -0.0737 -0.0546
37509W        W80562  34.615   1.912  28.768  0.1320  0.0763  0.1839
37510W        W80563  33.974  30.129  23.812 -0.1398  0.3046  0.1727
37511W        W80564   3.012  21.166   1.233 -0.0020  0.0244 -0.0272
37512W        W80565  26.579   5.663   2.265  0.0965  0.1778  0.1452
37513W        W80566  31.350  24.683  17.631 -0.2931  0.0856  0.1641
37514W        W80567  29.104  13.465  20.190  0.0394 -0.0196 -0.1688
37515W        W80568   5.310  25.796  15.665 -0.3552  0.0073 -0.0527
37516W        W80569   8.385  14.604   3.666  0.2588 -0.0190 -0.1724
37517W        W80570  31.371  26.706   7.471 -0.1818  0.2447 -0.1435
37518W        W80571  29.332  24.277   4.035  0.0887 -0.1292  0.2336
37519W        W80572  30.356  29.187  26.333  0.0021  0.3037  0.3270
37520W        W80573   2.814   2.064  14.634  0.0591  0.3545  0.0763
37521W        W80574  30.647  10.835  10.477  0.4159 -0.1112  0.0328
37522W        W80575  32.923  26.858  27.004  0.0438 -0.3531 -0.2933
37523W        W80576  23.100   5.990  23.900  0.1167  0.0562 -0.1884
37524W        W80577  23.881  15.756  26.113  0.2912  0.0259  0.0689
37525W        W80578  26.997  24.389   7.687  0.3181 -0.0401 -0.4514
37526W        W80579  31.209  29.304   6.221  0.1076 -0.0305 -0.2237
37527W        W80580  23.746   5.580  26.106 -0.0265  0.1183 -0.0816
37528W        W80581  28.261  17.594  25.547  0.1973  0.0109  0.0710
37529W        W80582  29.957  17.745  27.295  0.1471 -0.4961  0.0961
37530W        W80583  19.689  30.904   6.317 -0.2559  0.0381 -0.3514
37531W        W80584  18.922  17.002  24.369 -0.1322  0.0382 -0.1863
37532W        W80585  10.383  21.394   9.246 -0.1445  0.0633  0.2384
37533W        W80586  31.470  11.785  15.095 -0.2131 -0.1408  0.1174
37534W        W80587   1.879  31.074  19.557 -0.3404 -0.0181  0.1584
37535W        W80588  21.934  14.484  26.412 -0.1214 -0.0568  0.2435
37536W        W80589   1.803   1.584   0.491  0.0059 -0.2427 -0.4700
37537W        W80590  20.757  22.847  26.964  0.0528  0.0199  0.0526
37538W        W80591  15.084  32.185  21.553 -0.0379  0.1605 -0.0115
37539W        W80592   8.249  32.461  23.939  0.0263  0.2750 -0.1120
37540W        W80593  25.872  19.436   6.742 -0.1383  0.3291  0.1084
37541W        W80594  17.102  18.788   4.619 -0.0844  0.3362 -0.3277
37542W        W80595  29.622  30.796   2.850 -0.5428  0.1517 -0.1041
37543W        W80596  26.803  23.835   4.803  0.0651  0.0626 -0.1322
37544W        W80597  12.897  20.855   7.679 -0.1699  0.2070  0.2723
37545W        W80598  21.740  31.665   8.504 -0.2316 -0.2214  0.0129
37546W        W80599   0.149   0.814   9.113 -0.1900  0.2997  0.0584
37547W        W80600  12.459  25.201   4.513 -0.0940  0.1551  0.2793
37548W        W80601  24.004  27.883  24.565  0.2246  0.2907  0.0531
37549W        W80602  28.673  26.275  20.205  0.3315 -0.4365  0.1869
37550W        W80603  22.213  23.132   1.038  0.2507  0.0837 -0.1674
37551W        W80604  14.862  34.568   4.347  0.1461 -0.1836 -0.2178
37552W        W80605  19.532  16.601  22.101 -0.1324  0.4232  0.2172
37553W        W80606   3.150   1.713  13.671 -0.1621 -0.3273  0.1006
37554W        W80607  18.936  17.123   0.998  0.1113 -0.0032 -0.2377
37555W        W80608   2.345  19.222  26.865 -0.0827  0.2985  0.0524
37556W        W80609   1.337  27.831   7.269  0.2232 -0.0473  0.2739
37557W        W80610  30.512  26.971   7.779  0.1910 -0.4736 -0.4517
37558W        W80611  29.159  24.651   4.400  0.4627 -0.1582  0.1917
37559W        W80612   8.512  26.494   6.226 -0.2253  0.2560 -0.1055
37560W        W80613  13.697  32.529   5.897  0.3245  0.3722 -0.0783
37561W        W80614  12.550  10.257  15.995 -0.0689 -0.0092  0.1981
37562W        W80615   8.566  31.781  22.731  0.1260  0.0436 -0.0896
37563W        W80616  30.544   1.322  23.371 -0.1733 -0.0784 -0.4050
37564W        W80617  22.728  19.544  25.522 -0.1595  0.0101  0.1391
37565W        W80618  13.516  29.147   1.146  0.1902  0.1676  0.0233
37566W        W80619   3.744  31.801   7.804  0.2473  0.1252 -0.0303
37567W        W80620  15.105  21.002  16.769  0.1165  0.0214  0.1077
37568W        W80621  24.199  25.388  26.802 -0.1170 -0.2094  0.2156
37569W        W80622   7.334  15.897  28.693 -0.0234  0.0301 -0.2985
37570W        W80623  24.199   1.428   0.649 -0.2680  0.1981  0.3356
37571W        W80624  19.940  28.756   8.025  0.2048  0.1225  0.0943
37572W        W80625  24.059  25.163  28.616  0.3569  0.3653 -0.3852
37573W        W80626  22.183  12.950  26.776  0.2354  0.2808 -0.0776
37574W        W80627   6.181   2.174  20.494 -0.0438 -0.1339  0.0554
37575W        W80628   3.741  18.202  27.687  0.2040 -0.1415  0.1028
37576W        W80629  22.741  31.157  28.210  0.1504  0.1645 -0.1359
37577W        W80630  22.062  30.810  15.159  0.3251  0.1987  0.0813
37578W        W80631  27.049   2.537  18.552 -0.1342  0.3911  0.2273
37579W        W80632  23.887  26.942   0.982  0.2365  0.2002 -0.1487
37580W        W80633  31.205  32.585  28.455  0.2242 -0.1845  0.2488
37581W        W80634  10.069   5.211  25.001  0.0565  0.4341 -0.0580
37582W        W80635  16.991   0.457  18.446 -0.1792  0.1533 -0.3220
37583W        W80636   9.445   8.102   4.773  0.1726 -0.3071  0.2417
37584W        W80637  26.220  33.597   2.645  0.0322  0.1734 -0.1864
37585W        W80638  16.058  17.202   3.925 -0.0909  0.1760 -0.1302
37586W        W80639  18.213  22.205  27.560  0.1452 -0.0605 -0.2229
37587W        W80640   1.025  25.984   4.257 -0.0425  0.1082  0.1708
37588W        W80641  32.196  26.379   9.137  0.2265 -0.0517  0.1808
37589W        W80642  22.128   2.314   0.154 -0.4194 -0.0404 -0.0543
37590W        W80643   5.089  18.744  24.927  0.1136  0.0358 -0.0160
37591W        W80644   2.082   8.715  21.006  0.0497 -0.2525 -0.1997
37592W        W80645   8.870   5.595   3.713  0.0670 -0.2274 -0.1353
37593W        W80646  10.836  25.096   7.950  0.0547 -0.0615 -0.0520
37594W        W80647   8.953  18.298   1.960  0.0833  0.1523  0.1668
37595W        W80648  12.984  24.802   1.542  0.1589 -0.0476 -0.5794
37596W        W80649  18.721   1.002  26.579  0.0262  0.0194  0.1222
37597W        W80650  13.083  24.427   4.806  0.1261  0.0119  0.5135
37598W        W80651  24.003  24.493   9.904 -0.0318  0.2231  0.3066
37599W        W80652  15.179  34.518  16.421 -0.2247 -0.1650  0.1177
37600W        W80653  26.391   6.644   3.789 -0.1908  0.4359  0.3602
37601W        W80654  32.625  18.091   0.619 -0.2549  0.1023 -0.1784
37602W        W80655  14.519  31.147   6.907 -0.0007  0.0354  0.0334
37603W        W80656  30.546  20.919  15.560 -0.0715  0.0928 -0.2061
37604W        W80657  21.255  29.404  29.149 -0.2535  0.0627  0.1157
37605W        W80658  33.522  26.156  29.052 -0.0762 -0.0039 -0.2369
37606W        W80659  12.732   2.198  27.094 -0.1612  0.1969 -0.1927
37607W        W80660  22.603   8.696   0.194  0.3959 -0.1520 -0.4271
37608W        W80661  12.766  17.522  15.817  0.1646 -0.4650 -0.1443
37609W        W80662  23.694  20.946   2.327  0.0295 -0.0345  0.1118
37610W        W80663  26.614  29.554   2.931 -0.0474 -0.1576 -0.4251
37611W        W80664  15.804  20.980   5.223 -0.0790  0.1680 -0.0186
37612W        W80665  31.940  20.713  24.238 -0.0472  0.0183  0.0874
37613W        W80666  23.516  27.221  27.772  0.5021  0.2315  0.0208
37614W        W80667  31.583  27.758   1.873 -0.1276  0.2813 -0.2969
37615W        W80668  23.264  30.849  24.947  0.1464 -0.0579  0.0511
37616W        W80669   8.986  19.963   8.756  0.2513 -0.2305  0.1903
37617W        W80670  28.815  22.166  16.273 -0.2735 -0.2869 -0.0182
37618W        W80671  23.392  22.228   3.693 -0.1394  0.0064  0.1896
37619W        W80672  24.767  12.858  19.955  0.1791 -0.2088  0.4122
37620W        W80673  25.835  18.805   8.004 -0.0965 -0.0544  0.1464
37621W        W80674  28.593   7.407  19.539 -0.0075 -0.0410 -0.1004
37622W        W80675   4.600  31.858   5.457 -0.0533 -0.1071 -0.0584
37623W        W80676  30.602  27.402  10.139  0.2077 -0.3178 -0.1892
37624W        W80677  25.553  13.817   1.670  0.2718  0.0086 -0.1949
37625W        W80678  32.655  30.439   1.291  0.3479  0.0773  0.1126
37626W        W80679   1.724  21.186   5.411 -0.1048 -0.1413 -0.4532
37627W        W80680  18.789  27.687   3.190 -0.3069  0.0418 -0.0642
37628W        W80681   0.496  25.714  28.000  0.0522 -0.1397 -0.1950
37629W        W80682  28.611  19.382  29.162  0.2109  0.0407 -0.1377
37630W        W80683  31.989  21.586   1.043  0.0393 -0.1030  0.0447
37631W        W80684   0.296  18.233   2.175  0.2382  0.1309  0.2544
37632W        W80685  22.773  24.471  27.478 -0.1643 -0.1644 -0.0146
37633W        W80686  20.933  13.135   3.486 -0.1249 -0.0572 -0.2592
37634W        W80687  22.575  24.697  26.423 -0.0003  0.0985  0.1054
37635W        W80688  17.055   6.597   4.580  0.0740  0.3574 -0.3091
37636W        W80689  32.290  23.002  25.116 -0.0569 -0.0662  0.0241
37637W        W80690   2.970  13.068   8.528  0.1914  0.2144  0.2730
37638W        W80691  25.555   0.084   7.624  0.0132 -0.0428 -0.0728
37639W        W80692  11.113  20.331   5.660  0.2797  0.1470  0.2261
37640W        W80693  25.761   9.866  24.496  0.1833  0.0538 -0.1951
37641W        W80694  26.374  28.680   7.616  0.0882  0.0001  0.0567
37642W        W80695  17.333  12.785  10.253  0.0600  0.0054  0.0376
37643W        W80696  33.483   3.225  25.452  0.2224  0.3124  0.0453
37644W        W80697   0.442  26.073   7.513 -0.2032 -0.0801 -0.0684
37645W        W80698  15.105  30.610   8.601  0.2727 -0.1920  0.0569
37646W        W80699  26.375  15.399  24.230 -0.1258  0.2259 -0.3553
37647W        W80700  21.415  26.918   2.263 -0.0152  0.0396 -0.1497
37648W        W80701  23.875  30.836  25.007 -0.1250  0.0194 -0.1687
37649W        W80702  14.302  14.383   4.432  0.2190  0.0251  0.0092
37650W        W80703   2.482  24.565  24.123 -0.1180  0.1372 -0.3446
37651W        W80704  17.714  27.464  23.061 -0.3130  0.1672 -0.0383
37652W        W80705  15.352   3.159  28.278 -0.3393 -0.0913 -0.0988
37653W        W80706  18.407  19.792   3.925  0.0612  0.0104  0.1131
37654W        W80707  21.672  19.620   1.091  0.2450  0.1443  0.5129
37655W        W80708  23.924  15.887   5.996  0.3368  0.1718 -0.2204
37656W        W80709  23.474  19.944  18.982  0.0266 -0.1601  0.2109
37657W        W80710  29.866  18.558  20.901  0.0474 -0.1442  0.5206
37658W        W80711  19.331  22.802  28.900  0.2880 -0.0775  0.2666
37659W        W80712  28.560  14.292   7.676  0.2778  0.3213  0.0144
37660W        W80713  15.044  16.003   6.743  0.1407  0.2218  0.0499
37661W        W80714  22.610   9.040   4.396  0.0226 -0.0352 -0.3429
37662W        W80715   7.302  26.108  19.966 -0.0044  0.0376  0.0290
37663W        W80716  21.301  29.369   5.654 -0.1514 -0.0566 -0.2535
37664W        W80717  24.658  18.503  27.831 -0.0067  0.0514 -0.0796
37665W        W80718  15.027   2.605  27.033  0.3766 -0.1235  0.1617
37666W        W80719  33.440  19.725   3.982  0.0198  0.1416 -0.1033
37667W        W80720  25.157   8.175  16.798  0.4207  0.0321  0.1283
37668W        W80721  18.272  10.830  25.242 -0.0494 -0.0829  0.1324
37669W        W80722  27.628  11.869  18.111  0.1431 -0.1344 -0.3742
37670W        W80723  33.344  32.499  24.665  0.0701  0.1907 -0.1491
37671W        W80724  24.905  29.246  24.454  0.1344  0.5727  0.0738
37672W        W80725   0.048  27.586  25.478 -0.0486 -0.0717 -0.1590
37673W        W80726  17.203   5.906  27.207 -0.0188 -0.1015  0.2266
37674W        W80727   9.881  16.888  21.180  0.1585  0.0322  0.3187
37675W        W80728  27.921   3.629   0.379  0.3311  0.1461 -0.1258
37676W        W80729  31.889  33.957   8.405 -0.1581 -0.0291  0.0010
37677W        W80730  26.354  14.855   1.010  0.2086  0.0875  0.2600
37678W        W80731  19.579  20.105  10.135  0.1075 -0.2387 -0.0938
37679W        W80732   3.531   4.331  10.320  0.1479  0.0815  0.1372
37680W        W80733  32.015   2.222  22.090 -0.0144 -0.3547  0.2641
37681W        W80734  21.160   2.117   3.291 -0.2612 -0.1620  0.0761
37682W        W80735   6.640  27.306   5.940 -0.1183  0.3505 -0.3338
37683W        W80736   7.492  24.498   3.620 -0.1165 -0.0249  0.0285
37684W        W80737  20.289  17.713  27.687 -0.0196  0.0396 -0.0167
37685W        W80738  18.601  20.435  27.304 -0.2415  0.3499  0.0554
37686W        W80739   6.392  24.321  27.752 -0.1606  0.0868  0.1970
37687W        W80740  24.901  25.945  19.546 -0.0751  0.0698  0.1609
37688W        W80741  14.907  30.614   5.294 -0.0938  0.2078  0.0708
37689W        W80742  19.395   5.732  19.197  0.2214  0.0274 -0.3768
37690W        W80743  17.594  34.342   2.975  0.5642  0.4383 -0.0693
37691W        W80744  16.516   3.417  26.620  0.3827 -0.0458  0.4641
37692W        W80745  33.292  33.782  20.240  0.5641 -0.1302 -0.1954
37693W        W80746  20.911   5.066  26.009 -0.1119  0.1633 -0.4224
37694W        W80747   8.632   9.533   5.890 -0.0442 -0.0150 -0.0496
37695W        W80748  21.061  19.874  23.007  0.0316 -0.0629  0.2192
37696W        W80749  19.154   5.234   3.664  0.1186 -0.1578  0.1464
37697W        W80750  16.922  25.903   1.874 -0.0577 -0.0149  0.0693
37698W        W80751  27.746  26.387  25.756  0.0594 -0.2291 -0.2478
37699W        W80752  28.507  34.366  20.930 -0.1509 -0.0588 -0.1325
37700W        W80753  27.866  20.155   7.803  0.2053  0.0312 -0.0038
37701W        W80754  31.478  34.238  21.373  0.1828  0.0847  0.0132
37702W        W80755   6.567   5.282   8.909  0.0304 -0.2073 -0.1310
37703W        W80756  11.998  22.554  21.601 -0.3446  0.0518  0.0959
37704W        W80757  12.083  18.074  18.097  0.1852  0.2052 -0.0830
37705W        W80758  21.742   2.537  17.946 -0.1238 -0.1705  0.0479
37706W        W80759   6.062  16.095  24.620 -0.1526 -0.1020  0.2179
37707W        W80760  15.774  21.329   6.938  0.0441 -0.0912 -0.1028
37708W        W80761  19.069  16.760  27.802 -0.0863  0.1769  0.3175
37709W        W80762  31.107  16.710  23.178  0.3868 -0.1148 -0.0935
37710W        W80763   2.707  14.907  23.753 -0.0575 -0.2759  0.2884
37711W        W80764  22.892  28.432   0.544 -0.1879 -0.1849  0.1400
37712W        W80765   4.584  22.418   9.478  0.0463  0.3154  0.2271
37713W        W80766  33.841   0.308  18.191 -0.1040 -0.1493  0.0275
37714W        W80767  25.123  19.961   4.269  0.0397  0.2380  0.3164
37715W        W80768  22.670  26.614  20.690 -0.3687  0.0804 -0.0194
37716W        W80769   2.557  15.984   8.930 -0.0428 -0.0195  0.1325
37717W        W80770  29.271  22.666   2.544 -0.1880  0.0178  0.1950
37718W        W80771  29.161  23.972  28.002  0.0509 -0.1089 -0.2589
37719W        W80772  29.033  31.869   3.218 -0.0685  0.1442  0.1419
37720W        W80773  18.623  26.023  16.848 -0.0261 -0.0870 -0.0714
37721W        W80774  24.952  15.212   0.626 -0.2073 -0.0611  0.0587
37722W        W80775   6.006  21.974  24.022 -0.3632  0.1337  0.1393
37723W        W80776  11.133   7.806   1.488  0.1360  0.0607  0.0514
37724W        W80777   2.234  20.706  15.013  0.2951 -0.0250  0.1816
37725W        W80778  30.333  13.522  27.069 -0.0146 -0.0941  0.0480
37726W        W80779  24.861  22.242   1.675  0.1288  0.1124  0.1618
37727W        W80780  34.655  25.791  26.925 -0.0510 -0.2138  0.0235
37728W        W80781  28.436  31.517  17.487  0.0363  0.3588 -0.2073
37729W        W80782  20.424  24.023  10.465 -0.2925 -0.0443 -0.1072
37730W        W80783   2.681  16.575  27.967 -0.3957  0.0265  0.0428
37731W        W80784  32.116  23.786   4.796  0.1929 -0.1396 -0.3276
37732W        W80785  33.397  32.894  18.268  0.4898 -0.1912 -0.1654
37733W        W80786   9.865  20.584   3.461  0.1345 -0.3049  0.1328
37734W        W80787   2.201  20.630  17.051  0.2169 -0.0258  0.0758
37735W        W80788  19.098  34.603   1.144  0.0990 -0.1505  0.0063
37736W        W80789   2.372  15.986  25.939  0.1201 -0.3853 -0.0917
37737W        W80790  16.608   4.136   6.828  0.1674  0.0118  0.1691
37738W        W80791   4.073  11.125  17.563 -0.3691 -0.0372  0.2148
37739W        W80792   3.378  29.381   5.299 -0.0262 -0.1487 -0.4029
37740W        W80793  26.104  19.550  27.994  0.0054 -0.1333 -0.2082
37741W        W80794   4.179  24.554   4.395 -0.0154 -0.1607  0.2298
37742W        W80795  28.950  23.466   2.039  0.3878  0.0084  0.0994
37743W        W80796  21.281   1.418   0.557 -0.3276 -0.0604 -0.0538
37744W        W80797  34.516   6.916   2.912 -0.3342 -0.0745 -0.1326
37745W        W80798  28.320  21.206   3.902 -0.0282  0.0989  0.0277
37746W        W80799  15.497  25.731  29.178 -0.1271 -0.0930  0.1856
37747W        W80800   3.187  18.500   3.877 -0.1342 -0.4383 -0.0031
37748W        W80801  20.332  28.987  26.941  0.0951 -0.2806 -0.0260
37749W        W80802  17.974   8.855  23.494  0.1565  0.0932  0.2845
37750W        W80803  29.005  25.477  27.174 -0.0667 -0.1579 -0.0760
37751W        W80804  22.779  29.246   8.640  0.0279 -0.0238 -0.1207
37752W        W80805  33.021  27.250  27.626 -0.0673 -0.0982  0.1320
37753W        W80806  27.377  21.920   1.636 -0.2063  0.1640  0.0027
37754W        W80807  17.675  32.096   9.377  0.1907  0.1886 -0.2703
37755W        W80808  20.082   1.109   1.174 -0.1782  0.0287 -0.2590
37756W        W80809  11.216  23.862  25.592 -0.1224 -0.2672  0.1669
37757W        W80810  32.494   9.038  25.061  0.0272  0.0049  0.0009
37758W        W80811  17.876   4.480   1.864  0.0054 -0.2892  0.0297
37759W        W80812  32.655   6.436  22.851  0.3889  0.1337 -0.1229
37760W        W80813   0.800   1.523   6.666  0.0297  0.1963 -0.1209
37761W        W80814  26.128   5.584  26.982 -0.0822 -0.1684 -0.2372
37762W        W80815  21.011  11.286  10.851 -0.0378 -0.2043  0.0666
37763W        W80816  27.118  30.417   6.235 -0.1931  0.2738  0.0396
37764W        W80817  14.829  29.869  16.037  0.1743 -0.1147  0.2417
37765W        W80818  23.004  29.374   9.513  0.1733 -0.0612  0.1251
37766W        W80819   9.155  29.522   2.978 -0.1034 -0.0540  0.2831
37767W        W80820  15.168  29.403   2.110 -0.0334 -0.2702 -0.4258
37768W        W80821  20.623  19.384  21.978  0.0860  0.0511 -0.0725
37769W        W80822  22.806  15.018  23.831  0.3267  0.1598  0.0013
37770W        W80823   2.206  28.386  26.303 -0.1810  0.2464 -0.0127
37771W        W80824   2.188  31.554  23.782  0.1627 -0.3059  0.3031
37772W        W80825  16.827   1.628  27.030 -0.1206 -0.1007  0.0553
37773W        W80826  13.706  12.129   5.639  0.2570  0.1982 -0.2466
37774W        W80827  21.600  13.755   0.333  0.0881  0.1054 -0.1078
37775W        W80828  20.233  27.341  27.129  0.1012 -0.0904  0.1535
37776W        W80829  26.074  20.657   0.646  0.1118  0.2467 -0.3650
37777W        W80830   4.674   0.508   2.087  0.1912  0.0772 -0.2825
37778W        W80831  18.647  21.428  25.786 -0.2638 -0.0733  0.1255
37779W        W80832  23.699   2.263   7.526  0.3683 -0.1835 -0.3775
37780W        W80833  30.719  32.507  29.175  0.1550  0.4665 -0.1479
37781W        W80834  14.533  20.922   5.690  0.0996  0.0064  0.2145
37782W        W80835   1.791  22.122   1.055  0.2285  0.1976 -0.0310
37783W        W80836   9.585  16.678   4.440  0.2775  0.0316  0.0652
37784W        W80837  27.821  23.263   9.820 -0.0535 -0.0033 -0.0584
37785W        W80838  25.390  33.889   5.079  0.1674 -0.4467  0.0888
37786W        W80839  23.468  30.314   5.708 -0.0571  0.1943  0.0890
37787W        W80840  33.025  30.719  23.747  0.1583 -0.1072  0.3106
37788W        W80841  21.199  22.142  26.334 -0.2281 -0.2507 -0.1125
37789W        W80842  14.001  30.063   1.884 -0.2320 -0.1175 -0.2215
37790W        W80843   5.316  25.607   2.055 -0.3244  0.1529 -0.3541
37791W        W80844   1.231  18.827  25.565 -0.1653 -0.4095 -0.1402
37792W        W80845  26.884   8.172   7.779 -0.0093 -0.0196  0.0744
37793W        W80846  33.211   5.288   3.492 -0.0395  0.1512  0.1711
37794W        W80847  28.036  29.741   0.606  0.0364 -0.1272  0.1814
37795W        W80848   0.499   9.808  21.834  0.0392  0.2061 -0.1399
37796W        W80849  10.946  20.062   3.457 -0.1357 -0.1847 -0.2329
37797W        W80850  12.211   2.783   7.635 -0.1716  0.0852  0.0389
37798W        W80851   2.444  29.039  26.620 -0.1096  0.0563 -0.0469
37799W        W80852  26.235  31.911  25.491  0.0858  0.0362  0.0314
37800W        W80853  30.056  13.616  21.977  0.2760  0.0011  0.2546
37801W        W80854  27.112   1.120  26.304 -0.0138  0.0817 -0.1469
37802W        W80855  21.858  13.307  25.220 -0.1725 -0.0545 -0.1159
37803W        W80856  27.485  31.322   8.345 -0.1681 -0.0533  0.0928
37804W        W80857  14.668  21.897  28.460 -0.4378 -0.2244 -0.1990
37805W        W80858  25.906  17.791   8.955  0.2186 -0.0313  0.1677
37806W        W80859  22.833  25.126   1.024  0.1561 -0.1668 -0.3405
37807W        W80860  19.873  15.183  14.145  0.1301 -0.1280 -0.2020
37808W        W80861  33.899  30.576  25.767  0.1765 -0.0721 -0.1156
37809W        W80862  34.009  14.151   6.837 -0.1210 -0.1324 -0.0490
37810W        W80863  18.306   6.533   3.492 -0.0824  0.0126  0.0707
37811W        W80864   2.641  17.674   4.161  0.1470 -0.1237 -0.1481
37812W        W80865   2.985  34.215  27.738  0.1118  0.2678  0.0661
37813W        W80866  16.231  14.842  14.628 -0.2983  0.0551  0.2608
37814W        W80867  17.943  31.125   8.399  0.0210  0.0584  0.1237
37815W        W80868  33.310  26.883   3.255 -0.1496 -0.1226 -0.1177
37816W        W80869  29.311  29.215   2.838 -0.1531 -0.1714  0.0990
37817W        W80870  29.262   0.183  21.498 -0.0921  0.3342  0.0441
37818W        W80871  24.902  32.713   0.782 -0.0523  0.2560 -0.2619
37819W        W80872  22.198  22.458   5.019  0.1508 -0.1824 -0.2085
37820W        W80873  11.856  14.627   9.841 -0.0687  0.0167  0.1504
37821W        W80874  21.116  26.306   5.885  0.3883  0.1075 -0.3359
37822W        W80875  32.163  29.327  27.540  0.3204 -0.0571 -0.2213
37823W        W80876  23.919  19.715   2.058 -0.0014 -0.1975 -0.2283
37824W        W80877  16.550  24.269   1.085  0.0234 -0.1668  0.1419
37825W        W80878  29.049   3.286   5.622 -0.1672 -0.3224  0.1903
37826W        W80879  28.508  25.157  28.211  0.1658 -0.2850 -0.1781
37827W        W80880  18.524  24.368   4.432  0.4261 -0.0828  0.0210
37828W        W80881   0.101  28.348  20.226 -0.0436  0.0475 -0.0992
37829W        W80882  32.227  22.660   9.175  0.2721 -0.2037  0.1680
37830W        W80883  25.525  26.241  10.210  0.0195 -0.0535  0.1733
37831W        W80884  29.204  31.708   8.998  0.1398 -0.0829  0.1602
37832W        W80885  24.892  28.119   9.107 -0.0088 -0.3640  0.0328
37833W        W80886  16.445  24.544   6.618  0.0641 -0.2915 -0.1781
37834W        W80887  13.394  29.292  28.128  0.1534  0.0277 -0.2704
37835W        W80888  25.852  26.151  21.138 -0.0387  0.0587 -0.2661
37836W        W80889   3.594  26.638   5.893  0.2854  0.1669  0.2487
37837W        W80890  30.153   7.115  22.451 -0.0868 -0.0844 -0.1772
37838W        W80891  11.964  33.656  14.586 -0.0109 -0.0209  0.0883
37839W        W80892  12.015  34.000   9.250 -0.2520 -0.0410 -0.0828
37840W        W80893  28.796  29.592  10.324  0.2347  0.0511  0.0910
37841W        W80894   1.098  34.522   6.582  0.0225 -0.1454  0.1546
37842W        W80895  27.299  23.942  26.923  0.0178 -0.0155 -0.4978
37843W        W80896  28.706  23.847   3.196  0.2796 -0.1067 -0.2227
37844W        W80897   0.756   3.236   4.178  0.0342  0.2162 -0.0528
37845W        W80898  18.634  24.767   2.095 -0.2696 -0.2502 -0.0581
37846W        W80899   4.098   5.596  24.704  0.1841 -0.0872  0.0360
37847W        W80900  30.737  28.239   1.236 -0.0539 -0.2222 -0.1627
37848W        W80901  12.641  33.737   6.751  0.2876 -0.1052  0.0010
37849W        W80902  15.428  29.849  27.066 -0.0404  0.0830  0.0579
37850W        W80903   0.565  25.987   5.997  0.0277  0.0547  0.0805
37851W        W80904   2.692  26.898  16.531 -0.1888 -0.4444  0.1211
37852W        W80905  23.576  25.447   9.014  0.3550  0.1983 -0.0932
37853W        W80906  15.946  18.578   9.282  0.1489  0.0615  0.1700
37854W        W80907  22.249   8.814   6.564  0.1409 -0.0677 -0.2383
37855W        W80908  21.397  29.118   7.612  0.0228 -0.1900 -0.1015
37856W        W80909  22.821  18.344  27.412 -0.1119  0.0385  0.0449
37857W        W80910   0.461  25.501   2.567 -0.4113  0.3683 -0.0035
37858W        W80911  34.044  27.852  15.743  0.0268 -0.1085 -0.0448
37859W        W80912  29.370  23.217   4.064 -0.1093  0.0946  0.1561
37860W        W80913  27.221  11.366   1.884 -0.0090  0.0503 -0.1229
37861W        W80914  21.023   0.199   7.852  0.2291  0.1002 -0.0714
37862W        W80915   5.939   4.162  25.763 -0.0687  0.2448 -0.0820
37863W        W80916  33.773  31.022  22.727 -0.0180 -0.0222  0.3353
37864W        W80917  34.128   9.567  28.312 -0.1816  0.1285  0.2970
37865W        W80918  18.275   7.836  10.139 -0.1458 -0.3013  0.3401
37866W        W80919  25.954  19.649   9.390 -0.1384  0.3258  0.0467
37867W        W80920  28.460  21.441  22.681  0.1474  0.1669  0.0249
37868W        W80921   1.346   2.280   4.043  0.0774 -0.0690  0.1408
37869W        W80922  26.118  25.690   4.402 -0.0121 -0.0053  0.1431
37870W        W80923  17.914   2.149  20.586  0.0426  0.0208 -0.1562
37871W        W80924  31.549  32.603  26.857  0.0452 -0.1295  0.1410
37872W        W80925  27.113  31.914   9.336  0.0460 -0.3139  0.1895
37873W        W80926   6.723  13.834  24.980  0.1646  0.0816 -0.1035
37874W        W80927   9.168  12.143   4.890 -0.1531 -0.0867 -0.2153
37875W        W80928  23.214  27.413   9.186 -0.2039 -0.0528 -0.1055
37876W        W80929  34.422  29.290   1.757  0.1570  0.3067 -0.2797
37877W        W80930  24.183   4.018   6.250 -0.0088  0.0500 -0.0882
37878W        W80931  32.295   4.488   3.237  0.1345 -0.0637  0.0661
37879W        W80932  18.373   6.444   2.678  0.0242  0.0812  0.0397
37880W        W80933  30.467   4.710  19.228 -0.0175  0.0167  0.1251
37881W        W80934  30.434  34.288   1.265  0.0178  0.1396  0.0346
37882W        W80935  31.726  32.354   8.196 -0.3357  0.1206 -0.0594
37883W        W80936  28.764  21.410   8.264  0.0966  0.1505  0.0994
37884W        W80937  34.538  24.544   2.287  0.3574 -0.2099  0.0479
37885W        W80938  13.576  21.812  22.037 -0.0925  0.0499  0.1374
37886W        W80939  23.460  29.835   0.899  0.0764  0.3243  0.0421
37887W        W80940   0.173  24.417  21.982  0.1759 -0.2451  0.0302
37888W        W80941  26.897  25.709  20.974  0.0770 -0.3057 -0.2545
37889W        W80942  20.772   2.837   9.990 -0.2010  0.0367  0.3234
37890W        W80943  29.918   1.687  26.054 -0.0354  0.3059 -0.2094
37891W        W80944  27.956  24.486   6.297 -0.0217  0.1877 -0.0578
37892W        W80945  33.489  11.707   5.583  0.1728 -0.1138 -0.0557
37893W        W80946  15.065  23.073  25.254 -0.0075 -0.1081  0.1852
37894W        W80947  17.289  19.654  27.477  0.0332 -0.0988 -0.1985
37895W        W80948  30.892  33.484  26.220 -0.1371 -0.2263  0.2011
37896W        W80949  23.444   0.101   5.949 -0.2007  0.2722 -0.2110
37897W        W80950  22.565   9.700  10.004 -0.1003 -0.3812  0.0678
37898W        W80951  16.655  22.791   9.275  0.2540 -0.0588  0.1750
37899W        W80952  25.634  20.536   5.654  0.0201 -0.0294  0.2820
37900W        W80953  22.708  27.338   8.579 -0.0429  0.2289 -0.3579
37901W        W80954  23.598  20.662  25.203 -0.0501 -0.0241 -0.1381
37902W        W80955   3.242  22.353   9.463  0.0251 -0.1082  0.2721
37903W        W80956  32.700  24.072  26.354  0.0286 -0.1087 -0.0168
37904W        W80957   4.187   2.864   2.006  0.3022  0.0665  0.0648
37905W        W80958  29.864  24.585   5.623  0.0207 -0.1064 -0.2470
37906W        W80959   1.584  31.865  24.621 -0.0917  0.1253 -0.2605
37907W        W80960  21.068   1.280  10.962  0.2260 -0.0953 -0.0362
37908W        W80961  21.495  11.882   9.426 -0.0674  0.1401 -0.2875
37909W        W80962  20.475  27.482   0.258 -0.0174  0.0274 -0.2766
37910W        W80963   1.135   6.949  26.644  0.1410  0.3672  0.1363
37911W        W80964   3.921  15.933   6.361 -0.1605  0.3103 -0.1982
37912W        W80965  17.755  33.868   9.639  0.1205  0.0817 -0.0162
37913W        W80966  13.950  25.835   3.201 -0.1098  0.3206  0.0655
37914W        W80967   2.432  24.673  27.102 -0.0420 -0.1897  0.1126
37915W        W80968  20.884   8.073  16.738 -0.2042  0.1808  0.1752
37916W        W80969   4.193  29.410   6.853  0.0668 -0.1456 -0.1166
37917W        W80970  34.382  32.728   6.600 -0.1586  0.1403 -0.3123
37918W        W80971  28.660  25.123   6.031  0.2490  0.0722  0.1242
37919W        W80972  23.459   1.888   5.346 -0.3481 -0.0821 -0.1161
37920W        W80973  14.128  23.160   7.381 -0.0754  0.2059 -0.0562
37921W        W80974  23.144  24.042   6.399 -0.1877 -0.0549 -0.1997
37922W        W80975   4.419   9.898  25.656 -0.0117 -0.1624  0.1399
37923W        W80976   2.159  25.074   5.391  0.2106 -0.0109 -0.0067
37924W        W80977  31.421  34.155   0.801 -0.0892 -0.2022  0.2453
37925W        W80978  29.751  26.366  27.260 -0.0051  0.0886  0.1791
37926W        W80979   5.731  30.980   5.996 -0.2138 -0.1152  0.2795
37927W        W80980  29.613  11.870   7.255  0.0836 -0.2443  0.1403
37928W        W80981   2.937  27.506  28.239 -0.0552 -0.1864  0.3097
37929W        W80982  28.528  25.591  27.362  0.1667  0.1902 -0.2926
37930W        W80983  24.488   8.323  16.241  0.1449 -0.0960 -0.1917
37931W        W80984   1.786  13.922   7.873  0.1944 -0.0996  0.0926
37932W        W80985  27.224  24.064   7.938  0.0294 -0.0140 -0.1781
37933W        W80986   1.335  29.598  21.393  0.1843  0.1142 -0.0233
37934W        W80987  31.909  26.788   3.896 -0.1850 -0.4578  0.3630
37935W        W80988  30.674   1.496  27.743 -0.1310  0.1444 -0.0144
37936W        W80989  32.595  11.597  22.029 -0.1181 -0.0123 -0.3947
37937W        W80990  30.124  32.810   4.727  0.1076  0.0150  0.0559
37938W        W80991   5.601  27.273  21.271 -0.0574 -0.0035  0.2152
37939W        W80992   8.465  10.329   6.524 -0.1896 -0.2982  0.1795
37940W        W80993   4.928  26.175  25.358  0.1570  0.0795  0.3040
37941W        W80994   9.486  30.941   8.206  0.0432  0.1630 -0.1626
37942W        W80995  32.124  12.862  26.054 -0.2842 -0.1468 -0.3509
37943W        W80996  22.663  32.935  23.749 -0.0059  0.0295  0.1147
37944W        W80997  28.766  32.929   8.550 -0.1472 -0.5267  0.3539
37945W        W80998  24.080  30.139   1.565  0.0379  0.0859  0.0961
37946W        W80999   4.725  24.765   8.028 -0.0943 -0.0828 -0.0059
37947W        W81000  26.693  10.447  28.414 -0.0653  0.0100  0.0692
37948W        W81001   5.269  30.006  19.203  0.0129 -0.1023  0.0422
37949W        W81002  16.585  25.483  22.449 -0.0534 -0.1364  0.1458
37950W        W81003   2.659  18.809   1.466  0.1317 -0.0392  0.1443
37951W        W81004  34.544  29.106  21.531 -0.3367 -0.0818  0.2222
37952W        W81005   6.965  31.550   8.386 -0.1690 -0.1929  0.2605
37953W        W81006   7.889   9.907  25.255  0.0403  0.5095  0.2531
37954W        W81007   0.601  22.294   1.215  0.1012  0.3422  0.1360
37955W        W81008  25.563   2.045   8.492 -0.0411 -0.0088 -0.2882
37956W        W81009  22.532  19.312   7.822  0.1292 -0.2105  0.2312
37957W        W81010   1.311  23.123   8.506 -0.2954  0.3318  0.1158
37958W        W81011  33.329  25.594   2.622  0.2562  0.1384  0.2002
37959W        W81012  25.013   5.234   7.388  0.1964  0.0548  0.1114
37960W        W81013   6.492   4.474   8.068  0.1135  0.0681  0.0809
37961W        W81014   6.698  11.108  20.548  0.0172 -0.0127  0.0815
37962W        W81015  31.629  22.825   7.258  0.2642  0.0679  0.0929
37963W        W81016  30.077  24.609   9.274 -0.2719 -0.1078  0.3516
37964W        W81017  21.428  25.609   9.289  0.0157  0.1389  0.0446
37965W        W81018  24.096  21.549   1.702 -0.0072  0.0578  0.0237
37966W        W81019  31.265  26.566   4.097 -0.0735  0.0477  0.0825
37967W        W81020  24.379  25.776   3.608 -0.0389 -0.0064  0.0444
37968W        W81021  16.258  28.208   8.932 -0.2953 -0.0447  0.1573
37969W        W81022  25.019  21.748  23.509 -0.0980 -0.0960 -0.1293
37970W        W81023  33.774   9.052   7.550  0.0912  0.1957  0.2167
37971W        W81024  32.198  20.881   5.528 -0.2541  0.1081  0.2151
37972W        W81025   2.734  27.432   6.757  0.3375 -0.1698 -0.2826
37973W        W81026  34.647   1.554   4.234  0.1629 -0.1001  0.1237
37974W        W81027   6.558   4.327   4.376 -0.0156 -0.1486  0.0827
37975W        W81028  33.547  24.947   4.513  0.1471 -0.0231 -0.1535
37976W        W81029  12.906  13.190   7.670 -0.0142  0.1960 -0.1264
37977W        W81030   2.191  28.799  28.403 -0.0530  0.1419  0.2257
37978W        W81031  25.414  13.461  24.898 -0.0490 -0.0565  0.0410
37979W        W81032  19.053  29.013   7.816  0.2153 -0.0914 -0.1373
37980W        W81033   0.042  33.641   8.910  0.3295  0.1974 -0.1555
37981W        W81034  33.135   6.713  22.734  0.0588 -0.0676 -0.2399
37982W        W81035  29.779   8.408   6.304 -0.1428 -0.0100 -0.0597
37983W        W81036  19.889  23.794  19.102 -0.2106 -0.1197 -0.2559
37984W        W81037  15.864  23.952  27.620  0.0666 -0.1483 -0.0976
37985W        W81038   6.034   5.369   9.011  0.3913 -0.0655  0.2123
37986W        W81039  29.991   2.874   2.856  0.0977  0.0684 -0.1466
37987W        W81040   3.589  27.948   3.605  0.1651  0.1128  0.1481
37988W        W81041  12.165  32.979   7.381  0.1062  0.0331 -0.0062
37989W        W81042  16.410   0.018   1.109 -0.0560 -0.1155  0.3154
37990W        W81043  28.985  21.824  26.774  0.3811  0.1222  0.1533
37991W        W81044  30.169  19.098  10.048  0.1013 -0.2325 -0.0437
37992W        W81045  23.230   5.255  27.700  0.0109 -0.2594 -0.0287
37993W        W81046  24.496  28.436   4.631 -0.0440 -0.0567  0.0974
37994W        W81047   0.944  20.519   3.921  0.2956 -0.0161 -0.0952
37995W        W81048   0.930   8.571  28.359  0.2512 -0.1725  0.2118
37996W        W81049  28.739  26.888  19.642 -0.2332  0.1901  0.1002
37997W        W81050   4.306  25.533  23.332 -0.2271  0.0399  0.1417
37998W        W81051  26.845   9.837  27.318 -0.2098 -0.2570  0.2713
37999W        W81052  28.096  21.740  28.179  0.0242 -0.4324 -0.0090
38000W        W81053  26.208  22.608   0.075  0.1236  0.0886 -0.0653
38001W        W81054   1.120  32.457   0.113 -0.0658  0.2600  0.0078
38002W        W81055  29.151   3.168   9.785  0.0374  0.0513 -0.2332
38003W        W81056  13.220  34.619   2.983 -0.1686  0.0683  0.1222
38004W        W81057  14.694  28.581   0.642 -0.1320  0.0350 -0.1888
38005W        W81058  28.842  32.814  14.959  0.3788  0.1791  0.0183
38006W        W81059   0.760  23.669  21.774  0.0747  0.2857  0.0372
38007W        W81060  17.803   0.345   7.788 -0.0500 -0.0179  0.0745
38008W        W81061  19.821  15.852  26.221 -0.0450 -0.0882 -0.0316
38009W        W81062  29.065   9.562   3.460  0.1186  0.1035 -0.4389
38010W        W81063  16.833   5.258   2.820  0.1459 -0.0750 -0.5664
38011W        W81064  12.730  26.293   5.856  0.0676 -0.1441  0.1658
38012W        W81065  12.437   9.909   7.908  0.1779  0.3292 -0.3064
38013W        W81066  26.048   3.350   3.746  0.0046 -0.2312  0.2982
38014W        W81067   1.737   3.639   8.090 -0.1496 -0.3399  0.1902
38015W        W81068  27.731  22.632  22.691 -0.3634 -0.1275 -0.0117
38016W        W81069   1.803  20.322  23.736  0.4582 -0.0269  0.0224
38017W        W81070  23.598  14.603  19.916  0.1498  0.1324  0.0935
38018W        W81071   4.761  28.959  27.639  0.2158 -0.0813 -0.2932
38019W        W81072  27.227  11.579  28.535  0.0679 -0.4668 -0.0892
38020W        W81073  22.860  20.943  29.144  0.0402  0.1736 -0.0755
38021W        W81074  27.065  30.647  29.100 -0.0863 -0.1227 -0.1357
38022W        W81075  23.693  26.828  28.267  0.2520 -0.0387 -0.0476
38023W        W81076  26.641   1.400   6.517  0.0253 -0.0410  0.0220
38024W        W81077  24.310  12.260  28.027  0.3799  0.1654 -0.0478
38025W        W81078  32.288   2.687  22.230 -0.0625  0.0728 -0.2233
38026W        W81079  30.189   3.813   0.124  0.0453 -0.0764  0.3207
38027W        W81080  27.499  28.824  10.335 -0.3109  0.1544 -0.3346
38028W        W81081  30.341  29.871  24.033  0.0099 -0.0702  0.0048
38029W        W81082  32.850  18.921   4.927  0.1459 -0.5197  0.3969
38030W        W81083  26.787  21.850  17.128 -0.0698  0.1425 -0.1797
38031W        W81084  17.280   7.347  10.796 -0.1420  0.0906  0.2257
38032W        W81085  33.220  14.997   0.901 -0.1603 -0.0476 -0.0506
38033W        W81086  19.677  24.599  26.249  0.1199 -0.1725  0.1272
38034W        W81087  32.811  26.374   1.309 -0.1854 -0.1091  0.2679
38035W        W81088  14.368  29.193  24.344 -0.3427  0.1795  0.1046
38036W        W81089  27.453   0.716   8.360 -0.0930  0.1516  0.0914
38037W        W81090   0.240  28.793   8.621  0.0622 -0.0027  0.4374
38038W        W81091   9.826  22.385   7.304  0.2840 -0.2981 -0.0101
38039W        W81092   1.600  23.836  10.120  0.2402  0.0641  0.1746
38040W        W81093  28.270  24.153   6.107 -0.0612 -0.0058 -0.0411
38041W        W81094  33.539  23.830  24.848 -0.0845 -0.0058  0.2991
38042W        W81095  15.949  20.004   9.431  0.1436  0.0801  0.0894
38043W        W81096  30.490  33.352   5.301 -0.3354 -0.0599 -0.1532
38044W        W81097   0.282   3.499  25.286  0.2085  0.2265  0.4030
38045W        W81098  23.509  15.934   1.987  0.1221  0.1031  0.0606
38046W        W81099  25.617  11.270   9.820 -0.0054 -0.0897 -0.3365
38047W        W81100  19.719  16.827   6.306 -0.0552 -0.0096  0.0261
38048W        W81101  26.485   4.199   9.961  0.1156  0.1060  0.0421
38049W        W81102  14.289  23.723   9.408 -0.1791 -0.1031 -0.0744
38050W        W81103  29.189   0.602   3.790  0.1172  0.1051 -0.0092
38051W        W81104  33.853  24.172   1.527  0.0996  0.2381  0.0872
38052W        W81105  19.955  26.277   5.210  0.0597 -0.2170 -0.0494
38053W        W81106  20.850   2.768   3.727  0.1981  0.1045 -0.1507
38054W        W81107  34.595  31.451   4.338 -0.0711  0.0139  0.2848
38055W        W81108  33.465  15.188  14.320 -0.1791  0.0547 -0.0717
38056W        W81109  26.148   2.022   8.447 -0.1033 -0.0048 -0.0907
38057W        W81110  13.623  32.545   1.652  0.0598  0.0132  0.1524
38058W        W81111  31.748   5.505  18.083 -0.0097  0.2098 -0.1049
38059W        W81112  33.051   6.446   6.043  0.0471 -0.0702 -0.1295
38060W        W81113   3.587  27.432   6.140  0.2498 -0.2340  0.2471
38061W        W81114  14.512  16.738  18.293 -0.0518 -0.2824  0.1563
38062W        W81115   9.296  31.997   1.050 -0.2362  0.0407 -0.0045
38063W        W81116  21.610  16.996   2.374 -0.2192  0.1858 -0.0970
38064W        W81117  26.318  31.858   0.884  0.2101  0.0943 -0.0790
38065W        W81118  27.917  29.568  19.711 -0.0656  0.0982 -0.3559
38066W        W81119  22.325  29.465   1.346 -0.2532  0.2426 -0.1923
38067W        W81120  22.105  25.229  18.274 -0.3453  0.2286  0.3040
38068W        W81121   2.687  17.824   7.314  0.0367  0.2227  0.1744
38069W        W81122  22.945  25.448   8.060  0.0023  0.1508 -0.0406
38070W        W81123  28.005   2.282  19.664 -0.1471  0.0762 -0.1805
38071W        W81124  26.324  22.171  26.733  0.4366 -0.0296  0.1577
38072W        W81125  17.041  19.192   0.363 -0.3036  0.0530  0.0008
38073W        W81126  19.608   4.487  27.182  0.1771  0.2102  0.0705
38074W        W81127  26.331  14.549   2.579  0.3583  0.1154 -0.1849
38075W        W81128   0.230  31.276   6.324  0.0621 -0.0971  0.4149
38076W        W81129  27.823   2.441   7.870  0.0632 -0.1099  0.1752
38077W        W81130  16.839  16.354   1.694  0.2455  0.0137 -0.0094
38078W        W81131  13.963  23.531   5.950 -0.5973 -0.2601  0.1049
38079W        W81132  33.607  10.198   1.449  0.0303 -0.0784 -0.1656
38080W        W81133  12.324   8.191   6.202  0.4178 -0.0997  0.0898
38081W        W81134   4.086   2.595   3.269  0.0558 -0.3293 -0.1763
38082W        W81135  33.909  18.800   9.173  0.0543 -0.0326 -0.0617
38083W        W81136  33.036  20.106   1.912  0.1207 -0.0797 -0.2001
38084W        W81137  16.093  15.724  25.564 -0.1787 -0.1658  0.1172
38085W        W81138  31.562  21.017   3.610 -0.2131 -0.1832 -0.1268
38086W        W81139   6.156  14.022   1.515  0.0795 -0.1892  0.1062
38087W        W81140  32.446  27.967   0.327  0.1466  0.0448  0.1142
38088W        W81141  20.914   7.209   8.229  0.0287 -0.2105  0.0847
38089W        W81142   0.166   6.134   9.932 -0.1490  0.1633 -0.0925
38090W        W81143   0.359  13.014  28.784 -0.0451 -0.0213 -0.1800
38091W        W81144  27.249  19.576   5.963 -0.1753 -0.2963  0.0346
38092W        W81145  14.487  27.337  10.187  0.1998  0.1320  0.4560
38093W        W81146  17.790   3.721  28.763  0.2422  0.1782 -0.1570
38094W        W81147  32.985  24.441   2.833  0.0892  0.1256 -0.1025
38095W        W81148  13.256  19.841   0.420  0.0951  0.0434  0.0046
38096W        W81149  17.019  23.310   1.230  0.0436  0.0311 -0.0248
38097W        W81150  15.713  22.827   5.364 -0.0167 -0.0799 -0.0890
38098W        W81151  29.222   4.833   7.040  0.0040 -0.0679 -0.3284
38099W        W81152   8.129  24.314  16.906  0.0290 -0.1083 -0.1269
38100W        W81153  24.306   3.650   4.239 -0.1432 -0.0459 -0.3694
38101W        W81154  32.498  25.085   8.685 -0.1394  0.3219 -0.1414
38102W        W81155  28.042  32.004   9.393 -0.0512 -0.0994  0.0631
38103W        W81156  30.842   0.608  28.434  0.1098 -0.1103  0.1801
38104W        W81157  27.973  31.616  19.812 -0.1129  0.0685  0.0711
38105W        W81158  22.273  26.643  21.917  0.0463  0.3311  0.0312
38106W        W81159  22.831  13.261   9.016  0.0104 -0.0532 -0.0623
38107W        W81160  34.139  24.218  13.658 -0.1567  0.1386  0.1316
38108W        W81161  20.745  23.866  22.603  0.0120  0.2081 -0.2537
38109W        W81162  30.495  22.648   4.123  0.1402 -0.4043  0.0845
38110W        W81163  27.070   1.666   4.261 -0.3552  0.2098 -0.0768
38111W        W81164  22.175  27.522  26.627 -0.0576 -0.2814  0.0007
38112W        W81165  31.745   4.458  25.564  0.0586  0.0658 -0.3800
38113W        W81166  32.496  22.711  24.608  0.0813  0.1546  0.1904
38114W        W81167  13.545  16.958  23.945  0.1876 -0.1606 -0.0416
38115W        W81168  34.056   3.254   8.310 -0.2391  0.0837 -0.3028
38116W        W81169   6.632  19.235  14.558 -0.0192 -0.1498 -0.1016
38117W        W81170  31.657  11.041  25.321  0.0263  0.0456 -0.0659
38118W        W81171  30.422  25.640  28.247  0.1657 -0.2260 -0.1784
38119W        W81172  24.744  27.867  24.934 -0.0642 -0.2271 -0.0268
38120W        W81173  29.756   0.693  18.225  0.1195 -0.0198 -0.0053
38121W        W81174  31.872   3.153  21.000 -0.0754  0.0091  0.0902
38122W        W81175  30.356   7.729  26.500  0.3184 -0.0530  0.1795
38123W        W81176  24.270   6.828  19.566  0.1542 -0.1582 -0.3650
38124W        W81177  25.730  26.645   6.208 -0.4606 -0.2089  0.0617
38125W        W81178  15.499  26.103  24.744  0.1379  0.2128  0.0875
38126W        W81179  28.340   5.888   7.008  0.1299 -0.1223  0.0600
38127W        W81180  17.987  30.925   1.499  0.1824  0.0925  0.3133
38128W        W81181  31.286  17.136   8.674 -0.3411 -0.2038  0.0667
38129W        W81182   3.390  26.125   5.184 -0.0306 -0.0250 -0.2032
38130W        W81183  28.422  21.479   6.980  0.2272  0.0695 -0.1137
38131W        W81184  22.236  16.213   5.900 -0.0333 -0.1143 -0.0782
38132W        W81185  32.478  17.258  25.689  0.0579  0.0662  0.0277
38133W        W81186   4.405  15.600   6.467 -0.3323  0.0709  0.0837
38134W        W81187  16.056  27.988   5.749 -0.0009 -0.2764  0.2265
38135W        W81188  29.937  29.759   0.907  0.0507  0.2752 -0.1967
38136W        W81189  27.417  24.862   5.244 -0.3323  0.0698  0.2046
38137W        W81190  31.694  22.648  18.147 -0.0343 -0.0897 -0.0229
38138W        W81191  30.908  24.555  16.745  0.0348 -0.0539  0.0676
38139W        W81192   4.491   7.027   7.713 -0.0117  0.0701 -0.2672
38140W        W81193  20.526  25.484  25.745 -0.1754  0.1277 -0.0266
38141W        W81194  23.815   8.402  26.542  0.3172 -0.0157  0.0230
38142W        W81195  28.550  27.218  23.265  0.2117  0.2382  0.0232
38143W        W81196  26.290  13.816  25.861  0.2190 -0.2466 -0.2843
38144W        W81197  21.929  16.881  26.244  0.0741  0.2013 -0.0184
38145W        W81198  20.980  20.679   5.889 -0.1055 -0.0210 -0.0409
38146W        W81199  22.361  22.973  26.562 -0.2657  0.1292  0.0047
38147W        W81200  24.782  12.148   9.701 -0.1540 -0.0146 -0.0739
38148W        W81201   8.097   0.823   6.367  0.1135 -0.0173  0.0710
38149W        W81202  32.201  21.393  27.808 -0.1734 -0.2177 -0.1769
38150W        W81203  24.029  23.865  23.409  0.0313 -0.1637  0.1518
38151W        W81204   8.371  21.182  27.163 -0.0965  0.0838 -0.3656
38152W        W81205  15.344  20.726  27.386 -0.2238 -0.0829 -0.1393
38153W        W81206  10.471  21.233  26.728 -0.0442 -0.1222 -0.0284
38154W        W81207  26.121  19.101   0.426 -0.2385  0.3226 -0.0522
38155W        W81208  27.678   8.301   0.583  0.1137 -0.4593 -0.0027
38156W        W81209  32.010  16.667   7.251  0.0921 -0.0920 -0.2903
38157W        W81210  29.565  33.752  24.188 -0.1656  0.2636  0.2246
38158W        W81211  29.385  19.825  28.652 -0.0871  0.0493  0.2071
38159W        W81212  21.321   1.125  24.064  0.2132 -0.0784  0.2114
38160W        W81213  17.042  18.815  28.741 -0.2042  0.0776  0.0970
38161W        W81214  28.831  34.264   8.673 -0.5204  0.4004 -0.0247
38162W        W81215  21.525  32.801   6.801 -0.4174 -0.1922  0.1234
38163W        W81216   7.601   1.682   0.115 -0.3771  0.2820 -0.3252
38164W        W81217   1.019  22.341   1.554 -0.0901 -0.0437  0.2724
38165W        W81218  22.568   1.290   8.684 -0.2170 -0.1048 -0.0500
38166W        W81219  24.177  23.455   8.169  0.1626 -0.2068 -0.0552
38167W        W81220  27.092  26.549   8.774 -0.0515 -0.0240  0.0603
38168W        W81221  26.135   4.010   5.693  0.0373  0.0174 -0.1773
38169W        W81222  20.104  28.066   5.988  0.2101  0.0184  0.3515
38170W        W81223  29.651   9.656  25.650  0.2908 -0.1130 -0.2386
38171W        W81224  19.915   1.754   9.373 -0.0322 -0.0573  0.2724
38172W        W81225  25.971  16.224   8.435  0.0927  0.1960  0.3743
38173W        W81226  16.154  29.615  25.586 -0.1821  0.0452 -0.0200
38174W        W81227  23.032  22.514  28.138  0.2466 -0.2364 -0.2754
38175W        W81228  11.306  26.975  19.237 -0.0795 -0.1659 -0.1120
38176W        W81229  30.847  33.500  23.962 -0.2421  0.0821  0.2445
38177W        W81230  24.001  20.806   8.607 -0.2631 -0.0078  0.2993
38178W        W81231  33.014  15.448  21.422  0.2418 -0.2786  0.1224
38179W        W81232  17.403  17.988  28.870 -0.1070  0.3586  0.1615
38180W        W81233  11.538  16.659  22.722  0.2475  0.2136  0.1462
38181W        W81234  30.201  22.894   5.837  0.0544  0.0134  0.1511
38182W        W81235  19.292  24.945   3.567  0.3168 -0.0770  0.0477
38183W        W81236  32.778  11.118  22.106  0.1090 -0.0908 -0.0991
38184W        W81237  32.772   4.705   4.624 -0.2229  0.0301  0.3025
38185W        W81238  27.941  32.973  21.180 -0.0232 -0.1734  0.2440
38186W        W81239  14.382   4.756  21.428  0.0823 -0.1272 -0.0260
38187W        W81240  32.468  20.267   3.183  0.2201 -0.2166 -0.1349
38188W        W81241  34.121  28.491   3.212 -0.1143  0.0511 -0.0484
38189W        W81242   3.912   0.651   6.419  0.2018 -0.0508  0.1817
38190W        W81243   1.931  32.624   8.374  0.1487 -0.0078 -0.1874
38191W        W81244  19.005  17.353   8.644  0.0472 -0.1429  0.0855
38192W        W81245  33.698  30.001   3.546  0.6472  0.0051 -0.0288
38193W        W81246  11.406  15.183   7.902  0.2016 -0.1641  0.0516
38194W        W81247  13.571  22.900  28.518  0.0997 -0.0428  0.0311
38195W        W81248  32.875   0.143   7.436 -0.0320  0.2312  0.0862
38196W        W81249   2.362  24.174  19.640 -0.0228 -0.1163 -0.1412
38197W        W81250   2.341  31.097  25.441  0.0123  0.2210  0.0504
38198W        W81251  14.139  14.939  25.326 -0.0172 -0.1762 -0.1733
38199W        W81252   9.354  33.549   6.148 -0.0262  0.2417  0.1785
38200W        W81253  26.496  30.718  27.071  0.0379 -0.0724  0.0134
38201W        W81254  16.422  34.072  26.976 -0.0738 -0.1230 -0.3326
38202W        W81255  18.439   4.581   0.974 -0.1896 -0.0398 -0.0008
38203W        W81256  33.062  18.629   9.241 -0.4233 -0.2572 -0.1148
38204W        W81257  11.595  21.987   6.950 -0.0704 -0.0624 -0.0501
38205W        W81258  31.866  11.122  25.753  0.2602  0.4975  0.0486
38206W        W81259  27.930  20.838  25.628 -0.0089  0.1580 -0.2156
38207W        W81260  28.582  22.043   6.841  0.2453 -0.0246  0.1144
38208W        W81261  25.854  32.740  20.969  0.0291 -0.2070 -0.0944
38209W        W81262  29.350  10.189  15.935 -0.0912 -0.3504  0.0509
38210W        W81263  32.224  29.822  17.907 -0.0973 -0.2989 -0.2327
38211W        W81264  30.422   4.192   7.952 -0.0335  0.0492 -0.0555
38212W        W81265  24.582  20.503  28.376  0.0451  0.0486  0.0765
38213W        W81266  30.124  19.514   9.180  0.1323 -0.1597  0.0895
38214W        W81267  24.228  19.882  20.864  0.1321  0.0069 -0.0106
38215W        W81268  26.925  18.448   6.067 -0.3116  0.1252 -0.2695
38216W        W81269  10.842  16.777   9.374 -0.2059  0.2334 -0.0118
38217W        W81270  30.386  31.980   7.814 -0.1457  0.1240 -0.3211
38218W        W81271  24.209  25.007   1.913 -0.1978  0.2114  0.2930
38219W        W81272  21.254  26.776  18.746 -0.1723  0.0774  0.1916
38220W        W81273   8.368  10.837  25.052  0.3377 -0.0264  0.0021
38221W        W81274  28.245  24.197   3.686 -0.1968 -0.0268 -0.2106
38222W        W81275  19.556  28.322   4.187  0.2285  0.0173 -0.1140
38223W        W81276  25.076  22.908  26.010 -0.0884  0.1020 -0.1299
38224W        W81277  22.038  15.104   8.361  0.2018 -0.0872  0.0267
38225W        W81278  23.967  21.156   2.727 -0.1687 -0.2480  0.1283
38226W        W81279   6.449   9.084   1.790  0.2366 -0.1999 -0.3345
38227W        W81280  29.635  23.944   7.669  0.0316 -0.0615 -0.2740
38228W        W81281  20.383   1.077  27.681 -0.0782 -0.0707 -0.0436
38229W        W81282  31.852  13.603   8.621  0.3668  0.4481 -0.2628
38230W        W81283  27.537   8.588   3.747 -0.3996  0.0222  0.0716
38231W        W81284  26.379  33.272   0.505 -0.1364 -0.1818  0.0232
38232W        W81285  22.293  13.358   6.167 -0.4043  0.2970 -0.3374
38233W        W81286  23.414  13.387  10.594  0.0931  0.2962  0.0194
38234W        W81287  17.610  17.255   7.747 -0.2083  0.1838 -0.2982
38235W        W81288  30.958  25.929   0.247 -0.0516 -0.1344 -0.2619
38236W        W81289  16.554  25.771   7.332 -0.0349 -0.0039 -0.1365
38237W        W81290  28.798  33.461   2.966 -0.1706  0.2304 -0.0138
38238W        W81291  29.869  33.301  24.953  0.1445  0.2507  0.1073
38239W        W81292   5.319   8.505  26.313  0.1472  0.0380 -0.2878
38240W        W81293  12.921  26.348   9.817 -0.0857 -0.2582 -0.2090
38241W        W81294  23.932  24.790   2.335  0.3257  0.0950 -0.0318
38242W        W81295   8.202   9.554   5.018 -0.1784 -0.1094  0.0971
38243W        W81296  27.203  28.981  25.488  0.5427 -0.2258  0.2231
38244W        W81297  27.193  34.355   9.459  0.0786  0.3854  0.4194
38245W        W81298  29.539  31.619   8.633 -0.0389 -0.1600  0.0058
38246W        W81299  12.388  34.683   2.313 -0.0607 -0.0527  0.1711
38247W        W81300  15.797  34.091  10.243  0.2497  0.1018  0.1453
38248W        W81301  25.924  17.019  19.019  0.1588 -0.1426  0.1237
38249W        W81302  21.982  13.530  27.360  0.0593  0.3827  0.0254
38250W        W81303  20.276  16.573   2.194 -0.3663 -0.0126 -0.0036
38251W        W81304   9.338  13.059   2.288 -0.1377 -0.0971 -0.1304
38252W        W81305  23.680  22.024   8.510  0.1187  0.1822  0.0286
38253W        W81306   8.037   0.677  26.188 -0.1392 -0.0116  0.0562
38254W        W81307   5.710  17.970  25.321  0.0975 -0.3781 -0.1493
38255W        W81308  18.154  21.479  10.442  0.2997 -0.1833  0.0163
38256W        W81309  28.449  25.525   4.400  0.2187 -0.0402 -0.0760
38257W        W81310  20.247   4.365   4.400 -0.2542 -0.0181 -0.0081
38258W        W81311  24.659   2.647   6.610  0.2020 -0.0234  0.1097
38259W        W81312  32.265  19.462  24.483 -0.0174  0.4415 -0.1820
38260W        W81313   9.175  29.276  24.488  0.0635  0.2949  0.2001
38261W        W81314  34.519  14.603   5.211  0.1316  0.2855  0.1136
38262W        W81315  25.638  15.211   4.580 -0.2391 -0.1741  0.4575
38263W        W81316  23.770   4.504   0.562  0.2656  0.0089 -0.0450
38264W        W81317   1.434   0.866   1.866 -0.0432  0.0972 -0.3563
38265W        W81318  21.208  18.708   4.820 -0.1356 -0.4936 -0.1840
38266W        W81319   1.666  24.605   2.190  0.0675  0.3148  0.2358
38267W        W81320  32.948   9.364   2.772 -0.0749  0.3399  0.0288
38268W        W81321  29.814  17.278   8.544 -0.2926  0.2238 -0.0423
38269W        W81322  26.406  32.918   0.846  0.2491 -0.0160  0.2250
38270W        W81323  24.694  28.473  21.528 -0.1523 -0.0291  0.2840
38271W        W81324  21.039  25.595  25.982 -0.0480  0.0159  0.0280
38272W        W81325  22.664   2.036  21.894  0.0464 -0.0311 -0.1099
38273W        W81326  10.946  14.504  26.611  0.3158 -0.0041  0.0855
38274W        W81327  15.089  28.030   8.814  0.0159  0.1768 -0.4648
38275W        W81328  13.620  16.330  28.056  0.1883  0.0694  0.2007
38276W        W81329  30.766   6.899  27.849  0.5176 -0.0931  0.2417
38277W        W81330   8.756  21.424  27.931 -0.0769 -0.0308  0.0134
38278W        W81331  28.406  13.696   5.534 -0.1079  0.6692 -0.2188
38279W        W81332  27.334   3.079  18.219 -0.2683 -0.0089  0.1651
38280W        W81333  32.773   7.020  28.402  0.0431  0.0957 -0.0918
38281W        W81334  16.128  33.656   5.216 -0.1434 -0.0827  0.2896
38282W        W81335  17.931   2.431   1.236  0.3548 -0.2041  0.1221
38283W        W81336  27.637  26.680   5.134 -0.0021  0.1205 -0.1328
38284W        W81337  29.536  21.396   6.033 -0.0594 -0.0465  0.1652
38285W        W81338   3.658  24.254   7.490  0.1644  0.0373 -0.1566
38286W        W81339  13.492   6.202   8.663  0.0805  0.1385  0.0964
38287W        W81340  24.824  20.658   0.094 -0.3443  0.0048  0.0718
38288W        W81341  33.627  30.432   1.383  0.1060 -0.1312  0.0160
38289W        W81342  21.926  11.475  28.097 -0.1108  0.2111 -0.1118
38290W        W81343  33.686  27.929   6.766 -0.1615 -0.0346  0.1468
38291W        W81344  34.522  33.460   0.326  0.0335  0.2812 -0.2201
38292W        W81345  18.849  33.265   0.886 -0.0420  0.3867  0.0618
38293W        W81346  30.825  27.606   5.951  0.1467 -0.2428  0.2087
38294W        W81347  18.436  32.819   2.553 -0.4291 -0.1123 -0.1248
38295W        W81348  34.348  32.291  26.509  0.1592  0.1154  0.0462
38296W        W81349  27.071   0.058  28.580 -0.4641  0.1696  0.1237
38297W        W81350  19.760  14.060   0.517  0.0340  0.2674 -0.1165
38298W        W81351   2.055  33.363   4.910 -0.1078 -0.4188  0.1520
38299W        W81352  22.174  27.286  10.103  0.1047 -0.1010 -0.0667
38300W        W81353  11.298  14.568   3.615 -0.4240 -0.0257  0.0397
38301W        W81354   6.379  30.780  27.563 -0.0171  0.1139  0.3458
38302W        W81355  21.619  12.224   3.008  0.0013 -0.0242 -0.1045
38303W        W81356   4.686  30.971   7.467  0.1439  0.1290  0.1634
38304W        W81357  20.665  31.969   2.945  0.3872 -0.2464 -0.0730
38305W        W81358  30.909  10.912   7.884 -0.0646 -0.1160 -0.3222
38306W        W81359  29.686   4.887   6.164  0.3672  0.0542  0.3244
38307W        W81360  27.895   8.204   7.805 -0.0165 -0.0535  0.2984
38308W        W81361  22.012  28.412   0.908  0.2641  0.0524  0.0884
38309W        W81362  22.536  18.056   8.895  0.1961 -0.1373  0.0126
38310W        W81363  30.774  23.578   5.784 -0.0548  0.0402  0.2424
38311W        W81364  21.766  11.391  20.736 -0.0657  0.0239 -0.1269
38312W        W81365  28.914  16.539   9.115  0.2611  0.1449  0.0202
38313W        W81366  22.830  25.500  28.292 -0.0970  0.1516 -0.2348
38314W        W81367  17.469  21.624   6.108  0.0686 -0.0588 -0.1917
38315W        W81368  29.458   4.966  20.865  0.1756  0.0118 -0.3284
38316W        W81369  29.034  22.326   9.701 -0.0762  0.0715 -0.0759
38317W        W81370  21.308  20.446  24.642 -0.1083  0.0357 -0.1298
38318W        W81371  26.364  32.093   3.264  0.0275 -0.2583 -0.0136
38319W        W81372  19.008  15.879  24.291 -0.0570  0.0961 -0.4334
38320W        W81373  26.986  20.666   7.369 -0.1581  0.0863 -0.1633
38321W        W81374  25.033  28.523   9.273  0.0879 -0.0247 -0.0664
38322W        W81375   8.253  23.141  25.609 -0.2270  0.0066  0.3484
38323W        W81376  11.748  24.718   9.361 -0.3290  0.0080  0.0245
38324W        W81377   8.439  29.520  23.815 -0.0658 -0.0972 -0.1933
38325W        W81378  26.795  27.281   0.780  0.3194  0.1758  0.3570
38326W        W81379  21.435  27.021  27.182 -0.1648  0.6608 -0.2503
38327W        W81380  32.597  22.887  25.500  0.0231 -0.4164  0.0674
38328W        W81381   5.884  22.614   7.394  0.2236  0.1268 -0.2441
38329W        W81382  29.598   0.570   4.263  0.0576 -0.1678  0.1404
38330W        W81383  24.010  18.225   5.945 -0.2666 -0.2774 -0.2079
38331W        W81384  28.398  30.459  20.161 -0.0400  0.1551 -0.0036
38332W        W81385  20.673  33.549   9.279  0.1125 -0.4297 -0.0280
38333W        W81386  26.506   5.069   2.475  0.2753 -0.0708 -0.1194
38334W        W81387  28.569  23.127  26.737  0.0877  0.0199  0.4117
38335W        W81388   5.147  29.050   1.009 -0.0314 -0.3813 -0.2443
38336W        W81389  16.265   3.929   2.382 -0.0324 -0.1162  0.0355
38337W        W81390  31.455  29.194   8.064  0.2430  0.0746 -0.1192
38338W        W81391  31.463  24.923  23.594 -0.2380 -0.2708  0.3215
38339W        W81392   1.594  30.163  21.984 -0.3284 -0.0434  0.3518
38340W        W81393  11.720  27.837   7.722 -0.1327 -0.1815  0.1436
38341W        W81394  19.761  24.291  29.046  0.0249 -0.1281 -0.0905
38342W        W81395  28.107  27.994  15.950  0.1691  0.0848  0.2287
38343W        W81396  24.106  33.203   7.935 -0.3449  0.3238  0.0523
38344W        W81397  32.944  20.353  21.353  0.4571 -0.1388 -0.0035
38345W        W81398  26.135  27.360  28.506 -0.1516  0.0558  0.1695
38346W        W81399  27.173   0.658   0.179 -0.3173 -0.1149 -0.0575
38347W        W81400  21.345  10.708   9.985  0.0414  0.0760 -0.4253
38348W        W81401  18.192  20.253   4.509 -0.0012  0.3386  0.1947
38349W        W81402  23.151   9.159   8.095  0.1028 -0.0737 -0.3228
38350W        W81403  20.740  30.273   1.247 -0.2786 -0.2993 -0.1668
38351W        W81404  23.390  15.050   9.210 -0.0432 -0.2141 -0.2066
38352W        W81405  30.021  22.019   6.816  0.2795  0.2516 -0.0567
38353W        W81406   2.174  18.309   7.067  0.1460  0.2275 -0.1551
38354W        W81407   1.793  33.406   5.978 -0.1627 -0.0273  0.0688
38355W        W81408  29.726  30.831   4.313 -0.1919 -0.3035 -0.1334
38356W        W81409  24.822  16.487   4.617  0.2304  0.0918  0.3352
38357W        W81410  13.736   3.825   8.298  0.0110 -0.0461 -0.2132
38358W        W81411  29.434  31.175   5.628 -0.1089 -0.2079 -0.2165
38359W        W81412   7.803  22.948   4.030  0.0989  0.1404 -0.1165
38360W        W81413   3.983  27.993   8.831  0.1834  0.0909 -0.0363
38361W        W81414  32.796  21.919   0.856 -0.0104  0.0494 -0.0588
38362W        W81415  24.795  15.591  16.969 -0.0335 -0.2043  0.2362
38363W        W81416  17.374  15.749   3.119  0.0349  0.0282  0.2891
38364W        W81417  30.959  26.883  27.187  0.0392 -0.1170 -0.1630
38365W        W81418  11.566  23.613  25.314  0.2116 -0.0127 -0.1941
38366W        W81419  27.771  25.600  23.718  0.0456 -0.0000 -0.0719
38367W        W81420  25.438  10.025  20.840  0.0551  0.2572 -0.2236
38368W        W81421  18.843  25.344  21.390 -0.3560 -0.0748  0.0341
38369W        W81422  13.699  26.128   9.344  0.2859  0.0489  0.1650
38370W        W81423  26.300  28.482   1.874  0.1216  0.4589  0.0237
38371W        W81424  24.242   1.318  28.361 -0.0195  0.4294 -0.2633
38372W        W81425   0.052  34.535   2.780 -0.1010 -0.2333 -0.0622
38373W        W81426   0.362  34.283  21.420  0.2964 -0.0675  0.1002
38374W        W81427   6.979  16.611  26.512  0.1876  0.0345 -0.3280
38375W        W81428   9.534  33.814   3.053  0.0577  0.0541 -0.3420
38376W        W81429  19.926   1.305  27.385  0.1717 -0.0457 -0.3557
38377W        W81430  18.913  12.793   3.478  0.0077  0.0298  0.1139
38378W        W81431  15.878  11.776   2.706 -0.1333 -0.0930  0.0885
38379W        W81432   4.493  11.158   0.644  0.2810 -0.1643 -0.3186
38380W        W81433  24.527  33.415   1.305  0.3375  0.3660  0.0602
38381W        W81434  33.594  21.566   1.347 -0.3290 -0.3172  0.1898
38382W        W81435  23.071  27.193   2.745 -0.1032 -0.0848 -0.0997
38383W        W81436  26.497   9.688  10.251  0.0098 -0.1214 -0.1760
38384W        W81437  33.373  14.790   2.487  0.2307  0.2883  0.0372
38385W        W81438  34.193  25.634   8.451 -0.1021 -0.0782  0.2721
38386W        W81439  33.084  29.139   2.350 -0.0529  0.2267  0.2024
38387W        W81440  28.810  24.677   6.929  0.2041 -0.0137  0.0103
38388W        W81441  28.025  28.236   7.723  0.0296  0.1020 -0.0158
38389W        W81442  23.244  14.047   7.285  0.2632 -0.2863 -0.2333
38390W        W81443  32.154  27.712   1.330  0.1852  0.2291 -0.1858
38391W        W81444  20.260  21.086   3.756  0.0657  0.1851  0.0842
38392W        W81445   3.010   4.431   8.898  0.0023 -0.2122  0.1995
38393W        W81446  18.128   1.028   6.610  0.0633  0.2060  0.0076
38394W        W81447   1.617  28.268   5.174  0.0176  0.2634 -0.0132
38395W        W81448  31.049  25.376   6.737  0.0191  0.1871 -0.2087
38396W        W81449  22.545  24.483  18.624  0.0839  0.0504  0.0106
38397W        W81450  22.564   4.864   4.145 -0.3074 -0.1139 -0.1256
38398W        W81451  24.420  11.928   0.172 -0.0111  0.3468 -0.1602
38399W        W81452  22.364  22.537  26.368  0.0380  0.4105 -0.1981
38400W        W81453  28.450  32.965  24.393 -0.0339  0.0951  0.0417
38401W        W81454  26.193  28.557   2.375 -0.0218  0.0582  0.1073
38402W        W81455  17.520   3.145   4.374 -0.0931  0.1729 -0.1390
38403W        W81456  20.494   7.579   9.446  0.0411  0.0516 -0.0494
38404W        W81457  12.927  23.436   5.954 -0.2193  0.0032  0.0019
38405W        W81458   8.466   6.483  23.709 -0.0576  0.1687 -0.3390
38406W        W81459  27.946  25.867   3.363 -0.0684 -0.2560 -0.0189
38407W        W81460  26.217  26.266   0.236  0.2373  0.0523 -0.1090
38408W        W81461  23.609  30.489  10.965  0.0290 -0.1477 -0.0827
38409W        W81462  18.404  21.398  22.965 -0.1339 -0.0224  0.5168
38410W        W81463  31.377   1.685   3.141  0.1641  0.0469  0.0812
38411W        W81464  16.833  25.083  26.908 -0.1703 -0.2900  0.0886
38412W        W81465  22.641  33.562   6.472 -0.2161  0.1146 -0.0591
38413W        W81466  22.790  27.943   3.290  0.1344  0.1575  0.2375
38414W        W81467  22.126  33.377   4.163 -0.1116 -0.0308  0.0865
38415W        W81468  21.755  25.306   2.438  0.0167  0.3762 -0.1469
38416W        W81469  14.701  22.072   9.458 -0.1024 -0.1233 -0.0510
38417W        W81470  27.050   4.266   3.241  0.1427  0.2972 -0.2904
38418W        W81471   1.384  24.850   7.379  0.5164  0.3668  0.0279
38419W        W81472  25.453  17.617   9.114  0.0745  0.1011 -0.0245
38420W        W81473  25.152  29.070   8.939 -0.4157 -0.0313 -0.0351
38421W        W81474  22.884  17.805   8.322  0.1393 -0.1365  0.0670
38422W        W81475  12.989  21.563   1.932 -0.0764  0.0934 -0.1502
38423W        W81476  27.128  32.279  24.857 -0.2522  0.1490  0.3902
38424W        W81477  22.293  20.710  25.060  0.1728 -0.0281 -0.1365
38425W        W81478  13.342  24.583  27.564 -0.1331  0.4457 -0.0367
38426W        W81479   9.718  33.017   9.742 -0.1341  0.1067 -0.3217
38427W        W81480  30.022  26.521   5.890  0.1758  0.0207  0.4641
38428W        W81481  14.971  34.254   4.866  0.5682  0.0356  0.0958
38429W        W81482  16.110   8.665   9.253 -0.1067 -0.1576 -0.1485
38430W        W81483  23.266  15.359   2.781  0.2754  0.2428  0.1469
38431W        W81484  26.308  22.511   9.783 -0.3313 -0.2964  0.0574
38432W        W81485  24.189  28.240  27.974 -0.1754 -0.1993  0.0992
38433W        W81486  22.727  23.681   6.666  0.1514  0.0850 -0.2601
38434W        W81487   1.330  29.741   5.788 -0.1180  0.2066 -0.0540
38435W        W81488  27.617  18.464  26.966  0.3425 -0.0159  0.2913
38436W        W81489  21.847  28.062   8.838  0.3174  0.0152  0.2841
38437W        W81490  18.211  23.645   2.713 -0.1171 -0.1338  0.1247
38438W        W81491  26.715  20.819   3.259  0.2933  0.0530 -0.4744
38439W        W81492  28.507  21.469   2.884  0.1690 -0.1659 -0.2595
38440W        W81493  22.367   5.436  26.219 -0.1553 -0.0502  0.1864
38441W        W81494  30.412  31.765  24.721  0.0268 -0.2739 -0.0782
38442W        W81495  24.590  32.737   9.678 -0.1641  0.2052  0.0339
38443W        W81496   1.297   5.806  24.432  0.0359  0.0971  0.0123
38444W        W81497   1.792  12.929  24.337  0.1089 -0.1998 -0.3631
38445W        W81498   8.634  29.950   1.580 -0.0520 -0.1244 -0.1672
38446W        W81499  24.079   9.578   6.516 -0.0145  0.0433  0.1940
38447W        W81500  10.371  26.629   4.455 -0.0942  0.1954  0.1111
38448W        W81501  27.767   2.733  27.217 -0.2431  0.2559 -0.0933
38449W        W81502   7.306  17.208  27.624 -0.2980  0.3890 -0.3082
38450W        W81503  21.790  24.094   2.683  0.2064  0.1286  0.3156
38451W        W81504  27.960  23.088   7.205  0.0759  0.0032 -0.2617
38452W        W81505  26.520  22.957  27.315  0.0522 -0.1021 -0.1037
38453W        W81506   0.866  13.770   1.585  0.0278  0.0815 -0.2505
38454W        W81507  18.266  19.305   8.819 -0.0554  0.3200 -0.3049
38455W        W81508  31.319  32.827   4.411  0.0592  0.0834  0.4174
38456W        W81509  12.833  29.152   4.140  0.3558 -0.0444  0.1436
38457W        W81510  23.938   0.521   1.685 -0.0728 -0.5007  0.2683
38458W        W81511  29.965  30.042   8.038 -0.1730  0.1633 -0.0730
38459W        W81512  29.680  29.922   3.298  0.1939  0.0722 -0.0147
38460W        W81513   0.145  22.438   1.092  0.0836  0.0193  0.0388
38461W        W81514  34.033  30.075   9.825 -0.2065  0.1677  0.0766
38462W        W81515  29.226  31.547  28.857  0.1055 -0.2547 -0.0419
38463W        W81516  32.849  28.184   1.751 -0.0230  0.0220 -0.0759
38464W        W81517  15.363  31.559   7.095  0.4331 -0.0086  0.0694
38465W        W81518   0.946  28.443   9.603  0.2787 -0.1237  0.2714
38466W        W81519  15.902  30.993  23.377  0.0121 -0.6266 -0.0081
38467W        W81520  19.898  26.381  29.048  0.0367 -0.1155  0.0245
38468W        W81521  25.135   3.647   1.515  0.3227  0.1619 -0.0308
38469W        W81522  28.407  26.854   8.283 -0.2911 -0.0722 -0.2156
38470W        W81523  23.199  29.005   4.425  0.1313  0.0253  0.1239
38471W        W81524  29.588   4.769  21.789 -0.1185 -0.2785  0.1539
38472W        W81525  24.688  33.309  26.881  0.1362  0.0618 -0.1200
38473W        W81526  31.880  20.593   2.715 -0.1922  0.0592  0.0014
38474W        W81527  26.114   7.880   9.498 -0.1310  0.0672 -0.1529
38475W        W81528  20.645  24.379   4.672  0.1435 -0.0858 -0.1612
38476W        W81529  28.178   5.933   1.308 -0.3162 -0.0548 -0.0516
38477W        W81530   2.111  18.162   6.074  0.3861 -0.1585 -0.3248
38478W        W81531  16.578   9.246   5.156 -0.1532 -0.0948  0.0325
38479W        W81532  14.384  22.418   2.690  0.1106  0.0233  0.2286
38480W        W81533   3.093  21.592   8.317  0.0989  0.3112  0.2637
38481W        W81534  33.057  31.101  24.117 -0.0229 -0.3257 -0.3356
38482W        W81535  24.360  28.021  25.396 -0.1117  0.2368  0.2631
38483W        W81536  25.168  23.682   7.927  0.4400  0.1181 -0.3583
38484W        W81537   7.825  19.847   5.770  0.0308  0.2149 -0.1916
38485W        W81538  17.062  33.513  24.300 -0.1474  0.0018  0.0285
38486W        W81539  31.882  32.799  26.411 -0.1364 -0.0215  0.3210
38487W        W81540  14.678  17.038   6.615 -0.0462 -0.1898 -0.0424
38488W        W81541  16.604   4.073   4.727 -0.0568 -0.2568  0.0570
38489W        W81542   8.873  26.612   4.851  0.0839  0.1620  0.0384
38490W        W81543  14.290  17.479   7.251  0.0419 -0.3895 -0.0589
38491W        W81544  21.591  18.378  22.913 -0.1126 -0.0603  0.0115
38492W        W81545  32.245  31.255   2.703  0.2009 -0.0203  0.1943
38493W        W81546  18.710  25.932  10.288 -0.0578 -0.0920 -0.1696
38494W        W81547   1.597  21.836  28.597 -0.1112 -0.0096  0.2598
38495W        W81548  22.529  30.352  28.704  0.0534 -0.1814 -0.0184
38496W        W81549   6.609  15.308  25.079 -0.1778 -0.1945  0.2474
38497W        W81550  14.410  27.206  27.716 -0.2157 -0.1225 -0.0229
38498W        W81551  30.806   3.709   4.843 -0.0897 -0.1715  0.0482
38499W        W81552  18.358  26.040   5.897  0.0552 -0.0286 -0.0916
38500W        W81553  28.955  28.384   9.569 -0.0754  0.0597 -0.0126
38501W        W81554  34.060  26.057   8.031  0.0866  0.2022  0.0704
38502W        W81555  14.796  31.960   5.150 -0.0267  0.0114  0.1715
38503W        W81556  25.352  30.414   0.646 -0.0048  0.1148  0.1208
38504W        W81557  30.656  21.243  27.426  0.0872  0.0558  0.1392
38505W        W81558  12.110  23.010  28.237  0.0449  0.0792 -0.0731
38506W        W81559  25.331  29.779  27.339  0.0727 -0.0927  0.4722
38507W        W81560  22.445   0.882  20.855  0.1759  0.0979  0.2687
38508W        W81561  34.543  31.983   5.914  0.0018  0.0188  0.1426
38509W        W81562  30.472  13.626   4.721 -0.2583  0.0051 -0.0585
38510W        W81563  20.110  29.512  21.863 -0.0878 -0.1111  0.0936
38511W        W81564  18.512  15.100  28.355  0.3237 -0.0891  0.1755
38512W        W81565   6.778  27.775   5.314  0.0430  0.0821 -0.2449
38513W        W81566  26.124  33.372   4.943  0.1100  0.1309 -0.1689
38514W        W81567   1.091  27.062  28.369  0.0716 -0.2107  0.0167
38515W        W81568   9.300  21.585  28.060 -0.0928 -0.1771 -0.0215
38516W        W81569   9.211  23.735   2.924  0.1543 -0.0269  0.0016
38517W        W81570  33.350  19.688   3.271  0.1834  0.0038  0.0769
38518W        W81571  25.099  27.599   6.634  0.1591  0.2163 -0.3932
38519W        W81572   7.524   2.871   1.292 -0.1757  0.0097  0.0705
38520W        W81573  24.951   5.559  19.092  0.0644  0.2035 -0.2681
38521W        W81574   8.506  16.097   3.986 -0.0322 -0.1511  0.2455
38522W        W81575  33.696   3.712   4.549  0.2313 -0.1703 -0.2341
38523W        W81576  17.651  17.450   3.136  0.1863 -0.0309  0.0222
38524W        W81577  25.676  11.014  18.839  0.0297 -0.0568 -0.0500
38525W        W81578  28.098   9.074   6.806  0.1997 -0.0470  0.0988
38526W        W81579  33.929  19.967  26.568  0.2982 -0.1099 -0.1307
38527W        W81580  30.002  30.983  26.627 -0.0986 -0.0181  0.0285
38528W        W81581   4.289  28.567   9.256 -0.1827 -0.1741 -0.2082
38529W        W81582  33.208   0.451   1.348  0.0960 -0.0563  0.0122
38530W        W81583  25.740  26.299   5.662 -0.2971 -0.3315 -0.0468
38531W        W81584  22.646  25.180  26.331 -0.0960 -0.1968 -0.1157
38532W        W81585  16.762   5.793  14.660 -0.3902 -0.1091 -0.3068
38533W        W81586  10.907   8.055   2.014 -0.0466  0.2156  0.2129
38534W        W81587  14.882  28.993   2.332  0.3378 -0.0698 -0.1567
38535W        W81588  20.492   4.828  10.299  0.0014 -0.1479 -0.0244
38536W        W81589  18.060  19.550   6.925 -0.0379  0.1438 -0.1572
38537W        W81590  22.240  30.289  25.280 -0.0980  0.0350 -0.2491
38538W        W81591  17.195  30.872   6.290 -0.0827 -0.0231 -0.0449
38539W        W81592  15.114  20.455   0.637 -0.0894  0.0239  0.1087
38540W        W81593  31.852  34.427   1.642 -0.1470 -0.0188  0.2131
38541W        W81594   3.187  30.550   2.705  0.0607  0.1041 -0.1000
38542W        W81595  20.963   0.120   4.137  0.2387  0.0611  0.2924
38543W        W81596  20.637  30.934   2.369  0.2821 -0.0086 -0.0140
38544W        W81597  30.470  30.736  24.967  0.0103  0.0161 -0.1221
38545W        W81598  29.117  27.492   1.379  0.1904 -0.3156  0.0452
38546W        W81599  28.969  30.641  16.347 -0.2351 -0.1492 -0.0358
38547W        W81600   2.322  19.675   0.361  0.0891 -0.1881 -0.0075
38548W        W81601  24.768  21.872   6.734 -0.2010 -0.0360 -0.0657
38549W        W81602  34.662  26.721   6.106 -0.0586  0.1871  0.0887
38550W        W81603   9.471  17.773   2.452 -0.0728  0.2284  0.2169
38551W        W81604  32.869  24.666  21.292  0.0877 -0.0076  0.2656
38552W        W81605  18.125  17.856   7.652  0.0747  0.0041 -0.1330
38553W        W81606  20.539  20.157   6.759  0.0061 -0.1794  0.0598
38554W        W81607  33.812  16.224  28.590 -0.2735  0.2079  0.2404
38555W        W81608  28.329   4.749   3.126 -0.1735  0.1594 -0.3292
38556W        W81609  27.365  21.191  26.329  0.2373  0.0100  0.1995
38557W        W81610  31.608  12.338  27.720 -0.0057  0.1393 -0.0407
38558W        W81611  25.063  34.584   2.541  0.1659 -0.3417  0.1826
38559W        W81612  32.493   4.691   6.636 -0.1562  0.1997 -0.2222
38560W        W81613  25.765  12.752  27.034  0.1070  0.0672  0.0679
38561W        W81614  25.391  30.347   7.406 -0.1822  0.1217 -0.0306
38562W        W81615   3.082  32.132   6.643 -0.0020 -0.2531 -0.0289
38563W        W81616   5.439  33.234   6.399  0.3315  0.4746  0.0602
38564W        W81617  27.882  25.121   4.197  0.2513  0.2558  0.0345
38565W        W81618  33.283   8.854  26.294  0.2802 -0.2879 -0.2403
38566W        W81619  18.587  22.597   3.806  0.1329  0.2101  0.1210
38567W        W81620  29.119  22.217   4.448  0.1459 -0.0073  0.1764
38568W        W81621  26.990  18.048   3.182 -0.1515 -0.2331 -0.2867
38569W        W81622  25.506  33.456  22.306 -0.1992  0.1190 -0.0507
38570W        W81623  29.788  28.207   9.446 -0.1188 -0.0634 -0.1991
38571W        W81624   3.424  27.306   1.509  0.0839  0.1420  0.0250
38572W        W81625  14.033  23.307   3.763  0.0112  0.4693  0.2832
38573W        W81626   4.373  11.241  22.832  0.0314  0.0547  0.0449
38574W        W81627  11.671  17.789   0.298 -0.1016  0.0100  0.1284
38575W        W81628  24.410   6.004   6.518 -0.0987  0.3632 -0.0917
38576W        W81629  25.534  33.019  25.605 -0.0361  0.1254  0.2907
38577W        W81630  21.595  10.487   9.238  0.0379  0.0224 -0.1472
38578W        W81631  23.789  28.373   8.627  0.0990  0.0913 -0.0017
38579W        W81632   0.526  28.720   4.549  0.0871  0.1149  0.0780
38580W        W81633   5.226  17.404   0.856  0.3239 -0.0558  0.1926
38581W        W81634  18.348  29.585   9.191  0.1551 -0.1426  0.1138
38582W        W81635  26.326  22.151  19.485  0.3111  0.0184 -0.3192
38583W        W81636  30.505  31.694  17.055  0.2835 -0.1720  0.1381
38584W        W81637  24.834  31.126   3.290  0.0887 -0.0835  0.1479
38585W        W81638   1.351  28.985   4.545  0.0396  0.1598 -0.3821
38586W        W81639  33.878  25.588   9.179 -0.0211 -0.0699  0.0830
38587W        W81640   0.639  30.162  22.463 -0.3219 -0.1532 -0.0478
38588W        W81641  27.010  20.548  14.290  0.4034  0.3301 -0.1008
38589W        W81642   3.189   5.390   6.702 -0.1305 -0.3212  0.0488
38590W        W81643  31.560   2.933  21.368  0.0075 -0.3207  0.3608
38591W        W81644  26.747  25.490   3.918 -0.1044  0.3337 -0.3191
38592W        W81645  27.320  19.556   1.375  0.2484 -0.3263 -0.0674
38593W        W81646  28.816  23.548   5.587  0.2137  0.1864 -0.0070
38594W        W81647  24.240   2.433   6.408  0.1104  0.0357  0.0431
38595W        W81648  26.665  29.926   4.801 -0.0143  0.1546 -0.0171
38596W        W81649   2.762  23.124   1.784  0.0277  0.1925 -0.0618
38597W        W81650  16.550  11.154   2.756  0.2767  0.0494  0.1069
38598W        W81651   8.112  30.034   1.535 -0.2501 -0.0811  0.1692
38599W        W81652  25.450  33.568  23.270  0.1134 -0.0992 -0.0936
38600W        W81653  30.052   3.124  26.091 -0.1658  0.0227  0.0886
38601W        W81654  17.225  19.401   9.688  0.1817  0.1900 -0.2621
38602W        W81655   1.392  32.757  24.943  0.3030  0.2532 -0.0650
38603W        W81656  29.984   1.274   5.245  0.1845  0.0186  0.2178
38604W        W81657   8.889   6.403  22.933 -0.0520  0.0256 -0.1637
38605W        W81658  29.610  29.786  24.472 -0.1510  0.1546 -0.0460
38606W        W81659  27.527  14.511  15.962  0.3200 -0.0042 -0.1743
38607W        W81660   2.962   2.191   8.497  0.2257 -0.1440 -0.0019
38608W        W81661  30.049  28.706  18.688 -0.3346  0.1078 -0.0749
38609W        W81662  17.487  33.306  26.287  0.0067  0.3759  0.0193
38610W        W81663  31.883  28.486  26.399  0.0846  0.1283 -0.0949
38611W        W81664  23.812  16.022  17.316 -0.0214 -0.2944 -0.2557
38612W        W81665  18.685  10.439   2.547  0.2594  0.2154 -0.1025
38613W        W81666  22.501   4.993  10.373 -0.0758  0.1790  0.0494
38614W        W81667  34.074  24.048   5.171  0.0108  0.1497 -0.0267
38615W        W81668  30.025  29.451   4.568  0.3731 -0.0194  0.0125
38616W        W81669  27.416  32.523   7.426 -0.0498 -0.0222 -0.1179
38617W        W81670  15.775  19.179   9.759 -0.0110  0.2511 -0.0350
38618W        W81671  17.175   8.692   2.101 -0.1100 -0.1543  0.1026
38619W        W81672  10.218  27.541   2.625 -0.3151  0.0278 -0.0631
38620W        W81673  12.356  28.024   1.332  0.2984  0.2804  0.0445
38621W        W81674  31.301  24.958  18.896 -0.2082  0.0386 -0.3526
38622W        W81675  29.928   4.028  27.084  0.0665 -0.0303 -0.1236
38623W        W81676  14.557  25.767  19.804 -0.0189  0.3609  0.1511
38624W        W81677   6.076   0.187   7.748 -0.0295  0.1554 -0.1858
38625W        W81678  22.525  16.472   7.093 -0.2867  0.1270 -0.0422
38626W        W81679  27.201  29.427   6.053 -0.0965 -0.0071  0.0421
38627W        W81680  17.549  12.663   8.607 -0.2987 -0.3124 -0.1551
38628W        W81681   8.597  34.387  25.483  0.1508  0.0631 -0.1125
38629W        W81682  26.087  21.292  24.646  0.2211  0.0549  0.2464
38630W        W81683  10.592  25.760  26.922 -0.1997 -0.2746 -0.1565
38631W        W81684  21.309  19.209   7.872 -0.4376  0.0587 -0.1713
38632W        W81685   8.792  31.786  13.831  0.1068 -0.0793 -0.1505
38633W        W81686  24.259  27.103  27.540 -0.0530 -0.1339  0.1374
38634W        W81687   5.692  22.611   8.058  0.2104  0.3092 -0.2869
38635W        W81688  29.473  24.050  24.505 -0.1204  0.0298 -0.0931
38636W        W81689  17.707   8.912   7.329  0.0931 -0.2139  0.0334
38637W        W81690  24.107  22.984  26.482 -0.1430 -0.0539  0.5760
38638W        W81691   1.469   4.464   2.511  0.0633  0.2064 -0.2227
38639W        W81692  30.504  22.766  26.550  0.0991  0.1901 -0.1170
38640W        W81693  23.724  12.485  21.384 -0.3669 -0.1464 -0.0040
38641W        W81694  22.059  22.476   9.363  0.0183 -0.0706 -0.2319
38642W        W81695   9.395  33.966  28.905 -0.0031 -0.0362 -0.1483
38643W        W81696  10.269  28.508   9.261  0.1863  0.0152  0.0241
38644W        W81697  27.301   2.931  24.185  0.3463 -0.2257 -0.0502
38645W        W81698  15.242  28.544   4.552  0.1580 -0.0295  0.1000
38646W        W81699  24.611  30.927   7.585  0.3572 -0.0594 -0.0116
38647W        W81700  28.956  28.811   1.616 -0.0735  0.3777  0.2561
38648W        W81701   3.999  32.670   5.689  0.0956 -0.0450  0.0427
38649W        W81702   4.537  25.608   8.685 -0.0903  0.2628 -0.0411
38650W        W81703   7.917  34.507  15.357  0.0404  0.2087  0.0688
38651W        W81704  28.451   6.883  16.969 -0.1634 -0.1709  0.1907
38652W        W81705   0.476  22.855   5.474  0.2238  0.0253 -0.2483
38653W        W81706  23.908  26.759  27.694  0.0264  0.0624 -0.0130
38654W        W81707  12.100   5.083   3.866  0.2977  0.0885  0.1659
38655W        W81708   4.177  11.860   9.172 -0.1029  0.0642  0.3559
38656W        W81709   5.307  27.458  23.370 -0.0073  0.0406 -0.0905
38657W        W81710  30.578  25.229  27.971 -0.0651  0.2692 -0.2625
38658W        W81711  17.431  27.858  26.029 -0.2557 -0.1677 -0.0209
38659W        W81712  24.397  32.540  28.755  0.1025 -0.0527  0.0183
38660W        W81713  31.055  15.155   2.280  0.0446  0.1294 -0.1754
38661W        W81714  25.706   1.535  26.632  0.1380  0.2471 -0.2310
38662W        W81715  21.351   5.669   7.043 -0.3252 -0.0438  0.2209
38663W        W81716  12.135  18.329  14.844 -0.0894  0.0965  0.0683
38664W        W81717   5.261  23.261   0.526  0.1001  0.1097 -0.0071
38665W        W81718  19.382  29.701   1.914 -0.1454  0.1375 -0.0454
38666W        W81719  27.217  34.333  25.813 -0.1046  0.2675 -0.1362
38667W        W81720  32.988  13.289   9.784  0.0471 -0.0793  0.0772
38668W        W81721  23.984  25.244  17.902  0.1970  0.1758 -0.0714
38669W        W81722  32.637  15.873   5.588 -0.0819  0.2715  0.1106
38670W        W81723  21.750   7.764  23.165 -0.4384  0.0508  0.2208
38671W        W81724  34.131  24.447  23.960  0.2169 -0.0266  0.1663
38672W        W81725  25.224   7.122  28.544 -0.1857  0.1725 -0.0257
38673W        W81726  32.896  34.358  20.718  0.1945 -0.0220 -0.0455
38674W        W81727   6.167  29.233   8.474  0.0090 -0.0628  0.0330
38675W        W81728  10.698   1.162  29.056  0.3897  0.2703 -0.0992
38676W        W81729  22.340  14.853  20.857 -0.5408  0.2311  0.3924
38677W        W81730  26.694   4.154   5.869 -0.1195 -0.0737 -0.1801
38678W        W81731  15.726   7.100  27.741 -0.5463  0.0676 -0.0694
38679W        W81732  13.515  24.137  25.577  0.0447  0.4005  0.1696
38680W        W81733  27.108  20.586  13.794  0.1841 -0.0318 -0.0049
38681W        W81734  12.540   6.430  22.835  0.1007 -0.1780 -0.2694
38682W        W81735  30.178  23.116   0.706 -0.0478  0.0190 -0.1237
38683W        W81736  23.671  16.111   6.447 -0.0308 -0.0935 -0.1203
38684W        W81737  15.670  28.368   7.184 -0.0102 -0.2123  0.0909
38685W        W81738  25.463   3.741  22.167 -0.0734  0.1667 -0.0410
38686W        W81739  26.997   8.553   5.618 -0.1886 -0.2273 -0.0916
38687W        W81740  14.409  21.959  27.952  0.1443  0.1860 -0.1536
38688W        W81741  23.819  20.862   6.740  0.2612 -0.1831  0.0642
38689W        W81742  23.465  20.572  23.881 -0.1140  0.2480 -0.2212
38690W        W81743   6.310   3.383  17.629 -0.2285  0.2913  0.0256
38691W        W81744  18.925   3.383   9.701 -0.1321 -0.0568  0.3372
38692W        W81745  26.998  15.755  24.841  0.3510 -0.2007  0.3485
38693W        W81746  22.713   0.055  22.824  0.2755 -0.0373 -0.0296
38694W        W81747  26.268  33.528  28.303  0.0794  0.3654 -0.2016
38695W        W81748   0.359  29.468   1.212 -0.2736  0.1615  0.1529
38696W        W81749  16.941  29.076  20.048 -0.2700  0.1150  0.0108
38697W        W81750  30.294  33.238  19.519 -0.1732 -0.0779 -0.3774
38698W        W81751  12.249   0.872  28.728  0.1078 -0.0163  0.0564
38699W        W81752  15.769  27.314   0.349 -0.0539  0.2879 -0.5331
38700W        W81753   1.683  22.841   8.256  0.2300  0.1879  0.0054
38701W        W81754   3.647  17.796   0.467  0.0569 -0.0188 -0.4168
38702W        W81755  10.586   5.326  21.455  0.0597  0.2322 -0.0854
38703W        W81756   3.756   6.602  21.690  0.1122 -0.1247 -0.0915
38704W        W81757  32.092   7.222   0.898 -0.2820 -0.2954  0.0659
38705W        W81758   5.085  25.990  27.519 -0.0393  0.0586 -0.0606
38706W        W81759  11.634  28.966  20.514 -0.2629  0.1577  0.2671
38707W        W81760  22.821   1.313  25.056 -0.1645 -0.1635  0.1823
38708W        W81761  25.527   5.391  26.007 -0.0750 -0.0268  0.1292
38709W        W81762  29.148  33.244  15.007  0.1769 -0.1326 -0.1584
38710W        W81763  14.199  15.891   6.139 -0.0153 -0.1209 -0.2157
38711W        W81764  17.534  29.725  26.402 -0.2424 -0.2121  0.2265
38712W        W81765  34.513   8.884   9.335  0.0858 -0.0595 -0.1100
38713W        W81766   4.119   1.792   3.852  0.1602 -0.1371 -0.4279
38714W        W81767  30.109  28.137  28.234  0.0623  0.2161 -0.0950
38715W        W81768  10.504   7.469   0.044 -0.1361  0.0093  0.1864
38716W        W81769  19.509  20.677   0.507 -0.0013  0.1877  0.1426
38717W        W81770  27.272   1.105   3.030 -0.0531  0.1066 -0.1366
38718W        W81771   0.580  23.354  26.988 -0.2751 -0.1669  0.0743
38719W        W81772  22.904  27.702  25.153  0.1396  0.1820 -0.1938
38720W        W81773  32.131  25.383  22.139 -0.0765 -0.0559  0.1330
38721W        W81774  22.887  33.020  13.999 -0.0500 -0.3523 -0.2112
38722W        W81775  19.263  25.127  27.258  0.3553 -0.1445  0.4695
38723W        W81776  22.160   1.277  15.085 -0.0619 -0.0987 -0.1408
38724W        W81777  15.347   1.261   5.616 -0.0241  0.1783  0.1209
38725W        W81778  24.683  28.860   2.074 -0.0346 -0.1900 -0.0207
38726W        W81779   6.345  25.289  17.013  0.1519 -0.1228  0.0974
38727W        W81780  15.786  13.564  28.623  0.2554  0.0684 -0.2955
38728W        W81781   1.766  21.088  27.363 -0.2092 -0.1122  0.1481
38729W        W81782  30.429  16.852   6.739  0.0060  0.0904  0.0972
38730W        W81783   3.366  31.757  22.564  0.2181 -0.2266 -0.0949
38731W        W81784  33.319  25.390  26.104  0.1504  0.1950  0.1062
38732W        W81785  19.544  31.317   3.504  0.1724 -0.1693 -0.0168
38733W        W81786  21.203   4.381  24.865  0.0131 -0.1088 -0.2812
38734W        W81787  19.895  20.873   4.134 -0.2583  0.2577  0.0073
38735W        W81788  33.832  14.645   5.822 -0.3081 -0.2896  0.1597
38736W        W81789  16.992  31.327  26.995  0.0044 -0.0096 -0.3804
38737W        W81790  26.523  33.126   4.127  0.0072 -0.2618 -0.0728
38738W        W81791  19.551  33.282   1.958  0.0453  0.0541 -0.3498
38739W        W81792  25.521  22.226  10.377 -0.0836 -0.0839  0.0718
38740W        W81793  31.339  29.230   0.689  0.3917  0.1947  0.0526
38741W        W81794  31.349   3.349   5.358  0.3191  0.0994 -0.0873
38742W        W81795  15.625  29.007  16.210  0.1389  0.4328  0.1097
38743W        W81796  24.711   4.623  27.627  0.2549 -0.0661  0.0171
38744W        W81797  27.635  25.958   2.227 -0.3047  0.0181  0.3647
38745W        W81798  31.736  20.902  18.160  0.0091  0.2023 -0.2797
38746W        W81799  12.104  19.025  21.921  0.0298  0.0767  0.3016
38747W        W81800  22.397  31.218  24.495  0.1228  0.2432  0.2043
38748W        W81801   1.867  32.155   4.138 -0.0935 -0.0816  0.0612
38749W        W81802  19.502   4.206  19.047 -0.2325 -0.0326 -0.1194
38750W        W81803   6.971  25.590   8.272  0.0967 -0.0496  0.1009
38751W        W81804   7.590  31.787  15.318 -0.0130 -0.0593 -0.0842
38752W        W81805  23.006  33.609  24.809  0.1007  0.0923 -0.1851
38753W        W81806  10.389  33.149   7.015 -0.0349  0.3953  0.1431
38754W        W81807  19.462   2.875   5.874 -0.3202 -0.2023 -0.2173
38755W        W81808  26.094   9.817   9.922  0.1371 -0.3508 -0.2152
38756W        W81809  28.740   6.474   4.816 -0.2679 -0.0528 -0.0801
38757W        W81810  33.986  16.418   0.672 -0.2661 -0.1408 -0.0813
38758W        W81811  15.980   1.102   3.961 -0.2454 -0.0201 -0.0413
38759W        W81812   0.362  30.723  27.508  0.0451  0.1311  0.3792
38760W        W81813  19.324  18.697   5.509 -0.0165  0.0839 -0.1899
38761W        W81814  26.064  13.555   0.721 -0.1031 -0.0572  0.3359
38762W        W81815  10.769  30.093  24.596  0.0774 -0.0143  0.1733
38763W        W81816  23.814  26.503   7.736  0.0723 -0.0399 -0.1568
38764W        W81817  16.054   4.339  23.167 -0.1279 -0.0064  0.1066
38765W        W81818  30.388  15.270  17.838  0.2606  0.2413 -0.2664
38766W        W81819  26.699   1.463  28.841  0.2024  0.3994  0.2292
38767W        W81820  25.532   6.503  27.502  0.0551  0.3155 -0.1436
38768W        W81821  22.167  31.873   4.950 -0.0220 -0.1419 -0.1446
38769W        W81822  25.039  27.829   9.891  0.1940 -0.1260  0.1369
38770W        W81823  19.307  23.328  19.558  0.3187  0.1722 -0.1253
38771W        W81824  29.374  18.684   6.819  0.0249 -0.1429 -0.1355
38772W        W81825   9.508   2.634  26.157  0.1946 -0.1671  0.1920
38773W        W81826  22.904  24.129  10.929  0.0350 -0.0923 -0.0663
38774W        W81827  10.840  32.272   5.122  0.1229 -0.0094 -0.3818
38775W        W81828  14.697  18.920  21.860  0.0722 -0.3447  0.2543
38776W        W81829  32.717   2.367   3.957 -0.1851 -0.1296  0.3942
38777W        W81830   7.753   8.514  10.379 -0.1100 -0.3072  0.0897
38778W        W81831   5.150   0.215   5.283  0.0660  0.1663  0.0768
38779W        W81832  30.667  31.870   4.845 -0.3155  0.4966  0.1347
38780W        W81833  19.929  32.930  19.467 -0.0227 -0.0946  0.0787
38781W        W81834   1.752  27.434  13.209  0.0453  0.0493 -0.3099
38782W        W81835  29.518  31.884  28.611 -0.1300  0.1363 -0.3457
38783W        W81836   3.435   4.765   5.198  0.1752 -0.1131  0.0676
38784W        W81837   5.106  21.011   3.928 -0.3653  0.3704  0.2814
38785W        W81838  33.034  26.838  24.089 -0.1260  0.0181 -0.0608
38786W        W81839  18.646  24.229  28.372  0.2367 -0.4233  0.2613
38787W        W81840  31.053   3.693   3.959 -0.0060  0.0314 -0.0798
38788W        W81841   9.439  25.258   8.541 -0.0793  0.1845  0.0822
38789W        W81842  30.023   3.585  23.117 -0.0016 -0.1091  0.0414
38790W        W81843  10.563  25.465  25.738 -0.2087 -0.4709  0.0177
38791W        W81844  19.664  18.068  18.878  0.2491  0.1760  0.4301
38792W        W81845  16.289  29.529  26.247  0.1384 -0.3553 -0.1939
38793W        W81846  25.588   6.357   6.972  0.0484  0.0019 -0.0968
38794W        W81847  16.657  20.937  26.802  0.1547 -0.3843  0.1100
38795W        W81848  24.144  33.178  26.005 -0.0398 -0.0007  0.2735
38796W        W81849  25.363  34.253  24.044 -0.0135 -0.1041  0.0401
38797W        W81850  17.731  11.594   0.485 -0.0375  0.2673 -0.0278
38798W        W81851  22.575  24.876  25.083  0.1372 -0.0894 -0.0394
38799W        W81852  28.529  34.011   0.939 -0.4651  0.1401  0.3955
38800W        W81853   2.685   6.807   4.353  0.2212 -0.0743 -0.4954
38801W        W81854  15.510  26.003   9.650  0.1653  0.1286  0.2135
38802W        W81855  18.907  12.809  29.137 -0.0054 -0.1430 -0.1483
38803W        W81856  12.224   4.218  28.299 -0.4842  0.0126 -0.1888
38804W        W81857   8.970   1.099   1.252 -0.1347 -0.4688  0.4190
38805W        W81858  28.352  26.319  22.505 -0.0271 -0.0657 -0.1997
38806W        W81859  29.237  30.422  26.032  0.0176  0.2396 -0.0721
38807W        W81860  22.914  19.942   4.397  0.0651  0.1876 -0.0141
38808W        W81861  25.900   0.635  27.208  0.1257 -0.0455 -0.1814
38809W        W81862  28.215  13.789  24.989 -0.3264 -0.0271  0.0402
38810W        W81863  27.421  21.942  28.388  0.0996 -0.1703 -0.2190
38811W        W81864  26.229   9.875  25.228 -0.2927 -0.3087 -0.1123
38812W        W81865  33.374   8.664  28.378  0.2093  0.1156  0.0293
38813W        W81866   5.826  28.952   8.787  0.4202  0.1027 -0.0911
38814W        W81867  31.336   3.238   4.005 -0.1387 -0.1862  0.2948
38815W        W81868  19.961  10.454   4.495 -0.2538  0.2245 -0.0388
38816W        W81869  25.936  18.907   6.654  0.0420  0.2590 -0.0220
38817W        W81870  13.492  17.994   7.342  0.0260 -0.2647 -0.4033
38818W        W81871  31.016  23.630   2.168  0.2661 -0.2734 -0.2150
38819W        W81872  16.550  29.703   1.743  0.0265  0.1258  0.0308
38820W        W81873  31.301  23.073   6.929 -0.0002 -0.2250 -0.1150
38821W        W81874  23.668  33.931   5.406  0.0385  0.1668  0.0498
38822W        W81875   0.142   8.617   3.543 -0.0404 -0.1627 -0.3286
38823W        W81876  16.145  14.256   2.529 -0.1890  0.1964 -0.3330
38824W        W81877  26.244  28.226   5.599  0.1997  0.0967  0.1155
38825W        W81878  23.380   8.766   7.203 -0.2050  0.1920 -0.2680
38826W        W81879  18.770  29.521   8.530  0.1634 -0.1943 -0.1324
38827W        W81880  22.545  27.923   6.710 -0.2833 -0.2695 -0.3438
38828W        W81881  18.352   0.423  20.117  0.0608 -0.1773 -0.0043
38829W        W81882  23.853  10.213  25.991  0.1266  0.2343 -0.0526
38830W        W81883  32.355  20.054   0.479 -0.1277 -0.0706  0.1515
38831W        W81884  23.578   7.044   9.184  0.2484 -0.1956  0.1158
38832W        W81885  20.594   0.550  16.704  0.3602  0.0690  0.0170
38833W        W81886  16.796  28.337   4.070  0.2374  0.1611  0.0135
38834W        W81887  29.976  30.473  25.860 -0.2250  0.1160  0.1469
38835W        W81888   3.450  31.506   6.183  0.1632  0.2634  0.0479
38836W        W81889   3.714  29.784  28.327  0.1170  0.4572 -0.2364
38837W        W81890   9.833  20.508  26.475  0.1886  0.4472 -0.0476
38838W        W81891  13.167  27.984   1.744 -0.0298  0.0413  0.1544
38839W        W81892  25.437  24.821  20.459 -0.0181  0.0266 -0.1962
38840W        W81893  22.165   4.608   5.580 -0.2307 -0.0840 -0.0596
38841W        W81894  31.511   4.329   3.319 -0.0748  0.0393 -0.1180
38842W        W81895   0.591  30.055   8.268 -0.2055 -0.0446  0.0175
38843W        W81896  22.281  11.692  25.368 -0.0152  0.1614 -0.0199
38844W        W81897  33.094  34.100  16.912  0.1581  0.1677  0.1870
38845W        W81898   3.854  26.804   2.949 -0.3104 -0.0161 -0.2167
38846W        W81899  20.450   6.996  25.667 -0.0660  0.0185 -0.2582
38847W        W81900  24.982  23.539   1.438 -0.1308  0.0719  0.0466
38848W        W81901   8.764  33.750   9.332  0.1279  0.1537 -0.1072
38849W        W81902  22.402  25.689   8.859  0.2261  0.1798  0.1359
38850W        W81903  21.496  19.903   0.609  0.2503  0.1324 -0.1143
38851W        W81904  28.281   3.443   3.167  0.2978  0.3536 -0.1129
38852W        W81905  26.811   5.704  27.844 -0.3019  0.2460  0.1124
38853W        W81906  27.515  33.573  25.563  0.2635 -0.2286 -0.3043
38854W        W81907  34.596  15.634  20.603 -0.0257  0.0891 -0.1388
38855W        W81908  25.611  19.608  18.969 -0.1256 -0.0862 -0.1413
38856W        W81909  30.149  12.997   8.602  0.0234 -0.1718  0.0817
38857W        W81910  12.985   5.929   3.070 -0.1871 -0.1601  0.1019
38858W        W81911  22.536   3.784   8.534  0.0825 -0.0805 -0.0731
38859W        W81912   0.039   3.809   1.865 -0.1269  0.0845  0.1659
38860W        W81913  28.202   6.470   2.349  0.1369  0.2265 -0.6060
38861W        W81914  18.922  33.296   4.925 -0.0650 -0.0744  0.3483
38862W        W81915  33.020  13.968   3.217 -0.2733  0.0064  0.5106
38863W        W81916  15.864   1.165  18.632  0.0530 -0.0188  0.1171
38864W        W81917   4.591  24.905  27.119  0.1264  0.1042 -0.1321
38865W        W81918  30.581  25.944   3.338  0.0965  0.0358 -0.2126
38866W        W81919   0.344  17.453   2.750 -0.0013 -0.1776 -0.0945
38867W        W81920  26.180   5.888  25.218  0.0220  0.1670  0.0447
38868W        W81921  14.600  22.125   8.953 -0.1322 -0.0928  0.1879
38869W        W81922  32.145  29.259   1.354 -0.1069 -0.2850  0.3157
38870W        W81923  15.020  25.369   2.743 -0.0893 -0.0243  0.0469
38871W        W81924  16.279  29.016   8.922 -0.0883  0.2445 -0.0869
38872W        W81925  32.137  12.475   0.040  0.0016 -0.0627  0.3687
38873W        W81926  26.784  34.109   0.994  0.0423  0.0142  0.3821
38874W        W81927   0.437  27.555  26.827 -0.0255 -0.1006 -0.2269
38875W        W81928  31.700  23.428  27.261 -0.4883  0.1681 -0.0380
38876W        W81929  32.749  31.431  15.313  0.2939  0.3943  0.0432
38877W        W81930   7.904  19.354   5.806  0.3094 -0.0711  0.1352
38878W        W81931  21.779  29.048   6.810  0.0792 -0.0192 -0.1850
38879W        W81932  14.662   9.332  15.944  0.0362 -0.0749 -0.5872
38880W        W81933   5.247   0.106   8.269  0.2342 -0.1902  0.1434
38881W        W81934   8.333  33.557   4.592 -0.2173 -0.0241  0.1893
38882W        W81935   2.547  17.018   4.788  0.2094  0.3232  0.0456
38883W        W81936  14.678  27.615   9.626  0.1310 -0.1789 -0.0967
38884W        W81937  28.726  26.917   7.338 -0.3439 -0.3261  0.2062
38885W        W81938   8.354  31.354   3.620 -0.3076  0.0263  0.0775
38886W        W81939  27.630  31.981  20.005 -0.5068 -0.1490  0.2706
38887W        W81940  26.497  31.071   8.708 -0.0367 -0.0825 -0.1816
38888W        W81941  24.342  14.012  26.580  0.0731  0.0993  0.2173
38889W        W81942  19.665  33.864  27.210 -0.0721 -0.1914 -0.1930
38890W        W81943  30.245  30.249   6.375  0.3131 -0.0704  0.2819
38891W        W81944   2.532   8.678  25.329  0.2605 -0.1373  0.0586
38892W        W81945  25.950   9.817   2.965 -0.1170 -0.2055 -0.2024
38893W        W81946  18.834  12.718   9.216  0.1633  0.4317  0.2178
38894W        W81947  16.249  34.582   0.154 -0.3146  0.2768  0.0300
38895W        W81948  26.939   7.169  16.415  0.1207 -0.0997  0.0916
38896W        W81949   1.460  32.001   5.290  0.2564 -0.1542  0.0410
38897W        W81950  20.577  30.878   6.221  0.0216  0.1317 -0.2262
38898W        W81951  12.827  14.537   0.063  0.1137 -0.4538  0.1734
38899W        W81952  20.802  28.352  15.198  0.1554  0.0077  0.1580
38900W        W81953  31.173  31.172   5.846 -0.0866  0.1561 -0.0308
38901W        W81954  28.767  26.851  28.300  0.3064 -0.1738  0.0226
38902W        W81955  21.224  15.303   0.240 -0.3565 -0.1152 -0.0202
38903W        W81956   2.563   0.778   6.323  0.0306 -0.4190 -0.0488
38904W        W81957  13.773  28.900   8.174 -0.3241 -0.1845 -0.0688
38905W        W81958  23.395   1.868   3.657 -0.2148  0.0281  0.0778
38906W        W81959   3.851  10.546  18.320  0.1883 -0.1817 -0.1862
38907W        W81960   2.490  19.092  25.409  0.1402  0.0050 -0.2741
38908W        W81961   1.736   8.363   4.487  0.2618 -0.2813 -0.1302
38909W        W81962   7.930  20.234   4.747 -0.0626  0.3989  0.5400
38910W        W81963  34.583   7.895  26.115  0.1252 -0.2359  0.1472
38911W        W81964   2.881  17.307  27.319  0.0748  0.0578 -0.0853
38912W        W81965  13.486  25.470   1.229 -0.3066 -0.0327 -0.1519
38913W        W81966  14.169  13.248   8.012  0.2178  0.1492  0.1234
38914W        W81967  17.637  24.128  10.747 -0.0563 -0.0675 -0.6686
38915W        W81968  33.009  30.554   6.075  0.2832 -0.0651  0.0001
38916W        W81969  25.971   1.633  28.084 -0.0941  0.1378 -0.1043
38917W        W81970  18.355  26.881   5.967  0.0921 -0.2571  0.1136
38918W        W81971  31.093   6.818   9.036  0.1674 -0.1900 -0.0136
38919W        W81972  16.022  13.716  21.823 -0.1848 -0.1022 -0.1096
38920W        W81973  32.410   8.019   6.771  0.3563  0.0118  0.1809
38921W        W81974  19.510  24.716  27.126  0.1817  0.0549  0.0877
38922W        W81975  31.946  18.007   0.580  0.0228 -0.1913 -0.3541
38923W        W81976   0.433  27.132  28.263  0.0145  0.1167 -0.3662
38924W        W81977  23.690   7.931  25.302 -0.0679  0.4475 -0.1516
38925W        W81978   1.879  27.254  23.928  0.1618 -0.2099 -0.0969
38926W        W81979  12.326  30.828   8.723 -0.2156  0.0990  0.0363
38927W        W81980  16.816  25.904  18.426 -0.0339  0.0624  0.2950
38928W        W81981  17.165   4.761  24.658  0.2205  0.2130 -0.4950
38929W        W81982  33.332   2.648  24.143  0.2055  0.1949 -0.1666
38930W        W81983  29.323  33.005   0.808 -0.0128 -0.1881  0.1829
38931W        W81984  32.507   3.926  17.416  0.1946  0.0595  0.0689
38932W        W81985   0.326   4.622   1.768 -0.1886  0.0626 -0.1046
38933W        W81986  18.354  34.611   8.329 -0.0039 -0.1859  0.1287
38934W        W81987  17.108  28.245  10.621  0.0982  0.0040  0.1844
38935W        W81988   7.109  26.184   4.975  0.3934 -0.1417 -0.2330
38936W        W81989   9.284  22.744   6.317 -0.0725 -0.2239 -0.0513
38937W        W81990  31.654  31.179  20.608  0.0509  0.1033  0.2122
38938W        W81991  18.138  15.941  22.977 -0.1177 -0.1014 -0.0482
38939W        W81992  21.596   1.419   5.916 -0.0447 -0.0901  0.0516
38940W        W81993  30.767  11.796  10.428  0.1406  0.1070  0.1641
38941W        W81994   2.234  29.700   4.032  0.2114  0.3169 -0.0256
38942W        W81995  22.440  27.316   3.304  0.0453  0.0449 -0.0332
38943W        W81996  22.495  32.143  10.221 -0.0824  0.1403 -0.2523
38944W        W81997  28.648  23.986   0.165 -0.1696 -0.1389 -0.1219
38945W        W81998  30.374   5.149   2.268  0.0706 -0.2231  0.0194
38946W        W81999  32.212   3.031   5.607  0.1395 -0.0614 -0.1720
38947W        W82000   3.785  34.613   3.363 -0.0663  0.0441  0.1281
38948W        W82001   4.220  12.952   3.067  0.0703 -0.1255  0.2143
38949W        W82002  19.590  32.938   8.111 -0.2419  0.0129  0.2100
38950W        W82003  31.101   3.742  29.160 -0.1201 -0.0503 -0.2368
38951W        W82004  26.907   0.424  22.920  0.0983  0.0184 -0.0554
38952W        W82005  18.134  30.026   8.470 -0.3446 -0.1123  0.2199
38953W        W82006  27.620  12.923  20.100 -0.2455 -0.0145  0.2175
38954W        W82007   9.512   9.190   0.062 -0.3639  0.2236  0.0837
38955W        W82008  18.246  30.945  25.123  0.1098 -0.1629 -0.0983
38956W        W82009  10.971   2.506   7.009  0.0120 -0.0279  0.2014
38957W        W82010   5.298   1.323   0.646  0.2294 -0.0679 -0.1046
38958W        W82011  33.350   2.764   0.693  0.3441  0.0648 -0.0981
38959W        W82012   1.080  19.206   6.286  0.1426 -0.0120  0.1214
38960W        W82013  27.329   2.389   7.678 -0.1718  0.1761 -0.2237
38961W        W82014  15.977   0.043  10.069 -0.2523  0.1592 -0.0722
38962W        W82015  23.554  14.309  27.108 -0.0101  0.2488 -0.0545
38963W        W82016  24.503   3.188  24.941 -0.3405  0.2418 -0.1320
38964W        W82017  28.279  29.587  27.272  0.1629 -0.0847  0.0977
38965W        W82018  19.115  25.194   1.679  0.1460  0.0990 -0.0990
38966W        W82019  29.893  10.227   7.716  0.5486  0.0637  0.0853
38967W        W82020  22.898   1.089  28.976 -0.1758 -0.2234 -0.0896
38968W        W82021  32.591   3.292   3.744  0.0216  0.1192 -0.3975
38969W        W82022  33.682  14.507   2.788 -0.0726 -0.1335  0.0901
38970W        W82023  24.397  28.044   4.882 -0.0547 -0.0512  0.0764
38971W        W82024  14.442  21.243   3.242 -0.0588 -0.0949  0.0514
38972W        W82025  23.252  34.116   7.966 -0.1219  0.4705 -0.4439
38973W        W82026  18.361  27.772   5.168  0.0766  0.0039 -0.0649
38974W        W82027  16.297  18.925  23.695 -0.1372  0.2371 -0.2544
38975W        W82028  26.437   6.099   3.108  0.1587  0.0902 -0.0249
38976W        W82029   1.532  18.326   3.604 -0.3170 -0.1710 -0.0050
38977W        W82030  20.687  24.555   9.264  0.1811  0.0942 -0.1024
38978W        W82031   2.077  27.522  21.939  0.0971 -0.0474 -0.1226
38979W        W82032   2.143   3.614   1.337 -0.1186  0.0778  0.0519
38980W        W82033  27.868  24.982  23.980 -0.2109  0.5814  0.0043
38981W        W82034  23.985   4.051   7.924  0.0321  0.0538 -0.0020
38982W        W82035  27.792  33.482   5.879 -0.2922  0.0021 -0.2797
38983W        W82036  13.104  22.032   5.718  0.0215 -0.2790  0.1605
38984W        W82037  25.880  13.749   0.198  0.1008 -0.1040 -0.1589
38985W        W82038  30.093  32.133  26.717  0.0033  0.0963 -0.1230
38986W        W82039  29.209  26.872  14.769  0.1440  0.1032  0.0558
38987W        W82040  24.006  12.672  24.205  0.0387 -0.0366  0.0211
38988W        W82041  32.973   6.536   8.884  0.0224  0.0555 -0.0209
38989W        W82042  20.187  19.631  21.958  0.1451 -0.1863  0.3924
38990W        W82043  15.478  25.999  28.800 -0.0588  0.0487 -0.1337
38991W        W82044  17.168  20.410   4.249 -0.0715 -0.1125 -0.0637
38992W        W82045  21.299  28.067  27.546 -0.0088  0.1571 -0.0564
38993W        W82046  30.009  24.082   6.470  0.3680  0.2711  0.0401
38994W        W82047  12.348  30.146   1.908 -0.4945  0.1058  0.0829
38995W        W82048  28.101  29.506   2.684  0.1620  0.1062  0.1045
38996W        W82049  22.549  18.942   5.930  0.0566  0.0588  0.2381
38997W        W82050   1.263   7.580   2.308 -0.0639 -0.0359 -0.0530
38998W        W82051  24.757  25.543  28.343  0.0158  0.2234  0.2236
38999W        W82052  30.791  24.261   5.238 -0.2741 -0.2359  0.1616
39000W        W82053  32.704  11.947   9.748 -0.0503 -0.1999  0.3410
39001W        W82054  20.538  10.514  17.680  0.0905  0.1207 -0.0583
39002W        W82055  19.931  25.806   2.875 -0.1653  0.2280 -0.0038
39003W        W82056   4.790   8.687   0.305 -0.1615  0.0858  0.1275
39004W        W82057   8.290  18.314  26.951  0.1375  0.0873 -0.2473
39005W        W82058  30.458   4.288  20.584  0.0952 -0.1725  0.1568
39006W        W82059   4.065  18.520   7.615  0.0200 -0.0796  0.1716
39007W        W82060  15.081  33.863   4.463  0.2252  0.1526 -0.1996
39008W        W82061  23.850  30.418  26.767 -0.1143  0.1064  0.0166
39009W        W82062  32.795  28.715  27.338  0.0226  0.1536  0.0169
39010W        W82063   9.199  17.271   3.261 -0.0127  0.1108 -0.0164
39011W        W82064  29.210   8.713   4.167  0.0162 -0.1731 -0.1052
39012W        W82065   7.972  32.301   4.813 -0.0053  0.0121  0.1812
39013W        W82066  10.752   0.058  21.150  0.2174 -0.0389 -0.3972
39014W        W82067  33.663  12.716   2.075  0.1768  0.1350 -0.1918
39015W        W82068  30.841  26.463  24.640 -0.2978  0.0622 -0.5264
39016W        W82069  32.544   1.670   1.076  0.1900 -0.1620 -0.1093
39017W        W82070  22.568  34.254  28.142 -0.0270  0.0677 -0.1619
39018W        W82071  30.798  32.853   0.979 -0.3116 -0.0200 -0.1535
39019W        W82072  16.135   2.302   5.400 -0.0266 -0.1360  0.1484
39020W        W82073  24.429  20.562  22.054 -0.0326  0.3691  0.2924
39021W        W82074  23.354  10.000   2.937 -0.0888 -0.0033 -0.0383
39022W        W82075  21.291  17.750  25.582 -0.1345  0.2193  0.0197
39023W        W82076  14.484  28.294   5.136  0.2633 -0.1018 -0.0702
39024W        W82077  19.531  19.402  29.079  0.2186  0.0546 -0.0065
39025W        W82078  25.715  19.830   9.780 -0.1515  0.2217 -0.0481
39026W        W82079  23.619  28.319   3.045  0.1643  0.0749 -0.1913
39027W        W82080  20.779  34.093  26.095 -0.2023 -0.1134  0.1439
39028W        W82081  27.065   2.023   8.252  0.0148  0.0824  0.1294
39029W        W82082  27.891  29.899   6.307  0.0213  0.1076 -0.0687
39030W        W82083  33.873  33.481  25.400 -0.0409  0.0113  0.1282
39031W        W82084  27.834  15.960  27.995 -0.3792 -0.0034 -0.0799
39032W        W82085  33.044   1.139  26.964 -0.1145  0.0982  0.3823
39033W        W82086  22.213  18.709   4.377  0.0108  0.0447  0.2672
39034W        W82087  17.703  11.488   7.624  0.0250  0.1371  0.0073
39035W        W82088  23.083   2.951  17.266  0.2264  0.1346 -0.4304
39036W        W82089  20.881  33.070   8.489  0.1847 -0.3781 -0.0744
39037W        W82090  33.680  28.891   0.770  0.1306 -0.2145 -0.0017
39038W        W82091  25.184  33.134   3.150 -0.0028 -0.2008  0.0474
39039W        W82092  16.251  14.387   0.737 -0.0628  0.2829 -0.0274
39040W        W82093  33.595   4.613   1.329 -0.1238 -0.2375 -0.0037
39041W        W82094   4.692  24.333   7.693 -0.0399  0.0040 -0.3856
39042W        W82095  27.206  19.422  20.450 -0.0186  0.2822 -0.0018
39043W        W82096  20.389  23.453   4.267  0.1273  0.0253  0.0957
39044W        W82097  27.780  31.091   3.724 -0.1589  0.0578  0.0956
39045W        W82098  29.298  28.824  19.768  0.3366 -0.0228 -0.0462
39046W        W82099  10.088  26.480   3.624 -0.0233  0.3144  0.1617
39047W        W82100  30.062  24.397  27.088  0.0078 -0.0721 -0.1840
39048W        W82101  31.949  28.717  22.525  0.0344  0.1653  0.0269
39049W        W82102  16.128  29.235  24.709  0.0994 -0.0920 -0.0231
39050W        W82103  24.736  31.428  20.758 -0.3229  0.3563  0.1216
39051W        W82104  18.116   9.804   9.627  0.4797 -0.1359 -0.1804
39052W        W82105   2.856  31.454   3.024 -0.1127  0.1454 -0.0280
39053W        W82106  27.296  21.779  28.834  0.0250  0.0972 -0.0710
39054W        W82107   0.099  26.291   2.031  0.1076 -0.2302  0.0712
39055W        W82108  23.170  28.320   7.476 -0.1064  0.0502 -0.2389
39056W        W82109  25.348  32.618  22.341 -0.2183 -0.1050  0.0207
39057W        W82110  27.793  11.985   7.460  0.2577 -0.0570 -0.2544
39058W        W82111  13.072   3.604  24.322 -0.0841  0.0466  0.3151
39059W        W82112  32.713  34.433   1.888  0.1117  0.2753  0.1997
39060W        W82113  21.494  30.421   7.045 -0.2241  0.1050 -0.2231
39061W        W82114  23.262  31.127   1.296  0.0194 -0.0254 -0.0652
39062W        W82115   6.353  27.532   2.575 -0.2848 -0.0475 -0.1932
39063W        W82116   6.783  30.022   1.910  0.1103 -0.0787 -0.2513
39064W        W82117  26.254  26.469  16.305  0.0838 -0.1763  0.1374
39065W        W82118   2.040  24.545  27.768 -0.0275  0.2961 -0.3942
39066W        W82119  29.342  29.647  28.908  0.0845 -0.0706 -0.2341
39067W        W82120  31.182  21.474   1.640 -0.0064 -0.2146 -0.2682
39068W        W82121   4.808  24.807   1.131  0.1141 -0.2347  0.2106
39069W        W82122   6.354  26.978   1.795 -0.1762  0.2287  0.0378
39070W        W82123  29.510  33.497   1.917  0.1261  0.2878 -0.0689
39071W        W82124  23.250  13.184   7.996 -0.0291  0.0986  0.0394
39072W        W82125  33.416   2.236   5.167  0.1590  0.1936 -0.4259
39073W        W82126   3.509   8.051  25.118  0.1472  0.3261 -0.0494
39074W        W82127  22.098  31.702   0.524  0.1235  0.1444  0.2455
39075W        W82128  29.957  34.320   3.987  0.0924 -0.1766 -0.3219
39076W        W82129  27.276  27.972  23.257 -0.2965  0.3052  0.1420
39077W        W82130  30.823   8.831   7.682 -0.1096 -0.0665  0.1977
39078W        W82131   4.980  12.081  21.536 -0.1477  0.0213 -0.2224
39079W        W82132   4.133   8.275  20.847  0.0359 -0.0068  0.3170
39080W        W82133  26.712  27.482  18.484 -0.0791 -0.1417  0.1438
39081W        W82134  15.035  14.252   5.471 -0.3835  0.0912 -0.0575
39082W        W82135  30.797  23.305  19.883  0.1178  0.1104 -0.4420
39083W        W82136  25.311   1.864  27.448 -0.1936 -0.1600  0.1252
39084W        W82137  28.272   5.937  28.765  0.0269 -0.0748  0.1444
39085W        W82138  23.462  22.304  27.961 -0.1064  0.0873  0.0520
39086W        W82139   4.148  17.191  27.609 -0.0590  0.2011  0.0109
39087W        W82140  28.467  32.564  28.666  0.2561 -0.0214  0.1012
39088W        W82141  17.882  33.501  20.825  0.2761  0.3402 -0.0195
39089W        W82142  20.943  29.126   4.744  0.2275  0.0579  0.1617
39090W        W82143  28.125  32.335  26.950  0.1292  0.1966 -0.1167
39091W        W82144  22.015  17.029  27.214 -0.2877  0.0843  0.1017
39092W        W82145  31.809   2.997   8.511 -0.0339 -0.1822  0.0535
39093W        W82146  14.711  28.654  26.785 -0.0279  0.0845 -0.1945
39094W        W82147  26.272  24.704  28.845  0.2217 -0.1273 -0.0591
39095W        W82148  26.960  16.704   6.336 -0.0187  0.3541 -0.0872
39096W        W82149  23.220  28.045   5.229 -0.1158  0.0522 -0.1665
39097W        W82150  25.724   3.627   4.786 -0.1357  0.1527  0.2496
39098W        W82151   6.849  26.755  28.597 -0.1759 -0.0028  0.1790
39099W        W82152  26.575  29.965  27.007  0.1029 -0.1793  0.0747
39100W        W82153  28.255  33.951   4.213  0.0199  0.0574  0.0009
39101W        W82154  17.271  29.812   0.388 -0.5027 -0.1420 -0.3300
39102W        W82155  14.720   3.661  22.030  0.0326 -0.0839  0.1940
39103W        W82156  20.773  23.285  26.843  0.1079  0.0595 -0.3038
39104W        W82157  22.341   9.826   8.264 -0.0277 -0.3027 -0.3210
39105W        W82158  33.908   2.477   8.132 -0.1971  0.0734 -0.0756
39106W        W82159  23.389  34.452   7.482 -0.0321  0.0253  0.0224
39107W        W82160  26.890   0.061   5.830  0.0961  0.1665  0.0216
39108W        W82161  26.907  24.840  24.180 -0.0848 -0.2619  0.1489
39109W        W82162   6.012  23.878   3.134  0.1852 -0.1213 -0.2593
39110W        W82163  26.255  24.459   6.697 -0.1034  0.0397  0.0508
39111W        W82164  32.345   4.059   8.121  0.2274  0.1017 -0.1478
39112W        W82165  22.778  27.178  26.011 -0.1475 -0.0313 -0.3340
39113W        W82166  33.767   1.251  22.751  0.1035 -0.2199 -0.1027
39114W        W82167  24.890  31.255  23.234  0.0498 -0.0926 -0.0459
39115W        W82168  33.702   2.138  15.052  0.3032  0.0933  0.1920
39116W        W82169  26.748  20.863   5.519  0.0428 -0.1939 -0.3031
39117W        W82170   9.840   4.579   9.420  0.1311 -0.0807 -0.1687
39118W        W82171  29.604   2.300  23.483  0.1447 -0.1429  0.1404
39119W        W82172   1.554   0.434  14.139  0.1500  0.0226  0.1731
39120W        W82173  32.210   2.275   8.610 -0.0194 -0.0892 -0.0134
39121W        W82174  28.926  29.249   7.358  0.1464 -0.1954  0.0570
39122W        W82175  18.843   1.196   9.910 -0.0209  0.2136  0.1895
39123W        W82176  32.871  14.771   6.487 -0.1933 -0.2184  0.0948
39124W        W82177   3.073  33.236   3.815  0.1657  0.0665 -0.3655
39125W        W82178  25.918   9.391   7.181 -0.2100 -0.2853  0.0780
39126W        W82179  14.379  10.046   8.555  0.1196 -0.3366  0.3911
39127W        W82180  21.289  28.313   6.662 -0.0728 -0.3773  0.0628
39128W        W82181  23.758  33.264  24.848  0.1738  0.0968 -0.0183
39129W        W82182  14.206  21.703   2.155 -0.2497 -0.2256  0.0058
39130W        W82183  26.495   7.442   8.092  0.0168  0.2290  0.0496
39131W        W82184  34.048  32.514   6.898  0.2064 -0.1327 -0.0700
39132W        W82185   0.428   0.795  28.700  0.1246 -0.1203  0.0754
39133W        W82186  19.485   9.448  24.041 -0.0589  0.1178 -0.1844
39134W        W82187  16.532  13.579  28.114 -0.1492  0.0012 -0.0214
39135W        W82188  16.904  18.558   6.763  0.2241 -0.1007  0.0872
39136W        W82189   7.752   6.120  24.948  0.0120  0.3565  0.2539
39137W        W82190  34.524  18.807  16.039 -0.1431 -0.2932  0.0360
39138W        W82191  18.059  12.842   5.894 -0.2843  0.1359  0.0302
39139W        W82192  32.828  30.308   9.165 -0.1156 -0.0091  0.0756
39140W        W82193  34.427  12.385   0.725 -0.1342 -0.0606  0.0855
39141W        W82194  29.277  30.866  23.105  0.1090 -0.3125 -0.0319
39142W        W82195  24.133  34.325  24.289  0.0129  0.1931 -0.0004
39143W        W82196  26.392   1.577  22.758 -0.4161  0.2767 -0.0271
39144W        W82197  19.328  22.695   7.892  0.3317 -0.2639  0.2778
39145W        W82198  12.841  19.098  10.058  0.0783  0.2101 -0.3762
39146W        W82199  24.979  30.266   6.531  0.1871  0.1472 -0.0202
39147W        W82200  26.188  16.327  15.729 -0.3778 -0.1669  0.2570
39148W        W82201  20.304  14.096  27.381 -0.1887  0.4081 -0.0785
39149W        W82202  32.283  29.934   2.074 -0.0084  0.1862  0.1490
39150W        W82203  27.571  33.769   7.356 -0.1109 -0.0586  0.0801
39151W        W82204  21.481  26.241   8.020  0.1249  0.1259 -0.0710
39152W        W82205  20.574   2.272  25.350  0.0630  0.2603 -0.0103
39153W        W82206  24.062  11.899   1.182 -0.2504 -0.0756  0.3509
39154W        W82207  33.050   4.052   3.394 -0.2485  0.1335  0.1361
39155W        W82208  29.724  29.342   5.445  0.4102 -0.1476  0.0341
39156W        W82209  12.142  22.028   4.750 -0.1550  0.0318  0.1159
39157W        W82210  24.390  20.541   8.265 -0.1699 -0.1576  0.2118
39158W        W82211  23.814  15.747  19.245  0.0539 -0.0001  0.0417
39159W        W82212  15.486  32.531   7.232 -0.1891 -0.3232 -0.1502
39160W        W82213  26.719  17.863   5.244  0.1420 -0.1208  0.0913
39161W        W82214  29.033   9.619  21.402 -0.2935 -0.2830  0.2332
39162W        W82215  18.553  21.169   3.814  0.0555  0.1154  0.0617
39163W        W82216  14.936  13.501  21.001  0.0066  0.2220  0.5379
39164W        W82217  12.390   2.936   3.576 -0.3084 -0.3082  0.0442
39165W        W82218  20.632   4.148   7.837  0.2830  0.2399  0.0200
39166W        W82219   0.035   6.979   2.483 -0.0548  0.1001 -0.0674
39167W        W82220  20.705  33.795   8.507 -0.2088 -0.2629  0.0976
39168W        W82221  30.168  32.524   5.138 -0.1904  0.1878 -0.2931
39169W        W82222  10.720  17.909   1.804 -0.0127  0.1019 -0.0855
39170W        W82223  30.963   8.893   5.953 -0.5044 -0.3297 -0.1441
39171W        W82224  22.921  16.084  23.234 -0.0882 -0.0673 -0.1544
39172W        W82225  25.630   8.967  24.118  0.2488  0.2399 -0.0107
39173W        W82226  31.327  33.872   5.195 -0.2391  0.0777  0.0679
39174W        W82227  25.332  32.841  19.918  0.0247 -0.0423 -0.0621
39175W        W82228  21.720  33.814   8.111  0.0991  0.1182 -0.2290
39176W        W82229  10.319  32.567   6.667 -0.2084 -0.0796  0.1147
39177W        W82230  13.499   8.761   5.830 -0.4059  0.0595  0.0284
39178W        W82231  21.514  25.980   5.933  0.1060  0.1901  0.1611
39179W        W82232   5.633  14.221   3.433 -0.2182 -0.3236  0.2675
39180W        W82233  27.872  19.400   2.580 -0.1826 -0.0020  0.2611
39181W        W82234  23.438  23.566   8.862  0.0487 -0.2853  0.0695
39182W        W82235  23.461  24.323  19.229 -0.1291  0.1198  0.1065
39183W        W82236  20.276   5.326   4.135 -0.0344  0.2489  0.0299
39184W        W82237  18.973  22.478   5.997  0.0830 -0.1921  0.1018
39185W        W82238   6.183  30.181   1.174 -0.1729  0.1803  0.1801
39186W        W82239  31.478  26.766   6.932 -0.2610 -0.1433  0.0613
39187W        W82240  23.926   0.313  23.779  0.3328 -0.0201  0.0274
39188W        W82241  19.311  34.322   0.659  0.0058  0.1133 -0.0319
39189W        W82242  33.731  32.702   7.690 -0.1020 -0.0880 -0.0559
39190W        W82243  14.078  15.987   8.486 -0.0894 -0.3628 -0.0488
39191W        W82244  25.495   6.611  25.390  0.2063  0.1139 -0.0911
39192W        W82245  31.031  28.855  23.504  0.0044  0.1269  0.0375
39193W        W82246  29.682   9.325  27.295  0.0409 -0.3893 -0.2166
39194W        W82247  33.432   1.106   8.209 -0.1637  0.0978 -0.1685
39195W        W82248  18.660  23.466   6.161  0.2451 -0.1170  0.0441
39196W        W82249  32.295  20.185   4.678  0.2127  0.3869 -0.1328
39197W        W82250  29.116   4.590   6.181  0.0957  0.0848 -0.0557
39198W        W82251  26.498  25.161   2.303 -0.2247  0.0070 -0.0023
39199W        W82252   8.801  28.015  19.559 -0.1105 -0.1592 -0.0182
39200W        W82253  20.967  17.630   9.649 -0.3081  0.1235 -0.2413
39201W        W82254  24.124   3.471   1.039  0.1526 -0.2212 -0.1777
39202W        W82255   6.033  16.468  28.839  0.2057 -0.0885 -0.0342
39203W        W82256  21.930  31.381   7.209 -0.0123 -0.1650 -0.1339
39204W        W82257  28.938  32.766   6.561 -0.1264  0.1239 -0.1167
39205W        W82258   3.465   4.783   7.644 -0.0177 -0.0938  0.1003
39206W        W82259  29.371  27.227  22.386  0.0060  0.0878  0.1497
39207W        W82260   2.149   2.688  18.403  0.1188 -0.0809 -0.1742
39208W        W82261   3.141  25.252   4.724  0.1306  0.1252 -0.0510
39209W        W82262  25.779  31.171  27.553 -0.0243  0.0049  0.0948
39210W        W82263  18.614  28.070   0.629 -0.1979  0.1700 -0.0568
39211W        W82264  23.500  23.598   7.421  0.1407  0.1775 -0.3432
39212W        W82265  31.327  22.250  23.401 -0.1040  0.2193  0.0048
39213W        W82266  28.733  27.513   3.796 -0.0243 -0.2430 -0.0972
39214W        W82267  29.071   6.468  19.271 -0.1855 -0.1548  0.1177
39215W        W82268  29.633   4.679   1.339 -0.4608 -0.0353  0.2834
39216W        W82269   4.313  23.329   5.356  0.3047  0.0323 -0.0326
39217W        W82270  19.519  14.488   5.459 -0.0698 -0.0670 -0.2762
39218W        W82271  20.422   1.423   4.977 -0.1003  0.1531  0.3634
39219W        W82272  21.600   6.105   7.450  0.3000  0.0678  0.2831
39220W        W82273  17.312  33.255   6.455  0.1347  0.0410 -0.4564
39221W        W82274   9.111   7.610   4.835 -0.4098  0.3281  0.2211
39222W        W82275  33.536  20.800   7.754  0.0280 -0.1902  0.0138
39223W        W82276  33.838  34.685   2.491  0.1342  0.1273 -0.0007
39224W        W82277   2.149  27.584   4.694  0.2333  0.0550 -0.1031
39225W        W82278  26.054  26.923  25.162  0.1805  0.3468  0.1641
39226W        W82279  31.683  24.164   3.503 -0.0371 -0.2844  0.0714
39227W        W82280  22.316  26.879  21.322 -0.4207  0.0003  0.1474
39228W        W82281  34.654  29.208   2.836  0.0543  0.0838  0.3460
39229W        W82282  18.951  23.482  27.708 -0.0281  0.0986 -0.3250
39230W        W82283   4.173  28.129   4.014 -0.1615  0.0464  0.0102
39231W        W82284  17.883  34.352   6.551  0.4212  0.2025 -0.4236
39232W        W82285  25.647  15.743  21.687  0.0836  0.2336 -0.3100
39233W        W82286  29.989  19.523   1.385  0.5569  0.1368  0.2921
39234W        W82287  26.426  28.807  29.105 -0.2535 -0.4258  0.2414
39235W        W82288  19.784  21.469  28.291 -0.0986  0.0120 -0.0346
39236W        W82289   2.042  18.622   3.860 -0.0097 -0.0666 -0.3433
39237W        W82290  21.529   3.154   4.410  0.1916 -0.0937 -0.2077
39238W        W82291  33.422  31.223   8.553 -0.0750 -0.3028  0.1303
39239W        W82292  33.672  10.166   8.468  0.0865  0.2197  0.1991
39240W        W82293  23.436  20.774   5.407 -0.1909 -0.0330 -0.3117
39241W        W82294  28.246  12.494   7.774 -0.0816 -0.0117  0.0432
39242W        W82295   0.703  24.379  27.268  0.0161  0.2788 -0.0091
39243W        W82296  18.117  27.298   2.801 -0.1691  0.0452 -0.0670
39244W        W82297  27.361  28.722   1.325 -0.1049  0.2994 -0.1439
39245W        W82298  28.323  32.752   3.471 -0.1884  0.3844  0.1141
39246W        W82299  21.416  18.177  28.790  0.0864  0.1533  0.4125
39247W        W82300  31.294  16.969  17.819 -0.3378 -0.3243  0.0391
39248W        W82301  19.143  25.439   6.138  0.3536 -0.1826  0.0808
39249W        W82302  33.482   2.746   5.045 -0.1844 -0.2703  0.0053
39250W        W82303   5.129   8.143   9.154  0.3127 -0.0216 -0.0620
39251W        W82304  22.837   5.184  26.269  0.0866 -0.3449 -0.0993
39252W        W82305  19.888   2.406   9.178  0.2252  0.3994  0.1258
39253W        W82306  18.410  26.585  24.198 -0.2306  0.2186 -0.2928
39254W        W82307   4.546   8.976   5.482  0.1692  0.0384  0.0608
39255W        W82308  27.281  28.908   7.268  0.1230 -0.1086 -0.0748
39256W        W82309  27.931  28.437   5.715  0.2864  0.1734 -0.0063
39257W        W82310  15.952  23.164   8.717  0.0191 -0.1828  0.3068
39258W        W82311  23.824  11.079   6.073 -0.0285 -0.2432  0.3368
39259W        W82312  18.683  31.806   1.344 -0.3122  0.1057 -0.1057
39260W        W82313  27.383   5.591  10.431  0.3453  0.0074 -0.3851
39261W        W82314  12.945   2.797   8.751 -0.0344  0.3302 -0.2290
39262W        W82315  28.500   1.254  22.658 -0.0353  0.0603 -0.0183
39263W        W82316  31.848  26.802  27.121 -0.1348  0.1389  0.0984
39264W        W82317  30.780  25.922  26.804  0.3273 -0.1249 -0.0230
39265W        W82318  25.696  30.303   3.865  0.1873  0.0644  0.2554
39266W        W82319  11.737  22.460   6.801  0.0098 -0.1081 -0.3417
39267W        W82320  17.905   8.538  28.891  0.0108  0.0860 -0.1014
39268W        W82321  34.094  20.238   9.359  0.1588  0.4374  0.2299
39269W        W82322  30.244   0.268   7.585 -0.3465  0.2296  0.0624
39270W        W82323  33.096  14.219   7.862  0.0161 -0.0144  0.2387
39271W        W82324  29.212  31.493   9.458 -0.2200 -0.3615  0.1523
39272W        W82325   5.306   4.294   3.353  0.0053  0.2391 -0.0102
39273W        W82326  33.479  28.959  23.816 -0.0490  0.1161 -0.2834
39274W        W82327  33.204   0.006  10.166 -0.3186 -0.1476 -0.1467
39275W        W82328  24.789  22.066  26.316 -0.3301  0.1571  0.0758
39276W        W82329  29.174  15.475   3.497  0.0449  0.1135 -0.0033
39277W        W82330  28.478   6.609   6.508 -0.0217 -0.2602  0.2475
39278W        W82331  25.609  17.002  10.652 -0.0796  0.0828 -0.1568
39279W        W82332  14.535  10.189  25.976  0.0131 -0.1749 -0.1123
39280W        W82333  14.299   6.449   8.725 -0.1922 -0.0940  0.2784
39281W        W82334   0.084  32.726  18.151 -0.4305 -0.0553 -0.0574
39282W        W82335   1.641  33.255   3.091  0.0796  0.0396  0.0126
39283W        W82336  14.351  27.025   7.753  0.0660  0.1514  0.0907
39284W        W82337   9.410   0.456   0.105 -0.0353  0.1018  0.1796
39285W        W82338  32.286  18.461   3.437 -0.3156 -0.2287 -0.0880
39286W        W82339  23.228   4.664  14.152  0.0236  0.0201  0.0688
39287W        W82340  32.236  29.949   3.344  0.2098 -0.1710  0.2985
39288W        W82341  31.163  30.316   3.345  0.1853 -0.1624 -0.0393
39289W        W82342  28.823  28.593   5.294  0.0602  0.0950 -0.2931
39290W        W82343  18.352  31.193   4.109 -0.0975  0.1177  0.1954
39291W        W82344  30.982  17.858   1.035 -0.0556 -0.2237 -0.0526
39292W        W82345  30.285   4.179   3.739 -0.1900  0.1317  0.1660
39293W        W82346  13.494  24.293   3.183  0.1994 -0.1464 -0.0833
39294W        W82347   2.102   2.422  22.884  0.0404 -0.2644  0.2372
39295W        W82348  20.858  26.277  18.742  0.1104 -0.0562  0.1968
39296W        W82349  14.378  15.938   8.052  0.4702  0.1601  0.0679
39297W        W82350  27.042  14.426   5.970 -0.1371  0.1802 -0.1144
39298W        W82351  21.138   3.353  27.198  0.0854  0.0269  0.2983
39299W        W82352  24.253  25.400  10.134  0.0115  0.2819 -0.0835
39300W        W82353  13.116  32.082   9.325 -0.2409 -0.0367 -0.0351
39301W        W82354  26.268  34.280  27.270  0.0736 -0.1662  0.0844
39302W        W82355  31.651  30.216   3.486 -0.2527  0.1011  0.0125
39303W        W82356  14.256  24.750   4.775  0.1361  0.1379  0.1380
39304W        W82357  14.697  33.583   5.504  0.1220 -0.1856  0.0788
39305W        W82358  16.722  24.979   5.829  0.1505 -0.4456  0.0385
39306W        W82359  21.622  25.361   9.877 -0.1602  0.3515  0.0318
39307W        W82360  30.873  25.299   3.764  0.0537 -0.1333  0.2050
39308W        W82361  29.487  21.192   1.180 -0.0709  0.0583  0.0054
39309W        W82362  17.738  17.836   9.094 -0.1253 -0.0885  0.0871
39310W        W82363  32.653   4.562  21.629  0.0280  0.0856 -0.0810
39311W        W82364  22.992  29.289   3.569 -0.4246  0.0263  0.0069
39312W        W82365  28.875   2.179  25.191  0.1841  0.3216 -0.2788
39313W        W82366  23.657  34.404   7.998  0.0442 -0.2020 -0.1521
39314W        W82367  32.270  27.662   5.083  0.0271 -0.3815 -0.5091
39315W        W82368  16.890  30.677   5.469  0.1070 -0.0213 -0.2023
39316W        W82369  30.868  25.109   1.298  0.0586 -0.2007 -0.0752
39317W        W82370  22.340   1.613  20.153 -0.1029  0.0166 -0.0443
39318W        W82371  24.980  33.395  26.252 -0.1475 -0.0603 -0.0582
39319W        W82372  21.308   6.566   5.041  0.1593 -0.1504 -0.0878
39320W        W82373  17.807  30.412   1.875 -0.1880  0.2082 -0.0873
39321W        W82374  21.182  23.062  20.517  0.0684  0.0362  0.2375
39322W        W82375  11.879  23.641  28.971 -0.4760 -0.0170 -0.0258
39323W        W82376  29.620   0.912  24.873 -0.0040 -0.1331 -0.1025
39324W        W82377  19.644  12.837   4.737  0.1110  0.0612  0.2976
39325W        W82378   8.099   2.295  25.975  0.0165 -0.1119 -0.0252
39326W        W82379   7.434   1.077  28.021  0.1398  0.2098 -0.2837
39327W        W82380  34.570  31.056  18.905  0.0087 -0.2060  0.0769
39328W        W82381   7.458  33.371   0.781 -0.2837 -0.1230  0.2172
39329W        W82382  25.798  30.475   7.671  0.0201 -0.1337  0.1101
39330W        W82383  11.385  29.689   7.982  0.1255  0.0440  0.0439
39331W        W82384   6.021   2.460   6.036  0.2697  0.1250 -0.2834
39332W        W82385  25.026  29.865   1.983  0.0637 -0.0507  0.1410
39333W        W82386  12.415  33.730   2.707 -0.0107  0.1167 -0.1327
39334W        W82387  27.168  20.542   2.990 -0.0498  0.1254  0.0472
39335W        W82388  22.542  28.735  27.963  0.1307 -0.1595 -0.0553
39336W        W82389   9.037  30.366   1.998 -0.4631 -0.2343 -0.0894
39337W        W82390  15.141   0.988   7.335  0.0344 -0.2466  0.1620
39338W        W82391  18.515  23.167  26.477  0.2733 -0.2294 -0.1154
39339W        W82392   1.017  13.967   1.151 -0.0092  0.3228 -0.0026
39340W        W82393  24.409  18.317  28.316  0.2718  0.0903  0.3159
39341W        W82394  21.055  27.173   1.466 -0.2530 -0.2012 -0.3082
39342W        W82395   3.501   7.017   2.507 -0.0002  0.2537  0.2306
39343W        W82396   7.182  25.109   8.042 -0.0643 -0.2122 -0.1342
39344W        W82397  28.586  28.307   6.988  0.0082  0.3501  0.1564
39345W        W82398  23.701  34.066   4.589 -0.0842  0.2417 -0.1274
39346W        W82399  26.240  19.611   7.074  0.0504 -0.0735 -0.1846
39347W        W82400  29.741  26.516   1.382 -0.1262  0.2529  0.2729
39348W        W82401  25.507  21.855   4.869  0.1584  0.1414  0.0538
39349W        W82402  16.292  27.676   3.326  0.1221  0.0217 -0.3235
39350W        W82403   6.163   2.387   1.140  0.0786  0.0640  0.1710
39351W        W82404  33.159   0.613   9.379 -0.0202 -0.1422  0.1251
39352W        W82405   1.118  28.235   7.996 -0.1220 -0.0552  0.2269
39353W        W82406  33.782  12.204  20.738  0.4362  0.2307 -0.2824
39354W        W82407  29.550  26.452   1.818 -0.1444  0.0332 -0.2851
39355W        W82408  24.960   2.783   9.008  0.2599  0.2319  0.0084
39356W        W82409  25.339  28.419  23.758 -0.3777  0.2595 -0.0497
39357W        W82410  24.125  32.655  26.774 -0.0697  0.1607 -0.0202
39358W        W82411  15.055  22.689   8.433  0.1301 -0.1787 -0.0350
39359W        W82412  22.835  23.668   6.144 -0.2092  0.2201  0.0139
39360W        W82413  19.360  28.143   5.410  0.1042  0.0795  0.0026
39361W        W82414   9.618  34.265   6.580 -0.0883  0.1024 -0.0799
39362W        W82415  33.569  21.827  23.931 -0.1847  0.0771  0.0175
39363W        W82416  23.420  24.677  24.410  0.1743 -0.2652 -0.1626
39364W        W82417  28.210  16.351   0.072 -0.1252  0.1336 -0.2975
39365W        W82418  21.909   8.463   5.856  0.1411  0.2190 -0.0936
39366W        W82419  12.509  31.508  23.271  0.0884  0.1493 -0.1080
39367W        W82420  29.192   1.756  22.912  0.1766  0.0227  0.0206
39368W        W82421  20.534  27.861   6.693  0.2079 -0.0802 -0.0863
39369W        W82422  21.661   1.476  10.266 -0.0448  0.3466 -0.0726
39370W        W82423  20.164   1.787  22.780  0.1545  0.2226  0.1640
39371W        W82424  21.754  27.008  26.047  0.1215 -0.3789  0.0923
39372W        W82425  27.324   5.829  25.780  0.0477 -0.0530 -0.0888
39373W        W82426  34.080  32.808   2.081 -0.1610  0.1145  0.0721
39374W        W82427  21.183   6.316   9.151 -0.1492  0.0250 -0.3177
39375W        W82428  12.487  26.475   0.585 -0.0599 -0.0744 -0.2513
39376W        W82429  31.819   3.106  25.414  0.1751 -0.0379 -0.1958
39377W        W82430  28.804   1.234   4.512 -0.1541 -0.2632  0.2166
39378W        W82431  11.219  22.741   0.329 -0.1087 -0.0703 -0.0018
39379W        W82432  34.099  34.403   3.242  0.0393 -0.3369  0.1198
39380W        W82433  15.430  14.949   8.260 -0.1387 -0.0576 -0.0886
39381W        W82434  19.543   4.016  18.621 -0.0869 -0.3999  0.0251
39382W        W82435  23.010   6.088   8.459 -0.1826 -0.0182  0.0174
39383W        W82436   9.605  23.132   3.161  0.0002 -0.3731  0.2636
39384W        W82437  23.775   7.994  18.370  0.1006  0.0259 -0.1261
39385W        W82438  21.496  28.829   3.042 -0.0072  0.1826  0.3372
39386W        W82439  32.855  31.607   9.341  0.2221  0.0841  0.1580
39387W        W82440  27.402   5.621  21.618 -0.1481  0.0176  0.0030
39388W        W82441  29.542  12.526   9.048 -0.2849 -0.1613  0.0693
39389W        W82442   8.827   4.823   2.927  0.0934 -0.0659  0.1169
39390W        W82443  27.597  34.597  20.799  0.0302  0.1480  0.1374
39391W        W82444  33.653  21.806   7.567 -0.2214  0.2729 -0.1667
39392W        W82445   1.182  12.203  26.314  0.1189 -0.2694  0.2385
39393W        W82446  23.121  11.772   0.924  0.1584  0.3042 -0.1678
39394W        W82447  34.182  32.782  24.636  0.1572 -0.0886 -0.0404
39395W        W82448  24.658  22.712   5.391 -0.0833  0.1238 -0.0294
39396W        W82449   4.151  29.528  17.283  0.1356  0.0234 -0.1256
39397W        W82450  23.209  10.753  23.198  0.0796 -0.2126 -0.2186
39398W        W82451  27.183   0.647   6.263 -0.1028 -0.0841  0.2492
39399W        W82452  21.910  33.655   9.142  0.0501  0.2453 -0.0506
39400W        W82453  11.306  31.234  26.805  0.0332  0.1324 -0.0106
39401W        W82454  19.675  22.528   8.318 -0.0431  0.1622  0.0839
39402W        W82455  21.746  25.196   9.431  0.0483  0.2345 -0.0709
39403W        W82456  15.127  21.862   4.921 -0.0622 -0.2276 -0.0122
39404W        W82457  31.874   4.401   8.131  0.0992 -0.3824  0.1303
39405W        W82458   6.774   2.856  28.256  0.3551 -0.0287 -0.0416
39406W        W82459  22.553  19.828   5.910 -0.0302  0.3263  0.1139
39407W        W82460  33.785  12.601  17.682  0.0033 -0.1939  0.0726
39408W        W82461  23.945  26.566  23.498 -0.0009  0.2773  0.0378
39409W        W82462  25.381  21.366   6.472  0.1390  0.0570 -0.1656
39410W        W82463  25.252  14.647   2.003 -0.0865  0.1283 -0.0396
39411W        W82464  27.621  11.897   8.789 -0.1596  0.2344  0.0254
39412W        W82465   6.833   5.631   9.765  0.2176 -0.3386  0.0829
39413W        W82466  29.564  27.054   3.382 -0.0599 -0.1616 -0.0285
39414W        W82467   9.820   1.073   1.887 -0.0425 -0.0859  0.0509
39415W        W82468  20.280  26.660  28.867 -0.0883 -0.0088  0.0126
39416W        W82469   9.435  18.837  29.192  0.2013  0.1309  0.0959
39417W        W82470  26.943   0.082   6.869  0.0689 -0.1562  0.1211
39418W        W82471   8.735  27.275   5.499 -0.0301 -0.0614  0.2605
39419W        W82472  20.071  20.579   9.638 -0.0036  0.2536  0.0658
39420W        W82473  10.247  26.768   6.038  0.1842  0.2134 -0.0887
39421W        W82474  34.262  21.263   3.017  0.0267  0.1465 -0.5724
39422W        W82475  29.292   7.397  18.465 -0.2830  0.0350  0.1114
39423W        W82476  19.036  23.364   3.584  0.0908 -0.5583  0.2195
39424W        W82477  34.247  20.486   8.810  0.0644  0.3547 -0.0800
39425W        W82478  22.927  20.816   1.669  0.1470  0.0940 -0.0829
39426W        W82479   4.427  30.235  17.669 -0.1360 -0.0315  0.0978
39427W        W82480   8.221  11.960  15.842 -0.0441 -0.2058  0.0815
39428W        W82481  27.298   1.118  24.118 -0.1662 -0.2811 -0.2361
39429W        W82482  24.137  25.819   4.040 -0.2437 -0.0767 -0.2030
39430W        W82483   2.867  16.317  27.500  0.3404  0.0826 -0.1036
39431W        W82484  33.305  28.513  23.602 -0.1168  0.2331  0.0564
39432W        W82485  24.487  24.393   5.925  0.0008 -0.1193  0.1889
39433W        W82486  34.044  23.611   3.016  0.0748 -0.1947 -0.1122
39434W        W82487   6.223   1.081  28.507  0.1874 -0.0638  0.0458
39435W        W82488  19.905  29.893   1.601 -0.3099  0.2009 -0.2249
39436W        W82489   9.216  14.702   0.398  0.1537  0.0660 -0.0607
39437W        W82490  31.911  27.383  23.560  0.0115 -0.2852  0.0883
39438W        W82491  29.717  28.250  16.634  0.1588  0.0731  0.0786
39439W        W82492  16.531  33.057   3.696  0.0403 -0.2452 -0.2105
39440W        W82493  30.769   3.452   7.603  0.0144 -0.0898  0.1989
39441W        W82494  22.111  34.638  21.660  0.0865  0.3292  0.0851
39442W        W82495  12.312  25.343  27.629 -0.1047 -0.2531  0.0767
39443W        W82496  14.958  33.503   2.137 -0.1784  0.1856 -0.0050
39444W        W82497  27.049   8.452  25.594 -0.2839  0.0905  0.1530
39445W        W82498  26.110  32.004   8.377  0.0226 -0.0082  0.1456
39446W        W82499  30.131  27.843   0.515 -0.2557  0.0000  0.1944
39447W        W82500  26.603  33.569   0.173  0.5520  0.0765  0.0924
39448W        W82501   0.126  23.931   4.208  0.1915  0.1463 -0.1416
39449W        W82502  30.537  29.821   4.832  0.1002  0.0089  0.1979
39450W        W82503  30.684  31.750   8.687  0.0052 -0.3028 -0.0387
39451W        W82504  15.458  20.261   5.585  0.0053 -0.1825 -0.0946
39452W        W82505  26.468  21.402  25.485  0.1335  0.0354  0.0527
39453W        W82506  21.356   2.836  24.768  0.3082  0.1950 -0.0575
39454W        W82507  22.144  19.424   0.995 -0.2931 -0.0058  0.0335
39455W        W82508  12.298  24.153   8.863 -0.0922  0.2035 -0.0158
39456W        W82509  20.661  26.283   4.598 -0.3621  0.0771  0.0008
39457W        W82510  29.143  29.545   0.563 -0.0094  0.1039  0.1339
39458W        W82511   0.462  19.196   1.120  0.0918  0.1875  0.2633
39459W        W82512  26.991  18.687  28.171 -0.0955  0.2056 -0.1382
39460W        W82513   8.488  28.124   8.931 -0.0752 -0.2315  0.0049
39461W        W82514  28.225  14.433  27.025 -0.0936 -0.0541  0.0044
39462W        W82515  32.994   0.868  26.111 -0.0290 -0.0944  0.0082
39463W        W82516   0.093   9.140   3.151  0.1600  0.1627  0.2184
39464W        W82517  24.011  29.368   5.857  0.0072  0.0805  0.2717
39465W        W82518  26.696  14.155   9.949  0.0049  0.0839  0.3800
39466W        W82519  34.466   9.489   1.881 -0.1528  0.0598  0.0856
39467W        W82520   4.062  15.610   3.139 -0.1967  0.1039  0.1501
39468W        W82521  31.757   4.118   1.341  0.1207  0.0480  0.4283
39469W        W82522   2.303   5.106  16.026 -0.3017  0.0534 -0.2399
39470W        W82523  32.302  17.710   8.955  0.2343  0.0557 -0.1919
39471W        W82524   3.399  21.797  24.804  0.1572  0.1557 -0.0110
39472W        W82525  22.468  29.465   7.431 -0.2529  0.2093 -0.2309
39473W        W82526  29.874   7.844  27.960  0.0442 -0.2116  0.0086
39474W        W82527  29.406  23.491   1.702  0.2023 -0.0901 -0.2452
39475W        W82528  24.785   5.509  23.225 -0.3051  0.0433  0.2228
39476W        W82529   5.290  29.836   4.400  0.2446  0.0707  0.2102
39477W        W82530  20.718   2.301   7.546  0.1337  0.1085  0.1581
39478W        W82531   2.695  26.724  13.094 -0.2374 -0.0859  0.0342
39479W        W82532  20.176  32.063  27.863 -0.2489  0.2581 -0.2655
39480W        W82533  27.818  19.710   3.856 -0.1717 -0.0870  0.0641
39481W        W82534  30.561  31.172   5.984 -0.0377 -0.1637  0.1269
39482W        W82535  27.247   5.876   4.210  0.0629  0.0263  0.2631
39483W        W82536  22.915  30.023  28.828  0.1731  0.1781 -0.1703
39484W        W82537  33.651  26.271   8.064 -0.1525  0.1803 -0.1552
39485W        W82538   3.510   5.350   7.536 -0.2338  0.0704 -0.0487
39486W        W82539  24.968  27.663   8.760  0.1292 -0.4438  0.0238
39487W        W82540   0.108  25.005   2.029  0.0388  0.0018  0.1883
39488W        W82541  24.586  16.593   8.159  0.2849 -0.2295 -0.3091
39489W        W82542   5.144   0.384  27.353 -0.0099 -0.0727  0.1859
39490W        W82543  28.065  31.801  16.201  0.1102  0.0600 -0.1265
39491W        W82544  31.188   5.786   2.784 -0.1914  0.1936  0.0218
39492W        W82545  14.898  22.070  28.823  0.0477 -0.0668 -0.1667
39493W        W82546  31.673  31.801   9.074  0.0779  0.3124 -0.1210
39494W        W82547  34.470  27.920  20.199  0.3014 -0.0588  0.0214
39495W        W82548  31.706   8.613  28.056  0.2463 -0.0225 -0.1182
39496W        W82549  18.547  26.605   7.745 -0.0475  0.2056  0.0111
39497W        W82550  14.871  28.307   5.575 -0.1701  0.1081  0.0395
39498W        W82551  31.801  28.232   2.028  0.2540 -0.4649  0.3123
39499W        W82552  24.040  32.545   3.864 -0.3293  0.0353  0.1346
39500W        W82553  15.208  26.175   2.236 -0.1972 -0.2496  0.1750
39501W        W82554   5.101   1.705   7.257  0.0239 -0.0934  0.0608
39502W        W82555  33.203  14.231   5.101  0.1188 -0.1840 -0.3719
39503W        W82556  24.917   6.571   3.770  0.5667 -0.0053  0.0970
39504W        W82557  30.953  32.190  16.274 -0.1609  0.1679 -0.0015
39505W        W82558  25.575   7.466   2.139  0.1196  0.2330  0.1275
39506W        W82559   0.033  20.731   9.758  0.0385  0.1942 -0.2026
39507W        W82560  30.344  15.824   9.524 -0.2616 -0.0311 -0.1062
39508W        W82561   6.519   5.833   5.623  0.0682 -0.1350 -0.0095
39509W        W82562  30.957   2.193  23.774 -0.3878 -0.0600  0.2039
39510W        W82563  27.047  12.553  10.207 -0.0401  0.1935  0.0093
39511W        W82564  31.587  27.877   5.546 -0.2511 -0.0098  0.1350
39512W        W82565  33.014  22.300   5.319  0.2704 -0.5746  0.1168
39513W        W82566  26.494  25.754   5.288  0.3142  0.0021  0.3068
39514W        W82567  33.766  32.080   4.361 -0.2702  0.0612  0.2300
39515W        W82568   0.064  22.628  28.523  0.3929 -0.0247  0.0264
39516W        W82569  30.682  26.870   2.770 -0.1027 -0.0077  0.0637
39517W        W82570  31.450  10.441   1.563  0.2576 -0.1475  0.0186
39518W        W82571  24.518   0.072   3.399 -0.0307 -0.2340 -0.0227
39519W        W82572  32.618   6.937   9.001  0.2599 -0.2390  0.0600
39520W        W82573  12.967  24.069   6.585  0.0053  0.1736  0.1945
39521W        W82574  21.411  34.064   7.728 -0.0962 -0.2957 -0.1109
39522W        W82575  14.817  26.606   2.347 -0.1300 -0.1105 -0.0974
39523W        W82576  20.204  30.969   8.037 -0.3666  0.2158 -0.1436
39524W        W82577   6.014  26.571   8.031  0.1565 -0.3505  0.1423
39525W        W82578  22.980   6.840  14.236  0.0519 -0.1690 -0.0099
39526W        W82579  26.113  23.997   5.291  0.1505 -0.1328 -0.4169
39527W        W82580   5.332  24.553   8.995 -0.1338 -0.1527 -0.1128
39528W        W82581  29.534  17.114   2.326  0.1384 -0.0531 -0.2432
39529W        W82582  31.987  26.339   8.235 -0.2765 -0.2274 -0.0814
39530W        W82583  33.755  34.034   9.663 -0.1668 -0.3154  0.2750
39531W        W82584  33.721  18.931  28.141 -0.2148  0.1378  0.0136
39532W        W82585  24.203  23.455  17.040 -0.0716 -0.0612 -0.1476
39533W        W82586   2.304   6.131   8.033 -0.1430 -0.2507 -0.0688
39534W        W82587  34.086   7.146  13.805  0.2320  0.0630  0.1862
39535W        W82588  25.023   9.061  14.605  0.0506 -0.1396 -0.2533
39536W        W82589  21.760  29.545   6.869  0.0706 -0.1898  0.4344
39537W        W82590  31.331  22.112   0.491 -0.1269 -0.1176  0.2161
39538W        W82591  15.598   1.041   4.849 -0.0872 -0.1198 -0.2229
39539W        W82592   9.116  28.399  18.930  0.0718 -0.1677  0.1477
39540W        W82593  10.724  29.600   1.262  0.0195  0.1887  0.0591
39541W        W82594   2.960  26.022   3.704 -0.4584 -0.0665  0.2811
39542W        W82595  21.521  21.576   6.604 -0.0401 -0.2657  0.0610
39543W        W82596  32.088  25.230   4.297  0.0962  0.0409  0.1867
39544W        W82597   0.337  24.270   6.640  0.2000 -0.1891  0.3475
39545W        W82598  25.638   3.833   1.712 -0.2425  0.0529 -0.1253
39546W        W82599  22.922  28.783   9.393 -0.0022 -0.3042 -0.2072
39547W        W82600  22.044  29.755   7.685 -0.1570  0.0534  0.1194
39548W        W82601  12.755  33.361   2.727  0.0817  0.4529 -0.0793
39549W        W82602  32.509   5.355   9.430  0.1466 -0.0734 -0.1034
39550W        W82603  15.206  17.794  13.953  0.4019  0.0604  0.1892
39551W        W82604  26.595  27.802   2.220 -0.0440 -0.0298  0.0758
39552W        W82605  16.844   8.052   9.025 -0.4259 -0.0826 -0.3993
39553W        W82606  15.046   5.022   8.454  0.1302  0.1222  0.1294
39554W        W82607  18.830  32.440  10.437  0.0836 -0.0637  0.1210
39555W        W82608   3.728   1.685   9.190 -0.0256  0.2698 -0.1474
39556W        W82609   6.491   3.953   8.185  0.2899 -0.0976 -0.0949
39557W        W82610  33.592  23.648   2.277 -0.0757  0.1831 -0.1246
39558W        W82611  33.515  23.351   8.668  0.2817 -0.1023 -0.0002
39559W        W82612  26.221  13.948   1.365  0.1614  0.1828 -0.0842
39560W        W82613  29.854  16.276  28.771 -0.0792 -0.0055 -0.0261
39561W        W82614  20.022  18.177   7.876 -0.1640 -0.1365  0.4422
39562W        W82615  29.951  27.209   4.293 -0.0503 -0.2117  0.0004
39563W        W82616   3.807   3.061   7.889 -0.1997  0.1247 -0.0429
39564W        W82617  15.830   6.486   4.662  0.2400 -0.3627  0.3029
39565W        W82618  33.342   7.748   5.848 -0.0082  0.4420  0.3019
39566W        W82619  33.108  10.589   5.349 -0.0904 -0.1147 -0.2224
39567W        W82620  30.085   2.148   7.305  0.0188 -0.0015 -0.1761
39568W        W82621  29.289  26.907  10.102  0.0275 -0.0956  0.1079
39569W        W82622  30.993   0.201  28.127  0.0882 -0.2985 -0.4544
39570W        W82623  29.815  30.565   3.899 -0.1275  0.0106  0.2338
39571W        W82624  27.622   8.588   3.190  0.2385 -0.0501 -0.0997
39572W        W82625  33.769  33.501  24.088 -0.0502 -0.2073  0.0318
39573W        W82626  16.620  33.329  24.832  0.2244  0.2415  0.2906
39574W        W82627  13.056  18.593   4.776 -0.0859  0.1494  0.1268
39575W        W82628   5.710   2.870   6.755  0.0392 -0.3438  0.1520
39576W        W82629   1.425   3.710   4.809  0.0031 -0.2073  0.0627
39577W        W82630  30.875  23.472   2.674  0.1815 -0.1380 -0.1309
39578W        W82631  13.780  29.155  28.435 -0.1374 -0.0347 -0.0251
39579W        W82632   3.296  26.690   7.667  0.0027  0.0112 -0.2038
39580W        W82633  28.942  30.572  10.438 -0.0137 -0.0953  0.1502
39581W        W82634  27.760   0.190   1.868 -0.1784  0.2624  0.0773
39582W        W82635  13.150   5.547   7.770 -0.0843  0.0659 -0.0169
39583W        W82636  26.642  27.851  24.421  0.0719 -0.1395 -0.2249
39584W        W82637  28.283  20.879  22.234 -0.0018  0.2572 -0.2298
39585W        W82638  24.330  29.388  27.267 -0.0144  0.0080 -0.1921
39586W        W82639  31.237  26.147   2.193 -0.3060 -0.2171  0.0631
39587W        W82640  25.162   8.615   3.484  0.0233 -0.0072 -0.0189
39588W        W82641  10.597  29.118   1.351 -0.0636  0.0571 -0.2246
39589W        W82642  15.718   2.488   6.389 -0.3052 -0.0676  0.0340
39590W        W82643  23.885   2.548   6.776  0.0303 -0.1127  0.0016
39591W        W82644  15.917  24.518   2.491 -0.0496  0.0520  0.2658
39592W        W82645  26.958  29.681  24.042  0.1139 -0.2523 -0.3309
39593W        W82646  33.593  18.356  13.242  0.2507 -0.3717 -0.3511
39594W        W82647  20.070  27.539  21.654  0.0045 -0.0057  0.0614
39595W        W82648  22.738  27.378  24.030 -0.0216 -0.1374 -0.2076
39596W        W82649  19.749  13.972   6.219  0.1148  0.0059  0.2569
39597W        W82650  13.545  18.616   2.447 -0.1649 -0.1006 -0.1420
39598W        W82651  29.157  14.685   1.104  0.0549 -0.5594 -0.1432
39599W        W82652  16.406  31.148   6.539 -0.0874  0.1838  0.0045
39600W        W82653  27.807  34.594   7.238  0.1835 -0.0843 -0.0195
39601W        W82654  22.874  30.565   5.950 -0.1378 -0.5918  0.2385
39602W        W82655  24.553   2.255   4.861 -0.2114  0.0160  0.0712
39603W        W82656   0.521  15.032  27.581  0.1234 -0.0402 -0.1034
39604W        W82657  17.542  23.577   5.046  0.0943 -0.0451 -0.1337
39605W        W82658  32.082  11.823   4.398  0.1239  0.0138 -0.3142
39606W        W82659   1.306  19.836  28.631  0.0346 -0.0900 -0.0019
39607W        W82660  26.893  31.555   2.000  0.3674  0.0048 -0.0213
39608W        W82661  27.202  30.776   2.194 -0.2559 -0.0933 -0.4098
39609W        W82662  23.335  33.271   3.023 -0.0762  0.0989  0.2259
39610W        W82663   4.559  31.987  26.098 -0.0982  0.3935  0.3965
39611W        W82664   5.668   3.958   3.281  0.0254  0.1267 -0.0518
39612W        W82665  10.482  19.377   3.394 -0.3672  0.4504 -0.0046
39613W        W82666  19.423  16.276   3.586 -0.1504  0.2028 -0.0623
39614W        W82667  21.515   0.804  23.252 -0.2080 -0.2491 -0.1229
39615W        W82668  26.315   1.370  27.864  0.1087  0.0319 -0.1335
39616W        W82669  10.137  20.652  24.135  0.1463 -0.2284  0.0445
39617W        W82670  32.707  14.877   0.759 -0.3733 -0.0353  0.2287
39618W        W82671  26.122   4.080  25.211  0.0772 -0.1973 -0.1799
39619W        W82672  14.176  30.469   2.121 -0.2525  0.0696 -0.0337
39620W        W82673   3.726  28.987  28.230  0.2132  0.0419 -0.6079
39621W        W82674  19.381  10.658   8.814  0.2141 -0.0791 -0.0396
39622W        W82675   8.952  24.719  28.968 -0.2416 -0.1404 -0.3703
39623W        W82676   4.231   1.198   7.135  0.4210 -0.0570 -0.0022
39624W        W82677   3.226  31.881   7.141  0.1693  0.1129 -0.2292
39625W        W82678  20.738  23.470   8.511  0.0636 -0.2439 -0.2463
39626W        W82679   6.559  23.996   6.034 -0.1194 -0.1140 -0.2905
39627W        W82680  23.059  26.343  24.703 -0.1001 -0.1717  0.3108
39628W        W82681  24.658  10.615   5.872  0.1010 -0.2344  0.2417
39629W        W82682  10.739  21.614  18.497  0.0725 -0.2791 -0.0179
39630W        W82683  29.936   6.703   4.626 -0.0947 -0.2224 -0.2878
39631W        W82684   0.284  31.884  24.541 -0.2836 -0.2942 -0.5395
39632W        W82685  29.641  24.502  26.058  0.0047  0.2294  0.1335
39633W        W82686  19.945  27.080   6.703 -0.1305  0.2283 -0.1770
39634W        W82687  16.377  29.611   4.152 -0.0314 -0.1830 -0.3974
39635W        W82688   8.803  29.629   6.797 -0.1264 -0.4560 -0.1566
39636W        W82689  30.760  11.927   8.927  0.0616 -0.1769  0.3647
39637W        W82690  21.461  16.076  26.567  0.0641 -0.1156  0.2382
39638W        W82691  32.017  31.715  20.304 -0.1523  0.0455 -0.2397
39639W        W82692  15.574  10.750   9.118 -0.3569  0.0190  0.3260
39640W        W82693  25.173   2.417  14.629  0.1560 -0.1939  0.0081
39641W        W82694  30.513   4.439   7.431  0.1911  0.0212 -0.2124
39642W        W82695  29.833   3.061   0.453 -0.1399 -0.1626  0.2079
39643W        W82696  26.014   4.523   0.838  0.0364 -0.2087  0.1662
39644W        W82697   0.157  30.921  28.920  0.0226 -0.0938  0.1228
39645W        W82698  28.884   0.850  22.575 -0.3527  0.0894 -0.0691
39646W        W82699  22.631   2.876  25.946  0.0499  0.1740  0.1132
39647W        W82700  23.930  16.304   7.985 -0.1074  0.0087  0.1617
39648W        W82701   6.381  32.334   7.197  0.0148  0.1166  0.0937
39649W        W82702  32.930  18.189  17.049 -0.0616  0.2160  0.0944
39650W        W82703   0.408  28.918   0.883 -0.2385  0.2787  0.1184
39651W        W82704  14.967   2.331   4.911 -0.3904  0.2742  0.1030
39652W        W82705   2.860  34.577   5.800  0.0618 -0.1766 -0.4101
39653W        W82706  19.781  11.571  16.878 -0.1682  0.1965  0.3085
39654W        W82707  19.637  15.859   2.388  0.0562  0.2441  0.2017
39655W        W82708  25.611   3.865   9.122  0.0934 -0.2297 -0.3813
39656W        W82709  27.836   1.051  14.422 -0.0820  0.3690  0.1817
39657W        W82710  31.113  32.036   7.522  0.0664  0.2434 -0.1015
39658W        W82711  24.057  34.276  10.261  0.3851  0.0156  0.1637
39659W        W82712  26.470   2.092   1.454 -0.1323  0.0788  0.0715
39660W        W82713  32.816   2.173  26.458  0.6031  0.1894 -0.1372
39661W        W82714  11.748  16.144   5.063  0.0928 -0.3588 -0.2322
39662W        W82715  14.057   5.943   1.741  0.0654  0.1198  0.2455
39663W        W82716  34.383  33.786  26.799  0.0410  0.1637  0.0810
39664W        W82717  15.100   5.823  24.891 -0.0489  0.1367  0.0269
39665W        W82718  28.771   3.859  27.611 -0.1715 -0.2597  0.2859
39666W        W82719  17.205   9.264   7.211  0.1735  0.1743  0.0561
39667W        W82720  28.510   3.185  27.052 -0.1317 -0.2505 -0.2052
39668W        W82721  30.040   5.583   2.917  0.0226 -0.0126  0.1117
39669W        W82722  29.544   0.658  14.604  0.0525 -0.0995 -0.0202
39670W        W82723  12.898  30.441  14.936  0.0363 -0.2707 -0.1336
39671W        W82724  13.767   2.578   0.944  0.0334  0.1976  0.0747
39672W        W82725   6.725  21.799  21.958 -0.0564 -0.0101 -0.2248
39673W        W82726  29.811   3.213  29.065 -0.3242 -0.1888 -0.2033
39674W        W82727  32.589  30.390   5.797 -0.1332  0.0384 -0.3658
39675W        W82728  24.876  30.346   0.942 -0.3347 -0.2335 -0.0334
39676W        W82729  21.857  25.634  21.955 -0.0778 -0.0596 -0.0502
39677W        W82730  26.596   5.435   6.270 -0.0297  0.1042  0.1924
39678W        W82731  23.777   5.003   2.895 -0.2936  0.0224  0.4447
39679W        W82732  31.704  21.578   3.661 -0.0144  0.1032 -0.2388
39680W        W82733   0.449   8.313   3.294 -0.0025 -0.0554  0.2149
39681W        W82734  17.702  19.285   7.203  0.0762  0.0194 -0.1500
39682W        W82735  17.743   7.272   8.429 -0.0456 -0.2067  0.3535
39683W        W82736  26.564   8.710   8.447  0.0739 -0.0605 -0.1351
39684W        W82737   5.691  31.828   5.400  0.3608 -0.2982 -0.3168
39685W        W82738  24.623  30.185  16.256  0.0801 -0.1231  0.0284
39686W        W82739  31.357   4.650  26.872 -0.1609 -0.0889 -0.0375
39687W        W82740  23.969  30.530   6.521 -0.0462 -0.2229 -0.4176
39688W        W82741  24.474  27.496   4.046 -0.0783  0.3635  0.0850
39689W        W82742  19.661  28.373   8.297  0.1235  0.2671  0.3312
39690W        W82743  28.482  26.826  27.865 -0.0725 -0.1823 -0.1290
39691W        W82744  31.504  24.604   8.715 -0.0027 -0.0222 -0.1139
39692W        W82745  12.068  25.256   7.670  0.0592  0.2065  0.3271
39693W        W82746  15.680  20.311  27.374 -0.0196 -0.0432  0.0429
39694W        W82747  25.374   5.368  19.510 -0.1526 -0.0883  0.3123
39695W        W82748   0.791  29.727   0.998 -0.2165 -0.0362 -0.0848
39696W        W82749  25.300  15.641  19.193 -0.4895  0.1875 -0.0004
39697W        W82750  34.385  30.412   8.076 -0.0041 -0.1427  0.1669
39698W        W82751  16.596   6.509   4.395  0.0085  0.3699 -0.0347
39699W        W82752  23.848   8.986  24.133 -0.2010  0.2094  0.1601
39700W        W82753  11.000  13.966  20.332  0.0251  0.0580 -0.0704
39701W        W82754  27.550   4.727   6.668  0.0559 -0.4197 -0.1424
39702W        W82755  26.240   6.075  27.208 -0.1270  0.0633 -0.1672
39703W        W82756   7.934   3.605   7.379 -0.0667 -0.1812  0.0043
39704W        W82757   4.294   6.433  15.540  0.1459 -0.0139  0.0705
39705W        W82758  32.645  17.756   1.712 -0.2526 -0.1409 -0.1094
39706W        W82759   4.748  27.399   1.548  0.2892  0.1405  0.3495
39707W        W82760  30.608  32.601   0.434 -0.0724 -0.0663 -0.0134
39708W        W82761  25.089  30.354   2.461 -0.1065  0.2221  0.0583
39709W        W82762  21.090   0.054  14.088 -0.0825  0.2156  0.3672
39710W        W82763  12.548   9.072  11.189 -0.0421  0.0159 -0.1224
39711W        W82764  15.096  13.177  18.306  0.1346  0.1408 -0.0810
39712W        W82765  24.300   1.744   2.950  0.0073 -0.0195 -0.1106
39713W        W82766  20.808   6.620   9.064  0.0598  0.1498  0.0743
39714W        W82767  33.129  24.062   4.623 -0.1672  0.0007 -0.0252
39715W        W82768  25.649  14.055  26.665 -0.1452  0.2611  0.0676
39716W        W82769  20.332   3.491  29.005  0.0727  0.2495  0.1303
39717W        W82770  24.791  21.250  19.005 -0.2830 -0.0602 -0.1915
39718W        W82771   4.685  26.183   3.510 -0.1671 -0.0962  0.2619
39719W        W82772  30.218   8.221  25.256  0.2577  0.1359 -0.0853
39720W        W82773  31.148  28.257  25.839  0.0256 -0.0817 -0.3902
39721W        W82774   7.352  13.645  28.463 -0.2114  0.0097  0.0164
39722W        W82775  15.016  28.814  23.747 -0.0193  0.0908 -0.0689
39723W        W82776  29.385   1.684  20.281 -0.4497  0.0289  0.2451
39724W        W82777  15.760  20.228   4.554  0.0782  0.0046 -0.1433
39725W        W82778  26.693  10.489   5.135  0.0585 -0.2289 -0.0344
39726W        W82779  21.231  23.125   9.404  0.2358  0.3292 -0.0471
39727W        W82780  20.647  17.917  20.817  0.0031 -0.0823  0.2211
39728W        W82781  21.205  32.329   2.009 -0.2144  0.0733  0.3490
39729W        W82782  33.002   1.143   3.563  0.0822 -0.2723  0.0729
39730W        W82783  25.264  32.300   5.419 -0.1537 -0.0154 -0.2194
39731W        W82784  31.154   2.520  17.512 -0.1604  0.0676 -0.1172
39732W        W82785  33.046  13.198   3.985  0.3886  0.2284 -0.1430
39733W        W82786  20.763  13.394   7.212 -0.0559 -0.0625  0.1472
39734W        W82787  28.054   9.889   8.350 -0.2297  0.1092  0.2643
39735W        W82788  22.685   5.611  23.596  0.1629 -0.0291 -0.2413
39736W        W82789   7.356  30.457   6.514 -0.3760 -0.2857  0.1835
39737W        W82790  22.970   8.952   6.315  0.0669  0.0429  0.1094
39738W        W82791   4.876  11.380   6.955 -0.1812  0.0348 -0.0032
39739W        W82792   8.200   3.014   2.069  0.0262 -0.4189  0.0605
39740W        W82793  13.274  14.768   7.868 -0.2775 -0.1150  0.1981
39741W        W82794  18.392   1.644  27.835  0.0487 -0.0062  0.4128
39742W        W82795  21.858  20.145  25.562  0.1052 -0.1639 -0.0043
39743W        W82796  23.134  26.398  20.897  0.0239  0.1092 -0.0795
39744W        W82797  30.689  13.437  23.182 -0.0597 -0.3386 -0.0837
39745W        W82798  24.842  23.277  17.236 -0.2144 -0.0096  0.2270
39746W        W82799  29.521  33.467   4.395  0.0204  0.1254  0.1798
39747W        W82800  25.362  24.104   8.599 -0.0881  0.2539  0.0216
39748W        W82801  26.282  34.361   9.234 -0.3516 -0.1744  0.0410
39749W        W82802  32.793  28.186  18.991  0.1050 -0.0668 -0.0110
39750W        W82803   0.584  26.155  27.783  0.0941 -0.1107  0.2593
39751W        W82804  31.712  25.064   0.289  0.0248 -0.0998 -0.1799
39752W        W82805  34.590  11.349  14.774  0.0059 -0.1669 -0.2750
39753W        W82806  30.929   5.412   6.475  0.0252 -0.0510  0.1110
39754W        W82807  24.106   6.972   9.936 -0.0307 -0.1165  0.1895
39755W        W82808  10.196  14.729   6.890  0.0305  0.1620 -0.0973
39756W        W82809   6.977   4.271   3.707 -0.6176  0.0366  0.0995
39757W        W82810  29.753  15.587  26.069 -0.0564 -0.1192  0.0772
39758W        W82811  23.596   2.769   1.191 -0.3127 -0.2477 -0.2147
39759W        W82812  30.163  34.022  14.444  0.1031  0.0548  0.0663
39760W        W82813  33.260   5.909   5.665 -0.2203 -0.0423  0.2284
39761W        W82814  30.530   6.158  26.110 -0.2245 -0.1242  0.2181
39762W        W82815  18.927  31.562   6.505 -0.3026 -0.1026 -0.3960
39763W        W82816   0.267   1.051   7.231 -0.0980  0.0376  0.4411
39764W        W82817  23.454   1.041   9.479  0.0323  0.0391 -0.1757
39765W        W82818  20.363  32.649  27.194 -0.0069  0.0573 -0.4227
39766W        W82819  19.751   4.340   1.588  0.3753  0.0003 -0.1751
39767W        W82820  32.273  12.657  23.609  0.0730 -0.1577  0.0590
39768W        W82821  18.834   4.618  14.533  0.2625  0.0535  0.0223
39769W        W82822  34.200  29.093  20.732 -0.0930 -0.1987 -0.1604
39770W        W82823  26.396  31.892   7.003  0.0983  0.0134  0.2613
39771W        W82824  13.074  26.749  28.842 -0.1113 -0.4887 -0.2027
39772W        W82825  26.003  30.982  14.318  0.3065 -0.1075  0.1446
39773W        W82826  21.492  32.080   9.314 -0.3159  0.1060  0.4502
39774W        W82827  34.126   8.300   4.039  0.3196 -0.0940 -0.0425
39775W        W82828   9.428   0.191  27.871 -0.2949 -0.0448  0.3038
39776W        W82829  21.129   7.576   0.571 -0.3841 -0.1269 -0.0178
39777W        W82830  24.848  28.512   8.806  0.1678 -0.2308 -0.2966
39778W        W82831   5.617   0.541  16.333 -0.0020  0.0058 -0.0047
39779W        W82832  34.266   1.078  28.378  0.3891 -0.2069 -0.2680
39780W        W82833  22.390  29.797   2.059 -0.0008  0.2177 -0.0950
39781W        W82834  13.775  15.616  23.703  0.1046  0.0809  0.0071
39782W        W82835  13.551  20.771  26.263 -0.1379  0.2123  0.2066
39783W        W82836  11.653  14.974  17.087  0.0703 -0.2154  0.0454
39784W        W82837  25.228  27.533  22.383 -0.0990  0.1848 -0.1160
39785W        W82838  20.543  19.716   8.181  0.1876  0.3329 -0.0154
39786W        W82839  33.386  31.310   7.414  0.0562  0.0229 -0.0942
39787W        W82840  14.617  28.303   2.514 -0.0316  0.0364  0.2341
39788W        W82841  16.465  33.839   6.255 -0.1811 -0.0995 -0.0200
39789W        W82842  25.831   5.673  21.581  0.0178 -0.0259  0.0270
39790W        W82843   5.054  30.820   6.568  0.0739 -0.0956 -0.1681
39791W        W82844  15.546  18.210  27.565 -0.0226  0.0406  0.0982
39792W        W82845  16.840  31.961   1.347 -0.2434 -0.0186  0.2443
39793W        W82846  23.612  33.480  14.945 -0.0256 -0.1391  0.0421
39794W        W82847   1.674  33.681   8.159 -0.1516 -0.0494 -0.0998
39795W        W82848  28.063  31.326  22.801 -0.2575  0.3191  0.0654
39796W        W82849  33.610  19.981  18.654  0.2426  0.0010 -0.1437
39797W        W82850   4.277  30.899  24.395  0.1383  0.1511  0.2088
39798W        W82851  27.282  31.512   4.893 -0.0705  0.2039  0.1629
39799W        W82852  28.433  21.391  21.453 -0.2943  0.0755 -0.1039
39800W        W82853  19.988  24.088  28.649  0.4851 -0.0834  0.0084
39801W        W82854  32.897  31.424   0.952  0.2495  0.1776 -0.1971
39802W        W82855   6.233  11.121   0.615 -0.1806  0.1612 -0.2760
39803W        W82856  18.120  15.361   4.775  0.2650 -0.1111  0.2875
39804W        W82857  12.470  27.327   4.878 -0.0460  0.1733  0.0950
39805W        W82858  30.730  32.911  19.660 -0.2998 -0.0848  0.1733
39806W        W82859  15.784  25.478  15.613 -0.0636  0.0287  0.2067
39807W        W82860   8.030  20.005   9.755  0.0692 -0.3602  0.1274
39808W        W82861  23.347  32.906  23.121 -0.1606  0.0802 -0.1266
39809W        W82862   4.305  28.366   6.997  0.0886  0.1102 -0.0412
39810W        W82863  30.609  10.405   6.177 -0.2481  0.4018  0.1843
39811W        W82864   1.951  29.516  20.728 -0.3152  0.2678 -0.0806
39812W        W82865  30.363  30.704  14.691 -0.1025  0.1192 -0.2675
39813W        W82866  32.771  31.162   1.927 -0.3684 -0.0141  0.0664
39814W        W82867  26.405   0.677   4.521 -0.1837  0.2571  0.0724
39815W        W82868  28.112  19.349  28.963  0.4199 -0.0090  0.1804
39816W        W82869  31.214  28.242   2.229 -0.0395  0.1305 -0.3397
39817W        W82870  29.318   6.192   6.242  0.3330  0.2153 -0.3071
39818W        W82871  18.826  24.262   6.685  0.2569  0.1641 -0.1235
39819W        W82872  22.931   9.148   7.159 -0.2733  0.3712 -0.0216
39820W        W82873   5.799  10.335  23.122  0.0966 -0.0739  0.0162
39821W        W82874   3.946  34.465  26.281 -0.2549  0.1846  0.2342
39822W        W82875  19.521   5.189   4.751  0.0842  0.4097 -0.0770
39823W        W82876  17.356  32.846  22.804 -0.2454  0.0303 -0.1382
39824W        W82877  33.319  23.809   6.715 -0.1084 -0.1168  0.0043
39825W        W82878  24.386  29.363   9.372 -0.1625  0.0329 -0.2118
39826W        W82879  10.787  23.933  23.592 -0.2270 -0.1076 -0.2096
39827W        W82880  29.179   6.120  25.627  0.0544  0.1279 -0.3207
39828W        W82881  26.974  10.431  26.257  0.0381  0.1825 -0.0891
39829W        W82882  28.011  26.319  28.781 -0.2361  0.2315 -0.2052
39830W        W82883  26.477  11.886  26.704  0.1454 -0.3167  0.4555
39831W        W82884  23.059   1.085   1.157 -0.0619 -0.1644  0.0227
39832W        W82885  11.326  34.593   3.364  0.1687 -0.0224 -0.1339
39833W        W82886  27.859  10.348   5.209 -0.3326 -0.2266  0.0714
39834W        W82887  18.023  32.542  23.975  0.0476  0.2147  0.0378
39835W        W82888  28.043   5.141  19.845  0.0328  0.0034 -0.0661
39836W        W82889  11.741  28.190  17.422  0.1110  0.1487 -0.2886
39837W        W82890   0.576  34.673   6.409 -0.0271  0.1051 -0.0237
39838W        W82891  34.000  34.288   3.965  0.1331  0.1348 -0.2005
39839W        W82892  33.020   4.399  21.322 -0.2255  0.0411  0.2210
39840W        W82893  27.068  31.262   2.339  0.2121  0.1885  0.0049
39841W        W82894   6.244   3.740  17.951 -0.1049 -0.1937 -0.0349
39842W        W82895  21.985  23.285  10.454  0.0765 -0.0409 -0.4188
39843W        W82896  20.276   5.410   6.289  0.4741 -0.2630 -0.0890
39844W        W82897  26.155  33.908   7.528  0.0153  0.2000  0.2055
39845W        W82898  26.384  25.243   6.673  0.0298  0.1071  0.2384
39846W        W82899  29.486  21.739  16.507  0.1226  0.0273  0.2682
39847W        W82900  27.416  30.613   3.399 -0.0421 -0.4594 -0.2181
39848W        W82901  11.285  33.520   2.535 -0.3192  0.1260 -0.2252
39849W        W82902   4.432  19.885   7.720  0.1280  0.0920  0.0678
39850W        W82903  23.517  28.563  21.497  0.0032  0.2048  0.1966
39851W        W82904  22.215   2.022   9.288  0.0062  0.1423 -0.0700
39852W        W82905  17.771  23.815   9.947  0.2846 -0.1607 -0.2915
39853W        W82906  28.191   2.230   4.335 -0.1134 -0.0322 -0.1524
39854W        W82907  23.392  14.057  27.827  0.3270  0.2686 -0.2020
39855W        W82908  17.739  30.881   1.940 -0.1157 -0.0898  0.1099
39856W        W82909  32.369  28.375   6.859 -0.0155  0.0088 -0.0733
39857W        W82910  11.757   1.045   1.427  0.3314  0.1591 -0.0195
39858W        W82911   3.467  33.387  25.646 -0.0309 -0.1720 -0.1303
39859W        W82912  21.338   5.632   8.915 -0.0081 -0.1495  0.1471
39860W        W82913  31.019  31.507  10.142  0.0269  0.1667 -0.0125
39861W        W82914  29.818  34.645   7.005  0.0626 -0.2382  0.0859
39862W        W82915  31.482  25.342   7.613 -0.0683 -0.1908 -0.3717
39863W        W82916  19.794  28.081   3.837 -0.0705  0.2407 -0.1112
39864W        W82917   8.836  23.289   5.026  0.1620 -0.1619 -0.0155
39865W        W82918  25.379  13.286   5.521 -0.1157 -0.1010 -0.0244
39866W        W82919  22.329  10.258  24.385 -0.2683  0.0365  0.1433
39867W        W82920  13.309  32.345   4.458 -0.0251  0.0685 -0.3641
39868W        W82921   2.151   7.878   5.663  0.1424  0.1527  0.1014
39869W        W82922  33.269   8.172   8.338  0.4614  0.0970  0.1949
39870W        W82923  18.618  14.709   2.345  0.0754  0.0105 -0.0343
39871W        W82924  27.913  29.515   3.677 -0.2272  0.1483 -0.5458
39872W        W82925  34.451  25.437   5.388 -0.2387 -0.1988 -0.1239
39873W        W82926  22.823  24.304   5.515 -0.0023 -0.0580 -0.0392
39874W        W82927  20.069  14.184  21.241  0.0013 -0.1523  0.2086
39875W        W82928  12.691  28.548   7.872  0.2385 -0.0215 -0.0010
39876W        W82929  31.182  34.169   8.332  0.2439 -0.0652 -0.2100
39877W        W82930  34.483  28.399  23.312 -0.2613  0.0299  0.1207
39878W        W82931  21.237  34.659   8.312  0.1534  0.1390 -0.2833
39879W        W82932  15.666  32.816  27.850  0.1706  0.0757  0.2320
39880W        W82933   0.948  11.598   5.636 -0.0210  0.1928 -0.1349
39881W        W82934   8.475  27.292   6.835 -0.1286  0.3281  0.0514
39882W        W82935   2.962  11.831  23.361  0.1406  0.2766 -0.3413
39883W        W82936   9.372  23.809   3.593  0.2514 -0.1167  0.0348
39884W        W82937  13.963  19.876  17.518 -0.2254  0.0934  0.1054
39885W        W82938  26.518   2.561   1.069 -0.1534  0.0999 -0.3179
39886W        W82939  28.736  15.034  27.730  0.1884 -0.2702 -0.2914
39887W        W82940   0.565  31.110   1.514 -0.4550  0.0010 -0.1793
39888W        W82941  30.614  31.295  29.095 -0.0391 -0.0133  0.1084
39889W        W82942  33.226  27.681   3.759  0.2345  0.1608 -0.1998
39890W        W82943   7.333  27.048   8.531 -0.1228 -0.1104 -0.1199
39891W        W82944  27.204   5.560   0.456 -0.1192  0.0015  0.0469
39892W        W82945  13.785   6.628  10.065 -0.2075  0.2682  0.0507
39893W        W82946  16.537   3.347   4.351 -0.0851 -0.0384  0.0239
39894W        W82947  19.337  23.432  15.257  0.0574  0.0672 -0.1179
39895W        W82948   2.628  32.989   6.091  0.2348 -0.0109  0.0083
39896W        W82949   5.392  21.839   1.764  0.0955  0.1592 -0.0927
39897W        W82950  29.260  32.151  23.604 -0.1446  0.1078 -0.1365
39898W        W82951  16.350  28.280   0.149  0.2208 -0.0561  0.2030
39899W        W82952  25.164  27.892  28.802  0.1912  0.0671  0.1735
39900W        W82953  26.543   8.225   5.024 -0.1252 -0.0355 -0.1806
39901W        W82954  26.797  27.859   4.353  0.0044  0.2774  0.0042
39902W        W82955  27.931  27.971   5.455 -0.1321 -0.1136 -0.0082
39903W        W82956   5.196   8.359   0.353 -0.2939 -0.0364  0.3302
39904W        W82957  32.230  26.849   7.546  0.0796  0.0770 -0.2323
39905W        W82958  26.355  29.825   8.950  0.0325 -0.0057  0.3158
39906W        W82959  30.920  31.936  26.053  0.0739 -0.0483  0.3748
39907W        W82960  15.964  27.617  19.608  0.0877 -0.0057 -0.0010
39908W        W82961  27.348  34.426   8.033  0.2262 -0.0003  0.0665
39909W        W82962  23.295  30.084   9.637  0.2112  0.1634 -0.2706
39910W        W82963  15.822  16.490  15.340 -0.1462  0.4621  0.0356
39911W        W82964  19.943  18.776   4.464 -0.2828  0.1227 -0.1393
39912W        W82965   8.867  33.142  28.308  0.0208  0.0769  0.1991
39913W        W82966   7.205  27.071   5.233  0.2472 -0.2427  0.2028
39914W        W82967  20.123  33.862   0.574  0.1822  0.3128  0.1136
39915W        W82968  23.151  27.811   7.441 -0.2728  0.0489  0.0172
39916W        W82969  28.566  27.485  27.019  0.0234  0.1667  0.1758
39917W        W82970  25.056  20.507   8.726  0.2572 -0.4211  0.1738
39918W        W82971  16.129  22.657  22.181  0.1405 -0.1488  0.1442
39919W        W82972  12.817  28.517   3.542  0.1827  0.1965 -0.0932
39920W        W82973  25.702  34.154   9.326 -0.0072 -0.0833  0.2071
39921W        W82974  26.562   3.759  23.566  0.1036  0.2431  0.1155
39922W        W82975  10.102   5.106  21.233 -0.0863  0.0308  0.0965
39923W        W82976  22.145  30.812   0.237  0.0931  0.0885 -0.1916
39924W        W82977  21.087  12.115   9.387  0.2612 -0.0443 -0.2546
39925W        W82978  32.212  22.004   6.926 -0.0149  0.1017  0.0629
39926W        W82979   3.588   2.361   7.911 -0.2761  0.5492  0.0154
39927W        W82980  31.768  13.947   8.308 -0.0695  0.1994 -0.2250
39928W        W82981  22.586  20.989   2.024 -0.0307 -0.0128 -0.1512
39929W        W82982   6.425  31.452   8.406 -0.0910  0.0106  0.1010
39930W        W82983   2.890  10.696   8.384 -0.0178 -0.0255 -0.0023
39931W        W82984  24.260  33.443   6.951  0.0865 -0.1155 -0.1954
39932W        W82985   7.728  21.569   1.742  0.4202 -0.1637  0.0104
39933W        W82986   4.113   8.464   2.220  0.1043 -0.0252  0.1977
39934W        W82987  18.322  28.748   6.291  0.0662 -0.0623 -0.0121
39935W        W82988   4.885   7.086   8.036  0.2835 -0.0654 -0.2013
39936W        W82989  27.564  28.799  28.162  0.1396  0.1289  0.2119
39937W        W82990  22.379  28.775   7.919 -0.1833 -0.1186 -0.0065
39938W        W82991  29.909   7.152  27.402 -0.2288 -0.0622 -0.0315
39939W        W82992  22.556  31.466  24.974 -0.0085 -0.2335  0.1105
39940W        W82993  27.356   9.586   8.839  0.2061  0.0103 -0.1345
39941W        W82994  27.855   7.669  17.132  0.2147  0.0252 -0.2743
39942W        W82995  19.850   0.412   3.074  0.1598  0.1018  0.1753
39943W        W82996  30.519  29.942   5.715 -0.1201 -0.1036 -0.2738
39944W        W82997  28.405  34.567   7.194  0.0345 -0.0302 -0.0992
39945W        W82998   1.644  13.052  28.839  0.0554  0.2319  0.0874
39946W        W82999   0.349  34.104   2.383  0.1920  0.1533  0.2268
39947W        W83000  32.840  26.316  24.167 -0.3232  0.0688  0.0141
39948W        W83001   2.432  30.086   2.814  0.0561  0.2937 -0.1003
39949W        W83002  12.416   2.940   8.944  0.2039  0.0491  0.0279
39950W        W83003  27.689  29.148   4.535 -0.0475 -0.2114 -0.2475
39951W        W83004  33.769  32.934  21.885 -0.0989  0.0767  0.1902
39952W        W83005  19.959   8.227   6.022  0.0894  0.3791 -0.1611
39953W        W83006  25.596   4.714  10.274 -0.2379  0.1260 -0.3091
39954W        W83007  27.414  26.993   2.286  0.0877  0.1418 -0.1085
39955W        W83008   2.519   0.330   1.249 -0.2954 -0.0603  0.1427
39956W        W83009   0.622  29.282  21.029  0.0296  0.0905  0.5353
39957W        W83010   2.603  33.729   0.686  0.2590  0.3999 -0.0956
39958W        W83011  22.601   3.682   0.180 -0.1737 -0.0864 -0.1598
39959W        W83012  25.425  33.561  20.506  0.3014  0.0023 -0.2604
39960W        W83013  29.233  33.813   9.593 -0.2428 -0.0837  0.0037
39961W        W83014  27.022  30.461   6.723 -0.1631 -0.1620 -0.2320
39962W        W83015  16.323   0.687   5.195  0.1362  0.3288  0.4324
39963W        W83016   6.106   3.553   4.739  0.0939 -0.1738 -0.0030
39964W        W83017   0.746  33.706  28.532 -0.1668 -0.2858  0.1717
39965W        W83018   3.316  32.844   7.355 -0.0450 -0.3242  0.0381
39966W        W83019  26.615  28.333   2.266  0.0538  0.1531  0.0201
39967W        W83020  22.947  27.443   3.240 -0.0392  0.2566  0.2334
39968W        W83021  25.289  28.361   3.941 -0.3158  0.0878 -0.0866
39969W        W83022  27.323  31.847  15.021  0.2441 -0.0791  0.2246
39970W        W83023   3.416   0.755   1.398  0.2757  0.3233  0.1257
39971W        W83024  27.647   8.664   8.147 -0.1849 -0.1847 -0.0768
39972W        W83025  24.188   7.102  27.632 -0.2933  0.0131 -0.0529
39973W        W83026  30.289   1.580  28.988 -0.1282 -0.1880  0.1536
39974W        W83027  31.712  33.379  24.748  0.1669  0.0976  0.2148
39975W        W83028  34.347  24.453   3.518 -0.1240 -0.0007  0.0420
39976W        W83029  19.846  10.625  24.610  0.1990 -0.2190  0.3468
39977W        W83030  26.594  23.556   2.334 -0.2513  0.1261  0.0354
39978W        W83031  30.792  15.189   7.778 -0.0108 -0.1112  0.1663
39979W        W83032  26.192  26.588   7.569 -0.0152  0.1749  0.2238
39980W        W83033  31.253   7.608   2.481  0.3437 -0.0270 -0.0264
39981W        W83034  16.142   2.676   6.741 -0.1370  0.1107  0.0153
39982W        W83035  13.402   8.091  17.021 -0.1322 -0.0129 -0.0803
39983W        W83036  23.066   0.832   2.828  0.2692 -0.0896 -0.4185
39984W        W83037  29.958  29.127  24.344 -0.2190 -0.0632 -0.0628
39985W        W83038  33.472  25.741   4.566  0.0709 -0.3911  0.0652
39986W        W83039  18.559   3.523  28.393  0.0960  0.0511 -0.0447
39987W        W83040  27.536  11.704   1.939  0.0935 -0.0688  0.1803
39988W        W83041  23.466   9.940   3.631  0.0186  0.0673 -0.1423
39989W        W83042  24.527   6.123   1.207 -0.1886  0.0969  0.1883
39990W        W83043  25.128  27.020  10.138  0.0099  0.2001  0.2143
39991W        W83044  28.347   2.056   1.844  0.0155 -0.0449  0.1322
39992W        W83045   2.354  18.239   0.114  0.0327  0.0227  0.1031
39993W        W83046   8.947   9.458   6.792  0.1465 -0.1278 -0.2407
39994W        W83047  25.324  26.413   4.459 -0.3047 -0.2768  0.1070
39995W        W83048  33.043  29.943  18.833  0.0472 -0.1283  0.0263
39996W        W83049  17.181  24.115  26.752  0.1814  0.1506  0.1760
39997W        W83050  32.430  29.484   6.701  0.1548  0.2766 -0.0397
39998W        W83051   2.828   5.881   4.721 -0.1227  0.1917 -0.0776
39999W        W83052  33.188  28.651  18.351  0.0858  0.3313 -0.1070
40000W        W83053  24.881  29.825   4.298 -0.1479  0.0135  0.0128
40001W        W83054   3.937   2.429   8.612  0.0488 -0.2709 -0.1677
40002W        W83055  27.021  26.640   6.069 -0.1516 -0.3409  0.1799
40003W        W83056  19.104  23.783   7.623 -0.0297 -0.0659 -0.0053
40004W        W83057  31.935  10.810   9.236  0.1482  0.2213  0.0255
40005W        W83058  14.345   3.874   0.796 -0.3249  0.1363  0.1452
40006W        W83059  32.232  23.310  25.621  0.1888 -0.1736 -0.2084
40007W        W83060  29.632  25.697   7.025 -0.2516 -0.0068  0.2760
40008W        W83061  18.160  27.607   3.233  0.1011 -0.0614 -0.1118
40009W        W83062  29.021  29.934   6.277 -0.1371  0.0451  0.0130
40010W        W83063  15.138  31.213   5.278  0.3644  0.0168 -0.0630
40011W        W83064  18.644  10.958   7.352 -0.0197  0.3247  0.0741
40012W        W83065   4.419   6.656   2.267 -0.1294 -0.4032 -0.1093
40013W        W83066  26.816  24.270   9.625  0.1676  0.1902  0.2689
40014W        W83067  29.433   9.064   2.467 -0.0145 -0.0709  0.2883
40015W        W83068  22.769  30.527   6.898 -0.1641  0.1266 -0.3341
40016W        W83069  23.160   2.354   9.359 -0.2586  0.4024  0.2505
40017W        W83070   2.461  26.994  13.969  0.1189 -0.2093  0.0121
40018W        W83071  25.986   0.614   3.486  0.0970 -0.0929  0.2511
40019W        W83072  24.080  25.374  26.299  0.2909  0.3408 -0.1383
40020W        W83073  27.220  17.216   9.510 -0.2062  0.4842 -0.1313
40021W        W83074   1.249   4.077   3.077 -0.0506  0.0691  0.2961
40022W        W83075  19.046   6.052   7.968 -0.3328 -0.2697  0.0559
40023W        W83076  33.332  32.346   7.149 -0.1389  0.0525 -0.1462
40024W        W83077  25.628   3.373   9.821  0.0985  0.1080  0.4470
40025W        W83078  26.535  17.690  23.609 -0.2341 -0.4079 -0.1686
40026W        W83079  28.267   0.354  16.699  0.2822 -0.2098  0.1777
40027W        W83080  20.169  23.117  29.044  0.5030 -0.1381 -0.0352
40028W        W83081  26.644  10.802  28.820 -0.0634  0.0126 -0.1236
40029W        W83082  29.143  19.681   0.097  0.3523 -0.3635  0.3087
40030W        W83083   8.637  29.004   8.570 -0.1956  0.1103 -0.1643
40031W        W83084  15.994  24.499   2.989  0.1001  0.4270  0.0336
40032W        W83085  24.324  27.256   9.415  0.1571  0.2577  0.3151
40033W        W83086  19.277   4.862   5.834 -0.1088  0.1040 -0.0388
40034W        W83087  27.486   0.265   3.377 -0.0722  0.0794  0.0842
40035W        W83088  19.531  30.441   3.336  0.1458  0.3312  0.1775
40036W        W83089  20.512  32.630  18.332 -0.1532 -0.2025  0.1170
40037W        W83090  20.930  13.429   6.430  0.2261  0.1503 -0.0144
40038W        W83091   2.143   7.470   3.522 -0.0484  0.2601  0.0813
40039W        W83092  33.939  29.048   1.594 -0.0597 -0.2347  0.2235
40040W        W83093   8.088  18.556  22.539  0.1516 -0.3147 -0.0346
40041W        W83094   6.928   5.716   5.120 -0.4458  0.1569  0.0962
40042W        W83095  17.999   5.140  28.135  0.2099 -0.2572 -0.1725
40043W        W83096  34.216  22.292   9.026  0.0279 -0.0153 -0.0242
40044W        W83097  16.316  31.369   9.655 -0.0431 -0.2050  0.3605
40045W        W83098  33.265   4.874   3.842 -0.0341 -0.0919 -0.0999
40046W        W83099  23.862  31.817  20.017  0.0663 -0.0981  0.0336
40047W        W83100   9.226  30.246   3.463  0.1639  0.1175  0.3310
40048W        W83101  11.282   8.074  18.985  0.1466  0.1326  0.0455
40049W        W83102  25.488  33.325   4.838 -0.2643  0.3211  0.1776
40050W        W83103  29.082  10.865   2.735  0.1723  0.0035  0.3662
40051W        W83104   8.996  29.811   0.578 -0.0684 -0.0208  0.2200
40052W        W83105  26.149  24.967   3.481 -0.1026 -0.2338  0.0331
40053W        W83106   2.790   3.866   4.025  0.2874  0.3016  0.2087
40054W        W83107  19.100  32.315   7.657 -0.0939  0.1036 -0.2776
40055W        W83108  26.898  11.291   3.811  0.2397 -0.1602  0.2751
40056W        W83109   2.590  30.361   5.741  0.0666 -0.1106 -0.6014
40057W        W83110  30.491  33.506   7.338  0.0881  0.2312 -0.1154
40058W        W83111   1.509  29.187   5.008 -0.2331  0.1461  0.0876
40059W        W83112  27.877  13.984  27.548 -0.1929 -0.1980  0.1069
40060W        W83113  30.834  34.446   6.599  0.0232  0.1307  0.0421
40061W        W83114   8.892  24.464  26.448  0.0687 -0.0096  0.0324
40062W        W83115  29.159  19.248  26.475 -0.0063  0.0697  0.0902
40063W        W83116  10.607  15.966   3.806  0.0636  0.2460  0.0587
40064W        W83117  24.670  25.625   9.462 -0.2508 -0.0157 -0.1123
40065W        W83118  31.892  19.277   9.388  0.4041  0.1273 -0.3209
40066W        W83119  32.454  32.765   9.807 -0.0544  0.0129 -0.0417
40067W        W83120  24.205  18.891   9.954 -0.1552 -0.0258 -0.1031
40068W        W83121  29.257  24.937   9.746 -0.1297 -0.2294  0.0703
40069W        W83122   7.103  29.805   1.562  0.0914 -0.0630 -0.2190
40070W        W83123  18.647   1.498   8.247 -0.1474 -0.0916 -0.6396
40071W        W83124  17.121  26.532   1.340 -0.0145  0.2130 -0.1609
40072W        W83125  27.455   1.866   5.918 -0.0051  0.2212  0.1359
40073W        W83126  20.266  33.496  25.712  0.1410  0.2195  0.0217
40074W        W83127  18.876   0.025   7.396 -0.0047 -0.1604 -0.3428
40075W        W83128  21.394  32.591   3.098 -0.0300 -0.0841  0.2216
40076W        W83129  23.242   8.289  24.042  0.2912 -0.2337 -0.3518
40077W        W83130  27.928  31.170   9.977 -0.0823 -0.0168 -0.0130
40078W        W83131   3.701  34.575   7.592 -0.1399 -0.3083 -0.0283
40079W        W83132  33.743  30.525  28.135 -0.1182  0.0612 -0.0417
40080W        W83133  23.597  29.360   5.569  0.1781  0.1500 -0.3563
40081W        W83134   2.401   7.637   9.471 -0.2834  0.0884 -0.3310
40082W        W83135  27.304  30.615   4.854  0.1305  0.3088 -0.3898
40083W        W83136   0.697   6.307  28.306  0.1120 -0.5034 -0.1810
40084W        W83137  31.380  21.349  27.943 -0.0673 -0.1448 -0.0335
40085W        W83138  23.944  17.589   4.050  0.0816 -0.0124  0.0551
40086W        W83139  24.603  25.807  21.027 -0.2060 -0.2626 -0.1051
40087W        W83140  26.037  11.196  27.875 -0.1334 -0.0017 -0.0001
40088W        W83141   9.511  29.265  27.319  0.1479  0.2183  0.0080
40089W        W83142  12.862  25.375  24.822 -0.0981  0.1009 -0.0016
40090W        W83143  15.938   3.680   2.098 -0.0777 -0.2899  0.2407
40091W        W83144  26.103   3.010   8.623 -0.0038  0.3620 -0.0323
40092W        W83145   8.043  31.218   8.390  0.2371  0.0139 -0.1178
40093W        W83146  33.212  22.104   1.963  0.0528  0.2861  0.0644
40094W        W83147  21.058  11.615   9.216  0.1576 -0.0281 -0.1826
40095W        W83148  28.979   2.326   6.074  0.0746  0.0372  0.0232
40096W        W83149  30.466   1.482   3.302  0.2482  0.2441 -0.2606
40097W        W83150  23.767  14.625  28.581 -0.0571  0.2062  0.0335
40098W        W83151  18.162  29.323  28.970 -0.0864 -0.0470  0.1713
40099W        W83152  29.149  32.421   7.411 -0.0713  0.1121  0.1465
40100W        W83153  27.155   0.996   5.889  0.0013  0.3317 -0.0199
40101W        W83154  26.586  34.515   4.897  0.1146 -0.0678 -0.0405
40102W        W83155   3.620   1.751   6.549 -0.1165  0.0243  0.1271
40103W        W83156  24.290  28.018   6.864  0.2956  0.0486 -0.0576
40104W        W83157   8.619  18.526   4.036  0.1133 -0.2189  0.0715
40105W        W83158  28.665  34.579   9.637 -0.0121 -0.1673  0.0105
40106W        W83159  29.523  33.163   8.142  0.0471  0.2569 -0.1525
40107W        W83160   2.531   0.754  27.294 -0.0423 -0.0886  0.1762
40108W        W83161   8.268   9.383   9.779  0.0564 -0.3937  0.2454
40109W        W83162   1.224  28.835   7.255  0.0810  0.1670  0.0860
40110W        W83163  26.425   7.772  22.905  0.0813 -0.2319  0.2220
40111W        W83164   8.965  31.260   4.737 -0.0551 -0.1954 -0.1701
40112W        W83165  30.866   6.384  10.505  0.4058  0.1001  0.1523
40113W        W83166  26.544  31.948   5.279 -0.0043  0.0861 -0.1157
40114W        W83167  19.784  31.813   6.801 -0.2249  0.0191  0.0600
40115W        W83168  16.388   8.207   1.211  0.0006 -0.2935 -0.0412
40116W        W83169  22.567   9.994  28.993  0.1014  0.0763  0.1831
40117W        W83170  11.140   0.137   9.544  0.0725  0.1032 -0.1591
40118W        W83171  29.222   4.708   2.219  0.2847  0.2132  0.0277
40119W        W83172   8.393   2.304  28.846  0.4190 -0.2362  0.1919
40120W        W83173  23.031  28.853   5.788  0.3972  0.1771 -0.0298
40121W        W83174  13.834   8.685  26.713  0.2301 -0.1523  0.3652
40122W        W83175  33.033  16.307   3.577  0.1176 -0.2276  0.0560
40123W        W83176  24.262  18.411   7.121  0.2162 -0.0108  0.1169
40124W        W83177  17.330  24.704   9.298 -0.0632  0.1548 -0.1495
40125W        W83178   5.276  33.764   6.782  0.0716 -0.2190 -0.2260
40126W        W83179  12.928  25.215   2.111 -0.2932  0.1683  0.0751
40127W        W83180   4.115  33.023   0.147 -0.1867  0.2866  0.1643
40128W        W83181  18.408  25.231   7.729 -0.1619 -0.1121  0.1364
40129W        W83182  21.159  23.200   3.446  0.0663 -0.0397  0.1108
40130W        W83183   4.209  31.910  23.855  0.2080 -0.2585 -0.2192
40131W        W83184  23.718  20.369   8.679 -0.2771  0.0394 -0.2424
40132W        W83185  28.247  21.791   9.636  0.1116  0.2750  0.0590
40133W        W83186  27.688  30.454  20.503  0.0151 -0.1063  0.2530
40134W        W83187   5.433  24.229   5.893 -0.1767 -0.1599  0.1402
40135W        W83188  25.126  16.616  24.736 -0.1295 -0.1119  0.4220
40136W        W83189  27.905   7.314  23.386  0.1402 -0.1259  0.1315
40137W        W83190   1.817  29.859   4.310 -0.1402 -0.0122 -0.1197
40138W        W83191  30.783  15.514   2.596  0.0832  0.2508  0.0750
40139W        W83192  21.441  29.678   8.946  0.0855 -0.2530 -0.2481
40140W        W83193  18.993  23.136   0.086  0.0737 -0.1184  0.0681
40141W        W83194  26.824  28.578   0.698 -0.2718  0.0871  0.0744
40142W        W83195  23.805  22.848   0.539  0.0437 -0.1336 -0.0395
40143W        W83196  24.343  24.292   4.666 -0.2561  0.1264 -0.2509
40144W        W83197  11.739  11.319  10.061 -0.0350 -0.2962  0.1649
40145W        W83198  26.646  17.667   6.438  0.0998  0.0483  0.4086
40146W        W83199  16.564   1.315   2.193  0.1499 -0.1028 -0.0776
40147W        W83200  29.647  15.499   2.547 -0.1031 -0.2340 -0.1948
40148W        W83201   7.598  28.428   8.904  0.2135  0.0960 -0.1079
40149W        W83202  30.795  13.878   3.304 -0.0473 -0.0322 -0.0209
40150W        W83203   2.882  33.775  28.068  0.2823 -0.1518  0.0430
40151W        W83204  26.572   1.843   8.047 -0.0622  0.0307  0.1030
40152W        W83205  30.854  10.798   5.254 -0.1559 -0.1106 -0.2477
40153W        W83206  24.756  23.101  23.441  0.0803 -0.4813  0.0168
40154W        W83207  24.236  13.478   0.922  0.0686 -0.0471 -0.0319
40155W        W83208  34.414  31.210   5.415 -0.2311 -0.0459 -0.2557
40156W        W83209  20.217   3.749   2.060 -0.0098 -0.1759 -0.3503
40157W        W83210  16.802   1.351   9.044  0.0539  0.2396 -0.0525
40158W        W83211  29.440   0.135   8.118  0.1894 -0.1844 -0.2958
40159W        W83212  32.774   3.272   1.752 -0.1888  0.0837 -0.1810
40160W        W83213  20.563  33.458   1.894  0.2319  0.0108  0.0648
40161W        W83214  18.043   0.875  27.394  0.0976 -0.1898 -0.0010
40162W        W83215  32.726   5.136   8.731 -0.4884 -0.1013  0.0366
40163W        W83216  16.714  27.275   7.392 -0.1879  0.0768 -0.1753
40164W        W83217  30.516  27.886   8.269 -0.0576 -0.0397 -0.1790
40165W        W83218  25.621  30.362   9.206  0.0337  0.1046 -0.1517
40166W        W83219  30.283  33.141   9.317  0.2454  0.1798  0.1605
40167W        W83220  30.649  34.674   1.057 -0.0641 -0.1501  0.0025
40168W        W83221  22.587   2.652   6.536  0.0923  0.1522 -0.3595
40169W        W83222   4.400  10.629   9.936  0.1254  0.3597  0.1118
40170W        W83223  21.888  13.302   0.271  0.1272  0.0233 -0.2267
40171W        W83224  27.751  13.662  24.911 -0.1375  0.0168 -0.1261
40172W        W83225  16.101   9.259  24.847  0.2987  0.1004 -0.0105
40173W        W83226  28.640  23.269   9.293  0.0649 -0.2412 -0.0714
40174W        W83227  21.852   7.614  26.706  0.2190  0.2130  0.4195
40175W        W83228  26.001  14.917   3.198  0.0522  0.0118  0.3343
40176W        W83229  23.499  25.823  10.386 -0.0745 -0.0501 -0.0403
40177W        W83230  28.927   6.065   5.618  0.0850  0.1972  0.0038
40178W        W83231  22.590  30.113   2.509 -0.0388  0.1335 -0.3597
40179W        W83232  21.638  33.675  23.078  0.1179  0.1757  0.1111
40180W        W83233  29.357  31.124   1.567 -0.0212 -0.2696  0.1273
40181W        W83234  19.836  31.587  11.105  0.0366  0.2609 -0.1060
40182W        W83235  31.330  18.982   2.955  0.2647 -0.0880 -0.0562
40183W        W83236   1.443  34.667   1.491  0.2198 -0.2552 -0.1439
40184W        W83237  18.619  18.641  26.306  0.1047 -0.3316 -0.0077
40185W        W83238  29.110  10.422   4.451 -0.3359  0.0932 -0.0383
40186W        W83239  26.825   0.480   3.493  0.0410  0.1195  0.1085
40187W        W83240  24.702  28.418   6.174  0.1610 -0.2023  0.1119
40188W        W83241   7.130  26.752  20.746  0.0205  0.0377 -0.2025
40189W        W83242  23.721   3.326   5.496 -0.0793  0.0772  0.2884
40190W        W83243  29.334  31.466   4.867 -0.0428 -0.1003  0.0033
40191W        W83244  22.309  23.015   2.128  0.1726 -0.0308  0.1353
40192W        W83245  16.432   0.378  22.141  0.1256 -0.1694 -0.2070
40193W        W83246  11.360  33.515   9.509  0.1946  0.0689  0.0643
40194W        W83247  25.724  20.854   3.279  0.0723 -0.1604  0.2765
40195W        W83248   0.536  16.949  22.694  0.0201  0.2935  0.0713
40196W        W83249  28.269  33.815  24.427  0.0286 -0.1827 -0.1013
40197W        W83250  26.783  33.592   1.195  0.3953 -0.2996  0.1253
40198W        W83251  25.130   0.570   3.943 -0.0673  0.1654  0.1161
40199W        W83252  30.663  22.985   0.478  0.0034 -0.3089 -0.1857
40200W        W83253   3.094   2.483  22.187 -0.1038  0.3169 -0.1260
40201W        W83254  33.713   1.164  10.243 -0.2405 -0.0639 -0.2773
40202W        W83255  32.689  32.630  24.270  0.0797  0.0997 -0.3054
40203W        W83256  29.476  32.747  23.895  0.1388 -0.0027 -0.2358
40204W        W83257  20.398  28.644   8.443 -0.1075 -0.1509  0.1418
40205W        W83258  33.044   8.869   7.349 -0.0355 -0.0177  0.0470
40206W        W83259   3.881  34.641   1.594 -0.1450 -0.0808  0.0472
40207W        W83260  18.887   1.191   6.162  0.0558 -0.2887 -0.0643
40208W        W83261  31.896   1.332  27.973 -0.1789  0.1443 -0.0406
40209W        W83262  28.551  29.686   9.266  0.1997  0.0761 -0.1957
40210W        W83263  15.609  24.284  10.072 -0.0930 -0.0737 -0.0715
40211W        W83264  23.264  27.962  18.527  0.1358 -0.0026  0.0607
40212W        W83265  23.662  31.748  29.143  0.0481 -0.0549 -0.0435
40213W        W83266  23.154  34.315   6.962 -0.1812  0.2321 -0.0433
40214W        W83267   4.865  27.254   8.095 -0.5485 -0.0702 -0.2095
40215W        W83268  20.759  30.160  26.440 -0.1984  0.0970  0.1843
40216W        W83269   0.112   7.156   4.802 -0.1182 -0.0700  0.2530
40217W        W83270  27.526   2.721   9.284 -0.2910  0.0831  0.2867
40218W        W83271  33.167   3.244   3.765 -0.1385 -0.0753  0.2147
40219W        W83272   2.568  15.330  27.499 -0.6225  0.1768  0.1600
40220W        W83273  26.682   1.850   6.101  0.0593  0.0059 -0.2873
40221W        W83274  28.139  28.477   2.418 -0.3597  0.1999 -0.3177
40222W        W83275  15.711  11.405   7.399  0.1058 -0.3586 -0.1549
40223W        W83276  17.499   0.256   2.014 -0.0773 -0.0550 -0.1599
40224W        W83277  29.708   3.079   6.562 -0.1229 -0.2207 -0.4089
40225W        W83278  14.973   3.356   8.323  0.4772  0.0796  0.0883
40226W        W83279  21.426  22.541   6.862 -0.2320 -0.0056  0.2045
40227W        W83280  29.309  29.629   8.749 -0.0182 -0.1666  0.2844
40228W        W83281  18.970   1.991  25.409 -0.1909 -0.1767 -0.0695
40229W        W83282  26.893  34.366   9.908  0.3820 -0.1727  0.1678
40230W        W83283  20.086  34.455   2.410 -0.2597 -0.0465  0.0901
40231W        W83284  28.121   2.688   7.248  0.0580 -0.0054  0.0316
40232W        W83285  24.033  14.358  27.396  0.0739  0.1175 -0.1194
40233W        W83286  20.608   3.893  25.344  0.2456 -0.2364 -0.2450
40234W        W83287  30.180  30.266   9.125 -0.1080  0.4640 -0.1952
40235W        W83288  28.885  32.618  23.062  0.0336  0.0983  0.1790
40236W        W83289  32.547   7.547  25.131  0.2945 -0.1227 -0.1200
40237W        W83290   5.955   6.231  22.097  0.2145  0.3089  0.0142
40238W        W83291  17.260   2.841  10.534  0.0315  0.5066 -0.1623
40239W        W83292  33.264  15.027   4.045 -0.0873  0.1582 -0.1928
40240W        W83293   2.129  30.926  22.150 -0.0953 -0.0474 -0.4758
40241W        W83294  26.935  32.315   4.376 -0.0445  0.3434 -0.0747
40242W        W83295  33.124  25.344   2.214 -0.6154  0.0088 -0.0755
40243W        W83296  16.770  28.234  18.984 -0.2671  0.1111  0.0896
40244W        W83297  22.947  11.253   6.116 -0.2436 -0.0880  0.1477
40245W        W83298   7.007  22.459  25.331 -0.2880 -0.2336 -0.2127
40246W        W83299  30.271  26.840   4.390  0.0757 -0.1976  0.0808
40247W        W83300  33.992   4.288   8.459  0.1254 -0.1335  0.0203
40248W        W83301   1.077  30.878  15.862 -0.2550  0.0397  0.0713
40249W        W83302  30.034   4.970  21.967 -0.0743 -0.3927  0.4014
40250W        W83303  14.957  30.641  28.594 -0.0787 -0.0034  0.1436
40251W        W83304  31.071   4.657   3.118 -0.0202  0.1969 -0.1315
40252W        W83305  23.020   4.439   8.125  0.0855  0.2572 -0.1507
40253W        W83306   2.889   8.012  27.965  0.3414  0.0579  0.0381
40254W        W83307   4.117  25.249   9.649  0.2526  0.0103 -0.3733
40255W        W83308  20.334  18.972   4.678  0.2179 -0.0294  0.1831
40256W        W83309  14.670   4.079   3.211 -0.0961 -0.3180 -0.2161
40257W        W83310   2.831   7.378  14.492 -0.2566  0.0261  0.1605
40258W        W83311   4.037   2.055  23.225 -0.3798 -0.1893  0.1763
40259W        W83312  27.199  10.733  26.562 -0.1211  0.0301  0.1973
40260W        W83313   9.069  33.161   1.592  0.1649  0.0134 -0.1819
40261W        W83314  22.324  10.827   0.118  0.1996  0.0888  0.3626
40262W        W83315  29.901   8.663  17.127 -0.0267  0.2460 -0.0948
40263W        W83316  22.463   7.749   2.616 -0.2922  0.3605  0.0704
40264W        W83317  33.112   5.681  19.821 -0.2544 -0.0946 -0.0547
40265W        W83318  32.969   6.855  26.611 -0.1680  0.2524  0.0745
40266W        W83319  32.379   3.958  28.915 -0.1030 -0.0503  0.2027
40267W        W83320  26.731   0.779  23.291 -0.1468 -0.0700  0.0392
40268W        W83321   3.235  19.869   1.464  0.0245 -0.0535  0.0602
40269W        W83322  27.736  13.306  23.098 -0.0262 -0.3304 -0.1939
40270W        W83323   3.865  12.131  25.217 -0.1497 -0.2604 -0.1921
40271W        W83324  24.012   4.218  24.024 -0.1305  0.1222  0.3489
40272W        W83325  31.182   4.958  27.301  0.5327 -0.1309  0.0988
40273W        W83326  11.629  10.338   8.627 -0.0744 -0.4419  0.0820
40274W        W83327  25.655   6.266  18.775  0.1719  0.0379  0.0621
40275W        W83328   4.270  32.784   1.057  0.3139 -0.3940 -0.0134
40276W        W83329  10.766   0.232   0.602 -0.1346 -0.0333  0.0284
40277W        W83330  33.616  17.760   3.724 -0.1412  0.4645  0.2241
40278W        W83331  33.139  22.146   3.632 -0.0902  0.2937  0.1534
40279W        W83332  27.259   8.340  20.720 -0.4558 -0.0336  0.0943
40280W        W83333  28.991  26.892  22.608 -0.1493  0.0294 -0.1197
40281W        W83334   6.829   2.637   5.333 -0.1451 -0.0154 -0.0125
40282W        W83335   0.554  34.606   1.326 -0.0567  0.1603  0.4212
40283W        W83336  18.983   5.467  26.653 -0.1049  0.2394  0.3267
40284W        W83337   0.355  28.412  24.637 -0.0600  0.0553  0.1232
40285W        W83338  26.824   9.492   7.392  0.0622  0.0037 -0.3463
40286W        W83339  28.198  12.670  17.838  0.1906 -0.4082  0.1414
40287W        W83340  30.569  23.877   2.091  0.0934  0.0569 -0.2255
40288W        W83341  34.456   1.802  21.525 -0.0896 -0.0904  0.1745
40289W        W83342  31.999   7.239  28.973  0.1143 -0.8171  0.3181
40290W        W83343  26.652  14.584  27.062 -0.4162 -0.1285 -0.0085
40291W        W83344  32.028  28.713   0.025  0.3949 -0.1461  0.3226
40292W        W83345   1.742  30.358  27.049 -0.2775  0.0939 -0.2214
40293W        W83346  24.835  28.138   9.589 -0.0778  0.2911 -0.1494
40294W        W83347  30.737   3.996   7.565  0.1237  0.2762  0.0143
40295W        W83348  21.570  13.051   7.305 -0.1232  0.0942 -0.1950
40296W        W83349  15.441   1.266  22.563 -0.0440  0.0364  0.1909
40297W        W83350  29.374  31.031   2.502 -0.0319  0.1971 -0.2047
40298W        W83351   3.455   5.070   8.100 -0.1683 -0.1819  0.0604
40299W        W83352   9.364   1.444   8.210  0.0437  0.4622 -0.1916
40300W        W83353  18.055  17.713   3.599 -0.2510  0.1076 -0.0835
40301W        W83354  12.841   4.437   3.684 -0.2795 -0.0358  0.1866
40302W        W83355   6.008  30.354   7.196 -0.0740 -0.1422 -0.0691
40303W        W83356  23.444  33.498   9.369  0.0341  0.1723  0.0896
40304W        W83357  15.441  27.552  18.079 -0.3201  0.0671 -0.0789
40305W        W83358   4.927   8.365  16.025 -0.1823 -0.2427  0.0950
40306W        W83359   9.045   7.829   2.427 -0.0945  0.1975 -0.1422
40307W        W83360  24.667  32.795  26.689  0.0037  0.1778 -0.1412
40308W        W83361   5.455  12.442   2.374  0.1982  0.1202  0.0972
40309W        W83362  23.242   2.427  27.470  0.2096 -0.0310 -0.0464
40310W        W83363  21.880   4.784   6.638 -0.3039  0.4362  0.0916
40311W        W83364  27.794  17.748   1.933 -0.1013  0.1413 -0.0124
40312W        W83365   3.965  29.534   5.492 -0.1271  0.0923 -0.1639
40313W        W83366   5.978  30.638  26.711  0.2073 -0.1012 -0.1290
40314W        W83367  34.402   5.455   5.874  0.2663 -0.1301  0.0223
40315W        W83368  16.025   1.193  24.710  0.1386  0.1187  0.1031
40316W        W83369  10.625   3.191   6.638  0.1427 -0.2092  0.1708
40317W        W83370  31.218  23.626  21.422  0.0379  0.2947  0.2766
40318W        W83371  20.624  23.102  27.865  0.2156  0.0378  0.0668
40319W        W83372   1.043   1.102  28.128 -0.1889 -0.1310  0.1110
40320W        W83373  23.966   3.180  18.766  0.3756  0.0720 -0.1208
40321W        W83374  32.927  16.366   2.136 -0.0262  0.1631 -0.2856
40322W        W83375  20.716  22.078  21.639  0.0412  0.1728 -0.1142
40323W        W83376  31.479   6.718  27.060  0.1486 -0.0362  0.2239
40324W        W83377  24.072  33.613  26.855 -0.2141  0.0277 -0.0938
40325W        W83378  23.111  33.332  19.908  0.3065  0.0630  0.0202
40326W        W83379  32.138  26.509   1.837 -0.0593  0.3178 -0.1824
40327W        W83380  24.316  10.436   7.647  0.1508 -0.3038 -0.0257
40328W        W83381  33.521   8.365  22.880 -0.0406  0.0536 -0.0349
40329W        W83382   2.544  26.044   5.001  0.2908 -0.0466  0.1081
40330W        W83383  25.453  29.868   7.335  0.2128 -0.0797 -0.2155
40331W        W83384   8.910   1.975   6.762  0.0385  0.0031 -0.0349
40332W        W83385   1.873  30.977   3.892 -0.1602 -0.0418  0.0018
40333W        W83386   3.774   1.958   6.986  0.0377 -0.4475 -0.0194
40334W        W83387   2.131   2.024  22.516  0.3235 -0.0495 -0.2229
40335W        W83388  10.688   3.481  20.496 -0.0245 -0.0932  0.0303
40336W        W83389  31.011   4.694  29.184 -0.1069  0.0458 -0.1849
40337W        W83390  25.421  11.394  15.834 -0.0264 -0.0762 -0.0778
40338W        W83391  25.929   4.708  17.236  0.2292  0.0810  0.1337
40339W        W83392  27.509   7.567  10.163 -0.0445  0.0440  0.0264
40340W        W83393  33.371  30.876   5.964  0.0699 -0.0689 -0.2560
40341W        W83394  27.714  32.336  24.777  0.2443  0.1403 -0.1809
40342W        W83395  29.083   5.019  23.364 -0.0132 -0.0961  0.3043
40343W        W83396  31.665   8.862  27.221 -0.0975 -0.3017 -0.0451
40344W        W83397  23.288  33.815   5.752 -0.2187  0.3117 -0.2126
40345W        W83398   2.911   2.461   5.659  0.2979  0.2277 -0.3167
40346W        W83399  25.959   2.136   0.432  0.3402  0.1158 -0.0036
40347W        W83400   1.889   2.777   7.865 -0.0688  0.0068  0.3091
40348W        W83401   0.966  33.223   5.222 -0.2711  0.0101  0.0778
40349W        W83402   5.500   6.932   0.155  0.5251 -0.1036 -0.1168
40350W        W83403  16.893  10.188  10.017  0.1515 -0.1184  0.1579
40351W        W83404  12.724  18.192   5.611 -0.0436 -0.0985  0.0079
40352W        W83405  27.073   3.945  25.383  0.1133 -0.0673 -0.0226
40353W        W83406  32.693  13.367   8.152 -0.1649  0.1609  0.3835
40354W        W83407   8.344   5.692   9.342 -0.1730 -0.0225  0.1180
40355W        W83408  22.096   6.344   8.900  0.1383  0.1964  0.0792
40356W        W83409  19.714   6.319  17.614 -0.2496  0.0539  0.0561
40357W        W83410   8.979  26.893   2.017  0.0906 -0.2473  0.0237
40358W        W83411  18.759  24.875   3.310 -0.2620 -0.0113 -0.4327
40359W        W83412  19.098   4.533  27.158 -0.1589 -0.0590 -0.0051
40360W        W83413   5.805  10.091  16.845  0.0162 -0.1646 -0.4618
40361W        W83414  25.281  24.714   2.104  0.1161 -0.0774  0.2999
40362W        W83415   3.016   9.265  17.244  0.1487 -0.0984 -0.1407
40363W        W83416  26.856  14.962  22.535 -0.2964 -0.0165  0.0862
40364W        W83417  27.457   9.765  10.334  0.0146 -0.2866 -0.1830
40365W        W83418   1.167   4.874  19.271  0.1273  0.2175 -0.0621
40366W        W83419   5.039   0.206  19.072 -0.0313 -0.3890  0.0277
40367W        W83420  16.591  31.659   9.996  0.0430  0.0922 -0.1448
40368W        W83421   0.612  32.561   0.366 -0.0370  0.0735 -0.2460
40369W        W83422   2.354  13.460   7.287 -0.2116 -0.0002 -0.3465
40370W        W83423   4.691  34.429  21.778  0.0465 -0.3544 -0.1842
40371W        W83424  23.609   2.087   9.253  0.2271 -0.2215 -0.0216
40372W        W83425  26.726  20.107   9.827 -0.0138 -0.1924  0.0605
40373W        W83426   0.894   5.693  18.000 -0.2082 -0.1500  0.0144
40374W        W83427  26.728  26.420   1.530  0.1824  0.0667  0.0272
40375W        W83428  10.431  34.626  16.225 -0.1880  0.0478 -0.1844
40376W        W83429  20.538  32.846  21.041 -0.1122  0.2380  0.1260
40377W        W83430   2.411   2.995   2.865  0.2682 -0.0211  0.0549
40378W        W83431  28.704   2.992  26.144 -0.2805  0.1080 -0.1244
40379W        W83432  10.176   3.066  27.854  0.0429 -0.1081 -0.4002
40380W        W83433   4.863   9.487  20.503 -0.1009 -0.1027 -0.1547
40381W        W83434  29.708  11.223  26.783 -0.1058 -0.0525  0.0814
40382W        W83435  29.798  30.262   5.234 -0.0154 -0.2090  0.2816
40383W        W83436  31.979   1.376  24.373 -0.2536  0.0771 -0.0250
40384W        W83437   1.029  27.200   3.815 -0.1290  0.0329  0.0143
40385W        W83438   1.744   9.839   4.789 -0.1893 -0.2725 -0.0217
40386W        W83439  34.407  22.572  14.559 -0.1676  0.2441  0.2862
40387W        W83440   1.712  17.543  18.008  0.2478  0.0250 -0.0899
40388W        W83441  25.837   8.661   8.947 -0.1966  0.0707 -0.3963
40389W        W83442  13.952  33.518  23.661 -0.0612 -0.0038  0.0557
40390W        W83443   2.813  13.965  21.741  0.1399  0.4968  0.0148
40391W        W83444  29.666  16.590  27.929 -0.3001  0.2578  0.2512
40392W        W83445  14.076   1.770   4.334 -0.0890 -0.1067  0.1115
40393W        W83446  16.246   0.199   2.253 -0.0463  0.2400  0.0831
40394W        W83447  27.787   5.778  14.182  0.3708  0.0745 -0.0512
40395W        W83448   8.988   8.291  16.441  0.2418 -0.0915  0.2565
40396W        W83449  25.522  31.740   3.424 -0.0109 -0.2834 -0.0309
40397W        W83450   1.397  30.569  15.653  0.0759  0.4209  0.0364
40398W        W83451  13.850  28.936   2.585  0.2993  0.1140 -0.0673
40399W        W83452  18.271  10.790  28.492 -0.3465  0.0305 -0.1706
40400W        W83453   1.238  28.237   1.959  0.2190  0.0702 -0.0429
40401W        W83454  23.155   5.007  15.281  0.1397 -0.1740  0.1131
40402W        W83455  10.752  12.129   5.971 -0.1385  0.1234 -0.0833
40403W        W83456   0.047  33.761   2.699 -0.0589  0.1665  0.1701
40404W        W83457  20.977   9.783  18.624 -0.2353 -0.2143 -0.0846
40405W        W83458  25.843   5.104  27.520 -0.0053  0.0383  0.3631
40406W        W83459  22.422   6.997   3.598  0.0233 -0.3426  0.0642
40407W        W83460  25.121  13.867  25.030 -0.0545 -0.0080 -0.0774
40408W        W83461  29.711  33.297  25.821  0.0927 -0.0850 -0.0399
40409W        W83462  27.896  33.651  20.514 -0.1501  0.1567  0.2855
40410W        W83463  31.953   1.024   9.120  0.2599 -0.2622  0.0448
40411W        W83464  18.606  19.489   5.796 -0.0629 -0.2116  0.3761
40412W        W83465  23.332  20.806   1.977 -0.2273  0.2039 -0.0843
40413W        W83466  22.205   1.876  15.307 -0.0317 -0.0556  0.0283
40414W        W83467   2.904   5.008   3.288  0.0238 -0.1054 -0.0541
40415W        W83468  12.710  33.499  26.817  0.2121  0.1816 -0.0521
40416W        W83469  28.215  23.109  23.312 -0.1474 -0.0996 -0.2464
40417W        W83470   1.360   9.931   9.511 -0.0832 -0.3649  0.0506
40418W        W83471  32.027  26.337  15.981 -0.0951 -0.0155 -0.0064
40419W        W83472  33.257  25.107   7.696 -0.1290 -0.1029  0.1313
40420W        W83473  16.375  31.019   8.180  0.0205  0.0997  0.2789
40421W        W83474  21.867   4.823   1.629 -0.0547  0.1427  0.2307
40422W        W83475  28.992  13.882  23.684 -0.2616 -0.1744  0.3168
40423W        W83476  13.331   3.024   4.893 -0.0442  0.2298  0.0158
40424W        W83477   8.495  30.076  24.176  0.1384  0.0339 -0.1541
40425W        W83478  24.188   5.069  23.990  0.0387  0.0322 -0.1357
40426W        W83479  21.218  29.312   9.714  0.1749  0.2244  0.2956
40427W        W83480  29.835   6.383  28.311  0.0417 -0.0170  0.0122
40428W        W83481  27.466  16.952  28.949  0.1588 -0.0541  0.2688
40429W        W83482  27.036  31.584   7.764 -0.2311 -0.0773  0.0602
40430W        W83483  22.535  17.509  14.355 -0.0883  0.5907  0.1393
40431W        W83484   2.997   9.677   5.806  0.0575 -0.1074 -0.1213
40432W        W83485  19.407   9.943   7.852 -0.2369  0.0880 -0.0513
40433W        W83486  23.858  11.298  20.456 -0.0514 -0.1167  0.1436
40434W        W83487  31.981  34.505   0.242  0.0805  0.0383 -0.1039
40435W        W83488  16.925  31.824  11.012 -0.0901  0.1704  0.2254
40436W        W83489  25.926  17.109   4.149  0.0393  0.2563 -0.0829
40437W        W83490  24.234   3.930  19.224 -0.5237 -0.1585  0.0879
40438W        W83491   8.945  29.796  27.738 -0.0686  0.0056 -0.1177
40439W        W83492  27.629   3.081  27.542 -0.1608  0.0969  0.0876
40440W        W83493  28.776  11.076   0.922  0.1168 -0.0877  0.1936
40441W        W83494  17.035   1.594   4.403  0.0757 -0.0395 -0.2499
40442W        W83495  26.714  11.805   7.901  0.0803 -0.0165 -0.0654
40443W        W83496   2.475   5.071  28.380 -0.1701 -0.3535  0.2268
40444W        W83497  10.178  22.794   3.103 -0.3094  0.1126 -0.2345
40445W        W83498   0.657   0.993   8.849 -0.1869 -0.1098  0.1486
40446W        W83499  28.402  12.509   3.226  0.1666 -0.0220  0.0790
40447W        W83500   8.229   5.565   5.963 -0.1728 -0.0535  0.0671
40448W        W83501   9.945   7.245   6.421 -0.1649 -0.1006  0.1831
40449W        W83502   2.682   9.978   7.462 -0.1794 -0.2853  0.2818
40450W        W83503  20.321   6.621  25.342 -0.0356 -0.2343 -0.2585
40451W        W83504  28.442   1.708   6.908 -0.2429  0.0571  0.3820
40452W        W83505  33.631  22.624  27.884  0.1620 -0.4912 -0.1881
40453W        W83506  10.726  21.822   7.324 -0.0639  0.1463  0.0932
40454W        W83507  26.141   4.655   2.873 -0.0621 -0.1504  0.2842
40455W        W83508  26.653  18.908   1.382  0.1314  0.1732 -0.3065
40456W        W83509  24.990   3.298   8.413 -0.1672 -0.1938 -0.4043
40457W        W83510  23.157  33.207   9.689  0.0760 -0.3508 -0.3897
40458W        W83511  34.675  30.013  19.906  0.0543  0.2994 -0.0248
40459W        W83512  33.818   9.933  18.237 -0.0824  0.0789  0.0954
40460W        W83513   6.318  34.317   8.113  0.3528 -0.2494 -0.3069
40461W        W83514  23.435  29.635  25.313 -0.0215 -0.2284  0.2817
40462W        W83515  14.424  22.478  24.892  0.0377 -0.0626  0.0515
40463W        W83516  29.534   8.381   8.307  0.2701 -0.0595 -0.0609
40464W        W83517   8.074   1.263   9.824  0.0123 -0.0018 -0.1921
40465W        W83518   1.704   5.751   1.824 -0.0173  0.3275 -0.0081
40466W        W83519  32.469   1.160   4.691 -0.0345 -0.1543 -0.0543
40467W        W83520  20.649  31.421   4.254  0.1529 -0.2537  0.1223
40468W        W83521  17.640  10.940   8.504  0.1485 -0.2063 -0.1482
40469W        W83522  25.142   0.310  10.007  0.0449  0.1339  0.0274
40470W        W83523  17.560  13.005  27.020  0.0377  0.1499 -0.1825
40471W        W83524  21.938   8.386  17.276 -0.4293 -0.0249 -0.0119
40472W        W83525  21.871  33.359  27.805  0.1388  0.1410  0.0119
40473W        W83526  31.035   5.576   2.358  0.0218  0.0278  0.0073
40474W        W83527   1.113   2.448   8.336 -0.0419  0.3136  0.2221
40475W        W83528  21.614  32.491   9.525 -0.2515 -0.1461 -0.0088
40476W        W83529  13.580   6.411   7.936 -0.3778  0.0545 -0.0203
40477W        W83530   3.966  23.743  21.711  0.0373 -0.0425  0.1434
40478W        W83531  31.845   9.919   5.600  0.0230  0.1751 -0.3690
40479W        W83532  29.313  29.123  14.333  0.0295 -0.0389 -0.0616
40480W        W83533   8.808   8.641  19.927 -0.0176 -0.2078  0.0621
40481W        W83534   3.411   1.979  22.344 -0.1782 -0.1050  0.1802
40482W        W83535  20.137  14.630  22.377  0.0597 -0.0189 -0.0719
40483W        W83536  32.609  15.342   5.588 -0.0041  0.3293 -0.2420
40484W        W83537  20.514  21.168  28.319  0.3489 -0.3656  0.3177
40485W        W83538  29.808  23.678  21.683  0.0177  0.2605  0.1598
40486W        W83539  29.882  10.402   6.692  0.0117  0.0721 -0.2906
40487W        W83540  34.036   0.813  20.850  0.3414 -0.0235  0.3676
40488W        W83541  19.093   3.645   6.437  0.1400  0.0509  0.0061
40489W        W83542  24.333  23.334   4.750 -0.0230  0.0219 -0.3736
40490W        W83543   1.182   4.837  26.324 -0.1111 -0.0121 -0.1685
40491W        W83544  27.782   3.273  23.608  0.1653  0.1377  0.0813
40492W        W83545  33.146  32.211   4.396 -0.2069 -0.0575 -0.0789
40493W        W83546  20.329   0.826   7.286  0.1171 -0.5290 -0.1785
40494W        W83547  10.328   4.775   8.926 -0.3996  0.1189 -0.2387
40495W        W83548  33.715  23.518   5.754  0.3066 -0.1444  0.0454
40496W        W83549  26.745  10.892  26.420 -0.2133  0.3497  0.3867
40497W        W83550  31.321   7.399   9.854  0.1932  0.2231  0.1779
40498W        W83551  31.976   5.812  15.729  0.0571  0.4079 -0.1182
40499W        W83552  18.189   3.200   5.394 -0.0762 -0.0720 -0.1693
40500W        W83553  26.182   1.463   1.506 -0.1195  0.0748 -0.1522
40501W        W83554  21.030   1.408   4.224  0.2269  0.4470  0.1142
40502W        W83555  25.695  17.561   2.442  0.0646  0.1371  0.4645
40503W        W83556  17.439   0.254   3.510 -0.1116  0.1104  0.0080
40504W        W83557   9.524  21.627  10.198  0.0387 -0.0288  0.0712
40505W        W83558  32.878  34.459  28.335 -0.0733  0.1838  0.2121
40506W        W83559   7.164  28.351   6.837 -0.1769  0.1013 -0.0606
40507W        W83560  24.522   2.348   5.392  0.1896  0.0889  0.3236
40508W        W83561  28.152  18.394   3.554  0.2300  0.0670  0.0417
40509W        W83562  20.234   3.470  26.391  0.0571  0.0421  0.1056
40510W        W83563  25.695  19.877  22.239  0.3580  0.3079  0.2903
40511W        W83564  22.733  31.295   3.833 -0.0360 -0.1858 -0.2951
40512W        W83565  19.904  32.868  25.245  0.2108  0.0854  0.0437
40513W        W83566  28.556  33.669   4.499  0.0744  0.0766  0.1638
40514W        W83567  25.671  27.660   6.553  0.0933 -0.1518 -0.1623
40515W        W83568   0.355  31.134  27.836  0.3093 -0.2290  0.0170
40516W        W83569  23.183   8.913   6.788 -0.1424 -0.2177  0.1577
40517W        W83570  22.880  12.139  21.189 -0.1662 -0.0017 -0.1229
40518W        W83571  29.655  16.421   6.605 -0.0357  0.1695 -0.1880
40519W        W83572  22.808  33.728  28.036 -0.2968  0.0892  0.2313
40520W        W83573  28.186   6.077  19.672 -0.3380 -0.0373 -0.0488
40521W        W83574  28.731  24.003   5.360 -0.1322  0.0675 -0.3293
40522W        W83575  31.697  21.255   7.158 -0.0072 -0.0556 -0.0156
40523W        W83576  22.420  27.495   9.472  0.0217  0.1044 -0.1640
40524W        W83577  22.280   6.610   4.834 -0.3443  0.0308 -0.1524
40525W        W83578   3.843  24.722  21.984  0.0949 -0.0072  0.0439
40526W        W83579  25.168   9.274  23.436 -0.2860 -0.0309  0.1937
40527W        W83580  25.477   8.144   5.475  0.2310  0.1320  0.1050
40528W        W83581  28.978   0.311  22.001  0.2515 -0.0589  0.0788
40529W        W83582  11.605  22.474  25.098  0.2826  0.0634  0.1084
40530W        W83583   4.100  27.295   2.866  0.1630 -0.0234  0.1408
40531W        W83584   4.945  33.185  23.746 -0.1426  0.1081 -0.0427
40532W        W83585  23.318  23.985   3.819 -0.0903 -0.1186  0.2575
40533W        W83586  26.942   4.425   9.004 -0.1790  0.0337  0.0389
40534W        W83587  31.180  13.040   9.023  0.1304  0.0184 -0.1297
40535W        W83588  10.158  19.760  28.450 -0.0714 -0.1907 -0.0957
40536W        W83589   5.451   5.700   6.637 -0.2122 -0.0825 -0.1061
40537W        W83590  27.435   5.618   3.387  0.0629  0.0979  0.0335
40538W        W83591  10.055  28.558  27.820 -0.1792  0.3500  0.0112
40539W        W83592   6.122  19.106  22.931  0.2513 -0.0540  0.0696
40540W        W83593  21.080  12.492   7.594 -0.4007 -0.0014  0.0228
40541W        W83594   6.149  11.337  29.091  0.0202  0.0143  0.1830
40542W        W83595   0.279  24.520   0.218  0.1792  0.1615  0.0471
40543W        W83596  22.168  12.895   9.518 -0.1017 -0.2210 -0.0619
40544W        W83597   3.753   5.619  27.774 -0.2453  0.2338 -0.1681
40545W        W83598  13.625  10.730   0.254 -0.0924 -0.2785 -0.1081
40546W        W83599  30.484  20.808  23.907  0.1852  0.0499 -0.0798
40547W        W83600  17.482   2.345  26.788 -0.0699 -0.0192 -0.0640
40548W        W83601   4.903  21.466   3.630 -0.0039 -0.1271 -0.0154
40549W        W83602  32.800  33.477   0.495 -0.0580  0.0577 -0.3215
40550W        W83603  23.968   4.037  10.135  0.1563 -0.3421  0.1729
40551W        W83604  11.754   3.903   7.801 -0.0887 -0.2022  0.0556
40552W        W83605   5.949  16.646   7.102  0.1791  0.1072 -0.0188
40553W        W83606   3.280  31.184  28.570  0.0159 -0.2324  0.1349
40554W        W83607  16.061  15.792  27.120 -0.4226  0.1439 -0.2693
40555W        W83608  26.706   3.914   7.699  0.3726  0.1632 -0.1814
40556W        W83609  30.288  32.194   6.442 -0.4000 -0.0996 -0.0599
40557W        W83610  25.951   0.817   2.626 -0.1525 -0.1625  0.0135
40558W        W83611  19.584  32.286   3.560 -0.0360 -0.1719 -0.2794
40559W        W83612  33.839  32.969   6.782  0.2352 -0.0381 -0.1446
40560W        W83613   5.243  18.756  21.556  0.0320  0.0094  0.0920
40561W        W83614  21.398  13.743  16.852 -0.2197  0.1336 -0.1505
40562W        W83615  15.783   9.967   1.716  0.2143 -0.0260 -0.2021
40563W        W83616   8.535  13.207  26.447 -0.0548 -0.3597  0.3058
40564W        W83617  23.954   9.663  17.998 -0.2027  0.0836  0.0019
40565W        W83618  33.082  28.737  24.956 -0.2190 -0.0865  0.1700
40566W        W83619  28.020  27.144   1.856  0.0056  0.1204  0.1097
40567W        W83620  32.375  32.382  23.764 -0.0591 -0.3720 -0.2479
40568W        W83621  18.471  30.387  27.681  0.0665  0.0151  0.1627
40569W        W83622  21.813   6.772  26.894 -0.0108  0.3880 -0.1103
40570W        W83623  30.995   6.149   1.145  0.2358  0.2817  0.0884
40571W        W83624  13.159   9.873   9.645  0.2705 -0.0724 -0.0515
40572W        W83625  21.050  17.298   0.002  0.0986  0.0509  0.2885
40573W        W83626  17.364   3.788   0.175 -0.0012  0.0615 -0.3123
40574W        W83627  26.868   1.911  14.042  0.1127 -0.2758 -0.1209
40575W        W83628  21.207  16.845  28.588  0.1615  0.2165  0.1310
40576W        W83629  22.227   2.333  21.984  0.0731 -0.0828  0.0876
40577W        W83630   4.297  31.015   4.852  0.1135 -0.0135 -0.2398
40578W        W83631   5.700  13.432   1.888  0.1828 -0.0992  0.2541
40579W        W83632   6.746  10.140   3.470  0.0528 -0.0278  0.0792
40580W        W83633   7.921   0.484  26.758 -0.0940  0.1318  0.1919
40581W        W83634  16.744  22.321   9.382  0.1504 -0.0167 -0.6841
40582W        W83635   9.506  10.758   5.621  0.0707 -0.2247  0.3066
40583W        W83636   1.492  16.993  15.714  0.2328 -0.0927  0.0607
40584W        W83637  27.358  14.364   8.459 -0.1751 -0.2162  0.2317
40585W        W83638  20.820   6.493   4.801 -0.1726 -0.2538 -0.1006
40586W        W83639  28.160  32.952   0.739  0.3068 -0.0062 -0.1508
40587W        W83640  17.684  15.744  28.555 -0.2202 -0.2329  0.0531
40588W        W83641  33.135  29.047  25.390  0.1532 -0.1665 -0.1976
40589W        W83642  20.405   8.444   0.550  0.3079 -0.0388 -0.0430
40590W        W83643  33.144  20.853  28.592  0.0170  0.2643  0.2000
40591W        W83644  32.898  30.568  16.524 -0.2867  0.0922  0.0278
40592W        W83645  24.526  27.477  16.053 -0.0165  0.1383  0.0487
40593W        W83646  32.614  12.059  28.068 -0.0154  0.3006  0.1271
40594W        W83647  33.041   7.527  26.154 -0.1762  0.1545  0.1003
40595W        W83648  28.658  31.254  23.690  0.0667  0.1538 -0.1456
40596W        W83649   6.862  14.301  10.041  0.1070 -0.0321 -0.0730
40597W        W83650   4.676   4.594   9.521 -0.1599 -0.0378  0.2596
40598W        W83651   0.005   8.689  19.879  0.0512 -0.0644 -0.0212
40599W        W83652  18.732   8.565  21.671  0.3535  0.2070 -0.1815
40600W        W83653  14.637   2.014  21.691 -0.0184 -0.1534  0.0029
40601W        W83654   0.933  23.546   5.038  0.1658  0.0830 -0.1063
40602W        W83655  26.299  30.558   4.948 -0.1626 -0.0830  0.0527
40603W        W83656  22.213   4.179  28.055  0.1524  0.2313  0.1517
40604W        W83657  27.534  11.275  19.714 -0.0930  0.1086 -0.3605
40605W        W83658   8.502   0.486   0.917  0.1784 -0.0225  0.2565
40606W        W83659   2.380  13.106  27.690 -0.2173  0.0841 -0.0672
40607W        W83660   6.815  23.567  27.909 -0.2429  0.2023 -0.0423
40608W        W83661  17.120   3.990  10.310 -0.0690 -0.1179  0.2748
40609W        W83662   2.428   1.695  19.175 -0.2802 -0.0459  0.0569
40610W        W83663  24.454   1.572   8.889 -0.0794  0.0921 -0.0385
40611W        W83664  31.437  16.310  24.167 -0.3261  0.1146  0.0329
40612W        W83665   0.610   3.762   1.749 -0.1772 -0.0861  0.0128
40613W        W83666  10.654  31.767   4.073  0.0559  0.0098 -0.1838
40614W        W83667  18.653  20.149   8.660 -0.0257 -0.0333  0.1535
40615W        W83668  20.142  19.585  28.547  0.0750 -0.2317 -0.0650
40616W        W83669   0.369  32.310  17.483  0.0049 -0.2964  0.1447
40617W        W83670  34.591  27.447  26.821  0.1164 -0.0414  0.2672
40618W        W83671  11.643  29.880  24.722  0.1148  0.0146  0.4101
40619W        W83672  27.947  13.131  17.869 -0.0642  0.0051 -0.0315
40620W        W83673   0.558   8.513  29.138 -0.1643  0.1445 -0.0310
40621W        W83674  31.317  33.680  23.899  0.2583  0.2510  0.1758
40622W        W83675  19.639  21.611  18.192 -0.0597  0.2118  0.1910
40623W        W83676   2.848   3.212  26.936  0.1044  0.0332 -0.3266
40624W        W83677  14.378   2.825  19.908 -0.1361  0.2424  0.0745
40625W        W83678  33.230  10.572   3.779  0.4311 -0.1266 -0.2817
40626W        W83679   1.610  16.176  24.548  0.1670 -0.0571  0.3529
40627W        W83680  11.929  11.546   1.358 -0.0892  0.0813  0.0270
40628W        W83681   1.980   5.788   7.861 -0.1530  0.0850 -0.0570
40629W        W83682  32.781   8.342   8.221 -0.3598  0.2361  0.0524
40630W        W83683  29.766  27.910   6.786  0.0640 -0.0066 -0.1224
40631W        W83684  22.185  27.864   9.180 -0.1222  0.0725  0.2469
40632W        W83685  22.362  13.039   1.777 -0.0865 -0.0106 -0.1634
40633W        W83686  28.855   2.756   4.055 -0.0231 -0.3352 -0.3035
40634W        W83687  26.066   5.212   5.209  0.0716  0.0207 -0.0090
40635W        W83688  30.717   4.064   6.488  0.2921  0.1145 -0.0001
40636W        W83689  20.947  21.357  16.763 -0.0162  0.1428  0.1097
40637W        W83690  32.180  29.041  28.800  0.1480  0.2574  0.0036
40638W        W83691  34.295   7.673   8.495 -0.2213 -0.1263  0.0835
40639W        W83692  10.676   1.665   3.424 -0.0600  0.3322 -0.2127
40640W        W83693  34.398   2.605   4.518  0.1227 -0.1785 -0.0092
40641W        W83694  27.763   1.002  24.954 -0.2875 -0.3674  0.0490
40642W        W83695  29.975  32.303   4.694  0.1327  0.2346 -0.0707
40643W        W83696   9.538  32.660   9.405 -0.1217 -0.0851  0.2376
40644W        W83697  20.272  20.237   0.461  0.2536  0.0933 -0.3213
40645W        W83698  34.266  28.651   8.153  0.0174  0.3023  0.0096
40646W        W83699  31.171  10.128  10.236 -0.1050 -0.1172 -0.2863
40647W        W83700   3.824   3.710  16.089 -0.3548  0.2213  0.0081
40648W        W83701  15.471  32.024  17.329  0.2209  0.2625  0.4189
40649W        W83702   5.525  16.171   0.422  0.3337  0.1669 -0.1696
40650W        W83703   4.466  19.634   1.106 -0.0462  0.1368  0.4808
40651W        W83704  26.876  25.800   9.273 -0.1615  0.0723 -0.2967
40652W        W83705  28.971  23.344   6.276 -0.0761  0.0451  0.3170
40653W        W83706  32.844   0.890   5.478 -0.0888  0.1891  0.0564
40654W        W83707  21.279   7.163   3.479 -0.0041  0.0835  0.2242
40655W        W83708  31.823  28.046   7.189 -0.3095 -0.1497 -0.1901
40656W        W83709  28.469  34.158  17.242 -0.1551 -0.2046  0.2360
40657W        W83710  15.285   2.531   4.463  0.0248 -0.1228 -0.0309
40658W        W83711  31.662   2.687  20.959  0.0129  0.2603  0.2796
40659W        W83712  19.540   7.732   8.048 -0.0549 -0.2035 -0.2620
40660W        W83713  29.994  21.718   8.796  0.3499 -0.3005  0.2077
40661W        W83714  21.680  19.258  25.358  0.0655  0.0027 -0.0600
40662W        W83715  16.903   1.056   6.600  0.0145 -0.2243  0.0396
40663W        W83716  32.166  30.811   6.015  0.1735 -0.3138 -0.3277
40664W        W83717  28.682   6.034  19.565  0.2949  0.1353 -0.0667
40665W        W83718  32.169  30.046  23.551  0.1233  0.1225 -0.0598
40666W        W83719   8.807   5.672  20.604 -0.0293 -0.2689 -0.1021
40667W        W83720  14.246   2.058  10.096 -0.1835  0.0221  0.1890
40668W        W83721   4.134   6.534   6.425  0.2763 -0.0115  0.2034
40669W        W83722  28.411   4.210   1.093 -0.0666  0.0052  0.1908
40670W        W83723  26.958   8.586   2.540 -0.1025  0.0297  0.0596
40671W        W83724   5.574  31.904  27.353  0.1427 -0.3235 -0.0448
40672W        W83725  30.239   1.278  27.514 -0.3055 -0.1587 -0.0389
40673W        W83726  29.264   8.942  10.091 -0.1836  0.2871 -0.0614
40674W        W83727  10.870  31.166   4.884 -0.0189 -0.2288  0.2339
40675W        W83728   6.794   0.575  29.170  0.0509  0.0716  0.1602
40676W        W83729   5.267  32.122   7.855  0.0455  0.0241 -0.2653
40677W        W83730  28.402  31.073   1.522 -0.1905  0.1772 -0.2879
40678W        W83731  15.377  33.720   6.110 -0.0825  0.3311  0.0745
40679W        W83732  30.282  26.100   6.623  0.0086  0.0571  0.1109
40680W        W83733  13.767   1.513   7.095 -0.0521  0.1193 -0.1119
40681W        W83734   6.860   4.812   7.050  0.4195 -0.2490 -0.0306
40682W        W83735  29.741  11.403   8.403  0.2663  0.2721  0.1008
40683W        W83736  26.461   0.137   2.199  0.4504  0.0848 -0.0146
40684W        W83737  22.712  25.251   9.457  0.2472 -0.2722  0.3468
40685W        W83738   8.383  19.055  15.681  0.0502  0.2579  0.0132
40686W        W83739   7.233   4.301  21.474  0.1139 -0.0432 -0.1104
40687W        W83740   4.744   0.752   6.504  0.2313  0.0639  0.3304
40688W        W83741   2.289   7.189   7.857  0.0586 -0.1942 -0.0029
40689W        W83742  23.120  25.172   9.127 -0.2819 -0.0439 -0.2447
40690W        W83743  21.212   0.905   4.287 -0.1572 -0.0450 -0.2288
40691W        W83744   5.824  28.785  25.299  0.0477 -0.4835 -0.1000
40692W        W83745  23.394  28.617   9.676 -0.1534  0.0014 -0.0841
40693W        W83746   0.558  10.918   7.724 -0.1070  0.0554 -0.1138
40694W        W83747  33.433  30.869  23.494  0.3095 -0.2528 -0.0875
40695W        W83748  30.188  29.753  25.489  0.0025  0.0152 -0.0260
40696W        W83749   6.759   0.821  25.278 -0.2457 -0.3240  0.0153
40697W        W83750  33.148   3.088   7.118  0.1815 -0.0808 -0.0784
40698W        W83751  31.484  13.036   6.840  0.1517  0.2319 -0.0528
40699W        W83752  26.355  10.440   6.455  0.1701  0.0330  0.2153
40700W        W83753  22.970   5.145  21.052  0.0718 -0.1940  0.0403
40701W        W83754  27.908  11.180   7.861 -0.0008  0.0624 -0.5190
40702W        W83755  26.609  32.947   3.602 -0.3988  0.1030  0.1131
40703W        W83756   4.900   6.843   0.827  0.2408 -0.0061 -0.1015
40704W        W83757   5.486  10.036  27.743  0.2279 -0.0113  0.3397
40705W        W83758  33.414   2.515   4.606 -0.0489 -0.0752  0.4685
40706W        W83759  21.460   5.205   1.815 -0.3071  0.0862  0.0575
40707W        W83760  17.736  24.979  25.981  0.2105 -0.0977 -0.0925
40708W        W83761  30.374   5.644   2.541  0.0840 -0.1855 -0.4255
40709W        W83762  10.821  29.489  23.754 -0.0965  0.1220  0.0330
40710W        W83763   2.552   4.775   8.111 -0.3369 -0.0040 -0.1747
40711W        W83764  34.448   9.325  27.849  0.0576  0.2659  0.0033
40712W        W83765  31.099  10.826   0.792  0.1518  0.2252  0.2559
40713W        W83766  27.040   6.666   9.927  0.0688  0.0645  0.2400
40714W        W83767  26.088   9.100  10.677  0.2297  0.2206  0.4794
40715W        W83768  13.121  26.725   2.144 -0.1812 -0.0934 -0.0919
40716W        W83769  15.328  21.768   3.697 -0.0274  0.2352  0.2057
40717W        W83770  17.110   3.002   8.552  0.1251 -0.0298 -0.0874
40718W        W83771  24.531  17.731  27.530 -0.2421  0.0546 -0.0230
40719W        W83772   1.981  12.159   3.957  0.1924  0.0660  0.0056
40720W        W83773  17.054   2.366  28.341  0.3239  0.1384 -0.0153
40721W        W83774   5.895   0.303  18.820  0.1494  0.1041  0.1769
40722W        W83775  27.120   7.820  24.079 -0.0852  0.0886  0.2741
40723W        W83776  30.224  27.698  26.467 -0.2812 -0.0067  0.0186
40724W        W83777  24.436   9.725  17.106  0.0798  0.1853  0.3084
40725W        W83778  26.394   5.701  25.623 -0.0480  0.4381 -0.0485
40726W        W83779  18.262  33.982   6.181  0.4165  0.0510 -0.1440
40727W        W83780   4.156  26.987  29.113 -0.0395  0.2669 -0.0268
40728W        W83781   7.025   8.332   8.059  0.2270 -0.2703  0.0430
40729W        W83782  32.674  28.262   9.247 -0.0203 -0.3732 -0.1786
40730W        W83783   2.933   6.296  23.183  0.0501 -0.0761  0.3966
40731W        W83784   5.632  28.477   3.495  0.3831  0.0016 -0.1010
40732W        W83785   8.391  12.656  22.029 -0.0292  0.1285  0.0371
40733W        W83786  26.980  17.206   8.211 -0.1074  0.0052  0.0560
40734W        W83787   1.086  28.147   1.138 -0.0720 -0.0180 -0.1668
40735W        W83788  33.794  33.478  10.159  0.1549  0.1219  0.1068
40736W        W83789  21.430   2.397  28.119 -0.0422  0.0734 -0.1252
40737W        W83790  33.922  33.891   1.103 -0.0723  0.1088  0.3278
40738W        W83791   9.467  32.862   3.101  0.2904  0.0499 -0.0928
40739W        W83792  11.026  29.709   4.115 -0.0706 -0.0642 -0.2391
40740W        W83793  27.754   0.471  28.555 -0.0927 -0.0304 -0.1067
40741W        W83794  11.293   0.427   3.359 -0.0762 -0.0751 -0.1726
40742W        W83795  23.878  10.501   3.097 -0.2503  0.0583  0.3782
40743W        W83796  31.755   0.112   1.102 -0.1524 -0.0871 -0.0170
40744W        W83797   6.974  30.456  28.952  0.0578 -0.1242 -0.0415
40745W        W83798  27.929  29.076   7.365  0.0348 -0.0352 -0.1395
40746W        W83799   6.976   2.810   4.852 -0.0708  0.3163  0.0716
40747W        W83800  30.672   7.577   3.575  0.1905 -0.0392 -0.1834
40748W        W83801  29.450   5.893   5.869 -0.1461  0.1581  0.2142
40749W        W83802  16.254  16.595   0.326  0.1446  0.0185 -0.2001
40750W        W83803  13.346   1.527   9.792 -0.0180  0.2457  0.0936
40751W        W83804  30.215   9.669   5.076  0.1563  0.2492  0.1550
40752W        W83805  15.284  10.906   2.756 -0.3354  0.0630 -0.3239
40753W        W83806  13.384   9.380  23.698 -0.0619  0.2808 -0.1723
40754W        W83807   0.032  32.189   9.336 -0.2925  0.1003  0.0996
40755W        W83808  19.360   0.411   0.452 -0.2908 -0.1088 -0.0461
40756W        W83809   4.058  26.380   2.744 -0.2812  0.0234 -0.0071
40757W        W83810  25.364   7.057  26.876  0.2298  0.1098 -0.0109
40758W        W83811   5.345   8.353  28.901 -0.1905  0.1041  0.0829
40759W        W83812   7.580  29.870   6.940 -0.1263  0.2582  0.1559
40760W        W83813  10.102  33.382   0.663  0.0618 -0.0094 -0.1689
40761W        W83814  29.060  11.908  11.290  0.1233 -0.0764  0.4133
40762W        W83815  12.376   0.757   8.064  0.1768 -0.3253 -0.1429
40763W        W83816  23.622  23.212   1.657  0.0888  0.3053 -0.2977
40764W        W83817  22.468  15.041   9.158 -0.0988  0.2360 -0.2650
40765W        W83818  29.505   8.291   7.835  0.0531 -0.3023 -0.1760
40766W        W83819  24.935  11.539  17.581 -0.2369  0.1436  0.0903
40767W        W83820  24.400   3.687   7.803  0.0142  0.1166 -0.0301
40768W        W83821   7.749  30.072  23.286  0.0704 -0.0780  0.3843
40769W        W83822   1.433   6.350   8.351 -0.2164  0.0713  0.1012
40770W        W83823   6.236   0.815  25.507 -0.3127 -0.4207 -0.2027
40771W        W83824   7.961  27.494   6.221 -0.1185 -0.1095 -0.1222
40772W        W83825  23.874   6.219  23.298 -0.1565 -0.1454 -0.1793
40773W        W83826  10.709   1.835  10.038 -0.0072 -0.1791  0.2778
40774W        W83827  21.562   5.816  20.589  0.0186 -0.0486 -0.0293
40775W        W83828  25.441   4.938  28.842  0.1919 -0.2470  0.0688
40776W        W83829  25.161  28.445   9.880 -0.0117  0.0004  0.2768
40777W        W83830   4.281   7.179   4.474 -0.0765 -0.2226  0.0703
40778W        W83831  32.922  13.618  21.543 -0.2336  0.1228 -0.1255
40779W        W83832  30.043  33.364  28.835  0.1467 -0.2639 -0.1779
40780W        W83833  25.584  32.186   0.232 -0.1948 -0.1866  0.0378
40781W        W83834  26.111   9.416  28.512 -0.0723  0.2069  0.0295
40782W        W83835  15.453   3.272   7.839  0.1344 -0.5724  0.1978
40783W        W83836   4.295   7.252   5.374 -0.0531 -0.1345  0.3579
40784W        W83837  21.883  26.166   7.611  0.0124  0.0622  0.0056
40785W        W83838  16.325  32.296  10.108  0.1786  0.1638 -0.1732
40786W        W83839  34.564   5.782   4.567 -0.3232  0.2356 -0.3314
40787W        W83840   4.001   3.517   8.835 -0.1603 -0.0539  0.1767
40788W        W83841  22.883  33.212   5.696 -0.2638 -0.2745 -0.0368
40789W        W83842   3.925   4.976   7.766  0.2540  0.0284  0.0135
40790W        W83843   0.927  27.024   6.707  0.2399  0.1102  0.4306
40791W        W83844  32.705   0.152   8.332 -0.1585  0.1445 -0.2082
40792W        W83845  30.983  18.880   9.270  0.0950  0.3362  0.0749
40793W        W83846  24.287  22.725   5.070  0.1331  0.2104 -0.3007
40794W        W83847  29.580  30.916  26.957 -0.1110  0.0634  0.2756
40795W        W83848   2.180   2.907   6.991  0.2532 -0.4296  0.1236
40796W        W83849  28.779   6.382  27.892 -0.0777  0.5703  0.3583
40797W        W83850  21.957   0.172  25.298 -0.0663  0.2913  0.1482
40798W        W83851  15.307   1.549  20.324  0.0185 -0.1745  0.1172
40799W        W83852  22.117  10.372   6.834 -0.3993  0.0109  0.0795
40800W        W83853  33.824  27.767   4.479 -0.2049  0.0663  0.1353
40801W        W83854  31.960   5.834  21.749 -0.3259  0.0078 -0.0129
40802W        W83855  32.337   0.698   2.277 -0.4956 -0.4282 -0.1885
40803W        W83856  16.472  10.726   2.977  0.2301 -0.0613  0.3113
40804W        W83857   8.949   7.388   8.376  0.1348 -0.3759  0.2942
40805W        W83858  30.116   5.941   0.118 -0.1444  0.1800 -0.3074
40806W        W83859   5.533  12.264   1.337  0.2995 -0.1617 -0.1438
40807W        W83860  23.017  16.757  27.598 -0.2154 -0.1666  0.1046
40808W        W83861  23.577   2.637   7.175 -0.1890 -0.0361 -0.3507
40809W        W83862   3.018  13.545   4.316 -0.1415 -0.2905  0.0071
40810W        W83863  26.934  15.514   5.647  0.1492 -0.1713 -0.2041
40811W        W83864  29.954  28.315  25.012 -0.0755 -0.1519  0.1223
40812W        W83865  33.141  34.350  22.458  0.2056  0.0898  0.1231
40813W        W83866   2.582  20.253   0.285 -0.2329  0.1695  0.0896
40814W        W83867   0.965  22.598   5.457  0.1580 -0.1981 -0.2004
40815W        W83868  29.534  34.094  26.670 -0.0182 -0.1968  0.1547
40816W        W83869  13.826   7.192  24.033 -0.0529 -0.0268 -0.1268
40817W        W83870  30.379  26.799  17.575 -0.0713 -0.1067 -0.1126
40818W        W83871  26.643   7.317   7.283  0.1196 -0.0230  0.0906
40819W        W83872  29.245  31.728   5.812  0.1517 -0.1835 -0.2739
40820W        W83873   1.465   4.137  23.912  0.1455  0.1602 -0.0631
40821W        W83874  19.226  25.968  10.469 -0.1986  0.0263 -0.2853
40822W        W83875   3.727  28.138   0.606 -0.0678 -0.1915  0.2744
40823W        W83876  16.069  29.756  10.088 -0.1160  0.0912 -0.1734
40824W        W83877   1.558  11.198   7.319  0.5134  0.1544 -0.3465
40825W        W83878  26.533  25.223   1.031 -0.1394  0.2674  0.0885
40826W        W83879   4.418  33.196  23.084 -0.2216  0.0426  0.0354
40827W        W83880   5.443  25.455  21.852 -0.0406  0.0340 -0.3275
40828W        W83881  31.048   4.335  22.656 -0.1501  0.1361 -0.4271
40829W        W83882  11.596  33.230   3.834  0.1193  0.4001  0.0162
40830W        W83883  16.302  22.651   4.831 -0.2988 -0.1542 -0.1773
40831W        W83884   0.513  12.110  25.657  0.0403  0.1099  0.1176
40832W        W83885   4.540   5.635   6.693 -0.0300  0.2774  0.0196
40833W        W83886  19.956  29.724   9.218  0.3214 -0.2030  0.0471
40834W        W83887  30.830  32.984  15.910 -0.0290 -0.0960 -0.1013
40835W        W83888   6.820  32.697   6.594 -0.1793 -0.0528  0.1578
40836W        W83889  31.973   2.901   6.891  0.0753 -0.1272  0.0400
40837W        W83890  33.343   4.529   1.760  0.1006  0.4024 -0.1245
40838W        W83891  32.509  30.867  27.023 -0.2363 -0.1600 -0.2817
40839W        W83892  20.037  32.679   3.294 -0.3236 -0.0651  0.0298
40840W        W83893  22.646  15.090   0.767 -0.1134  0.2119  0.0225
40841W        W83894  17.657  31.118  10.328 -0.1176 -0.0155 -0.0336
40842W        W83895  29.927   6.725  29.182 -0.2347 -0.0371  0.1375
40843W        W83896   1.064  25.781  15.373 -0.0280 -0.0200  0.1586
40844W        W83897  21.285   7.206   2.116 -0.2388 -0.1390  0.1241
40845W        W83898  33.973  17.363   8.197 -0.0701  0.0877  0.1067
40846W        W83899  28.173  26.320   7.581 -0.0661 -0.2341  0.0300
40847W        W83900   2.162  34.181  25.469 -0.1602  0.2849 -0.0076
40848W        W83901  27.685   5.205   8.517 -0.2344 -0.0448 -0.1313
40849W        W83902  30.423   1.917  28.679 -0.1197 -0.1984  0.0821
40850W        W83903  31.218  32.068  22.389 -0.1990  0.3640  0.0494
40851W        W83904   5.089   3.238   7.992  0.0226 -0.1838  0.0152
40852W        W83905  24.614   9.229   8.605 -0.1079  0.1457 -0.1064
40853W        W83906  13.363   0.016   7.476  0.0424  0.2348  0.2924
40854W        W83907   3.869  12.185  28.178  0.2346  0.1453  0.0822
40855W        W83908   6.972  26.453   1.545  0.0759 -0.0772 -0.0160
40856W        W83909  29.524  33.945   7.617 -0.2268  0.0141  0.1962
40857W        W83910   7.146  32.083  26.139  0.0877  0.1375 -0.0982
40858W        W83911  24.043  10.912  28.832  0.1844  0.0187  0.1091
40859W        W83912  23.311  28.596   0.767  0.1113 -0.2099 -0.0102
40860W        W83913  28.851  10.394   5.976 -0.3266 -0.0191 -0.0720
40861W        W83914  25.408   6.594   9.011  0.2757 -0.2974  0.2665
40862W        W83915  22.147  23.445  26.587 -0.1690  0.1249 -0.0388
40863W        W83916  17.524  16.673  15.475 -0.0822  0.2044  0.0642
40864W        W83917  22.848   7.836   0.295 -0.0061  0.2302 -0.2200
40865W        W83918  12.203  10.849  10.403 -0.2269  0.2648 -0.1672
40866W        W83919  31.669   4.994  27.231  0.2019 -0.1647 -0.0234
40867W        W83920   1.194   2.564   7.128 -0.1037 -0.1246 -0.0603
40868W        W83921  32.141  23.207   1.110  0.3552  0.1716  0.3992
40869W        W83922  30.558  32.415   1.033  0.1290  0.0097  0.0981
40870W        W83923  23.971   3.941   6.800  0.1695  0.0339  0.4164
40871W        W83924  28.412  11.843   2.079 -0.0799 -0.2837  0.2311
40872W        W83925  11.715  18.376  14.579 -0.3824  0.0671 -0.0385
40873W        W83926  25.992  21.588   5.749 -0.1673 -0.3152 -0.2027
40874W        W83927   8.547   7.135   2.853  0.3235 -0.0519  0.1966
40875W        W83928  25.221   9.499  15.956 -0.1006 -0.0977  0.0983
40876W        W83929   1.013  32.180   1.922 -0.1586 -0.0752 -0.0083
40877W        W83930  29.861   2.949  21.581 -0.2230 -0.3438  0.1035
40878W        W83931  19.956  34.334   3.588 -0.1373  0.2847 -0.1705
40879W        W83932   8.094   1.111   3.396 -0.1624  0.2225  0.3723
40880W        W83933  24.265   5.909  28.961 -0.2641 -0.0350  0.0873
40881W        W83934  19.112   4.440  27.632  0.0963 -0.4528 -0.1359
40882W        W83935  20.214  21.523  17.439 -0.0279  0.2159 -0.2849
40883W        W83936  13.995  32.659  22.467  0.0335 -0.2327 -0.0844
40884W        W83937   0.226  29.375   0.696  0.0382 -0.5267 -0.1068
40885W        W83938  21.391   7.409   0.969 -0.1803 -0.2720  0.0057
40886W        W83939  28.782   8.494   8.866  0.0076 -0.1183  0.1277
40887W        W83940  28.195  33.610   5.536  0.1754  0.4579  0.2501
40888W        W83941   3.021  31.782  18.988  0.3229  0.0789  0.2224
40889W        W83942  32.480  28.043  25.664 -0.0610  0.2559  0.1297
40890W        W83943  30.040  12.024   0.560  0.0148  0.1505  0.0628
40891W        W83944  31.929  13.699   6.199  0.3536  0.0089 -0.1202
40892W        W83945  26.257   0.130   0.166  0.0312  0.2502 -0.2586
40893W        W83946  23.342  29.596   9.914 -0.0584  0.0930  0.1310
40894W        W83947  21.789   8.481   8.172  0.0034 -0.3318 -0.1755
40895W        W83948  26.592   2.425  26.202 -0.1289  0.0138  0.0690
40896W        W83949  27.417  24.176  28.610  0.3743  0.0936  0.0198
40897W        W83950  29.253   9.472  24.267  0.1991  0.0014  0.0034
40898W        W83951  33.981  13.490   2.681 -0.0900  0.1454  0.0738
40899W        W83952  34.670  30.774   7.696 -0.0451  0.2030 -0.1303
40900W        W83953  22.789  10.909   8.384 -0.1828 -0.0119 -0.1356
40901W        W83954  28.814   5.566   5.137  0.2083  0.0426 -0.2935
40902W        W83955   1.862  31.025   2.211 -0.1894  0.0497 -0.3675
40903W        W83956  14.541  24.034   5.500  0.1646  0.1536 -0.0054
40904W        W83957  30.064  14.770   7.183 -0.3093 -0.4059  0.0923
40905W        W83958   6.116   7.773  25.195  0.1957 -0.0396 -0.1470
40906W        W83959   8.738  15.688  17.191  0.0208  0.2914  0.3908
40907W        W83960   1.450  22.023   7.656  0.0612  0.2169 -0.0376
40908W        W83961  26.840   8.283  21.915 -0.0017  0.1735 -0.0666
40909W        W83962  32.093   8.243  23.076 -0.1330 -0.0330 -0.1149
40910W        W83963  26.722   3.532  24.054 -0.0515  0.0866 -0.1289
40911W        W83964  22.256  30.962   9.787  0.3067  0.0170 -0.0570
40912W        W83965  15.862  12.068   8.875 -0.0191  0.0636  0.1563
40913W        W83966  31.015  29.019   6.717 -0.0595  0.0294  0.1767
40914W        W83967  17.906  29.785   4.818  0.1328  0.2075 -0.4756
40915W        W83968   2.943   7.116   8.860  0.0314 -0.2107 -0.1833
40916W        W83969  29.734   8.180  27.613 -0.2800  0.2027 -0.1295
40917W        W83970  27.115  19.355   4.433  0.0150  0.1179  0.1293
40918W        W83971  27.471  22.153  25.209 -0.1068  0.2338  0.3475
40919W        W83972  21.227  30.118   1.227  0.1185 -0.0760 -0.2966
40920W        W83973  31.148  21.787   2.363 -0.0574 -0.2399 -0.3848
40921W        W83974   2.179  27.382   5.192 -0.0563 -0.0702  0.1471
40922W        W83975  24.297  31.702  21.761 -0.3221 -0.1980 -0.0882
40923W        W83976   8.651   4.368   2.044  0.1958  0.2561  0.1619
40924W        W83977  12.497   2.011   9.474 -0.0399  0.1565 -0.2183
40925W        W83978  32.065   5.492   4.516  0.1527  0.0040 -0.1103
40926W        W83979  27.548   3.576   3.458  0.4115 -0.0961  0.1643
40927W        W83980   0.540   3.407   9.041  0.1573  0.0161 -0.4062
40928W        W83981  18.571   6.761   4.880  0.1247 -0.0122 -0.1138
40929W        W83982  31.968   6.344   7.912  0.0976 -0.1585 -0.1999
40930W        W83983   6.280   1.551   1.341  0.0501  0.2539 -0.0152
40931W        W83984   9.396  15.912   3.380  0.0854 -0.1035  0.1055
40932W        W83985   1.157  10.719   0.467  0.0343  0.1879 -0.0438
40933W        W83986   6.028   4.479   6.978  0.3619 -0.0104 -0.0130
40934W        W83987  25.637   2.138  27.804 -0.1931 -0.2251  0.1015
40935W        W83988   0.553  22.536   2.283 -0.1533 -0.1179  0.3941
40936W        W83989   0.731  26.466  18.616 -0.3518  0.2391 -0.2764
40937W        W83990  22.025  24.696   6.834 -0.1456  0.0479 -0.0158
40938W        W83991  22.829  29.319   2.746  0.2652 -0.4520  0.2074
40939W        W83992  11.041  30.154  20.904  0.3944 -0.1258 -0.2181
40940W        W83993   8.049   6.055  25.750 -0.1745 -0.0702 -0.2243
40941W        W83994  12.971  10.171  10.503 -0.0270 -0.0838  0.2837
40942W        W83995   4.061  22.414  27.515 -0.0345  0.0068 -0.0644
40943W        W83996  22.400  30.136   5.518 -0.0851  0.1788 -0.1699
40944W        W83997  27.915  32.236  18.556  0.0111  0.1675 -0.0907
40945W        W83998  15.180   4.577   6.888  0.0303 -0.2458  0.0884
40946W        W83999  34.595   0.411  16.922 -0.1530 -0.0091  0.0764
40947W        W84000  25.301   8.525   4.572  0.2654 -0.3066  0.0297
40948W        W84001   4.506  33.264   6.597 -0.0094  0.0107 -0.0841
40949W        W84002  22.921  29.250   8.132  0.0161 -0.0310 -0.0052
40950W        W84003  28.190   0.097  21.438 -0.1019 -0.0641 -0.1814
40951W        W84004  32.153  28.894  13.020  0.0027 -0.0972 -0.2005
40952W        W84005  19.940  27.492   8.514  0.1133  0.1977 -0.2486
40953W        W84006  33.954   5.258  19.097 -0.2367  0.0504  0.0389
40954W        W84007  27.296  25.912  26.469  0.2144 -0.1927  0.2012
40955W        W84008  10.374  33.274  14.549 -0.3938 -0.5503  0.1170
40956W        W84009  26.223   6.921   5.759 -0.0765 -0.3454  0.4740
40957W        W84010  13.629   8.042   8.583 -0.3490 -0.2023 -0.0536
40958W        W84011  23.572  21.227   4.441  0.2210  0.1818  0.1208
40959W        W84012  19.924  31.642  28.325  0.4990 -0.2139  0.0104
40960W        W84013  30.521   8.690   0.138 -0.0491  0.2736  0.1229
40961W        W84014   7.026   4.734  25.801 -0.0246 -0.0841  0.0443
40962W        W84015  28.709   4.315   1.542 -0.0688 -0.1428  0.0861
40963W        W84016   8.261  28.329   2.208 -0.0680  0.2061 -0.2496
40964W        W84017   0.481  23.416  25.858  0.2689  0.2170  0.1027
40965W        W84018  28.091   0.692  10.080 -0.0901 -0.0222  0.2148
40966W        W84019  31.262  32.166   9.393  0.1968  0.1756 -0.3963
40967W        W84020  33.679   7.875   3.524  0.0951 -0.4142  0.3820
40968W        W84021   5.079   6.050   7.932 -0.0524 -0.2104  0.0457
40969W        W84022  25.190   4.084   9.605 -0.1395  0.1460  0.2756
40970W        W84023  12.085  32.373  25.986  0.0355 -0.0712 -0.0227
40971W        W84024  29.628  13.909   6.766  0.0742 -0.0484 -0.0760
40972W        W84025   1.353   6.624  10.435  0.1208 -0.1577 -0.1325
40973W        W84026  28.062  13.989   2.563  0.0111  0.3716  0.0150
40974W        W84027  23.509   4.021   6.518 -0.3410 -0.0591 -0.2588
40975W        W84028  22.972   1.550   2.632 -0.2722 -0.0097 -0.1750
40976W        W84029   4.595  26.064  20.310 -0.1364 -0.0545  0.2033
40977W        W84030  23.077  10.843  22.658  0.1536  0.0111 -0.1304
40978W        W84031  24.039  26.421   0.288  0.1658  0.2632 -0.0028
40979W        W84032  30.993  28.931  27.026 -0.1189 -0.1031 -0.2640
40980W        W84033   3.111   1.185   8.634  0.0385  0.1719 -0.2373
40981W        W84034  20.954  29.510  20.261  0.2032 -0.0238  0.0071
40982W        W84035  26.277   2.270   6.252 -0.0785 -0.1546  0.0052
40983W        W84036  33.365   3.611   8.057 -0.1026 -0.3138 -0.0154
40984W        W84037  27.055  18.915   6.061  0.1661 -0.0917  0.1254
40985W        W84038   0.372   0.641  18.250  0.0692  0.1915  0.1690
40986W        W84039  27.116  10.287  24.877  0.3935 -0.0617  0.2640
40987W        W84040   0.492  16.013   3.735  0.0037  0.4106  0.0260
40988W        W84041   2.263  30.917  28.218 -0.0119  0.1530 -0.1893
40989W        W84042   8.102  12.423   1.248  0.2442  0.0645 -0.4193
40990W        W84043  21.792  33.050  22.587 -0.0659 -0.0626  0.1182
40991W        W84044  27.759   4.620   9.817  0.0774 -0.2064 -0.2849
40992W        W84045  29.119  12.380   0.316 -0.2253  0.1846  0.2831
40993W        W84046  14.552  19.687   2.706 -0.1450 -0.2161  0.0537
40994W        W84047   8.272  31.923  27.039  0.1263 -0.2447 -0.3127
40995W        W84048  34.176  17.115   9.616 -0.2504 -0.4203 -0.0830
40996W        W84049  13.298  13.242  10.567 -0.3875  0.0629  0.4330
40997W        W84050  11.632  23.157   4.031  0.3060  0.0012  0.2251
40998W        W84051   9.838   9.196   4.078  0.0150 -0.0763 -0.0058
40999W        W84052   0.636  29.544  20.043 -0.3028 -0.0715 -0.0164
41000W        W84053  11.189  29.988   4.588 -0.3506  0.0024 -0.1182
41001W        W84054   9.928  14.729  28.746 -0.0042  0.2255  0.1001
41002W        W84055   3.420   8.637   9.475  0.1043 -0.3693  0.0342
41003W        W84056   8.396   7.531  25.841 -0.1297 -0.1897 -0.0938
41004W        W84057  19.129   2.869   9.875  0.4468 -0.1558  0.1681
41005W        W84058  19.369  12.742   3.740 -0.2381 -0.2073  0.1005
41006W        W84059  28.692   8.015   1.351 -0.0333  0.5015 -0.0594
41007W        W84060  30.044  28.503   8.940  0.1554  0.0943 -0.0515
41008W        W84061   9.182  27.131   8.000 -0.1104 -0.0898  0.1011
41009W        W84062   8.629  19.935  25.750 -0.1504  0.0539 -0.1004
41010W        W84063  32.427  30.578   7.286 -0.0193 -0.0268 -0.0492
41011W        W84064   2.982   0.459   6.997 -0.0166 -0.3170  0.1448
41012W        W84065  23.059  30.616  27.199 -0.3108  0.2444  0.1093
41013W        W84066  30.476  27.040  24.832  0.3169 -0.0299 -0.0272
41014W        W84067  29.891  31.384   8.987 -0.1066 -0.1897 -0.0784
41015W        W84068  30.067   0.930   4.334  0.2436  0.1062  0.0110
41016W        W84069   3.147  11.218   5.376  0.0348  0.1051  0.3111
41017W        W84070  30.247  28.291   8.246 -0.2020  0.0243 -0.1163
41018W        W84071   0.316  32.966   4.168  0.1766  0.0802 -0.1315
41019W        W84072   9.140  32.169   6.103 -0.0871  0.2310 -0.1777
41020W        W84073  20.885  31.095   1.516  0.1215 -0.1011 -0.1055
41021W        W84074  27.312  21.790   2.103 -0.2852  0.1736  0.1690
41022W        W84075  19.034  20.480   8.188  0.2579  0.2793 -0.1189
41023W        W84076  24.965   4.917   9.320  0.0752  0.0761  0.1974
41024W        W84077  34.436   8.303   8.612  0.4240 -0.0705  0.1572
41025W        W84078   3.847   4.554   8.857  0.0083  0.2899  0.0772
41026W        W84079  30.852  14.396  17.724 -0.1699 -0.0039  0.0495
41027W        W84080  24.084   9.558  20.745  0.0769  0.0231 -0.2387
41028W        W84081  22.187   3.228   5.669 -0.0495  0.2323 -0.1056
41029W        W84082   0.760   2.702   8.086  0.1960  0.0549  0.1998
41030W        W84083   0.357  34.277  26.141  0.1942 -0.2876  0.0095
41031W        W84084  31.280  31.588   7.359 -0.1191 -0.2142  0.2112
41032W        W84085  31.489  31.853  26.292 -0.3739 -0.0578  0.1081
41033W        W84086   1.299   8.120   3.290 -0.1168  0.1538  0.1367
41034W        W84087  25.842  23.213  28.233 -0.0312 -0.4460  0.1721
41035W        W84088  22.091  33.567   5.093 -0.1421 -0.1508  0.3228
41036W        W84089  26.704   4.569   5.516 -0.1652  0.1142 -0.1279
41037W        W84090  33.863  22.208   3.056  0.3358  0.2588 -0.1436
41038W        W84091  29.080  13.162   3.892 -0.1005  0.1626  0.0138
41039W        W84092   1.765  26.089   4.550 -0.2502 -0.0328  0.1066
41040W        W84093  29.059   0.108   8.522 -0.1126  0.0764  0.0624
41041W        W84094  12.931   1.797   9.761 -0.0990 -0.0379 -0.3182
41042W        W84095   2.957   8.775  24.036  0.0020 -0.1878  0.0250
41043W        W84096  19.644  22.962  14.582 -0.4244  0.2252 -0.0482
41044W        W84097  33.012   1.661   6.727  0.0049  0.0357 -0.0848
41045W        W84098  26.703  24.915   7.734  0.1393 -0.2642 -0.0252
41046W        W84099  24.690   0.074   9.205  0.0157 -0.3585  0.2599
41047W        W84100  21.672   2.487   2.317 -0.2023 -0.0784  0.0448
41048W        W84101  24.803  15.766   2.765  0.1925 -0.0431  0.1210
41049W        W84102  12.561   8.435   6.598  0.0035  0.1371 -0.1492
41050W        W84103   3.116   4.214   6.424 -0.0188  0.1314  0.0179
41051W        W84104  22.357   5.765   4.170 -0.2359  0.0700  0.0765
41052W        W84105  33.525  18.138  25.709 -0.2642 -0.0245  0.0652
41053W        W84106   4.553  30.625  28.774  0.0697  0.1569  0.0611
41054W        W84107  25.339  30.037   6.100 -0.0994  0.2701  0.1310
41055W        W84108   1.956   0.094  23.044 -0.0786 -0.1649  0.5038
41056W        W84109   2.437   1.931   0.323 -0.4099 -0.0332 -0.0175
41057W        W84110  29.765   7.793   0.483  0.0253 -0.2265  0.2217
41058W        W84111  19.918  32.466  28.889  0.0718  0.1099  0.0081
41059W        W84112  33.334  32.397   8.558 -0.1021 -0.0001  0.0108
41060W        W84113  15.646  33.024   1.638 -0.0335  0.5244 -0.4113
41061W        W84114   6.643   6.726   5.365  0.0152 -0.0551 -0.1179
41062W        W84115   8.271  34.011  24.661  0.2249 -0.2525 -0.2574
41063W        W84116  33.566  16.437   8.210  0.0697 -0.3575 -0.0937
41064W        W84117  17.231   9.316   9.662  0.3453 -0.1993  0.0927
41065W        W84118  24.841  31.348   5.914 -0.0366  0.1094  0.3067
41066W        W84119  33.254   9.495  21.080 -0.0835 -0.0081  0.0801
41067W        W84120  26.676  17.760   2.828  0.0950  0.2380 -0.0590
41068W        W84121  16.859   8.640  19.136 -0.2294 -0.0888  0.0606
41069W        W84122   0.518  13.303   8.501 -0.1844 -0.0261 -0.0253
41070W        W84123  21.425  30.680  25.074  0.1915  0.2027 -0.3070
41071W        W84124  24.051  22.886  27.170  0.0465 -0.1183 -0.1503
41072W        W84125  21.094  33.174  21.935 -0.0374  0.2889 -0.2555
41073W        W84126  24.090   9.318   2.830 -0.0609 -0.2210 -0.0108
41074W        W84127  15.918   1.823   3.370  0.1746  0.0273  0.2334
41075W        W84128  13.769   0.304   1.470  0.2232  0.3600  0.2266
41076W        W84129  17.803  32.084   5.673  0.0924 -0.1296 -0.0482
41077W        W84130   4.344   1.091  19.832 -0.0280 -0.0086  0.0326
41078W        W84131  20.283   1.368   0.286 -0.3869 -0.0688 -0.1983
41079W        W84132  30.268  32.946   0.613  0.0008 -0.1027 -0.4199
41080W        W84133  24.937   3.580   6.027 -0.3596  0.3747  0.5242
41081W        W84134  23.781  31.811  10.199  0.1989 -0.0297  0.1428
41082W        W84135   7.152   6.172   0.865 -0.1608 -0.1467 -0.1465
41083W        W84136  32.158  32.954   6.426 -0.2065 -0.1249 -0.0453
41084W        W84137  32.251  17.948   3.634  0.0602  0.0975  0.0611
41085W        W84138   4.728   2.894   5.395  0.2213 -0.0029 -0.2308
41086W        W84139  26.198  29.820  28.323  0.0876  0.1216 -0.0496
41087W        W84140   0.241   7.249   9.573 -0.3217  0.0913  0.1277
41088W        W84141  22.716   2.984   7.712  0.0875 -0.0876 -0.1309
41089W        W84142   5.858  23.223   6.093  0.1095  0.0457  0.1340
41090W        W84143   0.912  34.078   6.363  0.1804 -0.1272 -0.2512
41091W        W84144  22.270  15.435   8.715  0.1026 -0.1076  0.1144
41092W        W84145  32.097  23.388  28.352 -0.3438 -0.0854 -0.0404
41093W        W84146  31.594  14.896   6.317 -0.2434  0.0151  0.2498
41094W        W84147  29.014  33.466   9.318  0.0049  0.0706  0.0325
41095W        W84148  34.063  30.650  28.550  0.0443  0.0756 -0.0473
41096W        W84149  30.717  31.886   9.369  0.2787  0.0972  0.2476
41097W        W84150  33.980   2.132   6.305  0.1705  0.0119 -0.0646
41098W        W84151  29.316  24.903   3.322  0.0213 -0.0809  0.0264
41099W        W84152   5.703   5.561   1.007  0.0537  0.0044 -0.3731
41100W        W84153  25.271  23.670   0.543  0.3013 -0.3610 -0.0582
41101W        W84154   6.477  11.295   6.969  0.0908 -0.0496 -0.1704
41102W        W84155   2.582  32.574   5.808 -0.1736 -0.2802 -0.1408
41103W        W84156   5.987   2.769   9.551 -0.0012 -0.4038 -0.1123
41104W        W84157   2.751  19.675  17.383  0.0547 -0.2736  0.0349
41105W        W84158  20.748   1.447   7.943 -0.0754  0.1298 -0.0188
41106W        W84159  31.079  20.290  26.961  0.0862 -0.1749  0.1951
41107W        W84160  31.497  34.267   4.985 -0.0077  0.2709 -0.1560
41108W        W84161   3.454   1.152  29.098  0.0687  0.4220  0.1347
41109W        W84162  34.538   7.509  29.005  0.2790  0.1558 -0.2721
41110W        W84163  21.069  32.552  26.750  0.1351  0.2519  0.3019
41111W        W84164  28.933  30.912   4.330  0.0360  0.0484 -0.1993
41112W        W84165  29.095   5.996  24.953  0.1705 -0.3479  0.0645
41113W        W84166  29.272  30.707   6.377  0.0339  0.0078 -0.1657
41114W        W84167  26.681   4.602   2.400  0.1190  0.1499  0.1554
41115W        W84168  12.427  16.108  28.696 -0.2272 -0.0514 -0.2967
41116W        W84169  25.121  26.789   8.432 -0.1512  0.0754  0.0199
41117W        W84170  31.840   3.553   3.593  0.0226  0.2479 -0.2417
41118W        W84171  33.544  12.229   2.242 -0.0532  0.5099  0.1163
41119W        W84172  19.482  28.463   6.078 -0.3620 -0.1438  0.0961
41120W        W84173  33.941  13.061  22.003 -0.0044  0.0277 -0.1506
41121W        W84174   5.598  28.460   7.835  0.1234 -0.4005  0.0833
41122W        W84175  29.992   7.183   1.394  0.1052  0.2887  0.0793
41123W        W84176  28.906  17.871  24.447 -0.0656 -0.2076 -0.0644
41124W        W84177  30.023   7.056   8.530 -0.0289 -0.1344 -0.2763
41125W        W84178  33.655   0.588  22.030  0.2094 -0.0026  0.1241
41126W        W84179  24.709  27.237   2.849  0.0151  0.7180 -0.1137
41127W        W84180   5.283  16.205   9.358 -0.0623 -0.1076 -0.0742
41128W        W84181  21.124  23.854  24.973  0.2051  0.2079 -0.2063
41129W        W84182   9.958  23.980   4.538 -0.0777 -0.0371 -0.1042
41130W        W84183  32.780  17.726  15.257  0.2997  0.1230  0.1996
41131W        W84184  28.921  22.217   7.407  0.2605  0.0171 -0.0703
41132W        W84185  17.862   7.778  14.056  0.0174 -0.3403  0.2924
41133W        W84186   3.491  14.200   2.890  0.1334 -0.0402  0.2246
41134W        W84187   5.181   0.285   0.526  0.0691  0.0873  0.2390
41135W        W84188   4.651  21.487   0.926 -0.0280  0.0186 -0.3418
41136W        W84189  30.991   1.169   7.940 -0.0618 -0.1212  0.2839
41137W        W84190   9.192  23.878  27.866  0.1172 -0.1020 -0.2521
41138W        W84191  27.358   8.381   9.822 -0.1103  0.1054 -0.0896
41139W        W84192   1.405  11.101   5.727  0.3842  0.1835 -0.1580
41140W        W84193  32.497  20.901   9.659 -0.2196  0.0175 -0.2213
41141W        W84194   2.122  31.313   7.514 -0.0646  0.3267 -0.0707
41142W        W84195  32.749   2.344  27.174  0.2135  0.1111  0.0054
41143W        W84196  30.391  15.510   2.909  0.3827 -0.0594  0.0302
41144W        W84197  28.390  10.129  27.979  0.3520 -0.0692  0.1281
41145W        W84198  34.504  11.019   9.161  0.0469  0.1263  0.3638
41146W        W84199  25.244   5.228   6.657 -0.2963 -0.0672  0.3503
41147W        W84200  20.859  30.114   4.601  0.0022  0.3303  0.0937
41148W        W84201  30.846   4.451   7.795  0.0949  0.0098 -0.0276
41149W        W84202  25.630   9.348   9.481  0.1344 -0.0081 -0.0079
41150W        W84203  27.412   6.805   7.653 -0.0576 -0.0324 -0.0140
41151W        W84204  21.110  22.564   7.657  0.2063  0.1697  0.1477
41152W        W84205  25.519  27.633  27.345  0.0589 -0.0725  0.0422
41153W        W84206   0.928   3.672   2.435 -0.0443  0.2566 -0.2332
41154W        W84207   9.707  34.200   7.551 -0.2849 -0.0160 -0.1611
41155W        W84208  33.080  28.745  21.718  0.0981  0.2449  0.2911
41156W        W84209   8.193  32.006   4.478  0.0558  0.0300  0.2319
41157W        W84210  24.725   2.833   2.408 -0.2334 -0.2387 -0.0329
41158W        W84211  30.705  22.132   4.215 -0.1985 -0.0309  0.2255
41159W        W84212  32.026  15.103   1.270  0.1676  0.0802  0.0949
41160W        W84213   7.850  29.468   6.282  0.0657  0.0313  0.3004
41161W        W84214  26.314  22.684   5.080 -0.0471 -0.0965 -0.1717
41162W        W84215  33.339   7.528   8.350 -0.1354  0.2520 -0.0366
41163W        W84216   7.789  27.367   4.545  0.2067 -0.0661  0.0026
41164W        W84217  14.737   0.099   8.271  0.1518 -0.0833 -0.2403
41165W        W84218  15.157   6.061   0.009  0.0592  0.0565 -0.3654
41166W        W84219  23.599   2.302   3.837 -0.0831  0.0073 -0.0841
41167W        W84220  15.832   9.737   2.201  0.2760  0.0687  0.2401
41168W        W84221  30.468   3.148   5.428 -0.2484  0.0739 -0.4233
41169W        W84222   4.692   3.483   3.996  0.2066 -0.0378 -0.1054
41170W        W84223  29.965  25.224   4.874 -0.0780  0.1692  0.0764
41171W        W84224  33.711  12.628   4.359  0.1724  0.4162  0.2223
41172W        W84225  18.932   6.608   5.169 -0.0962 -0.2054  0.2174
41173W        W84226  17.939  30.476   9.706 -0.4084 -0.1723  0.0593
41174W        W84227  23.773  14.294  20.365  0.0692 -0.2173 -0.0932
41175W        W84228   3.654  28.367   4.529  0.0606 -0.0154  0.2674
41176W        W84229   2.031  23.587   9.122  0.0467 -0.4318 -0.1365
41177W        W84230  21.719  19.536   5.098 -0.3136 -0.0590  0.1744
41178W        W84231   5.600  33.618   7.756 -0.0057  0.0281  0.1260
41179W        W84232  29.564   9.869  24.246  0.1767  0.1226  0.0800
41180W        W84233   3.514  25.447   5.839  0.2698  0.1419 -0.0064
41181W        W84234  31.242  33.069  28.704 -0.0654  0.1139  0.1946
41182W        W84235   4.477  10.051   3.338  0.1507  0.0148  0.2839
41183W        W84236  27.920   6.923   3.712  0.2357 -0.2668 -0.1111
41184W        W84237   1.990  15.478   7.084 -0.1475 -0.3228  0.2252
41185W        W84238   9.170  21.905   6.102  0.4105  0.4255  0.3189
41186W        W84239   3.094  32.888   7.838  0.0110  0.0376  0.0820
41187W        W84240  29.156   5.411   1.235 -0.1070 -0.0603 -0.2654
41188W        W84241  21.089   4.366   9.737  0.2498  0.0308  0.0689
41189W        W84242  33.856  33.160  22.832  0.3762 -0.1189 -0.0009
41190W        W84243   5.081  31.606   0.756 -0.1924 -0.0598 -0.2118
41191W        W84244  26.951  21.885   8.479 -0.2128  0.0268  0.0029
41192W        W84245  29.005   9.162   7.952  0.1167  0.1101 -0.2362
41193W        W84246  32.338   4.912   3.805  0.0584  0.0286  0.4407
41194W        W84247   8.208   8.093  28.006 -0.0406  0.1815  0.3255
41195W        W84248  19.988  27.183   4.627  0.3599 -0.2635 -0.0232
41196W        W84249  33.344  34.633   6.418  0.0054 -0.2328  0.1424
41197W        W84250  13.100  13.584   2.147  0.3632  0.1115 -0.1223
41198W        W84251  24.474  11.794   2.963 -0.0370 -0.2191  0.0035
41199W        W84252  22.668   0.822   7.541 -0.2139 -0.2357  0.0984
41200W        W84253   3.298   9.310  27.941 -0.2892  0.0874  0.1956
41201W        W84254  13.240  29.000   2.564 -0.0236  0.1191  0.3518
41202W        W84255  19.365  23.450  28.030  0.2787  0.2338  0.0717
41203W        W84256  29.547  28.205  25.290 -0.1374 -0.0756  0.0443
41204W        W84257  12.310  24.509   2.663  0.1162  0.0257 -0.0763
41205W        W84258  29.262  16.706   6.691  0.3385  0.3099  0.1020
41206W        W84259  11.856  25.123   0.124 -0.0820  0.0288  0.0490
41207W        W84260  20.217  32.162   4.121 -0.0297  0.1259  0.0901
41208W        W84261   1.878  18.564   4.776 -0.1186  0.0553  0.1388
41209W        W84262  25.075  31.233   4.104  0.0168 -0.2085 -0.0337
41210W        W84263  26.254  13.561   2.963  0.1275 -0.0398 -0.1781
41211W        W84264   7.184   6.414   4.120 -0.2323 -0.0641 -0.0707
41212W        W84265   1.561  30.337   9.305  0.1069 -0.1698 -0.1185
41213W        W84266  20.509   7.175  21.946 -0.1116 -0.0455 -0.0559
41214W        W84267  17.773   2.712  17.735 -0.0398  0.0384  0.1130
41215W        W84268  33.537   5.589   6.532  0.0476  0.0907 -0.5497
41216W        W84269  29.366   5.224  10.575 -0.2617  0.3974 -0.2503
41217W        W84270  29.443  33.136   2.560  0.1683 -0.2483  0.0870
41218W        W84271  32.923   3.968  22.473 -0.0765 -0.0048 -0.1462
41219W        W84272  10.431   3.818  21.621 -0.2096  0.0619 -0.3475
41220W        W84273  26.591  17.427  27.012  0.1596 -0.1336 -0.0121
41221W        W84274  25.779  25.583   2.036  0.0806  0.0850  0.1509
41222W        W84275  25.387  18.301   9.103  0.5232  0.5029 -0.1928
41223W        W84276  22.487  34.420   9.954 -0.0035 -0.1057  0.0430
41224W        W84277  15.852  30.732   1.661  0.0827  0.2359  0.2967
41225W        W84278   0.118   3.661   6.431  0.0164 -0.2247  0.1848
41226W        W84279  10.698  23.427   1.543  0.3406  0.3009 -0.0136
41227W        W84280  33.024  33.794   5.698 -0.0527 -0.2451  0.0583
41228W        W84281   8.637   3.114   9.377 -0.1182 -0.0479  0.1319
41229W        W84282   1.719  27.911  28.449  0.4417  0.0932  0.0451
41230W        W84283  19.581   9.876   1.502  0.2312  0.2105 -0.3636
41231W        W84284  33.979  32.252  29.027 -0.0944  0.0180  0.1034
41232W        W84285  24.798  13.829  24.631  0.0293  0.1062  0.1772
41233W        W84286  18.087   0.958   3.726 -0.2563  0.0874  0.3951
41234W        W84287  31.369  12.533   3.300 -0.0858 -0.1434 -0.3058
41235W        W84288  30.188   1.272  22.994 -0.0244 -0.0021 -0.3958
41236W        W84289  20.451  32.353  28.200 -0.3598  0.0706 -0.0589
41237W        W84290  26.807   6.661  28.700 -0.0156 -0.2622  0.1756
41238W        W84291  34.266  12.432   8.211 -0.1226  0.1311 -0.1430
41239W        W84292  32.472  26.085  28.137 -0.1970 -0.2471 -0.2894
41240W        W84293  32.764  24.677   8.990 -0.1573 -0.2034 -0.2766
41241W        W84294  28.522  23.822   7.623 -0.1207  0.0429  0.3315
41242W        W84295  32.132  15.494   5.635 -0.2970 -0.1822  0.0974
41243W        W84296  32.609   1.909   3.714 -0.2286 -0.2187  0.0952
41244W        W84297  13.819  24.409  27.568  0.1268  0.3437 -0.0209
41245W        W84298  23.391  32.047   8.779  0.1551 -0.1160  0.0397
41246W        W84299  17.660  24.086  27.856 -0.0171 -0.1564  0.2284
41247W        W84300   1.248   2.912   8.494 -0.0300  0.1592 -0.1254
41248W        W84301   4.610  20.386  26.725  0.1215  0.3319 -0.1787
41249W        W84302   2.995  33.908   6.417 -0.0629  0.0668 -0.1067
41250W        W84303  30.423  20.019   7.599 -0.1283  0.0734 -0.0713
41251W        W84304  33.014  33.221   7.636  0.1090 -0.0066  0.1362
41252W        W84305  32.393  10.467  18.233  0.0831 -0.1876  0.0213
41253W        W84306  24.905   5.384   6.144 -0.5389 -0.2975  0.1174
41254W        W84307  27.697   3.103  29.079  0.2821 -0.2950  0.2453
41255W        W84308  31.640  34.356   5.457  0.0533  0.0093 -0.1074
41256W        W84309  22.047   6.999   2.308  0.4694  0.1716 -0.2309
41257W        W84310  26.770  20.471   7.834  0.0291 -0.0959  0.1498
41258W        W84311  24.147  24.547   7.193 -0.1538 -0.2412 -0.1271
41259W        W84312  18.088  11.002   8.282  0.2411  0.0770  0.0702
41260W        W84313   2.663  18.222   6.138 -0.3034  0.3693  0.0084
41261W        W84314  24.435  33.845  24.853 -0.1933 -0.2238 -0.1686
41262W        W84315  32.214  19.516   0.650 -0.2353  0.3499  0.0492
41263W        W84316   6.528   6.804  10.928  0.1576 -0.2594 -0.0825
41264W        W84317   0.881   6.294   3.511  0.0482  0.0017 -0.0901
41265W        W84318  28.772   8.774  24.844 -0.2684 -0.4360 -0.0542
41266W        W84319  21.260  25.629   6.208  0.1174  0.4017  0.2168
41267W        W84320   8.303  23.071   4.111  0.3022 -0.0776  0.0856
41268W        W84321  24.350  27.470   0.895 -0.2717  0.0182 -0.0240
41269W        W84322   4.910   1.600   5.942  0.0332 -0.2876  0.0388
41270W        W84323  26.392  21.811  23.856  0.1865 -0.2585 -0.0907
41271W        W84324   5.080   4.747   8.786  0.0766  0.2650 -0.2137
41272W        W84325  15.469  23.725   0.674  0.0644 -0.0854 -0.6126
41273W        W84326  25.812   1.487   3.724 -0.2816  0.0192 -0.0093
41274W        W84327  34.011  17.270   1.216  0.0090 -0.1178  0.3261
41275W        W84328  28.599  16.251   8.862  0.1023 -0.3794  0.3365
41276W        W84329   1.780  20.533  26.076  0.1524  0.1725  0.1126
41277W        W84330  10.079  32.111  26.032 -0.5530 -0.1206 -0.3717
41278W        W84331  30.766  10.541   2.547  0.2925 -0.1039 -0.1114
41279W        W84332   3.153  20.743   1.714  0.0364 -0.2103  0.2798
41280W        W84333  25.937  27.281   7.193  0.1709 -0.0927 -0.1386
41281W        W84334   7.603  14.518   5.244 -0.1841  0.0874 -0.1032
41282W        W84335  25.500  10.756   9.652  0.0957 -0.0179 -0.0241
41283W        W84336   0.002  28.247   7.844 -0.0361  0.0679 -0.0921
41284W        W84337  23.907  30.353   1.096  0.1528  0.1430 -0.0314
41285W        W84338  31.870   6.957   9.366  0.0499 -0.1761 -0.0966
41286W        W84339   4.670  33.167   4.796 -0.0319 -0.0698 -0.2478
41287W        W84340   1.901  26.116   3.523  0.1434  0.2261 -0.1305
41288W        W84341   0.838  16.800   5.473 -0.0482 -0.0088  0.0639
41289W        W84342  30.139  10.576   8.421 -0.0063 -0.0100 -0.2802
41290W        W84343   8.753  13.027  18.637 -0.0889 -0.0858 -0.2151
41291W        W84344   1.480  25.182   8.350 -0.1572 -0.0442  0.2444
41292W        W84345  15.940   4.548   1.622 -0.0167  0.0210  0.3223
41293W        W84346  33.755  26.005   0.793 -0.0687  0.0052  0.2021
41294W        W84347   5.144   6.653   7.754  0.0718  0.2839 -0.1383
41295W        W84348   2.394  30.158   7.729 -0.5229  0.0937 -0.0727
41296W        W84349  34.162  14.722   2.266  0.2390 -0.0847 -0.2854
41297W        W84350  26.862   3.766   0.232  0.1791 -0.2699  0.0879
41298W        W84351  32.637  30.162  25.516  0.3331 -0.2133 -0.1612
41299W        W84352   1.053   9.382  25.600  0.4635  0.0671 -0.1908
41300W        W84353  26.268  18.440  23.040 -0.1642 -0.1517  0.0813
41301W        W84354   8.286   2.589  25.525  0.1288  0.0536  0.0690
41302W        W84355  15.712  33.675   7.098  0.2486  0.1899  0.0166
41303W        W84356  17.253  29.544   4.490 -0.0777 -0.0518 -0.1919
41304W        W84357  31.779  22.780   1.928  0.0350  0.3610 -0.0431
41305W        W84358  15.729  31.346   0.989  0.0400  0.0898 -0.1023
41306W        W84359  28.520   4.814   5.482  0.2200  0.0919 -0.1855
41307W        W84360  33.060  12.799   3.586 -0.3268 -0.0366 -0.0714
41308W        W84361  30.305  23.087  21.271  0.1265  0.0757  0.1631
41309W        W84362  24.792   7.261   2.482 -0.2894  0.1602 -0.2035
41310W        W84363  23.079  11.851  24.753  0.1118 -0.2670  0.1273
41311W        W84364  34.221  30.392   1.255 -0.1371 -0.0926 -0.1680
41312W        W84365  11.836  11.410   0.079  0.1690 -0.2271  0.2752
41313W        W84366   8.871  33.229   3.993 -0.2120 -0.4789 -0.0169
41314W        W84367  30.778  24.221   9.207  0.2099  0.1701  0.1996
41315W        W84368  16.338   0.718   8.659  0.1343  0.0873 -0.0726
41316W        W84369  21.053  28.105  25.376  0.0617  0.2807  0.2732
41317W        W84370  18.361   1.311   3.466  0.0113  0.0506 -0.5118
41318W        W84371   0.992  31.311   2.706 -0.1600 -0.0147  0.2583
41319W        W84372   1.882  33.392   3.869 -0.2084  0.3577  0.1593
41320W        W84373   1.115  28.932  25.847  0.0227  0.6578 -0.1596
41321W        W84374  30.736  27.094   5.896 -0.1638  0.2355 -0.2686
41322W        W84375  30.205   3.766   2.380  0.0392 -0.2227  0.0313
41323W        W84376  32.175   1.790   9.361 -0.0339 -0.1338 -0.1271
41324W        W84377   0.536  31.139  26.003 -0.1658 -0.0370  0.1785
41325W        W84378  17.491   4.958   5.659 -0.1062  0.4764  0.2066
41326W        W84379  33.049  33.493  24.747 -0.0836 -0.4393 -0.1898
41327W        W84380  20.607  12.753  28.236  0.0173  0.0611 -0.1725
41328W        W84381   0.167   2.750  25.813  0.1156 -0.3345  0.0869
41329W        W84382   3.344   1.156   7.278  0.2684 -0.3676  0.2080
41330W        W84383  28.816  31.126   8.057 -0.1854  0.2150 -0.0402
41331W        W84384   7.716   7.958   2.985  0.1331  0.1167  0.1084
41332W        W84385  30.168  26.942   1.451 -0.0214 -0.1231  0.1574
41333W        W84386   5.857  29.985   3.038  0.1037  0.1015  0.0931
41334W        W84387  33.663  34.462   4.365  0.0542 -0.1893  0.2213
41335W        W84388  25.783  30.262  20.045 -0.0388  0.0816  0.2359
41336W        W84389  23.131   0.153  28.355 -0.2180 -0.0466 -0.1927
41337W        W84390  30.120  32.676   6.478 -0.3918  0.0814 -0.2275
41338W        W84391  24.038  15.733   0.822 -0.2451  0.3507  0.2483
41339W        W84392   6.202  29.865   3.425  0.1616 -0.0523 -0.0567
41340W        W84393  28.657  28.293   4.369  0.1750  0.0933  0.2406
41341W        W84394  29.483   8.123   9.599  0.0910 -0.1684 -0.0769
41342W        W84395   0.765   5.134  27.739 -0.5499 -0.1533  0.0470
41343W        W84396  33.489   3.016   3.465 -0.1071 -0.2042 -0.0751
41344W        W84397   4.960  31.512  23.383 -0.2478 -0.1959  0.0763
41345W        W84398   6.271  26.637  28.799  0.1802  0.2761 -0.1190
41346W        W84399   2.257   8.757   6.857 -0.0338  0.1771  0.0356
41347W        W84400  21.602   6.013   8.003  0.3134 -0.1965 -0.1983
41348W        W84401  30.816  31.709  28.282 -0.0861 -0.0865  0.0338
41349W        W84402  27.101   6.530   3.596 -0.0679  0.0915  0.1717
41350W        W84403  26.231  24.965   7.960  0.0500 -0.0491  0.4129
41351W        W84404  24.470  31.420   1.506  0.0666 -0.1980  0.1724
41352W        W84405  32.335  20.454  24.128  0.1362 -0.0886 -0.2241
41353W        W84406  21.200   4.052   4.357  0.0246  0.4721 -0.0392
41354W        W84407  29.975  18.945   6.591 -0.1178 -0.3116 -0.0150
41355W        W84408  20.835   5.939   3.657  0.0970 -0.2440 -0.0981
41356W        W84409  22.704  23.368   7.878  0.1078  0.0072 -0.1974
41357W        W84410  28.294  28.659  22.188  0.1884 -0.0464  0.1431
41358W        W84411   1.209   7.782  27.146  0.0183 -0.1453 -0.1780
41359W        W84412  29.139  10.498   5.001  0.2019 -0.1981 -0.3091
41360W        W84413  28.674  12.011  20.177  0.2479 -0.1003  0.0796
41361W        W84414  33.933  25.287  26.467 -0.1756  0.0377 -0.0256
41362W        W84415   0.341  23.336   6.905  0.0138  0.0418 -0.1829
41363W        W84416  22.405  33.727   9.236 -0.0083 -0.1028 -0.0702
41364W        W84417   4.000  17.181  28.464  0.0765  0.4520 -0.2160
41365W        W84418  30.403   9.171  17.619  0.2273 -0.3669 -0.1029
41366W        W84419  23.600   7.339   3.458  0.0786 -0.1930 -0.1572
41367W        W84420   8.659   1.319   8.118  0.1291  0.0703 -0.2710
41368W        W84421  24.329  14.071  17.508 -0.0589 -0.3392 -0.2267
41369W        W84422  26.331  28.185  29.088  0.0234 -0.0981 -0.0384
41370W        W84423  32.843  19.675  29.037 -0.2188 -0.0967  0.0370
41371W        W84424  30.430  13.730  20.591  0.1381  0.1375 -0.0559
41372W        W84425  24.563   3.728  29.141  0.3950 -0.2281 -0.0597
41373W        W84426  22.175  28.409   0.031 -0.0217 -0.2526 -0.1364
41374W        W84427  26.089  23.016  26.893  0.2049 -0.0392 -0.1907
41375W        W84428  29.150   0.856   6.830 -0.1342  0.0794 -0.2456
41376W        W84429  22.186  11.979  23.749 -0.1648  0.1455 -0.0834
41377W        W84430  16.620  28.191  26.545  0.1117  0.2238 -0.0513
41378W        W84431   7.782   4.263  10.921 -0.0817 -0.1075 -0.0718
41379W        W84432  25.704   5.171   1.953  0.1867 -0.2747  0.0626
41380W        W84433  11.999  15.767  23.789  0.0920 -0.0160  0.1291
41381W        W84434  31.212  16.011   5.174  0.0016  0.0774  0.2466
41382W        W84435  28.888  17.640   7.661  0.2545 -0.0353  0.0264
41383W        W84436  32.022   1.302   3.127  0.1396 -0.1606  0.1075
41384W        W84437  22.766  14.463   5.585 -0.2990  0.0542  0.3268
41385W        W84438  20.258  19.180   3.132 -0.3070  0.0102  0.1104
41386W        W84439  19.079  23.864   3.531 -0.2484 -0.0580  0.3686
41387W        W84440  18.911  20.114  26.972 -0.2611  0.0230  0.1609
41388W        W84441   4.546  18.268  19.766 -0.0818  0.1927  0.2861
41389W        W84442   4.350  13.426  26.111 -0.3331  0.0209  0.3683
41390W        W84443  22.602   5.979   9.837  0.0230  0.1353  0.0981
41391W        W84444  20.274  13.977   6.094  0.1879  0.3085  0.1229
41392W        W84445  26.849  14.965   5.135 -0.1640 -0.1147 -0.2639
41393W        W84446  21.321   9.044  25.046 -0.0731  0.1905 -0.0174
41394W        W84447  12.767  15.654   3.682  0.1775 -0.1652 -0.2732
41395W        W84448  28.323   9.576   9.327 -0.0165 -0.2175 -0.3702
41396W        W84449  31.006   9.975  11.146 -0.0213 -0.1788 -0.3444
41397W        W84450  27.094   2.928  17.818 -0.3501  0.0312  0.1704
41398W        W84451  28.164  16.518   1.492 -0.0048 -0.0474  0.1237
41399W        W84452  15.645   8.457  17.320 -0.0287  0.0332 -0.0723
41400W        W84453  25.410  30.660  23.646  0.2704  0.1073 -0.2602
41401W        W84454   2.680   5.495   6.774  0.1100  0.1286  0.0492
41402W        W84455   0.207   5.954  10.577  0.0523 -0.1137  0.0451
41403W        W84456  26.048   0.120  19.703 -0.1726  0.1289  0.3707
41404W        W84457   3.765  28.143   2.371  0.0663 -0.0704 -0.0595
41405W        W84458  29.394   3.319   1.172  0.1024  0.1855 -0.4415
41406W        W84459   5.068   8.143   7.110  0.0354  0.1314 -0.1949
41407W        W84460   5.366  17.068   0.014 -0.2291 -0.2260 -0.3769
41408W        W84461  13.732  28.238  24.641 -0.1324  0.0299 -0.0098
41409W        W84462   1.275  10.751   8.631 -0.0073 -0.2746 -0.0584
41410W        W84463   5.243   8.490   4.453  0.0531 -0.0186 -0.1991
41411W        W84464  21.794  23.814   6.142  0.1343  0.4373 -0.1924
41412W        W84465  16.326   8.700   3.979 -0.1188 -0.4810  0.0017
41413W        W84466   0.543   1.343  19.124 -0.2106  0.1255 -0.1754
41414W        W84467  20.795  15.216  22.111  0.2814 -0.1200  0.0235
41415W        W84468  12.376  34.241  10.899 -0.2080 -0.1508  0.2300
41416W        W84469  13.148  32.675   4.058 -0.2211 -0.0060  0.1751
41417W        W84470  30.485   6.766  17.587  0.0088 -0.2906 -0.0731
41418W        W84471  15.016  34.072  23.650  0.2719  0.1896  0.1217
41419W        W84472   2.774  13.391  27.113  0.2315  0.0172  0.1930
41420W        W84473  24.276   6.883  21.486 -0.1244 -0.2181 -0.2856
41421W        W84474  10.425   9.252  11.003  0.2312 -0.3278 -0.1755
41422W        W84475  13.102   3.311  22.940 -0.1120  0.0196  0.0545
41423W        W84476  22.348  18.780  25.700  0.0303  0.1295 -0.1825
41424W        W84477  34.435  11.386   8.779 -0.1906  0.0246  0.0647
41425W        W84478   8.313  17.545  17.136  0.1303  0.0054  0.2219
41426W        W84479   6.402   4.527   6.652  0.2276  0.2013  0.2217
41427W        W84480  13.713  11.708   1.965 -0.0042  0.1334 -0.2135
41428W        W84481  28.085   4.904   3.779 -0.0564  0.1640  0.0507
41429W        W84482   9.697   9.974   9.695  0.1937  0.2157  0.1223
41430W        W84483  21.670  27.835   8.437  0.1417  0.1846  0.0802
41431W        W84484   4.127   6.264  22.987 -0.6847 -0.0246 -0.2071
41432W        W84485  27.384  15.891  25.183  0.2888  0.1342 -0.1412
41433W        W84486  33.448  10.949  22.735  0.0992  0.0869  0.1915
41434W        W84487  26.396  29.161  24.182 -0.1592 -0.1124 -0.1041
41435W        W84488   2.620   3.715  14.692 -0.1054 -0.1418 -0.1321
41436W        W84489   2.472   0.534  23.837 -0.1811 -0.1088 -0.2530
41437W        W84490   9.834   4.703  25.807 -0.2292 -0.0482 -0.0071
41438W        W84491   2.723   7.965  21.329 -0.0554  0.1645  0.0530
41439W        W84492   0.812  17.430  24.776  0.5983 -0.4344  0.0833
41440W        W84493   6.502  17.213   1.119  0.3938  0.1856  0.0827
41441W        W84494  23.078  11.305  26.940 -0.2280  0.0864  0.0938
41442W        W84495  31.035   3.170   6.784 -0.1845 -0.1726 -0.2279
41443W        W84496  27.501   6.650  14.809 -0.1793  0.3198  0.2713
41444W        W84497  10.520  15.499  27.407  0.0240 -0.1285  0.1742
41445W        W84498  20.328  17.995  25.300 -0.0619 -0.1274 -0.2208
41446W        W84499  28.532   8.091  23.405  0.2117 -0.4219 -0.0893
41447W        W84500  30.041  33.608  24.035  0.1837 -0.1021 -0.4125
41448W        W84501   2.039  15.325  16.705 -0.0298  0.1414  0.1587
41449W        W84502  24.877   7.996   0.768 -0.2622  0.0866  0.0139
41450W        W84503   1.710  12.150   2.747  0.0556 -0.0126  0.1471
41451W        W84504  10.709  27.488  25.167  0.4171  0.3608  0.1382
41452W        W84505  29.823  12.831   6.657  0.3236 -0.3035 -0.1122
41453W        W84506   7.217  12.640  26.462 -0.1387 -0.1394  0.2951
41454W        W84507  13.190  33.517  15.046  0.0188 -0.1162 -0.0332
41455W        W84508   6.463  10.990   1.866  0.1509 -0.0786  0.2031
41456W        W84509  20.582   7.511  28.239 -0.0335  0.0395 -0.0700
41457W        W84510  11.326  10.632   1.994 -0.0868 -0.3246 -0.4345
41458W        W84511  31.312  16.850   4.480  0.0697  0.0549  0.0519
41459W        W84512  22.608   3.205  24.016  0.2729  0.1559 -0.1450
41460W        W84513   7.988   4.063  20.995 -0.1362  0.0590  0.1656
41461W        W84514  24.663  20.392  26.068  0.2180 -0.1833  0.0701
41462W        W84515   0.236  10.668  22.089  0.0373  0.0313 -0.1330
41463W        W84516  25.555  33.070   7.454  0.0112  0.1212 -0.0761
41464W        W84517  33.272  12.282  27.233 -0.2827 -0.2891  0.1687
41465W        W84518  30.921  23.415   5.271 -0.2546 -0.0692  0.2338
41466W        W84519   3.184  19.791  25.685  0.2509 -0.0866 -0.1898
41467W        W84520   0.720   2.986  28.056 -0.0807 -0.1582  0.0242
41468W        W84521  23.049   7.995  25.936 -0.0012 -0.2188  0.1982
41469W        W84522  28.535   0.593  25.709  0.2184 -0.0819 -0.0315
41470W        W84523  22.473  34.320  21.685 -0.0508 -0.2068  0.2617
41471W        W84524  30.621   1.012   8.752  0.0039  0.2285 -0.1241
41472W        W84525  27.221  24.989   6.714  0.1312  0.0596 -0.0323
41473W        W84526   1.330  13.300   4.942 -0.0507  0.0649 -0.1801
41474W        W84527   0.978   1.970   1.051  0.3563 -0.1156  0.0834
41475W        W84528  13.698  11.235   9.250  0.0320 -0.1832  0.2317
41476W        W84529  10.840  28.275  20.267 -0.2240  0.3368 -0.0418
41477W        W84530  10.117   7.446   7.327  0.1516 -0.0229  0.0828
41478W        W84531  27.695  19.286  17.253 -0.1253  0.0122 -0.3152
41479W        W84532   4.383   6.282   5.529  0.1011 -0.1088  0.0592
41480W        W84533  28.617  10.569   3.464  0.3036  0.1352  0.1107
41481W        W84534   0.733   3.408   5.728  0.2245  0.3388  0.1023
41482W        W84535  22.380   7.513  18.099 -0.0132 -0.0685  0.1534
41483W        W84536  14.696   3.035   4.168  0.1129 -0.0160  0.0814
41484W        W84537  23.102  34.278  22.473 -0.2217 -0.3635 -0.2771
41485W        W84538   1.050   5.950   4.960  0.0902 -0.3621  0.0770
41486W        W84539  16.826   7.413   6.220  0.0115  0.0580 -0.2724
41487W        W84540  25.795   5.167   0.024  0.0037 -0.1119 -0.0294
41488W        W84541   1.522   3.514  28.650  0.3347  0.3527  0.2031
41489W        W84542   3.903  31.122   3.922 -0.1988  0.0138 -0.0481
41490W        W84543  23.656   1.455  25.531 -0.2812  0.2467 -0.0295
41491W        W84544  32.719  24.317  26.750  0.0307  0.0179  0.2065
41492W        W84545   4.735  15.801  18.075 -0.1611 -0.1816  0.0021
41493W        W84546   2.657  33.880  24.287  0.3195 -0.0749 -0.6208
41494W        W84547  22.917  28.142  14.247 -0.0305 -0.0512  0.1323
41495W        W84548   5.262   3.034   8.751 -0.3259  0.0760 -0.1620
41496W        W84549  22.816  29.859  20.634 -0.3133 -0.0247  0.1847
41497W        W84550  10.179  11.979  14.422 -0.0146  0.0963  0.0872
41498W        W84551  21.868   0.716   8.309 -0.1421  0.0487 -0.2102
41499W        W84552   0.982  23.613  26.116 -0.1038  0.2733  0.0555
41500W        W84553   2.237   3.843   7.932  0.0172  0.2593 -0.1190
41501W        W84554  18.194  10.275  26.588  0.0004  0.0906  0.0215
41502W        W84555   9.143  25.946  14.047 -0.0278  0.0235  0.2604
41503W        W84556  28.483  17.386  28.294  0.0352  0.3197  0.0118
41504W        W84557  12.112  23.534   1.700 -0.2736  0.1749  0.0921
41505W        W84558  25.101  11.855   7.264  0.0623  0.0384  0.0705
41506W        W84559  20.409  22.619  18.848  0.1164 -0.3103 -0.1831
41507W        W84560  32.204   8.209  28.690  0.3367 -0.0571  0.1545
41508W        W84561  16.033  11.044  25.986  0.3242 -0.0110 -0.2499
41509W        W84562  34.114   9.903   1.023  0.1374 -0.1268  0.2214
41510W        W84563   0.500  22.862   7.379  0.1035 -0.0315  0.2274
41511W        W84564  29.925  31.914  22.374 -0.2037 -0.1009  0.1991
41512W        W84565  17.755   9.739  19.326  0.4402  0.4386  0.0090
41513W        W84566  28.925  33.922   7.132  0.1030 -0.0945 -0.0068
41514W        W84567  11.985  24.115   0.120  0.1876  0.1285  0.2171
41515W        W84568  18.689  26.524  19.934  0.0395 -0.1350 -0.1056
41516W        W84569  20.092  27.699  10.143 -0.3512  0.1966  0.0318
41517W        W84570  26.893  18.987  22.607  0.0219 -0.2605  0.4076
41518W        W84571  30.571  23.245  26.438 -0.0160 -0.1430  0.0104
41519W        W84572  22.924  29.908  26.078  0.1158  0.1990  0.0349
41520W        W84573  30.230   5.574  18.811 -0.0229 -0.1766 -0.0964
41521W        W84574  22.730  21.062  26.947  0.2389  0.0681  0.0639
41522W        W84575  31.492  16.612   7.385 -0.0452 -0.0367  0.2199
41523W        W84576  18.993  24.531  18.077 -0.0673  0.5246  0.1181
41524W        W84577  13.979  32.638  26.630 -0.0661 -0.2180  0.0668
41525W        W84578  25.595  14.059   9.786  0.0277  0.0891 -0.1528
41526W        W84579  21.680  12.319  24.657 -0.0119  0.0722 -0.0242
41527W        W84580  23.248   5.171   8.929 -0.1911  0.1440  0.0540
41528W        W84581  22.054  10.522   7.334  0.0183  0.1123 -0.0444
41529W        W84582   1.854   2.661   1.679 -0.2311 -0.1258  0.2175
41530W        W84583  29.841  16.699  14.995  0.0497  0.0617 -0.0504
41531W        W84584   4.100  28.397   5.979  0.1088  0.1663  0.1727
41532W        W84585  22.488   9.769  20.247 -0.0695  0.0318  0.0289
41533W        W84586   8.761  20.074  20.725 -0.3083 -0.0767 -0.1026
41534W        W84587   4.094  12.338  19.418 -0.2203 -0.2052 -0.2160
41535W        W84588   0.343   5.570   1.600 -0.0843  0.1226  0.1503
41536W        W84589  18.129  28.583  21.438 -0.0126  0.2295 -0.1855
41537W        W84590  21.140  26.242   9.337 -0.0892  0.2739  0.0641
41538W        W84591  31.864   7.192   4.130 -0.0160 -0.1353  0.0605
41539W        W84592   5.314   9.578  27.854  0.2372  0.1173  0.0405
41540W        W84593  23.676  23.790  28.597 -0.1694  0.1021 -0.1100
41541W        W84594   4.006  32.430  22.456  0.1625 -0.0108 -0.1183
41542W        W84595  28.933   2.035  21.897 -0.2109 -0.1555 -0.2230
41543W        W84596   2.704  32.225   3.787  0.0113  0.1498  0.0518
41544W        W84597   0.567   9.281  26.256  0.4164 -0.0151  0.4757
41545W        W84598  34.668  27.225   7.276 -0.3589  0.2589  0.2437
41546W        W84599  31.097   5.436  23.914 -0.0079  0.3868  0.0003
41547W        W84600  32.690   0.113   6.114 -0.2207  0.0363  0.0323
41548W        W84601  30.132   2.962   4.524 -0.1625 -0.0533 -0.2693
41549W        W84602   4.433  28.872   5.748 -0.1142  0.2914 -0.0903
41550W        W84603  30.584  18.657   8.690 -0.0995  0.0409  0.2007
41551W        W84604  28.920  34.022   5.922  0.1004 -0.0762  0.1537
41552W        W84605  34.242  30.095   2.466  0.0914  0.0147  0.0005
41553W        W84606  28.455   4.650  18.560 -0.0807 -0.2889 -0.3606
41554W        W84607  18.005   8.470  18.478  0.1217 -0.0036 -0.0318
41555W        W84608  27.069  13.200   5.562 -0.0382 -0.1920 -0.0898
41556W        W84609  14.691   2.976  24.504 -0.1937 -0.0387  0.0643
41557W        W84610  21.613  10.915  20.657 -0.1016  0.6971 -0.1892
41558W        W84611   0.686  24.001   7.934  0.2250  0.1718 -0.1364
41559W        W84612  17.028  13.754   5.668  0.0003  0.2550  0.0533
41560W        W84613  32.455   8.294  10.139  0.1107 -0.2115 -0.2164
41561W        W84614  33.356  16.947   6.698  0.0027  0.1102 -0.4720
41562W        W84615  23.381  32.940   3.433  0.4230  0.0718  0.3819
41563W        W84616   0.544  14.503  27.277 -0.2707 -0.2086  0.1642
41564W        W84617  30.779  14.873   9.013 -0.0321 -0.2700  0.1239
41565W        W84618  30.537   7.033  28.376 -0.1682  0.1332 -0.1904
41566W        W84619  25.085   7.378   2.082 -0.2029 -0.3030  0.3845
41567W        W84620  32.643  14.698   5.551  0.0665 -0.1486 -0.1699
41568W        W84621  32.671   2.763   9.165  0.1477  0.0255  0.0386
41569W        W84622  28.059  31.970   3.357  0.0812 -0.3886 -0.0659
41570W        W84623  33.883   9.706  25.312  0.1417  0.0601  0.0690
41571W        W84624  16.677  31.647  23.212 -0.1542 -0.0521  0.1291
41572W        W84625  17.846   3.472  25.015 -0.0624 -0.4262  0.1631
41573W        W84626  12.336  31.344   2.753  0.1185 -0.1385  0.1826
41574W        W84627  30.205   9.986  16.592 -0.0867  0.5512  0.0382
41575W        W84628  28.133  15.942  28.368 -0.1034 -0.2173  0.0369
41576W        W84629  19.725   7.816  16.851 -0.0529 -0.0226 -0.0339
41577W        W84630  11.561  15.926   5.460  0.4248 -0.0008 -0.0339
41578W        W84631  22.815   9.763  19.451  0.0079  0.1179  0.3042
41579W        W84632  12.351  33.943   5.314  0.2107 -0.0339  0.1626
41580W        W84633  30.985  14.192   4.333  0.2817  0.1469  0.4834
41581W        W84634  21.544   8.486  20.337 -0.1155 -0.1050  0.0629
41582W        W84635  12.203  32.066  18.040 -0.0982  0.0056  0.3658
41583W        W84636   1.974   9.227   8.034 -0.0081  0.0670  0.0469
41584W        W84637   1.253   2.648   2.397  0.0168  0.1091 -0.1116
41585W        W84638  23.921   5.340  17.051  0.0399  0.3118 -0.1803
41586W        W84639  24.313  15.422  25.636  0.0190  0.0746  0.2268
41587W        W84640  24.971   8.858   4.738 -0.0598  0.2850  0.0859
41588W        W84641   0.208   3.872   8.343 -0.1425 -0.3066 -0.1141
41589W        W84642  31.495  15.802  18.591 -0.3373 -0.0289 -0.1818
41590W        W84643   5.268  11.384   5.413 -0.1261  0.0414  0.2423
41591W        W84644  16.141  21.297  27.990  0.0461  0.0384  0.1872
41592W        W84645  30.293  11.828  18.786  0.0368  0.0869 -0.0288
41593W        W84646  22.036  16.479  26.636 -0.2017  0.0352 -0.3333
41594W        W84647  13.932  18.560  23.140  0.1284 -0.4368  0.3354
41595W        W84648  16.729   7.756  17.407  0.0919  0.0498  0.3774
41596W        W84649   5.194  26.284   3.446  0.0214  0.0624  0.1187
41597W        W84650  30.923  29.584   7.414  0.1295  0.2114 -0.1094
41598W        W84651   5.895  34.284   8.515  0.3511 -0.1302 -0.1808
41599W        W84652  23.694   2.272  27.372 -0.5102 -0.1785 -0.1480
41600W        W84653  31.277  10.645   8.494 -0.2021  0.1157 -0.0147
41601W        W84654  30.932  16.055   3.914  0.1191  0.0664  0.2560
41602W        W84655  31.167   3.085   8.922  0.0337 -0.0557 -0.0929
41603W        W84656  23.804   2.750   6.310  0.4566  0.1348  0.0119
41604W        W84657   1.156   2.903   3.711 -0.0727 -0.2495  0.0671
41605W        W84658   2.250  29.333   8.757 -0.3584 -0.0863  0.1334
41606W        W84659  19.154  10.468   2.408 -0.1586  0.0140  0.1691
41607W        W84660  24.051   6.003   2.321  0.0924 -0.1157 -0.2470
41608W        W84661   7.473   1.316   8.741  0.1440  0.1371 -0.1506
41609W        W84662  28.629   0.773   8.155 -0.0346 -0.3157  0.2432
41610W        W84663  25.788  24.325   2.024 -0.1693  0.2072 -0.2469
41611W        W84664   0.100  23.124  28.457  0.0148 -0.0935  0.0322
41612W        W84665   1.165   3.150   5.400 -0.0237  0.1053  0.0330
41613W        W84666  14.890  10.050  15.286 -0.0524 -0.2464 -0.1737
41614W        W84667   1.209  12.768  24.228  0.0796  0.0774  0.2321
41615W        W84668  30.318  14.122   3.068 -0.0806  0.1456  0.1517
41616W        W84669  30.909  15.523  20.563  0.1291  0.0919  0.2127
41617W        W84670  26.919  19.748  17.302 -0.1126  0.1170 -0.1178
41618W        W84671  27.300   8.605   8.534 -0.0519 -0.2341 -0.1852
41619W        W84672  33.143  33.003  28.379 -0.2608 -0.0338 -0.0943
41620W        W84673  25.226   9.450   9.739  0.0314 -0.0573  0.3007
41621W        W84674  25.460   9.034  17.752  0.0314  0.3003 -0.2299
41622W        W84675  11.522  10.229  21.215  0.1925  0.2280  0.0288
41623W        W84676  23.926  12.826  18.586 -0.1881 -0.0548 -0.2560
41624W        W84677  29.748  18.464   9.491  0.1394 -0.1993 -0.0294
41625W        W84678  26.487  12.644   9.433 -0.1605  0.0422 -0.0526
41626W        W84679  30.925  21.153   7.726 -0.0666  0.0375 -0.2017
41627W        W84680  21.958  34.033  24.085  0.0749  0.0057 -0.0912
41628W        W84681  23.577  27.587   0.532 -0.0110 -0.2534  0.1388
41629W        W84682  19.195   0.293  15.189  0.3587  0.1642 -0.1331
41630W        W84683  20.540  13.025  29.079  0.1101  0.2182 -0.3823
41631W        W84684  30.599  24.137  18.832  0.1991 -0.1568  0.1381
41632W        W84685  19.112   2.430   6.159  0.0955  0.1229 -0.1145
41633W        W84686   1.398   8.275   0.106 -0.2164  0.3893 -0.0392
41634W        W84687   1.255   0.238   5.033 -0.0488 -0.2346  0.0390
41635W        W84688  30.744  15.973   8.639  0.1440 -0.0530  0.2294
41636W        W84689  33.772   2.881  14.492 -0.1220 -0.2847 -0.3028
41637W        W84690   0.526  29.904  26.133 -0.0006 -0.0615  0.1230
41638W        W84691   5.662   2.336   1.803  0.3675  0.2371 -0.0288
41639W        W84692  26.324  17.811  27.216  0.1339  0.1465  0.3162
41640W        W84693  31.469  14.181   9.707 -0.0661  0.3771 -0.1230
41641W        W84694  17.222  12.085   4.396 -0.0449 -0.3193  0.1133
41642W        W84695  27.312  33.087  17.807  0.2517  0.1974  0.1873
41643W        W84696  23.685  29.913   5.159  0.1699  0.0499 -0.2779
41644W        W84697  32.473  23.004  29.005  0.2446  0.0807 -0.1963
41645W        W84698  17.794   1.805   9.348  0.0077 -0.0423  0.0354
41646W        W84699   2.144  26.008  20.844  0.1176 -0.1115 -0.1327
41647W        W84700  30.648  19.015   6.594 -0.1144 -0.1379  0.0526
41648W        W84701  20.250  18.660   3.003 -0.0136  0.0529  0.1984
41649W        W84702  16.181  20.153   7.179 -0.2874 -0.2006 -0.1616
41650W        W84703   9.005  28.388   3.093 -0.1159  0.1308 -0.1414
41651W        W84704  25.897   9.413   8.047  0.0910  0.0897  0.1245
41652W        W84705  30.072  19.198  22.073  0.0866 -0.1260 -0.1011
41653W        W84706  10.889  33.734   1.384 -0.2109  0.3299  0.1202
41654W        W84707  21.430  25.922   0.709 -0.1465  0.1290  0.2056
41655W        W84708  17.163   7.020   1.825 -0.2263 -0.2024 -0.2316
41656W        W84709  28.087  23.877  16.642 -0.5247 -0.1061 -0.2272
41657W        W84710  31.860   3.566   8.479 -0.3365  0.2909 -0.1975
41658W        W84711   4.462   6.312  25.423 -0.0994 -0.0300  0.1311
41659W        W84712  22.911  31.569   7.905  0.1108  0.2329 -0.0939
41660W        W84713  22.464   4.181  25.675  0.0181 -0.4007  0.1360
41661W        W84714   4.729  19.787  27.944  0.0000  0.0881  0.2022
41662W        W84715   0.705  30.954  24.539 -0.0017 -0.1333  0.3096
41663W        W84716  34.108   7.247  27.638 -0.3615 -0.0615 -0.1757
41664W        W84717  33.119   0.995   1.752 -0.1931 -0.1880  0.1063
41665W        W84718   1.567  10.811   3.661 -0.1874 -0.1127  0.0781
41666W        W84719  28.255  10.904  17.443  0.0556  0.0812  0.2679
41667W        W84720  14.455   5.430  28.726 -0.3245 -0.2946  0.0670
41668W        W84721  27.403   7.148   0.768  0.0754 -0.0976 -0.3198
41669W        W84722  29.460  28.925  25.827 -0.0912 -0.1033  0.1745
41670W        W84723   6.269   3.412   2.768  0.1196  0.2279  0.1936
41671W        W84724  10.258  32.494  27.564 -0.0180  0.4013 -0.1713
41672W        W84725  14.463   1.337   7.869 -0.1046 -0.0846 -0.0833
41673W        W84726   1.124  14.730   0.710  0.0018  0.0651 -0.0340
41674W        W84727   5.429  27.182   7.408  0.0618 -0.3767  0.0147
41675W        W84728  22.704   0.098  17.588 -0.2580 -0.4843 -0.0413
41676W        W84729  23.107   1.228  28.202  0.1030  0.0517 -0.1271
41677W        W84730  26.996  11.954   8.779 -0.0082 -0.4396 -0.1510
41678W        W84731  32.407  16.435   5.031 -0.0818 -0.2109 -0.1025
41679W        W84732   4.853   4.243  18.334 -0.0890 -0.1148  0.0314
41680W        W84733  21.511   0.983  20.277 -0.1740 -0.1480 -0.0503
41681W        W84734  31.586  19.862  21.517 -0.3237 -0.2699 -0.1578
41682W        W84735   1.832  31.039  24.414 -0.0988 -0.0596  0.3726
41683W        W84736  28.157  27.738   7.122 -0.3294 -0.2313 -0.2829
41684W        W84737  29.059  30.945  24.371 -0.0256  0.1630  0.0310
41685W        W84738  25.974   7.969   5.246 -0.2288  0.3819 -0.0810
41686W        W84739   2.876   3.445  25.217 -0.0953 -0.0633  0.2166
41687W        W84740   0.515  31.161  29.168 -0.0248 -0.0232  0.2932
41688W        W84741  30.506   5.473   0.132 -0.1119 -0.1523 -0.1780
41689W        W84742  28.880  12.515   7.435  0.1857  0.1328  0.0161
41690W        W84743   2.847  20.185  28.641  0.0898  0.1371  0.1420
41691W        W84744   0.396  34.184   4.756 -0.2628 -0.0445  0.0344
41692W        W84745   0.866   2.181   8.723 -0.0618 -0.2147  0.1552
41693W        W84746  20.284  31.518   2.195 -0.1118 -0.0524  0.0257
41694W        W84747   8.619  26.034   1.800  0.1476 -0.1099  0.1619
41695W        W84748  25.451   6.696  25.841 -0.0628  0.2639  0.0709
41696W        W84749  31.288  12.681  18.047 -0.0761 -0.0731  0.2305
41697W        W84750  18.576  29.415  28.662  0.0955  0.0205  0.1657
41698W        W84751  29.000   0.227  23.292 -0.0306  0.2142 -0.1965
41699W        W84752  24.619   4.314  28.443  0.2362  0.3351 -0.0488
41700W        W84753  30.017  16.512   9.927 -0.0205  0.0428 -0.1003
41701W        W84754  32.144  17.662   7.506  0.1522 -0.1497  0.1387
41702W        W84755  34.280   3.622  27.626 -0.0978 -0.0280 -0.2976
41703W        W84756  22.985   9.039   8.708  0.0681  0.0176 -0.1356
41704W        W84757  26.626  28.950  16.883  0.2214 -0.0792  0.1375
41705W        W84758  13.120  24.291  21.743  0.0686  0.1380 -0.0972
41706W        W84759  31.028  16.675  24.967  0.0822 -0.3783 -0.0870
41707W        W84760  31.922   3.646  27.320 -0.0480 -0.1073 -0.0180
41708W        W84761  19.397   7.321   9.282  0.2319 -0.0616 -0.2815
41709W        W84762  21.276  12.858  20.356 -0.2419 -0.3310 -0.2177
41710W        W84763   3.971   1.037   8.624  0.1458  0.2120 -0.0960
41711W        W84764  21.794  10.265   6.123  0.0033 -0.1301  0.0936
41712W        W84765   7.440  13.157  27.405 -0.0304 -0.2315  0.2362
41713W        W84766  29.990   5.203   9.938  0.2358 -0.0670  0.1221
41714W        W84767  27.535   5.021  23.340 -0.0307  0.2779 -0.1105
41715W        W84768  30.829   6.084  27.356  0.0608 -0.1250  0.0486
41716W        W84769   8.263  18.408   7.366 -0.4837 -0.0647 -0.1162
41717W        W84770   9.168   1.997   5.246  0.1016  0.0051  0.2838
41718W        W84771  28.749   1.703  22.699  0.0785  0.1409 -0.0070
41719W        W84772   4.383  32.480  19.321  0.0996 -0.2701 -0.0360
41720W        W84773  25.078   9.643   0.970 -0.1611  0.1416 -0.2672
41721W        W84774  32.874  32.203   6.870 -0.1082  0.0717 -0.3249
41722W        W84775  25.928  30.614  19.712 -0.0427 -0.0875 -0.1469
41723W        W84776   4.769  34.077   2.449  0.1949 -0.1154 -0.1552
41724W        W84777   2.078  28.002  19.526 -0.4682  0.0915  0.1376
41725W        W84778  29.707  15.912   8.401  0.2532 -0.2030 -0.4267
41726W        W84779  29.386   0.593   2.942  0.0059 -0.0727  0.2512
41727W        W84780  18.616   9.322   8.823  0.1015  0.0816 -0.1304
41728W        W84781  28.812  11.048   5.436  0.0610 -0.0622  0.3121
41729W        W84782  32.430   0.891  22.304 -0.4592  0.0667 -0.0824
41730W        W84783  22.317  18.764   7.238 -0.2864 -0.0864  0.2194
41731W        W84784   5.391  10.245   5.089  0.0101  0.0674  0.1390
41732W        W84785  32.096   5.299  20.643  0.2528  0.0324  0.1853
41733W        W84786  26.752  18.825   5.041 -0.1645  0.1836  0.0544
41734W        W84787  21.616  13.274  18.408  0.3588  0.1653 -0.3351
41735W        W84788  12.569  29.273  25.569  0.1057  0.0672 -0.0819
41736W        W84789   0.892  28.314   5.865  0.0280  0.1293 -0.2672
41737W        W84790  19.171  14.283  15.833  0.1741 -0.0042  0.3248
41738W        W84791  34.113   5.016  23.848  0.1401  0.1911  0.0358
41739W        W84792   7.802  28.628   5.770 -0.0814  0.0098 -0.0442
41740W        W84793  14.140  26.232   3.537 -0.1873  0.1751  0.0210
41741W        W84794  22.965   4.715  21.927  0.0821  0.1997 -0.0196
41742W        W84795  12.922   7.002   2.257  0.1006  0.1055 -0.1496
41743W        W84796   7.283   4.417   6.300 -0.2563 -0.0417 -0.1296
41744W        W84797  13.393  31.229  28.532  0.1479  0.2384 -0.0307
41745W        W84798  10.567  17.355   7.731 -0.3912  0.2415  0.2387
41746W        W84799  21.761   8.622  15.188  0.1711 -0.0512  0.2033
41747W        W84800   8.895   6.629   3.607  0.3931  0.2173 -0.0368
41748W        W84801  17.587  23.325  18.018 -0.0199  0.0003 -0.1323
41749W        W84802  24.715  13.624   3.466  0.1699 -0.0956 -0.1381
41750W        W84803  25.264  15.297   6.372  0.0095  0.1511  0.0713
41751W        W84804  18.498  32.577   2.091  0.0642  0.0812 -0.2059
41752W        W84805  28.433   8.049   4.909  0.3346  0.2305  0.1882
41753W        W84806  34.559  24.233  23.598  0.1759 -0.2409 -0.0360
41754W        W84807   1.554  30.094   6.621 -0.0532  0.1533 -0.1292
41755W        W84808  30.827  23.970   4.048 -0.0822 -0.1199 -0.3662
41756W        W84809   0.991  18.421  29.170 -0.2084  0.0262  0.0699
41757W        W84810  14.334  12.450   5.032  0.1351 -0.2508  0.2356
41758W        W84811  22.799  12.724   8.762 -0.0322 -0.1684 -0.3448
41759W        W84812   6.366  32.593  27.259  0.0995 -0.0084 -0.0924
41760W        W84813  27.085  12.956   3.159  0.1542  0.2297  0.0495
41761W        W84814  25.238   9.603   9.205  0.2678 -0.1645  0.0138
41762W        W84815  20.845  30.758   1.869  0.2939  0.0679 -0.1157
41763W        W84816  17.748   6.220   3.021 -0.2762  0.0820  0.2690
41764W        W84817  24.619   1.490   4.456 -0.1010  0.1194  0.1528
41765W        W84818  14.325  27.229   9.736 -0.1865  0.0911  0.0889
41766W        W84819  27.923   5.980  26.870  0.0584  0.1113  0.0577
41767W        W84820  31.482  12.768  17.096  0.3403 -0.1580 -0.0639
41768W        W84821  11.399   5.159   1.629 -0.0170  0.0067  0.0910
41769W        W84822  26.078  31.943   5.229 -0.1150 -0.1464 -0.0632
41770W        W84823  25.147  26.689  26.405 -0.3105 -0.0993 -0.0684
41771W        W84824  29.754   6.778   6.865 -0.2127  0.3532  0.1424
41772W        W84825  28.243   2.154   7.003  0.0839  0.2988  0.2086
41773W        W84826  24.007   9.769  25.255 -0.0427  0.1235  0.1658
41774W        W84827  10.721   0.816   8.749  0.0608  0.0173  0.0394
41775W        W84828   5.883  12.250   4.006  0.2937 -0.0216  0.0253
41776W        W84829  31.441  15.185   9.985  0.1051 -0.1531 -0.0019
41777W        W84830  17.601   5.368   5.320  0.1803  0.1013  0.0233
41778W        W84831  30.821   6.485  28.187 -0.0689 -0.2293  0.3099
41779W        W84832   2.958  14.690   4.482 -0.0745  0.0204 -0.3710
41780W        W84833  25.845  29.318   7.214  0.1727 -0.4216 -0.1104
41781W        W84834  22.054  15.125  23.118 -0.0586 -0.2093 -0.2168
41782W        W84835  21.093   9.601  19.904 -0.4104 -0.4278 -0.0680
41783W        W84836  33.378   2.783  19.193  0.1243 -0.4731 -0.1055
41784W        W84837   0.803  25.815   3.872 -0.0941  0.0178 -0.0160
41785W        W84838  17.206  16.385  24.539  0.1401 -0.2671 -0.2889
41786W        W84839   4.242  13.152   2.504  0.0878  0.1383 -0.1348
41787W        W84840   3.996  33.334   2.270  0.2303 -0.0892 -0.1375
41788W        W84841  25.494  29.321   5.356 -0.0205  0.1584 -0.0452
41789W        W84842  21.040  17.263   3.398 -0.4410  0.1170 -0.0392
41790W        W84843   7.405  31.751   8.555 -0.0243  0.2256 -0.1229
41791W        W84844  19.146  24.791   2.184  0.2376  0.1130 -0.2609
41792W        W84845  12.186   6.050  23.297  0.2607 -0.3627 -0.0281
41793W        W84846  22.090   6.450   5.856 -0.2001 -0.0116  0.1533
41794W        W84847   0.890   8.369  23.819 -0.0610 -0.2227 -0.2047
41795W        W84848   3.885   7.469   5.614  0.2388  0.1109  0.0250
41796W        W84849  23.407   6.275  23.058 -0.1451 -0.0379 -0.0265
41797W        W84850  24.280   9.567   9.440  0.0018  0.0651  0.2672
41798W        W84851  25.613  10.087  27.361  0.1083 -0.0169 -0.0060
41799W        W84852  20.969  33.777  24.308 -0.0364 -0.1825 -0.2355
41800W        W84853  31.949  33.378  19.534 -0.2648 -0.4092  0.2796
41801W        W84854  25.319  15.471   5.899 -0.2138 -0.2499  0.1115
41802W        W84855   5.670  33.733   1.969  0.1207  0.0338  0.0872
41803W        W84856  33.993  33.231  24.485 -0.0453 -0.3624  0.2282
41804W        W84857  10.161  31.799   8.145  0.1406  0.2235 -0.0331
41805W        W84858  29.403  12.272   4.858  0.0119  0.2242  0.1278
41806W        W84859  33.040   7.458   3.729  0.0206  0.2230 -0.4589
41807W        W84860   2.941   0.748   3.943 -0.2349  0.0245  0.0234
41808W        W84861  20.658   5.378   2.924  0.2030  0.0685  0.1833
41809W        W84862   0.719  24.311   3.296 -0.0429 -0.2785  0.0725
41810W        W84863   1.963   9.382   7.566  0.2141 -0.0930 -0.1536
41811W        W84864  12.172  30.112   6.238  0.0221 -0.1214  0.0491
41812W        W84865  27.453  29.490   3.648  0.0416 -0.1145  0.0401
41813W        W84866  19.161  14.673   2.423  0.0724  0.2156  0.3694
41814W        W84867  24.402  19.439  20.656  0.1557 -0.5395  0.3065
41815W        W84868  28.285   3.120   6.037  0.1274 -0.2238 -0.2604
41816W        W84869   5.757   8.493   5.547 -0.0522 -0.1699 -0.1011
41817W        W84870  33.115  10.987  24.050  0.0648  0.0210 -0.3659
41818W        W84871  25.089  22.956   6.689 -0.0478  0.0569  0.1274
41819W        W84872  17.334   5.036   7.892  0.0914  0.1508 -0.0357
41820W        W84873  23.019   6.368  28.900  0.2069 -0.0679  0.1250
41821W        W84874  15.420   4.259  10.429 -0.0017  0.0415  0.1567
41822W        W84875  28.853   0.878  17.160  0.0934  0.0055  0.1206
41823W        W84876   5.373  29.757   5.423 -0.1454  0.2994 -0.0599
41824W        W84877   1.504  25.025   5.552 -0.4406  0.0553  0.1005
41825W        W84878   2.148  10.863  25.332  0.0302 -0.0120 -0.3028
41826W        W84879   7.285   9.810   1.265 -0.1700 -0.0920  0.2125
41827W        W84880   6.492  19.176   5.511 -0.3441  0.2191  0.0014
41828W        W84881  19.015   4.901  26.628 -0.0885 -0.0627 -0.1807
41829W        W84882  29.480  23.020   0.698 -0.2972 -0.2797  0.0144
41830W        W84883  14.535  11.092   7.886 -0.3242  0.0049  0.2275
41831W        W84884  21.426   2.313  10.580  0.2174 -0.0083 -0.1127
41832W        W84885   4.861   6.759   8.863 -0.0722  0.1183  0.0520
41833W        W84886  15.255   2.670   5.553 -0.1098  0.2536  0.1860
41834W        W84887  21.776   4.493  28.229 -0.0881  0.1106  0.0850
41835W        W84888  12.957  16.835   8.929 -0.1076  0.1863 -0.1953
41836W        W84889  32.760  18.573   8.510  0.1444  0.0030 -0.3421
41837W        W84890   2.202   3.119  21.883  0.0531 -0.0098 -0.0544
41838W        W84891  33.025  32.217  24.338 -0.0376 -0.1906  0.1105
41839W        W84892   9.197   2.292   7.064  0.0581 -0.0201  0.1319
41840W        W84893  30.609   9.615   7.947 -0.0262  0.1493 -0.0507
41841W        W84894   9.827  23.495   1.895 -0.1319 -0.0281 -0.0114
41842W        W84895  11.095  28.934  27.570 -0.0290  0.1153  0.2480
41843W        W84896  34.651   8.488   4.982 -0.1506 -0.1572 -0.2600
41844W        W84897   0.146  34.125   8.652  0.0984 -0.0095  0.1156
41845W        W84898  26.016   7.173  28.410 -0.3289 -0.0900  0.1679
41846W        W84899  26.002   8.892   0.284 -0.4146  0.2378  0.0649
41847W        W84900  18.713   6.378  27.687  0.0718 -0.3228 -0.1034
41848W        W84901  30.368  31.110   4.862 -0.8565  0.1499 -0.0489
41849W        W84902  32.331  12.272   7.558 -0.0503  0.2125  0.1008
41850W        W84903  33.510   1.676  23.639  0.0138 -0.3942 -0.2207
41851W        W84904   7.055  13.536  21.882  0.2593 -0.2525  0.0079
41852W        W84905  15.416   5.402  21.915  0.1456 -0.1652  0.0864
41853W        W84906  33.564   3.878   7.682 -0.2918  0.0012  0.3154
41854W        W84907  21.549  32.286  25.660 -0.0225 -0.0627 -0.0075
41855W        W84908   1.065   1.482   4.172  0.0057  0.1005  0.3919
41856W        W84909  22.017   5.695   8.152  0.1100 -0.3508  0.0229
41857W        W84910  27.675   9.448  18.979  0.0542  0.3047 -0.0527
41858W        W84911  13.356  19.098   6.355 -0.0531 -0.2392  0.0224
41859W        W84912  20.490   4.970   5.487  0.1776 -0.1387  0.1055
41860W        W84913   5.622  19.534   8.005  0.1596 -0.1526  0.0460
41861W        W84914  31.527   4.848  28.196  0.0397 -0.0096 -0.0723
41862W        W84915  16.919   7.906   0.389  0.1336  0.1277  0.0594
41863W        W84916  29.180  12.804  27.750 -0.2049 -0.0004  0.2782
41864W        W84917   8.633  19.508   6.349 -0.3398  0.0050 -0.0300
41865W        W84918  24.282  33.187   6.487 -0.1351  0.3180  0.0259
41866W        W84919   6.067  18.956   8.386 -0.1141  0.0830 -0.3176
41867W        W84920  27.836  29.121   8.187 -0.1863  0.0647 -0.1028
41868W        W84921  25.373  15.198  27.525  0.2257 -0.1419 -0.8108
41869W        W84922  24.344  10.923   6.905  0.0079 -0.3066 -0.3362
41870W        W84923  32.351  23.831  28.363  0.3128 -0.0627  0.0236
41871W        W84924   5.448  10.911  27.758 -0.1479 -0.2090 -0.1143
41872W        W84925  18.430  10.689  28.957 -0.3166  0.1713 -0.3255
41873W        W84926   6.950   1.321  25.394  0.1725 -0.0125  0.2765
41874W        W84927  25.244   6.420   9.420  0.3385 -0.5036  0.0837
41875W        W84928  31.440  30.373   8.261 -0.0201  0.0219 -0.3035
41876W        W84929   4.621  12.626  25.666 -0.0778  0.1198 -0.1914
41877W        W84930  23.860   9.695  27.221  0.0368  0.1201  0.1677
41878W        W84931  30.268  15.651   7.485 -0.1320  0.0512  0.1816
41879W        W84932  13.123  30.410   0.902 -0.1344 -0.2153  0.2140
41880W        W84933  29.953  22.548   0.550  0.4819 -0.3161 -0.2085
41881W        W84934  22.726   6.785  18.672  0.0507  0.4483 -0.1127
41882W        W84935  33.144   0.118   5.973  0.0111  0.2777  0.2210
41883W        W84936  30.470  21.947   8.528 -0.3141  0.1868  0.3945
41884W        W84937  26.138  17.311  19.570  0.2082  0.2720 -0.0252
41885W        W84938  28.168   5.219   6.084 -0.3116  0.0886  0.1151
41886W        W84939  28.688  10.623   9.955 -0.1420  0.0494  0.0971
41887W        W84940  18.681  25.177   4.505  0.1581 -0.3716  0.2169
41888W        W84941  27.899  26.026   3.834  0.1550  0.1884  0.3212
41889W        W84942  19.494  18.311  24.051  0.1328  0.1526 -0.1430
41890W        W84943  18.535  15.801  25.750 -0.3670 -0.1195  0.0965
41891W        W84944  26.665   4.707   9.436 -0.3624  0.4438  0.1621
41892W        W84945  14.419  15.264   1.139  0.2709  0.1677 -0.1382
41893W        W84946   3.889   7.117  24.171  0.0287 -0.0096 -0.1355
41894W        W84947   3.846  18.350  29.186  0.1664 -0.2220 -0.2361
41895W        W84948   3.806   4.624   3.824 -0.2219 -0.1421 -0.0528
41896W        W84949   0.442   6.452   8.590  0.2236 -0.0334 -0.2521
41897W        W84950  16.110  25.025   4.083 -0.0353  0.5550 -0.0072
41898W        W84951  30.115   9.618  26.622 -0.0250  0.1541 -0.0957
41899W        W84952  17.978  18.202   7.306 -0.1768  0.0189  0.0201
41900W        W84953   4.294   9.380  23.186  0.0014 -0.0726  0.0571
41901W        W84954  32.051  29.117   0.392  0.2324 -0.0623 -0.1337
41902W        W84955   1.557  26.661   8.959  0.0067  0.2271 -0.1237
41903W        W84956  27.141  22.637  25.116 -0.0093  0.4064  0.1794
41904W        W84957  27.443  24.294   5.305 -0.1519  0.2422 -0.0638
41905W        W84958  29.026   8.964  20.817  0.0528 -0.1771  0.0052
41906W        W84959  22.327  32.076   1.143 -0.0444  0.0311  0.3250
41907W        W84960  33.929  14.628   6.782 -0.0464  0.1224  0.1422
41908W        W84961  23.806  30.115   1.939 -0.3333 -0.1245 -0.2105
41909W        W84962  26.673  27.070  19.264 -0.0353 -0.1867 -0.0136
41910W        W84963  19.189  24.571   6.455  0.1354 -0.0099  0.0954
41911W        W84964  14.826  31.740   2.396 -0.1920  0.2982 -0.0448
41912W        W84965  21.304  32.141  27.868  0.0931 -0.0432  0.0141
41913W        W84966  10.987  26.121   6.454 -0.1740  0.2594  0.1526
41914W        W84967  34.273  34.305   6.446  0.0122 -0.2745 -0.3107
41915W        W84968  16.472  11.865  26.634 -0.1834  0.0617  0.0703
41916W        W84969  25.546  31.386   3.922 -0.1192 -0.0102  0.1570
41917W        W84970   9.708   5.217   5.860 -0.1552  0.1541  0.1036
41918W        W84971  24.847   6.316  18.458  0.0388 -0.1178  0.2536
41919W        W84972  32.945   5.072   9.263 -0.1292  0.0477  0.0827
41920W        W84973  28.748   9.833  23.244  0.0569  0.0603  0.5219
41921W        W84974  33.480  12.203   9.801 -0.1687 -0.1501 -0.0042
41922W        W84975  19.290  13.704   4.321 -0.1822  0.4014  0.2337
41923W        W84976  27.508  19.309   8.273  0.0927  0.0468 -0.1582
41924W        W84977  27.818   1.071  28.030 -0.0185 -0.0685 -0.0006
41925W        W84978  31.286  34.536   3.171  0.2341  0.0745 -0.0407
41926W        W84979   7.881  31.217   6.345  0.0136  0.1392 -0.3774
41927W        W84980  26.871   4.371  17.933 -0.0500  0.3223 -0.1553
41928W        W84981  27.901   7.606   6.541  0.0338  0.1755 -0.0380
41929W        W84982  30.109  34.051  24.197 -0.0628 -0.0148 -0.1943
41930W        W84983   5.234  28.064  22.750  0.3127 -0.1246  0.0651
41931W        W84984  11.236   1.809   6.330  0.2363 -0.1832  0.1124
41932W        W84985  31.807  19.771  26.183  0.0543 -0.2641 -0.1107
41933W        W84986  22.380   0.222  22.363  0.0309 -0.0464  0.2725
41934W        W84987  23.779  15.827  15.250 -0.0688 -0.0881  0.1253
41935W        W84988   5.569   2.974   9.171  0.0592  0.1594 -0.0877
41936W        W84989   0.040   7.453   7.389  0.1455 -0.1952  0.1850
41937W        W84990  34.081  18.351  25.035 -0.2997  0.1291 -0.1538
41938W        W84991   0.345  31.145   8.283 -0.1138 -0.0172  0.0439
41939W        W84992  20.890   8.387  28.282  0.0809 -0.1132  0.0803
41940W        W84993   2.479  29.092   2.615  0.2362  0.0734  0.1984
41941W        W84994  30.952  11.139   3.839  0.2476 -0.4101  0.0497
41942W        W84995  23.198   2.373   6.086  0.2464  0.1142  0.3254
41943W        W84996  21.220  21.149   3.595 -0.2094 -0.0351  0.0277
41944W        W84997  29.880   0.860   8.735  0.1324  0.1877 -0.3887
41945W        W84998  22.144  24.620  21.111  0.1945  0.0812 -0.3996
41946W        W84999  10.063  34.512   7.601 -0.3226 -0.0532 -0.0026
41947W        W85000  32.340  20.773   2.623 -0.1407  0.0064 -0.0850
41948W        W85001  30.977   8.566   8.057 -0.0867  0.0248 -0.2383
41949W        W85002  13.954  16.251  28.796 -0.1482 -0.0035 -0.0020
41950W        W85003  34.537  15.008   3.658 -0.0401  0.0031 -0.0312
41951W        W85004   0.197  30.334   7.895 -0.0189 -0.1986 -0.0388
41952W        W85005  34.253  14.183   5.035 -0.0059  0.0562 -0.2218
41953W        W85006  27.095   7.201   7.507  0.1005 -0.0212  0.0047
41954W        W85007   2.305   3.658   8.985 -0.0978 -0.1393  0.0282
41955W        W85008   5.994   4.393   6.451  0.1929  0.0531  0.0396
41956W        W85009  27.023  15.235   6.883  0.1163  0.0820  0.0250
41957W        W85010  25.560  19.751   2.205 -0.2735 -0.1220  0.3270
41958W        W85011  31.268   7.608   7.146 -0.1989  0.2265 -0.0569
41959W        W85012   2.834   1.866   3.683  0.0275  0.0365  0.2704
41960W        W85013   9.631  31.553   3.224 -0.1728 -0.2732 -0.0815
41961W        W85014  18.156   7.507  25.366  0.2182 -0.0613  0.1645
41962W        W85015  26.872   7.167   9.875 -0.1883 -0.0806 -0.0227
41963W        W85016  23.865  31.035   3.020  0.1226 -0.1348  0.3160
41964W        W85017  19.107   2.450   3.934  0.0983  0.0786  0.1845
41965W        W85018  28.089   3.226   2.352 -0.1792  0.1746  0.1328
41966W        W85019   6.108  11.743  27.097 -0.1323  0.0240 -0.1423
41967W        W85020  24.101  25.368   9.568  0.2752  0.2443  0.0261
41968W        W85021   3.304  23.698  28.866  0.0477  0.3016 -0.0382
41969W        W85022  13.967  33.944   1.653 -0.1560  0.2061  0.1245
41970W        W85023  24.008   3.462   7.516 -0.0535 -0.0523  0.2575
41971W        W85024   3.925   1.812  28.605 -0.2571 -0.0442  0.0264
41972W        W85025  26.305   3.123   7.774 -0.3948  0.2203  0.0406
41973W        W85026  23.772  28.488   1.905 -0.2132 -0.1299 -0.0970
41974W        W85027  27.614  33.359   7.716 -0.0145 -0.0203 -0.0668
41975W        W85028  19.557   0.751   9.539  0.0052  0.3300  0.3282
41976W        W85029  30.221  16.735  25.935  0.3403  0.1379  0.1395
41977W        W85030   0.645   9.576   5.180  0.1519 -0.0134  0.0478
41978W        W85031  22.161  21.878  20.086  0.1937  0.1664 -0.3102
41979W        W85032  19.236  28.111   1.478 -0.0615  0.2159  0.2369
41980W        W85033  23.150  20.827   4.466 -0.3004  0.0414 -0.1038
41981W        W85034   7.387   0.251   7.037 -0.2199  0.0458  0.0200
41982W        W85035  28.726  11.703   5.457 -0.0072 -0.0042  0.2968
41983W        W85036  13.454  10.210  10.583 -0.0837 -0.0560 -0.2318
41984W        W85037   0.669  10.604   0.259  0.0227 -0.2315 -0.0325
41985W        W85038  23.514  27.759   8.593  0.0114 -0.0251 -0.1653
41986W        W85039  14.989  25.483   6.968 -0.1704 -0.0149 -0.1988
41987W        W85040  26.982  33.373   0.468  0.1541 -0.0500 -0.4202
41988W        W85041  31.152  31.497  26.154  0.2138  0.0055 -0.0222
41989W        W85042  12.081  19.467   2.057 -0.0621 -0.1370 -0.2759
41990W        W85043  34.007  19.884   0.510 -0.0658 -0.3157  0.0409
41991W        W85044  30.207   8.365   3.847 -0.2297 -0.2986 -0.0549
41992W        W85045   0.622   6.626   3.159  0.1015  0.1259  0.1265
41993W        W85046  23.910  16.335  27.840  0.0062 -0.2543 -0.0132
41994W        W85047   7.509   6.546   3.094  0.0943  0.0376  0.1342
41995W        W85048  29.349  13.155  22.575  0.0935  0.0333  0.0383
41996W        W85049  24.517  10.496   4.784 -0.2023  0.1293  0.0464
41997W        W85050   5.099  11.796   3.523  0.0475  0.0059  0.4169
41998W        W85051  26.736  30.704   7.594  0.0214 -0.1311 -0.1051
41999W        W85052  23.256   3.146   5.521 -0.1116 -0.0716  0.3814
42000W        W85053   4.438  34.571  22.213  0.2955 -0.1308  0.2513
42001W        W85054  28.356  10.930  15.018 -0.1557 -0.0297 -0.0286
42002W        W85055  27.456   9.410   3.223 -0.0830  0.2052 -0.1579
42003W        W85056  29.455   2.985   8.644  0.2632 -0.1202  0.3142
42004W        W85057  22.014   1.852   6.461 -0.0736 -0.3023 -0.0536
42005W        W85058  26.149   0.537  26.713  0.2700  0.1154 -0.1132
42006W        W85059  23.403  18.895   7.870 -0.1649 -0.0691  0.0029
42007W        W85060  34.091   4.694   6.450  0.0755 -0.1741  0.1602
42008W        W85061  10.792   1.553   5.394  0.1085 -0.3165  0.2621
42009W        W85062  32.921  11.886   2.118  0.2006  0.1230 -0.2750
42010W        W85063  26.841   7.610   5.426 -0.0671 -0.1924 -0.3145
42011W        W85064   1.702   0.949   6.974 -0.2772  0.1885  0.0109
42012W        W85065  21.839   9.838   8.449 -0.2432  0.0018  0.0917
42013W        W85066  26.084  11.624  24.639  0.0341 -0.2324 -0.2516
42014W        W85067  18.044   4.982   1.795  0.0552 -0.2166 -0.0454
42015W        W85068  26.627  31.638  10.035  0.3459  0.1544 -0.1069
42016W        W85069  13.489  13.181   3.445  0.4249  0.1322  0.1702
42017W        W85070  31.609   9.084   5.419 -0.1465  0.1095  0.0721
42018W        W85071  10.275   4.579   9.768 -0.1791  0.0188 -0.4851
42019W        W85072  16.447  10.139   8.754  0.2860 -0.0352 -0.1997
42020W        W85073  17.876  10.181  24.726  0.1764  0.1177 -0.1544
42021W        W85074  23.168  25.465  25.082 -0.0299 -0.1890 -0.2476
42022W        W85075  31.310  29.975  22.567 -0.0329 -0.1724  0.0631
42023W        W85076  29.988  10.023   3.560  0.1820  0.0325  0.1312
42024W        W85077  25.979   2.823   8.136 -0.1527 -0.1938 -0.0155
42025W        W85078  26.563  32.464   0.034 -0.1172  0.1811 -0.0647
42026W        W85079  19.065   8.593  28.319  0.0896 -0.0087  0.2076
42027W        W85080  20.046   6.130   4.191 -0.0986 -0.3183 -0.1880
42028W        W85081   3.100  33.862  22.924 -0.0430  0.3052  0.1417
42029W        W85082  21.484   7.037   6.034  0.0405  0.4393 -0.0677
42030W        W85083  20.733  11.575   8.465  0.2263  0.1246 -0.0257
42031W        W85084  30.393  29.048   1.137  0.4709  0.1171  0.0620
42032W        W85085  10.823  12.436   5.173  0.1328  0.0482  0.1795
42033W        W85086  32.883  16.410  25.140  0.0042  0.1807  0.0579
42034W        W85087  33.478  16.287   7.395  0.0848 -0.0282  0.1383
42035W        W85088  27.053  12.020  27.458  0.3580 -0.4197  0.0957
42036W        W85089  18.036  15.897  24.421 -0.3150  0.2434  0.2992
42037W        W85090  15.681  25.840   4.810  0.1834  0.1552  0.0252
42038W        W85091   6.591  28.712   5.137  0.2472 -0.0486  0.0308
42039W        W85092   1.785  34.504  28.514 -0.0076 -0.1007  0.2476
42040W        W85093  21.313   9.406   2.313 -0.0991 -0.0434 -0.0284
42041W        W85094   6.731   9.511   4.348  0.0328  0.1988  0.2306
42042W        W85095   0.653   7.966  23.998  0.0657 -0.1460  0.2072
42043W        W85096  25.318   9.753  23.120 -0.2023 -0.1543 -0.1526
42044W        W85097  24.232  27.593   1.489 -0.1567  0.0395 -0.0120
42045W        W85098  17.940  33.741  19.181  0.1141  0.1546 -0.1785
42046W        W85099   5.699  31.935   6.470 -0.2278  0.0978 -0.1596
42047W        W85100  33.160  31.416   6.157 -0.1996  0.1504 -0.2403
42048W        W85101  26.140  14.986   7.601  0.0964 -0.1912  0.1142
42049W        W85102   2.584  13.184   1.208  0.2453  0.1813  0.1280
42050W        W85103  26.216  23.457  26.736  0.2578 -0.2643  0.4498
42051W        W85104   4.233  32.600  24.074  0.2083  0.0508 -0.2429
42052W        W85105  30.073  13.151   2.137 -0.1247  0.0848 -0.2857
42053W        W85106  14.410  23.780  10.443  0.1358 -0.0525  0.1685
42054W        W85107  29.717   5.875   6.385 -0.2532  0.1296 -0.1664
42055W        W85108  25.353  34.206   8.952  0.1162  0.0310 -0.1808
42056W        W85109   9.844  29.449  25.659 -0.1475 -0.3059 -0.1255
42057W        W85110  26.488  30.182   7.525 -0.0687 -0.1907  0.1537
42058W        W85111  15.309   4.040  23.048  0.3942 -0.0390 -0.1264
42059W        W85112  22.714   4.683   1.601 -0.0078 -0.3726 -0.3150
42060W        W85113  34.366  33.943   7.636  0.1268 -0.1961 -0.0844
42061W        W85114  29.973   4.384  27.483  0.0465 -0.2561  0.3393
42062W        W85115   0.706  27.479  29.016 -0.1091  0.0030 -0.0905
42063W        W85116  23.327  14.072  21.184 -0.2767  0.1792  0.0365
42064W        W85117   6.026  32.065  22.280 -0.1191 -0.0566 -0.1716
42065W        W85118   1.575   9.314   8.916  0.0342  0.2026  0.4976
42066W        W85119   9.986  27.099  29.103  0.2485  0.0259 -0.0282
42067W        W85120  29.615  33.752  19.299 -0.0999  0.0609  0.2402
42068W        W85121  10.477  18.653  29.090 -0.0655 -0.0747  0.1930
42069W        W85122   8.249  26.488  25.052 -0.2770  0.2454 -0.1322
42070W        W85123  25.018  16.928   4.852  0.2616  0.2065 -0.5286
42071W        W85124  10.702  19.438   2.145 -0.0196 -0.0085 -0.2789
42072W        W85125  13.650  11.563   2.811  0.0983  0.0386 -0.0200
42073W        W85126   7.287   5.107   6.788  0.0238 -0.3742  0.3294
42074W        W85127  28.352   3.892   3.337 -0.3241 -0.0950  0.3588
42075W        W85128  25.125  23.771  23.958  0.0658  0.1007 -0.4008
42076W        W85129  28.741  11.001  17.601  0.3308  0.3198 -0.1709
42077W        W85130  23.994  25.882  26.456 -0.0117  0.3656  0.0652
42078W        W85131  14.644   9.502   1.405  0.3289  0.1531  0.0474
42079W        W85132  15.102   3.634   8.823  0.0437  0.2872  0.0461
42080W        W85133   3.641   8.447   7.189 -0.0037 -0.1184 -0.0072
42081W        W85134  19.221   5.185   7.221 -0.1331  0.2039  0.2181
42082W        W85135  31.774  14.217   5.160 -0.3721  0.2799 -0.1341
42083W        W85136  22.193  28.589   4.917 -0.1856  0.1288  0.1584
42084W        W85137   3.046   8.445   1.227 -0.2334 -0.1602 -0.2606
42085W        W85138  16.706  14.129   2.721  0.2120  0.1650 -0.0496
42086W        W85139  29.318   1.519   9.435  0.1677 -0.3098 -0.2729
42087W        W85140  29.464  15.941  26.300 -0.3620  0.1152  0.0163
42088W        W85141  32.268  30.351   5.041 -0.1767 -0.0081 -0.1455
42089W        W85142  29.202   9.597   6.257  0.0046  0.0789  0.2852
42090W        W85143  18.688  18.166   5.175 -0.0965 -0.0788 -0.0813
42091W        W85144  31.001   2.928  26.073 -0.3960 -0.2289  0.0344
42092W        W85145  22.900  33.883  25.996 -0.4272 -0.0463  0.0635
42093W        W85146   2.650  33.204  23.366  0.0104  0.2045 -0.1062
42094W        W85147  28.160   7.226  17.172  0.2263 -0.2116  0.2310
42095W        W85148  11.373  23.328   9.567 -0.0779  0.1841 -0.0316
42096W        W85149  30.446  10.856  22.878  0.3624  0.2959  0.2466
42097W        W85150  33.379  32.986   5.674 -0.1543 -0.0223 -0.1695
42098W        W85151  15.581  10.362   4.442  0.1001  0.4678 -0.1275
42099W        W85152  15.429  30.202   8.505 -0.0484 -0.1217  0.0332
42100W        W85153  31.559   7.081  15.233  0.0924  0.0405  0.0104
42101W        W85154   3.484   8.185   3.685 -0.1315 -0.2320  0.1616
42102W        W85155  33.155  32.640  26.684  0.5432  0.2882  0.0916
42103W        W85156  34.519  13.499  25.568 -0.2671 -0.0662  0.0878
42104W        W85157  22.799  17.283  27.497 -0.3117  0.2441  0.0477
42105W        W85158  26.374  22.074   4.827 -0.0304 -0.0335  0.2963
42106W        W85159   0.650  21.275  21.540 -0.0267 -0.1176 -0.0586
42107W        W85160  16.737  13.176  10.211 -0.0561  0.0749  0.3212
42108W        W85161   0.810   7.578   0.757 -0.0465  0.1886  0.0459
42109W        W85162   5.251  27.420   2.039  0.1312  0.1973 -0.0913
42110W        W85163  18.758   7.010  27.101 -0.0228 -0.1805 -0.2123
42111W        W85164  14.795  24.130  28.418  0.0240  0.0877  0.0328
42112W        W85165  11.382   0.725   9.513  0.0124 -0.2949 -0.1576
42113W        W85166   0.581   5.557   9.918 -0.3693 -0.1633  0.1066
42114W        W85167  31.144  15.409  23.983 -0.3089  0.1293  0.0231
42115W        W85168  22.708  17.815  21.594  0.2996 -0.1782  0.3718
42116W        W85169  30.115   7.165   4.412 -0.0762  0.1179 -0.1989
42117W        W85170  21.953   8.692   4.855 -0.1121  0.0672  0.2398
42118W        W85171   1.186  30.824   5.422 -0.0702 -0.0594 -0.0317
42119W        W85172  28.080  31.370   9.220 -0.1714 -0.3688  0.3883
42120W        W85173  18.255  24.823   1.288 -0.3797 -0.1129 -0.1559
42121W        W85174  26.849   6.166  28.000 -0.1064  0.0765 -0.2803
42122W        W85175  11.358   4.204   3.796 -0.2233  0.1151 -0.1443
42123W        W85176  26.195  20.163  18.705 -0.3232 -0.0009 -0.3044
42124W        W85177  30.839  28.507   7.332  0.3130 -0.1247 -0.2869
42125W        W85178   2.611  18.113  19.506 -0.0194  0.1097 -0.1359
42126W        W85179  32.351  20.231   6.903 -0.1720  0.1678  0.1098
42127W        W85180   0.358   2.850  22.551  0.0287  0.0460 -0.2158
42128W        W85181  25.004   2.287   9.202  0.2045  0.2560 -0.1621
42129W        W85182  29.953  29.058   3.524 -0.0893  0.0281 -0.0087
42130W        W85183  24.075  32.801   6.312 -0.1921 -0.2379 -0.0661
42131W        W85184   8.282  11.583   7.889  0.1488  0.2106  0.0133
42132W        W85185   1.527   4.554   3.302 -0.0306 -0.0328 -0.0568
42133W        W85186   6.443  13.558   3.790 -0.3251  0.0983 -0.0741
42134W        W85187  34.153   0.313  22.145 -0.0567  0.2710 -0.0949
42135W        W85188   4.145   1.588   8.245  0.1915 -0.0918  0.0772
42136W        W85189   0.944  10.132   3.847 -0.0597  0.3795  0.0946
42137W        W85190  22.692   9.879   7.637 -0.0492 -0.1188  0.0505
42138W        W85191  33.657   3.417   3.704  0.1865  0.3820 -0.1648
42139W        W85192   4.188   1.591   6.742 -0.2598 -0.3856 -0.2193
42140W        W85193  34.164   3.704   2.989 -0.2208  0.0398 -0.0837
42141W        W85194  23.139  16.250  19.643  0.0597 -0.1034 -0.1441
42142W        W85195  26.850  26.137   1.069 -0.2241 -0.0293 -0.0239
42143W        W85196  29.334  15.883  19.131  0.1668  0.1382  0.1392
42144W        W85197  16.185  16.736   7.750  0.0170  0.0952 -0.0895
42145W        W85198  23.967  12.842   8.257 -0.0054 -0.3681  0.0258
42146W        W85199  32.117   1.909   3.647 -0.1271  0.0851  0.4521
42147W        W85200  15.270  11.127   7.398  0.0127 -0.1871 -0.0694
42148W        W85201  16.388  13.302   4.932  0.1362 -0.2402 -0.0689
42149W        W85202  29.471  23.987   8.758 -0.0466 -0.1394 -0.1647
42150W        W85203  30.812   3.810   3.523 -0.2392 -0.4019 -0.0403
42151W        W85204  31.570   0.206  25.462  0.1228  0.0238  0.0470
42152W        W85205  23.142  33.421   0.496 -0.4519 -0.0068  0.3273
42153W        W85206  21.239  11.462   3.780  0.0241  0.0921  0.2915
42154W        W85207  31.836  10.783   5.344 -0.2790  0.1521  0.1176
42155W        W85208   4.643  24.258   4.581  0.0946 -0.3383  0.2795
42156W        W85209   2.260   5.542  28.183  0.1692 -0.0544 -0.0690
42157W        W85210   7.174   0.009  10.471 -0.0424 -0.2949 -0.1894
42158W        W85211  15.625   4.287   5.797  0.0406  0.3249 -0.0450
42159W        W85212   3.577   0.638   7.824 -0.0059  0.0874  0.2505
42160W        W85213  30.786  18.357   5.203 -0.4295 -0.1254  0.0173
42161W        W85214  29.324   2.989   5.908  0.1179  0.1997 -0.0621
42162W        W85215  27.958  10.942   9.398  0.0817  0.1424  0.2786
42163W        W85216   2.557  27.535  25.292 -0.0905  0.2303  0.0582
42164W        W85217   7.616  25.999  26.993  0.0557 -0.0238  0.2221
42165W        W85218  20.019   8.385  28.434  0.0020  0.2031 -0.1425
42166W        W85219   1.698   2.048   0.680  0.3038 -0.0196  0.0336
42167W        W85220  28.659  11.744   4.912  0.0537  0.0880  0.1183
42168W        W85221  30.413  19.904   5.375 -0.4122  0.0238  0.3522
42169W        W85222  22.945   1.955   5.021 -0.0177 -0.0932  0.1229
42170W        W85223  29.026   7.501  25.424  0.1127 -0.0025  0.4225
42171W        W85224  20.110  15.088   0.073 -0.0861 -0.1047  0.0282
42172W        W85225   1.546  15.141   3.242 -0.0600 -0.0670  0.3171
42173W        W85226  16.825  15.499   3.063 -0.1903 -0.2141  0.0289
42174W        W85227  16.828   7.924  10.084  0.3512  0.1811 -0.0681
42175W        W85228  20.920  23.032   3.020 -0.2031 -0.1857 -0.1903
42176W        W85229  34.270  14.070   7.513 -0.1175 -0.3774 -0.0529
42177W        W85230  23.933   3.330   8.602 -0.0665 -0.1009 -0.0404
42178W        W85231   6.863   3.336   3.362 -0.3412  0.0906 -0.0904
42179W        W85232  27.875   1.856   1.559  0.2265 -0.0343 -0.3091
42180W        W85233  22.562   7.512   4.985  0.0316 -0.1024  0.1617
42181W        W85234   2.833   3.829   1.810  0.2276  0.0755 -0.4783
42182W        W85235  20.279  31.750   5.419  0.2928 -0.0985 -0.1526
42183W        W85236  30.520   0.882   1.144 -0.1956 -0.1771  0.1271
42184W        W85237   0.790   4.605   9.936  0.3888  0.3640 -0.0321
42185W        W85238  26.167  15.891   1.955  0.2308  0.0385 -0.2880
42186W        W85239  30.808  30.743  22.650 -0.0610  0.1488 -0.1407
42187W        W85240   2.722  32.602   0.502  0.2624  0.3475  0.1676
42188W        W85241  34.539   1.711   7.632  0.1486  0.2132  0.0712
42189W        W85242  29.933  20.177  10.323 -0.2592 -0.1567  0.0195
42190W        W85243  32.580   0.677   6.185 -0.4479 -0.0553  0.0335
42191W        W85244  33.555  31.884   7.287 -0.0335 -0.0018 -0.6961
42192W        W85245   2.690  13.858  22.275 -0.0509  0.2371  0.0460
42193W        W85246  11.565  34.133   5.695  0.2386  0.3226  0.0739
42194W        W85247  19.975  32.387   2.366  0.0331 -0.0179  0.2660
42195W        W85248   1.169   7.680   6.684  0.1758 -0.2183  0.0528
42196W        W85249   2.951  11.561   9.499 -0.0763 -0.2254  0.2889
42197W        W85250   5.482   2.070   3.335 -0.2049 -0.2199 -0.0915
42198W        W85251  31.569  14.690   4.802  0.2184 -0.2453 -0.0167
42199W        W85252  20.282  24.680   5.688 -0.4120 -0.2214 -0.2301
42200W        W85253  32.647  23.672   8.968  0.0837  0.0941  0.2878
42201W        W85254  33.747  11.284   4.078  0.2034  0.0719 -0.1827
42202W        W85255  29.220  13.860   5.195 -0.2016  0.2286  0.4181
42203W        W85256   1.960  20.087   4.756  0.2371  0.5325 -0.2887
42204W        W85257  27.963   7.998   6.205  0.0866 -0.1693  0.1716
42205W        W85258   0.958  25.392   2.513 -0.0194 -0.1838  0.1117
42206W        W85259  20.563  27.374   1.396  0.0550  0.1107 -0.0076
42207W        W85260  22.375   2.066   8.291 -0.0674  0.0149 -0.2050
42208W        W85261   9.550   7.786   9.903 -0.0263 -0.0712  0.0635
42209W        W85262  26.140  13.937  26.663 -0.3186  0.1461  0.0001
42210W        W85263  27.714   2.545   7.420 -0.1809  0.0534 -0.1697
42211W        W85264   0.276  31.224   9.544 -0.2175  0.0412  0.1056
42212W        W85265   3.469  10.324  20.243  0.1591  0.6696 -0.0095
42213W        W85266  10.029  12.485   8.239 -0.1788  0.0070  0.2268
42214W        W85267  32.812  20.342   4.404 -0.1064 -0.0409  0.1865
42215W        W85268  30.270   3.035   1.130  0.0691  0.1159  0.0180
42216W        W85269  19.497   1.659   6.872 -0.4208  0.1334  0.1052
42217W        W85270   3.892  11.460   4.453 -0.2230 -0.2206  0.1029
42218W        W85271  29.594   8.049  10.136  0.3527  0.3538  0.0988
42219W        W85272  22.757  26.694   6.345 -0.0439 -0.1248 -0.0186
42220W        W85273  34.354   5.359   1.426  0.0309  0.1144 -0.0788
42221W        W85274   1.101   2.594   8.946  0.2329 -0.0510  0.3399
42222W        W85275   2.754   9.702   7.977  0.0544  0.0320  0.2105
42223W        W85276  31.160   9.033   6.793  0.0879  0.1037  0.1020
42224W        W85277  24.891  21.665  29.030  0.2382  0.1760 -0.2064
42225W        W85278   0.449  20.213  29.031 -0.2171 -0.0378 -0.3995
42226W        W85279   2.097  16.321   3.935 -0.0263 -0.0340 -0.0368
42227W        W85280   4.620   8.954  27.904  0.1470  0.1344 -0.0335
42228W        W85281   3.183   4.666   6.587  0.1414 -0.1121 -0.0761
42229W        W85282  31.496  26.695  28.889 -0.0148  0.2617 -0.1517
42230W        W85283   3.955  13.105  25.362 -0.0212 -0.2864  0.3881
42231W        W85284  28.750   5.909   4.724 -0.3945  0.0698  0.1684
42232W        W85285  20.170  19.163   1.441  0.0554 -0.0867 -0.0565
42233W        W85286   1.000   3.604   6.142 -0.2259  0.2072 -0.4375
42234W        W85287   2.421   7.832   4.829  0.0049 -0.1248  0.1087
42235W        W85288   1.804  34.315  26.903 -0.0417 -0.1332 -0.0452
42236W        W85289  22.562  13.380   8.126  0.1129 -0.1026 -0.4396
42237W        W85290  21.106   9.337   4.390 -0.1085 -0.0471  0.0568
42238W        W85291   5.181   3.493   9.812 -0.0786 -0.1620  0.3324
42239W        W85292  28.629  12.968   7.586 -0.3275 -0.0299  0.1197
42240W        W85293  27.975  33.927   5.118 -0.2072 -0.2491 -0.4488
42241W        W85294  14.715  33.076   3.790 -0.0478 -0.1969  0.4038
42242W        W85295  28.128  32.861   2.694 -0.1903 -0.1277  0.1629
42243W        W85296  10.768  15.014  27.524  0.0942  0.0078  0.2017
42244W        W85297  26.427  24.114   3.244 -0.1187  0.3034 -0.3318
42245W        W85298  31.642  27.640   0.562 -0.0625  0.0804  0.0900
42246W        W85299   1.244  11.882  10.008 -0.0728  0.0847 -0.0129
42247W        W85300  34.417  31.141  20.212 -0.3954 -0.5219  0.3361
42248W        W85301  24.942  18.930  21.653 -0.0604 -0.1192 -0.3066
42249W        W85302  34.593   7.971   0.090  0.1865 -0.1004  0.0996
42250W        W85303  27.492   3.015   5.147 -0.0461 -0.3295  0.1856
42251W        W85304  31.850  23.273   4.813  0.0443  0.2701  0.0856
42252W        W85305  10.223   3.783   7.300  0.1005  0.1946  0.1254
42253W        W85306   8.538  24.120  13.221  0.1179 -0.0591  0.0015
42254W        W85307  31.933  34.084   0.601 -0.0139  0.0540  0.1715
42255W        W85308   4.443   9.366  10.002 -0.3960  0.1683 -0.3893
42256W        W85309  21.041  31.153  24.294 -0.2214 -0.0688  0.1362
42257W        W85310  26.588  32.783  26.476  0.0410  0.0072  0.1717
42258W        W85311  32.327  32.504  25.534 -0.0525 -0.1662 -0.0968
42259W        W85312  31.117  34.061   0.424  0.3190 -0.0649 -0.2397
42260W        W85313  10.295  32.859   3.429 -0.0350 -0.0528 -0.2080
42261W        W85314  27.684  15.131   5.697 -0.2389 -0.0255 -0.1793
42262W        W85315  29.986  24.091   8.074  0.1291 -0.0990 -0.2725
42263W        W85316  26.543  26.140   7.644  0.1779 -0.0217  0.1579
42264W        W85317   4.664   7.427   4.305  0.0096  0.2600  0.1960
42265W        W85318  25.020  31.584  27.003 -0.0583  0.0878  0.2635
42266W        W85319  33.029  12.584   2.527 -0.4100 -0.1843 -0.0772
42267W        W85320  23.821  30.024  28.476  0.0084 -0.0749 -0.0851
42268W        W85321  27.773  27.010   0.802  0.2546  0.0043 -0.1190
42269W        W85322  14.619  30.739  25.751 -0.1538 -0.0055 -0.1596
42270W        W85323   4.383   3.670   9.660 -0.0375  0.0007  0.2704
42271W        W85324   4.852  12.663   9.418  0.2909 -0.0819  0.1775
42272W        W85325  22.244  33.212   4.623 -0.0383  0.3133 -0.0841
42273W        W85326   6.796  13.579   2.154 -0.0602  0.2344  0.0446
42274W        W85327  34.257  25.935   4.832 -0.0728  0.0288  0.0542
42275W        W85328  26.986  14.225   4.503  0.2107  0.2299  0.2392
42276W        W85329  22.644  15.119   8.512 -0.0120 -0.0786  0.0497
42277W        W85330  18.836  34.182  29.049 -0.2223 -0.0450 -0.0843
42278W        W85331  27.240   2.306   3.929 -0.0673  0.0755  0.2294
42279W        W85332  21.827  28.225   2.045  0.1637  0.1427 -0.0015
42280W        W85333  11.376   9.216   1.324 -0.0507  0.4099 -0.0436
42281W        W85334  32.588  27.222   7.751 -0.1465  0.0002  0.1048
42282W        W85335   2.613   1.411   4.559 -0.0720 -0.2442  0.5775
42283W        W85336  21.755  11.752  28.753 -0.2240 -0.0704  0.1390
42284W        W85337   1.133   1.131   6.243 -0.2228  0.1332  0.1198
42285W        W85338  14.119  34.271   9.055 -0.0785 -0.3519  0.0105
42286W        W85339   9.137  34.160   8.429 -0.3139 -0.1058 -0.1475
42287W        W85340   6.649   6.496   0.715  0.0275 -0.0585 -0.2685
42288W        W85341  31.097  28.268  18.002  0.1094  0.1174 -0.1304
42289W        W85342   1.598  11.896   7.575  0.0213  0.1113 -0.1216
42290W        W85343   3.491  10.418   6.905  0.3069 -0.2387 -0.1061
42291W        W85344  24.843   5.714  24.676 -0.3583  0.0841 -0.1016
42292W        W85345   8.527  30.804   2.496  0.1838 -0.0804 -0.0708
42293W        W85346  26.159  12.067  25.839  0.1770 -0.1430 -0.0833
42294W        W85347  16.462   9.873   9.236  0.2847  0.0017 -0.1532
42295W        W85348  16.174   6.468   0.146 -0.2596  0.2613  0.0778
42296W        W85349  11.543  11.327   8.723 -0.0278 -0.2391  0.0294
42297W        W85350   6.911  26.712   8.264  0.0703  0.0199  0.3139
42298W        W85351  33.729  17.335   2.836 -0.1112  0.1027 -0.3032
42299W        W85352  11.709  12.810   2.191 -0.4306 -0.0413  0.2364
42300W        W85353   9.467  27.484   0.454 -0.1135  0.0423  0.1472
42301W        W85354  27.497   2.983   6.665 -0.0916 -0.0215  0.0010
42302W        W85355   5.649  29.005   6.737  0.1703  0.2260  0.0134
42303W        W85356  32.811   9.162   8.129 -0.1006 -0.1999 -0.2234
42304W        W85357   0.523   5.480  17.095  0.3392 -0.0739  0.0653
42305W        W85358  22.119   4.292   6.452  0.1853  0.0178 -0.0848
42306W        W85359   2.404  12.029   5.961 -0.0561  0.0170 -0.0742
42307W        W85360  14.099  28.219   0.014  0.1756 -0.0046  0.4272
42308W        W85361  22.512  32.507   8.371 -0.2423  0.1907 -0.2075
42309W        W85362  32.036  19.738  28.420 -0.3190 -0.1842  0.1327
42310W        W85363  21.584   3.857   0.216 -0.1413  0.3646  0.3334
42311W        W85364   0.960  33.268  28.143  0.0478  0.0481  0.3488
42312W        W85365  30.989   2.463   0.285 -0.1186  0.3573  0.0044
42313W        W85366  21.275  25.972  28.062 -0.1772  0.2073  0.0486
42314W        W85367  29.533  18.095  27.375 -0.0750 -0.0289  0.1420
42315W        W85368   3.132  12.649   8.319 -0.0705 -0.2065  0.0014
42316W        W85369  25.442  19.603  26.604  0.2039  0.1587 -0.1427
42317W        W85370   7.339  27.685   4.443 -0.1605 -0.1899  0.0614
42318W        W85371  23.864   9.924  28.775  0.1457 -0.1099  0.2211
42319W        W85372   9.184   1.496   5.506  0.1005  0.1265 -0.1878
42320W        W85373   4.606   5.575   3.752 -0.1374 -0.3567  0.3873
42321W        W85374  10.164  22.765   0.199 -0.1015 -0.0267 -0.2523
42322W        W85375  12.396   0.742  10.292  0.1446 -0.2621  0.3612
42323W        W85376   5.536   5.805   4.745 -0.0236 -0.0354 -0.0011
42324W        W85377   3.952   2.014   8.220  0.0212 -0.2526 -0.1679
42325W        W85378  30.350  31.974   2.222 -0.3327  0.0226 -0.1429
42326W        W85379  27.935  31.550  27.554  0.1509 -0.0513 -0.1590
42327W        W85380  26.154   8.253   9.901 -0.0577 -0.3483 -0.1483
42328W        W85381   0.991  31.217  27.458  0.1762 -0.1249 -0.1354
42329W        W85382   3.925  34.090   9.310 -0.3261  0.3441  0.0906
42330W        W85383  10.988   1.961  26.616 -0.1236  0.0745  0.1790
42331W        W85384   8.764   1.310  23.251  0.2084 -0.0383 -0.0931
42332W        W85385  17.247  26.420  29.076 -0.2097 -0.4147  0.2951
42333W        W85386  26.290   0.600   9.954 -0.2612 -0.1427 -0.2475
42334W        W85387  33.896  31.945   5.523 -0.2086  0.1633 -0.2316
42335W        W85388  24.277   3.204   4.029  0.1410  0.0469  0.1867
42336W        W85389  33.194  34.129   0.037  0.1833  0.2356 -0.0115
42337W        W85390  27.259  24.084   8.895  0.0009  0.3419  0.1125
42338W        W85391  13.976  23.211   4.598 -0.0208 -0.3058 -0.1737
42339W        W85392  21.334  25.354   5.157  0.0256  0.0293  0.2999
42340W        W85393  28.852  31.761  29.128 -0.0511  0.2614 -0.1235
42341W        W85394  25.943  23.383   1.313 -0.0026  0.1714  0.0498
42342W        W85395   2.812  13.311   7.597 -0.1062  0.0981  0.2924
42343W        W85396  14.392   2.694   5.871  0.1839  0.0844 -0.0341
42344W        W85397   3.061   2.647   9.336  0.0715  0.0800 -0.0040
42345W        W85398  13.067   9.082   1.706 -0.3377 -0.4217 -0.6713
42346W        W85399  32.723   7.119  18.891 -0.1637 -0.1509 -0.1535
42347W        W85400  24.701  12.415  23.058 -0.2752  0.0875 -0.3200
42348W        W85401   1.613   8.898   1.826 -0.1246  0.2536  0.0854
42349W        W85402  28.630  31.731   7.457  0.3981  0.3418  0.2641
42350W        W85403  32.918   4.324  22.935 -0.1876 -0.1425 -0.1576
42351W        W85404   9.595   3.596   0.827  0.1194 -0.0087 -0.1918
42352W        W85405  27.457  12.489   2.037 -0.0147 -0.0274  0.2268
42353W        W85406  23.172  27.951   0.840  0.2825  0.0447 -0.1050
42354W        W85407   0.339  33.671  23.289 -0.2854 -0.1468  0.1439
42355W        W85408  29.564  31.537  25.035 -0.1847  0.0581  0.0170
42356W        W85409  29.718  11.484  28.749  0.0914  0.0917  0.0067
42357W        W85410  30.485   6.294   7.380 -0.0230  0.0256 -0.2351
42358W        W85411  29.558  17.644   2.410 -0.0347 -0.0044  0.3239
42359W        W85412  15.162  17.246   3.343  0.3752 -0.4348  0.0791
42360W        W85413  10.964   3.220   9.783 -0.1897 -0.0170 -0.2321
42361W        W85414   4.289  31.876   7.879  0.0307 -0.0311  0.2119
42362W        W85415  32.558  32.320   5.757 -0.0301 -0.2149 -0.0330
42363W        W85416  20.985  33.996   6.719  0.1351  0.0410 -0.4160
42364W        W85417  22.350  10.655   3.081 -0.0547 -0.2604 -0.1223
42365W        W85418  27.462  28.783   4.774 -0.3035 -0.3189 -0.0280
42366W        W85419   1.941   2.108   4.547  0.3966  0.1778 -0.0052
42367W        W85420  27.271   4.537  23.265 -0.1820  0.1739 -0.1902
42368W        W85421  24.059   8.389  28.544 -0.1830 -0.2055  0.0684
42369W        W85422  25.771  31.319   8.360  0.0339 -0.1068  0.0844
42370W        W85423  33.042  32.372   5.850 -0.0766 -0.1120  0.0418
42371W        W85424   1.238   2.108   1.658  0.2492 -0.1878 -0.0732
42372W        W85425   5.476  28.009  25.501 -0.0720 -0.1273  0.1007
42373W        W85426  22.398   0.975  19.016  0.1451 -0.0651 -0.1163
42374W        W85427   8.500  10.842  25.877 -0.1039  0.1068 -0.2603
42375W        W85428   3.348  30.282  22.864  0.1459 -0.0845  0.0653
42376W        W85429  10.663  21.066  21.813 -0.0814 -0.3747 -0.2509
42377W        W85430  32.673  32.328   4.319  0.0305 -0.1965 -0.2145
42378W        W85431   1.193  32.111   7.741  0.3035  0.2591 -0.2217
42379W        W85432  19.725  14.435  23.329 -0.2851  0.1337  0.3327
42380W        W85433   1.996  34.061  28.604  0.1379 -0.0473 -0.1297
42381W        W85434  24.746  27.618   2.377  0.0587  0.2837  0.1269
42382W        W85435  22.707  34.595   4.880 -0.0907  0.3563 -0.4228
42383W        W85436   2.125  13.563   8.359  0.0800  0.3303 -0.2298
42384W        W85437  11.636  14.266   1.391 -0.1432 -0.0827  0.4280
42385W        W85438  31.538  13.613   7.635  0.1089 -0.0048  0.1242
42386W        W85439  31.802  20.402   6.885  0.3856  0.0963  0.0316
42387W        W85440  25.155  29.702   9.680  0.1758 -0.1896  0.1903
42388W        W85441  22.379  15.936   8.554 -0.1176  0.0762  0.0813
42389W        W85442  34.544   0.341  23.699 -0.0729 -0.0053 -0.1503
42390W        W85443  26.588  23.127  28.633  0.0589  0.0188 -0.2064
42391W        W85444  12.264   8.928  20.395 -0.1530  0.0331  0.3355
42392W        W85445   9.372   9.770   3.144 -0.2089  0.0117 -0.0248
42393W        W85446  31.026   6.452   7.410  0.0304  0.2274 -0.1889
42394W        W85447  24.297  19.264   0.766 -0.1743 -0.1051 -0.0370
42395W        W85448  31.068  20.967  21.885 -0.0300 -0.1769  0.0126
42396W        W85449  30.132  30.170   3.474  0.0738  0.1671  0.0155
42397W        W85450  23.117   9.440   1.724 -0.0948 -0.2026  0.0707
42398W        W85451  31.435  34.512   7.965  0.1824 -0.0803 -0.1972
42399W        W85452  31.947   5.999   5.040  0.1543 -0.0196  0.3037
42400W        W85453  20.450  25.936  25.380 -0.1069  0.1464  0.1165
42401W        W85454  26.639  10.407   6.073  0.3643  0.0714 -0.1738
42402W        W85455  27.092   1.831   7.655 -0.4535  0.1409 -0.0852
42403W        W85456  33.964  29.958   6.614  0.3295  0.0002 -0.1190
42404W        W85457  20.706   4.810   7.272  0.0878  0.2606  0.2927
42405W        W85458  29.450   2.186   2.083  0.1451  0.0173 -0.2707
42406W        W85459   3.282  26.188   5.908  0.2603 -0.1786 -0.2384
42407W        W85460  32.759  13.644  26.456  0.0238  0.0711  0.0926
42408W        W85461   0.937   7.049  24.581  0.0397  0.0432  0.2564
42409W        W85462  33.818   7.623   1.299  0.2038  0.0448  0.0965
42410W        W85463  32.928  31.125   9.011  0.0735  0.1574 -0.6392
42411W        W85464  26.974  18.029   8.819  0.1192  0.2354 -0.2298
42412W        W85465  33.963  32.564   6.403 -0.0797 -0.2021  0.2056
42413W        W85466  21.321   7.934  10.097  0.0645 -0.0980 -0.0095
42414W        W85467  12.527   4.231  27.422 -0.1376 -0.1879 -0.0161
42415W        W85468   3.628  31.987   3.253 -0.2011  0.2014  0.2246
42416W        W85469  30.389  31.329   8.744  0.3714 -0.0869 -0.0263
42417W        W85470   9.458   5.874   9.014  0.2192 -0.0541  0.0179
42418W        W85471   6.401   8.272   0.569 -0.0938  0.4340  0.1917
42419W        W85472   3.341  17.005  18.922  0.1158  0.2415 -0.0354
42420W        W85473   0.293   0.831  15.637  0.1959  0.1338 -0.1541
42421W        W85474   2.518  12.289   3.024 -0.2152  0.1315 -0.1474
42422W        W85475  21.633  11.104   7.903  0.1671  0.0161  0.3665
42423W        W85476  26.932  31.973   3.494 -0.0597 -0.0911  0.0251
42424W        W85477  17.539  13.904   2.551 -0.1080  0.1054 -0.0135
42425W        W85478   5.738  20.497   5.469  0.1338  0.1152  0.0092
42426W        W85479   6.341  30.857   5.670  0.2784 -0.1052 -0.1235
42427W        W85480   6.841  34.368   9.751 -0.0684 -0.1734 -0.1294
42428W        W85481  20.539  33.736   4.647 -0.0692  0.6862 -0.2912
42429W        W85482  21.321  33.252   9.943  0.3254  0.2995  0.0213
42430W        W85483   3.999   3.937   4.963 -0.1268 -0.0818 -0.2841
42431W        W85484   5.138  17.546  28.846  0.1367  0.0470  0.1851
42432W        W85485  32.604  27.231   8.368  0.2101 -0.1228 -0.2747
42433W        W85486  31.556   2.341  27.752  0.2988 -0.0411  0.1205
42434W        W85487  34.022   9.385   9.361 -0.1747  0.0331  0.0229
42435W        W85488   1.811  29.675   3.485 -0.4307 -0.1072 -0.1538
42436W        W85489  19.427   8.256  14.983 -0.0580 -0.3124  0.0445
42437W        W85490  16.590   5.664   9.528  0.2651 -0.0204  0.0456
42438W        W85491  25.083  11.771   5.102  0.1261 -0.0828 -0.1595
42439W        W85492   1.278  34.234   5.689  0.1096  0.0468 -0.0566
42440W        W85493   5.566  23.158   1.040 -0.1834 -0.2666 -0.2337
42441W        W85494  10.277  29.811  26.375 -0.1476  0.1310  0.3074
42442W        W85495  31.457  22.552   4.570 -0.1725 -0.0178  0.0991
42443W        W85496  18.637  31.140   8.370  0.0181  0.1418  0.2617
42444W        W85497  14.939   1.728   2.272  0.1114  0.3800  0.0013
42445W        W85498  13.390   4.882   6.880  0.0123 -0.5161  0.1462
42446W        W85499  31.363   9.963   6.541 -0.0554  0.5567  0.0855
42447W        W85500  31.959   2.480   7.299 -0.0486 -0.1618 -0.0933
42448W        W85501   3.267  28.698  23.123  0.1107  0.0150 -0.1686
42449W        W85502  22.279  29.811   4.576  0.0377 -0.0989 -0.1059
42450W        W85503  31.848  13.261   9.424 -0.1227  0.0206 -0.0026
42451W        W85504  32.866   7.453  28.716  0.1154 -0.1395 -0.0866
42452W        W85505  27.206  28.956   5.244 -0.0827 -0.1328  0.0008
42453W        W85506   7.837  13.821   9.235  0.0473  0.1481 -0.2125
42454W        W85507  28.549  30.385   9.868  0.0384 -0.0199 -0.0121
42455W        W85508  28.902  30.439  28.332  0.1101  0.1607 -0.0942
42456W        W85509  23.879   7.362   8.917 -0.1642  0.2121 -0.0160
42457W        W85510   4.184  13.613   0.034 -0.0351  0.0506 -0.0669
42458W        W85511   8.881   2.395   5.949 -0.1729  0.0820 -0.0470
42459W        W85512  14.105  34.668   5.176  0.0121 -0.0285 -0.0620
42460W        W85513  10.668  26.996   4.241 -0.0823 -0.3068  0.0531
42461W        W85514   4.312  27.590   1.226  0.0100 -0.0592  0.2065
42462W        W85515   4.926   4.652   5.016 -0.3077 -0.2432  0.1032
42463W        W85516   3.761  33.078  24.521  0.1216  0.1443  0.0017
42464W        W85517  29.470  19.024   9.605  0.0339 -0.0505 -0.0312
42465W        W85518  10.202  15.308  23.090 -0.0169  0.1614  0.1913
42466W        W85519  26.599   5.751   6.710  0.0205 -0.1509 -0.0300
42467W        W85520  29.445  28.910  29.148 -0.1801  0.1598  0.1450
42468W        W85521   1.333  26.634  28.278 -0.1004 -0.0974 -0.1061
42469W        W85522  34.206  22.527  26.220 -0.0226 -0.1376  0.1687
42470W        W85523  34.200   6.905   6.824 -0.1229 -0.0325 -0.1963
42471W        W85524  29.553   6.083   8.292 -0.0965 -0.0613  0.0952
42472W        W85525  20.223  30.439  24.162  0.0768  0.0388  0.0266
42473W        W85526  17.771  15.803   3.984 -0.0135  0.4430  0.1743
42474W        W85527  23.788   6.582   9.109 -0.1743 -0.2875 -0.0549
42475W        W85528  26.216  11.954  20.424  0.0243 -0.0194 -0.1164
42476W        W85529  26.765  23.053   8.748  0.2663  0.0549  0.0805
42477W        W85530  26.320  11.622   3.668 -0.0798 -0.0513 -0.1011
42478W        W85531   8.414   8.826  26.154 -0.0225 -0.0000  0.0238
42479W        W85532  15.161  16.775   6.826  0.1196 -0.4830 -0.2566
42480W        W85533  34.181   5.933  15.054 -0.1874  0.2083  0.3692
42481W        W85534   6.337  13.058  13.985 -0.1017 -0.1172 -0.0415
42482W        W85535  31.794  10.471  23.815 -0.0740  0.1895  0.1139
42483W        W85536  26.928   4.804  10.327  0.0736  0.1735 -0.0115
42484W        W85537  17.335  12.661   7.468 -0.0657 -0.0465 -0.2308
42485W        W85538  10.242  33.674  28.703  0.0659  0.1615  0.0836
42486W        W85539   8.730  10.848   5.790 -0.2698  0.2148  0.1199
42487W        W85540  30.705  24.090  26.848  0.0668  0.0127  0.2319
42488W        W85541  33.441   7.203   0.196 -0.0494  0.0123 -0.0176
42489W        W85542  34.586   3.730   6.002  0.2361  0.3278  0.1587
42490W        W85543  20.291  13.485  24.196 -0.3826 -0.2767 -0.1528
42491W        W85544  21.647  20.533  24.098  0.0202  0.0008  0.2781
42492W        W85545   6.085  13.517  27.274 -0.0758  0.1123 -0.2735
42493W        W85546  14.119  14.538   5.974  0.2018  0.2542 -0.0518
42494W        W85547   3.744   9.859   8.754  0.0823  0.0031 -0.2737
42495W        W85548  14.842  12.837   0.891 -0.1814 -0.2139 -0.0288
42496W        W85549   0.559   1.565   3.280  0.2130 -0.0501  0.1109
42497W        W85550  26.914  32.700  21.473 -0.4707 -0.1539 -0.0265
42498W        W85551  21.966  17.057  21.548 -0.2490 -0.0434 -0.0452
42499W        W85552   2.679  15.453  23.640 -0.1947  0.2849  0.1069
42500W        W85553  32.402  16.439   7.508  0.0931 -0.0462  0.0727
42501W        W85554  22.138   7.406  28.884 -0.2519  0.1645 -0.2730
42502W        W85555  30.732  16.849  15.220 -0.4505 -0.2004  0.4331
42503W        W85556  18.694  13.777   7.736 -0.0214 -0.0890 -0.0301
42504W        W85557   3.446   9.113   4.170 -0.0494 -0.0996  0.0632
42505W        W85558   9.524   7.116   0.912  0.2465  0.1048  0.1838
42506W        W85559   8.908  10.122   1.821  0.0153 -0.2075  0.3127
42507W        W85560   3.839   0.038   5.092  0.0712 -0.1168  0.0554
42508W        W85561  27.488  17.675   4.256 -0.2975 -0.1035 -0.1976
42509W        W85562  29.485   3.011  27.911  0.3541 -0.3137 -0.4578
42510W        W85563  14.379   9.202   7.730 -0.1011  0.0893 -0.1652
42511W        W85564  26.525  15.824  14.869 -0.3671  0.1731  0.1050
42512W        W85565  14.211  17.923   5.473 -0.1664 -0.1319 -0.1339
42513W        W85566  18.438  12.662   7.566  0.0340  0.0822 -0.0942
42514W        W85567  24.495  17.559   8.047 -0.0838 -0.0453  0.1837
42515W        W85568   0.476  30.389  27.882  0.0043  0.1326 -0.2953
42516W        W85569  25.626  22.269  15.675  0.2666  0.0130  0.0871
42517W        W85570   1.050  11.565   6.847 -0.0263  0.2673  0.2927
42518W        W85571  27.697   4.541  23.024  0.3026 -0.2715  0.0886
42519W        W85572   6.360  10.701  27.876 -0.1040 -0.2578  0.2544
42520W        W85573  18.532  27.074   2.522  0.1712 -0.1108  0.0475
42521W        W85574  14.584   3.473   5.483 -0.1770  0.1641 -0.0200
42522W        W85575  22.514   7.469   8.734 -0.2020  0.2333 -0.0892
42523W        W85576   0.124  13.096   3.729  0.2791 -0.3623 -0.1065
42524W        W85577  19.167   7.153   8.519 -0.0540  0.0606 -0.0336
42525W        W85578  32.302  31.864   1.563 -0.0984 -0.0804  0.2516
42526W        W85579   6.626  18.132  28.341  0.0084  0.6897  0.1586
42527W        W85580   1.752  23.958   3.757  0.2166  0.1163 -0.0756
42528W        W85581  23.930  22.357   0.540 -0.0875 -0.0223 -0.0702
42529W        W85582  17.349  26.748  21.983  0.0149  0.1487  0.0627
42530W        W85583  33.079   2.849   1.881 -0.0666 -0.0547  0.2044
42531W        W85584  26.666  27.310  14.454 -0.0423  0.0772  0.2230
42532W        W85585  25.726   8.010  27.857  0.3992 -0.2391 -0.1432
42533W        W85586   4.028  25.021   2.216 -0.1629 -0.2340  0.0610
42534W        W85587  12.800   1.499   9.072  0.1257  0.2959  0.1591
42535W        W85588  33.291   5.370   4.020 -0.2346  0.1901 -0.0362
42536W        W85589  31.027   2.332  27.649  0.1523 -0.0723  0.1838
42537W        W85590  11.723  19.093  20.973  0.3182 -0.0429  0.0002
42538W        W85591  14.522  21.091   3.718  0.1993  0.1227 -0.1366
42539W        W85592  31.007  13.427  24.713 -0.0878  0.0018 -0.0078
42540W        W85593  32.727  13.418   0.741 -0.1525  0.3411  0.2291
42541W        W85594  25.832  16.359  14.633  0.0654  0.3088  0.2712
42542W        W85595   1.055  29.716  19.771 -0.0559  0.0472  0.1606
42543W        W85596  13.326   5.995   9.127  0.2695  0.0760  0.1293
42544W        W85597  20.306  17.490   4.577 -0.4161  0.0301 -0.1978
42545W        W85598  26.040  30.606   3.650  0.1866 -0.2549 -0.0220
42546W        W85599   7.106  28.896   5.417 -0.1599  0.1319  0.2005
42547W        W85600  25.514  10.159   7.308  0.1494 -0.1784  0.3756
42548W        W85601  21.604   7.423   3.902 -0.2400 -0.1609 -0.0405
42549W        W85602  20.568  23.348   2.459  0.0505  0.0080  0.0590
42550W        W85603   4.827  34.400   4.784  0.1048 -0.1470  0.2307
42551W        W85604   1.381   7.772   9.749 -0.0417 -0.0422 -0.0868
42552W        W85605  21.407   9.714   2.694 -0.4157  0.0164 -0.1204
42553W        W85606   8.760   7.752   5.128  0.4071 -0.0999 -0.1341
42554W        W85607   3.948  19.965  16.813 -0.1013 -0.0174  0.2178
42555W        W85608  20.613  34.678  20.505  0.1295  0.2398  0.2399
42556W        W85609  10.733  16.933  23.649  0.1718  0.2592 -0.1883
42557W        W85610  33.964  25.023  27.418  0.0870 -0.0155 -0.2571
42558W        W85611  16.162  11.514  17.271  0.1582  0.3034  0.1732
42559W        W85612   0.410  14.176  18.294 -0.0491 -0.2715  0.0571
42560W        W85613  34.067   8.338   9.884 -0.1516  0.0480  0.2460
42561W        W85614   0.824   5.150   8.562  0.0629  0.2687  0.0271
42562W        W85615  32.141  21.853   9.579  0.1856  0.1778 -0.0280
42563W        W85616  25.861  14.133   6.291 -0.2460 -0.1569  0.2230
42564W        W85617   5.847  15.775  25.063 -0.0171 -0.0803  0.0538
42565W        W85618   0.603  10.335   6.619  0.3811 -0.0007 -0.3599
42566W        W85619  22.590  14.521   5.065 -0.1296 -0.1420  0.0227
42567W        W85620  30.180  18.360  19.961 -0.0423  0.1993  0.1148
42568W        W85621  33.504  33.702  22.367  0.3361  0.2431  0.4172
42569W        W85622  25.585   9.292  21.451 -0.1005 -0.2908 -0.1837
42570W        W85623  10.186  12.656   6.371  0.1962  0.1636  0.0781
42571W        W85624   1.555  23.141   5.925  0.1255  0.4028 -0.5347
42572W        W85625   4.039   6.832   9.932  0.2220 -0.0600 -0.2620
42573W        W85626  10.819  28.632   3.726  0.1920 -0.2263 -0.1748
42574W        W85627   4.718   2.299  14.376  0.0199  0.2174  0.3041
42575W        W85628  23.520  27.233   5.449 -0.4317 -0.1107  0.2647
42576W        W85629  32.388  29.512   3.706  0.3028 -0.0017  0.1101
42577W        W85630   0.575  22.580   9.428 -0.0926 -0.0970  0.1484
42578W        W85631   4.726  22.311   2.257  0.0391 -0.0465 -0.1233
42579W        W85632   0.705  18.082  13.472 -0.0597  0.2667 -0.0957
42580W        W85633  26.516  10.242   9.069  0.1327  0.2554 -0.3116
42581W        W85634   0.816   2.110  27.625 -0.0068 -0.0347  0.1135
42582W        W85635  24.376  15.957  28.337 -0.2607  0.1961  0.0716
42583W        W85636  33.887   4.972  18.663  0.2206 -0.0705 -0.2462
42584W        W85637   5.819   1.552   7.568 -0.1421  0.0045 -0.0422
42585W        W85638  28.979  11.115   1.980 -0.2915  0.2302 -0.0243
42586W        W85639  34.105  16.297   6.162  0.0591 -0.2141  0.1007
42587W        W85640  10.500  25.218   9.603  0.0810  0.0169 -0.2319
42588W        W85641  26.784  22.539  19.383 -0.4023 -0.2134  0.0203
42589W        W85642  30.873  10.011   4.713 -0.0880 -0.0435  0.0589
42590W        W85643   7.729  32.304   3.621  0.1057 -0.0130 -0.1720
42591W        W85644  22.616   5.423  18.653  0.0126  0.0402  0.2434
42592W        W85645  24.179  16.074   6.494  0.0210  0.0632 -0.0919
42593W        W85646   4.712   8.357  17.696  0.0119 -0.0177  0.3894
42594W        W85647   4.154   5.098   7.329 -0.0756  0.0539 -0.0536
42595W        W85648   5.567  20.331  25.696  0.0272  0.1689  0.0371
42596W        W85649   1.180  13.453   4.377 -0.1303  0.1568 -0.0167
42597W        W85650  20.433  29.435   2.882  0.0289 -0.0367  0.0293
42598W        W85651  27.054  14.326   2.206 -0.1548  0.3909 -0.3027
42599W        W85652  20.444  26.905   1.488 -0.2187  0.2925  0.0754
42600W        W85653   2.771   4.576   4.854 -0.2959  0.0141  0.2914
42601W        W85654  34.257   5.789   5.485  0.0986  0.1049  0.1525
42602W        W85655  19.083  20.007  21.588 -0.2469  0.3237 -0.4019
42603W        W85656  34.044  19.310   0.756 -0.3426 -0.1546  0.2526
42604W        W85657   9.013  14.019   9.510 -0.2009  0.0946 -0.1038
42605W        W85658   4.366  23.489   3.019  0.1660 -0.0374 -0.0925
42606W        W85659   8.144  13.761  24.836  0.2307 -0.1000  0.1124
42607W        W85660  21.919  11.107   7.495  0.1586 -0.0313  0.0090
42608W        W85661  23.659  34.480   3.844 -0.0078  0.1621  0.2933
42609W        W85662   2.981   1.645   0.040  0.1577 -0.2478  0.0584
42610W        W85663  31.320   4.405   3.979 -0.0180  0.1331  0.0153
42611W        W85664   7.491  22.108   4.442  0.3307 -0.0518  0.1800
42612W        W85665  30.416   6.757  22.973  0.0066 -0.0337  0.0034
42613W        W85666  28.289  11.651   0.073  0.0374 -0.1042 -0.1697
42614W        W85667  27.643  17.023   9.298  0.1418 -0.2148 -0.0776
42615W        W85668  25.213  23.180  16.324 -0.0708 -0.2758 -0.0062
42616W        W85669  25.343   8.076  23.794 -0.4344  0.0364 -0.1082
42617W        W85670   8.312   1.970  15.550 -0.1884  0.4429  0.0650
42618W        W85671  27.090  32.151   1.994 -0.0645  0.0122  0.1894
42619W        W85672  30.477  34.600  27.103 -0.0865 -0.2982 -0.0373
42620W        W85673  28.835  14.115   7.202  0.0619 -0.0454 -0.1310
42621W        W85674  34.068  11.014   1.265 -0.1555  0.1868 -0.0085
42622W        W85675  31.765  10.650  26.399  0.1774 -0.1964 -0.3455
42623W        W85676  33.100  13.440   6.684  0.0354  0.0051 -0.3155
42624W        W85677  25.707  18.120   6.926  0.3939 -0.1507 -0.0056
42625W        W85678  26.503   3.743  10.137 -0.2678 -0.0655 -0.1334
42626W        W85679   8.095  16.808   5.968  0.2755 -0.1530  0.1682
42627W        W85680  25.465  23.254   8.013 -0.1783 -0.2363 -0.0966
42628W        W85681  29.112  25.945  19.025 -0.3267 -0.1251 -0.1780
42629W        W85682  13.292   3.085  15.705  0.0862  0.3181 -0.0796
42630W        W85683  10.386   2.780  27.075  0.0529 -0.0526  0.0751
42631W        W85684  29.655  19.902   8.901 -0.0906 -0.1458 -0.2621
42632W        W85685   0.456   3.727   2.297  0.1405  0.0325 -0.0649
42633W        W85686  20.898  15.114  27.018  0.1495  0.2015 -0.0908
42634W        W85687   5.248  30.314  27.468 -0.1193  0.1916 -0.0405
42635W        W85688  16.493  13.999  25.003 -0.1198  0.1003  0.1381
42636W        W85689  30.624   3.323   4.005  0.1550  0.2479 -0.2297
42637W        W85690  20.063   3.359   2.334  0.1160  0.3798  0.3087
42638W        W85691  25.691   8.772  15.631  0.0586  0.1233 -0.1915
42639W        W85692  27.465   6.719  10.136  0.2504 -0.4391  0.0693
42640W        W85693  27.967  31.022   4.183  0.2715  0.0294 -0.1299
42641W        W85694  23.702  33.934  26.344  0.1440 -0.0084  0.1701
42642W        W85695  22.230  15.580  23.377  0.2427 -0.0457  0.3370
42643W        W85696  31.058   2.645  15.439  0.1839 -0.4536  0.1446
42644W        W85697   6.142  12.189   9.012  0.2651 -0.0778  0.0435
42645W        W85698  10.677  30.609   7.162  0.1215  0.1759  0.0095
42646W        W85699  30.360   9.394   0.709 -0.2142 -0.0849 -0.1793
42647W        W85700  33.806  14.104   4.486  0.0103  0.0107 -0.0192
42648W        W85701   0.393  15.577  20.880 -0.1241  0.1248  0.0615
42649W        W85702   1.226  32.536   7.498 -0.0098  0.0143 -0.0203
42650W        W85703  22.471  12.918  25.179  0.0435 -0.0823 -0.0564
42651W        W85704  17.786   4.569  28.778  0.1914  0.1667  0.1249
42652W        W85705  30.125  14.536  28.236 -0.0328 -0.1101 -0.1497
42653W        W85706  17.098  17.186   2.684  0.0465 -0.0978 -0.1983
42654W        W85707  32.436  19.683  28.791 -0.1092 -0.1881 -0.1027
42655W        W85708  17.942  14.116   5.808 -0.0229 -0.1173  0.0017
42656W        W85709  29.961  18.219   3.058  0.3501  0.0061 -0.0929
42657W        W85710  34.675  31.528   5.042  0.1284  0.0740 -0.0373
42658W        W85711  30.895  11.258   4.378  0.0544  0.0751  0.0285
42659W        W85712   6.563   7.664   4.140  0.0155 -0.1187  0.4908
42660W        W85713   8.462   8.595   3.754 -0.1544 -0.4889  0.1119
42661W        W85714   8.852   0.344   0.502 -0.0709  0.2146  0.0262
42662W        W85715  33.763   8.409  27.993  0.2860  0.1962 -0.1898
42663W        W85716  16.792  11.917  24.816 -0.5907  0.0133  0.1249
42664W        W85717  32.123  15.662   7.659  0.1835  0.0671  0.2027
42665W        W85718   4.594  18.260  29.080  0.1184  0.1616  0.1378
42666W        W85719  25.179   6.949   6.864  0.0301 -0.1071  0.4158
42667W        W85720   0.258  16.122   2.387 -0.1737  0.2606  0.0251
42668W        W85721  29.574   8.803   6.048 -0.1990  0.3070 -0.0191
42669W        W85722  28.624  25.379   3.677 -0.1377  0.4782 -0.0818
42670W        W85723  15.437  11.143  17.384  0.0626 -0.1112  0.2947
42671W        W85724  24.356  24.678   8.225  0.2636  0.1006  0.0249
42672W        W85725  33.717  17.497  22.560 -0.0336 -0.2884  0.2314
42673W        W85726  25.903  20.349  26.934 -0.1150 -0.1875  0.0493
42674W        W85727   4.142  30.814   3.422  0.0358 -0.0222  0.2413
42675W        W85728  30.024  14.346  26.991 -0.1628  0.0919  0.1290
42676W        W85729  29.283  14.685   6.616  0.1778  0.3174  0.0388
42677W        W85730  27.494  31.573   0.098 -0.1398  0.1260 -0.0530
42678W        W85731  23.732  34.549   2.367 -0.1961 -0.2103  0.1711
42679W        W85732  13.419  16.097  23.686 -0.1888  0.2409  0.1875
42680W        W85733   9.479  14.810   6.608  0.1728 -0.1941 -0.0722
42681W        W85734  30.691  15.723  20.975  0.0924 -0.1987 -0.2137
42682W        W85735  31.182  24.733  24.003 -0.3382 -0.0515  0.0511
42683W        W85736   3.467   8.258   7.726  0.2190  0.2392  0.2131
42684W        W85737  24.704  11.168   8.411 -0.4306  0.2135 -0.1019
42685W        W85738   3.737   9.516   0.732  0.0138 -0.0505  0.0517
42686W        W85739  27.414  11.960   4.104  0.0994  0.0279 -0.1379
42687W        W85740  23.614  29.568  20.509  0.3311  0.0752  0.0279
42688W        W85741   9.239  25.189   9.799 -0.0583 -0.1804  0.1091
42689W        W85742  28.072   0.144   6.865 -0.0110  0.0131  0.0282
42690W        W85743  25.583   9.652   3.663  0.0185  0.1526 -0.0339
42691W        W85744  23.348  14.648   6.416  0.0891 -0.0843 -0.1443
42692W        W85745   4.691  22.613   6.143  0.0734  0.1012  0.0786
42693W        W85746  23.685   6.771   2.233 -0.0063  0.2964 -0.1472
42694W        W85747  21.301   7.641   4.994 -0.0272  0.0244  0.2593
42695W        W85748   4.924   7.851   2.155  0.2173  0.0728  0.2288
42696W        W85749  27.164  16.120   0.728  0.2372  0.3318  0.2259
42697W        W85750  34.232  13.298   8.125 -0.0964  0.0001 -0.1180
42698W        W85751  34.637  13.860  21.966  0.4109  0.1698  0.0558
42699W        W85752  31.313  30.210  21.043  0.0519  0.1048 -0.0830
42700W        W85753  27.583  10.930   3.267  0.1587 -0.1484  0.3891
42701W        W85754  20.400  29.848  27.221  0.1651  0.0366 -0.0057
42702W        W85755  22.093  21.686   2.255 -0.2026  0.1829 -0.2543
42703W        W85756  34.467  12.999  16.991 -0.1895 -0.0822  0.0478
42704W        W85757   9.818   4.803   6.202  0.0059 -0.1103 -0.1373
42705W        W85758   0.541  22.745  24.844 -0.2414 -0.0151  0.1059
42706W        W85759  27.281  11.281   6.230  0.0308 -0.2498  0.2772
42707W        W85760  19.450  19.189   4.552 -0.1686  0.0612 -0.1497
42708W        W85761  24.191  28.349   3.637  0.0479  0.2094  0.0054
42709W        W85762  14.714  26.827   8.981 -0.2993  0.0505  0.1075
42710W        W85763  32.802  29.172  23.471 -0.1342 -0.0776 -0.2569
42711W        W85764  27.115   3.220   0.854  0.0463  0.0474  0.3050
42712W        W85765  24.873  30.820  28.048 -0.3107 -0.0860 -0.3454
42713W        W85766   3.331  16.764   6.571  0.0787 -0.3420  0.1212
42714W        W85767   7.511  14.438   8.773 -0.4618 -0.1412 -0.1400
42715W        W85768  26.084   5.430  25.133 -0.0745  0.0272 -0.3008
42716W        W85769  19.230   6.821  22.178  0.0319 -0.1363  0.2808
42717W        W85770  23.247  19.374   7.922  0.3974  0.1125 -0.1943
42718W        W85771  30.455   0.634   0.036  0.1627  0.1957  0.0499
42719W        W85772  26.402  33.092   8.835  0.6165 -0.0160  0.2709
42720W        W85773  32.967  12.895   6.124 -0.4484  0.0984  0.0688
42721W        W85774  21.679  14.954  18.684 -0.1804  0.0224 -0.0929
42722W        W85775  24.757  18.812  24.634  0.0911  0.0103 -0.0256
42723W        W85776  19.697  14.574  24.993 -0.4313 -0.4345 -0.1535
42724W        W85777  24.993  33.523  15.803 -0.0274  0.1878  0.2701
42725W        W85778  17.483   1.796  22.124  0.0215 -0.2349 -0.2613
42726W        W85779   4.355  13.979  28.044  0.1260  0.0592 -0.2295
42727W        W85780  22.508  18.213  24.423  0.0425  0.1329  0.1570
42728W        W85781  27.972  30.168  28.639 -0.2645  0.0288  0.0749
42729W        W85782  21.933   8.660  21.287  0.4123 -0.0154 -0.3428
42730W        W85783  16.077  26.437  17.724 -0.0699  0.1720 -0.1777
42731W        W85784  19.330  14.853   9.114 -0.0764 -0.0335 -0.2903
42732W        W85785  25.630  22.964  16.959 -0.1302 -0.1426 -0.0462
42733W        W85786  26.949  11.751  17.525  0.0870  0.2816 -0.2151
42734W        W85787  33.582  10.562  28.433  0.0441  0.2793 -0.1085
42735W        W85788   3.779  23.026  28.171  0.2554 -0.1977 -0.1296
42736W        W85789  23.311   5.445  23.069 -0.1510  0.3999  0.3451
42737W        W85790  11.505  18.398   9.685  0.0493  0.1273  0.3970
42738W        W85791  30.982  12.830  27.083 -0.3030  0.1680 -0.0190
42739W        W85792  28.198  17.116  13.604  0.1038  0.1118  0.2321
42740W        W85793   4.573   1.566   7.277 -0.0454 -0.1254  0.2823
42741W        W85794   9.584   8.742   0.393  0.2224  0.0403  0.0411
42742W        W85795  21.064  32.186   5.238  0.1771 -0.0148 -0.1496
42743W        W85796   0.675  34.192  24.146  0.0610 -0.1328 -0.1269
42744W        W85797  29.239   7.637   9.443  0.0084 -0.0298  0.2240
42745W        W85798  10.330  14.872   7.395 -0.0332  0.0944  0.1479
42746W        W85799  20.296   4.397   6.403 -0.3806 -0.0304 -0.3265
42747W        W85800   8.018   6.111  28.904 -0.1910  0.3528  0.0930
42748W        W85801  30.685  24.822  28.246  0.2394 -0.1455 -0.0453
42749W        W85802  28.529  16.337   4.977  0.2532  0.2400  0.0924
42750W        W85803  30.407  11.123   0.942 -0.0121 -0.0030  0.1630
42751W        W85804  33.208  11.180  21.751  0.2603  0.0378  0.3157
42752W        W85805  26.014  27.092   3.622  0.0871 -0.1679 -0.1367
42753W        W85806  31.671  12.922   8.203 -0.0250  0.5437  0.1820
42754W        W85807  28.457   2.600   6.830  0.0948  0.2110  0.0153
42755W        W85808  32.750  11.093   0.151 -0.1094  0.0828 -0.0093
42756W        W85809  22.957  11.409  22.015  0.0169  0.1558 -0.1724
42757W        W85810   6.766   4.892   1.718 -0.0822  0.1669  0.1090
42758W        W85811  33.137  26.638   1.014 -0.2056  0.0326 -0.0374
42759W        W85812   7.769  10.509   4.919  0.0704 -0.2749  0.0154
42760W        W85813   3.024   7.633   8.686 -0.0206 -0.2294 -0.1662
42761W        W85814  32.854  24.478  13.800  0.0013  0.0088  0.0421
42762W        W85815  34.251  11.197  23.034  0.0045  0.1587  0.0770
42763W        W85816   7.584  14.683   7.636 -0.1528  0.3088 -0.1483
42764W        W85817  33.089   1.532  27.251  0.1837 -0.1922 -0.1075
42765W        W85818   6.815  34.132  25.889  0.1514 -0.1915  0.0405
42766W        W85819  27.066  15.981  20.596 -0.0434 -0.0297  0.0564
42767W        W85820  16.024  30.196   9.955  0.1258  0.1447 -0.1904
42768W        W85821   6.843   8.147   2.865 -0.1061 -0.0661  0.2127
42769W        W85822  24.329  10.985  18.401 -0.0024 -0.1269 -0.3300
42770W        W85823  23.905   9.533   7.765  0.3331  0.2034  0.1720
42771W        W85824  22.117   0.223   2.904 -0.0154 -0.0421 -0.1683
42772W        W85825   9.441  27.387  28.787 -0.0248 -0.0600  0.2487
42773W        W85826  34.026  31.477  17.034 -0.2666  0.0863  0.3057
42774W        W85827   3.928  18.971  20.860 -0.2205  0.0790  0.0555
42775W        W85828  27.446   8.150   8.301 -0.0555 -0.0287  0.0636
42776W        W85829  26.016  15.101  18.416  0.0633 -0.4026 -0.1131
42777W        W85830  22.566  13.565   7.030  0.0178  0.2240 -0.1940
42778W        W85831  25.491   5.374  23.190  0.0155 -0.0605  0.0057
42779W        W85832  33.159   8.351  26.280 -0.3706  0.3177  0.2038
42780W        W85833  30.676  26.019  28.342  0.3117 -0.0918 -0.2000
42781W        W85834  25.184  15.125   4.965  0.0615 -0.0773  0.2054
42782W        W85835  11.413  11.315  26.349  0.0119  0.1815 -0.1945
42783W        W85836  31.076  31.666   3.532  0.1485  0.0206 -0.0335
42784W        W85837   0.186   7.148  26.740 -0.1300 -0.1862  0.1278
42785W        W85838  21.924   5.679  18.599 -0.1301  0.0510  0.1737
42786W        W85839   0.751  31.633  27.280 -0.1356  0.0885 -0.0961
42787W        W85840  31.352  23.731  14.748 -0.0698 -0.3642  0.2989
42788W        W85841   4.261   2.538   6.651 -0.2779  0.0015 -0.1965
42789W        W85842   1.130   5.524  20.775 -0.0682 -0.0829 -0.2069
42790W        W85843   4.905   9.337   8.115 -0.3421  0.0758  0.0766
42791W        W85844  28.137  16.559   5.759  0.2074 -0.1441  0.0973
42792W        W85845  28.868   9.164  22.646 -0.0880  0.2628 -0.0671
42793W        W85846  21.276   7.630  28.989 -0.0044 -0.3362 -0.0282
42794W        W85847   1.931  11.418  15.327  0.2907 -0.0370 -0.0062
42795W        W85848  28.071  31.771  18.707 -0.0766  0.0432 -0.1403
42796W        W85849  29.290  18.979   8.697  0.2039  0.0163 -0.1463
42797W        W85850  29.038  15.149   0.918  0.0220  0.1221  0.1482
42798W        W85851   4.721   9.357   5.224  0.2181 -0.2960 -0.3232
42799W        W85852  27.069  21.168   3.233 -0.6166  0.2388  0.0841
42800W        W85853  21.190  11.018   7.666 -0.1208  0.1361  0.3169
42801W        W85854   0.368  28.735  13.768  0.2822 -0.3059  0.3536
42802W        W85855  30.569   4.213   1.700  0.3651 -0.1457 -0.0324
42803W        W85856   6.082   2.916  24.824 -0.3148 -0.0356  0.2830
42804W        W85857   7.920  17.883   2.550 -0.0284 -0.1987 -0.1975
42805W        W85858  30.772  23.754  18.219  0.0576 -0.0707  0.2859
42806W        W85859  14.536   5.055  22.519 -0.1958  0.0547 -0.1415
42807W        W85860   7.021  33.813   6.297 -0.2208  0.1398  0.0120
42808W        W85861  22.108   3.670  27.972 -0.3509 -0.0108 -0.0526
42809W        W85862   2.402   3.568  25.259  0.1379 -0.0604  0.1941
42810W        W85863  10.990   3.136   5.689 -0.1506  0.2416 -0.0984
42811W        W85864  28.360   9.969  21.005  0.1431 -0.4025 -0.0001
42812W        W85865  32.258   1.943  21.133  0.0061  0.1181 -0.0281
42813W        W85866  33.081   4.794  17.585 -0.1081  0.2496 -0.0529
42814W        W85867  20.666  18.923  25.324  0.1497  0.0800 -0.0553
42815W        W85868   5.644   7.121   2.246 -0.0976  0.0968  0.5538
42816W        W85869  30.258   1.714  26.541 -0.1213 -0.0120  0.2610
42817W        W85870   2.579  13.317   4.372 -0.1729 -0.1604 -0.1836
42818W        W85871  18.011  31.860   4.730 -0.2398 -0.0719  0.1347
42819W        W85872   2.629  34.622  27.919  0.2361  0.0203  0.3367
42820W        W85873  20.073   7.094  15.385 -0.2891 -0.2884  0.0209
42821W        W85874  31.659  12.270   8.091 -0.1068 -0.0664  0.0089
42822W        W85875   2.070   9.406  23.006  0.0181 -0.1511 -0.2328
42823W        W85876  21.711   0.205  19.863 -0.1507  0.0258 -0.1892
42824W        W85877  33.374  13.085   5.925 -0.1645  0.0429 -0.5326
42825W        W85878   2.254  12.197  25.636 -0.2307 -0.1383 -0.1037
42826W        W85879  20.339  23.739   3.451 -0.4170  0.0545 -0.4264
42827W        W85880  31.652   6.827   8.095  0.0876 -0.2196  0.1653
42828W        W85881  18.836  16.109   4.939  0.1065  0.4301  0.0640
42829W        W85882  33.592  32.556   6.717  0.5453  0.0942  0.1195
42830W        W85883  10.146  28.355  28.547 -0.2101  0.0272 -0.1660
42831W        W85884  25.950  14.560  19.899 -0.1104 -0.1946  0.2722
42832W        W85885  23.363  17.041   6.497 -0.0219 -0.1467  0.0746
42833W        W85886   0.990  20.126   8.303  0.0409  0.0592  0.2153
42834W        W85887  31.848   4.818  25.979  0.0518 -0.2373 -0.2505
42835W        W85888  19.622   6.003  22.094  0.0839  0.1394 -0.1957
42836W        W85889  34.683  12.691  17.553  0.2372  0.0166 -0.1759
42837W        W85890  28.410  17.584   5.681 -0.2033  0.1880  0.0838
42838W        W85891  34.501   2.284   2.703  0.2646 -0.1495  0.0277
42839W        W85892  31.028  10.840   7.362  0.0691  0.3994 -0.0072
42840W        W85893  24.000   6.217  22.264  0.1461  0.1687  0.0585
42841W        W85894   1.619  31.084   0.861 -0.0008  0.1592  0.0288
42842W        W85895  25.756  11.029   8.818  0.0514 -0.0441 -0.0043
42843W        W85896  18.519   2.777  29.174 -0.0035  0.0882  0.2282
42844W        W85897   2.251  14.004   3.950  0.1859 -0.1558  0.1511
42845W        W85898  14.996  14.072  24.252 -0.2737 -0.2325 -0.2287
42846W        W85899  24.391  18.771   0.843 -0.2335  0.2078 -0.0953
42847W        W85900  25.402   7.754  21.746 -0.0650  0.2882  0.0150
42848W        W85901  30.083  12.551   0.010  0.2716 -0.3197  0.0266
42849W        W85902  34.556  34.608  24.030 -0.3433 -0.0842  0.3284
42850W        W85903  25.375  23.096   3.035 -0.3167  0.1301 -0.2116
42851W        W85904  25.841  13.861   7.285 -0.0639  0.1031  0.0239
42852W        W85905  32.685   8.352   0.398  0.0595  0.2151  0.1807
42853W        W85906  18.455  12.777   3.167 -0.0276 -0.0580  0.0955
42854W        W85907  33.675   5.340   2.190 -0.0162  0.4876 -0.1607
42855W        W85908  12.895  16.938   2.322 -0.1457 -0.1746 -0.0768
42856W        W85909  30.757   6.066  14.590  0.0375 -0.0531 -0.4171
42857W        W85910  30.204   9.573   2.612  0.1082 -0.0977  0.0732
42858W        W85911  25.928  14.495   6.671  0.2988 -0.1501 -0.0912
42859W        W85912  22.654  29.697  21.143 -0.2204 -0.0192  0.0073
42860W        W85913  27.871   5.639   7.149 -0.2523 -0.1887 -0.1706
42861W        W85914  29.676  28.677   4.715  0.2429  0.2326  0.1959
42862W        W85915  24.505  34.676  23.171  0.1654 -0.3235 -0.1024
42863W        W85916  16.678   6.997  22.739  0.5179 -0.1902  0.0299
42864W        W85917  21.034   7.810   2.584  0.0035  0.3707  0.2020
42865W        W85918  31.380  11.655  27.002 -0.1693 -0.1102  0.3028
42866W        W85919   0.557  29.435   4.987 -0.0538  0.2290 -0.0917
42867W        W85920  34.542  14.694   1.808 -0.0251 -0.0588 -0.2297
42868W        W85921  17.515   6.974   8.922 -0.1394 -0.1917 -0.0864
42869W        W85922  15.771  23.916  24.459 -0.3553 -0.2556 -0.1725
42870W        W85923  23.979  14.099   1.466  0.2613 -0.3923  0.0991
42871W        W85924  15.610  15.186  26.537 -0.0920 -0.4916  0.1012
42872W        W85925  28.181  18.509   6.710 -0.0865  0.1165 -0.1797
42873W        W85926  32.363   7.514   7.920 -0.2457  0.0173 -0.1182
42874W        W85927   8.958   9.945  14.948  0.2501 -0.1748  0.3687
42875W        W85928  25.304  19.812  25.534  0.1583 -0.3168 -0.2341
42876W        W85929  25.604  16.235  28.568  0.0995 -0.0991  0.0117
42877W        W85930  16.872  12.806   7.505  0.0709 -0.0566  0.3385
42878W        W85931  25.488  22.744   8.075 -0.2627  0.0854  0.0802
42879W        W85932  32.921  10.851   2.401  0.0559 -0.1413 -0.0338
42880W        W85933   2.772  16.492   3.266 -0.0902  0.0150  0.0027
42881W        W85934  34.552  30.567  27.477  0.1758 -0.0337  0.2139
42882W        W85935  15.121   5.736   1.847  0.1113  0.2006  0.2183
42883W        W85936  22.170  16.449   0.767 -0.0477 -0.1506  0.0649
42884W        W85937  13.064  25.510  25.393  0.0611  0.0460 -0.0777
42885W        W85938  33.168  20.855  21.566  0.0324 -0.1567 -0.1456
42886W        W85939  12.535  16.083   8.111  0.0028  0.0166  0.1370
42887W        W85940  18.744  32.316   5.598  0.0936  0.5419 -0.0824
42888W        W85941  26.550  14.447   6.080 -0.1965 -0.0929  0.5234
42889W        W85942  25.380  17.332  23.686 -0.1214 -0.3025  0.4064
42890W        W85943  20.404  14.499   8.190  0.3206  0.1354 -0.1391
42891W        W85944  19.467   8.992   8.026  0.1812 -0.1026 -0.1470
42892W        W85945  30.153   4.331   2.985  0.1393 -0.1667 -0.0074
42893W        W85946   7.305  14.897   7.979  0.3921 -0.1210 -0.3327
42894W        W85947  26.525  10.651  24.053  0.0975 -0.0576  0.1051
42895W        W85948  34.229  32.730   9.661  0.1085 -0.1620  0.2178
42896W        W85949  31.662  12.423  28.221  0.1034 -0.0284 -0.0634
42897W        W85950  33.935  34.389   6.947 -0.0371 -0.3592  0.2615
42898W        W85951  29.809   2.730  24.449 -0.3312  0.0026  0.1067
42899W        W85952  31.795  18.193   9.479 -0.2787  0.1528 -0.0938
42900W        W85953   6.204   6.503   6.307 -0.2407  0.1214  0.1816
42901W        W85954  19.165  11.465  15.223  0.0550 -0.0794 -0.0723
42902W        W85955  12.318   5.303   0.765 -0.0645  0.1200  0.0294
42903W        W85956  22.560  17.294   9.527 -0.0932  0.2475  0.3244
42904W        W85957  24.747   6.236   2.782  0.2134  0.2311  0.1169
42905W        W85958  28.390  20.660   4.705  0.0911  0.1198 -0.2434
42906W        W85959  30.303  27.258  26.020  0.2486  0.1344 -0.2238
42907W        W85960  31.472  15.132   8.592  0.1786 -0.0530 -0.0480
42908W        W85961   2.417   4.639   6.012 -0.0292  0.0658  0.0899
42909W        W85962  28.165  17.470   0.065  0.1461  0.3541  0.0339
42910W        W85963   5.784   3.829  10.301  0.0336  0.2139  0.0168
42911W        W85964  15.674  12.834   2.654 -0.1472  0.0006  0.1399
42912W        W85965   3.706  13.777  22.154  0.2603  0.2498 -0.0620
42913W        W85966   6.088  32.875  25.767 -0.2509 -0.0458 -0.0291
42914W        W85967  16.708   5.832  21.424 -0.1532 -0.3154  0.0041
42915W        W85968   2.422  13.764   5.849  0.3708 -0.0829  0.1288
42916W        W85969  27.650  12.549   4.858 -0.2579 -0.1398 -0.2306
42917W        W85970  21.363  22.738  28.924 -0.0777  0.1141 -0.2172
42918W        W85971   3.835  29.426  18.771  0.2955 -0.1031 -0.1686
42919W        W85972  27.627   2.605  16.908 -0.0908 -0.0161 -0.3839
42920W        W85973   5.247  32.167   6.410  0.0444 -0.0411 -0.3183
42921W        W85974  25.371  33.844   7.652  0.0760  0.0980  0.0822
42922W        W85975  21.907  13.854   3.954 -0.2134  0.0931 -0.0859
42923W        W85976  32.428   1.009   8.854  0.1124 -0.0267 -0.4984
42924W        W85977  27.369  30.625   2.832  0.0931  0.0059 -0.1741
42925W        W85978  29.132  22.380   6.254  0.3426  0.0438 -0.3233
42926W        W85979  27.631  10.583   2.900 -0.3815  0.1856  0.0623
42927W        W85980  17.212  24.271  27.779  0.1085 -0.1140 -0.2990
42928W        W85981  28.689  12.238   5.464 -0.3427  0.0578 -0.2426
42929W        W85982  19.358  17.951   0.001 -0.3335 -0.1530 -0.0614
42930W        W85983  17.610  16.293   2.282  0.1814  0.1388  0.1303
42931W        W85984  31.227   1.675  28.978  0.0683  0.0147 -0.1769
42932W        W85985  16.590  12.698   8.259 -0.1979  0.1398  0.1406
42933W        W85986  11.319  26.031  25.453 -0.1161 -0.1010 -0.2658
42934W        W85987  28.019  10.639  10.668 -0.0570 -0.0428 -0.0163
42935W        W85988   6.199  17.137  13.249  0.2693 -0.2528  0.1719
42936W        W85989  12.596  16.050  10.128  0.0251  0.0731  0.0921
42937W        W85990  29.577   2.749   0.133 -0.2164 -0.1361 -0.2936
42938W        W85991  10.303  16.408   1.185 -0.0037  0.0812  0.0083
42939W        W85992   0.600  14.086  23.982  0.4659 -0.1357  0.0818
42940W        W85993  28.950  13.849   7.676  0.1542 -0.0403 -0.1657
42941W        W85994  32.012  24.442   3.167  0.2866 -0.0763 -0.0830
42942W        W85995  33.343   5.267   8.814 -0.1373 -0.2294  0.1975
42943W        W85996   4.311  17.133   5.351  0.5585  0.1407  0.1575
42944W        W85997   2.462  11.909   6.862  0.1771  0.0269  0.2059
42945W        W85998  18.987   5.183   5.084 -0.0015 -0.1602 -0.1953
42946W        W85999  27.554   9.151   8.811 -0.1272  0.1057 -0.2095
42947W        W86000   5.643  10.924   9.586  0.1278  0.2811 -0.1293
42948W        W86001  32.141  12.901   3.693  0.0602 -0.1816 -0.3130
42949W        W86002  24.646   8.154  26.189 -0.2821  0.2882 -0.0864
42950W        W86003   0.266   8.921  27.230  0.0735  0.0119  0.1203
42951W        W86004  15.704   4.832   0.607  0.0269 -0.2716 -0.2639
42952W        W86005   4.213  17.381   6.120 -0.0929  0.0800 -0.0407
42953W        W86006  23.539  26.351   3.157 -0.1158  0.0533  0.0330
42954W        W86007  19.438  16.242   6.880 -0.0176  0.3518  0.0281
42955W        W86008  33.031  16.980   1.475 -0.1048  0.2022 -0.5174
42956W        W86009   5.308  32.862   5.971 -0.0270 -0.0140  0.2435
42957W        W86010  31.944  11.917   9.771  0.0779  0.1092 -0.1164
42958W        W86011  27.066  32.012   4.005  0.1170 -0.3877 -0.1206
42959W        W86012  32.894  12.462   8.742  0.1666 -0.0907  0.1245
42960W        W86013  32.540  24.911   9.642  0.0107 -0.1363  0.3768
42961W        W86014  32.914  13.466  22.530 -0.3238  0.1387  0.2861
42962W        W86015  23.507   1.113   7.507 -0.0019  0.2727  0.2884
42963W        W86016   4.302   6.944   6.124 -0.0996 -0.2293 -0.0022
42964W        W86017   5.235  32.793   1.107 -0.2445 -0.0966 -0.1589
42965W        W86018   2.665   6.524   2.492  0.0234 -0.1549  0.1193
42966W        W86019  14.724  31.728   9.369 -0.0430 -0.0830  0.0037
42967W        W86020  21.977  18.915   6.155 -0.3113  0.0678  0.2693
42968W        W86021  23.856  23.537   1.898 -0.0647 -0.1825 -0.1807
42969W        W86022  16.540  34.237  28.438  0.5411  0.0379 -0.2731
42970W        W86023  26.832  10.472   3.908 -0.3742  0.0865 -0.1017
42971W        W86024   0.649  14.381   7.670  0.0909  0.1378  0.1971
42972W        W86025   4.169   1.345   9.155 -0.0071  0.1197  0.1662
42973W        W86026   3.396   8.213  27.442  0.1970 -0.0792  0.0245
42974W        W86027   9.473  31.796   5.055  0.0966 -0.0172 -0.0874
42975W        W86028  30.387   3.577   5.098  0.2929  0.1603 -0.0422
42976W        W86029  21.674   3.923   9.968  0.0376 -0.1424 -0.1047
42977W        W86030  26.258   2.411   8.018  0.1856 -0.0378  0.1861
42978W        W86031   7.749  12.291   7.714  0.0919 -0.1585 -0.0669
42979W        W86032  31.542   9.316  10.177  0.2340 -0.0396 -0.1419
42980W        W86033  24.941   2.964  26.030  0.3333 -0.0551  0.2838
42981W        W86034   0.023  16.376   3.882 -0.0300  0.1144  0.1707
42982W        W86035   5.056   4.518   4.396 -0.0727  0.0261  0.1012
42983W        W86036  15.380  15.648   6.956  0.0433 -0.1084  0.0426
42984W        W86037   4.055  12.397   1.828 -0.2749 -0.1982 -0.0417
42985W        W86038  30.705  16.735   0.355 -0.0737 -0.0916  0.1317
42986W        W86039  14.362  16.286  22.754  0.2405  0.1377 -0.0944
42987W        W86040  27.202  22.014   9.850 -0.0979 -0.1689 -0.2245
42988W        W86041  25.001  20.903  16.929  0.0517  0.2948 -0.1683
42989W        W86042   8.148   7.949  27.021  0.2026  0.1576 -0.3570
42990W        W86043  34.600  33.599  25.029 -0.2566 -0.2564 -0.1940
42991W        W86044  23.903   9.512   4.136 -0.0257  0.3703 -0.1130
42992W        W86045  23.812   1.139  23.913 -0.2009  0.0597  0.0828
42993W        W86046  16.745  18.889  27.343 -0.1501 -0.1238  0.1043
42994W        W86047  32.425  12.567   0.548 -0.1318 -0.3343  0.1705
42995W        W86048  17.815  12.931  26.513 -0.3189 -0.3545 -0.1533
42996W        W86049  27.839  13.972   4.383  0.1452  0.2342  0.0049
42997W        W86050  33.185  15.467  10.239 -0.0078  0.2667 -0.2105
42998W        W86051  29.159   6.646  10.475 -0.4439  0.1185 -0.0717
42999W        W86052   5.906  30.533   5.542 -0.0604 -0.1933 -0.0087
43000W        W86053  19.111   8.216   2.226  0.0734 -0.0799 -0.0058
43001W        W86054  28.023  17.390   0.645  0.3603  0.1914  0.2677
43002W        W86055  26.104  13.171  10.747  0.5134 -0.0331  0.2065
43003W        W86056  33.285  14.970  17.293 -0.0431 -0.0191 -0.3928
43004W        W86057   6.274   1.482   9.759 -0.1283  0.0220 -0.0021
43005W        W86058  23.080  31.254   1.940  0.0557 -0.4471  0.1038
43006W        W86059  28.648  21.786  15.905  0.1216  0.1215 -0.3001
43007W        W86060  25.990  30.046   7.492 -0.0131 -0.0453  0.1980
43008W        W86061   2.351  30.002   9.759  0.1623  0.1872  0.0761
43009W        W86062  27.640   8.563  24.182  0.1346 -0.0137 -0.0866
43010W        W86063   5.253   1.062  28.426  0.0383 -0.1668  0.1973
43011W        W86064  21.636  25.567   3.370  0.0311 -0.1725 -0.1883
43012W        W86065   0.827   4.532   7.843  0.1157 -0.0208  0.2166
43013W        W86066  22.943   6.128   6.549  0.1913 -0.0229 -0.1385
43014W        W86067  27.064   5.716  18.766 -0.0734 -0.2022 -0.0272
43015W        W86068  14.913  16.467  28.804  0.2346  0.1554 -0.4061
43016W        W86069  18.698  20.283   1.535  0.0185  0.1693 -0.1251
43017W        W86070  32.174  12.174   8.063 -0.1536  0.0184 -0.0668
43018W        W86071  22.376  10.308   7.825  0.1720 -0.1354 -0.0731
43019W        W86072  17.696  12.204   7.712 -0.1148  0.0371  0.2662
43020W        W86073  32.104  10.612  28.918  0.2175  0.0875 -0.2724
43021W        W86074  27.126  25.283  21.251 -0.0698 -0.0013  0.0738
43022W        W86075  28.413  14.887   7.326  0.0002 -0.0255  0.3934
43023W        W86076  11.528  11.080  10.969 -0.1760  0.2052 -0.2771
43024W        W86077   3.567   9.530  26.273 -0.1162  0.3009  0.0102
43025W        W86078  27.551   8.611  25.584 -0.2585  0.1377 -0.0767
43026W        W86079  27.190  13.746  25.345  0.0964  0.3856 -0.3502
43027W        W86080   9.936  23.251   4.077 -0.0994 -0.2144  0.0149
43028W        W86081  26.666  22.446  19.859  0.1591 -0.0915 -0.1126
43029W        W86082   1.834   8.048   4.895 -0.0656 -0.0294  0.0396
43030W        W86083  31.241  17.295   9.715  0.1387  0.0277 -0.1728
43031W        W86084  14.196   6.162  17.589 -0.0243  0.1593  0.2358
43032W        W86085  18.170  30.421   2.446  0.0096 -0.2618  0.0558
43033W        W86086  29.709   3.756  29.143 -0.0658 -0.1501 -0.0181
43034W        W86087  23.626  32.007  26.056  0.0685 -0.2847 -0.0217
43035W        W86088  34.645   1.043   3.473  0.3378 -0.0208  0.2567
43036W        W86089  32.813   1.864   7.182  0.0449  0.0334 -0.0848
43037W        W86090  31.842  12.973  18.514  0.0246  0.1676 -0.1541
43038W        W86091  27.469  25.639   0.694  0.0534 -0.3120 -0.0841
43039W        W86092   3.457  30.698   4.719  0.0930 -0.0829 -0.4348
43040W        W86093  11.973   9.200   2.611 -0.0194  0.0752 -0.4065
43041W        W86094  29.688  31.675  15.874 -0.1256  0.1059 -0.0426
43042W        W86095  23.792  12.866   5.667  0.1842  0.1798 -0.1705
43043W        W86096  25.326   9.686   7.249  0.5548 -0.0755  0.1595
43044W        W86097  31.527   2.399   7.011 -0.2158  0.0420  0.0679
43045W        W86098  14.609   3.387   8.686  0.1098 -0.0824 -0.0024
43046W        W86099  29.756  30.035   3.797 -0.0579 -0.0070  0.3493
43047W        W86100   3.107   3.092   3.565  0.1305  0.2555  0.0519
43048W        W86101  23.607   6.919   5.207  0.0345  0.1208  0.0163
43049W        W86102   1.972   1.443   7.270 -0.0450  0.3784 -0.2181
43050W        W86103   7.714  34.445   6.352  0.0041 -0.1031  0.1073
43051W        W86104  22.404   8.362   3.317 -0.3554  0.0533  0.0112
43052W        W86105  23.995   4.702   7.301  0.1312 -0.1790 -0.1946
43053W        W86106  14.473   3.685   2.917 -0.1351 -0.0609  0.2649
43054W        W86107  17.209  33.474   3.723 -0.0338 -0.0853  0.0195
43055W        W86108  25.556  18.938   7.194  0.0274  0.0222  0.1782
43056W        W86109  21.859  33.168   8.697 -0.1533  0.0144 -0.0104
43057W        W86110  17.328   7.050  25.053  0.2364  0.1127 -0.1891
43058W        W86111   6.062  20.178   4.192  0.3043  0.0870  0.2849
43059W        W86112  28.212   7.309   4.608  0.0630 -0.2096 -0.0364
43060W        W86113  20.170  30.577   8.392  0.0586 -0.0090 -0.2295
43061W        W86114  28.688   5.195   3.493 -0.0342 -0.1430  0.0258
43062W        W86115  20.547   7.141   9.087  0.1166 -0.0161 -0.2989
43063W        W86116   2.993  26.462   2.966 -0.0258  0.0644 -0.0819
43064W        W86117   2.159  12.725   8.630 -0.0469  0.1737  0.1139
43065W        W86118   4.064  34.341   8.832 -0.0953 -0.1403 -0.2168
43066W        W86119  21.967  19.677   0.350 -0.1180 -0.1338  0.4533
43067W        W86120   6.510  17.858   6.622 -0.0313  0.1069 -0.2455
43068W        W86121   5.163   8.888  24.276 -0.0038  0.1576  0.1261
43069W        W86122  33.755  22.283  24.682  0.0395  0.4490  0.3594
43070W        W86123  21.274  22.701   1.195 -0.2509 -0.4449  0.2148
43071W        W86124  30.601  27.859   5.197  0.0913  0.0421 -0.2495
43072W        W86125  33.922  18.493   0.184  0.0000  0.1075  0.0520
43073W        W86126   5.719   4.901  28.871  0.0172 -0.1105 -0.2639
43074W        W86127   3.943  29.083   7.776  0.0464 -0.0604 -0.0095
43075W        W86128  10.361   7.195   0.537 -0.0391 -0.0152  0.0042
43076W        W86129  30.026  25.536   5.302 -0.1107 -0.2586  0.0792
43077W        W86130  30.753  24.156   3.429  0.1963 -0.1300  0.1592
43078W        W86131  20.478  10.143   1.134 -0.1667 -0.2439 -0.0514
43079W        W86132  16.586   3.443   5.682  0.3597 -0.1631 -0.2037
43080W        W86133   0.040  18.593   3.961  0.1541 -0.0597  0.4384
43081W        W86134  19.049   5.747   3.711  0.0603  0.1856  0.2668
43082W        W86135  22.857   2.228   6.459 -0.2106  0.0811  0.0764
43083W        W86136   5.099  15.160   1.232 -0.0516 -0.2050  0.1136
43084W        W86137  32.807  10.582  10.991  0.1295 -0.1148  0.1299
43085W        W86138   9.175  27.282   4.641 -0.0901  0.4130  0.0413
43086W        W86139  13.170   1.903   8.280 -0.2015 -0.2573  0.1446
43087W        W86140  33.149  25.505   5.795  0.3408  0.2923 -0.2712
43088W        W86141  26.350  30.867  25.604  0.2154 -0.0009 -0.0605
43089W        W86142  21.043  11.713   1.841  0.3656 -0.1277  0.1734
43090W        W86143  33.890   9.674   1.474  0.3993 -0.1418 -0.1724
43091W        W86144   2.123  10.138  17.835 -0.1560 -0.1774 -0.0915
43092W        W86145   6.350   3.077   9.371 -0.1615  0.3791 -0.4382
43093W        W86146  26.005  11.383   9.484 -0.1634 -0.2043 -0.2489
43094W        W86147  19.002  15.152   2.423  0.2056  0.3222 -0.1570
43095W        W86148  30.132   8.424   5.966  0.0070  0.7019 -0.2880
43096W        W86149  18.450  27.826   3.670 -0.2156 -0.1056 -0.1394
43097W        W86150  25.264   7.347   8.540 -0.4153 -0.3037  0.0301
43098W        W86151  29.206   3.980   2.797 -0.0432 -0.0427 -0.4083
43099W        W86152  23.732   3.374   1.364 -0.0668  0.2272 -0.1871
43100W        W86153  33.014  27.378   8.057  0.1313  0.1187 -0.2888
43101W        W86154  28.191   4.605   5.949  0.1939 -0.0752 -0.1046
43102W        W86155  24.177   5.115   8.548 -0.0617 -0.3433 -0.3253
43103W        W86156   7.971   0.734   9.008  0.1777 -0.0736  0.1862
43104W        W86157   3.373  16.059  24.541 -0.1410  0.1715  0.0697
43105W        W86158  18.762  20.380   0.590  0.1759 -0.5530 -0.0054
43106W        W86159   6.661   6.898   0.407 -0.5144 -0.2302  0.1494
43107W        W86160  30.384   7.356   8.688  0.3968  0.3096 -0.6113
43108W        W86161  18.429  18.340   9.091 -0.0224  0.1708 -0.1706
43109W        W86162  25.731   6.463   5.809  0.1916  0.1183  0.0072
43110W        W86163   8.980  30.291   4.870 -0.0920 -0.1933 -0.2183
43111W        W86164  29.810  13.476   9.272  0.0959 -0.0274  0.0917
43112W        W86165  25.334  11.009   4.691  0.2226 -0.3019 -0.1523
43113W        W86166  22.754  29.614   3.322  0.0151  0.1595  0.1425
43114W        W86167  34.477   9.082   3.603 -0.0779  0.1846 -0.3956
43115W        W86168  29.676   2.402   4.132  0.2062  0.2042 -0.1104
43116W        W86169  30.538  15.688   5.893  0.1742  0.3595 -0.2186
43117W        W86170  24.819  33.798  26.457  0.0769 -0.0976 -0.1616
43118W        W86171  34.098   4.951   6.942 -0.1258 -0.0714  0.0593
43119W        W86172   2.601  17.610   6.839 -0.1307 -0.4789  0.3243
43120W        W86173  33.211  11.347  10.758 -0.1523 -0.2804  0.0008
43121W        W86174  14.672  32.844  14.183  0.0613 -0.1792  0.0102
43122W        W86175  31.055   9.108  23.803  0.0703  0.1034  0.2353
43123W        W86176  11.177  12.725  28.874 -0.1436  0.2694 -0.2203
43124W        W86177  14.337  12.494   9.082  0.0761 -0.2414 -0.1125
43125W        W86178  33.468  19.058   9.217 -0.1066  0.1107  0.1766
43126W        W86179   1.812   1.082   0.557  0.0491 -0.1427  0.0530
43127W        W86180   8.982  14.455   3.945  0.1168  0.0714 -0.0144
43128W        W86181  10.277  33.199   1.145  0.2980 -0.0434 -0.0835
43129W        W86182  22.410   9.636  17.350 -0.3916 -0.1140  0.1330
43130W        W86183  30.908  31.410   1.213  0.0189  0.0529 -0.1846
43131W        W86184   8.066   7.088   9.265 -0.1215 -0.2349 -0.0827
43132W        W86185  24.724   6.863  22.301  0.1147  0.0381 -0.0769
43133W        W86186  11.360   4.479   5.225  0.0502 -0.1274 -0.1132
43134W        W86187  29.163   7.155   4.753  0.1338  0.0541  0.0918
43135W        W86188   8.874  27.543   4.178  0.0365 -0.1830  0.3588
43136W        W86189  22.674  17.298  26.109 -0.0037  0.0086 -0.2168
43137W        W86190   2.146  22.173  23.290  0.2524 -0.0576  0.0727
43138W        W86191   3.366   5.862  27.597  0.0516  0.2659  0.0154
43139W        W86192  14.737   7.685   9.475 -0.0303 -0.2251  0.2272
43140W        W86193  29.121   2.526   3.123 -0.0717  0.0273  0.1680
43141W        W86194   2.066   9.987  29.136  0.2835 -0.0834 -0.2299
43142W        W86195   5.819  17.084   5.563  0.1518  0.1587  0.0466
43143W        W86196  31.517   9.852   1.604  0.1305  0.0491 -0.0131
43144W        W86197  15.298   7.124   7.931  0.0456 -0.1088 -0.0672
43145W        W86198  24.678  32.013  29.020  0.1371 -0.1829 -0.2193
43146W        W86199  11.381   8.727  27.995  0.0846  0.3495 -0.0529
43147W        W86200  32.163   5.672  27.477  0.0450 -0.0351  0.0884
43148W        W86201  21.781   5.220   4.731  0.0019 -0.0118 -0.1948
43149W        W86202  19.971  11.002   6.805 -0.0434  0.0141 -0.0232
43150W        W86203   0.558  32.548   4.886 -0.3630  0.1019  0.0040
43151W        W86204  17.742   1.718  24.802  0.0265  0.2503 -0.0854
43152W        W86205  19.227   7.819   7.501  0.0615 -0.4134 -0.2051
43153W        W86206   6.690   5.967   8.494 -0.1443 -0.1217 -0.0685
43154W        W86207  27.716  10.410   2.260 -0.4254  0.4658 -0.1719
43155W        W86208   1.918   1.126   8.654  0.1149 -0.0321 -0.1641
43156W        W86209  15.019  12.625   9.114  0.1619  0.2794 -0.0185
43157W        W86210  18.965  12.933   4.342 -0.1596  0.1544  0.0557
43158W        W86211   0.666   5.405   4.303 -0.1475  0.2630 -0.0749
43159W        W86212   1.513  20.484   7.944  0.1230 -0.0773 -0.2070
43160W        W86213   0.129  19.677   1.772 -0.0735  0.0525 -0.0616
43161W        W86214   8.390  29.619   4.490 -0.0904  0.1458 -0.0735
43162W        W86215  22.153  12.840  27.848 -0.0420  0.2465 -0.1749
43163W        W86216  25.865  18.579   2.265  0.0480 -0.1049 -0.2551
43164W        W86217   9.125   5.470   9.148 -0.1262  0.2137 -0.1094
43165W        W86218  18.437   7.628   9.442  0.2462  0.1139 -0.3737
43166W        W86219  26.181   7.798   7.959  0.0264 -0.4386  0.0275
43167W        W86220  28.363   8.446  19.597 -0.0221  0.3580  0.2163
43168W        W86221  17.609  21.230  23.985  0.0121 -0.0318 -0.0897
43169W        W86222  30.603  23.829   8.618 -0.0263  0.1657  0.1910
43170W        W86223   1.711   0.829   5.699  0.1565 -0.2293  0.1999
43171W        W86224  19.975   8.457   7.554 -0.0774  0.0593 -0.0113
43172W        W86225  33.162  13.209  10.277 -0.0783  0.0817  0.2380
43173W        W86226   9.035  26.898  22.101 -0.1639 -0.0380  0.2008
43174W        W86227   1.661   9.332  24.486 -0.0109 -0.0346  0.1722
43175W        W86228   2.245   2.475   4.546 -0.3837 -0.0080  0.1346
43176W        W86229  29.869  17.142   4.823  0.0201 -0.0176  0.0248
43177W        W86230  14.044  12.263  24.701 -0.4202  0.0465 -0.3344
43178W        W86231   8.469  14.564   1.761 -0.1930 -0.1958  0.0363
43179W        W86232   0.979   0.786   5.343 -0.1958 -0.0131 -0.0369
43180W        W86233  32.331  17.171   7.615  0.3585  0.1310 -0.0283
43181W        W86234   7.394   7.249  28.082  0.0971  0.0396 -0.0556
43182W        W86235   6.379   1.035  10.321  0.1159 -0.3254  0.2001
43183W        W86236   5.672  13.493   4.266  0.1744  0.1259 -0.2005
43184W        W86237  30.760  10.410   6.630 -0.1747  0.1333  0.0907
43185W        W86238  30.452   5.984  27.718  0.0082 -0.0478  0.2074
43186W        W86239   1.521   8.166   7.975 -0.1794  0.1202  0.2425
43187W        W86240  23.450   4.069   0.789 -0.1248 -0.2884  0.3417
43188W        W86241  31.857   0.770   7.090  0.1304  0.1596 -0.0448
43189W        W86242  33.141  14.061   9.534  0.2369 -0.2293 -0.0300
43190W        W86243   5.874  19.987   9.451 -0.1012  0.1127 -0.2326
43191W        W86244   8.560  15.070   8.591 -0.0953  0.0230  0.0603
43192W        W86245  31.708  33.886   4.247 -0.1206  0.2487 -0.1239
43193W        W86246   4.409   1.046   9.445 -0.1434  0.1203  0.0613
43194W        W86247   7.776  15.784  28.178  0.0638  0.0510  0.0499
43195W        W86248  28.658  22.143  25.227  0.0962 -0.0312  0.3375
43196W        W86249   5.693   0.003   4.995 -0.1891 -0.0470 -0.2665
43197W        W86250   1.360   2.799  23.880  0.1761  0.2692  0.1724
43198W        W86251  23.299   0.808   5.129  0.3359  0.1639  0.1245
43199W        W86252  32.729  12.365   4.953 -0.3124 -0.0917 -0.0243
43200W        W86253   1.261  32.965   3.382 -0.0057  0.1450 -0.0835
43201W        W86254  28.874   2.983  21.903  0.2532  0.0292 -0.0941
43202W        W86255  28.142   4.948  18.882  0.0139  0.1777 -0.2063
43203W        W86256   5.130  15.884  19.165 -0.0853  0.0149  0.1624
43204W        W86257  24.383  16.192   7.055  0.0623 -0.0018  0.1191
43205W        W86258   7.076  24.117   0.463 -0.0145  0.0284 -0.2553
43206W        W86259  19.385  16.371   8.150 -0.0582  0.0716 -0.1378
43207W        W86260   0.680  11.108   3.502 -0.2232 -0.0992 -0.0898
43208W        W86261  29.323   2.332   0.249  0.0362 -0.0270  0.1533
43209W        W86262  30.964  34.601   8.026  0.5731  0.1344  0.2813
43210W        W86263  23.165   9.520   3.498  0.3492  0.0583 -0.1208
43211W        W86264  27.417   9.956  26.706 -0.2197  0.0341 -0.3933
43212W        W86265  28.098   3.689   4.546  0.1057  0.1284  0.0722
43213W        W86266  29.140  29.096   1.211 -0.0447  0.0089  0.4439
43214W        W86267  27.710  13.617   1.830 -0.1174 -0.1489 -0.0091
43215W        W86268  31.374  28.303   8.507  0.0195  0.1451 -0.1131
43216W        W86269  29.568  12.752  28.363  0.1434  0.1419 -0.2695
43217W        W86270   1.691  13.798   8.473 -0.0977 -0.3315 -0.1375
43218W        W86271  11.596  12.088  10.794  0.1435  0.1266 -0.5034
43219W        W86272  20.513   9.996   8.761  0.1839  0.1025 -0.1444
43220W        W86273  21.521   9.598   4.354  0.2265 -0.2189 -0.2172
43221W        W86274   2.855  12.988   5.242 -0.1606 -0.2434  0.2575
43222W        W86275  27.222  21.667   3.440 -0.0769 -0.0192  0.1419
43223W        W86276   3.268  16.557   1.124 -0.3742 -0.2147  0.1037
43224W        W86277  27.159  14.378   1.198  0.2321  0.2700 -0.2141
43225W        W86278  29.252   5.729   8.718 -0.1474  0.0072  0.0115
43226W        W86279  28.710   9.586   7.802  0.0798 -0.0108 -0.1210
43227W        W86280  31.887   5.666  10.260  0.4325  0.0583 -0.0217
43228W        W86281  11.899   8.537   6.396  0.0580 -0.0946 -0.0587
43229W        W86282  15.451   4.047   2.739  0.0524 -0.2681  0.0461
43230W        W86283  31.257   4.158   6.160 -0.0655  0.1394 -0.1012
43231W        W86284  13.529  15.159   4.429  0.2298 -0.1661 -0.1255
43232W        W86285  27.975   9.371   4.570  0.0251 -0.4001  0.2077
43233W        W86286   3.945  34.104  24.115 -0.1399 -0.2633  0.0898
43234W        W86287  27.844  25.013   8.029 -0.3670  0.3778  0.2396
43235W        W86288  25.082  14.457   3.715 -0.3843  0.2190 -0.0902
43236W        W86289  30.960   0.188  17.672  0.0839  0.0769 -0.1703
43237W        W86290  25.075  23.227   5.191 -0.2502  0.0072 -0.0974
43238W        W86291  18.409  31.294  11.072 -0.2333 -0.2299 -0.0329
43239W        W86292   9.148  16.558   2.570 -0.0771  0.0844  0.0606
43240W        W86293  27.721  16.433   9.040 -0.2585  0.2053 -0.2449
43241W        W86294  14.522   1.689   7.484  0.1061 -0.0277 -0.1868
43242W        W86295  30.368  15.579   6.914  0.1688  0.2020 -0.0188
43243W        W86296   9.055   4.282  11.017 -0.2541 -0.1129 -0.1894
43244W        W86297   7.126   7.752  10.275  0.1319  0.0123  0.3243
43245W        W86298  22.642  22.131   5.289  0.1893  0.2190 -0.1873
43246W        W86299  18.745  34.374  15.289  0.0883  0.0072 -0.2499
43247W        W86300  20.513   7.301  15.368  0.1735 -0.0546 -0.0100
43248W        W86301  32.047   9.285   3.210 -0.2001 -0.1146  0.1766
43249W        W86302  31.653   6.683   6.417  0.1337  0.1543  0.3523
43250W        W86303  22.079  10.260   0.135  0.2472 -0.0786  0.1066
43251W        W86304   3.704  29.453   3.264 -0.1294  0.1072 -0.1460
43252W        W86305  27.502  19.924   4.611 -0.1608  0.0443  0.1561
43253W        W86306   9.119  28.490   4.361  0.2075 -0.2347  0.0671
43254W        W86307  11.302   5.435  29.031  0.1372 -0.0528  0.1254
43255W        W86308  20.891  22.696  23.219  0.1513 -0.1235 -0.1090
43256W        W86309  20.151   0.379   8.951  0.1721  0.0954 -0.1371
43257W        W86310   5.606  23.096   2.685 -0.1663  0.3799 -0.1566
43258W        W86311  15.630   4.513  14.852  0.1462  0.0550  0.1199
43259W        W86312  28.825  30.151  24.619 -0.2259  0.0356  0.0990
43260W        W86313  33.440  10.858   1.627  0.0685  0.1233 -0.0428
43261W        W86314  31.547   6.125   6.343 -0.1187 -0.2033 -0.1983
43262W        W86315  20.398   6.001   9.660 -0.3353  0.1485  0.1602
43263W        W86316   3.169  11.708  17.576 -0.0675 -0.3269  0.1566
43264W        W86317  24.697  21.929  17.814 -0.2734 -0.3293 -0.0326
43265W        W86318   8.077   4.570   6.676  0.0894  0.0790 -0.1434
43266W        W86319  11.706  13.424  24.111  0.2132  0.1638  0.0751
43267W        W86320  34.129   4.626   3.611  0.1330 -0.0089 -0.1163
43268W        W86321  31.602   3.562  28.479 -0.1460 -0.0222  0.6710
43269W        W86322   5.119  14.548   8.167 -0.0698  0.0911  0.2053
43270W        W86323  32.441   5.818   3.159  0.3243  0.0313 -0.4211
43271W        W86324   2.953   1.179   6.428 -0.0906 -0.2255 -0.1969
43272W        W86325  26.014   6.989   6.730 -0.0740 -0.2729 -0.0115
43273W        W86326  31.085  29.792  28.878 -0.2853  0.1148 -0.0943
43274W        W86327  33.092  13.706  10.456 -0.2113  0.3046 -0.0315
43275W        W86328  28.129   6.479   6.889  0.0720 -0.0147  0.1836
43276W        W86329  28.921  34.395   7.157 -0.1010  0.4309 -0.2666
43277W        W86330  25.673   1.308   8.994 -0.4020  0.0451  0.0044
43278W        W86331   3.362  17.377  28.294  0.0885  0.1488 -0.0162
43279W        W86332  19.706  18.853  28.476  0.0029 -0.0893  0.0692
43280W        W86333  26.636  32.916   0.293 -0.0688  0.0102 -0.1727
43281W        W86334  21.407  11.290   6.832  0.4873 -0.1585  0.2374
43282W        W86335  24.851  33.875   3.607 -0.2451  0.1824  0.0621
43283W        W86336  28.010   3.344   3.662 -0.1354 -0.2329  0.0457
43284W        W86337  22.871  10.682   8.877 -0.4128 -0.3902 -0.4616
43285W        W86338  29.031  27.661   9.481 -0.0504 -0.1312  0.0285
43286W        W86339  27.251  33.924   1.134  0.1708 -0.1998 -0.0458
43287W        W86340  23.823  21.069   6.214  0.0497  0.0092 -0.3287
43288W        W86341  30.960  10.478  26.535 -0.3108 -0.0780  0.0934
43289W        W86342  30.366  32.681  19.158 -0.0424 -0.1566  0.1599
43290W        W86343  10.057  17.425  26.725 -0.2158  0.1193 -0.0480
43291W        W86344  10.464  28.802   2.926 -0.1680  0.2041 -0.1834
43292W        W86345  25.940  10.966   3.097  0.1898 -0.0597  0.1992
43293W        W86346  32.364  17.606   6.235 -0.0851  0.2578  0.1658
43294W        W86347  31.520   7.410   4.538 -0.2712 -0.0497 -0.1035
43295W        W86348   6.960  11.157   7.165  0.1294  0.1900 -0.0831
43296W        W86349  26.825  14.160  15.302 -0.2174  0.3190 -0.1808
43297W        W86350   3.254  34.407   6.424  0.0285 -0.0874  0.1069
43298W        W86351  32.324  12.677  10.332  0.1616  0.1611 -0.1270
43299W        W86352  31.400  18.000   2.545  0.0991  0.0096 -0.3092
43300W        W86353  12.372   6.278   5.154  0.0599  0.2726 -0.2454
43301W        W86354   9.634   9.218  22.321  0.0452 -0.1532 -0.2105
43302W        W86355   4.894  16.470   2.312 -0.3071  0.1127 -0.2715
43303W        W86356   9.055  17.862   3.239 -0.1599  0.0171  0.0291
43304W        W86357  25.687  32.447   9.229  0.5439 -0.1257 -0.1621
43305W        W86358   6.791   7.292   1.580  0.1691  0.1693  0.0740
43306W        W86359   2.011  23.505   8.533 -0.1355  0.1360 -0.1662
43307W        W86360  29.647  14.190   9.043 -0.0262 -0.4550  0.3473
43308W        W86361  19.232  11.153   9.015 -0.0960 -0.0399  0.3594
43309W        W86362  25.798  12.370   4.598 -0.1313  0.2024  0.0438
43310W        W86363  23.314   0.393   0.763  0.1627  0.0554  0.2540
43311W        W86364  30.994   4.565   7.335 -0.2263 -0.0399  0.0286
43312W        W86365   8.759   6.794   2.564 -0.4233 -0.1098  0.2146
43313W        W86366  25.330  34.583  10.225  0.2202  0.0829 -0.1809
43314W        W86367  26.805  23.980  19.284 -0.2278 -0.1104  0.0731
43315W        W86368  11.035  32.547   6.066  0.2735  0.1919 -0.0199
43316W        W86369  28.110   5.115   9.760 -0.2147  0.2612  0.3640
43317W        W86370  34.295  24.936  24.004  0.2071  0.0872  0.1404
43318W        W86371  32.258  12.716   7.399 -0.1715  0.0560  0.2384
43319W        W86372  33.555  33.353   4.320  0.1222  0.1229 -0.2660
43320W        W86373   1.124  11.762   9.444 -0.0340 -0.1434 -0.1535
43321W        W86374  33.305  12.733  24.416  0.1883  0.4635 -0.0029
43322W        W86375  32.458  15.318   1.164  0.5709 -0.1360  0.1038
43323W        W86376  18.611  21.715   8.551 -0.2980 -0.0556  0.1948
43324W        W86377  21.772  29.594  28.968  0.0460  0.0898  0.0596
43325W        W86378  34.199   8.483  27.115  0.1114 -0.0112  0.0708
43326W        W86379  32.787  25.904   5.621 -0.0586  0.0444 -0.1100
43327W        W86380  31.751  33.237   4.664  0.2376 -0.0556  0.0668
43328W        W86381  26.969  16.370   8.441  0.1636  0.2647  0.0936
43329W        W86382  15.831   3.482   5.349 -0.1157 -0.2426 -0.0456
43330W        W86383  27.719   8.301   8.837 -0.3707 -0.2611  0.2352
43331W        W86384  21.898  17.599   8.298 -0.1137 -0.0893 -0.2342
43332W        W86385  27.431  11.055   3.720  0.0881 -0.1184 -0.0752
43333W        W86386   7.841  13.386  18.422 -0.2598  0.0343 -0.1941
43334W        W86387  32.730  32.530   2.481 -0.0959  0.1679  0.0033
43335W        W86388   7.627   2.694   7.141 -0.2903 -0.0805  0.1627
43336W        W86389   0.623  33.077   6.738 -0.0275  0.0603 -0.1568
43337W        W86390  32.435  19.164   6.618 -0.2723 -0.0701  0.1505
43338W        W86391  16.131   1.807   8.752  0.1659  0.1188  0.1473
43339W        W86392  27.418   3.757  28.116 -0.1198 -0.1251  0.0030
43340W        W86393  28.376   7.336   8.250  0.2057 -0.0614 -0.1445
43341W        W86394  25.291  28.536   2.562 -0.0628 -0.0357  0.3415
43342W        W86395  32.870   8.182   9.412  0.1891  0.2606 -0.2623
43343W        W86396  29.590   0.968   5.205  0.0083  0.1854  0.0803
43344W        W86397  28.349   6.157   4.811  0.1619  0.0962 -0.1157
43345W        W86398  22.997  31.871  10.169  0.1995 -0.2619 -0.0402
43346W        W86399  16.839  10.192   0.244 -0.0163 -0.0634  0.2186
43347W        W86400   5.102  25.643   6.675 -0.1693 -0.0183 -0.0488
43348W        W86401  14.926  19.659   1.770  0.5573  0.0049  0.2908
43349W        W86402  18.843   9.122   7.602 -0.1023 -0.2336  0.1903
43350W        W86403   5.508   9.546   2.198 -0.0056 -0.0847 -0.1129
43351W        W86404  33.677   3.009   7.279 -0.1197  0.0874  0.1657
43352W        W86405  29.700  18.169  10.300  0.0734  0.0550 -0.0940
43353W        W86406  25.341   6.361   8.432 -0.0537  0.1612 -0.0982
43354W        W86407  13.352   2.379   7.313  0.2210 -0.0729  0.5561
43355W        W86408   7.773   6.275   5.334  0.0791  0.0978 -0.2838
43356W        W86409  26.601  32.798   9.210 -0.0279 -0.0931 -0.5037
43357W        W86410  10.175  30.328   6.578  0.2259 -0.1001  0.1010
43358W        W86411   2.946  33.141   1.246 -0.0694  0.2048 -0.0915
43359W        W86412  31.101   9.327  25.453  0.0411 -0.0667 -0.0561
43360W        W86413  10.978   4.121  10.049  0.1271  0.0768 -0.2863
43361W        W86414  30.076   9.986   4.389 -0.0422  0.0362  0.0693
43362W        W86415  17.909  13.569  28.775  0.3426 -0.3218  0.1236
43363W        W86416  31.762   7.328  10.703  0.1290 -0.0826 -0.0938
43364W        W86417  23.883  16.221   9.547 -0.2119 -0.3876  0.0378
43365W        W86418   9.463   7.319  24.410  0.0492 -0.0209  0.1607
43366W        W86419   3.444   0.453   4.496  0.0486  0.1827  0.1437
43367W        W86420  24.117  21.715   0.526  0.0925  0.2011  0.2866
43368W        W86421  29.283   9.558   4.143  0.2446  0.0023 -0.1604
43369W        W86422   4.230  20.482   2.053 -0.2812 -0.1812 -0.0818
43370W        W86423  33.346   0.771   8.938 -0.0937 -0.2980  0.1402
43371W        W86424   5.991  31.981   9.460  0.2122  0.0184  0.1856
43372W        W86425  29.761   0.038   4.266  0.2621 -0.0493 -0.2890
43373W        W86426   5.883   4.874   2.829  0.2493  0.1500  0.2984
43374W        W86427   0.943  13.630   6.837  0.0152  0.2489  0.3375
43375W        W86428   2.067  12.083   6.446 -0.0587  0.2236  0.2116
43376W        W86429  32.062  11.053  21.067 -0.1898  0.0016 -0.2710
43377W        W86430  29.020  32.986   9.523  0.1866  0.0801 -0.1704
43378W        W86431  33.214  22.770   0.953 -0.2921  0.1987  0.2689
43379W        W86432  29.597   9.298   8.135  0.1332 -0.2377  0.1443
43380W        W86433   0.950   2.749   5.710  0.0680  0.1019  0.0931
43381W        W86434  33.656  23.859   2.768 -0.1149  0.4297 -0.0333
43382W        W86435  22.714  20.847   4.154 -0.0518 -0.1136 -0.4014
43383W        W86436  29.664  17.898   1.690 -0.2870  0.0366  0.0444
43384W        W86437   1.536  29.044   6.919  0.2693 -0.1245  0.0372
43385W        W86438  28.223  34.488  10.323  0.1855 -0.0826  0.3100
43386W        W86439   8.213  31.821   9.563 -0.1446  0.1539  0.0297
43387W        W86440  10.231   9.900   4.596  0.1009 -0.1035  0.2615
43388W        W86441  28.520  13.266   2.196  0.3261  0.0721 -0.0197
43389W        W86442   8.729   1.710   6.389 -0.1101 -0.2595 -0.0584
43390W        W86443  11.258  31.653   4.612  0.2299  0.3755 -0.0577
43391W        W86444  25.650  11.569  24.448  0.1330  0.0607 -0.3834
43392W        W86445  28.260  10.762   5.508 -0.0739  0.0861 -0.0308
43393W        W86446   9.339  20.140   5.511  0.4413 -0.0448  0.1588
43394W        W86447   1.145   3.767  23.993 -0.0567 -0.1439  0.2300
43395W        W86448  12.488   7.173   6.303  0.1027 -0.0479 -0.3274
43396W        W86449  27.350  30.094   4.625 -0.0883 -0.0462  0.2003
43397W        W86450  23.706  32.529   6.554 -0.0630 -0.0533 -0.1760
43398W        W86451   0.830  16.793   4.505  0.2538 -0.4809  0.0050
43399W        W86452  29.686  20.014   7.647 -0.1057 -0.1498 -0.2121
43400W        W86453  29.096   0.710  26.510 -0.0165  0.4841  0.0836
43401W        W86454   8.363   5.347   7.384  0.2010  0.0425 -0.1368
43402W        W86455  34.606  18.190   3.620  0.1358  0.1034 -0.1661
43403W        W86456   5.632  13.567  10.419 -0.1624 -0.0002  0.0582
43404W        W86457  28.615   6.916   9.334  0.0664  0.2095 -0.1889
43405W        W86458   3.329  11.823   8.953  0.2777  0.0383  0.0169
43406W        W86459  31.909  21.877   8.903 -0.2508 -0.2480 -0.1956
43407W        W86460  25.664  25.730  10.070 -0.2880 -0.1183 -0.0592
43408W        W86461  21.886  18.974  28.304 -0.0629 -0.0140 -0.3227
43409W        W86462   5.749   1.245  17.041  0.0904  0.0520 -0.1102
43410W        W86463   3.540   1.466  14.479  0.0439 -0.2048 -0.2255
43411W        W86464   5.329  12.745  28.166 -0.0880 -0.0940  0.1981
43412W        W86465  21.225  25.676   7.228 -0.4053  0.2441 -0.3371
43413W        W86466   6.477  17.355  26.733  0.0071 -0.2192 -0.0577
43414W        W86467   5.681   0.552  21.761 -0.0163  0.0942  0.1341
43415W        W86468  30.076  29.642   7.637  0.1040 -0.1583  0.0221
43416W        W86469  27.811  14.046   2.062  0.1293 -0.0413  0.0742
43417W        W86470  28.921   5.434   0.705 -0.0840  0.1520 -0.1026
43418W        W86471  26.179  11.457   0.294 -0.0645 -0.0522  0.0213
43419W        W86472  27.833  10.800   4.570  0.1748 -0.1102 -0.0805
43420W        W86473   2.959  15.709  26.800  0.5371  0.0885 -0.1157
43421W        W86474  31.140  16.135   0.182  0.5395 -0.0808 -0.3027
43422W        W86475  22.206  27.040   9.497  0.0697  0.3835 -0.0979
43423W        W86476  25.344   4.974   3.198  0.1150  0.2433  0.0237
43424W        W86477  15.527  18.687   7.793 -0.0148  0.0336 -0.1004
43425W        W86478  32.310  21.548  23.249  0.3811  0.0500  0.6001
43426W        W86479   8.546  11.256   7.104 -0.0404  0.1517 -0.3901
43427W        W86480   6.141  31.148  22.673 -0.1905 -0.3370  0.1459
43428W        W86481   1.802  33.105   8.721  0.1295  0.0258 -0.0269
43429W        W86482  23.260  17.444   3.418  0.1646 -0.2232 -0.0793
43430W        W86483  32.756  25.477   1.869 -0.0435 -0.4928  0.0107
43431W        W86484  10.219   2.868   7.652 -0.0937  0.3038 -0.2161
43432W        W86485  11.913   4.318   8.078  0.1015  0.4054  0.3701
43433W        W86486   9.056  10.266   9.120 -0.1766 -0.0494  0.0655
43434W        W86487  20.622  13.663  23.277 -0.0694  0.1037  0.0094
43435W        W86488  21.907  31.825   5.750 -0.0555 -0.1139 -0.0183
43436W        W86489   7.756  32.647   0.389 -0.1019 -0.1482 -0.3288
43437W        W86490  13.238  12.875   4.384 -0.0132  0.1983 -0.1679
43438W        W86491  24.322  11.798   4.989 -0.1010  0.0279 -0.1107
43439W        W86492  19.244   3.483  27.154 -0.2495  0.0835  0.2007
43440W        W86493   7.772   6.987   6.475  0.1638  0.0289 -0.4298
43441W        W86494  24.122  17.421   8.356 -0.2390 -0.1392 -0.0143
43442W        W86495  25.938  30.883   8.579 -0.3258 -0.3702  0.1189
43443W        W86496  20.423  13.680   5.060 -0.3138  0.0438 -0.2041
43444W        W86497  19.586   3.366   2.386  0.3059  0.0315 -0.0100
43445W        W86498  14.724   6.120   6.569  0.1139 -0.0875 -0.2158
43446W        W86499   1.872  11.391   9.705  0.1497 -0.2300  0.0037
43447W        W86500  32.899   2.302   9.174 -0.0294  0.2165  0.0334
43448W        W86501  21.127  25.541   2.167  0.0454  0.1101 -0.3853
43449W        W86502  26.425   8.785   6.347  0.0097 -0.0881  0.4966
43450W        W86503  34.529  16.641   6.125  0.1199  0.0685  0.3926
43451W        W86504  22.237  26.780   4.402 -0.0890 -0.0885  0.2033
43452W        W86505   4.926   1.417   6.459  0.0921 -0.1623  0.1449
43453W        W86506  28.108  18.809  27.563  0.1073  0.2035 -0.1615
43454W        W86507  29.067  23.299   8.156  0.0737 -0.1802  0.2719
43455W        W86508   8.596  30.598   9.831  0.1016  0.0341 -0.0173
43456W        W86509  20.298   6.879   1.938 -0.2788 -0.6274  0.0136
43457W        W86510   5.909  22.971   1.949  0.0487  0.0211 -0.1457
43458W        W86511  27.522  20.850   7.219 -0.4299 -0.1207  0.0606
43459W        W86512  32.651  15.501   9.254 -0.0161  0.0148 -0.0896
43460W        W86513  11.941   8.006   5.521 -0.2290  0.1599  0.2413
43461W        W86514  16.570  31.729   9.429  0.2829 -0.1623  0.0697
43462W        W86515  22.193  19.842   6.386  0.1902 -0.0501 -0.0089
43463W        W86516   6.175  26.939   7.317 -0.0103 -0.1552 -0.0469
43464W        W86517  30.648  12.659  26.160  0.1166  0.0641 -0.1320
43465W        W86518  23.837  14.061  25.877 -0.2942 -0.1671  0.1083
43466W        W86519  32.650  19.448  16.906  0.2241 -0.0510  0.4932
43467W        W86520   9.551   5.343   5.300 -0.1796  0.0242  0.0268
43468W        W86521   1.215   1.270  19.389 -0.0285  0.0983  0.0814
43469W        W86522   7.820   6.542   2.185 -0.0882  0.0699 -0.0330
43470W        W86523  21.321  11.490   1.477 -0.3113  0.3264  0.2978
43471W        W86524  27.233   3.599   2.153 -0.1204 -0.0112 -0.1144
43472W        W86525  22.431  13.231   0.650  0.0417 -0.1904 -0.0312
43473W        W86526  10.507  29.267   4.548  0.0509  0.0455 -0.2377
43474W        W86527  25.871  32.486   6.049  0.0073  0.3976 -0.0849
43475W        W86528   6.374   5.611   9.305 -0.2999 -0.4359  0.4249
43476W        W86529  20.645   2.026   9.623 -0.3988  0.1279  0.0730
43477W        W86530   6.097   6.819   7.298 -0.1442 -0.2377 -0.0355
43478W        W86531  33.932  34.191   2.633 -0.3141  0.1839 -0.0703
43479W        W86532  10.459  13.035  19.471  0.1762 -0.4875  0.3029
43480W        W86533   7.919   8.449   2.344  0.1405 -0.1399  0.2627
43481W        W86534  26.793  13.094   9.331  0.4977 -0.0062  0.1974
43482W        W86535  10.730  12.170  28.003 -0.5269  0.1445 -0.0948
43483W        W86536  11.609  20.317   2.652  0.1009 -0.3956 -0.4175
43484W        W86537  29.890  10.655   9.127 -0.4731  0.1852 -0.3435
43485W        W86538  25.395  16.502   2.739  0.0550 -0.3080  0.0977
43486W        W86539  23.227   1.663   9.299 -0.1753 -0.2724  0.2018
43487W        W86540  29.823  31.867   9.151  0.4797 -0.3019  0.0597
43488W        W86541  30.943  25.621  10.188 -0.0563  0.2407  0.1031
43489W        W86542   7.879   5.932   1.347 -0.0827 -0.1957 -0.0724
43490W        W86543  20.805  15.930  20.853 -0.2875  0.0328 -0.0462
43491W        W86544   7.478  10.305   0.975 -0.0038  0.1267  0.0204
43492W        W86545  20.701  34.046   8.033 -0.4075  0.2082  0.1151
43493W        W86546   2.973  28.186   8.241  0.2596  0.2039  0.2886
43494W        W86547   8.787  21.655   4.022  0.0799 -0.0768 -0.0424
43495W        W86548  19.326   1.153   9.709 -0.2523 -0.2937 -0.0580
43496W        W86549  27.709  11.245   6.628 -0.0139 -0.0538  0.1608
43497W        W86550  29.926  13.175   5.488 -0.2278  0.0671 -0.0352
43498W        W86551  27.048  19.262   0.604  0.1074  0.0898  0.4216
43499W        W86552  30.540   6.947   9.856  0.2677 -0.4559 -0.2259
43500W        W86553  13.040   3.474   1.613 -0.0808  0.2303 -0.1951
43501W        W86554  12.041   6.822   9.951 -0.0355 -0.5172  0.0664
43502W        W86555   4.035   3.995  24.872  0.0843  0.1409  0.2752
43503W        W86556  30.385   6.430   9.728 -0.0796  0.1059  0.2137
43504W        W86557  31.038  19.113   3.341 -0.1529 -0.0496  0.2230
43505W        W86558  32.215  13.666   9.952 -0.1126  0.0077 -0.1631
43506W        W86559   2.039  32.190   7.249 -0.1110  0.1249 -0.2425
43507W        W86560  28.039  11.505   9.138 -0.0514 -0.0117 -0.1384
43508W        W86561  32.337   6.593   4.790  0.1404  0.0942 -0.0081
43509W        W86562  31.940  12.978  24.943 -0.1045 -0.1295 -0.1438
43510W        W86563  28.795   7.730   4.766  0.3186  0.0069  0.0899
43511W        W86564   7.859   4.981   4.713  0.1664  0.2795  0.1588
43512W        W86565  28.611   3.533   5.799 -0.0930 -0.2803 -0.1786
43513W        W86566   9.996  31.467   9.237 -0.0676  0.1598 -0.2318
43514W        W86567  24.401  16.223   3.683 -0.0644 -0.1928 -0.1453
43515W        W86568  30.216  12.176   6.123 -0.0182  0.2835 -0.1851
43516W        W86569  18.071  15.877   3.592  0.2241  0.2386  0.1685
43517W        W86570  31.930  32.801   2.294 -0.4619  0.1947 -0.2243
43518W        W86571  16.614  17.357   2.759 -0.2406  0.0062 -0.2204
43519W        W86572   1.688   8.021   1.831 -0.0424  0.1846 -0.0267
43520W        W86573  17.288  34.585   5.462  0.0547  0.2570  0.0591
43521W        W86574  19.663  26.900  28.899  0.0791  0.2820  0.0457
43522W        W86575   5.793  26.458   0.741 -0.2302 -0.1841  0.0156
43523W        W86576  27.530   2.799   6.068  0.1229 -0.0551  0.1324
43524W        W86577   7.253  11.769   6.315 -0.0680 -0.0970  0.0434
43525W        W86578  19.443   2.923   2.626 -0.2081  0.2483  0.2968
43526W        W86579  31.174   1.961  24.503  0.0290  0.0103 -0.1395
43527W        W86580  19.103  33.921  19.926 -0.2478  0.0145 -0.1415
43528W        W86581  30.030   9.133   8.576 -0.1259  0.0841  0.0585
43529W        W86582  11.947  13.027  10.598  0.0616  0.3143 -0.0864
43530W        W86583  28.903   0.072  28.709  0.1743  0.0940  0.1280
43531W        W86584  18.916  22.214   6.722 -0.0503  0.2337  0.2937
43532W        W86585  27.699   3.254  10.387 -0.0784 -0.3071  0.0008
43533W        W86586   4.252  31.291   3.359  0.0310 -0.0050  0.2820
43534W        W86587   0.167   2.462   5.279 -0.0088  0.0220 -0.0701
43535W        W86588  12.721   3.406   0.847 -0.3095 -0.0958 -0.0036
43536W        W86589  17.280   1.269   9.159 -0.3030 -0.2852  0.1891
43537W        W86590  14.747   1.547   0.611 -0.0745  0.1510 -0.3140
43538W        W86591  23.019  10.193  18.622  0.4845 -0.0103 -0.0571
43539W        W86592  24.592   2.026   8.659 -0.2515 -0.1513 -0.0943
43540W        W86593   5.355  32.744   5.066  0.0781  0.1664 -0.2304
43541W        W86594  22.199  10.871  26.831  0.0360 -0.2984 -0.0418
43542W        W86595  31.527   4.053  27.468 -0.3102 -0.0669 -0.1368
43543W        W86596  33.284  32.561   5.399  0.0932  0.0627 -0.1564
43544W        W86597   3.147  18.105   7.938  0.1025 -0.0122  0.2674
43545W        W86598  14.713   2.906   6.751 -0.0100  0.1913  0.0724
43546W        W86599   3.171   5.242  10.200  0.0471 -0.1374  0.2822
43547W        W86600   5.644  28.127   4.669  0.0681  0.1233 -0.3255
43548W        W86601  13.192   1.746   8.815 -0.1844 -0.1058 -0.1533
43549W        W86602  32.206  21.077   9.999  0.0232 -0.0636 -0.0014
43550W        W86603   4.114  33.071   8.927 -0.0172 -0.1602 -0.2739
43551W        W86604  32.052  32.215   8.901 -0.0286  0.0275  0.1955
43552W        W86605  14.864  10.213  21.831  0.0806  0.1744  0.1056
43553W        W86606  34.167  29.398   5.708 -0.1201 -0.0767 -0.0052
43554W        W86607   3.130  16.162   3.473  0.2603  0.1972 -0.3408
43555W        W86608  12.892   1.373   0.724 -0.2688  0.0272 -0.0666
43556W        W86609  30.103   6.130   6.211 -0.1877  0.1791 -0.0587
43557W        W86610   3.609   3.010  21.735  0.2884 -0.2309 -0.2058
43558W        W86611   9.257   3.606   7.158 -0.1153  0.0133 -0.2242
43559W        W86612  32.260  12.412   4.790 -0.3630  0.3141  0.2086
43560W        W86613  34.212   4.893   5.982 -0.0351 -0.0004 -0.4212
43561W        W86614  26.970  16.387  22.032  0.0676  0.0099  0.1670
43562W        W86615   0.153   3.030  26.297 -0.1002  0.5041 -0.0761
43563W        W86616  27.668  31.185   6.570 -0.2038  0.1633 -0.4036
43564W        W86617  31.576   0.630   6.289 -0.1084  0.0925 -0.1415
43565W        W86618   2.497  20.901   2.254  0.1919  0.1077 -0.1754
43566W        W86619  25.647   1.640  27.113  0.2924  0.3169 -0.0939
43567W        W86620  27.997   9.085   8.206  0.0800  0.0274  0.1418
43568W        W86621   5.493  23.374   3.550  0.2220  0.0728  0.3321
43569W        W86622  25.932   2.473   7.238 -0.1101 -0.0597  0.5416
43570W        W86623  28.003  20.676  16.911  0.1025 -0.0494  0.0706
43571W        W86624  33.794   3.459   3.234 -0.2487 -0.2168  0.0451
43572W        W86625  13.168   9.663   7.987 -0.0408  0.4711 -0.4615
43573W        W86626   0.471  31.690   7.822 -0.1519 -0.2258 -0.3642
43574W        W86627  33.754  16.499  26.601  0.0947 -0.0265  0.3619
43575W        W86628  28.353  29.150   0.612 -0.0356  0.2696  0.0233
43576W        W86629   4.836  28.513  15.524 -0.2922 -0.3633  0.0462
43577W        W86630  16.990   7.853  19.643  0.2396  0.0162 -0.3221
43578W        W86631  18.746  31.090   9.392 -0.3874 -0.1270  0.0098
43579W        W86632  29.794  15.120  19.340  0.0331  0.1311 -0.0186
43580W        W86633  18.338   2.853   0.456  0.1082 -0.2837 -0.4012
43581W        W86634  15.987  20.592   1.921 -0.0784 -0.3367  0.3879
43582W        W86635  34.573   6.987  27.382 -0.3408 -0.2161  0.1744
43583W        W86636   1.824  33.344  21.613  0.0022 -0.1172 -0.2659
43584W        W86637   4.049   4.492   4.733  0.0894  0.3546 -0.1914
43585W        W86638  20.435  21.764   7.491 -0.1135 -0.0515  0.1411
43586W        W86639  32.984  11.126   2.821 -0.2769  0.1319  0.0190
43587W        W86640  16.174   5.979  23.021  0.2776  0.1051 -0.0936
43588W        W86641  30.857   9.044   0.180  0.1348  0.1616  0.2295
43589W        W86642   6.461  11.659   4.282 -0.2481  0.0141 -0.1155
43590W        W86643   9.411  10.295  10.647  0.1454  0.1103  0.1676
43591W        W86644   5.722  33.876   2.872 -0.0605 -0.5035  0.1632
43592W        W86645  32.103  33.221  18.741 -0.0995 -0.0783  0.3054
43593W        W86646  20.861  17.059  24.981  0.0018 -0.0306 -0.3319
43594W        W86647  28.032  11.961  19.909  0.3198 -0.3399 -0.2442
43595W        W86648   0.684  11.490   0.371  0.2397  0.3052  0.0689
43596W        W86649  11.412   1.355   3.035  0.0046  0.1788  0.0629
43597W        W86650   1.521  10.219  25.867  0.0696 -0.0147  0.1806
43598W        W86651  28.779  16.090   4.397 -0.2690  0.2065 -0.0692
43599W        W86652  32.183   7.118   8.753  0.2407  0.0932  0.0254
43600W        W86653  32.849  32.018   2.597 -0.1266 -0.0787 -0.2769
43601W        W86654  22.739  12.654   6.948 -0.0157  0.2075  0.0482
43602W        W86655  33.143   1.176   0.405  0.1571 -0.2149 -0.0827
43603W        W86656   0.537  34.131   5.229  0.0690  0.2190 -0.4011
43604W        W86657  26.153  32.883  27.458  0.1199 -0.0632 -0.2283
43605W        W86658  28.245  14.825   7.791 -0.1269  0.6680 -0.0110
43606W        W86659  16.199  12.300  20.234 -0.0970 -0.2025  0.1723
43607W        W86660  33.534  15.878  18.887 -0.3608  0.0500  0.0164
43608W        W86661  28.817  10.640   2.193 -0.1193  0.2571  0.2249
43609W        W86662   4.029   6.316  25.812  0.1416  0.1993 -0.0960
43610W        W86663  22.700  16.133  28.658 -0.0834 -0.2174  0.1617
43611W        W86664   7.324   0.105  27.762 -0.1579  0.2116  0.2100
43612W        W86665   5.707   3.630  27.121  0.2271  0.2190 -0.2226
43613W        W86666  25.315  18.163  28.428 -0.1734  0.1713  0.3104
43614W        W86667  27.242   7.093   4.853 -0.0409 -0.4994 -0.0408
43615W        W86668  12.389  13.346  15.507 -0.0084 -0.1709  0.0488
43616W        W86669  32.173  16.913   4.930  0.1584  0.0634 -0.0575
43617W        W86670   3.877  10.574   9.815 -0.2588  0.1897  0.1205
43618W        W86671   1.998  25.296  28.710  0.1440  0.0299  0.2676
43619W        W86672  19.945  29.127  28.863 -0.0924  0.2404  0.0988
43620W        W86673  25.452  34.456   1.455 -0.3525  0.1546  0.1429
43621W        W86674   9.487  13.833   4.224 -0.0079 -0.3011 -0.1689
43622W        W86675  33.030  20.896   4.852 -0.2994 -0.3893  0.0402
43623W        W86676   3.648  20.634  28.157 -0.0792 -0.0284  0.0505
43624W        W86677   3.156   2.634   1.447 -0.2556 -0.0956 -0.1843
43625W        W86678  13.800  14.178   6.927 -0.4129  0.0494  0.1210
43626W        W86679   3.599  22.967   3.033  0.2776  0.1491  0.1986
43627W        W86680  20.344  18.025  26.320 -0.3287 -0.1721  0.3058
43628W        W86681  29.396   8.693  18.681 -0.3997  0.0847 -0.1189
43629W        W86682  17.375  24.799   9.774  0.1716 -0.0255 -0.1415
43630W        W86683  28.113  24.555  24.875  0.2041 -0.0121 -0.0113
43631W        W86684  16.630  18.995   3.295  0.2423 -0.1981  0.0134
43632W        W86685   1.582   4.562  26.415 -0.2055  0.0359 -0.2341
43633W        W86686   4.134  22.098  21.577  0.1398 -0.2319  0.2646
43634W        W86687  14.053   1.565  24.410 -0.0507  0.2041  0.1666
43635W        W86688   0.467  22.354  29.100  0.2205 -0.1400  0.1190
43636W        W86689  19.112  15.608  22.645 -0.0059 -0.2862 -0.1617
43637W        W86690   7.750  29.906  22.091  0.4342 -0.0128 -0.0851
43638W        W86691  11.317  34.308   9.829  0.2541  0.0696  0.1029
43639W        W86692  33.485  14.414   9.515  0.0283 -0.1415 -0.2668
43640W        W86693  34.478  16.264   5.796  0.0504 -0.0729  0.1409
43641W        W86694  24.500  12.619  26.408 -0.2267 -0.4085  0.0943
43642W        W86695  27.115  14.338  21.650  0.0653 -0.2834 -0.2285
43643W        W86696  20.061   7.519  27.925 -0.0038  0.0588  0.1708
43644W        W86697   7.546   3.665   1.729  0.0334  0.1538  0.1756
43645W        W86698  31.967  19.018  20.981  0.0971  0.2017 -0.3669
43646W        W86699   0.935   8.235  15.189  0.3837  0.0004  0.0823
43647W        W86700   1.782  27.634  28.022 -0.2301 -0.0296  0.1480
43648W        W86701  28.715  11.543  29.087 -0.1035 -0.1209 -0.1321
43649W        W86702  31.752  21.123   8.119 -0.0323 -0.0424 -0.0791
43650W        W86703  21.002  22.883  28.576 -0.1226 -0.3580  0.4699
43651W        W86704   9.333  12.859   1.710  0.0142  0.1180 -0.3344
43652W        W86705  33.072  17.860  28.035  0.0475  0.2650 -0.2830
43653W        W86706  25.786  12.760  17.930  0.0449  0.0244  0.2420
43654W        W86707  15.168  23.727   1.569 -0.1121  0.2274 -0.1776
43655W        W86708  33.222  21.537   3.328  0.0005 -0.1788 -0.4742
43656W        W86709  33.083  12.531   8.211  0.1552 -0.4049 -0.0027
43657W        W86710  16.798  13.646  23.688 -0.2163  0.1918  0.3711
43658W        W86711  28.952  23.185  24.638 -0.0180 -0.0528 -0.0909
43659W        W86712   8.466  11.541  27.205  0.0287 -0.0349  0.1773
43660W        W86713   7.344  13.243   9.754  0.0061 -0.0336 -0.0586
43661W        W86714  21.300  32.772  23.304  0.0162 -0.0848 -0.1152
43662W        W86715  33.591  13.054   5.495  0.1022 -0.2286  0.3206
43663W        W86716  20.846  33.904  22.677 -0.1267 -0.2603  0.1128
43664W        W86717  24.122  14.187   5.250 -0.2349 -0.0726  0.2413
43665W        W86718  33.933  17.029   1.809  0.1526  0.1025  0.3622
43666W        W86719  12.053  27.477   7.886 -0.0877 -0.1802 -0.0426
43667W        W86720  21.822   8.030   6.641 -0.1031 -0.1889 -0.0682
43668W        W86721  28.575  29.702   7.416 -0.1873  0.3453  0.2283
43669W        W86722  27.481   6.117  17.039  0.0061  0.2244  0.1145
43670W        W86723  21.492  32.595  28.103  0.1155 -0.0616  0.1728
43671W        W86724  22.784   4.071   3.470  0.2332 -0.0571  0.1468
43672W        W86725  17.191  15.157  28.045  0.2584  0.0657 -0.2526
43673W        W86726  17.191  12.962  26.768  0.0173  0.0430  0.0942
43674W        W86727  29.791  34.658   2.480 -0.0911  0.2192  0.1259
43675W        W86728  18.327  29.449  19.494  0.3995  0.2292  0.0777
43676W        W86729   7.355   8.243  27.646 -0.3015 -0.0575 -0.0621
43677W        W86730   6.869  17.475   2.883 -0.1243 -0.1047 -0.0566
43678W        W86731  30.122   4.981  17.894 -0.4557  0.1684 -0.1791
43679W        W86732  22.776  18.495  20.718  0.1079  0.0046 -0.0546
43680W        W86733  16.724  26.798  24.999 -0.1524 -0.1347  0.0381
43681W        W86734   9.589   5.645  23.447  0.0458  0.0717  0.3725
43682W        W86735  30.703  22.306   1.681 -0.0465  0.2417  0.0507
43683W        W86736  27.067  17.429  26.280  0.0043  0.1384  0.2117
43684W        W86737   9.732  23.717  19.963  0.3041  0.2189 -0.0670
43685W        W86738   3.275  19.214  26.941  0.0330  0.0365  0.4075
43686W        W86739  30.495  11.529   6.903 -0.0550 -0.1020 -0.0042
43687W        W86740  25.487  25.096  22.741 -0.3196  0.0130 -0.3397
43688W        W86741  29.691  17.490   1.361  0.1874 -0.0098  0.1767
43689W        W86742  14.793   6.551   9.270 -0.1143  0.1153 -0.0524
43690W        W86743   2.313  32.975  14.566  0.3519  0.1628 -0.2567
43691W        W86744  29.438  11.099  16.982  0.0319  0.0662  0.1398
43692W        W86745   0.451  12.559  24.712 -0.2643 -0.0662 -0.2163
43693W        W86746  30.170   8.503  26.964 -0.2893  0.0814 -0.0368
43694W        W86747  21.637  14.752   6.223 -0.2090  0.2128  0.2294
43695W        W86748  25.603   7.289   6.963 -0.3025  0.0698 -0.0153
43696W        W86749  10.347  20.324   2.821 -0.0229  0.4785  0.1745
43697W        W86750  26.648  11.719  21.416 -0.2055  0.0235 -0.2488
43698W        W86751   6.407   9.434  20.195  0.0343  0.1914 -0.0302
43699W        W86752  25.456  17.283   0.392  0.0268  0.1985  0.2370
43700W        W86753   9.272  10.193   6.660  0.1644  0.1216  0.0462
43701W        W86754  31.362  17.635  28.866 -0.1752  0.0465  0.0272
43702W        W86755  23.758  15.956  26.856 -0.1303 -0.0286 -0.1125
43703W        W86756  27.399   9.277   9.827 -0.2923 -0.1071  0.3058
43704W        W86757  17.034   2.506  26.528  0.0009 -0.2947  0.2967
43705W        W86758  34.143  11.546   1.260  0.0843  0.1432  0.1570
43706W        W86759  33.409   3.873   8.632  0.2299 -0.1390 -0.0276
43707W        W86760  23.368  18.494   9.232  0.1314  0.1266  0.1812
43708W        W86761  33.192  20.962   5.722  0.4012 -0.1945 -0.1653
43709W        W86762  31.226  11.211   5.218 -0.1930  0.3898 -0.2414
43710W        W86763  31.647  22.256  10.292 -0.0601  0.1398 -0.1740
43711W        W86764  13.476  23.126  25.512  0.0613  0.1714 -0.0314
43712W        W86765  23.300  15.163  25.930 -0.0396  0.0309 -0.0995
43713W        W86766   0.163  19.109   2.304  0.0339  0.0195 -0.0438
43714W        W86767   0.980   5.186  29.119  0.1339  0.2473 -0.1923
43715W        W86768  12.897   4.274   6.555  0.1805  0.3426 -0.0371
43716W        W86769  23.472  15.454   8.114  0.1869 -0.0938 -0.0360
43717W        W86770  28.976   8.278   2.404  0.0261  0.3522 -0.0791
43718W        W86771  22.059  12.997  27.239 -0.0127 -0.0631 -0.1913
43719W        W86772  14.399  11.828   5.030 -0.0716  0.0073  0.4675
43720W        W86773  33.663  12.214   6.321  0.0028 -0.2685 -0.2979
43721W        W86774  12.516  16.900   5.212  0.2125 -0.0587  0.2816
43722W        W86775   5.701   5.762   3.182 -0.2696  0.0325  0.2501
43723W        W86776  28.461  14.717   2.557 -0.2838 -0.1672 -0.0937
43724W        W86777  29.567  17.893   3.876 -0.1173  0.2556 -0.0328
43725W        W86778   3.103  10.970   8.816  0.1596 -0.1927  0.0551
43726W        W86779   4.625  31.636   6.671  0.0017 -0.0490 -0.1594
43727W        W86780   0.760  32.001   9.676 -0.1250 -0.2481 -0.0120
43728W        W86781  23.828  19.319  26.974  0.0275  0.0607 -0.3918
43729W        W86782  11.036  11.994   8.143 -0.1384 -0.1718 -0.0875
43730W        W86783  29.046   5.347  28.528  0.0954  0.0075  0.0474
43731W        W86784  19.181  25.089   9.390  0.2659 -0.1098 -0.0396
43732W        W86785  20.110  17.626   7.402 -0.2665 -0.0043  0.0341
43733W        W86786  28.613  10.857   0.446 -0.0931  0.1980 -0.0052
43734W        W86787  29.760   7.646   9.422  0.0808  0.2450  0.1836
43735W        W86788  10.944  18.630   1.090  0.0564  0.2435 -0.2393
43736W        W86789  13.061  24.590  23.583  0.1339 -0.2232  0.3308
43737W        W86790  33.961  15.193   5.797 -0.1434 -0.1457 -0.1482
43738W        W86791  21.960  10.711   7.843  0.2300 -0.3159 -0.0147
43739W        W86792   0.833   9.453   1.258  0.4386  0.1201  0.3632
43740W        W86793  30.524  20.750  27.592  0.3796 -0.5592  0.1962
43741W        W86794  27.873   9.506   5.647 -0.1909  0.0234 -0.0576
43742W        W86795  13.892   1.924  25.384 -0.1291  0.0823 -0.0895
43743W        W86796  20.719  33.796  26.517  0.0565  0.0164  0.1615
43744W        W86797  16.927  12.458   2.963 -0.2651 -0.1376 -0.0687
43745W        W86798  32.210  18.539  25.924  0.3228  0.0235  0.3693
43746W        W86799  23.888   6.550   4.979 -0.3462  0.3656  0.2143
43747W        W86800   8.202  13.300   2.471 -0.0525  0.0738  0.2046
43748W        W86801  10.856  18.844   8.486  0.3882 -0.0103 -0.1710
43749W        W86802  27.920  19.554   5.325  0.1447  0.3143  0.2485
43750W        W86803  18.312  12.384   6.038 -0.2592  0.2596 -0.1318
43751W        W86804  18.740  26.020  28.337  0.1175 -0.2998 -0.1499
43752W        W86805   3.561  15.720   9.011 -0.1463  0.3133  0.0203
43753W        W86806  24.254  23.895   6.514 -0.1042  0.1999 -0.1664
43754W        W86807   6.136  34.121   8.946  0.2339 -0.0527  0.4586
43755W        W86808  30.305  10.609   9.369  0.1976 -0.0802 -0.2133
43756W        W86809  13.271  17.401   2.900 -0.1084  0.0504 -0.0547
43757W        W86810   7.083   4.994  25.355  0.2478  0.0059  0.1842
43758W        W86811   3.312   7.616   0.880  0.0753  0.1651 -0.3858
43759W        W86812  33.202  11.336   1.473  0.4274 -0.0272 -0.2693
43760W        W86813   9.902  31.166  22.990  0.0325 -0.1953  0.1415
43761W        W86814  33.617   6.933   3.653  0.2619 -0.1489 -0.0694
43762W        W86815  19.271  25.329   3.946  0.1322  0.1634  0.0442
43763W        W86816  24.278  18.486  23.504  0.0196 -0.1441 -0.1318
43764W        W86817   5.781  12.499   0.677 -0.1948 -0.0964  0.2276
43765W        W86818  22.864  20.602   7.086  0.1159 -0.0228  0.0781
43766W        W86819  32.569  21.786   7.297  0.0395  0.0128 -0.4383
43767W        W86820  18.073  16.150  21.942  0.1612 -0.3415 -0.0461
43768W        W86821  12.987  27.203   7.787 -0.1405 -0.1186 -0.1548
43769W        W86822  33.670  11.772  26.506  0.1222  0.2017 -0.2342
43770W        W86823  27.488  20.647   0.309  0.3689 -0.0511  0.2681
43771W        W86824  30.659  14.388   1.992 -0.1441  0.1276  0.0929
43772W        W86825  22.154   1.676  21.004 -0.0031 -0.0124 -0.1088
43773W        W86826   0.165  16.654  22.891 -0.1372  0.2625 -0.1693
43774W        W86827   1.661  27.809   1.076 -0.2892 -0.1008  0.0696
43775W        W86828  34.269  22.999  14.294  0.0296 -0.3770 -0.2909
43776W        W86829  26.968  19.951   7.997  0.0433 -0.0245  0.3670
43777W        W86830  22.561   0.951   1.966 -0.0591  0.1556  0.0941
43778W        W86831   0.220  16.779   8.048 -0.1257 -0.0233 -0.1706
43779W        W86832  24.402  14.474  25.079  0.0776  0.0143  0.1261
43780W        W86833  18.344  11.830   3.938  0.2216  0.0723 -0.0354
43781W        W86834  32.988   4.231   8.189 -0.5531 -0.2511  0.1892
43782W        W86835  21.384   5.341  10.183  0.2843  0.0318 -0.1265
43783W        W86836   0.422  14.468  24.330  0.1313  0.1709 -0.0038
43784W        W86837  21.259  19.172   3.170 -0.1127  0.0658  0.0866
43785W        W86838   3.587   5.922  29.163  0.0204 -0.1459  0.1498
43786W        W86839  24.235  20.036   4.538 -0.1261  0.2610  0.1191
43787W        W86840   4.650  17.423   2.912 -0.0416  0.2005  0.0436
43788W        W86841   5.258   8.716  21.510 -0.0364  0.1110 -0.0726
43789W        W86842  33.466   3.189  17.426 -0.0290 -0.2891  0.0874
43790W        W86843  18.146  20.959   8.336  0.4948 -0.1040  0.1944
43791W        W86844   5.069  32.128   0.103  0.0913  0.0336  0.0569
43792W        W86845   1.366  30.853  18.189  0.1222 -0.0460  0.1373
43793W        W86846   2.936  17.540   3.717 -0.2006  0.0007  0.1259
43794W        W86847   8.161  30.075  23.517 -0.0000 -0.1091 -0.0519
43795W        W86848   7.797  14.368   7.281 -0.1286 -0.0824 -0.2429
43796W        W86849   9.070   7.916   3.870  0.0899  0.3262 -0.3168
43797W        W86850  29.748   7.287   8.104  0.0725  0.0639 -0.1352
43798W        W86851  32.831   5.685   0.556 -0.2432  0.1335 -0.2531
43799W        W86852  13.817  20.939   7.833 -0.0536  0.3817  0.0006
43800W        W86853   1.421  12.987  25.243  0.0260  0.0874 -0.1229
43801W        W86854  19.007  12.803  25.070  0.0874  0.1898 -0.3793
43802W        W86855   3.237   0.877   4.703  0.2788  0.1350 -0.0730
43803W        W86856  16.316  13.665   3.825  0.0934 -0.0886 -0.2870
43804W        W86857  29.145  26.015  20.222 -0.0043 -0.0672 -0.0742
43805W        W86858   1.631  25.082  25.296 -0.1240 -0.1144  0.0390
43806W        W86859  33.488   4.134  26.496  0.6073  0.0029  0.0380
43807W        W86860  17.428  28.747  24.402  0.0326  0.1396  0.1148
43808W        W86861  21.830  19.968  16.170 -0.0251 -0.0009  0.0011
43809W        W86862  17.506  10.541  28.705 -0.4161  0.0776  0.4781
43810W        W86863  33.613  21.850   4.516 -0.0296  0.4360 -0.2853
43811W        W86864  25.378  14.221  15.845  0.0436 -0.1554  0.3175
43812W        W86865   2.260  16.376  21.447 -0.1750  0.1676 -0.1095
43813W        W86866  25.927   4.451   7.594 -0.0917  0.3312 -0.2543
43814W        W86867   0.467  20.756   3.144 -0.4639  0.0953 -0.2443
43815W        W86868  19.386  12.874   6.811 -0.1013  0.0228 -0.1778
43816W        W86869   3.053  16.880  28.162 -0.1255  0.2895  0.2075
43817W        W86870   7.974   6.342   3.095  0.1150 -0.0824 -0.0690
43818W        W86871  26.111  18.763  24.526  0.1220  0.0274  0.3306
43819W        W86872  10.720   2.381  23.802  0.1027  0.0831  0.1999
43820W        W86873   4.595  34.356  27.513  0.3565  0.2375  0.1002
43821W        W86874  22.759  12.461   7.802 -0.1761 -0.1484 -0.2734
43822W        W86875  21.816  15.079   5.859 -0.1254  0.1852 -0.1934
43823W        W86876  32.933  16.643   8.287 -0.0291 -0.0616 -0.0867
43824W        W86877   3.801  25.367  28.278 -0.0363 -0.0283  0.2154
43825W        W86878  28.492  20.685  25.673  0.0228  0.5380  0.3195
43826W        W86879  19.968  15.372   1.414 -0.2066 -0.0447 -0.2616
43827W        W86880  20.927  25.794  23.892 -0.1341  0.0031  0.0204
43828W        W86881  13.555   3.523   9.277  0.2523  0.2625  0.0611
43829W        W86882  33.989  10.179  14.454 -0.0342 -0.1420  0.0021
43830W        W86883   3.852  22.754   7.770 -0.2126  0.0439  0.2346
43831W        W86884  22.711  14.312  23.788  0.1850  0.1424 -0.0405
43832W        W86885  12.680  18.118   2.684 -0.0687 -0.0085  0.1382
43833W        W86886  24.025  29.554  25.093 -0.2033  0.0214 -0.2797
43834W        W86887  31.582  16.739  22.251  0.3565  0.1478  0.0845
43835W        W86888  10.014   3.845   9.973  0.2299 -0.0176  0.1009
43836W        W86889  24.399  22.180  26.022 -0.1158  0.0686  0.0386
43837W        W86890   0.885  17.372   2.138 -0.1477 -0.2021  0.1109
43838W        W86891  29.420   1.457  27.769 -0.1611 -0.3422 -0.0415
43839W        W86892  21.700  11.557  27.130 -0.1010  0.4762  0.1684
43840W        W86893  30.803  26.494   2.452 -0.2001  0.0574  0.2766
43841W        W86894  24.233  16.690  23.488  0.0487  0.0228  0.1513
43842W        W86895  22.073  26.811   4.889  0.2555 -0.0920  0.1453
43843W        W86896   0.740  28.362   4.858  0.0321 -0.0743  0.1276
43844W        W86897  29.866  20.062   8.426 -0.0845  0.0147  0.4288
43845W        W86898  28.054  18.713   9.375 -0.2215 -0.0131  0.5027
43846W        W86899  33.555  14.567  24.218 -0.0544 -0.0274  0.3193
43847W        W86900  21.995  20.646  23.775  0.0336 -0.2777 -0.0923
43848W        W86901  33.337   7.156  23.516 -0.0371 -0.0747  0.2242
43849W        W86902  21.063  13.532   3.839  0.0516  0.2169  0.1015
43850W        W86903  28.768   7.006  22.173  0.0954 -0.2011  0.2025
43851W        W86904  17.787  10.191   1.114  0.1355  0.0759 -0.2124
43852W        W86905   5.703  14.027   7.563  0.0699 -0.0827  0.2394
43853W        W86906  24.690   2.853  21.369 -0.1570  0.0300 -0.1076
43854W        W86907  31.811   7.605  23.753  0.0398  0.0183  0.2186
43855W        W86908  25.023  16.332  18.584 -0.0963  0.2004  0.1025
43856W        W86909   0.748  21.401   7.216 -0.1413 -0.1316 -0.0526
43857W        W86910  27.529   3.884   0.068 -0.2334 -0.0726 -0.1802
43858W        W86911  26.819   5.539   4.618  0.0187  0.2393 -0.0332
43859W        W86912  15.212   7.341   8.571 -0.1072 -0.2978  0.3320
43860W        W86913  18.004  15.284   8.150  0.0521  0.1328 -0.1508
43861W        W86914   0.742  28.845  27.810 -0.1238 -0.1063  0.1485
43862W        W86915  30.566  18.705  17.774  0.2312 -0.1621 -0.1911
43863W        W86916  27.073  12.250  14.805  0.0862 -0.0043 -0.1652
43864W        W86917  33.519  21.690   1.895 -0.0551 -0.2115 -0.0809
43865W        W86918  34.117  14.418   0.089  0.1817 -0.0958 -0.4045
43866W        W86919  17.913   3.330   4.573  0.0356 -0.2373 -0.0261
43867W        W86920   1.085  24.534   3.569 -0.1675 -0.2037  0.0421
43868W        W86921  31.856   1.127  21.451 -0.0219 -0.0644 -0.1034
43869W        W86922  20.085  12.662  17.721 -0.0158  0.1851 -0.0944
43870W        W86923  30.391  10.598  26.639 -0.2462  0.0554 -0.3373
43871W        W86924  23.821  21.452   5.475 -0.1290  0.2087 -0.1078
43872W        W86925  30.694  13.111  20.645  0.1466  0.1199  0.0816
43873W        W86926  13.392  14.699   4.358  0.0631  0.1858 -0.1188
43874W        W86927   1.742  28.034  21.961  0.1636  0.1805  0.0105
43875W        W86928  30.878  28.073   8.531 -0.0070  0.2511 -0.2860
43876W        W86929  32.595  20.612  26.161 -0.1222 -0.2637 -0.1612
43877W        W86930  20.102  11.730  24.395  0.0087  0.0380 -0.0949
43878W        W86931  32.397  17.763  28.706 -0.2400 -0.2107 -0.2390
43879W        W86932  25.236   9.418   5.593 -0.1375 -0.0616 -0.0507
43880W        W86933  27.941  16.669  26.076  0.0351  0.1957 -0.1045
43881W        W86934  24.156   3.902  23.651 -0.3581  0.1990  0.0295
43882W        W86935  29.645  15.627  16.565  0.2546 -0.1332  0.1716
43883W        W86936  29.133  34.417  26.537  0.0900 -0.0948 -0.0400
43884W        W86937  33.188  10.537   9.141 -0.2730 -0.1283 -0.1702
43885W        W86938   2.452   6.639   3.907  0.1418 -0.0012 -0.0944
43886W        W86939  32.552  12.045   2.989 -0.0954 -0.0057  0.0894
43887W        W86940  22.567  10.180  20.582  0.2739  0.2319  0.0953
43888W        W86941  24.145  15.231  17.695  0.1723  0.1037 -0.0156
43889W        W86942   8.601   6.721  24.731 -0.0017 -0.3308  0.2048
43890W        W86943   8.082  13.736   4.284  0.1815 -0.3121 -0.0772
43891W        W86944   3.325   6.765   7.137 -0.0203  0.1202 -0.1232
43892W        W86945  27.354  17.288  10.986  0.0114 -0.1864 -0.3143
43893W        W86946   3.321   6.834  23.374 -0.0649 -0.0473  0.0591
43894W        W86947  32.962   6.254   0.312  0.0295 -0.3071 -0.0973
43895W        W86948  24.759  32.074   7.820  0.0774 -0.0804 -0.1870
43896W        W86949  23.064   5.467  22.068  0.1612 -0.0818 -0.1084
43897W        W86950   0.459   1.936   4.575 -0.0106 -0.0850  0.1128
43898W        W86951  26.872  14.030  27.777  0.0512  0.0822  0.0452
43899W        W86952  34.522   8.748   2.136 -0.0006 -0.0502 -0.0772
43900W        W86953  27.473  14.325   4.281 -0.1352  0.1153 -0.1198
43901W        W86954   7.651  30.343   8.890  0.2078 -0.0829  0.1571
43902W        W86955  13.927   9.628   6.013 -0.0948  0.0407 -0.0389
43903W        W86956  34.178  11.216  25.045 -0.1821  0.0608 -0.0338
43904W        W86957  27.822  10.853  21.044 -0.3292  0.1690  0.1029
43905W        W86958   3.892  12.073  23.867  0.1435 -0.2583  0.0328
43906W        W86959   3.133   1.640   2.324  0.0266  0.1881 -0.2532
43907W        W86960   3.149   4.504   4.520  0.1744  0.2480 -0.2779
43908W        W86961  28.061   6.220  20.616 -0.2072  0.2496  0.0008
43909W        W86962  33.158  34.100  25.704 -0.1651  0.1329  0.1000
43910W        W86963  26.384   3.576   5.544  0.1556 -0.0543  0.1347
43911W        W86964   0.759  29.883   0.165 -0.0406  0.4306 -0.0879
43912W        W86965  17.472  10.278   5.874  0.2534 -0.1388  0.2889
43913W        W86966   9.424   9.212  14.724  0.0215 -0.0254  0.5790
43914W        W86967  20.365  14.496   5.843  0.3394  0.3635  0.4284
43915W        W86968  24.696  15.320  24.554 -0.1204 -0.3872 -0.0519
43916W        W86969   6.711   4.898   4.233 -0.2723  0.0127 -0.1475
43917W        W86970  20.573  12.941  14.256  0.0028 -0.2764  0.2327
43918W        W86971   7.935   2.698   8.765  0.2272  0.1293  0.0039
43919W        W86972  33.366  33.118   6.788 -0.0378 -0.1637 -0.5730
43920W        W86973   1.275  17.189   3.911 -0.0182  0.2045 -0.2162
43921W        W86974  24.002  24.950   3.147  0.0751  0.0079  0.0824
43922W        W86975  23.672   9.086  28.061 -0.1107  0.6089  0.2503
43923W        W86976  34.397   9.692  22.417 -0.2616  0.2560 -0.2632
43924W        W86977  24.258  30.280  23.218  0.0221  0.4079  0.0066
43925W        W86978  30.749  21.211   2.031  0.1459 -0.2456 -0.2590
43926W        W86979  14.324   4.599   5.773 -0.1349 -0.0356  0.0099
43927W        W86980  31.357  12.829   4.641 -0.2204  0.2247 -0.0620
43928W        W86981   0.731  33.718  22.831 -0.0008 -0.3261 -0.1646
43929W        W86982  23.737   2.003   7.076 -0.3971 -0.3267  0.2464
43930W        W86983  28.987  19.339   9.496  0.3129  0.1184 -0.0555
43931W        W86984   0.571  23.523  16.655  0.0765 -0.2054 -0.0686
43932W        W86985  33.950  10.687  21.504  0.0562 -0.1653  0.2559
43933W        W86986  24.887   9.004   0.902 -0.1462 -0.2233  0.1173
43934W        W86987   5.302   9.588   7.263 -0.2359  0.0482  0.1287
43935W        W86988  32.052  18.613  23.662 -0.0351  0.1272  0.0957
43936W        W86989  33.478  19.475   4.449  0.3491  0.2268  0.1441
43937W        W86990  34.096   9.650   0.560 -0.0642  0.0672 -0.3029
43938W        W86991  16.070  25.944  28.076 -0.1396  0.1498 -0.0496
43939W        W86992  34.001  30.785   8.124 -0.3891 -0.1047  0.0678
43940W        W86993  13.861  22.011  22.845  0.3275  0.1378 -0.0904
43941W        W86994  30.117   5.102   4.849 -0.3246 -0.1337  0.0246
43942W        W86995  34.587  16.320  27.120  0.2474  0.0933  0.1586
43943W        W86996  29.333  26.199   1.494 -0.2745  0.2939 -0.2336
43944W        W86997   3.285   5.506   4.051  0.1606 -0.1590 -0.2507
43945W        W86998  33.755  25.467   8.630 -0.0614  0.1540  0.0621
43946W        W86999  20.156  25.658   4.127 -0.1683 -0.1327  0.0601
43947W        W87000  19.972  29.178   9.143 -0.0716 -0.1456  0.2866
43948W        W87001  13.990   8.492  19.568 -0.1507  0.1219  0.2440
43949W        W87002  29.404  16.215   1.999  0.3103  0.0604 -0.2096
43950W        W87003   0.458  27.440   0.531  0.0200 -0.0159  0.2600
43951W        W87004   7.383  23.471   0.397 -0.2576 -0.2300  0.1289
43952W        W87005  29.601  26.717  20.546  0.0104  0.0007 -0.0726
43953W        W87006  31.773  27.271  24.845 -0.0131 -0.4342 -0.0106
43954W        W87007   2.625  13.609   1.562  0.1654  0.2691  0.2339
43955W        W87008  10.153  17.635   1.147 -0.1436 -0.1980 -0.1047
43956W        W87009  33.299   3.838  24.282  0.2130  0.2680  0.1936
43957W        W87010  31.524  25.297   6.423 -0.0912 -0.3087 -0.1492
43958W        W87011  33.143  19.595  27.387 -0.0448 -0.0394 -0.1014
43959W        W87012  26.545  14.066  15.689 -0.0639  0.2588  0.0545
43960W        W87013  23.978  21.451  16.485  0.2438  0.0491 -0.2708
43961W        W87014  25.141  12.484   2.143  0.0807  0.0403  0.1626
43962W        W87015   3.216  21.778   7.097  0.0881 -0.2201 -0.3143
43963W        W87016  30.327  22.607  23.424 -0.1654  0.3577 -0.2711
43964W        W87017  25.869  10.241   2.277 -0.0017  0.0522 -0.3429
43965W        W87018  24.627  15.125  26.467  0.0747  0.0447  0.1124
43966W        W87019  23.505  20.420   3.947  0.0925  0.0367  0.1548
43967W        W87020  26.946  12.551   1.842  0.2363 -0.0375  0.0749
43968W        W87021   4.139   5.398   0.402  0.0552  0.0903 -0.0488
43969W        W87022  28.202  19.174  22.041  0.0194  0.0092 -0.1356
43970W        W87023  10.179   5.975   9.939 -0.0775  0.0789 -0.2085
43971W        W87024  24.534  14.015   2.963  0.1191 -0.4047 -0.2634
43972W        W87025  28.979  22.540   3.492 -0.1367 -0.0907 -0.2069
43973W        W87026  24.263   9.795  27.461 -0.0489 -0.2860 -0.2570
43974W        W87027  24.328   9.687   4.313 -0.0776  0.0962  0.0577
43975W        W87028   2.440   9.427   2.118  0.0773  0.2222 -0.0370
43976W        W87029  29.295  21.777  25.904 -0.0581 -0.0606  0.0605
43977W        W87030  25.981  11.735   1.172 -0.0319  0.3204  0.1800
43978W        W87031  28.626   9.533  22.834  0.4430 -0.0893  0.2522
43979W        W87032  27.904  16.555   2.811  0.3162  0.0113  0.2285
43980W        W87033  31.220   4.568   8.600 -0.0287  0.1622 -0.1761
43981W        W87034  15.897  19.642   1.670  0.2316 -0.3529  0.5183
43982W        W87035  15.954  31.359   4.833 -0.1338 -0.1204 -0.2775
43983W        W87036  21.130  19.853  25.218  0.2209  0.2640  0.0443
43984W        W87037   0.897  28.004   8.461  0.4542 -0.1354  0.3707
43985W        W87038  13.430  20.857   2.683  0.2309 -0.1450 -0.1057
43986W        W87039  26.784  19.258   1.023  0.3804  0.1017 -0.0150
43987W        W87040  23.756   8.878  25.203  0.1980  0.3346  0.2830
43988W        W87041  18.597  10.525   0.233 -0.1682  0.1151  0.0314
43989W        W87042  34.072  12.711  28.838 -0.3944  0.0282  0.0614
43990W        W87043  33.434   8.091   6.389  0.1286 -0.2231  0.1698
43991W        W87044   4.840   6.189   5.237 -0.2004 -0.1237  0.1330
43992W        W87045  24.818  27.382   3.317 -0.2148  0.2272  0.2918
43993W        W87046   1.411  12.980   4.275  0.1664 -0.1807 -0.2683
43994W        W87047  10.367  18.985  20.918  0.1521 -0.1612 -0.0474
43995W        W87048   1.947  15.880   9.626  0.1692  0.0321  0.2256
43996W        W87049  13.147   8.383   8.846 -0.1265  0.0104  0.1395
43997W        W87050  27.737   8.661   5.972 -0.0517  0.2597  0.1026
43998W        W87051  23.890  25.152   4.287  0.2275 -0.0983  0.1049
43999W        W87052  34.667  16.483   6.601  0.2299  0.0480 -0.2579
44000W        W87053  23.811   3.587   6.474 -0.0479  0.1485 -0.4787
44001W        W87054  13.889  15.361  17.158  0.4126 -0.1414  0.1088
44002W        W87055  24.720   8.934   9.119 -0.3207  0.0844 -0.2069
44003W        W87056  12.685  25.756   1.773  0.1973  0.1020 -0.0488
44004W        W87057  19.371   6.084  24.335  0.2862  0.0295  0.0120
44005W        W87058   1.615  22.767  23.672 -0.2403 -0.1398  0.1406
44006W        W87059  20.715   5.345   7.644 -0.1775 -0.1150 -0.1045
44007W        W87060  28.896  16.041   7.488  0.1524 -0.1546 -0.1766
44008W        W87061   1.519   5.951  22.105 -0.0558  0.3022 -0.1265
44009W        W87062  12.191  16.055  10.429  0.2432  0.4152  0.2066
44010W        W87063  29.316   7.462   7.287  0.1217 -0.0836 -0.0848
44011W        W87064  25.462  12.345   8.956 -0.1210  0.2773 -0.2725
44012W        W87065  17.510  23.620  25.963 -0.0743 -0.1173 -0.1005
44013W        W87066   3.725   7.190   7.328  0.0292 -0.0397 -0.0796
44014W        W87067   2.057  20.870   1.569  0.1492 -0.0020  0.0633
44015W        W87068  21.870   4.446   3.580  0.1451  0.1194 -0.0076
44016W        W87069  18.733  19.731  22.230  0.0826 -0.3616 -0.0622
44017W        W87070  25.304  32.518  25.768  0.4428  0.0205  0.1605
44018W        W87071   1.695   6.553   4.765 -0.0464  0.1243 -0.1900
44019W        W87072  14.725   8.575   4.024  0.2366  0.0463  0.1415
44020W        W87073   2.928   4.977  26.819  0.1810 -0.2044  0.1343
44021W        W87074  29.648   8.622   7.471 -0.1325  0.1000  0.2343
44022W        W87075  19.342  13.730   7.140  0.1549  0.3700  0.0131
44023W        W87076  28.726  12.166   7.830 -0.3132  0.0772  0.1928
44024W        W87077  15.051  14.724   7.556  0.2431 -0.0873  0.2333
44025W        W87078  34.083  15.697   9.277 -0.1693 -0.0598 -0.2099
44026W        W87079  27.975  31.784   7.992  0.0104  0.1038  0.3240
44027W        W87080   7.749  23.947  25.844 -0.1633  0.0535  0.0051
44028W        W87081   6.303   9.324  24.659  0.1286  0.2140  0.1665
44029W        W87082  14.052  28.927  26.433 -0.1454  0.0443 -0.1509
44030W        W87083   5.289  26.329   9.455  0.1548 -0.0361  0.0431
44031W        W87084  11.942  15.053   2.858  0.0562  0.1399  0.2498
44032W        W87085  11.223   0.684  28.547  0.3324 -0.3028 -0.0356
44033W        W87086  27.454  22.673   8.874  0.1769  0.0648  0.2473
44034W        W87087  21.069  12.758  17.379 -0.0525  0.0944  0.0773
44035W        W87088  28.424  22.634   9.072 -0.2968 -0.2500  0.1546
44036W        W87089  25.767   1.118   5.534  0.2063 -0.2437 -0.0936
44037W        W87090  29.412  12.751   4.167 -0.0992 -0.0929 -0.1374
44038W        W87091  23.578  14.380   7.115 -0.2832 -0.4437  0.2115
44039W        W87092   4.185   2.532  27.951 -0.0774  0.2286 -0.0176
44040W        W87093  28.384  19.861   3.474  0.0869 -0.0001 -0.2742
44041W        W87094  25.954  13.261   5.727 -0.4505  0.0370 -0.2105
44042W        W87095  22.653   7.185  20.628  0.1498 -0.1035 -0.0459
44043W        W87096   4.706   8.886   8.248  0.1870  0.2112  0.0156
44044W        W87097  28.534  17.142  29.013 -0.2511 -0.1464  0.3135
44045W        W87098   1.969  25.488  23.871  0.2073 -0.1462  0.0972
44046W        W87099  26.096  14.344  28.471  0.0511 -0.3920 -0.2691
44047W        W87100  22.536  18.512   8.035 -0.2629 -0.2418 -0.0347
44048W        W87101  26.792   3.344   3.086 -0.1209  0.0591  0.0385
44049W        W87102   0.296  21.137   8.590  0.1197 -0.0856  0.0232
44050W        W87103   6.827   7.692  16.391  0.2483  0.0478 -0.0296
44051W        W87104  22.568   8.044  18.202 -0.0028  0.0047  0.1686
44052W        W87105  27.550  12.467   6.093  0.5021  0.4217 -0.1646
44053W        W87106  26.908  13.693   9.161 -0.2406  0.1271 -0.1675
44054W        W87107  33.941  26.294   3.620  0.1126  0.1111 -0.2877
44055W        W87108  28.187  13.885   1.763  0.1275  0.0160 -0.0259
44056W        W87109  29.136   0.837   4.315 -0.1325 -0.0277 -0.1880
44057W        W87110  34.665  18.013   1.745  0.0283  0.3376  0.0732
44058W        W87111  34.615  16.568   0.643 -0.0408  0.1714  0.1597
44059W        W87112  30.337   8.411   5.452 -0.0390 -0.0838 -0.4649
44060W        W87113   4.482  17.879  14.438  0.1274  0.0050  0.0438
44061W        W87114  13.669  30.749   5.280 -0.1701 -0.0493  0.1847
44062W        W87115   3.562  33.444   3.199  0.0371  0.3438  0.1418
44063W        W87116  24.053  20.994   4.489  0.1552  0.2035  0.4178
44064W        W87117  29.100   6.925   9.249 -0.1999  0.0662 -0.3187
44065W        W87118   2.170  19.146   1.922 -0.1707  0.0766 -0.2603
44066W        W87119  11.449   7.798   8.283 -0.0193 -0.0959  0.1212
44067W        W87120  26.238   8.731   2.022 -0.1244  0.2411  0.0543
44068W        W87121  14.808  30.849   9.676 -0.1818 -0.0827 -0.0220
44069W        W87122  24.779   0.867  28.317  0.2652 -0.4258 -0.1016
44070W        W87123  31.737   1.406  27.538 -0.4400  0.1300  0.4171
44071W        W87124  18.432  31.343   6.607  0.0311 -0.0722 -0.1688
44072W        W87125  29.260   9.932   3.753  0.0166  0.1337 -0.0090
44073W        W87126  18.256  14.208   5.397  0.2831 -0.3143 -0.0374
44074W        W87127  24.084  23.185  27.957 -0.0837 -0.0252  0.1645
44075W        W87128  17.737   9.320   9.328  0.2713  0.4915  0.1100
44076W        W87129   1.445   8.911   8.618 -0.1650 -0.1719  0.2544
44077W        W87130   2.514  20.072  19.085 -0.1282 -0.1949 -0.1934
44078W        W87131  12.806   7.383   6.674 -0.1141  0.1476  0.1627
44079W        W87132   0.902  11.964   7.093 -0.0649 -0.0427 -0.2379
44080W        W87133  13.340   9.398   8.462  0.0148 -0.1690 -0.1285
44081W        W87134   1.127   6.658   7.432  0.1171  0.0747  0.2280
44082W        W87135   0.890  14.397   1.606  0.2590  0.0505  0.0759
44083W        W87136   9.088  33.617   7.929 -0.0792  0.2159 -0.2347
44084W        W87137  11.792  23.184  22.195  0.2006  0.0479  0.1896
44085W        W87138  15.991  33.417   9.918  0.0136  0.0995  0.1024
44086W        W87139  22.710   2.179   5.880 -0.1485  0.1388  0.5556
44087W        W87140  22.921  11.001  24.781 -0.2589  0.2442 -0.2065
44088W        W87141  30.875  12.944  19.303  0.1238 -0.0568  0.0786
44089W        W87142  27.937  14.009   7.272  0.3450 -0.0941  0.0801
44090W        W87143   0.749   2.696   8.603 -0.3731 -0.0438  0.0492
44091W        W87144  19.701   9.822   2.986  0.0424  0.0528  0.3395
44092W        W87145  31.506  29.126   6.598 -0.1225  0.0617 -0.1952
44093W        W87146  10.868  11.409   1.167 -0.0143 -0.0732 -0.0461
44094W        W87147   1.675  13.447   4.393 -0.0859 -0.0192 -0.2781
44095W        W87148  27.049  20.264  28.069 -0.3195  0.0348  0.2635
44096W        W87149  31.092   5.446   6.024 -0.4222  0.1487 -0.1624
44097W        W87150  28.794  24.685   0.098 -0.0147 -0.0164 -0.3668
44098W        W87151  32.640   8.346   2.011 -0.1288 -0.0012  0.1919
44099W        W87152  25.898   2.206   4.295  0.3711 -0.1191 -0.0820
44100W        W87153  25.894  11.967   2.609 -0.0279  0.0986  0.1849
44101W        W87154  29.423  23.224   2.778  0.0249 -0.3364  0.0049
44102W        W87155  22.044  12.778   9.037 -0.1098 -0.1084  0.0850
44103W        W87156   3.034   8.584  16.274  0.0899 -0.0019 -0.1185
44104W        W87157  32.704   9.591   1.300  0.0543  0.0347  0.1357
44105W        W87158  20.914  11.327   6.764 -0.4197  0.0929  0.1831
44106W        W87159   7.979  13.509   4.703  0.1243  0.1032  0.1032
44107W        W87160   3.368   0.808  23.754 -0.2120 -0.0729 -0.3173
44108W        W87161   2.462  33.884   8.345  0.2606  0.2439 -0.1171
44109W        W87162   6.905  21.641  29.046 -0.0573 -0.1670 -0.2770
44110W        W87163  30.443  33.039   6.485 -0.1053  0.1840 -0.1447
44111W        W87164  31.540   5.378   8.610  0.0621  0.1546  0.2485
44112W        W87165  30.728   9.756   9.338  0.2600 -0.2711  0.1868
44113W        W87166  30.515  25.829   9.337 -0.1599 -0.3952 -0.1451
44114W        W87167  16.125   8.401   8.760  0.0928  0.1260  0.2368
44115W        W87168   9.145  11.993  26.143 -0.4776  0.2203 -0.2730
44116W        W87169   6.931  17.479   3.419 -0.1601 -0.1877  0.1846
44117W        W87170   5.041  23.098  18.800  0.0963 -0.2156  0.1134
44118W        W87171  28.866  11.416  21.197 -0.0223 -0.3413  0.0227
44119W        W87172  30.065  30.149  26.389  0.1498 -0.3441  0.0642
44120W        W87173  29.626   5.250   1.371  0.2298  0.1231  0.0858
44121W        W87174  14.315   8.449   3.751  0.1615 -0.1810  0.2147
44122W        W87175  28.964  31.494   0.388  0.0514 -0.0895  0.0080
44123W        W87176  25.276  22.745   7.141 -0.4458 -0.0554  0.0750
44124W        W87177  28.562  25.344   0.962  0.4267  0.1640 -0.3163
44125W        W87178  30.316   9.154   9.527 -0.0359  0.1992 -0.1733
44126W        W87179  19.706  25.722  27.039  0.0842 -0.0901  0.0748
44127W        W87180  11.663   4.299   2.528 -0.0166  0.1205 -0.4548
44128W        W87181   4.550  30.294   5.408 -0.0842  0.1006 -0.0415
44129W        W87182  34.440  11.908   0.997 -0.1423  0.0414 -0.1806
44130W        W87183  27.668  31.537   0.647  0.2873 -0.1805 -0.0507
44131W        W87184  29.260   8.932   5.676  0.1879  0.0641  0.1129
44132W        W87185  18.343   5.709   7.279 -0.1821  0.2740  0.1402
44133W        W87186  27.309   5.408   5.512 -0.1177  0.3274  0.1308
44134W        W87187  21.462  22.544   2.207  0.1097 -0.2625  0.3451
44135W        W87188  30.031   3.608  24.870 -0.1228 -0.2999 -0.3757
44136W        W87189  12.565   1.382  26.606 -0.0830 -0.1818 -0.1778
44137W        W87190  24.374  29.168  22.297  0.1074  0.1727 -0.1702
44138W        W87191  25.879  17.583  27.755 -0.0104 -0.1816  0.2321
44139W        W87192  29.806  16.361  21.272  0.1358  0.4026 -0.3109
44140W        W87193  29.701  11.390   6.475  0.1467 -0.0326  0.1205
44141W        W87194  21.331  18.123  25.253 -0.1168 -0.2099  0.0585
44142W        W87195  20.397   8.550   9.154  0.1760 -0.0674 -0.1675
44143W        W87196   2.878  22.767  10.564 -0.1297  0.2620  0.0774
44144W        W87197  14.315  20.210   3.567 -0.2713 -0.3036 -0.0508
44145W        W87198  32.102  16.014   1.647  0.2058 -0.1534 -0.1431
44146W        W87199  20.068  21.731   7.033  0.2074 -0.1910  0.2534
44147W        W87200   3.538  34.407   9.393  0.2542  0.1555 -0.1100
44148W        W87201  33.544  10.527  10.299 -0.2323 -0.1099 -0.5092
44149W        W87202   6.817  20.094  27.589 -0.0871  0.0836 -0.0109
44150W        W87203   4.528  23.577  28.040 -0.1238 -0.0893 -0.1557
44151W        W87204  19.405  25.599  25.638  0.0123  0.0141 -0.2138
44152W        W87205   5.317  21.005  28.702  0.1405  0.1405  0.1658
44153W        W87206  32.087  16.294  28.936  0.2357 -0.0632  0.0290
44154W        W87207  16.506  18.242   5.054 -0.0394  0.0655 -0.1387
44155W        W87208  19.428   9.428   2.746  0.1940  0.3662  0.0341
44156W        W87209  26.548  21.471   8.648  0.1854 -0.0049 -0.1293
44157W        W87210  28.651  31.033   3.351 -0.1508  0.1128 -0.1148
44158W        W87211  24.700   4.074  23.357  0.1839  0.4285  0.1370
44159W        W87212  27.633  29.808   7.441  0.2261 -0.1669  0.0386
44160W        W87213  24.124   7.511   5.509  0.0197 -0.3780  0.3720
44161W        W87214  23.695  24.110   5.706  0.1265  0.0852 -0.0938
44162W        W87215  30.671   4.360   4.825  0.1600  0.1373  0.0573
44163W        W87216  15.488   7.482  22.944 -0.0024  0.1892 -0.0892
44164W        W87217   2.872  24.092  26.291 -0.2885 -0.0584  0.0776
44165W        W87218   2.273   1.463   8.841  0.1345  0.0976 -0.1878
44166W        W87219  18.208  29.978  25.655  0.0098 -0.1316  0.0623
44167W        W87220  26.111  21.302   4.442 -0.2252 -0.0994  0.0464
44168W        W87221   5.456   8.306   2.571 -0.0848 -0.1331 -0.0256
44169W        W87222  30.295  10.587   6.497 -0.1606  0.0107  0.1399
44170W        W87223  15.731  30.743  27.400 -0.0875  0.3076 -0.0610
44171W        W87224  23.693   8.226   6.968  0.0024  0.1292  0.2890
44172W        W87225  20.938  11.600  18.920  0.0525 -0.1260  0.2033
44173W        W87226  24.810  21.972  18.326  0.2212 -0.5047 -0.0298
44174W        W87227  32.167  19.736   4.743 -0.1121 -0.1740  0.0533
44175W        W87228   8.759  21.258  20.244 -0.0598  0.0406 -0.2135
44176W        W87229  31.929   0.166   8.732 -0.2899 -0.0595 -0.0794
44177W        W87230   9.737   9.459  10.383 -0.0476 -0.2598  0.0523
44178W        W87231   0.987  16.850   4.060  0.1835 -0.2935  0.1362
44179W        W87232   3.631  19.075  21.248 -0.0479  0.0936  0.0833
44180W        W87233  14.537   9.299   0.879  0.1737  0.1145  0.0699
44181W        W87234  10.954  13.913   3.539  0.0915 -0.0354 -0.1855
44182W        W87235  18.516  18.126  23.111  0.0826 -0.1869 -0.2863
44183W        W87236  27.230  30.691   8.260  0.1088 -0.1271 -0.0343
44184W        W87237  19.489   4.293   5.788 -0.1889 -0.1307 -0.0479
44185W        W87238  18.266   8.381   5.961 -0.0308  0.1293 -0.0814
44186W        W87239  17.079  16.347  29.180 -0.1276  0.0056  0.1394
44187W        W87240  22.779  13.846   0.270  0.0632 -0.2153 -0.0469
44188W        W87241   6.622  14.520   5.451  0.2162  0.1737 -0.1986
44189W        W87242  25.825   7.871   9.921 -0.3241  0.1430  0.2770
44190W        W87243  23.303  15.998   8.878  0.1698 -0.0453 -0.0054
44191W        W87244  21.649  17.391  28.790 -0.1250 -0.0246  0.0385
44192W        W87245  29.621   0.084   0.299  0.0511  0.2909 -0.0297
44193W        W87246  24.267   4.311   9.193 -0.2095  0.0417 -0.0950
44194W        W87247  21.073  14.743   5.356  0.1031  0.0306 -0.0430
44195W        W87248   9.415  11.231   6.824 -0.0241  0.0081  0.3105
44196W        W87249  29.877  27.372   5.760  0.1804  0.1660  0.1810
44197W        W87250  31.690  29.840   4.325 -0.0006  0.2788 -0.1105
44198W        W87251   4.834  34.258   8.252 -0.0171  0.1264  0.0398
44199W        W87252   2.384  15.960   4.182 -0.0628 -0.0882 -0.0175
44200W        W87253   1.417  15.108  29.165  0.1705 -0.0336 -0.1504
44201W        W87254  14.003   7.593   0.105 -0.0853  0.1834 -0.0511
44202W        W87255  23.835  13.759   4.683  0.0321  0.1028 -0.0083
44203W        W87256  16.002   4.385   9.826 -0.2079  0.2171  0.0624
44204W        W87257  25.436  24.516   1.615 -0.0419  0.0968 -0.0632
44205W        W87258  27.483  19.187  26.239  0.0395 -0.3024 -0.2184
44206W        W87259   5.892  11.824  28.116 -0.1457  0.1651  0.0616
44207W        W87260  29.438  22.333   9.262 -0.2734 -0.0021  0.0571
44208W        W87261  31.828   6.330  25.673 -0.1680 -0.3008 -0.0931
44209W        W87262  28.073  19.566   4.304  0.0311 -0.2938  0.2919
44210W        W87263  23.111  31.301  22.815  0.2308  0.0706 -0.0284
44211W        W87264  27.976  28.726   9.454  0.1077  0.0631 -0.0495
44212W        W87265   7.252   6.255   2.591 -0.3246  0.0854 -0.4369
44213W        W87266  20.878  10.010  24.205  0.0475  0.2029  0.1843
44214W        W87267  15.315  15.438   6.094  0.0977 -0.1253  0.1912
44215W        W87268  27.196  12.997   7.214 -0.0559  0.3125 -0.2392
44216W        W87269  30.618  25.442   3.187  0.1938 -0.0531 -0.3416
44217W        W87270   0.485  21.786   6.284  0.0704 -0.2327  0.0410
44218W        W87271   6.376  11.581  28.244 -0.1072  0.2548 -0.0706
44219W        W87272  31.315  23.552  19.932 -0.0209  0.4339  0.0816
44220W        W87273  18.525   5.320   4.766  0.0328 -0.1981 -0.3679
44221W        W87274  22.085  32.018   9.559  0.3074 -0.1451 -0.1567
44222W        W87275  27.679  20.144  24.405 -0.2182 -0.1098 -0.2734
44223W        W87276  21.004  15.826  20.332  0.1285 -0.0147  0.3967
44224W        W87277   4.512   8.481  27.716 -0.0090  0.0587  0.2967
44225W        W87278  15.911  16.730   2.970 -0.1702 -0.0071 -0.0000
44226W        W87279  31.356  22.169  24.890 -0.4400 -0.0418  0.1004
44227W        W87280  32.283  17.497   9.868 -0.2494 -0.0813  0.2024
44228W        W87281  19.873  14.996   6.684  0.3817 -0.1572  0.1864
44229W        W87282   8.258  20.367  25.822 -0.1196  0.0021 -0.0758
44230W        W87283  19.833  16.818  24.717  0.2573  0.3057  0.1931
44231W        W87284  25.498  15.838   4.234  0.0415 -0.1802  0.0566
44232W        W87285   7.523  23.277  26.374 -0.1175  0.3069  0.1908
44233W        W87286   2.825   3.179   6.813 -0.2193  0.0685 -0.3691
44234W        W87287  29.863  33.407   2.399  0.3385 -0.1893  0.0773
44235W        W87288  23.689  15.570   6.742  0.2741 -0.2176 -0.0962
44236W        W87289  15.873  15.686   6.834  0.3198  0.0650 -0.1754
44237W        W87290   4.201  25.387   2.712 -0.2088 -0.0743 -0.0093
44238W        W87291   2.159  16.404   1.846 -0.1898  0.0353  0.3936
44239W        W87292  18.575  16.774   9.476 -0.0212 -0.2871  0.1434
44240W        W87293   7.279  22.514   8.003 -0.3749  0.0115  0.4122
44241W        W87294  25.291  20.136   6.198 -0.0762  0.1795 -0.1240
44242W        W87295  26.731   4.878   1.927  0.1374 -0.1452 -0.2164
44243W        W87296  22.848  22.582   9.460  0.1469 -0.4604  0.1806
44244W        W87297  33.941  20.709   9.419  0.1923  0.0757 -0.0021
44245W        W87298  26.069  15.290  26.952 -0.0389  0.0070 -0.2025
44246W        W87299   1.242  18.843   7.958 -0.2002  0.1016 -0.2313
44247W        W87300  18.378  19.322  26.857 -0.0973  0.0326  0.2609
44248W        W87301  21.099  17.573   4.767 -0.0221  0.2071 -0.0053
44249W        W87302   1.226  12.609  27.401 -0.0256  0.0835  0.4477
44250W        W87303  30.147   9.163   4.219 -0.2205  0.0676 -0.0470
44251W        W87304   2.614   5.168   9.565  0.3756  0.0443 -0.1276
44252W        W87305  28.850   2.633   9.667  0.0818  0.0264  0.3626
44253W        W87306   2.564  32.204   1.554  0.2253  0.0096 -0.1423
44254W        W87307  20.175  13.452  25.692 -0.0056  0.0119  0.0078
44255W        W87308  21.020   9.280   9.601  0.0183 -0.0924  0.3063
44256W        W87309  14.890  12.451  22.804  0.2843  0.1378  0.0396
44257W        W87310  23.450   0.622   8.540  0.1401  0.1444  0.1016
44258W        W87311   6.228   8.319   2.111 -0.2607 -0.3688 -0.1078
44259W        W87312  21.969   6.512   6.389 -0.0249  0.0367 -0.0211
44260W        W87313   4.263   8.556  20.369 -0.0432 -0.0635 -0.2561
44261W        W87314  30.392  33.552  21.126  0.1728 -0.1105  0.0037
44262W        W87315  10.829  16.298   9.175  0.1990 -0.1339 -0.1148
44263W        W87316   8.454   5.601   2.615 -0.0074  0.0088 -0.2563
44264W        W87317  29.223   7.572   3.530  0.3619  0.1592  0.5062
44265W        W87318  33.888   4.973   4.951  0.1014 -0.3162 -0.2163
44266W        W87319  21.534   9.192   9.099  0.2462  0.0831 -0.0314
44267W        W87320   0.699  32.539  20.388 -0.1114  0.0613 -0.0485
44268W        W87321  22.212  23.643   3.260 -0.1022 -0.0009 -0.1228
44269W        W87322   2.160  33.536   7.584 -0.2317 -0.0943  0.3620
44270W        W87323   2.031   7.095  10.074 -0.3065 -0.3206 -0.3009
44271W        W87324  30.103  14.291   4.181  0.1052  0.0792  0.0918
44272W        W87325  27.103  19.461  25.953 -0.0312 -0.0198 -0.1121
44273W        W87326   8.589   7.647   4.608  0.1101 -0.0944  0.2347
44274W        W87327   9.669  14.380   8.783 -0.0421 -0.0636 -0.2230
44275W        W87328  26.552  24.556   9.954  0.1787 -0.0213 -0.0174
44276W        W87329  23.914  13.079   2.415 -0.2939  0.2042  0.0049
44277W        W87330   9.836  10.835  23.193 -0.0839  0.0190 -0.1997
44278W        W87331  31.441  33.716   2.812  0.0712 -0.0013  0.0221
44279W        W87332  13.221   7.683   5.830  0.1304 -0.0046  0.0199
44280W        W87333  32.286  19.387   3.393  0.0936  0.1045  0.2832
44281W        W87334   3.129  10.043   6.769 -0.0468 -0.0880  0.0524
44282W        W87335   0.852  12.793  28.191  0.2083  0.2854 -0.0216
44283W        W87336  21.192  21.483   1.953 -0.0311  0.3499 -0.1493
44284W        W87337   4.510  31.835  16.012  0.2414 -0.2583  0.3028
44285W        W87338  21.114  27.640   8.591  0.2839 -0.3340 -0.0716
44286W        W87339   2.635  23.738   2.439  0.1784 -0.3684  0.1491
44287W        W87340  33.758   4.369   6.117 -0.1445 -0.0256  0.0306
44288W        W87341   5.880   6.722   5.959  0.0254  0.0921 -0.0018
44289W        W87342   6.833  25.716  13.566 -0.0048 -0.0446  0.1035
44290W        W87343  21.692   3.246   9.730 -0.1782  0.0582 -0.0796
44291W        W87344   3.321  32.195   5.312  0.2853 -0.1003 -0.1902
44292W        W87345  33.496  32.811   7.153  0.0836 -0.1809 -0.0007
44293W        W87346   3.109   9.693  23.055  0.1024 -0.1075  0.1642
44294W        W87347   7.161  26.909   2.295 -0.1234 -0.3167  0.0190
44295W        W87348  32.721  30.078   0.852  0.0450  0.0127 -0.0046
44296W        W87349   0.750  25.780   6.401  0.2406 -0.2122 -0.0213
44297W        W87350  19.244  23.467   2.382  0.0957 -0.1903 -0.0475
44298W        W87351   6.701  13.987   6.200 -0.0990  0.3809  0.0476
44299W        W87352   1.766  14.492   3.215 -0.1505 -0.1097 -0.0618
44300W        W87353   7.268   5.839   8.447  0.1585 -0.1182  0.2829
44301W        W87354   2.051   9.870  26.779  0.0601  0.0163 -0.1466
44302W        W87355  14.645  17.366   6.216  0.0835 -0.0804  0.1410
44303W        W87356   5.623  19.317   6.612  0.0695  0.1110 -0.1786
44304W        W87357  23.587  21.618   4.840  0.0150 -0.1756  0.2119
44305W        W87358  34.501  28.892   8.931  0.0952  0.1263 -0.0288
44306W        W87359   5.129  14.532   4.986 -0.1998  0.1262 -0.0513
44307W        W87360  21.458  12.036   7.577 -0.3092 -0.0394 -0.3937
44308W        W87361   9.650  31.110   9.194 -0.2416 -0.2457  0.1617
44309W        W87362   3.131  34.001  21.060  0.2899 -0.0246  0.1703
44310W        W87363  12.945  14.830  10.178  0.2460  0.2083 -0.1370
44311W        W87364  15.221  12.174   4.951  0.4101 -0.2089  0.2425
44312W        W87365  17.323  30.648  11.230  0.0286  0.1899  0.1733
44313W        W87366  24.407  10.033   2.923  0.2846 -0.0246 -0.1348
44314W        W87367  34.495  29.837  25.671 -0.2688  0.0493  0.1787
44315W        W87368  15.956   9.616   7.427  0.2195  0.1202  0.2494
44316W        W87369  31.077  14.418   3.843  0.0939  0.0998  0.0392
44317W        W87370   0.987  15.015   1.192 -0.0155  0.0350 -0.1261
44318W        W87371   3.660  11.915   8.463 -0.2931  0.1121  0.0957
44319W        W87372  15.292   9.265   2.096  0.0252  0.3757 -0.0975
44320W        W87373  13.874  17.303  22.831 -0.3908  0.0436  0.0057
44321W        W87374  31.413  24.659  26.905  0.1208  0.1297  0.1735
44322W        W87375  21.899  16.040  24.122 -0.0436  0.2307 -0.1808
44323W        W87376  23.066  11.009   7.649  0.0149 -0.2150 -0.3751
44324W        W87377  24.293  15.278   7.280 -0.0516  0.3471  0.0628
44325W        W87378  27.922  14.384   1.656  0.0014  0.0126 -0.1828
44326W        W87379  30.972   4.868  25.441 -0.3076 -0.0332 -0.0020
44327W        W87380  17.703  21.224   1.065 -0.3118  0.3181 -0.1375
44328W        W87381  18.976  17.448  24.257 -0.0715 -0.1201 -0.2769
44329W        W87382  27.134   2.539  23.540 -0.0331 -0.1265 -0.1519
44330W        W87383  26.467  10.673  25.440  0.0849  0.1652  0.1260
44331W        W87384  17.762  17.874   5.820 -0.0924 -0.3117  0.0520
44332W        W87385  24.533  31.746  19.436 -0.0003  0.0672 -0.1407
44333W        W87386  17.362   4.983  22.984  0.0881 -0.3590  0.0776
44334W        W87387  30.363  24.462  24.470  0.0642 -0.0455 -0.0007
44335W        W87388  33.540  15.491   7.758 -0.2756 -0.1386 -0.0445
44336W        W87389   6.754  12.268   3.181  0.0873  0.0897 -0.0347
44337W        W87390  16.446  24.039   2.203 -0.0520  0.2412 -0.0093
44338W        W87391   9.075  17.092  28.389  0.1226  0.1286  0.0562
44339W        W87392  12.867  22.779   3.850 -0.2248  0.0033 -0.1254
44340W        W87393  14.863   9.523  11.074  0.2558  0.2624  0.0247
44341W        W87394   8.433   5.520  24.273 -0.2470  0.1330 -0.0295
44342W        W87395   2.478  27.844   4.966  0.0238 -0.2505 -0.3294
44343W        W87396  24.851   4.773   4.387  0.0053  0.0386 -0.0253
44344W        W87397  22.860  22.841  16.231  0.2065  0.1592 -0.0140
44345W        W87398  23.038   6.913   5.031  0.3072 -0.1397  0.1579
44346W        W87399   7.722   6.552   2.670  0.1449  0.2546 -0.4223
44347W        W87400  19.338  14.462   7.470 -0.1225  0.1645  0.2320
44348W        W87401  25.642   3.457   1.304 -0.0962 -0.2805  0.1037
44349W        W87402  31.444   2.652   7.871 -0.1417 -0.1440  0.0002
44350W        W87403  27.921  17.124   9.819 -0.0747  0.1127  0.1238
44351W        W87404  23.231  11.552   1.570 -0.0034 -0.0756 -0.2373
44352W        W87405  34.642   1.052   1.473 -0.0793  0.0714 -0.2739
44353W        W87406  25.319  13.095   7.564 -0.1646  0.0500  0.0739
44354W        W87407  24.778  11.380  24.402 -0.1955  0.0954 -0.0445
44355W        W87408  27.345   7.628  26.444  0.1451  0.0864  0.2393
44356W        W87409  22.346  29.690  19.333 -0.0954 -0.0185  0.2091
44357W        W87410  21.237  20.218   9.269  0.3659  0.1582  0.1794
44358W        W87411  31.998  23.709  15.476  0.0182 -0.0878  0.1994
44359W        W87412  12.482  32.598  20.139  0.0383 -0.1307 -0.2625
44360W        W87413  34.029  16.321   5.411 -0.0586 -0.2914 -0.3300
44361W        W87414  10.671  27.045  24.126  0.1028  0.3037  0.1683
44362W        W87415  19.158  15.406   3.335 -0.0398  0.0493  0.0937
44363W        W87416   0.508   7.848  28.000  0.2345 -0.1265  0.0713
44364W        W87417   8.512  14.358   8.092  0.1295 -0.1233 -0.0005
44365W        W87418   4.655  15.474   8.355  0.0644 -0.0954  0.4452
44366W        W87419   9.246   1.650   4.410  0.1496 -0.1386  0.2665
44367W        W87420  31.253  17.536   8.157 -0.1676 -0.0821 -0.2165
44368W        W87421  22.516  17.537   1.973  0.0669 -0.2508 -0.3970
44369W        W87422  26.619  22.410  21.538  0.1315 -0.0751 -0.1079
44370W        W87423  23.116   5.525   9.267  0.2489  0.2802  0.1624
44371W        W87424   7.307  15.791  26.240 -0.0087  0.1975 -0.1198
44372W        W87425  28.716   7.936  16.798 -0.0685  0.1693  0.0410
44373W        W87426  23.511  34.158   6.652  0.0251  0.1883 -0.2210
44374W        W87427  15.301  25.038  18.504  0.2943  0.1847 -0.1974
44375W        W87428   5.895   5.254   1.852 -0.0695  0.0098  0.0581
44376W        W87429  25.646  11.422  10.389 -0.0271  0.1829 -0.2132
44377W        W87430   0.946   8.364  15.667  0.4023 -0.0265 -0.3476
44378W        W87431   6.321   6.085  24.107 -0.1495 -0.1987 -0.1394
44379W        W87432  26.980  30.492   0.746 -0.1851 -0.0213  0.1808
44380W        W87433  15.139   9.393   3.583 -0.1295  0.1613 -0.1961
44381W        W87434  19.457  21.737   7.936 -0.0421 -0.3817 -0.1706
44382W        W87435  22.593  28.542  24.180  0.0078 -0.6137  0.3976
44383W        W87436  22.291  13.249  24.585 -0.0901  0.0391 -0.2486
44384W        W87437  33.210   9.141  19.153  0.3364  0.0771  0.0305
44385W        W87438  28.895  19.095   6.257  0.2456  0.1171  0.3371
44386W        W87439  26.238   9.827   6.346  0.1580 -0.0233 -0.1964
44387W        W87440  33.235   6.618  10.204 -0.0343 -0.4059 -0.1357
44388W        W87441  17.724  34.095   9.126  0.0935 -0.2904 -0.1714
44389W        W87442   1.510  10.359   5.527 -0.2093  0.2622 -0.2124
44390W        W87443   9.748   6.532  27.158  0.1617  0.3305 -0.0371
44391W        W87444  33.797  18.781   5.291  0.1653  0.2287  0.3809
44392W        W87445  33.603  23.909   5.398  0.2024  0.1605 -0.0148
44393W        W87446   3.921   8.884   4.234  0.2094  0.1118 -0.1472
44394W        W87447  21.533  19.207   8.421 -0.3164 -0.0551  0.3181
44395W        W87448  27.425  12.312   7.308  0.0291 -0.1479  0.1437
44396W        W87449   0.716   9.531  24.245  0.1761 -0.1366  0.1886
44397W        W87450  29.245   7.962   8.615  0.3749 -0.2932  0.0270
44398W        W87451   0.285  23.711  26.241 -0.0996  0.0033  0.0031
44399W        W87452   3.490  15.508   6.681  0.2182 -0.0349  0.0964
44400W        W87453   6.007   9.059  28.311  0.1110 -0.1509  0.0087
44401W        W87454  30.742  16.610   5.262 -0.0704  0.1390 -0.0026
44402W        W87455  14.301   5.912  10.160  0.0385 -0.3203  0.0595
44403W        W87456  23.945  11.176  28.173 -0.1121 -0.2242  0.0404
44404W        W87457  22.159   1.708   2.260  0.0501 -0.0441 -0.0359
44405W        W87458  12.403   6.784  26.593  0.0430 -0.1025  0.2770
44406W        W87459  34.127  12.080   7.403  0.1097 -0.0568  0.1777
44407W        W87460   0.173  32.389   0.725  0.3020  0.3286  0.0910
44408W        W87461  29.767  12.254  22.302 -0.0579 -0.1811 -0.2657
44409W        W87462  21.787   8.461  20.791  0.3941  0.0528 -0.1722
44410W        W87463  21.610  15.225   3.860  0.2800  0.2833 -0.1164
44411W        W87464  21.055  11.843   4.694 -0.2798 -0.2130 -0.0009
44412W        W87465  25.483  21.444   2.515 -0.1380 -0.0990 -0.1687
44413W        W87466  30.199  18.512   3.943  0.0590  0.0113  0.1685
44414W        W87467  28.613  18.700   6.977 -0.2482  0.1320 -0.0929
44415W        W87468  32.617  10.930  25.118 -0.1152  0.0861 -0.1056
44416W        W87469   5.384   3.031   9.637  0.0941  0.0029 -0.1348
44417W        W87470   8.843  14.495  27.279 -0.1588 -0.1390 -0.0741
44418W        W87471  12.372  19.722  25.536  0.0110 -0.2536 -0.0345
44419W        W87472  29.692   3.290   1.646  0.5014  0.0413 -0.0861
44420W        W87473  17.319  19.277  14.842 -0.2972 -0.1115  0.2434
44421W        W87474  19.388  32.689   2.608 -0.0756 -0.2042 -0.0356
44422W        W87475   1.886   0.963   7.513  0.1382  0.0826 -0.1633
44423W        W87476  31.980  25.691   0.436  0.1385  0.0554 -0.2971
44424W        W87477   5.750  27.039   1.788 -0.2212 -0.3646 -0.0092
44425W        W87478  31.426  19.317  28.907  0.0415  0.0958  0.0836
44426W        W87479  29.329  34.215   1.081  0.2272 -0.1769 -0.0712
44427W        W87480  22.196  16.455   6.447  0.2610  0.2366 -0.1156
44428W        W87481  26.934  30.993  15.441 -0.1282  0.0582 -0.1215
44429W        W87482  12.467  28.292  18.474  0.3611  0.0592 -0.0109
44430W        W87483  21.659  19.408  15.492 -0.0665 -0.2700 -0.0198
44431W        W87484  19.089  22.696   6.439  0.1909  0.0718 -0.0867
44432W        W87485  14.651  19.108   6.897 -0.0313 -0.5013 -0.3369
44433W        W87486  33.653  15.150   1.245  0.0304 -0.0196 -0.0168
44434W        W87487  18.577  22.973  17.083  0.2011  0.0682  0.7186
44435W        W87488  27.305   5.697   9.272  0.1143 -0.1833 -0.1430
44436W        W87489   3.239  22.732  27.282 -0.3292  0.1315  0.0819
44437W        W87490  30.616  11.194   9.713 -0.1902  0.2985 -0.0754
44438W        W87491  32.619   5.199   5.481  0.0049 -0.0616  0.2384
44439W        W87492  26.713  11.049   9.904  0.0868  0.3179 -0.0320
44440W        W87493  22.837  16.726   8.381 -0.3903  0.0945 -0.0047
44441W        W87494  29.980  34.506   5.000  0.1135 -0.1651 -0.0645
44442W        W87495  19.748  34.211   4.068  0.1777 -0.1471 -0.1367
44443W        W87496  33.423  20.715   9.285  0.2728 -0.0649 -0.0175
44444W        W87497   7.659   7.012   1.961  0.0716 -0.1407 -0.0856
44445W        W87498  31.699  17.732   3.567  0.3173 -0.2848 -0.2962
44446W        W87499  17.487   8.492  22.056 -0.1530  0.0813  0.3458
44447W        W87500  28.685  10.027   3.609  0.0484  0.1239 -0.2088
44448W        W87501   3.398  12.422   9.712  0.0242 -0.1634  0.0623
44449W        W87502  22.259  10.158   6.005 -0.0232  0.2443 -0.1761
44450W        W87503  26.981   2.214  23.978 -0.0723  0.3571 -0.0021
44451W        W87504  29.668   2.499   7.184  0.0741  0.2922 -0.1609
44452W        W87505   1.685  13.073   0.164  0.2222  0.3058 -0.0734
44453W        W87506  30.707  26.043   9.964  0.0257 -0.3884 -0.0568
44454W        W87507   6.640   3.610   3.017  0.2603 -0.1917  0.2269
44455W        W87508  33.056  16.118   7.106  0.0830  0.1335 -0.3423
44456W        W87509  22.359  20.105   4.608  0.0036 -0.0628 -0.0583
44457W        W87510   2.452   9.062   1.499 -0.1738 -0.2660 -0.1802
44458W        W87511   7.555  32.720  25.684 -0.0998 -0.2207 -0.2025
44459W        W87512  31.191  13.612   4.319  0.2024  0.3523  0.0001
44460W        W87513   4.475  21.356   7.841  0.3315 -0.3342  0.0220
44461W        W87514  11.733  21.645   8.245 -0.0740  0.0023 -0.1044
44462W        W87515  34.609  20.616   0.883  0.2871  0.4373  0.0764
44463W        W87516  12.951  14.447   1.707  0.2020 -0.1032  0.0223
44464W        W87517  22.839   3.698   6.657  0.1257  0.3813 -0.2279
44465W        W87518  23.419  23.953  10.379 -0.3156  0.2385 -0.1517
44466W        W87519  16.484   3.497  15.006  0.0846 -0.2902 -0.1027
44467W        W87520   6.777   6.082   2.425 -0.0977 -0.1935 -0.0106
44468W        W87521  29.634  22.931   5.864 -0.2658 -0.0207 -0.1225
44469W        W87522  22.651  29.778  22.423  0.0555 -0.1399  0.0609
44470W        W87523  22.142   8.543   7.709 -0.0479 -0.0696  0.1111
44471W        W87524  30.283   4.639   7.859  0.1021  0.2317 -0.0453
44472W        W87525  31.753  17.558   7.787  0.1210  0.3534  0.1163
44473W        W87526  17.956  21.792  27.493  0.0477 -0.1092 -0.0204
44474W        W87527  34.043  20.000   5.511 -0.0821  0.0939  0.0312
44475W        W87528  33.130  18.060  15.587  0.2174  0.1000 -0.2860
44476W        W87529  21.989  33.926  26.459 -0.0223 -0.1171 -0.1246
44477W        W87530  25.966   6.309  24.715  0.0527  0.2526 -0.0218
44478W        W87531  27.690  13.851   4.912 -0.3646  0.2172 -0.0755
44479W        W87532  29.185  18.227  21.443  0.2767 -0.3708  0.1445
44480W        W87533  22.058   3.504   4.322  0.1960  0.1874  0.2496
44481W        W87534  31.052   2.808  26.549  0.1254  0.1588 -0.0138
44482W        W87535  29.112   0.782   5.193  0.0945 -0.2787  0.2829
44483W        W87536  32.458  26.906   9.043  0.0305  0.0611  0.2959
44484W        W87537   0.879   5.596  24.169 -0.2777  0.1551  0.1166
44485W        W87538  30.789  14.545   0.322  0.0872 -0.1937 -0.0177
44486W        W87539   0.561  23.967   0.464  0.3167 -0.2126  0.0686
44487W        W87540  25.488   1.599   6.735  0.0645  0.0765  0.3630
44488W        W87541   7.708  26.528  26.870  0.0545  0.3087 -0.1935
44489W        W87542  29.378  18.544   1.217 -0.0948  0.1304 -0.0219
44490W        W87543  32.584  23.098   4.368  0.1070  0.3165 -0.1671
44491W        W87544  28.818   1.959  27.153  0.0713  0.0973 -0.0781
44492W        W87545  31.535  14.967   0.916  0.0451  0.4566  0.2274
44493W        W87546  17.922   8.762   9.310 -0.2964 -0.1926  0.0906
44494W        W87547  23.255   2.136  24.524 -0.3836 -0.0984  0.0221
44495W        W87548   3.772   9.331  25.186 -0.0640  0.0398  0.1593
44496W        W87549  33.031  19.885   5.123  0.0050 -0.1394  0.2083
44497W        W87550   3.336   2.266  28.866 -0.3228  0.0369 -0.1874
44498W        W87551  31.475  15.054   2.520  0.0402  0.0417  0.3312
44499W        W87552   1.731  15.427  25.397 -0.2939 -0.1810 -0.1111
44500W        W87553   1.010   7.220   3.790 -0.1136 -0.0615 -0.1783
44501W        W87554   5.784   5.014  25.725 -0.1664 -0.2775  0.0004
44502W        W87555  21.773   7.303   9.767 -0.1144  0.4177 -0.1460
44503W        W87556  33.035  10.913  20.787 -0.1737 -0.0291 -0.0396
44504W        W87557  20.552   7.840  21.215  0.0619 -0.4098 -0.3156
44505W        W87558  25.845   4.780   7.219 -0.0569  0.0645 -0.1286
44506W        W87559  18.134  28.649   4.394 -0.1614  0.3096 -0.0523
44507W        W87560  26.596  22.689   5.497  0.0369 -0.0623 -0.2621
44508W        W87561  23.968  18.342  26.500  0.1022  0.2775  0.2796
44509W        W87562  23.297  14.136   6.781 -0.1840  0.0578  0.0885
44510W        W87563   4.104   3.423   6.362 -0.0968  0.1528 -0.2146
44511W        W87564  28.616  26.075  10.294  0.0587  0.1527 -0.0968
44512W        W87565  31.545   0.521  23.306 -0.2944  0.0992  0.1028
44513W        W87566  24.158   5.434  28.188  0.0778  0.2159  0.3177
44514W        W87567  32.396  16.169   6.447  0.3831  0.0112 -0.0694
44515W        W87568  19.370  20.513   2.412 -0.0423 -0.1349 -0.2311
44516W        W87569   3.513  15.708   7.739 -0.1327 -0.0996  0.0443
44517W        W87570  21.499  18.757   0.999  0.2699  0.4128  0.0042
44518W        W87571  25.240   6.952   4.289 -0.0281  0.2352  0.0049
44519W        W87572   6.673  11.380   9.065 -0.0078 -0.2933 -0.0146
44520W        W87573  14.646   1.156   7.439 -0.0089  0.0305  0.1365
44521W        W87574  31.256  13.260   5.568 -0.2912 -0.1928  0.0868
44522W        W87575   4.430   8.174   8.012  0.0760  0.0613 -0.0303
44523W        W87576   0.629  12.635  16.461 -0.1688  0.1437 -0.1244
44524W        W87577  30.768   1.267   7.204  0.2136  0.0597  0.1266
44525W        W87578  32.156   6.621  24.722  0.3077  0.0420  0.0725
44526W        W87579   4.410  10.136   5.646 -0.0951 -0.0466  0.1036
44527W        W87580  23.610  18.287  28.080  0.0192  0.0102  0.6238
44528W        W87581  17.091   6.613   6.859  0.0166  0.2160 -0.3690
44529W        W87582  34.446  26.805  14.285  0.0873  0.0139 -0.3022
44530W        W87583  21.894  18.973   2.679  0.2450  0.2279  0.0363
44531W        W87584  12.260  32.603  24.798 -0.0813  0.1184 -0.0191
44532W        W87585  19.200  20.529  26.947 -0.0133  0.2568  0.0248
44533W        W87586   1.986  14.763   2.242  0.2975 -0.0313  0.2417
44534W        W87587  27.630  13.338   1.204  0.0898 -0.1557  0.0342
44535W        W87588  31.922  14.874  25.215 -0.1962 -0.2722 -0.0525
44536W        W87589  31.839  13.793   9.124  0.0472  0.0374  0.0397
44537W        W87590   2.437  11.575   2.161 -0.1053 -0.3751  0.0676
44538W        W87591   2.871   2.691   8.399 -0.2509 -0.1749  0.0051
44539W        W87592  29.521  13.401   2.115  0.0199  0.0433 -0.3417
44540W        W87593   7.367   2.537   7.976  0.1055  0.1440  0.0405
44541W        W87594   7.431  20.096   5.583  0.0802  0.0554 -0.0591
44542W        W87595  29.875  12.039   4.544 -0.1903  0.1888 -0.0739
44543W        W87596  25.059  20.852  22.232  0.1249 -0.0057 -0.0185
44544W        W87597  28.531   3.437   6.329 -0.1792 -0.2330 -0.2277
44545W        W87598   5.966   5.278  22.379 -0.0808 -0.2853 -0.1076
44546W        W87599  17.531   8.401   7.702 -0.1145 -0.1893 -0.0547
44547W        W87600   2.778  32.776   8.639 -0.2716 -0.3617 -0.1039
44548W        W87601  27.723  24.618   9.953  0.3403  0.0252 -0.2161
44549W        W87602   7.997   6.202   6.694 -0.1503 -0.2665  0.0149
44550W        W87603  31.344  18.982   0.943 -0.0778  0.0539 -0.3913
44551W        W87604  24.706  34.472  27.647 -0.1639  0.2139  0.3540
44552W        W87605   7.351   5.388   9.655  0.1622 -0.2463  0.1457
44553W        W87606  17.341   3.792   1.255  0.1040 -0.4337  0.2780
44554W        W87607  20.791  23.781   1.057 -0.1829  0.1219  0.0041
44555W        W87608  25.174  12.457   8.059 -0.1910 -0.1726 -0.1588
44556W        W87609  24.119  10.085  29.184 -0.3170  0.4269  0.1209
44557W        W87610  30.743  12.178   6.053 -0.1306  0.1714 -0.0737
44558W        W87611  34.574  16.090   6.267  0.1617 -0.1490  0.0303
44559W        W87612   3.395  11.636   7.714 -0.0932  0.0788  0.0464
44560W        W87613   5.949  25.981   1.054 -0.1647 -0.3918 -0.0464
44561W        W87614  33.507  13.287   0.232 -0.0633 -0.0365 -0.0523
44562W        W87615  29.997   4.816   6.624  0.2878  0.1036  0.1574
44563W        W87616  28.392   4.397   5.133 -0.0499 -0.0988 -0.3505
44564W        W87617  29.104  22.110  25.495 -0.3423 -0.0890  0.0603
44565W        W87618   3.464  17.427   1.337 -0.2329  0.1328  0.1762
44566W        W87619  34.365  34.099   1.310 -0.2732  0.2294 -0.0985
44567W        W87620  14.209  13.984   5.904 -0.1666 -0.0123  0.2341
44568W        W87621  17.038   9.329   6.122 -0.1344  0.0152  0.1153
44569W        W87622  12.499   5.195   6.612 -0.1929 -0.1422  0.0381
44570W        W87623  26.969  17.325   3.037 -0.1020  0.0055 -0.0568
44571W        W87624   3.465   0.968   4.259 -0.0800 -0.0818 -0.0715
44572W        W87625  29.713  11.700   0.318 -0.0379  0.0310 -0.1640
44573W        W87626  28.497   9.369   9.755 -0.3240 -0.0427  0.1674
44574W        W87627   1.949  24.456   9.158  0.1602 -0.0326  0.0587
44575W        W87628  15.263  14.022  23.698  0.2648 -0.2609  0.0176
44576W        W87629  18.577   9.189   8.324 -0.0096 -0.1777  0.0946
44577W        W87630   9.337  10.448   8.603  0.1048 -0.4509 -0.0201
44578W        W87631  33.252   8.978   9.282 -0.2519  0.0802  0.0803
44579W        W87632  26.507  17.148   3.112 -0.1012  0.2954 -0.1837
44580W        W87633   2.269  12.555   7.412  0.2556 -0.0937 -0.2027
44581W        W87634  32.511  24.349   4.077 -0.0568 -0.0767 -0.0356
44582W        W87635  26.242   0.199  28.301 -0.0370 -0.1823  0.1071
44583W        W87636  31.643  16.182   7.077  0.0426 -0.3112 -0.0657
44584W        W87637  23.957   7.922   0.569  0.0551  0.2411 -0.4272
44585W        W87638   4.754  15.700   9.644 -0.2201  0.0532  0.1828
44586W        W87639  32.192   2.026  25.123 -0.0765  0.0946 -0.2038
44587W        W87640  10.793  19.447   5.625  0.1976  0.4697  0.4400
44588W        W87641   3.253   5.049   6.316 -0.1186  0.2012  0.2212
44589W        W87642  29.445   4.791  26.600  0.1040  0.1050  0.1355
44590W        W87643  29.222  18.060   7.499 -0.1003 -0.1241 -0.3668
44591W        W87644  30.930  29.897   2.672 -0.1840 -0.0036  0.0980
44592W        W87645   1.132   0.423   8.377  0.1954  0.1201  0.0029
44593W        W87646  31.220   4.025   9.986  0.1158 -0.0132  0.2405
44594W        W87647  27.155   9.669  17.274  0.0237 -0.2593 -0.1988
44595W        W87648  31.356  15.543   2.562  0.1466  0.0064 -0.2688
44596W        W87649  33.942   5.262   5.719 -0.1101 -0.2913 -0.0418
44597W        W87650  20.157   7.467   1.869  0.1143 -0.0080  0.2500
44598W        W87651  33.409  17.100   0.273 -0.0253 -0.0926  0.1084
44599W        W87652  14.680   7.396   4.086  0.1150 -0.0568 -0.0718
44600W        W87653  25.853  19.618   1.805  0.1629  0.0957  0.0228
44601W        W87654  31.655   3.790   7.485  0.1978 -0.2339  0.0060
44602W        W87655  33.198   6.462  21.479  0.4160 -0.1267 -0.1233
44603W        W87656  31.356   5.720  25.986  0.1784 -0.1637  0.0634
44604W        W87657  33.360  11.611   7.575  0.2434  0.0985 -0.3195
44605W        W87658  31.817  10.701  27.614 -0.2118  0.0767 -0.3043
44606W        W87659  28.400   2.442   9.277  0.0595  0.0213 -0.1092
44607W        W87660  29.981   4.601  25.910  0.1223  0.0625  0.3256
44608W        W87661   2.163   4.415   7.343 -0.0648 -0.1004  0.0698
44609W        W87662   8.399   9.443   0.833  0.3798 -0.1871 -0.2309
44610W        W87663  26.923  21.877  28.562 -0.0841  0.1398 -0.2715
44611W        W87664  30.697  13.793   8.135  0.0726 -0.3081  0.1103
44612W        W87665  22.908   3.433   4.413 -0.1185  0.1664 -0.2236
44613W        W87666  33.682  26.597   2.387  0.4172  0.1327 -0.3159
44614W        W87667   6.234   4.701   0.923  0.0064  0.1097 -0.1117
44615W        W87668  29.630  27.623   8.252 -0.0813  0.1668 -0.1297
44616W        W87669   1.027  25.697   6.880  0.2619  0.1078 -0.0485
44617W        W87670  23.148  23.509   6.563  0.6929  0.2562  0.1850
44618W        W87671  24.814  11.438   8.790 -0.0970 -0.1759  0.1584
44619W        W87672   3.808  12.742   9.712  0.1543  0.0700  0.3992
44620W        W87673   0.179  21.830  23.883 -0.0842 -0.1599  0.0191
44621W        W87674  27.768  11.358   3.451  0.0741 -0.0250 -0.2929
44622W        W87675  31.872  26.980   5.564 -0.1275 -0.1063  0.0957
44623W        W87676  32.412  15.725   9.704 -0.0314  0.0284  0.0695
44624W        W87677  33.036  13.441   2.860 -0.0641 -0.1782  0.3131
44625W        W87678   3.397   5.026   3.825  0.3370  0.3081  0.1292
44626W        W87679  33.810  23.539   9.017 -0.0868 -0.2665 -0.4504
44627W        W87680  10.579  18.074   6.501 -0.0023  0.0144  0.1118
44628W        W87681  27.835  20.955  26.395  0.2610 -0.0371  0.0673
44629W        W87682   7.610  13.950   4.352 -0.0393 -0.0511  0.0823
44630W        W87683  31.515  19.040  15.025  0.0099  0.0337 -0.5144
44631W        W87684  22.684  25.425   5.702  0.0523  0.0312  0.3612
44632W        W87685   6.447  15.983  10.058  0.1758  0.2108 -0.3588
44633W        W87686   5.651   0.904   9.309 -0.1817  0.1863  0.1492
44634W        W87687  33.167  11.298   7.984  0.1230  0.3048  0.4692
44635W        W87688  33.826  15.984  21.573 -0.2950 -0.1064  0.1416
44636W        W87689  32.895  19.882   7.748 -0.0559  0.1456 -0.0015
44637W        W87690   5.448  24.918  22.271  0.0056 -0.5163  0.0387
44638W        W87691  27.012  26.884   9.750 -0.0632 -0.1589  0.1988
44639W        W87692  31.451  20.903  27.523  0.0386 -0.4824  0.1690
44640W        W87693  16.531  33.504   4.970  0.1968 -0.0570  0.0969
44641W        W87694  21.283  27.778   2.621 -0.0087  0.0856 -0.2567
44642W        W87695   1.654   4.881   9.560  0.2651 -0.1024 -0.0363
44643W        W87696  28.431  12.739   6.782  0.0270 -0.1086 -0.1796
44644W        W87697   4.707   5.532   4.662  0.0375 -0.3152 -0.0328
44645W        W87698  29.795  13.185   4.915  0.0083  0.0275 -0.2432
44646W        W87699  32.772  15.056  17.294 -0.3389 -0.1898 -0.0698
44647W        W87700  20.381  20.010   1.658  0.3009  0.0983  0.0166
44648W        W87701  29.857  13.557   8.508  0.2195 -0.1100 -0.3271
44649W        W87702  33.695  15.220  28.346 -0.0296 -0.0832  0.1580
44650W        W87703  29.601  30.178  26.645 -0.0022 -0.1233 -0.0974
44651W        W87704  16.543  12.998   2.988 -0.0985 -0.2485  0.1350
44652W        W87705   4.667  19.088   4.946 -0.0654  0.0759  0.1822
44653W        W87706  13.839  16.127  27.185  0.2824 -0.1453 -0.2896
44654W        W87707  19.886  13.738  20.844  0.0649 -0.2338 -0.1490
44655W        W87708  16.966   7.008  24.182 -0.0459 -0.1327 -0.1683
44656W        W87709  14.649  12.071   4.323  0.1892 -0.0296  0.0337
44657W        W87710   3.391  25.863  23.685  0.3385 -0.0911  0.1378
44658W        W87711  33.595  21.352  20.494  0.2511 -0.1813 -0.3579
44659W        W87712   0.771   2.485   5.253 -0.0262 -0.1693 -0.1025
44660W        W87713  10.456   3.003  26.624 -0.0606 -0.2827 -0.0676
44661W        W87714  33.260  22.058   1.076  0.1030 -0.1371 -0.0944
44662W        W87715  13.844  27.026   7.463  0.3257 -0.2257  0.1913
44663W        W87716  33.230  11.098   0.588  0.2689 -0.0120 -0.1672
44664W        W87717  12.223   9.089   8.468 -0.0803 -0.2051  0.0675
44665W        W87718   5.172   6.353   2.504 -0.0755  0.1186 -0.0383
44666W        W87719  22.411  22.885   9.442 -0.2589 -0.0002  0.0727
44667W        W87720  26.113  13.773   6.097 -0.0801  0.0642 -0.0460
44668W        W87721  19.794  12.342   4.868  0.0329  0.5386 -0.0205
44669W        W87722   2.428  10.462  27.433  0.1346  0.3644  0.1175
44670W        W87723  23.950  27.257   2.848 -0.0429 -0.0998  0.0911
44671W        W87724  28.990   6.088   5.114 -0.3387 -0.2243 -0.2475
44672W        W87725  16.136  10.948  18.751  0.2810  0.4883  0.2512
44673W        W87726  34.326  20.545  28.407 -0.1001  0.1431 -0.0419
44674W        W87727   2.703  29.740   7.641  0.0014 -0.2864  0.0909
44675W        W87728  22.828  18.100   6.600  0.1806  0.0743 -0.1853
44676W        W87729   2.777   3.511  17.831 -0.2672 -0.2711  0.4773
44677W        W87730   0.328   4.160   5.941 -0.0894  0.1305 -0.1447
44678W        W87731   7.336  11.708  10.212  0.1539 -0.2555  0.1322
44679W        W87732  14.658  14.490  26.096  0.1792 -0.0632 -0.1203
44680W        W87733  21.366   6.511  29.160  0.2771 -0.0739  0.0760
44681W        W87734  28.012   2.714   5.954 -0.2100  0.1502 -0.2730
44682W        W87735  28.467  26.107  26.186  0.2651  0.3240  0.2084
44683W        W87736  33.917  30.491   2.734  0.1500  0.1649  0.1715
44684W        W87737  29.476   8.824   7.909 -0.0113  0.0124  0.0564
44685W        W87738   9.061  12.440  29.186 -0.3808 -0.2528  0.0816
44686W        W87739  28.126  18.122  24.100 -0.0694  0.1694 -0.0151
44687W        W87740  23.569  34.640  19.681 -0.0450  0.1642 -0.3775
44688W        W87741  12.043  16.824  21.157 -0.1311  0.4036  0.4041
44689W        W87742  28.855  19.737  28.697  0.1347  0.0199  0.1826
44690W        W87743  20.794  24.730  15.912  0.1308 -0.0630 -0.0546
44691W        W87744  11.314   3.996  28.658 -0.2234  0.0553  0.2533
44692W        W87745  32.937  23.283  27.751  0.1617  0.2334  0.0450
44693W        W87746  27.453  12.920  24.623 -0.2126 -0.2194 -0.0101
44694W        W87747   5.195  12.411   8.071  0.0229 -0.2362  0.0112
44695W        W87748  10.539  15.659   7.902 -0.1796 -0.1085  0.3200
44696W        W87749  15.134  31.918   6.831 -0.1546 -0.1370 -0.2712
44697W        W87750  24.246  32.005   2.933  0.0607  0.3242 -0.0856
44698W        W87751  22.022  31.416   3.815 -0.0997 -0.2057 -0.2537
44699W        W87752  31.171  10.100   9.103  0.0489  0.0263 -0.2508
44700W        W87753  19.489  23.339  10.184  0.1188  0.1243  0.2371
44701W        W87754  10.122   5.281   6.492 -0.0176  0.3189  0.0109
44702W        W87755  22.531  32.058   0.618  0.1007  0.1060 -0.0702
44703W        W87756  29.558  10.374  22.634 -0.1666 -0.0906  0.2054
44704W        W87757  31.885  21.619   5.128  0.1077  0.1430 -0.1691
44705W        W87758   3.751  34.304  23.518  0.0066  0.1665 -0.0255
44706W        W87759  13.952  19.339  19.530  0.2574  0.2969  0.1352
44707W        W87760  26.231  18.942   9.531  0.1257 -0.1626  0.0360
44708W        W87761  11.009  32.648   2.948 -0.1081  0.0084  0.0467
44709W        W87762  33.659  33.828  28.364 -0.0415  0.1712 -0.2185
44710W        W87763   0.890  27.788   1.889  0.1256 -0.0833 -0.3044
44711W        W87764  15.568  30.291  23.959  0.1801 -0.1083 -0.0386
44712W        W87765  33.674   6.036   4.674  0.0980 -0.2727 -0.1446
44713W        W87766   6.298   0.304  26.663  0.1017 -0.2039  0.0252
44714W        W87767  29.262   9.680   6.781 -0.2592  0.0978  0.6649
44715W        W87768  29.412  28.619   4.293 -0.0435  0.0334 -0.4805
44716W        W87769  20.934  20.102   2.305 -0.0805  0.0223  0.1037
44717W        W87770  31.475  24.278   8.278 -0.1637  0.1091 -0.3449
44718W        W87771  32.663   9.823  20.888  0.0040  0.0223  0.0070
44719W        W87772  23.481  30.938   9.181  0.0927  0.1685  0.0323
44720W        W87773  19.418  18.839  24.269  0.2341 -0.0856 -0.2614
44721W        W87774  26.601  24.554  27.146  0.1861 -0.0240 -0.0352
44722W        W87775  24.952   9.918   0.439  0.2815 -0.1540 -0.2580
44723W        W87776  14.528   1.666  15.444  0.3043 -0.1991  0.3013
44724W        W87777  34.297  19.454  22.047 -0.1784 -0.1427 -0.0481
44725W        W87778  33.795   7.144   0.976  0.1813 -0.1755  0.1215
44726W        W87779  13.851  13.131  27.623  0.0738 -0.0785  0.1593
44727W        W87780  27.771  16.063  25.514 -0.1654 -0.5441  0.1948
44728W        W87781  33.969  16.948   7.644  0.1309 -0.0944  0.0538
44729W        W87782   2.140  22.359  28.323 -0.0619  0.1299 -0.1682
44730W        W87783  22.802  19.169   3.260 -0.1797  0.1246  0.1716
44731W        W87784  17.081  14.807  24.875 -0.1277  0.1238  0.0182
44732W        W87785  22.214   0.190   3.470  0.1732  0.1176 -0.2844
44733W        W87786  21.972  20.531   6.004 -0.1494  0.0239 -0.1535
44734W        W87787  27.487  12.942   8.166  0.1226 -0.0947  0.2746
44735W        W87788   4.912  14.771  25.826  0.0937 -0.0583 -0.1438
44736W        W87789   2.038   2.347  18.003  0.1042  0.1286  0.2634
44737W        W87790  22.464  24.563   6.005  0.1362  0.0074  0.0194
44738W        W87791  22.085   1.461   5.387  0.1925 -0.0985  0.0638
44739W        W87792  30.588   9.701  11.114  0.2037  0.1268  0.1072
44740W        W87793   5.359  18.818  18.962  0.1519 -0.1520  0.1474
44741W        W87794  16.397  21.928  20.049 -0.0484  0.0580 -0.1413
44742W        W87795  28.354  20.573  27.598  0.0078 -0.2066  0.0669
44743W        W87796  30.543  24.559  25.472 -0.1806  0.1782  0.3631
44744W        W87797  30.065  22.572   6.754 -0.1886 -0.3198 -0.0896
44745W        W87798  15.415   6.132  25.127 -0.0997 -0.2785  0.2049
44746W        W87799  17.474  20.268   3.860 -0.2944  0.0382  0.0046
44747W        W87800  24.985   8.471   9.060 -0.2884  0.3901 -0.2432
44748W        W87801  31.332  10.791  14.394  0.2556 -0.0873 -0.0758
44749W        W87802  29.127  25.712  25.363  0.0333 -0.2709  0.3207
44750W        W87803  34.200  20.549   4.233  0.2910  0.0654  0.3673
44751W        W87804  21.465   9.636  19.368 -0.1943 -0.1087  0.0315
44752W        W87805  23.834  26.626   3.469  0.0439  0.0612  0.1524
44753W        W87806  29.646  23.888  28.761  0.1300  0.1135  0.0249
44754W        W87807  34.368  17.543   7.938  0.0556 -0.1386 -0.1415
44755W        W87808  33.217  17.348   1.117 -0.0590  0.1252 -0.1164
44756W        W87809   0.142  17.767   1.384  0.0162  0.1144 -0.0741
44757W        W87810  20.688  18.874  26.175  0.0392 -0.3018  0.0367
44758W        W87811  17.201  29.823   7.813 -0.2051 -0.2691  0.0628
44759W        W87812   1.284  20.782   5.435 -0.0843  0.0796 -0.0896
44760W        W87813  24.187  21.513  15.986  0.2360 -0.0152 -0.0130
44761W        W87814  33.233  19.917   1.496  0.2331  0.1663 -0.0892
44762W        W87815  23.378  17.899   3.212  0.1937 -0.1582 -0.1311
44763W        W87816   1.205  12.905  27.817  0.0253 -0.0453  0.1426
44764W        W87817  13.319  13.548  10.205  0.1712 -0.3738  0.0824
44765W        W87818  22.850  15.636  21.824 -0.2592 -0.1330  0.2343
44766W        W87819  23.443  12.486   4.998  0.4068 -0.1514  0.5347
44767W        W87820  17.106   6.384   9.584 -0.1183 -0.2271  0.1252
44768W        W87821   4.896   5.094  16.562  0.2084  0.1769  0.3472
44769W        W87822  30.066   6.312  17.853  0.1369  0.0675 -0.3502
44770W        W87823  34.384  18.490   3.098 -0.1928 -0.2816 -0.0209
44771W        W87824   5.957   7.696   5.702  0.0584 -0.1905  0.3607
44772W        W87825  29.971   5.988   0.851 -0.1167 -0.2226  0.3420
44773W        W87826  20.277  14.379  23.389 -0.2594  0.0517  0.1490
44774W        W87827   8.430  26.736   5.602 -0.0150 -0.1341  0.0419
44775W        W87828  32.989  18.240   2.462 -0.2422 -0.0945  0.0396
44776W        W87829  10.106  29.262  26.650  0.1835  0.2549  0.1791
44777W        W87830  24.950   5.831   1.845 -0.2054 -0.2137  0.0479
44778W        W87831  28.571  16.437  19.755  0.0107 -0.0412 -0.2992
44779W        W87832  31.959   5.388   0.037 -0.2869  0.1131  0.1797
44780W        W87833   7.929   4.129   0.180  0.1715  0.1051  0.0964
44781W        W87834  28.513  15.982  15.080  0.1334  0.1868  0.1315
44782W        W87835  32.421  16.557  26.981  0.0520 -0.0134  0.2784
44783W        W87836  29.300  17.382  20.415  0.0224  0.0069 -0.0602
44784W        W87837   7.285  25.105  19.681 -0.0876 -0.0822 -0.0907
44785W        W87838  33.652  16.259  14.231  0.3119 -0.1946 -0.0304
44786W        W87839  24.361  13.849   0.102 -0.1342  0.1622 -0.1034
44787W        W87840   9.104  31.944   7.883 -0.3384  0.0427 -0.1353
44788W        W87841  28.356   4.005  24.154 -0.3272  0.1278  0.1362
44789W        W87842  11.720   3.051  23.681 -0.2180 -0.1062 -0.1621
44790W        W87843   9.013  21.998  10.023  0.1490 -0.1617 -0.2112
44791W        W87844   8.490  33.510  27.142  0.1213 -0.0097 -0.1657
44792W        W87845   2.154  16.192   4.741  0.3749 -0.1281  0.0448
44793W        W87846   0.460  25.920   3.181 -0.1597 -0.0165  0.1019
44794W        W87847  11.734  17.571  15.696 -0.0574 -0.3695 -0.0635
44795W        W87848  32.973   1.658  15.865 -0.0710  0.2714 -0.1530
44796W        W87849  15.614   6.924   9.496 -0.0233  0.0556  0.3252
44797W        W87850  24.511   7.469  27.603  0.0140  0.3273 -0.4865
44798W        W87851  34.535   1.908   7.048  0.0597  0.1263  0.2585
44799W        W87852  19.703  18.808   8.578  0.0869  0.1339  0.4048
44800W        W87853  24.640  21.447  10.247 -0.1579 -0.2807  0.0324
44801W        W87854  15.769  29.974   5.076  0.1319 -0.1859  0.2736
44802W        W87855  32.536  31.427   3.386  0.0713 -0.0589 -0.1711
44803W        W87856  26.291  25.172   9.208 -0.0492  0.1665 -0.3350
44804W        W87857  30.411  21.020   8.496 -0.0235 -0.4562 -0.0327
44805W        W87858  30.676   6.441   6.941  0.1465  0.3799 -0.0685
44806W        W87859  19.553  15.417  28.492  0.0246 -0.0880  0.0179
44807W        W87860  29.338  13.497  25.058 -0.1499  0.0195  0.0113
44808W        W87861  22.282  11.752   9.813 -0.0124 -0.2622  0.3024
44809W        W87862  32.286  24.757  28.932  0.2329 -0.1763 -0.2116
44810W        W87863  26.181  29.887  21.198  0.0960  0.2262  0.1445
44811W        W87864  26.974  11.441  21.890 -0.0146  0.1502  0.1365
44812W        W87865  30.693  14.168   8.471  0.3266  0.0329 -0.0702
44813W        W87866  33.432  11.516   9.079 -0.2497 -0.2287  0.2542
44814W        W87867  31.585   3.787   8.826  0.0615 -0.0009 -0.1111
44815W        W87868   3.858   7.891  23.327 -0.4066 -0.0722 -0.1498
44816W        W87869  19.327  17.923  13.328 -0.1351 -0.0368 -0.0501
44817W        W87870  26.456  19.335   1.439 -0.2480 -0.1058 -0.0566
44818W        W87871  27.094  11.749  14.642  0.0864  0.0964  0.0194
44819W        W87872  28.502  10.695   4.386  0.0832  0.0842 -0.1822
44820W        W87873  25.965  28.788  19.874 -0.3127  0.2987 -0.0896
44821W        W87874  22.109  12.308  20.779  0.0769  0.1000 -0.1902
44822W        W87875  30.804  15.697  20.053 -0.0008  0.2594  0.0581
44823W        W87876   3.684  18.882   4.416 -0.0999  0.2890  0.3740
44824W        W87877   2.330  14.631   1.408  0.0177 -0.1047 -0.0676
44825W        W87878  28.932  14.977   6.328  0.0845 -0.2626 -0.0928
44826W        W87879  10.772  10.748   8.926 -0.0660  0.1616 -0.3382
44827W        W87880  12.993   8.566  10.568  0.1249  0.4069 -0.1745
44828W        W87881  24.403  13.169  26.343 -0.0156  0.3047 -0.2486
44829W        W87882  10.023  15.946  10.180 -0.0532  0.1393  0.3892
44830W        W87883   6.408  20.768   5.951 -0.1869  0.0973 -0.0304
44831W        W87884  15.909  13.303   2.422  0.0777 -0.0341 -0.1942
44832W        W87885  33.366  15.553  20.940 -0.0991  0.3935  0.0835
44833W        W87886  32.515  15.634  24.143  0.2588  0.1981 -0.0363
44834W        W87887   8.229  27.876  20.654  0.0723 -0.1979  0.0651
44835W        W87888  25.616  26.206  24.912 -0.0130 -0.0975 -0.0100
44836W        W87889  21.471  19.283  22.359  0.1869 -0.0140 -0.1157
44837W        W87890  31.734  19.636   4.932 -0.0681  0.0654 -0.0616
44838W        W87891   5.782  13.389   5.899 -0.0378 -0.1680  0.1398
44839W        W87892  26.632  15.847  29.121 -0.0277 -0.2393 -0.0539
44840W        W87893  31.609  33.263   8.719 -0.0363  0.1957  0.2924
44841W        W87894  18.188   0.698  25.691 -0.0198  0.0273 -0.0095
44842W        W87895  27.935  25.332   5.284 -0.4381  0.0313  0.1389
44843W        W87896   7.404  14.988  29.167  0.0438 -0.4305  0.0966
44844W        W87897  30.752  20.562   5.988 -0.0166 -0.0061  0.0110
44845W        W87898  26.113  17.112   2.334  0.0911  0.3275 -0.0731
44846W        W87899  24.962  13.717   6.213 -0.0247  0.1488  0.1106
44847W        W87900  34.185  15.493   1.534 -0.1055 -0.2498 -0.1224
44848W        W87901  30.853  15.508   3.090  0.2057  0.2588  0.0733
44849W        W87902  17.551  28.686   6.704  0.2275 -0.0911  0.2369
44850W        W87903  26.990  28.761   2.257 -0.0686 -0.1430  0.1876
44851W        W87904  33.941  31.154  27.222 -0.0220 -0.0862 -0.1346
44852W        W87905  10.555  12.988   3.129 -0.1849 -0.0707 -0.1698
44853W        W87906  34.082   0.223  13.925 -0.2421 -0.0167 -0.0897
44854W        W87907  15.707  27.288   4.826  0.1337 -0.0560  0.1109
44855W        W87908  30.194   8.752  25.321  0.1697  0.1542 -0.2818
44856W        W87909   0.919  30.053   5.700 -0.2252 -0.0802  0.2130
44857W        W87910  34.511   4.104   7.443  0.1232  0.0366  0.0799
44858W        W87911  23.035  13.671   7.991  0.1991 -0.1606 -0.1359
44859W        W87912  26.292  19.305  17.779 -0.1308 -0.0166  0.0370
44860W        W87913  16.258   5.155  20.200  0.1738  0.1632 -0.1210
44861W        W87914  26.416   4.421   9.089  0.3021 -0.0566 -0.2505
44862W        W87915  26.590  21.291   5.141 -0.0637  0.1369 -0.1035
44863W        W87916  28.281  26.339  27.753 -0.1188  0.0949 -0.2012
44864W        W87917  31.916  12.255   5.273 -0.0134  0.1096 -0.3613
44865W        W87918  27.413  14.560   5.526 -0.0548 -0.0372  0.1929
44866W        W87919  25.844   2.483   9.357 -0.0447 -0.0772 -0.0363
44867W        W87920   7.892   6.778   7.977  0.0736 -0.0419 -0.2836
44868W        W87921  25.726  19.417   0.405 -0.1856  0.1623  0.0455
44869W        W87922   5.941  20.318  26.225  0.3961  0.0163 -0.1053
44870W        W87923  24.303  16.524   8.603  0.1702 -0.0513  0.1401
44871W        W87924  13.603  26.386  19.595  0.0431  0.3309 -0.1648
44872W        W87925  10.726  18.590  26.629 -0.1682  0.0326  0.0233
44873W        W87926   9.860  27.218   4.563 -0.0487 -0.0777  0.1027
44874W        W87927  25.915  25.140   6.005  0.2789  0.0513  0.1370
44875W        W87928  22.187  16.094   3.015  0.2639  0.1693  0.1927
44876W        W87929  17.589  23.107  28.750  0.2337  0.1934  0.3325
44877W        W87930  28.671  18.295   5.752 -0.1183 -0.1059 -0.1638
44878W        W87931  22.571   8.543   5.682  0.1915  0.3122 -0.0898
44879W        W87932  21.360  10.832   0.574 -0.2448 -0.1190  0.1218
44880W        W87933  33.364   1.523   2.834 -0.0602 -0.3158 -0.2136
44881W        W87934  21.029  16.911  20.745  0.0869  0.0311 -0.1073
44882W        W87935  19.536  19.723   4.678  0.0907 -0.1395 -0.1947
44883W        W87936   9.304  22.645  29.061 -0.0676  0.1139 -0.0730
44884W        W87937   2.979   1.314   3.432 -0.0955  0.4043  0.0452
44885W        W87938  25.861  14.550  20.511  0.0959 -0.0756  0.0301
44886W        W87939  30.894   2.566   7.309  0.0564  0.1719  0.2369
44887W        W87940  32.914  10.563   0.444  0.0868 -0.2569 -0.2255
44888W        W87941  23.367  23.024  25.295 -0.0227  0.0340 -0.0278
44889W        W87942  26.788  29.443  27.056 -0.0946 -0.0077  0.0157
44890W        W87943  29.728  15.802  21.168 -0.0877  0.0676 -0.0992
44891W        W87944   9.304  15.026   6.215  0.0186  0.0065  0.1884
44892W        W87945   1.248  21.640   2.718  0.2168  0.2280  0.1910
44893W        W87946   8.549   1.540  22.914  0.1517 -0.2140  0.2147
44894W        W87947  28.383  20.084   9.434  0.0395 -0.0164  0.4444
44895W        W87948  32.276  32.236   1.893 -0.1938  0.0549 -0.3312
44896W        W87949  10.222   9.099   7.324  0.4490  0.0649 -0.1934
44897W        W87950  22.161   6.188   7.222  0.2710 -0.1600 -0.1902
44898W        W87951  26.887   6.284   5.299 -0.1206 -0.0343 -0.3420
44899W        W87952  23.950  25.461  28.958 -0.0149 -0.3556  0.0754
44900W        W87953   5.309  22.541  20.958  0.0503 -0.0993  0.0279
44901W        W87954  26.949  10.612   5.626 -0.1256  0.1555  0.2013
44902W        W87955  24.420   2.935  18.835 -0.1379 -0.1141  0.0779
44903W        W87956  24.349  19.366  26.543 -0.1922 -0.2282 -0.2589
44904W        W87957  24.657  13.799  25.668  0.0657 -0.5265  0.0696
44905W        W87958   0.360   8.580   7.058 -0.1244  0.0201  0.0037
44906W        W87959  26.963  19.247   9.270 -0.1223  0.2352  0.1237
44907W        W87960   1.871  21.033  28.417 -0.0957  0.0525 -0.3758
44908W        W87961  28.408  12.229  21.128 -0.1791  0.2792  0.2329
44909W        W87962  26.264  28.868  24.732 -0.2586 -0.0855  0.1338
44910W        W87963   6.373  20.110  26.281 -0.1101  0.0154  0.0052
44911W        W87964  29.918  15.719  28.825 -0.1693  0.0971 -0.2496
44912W        W87965  27.281  11.776   7.385  0.0025 -0.1678  0.1325
44913W        W87966   2.458  17.869  27.253 -0.0786  0.2016  0.1517
44914W        W87967  29.955  12.233  25.452 -0.1616 -0.1865  0.1384
44915W        W87968   5.322  12.588   7.188  0.0097 -0.0436  0.1936
44916W        W87969  26.207  15.057   0.060 -0.1746  0.1859 -0.2147
44917W        W87970  29.225  24.951   9.007  0.1532 -0.1749 -0.1397
44918W        W87971  17.263  14.060   4.700 -0.1226 -0.1433 -0.2032
44919W        W87972  30.323   7.815  17.566  0.0162  0.0542 -0.2377
44920W        W87973  18.105  11.494   6.816 -0.0852  0.0779  0.2324
44921W        W87974   2.849  28.104   1.009  0.1576 -0.1264  0.1142
44922W        W87975   5.495  25.708   1.071 -0.1916 -0.0316 -0.2602
44923W        W87976  21.881  23.026   2.495  0.2570  0.1167  0.1101
44924W        W87977  18.601  19.303   3.907 -0.0468 -0.0658 -0.0011
44925W        W87978  31.227  26.992  14.622  0.0913  0.0730 -0.0009
44926W        W87979  30.221  31.800  27.601  0.4739  0.1747 -0.0693
44927W        W87980  15.361  13.427  23.044 -0.0316  0.0279  0.1319
44928W        W87981  29.017  25.210   0.768  0.0174 -0.1046 -0.0186
44929W        W87982  21.810  19.327   1.473  0.1010  0.1418  0.0554
44930W        W87983  31.264  16.259  19.188  0.1000  0.2959 -0.0640
44931W        W87984  13.999   6.623  28.226  0.0367 -0.0859  0.3594
44932W        W87985  22.757   4.058  27.959  0.2248  0.1225 -0.2083
44933W        W87986  24.308   3.820  27.078  0.2948  0.0134 -0.1878
44934W        W87987  25.556  16.673  27.787  0.1528  0.1254  0.3992
44935W        W87988  11.691  29.214   3.545 -0.0852  0.1048  0.2068
44936W        W87989  18.415  26.440   5.234 -0.4112  0.0173  0.2634
44937W        W87990  33.754   5.739   0.328  0.1749  0.1492 -0.0600
44938W        W87991  23.751  18.416  25.802  0.0606 -0.2199  0.0040
44939W        W87992   8.470  22.882   7.319  0.2389 -0.1828  0.1002
44940W        W87993   9.809  17.585   4.902 -0.0388  0.1498 -0.4147
44941W        W87994  11.917   8.290   7.456 -0.1714  0.3150 -0.0635
44942W        W87995   3.311  22.172   1.457 -0.2314  0.1531  0.3129
44943W        W87996  24.223   7.653  26.460  0.0433  0.3734 -0.1474
44944W        W87997   1.537  26.410   0.855 -0.0266  0.0357 -0.0648
44945W        W87998  10.863  31.226  26.990 -0.0862 -0.2991 -0.1519
44946W        W87999  25.050  23.243   0.285  0.0016 -0.1610  0.0479
44947W        W88000  32.600   5.441   1.414 -0.3774 -0.1346  0.0986
44948W        W88001  14.900   9.703  20.032  0.2367  0.1162  0.3407
44949W        W88002   4.225  25.357  27.565 -0.1010  0.0759  0.2512
44950W        W88003  31.117  21.208   0.846  0.0560  0.1684  0.3890
44951W        W88004  30.706  18.057  24.897  0.0172 -0.1180  0.4057
44952W        W88005  28.752  24.212   9.447 -0.1086  0.2609 -0.1955
44953W        W88006   0.385  26.428   5.907  0.4674 -0.2612 -0.0821
44954W        W88007   3.652  10.540   2.865 -0.0091 -0.0828 -0.3324
44955W        W88008  25.618  17.168  28.635  0.3367 -0.1148 -0.2929
44956W        W88009   9.506  27.361   6.785  0.2175 -0.0645 -0.0018
44957W        W88010  26.532  20.589   0.918  0.2708 -0.0238 -0.0229
44958W        W88011  26.585   5.946   2.650 -0.1512  0.0709  0.0830
44959W        W88012   9.852   6.983  20.261  0.3391  0.0632 -0.2467
44960W        W88013  31.024  23.966  21.117  0.2405  0.0441  0.0837
44961W        W88014  25.479   3.674  17.669  0.1672  0.2906 -0.0486
44962W        W88015   1.214  14.566  15.996  0.0300  0.0459 -0.0100
44963W        W88016  26.935  27.012   8.659 -0.3183  0.1059  0.1819
44964W        W88017  11.445  26.346  14.509 -0.1967  0.0437  0.0885
44965W        W88018  31.228  18.374  27.316 -0.3171 -0.0183 -0.2408
44966W        W88019  11.308   0.236  16.468  0.1231 -0.0375 -0.0312
44967W        W88020  25.738  21.837   9.523 -0.1490  0.1621  0.0065
44968W        W88021  32.587  28.228   0.777  0.4652  0.1377  0.1226
44969W        W88022  31.762  27.355   2.740 -0.5756  0.0322 -0.2677
44970W        W88023   6.280   2.413   7.078 -0.1064  0.2294 -0.0824
44971W        W88024  28.434  17.849  28.411 -0.2646 -0.0963  0.0755
44972W        W88025  23.977  25.514   3.141  0.1838 -0.1487  0.1545
44973W        W88026  31.151   9.453  19.450  0.2941  0.0465 -0.1276
44974W        W88027   0.223  28.552   4.862  0.1940 -0.1840 -0.0513
44975W        W88028   9.930  22.311   3.936  0.2269 -0.0658 -0.1108
44976W        W88029  32.195  22.376  16.297 -0.2319  0.1044 -0.3842
44977W        W88030  21.834  10.217   8.083  0.1441 -0.1066 -0.2837
44978W        W88031  24.131  10.787  16.483  0.1330 -0.1641  0.2053
44979W        W88032  32.450  28.256  23.367  0.2370 -0.1368  0.1401
44980W        W88033  17.799   5.250   9.504  0.1750 -0.1033 -0.0447
44981W        W88034  31.866   0.053   3.363 -0.3766 -0.1142  0.0390
44982W        W88035  29.244   9.230  16.105  0.0785 -0.3841  0.0532
44983W        W88036  15.248   9.888  29.147 -0.1629  0.1791 -0.1190
44984W        W88037   6.932  25.178   8.569  0.2147 -0.0502  0.1719
44985W        W88038   1.101  12.825   5.528  0.0002 -0.2043 -0.3113
44986W        W88039  31.648   9.097   9.422 -0.0524  0.1415 -0.1921
44987W        W88040  27.508  10.611  22.583  0.0458  0.0269 -0.2807
44988W        W88041  34.678  16.825   8.438  0.4658  0.1737 -0.4079
44989W        W88042   3.176  13.688   9.079 -0.1948 -0.4431  0.1080
44990W        W88043  29.263  26.308  27.460 -0.0442 -0.0184 -0.1660
44991W        W88044  27.131  19.944  20.367 -0.0004  0.1319 -0.1451
44992W        W88045  28.868   5.571  17.538  0.1333 -0.0984 -0.0108
44993W        W88046  20.596  27.693  18.002 -0.3334  0.0368  0.0850
44994W        W88047  27.652  29.721   3.251  0.0839  0.1251  0.0677
44995W        W88048  30.581   9.391  23.927  0.5247 -0.1456 -0.2216
44996W        W88049  17.085  13.018   4.216  0.0416 -0.4744  0.3337
44997W        W88050   5.188   8.084   0.797 -0.2724  0.5065 -0.0343
44998W        W88051  23.446  18.719  28.382 -0.1396  0.0020  0.1531
44999W        W88052  32.738  16.545   1.048 -0.1457  0.2195  0.1268
45000W        W88053  25.235  13.339  20.981 -0.0631 -0.2248  0.0548
45001W        W88054  25.761  24.318   0.614 -0.0240 -0.0886 -0.0499
45002W        W88055  19.361   6.852   7.703 -0.1082 -0.1607  0.1043
45003W        W88056  33.988  33.190  29.117  0.1791 -0.0126  0.2205
45004W        W88057  22.601   7.918   8.928  0.1652  0.1864  0.0753
45005W        W88058  22.681  21.363   3.897  0.2593 -0.0516  0.3443
45006W        W88059   1.826  11.537   5.663 -0.2266 -0.1763  0.1400
45007W        W88060   4.145  21.902  21.082  0.3326  0.0045  0.1858
45008W        W88061   8.307  17.682   2.964  0.2043 -0.0978 -0.0738
45009W        W88062   0.449   3.796   3.357 -0.1163 -0.0331  0.1104
45010W        W88063   2.093   9.228   5.585 -0.0590  0.0795 -0.1500
45011W        W88064   0.068   5.177  16.787  0.3039 -0.2411  0.0829
45012W        W88065  20.224  29.364   6.124 -0.0745  0.0040 -0.4239
45013W        W88066   2.583  11.552   3.983 -0.0295  0.2149  0.1056
45014W        W88067  32.558  18.385   5.756 -0.3174 -0.3249  0.2859
45015W        W88068  22.552  32.772   2.965 -0.0743 -0.4596 -0.2218
45016W        W88069   5.867   0.505   9.483  0.3297  0.2854  0.1227
45017W        W88070   3.068  16.740  27.610  0.0801  0.0144 -0.2862
45018W        W88071  19.975  23.997  27.284 -0.1827  0.0721 -0.3846
45019W        W88072  27.020   1.073   9.604  0.1614 -0.0718  0.4416
45020W        W88073  33.009   8.186   8.768 -0.0030 -0.2230 -0.0439
45021W        W88074  23.326  22.561  28.590  0.3012 -0.0515 -0.1124
45022W        W88075  16.976   9.759  21.698  0.0945  0.0623 -0.1689
45023W        W88076   1.578   6.324  18.237  0.2512 -0.2189  0.2029
45024W        W88077  26.657  18.033  19.123 -0.1319 -0.0687 -0.2800
45025W        W88078  13.384  23.437   1.311  0.1896  0.4346 -0.1249
45026W        W88079  28.017  14.691   3.299  0.3188  0.0362 -0.0925
45027W        W88080  14.841  11.850  25.803  0.0681 -0.1199 -0.0877
45028W        W88081  15.948  14.718  13.859  0.1077  0.0419  0.0988
45029W        W88082  15.761  19.427   0.094 -0.1597  0.2443 -0.0893
45030W        W88083   7.111  17.982   3.855  0.1580  0.0723 -0.3247
45031W        W88084  25.375  18.798   4.797 -0.0888 -0.2647 -0.0559
45032W        W88085   4.045  12.697   1.289 -0.0591  0.0422  0.3446
45033W        W88086   3.058  12.355  28.116 -0.1184 -0.0637 -0.2292
45034W        W88087  26.471  22.159  17.434 -0.1673  0.0084  0.0311
45035W        W88088  16.918  13.412   4.543 -0.2685 -0.2801 -0.2800
45036W        W88089  22.502  34.649   7.590  0.3581  0.1491 -0.0916
45037W        W88090  16.579   5.630   6.835  0.0962 -0.1769  0.2519
45038W        W88091  28.780  22.739   0.322  0.3478 -0.0358  0.2783
45039W        W88092  33.663  11.779   9.609 -0.0912  0.3505  0.1992
45040W        W88093  17.157   1.632  25.561 -0.0061 -0.2794 -0.1198
45041W        W88094  10.717   4.850   2.947  0.1237 -0.1664 -0.1625
45042W        W88095   1.528  16.751   2.993  0.1261  0.1435  0.1618
45043W        W88096  24.992  24.086   2.678 -0.0278 -0.2339  0.2133
45044W        W88097  31.338  10.580   9.959  0.2868  0.4328 -0.0660
45045W        W88098  29.372  19.942   3.731  0.1339  0.1277 -0.1048
45046W        W88099  31.868  18.821  18.345 -0.2730  0.0001  0.0574
45047W        W88100  17.808  18.500   6.591 -0.2660 -0.2019 -0.1077
45048W        W88101  23.493   5.258   4.165 -0.0625  0.2014 -0.0905
45049W        W88102  31.165   6.734  24.534 -0.3186 -0.1133 -0.1815
45050W        W88103  32.850  26.231   5.997 -0.0319 -0.3298 -0.2003
45051W        W88104   7.931  22.063   2.257 -0.2099  0.3417 -0.0594
45052W        W88105   1.116  22.453  24.240 -0.1918  0.0679  0.1874
45053W        W88106   5.874  19.757  17.505 -0.0146  0.1059  0.3185
45054W        W88107   1.857  10.558   9.250 -0.2486  0.0611 -0.1357
45055W        W88108  32.446   6.679   7.583 -0.0066 -0.1924  0.0939
45056W        W88109  25.507   0.764   3.665  0.2968  0.1081  0.0630
45057W        W88110  20.101  11.903  28.037  0.0239 -0.0285  0.1367
45058W        W88111  31.280  21.436   2.796 -0.4202  0.0414  0.1164
45059W        W88112  31.428  34.396  16.214  0.3310 -0.2674  0.0455
45060W        W88113  24.444  32.943  24.331 -0.2950  0.0628  0.1394
45061W        W88114  19.965   3.948  28.850  0.2994 -0.1339 -0.2098
45062W        W88115  24.152   3.378   9.407  0.1715  0.0783  0.1462
45063W        W88116   7.313  34.011   7.175  0.0068 -0.1955  0.1015
45064W        W88117  32.829  11.266   1.062  0.1243 -0.0340 -0.0589
45065W        W88118  24.717  15.188   6.379  0.0098 -0.2250 -0.2830
45066W        W88119   2.398  23.939  28.986 -0.0045 -0.0356  0.1737
45067W        W88120  33.987   8.583   8.701 -0.2805 -0.1717  0.0900
45068W        W88121   3.955   7.526  24.487  0.0695 -0.0647 -0.0699
45069W        W88122  24.553   3.192   5.868 -0.4404  0.2124 -0.0665
45070W        W88123  27.229   5.294  26.725 -0.2056 -0.1364 -0.2390
45071W        W88124  28.544   2.187  14.312  0.1132 -0.2139 -0.0316
45072W        W88125  33.015  11.229   6.432  0.0231 -0.1645 -0.0126
45073W        W88126  27.443   5.931   3.767  0.3239 -0.0149 -0.0486
45074W        W88127  26.930  24.496  23.107 -0.1944  0.1395  0.0226
45075W        W88128   5.242  10.920   9.241 -0.1873 -0.0392  0.0863
45076W        W88129  34.048  10.286  28.301 -0.0514  0.0086 -0.0526
45077W        W88130  13.703  16.511   1.364 -0.3041 -0.0001 -0.1514
45078W        W88131  23.838  28.293   6.964  0.0509  0.1665 -0.0564
45079W        W88132   8.410  19.751   5.114  0.2166 -0.2232  0.0198
45080W        W88133  15.960  15.397   3.488 -0.1394 -0.1522  0.0819
45081W        W88134  24.137  20.340   0.263 -0.1656  0.3249 -0.6308
45082W        W88135  33.295  16.593   1.843  0.0526  0.2189 -0.1170
45083W        W88136   8.960  24.516   7.678  0.2476  0.3019 -0.3015
45084W        W88137  24.123   3.266   6.237  0.1096  0.0056 -0.1557
45085W        W88138  27.097  32.612   0.895  0.2458  0.0818 -0.0768
45086W        W88139  27.541  25.889  22.579  0.1120  0.1902  0.0279
45087W        W88140  33.294  23.601  28.565 -0.0334  0.2613  0.1881
45088W        W88141   8.418  14.906   8.154 -0.0986 -0.0133  0.1293
45089W        W88142  28.068  12.279  25.437  0.1568  0.1694 -0.2272
45090W        W88143  25.953  18.404   3.135  0.1767 -0.2738 -0.2042
45091W        W88144   6.046  14.657  28.973 -0.2648  0.0410 -0.4287
45092W        W88145  21.685  19.791  22.215 -0.1316 -0.0895  0.2626
45093W        W88146  25.214  16.543   9.124  0.4551  0.0567 -0.1151
45094W        W88147  21.065   6.555  16.508  0.0731  0.1656  0.0746
45095W        W88148  34.355  16.355  18.687  0.2194  0.1654  0.3343
45096W        W88149  27.826  23.108  27.442 -0.0275  0.0131  0.1119
45097W        W88150   7.823  22.821   7.897 -0.2997 -0.3468  0.3883
45098W        W88151   4.683  23.793   7.890 -0.1861 -0.3235  0.2497
45099W        W88152  15.642  19.192   3.477 -0.1647 -0.0695 -0.0695
45100W        W88153  20.625  34.275  21.173  0.2341  0.0008 -0.1024
45101W        W88154  22.077  14.746   3.067 -0.1663 -0.1561 -0.1191
45102W        W88155   1.938  28.185   7.879  0.1402 -0.0735  0.1905
45103W        W88156   8.894  17.799  27.369  0.0537  0.0320 -0.1599
45104W        W88157  30.544   1.516  25.171  0.0639 -0.1587 -0.1349
45105W        W88158  23.783  10.627   6.987 -0.0878 -0.0189 -0.1094
45106W        W88159  23.311  29.569   2.619 -0.2720 -0.0910  0.0369
45107W        W88160  16.061  27.350  28.564  0.2346  0.1109  0.3603
45108W        W88161  30.379  17.736   5.382  0.3819 -0.1545  0.0116
45109W        W88162   5.200  24.569   3.394  0.3606  0.0258  0.1195
45110W        W88163  26.342   8.986   0.722  0.4939  0.0827  0.0912
45111W        W88164  12.855  19.830  14.760 -0.3712  0.1465  0.1376
45112W        W88165  29.922  21.762  20.891  0.0020  0.0993 -0.3505
45113W        W88166  22.859  16.366  28.220 -0.0073 -0.3159  0.0423
45114W        W88167  31.736  18.937   7.275 -0.1078  0.3096  0.0794
45115W        W88168   0.220  14.195  25.869 -0.0781  0.3969  0.2346
45116W        W88169  24.927  18.555   4.280 -0.0572  0.0832 -0.1429
45117W        W88170  34.259  11.180   4.671 -0.0960  0.0098 -0.0134
45118W        W88171  31.594  30.129   7.822 -0.0440  0.2532 -0.2394
45119W        W88172   7.096  18.328   3.425  0.1975 -0.3950  0.0012
45120W        W88173  27.441  11.120   7.025 -0.1937  0.0656 -0.2781
45121W        W88174  27.932  17.184   7.832 -0.4316  0.4350  0.1525
45122W        W88175  28.515  16.771  23.077  0.0861  0.1030  0.1207
45123W        W88176  19.187  13.993   7.868 -0.3059 -0.1034  0.1557
45124W        W88177   2.788  21.566   6.322  0.1519  0.2414  0.1884
45125W        W88178   9.874  29.633  24.985 -0.1638  0.1289  0.0833
45126W        W88179  18.868  29.631  24.642  0.2476 -0.0562  0.0239
45127W        W88180  29.310   1.171  25.179  0.2312  0.1562 -0.2509
45128W        W88181  31.472   7.352   1.896 -0.0171 -0.1103  0.2747
45129W        W88182   1.445  19.431  28.974 -0.1424  0.0352  0.1376
45130W        W88183  18.728  29.464   0.448  0.1491  0.1790 -0.0750
45131W        W88184  30.721  16.238  19.303  0.2294  0.0755  0.0655
45132W        W88185  25.896  15.166   5.985  0.0070  0.1059  0.0355
45133W        W88186   4.535  23.340   4.304  0.3656 -0.0668  0.1723
45134W        W88187   4.743  29.175   4.946 -0.0047 -0.2906  0.1030
45135W        W88188  23.566  11.837   1.244  0.0094 -0.3622 -0.1766
45136W        W88189  29.655  19.074   3.408  0.1230 -0.0448  0.1111
45137W        W88190   8.244  13.532  16.290 -0.2381 -0.1795 -0.1539
45138W        W88191   6.738   7.702   2.629  0.2333 -0.0166 -0.1340
45139W        W88192  32.005  10.151   8.025 -0.2362 -0.3554  0.1646
45140W        W88193  34.661  12.383   2.397  0.1588  0.3651 -0.0966
45141W        W88194  16.820  16.766   2.708 -0.1043  0.1613  0.0292
45142W        W88195  32.100  32.463  24.679  0.1459  0.0721 -0.2562
45143W        W88196  26.216  23.909   4.776 -0.2538 -0.2446 -0.0227
45144W        W88197  30.136  26.074   0.800  0.1174 -0.1403  0.3675
45145W        W88198  23.725  23.947  18.595  0.1840 -0.0881 -0.2829
45146W        W88199   5.581  13.802  23.533 -0.0970 -0.0805 -0.0782
45147W        W88200   1.891  18.578   7.501 -0.0267 -0.4955  0.0597
45148W        W88201   3.559  17.148  27.822 -0.1221  0.0104 -0.1494
45149W        W88202  27.681  21.157   4.558 -0.1353  0.1413  0.1376
45150W        W88203   2.604   8.398   8.132 -0.1154  0.1051  0.0513
45151W        W88204  24.957   9.464  22.448  0.3634 -0.1400 -0.2308
45152W        W88205  28.818   9.860  24.920 -0.1830 -0.1298  0.2396
45153W        W88206  22.766  11.581  25.552  0.0543 -0.2023  0.2692
45154W        W88207   1.453   1.312   9.392  0.3832  0.1397  0.3611
45155W        W88208  27.671  25.202  27.395 -0.1999  0.0251 -0.1719
45156W        W88209  31.775  10.096  16.586 -0.1592  0.2311  0.0661
45157W        W88210   3.662  11.253  23.325 -0.0539 -0.1542  0.2789
45158W        W88211  19.355  22.266   6.438 -0.2418 -0.5228  0.0953
45159W        W88212  13.751  19.965   6.666  0.0121  0.2581 -0.3267
45160W        W88213  13.753  25.737   3.675 -0.2227 -0.0779  0.1013
45161W        W88214  22.558   6.312   2.796  0.2560 -0.2038  0.0840
45162W        W88215  24.821  25.969   2.757  0.5706 -0.0613  0.0955
45163W        W88216  32.724  13.571   4.134 -0.0361  0.2850  0.2002
45164W        W88217  29.470  17.736   2.880  0.2711 -0.0438  0.3967
45165W        W88218  34.595  18.458  26.491  0.2859  0.0972 -0.0579
45166W        W88219   0.762  33.714   5.504 -0.1944 -0.2413  0.0011
45167W        W88220  29.354  18.968  26.849 -0.0100 -0.0487 -0.2358
45168W        W88221  33.086  15.993   1.268  0.0832  0.1591 -0.0957
45169W        W88222  18.314  31.837   5.130 -0.0726 -0.0667  0.0097
45170W        W88223  32.918  10.080   9.220 -0.1559 -0.1470 -0.0074
45171W        W88224   3.744  10.757  22.547  0.0379  0.2121  0.0622
45172W        W88225   2.756   8.880   6.928  0.2891  0.0590 -0.1630
45173W        W88226   1.218  21.493   0.231  0.1078 -0.0201 -0.1055
45174W        W88227  32.397  20.909   8.647  0.0890 -0.2325  0.0702
45175W        W88228  29.012  19.419  21.480 -0.0266  0.0322  0.2474
45176W        W88229   4.158  15.997   5.930 -0.3902 -0.0985 -0.1771
45177W        W88230  28.672  33.054   7.510  0.1067  0.0498  0.0443
45178W        W88231  33.861   0.272  22.511  0.0889  0.2032  0.2060
45179W        W88232   5.205  21.574   0.249 -0.1271 -0.4789  0.2089
45180W        W88233  25.220  31.725   3.897  0.0616 -0.0002 -0.2341
45181W        W88234   0.786  23.450   5.944  0.0982  0.1036 -0.0957
45182W        W88235  30.807   8.602  22.021  0.1288 -0.0916  0.1919
45183W        W88236   7.754  11.893   6.229 -0.4699  0.2622 -0.0144
45184W        W88237  20.701  22.508   4.207 -0.2273  0.0072  0.2624
45185W        W88238  26.607  23.922  24.463  0.0244 -0.0412 -0.1076
45186W        W88239  23.135   9.462  24.405 -0.1126  0.0811  0.1715
45187W        W88240  27.482  28.919   0.001 -0.0773  0.2992  0.1183
45188W        W88241  31.920  17.039  28.834 -0.3282  0.2687  0.3356
45189W        W88242   2.406   1.415   6.314  0.0619 -0.2094 -0.3497
45190W        W88243  19.984  14.126   0.926  0.3180  0.1166  0.0872
45191W        W88244   1.191  16.289   2.269 -0.2019 -0.1556  0.0407
45192W        W88245  29.143  11.910  20.292 -0.1047  0.0096 -0.0310
45193W        W88246  33.889  21.939  22.082 -0.1408  0.2797 -0.4792
45194W        W88247   6.529  10.762   8.464  0.0286 -0.1293 -0.3233
45195W        W88248   5.983  11.799   4.283  0.0589 -0.3185 -0.1347
45196W        W88249  22.127  30.380  15.597  0.0662 -0.3475 -0.5242
45197W        W88250  19.515  15.330   6.464  0.1535 -0.4039  0.3246
45198W        W88251  34.539  29.131  27.914  0.1381 -0.2525 -0.2173
45199W        W88252  25.524   7.774   6.560  0.2449 -0.5129  0.0587
45200W        W88253  26.880  10.327  27.669 -0.2359 -0.0683 -0.2200
45201W        W88254  19.541  18.681  25.410  0.2437  0.2453  0.0914
45202W        W88255  25.648  23.257  26.680 -0.0964  0.0849 -0.1205
45203W        W88256  32.331  22.218   8.887  0.0780  0.2829  0.0547
45204W        W88257   2.939   8.799   9.585 -0.0082 -0.0413 -0.0316
45205W        W88258  25.818  14.990   5.060  0.0558 -0.0425  0.3740
45206W        W88259  33.112  16.360   6.447 -0.0564  0.3108 -0.2360
45207W        W88260  29.999  15.444   3.808  0.0269  0.1603  0.1646
45208W        W88261   1.267  15.854   8.065 -0.0874 -0.1075 -0.1896
45209W        W88262  29.112  32.140  25.537 -0.0708 -0.1848  0.0235
45210W        W88263   4.018  22.452   8.236  0.0288 -0.0388 -0.0210
45211W        W88264  13.685   8.689  21.651  0.2440  0.2704  0.1128
45212W        W88265  28.903   5.180  27.245 -0.0472  0.1583  0.1277
45213W        W88266  28.511  17.817   7.403  0.1413  0.0637  0.0962
45214W        W88267  15.080  21.785   3.190  0.1078 -0.1920 -0.0823
45215W        W88268  15.611  16.402   0.844  0.1255  0.0887  0.0677
45216W        W88269  25.705  31.847   4.327  0.1251 -0.1732 -0.1131
45217W        W88270  22.546  21.855   3.885  0.1273  0.0411  0.0625
45218W        W88271  10.408   7.755  27.065 -0.0276 -0.1570  0.1025
45219W        W88272  15.813   4.157   1.918 -0.3469 -0.2142 -0.0818
45220W        W88273  28.555  16.152   2.404 -0.0191 -0.2518  0.1288
45221W        W88274  14.544  20.450  20.269  0.3599 -0.2287  0.3156
45222W        W88275   5.732   2.870   3.434 -0.2034 -0.0605  0.2591
45223W        W88276  20.754  15.360  26.597 -0.2846  0.0810 -0.1564
45224W        W88277  33.706  20.378  16.207  0.1573  0.0041 -0.0282
45225W        W88278  18.982  17.374   4.423  0.0704 -0.2381 -0.0077
45226W        W88279   3.237  24.122   0.064 -0.0851  0.0354  0.0533
45227W        W88280   0.493   3.848  28.528 -0.1898  0.0232  0.1410
45228W        W88281  11.724  10.706   4.823 -0.1518 -0.0864 -0.1481
45229W        W88282  18.803  18.837  24.480  0.2111 -0.2547 -0.6819
45230W        W88283  31.527  21.499  25.380 -0.1359  0.1945 -0.1261
45231W        W88284  16.216  20.429   2.891  0.2755  0.1634 -0.2500
45232W        W88285  29.060  20.167   5.830 -0.2768 -0.2255  0.0600
45233W        W88286  20.799  30.832   0.453  0.0072 -0.0828  0.1489
45234W        W88287   0.466   9.384  19.785 -0.2887  0.1261  0.0880
45235W        W88288   3.898  18.531   4.671  0.1183  0.0578  0.0119
45236W        W88289  15.242  18.189  24.865  0.2235  0.4017 -0.1916
45237W        W88290  23.799   9.425  19.619 -0.0325  0.0654  0.0320
45238W        W88291   1.094  14.350   7.437 -0.1214 -0.2580  0.1472
45239W        W88292   0.066  15.810  26.214  0.2688  0.0484  0.2142
45240W        W88293   1.928  29.909  27.653 -0.2923 -0.0796 -0.0634
45241W        W88294  32.041   4.575  23.286  0.1296  0.1135 -0.0211
45242W        W88295  21.780  24.223  11.293  0.2184  0.0365 -0.0579
45243W        W88296   0.302   7.267   5.517  0.1561 -0.2192  0.2859
45244W        W88297  32.857  18.240  24.601  0.0274 -0.1449  0.0523
45245W        W88298  16.400   8.537  23.985  0.0796 -0.4410  0.3593
45246W        W88299  19.924  28.183  28.509 -0.1234 -0.0659  0.1712
45247W        W88300  18.533  17.267   3.459  0.2710 -0.0001  0.0209
45248W        W88301  32.131   7.096   4.588  0.1448 -0.2221 -0.2972
45249W        W88302  27.526  23.749   2.649 -0.0081 -0.0873 -0.2309
45250W        W88303  25.708   9.435   5.552 -0.1694 -0.0651 -0.1097
45251W        W88304  11.673  32.987   5.799 -0.3754  0.1466  0.1488
45252W        W88305   5.889  28.322   7.401 -0.0705  0.1188 -0.1062
45253W        W88306  23.052  23.409  19.354 -0.0146  0.2136  0.2324
45254W        W88307  34.600   4.982   5.722 -0.0877  0.5103 -0.3163
45255W        W88308   5.888   8.517   6.738 -0.1421  0.2209  0.0953
45256W        W88309   7.756  25.077  28.311 -0.0467  0.1619  0.1319
45257W        W88310  24.250  11.449   6.152  0.0667 -0.1484 -0.0726
45258W        W88311   6.179  26.129   3.182  0.2107 -0.0946  0.1594
45259W        W88312  18.125  30.513   1.095  0.1385  0.0659  0.0202
45260W        W88313  29.216  23.925   5.554  0.3683  0.3510  0.2745
45261W        W88314   3.305  18.049   5.504 -0.1706 -0.3184 -0.0228
45262W        W88315  26.912  15.505   4.866 -0.0197 -0.0174 -0.1468
45263W        W88316  23.865  25.150   1.127  0.0360  0.0411 -0.2313
45264W        W88317  23.812  15.345   5.902 -0.2619 -0.1679  0.0519
45265W        W88318  29.518   5.457   7.562  0.0223  0.2246 -0.2054
45266W        W88319  27.990   7.978   0.268 -0.1192  0.0284  0.0047
45267W        W88320   7.592   3.987   3.561 -0.0423  0.0526 -0.0445
45268W        W88321  26.537  17.382   5.445  0.0754  0.0328  0.0772
45269W        W88322  14.257  24.392  21.575 -0.0025  0.0983  0.3670
45270W        W88323  23.913  15.064   8.060 -0.1603  0.2192  0.1005
45271W        W88324  12.481  19.920   5.281  0.0771 -0.0265 -0.0680
45272W        W88325  33.931  29.011   7.158  0.2366 -0.0809 -0.2037
45273W        W88326  32.227  11.344  16.729 -0.2359 -0.1476  0.1304
45274W        W88327  31.100  28.661   8.818 -0.3733 -0.2586 -0.2287
45275W        W88328  26.782  19.131   7.750 -0.3831  0.0869 -0.1570
45276W        W88329  20.120  19.480   9.060 -0.2196 -0.1094 -0.0805
45277W        W88330   1.377  27.734   1.997  0.0621  0.2645  0.0827
45278W        W88331   7.185  12.614   0.572 -0.1373 -0.0929  0.1118
45279W        W88332  31.156  21.987  26.723  0.2690  0.3512  0.0654
45280W        W88333   0.626  18.879   5.783 -0.0193  0.1919 -0.1691
45281W        W88334  27.014  14.114   8.166  0.1127  0.0941  0.1450
45282W        W88335  29.158  14.546   5.936  0.0508 -0.0291  0.2757
45283W        W88336  32.763  32.169  25.879  0.2070 -0.1956 -0.0876
45284W        W88337  30.478   7.915   4.654  0.2847 -0.2572  0.0033
45285W        W88338  12.660  13.480   2.803 -0.4085 -0.1143  0.2042
45286W        W88339  33.936  23.696   1.574  0.3108 -0.3297 -0.1495
45287W        W88340  20.774  25.016  28.314 -0.0086  0.3531  0.1140
45288W        W88341  21.884   4.267  19.873  0.0465 -0.0312 -0.0822
45289W        W88342  29.905  18.332  27.566  0.7496  0.0128 -0.0721
45290W        W88343  21.636  19.754   2.440  0.4037 -0.0008  0.0563
45291W        W88344  28.552  16.202   3.694  0.0539  0.4896 -0.3258
45292W        W88345   0.864  15.928   2.122 -0.0057 -0.1085  0.1820
45293W        W88346  21.697  10.851   1.998 -0.4207  0.0371  0.0970
45294W        W88347  23.898  10.516   4.475 -0.0154 -0.2110 -0.0181
45295W        W88348  26.320   7.648   5.595  0.0273  0.0175  0.1484
45296W        W88349  33.631  32.476  23.352  0.2566 -0.0844 -0.1361
45297W        W88350  26.921  17.284  26.695 -0.2003 -0.2434  0.2248
45298W        W88351   3.635   3.281   6.328 -0.1206 -0.0026  0.1054
45299W        W88352   7.876  11.582   6.621  0.2117  0.1466 -0.1877
45300W        W88353  33.980  31.848   3.084 -0.0472  0.1565  0.1746
45301W        W88354  29.166   9.071   3.388 -0.3881  0.1429  0.3274
45302W        W88355  22.890  21.434  18.491 -0.1461  0.0965  0.0195
45303W        W88356  13.735   9.465  15.130 -0.0508 -0.0282 -0.1423
45304W        W88357  17.484  15.882   7.441 -0.1723  0.3728 -0.0393
45305W        W88358  24.134  24.501   5.103 -0.1910 -0.0149 -0.1159
45306W        W88359  34.231   5.563   7.897  0.0663 -0.4242 -0.2386
45307W        W88360  22.542  18.167   7.018 -0.0197 -0.0050 -0.1046
45308W        W88361   2.382   1.158   3.123  0.1208 -0.3229  0.1634
45309W        W88362  14.084   9.750   9.961 -0.1245 -0.6305  0.0930
45310W        W88363   8.369  17.766   9.905 -0.0933 -0.1570 -0.4048
45311W        W88364  30.023  24.997   8.022 -0.1710 -0.2580  0.1513
45312W        W88365   0.608  15.057   8.074 -0.0253 -0.0428  0.1406
45313W        W88366  20.540   5.362   1.444  0.2604  0.2886  0.0887
45314W        W88367   0.521  15.424   7.710  0.4366  0.0980 -0.0510
45315W        W88368  30.583  33.302  23.494  0.0644  0.0664 -0.2232
45316W        W88369  31.566  19.387   6.518  0.1787 -0.1198 -0.1048
45317W        W88370  15.479  15.161   4.879  0.0737 -0.1344  0.1430
45318W        W88371  22.999  18.077   3.556  0.3472  0.1066  0.0882
45319W        W88372   3.360  10.727   5.092  0.0161 -0.1594  0.2691
45320W        W88373  11.311  19.601  22.594 -0.0196 -0.0402 -0.1827
45321W        W88374  19.117  10.255  24.197 -0.0417 -0.0333 -0.3345
45322W        W88375  33.748  28.607   0.270  0.3194  0.0907 -0.2047
45323W        W88376  28.296  21.167   1.167 -0.1318 -0.2237 -0.0848
45324W        W88377  28.096  17.785  20.609 -0.1566 -0.1276 -0.0317
45325W        W88378   6.035  19.750   7.292  0.0140  0.1378 -0.1219
45326W        W88379  28.501  20.067   2.058  0.0994 -0.1218 -0.2204
45327W        W88380   4.029  16.741  18.206 -0.0821  0.0720 -0.1734
45328W        W88381  32.534  26.440  27.790 -0.1906 -0.0516  0.0971
45329W        W88382  19.439  19.099   3.150  0.0159  0.1909  0.1563
45330W        W88383  13.876  23.194  28.216 -0.1331 -0.0765 -0.1438
45331W        W88384  26.315  13.649  20.073  0.0598 -0.0854 -0.1836
45332W        W88385  15.874   6.688  23.469 -0.2552 -0.1379 -0.2135
45333W        W88386  27.515  13.750  28.495 -0.0103  0.2728  0.3497
45334W        W88387  23.261  21.033  15.998  0.1912 -0.1158 -0.2361
45335W        W88388   4.814  18.077   7.285  0.1551  0.2188 -0.0049
45336W        W88389  25.494   2.271   3.125  0.0635  0.3703  0.1687
45337W        W88390  19.324  15.152  28.977  0.0906 -0.0268  0.5318
45338W        W88391  28.113  16.992   1.325 -0.1694  0.2194  0.3501
45339W        W88392  31.025  22.082  26.196  0.1676  0.3513  0.0651
45340W        W88393   3.932   1.436   9.939  0.4746  0.1925 -0.1875
45341W        W88394  33.570   4.737   0.467 -0.0726 -0.0388 -0.2914
45342W        W88395   3.410  14.697  26.140 -0.0627  0.1819  0.2127
45343W        W88396  26.160  33.193   2.991  0.0512 -0.2813 -0.4328
45344W        W88397  34.231  15.873   8.751  0.0110  0.0621  0.3748
45345W        W88398  14.794  30.623   8.209 -0.3662  0.2228  0.1204
45346W        W88399   3.856  28.581  23.491 -0.3821  0.0276 -0.0727
45347W        W88400   4.636   2.501   6.239 -0.0117 -0.0373  0.3439
45348W        W88401   3.073  15.774  25.506  0.2366 -0.0915  0.0012
45349W        W88402  24.543  30.684  25.650 -0.2796  0.2057  0.2071
45350W        W88403  13.433  23.428   4.650 -0.2394  0.2350  0.0072
45351W        W88404  28.424  32.612   3.972 -0.0963 -0.0665  0.2480
45352W        W88405  26.080  27.478   1.666  0.0150  0.2507 -0.0695
45353W        W88406  13.317  12.226  10.978  0.1279  0.0250  0.1135
45354W        W88407  13.435  21.088   4.552  0.0609  0.2433 -0.1251
45355W        W88408  25.120  12.614  10.326  0.0279  0.0306 -0.0655
45356W        W88409  31.953  20.295   3.103 -0.1650  0.0105  0.2560
45357W        W88410   2.419  27.406   9.014 -0.1943  0.2229  0.1316
45358W        W88411  17.710  18.850  10.021  0.1075  0.2295 -0.1856
45359W        W88412  22.998  34.570   6.051  0.0564 -0.1533 -0.2308
45360W        W88413  34.196  18.069   3.349  0.0536  0.1175 -0.0252
45361W        W88414  15.358   3.073  23.166 -0.2215  0.0180 -0.0339
45362W        W88415  25.133  13.174  20.058  0.0666 -0.1646 -0.3005
45363W        W88416   9.512  19.492   2.593  0.2402  0.1950 -0.0860
45364W        W88417  29.840  29.978   9.476 -0.2469 -0.1317  0.0019
45365W        W88418  15.676   7.211   7.596  0.3588 -0.2646 -0.2902
45366W        W88419  28.589  12.516   4.658 -0.1588 -0.2826 -0.1034
45367W        W88420  18.223   7.051  26.141 -0.2745 -0.2059 -0.3488
45368W        W88421  29.686  23.597   8.049  0.0569 -0.0251  0.0674
45369W        W88422  34.338  11.081   7.166  0.2703  0.1547 -0.0888
45370W        W88423  28.009  13.784  24.476  0.0759  0.1739  0.1236
45371W        W88424   3.486  23.128  21.297 -0.2108  0.0845 -0.0579
45372W        W88425  22.711  14.058   6.882 -0.2601 -0.1574 -0.1923
45373W        W88426  27.675  28.327   4.681  0.0653  0.0085 -0.2409
45374W        W88427  26.128  27.236   6.726 -0.5623 -0.2834  0.2978
45375W        W88428  26.591  23.461   9.553  0.2014 -0.2027 -0.0308
45376W        W88429  12.705  11.918  21.231 -0.3296 -0.1824  0.0478
45377W        W88430  27.002   4.661   8.158  0.1561 -0.0529  0.2794
45378W        W88431  25.595  20.664   0.722 -0.0949 -0.0030  0.0005
45379W        W88432   5.087  26.708   6.772  0.1265  0.0980 -0.0071
45380W        W88433  33.651  20.664   1.102  0.4104  0.0004 -0.1494
45381W        W88434  19.670  18.803   9.519  0.0468 -0.1520 -0.0646
45382W        W88435  31.539  11.602  24.598  0.3584  0.2288  0.4030
45383W        W88436  30.018  18.360  22.616 -0.1268  0.0692  0.1646
45384W        W88437   0.638  23.854  25.230 -0.0989 -0.0438 -0.0281
45385W        W88438  17.632   9.192  27.029 -0.0613 -0.0693 -0.1806
45386W        W88439   7.819  22.197  26.359 -0.3324  0.2886  0.2912
45387W        W88440  24.988  17.718  17.987 -0.2035 -0.0211 -0.1209
45388W        W88441   3.886   9.253   9.872 -0.0697  0.2860 -0.4386
45389W        W88442   7.570  34.465  25.376  0.0709 -0.0331  0.0511
45390W        W88443  30.334  18.110  28.567 -0.0522  0.0849  0.2582
45391W        W88444  27.797  11.967  26.418 -0.2829  0.0403  0.1002
45392W        W88445  32.063  20.719   7.857  0.1074 -0.0727 -0.1635
45393W        W88446   1.510  11.902   4.854 -0.2625 -0.3984 -0.1215
45394W        W88447   1.973  27.412   1.763  0.0279  0.1870 -0.0813
45395W        W88448  26.351  24.340   5.913 -0.1123  0.2449  0.2122
45396W        W88449  34.279  18.483   8.088 -0.1301  0.0079  0.1218
45397W        W88450   2.275   9.395   4.353 -0.2073  0.2569 -0.0719
45398W        W88451  28.657  16.059   0.019 -0.3179 -0.1249  0.0955
45399W        W88452  33.086  20.018   3.556 -0.0923  0.0637 -0.0056
45400W        W88453   0.824  31.990   8.585 -0.2773  0.1212 -0.1067
45401W        W88454  19.978  19.738   6.200 -0.1688 -0.1564  0.2380
45402W        W88455  19.605  23.782   7.600 -0.2032 -0.2441  0.2578
45403W        W88456  24.402  16.360  21.780 -0.3797 -0.0615 -0.3979
45404W        W88457   1.544   1.078  22.033 -0.2980 -0.2103 -0.1635
45405W        W88458  27.451  14.802  26.608  0.0010  0.1257  0.3372
45406W        W88459  13.871  28.536  27.138  0.1205 -0.0640  0.1833
45407W        W88460   4.514  16.515  27.102 -0.5907  0.3106  0.0938
45408W        W88461  11.340   5.795  24.150 -0.0920 -0.3422 -0.1891
45409W        W88462  27.078  15.173  28.744 -0.1611  0.0482  0.1016
45410W        W88463   1.796  26.355  25.813 -0.0877 -0.0807 -0.0893
45411W        W88464  13.553   4.313   2.126 -0.1721  0.2166 -0.1943
45412W        W88465  25.997  15.426   4.973 -0.1833 -0.0401  0.2643
45413W        W88466   8.356  24.426  26.257 -0.1362 -0.0273 -0.1199
45414W        W88467   0.400  23.415  25.342 -0.0302  0.0399 -0.1193
45415W        W88468   8.334  10.641   1.159 -0.1406 -0.3192  0.0877
45416W        W88469  13.447  19.660  27.378 -0.1768  0.3660  0.1175
45417W        W88470  34.198  22.032  27.856  0.2063 -0.2473  0.0220
45418W        W88471  31.045  20.507   1.706 -0.2797 -0.0193  0.2527
45419W        W88472  27.561  17.781   2.353 -0.0231 -0.1452 -0.2392
45420W        W88473   7.378  19.606  26.444  0.4119  0.1033 -0.2716
45421W        W88474  21.480  24.181   3.511 -0.0205  0.1453 -0.2281
45422W        W88475  12.075  17.821   9.794 -0.0537  0.0298 -0.1631
45423W        W88476  24.542  15.649   6.402  0.0305  0.2085 -0.0699
45424W        W88477   5.861  14.695   8.815  0.2294 -0.1653  0.2085
45425W        W88478   6.412  13.313   9.538 -0.1861 -0.5146 -0.0471
45426W        W88479  22.062  19.777   7.345  0.0323  0.1237  0.1253
45427W        W88480  29.301  13.373   5.885  0.0516  0.1420  0.1961
45428W        W88481   9.944  32.611  28.355 -0.0026 -0.3148 -0.0023
45429W        W88482  19.550  25.374   9.621  0.4665 -0.1093 -0.0970
45430W        W88483  19.503  19.182   7.417  0.0628  0.0140 -0.0371
45431W        W88484  28.484   7.206  27.530 -0.2422 -0.0530  0.1562
45432W        W88485  32.033  22.061   2.269  0.1124 -0.1714  0.1642
45433W        W88486  30.574  23.632  23.615  0.0556 -0.0986  0.0354
45434W        W88487  32.667  23.193   5.324 -0.0232 -0.2956  0.0863
45435W        W88488   0.468  31.194  27.349 -0.0079 -0.0170  0.1530
45436W        W88489  34.505   7.640   9.229  0.0908 -0.2271 -0.2131
45437W        W88490   3.779   5.561   4.397 -0.2632  0.1819 -0.1787
45438W        W88491  20.812  14.470  23.342 -0.0200  0.1321 -0.4441
45439W        W88492  30.401   5.641  15.520  0.1776  0.0548  0.1035
45440W        W88493   3.142  11.999   4.039 -0.1874 -0.2775  0.0858
45441W        W88494  13.853  25.384  27.787  0.0738 -0.0395 -0.2183
45442W        W88495  24.278  31.654   2.629 -0.2023 -0.0911 -0.0086
45443W        W88496  25.165  19.077   4.442 -0.0969  0.4929 -0.5169
45444W        W88497  14.680  13.881   8.604  0.1975  0.0011  0.1045
45445W        W88498   7.233  22.505   4.598  0.2228  0.2491  0.3436
45446W        W88499  22.487   6.047  28.216 -0.0179  0.1103 -0.1301
45447W        W88500   2.222   0.943   7.172 -0.1598  0.1191 -0.0887
45448W        W88501  10.394  24.429   0.585  0.0082  0.2348  0.0592
45449W        W88502  33.075  14.296   1.645 -0.2218  0.0362 -0.0026
45450W        W88503  29.618  17.861   3.385 -0.1631 -0.1297  0.2366
45451W        W88504   4.449  31.491   8.709  0.1977 -0.0805 -0.0458
45452W        W88505  21.421   6.668   6.453 -0.2592  0.2072  0.0817
45453W        W88506   0.058  16.836   4.175  0.2172  0.2279  0.1500
45454W        W88507  28.644  13.721   6.444  0.0963 -0.0395  0.2333
45455W        W88508  32.161  24.472  19.996  0.2850 -0.1069  0.0445
45456W        W88509  23.349  18.952   0.602  0.1822  0.0636  0.2236
45457W        W88510  23.774   3.785  10.733  0.0383  0.0436 -0.2498
45458W        W88511  23.477   6.743   2.783 -0.3005  0.1770  0.1735
45459W        W88512   4.707   9.706   1.521  0.1126 -0.0188  0.2349
45460W        W88513  15.865  15.250   5.284  0.3057 -0.3166  0.0052
45461W        W88514  32.913  16.714  17.216  0.0349  0.0226  0.1621
45462W        W88515   1.000  15.319   7.509 -0.0669 -0.1565  0.2488
45463W        W88516   1.281  21.110  27.389 -0.1110  0.0747  0.1262
45464W        W88517  33.779  15.806   9.653  0.0487 -0.1919  0.2771
45465W        W88518  30.318  16.453   4.752  0.0816 -0.0780  0.1661
45466W        W88519  13.616  17.802   4.243 -0.0782  0.2102  0.0892
45467W        W88520  25.603  19.479  27.080 -0.0967 -0.2197  0.3529
45468W        W88521  30.959   1.747   3.342  0.2212  0.2788 -0.0308
45469W        W88522  27.776  22.638   8.454  0.0996  0.1481  0.0972
45470W        W88523  29.375  19.975   7.231 -0.1109  0.2910 -0.2318
45471W        W88524  28.955  23.638   7.450  0.2898  0.0038  0.2158
45472W        W88525  25.442  19.100   6.627  0.0448  0.2702 -0.1020
45473W        W88526  29.337  25.171  10.491  0.0633  0.0579 -0.2130
45474W        W88527  27.448  27.436  27.331  0.2876 -0.0845 -0.0898
45475W        W88528  26.949  34.168   5.311 -0.1587 -0.0365  0.0410
45476W        W88529  31.216  19.334   8.094 -0.1200 -0.1560 -0.1924
45477W        W88530  29.357   5.637  23.818  0.2633 -0.0796 -0.1164
45478W        W88531   3.587   2.730   5.430 -0.0424 -0.1273  0.1961
45479W        W88532   1.145  13.908  16.563 -0.0681 -0.1588 -0.2144
45480W        W88533   0.998  13.717  24.842 -0.0639 -0.2938  0.2353
45481W        W88534  28.033  23.132   5.159 -0.0228 -0.3493 -0.5962
45482W        W88535  29.805  16.621   4.776 -0.3319  0.0918  0.0585
45483W        W88536  21.069  19.072  14.679 -0.2706  0.1050 -0.1975
45484W        W88537  25.872  18.036   0.245 -0.0565  0.1386  0.2168
45485W        W88538  22.473  22.071   0.324  0.0574  0.2194  0.0143
45486W        W88539  25.575  18.420   8.232 -0.1259  0.2852 -0.0474
45487W        W88540  29.381  15.759   9.298 -0.1351  0.0245  0.1686
45488W        W88541   9.163  31.818  28.717  0.2752 -0.1583 -0.1511
45489W        W88542  18.952  18.056  27.385 -0.1064  0.1660 -0.1914
45490W        W88543  18.571  18.626   9.543  0.1844  0.1108 -0.1974
45491W        W88544  28.420  15.926   8.090 -0.0852 -0.2990  0.1348
45492W        W88545  15.849  18.833   7.465 -0.0503  0.4062 -0.0536
45493W        W88546  31.069  34.051   2.501 -0.0545  0.2264 -0.0672
45494W        W88547  22.006  19.389  22.141 -0.1769 -0.3806  0.0744
45495W        W88548  31.490   6.485   5.507  0.0201 -0.3572 -0.3335
45496W        W88549  26.266  12.291   5.904  0.1172  0.2219 -0.0712
45497W        W88550  32.642  15.842  26.343  0.0638 -0.0623 -0.3341
45498W        W88551  15.112   6.881   8.361 -0.1682  0.1561 -0.1635
45499W        W88552   0.374  34.359  27.866 -0.4470  0.3791 -0.1342
45500W        W88553   6.527   7.259   5.888 -0.0271  0.0106  0.0711
45501W        W88554  25.424  14.985   5.884 -0.1983 -0.0963  0.0229
45502W        W88555  12.124   2.118   0.880  0.0905 -0.0648  0.4006
45503W        W88556  28.488  22.763  21.618  0.1169  0.0366 -0.2300
45504W        W88557  18.007  16.079   2.618  0.1005  0.0536 -0.0798
45505W        W88558  28.526  14.233  24.070 -0.1975 -0.2543  0.1926
45506W        W88559  25.351  10.278   0.075  0.0716  0.3559  0.0876
45507W        W88560  20.322   5.486   0.970  0.1749 -0.1358  0.0280
45508W        W88561  30.389  15.130  29.120 -0.0674  0.1114 -0.0641
45509W        W88562  29.205   4.205   5.326  0.0699 -0.1538 -0.2564
45510W        W88563  15.588  15.067   9.056 -0.0708 -0.2364 -0.0365
45511W        W88564  20.584  11.513   4.722 -0.0395 -0.0892  0.1518
45512W        W88565  30.521  33.292   4.078  0.0347  0.2549  0.2594
45513W        W88566  32.752  14.854  23.699  0.0625 -0.0399 -0.2259
45514W        W88567   5.366   0.657  26.039 -0.0103  0.1494 -0.0149
45515W        W88568  19.414   6.511   4.936  0.0781  0.0099  0.0702
45516W        W88569  25.177  15.999   8.223 -0.3750  0.2144 -0.1585
45517W        W88570  24.799  18.940   1.232 -0.2244  0.0472  0.0606
45518W        W88571  25.331  17.286   0.994  0.1279  0.1481 -0.0480
45519W        W88572  32.395  26.907   0.142 -0.0474 -0.2766  0.1827
45520W        W88573  28.422  11.520  23.230  0.0889 -0.2502  0.2886
45521W        W88574   2.244  27.712   3.673  0.1751  0.1844 -0.1264
45522W        W88575  21.523  14.917   6.741  0.2187  0.2460  0.0003
45523W        W88576  32.350  20.428   4.194 -0.4621  0.1078 -0.0157
45524W        W88577   0.093   0.115   1.870  0.0755  0.3734  0.1353
45525W        W88578   2.696  17.209   9.557  0.0888 -0.1193 -0.0620
45526W        W88579   0.555  31.846   2.068 -0.0030 -0.3640  0.0806
45527W        W88580  13.728  19.194  28.500 -0.1433  0.4139 -0.1285
45528W        W88581  27.704   3.900   8.131  0.0467  0.0578 -0.0499
45529W        W88582   0.852  26.197  16.700 -0.0932 -0.4406  0.1855
45530W        W88583  32.253   7.842  23.324 -0.1478  0.1193 -0.1776
45531W        W88584  33.823  24.372   5.553  0.2399 -0.0232  0.0132
45532W        W88585   7.821   0.654  21.891  0.3910  0.3756  0.0381
45533W        W88586  34.133  33.038   4.692 -0.0289 -0.3232  0.0211
45534W        W88587  20.537  20.528   4.679 -0.3456 -0.0617 -0.0868
45535W        W88588  31.541  30.492   9.191  0.1557  0.3084  0.2532
45536W        W88589   2.743  18.811  25.866 -0.1541 -0.1410  0.2429
45537W        W88590  27.428  19.041  25.715 -0.0366  0.1091  0.0334
45538W        W88591   3.288  17.516   0.642  0.0422 -0.0260  0.3667
45539W        W88592  29.239  19.147   7.246  0.1153  0.1556  0.1727
45540W        W88593   8.264  34.498  25.844 -0.1655  0.4730  0.2177
45541W        W88594  21.046   9.825   8.259  0.0550  0.3211  0.2431
45542W        W88595  23.831  22.659  26.115 -0.5227  0.1400  0.2792
45543W        W88596   9.548  13.533   7.496 -0.3510  0.2572  0.0692
45544W        W88597  30.791  15.876   5.453  0.0258  0.0805  0.1016
45545W        W88598   5.374  27.798   9.177  0.1197 -0.0872 -0.1183
45546W        W88599  27.929   9.854  18.300 -0.1393  0.1582 -0.0885
45547W        W88600  33.072  17.682   7.552 -0.1010  0.0829  0.1289
45548W        W88601   5.142  18.905   4.834  0.1077 -0.0180  0.0144
45549W        W88602  15.743   2.949  15.193 -0.0071 -0.0696 -0.0988
45550W        W88603  21.425  23.400  25.112  0.1339 -0.5980  0.1223
45551W        W88604   5.095  29.784   7.780 -0.1363  0.0406  0.0819
45552W        W88605   6.668  23.467  24.279 -0.0575 -0.1380  0.1490
45553W        W88606  31.165  11.173   8.831 -0.0042  0.0635  0.1015
45554W        W88607  27.879  22.840   4.093  0.0803  0.0509 -0.1918
45555W        W88608   6.631  21.230   7.017  0.1461 -0.4111  0.1411
45556W        W88609  23.965   7.120   2.628 -0.1444 -0.0588  0.0563
45557W        W88610  30.301  27.398   7.999  0.0589  0.3362  0.1671
45558W        W88611   3.844  25.251   6.880  0.0710 -0.2933 -0.1645
45559W        W88612  10.718  18.510   0.439 -0.1417 -0.3077 -0.1763
45560W        W88613  15.561  27.276   1.365  0.0079  0.0966  0.0519
45561W        W88614   0.985  33.443  28.833 -0.1168  0.0256 -0.0068
45562W        W88615  20.181  17.336  15.099 -0.1855  0.1202  0.2552
45563W        W88616  28.228  18.504   6.057 -0.3909  0.2394 -0.2379
45564W        W88617   7.632  30.527  23.769 -0.1671 -0.2130  0.2690
45565W        W88618   0.928  31.114   1.145 -0.0454  0.0334  0.1725
45566W        W88619   2.660   2.049   5.353  0.0338 -0.0557 -0.0201
45567W        W88620  17.399  21.885   6.995 -0.0361  0.1817  0.1765
45568W        W88621  25.222  13.600   6.732 -0.0765 -0.0557  0.0595
45569W        W88622   2.175   6.218   4.187  0.0130  0.1269 -0.0135
45570W        W88623  33.232   6.323   4.682  0.0590 -0.0443  0.1101
45571W        W88624  28.738  17.262  27.203 -0.0042  0.2109 -0.1849
45572W        W88625  26.037  27.559   2.878  0.0562 -0.0506 -0.0394
45573W        W88626  18.043   4.428  10.161  0.0480  0.1440  0.0271
45574W        W88627   5.424  13.704   3.586 -0.0389 -0.2593 -0.1604
45575W        W88628  33.350  13.546   1.832 -0.0524 -0.0061  0.2074
45576W        W88629  12.033   5.517   2.932  0.0461  0.0753  0.0628
45577W        W88630  19.735   0.195   8.731 -0.0829  0.1230 -0.1599
45578W        W88631  34.226   7.198   7.263 -0.1678  0.0240  0.2982
45579W        W88632   0.704  28.581  28.754 -0.1401 -0.0266  0.1093
45580W        W88633  24.471  15.700   5.119  0.0371 -0.0861 -0.4226
45581W        W88634  21.539  16.937  20.811 -0.0955 -0.0519  0.2185
45582W        W88635  24.227   4.787  27.546  0.0959  0.0564 -0.0506
45583W        W88636   1.154  14.916   8.274 -0.3395  0.0507 -0.0287
45584W        W88637  31.867   4.337   9.997  0.0061  0.1876  0.0486
45585W        W88638   3.620   8.309  23.528 -0.1124 -0.1357 -0.2001
45586W        W88639   7.920  11.127   0.126  0.1047 -0.1910 -0.2062
45587W        W88640  31.171   0.817   9.046 -0.1592 -0.0004 -0.1792
45588W        W88641  25.560  16.426  23.784  0.1782 -0.0830  0.0249
45589W        W88642  32.523  12.189  10.421  0.0706 -0.0942  0.0135
45590W        W88643  12.132  20.866   8.264  0.3320 -0.0693 -0.1218
45591W        W88644  32.574   3.482  21.402 -0.2903  0.1965  0.0016
45592W        W88645  24.339  25.080  10.972 -0.0462  0.2069 -0.4270
45593W        W88646  26.253   9.516  27.976  0.0365 -0.4065 -0.1393
45594W        W88647  26.152  15.250   6.917  0.1721 -0.2801  0.0353
45595W        W88648   7.621  21.626  23.757  0.0741 -0.2553  0.1242
45596W        W88649   0.172  16.372   7.611  0.1911  0.1535  0.1152
45597W        W88650  30.671  18.223  26.815  0.0893 -0.0039  0.1649
45598W        W88651  29.669  19.327   8.891 -0.0729  0.0197  0.0771
45599W        W88652  33.477  26.735   8.026  0.0277  0.0794  0.0062
45600W        W88653  24.109   7.765   4.090 -0.3867  0.2353 -0.1236
45601W        W88654  11.125   4.157   1.529  0.0779 -0.0466  0.0809
45602W        W88655  15.983  10.197   3.059  0.0225  0.2061  0.0385
45603W        W88656  12.258   8.292  10.949 -0.2069  0.2020 -0.0286
45604W        W88657   5.144  28.513   0.397  0.1397 -0.3506 -0.0200
45605W        W88658  29.081  15.415  27.623 -0.3646 -0.0755  0.0514
45606W        W88659  22.674  28.313  28.420 -0.2031  0.2349  0.0311
45607W        W88660  18.058   6.589  25.330  0.1483 -0.0031 -0.2178
45608W        W88661   0.632  34.498   8.283  0.3385 -0.1983  0.1313
45609W        W88662   4.301  11.871   6.896 -0.1319  0.0353 -0.3053
45610W        W88663  30.052  18.049   4.851  0.3046  0.2012 -0.2575
45611W        W88664  13.336   4.991   0.533 -0.0878  0.0297  0.1024
45612W        W88665  23.214  16.816   4.012 -0.1123  0.1053 -0.0578
45613W        W88666   8.064   8.656   0.668  0.2212 -0.0758  0.0337
45614W        W88667  34.162  24.338   6.742  0.2744  0.2152 -0.0846
45615W        W88668  22.582  24.257   8.199  0.0569  0.1309  0.2147
45616W        W88669  28.296   7.520   7.382 -0.0641 -0.1144  0.0952
45617W        W88670  31.065  11.767   7.358  0.0046  0.3566  0.1002
45618W        W88671   5.508  17.327   4.152  0.1812 -0.2972 -0.3437
45619W        W88672  26.155  18.075  26.222 -0.3479 -0.0496  0.1313
45620W        W88673  32.456   1.795   2.316  0.0335  0.1007  0.0143
45621W        W88674  30.185  19.025   7.145  0.0096  0.0310 -0.3931
45622W        W88675  14.818  22.782   4.932 -0.1836  0.0055 -0.1962
45623W        W88676   2.869  24.580   2.986  0.0743 -0.0425 -0.1017
45624W        W88677  23.221  21.266   4.766  0.0435  0.2929 -0.0303
45625W        W88678   3.161  11.640   5.017  0.0117  0.0775  0.3560
45626W        W88679   4.155  15.890   0.167  0.2945 -0.0640 -0.3143
45627W        W88680  26.378   1.258   1.967 -0.2521 -0.1884  0.1527
45628W        W88681   0.767  32.788   5.566 -0.2120  0.1938 -0.0389
45629W        W88682   0.936  21.687   6.120  0.1101  0.0058  0.1222
45630W        W88683  30.232  11.663  28.325 -0.1857 -0.1291  0.0913
45631W        W88684   0.403   2.952   7.760  0.0606  0.2984 -0.4089
45632W        W88685  19.296  14.902   1.997  0.3997 -0.2365  0.3699
45633W        W88686  24.897   3.779  20.985  0.0467  0.3174 -0.2106
45634W        W88687  28.284  14.587   4.164 -0.1617 -0.1926  0.0601
45635W        W88688  11.630   8.240  10.959  0.0135  0.0510 -0.1732
45636W        W88689  29.767  31.638  28.941 -0.2087  0.0503 -0.0049
45637W        W88690  30.966  26.679   4.571  0.1226 -0.0118  0.0505
45638W        W88691  23.399  20.917   9.908 -0.3748  0.0187 -0.0855
45639W        W88692   9.780  13.174   8.255 -0.1075 -0.1397 -0.1228
45640W        W88693  28.129  25.383   3.464  0.1777 -0.0546  0.3379
45641W        W88694  29.986  15.849  25.733 -0.3211 -0.0544  0.1784
45642W        W88695  26.271  29.358   3.380  0.2935 -0.1132  0.0117
45643W        W88696  14.704  26.738   4.214  0.1128  0.0181 -0.0304
45644W        W88697  24.108   5.428  10.347  0.0215  0.0466  0.0465
45645W        W88698  26.492   9.043   7.490  0.0484 -0.0255 -0.2222
45646W        W88699  17.637  23.933   0.762  0.0657 -0.0691 -0.0464
45647W        W88700  34.577  21.598  10.127 -0.2272 -0.0331  0.1209
45648W        W88701  25.962   7.481   5.004  0.2830 -0.0274 -0.1251
45649W        W88702  22.169  31.789   8.926 -0.0367 -0.2155 -0.0032
45650W        W88703   3.283  17.127   3.537 -0.0540 -0.1611 -0.2487
45651W        W88704  28.117  15.480   0.092  0.0866 -0.0718  0.1081
45652W        W88705   4.056  15.954   8.960  0.4464  0.1063 -0.3063
45653W        W88706  28.248  14.389   0.090  0.0363 -0.2943 -0.1498
45654W        W88707  27.039  23.436   9.459  0.4866 -0.0768 -0.1462
45655W        W88708   1.543   6.234   2.903  0.4084  0.0273 -0.2583
45656W        W88709  21.002  18.658   4.354  0.2238  0.1812 -0.2530
45657W        W88710  23.008   6.157   5.441 -0.1229 -0.2476  0.1768
45658W        W88711   2.285  21.926   1.226  0.3139  0.0111 -0.0363
45659W        W88712  32.683  11.980   7.300  0.0658 -0.1086  0.0353
45660W        W88713  27.000  15.906   9.412  0.1012  0.0508 -0.1118
45661W        W88714  18.954  22.238   5.097  0.1393 -0.0939 -0.1461
45662W        W88715   0.196  30.310   7.360 -0.1137  0.1167 -0.2121
45663W        W88716   4.724  20.055   4.172  0.1516 -0.2483  0.1261
45664W        W88717  23.908  25.237   1.596  0.0870  0.1418 -0.0059
45665W        W88718   2.968  22.099  21.733  0.2933  0.0960  0.3062
45666W        W88719  28.458  20.970   5.762 -0.0449  0.1314 -0.0025
45667W        W88720  27.760  19.117  23.586 -0.3033  0.0177 -0.1233
45668W        W88721   2.108  20.117   1.971  0.2847 -0.1291 -0.0884
45669W        W88722  23.803   1.543  29.071 -0.0836  0.0154  0.2192
45670W        W88723   1.646  30.126   2.301 -0.2389  0.0254  0.0548
45671W        W88724   2.211   5.527   9.484  0.1250 -0.0846 -0.1157
45672W        W88725  13.629   9.132   4.759  0.0933 -0.2045  0.4627
45673W        W88726  19.893  17.800  25.008  0.4713 -0.3838 -0.1648
45674W        W88727  21.857  16.691  17.185 -0.0354 -0.0506  0.4080
45675W        W88728   1.009  13.630   3.452  0.1118  0.2122  0.0448
45676W        W88729  31.530  29.797   0.776 -0.1938  0.0831  0.3219
45677W        W88730  29.847  32.294   6.996 -0.1134 -0.2993 -0.0363
45678W        W88731  22.181  25.496   2.623 -0.1569 -0.1503  0.2611
45679W        W88732  28.148  12.528  28.841  0.3507 -0.1844  0.0438
45680W        W88733  31.687   4.653   1.269  0.0921  0.0247 -0.0990
45681W        W88734  31.823   1.715   2.924 -0.1015 -0.1163  0.1617
45682W        W88735  21.505  24.149   1.940  0.2136  0.0317  0.4273
45683W        W88736  33.818   0.175   5.411 -0.2742 -0.1089  0.1069
45684W        W88737   3.486  13.098  23.989 -0.0098 -0.0493  0.0590
45685W        W88738   5.452  12.958   5.050 -0.0575  0.1084  0.2133
45686W        W88739  33.787  21.800   8.055 -0.0817 -0.2388 -0.1545
45687W        W88740  30.337  22.295   0.398 -0.1951  0.0602 -0.4425
45688W        W88741  28.791  32.534   3.554  0.2848 -0.0659  0.1788
45689W        W88742  33.659   3.544   5.832 -0.0359 -0.2609 -0.1386
45690W        W88743  23.307  13.316  20.280 -0.0805 -0.0266 -0.1571
45691W        W88744   6.521  12.278  29.073  0.0397  0.0191  0.0498
45692W        W88745  20.153  11.426  15.619  0.1155 -0.1686 -0.3963
45693W        W88746   8.265  12.826   5.023  0.2871 -0.1516  0.1100
45694W        W88747  21.875  11.308  24.577  0.1353  0.0917 -0.1682
45695W        W88748  22.025  13.783  24.931 -0.2020  0.0578 -0.0688
45696W        W88749   5.963  11.181   9.225  0.0304  0.2152 -0.1467
45697W        W88750   3.935  11.271   7.693  0.0391 -0.0130  0.1937
45698W        W88751  29.189  28.064   6.624  0.0532  0.1103  0.0156
45699W        W88752  28.243  32.376   7.133 -0.1022 -0.0057 -0.4377
45700W        W88753  21.718  29.061   6.151  0.0545 -0.0729  0.0137
45701W        W88754  17.801  29.024  18.840  0.0576  0.0343 -0.1442
45702W        W88755   1.897  16.663   8.366  0.0882  0.2136 -0.2600
45703W        W88756  27.848  19.212   7.678  0.0093 -0.0200 -0.0648
45704W        W88757  24.430  17.640   0.015  0.1186  0.0199 -0.4606
45705W        W88758  17.497  33.178   7.049 -0.0611  0.0410  0.1394
45706W        W88759  33.044  20.157   6.877 -0.2446 -0.1533 -0.0309
45707W        W88760  18.848  10.898   4.067  0.0511  0.2329  0.0708
45708W        W88761  32.484   7.763   6.217  0.0824  0.2126  0.4611
45709W        W88762   0.916  33.893   1.975 -0.4328  0.1173 -0.0178
45710W        W88763  29.699  14.674  27.865 -0.0841  0.0100 -0.2566
45711W        W88764   3.995  21.322   5.051  0.0025  0.0460 -0.0086
45712W        W88765   1.180  25.145   7.086 -0.2348 -0.1912  0.0520
45713W        W88766   2.572  21.322   3.152 -0.0541  0.0615  0.2767
45714W        W88767  25.093  17.502  25.612  0.0712  0.2312  0.2067
45715W        W88768   0.473   3.597   4.655  0.2899  0.1344  0.1408
45716W        W88769  23.117  14.184   5.280  0.1759  0.0294  0.0765
45717W        W88770   8.963  19.933  27.323 -0.0137  0.0504  0.0174
45718W        W88771  23.239   6.668  27.272 -0.0799 -0.1747 -0.0917
45719W        W88772   7.264  20.835   1.295 -0.0550  0.0721 -0.0367
45720W        W88773  33.368  24.201   5.684 -0.2761 -0.1464  0.2790
45721W        W88774  11.092  13.593   2.390 -0.1595 -0.0741  0.1782
45722W        W88775  19.011  18.045   7.738  0.4794  0.1335 -0.0132
45723W        W88776  29.085  15.040   5.531 -0.1227  0.2288 -0.0681
45724W        W88777  27.801  24.146  21.596 -0.2577  0.1296  0.1141
45725W        W88778   5.010  14.143  10.668  0.1673  0.1036  0.2126
45726W        W88779  27.804   0.905   2.332  0.1179 -0.2176 -0.0164
45727W        W88780  29.847   5.899  23.817 -0.1382  0.0022  0.0943
45728W        W88781  23.403  12.686   7.232 -0.4404 -0.1082 -0.0186
45729W        W88782  28.607  24.205   8.225 -0.3231  0.1116 -0.0460
45730W        W88783  19.644  25.132  28.363 -0.0232  0.2495  0.3713
45731W        W88784   2.845  23.267   4.771  0.1823  0.2667 -0.0857
45732W        W88785  18.397  11.741   7.650  0.4470  0.0170  0.3680
45733W        W88786  26.732  11.290   7.874 -0.2806  0.1611 -0.4097
45734W        W88787  23.902  10.745  24.760  0.1228  0.2562  0.3727
45735W        W88788  32.861   3.509   7.229  0.3128 -0.1103  0.0043
45736W        W88789  33.201  28.609   7.384 -0.0153 -0.0155  0.0388
45737W        W88790   0.732   8.153   1.297  0.3099  0.0414 -0.2916
45738W        W88791  33.372  12.053  24.484  0.1340  0.3151 -0.0633
45739W        W88792  21.999   4.154   5.343 -0.1444 -0.3190 -0.0216
45740W        W88793  28.577  14.662  26.325 -0.0195  0.1698  0.2029
45741W        W88794   5.030  10.446  25.985  0.4258 -0.0927 -0.1063
45742W        W88795  15.409  17.717  25.673  0.2912  0.0512 -0.1452
45743W        W88796  31.004  14.453   5.799 -0.0370 -0.1267 -0.0869
45744W        W88797  12.015  27.359   9.319 -0.1322 -0.1323  0.0435
45745W        W88798  11.007  20.576   7.075  0.1508 -0.1088  0.1783
45746W        W88799  24.742  15.455  20.950 -0.0899 -0.1930 -0.1591
45747W        W88800   0.074   2.132   0.043 -0.1638  0.1029  0.4193
45748W        W88801  12.163  17.974   8.885 -0.2435 -0.1254  0.1195
45749W        W88802   1.929  19.728  25.572  0.1413  0.2828  0.1021
45750W        W88803  26.943   6.215  25.011  0.0111 -0.1461 -0.0370
45751W        W88804  15.138  13.724   7.381  0.3186 -0.2710 -0.2345
45752W        W88805   1.872   7.190  25.476  0.0472 -0.2179  0.2047
45753W        W88806  29.835  31.194   4.004  0.0789  0.3439  0.0589
45754W        W88807  23.098  11.377   7.334  0.0143 -0.1713 -0.1273
45755W        W88808   3.163   4.430  26.251  0.0918  0.1878 -0.0035
45756W        W88809  19.443  22.143   2.072  0.1995 -0.0450  0.1628
45757W        W88810  16.909  19.937  28.564  0.1048 -0.0019  0.1941
45758W        W88811  22.960  29.688  26.799 -0.0049 -0.0539 -0.1701
45759W        W88812  16.384   5.932  21.918 -0.0964 -0.0256 -0.1125
45760W        W88813   0.066   7.842   8.777  0.2898  0.2794 -0.2553
45761W        W88814  25.843  12.403   9.594 -0.0465 -0.1554 -0.1647
45762W        W88815  29.938   0.094   8.396 -0.2816  0.1080 -0.1391
45763W        W88816  25.849  10.943   4.145 -0.0379 -0.3130  0.0843
45764W        W88817  21.135  34.544   2.718  0.0269  0.1194  0.0209
45765W        W88818  22.009  13.217   2.217 -0.0535 -0.0668  0.1001
45766W        W88819   9.580  17.972  25.851  0.2223  0.2027  0.2498
45767W        W88820  33.446  10.463   4.831  0.0002 -0.0347  0.1074
45768W        W88821  31.709  19.367   1.104 -0.4815 -0.1216  0.0528
45769W        W88822  27.844  30.153   9.905  0.0718 -0.0057 -0.5596
45770W        W88823  11.457  17.682   8.377  0.1862 -0.1182  0.1373
45771W        W88824   1.633  10.300   5.032 -0.0701  0.1169 -0.2156
45772W        W88825  29.749  10.217   5.816  0.1206 -0.0506  0.1095
45773W        W88826  32.749  25.652   7.410 -0.0383 -0.0717  0.2057
45774W        W88827   0.655  26.220   3.590 -0.3284 -0.0906  0.1423
45775W        W88828  21.302  27.675   7.970  0.0992 -0.2944 -0.1839
45776W        W88829  34.174  20.731  22.146  0.0943  0.0330 -0.3795
45777W        W88830   0.722  27.557   5.480  0.0172 -0.2005 -0.1287
45778W        W88831  30.431  22.068   5.553 -0.2042 -0.0959  0.6351
45779W        W88832   2.089   2.759   6.101 -0.0014  0.0363  0.1055
45780W        W88833   2.181   6.452   4.930  0.0582  0.1812 -0.0299
45781W        W88834   7.313  13.018   0.264 -0.0740  0.2195 -0.0227
45782W        W88835  33.290  17.104  22.476 -0.1665  0.0271 -0.4477
45783W        W88836  31.965  23.273   3.432  0.0411 -0.3490 -0.2668
45784W        W88837   0.133  12.319  25.453  0.1514  0.1375 -0.0003
45785W        W88838   2.955  13.326  20.535  0.1690  0.2727 -0.3133
45786W        W88839  29.479  14.641  10.340  0.0013 -0.0538  0.1494
45787W        W88840  26.921   8.873   6.341 -0.1806 -0.0890  0.2236
45788W        W88841   6.565  33.246  29.150 -0.0984 -0.0667  0.0991
45789W        W88842   9.668   2.609  10.490 -0.2112 -0.1184  0.0679
45790W        W88843   4.361  23.471  21.355  0.0182 -0.0553  0.0475
45791W        W88844   2.083  26.027  14.736  0.3037  0.1924 -0.0044
45792W        W88845   3.905  22.205  22.445 -0.1117  0.1102 -0.0226
45793W        W88846   1.024  34.135   0.681  0.0827 -0.1296 -0.4248
45794W        W88847  22.665  31.008   3.394 -0.0100 -0.1655 -0.1203
45795W        W88848  15.762  16.456   1.715 -0.0684 -0.0614  0.0344
45796W        W88849  23.667   3.707   2.122 -0.0533 -0.1982  0.0154
45797W        W88850   1.357  26.455   6.287  0.0415  0.0377 -0.1712
45798W        W88851  20.840  13.036  25.361 -0.8407  0.0228  0.2083
45799W        W88852  23.279   5.222   9.699 -0.0329  0.2326 -0.0755
45800W        W88853  13.462  11.861  11.267 -0.1249  0.4895  0.1857
45801W        W88854  32.126  22.543   5.194  0.2430 -0.1277  0.1282
45802W        W88855  26.739  31.156  25.431  0.0106  0.1112 -0.2874
45803W        W88856   2.968  16.915  23.260  0.1940 -0.0337  0.1042
45804W        W88857  23.357  27.158   0.451  0.0579  0.2387 -0.3546
45805W        W88858  28.954  31.260  17.529 -0.5550  0.4400 -0.0540
45806W        W88859  23.646  24.964  19.644 -0.0739 -0.3157  0.2551
45807W        W88860  12.847  34.660   4.733  0.1417  0.1330 -0.0990
45808W        W88861  32.963  24.565  28.075  0.1110 -0.0284 -0.3956
45809W        W88862  24.286  21.066   9.862 -0.1361 -0.0239 -0.1306
45810W        W88863  23.521  14.391  21.994 -0.0738  0.1612 -0.2443
45811W        W88864  33.780  32.146  22.195 -0.0007 -0.3155 -0.1097
45812W        W88865  29.083  26.438   9.154 -0.0946  0.2148 -0.1178
45813W        W88866  21.689   7.640   8.650  0.1032  0.3039 -0.0386
45814W        W88867  22.294  27.259   8.239 -0.1628  0.0635  0.2692
45815W        W88868  27.673  18.311   9.343  0.1035  0.1590  0.1070
45816W        W88869  21.262   3.735  17.908  0.0905  0.1165 -0.3235
45817W        W88870  22.667  32.304  24.157  0.1527  0.0798 -0.0146
45818W        W88871  17.958  12.170  14.480 -0.0290  0.0435 -0.2156
45819W        W88872  22.643   5.177   1.161 -0.1292 -0.0673  0.0587
45820W        W88873  20.602   6.663   4.366  0.2495  0.1326  0.2531
45821W        W88874  26.053  29.974  26.776  0.2499  0.1879  0.0975
45822W        W88875   2.689  25.065   6.949 -0.2084  0.2497  0.3146
45823W        W88876  28.586  33.048  27.896 -0.0908 -0.1681 -0.2676
45824W        W88877  25.851  26.109   0.975 -0.1732  0.2943 -0.2775
45825W        W88878   3.982  14.849   2.588 -0.1077  0.0084  0.0956
45826W        W88879  10.448  19.956   3.330  0.1231  0.2340  0.0778
45827W        W88880  22.891  25.245   7.510 -0.1589  0.0512  0.0133
45828W        W88881  34.683  33.420  27.537  0.2029 -0.0093 -0.1704
45829W        W88882  23.768  28.162   6.006 -0.4142  0.3409  0.0039
45830W        W88883  24.099  26.437   6.044  0.0174 -0.0766 -0.4634
45831W        W88884   2.437  29.022   5.609  0.2547 -0.1908 -0.0383
45832W        W88885  30.032  16.881   9.565  0.0349 -0.2656  0.2716
45833W        W88886  18.348  18.736  23.332  0.1792  0.1403  0.1982
45834W        W88887  13.645  23.769  26.826  0.1891 -0.4239  0.0062
45835W        W88888  24.058   6.626  15.422 -0.1601  0.1448 -0.1703
45836W        W88889  14.276  22.754   3.733  0.1968  0.2670  0.1962
45837W        W88890  26.581  18.150  27.495  0.0520 -0.3668 -0.0205
45838W        W88891  17.888   5.834   1.429  0.0507  0.1433  0.1973
45839W        W88892   9.225  25.818   6.789 -0.0833 -0.1306  0.1682
45840W        W88893  27.315  16.960   1.796 -0.0532 -0.1553 -0.2145
45841W        W88894  30.550  23.673   1.494 -0.2525  0.2677  0.0507
45842W        W88895  29.171  20.543   1.832  0.2323 -0.1312 -0.4002
45843W        W88896   2.966   0.287   3.277  0.0502  0.1905  0.0944
45844W        W88897  28.934  12.345   6.085  0.0776 -0.2234  0.3188
45845W        W88898  30.938  16.175  25.846 -0.0590  0.1138  0.0415
45846W        W88899  16.363  31.273   7.046 -0.2405 -0.3191 -0.1170
45847W        W88900  26.360  19.507   4.209 -0.0109 -0.2481  0.0322
45848W        W88901  10.973  21.110  23.607 -0.2850 -0.0443  0.0280
45849W        W88902  27.942  13.901  22.505 -0.3570  0.1063  0.2886
45850W        W88903   5.272  25.688   7.158  0.1236 -0.0631 -0.0951
45851W        W88904  12.403  16.506  10.057 -0.0985 -0.2070  0.1162
45852W        W88905  18.113  24.201   9.857  0.0488  0.0105 -0.3364
45853W        W88906  25.966  21.314   3.178 -0.4517 -0.0653 -0.0764
45854W        W88907  34.509  29.021   8.449  0.5258 -0.0908  0.1353
45855W        W88908  17.854  29.357  10.379  0.1146  0.3526 -0.1017
45856W        W88909  19.171  32.810  26.917  0.2404 -0.1404 -0.2809
45857W        W88910  32.593   8.853   8.833 -0.0179 -0.2255  0.0492
45858W        W88911   3.716  30.248   8.191 -0.0516  0.0336 -0.5305
45859W        W88912  23.387  13.520  28.548  0.2561 -0.0495 -0.1338
45860W        W88913   7.275  17.675   1.121 -0.2912  0.1634 -0.2283
45861W        W88914  29.285  12.005  22.088  0.3731 -0.0059  0.0981
45862W        W88915   8.833   6.114   7.761  0.0928 -0.0143 -0.1430
45863W        W88916  20.158  11.984   3.000 -0.2049 -0.1279  0.3388
45864W        W88917  27.060   4.215  10.256  0.1689  0.2168 -0.1412
45865W        W88918  28.450  11.695   2.553  0.0892 -0.2393 -0.2598
45866W        W88919  34.366  25.135  22.437  0.3622  0.4063 -0.1073
45867W        W88920  27.583   0.540   5.256  0.1745 -0.0767  0.1417
45868W        W88921  27.984  32.114  22.872 -0.0498 -0.0855 -0.2726
45869W        W88922  13.245  22.576  23.189 -0.1041  0.5190  0.1110
45870W        W88923  16.753  14.275  29.149 -0.1114  0.2341 -0.1226
45871W        W88924  25.591  29.940   3.534 -0.0166 -0.1078 -0.0473
45872W        W88925  12.048  22.306  22.791  0.1327  0.3829 -0.0786
45873W        W88926  27.607   5.645  24.212 -0.1025  0.0784  0.0594
45874W        W88927   6.570  31.781   2.647 -0.0359 -0.2708  0.1126
45875W        W88928   2.856  10.323   9.781  0.3212  0.0194 -0.0276
45876W        W88929  29.204  24.809   0.390 -0.0174  0.2316  0.1210
45877W        W88930   5.590  26.778  14.723  0.0065 -0.2396 -0.0945
45878W        W88931  11.279   5.770  22.257  0.0722  0.2930 -0.0821
45879W        W88932   0.462   6.818  10.346  0.2017 -0.0643 -0.3116
45880W        W88933  18.535  15.092   8.765 -0.2154 -0.1750 -0.2232
45881W        W88934  11.560  17.090   7.687  0.1122 -0.1325  0.0712
45882W        W88935  28.852  23.573   9.571 -0.0100 -0.2371  0.2829
45883W        W88936   2.291   4.123  18.872 -0.2327 -0.0375  0.1330
45884W        W88937  19.136  19.326  28.588 -0.0475 -0.2447  0.2654
45885W        W88938   1.601  27.010   9.531  0.0022 -0.1119  0.3068
45886W        W88939  30.310  20.312   6.148  0.1697  0.1343  0.3138
45887W        W88940  15.678  22.883   9.512  0.0286  0.4417  0.0487
45888W        W88941   1.988  18.663   2.102 -0.0293  0.0433 -0.1503
45889W        W88942  31.064  24.271  17.891  0.1418  0.2920  0.0241
45890W        W88943   7.518  22.685  25.504 -0.1120 -0.0265 -0.1833
45891W        W88944  29.262   9.556  26.371  0.1225 -0.2496  0.0648
45892W        W88945  12.087  15.745  20.579 -0.1365 -0.1645  0.1855
45893W        W88946   8.089  15.755  22.294 -0.1067  0.2227  0.3516
45894W        W88947  27.044  19.178   1.475 -0.3453 -0.2352 -0.0851
45895W        W88948  25.191  13.695  29.098 -0.1932  0.1797  0.1517
45896W        W88949  26.650  27.943   3.878  0.1140  0.0285  0.0726
45897W        W88950  31.589  21.881   9.328 -0.0346  0.0156  0.0180
45898W        W88951   7.435   5.320   0.048 -0.0143  0.0820 -0.0213
45899W        W88952   9.292   0.295  18.072  0.2452 -0.0504 -0.1007
45900W        W88953  34.482  12.684   3.692 -0.0158 -0.1171 -0.0836
45901W        W88954  22.155  10.679  27.324 -0.0716  0.0971  0.2495
45902W        W88955  16.403  14.491  21.680  0.0622 -0.3893  0.2922
45903W        W88956  28.933  20.778   4.532  0.1492 -0.0644 -0.0264
45904W        W88957  20.309  19.686  24.298 -0.2756 -0.1060  0.1135
45905W        W88958   3.425   6.166  17.780 -0.1129  0.0609  0.0152
45906W        W88959  29.697  27.728  25.531  0.0155 -0.1441  0.1316
45907W        W88960  29.149  33.855  28.132  0.0178  0.2445 -0.1443
45908W        W88961  32.443  18.604   0.467 -0.0406 -0.0263 -0.4371
45909W        W88962  29.684  24.920   5.998  0.0833 -0.1705  0.0831
45910W        W88963  27.561   0.678  28.120  0.0166 -0.0053  0.3136
45911W        W88964  31.033  16.869  21.539 -0.0965 -0.1843  0.1959
45912W        W88965   0.656  11.826  21.418  0.1407 -0.0714 -0.1270
45913W        W88966  10.699  16.661   7.184 -0.1488  0.1385  0.3873
45914W        W88967   6.251  22.278   0.923 -0.1350 -0.0163  0.3417
45915W        W88968  28.066  23.714   7.674  0.1013 -0.0232 -0.1044
45916W        W88969  33.327  31.700   5.613  0.0185  0.0413  0.0062
45917W        W88970  26.954  21.798  14.500 -0.0975  0.1546 -0.0119
45918W        W88971   3.033  26.573   0.863  0.2443  0.0834 -0.4730
45919W        W88972  30.123  23.052   4.882  0.1756 -0.0879  0.0104
45920W        W88973  32.121   7.915   1.638  0.0046  0.2211  0.0227
45921W        W88974  34.500  21.924   9.751 -0.5153 -0.0660 -0.0758
45922W        W88975  33.636  33.151   0.763 -0.0669  0.1247 -0.3486
45923W        W88976  24.779  15.994  23.682  0.1782  0.0173 -0.1152
45924W        W88977  17.343  17.849  18.211 -0.0678  0.2348  0.0913
45925W        W88978  21.854   5.321  23.518  0.1407  0.0724 -0.0504
45926W        W88979  30.867  29.573  25.604 -0.0098 -0.3032  0.3819
45927W        W88980  24.344  33.886   8.872  0.3783 -0.1632  0.1048
45928W        W88981  31.433  29.474   0.284  0.0098  0.0820 -0.2614
45929W        W88982   6.003  14.722   7.069 -0.0642 -0.1969  0.1693
45930W        W88983  23.827  19.734   7.062  0.3488  0.3087 -0.1045
45931W        W88984  31.327  10.891  10.391 -0.3784 -0.2931 -0.0822
45932W        W88985   7.254  21.553   3.476 -0.1510 -0.0796  0.0259
45933W        W88986   4.862   3.040  22.793  0.3672 -0.0900  0.2941
45934W        W88987  31.027  20.059   8.491  0.1148 -0.1292  0.2996
45935W        W88988  27.590  11.312   8.818  0.1499  0.0070 -0.0633
45936W        W88989   6.440  23.346  25.583 -0.0193  0.0288  0.2596
45937W        W88990  19.497  12.043  19.353 -0.2046 -0.2224 -0.0225
45938W        W88991   3.663   6.566   2.239 -0.0102  0.2109  0.2606
45939W        W88992  29.657  28.190  25.885  0.2012  0.0497 -0.0260
45940W        W88993  23.557  16.624   1.004 -0.0998 -0.4291 -0.1664
45941W        W88994   1.853  11.489   3.392 -0.0051  0.2981  0.0048
45942W        W88995   0.344   0.537   8.740  0.0779 -0.0747 -0.1228
45943W        W88996   5.265   9.628   8.988 -0.0391 -0.0891 -0.1007
45944W        W88997  15.294  24.921  20.264 -0.0751 -0.3050 -0.0211
45945W        W88998  28.242  14.549   8.602  0.2745  0.0305  0.0910
45946W        W88999  20.272  20.236  23.339 -0.2094  0.2419  0.2571
45947W        W89000  11.843  24.836   4.294 -0.0808  0.2257 -0.0789
45948W        W89001  23.782  13.955  19.941 -0.2285  0.1114  0.0561
45949W        W89002  10.041   7.675   9.313  0.1146 -0.0928  0.0411
45950W        W89003  30.391  11.597   7.842 -0.1154  0.1236  0.0518
45951W        W89004   8.685  20.046  16.662  0.2561 -0.2344 -0.1225
45952W        W89005  18.553  26.813   9.525 -0.2617  0.1435  0.0915
45953W        W89006  11.622  22.820   7.784  0.0686 -0.0328 -0.0585
45954W        W89007  22.947  22.532  21.317  0.0159  0.1121  0.0812
45955W        W89008   8.788  22.219   0.444 -0.0639 -0.3013 -0.3249
45956W        W89009  32.906  22.560   5.874 -0.2918  0.3755 -0.2108
45957W        W89010   0.333  11.165  27.464 -0.1680 -0.1312 -0.0950
45958W        W89011  29.962  32.290  21.990 -0.0951 -0.3880  0.3432
45959W        W89012  10.613  28.909  22.880  0.0078 -0.0183 -0.0902
45960W        W89013  30.422  21.783  26.340 -0.1006 -0.0530 -0.0539
45961W        W89014   9.652  19.778  22.924  0.0735 -0.0398  0.1702
45962W        W89015   1.169  28.068   4.715 -0.0958 -0.0788 -0.1568
45963W        W89016   2.498   1.183   7.931  0.0532 -0.1310  0.2709
45964W        W89017  33.525  17.329  25.475 -0.1093  0.0916 -0.2070
45965W        W89018  10.860  13.949  15.515 -0.0713  0.6399 -0.1679
45966W        W89019  23.609  29.988  22.606 -0.1939  0.1507  0.5478
45967W        W89020  21.103  10.603   1.117 -0.0090  0.3638  0.3076
45968W        W89021   3.357  19.483   1.217  0.0510  0.0368  0.4079
45969W        W89022  31.585  16.956   0.553 -0.2428 -0.1449 -0.1758
45970W        W89023  34.072  27.266   8.512 -0.1232 -0.1305 -0.1930
45971W        W89024  31.299  28.856  28.985  0.2473 -0.2880  0.2146
45972W        W89025  23.181  23.206   5.643 -0.1836  0.0078 -0.0581
45973W        W89026  24.338  17.420   8.842 -0.0199  0.3133  0.5078
45974W        W89027  22.407  24.582   0.701  0.0643 -0.3136 -0.0804
45975W        W89028   2.914  18.261   5.683  0.0363 -0.0519 -0.2185
45976W        W89029  13.835   6.658  20.384  0.1043  0.0098  0.0728
45977W        W89030   3.379  27.689  26.860 -0.0056 -0.0348  0.2572
45978W        W89031  33.108  13.592   7.174  0.0006 -0.0133  0.0437
45979W        W89032   5.743  12.671  10.374 -0.4698 -0.0113 -0.0041
45980W        W89033  22.575  30.042  17.396 -0.3575 -0.1244  0.1434
45981W        W89034  14.544  11.968   3.119  0.0038  0.0050  0.3352
45982W        W89035  29.088  10.520   7.388 -0.4848  0.2052  0.0071
45983W        W89036   0.328  28.365  23.412  0.1077 -0.0098 -0.2473
45984W        W89037   4.703  28.646   8.489  0.2534 -0.0022  0.0022
45985W        W89038  25.064   2.117   5.083 -0.0953 -0.3130  0.0983
45986W        W89039  33.785  24.252  25.710 -0.1465 -0.2167  0.1453
45987W        W89040   9.091  23.628  17.996 -0.0211 -0.1487  0.0117
45988W        W89041  15.983  23.142  26.583  0.2122 -0.0048  0.1789
45989W        W89042  33.895   8.277  24.656 -0.1627  0.1524  0.1114
45990W        W89043  10.306   9.862   6.746 -0.0059 -0.1779  0.3250
45991W        W89044  34.617   9.231   8.619 -0.0209  0.0298  0.0427
45992W        W89045  19.203  13.889  19.919  0.1131 -0.1356 -0.1427
45993W        W89046  34.592  20.022  21.412 -0.0204  0.2378  0.0231
45994W        W89047   4.211   6.175   7.441 -0.1039 -0.1886  0.0691
45995W        W89048  13.937  11.689  20.224  0.0701  0.3927 -0.1872
45996W        W89049  29.984   2.595   6.609  0.1653  0.3122  0.0502
45997W        W89050  18.569   9.600  18.793 -0.1910  0.2957 -0.1454
45998W        W89051  26.818  17.848   6.889  0.0191  0.3885 -0.0367
45999W        W89052  18.728   8.484   6.691  0.1133 -0.3602 -0.0987
46000W        W89053  31.178  19.616   6.740  0.2451  0.0358  0.1111
46001W        W89054  30.701  15.406   7.274  0.0611  0.1998 -0.2018
46002W        W89055   7.428  14.315  16.721  0.0291 -0.0399  0.1098
46003W        W89056  31.683   1.684  23.401  0.0542 -0.0027 -0.0094
46004W        W89057  25.439   9.621  28.976 -0.2386  0.2347 -0.0900
46005W        W89058  10.031   1.535  25.253  0.1521 -0.3460 -0.0634
46006W        W89059   0.730  33.007  17.752  0.0387  0.3106 -0.0407
46007W        W89060   0.262  31.457   2.280 -0.0752 -0.2108 -0.1727
46008W        W89061  31.187  21.730   0.020  0.2444 -0.0110  0.1975
46009W        W89062  26.339  15.765   4.718 -0.1604 -0.1703  0.1631
46010W        W89063  23.730  31.640  22.297  0.2671 -0.5054 -0.0384
46011W        W89064   7.570   6.792   1.145 -0.1792 -0.0889 -0.0728
46012W        W89065  33.647  12.593  26.437  0.1859 -0.0331 -0.0900
46013W        W89066  30.506  29.909   7.077 -0.3399 -0.0347  0.1806
46014W        W89067  25.962  17.448  27.203  0.0228 -0.0374 -0.1424
46015W        W89068  21.717  12.442   6.184  0.1247 -0.1307 -0.0156
46016W        W89069  25.999  16.002  10.328 -0.1258  0.1310 -0.1213
46017W        W89070   2.397  10.521   0.188  0.0247 -0.2419  0.0665
46018W        W89071   3.610  19.502  21.509 -0.1158  0.0924 -0.1798
46019W        W89072  26.409  15.748  27.491 -0.0187 -0.1956  0.4090
46020W        W89073   7.910  22.454   6.035  0.0594 -0.0349  0.0706
46021W        W89074  33.584  29.876  23.623 -0.1513 -0.3854  0.2923
46022W        W89075   4.152  17.013   6.530  0.1221 -0.3370 -0.0740
46023W        W89076   3.373   9.198  16.826 -0.2090 -0.0039  0.0767
46024W        W89077   8.848   9.523   3.053 -0.2351 -0.1827 -0.1943
46025W        W89078   9.779  26.177  26.012  0.1270  0.0945  0.2469
46026W        W89079  22.286  15.055  21.549  0.1103 -0.0175 -0.1486
46027W        W89080   1.703   7.666   1.387  0.5592  0.3369  0.2331
46028W        W89081  19.574  15.897   3.238  0.0044  0.2545  0.0209
46029W        W89082  19.569  21.240  20.939 -0.2782  0.0495  0.1842
46030W        W89083  16.851  27.595   6.154  0.0783  0.0889 -0.0999
46031W        W89084  34.637  20.461   7.958  0.0318  0.1403 -0.1710
46032W        W89085  25.178   8.015  28.643  0.2356  0.3282  0.1455
46033W        W89086  29.701  17.726  29.158  0.3527  0.1380  0.2028
46034W        W89087  34.312   3.123  27.363 -0.1250  0.0430 -0.1114
46035W        W89088  31.624  27.129  16.705 -0.0841 -0.0121 -0.1866
46036W        W89089  18.378   1.761  21.574  0.0800 -0.2861 -0.2162
46037W        W89090  33.344  25.132   0.940 -0.2581 -0.0135 -0.5790
46038W        W89091  19.230  30.731   1.628  0.1284 -0.0599  0.0414
46039W        W89092  31.064  16.581   2.466  0.2347  0.2023 -0.2017
46040W        W89093   8.321  22.976  25.097 -0.2156 -0.3620  0.1748
46041W        W89094  14.773  14.886   8.967 -0.1042  0.1675  0.2108
46042W        W89095  21.093   4.415   7.887 -0.0358 -0.0479 -0.0397
46043W        W89096  16.128  19.718   7.424  0.0885  0.0695  0.0469
46044W        W89097  14.488   7.746   0.085 -0.2577  0.0383  0.0705
46045W        W89098  25.894  15.048  27.679  0.0751  0.0428  0.1279
46046W        W89099   6.649   3.795   7.717  0.1559  0.0512 -0.1825
46047W        W89100   1.566  29.710   3.896 -0.0248 -0.0980 -0.0899
46048W        W89101  34.222  21.439  17.255 -0.3397 -0.2609 -0.0442
46049W        W89102  25.889  32.273   4.162 -0.1136 -0.0018  0.1490
46050W        W89103  32.105   0.559  24.513  0.1100  0.0384  0.0528
46051W        W89104  21.647  14.175  20.261 -0.3032  0.2800  0.1162
46052W        W89105  26.089  12.911   9.488  0.1288  0.0386 -0.1289
46053W        W89106  31.076  17.528  27.012  0.4819 -0.2007  0.2597
46054W        W89107  21.516   5.942  18.561  0.0693  0.3809 -0.0784
46055W        W89108   0.331  17.621  24.477  0.3209 -0.0804 -0.1848
46056W        W89109  32.710  18.320  25.862  0.1999 -0.1460 -0.0761
46057W        W89110  24.421  14.808   2.313  0.2042 -0.0390  0.0661
46058W        W89111  28.108  11.131   4.314  0.1398  0.4887  0.1910
46059W        W89112  16.894  27.238   6.712 -0.1536 -0.1915  0.1417
46060W        W89113  27.797   7.549  10.583  0.4238 -0.1120 -0.5761
46061W        W89114   7.122  25.139  25.076  0.3502 -0.0074  0.0856
46062W        W89115  27.613  34.480  28.554 -0.1832 -0.0624 -0.0345
46063W        W89116  22.573  22.509  24.986  0.0722  0.0781 -0.0917
46064W        W89117  28.311  14.341  27.468  0.3473  0.2187 -0.1275
46065W        W89118  18.173  11.345   3.706  0.2365 -0.2081  0.0663
46066W        W89119  30.400  13.288   5.335  0.0460  0.1671  0.1229
46067W        W89120  31.837   5.624   9.728  0.0559  0.0522  0.2067
46068W        W89121   1.276   9.188   6.201  0.2557 -0.2302  0.0801
46069W        W89122  20.830  19.402   6.383  0.2828  0.0294 -0.1687
46070W        W89123  32.677  34.685  28.821  0.2817  0.1401 -0.2433
46071W        W89124   7.730   3.835  29.007  0.0524 -0.2155  0.1399
46072W        W89125  26.523  24.795   0.248 -0.0917  0.0700  0.0358
46073W        W89126  28.366  14.149   0.443 -0.0614  0.0891  0.3752
46074W        W89127  30.605  25.049   6.498  0.0787 -0.4575  0.1902
46075W        W89128   4.858   7.676   5.704 -0.3156  0.2963 -0.1117
46076W        W89129  31.832  24.550  15.357  0.1564 -0.0831  0.0228
46077W        W89130  33.961  19.198   4.487 -0.0698  0.0133 -0.0253
46078W        W89131  20.110  28.300  25.114  0.0505 -0.3368 -0.1169
46079W        W89132   3.205  18.187   6.905  0.0754 -0.2603 -0.0970
46080W        W89133  34.621   1.475   6.193 -0.2923  0.0815 -0.1682
46081W        W89134  15.489  16.794   8.906 -0.0063  0.0248  0.3185
46082W        W89135  31.907  12.975  19.126 -0.2802 -0.2768  0.1552
46083W        W89136  28.350  16.492   8.168 -0.0949  0.1280  0.2389
46084W        W89137  21.093  21.883   1.012 -0.3520 -0.1953 -0.2012
46085W        W89138  12.500  19.287  28.075 -0.0600 -0.1445 -0.0318
46086W        W89139  31.617  11.295   1.394  0.2669  0.1255  0.0208
46087W        W89140   0.638  17.459  22.164  0.1111 -0.0708  0.1474
46088W        W89141   1.114  27.545   2.408  0.0757 -0.4117 -0.1531
46089W        W89142  12.098  10.265   3.080  0.0499 -0.2447 -0.0349
46090W        W89143  16.099  25.807  25.750 -0.2062 -0.0769  0.0289
46091W        W89144  20.513  13.841   4.024 -0.0169 -0.0606 -0.1245
46092W        W89145   8.631   3.289  28.136  0.5786 -0.0702  0.2385
46093W        W89146   0.830  23.246  27.429 -0.2275  0.4106 -0.2219
46094W        W89147  20.240   2.177   6.538  0.3769 -0.0471  0.1327
46095W        W89148  16.028  27.378   9.764  0.0355 -0.1857 -0.1551
46096W        W89149   9.912  33.040  22.582  0.0942 -0.2689 -0.1790
46097W        W89150  33.232  10.806  17.286  0.3276 -0.1074 -0.2312
46098W        W89151  10.744  18.900   1.926 -0.1795  0.1170 -0.1873
46099W        W89152  14.419  20.925   0.856 -0.0057 -0.3346  0.1271
46100W        W89153  18.779  23.822   9.426 -0.2855 -0.1210 -0.0263
46101W        W89154  20.266   9.756  10.476 -0.1515  0.0206  0.0528
46102W        W89155  29.787  11.212  23.978 -0.2231 -0.1131  0.3745
46103W        W89156  19.165   8.186  27.654  0.2086 -0.0714 -0.0730
46104W        W89157  33.497   8.450  24.264 -0.0845 -0.0169 -0.0633
46105W        W89158  31.290  14.655  15.795 -0.2447  0.0784  0.3215
46106W        W89159   0.022  23.089  22.254 -0.0593  0.2157 -0.0095
46107W        W89160  23.372  19.680  20.357 -0.4723  0.1142 -0.1456
46108W        W89161   4.264  22.599  26.507  0.0137 -0.1142 -0.1045
46109W        W89162  34.541  16.819  24.451  0.1526 -0.0119 -0.0332
46110W        W89163  24.612  14.470  16.179 -0.0657 -0.2432 -0.0849
46111W        W89164  26.826  20.166  10.280 -0.2010 -0.0574  0.1032
46112W        W89165  32.470   9.300   1.793  0.0442  0.0797  0.0232
46113W        W89166  32.337  15.104   8.665 -0.0076  0.0072  0.0016
46114W        W89167   4.000   9.550  27.200  0.0412 -0.3223  0.1949
46115W        W89168   0.712  30.833  22.794  0.3632  0.1743  0.0704
46116W        W89169  22.275  26.191   9.699  0.1147 -0.3104 -0.0245
46117W        W89170  30.097   8.424   0.032 -0.0060  0.0152  0.0124
46118W        W89171  23.695  21.471  26.076  0.1488  0.2366  0.2568
46119W        W89172   0.456  30.813   0.945 -0.0522  0.1712  0.0176
46120W        W89173   0.164  30.639  24.722 -0.2321  0.1789  0.1632
46121W        W89174  32.501  10.672   6.602 -0.2493 -0.1166  0.1966
46122W        W89175  28.222   4.249  20.960  0.1956  0.3732  0.4112
46123W        W89176  30.064  13.301   8.107 -0.0266 -0.1415  0.1249
46124W        W89177  12.079  16.744   8.267  0.2448  0.0496  0.0603
46125W        W89178  28.235  20.662   2.478  0.2307  0.1759  0.0849
46126W        W89179  26.924   4.172   3.712  0.1136  0.2523 -0.0472
46127W        W89180  25.374   6.645   0.274  0.0968 -0.1540  0.0132
46128W        W89181   0.395  12.416   5.344 -0.1777 -0.1183  0.0739
46129W        W89182  29.093   7.360  28.916  0.0167  0.0574  0.1493
46130W        W89183  27.004  26.779   3.499  0.0098  0.2318 -0.0892
46131W        W89184  32.085  14.651  22.613 -0.1437  0.0773  0.0698
46132W        W89185   2.177  17.641   5.422  0.1870 -0.0157 -0.1749
46133W        W89186   9.428   2.677   4.266  0.2233  0.0928  0.2976
46134W        W89187  24.907  19.500   4.035  0.3263  0.1602  0.3905
46135W        W89188  18.261  13.570   2.295  0.1767  0.0023 -0.0693
46136W        W89189  34.471  22.609   2.535  0.0210  0.3294 -0.0996
46137W        W89190  29.263  16.902   5.876 -0.1515  0.2556  0.1830
46138W        W89191  22.135  20.145  27.199 -0.0477 -0.1529 -0.1279
46139W        W89192   0.958  28.580  23.996  0.2108 -0.2633 -0.4228
46140W        W89193   0.341  34.587  25.725 -0.0653 -0.2367 -0.0078
46141W        W89194  23.520  25.828   5.363  0.0960  0.3045 -0.2102
46142W        W89195   5.990  29.998   4.242 -0.2245 -0.0865  0.0493
46143W        W89196   9.000  19.640  25.947 -0.2850 -0.3453 -0.0982
46144W        W89197   5.219  24.781   5.851 -0.0670 -0.0151  0.2013
46145W        W89198  17.048  14.500   6.453  0.1025 -0.1721  0.5489
46146W        W89199  28.749  21.931   4.259 -0.1301 -0.3626  0.0205
46147W        W89200  19.117  24.654   1.641  0.1456  0.0684  0.1854
46148W        W89201   1.276  20.045  17.624  0.0265  0.0210 -0.0120
46149W        W89202  20.786  13.834   0.400 -0.1040  0.1843  0.0466
46150W        W89203  28.374  19.107   4.036  0.0197  0.1720  0.0873
46151W        W89204  11.959  14.216   5.090  0.4486  0.1458 -0.1174
46152W        W89205   2.143  29.717  19.788  0.2271  0.0079  0.4428
46153W        W89206  34.386  19.553   7.115 -0.0452 -0.0810 -0.1063
46154W        W89207  27.977  15.797   5.028 -0.1037  0.3271  0.1160
46155W        W89208   2.273  12.326   5.211  0.1403 -0.1831 -0.2066
46156W        W89209  32.652   5.875   9.382 -0.3426 -0.1129  0.0861
46157W        W89210  12.987  21.632  19.739  0.0628  0.3607 -0.1318
46158W        W89211  18.249  15.251   6.155 -0.1098 -0.0312 -0.2405
46159W        W89212  26.210  20.960  25.519  0.3242  0.2445  0.1241
46160W        W89213  18.708  27.907   8.347 -0.1239  0.2038  0.4095
46161W        W89214  13.117  25.481   1.618 -0.0420  0.1871  0.2372
46162W        W89215   7.544   3.568   9.778 -0.0542  0.0276 -0.1209
46163W        W89216  19.775  26.319   1.140  0.3651  0.1144  0.0089
46164W        W89217  16.789  14.210   7.038 -0.2201 -0.2220  0.3250
46165W        W89218  25.451   4.616   4.214 -0.5065  0.0169  0.2192
46166W        W89219  21.992  25.724   4.505  0.1039  0.2712  0.1129
46167W        W89220  29.807  30.036   2.520 -0.0290  0.4077 -0.1577
46168W        W89221  30.993  15.266   8.776  0.0326  0.4637  0.0816
46169W        W89222  22.571  13.478  21.709  0.0659  0.1630 -0.1065
46170W        W89223  31.554  16.200   8.505 -0.1103 -0.2067  0.1128
46171W        W89224   2.302  24.080  27.914  0.1094  0.2858  0.0815
46172W        W89225  17.330  24.116  10.054  0.4229 -0.2325  0.0468
46173W        W89226  27.940  23.616   5.085  0.2302 -0.0096  0.0825
46174W        W89227   7.843  20.299   3.086 -0.3669 -0.3600 -0.4018
46175W        W89228  30.094  23.799   8.774 -0.2388  0.0322 -0.3732
46176W        W89229   5.383  17.042   4.610 -0.2996  0.1184 -0.4817
46177W        W89230   1.738  22.120  21.268 -0.0928 -0.3167  0.0984
46178W        W89231  25.773  23.251  24.825  0.4324  0.1277  0.0174
46179W        W89232  10.785   7.030  22.934 -0.0322 -0.1043 -0.1109
46180W        W89233   1.094  27.005   2.378 -0.0216 -0.1533  0.0457
46181W        W89234   8.057  12.979   6.496  0.4296 -0.0472  0.0071
46182W        W89235  20.649   6.799  24.353 -0.2194  0.0551  0.1909
46183W        W89236  28.046  15.216   5.368 -0.0655  0.0420 -0.1190
46184W        W89237  26.612  16.398   5.369  0.1485  0.2942  0.1133
46185W        W89238  24.157   8.566   3.662  0.1238 -0.3217 -0.0671
46186W        W89239   8.090  29.755  16.904  0.3410 -0.0513  0.1417
46187W        W89240   2.391  34.300   5.299 -0.1997  0.4855  0.1769
46188W        W89241  28.200  15.506  28.667 -0.2893  0.1799  0.0946
46189W        W89242  21.901   1.400   4.818 -0.3116  0.2573  0.1254
46190W        W89243   1.027  20.347   6.753  0.0912  0.1918  0.3329
46191W        W89244  17.418  10.869   0.661  0.1080  0.1004 -0.1773
46192W        W89245  20.464  18.167   3.771  0.0717 -0.2399 -0.0629
46193W        W89246  33.823  23.060  28.955  0.5592 -0.0969  0.1185
46194W        W89247  24.318  20.594  10.143  0.0417  0.0009  0.0819
46195W        W89248   1.583  23.851   5.454  0.0705 -0.0910  0.1009
46196W        W89249  33.106  12.721   4.276  0.1596  0.2546  0.0982
46197W        W89250   2.560  11.626  26.882 -0.3009  0.1818  0.1730
46198W        W89251   9.455  18.157  23.757 -0.1183 -0.0055  0.2687
46199W        W89252   9.823  28.716  23.357  0.0802 -0.0664 -0.0694
46200W        W89253  26.537  19.281  21.675 -0.0217 -0.2177 -0.3602
46201W        W89254   5.471  21.868  21.723  0.1770 -0.2402  0.2507
46202W        W89255  19.697  15.354  24.596 -0.1578 -0.1047 -0.0711
46203W        W89256  33.452   8.451   8.747 -0.0553 -0.2157  0.0664
46204W        W89257  29.233  13.682  28.293  0.3613  0.0876 -0.2556
46205W        W89258  28.225   0.564  18.107 -0.0659 -0.2282 -0.1929
46206W        W89259   1.708  16.155   5.470 -0.1158  0.0771 -0.0420
46207W        W89260  34.141  14.333  25.467  0.2831 -0.1193 -0.0921
46208W        W89261  32.225   3.614  20.400  0.0655 -0.3091  0.1927
46209W        W89262  26.571   6.664   9.933 -0.3333 -0.0434 -0.0550
46210W        W89263  22.286  19.317   7.409 -0.2135  0.0609 -0.0619
46211W        W89264  17.825   2.632   2.903  0.2200 -0.1954  0.0733
46212W        W89265  15.947  21.846   4.775  0.0129 -0.2614 -0.2575
46213W        W89266   4.511  33.192   1.407  0.1434 -0.0120  0.0821
46214W        W89267   5.387  13.126   7.529 -0.0203  0.0043  0.0251
46215W        W89268  31.312  24.115   9.343 -0.0891 -0.2452  0.1203
46216W        W89269  22.544   7.724  19.014 -0.3297  0.0669 -0.2124
46217W        W89270  23.448   0.160   3.605  0.0788 -0.1301  0.0264
46218W        W89271  14.033  14.380  21.788 -0.2508 -0.0218 -0.0892
46219W        W89272  21.987   9.950   1.836 -0.1365  0.1817  0.1346
46220W        W89273   7.316   9.096  27.055  0.0130 -0.3552  0.1191
46221W        W89274   6.417  28.353   9.341 -0.0963  0.1163  0.2194
46222W        W89275  26.129  13.397   7.970 -0.0700  0.0471 -0.0487
46223W        W89276  26.996   3.777  26.005  0.3099  0.2803  0.1186
46224W        W89277   3.209  21.956   5.754  0.0445  0.2554 -0.1593
46225W        W89278  26.369  15.925  24.751 -0.0443 -0.0079  0.4234
46226W        W89279  29.344  17.561   6.492  0.1420 -0.0554 -0.0604
46227W        W89280  11.758  32.102   9.268 -0.0609  0.0602 -0.5044
46228W        W89281   5.796   4.318   4.650 -0.3612 -0.1169 -0.0738
46229W        W89282  25.343  11.848   9.101  0.0577 -0.2197  0.1165
46230W        W89283  12.248  13.751   1.134  0.2284  0.0407  0.2750
46231W        W89284   6.343  28.641  18.090 -0.0415  0.0987 -0.1687
46232W        W89285  25.585  33.494   5.349 -0.1826  0.3175  0.0022
46233W        W89286   8.138  27.181   0.359 -0.0465  0.1106 -0.0600
46234W        W89287  24.343  11.935   5.978  0.2594 -0.2594 -0.0464
46235W        W89288  28.216  18.431   1.066 -0.1031 -0.2046  0.0383
46236W        W89289   3.515  10.222   3.395 -0.0621  0.0001  0.0266
46237W        W89290  18.912  24.435  26.572  0.0034  0.1499 -0.0145
46238W        W89291   0.166  23.087   4.660  0.1279  0.3351 -0.0772
46239W        W89292  28.809  12.125  17.377 -0.2167 -0.1606 -0.2306
46240W        W89293  31.394  21.721   5.170 -0.1639 -0.1044  0.0617
46241W        W89294  24.083  17.663  25.184 -0.3952 -0.0337  0.2517
46242W        W89295   1.688  22.731  25.847 -0.0180  0.2530  0.1911
46243W        W89296  31.213  26.292  25.033  0.2458 -0.2432 -0.0494
46244W        W89297  34.129  16.187   8.188 -0.2319 -0.0072  0.3980
46245W        W89298   1.857  19.125  28.855 -0.0717 -0.2193 -0.2713
46246W        W89299   3.822  16.854   5.533  0.0624  0.0530 -0.3871
46247W        W89300  30.263   6.557   8.256 -0.0878 -0.0093  0.2117
46248W        W89301  22.279  12.515  24.909 -0.3308  0.0704  0.2265
46249W        W89302   1.070  33.534   1.662  0.1486 -0.1291  0.2205
46250W        W89303  29.045   8.583   7.761  0.1575  0.0912 -0.5134
46251W        W89304   0.771  15.795   6.642  0.1608  0.4308 -0.0284
46252W        W89305  32.288  13.619  25.012 -0.1698  0.0204 -0.0643
46253W        W89306   3.538  27.664  23.071  0.0516 -0.0691  0.0371
46254W        W89307  15.532  11.797   4.067 -0.1115  0.0076 -0.0963
46255W        W89308  30.200  22.169   8.831  0.0448 -0.4684 -0.5695
46256W        W89309   8.405   0.372   7.056 -0.2681 -0.1424  0.2199
46257W        W89310  26.955  20.514   9.264 -0.1172  0.1575  0.1278
46258W        W89311  28.373  32.830  18.518  0.3450  0.1421 -0.0272
46259W        W89312   4.363  12.701  28.722  0.1579 -0.1367 -0.3152
46260W        W89313   5.020  17.920   6.175 -0.1857  0.0743  0.1325
46261W        W89314  21.668  15.056  26.934  0.2299 -0.2269 -0.2743
46262W        W89315  17.493  13.662   6.354 -0.2599  0.1559 -0.3635
46263W        W89316  24.671  20.675   4.664  0.1218  0.0424  0.1470
46264W        W89317   0.676  12.510   7.245  0.1661 -0.0364 -0.1228
46265W        W89318  24.258  20.139   7.832 -0.3814 -0.1228 -0.2644
46266W        W89319  16.136  16.337   8.584  0.1344  0.0874  0.2047
46267W        W89320  11.118  15.036  22.884 -0.2638  0.0865  0.0576
46268W        W89321  13.351  23.622   5.694 -0.3100 -0.0715  0.1976
46269W        W89322  33.847  32.261   7.787 -0.1228  0.3043  0.0138
46270W        W89323  23.658  19.805   6.591 -0.2313 -0.2146 -0.0540
46271W        W89324  27.071  25.354   9.487  0.2563 -0.0821 -0.1352
46272W        W89325  31.975  24.729  18.211  0.2624 -0.4829 -0.1782
46273W        W89326  15.977  16.512  14.497 -0.2322 -0.3294 -0.0468
46274W        W89327  24.907  23.089  21.977  0.1049 -0.1532  0.0266
46275W        W89328  11.263  29.556  17.032  0.2079 -0.4999 -0.1494
46276W        W89329  32.660  24.809  27.665 -0.2552  0.2174 -0.1163
46277W        W89330  21.059  13.620  26.967  0.2240  0.1225 -0.0886
46278W        W89331   9.406   9.142   7.436  0.1905 -0.2439 -0.1598
46279W        W89332  26.053  18.947   8.449 -0.1343  0.1103 -0.4379
46280W        W89333   8.912  21.581  24.756 -0.1411  0.0645  0.3716
46281W        W89334  24.265  25.953   0.495 -0.1304 -0.1295 -0.1551
46282W        W89335   9.404  12.705   1.269 -0.0513 -0.0406 -0.0180
46283W        W89336  30.533  17.456   1.467  0.2515 -0.3687 -0.2207
46284W        W89337  23.938   8.856  23.405 -0.1187  0.2265 -0.0678
46285W        W89338   4.525  18.680  18.054  0.0469  0.1069 -0.4060
46286W        W89339   1.228  15.554   1.870  0.2822  0.0369  0.0527
46287W        W89340  24.201  11.516   0.547 -0.0897 -0.1101 -0.2154
46288W        W89341  27.214  21.982   6.280  0.0922  0.1223 -0.0408
46289W        W89342  18.007   0.589  10.129  0.1062 -0.1935 -0.0908
46290W        W89343  30.761  12.185   2.558  0.3198 -0.0372  0.1402
46291W        W89344  34.583  14.262  24.597  0.0574  0.1373 -0.0153
46292W        W89345  25.153  14.632   5.040  0.0083  0.2082  0.1633
46293W        W89346  33.343   9.491   5.994  0.1021 -0.0464 -0.2872
46294W        W89347  33.419  18.981   1.873 -0.0264 -0.1216 -0.1505
46295W        W89348   2.535  31.351  27.270 -0.1748  0.0414 -0.0769
46296W        W89349  33.780  25.855  25.775  0.1042 -0.0742 -0.1977
46297W        W89350   6.512  20.579  20.217 -0.3127 -0.2197 -0.2061
46298W        W89351  28.171  26.823  10.240 -0.0896  0.2622 -0.1832
46299W        W89352  30.930  15.352   5.062  0.0441 -0.3815 -0.3188
46300W        W89353  21.304   5.829   4.161 -0.0342  0.0594  0.4150
46301W        W89354  19.297  15.470  24.904 -0.0982 -0.0585 -0.1049
46302W        W89355  22.744  19.725   3.920 -0.1509 -0.3368 -0.0291
46303W        W89356  25.704  29.536  20.077  0.0077 -0.0748  0.1664
46304W        W89357  23.032  17.688   7.353 -0.2742 -0.0259  0.1779
46305W        W89358  25.872  14.435  25.848  0.0010  0.1133 -0.1449
46306W        W89359  13.605  17.410  23.676 -0.1185 -0.0863 -0.3072
46307W        W89360  18.750  20.806   4.983  0.0892  0.1532 -0.1705
46308W        W89361  32.148  28.274   5.987  0.0847 -0.2012  0.0782
46309W        W89362  27.317  32.308   5.919  0.1175  0.0746  0.2090
46310W        W89363  23.340  30.306   3.118  0.1679 -0.1835 -0.1145
46311W        W89364  10.751  31.541  20.567 -0.0106  0.2592 -0.3084
46312W        W89365  34.325  15.056   8.587  0.1845 -0.0388  0.0946
46313W        W89366  18.680  18.404   1.357 -0.2238 -0.0254 -0.2064
46314W        W89367  19.834  22.225   8.736  0.0738 -0.0542 -0.2169
46315W        W89368  20.572   3.279  24.463  0.2379 -0.1598  0.1737
46316W        W89369  30.433  19.525   4.559  0.0128  0.1156  0.2100
46317W        W89370  26.833  19.872  25.687 -0.0017  0.0193  0.0333
46318W        W89371  25.933  16.628  27.494  0.0686  0.1026  0.3788
46319W        W89372  10.502  22.335   4.005 -0.0975  0.0610  0.2183
46320W        W89373   3.610   0.070   6.503  0.2094  0.0373 -0.2464
46321W        W89374  27.175  13.651  28.853  0.1172 -0.3241 -0.0916
46322W        W89375  31.298  17.456   0.843  0.2158  0.1428 -0.2601
46323W        W89376  26.226  21.386  28.881 -0.0906 -0.0071 -0.5501
46324W        W89377   9.990   6.217   2.603 -0.2278  0.3795 -0.1729
46325W        W89378   3.928  28.662   5.603 -0.0530  0.0076  0.1135
46326W        W89379  16.661  29.208   5.813  0.0146 -0.1359 -0.1562
46327W        W89380  20.686   5.765   4.127 -0.4408  0.0743  0.2090
46328W        W89381  30.824  11.708  25.344  0.0101  0.2893 -0.0812
46329W        W89382  23.452  24.608   3.267 -0.3634 -0.2476 -0.2183
46330W        W89383  19.925  23.462   7.151  0.0599  0.0755  0.1892
46331W        W89384   1.498  21.688  17.901 -0.2651 -0.0957  0.3987
46332W        W89385  31.953  34.346   8.051  0.0923  0.0960 -0.1475
46333W        W89386  19.745  20.925  29.071 -0.0037 -0.0558  0.1943
46334W        W89387  27.112  26.335   3.199 -0.3400 -0.4633 -0.4675
46335W        W89388  10.251  27.964   2.344 -0.1911 -0.0136 -0.1258
46336W        W89389  29.968  11.588   4.729  0.0244 -0.2467  0.1353
46337W        W89390   0.052  14.475  18.180  0.1346 -0.5484 -0.1277
46338W        W89391  31.648  12.093   3.116  0.1103 -0.3408  0.0916
46339W        W89392  32.809  24.189   5.450  0.2507  0.3776 -0.0276
46340W        W89393  34.528  24.384   0.027  0.3988  0.1407 -0.1061
46341W        W89394  13.781  21.767  25.935 -0.1436  0.0789 -0.4865
46342W        W89395  30.433  29.075  22.433 -0.0621 -0.4187  0.0876
46343W        W89396   8.403   7.183   5.750  0.2921 -0.1120 -0.0293
46344W        W89397  31.049  22.569   0.688  0.1134 -0.1319  0.1859
46345W        W89398  16.347  27.800  22.205  0.1423 -0.1095  0.0703
46346W        W89399  27.669  22.270   7.275 -0.0073  0.2880 -0.2589
46347W        W89400   6.104  25.456  14.827 -0.3772 -0.1375 -0.0214
46348W        W89401   5.157  11.679   9.464  0.3053  0.1345 -0.1615
46349W        W89402  16.371  27.626  28.194 -0.2792  0.0974  0.4564
46350W        W89403  17.274  14.099   6.565 -0.4362  0.3569  0.1079
46351W        W89404   6.602  19.542  19.387  0.1377  0.5328 -0.1476
46352W        W89405  19.585   0.982  14.946 -0.1492 -0.3059 -0.1375
46353W        W89406  30.023  17.549   7.236  0.0076  0.0748  0.0322
46354W        W89407  12.482   4.550   2.934  0.0354 -0.1095 -0.2768
46355W        W89408  32.471   6.816   5.260  0.0169 -0.0098 -0.1486
46356W        W89409  24.375  14.606  18.234 -0.1669  0.0796 -0.3410
46357W        W89410  31.546  33.745   0.367 -0.1909 -0.1648 -0.0032
46358W        W89411  31.416  23.260   8.511 -0.2783  0.0621 -0.1271
46359W        W89412  29.163  22.867   6.045  0.0965  0.0158 -0.3353
46360W        W89413   2.783  21.435   2.325  0.0776 -0.0207 -0.0845
46361W        W89414  26.742  19.137  18.706  0.0053  0.2505  0.2609
46362W        W89415  20.350  24.904   6.472  0.0615 -0.3414  0.2280
46363W        W89416  26.586   4.331   3.239  0.1232 -0.3088  0.2209
46364W        W89417  30.271   4.022   6.226  0.0951  0.1054  0.3988
46365W        W89418  28.932  32.371   2.610  0.0338 -0.0697  0.1923
46366W        W89419  11.709  14.323   8.137 -0.1208 -0.4300 -0.1345
46367W        W89420   9.936  22.631   5.387  0.1560  0.1810  0.0974
46368W        W89421  26.409  21.915   3.643  0.0768 -0.2298 -0.0665
46369W        W89422  31.017  20.337   8.927  0.3743 -0.0424 -0.1081
46370W        W89423   0.177   2.968  27.119  0.0536 -0.2624 -0.2904
46371W        W89424  18.238  23.261   5.753  0.0322  0.1759 -0.1323
46372W        W89425  29.320  20.241  27.885  0.1190  0.1371 -0.1149
46373W        W89426  20.246   7.144   2.347  0.3951  0.1930  0.1056
46374W        W89427  32.409   8.734   7.473 -0.1075 -0.1834  0.2108
46375W        W89428   5.315  17.707   7.632  0.1278  0.1584 -0.1370
46376W        W89429  15.615   3.856  24.976  0.1868  0.0767  0.1113
46377W        W89430  31.600  18.863   4.200 -0.4044 -0.0274  0.1739
46378W        W89431  29.867   9.461   2.295 -0.0464 -0.3275  0.2656
46379W        W89432   7.434  23.567   6.268  0.0486 -0.1280  0.2087
46380W        W89433  22.929  17.900   4.624 -0.1066 -0.2198 -0.0146
46381W        W89434  23.001   2.850   6.830  0.0727 -0.0385 -0.0873
46382W        W89435  31.110   9.389  16.911 -0.2786  0.1381 -0.0428
46383W        W89436  31.306  26.080  19.681 -0.2153 -0.4606  0.1168
46384W        W89437   5.283  18.153   5.297 -0.2716 -0.2976 -0.0959
46385W        W89438  26.599  20.645   9.638  0.2042  0.1484  0.0106
46386W        W89439  34.296  31.934  10.012  0.1392 -0.0394 -0.1399
46387W        W89440  24.374  29.954   1.130 -0.0242  0.0693 -0.0097
46388W        W89441  28.201  22.430   3.823 -0.1379 -0.4237 -0.4095
46389W        W89442  15.283  15.242   4.297 -0.1833 -0.0454  0.0271
46390W        W89443  32.789  10.819   6.163 -0.0627 -0.2813  0.2311
46391W        W89444  10.574  20.134   4.666 -0.0183 -0.0281 -0.3574
46392W        W89445  31.210  18.348  18.484  0.0208  0.0123  0.3713
46393W        W89446  25.258  31.918  15.706  0.0520 -0.0490  0.0137
46394W        W89447  11.875  16.706  15.923  0.0221 -0.3179  0.0991
46395W        W89448  22.760  20.699   0.368 -0.0064  0.4318  0.0626
46396W        W89449  24.924  22.016   4.922  0.0491  0.0450 -0.0903
46397W        W89450  26.870  21.591  10.088  0.2852  0.1394  0.1776
46398W        W89451   0.628  17.880   8.956 -0.1118 -0.2025  0.2054
46399W        W89452  33.287  22.867   5.674 -0.1378 -0.2338 -0.0440
46400W        W89453  21.035  20.703   6.906  0.0064 -0.1279 -0.1036
46401W        W89454   6.535  17.413   5.669  0.0796  0.1402  0.0129
46402W        W89455  29.357   9.463   5.394 -0.1288 -0.2142 -0.1712
46403W        W89456   3.262   8.533  24.912  0.0783  0.1687 -0.1336
46404W        W89457  18.005  20.960  26.361 -0.0399 -0.3257 -0.2640
46405W        W89458  34.430  13.475   5.211 -0.0851  0.1142 -0.0419
46406W        W89459  25.166  22.980   9.659 -0.0380 -0.0310 -0.0647
46407W        W89460  29.904  29.456  22.555 -0.1017 -0.0223 -0.1131
46408W        W89461  25.360  19.667   6.556  0.1490  0.1013  0.1137
46409W        W89462  33.252  10.174  27.565 -0.1224 -0.2729 -0.3301
46410W        W89463  10.531  26.852   7.512 -0.3560  0.1373 -0.2296
46411W        W89464   0.156  25.945   5.701 -0.0817 -0.1672  0.2816
46412W        W89465  22.459  16.478  24.033  0.3239  0.2238  0.0322
46413W        W89466  21.067  24.424  28.799 -0.0339 -0.2516  0.0731
46414W        W89467   7.828  17.822   6.218  0.2340 -0.1533 -0.0944
46415W        W89468   4.541  24.860   7.097  0.0927 -0.1524 -0.2568
46416W        W89469  28.391  19.030   7.381  0.1346 -0.1838  0.0918
46417W        W89470  20.125  15.344   0.574  0.0439  0.0109  0.0684
46418W        W89471  27.231  22.864   9.315 -0.0350  0.1405  0.0793
46419W        W89472  19.777  26.061  26.694 -0.0872  0.1727  0.1158
46420W        W89473   8.189  25.651   5.879 -0.2557 -0.1731  0.2429
46421W        W89474  25.556  34.311   6.281  0.4767  0.1519 -0.1504
46422W        W89475  20.596  19.827  25.286  0.1782 -0.2351  0.0710
46423W        W89476  34.620   9.852  20.573 -0.0302  0.3198  0.2006
46424W        W89477   9.352  29.247   3.815 -0.0613 -0.1687 -0.1924
46425W        W89478   0.111  23.585  28.512  0.0957 -0.4703  0.1106
46426W        W89479   1.566  32.234   9.200 -0.0028 -0.0946 -0.0723
46427W        W89480  18.577  19.573   9.730  0.0510  0.0247  0.4158
46428W        W89481  19.424   8.286   1.864 -0.0502  0.1673 -0.1289
46429W        W89482   9.084  21.432   8.943  0.2146 -0.1593 -0.2953
46430W        W89483  31.762  22.130   5.026  0.2883 -0.0788  0.0645
46431W        W89484   2.352  12.633   3.313  0.1145 -0.1950 -0.0599
46432W        W89485  27.134  32.099  20.255 -0.2956  0.0792 -0.1770
46433W        W89486  29.692   6.391   4.356 -0.2318  0.0099  0.1075
46434W        W89487  26.020  15.789  27.138  0.1706  0.2263  0.0565
46435W        W89488  31.820  29.327  29.026 -0.2712 -0.4078  0.1347
46436W        W89489  12.458  19.480  18.386  0.1298  0.0016 -0.0300
46437W        W89490   2.920  12.448   4.536  0.0686 -0.1182  0.0192
46438W        W89491  17.834  21.536   5.067 -0.0208 -0.2136 -0.1986
46439W        W89492  20.475  18.899  21.214  0.2065  0.2121 -0.1652
46440W        W89493  29.956  19.562   2.855 -0.2607  0.0015  0.3208
46441W        W89494  32.287  34.395  14.125 -0.0660  0.2214  0.0194
46442W        W89495  27.328   9.307   6.417  0.1087 -0.1531  0.1676
46443W        W89496  13.314  11.889   1.051 -0.0188  0.1490  0.0589
46444W        W89497   1.698  15.654  17.068  0.1396  0.0386  0.1601
46445W        W89498  10.423  33.922   1.495  0.0447  0.1350 -0.0982
46446W        W89499   0.762  19.810  27.922  0.1180 -0.0316  0.1646
46447W        W89500  30.155   1.115  10.067 -0.0210  0.0129  0.1456
46448W        W89501  31.609  33.995   8.014 -0.1296  0.1289 -0.2403
46449W        W89502  29.157  13.514   9.658  0.0249  0.3231  0.1094
46450W        W89503   1.118  27.223  23.636  0.0188 -0.4110  0.0430
46451W        W89504  20.952  31.129   4.453 -0.0687  0.1335  0.0912
46452W        W89505  22.046  17.791   5.471  0.0196  0.0799 -0.0180
46453W        W89506  27.368  25.359  26.536 -0.0681 -0.2161  0.1711
46454W        W89507  24.745  25.928   6.027 -0.1209  0.1518 -0.0016
46455W        W89508  24.638  13.908  26.994  0.0297  0.2893 -0.3213
46456W        W89509  26.776  31.153  27.000  0.1486  0.0033 -0.2273
46457W        W89510  23.455  31.393   9.613  0.1406  0.4021  0.3380
46458W        W89511  18.402  13.374   7.384 -0.1258  0.0118  0.3604
46459W        W89512  30.187  14.328  25.786  0.2534 -0.1005 -0.2531
46460W        W89513   2.400  22.217   1.744 -0.2296  0.0808 -0.0056
46461W        W89514  32.482  31.019   7.928  0.0678 -0.0485 -0.0730
46462W        W89515   1.585  17.841  22.088  0.1161  0.0473 -0.2270
46463W        W89516  30.754  31.766   7.345 -0.1705 -0.1029  0.0182
46464W        W89517  32.421  24.269  16.001  0.2539 -0.5268  0.3244
46465W        W89518  13.837  30.051   7.385 -0.1612 -0.1188 -0.0679
46466W        W89519  10.359  23.633   9.657  0.0424  0.1722  0.1151
46467W        W89520  20.736  29.882   8.158 -0.3152 -0.1247 -0.4307
46468W        W89521  32.220  23.417   5.167 -0.1628 -0.0633  0.0215
46469W        W89522  11.643  23.734  25.844 -0.0430  0.1014  0.0199
46470W        W89523  22.433  16.507   2.090 -0.1425  0.0184  0.1580
46471W        W89524   4.354  15.549   7.019 -0.0626 -0.0837  0.0715
46472W        W89525   2.428  21.006   4.337 -0.2291 -0.2699  0.2706
46473W        W89526  17.316  17.913   5.601  0.1327 -0.0714 -0.0366
46474W        W89527   5.001  28.877   7.511  0.0132 -0.0174  0.0770
46475W        W89528   9.559   5.485   1.805 -0.0048  0.1009  0.2905
46476W        W89529  16.324  15.778   9.621  0.1294 -0.0226 -0.3095
46477W        W89530  19.054  21.359  21.867  0.1754 -0.2363 -0.2256
46478W        W89531  34.242  24.488  21.750 -0.0168 -0.0832  0.0491
46479W        W89532  25.723  11.603   5.300 -0.2099 -0.0475 -0.1219
46480W        W89533  32.031  16.115  24.197  0.1173  0.1547  0.1202
46481W        W89534  22.458  23.981   4.897 -0.1791 -0.0946  0.0141
46482W        W89535  21.332  15.937  27.015  0.0804 -0.1093 -0.1591
46483W        W89536  26.970  18.591   3.910 -0.2644  0.1091 -0.1038
46484W        W89537   4.906  29.054  28.138 -0.5673 -0.2068  0.1260
46485W        W89538   1.014  16.528  14.529 -0.1382 -0.0528  0.2124
46486W        W89539   4.895  21.890   3.333 -0.3303  0.1154 -0.0212
46487W        W89540  14.503  30.230   5.136 -0.0351 -0.3247  0.2425
46488W        W89541  22.514   2.439   2.192 -0.2786 -0.2227 -0.3907
46489W        W89542   2.055   1.637   4.330 -0.3283  0.3990  0.1622
46490W        W89543   6.794   4.284   4.881  0.0378  0.0618 -0.1240
46491W        W89544  27.947  28.373   5.137 -0.1311 -0.0440  0.1601
46492W        W89545  31.507  31.590  10.025  0.0547  0.1123  0.0309
46493W        W89546   6.723  30.129  27.918  0.1609 -0.0682 -0.1318
46494W        W89547   2.329  30.366   0.679  0.0819  0.2176  0.3627
46495W        W89548  26.808  21.747   4.941  0.4385 -0.1152  0.0915
46496W        W89549  10.107  12.128  27.312 -0.3502  0.0605 -0.0005
46497W        W89550   0.485  22.362   7.473  0.0019 -0.1482  0.0181
46498W        W89551   1.166   2.166   6.443  0.3668 -0.2116  0.0276
46499W        W89552  31.048   6.020   8.635 -0.0872  0.2765 -0.2101
46500W        W89553  24.835  13.354  26.054  0.0665 -0.0633 -0.2731
46501W        W89554   2.245  27.231  24.513  0.1818  0.4700  0.1227
46502W        W89555  32.680  27.517   9.729  0.3129  0.0043 -0.0050
46503W        W89556  23.873  27.678   5.682 -0.0132  0.1137  0.1258
46504W        W89557  34.084  31.453  28.599  0.2618  0.0644 -0.0752
46505W        W89558   8.155  31.644  23.933 -0.1591 -0.0401 -0.0319
46506W        W89559  19.485  17.294  14.574 -0.1162 -0.2961  0.2000
46507W        W89560  24.892  17.079   8.143 -0.0582  0.0533 -0.0442
46508W        W89561   4.563  11.412  25.248  0.2188 -0.0094 -0.1098
46509W        W89562  31.401  19.136   9.388  0.3548  0.1358 -0.1234
46510W        W89563  25.129  19.204   3.308  0.2158  0.3321  0.0570
46511W        W89564   2.334  15.148   7.626 -0.0436 -0.1247 -0.1926
46512W        W89565  34.552  13.612   5.768 -0.4268  0.2614 -0.0069
46513W        W89566   1.677   9.665  19.695  0.0609 -0.4424  0.1000
46514W        W89567  22.401  18.027   3.923 -0.1507 -0.0231  0.0415
46515W        W89568  19.575  24.880   6.877  0.1580  0.0307  0.1811
46516W        W89569   7.811   8.145   5.097  0.1914  0.0625  0.0942
46517W        W89570  28.646  24.732   5.739  0.3869 -0.3223 -0.0552
46518W        W89571   8.835   6.571   7.486  0.1805  0.1842  0.1690
46519W        W89572   8.990  27.117  15.762  0.3271 -0.0672 -0.2453
46520W        W89573  24.368  23.077  22.666  0.1456 -0.0891  0.0280
46521W        W89574  34.461  23.776   9.454  0.1020 -0.0131 -0.2467
46522W        W89575   8.685  14.050   1.529  0.2327 -0.0002 -0.1392
46523W        W89576  26.686  26.479   5.726  0.1682  0.1861 -0.2110
46524W        W89577  29.762  24.925  10.390  0.1314 -0.2631 -0.1545
46525W        W89578   2.602  14.101   6.229  0.1292 -0.1411  0.1710
46526W        W89579  23.101  19.876  19.356 -0.2978 -0.0856 -0.0155
46527W        W89580   0.394  21.446   8.255 -0.2158  0.0330  0.2862
46528W        W89581  28.276   9.845   2.808  0.1386 -0.0984  0.0927
46529W        W89582  23.790  29.479  28.520  0.0620  0.2532  0.4764
46530W        W89583   0.833   4.948   9.381  0.2753  0.1204 -0.1030
46531W        W89584  20.356   5.963  26.591 -0.1798 -0.0059 -0.0462
46532W        W89585   4.097  25.850   1.820  0.1868 -0.0141  0.0192
46533W        W89586  29.794  17.203  25.183 -0.2613 -0.2614 -0.1308
46534W        W89587  30.420  22.573   2.333 -0.1994  0.2237  0.0551
46535W        W89588   0.934   9.501  27.842 -0.2203 -0.1510  0.0988
46536W        W89589  13.566  24.240  27.172 -0.0533 -0.0790 -0.1412
46537W        W89590  28.234   5.353   7.000 -0.0710  0.0492  0.0831
46538W        W89591  16.938  26.018  29.104 -0.0021  0.1158  0.0949
46539W        W89592  22.027  22.382  10.360 -0.0121 -0.1824 -0.2554
46540W        W89593  32.554  22.852   5.692  0.0536  0.0043 -0.2671
46541W        W89594  31.315  17.252  26.161 -0.3127  0.2165  0.1046
46542W        W89595  33.578  13.070   1.747  0.0150  0.2480 -0.3393
46543W        W89596  28.863   9.418   4.846  0.3081 -0.2812 -0.1292
46544W        W89597  23.303   1.033  24.090 -0.1200 -0.0812  0.1185
46545W        W89598  27.557  29.905  28.936 -0.0786 -0.0730  0.1935
46546W        W89599  25.841  19.980  27.940 -0.1616  0.0073  0.1114
46547W        W89600   5.241  12.578  20.514 -0.1169  0.1562  0.0668
46548W        W89601  29.160  27.905  22.380  0.4099  0.1236 -0.0194
46549W        W89602  30.140  27.164   8.499  0.2425 -0.0740 -0.0138
46550W        W89603  30.922  24.601   7.418 -0.2353  0.3952 -0.4084
46551W        W89604   5.685  23.571  19.359  0.3174 -0.0620  0.1519
46552W        W89605  29.167  25.028   5.919 -0.0243 -0.2552  0.0613
46553W        W89606   0.144  10.556   9.398 -0.0792  0.0777 -0.0464
46554W        W89607  14.238   7.124   9.496  0.1212 -0.2812 -0.1535
46555W        W89608  25.032  10.846  24.630 -0.0625 -0.2418  0.1573
46556W        W89609  20.749   2.762  25.953  0.2027 -0.2529  0.0897
46557W        W89610   2.851  33.795  25.973 -0.1216 -0.0325  0.0979
46558W        W89611  14.367  15.401   5.922  0.0191  0.2027  0.0149
46559W        W89612  33.016  12.995  26.797  0.4111 -0.0363 -0.0049
46560W        W89613  18.984  13.325  21.232  0.1392  0.0486 -0.0020
46561W        W89614   2.976  19.873   4.923  0.5542  0.0226 -0.3451
46562W        W89615   9.453  10.967   9.554  0.2894  0.1799  0.1336
46563W        W89616  26.701  17.104   8.778  0.0177  0.4993 -0.0877
46564W        W89617  30.816  16.564   3.951  0.0589  0.0892  0.1189
46565W        W89618   3.795  26.444  24.320 -0.0021  0.4073  0.0668
46566W        W89619   3.511   4.649   2.511 -0.0147 -0.3442 -0.2328
46567W        W89620  26.125  21.542   9.349  0.3114  0.2441  0.2266
46568W        W89621  25.413  19.074  22.791 -0.3296 -0.2636 -0.1439
46569W        W89622  28.842  24.340   1.312 -0.2853  0.0181  0.1449
46570W        W89623   3.320  21.496   6.181  0.1638 -0.2159 -0.0870
46571W        W89624   7.237  16.418   7.961  0.0335  0.3100 -0.1517
46572W        W89625   5.745  32.041   8.026 -0.0600 -0.1341 -0.2420
46573W        W89626  21.076   6.207  20.036 -0.1145  0.3168  0.2131
46574W        W89627   7.328  10.281  24.666  0.0210  0.3229  0.1742
46575W        W89628   8.449  23.218   8.296  0.2160 -0.0057  0.0985
46576W        W89629  25.504  23.794  26.148  0.1450 -0.2439 -0.0303
46577W        W89630  25.793  33.921   8.095  0.0380  0.1894  0.0540
46578W        W89631  18.861  17.477   6.781  0.3668 -0.3019 -0.1616
46579W        W89632  32.253  22.945  23.731 -0.1500  0.1780  0.4277
46580W        W89633  33.350  32.558   8.082  0.1234  0.1100 -0.0194
46581W        W89634  24.768   1.710   6.654 -0.0455 -0.1987 -0.0454
46582W        W89635  26.718   7.471  10.219 -0.2316 -0.1212 -0.1245
46583W        W89636  27.011  25.362  28.462  0.1247  0.1069 -0.1249
46584W        W89637   3.303  15.636  28.094 -0.1247  0.2499  0.2089
46585W        W89638  21.737  30.641   4.185 -0.1733 -0.3507  0.1072
46586W        W89639  33.320  18.433   6.308 -0.0603  0.1928 -0.3311
46587W        W89640  27.133  11.765  24.005 -0.3938  0.0670 -0.2370
46588W        W89641   3.857  19.871  28.793  0.0329  0.4360 -0.2674
46589W        W89642  11.623   3.029   5.916  0.0397 -0.2151 -0.0702
46590W        W89643  24.844   7.939   8.384  0.0072  0.1333 -0.0826
46591W        W89644  19.137  16.153   9.356  0.1158 -0.1693  0.0538
46592W        W89645  16.104  18.587  28.751  0.0526 -0.1526  0.0113
46593W        W89646   7.006  32.697   2.475  0.3969 -0.0568  0.1554
46594W        W89647  33.020  33.876   4.042 -0.2284 -0.3647  0.0459
46595W        W89648   1.411  27.103   4.675 -0.0735 -0.2083  0.1219
46596W        W89649  16.217  14.751   7.145 -0.0359  0.0643  0.2569
46597W        W89650  22.703  29.858   5.902 -0.3953  0.0656  0.0112
46598W        W89651  30.474   8.349  28.811  0.0768 -0.0831  0.1227
46599W        W89652  32.170  23.142   0.226  0.2573  0.0230  0.1307
46600W        W89653  21.994  17.376  25.485 -0.0900  0.0067  0.0637
46601W        W89654  28.405  22.649   5.612  0.3114 -0.0735  0.2873
46602W        W89655  33.587  24.470   8.381 -0.2549 -0.0062  0.0910
46603W        W89656  34.456  28.831   2.103  0.0278 -0.3290  0.0662
46604W        W89657  27.588  23.435   7.653  0.2034  0.0530 -0.0747
46605W        W89658  30.315  25.031   9.460 -0.2158  0.0768 -0.1376
46606W        W89659  33.071  22.957   8.998  0.0060 -0.3464  0.0029
46607W        W89660  16.756   8.634  10.870  0.1345  0.2692  0.2718
46608W        W89661   3.684  19.507   5.926 -0.1263  0.0156 -0.0496
46609W        W89662  24.749  29.789   6.939  0.0907  0.0016 -0.1365
46610W        W89663  31.622  12.028   2.124 -0.0943 -0.0640  0.0044
46611W        W89664  26.833  20.071   1.072 -0.1676 -0.2091  0.0349
46612W        W89665  16.505  16.386   3.848  0.1207  0.0364  0.2010
46613W        W89666  24.386   4.365  27.238 -0.0794 -0.0904 -0.0773
46614W        W89667  24.527  18.883  27.598 -0.0131 -0.0956  0.0646
46615W        W89668   2.608  28.617   7.431 -0.1239 -0.0952  0.0863
46616W        W89669  21.436   4.146   9.440  0.0387 -0.0824  0.2885
46617W        W89670   6.913  24.140   0.941 -0.0579 -0.4504  0.0402
46618W        W89671  29.957  16.925   2.081  0.4759  0.1602  0.0958
46619W        W89672  25.570  17.410   1.818 -0.2606 -0.0365 -0.0692
46620W        W89673  34.437  19.145  25.146 -0.3486  0.4507 -0.1805
46621W        W89674  20.297  19.203  21.591 -0.0341 -0.1082  0.0298
46622W        W89675  26.297  24.965  28.430  0.1559 -0.0637  0.1066
46623W        W89676   2.292  20.241   6.249  0.0109  0.2365  0.1361
46624W        W89677  28.063  33.668   7.331 -0.1566 -0.1932 -0.1665
46625W        W89678  31.812  16.157  27.045 -0.2223 -0.0791  0.0541
46626W        W89679  29.790  15.717   7.545  0.2717 -0.3622 -0.0577
46627W        W89680  15.699   9.774   5.758  0.1078 -0.0532 -0.0838
46628W        W89681  22.591  28.057  27.411 -0.0214 -0.1666 -0.0336
46629W        W89682  22.344  12.429   9.204  0.1856 -0.3616  0.2208
46630W        W89683   9.134  33.369   8.849 -0.1911 -0.7467  0.1498
46631W        W89684  16.923  26.206   9.184  0.1911 -0.0806  0.0620
46632W        W89685  30.029  19.492  21.602 -0.1139 -0.4948 -0.0167
46633W        W89686   1.499  29.550   8.158  0.2117 -0.3491  0.3208
46634W        W89687  33.269  14.723  22.897  0.0171  0.3187  0.0357
46635W        W89688  32.670  33.161   9.445  0.0049  0.0255  0.2974
46636W        W89689   8.377  28.990   0.045  0.0031  0.2321  0.1181
46637W        W89690   2.019  21.380  28.802  0.0678  0.0207 -0.1435
46638W        W89691  13.230  23.507   3.982 -0.1422  0.4539  0.2935
46639W        W89692  13.585  25.324   6.300  0.2332  0.0776 -0.0418
46640W        W89693  27.668  29.096  22.908  0.2217 -0.2871  0.1519
46641W        W89694  10.977  24.484   5.311  0.0618 -0.1404  0.0108
46642W        W89695  15.340  11.928   5.447  0.1432  0.0235  0.2529
46643W        W89696  30.247  29.875  23.552  0.1199  0.0691 -0.1412
46644W        W89697  33.089  20.502   8.971  0.1499 -0.2515 -0.2498
46645W        W89698   8.245  33.189   7.765 -0.1260 -0.1307 -0.0938
46646W        W89699  33.585  19.537   6.180  0.1419 -0.2834 -0.0075
46647W        W89700  29.530  23.234  24.010 -0.1176 -0.0421 -0.3511
46648W        W89701  22.451  11.889   6.671  0.4422 -0.1586  0.0855
46649W        W89702  33.912  12.913   4.019 -0.1992  0.1283 -0.0695
46650W        W89703   7.487   3.635  10.280  0.2646  0.0200 -0.0497
46651W        W89704  25.231  30.748   2.223 -0.0770 -0.0002 -0.3193
46652W        W89705  34.040   6.285  10.582  0.1020 -0.4210  0.1093
46653W        W89706  30.368  17.392   6.828 -0.1265 -0.2913  0.1692
46654W        W89707  17.563  22.236  21.523  0.0047  0.4388 -0.3778
46655W        W89708   8.133  15.025   2.768 -0.0788 -0.1878  0.1095
46656W        W89709  26.585  28.741   6.678  0.2577 -0.0176  0.1482
46657W        W89710  19.607  18.174  10.129 -0.1391  0.1388 -0.0323
46658W        W89711  29.592  22.657   6.280 -0.0960  0.1020 -0.0401
46659W        W89712  17.397  22.356   2.684 -0.1487 -0.0433 -0.0548
46660W        W89713  19.701  28.187   5.745 -0.0875  0.1594  0.2495
46661W        W89714  11.691  16.913   9.190  0.0192 -0.0923 -0.0705
46662W        W89715   6.131  16.064   8.454  0.1720  0.1074  0.0320
46663W        W89716  27.907  34.133   7.733 -0.0378 -0.0749  0.2841
46664W        W89717   2.004  11.073   5.561  0.1285  0.1634  0.2261
46665W        W89718   0.498   6.934   2.346 -0.1014 -0.2156 -0.0820
46666W        W89719  30.022   8.449   7.756  0.2417 -0.0401  0.1376
46667W        W89720  26.228  31.564   6.572 -0.2803 -0.0090  0.0005
46668W        W89721  28.821  20.889   6.216  0.2418 -0.1433  0.2524
46669W        W89722  33.428  24.344   3.742 -0.0314  0.3580 -0.0637
46670W        W89723  24.908  17.123   6.471 -0.0581  0.1841 -0.1525
46671W        W89724  21.921   8.398   1.336  0.1914 -0.0416  0.1920
46672W        W89725  23.010  18.905   9.195  0.0014  0.1542  0.1681
46673W        W89726  33.992  12.719  23.974  0.0773 -0.3073 -0.0170
46674W        W89727  28.358  16.194  18.195 -0.1542 -0.2950 -0.1149
46675W        W89728   6.075  27.327   5.829  0.0050  0.3174  0.1999
46676W        W89729  18.190  10.467   8.016  0.2115  0.4236 -0.2538
46677W        W89730   0.136  19.982   7.971  0.1867  0.2916  0.2252
46678W        W89731  27.059  18.009  28.147 -0.2675  0.0908  0.1958
46679W        W89732  19.909  20.475  21.225  0.0401 -0.0378 -0.1493
46680W        W89733  15.109   8.589   4.484 -0.1112 -0.0087  0.1618
46681W        W89734  33.806  25.023  23.194 -0.0692  0.0811  0.2763
46682W        W89735  22.153  28.797   9.532  0.1024 -0.0092 -0.0304
46683W        W89736  34.687  16.814  28.915  0.1455 -0.1955  0.2207
46684W        W89737  27.263  22.423   9.570  0.0378 -0.1343  0.0375
46685W        W89738   2.878  18.217   0.175  0.0893 -0.1145 -0.0557
46686W        W89739   1.381  26.780   7.078  0.0437 -0.0360  0.4086
46687W        W89740   3.021  21.137   3.061  0.1534 -0.2446 -0.0953
46688W        W89741  33.105  18.007  27.569  0.4206  0.1979 -0.1541
46689W        W89742   4.712  28.161   0.482  0.0118  0.1300 -0.0713
46690W        W89743   1.601  28.394   3.827  0.2713 -0.0329  0.0216
46691W        W89744  26.431  21.066  28.517  0.0168  0.2278 -0.0832
46692W        W89745  26.759  10.843   2.591  0.0441 -0.1548 -0.1231
46693W        W89746  19.313  17.727   2.357  0.0830  0.0389 -0.0686
46694W        W89747  24.362  22.443   7.138 -0.0583  0.0289  0.0709
46695W        W89748  25.127   9.322   0.552  0.2128  0.0185 -0.1581
46696W        W89749  34.507  22.965   4.187  0.0191  0.0555  0.0120
46697W        W89750  34.007  32.033  28.464 -0.0170 -0.0816  0.3488
46698W        W89751  16.823  16.728  23.268  0.2502  0.0465 -0.0635
46699W        W89752  20.664   3.578  14.888  0.1493 -0.0336 -0.1951
46700W        W89753  33.059   8.619   2.085 -0.2378  0.1773  0.1518
46701W        W89754  33.767   6.307   4.162 -0.0155 -0.1525 -0.3101
46702W        W89755   3.477   8.255   4.853 -0.1830 -0.1198 -0.0392
46703W        W89756  33.781  29.728   5.502 -0.1545 -0.0584  0.2182
46704W        W89757  30.278  12.308  26.673  0.0928  0.2282  0.0662
46705W        W89758   4.267  23.494   0.626 -0.2772 -0.0580 -0.2440
46706W        W89759  33.713  19.039   8.296  0.0344 -0.1802 -0.2490
46707W        W89760   6.680  25.504   5.844  0.0259 -0.1643  0.0846
46708W        W89761  32.910  26.467   5.510  0.3900  0.1255 -0.3024
46709W        W89762  25.042  27.715   9.335 -0.0827  0.1419  0.2676
46710W        W89763  29.556  21.398  28.153 -0.0351 -0.1038  0.1614
46711W        W89764  14.063  11.531   0.642  0.1737  0.1897  0.1712
46712W        W89765  29.345  33.317  27.348  0.0056  0.1709 -0.0572
46713W        W89766   5.815   1.251   5.467 -0.2710  0.1621 -0.0007
46714W        W89767  15.113  23.233   5.200 -0.2444 -0.3216  0.3196
46715W        W89768  34.385  17.141  26.695  0.0473  0.1402  0.2917
46716W        W89769  25.815  24.862   0.396 -0.2132 -0.1405 -0.0224
46717W        W89770  31.107  19.858  24.735 -0.2249 -0.0647  0.2635
46718W        W89771  27.371  20.992   1.129 -0.3628  0.4724 -0.0209
46719W        W89772  20.358  22.643  23.049 -0.1524 -0.0924 -0.3218
46720W        W89773  23.474  23.626   5.554 -0.0670 -0.0808 -0.4605
46721W        W89774  24.020  16.177   4.014 -0.2055  0.1575  0.0528
46722W        W89775  32.662  21.698   1.561 -0.1682  0.0342 -0.0633
46723W        W89776  19.201  31.062   6.169  0.1351  0.1839  0.0991
46724W        W89777  12.072  14.885   5.841 -0.0664 -0.2527 -0.0281
46725W        W89778  32.364  22.417   7.293 -0.4028  0.3930  0.3197
46726W        W89779  29.671  24.416   7.466  0.1590 -0.2911 -0.6113
46727W        W89780   7.930   4.160   4.785 -0.1872 -0.2435  0.0861
46728W        W89781   9.960  22.225   7.777  0.2984 -0.0181  0.4861
46729W        W89782  22.441   0.072   2.037  0.0812  0.1516  0.1438
46730W        W89783  22.687  20.039  23.716  0.2077 -0.1133 -0.0757
46731W        W89784  22.354  13.622   4.740 -0.0710  0.0280 -0.0471
46732W        W89785  31.443  10.094   0.645 -0.0723  0.0930  0.1264
46733W        W89786  24.859   4.582   3.710 -0.1861  0.5612 -0.1569
46734W        W89787  31.553  31.205   5.487 -0.1522  0.3079 -0.1438
46735W        W89788  12.879  11.657   9.764 -0.0688  0.0815  0.0074
46736W        W89789  22.217  23.111   8.012 -0.0064 -0.2767 -0.2394
46737W        W89790  34.423  20.095   0.666 -0.3680  0.1731 -0.1344
46738W        W89791   7.780  31.688   2.639 -0.1219 -0.0779 -0.0648
46739W        W89792   3.006  12.876   3.073 -0.0123  0.2273 -0.4294
46740W        W89793   4.036  24.652   8.821 -0.0508 -0.0778  0.1284
46741W        W89794  21.946  28.993  18.746  0.2248  0.1024 -0.3183
46742W        W89795  30.256  15.722  27.487  0.1098  0.0071  0.0916
46743W        W89796  19.540   6.703   8.990  0.1858 -0.0238 -0.2195
46744W        W89797   1.485  22.671   8.865  0.2213  0.2179  0.1174
46745W        W89798  27.551  30.970   0.703  0.3494  0.4893  0.2784
46746W        W89799  33.707  20.572   5.072  0.1170  0.3289  0.2667
46747W        W89800  13.887  25.131   4.866  0.1035  0.0648 -0.0688
46748W        W89801  32.612  27.718  27.449 -0.1353  0.2264 -0.5401
46749W        W89802  22.084   1.530  28.074 -0.0013 -0.1594 -0.2108
46750W        W89803  31.850  21.602   5.951  0.2204  0.4037 -0.0344
46751W        W89804  27.340  28.451  24.121  0.1645 -0.1709  0.2742
46752W        W89805   5.235  29.889   9.592 -0.0639 -0.4308  0.1440
46753W        W89806  33.213  18.410   2.022 -0.1568 -0.0864  0.1228
46754W        W89807   5.776   2.739  28.710 -0.5915  0.1927 -0.3318
46755W        W89808  21.880  21.289  10.385  0.1831 -0.2651  0.0852
46756W        W89809  31.190  21.305  27.446 -0.2473 -0.1578  0.0085
46757W        W89810  18.492  15.746   4.881  0.2825 -0.0102  0.2652
46758W        W89811  26.756   5.054  26.779 -0.0379 -0.1612 -0.0160
46759W        W89812  28.278  29.215   1.954  0.0841 -0.2898  0.1883
46760W        W89813  18.184   5.213   0.400  0.2033 -0.1877  0.0237
46761W        W89814   3.467  31.818   3.732 -0.1548  0.0737  0.0189
46762W        W89815  26.786  20.625   8.788 -0.2977  0.0296  0.1302
46763W        W89816  29.773  34.547  28.237  0.1378  0.3698  0.0656
46764W        W89817  33.183  21.162   9.159  0.1511  0.1860 -0.0629
46765W        W89818  14.587   7.352  26.720 -0.0859  0.5054 -0.1261
46766W        W89819  28.972  21.700   9.132  0.2038 -0.1652 -0.1660
46767W        W89820  18.309  19.137   6.017 -0.1981 -0.1265 -0.0763
46768W        W89821  25.145  11.942   3.681  0.1060 -0.2349 -0.2627
46769W        W89822  11.453  11.169   9.522  0.2563 -0.1559  0.1030
46770W        W89823  30.995  23.167   1.876  0.1243 -0.0673  0.0078
46771W        W89824   0.047  25.243  29.193 -0.0841  0.0455 -0.1016
46772W        W89825   8.816  19.276   3.425 -0.1406  0.1681  0.3308
46773W        W89826  27.221  17.202   7.285  0.0784  0.1516  0.1172
46774W        W89827  29.375  18.615  10.387 -0.1857 -0.0990  0.0973
46775W        W89828  29.067  13.006   5.030  0.1752 -0.1923 -0.1801
46776W        W89829  26.512  20.117   8.178 -0.1331 -0.1783 -0.0992
46777W        W89830   0.119  30.829   7.141 -0.0390  0.1955 -0.4603
46778W        W89831   6.373  22.692   5.919  0.0931 -0.1705  0.4267
46779W        W89832  30.484  18.917   6.092 -0.2754  0.1439 -0.1308
46780W        W89833   7.511  28.576  25.176 -0.1774 -0.1932 -0.0545
46781W        W89834  17.645  33.889  28.581  0.1153 -0.2680 -0.1397
46782W        W89835  24.940  17.506  24.762 -0.0296  0.2326 -0.3946
46783W        W89836   4.568  27.928  25.363 -0.0490  0.1282  0.1687
46784W        W89837  30.718   1.112   4.691 -0.1411  0.1148 -0.1385
46785W        W89838   2.047  24.173   5.434  0.0889  0.3074  0.1573
46786W        W89839  17.613  17.502  25.064  0.2171  0.1629  0.1812
46787W        W89840  33.461   8.149  28.314 -0.4132 -0.1533 -0.2363
46788W        W89841  25.755  14.746   4.314 -0.1879 -0.0236 -0.1110
46789W        W89842  27.416  18.828  28.684  0.1823  0.4245  0.1910
46790W        W89843   3.882  24.422  28.487  0.0160  0.1139  0.1354
46791W        W89844  24.550  26.433   1.228  0.0758 -0.1338 -0.1811
46792W        W89845  27.235  21.169  28.732 -0.2855  0.4041 -0.2845
46793W        W89846   0.526  31.081   4.147  0.1895  0.0676  0.0861
46794W        W89847  20.334  18.779  25.853  0.1991  0.1541  0.0150
46795W        W89848   0.512  11.401  10.056 -0.1178  0.0342 -0.1437
46796W        W89849  28.650  15.531   7.817 -0.0831  0.0141  0.3740
46797W        W89850  31.189   6.846   7.107 -0.0622 -0.0378  0.1437
46798W        W89851  28.493  29.287   7.091  0.1850 -0.2603  0.2330
46799W        W89852  23.761  15.118   2.867 -0.0996  0.1331 -0.0625
46800W        W89853  33.830  16.868  23.969  0.0260 -0.0213  0.0157
46801W        W89854  31.837  13.699  28.781  0.1404 -0.0729  0.1943
46802W        W89855  19.859  19.987   7.700  0.1785 -0.2318  0.4179
46803W        W89856  34.049  25.223   2.849  0.0381  0.1295  0.1242
46804W        W89857  11.127  23.291  10.155  0.2056 -0.1366 -0.0864
46805W        W89858  33.931  12.521   2.480 -0.1813 -0.4525  0.2263
46806W        W89859   0.383   5.830  23.503 -0.2192 -0.1849  0.1408
46807W        W89860  25.688  16.577   7.078  0.2542  0.3867  0.0059
46808W        W89861  32.947  26.995   2.909 -0.2061  0.0638 -0.0495
46809W        W89862  28.475  26.347   4.316  0.0843  0.0533 -0.1034
46810W        W89863   5.291  18.190   7.336 -0.2142  0.3398 -0.2048
46811W        W89864  33.801   5.633   4.866  0.0431 -0.2105  0.0098
46812W        W89865  13.672  13.091  10.138 -0.1800 -0.3535  0.3156
46813W        W89866   8.656   8.915  27.183  0.1467  0.0984  0.1171
46814W        W89867  19.058  19.339   9.634 -0.0689 -0.0064 -0.2315
46815W        W89868  19.535  13.572   4.885 -0.0519 -0.0732 -0.1783
46816W        W89869   7.206  19.665   1.177 -0.0775 -0.1778  0.0452
46817W        W89870  13.027  16.486   1.403  0.1185  0.0157  0.0622
46818W        W89871  23.010  22.132   9.256 -0.1928 -0.1472 -0.0801
46819W        W89872  28.664  25.923  28.863  0.3550 -0.0978 -0.1346
46820W        W89873  16.140  12.020   3.464  0.0369  0.2954 -0.2991
46821W        W89874  27.934  15.570   6.076  0.1346 -0.0108 -0.1475
46822W        W89875   2.809  33.621   6.022 -0.0916 -0.2599 -0.0013
46823W        W89876  25.580  12.250  25.016  0.1014 -0.0124  0.2088
46824W        W89877  24.316  21.077  25.264  0.1504 -0.2489 -0.3380
46825W        W89878  23.151  18.303  17.035  0.0654 -0.2123 -0.2097
46826W        W89879  29.822   9.836   4.773 -0.0386  0.2521 -0.1332
46827W        W89880  23.209  19.349  26.364 -0.0760 -0.1385  0.4258
46828W        W89881  21.073  27.833   5.911  0.1791 -0.0769 -0.0095
46829W        W89882  19.651  22.874  28.054 -0.0449 -0.3007 -0.1622
46830W        W89883   6.716   3.685  22.640 -0.1004 -0.1094 -0.0801
46831W        W89884  12.246  14.572  27.056  0.1430 -0.0905  0.2431
46832W        W89885  17.978  29.464   3.380  0.2059  0.0144 -0.1870
46833W        W89886  32.571  14.471  22.576 -0.1184  0.0573  0.0183
46834W        W89887  21.853  17.394  20.164 -0.3504  0.2609  0.1937
46835W        W89888  26.022  14.845   8.456 -0.1027 -0.1078  0.3099
46836W        W89889  32.657  14.246   8.864  0.0464 -0.0446  0.1545
46837W        W89890   0.395  22.710   7.847 -0.1870  0.2699 -0.3039
46838W        W89891  26.469  27.545   2.654 -0.0656  0.1748 -0.1690
46839W        W89892  12.564  13.553   8.538  0.1536  0.1860  0.1531
46840W        W89893   4.285  20.384  22.091 -0.0420  0.0054  0.0319
46841W        W89894  23.146  13.339   6.556 -0.1215  0.2481 -0.0099
46842W        W89895  31.569  31.219  22.747  0.1872 -0.0282  0.0468
46843W        W89896  24.488  11.375   4.764 -0.4675  0.0634 -0.0397
46844W        W89897  23.411  13.007   0.711  0.1296  0.2288 -0.1811
46845W        W89898  29.195  19.759  26.685  0.1694 -0.0268 -0.0978
46846W        W89899  33.671  20.955   5.761  0.0019 -0.4894  0.0220
46847W        W89900   7.946  22.285  28.142 -0.1805 -0.0002 -0.3618
46848W        W89901  16.583  19.063   1.450 -0.1166 -0.0563  0.1907
46849W        W89902  32.595  14.656   9.841  0.0721 -0.0380 -0.0515
46850W        W89903  25.033   6.378  25.873  0.2166 -0.0514 -0.0548
46851W        W89904  30.092  23.164   2.253 -0.2896  0.1582 -0.2310
46852W        W89905  31.336   7.431   7.633  0.1541  0.0834  0.1916
46853W        W89906  32.773  24.870   5.519  0.1808  0.1119 -0.3100
46854W        W89907  23.152  14.272   1.975 -0.2358  0.0326 -0.1811
46855W        W89908  30.169   0.052   9.819  0.0883  0.3027 -0.1854
46856W        W89909  14.060  11.385   2.040 -0.2845  0.2331 -0.0215
46857W        W89910  23.063  31.689  23.318 -0.1069 -0.1209  0.1928
46858W        W89911   0.035  15.205  20.790 -0.2823  0.0038 -0.1029
46859W        W89912  31.055  26.021   2.647 -0.0240  0.0597 -0.1047
46860W        W89913  29.235  14.348   8.590 -0.1684  0.0665  0.0963
46861W        W89914  33.991  15.089   4.579 -0.0940  0.2373 -0.3185
46862W        W89915  11.401   9.549   8.195  0.1599 -0.3031 -0.1634
46863W        W89916  18.170  16.792  26.568  0.1355  0.1815 -0.2861
46864W        W89917  11.014   9.902   1.018 -0.0071  0.3902  0.2040
46865W        W89918   5.403  15.298   5.678 -0.1100  0.1193 -0.2811
46866W        W89919  25.943  24.125   8.018  0.3067 -0.0667  0.0712
46867W        W89920   1.223  25.119   6.113 -0.0160  0.0246  0.1373
46868W        W89921  28.590  27.361   7.545  0.1206  0.0599 -0.2290
46869W        W89922  34.271  21.230   8.185  0.1603  0.1684  0.2084
46870W        W89923  30.489   3.134  27.627 -0.1022  0.1756 -0.3011
46871W        W89924  27.171  22.532   7.265  0.3833  0.0147 -0.2175
46872W        W89925   2.211  14.164   9.017  0.1130 -0.0779  0.2080
46873W        W89926  27.843   5.524   5.650 -0.1341  0.0111  0.1085
46874W        W89927  26.565  17.520  26.005 -0.1538 -0.0873 -0.1609
46875W        W89928  32.234  10.881  10.147 -0.0317  0.2428 -0.0852
46876W        W89929  22.239  19.332  27.698 -0.2652 -0.0842 -0.0834
46877W        W89930  34.150  23.752  19.498 -0.0981  0.2298  0.0029
46878W        W89931  27.436  24.832   8.276 -0.0989 -0.1663  0.0503
46879W        W89932  22.407  31.579   9.325 -0.1316 -0.3074  0.0092
46880W        W89933  21.479  19.511   0.328  0.0448 -0.1645  0.0557
46881W        W89934  17.081   8.473   2.624  0.1713 -0.2823 -0.1406
46882W        W89935  34.097   6.407   4.955  0.3477 -0.2423 -0.2168
46883W        W89936  24.793  13.474   7.026  0.1101 -0.0804 -0.3523
46884W        W89937   0.775  28.337  24.999  0.0264  0.0617  0.0192
46885W        W89938  17.123  17.278   8.683  0.0072  0.1300  0.0405
46886W        W89939  21.752  17.124   6.990 -0.0890 -0.0111 -0.1858
46887W        W89940  19.044   9.381   5.941 -0.2584  0.0107 -0.0732
46888W        W89941  21.923  23.875  10.419  0.0762 -0.1774  0.1445
46889W        W89942  33.396  20.183   3.210  0.0392  0.1904  0.4064
46890W        W89943  27.795  12.059   9.725  0.3686 -0.1275 -0.1600
46891W        W89944  22.180  10.712  28.518  0.1223 -0.0420 -0.4668
46892W        W89945  15.172  16.864   7.966 -0.2237 -0.4143  0.0691
46893W        W89946  31.310  15.812   3.033 -0.0098  0.0537  0.0595
46894W        W89947  22.366  20.116  25.522 -0.0092  0.1060  0.0400
46895W        W89948  24.981  10.379  25.570 -0.2430 -0.0788 -0.3925
46896W        W89949  14.116  14.577   3.011  0.2672  0.4253 -0.0865
46897W        W89950   9.889  30.346  24.662 -0.2108  0.1080  0.0314
46898W        W89951  29.843   5.005  20.183 -0.1730 -0.1637 -0.1047
46899W        W89952  28.837  29.388   9.020 -0.0686  0.0281 -0.0558
46900W        W89953   1.291  24.760   0.412 -0.2392 -0.2922  0.4920
46901W        W89954  19.903  21.584  19.775  0.2662  0.1823 -0.1738
46902W        W89955  29.652  22.775   7.391  0.4998 -0.0554  0.1796
46903W        W89956  28.407  12.940   8.023 -0.0658  0.0212 -0.0830
46904W        W89957  31.295  30.753  19.757  0.1957  0.1085 -0.3001
46905W        W89958  29.193  34.585   2.292  0.2104  0.1599  0.1685
46906W        W89959  29.380  10.371  23.859  0.3705  0.0978  0.2452
46907W        W89960   7.271  24.065   7.040 -0.0109 -0.3887  0.0797
46908W        W89961  10.208   0.400   7.488  0.0952  0.1716  0.0537
46909W        W89962  12.853  23.248  23.433 -0.4038  0.2854 -0.1478
46910W        W89963  28.655  22.202  28.890 -0.1479 -0.0333 -0.0901
46911W        W89964   8.448  20.342   2.521  0.0469  0.1488  0.2411
46912W        W89965   4.265  31.465   8.263 -0.0524  0.1813 -0.1283
46913W        W89966   9.848  26.617   0.701  0.3663 -0.0369 -0.0558
46914W        W89967   1.250  22.754   4.118  0.0809 -0.0646  0.2715
46915W        W89968   1.880   1.678  14.856 -0.1226 -0.1131  0.1343
46916W        W89969   4.985  24.514  24.265  0.1423 -0.2423 -0.1837
46917W        W89970   6.220  13.637   4.242  0.2928  0.2127 -0.3269
46918W        W89971  30.954   2.374  22.298  0.3789  0.0341 -0.0014
46919W        W89972  17.114  24.872   0.745 -0.1326  0.0144 -0.0454
46920W        W89973  25.222   7.399   6.526 -0.3425  0.2192 -0.0792
46921W        W89974  32.722  19.578  18.196  0.2827  0.1425  0.2269
46922W        W89975  27.191   9.291  19.278 -0.1528  0.2066 -0.0497
46923W        W89976   5.915  15.206   8.938  0.0240  0.0070  0.0240
46924W        W89977  24.613  12.085  15.936 -0.0247  0.0537 -0.2918
46925W        W89978  28.829  17.108  20.413 -0.2999  0.0446 -0.1322
46926W        W89979  10.241  24.541   7.372  0.0925 -0.0055  0.0322
46927W        W89980  34.129  22.813  27.783  0.1696 -0.1851 -0.2376
46928W        W89981  28.420  26.133   6.046  0.1115  0.0771 -0.1228
46929W        W89982  23.153  18.311  26.991 -0.3026  0.2585  0.0372
46930W        W89983  26.902  19.299   8.713 -0.3136 -0.0563  0.0381
46931W        W89984  22.114  24.699   2.379  0.0555  0.1140 -0.0691
46932W        W89985   4.059  21.617  24.191 -0.1412 -0.2115 -0.0724
46933W        W89986   0.095  22.366  24.007  0.2261 -0.0317  0.0947
46934W        W89987  31.276  28.503  27.780  0.1257 -0.2339 -0.4847
46935W        W89988   1.809  24.150   4.469  0.2650  0.1069  0.1659
46936W        W89989   1.103  13.621  24.314  0.1479  0.0252 -0.2116
46937W        W89990  27.217  16.856  20.823  0.4152  0.0830 -0.1613
46938W        W89991   6.660  25.213  26.083 -0.5053  0.0060  0.0716
46939W        W89992  26.218  20.348  21.809  0.2133  0.0854 -0.2607
46940W        W89993  10.286  30.048   2.764 -0.0535  0.1344  0.2415
46941W        W89994  13.805  11.713   9.017  0.0023 -0.1701  0.1607
46942W        W89995   9.440   9.284   2.932 -0.0366  0.0822 -0.2429
46943W        W89996  26.440  20.817  27.676  0.2315  0.0954  0.2122
46944W        W89997  31.970   4.506   0.503  0.2034 -0.3440  0.3353
46945W        W89998  23.542  28.240  22.367 -0.0793 -0.2463  0.1359
46946W        W89999  24.989  32.743  20.261 -0.2791  0.0849  0.1137
46947W        W90000   2.163  13.609   4.423 -0.2985  0.0262 -0.2463
46948W        W90001  21.223  20.333  10.022 -0.3976  0.1112 -0.0280
46949W        W90002  22.819  11.008   0.447 -0.0638 -0.1359 -0.0921
46950W        W90003  34.573  15.763   9.221  0.1175  0.1419  0.1056
46951W        W90004   7.168  12.084  23.121  0.1768  0.2304 -0.1880
46952W        W90005  19.346  33.860   3.936  0.1871  0.1149 -0.0366
46953W        W90006   1.207  28.576  23.293 -0.0596  0.3053  0.0278
46954W        W90007  14.945  23.020  19.963  0.2740  0.1739  0.3230
46955W        W90008  33.118  31.086  24.677 -0.0289 -0.2467  0.2879
46956W        W90009   8.811   9.782   9.758 -0.1100 -0.0118 -0.0291
46957W        W90010   2.243  16.860   5.238  0.2055 -0.0364 -0.0792
46958W        W90011  34.651  14.898  19.948 -0.0470 -0.0971 -0.1183
46959W        W90012   6.365   2.544  22.256  0.0931 -0.0100  0.1092
46960W        W90013  12.078  31.242   0.501  0.0981 -0.0180 -0.0331
46961W        W90014  23.627  17.213   2.646  0.1494 -0.3157  0.1155
46962W        W90015  25.912   6.155   7.302  0.0215 -0.2531  0.0608
46963W        W90016  33.790  21.845   9.374 -0.2632 -0.1081 -0.3149
46964W        W90017  25.091  26.620  23.644  0.0807 -0.2030  0.3390
46965W        W90018  28.308  25.228  29.055 -0.1750  0.1529  0.0484
46966W        W90019  32.047  15.515   7.124  0.0097 -0.1690 -0.0771
46967W        W90020  24.940  29.230  20.242 -0.3411 -0.6307  0.3156
46968W        W90021   2.453  24.050  26.611 -0.0370 -0.1376 -0.0957
46969W        W90022   5.657   7.648   4.364  0.0929 -0.2589 -0.0180
46970W        W90023  26.745  26.226  16.221 -0.0861 -0.0999 -0.0307
46971W        W90024  23.339  22.207  18.928  0.3186 -0.1943  0.1300
46972W        W90025  16.374  32.243  24.938  0.0718 -0.0483 -0.1190
46973W        W90026  23.845   1.049  22.826 -0.0260  0.5430 -0.3427
46974W        W90027   4.680  15.845  21.967 -0.1493  0.3131 -0.3013
46975W        W90028  24.406  22.399   1.337 -0.0386  0.1915  0.0194
46976W        W90029   9.588  29.359  17.635  0.0788  0.0933 -0.2767
46977W        W90030  31.062  17.658  27.461 -0.2441 -0.0433 -0.0246
46978W        W90031   1.885   1.099  23.135  0.1780  0.1218  0.1990
46979W        W90032  17.827  20.487  24.928  0.0963 -0.0225 -0.3350
46980W        W90033  24.267  34.674   5.682  0.0808 -0.0028 -0.2598
46981W        W90034  24.085  15.237   6.813  0.1085  0.2414 -0.0986
46982W        W90035   0.907  22.001   2.897  0.3362 -0.1150 -0.0726
46983W        W90036  26.686  24.010  28.843  0.0116 -0.1120  0.0754
46984W        W90037   2.715  17.183   4.068  0.0472  0.1534 -0.2481
46985W        W90038  27.858  11.546  29.028  0.3047  0.1845  0.0613
46986W        W90039  25.193   3.372  10.234 -0.2691  0.3016  0.4021
46987W        W90040  23.609  34.045   8.818 -0.1466  0.1600  0.1636
46988W        W90041   9.417  26.656   1.979  0.2512  0.1396  0.0128
46989W        W90042  24.435  26.183   4.307 -0.1633  0.1466 -0.2112
46990W        W90043  32.041  33.352   2.234 -0.1706  0.0519  0.1283
46991W        W90044  24.059  18.506  20.366 -0.1261  0.1689  0.2164
46992W        W90045  30.005  23.251   6.169 -0.2049  0.0914 -0.1488
46993W        W90046   2.767  29.623  29.058  0.1791  0.0615 -0.1356
46994W        W90047   0.606  28.849  19.690  0.0582 -0.2263  0.0427
46995W        W90048  29.693  28.716  21.961  0.3476  0.0045 -0.0282
46996W        W90049  10.384  18.231  26.349 -0.0472  0.1094 -0.0443
46997W        W90050  19.019  26.779   2.893  0.2669 -0.0426 -0.0031
46998W        W90051   0.794  12.850  26.008 -0.0343 -0.2826 -0.0960
46999W        W90052  33.156  25.066  18.625 -0.1953  0.0380 -0.0638
47000W        W90053   4.158  16.538   8.193  0.0518 -0.2991  0.2195
47001W        W90054   5.112  16.893   0.880  0.0346  0.1248 -0.1491
47002W        W90055   4.647  19.200  20.180 -0.0970 -0.1013  0.0588
47003W        W90056  32.189   9.906   7.612  0.0360  0.1905 -0.1521
47004W        W90057   3.699  16.287   2.677  0.0030  0.0745 -0.1106
47005W        W90058  26.358  26.851  10.713  0.2814  0.2613  0.2173
47006W        W90059   2.884  25.064   9.973  0.1677 -0.2328 -0.0806
47007W        W90060   0.374   1.269  26.317 -0.0389 -0.0854 -0.2008
47008W        W90061  25.832  25.790   4.790 -0.2879 -0.2281 -0.1444
47009W        W90062  33.330  20.306   4.783 -0.2085 -0.1705 -0.0414
47010W        W90063   0.029  13.580  14.828 -0.1287 -0.0194 -0.0448
47011W        W90064  27.788  28.758   0.374 -0.0087  0.1126  0.1225
47012W        W90065   1.849  16.680  20.097  0.2446 -0.1736  0.1021
47013W        W90066  18.690   4.838   4.917 -0.2983 -0.1320  0.0066
47014W        W90067   6.068  20.088  28.260  0.0518  0.3281 -0.0733
47015W        W90068  32.799  20.591  22.378  0.0511  0.0302  0.2681
47016W        W90069  17.164  18.234   7.905  0.2277  0.3310 -0.1640
47017W        W90070  34.380   0.855   8.014  0.1333  0.3037 -0.0362
47018W        W90071  20.375  21.674   3.117  0.0545  0.1645  0.0148
47019W        W90072  25.628  32.251   8.446  0.2040  0.1337  0.2748
47020W        W90073  24.920  22.327   2.573 -0.2383  0.0943  0.1863
47021W        W90074   1.474  26.299  26.657 -0.1356  0.1537  0.2188
47022W        W90075  33.915   4.662   9.100 -0.0623  0.1717 -0.2242
47023W        W90076  27.665   5.781   4.418  0.0467  0.2055  0.0117
47024W        W90077  31.974   5.065   4.750  0.3747  0.1586  0.2055
47025W        W90078  31.569  19.131   1.539 -0.1313  0.1227  0.1690
47026W        W90079   6.520  25.272  21.404  0.0226  0.1749 -0.1673
47027W        W90080  26.139  25.041  24.387 -0.0763 -0.2087  0.0819
47028W        W90081   8.015  10.458  16.601 -0.0149 -0.0882  0.0885
47029W        W90082  23.084  29.389  19.878  0.0295 -0.1943 -0.1437
47030W        W90083  31.519  33.031  26.634  0.2805  0.0813  0.0495
47031W        W90084   7.074  13.945   0.056  0.0261  0.1729  0.0474
47032W        W90085  33.414   9.944   3.572  0.1211 -0.2615 -0.0793
47033W        W90086  27.694  23.280  25.521 -0.1834  0.1638 -0.2316
47034W        W90087  23.648  21.167  10.447 -0.0206 -0.0991 -0.2607
47035W        W90088  12.350   5.979   3.475  0.2212  0.0655  0.0261
47036W        W90089  31.731  28.677  27.925 -0.0510  0.0228 -0.1022
47037W        W90090   7.050   6.245   3.018 -0.2258 -0.2620  0.0219
47038W        W90091   2.619  26.617   5.614  0.2947  0.1149  0.2993
47039W        W90092   4.332  19.528  25.873 -0.1672 -0.2968 -0.1889
47040W        W90093   5.503  18.007   1.124  0.0792  0.2007  0.3749
47041W        W90094  25.266  11.271   0.857  0.1602  0.1638 -0.0599
47042W        W90095  23.348  17.855   2.106  0.2099  0.2897  0.1249
47043W        W90096  33.021  18.082   7.916  0.1040  0.0268  0.2126
47044W        W90097  11.568  10.836  26.468  0.0211 -0.2180 -0.1856
47045W        W90098   5.460  23.391   4.046 -0.0399 -0.1595  0.0522
47046W        W90099   7.549   7.127  20.586  0.1771  0.3388 -0.0368
47047W        W90100  25.201  22.590  28.695 -0.0080 -0.0018 -0.0344
47048W        W90101   1.115  12.031  26.779  0.0267 -0.2675  0.0271
47049W        W90102   0.954   1.682  19.130 -0.1326  0.2306 -0.0986
47050W        W90103  28.239  25.531  22.906  0.3097  0.1831 -0.0383
47051W        W90104  27.170  29.790  20.028  0.2146 -0.0523 -0.2246
47052W        W90105   4.068  18.521  25.976  0.1220 -0.3131 -0.0367
47053W        W90106  32.123  21.904   6.262 -0.4926  0.0431 -0.1794
47054W        W90107   1.148   9.623   0.342  0.4237  0.1473 -0.2650
47055W        W90108  25.784  14.539  27.376 -0.0517 -0.2736 -0.2857
47056W        W90109   0.020  16.024   8.832  0.3892 -0.0195  0.2747
47057W        W90110  32.703  33.967   1.833 -0.2174  0.2337 -0.0333
47058W        W90111   5.019  19.788  28.974  0.0437 -0.0134  0.0542
47059W        W90112   0.738  30.199  28.926  0.0149 -0.1671  0.2842
47060W        W90113  23.693  31.322  27.338  0.0876  0.6547 -0.0044
47061W        W90114  23.800  34.504   5.707  0.1214 -0.0117  0.0975
47062W        W90115  25.516  21.261   5.246  0.1172 -0.3487  0.1482
47063W        W90116  25.261   5.884  24.962 -0.2502  0.3153 -0.2958
47064W        W90117  17.441  22.590  21.858  0.0932 -0.3666  0.0677
47065W        W90118  16.461  17.299   5.894 -0.1203 -0.1456  0.1593
47066W        W90119  15.772  25.332   7.849 -0.2804 -0.3228 -0.0449
47067W        W90120  34.351  16.617  18.136 -0.1890  0.2422 -0.1052
47068W        W90121   1.378  13.115  27.357 -0.0445  0.1185 -0.3048
47069W        W90122   0.533  30.049   3.722 -0.0998  0.1191  0.1276
47070W        W90123   2.435  12.925  23.583 -0.0853  0.0616  0.3060
47071W        W90124  33.630  25.905   5.023 -0.3218 -0.0795 -0.2265
47072W        W90125   0.483  34.267   6.099 -0.5640 -0.1091  0.1478
47073W        W90126  26.883  22.318  18.572  0.2688 -0.3381  0.0610
47074W        W90127  29.840  21.879  19.984  0.1197  0.2091  0.0812
47075W        W90128   6.426   3.248  23.456 -0.1860 -0.1248  0.0553
47076W        W90129  33.142  26.006   7.391  0.0327 -0.0463 -0.0532
47077W        W90130   8.058  19.895   3.274  0.1431  0.1195  0.2251
47078W        W90131  31.078  17.606   5.706  0.1954  0.0118 -0.1446
47079W        W90132  25.601  11.118   1.708 -0.2926 -0.1664  0.0396
47080W        W90133  22.026  27.353  25.452 -0.1387 -0.1278 -0.0987
47081W        W90134  33.892  21.784   4.978  0.0435  0.1362  0.0750
47082W        W90135   7.615   9.518  22.582  0.2420 -0.3660  0.1300
47083W        W90136  14.857  28.146  25.801 -0.3045  0.0768  0.3012
47084W        W90137  33.530  18.086   2.751 -0.1374 -0.1177 -0.0491
47085W        W90138  29.460  11.509   6.968 -0.0620  0.1327  0.1579
47086W        W90139  30.217  32.977   8.838  0.0177 -0.0242 -0.2083
47087W        W90140  17.430   7.956   8.738  0.0769 -0.0995 -0.0136
47088W        W90141  18.346  23.043   8.314  0.0206 -0.0373 -0.0955
47089W        W90142   6.569   5.558   2.516 -0.0691 -0.4227  0.1445
47090W        W90143   8.108  15.006  10.041 -0.3254  0.1767 -0.3631
47091W        W90144  26.036  22.080   2.735  0.1824 -0.3993  0.0292
47092W        W90145  34.543  20.042  26.957 -0.0807 -0.0733  0.0721
47093W        W90146  34.626  31.082  24.750  0.0735 -0.0292  0.1410
47094W        W90147  21.909  18.895  26.405  0.1367 -0.2251 -0.0635
47095W        W90148  12.675  20.739   9.682  0.1402  0.0222  0.1193
47096W        W90149  24.958  27.424   4.185  0.3889 -0.3822  0.1495
47097W        W90150   4.663   7.056   2.172  0.3145  0.2666 -0.4687
47098W        W90151  32.501  10.700   3.669 -0.1153  0.0214  0.1478
47099W        W90152   8.536  19.856   1.827 -0.2788  0.3265  0.4120
47100W        W90153  28.902  30.028  26.855  0.3087  0.0873 -0.0420
47101W        W90154  20.680  12.172   6.562 -0.0951 -0.2407  0.0078
47102W        W90155  23.408  20.218  24.221  0.5429  0.1141 -0.1336
47103W        W90156  20.659  13.793   1.992  0.1072  0.0881 -0.0788
47104W        W90157  23.783   4.869   2.358 -0.5795  0.1685  0.0433
47105W        W90158  15.610   3.557   0.784 -0.2354 -0.0388  0.6636
47106W        W90159  11.878  22.586   9.300 -0.1048 -0.1015  0.1365
47107W        W90160  19.914   8.992   7.821  0.0978  0.2241  0.2966
47108W        W90161  31.647  24.775   6.267 -0.0983 -0.2208  0.2483
47109W        W90162   8.417   6.617   6.054 -0.0606 -0.0017 -0.2819
47110W        W90163   2.687   1.054  26.902  0.3078  0.2636  0.0051
47111W        W90164  29.623   1.516  25.629 -0.1288  0.1485 -0.0797
47112W        W90165  26.610  30.608   8.934  0.2433 -0.0768 -0.0839
47113W        W90166  13.596  16.904   0.852 -0.1984 -0.0759 -0.3338
47114W        W90167  12.539  26.989   1.036 -0.3029  0.3557  0.1110
47115W        W90168  32.931  29.615   2.225  0.2734 -0.4333  0.1445
47116W        W90169   0.227   1.753  23.739  0.0579 -0.1428 -0.0505
47117W        W90170  29.390  31.441  22.365  0.0229 -0.1791 -0.0008
47118W        W90171  33.380   7.806   2.633 -0.3477  0.4627 -0.1259
47119W        W90172  25.169  23.300   3.959 -0.2499  0.2105  0.0820
47120W        W90173   7.738  31.763   6.376 -0.0168  0.0684  0.0263
47121W        W90174   9.188  18.856  17.778  0.2032 -0.0526 -0.0835
47122W        W90175  19.634  32.662   2.137 -0.1357  0.0523 -0.0760
47123W        W90176  17.507   4.623   2.556 -0.0805  0.0720 -0.1726
47124W        W90177  15.102  29.255   0.495 -0.3572 -0.0597  0.0714
47125W        W90178  18.223  13.038  24.636 -0.2867 -0.0766 -0.1597
47126W        W90179  30.963   1.288  25.302  0.3146 -0.1798  0.0156
47127W        W90180  13.150  18.812  24.781 -0.1817 -0.2594  0.1362
47128W        W90181  31.114  24.923   5.948 -0.0585 -0.1580 -0.0691
47129W        W90182  23.641  10.107   5.391  0.0460 -0.0498 -0.0369
47130W        W90183  25.352  31.466   5.177  0.1150 -0.2354 -0.4582
47131W        W90184   0.510  21.818   4.190 -0.0161  0.0472  0.1082
47132W        W90185   8.169  19.950   2.233  0.1390 -0.0788 -0.4195
47133W        W90186  34.308  28.800   0.075  0.1977  0.1671  0.1104
47134W        W90187  30.472  26.996   6.985 -0.0352  0.2149 -0.3028
47135W        W90188  10.462   3.517  27.810 -0.2362 -0.0920  0.0113
47136W        W90189  17.379   3.611   9.275 -0.0412  0.1781  0.1398
47137W        W90190  24.658  31.100  27.053 -0.2927  0.1280  0.1199
47138W        W90191  18.853  33.777  27.229 -0.1110 -0.0483  0.0931
47139W        W90192  30.677  34.362   8.370  0.4101  0.0882  0.0743
47140W        W90193   2.370   3.005   6.577 -0.2180  0.0791 -0.1198
47141W        W90194   4.106  28.558   3.695 -0.2552 -0.1219  0.1210
47142W        W90195   1.351   4.535   5.104 -0.0045 -0.2734  0.1851
47143W        W90196  11.714  29.741   0.043  0.2079 -0.2682 -0.0429
47144W        W90197  29.209  16.414   3.272 -0.2075 -0.4043 -0.0730
47145W        W90198  33.827  16.704  24.975 -0.0672  0.1976 -0.0778
47146W        W90199   5.178  33.759   2.426 -0.1911 -0.1716 -0.2546
47147W        W90200  31.522   6.651  25.961  0.1655 -0.0809  0.0168
47148W        W90201  13.991  18.310   7.834 -0.1570  0.2258 -0.1855
47149W        W90202  25.426  21.061   6.898  0.3281 -0.0730  0.3016
47150W        W90203  31.319  11.702  25.600 -0.1241  0.0227 -0.1075
47151W        W90204  15.575   1.197   6.355 -0.0711 -0.0439 -0.2336
47152W        W90205  23.146  20.025   8.794  0.0064  0.0256  0.1773
47153W        W90206  28.164  22.261  28.821 -0.3714  0.1773 -0.2401
47154W        W90207  31.064  25.605  27.551  0.1305 -0.2351 -0.0443
47155W        W90208  17.288  31.942   4.051  0.1680  0.2137  0.1589
47156W        W90209  32.994  20.275   0.625 -0.1866 -0.0251 -0.0843
47157W        W90210  24.332  19.738  28.080 -0.1025 -0.0944  0.0341
47158W        W90211   0.441  32.137  25.997  0.1149 -0.0054  0.2145
47159W        W90212  27.645  31.911   9.702  0.1117 -0.1463 -0.0446
47160W        W90213  10.480  18.529   6.281  0.1662  0.0291  0.2583
47161W        W90214  26.515  34.216  24.945  0.2402 -0.1345  0.3481
47162W        W90215  30.242  14.713   2.155 -0.2616  0.0461 -0.1052
47163W        W90216  18.226  19.839  24.149 -0.1291  0.1794  0.1555
47164W        W90217  23.068  24.833   6.944 -0.1690 -0.1950  0.0438
47165W        W90218  23.497  14.100   9.347  0.1313 -0.0941 -0.1736
47166W        W90219  31.099  30.826   2.375  0.2437 -0.0251 -0.1236
47167W        W90220  29.717   7.570  27.501 -0.2342  0.0113  0.3480
47168W        W90221   4.987  22.097   7.397  0.0129  0.0423  0.2391
47169W        W90222  32.989   1.135   7.595 -0.0752  0.0300 -0.0586
47170W        W90223  17.131  27.338  18.464  0.1792  0.1998  0.0553
47171W        W90224   5.160   3.731   7.692 -0.0132  0.0446  0.4222
47172W        W90225  31.713   5.606  28.848 -0.3274  0.1736 -0.0735
47173W        W90226  27.889  18.014  21.500 -0.3403 -0.1750  0.0701
47174W        W90227   0.656  23.964   8.777 -0.1575  0.0782 -0.4767
47175W        W90228  24.649  29.532  28.495  0.0372  0.1128  0.3704
47176W        W90229  10.646  34.420   0.731  0.0697  0.0323 -0.0817
47177W        W90230  26.129  17.554   1.582 -0.2536 -0.4457 -0.3008
47178W        W90231  24.106  20.963   1.351  0.1706  0.3120 -0.0470
47179W        W90232  19.757  12.036   2.678 -0.2909  0.0839  0.1867
47180W        W90233  33.672  14.522   9.074 -0.1407 -0.1486  0.2640
47181W        W90234  17.902  18.173  14.341  0.4132 -0.2293  0.0846
47182W        W90235   2.321  22.316  27.676 -0.0886 -0.0923 -0.0761
47183W        W90236   6.007  26.773  28.242 -0.0321 -0.2557 -0.0906
47184W        W90237  12.272  22.355   2.517  0.0679  0.0305  0.2704
47185W        W90238  13.613  21.531   2.054  0.0514  0.4504 -0.2038
47186W        W90239  29.278  28.460  16.876  0.6056  0.1403  0.0571
47187W        W90240  33.408  22.451  14.442 -0.2331 -0.1849  0.0190
47188W        W90241  26.665  14.843  28.554 -0.0994  0.0712  0.1804
47189W        W90242  16.033  14.057  28.609  0.3357 -0.2074  0.2824
47190W        W90243  26.769  11.180  25.141  0.3323 -0.0824 -0.1210
47191W        W90244   3.017  22.091  21.270  0.1949  0.0062 -0.2271
47192W        W90245   4.772  25.153  25.132 -0.0195 -0.2433  0.0668
47193W        W90246  27.988  29.739   1.124  0.0180 -0.0785 -0.1165
47194W        W90247  32.829  31.877   7.999  0.0377 -0.4021  0.1409
47195W        W90248   6.226  11.344  20.553  0.1077  0.0208  0.1413
47196W        W90249   6.553  20.357  22.304  0.1516  0.1591 -0.2703
47197W        W90250  17.445   8.775   8.623  0.1109 -0.0234 -0.0941
47198W        W90251  30.309   1.228  28.017 -0.3627 -0.0283 -0.3482
47199W        W90252  30.548  17.649  17.918 -0.0672 -0.3984  0.1851
47200W        W90253  27.330  24.879  26.528 -0.1891  0.1307  0.0564
47201W        W90254  18.295  29.895   5.504  0.0362  0.0855  0.2240
47202W        W90255  24.422  27.284   0.389  0.1654  0.0355 -0.3162
47203W        W90256  33.947  20.137   7.274 -0.0815  0.0015 -0.2311
47204W        W90257  31.203  18.499   3.477 -0.1199  0.4035  0.1341
47205W        W90258   8.297  22.843   5.358 -0.1017  0.1202 -0.1270
47206W        W90259  27.663  19.877   5.603  0.1423  0.0503 -0.0168
47207W        W90260   5.410   4.944   0.744  0.2408  0.1429  0.1205
47208W        W90261   2.620  22.436   6.398 -0.2206  0.1503 -0.0871
47209W        W90262  32.858  31.518  26.431 -0.0000  0.2444  0.0316
47210W        W90263  33.856  19.804   6.541 -0.0695 -0.2691 -0.0795
47211W        W90264  12.318  28.972  27.599 -0.2129 -0.1249 -0.0299
47212W        W90265   9.003   2.688  27.191  0.1624 -0.0066  0.1705
47213W        W90266  23.029  28.901   6.882 -0.0102  0.2537 -0.2738
47214W        W90267  30.716  25.700  14.801  0.1166  0.0211  0.0406
47215W        W90268  12.610  14.055   7.731  0.0597  0.1038  0.1020
47216W        W90269  21.986  25.901   3.520  0.3068  0.2580  0.0431
47217W        W90270  32.444  16.308   1.364 -0.0415  0.0583  0.0945
47218W        W90271  15.141  21.807  26.067 -0.1028  0.3274  0.3648
47219W        W90272  27.720  17.371   7.382 -0.2198  0.0740 -0.1188
47220W        W90273  11.332  27.028  27.502 -0.0408  0.0137  0.2253
47221W        W90274  33.562  23.393   1.787 -0.0662 -0.0144  0.1263
47222W        W90275  21.289  12.567  26.744 -0.0106 -0.0730 -0.1169
47223W        W90276  11.216  10.585   2.694  0.0615  0.5916 -0.1749
47224W        W90277  29.800  11.860  28.409 -0.0433 -0.0300 -0.2215
47225W        W90278   2.400   5.067   1.431 -0.2205  0.0613  0.0703
47226W        W90279  33.170  26.226   4.148  0.0542 -0.3730 -0.0453
47227W        W90280   4.969   2.074  27.735  0.0416  0.1009  0.0357
47228W        W90281  28.613  15.761  20.882  0.0599 -0.0611 -0.0809
47229W        W90282   3.250  28.091   6.582  0.4475 -0.1745  0.3245
47230W        W90283  21.912   3.844   0.809 -0.3249 -0.0852  0.1112
47231W        W90284  28.112  27.011  23.246  0.1484  0.2702  0.2599
47232W        W90285  24.442   6.043   8.401 -0.1561 -0.0371 -0.3727
47233W        W90286   2.373   2.629  20.145  0.0849 -0.3432  0.2162
47234W        W90287  23.886  16.199  23.701  0.2049  0.1771 -0.1312
47235W        W90288  25.231  21.182  18.675 -0.1099 -0.0584  0.0034
47236W        W90289  25.938  14.987   6.548  0.2644  0.1782  0.0242
47237W        W90290  32.766  30.143   2.122  0.1837 -0.0597  0.0672
47238W        W90291   6.002  15.506  27.489  0.2476 -0.0326  0.0981
47239W        W90292   4.735  30.108  21.724  0.0460  0.1101 -0.1640
47240W        W90293   0.047  11.473  18.563 -0.2127 -0.0904  0.0362
47241W        W90294  18.990  15.502   1.245  0.1214  0.1461  0.1338
47242W        W90295  21.820  18.556   2.985 -0.1121 -0.1782  0.0448
47243W        W90296   0.147  21.999  29.051 -0.0551  0.0679  0.1919
47244W        W90297   1.468  27.562   6.584 -0.0424 -0.1136 -0.2354
47245W        W90298   4.383  32.390  17.553 -0.1106  0.0949 -0.1042
47246W        W90299  12.087  20.619  29.180  0.1068 -0.0482  0.1915
47247W        W90300  27.153  12.171  20.761  0.1142  0.0881  0.3946
47248W        W90301  12.477  32.396   6.715  0.2514  0.0432 -0.1772
47249W        W90302   9.285   0.271  22.631  0.2415 -0.0461 -0.0805
47250W        W90303  23.022  23.752   5.442 -0.1330  0.1030  0.1316
47251W        W90304  33.649  18.770   7.864 -0.2061 -0.1584  0.1564
47252W        W90305  11.646  22.142  26.184  0.0916  0.1205 -0.0495
47253W        W90306  19.253  20.085   0.214  0.4053 -0.0731 -0.3124
47254W        W90307  22.068  12.171   7.270  0.0603  0.0509  0.2067
47255W        W90308  33.837  20.626  28.338  0.1401  0.1054 -0.0891
47256W        W90309  28.856  29.579  26.073 -0.1498  0.0097 -0.1125
47257W        W90310  23.379   8.683  19.029 -0.1141  0.2102 -0.0475
47258W        W90311  20.348   3.012  26.786  0.1950  0.1326 -0.1205
47259W        W90312  15.184  14.711   2.373 -0.0159 -0.0081  0.0720
47260W        W90313  13.298  10.375   0.118 -0.2900  0.3407  0.0657
47261W        W90314   4.993  19.587   2.365  0.0638 -0.2585 -0.0791
47262W        W90315  32.359  23.218   6.837  0.0119  0.1434 -0.0989
47263W        W90316  11.705  21.307  26.093  0.2894 -0.0285  0.0128
47264W        W90317  23.446   0.188  21.692 -0.0185 -0.0026  0.0796
47265W        W90318   3.370  24.717   5.022  0.0939 -0.3031  0.0069
47266W        W90319  30.347   0.759  14.512  0.0335 -0.0509  0.1812
47267W        W90320   0.337  25.821  21.619  0.1341 -0.1979 -0.1511
47268W        W90321  27.298  28.692  27.783 -0.1679  0.3959 -0.3336
47269W        W90322  25.512  13.393   0.262 -0.0939 -0.1169  0.1055
47270W        W90323  25.876  26.302   8.644 -0.1582 -0.3682 -0.2622
47271W        W90324   4.403  13.594   2.205  0.0671 -0.0076  0.1795
47272W        W90325   0.104  31.990   2.471  0.0526 -0.0578  0.0096
47273W        W90326  29.552  32.699  28.065  0.0119 -0.1911 -0.0636
47274W        W90327  23.904  18.308   2.632 -0.0857 -0.3045  0.1835
47275W        W90328   4.087  34.067  19.702  0.4226 -0.1183  0.0728
47276W        W90329  16.496  20.778  25.128  0.2108  0.2851  0.1544
47277W        W90330   1.523  23.921  15.332  0.2286 -0.0559  0.1414
47278W        W90331  19.059  26.733   6.042  0.2009  0.1509 -0.1768
47279W        W90332  29.633  34.169  23.457 -0.0979 -0.1640 -0.0644
47280W        W90333  25.357  27.964   4.941  0.1018  0.1447  0.1262
47281W        W90334   2.200  21.636  16.685  0.1651 -0.0319  0.3151
47282W        W90335  12.606  13.098   4.042  0.3630 -0.0169 -0.0353
47283W        W90336  25.362  30.094   0.290  0.0062  0.0715 -0.1418
47284W        W90337  10.384  19.353  14.482 -0.2085  0.1607  0.0696
47285W        W90338  29.630   2.544   2.909 -0.1057  0.0200  0.0863
47286W        W90339  22.927  20.836   5.909 -0.0543 -0.2504  0.2762
47287W        W90340  25.065  15.667   5.068 -0.2574 -0.0396  0.2622
47288W        W90341  27.717  13.085  10.033 -0.0998 -0.2667  0.2322
47289W        W90342  22.484  16.605  23.418  0.2768 -0.0379 -0.0049
47290W        W90343  28.189  18.955   0.660 -0.0402  0.1526 -0.2697
47291W        W90344  31.069  28.114   8.043  0.0960  0.0343  0.0929
47292W        W90345  29.379  18.362  21.886  0.0149 -0.2266  0.0104
47293W        W90346  14.217  18.984   9.081  0.1528  0.2886 -0.0420
47294W        W90347  32.689  15.035  10.180  0.0519  0.1205  0.0279
47295W        W90348  13.586  19.123  18.540  0.3496  0.0755  0.1353
47296W        W90349  31.546  23.249   1.972 -0.4248 -0.0795  0.1838
47297W        W90350  34.212  23.694   6.164  0.3062  0.0211 -0.3180
47298W        W90351  17.717  19.473  23.313 -0.0412  0.4086 -0.0901
47299W        W90352  29.495  24.763  22.930 -0.0767  0.1361  0.0894
47300W        W90353  33.257  17.161   3.227  0.1419  0.3546 -0.1904
47301W        W90354  18.656  20.646   8.925 -0.2898 -0.0399 -0.0374
47302W        W90355  11.920  11.338   7.529  0.0113  0.1450 -0.0999
47303W        W90356   3.557  26.374   7.997  0.1514  0.2835 -0.1376
47304W        W90357  24.959  20.555  27.022 -0.0530 -0.0137  0.1326
47305W        W90358  19.340  19.235  25.127 -0.0245  0.3556  0.1178
47306W        W90359  17.760  24.170  28.417  0.2408 -0.1945  0.0849
47307W        W90360  26.051   9.485   9.136 -0.0975 -0.4075  0.0979
47308W        W90361  34.507  14.319  21.857 -0.0495  0.0487 -0.1900
47309W        W90362  16.304  16.118  23.473 -0.1234  0.3202  0.2149
47310W        W90363  20.223  15.142   3.420 -0.1725  0.1857 -0.4055
47311W        W90364  26.597  31.726   2.984  0.0311 -0.1325  0.0795
47312W        W90365  28.571  24.343   0.802 -0.1605  0.1889  0.0363
47313W        W90366   8.334   8.570   8.723  0.1892  0.2054  0.2788
47314W        W90367  30.542  21.794   8.985 -0.0752 -0.0731  0.2921
47315W        W90368  10.521  23.462  27.348 -0.1793 -0.0780  0.0668
47316W        W90369  32.983  32.078  28.585 -0.0045 -0.1169  0.0489
47317W        W90370  27.495  28.281  22.826 -0.1967  0.1840 -0.1446
47318W        W90371   0.883  33.507   9.717 -0.2562  0.1660  0.0755
47319W        W90372  27.514  28.425  23.406  0.2623 -0.0283 -0.1714
47320W        W90373  10.849  25.772   2.146 -0.0347  0.0105 -0.3660
47321W        W90374  14.919  26.577   3.658 -0.0410 -0.6078 -0.0399
47322W        W90375  31.928  24.480   7.510 -0.1638  0.0026 -0.0166
47323W        W90376  25.854  31.716   0.493 -0.2349 -0.0878 -0.1631
47324W        W90377  31.423  24.127   8.819 -0.1186 -0.1979 -0.0054
47325W        W90378  18.165  20.665  25.230 -0.0428  0.0404 -0.1087
47326W        W90379  20.843  21.304  25.611 -0.5112 -0.3133 -0.0357
47327W        W90380  21.767  33.301  10.116 -0.0725 -0.0211  0.0029
47328W        W90381  31.388   1.112  20.611 -0.1308  0.1804  0.0089
47329W        W90382  33.317  20.326   5.344  0.2540  0.0572 -0.0385
47330W        W90383  33.547  19.476   9.659 -0.0957  0.0897  0.0289
47331W        W90384  14.183  28.035   2.505  0.2168 -0.0760 -0.2522
47332W        W90385   9.709   2.291   6.908 -0.2684  0.0862 -0.3193
47333W        W90386  32.164  29.949   5.601  0.0807  0.0855 -0.3994
47334W        W90387   2.792   4.578   6.934 -0.0116 -0.2532 -0.1753
47335W        W90388  32.699  15.278   1.761  0.1140 -0.2007  0.0691
47336W        W90389  25.074   0.215  20.602 -0.4259 -0.0567 -0.4872
47337W        W90390  28.847  24.870   6.393 -0.0757  0.1093 -0.0472
47338W        W90391  30.046  30.388  24.969 -0.3278 -0.1869  0.1781
47339W        W90392   2.475  30.881  26.902  0.2698 -0.1070 -0.4391
47340W        W90393  15.805  20.553   3.414 -0.0921  0.2338  0.0477
47341W        W90394  21.915  16.267  13.951  0.0991  0.0159 -0.1395
47342W        W90395  15.715  12.822  26.599  0.2183  0.2391 -0.3548
47343W        W90396  23.677  17.737   9.347 -0.1437 -0.1608  0.0057
47344W        W90397  18.089  22.778   7.923  0.0983  0.2401 -0.1906
47345W        W90398  22.316  21.120   7.067  0.0355  0.1012 -0.0798
47346W        W90399   3.733  17.334  26.185  0.0274  0.0316  0.0523
47347W        W90400  24.951   5.249   3.314  0.0239  0.1644 -0.0959
47348W        W90401   6.333  23.802  27.868  0.1570 -0.3165  0.3980
47349W        W90402  25.944  21.799  28.775 -0.0377 -0.1715  0.1980
47350W        W90403   0.508  11.256   2.138  0.0027 -0.1340  0.1843
47351W        W90404   6.954  19.322   2.921  0.1300 -0.1371 -0.0635
47352W        W90405  21.275  15.849  27.996  0.1036  0.0315 -0.0505
47353W        W90406  19.123  30.202   4.282  0.1672  0.1799  0.1589
47354W        W90407  11.483  18.208   1.179  0.3371 -0.2024  0.0842
47355W        W90408   6.891  25.149  28.481  0.1547 -0.1209  0.1323
47356W        W90409  32.970  17.672   6.860 -0.0149  0.2828  0.1047
47357W        W90410   2.923  28.642   2.728  0.0749 -0.0380  0.0533
47358W        W90411  16.934  25.097   0.273 -0.0137 -0.0605  0.2611
47359W        W90412  27.369   5.260   8.939  0.0440 -0.0202 -0.0547
47360W        W90413  32.984   3.859  14.932  0.1028  0.0614 -0.0746
47361W        W90414  18.580  15.761  24.532  0.2063 -0.2794 -0.0344
47362W        W90415  21.603  22.004   6.849 -0.0357 -0.0567 -0.0656
47363W        W90416  30.633  31.539  26.301  0.1978  0.2329 -0.0114
47364W        W90417   5.247  27.370   6.027  0.1442  0.1268  0.0918
47365W        W90418  16.359  16.921   3.149  0.0029  0.0766  0.1647
47366W        W90419  26.662  15.414  25.628 -0.0893 -0.0156  0.1987
47367W        W90420  27.940   2.451  27.908  0.5715  0.1438  0.1428
47368W        W90421  34.302  15.275   6.144 -0.0131  0.1054 -0.0772
47369W        W90422  14.312  23.315   9.123  0.1016 -0.1461 -0.0442
47370W        W90423   2.389  24.428  28.902  0.0606  0.3050 -0.0578
47371W        W90424   5.075  12.471  23.471  0.1126  0.2519 -0.0341
47372W        W90425   3.514  24.377   7.932  0.3569 -0.2224  0.0845
47373W        W90426  32.010   6.119   2.425 -0.2983  0.1609 -0.0914
47374W        W90427  30.456  30.986   7.072  0.0946 -0.4017 -0.1731
47375W        W90428  31.824  11.797   2.721 -0.0595  0.0532 -0.1120
47376W        W90429  28.043  30.195   5.871  0.1643 -0.4106 -0.0407
47377W        W90430  31.286  20.582  19.957  0.1912  0.2254 -0.4207
47378W        W90431  22.848  15.407   6.152  0.0464 -0.3832  0.2154
47379W        W90432  29.992  33.984   3.597 -0.1322 -0.0481  0.0736
47380W        W90433  23.871  25.431  22.653  0.2270  0.1215 -0.0630
47381W        W90434   2.243  18.542  14.909  0.0538  0.1149 -0.0316
47382W        W90435  29.119  10.997   5.049 -0.0464 -0.1998  0.0939
47383W        W90436  23.365  20.065   9.855  0.1371  0.1190 -0.0587
47384W        W90437   4.376   4.396   3.091 -0.2503  0.2403 -0.0729
47385W        W90438  29.136  32.197  16.652  0.1130  0.0423 -0.0554
47386W        W90439  31.589  24.861   1.964  0.0208 -0.1666 -0.0078
47387W        W90440  11.562  20.043  28.023 -0.0605 -0.0806  0.4111
47388W        W90441  24.124  34.278  17.464 -0.0411 -0.1761  0.0782
47389W        W90442  24.165  25.873  26.003 -0.4766  0.1584 -0.1412
47390W        W90443  27.487  25.050   0.031  0.3735  0.5095  0.0910
47391W        W90444   2.505  34.067  27.935  0.0574 -0.1975  0.0092
47392W        W90445  28.547  12.955   0.352  0.0081  0.0626 -0.2636
47393W        W90446  24.233  12.773   3.158 -0.1080  0.3501 -0.3820
47394W        W90447  25.617  15.871   8.005 -0.2564 -0.1036 -0.0969
47395W        W90448  33.236  19.325  28.174 -0.2446 -0.4082 -0.0951
47396W        W90449  32.383  15.681  29.147 -0.1608 -0.2193 -0.0907
47397W        W90450  22.453  20.735   7.425  0.0897  0.1834 -0.0013
47398W        W90451  32.717  15.988   9.401 -0.1615  0.0380  0.3366
47399W        W90452  23.991   1.909  26.255 -0.1323 -0.0314 -0.0132
47400W        W90453  29.102  16.971   9.301  0.1033  0.0119 -0.0562
47401W        W90454  28.564  21.066   2.571 -0.2240  0.1216 -0.1787
47402W        W90455  18.452  21.516   6.860 -0.1224 -0.0628 -0.1671
47403W        W90456  23.728  18.435   4.691  0.0306 -0.0069  0.0996
47404W        W90457  27.169  24.443   4.002 -0.1452  0.0810  0.2384
47405W        W90458  26.913  11.179  11.307 -0.0713 -0.1003 -0.1010
47406W        W90459   9.057  24.031  24.036  0.0476 -0.2135 -0.4686
47407W        W90460  32.048  27.205   7.796 -0.0413  0.1162  0.0486
47408W        W90461  22.464  17.948   3.466  0.0094 -0.1923  0.0870
47409W        W90462  29.776  13.629   5.816 -0.0897 -0.3246  0.0552
47410W        W90463   0.782  25.979  28.408 -0.1943  0.0469  0.0749
47411W        W90464   7.036  18.983  28.473  0.2195 -0.1184 -0.0813
47412W        W90465   8.741  34.428  17.087 -0.1263 -0.2845 -0.2825
47413W        W90466   6.279  31.091   8.962  0.1237 -0.2282 -0.0011
47414W        W90467   4.775  21.587   2.886  0.0532  0.1423 -0.1410
47415W        W90468  18.821  14.561   4.485 -0.1904 -0.2893  0.2086
47416W        W90469  18.451  26.076   0.293 -0.1770 -0.0113 -0.2572
47417W        W90470  27.719  25.740  19.773 -0.1027 -0.1913  0.2158
47418W        W90471  32.258  23.202   9.476  0.0379 -0.1427  0.2581
47419W        W90472  28.249  27.788   1.059  0.1306 -0.1617 -0.0278
47420W        W90473  25.752  14.658  16.651 -0.0647  0.0733 -0.1337
47421W        W90474  25.630  26.728  20.840  0.2391 -0.3009 -0.0083
47422W        W90475  20.943  25.034   8.430  0.1781 -0.1872  0.3311
47423W        W90476  19.952  15.799   7.603  0.1630  0.0145  0.1091
47424W        W90477  34.062  19.210  25.538  0.2230  0.1360 -0.0860
47425W        W90478  27.755   1.337   9.676 -0.1535 -0.0724 -0.1116
47426W        W90479  25.727  29.543   7.640  0.0426 -0.2281 -0.2261
47427W        W90480  28.563  26.946  24.272  0.3762  0.0544 -0.3554
47428W        W90481  24.025  29.429  26.880  0.1372 -0.3050  0.1492
47429W        W90482  23.883  23.967   2.091  0.1126 -0.0597  0.2180
47430W        W90483   3.933   6.257  19.811 -0.0420  0.1470 -0.3388
47431W        W90484  24.764  32.835   4.605  0.0350 -0.0306 -0.2514
47432W        W90485  30.322  22.218   7.129 -0.2900 -0.0354 -0.1496
47433W        W90486  26.476  11.254   2.550  0.0165  0.1664  0.1472
47434W        W90487   7.996  32.793   1.753  0.2011 -0.1635 -0.1516
47435W        W90488  23.698  29.003   9.973 -0.0223  0.0665 -0.0323
47436W        W90489   7.061  11.070   0.913  0.1330  0.1786  0.2640
47437W        W90490  26.606  12.827   4.467 -0.1101 -0.2234  0.0096
47438W        W90491  15.725  16.291   8.167 -0.1788 -0.1576 -0.3191
47439W        W90492  34.459   2.692  26.140  0.1299  0.2255 -0.0929
47440W        W90493  33.063  29.878  20.153  0.1258 -0.0650 -0.1107
47441W        W90494  20.807  24.568   5.498  0.0448  0.0870 -0.0495
47442W        W90495  28.364  34.180   8.440 -0.0113  0.0311  0.2763
47443W        W90496   6.459  30.179   2.481 -0.0470  0.0418 -0.0122
47444W        W90497   0.531  19.772   6.003 -0.1097 -0.0597 -0.1716
47445W        W90498  26.984  26.395   2.730  0.2721 -0.0193 -0.0094
47446W        W90499  31.296  30.202   4.410  0.1032  0.1337  0.3702
47447W        W90500   1.125   1.611   7.392  0.0846  0.0662  0.1019
47448W        W90501  24.889  16.320   3.489  0.0281  0.1591 -0.0648
47449W        W90502  13.118  10.706  25.295 -0.0993 -0.2794 -0.1139
47450W        W90503   7.036  31.022   8.786 -0.0175  0.1431 -0.0920
47451W        W90504  10.520  28.010  28.537  0.0152  0.2736 -0.2062
47452W        W90505  19.923  26.102  27.822 -0.0734  0.0181  0.3131
47453W        W90506  17.574  17.990   2.924  0.0865 -0.0937  0.0212
47454W        W90507  28.168   0.783  20.779 -0.1105 -0.0772  0.1923
47455W        W90508  25.408   8.697   6.770 -0.2002  0.0899 -0.0479
47456W        W90509  15.911  16.224  28.324  0.2731  0.2794 -0.2063
47457W        W90510  11.157  18.972   2.176 -0.0760 -0.1098  0.2049
47458W        W90511  23.532  33.929  27.297  0.0422 -0.3003  0.2244
47459W        W90512   6.731  12.619   3.992  0.2241  0.0949 -0.0145
47460W        W90513  34.084  12.505  26.800  0.1905  0.1764 -0.1418
47461W        W90514  30.367  12.548   8.489 -0.3439 -0.1099  0.0901
47462W        W90515  33.054  29.955   6.080 -0.0859  0.1776  0.0036
47463W        W90516  11.070  27.091   3.951  0.0901  0.1442 -0.2396
47464W        W90517  23.539  14.778  21.616  0.0657  0.0063 -0.0507
47465W        W90518  12.351   6.259  27.079  0.1467 -0.1738  0.1347
47466W        W90519  19.847  21.925   5.375  0.1091  0.1359 -0.0504
47467W        W90520  22.884  17.769  28.251  0.1999 -0.0630  0.1460
47468W        W90521  25.742  25.533  16.468 -0.0494  0.0359  0.3089
47469W        W90522   4.663  25.710   7.598 -0.0601  0.3560  0.2178
47470W        W90523   4.703  25.856  28.108  0.2922  0.0214 -0.4246
47471W        W90524  31.048  18.707   2.605 -0.1913  0.1397 -0.0475
47472W        W90525  24.219   3.276   2.973  0.1945  0.1625  0.1334
47473W        W90526  18.191  20.585  24.130 -0.2588 -0.2017  0.1173
47474W        W90527  15.713  15.823  24.302 -0.0560  0.0006  0.1456
47475W        W90528  31.197  20.577   8.479 -0.2116  0.3827  0.0153
47476W        W90529   4.447  17.892  26.707 -0.0892 -0.0511  0.1608
47477W        W90530  33.270  23.493  25.946  0.0306  0.2133  0.0475
47478W        W90531   3.740  24.536   4.687 -0.0412  0.1713  0.1674
47479W        W90532  22.247  30.937   8.471  0.0606  0.1077  0.0936
47480W        W90533  11.535  12.484  11.087  0.2861  0.0690 -0.2155
47481W        W90534  25.869  24.818   1.989 -0.1362 -0.2576  0.0059
47482W        W90535  33.636  16.001   0.800  0.0365 -0.3175 -0.2386
47483W        W90536   2.974   6.437  24.605  0.1611  0.1056  0.1795
47484W        W90537   4.392  34.050   0.953 -0.1727  0.1761 -0.0427
47485W        W90538  15.658  13.536   7.199  0.3283 -0.2896  0.0428
47486W        W90539   1.236  25.014   3.754  0.2735 -0.0142 -0.2236
47487W        W90540  11.583  14.677   5.036 -0.2448 -0.0430 -0.1935
47488W        W90541  13.878  31.871  24.988 -0.0819 -0.0521  0.0218
47489W        W90542  21.155  31.395  26.819 -0.1411  0.0139  0.3686
47490W        W90543  34.186   5.689  28.313 -0.4470  0.0664 -0.1387
47491W        W90544   5.484  25.888   1.527  0.0945 -0.0109 -0.3995
47492W        W90545   0.687  20.063  27.474  0.4840  0.2943 -0.2597
47493W        W90546   6.025  25.411   6.490  0.4459 -0.3610 -0.0248
47494W        W90547   8.025   7.370   1.937 -0.0671  0.1747 -0.0518
47495W        W90548  32.401  31.108   7.200 -0.3584 -0.4047 -0.2148
47496W        W90549   4.828  10.820  15.771  0.2538  0.0104 -0.2959
47497W        W90550  27.008  18.463   8.564  0.1445  0.2395 -0.1266
47498W        W90551  27.265  22.946  28.279 -0.1090 -0.1957  0.2083
47499W        W90552   3.845  19.886  17.951 -0.0508 -0.0617  0.1378
47500W        W90553  18.605  14.522  27.069  0.0180  0.0494  0.1883
47501W        W90554  31.295  13.990   7.132  0.2659  0.2262 -0.2180
47502W        W90555   8.955  16.071   2.712  0.0685 -0.0113  0.2987
47503W        W90556  27.026   1.898   5.165 -0.1373 -0.0709  0.0182
47504W        W90557  26.785  25.821   6.361 -0.1258 -0.3096 -0.3382
47505W        W90558  34.590  20.215   1.634  0.0046 -0.1419  0.4163
47506W        W90559  25.264  13.853   3.969  0.1127  0.0814  0.0951
47507W        W90560  11.728  27.949  27.665 -0.2030 -0.0730  0.0579
47508W        W90561   0.781  26.951   7.172 -0.4752  0.1447  0.1598
47509W        W90562  20.927   7.392   4.744 -0.0212  0.1258  0.1105
47510W        W90563  26.375  25.420   6.177 -0.1092 -0.0849  0.1443
47511W        W90564  34.265  24.534   6.232 -0.0487 -0.1206 -0.1465
47512W        W90565  23.579  13.869  23.237 -0.1139 -0.3384  0.0242
47513W        W90566   4.609  25.892   6.508 -0.1615  0.2051  0.2972
47514W        W90567  21.505  11.906   3.851  0.1590  0.2103 -0.1100
47515W        W90568   1.096  14.867   7.210  0.0829  0.1087  0.2103
47516W        W90569  19.105  22.431  26.743 -0.1563 -0.0212 -0.1916
47517W        W90570  18.652   5.406   1.147 -0.0821 -0.4640  0.2098
47518W        W90571  11.573  13.753   2.994 -0.0136  0.2441  0.1959
47519W        W90572  30.682  18.029  29.165  0.2615  0.0886 -0.1617
47520W        W90573   9.296  20.845  28.352 -0.0053 -0.1039  0.1242
47521W        W90574   7.456  14.195  29.159  0.1183 -0.4019  0.2919
47522W        W90575  30.632  26.607   8.156 -0.1554 -0.2031 -0.1942
47523W        W90576  13.765  14.853   0.176 -0.2764 -0.2784  0.0077
47524W        W90577   8.032   3.683   9.851 -0.1199  0.3379 -0.1703
47525W        W90578  19.162  30.128  23.250  0.1702 -0.1166  0.1082
47526W        W90579  24.317  31.726   5.065  0.3167 -0.2316 -0.0578
47527W        W90580  33.044   5.190   8.359 -0.1276 -0.0354  0.1060
47528W        W90581   9.465  10.982   0.304  0.0337  0.0878 -0.3171
47529W        W90582  27.735  14.494   7.026  0.2704  0.1102 -0.0524
47530W        W90583  33.207  13.057   5.154  0.2130 -0.0387 -0.1701
47531W        W90584  11.493  20.072   5.915  0.0748  0.3342  0.1242
47532W        W90585  14.629  17.130   8.373 -0.1803 -0.0681 -0.2721
47533W        W90586  17.211  25.015   2.013 -0.1657  0.0520  0.1629
47534W        W90587   0.619  31.138   2.438  0.1783 -0.0689  0.1066
47535W        W90588  12.499  12.346   6.338 -0.2148 -0.1002  0.1155
47536W        W90589  26.026  18.549   1.614  0.2931  0.0938 -0.0237
47537W        W90590  32.594   4.308   9.737  0.0375 -0.1506  0.4676
47538W        W90591   4.673  12.788   1.406  0.1047 -0.1453  0.1825
47539W        W90592  26.315  26.656  14.936  0.0405  0.0025 -0.0435
47540W        W90593  23.099  22.463  22.224 -0.3628  0.1118 -0.3347
47541W        W90594  29.694  29.810   8.456  0.0208 -0.2096 -0.0599
47542W        W90595  11.297  12.936   5.015 -0.4579  0.1618  0.2499
47543W        W90596  25.446  12.814  28.246 -0.0830  0.0954 -0.2557
47544W        W90597   5.205  30.355   4.234  0.0709  0.0580  0.0794
47545W        W90598  28.160  30.647  26.870  0.0625 -0.1282  0.1012
47546W        W90599  19.826  20.128  18.315 -0.2475 -0.0532  0.1140
47547W        W90600  30.425  20.474  14.293 -0.3230 -0.0545  0.1568
47548W        W90601  32.363  23.007   2.432 -0.2770  0.2495  0.0096
47549W        W90602  15.153  22.930   6.859 -0.0466 -0.2042 -0.2162
47550W        W90603   8.437  15.696  26.913  0.1205 -0.0544 -0.1778
47551W        W90604  14.185   6.734  26.243 -0.0931  0.1561 -0.1901
47552W        W90605   5.991   3.921  26.483 -0.1675 -0.0472 -0.2085
47553W        W90606  29.643  19.858   4.986  0.0178  0.0676  0.2277
47554W        W90607  24.443   0.261   6.843  0.0552 -0.3061 -0.1270
47555W        W90608  31.961   0.065  20.784 -0.0932 -0.2717  0.1170
47556W        W90609   6.074  27.333  21.065  0.0439  0.0203  0.1689
47557W        W90610  30.968   1.490   5.593 -0.0745 -0.0362 -0.0525
47558W        W90611  32.663  19.253   1.221 -0.2758  0.3752 -0.0220
47559W        W90612  18.542   5.065   6.900 -0.1745  0.1449  0.1644
47560W        W90613  20.738  11.275   7.563  0.3309 -0.1525 -0.0502
47561W        W90614  29.049  22.150  21.112  0.1045 -0.2169 -0.3394
47562W        W90615  20.917  29.669   7.741  0.1991  0.1390  0.1125
47563W        W90616   6.990  19.069  16.675  0.0939  0.1139  0.2890
47564W        W90617  25.617  29.301   8.971  0.0652 -0.2782  0.2111
47565W        W90618  31.539  25.717   6.700  0.2005 -0.1013 -0.1074
47566W        W90619   0.167  17.315   3.953 -0.1233  0.3100  0.2756
47567W        W90620  10.581  27.120  27.758  0.0372  0.0447 -0.2489
47568W        W90621  33.685  11.691  27.034 -0.0030 -0.0308  0.0644
47569W        W90622  18.147   7.092  29.139 -0.0867  0.2219  0.1382
47570W        W90623  29.815  21.273  28.641 -0.1397 -0.0498  0.1947
47571W        W90624  27.876  10.248  23.870 -0.3732  0.2077 -0.0326
47572W        W90625  34.490  26.623   1.096 -0.0633  0.0583 -0.0803
47573W        W90626  28.417  27.774   5.646  0.1128 -0.0316 -0.0406
47574W        W90627  30.304  17.825  26.956  0.2595 -0.1540  0.2530
47575W        W90628   4.320  28.562   3.249  0.1884  0.1247  0.1775
47576W        W90629  25.571  15.788  29.100  0.3419 -0.2327  0.2407
47577W        W90630  30.832  31.656  16.228 -0.1021  0.1648  0.0373
47578W        W90631  14.838  10.001   1.194 -0.1558  0.0615  0.2677
47579W        W90632  14.956   9.856   2.849  0.2471  0.1027  0.0345
47580W        W90633  28.844   6.511   4.023  0.1954  0.1533 -0.0214
47581W        W90634  24.999   2.184   5.549 -0.1394  0.1912  0.0606
47582W        W90635  27.783  15.012   7.786  0.1002 -0.1049  0.2255
47583W        W90636  27.655  25.081   1.762  0.4024  0.1942 -0.2371
47584W        W90637   0.972   3.821  28.793 -0.4869 -0.1114 -0.0458
47585W        W90638   2.296  24.678   0.189  0.1491  0.0330 -0.1992
47586W        W90639  29.825   1.709   2.303  0.0341 -0.0117 -0.0004
47587W        W90640  34.676  19.736  17.067  0.3034  0.1154 -0.1329
47588W        W90641  23.235   3.390  26.355 -0.5201  0.2458 -0.0404
47589W        W90642  33.656  14.347  25.575 -0.0225 -0.0887  0.0229
47590W        W90643  23.847  26.294  22.001 -0.2902  0.0138 -0.1114
47591W        W90644   0.110  25.310   8.797  0.1463  0.0575 -0.3075
47592W        W90645  31.628   7.954   6.991  0.0788  0.1318 -0.3420
47593W        W90646  33.676  19.511   9.202  0.0626  0.0504 -0.0351
47594W        W90647  11.720  10.966  10.452 -0.3778 -0.0944  0.0280
47595W        W90648   0.099  32.103  26.873  0.1318  0.1081 -0.0109
47596W        W90649   9.143  26.549   3.705 -0.0441 -0.1149  0.2804
47597W        W90650  23.978  25.526  11.120  0.2016 -0.2160 -0.2596
47598W        W90651  31.232  30.839   3.592 -0.0235 -0.1191 -0.1882
47599W        W90652   6.239   2.393  24.206 -0.4859 -0.1513 -0.2931
47600W        W90653  13.133  11.623  16.884  0.0500  0.0311 -0.0788
47601W        W90654  25.922  22.877   3.798  0.1195  0.0131 -0.3180
47602W        W90655  25.342  13.415   5.077  0.2615  0.2711 -0.1475
47603W        W90656  28.667  10.410   7.707  0.0401 -0.0497  0.2223
47604W        W90657   9.379  31.248  25.555 -0.2125  0.1722  0.2589
47605W        W90658  21.434   1.622   9.466  0.3938 -0.0715  0.3544
47606W        W90659  29.540  28.149  26.418 -0.0906  0.1276 -0.2634
47607W        W90660   6.578  27.882   3.622  0.0934 -0.3983 -0.0233
47608W        W90661  18.072   8.172   1.160  0.2212 -0.0638  0.0397
47609W        W90662  27.709   2.273  28.534  0.1915 -0.2177  0.2272
47610W        W90663  20.448  26.840   2.039  0.2378 -0.2372  0.2111
47611W        W90664  16.708  18.431  25.036  0.3002 -0.1156 -0.1657
47612W        W90665  10.097   2.111   3.983  0.2647  0.2844 -0.1421
47613W        W90666  32.687  29.961  28.830 -0.3872 -0.1193 -0.1116
47614W        W90667  25.819  10.979   4.726 -0.1739 -0.1276 -0.0061
47615W        W90668  28.215  29.265  20.582  0.1757  0.0292 -0.0270
47616W        W90669  16.932  23.838   2.412  0.2890  0.3386 -0.0286
47617W        W90670  31.064  23.579  25.956 -0.2236  0.2493 -0.0402
47618W        W90671  30.538   1.914   3.016 -0.2392 -0.0477  0.2247
47619W        W90672  26.337  33.846   1.366 -0.0020 -0.2040 -0.0333
47620W        W90673   2.607  31.715   4.847 -0.0850  0.1520  0.1002
47621W        W90674  10.487  22.869   4.820 -0.1747 -0.3526 -0.3135
47622W        W90675  25.198  30.730  16.504  0.0752 -0.0007  0.2201
47623W        W90676  21.658  13.756   0.958 -0.0111 -0.2007 -0.2554
47624W        W90677   1.432  28.109   8.361  0.0159  0.1357 -0.1402
47625W        W90678  33.909  26.368   0.268 -0.0773  0.2504 -0.0669
47626W        W90679  28.340  19.472   5.638 -0.0695  0.0098  0.0914
47627W        W90680  23.406  19.863   9.317  0.2113  0.0187 -0.0608
47628W        W90681  11.944  27.306   7.076 -0.0601  0.0112  0.0869
47629W        W90682  14.296  10.882   9.638 -0.1381  0.0072  0.1618
47630W        W90683   1.681  18.347  20.889  0.4477  0.0758 -0.1701
47631W        W90684   4.661  21.828   0.439  0.2312 -0.2431  0.4342
47632W        W90685   0.303  17.771   7.177 -0.2035 -0.0148  0.0901
47633W        W90686  32.532  14.029   6.991  0.2191 -0.2241 -0.1096
47634W        W90687  29.917  21.853   1.083 -0.1378 -0.1618  0.1491
47635W        W90688  26.895   2.898   5.298  0.1180 -0.2419 -0.2411
47636W        W90689  29.824  20.377   4.910  0.0898  0.1395  0.1255
47637W        W90690  26.299  10.503  14.878 -0.4349 -0.0660 -0.0773
47638W        W90691  26.799  10.551   7.969 -0.0128 -0.1405 -0.2483
47639W        W90692  21.235   6.474   3.291  0.0454 -0.2410  0.4285
47640W        W90693   9.553  31.380   6.894 -0.2938  0.1314  0.2202
47641W        W90694  31.961  10.296   3.989 -0.1479  0.1718  0.3156
47642W        W90695   1.202  17.592   5.971 -0.2259  0.1613 -0.2982
47643W        W90696  27.723  22.890  25.821  0.2397 -0.0171 -0.0728
47644W        W90697  24.850  16.182  28.195 -0.2663  0.0947 -0.0034
47645W        W90698   5.696   0.807   6.756 -0.2804  0.1397 -0.0193
47646W        W90699  19.536  27.138  25.670  0.0391  0.2991  0.3036
47647W        W90700  29.447  24.852   0.858 -0.0696  0.0547 -0.2081
47648W        W90701  27.641  21.846   7.748  0.1812  0.1091 -0.0276
47649W        W90702  19.373  12.977   3.085  0.1507 -0.1350  0.0506
47650W        W90703   0.446   7.421   1.222 -0.4162  0.1515  0.1962
47651W        W90704  27.860  17.199   6.448  0.1547  0.0230 -0.2099
47652W        W90705  30.168  21.199   8.101  0.0838  0.0904 -0.1570
47653W        W90706   3.753  27.118  22.884  0.0630  0.0446  0.0965
47654W        W90707   0.300   4.222  16.619 -0.2505  0.0351  0.1192
47655W        W90708   7.955   6.583   0.426 -0.1934 -0.0551  0.1950
47656W        W90709  26.761  11.501   0.180  0.0994 -0.1632  0.0533
47657W        W90710  22.209  15.157  27.016  0.2345 -0.0796 -0.0987
47658W        W90711  25.599  15.754   1.214  0.0297 -0.2630 -0.2450
47659W        W90712  26.757  23.193  23.960  0.0514  0.0968 -0.3370
47660W        W90713  11.570  26.594  14.994  0.3655 -0.0786 -0.1967
47661W        W90714  32.181  31.636  26.926  0.1027 -0.1180  0.2420
47662W        W90715  31.275   6.115  22.748  0.0889  0.0753 -0.4028
47663W        W90716   0.236  11.930   4.567  0.1278 -0.0288 -0.2353
47664W        W90717   1.719  22.064   5.114  0.0862  0.1138 -0.3468
47665W        W90718  23.635  26.423  28.010 -0.1752 -0.0706 -0.1173
47666W        W90719   7.119   7.217   0.442 -0.1657 -0.0307 -0.0770
47667W        W90720  19.483   5.389   0.725  0.1313  0.1460 -0.0770
47668W        W90721   2.194  32.131   3.252 -0.1274 -0.2115 -0.0325
47669W        W90722   1.780  18.175  28.530 -0.0813  0.1840 -0.0323
47670W        W90723  19.485  13.557   0.450  0.0024  0.2249 -0.1305
47671W        W90724  30.648  15.092   4.407 -0.2823  0.1864 -0.0820
47672W        W90725  15.507  20.277   3.861 -0.1872  0.1698  0.0999
47673W        W90726  30.676  23.074   5.722 -0.1683  0.1293 -0.0194
47674W        W90727  19.303  29.593  24.334 -0.2298  0.2386  0.0229
47675W        W90728  33.797  16.987   0.718 -0.2110  0.0588 -0.4907
47676W        W90729  24.670  21.725   8.180 -0.3256  0.5745 -0.3147
47677W        W90730  21.329  15.242   8.296 -0.1589  0.2622  0.2133
47678W        W90731  25.743  23.819   1.538  0.0646  0.1863  0.1701
47679W        W90732  32.235  26.634   1.310  0.0225  0.1572 -0.2147
47680W        W90733  15.564  20.871   0.199  0.0933  0.1560  0.0417
47681W        W90734   8.865  24.778   2.271 -0.3243 -0.0911 -0.0315
47682W        W90735  28.868  28.314   3.807  0.2432 -0.0377  0.0794
47683W        W90736   5.112  33.858  25.896 -0.1049 -0.0189 -0.0823
47684W        W90737   2.462  14.981   5.209 -0.0929 -0.3917 -0.0267
47685W        W90738  19.980  33.194   6.551 -0.0446  0.1449 -0.1011
47686W        W90739  19.620  31.453   9.993  0.0657  0.0281  0.2205
47687W        W90740  29.220   2.098   2.871  0.5062  0.1976 -0.1004
47688W        W90741  33.417  18.012   7.586  0.0571  0.0728  0.1793
47689W        W90742  25.546   6.059  22.587  0.2306  0.1599 -0.0454
47690W        W90743  21.875   6.841   2.779  0.2981  0.0550 -0.0759
47691W        W90744  22.443  14.515  24.939  0.1830 -0.2683  0.2265
47692W        W90745  26.705   1.359  15.849  0.0317  0.2367 -0.1806
47693W        W90746   3.995  18.780   5.786  0.1184  0.0684  0.1424
47694W        W90747  26.606  18.793   9.917  0.1589  0.1378  0.0333
47695W        W90748  19.805  30.379   8.660  0.1482  0.2124  0.0652
47696W        W90749   3.466  33.038  22.936  0.3803  0.2275 -0.1219
47697W        W90750  20.237  19.339   2.193  0.0352  0.2694 -0.0724
47698W        W90751  23.472  18.377  15.055 -0.0198  0.2169  0.2585
47699W        W90752   9.039  16.006   5.426 -0.2349 -0.0975 -0.0626
47700W        W90753  28.877  32.840   3.938  0.0269  0.0215 -0.2070
47701W        W90754  25.999   6.071   6.714 -0.3058  0.1187  0.0470
47702W        W90755  17.282  27.817   1.107 -0.0361  0.0570  0.0629
47703W        W90756  27.848   9.439   2.189  0.3079  0.2037  0.0195
47704W        W90757  24.363  31.266   6.045 -0.4048  0.5610 -0.1112
47705W        W90758  16.650  18.295   7.823 -0.3950 -0.2183  0.1421
47706W        W90759  27.170  22.232   6.736  0.0553  0.1005 -0.5367
47707W        W90760  22.885   8.240  25.557  0.3274  0.1348 -0.2167
47708W        W90761  19.318   3.801   5.380  0.0720  0.1574  0.0811
47709W        W90762  29.310  21.661   8.588  0.4694  0.3209 -0.2577
47710W        W90763   5.971  27.904   8.711  0.1272  0.0398  0.1381
47711W        W90764   5.396  22.059   9.257 -0.0949 -0.0461  0.1691
47712W        W90765   4.001   2.079   3.028 -0.0331  0.0828  0.0147
47713W        W90766  10.231  26.612  13.327  0.1150  0.0252 -0.0018
47714W        W90767  26.452  17.934   4.109 -0.0208  0.0836 -0.1834
47715W        W90768  32.890  32.811   5.621 -0.0091 -0.0065 -0.0321
47716W        W90769  34.582  22.944   7.949 -0.0650  0.1320  0.2207
47717W        W90770  34.419  25.833   5.952 -0.1518  0.1109 -0.3957
47718W        W90771  33.512   1.531   0.162 -0.4495 -0.0490 -0.1244
47719W        W90772  22.279  27.285   4.655 -0.0513  0.1668 -0.1424
47720W        W90773  17.964  33.213   5.002 -0.0538  0.0427  0.0548
47721W        W90774  18.063   1.248   2.927 -0.0309 -0.2085  0.1200
47722W        W90775  17.136   9.101   8.397  0.0110 -0.0963 -0.0633
47723W        W90776   2.043  13.848   0.354  0.0077 -0.0784 -0.1325
47724W        W90777  26.921  24.952  27.372 -0.0843 -0.5914 -0.3151
47725W        W90778  23.972  23.845  11.026 -0.2742  0.1285 -0.1830
47726W        W90779  10.172  27.824   1.321  0.0672  0.3174  0.0669
47727W        W90780   1.448   7.704   8.128 -0.0772  0.0463 -0.0894
47728W        W90781  25.380  31.209  23.172 -0.2490 -0.1626  0.1581
47729W        W90782  27.387  20.217   8.033 -0.0665  0.4959 -0.1750
47730W        W90783  32.055  16.569   9.999 -0.2035  0.0542 -0.2316
47731W        W90784  28.487  23.473   6.559 -0.0123 -0.1739  0.1331
47732W        W90785  30.597  30.719   8.322 -0.0766 -0.0342  0.1347
47733W        W90786   7.087  15.793  15.192  0.0444 -0.0838 -0.2383
47734W        W90787  13.040  14.648   8.803  0.1134 -0.0216 -0.0590
47735W        W90788  24.862  24.976  11.044  0.1410 -0.2337 -0.0861
47736W        W90789  29.634  18.364   3.566  0.0041 -0.0945 -0.2162
47737W        W90790  31.007  25.460   8.790  0.2529 -0.1536 -0.1318
47738W        W90791  26.921  18.602   3.302 -0.0841 -0.2954  0.2014
47739W        W90792   9.984   3.380   7.707  0.0055 -0.1768  0.0671
47740W        W90793  25.250  30.088   6.911 -0.1649  0.1374 -0.4374
47741W        W90794  11.400  19.945  25.807 -0.1415  0.1748  0.1149
47742W        W90795  19.657  30.580  10.286 -0.0655  0.3532  0.2370
47743W        W90796  28.215   9.978   4.802  0.3811  0.0921 -0.2818
47744W        W90797  21.783  33.452   6.212  0.1159  0.0238 -0.2892
47745W        W90798  29.420   5.527   2.797  0.0919  0.2968  0.1706
47746W        W90799  28.022   7.058  27.857  0.3257  0.0093  0.0060
47747W        W90800  26.386  28.235  27.536 -0.2053  0.0202 -0.0987
47748W        W90801  28.934  28.080   5.539  0.0258 -0.0033  0.0001
47749W        W90802  26.888  21.564   3.069  0.3625 -0.0318 -0.0633
47750W        W90803  23.589  24.708  27.967 -0.2985  0.1741 -0.2643
47751W        W90804   5.482  29.722  26.669  0.1531 -0.2375 -0.0999
47752W        W90805   2.652  18.617   4.060 -0.0322 -0.3581  0.0727
47753W        W90806  24.458   2.229   6.824 -0.1054 -0.4274 -0.0840
47754W        W90807  34.160   4.384  25.758  0.2214  0.0106 -0.2027
47755W        W90808  26.043  20.514   5.038  0.0564  0.1851  0.0526
47756W        W90809   2.854  21.245  25.217  0.0757  0.1739 -0.0871
47757W        W90810  28.558  14.413  27.942  0.1890 -0.0701  0.1967
47758W        W90811  34.294   8.264  10.739  0.0600 -0.0486 -0.1245
47759W        W90812  27.744   5.289  10.148  0.0968 -0.2499 -0.0726
47760W        W90813  23.546  13.970  28.833  0.1938  0.3917  0.0658
47761W        W90814  29.088  19.619   7.418  0.0541  0.3572 -0.2732
47762W        W90815   8.516  22.533  22.303 -0.0312  0.0372 -0.0870
47763W        W90816  19.709  28.207   2.338  0.4212 -0.1733  0.0393
47764W        W90817  21.015  34.117  26.977  0.1354  0.0938 -0.1855
47765W        W90818   5.573  21.358   1.054 -0.2055  0.0473  0.0595
47766W        W90819   3.224  27.244   6.821 -0.0680  0.1465 -0.2195
47767W        W90820   6.515  19.377  27.995 -0.1162  0.8152 -0.3125
47768W        W90821  20.494  25.518   9.453  0.0694  0.0018  0.2928
47769W        W90822   3.139   9.840   8.296 -0.2308 -0.0350 -0.1551
47770W        W90823   0.873  19.174   5.091  0.1399  0.0939  0.4050
47771W        W90824  21.266   9.626   5.697 -0.0088 -0.3409 -0.0383
47772W        W90825   4.381  26.168   7.593  0.4133  0.0878  0.1281
47773W        W90826  28.534  21.679  25.425 -0.1940  0.0316 -0.1661
47774W        W90827   5.261   0.608   8.021  0.0675  0.0871 -0.2435
47775W        W90828  29.729   4.256  25.460 -0.1404 -0.0571  0.0231
47776W        W90829  16.102  31.746   3.527  0.2993  0.1131 -0.3073
47777W        W90830  23.533  18.234   3.634 -0.0089  0.1700  0.3834
47778W        W90831  28.514  10.861   9.485 -0.1055 -0.1726 -0.1474
47779W        W90832  33.979   7.089   4.502  0.0552  0.3242  0.0913
47780W        W90833  18.560  23.385   9.591  0.1379  0.2585  0.3256
47781W        W90834   2.598  25.607   2.637 -0.1737  0.0018  0.1405
47782W        W90835  22.882  34.465   5.303 -0.2832 -0.3011 -0.1112
47783W        W90836   0.368  11.113  24.780 -0.0004 -0.1459 -0.0807
47784W        W90837   9.681  21.333   1.837 -0.0547 -0.1088 -0.1485
47785W        W90838   7.238  10.145   9.386 -0.0744  0.1992  0.1077
47786W        W90839  28.896  29.775  21.550  0.2977 -0.1414 -0.0450
47787W        W90840   5.599  20.149  27.790  0.2750 -0.1469  0.1430
47788W        W90841   2.118  14.561   6.159  0.1534  0.0624  0.0753
47789W        W90842  33.490  13.146   4.229  0.0141 -0.0498 -0.2534
47790W        W90843   4.856  13.541  28.154  0.1057 -0.1024  0.2471
47791W        W90844   9.424  16.431  26.107  0.0396  0.2095  0.1933
47792W        W90845   4.815  28.959  22.701 -0.1512  0.1814 -0.1360
47793W        W90846   7.109   9.918  10.536 -0.1983  0.3470 -0.4226
47794W        W90847  21.814  20.586   7.714  0.2601  0.2421 -0.1347
47795W        W90848  31.770   6.779   2.739 -0.1103 -0.0420  0.0970
47796W        W90849   9.383  24.955   7.088 -0.0986  0.0118  0.1907
47797W        W90850  32.116  32.703  27.997 -0.3999  0.0296 -0.2337
47798W        W90851  24.023  14.750   5.681 -0.0167  0.0674  0.2270
47799W        W90852  21.540  23.671  10.123 -0.0096  0.1133  0.2932
47800W        W90853  13.684  16.891   6.497  0.1656 -0.2902 -0.1770
47801W        W90854  19.940  19.862  26.942 -0.0227 -0.0486 -0.0198
47802W        W90855  20.232  24.433   7.343  0.0133  0.0579 -0.3947
47803W        W90856   4.157  29.246   2.605  0.1779 -0.1048 -0.1825
47804W        W90857  31.205  24.460  21.317  0.0339 -0.1242  0.0979
47805W        W90858  27.961   1.567   6.814 -0.2536  0.0482 -0.0182
47806W        W90859   3.178  30.870   8.783  0.1897  0.2448 -0.0940
47807W        W90860  34.128   9.855   2.750 -0.1135  0.3288  0.1579
47808W        W90861  18.930   6.826  24.586 -0.1583 -0.0189 -0.0193
47809W        W90862  28.281  13.476   8.741 -0.0385  0.2367 -0.4187
47810W        W90863  26.796  23.339   6.112  0.1402 -0.0275  0.0399
47811W        W90864   9.076  34.138   7.777  0.3925 -0.1003 -0.1644
47812W        W90865   0.495  16.281   9.187  0.2114 -0.1015 -0.0007
47813W        W90866   0.383  32.756   8.580  0.1072  0.0187 -0.3061
47814W        W90867  25.711  23.012   1.152 -0.2083  0.0017  0.3449
47815W        W90868   7.692  22.352   4.824 -0.1725 -0.1332  0.0515
47816W        W90869  29.922  11.816  21.985  0.0863  0.0418  0.0590
47817W        W90870  28.827  13.603   9.105 -0.1632  0.2521 -0.1697
47818W        W90871  11.476  25.306   7.757  0.1698 -0.1078 -0.2475
47819W        W90872  27.931  25.331   8.376  0.0705  0.0049  0.0316
47820W        W90873  17.377  10.268  22.099  0.1640 -0.0939  0.0298
47821W        W90874   3.419  13.421  16.371  0.1210 -0.1650  0.1629
47822W        W90875  26.179   8.033  21.454 -0.1994 -0.1282  0.0428
47823W        W90876  34.216  25.618   0.949  0.3561  0.0304 -0.0018
47824W        W90877   0.139  29.784   7.406  0.2064 -0.3595 -0.0466
47825W        W90878  24.545  21.741   7.589 -0.1044 -0.0475  0.2775
47826W        W90879  14.129  22.287  15.119 -0.2141  0.0931  0.1520
47827W        W90880  31.708  33.942   3.149  0.0221 -0.1574  0.1226
47828W        W90881  11.929  34.310  16.863 -0.0084 -0.0582 -0.0787
47829W        W90882   6.828  25.404   7.821  0.0560  0.2202  0.2054
47830W        W90883  30.210  25.004   6.799 -0.1400 -0.1459  0.0558
47831W        W90884  34.069  28.621   9.550 -0.0973 -0.0033 -0.1932
47832W        W90885  31.494   0.162   9.653 -0.2012  0.2339 -0.1831
47833W        W90886  19.812  19.335   8.322 -0.0941 -0.0024 -0.2092
47834W        W90887   8.863  15.149   7.611  0.2037 -0.2726  0.1693
47835W        W90888  24.671  13.758  10.039  0.2102  0.3044 -0.1013
47836W        W90889   5.548  16.794   2.515 -0.0790 -0.2284  0.2126
47837W        W90890   3.596  21.991  29.193  0.0215 -0.1253 -0.0611
47838W        W90891  21.922  30.406  25.619 -0.0551 -0.0663 -0.1932
47839W        W90892  31.264  31.061   7.308  0.1372  0.1866 -0.0836
47840W        W90893  32.439  29.348   4.296 -0.0568  0.3406  0.0427
47841W        W90894  22.300  24.759   4.239  0.2010 -0.0628  0.2198
47842W        W90895  23.118  25.712   5.050  0.0995  0.0463 -0.3672
47843W        W90896  26.730  19.756   4.311 -0.1417  0.1294  0.1052
47844W        W90897  13.584  32.503  10.682  0.2034 -0.0009  0.0469
47845W        W90898  26.076  17.309  26.737  0.3545 -0.2575 -0.0634
47846W        W90899  29.893  21.332   5.201 -0.0253 -0.1164 -0.1199
47847W        W90900  19.499  24.101  26.273 -0.0346  0.0423 -0.0303
47848W        W90901   0.235  13.395   2.364  0.1858 -0.1736  0.4465
47849W        W90902   0.712  23.598   2.644  0.1191 -0.1938  0.0287
47850W        W90903   2.833   0.818   0.512 -0.0892 -0.4198  0.0339
47851W        W90904  15.194  24.330  10.739  0.2577 -0.1604  0.0954
47852W        W90905  26.240  13.757   5.576 -0.1802  0.1751  0.0785
47853W        W90906  33.899  14.175   0.894 -0.1485  0.1077  0.0970
47854W        W90907  33.550  13.619   9.614  0.3128  0.2034 -0.2333
47855W        W90908  29.819  27.309  26.463  0.0536 -0.2789 -0.0255
47856W        W90909   3.961  31.450  28.089  0.0125 -0.1472 -0.1012
47857W        W90910   4.743  34.676  28.776 -0.2043 -0.1050 -0.1254
47858W        W90911  15.097  34.321   7.416 -0.0024  0.0676  0.1715
47859W        W90912  32.963  14.924   9.669  0.1963  0.2869 -0.2491
47860W        W90913  16.727  31.508   2.698 -0.0699  0.0370 -0.1975
47861W        W90914  16.263  29.996   1.368  0.2686  0.1462 -0.0188
47862W        W90915   0.430  25.114   2.849 -0.1868  0.0322  0.0773
47863W        W90916  32.915  22.312  20.602  0.1174  0.1020 -0.1733
47864W        W90917  27.148  27.628  25.753 -0.0633 -0.4951  0.1506
47865W        W90918  29.168  21.011   6.729  0.2048 -0.2647 -0.0763
47866W        W90919  30.960  16.860  14.790  0.0860  0.3218  0.0658
47867W        W90920  23.530  26.850  20.424  0.0459 -0.1472  0.2402
47868W        W90921   5.779  27.153  20.627 -0.1079  0.4362  0.0638
47869W        W90922   9.457  22.075  10.383 -0.0680 -0.0386 -0.0847
47870W        W90923  10.785  19.607   9.859 -0.1954 -0.3306  0.3478
47871W        W90924  23.697  18.802   9.370 -0.0682 -0.0472 -0.0137
47872W        W90925  32.885  27.149   4.757 -0.0936  0.0533  0.1375
47873W        W90926  34.331  22.843   1.805 -0.0336  0.1733  0.3438
47874W        W90927  25.549  13.902   0.596 -0.0073  0.0080  0.0739
47875W        W90928  14.049  15.384   8.211  0.0145  0.1596 -0.0631
47876W        W90929   2.469  26.681   4.275  0.0294 -0.1244 -0.1437
47877W        W90930  28.570  18.590   0.788  0.1426  0.1411 -0.0098
47878W        W90931   3.631   6.027   8.811 -0.1608 -0.1244  0.3228
47879W        W90932  30.965  13.969   5.713  0.2742  0.3364  0.0742
47880W        W90933   3.194   3.496   2.438 -0.1154 -0.1422 -0.1717
47881W        W90934  32.390  15.505   5.198  0.3360  0.2430  0.1902
47882W        W90935  31.373  24.672   5.324  0.1188  0.0474 -0.1109
47883W        W90936  20.545  19.478  23.657  0.0541  0.2689 -0.2189
47884W        W90937  31.979   7.589   4.444 -0.0900  0.0937  0.0856
47885W        W90938  24.874   1.960  17.958  0.1474 -0.2555  0.0929
47886W        W90939  11.375  26.030   9.165  0.1241  0.1369  0.0950
47887W        W90940  33.494  15.045   5.708 -0.1672 -0.0100 -0.0621
47888W        W90941  28.159  20.139  16.037 -0.1432  0.0096  0.0956
47889W        W90942   1.661  24.850   5.994 -0.1944 -0.0755  0.1618
47890W        W90943  27.564  27.368   1.064  0.3119 -0.0203  0.1518
47891W        W90944   9.633  29.490   2.952 -0.2371  0.2692  0.1759
47892W        W90945  21.667  25.984  10.499 -0.2158  0.2387 -0.3121
47893W        W90946  24.511   5.599   1.132  0.0605 -0.0709 -0.0841
47894W        W90947  24.681  15.214   5.280  0.3117 -0.1031  0.3626
47895W        W90948  25.081  24.015   7.020 -0.2166  0.1725 -0.0124
47896W        W90949   4.634  18.039   1.401  0.0343  0.0978 -0.1402
47897W        W90950  29.942  29.381   9.718 -0.1781 -0.0234  0.0416
47898W        W90951  11.594  19.903   9.338  0.0265  0.0493 -0.1425
47899W        W90952   7.273   4.783  10.419 -0.1904 -0.0633  0.6503
47900W        W90953  28.733  25.730   5.376 -0.3134  0.2694  0.1653
47901W        W90954   4.077  28.650  28.084  0.3653 -0.1593  0.3897
47902W        W90955  24.751  18.762   3.111  0.2451  0.2909 -0.4204
47903W        W90956  14.559  10.088   8.113 -0.0701  0.2171  0.1748
47904W        W90957   6.925  21.662   7.042 -0.2585  0.2692 -0.0208
47905W        W90958  13.660  20.274   1.629  0.0532 -0.5541  0.0351
47906W        W90959   4.884  21.564  19.814  0.2331  0.5372 -0.2489
47907W        W90960   1.234  26.953   9.823  0.3756  0.1744 -0.0276
47908W        W90961   9.031  19.403  24.611 -0.0668  0.0445 -0.0401
47909W        W90962  29.094  23.575   4.363  0.0825  0.2874 -0.0144
47910W        W90963   5.106  31.960  17.699  0.0550 -0.0598  0.0010
47911W        W90964  26.892   6.924   6.886 -0.0936 -0.2297  0.2342
47912W        W90965  24.003  18.791   2.556 -0.1690 -0.3498 -0.0557
47913W        W90966  17.776  14.493   3.822  0.2196 -0.0479  0.0250
47914W        W90967   7.680   4.210   9.217 -0.0345 -0.0425 -0.1060
47915W        W90968  26.103  19.142   6.229  0.0280  0.0099 -0.0639
47916W        W90969  31.542  34.035   9.367  0.0403  0.1797  0.0133
47917W        W90970  32.321  16.438   8.300 -0.3235  0.2363 -0.3589
47918W        W90971  17.401  18.607   1.715 -0.0479 -0.1248  0.0089
47919W        W90972  34.516   9.902   0.585 -0.0424 -0.3221  0.2613
47920W        W90973  27.848  24.000   5.414 -0.0200 -0.3175  0.3093
47921W        W90974   2.374  16.333   6.639 -0.0191 -0.1333  0.1986
47922W        W90975  16.916  27.950   9.733  0.2246 -0.1926 -0.0218
47923W        W90976   3.477  23.538   6.485  0.0996  0.2277  0.3162
47924W        W90977  28.594  27.902   4.033  0.0459 -0.0524 -0.0714
47925W        W90978  11.285  25.638   9.446  0.0482  0.1688 -0.1980
47926W        W90979  31.727   6.544  26.408 -0.3897  0.2120  0.2481
47927W        W90980  19.742  21.539   2.260 -0.1095 -0.1058 -0.0572
47928W        W90981   5.618  15.860  28.424  0.3934  0.1743 -0.0287
47929W        W90982   1.713  23.174   9.275  0.1422  0.2217 -0.2311
47930W        W90983  24.514  29.977   0.605  0.0471  0.1585 -0.1919
47931W        W90984  23.311  22.440  18.378  0.2652 -0.0180  0.0852
47932W        W90985  24.238  10.564   5.533 -0.3071  0.1330  0.1161
47933W        W90986  27.853  20.029   4.261  0.1484  0.0399 -0.1187
47934W        W90987   7.748  28.056  21.446 -0.1643  0.0836 -0.1483
47935W        W90988  27.054  22.469   9.112  0.0267 -0.2943 -0.4015
47936W        W90989  19.486  34.527   9.684  0.1986 -0.1441  0.0757
47937W        W90990  32.565  13.530   2.548  0.1255 -0.0525  0.2021
47938W        W90991  19.066  28.840   9.010  0.1450 -0.1093  0.2961
47939W        W90992   2.774  25.832  26.948  0.1060  0.1728  0.1711
47940W        W90993  27.580  19.621   1.768 -0.1690  0.0968 -0.3320
47941W        W90994  20.063  18.144   5.265  0.2635  0.3213  0.2657
47942W        W90995   7.763  12.554  27.268  0.0615 -0.0386 -0.1928
47943W        W90996  25.766  11.632   3.148 -0.0659 -0.1759  0.2384
47944W        W90997  19.779   5.101   7.269 -0.2048  0.1312 -0.2522
47945W        W90998  30.303  25.237  28.944  0.1824 -0.1100  0.1838
47946W        W90999   4.955   4.211   7.586  0.0451 -0.2814 -0.1233
47947W        W91000  26.023  20.986   4.072 -0.0865  0.0670 -0.0071
47948W        W91001   1.280  10.392   4.094  0.0774 -0.2033  0.0575
47949W        W91002  26.414  21.579   6.033  0.0050 -0.3454  0.0635
47950W        W91003   6.959  25.482  19.352 -0.2752 -0.1251 -0.3997
47951W        W91004  26.145  24.804   8.862 -0.0100  0.2162 -0.0655
47952W        W91005  24.833  23.910   1.080 -0.0101 -0.1016  0.1594
47953W        W91006   7.891  23.336   1.561  0.2255  0.0803  0.2915
47954W        W91007  32.276  27.630   6.508  0.0279  0.1548  0.1202
47955W        W91008   1.633  23.057   7.672  0.1292  0.0587  0.0137
47956W        W91009  33.492   8.687   2.402 -0.2241 -0.1470  0.0716
47957W        W91010   0.571  12.873   9.550  0.0574  0.4609 -0.1055
47958W        W91011   6.308  34.010   6.152  0.0316 -0.5166 -0.3030
47959W        W91012  32.752  21.696  23.388  0.1300  0.4477  0.0965
47960W        W91013   0.173   2.033  28.290  0.0655  0.3416  0.0113
47961W        W91014   7.138  27.140   8.081  0.2789 -0.2660 -0.2810
47962W        W91015  23.531  27.326   8.040 -0.2099  0.2011 -0.1183
47963W        W91016  33.539  18.916  25.199  0.0841  0.0227 -0.1173
47964W        W91017  29.136  13.694   1.876 -0.0459 -0.0141  0.1527
47965W        W91018   0.359  19.634  18.559 -0.2188 -0.1122 -0.2210
47966W        W91019  30.818  27.929   3.751  0.0911 -0.0240  0.1078
47967W        W91020  14.726  15.648  28.703 -0.1522 -0.1882  0.1914
47968W        W91021  22.030  32.994  22.146 -0.3772 -0.2411 -0.0315
47969W        W91022  30.498  18.723  19.996 -0.1338  0.1619  0.0783
47970W        W91023  28.539  31.492   3.262  0.0310 -0.0288 -0.0476
47971W        W91024  12.800   0.456   1.033  0.0755  0.0659 -0.1555
47972W        W91025   0.006  20.209   5.470  0.4350  0.1378  0.1976
47973W        W91026  10.707  16.269  19.375  0.0008  0.1027 -0.0201
47974W        W91027  21.177  28.871   9.495 -0.1161  0.0625  0.0936
47975W        W91028   2.984  16.506  28.958 -0.0183 -0.2007 -0.1674
47976W        W91029  14.491  21.602   7.743  0.0521  0.0300  0.0178
47977W        W91030  14.639  31.907  28.916  0.5513  0.0764 -0.1318
47978W        W91031  30.802  13.037  27.894  0.2634  0.0504  0.0539
47979W        W91032  33.124  32.727   6.663 -0.4109 -0.1080  0.0603
47980W        W91033  17.144  22.536  27.733 -0.2524 -0.0472  0.2391
47981W        W91034  32.427  15.549  19.651  0.0006  0.0457 -0.0201
47982W        W91035  26.274  17.036   3.589 -0.0015 -0.0437  0.2041
47983W        W91036   1.009  16.652   3.062 -0.3009  0.1626 -0.2017
47984W        W91037   6.530  14.069   8.549  0.0381 -0.2883 -0.1301
47985W        W91038  14.867  14.712   7.009 -0.2244  0.0957 -0.0177
47986W        W91039  28.751  24.730  10.529 -0.2075  0.1695 -0.2412
47987W        W91040  28.720   7.831  10.832  0.1153  0.7284  0.0627
47988W        W91041   0.675   0.952   5.786 -0.4239 -0.3703 -0.0097
47989W        W91042  32.898  31.605   2.304  0.0850 -0.2166 -0.3673
47990W        W91043  33.748  25.427   9.745 -0.1223 -0.0870 -0.2410
47991W        W91044   4.006  14.572   5.414 -0.4239 -0.0732 -0.0794
47992W        W91045  19.621  19.042  24.742 -0.2975 -0.3714  0.1083
47993W        W91046  26.047   6.837   0.753 -0.0875 -0.0560 -0.1283
47994W        W91047   8.523   3.563   4.416 -0.3391 -0.1280  0.2516
47995W        W91048  22.974  20.943  28.661  0.2294  0.0421 -0.1609
47996W        W91049  24.824  25.815   8.708  0.5239  0.2466  0.0149
47997W        W91050   6.037  28.337  26.842 -0.3373 -0.4770  0.0350
47998W        W91051  21.309   0.217  28.661 -0.1209  0.1268  0.0960
47999W        W91052  26.532  29.768  23.136 -0.1921  0.0464 -0.1260
48000W        W91053   8.188  10.386   3.608 -0.1546  0.0324  0.3689
48001W        W91054   0.326  15.665  19.607 -0.2585 -0.2485  0.1295
48002W        W91055  13.711  12.237   9.895  0.1988 -0.0335 -0.1134
48003W        W91056   8.254   9.788   8.556 -0.1879  0.3142 -0.0687
48004W        W91057  31.870  18.955  27.364  0.2054 -0.2740  0.5050
48005W        W91058   5.906  30.497   1.529 -0.1161  0.0183 -0.0245
48006W        W91059  33.255  23.851   7.217  0.0351  0.0674 -0.2907
48007W        W91060  22.887  27.753  20.511  0.0146 -0.0125 -0.0259
48008W        W91061  30.327   9.518   6.355  0.0351  0.0154  0.0946
48009W        W91062  18.706  20.579   1.130  0.1465  0.2249  0.1481
48010W        W91063  20.001  11.854  18.198 -0.1477  0.0605  0.2772
48011W        W91064  26.171  32.467  24.752 -0.1277 -0.1341  0.0405
48012W        W91065  27.130  25.852   2.120 -0.0378  0.2113  0.3644
48013W        W91066   5.768   6.172  27.699 -0.1402 -0.1904 -0.0937
48014W        W91067  33.802   2.214  25.271 -0.1585 -0.1009  0.1106
48015W        W91068  19.567  17.822  26.508 -0.3931  0.1761 -0.6213
48016W        W91069  31.392   9.386   1.062  0.0224 -0.1468 -0.3271
48017W        W91070  25.894   1.427   6.994 -0.0963 -0.1488  0.0794
48018W        W91071  29.894  21.005   6.162  0.1339 -0.0303 -0.0917
48019W        W91072  30.294  12.338  22.291  0.0787 -0.0499  0.0415
48020W        W91073  28.393  28.598   6.584  0.1281 -0.5610 -0.2738
48021W        W91074  28.350   8.500   9.567  0.1504 -0.0854  0.0643
48022W        W91075  13.647  10.169   1.981  0.1573  0.2807 -0.1579
48023W        W91076   2.281  25.176  15.743 -0.2306 -0.3347  0.1570
48024W        W91077   7.149  26.054  24.768  0.0908  0.2009 -0.4001
48025W        W91078  24.902  32.695   6.687  0.0827  0.1610 -0.0733
48026W        W91079  34.051   5.250  22.587  0.0537 -0.3432  0.0096
48027W        W91080  32.974  31.477  17.314 -0.0195  0.2048  0.0332
48028W        W91081  31.901   0.976  28.870 -0.0212  0.1219  0.1789
48029W        W91082  25.071  28.029   3.406  0.0040  0.0288 -0.2740
48030W        W91083  27.705  16.622  28.095  0.0492 -0.3014 -0.0010
48031W        W91084  32.811   7.383   8.132  0.1901 -0.0604 -0.0592
48032W        W91085   1.297  34.058   7.249  0.0559  0.0843  0.1085
48033W        W91086  18.258  24.447  14.486  0.1288 -0.1062  0.0535
48034W        W91087  34.571  20.170  28.132  0.4422  0.1936 -0.0905
48035W        W91088  23.883  15.742  23.484  0.1088 -0.0347  0.0331
48036W        W91089   7.589  18.030   3.594  0.0300  0.1088  0.0279
48037W        W91090  27.794  29.901   8.017  0.2087 -0.3397 -0.3212
48038W        W91091   1.585   7.528   5.055 -0.0117 -0.0200 -0.1129
48039W        W91092  10.919  26.242  28.477 -0.1320 -0.0221  0.0016
48040W        W91093   1.032  16.387  21.180 -0.3546  0.1236 -0.2072
48041W        W91094  14.810  27.250  21.944 -0.2161  0.1406 -0.1897
48042W        W91095  18.259  24.866  17.987  0.1174 -0.0506  0.1666
48043W        W91096  21.971   9.702   0.980  0.2727  0.0585 -0.1653
48044W        W91097  21.261  27.546  25.958  0.0403 -0.2147  0.2869
48045W        W91098  31.928  16.567   8.681 -0.3183  0.0738 -0.0037
48046W        W91099  10.307  19.658   8.581 -0.4342 -0.0003 -0.0245
48047W        W91100  28.209  27.351   8.981 -0.0748  0.1776  0.2008
48048W        W91101  31.033  24.790  17.247 -0.2105 -0.0886  0.0114
48049W        W91102   2.828   0.959  22.882  0.1764 -0.1024 -0.1282
48050W        W91103  27.273   9.347  19.934  0.0582  0.2417 -0.0551
48051W        W91104  26.586  30.306   5.591  0.1937 -0.0545  0.0553
48052W        W91105  31.026  12.351  29.102  0.4929  0.1739 -0.0397
48053W        W91106  12.066  21.863  19.975  0.1504  0.0332  0.1995
48054W        W91107   0.494   0.723   3.124  0.1116  0.1708 -0.0041
48055W        W91108   5.216   5.025   5.305  0.0455  0.0427  0.1802
48056W        W91109  22.871   8.075  23.330  0.0342 -0.1000  0.0040
48057W        W91110  17.074  24.613  26.915 -0.0957  0.1119 -0.0835
48058W        W91111  33.706  24.062  25.272  0.0629  0.1711 -0.1805
48059W        W91112   3.058  25.226   5.752  0.3215  0.0999 -0.1247
48060W        W91113  21.975  18.350   1.093  0.1786 -0.0261 -0.1895
48061W        W91114  16.069  34.152   6.678  0.0111  0.0142  0.3485
48062W        W91115  32.788   4.893  15.915 -0.0487  0.2593  0.0648
48063W        W91116  24.886  34.412  22.205 -0.0886 -0.0308 -0.1183
48064W        W91117  30.109   5.299  27.296 -0.1161 -0.4433 -0.0511
48065W        W91118  12.384  27.211  24.249  0.1237 -0.1350  0.1716
48066W        W91119  20.625  18.235   5.037  0.2113  0.3770  0.2896
48067W        W91120   0.644  29.391   7.879 -0.1547  0.1318  0.3571
48068W        W91121   6.706  27.793   2.725 -0.1574 -0.1503 -0.0642
48069W        W91122  26.023  25.606   6.491  0.1128  0.1365  0.2821
48070W        W91123  20.504  27.882  20.930 -0.1465  0.0905 -0.2716
48071W        W91124  30.488  25.420   7.936  0.1763  0.2243 -0.0462
48072W        W91125  28.200  27.647   5.167 -0.0429  0.3569 -0.0879
48073W        W91126  29.254   0.525   9.674  0.0874  0.0910  0.2596
48074W        W91127  24.560  25.790   0.021 -0.2610 -0.0342  0.1515
48075W        W91128   6.926  18.364  23.820 -0.0388 -0.0323 -0.1145
48076W        W91129  30.379   0.621   5.908  0.4467 -0.4241  0.1942
48077W        W91130  33.136  27.619  14.792 -0.0053  0.0092  0.2013
48078W        W91131  28.824  31.645  26.599 -0.0307  0.2102  0.0364
48079W        W91132  29.852   6.081   3.995 -0.2094 -0.3391 -0.0871
48080W        W91133  29.478  31.203  24.524  0.0482  0.1354 -0.0003
48081W        W91134  33.996  28.818   7.732  0.3570 -0.0179  0.0231
48082W        W91135  27.018  34.629  24.376 -0.0846  0.0443 -0.1812
48083W        W91136  16.579  22.422  20.213  0.2131  0.1037  0.1722
48084W        W91137  25.101   1.152  23.109  0.2551 -0.1850  0.0665
48085W        W91138  29.661   1.574   2.772 -0.2730  0.0380  0.1185
48086W        W91139  15.028  11.436  27.688 -0.2189 -0.1202 -0.0946
48087W        W91140   5.214  15.990   4.389  0.0686 -0.1425  0.3161
48088W        W91141  20.453   6.779  15.291  0.0551 -0.0771  0.3042
48089W        W91142   7.191  19.479  16.891  0.4761  0.1025 -0.0028
48090W        W91143   2.019  27.725  21.350 -0.2531 -0.1058 -0.0556
48091W        W91144   0.200   8.434   8.530  0.1974 -0.1379  0.0439
48092W        W91145   4.163   7.170   0.550 -0.3217 -0.0132  0.0257
48093W        W91146  30.848  33.353  20.969 -0.0300  0.3010 -0.2538
48094W        W91147   2.799   2.332  18.687 -0.1209 -0.0970 -0.1817
48095W        W91148  33.508  30.802  20.785 -0.2139 -0.0296 -0.0225
48096W        W91149  28.367  18.653  26.612 -0.2514 -0.1551 -0.0709
48097W        W91150  32.708  18.121  26.337  0.1196  0.4429 -0.1888
48098W        W91151  25.743  32.161   0.744 -0.2555 -0.1415  0.0958
48099W        W91152  27.803  26.006   8.903  0.2562 -0.3047 -0.2471
48100W        W91153  26.072  24.317  18.960  0.0270  0.2985 -0.1462
48101W        W91154   2.205  19.107   1.240  0.2060  0.2821  0.3547
48102W        W91155   5.296   2.387   0.440 -0.2103  0.0630  0.0787
48103W        W91156  29.062  27.973   1.411 -0.0519  0.1159 -0.3403
48104W        W91157   1.338  34.195   4.345  0.0972  0.3256 -0.0833
48105W        W91158   1.560  34.111  16.698  0.0012  0.0138  0.1573
48106W        W91159  18.617  20.281   4.302 -0.1897 -0.0207  0.0395
48107W        W91160  32.170  30.895   0.440 -0.3317 -0.2067  0.0185
48108W        W91161  25.861  27.564  22.771 -0.0370 -0.0815  0.2787
48109W        W91162   5.827  30.648  28.620 -0.1118  0.1728  0.3413
48110W        W91163  24.528  20.091  23.519  0.0215 -0.1884  0.1457
48111W        W91164  29.961   5.479  20.649  0.1034 -0.0135 -0.0081
48112W        W91165   0.045  13.740   2.058  0.3755 -0.0383  0.0074
48113W        W91166  27.609   0.338   6.972  0.0041  0.0556  0.1725
48114W        W91167   9.689  19.462   6.595  0.1542  0.0256  0.3171
48115W        W91168  13.283  22.818   7.245  0.0266  0.0248 -0.1200
48116W        W91169  10.201   1.444   8.262  0.0349 -0.2565 -0.1069
48117W        W91170   3.552  27.144   4.847  0.2159  0.3714  0.2554
48118W        W91171   3.297  33.704   5.842  0.2341  0.3135  0.1169
48119W        W91172  31.243  29.025  27.915  0.2151  0.2376  0.1281
48120W        W91173   1.488  30.172   3.539 -0.1801  0.4656  0.2651
48121W        W91174   8.883  27.150   0.365 -0.3336 -0.0191 -0.0892
48122W        W91175  32.527  27.872  24.330  0.0879 -0.2297 -0.1646
48123W        W91176   0.270  28.209   8.359 -0.2650 -0.3283  0.2965
48124W        W91177   8.041  11.741  26.899  0.2389 -0.0207 -0.0657
48125W        W91178  18.013  25.631   1.896 -0.0919 -0.0984 -0.2083
48126W        W91179  14.465  31.776  28.111  0.0894 -0.2090 -0.1110
48127W        W91180  27.453   5.602  24.667  0.0789  0.2745 -0.0332
48128W        W91181  32.630  18.673  27.969 -0.2244 -0.2473  0.1525
48129W        W91182  33.709  26.785  25.904  0.3608 -0.0345  0.0840
48130W        W91183  25.507  26.019  28.803 -0.1067  0.2562 -0.0823
48131W        W91184  23.900  28.095   2.691  0.2824  0.0431 -0.3659
48132W        W91185  24.949  21.447   7.681  0.0440  0.0944  0.3104
48133W        W91186  26.285  29.459  21.573  0.2202 -0.1432 -0.0720
48134W        W91187  28.662  33.759   9.457  0.1894  0.1549  0.3248
48135W        W91188  26.413  23.867  14.710  0.0532 -0.1193  0.2765
48136W        W91189  33.929  14.017  26.656 -0.0743  0.3589  0.0081
48137W        W91190   9.031  24.657  19.568 -0.1077 -0.1039 -0.1645
48138W        W91191  10.190  19.109   7.310 -0.0074  0.1088  0.0588
48139W        W91192  20.760  16.850  28.333  0.3117  0.1648  0.1909
48140W        W91193  26.332   7.515   3.296 -0.2424  0.0868 -0.4136
48141W        W91194  25.821  28.603   5.618  0.2248 -0.0318 -0.5104
48142W        W91195   5.706   4.789  24.770  0.0041  0.1075 -0.2647
48143W        W91196  32.532  16.486  28.690 -0.1233  0.0751 -0.0093
48144W        W91197  24.788  20.795   8.372 -0.0945 -0.0551 -0.1507
48145W        W91198   7.074   6.988   1.320  0.0798  0.3194  0.1245
48146W        W91199  21.873  27.285  20.314 -0.0596  0.0818  0.0019
48147W        W91200  14.748  24.828  19.860  0.1325  0.0459  0.1335
48148W        W91201  10.113  30.298  17.454  0.2547  0.1438  0.0170
48149W        W91202  22.567  31.550  26.331 -0.1450 -0.1291 -0.1094
48150W        W91203  32.968  29.602   6.558  0.1507 -0.4023  0.1834
48151W        W91204  22.317  32.921   4.236 -0.0158 -0.1093 -0.0086
48152W        W91205   2.270   6.766  27.653  0.1627 -0.0108  0.0143
48153W        W91206   5.370  30.636  25.450  0.0382  0.1117 -0.0459
48154W        W91207  29.947  19.055   6.072  0.3040  0.1190 -0.3730
48155W        W91208  21.300  11.479   7.692 -0.1869 -0.2965 -0.2521
48156W        W91209  34.243   6.565  28.916 -0.3521 -0.0340 -0.2370
48157W        W91210  29.023  32.557  27.269  0.0829 -0.2256  0.0116
48158W        W91211  31.507   9.325  10.693  0.0279  0.4431 -0.1189
48159W        W91212  27.441  25.990  24.572  0.0347  0.3813  0.0478
48160W        W91213  26.756  13.980  28.936  0.1347 -0.0027 -0.1744
48161W        W91214   8.438   6.655   0.683  0.0876  0.2177  0.1354
48162W        W91215  31.870  23.442   8.300 -0.4640 -0.1888 -0.1810
48163W        W91216   4.946  23.071   4.559  0.0054  0.2768 -0.0037
48164W        W91217   6.487  24.170   4.041  0.0477  0.0828  0.0871
48165W        W91218  26.750   2.353   5.480 -0.1422 -0.2903 -0.0971
48166W        W91219  29.445  25.946  26.974  0.0121 -0.0762 -0.0070
48167W        W91220  11.837  28.577  22.692 -0.2989 -0.2070 -0.0966
48168W        W91221  23.797  24.178   0.182 -0.0353  0.0979 -0.1755
48169W        W91222  16.007  29.216  18.380  0.2974 -0.1068  0.1237
48170W        W91223  20.477  27.276   8.718  0.1830 -0.0053  0.1336
48171W        W91224   2.964  33.481  24.205  0.0301 -0.1856  0.1553
48172W        W91225  22.018  19.326   8.464  0.2014  0.4724 -0.2173
48173W        W91226  24.433  27.755  22.870 -0.0850  0.0486 -0.4516
48174W        W91227  22.137   8.353   1.865 -0.0338  0.1631 -0.0799
48175W        W91228  31.264   7.611   0.529 -0.0974 -0.0727  0.1102
48176W        W91229   0.867  29.993  24.859  0.1169 -0.0325 -0.0517
48177W        W91230  16.077   7.819  26.660 -0.0085  0.4021  0.1206
48178W        W91231  25.365  21.727  28.214  0.1249  0.0753 -0.5449
48179W        W91232   7.108  26.693   4.132 -0.0041 -0.0320 -0.0275
48180W        W91233  34.379  19.727  26.582 -0.0656  0.2020 -0.2365
48181W        W91234  21.179  22.826  10.405  0.5925  0.1649  0.1522
48182W        W91235  13.509  12.164   4.706  0.0683 -0.0840 -0.0849
48183W        W91236  33.667   0.379  28.007 -0.2299 -0.0592 -0.2902
48184W        W91237  30.816  23.785   3.016 -0.1474  0.2166  0.0110
48185W        W91238  32.776  25.882   9.629  0.3181 -0.0436 -0.0415
48186W        W91239  27.318   9.897  27.184 -0.0149 -0.1599  0.0790
48187W        W91240  19.917  20.369   0.906  0.2712  0.0051  0.1252
48188W        W91241  27.141  31.313  23.063 -0.1295 -0.0084 -0.3429
48189W        W91242  21.436  19.260   2.358  0.0024 -0.0130  0.0006
48190W        W91243  27.458  27.072  17.276  0.0119 -0.1925  0.1155
48191W        W91244  29.738  33.319   6.948 -0.1649 -0.0739 -0.1632
48192W        W91245  32.253   7.889  26.603 -0.3016  0.0490  0.0041
48193W        W91246  18.876   1.623  17.649  0.1313  0.2870  0.3449
48194W        W91247   7.020  23.676   3.322  0.1438 -0.3480 -0.3496
48195W        W91248   7.901   0.841  29.178 -0.0924  0.3071  0.1473
48196W        W91249  27.169   0.825   2.218 -0.1387  0.2508 -0.2473
48197W        W91250  27.877   1.620   3.260  0.1450  0.0052  0.2123
48198W        W91251   5.984  30.891   7.728  0.0645 -0.3211  0.0705
48199W        W91252   0.312  20.429   1.215 -0.1606  0.0396  0.0093
48200W        W91253  19.062  20.483   9.586  0.0791  0.1297 -0.0729
48201W        W91254  28.438  29.216   7.599  0.3201 -0.5329 -0.0444
48202W        W91255   2.397  11.106  22.721  0.0945 -0.0817 -0.1462
48203W        W91256   2.264   0.694   4.788  0.0301 -0.0622 -0.0038
48204W        W91257  10.404  16.523  23.747  0.3063  0.1152 -0.2285
48205W        W91258   0.698  28.086  26.918 -0.0456  0.2872 -0.2839
48206W        W91259  20.880  33.067   3.708  0.0162  0.1655  0.1786
48207W        W91260  26.791   3.549  24.587 -0.3245 -0.0932  0.0831
48208W        W91261  23.322  25.440   0.293  0.1476  0.3971  0.0631
48209W        W91262  23.946   1.551   5.222 -0.2399 -0.1779  0.0340
48210W        W91263   0.419  14.056  26.336  0.2232  0.0481  0.5641
48211W        W91264  29.909  26.544  28.746 -0.1494  0.1235  0.0324
48212W        W91265  29.186  18.716  24.575 -0.3737 -0.1969  0.4054
48213W        W91266  31.337  12.824  28.945  0.0590 -0.3053  0.3298
48214W        W91267  31.823  27.205  29.100 -0.1254 -0.0107 -0.1867
48215W        W91268  24.314  25.063   8.720  0.1938  0.0620  0.0613
48216W        W91269   5.150  27.063  28.995  0.3651 -0.1353  0.2377
48217W        W91270  20.748  18.590  20.720 -0.1048  0.1439 -0.1668
48218W        W91271  32.821  16.065  27.652  0.3563 -0.1733 -0.0959
48219W        W91272  27.181  18.804  19.567  0.1532 -0.1942  0.2647
48220W        W91273  20.572  32.249   5.201 -0.0195 -0.1874  0.1295
48221W        W91274  26.616  14.983  23.992 -0.1804  0.3082 -0.0527
48222W        W91275  29.103  23.002   1.756  0.0617 -0.1394 -0.2883
48223W        W91276  30.293  31.817   9.693 -0.1477 -0.0055  0.1620
48224W        W91277  26.165  18.901  23.813 -0.2787 -0.3251 -0.0364
48225W        W91278  24.879  30.677   9.535 -0.3239  0.0042  0.3660
48226W        W91279  33.836   5.470  23.830 -0.1153  0.2508  0.0364
48227W        W91280   0.390  24.989  21.931  0.2535 -0.3040 -0.1409
48228W        W91281   1.597  29.819   7.241 -0.0207 -0.0801 -0.1210
48229W        W91282  19.578  15.887  29.145 -0.1500  0.0914 -0.3704
48230W        W91283  22.817  27.518  22.789  0.3371  0.1505 -0.2534
48231W        W91284  33.746  11.709  17.647  0.1724  0.1445 -0.3913
48232W        W91285  15.008  23.870   5.914 -0.0689 -0.3532  0.2328
48233W        W91286   5.865  27.697   1.306  0.0453  0.0237 -0.2430
48234W        W91287   0.805  34.158   5.691 -0.1872  0.3219 -0.1389
48235W        W91288  23.650  31.327  18.358  0.1541 -0.0223 -0.1206
48236W        W91289  15.598   2.321   5.451  0.2167  0.0157  0.1352
48237W        W91290  15.546  23.099   4.349  0.3576  0.0625 -0.0616
48238W        W91291  27.707  26.402  24.505  0.2836  0.1256  0.2659
48239W        W91292  23.047  30.734  21.002 -0.1656  0.1026  0.1515
48240W        W91293  34.075  26.955   4.670 -0.2101 -0.0882  0.1423
48241W        W91294   1.091  25.982   5.090  0.0194  0.1896 -0.0766
48242W        W91295   7.099  25.874   7.788  0.2075  0.1908  0.0360
48243W        W91296  25.473  32.011   9.341 -0.1114  0.1748 -0.0647
48244W        W91297   0.536   4.014   9.304 -0.2574 -0.0696 -0.1395
48245W        W91298  33.512   1.440  26.279  0.0174 -0.0666 -0.1980
48246W        W91299  31.888  25.429   5.316  0.1127  0.1118  0.1495
48247W        W91300  28.857   9.680   2.206 -0.2468 -0.0878 -0.0673
48248W        W91301  30.942  26.077   9.508  0.0442  0.1611  0.0914
48249W        W91302  21.476  30.460   2.274  0.1454  0.0501  0.2855
48250W        W91303  26.599  32.236  10.126  0.1134 -0.2146 -0.1813
48251W        W91304  23.224  28.790   1.950 -0.0931 -0.0683 -0.1474
48252W        W91305  14.355  29.038  26.003  0.3316  0.2116  0.1787
48253W        W91306   7.398  31.978  26.691 -0.0139  0.0281  0.0153
48254W        W91307  30.928   0.996   6.813  0.1387  0.4637 -0.1479
48255W        W91308  32.828  30.477   2.553 -0.0788  0.3123 -0.1140
48256W        W91309   7.562  28.405   2.862  0.2806  0.1096  0.0886
48257W        W91310   5.614   0.817  24.257 -0.0643 -0.1045 -0.4425
48258W        W91311  31.112  25.366  28.018  0.1535 -0.1960 -0.1442
48259W        W91312   3.406  22.287  20.962  0.0622  0.2760  0.2487
48260W        W91313   2.855  14.773   8.448  0.1345  0.2120  0.1673
48261W        W91314   4.011  16.078   0.632  0.4246 -0.0941 -0.0694
48262W        W91315   0.004  18.707   8.287 -0.4507  0.0186  0.0921
48263W        W91316  20.029  31.862   8.422 -0.1415 -0.0449 -0.4272
48264W        W91317   3.767   3.623   3.082 -0.2664 -0.0915 -0.0218
48265W        W91318   5.896  28.303   3.102  0.2383 -0.1204  0.4093
48266W        W91319  26.074  33.328  19.591 -0.1519 -0.1816  0.1323
48267W        W91320   4.366  24.535   3.870 -0.0807  0.0736 -0.0688
48268W        W91321  15.728  22.593   4.877  0.1927  0.0452 -0.0510
48269W        W91322  33.854  33.539   5.550 -0.3780  0.2155  0.0366
48270W        W91323  27.688  16.652  27.499 -0.1303 -0.0435  0.0743
48271W        W91324  30.648  29.860  17.046  0.3416 -0.2661 -0.0249
48272W        W91325  16.444  34.356  17.446  0.0761 -0.1431 -0.0971
48273W        W91326  22.480  18.431   3.618  0.0493 -0.5295  0.0962
48274W        W91327  28.705   8.837   3.445 -0.0004 -0.2325 -0.2642
48275W        W91328  30.945  16.896  20.122 -0.2718 -0.0499 -0.0149
48276W        W91329  19.006  24.342   2.279 -0.0843 -0.2307  0.2527
48277W        W91330  28.511  31.376  16.031  0.1022 -0.1790  0.1106
48278W        W91331  16.801  23.547   8.641 -0.0704  0.1670 -0.2365
48279W        W91332  25.129  17.918   6.961  0.4199 -0.2756 -0.2169
48280W        W91333  21.531  31.187   6.055  0.1516  0.1246  0.1738
48281W        W91334  33.237  12.560   3.044 -0.0950 -0.2189  0.1894
48282W        W91335  25.418  21.385   7.920 -0.3280  0.1150 -0.0277
48283W        W91336  17.879  30.081   2.599 -0.1160  0.1588 -0.0176
48284W        W91337  19.019  17.668  27.752  0.1434  0.1215  0.3640
48285W        W91338  28.393  31.376   0.034  0.0031 -0.4064 -0.0643
48286W        W91339   0.797   5.071   3.239  0.0127 -0.1381 -0.2039
48287W        W91340  27.758  15.027   6.302 -0.2119  0.2749  0.3175
48288W        W91341  21.429  20.904   7.677 -0.1415  0.0848  0.1121
48289W        W91342  18.942  12.187   3.568  0.1286  0.0340 -0.0414
48290W        W91343  16.910  30.885   4.833  0.0389  0.1092 -0.0106
48291W        W91344  16.536  29.704   5.700 -0.0537 -0.1742  0.0865
48292W        W91345   9.109   1.171   9.979 -0.0763  0.0917 -0.1042
48293W        W91346   0.966  31.909  27.640  0.4637 -0.1074 -0.1529
48294W        W91347   1.512  29.767  19.580  0.1000  0.1408  0.0195
48295W        W91348  33.252  32.627  24.173  0.0466 -0.0116  0.1746
48296W        W91349   3.000   1.674   1.144 -0.0636  0.0785 -0.1173
48297W        W91350  24.845  34.148  18.535 -0.2684  0.0098  0.5229
48298W        W91351  24.442  25.280  29.116 -0.2634 -0.1138  0.2513
48299W        W91352   0.358  20.297   5.152  0.2682  0.0369  0.1044
48300W        W91353  24.868   3.169   4.843  0.0356 -0.1323  0.2856
48301W        W91354  27.514  28.281   6.692 -0.1470  0.2432 -0.1486
48302W        W91355  34.241   5.870   4.924  0.1497 -0.0156 -0.0784
48303W        W91356   2.898  17.831  21.579 -0.1237 -0.0785  0.1910
48304W        W91357  33.933  21.861  28.302  0.2278  0.2994  0.0705
48305W        W91358  33.283   0.067  28.000  0.0653 -0.0185  0.1725
48306W        W91359  22.028  26.153  15.988 -0.0780 -0.3742  0.0475
48307W        W91360   0.001  26.355   7.212  0.2336  0.2392 -0.1907
48308W        W91361  31.005  18.745   3.826  0.0931  0.0853  0.0669
48309W        W91362  30.949  25.855  21.115 -0.1499 -0.1810  0.0948
48310W        W91363  11.014  20.433  28.935  0.0363 -0.1341 -0.1126
48311W        W91364  29.497  29.882  10.420 -0.0127  0.1790  0.0305
48312W        W91365  21.241  19.123  10.420  0.0750  0.2316  0.0656
48313W        W91366  20.448   4.343  14.995  0.0129  0.0132  0.1537
48314W        W91367  11.677  16.419   9.061  0.1614  0.1144 -0.4611
48315W        W91368  32.706   3.137   2.264  0.1011  0.0775  0.1306
48316W        W91369  19.136  25.279   7.040  0.3306 -0.0327  0.3210
48317W        W91370  34.281  12.959   3.294 -0.0434  0.1033  0.2344
48318W        W91371  12.436   6.221   0.147  0.5074  0.3314  0.0512
48319W        W91372  13.492   3.451   7.559  0.0324 -0.1084  0.0501
48320W        W91373  28.561  31.228   6.610  0.1650  0.1819 -0.0226
48321W        W91374  33.077  31.877   1.123 -0.2596  0.0482 -0.1242
48322W        W91375  20.997  21.496   9.222  0.1309  0.0151  0.0369
48323W        W91376  34.317  11.638   7.561  0.0899 -0.0862  0.2184
48324W        W91377  23.727  30.936   2.208  0.2247  0.1171  0.3733
48325W        W91378  32.119   0.053   2.013 -0.0256 -0.0413  0.0944
48326W        W91379  30.719  22.355   8.377  0.1536  0.1662  0.1105
48327W        W91380   6.075  24.933  20.136 -0.0445 -0.0091 -0.1768
48328W        W91381  19.247  16.649   7.764 -0.1716 -0.0700  0.3956
48329W        W91382   5.316  33.745  17.429 -0.0219  0.1374  0.2494
48330W        W91383  29.607  21.674   3.263 -0.0791 -0.2454 -0.1166
48331W        W91384   8.940  27.370  22.519 -0.2799 -0.0570  0.0779
48332W        W91385   1.209  21.845   4.204 -0.1282  0.1137  0.0956
48333W        W91386  10.066  32.122   5.648  0.0759 -0.0947  0.1185
48334W        W91387  11.384  29.083   2.827  0.2370 -0.0476 -0.2472
48335W        W91388  34.283  19.289  14.086 -0.1595 -0.0721 -0.0379
48336W        W91389   5.130   5.748  25.672 -0.2118 -0.2220  0.1035
48337W        W91390  26.127  16.907  22.444  0.4633 -0.0371 -0.0483
48338W        W91391  16.232  13.415   6.959  0.1850  0.2785  0.0609
48339W        W91392  29.265  27.533  18.830  0.2078  0.3491  0.1948
48340W        W91393   2.605  34.019  26.869 -0.3536  0.1977  0.1193
48341W        W91394  23.957  10.155   8.551  0.1876 -0.3055 -0.0308
48342W        W91395   1.830  15.909  28.200  0.5409  0.1904 -0.0205
48343W        W91396  34.407  33.782  27.296 -0.1978 -0.0790 -0.0082
48344W        W91397  24.827  12.365  15.491 -0.2345  0.0427 -0.1172
48345W        W91398  31.903  26.167   1.224 -0.0486  0.1086 -0.0045
48346W        W91399  29.791  22.702   4.040  0.1666  0.3113 -0.2581
48347W        W91400  23.970  29.146   7.054 -0.2196  0.0723  0.1063
48348W        W91401   0.983   3.397   3.775  0.2614 -0.1211  0.1368
48349W        W91402  32.473  26.211   5.375 -0.0849  0.2006 -0.2941
48350W        W91403   1.636   3.571  25.259  0.1780 -0.1658  0.1073
48351W        W91404  18.325  24.214   0.581  0.1990  0.3096  0.0535
48352W        W91405  31.781   7.440   9.554  0.1594 -0.0454 -0.5438
48353W        W91406   9.860   7.107  18.942  0.1866 -0.0825  0.1015
48354W        W91407  34.364  33.020   9.275 -0.0217 -0.0243  0.0452
48355W        W91408  18.466   0.558   7.260  0.2632 -0.1419 -0.0209
48356W        W91409  25.624  18.453  25.538  0.0559 -0.3086  0.2681
48357W        W91410  21.602  12.571   7.465  0.1670 -0.1925 -0.1055
48358W        W91411  17.389  24.910  20.209  0.1479 -0.1651  0.1007
48359W        W91412   7.243  22.665   1.850 -0.1652  0.3918 -0.1681
48360W        W91413  32.038   0.261   6.897 -0.0532  0.0744 -0.1828
48361W        W91414  33.393   4.028  21.727 -0.1502  0.2257 -0.0627
48362W        W91415  32.415   0.342  26.927 -0.1672 -0.0013 -0.0589
48363W        W91416  22.337   1.723   8.906 -0.1548 -0.2460  0.1113
48364W        W91417   8.073   8.412  25.291  0.0688  0.1753  0.1402
48365W        W91418   2.600  31.299  21.751  0.1398 -0.2183 -0.3539
48366W        W91419  32.855  31.345  22.756  0.0732 -0.3517 -0.0995
48367W        W91420   4.628  19.333  18.732  0.1195  0.1041 -0.1295
48368W        W91421  19.379  34.340  21.621  0.1317 -0.0723 -0.1505
48369W        W91422  10.120  32.662   2.606 -0.0311  0.2579 -0.1271
48370W        W91423  33.520  21.187   3.669 -0.1558 -0.0667 -0.0591
48371W        W91424  28.579  23.742  22.711  0.0393  0.1301  0.2694
48372W        W91425  10.864  32.826   3.903  0.0385 -0.0292  0.0023
48373W        W91426  25.288  30.542   6.928  0.1999 -0.0404 -0.5230
48374W        W91427  18.217  16.860  26.094  0.2393  0.0180 -0.0388
48375W        W91428  11.310   4.996   6.039  0.2898  0.2480  0.2250
48376W        W91429  27.009  26.400  16.579 -0.1472 -0.3288 -0.0075
48377W        W91430   1.636  20.415   7.048 -0.0700  0.0166  0.1759
48378W        W91431  18.947  21.692   1.372  0.0588  0.3634 -0.0523
48379W        W91432  32.845   0.781  16.488  0.0259 -0.3224 -0.0529
48380W        W91433   0.164  10.963  27.014  0.0112  0.0693  0.1021
48381W        W91434  32.723  33.118  25.551 -0.2652 -0.3543 -0.1629
48382W        W91435  33.304  23.698   8.354 -0.0056 -0.0709  0.1596
48383W        W91436  25.956  31.891  14.670  0.3807 -0.3027  0.0163
48384W        W91437  27.969  11.538  26.006 -0.1032 -0.1464  0.2156
48385W        W91438  10.494  32.052   1.756 -0.1997  0.0411  0.0836
48386W        W91439   1.992  15.556  22.529 -0.1941 -0.0013  0.1614
48387W        W91440   2.470   2.655   8.766  0.2495 -0.3914  0.3228
48388W        W91441  14.511  30.810   2.241  0.3082 -0.1032  0.1577
48389W        W91442  27.159   7.863   9.352 -0.0393 -0.0236  0.1760
48390W        W91443  15.127  25.050  26.914  0.1183  0.0676 -0.2139
48391W        W91444  13.013  32.186  29.134  0.2375  0.3299  0.1309
48392W        W91445  27.983   5.550  27.241  0.2217 -0.0949  0.1606
48393W        W91446  27.955  20.626   5.964 -0.1779  0.2798 -0.1148
48394W        W91447  28.369   3.461   2.671 -0.2087 -0.0036 -0.0470
48395W        W91448  29.698   5.216  18.042  0.1059  0.1304  0.1150
48396W        W91449  17.286   5.872   4.364  0.0557  0.0621 -0.0312
48397W        W91450  33.567  31.215   6.308 -0.0657  0.2063 -0.1470
48398W        W91451  24.424  31.289   2.108  0.2264  0.0445 -0.2397
48399W        W91452  33.905  18.920   2.942 -0.0930 -0.2135 -0.0343
48400W        W91453   0.584  11.538  27.688 -0.4058 -0.3407 -0.0633
48401W        W91454  34.503  34.200  26.434 -0.3057  0.1590  0.1272
48402W        W91455  11.530  28.738  25.528 -0.0298 -0.2014 -0.1073
48403W        W91456  23.031  26.327   2.323  0.1297  0.1088  0.0944
48404W        W91457  27.481  14.144   1.644 -0.0974  0.1882  0.0271
48405W        W91458  14.191  17.811   8.026  0.0961 -0.1936 -0.1589
48406W        W91459  27.047  25.407   6.967 -0.1617  0.1917  0.0062
48407W        W91460   7.686  16.305  28.840 -0.2228  0.0495 -0.0885
48408W        W91461  13.639  15.071   5.589 -0.1526  0.1510  0.3851
48409W        W91462  27.434   8.773   7.250 -0.0406 -0.1434 -0.2588
48410W        W91463  24.848  17.457   7.720  0.0198 -0.4240  0.1413
48411W        W91464   2.561  27.586  23.112 -0.0248  0.0290  0.0738
48412W        W91465  33.403  31.272  25.140 -0.1879 -0.3133  0.0762
48413W        W91466  11.752  33.884   5.056  0.1424  0.1974 -0.1721
48414W        W91467  24.701  30.627  27.243 -0.0034 -0.0820 -0.2976
48415W        W91468  32.909  24.057   6.420 -0.1429  0.2906  0.2484
48416W        W91469  27.434  33.916   7.881  0.1832 -0.0811 -0.2284
48417W        W91470  29.810  17.783  14.409  0.4159  0.1709  0.1427
48418W        W91471  34.012  21.844   5.877  0.1679  0.0419  0.2252
48419W        W91472  27.027  33.565   4.123  0.0285  0.3668 -0.1308
48420W        W91473  24.875  13.040   0.507  0.0670 -0.0418  0.0892
48421W        W91474  25.681  30.836   1.968  0.0868 -0.5602  0.1668
48422W        W91475  18.186   8.169  24.143  0.0773 -0.1616 -0.1527
48423W        W91476  16.287  17.015   9.727  0.2812 -0.0101  0.4403
48424W        W91477  27.607   5.888   0.500  0.3679 -0.1680  0.0050
48425W        W91478   6.839  29.833  25.684  0.2118 -0.0810 -0.1707
48426W        W91479   9.431   8.231  10.439 -0.1371  0.1489 -0.0967
48427W        W91480   3.695   4.092   4.609  0.2475 -0.0259  0.0482
48428W        W91481  29.090  18.834   9.336 -0.0589 -0.0011 -0.0347
48429W        W91482  27.000  23.003   5.525 -0.1699  0.0241  0.0222
48430W        W91483  28.975  31.492  22.005 -0.1509  0.2791 -0.0629
48431W        W91484  29.800  21.689  21.386  0.2397  0.2526  0.0907
48432W        W91485  26.520  28.837   2.124  0.2106  0.0738 -0.1469
48433W        W91486  27.575  25.658   6.984 -0.0635  0.1171  0.0281
48434W        W91487  12.549  13.601  25.957 -0.0721 -0.0420  0.1636
48435W        W91488  28.143  31.979   6.255 -0.6077  0.1090  0.2362
48436W        W91489  30.602  34.067   2.752 -0.1822 -0.0364  0.0748
48437W        W91490  24.435  16.919   8.866  0.2975  0.1270 -0.0935
48438W        W91491   3.842  17.718  26.532 -0.1021  0.0515 -0.3734
48439W        W91492  30.713  29.499   3.894  0.0293 -0.1119  0.0329
48440W        W91493  20.478  14.108   2.477 -0.1380 -0.0648 -0.5950
48441W        W91494   1.421  15.690  27.750  0.0159 -0.0816  0.1271
48442W        W91495   6.384  18.278   4.626  0.3166 -0.0582 -0.3903
48443W        W91496  12.295  14.656  17.845  0.2576  0.0082  0.0999
48444W        W91497   2.233   7.713   6.617 -0.1541  0.0310  0.2057
48445W        W91498  12.151  28.866  22.169 -0.3201  0.0968  0.0397
48446W        W91499  30.429  11.819  22.053  0.1612  0.0698 -0.0526
48447W        W91500  24.382  25.062   7.158 -0.0389 -0.2558  0.1323
48448W        W91501  32.838  15.907  25.850 -0.1128 -0.2540 -0.1287
48449W        W91502  12.211   9.727  20.153 -0.3835 -0.1121 -0.2166
48450W        W91503  13.093  21.126  28.154 -0.1863 -0.2768  0.2011
48451W        W91504  23.643  17.529  27.406 -0.0626  0.1823  0.2130
48452W        W91505  11.427  34.265  18.577 -0.0072 -0.3432  0.0907
48453W        W91506   9.140  11.279  27.720 -0.2044  0.2131  0.3354
48454W        W91507   6.579  23.459   5.879  0.1689 -0.1864  0.2259
48455W        W91508  20.537   9.307  23.062 -0.2455  0.1576 -0.0548
48456W        W91509  25.556  27.012  29.122  0.2816 -0.0217 -0.0967
48457W        W91510   3.533   4.105  28.564 -0.1375 -0.0764  0.2645
48458W        W91511  31.927  27.814   2.677 -0.1482 -0.3015 -0.1116
48459W        W91512   6.891  20.792  29.133  0.5952  0.3293 -0.0589
48460W        W91513  25.021  21.354  24.542 -0.0853 -0.2597 -0.0443
48461W        W91514  15.028  15.093  22.738 -0.0518 -0.3332  0.0180
48462W        W91515  22.292  24.373   7.071  0.1278  0.2014 -0.0630
48463W        W91516   5.202  26.231   8.504  0.0279 -0.1102 -0.0932
48464W        W91517  30.872  15.238  21.264  0.0819 -0.1458 -0.1694
48465W        W91518  31.839   1.866   0.522  0.2181 -0.1943 -0.3711
48466W        W91519   3.582   2.064   5.259 -0.3043  0.2257 -0.0401
48467W        W91520  25.145   2.641  20.140  0.1565  0.0276  0.2215
48468W        W91521  26.863  22.015   1.679 -0.2818  0.1536  0.0135
48469W        W91522  25.372  30.617   1.625 -0.0547  0.3384  0.0943
48470W        W91523   0.213  14.004  28.014  0.0322  0.1965  0.2358
48471W        W91524  10.187   8.776  28.134  0.1324  0.1323  0.0484
48472W        W91525  32.661  20.303   7.784  0.0413 -0.1135  0.2094
48473W        W91526  12.341  32.308   8.620 -0.0657  0.3439 -0.3756
48474W        W91527  25.097   9.790  28.058  0.1982 -0.2664  0.2717
48475W        W91528   1.471  13.329   3.331 -0.1554  0.2203 -0.1471
48476W        W91529   9.504  10.633   6.079  0.0264 -0.1338  0.1502
48477W        W91530  28.750  20.900   8.549 -0.0013 -0.0016 -0.0980
48478W        W91531   3.477  32.587   6.160 -0.1736  0.1224  0.0628
48479W        W91532  25.405  28.224   2.941  0.1163  0.0582  0.0058
48480W        W91533   1.964   3.421   9.251 -0.0284 -0.0295  0.0368
48481W        W91534  23.922  32.078   2.517  0.0503 -0.1609 -0.0694
48482W        W91535  26.075  11.894   5.233 -0.1034 -0.0385 -0.3884
48483W        W91536  11.610  13.820  10.955 -0.0529  0.2229  0.1440
48484W        W91537  13.676  10.161  24.163  0.2653 -0.3908 -0.2441
48485W        W91538   3.288  25.493   5.369 -0.0224  0.0941 -0.1158
48486W        W91539  19.939  22.509   9.810  0.1822 -0.0407  0.0785
48487W        W91540  29.277  23.045  21.441 -0.0824  0.0396 -0.1922
48488W        W91541  33.361   2.840   4.209 -0.0374 -0.0876  0.0025
48489W        W91542  10.100  10.603   7.267  0.0352 -0.0117  0.1542
48490W        W91543   3.410  30.437  26.932 -0.2184  0.0405 -0.0314
48491W        W91544  34.548  14.647   4.057 -0.1923 -0.0935 -0.0980
48492W        W91545  25.586  21.752  27.297  0.0733  0.2201 -0.0698
48493W        W91546  23.866  20.333  10.186  0.1334  0.0065 -0.0032
48494W        W91547  26.991   5.401  27.252 -0.1076  0.0918  0.1020
48495W        W91548  30.531  26.641  26.332 -0.1633 -0.0091 -0.2725
48496W        W91549   0.114   6.933   9.900  0.1519 -0.0833 -0.1436
48497W        W91550  27.552  26.909   1.271 -0.0926 -0.3383 -0.1832
48498W        W91551  24.414  18.860   7.099 -0.3509  0.1623 -0.1548
48499W        W91552  27.990  19.409  19.875 -0.3516  0.1765 -0.0005
48500W        W91553   3.129   6.526  16.798  0.0751  0.1731  0.5878
48501W        W91554  26.758  21.533   6.923 -0.2991 -0.0744  0.0144
48502W        W91555   7.661  21.770  21.216  0.2165 -0.0820  0.0830
48503W        W91556  32.792  31.420  28.022 -0.0848 -0.2553 -0.0402
48504W        W91557   8.111  16.735   9.111  0.1896  0.2309 -0.2551
48505W        W91558  27.848   0.906   4.643  0.1631 -0.0423 -0.2161
48506W        W91559   2.852  21.044   4.015  0.0556 -0.1463  0.0127
48507W        W91560   2.281   0.748   5.828 -0.0699  0.0695 -0.0026
48508W        W91561   2.054  14.577   9.219  0.0025  0.1964  0.1756
48509W        W91562  22.107  34.077   9.980  0.2994 -0.2999  0.2302
48510W        W91563  26.090  10.443   6.911  0.4229  0.1283  0.1602
48511W        W91564  24.838  32.159  22.857 -0.2957 -0.1846 -0.0521
48512W        W91565  26.924  30.017   5.872 -0.1769 -0.1576  0.2452
48513W        W91566  32.968  31.084   8.463  0.0537  0.3291  0.0988
48514W        W91567  32.863  34.012   9.293 -0.3348 -0.1782  0.3753
48515W        W91568   5.999  34.573   5.386  0.2843  0.2750 -0.1272
48516W        W91569   4.945  25.857   2.790 -0.0149  0.1560  0.0842
48517W        W91570  32.989  32.067   8.913 -0.0697  0.0313 -0.0660
48518W        W91571   4.081  24.424  27.861 -0.4432  0.2373 -0.3251
48519W        W91572   9.991  24.328   0.360  0.0233  0.1262  0.2010
48520W        W91573  29.546  21.405  26.045  0.3096 -0.2085  0.3543
48521W        W91574  11.826  23.689   0.995  0.0442 -0.0791 -0.2053
48522W        W91575  29.499  32.113   1.426  0.0645  0.0396 -0.0799
48523W        W91576   0.356  13.234  27.407 -0.1232  0.0028 -0.5379
48524W        W91577  33.913   8.429   1.161  0.2823  0.0622  0.1485
48525W        W91578  22.021   1.839   5.114  0.1946  0.0979 -0.0087
48526W        W91579  25.316  18.619   9.454  0.2254 -0.2342  0.2955
48527W        W91580  26.606  20.134  28.213  0.1524  0.3394  0.2840
48528W        W91581  27.415  23.088   2.227 -0.1811 -0.0393  0.3285
48529W        W91582  29.771  16.120   9.218 -0.0282 -0.1538  0.3450
48530W        W91583   2.979   6.867   3.929  0.0381  0.3506  0.1451
48531W        W91584   8.614  15.863   9.782 -0.1807 -0.0648  0.3008
48532W        W91585   4.721  21.397   4.752  0.4555 -0.1990  0.0154
48533W        W91586  20.009  26.270   3.098 -0.1342 -0.1989  0.1385
48534W        W91587  28.980  20.276  23.279  0.3287  0.0823  0.2802
48535W        W91588  19.619  22.111   0.828  0.2796  0.1928  0.3752
48536W        W91589  34.017  24.432  29.169  0.2287  0.1949 -0.1116
48537W        W91590  28.668  22.516  27.559  0.1153  0.0504  0.1873
48538W        W91591  11.848   4.642  17.335 -0.1415 -0.1480  0.0501
48539W        W91592  22.860  17.648   5.034 -0.0534 -0.1069  0.1628
48540W        W91593   8.199  28.726   4.068  0.1769  0.1538 -0.0311
48541W        W91594   4.658  31.460   5.797  0.0605 -0.0264  0.3418
48542W        W91595  22.523  20.243  10.615 -0.0999  0.0930 -0.0279
48543W        W91596  28.761   0.586   8.982  0.0253 -0.1443 -0.0995
48544W        W91597  28.351  27.652  23.024 -0.1906 -0.1739 -0.0941
48545W        W91598  29.021  28.445   7.964 -0.0626  0.0585 -0.1321
48546W        W91599   8.406  27.878   2.972 -0.0697  0.2759  0.2678
48547W        W91600  29.711  18.877   2.069  0.0725  0.1785 -0.1183
48548W        W91601  28.392  20.149   0.347 -0.0148 -0.2334 -0.1823
48549W        W91602  25.936  17.676   9.769 -0.2038  0.0951 -0.0293
48550W        W91603  15.071  21.934   0.052 -0.1656  0.1454 -0.1818
48551W        W91604  21.226  24.199   8.773 -0.0365  0.2401  0.0401
48552W        W91605  21.223  25.466   8.501 -0.0693  0.0626  0.2383
48553W        W91606   2.585  28.808   6.772  0.0589  0.3779 -0.1888
48554W        W91607   8.901  33.868  29.060 -0.5153 -0.0465 -0.1750
48555W        W91608  21.691  11.109   5.544 -0.2723 -0.2772 -0.1295
48556W        W91609  16.087   0.627   7.896  0.3111 -0.2779  0.1250
48557W        W91610  22.070  28.141  25.086 -0.1833 -0.0730  0.0780
48558W        W91611  27.872   6.415  26.254 -0.2844  0.3074 -0.1679
48559W        W91612  29.051  30.562   7.295  0.2311  0.1047 -0.1551
48560W        W91613  19.871  15.011  26.663  0.1520  0.3826 -0.1217
48561W        W91614  23.257  15.784   4.172 -0.2527 -0.0266  0.1691
48562W        W91615  22.692  19.140  22.605  0.1573 -0.2038 -0.2470
48563W        W91616  13.599  15.382  25.911 -0.0453  0.1303  0.0115
48564W        W91617  19.663   9.287   3.222  0.0403 -0.1643 -0.0304
48565W        W91618  18.868  15.331   7.318  0.3902  0.0401 -0.2407
48566W        W91619  31.679  18.698  23.298  0.5662 -0.2096  0.0775
48567W        W91620  13.517  27.959   7.819  0.3200  0.0026  0.5386
48568W        W91621  28.116  11.233   1.257 -0.0065  0.2066  0.1523
48569W        W91622   4.513  33.843   0.377  0.0903  0.1580  0.0609
48570W        W91623   0.731  29.085   6.864  0.2411 -0.0657  0.0488
48571W        W91624   0.310  21.309   7.745  0.0568 -0.0210 -0.2962
48572W        W91625   1.259   3.239   0.373  0.1032 -0.3218  0.2947
48573W        W91626  20.829  21.692   7.893 -0.0712  0.3638 -0.0167
48574W        W91627  31.479  14.789   1.516  0.0538 -0.0895  0.2078
48575W        W91628  33.754   4.222   4.726 -0.2244  0.1844 -0.0812
48576W        W91629  33.633  25.940   1.799 -0.2497  0.5377  0.1191
48577W        W91630  30.339  29.267   2.572 -0.0747 -0.0194  0.3874
48578W        W91631  32.390  24.759   4.981 -0.2421  0.1982  0.0017
48579W        W91632  20.097  34.301   7.887 -0.0396  0.0234 -0.0040
48580W        W91633   1.944  31.265  26.897  0.3125  0.0186 -0.2013
48581W        W91634  24.731  20.165  27.431  0.1358 -0.3520  0.1563
48582W        W91635  25.419  26.663  22.886  0.2853  0.3133 -0.1446
48583W        W91636  23.719  24.779  23.058  0.4017 -0.0190  0.0440
48584W        W91637   3.004  30.622  16.886  0.1242 -0.0991  0.1438
48585W        W91638   1.156  20.064  22.076  0.3656 -0.1991 -0.1458
48586W        W91639  24.502   6.412  15.074  0.1201  0.0345  0.2478
48587W        W91640  28.065   2.568   0.656 -0.0676  0.1691  0.3585
48588W        W91641   0.603  17.346   0.645 -0.2219 -0.0807 -0.0333
48589W        W91642  32.089  21.964   7.437  0.0777 -0.0052 -0.2407
48590W        W91643  21.223  34.000   0.212  0.1578 -0.2097 -0.2300
48591W        W91644  28.139  28.220   4.423  0.0657 -0.3009 -0.1105
48592W        W91645  31.210   8.860  23.330  0.1062  0.1928 -0.0799
48593W        W91646  23.679  30.433   4.452  0.1058  0.2381 -0.3044
48594W        W91647  31.923  10.544  21.067 -0.1977 -0.0108  0.1015
48595W        W91648  26.354  34.107   6.987  0.3020 -0.1593  0.0037
48596W        W91649  31.034  25.907  28.847 -0.3162 -0.0354 -0.1593
48597W        W91650  23.647  19.297   1.225  0.4237  0.0929  0.2568
48598W        W91651  24.566  18.333   8.738  0.1349  0.0137  0.0829
48599W        W91652   7.943  33.684  27.057 -0.0901  0.0803  0.1047
48600W        W91653  30.500  26.331   4.514 -0.4224  0.1935 -0.0827
48601W        W91654   3.332  10.937  22.545  0.1917  0.0381  0.1043
48602W        W91655  26.241  15.371   8.514 -0.0324  0.0670 -0.0552
48603W        W91656  21.530  24.995   3.098 -0.0931  0.0244 -0.1028
48604W        W91657  27.194  34.663   8.897 -0.0898  0.4492  0.0527
48605W        W91658  30.164  30.383   2.605  0.1870 -0.2807 -0.1417
48606W        W91659   0.621  29.282  18.337  0.1081  0.0171  0.2505
48607W        W91660   7.741  12.818  29.116 -0.2078 -0.0336 -0.1417
48608W        W91661   0.235  19.534   7.163  0.1629 -0.1801 -0.2735
48609W        W91662  21.319  24.945  16.337 -0.0697 -0.0764 -0.0094
48610W        W91663   7.175  27.603  26.926  0.5727  0.0776 -0.0569
48611W        W91664   6.051  33.024  17.545 -0.0577  0.1557 -0.0178
48612W        W91665  28.969  14.595  22.915 -0.2638 -0.2028 -0.4119
48613W        W91666  26.208  30.295  27.620 -0.2073  0.1753 -0.1404
48614W        W91667  31.230   5.959   7.993 -0.0746 -0.2215 -0.1288
48615W        W91668  17.282   6.780  16.508  0.2108  0.0762  0.3555
48616W        W91669   0.041  24.723   7.951 -0.3236 -0.1175  0.2551
48617W        W91670  21.561  24.446  22.860 -0.2050 -0.0394 -0.0146
48618W        W91671  24.802  33.874   9.318 -0.0295 -0.1330  0.1107
48619W        W91672   1.780   5.711   3.209  0.0435  0.2363  0.1776
48620W        W91673   1.486   0.318  20.800  0.0591 -0.3734  0.1828
48621W        W91674  26.622  34.105  22.131  0.0231  0.2977  0.0424
48622W        W91675  25.054  23.302   2.035 -0.0605 -0.0267 -0.4373
48623W        W91676  11.859  32.172   6.825 -0.2827 -0.3477 -0.2277
48624W        W91677   7.741  30.876  27.431  0.0555  0.1496 -0.1916
48625W        W91678  16.231  22.976   3.208 -0.1210 -0.0181  0.2077
48626W        W91679  34.240   1.766   9.221  0.3659  0.1616  0.1127
48627W        W91680  18.577  29.889   5.937 -0.3614 -0.2980  0.1071
48628W        W91681  20.467  12.212   9.011 -0.1695  0.2329  0.2179
48629W        W91682  19.368  25.641   6.784 -0.0929  0.0579  0.0510
48630W        W91683  16.370  33.268   8.642 -0.1146  0.1753 -0.0387
48631W        W91684   5.232  31.670  26.730 -0.1426  0.1050 -0.0787
48632W        W91685  33.031  23.361   8.029  0.0211  0.1315  0.0290
48633W        W91686  29.023  27.954   9.926  0.0198 -0.0722  0.0023
48634W        W91687  13.889  22.414   3.616  0.0408  0.0539  0.1719
48635W        W91688  27.961  11.218  23.845 -0.2124 -0.0863 -0.0092
48636W        W91689  22.613  32.662  10.047  0.2026 -0.0181 -0.1332
48637W        W91690   6.623   0.088  26.932 -0.0529 -0.0235 -0.0100
48638W        W91691   8.847  22.084   6.842 -0.0546 -0.1107 -0.2515
48639W        W91692  21.100   0.495  15.043  0.1760  0.3569 -0.0478
48640W        W91693   0.106  27.965   6.932 -0.1761 -0.0027  0.4007
48641W        W91694  31.408   2.606  19.692  0.1062  0.1317 -0.0554
48642W        W91695  11.237   8.349  28.972 -0.0721 -0.2299 -0.3557
48643W        W91696  28.391  22.063  25.679 -0.0482 -0.0425  0.0663
48644W        W91697  18.876  32.025  19.433 -0.1589 -0.0342 -0.0199
48645W        W91698  27.064  20.281   3.434  0.1184  0.2899 -0.1530
48646W        W91699  29.348  20.970   6.234 -0.1027 -0.0404  0.0047
48647W        W91700  28.675  20.563   1.785  0.1046  0.0444 -0.0113
48648W        W91701  26.822  17.977   6.060  0.0960 -0.0255 -0.0521
48649W        W91702  30.518  16.280   3.659  0.2705  0.1206  0.1734
48650W        W91703   3.126  27.392   7.403 -0.1280  0.1628  0.1305
48651W        W91704   1.537   2.298   6.813  0.1348  0.2842  0.1732
48652W        W91705   3.001  26.250   4.781  0.0227  0.0177  0.0002
48653W        W91706   0.451   0.922   4.425 -0.2466  0.3007  0.0180
48654W        W91707  11.764  25.294   2.963 -0.1379 -0.2440 -0.0926
48655W        W91708  27.290   1.243  20.258 -0.0386  0.1549 -0.0166
48656W        W91709  24.412  33.691  22.504  0.0787  0.1261 -0.2449
48657W        W91710  23.761   0.547   2.157  0.1634 -0.2770  0.0624
48658W        W91711  23.280  23.403  25.683  0.0819  0.3755  0.0855
48659W        W91712  29.938   0.506   6.402 -0.0759 -0.1104 -0.0377
48660W        W91713  24.962   2.896   8.111  0.2515 -0.1334 -0.1490
48661W        W91714  26.436  21.765   5.260  0.3623 -0.3899 -0.1865
48662W        W91715  25.484  11.217  26.504  0.4057  0.1606 -0.0114
48663W        W91716  11.000  24.843   0.066  0.0738  0.0108 -0.1595
48664W        W91717  29.202  21.962  24.357 -0.2371 -0.2709 -0.1041
48665W        W91718  33.746  13.989  22.480  0.2313 -0.1026 -0.1855
48666W        W91719   9.425   0.381   8.677 -0.2502  0.1608  0.1734
48667W        W91720  21.663  26.815   4.116 -0.1600  0.0325 -0.0777
48668W        W91721  26.625  20.322   2.245  0.0695 -0.1207 -0.3526
48669W        W91722   2.211   8.430   0.635  0.0080  0.2511 -0.1190
48670W        W91723  33.996  30.158   7.943  0.0603  0.0698  0.0266
48671W        W91724   3.564  19.187   3.048  0.1368  0.1995  0.2797
48672W        W91725  26.479  25.330   2.912  0.0091  0.0818  0.2734
48673W        W91726  27.312  11.604   6.662  0.1525  0.1036  0.1867
48674W        W91727  29.178   3.045  28.290  0.2600  0.1895 -0.2540
48675W        W91728   4.840  20.447   3.118 -0.2653  0.3896 -0.0678
48676W        W91729   6.646  28.661   2.091  0.0129  0.2187 -0.3127
48677W        W91730  15.942   9.822  24.031  0.0083 -0.3438 -0.1273
48678W        W91731  16.658   5.191   8.690  0.0416  0.1152 -0.0439
48679W        W91732   2.925  25.279  26.767  0.4853 -0.2465  0.1411
48680W        W91733  25.125  30.060   8.833 -0.0813 -0.3967 -0.1328
48681W        W91734  24.540   9.560   2.822 -0.1042  0.2164 -0.2084
48682W        W91735  20.004  16.622   1.165 -0.4579  0.1174  0.1849
48683W        W91736  27.232   2.614   2.031  0.1818  0.0565 -0.1387
48684W        W91737  18.836  20.503  26.295 -0.0536  0.0159  0.3846
48685W        W91738  16.678  27.869  24.398  0.2450  0.0629  0.3560
48686W        W91739  30.046  29.463   8.728 -0.3526  0.0960 -0.2324
48687W        W91740  32.905  20.593   5.351  0.0363 -0.1338 -0.1642
48688W        W91741  15.107  25.467   0.668  0.1530  0.0036  0.0166
48689W        W91742  23.853  28.270   4.030  0.2473 -0.1984 -0.0990
48690W        W91743  24.604  20.293   5.569 -0.2009  0.3114 -0.2441
48691W        W91744  31.086  31.244   3.782  0.4117 -0.0871  0.0819
48692W        W91745  19.362  32.122   4.545  0.0253 -0.0993  0.1743
48693W        W91746   0.047   0.769   9.634  0.0610  0.0418 -0.2258
48694W        W91747  28.579  13.521  25.669  0.2039  0.0849 -0.2831
48695W        W91748   3.887  21.602   8.725 -0.1728  0.1157  0.0450
48696W        W91749  16.952   9.209   9.196  0.0791 -0.2550  0.2042
48697W        W91750  27.608   5.392  28.613  0.0339 -0.0378  0.1948
48698W        W91751  29.141  21.785   7.695  0.1473  0.2425  0.0439
48699W        W91752  28.733  33.768  24.984  0.0985  0.0697 -0.4297
48700W        W91753  32.320   3.008   2.884 -0.0702  0.2086 -0.0425
48701W        W91754  24.536  10.110   7.345  0.1742 -0.0878 -0.0592
48702W        W91755  12.098  13.113   4.003 -0.0393 -0.2142 -0.1195
48703W        W91756  20.822  26.542   6.211  0.0376  0.0765  0.2664
48704W        W91757  23.858  31.383   4.376 -0.1376 -0.0756 -0.1108
48705W        W91758   3.049  10.148   9.274  0.1092 -0.0497 -0.0702
48706W        W91759  31.268  29.676  25.220  0.1719 -0.0036 -0.3476
48707W        W91760   1.305  21.517   7.692 -0.3201 -0.1357  0.2401
48708W        W91761  33.546  20.945   2.375  0.1041  0.1410 -0.1116
48709W        W91762  10.217  25.129   4.304 -0.0724 -0.1550 -0.2480
48710W        W91763   9.091  18.108  24.182  0.4856 -0.0345  0.1333
48711W        W91764   8.160  15.014  24.324 -0.0540 -0.0109  0.0687
48712W        W91765  31.435  18.570  18.094  0.0726 -0.0772  0.0599
48713W        W91766  24.936  26.423  28.816  0.0435 -0.1030 -0.0297
48714W        W91767  24.787   3.987  18.583 -0.2093  0.2211 -0.1663
48715W        W91768  21.567  23.335  27.465  0.0490 -0.2429  0.1216
48716W        W91769  10.783  16.719   8.876  0.1208  0.0714  0.2592
48717W        W91770  23.620  24.674   0.306 -0.1360 -0.0913  0.0686
48718W        W91771   6.013  32.515   0.481 -0.1414 -0.3269  0.3894
48719W        W91772  34.543  26.687   4.776 -0.3240  0.2839 -0.1567
48720W        W91773   1.833  30.146  24.340  0.2171 -0.1411 -0.2994
48721W        W91774  27.273  24.300  27.631 -0.0651 -0.2179  0.4027
48722W        W91775   0.013  11.481   1.936  0.1383 -0.0861 -0.0423
48723W        W91776  27.747  29.277   1.136 -0.0002  0.0960  0.0523
48724W        W91777  29.816  34.461   3.502  0.0694  0.0760  0.0935
48725W        W91778  23.755  31.246  26.637  0.0551  0.1936  0.2767
48726W        W91779  10.722  32.307   1.217 -0.0871 -0.0022 -0.1841
48727W        W91780  22.042  27.397   5.884  0.1623 -0.1242 -0.2478
48728W        W91781  23.248   8.419  10.509  0.1319  0.3815 -0.0877
48729W        W91782  25.573  31.311   7.450  0.0212 -0.3742  0.0644
48730W        W91783  19.563   8.197  14.450  0.0654  0.0008 -0.2128
48731W        W91784   2.381  19.804   5.319 -0.1102  0.0232 -0.2205
48732W        W91785  20.699  15.922   4.763  0.0684  0.1303  0.1709
48733W        W91786  23.662   4.921   8.647 -0.0730 -0.1261  0.2835
48734W        W91787  25.213  21.526   6.982  0.1131 -0.3407 -0.0904
48735W        W91788  25.988  20.552   7.381 -0.3669  0.0162 -0.0425
48736W        W91789   2.465   4.543  27.306  0.3768 -0.0320  0.0616
48737W        W91790   4.788  29.790   2.440  0.0726  0.0821  0.2242
48738W        W91791   1.567  27.061   5.206 -0.1032 -0.3095 -0.0758
48739W        W91792  21.144  22.488   6.025 -0.2587  0.0871  0.2410
48740W        W91793  33.297   9.155   1.082 -0.1382 -0.0578  0.3530
48741W        W91794  33.812  33.374   7.080 -0.0782 -0.3002 -0.0974
48742W        W91795   0.234  23.329   5.870 -0.0651  0.0069  0.3820
48743W        W91796  26.213  22.315   0.960 -0.0667 -0.3219  0.2622
48744W        W91797  20.369  31.987  22.572  0.1943  0.2601  0.1075
48745W        W91798  26.998  11.713   4.979  0.3936 -0.0265  0.0346
48746W        W91799  30.676  30.221  24.095 -0.0411 -0.2188 -0.0359
48747W        W91800   0.631  22.921   6.889  0.0552  0.1119  0.0313
48748W        W91801  28.977  19.538  17.174  0.0398  0.3646  0.0602
48749W        W91802  14.774  18.725   4.324 -0.1404 -0.2397  0.0652
48750W        W91803  31.984  25.169  26.856  0.0148  0.2413  0.0931
48751W        W91804   1.567  22.335  26.920 -0.2698  0.0227 -0.0836
48752W        W91805   0.196   0.912  25.582  0.2242 -0.4244 -0.1042
48753W        W91806  30.043   6.199   9.385  0.1697 -0.2120 -0.0420
48754W        W91807   0.676  24.599   8.790  0.0180  0.0499 -0.2588
48755W        W91808   0.307  19.880   6.486  0.0845 -0.1712  0.0516
48756W        W91809  30.626  20.499  19.054  0.1701 -0.0082 -0.0813
48757W        W91810  14.162  32.139   0.602  0.0656 -0.2115 -0.3155
48758W        W91811  30.524  20.663  24.875 -0.2630 -0.1514 -0.3153
48759W        W91812  17.988  19.429   0.702  0.0146  0.0064  0.1833
48760W        W91813  32.866  29.218  27.414  0.0281  0.0209  0.1742
48761W        W91814  22.076  30.337   8.564  0.0721  0.0212 -0.0061
48762W        W91815  22.956  24.862   2.093 -0.1482 -0.2561 -0.4630
48763W        W91816  34.517  30.282   9.922 -0.1663 -0.1999  0.0388
48764W        W91817  31.265   8.040   5.322 -0.2363  0.2599  0.3359
48765W        W91818  24.020  27.172  28.006 -0.0470 -0.3510 -0.0236
48766W        W91819  24.227  22.209  25.329 -0.0201  0.0183 -0.3534
48767W        W91820  14.593  28.148   8.789  0.0716  0.1159  0.2060
48768W        W91821  26.808   9.004   4.970 -0.0657  0.0783  0.1604
48769W        W91822  11.695  32.932   5.252  0.5613 -0.1929 -0.2851
48770W        W91823   6.888  20.485   1.513 -0.1447  0.3972  0.0777
48771W        W91824  31.186  33.949   6.743 -0.1508  0.2777 -0.1558
48772W        W91825  27.481  33.748   8.709 -0.1049 -0.1946  0.1027
48773W        W91826  15.028  29.735   3.423  0.1421 -0.3428 -0.1391
48774W        W91827  33.385   9.518  28.761 -0.6632 -0.1480  0.1014
48775W        W91828   0.867  32.027   8.082 -0.0282 -0.2642 -0.1994
48776W        W91829  24.621  22.719   5.953 -0.0890 -0.3346  0.4584
48777W        W91830  24.177   2.061   5.173  0.1668 -0.2623 -0.0156
48778W        W91831  31.855  18.405   1.423 -0.2515  0.4517  0.1648
48779W        W91832  33.893   3.326  27.497  0.0607 -0.2083 -0.0113
48780W        W91833   2.675  18.381   7.090 -0.3202 -0.0421  0.1845
48781W        W91834   6.419  33.711   0.795 -0.2267 -0.2335 -0.2706
48782W        W91835  28.839  29.459  28.846 -0.0191  0.1701  0.3856
48783W        W91836   7.664  28.183  19.236 -0.2796  0.0634  0.0112
48784W        W91837  26.064  12.927   8.596 -0.2466  0.2730 -0.2553
48785W        W91838  19.795  23.990  25.519 -0.1870  0.0742 -0.3423
48786W        W91839  27.236  10.491   8.204  0.1511  0.0142  0.3371
48787W        W91840  30.846  33.889  27.588  0.1955  0.0204  0.2150
48788W        W91841  30.990  11.749  22.158  0.4584 -0.3032  0.1280
48789W        W91842  33.519  16.860  14.914 -0.0373  0.0168 -0.0082
48790W        W91843   1.244  18.584   8.468 -0.0531 -0.0763  0.1064
48791W        W91844  28.811  27.212  27.598  0.1727  0.0618 -0.1552
48792W        W91845  20.944  19.142   9.231 -0.0082 -0.1539 -0.0090
48793W        W91846  34.043  22.281   9.529 -0.0617  0.1103  0.0745
48794W        W91847   3.632  23.107   6.561  0.0164  0.2967 -0.1974
48795W        W91848  32.864  21.800   8.421  0.4450 -0.0828 -0.0397
48796W        W91849  17.087  20.750  16.067  0.1914 -0.0688  0.1561
48797W        W91850  31.759  19.292   8.360 -0.0009  0.0500  0.0546
48798W        W91851  26.535  25.327   3.396 -0.2793 -0.1789  0.1668
48799W        W91852  12.365  18.624  26.979  0.2398 -0.3725  0.3458
48800W        W91853  12.586   2.094  29.012  0.0166  0.1379 -0.2581
48801W        W91854  17.742  29.428  22.111  0.0276  0.0690 -0.1339
48802W        W91855   5.743  14.922   9.278 -0.0537  0.0170 -0.0462
48803W        W91856  25.328   2.148   1.980  0.0927 -0.0417 -0.0074
48804W        W91857  21.327  17.296  19.284  0.0156  0.2849  0.0996
48805W        W91858  32.520  27.885   8.061  0.2103 -0.4604 -0.3924
48806W        W91859   9.081  22.486  27.207  0.0892 -0.3506 -0.2385
48807W        W91860  34.660  26.786   0.650  0.0948 -0.1475  0.0510
48808W        W91861   5.247  26.624   2.612  0.1499 -0.2364 -0.4029
48809W        W91862  30.968  32.028  27.018 -0.0236  0.2961 -0.1735
48810W        W91863  25.046   2.950   7.215 -0.0767  0.1900  0.3190
48811W        W91864  25.656  19.105   9.321 -0.1436  0.1080  0.0947
48812W        W91865  34.161   5.613  28.900 -0.0478 -0.0126  0.1551
48813W        W91866  26.425  27.642  28.164  0.3744  0.0187  0.0065
48814W        W91867   9.480  22.775   5.749 -0.1220  0.0802  0.0966
48815W        W91868  29.061  23.122   8.981 -0.3368  0.2439 -0.0964
48816W        W91869  18.209  12.974  15.588  0.0509  0.3485 -0.0633
48817W        W91870  30.146  31.273  17.064  0.0674  0.0123  0.0282
48818W        W91871  26.556  26.064  27.068 -0.2200  0.2791 -0.2527
48819W        W91872  23.864  24.179   9.271  0.0525 -0.3814  0.0386
48820W        W91873   4.586  30.967   9.125 -0.0551  0.1052  0.1214
48821W        W91874  18.761  21.613   3.980  0.0731 -0.1881 -0.0163
48822W        W91875  22.253  25.833   7.674  0.0938 -0.0196 -0.3409
48823W        W91876  32.400  28.029   8.589 -0.1526  0.0525  0.2884
48824W        W91877  29.068   8.638   6.070 -0.1997 -0.0652  0.4274
48825W        W91878  15.543  22.349   8.316 -0.0699 -0.0912  0.1452
48826W        W91879  13.783  22.703   1.435 -0.0218 -0.0037  0.1337
48827W        W91880  24.992  23.011  27.421  0.0841  0.3208  0.0957
48828W        W91881  28.300  25.409   9.782  0.1332 -0.0790 -0.2151
48829W        W91882   3.396  30.732  21.070 -0.1715 -0.2062  0.2538
48830W        W91883  18.723  26.299   3.589 -0.2049 -0.0362  0.1253
48831W        W91884  20.833  19.833   3.641 -0.2223  0.2375 -0.4022
48832W        W91885   1.405   3.521  17.316 -0.1880  0.1253  0.4977
48833W        W91886  10.760  32.220   2.833 -0.1744  0.0852 -0.1952
48834W        W91887   3.952  28.769  26.102 -0.3750  0.0793  0.2108
48835W        W91888  21.882  14.224   6.864  0.0028  0.0024 -0.3576
48836W        W91889  16.137  14.417  24.908  0.1707 -0.2239 -0.0148
48837W        W91890  27.728  23.680   1.660 -0.4650 -0.2482 -0.0041
48838W        W91891  31.618   8.576   3.099 -0.1681  0.1005  0.0973
48839W        W91892  23.443  19.732   7.503  0.1095 -0.0443 -0.2430
48840W        W91893  16.238  22.029  23.990  0.1216  0.1341  0.4854
48841W        W91894  24.943  23.052  19.300 -0.3858 -0.0394 -0.0814
48842W        W91895  20.729   3.236   7.098  0.1554  0.0965 -0.0404
48843W        W91896  13.394  19.660   7.759 -0.1354  0.0740  0.1669
48844W        W91897  32.098  30.745  28.425 -0.4192 -0.0645  0.0403
48845W        W91898   3.520  28.971   3.516 -0.3234 -0.0953 -0.3184
48846W        W91899  24.747   2.286  28.966  0.3326 -0.1931 -0.3524
48847W        W91900  25.269  11.314  17.349  0.2685 -0.2548  0.3709
48848W        W91901   3.413   6.291   6.914 -0.0173  0.0921  0.0442
48849W        W91902  34.499  21.892   5.787 -0.1369  0.0772  0.0176
48850W        W91903  28.750  31.720   1.618  0.0953  0.2547  0.1399
48851W        W91904  26.386  29.581   5.313 -0.1294  0.1133 -0.0469
48852W        W91905  31.453  31.305  15.930 -0.4787  0.1367 -0.0546
48853W        W91906  22.418  29.330   8.074  0.1713  0.4893  0.0441
48854W        W91907   5.124  34.258   2.127 -0.2130  0.1642 -0.2550
48855W        W91908  29.019  25.535   2.660 -0.0711  0.0714  0.3650
48856W        W91909  29.388  25.590   3.939  0.2153 -0.2257 -0.0905
48857W        W91910  11.129  25.415   7.363 -0.1217 -0.0911  0.0371
48858W        W91911  20.882  15.102   6.182 -0.0599  0.4920 -0.2401
48859W        W91912  33.169  28.202   3.972  0.0500  0.1320  0.0051
48860W        W91913  21.842  30.737   8.739  0.3853  0.0200  0.0164
48861W        W91914  21.616  23.872  27.019  0.1860  0.0170 -0.1863
48862W        W91915   4.852  11.341   4.011 -0.0590 -0.2118 -0.1982
48863W        W91916  30.253  21.711  20.003 -0.1703 -0.0788 -0.0194
48864W        W91917  10.080  26.169  25.578 -0.1116 -0.2892 -0.0456
48865W        W91918   8.622   5.703   6.285  0.0859 -0.0860 -0.1841
48866W        W91919   5.995   0.796   8.385  0.1689  0.0703  0.1482
48867W        W91920  26.162  25.907   5.859  0.3215  0.0761 -0.1129
48868W        W91921  33.397  21.177   4.634  0.1436  0.2079 -0.1238
48869W        W91922  23.710  30.116   8.811  0.2610 -0.4355  0.0024
48870W        W91923  15.363   0.583  22.130  0.0581 -0.0830  0.0359
48871W        W91924  30.308   3.554   9.398  0.0252 -0.0421  0.1645
48872W        W91925  26.055  25.148   8.406  0.1584 -0.4189  0.0349
48873W        W91926   2.836  24.140  28.883  0.0441 -0.0137  0.0734
48874W        W91927  30.556  24.589   9.566  0.4450  0.0845  0.0122
48875W        W91928  12.753  27.244   8.778  0.3236  0.0226 -0.1960
48876W        W91929  15.730   2.985   6.027 -0.0675  0.0090 -0.1422
48877W        W91930  25.103  28.088  27.021 -0.0352  0.0836 -0.2826
48878W        W91931  23.008  28.408   1.080 -0.1463 -0.0390 -0.2234
48879W        W91932  29.428   8.712  23.218  0.0863  0.5071  0.1461
48880W        W91933  31.844  32.351   5.701  0.0222 -0.0584 -0.1395
48881W        W91934  27.755  11.045  24.244  0.0382  0.1975 -0.2691
48882W        W91935  33.479  33.944   5.627 -0.1171  0.2672  0.3505
48883W        W91936  34.120  33.837   4.165  0.2101 -0.0392  0.0154
48884W        W91937  29.850   9.500   5.537  0.0842 -0.0717 -0.0747
48885W        W91938   8.080   5.288   2.829  0.0686  0.0205  0.1964
48886W        W91939  29.025  28.108   7.150 -0.1267 -0.1156  0.1033
48887W        W91940  22.640  15.202   7.972 -0.1975  0.3668 -0.2113
48888W        W91941  27.355  26.107   0.928  0.0011 -0.0257 -0.1150
48889W        W91942  31.589   5.011   1.668  0.0287  0.2671 -0.0623
48890W        W91943  22.039  25.009   2.780  0.0478  0.3359  0.0832
48891W        W91944  13.961  21.861   7.706 -0.0438 -0.2110 -0.2857
48892W        W91945   0.379   0.723  18.733 -0.0301  0.0756  0.0393
48893W        W91946  32.104  34.309   4.189  0.0993  0.1826  0.1178
48894W        W91947   0.893  23.840   4.075  0.2257 -0.2021  0.3341
48895W        W91948   6.362   6.243  20.187  0.0338  0.1568 -0.0682
48896W        W91949  20.343  18.140  27.882 -0.1490  0.0051  0.1317
48897W        W91950  18.634  18.795   3.806 -0.0276 -0.2083 -0.0997
48898W        W91951  28.249  19.632   8.348 -0.1442  0.0713  0.0577
48899W        W91952  33.426   8.693   4.230  0.1649 -0.1755 -0.1343
48900W        W91953  25.564  33.953   2.860 -0.0965 -0.0840  0.3450
48901W        W91954  22.869  31.955  25.570 -0.2256  0.1422 -0.0843
48902W        W91955  25.458  22.177   7.374 -0.0213  0.0606 -0.0679
48903W        W91956  25.380  30.063  27.784 -0.1761 -0.0440  0.1803
48904W        W91957  10.965  32.831   9.124 -0.1681  0.1978 -0.3341
48905W        W91958  29.007  25.763  26.759  0.2133  0.0270 -0.2571
48906W        W91959  11.879  26.467   7.716  0.2411  0.3808 -0.1168
48907W        W91960   8.061  24.741   0.772  0.2354  0.0721  0.0402
48908W        W91961  29.854  22.493   9.491 -0.0965  0.1739  0.0271
48909W        W91962   4.015  10.034   7.814 -0.0240 -0.1472 -0.0018
48910W        W91963  29.593  18.867   9.100  0.0378 -0.1529  0.0715
48911W        W91964  33.857  25.485   4.263 -0.1025 -0.0498  0.0588
48912W        W91965   2.894  16.687   6.822  0.1609  0.1303  0.0501
48913W        W91966  23.102  17.535   8.765 -0.4015  0.0782 -0.1990
48914W        W91967  29.993   2.439  15.969  0.0048 -0.2199 -0.0604
48915W        W91968  11.925  28.585   6.950 -0.1517  0.2544 -0.0287
48916W        W91969  23.254  17.125  13.305 -0.2406  0.1287 -0.1844
48917W        W91970  33.762  17.748   6.544 -0.2808  0.2579  0.0398
48918W        W91971   0.377  31.188   5.826  0.0258 -0.0913 -0.0759
48919W        W91972  30.061  15.069  24.117  0.1091 -0.2652  0.0790
48920W        W91973  29.645  18.725   0.780  0.2845 -0.0375 -0.0971
48921W        W91974   4.240  10.929   4.720  0.1341  0.2299 -0.3051
48922W        W91975   9.479  11.513   4.781  0.1356  0.0200  0.0377
48923W        W91976  23.399   9.796   9.740 -0.1105  0.1701  0.1801
48924W        W91977  30.820  34.471   2.864  0.0626 -0.0765  0.1778
48925W        W91978  22.438  18.735   6.758  0.2342 -0.1297  0.0992
48926W        W91979  32.116  26.517   5.560 -0.0870 -0.1600  0.1316
48927W        W91980  14.600  13.705   7.652 -0.1228  0.2273 -0.0851
48928W        W91981  30.495  28.498   4.216 -0.0565  0.1108 -0.4360
48929W        W91982  34.098  26.610  26.388  0.1148 -0.3650 -0.1398
48930W        W91983  23.864  17.513   7.196 -0.0598  0.1536 -0.4612
48931W        W91984  27.623  33.948   9.978 -0.2347 -0.1820 -0.0894
48932W        W91985  30.910   2.328   9.769  0.0494 -0.0107  0.2449
48933W        W91986  32.866  32.426  20.356 -0.0638  0.0135 -0.0663
48934W        W91987  18.959  14.579   6.554  0.0427  0.0309  0.1243
48935W        W91988  21.502  27.662   6.026  0.1959  0.1106 -0.1837
48936W        W91989  21.273   0.804  28.090  0.0423  0.1019 -0.1620
48937W        W91990  18.477   0.196   2.358 -0.0893  0.1141 -0.0545
48938W        W91991   3.382  19.408  22.167  0.1377  0.0968  0.1980
48939W        W91992  25.979   7.245   8.897  0.0626  0.0647  0.0636
48940W        W91993  18.097   5.340   6.720  0.1528  0.1132  0.2121
48941W        W91994  26.473  25.686  20.738  0.1411 -0.2321 -0.1245
48942W        W91995  25.138   8.897   2.817  0.1009 -0.1818  0.0182
48943W        W91996  22.633  28.833  28.479  0.0373  0.2315  0.0843
48944W        W91997  16.015   2.198  21.576 -0.1985  0.0013 -0.1990
48945W        W91998  26.726  20.961   9.240 -0.2717 -0.3857 -0.0416
48946W        W91999  29.073  31.016   6.755 -0.2226 -0.0444  0.0382
48947W        W92000   5.283  32.622   9.229  0.1714  0.0991 -0.0504
48948W        W92001   5.068   0.745   9.635 -0.0268  0.5119 -0.1836
48949W        W92002   6.741   7.419   9.069 -0.0533  0.0587  0.0824
48950W        W92003  27.484  18.927   4.198 -0.0846  0.3554 -0.0505
48951W        W92004  29.280  17.217   8.391  0.1405  0.1548 -0.0956
48952W        W92005  17.441  20.973   1.388  0.0385  0.1986  0.3237
48953W        W92006  29.474   5.050   3.948 -0.0912  0.1992 -0.0796
48954W        W92007   9.187  21.898   0.446 -0.2185  0.0595 -0.2105
48955W        W92008  25.786  21.050   5.645 -0.1437 -0.1939  0.0455
48956W        W92009  31.362  27.697  28.943 -0.3138 -0.2682  0.3162
48957W        W92010  15.835  30.123  28.025 -0.0150 -0.1554 -0.0273
48958W        W92011   2.317  31.243   2.186 -0.0664 -0.0737  0.1428
48959W        W92012   5.015  14.911   2.635  0.0185 -0.1937  0.0342
48960W        W92013  30.473  33.046   7.547  0.1825 -0.0065  0.1627
48961W        W92014   1.568   7.313  21.811  0.0376  0.1840  0.3066
48962W        W92015   9.430  22.863  28.019 -0.0301 -0.2110 -0.0499
48963W        W92016  25.668  14.118   3.681  0.1150 -0.0806 -0.3381
48964W        W92017  30.723  27.299  23.241 -0.0367 -0.1704 -0.0401
48965W        W92018  28.203  24.288   5.576 -0.0530 -0.2879 -0.1961
48966W        W92019  20.340  21.800   2.128  0.3767  0.2059  0.0461
48967W        W92020   8.235   0.197  27.108  0.0831 -0.1228  0.2989
48968W        W92021   5.634   3.142   5.336  0.2279  0.2177  0.1500
48969W        W92022   0.836  31.075  20.554  0.2095  0.0375  0.4685
48970W        W92023   3.902  32.295   7.793  0.0983  0.1384  0.1210
48971W        W92024  28.959  14.201  28.174 -0.1480 -0.2085 -0.0713
48972W        W92025   5.550  26.187   3.830 -0.1258  0.5426  0.0476
48973W        W92026   8.496  25.609   7.166  0.0589 -0.1370  0.2204
48974W        W92027  27.139  32.921   1.798  0.2616  0.1364  0.3064
48975W        W92028   6.716  29.301   7.100 -0.0402 -0.2003 -0.1187
48976W        W92029   1.163  20.760  25.767  0.2699 -0.1115  0.0738
48977W        W92030  28.951   0.726   7.722 -0.0698  0.0670 -0.3516
48978W        W92031  19.802   1.977  22.169  0.2588  0.1481  0.1978
48979W        W92032  28.951   9.730   1.092 -0.2159 -0.3377  0.2894
48980W        W92033  25.555  22.261   3.989  0.0109  0.2786 -0.0786
48981W        W92034   1.829  23.068   8.770 -0.1299 -0.2685 -0.0517
48982W        W92035  29.630  28.207   8.906  0.3540 -0.0974 -0.0352
48983W        W92036  25.986  32.112   1.685 -0.1795  0.2649  0.0826
48984W        W92037   5.731  13.708   8.292 -0.2114  0.1738  0.1325
48985W        W92038  25.341  26.730  27.776 -0.3223  0.0097  0.1776
48986W        W92039   1.153  31.481   6.511  0.1693 -0.2275  0.3200
48987W        W92040   0.098  31.979   4.277 -0.1129 -0.2552 -0.0829
48988W        W92041   4.872  15.088  28.312 -0.0920 -0.3054 -0.1368
48989W        W92042   1.746  32.676   0.553 -0.1523 -0.0337  0.0213
48990W        W92043  25.830  16.188   5.942  0.1934  0.1375 -0.1094
48991W        W92044  29.669  32.279   5.136 -0.1775  0.5709 -0.1034
48992W        W92045  18.076   2.308  19.698  0.0912  0.0816 -0.0957
48993W        W92046   0.267   6.300   4.344  0.3226  0.1254 -0.2854
48994W        W92047  24.356  19.434   2.249  0.2675 -0.0572  0.1858
48995W        W92048   0.942  28.675   3.084  0.1698  0.0945  0.1704
48996W        W92049  33.840   0.534  23.695 -0.0056  0.0136  0.0891
48997W        W92050  10.782  28.735   2.074 -0.0947  0.0521  0.3560
48998W        W92051  32.382  25.778   2.861  0.0856 -0.0870 -0.0012
48999W        W92052  32.593  17.628   7.702  0.2433 -0.3695  0.4891
49000W        W92053  34.428  11.929  20.184 -0.4674 -0.1708  0.1303
49001W        W92054  12.383  14.824  22.834 -0.3110 -0.2263  0.0953
49002W        W92055  10.002   9.177   9.119 -0.2827 -0.3806  0.0498
49003W        W92056  23.982   2.158   4.253 -0.2077 -0.0753 -0.1662
49004W        W92057  25.544  28.969   5.837 -0.3242  0.2103 -0.1078
49005W        W92058  23.515  29.834  23.528 -0.1221  0.1251  0.1676
49006W        W92059  21.960  26.558  26.020 -0.0725 -0.1513  0.0668
49007W        W92060  30.194  19.855   8.750 -0.1066  0.1747  0.2051
49008W        W92061   3.656  29.525   8.598 -0.3590 -0.0050 -0.0310
49009W        W92062  28.970  29.300   8.521 -0.2465  0.1941 -0.1886
49010W        W92063  23.654  26.002   6.601  0.0670  0.2560 -0.1272
49011W        W92064  31.517  29.536   3.965 -0.1313 -0.1256 -0.1227
49012W        W92065  34.398  27.665   8.633 -0.0274 -0.0033 -0.1192
49013W        W92066   8.366  28.421   3.070 -0.2046 -0.2353 -0.3600
49014W        W92067  26.575  15.402   6.728 -0.0712 -0.0378  0.4440
49015W        W92068  26.018  24.516   0.075 -0.1436 -0.2718  0.1047
49016W        W92069  29.443  24.884  20.594  0.3100 -0.0946 -0.0717
49017W        W92070  13.133  28.591  23.984  0.1420 -0.0907 -0.0407
49018W        W92071   0.089   6.028   2.730 -0.2591 -0.1342  0.0845
49019W        W92072  22.650  24.951   4.997 -0.2538 -0.0070  0.2530
49020W        W92073  27.304  19.592   5.457  0.0513  0.2815  0.0268
49021W        W92074  34.209  20.144  18.637  0.2658  0.6036 -0.2002
49022W        W92075  16.779  33.906   3.157  0.3456  0.1260 -0.4254
49023W        W92076  15.830  25.781   3.010  0.0248 -0.0736 -0.0433
49024W        W92077  19.317  32.391   6.648  0.2214  0.0543 -0.0900
49025W        W92078  30.933  33.185   3.313  0.0466  0.1798 -0.0706
49026W        W92079  23.377  21.841  27.035 -0.1410 -0.0139  0.1076
49027W        W92080  30.548  16.827  27.096 -0.1186  0.0277  0.1376
49028W        W92081  17.410  10.905   4.372  0.1861  0.2155  0.0917
49029W        W92082  32.482  25.847  25.044 -0.2669 -0.0766 -0.0303
49030W        W92083  26.022   7.142   3.190  0.0416  0.0045  0.0264
49031W        W92084   8.487  21.306   2.128  0.0904  0.1229 -0.1332
49032W        W92085  23.139  28.334   4.465  0.0273  0.1134  0.0802
49033W        W92086  14.425  12.699  10.903  0.4134 -0.0772 -0.1257
49034W        W92087  31.045  24.091   8.498 -0.2525 -0.0363 -0.0074
49035W        W92088  25.414  15.752   6.740 -0.0517  0.1975 -0.0347
49036W        W92089  20.267   3.467   1.621  0.0819 -0.1061  0.2152
49037W        W92090   0.423  25.732   7.116 -0.0204  0.1354 -0.3102
49038W        W92091   2.669   3.348  21.757 -0.0454 -0.0502 -0.1186
49039W        W92092  19.691  30.101   1.991  0.3316 -0.2539 -0.3261
49040W        W92093   0.484  31.105   7.012 -0.1037 -0.0629  0.0996
49041W        W92094  23.972   5.879   1.826 -0.2912  0.0514  0.2745
49042W        W92095  32.412  33.658  25.867  0.2017  0.2600 -0.0355
49043W        W92096  26.188  20.420   4.034 -0.1936  0.2759 -0.2335
49044W        W92097  21.478  26.289   2.539  0.1073  0.1907  0.2592
49045W        W92098   4.025  26.284   9.860  0.0295 -0.3212 -0.0478
49046W        W92099  29.149  22.971  28.642  0.0288  0.1986 -0.0378
49047W        W92100  30.175  23.424   9.101 -0.1064 -0.0720 -0.0145
49048W        W92101   0.131   0.192   5.451  0.2795 -0.1784 -0.0982
49049W        W92102  24.175  22.694  28.894  0.1147 -0.0247 -0.1122
49050W        W92103  29.395   2.349  14.808  0.0894 -0.0066 -0.0973
49051W        W92104   9.353  28.192   0.906 -0.0503 -0.1947 -0.0040
49052W        W92105  27.486   1.867   5.448 -0.1994  0.0639  0.1666
49053W        W92106  29.359  34.680   3.764 -0.4459 -0.2774  0.2665
49054W        W92107  27.127  30.406   8.864 -0.0424 -0.0528 -0.0769
49055W        W92108  26.006   7.005  24.092 -0.1628  0.4772  0.2207
49056W        W92109  28.076  15.543   9.462  0.0055  0.0633  0.1216
49057W        W92110  11.865  22.242  27.924 -0.0129 -0.1030 -0.2878
49058W        W92111   3.437   2.817   3.190  0.0905  0.1419 -0.0080
49059W        W92112  29.893  27.778   1.019  0.0787 -0.4703  0.0544
49060W        W92113  19.168  28.567   7.321 -0.1271  0.0140 -0.3377
49061W        W92114  25.638   3.933   5.494 -0.0120  0.2819 -0.1538
49062W        W92115  24.095  22.639   6.683 -0.2912 -0.1016 -0.1745
49063W        W92116  34.350  31.786  23.226  0.1681 -0.0547  0.0578
49064W        W92117  32.098  27.632   0.421 -0.1836  0.1244 -0.1235
49065W        W92118   4.586   3.630  27.748  0.0819 -0.1917 -0.0976
49066W        W92119  22.903  28.694   4.730 -0.2520  0.1342 -0.3340
49067W        W92120  12.812  27.467   6.779 -0.3035  0.1682 -0.4132
49068W        W92121  27.938   0.568  27.740 -0.0993  0.0021 -0.5011
49069W        W92122  28.525  12.628   2.774  0.0708  0.2727 -0.0658
49070W        W92123   3.451   9.510   8.624 -0.2798  0.2118 -0.1790
49071W        W92124   4.954  25.085   4.800 -0.0142 -0.1582  0.0764
49072W        W92125   0.620  27.079  28.735  0.2622  0.0079 -0.3402
49073W        W92126  25.129  18.964   9.742 -0.1136  0.1121 -0.2172
49074W        W92127  33.762   2.425  21.466 -0.0621 -0.1390  0.0610
49075W        W92128  16.842  31.941   3.664  0.0784  0.1509 -0.3239
49076W        W92129  29.748  32.710   0.724 -0.0214  0.0639  0.0090
49077W        W92130  30.433   1.320   2.188 -0.0280 -0.0902  0.2541
49078W        W92131  33.806  24.917   5.982  0.0627 -0.2379  0.4459
49079W        W92132  34.100  28.139   0.624 -0.1705 -0.2012 -0.1837
49080W        W92133   2.873  15.916   1.318 -0.1083 -0.1259  0.1546
49081W        W92134   5.592   6.774   3.010 -0.1759 -0.2943 -0.1005
49082W        W92135  31.396  25.642  16.392 -0.1485 -0.0662 -0.1098
49083W        W92136  31.225  25.352  25.129 -0.0142  0.0317 -0.0673
49084W        W92137  27.152  20.844   6.890  0.2969 -0.0147 -0.0345
49085W        W92138  29.968  20.764  23.843  0.0022  0.2224  0.0866
49086W        W92139  31.331  16.052   5.700  0.2320 -0.2108 -0.1219
49087W        W92140  16.378  32.171   4.651  0.0115 -0.0096  0.0526
49088W        W92141  17.150  12.658   8.097  0.2357 -0.0349 -0.1793
49089W        W92142  23.873  18.052  23.884 -0.1208 -0.4268  0.2651
49090W        W92143  31.694   8.092  22.542 -0.1446  0.1607  0.0728
49091W        W92144  10.628  27.419   7.590 -0.1793  0.2093  0.0508
49092W        W92145  29.217  17.405   6.024 -0.0779  0.3288 -0.2801
49093W        W92146  18.079  30.220   5.128 -0.0381 -0.0467 -0.2600
49094W        W92147  31.676  15.901   7.827 -0.0037 -0.2031 -0.2655
49095W        W92148  22.323  34.019  20.319  0.1401  0.5027 -0.0735
49096W        W92149  22.838  20.756   5.411  0.0039  0.1855 -0.2246
49097W        W92150   5.498  27.182   9.207  0.3139  0.0078  0.0678
49098W        W92151  29.979  23.699   5.426 -0.1423  0.1383 -0.1828
49099W        W92152  27.012  10.523  29.107 -0.1665 -0.0242  0.0004
49100W        W92153  26.573  25.959   8.169  0.1270  0.1680  0.1600
49101W        W92154  30.084  29.014   5.645  0.1911 -0.2232  0.1482
49102W        W92155  21.377  24.716   5.809 -0.0033 -0.2556 -0.0278
49103W        W92156  18.201  22.885   3.911  0.2838  0.1998  0.2760
49104W        W92157  25.440  27.491  24.489  0.1050 -0.0930  0.1547
49105W        W92158  30.052  12.283  27.351  0.1303  0.0486 -0.2342
49106W        W92159   2.525   5.883   4.120  0.1117 -0.0706  0.3263
49107W        W92160  26.774  32.063   9.751  0.3471 -0.1058 -0.2778
49108W        W92161   1.107  24.402   9.084 -0.3187 -0.1171  0.1998
49109W        W92162  26.550  30.445  28.965 -0.1608  0.2076  0.0163
49110W        W92163  26.267  13.416   8.450 -0.1456 -0.2706 -0.1779
49111W        W92164  32.468   0.092   0.213 -0.0343  0.0532  0.3248
49112W        W92165  27.938  21.072   7.156  0.1296  0.1897  0.1025
49113W        W92166  21.184  11.080   9.045  0.3872 -0.1277  0.0454
49114W        W92167   9.518  31.405   9.568 -0.2829 -0.2260 -0.0920
49115W        W92168  34.444   9.756  19.135 -0.3061  0.0567 -0.2809
49116W        W92169  23.197  30.091  25.601 -0.2706 -0.0278 -0.4647
49117W        W92170  32.386  26.754  27.023  0.1771 -0.0075 -0.0805
49118W        W92171  22.096  31.764   6.849  0.1283  0.2294 -0.0821
49119W        W92172   7.466  34.023  28.779  0.5026 -0.1743 -0.4390
49120W        W92173  30.452  12.750   1.252  0.0570 -0.3974 -0.0325
49121W        W92174  31.654  13.636  27.815  0.2421 -0.0116 -0.5402
49122W        W92175  25.220   6.220   2.576  0.0189  0.0377 -0.3008
49123W        W92176  34.225  19.952   6.854 -0.1689 -0.3785  0.0026
49124W        W92177  34.019  28.584  21.301  0.1078 -0.0834 -0.2787
49125W        W92178   1.515   3.260  24.765  0.1455 -0.0404 -0.1411
49126W        W92179   0.432  31.578   4.214 -0.1010 -0.1912 -0.1695
49127W        W92180  31.327  22.594   5.656  0.1210 -0.1175 -0.3944
49128W        W92181  15.311  29.357  29.177  0.0324 -0.1391 -0.0501
49129W        W92182   4.345  29.112   7.411 -0.3178  0.3232  0.0866
49130W        W92183  28.974  25.367  21.284 -0.1305 -0.1527  0.0611
49131W        W92184   1.853  19.713   3.100 -0.0594  0.0025 -0.3261
49132W        W92185  27.155  15.464   9.230  0.0409 -0.1963 -0.0194
49133W        W92186  23.664  28.288  27.957  0.1368  0.1176 -0.1292
49134W        W92187   4.422  20.785   1.024  0.0783 -0.2037  0.1289
49135W        W92188   4.462  28.749   4.605  0.1321 -0.3235  0.2044
49136W        W92189  30.345   3.385  22.036  0.1119  0.2398 -0.1392
49137W        W92190  23.666  24.861  18.970  0.3105 -0.1612 -0.2606
49138W        W92191  24.778  32.820   1.804 -0.0341  0.2304  0.0910
49139W        W92192  23.870  25.856  19.845 -0.1684 -0.1360 -0.1264
49140W        W92193  26.810  18.739   9.392  0.1873  0.0134 -0.0791
49141W        W92194  27.949  21.655  21.405  0.1082 -0.0696  0.1064
49142W        W92195  28.059   6.022  24.855  0.0489  0.0492  0.1705
49143W        W92196  33.736   1.285  20.164 -0.0653  0.0657  0.1018
49144W        W92197  28.286   2.444  17.957 -0.3063 -0.0576  0.1965
49145W        W92198  14.496  30.024  27.017 -0.0329 -0.1399 -0.1939
49146W        W92199   0.025  28.066  26.071  0.0579 -0.0351 -0.3023
49147W        W92200  30.299  20.771   7.359  0.2322  0.0055  0.1997
49148W        W92201  24.584   2.542   8.857  0.1461 -0.0008  0.2748
49149W        W92202  32.240   4.530   5.448 -0.2262  0.1027 -0.0610
49150W        W92203  31.443  27.729   6.992 -0.0281 -0.2132  0.0686
49151W        W92204  26.474   2.020   9.880  0.0558  0.0018 -0.0477
49152W        W92205  26.874   5.919   9.206 -0.2166 -0.0311  0.1665
49153W        W92206  28.716  29.997  14.693  0.0494 -0.4922 -0.1130
49154W        W92207  17.799  31.899  21.182  0.4230  0.0387  0.1276
49155W        W92208  18.871  20.825   4.001  0.2617 -0.5834 -0.0922
49156W        W92209  32.539  15.649  27.678  0.0225  0.1092 -0.0815
49157W        W92210   0.409  33.225   6.188  0.1865 -0.3107 -0.2176
49158W        W92211  32.122  33.446  28.538 -0.0556 -0.1987  0.0839
49159W        W92212  20.771  14.523   9.221  0.0613  0.0099 -0.2992
49160W        W92213  29.142  21.541  26.413 -0.2691  0.0768 -0.0745
49161W        W92214   6.647   1.788   4.625  0.3725 -0.1035 -0.0178
49162W        W92215  20.912  25.146  27.604 -0.1312  0.2091 -0.0277
49163W        W92216  14.026  31.780  28.911 -0.0659  0.0705 -0.0778
49164W        W92217   8.544  31.841  21.451  0.4652  0.0512 -0.1567
49165W        W92218  11.373  16.149  19.005 -0.0183  0.3960  0.3658
49166W        W92219  30.804  26.658   0.751 -0.2998 -0.2872 -0.2239
49167W        W92220   9.194  30.027   6.652  0.1891  0.2069  0.0232
49168W        W92221  25.704   6.080  19.834  0.2187 -0.2646 -0.1465
49169W        W92222   3.189  25.980   2.824  0.2375  0.3104 -0.0237
49170W        W92223  24.872   2.904  15.514  0.0944 -0.1073 -0.0529
49171W        W92224   2.562  31.570  28.118 -0.0076  0.2683  0.0734
49172W        W92225  25.100  24.485   3.069 -0.4046 -0.0424  0.1378
49173W        W92226  29.001   0.700  20.124  0.0131  0.0688  0.0975
49174W        W92227  25.318  22.399  23.393 -0.2559 -0.4673 -0.3081
49175W        W92228   2.842   2.823   6.374 -0.0368 -0.5699  0.1908
49176W        W92229   2.824  18.568  26.351  0.1066 -0.0167  0.2287
49177W        W92230  24.467   0.498   9.374 -0.3018  0.2011 -0.1113
49178W        W92231  28.418  16.255  21.610 -0.1265 -0.1673  0.0012
49179W        W92232  23.817  29.919  14.654  0.0024 -0.0208 -0.0906
49180W        W92233  22.286  25.575  10.052  0.0917 -0.0777  0.1065
49181W        W92234  16.867  22.779   9.754  0.0984  0.2883 -0.0162
49182W        W92235  28.204  15.648  21.771  0.0212 -0.0559  0.4169
49183W        W92236  32.138   9.473   5.062 -0.0021 -0.2204 -0.0259
49184W        W92237  29.926  32.801  22.533  0.2052  0.0723 -0.0005
49185W        W92238  27.511  26.210  23.075  0.2220 -0.0672 -0.3169
49186W        W92239  28.997  11.036  22.111  0.2576 -0.1191  0.2835
49187W        W92240  21.185  23.207   5.081 -0.1181 -0.0602  0.0685
49188W        W92241  21.864  26.471   9.417  0.0170 -0.1282 -0.3182
49189W        W92242  34.337   1.798   6.455 -0.2513 -0.2192  0.0561
49190W        W92243  11.767   1.799   5.858  0.1080 -0.0607 -0.3477
49191W        W92244  25.142   5.699   2.590  0.0787 -0.1579 -0.3268
49192W        W92245  33.071  11.790  24.837  0.3780 -0.1333 -0.0722
49193W        W92246  26.318  23.214   6.230  0.1311  0.0102 -0.0154
49194W        W92247  17.753  32.011   1.611  0.1258  0.1098  0.2757
49195W        W92248  24.787   7.798   2.424  0.1639 -0.3804  0.2184
49196W        W92249  25.237  13.971  26.949  0.1245  0.2565 -0.0072
49197W        W92250  34.534  25.544  20.356  0.3127 -0.3050  0.1179
49198W        W92251  24.266  25.197   8.211 -0.1508  0.0105 -0.0843
49199W        W92252  34.128  17.599  28.545  0.1624  0.0249  0.0536
49200W        W92253   3.157   2.612   0.196 -0.2222 -0.0773  0.0995
49201W        W92254  13.557  18.040  22.534 -0.1865  0.2411  0.0954
49202W        W92255   4.605   0.994   5.126  0.2853 -0.1453 -0.0910
49203W        W92256  24.745  23.994  19.436 -0.0374 -0.1275  0.2383
49204W        W92257   1.506  24.683   8.342 -0.2561 -0.2482 -0.0565
49205W        W92258  27.923  22.615  21.393  0.1270  0.0320  0.1345
49206W        W92259  23.788  30.540   9.164  0.1153  0.0967  0.0752
49207W        W92260   4.568   5.679  27.412 -0.3281 -0.0142 -0.2618
49208W        W92261  26.163   0.138   5.164  0.1020  0.0687 -0.2067
49209W        W92262   9.405  13.365   3.043  0.2573  0.0500  0.1322
49210W        W92263  33.473  21.212   1.820  0.0017  0.2435 -0.1517
49211W        W92264   3.390   5.818   7.304 -0.0673 -0.1119  0.0368
49212W        W92265  18.706  32.123  24.468  0.0834  0.0065 -0.1063
49213W        W92266  29.119  25.537   5.918 -0.4036  0.2295 -0.1244
49214W        W92267  28.273  30.287   7.943  0.1190 -0.0565  0.2064
49215W        W92268  12.610  25.606  20.022  0.2620 -0.0855  0.2191
49216W        W92269  32.013  19.019  29.080 -0.0448 -0.2200  0.0375
49217W        W92270   0.281  29.366  20.293 -0.2585  0.2604 -0.0684
49218W        W92271  30.608  30.476   6.076 -0.0371 -0.1223 -0.1237
49219W        W92272  19.968  32.161  28.438 -0.1702  0.4294 -0.1674
49220W        W92273  34.063  14.651   4.823  0.0669  0.1328 -0.0564
49221W        W92274  23.746  23.778  20.983 -0.0543 -0.0619 -0.1640
49222W        W92275   2.973  11.237   5.897 -0.0885 -0.2542  0.0948
49223W        W92276  19.637  25.472   5.760  0.0107 -0.3089  0.0346
49224W        W92277  16.628  20.738   8.240  0.2068 -0.2398  0.1927
49225W        W92278  28.955   2.647   5.644  0.0866 -0.0330 -0.0470
49226W        W92279  31.625   3.404  21.398  0.1416  0.2418 -0.2872
49227W        W92280  15.354   0.998   1.904  0.3661  0.0287 -0.2108
49228W        W92281   0.397   6.805   1.450  0.1793  0.1786  0.2421
49229W        W92282  30.306   1.623  22.366 -0.2683 -0.0927 -0.2928
49230W        W92283   7.767   0.481   8.514 -0.1080 -0.3219 -0.2161
49231W        W92284  29.596   3.371   4.136 -0.0409  0.1732 -0.2418
49232W        W92285  14.525  23.831  22.084 -0.2112  0.1271 -0.1044
49233W        W92286  32.791  31.541   8.770  0.0919 -0.1490  0.1540
49234W        W92287  19.870  32.867  27.706 -0.1125 -0.1683  0.0696
49235W        W92288  31.263   6.860   6.608  0.3013 -0.2894 -0.3121
49236W        W92289  13.395  25.926  17.273  0.3880 -0.3101 -0.1480
49237W        W92290  23.177  20.498   8.926 -0.2183 -0.1895 -0.1763
49238W        W92291   3.713  14.830  27.977 -0.1054  0.0953 -0.3054
49239W        W92292  26.169   4.530  13.249  0.1427  0.0870 -0.1097
49240W        W92293  29.906  15.509  27.190  0.0530  0.2291  0.1738
49241W        W92294  28.710  17.365   1.796 -0.0667 -0.0400  0.1622
49242W        W92295   6.800   1.020  21.074 -0.1866  0.1170  0.2249
49243W        W92296   1.848   7.720  21.789  0.0203  0.0582  0.1617
49244W        W92297   7.952  26.656   3.468  0.2633 -0.3404  0.1021
49245W        W92298  25.223   6.992  23.981 -0.3678  0.1024 -0.0158
49246W        W92299  21.843  26.696   6.200  0.3974 -0.1119 -0.2137
49247W        W92300  23.993  25.696  23.566 -0.0801 -0.1986  0.2024
49248W        W92301  22.210  33.054   5.121 -0.1510  0.0398  0.0209
49249W        W92302   8.940  30.602   5.373  0.0026 -0.1919 -0.3816
49250W        W92303  17.924  16.632  27.449 -0.1296 -0.0928 -0.0356
49251W        W92304  25.688   1.823   2.720  0.1050 -0.0710 -0.1337
49252W        W92305  29.583   6.219  25.957  0.0898 -0.1165 -0.0512
49253W        W92306   2.600  21.187   6.598  0.2640 -0.3250  0.1226
49254W        W92307  33.064  32.583  19.872  0.2594  0.0553  0.1318
49255W        W92308  25.993  33.024  18.687  0.0219 -0.0953 -0.0826
49256W        W92309  18.485  18.415  25.481 -0.1978  0.3991  0.1552
49257W        W92310   3.203  31.558   2.648 -0.0565  0.1656  0.2272
49258W        W92311   0.387  31.088  15.240  0.0142  0.3304  0.0137
49259W        W92312   1.896  18.751   4.327  0.0130  0.3871  0.2350
49260W        W92313  33.944  27.410  28.831 -0.0830 -0.1068 -0.0019
49261W        W92314   0.556  24.988   5.300  0.0696 -0.0686  0.0667
49262W        W92315  27.373   6.245   7.375  0.1486 -0.0215 -0.0462
49263W        W92316  33.820   2.285   2.513 -0.0684  0.2014  0.3833
49264W        W92317  30.670   0.798  23.279 -0.1476 -0.0546  0.3860
49265W        W92318  25.967   9.308  16.428 -0.0645 -0.0176 -0.0694
49266W        W92319   1.873  22.326   1.887 -0.0235 -0.2330 -0.3644
49267W        W92320   3.314  23.662   5.990 -0.1273  0.2206  0.1123
49268W        W92321  20.846   1.460  28.273  0.0407 -0.0835  0.2508
49269W        W92322  29.875   7.941  18.981  0.3321  0.1991 -0.3182
49270W        W92323  28.942  24.786   3.960 -0.0340 -0.0372 -0.2941
49271W        W92324  29.270  25.528  21.982  0.1489  0.0260 -0.1949
49272W        W92325   4.624   9.209   3.026 -0.4438  0.3130 -0.1658
49273W        W92326  33.428   9.588   5.373  0.2454  0.0754 -0.1623
49274W        W92327   0.076  10.171  14.342  0.0206  0.2481 -0.2490
49275W        W92328  15.973   6.237   1.521  0.0477  0.1716 -0.0869
49276W        W92329  14.057  28.501  22.756 -0.0842 -0.2109  0.1374
49277W        W92330  11.846   2.283  27.019  0.0616 -0.0692  0.0712
49278W        W92331   7.067   0.402  23.249 -0.2113  0.4013 -0.0497
49279W        W92332  32.137   2.211  24.337  0.1381 -0.2610 -0.3545
49280W        W92333  32.363   6.329   0.035 -0.1259  0.3834  0.0556
49281W        W92334   8.140  24.817  28.064  0.0396  0.0187 -0.2212
49282W        W92335  32.474   9.036   3.176 -0.0363 -0.0037  0.2237
49283W        W92336   0.948  29.016  22.420 -0.2222 -0.2850  0.1717
49284W        W92337  34.266  29.341  25.475  0.1741 -0.0292  0.4288
49285W        W92338  11.619  32.826   2.116  0.2058  0.2596 -0.0668
49286W        W92339   1.648  23.047  19.143 -0.0488 -0.1119 -0.2298
49287W        W92340   6.891   4.761   8.168  0.4098 -0.0543  0.1035
49288W        W92341  21.298   0.534   8.253 -0.1147  0.0459 -0.1106
49289W        W92342   0.487  20.990  22.334 -0.2347 -0.0070 -0.3056
49290W        W92343  27.633   5.727  18.916 -0.0904  0.0014  0.1471
49291W        W92344  23.109   8.130   0.830  0.0190 -0.0992  0.0246
49292W        W92345  31.492   1.948   6.241  0.0297  0.2314  0.1500
49293W        W92346  13.076  11.307   3.550 -0.1902  0.2741 -0.0018
49294W        W92347   2.230  28.431  25.715 -0.0683 -0.0130  0.3012
49295W        W92348  24.918  31.076   0.306  0.1021  0.0402  0.2722
49296W        W92349  31.759  22.451   3.676 -0.1538  0.0408 -0.0405
49297W        W92350  16.014  10.895  21.050  0.0582 -0.0369  0.0300
49298W        W92351  30.254  14.736  23.283  0.2541  0.0027 -0.3071
49299W        W92352  21.476  13.957   6.871  0.1878  0.0508  0.4539
49300W        W92353  26.647   1.175   4.524  0.1686  0.0165  0.1287
49301W        W92354  10.381  28.807  28.644 -0.2172 -0.1635 -0.2224
49302W        W92355   6.995  20.463   1.014 -0.0586  0.2549  0.2878
49303W        W92356   2.149  26.264   4.820 -0.1258  0.2109  0.2101
49304W        W92357   9.599  25.506  22.308  0.1166  0.1149 -0.1440
49305W        W92358   8.080  27.878   3.556 -0.1397  0.1498  0.1588
49306W        W92359  31.452  20.239   3.035 -0.0640 -0.1682  0.1661
49307W        W92360   1.429  28.861  24.019 -0.1434  0.0322  0.1035
49308W        W92361  20.824  27.694  20.541 -0.0268  0.0071 -0.3680
49309W        W92362  24.636  29.122   1.248  0.1758  0.2580 -0.0597
49310W        W92363  30.419  29.782  10.246 -0.0493  0.1807 -0.1449
49311W        W92364  25.690  23.192  16.127  0.1765 -0.1625  0.0185
49312W        W92365  20.414   2.241  14.605  0.0818  0.1949  0.3027
49313W        W92366  24.097  25.417  27.676  0.0981 -0.2586 -0.0102
49314W        W92367  15.999  12.894   0.078 -0.0507 -0.1054  0.2922
49315W        W92368   5.377  23.629   0.913  0.1854 -0.0813 -0.1832
49316W        W92369   2.117  29.494  24.066 -0.2035 -0.3368 -0.0596
49317W        W92370  30.226  31.297  26.986  0.1478  0.3857 -0.0492
49318W        W92371   6.308  24.704   4.793  0.2362 -0.0764 -0.0220
49319W        W92372   0.702   6.850   1.845 -0.2666 -0.0571  0.3050
49320W        W92373  27.523  34.110   3.905  0.2728  0.1757 -0.2843
49321W        W92374   7.002  16.916  15.729 -0.1714 -0.0489  0.1762
49322W        W92375  26.702   5.554  25.167  0.4436  0.2088  0.3992
49323W        W92376  24.476   8.067   0.017 -0.4116  0.0781 -0.0843
49324W        W92377   7.918  29.445   5.803 -0.2007 -0.1693  0.0467
49325W        W92378   1.689  21.270   2.530  0.3347 -0.4378 -0.0720
49326W        W92379  28.412  24.292  16.787  0.1161  0.0419  0.2829
49327W        W92380  13.471  31.019   2.648 -0.1544  0.0381  0.1134
49328W        W92381  20.316   6.435  17.540 -0.2663  0.0811 -0.1481
49329W        W92382  19.366  27.449   2.570  0.2520 -0.0827  0.2361
49330W        W92383  12.255  30.959  15.993 -0.2463 -0.0672  0.1077
49331W        W92384  26.638  13.081  20.640  0.1729 -0.0842 -0.1857
49332W        W92385   6.766  26.716  27.979 -0.2035  0.2120 -0.1851
49333W        W92386  27.841  30.546  25.922 -0.1304 -0.0638 -0.0927
49334W        W92387  28.618   4.704  27.156  0.4034  0.1857 -0.1385
49335W        W92388  22.837  27.151   6.565  0.1045  0.2974 -0.4048
49336W        W92389  23.350  22.717   1.614  0.1579 -0.2252 -0.0162
49337W        W92390  24.403   0.718   3.178 -0.0150  0.3051  0.1005
49338W        W92391   9.154  31.171   5.550  0.1410 -0.0506  0.2621
49339W        W92392  31.547  26.935   6.032  0.2985 -0.3732 -0.0636
49340W        W92393   9.670   3.700   7.422 -0.0721  0.2240 -0.1382
49341W        W92394  30.009  30.483   7.784 -0.3298  0.2839 -0.2302
49342W        W92395  14.248  34.033   0.439  0.2398  0.1305 -0.1317
49343W        W92396  17.569  26.999   6.623 -0.0970  0.1831  0.1891
49344W        W92397  28.909  28.448  21.578 -0.0882  0.0938  0.0490
49345W        W92398  16.582  14.668   0.511 -0.1312  0.4747 -0.0824
49346W        W92399  24.974  31.328   9.386 -0.1342  0.1464 -0.1356
49347W        W92400   0.492  23.516  13.948  0.0610  0.0026 -0.0414
49348W        W92401   3.527  30.153   5.933  0.2466 -0.0576  0.2879
49349W        W92402  28.697  23.356  10.936 -0.0175  0.3256 -0.2566
49350W        W92403  22.349  32.783  21.794  0.0311 -0.2141  0.2163
49351W        W92404  27.697  11.322   0.252 -0.1373 -0.1979 -0.0202
49352W        W92405  30.195  24.676   4.473  0.1206 -0.0322 -0.0380
49353W        W92406   5.045   9.449  22.682 -0.1952  0.0704 -0.2302
49354W        W92407   3.675   2.419   3.529  0.2962  0.0101  0.2938
49355W        W92408  23.406  26.523   3.628 -0.5064  0.3647  0.0485
49356W        W92409  31.831   0.352  28.870  0.2777 -0.0409  0.2809
49357W        W92410  17.486  30.775  22.603  0.4240  0.1117 -0.0977
49358W        W92411   5.568  27.710   7.021  0.0408 -0.0328 -0.0691
49359W        W92412  16.405  28.949   4.446  0.0720  0.1316  0.0920
49360W        W92413  22.057   9.517  24.990  0.0044  0.2963  0.0249
49361W        W92414  22.037   2.796   3.332  0.1419  0.0476  0.1046
49362W        W92415  25.954  10.465  22.202  0.1359  0.0244  0.1005
49363W        W92416  32.469   3.974   8.980  0.2064  0.3501 -0.0894
49364W        W92417  28.824  30.523   1.289 -0.1553  0.2909  0.0525
49365W        W92418  18.812  31.941   7.795  0.0365 -0.0357  0.0577
49366W        W92419  17.866   4.980  18.911 -0.1806 -0.0953 -0.1370
49367W        W92420  31.952  25.359   3.093  0.1403  0.0199 -0.4534
49368W        W92421  10.352  34.137  18.528  0.3639  0.4666 -0.1988
49369W        W92422  32.339  17.105   6.261 -0.2937 -0.1109 -0.0992
49370W        W92423  33.276  14.378   0.188  0.1507  0.3059 -0.2059
49371W        W92424  33.816  31.887  22.646 -0.3408 -0.1320  0.0193
49372W        W92425  30.555  30.938  25.664 -0.0583  0.3120 -0.0946
49373W        W92426   1.497  11.260   1.968  0.0034  0.1072 -0.2604
49374W        W92427  20.608  13.720  19.194  0.0133 -0.1977  0.2516
49375W        W92428   8.581  30.317   8.813 -0.1134  0.3502  0.1570
49376W        W92429  25.543  28.395   0.005  0.0014  0.1034 -0.0423
49377W        W92430   7.392  32.833   6.148  0.0261  0.2146  0.1235
49378W        W92431  21.656  21.222   8.092 -0.0679  0.1581 -0.0690
49379W        W92432  23.736  26.268  29.076  0.1934  0.0698  0.0614
49380W        W92433  12.009  21.461   0.284  0.2157 -0.1766 -0.0980
49381W        W92434   5.649  29.576  18.125 -0.0513  0.0993  0.2129
49382W        W92435   8.778  21.183  24.569 -0.3326 -0.0564  0.0953
49383W        W92436  13.788   4.359  29.192 -0.0160 -0.0673  0.3335
49384W        W92437  32.359  11.122  26.951 -0.0155  0.2694 -0.1347
49385W        W92438  33.652  33.615   3.496 -0.0344 -0.4074 -0.3686
49386W        W92439   7.320   9.827   2.559  0.2443  0.0737 -0.0224
49387W        W92440   4.690   8.253  23.831  0.0562 -0.4102  0.3646
49388W        W92441  20.893   8.341  15.191 -0.5071 -0.2882  0.2390
49389W        W92442  33.260   3.580   4.804 -0.3409  0.0973  0.0522
49390W        W92443   4.412   0.880   7.476  0.1544 -0.0701 -0.0902
49391W        W92444  12.793  10.215   7.698 -0.2633 -0.3127  0.0137
49392W        W92445   0.817   1.219   1.365 -0.0504  0.1026  0.1125
49393W        W92446  32.607  30.100   6.249  0.2777 -0.1680  0.2474
49394W        W92447   0.039   2.559  14.459  0.0110  0.0899 -0.1727
49395W        W92448   1.521  28.583   6.911 -0.0797  0.0720 -0.2308
49396W        W92449   3.203   5.443   3.534  0.0392  0.0337  0.1576
49397W        W92450  22.775  33.238   7.251 -0.1216 -0.0097 -0.0398
49398W        W92451   5.076  26.746  22.566  0.0236  0.1494  0.1606
49399W        W92452  31.557   6.664   1.301 -0.1546  0.1351  0.0387
49400W        W92453  28.271   3.408  25.529  0.1153 -0.1566 -0.1638
49401W        W92454  32.825  22.307  10.158  0.2161  0.0450 -0.2245
49402W        W92455  12.633   9.737  26.585  0.2360 -0.0397 -0.1239
49403W        W92456  10.174  26.634  24.458 -0.3359  0.0372 -0.0864
49404W        W92457  17.206   9.782   7.731  0.0944 -0.0909  0.0883
49405W        W92458  22.369  31.976   5.887 -0.0849  0.1406 -0.3679
49406W        W92459   5.912   3.099  20.980  0.3286 -0.5106  0.0700
49407W        W92460  23.622   2.157   0.107 -0.3635 -0.0421  0.1687
49408W        W92461   3.894   8.422   5.066 -0.1086 -0.0429 -0.2412
49409W        W92462  20.293  30.561   4.880 -0.0709  0.1468 -0.1615
49410W        W92463  33.348  34.132   4.972  0.0601 -0.0640  0.1565
49411W        W92464  18.154  32.087   9.197 -0.2976  0.0495  0.1217
49412W        W92465   1.096   2.329  21.234  0.2153 -0.3030 -0.0582
49413W        W92466  21.740  33.163   0.831  0.1366  0.2121  0.0298
49414W        W92467  22.429   2.732  27.354  0.0229  0.1563  0.0218
49415W        W92468  33.665   5.000  23.615 -0.3655 -0.1745 -0.2076
49416W        W92469  33.506  27.063   2.153  0.1412  0.1708  0.2777
49417W        W92470   3.196  31.737  19.459  0.0249  0.1783  0.3823
49418W        W92471   0.340  24.192  24.923 -0.0028 -0.0006  0.2291
49419W        W92472  30.857   7.351   2.141  0.2024 -0.1057 -0.2905
49420W        W92473  26.313  19.645  25.265 -0.2402 -0.0859 -0.2162
49421W        W92474   6.584  31.603  27.073  0.1430 -0.0450  0.0164
49422W        W92475  30.581  28.587   4.766  0.3883 -0.0750 -0.2504
49423W        W92476   7.521   1.476   2.021 -0.0967  0.0775  0.0380
49424W        W92477  20.809  19.069  21.596  0.0155  0.1875  0.1876
49425W        W92478   3.128  30.217   9.507 -0.0385 -0.0471  0.2003
49426W        W92479  19.782   3.208   2.901  0.1838 -0.0981 -0.0427
49427W        W92480  22.753  29.672   7.018  0.0201 -0.1258 -0.2542
49428W        W92481  33.319   1.149  21.327  0.0793 -0.3083 -0.0817
49429W        W92482  33.770  28.275  22.726  0.0242  0.2759  0.3222
49430W        W92483  21.335  28.729  24.867 -0.1580  0.0251  0.0293
49431W        W92484  11.696  30.804   5.758  0.1364 -0.1128 -0.3831
49432W        W92485  26.863  30.411  15.898 -0.0865 -0.1291 -0.0743
49433W        W92486  30.334   6.606   7.745  0.0513 -0.1184  0.0542
49434W        W92487  33.838  34.148  15.481 -0.3092 -0.0508  0.1117
49435W        W92488  22.102   6.787  14.506  0.0561 -0.0076  0.1533
49436W        W92489  22.844  24.151   3.954 -0.0613 -0.0323  0.0047
49437W        W92490   1.136  24.842  19.372  0.1241 -0.0115 -0.1372
49438W        W92491   2.684  15.375   2.339  0.1196  0.0551  0.1137
49439W        W92492   6.707  21.397   7.661  0.1954  0.2327 -0.0428
49440W        W92493  20.665  26.078   6.649  0.0224  0.1302 -0.1390
49441W        W92494  23.877  26.858   6.242  0.0248  0.0110 -0.0015
49442W        W92495  28.734  33.360  14.685 -0.2472 -0.3363 -0.0367
49443W        W92496  10.574  24.073   0.960 -0.1772 -0.4600 -0.0442
49444W        W92497  30.991  33.308  19.391 -0.0005  0.1701  0.4132
49445W        W92498  21.426  22.518  18.602 -0.1390 -0.1315  0.1972
49446W        W92499  18.797   3.403  24.139  0.0195  0.1180  0.1057
49447W        W92500  29.940  24.515  20.593  0.0057 -0.1727  0.1485
49448W        W92501  27.947  23.166  24.930 -0.0416  0.0726  0.2624
49449W        W92502   9.034  21.642  20.254 -0.0660  0.0610 -0.0545
49450W        W92503  28.888   4.398   9.705 -0.1063 -0.0191  0.0094
49451W        W92504  33.168  29.198   5.107 -0.0581  0.2881  0.1246
49452W        W92505  29.203   7.373   7.851  0.0188 -0.2567 -0.1547
49453W        W92506  31.543   7.290  15.963  0.1314 -0.3055 -0.1019
49454W        W92507   7.586   9.006  10.335 -0.3022  0.0345 -0.0471
49455W        W92508  27.921   2.547   8.375  0.0169 -0.1277 -0.0026
49456W        W92509  22.850   4.066   7.314  0.0380 -0.1365 -0.1279
49457W        W92510  30.115  24.392   6.958  0.0270  0.1194 -0.0014
49458W        W92511   9.793  31.820  27.774  0.2743  0.2505 -0.0830
49459W        W92512  24.453  15.936  27.832  0.0334  0.0490 -0.2405
49460W        W92513   0.812  29.646  25.298  0.2441  0.1073 -0.4130
49461W        W92514  13.627   3.474  16.167 -0.0675  0.0752  0.0254
49462W        W92515  34.279  26.451   1.921 -0.0897  0.0858  0.0340
49463W        W92516  19.251  29.918   4.763 -0.0650 -0.1301  0.1929
49464W        W92517   3.099  16.792   0.716  0.2206 -0.1310 -0.1198
49465W        W92518  28.168   9.197   5.934 -0.4360  0.1639 -0.1416
49466W        W92519   1.025  33.105   6.307 -0.1261 -0.0901 -0.4475
49467W        W92520  33.823  32.058   6.859  0.1485  0.0317 -0.2136
49468W        W92521  25.573   8.452  28.721  0.0883  0.1134 -0.0114
49469W        W92522  25.296   5.576   4.609 -0.1635 -0.0576  0.0239
49470W        W92523  19.673  27.863   3.378 -0.1811 -0.0345 -0.1257
49471W        W92524  28.337   2.401   8.282  0.2376 -0.1248  0.0671
49472W        W92525   1.187  20.324   0.817  0.0910 -0.0894 -0.1797
49473W        W92526  16.195  14.008   6.396  0.1841 -0.1894  0.1237
49474W        W92527   8.546  33.717   7.361  0.3717  0.0067 -0.0092
49475W        W92528  12.889  34.307   3.778 -0.0006  0.0393 -0.0038
49476W        W92529  25.316  31.716   8.948 -0.1409 -0.3080  0.4375
49477W        W92530  12.417  27.562   8.182  0.1426 -0.3020 -0.2359
49478W        W92531  19.651  31.146  26.371 -0.0643  0.1847 -0.0816
49479W        W92532  26.349  24.723   0.945 -0.2559  0.0467 -0.4694
49480W        W92533   5.866   9.380   8.450  0.0057  0.0027 -0.0087
49481W        W92534   6.955   4.854  18.261  0.3918 -0.0257 -0.2096
49482W        W92535  32.651  29.119   1.535 -0.0267 -0.0610  0.0878
49483W        W92536   0.472  31.828   5.772 -0.0647  0.0053 -0.1286
49484W        W92537  22.668  18.266  21.807 -0.2920 -0.2444 -0.1879
49485W        W92538  33.491  30.913  15.042  0.3385 -0.0975 -0.0797
49486W        W92539  24.556   0.058  26.364  0.0211  0.0508 -0.0967
49487W        W92540  24.153  32.107  24.181 -0.1152 -0.0219 -0.1330
49488W        W92541   0.324  27.730  14.728  0.1774  0.2375  0.0551
49489W        W92542   5.327  29.657   9.122 -0.1098 -0.0160  0.0440
49490W        W92543  31.760  31.271   9.000 -0.2861 -0.1550 -0.0069
49491W        W92544  15.179  24.131   2.809  0.0370 -0.1713 -0.0363
49492W        W92545   7.192  15.893  25.774 -0.1618  0.2597  0.0911
49493W        W92546   6.878  31.405  24.810 -0.0085  0.1031 -0.1038
49494W        W92547  17.436  18.918   3.394  0.0043  0.3214  0.0856
49495W        W92548  21.761  30.962   9.733 -0.3166  0.1210  0.1587
49496W        W92549  23.582  26.501   5.990 -0.1685  0.0584  0.0359
49497W        W92550  29.204  26.227   3.824  0.1513  0.1156  0.0616
49498W        W92551  22.668  19.049  28.058 -0.2839  0.1143 -0.1317
49499W        W92552  25.176  23.619   5.513 -0.2362 -0.1163  0.0668
49500W        W92553  33.061  20.987   2.718  0.0364 -0.1586 -0.2774
49501W        W92554  12.858  15.170   9.116  0.0868 -0.0151  0.0319
49502W        W92555  29.026  33.763  14.784  0.2272 -0.3836  0.1387
49503W        W92556  27.665  20.590   6.787 -0.0363  0.0909  0.0726
49504W        W92557  33.310  14.428  21.307 -0.2705 -0.0017  0.0681
49505W        W92558  26.025  21.791  25.366  0.0076 -0.0623 -0.0919
49506W        W92559  30.905   4.099  25.027  0.2740 -0.3578  0.0444
49507W        W92560  10.609   7.942   1.601 -0.3462  0.5638 -0.1055
49508W        W92561  19.852  27.880  24.385 -0.2582  0.1599  0.0510
49509W        W92562  18.334  32.043   1.052  0.0061 -0.0312  0.1476
49510W        W92563  19.209  34.058   7.449  0.0049 -0.2454  0.1451
49511W        W92564  31.358  13.661  17.839 -0.0387 -0.0352  0.0566
49512W        W92565  21.541  13.161   2.681  0.0126  0.0548 -0.1061
49513W        W92566  16.989  31.203  22.313 -0.0258 -0.1635  0.1006
49514W        W92567  29.985   3.917  26.609 -0.1788  0.1021 -0.2575
49515W        W92568  30.766  31.058   2.089 -0.1359 -0.0207 -0.1882
49516W        W92569  18.372  29.485  28.149 -0.2952  0.0430 -0.0825
49517W        W92570  21.510  22.484   3.380 -0.3183 -0.0771  0.1121
49518W        W92571   6.238   7.253  28.905 -0.0905  0.0019  0.0387
49519W        W92572  16.318   5.587   2.202 -0.1033 -0.0771  0.1017
49520W        W92573  26.553  30.266   6.552 -0.2222 -0.1962  0.1045
49521W        W92574  19.057  29.225  28.767  0.0438  0.3449  0.2424
49522W        W92575  20.823   0.382  24.545 -0.1775 -0.1910  0.0217
49523W        W92576  30.165  18.776   5.706  0.0236 -0.0073  0.1149
49524W        W92577  30.091  23.325  28.262  0.0555  0.0453 -0.5055
49525W        W92578  32.574  34.230  26.046 -0.1486 -0.0351 -0.3858
49526W        W92579  18.486  23.919   6.865  0.0429 -0.1729 -0.1014
49527W        W92580  26.789  28.232   3.447  0.1168  0.1047 -0.2402
49528W        W92581   5.768  23.117   6.697 -0.0357 -0.2989  0.2244
49529W        W92582  29.789   5.717   5.593  0.2336  0.2995  0.0108
49530W        W92583  28.922   2.675   0.927 -0.3382 -0.2743 -0.4570
49531W        W92584  13.824  21.185  22.998  0.1295 -0.3188 -0.5740
49532W        W92585   3.671  21.179   7.672 -0.2182  0.0536 -0.3066
49533W        W92586  21.909  29.192  24.171  0.2885  0.0919  0.0480
49534W        W92587  24.212  17.601   5.325  0.0045  0.1132  0.3124
49535W        W92588  25.426  32.205   5.983  0.2362  0.3964 -0.1500
49536W        W92589  30.470  12.963   9.053 -0.0678  0.0825  0.2164
49537W        W92590  31.458  25.770   7.815  0.2992  0.2119  0.2637
49538W        W92591  28.973  17.547  24.833 -0.2795  0.1182 -0.0920
49539W        W92592   2.891  32.504   9.143 -0.2773  0.0655  0.0627
49540W        W92593  10.314  34.031   2.282 -0.2280  0.2942  0.1684
49541W        W92594  32.886   4.863  29.177  0.2293  0.2429  0.0629
49542W        W92595   0.146  26.327  19.819 -0.2374 -0.0859 -0.1772
49543W        W92596  16.760  32.523   7.482  0.2500  0.0001  0.0411
49544W        W92597  29.295   1.383   6.751  0.0007  0.1992 -0.0232
49545W        W92598  34.102   8.960   4.514 -0.0975  0.1584 -0.0577
49546W        W92599   8.771  24.601   9.040 -0.3351  0.4213 -0.2204
49547W        W92600  30.301   5.052  27.827 -0.0936  0.0718 -0.1477
49548W        W92601  33.578  10.765  27.450 -0.2244 -0.0581  0.2328
49549W        W92602  21.967  29.605  24.506  0.1717  0.0411  0.1968
49550W        W92603  27.890  33.933  22.438  0.0487  0.0609  0.0836
49551W        W92604  26.380  20.816  29.030  0.0426  0.1273 -0.0614
49552W        W92605   2.359  27.632   4.266 -0.1089  0.1561  0.1416
49553W        W92606  22.941  19.172   3.762  0.2300  0.1533 -0.0276
49554W        W92607   8.842  24.361  27.408  0.1908  0.0171  0.3648
49555W        W92608   0.445  22.848   3.258  0.2393 -0.0742  0.4479
49556W        W92609  32.789   3.327   4.941 -0.1718  0.1808 -0.0205
49557W        W92610  31.188  11.224  28.436  0.2505  0.2735 -0.1061
49558W        W92611   1.646  12.317  24.611  0.1609 -0.1891 -0.4851
49559W        W92612  15.475  28.436  10.112  0.2037 -0.0425 -0.2048
49560W        W92613  28.299  21.985  22.290 -0.1401 -0.1023  0.2081
49561W        W92614  24.756  28.562   2.463 -0.1377 -0.2910 -0.2189
49562W        W92615  10.724  25.756  28.391  0.0645 -0.1693  0.3459
49563W        W92616  32.404  22.030   3.834 -0.0277 -0.1386  0.0114
49564W        W92617   6.484   1.643   1.864  0.4738 -0.1338 -0.0293
49565W        W92618   1.295  31.726   1.892  0.0661  0.0673  0.0022
49566W        W92619   7.585   0.095   3.394 -0.2706 -0.0918 -0.2756
49567W        W92620  28.435  32.884   6.456 -0.0384 -0.0414  0.1603
49568W        W92621   9.974  25.070   3.850 -0.0521  0.3108 -0.2493
49569W        W92622   5.295  24.773  23.979 -0.2068 -0.0486 -0.1911
49570W        W92623  33.764  30.520   8.450  0.2233  0.0017  0.2172
49571W        W92624  32.764  30.667  23.315 -0.2261 -0.0747 -0.1252
49572W        W92625   5.969  21.244  22.881  0.4481 -0.0980  0.2072
49573W        W92626  32.529  12.169  29.132  0.0397  0.0004  0.0766
49574W        W92627   7.175  23.963   1.293  0.1846 -0.1098 -0.0715
49575W        W92628  25.874   0.025   9.232  0.2472 -0.2673 -0.0017
49576W        W92629  32.917  19.117   6.174 -0.0899  0.1120 -0.1112
49577W        W92630  25.443  32.916   0.715  0.0252  0.1004  0.0912
49578W        W92631  30.611   3.609  28.471  0.0294 -0.1907 -0.0670
49579W        W92632   7.752  20.939   7.661 -0.1085  0.0201 -0.0119
49580W        W92633  21.625   7.164   9.263 -0.2168 -0.2001  0.3116
49581W        W92634  24.894  26.777  27.568 -0.0031  0.2763 -0.0415
49582W        W92635  34.603   9.695  14.962  0.3675 -0.2180  0.0785
49583W        W92636  19.993   2.888   6.134 -0.2527  0.0552  0.0833
49584W        W92637   0.802  14.841  24.367  0.0012  0.2432  0.0078
49585W        W92638  26.533   5.210   4.914 -0.3895  0.0610 -0.0302
49586W        W92639  22.233  33.949   7.243 -0.0541  0.0513 -0.3230
49587W        W92640  26.006   5.834   7.884  0.0794 -0.0062 -0.2279
49588W        W92641  19.590  20.409   8.441 -0.1419  0.0347 -0.0525
49589W        W92642  28.377  23.480   0.457 -0.3206 -0.2206  0.2801
49590W        W92643  21.007   7.252   9.302 -0.0699 -0.1288  0.1168
49591W        W92644  28.398  21.338   7.925  0.2718  0.0481  0.0234
49592W        W92645  11.400  17.113  27.187 -0.0889  0.1272  0.0344
49593W        W92646   6.351  31.031   5.228  0.2458  0.3113 -0.0413
49594W        W92647  22.783  29.022  21.732  0.0118 -0.0850  0.0339
49595W        W92648  29.413  32.333   7.993  0.2958 -0.1219  0.0911
49596W        W92649  20.370  18.801  27.533 -0.0406  0.0231  0.0549
49597W        W92650   3.439  12.005   3.592 -0.0399 -0.0032  0.2374
49598W        W92651   0.062  30.818  22.841  0.2356 -0.3284 -0.0733
49599W        W92652  28.189   4.789  26.730 -0.0074 -0.0760  0.2695
49600W        W92653  34.230  27.242   5.351 -0.0360 -0.0079  0.0180
49601W        W92654   8.418   6.134   3.048 -0.0751  0.2358  0.0026
49602W        W92655  29.234  22.047   8.864 -0.0767  0.0245  0.0327
49603W        W92656  18.430   9.908   8.818 -0.0081  0.1569 -0.0807
49604W        W92657  23.826  23.647   9.770 -0.4053  0.0054  0.0075
49605W        W92658  32.850  34.009   0.369 -0.3570 -0.0184  0.4369
49606W        W92659  30.393  21.369  24.408 -0.0792  0.0553  0.3485
49607W        W92660  25.114   0.917   4.321 -0.0668 -0.0846 -0.2434
49608W        W92661  16.428  17.502   3.496  0.0449 -0.0699 -0.1837
49609W        W92662  32.316   9.987   4.403 -0.0018  0.0958 -0.0344
49610W        W92663  29.585  29.316   6.352 -0.0318  0.0226  0.1522
49611W        W92664   6.634  32.987  26.367 -0.0497 -0.3301  0.1565
49612W        W92665  18.917  21.162  23.642 -0.2963 -0.3811  0.2622
49613W        W92666  19.961  33.446   5.748 -0.2441 -0.2877 -0.1263
49614W        W92667   0.715   2.794  29.007 -0.1714  0.0597 -0.0438
49615W        W92668  33.618  32.338  22.805 -0.0561  0.3288  0.0911
49616W        W92669   6.015  33.857   7.821  0.0744 -0.0125 -0.2196
49617W        W92670  16.515  21.886  29.168 -0.0035  0.0115 -0.0406
49618W        W92671  33.205  30.192  14.026 -0.0014 -0.0642  0.0983
49619W        W92672  24.891  27.416   0.492 -0.1158  0.0458 -0.1212
49620W        W92673  16.195  16.016   2.493  0.2289 -0.3003 -0.1231
49621W        W92674  27.795  32.410  22.063 -0.0007  0.0533 -0.1832
49622W        W92675  24.468  32.340   7.042  0.1826  0.2748 -0.0857
49623W        W92676  30.125  13.761   1.467  0.0062 -0.1365 -0.0987
49624W        W92677  25.265  23.636   7.390  0.0617 -0.0172  0.0794
49625W        W92678   1.803  27.900  27.606 -0.0746  0.1003 -0.2526
49626W        W92679  22.443  27.542   5.077 -0.2573 -0.2075  0.1444
49627W        W92680  29.072  25.186  19.304 -0.0744  0.2523 -0.0128
49628W        W92681  32.559  31.845   1.031 -0.0280 -0.1347 -0.1979
49629W        W92682   1.562  30.693   8.913 -0.1716 -0.0422 -0.0327
49630W        W92683   1.063  16.666   2.555 -0.0433 -0.0057 -0.2254
49631W        W92684  13.147  32.287   3.066 -0.1281  0.1540 -0.1039
49632W        W92685   8.895  33.752   4.691 -0.3380  0.2269 -0.0791
49633W        W92686  27.502   3.160   9.050 -0.0630  0.0263  0.0751
49634W        W92687  15.924   6.501  26.422 -0.3432 -0.1588 -0.3359
49635W        W92688  28.924   7.970   3.755 -0.0291 -0.0349 -0.3420
49636W        W92689  18.177   2.239  26.672 -0.3631  0.0795 -0.0720
49637W        W92690  32.583   3.281   5.901 -0.0178 -0.1396 -0.0681
49638W        W92691   1.437  23.750  25.702  0.1686 -0.0367 -0.0017
49639W        W92692  26.767   0.891   6.286  0.1298  0.2726 -0.0520
49640W        W92693  30.583  32.598   3.964 -0.0856  0.2128  0.2637
49641W        W92694  25.015  16.690   7.177  0.4611 -0.0594  0.0984
49642W        W92695  20.297  18.805  23.830 -0.1919 -0.0798  0.3604
49643W        W92696   0.355  34.153   2.894 -0.1574 -0.2448  0.1221
49644W        W92697  20.201  24.133  23.913 -0.2129  0.0883 -0.1559
49645W        W92698  24.851  34.611  28.452  0.0940  0.0702  0.3102
49646W        W92699  25.699  19.282  10.269  0.1107 -0.0179 -0.0488
49647W        W92700  29.418   6.966   1.379 -0.0817  0.2417  0.1211
49648W        W92701  29.056  27.867  26.623  0.1444  0.0570 -0.0433
49649W        W92702  20.456  28.579   2.753 -0.0110 -0.0401  0.0603
49650W        W92703  25.402  23.210  22.002  0.0801 -0.2636  0.2392
49651W        W92704  32.159  30.413   0.823  0.0940 -0.1109  0.1465
49652W        W92705   1.361   1.689   8.501 -0.0299 -0.2116 -0.2859
49653W        W92706  26.060  26.142  27.913  0.0824  0.0586 -0.1577
49654W        W92707  14.768   2.003  26.274  0.2601  0.0075  0.0838
49655W        W92708   0.358  33.881   1.815 -0.4591 -0.2771 -0.0475
49656W        W92709  13.421  27.913   4.726  0.4544 -0.0683  0.0782
49657W        W92710  14.613   1.825   8.533  0.0373  0.3785 -0.2153
49658W        W92711  19.885  23.079   0.708 -0.1193  0.0314  0.3046
49659W        W92712  29.135  17.974   8.080 -0.3112  0.2183  0.0753
49660W        W92713   3.353  31.547   7.514 -0.0364  0.0606 -0.1108
49661W        W92714  33.855  32.345   7.296 -0.2957 -0.0094 -0.2564
49662W        W92715  32.290  31.881  24.494 -0.1645 -0.1906  0.2411
49663W        W92716  25.927  12.781  18.476  0.1670  0.2457 -0.0156
49664W        W92717  18.906  18.228   9.712 -0.1541 -0.3089  0.0651
49665W        W92718  25.545  22.066   9.891 -0.0467  0.1003  0.1403
49666W        W92719  32.444   7.163   6.388 -0.5211 -0.0574 -0.2231
49667W        W92720  10.028   6.622   7.766  0.0648 -0.0688  0.2536
49668W        W92721  18.684  30.084  10.928  0.0726 -0.2313  0.2321
49669W        W92722  31.692  22.947   8.256  0.0652  0.2212  0.0815
49670W        W92723  31.318   1.936  16.347 -0.0787  0.1111  0.2412
49671W        W92724  26.573   6.194   5.785 -0.2272 -0.2580 -0.0206
49672W        W92725  27.445   4.653   0.339  0.2960  0.4347  0.1358
49673W        W92726  24.833   4.566   5.609  0.1365  0.2227  0.1266
49674W        W92727  11.042  32.284  28.271  0.0024  0.0979  0.1674
49675W        W92728  27.735  20.798   2.324  0.6739  0.0351  0.2061
49676W        W92729  29.121  21.863   4.829  0.0232 -0.1118  0.2585
49677W        W92730  29.490  24.800  18.540  0.2480 -0.2162  0.1084
49678W        W92731  33.658  27.914  29.061  0.0431 -0.4059 -0.1204
49679W        W92732  10.702  26.527  27.075 -0.0731  0.0300  0.0496
49680W        W92733  15.075  30.139   9.126  0.2187  0.0295  0.2469
49681W        W92734  33.548  28.200   4.475 -0.0797 -0.0968  0.3176
49682W        W92735  19.748   4.442  27.794 -0.1393 -0.2640 -0.0883
49683W        W92736  25.849  15.901   4.809 -0.2724  0.0805 -0.1526
49684W        W92737  31.225  13.278  27.903 -0.0896  0.4458  0.1583
49685W        W92738  28.757   9.048   1.572  0.2240 -0.0444  0.2822
49686W        W92739   1.063   0.444  24.303  0.1673 -0.3357 -0.2554
49687W        W92740   5.539  27.530  20.866  0.2403 -0.2222 -0.0856
49688W        W92741   1.552  33.281   5.126 -0.2957 -0.1312 -0.3506
49689W        W92742  14.405  30.821  10.176 -0.1441  0.4282 -0.1605
49690W        W92743  23.503  30.743   3.496 -0.0576 -0.4983 -0.2500
49691W        W92744  25.793  33.602   2.023  0.0484  0.0546  0.0787
49692W        W92745  31.965  15.084   6.849  0.1708  0.1318  0.0053
49693W        W92746  31.309   2.759   8.345  0.0096  0.2410  0.0199
49694W        W92747  30.506  10.259  19.079 -0.0462 -0.2554 -0.1727
49695W        W92748   9.391  33.499   2.612 -0.0278  0.0739 -0.3773
49696W        W92749  20.067  28.239   1.819 -0.1986  0.1912 -0.4697
49697W        W92750   8.907  10.281  24.670  0.1764  0.3144  0.0768
49698W        W92751  28.027  33.312   9.690  0.2903 -0.2187  0.1951
49699W        W92752  30.894   8.114  23.847  0.4383 -0.3543  0.1478
49700W        W92753   6.778  29.336   8.121 -0.1011  0.0424 -0.1506
49701W        W92754   7.631  21.721   3.881  0.1865  0.0043  0.3225
49702W        W92755  32.855  16.545   6.932 -0.0162  0.0244 -0.1285
49703W        W92756  34.181  17.215   6.099 -0.2811 -0.0619  0.3122
49704W        W92757   0.399  21.165   4.037  0.0117 -0.0652 -0.2133
49705W        W92758  33.680  23.894  21.164 -0.0065 -0.1616  0.3303
49706W        W92759  29.379  28.749   7.978 -0.1030 -0.2006  0.2257
49707W        W92760  27.902  23.594   0.670  0.0185  0.0213 -0.2131
49708W        W92761  13.214   2.911  20.948 -0.1269 -0.2391 -0.1101
49709W        W92762  30.293   3.461  22.655  0.1589 -0.1135  0.0293
49710W        W92763   3.031  20.364   6.816  0.0309  0.0772  0.0793
49711W        W92764  15.084  27.720  27.134  0.0373 -0.3776 -0.0483
49712W        W92765  30.643  22.615   7.135 -0.1606 -0.1078 -0.3613
49713W        W92766  30.089  30.990   2.956  0.1148  0.3631  0.1996
49714W        W92767   7.630  26.183   5.796 -0.2362  0.1350  0.1137
49715W        W92768  17.475  34.120   5.549 -0.1386  0.1401 -0.2325
49716W        W92769  26.792  28.925  25.097  0.0117  0.2587 -0.2159
49717W        W92770  23.503  27.943  25.761 -0.2061 -0.1486  0.1397
49718W        W92771   6.068  33.109   0.723  0.4972 -0.0139  0.0006
49719W        W92772  12.321  14.112   2.371 -0.2493  0.2689  0.1687
49720W        W92773  33.961  25.562   7.812  0.1608 -0.1773 -0.2437
49721W        W92774  34.600  21.061   4.821  0.1158  0.1505 -0.1042
49722W        W92775  24.100  25.091  18.860 -0.2197 -0.2756  0.2617
49723W        W92776   7.793   5.860  10.500  0.3178 -0.1440  0.4796
49724W        W92777  22.263  27.660  22.638 -0.0763  0.0428 -0.0574
49725W        W92778   5.935  21.797   6.983  0.1053 -0.0470 -0.3055
49726W        W92779  33.474   4.707   6.528  0.5750  0.2131  0.4312
49727W        W92780  31.338  18.006   5.828  0.0501  0.1968  0.0090
49728W        W92781   0.481   5.557   8.695 -0.2168 -0.0017 -0.2687
49729W        W92782  18.025   3.009   8.848 -0.0289 -0.0773  0.1352
49730W        W92783   1.196  17.426   4.307 -0.0965 -0.1100  0.2195
49731W        W92784  22.278  15.000  28.013  0.1553 -0.0375 -0.3099
49732W        W92785  16.755  25.353  19.997  0.1502  0.1998 -0.2955
49733W        W92786   3.171  30.503   7.507 -0.1273 -0.0206 -0.4182
49734W        W92787  16.235  23.272  20.443 -0.1683  0.3029 -0.1610
49735W        W92788  30.443  29.380   4.326  0.0030 -0.0943  0.3627
49736W        W92789  32.778  34.422   4.683 -0.2692  0.0383 -0.3158
49737W        W92790   1.232  16.546  27.964  0.0990 -0.3534 -0.1669
49738W        W92791  29.899  31.597  10.267  0.0144  0.0158 -0.0808
49739W        W92792  24.217  26.749   9.447 -0.1483 -0.3848 -0.1389
49740W        W92793  17.164   0.899   6.102 -0.2387 -0.0685  0.0211
49741W        W92794  28.827  31.612  27.365  0.1455  0.4079 -0.1617
49742W        W92795  33.356  25.331   3.100  0.0400 -0.3528 -0.0833
49743W        W92796  30.056  23.698   3.650 -0.0580  0.0846  0.1160
49744W        W92797   4.893  16.434  16.464 -0.2135  0.1945 -0.2744
49745W        W92798  31.181  23.355   6.123 -0.0847  0.1282 -0.0460
49746W        W92799   1.015   2.697   1.410 -0.2021 -0.1510  0.0153
49747W        W92800   9.400  24.588   8.402 -0.1129 -0.0560 -0.2126
49748W        W92801  16.762   8.348   3.971  0.1341  0.1338  0.3019
49749W        W92802  13.465   1.999   7.631  0.2945  0.1517 -0.1261
49750W        W92803  27.939  33.526   3.081  0.1503 -0.0440  0.2210
49751W        W92804  20.256  32.490  23.732 -0.0805 -0.2901  0.0989
49752W        W92805  28.558  32.577   8.205 -0.0285 -0.0650 -0.1659
49753W        W92806  27.544   2.699  18.455 -0.0639  0.2111 -0.0495
49754W        W92807  21.641  23.856   4.071 -0.2226 -0.2489  0.0475
49755W        W92808   0.297  27.383   8.182  0.0088  0.3734 -0.0278
49756W        W92809  31.708  31.951  28.097  0.3722 -0.0653 -0.3585
49757W        W92810  22.459   1.382   0.683  0.4401  0.0209 -0.0735
49758W        W92811  33.905  17.879   8.886 -0.0300 -0.3102 -0.5200
49759W        W92812   0.371   6.273   6.534  0.0269  0.0946  0.0103
49760W        W92813   4.240  23.916  27.743  0.1469  0.0378 -0.2852
49761W        W92814   7.051   1.312   8.031  0.1062  0.1352  0.1964
49762W        W92815  26.341  32.923  20.529  0.1327 -0.2196  0.0603
49763W        W92816   8.361   2.453   8.658  0.4666  0.3113  0.1977
49764W        W92817  26.837  25.638   7.886  0.0378  0.0638 -0.3489
49765W        W92818  28.121  27.161   2.984 -0.0235  0.0091  0.0899
49766W        W92819   2.068   0.652  25.776  0.1357 -0.0796  0.0574
49767W        W92820  22.002  12.899   7.532 -0.2612 -0.2171  0.3093
49768W        W92821  17.947  25.758   3.943  0.0836  0.1318 -0.0972
49769W        W92822   1.887  26.165   7.797 -0.1526  0.1504  0.4398
49770W        W92823  30.098   5.626   1.220  0.1295 -0.0280  0.0182
49771W        W92824  28.685  33.567   5.555 -0.1918  0.1315 -0.4711
49772W        W92825  20.013   0.831  10.317  0.2077  0.0904  0.1027
49773W        W92826  28.916   1.392  27.201 -0.2043  0.1462  0.0796
49774W        W92827  26.753  22.529   6.923 -0.1741 -0.0278 -0.0528
49775W        W92828  15.127  18.575  25.272  0.0029  0.0114 -0.0814
49776W        W92829  21.454  26.138   0.275  0.0209  0.2784 -0.1280
49777W        W92830  28.649   0.835   7.196 -0.1119  0.1526  0.0485
49778W        W92831  17.697  16.610   7.934 -0.3362 -0.2963  0.0661
49779W        W92832  25.390   2.563  15.814 -0.0265 -0.1247  0.1630
49780W        W92833  12.105   8.321  16.553 -0.1100 -0.0344  0.1118
49781W        W92834   3.803  29.749   4.151  0.3667 -0.1353 -0.1455
49782W        W92835  29.917  30.853   2.424 -0.5295 -0.0611  0.2179
49783W        W92836  19.167  21.024   9.578 -0.2135 -0.0958 -0.0304
49784W        W92837   2.277  33.269  20.549  0.1843 -0.0774  0.1671
49785W        W92838  32.346  18.483   7.837  0.1833  0.1937  0.0127
49786W        W92839  21.164   2.165   4.947 -0.0072 -0.2129  0.1593
49787W        W92840  31.809  31.175   7.313  0.0990  0.0694  0.0065
49788W        W92841   1.689  28.868  19.378 -0.0944  0.1727  0.0184
49789W        W92842   4.007  34.000   0.460  0.2845 -0.1286 -0.2184
49790W        W92843  23.881  24.227  28.273  0.1019 -0.1690 -0.1054
49791W        W92844  18.485  25.394  28.321 -0.3175  0.0676 -0.0870
49792W        W92845   4.105  30.132  28.110 -0.1686 -0.0819  0.0545
49793W        W92846  16.071   5.093  26.218 -0.1100 -0.0367  0.1471
49794W        W92847  32.233   0.112  10.094  0.3039  0.1305 -0.1150
49795W        W92848   6.004  25.356  28.099 -0.3084  0.2795 -0.1277
49796W        W92849  31.889  33.785  28.842 -0.1423 -0.0332 -0.0887
49797W        W92850  26.637  26.461   3.491 -0.0754  0.2361 -0.2483
49798W        W92851  24.375   4.668   8.585 -0.0663 -0.1195  0.3452
49799W        W92852  29.440  28.528   6.079  0.3945  0.1397  0.1251
49800W        W92853   3.775  24.419  18.693 -0.2008  0.2297 -0.1556
49801W        W92854  18.537   3.472  27.884  0.1172  0.2538 -0.2060
49802W        W92855  26.909  23.265  18.714 -0.0060 -0.2319  0.1062
49803W        W92856  24.644   7.893   9.040  0.1320  0.2644  0.1048
49804W        W92857  28.290  28.195   8.558 -0.1377 -0.1039  0.0869
49805W        W92858   2.411  28.935   2.135 -0.2109 -0.0368 -0.3603
49806W        W92859  34.628   7.166  25.931  0.0358 -0.1936 -0.0245
49807W        W92860  26.925  27.694   4.792 -0.2845  0.2034 -0.1319
49808W        W92861   6.827  27.049  18.035 -0.3156  0.2687 -0.1909
49809W        W92862  25.053   8.721   7.125  0.0384 -0.0266 -0.1492
49810W        W92863  24.568  10.565   1.024 -0.3297  0.1513 -0.0416
49811W        W92864  33.123  25.558  23.730  0.3557  0.3649 -0.1767
49812W        W92865  15.141  30.644   7.166  0.0198 -0.1696 -0.3725
49813W        W92866  25.941  22.090   1.995 -0.1188 -0.1882 -0.0085
49814W        W92867  24.768   3.895  25.593  0.2643 -0.2377  0.1337
49815W        W92868   2.564  34.355  14.085 -0.1779  0.0542  0.0172
49816W        W92869  31.681  33.194  28.420  0.0618  0.2191  0.1191
49817W        W92870  27.712   5.994   1.413  0.0745 -0.0047  0.3579
49818W        W92871  31.420  25.299  27.613  0.1999 -0.3234 -0.2462
49819W        W92872  30.591  25.791   8.855 -0.1305 -0.0051 -0.1253
49820W        W92873   7.116  29.371   5.434 -0.0427  0.1811  0.1029
49821W        W92874   0.157  19.782   8.852 -0.0085 -0.0529 -0.3286
49822W        W92875  31.589  31.192   1.720 -0.4068  0.1432 -0.0686
49823W        W92876  26.805  32.626  19.238  0.4731  0.0013  0.1540
49824W        W92877  18.934  28.631  24.984  0.0195 -0.0756 -0.2053
49825W        W92878  31.429  22.402   7.489 -0.0088 -0.0332  0.1375
49826W        W92879  17.329   9.582   3.211  0.1140  0.1233  0.2683
49827W        W92880  27.049  31.543  26.981 -0.1037 -0.0148  0.5228
49828W        W92881  27.692  28.561  14.558  0.1325 -0.3017  0.0322
49829W        W92882  24.575  13.331   4.345  0.1047 -0.0047 -0.4630
49830W        W92883   5.727  33.946   1.178  0.1692  0.0773  0.1398
49831W        W92884  16.388   0.375   5.587  0.2577 -0.2561  0.2591
49832W        W92885  11.311   3.799   7.520  0.2775 -0.1633  0.1300
49833W        W92886  33.496   4.788   7.695  0.1273 -0.0480  0.1818
49834W        W92887  21.278  11.346   2.019 -0.0485 -0.3778  0.2590
49835W        W92888  28.226  30.663  28.763 -0.0539  0.0169  0.0273
49836W        W92889  15.845   8.580  19.377  0.2114 -0.1160 -0.3931
49837W        W92890  24.217  19.207   8.218 -0.0538  0.1565 -0.1222
49838W        W92891  23.973  27.849   9.193  0.0879  0.1237 -0.0642
49839W        W92892  30.158   3.269  28.484 -0.1657 -0.3724 -0.1130
49840W        W92893  31.309  28.816  21.505 -0.0237 -0.1127 -0.0180
49841W        W92894  31.952  25.937   7.122 -0.0618 -0.3214 -0.0926
49842W        W92895  26.207  30.118   4.618 -0.0320  0.0013 -0.5618
49843W        W92896  15.344  31.699  22.299 -0.3083  0.0364 -0.0483
49844W        W92897   9.345   4.065   8.364 -0.1503  0.0510  0.0448
49845W        W92898  32.901   6.718   2.503  0.4335  0.0750  0.0582
49846W        W92899  15.983  32.156   3.154  0.1124  0.1314  0.0927
49847W        W92900   4.438  27.523   4.178  0.3077  0.0215  0.2084
49848W        W92901  31.789   1.357   1.591  0.2535 -0.1349  0.1557
49849W        W92902  20.139  33.301   8.758 -0.0321 -0.0623  0.0617
49850W        W92903  27.517   2.623   8.744  0.0812 -0.0558  0.0584
49851W        W92904  19.886  27.553   7.899  0.1644 -0.0456 -0.1347
49852W        W92905  22.806  13.439  24.149  0.1423 -0.0295 -0.2091
49853W        W92906  31.667  25.755   0.908  0.0237 -0.1445  0.0616
49854W        W92907   1.345  27.257   2.821 -0.0616 -0.1045  0.3940
49855W        W92908  26.648  34.486  19.832  0.1246  0.0651  0.3839
49856W        W92909  24.674  25.274   3.935  0.1089  0.2116 -0.2179
49857W        W92910  22.734  32.659  25.375  0.0109 -0.0105  0.1119
49858W        W92911  13.090  19.874  10.605  0.5038 -0.3937  0.2734
49859W        W92912   6.012   0.630  27.540 -0.2336 -0.0797 -0.0069
49860W        W92913   5.235   3.081  25.079 -0.4161 -0.0125 -0.2206
49861W        W92914   1.862   0.395   3.204 -0.1546 -0.1383 -0.0719
49862W        W92915  30.533   5.122   3.746  0.4516 -0.1250  0.1188
49863W        W92916  14.748  18.524   5.213 -0.2314  0.1486  0.0301
49864W        W92917   3.617  25.021   8.914 -0.2505  0.1194  0.0540
49865W        W92918  22.417  26.670   5.300 -0.1560  0.2837  0.2837
49866W        W92919  30.226  33.849   7.001 -0.1087 -0.0503 -0.2876
49867W        W92920  28.355  19.102   0.197 -0.2092 -0.0403  0.1386
49868W        W92921  33.561  31.337  28.669 -0.0363 -0.2383  0.0387
49869W        W92922   6.448  28.024  26.631  0.0265  0.3242 -0.1520
49870W        W92923  33.813   0.760  26.689  0.1360  0.0315 -0.0600
49871W        W92924  33.686  24.903   3.210  0.0234  0.1388 -0.0151
49872W        W92925   3.414  27.178  27.333 -0.1030 -0.0778  0.0330
49873W        W92926   3.754  27.046  16.655  0.1365  0.0004  0.0389
49874W        W92927  18.725   1.594  19.588  0.0148 -0.2125 -0.2335
49875W        W92928  16.847  33.792   2.653 -0.0376  0.2008  0.1197
49876W        W92929  33.940  10.926   6.940  0.0747 -0.0167  0.2888
49877W        W92930  31.860   2.596   8.850 -0.1890 -0.1078  0.0691
49878W        W92931  16.296  26.367   4.473 -0.1334 -0.2018  0.2193
49879W        W92932  15.303   1.124   4.458 -0.0880  0.0624 -0.0466
49880W        W92933  30.794   0.677   2.267  0.3458  0.0645 -0.1464
49881W        W92934   8.350   0.757   9.793 -0.2550  0.0505 -0.0571
49882W        W92935  32.823  34.251   2.418  0.1125  0.0255 -0.0707
49883W        W92936  14.337  30.856  22.298 -0.3113 -0.0721  0.1236
49884W        W92937  33.060  26.498  24.568 -0.4512 -0.1423  0.3908
49885W        W92938   2.951   0.615   4.448  0.0379  0.1193  0.3030
49886W        W92939   0.069  17.956   9.397 -0.0977 -0.0653 -0.1524
49887W        W92940   7.745  23.523  28.264 -0.0276 -0.0294  0.3057
49888W        W92941   8.871   8.333   0.935 -0.4521  0.0913 -0.0034
49889W        W92942  22.340  17.770  25.652  0.2616 -0.1426  0.0321
49890W        W92943  13.883  15.791   0.482  0.3692  0.1752  0.1448
49891W        W92944  33.472  25.469   7.993  0.4312  0.1716  0.3494
49892W        W92945  31.992  25.071   2.177  0.0767  0.1865 -0.0267
49893W        W92946  27.382   5.892   7.962  0.1264 -0.0268  0.0053
49894W        W92947  33.195  30.602  27.952 -0.1804  0.2513  0.0812
49895W        W92948  30.548   8.092   0.653 -0.0226 -0.3477  0.0985
49896W        W92949   1.615  21.970  24.272  0.0528  0.0151  0.0152
49897W        W92950  29.176   9.283   8.411 -0.0763  0.0888  0.2661
49898W        W92951  24.955  19.391  25.929  0.0012 -0.2717  0.0847
49899W        W92952  17.736   0.049  29.056 -0.2378  0.2330 -0.0711
49900W        W92953  30.392  17.568   7.572  0.0043  0.1160 -0.1065
49901W        W92954   8.966  26.676   7.732 -0.0534  0.2413 -0.0335
49902W        W92955  32.594  33.904  19.453 -0.5560 -0.0162  0.0657
49903W        W92956  20.329  30.322   7.311 -0.4731 -0.1343 -0.2895
49904W        W92957   9.755  25.881   4.846  0.4154  0.0106  0.0488
49905W        W92958  17.713  19.340   6.104 -0.1478  0.0318  0.0888
49906W        W92959  19.679  12.068   7.301 -0.0484  0.0971 -0.2960
49907W        W92960  28.621   0.817   6.636 -0.1584 -0.0335  0.1078
49908W        W92961  28.745   5.814   2.414  0.0472 -0.1004  0.2366
49909W        W92962   5.352   2.839   4.265  0.1696  0.1806  0.1940
49910W        W92963   7.675  30.657   2.258 -0.1990 -0.0716 -0.0841
49911W        W92964   0.241  22.355  24.871 -0.2185 -0.0967  0.2202
49912W        W92965   0.403   9.918   3.849 -0.1129 -0.0827  0.0581
49913W        W92966  25.740  27.953   4.022  0.0177  0.0212  0.1056
49914W        W92967  25.925  31.304  26.765  0.0243 -0.1626 -0.0712
49915W        W92968  33.173  26.602   5.909 -0.0066 -0.1738 -0.1512
49916W        W92969  22.602  16.390   1.147  0.2165  0.0472  0.0495
49917W        W92970  18.862  30.953   4.102 -0.1181 -0.1982  0.1195
49918W        W92971  28.018  31.889   4.376 -0.0592  0.2898  0.0655
49919W        W92972  29.296   4.842  21.345 -0.0722 -0.0295 -0.2144
49920W        W92973  11.375  24.184  16.750 -0.0861  0.0284 -0.0692
49921W        W92974   3.389  30.918   1.548 -0.0187 -0.3205 -0.1304
49922W        W92975  25.298  16.492   4.873  0.1614  0.0970 -0.2764
49923W        W92976   4.877   4.964  26.046  0.0864  0.0732  0.1246
49924W        W92977  27.910  24.651  23.263  0.2035  0.2184  0.0029
49925W        W92978  31.583   5.676   8.207  0.0734  0.0251  0.1668
49926W        W92979  22.669  27.309  15.517 -0.0733  0.0750 -0.0505
49927W        W92980  11.338   0.509   8.100  0.1492  0.3370 -0.1338
49928W        W92981  30.731   3.331   9.666 -0.2093 -0.0751  0.2058
49929W        W92982  28.811  23.428   8.716  0.0216 -0.0106  0.2054
49930W        W92983  24.975   0.498   9.455  0.3490 -0.0612  0.2615
49931W        W92984  20.540  16.643  26.334  0.0492 -0.4080 -0.1936
49932W        W92985  25.495  28.005  27.762  0.0667  0.1283  0.0681
49933W        W92986  12.663  21.622   4.692 -0.0794 -0.0652 -0.3166
49934W        W92987  24.721  26.288  21.192  0.3590  0.3155 -0.0180
49935W        W92988  21.752   1.862   3.752  0.0621  0.3485 -0.0796
49936W        W92989  31.047  29.734  26.192  0.3805  0.0995  0.1243
49937W        W92990   3.903  23.380   3.022  0.1068  0.2610 -0.0245
49938W        W92991  10.316  24.434   9.991 -0.2132 -0.2015  0.0393
49939W        W92992   6.800  30.935   4.530 -0.2766  0.1522  0.0877
49940W        W92993   8.029  30.381   7.633  0.0002  0.3504 -0.2341
49941W        W92994   4.894   1.295   6.969  0.0916 -0.4550 -0.1693
49942W        W92995  30.921  28.670   3.138 -0.0450 -0.1616  0.1298
49943W        W92996  20.475  21.049   4.781  0.3226  0.1351  0.1828
49944W        W92997  34.190   1.360   1.961 -0.2670  0.0368  0.0588
49945W        W92998   2.461  24.890  25.022 -0.1118 -0.0005 -0.4850
49946W        W92999   9.327  33.265   9.647  0.3544 -0.1794 -0.1647
49947W        W93000  23.277  25.361  10.530 -0.0739  0.0526 -0.0100
49948W        W93001   7.145  25.606  28.742  0.0096  0.0197  0.1801
49949W        W93002  30.760  33.584   8.171  0.1560  0.1478  0.2333
49950W        W93003  31.907   6.766   7.599 -0.5418  0.0033  0.2270
49951W        W93004   3.595  30.851  17.526 -0.0714 -0.1472 -0.0812
49952W        W93005  31.952  18.644  27.819  0.1790  0.1478  0.3733
49953W        W93006  10.164   6.629  18.878 -0.0655 -0.2484 -0.4819
49954W        W93007   5.427   1.365  24.351 -0.2136 -0.4489  0.0357
49955W        W93008  18.698   1.167   1.374 -0.0608  0.3919 -0.0562
49956W        W93009   1.705  25.649   0.232 -0.1166 -0.1603  0.0083
49957W        W93010   8.396  28.985  24.906 -0.3051 -0.0606  0.1473
49958W        W93011  31.233  26.065   9.080  0.0257  0.2676 -0.2595
49959W        W93012  29.504  33.413   0.920  0.2167  0.1832 -0.0669
49960W        W93013  17.588  12.572  26.726 -0.2194 -0.0439  0.4213
49961W        W93014  31.561  32.940  27.254 -0.2334 -0.2804 -0.2483
49962W        W93015  14.227  16.030   0.074 -0.0226  0.2817  0.0140
49963W        W93016  20.970  11.272   3.383  0.0370 -0.3152  0.2307
49964W        W93017   5.585  30.301  28.866 -0.2740 -0.0820 -0.1001
49965W        W93018  23.870   7.622   4.903 -0.0515 -0.2402 -0.0791
49966W        W93019  25.537   9.922  18.495  0.1035  0.2732  0.0299
49967W        W93020  28.120   2.976   0.896  0.2042 -0.1242  0.0455
49968W        W93021   0.028   9.940  15.796  0.1582 -0.0100 -0.0713
49969W        W93022   1.685  32.333   0.211  0.0716  0.1529 -0.1724
49970W        W93023   1.510  16.556   1.055 -0.1245  0.5511 -0.0193
49971W        W93024  28.854   0.378   5.899  0.1366  0.2994  0.0343
49972W        W93025  33.429   2.652   1.544 -0.1120 -0.0646 -0.1371
49973W        W93026   8.609  14.018  28.548  0.0681 -0.0149  0.0359
49974W        W93027  29.579  21.732   7.367 -0.0402 -0.0609 -0.1759
49975W        W93028  11.528   5.434   1.134 -0.3681  0.3205 -0.2475
49976W        W93029  13.298  22.937   1.299  0.0249 -0.1331 -0.0504
49977W        W93030  25.140  33.795   8.740  0.4177  0.1111  0.0907
49978W        W93031  32.899  28.061  27.617 -0.3323 -0.2175 -0.0930
49979W        W93032  15.812  18.224   1.074 -0.0098  0.3744 -0.0224
49980W        W93033  34.630  31.407  22.981 -0.0524  0.1739  0.4924
49981W        W93034  25.701   0.709   0.471 -0.3065 -0.2772 -0.0480
49982W        W93035  34.189  32.613   5.169 -0.0026 -0.3333  0.0237
49983W        W93036  27.494  28.128   5.546 -0.2342  0.0047  0.0876
49984W        W93037   6.958   5.136   9.770 -0.0901  0.0122  0.5102
49985W        W93038  33.157  32.541  21.193 -0.0683  0.1709 -0.1614
49986W        W93039  24.947  29.360   5.179 -0.0394  0.0621 -0.1086
49987W        W93040  28.146   3.633   1.854 -0.3424  0.0702  0.3248
49988W        W93041  33.018   3.924   7.028  0.2857 -0.1420 -0.0290
49989W        W93042  26.157  24.260  10.027  0.3566 -0.0822 -0.0854
49990W        W93043   1.846  13.453   4.879  0.2228  0.0774 -0.2233
49991W        W93044  29.112  29.609   3.175 -0.2893  0.2613  0.3764
49992W        W93045   7.630   8.391   4.105 -0.0343  0.1070 -0.2817
49993W        W93046  19.582   4.674   1.946  0.2974  0.3033 -0.2591
49994W        W93047  28.056   6.186   4.284  0.1512 -0.3080  0.3844
49995W        W93048   0.988  29.969   4.696  0.1171 -0.2362 -0.1721
49996W        W93049  13.566  28.101   6.822 -0.2188 -0.4838  0.1161
49997W        W93050  13.123   3.478   0.033  0.1750 -0.3426 -0.1964
49998W        W93051  23.266  32.172   7.976 -0.0362  0.3898  0.0453
49999W        W93052   4.504   6.160   1.901 -0.1017 -0.1375 -0.1928
50000W        W93053  22.190  31.881  20.055 -0.0804  0.2030  0.0875
50001W        W93054   5.159  26.610   7.260  0.0592 -0.2063  0.0515
50002W        W93055  23.760  26.870   4.093 -0.1514  0.0421  0.1065
50003W        W93056  27.929  22.844  27.003  0.1959  0.1324  0.0367
50004W        W93057   0.921  13.250   7.790 -0.2795  0.1230 -0.1977
50005W        W93058  16.938  18.352   0.241  0.0542  0.0286  0.1321
50006W        W93059  24.416  21.071   6.940 -0.1723 -0.2130  0.1747
50007W        W93060  26.043  28.324   7.515 -0.0682 -0.2285 -0.0979
50008W        W93061  12.027  23.257   2.476  0.0455  0.4183  0.2521
50009W        W93062  22.187  18.418  22.160 -0.0793  0.2815 -0.1626
50010W        W93063  26.157  28.165   4.251  0.1030 -0.1471  0.3120
50011W        W93064  11.234  33.600   4.162  0.2050  0.0790 -0.0303
50012W        W93065  30.038  30.236  27.918  0.0328 -0.0291  0.1772
50013W        W93066  22.653  12.901  26.632  0.0293  0.0474 -0.0744
50014W        W93067  29.784  13.953   7.280 -0.3237 -0.1596  0.2370
50015W        W93068  25.970  25.390   8.918  0.2642 -0.0193  0.1647
50016W        W93069  33.326   9.442   3.507  0.1782  0.0644 -0.0637
50017W        W93070   4.151   6.399  26.779  0.2025  0.0973  0.2169
50018W        W93071  25.866   2.000   9.713 -0.3136  0.1056  0.3007
50019W        W93072   6.788  18.013   3.190  0.0320 -0.1046  0.1093
50020W        W93073   5.259  27.528   7.787 -0.0788  0.0321  0.1113
50021W        W93074   6.958  33.431  26.196  0.3216  0.1452  0.2169
50022W        W93075  30.401  18.695  20.779  0.0554  0.1383  0.0539
50023W        W93076   6.785  28.747   4.536  0.2346 -0.0340  0.0263
50024W        W93077   2.787  10.619  24.611  0.2600  0.3246  0.0782
50025W        W93078  26.381   5.986   8.370  0.0510 -0.1429 -0.2109
50026W        W93079  25.041  18.705   6.585 -0.0973  0.1926  0.0389
50027W        W93080  28.416  15.211   2.489  0.0943 -0.1561  0.1600
50028W        W93081  25.548   3.414   9.332 -0.0660  0.1008  0.0115
50029W        W93082   6.126  24.824  27.616  0.3364 -0.0296 -0.0969
50030W        W93083  16.019  21.425   5.466 -0.0925 -0.0233  0.1252
50031W        W93084  18.403  16.535   8.910  0.0109 -0.0245 -0.1237
50032W        W93085  20.671   5.603   8.107  0.0417  0.1872 -0.1591
50033W        W93086   1.506  24.556  27.687  0.0242  0.2305  0.4289
50034W        W93087  29.397  24.973   6.415 -0.1193 -0.0040 -0.4209
50035W        W93088  20.050  20.310  17.930  0.0916 -0.0581  0.0226
50036W        W93089  28.116   2.715   3.376  0.0181  0.1698 -0.0732
50037W        W93090  28.437  14.255   5.367 -0.1880  0.0500 -0.0665
50038W        W93091  24.617  22.755  27.156  0.0561 -0.1251  0.1421
50039W        W93092  24.645  22.084   5.332  0.2962  0.0920  0.2330
50040W        W93093  28.046  23.085   3.763 -0.0797 -0.1552  0.1306
50041W        W93094   6.615  21.638  28.020  0.1104 -0.1555  0.0089
50042W        W93095  34.285  20.851  27.455  0.0750  0.0311  0.1521
50043W        W93096  28.450  22.823   3.590 -0.0432  0.2319  0.1468
50044W        W93097   4.478  11.149   9.172 -0.0411 -0.1268 -0.0003
50045W        W93098   1.105  23.427   3.174  0.0888 -0.0464  0.1399
50046W        W93099  14.824  26.020  28.579  0.1713  0.0354  0.2140
50047W        W93100  26.673   3.664  25.534  0.0465 -0.2411  0.1926
50048W        W93101  30.057   8.118   0.732 -0.2573  0.0115  0.2837
50049W        W93102   0.232   5.363  25.993  0.1005 -0.1773 -0.2188
50050W        W93103  34.360  27.108  29.005  0.1600 -0.0379  0.0170
50051W        W93104   1.490   0.369   9.128 -0.0844  0.0978  0.0091
50052W        W93105  32.961   5.526   5.993 -0.1063 -0.0483  0.0861
50053W        W93106   9.607  29.170  24.204 -0.1979  0.0095 -0.2485
50054W        W93107  15.151   2.409   2.231 -0.5143 -0.2071  0.2924
50055W        W93108  27.577  15.621   0.754  0.0616  0.1800  0.1150
50056W        W93109  16.751   3.736   6.082  0.3673 -0.2219  0.0363
50057W        W93110  22.416  32.009   7.606  0.0968 -0.2956 -0.0725
50058W        W93111  19.963  30.324   4.596  0.1963  0.1334  0.1480
50059W        W93112  26.617  31.008   4.297 -0.3123 -0.0550 -0.1338
50060W        W93113   3.771  10.002   4.540  0.2158  0.1523  0.4895
50061W        W93114  13.870  28.450  28.758 -0.1082 -0.1957  0.0476
50062W        W93115  20.958  29.324   2.945  0.1909 -0.1751 -0.0933
50063W        W93116  33.797  30.934   8.744  0.0735  0.0619  0.4556
50064W        W93117  26.597  29.963  28.788  0.0041  0.2799  0.2456
50065W        W93118  21.492   8.582   3.324  0.0206  0.0599  0.0632
50066W        W93119  22.687  16.790  28.443  0.0202  0.3261 -0.1995
50067W        W93120  32.551   7.056   6.899 -0.1221 -0.1535 -0.4379
50068W        W93121  28.998  15.003   9.451  0.2582 -0.0853 -0.1584
50069W        W93122  25.358  24.023   5.849 -0.1124 -0.0978 -0.1316
50070W        W93123  28.650  33.797  27.945 -0.1801 -0.0190  0.0635
50071W        W93124  21.784  29.207   8.969 -0.2415 -0.0761  0.0102
50072W        W93125  24.091  10.012  23.917  0.0906 -0.2403  0.0232
50073W        W93126  25.121   2.368   8.742 -0.3112  0.0876 -0.2142
50074W        W93127   4.005  19.173  28.907  0.1673 -0.1196  0.1140
50075W        W93128  28.356  21.349  23.154 -0.0807  0.0136  0.1838
50076W        W93129  32.950  19.071   7.399 -0.3222  0.1798 -0.2234
50077W        W93130   1.409  33.870   7.718 -0.3402 -0.0730 -0.1441
50078W        W93131   8.868  22.486   6.113  0.1311 -0.2143 -0.0999
50079W        W93132  26.867  28.077  25.784 -0.0738 -0.3125 -0.0404
50080W        W93133   1.133  17.186   1.668 -0.0181 -0.0155 -0.0760
50081W        W93134  27.472   8.879   7.749  0.3716 -0.2048 -0.1549
50082W        W93135   7.616  28.718   1.936 -0.0137 -0.1670 -0.1433
50083W        W93136  27.866   1.317  10.630  0.1500  0.1727  0.1030
50084W        W93137   2.680  20.043  27.059  0.1946 -0.0111 -0.0099
50085W        W93138  21.766  15.585   2.111  0.1850  0.2070  0.2667
50086W        W93139  13.270   5.176   9.133 -0.2418  0.0076 -0.0721
50087W        W93140   9.105  24.247   5.735 -0.0960 -0.0759  0.0836
50088W        W93141   7.789   1.535  20.130 -0.4265  0.1189  0.0182
50089W        W93142   7.831  27.951   6.437 -0.2381 -0.1032  0.2371
50090W        W93143  25.855  28.743   4.972 -0.0966 -0.1104 -0.2718
50091W        W93144  27.053   1.434  26.838 -0.0529 -0.1679  0.2995
50092W        W93145  29.333   0.438   4.733 -0.0785 -0.1184  0.1437
50093W        W93146   2.034   1.339   3.494  0.1805  0.0748  0.1482
50094W        W93147   0.355   9.058   3.630 -0.1461  0.0228 -0.2014
50095W        W93148  23.685   0.286   9.331 -0.0299  0.0591 -0.0163
50096W        W93149  25.096   6.287  23.318 -0.4797  0.2062 -0.0735
50097W        W93150  28.831   6.646   7.321  0.3272  0.1589 -0.1923
50098W        W93151  12.191  21.362   9.983 -0.2266  0.0046 -0.0014
50099W        W93152  33.302   7.897   9.724  0.4076 -0.0816 -0.2670
50100W        W93153  27.859  14.541   6.444  0.3538 -0.4007 -0.1571
50101W        W93154  25.942  11.332   6.283  0.0441  0.3201  0.1485
50102W        W93155  10.671  13.058  21.293  0.0623  0.0421 -0.2140
50103W        W93156  20.040  31.372   4.408 -0.3378 -0.0891  0.1036
50104W        W93157   3.104  23.749  25.431 -0.1429 -0.1202 -0.2160
50105W        W93158   1.403   8.810  28.448 -0.1770 -0.1360 -0.4096
50106W        W93159  19.166   2.184   9.945  0.1322  0.2421  0.2592
50107W        W93160  27.346  24.823  28.225 -0.1614  0.3012  0.0790
50108W        W93161  33.040   3.871   5.129 -0.2664 -0.2403  0.2235
50109W        W93162  22.530  28.954   8.336 -0.3219  0.1872  0.1350
50110W        W93163  22.394  29.134  10.271  0.3123 -0.2425 -0.0456
50111W        W93164  23.602  22.399   8.158 -0.4497  0.2499  0.2828
50112W        W93165  25.022  32.182   6.303  0.1936 -0.5102 -0.1732
50113W        W93166   0.200   1.601   9.531  0.1039  0.1420 -0.1997
50114W        W93167  27.072   6.341   8.720  0.3404  0.0033 -0.0947
50115W        W93168  25.957  10.982   8.335  0.0090 -0.2619 -0.0163
50116W        W93169  29.570  19.541   9.383 -0.2140 -0.0288  0.2474
50117W        W93170  33.480  32.452   9.588 -0.2528  0.0249 -0.1153
50118W        W93171  27.530  11.333   5.802 -0.0611 -0.3848  0.1647
50119W        W93172  29.348  29.583   4.095  0.0846  0.1733  0.3648
50120W        W93173   5.664  30.567   8.461 -0.1593  0.0202  0.0882
50121W        W93174   7.164  25.138  27.050  0.3359  0.1548 -0.1485
50122W        W93175  27.159  28.934   5.970  0.0530  0.1285  0.2761
50123W        W93176  31.537   4.289  27.941 -0.0358 -0.1888  0.0646
50124W        W93177   0.258  18.443  25.329  0.1096 -0.0244  0.1603
50125W        W93178  25.403   4.796  21.071  0.1045  0.0990  0.2264
50126W        W93179  29.023  26.676  25.711  0.0668  0.1196 -0.1840
50127W        W93180   1.973  28.087   6.940 -0.1065  0.0646 -0.0009
50128W        W93181  34.103  20.341  17.008 -0.1437 -0.2001  0.0812
50129W        W93182  34.356   5.718   2.773 -0.0515  0.0686  0.0652
50130W        W93183   5.858   0.571   7.332  0.0554 -0.0248 -0.0201
50131W        W93184  21.433  14.182   0.686  0.1327  0.3511 -0.0149
50132W        W93185   2.075  21.105   8.640  0.1167  0.2426 -0.0723
50133W        W93186  26.714  16.813   7.065 -0.1913 -0.1737 -0.1558
50134W        W93187  22.289  24.902   1.341  0.2217  0.0877  0.1148
50135W        W93188   7.567   6.035   2.955 -0.0246 -0.0969  0.2458
50136W        W93189  31.106  30.621   7.454  0.2248  0.0603  0.2109
50137W        W93190   4.895  31.607   8.496  0.1223  0.4076  0.3406
50138W        W93191  32.454  19.898   8.556  0.0793  0.1447 -0.2086
50139W        W93192  20.434  27.082   4.738  0.0962  0.0299  0.1777
50140W        W93193  31.962   7.803   6.676 -0.1606 -0.3422  0.1090
50141W        W93194  32.954   2.340   9.878  0.1382 -0.3206  0.2202
50142W        W93195   9.543  27.358   7.320  0.0753 -0.2818 -0.2424
50143W        W93196  17.298   7.473   2.469  0.0873  0.2434 -0.0169
50144W        W93197  28.880  18.709   8.763  0.2277  0.0269 -0.1465
50145W        W93198  10.165  27.984   8.354 -0.1768  0.0944 -0.0885
50146W        W93199  31.018  27.229   7.703  0.0651  0.0407 -0.0153
50147W        W93200  24.718  19.520  24.853  0.3096 -0.1241  0.1725
50148W        W93201  21.367   7.599  26.279 -0.0416  0.0159  0.2670
50149W        W93202  26.935  33.059   0.863 -0.4645 -0.0968  0.0069
50150W        W93203   8.517  26.936   7.498 -0.0243  0.1597  0.0360
50151W        W93204  26.654  31.526   8.593  0.0869  0.3697 -0.0975
50152W        W93205  33.201  10.063   7.696 -0.0820  0.2523 -0.0142
50153W        W93206  30.679  34.221   5.913  0.2081  0.2283 -0.0066
50154W        W93207  32.726  21.726   2.961  0.5419  0.0218 -0.1620
50155W        W93208  14.886  25.716   1.041 -0.1637  0.2179  0.0482
50156W        W93209  29.622  30.634  24.859 -0.0335 -0.0371  0.0425
50157W        W93210  28.074   4.413  23.302 -0.0947 -0.1308  0.1477
50158W        W93211   5.427  34.301   6.519  0.2338  0.0797 -0.0793
50159W        W93212   3.481  19.310   7.557 -0.1751 -0.1494 -0.0872
50160W        W93213  31.259   3.329  25.241  0.4492  0.0307 -0.0359
50161W        W93214   4.474  23.314   4.829 -0.0251 -0.2493 -0.2068
50162W        W93215  16.630  34.090   9.721  0.0135 -0.0957 -0.1145
50163W        W93216  33.663  31.375  27.635 -0.2485  0.1020  0.1683
50164W        W93217  29.575  18.962  18.408 -0.2288 -0.2108 -0.1644
50165W        W93218  33.909   7.138   9.194  0.1047  0.0612 -0.2316
50166W        W93219  17.486  31.009   1.398 -0.2262 -0.2885 -0.3697
50167W        W93220  19.670  29.160   9.506  0.0621  0.0025 -0.2470
50168W        W93221  10.010  32.023   9.077 -0.0860  0.1549  0.1022
50169W        W93222   9.277   6.249   1.952  0.4523 -0.0328 -0.1838
50170W        W93223  24.324  27.090   8.406  0.2589  0.1688  0.0226
50171W        W93224   0.944  23.814  28.187  0.1906  0.2622  0.1172
50172W        W93225   3.640  10.140  19.257 -0.2757  0.1147  0.0602
50173W        W93226  20.031  29.183   7.635 -0.0305  0.1368  0.2035
50174W        W93227  22.095   2.250  20.953 -0.0008 -0.1239  0.0325
50175W        W93228  30.101  17.841   6.703  0.2281  0.0345 -0.0202
50176W        W93229   8.193   3.249  10.048 -0.0921  0.2304 -0.2197
50177W        W93230  18.973   3.174   6.828 -0.0757  0.0769 -0.1162
50178W        W93231  20.948  25.393   9.178  0.2269 -0.0455  0.0430
50179W        W93232  20.330  15.378  28.976  0.2616 -0.0710  0.2289
50180W        W93233  32.612  20.489   9.161  0.1870 -0.0347 -0.1164
50181W        W93234  24.975  32.416   9.282  0.0667  0.1019  0.3117
50182W        W93235   6.079  25.281  19.724  0.1606  0.2089 -0.0744
50183W        W93236  19.455  34.214   1.140 -0.0823 -0.3589 -0.1920
50184W        W93237   1.319  31.066   7.965  0.0184  0.0147 -0.1811
50185W        W93238  10.174  21.016   3.689 -0.1094 -0.3891 -0.1344
50186W        W93239  33.229   3.051   6.528  0.3296  0.2107 -0.1712
50187W        W93240  33.486   6.211   3.808 -0.2135  0.2630 -0.1133
50188W        W93241  27.895  26.933   9.069  0.0369  0.2094 -0.0985
50189W        W93242  26.402   6.445  22.793 -0.3242  0.2556  0.0055
50190W        W93243  28.734  34.642  20.555 -0.1415 -0.2133  0.3452
50191W        W93244   8.869  30.076   8.016  0.0429 -0.2479  0.1047
50192W        W93245  21.737  23.057  28.043 -0.1060  0.0601  0.0155
50193W        W93246  13.883  32.560   3.063 -0.2415  0.1845 -0.0282
50194W        W93247  20.367  23.603  28.957  0.0637  0.1420 -0.4010
50195W        W93248   3.557  30.307  27.482 -0.2062  0.1102  0.1880
50196W        W93249  22.116  32.306  27.604 -0.1308  0.5891 -0.1327
50197W        W93250   2.337   6.853   6.241 -0.1166 -0.0909  0.2684
50198W        W93251  17.166  24.115   0.491  0.1093 -0.1903 -0.0924
50199W        W93252   1.322  33.226   8.819  0.1330 -0.1911  0.2621
50200W        W93253  25.090  24.128   6.471  0.2377  0.1386 -0.5508
50201W        W93254   1.227  26.640   2.765  0.1207 -0.3788  0.0043
50202W        W93255   2.682   9.079  18.821  0.0720  0.2037  0.0730
50203W        W93256   2.648   0.393   3.636 -0.1593  0.1757 -0.1216
50204W        W93257   9.815  12.700   1.552 -0.0792 -0.2775  0.1675
50205W        W93258  27.318   0.571   5.708  0.0562  0.0226 -0.3780
50206W        W93259   4.442   8.566   0.899 -0.1170  0.1770  0.0215
50207W        W93260  17.214  24.875  10.336  0.1089  0.1285 -0.1098
50208W        W93261  10.812  30.463   0.945  0.0630  0.1018 -0.2353
50209W        W93262  25.926  25.092   2.722  0.3681 -0.0267 -0.1834
50210W        W93263  34.030   2.960   9.761  0.0662 -0.0546  0.1279
50211W        W93264  11.698  29.788   8.440 -0.0238 -0.0295 -0.1035
50212W        W93265  22.404  32.890   7.089 -0.0724  0.2032 -0.0329
50213W        W93266  27.790  24.723  27.341  0.2294 -0.0986  0.2778
50214W        W93267  30.592  33.473   6.506 -0.0490  0.0343 -0.2508
50215W        W93268  23.694  30.882   7.820  0.0560 -0.0365  0.0492
50216W        W93269  27.765  34.687   4.466  0.1356 -0.1845 -0.0246
50217W        W93270  29.214  25.521   1.680 -0.0667 -0.0193 -0.0189
50218W        W93271  10.268  33.129   6.469 -0.0792 -0.1027  0.0798
50219W        W93272  24.088  22.501   3.208  0.4101  0.3760 -0.2079
50220W        W93273  26.647  28.230   6.509  0.2879 -0.0435 -0.4532
50221W        W93274   3.132  27.839  28.729  0.2488 -0.0962 -0.2368
50222W        W93275  26.627   6.274  16.376  0.0917 -0.0058 -0.2602
50223W        W93276  29.969   0.892  26.825 -0.1750 -0.0130  0.0177
50224W        W93277  28.210  25.579   7.120  0.3221  0.2549  0.3115
50225W        W93278  10.766  29.190  21.791 -0.2043  0.3068  0.2022
50226W        W93279   0.601  28.756  18.580  0.0696 -0.1991 -0.2157
50227W        W93280  19.639  29.940   8.808  0.2376  0.0428 -0.2108
50228W        W93281  16.484   3.470  24.235 -0.1466  0.1139 -0.1995
50229W        W93282  15.893  13.327   1.898 -0.0607  0.0336 -0.2063
50230W        W93283  15.373   3.146   8.864 -0.1237 -0.0585 -0.0028
50231W        W93284  22.106  25.760   0.012 -0.0468 -0.1030  0.1614
50232W        W93285  18.402  26.117  10.695 -0.1055 -0.2355 -0.0600
50233W        W93286  33.801  15.575  18.588  0.1411  0.2259 -0.2346
50234W        W93287  22.100  33.486  22.863  0.0640 -0.1121  0.1666
50235W        W93288  25.824   1.221  27.794  0.1611 -0.0434 -0.2294
50236W        W93289  21.638   4.639  17.609 -0.2342 -0.1863 -0.0201
50237W        W93290  24.453   7.641  28.460 -0.1232 -0.0969 -0.0341
50238W        W93291  27.769  14.841   8.635 -0.1118  0.0871  0.1722
50239W        W93292  31.561   3.131  17.940 -0.2574 -0.3816 -0.3735
50240W        W93293  20.223  30.014  15.912  0.3546 -0.2415 -0.1087
50241W        W93294  28.393  15.863   4.707 -0.0202 -0.0140 -0.1113
50242W        W93295  17.599  31.039   7.485  0.1192 -0.1101 -0.0827
50243W        W93296  30.766  27.621  22.802  0.1407  0.1591  0.0354
50244W        W93297  22.846   8.222  15.153 -0.2333 -0.1744 -0.1525
50245W        W93298  26.320  29.321   3.839 -0.0404  0.0241 -0.2443
50246W        W93299  25.831   9.122  26.961  0.2266  0.0119 -0.0569
50247W        W93300  20.972   1.752   7.085 -0.0887  0.1470  0.0168
50248W        W93301  32.716   8.444  21.581  0.1905 -0.0205  0.2178
50249W        W93302  33.965   8.233  18.753 -0.3263  0.4246  0.2620
50250W        W93303  16.118   1.337   6.051 -0.3006  0.1051  0.0470
50251W        W93304  19.769  31.131   3.944  0.0311 -0.0213 -0.1335
50252W        W93305  24.754  26.405  27.133  0.1391 -0.0884 -0.0344
50253W        W93306  10.975  27.387  20.341 -0.1477 -0.0100 -0.0313
50254W        W93307   6.480   2.080   1.268 -0.3438 -0.1814 -0.0392
50255W        W93308   3.549  27.562   4.047 -0.0352 -0.4272 -0.3734
50256W        W93309  18.797   3.708  26.807 -0.0353 -0.1141  0.0505
50257W        W93310  31.647   5.960  20.136  0.2374 -0.3949  0.0520
50258W        W93311  23.928  32.375  15.279  0.0054 -0.1444 -0.1629
50259W        W93312  10.892  30.711  22.939  0.0585 -0.0005 -0.0798
50260W        W93313  34.394   2.797  26.923  0.4817 -0.1080  0.2416
50261W        W93314  19.183  31.834  25.877 -0.0061  0.1491  0.1320
50262W        W93315  28.379  19.925  21.298 -0.0152 -0.3168  0.0468
50263W        W93316   7.286  34.238   1.365  0.1275 -0.1142  0.1386
50264W        W93317  24.279  34.146  15.740  0.1246 -0.1827 -0.1681
50265W        W93318  23.881  11.735  21.819 -0.1282  0.0099 -0.0466
50266W        W93319   2.738  33.519  20.643  0.2980  0.0300 -0.4089
50267W        W93320   9.010   2.848   3.999  0.1422 -0.3321 -0.0218
50268W        W93321  31.479  32.132   0.314  0.0767 -0.0592  0.0281
50269W        W93322  30.799   1.697   9.902 -0.2431 -0.0431  0.0008
50270W        W93323  25.886  10.328  10.044 -0.3406  0.0636 -0.3538
50271W        W93324  10.040   6.979   1.835 -0.1594 -0.2469 -0.3161
50272W        W93325  21.976  21.038  17.423 -0.0492  0.0078 -0.0616
50273W        W93326  29.679  31.096   9.393  0.2842 -0.2468 -0.0170
50274W        W93327  30.577   1.842   5.566 -0.0607 -0.1471  0.1862
50275W        W93328   8.510  28.902  23.981 -0.3900 -0.0338  0.0173
50276W        W93329  25.507   9.523   6.844  0.1482 -0.2246 -0.0720
50277W        W93330   3.329  31.112  26.515 -0.0110  0.0182 -0.0745
50278W        W93331  16.013  25.952   4.383  0.2895  0.1647  0.0340
50279W        W93332  19.786  28.616  28.918 -0.2848 -0.3889  0.5871
50280W        W93333  18.356  12.441  10.533 -0.0660  0.2704  0.0523
50281W        W93334  29.210  27.552  26.988 -0.1078  0.1485  0.0283
50282W        W93335  21.964  33.947  23.572  0.0901  0.1369  0.0871
50283W        W93336  23.372   2.054   4.780 -0.2786  0.0350 -0.3662
50284W        W93337  32.035  10.557   8.533 -0.1692 -0.1952  0.1368
50285W        W93338  12.439  27.563  23.825 -0.0927 -0.1716 -0.2481
50286W        W93339  21.935  12.034   4.425  0.2808 -0.0491 -0.3180
50287W        W93340  24.316   5.947  28.407  0.0174 -0.0054 -0.2084
50288W        W93341   2.681   2.591  25.759 -0.1130 -0.0226  0.1183
50289W        W93342  17.923  32.371  17.636  0.2988  0.2395  0.2433
50290W        W93343  29.816  11.139  11.335 -0.0018  0.0729 -0.2946
50291W        W93344  29.110  24.080   4.508  0.0086 -0.0995 -0.4040
50292W        W93345  19.251  22.423  25.905  0.1720  0.1192 -0.0787
50293W        W93346  28.775  15.763   3.481 -0.1513  0.1686  0.3686
50294W        W93347   7.964   9.912  14.975  0.2437 -0.0231 -0.0246
50295W        W93348   0.696   4.730  14.299 -0.1800 -0.3707  0.4585
50296W        W93349   0.542   2.324  18.283  0.0501 -0.1844 -0.2593
50297W        W93350  23.149  10.504  15.786 -0.0148  0.0691 -0.0803
50298W        W93351   7.603  30.841   1.243  0.1153 -0.1756  0.1744
50299W        W93352  33.776   1.014   8.736  0.0465 -0.3212 -0.0170
50300W        W93353   2.842  25.018   3.298  0.0398  0.0257 -0.1681
50301W        W93354  29.525  34.487   8.567 -0.0956  0.2489  0.0704
50302W        W93355  21.468   2.449  19.539  0.0873 -0.0216  0.0504
50303W        W93356  32.579  29.879   2.518 -0.0116  0.2089  0.0296
50304W        W93357   3.007  31.002   7.494  0.1621 -0.0793 -0.1699
50305W        W93358  23.849   9.423  15.293 -0.0529 -0.0383  0.3221
50306W        W93359  30.953  34.301  17.630 -0.1265 -0.5174 -0.0214
50307W        W93360  32.261  30.052  26.716 -0.0907 -0.1960  0.0920
50308W        W93361  31.669  22.216  25.851  0.0636 -0.0128 -0.2195
50309W        W93362  32.997  15.213  26.487 -0.1828 -0.0056 -0.0588
50310W        W93363  19.585  19.744   8.603 -0.0380  0.1385  0.1430
50311W        W93364  22.496  11.185  24.490 -0.0947  0.0644  0.0684
50312W        W93365  26.095  31.290   1.237 -0.1751 -0.0246 -0.1500
50313W        W93366   5.491  22.970   7.339  0.4483  0.1592  0.2611
50314W        W93367   5.810  31.686   3.126  0.1418  0.1346 -0.4870
50315W        W93368  31.198   9.143   9.793  0.2630  0.0138  0.3406
50316W        W93369   1.028  29.227   5.830 -0.4342  0.1558 -0.1545
50317W        W93370  19.795  22.727  24.596  0.0837 -0.0479 -0.0751
50318W        W93371   5.061  15.227   2.050  0.0011  0.1432 -0.0248
50319W        W93372  18.029  15.520  27.744  0.2373  0.2907  0.0318
50320W        W93373   7.438  29.922   4.411  0.1671  0.1371  0.1166
50321W        W93374  23.395  25.857   1.042 -0.2059  0.2118 -0.0376
50322W        W93375  27.955   1.861   5.770  0.0501  0.1147 -0.2161
50323W        W93376   9.853   7.036   5.988 -0.0618  0.1922 -0.0604
50324W        W93377  16.032  21.985   8.451  0.0836 -0.0256  0.2403
50325W        W93378   2.580  11.091   4.607 -0.1255 -0.0161  0.1771
50326W        W93379   0.756   5.052   7.981 -0.0791 -0.1599  0.0840
50327W        W93380   4.889  11.257  27.094 -0.2740 -0.0320  0.1570
50328W        W93381  31.811  24.422   5.429 -0.2140 -0.0343  0.2013
50329W        W93382  32.105  24.331  29.200 -0.2679 -0.2276  0.2015
50330W        W93383  20.093  32.181   3.645  0.1132  0.2184  0.3505
50331W        W93384  15.586   2.722   3.020 -0.2848 -0.1036  0.0106
50332W        W93385  29.328  33.415   2.924 -0.1397 -0.3066 -0.0344
50333W        W93386  29.181  33.166   4.252  0.3190 -0.5436  0.1644
50334W        W93387   1.248  23.104   9.861  0.0523  0.2611  0.1214
50335W        W93388   1.526  34.026  27.899 -0.2385  0.0094 -0.0494
50336W        W93389   3.387  31.635  27.587 -0.0513  0.0666  0.1796
50337W        W93390   9.964  30.650   9.261  0.2051 -0.0894  0.1812
50338W        W93391  14.370  30.887   3.292  0.1651 -0.0633 -0.1624
50339W        W93392  11.257  29.575   0.163 -0.1206 -0.1503 -0.3437
50340W        W93393  25.522   3.359   1.772  0.2361 -0.2387 -0.0890
50341W        W93394  32.853   4.660  23.981  0.1034 -0.1381 -0.0069
50342W        W93395  34.675  25.743   9.594 -0.3958 -0.1611 -0.0198
50343W        W93396   1.238  29.699  20.279 -0.2351  0.0576  0.1961
50344W        W93397  12.202  20.997   2.844  0.1855 -0.0224  0.1293
50345W        W93398   5.676   3.523   4.984  0.1820  0.2041 -0.0721
50346W        W93399   7.336   5.946  24.624  0.0707  0.0148  0.2271
50347W        W93400   4.301  24.024  14.203 -0.1540  0.1706 -0.1644
50348W        W93401   0.770  28.727   0.316  0.1993 -0.1167 -0.3952
50349W        W93402  21.102   1.725   0.978  0.1151  0.1725 -0.0769
50350W        W93403  32.630   7.961   9.006 -0.2236  0.0363 -0.1432
50351W        W93404  20.304  20.031   7.897 -0.2318  0.0504 -0.2108
50352W        W93405  26.823   7.206   2.737 -0.1698  0.1049  0.4347
50353W        W93406   3.195   2.301  16.701 -0.6409 -0.1187 -0.0538
50354W        W93407  13.669  25.642   5.928  0.0729 -0.1444  0.0106
50355W        W93408  18.414  28.183   7.859  0.0886 -0.2493  0.0429
50356W        W93409  29.696  17.126   9.887 -0.4527 -0.1921 -0.1617
50357W        W93410  32.345  26.885  22.278 -0.0846  0.1074  0.1796
50358W        W93411  25.856  30.106   9.494  0.2585 -0.0024  0.0615
50359W        W93412  30.309  10.905  17.282  0.2397  0.0638  0.1001
50360W        W93413   8.641  14.144  16.803  0.1044  0.3338 -0.0933
50361W        W93414   4.302  32.091  19.064  0.2978 -0.0729 -0.0895
50362W        W93415  16.671   9.746   7.874 -0.0256  0.0371  0.2715
50363W        W93416  31.326  27.363  19.731 -0.1472 -0.0554 -0.0617
50364W        W93417  28.074   5.497  19.413 -0.0692  0.4236  0.2378
50365W        W93418   2.611   1.357   8.437  0.2346  0.1306 -0.0361
50366W        W93419  29.411   9.602   1.040 -0.0504  0.1948 -0.1858
50367W        W93420  16.407   6.699   3.814  0.1283  0.1293 -0.1822
50368W        W93421   4.809   3.923   1.539 -0.0890 -0.1392 -0.0441
50369W        W93422  10.241  26.150  27.075 -0.0544  0.0306 -0.0343
50370W        W93423  28.756  29.275   1.913  0.1466  0.0899  0.0147
50371W        W93424  15.155  33.139   7.451  0.2903 -0.0157  0.0725
50372W        W93425   4.472  30.290  22.685 -0.0118 -0.1703 -0.1126
50373W        W93426  31.520   3.740  19.147  0.1805  0.3208 -0.0447
50374W        W93427   2.664   9.420  18.383  0.0033  0.1646  0.0833
50375W        W93428  31.277  24.328  27.802  0.0796 -0.1015  0.0814
50376W        W93429  10.092  30.675  28.517 -0.1290  0.0844 -0.1040
50377W        W93430  21.809  31.191  14.789  0.0745  0.2366  0.2758
50378W        W93431  23.196   1.586  17.838  0.2546  0.0468 -0.1112
50379W        W93432   4.133   5.399   6.938  0.1235  0.5186 -0.0743
50380W        W93433  22.868   8.374   3.056 -0.0719  0.1714  0.0936
50381W        W93434  13.758  30.098   5.995 -0.0751  0.0659  0.0705
50382W        W93435   2.502  22.023   7.735  0.0582  0.0758  0.1950
50383W        W93436  27.115  14.932   0.318 -0.0365 -0.4444  0.1274
50384W        W93437  20.266  34.544   7.487 -0.0521  0.3430  0.3097
50385W        W93438   9.147   9.824   1.527  0.3423  0.1343 -0.0579
50386W        W93439  29.793   1.948  26.545 -0.1069  0.2144 -0.0611
50387W        W93440  29.230  16.731  28.234  0.1628 -0.0894 -0.3425
50388W        W93441  33.848   1.300   2.906 -0.1054  0.2231  0.0715
50389W        W93442   1.158   0.854   5.786 -0.1005 -0.1724 -0.4683
50390W        W93443   1.842  34.226  22.220  0.2287 -0.3170 -0.3064
50391W        W93444  11.821  34.281   6.153  0.0814 -0.2511  0.1023
50392W        W93445   4.031  29.071  27.765  0.0042  0.0279  0.0107
50393W        W93446   8.141   2.631   7.588 -0.2155 -0.1106 -0.0975
50394W        W93447  25.422   5.666   7.836  0.2694 -0.0407 -0.2391
50395W        W93448  34.676  11.065  28.736 -0.0402  0.1125 -0.0317
50396W        W93449   1.102   1.911  15.101 -0.0390 -0.1326 -0.1830
50397W        W93450  30.978  17.025  26.809 -0.2486  0.3063 -0.1424
50398W        W93451  19.619  26.057  24.924  0.1415  0.2035 -0.3929
50399W        W93452   5.229  19.651   6.093  0.2066 -0.0597 -0.1105
50400W        W93453  11.286   5.996  27.981 -0.4012 -0.2638 -0.3739
50401W        W93454   9.470  27.544   8.363  0.0529 -0.0426  0.1222
50402W        W93455  21.103  31.395   4.055 -0.0538 -0.1392  0.1023
50403W        W93456  22.630   8.668  15.480  0.0625 -0.0004  0.2590
50404W        W93457  31.885  24.916  18.658 -0.0526  0.2065 -0.4902
50405W        W93458  20.153  26.879   5.253  0.0254  0.0032  0.0677
50406W        W93459  32.359  15.288  28.757  0.1806  0.0572 -0.0550
50407W        W93460  28.846  31.629   4.847 -0.1220  0.1401 -0.0224
50408W        W93461  10.465   0.885  18.307  0.0531 -0.3099  0.3272
50409W        W93462  32.256   3.078   0.161 -0.1343 -0.0385  0.1349
50410W        W93463  27.703  26.371   1.926 -0.0972  0.1254 -0.2542
50411W        W93464  31.999  19.902  21.992 -0.3380 -0.0841 -0.0069
50412W        W93465  29.456  32.894   9.876  0.0559 -0.3407 -0.2868
50413W        W93466  23.993  25.813  21.748 -0.2615  0.3509  0.1104
50414W        W93467  18.869  30.855   7.047 -0.1941 -0.1401 -0.0517
50415W        W93468   1.545   1.635   4.518  0.0961 -0.1546 -0.0213
50416W        W93469  27.244  25.576   6.412 -0.1466  0.1387 -0.2197
50417W        W93470  33.764  28.229   1.290  0.0721  0.1271  0.1472
50418W        W93471  29.362  32.585   2.601  0.1223 -0.1205  0.0454
50419W        W93472  30.904   4.442  23.176  0.0939 -0.1062 -0.1508
50420W        W93473  32.987  33.171  19.102  0.1106  0.1680  0.0846
50421W        W93474   9.536  16.990   3.980  0.0027 -0.0230  0.0316
50422W        W93475   8.658   8.702   4.236  0.2040  0.0019  0.0478
50423W        W93476  26.298   3.448  28.186  0.4155 -0.1492  0.3851
50424W        W93477   8.907  32.708  22.841 -0.0254 -0.2527 -0.0334
50425W        W93478  21.602   7.434   6.243 -0.0628 -0.2138  0.2306
50426W        W93479   0.845   2.847   7.584  0.3479 -0.2380  0.1166
50427W        W93480  28.532  31.823   4.055 -0.0217  0.1673  0.3171
50428W        W93481   2.000   2.707   3.036  0.1182  0.1981 -0.0964
50429W        W93482  24.893   8.342  28.994 -0.0730 -0.1567  0.1346
50430W        W93483  32.368   9.396  25.920  0.4366  0.2036 -0.2073
50431W        W93484  16.181  12.981   2.697  0.2939  0.3398 -0.0140
50432W        W93485   5.560  30.032   8.271 -0.0895  0.0094  0.1496
50433W        W93486  26.281  28.336   8.035  0.1805 -0.0674  0.2204
50434W        W93487   1.077  30.419   6.855 -0.1594 -0.0973 -0.1095
50435W        W93488  31.851   7.450  20.191  0.0973  0.2026 -0.0560
50436W        W93489  33.359  12.955  23.149  0.0874  0.2136  0.0377
50437W        W93490   7.061  14.216   2.367 -0.1146 -0.1897  0.1492
50438W        W93491  30.563  18.012   6.505 -0.3930  0.1740 -0.4469
50439W        W93492  27.642  33.266  16.867  0.0387 -0.1076 -0.2376
50440W        W93493  19.049   3.752  19.310  0.1551  0.1386  0.1180
50441W        W93494  32.507  30.136   1.673 -0.2702 -0.0225 -0.0581
50442W        W93495  27.665  12.886   2.543 -0.2780  0.1662  0.0939
50443W        W93496  18.315  30.932  22.544  0.3029  0.2528  0.2688
50444W        W93497   9.894  33.181  26.812 -0.1182  0.1085  0.2268
50445W        W93498  13.655  21.394   6.690  0.0972 -0.3665 -0.4310
50446W        W93499  22.579  12.487  16.172  0.0039 -0.0520  0.4219
50447W        W93500  30.920   0.241   3.064  0.0798 -0.1236 -0.1123
50448W        W93501   0.507  28.812  24.942 -0.2177 -0.1921 -0.0103
50449W        W93502  16.595  30.201   5.436 -0.3700  0.1201 -0.2574
50450W        W93503   3.119  10.435   2.755  0.1296 -0.3022 -0.0175
50451W        W93504  26.043  29.793   9.975  0.2950 -0.4113  0.5028
50452W        W93505  16.812  30.740  10.353  0.1957  0.1183 -0.0660
50453W        W93506  11.781  30.631   2.406 -0.0994 -0.0525 -0.0213
50454W        W93507  25.017  11.857   2.107  0.2369  0.1299 -0.1912
50455W        W93508  23.933   5.827  23.709  0.1602 -0.1211  0.4213
50456W        W93509  23.140  16.455  22.602  0.3953  0.1626 -0.2344
50457W        W93510  21.729  29.019  19.635 -0.1828 -0.3971 -0.5557
50458W        W93511  27.163  20.779  21.680  0.0765  0.0982 -0.2742
50459W        W93512  17.006  23.974   8.374  0.1262  0.0928 -0.0591
50460W        W93513  17.177   8.672   4.910 -0.0990 -0.0038  0.1943
50461W        W93514  25.471  21.440  16.337  0.1735  0.0888  0.1207
50462W        W93515   4.879   0.856   5.560  0.0188 -0.1407  0.2447
50463W        W93516  34.207  33.722   6.390  0.0133  0.0349 -0.0252
50464W        W93517   0.583  10.334   5.915 -0.0139 -0.1524  0.2025
50465W        W93518  23.994  29.641   2.042  0.0229  0.1977 -0.0235
50466W        W93519   7.631  29.874   8.659 -0.1347  0.2881  0.2892
50467W        W93520  33.079  29.958   4.928 -0.0989 -0.0925  0.0807
50468W        W93521  27.975  32.975   6.074  0.0292 -0.0905  0.2052
50469W        W93522  32.079   2.429   6.637  0.2404 -0.0170  0.4603
50470W        W93523   4.728  33.842   7.908  0.0958 -0.0075  0.1304
50471W        W93524  27.522  31.507  26.680  0.3659 -0.2195 -0.2597
50472W        W93525  30.775   9.459   9.800 -0.1218  0.1202 -0.1537
50473W        W93526   5.173  32.316   4.645 -0.0525  0.1487 -0.0041
50474W        W93527   0.226  28.981   1.954 -0.2707  0.0608  0.1709
50475W        W93528  29.550  16.957   7.804 -0.1032 -0.0001 -0.1176
50476W        W93529   9.142  33.778   7.435 -0.1989 -0.0569  0.4252
50477W        W93530  29.492  28.289   6.940  0.3384 -0.0772 -0.0658
50478W        W93531   8.716  33.404  20.394  0.2730 -0.1513 -0.1129
50479W        W93532  22.194  11.657   1.792  0.0520 -0.0892 -0.1447
50480W        W93533  31.732   4.778   3.794  0.3097  0.0902  0.0316
50481W        W93534   0.652  34.273   7.292  0.3748 -0.1739 -0.0873
50482W        W93535  34.227   2.028  28.172 -0.1034  0.2430  0.0916
50483W        W93536   4.029  30.719  25.254  0.0362  0.0306  0.1457
50484W        W93537  21.358   0.306   0.991  0.0848  0.2943 -0.2958
50485W        W93538  19.068  29.712  19.972 -0.0228  0.0958 -0.2891
50486W        W93539   4.327   3.690   5.354  0.1765 -0.2136  0.0738
50487W        W93540  29.716  27.478   4.738  0.0238  0.1716  0.0805
50488W        W93541  19.417  30.929   9.394 -0.2937  0.1463 -0.0236
50489W        W93542  27.878  32.828   7.244  0.1564  0.3462 -0.0315
50490W        W93543  30.752   2.318   4.914  0.3162  0.3065 -0.1034
50491W        W93544  24.091   4.621   2.661 -0.0845  0.0770 -0.4807
50492W        W93545  32.090  33.206   1.639 -0.0050 -0.2011  0.3034
50493W        W93546   8.244   8.155   7.106 -0.1115  0.0781 -0.1146
50494W        W93547  23.691   8.574   2.614  0.0498 -0.3813 -0.0713
50495W        W93548  27.579   0.120  17.362 -0.2519 -0.1618 -0.3543
50496W        W93549  28.134  27.722  27.886 -0.2647  0.0294 -0.1305
50497W        W93550  30.177  33.754   2.693 -0.2571 -0.2654 -0.2800
50498W        W93551  23.180  33.345   2.477 -0.1145  0.0393  0.0560
50499W        W93552  27.206  24.420  25.666  0.3862 -0.2066  0.2367
50500W        W93553  10.635  28.392  25.457 -0.2316  0.1446 -0.3239
50501W        W93554  24.110  16.866  20.391  0.0164 -0.2630  0.0616
50502W        W93555  29.955  32.390  18.365  0.5162  0.0613 -0.0214
50503W        W93556  18.229   2.365  15.135  0.0909  0.0939 -0.3558
50504W        W93557  20.901  32.130   1.606  0.1616 -0.0856  0.1028
50505W        W93558  25.866  13.821   2.880  0.3047 -0.0816 -0.0346
50506W        W93559  13.461  30.528   7.465 -0.2302  0.7001  0.1823
50507W        W93560  13.774  23.181   8.636 -0.1658 -0.0648 -0.1421
50508W        W93561  15.218  30.397   0.017 -0.1858  0.1248  0.1843
50509W        W93562  21.057  33.976  28.439  0.0343  0.1314  0.3792
50510W        W93563  33.265   0.732   3.409 -0.1315  0.0121  0.0654
50511W        W93564  27.547  30.055   5.733 -0.0117  0.2919  0.3031
50512W        W93565  27.218   3.412   6.629 -0.1723 -0.0786  0.0351
50513W        W93566   3.848   1.169   8.125 -0.0536 -0.2310  0.1288
50514W        W93567   7.702  23.248  27.837 -0.3182  0.0464 -0.0847
50515W        W93568  28.831  34.162   4.503  0.4306  0.1734 -0.2476
50516W        W93569  15.496  29.038   4.031  0.3510 -0.1142  0.1770
50517W        W93570  13.774  12.532   0.543  0.3331 -0.1012  0.1813
50518W        W93571   1.162  20.105   2.162 -0.0461 -0.0704 -0.2559
50519W        W93572  31.277  27.715   7.807 -0.0308  0.0772 -0.4961
50520W        W93573  32.361  25.040  27.219  0.2897 -0.1666 -0.0435
50521W        W93574  10.557  27.449   5.043 -0.0965  0.3090 -0.1030
50522W        W93575  13.112  18.322   9.440 -0.0178  0.0098  0.5524
50523W        W93576  15.093  24.510  19.940 -0.0074  0.1874  0.0713
50524W        W93577  22.212  13.749  19.380 -0.2221  0.0411  0.1750
50525W        W93578  10.335  22.536   1.710  0.2767 -0.5553  0.1805
50526W        W93579   1.329  26.082   2.922  0.2403  0.1740  0.1774
50527W        W93580  28.264   9.739  26.812 -0.0151  0.0128 -0.2543
50528W        W93581  10.036   9.405   7.955  0.2199 -0.0428 -0.1541
50529W        W93582  30.820  29.310  28.070  0.2054  0.2098 -0.4399
50530W        W93583  12.904   6.914  23.586  0.0222 -0.0596  0.3600
50531W        W93584   3.934   9.698   7.301 -0.4207  0.0036 -0.0600
50532W        W93585  24.359  15.280   8.515  0.0462  0.0306  0.0392
50533W        W93586  27.743  34.152   8.227  0.2164  0.0422 -0.1789
50534W        W93587  32.637  27.731   7.589 -0.1886  0.2358 -0.2333
50535W        W93588   4.615  33.218   3.720 -0.2545 -0.0895 -0.2792
50536W        W93589  23.525  17.992   0.247  0.0950  0.0609 -0.0174
50537W        W93590  24.685   8.810   4.250  0.0184 -0.1228 -0.1508
50538W        W93591  17.636  30.605   6.415  0.0836 -0.1144  0.0785
50539W        W93592  25.037  30.162   5.031 -0.1064 -0.0952  0.0385
50540W        W93593  17.005   2.978  27.241  0.1895 -0.0319 -0.4026
50541W        W93594  21.310  34.466   7.326 -0.0487  0.0230  0.0741
50542W        W93595   6.686  17.735  24.878 -0.0142 -0.0357 -0.0221
50543W        W93596  16.447  24.992   3.083 -0.1212 -0.1030 -0.1301
50544W        W93597  34.045   3.459  21.669 -0.2106 -0.0636  0.1327
50545W        W93598  22.932   0.338   3.416  0.0593  0.0741 -0.1636
50546W        W93599  32.342  27.569  15.024  0.0612 -0.2224  0.0589
50547W        W93600  31.734  30.554   0.593 -0.0565 -0.2132 -0.2776
50548W        W93601   0.686  32.075   4.954  0.0587  0.0197  0.3383
50549W        W93602  28.430  31.389   9.523  0.0083  0.1082 -0.0329
50550W        W93603  32.066  17.047   0.688 -0.1422 -0.0806  0.1047
50551W        W93604  10.206  27.069   9.468  0.2661 -0.0649  0.1493
50552W        W93605   0.079  24.319   7.496 -0.0123  0.1058  0.3429
50553W        W93606  32.970  31.855   3.031 -0.0575 -0.0326 -0.5350
50554W        W93607  30.541   5.538   9.302  0.0992  0.1500 -0.2631
50555W        W93608  28.868  25.380  25.071  0.0984  0.1450 -0.1277
50556W        W93609  33.155   1.814   8.459 -0.1175  0.0331 -0.1317
50557W        W93610   0.610   1.160   7.974 -0.2631 -0.0856 -0.0809
50558W        W93611  14.710  31.133   3.658  0.2268  0.1947  0.1467
50559W        W93612  22.853  30.126  22.692 -0.0789 -0.2137  0.4473
50560W        W93613  21.833  20.806   2.770 -0.2491  0.3387  0.0196
50561W        W93614   9.325  11.271   2.313 -0.0404  0.2400 -0.3125
50562W        W93615  32.120   4.914   7.897  0.2212 -0.1716 -0.1108
50563W        W93616  33.204  14.305   8.916 -0.0193 -0.1309  0.3724
50564W        W93617  22.878   7.764  27.218 -0.2473 -0.0317 -0.0528
50565W        W93618  29.950  31.433   4.942  0.0433  0.0877  0.0546
50566W        W93619   6.169  23.785  18.673 -0.0923  0.1137 -0.0857
50567W        W93620  31.203   1.192   8.441 -0.0074 -0.0057  0.1417
50568W        W93621  20.961  30.259   6.949  0.0356 -0.1989 -0.1462
50569W        W93622  19.077  26.854  22.888  0.1020  0.0263 -0.0054
50570W        W93623  16.013  24.925   2.197 -0.2022 -0.1913  0.0630
50571W        W93624  21.254  31.004  23.043 -0.0918 -0.1668 -0.1577
50572W        W93625   5.915  30.335   8.876  0.2596  0.2113 -0.1295
50573W        W93626   1.112  33.722  21.450 -0.0349 -0.1371 -0.1370
50574W        W93627  15.691   7.032   8.321  0.0377 -0.1822  0.4804
50575W        W93628  28.997  25.238   3.120 -0.0495 -0.1750 -0.0714
50576W        W93629  12.269   4.088  25.568  0.2206 -0.1177  0.1785
50577W        W93630  23.578   4.309  25.709  0.2325  0.2663  0.1040
50578W        W93631   4.280  33.656  23.894  0.3438 -0.0215 -0.1404
50579W        W93632  28.680   5.070  24.885  0.0106  0.1053 -0.0431
50580W        W93633   4.871   8.232   2.485  0.0698  0.0900 -0.2394
50581W        W93634  31.179  10.363   7.368  0.0649  0.3719  0.4356
50582W        W93635  29.256  10.708   9.106  0.2683  0.0741 -0.1620
50583W        W93636  33.642   8.469  27.099 -0.0627  0.0319 -0.4262
50584W        W93637  25.029  34.678   9.642 -0.0183  0.0504  0.0039
50585W        W93638  19.270  30.417  29.045 -0.0036 -0.0722 -0.0567
50586W        W93639  23.948  11.708   5.289  0.2414 -0.0678  0.0559
50587W        W93640  32.392  19.743   1.084 -0.0675 -0.0237 -0.1001
50588W        W93641  21.625  15.376  20.898 -0.2305  0.2358  0.4273
50589W        W93642  30.888  32.561   4.406 -0.0987  0.1257 -0.0444
50590W        W93643  33.382  28.987  17.560 -0.1173 -0.3378 -0.2432
50591W        W93644  23.926  20.349  26.557 -0.2363 -0.2512  0.1562
50592W        W93645   0.217  14.276  28.668 -0.2717  0.1977  0.1522
50593W        W93646  27.912  21.354   8.831 -0.1886  0.1630 -0.0219
50594W        W93647   4.921  24.877   3.068 -0.0678 -0.0162  0.2314
50595W        W93648   5.982  13.646  29.027  0.0146 -0.0819 -0.2631
50596W        W93649  14.237  25.966   4.044  0.2062  0.0535 -0.2440
50597W        W93650  12.207  11.468  22.708 -0.1387 -0.1394 -0.0513
50598W        W93651  29.346  33.356   1.377 -0.2901 -0.2184  0.0548
50599W        W93652  27.597  16.900   1.383  0.0256 -0.0720  0.0260
50600W        W93653   0.751   5.035  23.390  0.0389 -0.2720 -0.0992
50601W        W93654  15.649   2.350   2.095  0.1319  0.2087 -0.4040
50602W        W93655  32.945  31.483   4.669 -0.1770 -0.2724  0.1155
50603W        W93656  26.382  15.571   5.365 -0.0832 -0.1535 -0.0998
50604W        W93657  29.317  27.724   7.878  0.0625  0.2053 -0.0294
50605W        W93658  26.649  29.548   9.226 -0.1127  0.1251 -0.0034
50606W        W93659   3.297   3.035   9.181  0.1715  0.0083 -0.3749
50607W        W93660  25.306   8.483  24.670  0.0248  0.4102 -0.0039
50608W        W93661  20.198  29.389   1.511  0.4999  0.2329  0.2963
50609W        W93662   4.560   2.780  26.095  0.0747  0.0256  0.1683
50610W        W93663  33.000  34.096   3.220  0.1829 -0.0399 -0.0913
50611W        W93664  10.174  16.413  10.461 -0.1154  0.1227  0.0394
50612W        W93665  27.130  27.420  24.947  0.2100 -0.0532 -0.0784
50613W        W93666   6.487  10.432   8.926 -0.0426  0.0445  0.1296
50614W        W93667   3.815  29.024   3.959  0.3604 -0.0172 -0.1455
50615W        W93668  24.088   6.996   9.219  0.1041  0.2988  0.0920
50616W        W93669  22.639  18.526   4.143 -0.2730  0.2829  0.0663
50617W        W93670  20.688   0.946   0.184 -0.1211  0.1179  0.0671
50618W        W93671   2.860  22.775   6.083  0.0746  0.1270 -0.0555
50619W        W93672  25.918  33.800   1.605 -0.1319  0.0845  0.1791
50620W        W93673  14.352   1.472   3.281 -0.0107  0.0284  0.0847
50621W        W93674  12.353   5.177  19.336 -0.0349  0.0627  0.1651
50622W        W93675   0.569  19.313  26.878 -0.3113 -0.2643 -0.2484
50623W        W93676   9.550  13.641  23.733 -0.0054  0.1247 -0.3385
50624W        W93677   2.224  22.294  17.436  0.0713 -0.2418 -0.1802
50625W        W93678  26.442  13.058  29.153  0.0023 -0.4938  0.0397
50626W        W93679  29.206  34.546  15.472 -0.0958  0.0714 -0.3004
50627W        W93680  24.477   1.591   8.384  0.0286 -0.2682  0.2933
50628W        W93681  12.295   8.558   0.414 -0.3212  0.0583 -0.1516
50629W        W93682  32.778   0.617   8.860 -0.2267  0.2754 -0.0091
50630W        W93683   2.688  33.382   6.432 -0.0674  0.1775 -0.2372
50631W        W93684  30.822  19.199  20.731  0.1746  0.2757 -0.1550
50632W        W93685  15.592  32.559  27.386 -0.0494 -0.2313 -0.2351
50633W        W93686  22.109  26.982   1.257  0.0003 -0.0982 -0.2693
50634W        W93687  22.744   1.055  28.479 -0.0458 -0.0423  0.0945
50635W        W93688  17.373  27.947  17.885  0.0528 -0.0132  0.0140
50636W        W93689   1.601   9.504   9.390 -0.1747  0.0487 -0.0709
50637W        W93690  29.488  15.522   1.666 -0.2013 -0.2809 -0.3625
50638W        W93691  25.170  25.578   5.466  0.0877 -0.3403 -0.2216
50639W        W93692  22.717  33.750   7.082 -0.0319 -0.0709 -0.0936
50640W        W93693  10.936   9.201  22.273 -0.2011  0.0176 -0.0104
50641W        W93694  22.233  27.787   5.539 -0.0171 -0.0880 -0.0747
50642W        W93695  18.097  32.085  18.136 -0.3849  0.0798  0.0312
50643W        W93696  31.949   5.295   2.546 -0.1317  0.0134 -0.0450
50644W        W93697   7.601   1.313   9.720 -0.1038 -0.0958  0.2985
50645W        W93698  30.734   9.464  29.115 -0.4057 -0.0423  0.0572
50646W        W93699  17.346   7.194   5.928 -0.1663 -0.1130 -0.1066
50647W        W93700   6.399   7.607   3.655  0.1374 -0.0413  0.0078
50648W        W93701   4.503   2.969  20.853  0.2515  0.0410  0.1590
50649W        W93702  22.103  26.723   1.762 -0.0942 -0.0836 -0.0831
50650W        W93703  33.335  30.692   9.745 -0.0980  0.1089 -0.0460
50651W        W93704  22.156  31.384  28.605 -0.3035  0.2897 -0.1250
50652W        W93705  33.797  16.162   6.907  0.0839 -0.0595  0.0934
50653W        W93706  10.384  32.356  24.803 -0.1084 -0.2874  0.2941
50654W        W93707   6.566  32.719   5.120 -0.1125  0.1548  0.0026
50655W        W93708  27.064  24.652  21.859  0.0911  0.2271 -0.1317
50656W        W93709  29.255  29.900   4.502 -0.1042 -0.0070 -0.0664
50657W        W93710  21.685   9.694   6.992 -0.0283 -0.1652 -0.0148
50658W        W93711  22.422  33.247  26.823  0.2672  0.4201 -0.0602
50659W        W93712   8.899   7.013  23.834 -0.2768 -0.0078 -0.2812
50660W        W93713  16.179  19.516   4.497 -0.0609  0.2225 -0.0548
50661W        W93714   3.150   5.829   6.884 -0.1210  0.2547  0.1453
50662W        W93715  30.304  33.675   5.644  0.1587  0.0577  0.3024
50663W        W93716  14.041  21.335   0.497  0.2483 -0.0492  0.2288
50664W        W93717  29.991   3.986   3.376  0.2510 -0.0790 -0.2406
50665W        W93718   1.487  25.667   8.573  0.0981  0.2251  0.2294
50666W        W93719   6.206   4.154  23.183  0.0551  0.2005 -0.0923
50667W        W93720  24.775  31.024  26.571 -0.1451  0.2103 -0.0093
50668W        W93721  29.714  10.974  18.571 -0.0306 -0.3017 -0.1675
50669W        W93722  32.645   9.809  26.488  0.0200 -0.0290 -0.1310
50670W        W93723  24.526   8.155  28.679 -0.1575 -0.1406  0.0056
50671W        W93724  32.567  30.367   0.502  0.0207  0.2163 -0.4230
50672W        W93725   9.799  31.777  26.522 -0.1572 -0.2086  0.1330
50673W        W93726  23.415  26.095  27.700  0.0047  0.0461  0.1357
50674W        W93727   1.547   3.911   6.219  0.1685  0.2197  0.0888
50675W        W93728   7.088  12.886  14.887  0.4020  0.1490 -0.2463
50676W        W93729  11.145   4.889  28.622 -0.1041 -0.0859  0.1819
50677W        W93730   1.376  27.526   7.661  0.3385 -0.0147  0.2275
50678W        W93731  23.647   6.255   2.468 -0.0797  0.0864 -0.1159
50679W        W93732  12.624  16.950   4.014 -0.0524 -0.0403  0.0051
50680W        W93733  30.195  34.455   7.626  0.0015 -0.0644  0.0744
50681W        W93734  32.537   5.709   6.800 -0.0904  0.1497 -0.1889
50682W        W93735  32.993   3.974  17.511  0.0709  0.0230  0.2019
50683W        W93736  34.084   9.064   8.382  0.0728 -0.3429  0.3878
50684W        W93737  30.728  33.212   6.986  0.0668 -0.0449 -0.1001
50685W        W93738  32.658  16.235  28.207  0.1463  0.1222 -0.0370
50686W        W93739   3.689   0.354   5.901 -0.1716 -0.3216 -0.3096
50687W        W93740  19.527  32.505  27.701 -0.4259  0.0056  0.1067
50688W        W93741  24.701  25.251   4.660 -0.1154  0.2153 -0.1435
50689W        W93742  31.933   6.849  25.525  0.2496  0.1467  0.3144
50690W        W93743  30.154  14.031  28.488  0.4625 -0.1582  0.1341
50691W        W93744  34.561  34.472   5.797 -0.3581  0.0676 -0.1042
50692W        W93745  29.532  18.242   5.627 -0.1777 -0.2387  0.0493
50693W        W93746  29.127   0.002  27.948  0.0592 -0.0222 -0.2758
50694W        W93747  29.071  25.161  24.207 -0.1142 -0.0574 -0.4125
50695W        W93748  33.531  10.272   0.371 -0.2332 -0.2680  0.2121
50696W        W93749   7.413  28.733   3.275  0.3387  0.1150  0.1389
50697W        W93750  12.832  29.827  26.566  0.0471  0.1893 -0.1356
50698W        W93751   4.024  11.312   5.123 -0.4953  0.1358  0.0189
50699W        W93752  30.563  33.685   1.061  0.0595  0.1035 -0.1973
50700W        W93753  19.437   4.014  10.195  0.1612 -0.2044  0.0486
50701W        W93754  20.051  25.829   0.601 -0.1848  0.1570 -0.1624
50702W        W93755   6.684  33.332   8.982 -0.1296 -0.0439  0.0921
50703W        W93756  21.441  28.621   7.116 -0.1183 -0.3046  0.1929
50704W        W93757  18.892  10.821  16.218 -0.1024 -0.5925  0.0988
50705W        W93758  10.209  27.997   6.385 -0.2592  0.1892  0.1649
50706W        W93759  10.750   0.758  26.979  0.1250  0.1388 -0.3081
50707W        W93760  28.453  33.575   8.218  0.1453 -0.0706 -0.0377
50708W        W93761   0.332  29.541  25.816 -0.1460  0.0151 -0.2244
50709W        W93762  20.093  27.320   5.496  0.0947  0.1448  0.0147
50710W        W93763  14.399  12.171   3.553 -0.4539 -0.0007  0.1306
50711W        W93764  27.242   8.239   7.331  0.0707 -0.1280  0.1921
50712W        W93765  29.043  23.939   4.981  0.2734 -0.0932  0.1380
50713W        W93766  33.780  25.282   0.002 -0.0841 -0.2975 -0.0483
50714W        W93767  24.121  28.272  26.523 -0.0126 -0.2904 -0.1621
50715W        W93768  33.278  13.342   8.337  0.1041 -0.2092  0.5089
50716W        W93769  23.110  21.198   5.633 -0.0534  0.2343  0.0437
50717W        W93770   5.816  33.884   6.883 -0.0678 -0.1150 -0.0377
50718W        W93771  17.327  22.754  18.525 -0.1973  0.0011 -0.3657
50719W        W93772  25.529   5.921   3.415  0.0338 -0.0230  0.3062
50720W        W93773   4.132   4.098   8.708 -0.0796  0.0534 -0.0191
50721W        W93774  28.075  15.916   7.743  0.2768  0.3150  0.0266
50722W        W93775  29.425  31.630   7.327  0.1218 -0.1645  0.4124
50723W        W93776  30.894   0.190   1.443 -0.1279 -0.0645  0.3648
50724W        W93777  14.466   5.058   4.970 -0.2211  0.5612  0.0015
50725W        W93778  22.341  27.298  10.619 -0.1515  0.3162 -0.1202
50726W        W93779   1.173  29.206  27.616 -0.3425 -0.0176  0.0541
50727W        W93780  32.393   2.019   1.432  0.1074 -0.1794  0.3295
50728W        W93781   8.140  21.557   6.703  0.2661  0.2532  0.1793
50729W        W93782  25.997  33.967  10.340  0.2663 -0.0551  0.1760
50730W        W93783  32.990  31.261   1.485  0.1552  0.1787  0.1482
50731W        W93784  24.485  26.994   5.093  0.0337 -0.1975 -0.0870
50732W        W93785  28.713  14.727   6.766 -0.1196  0.1545  0.0717
50733W        W93786  23.889  15.236   4.530 -0.0181  0.3997 -0.2028
50734W        W93787  29.008   4.183  27.881 -0.2429  0.4827 -0.0194
50735W        W93788  24.629  11.304   3.479 -0.0226  0.1973 -0.1216
50736W        W93789   2.324  28.242   5.656  0.0241  0.0036  0.3162
50737W        W93790   4.460  26.893   8.417  0.0263  0.1463  0.1780
50738W        W93791   6.530   4.701  15.807 -0.1614 -0.0310 -0.3857
50739W        W93792  31.881  22.175   1.803  0.0405 -0.0695 -0.0481
50740W        W93793  30.511  23.291   6.269  0.1104  0.2199 -0.3089
50741W        W93794  29.940  29.857  26.914 -0.4140  0.1608 -0.0957
50742W        W93795   4.636  33.863   8.569  0.0870  0.0508  0.0517
50743W        W93796  24.084  14.351   6.974  0.1108  0.1025  0.0050
50744W        W93797  22.011  32.204   6.140 -0.3162  0.4365 -0.0239
50745W        W93798   0.518  31.828  25.222  0.0436  0.1115 -0.0394
50746W        W93799   4.566  10.382  10.388  0.1767 -0.0397  0.5157
50747W        W93800  30.621  18.320   0.942 -0.1561 -0.1374 -0.0798
50748W        W93801  25.070   7.643   3.583 -0.0838  0.3051  0.0747
50749W        W93802  23.560  24.287   9.599 -0.1097  0.0262 -0.0031
50750W        W93803  32.109  28.499   7.233 -0.1491 -0.1193  0.5523
50751W        W93804  16.454  26.772   6.020 -0.0218 -0.0625  0.2096
50752W        W93805   4.753  34.600   6.784  0.2253  0.1070 -0.1364
50753W        W93806  30.113   9.223   1.283  0.0356  0.3224  0.1074
50754W        W93807  18.360  10.453   8.862 -0.1027  0.0475  0.0473
50755W        W93808   1.328  26.957   0.639 -0.0603  0.1483 -0.3353
50756W        W93809   7.881   6.513   5.837  0.0615 -0.0457 -0.0060
50757W        W93810   1.908  11.455   6.560  0.1337 -0.0576 -0.0371
50758W        W93811  33.897  26.269   7.231 -0.0085 -0.1303  0.0254
50759W        W93812  20.588   8.764   8.591 -0.3322 -0.0122  0.1268
50760W        W93813  26.066  16.948  24.695 -0.0864  0.1115  0.2958
50761W        W93814  22.846  33.639   9.715 -0.1757 -0.4851 -0.2922
50762W        W93815  29.714   0.777  25.892 -0.2590  0.3473 -0.1241
50763W        W93816  28.395  18.570   0.321  0.4190  0.3816 -0.3968
50764W        W93817  27.073   2.415   1.044  0.1427 -0.0007 -0.1083
50765W        W93818   2.024  17.544  25.456 -0.1327 -0.2153 -0.2007
50766W        W93819   1.669  21.802   8.048  0.1681 -0.4394  0.3953
50767W        W93820   3.196   7.551   8.142 -0.0892  0.3481  0.0994
50768W        W93821   6.728  27.412  21.588  0.0291  0.0294  0.1355
50769W        W93822  10.199  33.827   9.458  0.0691  0.4365 -0.1162
50770W        W93823  20.698  19.105   1.222  0.3739  0.0793  0.4089
50771W        W93824  29.021  32.907  28.157 -0.1002  0.2315  0.5169
50772W        W93825  32.566   9.237  29.062 -0.1845 -0.2193 -0.0248
50773W        W93826  30.154   6.698   4.188  0.2245 -0.0445 -0.1639
50774W        W93827   7.182   5.179   1.931  0.1844  0.0314 -0.1058
50775W        W93828   0.536  30.762   4.699 -0.1335 -0.1359 -0.2071
50776W        W93829   5.049  25.924   3.761  0.0597 -0.4959  0.3264
50777W        W93830  19.673  24.518   5.737 -0.0950  0.1201  0.1844
50778W        W93831  33.755   5.954   5.831  0.1586 -0.3226  0.0223
50779W        W93832   0.567  29.512   7.257 -0.0658 -0.0651 -0.0728
50780W        W93833  24.274  27.668   0.027 -0.0472  0.1234 -0.2304
50781W        W93834  16.594   3.785   5.135  0.1480 -0.0778 -0.2016
50782W        W93835  30.172  17.278   5.804 -0.6245 -0.1028  0.0680
50783W        W93836  28.531   2.902  27.477  0.0872  0.1398  0.2029
50784W        W93837   8.168  33.836   6.963  0.1602  0.0424 -0.1870
50785W        W93838   2.128  33.558   8.564 -0.2084 -0.1548 -0.1201
50786W        W93839  31.521  16.740   9.544  0.0801  0.3173  0.0471
50787W        W93840   1.528  25.716  26.476  0.0176 -0.1786  0.2861
50788W        W93841   0.973   3.034   7.081  0.0752 -0.1321  0.0119
50789W        W93842  16.476  27.062  21.588 -0.4074 -0.0759 -0.1998
50790W        W93843  24.314  30.869  28.704 -0.1823  0.4770  0.0132
50791W        W93844   1.023  11.869   0.113 -0.2306 -0.1201  0.0448
50792W        W93845  16.264  30.222   6.802  0.0701 -0.1397 -0.0224
50793W        W93846  33.485   7.409   9.248 -0.0147 -0.2102  0.0225
50794W        W93847  30.046  30.731   7.136  0.0896  0.1125  0.2397
50795W        W93848  33.432  22.526   3.596 -0.3105  0.1488  0.0118
50796W        W93849   5.215  28.796  26.639  0.1119 -0.1769  0.0818
50797W        W93850   3.645   1.643  28.985  0.2475  0.1675  0.4274
50798W        W93851  26.694  33.336   6.557 -0.1311  0.0201 -0.2527
50799W        W93852  25.300  26.426   5.963  0.2807  0.0415 -0.0514
50800W        W93853  27.371   2.542  27.565  0.0714  0.0287 -0.0278
50801W        W93854  24.812  19.784  25.675 -0.0605 -0.2139  0.1268
50802W        W93855  20.181  11.322  23.066 -0.0462 -0.1236 -0.0146
50803W        W93856  29.904   0.615   0.296  0.0965  0.0411  0.4432
50804W        W93857   4.947  29.924   6.064  0.2459 -0.2554  0.0546
50805W        W93858   5.385  31.302   6.184  0.1429 -0.0818  0.0652
50806W        W93859  32.389  30.359   8.830 -0.3340  0.0283  0.0259
50807W        W93860  18.899  23.262  25.010 -0.0952  0.3488  0.1797
50808W        W93861  12.695  30.517   9.375  0.1663  0.2291  0.0583
50809W        W93862  23.651   7.585   6.276  0.1274 -0.1403 -0.1280
50810W        W93863  28.593  27.243  22.353 -0.1348  0.1708  0.0341
50811W        W93864  11.779  30.231  24.270 -0.1915 -0.1207  0.1716
50812W        W93865   5.841  25.978   0.492 -0.3084  0.4044 -0.1826
50813W        W93866  10.162  30.363   0.942 -0.2343  0.0401  0.1202
50814W        W93867  22.589   9.997  26.377  0.6563  0.1963 -0.1784
50815W        W93868  32.226  31.207  25.013  0.0563  0.0095  0.2373
50816W        W93869  16.507  31.784   7.155  0.1899  0.1519  0.0849
50817W        W93870  27.513  24.631  28.791 -0.2468  0.1491 -0.1233
50818W        W93871   5.847  12.410   7.227 -0.1464  0.0827 -0.1401
50819W        W93872  33.267  29.160   1.038 -0.2909  0.1769 -0.2424
50820W        W93873  32.599   2.578   2.089 -0.0972 -0.2430 -0.0260
50821W        W93874  24.090  33.395   8.673  0.1949 -0.1690 -0.3141
50822W        W93875  30.277   6.804   3.189 -0.0473 -0.1386 -0.0823
50823W        W93876   9.151  31.682  24.830  0.1429  0.0760  0.0358
50824W        W93877   7.859   9.936   8.921 -0.0609  0.2544  0.4555
50825W        W93878  31.617  22.455   1.383 -0.1601  0.2181 -0.1405
50826W        W93879  19.322  20.553   3.788 -0.2732 -0.2414  0.0470
50827W        W93880  30.511  22.991   2.035  0.0632 -0.0249  0.0911
50828W        W93881   3.434   0.806   8.722  0.3658 -0.0935  0.2778
50829W        W93882   1.804  27.082   7.020  0.1060  0.1697 -0.4705
50830W        W93883  30.737   9.232  27.667 -0.0072  0.3190 -0.1766
50831W        W93884  33.878   5.152   8.911  0.3303  0.0130 -0.0525
50832W        W93885   3.448  27.395  22.629  0.0366 -0.1577  0.0048
50833W        W93886  23.490   5.933  24.209 -0.1628  0.0842 -0.0863
50834W        W93887  11.367  25.852   7.596  0.1884 -0.0782 -0.1427
50835W        W93888  30.329   6.567  25.823 -0.0397 -0.2703 -0.3284
50836W        W93889  27.181  23.788   6.155 -0.0455  0.1887  0.2871
50837W        W93890  27.172  34.681   3.118 -0.2658 -0.1313  0.1555
50838W        W93891  25.466   7.802   7.120 -0.1156 -0.1278 -0.1863
50839W        W93892  26.312  23.191   3.854  0.0084 -0.0607  0.2768
50840W        W93893  23.119  17.921  28.672  0.0956 -0.1707 -0.2902
50841W        W93894  23.074  33.748  27.296 -0.4363 -0.3721  0.0264
50842W        W93895  30.022  28.735   0.902 -0.0280 -0.1750 -0.0825
50843W        W93896  21.732   2.485  24.574 -0.0184 -0.0250  0.0871
50844W        W93897  27.632  19.606  23.659  0.2361  0.1533 -0.0972
50845W        W93898  26.228  30.325  17.614 -0.1187 -0.0376  0.3590
50846W        W93899  22.657   7.202  26.580  0.4590 -0.2982 -0.3424
50847W        W93900  24.308   9.083  25.959  0.4305 -0.1893  0.1173
50848W        W93901   0.904   2.380   4.274  0.0337  0.0238  0.3413
50849W        W93902   0.818   7.449   6.163 -0.2076 -0.1081 -0.0525
50850W        W93903  26.103  25.988   9.854 -0.0605 -0.0733 -0.0277
50851W        W93904  25.111  22.565  16.436 -0.4894 -0.3829 -0.0940
50852W        W93905  33.726  28.064   5.471 -0.1468  0.1764  0.1736
50853W        W93906   0.751  23.989   6.099  0.1153 -0.3268  0.1668
50854W        W93907  12.916  10.936  24.056 -0.0120  0.0075 -0.2291
50855W        W93908  12.869  31.078   2.520  0.2328  0.2699  0.1973
50856W        W93909   6.179  24.240  27.306 -0.2976 -0.0350 -0.0941
50857W        W93910  33.451  12.089   6.819  0.0172  0.1183  0.0171
50858W        W93911  26.806  12.449  24.732  0.4525  0.1297  0.3333
50859W        W93912   2.226  21.647  21.232 -0.0784 -0.2454  0.1353
50860W        W93913  21.142   2.760   1.622  0.1032 -0.0801  0.2315
50861W        W93914   4.294   0.791  21.833 -0.0484 -0.0568  0.0911
50862W        W93915  34.355  18.002  26.915 -0.1496  0.0996 -0.1302
50863W        W93916   1.205   4.393  10.083 -0.3900 -0.0880 -0.1904
50864W        W93917  11.577  28.991  25.956  0.1650  0.0900  0.0933
50865W        W93918  22.005  30.420   6.203 -0.0900  0.0641  0.0594
50866W        W93919  22.662  31.927  21.879  0.1528 -0.2114 -0.1938
50867W        W93920   7.228  15.688   1.231  0.0131  0.0006  0.4807
50868W        W93921  26.701   5.337   5.815  0.0354  0.1064 -0.0446
50869W        W93922   4.860  28.654   5.057 -0.0857  0.2021  0.0554
50870W        W93923   9.454  32.776   5.391  0.2880 -0.0100  0.1778
50871W        W93924  29.330  20.486   2.879 -0.1115  0.0096  0.0552
50872W        W93925   2.393  18.042   5.665  0.0379  0.1983  0.0694
50873W        W93926   5.077   4.971   9.331  0.1972  0.2481  0.0773
50874W        W93927  31.906  25.863  17.459  0.0397 -0.2176  0.1229
50875W        W93928   2.071  10.828  23.882  0.0945 -0.2365  0.2251
50876W        W93929   5.293  32.538  14.638  0.2310 -0.1518 -0.0779
50877W        W93930  24.962   4.076   1.746  0.0014  0.0596  0.1718
50878W        W93931  18.769  10.105   4.329 -0.1799  0.6157  0.0885
50879W        W93932  24.200  10.497  20.428 -0.0152 -0.2793 -0.1074
50880W        W93933  24.172  26.832  15.644 -0.1710  0.1027 -0.2032
50881W        W93934   2.638  32.311   9.916  0.0613  0.0811 -0.1877
50882W        W93935  33.660   3.580   0.439  0.1542 -0.5316 -0.2696
50883W        W93936  19.360  33.366   8.970 -0.3057  0.3474  0.5122
50884W        W93937  21.358   6.210   5.665 -0.0758 -0.0475 -0.1492
50885W        W93938  12.339  30.697  28.723 -0.3867 -0.0187 -0.0373
50886W        W93939  14.978  23.796   4.694  0.1858  0.1236 -0.0109
50887W        W93940   5.545  19.367  26.398 -0.0710  0.2655 -0.2770
50888W        W93941  18.536  20.071   2.844 -0.0673  0.2463 -0.3448
50889W        W93942  25.666   3.333  26.492 -0.0029  0.4343  0.1594
50890W        W93943  31.688   7.525   0.824  0.0768  0.2812  0.2767
50891W        W93944   6.523   1.664  22.612  0.1601 -0.0080  0.1475
50892W        W93945  10.746  29.520   8.635 -0.3707 -0.1344  0.1648
50893W        W93946  20.584  14.553   7.681  0.1535  0.3126  0.1741
50894W        W93947   7.145   3.552   8.842  0.3008  0.1022  0.0949
50895W        W93948  24.177   6.169  26.835  0.0456  0.0113 -0.0985
50896W        W93949  29.457   6.233  26.565  0.1216  0.2305  0.1439
50897W        W93950  32.071  14.335  25.318 -0.0517  0.0777 -0.2906
50898W        W93951   6.863   0.572   3.941 -0.3084 -0.1105  0.1532
50899W        W93952   5.549   0.776   9.824  0.1504 -0.0449  0.1629
50900W        W93953  21.595  22.304  17.059 -0.1366 -0.0881 -0.0394
50901W        W93954  34.225  19.742   1.013 -0.3966  0.0126 -0.0486
50902W        W93955   2.409  10.104  14.940 -0.0899  0.1497 -0.0166
50903W        W93956   7.385   2.826  23.804 -0.1190  0.0650 -0.1472
50904W        W93957  25.957   0.514   5.376 -0.3240  0.2761  0.1016
50905W        W93958  15.004   6.859   2.379 -0.0778  0.2911 -0.0773
50906W        W93959  19.275  21.089  16.320 -0.0490  0.1947  0.4666
50907W        W93960  31.997  32.251  24.117  0.0840  0.1250  0.2191
50908W        W93961  32.167   4.064  25.544 -0.5479  0.0029 -0.0377
50909W        W93962  11.919  27.500  20.350  0.2149 -0.0582 -0.3316
50910W        W93963  21.454  15.967  25.037  0.1985  0.1219  0.1988
50911W        W93964  18.955  10.617   7.544 -0.1473 -0.3252 -0.0322
50912W        W93965   6.201  28.526  22.946  0.1347 -0.0060 -0.2671
50913W        W93966  34.622  18.227   8.520  0.0169  0.0981  0.3415
50914W        W93967  13.146  27.253  28.949 -0.2809  0.1003 -0.1701
50915W        W93968  25.167  10.071   8.540 -0.2117 -0.1466 -0.1271
50916W        W93969   4.159  29.543  24.326 -0.0385 -0.3555  0.2333
50917W        W93970  31.160  10.805  18.499  0.3056 -0.0311 -0.1172
50918W        W93971   9.247  33.302   7.489  0.0365  0.0865 -0.2235
50919W        W93972  10.116  16.861   5.967 -0.0842  0.0296 -0.0598
50920W        W93973  29.032  14.066   2.987 -0.3381 -0.1363  0.0194
50921W        W93974  32.014  10.261  26.853 -0.0008 -0.0657  0.1808
50922W        W93975   3.428  18.583  27.608 -0.0984  0.0176  0.1038
50923W        W93976   6.058  28.361   8.508  0.2476  0.4171  0.0263
50924W        W93977  16.285   6.069  25.282 -0.0448  0.0197 -0.0327
50925W        W93978  23.059  24.916   9.607  0.4517 -0.0504 -0.0534
50926W        W93979  29.525   2.564  17.865 -0.1237  0.3965  0.2977
50927W        W93980  27.284  27.612   9.862 -0.0688  0.0077 -0.0270
50928W        W93981  20.331   3.784  28.521 -0.2595 -0.2517  0.1811
50929W        W93982   6.280  30.298   3.909  0.0957 -0.0098  0.0500
50930W        W93983   2.732  23.600   1.468  0.1339  0.3039 -0.2189
50931W        W93984  15.828   7.438  26.900 -0.0749 -0.1840 -0.0778
50932W        W93985   3.902   7.094   2.803  0.0697 -0.1090  0.1474
50933W        W93986  10.081  34.653  17.226  0.4807 -0.0691  0.2233
50934W        W93987  12.121   0.700   1.701 -0.2474 -0.2282 -0.2140
50935W        W93988   2.994  13.164   9.213  0.0453  0.0700 -0.0455
50936W        W93989   7.509   1.875  10.068 -0.0073  0.4584  0.0471
50937W        W93990   5.747  29.105  27.335  0.0924 -0.2572 -0.4242
50938W        W93991  32.110   9.218  16.920  0.1701 -0.0944 -0.3044
50939W        W93992  33.796  17.801   8.438  0.0082  0.0715  0.1253
50940W        W93993  31.526   0.350  27.402  0.0120  0.2366  0.0104
50941W        W93994  19.223  28.570   1.234  0.0875  0.0461  0.0444
50942W        W93995   5.160  34.378   5.159 -0.0206  0.0343 -0.2931
50943W        W93996  27.157   1.177   4.753  0.1057 -0.1564  0.1009
50944W        W93997  26.412  28.363   3.862  0.2005  0.0069  0.3515
50945W        W93998  26.480   7.310   8.689 -0.1246  0.1376 -0.3366
50946W        W93999  30.197  16.833   0.701 -0.0390 -0.3878 -0.0240
50947W        W94000  26.130  32.226  22.521 -0.0178  0.1927  0.2882
50948W        W94001  32.942  30.183   6.574  0.1428 -0.1662  0.0844
50949W        W94002  23.943  28.850  24.377  0.0971 -0.0944 -0.3540
50950W        W94003  32.805  32.660   4.677 -0.0893 -0.0625  0.1729
50951W        W94004  10.063   5.765   7.748 -0.2205 -0.0333  0.0844
50952W        W94005  26.777  31.616  25.004  0.1801  0.0659  0.3677
50953W        W94006   5.240   3.211   6.689  0.1055 -0.1475  0.2984
50954W        W94007   5.828  30.402  22.560  0.2646 -0.1015  0.2671
50955W        W94008  12.290  27.793  15.636 -0.0948  0.0808  0.2047
50956W        W94009  18.085  25.360   1.462 -0.0799  0.1615 -0.0300
50957W        W94010  32.498  19.577  24.018 -0.2277 -0.2234  0.0361
50958W        W94011   7.880  28.909  26.982 -0.1677  0.1790  0.0132
50959W        W94012   5.303  22.462  25.944 -0.2812 -0.1224 -0.0571
50960W        W94013  26.184   3.844  13.192  0.3849  0.0027  0.1976
50961W        W94014   8.284  28.271   7.189 -0.3162  0.2068 -0.1066
50962W        W94015  31.059  20.732  24.024  0.0205  0.2067 -0.1374
50963W        W94016   9.915   7.739   6.579  0.2075  0.1277  0.1745
50964W        W94017   1.864   4.599  26.050  0.0419 -0.2912  0.1532
50965W        W94018  22.508   5.995   5.418 -0.1149 -0.2386 -0.1278
50966W        W94019  32.023   7.808   8.163  0.0397 -0.2397 -0.1069
50967W        W94020   6.666   7.304   0.118 -0.1087  0.0697  0.0274
50968W        W94021  16.296  30.391  24.073 -0.4220 -0.0349  0.2489
50969W        W94022  25.796  30.405   8.250 -0.1625  0.2527  0.0644
50970W        W94023   5.256  11.392   4.901 -0.2293  0.1258  0.0191
50971W        W94024   4.043  31.593  19.124  0.1427 -0.1931 -0.1568
50972W        W94025  16.870  30.692   3.244  0.1745 -0.0969  0.1529
50973W        W94026  27.634  26.088  23.546  0.6054 -0.3253 -0.0033
50974W        W94027   2.729  19.352   0.420 -0.1880  0.0019 -0.2003
50975W        W94028   5.476  16.456  28.594 -0.1951  0.1579  0.2163
50976W        W94029  24.491   5.341   9.428 -0.0084 -0.2695  0.0811
50977W        W94030  26.850  32.384   6.260  0.1682  0.2125 -0.2488
50978W        W94031  34.200  26.190  16.383 -0.2243 -0.0457 -0.1511
50979W        W94032  25.241  16.096  15.206  0.0602  0.2437 -0.5507
50980W        W94033   2.752  10.068  27.490  0.3335  0.0084  0.0547
50981W        W94034  15.143   1.258   3.480  0.0042 -0.0014  0.1949
50982W        W94035   3.258  29.881   5.151 -0.0803  0.0029 -0.1313
50983W        W94036  29.403   9.794  21.034  0.0352 -0.0886 -0.0870
50984W        W94037  34.019  26.212   5.255  0.0753 -0.2246  0.2040
50985W        W94038   5.503  14.487   5.424 -0.2235  0.4549 -0.4533
50986W        W94039  28.033  24.375   6.759  0.1964  0.0379  0.1219
50987W        W94040   3.382  10.407  22.664 -0.5079 -0.0999  0.1590
50988W        W94041   5.538   0.704   3.294  0.2618 -0.0181 -0.0703
50989W        W94042  14.109  33.455  25.659 -0.5202 -0.0999  0.2670
50990W        W94043  13.739  11.341   7.442  0.0926 -0.1720 -0.2199
50991W        W94044  26.012   3.973   9.910  0.0760 -0.0425  0.1234
50992W        W94045   5.574  32.436  25.580  0.0952 -0.2829 -0.0172
50993W        W94046  30.439  24.915   4.836 -0.0100  0.2446 -0.1542
50994W        W94047  25.986   0.124  27.121 -0.2697 -0.1711 -0.0331
50995W        W94048   8.302   2.598   2.987  0.2224 -0.2668 -0.0037
50996W        W94049  17.276  10.417   3.553 -0.2282 -0.1473 -0.2293
50997W        W94050  23.972  27.988   4.621  0.2847  0.3234 -0.0157
50998W        W94051   3.014  27.113   0.734  0.2298  0.0106  0.0255
50999W        W94052  30.305   4.487  24.915  0.3097  0.0491 -0.0550
51000W        W94053  11.033  29.850  24.073  0.0031  0.4536  0.2331
51001W        W94054   2.430   1.438   9.369 -0.2454 -0.3444  0.2506
51002W        W94055  26.762   2.235  18.811 -0.0174 -0.1768 -0.0632
51003W        W94056  34.121  28.593  14.903  0.2593 -0.0301 -0.2234
51004W        W94057  34.669  32.887  24.543  0.0922  0.1408 -0.2352
51005W        W94058  29.110  31.549  20.677  0.1090 -0.1717 -0.1630
51006W        W94059  33.183  23.010   6.953 -0.0698  0.0335  0.1587
51007W        W94060  32.223  22.478   3.685 -0.2339 -0.0935  0.1806
51008W        W94061  31.531  28.775   7.788  0.1308  0.1197  0.1960
51009W        W94062   3.108  18.563  17.047 -0.0098 -0.4047  0.0935
51010W        W94063  30.467  16.878  28.968 -0.0118  0.2440  0.0104
51011W        W94064   2.860  22.334  24.002  0.0489 -0.1401  0.1490
51012W        W94065   5.167   9.434  21.058  0.1667  0.1425  0.0692
51013W        W94066  33.553   1.347   6.190 -0.2825  0.3219 -0.2711
51014W        W94067   1.372   4.218  22.850 -0.0796 -0.1767 -0.4230
51015W        W94068  31.262   0.397  14.969  0.1667 -0.5337  0.3626
51016W        W94069  17.370   9.597  26.961 -0.3392 -0.0240 -0.1281
51017W        W94070  19.982  29.818  25.823  0.0142  0.2986 -0.0342
51018W        W94071  24.471  32.587  23.485 -0.1504 -0.0911 -0.2438
51019W        W94072  16.744  14.346  22.322  0.2931 -0.0178 -0.2652
51020W        W94073  32.663  24.550   8.478 -0.0224 -0.0542  0.0891
51021W        W94074   6.676   4.912   6.508  0.0514  0.3868 -0.0673
51022W        W94075  22.915   1.675   0.679 -0.1778  0.3587  0.0003
51023W        W94076  24.547   4.076  21.539  0.1925  0.1076 -0.0040
51024W        W94077   7.912   0.993   4.650  0.0897  0.0183  0.1691
51025W        W94078  27.650  31.735  25.632 -0.1376 -0.1466 -0.4065
51026W        W94079  34.479   2.373  28.935  0.2704  0.1127 -0.0984
51027W        W94080  27.106  24.587   1.001 -0.3732 -0.0568  0.0979
51028W        W94081  24.706  30.168  19.645 -0.3436 -0.0101 -0.0584
51029W        W94082  33.140  33.172   3.478  0.2596 -0.0899  0.2067
51030W        W94083  32.553   3.869  25.999 -0.2200 -0.1281  0.2754
51031W        W94084  28.753  33.080   0.663 -0.1008  0.2624 -0.0165
51032W        W94085  31.079   2.166   8.256  0.0790 -0.0009 -0.3807
51033W        W94086  33.777   7.072   2.688  0.0028 -0.1091  0.0956
51034W        W94087   6.267  20.551  26.552 -0.0565 -0.0082 -0.0600
51035W        W94088  23.539  29.151  28.142 -0.3502  0.1295 -0.1972
51036W        W94089  32.438  27.093  20.480  0.1621  0.1694  0.2959
51037W        W94090  32.741  20.453   2.729 -0.1230 -0.2968 -0.1835
51038W        W94091   0.501   3.176   3.727 -0.0090 -0.0457  0.0004
51039W        W94092  33.704   0.974   4.546 -0.4122  0.0507  0.0253
51040W        W94093   7.432  28.609   3.808 -0.1806 -0.0879  0.2368
51041W        W94094  34.330   6.892  23.208  0.3172  0.1179  0.2477
51042W        W94095   3.851  28.535   8.845  0.1272 -0.0152 -0.3885
51043W        W94096  21.394  10.546  27.415  0.0214  0.2218  0.0408
51044W        W94097  22.975  29.273  26.101 -0.2237 -0.1957 -0.3264
51045W        W94098   0.809  19.617   1.023  0.1532  0.0734 -0.2732
51046W        W94099  31.620  17.191   2.550 -0.0285 -0.0840  0.1110
51047W        W94100  32.692  10.525   9.265  0.1370  0.1604  0.2723
51048W        W94101  14.002  21.300  14.561 -0.1915  0.0285  0.2835
51049W        W94102  27.732  10.666   8.512  0.0955 -0.1062 -0.4032
51050W        W94103  33.910   5.235   3.252  0.0239  0.0200  0.0243
51051W        W94104  33.473   9.010   2.024 -0.1015  0.2139 -0.0336
51052W        W94105  14.535  32.665  22.424  0.2180 -0.0667 -0.0844
51053W        W94106  20.197   3.845   5.587  0.2889 -0.0681  0.0265
51054W        W94107  24.853  31.013  10.364  0.0625 -0.0060 -0.1202
51055W        W94108   7.929   7.540  10.670 -0.1466  0.0861  0.2629
51056W        W94109  14.625  12.581   9.465 -0.0561 -0.2724 -0.0105
51057W        W94110  34.410  28.684   2.816 -0.3592  0.1268  0.1806
51058W        W94111   0.070   3.000  21.988  0.1158 -0.1590  0.4731
51059W        W94112  25.749  30.911  23.378 -0.0134  0.3112  0.1127
51060W        W94113  10.937  19.403   2.838  0.0597 -0.2490  0.4002
51061W        W94114   6.787   5.252   1.402  0.3320 -0.4351  0.1770
51062W        W94115  17.474   4.517   2.048  0.1523  0.1302  0.3319
51063W        W94116  27.850  31.766   1.664  0.0549 -0.0300 -0.0814
51064W        W94117  10.713  34.219   2.824 -0.0174 -0.1356 -0.0461
51065W        W94118   1.676   2.891   3.861 -0.0268 -0.0164 -0.1756
51066W        W94119   4.348   8.613   5.006 -0.0163 -0.3170  0.0009
51067W        W94120   2.001  29.184   3.399  0.0502 -0.2864  0.0663
51068W        W94121  13.995   1.569   7.652 -0.1078  0.1775 -0.0473
51069W        W94122  25.771   0.538   9.228 -0.3089 -0.2234 -0.0876
51070W        W94123   3.771   3.724   6.555 -0.0072 -0.2672 -0.2746
51071W        W94124   2.267   3.088  24.753 -0.1519 -0.0740  0.1503
51072W        W94125  30.304   4.873  28.721 -0.3089 -0.0996  0.0583
51073W        W94126   4.674   1.489  22.354  0.3545 -0.1371  0.3681
51074W        W94127  11.374   0.620  27.709  0.1187  0.4097  0.1704
51075W        W94128   1.789  22.959   9.710  0.0946 -0.0058 -0.0961
51076W        W94129   0.231  17.949   0.919 -0.1092  0.1406 -0.0842
51077W        W94130  21.316  28.827  27.827 -0.2605 -0.1735  0.0821
51078W        W94131   6.522   4.067   3.202 -0.0128 -0.0792  0.2182
51079W        W94132  20.070   5.435  25.530  0.1307 -0.3146  0.1361
51080W        W94133   7.019  24.088  26.895 -0.2183  0.3307 -0.2164
51081W        W94134  30.116  31.169   3.564  0.2858  0.0754  0.0987
51082W        W94135  27.632  28.186  27.974 -0.2176 -0.2355  0.1251
51083W        W94136   9.727   7.673   5.261 -0.0625  0.0349 -0.0506
51084W        W94137  18.524  31.801   7.396 -0.1370 -0.0133  0.0437
51085W        W94138   5.152  32.390  21.175  0.0010 -0.3103  0.1767
51086W        W94139  28.089  29.712  28.167 -0.0760  0.0720 -0.2372
51087W        W94140   2.452   2.097   1.243  0.0915 -0.1454 -0.1662
51088W        W94141  33.126   8.221   7.780  0.1197 -0.2738 -0.0377
51089W        W94142   2.824   5.189   8.096  0.2173 -0.0719  0.2131
51090W        W94143   5.601  11.613   8.220  0.1340  0.1616  0.1989
51091W        W94144   0.442  19.134   4.897  0.3210  0.0086  0.6175
51092W        W94145   9.877  31.023  27.818 -0.1237 -0.1381  0.0575
51093W        W94146   3.178  29.100  26.657  0.0074  0.1098 -0.0246
51094W        W94147  18.803   0.338   1.212  0.4031 -0.0562  0.1661
51095W        W94148   4.087  29.516   9.350 -0.0498  0.1260  0.0780
51096W        W94149  10.811  34.647  22.323  0.1085 -0.4414 -0.2553
51097W        W94150   1.740  20.226  25.534  0.2825 -0.1546 -0.0375
51098W        W94151  31.597  28.319   3.305  0.0850  0.0669  0.0564
51099W        W94152   3.976   3.449   9.493  0.1089 -0.1183 -0.2237
51100W        W94153   1.261  23.461   6.217 -0.1174 -0.4184 -0.0085
51101W        W94154   7.461  12.026  17.775 -0.1057 -0.1305 -0.0908
51102W        W94155  21.535   7.074   8.728  0.0837  0.0159  0.0865
51103W        W94156  28.330  14.146   4.411 -0.1551  0.0865 -0.3644
51104W        W94157  22.406  29.847  28.742  0.0064  0.4392 -0.2401
51105W        W94158  27.391  27.965   5.060  0.3769  0.1958 -0.0655
51106W        W94159   8.440   2.982   7.116  0.0368  0.1638 -0.1030
51107W        W94160  22.798  26.562   4.435  0.3269  0.0435 -0.1664
51108W        W94161  11.668  25.242  23.940  0.1154  0.2768 -0.0076
51109W        W94162  31.607  15.195  20.075 -0.3215 -0.0717 -0.2842
51110W        W94163  24.950   4.044   2.345 -0.0046  0.0948 -0.0661
51111W        W94164   0.954  33.085  27.661 -0.3908 -0.1113 -0.0692
51112W        W94165  27.181   2.078  28.503 -0.0014 -0.2052 -0.2037
51113W        W94166  29.688   1.202   3.470  0.0093  0.1413 -0.1792
51114W        W94167   8.322  22.214   3.088 -0.0522  0.3430  0.1659
51115W        W94168   2.877  27.288   1.511 -0.0476 -0.3017 -0.4264
51116W        W94169  19.138  30.379   3.815 -0.1069  0.5356 -0.1082
51117W        W94170   6.033  27.989  17.471 -0.1003 -0.1009  0.0418
51118W        W94171  27.197  24.826   7.664  0.2565  0.0236  0.1519
51119W        W94172  23.808  14.744   3.609 -0.0791 -0.1501 -0.2449
51120W        W94173  14.811  29.218   7.462  0.1510 -0.2887 -0.0013
51121W        W94174   0.531  33.350  14.511 -0.1718  0.1804  0.4169
51122W        W94175   6.399   7.749   0.901 -0.0940 -0.2687  0.0509
51123W        W94176  27.235   0.109  20.061  0.1181 -0.2143 -0.2308
51124W        W94177  26.937  23.929  20.397  0.3857 -0.3923  0.0157
51125W        W94178  24.764  11.586   7.507  0.0645  0.1391 -0.4507
51126W        W94179   7.144   5.530  10.104  0.1020 -0.0242 -0.0137
51127W        W94180   2.127  11.900   2.396  0.1338 -0.1730 -0.0478
51128W        W94181  31.313  26.711  24.776 -0.0527 -0.0815  0.0443
51129W        W94182   2.782  25.340  22.809  0.0369  0.2060  0.1857
51130W        W94183  31.279   7.740   2.939 -0.1451 -0.1859 -0.0973
51131W        W94184  33.811  13.672   8.356 -0.1568 -0.1464 -0.1439
51132W        W94185   7.096  24.615  24.918 -0.3554  0.1038  0.0814
51133W        W94186   9.652  27.020  26.051 -0.0429  0.0123 -0.1963
51134W        W94187  16.188  21.365   6.700  0.3762  0.0827  0.0942
51135W        W94188  11.258   5.281  17.761  0.1205 -0.3050  0.1716
51136W        W94189  18.418   9.099   7.824  0.2308 -0.1166  0.0557
51137W        W94190  31.714   5.295  21.560  0.0324  0.0982  0.2182
51138W        W94191   0.289   7.025   3.149 -0.0070  0.1174 -0.0471
51139W        W94192  20.857  10.460  26.801  0.0904 -0.0434  0.2321
51140W        W94193   7.971   8.766   6.465  0.0140  0.1779 -0.2444
51141W        W94194   0.328  32.195   2.866 -0.0213 -0.0601 -0.0448
51142W        W94195   6.903  13.268   7.239 -0.0772  0.1781 -0.2532
51143W        W94196   0.223  12.332   7.187  0.1188 -0.0256  0.0864
51144W        W94197  25.653   2.721  29.038 -0.2335 -0.1479 -0.2881
51145W        W94198  25.452  10.178   6.810 -0.3460  0.1597  0.0427
51146W        W94199  17.357   0.798   1.218  0.2004 -0.0234  0.0439
51147W        W94200  33.919  34.236   9.040 -0.1482  0.0392  0.0418
51148W        W94201  23.566  21.801   5.318 -0.0624  0.2541  0.1677
51149W        W94202  30.880  24.587   0.566 -0.3435  0.2070 -0.2431
51150W        W94203   8.572   2.293  27.021 -0.0837 -0.0499 -0.0076
51151W        W94204  21.873  10.234  23.899 -0.2174  0.1944  0.0317
51152W        W94205  24.969  28.976   0.844  0.0334  0.1804 -0.1474
51153W        W94206  28.297  30.296   3.933 -0.0691  0.1295  0.0521
51154W        W94207  22.379  17.301   8.403 -0.0418  0.0494  0.0822
51155W        W94208  31.796  28.566  19.181  0.0272 -0.2343  0.2589
51156W        W94209  16.274  22.920   8.327  0.1253  0.2988 -0.1247
51157W        W94210   1.585  31.306   4.178 -0.2106 -0.2723  0.1154
51158W        W94211  26.158   9.165  29.058 -0.0655  0.0036  0.1002
51159W        W94212  32.342  25.338   0.273 -0.2531  0.1214  0.0355
51160W        W94213  11.788  29.830  23.697  0.0487  0.2129  0.1574
51161W        W94214   2.054  32.161  27.412 -0.0111 -0.0740 -0.1559
51162W        W94215   5.750  12.832   2.405  0.3225  0.3407 -0.1524
51163W        W94216  29.870   0.719   5.955 -0.2441 -0.0880  0.4125
51164W        W94217  25.060  34.140   8.402 -0.1499  0.0881  0.2575
51165W        W94218   5.527   1.189  15.519  0.0983  0.1339  0.2678
51166W        W94219   1.325  29.705   6.803 -0.0290 -0.0173  0.2944
51167W        W94220  33.245  27.372   2.575  0.0924 -0.1126  0.0611
51168W        W94221  14.193   5.892   6.668  0.0396  0.2070 -0.0623
51169W        W94222  18.904  27.432  27.294  0.0079  0.1001  0.0135
51170W        W94223  24.957  18.559   9.095  0.2138  0.2547  0.1226
51171W        W94224   0.528   2.126   0.803 -0.3389 -0.1725 -0.1098
51172W        W94225  34.046  23.609  26.667  0.2387 -0.1373 -0.1377
51173W        W94226   3.804  15.960  25.845 -0.1989  0.1680  0.5267
51174W        W94227  26.255  20.205   2.580  0.1274  0.0546 -0.1863
51175W        W94228   3.288  27.340   2.035  0.1294 -0.2889  0.0032
51176W        W94229   4.417  17.414   6.647  0.1841  0.0865 -0.3534
51177W        W94230   3.869  13.289  23.781 -0.3637 -0.1531  0.1124
51178W        W94231  26.980  28.653  28.537 -0.2212 -0.1568 -0.1763
51179W        W94232  28.681   3.809   0.631 -0.0561  0.4377 -0.0699
51180W        W94233  12.418   3.881   2.331  0.0851 -0.0298  0.0336
51181W        W94234  29.656   4.417   6.021  0.0462 -0.1697 -0.2645
51182W        W94235  34.594  10.105  21.535  0.1176 -0.1027  0.0323
51183W        W94236  28.426  31.027   9.192  0.3696  0.3432 -0.3520
51184W        W94237  27.369  32.549  20.410 -0.3506 -0.0777  0.2849
51185W        W94238  32.076  28.318  27.891  0.3704  0.2431  0.0260
51186W        W94239  25.480  16.698   5.280  0.1853  0.0621  0.2457
51187W        W94240   3.493  27.825  26.270 -0.2500  0.2771 -0.0335
51188W        W94241  29.109  10.209   9.791  0.0538  0.3334 -0.0199
51189W        W94242  19.631   0.910  15.485  0.1522  0.2335  0.2624
51190W        W94243  26.192  28.541   2.941 -0.0600 -0.2761  0.1339
51191W        W94244  34.220   6.378   3.178  0.2407  0.1112 -0.2282
51192W        W94245  25.967  21.117   2.290  0.0216 -0.2579 -0.0425
51193W        W94246   2.833   1.904   8.085 -0.0503 -0.2903  0.0961
51194W        W94247  25.140  16.782   0.872 -0.1775  0.2672 -0.1896
51195W        W94248   6.854   8.222  18.153  0.4279  0.2882 -0.1191
51196W        W94249   7.738  26.185   5.196  0.2311 -0.1231 -0.3384
51197W        W94250  27.481   0.578  10.015 -0.1636 -0.0541 -0.0020
51198W        W94251  28.045  19.915  28.136 -0.1896 -0.3123 -0.1291
51199W        W94252   1.986   8.800   1.492  0.1458  0.1355 -0.3168
51200W        W94253   1.112   3.716   3.404  0.2979  0.0137  0.0373
51201W        W94254   0.547  30.621  26.007 -0.0497  0.1039 -0.1731
51202W        W94255  22.065   2.656   6.335  0.0540  0.0056 -0.4809
51203W        W94256  11.904  30.756   8.410  0.1431  0.2118 -0.0457
51204W        W94257   5.447   2.972   2.934  0.0225  0.3438  0.0034
51205W        W94258  34.042  34.018   5.462 -0.3215  0.0348 -0.0351
51206W        W94259  19.351   7.455  25.352  0.0577  0.0028 -0.1308
51207W        W94260  13.304  30.980   6.711  0.2333 -0.1945 -0.0309
51208W        W94261  21.755  29.089   0.771  0.0931 -0.1677 -0.3603
51209W        W94262  14.051   8.655  11.331  0.1410 -0.1360 -0.0368
51210W        W94263   1.920   5.332  27.431 -0.2493  0.1020 -0.0290
51211W        W94264  10.119  12.726   9.804  0.0794  0.3016 -0.0244
51212W        W94265  34.278   1.857  10.139  0.2975 -0.0493  0.2580
51213W        W94266   7.883  30.835   8.712 -0.1043  0.1659 -0.4580
51214W        W94267   8.156  30.865   1.715  0.0442  0.3373  0.2475
51215W        W94268  24.997  21.638   4.529 -0.2055  0.1099 -0.1625
51216W        W94269  29.106  26.990  18.679 -0.0924  0.1845  0.2159
51217W        W94270  33.669  22.316  22.543  0.0813 -0.1877 -0.1446
51218W        W94271  32.005   6.260   1.253  0.0243  0.0722 -0.2280
51219W        W94272   3.241  29.791   6.267 -0.4789 -0.0459  0.0780
51220W        W94273  29.744   4.259   5.155 -0.0822 -0.0274  0.0508
51221W        W94274   0.449  16.658  26.379 -0.0512 -0.2554 -0.1774
51222W        W94275  33.489  25.123   2.574 -0.0803 -0.3034  0.2778
51223W        W94276   4.822   8.625   5.835 -0.0430 -0.2105  0.0023
51224W        W94277   4.292  26.112  22.810  0.0763 -0.2952  0.1008
51225W        W94278  23.907   2.437   2.455  0.4398  0.1546 -0.1089
51226W        W94279  29.752  33.890   6.892  0.1647 -0.2604  0.3601
51227W        W94280  27.263   2.552  16.563  0.0960  0.0595 -0.1305
51228W        W94281   6.809  23.257  23.788  0.0887  0.0247  0.2282
51229W        W94282  33.109  28.832   9.734 -0.1676  0.0708 -0.1337
51230W        W94283  20.698  17.097  15.365  0.1652 -0.3624  0.1111
51231W        W94284   9.681  23.543  25.531  0.1625  0.0824 -0.2711
51232W        W94285  28.532  33.716  23.280 -0.0220 -0.0781  0.1554
51233W        W94286  27.472  26.301   8.161 -0.2115  0.1427 -0.1173
51234W        W94287  32.208  31.796  10.125  0.1355 -0.0187 -0.0879
51235W        W94288   2.175  26.760   1.667 -0.1853  0.3048 -0.1414
51236W        W94289   5.409  32.248   6.865 -0.0218  0.1063  0.2332
51237W        W94290   7.242  18.763  24.310 -0.2038  0.0461  0.0318
51238W        W94291   7.799   9.303   9.971 -0.3486 -0.0001  0.0638
51239W        W94292  30.246  13.299   3.843  0.3326  0.0750 -0.1685
51240W        W94293   1.623  27.704   2.503 -0.1798  0.0480 -0.2444
51241W        W94294   8.512  11.952  20.189 -0.0583  0.3162  0.0131
51242W        W94295  27.382   3.656   9.111  0.3361  0.1184  0.0178
51243W        W94296  14.677  25.316   9.287 -0.0940  0.3649 -0.1027
51244W        W94297  20.882  24.410  27.275 -0.1582  0.1468  0.2106
51245W        W94298  24.952  27.040  25.163  0.1611  0.2109 -0.0969
51246W        W94299  33.702  27.527  26.571  0.0204 -0.2369 -0.0356
51247W        W94300   6.751  22.811  16.658  0.3462  0.4799  0.1794
51248W        W94301  30.956   9.327  10.254  0.2334  0.2921  0.1037
51249W        W94302  27.151   5.441   6.019 -0.1311  0.0181  0.0262
51250W        W94303   5.201   2.843   2.541 -0.1768 -0.2857  0.1329
51251W        W94304  28.426   3.458   6.968 -0.1533 -0.2098  0.1033
51252W        W94305   0.711  12.466   4.066  0.1968 -0.3082  0.1575
51253W        W94306  31.008  14.293   8.864  0.1415 -0.1418  0.0002
51254W        W94307   1.779  31.665   8.487 -0.0223  0.0690 -0.3415
51255W        W94308  25.327  25.287   7.514  0.1434 -0.0700  0.0645
51256W        W94309   2.798  19.543   9.561  0.2024  0.1075  0.1330
51257W        W94310  28.850   4.417   0.988  0.2087 -0.2231 -0.0327
51258W        W94311  24.093   1.616  25.771 -0.2455 -0.2104  0.1546
51259W        W94312  22.867  25.613   9.074 -0.0584 -0.0618 -0.1813
51260W        W94313   8.627  24.074   9.099 -0.3425  0.0290  0.2807
51261W        W94314   0.589  10.300   1.522  0.0660  0.0580 -0.2171
51262W        W94315   3.752   2.601   6.825 -0.1188  0.1174 -0.0136
51263W        W94316  29.091  23.961  21.978  0.0470  0.0964  0.2579
51264W        W94317   7.187  15.110  18.719 -0.2663  0.1999  0.0310
51265W        W94318  10.052  33.952  27.262 -0.0547 -0.0448  0.0070
51266W        W94319  27.581  33.968   9.290 -0.0209  0.1285 -0.0314
51267W        W94320  25.512  14.988  21.354  0.3804 -0.0690  0.0571
51268W        W94321   9.112   2.213   3.639  0.1456 -0.0013 -0.1277
51269W        W94322  20.457  14.818  23.527 -0.0392  0.0047  0.1181
51270W        W94323  32.264   7.837  26.118 -0.2259 -0.1038 -0.4283
51271W        W94324  27.862  33.426   1.801  0.6042 -0.1293  0.0504
51272W        W94325   9.135  32.665   8.362  0.1703  0.0712 -0.0686
51273W        W94326   4.661   5.137   7.372 -0.0438 -0.2446  0.3727
51274W        W94327  28.101  21.576  25.644  0.2903  0.1082  0.0979
51275W        W94328  29.489  30.381   0.476  0.1912  0.3883 -0.4653
51276W        W94329  26.121  26.671   5.308 -0.1525  0.0480  0.2210
51277W        W94330   0.632  28.135   6.195 -0.0739  0.0111  0.0090
51278W        W94331   4.773   4.450   3.419 -0.0469  0.0327 -0.1309
51279W        W94332   1.763   3.753   0.927  0.2732 -0.0116 -0.1833
51280W        W94333   6.818  29.146   3.759  0.0765  0.1120  0.0418
51281W        W94334   1.368  26.079  24.850 -0.0612 -0.0004 -0.0266
51282W        W94335   4.694   0.937   3.166  0.0809 -0.0827 -0.0975
51283W        W94336   6.396  27.106   2.854  0.1336  0.2078  0.2064
51284W        W94337  34.382   7.164   8.310 -0.1044  0.0040 -0.1717
51285W        W94338  31.503  29.707   8.704  0.1300 -0.0332 -0.1180
51286W        W94339  20.983   7.130   1.160 -0.1929 -0.0714  0.1305
51287W        W94340   0.524   1.158  24.678 -0.1023 -0.1771  0.1587
51288W        W94341  21.465  10.316  22.542 -0.1717 -0.2035  0.3004
51289W        W94342  24.586  10.127   8.681 -0.2420 -0.1650 -0.0062
51290W        W94343   9.466  13.537   2.092  0.0348  0.0141  0.2288
51291W        W94344   0.299   3.029  28.572  0.1713 -0.1050  0.1078
51292W        W94345  11.850  33.852  23.181 -0.0312  0.1383 -0.3611
51293W        W94346  33.189  32.458   9.165 -0.0384  0.0432  0.2555
51294W        W94347  12.803   2.632   3.968  0.1005  0.2930 -0.0653
51295W        W94348  25.449  28.755   7.801  0.0124  0.1406 -0.0735
51296W        W94349  31.642  28.391   8.110 -0.0807 -0.1081  0.0212
51297W        W94350  16.749   4.354   8.283  0.0103  0.0681  0.0133
51298W        W94351  13.364   1.508   4.934 -0.1531  0.1627  0.2583
51299W        W94352   2.495   6.299   7.230 -0.0589  0.0620  0.1698
51300W        W94353  17.818  18.092   9.816 -0.1165 -0.2092  0.2800
51301W        W94354   2.591   4.683   3.093  0.2068 -0.1830  0.1801
51302W        W94355  26.353   7.748  10.103 -0.1116  0.1982 -0.0429
51303W        W94356  20.469   7.614   5.027 -0.1522  0.1184  0.1407
51304W        W94357   6.371  29.782   0.006  0.2041 -0.0273  0.2833
51305W        W94358  27.145   4.866   9.690 -0.2501  0.0496  0.4270
51306W        W94359  30.303  27.995   2.200  0.1381  0.1442  0.0129
51307W        W94360   0.205  25.665  23.742 -0.0416 -0.2884 -0.0315
51308W        W94361  32.526  30.347   2.944  0.2245 -0.0835  0.0582
51309W        W94362   1.627  29.529   0.016  0.1267  0.1308  0.0881
51310W        W94363  32.976   3.719   3.808  0.1053  0.1061  0.3404
51311W        W94364   0.488   8.810   3.234 -0.0575 -0.0782 -0.2600
51312W        W94365   1.198   3.189   5.897  0.1035  0.1104 -0.0697
51313W        W94366  13.117  30.872  27.593 -0.0270 -0.1594 -0.0156
51314W        W94367   2.839  32.011   9.117  0.0895  0.1833 -0.0194
51315W        W94368  10.905  21.621   7.998  0.0637  0.0139 -0.3224
51316W        W94369  11.233   4.216   7.230  0.0635  0.1738  0.1412
51317W        W94370  26.508  26.698   9.510  0.1348 -0.0899  0.2116
51318W        W94371  33.976  17.577   9.726  0.1778  0.4225  0.0330
51319W        W94372   5.516  11.544   9.130  0.0289  0.3039  0.1306
51320W        W94373   0.106   3.989  24.725  0.2035  0.1502 -0.0097
51321W        W94374  12.866  29.501   2.203 -0.5154 -0.1171  0.3508
51322W        W94375   3.541  34.120   8.952 -0.3059 -0.0848  0.0260
51323W        W94376   6.402  27.462   9.890  0.1932 -0.0445 -0.0685
51324W        W94377  33.168  25.940   8.276 -0.2933 -0.0315  0.3380
51325W        W94378  32.936  30.663  26.364  0.0644  0.0863 -0.2145
51326W        W94379  12.576  31.690  25.082  0.3165 -0.1103 -0.1356
51327W        W94380  31.666   2.109  20.437  0.2494 -0.2471  0.2127
51328W        W94381  11.021   3.691   9.781  0.1497  0.2657 -0.1443
51329W        W94382   5.984  14.610   8.363  0.2273 -0.0054  0.0089
51330W        W94383  26.906  32.369  28.898  0.3164  0.0402  0.0691
51331W        W94384   6.298   8.515   8.735 -0.2813 -0.0900  0.2259
51332W        W94385  25.469  32.642   5.689  0.0404 -0.1482 -0.0757
51333W        W94386  28.000  17.119  25.256 -0.2074 -0.0486  0.3718
51334W        W94387   1.688  10.964   9.486  0.1587  0.0739 -0.1852
51335W        W94388  31.623  18.367   0.906 -0.0909  0.0047 -0.0672
51336W        W94389   6.076   4.898   6.623 -0.2617 -0.1887 -0.3381
51337W        W94390  19.999   5.934   0.926 -0.0139 -0.4661  0.1186
51338W        W94391  11.063  29.613   5.634  0.2043  0.1451 -0.0950
51339W        W94392  12.602  32.443   9.442  0.1512  0.0823 -0.0940
51340W        W94393  28.484  23.569  29.164  0.3576 -0.0441  0.0012
51341W        W94394  24.267  23.586   7.510  0.0844 -0.1791  0.1954
51342W        W94395  25.705   1.747   6.159 -0.2134  0.2469  0.0778
51343W        W94396  32.378  23.699   8.402 -0.1849 -0.1173  0.1129
51344W        W94397  27.163  33.383   3.236 -0.0682 -0.3709 -0.3681
51345W        W94398  30.445  34.035   7.438  0.1929  0.0469  0.1814
51346W        W94399  21.078   1.534   8.956 -0.0291  0.0532 -0.0332
51347W        W94400   1.306  29.963   4.272  0.1254 -0.2304 -0.2084
51348W        W94401   5.067  20.385   2.111 -0.0533  0.0648  0.1030
51349W        W94402  32.449   5.829   8.129  0.3354  0.0110  0.0232
51350W        W94403  31.622  17.182  28.433  0.1579 -0.1193 -0.0201
51351W        W94404  27.052  34.250   3.879 -0.0246  0.1129 -0.1611
51352W        W94405  15.550  34.262   0.833  0.0832 -0.1017  0.2499
51353W        W94406  13.250  34.177  28.439  0.0974  0.1201 -0.0232
51354W        W94407   1.366   1.931  19.111  0.2412  0.0748  0.0304
51355W        W94408   8.356   3.851   7.445  0.1930  0.4121 -0.2104
51356W        W94409  25.375   0.831   7.521  0.1624 -0.2522 -0.0280
51357W        W94410  18.447  29.991  27.285 -0.1311 -0.1411 -0.0005
51358W        W94411   3.042  14.527   5.115 -0.0003 -0.0336 -0.2063
51359W        W94412  25.564   7.711  19.450  0.0616 -0.1645 -0.0894
51360W        W94413  13.528  33.960   6.014 -0.2672 -0.1070 -0.2706
51361W        W94414  27.664  32.212   3.172 -0.2980  0.4132 -0.2118
51362W        W94415  29.533  18.394  19.293  0.2272 -0.0553 -0.0865
51363W        W94416   7.347   1.950   8.112  0.0992 -0.0146  0.1367
51364W        W94417  28.317   2.787   8.580  0.1032 -0.0478 -0.0712
51365W        W94418  10.724   3.707   8.905 -0.0169  0.2353  0.2137
51366W        W94419   1.305  23.430  26.440 -0.1442 -0.2374 -0.1180
51367W        W94420  31.422  23.953   0.928 -0.0413 -0.0198  0.2364
51368W        W94421  33.026   8.388   7.188  0.0446 -0.0777 -0.0623
51369W        W94422  32.685  33.816  23.543 -0.2179 -0.1676  0.0936
51370W        W94423  27.701  32.006   1.230  0.0141  0.0603  0.1354
51371W        W94424  28.645  30.218   5.959  0.1076  0.0618  0.1379
51372W        W94425  25.923   4.491  26.883  0.1492 -0.0510 -0.0505
51373W        W94426   9.019  34.575   7.588 -0.1114  0.0046  0.4327
51374W        W94427   7.643  32.135   6.859  0.0944 -0.1218  0.1369
51375W        W94428   6.678  32.293   4.193  0.0842  0.4512 -0.1797
51376W        W94429   9.370  14.008  26.739  0.3649 -0.1644 -0.0491
51377W        W94430  30.868  29.754  27.367 -0.1290  0.0730 -0.0929
51378W        W94431  21.935  15.192   3.440  0.4807 -0.1083 -0.3364
51379W        W94432  28.163   6.800  28.957  0.0297 -0.0410  0.3316
51380W        W94433   5.767  23.922   2.230  0.1359  0.0467 -0.1226
51381W        W94434   2.770  24.656   2.454  0.0002 -0.0871  0.1175
51382W        W94435   0.247   5.288   2.738 -0.0071 -0.1369 -0.2843
51383W        W94436  26.240  22.795   5.917  0.1604 -0.4792 -0.0549
51384W        W94437   2.212   4.460  10.032  0.2631 -0.1366 -0.0627
51385W        W94438   9.595  30.889   5.561  0.0513 -0.1456  0.0760
51386W        W94439  31.500   0.566  10.027 -0.1861 -0.3803 -0.0556
51387W        W94440  10.420   6.896  18.523  0.0333  0.0031  0.0820
51388W        W94441  33.812  33.315   2.741  0.2118 -0.0379 -0.0458
51389W        W94442  26.514   7.869  28.050 -0.1981 -0.1322  0.2719
51390W        W94443   0.293   4.752   9.953  0.1874  0.1904 -0.0439
51391W        W94444  18.711   3.993  28.584  0.1420 -0.2594  0.0349
51392W        W94445   4.039  28.142  28.422  0.1365  0.2589 -0.1134
51393W        W94446   1.006  17.848   6.718  0.1667 -0.2821 -0.0385
51394W        W94447  10.591  34.410   2.048 -0.1536 -0.0197 -0.3376
51395W        W94448  12.185  16.335  29.091  0.3534 -0.1603  0.2242
51396W        W94449  32.915   1.867   5.886  0.3562 -0.1063 -0.0146
51397W        W94450   2.448  34.258   4.762  0.0973  0.1901  0.0288
51398W        W94451  28.801  19.873   4.169 -0.1006  0.0013  0.0478
51399W        W94452  30.093  22.212   3.195  0.1155 -0.1514  0.0012
51400W        W94453  12.034   0.706   5.418  0.0557 -0.0694  0.4126
51401W        W94454  32.049   2.675  28.489  0.0523 -0.0001  0.0435
51402W        W94455  32.011   9.641   4.578  0.0889  0.1271  0.0283
51403W        W94456  11.233   4.215   0.244  0.0093  0.0460 -0.0517
51404W        W94457  32.697   1.087   6.609 -0.0870  0.2000  0.3997
51405W        W94458  28.145   5.553   1.578 -0.1151  0.4156  0.1980
51406W        W94459  11.088  27.239   2.162  0.0353 -0.1246 -0.1205
51407W        W94460  12.480   5.327   8.697 -0.4503  0.0241 -0.1177
51408W        W94461  34.476   4.210   8.782 -0.1010 -0.1098 -0.2382
51409W        W94462  11.729   8.263   3.401  0.2512 -0.0961  0.0733
51410W        W94463   6.463  33.770   5.038 -0.4332  0.3498  0.1229
51411W        W94464  20.747   3.305   5.477  0.0891 -0.1040  0.0491
51412W        W94465  30.028   0.168   1.302 -0.2338 -0.0940  0.3869
51413W        W94466   7.355   0.362   4.370 -0.2140  0.0894 -0.1497
51414W        W94467   3.287   8.795   0.306 -0.1079 -0.3657  0.1105
51415W        W94468  30.299   8.018   4.171  0.1878 -0.1212  0.1119
51416W        W94469  16.950  12.371  19.660  0.3861  0.2741 -0.1649
51417W        W94470  32.360  29.511   0.285  0.0817 -0.0589 -0.3981
51418W        W94471  18.322   5.285   9.449  0.0588 -0.2017 -0.3578
51419W        W94472  34.141  12.529   6.315  0.0380 -0.1769  0.4737
51420W        W94473   1.007  31.393  21.516 -0.0616 -0.0135 -0.0064
51421W        W94474  27.690  27.936   3.436  0.1347 -0.1360  0.3065
51422W        W94475  30.691  29.354   7.817 -0.0035  0.2071 -0.3498
51423W        W94476   3.422   7.152   5.842 -0.0897 -0.2074  0.2037
51424W        W94477  30.119  22.307   4.187  0.1714 -0.2790 -0.2628
51425W        W94478  30.698   8.792  23.209  0.1113  0.2126  0.1996
51426W        W94479  33.210  25.039   0.397 -0.2380 -0.0579  0.3262
51427W        W94480  21.256  14.488  24.466 -0.2489 -0.3154 -0.1526
51428W        W94481  27.766  12.432  27.989  0.0708  0.0740  0.1521
51429W        W94482   2.876  34.017   7.644  0.0918 -0.0145 -0.2598
51430W        W94483  28.050   8.680   9.051 -0.3169  0.3122  0.0031
51431W        W94484  19.284   4.694  21.768 -0.3783  0.2954  0.2276
51432W        W94485  10.294  27.521   4.564  0.1326  0.2999 -0.1018
51433W        W94486   1.787   0.355   5.894 -0.0642 -0.1101  0.4423
51434W        W94487  18.811   8.362   6.124  0.0630  0.1764 -0.2906
51435W        W94488   3.025  26.151   6.786 -0.6093  0.1354  0.0162
51436W        W94489   1.583  30.351   2.739  0.1248 -0.1061 -0.0524
51437W        W94490  32.872   7.647   1.320 -0.1405  0.1915  0.0957
51438W        W94491   2.244   9.970   9.174  0.1656  0.1697  0.0837
51439W        W94492   9.051  19.063  26.736 -0.4874 -0.2714  0.0855
51440W        W94493  29.594  13.414   7.235 -0.0962 -0.0851  0.0012
51441W        W94494  31.223   9.254   1.822  0.0506 -0.1683 -0.2037
51442W        W94495  33.973  13.630   6.903  0.0657  0.2243  0.1290
51443W        W94496  19.816  10.710   6.226  0.0034 -0.2386 -0.0980
51444W        W94497   8.081  10.334   1.505  0.1390 -0.0426 -0.1208
51445W        W94498  27.141  29.013   9.865 -0.0129  0.1773  0.2321
51446W        W94499  33.519  13.357   2.761 -0.0803  0.0609  0.0093
51447W        W94500   9.102  33.606   1.240  0.3060 -0.0990 -0.3807
51448W        W94501  29.362   1.754   5.067  0.0210 -0.1245  0.0784
51449W        W94502  20.827  18.077  18.689 -0.2086  0.0243  0.2199
51450W        W94503  34.364  11.995  24.861  0.0278 -0.0354 -0.0337
51451W        W94504  22.478  29.845   2.982  0.0542 -0.0519 -0.1280
51452W        W94505  21.827  21.947   0.265 -0.0940 -0.1007  0.1634
51453W        W94506   4.838  34.322   2.920 -0.0688 -0.0291  0.2135
51454W        W94507  26.105  26.186  28.904 -0.4179 -0.0713  0.2070
51455W        W94508  21.112   1.927   5.390  0.2179 -0.1600  0.1111
51456W        W94509  22.956   9.546  17.306  0.0896  0.0024 -0.0583
51457W        W94510  12.246  16.519  24.642  0.2713  0.0462  0.0033
51458W        W94511  34.525   1.252   2.563 -0.0361 -0.0531  0.2454
51459W        W94512  28.279  10.017  17.959  0.2441  0.0344 -0.3048
51460W        W94513   7.150  27.879   0.033 -0.1130 -0.0761 -0.4208
51461W        W94514   6.552  30.429  15.569 -0.1108  0.0190 -0.4261
51462W        W94515   4.410   3.278   2.212  0.3963  0.0191 -0.0861
51463W        W94516  10.066  16.203  23.928 -0.0343  0.1425 -0.3348
51464W        W94517  31.800  10.158   6.078  0.0694  0.3957  0.1592
51465W        W94518  29.528  18.903  25.763  0.0546 -0.3760 -0.2781
51466W        W94519  28.654  19.987   6.588 -0.1983 -0.1305 -0.1368
51467W        W94520  29.709   6.131   2.130  0.1795 -0.1416  0.2465
51468W        W94521  18.477   2.527  23.617  0.3015 -0.0122 -0.2047
51469W        W94522  32.613   3.092   8.265 -0.0102 -0.2387  0.0462
51470W        W94523   0.325  31.219  22.560  0.3372  0.1344 -0.1009
51471W        W94524  26.320  10.947  20.320 -0.2357 -0.1137 -0.0126
51472W        W94525  16.193  17.393  25.179  0.1526  0.2579 -0.0799
51473W        W94526  10.665  11.700   6.772 -0.2294 -0.3236 -0.0446
51474W        W94527   5.462  31.202  19.056 -0.1937  0.1357 -0.0033
51475W        W94528   9.268  18.521  14.467  0.0904 -0.1152  0.0079
51476W        W94529  10.521   3.037   5.472 -0.2246  0.1433 -0.1979
51477W        W94530  30.792  22.668  26.981  0.0749  0.2017  0.2062
51478W        W94531   1.162   1.693   3.447  0.0800 -0.0572 -0.1515
51479W        W94532  30.278  20.112   0.677 -0.2710 -0.0691 -0.0099
51480W        W94533  10.443  16.905  24.102  0.1552 -0.1593 -0.2586
51481W        W94534   1.759  14.099   8.866  0.1957  0.1570 -0.2443
51482W        W94535   4.833   3.830  17.224  0.0587 -0.2008  0.1600
51483W        W94536  26.980  15.647  25.317  0.3092 -0.2115 -0.0716
51484W        W94537  27.191   0.957   0.992  0.0645  0.0169  0.0275
51485W        W94538   4.291  21.259  25.971 -0.0740  0.2261 -0.0628
51486W        W94539  27.670   3.553  28.801  0.0970  0.0704  0.0265
51487W        W94540   0.719  19.356  18.885 -0.0402 -0.1442 -0.1862
51488W        W94541  16.175   7.623  15.730  0.2996 -0.0979 -0.0057
51489W        W94542  31.801   1.734   5.030  0.2010  0.1179  0.2537
51490W        W94543  13.696  14.325   1.391 -0.2179  0.0092  0.0298
51491W        W94544  32.247  30.696  21.213  0.1294 -0.0408  0.0619
51492W        W94545  25.071  29.578   9.082 -0.0119 -0.0274 -0.1920
51493W        W94546  24.652   7.054  27.817 -0.0882 -0.0659  0.1787
51494W        W94547  17.127   0.134  21.247 -0.1027 -0.2354  0.0636
51495W        W94548  11.146  30.905  17.509  0.3346  0.1583 -0.1311
51496W        W94549  26.774  32.207   6.699  0.0368 -0.3810 -0.1544
51497W        W94550  10.355   0.390  17.225 -0.0745  0.1780  0.1601
51498W        W94551  26.464  28.784  27.371  0.1497 -0.3672  0.2607
51499W        W94552   3.772   9.928   6.878  0.2507 -0.0930  0.0854
51500W        W94553  25.762  14.180  20.204 -0.0422  0.5066 -0.1468
51501W        W94554  15.014  29.754  24.508 -0.0497  0.1013  0.3251
51502W        W94555   0.592   3.156  15.458 -0.0845  0.1612  0.2477
51503W        W94556  11.698   7.320   8.820 -0.1856 -0.0688 -0.1950
51504W        W94557  24.274  10.932   3.780 -0.2078  0.2782  0.2724
51505W        W94558   1.199   8.361   8.402 -0.4409  0.2081  0.1973
51506W        W94559  15.500  32.687   8.399  0.1754  0.2011 -0.0681
51507W        W94560  21.419   4.114   7.216 -0.0045 -0.2761  0.3488
51508W        W94561  28.823   1.847  20.917 -0.1861 -0.1416  0.1101
51509W        W94562  32.919   0.009   2.301 -0.3639 -0.2102 -0.0113
51510W        W94563   1.843  14.796  15.148  0.1605 -0.0459  0.1496
51511W        W94564   4.382  34.334   0.516 -0.0140  0.1935 -0.2520
51512W        W94565  27.340   7.975   3.997 -0.0203  0.0122  0.3337
51513W        W94566   9.799  21.072   8.520  0.1485 -0.1398  0.0148
51514W        W94567   5.375  25.125   1.939  0.0746  0.1247  0.0732
51515W        W94568   9.131  16.828   3.548  0.1093  0.1310  0.3109
51516W        W94569   1.633  25.467   2.702 -0.0206  0.0413  0.0178
51517W        W94570  19.510   5.480   8.991 -0.0226 -0.1220  0.0249
51518W        W94571   6.498   9.540   3.369  0.3688 -0.0812  0.1109
51519W        W94572   6.288   7.696   8.214  0.1061 -0.2109  0.0449
51520W        W94573  22.706  32.590   4.308 -0.2463 -0.0661 -0.1581
51521W        W94574   1.401  10.948  23.147 -0.0982 -0.1158 -0.1591
51522W        W94575   5.576  30.637   7.646  0.1326  0.1241  0.0334
51523W        W94576  27.299   4.327  26.712 -0.0028  0.0818  0.0320
51524W        W94577  33.932  27.049  29.178  0.3545 -0.0933 -0.4208
51525W        W94578  32.444   5.681  25.814 -0.1311 -0.0473  0.0923
51526W        W94579  19.892  12.034  19.652 -0.1981 -0.1499  0.0344
51527W        W94580   4.899  11.688  25.483  0.0261 -0.2753 -0.0379
51528W        W94581   6.615  33.102   3.933  0.1366 -0.0909 -0.0170
51529W        W94582  26.096  17.900  23.424 -0.0863 -0.0910  0.0108
51530W        W94583  21.905  27.428   9.273  0.0708  0.2281 -0.3486
51531W        W94584   2.747  24.068   5.150  0.0319 -0.1545  0.0879
51532W        W94585  33.437  30.668  24.830  0.0431  0.3385 -0.1909
51533W        W94586  12.672  13.314  27.357 -0.3219  0.2982  0.0455
51534W        W94587  29.284  25.499  24.586  0.1378  0.0560  0.0868
51535W        W94588  21.173   3.800  26.428  0.0991 -0.0942  0.0298
51536W        W94589  14.463  13.061  10.559 -0.0095 -0.2038  0.2591
51537W        W94590  30.661   2.485  25.535  0.0701 -0.0756  0.4616
51538W        W94591  22.184  30.705   0.703 -0.1426  0.0844  0.1225
51539W        W94592  27.238   6.718   5.305 -0.3017  0.0957  0.0681
51540W        W94593   3.526  19.447  25.423  0.4778  0.0765 -0.1130
51541W        W94594  14.530  18.335   5.850  0.1714 -0.1684 -0.0593
51542W        W94595   8.095  31.947  21.241 -0.1202 -0.1035  0.1416
51543W        W94596  21.368   9.680   7.413 -0.4391  0.0531  0.3135
51544W        W94597   7.902   2.823  10.149  0.1497  0.0016 -0.2466
51545W        W94598   7.444  31.721  18.240 -0.0299 -0.0817  0.1749
51546W        W94599  27.894  11.092  25.796  0.0575 -0.0146  0.1947
51547W        W94600  28.142   1.412  24.610 -0.0114  0.2681 -0.2558
51548W        W94601  34.597  14.886   3.175 -0.1636 -0.0850  0.1130
51549W        W94602  30.008  17.235  22.072 -0.0709 -0.0795  0.0458
51550W        W94603  28.635   4.968   8.509 -0.1904 -0.4564 -0.3935
51551W        W94604  25.467  25.191  16.706  0.0041 -0.0347  0.0877
51552W        W94605   6.125   5.275  27.899 -0.0068  0.0784  0.1132
51553W        W94606   3.355  28.354  13.061  0.0331 -0.3447  0.0436
51554W        W94607  30.229  17.857  24.348 -0.2865  0.4932  0.0082
51555W        W94608  10.451  28.385   6.617  0.2777  0.0220  0.0713
51556W        W94609  32.443   4.161   5.837 -0.1130 -0.1301 -0.0375
51557W        W94610  18.149  26.895  14.251 -0.0980 -0.3418 -0.3123
51558W        W94611   6.977   8.257  27.994 -0.0956 -0.0847  0.1606
51559W        W94612  20.757  29.554   2.465  0.1215 -0.3496 -0.1008
51560W        W94613  30.032  15.466   8.429  0.0794  0.0401 -0.1472
51561W        W94614  12.871  11.221  27.550 -0.3842  0.0288 -0.3589
51562W        W94615  15.170  30.995  23.917  0.0086 -0.0642  0.2234
51563W        W94616   0.386   1.254   6.813  0.0152  0.0455  0.0983
51564W        W94617   2.692  27.769  27.303  0.1997  0.2084 -0.3533
51565W        W94618  18.531  25.876   7.814 -0.2170 -0.2013 -0.2042
51566W        W94619  23.996  33.110   1.207 -0.4160 -0.0920  0.2751
51567W        W94620   9.970  12.976  20.008  0.0070  0.0614 -0.2075
51568W        W94621   9.919  33.298  24.889 -0.3035 -0.1877  0.1309
51569W        W94622  15.717   5.304   0.307 -0.0702 -0.2614  0.0243
51570W        W94623  21.975   7.801  24.733 -0.1438 -0.1358  0.0505
51571W        W94624   8.318  24.745   3.050  0.2012 -0.0267  0.3167
51572W        W94625  29.107   4.832  15.975 -0.1321  0.1383  0.0094
51573W        W94626   0.705   0.818  22.547 -0.3923  0.0191  0.2945
51574W        W94627  24.177   2.390  23.699 -0.0016 -0.0302 -0.1197
51575W        W94628  30.399  26.684  19.611 -0.0545  0.1211 -0.0361
51576W        W94629  18.788  17.983  25.614  0.2863 -0.0243  0.1031
51577W        W94630   0.104  31.392  26.384  0.1073  0.1615  0.1018
51578W        W94631   4.018   9.995  10.469 -0.0775 -0.2104 -0.0691
51579W        W94632   9.101  13.818  28.393  0.2103  0.2252  0.1183
51580W        W94633   1.896  10.516  23.077  0.1516 -0.1265 -0.0915
51581W        W94634  32.695  23.664   7.917  0.0120  0.0921  0.0496
51582W        W94635  32.368   5.630   5.030 -0.0873  0.1808 -0.0961
51583W        W94636  28.966  16.314  28.001  0.2252 -0.0329 -0.1110
51584W        W94637  14.959   6.236   5.004 -0.3224 -0.1465 -0.2309
51585W        W94638  23.930  11.817  26.173  0.1374 -0.0348  0.1247
51586W        W94639  17.499  10.637   4.000 -0.1949 -0.3106  0.3102
51587W        W94640  25.776   6.192  27.176  0.0918 -0.0795 -0.0335
51588W        W94641   6.946  11.547   9.438 -0.1366  0.3202 -0.2731
51589W        W94642  33.474  23.178  22.083 -0.1382 -0.0068  0.1132
51590W        W94643   9.730   7.877  22.305 -0.3205 -0.0813  0.2009
51591W        W94644   1.119   1.307  21.864  0.2791  0.0921 -0.2714
51592W        W94645  13.266  24.808   1.057 -0.1249  0.3541  0.1674
51593W        W94646  28.841  32.429   8.708  0.2902 -0.1256 -0.1732
51594W        W94647  21.016  32.277   7.252  0.0717 -0.0339 -0.1786
51595W        W94648  33.601   0.425  24.133  0.0357  0.0123 -0.2482
51596W        W94649  32.857  14.449   9.408 -0.1125  0.2120 -0.0466
51597W        W94650  20.584   1.256  13.988  0.0256 -0.0837 -0.2357
51598W        W94651   4.045  14.495   5.887  0.3122  0.1508 -0.0493
51599W        W94652   4.172  33.486  18.330  0.0888  0.3881 -0.0064
51600W        W94653  29.302   1.734   3.162  0.0375  0.0723  0.2928
51601W        W94654  33.638  17.523   1.964 -0.0654 -0.1742 -0.0901
51602W        W94655  31.907  25.389   8.899  0.2907 -0.1870 -0.1724
51603W        W94656  28.978   6.024  21.927 -0.0767 -0.0411 -0.0854
51604W        W94657  12.648  22.885   9.327  0.0431  0.2425  0.3002
51605W        W94658  33.466   5.731   8.931  0.2096  0.0169  0.3990
51606W        W94659  29.376   4.048   1.166 -0.0380  0.0253 -0.1672
51607W        W94660  17.574   0.055   4.005 -0.2037  0.2509  0.1300
51608W        W94661  33.703  13.911  18.576 -0.0215 -0.0517  0.1269
51609W        W94662  26.502  19.968   3.902  0.0543 -0.0546  0.2027
51610W        W94663   1.304  10.319  23.867 -0.2401  0.1369  0.2390
51611W        W94664  14.509   5.184   4.044  0.0136  0.1931  0.0804
51612W        W94665  23.824  22.699   1.949  0.3617 -0.0588  0.0153
51613W        W94666  29.481   3.736   5.223  0.2159  0.0101  0.0062
51614W        W94667  12.229  14.881   3.876  0.2329  0.1780 -0.0850
51615W        W94668  21.774  20.826   4.522  0.1274 -0.1514  0.0510
51616W        W94669   3.285   4.964  22.040 -0.1358 -0.1283  0.2785
51617W        W94670  28.753  11.944  21.954 -0.0600  0.1168  0.1066
51618W        W94671   3.179   5.071  16.448  0.0246  0.0713 -0.1171
51619W        W94672   6.838  30.772   5.562  0.2756  0.0318 -0.0816
51620W        W94673  16.139   9.796   0.481  0.4926 -0.3080 -0.2170
51621W        W94674   4.333  11.303   4.329  0.1472 -0.3029 -0.1607
51622W        W94675  21.532  27.313  10.170 -0.0635 -0.0717 -0.1159
51623W        W94676  23.221   1.343  23.125  0.0517 -0.1765  0.1655
51624W        W94677   2.110  12.488  26.608 -0.2343 -0.6318 -0.2873
51625W        W94678  34.565   8.108  26.944 -0.1290 -0.1791 -0.0161
51626W        W94679  28.268  21.283  27.815 -0.1023 -0.0888 -0.3006
51627W        W94680  10.953  18.691   5.994  0.0118  0.0371 -0.0919
51628W        W94681   5.058   5.568  18.950 -0.2076  0.0333  0.0013
51629W        W94682  23.444  17.142   4.534  0.1925 -0.2371  0.0137
51630W        W94683  11.730  13.774  25.417  0.2640 -0.0621 -0.2999
51631W        W94684   0.778   2.278   4.770 -0.4786 -0.2514  0.0235
51632W        W94685   2.927  10.684  18.066 -0.1388  0.1639  0.0151
51633W        W94686  31.487   2.135   0.966 -0.2211  0.2424 -0.0815
51634W        W94687   1.348   0.240  25.576 -0.1133 -0.1094 -0.0320
51635W        W94688  18.761  14.431  24.299 -0.2000 -0.3576 -0.2883
51636W        W94689  24.727  28.026   5.357  0.1800 -0.0575  0.0488
51637W        W94690  25.087   4.573  26.604  0.2972 -0.0519  0.0461
51638W        W94691  28.013  12.884  24.500 -0.0683 -0.3085 -0.2001
51639W        W94692  33.229   2.968   8.564  0.0611 -0.4158 -0.3376
51640W        W94693  29.868  30.998   4.763 -0.1819  0.1767 -0.3367
51641W        W94694  20.068   5.122   9.597 -0.0322 -0.0045 -0.2464
51642W        W94695  14.275  14.974   2.691  0.0580 -0.0136 -0.0874
51643W        W94696  27.554  12.107  15.528  0.0852  0.0551 -0.1102
51644W        W94697  32.794   2.802  13.831  0.1674  0.1495 -0.0377
51645W        W94698  26.000  13.340  27.503 -0.0394  0.3001 -0.0263
51646W        W94699  22.848   8.515   9.676 -0.2385 -0.2935  0.0440
51647W        W94700   1.230   1.034  14.692  0.0025 -0.3366 -0.0753
51648W        W94701   4.209  15.558   5.730  0.0949 -0.1365  0.2086
51649W        W94702   5.941  31.481  29.087  0.1471 -0.3132 -0.1986
51650W        W94703   1.488  34.202   8.302  0.1389  0.0439 -0.1381
51651W        W94704  27.482   7.990  22.337  0.3676  0.2199  0.2476
51652W        W94705  24.050   1.839   8.496  0.3546  0.2293  0.2661
51653W        W94706   2.666  21.672   0.272 -0.1881  0.0389 -0.0855
51654W        W94707   0.462  27.649  28.488 -0.1540  0.0416  0.1341
51655W        W94708  14.664   7.319   8.666  0.1224  0.0294 -0.1215
51656W        W94709  24.531   4.744  15.228  0.1385 -0.0016  0.0484
51657W        W94710  26.789  28.461  19.904 -0.0152  0.1449  0.1321
51658W        W94711   3.230   0.522   0.478 -0.2779 -0.0960  0.0614
51659W        W94712   2.945  14.313  17.329 -0.1985  0.0583  0.1610
51660W        W94713   0.317   3.862  28.001 -0.5364 -0.0645 -0.0392
51661W        W94714  32.705   2.425   3.477 -0.1867  0.2202  0.4754
51662W        W94715   7.091  32.507  25.853 -0.3277  0.0894  0.0822
51663W        W94716   2.292  27.904  22.315 -0.3344 -0.2787  0.1270
51664W        W94717   3.081  29.080  28.736  0.1097 -0.2454 -0.2159
51665W        W94718  29.741   7.049  15.400  0.3612 -0.2367 -0.0024
51666W        W94719   1.989  28.648  20.173  0.0560  0.0058 -0.2134
51667W        W94720   9.962  17.100   0.357  0.0121 -0.0614  0.2752
51668W        W94721  28.635   7.794  25.621  0.1277 -0.0671  0.4006
51669W        W94722  18.859  25.325   7.531  0.0082 -0.0143 -0.1451
51670W        W94723   6.927   6.203   3.742 -0.2429  0.1012 -0.0537
51671W        W94724  34.294  27.658  27.852 -0.0385 -0.1833  0.1112
51672W        W94725   5.812   4.708   6.143 -0.0993 -0.1747 -0.0397
51673W        W94726   2.708  24.150  20.436 -0.1748  0.0452  0.1664
51674W        W94727   2.636   5.437   1.816  0.0143 -0.3287  0.3124
51675W        W94728   5.491   9.975  17.640 -0.0284  0.0733  0.0809
51676W        W94729   1.818   4.113   7.773  0.0751  0.3229  0.0168
51677W        W94730  27.153  28.059  10.078 -0.4275  0.1219 -0.2329
51678W        W94731  15.464   9.282   1.243  0.0576  0.1410  0.0698
51679W        W94732   3.259  33.957   8.492  0.0787  0.1228  0.6096
51680W        W94733  31.731   1.458  20.590 -0.0582  0.0519  0.0439
51681W        W94734   1.734  15.872   7.280  0.0602 -0.0278  0.1804
51682W        W94735  32.565  30.543  23.776  0.0405 -0.1773  0.0716
51683W        W94736   7.374   5.739   1.343  0.2322 -0.3284  0.1318
51684W        W94737  12.717  28.505   4.852 -0.0768  0.1572 -0.0373
51685W        W94738  24.639   5.877  18.350  0.0604 -0.0168 -0.2344
51686W        W94739   3.680  20.732   5.054 -0.0881  0.0401 -0.2414
51687W        W94740  34.545  28.363   0.576 -0.0732 -0.2232  0.4921
51688W        W94741  29.905   3.848   1.061 -0.0573  0.1936  0.3619
51689W        W94742   9.692  34.440   9.794  0.1576 -0.1872  0.2248
51690W        W94743  32.007   2.074   8.181  0.3564 -0.1886 -0.1735
51691W        W94744   4.141  18.347   9.419 -0.1088 -0.0978  0.1625
51692W        W94745  26.143  11.952   2.088  0.0229  0.2669  0.0302
51693W        W94746  27.003   8.886  26.699  0.0730  0.1355 -0.2147
51694W        W94747   1.633  18.363   2.318 -0.0843 -0.1903  0.0348
51695W        W94748  26.736   6.586   7.875 -0.3702  0.3044 -0.1059
51696W        W94749  11.936  27.952  24.855  0.1280 -0.1913  0.1791
51697W        W94750  24.708   4.776   7.819 -0.3248  0.2598 -0.0898
51698W        W94751  28.152  15.343  26.723  0.1603  0.0814 -0.0799
51699W        W94752  27.166   8.226  18.939  0.0544 -0.0397 -0.1967
51700W        W94753   3.151  17.498  21.844  0.0206 -0.1972  0.0794
51701W        W94754  11.570   2.518   8.732  0.1503 -0.0748  0.0090
51702W        W94755  30.766   6.484  23.184  0.1901 -0.3254 -0.1829
51703W        W94756   2.309  13.677   9.812  0.0293 -0.1444 -0.2416
51704W        W94757   0.053   8.583  10.606  0.1130  0.2110 -0.2639
51705W        W94758  32.668   5.338  14.461  0.1309  0.2832  0.1864
51706W        W94759  32.745   4.683   3.992 -0.1321 -0.1451  0.2857
51707W        W94760  26.595  14.135  27.280  0.0489 -0.1462 -0.1955
51708W        W94761   4.072  25.463   4.745 -0.1239 -0.0642 -0.0208
51709W        W94762  20.254  33.237  28.389 -0.1043  0.0891 -0.3165
51710W        W94763  12.181  34.046   8.687 -0.2058 -0.0064  0.1033
51711W        W94764   7.250   3.633   5.796  0.2823 -0.2299 -0.0949
51712W        W94765  30.161   3.777  28.573  0.0169 -0.2040 -0.0328
51713W        W94766   0.733   8.152   0.765  0.2018 -0.0547 -0.0034
51714W        W94767  14.784   2.972  17.200  0.0765  0.0083 -0.1504
51715W        W94768   6.942   4.154   8.439  0.4002 -0.1094 -0.0855
51716W        W94769  16.251   8.331  17.979 -0.1248  0.4835  0.1507
51717W        W94770  23.943   9.221  22.572 -0.0254  0.1632 -0.0847
51718W        W94771  16.179  13.645  26.109  0.0728 -0.0086  0.2014
51719W        W94772   3.708  18.000  22.527  0.0874 -0.4072  0.1521
51720W        W94773  28.841   3.116  19.384 -0.1996  0.2681 -0.1568
51721W        W94774  20.759  34.642  24.808 -0.0555  0.0156 -0.2230
51722W        W94775  27.014   7.153   4.315  0.0334  0.1974  0.0175
51723W        W94776  11.874   8.631  28.460  0.3475  0.2026  0.0239
51724W        W94777  31.397  22.345   4.002  0.1479  0.0524 -0.1476
51725W        W94778  33.503   5.051  19.094 -0.0185  0.0025  0.2610
51726W        W94779  17.073  13.759  21.615 -0.2168 -0.4300 -0.0864
51727W        W94780   9.803  15.083  10.679 -0.2019 -0.0147 -0.1256
51728W        W94781   2.810  21.831   7.318 -0.2290 -0.1194  0.2110
51729W        W94782   1.519  15.443   6.140 -0.0134 -0.0923  0.1833
51730W        W94783  11.714  12.908   8.692 -0.1190  0.0624  0.0101
51731W        W94784  21.488  24.473  20.283  0.0736 -0.1140  0.1099
51732W        W94785  29.283   8.458  27.511 -0.0156  0.1415  0.3544
51733W        W94786   7.798  18.084  19.404  0.2242 -0.1942 -0.0895
51734W        W94787  27.859   9.460   9.601  0.0662  0.0358 -0.1369
51735W        W94788  33.832  29.533   9.929 -0.0337  0.0524  0.4248
51736W        W94789   1.776   8.946  23.400 -0.1388  0.3367  0.0474
51737W        W94790  26.645   5.298  23.325 -0.0014 -0.0581  0.1565
51738W        W94791   8.434   2.784   9.018  0.0558 -0.0083  0.1950
51739W        W94792  24.109  20.496   4.679  0.1463 -0.0669  0.5485
51740W        W94793  28.792  18.751  28.502 -0.0501  0.1287 -0.0083
51741W        W94794  34.661  28.908  13.443 -0.0321  0.1177  0.1949
51742W        W94795  26.676   7.674   2.910 -0.1119 -0.1266  0.0555
51743W        W94796   8.937  13.783   4.865  0.0514 -0.0539  0.0062
51744W        W94797   8.095   5.466   8.946  0.1579  0.4063 -0.3522
51745W        W94798  17.639  20.370  21.212 -0.1296  0.4147  0.0664
51746W        W94799   2.410   9.608   5.535  0.4136  0.1914 -0.1885
51747W        W94800  17.703  18.484  25.918 -0.4128  0.1058 -0.2358
51748W        W94801  32.862  26.651   4.509 -0.1189  0.0695 -0.0495
51749W        W94802   4.587  18.575   9.539  0.1518  0.2484 -0.0161
51750W        W94803   0.339   9.320   4.428 -0.0096 -0.0058  0.0572
51751W        W94804   3.363  33.800  24.249  0.0900 -0.0073 -0.0295
51752W        W94805  30.829   2.799  28.900  0.0903 -0.1121  0.1934
51753W        W94806   6.817  32.850   4.337  0.0042 -0.3435  0.1762
51754W        W94807  20.952   7.942  27.999  0.1840  0.0502 -0.1516
51755W        W94808   0.049   5.811  17.580 -0.4650  0.0950 -0.1149
51756W        W94809  34.587  19.552  23.498 -0.1035  0.3386  0.2722
51757W        W94810   9.794   3.722   1.859  0.0652  0.1110 -0.0267
51758W        W94811  21.673  26.457   5.736 -0.1146 -0.1290 -0.4185
51759W        W94812  29.573  20.419  28.733 -0.0215 -0.0854 -0.2045
51760W        W94813  13.876  21.410  26.339 -0.3287  0.1480  0.1364
51761W        W94814   8.223  32.528  22.482 -0.1305 -0.0214 -0.1150
51762W        W94815  26.218   5.850   6.333  0.1920 -0.1042 -0.0582
51763W        W94816  20.409   7.945  14.126 -0.0665  0.0916  0.1886
51764W        W94817  12.043  26.519   4.173 -0.3191  0.0184 -0.1276
51765W        W94818   1.608  33.819   5.140 -0.1579 -0.0096 -0.1043
51766W        W94819   0.219  15.856  20.150  0.2396 -0.1465  0.0793
51767W        W94820   4.665  23.523  28.972 -0.1743 -0.2326  0.0162
51768W        W94821  25.761  13.753   4.894  0.0890 -0.0239  0.1329
51769W        W94822  30.624  13.173  26.877 -0.2710  0.2428 -0.3602
51770W        W94823  34.497  12.182   5.308  0.0922  0.1794  0.2210
51771W        W94824   2.648   9.132   5.756 -0.1714 -0.1227  0.1130
51772W        W94825  31.753  18.285  19.328  0.1404  0.0492  0.0089
51773W        W94826  12.280  23.755   0.148 -0.2586 -0.2105  0.3526
51774W        W94827  27.546   5.089   5.851  0.3623  0.3456 -0.3167
51775W        W94828  10.026   1.152   3.513  0.0614 -0.1988  0.0023
51776W        W94829  12.285   0.156   9.161 -0.1974 -0.1682  0.2264
51777W        W94830  26.250  14.730   4.289 -0.1014 -0.0346 -0.0999
51778W        W94831  28.454  11.280   7.896  0.1943 -0.0449 -0.1303
51779W        W94832  25.060  20.185   7.228  0.0046 -0.1439  0.1967
51780W        W94833  17.593  34.674   8.036  0.1651 -0.0215 -0.0321
51781W        W94834  30.946  26.028  16.596 -0.1457  0.0872  0.0165
51782W        W94835  33.496   8.028  19.623 -0.0744  0.0971  0.1252
51783W        W94836  13.787   8.114  28.204  0.2921 -0.1331 -0.1248
51784W        W94837  12.164   4.128   2.651 -0.3226 -0.1763  0.0888
51785W        W94838  14.191  13.592  28.156  0.0441  0.2337 -0.1181
51786W        W94839  17.406   6.917   8.330  0.1603  0.0430 -0.2667
51787W        W94840  24.733   0.528   9.839  0.1057  0.2852 -0.1931
51788W        W94841  32.574   6.490  21.150 -0.1886  0.1866 -0.3456
51789W        W94842   1.262  29.491   1.754 -0.0595  0.2393 -0.0615
51790W        W94843  21.324  34.662  20.014  0.0665  0.2034  0.0808
51791W        W94844  26.961   3.971   9.825 -0.4111 -0.0283  0.1153
51792W        W94845   7.258  16.430  10.197 -0.3957  0.4180  0.1182
51793W        W94846  28.608  10.472   0.040 -0.0902  0.1558  0.0609
51794W        W94847  29.495  12.296   9.535 -0.0536  0.1476 -0.3256
51795W        W94848  25.997  31.231   7.148  0.0773 -0.0892 -0.1292
51796W        W94849  33.674   5.766  24.220 -0.1295 -0.1849 -0.3759
51797W        W94850  10.425  26.310   5.661 -0.1810 -0.0072  0.1006
51798W        W94851  13.008  23.253   0.101  0.0028 -0.1810  0.2639
51799W        W94852   4.259  13.243  14.562  0.2299 -0.1187  0.1706
51800W        W94853  18.431   4.104  18.952 -0.2007 -0.1400 -0.2209
51801W        W94854  26.848  26.367   8.411 -0.1334 -0.1387  0.2013
51802W        W94855  23.507   6.290  21.825 -0.1975  0.1962 -0.1670
51803W        W94856  26.308  34.269  24.100  0.0678 -0.3577 -0.2703
51804W        W94857  20.759  14.103   6.203  0.2523 -0.0662 -0.0898
51805W        W94858  30.512  11.860   3.803  0.2119  0.1536  0.2965
51806W        W94859  29.460   3.912   8.622 -0.1334  0.2092 -0.1732
51807W        W94860  17.671  19.261  13.596  0.1332 -0.1126 -0.1968
51808W        W94861   9.695  30.246  17.674 -0.0363 -0.1002 -0.1342
51809W        W94862   3.977  11.821   5.285  0.4179  0.1742 -0.1798
51810W        W94863  20.212  11.187  23.573 -0.2998 -0.1096  0.2245
51811W        W94864  27.515  31.071  26.400  0.2702 -0.1426  0.0903
51812W        W94865  15.369  21.990   1.295  0.0533 -0.0867 -0.0257
51813W        W94866  24.157  12.620  27.076 -0.3038  0.3712  0.1716
51814W        W94867   1.021   0.950   7.183 -0.1621 -0.3511  0.0406
51815W        W94868   0.714  11.161   1.199 -0.0457 -0.1053  0.1107
51816W        W94869  28.707  32.340   6.355 -0.0235  0.0956  0.0128
51817W        W94870  28.935  10.850  15.481  0.0056 -0.1119  0.3022
51818W        W94871  28.532  18.036  25.406  0.4786  0.0568 -0.1314
51819W        W94872  27.734   5.626   7.662 -0.0982 -0.2084 -0.0407
51820W        W94873  24.876  14.459  20.705  0.1116  0.3050  0.2532
51821W        W94874   2.961   2.005  19.051 -0.1670 -0.0523 -0.1434
51822W        W94875   7.436  21.278   3.918  0.0521 -0.2815  0.1124
51823W        W94876  23.620   1.503   5.605 -0.2184  0.3594 -0.3509
51824W        W94877  27.582  34.516   0.895 -0.0459  0.0648 -0.2938
51825W        W94878  28.957   1.074   5.850 -0.1517 -0.2141  0.2433
51826W        W94879  14.565   0.534   6.048  0.0985 -0.0139  0.1908
51827W        W94880   6.768  29.078  17.999  0.0885  0.1076  0.0777
51828W        W94881  28.702  17.724   2.615  0.2063 -0.0222  0.1661
51829W        W94882  27.525  10.476  26.869  0.3569  0.0624  0.0606
51830W        W94883  32.536   2.402   5.060  0.2598 -0.1308  0.0586
51831W        W94884  32.111   6.044   7.508  0.1021 -0.0253  0.3488
51832W        W94885   0.776  21.417   2.750  0.0442  0.0495  0.2071
51833W        W94886  31.270  19.846  17.029 -0.0655  0.1213 -0.0305
51834W        W94887   5.685   6.621   3.474  0.1629  0.0651 -0.3027
51835W        W94888  33.630  11.874  16.384 -0.0262  0.2736 -0.0019
51836W        W94889   2.894  29.082   5.075  0.0380 -0.0230  0.0601
51837W        W94890  33.188   2.515  20.825 -0.0956 -0.0877 -0.5118
51838W        W94891  33.271  33.923   6.145  0.0652  0.0067  0.1628
51839W        W94892  27.703  32.813   7.737 -0.1617  0.0232  0.1560
51840W        W94893  21.051   3.333   8.830 -0.0665  0.0684 -0.3036
51841W        W94894  31.246   9.673   6.079  0.0708 -0.2969 -0.1659
51842W        W94895  22.224  11.017  20.919  0.3052  0.3816  0.0446
51843W        W94896  27.948   1.135   6.154  0.0223 -0.1503 -0.1148
51844W        W94897  27.128  14.996   2.782 -0.1190  0.0124 -0.3857
51845W        W94898  12.540  18.647   9.423 -0.0088 -0.0577 -0.2343
51846W        W94899  11.967  15.058  11.068 -0.1581  0.3518  0.2596
51847W        W94900  29.248  23.155   4.543 -0.0491  0.2504  0.1717
51848W        W94901   1.409  26.936  25.476 -0.2672 -0.0794 -0.2020
51849W        W94902  30.727  15.161   8.337 -0.2389 -0.1262  0.3205
51850W        W94903   2.146  27.648  22.802  0.4753  0.1151  0.0192
51851W        W94904  30.759   9.412   5.973  0.5408 -0.1389 -0.0558
51852W        W94905  33.283   3.265   0.464  0.1273 -0.0216 -0.0158
51853W        W94906  10.771  15.491   2.775 -0.0772 -0.2026  0.0741
51854W        W94907  29.138   1.330   2.779 -0.3364 -0.1921  0.0032
51855W        W94908   8.684  27.128   3.082 -0.2375 -0.0765 -0.2936
51856W        W94909  29.467  15.753   8.022  0.3050  0.2923  0.1817
51857W        W94910  25.341  14.640   7.830  0.0297  0.3334 -0.0476
51858W        W94911  33.681   6.092  25.325 -0.1923  0.0033 -0.0449
51859W        W94912   4.861  27.544   4.429 -0.0030  0.0441 -0.2677
51860W        W94913   4.159   5.841   2.947 -0.1121  0.0327  0.2081
51861W        W94914  11.766  17.926  25.035  0.2213  0.0119 -0.0549
51862W        W94915  10.406   7.912   5.891  0.0529  0.0291 -0.3383
51863W        W94916   1.778  33.194   8.240  0.4023 -0.1161  0.3996
51864W        W94917  28.983   6.175   9.594 -0.2643  0.2243 -0.0395
51865W        W94918   8.927  34.355   5.900 -0.0746 -0.1957  0.0487
51866W        W94919  27.953  12.405   8.501 -0.2653  0.1527  0.2826
51867W        W94920  32.894  31.835   5.860 -0.1962 -0.0141 -0.0337
51868W        W94921  21.694   3.318  27.086 -0.1019  0.1760  0.2605
51869W        W94922  28.500   7.114   8.876  0.0875  0.0889 -0.1438
51870W        W94923   0.969   7.008   7.862  0.1777  0.2525  0.3571
51871W        W94924  31.199   6.760   8.303  0.0642  0.0126 -0.0988
51872W        W94925   0.404  12.002   7.448  0.2416  0.1535 -0.4877
51873W        W94926  33.904  24.455   3.411  0.1499  0.1264 -0.1644
51874W        W94927  26.542  12.380   1.300 -0.2070  0.5424  0.0008
51875W        W94928   1.164   3.542  20.622  0.3995  0.2491  0.3112
51876W        W94929  26.238  29.258  23.594  0.4720  0.3247  0.1733
51877W        W94930  11.106  10.909   0.490  0.1853  0.2055 -0.2016
51878W        W94931  18.307   5.126  23.652  0.0207 -0.2074 -0.0523
51879W        W94932  32.569   0.049  23.830  0.1237 -0.0139 -0.0607
51880W        W94933  30.993   9.579  25.935  0.0317 -0.2339 -0.0286
51881W        W94934   1.708  12.780   8.874  0.0320 -0.2469 -0.0078
51882W        W94935  30.014   3.110  22.828 -0.2267  0.3446  0.2621
51883W        W94936   6.255  33.689   5.790 -0.1413 -0.3025 -0.0501
51884W        W94937  28.143  17.261  15.457  0.3074  0.0227  0.1840
51885W        W94938   5.407   2.754  25.692 -0.2632 -0.2434 -0.0333
51886W        W94939  32.009   8.081   3.577  0.1714  0.0353  0.3729
51887W        W94940  27.444   9.058  24.330 -0.0621 -0.1060 -0.3516
51888W        W94941  33.394   1.875  27.521  0.1200 -0.0677 -0.0315
51889W        W94942  28.362  34.138   2.576  0.0177  0.1809 -0.2199
51890W        W94943  25.995   1.452   4.186 -0.1880 -0.3557 -0.0645
51891W        W94944   1.574  26.579   9.837  0.0968  0.0368  0.2356
51892W        W94945   9.846   4.288   6.471 -0.1278 -0.1023 -0.1673
51893W        W94946  24.779  28.110  28.426  0.1433 -0.2090  0.2615
51894W        W94947  18.741  29.128  29.133  0.0671 -0.0674 -0.0861
51895W        W94948  31.021  11.274   7.570  0.1611 -0.3791  0.0055
51896W        W94949  10.177   0.537   8.937 -0.0147 -0.1743  0.0648
51897W        W94950   9.768  13.820  22.192  0.0623 -0.3336  0.0189
51898W        W94951   9.042  12.758   3.422 -0.0697 -0.2002  0.1018
51899W        W94952  34.072  10.219  25.882 -0.3134 -0.5159  0.2320
51900W        W94953  19.480   7.580   4.754  0.2843 -0.2656 -0.1271
51901W        W94954  23.494   7.461  25.173 -0.1468  0.0253 -0.2035
51902W        W94955  33.130  32.634   3.654 -0.1256 -0.1738 -0.0573
51903W        W94956  25.458   4.019   2.170 -0.0043 -0.3253 -0.1279
51904W        W94957  13.036  15.014   4.598 -0.3884 -0.2197 -0.2628
51905W        W94958  20.821   5.880   5.521 -0.1805  0.0943 -0.0744
51906W        W94959  15.540   7.560   4.655  0.1080  0.1793  0.0863
51907W        W94960  12.088  28.012  28.250 -0.0672 -0.0552  0.1818
51908W        W94961  23.306   4.974   6.867  0.1556 -0.1493  0.0854
51909W        W94962  25.819   0.155  26.524  0.2080 -0.2826 -0.1746
51910W        W94963  13.909   4.762   9.848  0.0397  0.0217  0.1955
51911W        W94964  14.805  24.346   5.854 -0.1712  0.1893 -0.0002
51912W        W94965  34.120  33.736   8.929  0.0440 -0.0856 -0.0103
51913W        W94966  18.688  18.342   6.384  0.0804 -0.2278  0.2439
51914W        W94967   2.884  19.411   8.021 -0.0113 -0.1990 -0.1872
51915W        W94968  27.885   0.707   0.237  0.0970  0.0584  0.2151
51916W        W94969   7.492   5.210  27.367  0.0713 -0.0159 -0.2118
51917W        W94970  32.314   5.736  14.269 -0.0815  0.2720  0.1800
51918W        W94971  16.131   0.929  23.248  0.1143  0.0451  0.0475
51919W        W94972   3.884   8.186   5.859 -0.1420 -0.0479  0.0763
51920W        W94973   3.218  33.089   3.331 -0.0033 -0.1590  0.0947
51921W        W94974   7.867   8.223   8.748 -0.0742  0.4406  0.2220
51922W        W94975   9.484   7.088   8.940  0.1002 -0.2026  0.1336
51923W        W94976  32.292  26.298   2.421  0.2303 -0.2106  0.0549
51924W        W94977  31.822  26.958   1.521  0.0520 -0.0321  0.0755
51925W        W94978   2.375   6.233   9.439  0.2333 -0.1443  0.1973
51926W        W94979  23.651  29.105  22.203  0.1283  0.0316 -0.1873
51927W        W94980  34.477  25.806  19.718  0.2536  0.0979 -0.1982
51928W        W94981   8.833  18.367   4.872  0.3144 -0.1001 -0.0597
51929W        W94982  30.859  20.143   9.378  0.0959 -0.0226 -0.0053
51930W        W94983  33.907   0.913   7.746 -0.0433 -0.2392 -0.2472
51931W        W94984  32.566   2.259   6.876  0.1521  0.2020  0.0831
51932W        W94985  22.065  13.799   2.124 -0.0313  0.0709  0.0197
51933W        W94986  20.058  20.005   2.056 -0.0375 -0.3555  0.3809
51934W        W94987   0.312   8.147   1.993  0.0221 -0.3426  0.1731
51935W        W94988   3.726   7.424   8.751  0.0375 -0.0464  0.0245
51936W        W94989  33.757   7.802  27.911  0.1882  0.1719  0.1653
51937W        W94990  25.280  20.909   3.442  0.0543 -0.1413  0.2655
51938W        W94991   6.586  12.999   5.671  0.2582 -0.3390  0.1527
51939W        W94992  28.793   7.616  24.619  0.0089 -0.2111 -0.1125
51940W        W94993  15.101  14.591   0.535  0.2681 -0.0956  0.4088
51941W        W94994  21.975  28.747  28.358 -0.1774 -0.0391  0.0189
51942W        W94995  10.474   6.669   4.588  0.0435 -0.2509  0.1725
51943W        W94996  32.789   0.332  20.402 -0.0687 -0.3893 -0.0927
51944W        W94997   0.739   6.531   6.274 -0.1458 -0.1149 -0.1890
51945W        W94998  20.951  19.057   3.995  0.3679  0.1557 -0.3797
51946W        W94999   6.643  10.916   2.431 -0.0034 -0.0362  0.1898
51947W        W95000  22.081  17.597   0.775 -0.2231 -0.3554 -0.1544
51948W        W95001  26.378  13.732  20.960 -0.0213  0.1805 -0.0637
51949W        W95002   2.882   5.537  28.663  0.2577  0.1103  0.0389
51950W        W95003  27.055  30.192   1.421  0.0824 -0.1711 -0.4442
51951W        W95004  32.879  11.497   0.531 -0.0548  0.1345 -0.1889
51952W        W95005  29.822  20.470   6.215 -0.0333 -0.1521 -0.0650
51953W        W95006  29.197  25.573   1.134 -0.0426  0.1182 -0.0679
51954W        W95007   2.184   7.021   4.067 -0.0184 -0.1248 -0.2247
51955W        W95008   4.352   0.426   6.412 -0.0938  0.2691  0.1928
51956W        W95009  33.896  10.708   0.628 -0.0977 -0.0826 -0.0522
51957W        W95010   5.422   7.254   2.830 -0.1541  0.0777 -0.0912
51958W        W95011   5.422   0.656   5.093  0.0138  0.0992  0.0693
51959W        W95012   5.860  30.953  27.118  0.5198  0.0841 -0.4003
51960W        W95013  21.287  22.768  24.302  0.0503 -0.2492  0.1092
51961W        W95014   0.545  32.762  18.816 -0.2982  0.1434 -0.1228
51962W        W95015   7.660  18.457  19.009  0.1655 -0.0465 -0.0687
51963W        W95016   2.466  20.341   8.868 -0.0636 -0.3055  0.0030
51964W        W95017  30.525   5.316   7.407  0.0526 -0.1782 -0.1154
51965W        W95018  10.132  13.093   2.668 -0.1020 -0.2190  0.1053
51966W        W95019   8.084  32.224   9.290  0.0906 -0.1877  0.0171
51967W        W95020  28.895  22.597  21.347 -0.0123  0.2263 -0.1044
51968W        W95021  31.734  28.789   8.740 -0.1994  0.1217 -0.3346
51969W        W95022  33.435   1.001   7.617 -0.0967  0.1248 -0.1572
51970W        W95023  16.464   4.564  28.817  0.1997 -0.3290 -0.2190
51971W        W95024   7.895  10.828   7.695 -0.1539 -0.0334  0.0195
51972W        W95025   0.188   3.156   9.328  0.0302  0.0480  0.3941
51973W        W95026   6.198  30.495   9.654  0.3507 -0.1655 -0.1023
51974W        W95027  27.213  18.310   3.553 -0.1205 -0.2626  0.0603
51975W        W95028  29.882  21.760   5.801  0.0125  0.1036  0.2279
51976W        W95029  28.242  32.036   7.517  0.1072 -0.0785  0.2380
51977W        W95030  24.972  25.134   9.407 -0.1154  0.1025  0.0789
51978W        W95031   1.665   3.402  26.542 -0.0332 -0.2915  0.1607
51979W        W95032  16.565  32.201   8.161 -0.0251  0.1679 -0.0651
51980W        W95033  31.254   4.108   8.854 -0.2608  0.1665 -0.0622
51981W        W95034  31.033  17.793   5.204  0.3334 -0.0190  0.1132
51982W        W95035   6.626   3.125   8.418  0.0640  0.2218  0.0973
51983W        W95036  14.237  33.557   9.570 -0.0864  0.0564  0.2786
51984W        W95037  26.676  25.037  28.817 -0.0417 -0.0421 -0.1536
51985W        W95038  21.025   4.605  25.770 -0.0966 -0.0361  0.0763
51986W        W95039   6.950   2.229  10.329  0.1568  0.0746  0.1676
51987W        W95040  22.949  27.668   2.759  0.0112  0.2661 -0.0024
51988W        W95041  21.643   8.119   8.498  0.1460  0.3321 -0.3186
51989W        W95042  23.205  14.772   2.418 -0.0328 -0.1418 -0.0982
51990W        W95043  28.272   3.261   1.367 -0.2413  0.1338  0.1732
51991W        W95044  14.734   3.306   1.270  0.1247 -0.3525 -0.0753
51992W        W95045  23.892   9.213   5.719 -0.0571  0.0347  0.3202
51993W        W95046  12.583   8.662   8.608  0.1160 -0.1065  0.2423
51994W        W95047  27.860   8.612   6.881 -0.2636 -0.4053  0.0519
51995W        W95048  30.392  24.601   5.669 -0.0997 -0.0390 -0.3449
51996W        W95049  26.392   2.481  27.232 -0.0651  0.0946  0.0657
51997W        W95050  31.244   5.855   3.871  0.1144  0.1665 -0.1458
51998W        W95051  18.508  31.325   2.300 -0.1323 -0.2681 -0.0901
51999W        W95052  31.149   3.784   6.689  0.1359 -0.0884  0.2228
52000W        W95053   2.862  34.557   3.529 -0.0260  0.0094  0.1881
52001W        W95054  25.461   8.759   4.990 -0.0204 -0.2395  0.1515
52002W        W95055  12.971  24.032   3.227  0.3022  0.3826  0.1105
52003W        W95056   0.406   3.886  21.876 -0.0227  0.2401 -0.0874
52004W        W95057   5.971  28.543   6.722  0.2918  0.3649  0.1011
52005W        W95058   2.598  32.620   7.840 -0.1153  0.0748 -0.1395
52006W        W95059   2.974  11.189   0.911  0.1594  0.4027 -0.2209
52007W        W95060  26.469  21.583  20.266 -0.3583 -0.0354 -0.1651
52008W        W95061   8.614  26.085  27.753 -0.1147  0.1035  0.0188
52009W        W95062  29.812  22.776  28.474  0.2306 -0.1333 -0.1291
52010W        W95063  23.764   3.589   9.131 -0.1614 -0.2828  0.1068
52011W        W95064   8.474   3.184  18.477  0.0067 -0.1730 -0.2012
52012W        W95065  25.799  33.323  19.089 -0.1080 -0.1651 -0.1921
52013W        W95066   9.812  26.374   6.300  0.0870  0.0293  0.0967
52014W        W95067   8.922   3.131   7.539 -0.3905 -0.0090  0.2333
52015W        W95068  10.658  14.251  10.529 -0.2429  0.2253 -0.1109
52016W        W95069   7.758  33.873  23.250 -0.0468  0.2332  0.1889
52017W        W95070   0.722  33.186   7.229 -0.1894 -0.1395 -0.4066
52018W        W95071   2.897  17.958   6.524  0.1494 -0.0792 -0.0279
52019W        W95072  28.180  13.650   6.075  0.0626  0.2352 -0.3534
52020W        W95073   7.604   3.192   7.304 -0.0785 -0.1593  0.0762
52021W        W95074  33.970   4.147   8.959  0.0387 -0.0162 -0.0889
52022W        W95075  24.871  19.528   9.554  0.0965 -0.0243 -0.1861
52023W        W95076  30.120   4.616   6.148  0.0219  0.2097 -0.0225
52024W        W95077   0.538  34.534  25.256 -0.1252 -0.0138  0.0829
52025W        W95078   8.344  28.513  26.106  0.0498  0.2411 -0.0236
52026W        W95079  34.531  18.367   5.933 -0.0608  0.1486  0.0338
52027W        W95080   1.802  33.863   1.971  0.0869  0.0499  0.1935
52028W        W95081   0.896  18.242   8.527 -0.1291  0.1196 -0.2959
52029W        W95082  32.685  17.131   6.863  0.2450 -0.3829  0.1715
52030W        W95083  18.696   2.302   7.556  0.1312 -0.0146 -0.1874
52031W        W95084   4.088  27.499   8.927  0.1313  0.2371 -0.0453
52032W        W95085  14.279  18.661   1.025 -0.4025 -0.1344  0.0087
52033W        W95086  21.650   7.440  17.684  0.1444  0.0561  0.1073
52034W        W95087  31.440   0.288   4.547  0.3016 -0.3023  0.0931
52035W        W95088   7.375   3.215  10.611 -0.0232  0.1109 -0.4573
52036W        W95089  10.115   6.672  10.504 -0.0431 -0.0366 -0.1346
52037W        W95090   2.277  14.226  26.973  0.0605 -0.0574 -0.1853
52038W        W95091  28.746   7.572  28.110 -0.2570 -0.0425 -0.0291
52039W        W95092  29.655  10.512   4.422 -0.3058 -0.0425  0.1862
52040W        W95093   0.183  24.428   3.524  0.0856  0.2018 -0.4811
52041W        W95094  26.808   2.331   6.103 -0.2351  0.0722  0.0785
52042W        W95095   2.780   1.317  15.380  0.0674 -0.1993  0.1519
52043W        W95096  10.806  24.120  25.788 -0.0623 -0.1848  0.2135
52044W        W95097  21.182   8.318   0.505 -0.2784 -0.2088 -0.1780
52045W        W95098  31.557  10.389  10.392  0.2053 -0.1686 -0.2303
52046W        W95099  32.757   5.394  26.186 -0.0804 -0.0843  0.0785
52047W        W95100  14.695  32.870  27.946  0.0364 -0.1240  0.1794
52048W        W95101  26.235  26.395   1.683  0.1297  0.2502  0.2856
52049W        W95102  10.312  25.794  21.563 -0.0342 -0.2893 -0.3532
52050W        W95103   6.208  23.095   8.818  0.1849  0.1258  0.1706
52051W        W95104  23.282  25.266   1.852 -0.2284  0.0080  0.1167
52052W        W95105  30.838  33.148   7.995  0.2435  0.1492 -0.2075
52053W        W95106  28.355  23.396  25.817 -0.3913 -0.1889  0.1387
52054W        W95107  28.416  28.934  25.246 -0.0252 -0.0294  0.0715
52055W        W95108   0.596   2.184  22.815 -0.1686 -0.0004  0.0777
52056W        W95109  14.730  32.259   0.153  0.0736 -0.0927 -0.0189
52057W        W95110  13.282   7.748  29.056  0.2708  0.0219 -0.2158
52058W        W95111   7.882   1.159   4.170  0.1571 -0.0473  0.0014
52059W        W95112  28.579   3.467   7.438 -0.1292 -0.5432  0.0057
52060W        W95113  34.459  34.591   1.194 -0.3408 -0.0839 -0.0005
52061W        W95114  34.394  15.867   4.366  0.1047  0.0553 -0.3121
52062W        W95115   5.343  27.933   6.096 -0.1502  0.3903  0.2236
52063W        W95116   3.798   8.268   8.100 -0.0600  0.1687  0.1729
52064W        W95117   1.086   6.490  28.473 -0.4473 -0.3547 -0.2429
52065W        W95118  21.622  25.566   5.551  0.0830 -0.0691  0.0433
52066W        W95119  30.766   3.996  23.567  0.2963  0.0027  0.0544
52067W        W95120  26.812  12.177  23.815  0.0910  0.0024  0.1194
52068W        W95121  15.234   9.773   3.273 -0.1068  0.2338 -0.1372
52069W        W95122  21.335  26.163  15.395 -0.1809 -0.0566 -0.3646
52070W        W95123  30.486  10.832   2.273  0.0658 -0.1005 -0.2003
52071W        W95124  15.912  17.649   4.601 -0.0165 -0.0944 -0.3566
52072W        W95125  29.015   8.412  27.946 -0.1053 -0.1088  0.0505
52073W        W95126   2.710  21.982  28.940 -0.2308  0.2965  0.1345
52074W        W95127   1.517  25.979   5.981 -0.1515  0.0551 -0.0385
52075W        W95128  25.676  11.592  28.635  0.1356 -0.1630  0.1296
52076W        W95129  24.750  12.885   4.005 -0.0571 -0.2355  0.2481
52077W        W95130  26.256   0.200   4.652 -0.2970 -0.3321  0.3237
52078W        W95131   8.882  11.669   4.033 -0.0830  0.2241 -0.0931
52079W        W95132  28.950  14.144   3.766 -0.4487  0.0416  0.1596
52080W        W95133   4.147   5.197   6.436  0.5581 -0.4007  0.2223
52081W        W95134   6.284  30.502   7.647  0.0433  0.1829  0.1870
52082W        W95135   6.114  14.469  25.455 -0.1441  0.1693  0.0111
52083W        W95136  19.709  13.665   2.160  0.0885  0.1530  0.0537
52084W        W95137   3.734   3.115   2.848  0.1894 -0.1336 -0.1458
52085W        W95138  28.410  11.368  25.599 -0.2063 -0.5766 -0.0919
52086W        W95139   5.643  29.708   3.440  0.0280  0.1056 -0.1733
52087W        W95140  29.518  26.314   5.513  0.0727 -0.1640  0.4145
52088W        W95141  28.875  19.692  20.171  0.4822  0.3778  0.3697
52089W        W95142  10.845   4.976  21.229  0.0810  0.0297  0.0404
52090W        W95143   8.072  11.968   3.699 -0.1093  0.3465  0.0462
52091W        W95144  29.939  12.185   9.103  0.0716 -0.3135  0.1086
52092W        W95145  26.139  14.006   4.890  0.0427 -0.1246  0.1578
52093W        W95146  30.271   7.040  24.612 -0.0181  0.0443 -0.0214
52094W        W95147   9.009  31.176  24.082  0.0378  0.2372  0.3593
52095W        W95148  31.554   6.384  28.512  0.0878  0.0535 -0.2726
52096W        W95149   2.767  22.799   4.674 -0.1308 -0.2300  0.1572
52097W        W95150  21.257  12.818  18.232 -0.0298  0.4637 -0.0787
52098W        W95151   7.030   4.920   0.096 -0.0385 -0.3800 -0.0027
52099W        W95152  28.044  32.772   6.725 -0.0499  0.1738  0.2048
52100W        W95153   6.584  18.340   3.695  0.1018 -0.1248 -0.0839
52101W        W95154  10.936  30.556   8.466 -0.1259 -0.1203  0.0590
52102W        W95155   7.859   5.705   3.944 -0.2513 -0.4451 -0.2548
52103W        W95156  32.267  10.314   1.104  0.1234 -0.3627  0.3349
52104W        W95157  30.599  32.576   6.628  0.3197  0.0495  0.3455
52105W        W95158  10.416  13.835  10.726  0.4195  0.2566 -0.2591
52106W        W95159   1.467   1.947  28.850 -0.3341 -0.2662  0.1961
52107W        W95160  24.091   8.826   9.115  0.2343  0.2595  0.0506
52108W        W95161  31.896   9.613  28.859  0.2791 -0.1473 -0.0788
52109W        W95162  17.968   6.947  27.485  0.2311  0.2037 -0.1667
52110W        W95163  19.228  14.846   5.622  0.2713 -0.3196 -0.4699
52111W        W95164  27.239  20.946   9.119  0.2663 -0.2363  0.0482
52112W        W95165   2.954   1.730   4.623 -0.1564 -0.0813  0.3293
52113W        W95166   0.192   6.530   2.687  0.1071  0.0168 -0.1291
52114W        W95167   7.282   8.894  19.371 -0.2032 -0.1298  0.1865
52115W        W95168  30.522   4.667   2.778 -0.0609 -0.0916  0.1886
52116W        W95169   3.181  11.149   3.273 -0.1079  0.0371 -0.0233
52117W        W95170  33.372  16.775   5.602  0.3484 -0.0238 -0.1412
52118W        W95171  21.649  10.198  21.571 -0.0215  0.0617 -0.3117
52119W        W95172  13.530  19.276   8.669  0.1340 -0.3767  0.1353
52120W        W95173  16.440  23.265  23.846  0.0716 -0.1259 -0.4873
52121W        W95174  31.576   7.231   6.278 -0.2047  0.0265  0.2658
52122W        W95175  17.466  11.155  24.683 -0.1556  0.3466  0.1876
52123W        W95176  32.305  10.712  24.212  0.1949  0.0504 -0.3603
52124W        W95177  16.489  33.203   1.189  0.2704  0.0800  0.0947
52125W        W95178   9.686   9.019   2.564  0.0963 -0.0159  0.2066
52126W        W95179  11.268  12.123   7.667  0.0208 -0.1321 -0.0737
52127W        W95180  28.859  14.884  23.453 -0.1499  0.1403  0.0879
52128W        W95181  28.252  18.014   4.874  0.0431  0.1304 -0.3229
52129W        W95182  30.036   4.576  15.509 -0.1421 -0.1033 -0.1723
52130W        W95183   9.795  21.631  28.259  0.1542  0.0178  0.0991
52131W        W95184  22.409   9.631   5.982 -0.0881  0.0196 -0.0229
52132W        W95185  22.009   8.693   8.579  0.0894 -0.3188  0.0753
52133W        W95186   4.297   9.794   9.356  0.2257 -0.1074 -0.3906
52134W        W95187  26.125  31.118   5.531  0.0943 -0.2184  0.0111
52135W        W95188   5.995  17.929   6.563 -0.1973 -0.2572  0.1485
52136W        W95189  26.604  20.969   3.714 -0.1927  0.1767  0.0147
52137W        W95190  28.483  16.213   5.951 -0.2501  0.0574 -0.1115
52138W        W95191  25.943  13.312  21.810  0.1902 -0.0084  0.2529
52139W        W95192   4.665  16.281  16.092  0.2630 -0.1197 -0.2095
52140W        W95193  30.923   8.892  25.770 -0.3758 -0.1979  0.1596
52141W        W95194   6.667  30.664  22.551  0.0755 -0.1196 -0.1932
52142W        W95195  29.879  10.509  25.571 -0.2028 -0.2071  0.0733
52143W        W95196  30.388   1.003  17.433 -0.0750 -0.1366 -0.1368
52144W        W95197  12.953   8.103  27.346  0.1586 -0.1299  0.3328
52145W        W95198  27.772  19.995  18.482  0.0175 -0.1446  0.2357
52146W        W95199   6.625  17.684  27.652 -0.2161 -0.0800  0.2317
52147W        W95200  18.264   6.971  20.416 -0.0442 -0.0078  0.0466
52148W        W95201  19.527   2.593   6.354  0.1016 -0.0228  0.1213
52149W        W95202  33.599  33.382  17.357 -0.2875 -0.0093 -0.1191
52150W        W95203   6.763  14.942   8.419 -0.3358 -0.0388 -0.1148
52151W        W95204  33.130  21.520   4.387  0.2635 -0.1905 -0.1976
52152W        W95205  30.517  19.829   9.234 -0.1830 -0.1962  0.2621
52153W        W95206   1.728  32.837   6.076 -0.3098 -0.1998 -0.1074
52154W        W95207  14.798  13.601  22.981 -0.3360  0.0556  0.2090
52155W        W95208  28.123   7.013   9.355 -0.1944 -0.1117  0.2166
52156W        W95209  33.160  12.207  15.603  0.2379  0.1252 -0.0666
52157W        W95210  32.008   6.910  28.147  0.0966  0.0630  0.2546
52158W        W95211   2.127  30.623  21.347  0.0796  0.1459  0.1114
52159W        W95212  12.020  18.308  27.306  0.0544 -0.1794  0.1049
52160W        W95213  22.905  18.784   0.800 -0.0833  0.0922 -0.1228
52161W        W95214   1.612  16.278  23.439  0.1975  0.0849 -0.1991
52162W        W95215   2.531  29.154   0.420  0.2092  0.1305  0.0693
52163W        W95216  28.541  10.884  25.732 -0.1108  0.0494 -0.2151
52164W        W95217  31.372   4.216   7.610  0.1065  0.3851 -0.1121
52165W        W95218   2.487  16.234  28.209 -0.2834  0.3302  0.0190
52166W        W95219  25.111  34.620   1.057 -0.0206 -0.3044  0.0818
52167W        W95220   3.030  16.046   2.129  0.0464  0.0186  0.3042
52168W        W95221  28.534  17.698  27.950 -0.4567  0.0390  0.0397
52169W        W95222  26.074  21.561   2.512  0.1012 -0.2975  0.1967
52170W        W95223   7.355  10.239  29.059  0.0380  0.0984  0.1059
52171W        W95224   6.252  19.373  22.049  0.1609  0.1082  0.0261
52172W        W95225  17.553   7.305  19.226  0.0882  0.0754 -0.2494
52173W        W95226  24.665  26.812  20.853 -0.3495  0.0610  0.1712
52174W        W95227  20.920   8.764   8.254 -0.1630  0.0342 -0.2008
52175W        W95228  34.464  18.003  23.018  0.2157 -0.0282  0.0943
52176W        W95229  32.515   9.117  18.251 -0.1511 -0.3391  0.0670
52177W        W95230   1.444   3.718  26.045  0.3321 -0.2233  0.2112
52178W        W95231  16.798  10.908   6.398 -0.3088  0.0391 -0.1282
52179W        W95232  33.381  16.029  21.185 -0.2124 -0.0161 -0.0432
52180W        W95233  24.692   4.057   6.364 -0.0765 -0.0037  0.0535
52181W        W95234   6.572   3.771   6.083  0.4102 -0.1779 -0.0958
52182W        W95235  29.821  16.340   8.650  0.0336 -0.2211  0.2062
52183W        W95236  14.269   8.435  23.378  0.0526  0.0352  0.1087
52184W        W95237  26.941   8.979   7.261  0.0197  0.0110  0.3241
52185W        W95238  30.280  17.069  23.582 -0.2422 -0.2434 -0.1896
52186W        W95239   8.599   7.545   9.515  0.2155  0.5546  0.1050
52187W        W95240   9.738  14.745   1.637  0.1503 -0.3072 -0.3318
52188W        W95241   7.273  12.739  25.547 -0.1075 -0.0520  0.1880
52189W        W95242  17.643  23.118   3.121  0.1609  0.1492  0.2117
52190W        W95243  29.059  24.470  22.818 -0.3048  0.1523 -0.4856
52191W        W95244   5.170   2.654   5.548 -0.2513  0.1866 -0.3388
52192W        W95245  32.313  34.159   0.330 -0.1657  0.3242  0.1988
52193W        W95246  14.505  21.678  26.102  0.0543  0.4397 -0.0432
52194W        W95247  33.109  12.202   6.429  0.1234 -0.1400  0.1700
52195W        W95248   8.818  34.080  27.343  0.2089 -0.4445  0.1714
52196W        W95249   5.162  22.047   6.378 -0.1278 -0.2509  0.0817
52197W        W95250  34.349  27.071  23.856  0.1272  0.1599 -0.0633
52198W        W95251  24.588  26.404  23.695  0.2067  0.1835  0.0417
52199W        W95252   8.621   7.410  10.113  0.2107  0.1737  0.2810
52200W        W95253  25.827  18.662  27.552 -0.3291  0.0712 -0.2008
52201W        W95254   7.967   6.938  17.338 -0.0575 -0.1270 -0.1828
52202W        W95255   7.453  27.704  16.786 -0.1007 -0.2631 -0.2792
52203W        W95256   0.736   8.748  21.427  0.1194 -0.0536 -0.0639
52204W        W95257  16.846  16.459  26.571 -0.3031  0.2207  0.0582
52205W        W95258   6.008  24.320   4.657  0.0724  0.0518  0.1008
52206W        W95259  22.910  31.297   6.940  0.2651  0.1029  0.2119
52207W        W95260  27.196  24.713   8.752  0.1650  0.1821  0.3851
52208W        W95261  26.397   5.531   3.955 -0.0014 -0.0958 -0.1385
52209W        W95262   1.257  19.513  22.929  0.0043  0.2237 -0.3719
52210W        W95263   9.666  21.150   5.935  0.0335 -0.1733  0.0059
52211W        W95264   3.156  32.800   2.220  0.0782  0.0776 -0.0195
52212W        W95265   3.132   7.325  26.709  0.0064 -0.1081  0.0521
52213W        W95266  25.430  29.308  29.167  0.1296  0.0962 -0.1459
52214W        W95267  30.265   6.954  27.844  0.3165 -0.1068 -0.1825
52215W        W95268  34.308  18.053  21.414 -0.1259 -0.2323 -0.1187
52216W        W95269  23.202   6.362   4.999 -0.1241  0.2911  0.0945
52217W        W95270  19.400   3.643   0.559  0.1649 -0.1691  0.0554
52218W        W95271   3.584   3.542  28.501 -0.2674 -0.1149 -0.1056
52219W        W95272   0.264   2.970   8.347  0.2232  0.0720  0.0486
52220W        W95273   0.045   8.276   6.171 -0.0644 -0.0752 -0.1785
52221W        W95274  22.276  16.468  27.698  0.2232  0.0190 -0.2132
52222W        W95275  30.126   6.318   4.934 -0.1391  0.0880  0.4164
52223W        W95276  29.696   8.350   3.068  0.0579  0.2408 -0.0517
52224W        W95277   1.899   8.401   3.095 -0.0145  0.2057 -0.0605
52225W        W95278  33.680  11.415   9.935  0.2532 -0.0181 -0.1199
52226W        W95279  31.667  33.792   8.921  0.0048  0.1134 -0.0335
52227W        W95280  14.576  13.450  10.186 -0.1845  0.0718 -0.1679
52228W        W95281  32.295   1.654  28.097  0.0593  0.1601  0.0556
52229W        W95282  27.962  16.222   8.306  0.0230  0.3974  0.1497
52230W        W95283  31.958   4.339  27.690 -0.0742  0.2531  0.1820
52231W        W95284  29.245  30.718  28.219 -0.1876  0.2794 -0.1551
52232W        W95285  31.039  27.676  28.304  0.2259  0.0468 -0.2475
52233W        W95286  34.524  12.888   8.186 -0.0362  0.3535  0.1672
52234W        W95287   7.113  12.143   0.819  0.2343  0.3584  0.1372
52235W        W95288  25.100  15.372   5.490  0.0382 -0.1384 -0.0053
52236W        W95289   4.207  22.386  25.571 -0.1552 -0.1337 -0.1305
52237W        W95290  20.524  21.070   8.662  0.0035  0.0868 -0.2870
52238W        W95291  19.478  16.036   1.924  0.1431 -0.0921 -0.0078
52239W        W95292  24.580   6.795   7.912 -0.3590 -0.2914  0.0914
52240W        W95293  25.938   7.872   8.969 -0.0807 -0.2557  0.0263
52241W        W95294  26.405   8.689   4.791 -0.1831  0.3633  0.0433
52242W        W95295   7.301  19.644   3.058  0.2407  0.0595  0.4139
52243W        W95296  31.644  15.228   4.732  0.3447  0.3365 -0.1055
52244W        W95297  21.810  10.140   7.614  0.1120  0.1021 -0.1668
52245W        W95298  22.783   7.585  26.251  0.1121  0.0763  0.0701
52246W        W95299  28.747  14.786  28.259  0.0200  0.1615 -0.0694
52247W        W95300  32.490  24.534   0.566  0.1256  0.1718 -0.5234
52248W        W95301  17.370   9.356   1.466 -0.2174 -0.3714  0.3844
52249W        W95302  12.675  14.339  24.428 -0.1920 -0.0233  0.2022
52250W        W95303   5.512  29.005   7.649 -0.2588  0.4094 -0.1652
52251W        W95304  26.732  26.307   9.213  0.0397  0.1351 -0.0091
52252W        W95305   2.394  10.799  26.621 -0.5095  0.3570 -0.2062
52253W        W95306  12.824  32.294   3.874  0.1851 -0.0903  0.0635
52254W        W95307  14.170  23.590   4.187  0.1044  0.0022  0.0150
52255W        W95308  33.484  24.178  19.205 -0.0053 -0.2224 -0.0299
52256W        W95309  31.055   4.453  23.767 -0.0989  0.0055 -0.1276
52257W        W95310  30.179  22.106   5.159 -0.0145 -0.1713  0.0846
52258W        W95311  28.442  16.429  23.466  0.3327  0.0566 -0.1023
52259W        W95312   3.832   7.315   9.585 -0.3977 -0.0491  0.1278
52260W        W95313  20.866   8.312   6.546  0.2031 -0.3814 -0.1978
52261W        W95314   5.141  30.795   6.057 -0.0196 -0.0817 -0.1187
52262W        W95315   2.975  24.934   0.105 -0.1263  0.0331 -0.2122
52263W        W95316   8.138  33.115  25.442 -0.0288  0.5572  0.0897
52264W        W95317   5.595  23.364  27.762  0.0475  0.0394  0.1698
52265W        W95318   8.441  19.663  10.226 -0.1360  0.1571 -0.0041
52266W        W95319  24.988   4.589   9.753 -0.1910  0.0975  0.1984
52267W        W95320  16.184  20.349   0.460 -0.5696  0.1700 -0.2036
52268W        W95321   2.775  28.151   0.498  0.3416  0.0751  0.1061
52269W        W95322  23.799  21.632  24.780 -0.1710  0.1845  0.0693
52270W        W95323  23.552  12.481  27.960 -0.0864 -0.0614  0.3135
52271W        W95324  23.192   0.002   8.010 -0.1450 -0.1761  0.1856
52272W        W95325  25.050  25.031  22.455 -0.1067  0.0644  0.1311
52273W        W95326  23.606  21.189  24.165 -0.1059 -0.0073  0.0627
52274W        W95327  24.795  34.148  10.882 -0.0250  0.1593  0.0240
52275W        W95328  22.377  21.126  25.634  0.0086 -0.0350 -0.2203
52276W        W95329  21.794  25.063  27.950  0.2817 -0.2545 -0.0164
52277W        W95330  28.957   9.709  10.496 -0.3793  0.1887  0.3369
52278W        W95331  12.768   6.667   1.333 -0.2932  0.0766 -0.0652
52279W        W95332  30.521  14.220  26.258 -0.1421 -0.1776 -0.1340
52280W        W95333  32.316  11.361  10.165 -0.2326  0.0024 -0.0492
52281W        W95334   2.855  26.428  19.317 -0.2553 -0.1051 -0.5355
52282W        W95335  16.142  15.546  22.802 -0.2135 -0.1230  0.3662
52283W        W95336  23.070  12.086   2.283 -0.0621  0.1322 -0.0489
52284W        W95337   1.114  26.318  29.142 -0.0547 -0.1750  0.2122
52285W        W95338  10.092  16.619  20.020 -0.0336 -0.2265  0.0435
52286W        W95339   0.402  16.538   5.592 -0.1617 -0.0209 -0.1933
52287W        W95340  10.419   4.425   9.266 -0.2435 -0.0559 -0.1577
52288W        W95341  12.702  32.948  20.591  0.0814 -0.1161  0.0604
52289W        W95342  17.572   4.880  25.658  0.0974  0.1690  0.0303
52290W        W95343   4.102  14.689  13.387 -0.0248  0.2744 -0.0461
52291W        W95344  34.011  12.368  22.596  0.2545 -0.4755  0.0549
52292W        W95345  33.041  32.678   4.159  0.1403 -0.0751 -0.0862
52293W        W95346  24.385  12.337  25.635  0.0105 -0.0239 -0.0613
52294W        W95347  26.267   8.667  28.342 -0.0286  0.1878  0.2518
52295W        W95348  29.675  15.740  22.051 -0.0989  0.3798 -0.1029
52296W        W95349  21.132  30.535   9.398  0.2833 -0.3432  0.0638
52297W        W95350  27.490   7.516  24.063  0.2433 -0.1007 -0.0712
52298W        W95351  31.920   0.048   7.779  0.0394 -0.0033  0.0536
52299W        W95352  31.460   3.285  27.550 -0.1317  0.3721  0.1571
52300W        W95353   3.681  20.411   2.967  0.0404 -0.1810 -0.1977
52301W        W95354   3.263  29.404   4.757 -0.1258 -0.1001 -0.0370
52302W        W95355  12.892  31.978   2.689 -0.2287 -0.2537 -0.2836
52303W        W95356   9.983   1.984   1.920  0.0095  0.2917  0.0210
52304W        W95357  31.483  30.386  23.074 -0.0502  0.1472  0.2365
52305W        W95358   4.661   7.040   8.477  0.0301  0.2306  0.0932
52306W        W95359  27.028  17.836   1.488  0.0640  0.3239 -0.2590
52307W        W95360  29.037  21.389   6.366 -0.0614  0.1942  0.0956
52308W        W95361  33.706  16.748  24.529 -0.0932 -0.3787  0.3254
52309W        W95362  33.372  13.864   6.461 -0.1082  0.1161  0.3220
52310W        W95363  15.649  31.827  28.658 -0.0240 -0.3715  0.3179
52311W        W95364   1.714  10.467   7.558  0.1240  0.1467 -0.2960
52312W        W95365   1.166   4.164   7.526 -0.0542  0.2171  0.1409
52313W        W95366  30.820  23.162   7.078 -0.0028  0.0627  0.0307
52314W        W95367  31.354  31.350   5.041 -0.2885  0.1294  0.1824
52315W        W95368   0.245   0.512   7.417 -0.0720 -0.0040  0.0473
52316W        W95369   0.017  19.004   6.785  0.0513  0.0187 -0.0738
52317W        W95370  31.630   5.500  27.425  0.2190  0.0337  0.1215
52318W        W95371  23.275   7.653   4.054  0.0141 -0.0489 -0.4750
52319W        W95372  32.812   4.727   8.447  0.1338  0.2178  0.0594
52320W        W95373  33.329  20.954   8.214 -0.0563  0.1123  0.2576
52321W        W95374  34.220   5.578   6.611  0.1615  0.1564 -0.0004
52322W        W95375   7.256  12.581  10.262 -0.2603 -0.2046 -0.1276
52323W        W95376  26.233  16.481  27.979 -0.2608  0.2704  0.1947
52324W        W95377  28.732  31.769   6.085  0.3425 -0.0293  0.2598
52325W        W95378  28.203  10.216  20.529  0.2544 -0.0555  0.1803
52326W        W95379   8.531   9.569   5.405  0.0116 -0.0333 -0.1128
52327W        W95380  16.839   5.073  26.921 -0.2051  0.0211 -0.2052
52328W        W95381   7.169  22.181   4.014 -0.2178 -0.0784 -0.1681
52329W        W95382  17.736   3.457   5.309  0.2289 -0.1530 -0.1219
52330W        W95383  17.010   6.032   3.369  0.1524  0.0219 -0.1014
52331W        W95384  13.138  20.613  17.891 -0.2408  0.0037  0.1133
52332W        W95385  30.979   1.512  28.200  0.1323 -0.0548 -0.1481
52333W        W95386   3.643   1.201  25.485 -0.4123  0.0655 -0.1105
52334W        W95387   8.538   4.279  10.261 -0.2491 -0.0027  0.0976
52335W        W95388   9.240  28.219   6.285 -0.0285 -0.0170  0.2767
52336W        W95389   8.824  16.447   8.630  0.2700 -0.0783 -0.0820
52337W        W95390  21.133  13.230  22.064 -0.1032 -0.1141  0.1537
52338W        W95391  29.029  16.418  24.014 -0.0461 -0.0907 -0.0264
52339W        W95392  10.957  25.659   6.813 -0.2823 -0.0391 -0.2653
52340W        W95393   2.994   1.000   9.838 -0.2193  0.1729 -0.3319
52341W        W95394  24.745  14.331   0.441 -0.3472  0.0826  0.0310
52342W        W95395  31.441  27.360   0.179  0.1032  0.1980  0.2513
52343W        W95396  26.493   2.942   4.374  0.1675 -0.0137  0.5018
52344W        W95397  13.594  16.554  17.919 -0.0747  0.0696  0.3492
52345W        W95398  24.534   0.344  10.899  0.0984 -0.0954  0.1288
52346W        W95399   7.603  30.715   5.749 -0.0289 -0.3497  0.2469
52347W        W95400  25.644  22.847   7.488 -0.5346  0.0629 -0.0747
52348W        W95401  15.147  12.634  23.337 -0.4558  0.0737 -0.2812
52349W        W95402  22.651   8.009   9.659  0.0011  0.1068 -0.0321
52350W        W95403  10.624  34.069  28.680  0.3501 -0.0551  0.1602
52351W        W95404  28.681   9.013   5.981  0.0556 -0.1299  0.1599
52352W        W95405  33.549  29.004   7.519  0.1167  0.0726 -0.3334
52353W        W95406   5.026   2.445  19.758 -0.1712  0.1857 -0.1314
52354W        W95407  24.797  22.194  26.985  0.3538 -0.0688 -0.3263
52355W        W95408  11.473  28.832  20.017 -0.2990  0.0385  0.2923
52356W        W95409  27.771  32.136   7.141 -0.0596  0.5606  0.1023
52357W        W95410  13.249   0.332   1.346  0.0089  0.3605 -0.0678
52358W        W95411  34.421  15.879   5.036  0.0530 -0.0739 -0.0447
52359W        W95412  31.931  12.784  16.378 -0.1158  0.0907  0.2020
52360W        W95413   2.432  19.801   8.693  0.2297  0.0001 -0.2256
52361W        W95414  15.768   3.718   3.145 -0.0591  0.0390 -0.3591
52362W        W95415  24.382   4.646   5.909  0.2141  0.1029  0.1507
52363W        W95416  33.510  10.494  16.247 -0.2124 -0.2106  0.0258
52364W        W95417   4.071  34.506   6.536 -0.0399  0.0790 -0.1393
52365W        W95418  26.370   9.877  23.404  0.3435 -0.1480  0.0555
52366W        W95419  19.045   4.358  26.602 -0.0215  0.0599 -0.2103
52367W        W95420   9.899   2.346  28.652  0.2233 -0.0152 -0.2090
52368W        W95421   5.904   5.507   9.534 -0.0468  0.0949 -0.0591
52369W        W95422  31.425   8.261   9.193 -0.2864 -0.0090  0.2746
52370W        W95423   3.930   4.897   4.471 -0.1529 -0.0643 -0.3065
52371W        W95424  16.691   7.109  27.753  0.0390 -0.0616  0.2435
52372W        W95425  18.461   7.649  24.945  0.0291  0.0091 -0.1948
52373W        W95426   8.105  32.117   6.579  0.0189  0.3106 -0.3942
52374W        W95427   1.542  12.661   2.544  0.1117  0.0520 -0.0504
52375W        W95428  29.338   7.449  27.213  0.0837  0.1843  0.1653
52376W        W95429   8.658   8.356  19.088  0.1272  0.0770 -0.1995
52377W        W95430  17.037  10.847   1.507 -0.2748 -0.1006 -0.1464
52378W        W95431  19.495  10.623   8.296 -0.0490  0.0844  0.1420
52379W        W95432  32.237  15.078  19.903 -0.0732 -0.3512  0.3812
52380W        W95433   7.622   8.372   4.750  0.0401 -0.0649  0.0493
52381W        W95434  23.437  13.470   6.149  0.0796 -0.3939 -0.0925
52382W        W95435   1.518  30.772  19.811 -0.3396 -0.0341  0.0957
52383W        W95436  33.806   8.347  26.342  0.0278 -0.1986 -0.1176
52384W        W95437  24.482   9.840   6.284 -0.3276 -0.0939  0.2537
52385W        W95438  23.661  28.802   1.067 -0.1265 -0.0052  0.1927
52386W        W95439  32.185  11.200   8.319 -0.1316  0.1328  0.0668
52387W        W95440  24.225  20.196  22.842  0.1986 -0.1064 -0.2091
52388W        W95441   5.424   3.214  21.679  0.0164 -0.1014 -0.0545
52389W        W95442  25.791  14.398   9.535  0.0029  0.2456 -0.1253
52390W        W95443  21.213   6.085   8.697 -0.1059  0.3287  0.0441
52391W        W95444   4.929  15.411  24.761  0.1195  0.0306 -0.1981
52392W        W95445  23.333  13.071  24.997  0.0887 -0.4208  0.2864
52393W        W95446  13.506  24.898  23.901  0.2861  0.0594  0.2022
52394W        W95447   8.850  30.298   7.593 -0.2129  0.0030  0.1222
52395W        W95448  12.965  26.820   5.827  0.2070 -0.1685  0.2190
52396W        W95449   0.505  12.448   4.830 -0.2139 -0.1344 -0.2077
52397W        W95450  10.518   1.157   7.278  0.3411 -0.3143  0.0793
52398W        W95451  27.711   2.781  21.236 -0.0497  0.0637  0.0752
52399W        W95452  29.644   9.067   4.294  0.1988  0.2228  0.0240
52400W        W95453  13.965  17.991  27.332  0.0649 -0.2400 -0.1022
52401W        W95454   8.732  31.298  25.452  0.1379 -0.1957  0.1707
52402W        W95455   8.876  28.839  23.627  0.1314 -0.2680  0.1544
52403W        W95456  25.895  19.102  27.179 -0.3063  0.0879 -0.1201
52404W        W95457   6.797  34.303   1.322 -0.1157  0.1228 -0.0227
52405W        W95458  22.563   4.651   4.750 -0.0603  0.4658 -0.1757
52406W        W95459  23.212  28.121  21.464  0.0397 -0.0284  0.2418
52407W        W95460  30.003   7.880   4.814 -0.2420  0.2596  0.1569
52408W        W95461  30.285   0.598   9.056  0.0878  0.0126 -0.2601
52409W        W95462  31.056   5.340   3.528 -0.0990 -0.0792 -0.0005
52410W        W95463  10.734  19.634   1.458  0.5565  0.2670  0.4294
52411W        W95464  20.409   9.077   7.644  0.0048 -0.0039 -0.0234
52412W        W95465   1.135  34.239   9.113  0.1186 -0.1013 -0.0267
52413W        W95466   9.400   9.546   0.731  0.1887  0.1635  0.1159
52414W        W95467   5.873  12.543  21.188  0.0085 -0.0547  0.0291
52415W        W95468   4.203  34.141   2.281  0.1116  0.2757 -0.1680
52416W        W95469  31.170  30.339  14.387 -0.0970  0.2024  0.0899
52417W        W95470   4.672  31.971   0.897  0.0962  0.0815 -0.1195
52418W        W95471  22.795   8.825  20.026  0.0121  0.1628  0.3674
52419W        W95472  10.170  33.568   5.595  0.1805 -0.2912  0.3230
52420W        W95473  16.177   8.718   1.838 -0.1981  0.0752  0.2884
52421W        W95474  26.561   7.981   9.325  0.2658 -0.0535 -0.0069
52422W        W95475   1.399   3.604  23.584  0.3128  0.0563 -0.1923
52423W        W95476  33.282  12.656   5.692  0.1978  0.2795  0.2088
52424W        W95477  21.664  28.232  10.219  0.0421  0.0536  0.2197
52425W        W95478  10.738  15.064   1.666  0.0191  0.0228  0.1535
52426W        W95479  30.854  28.863  17.392  0.1168  0.0944  0.2351
52427W        W95480   4.325   3.409   9.182  0.0817 -0.0415  0.0004
52428W        W95481  29.105  12.452  19.067  0.0068  0.2690 -0.0358
52429W        W95482  10.352   8.696   5.513  0.0661 -0.1828 -0.0440
52430W        W95483   5.636   0.879  25.489  0.1087 -0.0600  0.1470
52431W        W95484  16.620  24.179  17.878  0.0457  0.1984 -0.1330
52432W        W95485   2.345  33.805   8.938  0.1144  0.0484  0.1849
52433W        W95486   0.690  11.544  26.761  0.2550 -0.0316 -0.2420
52434W        W95487   3.700   0.561  26.756  0.0370  0.2039 -0.4244
52435W        W95488   1.998   5.652   8.341  0.0025  0.0873 -0.1970
52436W        W95489  30.136  13.364   9.923 -0.1375 -0.0910 -0.0541
52437W        W95490  32.956  32.034   7.414  0.0767  0.0828  0.0898
52438W        W95491  30.120  12.769   8.090 -0.0305  0.0714  0.0157
52439W        W95492   6.192  23.426  27.444 -0.2992 -0.1890 -0.0868
52440W        W95493  21.186   8.243   3.472 -0.0645  0.2200 -0.0846
52441W        W95494  31.208  21.327   2.182  0.1210 -0.0921  0.0324
52442W        W95495  21.890  33.430  28.286  0.1346 -0.0473  0.0588
52443W        W95496  28.275  13.590   2.790 -0.1028  0.3401  0.1366
52444W        W95497  12.369   6.876  24.559  0.0211 -0.0208  0.1362
52445W        W95498  26.930  13.682  24.283  0.0011  0.2331  0.1962
52446W        W95499  25.374   7.091  25.562 -0.1124  0.3092  0.1666
52447W        W95500   8.788  17.458  28.165 -0.1470  0.0431  0.0573
52448W        W95501  13.508  13.162  25.890 -0.2311  0.0282  0.2087
52449W        W95502   7.557   4.279  23.877 -0.2225 -0.0479 -0.2679
52450W        W95503  25.180   2.001  22.006  0.0984  0.0954  0.3435
52451W        W95504  21.779  15.027   4.327 -0.2991 -0.0466 -0.0446
52452W        W95505   1.276   4.992  25.790  0.3514 -0.2228 -0.1305
52453W        W95506   1.344  24.285   7.249  0.2343 -0.0052  0.0344
52454W        W95507  34.580  11.731   2.317 -0.1306 -0.1134  0.0326
52455W        W95508  31.558  11.206  19.728 -0.1296  0.0290 -0.2225
52456W        W95509  34.187  20.773   7.998  0.1424 -0.1677 -0.2282
52457W        W95510  34.529   8.462   9.605  0.1776 -0.2009  0.1203
52458W        W95511   2.379   1.479  20.074  0.0231 -0.0688 -0.0086
52459W        W95512  23.301  32.352   3.207  0.0462  0.1411  0.0836
52460W        W95513  10.610   9.485   4.436  0.1057 -0.0753  0.1188
52461W        W95514  25.268   5.982   7.457 -0.0554  0.0010  0.0242
52462W        W95515  14.493   9.693   7.806 -0.3798  0.3086  0.1610
52463W        W95516  22.454  31.466  27.191  0.0016 -0.3086 -0.2991
52464W        W95517  14.397  14.625   8.817  0.0773 -0.1810  0.2477
52465W        W95518  22.928  17.551   9.708  0.1758  0.2033  0.0624
52466W        W95519  33.054  15.019  15.807 -0.1283  0.0385  0.2652
52467W        W95520  11.517  12.714   9.227  0.0514 -0.0430  0.0525
52468W        W95521  16.084  16.868   6.000 -0.0957 -0.2907 -0.1305
52469W        W95522  13.850  26.980   6.062 -0.0243 -0.2043  0.0730
52470W        W95523  28.152   2.945   8.167  0.3422 -0.0762  0.1110
52471W        W95524  25.503   6.401   7.510 -0.1974 -0.3826  0.1799
52472W        W95525  23.644   6.844  20.201 -0.1279 -0.2375  0.0984
52473W        W95526  29.628  31.088  26.257  0.2261 -0.0211 -0.0846
52474W        W95527  33.394   1.495  20.514  0.0566  0.1103  0.2953
52475W        W95528   5.198  28.199   4.915 -0.0822  0.0442 -0.1569
52476W        W95529  27.359   3.457  27.569 -0.0375  0.5177 -0.1662
52477W        W95530  27.167   7.095   9.449  0.0507  0.0154 -0.1288
52478W        W95531   6.391  20.932   8.886  0.0307  0.0073 -0.0796
52479W        W95532  31.394   3.444  10.195  0.0438  0.1033 -0.3778
52480W        W95533   2.878   5.734  25.095  0.0096 -0.2284 -0.0745
52481W        W95534  11.042  34.202  24.848  0.2334  0.2149  0.3846
52482W        W95535  27.627  12.603  21.548 -0.0457 -0.3722 -0.1469
52483W        W95536  10.568  10.240   6.492 -0.2646  0.1332  0.0208
52484W        W95537  34.397  12.525  25.767 -0.0549 -0.0158  0.3317
52485W        W95538  27.830  10.620  23.005  0.0417  0.3443  0.1117
52486W        W95539  24.485   4.152   5.910  0.0871 -0.0893 -0.1182
52487W        W95540  15.954  14.820  26.870  0.4880  0.2128  0.1893
52488W        W95541  23.346  10.294   7.015  0.0492 -0.2112 -0.4361
52489W        W95542  19.837  10.120  23.396  0.0424  0.1258  0.1436
52490W        W95543  22.555   6.386   4.363  0.1797 -0.0758 -0.3097
52491W        W95544  20.880   9.804  28.436  0.1853  0.2962  0.1026
52492W        W95545   2.448  24.838  23.622  0.1259 -0.3669  0.1537
52493W        W95546  32.494   5.234  21.937 -0.0752  0.3356 -0.0325
52494W        W95547  22.824  24.202   9.134  0.0965  0.1160  0.3144
52495W        W95548  24.058  26.655   1.457  0.0488 -0.1429 -0.0263
52496W        W95549  32.176  20.124   3.784 -0.0219 -0.3139  0.2454
52497W        W95550   3.249  15.302   9.031  0.1847  0.2451 -0.1933
52498W        W95551   6.827  21.343   5.261  0.0901 -0.0435 -0.2580
52499W        W95552  24.081  24.060   7.626  0.1077 -0.0829  0.2183
52500W        W95553  33.119  30.720   9.305  0.1509 -0.1504  0.1702
52501W        W95554  14.322   5.836  26.753  0.1188  0.2087  0.0775
52502W        W95555  20.913  14.755   3.273 -0.0316  0.1801  0.2897
52503W        W95556  14.333   4.623   7.260 -0.3253 -0.4668 -0.1467
52504W        W95557   2.938   2.214  26.382 -0.2326 -0.0797 -0.2409
52505W        W95558  26.911   8.329   8.317 -0.0306 -0.2462 -0.2051
52506W        W95559  11.222   9.787   8.689 -0.0884 -0.0528  0.0562
52507W        W95560  32.356   2.700   6.069 -0.2959 -0.1670 -0.0924
52508W        W95561  34.275   6.992   0.356  0.3512  0.0092 -0.2990
52509W        W95562  29.559  12.742   9.782 -0.2868  0.1549 -0.2266
52510W        W95563  33.388  26.200   1.276 -0.3155 -0.3351 -0.0849
52511W        W95564  23.506   4.877  28.890 -0.2043  0.0018 -0.1941
52512W        W95565  21.063  13.824   5.633  0.3029  0.1189 -0.2580
52513W        W95566   0.729  10.110   8.225 -0.0090 -0.0293 -0.0916
52514W        W95567   0.405  15.003   3.644  0.0024  0.0436  0.1381
52515W        W95568  29.338  26.852  23.388  0.0181  0.2084 -0.0702
52516W        W95569  30.042   8.682   5.124 -0.0374 -0.2952  0.1309
52517W        W95570  28.481   8.227   8.212 -0.0319  0.0838  0.2431
52518W        W95571  20.905  11.536  28.125 -0.2416  0.2630 -0.0069
52519W        W95572  31.632   9.044   8.249 -0.3543 -0.0924  0.2317
52520W        W95573   2.383   3.940  28.604  0.2351 -0.0841 -0.0055
52521W        W95574  29.036   2.966   9.344  0.3553 -0.0068 -0.0671
52522W        W95575  32.895   7.302   0.889  0.3075 -0.0631 -0.1982
52523W        W95576  25.058  13.135   0.052  0.1273 -0.1424 -0.4834
52524W        W95577  20.430  30.877   3.544 -0.2351  0.2591 -0.4918
52525W        W95578   4.924  19.136   3.866  0.0236 -0.1541  0.1326
52526W        W95579  21.395   9.676  22.987  0.0522 -0.1288 -0.1485
52527W        W95580   7.386   4.838   7.361 -0.0201  0.1127  0.1327
52528W        W95581  21.754   1.085   6.976 -0.2486  0.1500 -0.1866
52529W        W95582  26.396  10.743  10.832 -0.0986  0.1144  0.3169
52530W        W95583  31.185  22.632   9.259 -0.0473  0.0095 -0.0264
52531W        W95584   5.451  31.286   2.867 -0.1059 -0.0781  0.1960
52532W        W95585  26.645  11.475   8.736  0.0231  0.0518  0.1125
52533W        W95586   4.058  33.872   8.735  0.2879  0.0775 -0.2194
52534W        W95587   3.954   4.412  24.149  0.0821 -0.0557 -0.1658
52535W        W95588  34.154   3.350   0.765  0.1055 -0.0001 -0.0374
52536W        W95589   3.877  10.717   6.336  0.0278 -0.1076 -0.1109
52537W        W95590  31.313  15.579  10.322  0.0712  0.0905  0.1829
52538W        W95591  31.297   3.092   4.943  0.4929 -0.0001 -0.3756
52539W        W95592  29.356   7.805   3.965  0.1145 -0.1379  0.0565
52540W        W95593  22.889   2.415   8.873  0.2838 -0.2956 -0.1935
52541W        W95594   0.543  24.135   4.344  0.0468 -0.0762  0.0787
52542W        W95595   4.268  16.588   5.345  0.0005  0.1019  0.0295
52543W        W95596  20.587   9.689   8.273 -0.0740 -0.0978 -0.0843
52544W        W95597  29.126  12.021   5.744  0.1668  0.0566 -0.0166
52545W        W95598   4.589  17.285   5.736  0.0443  0.2023  0.0053
52546W        W95599   9.024   4.442   5.254 -0.0987  0.1116  0.1172
52547W        W95600  21.422  15.340   7.017 -0.1720  0.1640  0.1559
52548W        W95601   8.354   7.603  28.344  0.0001 -0.1410  0.0971
52549W        W95602  33.501   8.603   7.291 -0.0703  0.0367  0.1935
52550W        W95603  28.485   9.006  10.850  0.0217  0.1425 -0.2098
52551W        W95604   8.281  30.294   9.585  0.1796 -0.0145  0.2062
52552W        W95605  18.120  13.210   1.984  0.0747  0.0590  0.0879
52553W        W95606  19.844   7.562  10.442 -0.2390  0.2154 -0.3016
52554W        W95607   5.320  31.673   8.762 -0.0550  0.3065 -0.0213
52555W        W95608  11.887  11.211   8.180  0.1459  0.2570 -0.1530
52556W        W95609  28.644   7.339   6.669  0.0417 -0.0637 -0.0654
52557W        W95610  22.206  34.253   6.391 -0.0841  0.3896 -0.1164
52558W        W95611  24.747  23.354  21.624 -0.0684  0.0111 -0.1296
52559W        W95612  24.468   5.069  23.021 -0.1370 -0.0829 -0.1128
52560W        W95613  29.355  19.966  20.997 -0.2142  0.0493  0.1432
52561W        W95614  13.160   8.021   8.523  0.1255  0.1458 -0.4887
52562W        W95615  29.655   2.142   2.572 -0.1863 -0.5093  0.0677
52563W        W95616  14.085  15.063  10.405 -0.0978 -0.2451  0.0374
52564W        W95617   1.030   8.043   6.372 -0.0680  0.2517 -0.0452
52565W        W95618   6.518   1.980  25.594 -0.2786  0.3026  0.1602
52566W        W95619  29.459  10.959   6.207  0.0492 -0.3659  0.3243
52567W        W95620   4.594  23.829   7.368  0.0916  0.1191  0.1534
52568W        W95621  32.740   5.250   4.016 -0.0637  0.0176  0.1083
52569W        W95622   8.365  14.707   4.685 -0.2900  0.1183 -0.0382
52570W        W95623  23.930   9.842   8.960 -0.0749  0.1981 -0.1070
52571W        W95624   0.864   7.086   7.359  0.0307 -0.2012  0.0535
52572W        W95625  25.549   0.671   5.050  0.1948 -0.2500  0.2564
52573W        W95626   2.271   1.133  26.128  0.0984 -0.3272  0.1857
52574W        W95627  19.171  12.174  28.759  0.0963  0.0205 -0.0129
52575W        W95628  12.377   5.541   6.208  0.0572  0.1256 -0.0381
52576W        W95629   0.765   8.348   2.245 -0.1239 -0.2680  0.0688
52577W        W95630  33.243   0.956   7.000 -0.1634 -0.3069 -0.1067
52578W        W95631  30.544  13.287  29.112 -0.0066  0.1436  0.0655
52579W        W95632   3.185   1.431  28.725  0.1183 -0.0595  0.4113
52580W        W95633   8.239   5.420   5.500  0.1583  0.0507 -0.0712
52581W        W95634   9.800  10.069   2.877 -0.1408  0.2910  0.1920
52582W        W95635  21.047  28.579  28.280  0.1473 -0.1538  0.1870
52583W        W95636  17.576  31.077  28.371 -0.4354  0.0146  0.2920
52584W        W95637  23.642  13.098   6.946  0.0428  0.1759 -0.5835
52585W        W95638  16.671   7.373   4.736  0.0012 -0.0188  0.0997
52586W        W95639  31.758  25.149   3.865  0.0082  0.2181  0.1660
52587W        W95640  27.435  14.085   7.182  0.3208 -0.1641 -0.4141
52588W        W95641   2.809   7.005   0.320 -0.2621  0.1644  0.0378
52589W        W95642  21.161  13.994   7.948 -0.1597  0.1534 -0.0075
52590W        W95643  30.105   3.841   8.332  0.3109  0.1289  0.2121
52591W        W95644  32.248  13.120   8.074  0.2119 -0.1430  0.0968
52592W        W95645   0.425  14.167  17.365  0.2001 -0.0523 -0.1810
52593W        W95646  11.269  12.776  17.238 -0.1576 -0.0209 -0.3452
52594W        W95647  17.532  27.102   8.678 -0.2060 -0.0251  0.0300
52595W        W95648  29.493  34.058   4.527 -0.0020 -0.2735  0.1027
52596W        W95649  22.623  17.097   5.991 -0.0962 -0.0958  0.2332
52597W        W95650  30.176  30.379  24.090  0.3534 -0.2093  0.2120
52598W        W95651   9.846  24.731   8.674 -0.2107  0.0896  0.1219
52599W        W95652   8.250  20.761  24.112 -0.2004  0.0661 -0.1439
52600W        W95653   0.345  11.802   6.968  0.1818  0.2504 -0.2121
52601W        W95654  16.018  22.069   0.405  0.1665 -0.0050  0.0498
52602W        W95655  21.935  27.808  10.140 -0.0619  0.0026 -0.0111
52603W        W95656  31.448   4.353   9.745 -0.2740  0.0595 -0.1616
52604W        W95657  23.776   1.584   4.710  0.0465 -0.2026 -0.1586
52605W        W95658  28.964  14.105   9.447  0.0964 -0.1975  0.2353
52606W        W95659  29.062  31.605   2.847  0.0573  0.2471 -0.1014
52607W        W95660  26.054  12.703  19.062  0.1055  0.0544  0.1746
52608W        W95661   4.280  34.365   5.610 -0.3346 -0.2286  0.0787
52609W        W95662  33.997   0.793  15.868 -0.5516  0.3242 -0.1691
52610W        W95663  16.057   0.153   9.084 -0.0666  0.2204  0.3596
52611W        W95664   6.744   8.027  24.687  0.0223  0.1146  0.0308
52612W        W95665   0.953   9.281   6.764 -0.4596  0.2369  0.0387
52613W        W95666   5.260  34.610   7.403 -0.0946 -0.0583 -0.0251
52614W        W95667  28.243   0.340   8.722  0.0207 -0.1513  0.0349
52615W        W95668  29.432   1.739   8.992  0.1050 -0.1560  0.3649
52616W        W95669  32.262   8.187  27.621  0.1696  0.3424 -0.2029
52617W        W95670  29.476   7.152  25.012 -0.1297 -0.0306  0.1572
52618W        W95671  25.970  13.436   1.233  0.3196  0.1035  0.1995
52619W        W95672  25.715  16.909  19.551  0.1382 -0.1531 -0.2196
52620W        W95673   2.582   0.763  25.642 -0.3396  0.1774  0.2249
52621W        W95674  12.689   3.917   3.517 -0.1658 -0.0322  0.3328
52622W        W95675  11.713  32.462  10.430  0.1850 -0.1261  0.0112
52623W        W95676  27.388   8.896   2.864 -0.2605 -0.0269 -0.0248
52624W        W95677   5.167  18.901   1.442 -0.0385  0.0540  0.2886
52625W        W95678  19.421   5.077   8.202  0.1058 -0.2078  0.1267
52626W        W95679   1.283  15.218   6.497 -0.2845 -0.0931 -0.1011
52627W        W95680  20.284  24.755   3.089 -0.1955  0.1152  0.1378
52628W        W95681   2.778  28.736   0.324  0.0408  0.0055 -0.2981
52629W        W95682  27.425  16.222   8.516  0.3123  0.0798 -0.0189
52630W        W95683  11.982   6.558   1.226  0.1355  0.3307  0.1559
52631W        W95684   9.011   2.652  10.467 -0.0654  0.0678  0.1217
52632W        W95685  25.505   6.117   0.302  0.1738 -0.2018 -0.3138
52633W        W95686   1.984  34.360  25.908  0.2311 -0.0124 -0.0194
52634W        W95687  27.516   7.817   7.104  0.0645 -0.2537 -0.2703
52635W        W95688   6.218  10.513   1.804 -0.2480  0.1760  0.1448
52636W        W95689  25.861  10.560   5.011 -0.1656 -0.2092  0.2891
52637W        W95690  17.203  18.354   4.146  0.2072  0.0043 -0.0341
52638W        W95691   3.207  12.720  28.419 -0.1724 -0.0812 -0.4296
52639W        W95692  23.997  15.816   4.914 -0.2572 -0.0016  0.0340
52640W        W95693   1.077   6.250  24.692 -0.2547  0.1984 -0.0098
52641W        W95694  20.437  31.682  27.587  0.1557 -0.0419 -0.1846
52642W        W95695  23.473  15.328  22.740  0.1559 -0.2835  0.3062
52643W        W95696   4.704  14.575   2.893 -0.1103  0.0696  0.1465
52644W        W95697   2.431  32.984   1.113  0.2997  0.1756  0.1169
52645W        W95698  25.734  24.867   7.892  0.3383 -0.0106 -0.0753
52646W        W95699   0.382  15.757   9.127  0.0903 -0.1424 -0.1476
52647W        W95700   2.991   1.556  25.989  0.1238  0.0333 -0.2197
52648W        W95701  11.290  31.945   3.561 -0.0710 -0.0913  0.0007
52649W        W95702  26.753  12.997   5.182 -0.0215 -0.0098  0.0865
52650W        W95703  14.812   3.814  23.008 -0.3175  0.0363 -0.3840
52651W        W95704   3.728  33.902   4.483 -0.1593  0.1710 -0.0492
52652W        W95705  24.510   1.855   9.780 -0.2293  0.1516  0.0634
52653W        W95706  27.969   4.180  27.278  0.0553  0.0124  0.1857
52654W        W95707  24.814  15.964   3.857  0.0634  0.0080  0.2023
52655W        W95708  19.983   1.353   6.732 -0.3250  0.1086  0.1587
52656W        W95709   2.241   4.012   3.684 -0.0129  0.0496 -0.0028
52657W        W95710  18.474   5.799  28.893  0.0353 -0.1398  0.1565
52658W        W95711   3.476  31.480  28.104 -0.0173  0.1960 -0.1517
52659W        W95712  25.100  19.959  28.811 -0.0179  0.1442 -0.0124
52660W        W95713  14.023  27.831   7.933 -0.0398 -0.2685 -0.2675
52661W        W95714  22.304  28.847   7.412 -0.0330 -0.2253 -0.2434
52662W        W95715   2.615   7.723   7.613  0.0405 -0.0246  0.1983
52663W        W95716   4.886   2.888   2.929  0.2274 -0.0423  0.2351
52664W        W95717  31.437  12.805   6.318  0.0275  0.2420 -0.1536
52665W        W95718  33.562  24.926   2.116  0.0679 -0.0188  0.0188
52666W        W95719  29.828  12.513   6.162 -0.2217  0.4606  0.0912
52667W        W95720   8.976   2.719   7.210 -0.1185  0.1215 -0.0199
52668W        W95721  22.918   4.693  26.093  0.3322 -0.0528 -0.2994
52669W        W95722  17.021  11.454   6.355 -0.3360  0.0567 -0.0364
52670W        W95723   4.347   5.242  20.547 -0.3174 -0.1776  0.0125
52671W        W95724   7.491   8.725  25.407  0.0432 -0.2143  0.0987
52672W        W95725  33.917  12.257  29.144  0.0059 -0.5302  0.1580
52673W        W95726  33.090  10.677   3.150  0.1882 -0.0164 -0.0291
52674W        W95727   6.805   9.646  20.108  0.2503 -0.0452  0.4073
52675W        W95728  12.486   6.671   8.864  0.0496  0.1550  0.0905
52676W        W95729   4.399   9.589   8.215  0.2817 -0.1650 -0.0308
52677W        W95730   0.890   3.113  10.116  0.0721 -0.1151 -0.1269
52678W        W95731  29.173  17.606   1.576  0.0999  0.0522 -0.0757
52679W        W95732   5.030  10.710  24.469  0.0053 -0.0393  0.0236
52680W        W95733   1.210  19.159  27.500 -0.1481 -0.1907  0.1921
52681W        W95734   1.233   3.932  10.269 -0.5225  0.2543 -0.0899
52682W        W95735   2.762  22.183  26.610 -0.0668  0.0043  0.0232
52683W        W95736  16.795   9.328  15.658 -0.0446  0.2072  0.0351
52684W        W95737  30.477  14.749  17.871 -0.3845 -0.1930 -0.1541
52685W        W95738   6.486  21.122  23.156 -0.1204  0.3621  0.2260
52686W        W95739  17.163  11.869   1.888  0.2997 -0.0479  0.0262
52687W        W95740  28.725   8.706   2.312 -0.0762  0.0636 -0.2110
52688W        W95741  13.670   1.620  28.632  0.1544 -0.0735 -0.0793
52689W        W95742  21.247  28.686  23.850 -0.0444  0.1532  0.0377
52690W        W95743  32.980   6.547   8.414  0.0081 -0.2730 -0.1029
52691W        W95744  30.919   5.826  26.493 -0.2126  0.2969  0.0029
52692W        W95745  32.532  12.988  15.441  0.2837  0.0273 -0.0821
52693W        W95746   1.998  29.911  23.667  0.2200  0.0258  0.0154
52694W        W95747  26.109   4.161   9.422  0.2995 -0.2148  0.2472
52695W        W95748   7.737   7.912   6.927 -0.0073 -0.0174  0.2197
52696W        W95749   3.538  17.912  25.063  0.1316  0.0091 -0.1742
52697W        W95750  22.824  17.952  25.821 -0.1233  0.4906 -0.1931
52698W        W95751  20.968  22.922   8.473 -0.0676  0.1587 -0.3236
52699W        W95752  32.469  23.119  28.108  0.2776 -0.3302  0.2037
52700W        W95753  29.840   3.027  20.710 -0.2278  0.3668 -0.1337
52701W        W95754  22.254  30.044  27.227  0.0912  0.0715  0.1171
52702W        W95755  27.008  13.065  28.895 -0.1644 -0.1361 -0.2502
52703W        W95756  20.469  11.079  27.418  0.0285  0.0046  0.1115
52704W        W95757   6.303   8.252  25.071  0.0324  0.0957  0.0305
52705W        W95758   3.872  15.094  22.082 -0.1645  0.0068 -0.1197
52706W        W95759  30.882  23.627  26.629 -0.1622 -0.0693 -0.2909
52707W        W95760  16.615  20.080  25.716  0.0546 -0.4731  0.2243
52708W        W95761   1.156   4.551  27.223  0.2899  0.0161  0.0812
52709W        W95762  33.937  10.423   0.060 -0.0474 -0.1874 -0.2873
52710W        W95763  28.360   7.710   0.427  0.0164 -0.3851 -0.1204
52711W        W95764  27.564  12.725   7.614 -0.2335  0.3438  0.0104
52712W        W95765  23.434  15.300  18.107 -0.1618 -0.2637  0.2193
52713W        W95766   3.275  21.930  10.197 -0.0103 -0.2829  0.1596
52714W        W95767   4.295  14.303   9.925  0.0385  0.2676 -0.1336
52715W        W95768  24.586  15.742   1.765  0.1345  0.0233 -0.3678
52716W        W95769  24.447  16.417  14.902  0.1721  0.0718  0.0970
52717W        W95770  32.396  16.539   0.183 -0.0346  0.1295  0.2596
52718W        W95771   0.941  14.627  22.816 -0.1665 -0.3220 -0.1083
52719W        W95772  34.374  12.180   0.228  0.1004  0.3122 -0.0007
52720W        W95773  18.887   3.418   9.228  0.0760 -0.1943  0.4533
52721W        W95774  30.292  12.719  17.724 -0.2712 -0.1291  0.0367
52722W        W95775  30.507  21.079   6.553 -0.0318 -0.2571 -0.0096
52723W        W95776  26.615  24.871   8.961  0.0638  0.1902  0.0806
52724W        W95777  22.041  15.129   9.414 -0.2872  0.0453  0.1289
52725W        W95778  32.581  18.553   9.013  0.0514  0.1901 -0.1526
52726W        W95779  22.733   5.548  25.874 -0.1523  0.0131  0.0856
52727W        W95780   7.210  16.984   2.726  0.2790 -0.1019 -0.0757
52728W        W95781  21.358  31.738   5.207 -0.2795 -0.2602  0.1591
52729W        W95782  31.380  23.199   9.974  0.3823 -0.3063  0.2801
52730W        W95783  19.836  34.023   6.907 -0.1773 -0.3026 -0.2184
52731W        W95784  30.250  17.319   9.762  0.0680  0.0649 -0.0020
52732W        W95785   3.137  15.221   8.383  0.2938  0.0173  0.2075
52733W        W95786  25.496  29.833   8.547 -0.0120 -0.1142 -0.0015
52734W        W95787  13.250  14.921  21.963 -0.1635  0.1603 -0.0884
52735W        W95788  27.333  33.262   5.073  0.4438  0.3642 -0.2866
52736W        W95789   1.514  10.991  28.247  0.1097 -0.0530  0.0182
52737W        W95790  26.068  16.170   9.779  0.0837  0.0633  0.1243
52738W        W95791  32.834  15.386  18.392 -0.0887  0.1806  0.2425
52739W        W95792   4.842  15.226   0.078 -0.0121  0.1529 -0.2656
52740W        W95793  29.867  15.294  28.435 -0.0323 -0.0412 -0.0245
52741W        W95794  29.821  24.435   1.963 -0.2159  0.1027 -0.0729
52742W        W95795  20.593  19.409  24.567 -0.0533  0.0025 -0.0846
52743W        W95796  17.314  12.517   2.623  0.1758 -0.0337 -0.1798
52744W        W95797   2.468  32.427   4.696 -0.1422  0.1683  0.0757
52745W        W95798   5.629  12.904   9.917  0.0430 -0.2747 -0.1602
52746W        W95799  27.863  15.628   5.540  0.0732  0.0963  0.1316
52747W        W95800  12.126  17.131   6.097 -0.2164  0.0664  0.0760
52748W        W95801  19.559  24.691  10.072 -0.2406 -0.0819  0.1316
52749W        W95802  13.521  14.176  25.307 -0.3641 -0.1537  0.1716
52750W        W95803  12.122  19.264  25.587  0.1544 -0.0578  0.0409
52751W        W95804   0.989  10.092  26.672 -0.4132  0.0368 -0.1096
52752W        W95805   7.072  28.918   6.854 -0.1019  0.1485  0.1171
52753W        W95806   4.611  18.074   0.367  0.1504  0.1763 -0.0408
52754W        W95807  22.674   9.583   2.719  0.1197  0.1212 -0.0761
52755W        W95808  32.809  25.854  18.574  0.1980 -0.1428 -0.1096
52756W        W95809  12.759  10.336  25.083  0.0609  0.1346 -0.0713
52757W        W95810  14.128  32.911   7.575  0.1507  0.0266 -0.1106
52758W        W95811  14.751   6.519   0.892 -0.1142  0.0359  0.0258
52759W        W95812  32.748  21.473   3.562 -0.2610  0.2053  0.1368
52760W        W95813  21.895  19.908  21.778 -0.1925 -0.2571 -0.1238
52761W        W95814  15.010   3.976   2.088  0.3580 -0.1746  0.1998
52762W        W95815  14.288  33.802   7.076  0.0182 -0.1482 -0.0612
52763W        W95816  34.168   0.629   7.239  0.2272 -0.3396 -0.1057
52764W        W95817   7.679  15.051   2.524 -0.0907 -0.0919  0.0627
52765W        W95818  10.287  11.582  19.109 -0.0237 -0.0162 -0.0597
52766W        W95819  13.280  27.236   9.123 -0.1661  0.0212 -0.0715
52767W        W95820  32.967  17.191   5.485  0.0616 -0.1476 -0.1609
52768W        W95821   0.379  10.166  21.365 -0.0063  0.4575 -0.1337
52769W        W95822   0.136  26.651  22.122 -0.2825 -0.0761 -0.1540
52770W        W95823   0.972   5.580   6.739  0.2334 -0.1422 -0.4645
52771W        W95824  34.020  16.160   2.703 -0.2092  0.1932  0.2026
52772W        W95825  30.625  22.003  16.186  0.4114  0.0881  0.1070
52773W        W95826  29.042  18.521  27.530 -0.0418  0.2211 -0.0049
52774W        W95827  20.534  10.134  21.481 -0.3516  0.1464  0.3479
52775W        W95828  11.984  20.495   3.949 -0.4315  0.2649 -0.1666
52776W        W95829  13.156  25.941   5.826 -0.0956 -0.0605 -0.2839
52777W        W95830   3.113  31.575  26.148 -0.2616 -0.0174 -0.0754
52778W        W95831  10.702  11.365   8.994  0.0987  0.0644  0.3800
52779W        W95832   8.241  13.323   9.984  0.0459 -0.1608 -0.3612
52780W        W95833   1.923  23.557   7.344  0.0250  0.0499 -0.0124
52781W        W95834   9.052  29.289   3.448  0.5324 -0.0310 -0.1128
52782W        W95835  34.086  18.509  28.750  0.0335 -0.1230 -0.1484
52783W        W95836  24.257   9.801  27.951 -0.2789  0.2987 -0.3064
52784W        W95837   4.239   3.496   3.191  0.1857 -0.0933  0.0573
52785W        W95838   3.294  21.408  20.594  0.1891 -0.0332 -0.0059
52786W        W95839   8.272  17.761  24.467  0.4432  0.0917 -0.1195
52787W        W95840  23.794   8.586   1.113 -0.0412  0.1329  0.0900
52788W        W95841   7.363  14.031   8.358  0.3278  0.3942  0.1984
52789W        W95842  18.816  21.769   5.227  0.3698 -0.0736 -0.2374
52790W        W95843  34.386   2.015   7.978 -0.0101 -0.5194  0.1278
52791W        W95844   1.536  16.956   3.440 -0.0389 -0.3253  0.2632
52792W        W95845   1.035  19.690   2.961  0.1675 -0.0009  0.2300
52793W        W95846  23.674  17.572   4.488 -0.0138 -0.0794  0.3170
52794W        W95847  32.713   3.785   4.703 -0.0312 -0.0009 -0.0353
52795W        W95848   5.284  12.521  10.174 -0.1451  0.0553 -0.1282
52796W        W95849  30.343  15.838   1.392  0.3044  0.0208  0.1195
52797W        W95850   7.215  17.526  26.987  0.3448  0.1761 -0.0293
52798W        W95851  30.222  30.131  23.139  0.0283 -0.1252  0.0377
52799W        W95852  33.216  22.009   8.658 -0.2207 -0.0347  0.2312
52800W        W95853  23.439  12.708   1.196  0.0044  0.0872 -0.0492
52801W        W95854   6.015  10.813   6.165 -0.1394  0.1190  0.1141
52802W        W95855  15.852  22.539  18.594 -0.1051  0.2084 -0.0041
52803W        W95856  25.924  24.646   1.364  0.1709 -0.2973  0.2108
52804W        W95857  19.757   4.580  23.859 -0.1255  0.0621 -0.0829
52805W        W95858  30.800  15.867  28.849  0.0227 -0.1025  0.2761
52806W        W95859  28.735   8.531   1.476 -0.0730  0.1905 -0.0517
52807W        W95860  11.574  22.531  18.296  0.0824  0.3971  0.1034
52808W        W95861   5.830  20.963   7.804  0.0543  0.2437  0.3188
52809W        W95862  26.773   0.589   5.842  0.0341 -0.0766 -0.1714
52810W        W95863  28.264  32.755   2.229 -0.4382  0.1442  0.0344
52811W        W95864  14.940  27.999   9.765  0.0087 -0.4029  0.1091
52812W        W95865  23.148   5.500   4.534  0.0249 -0.3656 -0.3235
52813W        W95866  32.804  11.134   6.921 -0.3354  0.0228 -0.1976
52814W        W95867   2.281   4.198  24.300 -0.1954 -0.1262 -0.0438
52815W        W95868  21.736  16.780   0.775  0.0222 -0.3135 -0.1022
52816W        W95869  33.937   1.579  19.855 -0.0395 -0.1888  0.0856
52817W        W95870  33.849   2.101  17.327  0.0142 -0.0616 -0.1262
52818W        W95871   3.563   3.206   9.567 -0.1727  0.0775  0.0033
52819W        W95872  23.097  19.823  26.189  0.2557 -0.3545  0.0192
52820W        W95873   8.794  19.004   6.142  0.1778  0.1078 -0.2982
52821W        W95874  25.767  26.369   2.465  0.2084  0.1887 -0.2434
52822W        W95875  24.340  27.046   1.211  0.1218  0.0399 -0.1544
52823W        W95876   9.075  10.899  14.714  0.0130  0.2405  0.0998
52824W        W95877  14.116  20.789  18.714  0.1995  0.0362  0.3167
52825W        W95878  10.630  17.792  24.532  0.2396  0.1304 -0.1061
52826W        W95879  21.858  16.013  16.394 -0.1367  0.0370 -0.1335
52827W        W95880  10.375  24.133   9.591  0.1116  0.1319 -0.0512
52828W        W95881  15.732   7.417  27.375  0.1686  0.0052 -0.1971
52829W        W95882   4.087  21.799   1.727 -0.0425 -0.0522 -0.1501
52830W        W95883  25.317  13.369  28.177  0.3487  0.1595  0.3363
52831W        W95884  10.694   8.507  26.338 -0.1915 -0.3799 -0.0606
52832W        W95885   5.190  19.145  23.075  0.1098 -0.0791  0.0071
52833W        W95886  28.425   3.436   0.228 -0.0297  0.0791 -0.1041
52834W        W95887   6.828  13.907   0.946  0.1802 -0.2297  0.0898
52835W        W95888  28.601  12.092   2.898  0.0761  0.2372  0.3089
52836W        W95889  11.933  27.514  15.300  0.1546 -0.1008 -0.0812
52837W        W95890  29.841  16.442  26.081  0.0982  0.1968 -0.2662
52838W        W95891   3.850  24.076   4.401  0.0515  0.2649 -0.4415
52839W        W95892  26.721  15.750  28.218  0.0034  0.1300  0.2600
52840W        W95893   5.074  15.786  21.394  0.2388  0.0374 -0.1617
52841W        W95894  11.057  14.044  27.009 -0.0208  0.2144  0.0483
52842W        W95895  33.819  10.616   7.960 -0.0483 -0.1762 -0.0981
52843W        W95896  34.005   7.334   4.067 -0.1112 -0.3759 -0.0404
52844W        W95897  24.891   5.642  22.130 -0.0411  0.2954  0.1373
52845W        W95898   5.801   1.675   6.562 -0.1311 -0.0337 -0.0507
52846W        W95899  19.796  16.326   7.230 -0.2057  0.2434 -0.3162
52847W        W95900  32.587   9.658   7.369 -0.0318 -0.1580 -0.1823
52848W        W95901  12.682  31.117   5.809  0.1053  0.1550  0.0697
52849W        W95902   8.319  19.044   9.347 -0.1206  0.1058  0.1893
52850W        W95903  15.507  17.341  14.040  0.3819 -0.0581 -0.0134
52851W        W95904   0.028  14.133   4.182 -0.1657  0.3024 -0.0743
52852W        W95905   4.697   2.700  28.431 -0.0138  0.0752 -0.2826
52853W        W95906   1.530   4.117   1.139  0.1436  0.0690  0.1609
52854W        W95907  32.316  30.480  20.434 -0.2931  0.0820 -0.1580
52855W        W95908  11.790  33.745  27.402 -0.0347  0.4310 -0.1646
52856W        W95909   0.502  11.272   9.063  0.1010 -0.2705 -0.0637
52857W        W95910   2.822  22.079   1.536  0.1456  0.0363 -0.0088
52858W        W95911  28.679  10.345  20.641 -0.3585  0.3584  0.2376
52859W        W95912   5.300   6.310   7.353  0.0950  0.0077  0.1561
52860W        W95913  26.985  20.842  26.497 -0.0081  0.1891  0.1829
52861W        W95914   9.153  22.345  21.711  0.1139 -0.1044 -0.3361
52862W        W95915  10.672  16.775  26.513 -0.3861 -0.1098 -0.2134
52863W        W95916  23.742  11.981   3.814 -0.0534  0.0056  0.0099
52864W        W95917  21.627  13.649   3.572  0.1313 -0.3269  0.1046
52865W        W95918  31.747  21.271   3.184  0.5593  0.0656 -0.0581
52866W        W95919   1.347   9.785   5.601 -0.2031 -0.2504 -0.1715
52867W        W95920   2.470  21.300  18.910 -0.1834 -0.0347  0.4325
52868W        W95921   7.812  10.175  19.589  0.1021 -0.0853  0.2219
52869W        W95922  30.964  17.902   2.912  0.0511  0.0027  0.2130
52870W        W95923  10.618  21.751  10.141 -0.2210  0.0394  0.2196
52871W        W95924  10.324   8.744   9.173 -0.0750  0.3134 -0.1602
52872W        W95925  30.751  15.796  23.956 -0.0568 -0.2078 -0.3077
52873W        W95926  32.011  14.087  23.871 -0.2080  0.1265  0.2456
52874W        W95927  28.816  15.938  22.602  0.0173 -0.0826 -0.1745
52875W        W95928  25.483   7.846   8.545  0.1712 -0.4331 -0.3396
52876W        W95929   4.707  14.900  27.912  0.0981  0.2471 -0.1522
52877W        W95930   8.440   8.625   8.158  0.0725  0.1496 -0.2626
52878W        W95931  26.990  27.882  25.186 -0.1559 -0.1932  0.1658
52879W        W95932  33.300  24.212  28.461  0.2267  0.0977 -0.0677
52880W        W95933  16.183   2.734  23.901 -0.0088 -0.0170 -0.0082
52881W        W95934  27.587  18.567  20.427  0.4890  0.2292 -0.1515
52882W        W95935  20.967   8.412  28.821 -0.0337 -0.0177 -0.0402
52883W        W95936  31.709   3.127   3.279 -0.0499  0.2609 -0.0702
52884W        W95937   2.382  24.143   2.499 -0.0424 -0.1844 -0.1588
52885W        W95938   0.941  23.392  24.372  0.3066  0.2763 -0.1304
52886W        W95939  19.492   1.943   9.051 -0.0039  0.0190  0.1185
52887W        W95940  25.685  14.013  24.856  0.1651 -0.0700 -0.0195
52888W        W95941  21.742  28.161  16.655 -0.1564  0.1618  0.1540
52889W        W95942   7.483  17.982  27.199  0.1148  0.1851  0.1698
52890W        W95943  20.635  19.753  25.891 -0.0158  0.1573 -0.0644
52891W        W95944  13.776  33.446  14.157 -0.1722 -0.1137  0.1152
52892W        W95945  22.228  34.445   7.258  0.3849 -0.0751 -0.1102
52893W        W95946  27.817   2.666  28.865  0.1279 -0.0619  0.0289
52894W        W95947  15.315   2.062   4.690 -0.0286  0.1729 -0.1357
52895W        W95948   7.316   9.766  26.912 -0.0121  0.3059 -0.1441
52896W        W95949   8.672   9.924  18.774  0.0335 -0.0100 -0.2486
52897W        W95950   1.300   0.596  21.303 -0.0360 -0.1822  0.2398
52898W        W95951  24.420  10.695   4.219  0.0505  0.1170 -0.1598
52899W        W95952  29.839  11.033  28.318 -0.2988 -0.2244 -0.4117
52900W        W95953  28.759  34.191   4.992 -0.0182 -0.1333 -0.2634
52901W        W95954  24.746  12.254  26.892 -0.1897  0.2367  0.1214
52902W        W95955  12.861  17.254   2.696  0.1588 -0.0628 -0.1457
52903W        W95956  21.689  15.304   7.988 -0.3327  0.1601 -0.1630
52904W        W95957  27.239  19.653   9.126  0.2831  0.0650  0.0849
52905W        W95958  29.054  33.851   2.641 -0.2401 -0.0751  0.2349
52906W        W95959   3.640  12.746   5.724 -0.3793  0.2178  0.0701
52907W        W95960  25.150  33.105  22.203 -0.1956  0.1974 -0.2187
52908W        W95961   1.992  11.105  25.694  0.1455  0.1109  0.0649
52909W        W95962   5.602  12.919   1.898 -0.0642 -0.0148  0.1555
52910W        W95963   0.404  29.031  25.922  0.0219 -0.0298 -0.5028
52911W        W95964  31.511  24.279   0.008  0.1556 -0.0028  0.0870
52912W        W95965   8.148  10.763   2.450 -0.0574 -0.0524  0.2336
52913W        W95966  31.022  15.611   8.384  0.2350  0.2307 -0.0201
52914W        W95967  30.213  28.035   1.373 -0.0912 -0.1725  0.1532
52915W        W95968  26.326   9.183   4.072 -0.2868 -0.3117 -0.1366
52916W        W95969  22.327  33.078  27.872 -0.1077 -0.2218  0.2115
52917W        W95970   3.243   6.406   4.126  0.2693 -0.1088  0.1442
52918W        W95971  26.540  21.465   1.016 -0.0731  0.1153 -0.1873
52919W        W95972  19.611  12.578  10.051 -0.1182 -0.0008 -0.2054
52920W        W95973  13.121  14.673  21.560  0.0135 -0.2230 -0.0962
52921W        W95974  26.995  28.476  25.362 -0.1887 -0.0474  0.0797
52922W        W95975   8.480  14.040  24.619 -0.4997 -0.1562 -0.1963
52923W        W95976  32.939  19.917   8.647  0.3381 -0.0608  0.1023
52924W        W95977   7.177  13.422  29.179  0.4431  0.0369 -0.1131
52925W        W95978  27.448  17.107   8.027  0.2445 -0.5122 -0.1484
52926W        W95979   3.640  19.095   8.987 -0.2802 -0.0429  0.3330
52927W        W95980   7.516  12.677  23.527 -0.0915 -0.1376 -0.1787
52928W        W95981  32.222  23.889   2.741  0.0503 -0.1357  0.3126
52929W        W95982  31.528  22.353   7.962  0.0738  0.0313 -0.3498
52930W        W95983   2.270  18.959  17.214  0.2542  0.1193 -0.0790
52931W        W95984  33.369  20.826  22.480  0.2786  0.1189  0.1305
52932W        W95985  25.678   6.029   9.056 -0.0537 -0.0290 -0.2789
52933W        W95986  12.056   6.238   0.673  0.1749 -0.0094 -0.2093
52934W        W95987  15.021   5.627   9.430 -0.0065  0.0613 -0.1012
52935W        W95988  24.694  10.092  28.130  0.1519 -0.1466  0.3031
52936W        W95989   4.177  11.753   4.858 -0.1175 -0.2139  0.0246
52937W        W95990  17.334   8.178   9.205  0.0970  0.0212 -0.2710
52938W        W95991  18.687  25.527  24.098 -0.0065  0.1713 -0.2155
52939W        W95992  22.653  25.856   1.596  0.2140 -0.0576 -0.0647
52940W        W95993  29.253  30.055   9.453  0.1205  0.0602 -0.1852
52941W        W95994   3.371   9.402  23.567 -0.2958 -0.2224 -0.2872
52942W        W95995   1.374  15.250  22.519 -0.0455 -0.0532  0.0859
52943W        W95996   8.733   3.668   2.935  0.2199 -0.0714  0.1037
52944W        W95997  28.667   0.501  28.854 -0.1305 -0.3972 -0.1635
52945W        W95998  31.350  14.773   9.689  0.0210 -0.2396 -0.0766
52946W        W95999  31.172  28.781   1.928  0.1006 -0.2376 -0.1481
52947W        W96000  13.616  14.104  22.768  0.0999 -0.1889  0.0823
52948W        W96001  19.164   4.186   3.610  0.1110  0.1732 -0.1022
52949W        W96002  30.410  15.869   4.668 -0.1228  0.3218  0.1544
52950W        W96003  16.923  20.151  10.109  0.0056  0.1429 -0.1434
52951W        W96004   0.809  29.483   1.432 -0.3425 -0.2467 -0.0861
52952W        W96005   1.065  19.671   8.479 -0.0283 -0.2334 -0.0043
52953W        W96006  31.831  33.435   7.720  0.3903  0.0401  0.1377
52954W        W96007  12.182   8.406  18.449  0.0847 -0.0820  0.4677
52955W        W96008   1.699   5.238   4.768  0.5196  0.1295 -0.4761
52956W        W96009  28.328  10.973   6.945 -0.2258  0.3035  0.0162
52957W        W96010  24.988  20.007  27.031 -0.2337 -0.0080 -0.1293
52958W        W96011  33.584   2.519   5.509  0.0124  0.0210 -0.0739
52959W        W96012  33.740   0.206  26.042 -0.0131 -0.0175 -0.2255
52960W        W96013  29.645   7.422   4.056  0.0616 -0.0952 -0.2512
52961W        W96014   9.507  22.849   2.174  0.1648 -0.0136 -0.2009
52962W        W96015  34.531   1.503   0.436 -0.2147  0.1179 -0.2133
52963W        W96016  10.642  13.551  21.506 -0.0018  0.1921  0.4515
52964W        W96017  24.829  26.976  19.484  0.0911 -0.2464 -0.1718
52965W        W96018  14.803  18.361   7.233 -0.2426  0.1567 -0.2834
52966W        W96019  33.407  21.260  24.594 -0.1637 -0.0207 -0.0230
52967W        W96020   6.572  25.842  22.904  0.1338 -0.1439 -0.2496
52968W        W96021  20.938  24.374  17.413 -0.1309  0.0422  0.2103
52969W        W96022   6.660  34.563   3.878 -0.0669 -0.2726 -0.1032
52970W        W96023  29.118   3.647   6.023 -0.2992  0.3425 -0.2001
52971W        W96024   2.086  22.821   7.867 -0.2189  0.5007 -0.1144
52972W        W96025  31.925   2.826   6.424 -0.0526  0.0535  0.2202
52973W        W96026  33.724  13.609   4.398 -0.2135 -0.0379 -0.0046
52974W        W96027  22.193  10.359   9.046 -0.2980 -0.0268 -0.0503
52975W        W96028  32.087  17.736   1.936  0.2812  0.1219  0.0032
52976W        W96029  23.160  25.407   6.811  0.3518 -0.2696  0.3571
52977W        W96030  33.263   9.335  10.517  0.1075  0.3182  0.2012
52978W        W96031  33.212  14.886   9.226  0.3253  0.0634  0.1292
52979W        W96032   1.168  25.809   1.915 -0.0541 -0.0915  0.2749
52980W        W96033  29.289  33.453  14.460 -0.0837  0.0579 -0.1379
52981W        W96034  33.285  26.227   6.286  0.0531 -0.1099 -0.0596
52982W        W96035  24.602  25.493  24.648 -0.2895 -0.1028  0.1051
52983W        W96036  28.303   7.447   5.532  0.3327 -0.2777 -0.1393
52984W        W96037  28.969  32.773   7.107  0.1821  0.1124 -0.0863
52985W        W96038   6.409  17.690   0.040  0.1257 -0.1933 -0.2898
52986W        W96039  31.207  17.198   4.779  0.5328  0.4059  0.4521
52987W        W96040  29.533  11.413  28.312 -0.1103 -0.0072 -0.0135
52988W        W96041  13.444  26.667   6.976 -0.1062  0.1653  0.0300
52989W        W96042  31.569  11.648   5.063 -0.2378 -0.0744  0.2915
52990W        W96043  20.352   8.952   8.134 -0.2221  0.0494 -0.0481
52991W        W96044  28.535  14.935   9.651 -0.2131  0.1029 -0.0657
52992W        W96045  34.077  19.797   0.027  0.0575  0.1796  0.0915
52993W        W96046   2.597  17.942   2.211 -0.0503  0.2223 -0.3394
52994W        W96047  17.604   6.727  24.078 -0.0927  0.0075  0.0766
52995W        W96048  27.093  20.662  28.379 -0.3164 -0.2317  0.0239
52996W        W96049  22.035  31.396  20.200  0.1322  0.1682 -0.1452
52997W        W96050   8.291  21.072  22.700 -0.3323 -0.0730  0.1153
52998W        W96051  27.320  29.678  19.540  0.0930  0.0564  0.3288
52999W        W96052  12.458  23.703  24.651 -0.1782  0.0977  0.0959
53000W        W96053  33.441  10.005   5.777 -0.0386 -0.1469  0.1011
53001W        W96054  29.841  18.357  24.748  0.1109  0.0386  0.0889
53002W        W96055  11.974  12.075   1.223  0.2928 -0.0110  0.0124
53003W        W96056  27.194  18.782   2.825 -0.0433  0.4240 -0.1407
53004W        W96057   9.663  31.404   5.731 -0.0111 -0.2628  0.1986
53005W        W96058  32.809   7.997   9.930 -0.2085 -0.1482  0.0453
53006W        W96059   0.011  12.798   6.879 -0.0728 -0.0531  0.1873
53007W        W96060  10.641  11.271   8.062  0.3112  0.0396  0.3960
53008W        W96061  32.542  17.261  21.427 -0.2029 -0.4769  0.1380
53009W        W96062   3.097  33.367   9.268 -0.1949  0.2422 -0.1510
53010W        W96063   3.815   9.063  22.838 -0.2434 -0.1510 -0.0192
53011W        W96064  33.183  13.165  24.080 -0.0684  0.1460 -0.2430
53012W        W96065  30.466  15.613   6.424 -0.2434  0.0887  0.0351
53013W        W96066  32.945   7.898   0.353  0.0864 -0.3589  0.2421
53014W        W96067  28.784  18.408   4.168 -0.0797 -0.0265  0.1703
53015W        W96068  21.817   0.288  23.864  0.1530 -0.0413 -0.0384
53016W        W96069   1.908  12.635  24.944  0.0859  0.0690 -0.0253
53017W        W96070  15.313  30.193   1.241 -0.1726  0.1302 -0.1080
53018W        W96071   9.176   9.955   8.198  0.0797  0.1039  0.1578
53019W        W96072  29.683  23.247  28.540  0.0075  0.2991  0.3531
53020W        W96073  25.261   0.949  25.717  0.1918  0.1277  0.1024
53021W        W96074   6.322   1.252   6.250  0.0308 -0.2265  0.1135
53022W        W96075  13.614  13.033   8.010 -0.1572  0.1045  0.1701
53023W        W96076  33.054  19.129   5.561 -0.1535  0.1249  0.2589
53024W        W96077  33.413  13.979  25.860 -0.3587  0.2369 -0.2784
53025W        W96078  28.160  23.822  27.870 -0.0482  0.1152 -0.0338
53026W        W96079   7.109  16.523  22.080 -0.3392 -0.1808  0.2853
53027W        W96080  30.267  15.197   5.862  0.0890 -0.0949 -0.0363
53028W        W96081  21.777   8.510   0.583 -0.0655  0.1723  0.1537
53029W        W96082  21.583   4.145   6.430  0.0408 -0.2028 -0.0411
53030W        W96083  32.330  30.768   6.813 -0.1263 -0.3399 -0.3123
53031W        W96084  15.771   9.721   3.068  0.2191 -0.0962  0.0666
53032W        W96085  29.996  20.076  15.288 -0.1998  0.3763  0.1539
53033W        W96086  29.574  13.211  28.233  0.2594  0.2082 -0.0510
53034W        W96087  30.274   7.441   5.684 -0.2712 -0.0977  0.0068
53035W        W96088  31.797  28.042   1.502  0.2547  0.1406  0.2920
53036W        W96089  20.564  31.510   0.969 -0.0059  0.1073  0.0020
53037W        W96090  22.320  13.838   1.722  0.2953  0.5455 -0.0213
53038W        W96091   6.721  29.866   0.487 -0.0790  0.0904  0.2840
53039W        W96092  31.712   4.306   4.303  0.0263  0.1466  0.0737
53040W        W96093  32.661   2.432   8.319  0.0861 -0.0092 -0.3532
53041W        W96094   3.422  25.535   6.748  0.2561  0.2694 -0.0762
53042W        W96095  33.425  15.829  15.471 -0.0791  0.0037 -0.1474
53043W        W96096  25.530  21.562  25.391  0.0877 -0.3136 -0.2143
53044W        W96097  31.026   3.338   4.431 -0.1033 -0.0198 -0.0408
53045W        W96098  29.716  23.712  24.017  0.1663  0.1240 -0.1621
53046W        W96099   7.184   1.553   9.870 -0.2520 -0.2830 -0.0876
53047W        W96100   9.199   3.944   3.849 -0.1607  0.0019  0.0224
53048W        W96101  28.876  20.139   9.572 -0.1732  0.1261  0.2104
53049W        W96102  27.658  29.447   8.863  0.0597 -0.0178 -0.1870
53050W        W96103  24.383  14.196   4.275  0.0169  0.1885  0.1926
53051W        W96104  18.342  21.489  16.671  0.1450  0.1255 -0.2598
53052W        W96105  31.814   8.620   4.053  0.1609 -0.1776  0.0000
53053W        W96106  31.278  31.096  17.761  0.1771 -0.1809  0.1140
53054W        W96107   7.216   7.399   3.389  0.1849  0.1477  0.0359
53055W        W96108   2.854   4.171   8.437  0.1395 -0.0936 -0.1360
53056W        W96109  14.297  13.681   2.469 -0.1706 -0.1091 -0.0837
53057W        W96110  32.545  10.897   9.666 -0.1092  0.0252 -0.1855
53058W        W96111  14.872   1.221  27.951  0.2170 -0.1771 -0.2923
53059W        W96112  20.628  18.952   5.623  0.1567 -0.1068 -0.2126
53060W        W96113   5.855   9.721   8.843 -0.3612 -0.0149 -0.1177
53061W        W96114  28.916  16.896  28.675 -0.0156 -0.2777  0.1055
53062W        W96115  27.208  14.210  19.157 -0.3958 -0.0280 -0.0412
53063W        W96116   6.225  24.325   5.142 -0.0709  0.0023  0.0068
53064W        W96117  22.526  11.077  19.559 -0.0923  0.2489 -0.2012
53065W        W96118   9.306  22.954  17.355  0.0632  0.1949 -0.1892
53066W        W96119   1.201  15.819  19.845  0.0663  0.0110 -0.0714
53067W        W96120   1.325  24.837   9.212 -0.2667 -0.0233 -0.0449
53068W        W96121  32.416  16.995   8.410  0.1620  0.0948 -0.2385
53069W        W96122   6.392   0.561   0.258 -0.2758  0.2605 -0.2489
53070W        W96123  22.954   5.958  25.556  0.0294 -0.0943 -0.0814
53071W        W96124   7.999  17.973   0.422 -0.1507  0.1508 -0.2039
53072W        W96125   2.099  10.823   9.760  0.2335  0.1552  0.1540
53073W        W96126   2.434   6.620  25.092  0.0199  0.2804  0.1892
53074W        W96127   1.152  12.559  29.147  0.0047 -0.0465 -0.3226
53075W        W96128   6.498   8.280   4.852 -0.0094  0.0224 -0.2336
53076W        W96129   3.809   7.337   4.593 -0.1126  0.0690  0.0928
53077W        W96130  31.427  11.644   3.013 -0.1595  0.2921  0.1874
53078W        W96131  25.893  26.870   9.650 -0.2571 -0.2317 -0.0367
53079W        W96132  17.348  18.359   3.563  0.0030  0.0926  0.2898
53080W        W96133   6.750   9.554   7.411 -0.0535  0.0040  0.0293
53081W        W96134  28.652  15.513   0.734 -0.0070 -0.1062  0.1336
53082W        W96135  32.710   5.018   8.081  0.0969  0.1857  0.0263
53083W        W96136   5.974  16.423   7.556  0.2205 -0.1950  0.4158
53084W        W96137  23.916  11.351  26.502 -0.1649 -0.2348  0.1313
53085W        W96138  11.146  24.571   4.462 -0.0188 -0.0636  0.1553
53086W        W96139   3.290   9.312  24.698 -0.1403 -0.6275  0.1543
53087W        W96140  24.564  21.099   1.362  0.0648 -0.2077  0.1775
53088W        W96141   0.811  28.890   8.459 -0.1169 -0.1680 -0.0042
53089W        W96142  13.147  33.717  26.996 -0.3328 -0.0073 -0.0330
53090W        W96143   7.450  22.504  29.073 -0.0130  0.1510 -0.1401
53091W        W96144  24.582   3.179   6.386 -0.1547  0.0471  0.3529
53092W        W96145  25.209  12.267   7.599  0.2173  0.2810  0.0298
53093W        W96146   4.113  19.040   7.661  0.0238  0.2452 -0.0075
53094W        W96147  16.216  23.614   8.858  0.1191  0.0112 -0.1246
53095W        W96148  29.327  22.382  24.152  0.0417  0.1182  0.1605
53096W        W96149  27.500  16.812   9.708 -0.0579 -0.0122  0.2420
53097W        W96150   5.400   7.952  28.652 -0.1944  0.0185  0.0298
53098W        W96151  30.389  27.770  21.708 -0.1824  0.0132  0.2377
53099W        W96152  15.563  21.327   7.551  0.0679  0.2252  0.0958
53100W        W96153  10.303   5.864  14.758 -0.1431 -0.0479  0.0347
53101W        W96154  29.292  19.086   2.286 -0.0521  0.1197 -0.0293
53102W        W96155  27.709   9.517   3.725  0.1118 -0.2055  0.0719
53103W        W96156  25.705  20.197  10.396  0.0459  0.1929  0.1829
53104W        W96157   3.559  11.446  17.388  0.2232 -0.0377  0.0967
53105W        W96158   9.783   1.945  25.160 -0.3444  0.0101  0.3146
53106W        W96159  29.558  22.207   3.410 -0.1612  0.4032  0.0832
53107W        W96160  10.762   9.731   6.528  0.1884  0.1687 -0.6164
53108W        W96161   3.906   7.551   7.686 -0.0679 -0.3360 -0.0130
53109W        W96162  27.462  17.653   0.902  0.0397 -0.0758  0.1909
53110W        W96163  17.351   3.005   7.664  0.3011 -0.0596 -0.3384
53111W        W96164   5.138  12.736   7.668  0.0902 -0.2071 -0.1363
53112W        W96165  23.427  10.246  24.159  0.2577 -0.0027  0.3514
53113W        W96166   6.418  24.373  28.782 -0.2479 -0.2396  0.0200
53114W        W96167   0.560  10.549   4.671  0.2416  0.2783 -0.0267
53115W        W96168   8.913  15.345  23.880  0.1205  0.0625  0.3631
53116W        W96169  14.871  30.024  21.233  0.0738  0.1052  0.4341
53117W        W96170   1.645  14.557   0.108 -0.1329  0.0564 -0.3852
53118W        W96171   6.497   8.952  25.435  0.2759 -0.0897  0.0550
53119W        W96172  29.813   6.966   1.008 -0.1216 -0.1964 -0.1567
53120W        W96173  27.936  17.452   5.681  0.3035  0.0091  0.2795
53121W        W96174  27.573  14.809   2.909  0.2149 -0.0510 -0.1126
53122W        W96175  22.188   9.342  27.998 -0.3846 -0.2258 -0.5791
53123W        W96176  26.156  13.835   7.658  0.1540  0.1139  0.2616
53124W        W96177  19.525   9.499   5.577 -0.2103  0.2009  0.0522
53125W        W96178   9.055  13.634   5.782 -0.1512 -0.0628 -0.2030
53126W        W96179  16.619  13.706   5.374 -0.1737 -0.2252 -0.2014
53127W        W96180   6.378  14.709   6.711 -0.1945  0.2161 -0.1864
53128W        W96181  23.991  14.621  25.362  0.0262  0.1451 -0.2934
53129W        W96182  31.368  19.069   3.726 -0.3257  0.0476 -0.2261
53130W        W96183   1.162  27.064   9.256  0.3156 -0.1769  0.0462
53131W        W96184  15.822   1.124   5.697  0.1019  0.1391  0.0972
53132W        W96185  33.459   3.406  27.714  0.1089 -0.2258  0.0978
53133W        W96186  31.494  10.980   5.631  0.1204  0.1819  0.4121
53134W        W96187   2.417   8.744  15.226 -0.0136  0.1211  0.3458
53135W        W96188   0.657   2.519   7.127  0.0846  0.1744  0.0317
53136W        W96189   3.925   4.040  10.131  0.0709  0.0570  0.2236
53137W        W96190   0.790  16.817  28.952  0.2876 -0.0159  0.2067
53138W        W96191  30.412  14.250  19.173 -0.3984 -0.0883  0.3268
53139W        W96192  11.988  17.701   6.684 -0.1776 -0.2045  0.2422
53140W        W96193   9.119   7.541  10.148 -0.2357  0.0249  0.1763
53141W        W96194   2.093  12.664   0.157 -0.1578 -0.2194 -0.0275
53142W        W96195  33.644  11.456   8.205 -0.2463 -0.0459  0.1388
53143W        W96196  12.510   4.758   3.456  0.0628  0.0083 -0.2779
53144W        W96197  30.062  12.933   6.241  0.0638 -0.0109  0.2744
53145W        W96198  12.112  10.508   4.035  0.0857 -0.2637  0.1749
53146W        W96199  30.450   2.421   3.017 -0.1918  0.4993 -0.1040
53147W        W96200   4.771   3.728  10.072 -0.1619  0.0087  0.1612
53148W        W96201  18.961  19.512   5.314 -0.2457  0.2085 -0.0966
53149W        W96202  19.118  11.483   3.286 -0.1795 -0.2205 -0.0266
53150W        W96203   3.688  33.363   7.449  0.1027  0.0882  0.0592
53151W        W96204   0.966   4.273   2.203  0.2083 -0.4576 -0.1922
53152W        W96205  29.243   7.691   4.518 -0.0796  0.0582  0.2139
53153W        W96206  27.926   8.994   5.514 -0.2000 -0.1094  0.1423
53154W        W96207   6.509   8.027   6.430  0.3281 -0.3184  0.2010
53155W        W96208  16.926   5.456   5.627 -0.0440 -0.1796 -0.1270
53156W        W96209   3.695  15.864   2.881  0.0263  0.0013 -0.0996
53157W        W96210   6.581  13.939   2.410 -0.2380  0.0408 -0.1313
53158W        W96211  19.490   8.383  15.641 -0.1739 -0.1072 -0.2363
53159W        W96212  30.610  16.427   6.974  0.0277  0.0865 -0.1262
53160W        W96213  27.041  10.542  21.636 -0.1377 -0.3361  0.0287
53161W        W96214  27.704  18.704  25.487  0.2095  0.0284 -0.2061
53162W        W96215  25.717  13.207   1.549  0.0221 -0.2517 -0.0399
53163W        W96216  29.914  14.230   1.398  0.1084 -0.0524  0.1172
53164W        W96217   4.728  10.015   9.277 -0.1369 -0.3043 -0.3607
53165W        W96218  26.445  11.421  28.130 -0.1470  0.2189  0.0999
53166W        W96219  28.380   6.919   6.872 -0.1550 -0.0686 -0.0507
53167W        W96220  34.452  24.603   7.195 -0.0076  0.0504  0.2974
53168W        W96221  15.819  24.626   3.510  0.2268 -0.0625 -0.2015
53169W        W96222   5.006  12.497  22.555 -0.0420 -0.1421 -0.1014
53170W        W96223  26.251  21.225   1.352 -0.1269  0.2756 -0.0975
53171W        W96224   6.846   3.955   1.779  0.0999  0.1581  0.1358
53172W        W96225   6.837   8.207   8.553  0.2965 -0.0025  0.3039
53173W        W96226  33.365   3.482   5.330  0.1859 -0.0421  0.0037
53174W        W96227  33.181   6.048   0.738  0.3298  0.1825  0.1557
53175W        W96228   7.281  24.149  23.373  0.0229 -0.2651  0.3571
53176W        W96229  31.706   8.468   6.234  0.0686 -0.3972  0.0698
53177W        W96230  19.988  19.812   8.225  0.0755  0.3250 -0.0480
53178W        W96231  33.352  15.032  13.859  0.1330 -0.5242 -0.1826
53179W        W96232   2.861  13.256   2.749 -0.0870 -0.0851 -0.0131
53180W        W96233  28.771  20.573  20.608 -0.0093 -0.1807 -0.1120
53181W        W96234   0.611  18.106   8.074 -0.1793 -0.1658 -0.0940
53182W        W96235  32.662  14.087   3.475 -0.2513 -0.0994 -0.1033
53183W        W96236  33.661  16.916  27.852  0.1726 -0.1283 -0.2723
53184W        W96237  23.409  16.323   9.243 -0.2839  0.1711  0.0824
53185W        W96238  29.027  16.115  28.520  0.0192 -0.0549 -0.1583
53186W        W96239  17.159  17.474  26.628  0.0624 -0.0503  0.2038
53187W        W96240  25.414  21.591   9.190 -0.1630  0.0859  0.2730
53188W        W96241   7.561  34.209   1.927 -0.1253 -0.1160  0.0954
53189W        W96242   4.268  13.092   0.269  0.2317 -0.3039 -0.2418
53190W        W96243  34.254  29.890   3.519 -0.1120  0.0524 -0.1688
53191W        W96244   1.426  19.841   8.120 -0.0696  0.1116  0.1663
53192W        W96245  24.247   1.646   6.479  0.0335 -0.3707  0.1020
53193W        W96246   4.797  10.269  19.898 -0.1737 -0.0616  0.0591
53194W        W96247   0.978  16.428   8.955 -0.2333 -0.0964 -0.2919
53195W        W96248  31.008   1.773  26.142 -0.2561 -0.0903 -0.1666
53196W        W96249  20.085  16.179   1.485  0.0171 -0.0967 -0.0447
53197W        W96250   1.631  13.183   6.105  0.1037  0.0871  0.0966
53198W        W96251  27.650   6.966   9.319  0.2573 -0.0999  0.0650
53199W        W96252  30.052   2.262   1.515 -0.1585 -0.1373  0.0180
53200W        W96253  19.680  13.486   6.339  0.0001 -0.1721  0.0238
53201W        W96254  24.616  20.221   6.921  0.1946  0.1750 -0.2398
53202W        W96255  15.387  13.420  27.724 -0.3782  0.0221  0.1037
53203W        W96256  18.103  13.376  20.724  0.2214  0.0330 -0.1007
53204W        W96257  15.343  12.318   5.891  0.0306  0.0458 -0.1144
53205W        W96258  33.659  28.300   0.823 -0.0841  0.1358 -0.1454
53206W        W96259  21.893  23.824   3.646 -0.0452  0.1295  0.2568
53207W        W96260  20.375  15.162  14.971 -0.0308  0.0254  0.3113
53208W        W96261  28.951   5.266   4.783 -0.0003 -0.0946  0.0631
53209W        W96262   4.370  24.497   6.270  0.1657 -0.1319  0.1484
53210W        W96263  24.071  17.042   7.477 -0.1218 -0.0228 -0.1046
53211W        W96264  20.180  17.241   7.068 -0.2927 -0.0255  0.0236
53212W        W96265  23.070  16.722   2.740  0.0343  0.1459  0.0546
53213W        W96266  26.383  29.291  27.265  0.0591 -0.0411 -0.2883
53214W        W96267  21.618  11.552  25.167  0.3529  0.0375 -0.0767
53215W        W96268  30.672  28.999   2.860 -0.2373  0.0401 -0.1287
53216W        W96269  24.356  18.128  29.046 -0.2140 -0.2232  0.2179
53217W        W96270   2.909  12.583  26.395  0.0273 -0.0720 -0.1245
53218W        W96271  33.824  29.368   9.412 -0.0583  0.2272  0.1120
53219W        W96272   2.697  14.218   3.607 -0.2928  0.2908  0.2483
53220W        W96273  31.993   1.675   2.393  0.0203 -0.0097  0.0378
53221W        W96274   4.614  24.333   7.101  0.1056  0.0884 -0.0153
53222W        W96275  23.663  21.482  27.585  0.2222  0.2014 -0.0589
53223W        W96276  28.280  33.009  26.732  0.2764  0.0476  0.1639
53224W        W96277  21.571  11.115  10.161 -0.0212 -0.1304 -0.0484
53225W        W96278  24.394  18.904   7.660 -0.1531  0.0632 -0.0752
53226W        W96279   6.005  13.486   7.469  0.4254  0.1380  0.0010
53227W        W96280  33.764  19.079   6.413 -0.1876  0.4690  0.1473
53228W        W96281   5.911  16.844   9.770  0.1019  0.1411  0.2531
53229W        W96282  30.468  28.954  25.259  0.0373  0.1358 -0.0093
53230W        W96283   4.866  26.587   8.521 -0.0478 -0.0644 -0.0742
53231W        W96284  28.222   7.397   6.917 -0.0957  0.0753 -0.2084
53232W        W96285  26.931  23.370  28.310  0.2363  0.2967 -0.2124
53233W        W96286  10.891   8.384   3.046 -0.1660 -0.1003  0.1424
53234W        W96287   0.539  25.391   7.748  0.1704 -0.0587 -0.1195
53235W        W96288  32.405   0.177  26.480 -0.0074  0.1853  0.2112
53236W        W96289   3.826   7.755  10.815 -0.0151 -0.1495  0.0609
53237W        W96290  11.177  17.251  27.623  0.1942 -0.0097 -0.3102
53238W        W96291  24.349  15.676  22.149 -0.2196 -0.2528  0.0938
53239W        W96292  21.392   8.733   9.239 -0.1087  0.2354 -0.1000
53240W        W96293  25.200  23.326   9.306 -0.2255  0.1160  0.0843
53241W        W96294   4.287  26.994   8.901  0.2591 -0.1611  0.0224
53242W        W96295  21.348   0.774   6.590  0.0543 -0.1795  0.0818
53243W        W96296  11.895   4.706   0.821  0.2361  0.1631  0.1799
53244W        W96297  31.410  10.172  27.659 -0.0703  0.1118  0.1808
53245W        W96298  31.612  13.763  10.586  0.0932 -0.0572 -0.4016
53246W        W96299   1.745   5.383   7.964 -0.0874 -0.3500  0.1866
53247W        W96300  22.091  28.590   2.488  0.2591  0.2575 -0.1201
53248W        W96301  29.013  26.699   2.732  0.1893  0.5947 -0.0494
53249W        W96302  33.007  18.111   7.277  0.0021 -0.0049 -0.0287
53250W        W96303  21.004  17.954   5.979  0.1099  0.0245  0.0049
53251W        W96304   1.695  25.270   4.647  0.2517 -0.3170  0.2619
53252W        W96305  33.809  34.394   8.412 -0.3492  0.1285  0.1135
53253W        W96306  32.939  17.148   4.997  0.0749  0.1761  0.2924
53254W        W96307  30.855  34.178   9.379 -0.1603 -0.1485 -0.0459
53255W        W96308  28.851   6.463   6.060 -0.1411 -0.1306  0.1642
53256W        W96309  19.994  34.482   9.616  0.1558 -0.0491  0.1808
53257W        W96310  30.276  12.021   8.135  0.2578  0.0846  0.0320
53258W        W96311   2.482   6.581  22.225 -0.0256 -0.0597  0.1940
53259W        W96312  13.190  15.256  10.002 -0.1024  0.3749 -0.0908
53260W        W96313  29.595  13.310   9.790 -0.1245  0.0902  0.0787
53261W        W96314   2.202  23.673   6.129  0.0962 -0.1672 -0.2004
53262W        W96315  34.541  31.213   8.409  0.1028 -0.2420 -0.0032
53263W        W96316  28.211  18.466   4.368  0.0422 -0.0148 -0.1512
53264W        W96317  32.230  22.580   1.934 -0.1140  0.1676 -0.0018
53265W        W96318  23.101   4.063  23.851  0.0641 -0.1122 -0.0066
53266W        W96319   3.330  11.738  28.951 -0.0381 -0.1809 -0.0548
53267W        W96320  31.080   7.158  16.035 -0.2275 -0.1564 -0.0329
53268W        W96321   5.960  14.582   3.361  0.1172 -0.1363  0.2232
53269W        W96322  29.161  19.351  28.882 -0.0208  0.1616 -0.1677
53270W        W96323  11.559  13.319   0.515 -0.2581 -0.1010 -0.3565
53271W        W96324  32.759   6.422   4.531  0.0469 -0.1255  0.4061
53272W        W96325  33.645  12.261  26.869  0.2601  0.1254  0.3178
53273W        W96326   2.022  28.936   8.035 -0.2031 -0.1276  0.0877
53274W        W96327  30.861  19.050   8.438 -0.1906 -0.0453 -0.0792
53275W        W96328  13.631  20.767   4.990 -0.1353 -0.3082  0.0063
53276W        W96329  25.010  10.527   3.857 -0.1455 -0.1802  0.0585
53277W        W96330  12.096  21.030  20.402  0.0635  0.1525  0.0115
53278W        W96331  33.718   6.009  28.197 -0.1502 -0.1589  0.3040
53279W        W96332  18.971  32.582   1.261 -0.0244 -0.1191 -0.0633
53280W        W96333  23.969   6.312  18.920 -0.0152 -0.3641 -0.1284
53281W        W96334  30.840   4.890  10.403  0.1360 -0.0599  0.3378
53282W        W96335  28.265  13.018  28.633  0.0965  0.2113 -0.0879
53283W        W96336  34.326   4.310  18.270 -0.0025 -0.1523 -0.2656
53284W        W96337  21.578  12.056   4.816 -0.0768  0.0877  0.3962
53285W        W96338   0.790   8.974   2.868 -0.0047  0.0175  0.0715
53286W        W96339   9.237  18.227   6.302 -0.0121  0.0889  0.2932
53287W        W96340   4.415  24.523   0.480 -0.0123  0.4975  0.2603
53288W        W96341  22.305  15.586   9.199 -0.4349 -0.0436 -0.1673
53289W        W96342  10.254   6.091   3.532 -0.1317 -0.1302  0.0242
53290W        W96343  25.553  13.417   1.961 -0.0763 -0.0454 -0.2743
53291W        W96344   3.296   2.506   4.423 -0.0262  0.3575 -0.3434
53292W        W96345  30.933  15.763   4.810  0.2059 -0.1754  0.0382
53293W        W96346  13.228  12.540  27.608 -0.1927  0.3408  0.4200
53294W        W96347  33.914   9.981   7.261 -0.2038  0.1988 -0.1550
53295W        W96348  23.351  12.375   3.925  0.0414  0.1126  0.2221
53296W        W96349   4.856  15.965   5.287 -0.0972 -0.0154 -0.0067
53297W        W96350  27.480  12.314  22.521 -0.2702  0.1474 -0.1721
53298W        W96351  30.850   6.205  17.994 -0.1084 -0.1613  0.0617
53299W        W96352  30.668  12.304   1.058 -0.0138 -0.2329 -0.0287
53300W        W96353  22.632   3.450  25.217 -0.1532 -0.1815  0.1507
53301W        W96354  22.787  16.351  27.770  0.0336  0.0792  0.1703
53302W        W96355  21.663   1.990  19.693 -0.1456 -0.0216 -0.2819
53303W        W96356   3.149  31.986  14.327  0.3445 -0.3850 -0.2497
53304W        W96357  28.492   0.504   7.628 -0.0817 -0.3437 -0.1379
53305W        W96358   1.073  17.841  28.623 -0.4737 -0.2850  0.2949
53306W        W96359  18.088   9.863  17.884  0.0756  0.0423  0.1630
53307W        W96360   5.559  13.919  15.287  0.0680  0.0236  0.2244
53308W        W96361  29.733   1.993   1.245 -0.1108  0.3640 -0.0334
53309W        W96362  22.407  23.225  21.863 -0.1996 -0.1355 -0.0172
53310W        W96363  10.152   7.305  19.462  0.1438 -0.2358  0.0482
53311W        W96364   1.527  12.064  27.493  0.0662  0.2561 -0.0634
53312W        W96365  33.174  20.335   8.437 -0.1535  0.1016 -0.3165
53313W        W96366  18.372  15.624   7.883 -0.1876  0.1911  0.0145
53314W        W96367   5.924   5.905   5.695  0.2198  0.0590 -0.0896
53315W        W96368   0.906  21.352   9.024 -0.2368  0.1284  0.0251
53316W        W96369   0.760  26.195   4.721  0.0044 -0.0547  0.2328
53317W        W96370   2.233  14.586   7.989  0.0781 -0.0112 -0.0590
53318W        W96371   0.499   8.422   4.240 -0.2190 -0.0964 -0.2633
53319W        W96372  23.850  15.188  17.186 -0.0739  0.2352 -0.0275
53320W        W96373  31.533  13.254  28.809 -0.3133  0.1285 -0.2972
53321W        W96374  30.541  24.555   0.143 -0.0243  0.2993  0.2038
53322W        W96375  30.460  20.317   3.113  0.1172  0.1846  0.0311
53323W        W96376  19.994  26.237   7.751 -0.3856 -0.1456  0.2460
53324W        W96377  22.896  28.130   2.583 -0.2821 -0.2506 -0.1003
53325W        W96378  27.992  19.659  25.458 -0.1122  0.1636 -0.3756
53326W        W96379   5.096  11.168  26.615  0.0199 -0.3253  0.3184
53327W        W96380   0.956  13.189   9.364  0.1421 -0.1644  0.0155
53328W        W96381  23.575  12.914  28.195 -0.0932 -0.0668  0.1920
53329W        W96382  32.303  10.303  23.909 -0.1476 -0.2633  0.1528
53330W        W96383  24.777  16.184   1.571  0.1488 -0.3416  0.0803
53331W        W96384   5.018   5.228   2.057 -0.3325  0.2143  0.0561
53332W        W96385  11.338  22.879   9.851 -0.3083  0.0783 -0.0021
53333W        W96386  23.499  14.043  10.019 -0.2577 -0.0495 -0.1350
53334W        W96387  34.114   1.670   4.947  0.0256 -0.0057  0.0019
53335W        W96388  30.798  14.049  22.747 -0.1342  0.4824  0.2031
53336W        W96389  31.194  12.521   6.687 -0.1799 -0.0203  0.1535
53337W        W96390  34.445  13.430  20.190 -0.1598  0.0632 -0.2057
53338W        W96391  31.159   6.391   5.935 -0.2331  0.2528  0.0078
53339W        W96392   1.952  11.782  22.253 -0.2012  0.1469 -0.0614
53340W        W96393   0.885   8.970   5.975  0.2219 -0.3077 -0.0407
53341W        W96394   4.081  30.500   2.392  0.0922  0.3553 -0.0913
53342W        W96395  24.073  19.423   2.721 -0.3024  0.1225 -0.0464
53343W        W96396   0.798  27.377   9.372 -0.1132 -0.2333 -0.1195
53344W        W96397  34.511  25.570  19.277  0.1821 -0.1544 -0.1180
53345W        W96398  22.430  17.291  27.968  0.0457 -0.0510 -0.0163
53346W        W96399  18.806  10.827  27.162 -0.0317  0.1444  0.2973
53347W        W96400  30.482  13.893   2.032  0.0279 -0.2151 -0.0918
53348W        W96401  16.689  15.930   4.041  0.0878 -0.3278 -0.0648
53349W        W96402  29.077  28.903   3.812  0.0567  0.0729 -0.0798
53350W        W96403   3.538  13.869  19.081  0.1392 -0.2692  0.2069
53351W        W96404  29.994  19.224  19.318  0.2614 -0.3444 -0.1975
53352W        W96405   9.703   4.825   5.548  0.2571  0.3627  0.0308
53353W        W96406   2.847  12.198   5.776 -0.3237  0.0152  0.3722
53354W        W96407   2.085   0.597   3.772  0.0606  0.0388 -0.1387
53355W        W96408  29.010   6.883   0.077 -0.5523  0.2570 -0.1641
53356W        W96409  25.241  20.291  15.968 -0.0440 -0.0783 -0.0644
53357W        W96410  26.215  11.379  22.801  0.2323 -0.0629  0.1059
53358W        W96411   2.967  13.558  19.212  0.0321 -0.0843  0.3449
53359W        W96412  11.714  11.146   1.164 -0.0477  0.1398  0.0419
53360W        W96413  24.107  22.878   2.319  0.3023 -0.1052 -0.0250
53361W        W96414   8.178  10.195   9.249 -0.0786  0.0030  0.0098
53362W        W96415  32.881   7.542   6.095 -0.0013 -0.1603 -0.0023
53363W        W96416  15.435  23.859  21.179 -0.4914  0.0675  0.1929
53364W        W96417   5.749  24.455  29.120 -0.0756 -0.1567  0.4934
53365W        W96418  25.684  23.059   4.368 -0.0611  0.0917 -0.2034
53366W        W96419  22.283  26.160  19.228 -0.4121 -0.4191 -0.2510
53367W        W96420  11.175   6.091  23.715 -0.0683  0.0576  0.0461
53368W        W96421  29.061  23.758   8.381 -0.2044  0.1477 -0.1044
53369W        W96422  11.176  23.620  13.856  0.2750 -0.0013  0.2172
53370W        W96423  26.382  11.861   9.983 -0.2870 -0.0420  0.2577
53371W        W96424  13.736  19.939  16.684 -0.0036 -0.1345  0.0631
53372W        W96425  33.232  21.598   9.555 -0.2266  0.0373  0.1551
53373W        W96426  29.238   4.714  25.069 -0.1517  0.0450 -0.4138
53374W        W96427   4.490  33.471  28.654  0.0621 -0.0164  0.0224
53375W        W96428  17.006  12.802   1.594  0.0383 -0.1650 -0.1107
53376W        W96429  22.092  13.505   3.353  0.3833 -0.0631 -0.0811
53377W        W96430  21.101  17.211  28.107  0.2187  0.2068 -0.1974
53378W        W96431  28.406  22.963  23.950 -0.1716 -0.1787  0.2872
53379W        W96432   5.763  34.521   5.893  0.1424 -0.1259 -0.0253
53380W        W96433  31.615  26.421   5.044 -0.2040  0.1070  0.2619
53381W        W96434  32.181  30.779   3.961 -0.0170 -0.0655  0.0183
53382W        W96435  12.942  20.521  20.618 -0.1159  0.1897  0.1137
53383W        W96436   5.302  31.032   4.925  0.0639  0.3280  0.3200
53384W        W96437   5.717  19.799  24.017 -0.1209  0.2115 -0.0812
53385W        W96438  21.125  29.048  28.349  0.2895 -0.3618  0.2279
53386W        W96439  30.050   7.661   8.471  0.0274  0.3169  0.2382
53387W        W96440   7.338  20.532   1.771  0.1658  0.1162 -0.4021
53388W        W96441  19.758   4.525   5.090 -0.1653  0.3736  0.3964
53389W        W96442  21.002  13.621   3.262 -0.1650  0.0309 -0.1147
53390W        W96443   1.115  21.347  28.968  0.0008  0.0594  0.0471
53391W        W96444  29.158  17.588   8.664 -0.0628  0.0171  0.0994
53392W        W96445   6.370   1.516   0.271 -0.0129  0.0140 -0.1368
53393W        W96446  26.801  21.674   2.029  0.0178 -0.1834  0.2686
53394W        W96447  17.047   1.727   1.534  0.1823  0.2611 -0.0180
53395W        W96448   1.185   4.204   6.525 -0.0467 -0.5517 -0.0202
53396W        W96449  19.587  23.849   5.315 -0.5266 -0.3045 -0.1413
53397W        W96450  26.316  14.522  22.000  0.0397 -0.3663  0.2298
53398W        W96451   0.116  16.875   1.079 -0.2258  0.0488 -0.1936
53399W        W96452   1.937  33.773  20.463  0.1107  0.2867  0.2002
53400W        W96453  23.712   1.605   9.453  0.0627  0.0812 -0.2350
53401W        W96454   6.233  18.532   7.937 -0.0174 -0.3222  0.1263
53402W        W96455   9.868   5.831   8.273  0.0304  0.2358 -0.0132
53403W        W96456  30.537   6.081   5.284 -0.1924 -0.2410  0.0013
53404W        W96457  15.745  29.263  17.949 -0.1743  0.0358 -0.0725
53405W        W96458  33.938  30.880  20.468 -0.2068 -0.0663 -0.1634
53406W        W96459  28.069  15.538   2.815 -0.3239  0.1606  0.1092
53407W        W96460  16.957  20.363   2.977  0.0600 -0.1801 -0.1802
53408W        W96461  22.123   7.562  23.522  0.0238 -0.0616  0.1247
53409W        W96462  33.124  10.692  27.284  0.1825 -0.0346 -0.0394
53410W        W96463  15.068  16.261   7.131  0.1770 -0.0351 -0.0911
53411W        W96464  27.405  12.748  25.227  0.0702 -0.2881 -0.0249
53412W        W96465   4.758  14.751  26.398  0.0441  0.0793  0.1539
53413W        W96466   5.624   9.065  20.034 -0.0002 -0.0528  0.2209
53414W        W96467  30.689   6.562  18.600  0.2011 -0.1023 -0.1501
53415W        W96468  10.765  11.591   3.751  0.0837  0.3836  0.0545
53416W        W96469  23.571   9.796  25.988 -0.2055  0.0164  0.1885
53417W        W96470  33.964   7.799   3.930  0.3480 -0.1541  0.0151
53418W        W96471   2.983  25.124  21.288  0.3437  0.1449  0.1398
53419W        W96472   4.523   8.202   8.856  0.1376 -0.3025 -0.0419
53420W        W96473  32.415  17.442  15.023 -0.1887 -0.2180  0.2063
53421W        W96474  22.198  25.774   3.027 -0.2218 -0.0783  0.2370
53422W        W96475  20.134  22.626   1.904  0.0117 -0.0071  0.3065
53423W        W96476  17.580  19.163   2.467  0.0763  0.0658 -0.0133
53424W        W96477  11.986  13.217   1.323 -0.0866  0.1327  0.1311
53425W        W96478  23.601   7.748   9.574  0.3759 -0.3059 -0.1398
53426W        W96479  17.843  26.120  21.331  0.0016 -0.1917 -0.0575
53427W        W96480  14.277  19.112  22.020  0.0457 -0.0810 -0.1973
53428W        W96481  29.368   5.859   9.973  0.2802  0.2256  0.1613
53429W        W96482   9.483   0.572  24.917 -0.1027  0.2385  0.1007
53430W        W96483   5.502  28.861   0.550 -0.0506  0.0775  0.3642
53431W        W96484  21.057  15.551  21.790  0.2273  0.2078 -0.4065
53432W        W96485  19.338  10.072  29.141  0.4503  0.2330  0.0092
53433W        W96486   4.160  11.406  18.144 -0.0763 -0.1195  0.1938
53434W        W96487  26.589  21.342  22.264  0.1474  0.3887 -0.3609
53435W        W96488  24.712  13.987   5.645 -0.3425  0.1604 -0.2339
53436W        W96489  25.251  21.038   5.789 -0.2384  0.1066 -0.1067
53437W        W96490  28.441   4.124   9.823  0.3330  0.1927  0.3955
53438W        W96491  34.000  14.892   0.224  0.0203  0.2846  0.0361
53439W        W96492   0.067  26.756  24.958  0.0335  0.3269 -0.1189
53440W        W96493  23.152  10.829   3.769  0.0933 -0.0366 -0.1754
53441W        W96494  22.298  24.294   2.639  0.2623 -0.0535  0.0377
53442W        W96495  14.771  13.679  16.700 -0.0560 -0.1300  0.3260
53443W        W96496  26.953  14.452   0.250 -0.2921 -0.2215  0.1033
53444W        W96497  25.915  15.774  20.627  0.2018 -0.1014  0.2621
53445W        W96498   3.450  17.281   2.423 -0.0363 -0.0785 -0.2578
53446W        W96499  14.648   1.153   2.217 -0.0168  0.0514 -0.0362
53447W        W96500  24.664   9.021  14.936 -0.1584  0.0892 -0.1604
53448W        W96501  17.832  10.286   4.139  0.4004  0.1483 -0.0175
53449W        W96502  31.649   8.569   8.247 -0.1736 -0.3024 -0.0985
53450W        W96503  29.308  20.454  17.783 -0.0197  0.0725  0.2164
53451W        W96504  31.585  22.633  25.590 -0.1864 -0.1212  0.0387
53452W        W96505  10.803  23.682  21.708 -0.3206 -0.0036  0.2083
53453W        W96506  29.636  11.876   5.051  0.1682  0.0542 -0.0615
53454W        W96507  20.668   6.963  16.313 -0.5137  0.2490 -0.0843
53455W        W96508   5.067  20.573   4.877 -0.4456 -0.0636 -0.1139
53456W        W96509  11.423  14.433  24.461 -0.0615 -0.1268 -0.2132
53457W        W96510   2.555  27.840  17.137 -0.3411  0.1238 -0.0796
53458W        W96511  32.263  21.210  21.700  0.1485  0.2233 -0.2421
53459W        W96512   5.098  29.371   9.497 -0.0193 -0.0655 -0.0327
53460W        W96513   5.540   9.087   9.807 -0.1292 -0.0497 -0.1654
53461W        W96514  33.336  22.988   4.825  0.1397 -0.1900 -0.2675
53462W        W96515  21.942  22.884   4.331  0.1774 -0.0871  0.2026
53463W        W96516  16.995  23.647  28.450 -0.1953  0.1352 -0.1260
53464W        W96517  34.183   7.278  10.542  0.1524 -0.1223  0.1882
53465W        W96518  14.929  19.912   6.118  0.1202  0.1894  0.1650
53466W        W96519  26.753   8.780  25.820 -0.3308 -0.0789  0.0772
53467W        W96520   9.441  28.354   6.735 -0.2593 -0.0569  0.0658
53468W        W96521   7.118  22.843  19.772  0.0388  0.0840 -0.0643
53469W        W96522   1.186  21.425  19.427 -0.0724  0.2536  0.3339
53470W        W96523  24.707   6.444   9.271 -0.0401 -0.1808 -0.2331
53471W        W96524   7.928  32.905  21.518  0.0863  0.0976  0.3220
53472W        W96525  30.351  23.993   5.742 -0.2975  0.0859 -0.0312
53473W        W96526   8.393  28.827   9.230  0.0305  0.1970  0.0905
53474W        W96527  29.900  32.160  15.929  0.2230 -0.2338  0.0607
53475W        W96528   4.851  15.442  21.748  0.0120  0.1364 -0.1345
53476W        W96529  28.772  29.768  25.551  0.0060 -0.0176 -0.0558
53477W        W96530  19.323  28.080   3.821 -0.3136  0.1616  0.1733
53478W        W96531  24.101  17.995  14.062  0.1633  0.1416 -0.0324
53479W        W96532  19.778  24.834   9.555  0.0760 -0.0845  0.1130
53480W        W96533  21.584  18.486  15.444 -0.1440  0.1496  0.0686
53481W        W96534  24.064  17.368   1.478 -0.1918 -0.0912  0.0459
53482W        W96535  17.113  17.636   6.481 -0.0774  0.1398 -0.0789
53483W        W96536  32.890  30.276  17.502 -0.1073 -0.3693  0.1909
53484W        W96537   4.226  31.606  28.580  0.0847 -0.0312  0.0036
53485W        W96538  34.101   7.213   5.370  0.1675  0.0456 -0.0070
53486W        W96539  28.678  17.051  21.634  0.1717  0.0731 -0.1263
53487W        W96540  28.728  31.491   3.714 -0.2719 -0.1379 -0.1044
53488W        W96541  28.723  27.448  19.640  0.1288  0.1949 -0.1083
53489W        W96542  20.259  12.426   2.566  0.0284 -0.1786 -0.0958
53490W        W96543  19.692  20.133  25.930 -0.0828 -0.1449  0.1327
53491W        W96544   7.962  22.440  27.183 -0.1404 -0.0879 -0.0140
53492W        W96545  32.806  19.092   9.907 -0.0946 -0.2041 -0.4088
53493W        W96546   8.521  13.027   5.962 -0.3683  0.0758  0.4164
53494W        W96547  16.277  27.743  28.840 -0.2296  0.0792 -0.1886
53495W        W96548   2.787   6.854  19.721  0.1963  0.1619  0.0702
53496W        W96549  26.090  19.894   4.484  0.2888 -0.4040  0.1087
53497W        W96550   1.164  23.090   5.167 -0.2794 -0.1338 -0.1385
53498W        W96551  24.325  28.301   8.685 -0.2772 -0.0693 -0.1703
53499W        W96552  34.144   5.444  26.693  0.1294  0.1578 -0.2448
53500W        W96553  34.052  13.481  25.708 -0.0050 -0.1391 -0.0016
53501W        W96554   4.267  13.605   3.165  0.2718  0.0366 -0.0793
53502W        W96555  24.847   9.292  24.816 -0.1683 -0.0021  0.0264
53503W        W96556  27.387   6.615  25.446  0.0933  0.3040 -0.1777
53504W        W96557  22.730  22.299   0.750  0.1776 -0.0779  0.0676
53505W        W96558   2.980  12.426  21.469  0.1724  0.0383  0.2279
53506W        W96559  26.928  28.830   4.779 -0.1786 -0.3067 -0.1095
53507W        W96560  32.600  19.814   4.548  0.0243  0.0765 -0.0881
53508W        W96561  22.261  12.154   8.808  0.0293 -0.0265 -0.4447
53509W        W96562  29.310   7.458  16.565 -0.0064  0.1781 -0.1389
53510W        W96563  31.911  18.410   8.134 -0.2341  0.0024  0.0374
53511W        W96564  24.975  26.115   1.365  0.1484 -0.3085  0.1182
53512W        W96565   4.428  30.924  16.259  0.1313 -0.2920 -0.2708
53513W        W96566  28.773  28.958  18.896  0.1945  0.1325 -0.0721
53514W        W96567  25.167  22.042   6.457 -0.0967 -0.0329 -0.1171
53515W        W96568  22.907  27.508   9.564 -0.0458 -0.0676 -0.2138
53516W        W96569  16.870  23.028  18.282  0.2161 -0.2011  0.2978
53517W        W96570  27.173   9.081  26.249 -0.1252 -0.0327  0.1652
53518W        W96571  32.040   9.562   8.681 -0.3446 -0.1371  0.1077
53519W        W96572   5.623  17.021   1.015 -0.0542 -0.2266  0.1530
53520W        W96573   5.838  24.201   9.227  0.0973  0.1830  0.0048
53521W        W96574  28.594  17.896   0.139 -0.0850  0.0177  0.3882
53522W        W96575   0.758  11.949  26.388  0.2050 -0.2550 -0.1777
53523W        W96576  33.489   4.350   8.915 -0.1638 -0.2758 -0.0615
53524W        W96577  32.619  17.584   8.313  0.4227  0.1037  0.1356
53525W        W96578  29.428   1.034  29.135  0.1875 -0.0074 -0.2655
53526W        W96579  26.993  30.407  27.139  0.0644 -0.2004  0.1855
53527W        W96580  10.217   3.928  19.610  0.0714  0.1143 -0.2188
53528W        W96581   0.101  15.690   2.142  0.2504  0.0547  0.0624
53529W        W96582  26.440   3.560   7.454  0.4298 -0.2867  0.1396
53530W        W96583  15.786  15.702   7.355 -0.1031  0.0519  0.0918
53531W        W96584  24.036  24.710   5.918 -0.0426  0.2500 -0.1833
53532W        W96585  31.536  15.087   4.254 -0.1708  0.1396 -0.1543
53533W        W96586  24.167  11.419  26.966 -0.0374 -0.0539  0.1399
53534W        W96587   0.085  20.253  25.204  0.1167 -0.0264 -0.0910
53535W        W96588  11.544   9.487   6.199  0.0483  0.3027  0.1553
53536W        W96589  30.106  16.825  26.820 -0.1677 -0.0952  0.2038
53537W        W96590  28.595   8.461  24.385 -0.0348 -0.1405  0.1482
53538W        W96591  24.499  13.860   6.237  0.2759  0.0397 -0.1066
53539W        W96592  27.074  23.994   3.892  0.1903 -0.0621 -0.0025
53540W        W96593   1.299  10.951   6.187 -0.0286  0.1551  0.0043
53541W        W96594  12.660  15.979   6.819  0.0048 -0.0115 -0.2230
53542W        W96595  11.860   8.501   5.496 -0.1549 -0.0462  0.0772
53543W        W96596   3.610  18.443   7.071 -0.0924  0.0975 -0.1288
53544W        W96597  31.516  22.154   7.049  0.0373 -0.0805 -0.3508
53545W        W96598  17.025   6.677   0.284  0.0628  0.0793  0.1364
53546W        W96599  13.837  16.351   9.099 -0.2398  0.1976  0.0201
53547W        W96600  32.185   6.413  22.566  0.0898 -0.0113  0.0403
53548W        W96601  16.167  21.621  26.845 -0.3820 -0.0019  0.0093
53549W        W96602  15.856   8.404   3.079  0.2356  0.1947 -0.0961
53550W        W96603   5.161  10.859   9.791 -0.1026 -0.1025  0.0358
53551W        W96604   6.262  13.502  22.995  0.1521 -0.0537  0.0875
53552W        W96605   4.317   2.757   5.155 -0.4026  0.0292  0.3713
53553W        W96606   8.012  19.072  28.692 -0.1312  0.2494 -0.2299
53554W        W96607   0.063  22.953   6.846  0.1940  0.1230  0.1477
53555W        W96608  24.774  17.532  25.254 -0.1887  0.1311  0.0076
53556W        W96609   7.750  20.628  23.295  0.0114  0.2143 -0.1855
53557W        W96610  27.803   7.141  28.984  0.2687 -0.1581 -0.1712
53558W        W96611  31.386  26.551   8.924 -0.1052 -0.2897 -0.0194
53559W        W96612  24.400  17.018  22.915 -0.0177  0.0793  0.1246
53560W        W96613  26.233  28.084  23.484  0.2232 -0.2102 -0.2607
53561W        W96614   4.892  31.220   6.205  0.0452 -0.0846 -0.2066
53562W        W96615  32.708   7.812  29.110 -0.2489  0.2219 -0.0278
53563W        W96616  28.699  23.986   2.602  0.1435  0.6582 -0.1950
53564W        W96617  18.129  24.452  27.702  0.0509  0.2457 -0.1730
53565W        W96618  19.146  21.247   3.873  0.0070 -0.0524  0.1603
53566W        W96619  15.860  19.465  27.193  0.0954  0.2341  0.0300
53567W        W96620  28.452  14.036   5.890  0.0128 -0.1382  0.3556
53568W        W96621  27.734  17.259   2.696  0.2530 -0.0632 -0.0875
53569W        W96622   5.637  22.938  14.084  0.3097  0.0892  0.2588
53570W        W96623  19.998   8.425  22.112  0.0856  0.0991  0.0385
53571W        W96624  28.730  15.131   3.454  0.0880 -0.2589  0.1540
53572W        W96625   2.323   9.415  22.125  0.0982 -0.0072  0.0802
53573W        W96626  31.804  18.762   8.540 -0.1737 -0.1288 -0.0093
53574W        W96627  28.259  15.181   1.058  0.0595 -0.1939  0.0683
53575W        W96628  32.246   4.695  28.814 -0.0206  0.3977 -0.0841
53576W        W96629  33.061  23.819  28.183 -0.0580 -0.3143 -0.0427
53577W        W96630  28.753   9.874   6.084 -0.0774  0.0853  0.0317
53578W        W96631  28.284  32.325  20.516  0.1516  0.0246 -0.1475
53579W        W96632  27.844  13.718   7.867  0.0513 -0.0785 -0.1219
53580W        W96633  18.012  31.133  23.562  0.0196 -0.0139 -0.1590
53581W        W96634  32.153  26.963  27.940 -0.0819  0.0124 -0.0114
53582W        W96635  21.988   0.893   5.189  0.2544 -0.1281 -0.0556
53583W        W96636  31.541  21.939   1.414 -0.0293  0.2023 -0.0728
53584W        W96637  25.827  19.743  28.806 -0.2217  0.1640 -0.3185
53585W        W96638   6.932  15.422  23.571 -0.2542  0.1212  0.1467
53586W        W96639   6.613  31.479  23.903  0.1069 -0.2285 -0.0046
53587W        W96640   8.519  29.600  19.245  0.0409 -0.2318  0.0025
53588W        W96641   2.202  17.830   4.829  0.1650 -0.0336 -0.1887
53589W        W96642  33.987  29.485  13.777  0.3010  0.2780  0.3541
53590W        W96643  28.782  16.223  24.773 -0.0341  0.0193 -0.1802
53591W        W96644  23.431  11.768  24.393  0.2494 -0.0255 -0.0025
53592W        W96645  25.314  33.692   8.134 -0.1127  0.0221 -0.0968
53593W        W96646  32.051  10.676  27.184  0.1251 -0.0288  0.2595
53594W        W96647  25.389  16.701   7.874 -0.1601 -0.0340  0.1441
53595W        W96648  25.076  20.226  25.806  0.3127 -0.2256  0.0704
53596W        W96649   9.857  11.662   8.630  0.3159  0.0367 -0.0947
53597W        W96650  19.984  26.498   4.058  0.0160  0.1759 -0.1816
53598W        W96651   0.646  24.701   6.770 -0.0392  0.1286  0.0679
53599W        W96652  27.813  20.493   2.753 -0.3317 -0.1022 -0.1866
53600W        W96653  26.203  25.331   3.756  0.1465 -0.2985 -0.0231
53601W        W96654   8.360  16.504   4.977  0.1240 -0.1034 -0.4966
53602W        W96655   5.045  20.968   5.633  0.4179  0.2167 -0.2810
53603W        W96656  34.422  34.266   7.035  0.3250 -0.1804 -0.0775
53604W        W96657  24.774  16.121  23.236  0.0208  0.3097  0.1095
53605W        W96658   7.425  31.581   0.170  0.0640 -0.3924 -0.0433
53606W        W96659  12.748  14.779   2.179 -0.0788  0.1513  0.4024
53607W        W96660  12.181  19.613  23.499 -0.1411 -0.0361  0.2464
53608W        W96661   4.981  10.749   2.911 -0.1650 -0.0250 -0.4002
53609W        W96662   1.607  23.862   1.710  0.2006 -0.1354  0.1803
53610W        W96663   2.649  33.318  28.173  0.1009 -0.0332  0.1469
53611W        W96664   0.108  26.085   6.209  0.4789  0.0067 -0.0834
53612W        W96665  24.366  14.347  27.025 -0.2273  0.0238  0.0789
53613W        W96666   3.926  20.386  28.839  0.1674 -0.0480 -0.1546
53614W        W96667  32.569  12.078   4.556 -0.0031  0.0252 -0.0996
53615W        W96668   4.963   6.157  28.477  0.0893  0.2707 -0.2874
53616W        W96669  34.342   8.249   2.749 -0.2884 -0.0819 -0.0459
53617W        W96670  10.025  31.130   1.378  0.1354 -0.0168 -0.2688
53618W        W96671  32.707  25.449  22.774  0.0373 -0.2878 -0.0585
53619W        W96672   2.088   3.063   2.250  0.0404 -0.0312 -0.0416
53620W        W96673   8.231   7.800   5.366  0.0130 -0.1543  0.0436
53621W        W96674  30.558   9.222   3.518  0.0501  0.1588  0.1840
53622W        W96675  13.156   6.774   4.132  0.1499  0.0287  0.0931
53623W        W96676   7.989  17.919   9.059 -0.1815  0.2308  0.4213
53624W        W96677   2.902  11.186  27.304  0.1034  0.0960  0.1824
53625W        W96678   6.135   3.975   4.478 -0.2565  0.1623  0.1820
53626W        W96679  29.148  12.951   7.612  0.2628 -0.1601 -0.0131
53627W        W96680  30.508   9.114  10.302  0.3093 -0.1071  0.0348
53628W        W96681  31.086   4.581  10.070 -0.2765  0.0410  0.0724
53629W        W96682   0.846  24.469  13.179  0.2707  0.1178  0.1472
53630W        W96683   9.026  10.389   5.780  0.1270 -0.0068  0.0872
53631W        W96684  23.533  16.043   8.178  0.0054  0.0744  0.1208
53632W        W96685  18.677  17.826  26.037  0.1837  0.5172 -0.1475
53633W        W96686   8.045  11.918   1.313  0.2820  0.4731 -0.2915
53634W        W96687  32.916  13.984  29.162  0.1153 -0.0511  0.1956
53635W        W96688  22.068  11.867  25.806  0.0191 -0.2163 -0.0621
53636W        W96689   4.998   1.460   8.235 -0.2718 -0.0601 -0.1271
53637W        W96690  15.462  13.345   1.599 -0.1426  0.3781  0.2472
53638W        W96691  33.754  14.352  16.090 -0.1859 -0.1543 -0.1467
53639W        W96692   2.439  26.093   8.402 -0.4153 -0.0245  0.1561
53640W        W96693  27.003  12.238   1.417  0.1721  0.3530 -0.3728
53641W        W96694  33.694  23.078   0.974  0.0089  0.1136 -0.3725
53642W        W96695   2.203   9.078   4.721 -0.1372 -0.0205  0.1346
53643W        W96696  34.620  21.469   7.931 -0.1970  0.0414 -0.1950
53644W        W96697  15.601  20.619   2.435 -0.0574  0.3813  0.1525
53645W        W96698  26.355   7.959   3.709 -0.3307  0.1639  0.1986
53646W        W96699   5.040  12.694   5.198  0.2034 -0.0714 -0.0375
53647W        W96700   1.522  20.441   6.065 -0.1175  0.1449  0.0595
53648W        W96701  29.894   1.771   6.384  0.2119 -0.0627  0.2305
53649W        W96702  17.251  22.765   7.894  0.3678 -0.0108  0.0189
53650W        W96703  14.328  19.761  21.587 -0.0863  0.4314  0.1117
53651W        W96704   3.710  13.402  26.797 -0.1992  0.0598  0.0062
53652W        W96705  29.681   6.715   9.300 -0.4287  0.0904  0.0010
53653W        W96706  34.457  21.455   9.006 -0.3322  0.2397 -0.1247
53654W        W96707   0.142  21.580   0.680  0.0187  0.0783 -0.3447
53655W        W96708  13.548  13.139  14.305 -0.0577 -0.1504 -0.0080
53656W        W96709   2.444  18.484   5.499  0.3889  0.1209  0.0555
53657W        W96710   1.901  23.273   1.215 -0.1056 -0.0805  0.0501
53658W        W96711  31.325  29.576  25.770 -0.1622 -0.0593  0.0151
53659W        W96712  21.485   8.555   3.890  0.2085 -0.1596 -0.0532
53660W        W96713  20.045  22.744  22.363 -0.2991  0.1067  0.1023
53661W        W96714   7.391  18.358   2.967  0.0572  0.1558 -0.0574
53662W        W96715   5.369  26.955   8.787  0.2331  0.0619 -0.3089
53663W        W96716   5.814   4.655   9.042  0.1276 -0.2902 -0.1678
53664W        W96717  23.125  13.362   4.946  0.2296  0.2598 -0.2566
53665W        W96718  27.254  18.360   5.334 -0.0245  0.1324  0.2024
53666W        W96719  15.089   5.731   0.849  0.2064  0.0462 -0.2993
53667W        W96720  30.164  18.727   7.818 -0.1024  0.2031 -0.4226
53668W        W96721   1.121   5.835  22.910 -0.1393 -0.0850  0.0066
53669W        W96722  32.823   7.452  28.132  0.1561  0.1626 -0.0112
53670W        W96723  33.300  20.733   1.929 -0.0474  0.0557 -0.3299
53671W        W96724  22.731  26.083  23.376  0.1996 -0.2271  0.1039
53672W        W96725  32.502  26.568  28.301  0.2097 -0.1005 -0.1786
53673W        W96726  24.915   7.306   0.094 -0.1528 -0.1581 -0.1898
53674W        W96727  23.228  13.435  21.057 -0.0594  0.3999 -0.3005
53675W        W96728   7.682  20.758   2.042  0.2136 -0.0429 -0.2414
53676W        W96729   6.043   2.017  26.190 -0.0035 -0.1110  0.2318
53677W        W96730  27.388  23.021   7.440 -0.2019 -0.2022  0.2974
53678W        W96731  34.218  21.435  23.248 -0.2296  0.2189  0.0246
53679W        W96732   8.527  17.752   2.536  0.0143 -0.0107  0.0883
53680W        W96733  16.780   8.363   4.782 -0.3847  0.2011  0.0977
53681W        W96734  20.518   8.510  26.917 -0.3266  0.1924 -0.1245
53682W        W96735  23.755  10.696   5.695 -0.1248 -0.1276  0.2021
53683W        W96736   7.124  19.987  16.998 -0.0213  0.0272 -0.0386
53684W        W96737  30.324  22.716   0.145 -0.1312 -0.1217  0.0745
53685W        W96738  32.096  11.481  20.817 -0.3761 -0.0928  0.1995
53686W        W96739  19.308  28.582   1.922 -0.1168  0.1176 -0.0764
53687W        W96740  31.399  19.235   7.046  0.1300  0.1994  0.1048
53688W        W96741  34.503  10.635  24.235 -0.3580  0.3035  0.0135
53689W        W96742  28.696  10.378  26.271  0.2211 -0.2065 -0.2912
53690W        W96743  33.585  10.658   3.380  0.1374 -0.1351 -0.0106
53691W        W96744   9.036  22.876   7.149 -0.3112  0.3116  0.1070
53692W        W96745   3.743  15.179   2.890 -0.0103 -0.4515 -0.1079
53693W        W96746   1.436  12.194   1.294 -0.3389 -0.4088 -0.2509
53694W        W96747  15.889   9.800  19.423 -0.0020 -0.4131  0.1939
53695W        W96748  21.915  12.383  28.122 -0.1098 -0.2772  0.2239
53696W        W96749  27.080  23.990   7.136  0.0689  0.0046 -0.0477
53697W        W96750   7.870   8.708   0.177 -0.1310  0.0463  0.0743
53698W        W96751   2.541  18.246   1.372  0.0299  0.1482  0.3631
53699W        W96752  27.825   9.192  10.024 -0.1711  0.0410 -0.1290
53700W        W96753  34.278  21.428  21.323  0.0679 -0.0040  0.2455
53701W        W96754  14.124  16.478   3.067 -0.0023 -0.1789 -0.0393
53702W        W96755  25.410   6.792   2.699  0.0669 -0.2221  0.3188
53703W        W96756  30.373  21.256   9.411 -0.0216  0.0097  0.0214
53704W        W96757   1.823  12.330   9.592  0.2700 -0.0483  0.0892
53705W        W96758   0.551  14.595  27.956 -0.1214  0.1153 -0.0135
53706W        W96759  20.458  17.024   2.126  0.1965  0.3216  0.0151
53707W        W96760  30.778  19.685   5.670  0.1658  0.1466 -0.1147
53708W        W96761   4.571  10.701  22.119 -0.1751  0.1409 -0.2252
53709W        W96762   7.749  34.007  28.272  0.0928  0.2057  0.0804
53710W        W96763   9.932   8.830  28.620  0.0830 -0.0901  0.0831
53711W        W96764   0.309   8.570   9.435 -0.1688  0.1576 -0.0876
53712W        W96765  34.253  34.220   2.095  0.0503  0.0756  0.0621
53713W        W96766   5.995   2.187  18.364 -0.0592  0.1086 -0.0405
53714W        W96767  32.214  18.431   2.313 -0.0976  0.0543 -0.1573
53715W        W96768  16.963  15.521  23.745 -0.2644 -0.0833 -0.3359
53716W        W96769   3.137  14.544   3.368 -0.0905 -0.0382  0.1020
53717W        W96770  32.913  29.267   9.611  0.1767 -0.1857 -0.0299
53718W        W96771  27.478  17.215   3.139 -0.0849  0.0923 -0.0377
53719W        W96772  31.239  31.603  25.149  0.0265 -0.1842  0.2658
53720W        W96773  11.233   8.866   9.875 -0.2264  0.3121 -0.1783
53721W        W96774  23.560  17.799  24.206 -0.2570  0.3057  0.0257
53722W        W96775  12.771  12.363  11.078 -0.1767  0.0806  0.0785
53723W        W96776   0.481  16.028   7.378  0.1041 -0.1502  0.0693
53724W        W96777  26.777  32.214   1.084  0.3484 -0.0604  0.1059
53725W        W96778   3.902  12.936   7.634 -0.3063  0.0269  0.4173
53726W        W96779   1.690  28.707   0.604  0.0595 -0.1079 -0.3194
53727W        W96780  29.551  33.800  24.886 -0.0865 -0.0187 -0.2151
53728W        W96781   7.666   6.870  10.237  0.1327  0.0461 -0.4516
53729W        W96782  28.544  12.198  25.333  0.0013 -0.1961 -0.0795
53730W        W96783  10.198  21.011   4.190  0.1836 -0.1846 -0.1701
53731W        W96784  25.767   0.739   8.331 -0.2831 -0.1652 -0.0206
53732W        W96785  24.821   3.698   8.678 -0.2277 -0.2657  0.0066
53733W        W96786  33.696   2.872   3.856 -0.0597  0.3769 -0.1140
53734W        W96787   7.648   3.050  20.919 -0.0890  0.0833 -0.3576
53735W        W96788  34.423  13.671   8.406  0.1156  0.1814  0.0594
53736W        W96789   4.699  23.399   7.531  0.1232  0.2078  0.2567
53737W        W96790  28.410  12.273   5.911  0.4206  0.0299 -0.2276
53738W        W96791   2.373  12.142  26.858  0.0165 -0.1078  0.1310
53739W        W96792   2.132  27.105  26.867 -0.0078  0.0733 -0.0442
53740W        W96793  19.333   7.296   3.320 -0.1786 -0.4506 -0.0772
53741W        W96794  33.798  24.720   2.745 -0.1015 -0.2709 -0.0111
53742W        W96795  10.616  27.144   1.969 -0.3431  0.0542 -0.0333
53743W        W96796   2.740   6.522  13.751 -0.1818  0.1191  0.0545
53744W        W96797  10.388  11.931   0.613  0.3522  0.1953  0.0675
53745W        W96798  34.481  13.208   7.690  0.1462 -0.1119 -0.2184
53746W        W96799   6.603  24.754  24.668 -0.2127  0.2236 -0.0242
53747W        W96800  11.364  10.378   6.430  0.0555 -0.0206 -0.2959
53748W        W96801  26.428   9.689   8.350  0.1292 -0.1438 -0.1888
53749W        W96802  27.628  19.510  25.806 -0.2578  0.1276 -0.0397
53750W        W96803  22.114  18.035   9.088 -0.0492 -0.1031  0.1648
53751W        W96804  26.562  22.233   9.210 -0.1099  0.0833  0.0766
53752W        W96805  31.843   3.226   5.218 -0.1044  0.1235 -0.0794
53753W        W96806  22.633  28.791  18.238  0.2952  0.0490 -0.1505
53754W        W96807  32.078   9.719   8.222  0.2779  0.0139 -0.1958
53755W        W96808   3.148   0.086   4.629 -0.0197  0.0941 -0.1315
53756W        W96809  16.392  20.349  27.413  0.3021  0.0925 -0.2185
53757W        W96810  27.765  15.567   6.744 -0.1712  0.5123  0.0579
53758W        W96811  20.211  13.486  23.038  0.2838  0.0777  0.1667
53759W        W96812  32.638  22.071  22.912 -0.4195 -0.1270  0.2529
53760W        W96813   3.055  22.376   9.990 -0.1906  0.0190  0.0175
53761W        W96814   4.610  12.497   5.308 -0.1951  0.0965 -0.2403
53762W        W96815  34.157   4.256   7.949 -0.1030  0.0532 -0.1525
53763W        W96816  27.240  12.994   9.631 -0.3097  0.1115  0.4783
53764W        W96817  10.104  14.336   9.650 -0.1410 -0.2520 -0.0301
53765W        W96818  17.884  18.004   2.422 -0.1089 -0.2654 -0.3221
53766W        W96819   8.944  13.170   0.509 -0.2700 -0.2198  0.0219
53767W        W96820   0.079  19.039  26.025 -0.2031  0.0608  0.3033
53768W        W96821  27.002  18.898  23.092  0.2518 -0.2107 -0.1331
53769W        W96822   5.454  31.995   1.160  0.0145  0.0861  0.0028
53770W        W96823  11.211   7.195   8.942 -0.0887  0.1692 -0.0371
53771W        W96824  23.197   4.657   1.448 -0.2381  0.2403 -0.3110
53772W        W96825  24.960  12.613   1.431  0.1780  0.0161  0.0586
53773W        W96826  16.909  21.411  17.315  0.1147  0.2010  0.0422
53774W        W96827   2.494   9.340   0.955 -0.0294 -0.2638  0.2949
53775W        W96828  34.467  19.766  24.426  0.0878 -0.0402 -0.1917
53776W        W96829  29.499  22.096   2.309  0.0304  0.0664  0.0562
53777W        W96830   0.898  22.780   8.274 -0.0713  0.1670 -0.1586
53778W        W96831  25.031  11.021   7.314  0.2610  0.0563 -0.1688
53779W        W96832  29.240  12.242  27.711 -0.1189  0.0919 -0.3034
53780W        W96833  11.748  22.140  24.683 -0.0815  0.0091  0.3161
53781W        W96834  25.504  20.561  27.123  0.0842 -0.0381 -0.1632
53782W        W96835   6.585  16.971   4.045  0.0754  0.0285  0.2265
53783W        W96836  33.311  19.677  28.725 -0.0412  0.0131 -0.2066
53784W        W96837  33.730  31.611   8.173  0.0223  0.0254  0.1212
53785W        W96838   2.562  12.215  10.018  0.0540  0.2139 -0.2415
53786W        W96839  25.695  23.383   7.575 -0.1015  0.1820 -0.0742
53787W        W96840   2.453  13.282   5.375 -0.1600 -0.0781  0.2063
53788W        W96841  19.333   8.583  27.922 -0.0258  0.3107 -0.0292
53789W        W96842   8.972  11.042   4.054  0.0320 -0.0721  0.0720
53790W        W96843  33.370  30.812   8.206 -0.1749 -0.2056 -0.1844
53791W        W96844  17.221  18.875  22.473  0.1674  0.1091  0.1533
53792W        W96845  14.373  12.460   6.949  0.2639  0.2008 -0.1629
53793W        W96846  28.736   6.880   2.221 -0.1526 -0.2686 -0.1232
53794W        W96847   1.403  33.435   3.628 -0.0122 -0.0702  0.0736
53795W        W96848  32.214  16.119   7.901 -0.2742  0.0401  0.5224
53796W        W96849   6.324   8.643   3.461  0.1439  0.0713  0.0840
53797W        W96850  25.745  25.075  28.982 -0.2129  0.4125 -0.1390
53798W        W96851  20.393  16.464  25.873  0.2445  0.6269 -0.0072
53799W        W96852   6.982  25.166   9.633 -0.1074 -0.0437 -0.2503
53800W        W96853   4.942   5.311   4.319  0.2109 -0.5388  0.2264
53801W        W96854   0.678  10.030   7.615  0.0893  0.1778  0.1500
53802W        W96855  16.371  19.951  28.380  0.0130 -0.0998  0.0508
53803W        W96856  32.048   8.178   0.307 -0.1928  0.0406  0.0212
53804W        W96857   6.667  26.501   6.160  0.0497 -0.0968  0.0312
53805W        W96858  21.216  28.158  23.789  0.0370  0.0824 -0.2827
53806W        W96859   4.947  19.841   8.986  0.0539  0.1151  0.2480
53807W        W96860  25.197  10.648   4.267 -0.0861 -0.4756 -0.0322
53808W        W96861  24.875   8.814  26.683  0.1306  0.2721  0.1163
53809W        W96862   4.732  12.732   8.857 -0.0403  0.1570  0.2184
53810W        W96863  27.376  23.765  27.885 -0.3419 -0.0518  0.0043
53811W        W96864  25.684   5.293  20.904  0.2682  0.2497 -0.0670
53812W        W96865   1.407   5.335   6.638 -0.0011 -0.0087  0.1047
53813W        W96866  28.785   9.291  29.006  0.1607 -0.2398  0.0849
53814W        W96867  31.369  17.103   9.160 -0.2084 -0.0957 -0.0668
53815W        W96868   4.361   3.151   6.780  0.0371  0.0342  0.3280
53816W        W96869   7.763   3.981   6.631 -0.3460  0.0403  0.0128
53817W        W96870  29.160   6.977   7.200  0.0424  0.0226 -0.0433
53818W        W96871  15.580  19.446  13.961  0.2003 -0.2597  0.3721
53819W        W96872  34.149   8.477   9.227 -0.2438  0.3090 -0.0879
53820W        W96873  33.543   9.652   4.087 -0.2118  0.1863  0.0654
53821W        W96874  22.239  25.566   7.252 -0.1026 -0.2877 -0.1086
53822W        W96875  27.511  11.713  10.152  0.1047  0.0314 -0.2898
53823W        W96876  34.608  14.595   6.262  0.0408 -0.0209 -0.2178
53824W        W96877  26.252  19.433   8.199  0.2256  0.0016  0.0656
53825W        W96878   4.525  22.026   5.188 -0.0881 -0.0547 -0.0047
53826W        W96879  26.639  15.824   8.508  0.0718 -0.1241 -0.5238
53827W        W96880  30.218  23.866   6.867 -0.0711 -0.2022  0.0415
53828W        W96881  25.671  23.498   4.577 -0.0226  0.0382 -0.0728
53829W        W96882   8.125   2.576   7.098  0.1652 -0.1593  0.0406
53830W        W96883   0.278  24.865   9.051  0.0089 -0.2387 -0.1511
53831W        W96884   0.170  27.583  24.576 -0.0261  0.2611 -0.2266
53832W        W96885  33.687  20.087  28.154 -0.1770  0.0679  0.1105
53833W        W96886   0.972  30.628  28.647 -0.0573  0.2495 -0.2078
53834W        W96887  11.379   7.985  25.640  0.1824  0.3593  0.0352
53835W        W96888  32.007  12.754   9.894  0.1422 -0.2437  0.2923
53836W        W96889   3.876   5.794   9.734 -0.0790  0.1692 -0.3705
53837W        W96890  28.498   0.831   3.246  0.4694 -0.1535 -0.3946
53838W        W96891   5.820   2.153   9.733  0.1499 -0.1642 -0.2596
53839W        W96892  12.575  14.046   7.243  0.1354  0.0104  0.0346
53840W        W96893  10.150  23.971   8.065  0.0374 -0.1893 -0.0784
53841W        W96894  34.355   8.775   4.091  0.0014  0.0699  0.2269
53842W        W96895  31.352  11.484  28.058 -0.2241 -0.1891  0.2704
53843W        W96896  25.588  12.488   5.528  0.0082  0.1410  0.1589
53844W        W96897  18.227  10.580   6.763 -0.1592  0.1621  0.1906
53845W        W96898   8.520  10.678   7.838  0.0058 -0.1424 -0.3734
53846W        W96899  26.679  14.423   6.915  0.3163 -0.3833  0.1223
53847W        W96900  24.825  21.636  28.330 -0.0388 -0.1762 -0.1544
53848W        W96901  24.983   3.817  19.096 -0.1111 -0.0181 -0.1283
53849W        W96902   8.829  30.260   5.763 -0.1914  0.2286  0.2958
53850W        W96903   0.622  16.525   7.773 -0.4574  0.1827  0.1847
53851W        W96904  11.456  13.934   0.491 -0.1472 -0.3906  0.1168
53852W        W96905  30.348  34.226   4.829 -0.0400 -0.1315  0.1296
53853W        W96906  26.281  16.635   5.012 -0.0843  0.1487 -0.0149
53854W        W96907  34.302  15.077  24.506  0.2042  0.0245  0.0181
53855W        W96908   6.310  17.308   0.348 -0.0542 -0.2607  0.0317
53856W        W96909   6.680   2.759   7.753 -0.2678  0.0843  0.0423
53857W        W96910  23.396  13.228  24.534 -0.0726  0.0066  0.0331
53858W        W96911  15.357  18.286   1.823  0.0120 -0.0283 -0.0405
53859W        W96912  13.013   1.097   8.938 -0.1075  0.0776  0.0017
53860W        W96913  33.858  14.027   5.912 -0.3513  0.0979 -0.1997
53861W        W96914  22.327  24.947   9.404 -0.1958 -0.0203  0.2279
53862W        W96915  14.155  32.333   3.960  0.1571  0.2937  0.0403
53863W        W96916  28.044  22.328   0.898 -0.1313 -0.1194 -0.0540
53864W        W96917   5.938   9.012  28.872 -0.1750 -0.1848  0.1497
53865W        W96918  28.126  25.713   5.014  0.4332 -0.2125 -0.0037
53866W        W96919  10.283  20.424   4.873 -0.4025 -0.0675 -0.2958
53867W        W96920  21.166   5.556  26.409 -0.4137  0.0986  0.2747
53868W        W96921  27.629  21.739  22.838  0.0707 -0.0310  0.1291
53869W        W96922  30.630  26.740   5.554  0.0783 -0.0963 -0.2938
53870W        W96923  23.401  27.738   5.631 -0.1320  0.0947 -0.1464
53871W        W96924  22.082   4.781   7.629 -0.0117  0.0023 -0.3866
53872W        W96925   2.559  21.940  26.263 -0.3057  0.1554  0.3011
53873W        W96926  26.768  18.427   9.017  0.3918 -0.2751 -0.1442
53874W        W96927  26.402  20.396   5.358 -0.0071  0.3012 -0.0831
53875W        W96928  28.481  14.210   3.908 -0.0016 -0.2537 -0.2479
53876W        W96929  27.809  33.247   1.005 -0.0131 -0.1753 -0.1108
53877W        W96930   4.591  17.829   2.638 -0.1081 -0.1283 -0.0897
53878W        W96931  31.842  30.912   6.504 -0.0615 -0.1734  0.0401
53879W        W96932  27.443  23.643   9.911  0.0048 -0.0873  0.1698
53880W        W96933  30.208  22.555  14.436 -0.0032 -0.1354 -0.0122
53881W        W96934  12.038  12.477   6.441 -0.4686 -0.0836 -0.0500
53882W        W96935  23.555  17.499   0.462 -0.0221 -0.0740  0.4464
53883W        W96936   5.462  24.664   6.823 -0.2184  0.0403 -0.2176
53884W        W96937  34.014  15.118   2.522  0.0333 -0.3062 -0.2027
53885W        W96938   2.871   6.581   5.694  0.1887  0.0994  0.1440
53886W        W96939  29.031  29.104  26.423 -0.1146 -0.0693 -0.2814
53887W        W96940  25.447   6.985  26.343 -0.0336  0.1046 -0.1929
53888W        W96941  32.869  17.717   8.862  0.2581 -0.2499 -0.0475
53889W        W96942  30.533  23.039  27.425 -0.0635  0.0454 -0.2481
53890W        W96943  31.558  11.435   9.073 -0.2578  0.1491 -0.1025
53891W        W96944   7.479  20.474   6.380 -0.3691  0.1653 -0.1293
53892W        W96945  13.811  18.697   2.847  0.1284 -0.0502 -0.1400
53893W        W96946  34.212  19.085  19.602 -0.1631 -0.1281 -0.0096
53894W        W96947   0.055  17.334   8.544  0.0737 -0.4071 -0.3063
53895W        W96948   4.406  14.748  25.093  0.0818  0.1202  0.2082
53896W        W96949   4.110  25.072   7.937  0.0328  0.2814  0.0218
53897W        W96950  32.917  14.301   4.652  0.1091 -0.0534 -0.1358
53898W        W96951   8.559  25.343   5.235 -0.0325 -0.2374  0.0089
53899W        W96952   1.687  12.765   6.844 -0.1119  0.0702  0.0884
53900W        W96953  18.969  34.388  20.011  0.0744 -0.2061  0.0494
53901W        W96954  26.940  29.888   7.440 -0.1766  0.2611  0.0779
53902W        W96955  23.922  11.203  23.788  0.1096 -0.1448  0.6504
53903W        W96956  17.040  28.665  27.722 -0.1545  0.2196  0.0917
53904W        W96957   3.201   8.284   2.600  0.0417  0.2003  0.0552
53905W        W96958  32.790  23.661  28.598  0.0233  0.0333  0.0991
53906W        W96959  14.844  17.478   2.857 -0.0667 -0.1549  0.2615
53907W        W96960  32.291  21.002   7.486  0.0324  0.2325  0.0924
53908W        W96961  27.843  14.893   4.808  0.1137 -0.0244 -0.2153
53909W        W96962  21.379  16.200  28.536 -0.3785  0.2420 -0.3231
53910W        W96963   9.370  24.819  23.573 -0.0556  0.1611 -0.0013
53911W        W96964  34.212   1.793  17.196 -0.1306 -0.3986  0.5069
53912W        W96965   4.670  12.999   0.571 -0.0890 -0.0781  0.1047
53913W        W96966  24.662  20.661   5.179 -0.1357  0.0397 -0.0493
53914W        W96967   2.424  18.533  26.082  0.1396  0.0700  0.1802
53915W        W96968   1.510  26.766  16.437 -0.2709  0.1109  0.1544
53916W        W96969  28.586  29.144  16.327  0.2000  0.2469 -0.0196
53917W        W96970  13.398  23.375  27.026 -0.0253 -0.2257  0.0195
53918W        W96971  25.315  31.424   0.460 -0.1852  0.1843 -0.0250
53919W        W96972   0.400  22.862   1.283  0.0997 -0.1296  0.2853
53920W        W96973  24.733  23.625  21.153 -0.2829  0.1435 -0.2724
53921W        W96974  26.093  34.368   0.498 -0.2728  0.0008 -0.2807
53922W        W96975  27.254  28.473   5.049  0.0345 -0.1062 -0.0193
53923W        W96976  24.499  22.258   8.196 -0.0966  0.0447 -0.2334
53924W        W96977  27.772  19.186  25.389  0.0477  0.1474 -0.0242
53925W        W96978  13.289   8.273   5.892 -0.1012  0.1165  0.1027
53926W        W96979  30.017  12.948  25.697  0.2594 -0.3197 -0.2695
53927W        W96980   7.261  23.511   6.759  0.1356 -0.2465 -0.1188
53928W        W96981  34.289  21.433  14.768 -0.1209  0.1373  0.0086
53929W        W96982  31.927  10.470   7.721 -0.2515 -0.0331  0.1088
53930W        W96983  14.730  20.324   7.065 -0.1029 -0.2830 -0.0398
53931W        W96984  28.479  30.805  28.343 -0.2034 -0.2679  0.1319
53932W        W96985   6.948  11.642  26.686 -0.1144  0.2241  0.1622
53933W        W96986  28.377   8.988  21.431 -0.1667 -0.3481  0.1016
53934W        W96987   0.705   2.390  23.256 -0.0627 -0.4454  0.1191
53935W        W96988   1.536  23.127  28.733  0.0102  0.1608  0.1695
53936W        W96989   7.146  17.662  27.465  0.3668  0.1679  0.0035
53937W        W96990   2.960  25.929   8.192 -0.3815 -0.2577  0.0719
53938W        W96991   3.976  10.893   4.186  0.2920 -0.2691 -0.0152
53939W        W96992   3.018  31.286   4.062  0.0500  0.1981  0.2760
53940W        W96993  24.160  10.766   7.338 -0.0604  0.0534 -0.0074
53941W        W96994   9.968  13.412   8.731  0.3427  0.2989 -0.3120
53942W        W96995  23.208  30.007  23.045  0.1539  0.1120  0.3559
53943W        W96996   6.606  23.180  27.663 -0.2163  0.0336  0.1121
53944W        W96997  28.834  26.837   9.178  0.0229 -0.0326 -0.1226
53945W        W96998  30.095   8.475   9.113 -0.0372  0.1816  0.1289
53946W        W96999   5.937   6.242   1.416 -0.3693 -0.3784  0.3984
53947W        W97000  17.441   7.121   0.902 -0.1753  0.4383  0.2787
53948W        W97001  29.827  30.030   0.470 -0.0029 -0.0237 -0.4728
53949W        W97002  28.056   1.383  25.906  0.1726 -0.0385 -0.1830
53950W        W97003  23.707  14.652  18.942 -0.0066 -0.1507 -0.0955
53951W        W97004   9.587  32.499   3.486 -0.0760 -0.1871 -0.1880
53952W        W97005   8.194  14.443  24.252  0.1724  0.0070 -0.3120
53953W        W97006  29.647  14.639  26.514  0.2901 -0.0378 -0.2969
53954W        W97007  34.374  17.056   7.965 -0.2444 -0.1734  0.0198
53955W        W97008  27.889  23.252   2.132 -0.1443 -0.2113 -0.0406
53956W        W97009   3.227  27.895  20.155  0.3540  0.0479 -0.1061
53957W        W97010   0.185  11.568   8.220  0.3103  0.1273  0.0183
53958W        W97011  28.676   8.236   5.350  0.0429  0.1706  0.0032
53959W        W97012  33.174  10.197   8.791  0.0293  0.0627 -0.1505
53960W        W97013   2.774  33.461   5.533  0.1487  0.2285 -0.3050
53961W        W97014  33.303   1.749  28.001 -0.4550 -0.1794 -0.0097
53962W        W97015   3.301  26.545   6.402  0.1103  0.1048 -0.2921
53963W        W97016  34.023  26.236  18.959  0.1351 -0.0632 -0.0468
53964W        W97017  24.343   3.615   6.577 -0.1868  0.0838 -0.0534
53965W        W97018   1.247  13.065  25.900  0.0727  0.2047 -0.2942
53966W        W97019  20.842  23.811   7.317  0.1413 -0.1124  0.3243
53967W        W97020  31.213  17.474  19.675  0.1760  0.1576 -0.1787
53968W        W97021  34.513   8.905  25.221  0.1078 -0.5142 -0.0404
53969W        W97022  24.864   7.884  23.776 -0.0098 -0.4009 -0.1188
53970W        W97023  24.345  14.795   7.187 -0.2887 -0.0519  0.2365
53971W        W97024  15.008  13.139   8.793  0.0961 -0.3085 -0.2151
53972W        W97025  32.147  16.069  23.300  0.0027  0.0886  0.0046
53973W        W97026   2.674  17.697  19.779 -0.2538 -0.1276  0.1332
53974W        W97027  27.490  21.773  16.410  0.0350 -0.0919  0.3889
53975W        W97028  23.038  23.683  10.847  0.0650 -0.1292  0.1020
53976W        W97029  23.829  29.648   8.665  0.0698 -0.0132  0.0697
53977W        W97030   9.751   9.299  10.857  0.0701 -0.1864  0.1600
53978W        W97031   0.427  20.982   4.478 -0.0311 -0.4638  0.0822
53979W        W97032  25.543  11.143  15.004  0.0206 -0.1120 -0.4031
53980W        W97033  10.191  26.361   5.214  0.0798 -0.4021 -0.1483
53981W        W97034  30.935  28.659   2.563  0.1080  0.3077  0.1834
53982W        W97035   0.611  15.651   0.401 -0.3025 -0.3536 -0.1791
53983W        W97036   6.397  16.546  24.964  0.4777  0.3939 -0.1934
53984W        W97037  22.514   4.052  17.172 -0.2297  0.0066 -0.0735
53985W        W97038   1.039  21.534  26.708 -0.0061  0.0979  0.1980
53986W        W97039  32.177  30.206   6.084  0.0659  0.4580 -0.1860
53987W        W97040  34.619  32.007   1.077  0.1384  0.0103 -0.1451
53988W        W97041   3.319  15.340  26.775 -0.3168  0.0149  0.0821
53989W        W97042   3.217  21.110  29.129 -0.0999  0.2237 -0.2389
53990W        W97043  31.863   1.133  27.024 -0.4013 -0.0787  0.1752
53991W        W97044   1.172  24.757   2.492 -0.2418  0.6448 -0.1431
53992W        W97045  11.630  21.148   8.506  0.2496 -0.2118  0.0900
53993W        W97046   4.667  31.454  17.464 -0.0257 -0.2813 -0.1063
53994W        W97047  12.323   6.989   1.501 -0.1116 -0.0320 -0.3535
53995W        W97048  10.965   0.559   7.561  0.1166 -0.1465 -0.1652
53996W        W97049  33.911  19.016  29.084 -0.1879  0.2203 -0.3184
53997W        W97050  28.931  31.336   5.869 -0.0752 -0.0568  0.1289
53998W        W97051   2.539  18.985   3.772  0.4040 -0.1566  0.1677
53999W        W97052   2.184  21.984  18.186  0.0284  0.1244 -0.4193
54000W        W97053  10.595  34.640  11.070 -0.1181 -0.3570  0.2426
54001W        W97054  28.427  13.950  27.885  0.0457 -0.1308  0.0607
54002W        W97055   2.126  11.740  29.156  0.3298 -0.1161 -0.0285
54003W        W97056  22.132  20.588  27.878  0.0252 -0.0322  0.1680
54004W        W97057  18.498  21.635  26.219  0.3003  0.1105 -0.1464
54005W        W97058  30.296  20.167  16.014 -0.2945 -0.0714 -0.0732
54006W        W97059  21.704  20.580  21.223  0.0269  0.1173  0.2615
54007W        W97060  12.467   6.830   7.811 -0.2310  0.2400 -0.0957
54008W        W97061   1.011  17.265  20.867 -0.2072  0.0202  0.0650
54009W        W97062  26.332  25.964   6.338 -0.0589 -0.0222  0.1175
54010W        W97063  19.744  22.605   4.494 -0.1883 -0.0269  0.1041
54011W        W97064   6.143  15.767  28.158 -0.0503 -0.2250 -0.0179
54012W        W97065  11.508  11.180   7.759 -0.0844  0.2219  0.0605
54013W        W97066  25.282  13.895   7.177 -0.0861  0.2615 -0.0929
54014W        W97067   9.272  23.076  16.867 -0.0263  0.3783  0.1641
54015W        W97068   4.294  31.819  20.663 -0.0579 -0.0238 -0.0852
54016W        W97069  24.465  30.663   3.886  0.1006  0.0811  0.0709
54017W        W97070  10.788  12.243   1.001  0.0484  0.3924  0.0120
54018W        W97071  33.692  10.213  17.682 -0.0341  0.3250 -0.1761
54019W        W97072  10.371   6.361  19.840  0.1202  0.0310 -0.2585
54020W        W97073   2.997   9.949   2.596 -0.3314  0.4126  0.0418
54021W        W97074  20.115  23.727  26.305 -0.2331  0.1807 -0.3260
54022W        W97075   5.757  17.753  28.061  0.0220  0.0916 -0.0921
54023W        W97076  27.448   8.185   4.965 -0.2219 -0.0849 -0.1525
54024W        W97077  25.135   3.039   9.888 -0.3134  0.1515 -0.1461
54025W        W97078   1.233  29.586  24.320  0.5469  0.1199 -0.3319
54026W        W97079  15.513  21.381  17.966 -0.1452  0.2472  0.2189
54027W        W97080  28.431  19.070  24.017  0.0166  0.0214  0.1871
54028W        W97081  25.086  25.006   5.571  0.3581 -0.1599 -0.1843
54029W        W97082  22.004   8.404   3.030 -0.3558  0.5372  0.0261
54030W        W97083  23.709   2.965  26.834 -0.1628 -0.1130  0.0507
54031W        W97084  12.651   3.490   4.691 -0.1388 -0.2378 -0.1349
54032W        W97085  29.011  29.884  17.525  0.0453  0.0358  0.0510
54033W        W97086  32.853  14.197   7.419 -0.1638  0.1256  0.1866
54034W        W97087  25.173  29.110  18.491  0.1013 -0.2057  0.0974
54035W        W97088  28.197  28.246  23.930  0.1458 -0.0010 -0.2433
54036W        W97089  24.225  10.381  23.412 -0.0482 -0.2180 -0.0438
54037W        W97090   3.152  21.931  28.154 -0.2328 -0.0797 -0.0194
54038W        W97091  30.367  18.362  14.305 -0.0373 -0.4803 -0.1028
54039W        W97092   9.148  22.509  24.075 -0.0658  0.1195  0.0356
54040W        W97093  15.944  26.875   9.907  0.1079  0.1774 -0.3799
54041W        W97094  24.482  11.466  25.044 -0.0895 -0.1705  0.1863
54042W        W97095  23.807   2.462  25.193 -0.0546 -0.0063 -0.1620
54043W        W97096  30.193  31.150   2.120 -0.0685  0.1654 -0.2684
54044W        W97097  29.581  23.604   3.403  0.1567 -0.0433 -0.1594
54045W        W97098  19.587  18.457  24.988  0.0799 -0.3478 -0.1617
54046W        W97099   7.387   0.207   3.866  0.0827  0.1518 -0.2384
54047W        W97100  23.530  13.670   6.595  0.2158  0.0301  0.1718
54048W        W97101   3.838   5.124  27.509  0.0798  0.0398 -0.1153
54049W        W97102  25.967  24.625   8.259 -0.2613 -0.0716  0.0604
54050W        W97103  22.078  28.310   7.816 -0.0337 -0.2876  0.2112
54051W        W97104  29.742  33.028  22.991  0.0206 -0.0928  0.0547
54052W        W97105  33.509  18.452   9.137  0.0221  0.3562  0.0131
54053W        W97106   8.853  29.270   5.610  0.0260  0.2141 -0.0403
54054W        W97107  24.464   6.623   0.180  0.1388  0.1473 -0.0272
54055W        W97108   7.966  22.886   5.729  0.0481 -0.0378 -0.3665
54056W        W97109  24.954  24.897  25.275 -0.1956  0.0717  0.2263
54057W        W97110   4.015  21.794   2.205 -0.0209 -0.1967 -0.0715
54058W        W97111  27.441  28.882   3.147  0.1099 -0.0787 -0.4396
54059W        W97112   2.316  27.056  25.518 -0.0276  0.1453  0.0728
54060W        W97113  19.495  12.831   6.245 -0.0939  0.0404 -0.1139
54061W        W97114  33.885  16.573   9.097 -0.1445  0.1851  0.0637
54062W        W97115  33.158  21.249  18.497  0.2350  0.0078  0.1530
54063W        W97116  33.489  33.071   9.466 -0.1995  0.1231  0.2108
54064W        W97117   2.189  17.808   8.937 -0.2076 -0.1958  0.0346
54065W        W97118  30.877  11.537  20.142 -0.0518 -0.0347 -0.3651
54066W        W97119   5.954  15.037  26.645  0.2201  0.0645  0.2335
54067W        W97120   9.303  11.507   1.264 -0.1981  0.0142  0.2229
54068W        W97121   2.963  13.020   0.882 -0.2078  0.0465  0.0469
54069W        W97122  31.688  11.834   8.367 -0.2095  0.0985  0.1784
54070W        W97123   9.083  17.895  28.031  0.0395 -0.1536  0.1267
54071W        W97124  14.559  25.064   4.114 -0.2537  0.2107  0.0191
54072W        W97125  27.391  18.746   1.498  0.1296  0.0990  0.0633
54073W        W97126  31.177  16.864  28.555 -0.2867 -0.1359 -0.1881
54074W        W97127  30.081   1.764  25.112 -0.1454  0.0851 -0.2018
54075W        W97128  34.390  19.461   7.960 -0.1211 -0.0144  0.0463
54076W        W97129   8.245  23.139  22.852  0.0772 -0.4442 -0.1403
54077W        W97130  16.142  15.073  22.641  0.4308 -0.0450  0.0711
54078W        W97131   5.569   3.576   6.668  0.2596 -0.0274  0.1332
54079W        W97132  27.504   8.119   4.463 -0.0746  0.2012 -0.2700
54080W        W97133  24.947  16.614   6.670  0.0047  0.2445  0.0073
54081W        W97134  21.093  29.965  14.618  0.0296  0.1596 -0.3243
54082W        W97135  23.465  14.984  23.740 -0.2587  0.4287 -0.0402
54083W        W97136  11.731  15.529   0.346 -0.0345 -0.0233  0.0302
54084W        W97137  31.575  25.431  27.173 -0.0778  0.1431  0.1273
54085W        W97138  10.653  11.040  24.553  0.0041  0.1848  0.0113
54086W        W97139  26.877   0.107   1.873 -0.0180  0.1206 -0.0375
54087W        W97140   3.548  31.720  26.231 -0.0814 -0.0263 -0.0329
54088W        W97141  15.688  12.891  24.899 -0.0454  0.0574  0.2563
54089W        W97142  22.921  22.055   8.788 -0.0413 -0.1980  0.2091
54090W        W97143  25.269  22.631   1.004  0.0757 -0.2146  0.3017
54091W        W97144  33.530  29.409  17.932  0.0031 -0.0117  0.2307
54092W        W97145  31.174  31.225   9.374 -0.3048  0.2819 -0.0704
54093W        W97146  25.723  18.560  16.682  0.1065  0.3753  0.2033
54094W        W97147  10.390  18.894  20.324 -0.1865  0.1405  0.0438
54095W        W97148   5.830   7.565   7.097  0.2640  0.2251  0.2144
54096W        W97149  14.677   0.979  21.039 -0.0101  0.0031  0.0918
54097W        W97150  29.649  34.303   3.070 -0.0060  0.0629  0.3086
54098W        W97151  23.421  24.598   7.929 -0.2736 -0.0203 -0.1448
54099W        W97152   4.751  16.397  26.311  0.1746 -0.0288  0.0532
54100W        W97153   0.911  15.407  17.470  0.2032  0.2598  0.1628
54101W        W97154   4.015  28.243  28.946 -0.0176 -0.0975 -0.0975
54102W        W97155   3.244   7.578   6.495  0.1478 -0.1102 -0.1013
54103W        W97156  21.268  20.924   5.166 -0.1948  0.0606 -0.1956
54104W        W97157   2.108  11.075  14.626 -0.2429  0.0753  0.1200
54105W        W97158  29.119   6.745  24.668  0.2449 -0.0325  0.0071
54106W        W97159  22.652  15.104   2.069  0.1534  0.1935 -0.0498
54107W        W97160  27.270  32.464   3.551 -0.1886  0.1440  0.0110
54108W        W97161   8.580  15.699   6.572 -0.1765 -0.1109  0.2762
54109W        W97162  26.909  17.705   2.361  0.1064  0.0518 -0.0576
54110W        W97163  32.428  18.372  24.398  0.0712 -0.1310 -0.2812
54111W        W97164  25.769  23.476  21.366  0.0785 -0.1016 -0.2132
54112W        W97165   0.021  29.972  18.437 -0.1597  0.2068  0.3391
54113W        W97166  14.815  26.520  28.308 -0.0692  0.3830  0.3759
54114W        W97167  24.620  12.731   9.088  0.1612 -0.1303 -0.5215
54115W        W97168   8.355  29.509   2.272  0.0203 -0.0339 -0.2011
54116W        W97169   3.329  28.261   1.053  0.0893  0.3055 -0.1690
54117W        W97170   2.647  18.045  16.895 -0.2899 -0.0470 -0.2127
54118W        W97171  11.822  19.397  22.219 -0.1584 -0.1603  0.3625
54119W        W97172   4.370   1.879   3.404 -0.1525 -0.0244  0.0594
54120W        W97173  28.197  23.462   8.449  0.0910 -0.1091  0.2911
54121W        W97174  27.457   3.817   4.981 -0.0133 -0.5700  0.3572
54122W        W97175  16.847  14.932  27.725 -0.1908  0.2494 -0.0043
54123W        W97176  28.912  15.747   4.814  0.0406 -0.1975  0.2645
54124W        W97177  34.482  13.340  24.014 -0.0906 -0.3089 -0.1145
54125W        W97178  26.233  20.397  27.509  0.3250  0.4285 -0.0135
54126W        W97179   1.603  13.616  24.752 -0.0906 -0.0472 -0.0678
54127W        W97180  23.366  31.762  19.663 -0.1931 -0.1714  0.1305
54128W        W97181  34.565  28.439  24.861 -0.0001 -0.1583 -0.0624
54129W        W97182  29.299  32.826   3.372  0.1682  0.0365  0.1469
54130W        W97183  10.105  13.420  23.093  0.1708  0.0378  0.0243
54131W        W97184   3.646  34.210  26.935 -0.2138  0.0360  0.2925
54132W        W97185  31.244  20.658  28.187 -0.2421 -0.0364  0.1858
54133W        W97186   0.984   0.526   8.891  0.1102  0.2195  0.0336
54134W        W97187   4.169  16.356  27.918 -0.1879 -0.2699  0.0403
54135W        W97188  18.177  26.642   4.217  0.1248  0.1224  0.0914
54136W        W97189  26.781  23.925  23.325 -0.1421  0.1601 -0.0728
54137W        W97190  24.560  30.717   6.165 -0.2268  0.1054  0.1479
54138W        W97191  16.421  12.222   6.571 -0.2397  0.2881 -0.2495
54139W        W97192  28.416  10.121   4.247 -0.2864  0.2362 -0.3139
54140W        W97193   2.626  29.666   1.999 -0.1293  0.0856 -0.0219
54141W        W97194  29.277  22.665   4.681  0.2010 -0.1772  0.0984
54142W        W97195  30.452  31.211  28.283 -0.1719 -0.1271 -0.1225
54143W        W97196   6.045  10.609  18.594  0.0288 -0.0078 -0.1944
54144W        W97197   1.038  20.232   4.778 -0.1880 -0.0160  0.2167
54145W        W97198  25.700  19.987   3.563 -0.2484  0.4208 -0.5440
54146W        W97199   0.672  24.240   3.823  0.2738  0.2470 -0.3406
54147W        W97200  20.444  19.221   6.047 -0.2706 -0.2244 -0.0958
54148W        W97201  23.434  19.786   2.048  0.0453 -0.0353 -0.5601
54149W        W97202   0.285  10.735   6.020  0.0297 -0.3207 -0.1188
54150W        W97203   5.746   2.760  26.079 -0.1801 -0.2200  0.4816
54151W        W97204  15.745  28.024  10.298  0.2569  0.0317 -0.1756
54152W        W97205   9.689   3.533   6.925  0.0266 -0.1202 -0.1675
54153W        W97206  14.245  33.275  20.470 -0.0205 -0.2718  0.0324
54154W        W97207  30.923  12.040   4.078  0.2477 -0.0787 -0.1090
54155W        W97208   9.513  14.575  19.023 -0.1284  0.0292 -0.3092
54156W        W97209   7.525  20.112   7.788 -0.4646 -0.2303 -0.0404
54157W        W97210  22.142  16.552  18.278 -0.2870 -0.1266 -0.1713
54158W        W97211  16.706   4.054  10.084  0.0412  0.0696 -0.1944
54159W        W97212   1.012  32.811   4.865 -0.0488 -0.0687 -0.2404
54160W        W97213   0.011  17.468   1.811 -0.2214  0.0949  0.0256
54161W        W97214  30.794   6.431   9.989  0.0937 -0.1382  0.3160
54162W        W97215   0.491  30.301   0.131 -0.2372  0.0881  0.0473
54163W        W97216  18.599   6.696  26.051  0.1475  0.1198  0.1986
54164W        W97217   0.080  17.829  27.192 -0.0110  0.0097 -0.1380
54165W        W97218  17.468  22.746  24.706 -0.4090 -0.3004 -0.1784
54166W        W97219  26.556  15.447   0.249  0.0844 -0.0276  0.0514
54167W        W97220  31.105  19.105  26.071 -0.0049 -0.0167  0.0281
54168W        W97221  33.109  25.179   1.632  0.1150  0.0259 -0.2536
54169W        W97222  27.519  33.668  19.606 -0.3354  0.1305 -0.1573
54170W        W97223  30.846  18.463   6.528  0.1670 -0.2225  0.0596
54171W        W97224   3.409   8.484  28.713 -0.1023  0.1090 -0.0873
54172W        W97225  16.629  23.473   3.786 -0.0441  0.0124 -0.2624
54173W        W97226   9.758  16.769  10.582  0.0137  0.0780 -0.1997
54174W        W97227  27.368   6.199  28.366  0.0221  0.3179  0.0546
54175W        W97228  33.040  24.223   6.854 -0.1115  0.0887  0.2200
54176W        W97229   1.142  19.984  24.738 -0.1281  0.1445 -0.1010
54177W        W97230  31.974  20.909  28.757 -0.4790  0.2433 -0.0233
54178W        W97231  32.065  23.422  27.857  0.1523 -0.0886  0.0262
54179W        W97232  12.843  13.121  26.932 -0.0353  0.0511 -0.2235
54180W        W97233  34.087  17.112   7.157  0.1712 -0.1786  0.1963
54181W        W97234  28.774  22.146   1.852 -0.0235  0.1603 -0.2474
54182W        W97235  31.664  24.751   8.217  0.2242 -0.2275 -0.1619
54183W        W97236  32.139  22.358   3.147  0.1228  0.0296 -0.0197
54184W        W97237  24.263  26.121   4.889  0.1157 -0.2319  0.1877
54185W        W97238  25.484  12.689   9.402  0.1981  0.2294 -0.1205
54186W        W97239  29.116  17.918  17.027 -0.3422  0.3045 -0.0821
54187W        W97240  33.679  22.081  27.911 -0.3418 -0.1303 -0.2833
54188W        W97241  21.251  10.730   4.324 -0.1266  0.0403 -0.2928
54189W        W97242   5.955  17.803  22.986  0.2446  0.0046  0.1353
54190W        W97243  33.745   7.404  28.536 -0.0930 -0.0732 -0.0015
54191W        W97244  30.605  28.457  20.847 -0.0233  0.0334 -0.2088
54192W        W97245  30.755  20.631   8.605  0.0074  0.0737 -0.2387
54193W        W97246   1.771  16.386  28.245  0.2356 -0.3308  0.0211
54194W        W97247   6.770  17.162   5.305  0.1176  0.3537 -0.0411
54195W        W97248  21.316  16.983   3.949 -0.0649  0.0610 -0.2010
54196W        W97249   6.995  25.512  22.155  0.0258  0.1070  0.0596
54197W        W97250  21.588  19.346  24.797  0.1918 -0.2071  0.0535
54198W        W97251   1.092  21.804  19.743  0.2789  0.0104  0.1363
54199W        W97252  33.867  16.186  24.878 -0.0462 -0.1587 -0.0666
54200W        W97253  17.487  32.106   0.594 -0.1429 -0.0038  0.1242
54201W        W97254  31.247  15.939  20.231  0.0416  0.0127 -0.1481
54202W        W97255   2.311  30.819  27.531  0.0274  0.1341  0.1315
54203W        W97256   1.173  12.862   2.044 -0.0208  0.0980  0.1451
54204W        W97257  28.981  31.961   6.535  0.0568  0.1998 -0.0485
54205W        W97258  21.473  12.547  23.373  0.2767 -0.2449  0.2413
54206W        W97259   3.801  28.210   5.391 -0.2342  0.0654 -0.1093
54207W        W97260  22.491  19.845   9.201 -0.0036  0.2959 -0.0014
54208W        W97261  27.848  14.078  16.102  0.0417 -0.0614  0.0240
54209W        W97262  30.125  11.667   3.416 -0.5288  0.1340  0.0050
54210W        W97263   1.552  14.888  24.039 -0.0572  0.1021  0.2466
54211W        W97264  28.610  22.339   6.388  0.2129 -0.0540 -0.2906
54212W        W97265  18.786  16.976  28.142  0.1237 -0.2098 -0.2564
54213W        W97266  32.952  16.155   2.962 -0.2814  0.0529 -0.2537
54214W        W97267  12.921  23.541   4.793 -0.0305 -0.0584 -0.1739
54215W        W97268   3.242  17.658   3.363  0.1319 -0.4605 -0.0131
54216W        W97269  19.519  14.205  28.401  0.2624  0.0194  0.0637
54217W        W97270   1.579  19.720   1.387 -0.0685  0.4563  0.0647
54218W        W97271  22.388   4.769   6.519  0.0372 -0.0849  0.1290
54219W        W97272   5.478  30.200   3.280 -0.1028  0.3011  0.1158
54220W        W97273  32.249  19.937   4.230 -0.1144 -0.1057  0.0283
54221W        W97274   3.604  21.933   4.338 -0.0519  0.2043 -0.1535
54222W        W97275   3.421   2.875   5.907 -0.0636 -0.2589  0.0536
54223W        W97276   3.443  19.155   8.548  0.0485  0.1992 -0.0849
54224W        W97277  11.803  29.379  15.384 -0.0791 -0.0386 -0.2332
54225W        W97278  33.506   9.663  10.132  0.0362 -0.2069  0.0237
54226W        W97279  14.922  11.281   8.539  0.1635 -0.2291  0.3491
54227W        W97280  17.782  23.355   5.910  0.0967  0.0968 -0.0246
54228W        W97281  19.480   9.472   0.594 -0.0936 -0.0199 -0.0860
54229W        W97282   0.842  18.890   9.184  0.0423 -0.2614 -0.1484
54230W        W97283  18.962  17.195  22.020 -0.2608 -0.0640  0.1274
54231W        W97284  22.511  32.531   7.803 -0.0534  0.0287 -0.0734
54232W        W97285  33.450  13.133   3.670  0.1787  0.0303 -0.0970
54233W        W97286   8.168  14.559   8.432  0.0477 -0.4033  0.2428
54234W        W97287  27.616  15.219  28.628 -0.4144  0.0154 -0.2163
54235W        W97288   7.414  21.978   8.402  0.2938 -0.3073  0.1187
54236W        W97289  21.640   7.503  18.634  0.1275  0.2961 -0.1064
54237W        W97290   5.085  17.411  18.064  0.0921  0.0110  0.0052
54238W        W97291  28.310  26.351   3.522  0.2242  0.1342  0.0684
54239W        W97292   4.820  12.802  28.837 -0.1102  0.1336 -0.3099
54240W        W97293  21.500  19.495   3.453  0.0436 -0.0169 -0.1692
54241W        W97294   5.736  24.629   8.062 -0.1201 -0.1440  0.1259
54242W        W97295   1.953   2.581  13.657  0.0471 -0.0624 -0.1447
54243W        W97296  10.931  25.727  20.539  0.1614  0.3457  0.0372
54244W        W97297  27.776  28.613  24.829  0.1854  0.1433 -0.0380
54245W        W97298  10.627  23.992  27.391 -0.0763  0.0333 -0.1311
54246W        W97299  17.873   6.471  10.233 -0.0188 -0.3775  0.5099
54247W        W97300  18.489  19.023  22.798  0.0979  0.0488  0.1925
54248W        W97301  34.293   2.331  25.747  0.1713  0.0881 -0.1512
54249W        W97302  11.685  31.891   4.836  0.1455 -0.2043  0.2765
54250W        W97303  24.667  21.829   2.992  0.1004 -0.0873  0.1127
54251W        W97304  25.445  19.593   3.250  0.0520 -0.1544  0.2183
54252W        W97305  21.645   8.694   5.349 -0.0143  0.1436 -0.3890
54253W        W97306  30.655  19.032   8.928 -0.2950  0.0997  0.0647
54254W        W97307  21.928  16.059   2.356  0.2015  0.0924  0.3112
54255W        W97308   0.555  25.082   9.492 -0.1097 -0.0606  0.1335
54256W        W97309  28.037  11.598   5.210 -0.1663 -0.0141  0.2245
54257W        W97310  30.011   6.157   2.935  0.1795 -0.0007  0.1177
54258W        W97311  11.207  21.542   0.715 -0.0830  0.0137  0.0362
54259W        W97312   1.498  11.430   6.143  0.1049 -0.0385  0.2697
54260W        W97313   4.246   9.935   1.343  0.0230  0.1281 -0.0761
54261W        W97314  21.246  29.176   3.839 -0.1742  0.2098  0.2741
54262W        W97315   7.496  14.156   9.194  0.1591 -0.2749  0.1894
54263W        W97316  27.902  27.910   4.880  0.1991 -0.0712 -0.4158
54264W        W97317   1.227   3.410  10.326 -0.3863 -0.2011 -0.2262
54265W        W97318  28.940  16.945   3.268  0.0633  0.1188 -0.2100
54266W        W97319  24.555  11.572  15.086 -0.0565  0.1326 -0.1483
54267W        W97320   6.294  18.840  27.708  0.0518 -0.1067  0.1653
54268W        W97321  34.008  20.596   7.113 -0.2498  0.3240  0.2288
54269W        W97322   9.393  11.007  25.797 -0.3465 -0.1889  0.0216
54270W        W97323   8.222   4.977   7.696 -0.2587  0.3891  0.0024
54271W        W97324  29.401  28.265  24.040  0.0656  0.1857  0.0599
54272W        W97325  22.471   5.417   0.492 -0.0491 -0.0463  0.1473
54273W        W97326  17.175  14.455  10.199 -0.1767 -0.0060  0.2266
54274W        W97327  32.841   8.619   9.975 -0.0427  0.1350 -0.0641
54275W        W97328  10.574  32.433   3.574  0.0401 -0.0236 -0.0412
54276W        W97329  13.283  23.057   5.292 -0.1063  0.3023 -0.0649
54277W        W97330  34.629  12.231   4.065  0.0072  0.2697  0.0085
54278W        W97331  22.159  11.625  20.615 -0.0204  0.1584  0.1658
54279W        W97332  12.806   2.415   9.123 -0.2081  0.1957 -0.2080
54280W        W97333  32.940  17.993   1.306 -0.0595  0.0791  0.1602
54281W        W97334  24.581   9.231  17.003  0.0366  0.1303  0.2434
54282W        W97335   9.172  24.957  25.990 -0.0331  0.0774 -0.1041
54283W        W97336   4.300  16.533   6.337 -0.1656  0.3810 -0.3771
54284W        W97337  22.431  24.755  10.361  0.0806  0.1003  0.2293
54285W        W97338   8.561  26.991   5.166  0.3221 -0.1944  0.1988
54286W        W97339  24.468   6.856  16.697 -0.1118 -0.0488 -0.1743
54287W        W97340  32.966   9.350   7.011 -0.3456  0.1281 -0.0566
54288W        W97341   6.324  16.304  22.696 -0.3257 -0.1944 -0.2210
54289W        W97342  34.651  18.405  28.436 -0.0176 -0.1179 -0.0808
54290W        W97343  29.907  11.530  15.300  0.2236 -0.2438  0.0079
54291W        W97344   1.734  18.263  17.327 -0.0813  0.2591 -0.5342
54292W        W97345  12.309  24.012   6.307 -0.3331  0.0204 -0.0937
54293W        W97346  24.882  19.277   7.880  0.0361 -0.0242 -0.0744
54294W        W97347   7.656   4.975   2.806  0.1830 -0.1733 -0.2463
54295W        W97348   5.330  18.811   8.038 -0.1718 -0.2129  0.0627
54296W        W97349  29.367  34.545   0.701 -0.0909  0.0899 -0.0786
54297W        W97350   8.820  22.645   7.609 -0.0778  0.0042 -0.0323
54298W        W97351   5.959  26.183  18.493  0.1791 -0.2453 -0.0559
54299W        W97352  27.188  32.293  25.511 -0.0299  0.0860  0.1023
54300W        W97353   0.633  12.105   1.308 -0.0633  0.1389  0.1532
54301W        W97354   8.774  14.581  10.194 -0.2273  0.0312  0.1067
54302W        W97355   2.075  28.125   1.269  0.0395 -0.0331  0.2857
54303W        W97356  12.529  27.375   7.219 -0.0367  0.1530  0.2782
54304W        W97357   2.837  26.956   3.986 -0.2068  0.1473  0.2018
54305W        W97358  11.178   4.160  28.247  0.0613 -0.0033  0.2231
54306W        W97359  25.381   6.478   3.540  0.0133 -0.2940 -0.2979
54307W        W97360  27.043  21.421   0.029  0.1704  0.1222  0.1599
54308W        W97361  16.208   7.726   4.068  0.0172 -0.1374 -0.2125
54309W        W97362  34.063  19.337   3.148  0.0030 -0.2821 -0.0338
54310W        W97363  22.858   2.940   0.028 -0.0690  0.0491  0.2084
54311W        W97364  26.729  25.405  27.992  0.2160  0.1590  0.0300
54312W        W97365  29.694  20.372   3.358 -0.1141 -0.1408 -0.0394
54313W        W97366  28.958  21.822   3.072  0.0607 -0.2317 -0.0298
54314W        W97367  27.495  20.928   5.056  0.4492  0.0479 -0.0114
54315W        W97368  13.535  15.666   1.793 -0.1855  0.0448  0.3525
54316W        W97369  21.095  10.707  29.071  0.1874  0.3034 -0.0722
54317W        W97370   4.413  25.346  24.700  0.0896  0.2917 -0.1681
54318W        W97371   3.676  18.048   9.163 -0.1248  0.0499 -0.0928
54319W        W97372   8.027  11.425   6.102  0.2775 -0.0461  0.0823
54320W        W97373   0.446  28.335   0.517 -0.0197  0.0805 -0.0484
54321W        W97374  12.193  19.096   7.789  0.1061  0.1672 -0.0774
54322W        W97375  19.600   8.100  28.306  0.2221 -0.1354 -0.1823
54323W        W97376  15.650   7.959  27.555  0.2548  0.2082 -0.3859
54324W        W97377  23.644  23.221   5.304  0.0228 -0.0945  0.1611
54325W        W97378   1.412  19.264   9.793 -0.0979 -0.0663  0.1456
54326W        W97379  20.464  16.618   8.065  0.0477  0.1054  0.0472
54327W        W97380  31.622  20.014   1.627 -0.0339  0.0414 -0.4063
54328W        W97381   1.359  23.684   2.464  0.0063 -0.3161  0.1000
54329W        W97382  16.398  18.380  22.801  0.0361  0.0362  0.1282
54330W        W97383   9.085  31.120  26.294  0.0852  0.1832  0.0254
54331W        W97384  13.618  24.720   3.639  0.0245  0.0796 -0.0513
54332W        W97385  14.827   8.830  24.220 -0.1447 -0.1257 -0.0270
54333W        W97386   3.147   9.029   5.925  0.1908 -0.0039 -0.0692
54334W        W97387  28.811  30.461   4.013  0.1080  0.1600 -0.1674
54335W        W97388  23.075  21.422   1.367  0.2379 -0.0235  0.2046
54336W        W97389  30.900  20.048   4.322  0.0807  0.0750 -0.3148
54337W        W97390  33.852  32.050  21.391  0.0902  0.1308 -0.0368
54338W        W97391   0.266  32.495  28.613 -0.2920 -0.1205 -0.2726
54339W        W97392   6.574  13.024   9.896  0.3525  0.0374 -0.2705
54340W        W97393  20.718  25.513  26.407 -0.1276 -0.1293 -0.0045
54341W        W97394  34.173  28.606   1.537  0.1303  0.1980  0.4548
54342W        W97395  27.396  22.376  20.273 -0.0737 -0.0029  0.0851
54343W        W97396   2.745   9.413   2.648  0.1137 -0.1593  0.2175
54344W        W97397  29.684  25.772   9.100  0.1147 -0.1861 -0.2197
54345W        W97398  17.828  12.971  13.735 -0.4034  0.1225  0.0196
54346W        W97399  25.194  33.162  18.020 -0.2114 -0.0432 -0.0220
54347W        W97400   3.411  18.827   9.919 -0.2932 -0.1199 -0.1938
54348W        W97401   7.968  17.207   8.070 -0.2946 -0.0354  0.2013
54349W        W97402  30.453  26.489  23.827  0.3051  0.3905  0.1862
54350W        W97403  33.311  17.228  17.503 -0.0522 -0.0286  0.2757
54351W        W97404  27.544  15.304   1.995  0.0702  0.0257  0.1240
54352W        W97405   0.706  25.245   3.879  0.1253 -0.2092  0.0770
54353W        W97406  31.647  17.481   8.514  0.0005  0.0412 -0.0059
54354W        W97407  29.708   9.347   7.617 -0.2175  0.1295  0.1425
54355W        W97408   0.347  30.051  25.686 -0.2669  0.1413 -0.0296
54356W        W97409  22.507   4.838   9.357  0.0303 -0.1356 -0.0080
54357W        W97410   9.585  16.793  17.435  0.0870 -0.0976 -0.0964
54358W        W97411   8.006   9.298   4.420 -0.2910 -0.3860 -0.0615
54359W        W97412  17.905  21.046   8.837  0.0002  0.2346 -0.1245
54360W        W97413   2.692  15.146  25.387  0.1937 -0.2054  0.1535
54361W        W97414   2.265  22.711   9.545 -0.0795  0.0633 -0.2907
54362W        W97415  34.681  34.447  25.386 -0.2536  0.0521  0.2816
54363W        W97416   4.631  18.204   8.751  0.0653  0.0311 -0.0582
54364W        W97417   3.172   6.254   8.503 -0.2414 -0.0846 -0.1904
54365W        W97418  32.177  33.689   0.211 -0.1130  0.0899 -0.2504
54366W        W97419  21.754  13.189   9.474  0.3608  0.0800 -0.0901
54367W        W97420  13.180  28.600   4.270  0.0304 -0.0268  0.1977
54368W        W97421  32.184  33.701   1.892 -0.0122  0.3081  0.0158
54369W        W97422   6.191  33.459  18.927 -0.2701  0.2508  0.0294
54370W        W97423  19.664  20.399   4.109 -0.1673  0.2287 -0.1097
54371W        W97424  30.027   9.449   0.274 -0.3878  0.1116  0.0827
54372W        W97425  16.195  20.300  27.870 -0.0950 -0.1455  0.1946
54373W        W97426  30.327  10.128   9.281 -0.1279  0.0459  0.1387
54374W        W97427  26.470  22.308  23.821  0.0437 -0.0469  0.1936
54375W        W97428  23.514  16.145   5.968 -0.0912  0.0120 -0.2698
54376W        W97429   1.698  20.160   1.155  0.1675 -0.0400 -0.1599
54377W        W97430   9.959  10.624   2.739 -0.1774  0.0495  0.2430
54378W        W97431  33.548   7.669  26.926  0.0936 -0.2508 -0.0296
54379W        W97432   2.736  28.606   5.638  0.0878  0.0658 -0.3444
54380W        W97433  28.692  22.202   2.843 -0.0385  0.3959 -0.3763
54381W        W97434  34.466   9.860   7.855 -0.0813 -0.2259 -0.1874
54382W        W97435   2.080  18.445  28.112 -0.0179  0.0101  0.1769
54383W        W97436  32.042  34.257   5.106  0.1125 -0.0844  0.1574
54384W        W97437  27.438  21.338   2.589  0.1469 -0.1355 -0.1072
54385W        W97438  19.726  12.183   3.234  0.1343 -0.1263 -0.1378
54386W        W97439  29.156   1.849  18.545  0.1512 -0.0674 -0.4705
54387W        W97440   5.616  21.299   1.663  0.3251  0.1965 -0.0032
54388W        W97441   2.762   5.447   9.075 -0.1265  0.3591 -0.3490
54389W        W97442  20.628  17.577  27.301  0.0215 -0.1442  0.1515
54390W        W97443   6.067  17.299   2.906  0.4599 -0.3526 -0.0063
54391W        W97444   0.730  30.736  15.522 -0.0976 -0.3199 -0.2800
54392W        W97445  17.814  29.187   5.421  0.4147  0.0013 -0.1610
54393W        W97446   3.663  10.913   2.247  0.1236  0.0375  0.0209
54394W        W97447   0.328  31.560   6.852  0.3605  0.0723  0.0964
54395W        W97448  24.164  12.558  14.302  0.3366  0.1405 -0.2892
54396W        W97449   3.992  14.157   2.967 -0.0628 -0.0372 -0.0515
54397W        W97450   4.480  25.019   2.469 -0.0449 -0.2668 -0.0458
54398W        W97451  24.140   6.036   5.459  0.0147 -0.1766  0.0116
54399W        W97452  12.221   3.085  20.528  0.0613 -0.0127  0.1810
54400W        W97453   4.376   0.026  20.959  0.2036 -0.0144  0.1211
54401W        W97454  16.552   6.207   3.144 -0.1981  0.0526 -0.0753
54402W        W97455   0.054  22.089   5.172 -0.1449  0.0623  0.3283
54403W        W97456  14.519  16.301  26.458  0.2387  0.2154  0.2321
54404W        W97457  24.952  19.535  19.336 -0.1185 -0.1143 -0.2131
54405W        W97458  33.452   5.151   4.683 -0.4903 -0.1070  0.4380
54406W        W97459  28.101   5.914   2.353  0.0897  0.1312  0.2809
54407W        W97460  31.324  23.269   7.425 -0.1364 -0.0383  0.1543
54408W        W97461  33.263  32.578   4.789  0.1405  0.0446  0.2364
54409W        W97462  29.552   2.883   9.143  0.2510 -0.1379 -0.2304
54410W        W97463  29.180  26.145  23.623 -0.0081  0.1952 -0.0969
54411W        W97464  28.138  21.779   6.559  0.1653  0.0254  0.0884
54412W        W97465  16.467  23.474   5.835  0.0463  0.0791  0.0699
54413W        W97466   4.329  33.497   4.932  0.0655 -0.0947  0.1437
54414W        W97467  25.366  33.872   1.571  0.2954 -0.0797  0.0563
54415W        W97468   1.530  16.331   8.296  0.0243  0.1751 -0.1303
54416W        W97469  34.110  17.777   6.909 -0.0527  0.3657 -0.0229
54417W        W97470   6.155  34.133  23.115 -0.1732 -0.0928 -0.3071
54418W        W97471  13.160  24.376   1.333 -0.1444  0.1686  0.0286
54419W        W97472  34.337  16.596   4.875 -0.1086  0.3263  0.0331
54420W        W97473  13.287  14.238   6.990 -0.2527  0.2289  0.3783
54421W        W97474  32.174  10.592   0.605  0.0498 -0.0996  0.1379
54422W        W97475  30.257  23.343   1.282 -0.1489  0.0208 -0.2310
54423W        W97476  24.227  17.140   6.956 -0.3056 -0.0163 -0.1297
54424W        W97477  10.759  17.820   7.840 -0.1102 -0.1001 -0.2192
54425W        W97478   9.803   8.778   2.176 -0.1533 -0.0774 -0.1997
54426W        W97479  21.750  29.281  17.493  0.1396  0.0473 -0.0503
54427W        W97480   1.669  28.965   9.176  0.1540  0.0965 -0.5497
54428W        W97481  27.517   9.536   4.659 -0.1008  0.0684  0.1220
54429W        W97482   0.697  13.538   7.403  0.1854 -0.0338  0.4719
54430W        W97483   0.687  18.927  24.664 -0.0281 -0.1753  0.0316
54431W        W97484   1.850   9.406  22.253 -0.0472 -0.0150  0.0072
54432W        W97485  26.488  10.499  27.930 -0.0222 -0.3706 -0.0460
54433W        W97486  27.866  22.836   2.888  0.0777 -0.2127 -0.1343
54434W        W97487  28.421  10.075   0.941 -0.0644 -0.3171 -0.0587
54435W        W97488  27.013  31.351  10.061  0.1211  0.1307  0.0345
54436W        W97489  27.641  21.427   6.447  0.0556 -0.1052 -0.0280
54437W        W97490  30.970   7.027  19.073 -0.0591 -0.0490  0.2343
54438W        W97491   2.955  21.048   9.060  0.1721  0.2465  0.0201
54439W        W97492  11.373  17.644  28.451 -0.1521 -0.1187  0.1387
54440W        W97493   0.369  14.246   0.504 -0.1437  0.0336  0.0767
54441W        W97494  34.283  22.379  24.739  0.1557 -0.1512 -0.0943
54442W        W97495   1.567  30.630   2.278 -0.1312  0.1003  0.2168
54443W        W97496  14.451  18.719   3.914  0.3401 -0.0520  0.2259
54444W        W97497   2.752  24.328  28.087 -0.2242  0.2796 -0.1797
54445W        W97498  10.024  16.700   2.796 -0.1212  0.3825  0.0752
54446W        W97499  30.545  31.448  27.860 -0.4899  0.0895 -0.0495
54447W        W97500  27.244  26.237   4.945  0.0084  0.1646 -0.1849
54448W        W97501  29.943  29.731   4.999  0.0082 -0.0242 -0.2058
54449W        W97502  27.524   5.933   0.984 -0.0457  0.2422 -0.0240
54450W        W97503  24.668  11.627  21.464  0.2417 -0.0739 -0.1444
54451W        W97504   3.646  30.906   8.798 -0.1376 -0.2119  0.2721
54452W        W97505  26.971  13.689   5.662 -0.2782  0.0998 -0.0478
54453W        W97506  16.645   6.237   6.719  0.0445 -0.0243  0.1255
54454W        W97507   8.477  19.318   4.482  0.2258 -0.3428  0.0939
54455W        W97508  33.137  24.772  26.363 -0.0067 -0.0374  0.0801
54456W        W97509   1.785  18.307   4.125 -0.0708 -0.1158  0.0743
54457W        W97510   0.072  23.027   1.594  0.3903  0.1211  0.0309
54458W        W97511  28.702   5.700   8.922  0.1163 -0.0393 -0.0887
54459W        W97512  27.865  19.831  28.952 -0.4000 -0.1434  0.2664
54460W        W97513   2.488  16.748  22.774  0.2228 -0.1718 -0.0784
54461W        W97514  22.214  11.683   9.030  0.3829  0.1115 -0.0573
54462W        W97515  10.742  22.334   7.353 -0.0200 -0.0569 -0.0068
54463W        W97516  21.739  15.291  17.208  0.1712  0.1551 -0.1886
54464W        W97517   4.611  29.201   6.637  0.0077  0.0274  0.5275
54465W        W97518  33.013  21.984   5.748 -0.0060  0.2107 -0.1114
54466W        W97519   8.059  12.688   2.640 -0.1584 -0.2559  0.0458
54467W        W97520   6.212  20.279   0.472  0.0181 -0.1056  0.0744
54468W        W97521  17.543  29.525   4.038 -0.0843  0.3121 -0.0455
54469W        W97522  25.182  22.796  20.263 -0.0790 -0.0946  0.2444
54470W        W97523   8.070   3.620   7.892  0.1040 -0.0729  0.0700
54471W        W97524   1.857  14.852  27.163  0.0392 -0.1882  0.1361
54472W        W97525  32.453   7.340   0.592  0.3212 -0.2759 -0.1373
54473W        W97526   2.955  16.706  20.619  0.0551  0.1677  0.1755
54474W        W97527  30.370  23.189  23.580  0.1146 -0.2256  0.2211
54475W        W97528  31.265  17.519   2.705  0.0156  0.0078  0.2134
54476W        W97529   1.388  17.218   9.989  0.1797 -0.0840  0.2522
54477W        W97530   3.290  12.455   4.161  0.3740 -0.1133  0.1034
54478W        W97531  19.094  20.510   7.646 -0.1241 -0.2143  0.3312
54479W        W97532  11.516  23.343   8.001  0.0478  0.2537 -0.0212
54480W        W97533   6.626  18.980   6.874  0.0975 -0.0874  0.0470
54481W        W97534   4.377   9.378  27.955 -0.3821  0.0866  0.1676
54482W        W97535  32.596  22.631   6.792  0.0982  0.0228  0.3026
54483W        W97536  19.701  17.723   5.097 -0.0474 -0.4651  0.0345
54484W        W97537  34.590  24.250   4.507 -0.0241  0.0692 -0.0255
54485W        W97538  26.706  18.006   9.292 -0.1972  0.0956  0.1130
54486W        W97539  33.259  15.868   5.781 -0.2062  0.1531 -0.4831
54487W        W97540  32.972  32.444   0.315 -0.3855 -0.0337 -0.0776
54488W        W97541  27.899   0.534   9.634  0.2074  0.2333 -0.1184
54489W        W97542  28.509  14.752   3.690 -0.2031  0.1223 -0.0668
54490W        W97543  25.373   0.914   5.917  0.1288  0.2050 -0.0874
54491W        W97544   4.144  22.913   2.874 -0.1410  0.2643  0.0566
54492W        W97545  21.364  13.368  26.655  0.1402 -0.0426  0.1428
54493W        W97546  25.495  15.540  22.118 -0.3265 -0.2031 -0.3127
54494W        W97547  34.635  17.974   4.493 -0.1413  0.2961 -0.1058
54495W        W97548  28.956  17.242   5.006  0.1111 -0.0045 -0.0643
54496W        W97549  11.676   9.953   6.547 -0.0419  0.0289  0.0069
54497W        W97550  17.418  12.027   0.873 -0.2898 -0.0472 -0.0196
54498W        W97551  25.100  21.348  28.622 -0.2654 -0.0867 -0.1404
54499W        W97552  30.026  12.222  10.558 -0.0176 -0.2741  0.1322
54500W        W97553   9.229  18.810   2.128  0.3855  0.2902 -0.4443
54501W        W97554  18.092   1.557  10.079  0.3050 -0.0558  0.3600
54502W        W97555  14.943  22.359   2.349 -0.1138  0.0340  0.0985
54503W        W97556   1.638  23.568  27.567  0.0468 -0.2006 -0.1040
54504W        W97557   6.908  20.875   6.057 -0.2192 -0.0005  0.2771
54505W        W97558   2.835  18.012   3.456 -0.1001  0.0924  0.0835
54506W        W97559  23.996  18.144  28.592  0.1078  0.2355  0.2345
54507W        W97560  28.474  17.111   4.893  0.2159  0.0452 -0.0555
54508W        W97561  12.580  14.637  21.811 -0.0887  0.2259 -0.1315
54509W        W97562  12.951  20.172   5.757 -0.0079 -0.1969 -0.4624
54510W        W97563  32.465  11.297  23.846 -0.0529  0.0394  0.1784
54511W        W97564  29.751   5.706   4.686 -0.1366 -0.1467 -0.0855
54512W        W97565  27.196  30.777  26.138 -0.2040  0.1161  0.2597
54513W        W97566   5.704  16.462   9.445  0.1220 -0.1169 -0.1545
54514W        W97567  14.593  19.739   0.252  0.2441  0.3221 -0.0095
54515W        W97568  10.177  19.088   5.040  0.0902 -0.0273 -0.1667
54516W        W97569  34.065  28.610   2.478 -0.0623  0.0640  0.0103
54517W        W97570  27.610  17.503   9.483  0.1178 -0.1410 -0.1683
54518W        W97571  19.696   4.178   0.993 -0.0115 -0.0809 -0.5583
54519W        W97572  25.836  32.565  24.330  0.0489 -0.0921 -0.0395
54520W        W97573  21.170  31.735   7.228 -0.2223 -0.2886 -0.0502
54521W        W97574  33.466  16.175   1.541 -0.2313  0.0183 -0.0238
54522W        W97575   7.798  12.612   7.218  0.0413  0.1629  0.2672
54523W        W97576  27.833   6.766   2.534  0.2507 -0.0906 -0.2589
54524W        W97577  30.321  21.172   0.387 -0.0226 -0.0591  0.1455
54525W        W97578  31.074  25.057   5.437 -0.1752  0.6287 -0.3030
54526W        W97579   2.071  15.761  26.575  0.2000  0.0317  0.0392
54527W        W97580  16.353  31.971   1.287 -0.0795  0.1336 -0.3475
54528W        W97581   0.388  33.915   6.490 -0.0590  0.2349  0.2525
54529W        W97582  25.682  24.503   8.622 -0.1743  0.2723 -0.0152
54530W        W97583  25.657   0.838   8.807  0.2800  0.4084 -0.1022
54531W        W97584  22.466  21.702   1.302  0.2545  0.0409 -0.1232
54532W        W97585  22.573  30.132  23.850 -0.1001  0.2377  0.3120
54533W        W97586   0.087  12.909   2.544  0.0613 -0.0137  0.2028
54534W        W97587  32.631  14.846   4.759 -0.1911  0.2768 -0.1712
54535W        W97588   0.515   0.938   5.331  0.0445  0.0844  0.2134
54536W        W97589  11.209  16.527  22.390 -0.0427  0.3406 -0.0967
54537W        W97590   3.516  19.191   3.628 -0.1297 -0.0971  0.0265
54538W        W97591   7.364  12.574   3.675  0.1052  0.1333  0.1652
54539W        W97592  25.979  26.742  24.383  0.0218  0.2698  0.1988
54540W        W97593  20.986  30.149   3.655  0.0950  0.3215 -0.1069
54541W        W97594  32.683  20.114  27.975  0.1286 -0.0695 -0.0350
54542W        W97595  15.522  20.160  14.151  0.0703  0.2079  0.0749
54543W        W97596  28.416  26.183   8.300 -0.2333 -0.0471 -0.0084
54544W        W97597   1.189  27.612  17.069  0.1109 -0.0982  0.1205
54545W        W97598  29.351  22.474   7.100  0.2281  0.2302  0.0684
54546W        W97599  27.497  16.155  23.868 -0.1698  0.5197 -0.3218
54547W        W97600  11.319  17.701  27.867 -0.2695  0.0370  0.2402
54548W        W97601  34.672  23.957   8.997  0.3102  0.1660  0.1127
54549W        W97602  18.188  21.514  19.896 -0.1102 -0.0375 -0.0407
54550W        W97603   8.678  14.971   0.273 -0.0128 -0.1238 -0.0201
54551W        W97604   7.832   2.590  23.494 -0.0124 -0.3292 -0.0848
54552W        W97605  25.196   6.920  29.012 -0.2303 -0.0283  0.2242
54553W        W97606  23.564  28.126  28.990 -0.2500 -0.1874  0.2332
54554W        W97607  20.385  24.899   8.724  0.1497 -0.0090 -0.2497
54555W        W97608   0.418  23.897  19.115 -0.1234 -0.2336  0.1333
54556W        W97609  31.582  17.880   6.830 -0.0389 -0.1528 -0.1986
54557W        W97610  30.119  25.553  23.944 -0.3474 -0.0391  0.0231
54558W        W97611   1.344  20.761   0.495  0.0538 -0.2357  0.1618
54559W        W97612  34.369  19.125   8.769  0.0688 -0.0293 -0.1573
54560W        W97613   0.643  29.334  21.509  0.0287  0.2712  0.0331
54561W        W97614  27.133  20.609  22.176 -0.1175  0.0791  0.0595
54562W        W97615   5.280  31.148   3.504 -0.0936 -0.1789 -0.0814
54563W        W97616  21.654  16.162   2.876 -0.1038  0.1063  0.0139
54564W        W97617   4.460  10.632   7.051  0.3015 -0.0606 -0.0321
54565W        W97618  12.622  22.927   3.449  0.1736  0.2747  0.0540
54566W        W97619   5.175  32.771  20.782  0.1135 -0.2234 -0.1544
54567W        W97620   3.897   8.768  25.753  0.2099 -0.1004  0.0606
54568W        W97621  28.526   0.071  23.243  0.0645  0.0796 -0.1823
54569W        W97622   1.031  17.609  25.811  0.1297 -0.0251 -0.0355
54570W        W97623  10.978   4.911   4.200  0.0996 -0.1086 -0.1020
54571W        W97624   7.727   4.880  24.012 -0.1102  0.1819 -0.0453
54572W        W97625  19.329  21.678  23.400 -0.2120 -0.0440  0.4374
54573W        W97626   6.105  10.647   7.598  0.2304 -0.1506 -0.1456
54574W        W97627  33.434  22.974  18.481 -0.1265  0.2234 -0.0363
54575W        W97628   6.930  21.624   1.191  0.1967  0.3982  0.0670
54576W        W97629   0.835  33.802   3.514  0.1255 -0.2169  0.1486
54577W        W97630  17.495  24.178   4.718 -0.0447  0.0326  0.0429
54578W        W97631  31.501  19.939   7.467 -0.0646  0.1711 -0.0506
54579W        W97632   1.525  19.043   6.234  0.0451 -0.0123  0.2194
54580W        W97633  16.515  31.617   5.517  0.0449  0.0364  0.1554
54581W        W97634   0.737  10.856   9.911  0.1670  0.1474  0.1870
54582W        W97635  13.296  17.397  24.147  0.1853 -0.3897  0.1649
54583W        W97636  32.474  18.712  21.502  0.2585  0.2401  0.1010
54584W        W97637  26.147  22.669  24.118  0.1265 -0.2958  0.3470
54585W        W97638   6.965  24.090   7.575  0.1543 -0.2909 -0.0593
54586W        W97639  34.663  27.805   3.773  0.1986 -0.0914  0.1080
54587W        W97640  29.353  21.305  16.296 -0.0139  0.3328 -0.0796
54588W        W97641   5.787  18.315  28.949  0.3251  0.2297 -0.0934
54589W        W97642   0.430   9.038   1.431  0.0501  0.0914 -0.2191
54590W        W97643  31.988   5.982   8.282  0.1512  0.1716 -0.2254
54591W        W97644   2.922   4.320  20.599  0.2583 -0.3132 -0.0725
54592W        W97645  14.711  13.478  21.916  0.1914 -0.1440  0.0834
54593W        W97646  30.141  21.382  19.140  0.0333 -0.0955 -0.2818
54594W        W97647   3.678  22.983  22.763  0.0862  0.0147  0.0263
54595W        W97648   6.193  13.115  28.054  0.1023  0.3109  0.3080
54596W        W97649  32.555  25.155   7.193  0.1445 -0.0635  0.0423
54597W        W97650  28.656  13.896   5.072  0.1932  0.0745  0.1957
54598W        W97651   3.583  28.357  25.147 -0.2882  0.2109  0.1287
54599W        W97652   9.163  25.362  27.566 -0.3315 -0.1124  0.0599
54600W        W97653  24.774   7.103  22.730 -0.3692 -0.0659 -0.0491
54601W        W97654   1.933  25.749  26.079 -0.2348 -0.3011 -0.1946
54602W        W97655  15.724  30.946   4.639  0.2008  0.1006  0.0473
54603W        W97656  11.719  20.733   0.607  0.2787  0.3243  0.0312
54604W        W97657  30.641  28.903   1.597 -0.2611  0.0779  0.0017
54605W        W97658   7.186  19.204   6.374  0.2898 -0.3076  0.0561
54606W        W97659   1.906   3.939   5.501  0.0302  0.1159  0.0460
54607W        W97660   9.316  16.304  24.444 -0.3063  0.1755  0.2663
54608W        W97661  26.002  30.788  16.882 -0.0386  0.1172  0.2899
54609W        W97662  29.900   1.999   0.465  0.3353 -0.0355 -0.0047
54610W        W97663   8.780  31.281   6.118 -0.1645 -0.0701  0.3544
54611W        W97664   0.946  12.924   7.121 -0.1327 -0.0886 -0.2704
54612W        W97665  28.036  21.378   1.868  0.2377 -0.0774 -0.4324
54613W        W97666   0.702  21.742  25.835 -0.1581  0.1239  0.1424
54614W        W97667  26.114  12.064   3.904  0.2130  0.1740  0.2499
54615W        W97668  29.781  23.118   3.701 -0.2580  0.0297 -0.0163
54616W        W97669   1.448  16.975   8.291 -0.0400 -0.0405 -0.1383
54617W        W97670   2.825  27.057   7.779 -0.0164  0.1678  0.0560
54618W        W97671  31.891  30.133   9.444 -0.0674  0.1126 -0.2811
54619W        W97672  26.237  30.018   0.905 -0.2798  0.1413  0.0705
54620W        W97673   3.778   2.495   2.912 -0.0847  0.0952 -0.0682
54621W        W97674   6.432  20.771  25.505 -0.1065  0.0351  0.0386
54622W        W97675   9.546  25.641  27.407  0.2857 -0.1197 -0.2003
54623W        W97676   6.308  26.730  27.774  0.2897  0.0906  0.0288
54624W        W97677   1.637   1.900   6.493  0.0420 -0.2146 -0.1272
54625W        W97678  25.540   5.489  28.974  0.2522 -0.3676 -0.0164
54626W        W97679  20.744  31.795   5.094  0.0509 -0.1796 -0.1533
54627W        W97680   4.297  15.265  20.019 -0.0137 -0.0979 -0.0697
54628W        W97681   1.854   6.416  28.191 -0.1364 -0.0148 -0.0178
54629W        W97682  29.017  20.916   2.176  0.2921  0.0085 -0.2130
54630W        W97683   1.602  28.680  26.972  0.1884  0.3856 -0.0871
54631W        W97684   1.341  25.548   0.578 -0.2998  0.0753 -0.0386
54632W        W97685   0.124   3.291  25.753 -0.0437  0.0036  0.1889
54633W        W97686  22.803   9.003   3.409 -0.0685 -0.0938  0.3678
54634W        W97687  15.775  33.917  26.361 -0.1126  0.1951  0.1368
54635W        W97688  29.416  28.812   1.525 -0.0187 -0.1407  0.1860
54636W        W97689  31.226  27.573   9.988 -0.1570  0.0057  0.4339
54637W        W97690  22.911  27.723  28.231 -0.3248  0.0360 -0.2191
54638W        W97691   6.425  21.827  28.504 -0.1060 -0.1002  0.0253
54639W        W97692  10.501  28.461   7.536  0.1525  0.2428  0.0632
54640W        W97693   5.988  15.565   7.401 -0.1491 -0.0469  0.0868
54641W        W97694  30.271  14.597   9.148 -0.2552  0.1245 -0.3032
54642W        W97695  13.599  33.119   0.352  0.1492 -0.1565  0.0110
54643W        W97696  25.752  15.924  23.464 -0.0248 -0.2957 -0.0260
54644W        W97697   4.454  25.805   4.872  0.2233  0.1338 -0.2630
54645W        W97698  25.835  26.142  27.006  0.0374  0.2813  0.2776
54646W        W97699  33.213  28.173   5.720 -0.0326 -0.1501 -0.1560
54647W        W97700   2.470  15.241  19.795  0.1773 -0.2351 -0.1754
54648W        W97701  34.377   8.504  24.791  0.2993 -0.1839 -0.0331
54649W        W97702   4.571  15.030   8.217 -0.5761 -0.1011  0.2222
54650W        W97703   3.669   6.848  22.917  0.0757  0.2669 -0.3897
54651W        W97704  14.439  17.430   5.397  0.1635 -0.1666  0.2516
54652W        W97705   1.778  14.056   2.592 -0.3535  0.4702 -0.2778
54653W        W97706  16.174  34.476   8.427  0.1319 -0.1469 -0.3032
54654W        W97707  33.154   0.612   7.382  0.1543 -0.0828 -0.2526
54655W        W97708  33.599  16.884   2.556  0.0692 -0.0670  0.1730
54656W        W97709  32.454  31.151  20.712  0.1866 -0.1348  0.0122
54657W        W97710  33.268  15.765   9.412  0.3098 -0.0100  0.1474
54658W        W97711  20.409  17.085   8.255 -0.4506  0.4085  0.1589
54659W        W97712   0.487  25.592   9.515 -0.0951  0.0445 -0.1063
54660W        W97713   0.148   1.168  28.791  0.1634 -0.0513 -0.1501
54661W        W97714  34.603   6.858   7.615 -0.0142 -0.0171  0.0841
54662W        W97715   0.461  27.056   9.561 -0.4755  0.1165  0.0398
54663W        W97716  15.016   6.868  15.453  0.0247 -0.0570  0.0592
54664W        W97717   3.128  31.758  25.281 -0.0204 -0.0992 -0.0196
54665W        W97718  19.736  34.231  28.041 -0.2832  0.2332  0.0573
54666W        W97719  11.467  27.598   8.590  0.4306 -0.2840 -0.0004
54667W        W97720   2.138  10.366   9.607 -0.1433  0.0499  0.0743
54668W        W97721  21.548  18.661  28.049  0.0158 -0.1972 -0.1896
54669W        W97722  28.998  26.202  24.482 -0.0555 -0.1335 -0.0498
54670W        W97723  29.413  14.184  21.506  0.0331  0.0300  0.1513
54671W        W97724   2.896  24.539   9.438 -0.0137 -0.2522 -0.1951
54672W        W97725  25.007  30.822  15.967  0.0832  0.3969 -0.1797
54673W        W97726  27.470  12.092   3.660 -0.1595 -0.1277 -0.0276
54674W        W97727   4.640  27.570  25.781 -0.1194  0.0882  0.1084
54675W        W97728  30.680  18.849   1.882 -0.0864 -0.1011 -0.0336
54676W        W97729   0.202  13.587   3.920 -0.3085  0.1167  0.1750
54677W        W97730   7.220  28.437   8.011  0.1282 -0.1305 -0.1074
54678W        W97731  20.634  25.627   2.235  0.1302 -0.1409 -0.2081
54679W        W97732   4.521  22.165  23.010  0.1465 -0.1755  0.0959
54680W        W97733  30.721  26.361   8.673 -0.0478 -0.2457  0.0851
54681W        W97734   2.438  14.973  25.821 -0.0135  0.3082  0.1859
54682W        W97735  32.389   1.557   8.998 -0.2554 -0.0341 -0.1701
54683W        W97736  13.493   0.504   7.641 -0.0765  0.0277  0.0300
54684W        W97737   7.707  17.377  21.584 -0.0441 -0.2156  0.0803
54685W        W97738  19.797  17.328  10.315  0.1551 -0.0821 -0.3659
54686W        W97739   3.718  10.249   5.035  0.1610  0.0703  0.0124
54687W        W97740  20.722  17.295  23.410  0.3875  0.1479  0.1748
54688W        W97741  19.157   2.695  23.042 -0.5688 -0.1159 -0.0652
54689W        W97742   9.297   0.587  28.833 -0.1949  0.4234  0.5881
54690W        W97743  24.827   3.597   4.523  0.1525 -0.2464  0.2554
54691W        W97744  29.647  33.972   6.279 -0.0338  0.0857 -0.1268
54692W        W97745  30.247  33.396   6.823  0.0599  0.3369  0.0108
54693W        W97746   6.495  21.498  15.487 -0.1355 -0.2056  0.1504
54694W        W97747  11.351  21.748  23.902 -0.0469  0.0681 -0.0719
54695W        W97748  29.862  29.058  22.281  0.1021 -0.2906  0.0138
54696W        W97749  21.220  32.331  21.828  0.0079  0.1000  0.0820
54697W        W97750   0.390  21.523   1.497 -0.1978  0.0058  0.0673
54698W        W97751  33.590   9.078  15.456  0.0687 -0.1295 -0.1083
54699W        W97752   1.961  26.651  26.712 -0.1010 -0.1753  0.1169
54700W        W97753  18.902  14.234   2.402 -0.1370  0.2572  0.3461
54701W        W97754  24.575  12.816  27.413  0.1011 -0.3579 -0.3763
54702W        W97755   1.147  24.627  25.902  0.2941  0.3087  0.0030
54703W        W97756   0.132  17.500   0.623 -0.3727  0.1771 -0.3487
54704W        W97757  29.819  20.402  21.040  0.0601 -0.1287 -0.1514
54705W        W97758  32.170  17.867   4.969 -0.1270  0.1720 -0.0409
54706W        W97759   0.514  18.913  20.199 -0.0428  0.0212 -0.4129
54707W        W97760  28.404  28.161  16.651  0.2844 -0.0499  0.0858
54708W        W97761  34.207  16.892   4.498  0.0203 -0.1814  0.1028
54709W        W97762  30.402  34.138   1.804 -0.2155 -0.1898 -0.1089
54710W        W97763  14.472  23.683   6.649 -0.2868  0.1693 -0.2382
54711W        W97764  32.529  10.247   0.454 -0.1537 -0.0509 -0.2892
54712W        W97765   8.808   8.209  17.708 -0.1110  0.1590 -0.0745
54713W        W97766  33.328   8.063  25.365  0.0231 -0.0429 -0.1480
54714W        W97767   4.008  23.681   0.235 -0.2888  0.1358 -0.1439
54715W        W97768  13.706   2.524   0.282 -0.0624 -0.0980  0.1588
54716W        W97769  24.213  31.551  14.229  0.0646 -0.2307 -0.0153
54717W        W97770   4.865  12.885  18.857  0.5576  0.1376  0.2489
54718W        W97771   3.893  22.125  22.948  0.0802 -0.1902 -0.2891
54719W        W97772  33.085  32.879   0.036 -0.0112 -0.2797  0.1808
54720W        W97773  28.303  25.681   1.393  0.1685  0.3051 -0.0883
54721W        W97774   1.542  23.891  24.830  0.0472  0.0987  0.0768
54722W        W97775   9.918   7.604  10.272 -0.0006 -0.1499 -0.0044
54723W        W97776  30.700  10.920   1.849  0.2954 -0.1260 -0.0380
54724W        W97777   3.339  20.823  10.142  0.1379 -0.2312  0.0887
54725W        W97778   8.085  26.551  21.017  0.3524  0.1976  0.3422
54726W        W97779  29.635  19.641  19.770  0.2602 -0.2423 -0.1158
54727W        W97780   1.084  21.263  26.278  0.0472  0.1901 -0.0588
54728W        W97781  10.137  21.284   5.956 -0.0689  0.0354  0.3083
54729W        W97782  28.631  34.601   4.843  0.1188  0.1391  0.1254
54730W        W97783   3.970  20.877  25.944 -0.2591 -0.0372  0.1996
54731W        W97784   5.848  23.363   9.618  0.0401 -0.0310 -0.0724
54732W        W97785  29.068  13.423   8.018  0.2317  0.0530  0.0506
54733W        W97786  21.419  29.316   6.555 -0.1942 -0.2970  0.0322
54734W        W97787  34.245  18.601  24.640 -0.0680 -0.1310 -0.3267
54735W        W97788  21.800  12.629  14.281 -0.0407  0.1265 -0.0086
54736W        W97789  31.939  25.520  24.014 -0.0767  0.1464  0.0722
54737W        W97790  34.523  29.611  27.268 -0.0238  0.3396 -0.0916
54738W        W97791  17.119  16.184   3.301  0.0393 -0.0299 -0.0510
54739W        W97792  18.775  12.049  17.659  0.1386  0.3375  0.0546
54740W        W97793   4.568  20.674  28.042  0.1268 -0.1240 -0.2293
54741W        W97794  26.184  26.208   9.094 -0.0283 -0.1637  0.1014
54742W        W97795   3.817  15.793   0.994 -0.1161  0.0595 -0.1538
54743W        W97796  10.538  30.290   0.563 -0.2136 -0.0375  0.0504
54744W        W97797   7.459  18.673  19.976  0.0229 -0.0114 -0.2062
54745W        W97798  18.513  21.101  26.588  0.0773  0.1550 -0.1147
54746W        W97799   8.692   7.004   6.846  0.0674 -0.0694  0.1635
54747W        W97800  22.393  27.863   7.730 -0.5497 -0.1954 -0.1947
54748W        W97801  32.332  27.903   9.169 -0.0105  0.0560 -0.0207
54749W        W97802  23.893  33.748  15.726  0.0256  0.1496 -0.2179
54750W        W97803   2.157  20.246  16.317 -0.0635 -0.0908 -0.0647
54751W        W97804  19.751  30.637   9.242  0.1443 -0.2630 -0.0667
54752W        W97805  15.972  32.649   0.036 -0.1434  0.2496  0.0864
54753W        W97806  33.649  29.552  28.142 -0.2194 -0.0786  0.0722
54754W        W97807  19.483  10.302   0.932 -0.0621 -0.1656  0.1026
54755W        W97808   1.605  28.291   2.733  0.1042  0.1121  0.0047
54756W        W97809   2.744  29.738   6.518  0.0487 -0.0366 -0.1168
54757W        W97810  30.313  16.317   0.596 -0.2700 -0.0743 -0.1431
54758W        W97811   2.539  26.634   8.296  0.2103  0.1319  0.2752
54759W        W97812  24.073  21.917  23.059  0.1005 -0.0651  0.1032
54760W        W97813  24.048  11.267   5.042  0.1597 -0.0163 -0.1771
54761W        W97814  23.491  22.326  19.870  0.2234 -0.1917  0.3387
54762W        W97815   6.947   0.949  19.228  0.0822 -0.1861  0.2025
54763W        W97816   2.350  29.818   8.404 -0.2003 -0.0551  0.2323
54764W        W97817  33.195  11.893   7.924 -0.0366 -0.0434 -0.1001
54765W        W97818  22.092   4.327   7.960  0.1358  0.1622 -0.5440
54766W        W97819   2.822  28.473  13.796  0.0960  0.0840 -0.1897
54767W        W97820   3.928   3.045   8.590 -0.4022  0.2345  0.2229
54768W        W97821   6.075   8.728  21.259 -0.3255 -0.0498  0.1302
54769W        W97822   0.469   5.663  25.140 -0.2307 -0.0833  0.1040
54770W        W97823  29.822   3.033   7.101  0.0163  0.1458  0.1254
54771W        W97824  26.863  23.112   2.315 -0.0588 -0.1087 -0.0467
54772W        W97825  16.974  31.614  10.469  0.1006  0.0527  0.2480
54773W        W97826   2.225   5.707  10.292  0.4737  0.1594 -0.1052
54774W        W97827   0.270  26.556   4.443  0.1516  0.0937  0.2094
54775W        W97828  30.617  30.071   8.912 -0.1780 -0.1205 -0.1965
54776W        W97829   9.308  28.316   5.494  0.1302  0.0269 -0.0476
54777W        W97830  12.434  23.936   1.445 -0.1786 -0.0231  0.0204
54778W        W97831  27.129  17.996  25.091  0.0138 -0.0008 -0.0881
54779W        W97832   2.243  24.784   6.973 -0.0399  0.2695  0.1063
54780W        W97833  26.733  13.864   8.481 -0.0188 -0.0982 -0.1065
54781W        W97834   4.676  28.678   0.495  0.0268  0.0172  0.1758
54782W        W97835  16.483  13.970   0.888 -0.4742 -0.1690 -0.0324
54783W        W97836   6.707  20.989   9.501  0.3896  0.1256 -0.0700
54784W        W97837   7.510  17.460   4.592  0.2724 -0.4013 -0.2551
54785W        W97838  29.749  18.888   5.193  0.0583  0.1389  0.1313
54786W        W97839  12.968  20.077  22.076  0.2386 -0.0315 -0.0746
54787W        W97840  26.510  22.351  10.247  0.1395  0.3589  0.1212
54788W        W97841  21.196  11.357  25.261 -0.0235  0.1025  0.4730
54789W        W97842   4.711  19.274  28.312 -0.2747 -0.0364 -0.1469
54790W        W97843  30.909  20.035  28.733 -0.4165  0.1639 -0.0616
54791W        W97844  21.800  14.637  23.572 -0.1912 -0.0406 -0.4419
54792W        W97845   0.632  27.858  18.651  0.0810 -0.1868  0.0989
54793W        W97846   5.751  26.114   8.508 -0.1364 -0.0141  0.4077
54794W        W97847   4.894  19.902  24.210 -0.2852  0.0390 -0.1858
54795W        W97848  16.480  21.269  20.408  0.2905 -0.2088  0.0195
54796W        W97849  16.495   2.463  24.272 -0.1509 -0.1653 -0.3357
54797W        W97850  23.426  20.530   2.466 -0.2036  0.0737  0.2516
54798W        W97851  25.726  21.276   9.493  0.0839  0.0071 -0.1700
54799W        W97852  30.674  18.646   3.304  0.2230 -0.2763 -0.2779
54800W        W97853  26.644  29.622   5.765  0.1150  0.0259  0.1502
54801W        W97854  22.089  20.293  25.961  0.1985 -0.2073 -0.1106
54802W        W97855  29.145   3.655  27.270  0.2474  0.2692 -0.4142
54803W        W97856   7.478   9.662   9.170 -0.0508  0.1868  0.0440
54804W        W97857   8.185   7.310   4.604  0.1134 -0.1904 -0.3532
54805W        W97858  12.948  19.164   5.570  0.0699  0.5132 -0.0298
54806W        W97859   9.752  10.217   8.407  0.4042 -0.0152 -0.3694
54807W        W97860  28.354  10.275  21.406  0.0465  0.0167 -0.3820
54808W        W97861  33.603  20.123   0.324 -0.1368 -0.1068  0.2169
54809W        W97862   0.479  33.314   5.665  0.0238 -0.2852  0.0174
54810W        W97863  22.043  18.489   8.861 -0.0223  0.0167 -0.1674
54811W        W97864   6.830  27.727  20.689 -0.0932 -0.2663  0.1276
54812W        W97865  27.427  29.991   8.947 -0.4347  0.3167  0.2885
54813W        W97866  32.966  16.632  26.597  0.2166 -0.2464  0.1012
54814W        W97867  24.144  13.521   8.161  0.1196 -0.0379 -0.1152
54815W        W97868  13.263  18.332  23.985  0.1170 -0.0770 -0.1279
54816W        W97869   3.195  18.455  14.684  0.1924  0.0427  0.0421
54817W        W97870  33.605  22.886   4.397  0.1597 -0.0530 -0.0758
54818W        W97871  29.755  23.980   7.163  0.3644  0.2189  0.1570
54819W        W97872  20.189   3.180  15.616 -0.2693  0.0189  0.1865
54820W        W97873  25.900   6.238   2.053 -0.1740  0.1385 -0.0807
54821W        W97874  25.221  18.768   8.109  0.0935 -0.0509 -0.1168
54822W        W97875  32.868  28.103   4.401  0.1115 -0.0207 -0.1962
54823W        W97876  20.676  17.897  29.129  0.0585  0.2347 -0.4354
54824W        W97877   1.854  13.152  25.566 -0.0658 -0.1744  0.0850
54825W        W97878  30.202  32.890   3.990  0.1174 -0.6033 -0.0210
54826W        W97879  34.141   0.930   2.253 -0.0502 -0.1391 -0.3987
54827W        W97880  19.407  20.464  10.458  0.2296 -0.0114 -0.1686
54828W        W97881  26.698  11.255   4.905 -0.2540  0.1878  0.3427
54829W        W97882  30.863  14.383   4.752 -0.2073 -0.2548  0.3229
54830W        W97883  28.788  23.833  10.053  0.0619  0.2274  0.0158
54831W        W97884  15.915  27.144   7.971  0.1321  0.4182 -0.0409
54832W        W97885  31.348   3.307   0.413  0.1426 -0.0519  0.1430
54833W        W97886  14.819   7.745  10.199 -0.2153  0.1189 -0.0377
54834W        W97887  34.454  26.188  23.284 -0.0169  0.4743  0.1152
54835W        W97888  14.015   9.971  11.161 -0.0975 -0.3802  0.2244
54836W        W97889   0.277  29.529  26.944  0.2898 -0.0014 -0.0365
54837W        W97890  22.838  23.629  21.900 -0.1722  0.2119 -0.0181
54838W        W97891   2.430  17.951  28.023  0.1979  0.0386 -0.2191
54839W        W97892  26.811  16.667   5.025 -0.0224 -0.0814  0.0545
54840W        W97893   5.449  27.354   4.952  0.0007 -0.0364 -0.1556
54841W        W97894   4.685  20.875   2.821 -0.2077  0.3262  0.2463
54842W        W97895  15.267  15.771   3.445  0.0464  0.0839  0.3135
54843W        W97896  29.417  15.014  10.046 -0.1160 -0.0446 -0.1442
54844W        W97897   5.641  28.780  23.074  0.0856 -0.3659 -0.1342
54845W        W97898   4.327   2.374   8.136  0.0449  0.2372  0.0816
54846W        W97899   7.447  17.808   8.524  0.0238  0.3484 -0.1986
54847W        W97900  27.810  16.990   1.902 -0.0029 -0.2252 -0.2097
54848W        W97901  33.978  32.898   7.276 -0.0267  0.2908  0.1904
54849W        W97902  10.203   8.717   7.726 -0.5720  0.2842  0.1564
54850W        W97903  11.420  24.022   7.199  0.1542  0.0421 -0.0945
54851W        W97904   3.704  22.615   9.500 -0.1640  0.1032  0.0512
54852W        W97905   8.531  21.678   7.297 -0.3036 -0.2630 -0.2760
54853W        W97906  10.906  22.878   5.268 -0.0674 -0.3059 -0.0464
54854W        W97907  15.502  26.384  27.327 -0.0167 -0.0439 -0.2119
54855W        W97908   7.741  23.019  28.242  0.2246  0.2520  0.1812
54856W        W97909  33.555  33.748   2.031 -0.1952 -0.1565 -0.2202
54857W        W97910   8.689  29.183   6.596 -0.2027 -0.0609  0.0328
54858W        W97911   8.566  18.566  28.155 -0.0822 -0.0508  0.1584
54859W        W97912   3.469  19.220   4.139  0.2471 -0.1172  0.3286
54860W        W97913   6.094  12.224   5.514 -0.3279 -0.0271 -0.3329
54861W        W97914  27.111  21.587  22.825  0.0565  0.2311  0.1425
54862W        W97915   1.573  21.072   8.703  0.2920 -0.0425  0.3554
54863W        W97916   3.131  12.788   0.232 -0.1401  0.1352 -0.2450
54864W        W97917   3.512   8.743   1.095  0.3047 -0.1126 -0.5532
54865W        W97918  11.244  23.701  23.891 -0.0669 -0.2395 -0.0161
54866W        W97919  18.169  14.455   4.525  0.2154  0.5610  0.0338
54867W        W97920  15.490  16.802   3.284 -0.0242 -0.1557 -0.0751
54868W        W97921   6.855  17.842   6.271  0.2023  0.1449 -0.1026
54869W        W97922  34.099  29.195   8.153  0.2749  0.0831 -0.0629
54870W        W97923   1.519  22.495   0.683 -0.0938  0.0884 -0.0861
54871W        W97924   2.926  11.117  28.303  0.3171 -0.2881  0.3345
54872W        W97925  24.463  27.764   1.881 -0.1326  0.0352 -0.0094
54873W        W97926  29.627  21.587   9.579 -0.2857  0.0471 -0.1526
54874W        W97927  30.831   1.127   4.215 -0.2459  0.3590 -0.1957
54875W        W97928  32.061  29.507  24.920 -0.1623 -0.0065 -0.0953
54876W        W97929  23.621   7.486  29.109 -0.1219  0.1907  0.0018
54877W        W97930   9.752   2.894   3.594  0.2738  0.0307 -0.2242
54878W        W97931   0.481  18.743   5.266 -0.0484  0.0117 -0.0434
54879W        W97932  23.068  32.647   1.242  0.1870 -0.1760 -0.1367
54880W        W97933  28.378  31.409   6.093  0.1498  0.0481 -0.0192
54881W        W97934  18.822  18.550  28.142 -0.0652  0.0963 -0.3805
54882W        W97935   0.816  14.267   0.687 -0.2484 -0.0136 -0.0777
54883W        W97936   1.105  24.625   4.032 -0.2011  0.0071 -0.0517
54884W        W97937  27.613  10.120   7.073 -0.0639 -0.0915  0.1059
54885W        W97938  31.377  19.055   7.637 -0.1079 -0.2294 -0.3605
54886W        W97939  32.771  13.387  18.376 -0.0841 -0.0962 -0.5563
54887W        W97940  33.806  17.570  14.578  0.2044  0.0160 -0.0286
54888W        W97941   1.015   0.890   4.451  0.1726  0.0877  0.0497
54889W        W97942  30.274  27.570   4.600 -0.1863  0.0080 -0.0159
54890W        W97943   0.862  21.782  23.481 -0.1661  0.0227 -0.1106
54891W        W97944   2.292   6.696   9.340 -0.2206  0.1343  0.0094
54892W        W97945  25.613  26.191   3.441  0.4469 -0.2629 -0.0517
54893W        W97946   2.730  22.172   9.019  0.2303 -0.2643  0.3814
54894W        W97947  25.633  23.551  19.967  0.0868  0.1458  0.0279
54895W        W97948  28.404  15.141  28.100  0.1756 -0.0090 -0.1800
54896W        W97949  30.141  31.334  26.220 -0.1556 -0.2204  0.1552
54897W        W97950  26.083  27.682   6.945 -0.0280 -0.2187  0.0748
54898W        W97951  34.436   2.474   0.607 -0.1781 -0.1720  0.2615
54899W        W97952  29.657  27.088   8.385  0.1964 -0.1449 -0.2456
54900W        W97953  27.524  21.026   5.945 -0.2658  0.1312 -0.1297
54901W        W97954  22.488   0.321   5.975 -0.1688  0.2725  0.1944
54902W        W97955  20.226   1.202  24.326 -0.2810  0.0434 -0.2557
54903W        W97956  27.797   2.136   6.134 -0.1456  0.0377 -0.1330
54904W        W97957  32.027  19.484  20.030 -0.1787 -0.0958  0.1548
54905W        W97958   0.852  27.798   3.351  0.3205  0.1338 -0.0176
54906W        W97959   9.828  16.419   3.208  0.1021  0.0067 -0.1145
54907W        W97960   1.915  34.393   5.034  0.1155 -0.1203  0.0593
54908W        W97961   9.618   1.006   7.355  0.1078 -0.2672 -0.1511
54909W        W97962  25.260   8.157   6.845 -0.0252 -0.1634  0.1742
54910W        W97963   6.487  14.803  20.856 -0.2067  0.2870  0.1094
54911W        W97964  13.778  30.268   5.182  0.0481  0.0907  0.2085
54912W        W97965  29.031  12.025  29.090  0.1771 -0.1141 -0.1175
54913W        W97966  26.694  28.282  24.949 -0.4719 -0.3880 -0.3663
54914W        W97967  28.640   6.036   6.052 -0.2967  0.1153 -0.2551
54915W        W97968  28.314   0.044   9.255  0.0909  0.0070  0.0593
54916W        W97969  26.083   0.513   4.120  0.4158  0.1828  0.0290
54917W        W97970  12.128   6.605  20.228 -0.0647 -0.0577  0.1172
54918W        W97971  20.040  13.123  27.875  0.0670  0.3921  0.1126
54919W        W97972  34.349  29.117   7.435 -0.1712  0.1829 -0.0950
54920W        W97973  30.508   2.968   9.345 -0.1545  0.0978 -0.0998
54921W        W97974  29.806  26.824  28.243  0.0921 -0.1584  0.0755
54922W        W97975   7.520  16.707   1.393 -0.0527  0.0861  0.5147
54923W        W97976  23.665  26.215  26.343  0.1815 -0.0816 -0.1472
54924W        W97977  16.426  32.872   1.541  0.2328 -0.0205 -0.0887
54925W        W97978  31.785  24.869   3.012  0.1182  0.0478  0.0476
54926W        W97979  28.194  28.331   1.456 -0.0960  0.0805 -0.1323
54927W        W97980  30.072  30.851   0.156  0.3122 -0.1111 -0.0774
54928W        W97981  23.189  17.717  25.480 -0.0504  0.0013  0.0282
54929W        W97982  27.740  22.221  23.072  0.0062  0.1275 -0.0770
54930W        W97983  20.229  16.199   0.400  0.1456 -0.0743  0.2863
54931W        W97984   0.505  33.425  28.193 -0.0863  0.0349 -0.2026
54932W        W97985  25.994  30.451  23.156  0.1061 -0.2738  0.0602
54933W        W97986  31.321  16.237   2.753 -0.2748  0.0051  0.0721
54934W        W97987  26.787  32.326   5.747 -0.1444  0.3115  0.3035
54935W        W97988   4.214  22.389   7.558 -0.1132  0.0989 -0.2913
54936W        W97989  22.365  14.581   8.501 -0.2788  0.0638  0.0974
54937W        W97990  11.814  16.175   0.665 -0.4974  0.0314 -0.0604
54938W        W97991  34.053   0.533  28.408 -0.2102 -0.3391 -0.0193
54939W        W97992  18.225  29.923   7.836 -0.4162 -0.0800  0.2570
54940W        W97993  27.272  23.728  26.426 -0.3563 -0.1646  0.0761
54941W        W97994  33.515  25.353   1.876  0.3072  0.1170 -0.0576
54942W        W97995  15.882  16.423   8.995 -0.0340 -0.0659  0.0746
54943W        W97996   7.391  24.078  26.125  0.1207 -0.2254 -0.1414
54944W        W97997  16.413  21.844   0.785  0.0828  0.0891 -0.2164
54945W        W97998  33.829   9.444   7.088 -0.2608 -0.1536 -0.1243
54946W        W97999  19.123  13.991  21.320  0.0371  0.0016 -0.4257
54947W        W98000   0.543  30.536  25.049  0.0257  0.2891 -0.2793
54948W        W98001  22.369  22.564   2.356  0.2322  0.3670 -0.1537
54949W        W98002   2.829  34.608   4.963 -0.0956 -0.2884  0.0493
54950W        W98003   7.396   3.821  27.128  0.0446  0.4403 -0.0209
54951W        W98004  28.554   4.869   4.966  0.1681  0.1945 -0.2812
54952W        W98005  20.444   8.081  20.784  0.1513 -0.1759  0.1007
54953W        W98006  12.253  21.297   9.197 -0.0286 -0.2442  0.3049
54954W        W98007  15.771  22.497   1.998  0.1569 -0.2390 -0.0008
54955W        W98008   6.595   0.594  15.931 -0.1068  0.1714  0.0006
54956W        W98009   1.331  14.299   3.400 -0.2443  0.2284 -0.0160
54957W        W98010  11.367  16.429  27.825 -0.1760 -0.1422  0.0765
54958W        W98011   2.552  32.608  26.451  0.0443 -0.1020 -0.0358
54959W        W98012  23.297  17.073   5.561  0.0307  0.1373  0.1512
54960W        W98013  25.239   1.633   3.707 -0.1983  0.1944  0.2660
54961W        W98014  31.732  10.021   7.455 -0.3149  0.1404 -0.0794
54962W        W98015  33.937  17.755   7.794  0.0207  0.1071 -0.0362
54963W        W98016   2.720  23.417   2.833  0.2381  0.0509  0.0506
54964W        W98017  34.263  19.043  20.612  0.0934 -0.0934  0.1374
54965W        W98018   3.681  18.175  21.238  0.1983 -0.2298  0.2334
54966W        W98019  19.532  18.623  15.068  0.1405  0.1300 -0.0407
54967W        W98020  31.460  30.946  26.091  0.1119  0.0915  0.1534
54968W        W98021  30.056   6.076   4.489  0.3446 -0.0579 -0.1036
54969W        W98022  26.454  27.435   7.200  0.1483 -0.1157 -0.1154
54970W        W98023   6.961  18.224  28.829  0.2159 -0.1910  0.1498
54971W        W98024  16.539  30.859   9.583  0.0374  0.2384 -0.1935
54972W        W98025  28.327   0.266  10.433  0.2718  0.2960 -0.0744
54973W        W98026   9.201  17.584   3.639  0.1662 -0.3472  0.2530
54974W        W98027  30.907  22.711   8.863 -0.1321 -0.0926 -0.0704
54975W        W98028  24.326  23.685  10.357 -0.1485  0.1755  0.1636
54976W        W98029  21.219  17.335   1.641  0.1847  0.3085 -0.2174
54977W        W98030  21.086  31.813  26.263 -0.0631 -0.2803 -0.2021
54978W        W98031   7.984  30.831   7.072 -0.0480 -0.2383  0.1176
54979W        W98032   1.317  22.662   1.823  0.3707 -0.0648 -0.0231
54980W        W98033   5.375  15.524  15.994  0.2030  0.0810 -0.2492
54981W        W98034   4.468  16.602  25.966 -0.4209  0.0786  0.3291
54982W        W98035  32.478   1.474   7.503  0.4084  0.2669  0.3237
54983W        W98036  31.965   8.248   3.087 -0.0422 -0.0039  0.0893
54984W        W98037  14.739  26.076   2.740 -0.1377  0.0078 -0.0681
54985W        W98038   2.167   9.511  26.091 -0.1793  0.0321 -0.1874
54986W        W98039   7.820  18.374   8.921  0.0172  0.2136  0.1420
54987W        W98040  34.270  28.795  25.585 -0.1581  0.0260 -0.1064
54988W        W98041   8.195  18.403  23.517 -0.2500 -0.0290  0.1316
54989W        W98042  24.045  26.257   9.427  0.1861 -0.0273  0.2628
54990W        W98043  30.376  28.897   4.440 -0.0880  0.0550 -0.1387
54991W        W98044  26.840  26.419  26.853  0.0798 -0.0509  0.3113
54992W        W98045  15.507  34.214   4.804 -0.1414  0.3529 -0.1422
54993W        W98046  22.813  23.283  25.403 -0.0077 -0.4549  0.1431
54994W        W98047   7.515  12.349  25.096 -0.0481  0.4578 -0.0663
54995W        W98048   5.348   9.573   3.061  0.2454 -0.0236  0.3239
54996W        W98049   6.526  11.371   6.514 -0.0478 -0.3817 -0.2722
54997W        W98050  26.751  17.866   7.681  0.1554  0.0373  0.0175
54998W        W98051   2.713  12.918  24.042  0.1853  0.0588  0.0944
54999W        W98052   0.296  32.308   5.829 -0.2172 -0.2342  0.1173
55000W        W98053  13.125   6.692   0.258  0.2015  0.2402 -0.0393
55001W        W98054   0.967  26.745   6.217 -0.3449 -0.3255  0.1188
55002W        W98055  23.729  17.071   1.837 -0.1809  0.1573  0.0336
55003W        W98056  33.091  27.387   8.883  0.0636 -0.0542 -0.0788
55004W        W98057  33.264  27.585   6.457 -0.3313  0.1538 -0.0670
55005W        W98058   8.078   6.866   8.668  0.5836 -0.0463 -0.0846
55006W        W98059  19.544   2.024   9.656 -0.0514 -0.0979 -0.0528
55007W        W98060  16.342  18.364   4.210  0.2371 -0.4148  0.0474
55008W        W98061   4.667  24.182   0.184 -0.0223 -0.1613  0.3049
55009W        W98062  32.788  16.760   3.752 -0.0680  0.0068  0.0883
55010W        W98063   1.179  14.449   6.929  0.1762 -0.1287 -0.2109
55011W        W98064  18.784  17.277  27.670  0.1359  0.0587  0.3691
55012W        W98065   1.972  24.083   2.066  0.2455 -0.0413 -0.1545
55013W        W98066  31.167  27.577  26.988  0.1296 -0.0560  0.0153
55014W        W98067   5.608  21.037   4.018 -0.1030 -0.4701  0.0871
55015W        W98068   7.443  17.339  24.966 -0.1501 -0.0999  0.1514
55016W        W98069  27.599  31.131   9.083  0.0501  0.2475  0.1963
55017W        W98070  26.475  29.359   8.734  0.0176 -0.1847  0.1949
55018W        W98071  32.334  21.545   5.340 -0.2391  0.3361  0.0344
55019W        W98072  31.358  13.978   9.223 -0.2019 -0.1152  0.0211
55020W        W98073  26.260  21.189   2.813  0.0335 -0.1553 -0.1039
55021W        W98074  33.424  19.270  18.912 -0.1092 -0.0050  0.1550
55022W        W98075  29.683  21.442   0.358  0.3299 -0.1817  0.0026
55023W        W98076   1.631  31.090   8.375 -0.0942  0.1429  0.1200
55024W        W98077  24.264  20.608   5.529  0.0213 -0.2363  0.1512
55025W        W98078  26.955  28.480  21.433 -0.2623 -0.2120  0.0682
55026W        W98079  33.943   2.861   6.885  0.0223 -0.0079 -0.0634
55027W        W98080  34.438   0.655  28.100  0.0079 -0.1140  0.4113
55028W        W98081  26.447  28.765  10.198  0.0733 -0.0565  0.0844
55029W        W98082  10.489   7.694   0.664 -0.0855  0.0160 -0.0729
55030W        W98083  26.436  21.641   1.511  0.1270 -0.2043 -0.0430
55031W        W98084  34.373  22.795   8.914  0.2334 -0.0893  0.2005
55032W        W98085  25.914  15.866  28.762  0.0817  0.4380 -0.0785
55033W        W98086  29.392  19.946   0.731  0.0718  0.0099 -0.2300
55034W        W98087  23.287  24.167  17.546 -0.0494 -0.2304  0.3471
55035W        W98088  29.904  27.852  20.552  0.2610  0.1495 -0.0557
55036W        W98089  17.535  23.252  10.357  0.1743  0.0209 -0.0148
55037W        W98090  11.308  10.650   5.357 -0.3558  0.1783 -0.3205
55038W        W98091  29.150  22.992  23.737  0.0241 -0.5156  0.0556
55039W        W98092   6.645  22.661   9.588 -0.1103  0.1713 -0.5101
55040W        W98093  10.322  12.829   2.270  0.4283 -0.0124 -0.0190
55041W        W98094   0.250  20.897   3.581  0.5336  0.1243 -0.2115
55042W        W98095  29.723  21.559  27.112  0.0229 -0.1182  0.1933
55043W        W98096  30.227  24.732   8.580 -0.0597 -0.1720  0.1265
55044W        W98097  18.474  19.666   8.447 -0.2075 -0.0154 -0.0641
55045W        W98098  23.541  20.871   2.822 -0.1007 -0.0716  0.1225
55046W        W98099  30.387  16.469   4.116  0.4071 -0.2434  0.0770
55047W        W98100   1.175  20.627  19.748  0.1144  0.1146  0.0354
55048W        W98101   1.000  28.719   9.161  0.3688 -0.1195 -0.1317
55049W        W98102  29.189  14.858   3.486  0.2497  0.2311  0.0771
55050W        W98103  11.148  19.273   8.745  0.1911  0.2735  0.2187
55051W        W98104  26.634  13.626   7.908  0.1292  0.0723  0.0012
55052W        W98105   9.544  10.398  26.532  0.0893 -0.0831  0.0833
55053W        W98106   1.214  18.536   4.945  0.3660 -0.2507  0.1289
55054W        W98107   5.444  25.839   9.368  0.0807  0.1330  0.2352
55055W        W98108  24.446  20.317  27.837  0.0259 -0.0374 -0.2696
55056W        W98109  18.624   8.247  25.671 -0.0508 -0.2079  0.2445
55057W        W98110  29.488  18.072  27.956 -0.0298 -0.0016 -0.2592
55058W        W98111  27.090  13.931   3.064  0.0493  0.0339 -0.0128
55059W        W98112  31.779  30.613   7.958  0.1068 -0.0549  0.0227
55060W        W98113  32.424  22.753  26.413  0.0113  0.3066  0.3107
55061W        W98114   1.952  24.280  25.689 -0.3078 -0.2905  0.0691
55062W        W98115  16.409  26.295   0.840  0.0259 -0.3122 -0.0531
55063W        W98116  21.309  20.455   2.136 -0.0609  0.1547 -0.3388
55064W        W98117  34.170  31.292   4.869  0.1154  0.4572  0.0548
55065W        W98118  16.240  25.127  10.433  0.0564  0.1124  0.2106
55066W        W98119  26.660  27.418   8.955  0.1831  0.1757 -0.0181
55067W        W98120  28.134  24.007   9.322  0.0735  0.2301 -0.0072
55068W        W98121  26.072   2.350   2.522 -0.0667  0.0228  0.1600
55069W        W98122  28.473  23.830   8.594  0.1839 -0.0674 -0.1105
55070W        W98123  25.067   9.247  16.816  0.0885  0.0480 -0.2107
55071W        W98124  27.695  31.970  28.463  0.1647  0.2276 -0.0490
55072W        W98125   2.340   6.953   6.988 -0.0253  0.1705  0.2623
55073W        W98126   8.478  27.398   7.392 -0.1675 -0.1356 -0.1716
55074W        W98127   8.568  21.071   1.479 -0.1994  0.2297 -0.3617
55075W        W98128   2.448  25.980   6.982  0.2866  0.0574  0.2216
55076W        W98129  28.483   1.604  27.892 -0.0396  0.1659 -0.1949
55077W        W98130  11.636  21.156   7.687 -0.0156 -0.0695  0.1136
55078W        W98131   8.166  29.343  23.101  0.4434  0.1047  0.4131
55079W        W98132  34.238  27.784   7.679  0.1038 -0.0389 -0.1021
55080W        W98133   0.944  20.468   8.644 -0.3516 -0.0505  0.0082
55081W        W98134  16.011  15.051  28.306  0.0112  0.2503 -0.0673
55082W        W98135  25.659  31.769   8.618 -0.2262 -0.0066  0.0420
55083W        W98136   4.673   0.107   4.472 -0.2266  0.3418  0.1347
55084W        W98137  30.143  33.510   9.837  0.3002 -0.0639  0.0001
55085W        W98138   8.804   5.986   2.327 -0.1927 -0.0110 -0.0098
55086W        W98139  25.591  13.292   4.594  0.3795 -0.0333 -0.0216
55087W        W98140  33.085  25.706   9.273 -0.0136  0.0884  0.2137
55088W        W98141   2.300  16.295   8.689 -0.0771  0.0819  0.0453
55089W        W98142   0.238  27.541  19.397  0.0201 -0.0551  0.1496
55090W        W98143  14.855  18.806  28.518 -0.1952  0.1759 -0.0373
55091W        W98144  11.754  11.216  22.839 -0.0074  0.1261 -0.1417
55092W        W98145  33.167  13.293   8.900 -0.2154  0.2268  0.1462
55093W        W98146  25.460  18.886   7.721  0.1434 -0.0927 -0.2109
55094W        W98147  26.933   8.831  28.320  0.0658  0.2413  0.2023
55095W        W98148   3.687   5.951  26.262  0.2740  0.2478  0.3511
55096W        W98149   0.134  11.631  20.421  0.1424 -0.2788  0.2425
55097W        W98150  29.765  30.609  24.000 -0.2674 -0.0172  0.1005
55098W        W98151   4.133  22.360  26.867  0.0726 -0.0734 -0.1476
55099W        W98152   1.808  22.234   2.465  0.1660  0.1257  0.0614
55100W        W98153  16.239  29.634   8.279  0.1187  0.2520  0.1732
55101W        W98154  31.432  12.089  29.070 -0.2743 -0.4453  0.0875
55102W        W98155   0.272  33.643  28.633  0.0655  0.3096  0.0367
55103W        W98156  10.818   8.021   4.732  0.1207  0.0614 -0.0886
55104W        W98157  27.652  31.807  26.284  0.1537  0.2010  0.0238
55105W        W98158  25.129  25.460  26.983 -0.0245  0.1776  0.1125
55106W        W98159   1.633  12.883   8.207 -0.2906  0.3313  0.1094
55107W        W98160  10.449  12.683  16.073  0.2883 -0.0313  0.0145
55108W        W98161  18.713   0.150  25.620  0.0337 -0.3084 -0.2470
55109W        W98162   6.632  31.944  22.540 -0.1619  0.1405  0.4699
55110W        W98163  18.678  31.528  21.911  0.0482  0.1426 -0.2863
55111W        W98164  16.502   5.478  24.460 -0.3186 -0.2011  0.1342
55112W        W98165  13.998  30.929   2.864 -0.1963 -0.0144 -0.0801
55113W        W98166  14.677  20.895   9.831  0.2199  0.1599 -0.0383
55114W        W98167  22.031  20.808   3.447 -0.4010 -0.2331 -0.1187
55115W        W98168  31.532  15.410   1.160 -0.2361 -0.0707 -0.0055
55116W        W98169  28.607  23.786   4.661 -0.1880 -0.0180 -0.0844
55117W        W98170  28.449  18.444   9.961  0.0761  0.2295  0.0687
55118W        W98171  31.840  29.415   2.638 -0.2102 -0.1382  0.1134
55119W        W98172  27.371  21.436   8.778 -0.1688  0.0734 -0.1567
55120W        W98173  15.775  13.903   8.322  0.1614  0.1527  0.0256
55121W        W98174  34.063  14.212   2.484  0.1488 -0.2429 -0.0826
55122W        W98175  31.626  18.629  25.900  0.1178  0.1500  0.1156
55123W        W98176   1.607   3.029   2.108  0.2534 -0.0865  0.1917
55124W        W98177  34.167  10.098   2.298  0.2932 -0.3816  0.0402
55125W        W98178   3.355  28.176  18.627  0.3879  0.0721  0.1514
55126W        W98179  19.415  20.298  22.012  0.0665  0.0655  0.0984
55127W        W98180   1.468  28.301  26.638  0.1584 -0.0201  0.4600
55128W        W98181  27.524  14.732   0.938 -0.1529 -0.1699 -0.0105
55129W        W98182  25.851  17.728  10.371  0.2772 -0.1769  0.3932
55130W        W98183  28.756   6.485   7.841  0.1615 -0.1692 -0.1268
55131W        W98184  14.149   9.299  25.690 -0.1953  0.1184 -0.2306
55132W        W98185   4.300  13.427   8.416 -0.0668 -0.2027 -0.0756
55133W        W98186  24.724  19.070  15.394 -0.1303  0.0230  0.0103
55134W        W98187  29.288  10.883  10.699 -0.0857  0.2120  0.0377
55135W        W98188  31.464  11.144   7.314 -0.3083  0.3513 -0.0064
55136W        W98189   4.239  33.903   4.648  0.0573 -0.1559  0.0534
55137W        W98190  15.764  22.939   2.916  0.1589 -0.1524 -0.0921
55138W        W98191   4.260  27.657   7.449  0.0375  0.3158  0.1596
55139W        W98192  27.645  28.842   9.859 -0.2668 -0.1635  0.0740
55140W        W98193  13.916  29.382  28.015 -0.1098  0.0317 -0.3451
55141W        W98194  25.694  26.130  24.148 -0.2760  0.1394  0.0139
55142W        W98195   1.933  15.277   0.603 -0.3374  0.1385  0.1335
55143W        W98196   6.867  12.379  10.706 -0.1299  0.0085  0.4331
55144W        W98197   4.117  33.012  26.237 -0.0060  0.3118 -0.2685
55145W        W98198  12.700   7.834   7.049 -0.3410 -0.3584 -0.3522
55146W        W98199  19.079  12.770  22.693  0.2794  0.0397  0.2588
55147W        W98200  13.380  22.719   6.791 -0.0803  0.3930 -0.1429
55148W        W98201  31.670  28.031   7.689 -0.0536 -0.0067 -0.2361
55149W        W98202  27.624  25.754   8.370  0.2633 -0.0951 -0.5779
55150W        W98203  33.528  31.417  17.089  0.1082 -0.0260 -0.0549
55151W        W98204  15.847  23.106  24.836 -0.0436  0.0185 -0.0700
55152W        W98205   5.831   1.633   2.599 -0.0179 -0.0032 -0.0027
55153W        W98206   5.846  21.096  25.485  0.1772  0.0029 -0.0199
55154W        W98207  28.529  29.112  27.865 -0.1099  0.2900  0.3156
55155W        W98208  32.621   2.873  16.931 -0.3073  0.0006 -0.1806
55156W        W98209  15.284  27.726  21.433  0.0173  0.0830 -0.1135
55157W        W98210  27.173  15.390  14.370  0.0065 -0.0569 -0.2791
55158W        W98211  22.744  20.111   3.601  0.0143  0.0384 -0.0304
55159W        W98212   1.148  15.925   2.571 -0.0583  0.0298 -0.0516
55160W        W98213   5.584   4.929   7.909 -0.1609 -0.1949  0.0441
55161W        W98214  28.822  31.862   9.500 -0.2682 -0.0937 -0.1998
55162W        W98215  25.500  28.087  24.165  0.1041 -0.2143  0.1660
55163W        W98216   7.800  34.283   5.741 -0.0496 -0.4524  0.1717
55164W        W98217  27.271  14.064  22.077 -0.3208 -0.2846 -0.1379
55165W        W98218   6.798  18.163   5.391  0.0997 -0.0617 -0.1125
55166W        W98219  26.461   8.587  19.300  0.0384 -0.1132  0.1813
55167W        W98220  21.095  15.282   1.632  0.1713  0.1853  0.0632
55168W        W98221   2.616  24.501   7.061 -0.0658 -0.3225  0.5051
55169W        W98222  33.475   3.034   5.537  0.0137 -0.0091 -0.1456
55170W        W98223  25.205  27.299  28.419  0.1530  0.1748  0.1398
55171W        W98224   2.038  30.856   8.877 -0.0678  0.0907  0.3023
55172W        W98225  14.289  32.029   6.272  0.1408 -0.3038 -0.1536
55173W        W98226  31.130  18.667   8.807 -0.0116  0.1238 -0.2119
55174W        W98227  10.554  18.257  26.960  0.0228  0.0637 -0.2166
55175W        W98228  31.346  24.865  22.064  0.0251  0.2183 -0.0300
55176W        W98229  25.090  10.399   0.475  0.1437  0.2139  0.1094
55177W        W98230   9.891   1.761  14.834 -0.0325 -0.0762  0.3303
55178W        W98231   8.348  33.793   6.473 -0.1147  0.2879 -0.2764
55179W        W98232   8.659  14.688  25.287  0.1039 -0.1512  0.2670
55180W        W98233   1.435  19.548  24.116 -0.0748  0.0633  0.3160
55181W        W98234  26.306  29.178   1.793  0.1063 -0.2319  0.0595
55182W        W98235  29.742  27.798   9.096  0.1497 -0.0024 -0.0445
55183W        W98236  28.342  10.216   5.732  0.1261  0.0284 -0.4050
55184W        W98237  29.910  26.235  13.796  0.0751 -0.2431 -0.2366
55185W        W98238  28.221  23.404  25.358 -0.2907  0.1223 -0.2883
55186W        W98239  30.173  14.233   6.794  0.0194  0.2587 -0.0280
55187W        W98240  32.662  16.734  23.206 -0.2053  0.1322 -0.0134
55188W        W98241  23.502  21.668  28.078  0.3655  0.0842  0.2601
55189W        W98242  34.411  22.161   2.743 -0.1404 -0.0623  0.1726
55190W        W98243  10.796  26.405   8.498 -0.4048  0.2813  0.2880
55191W        W98244  10.757  20.472  15.997 -0.3251  0.0802  0.2235
55192W        W98245  19.077   0.335  28.770 -0.0422 -0.0571 -0.5299
55193W        W98246   2.363  14.743  21.529 -0.3325  0.1204 -0.1114
55194W        W98247   1.624  26.485   6.780  0.2545 -0.0378 -0.0567
55195W        W98248  11.268  22.469  28.029 -0.2567  0.1240 -0.2456
55196W        W98249   2.171  18.686  26.885  0.0203  0.1460 -0.1975
55197W        W98250  18.734  30.605  24.653  0.0712 -0.1622 -0.0096
55198W        W98251   6.718   1.386  17.613  0.0147  0.2345 -0.2131
55199W        W98252   3.206  13.665   1.687 -0.1149  0.0943  0.0739
55200W        W98253   9.710   2.443  20.658 -0.1678  0.1020 -0.0428
55201W        W98254  28.667  27.919   2.430  0.0864  0.1286 -0.1222
55202W        W98255  31.089   2.162   7.078 -0.1968 -0.1200  0.1226
55203W        W98256   2.840  20.443   3.893 -0.2197 -0.0105  0.0430
55204W        W98257  18.166   2.834   1.501 -0.2119  0.2385  0.0254
55205W        W98258  30.715  23.440  21.749 -0.2142  0.1897 -0.0883
55206W        W98259  34.377  20.436  26.026  0.2428 -0.1805  0.0761
55207W        W98260  28.905  26.101  20.651  0.1320 -0.0109  0.4852
55208W        W98261  11.496  21.257  28.177 -0.2460 -0.0898 -0.2965
55209W        W98262   3.642   5.540  28.340 -0.1301  0.1342  0.0872
55210W        W98263   3.613  15.620  25.533  0.0816  0.1471 -0.1014
55211W        W98264  17.029  14.772   3.153  0.2501 -0.3060 -0.2466
55212W        W98265  26.777  28.857   5.604 -0.1419 -0.0631  0.1234
55213W        W98266  33.954  19.520   8.279 -0.1983 -0.0634 -0.1608
55214W        W98267   2.105   9.506   3.749  0.0469 -0.1775  0.0395
55215W        W98268  24.320  28.361  25.763  0.3342  0.0752  0.2647
55216W        W98269  20.006  20.547   5.549 -0.2440 -0.1334  0.1558
55217W        W98270  16.932  28.756  24.526 -0.0375 -0.2682  0.2474
55218W        W98271  34.559   9.147   4.420 -0.0170 -0.0284  0.0787
55219W        W98272  28.926  25.247   5.046 -0.0009 -0.0597 -0.0710
55220W        W98273  21.755  25.702   6.330  0.0811 -0.2889  0.1909
55221W        W98274  18.041  21.722  18.981  0.1114 -0.0994  0.0833
55222W        W98275  10.432  31.309   4.167 -0.0162 -0.1120  0.2029
55223W        W98276   5.489   0.127   0.154  0.2421  0.4640  0.0716
55224W        W98277  20.572   0.305   5.175 -0.1474  0.0312 -0.1246
55225W        W98278  19.357   3.147  22.746  0.2277 -0.2977  0.0763
55226W        W98279  23.929  16.906   1.175 -0.0250  0.0392 -0.0616
55227W        W98280   2.712  29.307   3.666 -0.1357 -0.1135 -0.0699
55228W        W98281  15.742  31.730  16.994 -0.0567  0.0686 -0.2668
55229W        W98282   2.223  30.938   3.453  0.1588  0.0513  0.2091
55230W        W98283  31.321  19.225   5.992 -0.0193 -0.0700  0.1953
55231W        W98284  34.451  25.636  28.018 -0.1408 -0.2735  0.1383
55232W        W98285   6.208  11.893   6.430 -0.1268  0.2660 -0.2223
55233W        W98286   2.212  20.166  22.189  0.0800 -0.1512 -0.0474
55234W        W98287   1.419   5.561  24.904 -0.2315 -0.3511  0.1408
55235W        W98288  15.330  21.964   4.494  0.2986 -0.2586  0.2284
55236W        W98289   1.925  19.694   5.122 -0.0595 -0.0807 -0.2001
55237W        W98290   2.231  21.518  23.043  0.1514  0.2349  0.1917
55238W        W98291  18.888  28.799   9.559 -0.1235 -0.1539 -0.0839
55239W        W98292  17.338  28.913  25.279  0.1757 -0.1674 -0.1216
55240W        W98293   6.980  25.384   0.669  0.1966  0.2718 -0.0148
55241W        W98294  29.113  28.015   8.216 -0.5055  0.0492  0.1029
55242W        W98295  21.242  21.503  15.624 -0.1105 -0.0661  0.1575
55243W        W98296  25.190  11.042   1.977  0.0629  0.1283 -0.3701
55244W        W98297  32.758  27.572   2.573 -0.1059  0.2055  0.0042
55245W        W98298  27.730  26.494   7.179  0.1996 -0.2711 -0.0957
55246W        W98299  32.292  28.714   5.716  0.1844 -0.2766 -0.1252
55247W        W98300  15.717  26.657   8.125  0.0406  0.0681 -0.1735
55248W        W98301  30.210  13.910   0.507  0.0579  0.0013  0.0834
55249W        W98302  20.248  23.752   6.708  0.0212  0.1871 -0.0683
55250W        W98303  25.088  25.248  15.187 -0.1172 -0.3120  0.2855
55251W        W98304   3.364  15.401   9.561 -0.3140  0.3010  0.0675
55252W        W98305   7.393  33.974  18.313 -0.0307 -0.1459 -0.0867
55253W        W98306   1.450  28.592   4.792 -0.1541  0.1000  0.0451
55254W        W98307   2.205  23.436  23.667 -0.1251  0.1698 -0.0101
55255W        W98308  34.364   6.001  22.965  0.1722 -0.0313  0.0037
55256W        W98309   5.705   4.326  26.589 -0.0309  0.1224 -0.2886
55257W        W98310   2.840   6.915  23.054  0.2667  0.3108  0.2029
55258W        W98311   3.197  27.381  23.888  0.0211  0.0945  0.1810
55259W        W98312  28.308   6.598  25.551 -0.1084  0.0773 -0.1736
55260W        W98313  30.378  20.100   4.452 -0.1985  0.3547  0.1535
55261W        W98314  29.442  27.265  28.378 -0.1185  0.3550 -0.1788
55262W        W98315   3.278  22.452   5.989  0.1468  0.0521  0.1126
55263W        W98316  28.898  32.348   6.835  0.1203 -0.1189  0.1585
55264W        W98317   8.250  31.816  14.488 -0.2696  0.1760  0.1448
55265W        W98318   1.869  28.267   7.381  0.0998 -0.1568 -0.0130
55266W        W98319  25.243   7.084  22.368  0.3020  0.0751 -0.0957
55267W        W98320  21.166  32.364   9.593  0.3129 -0.0318 -0.0070
55268W        W98321  17.339  28.394   2.076  0.0179 -0.3782  0.5492
55269W        W98322  33.267  14.245   1.190 -0.2159 -0.3006  0.0662
55270W        W98323  20.431  33.840  14.448  0.2358  0.1769 -0.0114
55271W        W98324  30.875  22.167  27.112  0.2256  0.2263 -0.1079
55272W        W98325  27.452  11.318  28.954 -0.0849  0.1420  0.1486
55273W        W98326  28.307  25.169   8.037 -0.3957  0.1788  0.2419
55274W        W98327   3.763   4.367   5.217  0.0732 -0.0501 -0.3763
55275W        W98328  30.960  18.558  18.966  0.0083 -0.1017  0.2682
55276W        W98329   6.876  30.636  27.753 -0.0488  0.3263  0.1403
55277W        W98330  29.699  10.230   2.418  0.0133 -0.2467 -0.2065
55278W        W98331  16.671   7.402  27.307 -0.3869 -0.1411  0.1512
55279W        W98332  32.577  10.950   2.018  0.2772 -0.3702  0.1589
55280W        W98333  18.825  32.944  24.005 -0.3021 -0.2912 -0.2086
55281W        W98334  30.177  34.367   5.784  0.0780 -0.0145 -0.0231
55282W        W98335  26.031   8.289  26.319  0.2448 -0.2097 -0.1251
55283W        W98336   4.545  29.236   3.731  0.6499  0.3711  0.0718
55284W        W98337  19.449   9.735  26.153 -0.0795  0.1790  0.0278
55285W        W98338  31.650  22.882  18.615 -0.3084  0.2768 -0.0195
55286W        W98339  20.602   5.832   7.693 -0.2162 -0.2472 -0.0560
55287W        W98340  26.552  24.915  27.755  0.1693 -0.0984  0.0151
55288W        W98341   9.311  30.039  24.470 -0.0100 -0.1703 -0.1711
55289W        W98342  15.360  31.070   0.890  0.1150 -0.0156 -0.1238
55290W        W98343  28.740   4.549   0.073  0.0804 -0.2624  0.1045
55291W        W98344   6.142  30.827  23.283 -0.1680 -0.0926 -0.0830
55292W        W98345  25.541  34.154  25.972  0.1161 -0.2709 -0.2582
55293W        W98346  10.655  32.442  22.673  0.0216  0.0869  0.1473
55294W        W98347  20.119  23.068   4.480  0.2566 -0.1279  0.3385
55295W        W98348  29.863  10.232  23.905 -0.1348 -0.1576 -0.1220
55296W        W98349  15.872  23.062   4.929  0.3418  0.0712 -0.2417
55297W        W98350   7.991  26.888  28.480 -0.2190 -0.1181 -0.0718
55298W        W98351  11.831  17.839  27.047 -0.0551  0.3458 -0.0702
55299W        W98352  16.724  33.522   4.332 -0.1136  0.1475 -0.0591
55300W        W98353   7.786  16.909  24.097 -0.2992 -0.1798  0.1199
55301W        W98354   4.588  16.890  24.978 -0.1147  0.0070 -0.2612
55302W        W98355   3.850  32.843   3.533  0.0087 -0.1894 -0.0335
55303W        W98356  18.670  22.643  23.658 -0.2007 -0.1181  0.1016
55304W        W98357  14.923  18.241  27.222  0.1517  0.1604  0.1041
55305W        W98358  18.728  33.042   0.395  0.2107 -0.1116  0.1914
55306W        W98359   5.210  25.031  21.732 -0.1491  0.2295  0.3464
55307W        W98360  15.582  27.588  10.502  0.2753 -0.2981  0.0344
55308W        W98361  18.010  24.784  20.497 -0.0889 -0.0830  0.0972
55309W        W98362  28.374  27.952  26.120  0.0067 -0.0840 -0.1185
55310W        W98363   1.796  28.066  25.516 -0.0170  0.3018 -0.0109
55311W        W98364  17.659  24.464   2.533 -0.0888  0.0190  0.0753
55312W        W98365   0.992   3.249  24.663  0.0645 -0.1693 -0.3032
55313W        W98366  19.787  20.221  25.017 -0.2366 -0.4075  0.2138
55314W        W98367  20.618   2.485   5.235  0.0362 -0.3334 -0.2222
55315W        W98368  24.364  25.676   8.066  0.0443 -0.1872  0.0120
55316W        W98369  29.913  28.449  20.268 -0.0979  0.0569  0.0989
55317W        W98370   3.390  19.594   0.360  0.1287 -0.2757 -0.1668
55318W        W98371  34.396  30.395   2.101  0.0795  0.0206  0.1550
55319W        W98372   5.155  11.657   7.361  0.0076 -0.0409  0.0320
55320W        W98373  30.980  22.662  22.602  0.3676  0.1299 -0.0981
55321W        W98374   6.730  14.767  17.730  0.1192  0.0250 -0.0879
55322W        W98375   8.384  19.827  21.173  0.5167 -0.2698 -0.1351
55323W        W98376  10.071  25.786   6.099  0.0400 -0.0134 -0.0315
55324W        W98377  27.254  24.224  19.379 -0.2731  0.0884  0.1135
55325W        W98378  33.357  11.472   3.782  0.0541 -0.0983 -0.0450
55326W        W98379  30.730  17.591   7.089  0.1009  0.0996  0.1490
55327W        W98380  14.886  20.277   8.567 -0.2329 -0.0131  0.1545
55328W        W98381  12.959  26.044   5.401  0.0219  0.0662  0.0055
55329W        W98382   4.324  29.576  27.415  0.4273 -0.0984  0.1862
55330W        W98383   4.324  34.293  20.598 -0.0397  0.1338  0.0564
55331W        W98384   4.129   6.090  10.409  0.3507  0.1757  0.0007
55332W        W98385   9.509  12.698  19.219 -0.1106 -0.0500 -0.1547
55333W        W98386  18.078  28.968   3.346 -0.0867  0.1661 -0.2388
55334W        W98387  34.125  29.257  29.083 -0.2353 -0.2988 -0.1269
55335W        W98388   9.942   8.470   5.220 -0.0992  0.0084 -0.0382
55336W        W98389  24.235   4.831   8.082 -0.0803 -0.3720  0.0413
55337W        W98390  30.052   3.083  27.957  0.1171  0.1046 -0.0653
55338W        W98391  25.661  18.896   9.881 -0.1009  0.0024 -0.2476
55339W        W98392   1.552  19.993   6.771 -0.0690 -0.0102 -0.0711
55340W        W98393  33.664   4.104   0.705 -0.1325  0.2258 -0.0149
55341W        W98394   7.981   7.061  28.865 -0.0071  0.0251  0.3071
55342W        W98395   1.493  29.319   7.303  0.4124 -0.1422 -0.2970
55343W        W98396  29.239  14.183  17.502  0.3480 -0.0416 -0.0917
55344W        W98397  31.657  32.402   4.586 -0.1301 -0.0706  0.0414
55345W        W98398  18.667  18.592   0.481 -0.0127 -0.2128  0.2034
55346W        W98399   5.569  25.598   6.319  0.0187  0.1131 -0.0475
55347W        W98400  29.937  27.365  28.112 -0.2091  0.0441 -0.2228
55348W        W98401   5.535  32.101  26.699  0.0140 -0.2142  0.0852
55349W        W98402  15.489  33.283  19.144 -0.3187  0.2337 -0.1698
55350W        W98403   2.951  13.557   7.234 -0.0257 -0.0596  0.1494
55351W        W98404  19.996  30.860   1.559  0.0960 -0.0580  0.2750
55352W        W98405  10.895  30.300   1.939  0.0916  0.0124  0.1073
55353W        W98406  19.292  18.762   8.265  0.1779 -0.0993  0.2437
55354W        W98407  10.549  24.258  27.826 -0.0383  0.1655 -0.0819
55355W        W98408  23.661  29.446  19.421 -0.4037 -0.0059  0.2042
55356W        W98409   0.475  21.508  26.875 -0.1944  0.0688  0.0944
55357W        W98410   8.067  26.847   5.158 -0.3192  0.1663  0.0185
55358W        W98411   0.837  19.632  24.277  0.1291 -0.2643 -0.2608
55359W        W98412  28.683  24.939   8.966 -0.0101  0.0218  0.1838
55360W        W98413  32.858   4.694  13.617 -0.1091  0.0223  0.2881
55361W        W98414  14.317  22.069  23.773 -0.0427 -0.1104 -0.0014
55362W        W98415  33.349  33.671  16.981  0.3936 -0.1065  0.0435
55363W        W98416  29.877  27.658   3.544 -0.0012  0.1140  0.1940
55364W        W98417   6.578  16.370   8.397  0.2107 -0.1046  0.0187
55365W        W98418  18.712  33.193  25.552  0.0694 -0.0487  0.3050
55366W        W98419  24.981  29.757  23.880  0.1029  0.0408  0.0638
55367W        W98420  12.931  27.857  26.143  0.0245  0.0386 -0.1538
55368W        W98421   6.178  31.598   9.240  0.2643 -0.0527 -0.0867
55369W        W98422  29.894  14.694  29.022 -0.0054 -0.4110  0.1658
55370W        W98423  31.114   8.106   7.966  0.2724 -0.0520  0.2130
55371W        W98424  10.608  22.200  25.862 -0.1488  0.1939 -0.1895
55372W        W98425  30.299   5.650   8.177 -0.0261 -0.5583 -0.1878
55373W        W98426   9.987  33.366   9.533 -0.0954 -0.1680  0.1935
55374W        W98427  26.976  29.950   8.743  0.0798  0.1894  0.1901
55375W        W98428  27.328  25.113   7.228  0.1501  0.2717 -0.4357
55376W        W98429  31.949  29.442   7.515 -0.0033 -0.2204  0.1966
55377W        W98430   0.639  26.975   9.034 -0.2506  0.0012  0.0409
55378W        W98431  22.674  23.394  11.155 -0.0603  0.0880  0.0605
55379W        W98432  22.202  17.383   7.428 -0.0120 -0.1421  0.0941
55380W        W98433  28.670  19.374  25.765 -0.2246  0.0884  0.0098
55381W        W98434  20.714  26.959  26.280  0.2256 -0.0370 -0.4460
55382W        W98435  27.831  20.093   5.135 -0.4156 -0.0183 -0.0090
55383W        W98436  30.755  31.895   2.571 -0.1354 -0.0041  0.0487
55384W        W98437   5.363  34.680   2.355  0.0166 -0.0811  0.1973
55385W        W98438  29.492  33.800  21.497 -0.2231  0.0573  0.0324
55386W        W98439   5.193  19.761   8.195 -0.0603  0.0814  0.1980
55387W        W98440   0.300  20.646   9.287 -0.0153  0.2460 -0.0904
55388W        W98441   0.851   0.324   2.198  0.0303  0.2056  0.2005
55389W        W98442   0.237  17.132  28.266  0.1779  0.1451 -0.1731
55390W        W98443  31.767  32.832   3.133  0.3245 -0.2476  0.1195
55391W        W98444  11.888  33.883   3.097 -0.0089  0.4077  0.0454
55392W        W98445  20.715   1.587   9.366  0.2799  0.3611 -0.0508
55393W        W98446   4.161  25.907  27.845 -0.1438  0.1702  0.0876
55394W        W98447   2.113  22.850   4.942  0.2614  0.0434  0.0519
55395W        W98448  17.552  21.513   2.804 -0.0963 -0.0241  0.0252
55396W        W98449  30.828  23.640   8.149  0.0369 -0.1436 -0.0155
55397W        W98450   7.242   8.784   1.237 -0.2806 -0.0422 -0.0026
55398W        W98451   5.484  21.448   5.866 -0.1082 -0.1596 -0.3079
55399W        W98452  33.552  25.065   7.252 -0.1939 -0.0275 -0.0727
55400W        W98453   6.972  13.364   1.036 -0.0395  0.2793 -0.0514
55401W        W98454  30.361  33.845   6.116 -0.2393 -0.0259 -0.0991
55402W        W98455  26.361   2.432   4.137  0.0064  0.0930  0.1920
55403W        W98456  27.424  24.089   7.456 -0.0742  0.1830  0.0851
55404W        W98457   5.058  30.892   7.784 -0.0696  0.1096 -0.1368
55405W        W98458   2.417  12.020  19.308 -0.0293 -0.2840  0.0349
55406W        W98459  29.546  23.818   5.229  0.3364  0.0085  0.0862
55407W        W98460  29.939  23.178   8.136  0.2974 -0.2389  0.0361
55408W        W98461  26.881  24.372  19.729  0.2630 -0.1278  0.0305
55409W        W98462  24.962  33.806  10.118 -0.0487 -0.1491 -0.0524
55410W        W98463  30.532  28.326  25.315  0.2442  0.1837 -0.2429
55411W        W98464   1.251  31.744  24.938 -0.0737 -0.0970 -0.2689
55412W        W98465   0.517  24.487  28.155  0.2855 -0.3494 -0.0041
55413W        W98466  26.627   8.861   5.854  0.0997  0.1732  0.0129
55414W        W98467  31.804  29.946  28.178  0.1489 -0.1922 -0.4196
55415W        W98468  21.449  32.037   8.300 -0.1178  0.1644  0.1001
55416W        W98469   8.168  17.461   6.506  0.0241  0.2052  0.3708
55417W        W98470  11.597  33.870   9.836  0.0458  0.0038 -0.0988
55418W        W98471  18.522  13.749  25.517 -0.0105  0.1796 -0.1965
55419W        W98472  22.438  26.218  22.177 -0.1637 -0.0121  0.0762
55420W        W98473  32.113   8.589   3.445 -0.4122  0.1311 -0.4005
55421W        W98474  16.666  27.605  23.877 -0.1269 -0.1757  0.0672
55422W        W98475   5.902  16.940   7.810 -0.0916  0.1111  0.1524
55423W        W98476   7.927  29.596   1.540  0.2461  0.2487 -0.1250
55424W        W98477  34.331  18.028   9.149  0.1024 -0.1063  0.0112
55425W        W98478   3.055  33.096   8.820  0.1643  0.1151  0.0899
55426W        W98479   4.198  13.717  23.348  0.0049 -0.3995  0.4449
55427W        W98480  29.647  23.789   9.778  0.0736 -0.2772 -0.3187
55428W        W98481   0.250  33.873   0.758 -0.0154 -0.1833 -0.1113
55429W        W98482  30.292  28.883  24.109  0.2304  0.2602  0.1542
55430W        W98483  15.989  29.869   7.721 -0.2439  0.3370  0.3077
55431W        W98484   7.081  31.567   3.505  0.2161 -0.2653  0.0812
55432W        W98485  30.752  22.537   0.272  0.1275 -0.0943  0.0980
55433W        W98486  18.147  23.365  18.832  0.2719 -0.1141  0.2057
55434W        W98487   0.688  10.549   5.299  0.1032 -0.1309 -0.0366
55435W        W98488  28.986  24.242  28.351 -0.2281 -0.0513  0.2335
55436W        W98489  22.875  25.742   6.471 -0.0543  0.1875 -0.3620
55437W        W98490   5.475   6.110   5.857 -0.0066  0.4023 -0.5555
55438W        W98491   5.334  29.733  25.160  0.1666 -0.0888 -0.3073
55439W        W98492  19.712  20.467  20.582 -0.1313  0.0185 -0.1029
55440W        W98493   9.905  21.162  27.574  0.4368 -0.3087  0.1299
55441W        W98494   2.180  22.258  29.199 -0.1211 -0.0242  0.0953
55442W        W98495  23.645  34.389  21.809  0.0133  0.1966 -0.2627
55443W        W98496  14.999  32.068   0.911  0.1990 -0.0494  0.1258
55444W        W98497   4.646  19.098   8.187 -0.1337  0.0377  0.1434
55445W        W98498  12.220  19.039  23.508  0.0270  0.0006 -0.2547
55446W        W98499   5.810  11.407  25.565 -0.0464 -0.2848 -0.1368
55447W        W98500  16.590  33.563  16.961 -0.0232  0.2370  0.0736
55448W        W98501   7.350  25.836   3.042 -0.0093  0.0558  0.0284
55449W        W98502  32.370   3.132  21.893  0.1028 -0.2495  0.1202
55450W        W98503   7.835  31.134  23.118  0.2687  0.0176 -0.0653
55451W        W98504  31.043  29.718   0.591 -0.1889 -0.0503 -0.2390
55452W        W98505   0.167  26.245   0.945 -0.2034  0.2054 -0.2096
55453W        W98506  19.948  34.390   6.069  0.1694 -0.1051 -0.2059
55454W        W98507   6.361   1.457   0.769 -0.1562  0.1447  0.1481
55455W        W98508  25.723  22.035   3.160 -0.0198 -0.0553 -0.0593
55456W        W98509  33.362  12.585   8.589 -0.1578 -0.2188  0.2598
55457W        W98510   0.481  14.885   7.575 -0.1273  0.1626  0.0293
55458W        W98511  28.080  13.808  19.230 -0.0976  0.0158 -0.0224
55459W        W98512   5.969  19.329   7.607 -0.1368 -0.2470 -0.1615
55460W        W98513   0.678  26.290   6.361 -0.1735  0.0274 -0.0423
55461W        W98514  25.900  26.484   8.064 -0.0163  0.0839  0.0894
55462W        W98515  10.790   7.996   3.337 -0.1014  0.2439 -0.2381
55463W        W98516  13.041  28.005  20.757  0.0211  0.0342  0.0847
55464W        W98517   3.197  23.221  27.306  0.1692  0.0376  0.0304
55465W        W98518  22.431  29.911   3.731  0.2790 -0.0200  0.3995
55466W        W98519  18.969  21.898   9.270 -0.0976  0.3001 -0.3588
55467W        W98520  27.281  23.843   8.398 -0.0740  0.2162 -0.0714
55468W        W98521  33.875   0.189   8.176  0.0748  0.0637 -0.0779
55469W        W98522  29.569  20.770  24.352  0.1094  0.3732 -0.0263
55470W        W98523   0.797  26.663  28.327  0.1441 -0.2497  0.4403
55471W        W98524  29.437  25.621  21.143 -0.0591  0.3144 -0.0232
55472W        W98525  33.306   4.976  21.883 -0.0712 -0.0656 -0.0103
55473W        W98526  33.435  17.662   8.835 -0.1141 -0.3182 -0.2665
55474W        W98527  25.793  30.671  20.356  0.2824  0.2843  0.2459
55475W        W98528  30.326  29.813   1.818 -0.0557 -0.0887  0.0181
55476W        W98529  25.196  33.449   1.858 -0.0172 -0.2094 -0.2699
55477W        W98530  33.156  18.722  25.409 -0.0539  0.5557  0.0305
55478W        W98531  33.891  22.597   3.439  0.1476 -0.0239 -0.2586
55479W        W98532  25.971  26.488  10.007  0.3425 -0.3605 -0.1783
55480W        W98533   0.259  31.053   5.379 -0.2027 -0.1696  0.1194
55481W        W98534  16.372  33.638   3.078  0.2943  0.3061 -0.1161
55482W        W98535   6.803  22.984   1.827  0.0497 -0.0137  0.0286
55483W        W98536  27.163  18.697   6.557 -0.0111 -0.1179  0.1471
55484W        W98537  27.649  11.085   2.663 -0.3316  0.0785 -0.0583
55485W        W98538  25.758   7.322   6.428 -0.0389  0.1268 -0.0654
55486W        W98539  17.170  24.675   2.564  0.1464 -0.0038  0.1593
55487W        W98540  10.998  19.663  19.041 -0.0490  0.3405 -0.3839
55488W        W98541  29.580  13.283   8.212  0.4542 -0.0134  0.0452
55489W        W98542  23.091  31.060   8.239 -0.1726 -0.1191  0.1338
55490W        W98543  22.184  26.229  28.803 -0.2891 -0.0331 -0.1481
55491W        W98544  24.990  17.900   8.794  0.0751  0.4171 -0.2452
55492W        W98545  19.289   3.494   5.840 -0.1548  0.4271  0.0009
55493W        W98546  12.450   7.371   9.094 -0.1455 -0.1607  0.0612
55494W        W98547  33.833   1.092  16.681  0.1701  0.2939 -0.3155
55495W        W98548  12.241  28.487   8.842  0.1433 -0.0242  0.1547
55496W        W98549   5.415   9.259  18.729 -0.0771  0.0926 -0.1571
55497W        W98550   9.745  24.210   4.105  0.3520  0.3316  0.1488
55498W        W98551  18.645  29.755   7.646  0.4790  0.0427 -0.0663
55499W        W98552   4.088  31.055   6.638  0.0503  0.1085 -0.0453
55500W        W98553  27.898  29.951   2.746 -0.0252 -0.1802  0.0753
55501W        W98554  25.475  25.660   6.684  0.1034  0.1896  0.3169
55502W        W98555  12.297  24.289   5.852  0.1490 -0.2671 -0.0638
55503W        W98556   3.515  24.674  14.860  0.3999 -0.0656 -0.2560
55504W        W98557  22.694  23.689   4.250  0.1647  0.1673 -0.0386
55505W        W98558   5.234  10.888  25.857  0.0361 -0.2601 -0.0394
55506W        W98559  29.186  23.094  17.149 -0.2926 -0.0346  0.3140
55507W        W98560  27.682  25.725  26.686  0.0042  0.2120 -0.2141
55508W        W98561  32.244  15.403  13.701 -0.0649  0.3223 -0.1608
55509W        W98562  27.226  13.346  28.404 -0.4381  0.1122 -0.0400
55510W        W98563  20.751  27.448   7.776 -0.1402 -0.3855  0.1133
55511W        W98564  25.171  30.362  26.670 -0.3952  0.2309  0.0570
55512W        W98565   2.470   1.633   1.029 -0.0377  0.1919 -0.0880
55513W        W98566  13.695  23.642  25.496  0.0148 -0.0646 -0.1879
55514W        W98567   5.518  21.697   6.775 -0.3648  0.1420 -0.1032
55515W        W98568   8.233  22.792   9.213  0.0256 -0.2338  0.1757
55516W        W98569  23.810  30.678  29.096  0.1183  0.0379  0.0541
55517W        W98570  14.453  23.619   4.600  0.1059 -0.2052  0.0945
55518W        W98571  13.489  32.904  29.088  0.1621  0.0492 -0.0303
55519W        W98572  30.314  21.594  25.795  0.0698 -0.0672 -0.1657
55520W        W98573  23.963  32.645   1.071 -0.2217  0.0321  0.0136
55521W        W98574  30.805  34.000  26.080 -0.4769 -0.1156 -0.1190
55522W        W98575  26.424  25.774   7.278 -0.0048  0.2116 -0.1536
55523W        W98576  10.517   0.454   2.395 -0.1392  0.1056 -0.0677
55524W        W98577  31.780   5.564   5.469  0.1073 -0.0904  0.2154
55525W        W98578  22.620  22.288   4.124  0.1270  0.1569  0.0705
55526W        W98579  33.632  26.984   2.766  0.2156 -0.0499  0.3183
55527W        W98580   8.796  24.159   4.531 -0.0757 -0.4060 -0.1100
55528W        W98581  29.917  20.394  26.541 -0.0607  0.0769 -0.3316
55529W        W98582  19.872  24.162   8.864  0.1336  0.3981 -0.0214
55530W        W98583  21.295  26.629   8.335 -0.1737 -0.1024  0.3432
55531W        W98584  32.602  33.706  28.483 -0.2838 -0.2718 -0.0581
55532W        W98585   6.341  27.123   3.383  0.0367 -0.1350  0.0160
55533W        W98586   0.735   4.289   6.752 -0.1009 -0.2990 -0.0210
55534W        W98587  30.604  23.075   1.573  0.1184 -0.0333 -0.0981
55535W        W98588  31.024  12.949   7.751  0.2008  0.1583 -0.0970
55536W        W98589   4.677  12.069   3.177  0.4697 -0.0561 -0.0692
55537W        W98590  20.695  25.958   4.031  0.1677 -0.0056  0.1188
55538W        W98591   2.799   5.860   3.500 -0.0530 -0.5832 -0.0160
55539W        W98592   0.993  33.092  24.319  0.4581  0.0087 -0.0067
55540W        W98593   5.175  18.063  25.456 -0.1548 -0.1293 -0.0003
55541W        W98594   0.472  18.243   3.516  0.0596 -0.0954  0.5030
55542W        W98595   2.626   2.866   4.661 -0.0090 -0.2092  0.3276
55543W        W98596  25.664  16.341   4.522  0.2182 -0.1171  0.4734
55544W        W98597  31.874  17.144   6.427 -0.1395  0.2201  0.1545
55545W        W98598  29.616  29.650   7.808  0.3942  0.2219 -0.0222
55546W        W98599   1.249  30.652   0.019  0.0962  0.1639  0.2198
55547W        W98600  19.494  16.559   9.236 -0.1542 -0.1761  0.0021
55548W        W98601  29.402  22.488   5.822 -0.3600 -0.3776  0.0551
55549W        W98602   2.960  28.098  19.736 -0.0964 -0.1604 -0.3123
55550W        W98603  32.879  28.704   0.710  0.1245  0.1614  0.2370
55551W        W98604   3.183  24.264   2.598  0.0208 -0.1820 -0.0083
55552W        W98605  34.604   3.535  27.980  0.3150 -0.0813  0.3684
55553W        W98606  33.664   7.547   2.940 -0.1898  0.0689 -0.2260
55554W        W98607  30.386  28.724   7.458  0.2313  0.3347  0.0702
55555W        W98608  31.104  25.459   5.753  0.0188  0.0389  0.1431
55556W        W98609  32.924  23.706  25.621 -0.0510 -0.0522  0.2576
55557W        W98610  24.222  13.219   9.184  0.1787 -0.2386 -0.2987
55558W        W98611   2.652  27.917   8.941  0.1652 -0.0570 -0.4369
55559W        W98612  22.543  20.883  27.743 -0.0122  0.0776 -0.0573
55560W        W98613  30.107  16.021   7.131 -0.0252 -0.2399 -0.3676
55561W        W98614  16.674  28.335   9.535  0.0797  0.0596  0.0020
55562W        W98615  33.755  15.083   6.275 -0.0134  0.1630 -0.0256
55563W        W98616  31.122  22.231  22.850 -0.0145  0.0626 -0.0039
55564W        W98617  34.152  22.982  22.943 -0.0024  0.3109 -0.4542
55565W        W98618  29.582  20.457   1.584  0.0571  0.0442  0.0806
55566W        W98619  21.336  29.742  26.783 -0.1633 -0.1371  0.0666
55567W        W98620  32.099   5.159   5.382 -0.2250  0.0476  0.1640
55568W        W98621  29.411  25.291   0.441  0.4470 -0.1135 -0.0236
55569W        W98622  33.890  28.267   6.420 -0.0366 -0.1582 -0.0283
55570W        W98623   2.423   5.509   8.586 -0.1321  0.3391 -0.0208
55571W        W98624  30.237   5.041  25.862  0.2572  0.0483  0.0732
55572W        W98625  12.827  14.038   5.840 -0.0743 -0.1813  0.0079
55573W        W98626  34.656  18.671  20.330  0.1382 -0.0967 -0.1713
55574W        W98627   7.695   9.167   3.832 -0.0056 -0.4189  0.2371
55575W        W98628  23.885   5.198   8.988  0.1771 -0.2344 -0.1280
55576W        W98629   2.556  25.230   0.130  0.0604 -0.0642  0.0789
55577W        W98630   1.029  18.452   6.046 -0.0683  0.2114  0.0115
55578W        W98631  34.257  15.809   1.049  0.0358  0.0004 -0.3060
55579W        W98632   4.771   7.162   5.466  0.1035  0.1224  0.1078
55580W        W98633  21.037  28.072  23.166 -0.1288  0.1187  0.2285
55581W        W98634   5.374  32.657  26.897 -0.1365 -0.1306 -0.0926
55582W        W98635   4.842  15.860   6.594  0.0466  0.3368 -0.3092
55583W        W98636  25.347  11.615  10.030  0.1352  0.1727 -0.1485
55584W        W98637   6.106  25.437   3.789  0.0506 -0.0479 -0.1076
55585W        W98638   3.903  33.222   1.775 -0.0506 -0.3680 -0.0197
55586W        W98639   4.571   5.814  10.242 -0.3410 -0.1970  0.1117
55587W        W98640  31.699   3.301   7.161 -0.0738  0.2287  0.0229
55588W        W98641  27.110   6.483  10.428 -0.0362 -0.2848  0.1322
55589W        W98642  26.061   8.345  28.729  0.0739  0.0501  0.4660
55590W        W98643  17.040  21.282  28.999  0.3744  0.1027 -0.0012
55591W        W98644  25.756   7.044   8.451  0.0469  0.2056 -0.1971
55592W        W98645  30.506  19.117   3.274  0.1684 -0.3191 -0.1087
55593W        W98646   1.282  17.174  22.552 -0.0617  0.2538  0.0640
55594W        W98647  11.634  27.785  19.724  0.1536  0.0018  0.0406
55595W        W98648  22.544  32.294  16.816 -0.2834 -0.0730 -0.0020
55596W        W98649  33.938   3.548   5.360 -0.3691  0.0025  0.0853
55597W        W98650  13.888  29.260   4.488 -0.4393 -0.1283  0.0977
55598W        W98651  23.552  34.071  10.081 -0.2034 -0.1779  0.3025
55599W        W98652  12.224   0.783   3.173 -0.1566 -0.1610 -0.0613
55600W        W98653   9.049  34.161   0.720  0.2127  0.0387 -0.0151
55601W        W98654   5.887  10.719   2.844 -0.1032  0.2171  0.0057
55602W        W98655  15.973  28.188   3.085 -0.0493 -0.1095 -0.1279
55603W        W98656  25.995   7.085   1.929 -0.1929  0.0405 -0.2662
55604W        W98657  34.299  16.029   7.720  0.2626 -0.1506 -0.3072
55605W        W98658  11.397  20.600   0.186  0.0657  0.0118  0.0964
55606W        W98659   3.561  16.102  28.748  0.1579 -0.1509  0.0731
55607W        W98660  13.930   9.284  11.523  0.2424  0.0896  0.2672
55608W        W98661   2.821  19.556   6.176 -0.1111  0.2420  0.0214
55609W        W98662   4.077  29.265   8.724 -0.0530 -0.1202  0.2237
55610W        W98663   4.609  18.736   4.561 -0.0189 -0.0364 -0.0583
55611W        W98664  30.000  24.480   3.133  0.0563 -0.0208  0.0400
55612W        W98665  14.911   1.349   4.763  0.1827 -0.0599 -0.1772
55613W        W98666  19.857  24.811   7.511  0.2155  0.2763 -0.1261
55614W        W98667  29.536  19.527   0.340  0.2213  0.1428 -0.2782
55615W        W98668  22.372  24.865   6.399  0.1367  0.0287 -0.2187
55616W        W98669  16.330   4.289  23.675  0.1052  0.0997  0.1692
55617W        W98670  31.286  21.567  22.976 -0.1496 -0.0161  0.3805
55618W        W98671  15.948   4.580  26.863  0.0248 -0.0464  0.4227
55619W        W98672  26.362  17.236   7.097  0.0773 -0.0934 -0.0501
55620W        W98673  25.549   2.866   9.535 -0.0730 -0.2807 -0.2309
55621W        W98674   5.612  31.011  25.804  0.0443 -0.0762 -0.0305
55622W        W98675  30.475   2.405  26.110 -0.0777  0.1539  0.0615
55623W        W98676   3.480   8.279   2.068 -0.4970  0.2176 -0.1263
55624W        W98677  10.683  24.669  17.913 -0.1616  0.0452  0.2391
55625W        W98678  26.096  24.572   7.703 -0.0602 -0.1965 -0.0415
55626W        W98679  25.160  26.834  27.179 -0.0087  0.2757 -0.0166
55627W        W98680  33.716   4.905  21.028 -0.0884 -0.2939 -0.0574
55628W        W98681  25.913   5.115  28.011 -0.1534  0.1108  0.1774
55629W        W98682  23.952  29.128  23.123 -0.4160 -0.1847 -0.0060
55630W        W98683  29.539  23.705   2.883 -0.1558  0.1515  0.0464
55631W        W98684   4.857  24.749   7.500 -0.0917 -0.3589 -0.1088
55632W        W98685   1.126  12.932   2.542  0.2422 -0.0226 -0.1045
55633W        W98686   0.989  26.745  28.834  0.0169 -0.2773 -0.0962
55634W        W98687   3.155  21.931   2.888  0.1386  0.3039 -0.1208
55635W        W98688   1.177  23.988   5.172 -0.0350 -0.0489 -0.0986
55636W        W98689  33.439  20.389   6.550  0.3795 -0.1450  0.0759
55637W        W98690   2.991  22.992  26.904  0.1234  0.0744  0.0128
55638W        W98691   4.950   1.290   7.495  0.0352 -0.7290 -0.0119
55639W        W98692  23.698   2.484   4.430 -0.1534  0.2105  0.1469
55640W        W98693  25.566  31.112   4.753 -0.2410  0.1113  0.2506
55641W        W98694   9.258   5.743  21.974  0.0015 -0.3951 -0.2176
55642W        W98695  24.485  22.698  10.184  0.2164 -0.0829 -0.0504
55643W        W98696  24.182  28.311  10.244  0.0671 -0.2158  0.4091
55644W        W98697   0.371  26.358  24.822 -0.0789 -0.2891  0.0250
55645W        W98698   6.627  23.972   0.554  0.1091 -0.1700 -0.0892
55646W        W98699  15.246  12.107   0.508 -0.2420  0.0522  0.1488
55647W        W98700   8.261  30.480  22.357  0.1412 -0.3489 -0.0588
55648W        W98701   1.138  26.292  28.589 -0.2252  0.1554 -0.1242
55649W        W98702  29.286  27.688   4.613 -0.0626 -0.2857  0.2549
55650W        W98703  18.583  28.390   8.271  0.1346 -0.0671  0.0120
55651W        W98704  29.110  24.323   8.250  0.0298 -0.2931 -0.2537
55652W        W98705  28.828  22.160   9.226 -0.0310  0.0325 -0.2864
55653W        W98706   7.169  24.151   1.803  0.3289  0.1134  0.1736
55654W        W98707   1.418  23.785   4.127  0.0375 -0.0019 -0.2417
55655W        W98708  34.478  20.511   2.037  0.3301 -0.0116 -0.1123
55656W        W98709   4.631  30.031   7.935  0.1313 -0.3684  0.5106
55657W        W98710   1.676  20.012   3.950 -0.1772  0.0167  0.1212
55658W        W98711   6.774  29.632  28.559 -0.0191 -0.1826 -0.0040
55659W        W98712  15.163  28.474  24.953  0.3555  0.0652  0.1800
55660W        W98713  28.608  26.599   5.308  0.2035 -0.1128  0.1914
55661W        W98714   4.890   0.605   1.612  0.1961  0.1248 -0.0417
55662W        W98715   2.740  29.511   4.097 -0.0887  0.7304  0.1975
55663W        W98716   3.382  16.715   2.665 -0.0752  0.1173 -0.2998
55664W        W98717  33.338  33.447   3.860 -0.0897  0.0376  0.4872
55665W        W98718  21.256   0.794   5.657  0.1025  0.0032  0.2991
55666W        W98719  24.359  16.856   5.921 -0.0803  0.0897  0.0836
55667W        W98720  23.529   0.678   4.221  0.1890 -0.1361  0.1190
55668W        W98721   8.038  24.732   0.108 -0.0317  0.4331 -0.1207
55669W        W98722   8.620   2.200   0.989 -0.1056  0.0516  0.0208
55670W        W98723  21.892  34.519   3.626  0.2329  0.1040 -0.1790
55671W        W98724  14.069  21.646   9.654  0.0212  0.3436 -0.0143
55672W        W98725  16.592  29.753  10.263  0.0034 -0.0277  0.0283
55673W        W98726  24.616  32.330  28.106  0.0467 -0.0521 -0.0014
55674W        W98727  33.753  15.754  29.017 -0.1639  0.0860  0.2377
55675W        W98728  31.994  23.413   6.500 -0.1104 -0.0629  0.3235
55676W        W98729  24.724  27.252  27.728  0.1056 -0.3414  0.0317
55677W        W98730  13.021  15.883   6.459  0.4460 -0.1026  0.1778
55678W        W98731  22.571  32.809   1.283  0.2273 -0.1431 -0.3321
55679W        W98732  29.396   0.964   0.712  0.2932 -0.1083  0.2927
55680W        W98733  31.325  28.425   4.222  0.0823 -0.1218  0.2784
55681W        W98734  31.009  13.591   1.996  0.3519  0.0740  0.0381
55682W        W98735  30.564  30.237   1.798  0.3748  0.0704  0.0094
55683W        W98736  12.470  22.926   5.210 -0.0723  0.0861  0.1925
55684W        W98737   5.599  30.070   9.274  0.2015  0.0868  0.3179
55685W        W98738  21.894  27.873   1.430  0.3273  0.0013  0.1432
55686W        W98739   1.623  19.895  18.819  0.3131  0.0887 -0.3845
55687W        W98740   0.695  29.456  27.588 -0.4125  0.1115 -0.2228
55688W        W98741  32.271  24.717   6.471  0.1612 -0.1874 -0.0513
55689W        W98742   7.896   2.843  23.061  0.0096  0.2954  0.2408
55690W        W98743   1.400  30.416   4.550 -0.3656  0.1430  0.2007
55691W        W98744   9.828   1.842  10.104 -0.2219  0.0850  0.3718
55692W        W98745   5.046  20.316   4.465  0.3917  0.0167 -0.1417
55693W        W98746   6.909  21.790  28.523  0.2587  0.1208  0.1009
55694W        W98747  28.249  21.191  26.503 -0.1482  0.1844  0.0821
55695W        W98748  28.989   0.576   6.359  0.0777  0.0290 -0.2354
55696W        W98749  32.950  32.847   8.040 -0.0951 -0.1850  0.3290
55697W        W98750  33.584  27.750  17.905 -0.1229 -0.1235 -0.0382
55698W        W98751  14.577  24.544   9.664  0.0935 -0.1636 -0.0684
55699W        W98752   3.706  21.946   9.143 -0.0043  0.0451  0.1996
55700W        W98753  29.796  27.684   4.277  0.1367 -0.1325  0.2600
55701W        W98754   2.433  23.965  26.056  0.1199  0.0108 -0.1155
55702W        W98755  16.982   3.943   9.141 -0.2442 -0.0073 -0.2980
55703W        W98756   3.020  26.655   6.877 -0.2954 -0.0773 -0.1966
55704W        W98757   4.831  16.495   6.401 -0.1115 -0.1812  0.1956
55705W        W98758   0.570  20.238   6.181 -0.0545 -0.0547 -0.0531
55706W        W98759  28.576   5.067  23.470 -0.1890  0.0194  0.0568
55707W        W98760   1.307  16.506   6.377 -0.0661  0.0358  0.2085
55708W        W98761  21.738  15.639  18.156  0.0418 -0.0228 -0.0077
55709W        W98762   3.335  34.028  26.174 -0.0609  0.1217  0.0330
55710W        W98763  26.449  30.866   5.866 -0.0225 -0.0306  0.1992
55711W        W98764  23.850   4.601  10.553 -0.0905 -0.0747 -0.2052
55712W        W98765   1.295  29.295   4.124  0.1391  0.1988  0.1238
55713W        W98766   0.325   3.834  10.386  0.0545 -0.0471  0.0106
55714W        W98767  32.066   3.877   4.030 -0.1766 -0.0599  0.0706
55715W        W98768  33.583   3.854   5.022  0.0234 -0.0427  0.1042
55716W        W98769   7.771  26.954   7.469 -0.0188  0.0562 -0.0639
55717W        W98770  12.523  18.875   2.502 -0.0434 -0.1859 -0.0389
55718W        W98771  20.996   5.407  23.494 -0.0996 -0.0207 -0.1547
55719W        W98772  31.113  25.393   0.184 -0.2098  0.1706 -0.0160
55720W        W98773  11.684  23.406   5.163 -0.2576 -0.1645 -0.1272
55721W        W98774  34.593  16.744  28.389 -0.1055 -0.1448  0.0381
55722W        W98775  15.927  24.353   0.066 -0.0557 -0.0905  0.0125
55723W        W98776  21.593   1.679  22.871  0.1270 -0.4249  0.1656
55724W        W98777   6.975  31.839   2.042  0.1217  0.3811  0.1952
55725W        W98778  23.656  27.486   8.987 -0.3705  0.1051  0.1688
55726W        W98779   1.778  28.757   7.304 -0.3018  0.0364  0.1191
55727W        W98780  17.310   8.267   3.990 -0.2475  0.0258  0.1204
55728W        W98781  26.380  23.406   4.813 -0.1570  0.0249 -0.1463
55729W        W98782  29.284  19.809   4.243  0.0729  0.0128  0.1241
55730W        W98783  23.622  28.076   7.439  0.1239 -0.2703  0.1784
55731W        W98784  31.942   4.844   0.061  0.0295  0.1593  0.0450
55732W        W98785   0.511  11.927   8.075  0.0890 -0.0171 -0.2897
55733W        W98786  25.746  27.303   9.950 -0.0807 -0.1630  0.3485
55734W        W98787   5.515   2.272  19.620  0.1290  0.0050  0.1137
55735W        W98788  31.236  32.637  27.936 -0.0048 -0.0792  0.0327
55736W        W98789  10.373  34.325  27.769  0.4068  0.2037 -0.1083
55737W        W98790  13.934  31.791   5.188 -0.4430  0.1234  0.0689
55738W        W98791  27.379  34.049   5.491  0.1400 -0.2321 -0.3741
55739W        W98792  15.676  20.498   7.155  0.0188 -0.0576 -0.1499
55740W        W98793  25.745  15.139   7.276 -0.2453 -0.1720  0.0542
55741W        W98794  33.883   8.003   0.193  0.1767 -0.1705  0.1458
55742W        W98795  22.027  29.471  20.492  0.0169 -0.0884 -0.4120
55743W        W98796  22.910  16.290  20.747  0.0902 -0.0406 -0.0517
55744W        W98797  32.763   1.676   7.813 -0.0288 -0.0680 -0.0042
55745W        W98798   2.791  21.700   8.800  0.3074 -0.2962  0.0850
55746W        W98799  24.536  27.947   5.899 -0.1675  0.0734 -0.2658
55747W        W98800  10.602  23.827   4.473 -0.1158  0.2421  0.0960
55748W        W98801   1.460  32.363  28.899  0.0515  0.3331 -0.0605
55749W        W98802  23.306  31.228   7.808  0.2167 -0.1389 -0.1741
55750W        W98803  16.408  13.986  23.808 -0.1121  0.2590 -0.2404
55751W        W98804  28.993  29.396   0.128  0.2177 -0.0477  0.0950
55752W        W98805  11.257   2.718   2.249  0.0288 -0.2760  0.0963
55753W        W98806  28.529  18.423   5.174 -0.0713  0.3040  0.2902
55754W        W98807  30.471   2.465   9.582  0.1390  0.0006  0.2649
55755W        W98808  29.582   1.862   0.155  0.2232 -0.0402  0.1871
55756W        W98809  22.890  23.983   1.198  0.5012  0.0053  0.3535
55757W        W98810  29.631  16.823   8.768  0.1827  0.0954 -0.2639
55758W        W98811  19.741  30.433   9.786 -0.0057 -0.2186 -0.1180
55759W        W98812   6.263  27.973   2.911  0.1779 -0.0229  0.1633
55760W        W98813  14.614   1.535  23.555  0.0960  0.2458 -0.0318
55761W        W98814   2.268  30.425   7.259 -0.0293  0.2145 -0.0942
55762W        W98815  25.040  18.965  22.468 -0.0664 -0.0759  0.2449
55763W        W98816  26.113  26.905  10.196  0.1260 -0.1334 -0.0628
55764W        W98817  14.425   1.454   5.777 -0.1633 -0.1502  0.0962
55765W        W98818  19.638   3.793   8.631  0.0774 -0.1771 -0.0540
55766W        W98819  18.983  23.331  10.336  0.1638  0.1032  0.1607
55767W        W98820  27.339  18.049   1.149 -0.0950 -0.0262 -0.0071
55768W        W98821  31.074  29.763   7.885  0.3118  0.2905 -0.1024
55769W        W98822  22.796   0.868  26.928  0.2755  0.3919 -0.1490
55770W        W98823   2.429  24.512   2.811  0.2222 -0.0781 -0.1067
55771W        W98824  14.803  32.438  21.910  0.1599  0.3063 -0.1416
55772W        W98825  27.700   6.343   2.357 -0.0289 -0.1843  0.1995
55773W        W98826  16.289  14.345   6.834 -0.0825 -0.0821  0.0059
55774W        W98827   2.606   1.544  27.063  0.3297 -0.0521 -0.0907
55775W        W98828   3.803  26.206   3.270 -0.0052  0.4613  0.1613
55776W        W98829  21.130   2.887   9.160  0.2194  0.0975  0.3199
55777W        W98830  29.411   0.933   8.487 -0.0838  0.2525  0.0093
55778W        W98831   6.729   0.175  26.023  0.0988 -0.1723  0.0520
55779W        W98832   1.174   4.815   4.219 -0.0266 -0.0368  0.1454
55780W        W98833   4.087   2.757  14.136  0.3708  0.1265 -0.0066
55781W        W98834  19.419  26.519   0.911  0.3141 -0.0069 -0.1544
55782W        W98835  10.951  28.448   4.301  0.0508 -0.0780 -0.0504
55783W        W98836  33.505  26.609   0.206  0.0889 -0.0737 -0.0854
55784W        W98837   8.545  28.961   5.175  0.0910  0.0335  0.0136
55785W        W98838   8.375  15.665  14.514  0.4576  0.0304  0.2803
55786W        W98839  27.737   4.067   4.593  0.0796 -0.0102  0.0264
55787W        W98840  28.416  29.143  22.278  0.3190  0.1633  0.0797
55788W        W98841  23.804  32.342   5.685 -0.0261 -0.2244 -0.1359
55789W        W98842  21.222  34.428   4.931  0.0202 -0.1006 -0.0766
55790W        W98843  11.860   9.958  20.412 -0.0457  0.0535  0.0677
55791W        W98844   4.382   1.101  20.336  0.0236  0.0609 -0.3417
55792W        W98845  27.302   9.268  27.947  0.0687  0.3798 -0.1638
55793W        W98846  25.759   3.975  17.451 -0.2106 -0.1466  0.0583
55794W        W98847   2.883  34.197   1.486  0.0138  0.2019  0.0959
55795W        W98848   6.077  15.302  17.427 -0.0167  0.3967  0.1673
55796W        W98849  28.778   6.080  23.452  0.0446 -0.1159  0.0733
55797W        W98850   7.849  33.509   1.071  0.1271 -0.1188  0.1383
55798W        W98851   4.362  16.171  18.231  0.1416 -0.2764  0.3667
55799W        W98852  31.299   0.343   2.741  0.0815  0.1560 -0.1083
55800W        W98853  27.664  23.857   5.963 -0.1119 -0.0754  0.0474
55801W        W98854  31.917  28.053  18.518  0.0323  0.1824  0.0580
55802W        W98855   3.550  28.082  20.677 -0.0721 -0.0520  0.0739
55803W        W98856   8.220   0.258   8.944  0.1816 -0.0942 -0.0252
55804W        W98857   2.711  10.139  21.424  0.1295  0.1264 -0.2515
55805W        W98858  19.374  34.116   3.112  0.1272 -0.0091  0.0021
55806W        W98859  31.104   9.609  10.595 -0.1482 -0.0127 -0.1483
55807W        W98860  29.448   7.689  14.733  0.1410 -0.1980 -0.0296
55808W        W98861   4.923  11.212  22.187 -0.2435  0.2128  0.0221
55809W        W98862  32.369  20.136  28.464  0.0883  0.0377  0.0468
55810W        W98863  29.044  27.579   7.480 -0.2070  0.0089 -0.1499
55811W        W98864  31.183   9.689  27.556  0.1675  0.1662 -0.0151
55812W        W98865   5.816  24.350  27.637 -0.2440  0.1530  0.1813
55813W        W98866  21.520   8.173  22.876  0.0947  0.1610  0.0368
55814W        W98867   3.856   7.422  21.303  0.0720 -0.1148  0.0349
55815W        W98868  28.051  33.314  26.357 -0.1141  0.0601 -0.2435
55816W        W98869  11.404  32.802   1.046  0.0001 -0.0728  0.2057
55817W        W98870  33.588  15.201  26.817 -0.2536 -0.1064 -0.0882
55818W        W98871   3.229   7.526   3.184  0.2438 -0.1313  0.0379
55819W        W98872   4.717  24.863   6.159  0.2437 -0.0590 -0.1316
55820W        W98873  10.147  33.059  25.463 -0.2859 -0.0008  0.1300
55821W        W98874  12.318   3.842  14.673 -0.3742 -0.0624 -0.2252
55822W        W98875  30.789  10.680  24.954  0.0064 -0.2096  0.0347
55823W        W98876   2.707  33.451   7.773  0.2359 -0.1063  0.0378
55824W        W98877  15.828  21.563   1.869  0.2727 -0.0171 -0.0466
55825W        W98878  31.581   5.956  15.292 -0.3469  0.1453 -0.1729
55826W        W98879   5.317   0.886   8.572  0.2050  0.0616 -0.4037
55827W        W98880  21.836   0.498  26.109 -0.2494  0.1552  0.1151
55828W        W98881  31.235  34.671   4.914  0.0122 -0.3902  0.2548
55829W        W98882  20.619  31.721  22.062  0.1304 -0.0994 -0.2217
55830W        W98883  32.779  25.610   3.857 -0.1955  0.2861  0.1640
55831W        W98884  26.974  34.004   7.341 -0.1805 -0.4068 -0.1984
55832W        W98885   9.881  10.395   4.507 -0.5570  0.1332 -0.2341
55833W        W98886  31.191   6.168  26.235 -0.0542  0.1850  0.2561
55834W        W98887   3.616  18.016  24.513 -0.1928  0.0451  0.1822
55835W        W98888  32.659  21.536  20.464  0.1565 -0.0192  0.1798
55836W        W98889   6.040  31.630   0.369  0.0034 -0.0609  0.1675
55837W        W98890  13.944  30.224   8.250 -0.0253  0.1188 -0.1902
55838W        W98891  18.214  26.500   1.758  0.0130 -0.2188 -0.2359
55839W        W98892   6.587  12.965  23.567 -0.0919 -0.0545 -0.0215
55840W        W98893  14.495  26.202   9.619 -0.0273  0.2351  0.0593
55841W        W98894  32.895  17.087   6.422 -0.0871 -0.0364 -0.0691
55842W        W98895   1.290  31.388  27.031 -0.0011  0.0540  0.1040
55843W        W98896  23.562  25.593  10.885 -0.2404  0.0608  0.2221
55844W        W98897  11.957  31.857  15.521 -0.4267  0.0939  0.0774
55845W        W98898  28.334  20.796   6.306 -0.0915  0.1719  0.2347
55846W        W98899   1.271  25.617   6.251  0.1866  0.2918 -0.0384
55847W        W98900  16.703  32.893   0.391  0.0616  0.1748 -0.2836
55848W        W98901  18.890  17.727  26.954  0.1383 -0.3799  0.1935
55849W        W98902  32.383  31.875  21.659 -0.0257  0.0962 -0.1763
55850W        W98903   1.149  29.930  13.892 -0.1150 -0.3432 -0.1245
55851W        W98904  21.384  12.578   4.906  0.5004  0.2164 -0.0279
55852W        W98905   2.267  31.952  14.487  0.2175 -0.0648  0.1603
55853W        W98906  12.367   1.749   4.438 -0.2784 -0.0936 -0.0043
55854W        W98907  30.993  32.121  23.106  0.0705 -0.2166 -0.0974
55855W        W98908  28.594   5.891  26.348  0.1464 -0.1676  0.2485
55856W        W98909  34.311  28.673  24.519 -0.2647 -0.3113 -0.0920
55857W        W98910  10.350  31.186  18.419  0.0490 -0.0930  0.1658
55858W        W98911  16.255  22.324  19.828  0.1065 -0.0883 -0.2581
55859W        W98912  33.203   8.914   1.639  0.0837 -0.1389  0.0245
55860W        W98913   6.050   1.040   1.916  0.0921 -0.2405 -0.0644
55861W        W98914   4.521  15.768   1.837  0.2825 -0.2482 -0.0221
55862W        W98915   0.963  34.585  27.726  0.2412  0.0339 -0.1091
55863W        W98916  21.509  31.037  21.293 -0.1888 -0.2831  0.0094
55864W        W98917  26.987   1.431  27.952 -0.0288 -0.0662  0.3171
55865W        W98918  27.084  33.618  17.349 -0.0126 -0.0727  0.0551
55866W        W98919  34.583  28.832  16.785 -0.0065  0.2221  0.1356
55867W        W98920  23.203  12.875  22.331 -0.1796 -0.1317 -0.2319
55868W        W98921  28.327   4.451  29.006 -0.1500 -0.2618  0.2538
55869W        W98922  16.142  20.151   2.084 -0.0779 -0.0085 -0.3100
55870W        W98923  28.386  22.476   1.908 -0.1702 -0.2002  0.0921
55871W        W98924  14.734  29.251   4.681 -0.1070  0.0134 -0.0868
55872W        W98925   1.392  32.865   6.538  0.1432  0.2911 -0.0171
55873W        W98926  28.212  23.647   7.038 -0.1893 -0.0704  0.0546
55874W        W98927   7.438  25.368  21.169  0.0459 -0.1086 -0.2236
55875W        W98928  30.519  30.977  18.144 -0.0080  0.0159 -0.1296
55876W        W98929  16.406  21.754   3.282  0.0722 -0.1678  0.1569
55877W        W98930  24.920  33.412   8.476 -0.2036  0.1780  0.0171
55878W        W98931  15.030  25.800  22.274 -0.0851  0.1695 -0.2390
55879W        W98932  31.780  31.502  21.127 -0.0376 -0.0920  0.1724
55880W        W98933   2.353  18.189  26.645 -0.2357  0.0439  0.2617
55881W        W98934   5.956  28.242   3.809 -0.2100  0.0021 -0.2752
55882W        W98935   3.465  28.659  19.453  0.0469  0.2194 -0.0707
55883W        W98936  30.113   2.806   5.302 -0.2331  0.0307 -0.1752
55884W        W98937  24.768   6.209  28.488  0.0387 -0.1810 -0.7137
55885W        W98938  22.464  32.143   9.222  0.3996  0.0240  0.3776
55886W        W98939  13.518  22.422   0.580  0.3438  0.1862  0.0140
55887W        W98940   3.939   0.067  24.742  0.0240  0.3216  0.1056
55888W        W98941   3.657   5.120   9.110  0.0605 -0.1185 -0.0579
55889W        W98942   3.197   0.303  23.443  0.1629 -0.1448  0.0443
55890W        W98943  31.192  24.855  26.435 -0.0956  0.1661 -0.0027
55891W        W98944  31.777  22.485   5.575  0.1723 -0.1074  0.1291
55892W        W98945   3.663  10.159   1.442 -0.0456  0.3511  0.1588
55893W        W98946  24.652  11.080  25.377 -0.2386 -0.2360  0.1490
55894W        W98947  30.359  34.223  27.377  0.1580  0.0457  0.0180
55895W        W98948   2.920   2.953  20.341  0.1208  0.2999 -0.1217
55896W        W98949  20.329  25.679   3.135  0.1853 -0.0228  0.4209
55897W        W98950  14.797  33.769  23.360  0.0595 -0.2246  0.0545
55898W        W98951   9.946   4.304  21.313  0.0621  0.3054 -0.1245
55899W        W98952   7.777  31.892   7.686  0.0844 -0.0415 -0.1848
55900W        W98953   3.600   1.346  26.663  0.0811  0.3012 -0.1434
55901W        W98954   1.301  32.313   8.278  0.1006  0.1625 -0.2719
55902W        W98955  29.338  32.608   9.489 -0.1826 -0.0406  0.0319
55903W        W98956  18.984  34.563  24.666  0.1783  0.0359  0.3618
55904W        W98957  18.104  25.341  10.880  0.0057 -0.1006  0.0585
55905W        W98958  22.223   0.734   6.172  0.0570  0.0371 -0.2791
55906W        W98959  29.332  21.340   4.069 -0.1801  0.0436 -0.1833
55907W        W98960   4.495  20.580   9.047  0.6288  0.0719 -0.1149
55908W        W98961  25.361   6.544   2.128 -0.1377 -0.4956 -0.1874
55909W        W98962  34.107  30.551  27.788  0.0132 -0.1192 -0.1170
55910W        W98963  22.365   4.546   0.793 -0.0768 -0.1292  0.2082
55911W        W98964  23.247  30.657   4.524 -0.0033  0.0162 -0.0496
55912W        W98965  26.799  30.862   4.774  0.0234  0.0529  0.1770
55913W        W98966   0.138   3.731  15.550 -0.0764 -0.0228  0.0470
55914W        W98967   9.152  13.529  23.387  0.1006  0.0127 -0.2232
55915W        W98968   0.374   0.412   2.247 -0.1256 -0.2712  0.2790
55916W        W98969  22.330  17.441  27.515  0.2020  0.2651 -0.0577
55917W        W98970   5.975  31.374  25.727 -0.1830  0.1477 -0.0986
55918W        W98971  12.080   1.083  15.021 -0.2192 -0.0365 -0.3657
55919W        W98972  26.217  23.181  25.428  0.1042  0.1590 -0.1192
55920W        W98973  25.632  31.401  28.187  0.1098 -0.0952 -0.5191
55921W        W98974   3.777  24.623  15.872  0.0225  0.0139 -0.2176
55922W        W98975   5.395  26.704  15.214 -0.1331 -0.2669 -0.0105
55923W        W98976  28.688  25.008  26.364 -0.2455  0.2257 -0.0480
55924W        W98977  33.186   8.236  28.697 -0.3869  0.1690  0.0464
55925W        W98978  13.762  16.875   2.228  0.2217 -0.3114 -0.1093
55926W        W98979  10.596  21.093  16.420  0.4486  0.1934  0.0367
55927W        W98980  14.441  24.648   8.752  0.1609 -0.0289  0.3521
55928W        W98981  24.677  32.607  21.646  0.0161  0.1900 -0.1826
55929W        W98982   8.027  30.188  25.998 -0.4660 -0.2520  0.1723
55930W        W98983   3.958   5.055  25.988  0.2202  0.3641  0.0512
55931W        W98984   5.264  31.685   0.305 -0.0601  0.1320  0.1041
55932W        W98985  12.196   8.767  26.962 -0.2591 -0.3016  0.0600
55933W        W98986  25.106  10.783  28.760 -0.0332 -0.1462  0.0095
55934W        W98987  10.349  20.694   5.323 -0.3822 -0.0149  0.0118
55935W        W98988  27.032  24.783   9.745  0.2280 -0.1040  0.0547
55936W        W98989  17.392  29.627  21.074 -0.0967 -0.1898  0.0440
55937W        W98990  14.631   5.319   9.199  0.2356  0.0799  0.1488
55938W        W98991   6.475   0.483   2.219  0.2621 -0.4094  0.5351
55939W        W98992  30.527  22.832   6.685  0.2562  0.1897  0.2558
55940W        W98993  31.800  29.259   6.181 -0.1021  0.3645  0.0664
55941W        W98994  30.397   1.967   4.987 -0.2194  0.2481  0.0014
55942W        W98995   0.574  24.082   9.992 -0.0526 -0.0543  0.0573
55943W        W98996   5.238  31.297   8.021 -0.0936 -0.1059  0.0406
55944W        W98997   2.641  21.560   1.110  0.0391  0.4490  0.0684
55945W        W98998  21.256  20.020  23.484  0.3706  0.0114  0.3281
55946W        W98999   7.824  32.379   7.927 -0.0680  0.1062  0.0875
55947W        W99000  25.828   3.841  21.387  0.0335  0.0254 -0.2137
55948W        W99001   5.818  27.293   5.348  0.1537 -0.0126  0.6258
55949W        W99002   0.656  24.708   3.758  0.0292 -0.1466  0.2469
55950W        W99003  12.931   2.609   5.440  0.1453 -0.0456  0.0826
55951W        W99004  34.663  21.565  27.662 -0.0536 -0.1297  0.0041
55952W        W99005  32.790   0.471  29.052  0.2884  0.0542  0.2826
55953W        W99006   7.378  28.033   8.401 -0.1019 -0.0498 -0.2401
55954W        W99007   0.012   4.611  18.348 -0.1875  0.0414  0.0804
55955W        W99008  32.351  24.513  21.047  0.0969 -0.0083 -0.1927
55956W        W99009  21.422  14.656  24.027  0.0639 -0.0883 -0.1850
55957W        W99010  28.133  25.950  27.493  0.1187 -0.1604 -0.4703
55958W        W99011  29.711  34.373  24.388  0.1803 -0.3597  0.1776
55959W        W99012   4.032  20.908  27.144 -0.1092 -0.3203 -0.0872
55960W        W99013  27.906  15.987   7.080 -0.1287  0.1737  0.1241
55961W        W99014   3.743  21.285   3.194 -0.0500 -0.0327 -0.0260
55962W        W99015   5.102   8.724   4.903 -0.3135  0.0985  0.1701
55963W        W99016  28.132   2.498   6.475 -0.1696  0.0491  0.3813
55964W        W99017   2.594  19.543   4.206 -0.3348 -0.4096 -0.2910
55965W        W99018   2.455  30.885   4.014  0.1359  0.3266  0.0732
55966W        W99019  22.702  19.485   0.744  0.2104 -0.2273  0.1998
55967W        W99020  29.795  30.875   8.073  0.0225  0.3869 -0.1505
55968W        W99021  12.880   3.294  25.659  0.0638  0.0332 -0.1497
55969W        W99022   6.304  19.169   5.956 -0.0128 -0.2920 -0.0949
55970W        W99023  34.121  20.801  16.139 -0.4365 -0.1864 -0.1855
55971W        W99024  11.820  21.029   9.981 -0.0761 -0.1847 -0.1064
55972W        W99025  19.123  20.710  24.578  0.3758 -0.1381  0.1994
55973W        W99026  15.606  27.292  16.717 -0.3864  0.1920  0.3150
55974W        W99027  29.182   0.317  14.647  0.1782 -0.3469 -0.0235
55975W        W99028  24.108  23.297  21.623 -0.3519  0.1417  0.1088
55976W        W99029   4.325  25.140   6.118 -0.0432 -0.0076  0.0852
55977W        W99030  33.601  11.673   7.066  0.0868 -0.1277 -0.1707
55978W        W99031  27.374  20.106   2.784  0.1903  0.0083  0.1873
55979W        W99032  18.183  25.049  28.621  0.1468  0.2239 -0.1703
55980W        W99033  33.990   4.192  28.888  0.4912  0.0515  0.1661
55981W        W99034  26.586   2.980   0.725 -0.0514 -0.0281  0.0634
55982W        W99035  24.981  33.051   9.702 -0.0194 -0.0911 -0.1506
55983W        W99036  32.333   1.697   6.787 -0.3754  0.0222  0.2658
55984W        W99037   2.032  27.471  28.429  0.2799 -0.1102  0.2004
55985W        W99038   0.172   5.429   4.324  0.1130  0.3518  0.3612
55986W        W99039   0.272   8.019   4.646 -0.1391 -0.0900 -0.1916
55987W        W99040  33.259  20.984   4.121 -0.1846  0.1382  0.0703
55988W        W99041  30.419   3.961   3.146  0.1156  0.0088  0.2800
55989W        W99042   7.111  18.750   2.981  0.2553  0.4288 -0.0409
55990W        W99043   6.945   1.552   2.821  0.0748  0.2466  0.0667
55991W        W99044  25.775   8.043  14.475 -0.2851  0.1110  0.2296
55992W        W99045  24.729  24.738  27.320  0.2879 -0.2064 -0.2269
55993W        W99046  12.574   8.618   2.830 -0.1313 -0.2021  0.3901
55994W        W99047  31.674  31.076   0.547  0.0268 -0.1695  0.1090
55995W        W99048  22.720  23.550  28.616 -0.0510 -0.1144  0.0675
55996W        W99049  34.205   2.892  29.139  0.2486 -0.2314  0.1071
55997W        W99050  10.002  13.850   8.444 -0.0296  0.0603 -0.0472
55998W        W99051   5.729  11.294   1.570  0.0269 -0.3059  0.1589
55999W        W99052  25.146  31.010  20.337 -0.2149  0.2788  0.0174
56000W        W99053  18.180  31.065  10.213  0.2647  0.3072 -0.0859
56001W        W99054   3.890  31.286   7.883 -0.2462 -0.1262 -0.0364
56002W        W99055  18.503  18.111   6.813 -0.1036 -0.1082 -0.0382
56003W        W99056  27.402  11.875  25.247 -0.0879 -0.1326 -0.0460
56004W        W99057  24.444  16.248   9.450  0.0533 -0.0973  0.0177
56005W        W99058  27.350  29.085   8.988  0.0093 -0.0626 -0.1513
56006W        W99059   1.378  29.637   3.188 -0.0327  0.1149 -0.2110
56007W        W99060  19.436  22.216  27.293 -0.2402  0.3148  0.3856
56008W        W99061   0.743   4.728  26.974 -0.0369 -0.0876 -0.0533
56009W        W99062  22.921  29.675   7.570 -0.0714 -0.1949  0.1283
56010W        W99063   0.965  16.822  26.283 -0.1239 -0.3308  0.2433
56011W        W99064   6.315   6.359   8.375 -0.1710 -0.1766 -0.0777
56012W        W99065   2.535  27.446  15.785 -0.0238  0.0184  0.0418
56013W        W99066  29.204   3.518   2.913 -0.1234  0.0763  0.0130
56014W        W99067   9.721   1.504   3.491  0.0052 -0.0508 -0.0266
56015W        W99068   3.397  34.560  23.206 -0.1580 -0.0573 -0.0288
56016W        W99069  32.313  33.717   7.551 -0.0219 -0.1549  0.0846
56017W        W99070   2.445  31.755   2.956  0.3626  0.0545 -0.0962
56018W        W99071   8.572  22.524  27.153 -0.2626 -0.3234 -0.1985
56019W        W99072  23.678  24.537   5.270  0.2914 -0.0988 -0.3454
56020W        W99073   8.106  25.095  25.472  0.0530  0.1055 -0.0037
56021W        W99074   9.827  24.942  25.252 -0.0174  0.2046 -0.0477
56022W        W99075   1.843   8.723  27.248  0.2534  0.0204 -0.0848
56023W        W99076  32.827  24.469  26.122 -0.1171  0.0963  0.0503
56024W        W99077  14.672  28.819   1.744 -0.0528  0.1331  0.1556
56025W        W99078   8.533  23.666   4.861 -0.1674  0.0335 -0.2083
56026W        W99079  28.950  19.630   4.605 -0.0146  0.1051 -0.1061
56027W        W99080   3.143   2.666  25.026 -0.1741  0.2993  0.0440
56028W        W99081   2.980  31.259  28.106  0.0379  0.5437 -0.2438
56029W        W99082  25.046   4.398   9.263 -0.0382 -0.0359  0.0834
56030W        W99083  11.954  32.474   9.015 -0.1203 -0.0540 -0.0009
56031W        W99084  27.119   1.413  18.079  0.1301 -0.1574  0.0884
56032W        W99085  25.546  20.306   7.305 -0.3388  0.1014  0.1030
56033W        W99086  20.833  30.449  25.918 -0.1265 -0.2214 -0.0958
56034W        W99087  32.211  18.257  28.020 -0.0277 -0.2241  0.0360
56035W        W99088  31.121  30.870   8.520 -0.0663 -0.0765 -0.1125
56036W        W99089  21.092  27.592  23.587 -0.3339 -0.0547 -0.0039
56037W        W99090  31.095  13.851   8.434  0.2623 -0.0439  0.1407
56038W        W99091  13.665  23.378   4.148 -0.2927  0.0980 -0.1202
56039W        W99092   5.308  33.244   7.914  0.3505  0.1803  0.0712
56040W        W99093  23.241  26.880   6.302 -0.0939  0.2416  0.0884
56041W        W99094   6.092   2.310   0.153  0.1914 -0.3183 -0.2084
56042W        W99095   1.999   6.772  25.231  0.1149  0.0096 -0.2779
56043W        W99096  11.484  23.823   3.530 -0.1167 -0.1758  0.2738
56044W        W99097  21.105   1.648  26.599  0.0630 -0.3181  0.2486
56045W        W99098  31.625  34.268   3.621  0.2065  0.2931  0.0874
56046W        W99099  11.072  28.129   8.182  0.0081  0.0955  0.0099
56047W        W99100   1.538  32.585  26.373 -0.0427 -0.2100  0.4498
56048W        W99101   5.597   2.467   9.382  0.0871 -0.1027 -0.1639
56049W        W99102  27.516   3.265  17.756  0.2395  0.2632  0.0117
56050W        W99103   4.445  27.523  15.097 -0.0581  0.1222 -0.0169
56051W        W99104   1.245  27.726   1.399 -0.2345 -0.2441 -0.1714
56052W        W99105   6.560   8.026  16.641  0.2152  0.1291  0.1351
56053W        W99106  26.242  17.936   6.218  0.2496  0.0121  0.3000
56054W        W99107   5.896  30.607   2.349 -0.3215  0.0384  0.3858
56055W        W99108   1.078  34.038  21.879 -0.0829  0.1213  0.2355
56056W        W99109  24.728  19.509  18.613  0.1610  0.0966 -0.0355
56057W        W99110  11.278  34.234   0.359  0.2926 -0.0747  0.1499
56058W        W99111   1.231  34.572   0.509 -0.1534  0.2001  0.0467
56059W        W99112  13.561  30.370  21.759 -0.1651  0.1375  0.1843
56060W        W99113   5.398   6.157   1.513 -0.2139 -0.2284  0.0968
56061W        W99114   9.315  22.553   1.645 -0.3394 -0.0526 -0.2577
56062W        W99115  26.403  22.505  28.223  0.0852 -0.0268 -0.0214
56063W        W99116   2.687  24.597   1.090 -0.0466 -0.2153 -0.1790
56064W        W99117  32.723   1.002   8.488 -0.2478 -0.4127 -0.0033
56065W        W99118  26.595   9.985  18.398 -0.0389 -0.1376  0.0824
56066W        W99119  20.790   8.635  24.752 -0.1715 -0.2054 -0.0761
56067W        W99120   4.509   1.136   6.689  0.0394  0.0194  0.1172
56068W        W99121  13.576   0.640  15.000  0.3370 -0.1738 -0.0002
56069W        W99122  33.607  24.203  19.974  0.2095  0.1080 -0.0226
56070W        W99123   5.871   7.858   9.411 -0.3068  0.0932  0.0604
56071W        W99124  32.248  29.252   0.833 -0.1821  0.0090  0.0006
56072W        W99125  32.401  12.222   5.736 -0.0860  0.1167 -0.2497
56073W        W99126  32.011  12.778   9.336 -0.0717  0.0846  0.2289
56074W        W99127  27.778  17.705   0.253  0.1719  0.1878  0.1701
56075W        W99128  25.703   6.251   2.517  0.0151 -0.0898  0.2713
56076W        W99129   7.319   0.516  25.035 -0.1468  0.1203  0.0195
56077W        W99130   9.741  27.349  25.594 -0.0364 -0.3438  0.1852
56078W        W99131   6.155  15.281  26.104 -0.2363 -0.1091 -0.3991
56079W        W99132  33.558   5.660  10.167  0.1293 -0.2140  0.1219
56080W        W99133  31.605  30.753   7.494  0.0165 -0.1706  0.2865
56081W        W99134  32.517  30.803   5.565  0.2777 -0.1564  0.1004
56082W        W99135   4.122  30.999   0.677  0.1387 -0.0507 -0.1435
56083W        W99136  33.451  24.424   2.574 -0.1525 -0.1369 -0.1341
56084W        W99137  20.131   1.987  26.063  0.2185 -0.2246 -0.1091
56085W        W99138   0.413   0.484  27.543 -0.1650  0.0111 -0.0652
56086W        W99139   0.958  21.843   8.790  0.0965 -0.0516 -0.0517
56087W        W99140  10.328  21.035   6.366  0.1461 -0.2637 -0.2098
56088W        W99141  22.678  27.377  26.534 -0.0109 -0.1011  0.4131
56089W        W99142  22.625  30.113  28.202 -0.3284 -0.0064  0.0049
56090W        W99143  19.818  24.303  19.528  0.0533  0.1329 -0.0413
56091W        W99144  33.974   3.468  25.355  0.1164 -0.1046  0.0195
56092W        W99145  22.544  25.518  22.136  0.0933 -0.2066 -0.2779
56093W        W99146  13.567   6.610   5.480  0.0826 -0.3410  0.1437
56094W        W99147  19.825  27.615   6.695  0.0102  0.1215  0.0369
56095W        W99148   1.845   7.067  28.846  0.0803  0.1395 -0.2570
56096W        W99149   9.233   2.987   2.756 -0.1726  0.0454 -0.3681
56097W        W99150  32.452   0.444   7.217  0.0521 -0.1730  0.2087
56098W        W99151  32.849  27.809   5.661  0.0480 -0.0634 -0.1157
56099W        W99152   8.138  34.349  27.948 -0.0872 -0.1822 -0.1412
56100W        W99153   3.748  32.604  28.075 -0.1995 -0.1223 -0.0978
56101W        W99154   0.508   3.995   7.245 -0.0830 -0.1024  0.2419
56102W        W99155  23.123  33.421   4.209  0.0401  0.0812 -0.2335
56103W        W99156   2.692  17.620  25.003 -0.1292  0.0213  0.1534
56104W        W99157  26.904  33.801   1.991  0.0229  0.0841  0.2642
56105W        W99158  14.800  19.865  25.512 -0.0045  0.3637  0.0456
56106W        W99159  24.840  32.519  24.383  0.0349  0.0063 -0.0786
56107W        W99160   0.413  20.746   5.476 -0.0758 -0.2305 -0.2824
56108W        W99161   9.366   5.013  19.111  0.1159  0.5728  0.0796
56109W        W99162  31.478  27.047   1.208  0.0283 -0.0937  0.0277
56110W        W99163  19.860   1.795   8.144  0.1919 -0.1614  0.1809
56111W        W99164  34.612   9.687   9.501  0.0961 -0.1620 -0.1726
56112W        W99165  19.804   0.319   8.202  0.1161 -0.2487  0.0519
56113W        W99166  29.129  26.040   7.695  0.3063 -0.4064  0.1569
56114W        W99167  30.445  17.603  24.857  0.0505 -0.1761 -0.0494
56115W        W99168  12.382   3.213   1.248  0.0194 -0.1454  0.0648
56116W        W99169   9.724  24.991   2.173 -0.0320  0.1065  0.0852
56117W        W99170   4.669  28.024   5.769 -0.1603 -0.0508 -0.0234
56118W        W99171   8.725   6.255   8.369  0.1323  0.2954  0.2260
56119W        W99172  26.783   0.425   6.319  0.2413  0.0768  0.1963
56120W        W99173   7.010  32.069   0.393 -0.1414  0.1852  0.1054
56121W        W99174  31.358  24.973  24.556 -0.2369  0.0450 -0.0295
56122W        W99175  31.034   6.674   0.449 -0.1986 -0.0083  0.2430
56123W        W99176   9.138   2.960   8.511 -0.0773 -0.0853 -0.0251
56124W        W99177  20.021   9.049  10.713 -0.0897  0.2071 -0.2158
56125W        W99178   1.652  29.788  17.404 -0.2362 -0.1679 -0.1798
56126W        W99179  28.973  24.712  27.484  0.0343  0.3831  0.2060
56127W        W99180  26.928  30.284  25.093  0.0581 -0.0344  0.0376
56128W        W99181  20.143  20.086   0.023 -0.1559 -0.2004 -0.0776
56129W        W99182  32.537  14.395   1.493 -0.4571 -0.1026 -0.2691
56130W        W99183  20.807  28.765  26.942  0.2495  0.0867  0.0763
56131W        W99184  26.007   0.673  23.247  0.1533 -0.1507 -0.2333
56132W        W99185  29.871  26.291   0.381  0.0035 -0.1100  0.1418
56133W        W99186  28.207  21.341  23.776  0.2015  0.3486 -0.0615
56134W        W99187  22.710  13.172   2.743 -0.1707  0.0645 -0.0212
56135W        W99188   2.508  32.502   1.075  0.2386 -0.1503 -0.0570
56136W        W99189  13.636  23.659  23.029 -0.0835  0.0489 -0.1298
56137W        W99190  32.692  24.207   8.884  0.1384  0.1493 -0.0428
56138W        W99191  27.646  33.536   5.383 -0.3437  0.3504 -0.1597
56139W        W99192  27.769  33.014   0.481 -0.1515 -0.1461 -0.1709
56140W        W99193   5.997  20.687   3.684 -0.2727  0.2203 -0.3567
56141W        W99194  32.631  34.515  26.849 -0.2956  0.0070  0.1406
56142W        W99195  28.207  10.461  26.878  0.1398 -0.1948 -0.1105
56143W        W99196   7.568  23.146  29.174 -0.1447  0.0708  0.0437
56144W        W99197  21.322   2.269   1.427  0.2935 -0.1484 -0.1793
56145W        W99198  32.028  22.378  28.537  0.2308 -0.2002  0.0584
56146W        W99199   1.929  30.432   1.949 -0.0602 -0.0013  0.0059
56147W        W99200  25.357  27.460   6.269  0.0250 -0.3778  0.3058
56148W        W99201  11.619  23.947   5.074 -0.1889 -0.5165  0.2307
56149W        W99202   6.447  28.550   8.087 -0.1447 -0.2835  0.3839
56150W        W99203  34.462  14.177   6.530  0.2432 -0.0663  0.2787
56151W        W99204   3.175   0.882   6.104  0.1201 -0.0963 -0.1183
56152W        W99205  14.564  21.158  23.316 -0.5189 -0.1406 -0.1545
56153W        W99206   2.192   9.179  17.940 -0.2930  0.0391 -0.2670
56154W        W99207  22.868  33.982  23.337  0.1064  0.0634  0.0387
56155W        W99208  22.725  27.076   3.852  0.0956 -0.0600  0.3163
56156W        W99209  29.911  17.367   6.580  0.1185  0.1992  0.2611
56157W        W99210  32.308  34.499   6.020 -0.1274  0.4877  0.1074
56158W        W99211  10.593  29.798   6.589  0.1457  0.2362 -0.0981
56159W        W99212   6.221  28.904  28.917  0.3947  0.0761  0.2807
56160W        W99213   1.291   8.069  15.524 -0.3368  0.0038  0.2624
56161W        W99214  26.493   5.909  26.696 -0.4308  0.1744 -0.1410
56162W        W99215  26.642  27.511   1.562  0.0687 -0.0765  0.0103
56163W        W99216  33.857  13.812   6.452  0.2712  0.0756 -0.2661
56164W        W99217  21.719  32.408   5.808 -0.0320 -0.1502  0.0465
56165W        W99218  33.729  15.590   6.469  0.1459 -0.0866  0.1330
56166W        W99219  24.477  27.160   2.004 -0.0452 -0.0626  0.1970
56167W        W99220  16.638   8.474  28.773 -0.5330 -0.2058  0.1734
56168W        W99221   5.456  24.142  27.386  0.0387 -0.0473  0.5364
56169W        W99222  19.171  31.480   8.974 -0.3044  0.0937 -0.0723
56170W        W99223  32.535  30.798   0.836 -0.1269  0.1718 -0.1474
56171W        W99224   6.368  26.987  21.965 -0.1058 -0.0089 -0.1181
56172W        W99225  29.220  25.960  24.983  0.1906  0.1677  0.0832
56173W        W99226  33.987  31.903   0.180  0.2567  0.0013  0.4570
56174W        W99227  32.982   5.868   7.112 -0.1911  0.2910 -0.2599
56175W        W99228   0.942  27.458  27.778 -0.0093  0.1367 -0.0790
56176W        W99229  30.134  22.614  18.314 -0.1588  0.2089  0.0272
56177W        W99230  17.534   3.740   2.642 -0.2045  0.0027 -0.1321
56178W        W99231  29.894  20.768  28.815  0.0059 -0.0937  0.0540
56179W        W99232  30.540   6.040   3.636 -0.1277 -0.2697  0.0064
56180W        W99233   7.689  26.520  27.602  0.0203  0.2881 -0.3725
56181W        W99234  20.280  26.506   1.183  0.0889  0.0756 -0.0579
56182W        W99235   7.257  31.332   8.080 -0.1617  0.1445  0.1282
56183W        W99236  17.398  30.758  27.648 -0.0690 -0.1016 -0.0238
56184W        W99237   2.019   4.537   5.479  0.1118  0.1903  0.1444
56185W        W99238   3.174  19.981   7.158 -0.0878 -0.3292 -0.0056
56186W        W99239  34.270  21.467  28.606 -0.0292 -0.0400  0.2885
56187W        W99240  30.405  25.078  24.022  0.0225 -0.4070 -0.2977
56188W        W99241  33.806  11.046   4.913  0.3068 -0.0460  0.1356
56189W        W99242   4.034   1.738   5.244  0.0784 -0.1099  0.1081
56190W        W99243  28.181  32.127  28.747  0.0302  0.1012 -0.3042
56191W        W99244  24.143  14.352   3.289 -0.1125  0.2182  0.1933
56192W        W99245   3.397   8.688   5.036  0.1893  0.1293  0.0052
56193W        W99246  28.534  27.610   9.227  0.2418  0.0231  0.2750
56194W        W99247  33.543  22.721   8.679  0.0549  0.1806 -0.0153
56195W        W99248   0.033   2.976  23.300 -0.1533 -0.2047  0.0597
56196W        W99249  19.559  20.549   9.373 -0.1332  0.2079 -0.0049
56197W        W99250   7.514  18.977   8.451 -0.2515  0.3257  0.0006
56198W        W99251   9.573   2.065  27.100  0.1881  0.0554 -0.0451
56199W        W99252  32.577  25.469   4.811 -0.1106 -0.1505 -0.1157
56200W        W99253   1.080   3.309   4.587  0.2598  0.3164 -0.1793
56201W        W99254   5.420  26.405  21.870  0.0524 -0.2844 -0.3830
56202W        W99255  22.085   1.191   1.002 -0.3439  0.0215 -0.2428
56203W        W99256  34.375   4.073   1.458  0.1924  0.2256  0.4826
56204W        W99257  24.350  29.484   2.405  0.1426  0.1030 -0.1226
56205W        W99258  17.195  33.751  28.329  0.0437 -0.0508 -0.2354
56206W        W99259   8.776  22.631   1.582 -0.2878  0.2588 -0.0116
56207W        W99260  14.423  26.053   0.944 -0.2525 -0.0356  0.0598
56208W        W99261  28.389  27.576  27.514 -0.1323 -0.3117  0.1331
56209W        W99262   5.220  11.704  21.199  0.1394  0.0820 -0.0454
56210W        W99263  26.821  12.212   5.802  0.0465  0.3846  0.0479
56211W        W99264   1.794  23.851   4.944 -0.1116 -0.1443 -0.0872
56212W        W99265   8.955   0.926  19.621  0.0758  0.2140  0.0020
56213W        W99266   4.557  18.339   3.590 -0.1529  0.0287  0.0597
56214W        W99267   5.762  34.635   7.346 -0.0993  0.1481  0.0553
56215W        W99268   5.710  31.455  21.927 -0.0284 -0.0972 -0.1573
56216W        W99269  23.306  30.968  27.476  0.2242 -0.0975  0.0177
56217W        W99270   5.316  32.816   7.594 -0.0505 -0.3145  0.0488
56218W        W99271  25.946   4.110   2.050 -0.1044  0.4482  0.2664
56219W        W99272   6.750  30.722  28.452  0.1573  0.0560  0.1065
56220W        W99273  21.249   0.261  28.175  0.1572  0.3088 -0.0311
56221W        W99274  30.025   2.184   9.620  0.4259  0.0189  0.1357
56222W        W99275  21.489  24.056  28.201 -0.1787 -0.2877  0.1405
56223W        W99276  19.374  30.203   5.764 -0.0345  0.0345 -0.0382
56224W        W99277   8.572  24.873  19.246  0.1691 -0.3157 -0.1776
56225W        W99278  34.338   3.673   1.047 -0.0288  0.2378 -0.0165
56226W        W99279   2.408  16.430   4.346 -0.0932 -0.0717 -0.2648
56227W        W99280  25.656  14.948   3.513  0.2386  0.0117  0.1204
56228W        W99281  24.018  27.200   8.041 -0.0908  0.0159 -0.0431
56229W        W99282  32.997   8.901   2.858  0.3074  0.0006 -0.2137
56230W        W99283  16.865   2.888   5.583 -0.1486 -0.2456  0.1523
56231W        W99284   8.550  29.954  14.662  0.2518 -0.1144  0.0097
56232W        W99285  32.633  28.571  21.800 -0.3830 -0.0712 -0.1144
56233W        W99286   5.545  24.798  18.002 -0.0158 -0.3482 -0.3455
56234W        W99287  15.978  28.777  28.210  0.2050 -0.2949 -0.0038
56235W        W99288  26.141  29.611  22.168 -0.3702  0.0331  0.2481
56236W        W99289   0.601  32.597  26.125  0.2592  0.0744  0.0758
56237W        W99290   4.658  16.443   6.852 -0.1326  0.0311  0.3950
56238W        W99291  22.209  26.562   6.492 -0.1587 -0.0349  0.0127
56239W        W99292   6.880  29.166   7.589  0.0121  0.0329  0.0506
56240W        W99293  19.785  27.175  28.370  0.2609 -0.1122  0.0833
56241W        W99294  30.144  26.709   3.556 -0.0021 -0.0608 -0.2380
56242W        W99295   0.849   1.496  27.828  0.1613 -0.0660 -0.0927
56243W        W99296  15.699  28.492  26.839  0.3859  0.0066 -0.0379
56244W        W99297  17.914  10.928   3.876 -0.0453  0.0535  0.1682
56245W        W99298  10.324   1.839   5.926 -0.2582  0.0364 -0.2544
56246W        W99299   1.433  22.042   9.706 -0.2606  0.2032 -0.2036
56247W        W99300   0.647  20.957   1.830 -0.0788 -0.0484  0.3385
56248W        W99301   0.067  30.060  27.369 -0.2740  0.1286  0.0364
56249W        W99302  29.377  29.577   4.981  0.1139  0.2356 -0.2191
56250W        W99303   3.237  30.369   8.617 -0.0823  0.1353 -0.1303
56251W        W99304  21.579   8.629   9.801 -0.0306  0.0021  0.1524
56252W        W99305  34.391  22.268   3.817  0.0809  0.2011  0.2056
56253W        W99306  30.232  30.666   4.208  0.1681 -0.1364  0.0408
56254W        W99307  26.354  24.473   5.428  0.0718 -0.0321 -0.1554
56255W        W99308  13.070  16.522  10.634 -0.0932 -0.2887  0.0225
56256W        W99309   7.037  23.658  20.063 -0.0788  0.3058  0.0921
56257W        W99310  11.592  27.769   7.213  0.0775 -0.1477 -0.3189
56258W        W99311   6.515  32.001   0.733  0.1408  0.3412 -0.1835
56259W        W99312  32.131  33.197   7.372 -0.1057 -0.2620  0.2493
56260W        W99313   7.321   5.530   4.269 -0.1736 -0.2315 -0.3521
56261W        W99314  28.173   4.713   6.500  0.0766  0.1652 -0.0476
56262W        W99315  25.617  22.020   9.086 -0.1683  0.0986 -0.1258
56263W        W99316  18.375  34.184  28.644 -0.1689 -0.0622  0.0050
56264W        W99317  25.199  28.304  21.473  0.0266  0.3978  0.1583
56265W        W99318  12.576  23.211  29.048 -0.1168 -0.2532  0.4294
56266W        W99319  16.599   2.525   1.409 -0.0356 -0.1317  0.0947
56267W        W99320  30.341  29.858  24.959  0.0874  0.2931  0.1411
56268W        W99321   5.936  10.536   6.624  0.1520  0.0295  0.0426
56269W        W99322  23.553  30.781   4.939 -0.2169  0.2300 -0.3047
56270W        W99323  30.624  22.398   3.228 -0.1022 -0.1139  0.3103
56271W        W99324  22.449  33.833  10.442  0.2916 -0.0460  0.1488
56272W        W99325  18.043   2.166   3.035 -0.2532  0.1205  0.3323
56273W        W99326   0.943  29.619   4.302  0.1506 -0.2119  0.0281
56274W        W99327   3.463  23.653  25.816  0.2279 -0.1720  0.0480
56275W        W99328   2.938  33.682   8.160  0.0967 -0.1650 -0.2968
56276W        W99329   4.079  10.781   8.989  0.2982 -0.4297  0.0338
56277W        W99330  28.196   3.422   0.747 -0.0580  0.3929  0.0229
56278W        W99331  32.966  33.298   5.452 -0.0896  0.0314 -0.0138
56279W        W99332   0.074  20.948  22.677  0.0046 -0.0627 -0.1086
56280W        W99333   2.568   3.478  26.474 -0.0490 -0.2914 -0.0895
56281W        W99334  14.915   4.787  28.995 -0.0113  0.0154  0.1718
56282W        W99335  32.026  25.760   8.624  0.3618  0.1037 -0.0759
56283W        W99336  24.950  28.810  19.403 -0.1478 -0.1233 -0.0604
56284W        W99337  22.357  18.378  27.538 -0.0344 -0.1681  0.1512
56285W        W99338  21.420  33.570   7.463  0.1620  0.0909 -0.1634
56286W        W99339  10.028  17.248  10.235 -0.2742  0.1654 -0.0781
56287W        W99340  22.423  28.135  25.997  0.0165 -0.0484 -0.0946
56288W        W99341  21.980  19.751   8.197 -0.2546  0.1094 -0.1054
56289W        W99342  11.894  33.269   2.134 -0.0339  0.1570  0.3126
56290W        W99343   0.391  23.964  28.110 -0.0724  0.1242 -0.2237
56291W        W99344  20.964  27.600   6.723  0.1218  0.0879  0.1937
56292W        W99345  27.652  10.820   9.061  0.0830 -0.0698 -0.1984
56293W        W99346  29.208   6.596   5.039 -0.0900  0.0465  0.2048
56294W        W99347  31.294  14.290   1.332 -0.6737  0.2126 -0.0305
56295W        W99348  25.888  34.333   8.888 -0.0966  0.2747 -0.0381
56296W        W99349  18.869  29.137   6.219 -0.2039  0.2113  0.2188
56297W        W99350  33.304  25.905   0.914  0.0008  0.0759  0.0867
56298W        W99351   1.285   1.805  24.000  0.3838 -0.2426 -0.0964
56299W        W99352  16.500   4.564   1.555  0.1209 -0.0059  0.1152
56300W        W99353  32.760  28.870   3.406  0.0822  0.0803 -0.1506
56301W        W99354  30.789  32.437   6.192 -0.1384 -0.1704 -0.0903
56302W        W99355  29.109  14.404   0.357  0.2593 -0.1312 -0.3048
56303W        W99356  34.347  24.895   1.754  0.0357 -0.1949  0.1733
56304W        W99357  26.522   1.439   3.273  0.3941  0.0244 -0.1164
56305W        W99358   8.271  18.792  24.758  0.0654 -0.0013  0.0411
56306W        W99359  34.613   5.997  23.733 -0.0827 -0.2530 -0.1555
56307W        W99360  26.360  23.727   1.642 -0.1681 -0.0249 -0.0027
56308W        W99361  25.640  30.370  16.447 -0.2270 -0.1000  0.1561
56309W        W99362  29.811   5.815   6.847 -0.2839 -0.2812  0.0538
56310W        W99363   3.394  20.377   9.892  0.3886 -0.0537 -0.0700
56311W        W99364   1.129  28.283   6.969  0.2222  0.0889 -0.2302
56312W        W99365  28.356  18.964  26.052  0.0991 -0.2339 -0.2588
56313W        W99366  27.426  24.048   4.340  0.0232  0.1798  0.2397
56314W        W99367  34.170   8.070   6.877 -0.3706 -0.1345  0.0499
56315W        W99368  33.623   1.505  21.467  0.3229 -0.0969 -0.0730
56316W        W99369  14.726  33.405   7.405  0.0894 -0.0573  0.0868
56317W        W99370  13.456  16.191   6.548 -0.1247  0.1133  0.0355
56318W        W99371  23.543  33.302  16.586 -0.0409 -0.3634 -0.0615
56319W        W99372  30.165  21.706  24.101  0.1712 -0.1505  0.1940
56320W        W99373   2.511  26.009   7.913  0.2886 -0.0279 -0.0801
56321W        W99374  20.678   9.570  27.615  0.4028  0.0405  0.1175
56322W        W99375   4.591   5.293   6.303  0.3908 -0.0332 -0.0771
56323W        W99376  31.698   1.814   0.050  0.1595  0.0789  0.2129
56324W        W99377  20.936  31.561   6.827 -0.0166 -0.0243 -0.0328
56325W        W99378  10.503   4.701   5.438 -0.0098  0.1809 -0.3803
56326W        W99379   2.672  28.332   4.838  0.0222  0.3823  0.0708
56327W        W99380   9.351  12.567  10.654 -0.1523  0.1712 -0.5805
56328W        W99381  33.696   9.314   0.683 -0.0722  0.2304 -0.0199
56329W        W99382  25.489   4.706   7.630  0.2078 -0.2126 -0.1261
56330W        W99383   9.397  13.752  17.755  0.2203  0.0219 -0.0380
56331W        W99384  10.538  17.673   4.957  0.0968 -0.4290  0.1047
56332W        W99385  27.499   5.345   7.316  0.0720 -0.2670  0.1703
56333W        W99386   6.131   0.950  28.007 -0.2015 -0.0882 -0.1687
56334W        W99387   6.452   4.061   6.500 -0.0761 -0.1622  0.0477
56335W        W99388   3.775   2.188   9.412  0.1129 -0.0195 -0.0567
56336W        W99389  29.706  25.005   7.619 -0.1627 -0.1344  0.0572
56337W        W99390  24.206  25.307   3.745  0.2615  0.1055  0.0292
56338W        W99391   1.416   3.010   6.616  0.2782  0.0649  0.2360
56339W        W99392  24.793  27.916   4.218  0.0711 -0.0949 -0.1670
56340W        W99393   5.686  25.404   2.320 -0.0348  0.2164  0.1729
56341W        W99394  31.450  22.375  27.943 -0.2152  0.1139 -0.0524
56342W        W99395  31.353  24.333   7.363  0.0609  0.0261 -0.0020
56343W        W99396   3.767   1.990   0.861  0.1859  0.0001  0.0080
56344W        W99397   0.563  11.003   8.213  0.3549  0.2587  0.0246
56345W        W99398   4.205   0.538  10.515  0.2550  0.3318 -0.1362
56346W        W99399  17.410  33.246   8.518  0.2888  0.0387 -0.0484
56347W        W99400  18.201  18.186  26.575  0.2665  0.2304 -0.5594
56348W        W99401   5.032  31.398   7.598 -0.0828 -0.0557 -0.1435
56349W        W99402  33.743  17.374  26.133 -0.1669 -0.0166 -0.0180
56350W        W99403  23.968  33.806   2.671  0.1909  0.0911  0.1132
56351W        W99404   5.228   7.145   8.856 -0.2208  0.1301 -0.0120
56352W        W99405  17.520   7.907   7.314  0.1002  0.0843  0.1811
56353W        W99406   4.134   1.533  20.502 -0.0056 -0.0549 -0.1638
56354W        W99407  28.567  33.453  28.780  0.0421 -0.0237 -0.2346
56355W        W99408  15.951  20.892  10.027 -0.0933  0.3109  0.0126
56356W        W99409   3.508   7.873  10.448 -0.2530 -0.0881  0.1937
56357W        W99410  30.033  34.453  23.276  0.0623  0.0360 -0.1553
56358W        W99411  24.362  27.416   3.136 -0.0300 -0.0532 -0.4318
56359W        W99412   0.952   0.718  20.937 -0.0851 -0.1022  0.0969
56360W        W99413  33.892  27.741  23.325  0.3069  0.2568 -0.0273
56361W        W99414   1.568  26.186   4.065 -0.2465  0.2070  0.1423
56362W        W99415  19.088  28.373   5.753  0.1664 -0.1054  0.0565
56363W        W99416  24.531  24.264   5.261  0.0585  0.1524  0.2010
56364W        W99417   2.843  26.103  20.206 -0.4091  0.3402 -0.1932
56365W        W99418  18.574   8.688   3.410  0.0302  0.3437 -0.1631
56366W        W99419  16.725   3.609  20.751  0.1268 -0.2147  0.3060
56367W        W99420  11.966  14.775   5.382  0.1710  0.1062 -0.0224
56368W        W99421  28.936  27.257   6.281 -0.3462 -0.1192  0.1573
56369W        W99422  24.590  24.668  21.225  0.2749  0.2194  0.2324
56370W        W99423  31.536  12.784  10.758 -0.2252 -0.2407 -0.0072
56371W        W99424   0.818  21.562   3.357  0.0326  0.2293  0.3554
56372W        W99425   3.761  19.654   6.387  0.1786  0.1152  0.0027
56373W        W99426  14.173  30.061   5.398  0.3077 -0.2014 -0.2310
56374W        W99427   8.832  34.089  23.429  0.1127  0.2097 -0.0534
56375W        W99428   8.131   1.214  19.202  0.1532  0.0146 -0.0756
56376W        W99429  17.468  25.330   8.465  0.0097 -0.1944  0.1284
56377W        W99430   2.392  17.429   7.244 -0.1230  0.3029 -0.0117
56378W        W99431   2.621   4.372   2.721 -0.2316  0.1214 -0.1334
56379W        W99432  18.645   7.671   4.339 -0.0597  0.0723 -0.1792
56380W        W99433  12.981  27.798   6.384  0.1942 -0.0702  0.0536
56381W        W99434   7.767  29.925   6.429  0.2719 -0.0387 -0.0526
56382W        W99435  34.203   0.166   6.044  0.1831  0.1618 -0.1785
56383W        W99436   0.041   3.360   2.109 -0.0924 -0.1091 -0.4573
56384W        W99437  16.787  23.812  27.325 -0.2836 -0.1644 -0.1363
56385W        W99438  17.266  31.085   8.661 -0.1416  0.0107  0.0854
56386W        W99439  29.566  30.235   7.684 -0.0677 -0.1727 -0.0709
56387W        W99440  13.040  15.152  15.163 -0.1303 -0.4696 -0.2154
56388W        W99441  22.329   9.725  23.020  0.0433  0.0627 -0.2576
56389W        W99442   3.208  32.969  29.070 -0.1547  0.0574 -0.1157
56390W        W99443  19.535  28.781   2.328  0.2036  0.0862  0.1216
56391W        W99444  32.112   2.521  26.169 -0.3096  0.0580  0.1255
56392W        W99445   2.210  33.991  22.999  0.1342  0.1278 -0.1010
56393W        W99446  28.556  19.246  21.715  0.2616 -0.0568  0.0578
56394W        W99447  31.081  31.030   5.397  0.1747 -0.3114  0.3818
56395W        W99448  22.130  32.646  20.130  0.0766  0.1269  0.1500
56396W        W99449   6.080   3.079   9.971  0.0971 -0.0107  0.0034
56397W        W99450  21.749   0.127   8.258  0.1325  0.0085 -0.1117
56398W        W99451  11.924  22.827   5.315  0.1206  0.1325  0.1081
56399W        W99452   5.413  14.706   1.063  0.1010 -0.1986  0.1184
56400W        W99453  17.677  17.473   1.393  0.3764  0.2558 -0.0344
56401W        W99454   3.957  19.924   2.601  0.0933 -0.1713  0.0855
56402W        W99455   1.946   1.453  25.325  0.0425  0.3086 -0.0948
56403W        W99456  33.019   3.711   5.670  0.1458 -0.1295  0.0257
56404W        W99457  24.329   0.894  28.568 -0.1281 -0.1056  0.1256
56405W        W99458  34.115  33.753   6.896 -0.0763  0.2617 -0.2320
56406W        W99459  29.536  33.590   6.596 -0.0456  0.0307  0.3115
56407W        W99460   0.891  13.295  22.660  0.1057 -0.1090 -0.1767
56408W        W99461   5.348   5.236   6.255 -0.2210 -0.0140 -0.0583
56409W        W99462  11.638  19.836   5.242  0.0902  0.1054  0.3312
56410W        W99463   5.899   8.002   2.351  0.2122 -0.3820  0.0719
56411W        W99464   5.262  14.233   3.861  0.0572  0.1116 -0.2728
56412W        W99465   0.535   4.182  18.361 -0.2241  0.2473 -0.1188
56413W        W99466  30.272   1.696   6.993 -0.0871 -0.1778 -0.1042
56414W        W99467   3.316  13.593   0.362  0.0979 -0.1817  0.1498
56415W        W99468  10.692  12.991  26.010 -0.0508  0.1152  0.4327
56416W        W99469   1.580  24.020   9.251  0.2063 -0.0261 -0.2481
56417W        W99470   7.484  15.958  27.221 -0.0433  0.2714  0.1530
56418W        W99471  14.002  10.681   6.666  0.1824 -0.2800 -0.0027
56419W        W99472  15.081   7.609   4.822 -0.0215  0.0242 -0.0134
56420W        W99473  21.843   6.188   8.437  0.1849  0.4005 -0.2086
56421W        W99474   0.049  27.195   1.309 -0.1599  0.1742 -0.0735
56422W        W99475  30.237  15.002  19.706 -0.2586 -0.2832 -0.1110
56423W        W99476  21.170   1.542  27.072 -0.0736 -0.2322  0.0745
56424W        W99477   1.446   3.501   2.461  0.1166 -0.1161 -0.0897
56425W        W99478   3.661  33.278   3.802 -0.0848 -0.3823  0.0038
56426W        W99479  16.801  18.869  23.767 -0.0962  0.2604  0.4243
56427W        W99480  32.725  17.784  22.693 -0.3767  0.1566  0.0426
56428W        W99481   6.147   3.527   8.397 -0.0148  0.0834 -0.0000
56429W        W99482  25.075   6.032   8.055  0.1428 -0.0075  0.2275
56430W        W99483   6.826  18.223  22.746 -0.1986 -0.1139  0.0327
56431W        W99484  11.688  34.320   9.503  0.0222 -0.2088 -0.1264
56432W        W99485   2.697  26.157  26.619  0.0642 -0.0318 -0.4331
56433W        W99486  33.944  24.199  23.595 -0.3827 -0.0481 -0.1053
56434W        W99487  34.635  29.794  24.771  0.0648 -0.1190  0.2914
56435W        W99488  16.609  28.994   4.925 -0.1222  0.1357  0.0945
56436W        W99489  27.960  26.937  21.578 -0.0152  0.3371 -0.0470
56437W        W99490   4.995  33.070   9.114 -0.1114  0.4747 -0.1532
56438W        W99491   4.010  30.974  27.971 -0.0884 -0.2702  0.4041
56439W        W99492  30.117   6.061  15.399 -0.2280 -0.0852 -0.0362
56440W        W99493  19.322  17.486   9.046  0.1162  0.1714  0.2928
56441W        W99494   9.462   5.499  21.585 -0.2254 -0.3395 -0.2140
56442W        W99495  33.306  22.140   7.290 -0.1549  0.0615  0.0758
56443W        W99496   7.474  28.842   0.953 -0.0444 -0.1525  0.1287
56444W        W99497  31.168   5.929  23.920  0.2879 -0.1632  0.3768
56445W        W99498   6.884   2.810   2.437  0.0674  0.0099 -0.2955
56446W        W99499  12.750  24.740   4.592 -0.0709  0.4582  0.0692
56447W        W99500  20.427  15.577  24.159 -0.0239  0.3939  0.0912
56448W        W99501  22.088  11.511  20.091 -0.3545 -0.1040  0.0009
56449W        W99502  33.419  28.463   3.603  0.1525  0.0548 -0.2109
56450W        W99503  28.566  24.530   5.286 -0.2188  0.2402  0.0650
56451W        W99504  33.472   2.963   6.026 -0.2514  0.4054  0.1819
56452W        W99505  23.565  25.146   9.408  0.1544 -0.0041  0.3750
56453W        W99506  29.131   5.294  21.130 -0.0443 -0.0917 -0.0250
56454W        W99507  15.337  32.570  24.352  0.3792 -0.0234  0.3709
56455W        W99508  33.288   5.589   4.506 -0.0265 -0.5292 -0.2269
56456W        W99509  26.617   2.185  15.664 -0.0793  0.0093 -0.0971
56457W        W99510  19.469  33.511   5.709 -0.1766 -0.1370  0.2077
56458W        W99511  14.246  28.880   0.753 -0.0444  0.2444 -0.2827
56459W        W99512  27.150  32.845   6.459  0.0993  0.1686  0.0074
56460W        W99513  22.178  29.737   3.321  0.2189  0.1503 -0.2155
56461W        W99514   6.796   1.751   1.484 -0.3159  0.0967 -0.1561
56462W        W99515  20.230   3.637  14.585 -0.3249 -0.0023  0.0048
56463W        W99516  21.346  29.111   2.054 -0.0704 -0.2171 -0.2176
56464W        W99517  22.405   7.431   6.703  0.1069  0.1226  0.1837
56465W        W99518  23.414  22.894   6.149  0.1180  0.1068  0.2861
56466W        W99519  11.323   5.539   8.848 -0.3226  0.0734 -0.0693
56467W        W99520  33.176  24.305   7.512  0.1856 -0.3436  0.2301
56468W        W99521   5.768   1.928   7.912 -0.0515 -0.1770 -0.1354
56469W        W99522   2.695  33.864   4.593 -0.1212  0.2082 -0.1097
56470W        W99523  30.006  23.197   7.530  0.0672 -0.0122  0.0275
56471W        W99524  22.521  12.427  10.339  0.2550  0.1474  0.1288
56472W        W99525   4.496   1.858   9.851 -0.1514  0.2914  0.0766
56473W        W99526  29.500   2.375   4.885  0.1416 -0.3623 -0.0656
56474W        W99527   9.236  20.964   0.986 -0.0203 -0.1870  0.0572
56475W        W99528   4.299  34.641  22.827 -0.2470  0.3452  0.0928
56476W        W99529   4.704   8.242   0.454  0.1563  0.0144  0.1345
56477W        W99530  22.649  32.545  28.634 -0.0371 -0.1409  0.2287
56478W        W99531  15.378  26.412  25.618  0.0283 -0.3671 -0.0810
56479W        W99532  23.039  15.105  22.521  0.1023  0.0102  0.0620
56480W        W99533   4.112   6.267   8.286 -0.3639 -0.2270 -0.2071
56481W        W99534  26.759   3.533  14.704  0.0774 -0.2134  0.0005
56482W        W99535  21.500   5.796   8.415  0.2113  0.1936 -0.2396
56483W        W99536  31.685   1.873  28.782  0.1705  0.0271 -0.2133
56484W        W99537  22.675  10.976  27.869 -0.4649  0.2569  0.1911
56485W        W99538   5.980  21.875   8.019 -0.1093  0.1384 -0.0452
56486W        W99539  25.234   5.231  23.575  0.1337 -0.0202  0.1831
56487W        W99540   5.294  31.157   8.983  0.4177 -0.1901 -0.0182
56488W        W99541  29.219   7.880  21.902 -0.2672 -0.4388  0.0146
56489W        W99542   6.727  30.638  18.640  0.1085 -0.2813 -0.0101
56490W        W99543  20.527   6.755   0.749 -0.0660 -0.1417  0.0354
56491W        W99544   7.982  10.407   0.858 -0.2346  0.2818 -0.0733
56492W        W99545   6.298  32.127   9.119 -0.0399 -0.1245  0.0510
56493W        W99546  31.695  23.812   6.421 -0.0384  0.0397  0.2167
56494W        W99547  23.350   6.588   9.225  0.1058 -0.2120  0.1100
56495W        W99548  32.334  31.361   8.474  0.0919 -0.4665 -0.0092
56496W        W99549  28.668  32.300  10.047 -0.0482  0.2436  0.0172
56497W        W99550   0.313  29.422   1.723  0.0176  0.1535 -0.2840
56498W        W99551   7.051  33.719  21.070 -0.2140 -0.1904  0.2230
56499W        W99552  28.787   8.295   9.721  0.0195  0.0064  0.0279
56500W        W99553   3.034  18.881   2.374  0.1517  0.1044  0.3009
56501W        W99554  17.483  21.101  15.832 -0.1726 -0.0838 -0.3341
56502W        W99555  29.193   7.712   0.033 -0.2407  0.0626 -0.0416
56503W        W99556  10.341  33.422  26.580 -0.3019  0.1714 -0.0337
56504W        W99557  28.979  27.556  21.647 -0.0973 -0.2711 -0.1192
56505W        W99558  26.692  20.925   6.907  0.0298 -0.1997  0.3433
56506W        W99559  32.240  30.168  18.250 -0.1072 -0.0787 -0.2852
56507W        W99560  27.638   3.730  24.455 -0.0296  0.2799 -0.0713
56508W        W99561  31.815  31.664  28.942  0.0250  0.1295 -0.1326
56509W        W99562  29.181  29.128   6.943  0.2337 -0.0639  0.2408
56510W        W99563  28.764   9.195   7.538 -0.1219  0.0508 -0.3618
56511W        W99564  29.542  20.405   6.846 -0.4077 -0.0148  0.1676
56512W        W99565  27.943   3.984   9.892  0.2312 -0.2964 -0.1720
56513W        W99566   2.837   0.823   3.412  0.2996  0.1057 -0.0021
56514W        W99567  17.732  27.429   6.506 -0.0415  0.2125 -0.1695
56515W        W99568  28.881  31.006   6.257  0.2988  0.1110 -0.1943
56516W        W99569  24.219  30.024   2.603 -0.4323 -0.0233 -0.1275
56517W        W99570   9.997  18.190  26.816  0.0789 -0.1853  0.2205
56518W        W99571   2.451   3.966  22.692 -0.0329 -0.3315  0.2880
56519W        W99572  26.639  33.066  22.991  0.0071  0.5057  0.2791
56520W        W99573  11.144  18.708  10.669  0.1727 -0.1019  0.0336
56521W        W99574  29.499  20.680  25.678  0.1249 -0.3197 -0.2028
56522W        W99575   1.365   0.465  28.899 -0.0685 -0.2153  0.1406
56523W        W99576  25.467   1.117  16.706 -0.0560  0.2064  0.2984
56524W        W99577  20.491   0.184   1.545  0.0940 -0.1878  0.0080
56525W        W99578  34.311  30.574   7.176 -0.2013  0.1107  0.0427
56526W        W99579   5.602   3.872   6.189  0.3252  0.2140 -0.0133
56527W        W99580  31.697  34.657   5.861 -0.0641  0.0648  0.2866
56528W        W99581  17.076   1.807  26.009 -0.2198 -0.0153  0.1183
56529W        W99582  28.910   3.766   3.881  0.2932  0.0266 -0.0220
56530W        W99583  12.228  32.368   4.666  0.0707 -0.1026  0.1266
56531W        W99584  15.861  26.563   1.223 -0.0762  0.2374 -0.0358
56532W        W99585   6.102  30.738   8.580  0.0377 -0.0881  0.0937
56533W        W99586   1.825  20.651  28.848  0.0634  0.4143 -0.1311
56534W        W99587  14.094  25.148   4.391  0.1187  0.2690  0.0542
56535W        W99588  22.210  13.889   6.095 -0.3385 -0.0052  0.0716
56536W        W99589   7.283  17.931   5.813  0.2193  0.3732 -0.0985
56537W        W99590  22.751  22.402   7.735  0.0981  0.0710  0.0709
56538W        W99591  31.516   8.048   3.310  0.1307  0.2347  0.0657
56539W        W99592   5.897  21.970   9.497 -0.1702  0.1914  0.1168
56540W        W99593  27.378  30.042  18.166 -0.2827 -0.0489 -0.0087
56541W        W99594   2.229  30.279  15.951 -0.0061  0.0870  0.1352
56542W        W99595  32.202  26.280   6.762  0.0644 -0.0163 -0.2330
56543W        W99596  31.366  27.701   4.511  0.2085 -0.0245  0.0047
56544W        W99597  17.762  21.526   1.514  0.0104 -0.0992 -0.1653
56545W        W99598  20.406  15.188   8.775 -0.1144  0.0057  0.1717
56546W        W99599   0.107  26.936  27.390 -0.0222 -0.0138  0.0814
56547W        W99600   4.183   4.850   9.794  0.1370 -0.2385 -0.0256
56548W        W99601  15.888   7.220  22.707  0.0374  0.0322 -0.0863
56549W        W99602   6.151   0.485   4.586 -0.5405  0.0138  0.3165
56550W        W99603  30.735   9.151  20.139 -0.1601 -0.0313 -0.2920
56551W        W99604  33.142  32.206   3.397 -0.2659 -0.3034 -0.1298
56552W        W99605   9.242  29.037   6.870  0.2712 -0.3162  0.0351
56553W        W99606   8.294  33.382   4.103  0.2692  0.0133  0.1864
56554W        W99607  26.532  31.655   8.164 -0.0315  0.1407 -0.0417
56555W        W99608   1.607  30.751   6.834 -0.1782  0.2567  0.0266
56556W        W99609   8.370  12.857   2.259 -0.0301  0.1416 -0.0672
56557W        W99610   2.508  13.615   0.464  0.2337 -0.1508 -0.0986
56558W        W99611   1.334  14.701   5.492  0.1726  0.1635 -0.1483
56559W        W99612   0.557  29.062   7.514 -0.0340  0.0232  0.1334
56560W        W99613   5.848  16.313   4.353  0.1296 -0.0278  0.3185
56561W        W99614  19.063  12.516  24.636 -0.2777  0.1434  0.1395
56562W        W99615  34.397  28.671   3.570 -0.0006 -0.2043  0.0254
56563W        W99616  22.271   0.583  23.669 -0.1909  0.0287 -0.1489
56564W        W99617   0.712  17.548   6.308  0.0889 -0.2413 -0.1321
56565W        W99618  25.659  30.602   0.297 -0.1545  0.3626 -0.1203
56566W        W99619   8.272  18.271   3.599  0.1306 -0.0492  0.1656
56567W        W99620   3.653  33.204   0.510 -0.1720 -0.2092 -0.2501
56568W        W99621   2.969  25.671   4.055  0.2664 -0.1440 -0.0583
56569W        W99622  24.133   2.460  27.587  0.3556 -0.1839 -0.1579
56570W        W99623  34.459   5.869   0.917  0.2763 -0.2178  0.0110
56571W        W99624  26.206  31.079  27.833  0.0968  0.1110  0.1043
56572W        W99625   8.853   0.956  28.950 -0.0020  0.0556 -0.2142
56573W        W99626   2.138  21.147   6.457  0.2591 -0.1768 -0.0035
56574W        W99627   2.406  25.581  25.920 -0.1259  0.0176 -0.0538
56575W        W99628  14.389  34.418   4.147  0.2808  0.2199  0.0252
56576W        W99629  24.550   8.832  19.443  0.0751 -0.1195  0.0798
56577W        W99630  34.299   1.327   8.817  0.2774 -0.0560  0.0708
56578W        W99631  15.557  30.377   5.312 -0.2824 -0.1010 -0.1213
56579W        W99632   5.983  31.390   9.645  0.1638 -0.1479  0.1216
56580W        W99633  20.438   5.061  26.283 -0.0377  0.0771  0.0627
56581W        W99634  34.118  34.677   2.056  0.0478  0.0446 -0.2260
56582W        W99635   8.138  28.907   8.320  0.0542  0.2847  0.3360
56583W        W99636  23.980   0.772  20.350 -0.1417 -0.0260 -0.1927
56584W        W99637   3.677  20.863   0.002  0.0972 -0.2069  0.0788
56585W        W99638   9.229   7.370   7.877  0.1722  0.1354 -0.3759
56586W        W99639  27.010  27.471   6.597  0.0133 -0.0594  0.2958
56587W        W99640   2.220   7.044  26.668 -0.1946 -0.0829  0.2347
56588W        W99641  23.346  18.045   7.647 -0.0805  0.1512  0.4754
56589W        W99642   9.956   1.230  19.431  0.1706 -0.0349  0.0127
56590W        W99643  33.826  27.509   7.814  0.2681 -0.0683 -0.3527
56591W        W99644   8.333  28.962   1.455  0.0785 -0.0270  0.0978
56592W        W99645  34.199   1.001  24.801  0.0231  0.0077 -0.0047
56593W        W99646   5.537   8.843   9.043  0.0139 -0.0792  0.0067
56594W        W99647  32.664  34.288   8.866 -0.1705  0.0006  0.2954
56595W        W99648  34.504  26.544   7.966 -0.1253  0.3055 -0.1706
56596W        W99649   2.961  30.456  20.917 -0.1002 -0.2328 -0.2389
56597W        W99650  31.623   2.368   0.008  0.2536  0.0916 -0.1775
56598W        W99651   7.645  29.311   8.038 -0.2244 -0.2158  0.2843
56599W        W99652  15.863   0.665  10.681  0.0118  0.2629 -0.0364
56600W        W99653  30.829   1.131   2.547 -0.2085 -0.1481 -0.0774
56601W        W99654   4.680   3.308   7.631 -0.3172  0.0283 -0.3727
56602W        W99655   5.458  13.008   9.442  0.1900  0.0592 -0.1093
56603W        W99656  24.782  12.434  21.862  0.1266  0.0805 -0.1402
56604W        W99657   8.504  29.908   2.562  0.0874  0.3821  0.0854
56605W        W99658  31.934  26.679  20.308  0.2342  0.1115  0.0409
56606W        W99659  30.764   2.270   8.685  0.1065 -0.0626  0.1607
56607W        W99660  29.797  22.447  27.183 -0.0619 -0.1065 -0.0955
56608W        W99661   0.315  30.510   4.350 -0.0461 -0.2721  0.0708
56609W        W99662  21.230  26.308   2.993  0.0080 -0.1480  0.0898
56610W        W99663   5.849  29.495   2.985 -0.0360 -0.1741  0.0370
56611W        W99664  30.565  11.344  10.364  0.1884 -0.0466  0.2892
56612W        W99665  29.604  25.897   5.911  0.1969 -0.1637  0.0797
56613W        W99666  34.540  28.113  26.556 -0.0458 -0.1746  0.3217
56614W        W99667  22.683   7.197  18.324  0.0187 -0.0465  0.1499
56615W        W99668  30.786   3.913   4.393  0.1831 -0.2278  0.0669
56616W        W99669  21.086  17.164   9.452 -0.1096  0.0619 -0.1164
56617W        W99670  30.544   8.470   1.020  0.0152 -0.1818 -0.3115
56618W        W99671  32.126  16.706   7.909  0.2691  0.2653 -0.0283
56619W        W99672  30.619  28.351   5.287  0.3585 -0.0366  0.0655
56620W        W99673  30.093  28.930   4.825  0.0626  0.1455 -0.2521
56621W        W99674   5.064  25.507   7.981 -0.0185 -0.0397  0.0791
56622W        W99675  28.182  27.693   6.624  0.3060  0.3571  0.0589
56623W        W99676  11.637  30.354   5.720 -0.0940  0.1038  0.1331
56624W        W99677  19.749  13.987  19.456  0.0010  0.0030  0.0329
56625W        W99678  21.534   4.361   6.828 -0.2207 -0.0583 -0.5104
56626W        W99679  23.404  23.938   2.249 -0.0475 -0.2108 -0.1421
56627W        W99680  27.410  21.803   2.812  0.1118 -0.1404  0.2363
56628W        W99681  20.685   0.205   9.581  0.2020  0.0159  0.2680
56629W        W99682  15.561  24.177   6.741  0.0295 -0.2023 -0.1946
56630W        W99683   1.274   4.733   7.444  0.2316 -0.0516  0.0341
56631W        W99684  26.115  33.977   8.475 -0.2151 -0.0886  0.1277
56632W        W99685  27.450   7.457   1.548  0.1078  0.1165 -0.0881
56633W        W99686  11.431  30.938   8.398  0.1272 -0.0090 -0.1430
56634W        W99687  25.517   0.364   7.195 -0.5075 -0.1228 -0.3364
56635W        W99688   1.528  28.127  23.266 -0.2640 -0.0830  0.1890
56636W        W99689  21.275  10.141   1.314  0.1460 -0.3999  0.1210
56637W        W99690  24.262   0.916  28.033 -0.1774  0.1750  0.0062
56638W        W99691   0.204   5.000   5.283 -0.0383 -0.1154  0.3871
56639W        W99692   6.417  33.210   2.639  0.2630  0.0097 -0.0174
56640W        W99693  26.981  27.320  23.627 -0.1472  0.1615 -0.0949
56641W        W99694  32.765  24.593   6.315  0.4810 -0.1239  0.1125
56642W        W99695  26.481   4.337   6.730 -0.1978 -0.1345 -0.0658
56643W        W99696  24.953   7.635   5.984  0.0232  0.1006 -0.1391
56644W        W99697  29.430  30.121   8.748  0.2897 -0.0298  0.1384
56645W        W99698  33.246  10.162   0.899 -0.0766  0.3275 -0.2722
56646W        W99699   0.363   7.051   7.328 -0.1144  0.2968  0.2501
56647W        W99700  21.569   3.058  26.390  0.3278  0.0657  0.1724
56648W        W99701  17.160  25.898   1.345 -0.1004 -0.0776  0.2767
56649W        W99702  31.160  26.522  16.339 -0.1903  0.2154 -0.0082
56650W        W99703  21.672  30.733   5.219  0.2931 -0.1810  0.1194
56651W        W99704  27.031  29.459   8.858 -0.0099  0.0914  0.1960
56652W        W99705   0.012   8.830   1.632 -0.2963  0.0199  0.0578
56653W        W99706   2.030  20.532   4.343  0.1995 -0.0237 -0.4853
56654W        W99707  26.927   3.569  21.382 -0.1251 -0.0846 -0.1190
56655W        W99708  20.350   1.377  28.039  0.2534  0.2412 -0.1777
56656W        W99709  14.970   6.153  28.736 -0.1335  0.2214  0.1005
56657W        W99710  33.488   8.887   6.166  0.2385 -0.0732  0.0188
56658W        W99711  29.811  34.263   1.020 -0.1658  0.2369 -0.3716
56659W        W99712  33.182   5.393   2.072  0.3572  0.1699 -0.2658
56660W        W99713  22.408   4.492   6.066  0.0544  0.0993 -0.3404
56661W        W99714   1.895  32.983  28.908  0.3264 -0.0486  0.1690
56662W        W99715  11.539   0.631   8.564  0.1037 -0.0263  0.1272
56663W        W99716  10.764  30.749   7.993  0.0707  0.1091 -0.1590
56664W        W99717   2.700   3.763   8.056  0.0798 -0.4200 -0.1959
56665W        W99718   4.299  13.267   9.982 -0.3669  0.0903 -0.2660
56666W        W99719  24.423   1.033   9.193  0.0719  0.1525 -0.2175
56667W        W99720  33.540  30.075  28.156  0.1909  0.1739 -0.3659
56668W        W99721  31.040  10.922   3.351  0.0625  0.1090  0.4118
56669W        W99722  23.909  32.840  20.001 -0.0860 -0.2343  0.0179
56670W        W99723   7.514  28.495  26.937 -0.1307 -0.2214 -0.0690
56671W        W99724   4.346  33.814  28.289 -0.1961 -0.0044 -0.3862
56672W        W99725  25.113  33.074   6.475  0.2561 -0.0819  0.2311
56673W        W99726  11.843  29.889   1.904  0.1178  0.1064  0.0249
56674W        W99727   1.697   0.454   6.552 -0.2238  0.1204 -0.1086
56675W        W99728  20.990  31.195   5.954  0.0344 -0.1703 -0.1124
56676W        W99729   4.217   2.265   0.672  0.1946 -0.1104 -0.2777
56677W        W99730   2.582  15.940   5.365  0.1774 -0.0135  0.2425
56678W        W99731   4.001  33.483   3.516  0.1330 -0.0467  0.2710
56679W        W99732   2.041   7.534   5.302  0.0012  0.2160 -0.1171
56680W        W99733   3.642   1.917  27.405 -0.1976  0.1629  0.3710
56681W        W99734   0.749  31.931   9.082  0.3006 -0.0196  0.1119
56682W        W99735  19.464  11.118   6.971  0.1089 -0.1357  0.1962
56683W        W99736   3.150  24.966   2.776  0.3069 -0.0535  0.5923
56684W        W99737  12.692  25.250   1.685  0.0743  0.0526  0.0208
56685W        W99738   0.306  19.394   9.276  0.0407 -0.0069  0.2186
56686W        W99739  28.500  21.389  14.759  0.1810 -0.2001  0.1699
56687W        W99740  25.092   3.577  24.388 -0.1688  0.2885  0.1460
56688W        W99741  18.508  16.822   0.128  0.2002 -0.1071 -0.0224
56689W        W99742  25.463  26.941   1.847 -0.1156  0.1136  0.0471
56690W        W99743  23.045  25.702  21.462 -0.0390 -0.0968 -0.3718
56691W        W99744   2.207  15.980   7.049  0.0965  0.0044 -0.2587
56692W        W99745   0.278  31.838   8.927 -0.1586 -0.0580  0.3381
56693W        W99746  28.585   2.898   2.404 -0.1231 -0.0201 -0.1130
56694W        W99747  33.240  28.949  23.372  0.1071 -0.0453  0.2505
56695W        W99748   8.941   7.571   2.894  0.0441 -0.2565  0.0038
56696W        W99749   1.406   4.950   1.258 -0.1368 -0.2751 -0.2144
56697W        W99750  28.769  33.597   0.746  0.3969  0.0174 -0.1967
56698W        W99751   8.089  32.296   1.876 -0.0582 -0.2706  0.1313
56699W        W99752  28.244   3.716   8.577  0.0254  0.2369  0.1033
56700W        W99753   3.382   2.118   0.122 -0.0368  0.2491 -0.2312
56701W        W99754  24.919  28.415  25.654 -0.2140  0.1116  0.1667
56702W        W99755  20.907   0.490   0.301 -0.3054 -0.3907 -0.0288
56703W        W99756  31.478   8.865   4.997  0.0313  0.0426 -0.1380
56704W        W99757  27.678  34.134  27.166  0.0458 -0.0009 -0.3324
56705W        W99758   3.263   3.623   9.641 -0.1169 -0.2707 -0.3529
56706W        W99759  32.484  13.511  25.485 -0.2870 -0.1741  0.0318
56707W        W99760   2.918   6.032   0.628 -0.1366 -0.2349  0.3781
56708W        W99761  18.003  23.958   6.539  0.1155 -0.2850  0.0563
56709W        W99762   8.876  27.606  25.886  0.1606 -0.1852  0.0160
56710W        W99763  30.817  21.468  24.762  0.0305 -0.1701  0.2398
56711W        W99764   1.654  28.256  27.283 -0.3721  0.2407  0.0574
56712W        W99765  15.070  34.262  25.146  0.0818 -0.1057 -0.1242
56713W        W99766  32.361  11.093   9.268 -0.2561  0.3669  0.2067
56714W        W99767   5.811  32.372   2.457  0.0791 -0.1981  0.0698
56715W        W99768  15.746  32.602   2.886  0.0651 -0.0942  0.1935
56716W        W99769  26.776  28.426  19.359  0.5571 -0.0307 -0.4216
56717W        W99770   0.030  23.067   7.320 -0.0213  0.0260 -0.0113
56718W        W99771   3.524   3.176  26.836 -0.0240 -0.0076 -0.0532
56719W        W99772   3.723   3.454   5.029 -0.0302  0.2578  0.0714
56720W        W99773   7.097  31.381   4.088  0.2996 -0.0590  0.2353
56721W        W99774  10.883  26.738   3.041 -0.0723  0.4239  0.1217
56722W        W99775  17.163  33.526   7.374  0.0555 -0.0409  0.3111
56723W        W99776   2.443  33.643  19.836  0.0128  0.3893 -0.0984
56724W        W99777  25.147  25.297  10.651  0.3988 -0.1906  0.0102
56725W        W99778  26.438  32.068  26.431 -0.0878  0.1090 -0.0591
56726W        W99779  23.334   0.231   8.833  0.3248  0.0322 -0.3284
56727W        W99780   0.174  16.505   8.849 -0.1232 -0.0749  0.2885
56728W        W99781   1.199  29.586  23.344 -0.0956  0.0743  0.1061
56729W        W99782  16.235  30.797   7.787 -0.3248  0.1541  0.0753
56730W        W99783   0.859  32.084   2.886 -0.0033  0.0165 -0.1679
  34.68775  34.68775  29.20112
